Protein in water t=   0.00000 step= 0
325731
    1DC5    H5T    1   7.967   3.961   4.853
    1DC5    O5'    2   8.022   4.032   4.902
    1DC5    C5'    3   8.020   4.155   4.841
    1DC5   H5'1    4   7.907   4.187   4.839
    1DC5   H5'2    5   8.053   4.147   4.735
    1DC5    C4'    6   8.111   4.247   4.916
    1DC5    H4'    7   8.215   4.207   4.920
    1DC5    O4'    8   8.112   4.367   4.841
    1DC5    C1'    9   8.141   4.473   4.938
    1DC5    H1'   10   8.240   4.463   4.986
    1DC5     N1   11   8.126   4.609   4.869
    1DC5     C6   12   7.999   4.669   4.853
    1DC5     H6   13   7.917   4.649   4.911
    1DC5     C5   14   8.000   4.785   4.779
    1DC5     H5   15   7.912   4.848   4.780
    1DC5     C4   16   8.126   4.825   4.722
    1DC5     N4   17   8.130   4.926   4.641
    1DC5    H41   18   8.226   4.948   4.616
    1DC5    H42   19   8.042   4.980   4.615
    1DC5     N3   20   8.246   4.770   4.738
    1DC5     C2   21   8.244   4.668   4.826
    1DC5     O2   22   8.350   4.624   4.868
    1DC5    C3'   23   8.068   4.288   5.061
    1DC5    H3'   24   7.979   4.235   5.091
    1DC5    C2'   25   8.036   4.439   5.043
    1DC5   H2'1   26   7.940   4.456   4.997
    1DC5   H2'2   27   8.044   4.501   5.138
    1DC5    O3'   28   8.183   4.283   5.143
    2DG       P   29   8.170   4.220   5.281
    2DG     O1P   30   8.124   4.082   5.257
    2DG     O2P   31   8.082   4.303   5.361
    2DG     O5'   32   8.303   4.207   5.374
    2DG     C5'   33   8.428   4.172   5.324
    2DG    H5'1   34   8.437   4.146   5.217
    2DG    H5'2   35   8.468   4.082   5.374
    2DG     C4'   36   8.536   4.284   5.346
    2DG     H4'   37   8.642   4.255   5.329
    2DG     O4'   38   8.505   4.393   5.261
    2DG     C1'   39   8.497   4.521   5.323
    2DG     H1'   40   8.597   4.559   5.342
    2DG      N9   41   8.400   4.617   5.262
    2DG      C8   42   8.268   4.597   5.239
    2DG      H8   43   8.214   4.512   5.279
    2DG      N7   44   8.213   4.700   5.180
    2DG      C5   45   8.317   4.784   5.145
    2DG      C6   46   8.321   4.903   5.071
    2DG      O6   47   8.227   4.957   5.009
    2DG      N1   48   8.444   4.958   5.065
    2DG      H1   49   8.445   5.042   5.008
    2DG      C2   50   8.556   4.909   5.125
    2DG      N2   51   8.666   4.965   5.088
    2DG     H21   52   8.671   5.041   5.019
    2DG     H22   53   8.752   4.924   5.123
    2DG      N3   54   8.561   4.792   5.195
    2DG      C4   55   8.436   4.739   5.204
    2DG     C3'   56   8.528   4.353   5.491
    2DG     H3'   57   8.469   4.294   5.567
    2DG     C2'   58   8.454   4.483   5.465
    2DG    H2'1   59   8.348   4.461   5.470
    2DG    H2'2   60   8.482   4.557   5.548
    2DG     O3'   61   8.657   4.373   5.537
    3DC       P   62   8.699   4.373   5.695
    3DC     O1P   63   8.789   4.259   5.716
    3DC     O2P   64   8.577   4.384   5.776
    3DC     O5'   65   8.786   4.505   5.707
    3DC     C5'   66   8.917   4.525   5.653
    3DC    H5'1   67   8.930   4.466   5.561
    3DC    H5'2   68   8.990   4.482   5.722
    3DC     C4'   69   8.957   4.670   5.629
    3DC     H4'   70   9.059   4.674   5.595
    3DC     O4'   71   8.868   4.735   5.542
    3DC     C1'   72   8.817   4.854   5.605
    3DC     H1'   73   8.874   4.939   5.576
    3DC      N1   74   8.674   4.866   5.558
    3DC      C6   75   8.575   4.781   5.596
    3DC      H6   76   8.603   4.695   5.658
    3DC      C5   77   8.448   4.808   5.550
    3DC      H5   78   8.368   4.735   5.558
    3DC      C4   79   8.421   4.920   5.461
    3DC      N4   80   8.300   4.945   5.422
    3DC     H41   81   8.275   5.036   5.376
    3DC     H42   82   8.231   4.871   5.434
    3DC      N3   83   8.519   4.998   5.419
    3DC      C2   84   8.647   4.972   5.469
    3DC      O2   85   8.742   5.036   5.431
    3DC     C3'   86   8.972   4.764   5.752
    3DC     H3'   87   8.989   4.710   5.850
    3DC     C2'   88   8.833   4.829   5.757
    3DC    H2'1   89   8.755   4.761   5.801
    3DC    H2'2   90   8.829   4.923   5.810
    3DC     O3'   91   9.060   4.865   5.723
    4DA       P   92   9.118   4.958   5.842
    4DA     O1P   93   9.270   4.953   5.840
    4DA     O2P   94   9.055   4.933   5.966
    4DA     O5'   95   9.066   5.104   5.799
    4DA     C5'   96   9.122   5.153   5.683
    4DA    H5'1   97   9.088   5.105   5.588
    4DA    H5'2   98   9.235   5.140   5.688
    4DA     C4'   99   9.094   5.308   5.668
    4DA     H4'  100   9.156   5.358   5.595
    4DA     O4'  101   8.959   5.334   5.628
    4DA     C1'  102   8.877   5.374   5.736
    4DA     H1'  103   8.840   5.480   5.717
    4DA      N9  104   8.760   5.280   5.738
    4DA      C8  105   8.747   5.165   5.814
    4DA      H8  106   8.823   5.114   5.875
    4DA      N7  107   8.628   5.108   5.811
    4DA      C5  108   8.559   5.189   5.722
    4DA      C6  109   8.422   5.201   5.676
    4DA      N6  110   8.316   5.122   5.703
    4DA     H61  111   8.233   5.155   5.668
    4DA     H62  112   8.327   5.039   5.764
    4DA      N1  113   8.388   5.293   5.585
    4DA      C2  114   8.479   5.381   5.549
    4DA      H2  115   8.438   5.462   5.481
    4DA      N3  116   8.600   5.394   5.589
    4DA      C4  117   8.638   5.294   5.676
    4DA     C3'  118   9.109   5.377   5.797
    4DA     H3'  119   9.189   5.335   5.856
    4DA     C2'  120   8.970   5.373   5.861
    4DA    H2'1  121   8.960   5.274   5.920
    4DA    H2'2  122   8.956   5.456   5.929
    4DA     O3'  123   9.149   5.509   5.773
    5DT       P  124   9.200   5.607   5.884
    5DT     O1P  125   9.291   5.705   5.814
    5DT     O2P  126   9.248   5.536   6.002
    5DT     O5'  127   9.067   5.683   5.915
    5DT     C5'  128   9.003   5.776   5.821
    5DT    H5'1  129   9.011   5.740   5.723
    5DT    H5'2  130   9.059   5.866   5.822
    5DT     C4'  131   8.857   5.810   5.852
    5DT     H4'  132   8.812   5.890   5.786
    5DT     O4'  133   8.781   5.690   5.836
    5DT     C1'  134   8.691   5.696   5.937
    5DT     H1'  135   8.616   5.770   5.902
    5DT      N1  136   8.617   5.569   5.959
    5DT      C6  137   8.674   5.460   6.026
    5DT      H6  138   8.766   5.472   6.069
    5DT      C5  139   8.602   5.346   6.050
    5DT      C7  140   8.669   5.239   6.135
    5DT     H71  141   8.775   5.243   6.118
    5DT     H72  142   8.655   5.259   6.239
    5DT     H73  143   8.638   5.139   6.113
    5DT      C4  144   8.461   5.332   6.002
    5DT      O4  145   8.384   5.239   6.019
    5DT      N3  146   8.414   5.448   5.940
    5DT      H3  147   8.316   5.451   5.923
    5DT      C2  148   8.482   5.566   5.918
    5DT      O2  149   8.423   5.659   5.871
    5DT     C3'  150   8.842   5.865   5.994
    5DT     H3'  151   8.938   5.865   6.042
    5DT     C2'  152   8.757   5.757   6.058
    5DT    H2'1  153   8.817   5.685   6.108
    5DT    H2'2  154   8.678   5.792   6.129
    5DT     O3'  155   8.783   5.989   5.987
    6DG       P  156   8.737   6.075   6.115
    6DG     O1P  157   8.784   6.215   6.099
    6DG     O2P  158   8.775   6.009   6.241
    6DG     O5'  159   8.569   6.074   6.101
    6DG     C5'  160   8.507   6.145   5.994
    6DG    H5'1  161   8.535   6.110   5.897
    6DG    H5'2  162   8.532   6.249   6.003
    6DG     C4'  163   8.354   6.131   6.007
    6DG     H4'  164   8.318   6.201   5.935
    6DG     O4'  165   8.305   5.999   5.993
    6DG     C1'  166   8.215   5.969   6.100
    6DG     H1'  167   8.113   6.006   6.084
    6DG      N9  168   8.206   5.824   6.131
    6DG      C8  169   8.307   5.744   6.177
    6DG      H8  170   8.408   5.796   6.180
    6DG      N7  171   8.270   5.621   6.206
    6DG      C5  172   8.135   5.617   6.173
    6DG      C6  173   8.041   5.515   6.185
    6DG      O6  174   8.058   5.397   6.223
    6DG      N1  175   7.913   5.552   6.148
    6DG      H1  176   7.843   5.477   6.145
    6DG      C2  177   7.882   5.676   6.105
    6DG      N2  178   7.758   5.690   6.060
    6DG     H21  179   7.691   5.614   6.055
    6DG     H22  180   7.730   5.781   6.021
    6DG      N3  181   7.970   5.779   6.092
    6DG      C4  182   8.094   5.740   6.122
    6DG     C3'  183   8.306   6.177   6.142
    6DG     H3'  184   8.388   6.225   6.199
    6DG     C2'  185   8.261   6.054   6.217
    6DG    H2'1  186   8.347   6.008   6.266
    6DG    H2'2  187   8.177   6.077   6.281
    6DG     O3'  188   8.196   6.269   6.134
    7DT       P  189   8.119   6.340   6.254
    7DT     O1P  190   8.079   6.480   6.225
    7DT     O2P  191   8.196   6.323   6.382
    7DT     O5'  192   7.993   6.247   6.253
    7DT     C5'  193   7.908   6.236   6.143
    7DT    H5'1  194   7.945   6.170   6.060
    7DT    H5'2  195   7.895   6.339   6.099
    7DT     C4'  196   7.774   6.177   6.195
    7DT     H4'  197   7.705   6.174   6.105
    7DT     O4'  198   7.790   6.043   6.227
    7DT     C1'  199   7.750   6.016   6.356
    7DT     H1'  200   7.649   5.985   6.358
    7DT      N1  201   7.836   5.906   6.417
    7DT      C6  202   7.972   5.928   6.444
    7DT      H6  203   8.008   6.025   6.448
    7DT      C5  204   8.044   5.825   6.483
    7DT      C7  205   8.191   5.843   6.514
    7DT     H71  206   8.244   5.775   6.451
    7DT     H72  207   8.230   5.941   6.491
    7DT     H73  208   8.238   5.812   6.613
    7DT      C4  209   7.991   5.687   6.496
    7DT      O4  210   8.057   5.587   6.523
    7DT      N3  211   7.861   5.676   6.457
    7DT      H3  212   7.840   5.579   6.443
    7DT      C2  213   7.778   5.777   6.420
    7DT      O2  214   7.660   5.755   6.389
    7DT     C3'  215   7.708   6.246   6.318
    7DT     H3'  216   7.754   6.341   6.331
    7DT     C2'  217   7.758   6.150   6.425
    7DT    H2'1  218   7.857   6.184   6.449
    7DT    H2'2  219   7.698   6.145   6.517
    7DT     O3'  220   7.569   6.236   6.326
    8DG       P  221   7.480   6.336   6.409
    8DG     O1P  222   7.364   6.364   6.326
    8DG     O2P  223   7.555   6.447   6.475
    8DG     O5'  224   7.435   6.239   6.531
    8DG     C5'  225   7.349   6.124   6.503
    8DG    H5'1  226   7.393   6.075   6.408
    8DG    H5'2  227   7.250   6.156   6.481
    8DG     C4'  228   7.342   6.022   6.619
    8DG     H4'  229   7.255   5.960   6.614
    8DG     O4'  230   7.460   5.958   6.597
    8DG     C1'  231   7.500   5.906   6.721
    8DG     H1'  232   7.426   5.826   6.751
    8DG      N9  233   7.631   5.846   6.731
    8DG      C8  234   7.754   5.909   6.740
    8DG      H8  235   7.770   6.017   6.733
    8DG      N7  236   7.848   5.829   6.777
    8DG      C5  237   7.789   5.705   6.769
    8DG      C6  238   7.848   5.571   6.781
    8DG      O6  239   7.960   5.535   6.818
    8DG      N1  240   7.760   5.476   6.748
    8DG      H1  241   7.793   5.382   6.756
    8DG      C2  242   7.632   5.492   6.723
    8DG      N2  243   7.559   5.385   6.712
    8DG     H21  244   7.606   5.297   6.714
    8DG     H22  245   7.453   5.397   6.694
    8DG      N3  246   7.567   5.613   6.714
    8DG      C4  247   7.658   5.713   6.736
    8DG     C3'  248   7.349   6.084   6.760
    8DG     H3'  249   7.345   6.193   6.754
    8DG     C2'  250   7.483   6.034   6.800
    8DG    H2'1  251   7.549   6.114   6.766
    8DG    H2'2  252   7.497   6.021   6.907
    8DG     O3'  253   7.248   6.032   6.839
    9DC       P  254   7.098   6.084   6.823
    9DC     O1P  255   7.061   6.090   6.677
    9DC     O2P  256   7.073   6.203   6.904
    9DC     O5'  257   7.007   5.969   6.874
    9DC     C5'  258   6.991   5.843   6.811
    9DC    H5'1  259   7.031   5.828   6.713
    9DC    H5'2  260   6.885   5.818   6.806
    9DC     C4'  261   7.049   5.736   6.911
    9DC     H4'  262   7.002   5.648   6.871
    9DC     O4'  263   7.190   5.718   6.906
    9DC     C1'  264   7.237   5.692   7.038
    9DC     H1'  265   7.217   5.590   7.065
    9DC      N1  266   7.383   5.725   7.058
    9DC      C6  267   7.430   5.851   7.079
    9DC      H6  268   7.364   5.942   7.062
    9DC      C5  269   7.560   5.866   7.111
    9DC      H5  270   7.594   5.971   7.122
    9DC      C4  271   7.640   5.749   7.113
    9DC      N4  272   7.775   5.759   7.115
    9DC     H41  273   7.824   5.668   7.115
    9DC     H42  274   7.824   5.842   7.143
    9DC      N3  275   7.601   5.628   7.088
    9DC      C2  276   7.469   5.610   7.064
    9DC      O2  277   7.430   5.497   7.043
    9DC     C3'  278   7.008   5.748   7.050
    9DC     H3'  279   6.939   5.836   7.066
    9DC     C2'  280   7.140   5.774   7.118
    9DC    H2'1  281   7.160   5.880   7.117
    9DC    H2'2  282   7.138   5.747   7.222
    9DC     O3'  283   6.937   5.628   7.088
   10DG       P  284   6.889   5.613   7.243
   10DG     O1P  285   6.751   5.552   7.240
   10DG     O2P  286   6.907   5.736   7.318
   10DG     O5'  287   6.994   5.501   7.285
   10DG     C5'  288   6.999   5.378   7.207
   10DG    H5'1  289   6.900   5.349   7.173
   10DG    H5'2  290   7.057   5.389   7.113
   10DG     C4'  291   7.057   5.255   7.287
   10DG     H4'  292   7.049   5.163   7.230
   10DG     O4'  293   7.193   5.284   7.324
   10DG     C1'  294   7.198   5.335   7.454
   10DG     H1'  295   7.246   5.261   7.515
   10DG      N9  296   7.279   5.462   7.462
   10DG      C8  297   7.243   5.593   7.447
   10DG      H8  298   7.139   5.621   7.441
   10DG      N7  299   7.352   5.670   7.429
   10DG      C5  300   7.461   5.584   7.435
   10DG      C6  301   7.604   5.605   7.421
   10DG      O6  302   7.670   5.713   7.416
   10DG      N1  303   7.681   5.490   7.431
   10DG      H1  304   7.786   5.506   7.426
   10DG      C2  305   7.629   5.373   7.471
   10DG      N2  306   7.711   5.278   7.511
   10DG     H21  307   7.816   5.291   7.512
   10DG     H22  308   7.674   5.180   7.505
   10DG      N3  309   7.496   5.349   7.479
   10DG      C4  310   7.420   5.455   7.460
   10DG     C3'  311   6.987   5.238   7.419
   10DG     H3'  312   6.883   5.263   7.413
   10DG     C2'  313   7.062   5.337   7.512
   10DG    H2'1  314   7.018   5.436   7.522
   10DG    H2'2  315   7.073   5.305   7.616
   10DG     O3'  316   6.999   5.104   7.461
   11DT       P  317   6.927   5.049   7.597
   11DT     O1P  318   6.897   4.906   7.583
   11DT     O2P  319   6.821   5.145   7.636
   11DT     O5'  320   7.051   5.055   7.701
   11DT     C5'  321   7.182   5.001   7.667
   11DT    H5'1  322   7.205   5.030   7.568
   11DT    H5'2  323   7.176   4.893   7.678
   11DT     C4'  324   7.294   5.042   7.757
   11DT     H4'  325   7.374   4.987   7.731
   11DT     O4'  326   7.326   5.180   7.743
   11DT     C1'  327   7.401   5.213   7.852
   11DT     H1'  328   7.496   5.163   7.846
   11DT      N1  329   7.404   5.355   7.860
   11DT      C6  330   7.285   5.427   7.845
   11DT      H6  331   7.191   5.374   7.863
   11DT      C5  332   7.279   5.561   7.823
   11DT      C7  333   7.145   5.634   7.822
   11DT     H71  334   7.057   5.564   7.789
   11DT     H72  335   7.129   5.662   7.926
   11DT     H73  336   7.145   5.716   7.750
   11DT      C4  337   7.412   5.629   7.794
   11DT      O4  338   7.434   5.748   7.767
   11DT      N3  339   7.522   5.545   7.808
   11DT      H3  340   7.612   5.601   7.805
   11DT      C2  341   7.529   5.418   7.851
   11DT      O2  342   7.632   5.358   7.876
   11DT     C3'  343   7.258   5.025   7.906
   11DT     H3'  344   7.153   5.023   7.929
   11DT     C2'  345   7.321   5.145   7.964
   11DT    H2'1  346   7.241   5.201   8.000
   11DT    H2'2  347   7.386   5.123   8.049
   11DT     O3'  348   7.314   4.902   7.963
   12DA       P  349   7.308   4.860   8.113
   12DA     O1P  350   7.322   4.712   8.116
   12DA     O2P  351   7.179   4.914   8.176
   12DA     O5'  352   7.436   4.939   8.178
   12DA     C5'  353   7.563   4.920   8.112
   12DA    H5'1  354   7.559   4.954   8.009
   12DA    H5'2  355   7.588   4.810   8.109
   12DA     C4'  356   7.685   4.994   8.174
   12DA     H4'  357   7.774   4.947   8.147
   12DA     O4'  358   7.676   5.131   8.129
   12DA     C1'  359   7.710   5.218   8.236
   12DA     H1'  360   7.820   5.229   8.233
   12DA      N9  361   7.647   5.350   8.222
   12DA      C8  362   7.515   5.386   8.233
   12DA      H8  363   7.441   5.315   8.259
   12DA      N7  364   7.485   5.512   8.218
   12DA      C5  365   7.609   5.564   8.177
   12DA      C6  366   7.652   5.688   8.117
   12DA      N6  367   7.576   5.792   8.089
   12DA     H61  368   7.613   5.860   8.027
   12DA     H62  369   7.478   5.790   8.094
   12DA      N1  370   7.779   5.706   8.087
   12DA      C2  371   7.864   5.602   8.104
   12DA      H2  372   7.962   5.623   8.067
   12DA      N3  373   7.833   5.476   8.135
   12DA      C4  374   7.701   5.462   8.169
   12DA     C3'  375   7.686   4.995   8.333
   12DA     H3'  376   7.611   4.932   8.375
   12DA     C2'  377   7.669   5.144   8.371
   12DA    H2'1  378   7.567   5.159   8.413
   12DA    H2'2  379   7.739   5.169   8.445
   12DA     O3'  380   7.814   4.945   8.375
   13DT       P  381   7.855   4.904   8.518
   13DT     O1P  382   7.947   4.789   8.511
   13DT     O2P  383   7.727   4.884   8.585
   13DT     O5'  384   7.920   5.039   8.571
   13DT     C5'  385   8.039   5.095   8.508
   13DT    H5'1  386   8.027   5.084   8.397
   13DT    H5'2  387   8.129   5.038   8.541
   13DT     C4'  388   8.070   5.246   8.524
   13DT     H4'  389   8.156   5.281   8.463
   13DT     O4'  390   7.955   5.318   8.475
   13DT     C1'  391   7.967   5.451   8.512
   13DT     H1'  392   8.036   5.486   8.440
   13DT      N1  393   7.842   5.521   8.504
   13DT      C6  394   7.720   5.473   8.552
   13DT      H6  395   7.710   5.369   8.579
   13DT      C5  396   7.605   5.550   8.545
   13DT      C7  397   7.465   5.492   8.582
   13DT     H71  398   7.474   5.381   8.558
   13DT     H72  399   7.443   5.507   8.688
   13DT     H73  400   7.390   5.528   8.517
   13DT      C4  401   7.612   5.684   8.481
   13DT      O4  402   7.518   5.760   8.461
   13DT      N3  403   7.737   5.722   8.449
   13DT      H3  404   7.751   5.824   8.434
   13DT      C2  405   7.850   5.652   8.464
   13DT      O2  406   7.962   5.710   8.453
   13DT     C3'  407   8.087   5.302   8.662
   13DT     H3'  408   8.018   5.251   8.728
   13DT     C2'  409   8.032   5.446   8.653
   13DT    H2'1  410   7.957   5.443   8.732
   13DT    H2'2  411   8.102   5.516   8.661
   13DT     O3'  412   8.222   5.293   8.713
   14DT       P  413   8.259   5.337   8.863
   14DT     O1P  414   8.402   5.299   8.880
   14DT     O2P  415   8.153   5.276   8.954
   14DT     O5'  416   8.243   5.493   8.865
   14DT     C5'  417   8.341   5.579   8.810
   14DT    H5'1  418   8.327   5.572   8.703
   14DT    H5'2  419   8.444   5.551   8.835
   14DT     C4'  420   8.310   5.727   8.828
   14DT     H4'  421   8.381   5.779   8.770
   14DT     O4'  422   8.179   5.746   8.772
   14DT     C1'  423   8.103   5.818   8.869
   14DT     H1'  424   8.112   5.921   8.856
   14DT      N1  425   7.956   5.794   8.860
   14DT      C6  426   7.902   5.666   8.886
   14DT      H6  427   7.971   5.590   8.916
   14DT      C5  428   7.772   5.637   8.867
   14DT      C7  429   7.714   5.503   8.891
   14DT     H71  430   7.618   5.512   8.947
   14DT     H72  431   7.706   5.448   8.801
   14DT     H73  432   7.784   5.438   8.946
   14DT      C4  433   7.688   5.737   8.810
   14DT      O4  434   7.568   5.730   8.798
   14DT      N3  435   7.748   5.856   8.772
   14DT      H3  436   7.693   5.935   8.738
   14DT      C2  437   7.876   5.893   8.801
   14DT      O2  438   7.914   6.008   8.792
   14DT     C3'  439   8.310   5.765   8.979
   14DT     H3'  440   8.365   5.685   9.033
   14DT     C2'  441   8.162   5.776   9.007
   14DT    H2'1  442   8.129   5.676   9.029
   14DT    H2'2  443   8.126   5.846   9.084
   14DT     O3'  444   8.370   5.899   8.996
   15DA       P  445   8.491   5.928   9.080
   15DA     O1P  446   8.613   5.886   9.006
   15DA     O2P  447   8.470   5.865   9.213
   15DA     O5'  448   8.503   6.090   9.097
   15DA     C5'  449   8.535   6.173   8.987
   15DA    H5'1  450   8.516   6.115   8.894
   15DA    H5'2  451   8.637   6.208   9.007
   15DA     C4'  452   8.457   6.302   8.979
   15DA     H4'  453   8.498   6.350   8.890
   15DA     O4'  454   8.324   6.279   8.952
   15DA     C1'  455   8.251   6.342   9.057
   15DA     H1'  456   8.217   6.436   9.026
   15DA      N9  457   8.130   6.265   9.091
   15DA      C8  458   8.123   6.143   9.159
   15DA      H8  459   8.218   6.094   9.189
   15DA      N7  460   7.999   6.094   9.165
   15DA      C5  461   7.920   6.193   9.103
   15DA      C6  462   7.783   6.213   9.080
   15DA      N6  463   7.692   6.138   9.136
   15DA     H61  464   7.597   6.160   9.116
   15DA     H62  465   7.709   6.060   9.196
   15DA      N1  466   7.736   6.320   9.017
   15DA      C2  467   7.826   6.408   8.969
   15DA      H2  468   7.791   6.493   8.911
   15DA      N3  469   7.961   6.402   8.981
   15DA      C4  470   7.997   6.296   9.051
   15DA     C3'  471   8.482   6.382   9.101
   15DA     H3'  472   8.564   6.342   9.172
   15DA     C2'  473   8.345   6.361   9.173
   15DA    H2'1  474   8.361   6.283   9.240
   15DA    H2'2  475   8.312   6.453   9.225
   15DA     O3'  476   8.509   6.513   9.049
   16DT       P  477   8.486   6.640   9.136
   16DT     O1P  478   8.584   6.739   9.083
   16DT     O2P  479   8.487   6.607   9.281
   16DT     O5'  480   8.339   6.696   9.106
   16DT     C5'  481   8.300   6.730   8.975
   16DT    H5'1  482   8.285   6.632   8.920
   16DT    H5'2  483   8.386   6.790   8.925
   16DT     C4'  484   8.167   6.809   8.992
   16DT     H4'  485   8.138   6.839   8.889
   16DT     O4'  486   8.065   6.723   9.034
   16DT     C1'  487   7.993   6.775   9.141
   16DT     H1'  488   7.909   6.843   9.101
   16DT      N1  489   7.941   6.660   9.212
   16DT      C6  490   8.028   6.587   9.291
   16DT      H6  491   8.130   6.611   9.293
   16DT      C5  492   7.984   6.473   9.353
   16DT      C7  493   8.094   6.401   9.437
   16DT     H71  494   8.187   6.456   9.437
   16DT     H72  495   8.056   6.384   9.544
   16DT     H73  496   8.114   6.307   9.391
   16DT      C4  497   7.843   6.425   9.350
   16DT      O4  498   7.796   6.327   9.405
   16DT      N3  499   7.762   6.512   9.282
   16DT      H3  500   7.669   6.484   9.262
   16DT      C2  501   7.808   6.611   9.202
   16DT      O2  502   7.719   6.662   9.132
   16DT     C3'  503   8.175   6.926   9.088
   16DT     H3'  504   8.268   6.965   9.115
   16DT     C2'  505   8.095   6.866   9.206
   16DT    H2'1  506   8.169   6.808   9.269
   16DT    H2'2  507   8.055   6.942   9.277
   16DT     O3'  508   8.093   7.021   9.020
   17DA       P  509   8.083   7.172   9.074
   17DA     O1P  510   8.049   7.255   8.958
   17DA     O2P  511   8.196   7.206   9.155
   17DA     O5'  512   7.956   7.176   9.171
   17DA     C5'  513   7.830   7.172   9.107
   17DA    H5'1  514   7.822   7.062   9.080
   17DA    H5'2  515   7.820   7.223   9.009
   17DA     C4'  516   7.703   7.205   9.191
   17DA     H4'  517   7.622   7.236   9.131
   17DA     O4'  518   7.665   7.084   9.254
   17DA     C1'  519   7.680   7.096   9.394
   17DA     H1'  520   7.586   7.104   9.443
   17DA      N9  521   7.749   6.978   9.449
   17DA      C8  522   7.880   6.958   9.479
   17DA      H8  523   7.951   7.035   9.454
   17DA      N7  524   7.897   6.847   9.542
   17DA      C5  525   7.775   6.784   9.537
   17DA      C6  526   7.718   6.657   9.578
   17DA      N6  527   7.778   6.563   9.642
   17DA     H61  528   7.720   6.482   9.666
   17DA     H62  529   7.874   6.583   9.684
   17DA      N1  530   7.585   6.637   9.574
   17DA      C2  531   7.511   6.725   9.518
   17DA      H2  532   7.403   6.705   9.513
   17DA      N3  533   7.550   6.839   9.473
   17DA      C4  534   7.684   6.860   9.477
   17DA     C3'  535   7.728   7.314   9.290
   17DA     H3'  536   7.816   7.376   9.266
   17DA     C2'  537   7.746   7.236   9.422
   17DA    H2'1  538   7.862   7.233   9.433
   17DA    H2'2  539   7.697   7.273   9.512
   17DA     O3'  540   7.613   7.401   9.288
   18DC       P  541   7.609   7.532   9.366
   18DC     O1P  542   7.504   7.617   9.298
   18DC     O2P  543   7.745   7.587   9.392
   18DC     O5'  544   7.543   7.474   9.502
   18DC     C5'  545   7.419   7.412   9.500
   18DC    H5'1  546   7.405   7.346   9.422
   18DC    H5'2  547   7.340   7.491   9.476
   18DC     C4'  548   7.383   7.331   9.622
   18DC     H4'  549   7.282   7.294   9.615
   18DC     O4'  550   7.475   7.229   9.641
   18DC     C1'  551   7.512   7.217   9.776
   18DC     H1'  552   7.423   7.175   9.829
   18DC      N1  553   7.629   7.128   9.814
   18DC      C6  554   7.756   7.173   9.811
   18DC      H6  555   7.777   7.280   9.796
   18DC      C5  556   7.864   7.092   9.826
   18DC      H5  557   7.962   7.129   9.826
   18DC      C4  558   7.837   6.953   9.838
   18DC      N4  559   7.939   6.879   9.889
   18DC     H41  560   7.923   6.775   9.906
   18DC     H42  561   8.032   6.918   9.896
   18DC      N3  562   7.715   6.902   9.836
   18DC      C2  563   7.609   6.991   9.820
   18DC      O2  564   7.499   6.940   9.833
   18DC     C3'  565   7.387   7.415   9.752
   18DC     H3'  566   7.394   7.520   9.740
   18DC     C2'  567   7.515   7.365   9.816
   18DC    H2'1  568   7.602   7.419   9.786
   18DC    H2'2  569   7.521   7.375   9.923
   18DC     O3'  570   7.282   7.384   9.842
   19DA       P  571   7.200   7.496   9.923
   19DA     O1P  572   7.135   7.578   9.816
   19DA     O2P  573   7.286   7.563  10.023
   19DA     O5'  574   7.084   7.422  10.011
   19DA     C5'  575   6.973   7.359   9.946
   19DA    H5'1  576   6.996   7.344   9.841
   19DA    H5'2  577   6.884   7.424   9.960
   19DA     C4'  578   6.946   7.214   9.989
   19DA     H4'  579   6.869   7.179   9.921
   19DA     O4'  580   7.068   7.135   9.983
   19DA     C1'  581   7.110   7.095  10.110
   19DA     H1'  582   7.077   6.989  10.121
   19DA      N9  583   7.256   7.109  10.122
   19DA      C8  584   7.335   7.217  10.122
   19DA      H8  585   7.287   7.315  10.109
   19DA      N7  586   7.460   7.195  10.146
   19DA      C5  587   7.461   7.056  10.174
   19DA      C6  588   7.554   6.963  10.217
   19DA      N6  589   7.674   6.992  10.250
   19DA     H61  590   7.738   6.917  10.281
   19DA     H62  591   7.705   7.088  10.227
   19DA      N1  592   7.525   6.837  10.243
   19DA      C2  593   7.398   6.802  10.222
   19DA      H2  594   7.374   6.697  10.249
   19DA      N3  595   7.296   6.881  10.190
   19DA      C4  596   7.335   7.007  10.162
   19DA     C3'  597   6.902   7.205  10.136
   19DA     H3'  598   6.863   7.302  10.165
   19DA     C2'  599   7.029   7.176  10.211
   19DA    H2'1  600   7.077   7.263  10.251
   19DA    H2'2  601   7.015   7.112  10.296
   19DA     O3'  602   6.796   7.103  10.153
   20DD       P  603   6.707   7.088  10.289
   20DD     O1P  604   6.585   7.038  10.230
   20DD     O2P  605   6.704   7.215  10.363
   20DD     O5'  606   6.785   6.976  10.364
   20DD     C5'  607   6.789   6.837  10.322
   20DD    H5'1  608   6.849   6.831  10.235
   20DD    H5'2  609   6.691   6.793  10.290
   20DD     C4'  610   6.841   6.739  10.431
   20DD     H4'  611   6.820   6.633  10.403
   20DD     O4'  612   6.983   6.754  10.442
   20DD     C1'  613   7.008   6.758  10.581
   20DD     H1'  614   7.028   6.653  10.619
   20DD      N1  615   7.136   6.826  10.607
   20DD      C6  616   7.140   6.933  10.712
   20DD      H6  617   7.040   6.985  10.721
   20DD      C5  618   7.230   7.053  10.667
   20DD      C7  619   7.149   7.173  10.607
   20DD     H71  620   7.056   7.194  10.668
   20DD     H72  621   7.208   7.264  10.609
   20DD     H73  622   7.116   7.142  10.505
   20DD      C4  623   7.341   7.008  10.568
   20DD      O4  624   7.419   7.089  10.514
   20DD      N3  625   7.347   6.875  10.540
   20DD      H3  626   7.446   6.847  10.514
   20DD      C2  627   7.251   6.782  10.553
   20DD      O2  628   7.280   6.662  10.554
   20DD     C3'  629   6.777   6.753  10.576
   20DD     H3'  630   6.695   6.823  10.568
   20DD     C2'  631   6.888   6.827  10.642
   20DD    H2'1  632   6.895   6.931  10.609
   20DD    H2'2  633   6.882   6.824  10.758
   20DD     O3'  634   6.743   6.626  10.640
   21DD       P  635   6.703   6.605  10.796
   21DD     O1P  636   6.650   6.470  10.825
   21DD     O2P  637   6.628   6.722  10.846
   21DD     O5'  638   6.847   6.605  10.877
   21DD     C5'  639   6.943   6.502  10.852
   21DD    H5'1  640   6.930   6.472  10.756
   21DD    H5'2  641   6.913   6.414  10.902
   21DD     C4'  642   7.087   6.534  10.879
   21DD     H4'  643   7.142   6.448  10.856
   21DD     O4'  644   7.140   6.645  10.820
   21DD     C1'  645   7.256   6.680  10.889
   21DD     H1'  646   7.331   6.600  10.878
   21DD      N1  647   7.314   6.810  10.858
   21DD      C6  648   7.223   6.925  10.846
   21DD      H6  649   7.158   6.944  10.925
   21DD      C5  650   7.284   7.054  10.817
   21DD      C7  651   7.211   7.165  10.897
   21DD     H71  652   7.099   7.148  10.886
   21DD     H72  653   7.243   7.147  11.000
   21DD     H73  654   7.227   7.265  10.867
   21DD      C4  655   7.439   7.059  10.836
   21DD      O4  656   7.514   7.155  10.816
   21DD      N3  657   7.492   6.952  10.889
   21DD      H3  658   7.592   6.953  10.881
   21DD      C2  659   7.445   6.828  10.895
   21DD      O2  660   7.523   6.734  10.915
   21DD     C3'  661   7.104   6.561  11.029
   21DD     H3'  662   7.006   6.601  11.068
   21DD     C2'  663   7.223   6.657  11.036
   21DD    H2'1  664   7.200   6.756  11.076
   21DD    H2'2  665   7.319   6.618  11.080
   21DD     O3'  666   7.146   6.444  11.086
   22DG       P  667   7.116   6.419  11.244
   22DG     O1P  668   7.097   6.269  11.250
   22DG     O2P  669   7.009   6.516  11.290
   22DG     O5'  670   7.251   6.457  11.319
   22DG     C5'  671   7.374   6.390  11.295
   22DG    H5'1  672   7.379   6.369  11.187
   22DG    H5'2  673   7.362   6.300  11.355
   22DG     C4'  674   7.490   6.479  11.341
   22DG     H4'  675   7.579   6.423  11.317
   22DG     O4'  676   7.501   6.600  11.267
   22DG     C1'  677   7.566   6.698  11.350
   22DG     H1'  678   7.678   6.690  11.342
   22DG      N9  679   7.522   6.834  11.306
   22DG      C8  680   7.398   6.884  11.299
   22DG      H8  681   7.323   6.817  11.322
   22DG      N7  682   7.394   7.015  11.267
   22DG      C5  683   7.528   7.048  11.259
   22DG      C6  684   7.594   7.177  11.220
   22DG      O6  685   7.551   7.285  11.191
   22DG      N1  686   7.731   7.170  11.220
   22DG      H1  687   7.788   7.246  11.177
   22DG      C2  688   7.797   7.069  11.280
   22DG      N2  689   7.928   7.073  11.272
   22DG     H21  690   7.968   7.161  11.237
   22DG     H22  691   7.983   6.993  11.297
   22DG      N3  692   7.749   6.948  11.299
   22DG      C4  693   7.610   6.944  11.296
   22DG     C3'  694   7.505   6.512  11.492
   22DG     H3'  695   7.409   6.498  11.540
   22DG     C2'  696   7.519   6.659  11.492
   22DG    H2'1  697   7.421   6.702  11.508
   22DG    H2'2  698   7.594   6.686  11.560
   22DG     O3'  699   7.614   6.438  11.542
   23DT       P  700   7.646   6.434  11.697
   23DT     O1P  701   7.755   6.333  11.712
   23DT     O2P  702   7.526   6.419  11.782
   23DT     O5'  703   7.715   6.568  11.731
   23DT     C5'  704   7.840   6.598  11.673
   23DT    H5'1  705   7.829   6.579  11.563
   23DT    H5'2  706   7.924   6.543  11.724
   23DT     C4'  707   7.873   6.747  11.684
   23DT     H4'  708   7.977   6.762  11.643
   23DT     O4'  709   7.780   6.832  11.619
   23DT     C1'  710   7.763   6.946  11.695
   23DT     H1'  711   7.844   7.018  11.685
   23DT      N1  712   7.644   7.032  11.656
   23DT      C6  713   7.516   6.982  11.676
   23DT      H6  714   7.499   6.881  11.692
   23DT      C5  715   7.413   7.075  11.660
   23DT      C7  716   7.271   7.023  11.663
   23DT     H71  717   7.220   7.070  11.582
   23DT     H72  718   7.271   6.920  11.637
   23DT     H73  719   7.227   7.035  11.766
   23DT      C4  720   7.437   7.216  11.625
   23DT      O4  721   7.357   7.302  11.595
   23DT      N3  722   7.564   7.250  11.618
   23DT      H3  723   7.589   7.338  11.579
   23DT      C2  724   7.673   7.172  11.632
   23DT      O2  725   7.783   7.216  11.626
   23DT     C3'  726   7.875   6.789  11.833
   23DT     H3'  727   7.851   6.699  11.897
   23DT     C2'  728   7.758   6.887  11.838
   23DT    H2'1  729   7.669   6.819  11.852
   23DT    H2'2  730   7.758   6.963  11.916
   23DT     O3'  731   7.994   6.851  11.884
   24DA       P  732   8.130   6.769  11.910
   24DA     O1P  733   8.144   6.664  11.809
   24DA     O2P  734   8.130   6.725  12.048
   24DA     O5'  735   8.249   6.876  11.895
   24DA     C5'  736   8.278   6.943  11.771
   24DA    H5'1  737   8.185   6.959  11.712
   24DA    H5'2  738   8.344   6.873  11.710
   24DA     C4'  739   8.350   7.074  11.785
   24DA     H4'  740   8.412   7.092  11.705
   24DA     O4'  741   8.259   7.174  11.780
   24DA     C1'  742   8.237   7.222  11.909
   24DA     H1'  743   8.268   7.330  11.907
   24DA      N9  744   8.093   7.227  11.945
   24DA      C8  745   8.014   7.137  12.011
   24DA      H8  746   8.058   7.054  12.051
   24DA      N7  747   7.887   7.175  12.023
   24DA      C5  748   7.889   7.291  11.948
   24DA      C6  749   7.788   7.382  11.908
   24DA      N6  750   7.657   7.369  11.923
   24DA     H61  751   7.607   7.439  11.862
   24DA     H62  752   7.613   7.299  11.987
   24DA      N1  753   7.812   7.492  11.838
   24DA      C2  754   7.941   7.517  11.814
   24DA      H2  755   7.964   7.604  11.756
   24DA      N3  756   8.048   7.444  11.840
   24DA      C4  757   8.012   7.330  11.907
   24DA     C3'  758   8.439   7.087  11.910
   24DA     H3'  759   8.480   6.990  11.946
   24DA     C2'  760   8.328   7.140  12.008
   24DA    H2'1  761   8.275   7.051  12.045
   24DA    H2'2  762   8.361   7.205  12.092
   24DA     O3'  763   8.543   7.182  11.891
   25DC       P  764   8.640   7.244  12.007
   25DC     O1P  765   8.761   7.297  11.939
   25DC     O2P  766   8.659   7.138  12.110
   25DC     O5'  767   8.557   7.367  12.072
   25DC     C5'  768   8.534   7.476  11.994
   25DC    H5'1  769   8.499   7.441  11.897
   25DC    H5'2  770   8.627   7.531  11.969
   25DC     C4'  771   8.427   7.579  12.050
   25DC     H4'  772   8.430   7.661  11.985
   25DC     O4'  773   8.293   7.530  12.053
   25DC     C1'  774   8.233   7.577  12.174
   25DC     H1'  775   8.216   7.686  12.148
   25DC      N1  776   8.109   7.502  12.204
   25DC      C6  777   8.104   7.387  12.270
   25DC      H6  778   8.198   7.345  12.301
   25DC      C5  779   7.985   7.339  12.316
   25DC      H5  780   7.977   7.246  12.374
   25DC      C4  781   7.865   7.396  12.264
   25DC      N4  782   7.744   7.355  12.295
   25DC     H41  783   7.667   7.409  12.250
   25DC     H42  784   7.728   7.291  12.370
   25DC      N3  785   7.869   7.505  12.192
   25DC      C2  786   7.990   7.564  12.164
   25DC      O2  787   7.991   7.676  12.103
   25DC     C3'  788   8.454   7.637  12.190
   25DC     H3'  789   8.549   7.594  12.228
   25DC     C2'  790   8.343   7.569  12.272
   25DC    H2'1  791   8.373   7.466  12.297
   25DC    H2'2  792   8.310   7.613  12.364
   25DC     O3'  793   8.454   7.781  12.186
   26DG       P  794   8.586   7.877  12.206
   26DG     O1P  795   8.670   7.854  12.085
   26DG     O2P  796   8.638   7.834  12.341
   26DG     O5'  797   8.537   8.030  12.210
   26DG     C5'  798   8.485   8.101  12.097
   26DG    H5'1  799   8.481   8.029  12.010
   26DG    H5'2  800   8.551   8.185  12.067
   26DG     C4'  801   8.349   8.158  12.130
   26DG     H4'  802   8.317   8.222  12.043
   26DG     O4'  803   8.249   8.061  12.141
   26DG     C1'  804   8.181   8.079  12.260
   26DG     H1'  805   8.108   8.158  12.247
   26DG      N9  806   8.118   7.957  12.306
   26DG      C8  807   8.170   7.844  12.360
   26DG      H8  808   8.272   7.834  12.368
   26DG      N7  809   8.087   7.757  12.417
   26DG      C5  810   7.965   7.818  12.386
   26DG      C6  811   7.825   7.777  12.414
   26DG      O6  812   7.785   7.674  12.467
   26DG      N1  813   7.732   7.873  12.383
   26DG      H1  814   7.634   7.856  12.409
   26DG      C2  815   7.766   7.980  12.311
   26DG      N2  816   7.671   8.071  12.300
   26DG     H21  817   7.574   8.042  12.313
   26DG     H22  818   7.693   8.154  12.249
   26DG      N3  819   7.888   8.021  12.274
   26DG      C4  820   7.983   7.934  12.317
   26DG     C3'  821   8.352   8.233  12.261
   26DG     H3'  822   8.450   8.244  12.296
   26DG     C2'  823   8.285   8.134  12.356
   26DG    H2'1  824   8.360   8.060  12.388
   26DG    H2'2  825   8.240   8.179  12.444
   26DG     O3'  826   8.279   8.352  12.249
   27DC       P  827   8.288   8.469  12.345
   27DC     O1P  828   8.328   8.588  12.266
   27DC     O2P  829   8.368   8.435  12.466
   27DC     O5'  830   8.134   8.491  12.386
   27DC     C5'  831   8.028   8.516  12.290
   27DC    H5'1  832   8.028   8.428  12.216
   27DC    H5'2  833   8.042   8.616  12.243
   27DC     C4'  834   7.894   8.505  12.367
   27DC     H4'  835   7.812   8.528  12.299
   27DC     O4'  836   7.875   8.371  12.410
   27DC     C1'  837   7.836   8.373  12.544
   27DC     H1'  838   7.732   8.398  12.548
   27DC      N1  839   7.866   8.236  12.597
   27DC      C6  840   7.999   8.201  12.611
   27DC      H6  841   8.077   8.273  12.588
   27DC      C5  842   8.026   8.075  12.650
   27DC      H5  843   8.128   8.046  12.658
   27DC      C4  844   7.916   7.990  12.685
   27DC      N4  845   7.934   7.879  12.763
   27DC     H41  846   7.850   7.820  12.783
   27DC     H42  847   8.027   7.840  12.784
   27DC      N3  848   7.794   8.021  12.669
   27DC      C2  849   7.760   8.150  12.634
   27DC      O2  850   7.638   8.190  12.627
   27DC     C3'  851   7.882   8.599  12.492
   27DC     H3'  852   7.960   8.667  12.485
   27DC     C2'  853   7.902   8.494  12.613
   27DC    H2'1  854   8.008   8.468  12.627
   27DC    H2'2  855   7.856   8.535  12.703
   27DC     O3'  856   7.754   8.669  12.491
   28DA       P  857   7.710   8.762  12.610
   28DA     O1P  858   7.612   8.862  12.553
   28DA     O2P  859   7.830   8.821  12.673
   28DA     O5'  860   7.633   8.659  12.702
   28DA     C5'  861   7.518   8.584  12.668
   28DA    H5'1  862   7.548   8.489  12.626
   28DA    H5'2  863   7.444   8.626  12.600
   28DA     C4'  864   7.427   8.562  12.797
   28DA     H4'  865   7.321   8.571  12.758
   28DA     O4'  866   7.452   8.436  12.850
   28DA     C1'  867   7.495   8.434  12.983
   28DA     H1'  868   7.403   8.416  13.039
   28DA      N9  869   7.601   8.333  12.992
   28DA      C8  870   7.730   8.353  12.960
   28DA      H8  871   7.782   8.449  12.942
   28DA      N7  872   7.800   8.242  12.956
   28DA      C5  873   7.705   8.145  12.999
   28DA      C6  874   7.708   8.002  13.031
   28DA      N6  875   7.815   7.921  13.021
   28DA     H61  876   7.812   7.838  13.068
   28DA     H62  877   7.904   7.965  13.006
   28DA      N1  878   7.596   7.940  13.069
   28DA      C2  879   7.489   8.006  13.082
   28DA      H2  880   7.407   7.951  13.116
   28DA      N3  881   7.464   8.138  13.054
   28DA      C4  882   7.580   8.200  13.015
   28DA     C3'  883   7.447   8.670  12.905
   28DA     H3'  884   7.497   8.760  12.856
   28DA     C2'  885   7.533   8.587  13.004
   28DA    H2'1  886   7.638   8.598  12.976
   28DA    H2'2  887   7.508   8.616  13.113
   28DA     O3'  888   7.315   8.715  12.938
   29DT       P  889   7.295   8.792  13.076
   29DT     O1P  890   7.166   8.864  13.060
   29DT     O2P  891   7.409   8.875  13.098
   29DT     O5'  892   7.283   8.688  13.198
   29DT     C5'  893   7.198   8.573  13.200
   29DT    H5'1  894   7.209   8.514  13.105
   29DT    H5'2  895   7.093   8.599  13.217
   29DT     C4'  896   7.245   8.479  13.315
   29DT     H4'  897   7.156   8.418  13.328
   29DT     O4'  898   7.363   8.403  13.279
   29DT     C1'  899   7.431   8.388  13.399
   29DT     H1'  900   7.375   8.325  13.461
   29DT      N1  901   7.569   8.333  13.372
   29DT      C6  902   7.671   8.409  13.320
   29DT      H6  903   7.654   8.516  13.308
   29DT      C5  904   7.791   8.356  13.292
   29DT      C7  905   7.896   8.456  13.253
   29DT     H71  906   7.936   8.435  13.148
   29DT     H72  907   7.864   8.562  13.248
   29DT     H73  908   7.974   8.450  13.325
   29DT      C4  909   7.819   8.214  13.312
   29DT      O4  910   7.931   8.160  13.298
   29DT      N3  911   7.711   8.139  13.348
   29DT      H3  912   7.719   8.037  13.355
   29DT      C2  913   7.589   8.192  13.383
   29DT      O2  914   7.497   8.118  13.419
   29DT     C3'  915   7.271   8.553  13.449
   29DT     H3'  916   7.238   8.654  13.439
   29DT     C2'  917   7.423   8.529  13.460
   29DT    H2'1  918   7.483   8.601  13.404
   29DT    H2'2  919   7.463   8.533  13.563
   29DT     O3'  920   7.207   8.481  13.553
   30DA       P  921   7.151   8.556  13.680
   30DA     O1P  922   7.054   8.655  13.623
   30DA     O2P  923   7.265   8.599  13.764
   30DA     O5'  924   7.069   8.438  13.743
   30DA     C5'  925   6.976   8.365  13.666
   30DA    H5'1  926   6.974   8.391  13.557
   30DA    H5'2  927   6.884   8.388  13.698
   30DA     C4'  928   6.982   8.213  13.682
   30DA     H4'  929   6.916   8.166  13.608
   30DA     O4'  930   7.119   8.171  13.648
   30DA     C1'  931   7.181   8.114  13.765
   30DA     H1'  932   7.201   8.012  13.746
   30DA      N9  933   7.323   8.170  13.765
   30DA      C8  934   7.362   8.295  13.802
   30DA      H8  935   7.290   8.376  13.821
   30DA      N7  936   7.491   8.309  13.816
   30DA      C5  937   7.540   8.187  13.774
   30DA      C6  938   7.666   8.131  13.757
   30DA      N6  939   7.778   8.199  13.764
   30DA     H61  940   7.865   8.147  13.757
   30DA     H62  941   7.784   8.301  13.776
   30DA      N1  942   7.684   8.001  13.733
   30DA      C2  943   7.575   7.921  13.729
   30DA      H2  944   7.587   7.815  13.712
   30DA      N3  945   7.447   7.962  13.732
   30DA      C4  946   7.436   8.098  13.761
   30DA     C3'  947   6.947   8.163  13.821
   30DA     H3'  948   6.902   8.240  13.875
   30DA     C2'  949   7.088   8.147  13.873
   30DA    H2'1  950   7.123   8.234  13.934
   30DA    H2'2  951   7.096   8.060  13.943
   30DA     O3'  952   6.877   8.043  13.824
   31DT       P  953   6.809   7.993  13.957
   31DT     O1P  954   6.711   7.891  13.925
   31DT     O2P  955   6.767   8.110  14.031
   31DT     O5'  956   6.933   7.922  14.026
   31DT     C5'  957   6.972   7.791  13.993
   31DT    H5'1  958   6.987   7.787  13.880
   31DT    H5'2  959   6.888   7.724  14.018
   31DT     C4'  960   7.094   7.747  14.068
   31DT     H4'  961   7.107   7.646  14.049
   31DT     O4'  962   7.205   7.820  14.023
   31DT     C1'  963   7.269   7.855  14.146
   31DT     H1'  964   7.322   7.763  14.184
   31DT      N1  965   7.370   7.969  14.123
   31DT      C6  966   7.327   8.100  14.136
   31DT      H6  967   7.225   8.104  14.160
   31DT      C5  968   7.414   8.201  14.123
   31DT      C7  969   7.355   8.343  14.142
   31DT     H71  970   7.255   8.342  14.173
   31DT     H72  971   7.420   8.399  14.210
   31DT     H73  972   7.357   8.406  14.045
   31DT      C4  973   7.553   8.179  14.095
   31DT      O4  974   7.635   8.270  14.091
   31DT      N3  975   7.587   8.047  14.074
   31DT      H3  976   7.684   8.024  14.059
   31DT      C2  977   7.509   7.939  14.095
   31DT      O2  978   7.550   7.821  14.106
   31DT     C3'  979   7.078   7.751  14.217
   31DT     H3'  980   6.971   7.764  14.240
   31DT     C2'  981   7.161   7.872  14.252
   31DT    H2'1  982   7.094   7.960  14.244
   31DT    H2'2  983   7.199   7.867  14.352
   31DT     O3'  984   7.130   7.635  14.278
   32DG       P  985   7.074   7.573  14.417
   32DG     O1P  986   6.960   7.484  14.391
   32DG     O2P  987   7.065   7.676  14.524
   32DG     O5'  988   7.188   7.478  14.475
   32DG     C5'  989   7.248   7.374  14.397
   32DG    H5'1  990   7.232   7.391  14.288
   32DG    H5'2  991   7.203   7.277  14.424
   32DG     C4'  992   7.402   7.354  14.413
   32DG     H4'  993   7.438   7.265  14.356
   32DG     O4'  994   7.466   7.474  14.372
   32DG     C1'  995   7.547   7.533  14.467
   32DG     H1'  996   7.652   7.506  14.454
   32DG      N9  997   7.531   7.676  14.467
   32DG      C8  998   7.416   7.749  14.471
   32DG      H8  999   7.323   7.697  14.470
   32DG      N7 1000   7.438   7.876  14.463
   32DG      C5 1001   7.579   7.887  14.455
   32DG      C6 1002   7.673   7.997  14.448
   32DG      O6 1003   7.651   8.117  14.430
   32DG      N1 1004   7.811   7.961  14.455
   32DG      H1 1005   7.882   8.032  14.442
   32DG      C2 1006   7.854   7.830  14.457
   32DG      N2 1007   7.980   7.807  14.444
   32DG     H21 1008   8.049   7.879  14.449
   32DG     H22 1009   8.005   7.716  14.428
   32DG      N3 1010   7.770   7.725  14.457
   32DG      C4 1011   7.637   7.762  14.467
   32DG     C3' 1012   7.437   7.337  14.561
   32DG     H3' 1013   7.347   7.331  14.623
   32DG     C2' 1014   7.501   7.469  14.598
   32DG    H2'1 1015   7.443   7.545  14.646
   32DG    H2'2 1016   7.596   7.450  14.650
   32DG     O3' 1017   7.522   7.231  14.581
   33DC3      P 1018   7.536   7.164  14.730
   33DC3    O1P 1019   7.548   7.021  14.709
   33DC3    O2P 1020   7.417   7.196  14.812
   33DC3    O5' 1021   7.670   7.209  14.801
   33DC3    C5' 1022   7.799   7.179  14.746
   33DC3   H5'1 1023   7.791   7.168  14.637
   33DC3   H5'2 1024   7.826   7.076  14.772
   33DC3    C4' 1025   7.918   7.278  14.778
   33DC3    H4' 1026   8.005   7.242  14.723
   33DC3    O4' 1027   7.881   7.414  14.751
   33DC3    C1' 1028   7.880   7.496  14.859
   33DC3    H1' 1029   7.985   7.533  14.876
   33DC3     N1 1030   7.789   7.615  14.845
   33DC3     C6 1031   7.659   7.610  14.873
   33DC3     H6 1032   7.608   7.516   0.022
   33DC3     C5 1033   7.584   7.727  14.864
   33DC3     H5 1034   7.477   7.725   0.015
   33DC3     C4 1035   7.651   7.840  14.823
   33DC3     N4 1036   7.590   7.954  14.816
   33DC3    H41 1037   7.645   8.036  14.793
   33DC3    H42 1038   7.483   7.950  14.820
   33DC3     N3 1039   7.778   7.848  14.795
   33DC3     C2 1040   7.848   7.733  14.799
   33DC3     O2 1041   7.964   7.752  14.769
   33DC3    C3' 1042   7.956   7.282   0.049
   33DC3    H3' 1043   7.933   7.194   0.102
   33DC3    C2' 1044   7.871   7.400   0.102
   33DC3   H2'1 1045   7.771   7.364   0.130
   33DC3   H2'2 1046   7.908   7.446   0.194
   33DC3    O3' 1047   8.097   7.301   0.073
   33DC3    H3T 1048   8.101   7.287   0.170
   34DG5    H5T 1049   8.348   8.659   0.247
   34DG5    O5' 1050   8.274   8.711   0.218
   34DG5    C5' 1051   8.309   8.761   0.091
   34DG5   H5'1 1052   8.402   8.816   0.097
   34DG5   H5'2 1053   8.221   8.813   0.046
   34DG5    C4' 1054   8.347   8.649  14.873
   34DG5    H4' 1055   8.433   8.595   0.029
   34DG5    O4' 1056   8.238   8.558  14.868
   34DG5    C1' 1057   8.204   8.522  14.733
   34DG5    H1' 1058   8.279   8.454  14.696
   34DG5     N9 1059   8.075   8.463  14.705
   34DG5     C8 1060   7.948   8.530  14.701
   34DG5     H8 1061   7.935   8.639  14.696
   34DG5     N7 1062   7.845   8.452  14.697
   34DG5     C5 1063   7.896   8.326  14.702
   34DG5     C6 1064   7.836   8.200  14.720
   34DG5     O6 1065   7.721   8.173  14.734
   34DG5     N1 1066   7.922   8.091  14.733
   34DG5     H1 1067   7.881   7.996  14.735
   34DG5     C2 1068   8.053   8.110  14.742
   34DG5     N2 1069   8.118   7.997  14.761
   34DG5    H21 1070   8.070   7.910  14.780
   34DG5    H22 1071   8.213   8.003  14.778
   34DG5     N3 1072   8.114   8.227  14.746
   34DG5     C4 1073   8.033   8.330  14.712
   34DG5    C3' 1074   8.357   8.699  14.731
   34DG5    H3' 1075   8.360   8.807  14.733
   34DG5    C2' 1076   8.239   8.652  14.649
   34DG5   H2'1 1077   8.158   8.728  14.643
   34DG5   H2'2 1078   8.257   8.640  14.542
   34DG5    O3' 1079   8.478   8.650  14.675
   35DC       P 1080   8.546   8.709  14.532
   35DC     O1P 1081   8.680   8.772  14.569
   35DC     O2P 1082   8.450   8.793  14.450
   35DC     O5' 1083   8.579   8.567  14.452
   35DC     C5' 1084   8.650   8.467  14.515
   35DC    H5'1 1085   8.667   8.503  14.621
   35DC    H5'2 1086   8.740   8.438  14.459
   35DC     C4' 1087   8.577   8.332  14.524
   35DC     H4' 1088   8.619   8.279  14.618
   35DC     O4' 1089   8.436   8.350  14.536
   35DC     C1' 1090   8.372   8.232  14.488
   35DC     H1' 1091   8.380   8.155  14.570
   35DC      N1 1092   8.235   8.257  14.451
   35DC      C6 1093   8.187   8.380  14.409
   35DC      H6 1094   8.257   8.469  14.406
   35DC      C5 1095   8.054   8.400  14.373
   35DC      H5 1096   8.026   8.497  14.342
   35DC      C4 1097   7.971   8.289  14.380
   35DC      N4 1098   7.845   8.300  14.343
   35DC     H41 1099   7.791   8.214  14.346
   35DC     H42 1100   7.818   8.382  14.290
   35DC      N3 1101   8.010   8.169  14.411
   35DC      C2 1102   8.146   8.151  14.435
   35DC      O2 1103   8.181   8.033  14.433
   35DC     C3' 1104   8.590   8.248  14.392
   35DC     H3' 1105   8.623   8.326  14.318
   35DC     C2' 1106   8.451   8.191  14.366
   35DC    H2'1 1107   8.410   8.241  14.281
   35DC    H2'2 1108   8.447   8.084  14.360
   35DC     O3' 1109   8.684   8.142  14.411
   36DA       P 1110   8.758   8.077  14.284
   36DA     O1P 1111   8.888   8.035  14.333
   36DA     O2P 1112   8.764   8.179  14.174
   36DA     O5' 1113   8.672   7.952  14.225
   36DA     C5' 1114   8.655   7.836  14.302
   36DA    H5'1 1115   8.653   7.859  14.409
   36DA    H5'2 1116   8.742   7.769  14.294
   36DA     C4' 1117   8.539   7.753  14.252
   36DA     H4' 1118   8.528   7.661  14.320
   36DA     O4' 1119   8.420   7.827  14.251
   36DA     C1' 1120   8.349   7.806  14.133
   36DA     H1' 1121   8.286   7.716  14.142
   36DA      N9 1122   8.269   7.920  14.114
   36DA      C8 1123   8.305   8.045  14.092
   36DA      H8 1124   8.412   8.078  14.106
   36DA      N7 1125   8.209   8.137  14.073
   36DA      C5 1126   8.098   8.056  14.083
   36DA      C6 1127   7.964   8.075  14.081
   36DA      N6 1128   7.900   8.193  14.063
   36DA     H61 1129   7.798   8.196  14.069
   36DA     H62 1130   7.955   8.274  14.034
   36DA      N1 1131   7.877   7.976  14.092
   36DA      C2 1132   7.928   7.857  14.105
   36DA      H2 1133   7.858   7.776  14.124
   36DA      N3 1134   8.053   7.820  14.104
   36DA      C4 1135   8.138   7.924  14.101
   36DA     C3' 1136   8.566   7.708  14.109
   36DA     H3' 1137   8.661   7.731  14.075
   36DA     C2' 1138   8.456   7.785  14.031
   36DA    H2'1 1139   8.497   7.875  13.992
   36DA    H2'2 1140   8.419   7.727  13.944
   36DA     O3' 1141   8.537   7.570  14.106
   37DT       P 1142   8.548   7.483  13.975
   37DT     O1P 1143   8.601   7.347  14.016
   37DT     O2P 1144   8.624   7.558  13.870
   37DT     O5' 1145   8.402   7.475  13.936
   37DT     C5' 1146   8.308   7.417  14.029
   37DT    H5'1 1147   8.286   7.476  14.117
   37DT    H5'2 1148   8.359   7.327  14.076
   37DT     C4' 1149   8.168   7.389  13.966
   37DT     H4' 1150   8.104   7.337  14.042
   37DT     O4' 1151   8.105   7.517  13.941
   37DT     C1' 1152   8.048   7.526  13.817
   37DT     H1' 1153   7.949   7.491  13.834
   37DT      N1 1154   8.054   7.675  13.782
   37DT      C6 1155   8.172   7.745  13.768
   37DT      H6 1156   8.266   7.694  13.780
   37DT      C5 1157   8.176   7.882  13.752
   37DT      C7 1158   8.307   7.954  13.749
   37DT     H71 1159   8.320   7.985  13.646
   37DT     H72 1160   8.308   8.045  13.812
   37DT     H73 1161   8.387   7.882  13.767
   37DT      C4 1162   8.049   7.951  13.748
   37DT      O4 1163   8.033   8.071  13.742
   37DT      N3 1164   7.938   7.877  13.778
   37DT      H3 1165   7.851   7.931  13.783
   37DT      C2 1166   7.936   7.744  13.797
   37DT      O2 1167   7.830   7.691  13.836
   37DT     C3' 1168   8.166   7.318  13.825
   37DT     H3' 1169   8.264   7.284  13.792
   37DT     C2' 1170   8.129   7.432  13.729
   37DT    H2'1 1171   8.224   7.487  13.706
   37DT    H2'2 1172   8.074   7.403  13.635
   37DT     O3' 1173   8.065   7.221  13.839
   38DA       P 1174   8.019   7.132  13.720
   38DA     O1P 1175   7.998   7.002  13.779
   38DA     O2P 1176   8.109   7.156  13.606
   38DA     O5' 1177   7.872   7.187  13.684
   38DA     C5' 1178   7.776   7.208  13.788
   38DA    H5'1 1179   7.807   7.299  13.846
   38DA    H5'2 1180   7.781   7.125  13.856
   38DA     C4' 1181   7.636   7.224  13.730
   38DA     H4' 1182   7.565   7.194  13.807
   38DA     O4' 1183   7.613   7.357  13.687
   38DA     C1' 1184   7.627   7.364  13.542
   38DA     H1' 1185   7.534   7.404  13.491
   38DA      N9 1186   7.738   7.461  13.507
   38DA      C8 1187   7.872   7.441  13.499
   38DA      H8 1188   7.917   7.344  13.517
   38DA      N7 1189   7.944   7.534  13.454
   38DA      C5 1190   7.847   7.640  13.448
   38DA      C6 1191   7.854   7.774  13.412
   38DA      N6 1192   7.958   7.839  13.377
   38DA     H61 1193   7.962   7.934  13.338
   38DA     H62 1194   8.053   7.801  13.389
   38DA      N1 1195   7.740   7.846  13.409
   38DA      C2 1196   7.625   7.787  13.431
   38DA      H2 1197   7.534   7.847  13.424
   38DA      N3 1198   7.603   7.662  13.461
   38DA      C4 1199   7.723   7.592  13.473
   38DA     C3' 1200   7.613   7.126  13.614
   38DA     H3' 1201   7.685   7.043  13.611
   38DA     C2' 1202   7.637   7.220  13.491
   38DA    H2'1 1203   7.731   7.203  13.450
   38DA    H2'2 1204   7.556   7.201  13.415
   38DA     O3' 1205   7.480   7.089  13.626
   39DT       P 1206   7.393   7.006  13.522
   39DT     O1P 1207   7.295   6.923  13.597
   39DT     O2P 1208   7.484   6.930  13.425
   39DT     O5' 1209   7.301   7.110  13.431
   39DT     C5' 1210   7.214   7.199  13.502
   39DT    H5'1 1211   7.271   7.258  13.575
   39DT    H5'2 1212   7.128   7.142  13.546
   39DT     C4' 1213   7.167   7.308  13.398
   39DT     H4' 1214   7.080   7.355  13.451
   39DT     O4' 1215   7.270   7.407  13.378
   39DT     C1' 1216   7.256   7.439  13.242
   39DT     H1' 1217   7.185   7.518  13.228
   39DT      N1 1218   7.398   7.493  13.209
   39DT      C6 1219   7.506   7.404  13.183
   39DT      H6 1220   7.490   7.297  13.200
   39DT      C5 1221   7.624   7.455  13.141
   39DT      C7 1222   7.733   7.351  13.133
   39DT     H71 1223   7.796   7.364  13.048
   39DT     H72 1224   7.803   7.359  13.220
   39DT     H73 1225   7.692   7.248  13.135
   39DT      C4 1226   7.642   7.591  13.121
   39DT      O4 1227   7.749   7.640  13.086
   39DT      N3 1228   7.535   7.665  13.144
   39DT      H3 1229   7.545   7.760  13.111
   39DT      C2 1230   7.412   7.628  13.186
   39DT      O2 1231   7.321   7.708  13.202
   39DT     C3' 1232   7.119   7.249  13.264
   39DT     H3' 1233   7.135   7.140  13.263
   39DT     C2' 1234   7.212   7.315  13.164
   39DT    H2'1 1235   7.287   7.238  13.133
   39DT    H2'2 1236   7.149   7.340  13.074
   39DT     O3' 1237   6.980   7.284  13.253
   40DG       P 1238   6.885   7.252  13.127
   40DG     O1P 1239   6.749   7.247  13.177
   40DG     O2P 1240   6.950   7.141  13.054
   40DG     O5' 1241   6.883   7.381  13.035
   40DG     C5' 1242   6.841   7.508  13.088
   40DG    H5'1 1243   6.880   7.522  13.189
   40DG    H5'2 1244   6.730   7.518  13.091
   40DG     C4' 1245   6.893   7.621  13.000
   40DG     H4' 1246   6.847   7.717  13.037
   40DG     O4' 1247   7.029   7.645  13.017
   40DG     C1' 1248   7.072   7.662  12.883
   40DG     H1' 1249   7.046   7.767  12.857
   40DG      N9 1250   7.223   7.648  12.862
   40DG      C8 1251   7.292   7.530  12.859
   40DG      H8 1252   7.243   7.437  12.886
   40DG      N7 1253   7.420   7.543  12.839
   40DG      C5 1254   7.435   7.679  12.816
   40DG      C6 1255   7.552   7.756  12.778
   40DG      O6 1256   7.668   7.713  12.767
   40DG      N1 1257   7.526   7.888  12.740
   40DG      H1 1258   7.606   7.948  12.719
   40DG      C2 1259   7.401   7.941  12.756
   40DG      N2 1260   7.399   8.066  12.717
   40DG     H21 1261   7.483   8.110  12.686
   40DG     H22 1262   7.312   8.115  12.736
   40DG      N3 1263   7.294   7.879  12.809
   40DG      C4 1264   7.314   7.743  12.833
   40DG     C3' 1265   6.849   7.599  12.860
   40DG     H3' 1266   6.786   7.510  12.847
   40DG     C2' 1267   6.982   7.571  12.794
   40DG    H2'1 1268   7.012   7.466  12.796
   40DG    H2'2 1269   6.977   7.591  12.688
   40DG     O3' 1270   6.767   7.708  12.810
   41DC       P 1271   6.700   7.726  12.670
   41DC     O1P 1272   6.575   7.797  12.690
   41DC     O2P 1273   6.690   7.598  12.604
   41DC     O5' 1274   6.813   7.811  12.588
   41DC     C5' 1275   6.841   7.942  12.635
   41DC    H5'1 1276   6.907   7.935  12.721
   41DC    H5'2 1277   6.748   7.991  12.667
   41DC     C4' 1278   6.911   8.037  12.529
   41DC     H4' 1279   6.869   8.134  12.548
   41DC     O4' 1280   7.056   8.044  12.544
   41DC     C1' 1281   7.113   7.977  12.425
   41DC     H1' 1282   7.154   8.064  12.359
   41DC      N1 1283   7.222   7.885  12.459
   41DC      C6 1284   7.193   7.754  12.500
   41DC      H6 1285   7.094   7.730  12.531
   41DC      C5 1286   7.291   7.668  12.502
   41DC      H5 1287   7.269   7.567  12.532
   41DC      C4 1288   7.422   7.707  12.453
   41DC      N4 1289   7.515   7.617  12.447
   41DC     H41 1290   7.611   7.645  12.435
   41DC     H42 1291   7.499   7.523  12.475
   41DC      N3 1292   7.455   7.826  12.421
   41DC      C2 1293   7.352   7.919  12.424
   41DC      O2 1294   7.382   8.036  12.399
   41DC     C3' 1295   6.879   8.010  12.381
   41DC     H3' 1296   6.785   7.957  12.372
   41DC     C2' 1297   6.996   7.918  12.348
   41DC    H2'1 1298   6.975   7.817  12.374
   41DC    H2'2 1299   7.009   7.923  12.242
   41DC     O3' 1300   6.875   8.130  12.305
   42DG       P 1301   6.858   8.135  12.146
   42DG     O1P 1302   6.797   8.266  12.116
   42DG     O2P 1303   6.804   8.006  12.092
   42DG     O5' 1304   7.017   8.130  12.100
   42DG     C5' 1305   7.099   8.242  12.137
   42DG    H5'1 1306   7.116   8.241  12.246
   42DG    H5'2 1307   7.045   8.336  12.108
   42DG     C4' 1308   7.229   8.250  12.047
   42DG     H4' 1309   7.277   8.347  12.064
   42DG     O4' 1310   7.327   8.153  12.083
   42DG     C1' 1311   7.348   8.058  11.975
   42DG     H1' 1312   7.438   8.087  11.919
   42DG      N9 1313   7.360   7.921  12.029
   42DG      C8 1314   7.265   7.838  12.074
   42DG      H8 1315   7.159   7.866  12.079
   42DG      N7 1316   7.306   7.720  12.110
   42DG      C5 1317   7.444   7.725  12.093
   42DG      C6 1318   7.554   7.625  12.102
   42DG      O6 1319   7.558   7.513  12.151
   42DG      N1 1320   7.675   7.676  12.059
   42DG      H1 1321   7.754   7.610  12.067
   42DG      C2 1322   7.693   7.802  12.017
   42DG      N2 1323   7.811   7.839  11.988
   42DG     H21 1324   7.889   7.770  11.981
   42DG     H22 1325   7.817   7.928  11.941
   42DG      N3 1326   7.597   7.895  12.006
   42DG      C4 1327   7.477   7.851  12.047
   42DG     C3' 1328   7.197   8.229  11.902
   42DG     H3' 1329   7.095   8.249  11.878
   42DG     C2' 1330   7.235   8.083  11.878
   42DG    H2'1 1331   7.147   8.026  11.901
   42DG    H2'2 1332   7.264   8.080  11.770
   42DG     O3' 1333   7.278   8.331  11.846
   43DT       P 1334   7.315   8.333  11.692
   43DT     O1P 1335   7.328   8.475  11.660
   43DT     O2P 1336   7.220   8.252  11.608
   43DT     O5' 1337   7.455   8.260  11.689
   43DT     C5' 1338   7.557   8.317  11.767
   43DT    H5'1 1339   7.547   8.303  11.873
   43DT    H5'2 1340   7.560   8.422  11.749
   43DT     C4' 1341   7.695   8.263  11.736
   43DT     H4' 1342   7.770   8.325  11.790
   43DT     O4' 1343   7.708   8.122  11.756
   43DT     C1' 1344   7.732   8.056  11.632
   43DT     H1' 1345   7.851   8.044  11.627
   43DT      N1 1346   7.663   7.924  11.644
   43DT      C6 1347   7.527   7.915  11.634
   43DT      H6 1348   7.464   7.996  11.606
   43DT      C5 1349   7.467   7.797  11.664
   43DT      C7 1350   7.317   7.803  11.658
   43DT     H71 1351   7.287   7.876  11.581
   43DT     H72 1352   7.281   7.705  11.639
   43DT     H73 1353   7.284   7.821  11.754
   43DT      C4 1354   7.535   7.675  11.710
   43DT      O4 1355   7.483   7.574  11.764
   43DT      N3 1356   7.671   7.690  11.697
   43DT      H3 1357   7.732   7.612  11.712
   43DT      C2 1358   7.736   7.808  11.667
   43DT      O2 1359   7.859   7.807  11.675
   43DT     C3' 1360   7.722   8.282  11.583
   43DT     H3' 1361   7.654   8.362  11.539
   43DT     C2' 1362   7.689   8.144  11.522
   43DT    H2'1 1363   7.587   8.139  11.511
   43DT    H2'2 1364   7.735   8.121  11.427
   43DT     O3' 1365   7.851   8.326  11.562
   44DA       P 1366   7.909   8.375  11.420
   44DA     O1P 1367   8.017   8.468  11.453
   44DA     O2P 1368   7.794   8.428  11.346
   44DA     O5' 1369   7.963   8.251  11.346
   44DA     C5' 1370   8.070   8.177  11.397
   44DA    H5'1 1371   8.165   8.229  11.376
   44DA    H5'2 1372   8.069   8.169  11.502
   44DA     C4' 1373   8.079   8.035  11.349
   44DA     H4' 1374   8.182   7.991  11.384
   44DA     O4' 1375   7.966   7.956  11.402
   44DA     C1' 1376   7.919   7.887  11.285
   44DA     H1' 1377   7.986   7.807  11.261
   44DA      N9 1378   7.782   7.829  11.303
   44DA      C8 1379   7.656   7.880  11.267
   44DA      H8 1380   7.639   7.977  11.226
   44DA      N7 1381   7.557   7.808  11.315
   44DA      C5 1382   7.622   7.692  11.365
   44DA      C6 1383   7.576   7.568  11.416
   44DA      N6 1384   7.445   7.540  11.419
   44DA     H61 1385   7.426   7.455  11.470
   44DA     H62 1386   7.370   7.604  11.407
   44DA      N1 1387   7.659   7.478  11.462
   44DA      C2 1388   7.789   7.506  11.452
   44DA      H2 1389   7.853   7.434  11.490
   44DA      N3 1390   7.857   7.617  11.405
   44DA      C4 1391   7.757   7.707  11.363
   44DA     C3' 1392   8.084   8.025  11.198
   44DA     H3' 1393   8.093   8.126  11.158
   44DA     C2' 1394   7.943   7.979  11.162
   44DA    H2'1 1395   7.868   8.065  11.172
   44DA    H2'2 1396   7.941   7.939  11.061
   44DA     O3' 1397   8.184   7.933  11.147
   45DC       P 1398   8.270   7.979  11.013
   45DC     O1P 1399   8.363   8.093  11.051
   45DC     O2P 1400   8.172   7.993  10.901
   45DC     O5' 1401   8.358   7.840  11.010
   45DC     C5' 1402   8.444   7.797  11.116
   45DC    H5'1 1403   8.428   7.848  11.208
   45DC    H5'2 1404   8.543   7.814  11.082
   45DC     C4' 1405   8.435   7.648  11.150
   45DC     H4' 1406   8.509   7.635  11.226
   45DC     O4' 1407   8.304   7.620  11.207
   45DC     C1' 1408   8.252   7.512  11.141
   45DC     H1' 1409   8.284   7.419  11.190
   45DC      N1 1410   8.102   7.521  11.135
   45DC      C6 1411   8.040   7.627  11.082
   45DC      H6 1412   8.107   7.711  11.047
   45DC      C5 1413   7.909   7.627  11.053
   45DC      H5 1414   7.870   7.712  10.997
   45DC      C4 1415   7.838   7.513  11.094
   45DC      N4 1416   7.708   7.497  11.085
   45DC     H41 1417   7.656   7.419  11.121
   45DC     H42 1418   7.670   7.556  11.013
   45DC      N3 1419   7.889   7.410  11.159
   45DC      C2 1420   8.023   7.408  11.181
   45DC      O2 1421   8.070   7.315  11.242
   45DC     C3' 1422   8.452   7.541  11.044
   45DC     H3' 1423   8.516   7.579  10.962
   45DC     C2' 1424   8.311   7.507  11.001
   45DC    H2'1 1425   8.270   7.591  10.943
   45DC    H2'2 1426   8.290   7.414  10.942
   45DC     O3' 1427   8.519   7.429  11.096
   46DA       P 1428   8.593   7.321  11.002
   46DA     O1P 1429   8.733   7.317  11.055
   46DA     O2P 1430   8.575   7.351  10.861
   46DA     O5' 1431   8.527   7.177  11.037
   46DA     C5' 1432   8.574   7.080  11.131
   46DA    H5'1 1433   8.681   7.069  11.113
   46DA    H5'2 1434   8.563   7.125  11.226
   46DA     C4' 1435   8.502   6.949  11.116
   46DA     H4' 1436   8.540   6.878  11.190
   46DA     O4' 1437   8.361   6.953  11.150
   46DA     C1' 1438   8.290   6.914  11.038
   46DA     H1' 1439   8.239   6.814  11.057
   46DA      N9 1440   8.185   7.018  11.015
   46DA      C8 1441   8.202   7.145  10.981
   46DA      H8 1442   8.301   7.182  11.000
   46DA      N7 1443   8.105   7.210  10.937
   46DA      C5 1444   8.006   7.111  10.935
   46DA      C6 1445   7.867   7.112  10.912
   46DA      N6 1446   7.793   7.211  10.873
   46DA     H61 1447   7.688   7.201  10.871
   46DA     H62 1448   7.837   7.300  10.875
   46DA      N1 1449   7.793   7.004  10.924
   46DA      C2 1450   7.858   6.896  10.967
   46DA      H2 1451   7.797   6.802  10.971
   46DA      N3 1452   7.984   6.883  11.003
   46DA      C4 1453   8.054   6.997  10.991
   46DA     C3' 1454   8.525   6.891  10.974
   46DA     H3' 1455   8.599   6.943  10.921
   46DA     C2' 1456   8.385   6.905  10.917
   46DA    H2'1 1457   8.372   6.995  10.858
   46DA    H2'2 1458   8.355   6.815  10.857
   46DA     O3' 1459   8.578   6.760  10.985
   47DA       P 1460   8.598   6.661  10.849
   47DA     O1P 1461   8.694   6.552  10.882
   47DA     O2P 1462   8.624   6.754  10.737
   47DA     O5' 1463   8.457   6.594  10.824
   47DA     C5' 1464   8.379   6.536  10.933
   47DA    H5'1 1465   8.382   6.609  11.015
   47DA    H5'2 1466   8.417   6.436  10.968
   47DA     C4' 1467   8.230   6.522  10.884
   47DA     H4' 1468   8.178   6.471  10.967
   47DA     O4' 1469   8.169   6.644  10.866
   47DA     C1' 1470   8.065   6.624  10.775
   47DA     H1' 1471   7.988   6.576  10.834
   47DA      N9 1472   8.011   6.733  10.701
   47DA      C8 1473   8.078   6.847  10.662
   47DA      H8 1474   8.184   6.855  10.674
   47DA      N7 1475   8.004   6.940  10.608
   47DA      C5 1476   7.876   6.887  10.620
   47DA      C6 1477   7.743   6.933  10.583
   47DA      N6 1478   7.712   7.057  10.557
   47DA     H61 1479   7.615   7.080  10.555
   47DA     H62 1480   7.793   7.116  10.546
   47DA      N1 1481   7.636   6.852  10.599
   47DA      C2 1482   7.656   6.732  10.643
   47DA      H2 1483   7.568   6.666  10.655
   47DA      N3 1484   7.770   6.673  10.682
   47DA      C4 1485   7.877   6.757  10.668
   47DA     C3' 1486   8.212   6.435  10.766
   47DA     H3' 1487   8.307   6.415  10.719
   47DA     C2' 1488   8.118   6.520  10.680
   47DA    H2'1 1489   8.176   6.567  10.605
   47DA    H2'2 1490   8.033   6.464  10.638
   47DA     O3' 1491   8.152   6.316  10.814
   48DT       P 1492   8.136   6.186  10.727
   48DT     O1P 1493   8.117   6.077  10.821
   48DT     O2P 1494   8.240   6.182  10.621
   48DT     O5' 1495   7.997   6.210  10.663
   48DT     C5' 1496   7.880   6.213  10.737
   48DT    H5'1 1497   7.866   6.311  10.785
   48DT    H5'2 1498   7.879   6.134  10.814
   48DT     C4' 1499   7.762   6.191  10.648
   48DT     H4' 1500   7.654   6.181  10.697
   48DT     O4' 1501   7.743   6.318  10.583
   48DT     C1' 1502   7.718   6.294  10.452
   48DT     H1' 1503   7.615   6.292  10.441
   48DT      N1 1504   7.766   6.422  10.380
   48DT      C6 1505   7.902   6.453  10.373
   48DT      H6 1506   7.975   6.375  10.412
   48DT      C5 1507   7.948   6.571  10.332
   48DT      C7 1508   8.092   6.617  10.336
   48DT     H71 1509   8.152   6.538  10.374
   48DT     H72 1510   8.122   6.655  10.233
   48DT     H73 1511   8.096   6.698  10.409
   48DT      C4 1512   7.852   6.675  10.288
   48DT      O4 1513   7.880   6.793  10.258
   48DT      N3 1514   7.727   6.637  10.287
   48DT      H3 1515   7.656   6.708  10.275
   48DT      C2 1516   7.676   6.520  10.347
   48DT      O2 1517   7.557   6.505  10.371
   48DT     C3' 1518   7.769   6.079  10.546
   48DT     H3' 1519   7.859   6.013  10.559
   48DT     C2' 1520   7.782   6.160  10.419
   48DT    H2'1 1521   7.892   6.182  10.413
   48DT    H2'2 1522   7.738   6.120  10.331
   48DT     O3' 1523   7.641   6.016  10.542
   49DG       P 1524   7.622   5.871  10.487
   49DG     O1P 1525   7.566   5.782  10.589
   49DG     O2P 1526   7.746   5.832  10.418
   49DG     O5' 1527   7.506   5.892  10.372
   49DG     C5' 1528   7.389   5.963  10.401
   49DG    H5'1 1529   7.400   6.035  10.489
   49DG    H5'2 1530   7.309   5.894  10.418
   49DG     C4' 1531   7.361   6.058  10.291
   49DG     H4' 1532   7.260   6.100  10.308
   49DG     O4' 1533   7.466   6.155  10.271
   49DG     C1' 1534   7.471   6.195  10.139
   49DG     H1' 1535   7.390   6.265  10.112
   49DG      N9 1536   7.604   6.270  10.106
   49DG      C8 1537   7.730   6.220  10.097
   49DG      H8 1538   7.752   6.122  10.134
   49DG      N7 1539   7.821   6.299  10.052
   49DG      C5 1540   7.745   6.417  10.026
   49DG      C6 1541   7.785   6.543   9.967
   49DG      O6 1542   7.906   6.575   9.938
   49DG      N1 1543   7.673   6.633   9.944
   49DG      H1 1544   7.692   6.722   9.903
   49DG      C2 1545   7.547   6.587   9.955
   49DG      N2 1546   7.456   6.671   9.921
   49DG     H21 1547   7.479   6.757   9.871
   49DG     H22 1548   7.365   6.647   9.948
   49DG      N3 1549   7.507   6.478  10.018
   49DG      C4 1550   7.610   6.396  10.051
   49DG     C3' 1551   7.344   5.996  10.150
   49DG     H3' 1552   7.381   5.896  10.158
   49DG     C2' 1553   7.446   6.068  10.068
   49DG    H2'1 1554   7.537   6.005  10.079
   49DG    H2'2 1555   7.424   6.072   9.960
   49DG     O3' 1556   7.214   6.016  10.086
   50DT       P 1557   7.110   5.894  10.070
   50DT     O1P 1558   7.057   5.869  10.203
   50DT     O2P 1559   7.184   5.786  10.005
   50DT     O5' 1560   6.993   5.948   9.962
   50DT     C5' 1561   6.928   6.073   9.974
   50DT    H5'1 1562   6.962   6.119  10.065
   50DT    H5'2 1563   6.826   6.046   9.987
   50DT     C4' 1564   6.952   6.171   9.858
   50DT     H4' 1565   6.886   6.256   9.870
   50DT     O4' 1566   7.085   6.211   9.851
   50DT     C1' 1567   7.113   6.261   9.728
   50DT     H1' 1568   7.073   6.363   9.713
   50DT      N1 1569   7.258   6.270   9.714
   50DT      C6 1570   7.336   6.160   9.723
   50DT      H6 1571   7.297   6.062   9.743
   50DT      C5 1572   7.473   6.166   9.725
   50DT      C7 1573   7.557   6.038   9.743
   50DT     H71 1574   7.500   5.948   9.754
   50DT     H72 1575   7.617   6.012   9.662
   50DT     H73 1576   7.633   6.051   9.821
   50DT      C4 1577   7.535   6.295   9.707
   50DT      O4 1578   7.654   6.317   9.727
   50DT      N3 1579   7.457   6.400   9.679
   50DT      H3 1580   7.494   6.492   9.655
   50DT      C2 1581   7.321   6.395   9.688
   50DT      O2 1582   7.262   6.502   9.687
   50DT     C3' 1583   6.931   6.107   9.718
   50DT     H3' 1584   6.948   5.996   9.723
   50DT     C2' 1585   7.042   6.163   9.637
   50DT    H2'1 1586   7.106   6.087   9.605
   50DT    H2'2 1587   7.014   6.216   9.550
   50DT     O3' 1588   6.800   6.141   9.668
   51DA       P 1589   6.753   6.124   9.520
   51DA     O1P 1590   6.607   6.115   9.529
   51DA     O2P 1591   6.822   6.009   9.457
   51DA     O5' 1592   6.783   6.246   9.430
   51DA     C5' 1593   6.732   6.378   9.446
   51DA    H5'1 1594   6.758   6.424   9.541
   51DA    H5'2 1595   6.616   6.371   9.444
   51DA     C4' 1596   6.771   6.473   9.334
   51DA     H4' 1597   6.722   6.562   9.357
   51DA     O4' 1598   6.915   6.495   9.342
   51DA     C1' 1599   6.975   6.442   9.223
   51DA     H1' 1600   7.007   6.528   9.164
   51DA      N9 1601   7.089   6.361   9.269
   51DA      C8 1602   7.092   6.228   9.311
   51DA      H8 1603   7.008   6.160   9.320
   51DA      N7 1604   7.209   6.188   9.352
   51DA      C5 1605   7.289   6.301   9.334
   51DA      C6 1606   7.432   6.314   9.345
   51DA      N6 1607   7.511   6.212   9.388
   51DA     H61 1608   7.612   6.228   9.401
   51DA     H62 1609   7.474   6.119   9.405
   51DA      N1 1610   7.493   6.426   9.306
   51DA      C2 1611   7.412   6.521   9.259
   51DA      H2 1612   7.468   6.616   9.237
   51DA      N3 1613   7.279   6.521   9.241
   51DA      C4 1614   7.222   6.406   9.282
   51DA     C3' 1615   6.736   6.422   9.194
   51DA     H3' 1616   6.660   6.343   9.212
   51DA     C2' 1617   6.868   6.365   9.142
   51DA    H2'1 1618   6.866   6.268   9.181
   51DA    H2'2 1619   6.887   6.372   9.035
   51DA     O3' 1620   6.674   6.526   9.122
   52DT       P 1621   6.663   6.528   8.955
   52DT     O1P 1622   6.564   6.631   8.915
   52DT     O2P 1623   6.636   6.397   8.905
   52DT     O5' 1624   6.807   6.574   8.908
   52DT     C5' 1625   6.859   6.704   8.937
   52DT    H5'1 1626   6.859   6.737   9.042
   52DT    H5'2 1627   6.802   6.781   8.882
   52DT     C4' 1628   7.004   6.729   8.879
   52DT     H4' 1629   7.028   6.839   8.890
   52DT     O4' 1630   7.090   6.635   8.933
   52DT     C1' 1631   7.193   6.597   8.841
   52DT     H1' 1632   7.270   6.678   8.823
   52DT      N1 1633   7.256   6.468   8.879
   52DT      C6 1634   7.179   6.354   8.909
   52DT      H6 1635   7.071   6.355   8.886
   52DT      C5 1636   7.239   6.239   8.956
   52DT      C7 1637   7.151   6.118   8.979
   52DT     H71 1638   7.196   6.029   8.924
   52DT     H72 1639   7.151   6.093   9.082
   52DT     H73 1640   7.048   6.129   8.944
   52DT      C4 1641   7.377   6.235   8.985
   52DT      O4 1642   7.435   6.134   9.031
   52DT      N3 1643   7.442   6.351   8.959
   52DT      H3 1644   7.542   6.344   8.984
   52DT      C2 1645   7.393   6.464   8.897
   52DT      O2 1646   7.472   6.555   8.867
   52DT     C3' 1647   7.021   6.715   8.726
   52DT     H3' 1648   6.930   6.687   8.686
   52DT     C2' 1649   7.119   6.598   8.708
   52DT    H2'1 1650   7.048   6.515   8.702
   52DT    H2'2 1651   7.183   6.604   8.622
   52DT     O3' 1652   7.081   6.829   8.665
   53DA       P 1653   7.099   6.855   8.513
   53DA     O1P 1654   7.109   7.002   8.493
   53DA     O2P 1655   6.991   6.782   8.443
   53DA     O5' 1656   7.239   6.785   8.482
   53DA     C5' 1657   7.360   6.851   8.508
   53DA    H5'1 1658   7.360   6.901   8.606
   53DA    H5'2 1659   7.364   6.932   8.434
   53DA     C4' 1660   7.481   6.766   8.473
   53DA     H4' 1661   7.578   6.815   8.480
   53DA     O4' 1662   7.474   6.653   8.559
   53DA     C1' 1663   7.486   6.534   8.481
   53DA     H1' 1664   7.594   6.508   8.472
   53DA      N9 1665   7.427   6.414   8.535
   53DA      C8 1666   7.304   6.367   8.523
   53DA      H8 1667   7.228   6.421   8.461
   53DA      N7 1668   7.281   6.252   8.577
   53DA      C5 1669   7.412   6.216   8.617
   53DA      C6 1670   7.464   6.106   8.684
   53DA      N6 1671   7.397   5.999   8.715
   53DA     H61 1672   7.447   5.943   8.780
   53DA     H62 1673   7.307   5.971   8.680
   53DA      N1 1674   7.590   6.102   8.732
   53DA      C2 1675   7.667   6.208   8.710
   53DA      H2 1676   7.765   6.209   8.759
   53DA      N3 1677   7.635   6.311   8.631
   53DA      C4 1678   7.505   6.314   8.599
   53DA     C3' 1679   7.481   6.708   8.334
   53DA     H3' 1680   7.416   6.768   8.268
   53DA     C2' 1681   7.422   6.575   8.347
   53DA    H2'1 1682   7.308   6.581   8.340
   53DA    H2'2 1683   7.457   6.509   8.264
   53DA     O3' 1684   7.611   6.712   8.275
   54DA       P 1685   7.668   6.853   8.215
   54DA     O1P 1686   7.625   6.963   8.305
   54DA     O2P 1687   7.630   6.855   8.070
   54DA     O5' 1688   7.824   6.817   8.219
   54DA     C5' 1689   7.897   6.814   8.345
   54DA    H5'1 1690   7.828   6.819   8.428
   54DA    H5'2 1691   7.962   6.900   8.346
   54DA     C4' 1692   7.980   6.688   8.353
   54DA     H4' 1693   8.053   6.697   8.439
   54DA     O4' 1694   7.898   6.578   8.376
   54DA     C1' 1695   7.933   6.484   8.281
   54DA     H1' 1696   8.021   6.436   8.325
   54DA      N9 1697   7.823   6.389   8.270
   54DA      C8 1698   7.704   6.399   8.205
   54DA      H8 1699   7.675   6.482   8.146
   54DA      N7 1700   7.623   6.296   8.218
   54DA      C5 1701   7.692   6.214   8.306
   54DA      C6 1702   7.666   6.087   8.361
   54DA      N6 1703   7.551   6.024   8.350
   54DA     H61 1704   7.537   5.935   8.394
   54DA     H62 1705   7.480   6.061   8.293
   54DA      N1 1706   7.752   6.023   8.439
   54DA      C2 1707   7.874   6.081   8.454
   54DA      H2 1708   7.942   6.032   8.523
   54DA      N3 1709   7.913   6.198   8.406
   54DA      C4 1710   7.816   6.264   8.330
   54DA     C3' 1711   8.066   6.672   8.226
   54DA     H3' 1712   8.070   6.767   8.163
   54DA     C2' 1713   7.998   6.557   8.157
   54DA    H2'1 1714   7.928   6.594   8.080
   54DA    H2'2 1715   8.073   6.488   8.111
   54DA     O3' 1716   8.199   6.633   8.273
   55DT       P 1717   8.326   6.626   8.175
   55DT     O1P 1718   8.449   6.669   8.252
   55DT     O2P 1719   8.298   6.684   8.047
   55DT     O5' 1720   8.348   6.470   8.157
   55DT     C5' 1721   8.392   6.385   8.264
   55DT    H5'1 1722   8.344   6.409   8.360
   55DT    H5'2 1723   8.496   6.381   8.263
   55DT     C4' 1724   8.357   6.237   8.219
   55DT     H4' 1725   8.417   6.177   8.290
   55DT     O4' 1726   8.215   6.212   8.205
   55DT     C1' 1727   8.196   6.105   8.114
   55DT     H1' 1728   8.227   6.009   8.155
   55DT      N1 1729   8.055   6.100   8.075
   55DT      C6 1730   8.004   6.197   7.996
   55DT      H6 1731   8.065   6.279   7.975
   55DT      C5 1732   7.876   6.197   7.957
   55DT      C7 1733   7.818   6.316   7.882
   55DT     H71 1734   7.711   6.332   7.910
   55DT     H72 1735   7.873   6.406   7.908
   55DT     H73 1736   7.829   6.312   7.767
   55DT      C4 1737   7.795   6.077   7.990
   55DT      O4 1738   7.688   6.047   7.952
   55DT      N3 1739   7.854   5.988   8.076
   55DT      H3 1740   7.813   5.899   8.088
   55DT      C2 1741   7.983   5.989   8.116
   55DT      O2 1742   8.031   5.901   8.179
   55DT     C3' 1743   8.414   6.194   8.082
   55DT     H3' 1744   8.443   6.284   8.029
   55DT     C2' 1745   8.303   6.127   8.006
   55DT    H2'1 1746   8.266   6.196   7.929
   55DT    H2'2 1747   8.342   6.040   7.965
   55DT     O3' 1748   8.530   6.118   8.101
   56DA       P 1749   8.633   6.097   7.985
   56DA     O1P 1750   8.765   6.059   8.041
   56DA     O2P 1751   8.622   6.207   7.885
   56DA     O5' 1752   8.572   5.975   7.895
   56DA     C5' 1753   8.572   5.844   7.949
   56DA    H5'1 1754   8.545   5.842   8.056
   56DA    H5'2 1755   8.670   5.791   7.934
   56DA     C4' 1756   8.469   5.767   7.866
   56DA     H4' 1757   8.466   5.666   7.900
   56DA     O4' 1758   8.342   5.822   7.894
   56DA     C1' 1759   8.267   5.773   7.783
   56DA     H1' 1760   8.255   5.665   7.791
   56DA      N9 1761   8.131   5.841   7.761
   56DA      C8 1762   8.093   5.971   7.755
   56DA      H8 1763   8.167   6.050   7.757
   56DA      N7 1764   7.968   5.993   7.750
   56DA      C5 1765   7.912   5.861   7.758
   56DA      C6 1766   7.780   5.805   7.750
   56DA      N6 1767   7.673   5.872   7.717
   56DA     H61 1768   7.583   5.830   7.712
   56DA     H62 1769   7.679   5.964   7.692
   56DA      N1 1770   7.767   5.673   7.756
   56DA      C2 1771   7.877   5.605   7.785
   56DA      H2 1772   7.855   5.499   7.792
   56DA      N3 1773   8.002   5.643   7.806
   56DA      C4 1774   8.011   5.775   7.783
   56DA     C3' 1775   8.486   5.750   7.712
   56DA     H3' 1776   8.573   5.806   7.672
   56DA     C2' 1777   8.351   5.801   7.655
   56DA    H2'1 1778   8.360   5.904   7.626
   56DA    H2'2 1779   8.326   5.729   7.573
   56DA     O3' 1780   8.500   5.618   7.674
   57DC       P 1781   8.634   5.545   7.670
   57DC     O1P 1782   8.698   5.554   7.803
   57DC     O2P 1783   8.711   5.591   7.555
   57DC     O5' 1784   8.603   5.386   7.645
   57DC     C5' 1785   8.543   5.306   7.751
   57DC    H5'1 1786   8.500   5.371   7.831
   57DC    H5'2 1787   8.612   5.240   7.799
   57DC     C4' 1788   8.430   5.225   7.681
   57DC     H4' 1789   8.400   5.151   7.752
   57DC     O4' 1790   8.320   5.307   7.653
   57DC     C1' 1791   8.272   5.276   7.518
   57DC     H1' 1792   8.202   5.192   7.532
   57DC      N1 1793   8.194   5.397   7.466
   57DC      C6 1794   8.258   5.514   7.420
   57DC      H6 1795   8.365   5.527   7.410
   57DC      C5 1796   8.171   5.617   7.385
   57DC      H5 1797   8.210   5.705   7.353
   57DC      C4 1798   8.031   5.605   7.404
   57DC      N4 1799   7.967   5.719   7.423
   57DC     H41 1800   7.870   5.699   7.453
   57DC     H42 1801   8.014   5.806   7.432
   57DC      N3 1802   7.972   5.494   7.438
   57DC      C2 1803   8.055   5.387   7.471
   57DC      O2 1804   7.994   5.281   7.495
   57DC     C3' 1805   8.470   5.143   7.552
   57DC     H3' 1806   8.578   5.136   7.540
   57DC     C2' 1807   8.387   5.221   7.447
   57DC    H2'1 1808   8.442   5.306   7.423
   57DC    H2'2 1809   8.370   5.165   7.360
   57DC     O3' 1810   8.420   5.017   7.566
   58DG       P 1811   8.417   4.893   7.465
   58DG     O1P 1812   8.456   4.771   7.537
   58DG     O2P 1813   8.489   4.930   7.350
   58DG     O5' 1814   8.260   4.882   7.431
   58DG     C5' 1815   8.165   4.802   7.497
   58DG    H5'1 1816   8.151   4.846   7.599
   58DG    H5'2 1817   8.194   4.694   7.509
   58DG     C4' 1818   8.038   4.787   7.419
   58DG     H4' 1819   7.979   4.715   7.479
   58DG     O4' 1820   7.971   4.909   7.409
   58DG     C1' 1821   7.967   4.938   7.276
   58DG     H1' 1822   7.864   4.922   7.236
   58DG      N9 1823   7.999   5.079   7.245
   58DG      C8 1824   8.123   5.139   7.230
   58DG      H8 1825   8.214   5.083   7.251
   58DG      N7 1826   8.118   5.265   7.200
   58DG      C5 1827   7.982   5.291   7.181
   58DG      C6 1828   7.909   5.411   7.133
   58DG      O6 1829   7.955   5.524   7.116
   58DG      N1 1830   7.773   5.386   7.112
   58DG      H1 1831   7.717   5.467   7.099
   58DG      C2 1832   7.714   5.273   7.151
   58DG      N2 1833   7.584   5.277   7.161
   58DG     H21 1834   7.532   5.357   7.134
   58DG     H22 1835   7.535   5.190   7.175
   58DG      N3 1836   7.774   5.160   7.195
   58DG      C4 1837   7.913   5.174   7.199
   58DG     C3' 1838   8.042   4.724   7.280
   58DG     H3' 1839   8.135   4.654   7.269
   58DG     C2' 1840   8.058   4.842   7.196
   58DG    H2'1 1841   8.160   4.872   7.190
   58DG    H2'2 1842   8.033   4.828   7.096
   58DG     O3' 1843   7.923   4.649   7.273
   59DC       P 1844   7.897   4.557   7.138
   59DC     O1P 1845   7.806   4.443   7.173
   59DC     O2P 1846   8.034   4.528   7.084
   59DC     O5' 1847   7.812   4.648   7.045
   59DC     C5' 1848   7.685   4.706   7.080
   59DC    H5'1 1849   7.694   4.798   7.132
   59DC    H5'2 1850   7.629   4.635   7.136
   59DC     C4' 1851   7.594   4.734   6.966
   59DC     H4' 1852   7.489   4.728   6.992
   59DC     O4' 1853   7.617   4.864   6.927
   59DC     C1' 1854   7.670   4.870   6.797
   59DC     H1' 1855   7.591   4.914   6.736
   59DC      N1 1856   7.792   4.961   6.805
   59DC      C6 1857   7.915   4.922   6.852
   59DC      H6 1858   7.942   4.820   6.867
   59DC      C5 1859   8.003   5.025   6.877
   59DC      H5 1860   8.104   5.004   6.906
   59DC      C4 1861   7.969   5.158   6.852
   59DC      N4 1862   8.056   5.255   6.869
   59DC     H41 1863   8.028   5.343   6.831
   59DC     H42 1864   8.149   5.230   6.891
   59DC      N3 1865   7.852   5.195   6.816
   59DC      C2 1866   7.765   5.099   6.790
   59DC      O2 1867   7.658   5.135   6.743
   59DC     C3' 1868   7.603   4.647   6.840
   59DC     H3' 1869   7.657   4.563   6.866
   59DC     C2' 1870   7.689   4.731   6.745
   59DC    H2'1 1871   7.792   4.695   6.752
   59DC    H2'2 1872   7.655   4.715   6.640
   59DC     O3' 1873   7.478   4.608   6.791
   60DA       P 1874   7.452   4.517   6.662
   60DA     O1P 1875   7.330   4.440   6.691
   60DA     O2P 1876   7.575   4.435   6.636
   60DA     O5' 1877   7.431   4.621   6.542
   60DA     C5' 1878   7.314   4.698   6.542
   60DA    H5'1 1879   7.298   4.741   6.638
   60DA    H5'2 1880   7.225   4.632   6.531
   60DA     C4' 1881   7.318   4.821   6.441
   60DA     H4' 1882   7.210   4.845   6.436
   60DA     O4' 1883   7.407   4.924   6.490
   60DA     C1' 1884   7.498   4.950   6.387
   60DA     H1' 1885   7.451   5.025   6.321
   60DA      N9 1886   7.622   5.005   6.443
   60DA      C8 1887   7.739   4.942   6.473
   60DA      H8 1888   7.753   4.843   6.486
   60DA      N7 1889   7.843   5.025   6.485
   60DA      C5 1890   7.789   5.146   6.456
   60DA      C6 1891   7.840   5.282   6.469
   60DA      N6 1892   7.961   5.309   6.495
   60DA     H61 1893   7.994   5.398   6.496
   60DA     H62 1894   8.032   5.233   6.500
   60DA      N1 1895   7.766   5.387   6.438
   60DA      C2 1896   7.638   5.354   6.415
   60DA      H2 1897   7.575   5.439   6.377
   60DA      N3 1898   7.575   5.238   6.407
   60DA      C4 1899   7.657   5.137   6.432
   60DA     C3' 1900   7.363   4.778   6.297
   60DA     H3' 1901   7.358   4.671   6.286
   60DA     C2' 1902   7.512   4.823   6.308
   60DA    H2'1 1903   7.565   4.751   6.369
   60DA    H2'2 1904   7.552   4.836   6.207
   60DA     O3' 1905   7.299   4.861   6.201
   61DC       P 1906   7.234   4.814   6.065
   61DC     O1P 1907   7.096   4.779   6.098
   61DC     O2P 1908   7.324   4.723   5.997
   61DC     O5' 1909   7.236   4.956   5.997
   61DC     C5' 1910   7.145   5.059   6.035
   61DC    H5'1 1911   7.154   5.067   6.143
   61DC    H5'2 1912   7.040   5.038   6.012
   61DC     C4' 1913   7.175   5.195   5.980
   61DC     H4' 1914   7.089   5.253   5.996
   61DC     O4' 1915   7.286   5.251   6.051
   61DC     C1' 1916   7.376   5.280   5.954
   61DC     H1' 1917   7.371   5.387   5.923
   61DC      N1 1918   7.513   5.254   6.007
   61DC      C6 1919   7.561   5.125   6.024
   61DC      H6 1920   7.496   5.041   5.998
   61DC      C5 1921   7.679   5.113   6.083
   61DC      H5 1922   7.710   5.019   6.104
   61DC      C4 1923   7.755   5.229   6.113
   61DC      N4 1924   7.874   5.214   6.155
   61DC     H41 1925   7.927   5.305   6.159
   61DC     H42 1926   7.919   5.123   6.159
   61DC      N3 1927   7.718   5.353   6.095
   61DC      C2 1928   7.594   5.364   6.044
   61DC      O2 1929   7.544   5.478   6.040
   61DC     C3' 1930   7.194   5.199   5.833
   61DC     H3' 1931   7.145   5.107   5.792
   61DC     C2' 1932   7.350   5.201   5.823
   61DC    H2'1 1933   7.390   5.097   5.816
   61DC    H2'2 1934   7.386   5.261   5.741
   61DC     O3' 1935   7.134   5.319   5.770
   62DA       P 1936   7.140   5.352   5.618
   62DA     O1P 1937   7.031   5.454   5.596
   62DA     O2P 1938   7.126   5.221   5.552
   62DA     O5' 1939   7.269   5.431   5.584
   62DA     C5' 1940   7.297   5.558   5.648
   62DA    H5'1 1941   7.259   5.551   5.748
   62DA    H5'2 1942   7.239   5.635   5.593
   62DA     C4' 1943   7.447   5.594   5.649
   62DA     H4' 1944   7.456   5.693   5.688
   62DA     O4' 1945   7.527   5.506   5.728
   62DA     C1' 1946   7.660   5.526   5.674
   62DA     H1' 1947   7.701   5.619   5.715
   62DA      N9 1948   7.749   5.420   5.716
   62DA      C8 1949   7.721   5.290   5.727
   62DA      H8 1950   7.624   5.252   5.685
   62DA      N7 1951   7.818   5.227   5.788
   62DA      C5 1952   7.923   5.321   5.805
   62DA      C6 1953   8.051   5.319   5.865
   62DA      N6 1954   8.101   5.207   5.913
   62DA     H61 1955   8.187   5.207   5.953
   62DA     H62 1956   8.030   5.135   5.931
   62DA      N1 1957   8.124   5.430   5.866
   62DA      C2 1958   8.064   5.540   5.826
   62DA      H2 1959   8.122   5.626   5.827
   62DA      N3 1960   7.945   5.564   5.782
   62DA      C4 1961   7.877   5.442   5.767
   62DA     C3' 1962   7.502   5.599   5.505
   62DA     H3' 1963   7.461   5.533   5.443
   62DA     C2' 1964   7.645   5.553   5.525
   62DA    H2'1 1965   7.658   5.460   5.471
   62DA    H2'2 1966   7.718   5.627   5.502
   62DA     O3' 1967   7.490   5.733   5.465
   63DT       P 1968   7.508   5.786   5.319
   63DT     O1P 1969   7.480   5.930   5.323
   63DT     O2P 1970   7.423   5.695   5.237
   63DT     O5' 1971   7.659   5.771   5.274
   63DT     C5' 1972   7.760   5.860   5.308
   63DT    H5'1 1973   7.759   5.874   5.420
   63DT    H5'2 1974   7.739   5.950   5.248
   63DT     C4' 1975   7.896   5.796   5.277
   63DT     H4' 1976   7.973   5.860   5.303
   63DT     O4' 1977   7.918   5.680   5.352
   63DT     C1' 1978   7.996   5.596   5.269
   63DT     H1' 1979   8.096   5.635   5.255
   63DT      N1 1980   8.012   5.472   5.347
   63DT      C6 1981   7.926   5.366   5.321
   63DT      H6 1982   7.843   5.375   5.244
   63DT      C5 1983   7.934   5.245   5.388
   63DT      C7 1984   7.846   5.128   5.363
   63DT     H71 1985   7.793   5.128   5.267
   63DT     H72 1986   7.889   5.034   5.402
   63DT     H73 1987   7.761   5.134   5.424
   63DT      C4 1988   8.039   5.232   5.486
   63DT      O4 1989   8.061   5.141   5.562
   63DT      N3 1990   8.125   5.335   5.498
   63DT      H3 1991   8.207   5.310   5.563
   63DT      C2 1992   8.118   5.456   5.435
   63DT      O2 1993   8.205   5.545   5.452
   63DT     C3' 1994   7.920   5.769   5.130
   63DT     H3' 1995   7.839   5.812   5.069
   63DT     C2' 1996   7.924   5.613   5.133
   63DT    H2'1 1997   7.817   5.578   5.142
   63DT    H2'2 1998   7.971   5.577   5.044
   63DT     O3' 1999   8.047   5.811   5.081
   64DG       P 2000   8.068   5.920   4.967
   64DG     O1P 2001   8.033   6.053   5.016
   64DG     O2P 2002   7.997   5.871   4.843
   64DG     O5' 2003   8.221   5.923   4.930
   64DG     C5' 2004   8.320   5.972   5.023
   64DG    H5'1 2005   8.291   5.953   5.125
   64DG    H5'2 2006   8.324   6.076   5.007
   64DG     C4' 2007   8.463   5.914   5.009
   64DG     H4' 2008   8.533   5.992   5.038
   64DG     O4' 2009   8.490   5.805   5.084
   64DG     C1' 2010   8.491   5.691   5.006
   64DG     H1' 2011   8.592   5.659   5.008
   64DG      N9 2012   8.400   5.582   5.057
   64DG      C8 2013   8.266   5.567   5.038
   64DG      H8 2014   8.206   5.641   4.980
   64DG      N7 2015   8.213   5.465   5.103
   64DG      C5 2016   8.322   5.401   5.161
   64DG      C6 2017   8.338   5.276   5.225
   64DG      O6 2018   8.251   5.197   5.254
   64DG      N1 2019   8.472   5.243   5.258
   64DG      H1 2020   8.496   5.147   5.290
   64DG      C2 2021   8.576   5.326   5.229
   64DG      N2 2022   8.698   5.287   5.258
   64DG     H21 2023   8.702   5.199   5.320
   64DG     H22 2024   8.778   5.349   5.237
   64DG      N3 2025   8.566   5.442   5.173
   64DG      C4 2026   8.436   5.473   5.136
   64DG     C3' 2027   8.497   5.881   4.864
   64DG     H3' 2028   8.434   5.934   4.791
   64DG     C2' 2029   8.477   5.731   4.858
   64DG    H2'1 2030   8.381   5.716   4.803
   64DG    H2'2 2031   8.560   5.680   4.818
   64DG     O3' 2032   8.634   5.914   4.844
   65DC       P 2033   8.703   5.901   4.702
   65DC     O1P 2034   8.821   5.989   4.705
   65DC     O2P 2035   8.607   5.927   4.590
   65DC     O5' 2036   8.750   5.752   4.695
   65DC     C5' 2037   8.857   5.705   4.780
   65DC    H5'1 2038   8.828   5.720   4.882
   65DC    H5'2 2039   8.945   5.762   4.763
   65DC     C4' 2040   8.893   5.556   4.756
   65DC     H4' 2041   8.988   5.533   4.799
   65DC     O4' 2042   8.797   5.476   4.823
   65DC     C1' 2043   8.744   5.381   4.735
   65DC     H1' 2044   8.816   5.296   4.735
   65DC      N1 2045   8.608   5.341   4.778
   65DC      C6 2046   8.498   5.415   4.747
   65DC      H6 2047   8.516   5.508   4.701
   65DC      C5 2048   8.371   5.379   4.778
   65DC      H5 2049   8.285   5.445   4.738
   65DC      C4 2050   8.366   5.247   4.836
   65DC      N4 2051   8.243   5.211   4.869
   65DC     H41 2052   8.225   5.126   4.922
   65DC     H42 2053   8.173   5.280   4.854
   65DC      N3 2054   8.469   5.178   4.884
   65DC      C2 2055   8.597   5.222   4.848
   65DC      O2 2056   8.699   5.157   4.895
   65DC     C3' 2057   8.888   5.511   4.613
   65DC     H3' 2058   8.891   5.595   4.545
   65DC     C2' 2059   8.754   5.452   4.591
   65DC    H2'1 2060   8.680   5.527   4.564
   65DC    H2'2 2061   8.752   5.375   4.514
   65DC     O3' 2062   8.986   5.415   4.582
   66DG3      P 2063   9.131   5.455   4.522
   66DG3    O1P 2064   9.189   5.558   4.607
   66DG3    O2P 2065   9.114   5.480   4.381
   66DG3    O5' 2066   9.205   5.315   4.539
   66DG3    C5' 2067   9.234   5.261   4.662
   66DG3   H5'1 2068   9.190   5.318   4.745
   66DG3   H5'2 2069   9.334   5.263   4.673
   66DG3    C4' 2070   9.204   5.111   4.677
   66DG3    H4' 2071   9.259   5.076   4.762
   66DG3    O4' 2072   9.059   5.095   4.684
   66DG3    C1' 2073   9.014   4.992   4.596
   66DG3    H1' 2074   9.032   4.896   4.647
   66DG3     N9 2075   8.874   5.019   4.559
   66DG3     C8 2076   8.825   5.108   4.466
   66DG3     H8 2077   8.883   5.169   4.404
   66DG3     N7 2078   8.700   5.114   4.467
   66DG3     C5 2079   8.654   5.023   4.562
   66DG3     C6 2080   8.524   4.983   4.607
   66DG3     O6 2081   8.411   5.016   4.566
   66DG3     N1 2082   8.529   4.881   4.697
   66DG3     H1 2083   8.440   4.842   4.727
   66DG3     C2 2084   8.642   4.826   4.754
   66DG3     N2 2085   8.626   4.727   4.838
   66DG3    H21 2086   8.534   4.693   4.869
   66DG3    H22 2087   8.703   4.670   4.868
   66DG3     N3 2088   8.764   4.855   4.710
   66DG3     C4 2089   8.765   4.957   4.615
   66DG3    C3' 2090   9.244   5.031   4.555
   66DG3    H3' 2091   9.302   5.097   4.490
   66DG3    C2' 2092   9.114   4.989   4.479
   66DG3   H2'1 2093   9.099   5.066   4.400
   66DG3   H2'2 2094   9.114   4.895   4.432
   66DG3    O3' 2095   9.329   4.919   4.592
   66DG3    H3T 2096   9.279   4.856   4.645
   67SOL     OW 2097  12.567   7.569  10.129
   67SOL    HW1 2098  12.581   7.639  10.065
   67SOL    HW2 2099  12.482   7.532  10.105
   68SOL     OW 2100   3.676  12.358   7.644
   68SOL    HW1 2101   3.633  12.442   7.652
   68SOL    HW2 2102   3.761  12.378   7.604
   69SOL     OW 2103   4.882   8.000  10.635
   69SOL    HW1 2104   4.801   7.991  10.584
   69SOL    HW2 2105   4.897   8.095  10.639
   70SOL     OW 2106   6.681   7.171   2.124
   70SOL    HW1 2107   6.717   7.233   2.061
   70SOL    HW2 2108   6.707   7.206   2.210
   71SOL     OW 2109   8.113   0.335   0.554
   71SOL    HW1 2110   8.207   0.322   0.570
   71SOL    HW2 2111   8.094   0.285   0.475
   72SOL     OW 2112   3.578   9.526  11.621
   72SOL    HW1 2113   3.651   9.529  11.559
   72SOL    HW2 2114   3.565   9.617  11.646
   73SOL     OW 2115   9.858   0.348   6.191
   73SOL    HW1 2116   9.768   0.349   6.157
   73SOL    HW2 2117   9.899   0.425   6.153
   74SOL     OW 2118   9.530   5.954   4.011
   74SOL    HW1 2119   9.490   5.899   4.078
   74SOL    HW2 2120   9.624   5.937   4.019
   75SOL     OW 2121   2.942  11.329  10.401
   75SOL    HW1 2122   3.006  11.396  10.425
   75SOL    HW2 2123   2.992  11.263  10.353
   76SOL     OW 2124   1.190   8.280   3.395
   76SOL    HW1 2125   1.216   8.371   3.380
   76SOL    HW2 2126   1.271   8.237   3.424
   77SOL     OW 2127  11.644  10.642   1.777
   77SOL    HW1 2128  11.561  10.599   1.795
   77SOL    HW2 2129  11.689  10.643   1.862
   78SOL     OW 2130   1.437   9.293  13.945
   78SOL    HW1 2131   1.411   9.382  13.967
   78SOL    HW2 2132   1.355   9.248  13.923
   79SOL     OW 2133   2.196   5.002   6.372
   79SOL    HW1 2134   2.237   4.963   6.449
   79SOL    HW2 2135   2.265   5.053   6.330
   80SOL     OW 2136   7.668   2.642  10.338
   80SOL    HW1 2137   7.759   2.612  10.338
   80SOL    HW2 2138   7.618   2.569  10.371
   81SOL     OW 2139   5.241   8.724  13.559
   81SOL    HW1 2140   5.174   8.673  13.513
   81SOL    HW2 2141   5.232   8.812  13.523
   82SOL     OW 2142   6.008   6.539   2.425
   82SOL    HW1 2143   5.936   6.490   2.465
   82SOL    HW2 2144   6.085   6.512   2.475
   83SOL     OW 2145   5.125  12.306   1.255
   83SOL    HW1 2146   5.030  12.321   1.264
   83SOL    HW2 2147   5.140  12.224   1.301
   84SOL     OW 2148   8.765   1.189   3.333
   84SOL    HW1 2149   8.751   1.278   3.300
   84SOL    HW2 2150   8.721   1.188   3.418
   85SOL     OW 2151  11.987  14.465  13.697
   85SOL    HW1 2152  11.900  14.443  13.730
   85SOL    HW2 2153  11.982  14.558  13.675
   86SOL     OW 2154   1.569   9.179  13.220
   86SOL    HW1 2155   1.525   9.157  13.302
   86SOL    HW2 2156   1.615   9.260  13.238
   87SOL     OW 2157   4.484   6.523  13.809
   87SOL    HW1 2158   4.540   6.473  13.869
   87SOL    HW2 2159   4.539   6.539  13.732
   88SOL     OW 2160  13.564   7.791   9.848
   88SOL    HW1 2161  13.518   7.710   9.824
   88SOL    HW2 2162  13.517   7.860   9.801
   89SOL     OW 2163  12.287  13.220  13.879
   89SOL    HW1 2164  12.333  13.281  13.936
   89SOL    HW2 2165  12.196  13.249  13.881
   90SOL     OW 2166   3.784   1.518   8.282
   90SOL    HW1 2167   3.870   1.546   8.314
   90SOL    HW2 2168   3.790   1.528   8.187
   91SOL     OW 2169  13.419  14.130  13.061
   91SOL    HW1 2170  13.490  14.192  13.043
   91SOL    HW2 2171  13.451  14.076  13.133
   92SOL     OW 2172   6.617  13.426   5.243
   92SOL    HW1 2173   6.633  13.499   5.183
   92SOL    HW2 2174   6.628  13.464   5.330
   93SOL     OW 2175   0.174   5.018   1.931
   93SOL    HW1 2176   0.111   4.989   1.866
   93SOL    HW2 2177   0.246   4.956   1.924
   94SOL     OW 2178  10.191   0.451   7.445
   94SOL    HW1 2179  10.180   0.387   7.374
   94SOL    HW2 2180  10.103   0.465   7.479
   95SOL     OW 2181   8.785   8.762   0.978
   95SOL    HW1 2182   8.701   8.729   1.009
   95SOL    HW2 2183   8.831   8.684   0.946
   96SOL     OW 2184  14.806  10.464  11.073
   96SOL    HW1 2185  14.872  10.524  11.039
   96SOL    HW2 2186  14.840  10.435  11.157
   97SOL     OW 2187  13.343  12.442  13.601
   97SOL    HW1 2188  13.341  12.527  13.644
   97SOL    HW2 2189  13.276  12.391  13.648
   98SOL     OW 2190   5.339   9.575   5.102
   98SOL    HW1 2191   5.281   9.605   5.032
   98SOL    HW2 2192   5.314   9.627   5.178
   99SOL     OW 2193   7.871   5.651   0.496
   99SOL    HW1 2194   7.832   5.676   0.412
   99SOL    HW2 2195   7.891   5.734   0.539
  100SOL     OW 2196   8.030   9.657  10.384
  100SOL    HW1 2197   8.081   9.729  10.419
  100SOL    HW2 2198   8.094   9.588  10.367
  101SOL     OW 2199   5.919   4.723  12.113
  101SOL    HW1 2200   5.825   4.707  12.106
  101SOL    HW2 2201   5.944   4.761  12.029
  102SOL     OW 2202  12.694   5.075  12.789
  102SOL    HW1 2203  12.730   5.064  12.877
  102SOL    HW2 2204  12.761   5.038  12.731
  103SOL     OW 2205   5.862   9.654   8.315
  103SOL    HW1 2206   5.767   9.644   8.325
  103SOL    HW2 2207   5.898   9.572   8.349
  104SOL     OW 2208   0.259  11.503   7.244
  104SOL    HW1 2209   0.234  11.413   7.225
  104SOL    HW2 2210   0.327  11.496   7.311
  105SOL     OW 2211   3.642   1.676   9.683
  105SOL    HW1 2212   3.609   1.765   9.687
  105SOL    HW2 2213   3.600   1.638   9.606
  106SOL     OW 2214   4.315  12.138  10.780
  106SOL    HW1 2215   4.292  12.210  10.839
  106SOL    HW2 2216   4.379  12.087  10.828
  107SOL     OW 2217   6.697   3.082   7.542
  107SOL    HW1 2218   6.775   3.050   7.496
  107SOL    HW2 2219   6.727   3.157   7.592
  108SOL     OW 2220   2.933   9.148   3.734
  108SOL    HW1 2221   2.911   9.241   3.727
  108SOL    HW2 2222   2.858   9.102   3.696
  109SOL     OW 2223   0.153   6.259   2.594
  109SOL    HW1 2224   0.243   6.271   2.564
  109SOL    HW2 2225   0.109   6.214   2.521
  110SOL     OW 2226   9.584   2.508   6.190
  110SOL    HW1 2227   9.572   2.603   6.191
  110SOL    HW2 2228   9.515   2.476   6.132
  111SOL     OW 2229   0.595   8.077   7.398
  111SOL    HW1 2230   0.573   7.984   7.388
  111SOL    HW2 2231   0.578   8.114   7.311
  112SOL     OW 2232  12.116  14.480   5.068
  112SOL    HW1 2233  12.136  14.490   5.161
  112SOL    HW2 2234  12.120  14.385   5.053
  113SOL     OW 2235  12.778   0.826   1.452
  113SOL    HW1 2236  12.713   0.856   1.516
  113SOL    HW2 2237  12.782   0.897   1.388
  114SOL     OW 2238   2.769  11.370  14.118
  114SOL    HW1 2239   2.732  11.284  14.139
  114SOL    HW2 2240   2.754  11.380  14.024
  115SOL     OW 2241   5.510   4.648   7.561
  115SOL    HW1 2242   5.472   4.721   7.513
  115SOL    HW2 2243   5.515   4.678   7.652
  116SOL     OW 2244  11.954   1.357   3.325
  116SOL    HW1 2245  11.882   1.324   3.270
  116SOL    HW2 2246  11.979   1.282   3.378
  117SOL     OW 2247   2.856   8.743  13.542
  117SOL    HW1 2248   2.853   8.825  13.494
  117SOL    HW2 2249   2.876   8.676  13.476
  118SOL     OW 2250   4.069  11.753  10.315
  118SOL    HW1 2251   4.030  11.769  10.401
  118SOL    HW2 2252   4.118  11.833  10.296
  119SOL     OW 2253   9.616  12.249   9.536
  119SOL    HW1 2254   9.622  12.241   9.631
  119SOL    HW2 2255   9.539  12.198   9.512
  120SOL     OW 2256  12.524   1.424   4.975
  120SOL    HW1 2257  12.457   1.453   5.037
  120SOL    HW2 2258  12.480   1.425   4.890
  121SOL     OW 2259   2.653  14.077   4.787
  121SOL    HW1 2260   2.583  14.031   4.833
  121SOL    HW2 2261   2.608  14.135   4.726
  122SOL     OW 2262   7.708  14.617  12.913
  122SOL    HW1 2263   7.651  14.653  12.844
  122SOL    HW2 2264   7.796  14.623  12.876
  123SOL     OW 2265   5.998   7.628   2.086
  123SOL    HW1 2266   5.988   7.675   2.169
  123SOL    HW2 2267   5.923   7.569   2.083
  124SOL     OW 2268   9.295   0.962  12.230
  124SOL    HW1 2269   9.313   1.011  12.310
  124SOL    HW2 2270   9.202   0.976  12.213
  125SOL     OW 2271   4.542   4.389  14.800
  125SOL    HW1 2272   4.543   4.483  14.779
  125SOL    HW2 2273   4.626   4.357  14.767
  126SOL     OW 2274   2.341  11.551   4.054
  126SOL    HW1 2275   2.342  11.605   4.133
  126SOL    HW2 2276   2.415  11.583   4.002
  127SOL     OW 2277   5.564  12.553  12.542
  127SOL    HW1 2278   5.585  12.553  12.636
  127SOL    HW2 2279   5.557  12.461  12.518
  128SOL     OW 2280   5.408   9.962  13.434
  128SOL    HW1 2281   5.358   9.883  13.456
  128SOL    HW2 2282   5.413   9.961  13.339
  129SOL     OW 2283   7.916  14.479   8.210
  129SOL    HW1 2284   7.890  14.568   8.233
  129SOL    HW2 2285   7.892  14.471   8.117
  130SOL     OW 2286   3.066   2.819   9.537
  130SOL    HW1 2287   3.077   2.826   9.632
  130SOL    HW2 2288   3.094   2.904   9.503
  131SOL     OW 2289   2.020  11.029   5.307
  131SOL    HW1 2290   1.946  10.973   5.330
  131SOL    HW2 2291   2.002  11.058   5.218
  132SOL     OW 2292   7.228   3.573   8.486
  132SOL    HW1 2293   7.305   3.533   8.526
  132SOL    HW2 2294   7.231   3.545   8.395
  133SOL     OW 2295   9.260  12.325   8.648
  133SOL    HW1 2296   9.195  12.395   8.644
  133SOL    HW2 2297   9.342  12.366   8.622
  134SOL     OW 2298  10.004   2.139   1.081
  134SOL    HW1 2299   9.942   2.164   1.149
  134SOL    HW2 2300   9.949   2.099   1.012
  135SOL     OW 2301   4.854   5.810  13.497
  135SOL    HW1 2302   4.759   5.812  13.489
  135SOL    HW2 2303   4.880   5.902  13.503
  136SOL     OW 2304   5.168   2.684  14.564
  136SOL    HW1 2305   5.136   2.768  14.533
  136SOL    HW2 2306   5.198   2.701  14.653
  137SOL     OW 2307  14.606   7.731   4.849
  137SOL    HW1 2308  14.546   7.715   4.922
  137SOL    HW2 2309  14.672   7.791   4.885
  138SOL     OW 2310   1.848  12.307   3.050
  138SOL    HW1 2311   1.908  12.376   3.080
  138SOL    HW2 2312   1.906  12.234   3.029
  139SOL     OW 2313  14.412  10.876   2.039
  139SOL    HW1 2314  14.402  10.841   1.950
  139SOL    HW2 2315  14.471  10.950   2.029
  140SOL     OW 2316   5.000   1.634   3.229
  140SOL    HW1 2317   4.962   1.593   3.307
  140SOL    HW2 2318   5.095   1.630   3.244
  141SOL     OW 2319   8.286  10.762   7.879
  141SOL    HW1 2320   8.215  10.721   7.831
  141SOL    HW2 2321   8.331  10.818   7.815
  142SOL     OW 2322   1.077  11.708  14.368
  142SOL    HW1 2323   1.136  11.632  14.367
  142SOL    HW2 2324   1.070  11.731  14.460
  143SOL     OW 2325  11.941   7.308   3.056
  143SOL    HW1 2326  11.873   7.259   3.102
  143SOL    HW2 2327  11.917   7.400   3.071
  144SOL     OW 2328   5.049   4.265   4.005
  144SOL    HW1 2329   4.978   4.324   3.979
  144SOL    HW2 2330   5.007   4.179   4.013
  145SOL     OW 2331   9.859   6.676   9.604
  145SOL    HW1 2332   9.919   6.670   9.679
  145SOL    HW2 2333   9.813   6.592   9.603
  146SOL     OW 2334   5.487   4.470   8.708
  146SOL    HW1 2335   5.544   4.544   8.687
  146SOL    HW2 2336   5.401   4.495   8.672
  147SOL     OW 2337   0.071  13.625   4.814
  147SOL    HW1 2338   0.008  13.565   4.774
  147SOL    HW2 2339   0.039  13.637   4.904
  148SOL     OW 2340   6.327   3.666   1.490
  148SOL    HW1 2341   6.320   3.601   1.420
  148SOL    HW2 2342   6.419   3.692   1.491
  149SOL     OW 2343  12.136   7.691   1.141
  149SOL    HW1 2344  12.052   7.734   1.155
  149SOL    HW2 2345  12.115   7.598   1.132
  150SOL     OW 2346   3.233   3.841   5.278
  150SOL    HW1 2347   3.232   3.745   5.280
  150SOL    HW2 2348   3.212   3.863   5.188
  151SOL     OW 2349   4.770   0.824   0.791
  151SOL    HW1 2350   4.852   0.777   0.774
  151SOL    HW2 2351   4.748   0.865   0.707
  152SOL     OW 2352   2.197  10.258  13.674
  152SOL    HW1 2353   2.156  10.209  13.603
  152SOL    HW2 2354   2.271  10.303  13.634
  153SOL     OW 2355   0.858   7.751   4.263
  153SOL    HW1 2356   0.897   7.834   4.289
  153SOL    HW2 2357   0.774   7.748   4.310
  154SOL     OW 2358   7.317  13.568   5.017
  154SOL    HW1 2359   7.389  13.549   4.957
  154SOL    HW2 2360   7.342  13.525   5.099
  155SOL     OW 2361  14.206   8.817   7.185
  155SOL    HW1 2362  14.286   8.779   7.150
  155SOL    HW2 2363  14.218   8.817   7.280
  156SOL     OW 2364   9.910  14.354   9.928
  156SOL    HW1 2365   9.963  14.394   9.997
  156SOL    HW2 2366   9.846  14.421   9.905
  157SOL     OW 2367   8.960   7.164  12.634
  157SOL    HW1 2368   8.869   7.140  12.622
  157SOL    HW2 2369   8.969   7.178  12.728
  158SOL     OW 2370   5.140   5.881  11.121
  158SOL    HW1 2371   5.161   5.952  11.060
  158SOL    HW2 2372   5.116   5.807  11.065
  159SOL     OW 2373  14.328   8.235   3.266
  159SOL    HW1 2374  14.297   8.268   3.350
  159SOL    HW2 2375  14.417   8.270   3.258
  160SOL     OW 2376   6.780   1.627  14.070
  160SOL    HW1 2377   6.782   1.575  13.989
  160SOL    HW2 2378   6.826   1.573  14.134
  161SOL     OW 2379   7.997   8.726   0.208
  161SOL    HW1 2380   7.978   8.819   0.225
  161SOL    HW2 2381   8.092   8.721   0.208
  162SOL     OW 2382  14.156   4.964  14.234
  162SOL    HW1 2383  14.068   4.992  14.208
  162SOL    HW2 2384  14.206   4.964  14.153
  163SOL     OW 2385   2.657   1.871   2.197
  163SOL    HW1 2386   2.609   1.801   2.241
  163SOL    HW2 2387   2.589   1.933   2.171
  164SOL     OW 2388   2.733   4.535  14.840
  164SOL    HW1 2389   2.694   4.448  14.853
  164SOL    HW2 2390   2.691   4.568  14.761
  165SOL     OW 2391   0.652   2.277   0.779
  165SOL    HW1 2392   0.605   2.298   0.860
  165SOL    HW2 2393   0.688   2.190   0.795
  166SOL     OW 2394  13.184   7.220   6.172
  166SOL    HW1 2395  13.119   7.262   6.116
  166SOL    HW2 2396  13.144   7.136   6.196
  167SOL     OW 2397  11.370   0.242  10.792
  167SOL    HW1 2398  11.300   0.178  10.804
  167SOL    HW2 2399  11.325   0.325  10.777
  168SOL     OW 2400  10.921  13.782  14.068
  168SOL    HW1 2401  10.990  13.720  14.046
  168SOL    HW2 2402  10.908  13.833  13.987
  169SOL     OW 2403  12.789   2.248   1.174
  169SOL    HW1 2404  12.753   2.287   1.094
  169SOL    HW2 2405  12.788   2.320   1.237
  170SOL     OW 2406  14.305   3.472   6.131
  170SOL    HW1 2407  14.241   3.410   6.168
  170SOL    HW2 2408  14.299   3.458   6.037
  171SOL     OW 2409  14.410   1.659  13.489
  171SOL    HW1 2410  14.430   1.628  13.400
  171SOL    HW2 2411  14.492   1.648  13.537
  172SOL     OW 2412  11.207   9.453   0.772
  172SOL    HW1 2413  11.150   9.486   0.842
  172SOL    HW2 2414  11.179   9.500   0.694
  173SOL     OW 2415   0.254   1.529  12.087
  173SOL    HW1 2416   0.260   1.499  12.178
  173SOL    HW2 2417   0.170   1.575  12.083
  174SOL     OW 2418   7.789  10.590   9.224
  174SOL    HW1 2419   7.881  10.598   9.248
  174SOL    HW2 2420   7.753  10.530   9.290
  175SOL     OW 2421   1.408   3.494   9.395
  175SOL    HW1 2422   1.390   3.447   9.476
  175SOL    HW2 2423   1.345   3.460   9.332
  176SOL     OW 2424  10.453   7.619  13.397
  176SOL    HW1 2425  10.497   7.592  13.316
  176SOL    HW2 2426  10.389   7.684  13.370
  177SOL     OW 2427   2.921   9.431   1.418
  177SOL    HW1 2428   2.833   9.399   1.402
  177SOL    HW2 2429   2.910   9.524   1.438
  178SOL     OW 2430   9.261  12.208   5.345
  178SOL    HW1 2431   9.248  12.276   5.411
  178SOL    HW2 2432   9.350  12.221   5.313
  179SOL     OW 2433   7.968   9.675   6.527
  179SOL    HW1 2434   7.883   9.703   6.561
  179SOL    HW2 2435   8.008   9.755   6.494
  180SOL     OW 2436   3.215  10.793   3.612
  180SOL    HW1 2437   3.228  10.730   3.683
  180SOL    HW2 2438   3.154  10.858   3.649
  181SOL     OW 2439  13.620   8.620  12.727
  181SOL    HW1 2440  13.581   8.702  12.757
  181SOL    HW2 2441  13.548   8.556  12.732
  182SOL     OW 2442   6.222  14.084   2.132
  182SOL    HW1 2443   6.316  14.070   2.119
  182SOL    HW2 2444   6.183  13.998   2.119
  183SOL     OW 2445   6.420  12.238   6.436
  183SOL    HW1 2446   6.340  12.190   6.415
  183SOL    HW2 2447   6.490  12.189   6.393
  184SOL     OW 2448  12.422   8.556   2.481
  184SOL    HW1 2449  12.329   8.547   2.462
  184SOL    HW2 2450  12.458   8.469   2.466
  185SOL     OW 2451   6.728   6.606   6.652
  185SOL    HW1 2452   6.764   6.604   6.741
  185SOL    HW2 2453   6.663   6.535   6.650
  186SOL     OW 2454  14.356   2.816  13.972
  186SOL    HW1 2455  14.395   2.848  14.054
  186SOL    HW2 2456  14.307   2.738  13.998
  187SOL     OW 2457   5.851   8.920   5.986
  187SOL    HW1 2458   5.914   8.984   6.020
  187SOL    HW2 2459   5.905   8.856   5.940
  188SOL     OW 2460   4.320   7.663   2.891
  188SOL    HW1 2461   4.225   7.658   2.878
  188SOL    HW2 2462   4.333   7.747   2.935
  189SOL     OW 2463   2.629  10.395  13.229
  189SOL    HW1 2464   2.668  10.365  13.311
  189SOL    HW2 2465   2.559  10.332  13.212
  190SOL     OW 2466   5.492   5.128   1.836
  190SOL    HW1 2467   5.513   5.222   1.836
  190SOL    HW2 2468   5.541   5.092   1.762
  191SOL     OW 2469  13.235  12.818  14.759
  191SOL    HW1 2470  13.297  12.822  14.831
  191SOL    HW2 2471  13.164  12.763  14.792
  192SOL     OW 2472   2.858   8.420   9.780
  192SOL    HW1 2473   2.926   8.384   9.723
  192SOL    HW2 2474   2.876   8.514   9.783
  193SOL     OW 2475  10.885  12.125   0.610
  193SOL    HW1 2476  10.824  12.162   0.674
  193SOL    HW2 2477  10.971  12.154   0.641
  194SOL     OW 2478   1.155   8.735   6.746
  194SOL    HW1 2479   1.127   8.813   6.793
  194SOL    HW2 2480   1.213   8.690   6.806
  195SOL     OW 2481  10.243   0.209   8.594
  195SOL    HW1 2482  10.218   0.137   8.650
  195SOL    HW2 2483  10.278   0.167   8.515
  196SOL     OW 2484  14.437  12.753   7.489
  196SOL    HW1 2485  14.398  12.817   7.429
  196SOL    HW2 2486  14.374  12.681   7.492
  197SOL     OW 2487   6.399   2.217   5.380
  197SOL    HW1 2488   6.459   2.270   5.327
  197SOL    HW2 2489   6.320   2.209   5.327
  198SOL     OW 2490   7.542   8.473   1.458
  198SOL    HW1 2491   7.582   8.559   1.473
  198SOL    HW2 2492   7.572   8.420   1.532
  199SOL     OW 2493   1.483  12.169   5.596
  199SOL    HW1 2494   1.484  12.099   5.531
  199SOL    HW2 2495   1.503  12.125   5.679
  200SOL     OW 2496   0.522   9.323   6.276
  200SOL    HW1 2497   0.555   9.265   6.207
  200SOL    HW2 2498   0.578   9.401   6.270
  201SOL     OW 2499  14.836   3.282   6.539
  201SOL    HW1 2500  14.830   3.342   6.614
  201SOL    HW2 2501  14.798   3.200   6.571
  202SOL     OW 2502   2.358   5.299   5.315
  202SOL    HW1 2503   2.375   5.345   5.233
  202SOL    HW2 2504   2.317   5.364   5.371
  203SOL     OW 2505   0.432   4.900  12.276
  203SOL    HW1 2506   0.440   4.805  12.263
  203SOL    HW2 2507   0.350   4.911  12.325
  204SOL     OW 2508  11.771   9.010   6.521
  204SOL    HW1 2509  11.689   8.967   6.544
  204SOL    HW2 2510  11.761   9.034   6.429
  205SOL     OW 2511   4.131   8.572  14.268
  205SOL    HW1 2512   4.101   8.483  14.250
  205SOL    HW2 2513   4.226   8.563  14.278
  206SOL     OW 2514   6.772  11.770   6.420
  206SOL    HW1 2515   6.685  11.805   6.439
  206SOL    HW2 2516   6.786  11.792   6.328
  207SOL     OW 2517   3.703   7.853   9.907
  207SOL    HW1 2518   3.615   7.890   9.914
  207SOL    HW2 2519   3.757   7.927   9.880
  208SOL     OW 2520   5.671   5.937   9.316
  208SOL    HW1 2521   5.592   5.945   9.261
  208SOL    HW2 2522   5.644   5.971   9.401
  209SOL     OW 2523  11.420   4.186  14.270
  209SOL    HW1 2524  11.382   4.165  14.355
  209SOL    HW2 2525  11.395   4.277  14.255
  210SOL     OW 2526   8.800  10.964  14.159
  210SOL    HW1 2527   8.788  10.903  14.086
  210SOL    HW2 2528   8.711  10.987  14.186
  211SOL     OW 2529   1.086  10.820   9.328
  211SOL    HW1 2530   1.064  10.729   9.349
  211SOL    HW2 2531   1.181  10.824   9.340
  212SOL     OW 2532   1.877   4.544   6.346
  212SOL    HW1 2533   1.919   4.532   6.432
  212SOL    HW2 2534   1.798   4.489   6.350
  213SOL     OW 2535   2.051   3.355   6.584
  213SOL    HW1 2536   2.036   3.300   6.661
  213SOL    HW2 2537   2.117   3.418   6.611
  214SOL     OW 2538   5.635   6.196  11.744
  214SOL    HW1 2539   5.717   6.202  11.793
  214SOL    HW2 2540   5.584   6.129  11.789
  215SOL     OW 2541  12.153   3.990   8.131
  215SOL    HW1 2542  12.066   4.030   8.122
  215SOL    HW2 2543  12.140   3.920   8.196
  216SOL     OW 2544  14.465   8.197   7.461
  216SOL    HW1 2545  14.410   8.135   7.510
  216SOL    HW2 2546  14.549   8.152   7.453
  217SOL     OW 2547   3.275   5.009   3.927
  217SOL    HW1 2548   3.180   5.021   3.936
  217SOL    HW2 2549   3.285   4.921   3.891
  218SOL     OW 2550   8.066   6.780   3.936
  218SOL    HW1 2551   8.093   6.785   3.844
  218SOL    HW2 2552   7.980   6.821   3.938
  219SOL     OW 2553  11.822   7.700   1.249
  219SOL    HW1 2554  11.827   7.611   1.216
  219SOL    HW2 2555  11.733   7.709   1.283
  220SOL     OW 2556   6.605   7.630   3.984
  220SOL    HW1 2557   6.637   7.716   4.014
  220SOL    HW2 2558   6.511   7.632   4.002
  221SOL     OW 2559   3.800  10.342   2.106
  221SOL    HW1 2560   3.895  10.327   2.109
  221SOL    HW2 2561   3.776  10.359   2.197
  222SOL     OW 2562   3.981  10.347   6.516
  222SOL    HW1 2563   3.972  10.271   6.573
  222SOL    HW2 2564   3.938  10.322   6.434
  223SOL     OW 2565  10.763  13.024  13.012
  223SOL    HW1 2566  10.835  13.083  13.035
  223SOL    HW2 2567  10.770  13.013  12.918
  224SOL     OW 2568  10.038  14.146  12.880
  224SOL    HW1 2569   9.980  14.146  12.957
  224SOL    HW2 2570  10.059  14.238  12.865
  225SOL     OW 2571   7.619  13.929  12.286
  225SOL    HW1 2572   7.548  13.900  12.229
  225SOL    HW2 2573   7.664  13.997  12.237
  226SOL     OW 2574   3.649   9.916   2.477
  226SOL    HW1 2575   3.555   9.931   2.467
  226SOL    HW2 2576   3.683   9.999   2.512
  227SOL     OW 2577   2.123  13.645   1.637
  227SOL    HW1 2578   2.057  13.678   1.698
  227SOL    HW2 2579   2.206  13.683   1.667
  228SOL     OW 2580   2.472   2.553  11.244
  228SOL    HW1 2581   2.494   2.514  11.328
  228SOL    HW2 2582   2.528   2.508  11.181
  229SOL     OW 2583  12.075   3.974   6.598
  229SOL    HW1 2584  11.986   3.963   6.565
  229SOL    HW2 2585  12.064   4.014   6.684
  230SOL     OW 2586   8.456   7.835   2.783
  230SOL    HW1 2587   8.455   7.879   2.698
  230SOL    HW2 2588   8.377   7.868   2.828
  231SOL     OW 2589  10.671   5.067   9.858
  231SOL    HW1 2590  10.623   5.042   9.780
  231SOL    HW2 2591  10.617   5.036   9.931
  232SOL     OW 2592   7.469   5.862   3.337
  232SOL    HW1 2593   7.485   5.954   3.359
  232SOL    HW2 2594   7.557   5.823   3.336
  233SOL     OW 2595   4.217   4.553   7.453
  233SOL    HW1 2596   4.273   4.630   7.445
  233SOL    HW2 2597   4.276   4.479   7.443
  234SOL     OW 2598   0.227   6.710   0.532
  234SOL    HW1 2599   0.217   6.751   0.447
  234SOL    HW2 2600   0.321   6.712   0.549
  235SOL     OW 2601   5.475   0.861  13.563
  235SOL    HW1 2602   5.516   0.837  13.480
  235SOL    HW2 2603   5.383   0.836  13.552
  236SOL     OW 2604   6.849   4.166   5.303
  236SOL    HW1 2605   6.801   4.153   5.384
  236SOL    HW2 2606   6.781   4.173   5.236
  237SOL     OW 2607   3.659   7.987   8.942
  237SOL    HW1 2608   3.568   7.998   8.969
  237SOL    HW2 2609   3.669   8.044   8.866
  238SOL     OW 2610   0.926   4.181  11.163
  238SOL    HW1 2611   0.951   4.205  11.252
  238SOL    HW2 2612   0.833   4.201  11.157
  239SOL     OW 2613   3.101  14.542  13.413
  239SOL    HW1 2614   3.180  14.596  13.403
  239SOL    HW2 2615   3.054  14.554  13.331
  240SOL     OW 2616   8.614   3.528   9.098
  240SOL    HW1 2617   8.533   3.544   9.050
  240SOL    HW2 2618   8.682   3.525   9.031
  241SOL     OW 2619   1.625   5.199  10.930
  241SOL    HW1 2620   1.622   5.286  10.890
  241SOL    HW2 2621   1.675   5.146  10.868
  242SOL     OW 2622   9.331   9.782   8.022
  242SOL    HW1 2623   9.328   9.746   8.110
  242SOL    HW2 2624   9.422   9.776   7.996
  243SOL     OW 2625  11.237  10.038   7.335
  243SOL    HW1 2626  11.246   9.947   7.362
  243SOL    HW2 2627  11.301  10.049   7.266
  244SOL     OW 2628   1.491   4.459  12.105
  244SOL    HW1 2629   1.566   4.400  12.117
  244SOL    HW2 2630   1.416   4.401  12.094
  245SOL     OW 2631   1.612  13.338  13.171
  245SOL    HW1 2632   1.670  13.270  13.138
  245SOL    HW2 2633   1.555  13.360  13.098
  246SOL     OW 2634   9.089   0.164   6.483
  246SOL    HW1 2635   9.115   0.224   6.413
  246SOL    HW2 2636   9.109   0.212   6.563
  247SOL     OW 2637  12.028  14.780   4.726
  247SOL    HW1 2638  11.970  14.854   4.709
  247SOL    HW2 2639  11.984  14.730   4.794
  248SOL     OW 2640  12.997   9.839   8.737
  248SOL    HW1 2641  12.996   9.802   8.649
  248SOL    HW2 2642  13.087   9.865   8.752
  249SOL     OW 2643   2.573   2.157  14.321
  249SOL    HW1 2644   2.602   2.248  14.333
  249SOL    HW2 2645   2.516   2.140  14.396
  250SOL     OW 2646   3.376   7.440   5.596
  250SOL    HW1 2647   3.426   7.476   5.669
  250SOL    HW2 2648   3.423   7.469   5.518
  251SOL     OW 2649  13.420   6.615   3.782
  251SOL    HW1 2650  13.345   6.665   3.815
  251SOL    HW2 2651  13.428   6.643   3.690
  252SOL     OW 2652   5.873  11.432   5.350
  252SOL    HW1 2653   5.786  11.460   5.380
  252SOL    HW2 2654   5.889  11.351   5.398
  253SOL     OW 2655   5.599   8.038  14.118
  253SOL    HW1 2656   5.528   8.096  14.089
  253SOL    HW2 2657   5.590   8.037  14.214
  254SOL     OW 2658   9.028   6.363   6.460
  254SOL    HW1 2659   8.955   6.317   6.501
  254SOL    HW2 2660   8.989   6.404   6.383
  255SOL     OW 2661   6.172   0.389   1.524
  255SOL    HW1 2662   6.141   0.459   1.582
  255SOL    HW2 2663   6.153   0.421   1.436
  256SOL     OW 2664  10.694   4.926  13.699
  256SOL    HW1 2665  10.608   4.957  13.729
  256SOL    HW2 2666  10.729   4.876  13.772
  257SOL     OW 2667   8.799   7.103   8.917
  257SOL    HW1 2668   8.767   7.060   8.996
  257SOL    HW2 2669   8.887   7.132   8.938
  258SOL     OW 2670   0.364  11.351   0.779
  258SOL    HW1 2671   0.341  11.360   0.871
  258SOL    HW2 2672   0.411  11.268   0.774
  259SOL     OW 2673  10.355   5.823   5.109
  259SOL    HW1 2674  10.337   5.904   5.156
  259SOL    HW2 2675  10.273   5.774   5.113
  260SOL     OW 2676   9.524  14.624  13.263
  260SOL    HW1 2677   9.619  14.635  13.261
  260SOL    HW2 2678   9.495  14.644  13.174
  261SOL     OW 2679   9.360   1.992   3.610
  261SOL    HW1 2680   9.299   2.032   3.549
  261SOL    HW2 2681   9.330   2.020   3.696
  262SOL     OW 2682   6.951   9.039  13.943
  262SOL    HW1 2683   7.038   9.003  13.957
  262SOL    HW2 2684   6.910   9.035  14.030
  263SOL     OW 2685   2.293  13.839  13.349
  263SOL    HW1 2686   2.380  13.810  13.322
  263SOL    HW2 2687   2.254  13.762  13.390
  264SOL     OW 2688   5.646  12.776   9.396
  264SOL    HW1 2689   5.633  12.866   9.426
  264SOL    HW2 2690   5.639  12.781   9.300
  265SOL     OW 2691   6.162   2.683  14.735
  265SOL    HW1 2692   6.069   2.698  14.719
  265SOL    HW2 2693   6.192   2.765  14.775
  266SOL     OW 2694  11.051   4.089   8.568
  266SOL    HW1 2695  11.137   4.114   8.603
  266SOL    HW2 2696  10.992   4.158   8.599
  267SOL     OW 2697   2.530   3.383  11.707
  267SOL    HW1 2698   2.611   3.332  11.695
  267SOL    HW2 2699   2.463   3.331  11.664
  268SOL     OW 2700  13.862   8.777  12.673
  268SOL    HW1 2701  13.935   8.719  12.650
  268SOL    HW2 2702  13.806   8.724  12.730
  269SOL     OW 2703  12.998  13.130   1.449
  269SOL    HW1 2704  12.934  13.071   1.409
  269SOL    HW2 2705  12.948  13.180   1.513
  270SOL     OW 2706   3.046  12.553  11.750
  270SOL    HW1 2707   3.044  12.461  11.724
  270SOL    HW2 2708   2.968  12.591  11.711
  271SOL     OW 2709   8.947  11.332  11.320
  271SOL    HW1 2710   8.895  11.312  11.399
  271SOL    HW2 2711   8.881  11.344  11.251
  272SOL     OW 2712  13.348  11.031   8.500
  272SOL    HW1 2713  13.334  10.998   8.412
  272SOL    HW2 2714  13.429  11.082   8.494
  273SOL     OW 2715   5.225   8.077  14.673
  273SOL    HW1 2716   5.314   8.108  14.686
  273SOL    HW2 2717   5.219   7.997  14.725
  274SOL     OW 2718  12.180   9.508  10.656
  274SOL    HW1 2719  12.170   9.514  10.561
  274SOL    HW2 2720  12.175   9.598  10.687
  275SOL     OW 2721   8.271   3.538  12.576
  275SOL    HW1 2722   8.264   3.585  12.493
  275SOL    HW2 2723   8.319   3.458  12.554
  276SOL     OW 2724   4.432  14.832   8.665
  276SOL    HW1 2725   4.368  14.771   8.704
  276SOL    HW2 2726   4.438  14.805   8.574
  277SOL     OW 2727  10.081   1.106  12.495
  277SOL    HW1 2728  10.155   1.164  12.479
  277SOL    HW2 2729  10.046   1.087  12.408
  278SOL     OW 2730  13.628  11.356   4.360
  278SOL    HW1 2731  13.721  11.335   4.373
  278SOL    HW2 2732  13.589  11.274   4.331
  279SOL     OW 2733   6.219  13.552   7.879
  279SOL    HW1 2734   6.233  13.470   7.831
  279SOL    HW2 2735   6.307  13.587   7.893
  280SOL     OW 2736   9.056  13.865  11.287
  280SOL    HW1 2737   9.122  13.874  11.356
  280SOL    HW2 2738   9.075  13.781  11.246
  281SOL     OW 2739  14.298   9.839  13.656
  281SOL    HW1 2740  14.312   9.932  13.673
  281SOL    HW2 2741  14.289   9.799  13.742
  282SOL     OW 2742  10.855   9.975  14.403
  282SOL    HW1 2743  10.928  10.016  14.356
  282SOL    HW2 2744  10.897   9.924  14.472
  283SOL     OW 2745   2.981   6.259   2.812
  283SOL    HW1 2746   3.066   6.293   2.842
  283SOL    HW2 2747   2.924   6.265   2.889
  284SOL     OW 2748  13.885   0.675   3.458
  284SOL    HW1 2749  13.963   0.637   3.417
  284SOL    HW2 2750  13.903   0.670   3.552
  285SOL     OW 2751   5.382   1.557   0.634
  285SOL    HW1 2752   5.387   1.632   0.693
  285SOL    HW2 2753   5.346   1.486   0.687
  286SOL     OW 2754  10.847   0.704   2.704
  286SOL    HW1 2755  10.814   0.764   2.637
  286SOL    HW2 2756  10.842   0.754   2.785
  287SOL     OW 2757  10.800   9.090  10.674
  287SOL    HW1 2758  10.794   9.122  10.584
  287SOL    HW2 2759  10.893   9.101  10.697
  288SOL     OW 2760   8.811   9.224   3.307
  288SOL    HW1 2761   8.743   9.237   3.374
  288SOL    HW2 2762   8.890   9.205   3.357
  289SOL     OW 2763  11.226  14.027   1.307
  289SOL    HW1 2764  11.195  14.027   1.216
  289SOL    HW2 2765  11.223  13.935   1.333
  290SOL     OW 2766  13.376  10.136   1.418
  290SOL    HW1 2767  13.338  10.223   1.411
  290SOL    HW2 2768  13.359  10.095   1.334
  291SOL     OW 2769   7.402  14.763   9.476
  291SOL    HW1 2770   7.442  14.778   9.561
  291SOL    HW2 2771   7.450  14.822   9.417
  292SOL     OW 2772  13.420  10.022  10.235
  292SOL    HW1 2773  13.410   9.976  10.318
  292SOL    HW2 2774  13.513  10.015  10.215
  293SOL     OW 2775   1.349   4.877   7.886
  293SOL    HW1 2776   1.409   4.951   7.877
  293SOL    HW2 2777   1.358   4.850   7.978
  294SOL     OW 2778  10.032   2.101  13.799
  294SOL    HW1 2779  10.022   2.185  13.845
  294SOL    HW2 2780  10.106   2.115  13.741
  295SOL     OW 2781   2.871   2.776   0.859
  295SOL    HW1 2782   2.884   2.869   0.876
  295SOL    HW2 2783   2.792   2.753   0.907
  296SOL     OW 2784   9.944  12.387   0.503
  296SOL    HW1 2785   9.967  12.328   0.431
  296SOL    HW2 2786   9.870  12.438   0.470
  297SOL     OW 2787   7.043  13.938   4.771
  297SOL    HW1 2788   7.106  13.973   4.709
  297SOL    HW2 2789   7.088  13.865   4.813
  298SOL     OW 2790   5.138   3.795   6.929
  298SOL    HW1 2791   5.172   3.770   6.843
  298SOL    HW2 2792   5.080   3.869   6.911
  299SOL     OW 2793   2.800   0.993   2.471
  299SOL    HW1 2794   2.808   0.933   2.397
  299SOL    HW2 2795   2.789   1.079   2.431
  300SOL     OW 2796   4.593   3.017   4.652
  300SOL    HW1 2797   4.683   3.026   4.682
  300SOL    HW2 2798   4.575   2.923   4.660
  301SOL     OW 2799  12.526   4.955   8.218
  301SOL    HW1 2800  12.609   5.002   8.218
  301SOL    HW2 2801  12.501   4.951   8.310
  302SOL     OW 2802   2.634   6.075   2.981
  302SOL    HW1 2803   2.701   6.126   3.028
  302SOL    HW2 2804   2.677   6.050   2.899
  303SOL     OW 2805   0.364  13.646   5.667
  303SOL    HW1 2806   0.305  13.583   5.625
  303SOL    HW2 2807   0.342  13.730   5.627
  304SOL     OW 2808   6.458   0.837   7.293
  304SOL    HW1 2809   6.486   0.860   7.382
  304SOL    HW2 2810   6.540   0.830   7.244
  305SOL     OW 2811   1.448   9.158   3.914
  305SOL    HW1 2812   1.374   9.202   3.871
  305SOL    HW2 2813   1.407   9.089   3.967
  306SOL     OW 2814   3.370   0.060   5.709
  306SOL    HW1 2815   3.430   0.072   5.783
  306SOL    HW2 2816   3.307  14.873   5.740
  307SOL     OW 2817  10.241   1.170  11.655
  307SOL    HW1 2818  10.298   1.171  11.579
  307SOL    HW2 2819  10.183   1.245  11.643
  308SOL     OW 2820  14.310  10.564   9.616
  308SOL    HW1 2821  14.364  10.491   9.646
  308SOL    HW2 2822  14.263  10.529   9.540
  309SOL     OW 2823  12.295   0.673   5.409
  309SOL    HW1 2824  12.218   0.639   5.454
  309SOL    HW2 2825  12.368   0.655   5.468
  310SOL     OW 2826   5.489  10.211  10.030
  310SOL    HW1 2827   5.447  10.185  10.112
  310SOL    HW2 2828   5.552  10.279  10.055
  311SOL     OW 2829   6.896  12.802   4.743
  311SOL    HW1 2830   6.900  12.717   4.787
  311SOL    HW2 2831   6.803  12.823   4.738
  312SOL     OW 2832  13.085   5.009   5.467
  312SOL    HW1 2833  13.139   4.948   5.518
  312SOL    HW2 2834  13.027   4.953   5.417
  313SOL     OW 2835  11.550  11.757   1.967
  313SOL    HW1 2836  11.583  11.667   1.973
  313SOL    HW2 2837  11.627  11.810   1.948
  314SOL     OW 2838   6.183  13.735   9.393
  314SOL    HW1 2839   6.277  13.731   9.413
  314SOL    HW2 2840   6.178  13.714   9.300
  315SOL     OW 2841   5.227   6.905  10.419
  315SOL    HW1 2842   5.223   6.908  10.514
  315SOL    HW2 2843   5.243   6.813  10.398
  316SOL     OW 2844   4.037   5.251   3.206
  316SOL    HW1 2845   4.090   5.258   3.126
  316SOL    HW2 2846   4.096   5.276   3.277
  317SOL     OW 2847  12.751   9.278   2.948
  317SOL    HW1 2848  12.709   9.334   2.883
  317SOL    HW2 2849  12.843   9.304   2.947
  318SOL     OW 2850  12.650   3.309   7.917
  318SOL    HW1 2851  12.556   3.325   7.909
  318SOL    HW2 2852  12.689   3.378   7.863
  319SOL     OW 2853   6.561  14.112   1.095
  319SOL    HW1 2854   6.530  14.123   1.005
  319SOL    HW2 2855   6.656  14.123   1.089
  320SOL     OW 2856   6.994   7.963   4.102
  320SOL    HW1 2857   6.970   8.049   4.067
  320SOL    HW2 2858   7.089   7.967   4.113
  321SOL     OW 2859  13.488   9.258   9.004
  321SOL    HW1 2860  13.427   9.324   8.969
  321SOL    HW2 2861  13.434   9.180   9.015
  322SOL     OW 2862   2.736   1.726   1.865
  322SOL    HW1 2863   2.751   1.641   1.906
  322SOL    HW2 2864   2.701   1.705   1.778
  323SOL     OW 2865   3.748  12.939  14.124
  323SOL    HW1 2866   3.703  12.928  14.207
  323SOL    HW2 2867   3.839  12.913  14.142
  324SOL     OW 2868   9.263   0.662   5.257
  324SOL    HW1 2869   9.290   0.628   5.343
  324SOL    HW2 2870   9.169   0.643   5.252
  325SOL     OW 2871   9.860   7.666  12.327
  325SOL    HW1 2872   9.853   7.738  12.389
  325SOL    HW2 2873   9.799   7.600  12.360
  326SOL     OW 2874   2.650  13.486   2.305
  326SOL    HW1 2875   2.572  13.510   2.355
  326SOL    HW2 2876   2.629  13.401   2.267
  327SOL     OW 2877  10.264   3.322   8.751
  327SOL    HW1 2878  10.311   3.271   8.817
  327SOL    HW2 2879  10.187   3.269   8.731
  328SOL     OW 2880  14.859   8.433  12.220
  328SOL    HW1 2881   0.022   8.396  12.142
  328SOL    HW2 2882  14.782   8.480  12.187
  329SOL     OW 2883  14.249  12.559   7.190
  329SOL    HW1 2884  14.237  12.561   7.285
  329SOL    HW2 2885  14.343  12.564   7.177
  330SOL     OW 2886   4.039   5.426  14.301
  330SOL    HW1 2887   4.009   5.391  14.217
  330SOL    HW2 2888   4.090   5.504  14.278
  331SOL     OW 2889   9.610   9.396  11.241
  331SOL    HW1 2890   9.565   9.476  11.266
  331SOL    HW2 2891   9.664   9.421  11.165
  332SOL     OW 2892   8.849   5.238   2.898
  332SOL    HW1 2893   8.845   5.164   2.958
  332SOL    HW2 2894   8.931   5.283   2.920
  333SOL     OW 2895   7.980   2.039   2.001
  333SOL    HW1 2896   8.013   2.128   1.989
  333SOL    HW2 2897   8.024   2.007   2.080
  334SOL     OW 2898  14.644  13.375   9.410
  334SOL    HW1 2899  14.696  13.402   9.335
  334SOL    HW2 2900  14.592  13.301   9.378
  335SOL     OW 2901   7.888  14.488   4.948
  335SOL    HW1 2902   7.803  14.522   4.921
  335SOL    HW2 2903   7.892  14.400   4.910
  336SOL     OW 2904   2.197   9.193   1.628
  336SOL    HW1 2905   2.272   9.134   1.621
  336SOL    HW2 2906   2.153   9.167   1.709
  337SOL     OW 2907   0.980   2.981   1.879
  337SOL    HW1 2908   1.063   3.016   1.913
  337SOL    HW2 2909   0.986   2.996   1.784
  338SOL     OW 2910   6.972   1.545  10.705
  338SOL    HW1 2911   6.929   1.495  10.635
  338SOL    HW2 2912   6.941   1.504  10.786
  339SOL     OW 2913   0.591  10.072  10.016
  339SOL    HW1 2914   0.651   9.997  10.018
  339SOL    HW2 2915   0.504  10.032  10.020
  340SOL     OW 2916   4.369  11.547   1.972
  340SOL    HW1 2917   4.416  11.603   2.034
  340SOL    HW2 2918   4.430  11.476   1.952
  341SOL     OW 2919  12.038   7.843  13.708
  341SOL    HW1 2920  12.008   7.825  13.619
  341SOL    HW2 2921  12.109   7.907  13.696
  342SOL     OW 2922   9.925   8.350   2.959
  342SOL    HW1 2923   9.901   8.305   3.040
  342SOL    HW2 2924  10.006   8.396   2.979
  343SOL     OW 2925  10.943   5.368   2.754
  343SOL    HW1 2926  11.005   5.297   2.735
  343SOL    HW2 2927  10.975   5.406   2.836
  344SOL     OW 2928  14.315   9.666   9.693
  344SOL    HW1 2929  14.248   9.612   9.652
  344SOL    HW2 2930  14.291   9.756   9.671
  345SOL     OW 2931  13.983  11.589   0.663
  345SOL    HW1 2932  14.078  11.574   0.660
  345SOL    HW2 2933  13.975  11.685   0.664
  346SOL     OW 2934   3.074  14.854  13.011
  346SOL    HW1 2935   3.143  14.800  12.972
  346SOL    HW2 2936   3.111   0.005  13.095
  347SOL     OW 2937   1.531   0.714   2.996
  347SOL    HW1 2938   1.624   0.721   2.973
  347SOL    HW2 2939   1.501   0.804   3.003
  348SOL     OW 2940  13.357   7.068   7.859
  348SOL    HW1 2941  13.444   7.073   7.819
  348SOL    HW2 2942  13.375   7.054   7.952
  349SOL     OW 2943   9.807   8.974   6.023
  349SOL    HW1 2944   9.713   8.994   6.014
  349SOL    HW2 2945   9.809   8.883   6.051
  350SOL     OW 2946  13.107   8.199   9.925
  350SOL    HW1 2947  13.177   8.212   9.988
  350SOL    HW2 2948  13.123   8.112   9.888
  351SOL     OW 2949  13.047   1.671   1.507
  351SOL    HW1 2950  13.137   1.666   1.474
  351SOL    HW2 2951  13.007   1.744   1.459
  352SOL     OW 2952   7.380   6.202  11.590
  352SOL    HW1 2953   7.448   6.225  11.653
  352SOL    HW2 2954   7.308   6.262  11.609
  353SOL     OW 2955  10.485  11.011   7.720
  353SOL    HW1 2956  10.561  10.989   7.773
  353SOL    HW2 2957  10.484  10.943   7.651
  354SOL     OW 2958   8.822  12.974   4.294
  354SOL    HW1 2959   8.813  12.891   4.246
  354SOL    HW2 2960   8.836  12.947   4.385
  355SOL     OW 2961   4.090  10.039   2.443
  355SOL    HW1 2962   4.025  10.105   2.466
  355SOL    HW2 2963   4.112   9.997   2.527
  356SOL     OW 2964   7.650   8.641   6.096
  356SOL    HW1 2965   7.600   8.564   6.067
  356SOL    HW2 2966   7.614   8.662   6.182
  357SOL     OW 2967   5.729  11.271   4.695
  357SOL    HW1 2968   5.664  11.341   4.685
  357SOL    HW2 2969   5.717  11.239   4.784
  358SOL     OW 2970   4.907   7.260   7.576
  358SOL    HW1 2971   4.916   7.352   7.551
  358SOL    HW2 2972   4.991   7.239   7.617
  359SOL     OW 2973   6.286   1.147   2.044
  359SOL    HW1 2974   6.340   1.220   2.075
  359SOL    HW2 2975   6.316   1.072   2.094
  360SOL     OW 2976   6.494   9.625   0.977
  360SOL    HW1 2977   6.556   9.617   1.050
  360SOL    HW2 2978   6.518   9.553   0.918
  361SOL     OW 2979  10.889   4.495   7.710
  361SOL    HW1 2980  10.909   4.411   7.750
  361SOL    HW2 2981  10.961   4.552   7.736
  362SOL     OW 2982   4.793   1.284   6.667
  362SOL    HW1 2983   4.709   1.309   6.706
  362SOL    HW2 2984   4.783   1.191   6.648
  363SOL     OW 2985   8.223   7.222   6.380
  363SOL    HW1 2986   8.157   7.267   6.433
  363SOL    HW2 2987   8.173   7.177   6.312
  364SOL     OW 2988   3.756   6.452   9.889
  364SOL    HW1 2989   3.849   6.435   9.908
  364SOL    HW2 2990   3.709   6.413   9.963
  365SOL     OW 2991  12.373   6.206   5.370
  365SOL    HW1 2992  12.321   6.224   5.291
  365SOL    HW2 2993  12.358   6.282   5.426
  366SOL     OW 2994   2.096   2.376  11.597
  366SOL    HW1 2995   2.182   2.373  11.640
  366SOL    HW2 2996   2.098   2.457  11.546
  367SOL     OW 2997   1.766   1.851   0.873
  367SOL    HW1 2998   1.747   1.876   0.964
  367SOL    HW2 2999   1.704   1.901   0.821
  368SOL     OW 3000  11.698   0.347   0.249
  368SOL    HW1 3001  11.780   0.352   0.201
  368SOL    HW2 3002  11.716   0.392   0.332
  369SOL     OW 3003   2.567   0.950   0.651
  369SOL    HW1 3004   2.496   0.886   0.654
  369SOL    HW2 3005   2.550   1.001   0.571
  370SOL     OW 3006   3.017   5.882  12.788
  370SOL    HW1 3007   3.051   5.963  12.827
  370SOL    HW2 3008   3.067   5.874  12.706
  371SOL     OW 3009  11.566  10.750   4.676
  371SOL    HW1 3010  11.562  10.840   4.643
  371SOL    HW2 3011  11.601  10.758   4.765
  372SOL     OW 3012   4.083   2.959   4.023
  372SOL    HW1 3013   4.005   3.010   4.046
  372SOL    HW2 3014   4.047   2.879   3.985
  373SOL     OW 3015   0.728  13.849  14.138
  373SOL    HW1 3016   0.694  13.799  14.064
  373SOL    HW2 3017   0.651  13.865  14.193
  374SOL     OW 3018   9.872   5.507  10.708
  374SOL    HW1 3019   9.940   5.558  10.664
  374SOL    HW2 3020   9.915   5.476  10.788
  375SOL     OW 3021   1.924   3.956  13.553
  375SOL    HW1 3022   1.926   4.050  13.538
  375SOL    HW2 3023   1.989   3.941  13.622
  376SOL     OW 3024   6.880   2.711   2.560
  376SOL    HW1 3025   6.788   2.684   2.566
  376SOL    HW2 3026   6.929   2.629   2.557
  377SOL     OW 3027   4.052   9.741   1.466
  377SOL    HW1 3028   4.054   9.823   1.417
  377SOL    HW2 3029   4.016   9.677   1.404
  378SOL     OW 3030  13.424  10.813   7.871
  378SOL    HW1 3031  13.407  10.724   7.839
  378SOL    HW2 3032  13.352  10.831   7.931
  379SOL     OW 3033  14.178   1.735  10.640
  379SOL    HW1 3034  14.187   1.804  10.705
  379SOL    HW2 3035  14.191   1.654  10.689
  380SOL     OW 3036   4.662   9.508   9.903
  380SOL    HW1 3037   4.692   9.512   9.812
  380SOL    HW2 3038   4.742   9.521   9.954
  381SOL     OW 3039  10.337   7.127   6.945
  381SOL    HW1 3040  10.283   7.051   6.969
  381SOL    HW2 3041  10.325   7.189   7.017
  382SOL     OW 3042   6.640  13.122  12.098
  382SOL    HW1 3043   6.662  13.030  12.080
  382SOL    HW2 3044   6.661  13.134  12.191
  383SOL     OW 3045   2.232  12.986   8.618
  383SOL    HW1 3046   2.175  13.054   8.654
  383SOL    HW2 3047   2.237  13.005   8.525
  384SOL     OW 3048  13.376   1.202   9.553
  384SOL    HW1 3049  13.444   1.145   9.589
  384SOL    HW2 3050  13.402   1.214   9.462
  385SOL     OW 3051   4.933   2.595   4.636
  385SOL    HW1 3052   4.919   2.688   4.653
  385SOL    HW2 3053   5.016   2.591   4.589
  386SOL     OW 3054   1.027   5.799   3.608
  386SOL    HW1 3055   1.114   5.812   3.571
  386SOL    HW2 3056   1.010   5.879   3.658
  387SOL     OW 3057   6.991  10.910   5.417
  387SOL    HW1 3058   6.978  10.826   5.462
  387SOL    HW2 3059   7.032  10.886   5.333
  388SOL     OW 3060   9.200   4.914   2.974
  388SOL    HW1 3061   9.218   4.856   3.048
  388SOL    HW2 3062   9.167   4.856   2.905
  389SOL     OW 3063   6.319  14.648   4.830
  389SOL    HW1 3064   6.234  14.674   4.795
  389SOL    HW2 3065   6.298  14.603   4.912
  390SOL     OW 3066  14.850   5.893  11.119
  390SOL    HW1 3067   0.047   5.840  11.091
  390SOL    HW2 3068  14.840   5.875  11.212
  391SOL     OW 3069   1.849   1.046   9.013
  391SOL    HW1 3070   1.940   1.032   9.041
  391SOL    HW2 3071   1.857   1.092   8.930
  392SOL     OW 3072   8.364   9.647  12.791
  392SOL    HW1 3073   8.342   9.675  12.702
  392SOL    HW2 3074   8.279   9.636  12.834
  393SOL     OW 3075   9.955  13.959  13.324
  393SOL    HW1 3076  10.034  13.909  13.345
  393SOL    HW2 3077   9.883  13.899  13.344
  394SOL     OW 3078   1.072  13.629   4.739
  394SOL    HW1 3079   1.095  13.541   4.709
  394SOL    HW2 3080   1.141  13.685   4.704
  395SOL     OW 3081   7.095   5.018  10.426
  395SOL    HW1 3082   7.058   5.079  10.490
  395SOL    HW2 3083   7.073   4.932  10.460
  396SOL     OW 3084   5.352  11.403  13.752
  396SOL    HW1 3085   5.325  11.311  13.753
  396SOL    HW2 3086   5.439  11.402  13.712
  397SOL     OW 3087   1.427   8.829  10.771
  397SOL    HW1 3088   1.395   8.822  10.681
  397SOL    HW2 3089   1.466   8.744  10.790
  398SOL     OW 3090  12.514   8.879   8.545
  398SOL    HW1 3091  12.573   8.942   8.588
  398SOL    HW2 3092  12.529   8.892   8.452
  399SOL     OW 3093   9.497   8.482   4.623
  399SOL    HW1 3094   9.517   8.388   4.628
  399SOL    HW2 3095   9.506   8.504   4.531
  400SOL     OW 3096   1.689   8.361   5.296
  400SOL    HW1 3097   1.605   8.351   5.251
  400SOL    HW2 3098   1.710   8.273   5.326
  401SOL     OW 3099   5.790  13.449   4.329
  401SOL    HW1 3100   5.793  13.413   4.240
  401SOL    HW2 3101   5.869  13.502   4.337
  402SOL     OW 3102  10.402  12.655   7.911
  402SOL    HW1 3103  10.373  12.699   7.991
  402SOL    HW2 3104  10.449  12.577   7.942
  403SOL     OW 3105  11.050   7.648   7.110
  403SOL    HW1 3106  11.120   7.683   7.164
  403SOL    HW2 3107  10.978   7.710   7.121
  404SOL     OW 3108   6.648   1.201   9.591
  404SOL    HW1 3109   6.644   1.224   9.684
  404SOL    HW2 3110   6.723   1.141   9.585
  405SOL     OW 3111   4.385   0.558   4.216
  405SOL    HW1 3112   4.337   0.488   4.260
  405SOL    HW2 3113   4.366   0.546   4.123
  406SOL     OW 3114  10.414  14.294   6.981
  406SOL    HW1 3115  10.429  14.368   7.040
  406SOL    HW2 3116  10.323  14.303   6.954
  407SOL     OW 3117  12.300   8.733   4.647
  407SOL    HW1 3118  12.287   8.824   4.622
  407SOL    HW2 3119  12.303   8.685   4.564
  408SOL     OW 3120   6.575   3.717  11.099
  408SOL    HW1 3121   6.663   3.753  11.091
  408SOL    HW2 3122   6.557   3.677  11.014
  409SOL     OW 3123   8.099  11.947   8.161
  409SOL    HW1 3124   8.108  11.944   8.256
  409SOL    HW2 3125   8.142  11.867   8.131
  410SOL     OW 3126   3.318  11.182   6.199
  410SOL    HW1 3127   3.345  11.261   6.151
  410SOL    HW2 3128   3.352  11.109   6.148
  411SOL     OW 3129  13.658   7.976   5.753
  411SOL    HW1 3130  13.569   7.949   5.774
  411SOL    HW2 3131  13.649   8.067   5.723
  412SOL     OW 3132  11.582  10.297   6.927
  412SOL    HW1 3133  11.551  10.313   7.016
  412SOL    HW2 3134  11.677  10.287   6.935
  413SOL     OW 3135  14.733  10.350   2.840
  413SOL    HW1 3136  14.790  10.364   2.765
  413SOL    HW2 3137  14.792  10.338   2.914
  414SOL     OW 3138   0.145   4.525   1.205
  414SOL    HW1 3139   0.090   4.499   1.279
  414SOL    HW2 3140   0.108   4.479   1.130
  415SOL     OW 3141   7.836  14.442   3.803
  415SOL    HW1 3142   7.848  14.363   3.857
  415SOL    HW2 3143   7.843  14.410   3.713
  416SOL     OW 3144   6.161   4.453  12.557
  416SOL    HW1 3145   6.226   4.483  12.494
  416SOL    HW2 3146   6.135   4.532  12.605
  417SOL     OW 3147   3.483   5.199  10.953
  417SOL    HW1 3148   3.503   5.155  10.870
  417SOL    HW2 3149   3.438   5.133  11.005
  418SOL     OW 3150   7.009  13.126  13.731
  418SOL    HW1 3151   6.971  13.044  13.765
  418SOL    HW2 3152   7.102  13.106  13.720
  419SOL     OW 3153   6.169  14.714   1.847
  419SOL    HW1 3154   6.236  14.778   1.822
  419SOL    HW2 3155   6.101  14.725   1.780
  420SOL     OW 3156   0.510   7.758   2.187
  420SOL    HW1 3157   0.475   7.725   2.270
  420SOL    HW2 3158   0.514   7.680   2.130
  421SOL     OW 3159   9.061   7.181  14.689
  421SOL    HW1 3160   8.987   7.122  14.674
  421SOL    HW2 3161   9.128   7.152  14.627
  422SOL     OW 3162   5.159  14.485  11.946
  422SOL    HW1 3163   5.114  14.410  11.986
  422SOL    HW2 3164   5.251  14.460  11.946
  423SOL     OW 3165   2.365   3.689   1.426
  423SOL    HW1 3166   2.393   3.615   1.372
  423SOL    HW2 3167   2.446   3.737   1.445
  424SOL     OW 3168   1.597   0.411   7.033
  424SOL    HW1 3169   1.656   0.340   7.012
  424SOL    HW2 3170   1.568   0.393   7.123
  425SOL     OW 3171   8.247   4.949   2.570
  425SOL    HW1 3172   8.161   4.991   2.572
  425SOL    HW2 3173   8.310   5.021   2.572
  426SOL     OW 3174  11.786   2.514   2.577
  426SOL    HW1 3175  11.787   2.499   2.672
  426SOL    HW2 3176  11.874   2.488   2.549
  427SOL     OW 3177  11.405   6.854   1.698
  427SOL    HW1 3178  11.467   6.810   1.756
  427SOL    HW2 3179  11.335   6.790   1.684
  428SOL     OW 3180   2.201   5.334  11.569
  428SOL    HW1 3181   2.286   5.324  11.612
  428SOL    HW2 3182   2.214   5.298  11.482
  429SOL     OW 3183  12.642  13.823   2.937
  429SOL    HW1 3184  12.570  13.772   2.900
  429SOL    HW2 3185  12.608  13.855   3.021
  430SOL     OW 3186   3.301   7.265   1.827
  430SOL    HW1 3187   3.297   7.354   1.791
  430SOL    HW2 3188   3.382   7.228   1.792
  431SOL     OW 3189   4.472  11.488   4.261
  431SOL    HW1 3190   4.531  11.562   4.245
  431SOL    HW2 3191   4.466  11.483   4.356
  432SOL     OW 3192  11.427  11.795   1.130
  432SOL    HW1 3193  11.461  11.736   1.197
  432SOL    HW2 3194  11.504  11.840   1.096
  433SOL     OW 3195   2.973  10.833   2.446
  433SOL    HW1 3196   2.918  10.882   2.386
  433SOL    HW2 3197   2.919  10.822   2.524
  434SOL     OW 3198   5.249  13.438   3.803
  434SOL    HW1 3199   5.233  13.528   3.834
  434SOL    HW2 3200   5.326  13.410   3.852
  435SOL     OW 3201   5.490   6.615   2.350
  435SOL    HW1 3202   5.551   6.542   2.339
  435SOL    HW2 3203   5.482   6.652   2.262
  436SOL     OW 3204  10.917   3.403   8.089
  436SOL    HW1 3205  10.854   3.444   8.149
  436SOL    HW2 3206  10.931   3.316   8.125
  437SOL     OW 3207   5.444   1.652   8.104
  437SOL    HW1 3208   5.488   1.605   8.175
  437SOL    HW2 3209   5.507   1.719   8.076
  438SOL     OW 3210  12.363   1.584   9.180
  438SOL    HW1 3211  12.451   1.584   9.218
  438SOL    HW2 3212  12.375   1.546   9.093
  439SOL     OW 3213  13.190   9.808   9.900
  439SOL    HW1 3214  13.117   9.836   9.956
  439SOL    HW2 3215  13.254   9.772   9.962
  440SOL     OW 3216   2.097  14.268   6.824
  440SOL    HW1 3217   2.099  14.348   6.771
  440SOL    HW2 3218   2.119  14.199   6.762
  441SOL     OW 3219   7.071   8.491  11.463
  441SOL    HW1 3220   7.094   8.553  11.532
  441SOL    HW2 3221   7.094   8.405  11.499
  442SOL     OW 3222  12.066   2.778  11.735
  442SOL    HW1 3223  12.059   2.706  11.672
  442SOL    HW2 3224  11.976   2.801  11.756
  443SOL     OW 3225  13.276  10.986  13.938
  443SOL    HW1 3226  13.276  10.893  13.962
  443SOL    HW2 3227  13.245  10.987  13.847
  444SOL     OW 3228   1.164   7.156   1.648
  444SOL    HW1 3229   1.143   7.120   1.562
  444SOL    HW2 3230   1.138   7.088   1.710
  445SOL     OW 3231   1.532   4.775   8.862
  445SOL    HW1 3232   1.566   4.770   8.773
  445SOL    HW2 3233   1.445   4.815   8.852
  446SOL     OW 3234  14.040  11.100   7.971
  446SOL    HW1 3235  14.081  11.024   7.930
  446SOL    HW2 3236  13.954  11.107   7.930
  447SOL     OW 3237   6.352  14.100   5.213
  447SOL    HW1 3238   6.382  14.172   5.158
  447SOL    HW2 3239   6.285  14.139   5.269
  448SOL     OW 3240   0.522   6.309   8.198
  448SOL    HW1 3241   0.498   6.310   8.291
  448SOL    HW2 3242   0.617   6.316   8.198
  449SOL     OW 3243   5.456   6.640   9.275
  449SOL    HW1 3244   5.445   6.570   9.211
  449SOL    HW2 3245   5.379   6.634   9.331
  450SOL     OW 3246   5.476   0.916   5.328
  450SOL    HW1 3247   5.449   0.873   5.409
  450SOL    HW2 3248   5.572   0.906   5.328
  451SOL     OW 3249  11.612   2.881  10.600
  451SOL    HW1 3250  11.635   2.877  10.507
  451SOL    HW2 3251  11.527   2.924  10.602
  452SOL     OW 3252  14.334   3.381   2.164
  452SOL    HW1 3253  14.298   3.401   2.078
  452SOL    HW2 3254  14.352   3.467   2.203
  453SOL     OW 3255  13.048  11.009  11.900
  453SOL    HW1 3256  13.127  11.055  11.931
  453SOL    HW2 3257  12.976  11.067  11.923
  454SOL     OW 3258  11.263   8.233   3.543
  454SOL    HW1 3259  11.330   8.165   3.549
  454SOL    HW2 3260  11.290   8.299   3.607
  455SOL     OW 3261   8.657   1.707   7.688
  455SOL    HW1 3262   8.610   1.732   7.609
  455SOL    HW2 3263   8.655   1.612   7.689
  456SOL     OW 3264   2.768   9.187   4.584
  456SOL    HW1 3265   2.791   9.274   4.551
  456SOL    HW2 3266   2.761   9.199   4.679
  457SOL     OW 3267   2.171  10.600  12.845
  457SOL    HW1 3268   2.110  10.565  12.780
  457SOL    HW2 3269   2.220  10.668  12.798
  458SOL     OW 3270   2.349   5.057   1.312
  458SOL    HW1 3271   2.269   5.011   1.335
  458SOL    HW2 3272   2.399   5.061   1.394
  459SOL     OW 3273   0.023   1.029   8.190
  459SOL    HW1 3274  14.855   1.002   8.270
  459SOL    HW2 3275   0.078   1.102   8.217
  460SOL     OW 3276   0.631   7.172   1.839
  460SOL    HW1 3277   0.596   7.258   1.818
  460SOL    HW2 3278   0.712   7.166   1.788
  461SOL     OW 3279   3.518   2.506   5.233
  461SOL    HW1 3280   3.580   2.467   5.295
  461SOL    HW2 3281   3.438   2.454   5.243
  462SOL     OW 3282   1.667   7.498   7.785
  462SOL    HW1 3283   1.643   7.490   7.692
  462SOL    HW2 3284   1.707   7.585   7.791
  463SOL     OW 3285   6.913   2.848   7.994
  463SOL    HW1 3286   6.958   2.894   8.065
  463SOL    HW2 3287   6.898   2.760   8.028
  464SOL     OW 3288   0.259   6.995   1.564
  464SOL    HW1 3289   0.342   6.990   1.611
  464SOL    HW2 3290   0.195   6.956   1.623
  465SOL     OW 3291  10.017  10.309   2.369
  465SOL    HW1 3292  10.043  10.223   2.338
  465SOL    HW2 3293   9.943  10.291   2.429
  466SOL     OW 3294  10.712  10.574  12.238
  466SOL    HW1 3295  10.671  10.492  12.265
  466SOL    HW2 3296  10.730  10.620  12.319
  467SOL     OW 3297  14.327  12.729   6.440
  467SOL    HW1 3298  14.326  12.756   6.348
  467SOL    HW2 3299  14.296  12.638   6.439
  468SOL     OW 3300   0.755  11.812   7.018
  468SOL    HW1 3301   0.673  11.857   7.038
  468SOL    HW2 3302   0.822  11.859   7.067
  469SOL     OW 3303   1.467   0.603   2.529
  469SOL    HW1 3304   1.562   0.591   2.529
  469SOL    HW2 3305   1.449   0.650   2.447
  470SOL     OW 3306   6.646   6.187   6.158
  470SOL    HW1 3307   6.575   6.242   6.125
  470SOL    HW2 3308   6.685   6.148   6.080
  471SOL     OW 3309   7.319   7.884   2.514
  471SOL    HW1 3310   7.249   7.892   2.450
  471SOL    HW2 3311   7.309   7.960   2.571
  472SOL     OW 3312   3.392  12.895  14.596
  472SOL    HW1 3313   3.423  12.826  14.655
  472SOL    HW2 3314   3.453  12.892  14.522
  473SOL     OW 3315  12.772  12.326   0.573
  473SOL    HW1 3316  12.807  12.262   0.634
  473SOL    HW2 3317  12.837  12.331   0.503
  474SOL     OW 3318   5.384   9.601   1.026
  474SOL    HW1 3319   5.294   9.624   1.049
  474SOL    HW2 3320   5.384   9.505   1.022
  475SOL     OW 3321   6.549   0.825   4.069
  475SOL    HW1 3322   6.503   0.863   3.994
  475SOL    HW2 3323   6.641   0.825   4.043
  476SOL     OW 3324   0.951   4.607   5.313
  476SOL    HW1 3325   0.941   4.609   5.218
  476SOL    HW2 3326   0.881   4.548   5.343
  477SOL     OW 3327  10.315  12.311  12.723
  477SOL    HW1 3328  10.286  12.276  12.639
  477SOL    HW2 3329  10.280  12.250  12.788
  478SOL     OW 3330  11.028   7.174   4.218
  478SOL    HW1 3331  11.049   7.084   4.243
  478SOL    HW2 3332  10.977   7.165   4.138
  479SOL     OW 3333  14.101  14.376   3.938
  479SOL    HW1 3334  14.032  14.311   3.946
  479SOL    HW2 3335  14.181  14.330   3.965
  480SOL     OW 3336   1.498  10.580   4.254
  480SOL    HW1 3337   1.591  10.563   4.267
  480SOL    HW2 3338   1.494  10.674   4.232
  481SOL     OW 3339   1.538   3.503  11.168
  481SOL    HW1 3340   1.563   3.501  11.260
  481SOL    HW2 3341   1.492   3.587  11.158
  482SOL     OW 3342   5.323   2.241   1.223
  482SOL    HW1 3343   5.303   2.319   1.171
  482SOL    HW2 3344   5.418   2.231   1.216
  483SOL     OW 3345   2.666   8.391   1.153
  483SOL    HW1 3346   2.611   8.372   1.230
  483SOL    HW2 3347   2.669   8.308   1.106
  484SOL     OW 3348   0.733   2.379   5.096
  484SOL    HW1 3349   0.822   2.399   5.124
  484SOL    HW2 3350   0.681   2.453   5.125
  485SOL     OW 3351   8.072   5.820   6.949
  485SOL    HW1 3352   8.031   5.849   6.867
  485SOL    HW2 3353   8.032   5.876   7.016
  486SOL     OW 3354   5.029   2.131  12.536
  486SOL    HW1 3355   4.961   2.186  12.575
  486SOL    HW2 3356   5.044   2.168  12.449
  487SOL     OW 3357  10.041   4.493  14.041
  487SOL    HW1 3358  10.032   4.449  13.957
  487SOL    HW2 3359  10.043   4.586  14.020
  488SOL     OW 3360  12.113   3.333  10.480
  488SOL    HW1 3361  12.120   3.407  10.419
  488SOL    HW2 3362  12.019   3.322  10.494
  489SOL     OW 3363   1.100  13.513  14.511
  489SOL    HW1 3364   1.095  13.526  14.416
  489SOL    HW2 3365   1.091  13.418  14.522
  490SOL     OW 3366   0.932  14.809   8.245
  490SOL    HW1 3367   0.977  14.839   8.324
  490SOL    HW2 3368   0.917   0.011   8.195
  491SOL     OW 3369   0.589   5.565   3.361
  491SOL    HW1 3370   0.633   5.644   3.329
  491SOL    HW2 3371   0.550   5.527   3.282
  492SOL     OW 3372  13.847   6.113   6.983
  492SOL    HW1 3373  13.770   6.165   7.007
  492SOL    HW2 3374  13.904   6.118   7.059
  493SOL     OW 3375   4.248   4.238  10.086
  493SOL    HW1 3376   4.313   4.293  10.130
  493SOL    HW2 3377   4.300   4.183  10.027
  494SOL     OW 3378   3.751   0.296   3.276
  494SOL    HW1 3379   3.725   0.278   3.367
  494SOL    HW2 3380   3.816   0.229   3.257
  495SOL     OW 3381  14.140   5.908  13.539
  495SOL    HW1 3382  14.084   5.876  13.468
  495SOL    HW2 3383  14.171   5.993  13.509
  496SOL     OW 3384   7.579   7.195   1.232
  496SOL    HW1 3385   7.548   7.192   1.142
  496SOL    HW2 3386   7.643   7.267   1.233
  497SOL     OW 3387  11.003  10.121   3.871
  497SOL    HW1 3388  10.938  10.179   3.912
  497SOL    HW2 3389  11.026  10.165   3.789
  498SOL     OW 3390   5.117   4.959   8.295
  498SOL    HW1 3391   5.186   5.021   8.320
  498SOL    HW2 3392   5.089   4.920   8.378
  499SOL     OW 3393   6.150   1.854   3.225
  499SOL    HW1 3394   6.070   1.907   3.225
  499SOL    HW2 3395   6.120   1.765   3.241
  500SOL     OW 3396   8.613   1.001   8.636
  500SOL    HW1 3397   8.668   0.943   8.584
  500SOL    HW2 3398   8.530   1.004   8.588
  501SOL     OW 3399   8.995  14.676   3.202
  501SOL    HW1 3400   9.063  14.730   3.161
  501SOL    HW2 3401   8.921  14.680   3.142
  502SOL     OW 3402   8.379   1.013   0.186
  502SOL    HW1 3403   8.302   1.065   0.207
  502SOL    HW2 3404   8.346   0.940   0.133
  503SOL     OW 3405  10.744  10.660   4.833
  503SOL    HW1 3406  10.659  10.631   4.799
  503SOL    HW2 3407  10.791  10.693   4.757
  504SOL     OW 3408  10.870  12.083  11.272
  504SOL    HW1 3409  10.900  12.034  11.196
  504SOL    HW2 3410  10.848  12.016  11.337
  505SOL     OW 3411  10.596   0.130  12.159
  505SOL    HW1 3412  10.591   0.170  12.072
  505SOL    HW2 3413  10.519   0.074  12.165
  506SOL     OW 3414  12.173   1.625   3.526
  506SOL    HW1 3415  12.203   1.572   3.452
  506SOL    HW2 3416  12.235   1.607   3.596
  507SOL     OW 3417   2.439   7.932   0.632
  507SOL    HW1 3418   2.455   8.025   0.649
  507SOL    HW2 3419   2.506   7.908   0.568
  508SOL     OW 3420  13.391   3.544   7.190
  508SOL    HW1 3421  13.478   3.552   7.229
  508SOL    HW2 3422  13.346   3.478   7.242
  509SOL     OW 3423   1.694   1.625   4.861
  509SOL    HW1 3424   1.689   1.551   4.800
  509SOL    HW2 3425   1.616   1.615   4.916
  510SOL     OW 3426  11.533  12.107  10.530
  510SOL    HW1 3427  11.572  12.027  10.566
  510SOL    HW2 3428  11.455  12.121  10.583
  511SOL     OW 3429   7.590   7.034  12.957
  511SOL    HW1 3430   7.600   7.034  13.052
  511SOL    HW2 3431   7.496   7.023  12.943
  512SOL     OW 3432   5.915  12.028   9.446
  512SOL    HW1 3433   5.835  12.060   9.405
  512SOL    HW2 3434   5.960  11.980   9.377
  513SOL     OW 3435  10.440   4.058   1.954
  513SOL    HW1 3436  10.346   4.051   1.971
  513SOL    HW2 3437  10.452   4.146   1.920
  514SOL     OW 3438   4.950  10.562   3.288
  514SOL    HW1 3439   4.882  10.612   3.243
  514SOL    HW2 3440   4.978  10.619   3.359
  515SOL     OW 3441  12.848  13.521   7.619
  515SOL    HW1 3442  12.824  13.614   7.621
  515SOL    HW2 3443  12.868  13.499   7.710
  516SOL     OW 3444  13.739  13.760   4.644
  516SOL    HW1 3445  13.782  13.840   4.615
  516SOL    HW2 3446  13.791  13.690   4.606
  517SOL     OW 3447   8.528   3.095   2.231
  517SOL    HW1 3448   8.553   3.186   2.244
  517SOL    HW2 3449   8.512   3.062   2.320
  518SOL     OW 3450   0.783   0.207   2.260
  518SOL    HW1 3451   0.856   0.164   2.215
  518SOL    HW2 3452   0.759   0.146   2.330
  519SOL     OW 3453  11.430   0.358  10.296
  519SOL    HW1 3454  11.429   0.278  10.243
  519SOL    HW2 3455  11.507   0.405  10.267
  520SOL     OW 3456  10.688  14.236   3.599
  520SOL    HW1 3457  10.604  14.280   3.585
  520SOL    HW2 3458  10.746  14.305   3.633
  521SOL     OW 3459  14.717   5.024  14.661
  521SOL    HW1 3460  14.721   5.014  14.756
  521SOL    HW2 3461  14.796   5.074  14.639
  522SOL     OW 3462  11.546   4.536   1.101
  522SOL    HW1 3463  11.630   4.494   1.121
  522SOL    HW2 3464  11.554   4.560   1.009
  523SOL     OW 3465   6.840  14.253  14.044
  523SOL    HW1 3466   6.848  14.173  13.992
  523SOL    HW2 3467   6.823  14.222  14.133
  524SOL     OW 3468   6.473   4.401   8.140
  524SOL    HW1 3469   6.474   4.448   8.223
  524SOL    HW2 3470   6.425   4.458   8.080
  525SOL     OW 3471  12.200   6.618  13.896
  525SOL    HW1 3472  12.133   6.601  13.830
  525SOL    HW2 3473  12.255   6.540  13.896
  526SOL     OW 3474   8.260  14.045   7.384
  526SOL    HW1 3475   8.316  13.973   7.356
  526SOL    HW2 3476   8.205  14.065   7.308
  527SOL     OW 3477   3.263   2.688  10.454
  527SOL    HW1 3478   3.171   2.669  10.437
  527SOL    HW2 3479   3.262   2.738  10.536
  528SOL     OW 3480   4.153   9.867   6.034
  528SOL    HW1 3481   4.117   9.894   6.119
  528SOL    HW2 3482   4.090   9.897   5.970
  529SOL     OW 3483  14.013   6.030  13.837
  529SOL    HW1 3484  13.929   5.986  13.850
  529SOL    HW2 3485  14.077   5.958  13.827
  530SOL     OW 3486   4.351  11.043   7.039
  530SOL    HW1 3487   4.336  11.008   7.127
  530SOL    HW2 3488   4.297  11.122   7.036
  531SOL     OW 3489   1.910  10.881   8.055
  531SOL    HW1 3490   1.998  10.854   8.078
  531SOL    HW2 3491   1.853  10.827   8.109
  532SOL     OW 3492  13.011  10.148   9.511
  532SOL    HW1 3493  13.010  10.231   9.558
  532SOL    HW2 3494  13.103  10.133   9.490
  533SOL     OW 3495  12.100  13.008   7.158
  533SOL    HW1 3496  12.009  13.035   7.141
  533SOL    HW2 3497  12.153  13.075   7.115
  534SOL     OW 3498   9.276  10.315   1.561
  534SOL    HW1 3499   9.289  10.244   1.625
  534SOL    HW2 3500   9.285  10.272   1.476
  535SOL     OW 3501   9.038   9.938   1.688
  535SOL    HW1 3502   9.020   9.970   1.777
  535SOL    HW2 3503   9.035   9.842   1.696
  536SOL     OW 3504   6.179   0.972  10.907
  536SOL    HW1 3505   6.092   0.996  10.941
  536SOL    HW2 3506   6.161   0.903  10.844
  537SOL     OW 3507  12.231   1.240   6.992
  537SOL    HW1 3508  12.224   1.321   6.942
  537SOL    HW2 3509  12.301   1.191   6.950
  538SOL     OW 3510  13.174   4.167   0.540
  538SOL    HW1 3511  13.193   4.162   0.446
  538SOL    HW2 3512  13.202   4.255   0.566
  539SOL     OW 3513   1.118   9.672   1.072
  539SOL    HW1 3514   1.210   9.694   1.088
  539SOL    HW2 3515   1.069   9.730   1.131
  540SOL     OW 3516   0.870   3.561   4.750
  540SOL    HW1 3517   0.895   3.625   4.817
  540SOL    HW2 3518   0.777   3.543   4.768
  541SOL     OW 3519   2.332   2.021   4.640
  541SOL    HW1 3520   2.274   2.011   4.564
  541SOL    HW2 3521   2.326   2.114   4.662
  542SOL     OW 3522  13.275   2.346   2.943
  542SOL    HW1 3523  13.352   2.371   2.892
  542SOL    HW2 3524  13.208   2.409   2.917
  543SOL     OW 3525   3.763   4.074   1.725
  543SOL    HW1 3526   3.700   4.027   1.671
  543SOL    HW2 3527   3.709   4.134   1.777
  544SOL     OW 3528  10.823   1.602   7.526
  544SOL    HW1 3529  10.912   1.570   7.544
  544SOL    HW2 3530  10.819   1.611   7.431
  545SOL     OW 3531  13.041   2.943   0.964
  545SOL    HW1 3532  12.954   2.914   0.991
  545SOL    HW2 3533  13.075   2.989   1.041
  546SOL     OW 3534   6.005   0.924   1.737
  546SOL    HW1 3535   6.098   0.905   1.752
  546SOL    HW2 3536   6.005   1.013   1.700
  547SOL     OW 3537   0.029   2.331   0.778
  547SOL    HW1 3538   0.104   2.284   0.814
  547SOL    HW2 3539   0.030   2.311   0.685
  548SOL     OW 3540  11.435   4.694   6.467
  548SOL    HW1 3541  11.506   4.753   6.443
  548SOL    HW2 3542  11.369   4.706   6.398
  549SOL     OW 3543  10.225   4.749   5.730
  549SOL    HW1 3544  10.168   4.818   5.764
  549SOL    HW2 3545  10.186   4.725   5.646
  550SOL     OW 3546  10.320   2.687   7.974
  550SOL    HW1 3547  10.311   2.647   7.888
  550SOL    HW2 3548  10.414   2.694   7.988
  551SOL     OW 3549  14.146   2.565   3.335
  551SOL    HW1 3550  14.106   2.478   3.336
  551SOL    HW2 3551  14.125   2.602   3.421
  552SOL     OW 3552   7.687   1.884   3.999
  552SOL    HW1 3553   7.736   1.863   4.079
  552SOL    HW2 3554   7.601   1.913   4.031
  553SOL     OW 3555   8.630   2.350   9.061
  553SOL    HW1 3556   8.586   2.293   9.124
  553SOL    HW2 3557   8.568   2.421   9.045
  554SOL     OW 3558   3.673   7.912   6.193
  554SOL    HW1 3559   3.680   7.853   6.118
  554SOL    HW2 3560   3.744   7.974   6.181
  555SOL     OW 3561   6.914   3.147  10.506
  555SOL    HW1 3562   6.995   3.123  10.461
  555SOL    HW2 3563   6.878   3.218  10.454
  556SOL     OW 3564   8.813   5.249  14.434
  556SOL    HW1 3565   8.820   5.341  14.410
  556SOL    HW2 3566   8.722   5.237  14.458
  557SOL     OW 3567   1.795   1.935   2.177
  557SOL    HW1 3568   1.710   1.906   2.145
  557SOL    HW2 3569   1.820   1.869   2.242
  558SOL     OW 3570  12.642   5.672   4.427
  558SOL    HW1 3571  12.672   5.682   4.517
  558SOL    HW2 3572  12.559   5.625   4.435
  559SOL     OW 3573   7.664   7.888   3.050
  559SOL    HW1 3574   7.701   7.861   3.135
  559SOL    HW2 3575   7.740   7.896   2.992
  560SOL     OW 3576   7.303   5.786   4.867
  560SOL    HW1 3577   7.377   5.733   4.899
  560SOL    HW2 3578   7.341   5.872   4.850
  561SOL     OW 3579   5.497   4.671   6.681
  561SOL    HW1 3580   5.533   4.595   6.635
  561SOL    HW2 3581   5.513   4.744   6.621
  562SOL     OW 3582   0.090   5.304  12.416
  562SOL    HW1 3583   0.160   5.317  12.352
  562SOL    HW2 3584   0.058   5.392  12.435
  563SOL     OW 3585   5.265   5.712   4.912
  563SOL    HW1 3586   5.225   5.647   4.970
  563SOL    HW2 3587   5.246   5.796   4.952
  564SOL     OW 3588  11.966  10.976   7.768
  564SOL    HW1 3589  11.947  10.884   7.787
  564SOL    HW2 3590  12.043  10.996   7.821
  565SOL     OW 3591   2.445   7.024   8.062
  565SOL    HW1 3592   2.437   7.117   8.040
  565SOL    HW2 3593   2.536   7.013   8.088
  566SOL     OW 3594  13.682   7.957   1.263
  566SOL    HW1 3595  13.626   7.961   1.186
  566SOL    HW2 3596  13.683   7.864   1.287
  567SOL     OW 3597   8.877   3.830   7.211
  567SOL    HW1 3598   8.831   3.906   7.246
  567SOL    HW2 3599   8.894   3.852   7.119
  568SOL     OW 3600   4.015  10.916   7.803
  568SOL    HW1 3601   4.008  10.852   7.733
  568SOL    HW2 3602   4.012  11.001   7.759
  569SOL     OW 3603   6.937  12.125  12.189
  569SOL    HW1 3604   6.848  12.156  12.205
  569SOL    HW2 3605   6.937  12.096  12.098
  570SOL     OW 3606   8.711   7.419  13.660
  570SOL    HW1 3607   8.664   7.478  13.719
  570SOL    HW2 3608   8.784   7.386  13.713
  571SOL     OW 3609   0.703   6.405  13.342
  571SOL    HW1 3610   0.679   6.435  13.430
  571SOL    HW2 3611   0.679   6.477  13.285
  572SOL     OW 3612   9.792  14.326   5.841
  572SOL    HW1 3613   9.772  14.405   5.891
  572SOL    HW2 3614   9.874  14.346   5.796
  573SOL     OW 3615   3.454   9.076   1.480
  573SOL    HW1 3616   3.502   9.093   1.399
  573SOL    HW2 3617   3.408   9.157   1.498
  574SOL     OW 3618   6.482   5.882  11.404
  574SOL    HW1 3619   6.440   5.903  11.320
  574SOL    HW2 3620   6.567   5.846  11.379
  575SOL     OW 3621   4.043   2.343   8.982
  575SOL    HW1 3622   4.013   2.260   9.020
  575SOL    HW2 3623   4.041   2.404   9.056
  576SOL     OW 3624   1.843   0.553   9.288
  576SOL    HW1 3625   1.926   0.522   9.251
  576SOL    HW2 3626   1.820   0.486   9.353
  577SOL     OW 3627   9.588  14.735   9.265
  577SOL    HW1 3628   9.592  14.651   9.311
  577SOL    HW2 3629   9.627  14.797   9.327
  578SOL     OW 3630   9.372   1.109   6.707
  578SOL    HW1 3631   9.386   1.073   6.620
  578SOL    HW2 3632   9.366   1.203   6.693
  579SOL     OW 3633   7.827  10.873  14.236
  579SOL    HW1 3634   7.790  10.877  14.148
  579SOL    HW2 3635   7.870  10.957  14.248
  580SOL     OW 3636  12.234   5.463   2.188
  580SOL    HW1 3637  12.216   5.371   2.164
  580SOL    HW2 3638  12.151   5.493   2.225
  581SOL     OW 3639   2.166  12.675  11.408
  581SOL    HW1 3640   2.197  12.745  11.465
  581SOL    HW2 3641   2.090  12.713  11.363
  582SOL     OW 3642   9.061   9.155   3.695
  582SOL    HW1 3643   9.008   9.212   3.752
  582SOL    HW2 3644   9.097   9.089   3.754
  583SOL     OW 3645   9.029   0.215   8.641
  583SOL    HW1 3646   9.072   0.192   8.723
  583SOL    HW2 3647   9.017   0.309   8.645
  584SOL     OW 3648   2.190   9.290   1.092
  584SOL    HW1 3649   2.267   9.233   1.099
  584SOL    HW2 3650   2.196   9.347   1.169
  585SOL     OW 3651   2.637  10.810  14.648
  585SOL    HW1 3652   2.564  10.856  14.688
  585SOL    HW2 3653   2.712  10.830  14.705
  586SOL     OW 3654   3.523   7.273   6.020
  586SOL    HW1 3655   3.586   7.282   6.091
  586SOL    HW2 3656   3.459   7.343   6.035
  587SOL     OW 3657   1.336   0.521   0.143
  587SOL    HW1 3658   1.347   0.595   0.083
  587SOL    HW2 3659   1.273   0.552   0.208
  588SOL     OW 3660   9.934   0.395   2.054
  588SOL    HW1 3661   9.900   0.483   2.067
  588SOL    HW2 3662   9.980   0.374   2.135
  589SOL     OW 3663   1.546   7.287   9.352
  589SOL    HW1 3664   1.532   7.209   9.298
  589SOL    HW2 3665   1.466   7.293   9.404
  590SOL     OW 3666   9.249  12.578   7.212
  590SOL    HW1 3667   9.233  12.576   7.117
  590SOL    HW2 3668   9.330  12.529   7.223
  591SOL     OW 3669   8.758  14.520  14.465
  591SOL    HW1 3670   8.727  14.469  14.390
  591SOL    HW2 3671   8.682  14.572  14.491
  592SOL     OW 3672  11.979   6.932   5.651
  592SOL    HW1 3673  11.894   6.941   5.609
  592SOL    HW2 3674  11.970   6.979   5.734
  593SOL     OW 3675  12.537   7.569   7.495
  593SOL    HW1 3676  12.487   7.559   7.577
  593SOL    HW2 3677  12.615   7.516   7.508
  594SOL     OW 3678   9.471  10.393   0.654
  594SOL    HW1 3679   9.465  10.335   0.729
  594SOL    HW2 3680   9.381  10.399   0.621
  595SOL     OW 3681  12.389  10.662   9.339
  595SOL    HW1 3682  12.397  10.572   9.307
  595SOL    HW2 3683  12.349  10.709   9.266
  596SOL     OW 3684  14.277   7.575   8.834
  596SOL    HW1 3685  14.304   7.533   8.753
  596SOL    HW2 3686  14.256   7.502   8.893
  597SOL     OW 3687   8.191  13.726   4.177
  597SOL    HW1 3688   8.287  13.726   4.177
  597SOL    HW2 3689   8.167  13.633   4.185
  598SOL     OW 3690  13.184   7.081   2.331
  598SOL    HW1 3691  13.186   7.126   2.246
  598SOL    HW2 3692  13.150   6.994   2.311
  599SOL     OW 3693  14.782  13.756  14.684
  599SOL    HW1 3694  14.742  13.692  14.625
  599SOL    HW2 3695  14.873  13.729  14.691
  600SOL     OW 3696   9.625   3.133   0.033
  600SOL    HW1 3697   9.670   3.070   0.090
  600SOL    HW2 3698   9.572   3.078  14.853
  601SOL     OW 3699   5.825  14.076   2.831
  601SOL    HW1 3700   5.736  14.049   2.853
  601SOL    HW2 3701   5.877  13.997   2.844
  602SOL     OW 3702   6.522   6.118  13.827
  602SOL    HW1 3703   6.505   6.173  13.904
  602SOL    HW2 3704   6.515   6.028  13.861
  603SOL     OW 3705   1.279   5.495   9.633
  603SOL    HW1 3706   1.368   5.507   9.600
  603SOL    HW2 3707   1.292   5.471   9.725
  604SOL     OW 3708   4.012  11.313  10.620
  604SOL    HW1 3709   3.998  11.258  10.542
  604SOL    HW2 3710   3.931  11.363  10.628
  605SOL     OW 3711  12.318   8.291   4.060
  605SOL    HW1 3712  12.385   8.266   4.123
  605SOL    HW2 3713  12.344   8.249   3.979
  606SOL     OW 3714   9.709  12.663   3.892
  606SOL    HW1 3715   9.634  12.720   3.906
  606SOL    HW2 3716   9.781  12.723   3.872
  607SOL     OW 3717  12.893  13.950   1.841
  607SOL    HW1 3718  12.886  14.018   1.908
  607SOL    HW2 3719  12.985  13.922   1.846
  608SOL     OW 3720   9.471   6.387   6.803
  608SOL    HW1 3721   9.422   6.342   6.733
  608SOL    HW2 3722   9.563   6.373   6.780
  609SOL     OW 3723  13.853  11.248  14.345
  609SOL    HW1 3724  13.816  11.253  14.433
  609SOL    HW2 3725  13.923  11.314  14.344
  610SOL     OW 3726  13.258   9.261   4.594
  610SOL    HW1 3727  13.345   9.291   4.568
  610SOL    HW2 3728  13.205   9.341   4.596
  611SOL     OW 3729   6.457   6.090   3.400
  611SOL    HW1 3730   6.409   6.134   3.330
  611SOL    HW2 3731   6.542   6.070   3.362
  612SOL     OW 3732   4.621   9.704  14.080
  612SOL    HW1 3733   4.649   9.726  13.991
  612SOL    HW2 3734   4.626   9.608  14.083
  613SOL     OW 3735   8.915   6.950   0.797
  613SOL    HW1 3736   8.994   7.003   0.787
  613SOL    HW2 3737   8.947   6.861   0.814
  614SOL     OW 3738  12.830   6.627   0.506
  614SOL    HW1 3739  12.858   6.708   0.549
  614SOL    HW2 3740  12.737   6.620   0.528
  615SOL     OW 3741  12.818   0.661   4.865
  615SOL    HW1 3742  12.739   0.703   4.898
  615SOL    HW2 3743  12.788   0.607   4.792
  616SOL     OW 3744   7.684   5.874   1.973
  616SOL    HW1 3745   7.743   5.943   1.943
  616SOL    HW2 3746   7.697   5.802   1.912
  617SOL     OW 3747  14.589   7.316   5.448
  617SOL    HW1 3748  14.513   7.292   5.500
  617SOL    HW2 3749  14.633   7.233   5.430
  618SOL     OW 3750   4.711   8.711   8.067
  618SOL    HW1 3751   4.777   8.761   8.018
  618SOL    HW2 3752   4.758   8.677   8.143
  619SOL     OW 3753   2.035  12.787  11.057
  619SOL    HW1 3754   2.067  12.850  11.121
  619SOL    HW2 3755   2.029  12.837  10.975
  620SOL     OW 3756  10.512   6.316  12.622
  620SOL    HW1 3757  10.599   6.295  12.588
  620SOL    HW2 3758  10.463   6.233  12.615
  621SOL     OW 3759   1.526   1.729   7.637
  621SOL    HW1 3760   1.575   1.713   7.556
  621SOL    HW2 3761   1.591   1.763   7.698
  622SOL     OW 3762  13.354   6.774   0.636
  622SOL    HW1 3763  13.332   6.864   0.658
  622SOL    HW2 3764  13.383   6.736   0.720
  623SOL     OW 3765   0.717   3.382  11.040
  623SOL    HW1 3766   0.694   3.374  11.132
  623SOL    HW2 3767   0.639   3.419  10.998
  624SOL     OW 3768   9.605  13.293  14.421
  624SOL    HW1 3769   9.641  13.345  14.494
  624SOL    HW2 3770   9.663  13.217  14.416
  625SOL     OW 3771   7.488  10.630  11.591
  625SOL    HW1 3772   7.581  10.651  11.599
  625SOL    HW2 3773   7.466  10.655  11.501
  626SOL     OW 3774  12.158  10.690  11.544
  626SOL    HW1 3775  12.152  10.598  11.567
  626SOL    HW2 3776  12.240  10.696  11.494
  627SOL     OW 3777  13.350   7.655   8.936
  627SOL    HW1 3778  13.434   7.617   8.959
  627SOL    HW2 3779  13.298   7.650   9.017
  628SOL     OW 3780  14.621  11.287   4.890
  628SOL    HW1 3781  14.665  11.356   4.940
  628SOL    HW2 3782  14.546  11.331   4.849
  629SOL     OW 3783   1.464   4.766   2.583
  629SOL    HW1 3784   1.415   4.701   2.534
  629SOL    HW2 3785   1.508   4.819   2.516
  630SOL     OW 3786   7.038  12.817  12.007
  630SOL    HW1 3787   6.954  12.840  11.966
  630SOL    HW2 3788   7.102  12.874  11.964
  631SOL     OW 3789   2.129   1.952   6.625
  631SOL    HW1 3790   2.179   1.881   6.664
  631SOL    HW2 3791   2.188   1.991   6.562
  632SOL     OW 3792   2.389   7.329   6.729
  632SOL    HW1 3793   2.449   7.277   6.675
  632SOL    HW2 3794   2.304   7.287   6.718
  633SOL     OW 3795   4.882   3.894   1.967
  633SOL    HW1 3796   4.892   3.959   2.036
  633SOL    HW2 3797   4.962   3.900   1.915
  634SOL     OW 3798   2.630   1.431  12.191
  634SOL    HW1 3799   2.612   1.523  12.171
  634SOL    HW2 3800   2.641   1.389  12.106
  635SOL     OW 3801  10.439   6.040   0.364
  635SOL    HW1 3802  10.354   6.060   0.324
  635SOL    HW2 3803  10.498   6.107   0.331
  636SOL     OW 3804  13.096   0.776   9.409
  636SOL    HW1 3805  13.093   0.790   9.503
  636SOL    HW2 3806  13.108   0.863   9.372
  637SOL     OW 3807   8.552   4.292   6.787
  637SOL    HW1 3808   8.579   4.373   6.743
  637SOL    HW2 3809   8.473   4.316   6.835
  638SOL     OW 3810   5.018   9.276  12.157
  638SOL    HW1 3811   4.987   9.300  12.245
  638SOL    HW2 3812   4.984   9.188  12.142
  639SOL     OW 3813  13.256   2.853   1.567
  639SOL    HW1 3814  13.271   2.779   1.507
  639SOL    HW2 3815  13.279   2.930   1.516
  640SOL     OW 3816  10.507   4.224  13.455
  640SOL    HW1 3817  10.515   4.267  13.370
  640SOL    HW2 3818  10.594   4.232  13.494
  641SOL     OW 3819  13.566   6.388   9.102
  641SOL    HW1 3820  13.490   6.442   9.081
  641SOL    HW2 3821  13.529   6.301   9.119
  642SOL     OW 3822   8.327  13.434  13.750
  642SOL    HW1 3823   8.363  13.427  13.839
  642SOL    HW2 3824   8.249  13.488  13.760
  643SOL     OW 3825   6.058  12.256   7.342
  643SOL    HW1 3826   6.141  12.271   7.298
  643SOL    HW2 3827   6.053  12.325   7.409
  644SOL     OW 3828  10.483  14.000   9.244
  644SOL    HW1 3829  10.432  13.982   9.164
  644SOL    HW2 3830  10.500  13.913   9.281
  645SOL     OW 3831  11.962  12.460  10.672
  645SOL    HW1 3832  11.872  12.448  10.701
  645SOL    HW2 3833  11.979  12.553  10.683
  646SOL     OW 3834  10.669   2.490  12.473
  646SOL    HW1 3835  10.583   2.458  12.446
  646SOL    HW2 3836  10.711   2.516  12.391
  647SOL     OW 3837   9.146   2.423   0.611
  647SOL    HW1 3838   9.080   2.460   0.670
  647SOL    HW2 3839   9.221   2.482   0.618
  648SOL     OW 3840  10.730  13.910   9.931
  648SOL    HW1 3841  10.693  13.829   9.896
  648SOL    HW2 3842  10.821  13.888   9.952
  649SOL     OW 3843   2.167   2.025   9.869
  649SOL    HW1 3844   2.164   2.121   9.867
  649SOL    HW2 3845   2.139   2.003   9.958
  650SOL     OW 3846   8.799   0.136   5.349
  650SOL    HW1 3847   8.757   0.171   5.428
  650SOL    HW2 3848   8.804   0.212   5.290
  651SOL     OW 3849   1.148   6.903   7.814
  651SOL    HW1 3850   1.216   6.908   7.747
  651SOL    HW2 3851   1.185   6.948   7.890
  652SOL     OW 3852   0.757   5.328  10.705
  652SOL    HW1 3853   0.720   5.279  10.632
  652SOL    HW2 3854   0.777   5.414  10.668
  653SOL     OW 3855   7.658  13.194   5.972
  653SOL    HW1 3856   7.664  13.194   6.068
  653SOL    HW2 3857   7.749  13.186   5.943
  654SOL     OW 3858   0.604   7.042   6.238
  654SOL    HW1 3859   0.605   6.968   6.178
  654SOL    HW2 3860   0.519   7.083   6.226
  655SOL     OW 3861   8.511   6.846   2.710
  655SOL    HW1 3862   8.573   6.808   2.772
  655SOL    HW2 3863   8.438   6.785   2.707
  656SOL     OW 3864   1.254   2.600   3.383
  656SOL    HW1 3865   1.303   2.603   3.301
  656SOL    HW2 3866   1.162   2.603   3.357
  657SOL     OW 3867  13.135   3.173  13.542
  657SOL    HW1 3868  13.055   3.158  13.593
  657SOL    HW2 3869  13.118   3.131  13.458
  658SOL     OW 3870   0.244   9.919   1.422
  658SOL    HW1 3871   0.159   9.912   1.464
  658SOL    HW2 3872   0.285   9.995   1.463
  659SOL     OW 3873   3.115   8.042   1.645
  659SOL    HW1 3874   3.077   8.128   1.626
  659SOL    HW2 3875   3.171   8.023   1.569
  660SOL     OW 3876  10.674   3.693   5.929
  660SOL    HW1 3877  10.582   3.720   5.924
  660SOL    HW2 3878  10.709   3.741   6.004
  661SOL     OW 3879  13.831   0.069   3.338
  661SOL    HW1 3880  13.828  14.858   3.376
  661SOL    HW2 3881  13.864   0.055   3.249
  662SOL     OW 3882   1.765   3.666  10.059
  662SOL    HW1 3883   1.828   3.739  10.069
  662SOL    HW2 3884   1.711   3.692   9.984
  663SOL     OW 3885   4.531  11.920  13.334
  663SOL    HW1 3886   4.606  11.861  13.340
  663SOL    HW2 3887   4.499  11.928  13.424
  664SOL     OW 3888   2.533  14.283  13.992
  664SOL    HW1 3889   2.518  14.224  13.918
  664SOL    HW2 3890   2.621  14.319  13.977
  665SOL     OW 3891   6.351   8.622   2.280
  665SOL    HW1 3892   6.288   8.642   2.210
  665SOL    HW2 3893   6.381   8.707   2.310
  666SOL     OW 3894   8.811   0.038   5.785
  666SOL    HW1 3895   8.872  14.870   5.727
  666SOL    HW2 3896   8.864   0.068   5.858
  667SOL     OW 3897   3.504   1.198   5.214
  667SOL    HW1 3898   3.424   1.244   5.237
  667SOL    HW2 3899   3.484   1.106   5.228
  668SOL     OW 3900   4.310  14.423  11.608
  668SOL    HW1 3901   4.380  14.457  11.552
  668SOL    HW2 3902   4.353  14.361  11.666
  669SOL     OW 3903   3.459   3.146   1.095
  669SOL    HW1 3904   3.544   3.182   1.119
  669SOL    HW2 3905   3.457   3.150   1.000
  670SOL     OW 3906   1.893   4.544   9.254
  670SOL    HW1 3907   1.971   4.508   9.297
  670SOL    HW2 3908   1.847   4.590   9.324
  671SOL     OW 3909   7.119  11.266   5.128
  671SOL    HW1 3910   7.042  11.307   5.089
  671SOL    HW2 3911   7.191  11.288   5.068
  672SOL     OW 3912  11.372   3.952   3.136
  672SOL    HW1 3913  11.277   3.945   3.141
  672SOL    HW2 3914  11.401   3.868   3.101
  673SOL     OW 3915   9.194   5.875   5.295
  673SOL    HW1 3916   9.234   5.868   5.381
  673SOL    HW2 3917   9.107   5.836   5.306
  674SOL     OW 3918  10.576   8.065   9.461
  674SOL    HW1 3919  10.619   8.033   9.541
  674SOL    HW2 3920  10.646   8.071   9.397
  675SOL     OW 3921   3.583   5.159   9.430
  675SOL    HW1 3922   3.518   5.122   9.370
  675SOL    HW2 3923   3.651   5.092   9.438
  676SOL     OW 3924   3.411   9.065   3.484
  676SOL    HW1 3925   3.403   9.095   3.393
  676SOL    HW2 3926   3.330   9.096   3.526
  677SOL     OW 3927   2.134   3.082   0.143
  677SOL    HW1 3928   2.093   3.008   0.189
  677SOL    HW2 3929   2.214   3.045   0.106
  678SOL     OW 3930   4.332   6.923  10.013
  678SOL    HW1 3931   4.275   6.951  10.084
  678SOL    HW2 3932   4.272   6.888   9.947
  679SOL     OW 3933  11.223   3.484   2.805
  679SOL    HW1 3934  11.316   3.502   2.798
  679SOL    HW2 3935  11.208   3.406   2.752
  680SOL     OW 3936   6.594   4.520  10.536
  680SOL    HW1 3937   6.602   4.466  10.614
  680SOL    HW2 3938   6.534   4.473  10.479
  681SOL     OW 3939  13.091   5.919  12.573
  681SOL    HW1 3940  13.007   5.876  12.591
  681SOL    HW2 3941  13.146   5.896  12.648
  682SOL     OW 3942  11.190   4.169  10.088
  682SOL    HW1 3943  11.095   4.172  10.075
  682SOL    HW2 3944  11.226   4.161  10.000
  683SOL     OW 3945  14.238   0.884   1.722
  683SOL    HW1 3946  14.196   0.823   1.662
  683SOL    HW2 3947  14.241   0.967   1.674
  684SOL     OW 3948   9.807  10.661   6.504
  684SOL    HW1 3949   9.718  10.693   6.517
  684SOL    HW2 3950   9.846  10.662   6.592
  685SOL     OW 3951   5.188   5.237  14.009
  685SOL    HW1 3952   5.136   5.252  13.930
  685SOL    HW2 3953   5.143   5.288  14.077
  686SOL     OW 3954   8.263  13.572   7.732
  686SOL    HW1 3955   8.332  13.522   7.687
  686SOL    HW2 3956   8.183  13.551   7.684
  687SOL     OW 3957   5.470  11.948  14.494
  687SOL    HW1 3958   5.555  11.917  14.524
  687SOL    HW2 3959   5.451  11.895  14.416
  688SOL     OW 3960  13.962   7.237   3.061
  688SOL    HW1 3961  14.042   7.244   3.113
  688SOL    HW2 3962  13.909   7.312   3.089
  689SOL     OW 3963  10.988   6.706  11.026
  689SOL    HW1 3964  11.007   6.615  11.052
  689SOL    HW2 3965  10.934   6.741  11.097
  690SOL     OW 3966  10.642   1.778   1.874
  690SOL    HW1 3967  10.653   1.759   1.967
  690SOL    HW2 3968  10.612   1.696   1.835
  691SOL     OW 3969   3.350  11.620   2.554
  691SOL    HW1 3970   3.389  11.624   2.642
  691SOL    HW2 3971   3.419  11.585   2.498
  692SOL     OW 3972   7.083  12.846  12.533
  692SOL    HW1 3973   7.117  12.765  12.494
  692SOL    HW2 3974   7.145  12.866  12.603
  693SOL     OW 3975   9.826   9.981  12.274
  693SOL    HW1 3976   9.774   9.989  12.354
  693SOL    HW2 3977   9.841  10.071  12.246
  694SOL     OW 3978  10.780  13.280  11.565
  694SOL    HW1 3979  10.875  13.293  11.558
  694SOL    HW2 3980  10.751  13.351  11.622
  695SOL     OW 3981  13.781   1.836  14.316
  695SOL    HW1 3982  13.805   1.854  14.406
  695SOL    HW2 3983  13.827   1.755  14.293
  696SOL     OW 3984  10.856  13.756   8.023
  696SOL    HW1 3985  10.940  13.796   8.048
  696SOL    HW2 3986  10.792  13.827   8.034
  697SOL     OW 3987   0.373   1.827  13.282
  697SOL    HW1 3988   0.287   1.792  13.305
  697SOL    HW2 3989   0.434   1.777  13.335
  698SOL     OW 3990  10.802   2.137   6.928
  698SOL    HW1 3991  10.786   2.207   6.991
  698SOL    HW2 3992  10.747   2.159   6.853
  699SOL     OW 3993   6.529  14.851  14.166
  699SOL    HW1 3994   6.560  14.772  14.123
  699SOL    HW2 3995   6.606   0.010  14.209
  700SOL     OW 3996  14.743   4.661   9.262
  700SOL    HW1 3997  14.739   4.752   9.234
  700SOL    HW2 3998  14.804   4.661   9.336
  701SOL     OW 3999   3.690   1.752   7.726
  701SOL    HW1 4000   3.750   1.678   7.717
  701SOL    HW2 4001   3.708   1.808   7.651
  702SOL     OW 4002   9.320   5.293   6.094
  702SOL    HW1 4003   9.384   5.257   6.033
  702SOL    HW2 4004   9.310   5.384   6.068
  703SOL     OW 4005   9.049   6.197  12.582
  703SOL    HW1 4006   9.030   6.231  12.494
  703SOL    HW2 4007   9.120   6.253  12.614
  704SOL     OW 4008   5.842   9.410  11.953
  704SOL    HW1 4009   5.910   9.374  11.896
  704SOL    HW2 4010   5.888   9.431  12.034
  705SOL     OW 4011   6.730   3.259   1.732
  705SOL    HW1 4012   6.788   3.209   1.789
  705SOL    HW2 4013   6.645   3.257   1.776
  706SOL     OW 4014   6.019  12.179  13.802
  706SOL    HW1 4015   6.063  12.120  13.863
  706SOL    HW2 4016   5.995  12.123  13.728
  707SOL     OW 4017   2.010   2.148   0.250
  707SOL    HW1 4018   2.087   2.100   0.282
  707SOL    HW2 4019   1.969   2.088   0.187
  708SOL     OW 4020  10.231   7.536   8.625
  708SOL    HW1 4021  10.258   7.454   8.668
  708SOL    HW2 4022  10.171   7.509   8.556
  709SOL     OW 4023  13.312   9.881   4.707
  709SOL    HW1 4024  13.361   9.867   4.788
  709SOL    HW2 4025  13.378   9.911   4.644
  710SOL     OW 4026   7.014   2.973  11.311
  710SOL    HW1 4027   7.057   3.054  11.339
  710SOL    HW2 4028   6.994   2.928  11.392
  711SOL     OW 4029   6.540   4.470  10.138
  711SOL    HW1 4030   6.458   4.520  10.136
  711SOL    HW2 4031   6.566   4.470  10.230
  712SOL     OW 4032   7.276  11.894  11.667
  712SOL    HW1 4033   7.190  11.930  11.645
  712SOL    HW2 4034   7.329  11.908  11.589
  713SOL     OW 4035   3.923   4.805  11.412
  713SOL    HW1 4036   3.927   4.894  11.375
  713SOL    HW2 4037   3.967   4.813  11.497
  714SOL     OW 4038   6.838  12.596  12.889
  714SOL    HW1 4039   6.906  12.539  12.853
  714SOL    HW2 4040   6.760  12.540  12.893
  715SOL     OW 4041   7.831   6.011   1.355
  715SOL    HW1 4042   7.857   6.076   1.419
  715SOL    HW2 4043   7.740   6.032   1.334
  716SOL     OW 4044  12.680   7.521  13.905
  716SOL    HW1 4045  12.621   7.591  13.933
  716SOL    HW2 4046  12.626   7.442  13.907
  717SOL     OW 4047   0.744   2.681  10.526
  717SOL    HW1 4048   0.725   2.655  10.436
  717SOL    HW2 4049   0.759   2.775  10.521
  718SOL     OW 4050   3.195   2.708   7.493
  718SOL    HW1 4051   3.288   2.700   7.512
  718SOL    HW2 4052   3.188   2.785   7.437
  719SOL     OW 4053   4.417  13.071   4.211
  719SOL    HW1 4054   4.496  13.114   4.243
  719SOL    HW2 4055   4.431  12.978   4.231
  720SOL     OW 4056   1.542  13.711  13.506
  720SOL    HW1 4057   1.595  13.645  13.462
  720SOL    HW2 4058   1.555  13.791  13.454
  721SOL     OW 4059  12.177  11.666   2.835
  721SOL    HW1 4060  12.210  11.583   2.799
  721SOL    HW2 4061  12.167  11.649   2.929
  722SOL     OW 4062   4.583  10.962  10.332
  722SOL    HW1 4063   4.515  11.008  10.283
  722SOL    HW2 4064   4.545  10.949  10.419
  723SOL     OW 4065   6.251  12.677  12.924
  723SOL    HW1 4066   6.296  12.642  13.001
  723SOL    HW2 4067   6.246  12.603  12.864
  724SOL     OW 4068   6.267   0.386   1.936
  724SOL    HW1 4069   6.210   0.444   1.986
  724SOL    HW2 4070   6.351   0.431   1.932
  725SOL     OW 4071   8.703  11.202   5.252
  725SOL    HW1 4072   8.769  11.263   5.219
  725SOL    HW2 4073   8.696  11.223   5.345
  726SOL     OW 4074  13.748  13.282  13.327
  726SOL    HW1 4075  13.816  13.224  13.292
  726SOL    HW2 4076  13.777  13.370  13.303
  727SOL     OW 4077   3.742   1.406  12.441
  727SOL    HW1 4078   3.761   1.377  12.531
  727SOL    HW2 4079   3.791   1.488  12.432
  728SOL     OW 4080   2.590   7.584   0.253
  728SOL    HW1 4081   2.560   7.674   0.242
  728SOL    HW2 4082   2.510   7.532   0.262
  729SOL     OW 4083   9.366   0.058   7.121
  729SOL    HW1 4084   9.406   0.145   7.126
  729SOL    HW2 4085   9.431   0.006   7.074
  730SOL     OW 4086  12.404  10.518   7.255
  730SOL    HW1 4087  12.322  10.494   7.297
  730SOL    HW2 4088  12.406  10.467   7.174
  731SOL     OW 4089   3.282  11.547   4.746
  731SOL    HW1 4090   3.244  11.550   4.835
  731SOL    HW2 4091   3.348  11.617   4.746
  732SOL     OW 4092   2.227   4.487   1.941
  732SOL    HW1 4093   2.268   4.473   1.856
  732SOL    HW2 4094   2.242   4.405   1.988
  733SOL     OW 4095   0.326   5.354  12.203
  733SOL    HW1 4096   0.393   5.370  12.138
  733SOL    HW2 4097   0.266   5.291  12.162
  734SOL     OW 4098   7.479   1.776   1.640
  734SOL    HW1 4099   7.548   1.841   1.628
  734SOL    HW2 4100   7.525   1.699   1.674
  735SOL     OW 4101  11.322   6.511   2.667
  735SOL    HW1 4102  11.236   6.539   2.698
  735SOL    HW2 4103  11.384   6.549   2.729
  736SOL     OW 4104   5.541   8.422   8.667
  736SOL    HW1 4105   5.543   8.364   8.590
  736SOL    HW2 4106   5.448   8.442   8.680
  737SOL     OW 4107   2.165  14.324  11.869
  737SOL    HW1 4108   2.215  14.298  11.946
  737SOL    HW2 4109   2.201  14.271  11.798
  738SOL     OW 4110  10.953  12.371   4.581
  738SOL    HW1 4111  11.001  12.424   4.644
  738SOL    HW2 4112  11.015  12.356   4.510
  739SOL     OW 4113   1.503  12.359   2.519
  739SOL    HW1 4114   1.450  12.351   2.598
  739SOL    HW2 4115   1.440  12.386   2.451
  740SOL     OW 4116  14.663   8.564   8.812
  740SOL    HW1 4117  14.711   8.481   8.813
  740SOL    HW2 4118  14.729   8.630   8.830
  741SOL     OW 4119   2.260   4.305  12.195
  741SOL    HW1 4120   2.204   4.241  12.238
  741SOL    HW2 4121   2.209   4.386  12.198
  742SOL     OW 4122  13.879  13.754   0.064
  742SOL    HW1 4123  13.851  13.719   0.148
  742SOL    HW2 4124  13.798  13.778   0.019
  743SOL     OW 4125   0.909  12.577   8.922
  743SOL    HW1 4126   0.868  12.661   8.901
  743SOL    HW2 4127   0.916  12.532   8.838
  744SOL     OW 4128  13.263   9.276  14.073
  744SOL    HW1 4129  13.300   9.228  14.148
  744SOL    HW2 4130  13.187   9.224  14.048
  745SOL     OW 4131  14.281  13.941  13.401
  745SOL    HW1 4132  14.283  14.029  13.438
  745SOL    HW2 4133  14.273  13.883  13.478
  746SOL     OW 4134   3.802   8.978   7.873
  746SOL    HW1 4135   3.824   9.063   7.836
  746SOL    HW2 4136   3.881   8.951   7.921
  747SOL     OW 4137   5.811  13.026   2.849
  747SOL    HW1 4138   5.893  12.992   2.814
  747SOL    HW2 4139   5.837  13.085   2.920
  748SOL     OW 4140   6.007   7.061  14.303
  748SOL    HW1 4141   6.002   7.154  14.324
  748SOL    HW2 4142   6.069   7.056  14.230
  749SOL     OW 4143   8.386  14.599   0.908
  749SOL    HW1 4144   8.432  14.517   0.888
  749SOL    HW2 4145   8.367  14.593   1.002
  750SOL     OW 4146  12.678  13.530   6.483
  750SOL    HW1 4147  12.606  13.500   6.427
  750SOL    HW2 4148  12.684  13.624   6.466
  751SOL     OW 4149  13.393  11.961   3.414
  751SOL    HW1 4150  13.430  11.902   3.480
  751SOL    HW2 4151  13.432  12.046   3.433
  752SOL     OW 4152   3.605   8.253  13.874
  752SOL    HW1 4153   3.591   8.188  13.805
  752SOL    HW2 4154   3.609   8.337  13.828
  753SOL     OW 4155  14.346   4.297   4.902
  753SOL    HW1 4156  14.357   4.354   4.825
  753SOL    HW2 4157  14.402   4.336   4.969
  754SOL     OW 4158   7.262  13.006  13.665
  754SOL    HW1 4159   7.252  12.922  13.620
  754SOL    HW2 4160   7.339  13.046  13.624
  755SOL     OW 4161   1.269  13.586  13.173
  755SOL    HW1 4162   1.325  13.663  13.160
  755SOL    HW2 4163   1.326  13.511  13.158
  756SOL     OW 4164   5.486   5.813   3.593
  756SOL    HW1 4165   5.573   5.777   3.580
  756SOL    HW2 4166   5.501   5.903   3.624
  757SOL     OW 4167   7.870   6.600   4.077
  757SOL    HW1 4168   7.921   6.586   4.157
  757SOL    HW2 4169   7.780   6.580   4.103
  758SOL     OW 4170   7.459   2.986   4.933
  758SOL    HW1 4171   7.544   2.996   4.975
  758SOL    HW2 4172   7.397   2.981   5.006
  759SOL     OW 4173   3.016   2.076   6.270
  759SOL    HW1 4174   3.112   2.076   6.264
  759SOL    HW2 4175   2.998   2.130   6.347
  760SOL     OW 4176   0.524  13.924  14.402
  760SOL    HW1 4177   0.487  14.007  14.432
  760SOL    HW2 4178   0.449  13.865  14.397
  761SOL     OW 4179   2.390  12.600   0.955
  761SOL    HW1 4180   2.441  12.526   0.988
  761SOL    HW2 4181   2.299  12.572   0.963
  762SOL     OW 4182  10.321   9.254   1.996
  762SOL    HW1 4183  10.373   9.239   2.075
  762SOL    HW2 4184  10.238   9.290   2.029
  763SOL     OW 4185  10.667   0.868  13.527
  763SOL    HW1 4186  10.702   0.942  13.577
  763SOL    HW2 4187  10.686   0.792  13.581
  764SOL     OW 4188  14.796   4.129   8.758
  764SOL    HW1 4189  14.873   4.173   8.723
  764SOL    HW2 4190  14.793   4.156   8.850
  765SOL     OW 4191   5.936  13.247   2.017
  765SOL    HW1 4192   5.873  13.289   1.958
  765SOL    HW2 4193   5.887  13.231   2.098
  766SOL     OW 4194  13.005  10.354  14.201
  766SOL    HW1 4195  13.075  10.309  14.250
  766SOL    HW2 4196  12.946  10.387  14.269
  767SOL     OW 4197  10.628  13.523   1.618
  767SOL    HW1 4198  10.663  13.476   1.542
  767SOL    HW2 4199  10.649  13.615   1.602
  768SOL     OW 4200  13.757   2.923   4.812
  768SOL    HW1 4201  13.806   2.972   4.879
  768SOL    HW2 4202  13.766   2.976   4.733
  769SOL     OW 4203   9.414   8.789   3.879
  769SOL    HW1 4204   9.483   8.818   3.940
  769SOL    HW2 4205   9.446   8.706   3.844
  770SOL     OW 4206   9.464   0.048   8.982
  770SOL    HW1 4207   9.486   0.095   9.062
  770SOL    HW2 4208   9.438  14.838   9.012
  771SOL     OW 4209   9.939   2.197  11.366
  771SOL    HW1 4210   9.901   2.251  11.297
  771SOL    HW2 4211  10.021   2.241  11.388
  772SOL     OW 4212   5.160   6.648  12.491
  772SOL    HW1 4213   5.207   6.579  12.538
  772SOL    HW2 4214   5.202   6.651  12.405
  773SOL     OW 4215  13.120   8.726   1.271
  773SOL    HW1 4216  13.084   8.649   1.228
  773SOL    HW2 4217  13.060   8.743   1.343
  774SOL     OW 4218  11.650   6.749   4.608
  774SOL    HW1 4219  11.644   6.654   4.621
  774SOL    HW2 4220  11.649   6.759   4.512
  775SOL     OW 4221   7.575   0.373   6.842
  775SOL    HW1 4222   7.488   0.364   6.882
  775SOL    HW2 4223   7.632   0.322   6.899
  776SOL     OW 4224   0.683  11.023  10.419
  776SOL    HW1 4225   0.603  11.073  10.403
  776SOL    HW2 4226   0.681  10.954  10.353
  777SOL     OW 4227   3.575  11.251   7.827
  777SOL    HW1 4228   3.607  11.219   7.743
  777SOL    HW2 4229   3.655  11.273   7.876
  778SOL     OW 4230   0.562   2.023  10.488
  778SOL    HW1 4231   0.547   2.003  10.395
  778SOL    HW2 4232   0.502   1.965  10.534
  779SOL     OW 4233  11.762   3.793   9.189
  779SOL    HW1 4234  11.733   3.800   9.098
  779SOL    HW2 4235  11.722   3.867   9.233
  780SOL     OW 4236   4.594   5.063   2.202
  780SOL    HW1 4237   4.625   5.132   2.144
  780SOL    HW2 4238   4.503   5.085   2.220
  781SOL     OW 4239   8.672   6.968   5.605
  781SOL    HW1 4240   8.727   6.967   5.526
  781SOL    HW2 4241   8.583   6.974   5.573
  782SOL     OW 4242   2.383   4.485  10.103
  782SOL    HW1 4243   2.356   4.506  10.013
  782SOL    HW2 4244   2.422   4.398  10.097
  783SOL     OW 4245  14.504  13.429   4.374
  783SOL    HW1 4246  14.450  13.351   4.364
  783SOL    HW2 4247  14.563  13.427   4.299
  784SOL     OW 4248   4.852   7.719  12.700
  784SOL    HW1 4249   4.861   7.738  12.607
  784SOL    HW2 4250   4.942   7.705  12.730
  785SOL     OW 4251   1.757  11.483   7.259
  785SOL    HW1 4252   1.706  11.472   7.340
  785SOL    HW2 4253   1.749  11.576   7.239
  786SOL     OW 4254  10.609   9.149  12.227
  786SOL    HW1 4255  10.560   9.096  12.290
  786SOL    HW2 4256  10.643   9.086  12.164
  787SOL     OW 4257   1.866   2.281   5.035
  787SOL    HW1 4258   1.851   2.248   4.946
  787SOL    HW2 4259   1.922   2.216   5.076
  788SOL     OW 4260  11.343   3.648  10.568
  788SOL    HW1 4261  11.323   3.732  10.608
  788SOL    HW2 4262  11.258   3.603  10.562
  789SOL     OW 4263   9.132   3.600  10.406
  789SOL    HW1 4264   9.217   3.642  10.390
  789SOL    HW2 4265   9.092   3.594  10.320
  790SOL     OW 4266   9.213   8.010   0.588
  790SOL    HW1 4267   9.172   7.975   0.667
  790SOL    HW2 4268   9.172   8.096   0.577
  791SOL     OW 4269   5.204  11.134   6.819
  791SOL    HW1 4270   5.243  11.047   6.807
  791SOL    HW2 4271   5.278  11.194   6.810
  792SOL     OW 4272   6.991   0.287   8.791
  792SOL    HW1 4273   6.962   0.290   8.883
  792SOL    HW2 4274   7.077   0.329   8.792
  793SOL     OW 4275   1.991   3.200  10.757
  793SOL    HW1 4276   2.014   3.246  10.677
  793SOL    HW2 4277   1.896   3.195  10.756
  794SOL     OW 4278   2.839  10.092   0.275
  794SOL    HW1 4279   2.812  10.057   0.190
  794SOL    HW2 4280   2.763  10.078   0.332
  795SOL     OW 4281   6.374   3.545  12.960
  795SOL    HW1 4282   6.365   3.630  12.917
  795SOL    HW2 4283   6.458   3.551  13.006
  796SOL     OW 4284   4.988  12.444   9.946
  796SOL    HW1 4285   5.059  12.502   9.973
  796SOL    HW2 4286   4.915  12.503   9.927
  797SOL     OW 4287  11.242   2.564   6.054
  797SOL    HW1 4288  11.304   2.576   6.126
  797SOL    HW2 4289  11.270   2.627   5.987
  798SOL     OW 4290   4.078  11.849   4.677
  798SOL    HW1 4291   4.112  11.841   4.588
  798SOL    HW2 4292   4.121  11.927   4.712
  799SOL     OW 4293   7.608   5.451  12.098
  799SOL    HW1 4294   7.588   5.529  12.046
  799SOL    HW2 4295   7.622   5.383  12.032
  800SOL     OW 4296   9.256  14.462  11.554
  800SOL    HW1 4297   9.288  14.383  11.596
  800SOL    HW2 4298   9.287  14.455  11.464
  801SOL     OW 4299   8.904   9.272   5.437
  801SOL    HW1 4300   8.830   9.327   5.411
  801SOL    HW2 4301   8.964   9.276   5.362
  802SOL     OW 4302   2.655   5.760   3.121
  802SOL    HW1 4303   2.748   5.749   3.140
  802SOL    HW2 4304   2.653   5.794   3.031
  803SOL     OW 4305   4.301   8.305   3.174
  803SOL    HW1 4306   4.257   8.338   3.096
  803SOL    HW2 4307   4.237   8.317   3.245
  804SOL     OW 4308  10.907   6.722   9.268
  804SOL    HW1 4309  10.967   6.683   9.330
  804SOL    HW2 4310  10.866   6.648   9.223
  805SOL     OW 4311  13.582  14.684  11.401
  805SOL    HW1 4312  13.565  14.765  11.448
  805SOL    HW2 4313  13.665  14.652  11.437
  806SOL     OW 4314   8.572   4.344   9.976
  806SOL    HW1 4315   8.579   4.365  10.069
  806SOL    HW2 4316   8.612   4.258   9.968
  807SOL     OW 4317   8.160  14.225  10.452
  807SOL    HW1 4318   8.075  14.238  10.495
  807SOL    HW2 4319   8.217  14.292  10.490
  808SOL     OW 4320  11.930   9.398  14.397
  808SOL    HW1 4321  11.966   9.468  14.451
  808SOL    HW2 4322  11.961   9.418  14.308
  809SOL     OW 4323   3.083   0.185   4.380
  809SOL    HW1 4324   3.027   0.255   4.347
  809SOL    HW2 4325   3.061   0.109   4.325
  810SOL     OW 4326   4.206   4.689   0.959
  810SOL    HW1 4327   4.202   4.686   1.054
  810SOL    HW2 4328   4.179   4.601   0.931
  811SOL     OW 4329   2.011  12.738   0.914
  811SOL    HW1 4330   2.032  12.646   0.931
  811SOL    HW2 4331   1.916  12.743   0.922
  812SOL     OW 4332  12.331   5.389   3.659
  812SOL    HW1 4333  12.340   5.364   3.750
  812SOL    HW2 4334  12.323   5.307   3.611
  813SOL     OW 4335   4.138  11.016  10.656
  813SOL    HW1 4336   4.101  11.065  10.730
  813SOL    HW2 4337   4.101  11.058  10.578
  814SOL     OW 4338   3.596   8.237   8.400
  814SOL    HW1 4339   3.618   8.154   8.358
  814SOL    HW2 4340   3.526   8.274   8.347
  815SOL     OW 4341  13.484  12.855   6.323
  815SOL    HW1 4342  13.433  12.913   6.266
  815SOL    HW2 4343  13.490  12.903   6.406
  816SOL     OW 4344   2.366   0.241  12.612
  816SOL    HW1 4345   2.288   0.258  12.666
  816SOL    HW2 4346   2.438   0.239  12.675
  817SOL     OW 4347   3.360  11.697  13.753
  817SOL    HW1 4348   3.282  11.727  13.707
  817SOL    HW2 4349   3.338  11.609  13.785
  818SOL     OW 4350   3.355   2.994   1.760
  818SOL    HW1 4351   3.404   3.012   1.680
  818SOL    HW2 4352   3.419   2.957   1.820
  819SOL     OW 4353   1.427  10.644   4.876
  819SOL    HW1 4354   1.393  10.570   4.927
  819SOL    HW2 4355   1.471  10.700   4.940
  820SOL     OW 4356   0.298  13.711   3.319
  820SOL    HW1 4357   0.293  13.682   3.228
  820SOL    HW2 4358   0.300  13.807   3.314
  821SOL     OW 4359   5.630   7.777  14.036
  821SOL    HW1 4360   5.609   7.870  14.041
  821SOL    HW2 4361   5.545   7.733  14.032
  822SOL     OW 4362   0.131   5.028   9.587
  822SOL    HW1 4363   0.041   4.995   9.580
  822SOL    HW2 4364   0.138   5.092   9.516
  823SOL     OW 4365  11.295   6.571  11.644
  823SOL    HW1 4366  11.303   6.610  11.732
  823SOL    HW2 4367  11.228   6.624  11.601
  824SOL     OW 4368   9.515   8.182  13.925
  824SOL    HW1 4369   9.434   8.160  13.879
  824SOL    HW2 4370   9.486   8.227  14.004
  825SOL     OW 4371   1.809  10.137   8.657
  825SOL    HW1 4372   1.842  10.202   8.595
  825SOL    HW2 4373   1.888  10.098   8.695
  826SOL     OW 4374  13.803  10.828   4.615
  826SOL    HW1 4375  13.804  10.732   4.612
  826SOL    HW2 4376  13.746  10.854   4.543
  827SOL     OW 4377   4.008  10.123  10.762
  827SOL    HW1 4378   4.044  10.063  10.828
  827SOL    HW2 4379   4.026  10.210  10.796
  828SOL     OW 4380   4.128   3.010   0.208
  828SOL    HW1 4381   4.046   2.992   0.163
  828SOL    HW2 4382   4.107   3.074   0.275
  829SOL     OW 4383   9.664   7.718   9.695
  829SOL    HW1 4384   9.721   7.766   9.755
  829SOL    HW2 4385   9.681   7.758   9.609
  830SOL     OW 4386   0.971   5.887   3.087
  830SOL    HW1 4387   0.899   5.887   3.149
  830SOL    HW2 4388   0.963   5.803   3.041
  831SOL     OW 4389   6.481   0.644   9.080
  831SOL    HW1 4390   6.535   0.585   9.132
  831SOL    HW2 4391   6.394   0.605   9.083
  832SOL     OW 4392   3.440   6.440   8.375
  832SOL    HW1 4393   3.468   6.529   8.398
  832SOL    HW2 4394   3.361   6.453   8.323
  833SOL     OW 4395   6.803  13.543   0.423
  833SOL    HW1 4396   6.881  13.489   0.406
  833SOL    HW2 4397   6.821  13.626   0.379
  834SOL     OW 4398   7.362   1.561   5.491
  834SOL    HW1 4399   7.455   1.552   5.513
  834SOL    HW2 4400   7.361   1.588   5.399
  835SOL     OW 4401  13.431   9.970  13.836
  835SOL    HW1 4402  13.476   9.946  13.918
  835SOL    HW2 4403  13.501   9.970  13.770
  836SOL     OW 4404  10.285  10.956   3.854
  836SOL    HW1 4405  10.369  10.992   3.883
  836SOL    HW2 4406  10.309  10.885   3.795
  837SOL     OW 4407   0.406  11.670   4.997
  837SOL    HW1 4408   0.425  11.724   4.921
  837SOL    HW2 4409   0.310  11.675   5.006
  838SOL     OW 4410   3.290   9.026  12.167
  838SOL    HW1 4411   3.235   8.948  12.176
  838SOL    HW2 4412   3.253   9.073  12.093
  839SOL     OW 4413   8.224  14.439   4.457
  839SOL    HW1 4414   8.147  14.396   4.419
  839SOL    HW2 4415   8.205  14.443   4.551
  840SOL     OW 4416   6.565   7.506  14.012
  840SOL    HW1 4417   6.564   7.583  14.069
  840SOL    HW2 4418   6.596   7.435  14.068
  841SOL     OW 4419  11.344   7.791   0.555
  841SOL    HW1 4420  11.344   7.737   0.476
  841SOL    HW2 4421  11.296   7.870   0.530
  842SOL     OW 4422   6.973  13.897   7.830
  842SOL    HW1 4423   7.039  13.908   7.898
  842SOL    HW2 4424   6.976  13.804   7.809
  843SOL     OW 4425   1.055  12.714   7.192
  843SOL    HW1 4426   1.070  12.651   7.263
  843SOL    HW2 4427   0.974  12.684   7.151
  844SOL     OW 4428  12.631   3.361   1.598
  844SOL    HW1 4429  12.668   3.418   1.665
  844SOL    HW2 4430  12.563   3.311   1.643
  845SOL     OW 4431   7.133   0.480   1.518
  845SOL    HW1 4432   7.158   0.571   1.501
  845SOL    HW2 4433   7.128   0.475   1.614
  846SOL     OW 4434   1.897   0.853  13.528
  846SOL    HW1 4435   1.815   0.882  13.487
  846SOL    HW2 4436   1.874   0.841  13.621
  847SOL     OW 4437   5.663   5.703   2.918
  847SOL    HW1 4438   5.659   5.637   2.987
  847SOL    HW2 4439   5.610   5.776   2.952
  848SOL     OW 4440  11.843   7.058  12.890
  848SOL    HW1 4441  11.755   7.088  12.870
  848SOL    HW2 4442  11.899   7.135  12.877
  849SOL     OW 4443   3.276  11.347   0.364
  849SOL    HW1 4444   3.312  11.314   0.282
  849SOL    HW2 4445   3.275  11.271   0.422
  850SOL     OW 4446   4.879  14.383   1.401
  850SOL    HW1 4447   4.853  14.344   1.485
  850SOL    HW2 4448   4.974  14.389   1.406
  851SOL     OW 4449   9.306   9.896  12.284
  851SOL    HW1 4450   9.399   9.909  12.305
  851SOL    HW2 4451   9.289   9.805  12.305
  852SOL     OW 4452   2.826  11.626   2.964
  852SOL    HW1 4453   2.841  11.720   2.961
  852SOL    HW2 4454   2.821  11.599   2.872
  853SOL     OW 4455  14.784   8.323  14.135
  853SOL    HW1 4456  14.791   8.245  14.080
  853SOL    HW2 4457  14.760   8.393  14.074
  854SOL     OW 4458  12.907   8.779   2.972
  854SOL    HW1 4459  12.828   8.763   3.023
  854SOL    HW2 4460  12.956   8.844   3.022
  855SOL     OW 4461   6.940  10.648   8.240
  855SOL    HW1 4462   6.888  10.578   8.280
  855SOL    HW2 4463   6.930  10.722   8.299
  856SOL     OW 4464   4.548   9.658  11.595
  856SOL    HW1 4465   4.610   9.591  11.624
  856SOL    HW2 4466   4.499   9.617  11.524
  857SOL     OW 4467   7.142   2.483   8.038
  857SOL    HW1 4468   7.137   2.438   8.123
  857SOL    HW2 4469   7.058   2.465   7.996
  858SOL     OW 4470   9.977   4.774   9.774
  858SOL    HW1 4471  10.065   4.799   9.746
  858SOL    HW2 4472   9.936   4.857   9.799
  859SOL     OW 4473   5.104   5.501  11.453
  859SOL    HW1 4474   5.114   5.417  11.497
  859SOL    HW2 4475   5.192   5.526  11.427
  860SOL     OW 4476  10.416  13.604  10.342
  860SOL    HW1 4477  10.400  13.546  10.268
  860SOL    HW2 4478  10.494  13.654  10.317
  861SOL     OW 4479   0.637   0.214  10.638
  861SOL    HW1 4480   0.585   0.147  10.594
  861SOL    HW2 4481   0.575   0.285  10.655
  862SOL     OW 4482  13.153   2.073   3.265
  862SOL    HW1 4483  13.189   2.160   3.250
  862SOL    HW2 4484  13.229   2.015   3.259
  863SOL     OW 4485   7.063  13.534   3.849
  863SOL    HW1 4486   7.071  13.542   3.754
  863SOL    HW2 4487   6.975  13.499   3.862
  864SOL     OW 4488   5.249   8.055   1.774
  864SOL    HW1 4489   5.165   8.102   1.781
  864SOL    HW2 4490   5.230   7.979   1.719
  865SOL     OW 4491   7.687   1.249   2.917
  865SOL    HW1 4492   7.768   1.298   2.902
  865SOL    HW2 4493   7.688   1.180   2.850
  866SOL     OW 4494  11.210   6.433  12.603
  866SOL    HW1 4495  11.141   6.373  12.634
  866SOL    HW2 4496  11.165   6.494  12.546
  867SOL     OW 4497  11.266  13.477  14.661
  867SOL    HW1 4498  11.347  13.467  14.611
  867SOL    HW2 4499  11.208  13.528  14.604
  868SOL     OW 4500  12.739  12.080  10.298
  868SOL    HW1 4501  12.795  12.084  10.376
  868SOL    HW2 4502  12.760  11.996  10.258
  869SOL     OW 4503   1.916   4.493   5.086
  869SOL    HW1 4504   1.946   4.562   5.145
  869SOL    HW2 4505   1.950   4.412   5.125
  870SOL     OW 4506   9.613   0.001  11.040
  870SOL    HW1 4507   9.550  14.847  10.975
  870SOL    HW2 4508   9.692  14.828  11.023
  871SOL     OW 4509   8.315   3.159   8.336
  871SOL    HW1 4510   8.368   3.238   8.347
  871SOL    HW2 4511   8.229   3.183   8.371
  872SOL     OW 4512   6.507   9.902   8.746
  872SOL    HW1 4513   6.550   9.975   8.789
  872SOL    HW2 4514   6.567   9.828   8.758
  873SOL     OW 4515  10.079   3.263   0.871
  873SOL    HW1 4516  10.088   3.342   0.924
  873SOL    HW2 4517   9.986   3.243   0.872
  874SOL     OW 4518   8.902   7.437  12.269
  874SOL    HW1 4519   8.922   7.344  12.267
  874SOL    HW2 4520   8.902   7.464  12.177
  875SOL     OW 4521   5.531  13.822   6.389
  875SOL    HW1 4522   5.465  13.808   6.457
  875SOL    HW2 4523   5.575  13.738   6.379
  876SOL     OW 4524  13.452   5.388   2.323
  876SOL    HW1 4525  13.462   5.297   2.352
  876SOL    HW2 4526  13.497   5.440   2.390
  877SOL     OW 4527   3.220  12.025   0.767
  877SOL    HW1 4528   3.146  11.971   0.796
  877SOL    HW2 4529   3.294  11.993   0.818
  878SOL     OW 4530   9.458  13.233   9.615
  878SOL    HW1 4531   9.414  13.312   9.647
  878SOL    HW2 4532   9.432  13.164   9.676
  879SOL     OW 4533   2.569   8.161   8.114
  879SOL    HW1 4534   2.481   8.198   8.104
  879SOL    HW2 4535   2.572   8.088   8.053
  880SOL     OW 4536  13.327  13.226   4.209
  880SOL    HW1 4537  13.237  13.257   4.203
  880SOL    HW2 4538  13.319  13.136   4.241
  881SOL     OW 4539  10.279   4.703   0.665
  881SOL    HW1 4540  10.351   4.646   0.637
  881SOL    HW2 4541  10.313   4.791   0.652
  882SOL     OW 4542   2.161   9.633   0.984
  882SOL    HW1 4543   2.155   9.556   0.928
  882SOL    HW2 4544   2.110   9.610   1.062
  883SOL     OW 4545  14.418  13.443   5.134
  883SOL    HW1 4546  14.398  13.409   5.047
  883SOL    HW2 4547  14.484  13.510   5.119
  884SOL     OW 4548  14.808   4.825  14.285
  884SOL    HW1 4549  14.730   4.770  14.294
  884SOL    HW2 4550  14.790   4.880  14.208
  885SOL     OW 4551   8.038  13.633  12.425
  885SOL    HW1 4552   7.979  13.709  12.421
  885SOL    HW2 4553   8.051  13.617  12.518
  886SOL     OW 4554   9.748  11.407   0.321
  886SOL    HW1 4555   9.831  11.442   0.287
  886SOL    HW2 4556   9.774  11.348   0.392
  887SOL     OW 4557   6.889  12.435  13.216
  887SOL    HW1 4558   6.825  12.487  13.265
  887SOL    HW2 4559   6.909  12.360  13.272
  888SOL     OW 4560  10.508  13.742  13.819
  888SOL    HW1 4561  10.566  13.767  13.747
  888SOL    HW2 4562  10.561  13.683  13.873
  889SOL     OW 4563   2.982  10.654  10.980
  889SOL    HW1 4564   3.000  10.590  11.050
  889SOL    HW2 4565   3.035  10.730  11.004
  890SOL     OW 4566   4.939   7.176   8.804
  890SOL    HW1 4567   4.870   7.120   8.840
  890SOL    HW2 4568   4.918   7.182   8.711
  891SOL     OW 4569   3.322  10.766   6.707
  891SOL    HW1 4570   3.377  10.746   6.782
  891SOL    HW2 4571   3.238  10.794   6.745
  892SOL     OW 4572  11.084   2.376  10.722
  892SOL    HW1 4573  11.175   2.353  10.737
  892SOL    HW2 4574  11.060   2.430  10.797
  893SOL     OW 4575   5.588   2.625   0.925
  893SOL    HW1 4576   5.526   2.687   0.885
  893SOL    HW2 4577   5.628   2.675   0.996
  894SOL     OW 4578   4.251   5.845   0.437
  894SOL    HW1 4579   4.172   5.892   0.411
  894SOL    HW2 4580   4.224   5.754   0.444
  895SOL     OW 4581   1.885   8.854   3.753
  895SOL    HW1 4582   1.809   8.834   3.698
  895SOL    HW2 4583   1.890   8.781   3.815
  896SOL     OW 4584  12.385   4.570   5.029
  896SOL    HW1 4585  12.420   4.484   5.007
  896SOL    HW2 4586  12.355   4.561   5.120
  897SOL     OW 4587   7.813  12.360  13.667
  897SOL    HW1 4588   7.759  12.287  13.699
  897SOL    HW2 4589   7.751  12.431  13.653
  898SOL     OW 4590   3.897   6.289   5.362
  898SOL    HW1 4591   3.857   6.276   5.277
  898SOL    HW2 4592   3.978   6.337   5.343
  899SOL     OW 4593  12.858   1.410   2.938
  899SOL    HW1 4594  12.941   1.434   2.897
  899SOL    HW2 4595  12.803   1.384   2.865
  900SOL     OW 4596  13.214   9.841   0.558
  900SOL    HW1 4597  13.299   9.883   0.540
  900SOL    HW2 4598  13.200   9.855   0.651
  901SOL     OW 4599   2.125   6.420   5.558
  901SOL    HW1 4600   2.210   6.464   5.567
  901SOL    HW2 4601   2.135   6.365   5.480
  902SOL     OW 4602   4.247  12.201   4.314
  902SOL    HW1 4603   4.194  12.278   4.335
  902SOL    HW2 4604   4.218  12.173   4.228
  903SOL     OW 4605  14.316   9.712   6.007
  903SOL    HW1 4606  14.269   9.772   5.950
  903SOL    HW2 4607  14.258   9.700   6.082
  904SOL     OW 4608   8.354   7.390   2.784
  904SOL    HW1 4609   8.293   7.459   2.758
  904SOL    HW2 4610   8.306   7.309   2.768
  905SOL     OW 4611   6.150  13.808   4.238
  905SOL    HW1 4612   6.161  13.720   4.202
  905SOL    HW2 4613   6.238  13.846   4.237
  906SOL     OW 4614  13.269  12.880   2.680
  906SOL    HW1 4615  13.286  12.820   2.753
  906SOL    HW2 4616  13.337  12.947   2.687
  907SOL     OW 4617   9.736   2.254  11.789
  907SOL    HW1 4618   9.721   2.209  11.872
  907SOL    HW2 4619   9.777   2.188  11.732
  908SOL     OW 4620  14.129  10.857   9.931
  908SOL    HW1 4621  14.107  10.789   9.995
  908SOL    HW2 4622  14.114  10.814   9.846
  909SOL     OW 4623   1.609  13.426   0.617
  909SOL    HW1 4624   1.630  13.519   0.609
  909SOL    HW2 4625   1.590  13.397   0.528
  910SOL     OW 4626  12.096   3.201   5.423
  910SOL    HW1 4627  12.063   3.112   5.418
  910SOL    HW2 4628  12.191   3.192   5.433
  911SOL     OW 4629   5.200  11.277   2.690
  911SOL    HW1 4630   5.288  11.294   2.723
  911SOL    HW2 4631   5.214  11.228   2.609
  912SOL     OW 4632  14.645   8.705  14.748
  912SOL    HW1 4633  14.733   8.738  14.762
  912SOL    HW2 4634  14.591   8.753  14.811
  913SOL     OW 4635   8.650   6.544  13.460
  913SOL    HW1 4636   8.740   6.523  13.438
  913SOL    HW2 4637   8.640   6.636  13.438
  914SOL     OW 4638   6.248   7.519   9.271
  914SOL    HW1 4639   6.285   7.540   9.357
  914SOL    HW2 4640   6.324   7.497   9.217
  915SOL     OW 4641  11.476   3.828  12.075
  915SOL    HW1 4642  11.449   3.915  12.046
  915SOL    HW2 4643  11.399   3.791  12.118
  916SOL     OW 4644   1.269   1.166   7.218
  916SOL    HW1 4645   1.325   1.243   7.216
  916SOL    HW2 4646   1.329   1.093   7.202
  917SOL     OW 4647   2.387   9.832   6.795
  917SOL    HW1 4648   2.480   9.819   6.816
  917SOL    HW2 4649   2.387   9.863   6.704
  918SOL     OW 4650  13.782   5.920  14.229
  918SOL    HW1 4651  13.864   5.948  14.269
  918SOL    HW2 4652  13.794   5.826  14.213
  919SOL     OW 4653   3.564  10.255   4.431
  919SOL    HW1 4654   3.596  10.253   4.521
  919SOL    HW2 4655   3.633  10.300   4.382
  920SOL     OW 4656   4.174   1.234   2.089
  920SOL    HW1 4657   4.200   1.182   2.166
  920SOL    HW2 4658   4.250   1.232   2.031
  921SOL     OW 4659   9.655  12.754  13.352
  921SOL    HW1 4660   9.585  12.816  13.372
  921SOL    HW2 4661   9.620  12.669  13.377
  922SOL     OW 4662   6.450  10.416   2.686
  922SOL    HW1 4663   6.542  10.426   2.660
  922SOL    HW2 4664   6.408  10.375   2.611
  923SOL     OW 4665   7.646   6.303  14.482
  923SOL    HW1 4666   7.651   6.396  14.506
  923SOL    HW2 4667   7.625   6.259  14.564
  924SOL     OW 4668   5.247   7.218   2.849
  924SOL    HW1 4669   5.194   7.297   2.836
  924SOL    HW2 4670   5.298   7.236   2.927
  925SOL     OW 4671   4.398   3.024   5.754
  925SOL    HW1 4672   4.463   3.009   5.686
  925SOL    HW2 4673   4.332   3.080   5.713
  926SOL     OW 4674   6.558   8.573   9.740
  926SOL    HW1 4675   6.646   8.541   9.761
  926SOL    HW2 4676   6.514   8.578   9.825
  927SOL     OW 4677  11.176   8.374   0.843
  927SOL    HW1 4678  11.114   8.402   0.775
  927SOL    HW2 4679  11.247   8.332   0.796
  928SOL     OW 4680   6.645  12.423   6.371
  928SOL    HW1 4681   6.570  12.369   6.397
  928SOL    HW2 4682   6.611  12.478   6.300
  929SOL     OW 4683  14.299   2.639   4.819
  929SOL    HW1 4684  14.384   2.602   4.845
  929SOL    HW2 4685  14.318   2.690   4.740
  930SOL     OW 4686   7.696   1.619   3.837
  930SOL    HW1 4687   7.728   1.540   3.880
  930SOL    HW2 4688   7.740   1.691   3.883
  931SOL     OW 4689   7.961  11.576   3.124
  931SOL    HW1 4690   7.971  11.565   3.029
  931SOL    HW2 4691   7.988  11.667   3.140
  932SOL     OW 4692   2.618   0.554   7.103
  932SOL    HW1 4693   2.689   0.541   7.040
  932SOL    HW2 4694   2.643   0.634   7.150
  933SOL     OW 4695   5.003   4.688   3.719
  933SOL    HW1 4696   5.040   4.609   3.758
  933SOL    HW2 4697   5.077   4.729   3.673
  934SOL     OW 4698   9.820  11.094   1.546
  934SOL    HW1 4699   9.898  11.058   1.502
  934SOL    HW2 4700   9.819  11.051   1.631
  935SOL     OW 4701   4.070   2.429  10.672
  935SOL    HW1 4702   4.150   2.460  10.714
  935SOL    HW2 4703   4.018   2.508  10.660
  936SOL     OW 4704   9.489   2.503  13.391
  936SOL    HW1 4705   9.465   2.455  13.312
  936SOL    HW2 4706   9.562   2.559  13.364
  937SOL     OW 4707   8.359   7.616   0.101
  937SOL    HW1 4708   8.447   7.630   0.065
  937SOL    HW2 4709   8.307   7.590   0.026
  938SOL     OW 4710   9.520   8.722   0.138
  938SOL    HW1 4711   9.571   8.803   0.147
  938SOL    HW2 4712   9.503   8.715   0.044
  939SOL     OW 4713  12.208   7.162   2.462
  939SOL    HW1 4714  12.188   7.069   2.467
  939SOL    HW2 4715  12.293   7.166   2.418
  940SOL     OW 4716   8.266  11.828   0.546
  940SOL    HW1 4717   8.306  11.793   0.625
  940SOL    HW2 4718   8.210  11.900   0.576
  941SOL     OW 4719   7.919   7.395   8.764
  941SOL    HW1 4720   7.876   7.467   8.809
  941SOL    HW2 4721   7.961   7.344   8.833
  942SOL     OW 4722  12.194  13.803   0.457
  942SOL    HW1 4723  12.242  13.853   0.392
  942SOL    HW2 4724  12.112  13.849   0.468
  943SOL     OW 4725   9.637  13.207  10.923
  943SOL    HW1 4726   9.556  13.255  10.904
  943SOL    HW2 4727   9.610  13.138  10.983
  944SOL     OW 4728  13.604   3.830   8.036
  944SOL    HW1 4729  13.556   3.750   8.015
  944SOL    HW2 4730  13.632   3.818   8.127
  945SOL     OW 4731   8.705   8.817   8.893
  945SOL    HW1 4732   8.729   8.777   8.810
  945SOL    HW2 4733   8.627   8.770   8.921
  946SOL     OW 4734   3.907  13.985   8.750
  946SOL    HW1 4735   3.992  13.964   8.790
  946SOL    HW2 4736   3.846  13.922   8.789
  947SOL     OW 4737   5.249   3.869  14.098
  947SOL    HW1 4738   5.249   3.774  14.109
  947SOL    HW2 4739   5.168   3.888  14.052
  948SOL     OW 4740  14.082  14.738   3.696
  948SOL    HW1 4741  14.007  14.722   3.639
  948SOL    HW2 4742  14.055  14.701   3.781
  949SOL     OW 4743   5.579   1.558  13.422
  949SOL    HW1 4744   5.581   1.624  13.353
  949SOL    HW2 4745   5.501   1.579  13.473
  950SOL     OW 4746   2.615   1.746   1.108
  950SOL    HW1 4747   2.708   1.757   1.131
  950SOL    HW2 4748   2.602   1.806   1.034
  951SOL     OW 4749   7.029  12.124  13.957
  951SOL    HW1 4750   7.109  12.108  14.008
  951SOL    HW2 4751   7.058  12.119  13.866
  952SOL     OW 4752   2.521   4.517   5.424
  952SOL    HW1 4753   2.569   4.471   5.493
  952SOL    HW2 4754   2.460   4.452   5.390
  953SOL     OW 4755   7.231  13.683  13.334
  953SOL    HW1 4756   7.314  13.732  13.338
  953SOL    HW2 4757   7.258  13.592  13.321
  954SOL     OW 4758  12.499   8.529   4.173
  954SOL    HW1 4759  12.569   8.502   4.113
  954SOL    HW2 4760  12.435   8.458   4.168
  955SOL     OW 4761  13.795   8.473   2.310
  955SOL    HW1 4762  13.845   8.553   2.292
  955SOL    HW2 4763  13.765   8.484   2.400
  956SOL     OW 4764   0.032  10.906   3.248
  956SOL    HW1 4765  14.854  10.928   3.322
  956SOL    HW2 4766  14.861  10.936   3.171
  957SOL     OW 4767   4.272  14.200  12.709
  957SOL    HW1 4768   4.211  14.251  12.655
  957SOL    HW2 4769   4.237  14.208  12.798
  958SOL     OW 4770   5.472   6.320   3.834
  958SOL    HW1 4771   5.533   6.258   3.872
  958SOL    HW2 4772   5.486   6.313   3.739
  959SOL     OW 4773   2.630   0.259   7.522
  959SOL    HW1 4774   2.694   0.235   7.590
  959SOL    HW2 4775   2.682   0.299   7.453
  960SOL     OW 4776   5.956   0.355  12.076
  960SOL    HW1 4777   5.948   0.334  11.983
  960SOL    HW2 4778   5.981   0.273  12.117
  961SOL     OW 4779   7.469  10.751   7.093
  961SOL    HW1 4780   7.550  10.802   7.088
  961SOL    HW2 4781   7.494  10.673   7.143
  962SOL     OW 4782   5.221   3.609   2.807
  962SOL    HW1 4783   5.257   3.577   2.890
  962SOL    HW2 4784   5.167   3.537   2.776
  963SOL     OW 4785  11.737   9.592  12.550
  963SOL    HW1 4786  11.721   9.515  12.603
  963SOL    HW2 4787  11.733   9.665  12.612
  964SOL     OW 4788  13.350   0.681   9.889
  964SOL    HW1 4789  13.305   0.636   9.961
  964SOL    HW2 4790  13.442   0.683   9.917
  965SOL     OW 4791  14.224   6.327   7.028
  965SOL    HW1 4792  14.210   6.375   7.110
  965SOL    HW2 4793  14.182   6.381   6.961
  966SOL     OW 4794  11.905   3.967   0.157
  966SOL    HW1 4795  11.882   4.055   0.126
  966SOL    HW2 4796  11.895   3.972   0.252
  967SOL     OW 4797  13.785   5.540   0.313
  967SOL    HW1 4798  13.795   5.574   0.224
  967SOL    HW2 4799  13.748   5.613   0.363
  968SOL     OW 4800  12.766   8.010  10.792
  968SOL    HW1 4801  12.804   7.925  10.771
  968SOL    HW2 4802  12.745   8.049  10.707
  969SOL     OW 4803  12.359   8.859  12.023
  969SOL    HW1 4804  12.291   8.923  12.002
  969SOL    HW2 4805  12.427   8.910  12.068
  970SOL     OW 4806  11.549   0.629  11.813
  970SOL    HW1 4807  11.464   0.596  11.840
  970SOL    HW2 4808  11.607   0.553  11.817
  971SOL     OW 4809   7.892  10.116   4.297
  971SOL    HW1 4810   7.864  10.089   4.384
  971SOL    HW2 4811   7.820  10.172   4.265
  972SOL     OW 4812   8.039   4.650   8.063
  972SOL    HW1 4813   8.047   4.745   8.055
  972SOL    HW2 4814   7.970   4.626   8.002
  973SOL     OW 4815   0.270  14.326   2.075
  973SOL    HW1 4816   0.272  14.246   2.128
  973SOL    HW2 4817   0.294  14.297   1.987
  974SOL     OW 4818   8.229  14.093   5.225
  974SOL    HW1 4819   8.292  14.159   5.197
  974SOL    HW2 4820   8.268  14.010   5.197
  975SOL     OW 4821   7.274  14.863   0.804
  975SOL    HW1 4822   7.352  14.860   0.749
  975SOL    HW2 4823   7.201  14.852   0.743
  976SOL     OW 4824   7.557   0.008   4.565
  976SOL    HW1 4825   7.492  14.816   4.571
  976SOL    HW2 4826   7.641  14.840   4.561
  977SOL     OW 4827   4.064   6.279  11.652
  977SOL    HW1 4828   4.127   6.275  11.581
  977SOL    HW2 4829   4.101   6.223  11.721
  978SOL     OW 4830  11.247  10.974   5.986
  978SOL    HW1 4831  11.155  10.952   5.975
  978SOL    HW2 4832  11.265  11.041   5.920
  979SOL     OW 4833   3.786   7.339  13.365
  979SOL    HW1 4834   3.700   7.350  13.406
  979SOL    HW2 4835   3.781   7.391  13.285
  980SOL     OW 4836   8.900  14.601   3.855
  980SOL    HW1 4837   8.820  14.569   3.814
  980SOL    HW2 4838   8.879  14.691   3.880
  981SOL     OW 4839   8.264   8.349  13.859
  981SOL    HW1 4840   8.178   8.386  13.879
  981SOL    HW2 4841   8.272   8.273  13.916
  982SOL     OW 4842   9.679  13.779  11.890
  982SOL    HW1 4843   9.600  13.760  11.838
  982SOL    HW2 4844   9.731  13.699  11.884
  983SOL     OW 4845   6.218   9.590   0.172
  983SOL    HW1 4846   6.226   9.658   0.105
  983SOL    HW2 4847   6.165   9.522   0.131
  984SOL     OW 4848  11.107   6.408  13.850
  984SOL    HW1 4849  11.170   6.351  13.806
  984SOL    HW2 4850  11.160   6.481  13.884
  985SOL     OW 4851   4.788   9.509   8.051
  985SOL    HW1 4852   4.694   9.526   8.042
  985SOL    HW2 4853   4.797   9.415   8.039
  986SOL     OW 4854  13.247   4.473  10.734
  986SOL    HW1 4855  13.191   4.453  10.660
  986SOL    HW2 4856  13.241   4.568  10.745
  987SOL     OW 4857   0.978  10.759  11.084
  987SOL    HW1 4858   1.037  10.831  11.062
  987SOL    HW2 4859   0.967  10.765  11.179
  988SOL     OW 4860   6.522   7.423   8.560
  988SOL    HW1 4861   6.455   7.382   8.505
  988SOL    HW2 4862   6.601   7.372   8.544
  989SOL     OW 4863  10.877  14.874  14.555
  989SOL    HW1 4864  10.882  14.837  14.467
  989SOL    HW2 4865  10.881  14.798  14.613
  990SOL     OW 4866  11.842   9.776   9.661
  990SOL    HW1 4867  11.804   9.703   9.710
  990SOL    HW2 4868  11.807   9.767   9.573
  991SOL     OW 4869   4.977   0.639   0.150
  991SOL    HW1 4870   5.040   0.687   0.096
  991SOL    HW2 4871   4.989   0.674   0.238
  992SOL     OW 4872   0.348  11.141   4.931
  992SOL    HW1 4873   0.362  11.234   4.912
  992SOL    HW2 4874   0.283  11.113   4.867
  993SOL     OW 4875   0.040  11.111  11.966
  993SOL    HW1 4876   0.119  11.067  11.997
  993SOL    HW2 4877   0.072  11.190  11.923
  994SOL     OW 4878  14.198   9.855   1.188
  994SOL    HW1 4879  14.191   9.863   1.283
  994SOL    HW2 4880  14.111   9.878   1.155
  995SOL     OW 4881   9.631   2.139  14.814
  995SOL    HW1 4882   9.637   2.218  14.760
  995SOL    HW2 4883   9.608   2.171   0.023
  996SOL     OW 4884   3.576   0.041   2.513
  996SOL    HW1 4885   3.545  14.871   2.436
  996SOL    HW2 4886   3.530   0.002   2.587
  997SOL     OW 4887   3.513   0.099   8.653
  997SOL    HW1 4888   3.485   0.062   8.737
  997SOL    HW2 4889   3.442   0.157   8.627
  998SOL     OW 4890  11.985   2.979   0.059
  998SOL    HW1 4891  11.960   3.071   0.048
  998SOL    HW2 4892  11.968   2.939  14.851
  999SOL     OW 4893   0.780   7.864  11.728
  999SOL    HW1 4894   0.711   7.927  11.705
  999SOL    HW2 4895   0.733   7.786  11.757
 1000SOL     OW 4896   1.274   6.571   9.016
 1000SOL    HW1 4897   1.313   6.507   8.957
 1000SOL    HW2 4898   1.181   6.548   9.019
 1001SOL     OW 4899   7.019   3.531  13.696
 1001SOL    HW1 4900   7.071   3.508  13.772
 1001SOL    HW2 4901   7.068   3.498  13.621
 1002SOL     OW 4902   0.131   7.226  13.462
 1002SOL    HW1 4903   0.049   7.203  13.418
 1002SOL    HW2 4904   0.154   7.312  13.427
 1003SOL     OW 4905   0.162   1.630   1.919
 1003SOL    HW1 4906   0.200   1.544   1.939
 1003SOL    HW2 4907   0.230   1.693   1.944
 1004SOL     OW 4908   0.352   1.214  14.083
 1004SOL    HW1 4909   0.431   1.191  14.034
 1004SOL    HW2 4910   0.283   1.159  14.046
 1005SOL     OW 4911  14.844   7.337  10.127
 1005SOL    HW1 4912  14.833   7.427  10.097
 1005SOL    HW2 4913   0.037   7.341  10.192
 1006SOL     OW 4914  13.136  14.787   0.188
 1006SOL    HW1 4915  13.093  14.718   0.239
 1006SOL    HW2 4916  13.146  14.859   0.250
 1007SOL     OW 4917  10.707  10.679   8.724
 1007SOL    HW1 4918  10.695  10.623   8.801
 1007SOL    HW2 4919  10.746  10.621   8.659
 1008SOL     OW 4920   3.327  13.321   0.205
 1008SOL    HW1 4921   3.315  13.416   0.200
 1008SOL    HW2 4922   3.314  13.291   0.115
 1009SOL     OW 4923   5.181   1.530   7.038
 1009SOL    HW1 4924   5.255   1.512   6.980
 1009SOL    HW2 4925   5.120   1.458   7.022
 1010SOL     OW 4926  14.321   7.611   6.148
 1010SOL    HW1 4927  14.340   7.614   6.242
 1010SOL    HW2 4928  14.292   7.521   6.133
 1011SOL     OW 4929   1.305  10.066   6.882
 1011SOL    HW1 4930   1.316  10.160   6.891
 1011SOL    HW2 4931   1.350  10.045   6.800
 1012SOL     OW 4932   4.510  12.864   5.832
 1012SOL    HW1 4933   4.530  12.799   5.899
 1012SOL    HW2 4934   4.430  12.833   5.790
 1013SOL     OW 4935  11.336  11.723  13.512
 1013SOL    HW1 4936  11.301  11.647  13.464
 1013SOL    HW2 4937  11.298  11.715  13.600
 1014SOL     OW 4938   8.437   5.913  13.220
 1014SOL    HW1 4939   8.363   5.966  13.191
 1014SOL    HW2 4940   8.492   5.903  13.142
 1015SOL     OW 4941   9.045   7.062  13.457
 1015SOL    HW1 4942   9.127   7.026  13.425
 1015SOL    HW2 4943   8.995   6.986  13.486
 1016SOL     OW 4944  12.193  10.100   4.471
 1016SOL    HW1 4945  12.199  10.008   4.496
 1016SOL    HW2 4946  12.171  10.098   4.378
 1017SOL     OW 4947   7.777   7.363   1.180
 1017SOL    HW1 4948   7.816   7.447   1.157
 1017SOL    HW2 4949   7.846   7.319   1.230
 1018SOL     OW 4950  13.068  11.568   2.946
 1018SOL    HW1 4951  13.133  11.607   3.004
 1018SOL    HW2 4952  13.090  11.602   2.859
 1019SOL     OW 4953  12.910  10.975   6.281
 1019SOL    HW1 4954  12.949  11.061   6.297
 1019SOL    HW2 4955  12.907  10.934   6.367
 1020SOL     OW 4956  10.518  12.748   3.477
 1020SOL    HW1 4957  10.470  12.678   3.433
 1020SOL    HW2 4958  10.516  12.724   3.570
 1021SOL     OW 4959   5.780  10.875   5.507
 1021SOL    HW1 4960   5.785  10.845   5.416
 1021SOL    HW2 4961   5.707  10.825   5.544
 1022SOL     OW 4962  12.296   5.772   1.876
 1022SOL    HW1 4963  12.298   5.813   1.789
 1022SOL    HW2 4964  12.376   5.804   1.919
 1023SOL     OW 4965  10.036   5.466  10.930
 1023SOL    HW1 4966  10.022   5.559  10.915
 1023SOL    HW2 4967  10.095   5.462  11.005
 1024SOL     OW 4968   4.702   8.692  13.723
 1024SOL    HW1 4969   4.675   8.735  13.642
 1024SOL    HW2 4970   4.734   8.763  13.779
 1025SOL     OW 4971  10.632  13.754   6.460
 1025SOL    HW1 4972  10.584  13.724   6.537
 1025SOL    HW2 4973  10.572  13.814   6.416
 1026SOL     OW 4974  13.743   4.712   7.284
 1026SOL    HW1 4975  13.799   4.725   7.207
 1026SOL    HW2 4976  13.742   4.798   7.327
 1027SOL     OW 4977  10.625  11.368  13.731
 1027SOL    HW1 4978  10.651  11.455  13.762
 1027SOL    HW2 4979  10.547  11.384  13.677
 1028SOL     OW 4980   1.198  14.800   4.171
 1028SOL    HW1 4981   1.148  14.732   4.126
 1028SOL    HW2 4982   1.223  14.761   4.255
 1029SOL     OW 4983  10.286  11.579   6.515
 1029SOL    HW1 4984  10.298  11.673   6.525
 1029SOL    HW2 4985  10.365  11.548   6.470
 1030SOL     OW 4986   0.662  10.245  11.431
 1030SOL    HW1 4987   0.734  10.210  11.379
 1030SOL    HW2 4988   0.698  10.323  11.472
 1031SOL     OW 4989  13.617  14.736  12.814
 1031SOL    HW1 4990  13.645  14.820  12.779
 1031SOL    HW2 4991  13.652  14.671  12.752
 1032SOL     OW 4992  11.707   2.131   1.949
 1032SOL    HW1 4993  11.743   2.140   1.861
 1032SOL    HW2 4994  11.781   2.150   2.007
 1033SOL     OW 4995  10.461  14.751   8.327
 1033SOL    HW1 4996  10.398  14.679   8.338
 1033SOL    HW2 4997  10.473  14.758   8.233
 1034SOL     OW 4998   2.084   9.482   6.899
 1034SOL    HW1 4999   2.103   9.490   6.992
 1034SOL    HW2 5000   2.156   9.429   6.864
 1035SOL     OW 5001  11.099   9.428  10.758
 1035SOL    HW1 5002  11.100   9.433  10.662
 1035SOL    HW2 5003  11.130   9.513  10.787
 1036SOL     OW 5004   2.555   2.494   6.703
 1036SOL    HW1 5005   2.611   2.572   6.704
 1036SOL    HW2 5006   2.477   2.522   6.656
 1037SOL     OW 5007   7.022  13.393  14.135
 1037SOL    HW1 5008   6.928  13.385  14.152
 1037SOL    HW2 5009   7.027  13.428  14.046
 1038SOL     OW 5010   3.031   0.787   9.926
 1038SOL    HW1 5011   2.983   0.830   9.855
 1038SOL    HW2 5012   2.969   0.723   9.961
 1039SOL     OW 5013   2.937   9.255  11.951
 1039SOL    HW1 5014   3.018   9.297  11.921
 1039SOL    HW2 5015   2.955   9.161  11.945
 1040SOL     OW 5016   7.720   4.684   1.322
 1040SOL    HW1 5017   7.731   4.778   1.334
 1040SOL    HW2 5018   7.789   4.659   1.261
 1041SOL     OW 5019   4.781   0.085   7.425
 1041SOL    HW1 5020   4.715   0.018   7.406
 1041SOL    HW2 5021   4.786   0.087   7.521
 1042SOL     OW 5022  13.436   4.883   7.730
 1042SOL    HW1 5023  13.442   4.940   7.806
 1042SOL    HW2 5024  13.425   4.795   7.768
 1043SOL     OW 5025   4.727   0.127   7.683
 1043SOL    HW1 5026   4.738   0.041   7.723
 1043SOL    HW2 5027   4.633   0.134   7.668
 1044SOL     OW 5028   2.176   0.662   2.566
 1044SOL    HW1 5029   2.260   0.671   2.610
 1044SOL    HW2 5030   2.137   0.749   2.569
 1045SOL     OW 5031   8.743   5.241   4.015
 1045SOL    HW1 5032   8.800   5.266   4.088
 1045SOL    HW2 5033   8.678   5.182   4.054
 1046SOL     OW 5034   8.608   4.141  14.828
 1046SOL    HW1 5035   8.521   4.132  14.788
 1046SOL    HW2 5036   8.614   4.234  14.850
 1047SOL     OW 5037  12.102   8.511  11.444
 1047SOL    HW1 5038  12.150   8.591  11.419
 1047SOL    HW2 5039  12.102   8.512  11.539
 1048SOL     OW 5040   7.886   9.230   0.153
 1048SOL    HW1 5041   7.975   9.256   0.128
 1048SOL    HW2 5042   7.830   9.299   0.119
 1049SOL     OW 5043   7.935  14.523  14.740
 1049SOL    HW1 5044   8.015  14.506  14.790
 1049SOL    HW2 5045   7.880  14.446  14.757
 1050SOL     OW 5046  13.863   0.761   5.527
 1050SOL    HW1 5047  13.859   0.850   5.562
 1050SOL    HW2 5048  13.771   0.739   5.509
 1051SOL     OW 5049   9.936  10.485   3.066
 1051SOL    HW1 5050   9.861  10.493   3.008
 1051SOL    HW2 5051   9.939  10.392   3.089
 1052SOL     OW 5052   5.692   8.181   8.103
 1052SOL    HW1 5053   5.729   8.133   8.177
 1052SOL    HW2 5054   5.726   8.270   8.113
 1053SOL     OW 5055  12.401  13.734   6.481
 1053SOL    HW1 5056  12.492  13.705   6.483
 1053SOL    HW2 5057  12.402  13.820   6.523
 1054SOL     OW 5058   2.617  11.271   4.612
 1054SOL    HW1 5059   2.674  11.343   4.640
 1054SOL    HW2 5060   2.670  11.222   4.549
 1055SOL     OW 5061  10.135   6.295   6.723
 1055SOL    HW1 5062  10.206   6.230   6.725
 1055SOL    HW2 5063  10.062   6.251   6.765
 1056SOL     OW 5064  12.450   5.414   5.369
 1056SOL    HW1 5065  12.493   5.329   5.372
 1056SOL    HW2 5066  12.419   5.424   5.279
 1057SOL     OW 5067   6.193   2.876  14.283
 1057SOL    HW1 5068   6.285   2.865  14.309
 1057SOL    HW2 5069   6.143   2.839  14.356
 1058SOL     OW 5070   8.145  10.647   0.718
 1058SOL    HW1 5071   8.191  10.630   0.636
 1058SOL    HW2 5072   8.213  10.678   0.778
 1059SOL     OW 5073   5.647   9.815   9.130
 1059SOL    HW1 5074   5.615   9.769   9.052
 1059SOL    HW2 5075   5.725   9.862   9.099
 1060SOL     OW 5076   0.324  12.037  13.710
 1060SOL    HW1 5077   0.310  12.020  13.617
 1060SOL    HW2 5078   0.327  11.950  13.750
 1061SOL     OW 5079  14.520   3.483   7.561
 1061SOL    HW1 5080  14.473   3.427   7.499
 1061SOL    HW2 5081  14.504   3.572   7.530
 1062SOL     OW 5082   6.280  12.204   3.927
 1062SOL    HW1 5083   6.195  12.165   3.905
 1062SOL    HW2 5084   6.319  12.225   3.842
 1063SOL     OW 5085   0.748   0.324   0.483
 1063SOL    HW1 5086   0.810   0.336   0.412
 1063SOL    HW2 5087   0.705   0.408   0.493
 1064SOL     OW 5088   4.143  14.597   3.606
 1064SOL    HW1 5089   4.081  14.586   3.678
 1064SOL    HW2 5090   4.093  14.642   3.538
 1065SOL     OW 5091   7.720   0.603   7.262
 1065SOL    HW1 5092   7.659   0.620   7.190
 1065SOL    HW2 5093   7.698   0.514   7.291
 1066SOL     OW 5094   9.648   4.227   5.011
 1066SOL    HW1 5095   9.684   4.277   5.084
 1066SOL    HW2 5096   9.722   4.179   4.975
 1067SOL     OW 5097   9.331   3.405   9.080
 1067SOL    HW1 5098   9.304   3.478   9.024
 1067SOL    HW2 5099   9.374   3.447   9.155
 1068SOL     OW 5100   6.085   9.842   4.761
 1068SOL    HW1 5101   5.996   9.877   4.772
 1068SOL    HW2 5102   6.072   9.748   4.751
 1069SOL     OW 5103   0.068   0.761   7.359
 1069SOL    HW1 5104   0.049   0.852   7.337
 1069SOL    HW2 5105   0.028   0.748   7.445
 1070SOL     OW 5106   5.224   4.893   9.769
 1070SOL    HW1 5107   5.176   4.826   9.818
 1070SOL    HW2 5108   5.156   4.951   9.735
 1071SOL     OW 5109  13.448   2.583  14.011
 1071SOL    HW1 5110  13.430   2.588  14.105
 1071SOL    HW2 5111  13.489   2.667  13.990
 1072SOL     OW 5112  14.101  14.655   2.439
 1072SOL    HW1 5113  14.077  14.704   2.517
 1072SOL    HW2 5114  14.020  14.650   2.387
 1073SOL     OW 5115   3.279  12.150   2.294
 1073SOL    HW1 5116   3.217  12.155   2.221
 1073SOL    HW2 5117   3.251  12.073   2.344
 1074SOL     OW 5118  10.756  11.542  10.718
 1074SOL    HW1 5119  10.816  11.562  10.790
 1074SOL    HW2 5120  10.684  11.494  10.760
 1075SOL     OW 5121  12.537  12.933   1.821
 1075SOL    HW1 5122  12.497  13.017   1.843
 1075SOL    HW2 5123  12.467  12.883   1.780
 1076SOL     OW 5124   8.115   6.926  11.471
 1076SOL    HW1 5125   8.076   7.011  11.493
 1076SOL    HW2 5126   8.201   6.948  11.435
 1077SOL     OW 5127  14.003  10.282   5.646
 1077SOL    HW1 5128  13.937  10.259   5.711
 1077SOL    HW2 5129  14.031  10.370   5.671
 1078SOL     OW 5130   6.578  13.893   1.236
 1078SOL    HW1 5131   6.606  13.830   1.169
 1078SOL    HW2 5132   6.567  13.975   1.188
 1079SOL     OW 5133  14.075   1.726   5.605
 1079SOL    HW1 5134  14.059   1.792   5.672
 1079SOL    HW2 5135  14.140   1.667   5.644
 1080SOL     OW 5136   5.752   2.351  12.278
 1080SOL    HW1 5137   5.717   2.369  12.190
 1080SOL    HW2 5138   5.748   2.255  12.286
 1081SOL     OW 5139   9.014   2.874   2.519
 1081SOL    HW1 5140   9.041   2.945   2.461
 1081SOL    HW2 5141   9.074   2.802   2.499
 1082SOL     OW 5142   1.022  13.969   3.783
 1082SOL    HW1 5143   1.096  13.909   3.781
 1082SOL    HW2 5144   1.047  14.040   3.724
 1083SOL     OW 5145   5.079  11.519  10.768
 1083SOL    HW1 5146   5.133  11.483  10.698
 1083SOL    HW2 5147   5.116  11.482  10.848
 1084SOL     OW 5148   9.805  10.284   4.992
 1084SOL    HW1 5149   9.842  10.289   4.904
 1084SOL    HW2 5150   9.757  10.366   5.003
 1085SOL     OW 5151   4.109   2.339  14.376
 1085SOL    HW1 5152   4.146   2.343  14.464
 1085SOL    HW2 5153   4.179   2.300  14.323
 1086SOL     OW 5154   3.360  12.256   9.101
 1086SOL    HW1 5155   3.323  12.305   9.028
 1086SOL    HW2 5156   3.450  12.288   9.109
 1087SOL     OW 5157   4.089  13.978   1.862
 1087SOL    HW1 5158   4.143  13.929   1.800
 1087SOL    HW2 5159   4.062  14.056   1.813
 1088SOL     OW 5160  10.276   0.281   8.136
 1088SOL    HW1 5161  10.207   0.231   8.093
 1088SOL    HW2 5162  10.316   0.219   8.198
 1089SOL     OW 5163   2.674   3.433  14.842
 1089SOL    HW1 5164   2.711   3.517  14.867
 1089SOL    HW2 5165   2.739   3.369  14.869
 1090SOL     OW 5166   3.727   6.008   2.029
 1090SOL    HW1 5167   3.813   6.045   2.049
 1090SOL    HW2 5168   3.684   6.074   1.974
 1091SOL     OW 5169   1.677   0.188  10.324
 1091SOL    HW1 5170   1.702   0.234  10.244
 1091SOL    HW2 5171   1.760   0.171  10.370
 1092SOL     OW 5172   5.997  13.427   2.796
 1092SOL    HW1 5173   5.977  13.442   2.889
 1092SOL    HW2 5174   5.985  13.513   2.755
 1093SOL     OW 5175   4.732  12.506  14.688
 1093SOL    HW1 5176   4.757  12.438  14.626
 1093SOL    HW2 5177   4.700  12.578  14.633
 1094SOL     OW 5178   4.289   1.289  12.744
 1094SOL    HW1 5179   4.237   1.264  12.667
 1094SOL    HW2 5180   4.328   1.373  12.719
 1095SOL     OW 5181   5.541  10.762   3.442
 1095SOL    HW1 5182   5.525  10.691   3.505
 1095SOL    HW2 5183   5.503  10.840   3.483
 1096SOL     OW 5184   7.010   2.067  11.992
 1096SOL    HW1 5185   6.982   2.114  11.914
 1096SOL    HW2 5186   6.931   2.059  12.045
 1097SOL     OW 5187  11.271   5.064   8.594
 1097SOL    HW1 5188  11.272   5.158   8.580
 1097SOL    HW2 5189  11.183   5.045   8.628
 1098SOL     OW 5190  12.065   4.664  11.322
 1098SOL    HW1 5191  12.134   4.598  11.331
 1098SOL    HW2 5192  11.984   4.617  11.341
 1099SOL     OW 5193  13.225  11.691  12.344
 1099SOL    HW1 5194  13.239  11.733  12.429
 1099SOL    HW2 5195  13.133  11.665  12.344
 1100SOL     OW 5196  14.449   3.232   4.339
 1100SOL    HW1 5197  14.482   3.143   4.323
 1100SOL    HW2 5198  14.426   3.232   4.432
 1101SOL     OW 5199  13.578   0.709   2.139
 1101SOL    HW1 5200  13.645   0.647   2.109
 1101SOL    HW2 5201  13.518   0.716   2.065
 1102SOL     OW 5202   2.639   8.521   5.451
 1102SOL    HW1 5203   2.596   8.455   5.505
 1102SOL    HW2 5204   2.714   8.550   5.503
 1103SOL     OW 5205  12.557   4.010   2.559
 1103SOL    HW1 5206  12.571   4.000   2.465
 1103SOL    HW2 5207  12.465   3.986   2.572
 1104SOL     OW 5208   0.845   3.597   6.431
 1104SOL    HW1 5209   0.787   3.529   6.397
 1104SOL    HW2 5210   0.884   3.559   6.510
 1105SOL     OW 5211   9.033  14.324   6.276
 1105SOL    HW1 5212   9.008  14.315   6.184
 1105SOL    HW2 5213   8.961  14.372   6.316
 1106SOL     OW 5214   4.818   2.448  13.453
 1106SOL    HW1 5215   4.726   2.472  13.443
 1106SOL    HW2 5216   4.862   2.531  13.470
 1107SOL     OW 5217   4.288   2.174   5.654
 1107SOL    HW1 5218   4.219   2.153   5.592
 1107SOL    HW2 5219   4.309   2.090   5.696
 1108SOL     OW 5220  14.473   4.339   6.493
 1108SOL    HW1 5221  14.442   4.249   6.505
 1108SOL    HW2 5222  14.476   4.350   6.398
 1109SOL     OW 5223  14.375   7.228   8.870
 1109SOL    HW1 5224  14.320   7.189   8.802
 1109SOL    HW2 5225  14.313   7.267   8.932
 1110SOL     OW 5226   0.623   7.620  11.351
 1110SOL    HW1 5227   0.588   7.628  11.262
 1110SOL    HW2 5228   0.642   7.710  11.378
 1111SOL     OW 5229  10.593   6.260   1.945
 1111SOL    HW1 5230  10.576   6.172   1.978
 1111SOL    HW2 5231  10.591   6.250   1.850
 1112SOL     OW 5232   1.568  14.794  10.057
 1112SOL    HW1 5233   1.512  14.861  10.018
 1112SOL    HW2 5234   1.655  14.835  10.061
 1113SOL     OW 5235   1.832  13.264   4.990
 1113SOL    HW1 5236   1.843  13.263   5.086
 1113SOL    HW2 5237   1.824  13.357   4.969
 1114SOL     OW 5238  11.914   2.749   5.607
 1114SOL    HW1 5239  11.942   2.663   5.636
 1114SOL    HW2 5240  11.986   2.808   5.630
 1115SOL     OW 5241   6.396   3.293  13.623
 1115SOL    HW1 5242   6.486   3.323  13.632
 1115SOL    HW2 5243   6.393   3.253  13.536
 1116SOL     OW 5244  11.518   6.953   2.055
 1116SOL    HW1 5245  11.432   6.977   2.090
 1116SOL    HW2 5246  11.568   7.034   2.059
 1117SOL     OW 5247   3.220  14.059   7.640
 1117SOL    HW1 5248   3.226  14.080   7.547
 1117SOL    HW2 5249   3.286  13.991   7.653
 1118SOL     OW 5250  12.794   2.401  14.857
 1118SOL    HW1 5251  12.788   2.484  14.809
 1118SOL    HW2 5252  12.813   2.427   0.070
 1119SOL     OW 5253   9.638   8.480   7.802
 1119SOL    HW1 5254   9.688   8.493   7.721
 1119SOL    HW2 5255   9.554   8.523   7.785
 1120SOL     OW 5256  12.131   9.040   0.657
 1120SOL    HW1 5257  12.088   8.958   0.682
 1120SOL    HW2 5258  12.217   9.013   0.624
 1121SOL     OW 5259  13.266  10.957   8.253
 1121SOL    HW1 5260  13.212  10.989   8.181
 1121SOL    HW2 5261  13.281  10.865   8.234
 1122SOL     OW 5262   1.116   4.021   8.215
 1122SOL    HW1 5263   1.107   3.993   8.124
 1122SOL    HW2 5264   1.110   4.116   8.211
 1123SOL     OW 5265  10.001   3.850  13.109
 1123SOL    HW1 5266   9.994   3.946  13.105
 1123SOL    HW2 5267   9.926   3.819  13.058
 1124SOL     OW 5268   4.794   5.577   6.050
 1124SOL    HW1 5269   4.795   5.496   6.000
 1124SOL    HW2 5270   4.761   5.552   6.136
 1125SOL     OW 5271   8.581   7.205  13.624
 1125SOL    HW1 5272   8.515   7.197  13.556
 1125SOL    HW2 5273   8.614   7.294  13.616
 1126SOL     OW 5274  12.303   2.657   1.802
 1126SOL    HW1 5275  12.241   2.651   1.875
 1126SOL    HW2 5276  12.254   2.624   1.726
 1127SOL     OW 5277   6.555   0.892   3.565
 1127SOL    HW1 5278   6.504   0.910   3.644
 1127SOL    HW2 5279   6.491   0.863   3.500
 1128SOL     OW 5280  12.895   1.425   5.600
 1128SOL    HW1 5281  12.857   1.370   5.532
 1128SOL    HW2 5282  12.897   1.370   5.678
 1129SOL     OW 5283   8.386   8.105   9.385
 1129SOL    HW1 5284   8.351   8.166   9.321
 1129SOL    HW2 5285   8.443   8.158   9.440
 1130SOL     OW 5286  12.627   6.870  10.731
 1130SOL    HW1 5287  12.533   6.882  10.741
 1130SOL    HW2 5288  12.657   6.946  10.682
 1131SOL     OW 5289  10.539  11.223  11.661
 1131SOL    HW1 5290  10.465  11.258  11.611
 1131SOL    HW2 5291  10.587  11.169  11.599
 1132SOL     OW 5292   0.548   7.666   4.639
 1132SOL    HW1 5293   0.619   7.686   4.700
 1132SOL    HW2 5294   0.487   7.612   4.689
 1133SOL     OW 5295  14.773   1.159  10.713
 1133SOL    HW1 5296  14.837   1.220  10.676
 1133SOL    HW2 5297  14.703   1.215  10.747
 1134SOL     OW 5298   5.010   7.834   7.324
 1134SOL    HW1 5299   4.975   7.896   7.388
 1134SOL    HW2 5300   5.092   7.804   7.362
 1135SOL     OW 5301   7.768   1.777   6.138
 1135SOL    HW1 5302   7.681   1.768   6.098
 1135SOL    HW2 5303   7.775   1.703   6.198
 1136SOL     OW 5304  12.494   6.822  13.398
 1136SOL    HW1 5305  12.510   6.901  13.347
 1136SOL    HW2 5306  12.466   6.757  13.334
 1137SOL     OW 5307  12.797   5.060  14.273
 1137SOL    HW1 5308  12.727   5.026  14.329
 1137SOL    HW2 5309  12.840   4.982  14.237
 1138SOL     OW 5310   0.038   3.448  12.809
 1138SOL    HW1 5311   0.037   3.398  12.727
 1138SOL    HW2 5312   0.008   3.386  12.875
 1139SOL     OW 5313   8.703   1.739  12.249
 1139SOL    HW1 5314   8.673   1.685  12.322
 1139SOL    HW2 5315   8.796   1.751  12.265
 1140SOL     OW 5316   6.804  14.717   5.340
 1140SOL    HW1 5317   6.848  14.679   5.416
 1140SOL    HW2 5318   6.860  14.790   5.313
 1141SOL     OW 5319   1.646  14.122   2.549
 1141SOL    HW1 5320   1.609  14.087   2.468
 1141SOL    HW2 5321   1.675  14.210   2.525
 1142SOL     OW 5322   8.819   5.412   0.646
 1142SOL    HW1 5323   8.745   5.403   0.586
 1142SOL    HW2 5324   8.879   5.341   0.621
 1143SOL     OW 5325  11.979   1.866  11.737
 1143SOL    HW1 5326  12.061   1.905  11.767
 1143SOL    HW2 5327  11.978   1.779  11.776
 1144SOL     OW 5328   8.015  10.250   4.966
 1144SOL    HW1 5329   8.103  10.277   4.994
 1144SOL    HW2 5330   8.030  10.186   4.897
 1145SOL     OW 5331   9.372  11.211   9.560
 1145SOL    HW1 5332   9.434  11.284   9.564
 1145SOL    HW2 5333   9.346  11.206   9.468
 1146SOL     OW 5334  13.217  14.821  10.772
 1146SOL    HW1 5335  13.199  14.779  10.688
 1146SOL    HW2 5336  13.311  14.806  10.786
 1147SOL     OW 5337   3.408  10.217   2.759
 1147SOL    HW1 5338   3.407  10.192   2.851
 1147SOL    HW2 5339   3.498  10.244   2.742
 1148SOL     OW 5340   3.538   8.669   9.340
 1148SOL    HW1 5341   3.488   8.589   9.323
 1148SOL    HW2 5342   3.559   8.666   9.433
 1149SOL     OW 5343  12.458   2.296   0.061
 1149SOL    HW1 5344  12.547   2.264   0.048
 1149SOL    HW2 5345  12.404   2.217   0.062
 1150SOL     OW 5346  11.365   4.849  14.671
 1150SOL    HW1 5347  11.319   4.808  14.743
 1150SOL    HW2 5348  11.308   4.920  14.643
 1151SOL     OW 5349  11.879   9.846   6.275
 1151SOL    HW1 5350  11.927   9.860   6.357
 1151SOL    HW2 5351  11.882   9.931   6.231
 1152SOL     OW 5352  13.319   3.128   9.315
 1152SOL    HW1 5353  13.365   3.203   9.277
 1152SOL    HW2 5354  13.330   3.139   9.410
 1153SOL     OW 5355   4.719   5.329   4.322
 1153SOL    HW1 5356   4.627   5.354   4.316
 1153SOL    HW2 5357   4.718   5.235   4.337
 1154SOL     OW 5358   6.519  14.739   0.337
 1154SOL    HW1 5359   6.467  14.705   0.264
 1154SOL    HW2 5360   6.572  14.809   0.298
 1155SOL     OW 5361   5.821   6.227  14.845
 1155SOL    HW1 5362   5.733   6.228   0.004
 1155SOL    HW2 5363   5.847   6.135  14.845
 1156SOL     OW 5364   5.711   7.635   0.929
 1156SOL    HW1 5365   5.735   7.714   0.880
 1156SOL    HW2 5366   5.616   7.635   0.928
 1157SOL     OW 5367   1.173   8.411   0.977
 1157SOL    HW1 5368   1.128   8.481   0.929
 1157SOL    HW2 5369   1.240   8.379   0.916
 1158SOL     OW 5370  11.303   5.844   2.915
 1158SOL    HW1 5371  11.398   5.856   2.923
 1158SOL    HW2 5372  11.276   5.910   2.851
 1159SOL     OW 5373  10.903   1.589   0.594
 1159SOL    HW1 5374  10.861   1.503   0.590
 1159SOL    HW2 5375  10.879   1.631   0.511
 1160SOL     OW 5376   2.029   6.368  14.094
 1160SOL    HW1 5377   2.074   6.450  14.074
 1160SOL    HW2 5378   1.967   6.356  14.022
 1161SOL     OW 5379  11.527   6.656   3.967
 1161SOL    HW1 5380  11.607   6.687   3.926
 1161SOL    HW2 5381  11.485   6.735   4.001
 1162SOL     OW 5382   4.042   0.404   4.291
 1162SOL    HW1 5383   4.127   0.405   4.336
 1162SOL    HW2 5384   4.019   0.311   4.287
 1163SOL     OW 5385   4.307   0.467  12.433
 1163SOL    HW1 5386   4.239   0.404  12.459
 1163SOL    HW2 5387   4.355   0.423  12.363
 1164SOL     OW 5388   0.985  10.386   5.121
 1164SOL    HW1 5389   0.909  10.343   5.082
 1164SOL    HW2 5390   0.960  10.478   5.125
 1165SOL     OW 5391   1.645   3.645  11.649
 1165SOL    HW1 5392   1.577   3.712  11.641
 1165SOL    HW2 5393   1.728   3.694  11.643
 1166SOL     OW 5394   9.652  11.945   1.119
 1166SOL    HW1 5395   9.634  11.873   1.058
 1166SOL    HW2 5396   9.719  11.997   1.075
 1167SOL     OW 5397   4.635   1.663   4.063
 1167SOL    HW1 5398   4.671   1.580   4.031
 1167SOL    HW2 5399   4.692   1.686   4.137
 1168SOL     OW 5400  14.210  13.504  10.759
 1168SOL    HW1 5401  14.146  13.481  10.692
 1168SOL    HW2 5402  14.275  13.434  10.754
 1169SOL     OW 5403  14.168  13.749  10.853
 1169SOL    HW1 5404  14.200  13.660  10.841
 1169SOL    HW2 5405  14.086  13.752  10.804
 1170SOL     OW 5406   9.513   6.701   5.518
 1170SOL    HW1 5407   9.471   6.691   5.433
 1170SOL    HW2 5408   9.547   6.791   5.518
 1171SOL     OW 5409   3.477  12.466   4.090
 1171SOL    HW1 5410   3.392  12.420   4.095
 1171SOL    HW2 5411   3.541  12.397   4.108
 1172SOL     OW 5412   4.833   0.837   4.857
 1172SOL    HW1 5413   4.820   0.912   4.799
 1172SOL    HW2 5414   4.758   0.839   4.917
 1173SOL     OW 5415   1.407  13.710   2.542
 1173SOL    HW1 5416   1.434  13.622   2.517
 1173SOL    HW2 5417   1.417  13.763   2.463
 1174SOL     OW 5418   2.492  10.256   4.819
 1174SOL    HW1 5419   2.438  10.275   4.742
 1174SOL    HW2 5420   2.553  10.188   4.789
 1175SOL     OW 5421   9.614  10.178   3.273
 1175SOL    HW1 5422   9.547  10.171   3.205
 1175SOL    HW2 5423   9.647  10.089   3.283
 1176SOL     OW 5424   3.246  10.322   8.750
 1176SOL    HW1 5425   3.186  10.362   8.687
 1176SOL    HW2 5426   3.286  10.396   8.796
 1177SOL     OW 5427   6.244  11.046  11.207
 1177SOL    HW1 5428   6.322  11.100  11.203
 1177SOL    HW2 5429   6.265  10.970  11.153
 1178SOL     OW 5430  11.334   3.336   4.518
 1178SOL    HW1 5431  11.405   3.399   4.534
 1178SOL    HW2 5432  11.374   3.251   4.533
 1179SOL     OW 5433  10.485  14.605  11.496
 1179SOL    HW1 5434  10.553  14.539  11.510
 1179SOL    HW2 5435  10.508  14.646  11.413
 1180SOL     OW 5436   6.005  11.206   9.206
 1180SOL    HW1 5437   5.967  11.285   9.244
 1180SOL    HW2 5438   6.092  11.233   9.176
 1181SOL     OW 5439  14.657  10.815   6.011
 1181SOL    HW1 5440  14.692  10.845   5.927
 1181SOL    HW2 5441  14.595  10.745   5.987
 1182SOL     OW 5442   5.739   6.699  12.899
 1182SOL    HW1 5443   5.650   6.733  12.908
 1182SOL    HW2 5444   5.777   6.706  12.986
 1183SOL     OW 5445   8.818  11.321  14.422
 1183SOL    HW1 5446   8.894  11.264  14.429
 1183SOL    HW2 5447   8.743  11.263  14.433
 1184SOL     OW 5448   5.806   4.037   7.956
 1184SOL    HW1 5449   5.813   4.105   8.023
 1184SOL    HW2 5450   5.876   4.058   7.894
 1185SOL     OW 5451  14.379   9.331  11.848
 1185SOL    HW1 5452  14.341   9.254  11.805
 1185SOL    HW2 5453  14.307   9.394  11.853
 1186SOL     OW 5454  14.458   2.294   9.377
 1186SOL    HW1 5455  14.449   2.252   9.292
 1186SOL    HW2 5456  14.476   2.223   9.438
 1187SOL     OW 5457   7.234   3.903   7.570
 1187SOL    HW1 5458   7.184   3.917   7.650
 1187SOL    HW2 5459   7.285   3.983   7.559
 1188SOL     OW 5460   1.814  13.372   1.780
 1188SOL    HW1 5461   1.774  13.438   1.724
 1188SOL    HW2 5462   1.894  13.346   1.734
 1189SOL     OW 5463   7.135   0.792  11.487
 1189SOL    HW1 5464   7.099   0.762  11.403
 1189SOL    HW2 5465   7.191   0.721  11.516
 1190SOL     OW 5466   2.487   4.144   3.953
 1190SOL    HW1 5467   2.440   4.114   4.031
 1190SOL    HW2 5468   2.478   4.073   3.890
 1191SOL     OW 5469   9.608  10.184   6.239
 1191SOL    HW1 5470   9.545  10.126   6.281
 1191SOL    HW2 5471   9.554  10.253   6.200
 1192SOL     OW 5472   6.808   3.512  11.149
 1192SOL    HW1 5473   6.803   3.569  11.072
 1192SOL    HW2 5474   6.868   3.442  11.123
 1193SOL     OW 5475   6.297  10.195  12.531
 1193SOL    HW1 5476   6.305  10.277  12.581
 1193SOL    HW2 5477   6.371  10.196  12.471
 1194SOL     OW 5478  11.142   0.912   0.575
 1194SOL    HW1 5479  11.075   0.943   0.636
 1194SOL    HW2 5480  11.160   0.987   0.519
 1195SOL     OW 5481   6.257  14.092   3.127
 1195SOL    HW1 5482   6.317  14.101   3.201
 1195SOL    HW2 5483   6.170  14.084   3.167
 1196SOL     OW 5484   5.756   9.916   4.288
 1196SOL    HW1 5485   5.801   9.837   4.320
 1196SOL    HW2 5486   5.679   9.882   4.241
 1197SOL     OW 5487  12.817   1.887   0.157
 1197SOL    HW1 5488  12.889   1.887   0.094
 1197SOL    HW2 5489  12.852   1.841   0.233
 1198SOL     OW 5490   9.319  14.659   6.429
 1198SOL    HW1 5491   9.314  14.699   6.516
 1198SOL    HW2 5492   9.297  14.567   6.443
 1199SOL     OW 5493   2.016   9.252  10.277
 1199SOL    HW1 5494   1.970   9.240  10.194
 1199SOL    HW2 5495   2.051   9.165  10.297
 1200SOL     OW 5496   3.490   4.032   9.293
 1200SOL    HW1 5497   3.437   4.111   9.282
 1200SOL    HW2 5498   3.427   3.963   9.311
 1201SOL     OW 5499  10.739  12.071  12.481
 1201SOL    HW1 5500  10.742  11.984  12.442
 1201SOL    HW2 5501  10.668  12.067  12.544
 1202SOL     OW 5502   1.538  12.524  10.442
 1202SOL    HW1 5503   1.509  12.433  10.454
 1202SOL    HW2 5504   1.581  12.546  10.525
 1203SOL     OW 5505   1.559   7.062   5.187
 1203SOL    HW1 5506   1.522   7.151   5.186
 1203SOL    HW2 5507   1.488   7.007   5.221
 1204SOL     OW 5508  11.284   5.224  13.297
 1204SOL    HW1 5509  11.224   5.260  13.363
 1204SOL    HW2 5510  11.255   5.133  13.286
 1205SOL     OW 5511   7.302   4.532  11.484
 1205SOL    HW1 5512   7.231   4.572  11.534
 1205SOL    HW2 5513   7.371   4.599  11.484
 1206SOL     OW 5514   8.642   9.290  10.930
 1206SOL    HW1 5515   8.596   9.296  11.014
 1206SOL    HW2 5516   8.735   9.296  10.954
 1207SOL     OW 5517   7.702   0.231   4.358
 1207SOL    HW1 5518   7.737   0.267   4.440
 1207SOL    HW2 5519   7.771   0.174   4.326
 1208SOL     OW 5520   3.671   2.373   7.878
 1208SOL    HW1 5521   3.618   2.294   7.889
 1208SOL    HW2 5522   3.610   2.445   7.893
 1209SOL     OW 5523   7.629   7.661   6.537
 1209SOL    HW1 5524   7.622   7.567   6.556
 1209SOL    HW2 5525   7.722   7.681   6.548
 1210SOL     OW 5526   9.016  14.026   9.482
 1210SOL    HW1 5527   8.981  14.095   9.425
 1210SOL    HW2 5528   9.056  14.073   9.555
 1211SOL     OW 5529   3.767   3.788  10.447
 1211SOL    HW1 5530   3.819   3.785  10.367
 1211SOL    HW2 5531   3.821   3.838  10.509
 1212SOL     OW 5532   4.621   9.914   6.678
 1212SOL    HW1 5533   4.623   9.965   6.597
 1212SOL    HW2 5534   4.588   9.829   6.652
 1213SOL     OW 5535   5.454  11.844   3.761
 1213SOL    HW1 5536   5.478  11.930   3.795
 1213SOL    HW2 5537   5.536  11.808   3.727
 1214SOL     OW 5538   7.969  14.770  10.658
 1214SOL    HW1 5539   7.893  14.760  10.716
 1214SOL    HW2 5540   7.959  14.701  10.593
 1215SOL     OW 5541  10.896   1.426   7.090
 1215SOL    HW1 5542  10.915   1.493   7.025
 1215SOL    HW2 5543  10.843   1.470   7.156
 1216SOL     OW 5544  12.773   4.593   9.602
 1216SOL    HW1 5545  12.694   4.623   9.558
 1216SOL    HW2 5546  12.841   4.654   9.574
 1217SOL     OW 5547   9.367   4.993  11.462
 1217SOL    HW1 5548   9.355   4.910  11.508
 1217SOL    HW2 5549   9.335   4.976  11.373
 1218SOL     OW 5550   8.734  14.254   6.764
 1218SOL    HW1 5551   8.796  14.327   6.761
 1218SOL    HW2 5552   8.781  14.181   6.722
 1219SOL     OW 5553   7.173  14.505   6.781
 1219SOL    HW1 5554   7.095  14.450   6.777
 1219SOL    HW2 5555   7.230  14.471   6.712
 1220SOL     OW 5556  10.395   9.624   7.824
 1220SOL    HW1 5557  10.320   9.682   7.822
 1220SOL    HW2 5558  10.440   9.640   7.741
 1221SOL     OW 5559  11.566   9.589  12.159
 1221SOL    HW1 5560  11.495   9.612  12.099
 1221SOL    HW2 5561  11.645   9.620  12.116
 1222SOL     OW 5562   3.081   7.768  11.462
 1222SOL    HW1 5563   3.071   7.687  11.411
 1222SOL    HW2 5564   3.069   7.838  11.398
 1223SOL     OW 5565   2.880   5.891   1.694
 1223SOL    HW1 5566   2.850   5.844   1.772
 1223SOL    HW2 5567   2.954   5.943   1.724
 1224SOL     OW 5568   1.794   6.291   8.595
 1224SOL    HW1 5569   1.703   6.266   8.585
 1224SOL    HW2 5570   1.805   6.306   8.689
 1225SOL     OW 5571   7.999   4.024   9.728
 1225SOL    HW1 5572   8.041   4.106   9.705
 1225SOL    HW2 5573   8.045   3.958   9.675
 1226SOL     OW 5574  13.743   9.808   0.464
 1226SOL    HW1 5575  13.649   9.822   0.475
 1226SOL    HW2 5576  13.773   9.776   0.549
 1227SOL     OW 5577   8.182   0.722   0.679
 1227SOL    HW1 5578   8.130   0.677   0.612
 1227SOL    HW2 5579   8.232   0.787   0.629
 1228SOL     OW 5580  12.132   0.037   0.189
 1228SOL    HW1 5581  12.183  14.846   0.232
 1228SOL    HW2 5582  12.099   0.092   0.260
 1229SOL     OW 5583   3.607  10.013   6.658
 1229SOL    HW1 5584   3.623   9.919   6.666
 1229SOL    HW2 5585   3.620  10.031   6.564
 1230SOL     OW 5586   6.986   7.333  14.640
 1230SOL    HW1 5587   7.056   7.267  14.640
 1230SOL    HW2 5588   6.970   7.352  14.548
 1231SOL     OW 5589   2.657   1.914  12.183
 1231SOL    HW1 5590   2.704   1.996  12.203
 1231SOL    HW2 5591   2.572   1.943  12.150
 1232SOL     OW 5592  12.332   8.741   6.210
 1232SOL    HW1 5593  12.243   8.745   6.174
 1232SOL    HW2 5594  12.319   8.735   6.305
 1233SOL     OW 5595   0.568  10.329  13.406
 1233SOL    HW1 5596   0.654  10.345  13.446
 1233SOL    HW2 5597   0.587  10.312  13.314
 1234SOL     OW 5598   8.561   2.037   8.938
 1234SOL    HW1 5599   8.649   2.033   8.976
 1234SOL    HW2 5600   8.525   2.119   8.971
 1235SOL     OW 5601   4.910   2.565  14.778
 1235SOL    HW1 5602   4.886   2.580  14.869
 1235SOL    HW2 5603   4.974   2.493  14.783
 1236SOL     OW 5604   4.101   3.337  14.072
 1236SOL    HW1 5605   4.017   3.315  14.113
 1236SOL    HW2 5606   4.077   3.372  13.986
 1237SOL     OW 5607   5.758   8.132   0.687
 1237SOL    HW1 5608   5.824   8.198   0.666
 1237SOL    HW2 5609   5.718   8.110   0.603
 1238SOL     OW 5610  13.103  13.947   3.545
 1238SOL    HW1 5611  13.125  13.923   3.456
 1238SOL    HW2 5612  13.187  13.947   3.592
 1239SOL     OW 5613   4.963  13.066   4.723
 1239SOL    HW1 5614   4.972  12.975   4.754
 1239SOL    HW2 5615   4.870  13.085   4.734
 1240SOL     OW 5616  13.340  13.360  13.292
 1240SOL    HW1 5617  13.382  13.385  13.210
 1240SOL    HW2 5618  13.336  13.264  13.289
 1241SOL     OW 5619  12.756   6.090   8.911
 1241SOL    HW1 5620  12.734   6.153   8.842
 1241SOL    HW2 5621  12.758   6.006   8.866
 1242SOL     OW 5622   1.402   5.679  10.924
 1242SOL    HW1 5623   1.307   5.678  10.925
 1242SOL    HW2 5624   1.426   5.748  10.986
 1243SOL     OW 5625   9.584  14.139  12.434
 1243SOL    HW1 5626   9.544  14.183  12.509
 1243SOL    HW2 5627   9.512  14.122  12.374
 1244SOL     OW 5628  11.688   9.607   7.924
 1244SOL    HW1 5629  11.776   9.589   7.890
 1244SOL    HW2 5630  11.638   9.633   7.846
 1245SOL     OW 5631   2.437   2.019   4.291
 1245SOL    HW1 5632   2.456   2.113   4.283
 1245SOL    HW2 5633   2.346   2.010   4.262
 1246SOL     OW 5634   2.865   6.594  11.707
 1246SOL    HW1 5635   2.835   6.681  11.682
 1246SOL    HW2 5636   2.894   6.554  11.625
 1247SOL     OW 5637   1.438   9.550  10.920
 1247SOL    HW1 5638   1.444   9.473  10.975
 1247SOL    HW2 5639   1.392   9.615  10.974
 1248SOL     OW 5640   8.088   6.190  13.897
 1248SOL    HW1 5641   8.119   6.252  13.831
 1248SOL    HW2 5642   8.168   6.158  13.939
 1249SOL     OW 5643   7.308   6.392  13.619
 1249SOL    HW1 5644   7.242   6.398  13.688
 1249SOL    HW2 5645   7.355   6.475  13.624
 1250SOL     OW 5646  11.065   2.517   7.669
 1250SOL    HW1 5647  11.069   2.602   7.626
 1250SOL    HW2 5648  11.000   2.468   7.618
 1251SOL     OW 5649   7.700  10.295   6.052
 1251SOL    HW1 5650   7.617  10.337   6.076
 1251SOL    HW2 5651   7.734  10.263   6.136
 1252SOL     OW 5652  11.757   3.011  11.975
 1252SOL    HW1 5653  11.765   3.106  11.984
 1252SOL    HW2 5654  11.777   2.978  12.063
 1253SOL     OW 5655   8.303   2.837   5.106
 1253SOL    HW1 5656   8.216   2.809   5.134
 1253SOL    HW2 5657   8.305   2.817   5.012
 1254SOL     OW 5658  11.701   3.638   9.938
 1254SOL    HW1 5659  11.780   3.650   9.991
 1254SOL    HW2 5660  11.653   3.720   9.950
 1255SOL     OW 5661   1.487   2.410  14.833
 1255SOL    HW1 5662   1.543   2.334  14.849
 1255SOL    HW2 5663   1.484   2.418  14.737
 1256SOL     OW 5664   0.664   3.459  10.399
 1256SOL    HW1 5665   0.629   3.373  10.420
 1256SOL    HW2 5666   0.587   3.515  10.390
 1257SOL     OW 5667   3.713   0.782  11.991
 1257SOL    HW1 5668   3.764   0.817  12.064
 1257SOL    HW2 5669   3.754   0.819  11.913
 1258SOL     OW 5670   9.252  12.553  10.093
 1258SOL    HW1 5671   9.298  12.627  10.053
 1258SOL    HW2 5672   9.177  12.593  10.137
 1259SOL     OW 5673   2.127   9.718   9.196
 1259SOL    HW1 5674   2.067   9.712   9.271
 1259SOL    HW2 5675   2.184   9.642   9.204
 1260SOL     OW 5676   8.222   2.510  12.807
 1260SOL    HW1 5677   8.280   2.444  12.768
 1260SOL    HW2 5678   8.138   2.495  12.765
 1261SOL     OW 5679  10.763  12.624   3.661
 1261SOL    HW1 5680  10.740  12.587   3.576
 1261SOL    HW2 5681  10.805  12.708   3.641
 1262SOL     OW 5682  11.157   3.705   7.233
 1262SOL    HW1 5683  11.084   3.725   7.174
 1262SOL    HW2 5684  11.222   3.664   7.176
 1263SOL     OW 5685   6.878  12.480  12.297
 1263SOL    HW1 5686   6.906  12.515  12.213
 1263SOL    HW2 5687   6.806  12.420  12.276
 1264SOL     OW 5688   0.826   1.411   2.755
 1264SOL    HW1 5689   0.823   1.319   2.781
 1264SOL    HW2 5690   0.868   1.410   2.669
 1265SOL     OW 5691   6.492   7.957  10.501
 1265SOL    HW1 5692   6.400   7.973  10.522
 1265SOL    HW2 5693   6.489   7.906  10.420
 1266SOL     OW 5694   5.250  14.699   9.252
 1266SOL    HW1 5695   5.241  14.656   9.337
 1266SOL    HW2 5696   5.299  14.780   9.271
 1267SOL     OW 5697   7.696   8.699   1.466
 1267SOL    HW1 5698   7.670   8.780   1.422
 1267SOL    HW2 5699   7.753   8.656   1.402
 1268SOL     OW 5700   9.265   8.624   9.161
 1268SOL    HW1 5701   9.232   8.702   9.206
 1268SOL    HW2 5702   9.202   8.607   9.092
 1269SOL     OW 5703   6.041   4.148   9.047
 1269SOL    HW1 5704   6.128   4.165   9.012
 1269SOL    HW2 5705   6.006   4.234   9.069
 1270SOL     OW 5706   4.559   2.637   9.240
 1270SOL    HW1 5707   4.513   2.570   9.188
 1270SOL    HW2 5708   4.644   2.598   9.258
 1271SOL     OW 5709  10.208  13.008  11.811
 1271SOL    HW1 5710  10.243  13.060  11.739
 1271SOL    HW2 5711  10.276  12.942  11.828
 1272SOL     OW 5712   6.498   3.009   0.406
 1272SOL    HW1 5713   6.431   2.941   0.394
 1272SOL    HW2 5714   6.487   3.066   0.329
 1273SOL     OW 5715   2.231   5.884   9.062
 1273SOL    HW1 5716   2.296   5.934   9.014
 1273SOL    HW2 5717   2.283   5.827   9.119
 1274SOL     OW 5718   0.524   6.423  10.127
 1274SOL    HW1 5719   0.613   6.438  10.095
 1274SOL    HW2 5720   0.481   6.508  10.121
 1275SOL     OW 5721  14.738   3.401   0.723
 1275SOL    HW1 5722  14.797   3.426   0.794
 1275SOL    HW2 5723  14.792   3.344   0.667
 1276SOL     OW 5724   8.108   9.841   8.815
 1276SOL    HW1 5725   8.068   9.863   8.731
 1276SOL    HW2 5726   8.039   9.795   8.863
 1277SOL     OW 5727  12.406   6.298   3.235
 1277SOL    HW1 5728  12.477   6.361   3.243
 1277SOL    HW2 5729  12.402   6.279   3.141
 1278SOL     OW 5730   3.164   9.267   7.828
 1278SOL    HW1 5731   3.094   9.237   7.771
 1278SOL    HW2 5732   3.137   9.240   7.916
 1279SOL     OW 5733   4.629   2.619   0.565
 1279SOL    HW1 5734   4.672   2.536   0.547
 1279SOL    HW2 5735   4.682   2.659   0.635
 1280SOL     OW 5736   2.932   3.028   1.327
 1280SOL    HW1 5737   2.904   2.957   1.385
 1280SOL    HW2 5738   3.027   3.029   1.335
 1281SOL     OW 5739   1.692   6.121   2.894
 1281SOL    HW1 5740   1.721   6.209   2.917
 1281SOL    HW2 5741   1.598   6.121   2.912
 1282SOL     OW 5742   7.309   7.116  12.305
 1282SOL    HW1 5743   7.313   7.200  12.261
 1282SOL    HW2 5744   7.239   7.126  12.370
 1283SOL     OW 5745   5.297   8.487  13.692
 1283SOL    HW1 5746   5.288   8.572  13.650
 1283SOL    HW2 5747   5.264   8.500  13.781
 1284SOL     OW 5748   8.859  12.200   2.130
 1284SOL    HW1 5749   8.889  12.291   2.129
 1284SOL    HW2 5750   8.940  12.149   2.135
 1285SOL     OW 5751   1.700   3.492   2.980
 1285SOL    HW1 5752   1.633   3.449   3.032
 1285SOL    HW2 5753   1.709   3.437   2.902
 1286SOL     OW 5754   0.052  13.051   2.668
 1286SOL    HW1 5755   0.077  13.143   2.670
 1286SOL    HW2 5756  14.846  13.050   2.621
 1287SOL     OW 5757   6.018   4.637  12.736
 1287SOL    HW1 5758   6.057   4.706  12.790
 1287SOL    HW2 5759   5.946   4.680  12.691
 1288SOL     OW 5760  13.432   0.827  13.432
 1288SOL    HW1 5761  13.407   0.914  13.401
 1288SOL    HW2 5762  13.509   0.804  13.379
 1289SOL     OW 5763   8.348   9.942   5.262
 1289SOL    HW1 5764   8.271   9.962   5.208
 1289SOL    HW2 5765   8.423   9.956   5.204
 1290SOL     OW 5766   5.107   0.048   8.570
 1290SOL    HW1 5767   5.162   0.121   8.543
 1290SOL    HW2 5768   5.168  14.856   8.595
 1291SOL     OW 5769   3.258   1.607   1.301
 1291SOL    HW1 5770   3.200   1.560   1.242
 1291SOL    HW2 5771   3.336   1.626   1.248
 1292SOL     OW 5772  12.757   2.396   7.953
 1292SOL    HW1 5773  12.832   2.446   7.921
 1292SOL    HW2 5774  12.755   2.413   8.047
 1293SOL     OW 5775  11.967   5.565  10.410
 1293SOL    HW1 5776  11.939   5.598  10.325
 1293SOL    HW2 5777  11.923   5.480  10.419
 1294SOL     OW 5778   5.411   9.508  10.130
 1294SOL    HW1 5779   5.397   9.528  10.222
 1294SOL    HW2 5780   5.344   9.559  10.084
 1295SOL     OW 5781  13.176   2.503  10.931
 1295SOL    HW1 5782  13.119   2.512  10.855
 1295SOL    HW2 5783  13.253   2.556  10.910
 1296SOL     OW 5784   5.970   9.821  12.276
 1296SOL    HW1 5785   6.017   9.745  12.240
 1296SOL    HW2 5786   6.039   9.876  12.312
 1297SOL     OW 5787   0.853   0.331   0.982
 1297SOL    HW1 5788   0.946   0.352   0.989
 1297SOL    HW2 5789   0.844   0.287   0.898
 1298SOL     OW 5790   1.629   2.851   1.220
 1298SOL    HW1 5791   1.716   2.864   1.182
 1298SOL    HW2 5792   1.635   2.767   1.266
 1299SOL     OW 5793  13.690  13.263   9.276
 1299SOL    HW1 5794  13.622  13.236   9.215
 1299SOL    HW2 5795  13.690  13.359   9.272
 1300SOL     OW 5796   7.309   5.773   9.761
 1300SOL    HW1 5797   7.384   5.724   9.793
 1300SOL    HW2 5798   7.256   5.788   9.840
 1301SOL     OW 5799   4.991   1.337   6.849
 1301SOL    HW1 5800   4.917   1.317   6.792
 1301SOL    HW2 5801   5.064   1.289   6.812
 1302SOL     OW 5802   8.551  11.020   3.766
 1302SOL    HW1 5803   8.532  10.933   3.800
 1302SOL    HW2 5804   8.528  11.014   3.673
 1303SOL     OW 5805   2.111  14.875   7.958
 1303SOL    HW1 5806   2.023  14.873   7.921
 1303SOL    HW2 5807   2.163  14.820   7.899
 1304SOL     OW 5808  11.083   9.931   1.186
 1304SOL    HW1 5809  11.143   9.923   1.113
 1304SOL    HW2 5810  11.019   9.861   1.173
 1305SOL     OW 5811   2.610  13.423   5.314
 1305SOL    HW1 5812   2.562  13.340   5.319
 1305SOL    HW2 5813   2.626  13.448   5.405
 1306SOL     OW 5814   8.133   0.719   8.203
 1306SOL    HW1 5815   8.131   0.743   8.110
 1306SOL    HW2 5816   8.043   0.731   8.233
 1307SOL     OW 5817  14.416   7.238  12.491
 1307SOL    HW1 5818  14.464   7.198  12.418
 1307SOL    HW2 5819  14.476   7.236  12.564
 1308SOL     OW 5820  11.846   9.438  12.328
 1308SOL    HW1 5821  11.789   9.373  12.368
 1308SOL    HW2 5822  11.802   9.463  12.247
 1309SOL     OW 5823  10.802  10.924  10.267
 1309SOL    HW1 5824  10.800  10.954  10.357
 1309SOL    HW2 5825  10.889  10.884  10.257
 1310SOL     OW 5826   6.043  13.459   0.441
 1310SOL    HW1 5827   6.009  13.539   0.479
 1310SOL    HW2 5828   5.979  13.434   0.374
 1311SOL     OW 5829   3.337  14.684  13.314
 1311SOL    HW1 5830   3.366  14.771  13.287
 1311SOL    HW2 5831   3.384  14.624  13.257
 1312SOL     OW 5832   5.001   8.825  11.928
 1312SOL    HW1 5833   4.933   8.766  11.896
 1312SOL    HW2 5834   5.081   8.772  11.930
 1313SOL     OW 5835   1.445   5.911   1.356
 1313SOL    HW1 5836   1.391   5.835   1.375
 1313SOL    HW2 5837   1.462   5.951   1.441
 1314SOL     OW 5838  12.288   4.204   4.609
 1314SOL    HW1 5839  12.341   4.142   4.560
 1314SOL    HW2 5840  12.297   4.176   4.700
 1315SOL     OW 5841   1.842   6.652  11.537
 1315SOL    HW1 5842   1.913   6.631  11.597
 1315SOL    HW2 5843   1.883   6.659  11.451
 1316SOL     OW 5844  12.653   2.142  12.746
 1316SOL    HW1 5845  12.611   2.175  12.825
 1316SOL    HW2 5846  12.607   2.183  12.674
 1317SOL     OW 5847   7.344   5.989   0.152
 1317SOL    HW1 5848   7.340   6.036   0.235
 1317SOL    HW2 5849   7.421   5.932   0.160
 1318SOL     OW 5850  13.019   5.494   9.675
 1318SOL    HW1 5851  13.085   5.563   9.681
 1318SOL    HW2 5852  13.066   5.414   9.696
 1319SOL     OW 5853  14.270  13.249   1.121
 1319SOL    HW1 5854  14.248  13.327   1.070
 1319SOL    HW2 5855  14.193  13.194   1.114
 1320SOL     OW 5856  13.232   7.144   4.798
 1320SOL    HW1 5857  13.253   7.093   4.719
 1320SOL    HW2 5858  13.284   7.224   4.789
 1321SOL     OW 5859   3.558   8.375   8.021
 1321SOL    HW1 5860   3.467   8.395   8.045
 1321SOL    HW2 5861   3.561   8.279   8.018
 1322SOL     OW 5862   3.334   8.376   2.169
 1322SOL    HW1 5863   3.350   8.396   2.077
 1322SOL    HW2 5864   3.358   8.284   2.178
 1323SOL     OW 5865   3.831  13.603   1.099
 1323SOL    HW1 5866   3.836  13.516   1.139
 1323SOL    HW2 5867   3.798  13.660   1.169
 1324SOL     OW 5868  11.493  12.978   1.331
 1324SOL    HW1 5869  11.473  12.911   1.266
 1324SOL    HW2 5870  11.456  12.943   1.413
 1325SOL     OW 5871   2.158   0.278   7.851
 1325SOL    HW1 5872   2.141   0.272   7.757
 1325SOL    HW2 5873   2.144   0.190   7.884
 1326SOL     OW 5874   6.973   4.920   0.018
 1326SOL    HW1 5875   6.962   5.011   0.047
 1326SOL    HW2 5876   6.893   4.876   0.047
 1327SOL     OW 5877   9.978   5.148   0.333
 1327SOL    HW1 5878   9.994   5.066   0.286
 1327SOL    HW2 5879  10.046   5.208   0.301
 1328SOL     OW 5880   4.843   2.244   9.041
 1328SOL    HW1 5881   4.804   2.322   9.000
 1328SOL    HW2 5882   4.795   2.234   9.123
 1329SOL     OW 5883  14.134   6.115  10.920
 1329SOL    HW1 5884  14.114   6.185  10.982
 1329SOL    HW2 5885  14.137   6.036  10.973
 1330SOL     OW 5886   5.850   6.737   6.756
 1330SOL    HW1 5887   5.806   6.822   6.764
 1330SOL    HW2 5888   5.788   6.682   6.709
 1331SOL     OW 5889   2.121   9.420  11.534
 1331SOL    HW1 5890   2.130   9.506  11.576
 1331SOL    HW2 5891   2.154   9.433  11.445
 1332SOL     OW 5892  12.052   0.335   1.730
 1332SOL    HW1 5893  12.023   0.308   1.643
 1332SOL    HW2 5894  12.007   0.276   1.790
 1333SOL     OW 5895   0.802  14.517   9.181
 1333SOL    HW1 5896   0.739  14.579   9.144
 1333SOL    HW2 5897   0.764  14.431   9.163
 1334SOL     OW 5898   1.701   0.551  14.700
 1334SOL    HW1 5899   1.645   0.617  14.659
 1334SOL    HW2 5900   1.738   0.502  14.627
 1335SOL     OW 5901   3.320   3.414   7.690
 1335SOL    HW1 5902   3.293   3.450   7.606
 1335SOL    HW2 5903   3.249   3.356   7.716
 1336SOL     OW 5904  13.561   5.489   7.744
 1336SOL    HW1 5905  13.467   5.499   7.761
 1336SOL    HW2 5906  13.584   5.407   7.787
 1337SOL     OW 5907   2.388   2.768   3.819
 1337SOL    HW1 5908   2.369   2.836   3.754
 1337SOL    HW2 5909   2.464   2.801   3.866
 1338SOL     OW 5910   7.831   5.878  13.124
 1338SOL    HW1 5911   7.884   5.842  13.196
 1338SOL    HW2 5912   7.893   5.932  13.075
 1339SOL     OW 5913   8.514  13.354  12.337
 1339SOL    HW1 5914   8.443  13.408  12.303
 1339SOL    HW2 5915   8.471  13.279  12.376
 1340SOL     OW 5916   5.426   4.360  11.888
 1340SOL    HW1 5917   5.470   4.296  11.833
 1340SOL    HW2 5918   5.390   4.309  11.961
 1341SOL     OW 5919  13.811  10.001   3.790
 1341SOL    HW1 5920  13.892   9.950   3.785
 1341SOL    HW2 5921  13.837  10.083   3.831
 1342SOL     OW 5922   5.018  11.615  11.670
 1342SOL    HW1 5923   4.987  11.549  11.609
 1342SOL    HW2 5924   5.056  11.565  11.743
 1343SOL     OW 5925   1.125   2.338  13.938
 1343SOL    HW1 5926   1.030   2.348  13.938
 1343SOL    HW2 5927   1.146   2.300  13.853
 1344SOL     OW 5928   1.646  12.190   1.247
 1344SOL    HW1 5929   1.620  12.103   1.217
 1344SOL    HW2 5930   1.601  12.201   1.331
 1345SOL     OW 5931  12.163  10.384  14.838
 1345SOL    HW1 5932  12.167  10.407  14.745
 1345SOL    HW2 5933  12.240  10.427  14.877
 1346SOL     OW 5934  12.186  11.334   1.464
 1346SOL    HW1 5935  12.114  11.394   1.486
 1346SOL    HW2 5936  12.153  11.283   1.390
 1347SOL     OW 5937   4.808   6.174  11.714
 1347SOL    HW1 5938   4.847   6.237  11.774
 1347SOL    HW2 5939   4.772   6.106  11.771
 1348SOL     OW 5940   3.775   9.523  13.227
 1348SOL    HW1 5941   3.736   9.473  13.155
 1348SOL    HW2 5942   3.840   9.579  13.185
 1349SOL     OW 5943   7.107  13.460   5.640
 1349SOL    HW1 5944   7.119  13.372   5.676
 1349SOL    HW2 5945   7.170  13.514   5.688
 1350SOL     OW 5946   7.720  13.325  12.513
 1350SOL    HW1 5947   7.636  13.336  12.469
 1350SOL    HW2 5948   7.779  13.383  12.464
 1351SOL     OW 5949   5.681  12.697  14.822
 1351SOL    HW1 5950   5.768  12.679  14.785
 1351SOL    HW2 5951   5.621  12.650  14.764
 1352SOL     OW 5952   8.810   7.801   4.788
 1352SOL    HW1 5953   8.727   7.754   4.793
 1352SOL    HW2 5954   8.848   7.793   4.875
 1353SOL     OW 5955  12.497   8.515   2.079
 1353SOL    HW1 5956  12.441   8.582   2.117
 1353SOL    HW2 5957  12.586   8.548   2.093
 1354SOL     OW 5958   8.370   3.848   7.766
 1354SOL    HW1 5959   8.343   3.940   7.772
 1354SOL    HW2 5960   8.306   3.808   7.708
 1355SOL     OW 5961   5.597   1.912   1.423
 1355SOL    HW1 5962   5.617   2.005   1.437
 1355SOL    HW2 5963   5.665   1.882   1.363
 1356SOL     OW 5964   8.781  13.146  13.337
 1356SOL    HW1 5965   8.816  13.099  13.261
 1356SOL    HW2 5966   8.748  13.076  13.395
 1357SOL     OW 5967   1.829   6.281  12.881
 1357SOL    HW1 5968   1.776   6.273  12.960
 1357SOL    HW2 5969   1.919   6.264  12.910
 1358SOL     OW 5970   9.964   2.456   7.332
 1358SOL    HW1 5971   9.907   2.528   7.360
 1358SOL    HW2 5972  10.052   2.484   7.355
 1359SOL     OW 5973   8.064  13.608  10.735
 1359SOL    HW1 5974   8.078  13.572  10.823
 1359SOL    HW2 5975   8.023  13.536  10.686
 1360SOL     OW 5976   9.336   0.456   7.060
 1360SOL    HW1 5977   9.361   0.493   6.976
 1360SOL    HW2 5978   9.264   0.397   7.040
 1361SOL     OW 5979   8.974   2.867  13.512
 1361SOL    HW1 5980   8.942   2.949  13.474
 1361SOL    HW2 5981   9.060   2.890  13.547
 1362SOL     OW 5982   1.395   2.412   5.875
 1362SOL    HW1 5983   1.401   2.388   5.967
 1362SOL    HW2 5984   1.366   2.332   5.831
 1363SOL     OW 5985   6.284   0.014   3.533
 1363SOL    HW1 5986   6.332   0.076   3.479
 1363SOL    HW2 5987   6.318   0.027   3.622
 1364SOL     OW 5988   4.920   5.300   7.302
 1364SOL    HW1 5989   4.979   5.246   7.353
 1364SOL    HW2 5990   4.958   5.302   7.214
 1365SOL     OW 5991   5.849   1.489   5.440
 1365SOL    HW1 5992   5.769   1.467   5.489
 1365SOL    HW2 5993   5.858   1.583   5.450
 1366SOL     OW 5994   0.704   6.328   6.531
 1366SOL    HW1 5995   0.687   6.243   6.572
 1366SOL    HW2 5996   0.641   6.388   6.572
 1367SOL     OW 5997   2.671   7.185   9.015
 1367SOL    HW1 5998   2.605   7.241   9.055
 1367SOL    HW2 5999   2.703   7.235   8.939
 1368SOL     OW 6000   3.899   0.028  11.428
 1368SOL    HW1 6001   3.847  14.825  11.423
 1368SOL    HW2 6002   3.958   0.013  11.502
 1369SOL     OW 6003   6.522   4.572   5.776
 1369SOL    HW1 6004   6.589   4.617   5.828
 1369SOL    HW2 6005   6.491   4.502   5.833
 1370SOL     OW 6006  14.697  12.451   4.462
 1370SOL    HW1 6007  14.777  12.409   4.495
 1370SOL    HW2 6008  14.728  12.532   4.420
 1371SOL     OW 6009   0.762  13.183  11.780
 1371SOL    HW1 6010   0.815  13.253  11.740
 1371SOL    HW2 6011   0.795  13.103  11.739
 1372SOL     OW 6012  11.266  13.795   7.098
 1372SOL    HW1 6013  11.254  13.836   7.184
 1372SOL    HW2 6014  11.225  13.856   7.037
 1373SOL     OW 6015   9.112   5.344  10.096
 1373SOL    HW1 6016   9.075   5.432  10.088
 1373SOL    HW2 6017   9.053   5.299  10.156
 1374SOL     OW 6018   4.824   4.798  12.972
 1374SOL    HW1 6019   4.776   4.757  13.044
 1374SOL    HW2 6020   4.757   4.844  12.922
 1375SOL     OW 6021  12.503   9.446   9.731
 1375SOL    HW1 6022  12.526   9.538   9.748
 1375SOL    HW2 6023  12.469   9.414   9.814
 1376SOL     OW 6024   8.384   0.837   9.731
 1376SOL    HW1 6025   8.419   0.911   9.680
 1376SOL    HW2 6026   8.319   0.876   9.789
 1377SOL     OW 6027   2.560   7.869   2.241
 1377SOL    HW1 6028   2.637   7.816   2.258
 1377SOL    HW2 6029   2.589   7.959   2.258
 1378SOL     OW 6030   7.882   9.494  12.533
 1378SOL    HW1 6031   7.820   9.480  12.461
 1378SOL    HW2 6032   7.866   9.584  12.561
 1379SOL     OW 6033  13.189   6.772   9.215
 1379SOL    HW1 6034  13.283   6.776   9.234
 1379SOL    HW2 6035  13.149   6.828   9.281
 1380SOL     OW 6036  10.035   7.221  13.874
 1380SOL    HW1 6037  10.113   7.276  13.872
 1380SOL    HW2 6038  10.027   7.187  13.785
 1381SOL     OW 6039   6.571   4.342  10.742
 1381SOL    HW1 6040   6.665   4.332  10.727
 1381SOL    HW2 6041   6.547   4.266  10.795
 1382SOL     OW 6042   4.031   2.195   0.142
 1382SOL    HW1 6043   4.104   2.245   0.178
 1382SOL    HW2 6044   4.022   2.119   0.201
 1383SOL     OW 6045   8.842   7.589   6.743
 1383SOL    HW1 6046   8.770   7.542   6.699
 1383SOL    HW2 6047   8.847   7.549   6.830
 1384SOL     OW 6048  10.026   4.992  12.884
 1384SOL    HW1 6049  10.086   5.055  12.845
 1384SOL    HW2 6050  10.043   4.911  12.836
 1385SOL     OW 6051  14.656   9.057   0.509
 1385SOL    HW1 6052  14.582   9.039   0.566
 1385SOL    HW2 6053  14.691   8.970   0.486
 1386SOL     OW 6054   5.996   5.940   8.680
 1386SOL    HW1 6055   5.991   5.923   8.774
 1386SOL    HW2 6056   6.089   5.956   8.664
 1387SOL     OW 6057   8.476   9.564   4.955
 1387SOL    HW1 6058   8.487   9.491   4.894
 1387SOL    HW2 6059   8.563   9.605   4.958
 1388SOL     OW 6060   8.387   9.883   2.224
 1388SOL    HW1 6061   8.313   9.938   2.196
 1388SOL    HW2 6062   8.404   9.909   2.314
 1389SOL     OW 6063   0.933  14.747   4.729
 1389SOL    HW1 6064   0.985  14.743   4.648
 1389SOL    HW2 6065   0.846  14.774   4.700
 1390SOL     OW 6066  11.468   1.353   1.606
 1390SOL    HW1 6067  11.561   1.362   1.584
 1390SOL    HW2 6068  11.467   1.302   1.687
 1391SOL     OW 6069   3.108   9.264  10.589
 1391SOL    HW1 6070   3.032   9.205  10.593
 1391SOL    HW2 6071   3.183   9.207  10.606
 1392SOL     OW 6072   3.595   1.834   3.137
 1392SOL    HW1 6073   3.609   1.923   3.105
 1392SOL    HW2 6074   3.662   1.821   3.204
 1393SOL     OW 6075   5.962   1.616  14.030
 1393SOL    HW1 6076   6.005   1.543  14.075
 1393SOL    HW2 6077   5.930   1.578  13.948
 1394SOL     OW 6078  13.726  11.389   8.564
 1394SOL    HW1 6079  13.749  11.314   8.618
 1394SOL    HW2 6080  13.809  11.417   8.526
 1395SOL     OW 6081   8.986   0.651  11.269
 1395SOL    HW1 6082   8.922   0.614  11.329
 1395SOL    HW2 6083   9.042   0.577  11.245
 1396SOL     OW 6084   7.298   9.679   1.510
 1396SOL    HW1 6085   7.389   9.704   1.495
 1396SOL    HW2 6086   7.255   9.696   1.426
 1397SOL     OW 6087  13.301   2.973   7.981
 1397SOL    HW1 6088  13.395   2.991   7.978
 1397SOL    HW2 6089  13.260   3.060   7.982
 1398SOL     OW 6090  10.683   9.522  14.704
 1398SOL    HW1 6091  10.615   9.508  14.769
 1398SOL    HW2 6092  10.696   9.436  14.663
 1399SOL     OW 6093   9.104   7.121   1.630
 1399SOL    HW1 6094   9.107   7.038   1.583
 1399SOL    HW2 6095   9.095   7.096   1.722
 1400SOL     OW 6096   9.147   6.864  14.682
 1400SOL    HW1 6097   9.199   6.847  14.760
 1400SOL    HW2 6098   9.138   6.778  14.640
 1401SOL     OW 6099   5.642   6.065  12.295
 1401SOL    HW1 6100   5.666   6.069  12.203
 1401SOL    HW2 6101   5.700   6.128  12.338
 1402SOL     OW 6102   5.854   6.619   5.733
 1402SOL    HW1 6103   5.802   6.631   5.813
 1402SOL    HW2 6104   5.807   6.553   5.683
 1403SOL     OW 6105   8.660   2.573  13.889
 1403SOL    HW1 6106   8.725   2.638  13.862
 1403SOL    HW2 6107   8.700   2.529  13.964
 1404SOL     OW 6108   6.787   8.432   6.920
 1404SOL    HW1 6109   6.755   8.344   6.902
 1404SOL    HW2 6110   6.882   8.426   6.909
 1405SOL     OW 6111   9.932   8.067  12.430
 1405SOL    HW1 6112   9.938   8.043  12.522
 1405SOL    HW2 6113  10.006   8.024  12.388
 1406SOL     OW 6114   9.179   9.133   1.330
 1406SOL    HW1 6115   9.231   9.089   1.263
 1406SOL    HW2 6116   9.194   9.226   1.315
 1407SOL     OW 6117  10.370  14.228   0.013
 1407SOL    HW1 6118  10.363  14.317  14.856
 1407SOL    HW2 6119  10.427  14.182  14.829
 1408SOL     OW 6120   2.566   2.773   6.914
 1408SOL    HW1 6121   2.494   2.804   6.970
 1408SOL    HW2 6122   2.587   2.686   6.949
 1409SOL     OW 6123  13.799   9.759   7.427
 1409SOL    HW1 6124  13.845   9.675   7.432
 1409SOL    HW2 6125  13.707   9.735   7.421
 1410SOL     OW 6126   6.218  14.661  10.099
 1410SOL    HW1 6127   6.158  14.651  10.025
 1410SOL    HW2 6128   6.283  14.592  10.086
 1411SOL     OW 6129  12.201   1.379  14.728
 1411SOL    HW1 6130  12.125   1.338  14.687
 1411SOL    HW2 6131  12.274   1.322  14.707
 1412SOL     OW 6132  13.967   3.070  12.727
 1412SOL    HW1 6133  14.038   3.006  12.728
 1412SOL    HW2 6134  13.995   3.138  12.787
 1413SOL     OW 6135   1.049  13.890  13.246
 1413SOL    HW1 6136   1.059  13.871  13.153
 1413SOL    HW2 6137   0.966  13.850  13.270
 1414SOL     OW 6138  11.755   5.003   9.604
 1414SOL    HW1 6139  11.847   5.011   9.581
 1414SOL    HW2 6140  11.744   4.911   9.630
 1415SOL     OW 6141   4.220  12.915  11.923
 1415SOL    HW1 6142   4.226  12.820  11.931
 1415SOL    HW2 6143   4.133  12.930  11.884
 1416SOL     OW 6144  13.827  13.221   1.471
 1416SOL    HW1 6145  13.758  13.156   1.460
 1416SOL    HW2 6146  13.782  13.305   1.476
 1417SOL     OW 6147  11.269   7.459  12.745
 1417SOL    HW1 6148  11.309   7.427  12.664
 1417SOL    HW2 6149  11.175   7.447  12.731
 1418SOL     OW 6150   5.429  10.689   0.637
 1418SOL    HW1 6151   5.347  10.739   0.628
 1418SOL    HW2 6152   5.425  10.652   0.725
 1419SOL     OW 6153   5.980   1.740   8.346
 1419SOL    HW1 6154   5.929   1.721   8.424
 1419SOL    HW2 6155   5.963   1.832   8.327
 1420SOL     OW 6156  11.627   9.318  14.719
 1420SOL    HW1 6157  11.693   9.387  14.716
 1420SOL    HW2 6158  11.662   9.249  14.663
 1421SOL     OW 6159   3.541   0.823   5.601
 1421SOL    HW1 6160   3.471   0.856   5.545
 1421SOL    HW2 6161   3.533   0.872   5.683
 1422SOL     OW 6162   8.267  10.471   3.181
 1422SOL    HW1 6163   8.283  10.552   3.133
 1422SOL    HW2 6164   8.264  10.498   3.273
 1423SOL     OW 6165   4.507   9.747   0.982
 1423SOL    HW1 6166   4.511   9.824   1.038
 1423SOL    HW2 6167   4.474   9.779   0.898
 1424SOL     OW 6168  12.201   3.019  11.017
 1424SOL    HW1 6169  12.121   3.015  11.069
 1424SOL    HW2 6170  12.186   2.959  10.944
 1425SOL     OW 6171   6.654   5.984  13.625
 1425SOL    HW1 6172   6.672   6.065  13.672
 1425SOL    HW2 6173   6.737   5.960  13.585
 1426SOL     OW 6174  12.646   4.413   9.141
 1426SOL    HW1 6175  12.606   4.356   9.075
 1426SOL    HW2 6176  12.713   4.359   9.182
 1427SOL     OW 6177  13.015  10.842   9.633
 1427SOL    HW1 6178  12.969  10.923   9.610
 1427SOL    HW2 6179  12.973  10.814   9.715
 1428SOL     OW 6180  13.083  14.480   7.793
 1428SOL    HW1 6181  13.017  14.488   7.861
 1428SOL    HW2 6182  13.038  14.505   7.712
 1429SOL     OW 6183   1.392   1.780  12.790
 1429SOL    HW1 6184   1.475   1.740  12.764
 1429SOL    HW2 6185   1.331   1.706  12.796
 1430SOL     OW 6186   0.523   2.400  11.342
 1430SOL    HW1 6187   0.515   2.379  11.435
 1430SOL    HW2 6188   0.534   2.495  11.340
 1431SOL     OW 6189   0.829   8.936  14.597
 1431SOL    HW1 6190   0.911   8.888  14.587
 1431SOL    HW2 6191   0.779   8.915  14.518
 1432SOL     OW 6192   7.603  10.519   2.698
 1432SOL    HW1 6193   7.651  10.571   2.762
 1432SOL    HW2 6194   7.524  10.570   2.679
 1433SOL     OW 6195   0.924  11.930   6.065
 1433SOL    HW1 6196   0.979  11.889   5.998
 1433SOL    HW2 6197   0.853  11.867   6.079
 1434SOL     OW 6198   2.489  14.423   2.645
 1434SOL    HW1 6199   2.409  14.464   2.613
 1434SOL    HW2 6200   2.556  14.491   2.637
 1435SOL     OW 6201   5.686   0.154   2.050
 1435SOL    HW1 6202   5.662   0.159   1.958
 1435SOL    HW2 6203   5.692   0.245   2.079
 1436SOL     OW 6204   8.691  11.541  12.105
 1436SOL    HW1 6205   8.633  11.503  12.039
 1436SOL    HW2 6206   8.649  11.623  12.130
 1437SOL     OW 6207   1.331  14.075   6.432
 1437SOL    HW1 6208   1.425  14.094   6.433
 1437SOL    HW2 6209   1.326  13.980   6.441
 1438SOL     OW 6210   3.160   7.510   5.950
 1438SOL    HW1 6211   3.242   7.461   5.957
 1438SOL    HW2 6212   3.093   7.443   5.936
 1439SOL     OW 6213   8.870   1.789   4.302
 1439SOL    HW1 6214   8.786   1.775   4.258
 1439SOL    HW2 6215   8.930   1.726   4.262
 1440SOL     OW 6216   4.943  10.655  14.640
 1440SOL    HW1 6217   4.881  10.584  14.624
 1440SOL    HW2 6218   4.970  10.643  14.731
 1441SOL     OW 6219   8.440   6.000   2.115
 1441SOL    HW1 6220   8.357   5.982   2.069
 1441SOL    HW2 6221   8.413   6.040   2.198
 1442SOL     OW 6222   9.087   4.620   5.348
 1442SOL    HW1 6223   9.165   4.566   5.332
 1442SOL    HW2 6224   9.122   4.704   5.379
 1443SOL     OW 6225   3.204  14.838   4.850
 1443SOL    HW1 6226   3.168  14.752   4.867
 1443SOL    HW2 6227   3.159  14.867   4.770
 1444SOL     OW 6228   7.394  13.085  11.146
 1444SOL    HW1 6229   7.478  13.101  11.189
 1444SOL    HW2 6230   7.407  13.003  11.098
 1445SOL     OW 6231   5.367   6.005  14.747
 1445SOL    HW1 6232   5.299   5.967  14.803
 1445SOL    HW2 6233   5.437   6.031  14.808
 1446SOL     OW 6234  13.185   8.998   7.640
 1446SOL    HW1 6235  13.254   9.041   7.691
 1446SOL    HW2 6236  13.104   9.039   7.670
 1447SOL     OW 6237   2.669   1.372   3.340
 1447SOL    HW1 6238   2.732   1.439   3.368
 1447SOL    HW2 6239   2.690   1.357   3.248
 1448SOL     OW 6240   4.082  13.805   2.091
 1448SOL    HW1 6241   4.024  13.736   2.061
 1448SOL    HW2 6242   4.090  13.864   2.015
 1449SOL     OW 6243   3.775  12.259  11.641
 1449SOL    HW1 6244   3.711  12.279  11.573
 1449SOL    HW2 6245   3.855  12.302  11.613
 1450SOL     OW 6246   7.510   3.385  14.545
 1450SOL    HW1 6247   7.420   3.353  14.545
 1450SOL    HW2 6248   7.532   3.394  14.452
 1451SOL     OW 6249   9.320   5.313   4.273
 1451SOL    HW1 6250   9.310   5.303   4.368
 1451SOL    HW2 6251   9.282   5.399   4.254
 1452SOL     OW 6252   6.525   0.049   9.829
 1452SOL    HW1 6253   6.596  14.863   9.816
 1452SOL    HW2 6254   6.483   0.022   9.910
 1453SOL     OW 6255   2.555   6.189   7.099
 1453SOL    HW1 6256   2.556   6.279   7.068
 1453SOL    HW2 6257   2.625   6.185   7.163
 1454SOL     OW 6258   6.420   6.209  14.082
 1454SOL    HW1 6259   6.416   6.152  14.160
 1454SOL    HW2 6260   6.415   6.298  14.117
 1455SOL     OW 6261   6.515   1.984   0.301
 1455SOL    HW1 6262   6.489   1.893   0.321
 1455SOL    HW2 6263   6.519   2.026   0.387
 1456SOL     OW 6264   3.557   4.021   3.244
 1456SOL    HW1 6265   3.577   3.943   3.296
 1456SOL    HW2 6266   3.634   4.034   3.190
 1457SOL     OW 6267   2.184   8.223   3.272
 1457SOL    HW1 6268   2.159   8.303   3.317
 1457SOL    HW2 6269   2.201   8.160   3.342
 1458SOL     OW 6270   4.346  14.555   2.868
 1458SOL    HW1 6271   4.414  14.573   2.933
 1458SOL    HW2 6272   4.339  14.636   2.817
 1459SOL     OW 6273   2.976  14.592   9.821
 1459SOL    HW1 6274   2.910  14.553   9.764
 1459SOL    HW2 6275   3.057  14.589   9.770
 1460SOL     OW 6276  14.651  14.323   3.664
 1460SOL    HW1 6277  14.601  14.403   3.682
 1460SOL    HW2 6278  14.592  14.270   3.611
 1461SOL     OW 6279   1.252  14.765  10.735
 1461SOL    HW1 6280   1.329  14.719  10.702
 1461SOL    HW2 6281   1.216  14.811  10.659
 1462SOL     OW 6282  13.841   7.053   2.013
 1462SOL    HW1 6283  13.837   7.146   2.038
 1462SOL    HW2 6284  13.823   7.006   2.094
 1463SOL     OW 6285   8.798   6.614   6.689
 1463SOL    HW1 6286   8.766   6.524   6.681
 1463SOL    HW2 6287   8.772   6.640   6.778
 1464SOL     OW 6288  10.408   0.742  13.014
 1464SOL    HW1 6289  10.493   0.779  12.991
 1464SOL    HW2 6290  10.404   0.749  13.109
 1465SOL     OW 6291   4.523  13.682   0.321
 1465SOL    HW1 6292   4.478  13.630   0.387
 1465SOL    HW2 6293   4.462  13.754   0.302
 1466SOL     OW 6294   6.804   1.149  10.997
 1466SOL    HW1 6295   6.839   1.073  10.950
 1466SOL    HW2 6296   6.853   1.151  11.079
 1467SOL     OW 6297   6.156  12.941  12.875
 1467SOL    HW1 6298   6.196  12.854  12.872
 1467SOL    HW2 6299   6.117  12.952  12.789
 1468SOL     OW 6300   6.961   1.821   8.965
 1468SOL    HW1 6301   6.952   1.726   8.965
 1468SOL    HW2 6302   7.052   1.836   8.993
 1469SOL     OW 6303   7.637  11.489  14.828
 1469SOL    HW1 6304   7.678  11.487   0.037
 1469SOL    HW2 6305   7.572  11.559  14.835
 1470SOL     OW 6306  11.100   3.158   5.795
 1470SOL    HW1 6307  11.117   3.064   5.790
 1470SOL    HW2 6308  11.010   3.165   5.829
 1471SOL     OW 6309   6.208  11.651  12.044
 1471SOL    HW1 6310   6.199  11.556  12.038
 1471SOL    HW2 6311   6.216  11.669  12.138
 1472SOL     OW 6312   5.559   4.293   8.933
 1472SOL    HW1 6313   5.533   4.340   9.012
 1472SOL    HW2 6314   5.539   4.354   8.862
 1473SOL     OW 6315   4.696   8.601  12.112
 1473SOL    HW1 6316   4.725   8.592  12.021
 1473SOL    HW2 6317   4.775   8.591  12.164
 1474SOL     OW 6318   3.177   4.253   0.306
 1474SOL    HW1 6319   3.108   4.212   0.253
 1474SOL    HW2 6320   3.253   4.196   0.293
 1475SOL     OW 6321   5.497   1.282  12.634
 1475SOL    HW1 6322   5.504   1.230  12.714
 1475SOL    HW2 6323   5.435   1.233  12.579
 1476SOL     OW 6324   4.860   6.703   7.011
 1476SOL    HW1 6325   4.811   6.766   7.063
 1476SOL    HW2 6326   4.951   6.713   7.041
 1477SOL     OW 6327   2.099   1.463  10.780
 1477SOL    HW1 6328   2.194   1.466  10.791
 1477SOL    HW2 6329   2.085   1.411  10.701
 1478SOL     OW 6330   9.987  13.257   0.413
 1478SOL    HW1 6331   9.953  13.319   0.478
 1478SOL    HW2 6332  10.037  13.194   0.465
 1479SOL     OW 6333  10.638   4.091  10.860
 1479SOL    HW1 6334  10.674   4.166  10.813
 1479SOL    HW2 6335  10.574   4.129  10.921
 1480SOL     OW 6336  11.262   1.514   4.438
 1480SOL    HW1 6337  11.181   1.542   4.396
 1480SOL    HW2 6338  11.242   1.426   4.470
 1481SOL     OW 6339  14.337   8.221  12.972
 1481SOL    HW1 6340  14.320   8.148  12.912
 1481SOL    HW2 6341  14.250   8.260  12.987
 1482SOL     OW 6342   9.591   9.915   7.130
 1482SOL    HW1 6343   9.599  10.007   7.102
 1482SOL    HW2 6344   9.499   9.904   7.153
 1483SOL     OW 6345   8.284   9.439   7.375
 1483SOL    HW1 6346   8.240   9.421   7.458
 1483SOL    HW2 6347   8.359   9.380   7.373
 1484SOL     OW 6348   1.890   3.599   8.614
 1484SOL    HW1 6349   1.848   3.576   8.697
 1484SOL    HW2 6350   1.968   3.544   8.610
 1485SOL     OW 6351   2.209   2.515  11.089
 1485SOL    HW1 6352   2.162   2.573  11.029
 1485SOL    HW2 6353   2.292   2.560  11.105
 1486SOL     OW 6354  10.023  12.077  12.071
 1486SOL    HW1 6355  10.003  12.152  12.016
 1486SOL    HW2 6356  10.072  12.114  12.145
 1487SOL     OW 6357  14.145   8.445  14.108
 1487SOL    HW1 6358  14.233   8.411  14.092
 1487SOL    HW2 6359  14.087   8.373  14.082
 1488SOL     OW 6360   1.938   7.860  13.363
 1488SOL    HW1 6361   1.954   7.775  13.402
 1488SOL    HW2 6362   1.902   7.913  13.434
 1489SOL     OW 6363   6.842  13.396   5.597
 1489SOL    HW1 6364   6.927  13.415   5.636
 1489SOL    HW2 6365   6.846  13.435   5.509
 1490SOL     OW 6366  14.408   0.051  11.287
 1490SOL    HW1 6367  14.427   0.143  11.308
 1490SOL    HW2 6368  14.494   0.013  11.271
 1491SOL     OW 6369   1.361   7.722  13.768
 1491SOL    HW1 6370   1.425   7.767  13.823
 1491SOL    HW2 6371   1.384   7.629  13.775
 1492SOL     OW 6372   3.302   6.328   1.274
 1492SOL    HW1 6373   3.382   6.380   1.276
 1492SOL    HW2 6374   3.235   6.385   1.312
 1493SOL     OW 6375  14.793   6.234  14.402
 1493SOL    HW1 6376   0.002   6.262  14.372
 1493SOL    HW2 6377  14.786   6.268  14.491
 1494SOL     OW 6378  12.996   3.980   1.324
 1494SOL    HW1 6379  12.972   4.040   1.395
 1494SOL    HW2 6380  12.938   3.904   1.336
 1495SOL     OW 6381   8.126  12.841   6.281
 1495SOL    HW1 6382   8.197  12.891   6.239
 1495SOL    HW2 6383   8.050  12.897   6.275
 1496SOL     OW 6384   2.587   8.862   1.947
 1496SOL    HW1 6385   2.509   8.848   2.000
 1496SOL    HW2 6386   2.650   8.901   2.008
 1497SOL     OW 6387   4.532   5.671  13.986
 1497SOL    HW1 6388   4.488   5.695  13.904
 1497SOL    HW2 6389   4.475   5.706  14.054
 1498SOL     OW 6390   7.806   3.079  10.171
 1498SOL    HW1 6391   7.836   3.169  10.186
 1498SOL    HW2 6392   7.823   3.034  10.254
 1499SOL     OW 6393   6.307  14.012  11.377
 1499SOL    HW1 6394   6.236  14.013  11.312
 1499SOL    HW2 6395   6.384  13.983  11.328
 1500SOL     OW 6396   9.771   0.556   9.189
 1500SOL    HW1 6397   9.828   0.620   9.147
 1500SOL    HW2 6398   9.691   0.556   9.137
 1501SOL     OW 6399  12.389  12.145   5.261
 1501SOL    HW1 6400  12.393  12.050   5.253
 1501SOL    HW2 6401  12.315  12.171   5.206
 1502SOL     OW 6402   0.828  11.506   0.259
 1502SOL    HW1 6403   0.861  11.434   0.206
 1502SOL    HW2 6404   0.732  11.496   0.256
 1503SOL     OW 6405  12.682   6.420  10.406
 1503SOL    HW1 6406  12.589   6.424  10.427
 1503SOL    HW2 6407  12.691   6.470  10.325
 1504SOL     OW 6408  11.571   7.927   1.554
 1504SOL    HW1 6409  11.652   7.962   1.590
 1504SOL    HW2 6410  11.502   7.967   1.606
 1505SOL     OW 6411   1.942  11.690   7.119
 1505SOL    HW1 6412   1.859  11.702   7.165
 1505SOL    HW2 6413   1.989  11.772   7.132
 1506SOL     OW 6414   7.705  10.465  10.124
 1506SOL    HW1 6415   7.634  10.437  10.182
 1506SOL    HW2 6416   7.784  10.461  10.178
 1507SOL     OW 6417  13.855   9.514  14.334
 1507SOL    HW1 6418  13.949   9.525  14.317
 1507SOL    HW2 6419  13.820   9.475  14.254
 1508SOL     OW 6420   1.458   7.520   7.980
 1508SOL    HW1 6421   1.380   7.530   7.926
 1508SOL    HW2 6422   1.524   7.483   7.922
 1509SOL     OW 6423   1.473   5.518   5.031
 1509SOL    HW1 6424   1.461   5.489   4.941
 1509SOL    HW2 6425   1.463   5.439   5.084
 1510SOL     OW 6426  12.879  10.882  11.704
 1510SOL    HW1 6427  12.927  10.931  11.771
 1510SOL    HW2 6428  12.945  10.860  11.639
 1511SOL     OW 6429   4.082   5.980  12.323
 1511SOL    HW1 6430   4.169   5.949  12.299
 1511SOL    HW2 6431   4.033   5.980  12.241
 1512SOL     OW 6432   7.546   9.007   6.085
 1512SOL    HW1 6433   7.633   9.040   6.108
 1512SOL    HW2 6434   7.533   8.932   6.143
 1513SOL     OW 6435   6.096   6.691   5.787
 1513SOL    HW1 6436   6.129   6.772   5.748
 1513SOL    HW2 6437   6.027   6.662   5.728
 1514SOL     OW 6438   1.076   2.494   9.457
 1514SOL    HW1 6439   1.096   2.509   9.364
 1514SOL    HW2 6440   1.037   2.407   9.460
 1515SOL     OW 6441   2.462   5.456  12.891
 1515SOL    HW1 6442   2.384   5.405  12.870
 1515SOL    HW2 6443   2.514   5.455  12.811
 1516SOL     OW 6444   5.898   1.595   6.153
 1516SOL    HW1 6445   5.950   1.540   6.212
 1516SOL    HW2 6446   5.811   1.598   6.194
 1517SOL     OW 6447  10.839   1.839   0.725
 1517SOL    HW1 6448  10.908   1.902   0.704
 1517SOL    HW2 6449  10.862   1.761   0.673
 1518SOL     OW 6450   7.976   9.046  13.129
 1518SOL    HW1 6451   7.961   9.012  13.041
 1518SOL    HW2 6452   8.071   9.059  13.134
 1519SOL     OW 6453   2.579   2.229  12.474
 1519SOL    HW1 6454   2.485   2.230  12.460
 1519SOL    HW2 6455   2.593   2.286  12.550
 1520SOL     OW 6456   6.704   5.762   2.858
 1520SOL    HW1 6457   6.755   5.681   2.853
 1520SOL    HW2 6458   6.730   5.812   2.781
 1521SOL     OW 6459  11.727   7.882   9.085
 1521SOL    HW1 6460  11.806   7.934   9.104
 1521SOL    HW2 6461  11.697   7.915   9.000
 1522SOL     OW 6462  14.164   0.013  11.424
 1522SOL    HW1 6463  14.159   0.104  11.453
 1522SOL    HW2 6464  14.239   0.010  11.365
 1523SOL     OW 6465   8.428   9.268   3.817
 1523SOL    HW1 6466   8.422   9.268   3.913
 1523SOL    HW2 6467   8.501   9.210   3.798
 1524SOL     OW 6468   2.969   7.063   5.863
 1524SOL    HW1 6469   3.028   7.052   5.937
 1524SOL    HW2 6470   3.002   7.001   5.797
 1525SOL     OW 6471  10.791  11.773   3.163
 1525SOL    HW1 6472  10.852  11.721   3.111
 1525SOL    HW2 6473  10.846  11.839   3.206
 1526SOL     OW 6474   9.198   1.878   4.327
 1526SOL    HW1 6475   9.233   1.964   4.302
 1526SOL    HW2 6476   9.270   1.837   4.376
 1527SOL     OW 6477  11.979   2.213   7.045
 1527SOL    HW1 6478  12.074   2.210   7.057
 1527SOL    HW2 6479  11.956   2.305   7.056
 1528SOL     OW 6480  12.139   9.479   0.700
 1528SOL    HW1 6481  12.147   9.572   0.721
 1528SOL    HW2 6482  12.225   9.442   0.719
 1529SOL     OW 6483   0.878   0.853   1.622
 1529SOL    HW1 6484   0.799   0.890   1.583
 1529SOL    HW2 6485   0.911   0.793   1.555
 1530SOL     OW 6486   0.776   6.762   1.839
 1530SOL    HW1 6487   0.835   6.765   1.915
 1530SOL    HW2 6488   0.797   6.842   1.790
 1531SOL     OW 6489   0.427  14.232   5.207
 1531SOL    HW1 6490   0.499  14.246   5.269
 1531SOL    HW2 6491   0.415  14.137   5.205
 1532SOL     OW 6492   6.703   8.294   2.679
 1532SOL    HW1 6493   6.694   8.215   2.625
 1532SOL    HW2 6494   6.784   8.279   2.728
 1533SOL     OW 6495   0.841   9.361   3.937
 1533SOL    HW1 6496   0.800   9.445   3.956
 1533SOL    HW2 6497   0.792   9.327   3.863
 1534SOL     OW 6498  13.876  13.974   7.645
 1534SOL    HW1 6499  13.823  13.925   7.581
 1534SOL    HW2 6500  13.817  14.039   7.681
 1535SOL     OW 6501  11.999   8.692  13.639
 1535SOL    HW1 6502  12.070   8.723  13.583
 1535SOL    HW2 6503  12.012   8.738  13.722
 1536SOL     OW 6504  14.800   9.355  10.341
 1536SOL    HW1 6505  14.871   9.408  10.377
 1536SOL    HW2 6506  14.721   9.408  10.356
 1537SOL     OW 6507   4.785  14.526   6.040
 1537SOL    HW1 6508   4.722  14.593   6.066
 1537SOL    HW2 6509   4.736  14.469   5.981
 1538SOL     OW 6510   7.156   1.639   8.247
 1538SOL    HW1 6511   7.226   1.574   8.248
 1538SOL    HW2 6512   7.184   1.705   8.311
 1539SOL     OW 6513   9.370   8.111   2.254
 1539SOL    HW1 6514   9.377   8.018   2.275
 1539SOL    HW2 6515   9.460   8.144   2.263
 1540SOL     OW 6516  11.294   4.094  14.489
 1540SOL    HW1 6517  11.207   4.072  14.523
 1540SOL    HW2 6518  11.351   4.027  14.525
 1541SOL     OW 6519   5.980  13.285  12.644
 1541SOL    HW1 6520   5.948  13.361  12.693
 1541SOL    HW2 6521   6.070  13.274  12.674
 1542SOL     OW 6522  14.362   9.444  12.818
 1542SOL    HW1 6523  14.395   9.531  12.795
 1542SOL    HW2 6524  14.372   9.393  12.738
 1543SOL     OW 6525   5.853   8.313   8.358
 1543SOL    HW1 6526   5.846   8.271   8.443
 1543SOL    HW2 6527   5.935   8.362   8.362
 1544SOL     OW 6528   9.414   3.022   4.115
 1544SOL    HW1 6529   9.334   3.030   4.064
 1544SOL    HW2 6530   9.482   3.059   4.058
 1545SOL     OW 6531   7.104  14.605  12.841
 1545SOL    HW1 6532   7.169  14.601  12.911
 1545SOL    HW2 6533   7.136  14.542  12.776
 1546SOL     OW 6534   7.717   3.260   6.509
 1546SOL    HW1 6535   7.732   3.200   6.582
 1546SOL    HW2 6536   7.778   3.332   6.524
 1547SOL     OW 6537   5.984   9.591   4.634
 1547SOL    HW1 6538   5.924   9.568   4.705
 1547SOL    HW2 6539   6.043   9.516   4.627
 1548SOL     OW 6540   2.945   4.735  11.902
 1548SOL    HW1 6541   2.885   4.774  11.838
 1548SOL    HW2 6542   2.895   4.736  11.984
 1549SOL     OW 6543   2.020  12.529   9.532
 1549SOL    HW1 6544   2.077  12.605   9.518
 1549SOL    HW2 6545   2.002  12.530   9.626
 1550SOL     OW 6546   1.435   7.209   7.199
 1550SOL    HW1 6547   1.390   7.291   7.180
 1550SOL    HW2 6548   1.463   7.177   7.113
 1551SOL     OW 6549   5.667   4.391   7.184
 1551SOL    HW1 6550   5.603   4.411   7.251
 1551SOL    HW2 6551   5.699   4.477   7.155
 1552SOL     OW 6552  12.337  10.638  10.590
 1552SOL    HW1 6553  12.323  10.641  10.495
 1552SOL    HW2 6554  12.431  10.652  10.601
 1553SOL     OW 6555   2.115  13.132   5.957
 1553SOL    HW1 6556   2.097  13.041   5.982
 1553SOL    HW2 6557   2.199  13.129   5.911
 1554SOL     OW 6558  11.063  10.097   8.746
 1554SOL    HW1 6559  11.081  10.188   8.772
 1554SOL    HW2 6560  11.064  10.099   8.650
 1555SOL     OW 6561   7.723  10.544  11.161
 1555SOL    HW1 6562   7.763  10.485  11.225
 1555SOL    HW2 6563   7.659  10.595  11.212
 1556SOL     OW 6564   4.775  11.164   2.913
 1556SOL    HW1 6565   4.817  11.126   2.836
 1556SOL    HW2 6566   4.716  11.231   2.878
 1557SOL     OW 6567   4.735  14.791  14.511
 1557SOL    HW1 6568   4.661  14.756  14.462
 1557SOL    HW2 6569   4.695  14.839  14.584
 1558SOL     OW 6570   3.120   1.181   0.152
 1558SOL    HW1 6571   3.090   1.266   0.184
 1558SOL    HW2 6572   3.069   1.168   0.071
 1559SOL     OW 6573   6.733   6.356   5.887
 1559SOL    HW1 6574   6.687   6.438   5.905
 1559SOL    HW2 6575   6.699   6.328   5.802
 1560SOL     OW 6576   9.307  11.713   7.121
 1560SOL    HW1 6577   9.347  11.689   7.037
 1560SOL    HW2 6578   9.282  11.805   7.110
 1561SOL     OW 6579  14.228  10.099   2.598
 1561SOL    HW1 6580  14.286  10.168   2.630
 1561SOL    HW2 6581  14.252  10.088   2.506
 1562SOL     OW 6582  11.405   5.235   0.064
 1562SOL    HW1 6583  11.490   5.196   0.047
 1562SOL    HW2 6584  11.364   5.242  14.855
 1563SOL     OW 6585  12.145   1.477   9.336
 1563SOL    HW1 6586  12.223   1.520   9.299
 1563SOL    HW2 6587  12.154   1.489   9.431
 1564SOL     OW 6588   4.645  13.068  10.255
 1564SOL    HW1 6589   4.736  13.092  10.236
 1564SOL    HW2 6590   4.634  13.088  10.348
 1565SOL     OW 6591  13.385  12.235   8.228
 1565SOL    HW1 6592  13.443  12.161   8.245
 1565SOL    HW2 6593  13.332  12.208   8.153
 1566SOL     OW 6594   0.250  11.366   8.451
 1566SOL    HW1 6595   0.336  11.335   8.477
 1566SOL    HW2 6596   0.190  11.327   8.514
 1567SOL     OW 6597   2.474   3.154  13.480
 1567SOL    HW1 6598   2.444   3.077  13.431
 1567SOL    HW2 6599   2.555   3.181  13.435
 1568SOL     OW 6600   3.613  14.394   5.364
 1568SOL    HW1 6601   3.596  14.465   5.427
 1568SOL    HW2 6602   3.688  14.347   5.401
 1569SOL     OW 6603  14.259   3.650   7.678
 1569SOL    HW1 6604  14.236   3.702   7.754
 1569SOL    HW2 6605  14.353   3.660   7.669
 1570SOL     OW 6606   9.717   0.413   4.337
 1570SOL    HW1 6607   9.730   0.324   4.304
 1570SOL    HW2 6608   9.661   0.455   4.273
 1571SOL     OW 6609   1.948  14.740   8.878
 1571SOL    HW1 6610   1.969  14.796   8.953
 1571SOL    HW2 6611   1.881  14.789   8.830
 1572SOL     OW 6612   8.065   6.532   4.265
 1572SOL    HW1 6613   8.097   6.453   4.308
 1572SOL    HW2 6614   8.127   6.547   4.193
 1573SOL     OW 6615   3.966  14.351   3.167
 1573SOL    HW1 6616   3.907  14.424   3.187
 1573SOL    HW2 6617   3.916  14.273   3.191
 1574SOL     OW 6618   2.635   2.768   0.025
 1574SOL    HW1 6619   2.729   2.782   0.012
 1574SOL    HW2 6620   2.604   2.735  14.818
 1575SOL     OW 6621   8.966   0.184   7.232
 1575SOL    HW1 6622   8.888   0.163   7.180
 1575SOL    HW2 6623   9.025   0.111   7.216
 1576SOL     OW 6624   5.815  12.075   7.277
 1576SOL    HW1 6625   5.888  12.131   7.253
 1576SOL    HW2 6626   5.855  11.990   7.295
 1577SOL     OW 6627   3.379   9.849   5.957
 1577SOL    HW1 6628   3.381   9.858   5.861
 1577SOL    HW2 6629   3.303   9.795   5.974
 1578SOL     OW 6630   9.746  10.436   4.173
 1578SOL    HW1 6631   9.704  10.486   4.243
 1578SOL    HW2 6632   9.759  10.500   4.102
 1579SOL     OW 6633   3.119   4.306  11.043
 1579SOL    HW1 6634   3.136   4.334  11.133
 1579SOL    HW2 6635   3.122   4.387  10.992
 1580SOL     OW 6636   5.926   3.991  13.817
 1580SOL    HW1 6637   5.919   4.027  13.729
 1580SOL    HW2 6638   5.972   3.908  13.805
 1581SOL     OW 6639   2.072   6.959   5.798
 1581SOL    HW1 6640   2.039   6.874   5.827
 1581SOL    HW2 6641   1.993   7.009   5.774
 1582SOL     OW 6642   0.881   7.165   8.385
 1582SOL    HW1 6643   0.849   7.233   8.326
 1582SOL    HW2 6644   0.911   7.095   8.327
 1583SOL     OW 6645   5.163   0.908   8.335
 1583SOL    HW1 6646   5.077   0.936   8.306
 1583SOL    HW2 6647   5.198   0.857   8.262
 1584SOL     OW 6648   8.898   5.418   2.420
 1584SOL    HW1 6649   8.854   5.336   2.440
 1584SOL    HW2 6650   8.851   5.452   2.343
 1585SOL     OW 6651   5.369   4.876   2.402
 1585SOL    HW1 6652   5.457   4.852   2.430
 1585SOL    HW2 6653   5.317   4.797   2.415
 1586SOL     OW 6654   5.237  11.684  11.301
 1586SOL    HW1 6655   5.327  11.670  11.331
 1586SOL    HW2 6656   5.186  11.616  11.345
 1587SOL     OW 6657   3.638  10.795   3.009
 1587SOL    HW1 6658   3.704  10.735   2.975
 1587SOL    HW2 6659   3.667  10.881   2.980
 1588SOL     OW 6660   5.044   0.564  12.039
 1588SOL    HW1 6661   4.988   0.523  12.106
 1588SOL    HW2 6662   5.026   0.514  11.959
 1589SOL     OW 6663   7.528   7.634   5.634
 1589SOL    HW1 6664   7.607   7.682   5.608
 1589SOL    HW2 6665   7.495   7.681   5.710
 1590SOL     OW 6666   4.898  11.791   1.548
 1590SOL    HW1 6667   4.847  11.731   1.603
 1590SOL    HW2 6668   4.965  11.736   1.509
 1591SOL     OW 6669  11.728   0.737   7.824
 1591SOL    HW1 6670  11.651   0.682   7.809
 1591SOL    HW2 6671  11.756   0.715   7.913
 1592SOL     OW 6672   0.143   2.215  12.481
 1592SOL    HW1 6673   0.077   2.237  12.416
 1592SOL    HW2 6674   0.114   2.131  12.517
 1593SOL     OW 6675  14.089  10.812   7.952
 1593SOL    HW1 6676  14.075  10.786   7.861
 1593SOL    HW2 6677  14.017  10.770   8.000
 1594SOL     OW 6678   5.062   6.070   3.187
 1594SOL    HW1 6679   5.078   6.071   3.092
 1594SOL    HW2 6680   5.081   6.159   3.216
 1595SOL     OW 6681   7.923  12.149  12.348
 1595SOL    HW1 6682   7.982  12.111  12.413
 1595SOL    HW2 6683   7.960  12.236  12.330
 1596SOL     OW 6684  14.019   9.353  12.963
 1596SOL    HW1 6685  13.943   9.367  13.021
 1596SOL    HW2 6686  13.997   9.273  12.915
 1597SOL     OW 6687   5.410   8.156   8.986
 1597SOL    HW1 6688   5.417   8.165   9.081
 1597SOL    HW2 6689   5.323   8.191   8.966
 1598SOL     OW 6690   8.114   9.660  14.334
 1598SOL    HW1 6691   8.177   9.589  14.323
 1598SOL    HW2 6692   8.030   9.623  14.304
 1599SOL     OW 6693  13.552  10.994   7.735
 1599SOL    HW1 6694  13.516  10.925   7.790
 1599SOL    HW2 6695  13.567  10.952   7.651
 1600SOL     OW 6696   2.669   9.798  11.543
 1600SOL    HW1 6697   2.587   9.848  11.547
 1600SOL    HW2 6698   2.641   9.706  11.546
 1601SOL     OW 6699   8.847   8.305  14.805
 1601SOL    HW1 6700   8.904   8.380  14.791
 1601SOL    HW2 6701   8.894   8.231  14.767
 1602SOL     OW 6702  10.744   1.208   9.904
 1602SOL    HW1 6703  10.736   1.300   9.930
 1602SOL    HW2 6704  10.774   1.211   9.813
 1603SOL     OW 6705   5.332  10.929   4.568
 1603SOL    HW1 6706   5.311  11.011   4.524
 1603SOL    HW2 6707   5.373  10.875   4.500
 1604SOL     OW 6708  14.743  14.350   6.780
 1604SOL    HW1 6709  14.728  14.443   6.762
 1604SOL    HW2 6710  14.677  14.304   6.727
 1605SOL     OW 6711  13.598   0.913   7.033
 1605SOL    HW1 6712  13.688   0.884   7.020
 1605SOL    HW2 6713  13.587   0.917   7.128
 1606SOL     OW 6714   9.371  12.090   8.780
 1606SOL    HW1 6715   9.309  12.157   8.753
 1606SOL    HW2 6716   9.427  12.075   8.704
 1607SOL     OW 6717   6.843   0.241   7.078
 1607SOL    HW1 6718   6.752   0.258   7.105
 1607SOL    HW2 6719   6.896   0.272   7.151
 1608SOL     OW 6720  12.679   3.136   3.939
 1608SOL    HW1 6721  12.656   3.158   4.029
 1608SOL    HW2 6722  12.594   3.135   3.893
 1609SOL     OW 6723   0.957   1.797  13.041
 1609SOL    HW1 6724   0.951   1.766  12.950
 1609SOL    HW2 6725   0.937   1.890  13.036
 1610SOL     OW 6726   8.122   1.798  12.247
 1610SOL    HW1 6727   8.153   1.772  12.333
 1610SOL    HW2 6728   8.077   1.881  12.261
 1611SOL     OW 6729   6.165  10.082   7.145
 1611SOL    HW1 6730   6.206  10.136   7.212
 1611SOL    HW2 6731   6.074  10.110   7.143
 1612SOL     OW 6732   8.035   7.165  14.244
 1612SOL    HW1 6733   8.109   7.198  14.295
 1612SOL    HW2 6734   7.992   7.243  14.210
 1613SOL     OW 6735   9.293   7.203   7.774
 1613SOL    HW1 6736   9.321   7.216   7.864
 1613SOL    HW2 6737   9.202   7.232   7.772
 1614SOL     OW 6738  14.680  12.037  10.135
 1614SOL    HW1 6739  14.722  11.954  10.111
 1614SOL    HW2 6740  14.751  12.099  10.144
 1615SOL     OW 6741   7.223  14.444   2.007
 1615SOL    HW1 6742   7.127  14.449   2.005
 1615SOL    HW2 6743   7.249  14.499   2.080
 1616SOL     OW 6744   2.245   2.629   9.560
 1616SOL    HW1 6745   2.196   2.688   9.503
 1616SOL    HW2 6746   2.263   2.681   9.638
 1617SOL     OW 6747   0.796   0.697   0.106
 1617SOL    HW1 6748   0.818   0.738   0.022
 1617SOL    HW2 6749   0.821   0.605   0.095
 1618SOL     OW 6750  11.671  12.911   6.936
 1618SOL    HW1 6751  11.721  12.992   6.943
 1618SOL    HW2 6752  11.697  12.875   6.851
 1619SOL     OW 6753  13.097   6.021   6.878
 1619SOL    HW1 6754  13.076   5.958   6.946
 1619SOL    HW2 6755  13.155   5.973   6.818
 1620SOL     OW 6756   6.005  13.127   6.788
 1620SOL    HW1 6757   5.943  13.170   6.729
 1620SOL    HW2 6758   5.978  13.154   6.876
 1621SOL     OW 6759   0.055  14.593   8.069
 1621SOL    HW1 6760  14.860  14.534   8.050
 1621SOL    HW2 6761   0.122  14.570   8.005
 1622SOL     OW 6762   0.943   7.030   8.119
 1622SOL    HW1 6763   0.988   7.067   8.043
 1622SOL    HW2 6764   0.871   6.980   8.081
 1623SOL     OW 6765   7.837   3.384   1.949
 1623SOL    HW1 6766   7.765   3.321   1.941
 1623SOL    HW2 6767   7.914   3.330   1.966
 1624SOL     OW 6768  13.293   0.355   9.518
 1624SOL    HW1 6769  13.344   0.379   9.596
 1624SOL    HW2 6770  13.218   0.414   9.519
 1625SOL     OW 6771  11.200   3.980  10.946
 1625SOL    HW1 6772  11.283   4.021  10.925
 1625SOL    HW2 6773  11.219   3.924  11.021
 1626SOL     OW 6774  11.483  12.804   4.061
 1626SOL    HW1 6775  11.449  12.839   3.979
 1626SOL    HW2 6776  11.570  12.770   4.038
 1627SOL     OW 6777   2.528  11.757   1.205
 1627SOL    HW1 6778   2.450  11.808   1.182
 1627SOL    HW2 6779   2.599  11.797   1.154
 1628SOL     OW 6780   3.794   7.674   5.957
 1628SOL    HW1 6781   3.784   7.710   5.869
 1628SOL    HW2 6782   3.834   7.588   5.944
 1629SOL     OW 6783   8.245   9.242   4.330
 1629SOL    HW1 6784   8.192   9.319   4.351
 1629SOL    HW2 6785   8.197   9.169   4.368
 1630SOL     OW 6786  10.542   4.850   5.689
 1630SOL    HW1 6787  10.456   4.809   5.699
 1630SOL    HW2 6788  10.600   4.798   5.745
 1631SOL     OW 6789   9.806   7.294  14.224
 1631SOL    HW1 6790   9.734   7.343  14.262
 1631SOL    HW2 6791   9.778   7.277  14.134
 1632SOL     OW 6792   1.817   8.078  12.460
 1632SOL    HW1 6793   1.794   8.129  12.381
 1632SOL    HW2 6794   1.768   7.996  12.451
 1633SOL     OW 6795   2.448   9.179   9.163
 1633SOL    HW1 6796   2.444   9.172   9.068
 1633SOL    HW2 6797   2.540   9.198   9.182
 1634SOL     OW 6798  10.457   3.445   0.634
 1634SOL    HW1 6799  10.482   3.415   0.547
 1634SOL    HW2 6800  10.383   3.388   0.658
 1635SOL     OW 6801   6.862  11.455   3.384
 1635SOL    HW1 6802   6.860  11.396   3.459
 1635SOL    HW2 6803   6.819  11.406   3.314
 1636SOL     OW 6804  10.487   3.980   7.607
 1636SOL    HW1 6805  10.553   4.022   7.663
 1636SOL    HW2 6806  10.489   4.031   7.526
 1637SOL     OW 6807   4.298   9.421   7.575
 1637SOL    HW1 6808   4.371   9.483   7.566
 1637SOL    HW2 6809   4.235   9.467   7.630
 1638SOL     OW 6810  14.217  13.507   3.534
 1638SOL    HW1 6811  14.139  13.559   3.515
 1638SOL    HW2 6812  14.279  13.570   3.571
 1639SOL     OW 6813  14.539  10.125   2.618
 1639SOL    HW1 6814  14.604  10.056   2.632
 1639SOL    HW2 6815  14.527  10.164   2.705
 1640SOL     OW 6816   5.367   4.351   4.901
 1640SOL    HW1 6817   5.419   4.429   4.918
 1640SOL    HW2 6818   5.432   4.280   4.894
 1641SOL     OW 6819   0.430   8.353   5.847
 1641SOL    HW1 6820   0.429   8.269   5.892
 1641SOL    HW2 6821   0.344   8.359   5.805
 1642SOL     OW 6822   8.631  10.401  11.988
 1642SOL    HW1 6823   8.708  10.453  11.965
 1642SOL    HW2 6824   8.594  10.375  11.904
 1643SOL     OW 6825   3.171   3.840   6.429
 1643SOL    HW1 6826   3.078   3.853   6.408
 1643SOL    HW2 6827   3.212   3.924   6.408
 1644SOL     OW 6828   9.799  14.116   9.842
 1644SOL    HW1 6829   9.834  14.202   9.867
 1644SOL    HW2 6830   9.876  14.060   9.837
 1645SOL     OW 6831   8.944   5.294  13.638
 1645SOL    HW1 6832   9.006   5.296  13.710
 1645SOL    HW2 6833   8.882   5.225  13.661
 1646SOL     OW 6834   9.163   2.310   1.123
 1646SOL    HW1 6835   9.242   2.281   1.169
 1646SOL    HW2 6836   9.159   2.405   1.139
 1647SOL     OW 6837  10.736   7.792  12.200
 1647SOL    HW1 6838  10.693   7.713  12.168
 1647SOL    HW2 6839  10.696   7.864  12.150
 1648SOL     OW 6840  11.427   6.932   6.761
 1648SOL    HW1 6841  11.436   6.947   6.855
 1648SOL    HW2 6842  11.486   6.996   6.720
 1649SOL     OW 6843  12.851   2.869   1.683
 1649SOL    HW1 6844  12.842   2.853   1.589
 1649SOL    HW2 6845  12.832   2.962   1.693
 1650SOL     OW 6846   2.202   6.945   8.563
 1650SOL    HW1 6847   2.170   7.011   8.624
 1650SOL    HW2 6848   2.146   6.954   8.487
 1651SOL     OW 6849  12.762   5.909  12.124
 1651SOL    HW1 6850  12.675   5.927  12.088
 1651SOL    HW2 6851  12.810   5.992  12.115
 1652SOL     OW 6852   6.529   0.308   1.315
 1652SOL    HW1 6853   6.608   0.287   1.265
 1652SOL    HW2 6854   6.548   0.393   1.355
 1653SOL     OW 6855   8.581   2.454   2.518
 1653SOL    HW1 6856   8.578   2.549   2.513
 1653SOL    HW2 6857   8.558   2.433   2.608
 1654SOL     OW 6858  10.325   0.811   5.743
 1654SOL    HW1 6859  10.333   0.806   5.648
 1654SOL    HW2 6860  10.414   0.804   5.776
 1655SOL     OW 6861  11.382   4.458   6.002
 1655SOL    HW1 6862  11.335   4.519   5.945
 1655SOL    HW2 6863  11.465   4.502   6.021
 1656SOL     OW 6864   3.703   3.496   5.852
 1656SOL    HW1 6865   3.743   3.409   5.850
 1656SOL    HW2 6866   3.613   3.481   5.880
 1657SOL     OW 6867   2.388   9.358   3.916
 1657SOL    HW1 6868   2.402   9.290   3.982
 1657SOL    HW2 6869   2.328   9.319   3.853
 1658SOL     OW 6870   1.254   9.095  14.568
 1658SOL    HW1 6871   1.348   9.113  14.570
 1658SOL    HW2 6872   1.213   9.180  14.586
 1659SOL     OW 6873   6.980  14.228   1.698
 1659SOL    HW1 6874   6.950  14.199   1.784
 1659SOL    HW2 6875   6.931  14.174   1.636
 1660SOL     OW 6876   5.532   9.081  12.773
 1660SOL    HW1 6877   5.472   9.077  12.847
 1660SOL    HW2 6878   5.598   9.015  12.792
 1661SOL     OW 6879   1.661   3.140  12.643
 1661SOL    HW1 6880   1.690   3.188  12.721
 1661SOL    HW2 6881   1.739   3.133  12.588
 1662SOL     OW 6882  13.908   7.140  10.124
 1662SOL    HW1 6883  13.972   7.103  10.064
 1662SOL    HW2 6884  13.938   7.229  10.142
 1663SOL     OW 6885   4.997   1.015   3.516
 1663SOL    HW1 6886   4.922   1.074   3.522
 1663SOL    HW2 6887   5.047   1.048   3.442
 1664SOL     OW 6888   2.485   6.619  13.838
 1664SOL    HW1 6889   2.398   6.581  13.823
 1664SOL    HW2 6890   2.485   6.640  13.932
 1665SOL     OW 6891  13.429  13.679   8.070
 1665SOL    HW1 6892  13.378  13.659   7.991
 1665SOL    HW2 6893  13.414  13.772   8.085
 1666SOL     OW 6894   4.973  10.639  13.661
 1666SOL    HW1 6895   4.945  10.669  13.574
 1666SOL    HW2 6896   4.921  10.559  13.676
 1667SOL     OW 6897  12.727   8.059  11.180
 1667SOL    HW1 6898  12.784   8.121  11.135
 1667SOL    HW2 6899  12.640   8.100  11.179
 1668SOL     OW 6900   7.787   9.214   0.786
 1668SOL    HW1 6901   7.730   9.190   0.859
 1668SOL    HW2 6902   7.869   9.241   0.827
 1669SOL     OW 6903  11.556   5.148   9.486
 1669SOL    HW1 6904  11.630   5.117   9.537
 1669SOL    HW2 6905  11.491   5.078   9.492
 1670SOL     OW 6906   9.969   8.984   6.292
 1670SOL    HW1 6907  10.009   8.918   6.237
 1670SOL    HW2 6908   9.960   8.942   6.378
 1671SOL     OW 6909  11.981   1.553   0.603
 1671SOL    HW1 6910  11.928   1.618   0.557
 1671SOL    HW2 6911  12.009   1.597   0.683
 1672SOL     OW 6912  14.204  12.651   4.349
 1672SOL    HW1 6913  14.154  12.570   4.339
 1672SOL    HW2 6914  14.261  12.635   4.425
 1673SOL     OW 6915   7.995  11.599  12.544
 1673SOL    HW1 6916   7.988  11.507  12.567
 1673SOL    HW2 6917   7.905  11.632  12.552
 1674SOL     OW 6918   5.424   9.104   6.641
 1674SOL    HW1 6919   5.348   9.092   6.583
 1674SOL    HW2 6920   5.398   9.063   6.723
 1675SOL     OW 6921   2.344   9.667   6.324
 1675SOL    HW1 6922   2.299   9.734   6.375
 1675SOL    HW2 6923   2.369   9.600   6.387
 1676SOL     OW 6924   0.176  11.836  12.103
 1676SOL    HW1 6925   0.263  11.817  12.140
 1676SOL    HW2 6926   0.193  11.854  12.011
 1677SOL     OW 6927   2.527   5.467  10.403
 1677SOL    HW1 6928   2.520   5.457  10.309
 1677SOL    HW2 6929   2.617   5.442  10.423
 1678SOL     OW 6930   7.472   5.288  14.664
 1678SOL    HW1 6931   7.394   5.254  14.707
 1678SOL    HW2 6932   7.444   5.302  14.573
 1679SOL     OW 6933  11.952   7.489  12.810
 1679SOL    HW1 6934  11.974   7.396  12.805
 1679SOL    HW2 6935  11.861   7.490  12.839
 1680SOL     OW 6936   3.050  14.840   1.564
 1680SOL    HW1 6937   3.027  14.775   1.630
 1680SOL    HW2 6938   2.972   0.018   1.558
 1681SOL     OW 6939   2.163   6.017  10.764
 1681SOL    HW1 6940   2.105   6.014  10.687
 1681SOL    HW2 6941   2.213   5.936  10.759
 1682SOL     OW 6942   6.351   1.166   8.068
 1682SOL    HW1 6943   6.418   1.215   8.114
 1682SOL    HW2 6944   6.383   1.076   8.067
 1683SOL     OW 6945   0.864  11.821   6.660
 1683SOL    HW1 6946   0.861  11.752   6.594
 1683SOL    HW2 6947   0.921  11.785   6.729
 1684SOL     OW 6948  12.400   7.743   6.770
 1684SOL    HW1 6949  12.434   7.825   6.735
 1684SOL    HW2 6950  12.415   7.749   6.864
 1685SOL     OW 6951  12.291   3.291  12.118
 1685SOL    HW1 6952  12.221   3.233  12.088
 1685SOL    HW2 6953  12.323   3.333  12.037
 1686SOL     OW 6954  14.770   7.409  13.725
 1686SOL    HW1 6955  14.821   7.327  13.728
 1686SOL    HW2 6956  14.701   7.391  13.661
 1687SOL     OW 6957   8.995  13.724   5.133
 1687SOL    HW1 6958   9.019  13.644   5.087
 1687SOL    HW2 6959   8.946  13.694   5.210
 1688SOL     OW 6960   6.073   5.373   1.061
 1688SOL    HW1 6961   6.078   5.326   1.144
 1688SOL    HW2 6962   6.086   5.465   1.085
 1689SOL     OW 6963   4.807   1.743   3.505
 1689SOL    HW1 6964   4.883   1.723   3.560
 1689SOL    HW2 6965   4.828   1.828   3.466
 1690SOL     OW 6966   8.739   9.015   6.262
 1690SOL    HW1 6967   8.663   9.073   6.251
 1690SOL    HW2 6968   8.702   8.928   6.269
 1691SOL     OW 6969   9.341  14.291   6.834
 1691SOL    HW1 6970   9.365  14.373   6.876
 1691SOL    HW2 6971   9.258  14.266   6.873
 1692SOL     OW 6972  10.003   5.100   9.203
 1692SOL    HW1 6973  10.065   5.066   9.138
 1692SOL    HW2 6974  10.057   5.148   9.265
 1693SOL     OW 6975   3.742  11.709   2.708
 1693SOL    HW1 6976   3.755  11.618   2.683
 1693SOL    HW2 6977   3.805  11.725   2.778
 1694SOL     OW 6978   0.510   4.114  14.721
 1694SOL    HW1 6979   0.569   4.053  14.765
 1694SOL    HW2 6980   0.434   4.061  14.696
 1695SOL     OW 6981   6.350  13.222  12.100
 1695SOL    HW1 6982   6.443  13.210  12.082
 1695SOL    HW2 6983   6.329  13.154  12.164
 1696SOL     OW 6984   9.590   3.914  10.570
 1696SOL    HW1 6985   9.593   3.860  10.649
 1696SOL    HW2 6986   9.681   3.944  10.558
 1697SOL     OW 6987   2.971   6.406   4.403
 1697SOL    HW1 6988   2.882   6.420   4.434
 1697SOL    HW2 6989   2.993   6.486   4.355
 1698SOL     OW 6990  10.755   9.444   0.568
 1698SOL    HW1 6991  10.685   9.506   0.545
 1698SOL    HW2 6992  10.831   9.474   0.518
 1699SOL     OW 6993  12.669   4.366   6.135
 1699SOL    HW1 6994  12.748   4.404   6.173
 1699SOL    HW2 6995  12.692   4.351   6.043
 1700SOL     OW 6996   6.591  12.468  12.870
 1700SOL    HW1 6997   6.554  12.476  12.782
 1700SOL    HW2 6998   6.553  12.388  12.905
 1701SOL     OW 6999   0.748   2.030   0.750
 1701SOL    HW1 7000   0.653   2.025   0.765
 1701SOL    HW2 7001   0.786   1.989   0.828
 1702SOL     OW 7002  14.043   1.111   7.818
 1702SOL    HW1 7003  14.100   1.135   7.891
 1702SOL    HW2 7004  13.954   1.113   7.854
 1703SOL     OW 7005  12.679  14.499   1.681
 1703SOL    HW1 7006  12.754  14.499   1.622
 1703SOL    HW2 7007  12.700  14.432   1.746
 1704SOL     OW 7008   5.604   9.202   1.871
 1704SOL    HW1 7009   5.512   9.206   1.848
 1704SOL    HW2 7010   5.617   9.113   1.905
 1705SOL     OW 7011  11.983   0.523   2.773
 1705SOL    HW1 7012  12.067   0.565   2.757
 1705SOL    HW2 7013  12.005   0.434   2.801
 1706SOL     OW 7014   7.058   6.486  14.608
 1706SOL    HW1 7015   7.148   6.453  14.617
 1706SOL    HW2 7016   7.061   6.540  14.529
 1707SOL     OW 7017   0.894   6.631  13.441
 1707SOL    HW1 7018   0.890   6.649  13.347
 1707SOL    HW2 7019   0.888   6.717  13.482
 1708SOL     OW 7020   9.891   5.835   0.362
 1708SOL    HW1 7021   9.952   5.761   0.365
 1708SOL    HW2 7022   9.871   5.846   0.269
 1709SOL     OW 7023   8.842   9.656   4.570
 1709SOL    HW1 7024   8.816   9.746   4.549
 1709SOL    HW2 7025   8.899   9.630   4.497
 1710SOL     OW 7026  11.300  12.003   8.278
 1710SOL    HW1 7027  11.316  12.092   8.310
 1710SOL    HW2 7028  11.309  12.010   8.183
 1711SOL     OW 7029  11.656   8.969  14.115
 1711SOL    HW1 7030  11.707   8.892  14.088
 1711SOL    HW2 7031  11.690   8.989  14.203
 1712SOL     OW 7032   1.266   4.803   9.342
 1712SOL    HW1 7033   1.343   4.762   9.382
 1712SOL    HW2 7034   1.255   4.885   9.391
 1713SOL     OW 7035   7.460   4.255   5.375
 1713SOL    HW1 7036   7.380   4.298   5.344
 1713SOL    HW2 7037   7.437   4.162   5.376
 1714SOL     OW 7038   4.714  10.299   3.577
 1714SOL    HW1 7039   4.646  10.331   3.518
 1714SOL    HW2 7040   4.755  10.226   3.530
 1715SOL     OW 7041   7.703   4.145   4.569
 1715SOL    HW1 7042   7.627   4.166   4.514
 1715SOL    HW2 7043   7.773   4.127   4.506
 1716SOL     OW 7044  12.209   1.030  10.223
 1716SOL    HW1 7045  12.115   1.020  10.234
 1716SOL    HW2 7046  12.233   0.959  10.163
 1717SOL     OW 7047   7.187   7.041   9.498
 1717SOL    HW1 7048   7.180   7.102   9.425
 1717SOL    HW2 7049   7.268   6.993   9.482
 1718SOL     OW 7050  14.873  12.218   3.619
 1718SOL    HW1 7051   0.028  12.308   3.628
 1718SOL    HW2 7052  14.800  12.224   3.557
 1719SOL     OW 7053   8.372  11.350   5.490
 1719SOL    HW1 7054   8.378  11.276   5.551
 1719SOL    HW2 7055   8.288  11.337   5.445
 1720SOL     OW 7056  14.197  10.456   8.899
 1720SOL    HW1 7057  14.110  10.444   8.860
 1720SOL    HW2 7058  14.249  10.384   8.864
 1721SOL     OW 7059   4.288   2.025  12.094
 1721SOL    HW1 7060   4.270   2.054  12.005
 1721SOL    HW2 7061   4.368   2.071  12.119
 1722SOL     OW 7062  14.025  14.770   7.250
 1722SOL    HW1 7063  13.929  14.774   7.246
 1722SOL    HW2 7064  14.045  14.677   7.242
 1723SOL     OW 7065  13.146   4.756   1.814
 1723SOL    HW1 7066  13.110   4.841   1.841
 1723SOL    HW2 7067  13.075   4.714   1.766
 1724SOL     OW 7068   3.556  12.500   6.039
 1724SOL    HW1 7069   3.647  12.482   6.065
 1724SOL    HW2 7070   3.524  12.562   6.104
 1725SOL     OW 7071   1.273  14.239   7.625
 1725SOL    HW1 7072   1.224  14.256   7.545
 1725SOL    HW2 7073   1.221  14.280   7.694
 1726SOL     OW 7074   9.303  10.314   7.767
 1726SOL    HW1 7075   9.353  10.327   7.687
 1726SOL    HW2 7076   9.224  10.266   7.739
 1727SOL     OW 7077   8.309   6.015   6.942
 1727SOL    HW1 7078   8.226   6.033   6.898
 1727SOL    HW2 7079   8.368   5.990   6.871
 1728SOL     OW 7080   3.038  10.790   7.240
 1728SOL    HW1 7081   3.030  10.703   7.202
 1728SOL    HW2 7082   3.025  10.777   7.334
 1729SOL     OW 7083   3.449   7.674   7.580
 1729SOL    HW1 7084   3.442   7.636   7.493
 1729SOL    HW2 7085   3.538   7.708   7.584
 1730SOL     OW 7086  13.671   7.485  10.742
 1730SOL    HW1 7087  13.697   7.512  10.654
 1730SOL    HW2 7088  13.577   7.504  10.746
 1731SOL     OW 7089  13.504  13.110   7.037
 1731SOL    HW1 7090  13.528  13.041   6.976
 1731SOL    HW2 7091  13.583  13.126   7.088
 1732SOL     OW 7092  10.208  13.113   6.556
 1732SOL    HW1 7093  10.148  13.180   6.588
 1732SOL    HW2 7094  10.241  13.071   6.635
 1733SOL     OW 7095  12.664   6.806   9.620
 1733SOL    HW1 7096  12.718   6.856   9.558
 1733SOL    HW2 7097  12.727   6.761   9.676
 1734SOL     OW 7098  10.310  10.406   1.919
 1734SOL    HW1 7099  10.312  10.332   1.858
 1734SOL    HW2 7100  10.327  10.367   2.005
 1735SOL     OW 7101   8.503   0.254   8.925
 1735SOL    HW1 7102   8.485   0.184   8.987
 1735SOL    HW2 7103   8.452   0.231   8.847
 1736SOL     OW 7104  13.292   8.876   5.092
 1736SOL    HW1 7105  13.271   8.865   5.185
 1736SOL    HW2 7106  13.207   8.882   5.049
 1737SOL     OW 7107   9.324  13.864   7.086
 1737SOL    HW1 7108   9.342  13.902   7.172
 1737SOL    HW2 7109   9.276  13.932   7.039
 1738SOL     OW 7110  11.852  14.158   2.497
 1738SOL    HW1 7111  11.814  14.242   2.523
 1738SOL    HW2 7112  11.945  14.164   2.522
 1739SOL     OW 7113   3.190   2.801   6.256
 1739SOL    HW1 7114   3.155   2.758   6.177
 1739SOL    HW2 7115   3.211   2.889   6.227
 1740SOL     OW 7116   6.869  11.151   6.476
 1740SOL    HW1 7117   6.961  11.174   6.466
 1740SOL    HW2 7118   6.841  11.128   6.387
 1741SOL     OW 7119   6.615   6.458  12.623
 1741SOL    HW1 7120   6.695   6.478  12.671
 1741SOL    HW2 7121   6.590   6.370  12.653
 1742SOL     OW 7122   5.016   5.876  12.844
 1742SOL    HW1 7123   5.070   5.801  12.819
 1742SOL    HW2 7124   4.927   5.848  12.828
 1743SOL     OW 7125  14.703   2.970   0.978
 1743SOL    HW1 7126  14.707   3.065   0.988
 1743SOL    HW2 7127  14.700   2.937   1.068
 1744SOL     OW 7128  14.022   5.240  13.278
 1744SOL    HW1 7129  14.050   5.221  13.189
 1744SOL    HW2 7130  14.069   5.177  13.332
 1745SOL     OW 7131   1.320  13.598   2.243
 1745SOL    HW1 7132   1.349  13.684   2.274
 1745SOL    HW2 7133   1.274  13.559   2.318
 1746SOL     OW 7134   5.866   5.355   8.800
 1746SOL    HW1 7135   5.879   5.263   8.775
 1746SOL    HW2 7136   5.935   5.403   8.752
 1747SOL     OW 7137  10.228  13.143  12.056
 1747SOL    HW1 7138  10.235  13.110  11.966
 1747SOL    HW2 7139  10.134  13.155  12.070
 1748SOL     OW 7140   6.683   8.101   3.545
 1748SOL    HW1 7141   6.646   8.058   3.468
 1748SOL    HW2 7142   6.723   8.181   3.511
 1749SOL     OW 7143  12.210   7.606   4.113
 1749SOL    HW1 7144  12.298   7.599   4.077
 1749SOL    HW2 7145  12.200   7.699   4.134
 1750SOL     OW 7146   9.357   5.213   8.403
 1750SOL    HW1 7147   9.315   5.288   8.445
 1750SOL    HW2 7148   9.311   5.137   8.437
 1751SOL     OW 7149   7.420   3.514   1.960
 1751SOL    HW1 7150   7.426   3.455   2.035
 1751SOL    HW2 7151   7.481   3.585   1.981
 1752SOL     OW 7152   8.122  12.420   6.637
 1752SOL    HW1 7153   8.105  12.355   6.569
 1752SOL    HW2 7154   8.137  12.502   6.589
 1753SOL     OW 7155   9.538   3.897   0.909
 1753SOL    HW1 7156   9.565   3.806   0.922
 1753SOL    HW2 7157   9.612   3.937   0.863
 1754SOL     OW 7158   6.841  12.586   7.297
 1754SOL    HW1 7159   6.916  12.566   7.241
 1754SOL    HW2 7160   6.799  12.661   7.254
 1755SOL     OW 7161   1.948   7.321   6.809
 1755SOL    HW1 7162   2.030   7.284   6.776
 1755SOL    HW2 7163   1.962   7.416   6.808
 1756SOL     OW 7164   5.245  14.646   5.690
 1756SOL    HW1 7165   5.216  14.561   5.723
 1756SOL    HW2 7166   5.179  14.708   5.721
 1757SOL     OW 7167  12.383   3.499   9.887
 1757SOL    HW1 7168  12.463   3.551   9.901
 1757SOL    HW2 7169  12.413   3.420   9.843
 1758SOL     OW 7170  14.295   1.814  12.408
 1758SOL    HW1 7171  14.235   1.819  12.334
 1758SOL    HW2 7172  14.276   1.892  12.460
 1759SOL     OW 7173   5.116   6.273   6.486
 1759SOL    HW1 7174   5.133   6.190   6.531
 1759SOL    HW2 7175   5.163   6.338   6.538
 1760SOL     OW 7176   1.172   4.146  12.748
 1760SOL    HW1 7177   1.083   4.140  12.714
 1760SOL    HW2 7178   1.213   4.216  12.698
 1761SOL     OW 7179   1.963  14.056   1.643
 1761SOL    HW1 7180   1.995  14.117   1.576
 1761SOL    HW2 7181   2.025  14.065   1.715
 1762SOL     OW 7182   2.153   5.439   8.066
 1762SOL    HW1 7183   2.210   5.368   8.098
 1762SOL    HW2 7184   2.145   5.498   8.140
 1763SOL     OW 7185   4.067   3.753   7.359
 1763SOL    HW1 7186   4.079   3.846   7.339
 1763SOL    HW2 7187   4.020   3.718   7.283
 1764SOL     OW 7188   2.410   9.182   2.753
 1764SOL    HW1 7189   2.501   9.157   2.737
 1764SOL    HW2 7190   2.383   9.230   2.675
 1765SOL     OW 7191  14.719   0.997   5.642
 1765SOL    HW1 7192  14.800   1.035   5.674
 1765SOL    HW2 7193  14.674   0.964   5.720
 1766SOL     OW 7194   7.243   8.914  12.560
 1766SOL    HW1 7195   7.175   8.867  12.607
 1766SOL    HW2 7196   7.257   8.994  12.611
 1767SOL     OW 7197  11.053   4.073  14.654
 1767SOL    HW1 7198  11.000   4.151  14.639
 1767SOL    HW2 7199  10.991   4.001  14.656
 1768SOL     OW 7200  11.055   4.501   2.364
 1768SOL    HW1 7201  11.129   4.442   2.370
 1768SOL    HW2 7202  10.992   4.468   2.428
 1769SOL     OW 7203  12.916  10.379   7.594
 1769SOL    HW1 7204  12.867  10.461   7.598
 1769SOL    HW2 7205  12.973  10.389   7.518
 1770SOL     OW 7206   0.474   5.513   0.014
 1770SOL    HW1 7207   0.411   5.473   0.074
 1770SOL    HW2 7208   0.513   5.585   0.065
 1771SOL     OW 7209   7.184   7.705  14.751
 1771SOL    HW1 7210   7.233   7.627  14.777
 1771SOL    HW2 7211   7.144   7.682  14.667
 1772SOL     OW 7212  10.156  13.573  14.347
 1772SOL    HW1 7213  10.100  13.643  14.379
 1772SOL    HW2 7214  10.114  13.492  14.377
 1773SOL     OW 7215   4.451   3.213  13.769
 1773SOL    HW1 7216   4.481   3.122  13.768
 1773SOL    HW2 7217   4.360   3.209  13.738
 1774SOL     OW 7218  11.934   2.633   8.182
 1774SOL    HW1 7219  11.906   2.674   8.265
 1774SOL    HW2 7220  11.921   2.702   8.117
 1775SOL     OW 7221   7.439   4.566   3.655
 1775SOL    HW1 7222   7.526   4.593   3.683
 1775SOL    HW2 7223   7.454   4.523   3.570
 1776SOL     OW 7224   7.168  13.020   3.728
 1776SOL    HW1 7225   7.134  13.109   3.718
 1776SOL    HW2 7226   7.172  13.007   3.823
 1777SOL     OW 7227   6.645   0.395  10.783
 1777SOL    HW1 7228   6.692   0.476  10.803
 1777SOL    HW2 7229   6.573   0.423  10.727
 1778SOL     OW 7230   7.102  11.679   3.052
 1778SOL    HW1 7231   7.107  11.616   3.124
 1778SOL    HW2 7232   7.069  11.759   3.093
 1779SOL     OW 7233   6.969   0.208   4.201
 1779SOL    HW1 7234   6.896   0.152   4.227
 1779SOL    HW2 7235   7.045   0.150   4.201
 1780SOL     OW 7236   1.681   1.679  14.695
 1780SOL    HW1 7237   1.610   1.715  14.642
 1780SOL    HW2 7238   1.752   1.743  14.686
 1781SOL     OW 7239   0.337   8.994   4.689
 1781SOL    HW1 7240   0.309   8.991   4.597
 1781SOL    HW2 7241   0.362   9.085   4.704
 1782SOL     OW 7242   1.185   8.067   1.288
 1782SOL    HW1 7243   1.158   8.043   1.377
 1782SOL    HW2 7244   1.160   8.159   1.280
 1783SOL     OW 7245  14.823   6.444   2.668
 1783SOL    HW1 7246  14.755   6.458   2.603
 1783SOL    HW2 7247   0.000   6.375   2.631
 1784SOL     OW 7248   0.597  11.583  13.766
 1784SOL    HW1 7249   0.553  11.585  13.681
 1784SOL    HW2 7250   0.662  11.513  13.758
 1785SOL     OW 7251   8.806   5.085   6.376
 1785SOL    HW1 7252   8.824   5.016   6.440
 1785SOL    HW2 7253   8.805   5.039   6.292
 1786SOL     OW 7254   1.536   3.640   0.064
 1786SOL    HW1 7255   1.479   3.606  14.873
 1786SOL    HW2 7256   1.586   3.564   0.093
 1787SOL     OW 7257  14.409   7.468   4.478
 1787SOL    HW1 7258  14.369   7.506   4.399
 1787SOL    HW2 7259  14.454   7.542   4.519
 1788SOL     OW 7260  11.649   8.954   0.134
 1788SOL    HW1 7261  11.722   8.976   0.076
 1788SOL    HW2 7262  11.688   8.897   0.201
 1789SOL     OW 7263  14.444   8.483   6.104
 1789SOL    HW1 7264  14.530   8.443   6.113
 1789SOL    HW2 7265  14.390   8.415   6.064
 1790SOL     OW 7266   8.004   6.692   6.721
 1790SOL    HW1 7267   8.011   6.748   6.798
 1790SOL    HW2 7268   8.093   6.662   6.706
 1791SOL     OW 7269   6.322  13.102   3.246
 1791SOL    HW1 7270   6.273  13.163   3.300
 1791SOL    HW2 7271   6.260  13.075   3.178
 1792SOL     OW 7272  13.095   8.025   8.052
 1792SOL    HW1 7273  13.030   8.079   8.097
 1792SOL    HW2 7274  13.091   8.053   7.961
 1793SOL     OW 7275   4.236   2.039  13.170
 1793SOL    HW1 7276   4.162   2.022  13.111
 1793SOL    HW2 7277   4.253   2.132  13.161
 1794SOL     OW 7278  10.217   3.461   5.018
 1794SOL    HW1 7279  10.204   3.556   5.013
 1794SOL    HW2 7280  10.246   3.435   4.931
 1795SOL     OW 7281   0.323   0.710  12.722
 1795SOL    HW1 7282   0.419   0.705  12.724
 1795SOL    HW2 7283   0.302   0.784  12.778
 1796SOL     OW 7284   4.745   6.626   1.369
 1796SOL    HW1 7285   4.714   6.690   1.433
 1796SOL    HW2 7286   4.812   6.576   1.414
 1797SOL     OW 7287   0.255   8.678   5.606
 1797SOL    HW1 7288   0.244   8.689   5.511
 1797SOL    HW2 7289   0.194   8.740   5.645
 1798SOL     OW 7290   5.737  14.621  10.684
 1798SOL    HW1 7291   5.796  14.546  10.697
 1798SOL    HW2 7292   5.649  14.583  10.687
 1799SOL     OW 7293   2.334   2.855   0.664
 1799SOL    HW1 7294   2.259   2.868   0.721
 1799SOL    HW2 7295   2.319   2.770   0.623
 1800SOL     OW 7296   1.248   9.009   6.163
 1800SOL    HW1 7297   1.324   9.044   6.118
 1800SOL    HW2 7298   1.202   9.086   6.196
 1801SOL     OW 7299   0.817   9.860   3.035
 1801SOL    HW1 7300   0.867   9.814   3.102
 1801SOL    HW2 7301   0.838   9.953   3.049
 1802SOL     OW 7302   9.441   8.871   8.672
 1802SOL    HW1 7303   9.438   8.778   8.691
 1802SOL    HW2 7304   9.373   8.884   8.606
 1803SOL     OW 7305   2.402  12.756   3.579
 1803SOL    HW1 7306   2.392  12.849   3.596
 1803SOL    HW2 7307   2.439  12.720   3.660
 1804SOL     OW 7308   8.929  11.497   1.882
 1804SOL    HW1 7309   8.915  11.581   1.926
 1804SOL    HW2 7310   8.893  11.432   1.942
 1805SOL     OW 7311   2.189   3.288  12.110
 1805SOL    HW1 7312   2.195   3.346  12.186
 1805SOL    HW2 7313   2.169   3.347  12.037
 1806SOL     OW 7314   9.214   4.593   2.683
 1806SOL    HW1 7315   9.150   4.566   2.617
 1806SOL    HW2 7316   9.165   4.648   2.743
 1807SOL     OW 7317  10.849   3.927   3.299
 1807SOL    HW1 7318  10.765   3.956   3.265
 1807SOL    HW2 7319  10.850   3.957   3.390
 1808SOL     OW 7320  11.758   4.513   0.554
 1808SOL    HW1 7321  11.815   4.589   0.566
 1808SOL    HW2 7322  11.819   4.441   0.537
 1809SOL     OW 7323  14.840  13.555  12.303
 1809SOL    HW1 7324  14.810  13.577  12.214
 1809SOL    HW2 7325   0.045  13.602  12.312
 1810SOL     OW 7326  12.591  12.642   5.364
 1810SOL    HW1 7327  12.515  12.700   5.361
 1810SOL    HW2 7328  12.554  12.553   5.361
 1811SOL     OW 7329   7.397  10.716   1.764
 1811SOL    HW1 7330   7.421  10.803   1.797
 1811SOL    HW2 7331   7.409  10.658   1.839
 1812SOL     OW 7332   2.708   4.648   5.793
 1812SOL    HW1 7333   2.706   4.741   5.771
 1812SOL    HW2 7334   2.717   4.604   5.709
 1813SOL     OW 7335  11.406   0.508  14.115
 1813SOL    HW1 7336  11.432   0.424  14.154
 1813SOL    HW2 7337  11.331   0.536  14.168
 1814SOL     OW 7338   8.304  10.095   6.232
 1814SOL    HW1 7339   8.325  10.107   6.325
 1814SOL    HW2 7340   8.274  10.004   6.226
 1815SOL     OW 7341   5.604   5.489   4.091
 1815SOL    HW1 7342   5.686   5.477   4.140
 1815SOL    HW2 7343   5.622   5.560   4.029
 1816SOL     OW 7344   9.673  10.420  14.589
 1816SOL    HW1 7345   9.638  10.332  14.601
 1816SOL    HW2 7346   9.601  10.479  14.611
 1817SOL     OW 7347  12.224   8.226   2.600
 1817SOL    HW1 7348  12.290   8.249   2.666
 1817SOL    HW2 7349  12.213   8.132   2.609
 1818SOL     OW 7350   8.928   6.677   4.322
 1818SOL    HW1 7351   8.866   6.627   4.376
 1818SOL    HW2 7352   9.014   6.650   4.353
 1819SOL     OW 7353  13.266   8.695   5.703
 1819SOL    HW1 7354  13.306   8.619   5.745
 1819SOL    HW2 7355  13.218   8.659   5.629
 1820SOL     OW 7356   0.855   0.090   1.971
 1820SOL    HW1 7357   0.939   0.127   1.945
 1820SOL    HW2 7358   0.805   0.084   1.890
 1821SOL     OW 7359   5.356   4.214  10.266
 1821SOL    HW1 7360   5.300   4.190  10.340
 1821SOL    HW2 7361   5.428   4.150  10.269
 1822SOL     OW 7362   6.951  10.659  10.844
 1822SOL    HW1 7363   6.925  10.678  10.934
 1822SOL    HW2 7364   7.047  10.667  10.845
 1823SOL     OW 7365   2.036   5.567   2.971
 1823SOL    HW1 7366   2.024   5.650   2.924
 1823SOL    HW2 7367   1.959   5.560   3.028
 1824SOL     OW 7368   2.775  14.412   0.865
 1824SOL    HW1 7369   2.860  14.432   0.904
 1824SOL    HW2 7370   2.763  14.318   0.880
 1825SOL     OW 7371   5.211  10.675  10.400
 1825SOL    HW1 7372   5.187  10.717  10.483
 1825SOL    HW2 7373   5.129  10.668  10.352
 1826SOL     OW 7374   7.926   7.076   3.503
 1826SOL    HW1 7375   7.841   7.085   3.545
 1826SOL    HW2 7376   7.906   7.050   3.413
 1827SOL     OW 7377   8.711   7.075   3.032
 1827SOL    HW1 7378   8.681   7.041   3.117
 1827SOL    HW2 7379   8.631   7.105   2.989
 1828SOL     OW 7380  11.876   9.809   4.855
 1828SOL    HW1 7381  11.925   9.888   4.879
 1828SOL    HW2 7382  11.860   9.819   4.761
 1829SOL     OW 7383   0.553  11.924   0.269
 1829SOL    HW1 7384   0.629  11.880   0.231
 1829SOL    HW2 7385   0.574  12.018   0.261
 1830SOL     OW 7386   4.231   4.584  10.049
 1830SOL    HW1 7387   4.322   4.607  10.033
 1830SOL    HW2 7388   4.183   4.626   9.977
 1831SOL     OW 7389  11.261   4.625   5.828
 1831SOL    HW1 7390  11.213   4.686   5.772
 1831SOL    HW2 7391  11.348   4.663   5.836
 1832SOL     OW 7392  12.213  12.412  12.702
 1832SOL    HW1 7393  12.128  12.371  12.687
 1832SOL    HW2 7394  12.193  12.505  12.709
 1833SOL     OW 7395   2.792   9.029  13.899
 1833SOL    HW1 7396   2.792   8.936  13.876
 1833SOL    HW2 7397   2.760   9.031  13.989
 1834SOL     OW 7398   3.839   6.233  11.007
 1834SOL    HW1 7399   3.804   6.164  11.064
 1834SOL    HW2 7400   3.846   6.192  10.921
 1835SOL     OW 7401   1.120   1.530   9.744
 1835SOL    HW1 7402   1.103   1.588   9.818
 1835SOL    HW2 7403   1.079   1.447   9.768
 1836SOL     OW 7404  14.229  10.698   3.719
 1836SOL    HW1 7405  14.242  10.662   3.631
 1836SOL    HW2 7406  14.190  10.785   3.703
 1837SOL     OW 7407   4.525   8.786   9.372
 1837SOL    HW1 7408   4.610   8.800   9.414
 1837SOL    HW2 7409   4.460   8.803   9.440
 1838SOL     OW 7410   8.729   4.744   7.259
 1838SOL    HW1 7411   8.658   4.802   7.284
 1838SOL    HW2 7412   8.803   4.773   7.313
 1839SOL     OW 7413   9.692  12.541   0.352
 1839SOL    HW1 7414   9.709  12.635   0.361
 1839SOL    HW2 7415   9.599  12.532   0.370
 1840SOL     OW 7416   3.755   0.331   4.974
 1840SOL    HW1 7417   3.708   0.316   4.892
 1840SOL    HW2 7418   3.847   0.312   4.953
 1841SOL     OW 7419  11.723   7.984   2.375
 1841SOL    HW1 7420  11.647   8.006   2.429
 1841SOL    HW2 7421  11.715   7.890   2.359
 1842SOL     OW 7422   1.594   5.835   9.741
 1842SOL    HW1 7423   1.592   5.787   9.824
 1842SOL    HW2 7424   1.672   5.891   9.748
 1843SOL     OW 7425  12.047   6.502   4.452
 1843SOL    HW1 7426  12.006   6.416   4.462
 1843SOL    HW2 7427  12.124   6.486   4.398
 1844SOL     OW 7428   5.423   1.921  11.724
 1844SOL    HW1 7429   5.335   1.901  11.756
 1844SOL    HW2 7430   5.476   1.846  11.749
 1845SOL     OW 7431  10.341  10.273   0.498
 1845SOL    HW1 7432  10.303  10.236   0.418
 1845SOL    HW2 7433  10.396  10.203   0.533
 1846SOL     OW 7434  13.804   3.879  10.222
 1846SOL    HW1 7435  13.834   3.792  10.197
 1846SOL    HW2 7436  13.878   3.936  10.202
 1847SOL     OW 7437   6.075   6.354   2.696
 1847SOL    HW1 7438   6.160   6.362   2.652
 1847SOL    HW2 7439   6.096   6.313   2.780
 1848SOL     OW 7440   3.034   8.070   9.911
 1848SOL    HW1 7441   3.111   8.124   9.930
 1848SOL    HW2 7442   2.960   8.130   9.921
 1849SOL     OW 7443  12.331   7.434  11.982
 1849SOL    HW1 7444  12.353   7.372  11.913
 1849SOL    HW2 7445  12.414   7.479  12.001
 1850SOL     OW 7446   7.713   2.708   4.361
 1850SOL    HW1 7447   7.638   2.756   4.327
 1850SOL    HW2 7448   7.728   2.639   4.296
 1851SOL     OW 7449   1.907   1.122   4.143
 1851SOL    HW1 7450   1.991   1.083   4.121
 1851SOL    HW2 7451   1.851   1.104   4.068
 1852SOL     OW 7452  11.544  12.588  11.752
 1852SOL    HW1 7453  11.546  12.623  11.663
 1852SOL    HW2 7454  11.458  12.546  11.759
 1853SOL     OW 7455   0.555   6.048   4.696
 1853SOL    HW1 7456   0.622   5.991   4.657
 1853SOL    HW2 7457   0.602   6.129   4.715
 1854SOL     OW 7458  14.118   5.236   0.718
 1854SOL    HW1 7459  14.072   5.295   0.658
 1854SOL    HW2 7460  14.142   5.292   0.792
 1855SOL     OW 7461  14.782   3.043  13.988
 1855SOL    HW1 7462  14.744   3.065  14.073
 1855SOL    HW2 7463  14.873   3.021  14.007
 1856SOL     OW 7464   4.735  10.914   5.789
 1856SOL    HW1 7465   4.816  10.889   5.743
 1856SOL    HW2 7466   4.694  10.830   5.812
 1857SOL     OW 7467   5.811   1.191   7.626
 1857SOL    HW1 7468   5.884   1.194   7.689
 1857SOL    HW2 7469   5.843   1.239   7.550
 1858SOL     OW 7470   4.322   2.489  14.141
 1858SOL    HW1 7471   4.396   2.450  14.096
 1858SOL    HW2 7472   4.266   2.415  14.165
 1859SOL     OW 7473   9.845   3.734   9.316
 1859SOL    HW1 7474   9.837   3.741   9.221
 1859SOL    HW2 7475   9.897   3.655   9.330
 1860SOL     OW 7476   1.550   1.234   5.309
 1860SOL    HW1 7477   1.597   1.157   5.280
 1860SOL    HW2 7478   1.613   1.306   5.299
 1861SOL     OW 7479   5.566  13.732   0.344
 1861SOL    HW1 7480   5.633  13.712   0.279
 1861SOL    HW2 7481   5.507  13.793   0.300
 1862SOL     OW 7482   9.701   1.944   3.490
 1862SOL    HW1 7483   9.768   1.894   3.538
 1862SOL    HW2 7484   9.622   1.890   3.497
 1863SOL     OW 7485   0.466   8.502   4.702
 1863SOL    HW1 7486   0.438   8.590   4.725
 1863SOL    HW2 7487   0.537   8.483   4.763
 1864SOL     OW 7488   0.478   5.959  10.830
 1864SOL    HW1 7489   0.472   5.863  10.821
 1864SOL    HW2 7490   0.570   5.978  10.812
 1865SOL     OW 7491   4.641  11.991   9.791
 1865SOL    HW1 7492   4.554  12.002   9.831
 1865SOL    HW2 7493   4.702  12.004   9.863
 1866SOL     OW 7494   7.851  13.965  13.720
 1866SOL    HW1 7495   7.914  14.011  13.776
 1866SOL    HW2 7496   7.804  14.035  13.674
 1867SOL     OW 7497  12.795  11.210   5.822
 1867SOL    HW1 7498  12.708  11.188   5.856
 1867SOL    HW2 7499  12.809  11.148   5.751
 1868SOL     OW 7500   5.355   3.775  12.251
 1868SOL    HW1 7501   5.312   3.705  12.299
 1868SOL    HW2 7502   5.433   3.734  12.214
 1869SOL     OW 7503   8.518   3.581  10.739
 1869SOL    HW1 7504   8.583   3.626  10.686
 1869SOL    HW2 7505   8.435   3.599  10.696
 1870SOL     OW 7506   0.735   3.876   5.195
 1870SOL    HW1 7507   0.640   3.874   5.193
 1870SOL    HW2 7508   0.761   3.786   5.219
 1871SOL     OW 7509   2.924   8.287   4.877
 1871SOL    HW1 7510   2.953   8.343   4.804
 1871SOL    HW2 7511   3.005   8.254   4.915
 1872SOL     OW 7512  13.226  13.624   2.869
 1872SOL    HW1 7513  13.228  13.669   2.785
 1872SOL    HW2 7514  13.136  13.633   2.899
 1873SOL     OW 7515   3.260   2.265  13.192
 1873SOL    HW1 7516   3.320   2.214  13.247
 1873SOL    HW2 7517   3.267   2.354  13.226
 1874SOL     OW 7518   5.567   8.014   9.486
 1874SOL    HW1 7519   5.641   8.043   9.540
 1874SOL    HW2 7520   5.602   7.943   9.433
 1875SOL     OW 7521   3.368   9.033   4.655
 1875SOL    HW1 7522   3.426   9.109   4.649
 1875SOL    HW2 7523   3.390   8.993   4.739
 1876SOL     OW 7524  10.242   2.856   6.098
 1876SOL    HW1 7525  10.297   2.878   6.023
 1876SOL    HW2 7526  10.152   2.862   6.065
 1877SOL     OW 7527   6.968   7.046   2.152
 1877SOL    HW1 7528   6.873   7.054   2.148
 1877SOL    HW2 7529   6.991   7.077   2.240
 1878SOL     OW 7530  12.576   5.255  13.684
 1878SOL    HW1 7531  12.662   5.257  13.640
 1878SOL    HW2 7532  12.515   5.229  13.615
 1879SOL     OW 7533  13.588   9.610   8.230
 1879SOL    HW1 7534  13.546   9.527   8.206
 1879SOL    HW2 7535  13.515   9.670   8.245
 1880SOL     OW 7536  14.513   3.177   0.722
 1880SOL    HW1 7537  14.563   3.256   0.702
 1880SOL    HW2 7538  14.480   3.192   0.811
 1881SOL     OW 7539  14.362   6.820  12.731
 1881SOL    HW1 7540  14.434   6.766  12.699
 1881SOL    HW2 7541  14.287   6.793  12.678
 1882SOL     OW 7542  12.127   4.076   3.431
 1882SOL    HW1 7543  12.088   4.009   3.486
 1882SOL    HW2 7544  12.213   4.041   3.408
 1883SOL     OW 7545   1.128   7.242   7.946
 1883SOL    HW1 7546   1.202   7.265   7.890
 1883SOL    HW2 7547   1.148   7.282   8.030
 1884SOL     OW 7548   5.402  11.129   5.177
 1884SOL    HW1 7549   5.464  11.066   5.214
 1884SOL    HW2 7550   5.414  11.208   5.228
 1885SOL     OW 7551   4.308  12.876   8.271
 1885SOL    HW1 7552   4.334  12.811   8.206
 1885SOL    HW2 7553   4.213  12.868   8.276
 1886SOL     OW 7554  12.651   3.354  13.866
 1886SOL    HW1 7555  12.599   3.377  13.790
 1886SOL    HW2 7556  12.611   3.402  13.939
 1887SOL     OW 7557   3.199  13.113   5.029
 1887SOL    HW1 7558   3.130  13.158   4.982
 1887SOL    HW2 7559   3.206  13.028   4.986
 1888SOL     OW 7560   6.189   4.743  10.882
 1888SOL    HW1 7561   6.238   4.740  10.800
 1888SOL    HW2 7562   6.132   4.666  10.879
 1889SOL     OW 7563   6.164  14.513   2.210
 1889SOL    HW1 7564   6.253  14.538   2.188
 1889SOL    HW2 7565   6.174  14.447   2.280
 1890SOL     OW 7566  14.166   0.519   7.270
 1890SOL    HW1 7567  14.099   0.587   7.262
 1890SOL    HW2 7568  14.234   0.557   7.325
 1891SOL     OW 7569   2.178   2.115  13.485
 1891SOL    HW1 7570   2.230   2.133  13.563
 1891SOL    HW2 7571   2.229   2.050  13.436
 1892SOL     OW 7572  10.262   0.744   4.450
 1892SOL    HW1 7573  10.310   0.821   4.420
 1892SOL    HW2 7574  10.311   0.714   4.527
 1893SOL     OW 7575  10.499   7.895   6.721
 1893SOL    HW1 7576  10.438   7.826   6.697
 1893SOL    HW2 7577  10.454   7.944   6.790
 1894SOL     OW 7578  13.195   1.441  12.742
 1894SOL    HW1 7579  13.243   1.374  12.693
 1894SOL    HW2 7580  13.124   1.394  12.785
 1895SOL     OW 7581   7.213  10.439   2.970
 1895SOL    HW1 7582   7.274  10.492   3.021
 1895SOL    HW2 7583   7.134  10.493   2.964
 1896SOL     OW 7584  12.048  12.668   7.896
 1896SOL    HW1 7585  12.065  12.762   7.888
 1896SOL    HW2 7586  11.957  12.664   7.928
 1897SOL     OW 7587  11.337   0.443   1.059
 1897SOL    HW1 7588  11.406   0.412   1.000
 1897SOL    HW2 7589  11.340   0.384   1.134
 1898SOL     OW 7590  10.376   7.680  14.365
 1898SOL    HW1 7591  10.332   7.709  14.286
 1898SOL    HW2 7592  10.451   7.629  14.334
 1899SOL     OW 7593   3.600   2.525   1.838
 1899SOL    HW1 7594   3.615   2.578   1.759
 1899SOL    HW2 7595   3.511   2.549   1.866
 1900SOL     OW 7596   8.675  11.626   7.030
 1900SOL    HW1 7597   8.586  11.635   6.994
 1900SOL    HW2 7598   8.730  11.608   6.953
 1901SOL     OW 7599   2.617  12.049  13.552
 1901SOL    HW1 7600   2.559  11.985  13.593
 1901SOL    HW2 7601   2.582  12.061  13.464
 1902SOL     OW 7602   3.179   2.241  13.507
 1902SOL    HW1 7603   3.144   2.158  13.474
 1902SOL    HW2 7604   3.208   2.221  13.596
 1903SOL     OW 7605   3.208  14.207   7.014
 1903SOL    HW1 7606   3.206  14.111   7.013
 1903SOL    HW2 7607   3.272  14.230   6.946
 1904SOL     OW 7608  14.563   1.947  12.629
 1904SOL    HW1 7609  14.581   1.871  12.573
 1904SOL    HW2 7610  14.577   2.022  12.572
 1905SOL     OW 7611   5.082   9.691   5.972
 1905SOL    HW1 7612   5.027   9.616   5.948
 1905SOL    HW2 7613   5.139   9.705   5.897
 1906SOL     OW 7614  10.009   4.435   5.613
 1906SOL    HW1 7615  10.059   4.430   5.531
 1906SOL    HW2 7616   9.977   4.525   5.617
 1907SOL     OW 7617   5.246   7.219  13.044
 1907SOL    HW1 7618   5.178   7.193  13.106
 1907SOL    HW2 7619   5.315   7.257  13.098
 1908SOL     OW 7620  12.189   8.782   2.891
 1908SOL    HW1 7621  12.284   8.779   2.903
 1908SOL    HW2 7622  12.167   8.875   2.904
 1909SOL     OW 7623   8.057   7.759   4.938
 1909SOL    HW1 7624   7.982   7.772   4.879
 1909SOL    HW2 7625   8.057   7.665   4.955
 1910SOL     OW 7626  12.197   0.768   3.547
 1910SOL    HW1 7627  12.128   0.803   3.603
 1910SOL    HW2 7628  12.168   0.679   3.525
 1911SOL     OW 7629  10.176   3.378   7.147
 1911SOL    HW1 7630  10.141   3.462   7.178
 1911SOL    HW2 7631  10.144   3.313   7.209
 1912SOL     OW 7632   8.532  12.887   5.322
 1912SOL    HW1 7633   8.534  12.926   5.234
 1912SOL    HW2 7634   8.458  12.827   5.320
 1913SOL     OW 7635   0.892  11.416  11.199
 1913SOL    HW1 7636   0.981  11.382  11.203
 1913SOL    HW2 7637   0.864  11.423  11.290
 1914SOL     OW 7638  14.557   7.669   4.584
 1914SOL    HW1 7639  14.650   7.655   4.563
 1914SOL    HW2 7640  14.556   7.681   4.679
 1915SOL     OW 7641  11.005   4.262   2.059
 1915SOL    HW1 7642  11.069   4.249   1.989
 1915SOL    HW2 7643  10.975   4.352   2.047
 1916SOL     OW 7644  14.274  11.475   4.029
 1916SOL    HW1 7645  14.335  11.418   3.982
 1916SOL    HW2 7646  14.192  11.468   3.980
 1917SOL     OW 7647  10.067   0.829   2.018
 1917SOL    HW1 7648   9.995   0.794   2.072
 1917SOL    HW2 7649  10.025   0.894   1.962
 1918SOL     OW 7650  11.595   7.237   2.181
 1918SOL    HW1 7651  11.640   7.287   2.249
 1918SOL    HW2 7652  11.515   7.204   2.223
 1919SOL     OW 7653  10.251  13.990  14.752
 1919SOL    HW1 7654  10.215  14.078  14.767
 1919SOL    HW2 7655  10.266  13.956  14.840
 1920SOL     OW 7656   6.529   9.044   8.773
 1920SOL    HW1 7657   6.539   8.962   8.821
 1920SOL    HW2 7658   6.559   9.111   8.835
 1921SOL     OW 7659   8.990   2.778   9.274
 1921SOL    HW1 7660   9.041   2.857   9.255
 1921SOL    HW2 7661   8.982   2.776   9.369
 1922SOL     OW 7662   3.817   2.546  12.846
 1922SOL    HW1 7663   3.889   2.483  12.840
 1922SOL    HW2 7664   3.743   2.501  12.804
 1923SOL     OW 7665   8.467   2.478  10.355
 1923SOL    HW1 7666   8.554   2.465  10.319
 1923SOL    HW2 7667   8.437   2.560  10.317
 1924SOL     OW 7668  14.734   2.970  11.197
 1924SOL    HW1 7669  14.727   3.041  11.261
 1924SOL    HW2 7670  14.707   2.892  11.244
 1925SOL     OW 7671   9.060   8.293  10.814
 1925SOL    HW1 7672   9.115   8.215  10.806
 1925SOL    HW2 7673   9.101   8.357  10.756
 1926SOL     OW 7674   0.621  11.992  14.239
 1926SOL    HW1 7675   0.637  12.055  14.168
 1926SOL    HW2 7676   0.708  11.961  14.263
 1927SOL     OW 7677   2.973   9.655   7.911
 1927SOL    HW1 7678   3.060   9.663   7.949
 1927SOL    HW2 7679   2.940   9.744   7.908
 1928SOL     OW 7680   1.638   7.216   1.218
 1928SOL    HW1 7681   1.625   7.125   1.191
 1928SOL    HW2 7682   1.609   7.268   1.144
 1929SOL     OW 7683  13.477   1.923   6.818
 1929SOL    HW1 7684  13.445   1.834   6.803
 1929SOL    HW2 7685  13.426   1.955   6.894
 1930SOL     OW 7686   0.029   1.676   0.647
 1930SOL    HW1 7687  14.835   1.692   0.709
 1930SOL    HW2 7688   0.108   1.679   0.700
 1931SOL     OW 7689  12.291   2.901  14.675
 1931SOL    HW1 7690  12.263   2.856  14.755
 1931SOL    HW2 7691  12.260   2.844  14.604
 1932SOL     OW 7692  12.329  11.269   4.497
 1932SOL    HW1 7693  12.291  11.349   4.462
 1932SOL    HW2 7694  12.359  11.292   4.585
 1933SOL     OW 7695   8.868  12.450   7.098
 1933SOL    HW1 7696   8.911  12.370   7.128
 1933SOL    HW2 7697   8.926  12.521   7.125
 1934SOL     OW 7698   3.494   6.950   7.711
 1934SOL    HW1 7699   3.533   6.881   7.765
 1934SOL    HW2 7700   3.419   6.980   7.763
 1935SOL     OW 7701   6.695   2.439  13.152
 1935SOL    HW1 7702   6.699   2.528  13.188
 1935SOL    HW2 7703   6.702   2.451  13.057
 1936SOL     OW 7704   9.678   9.407  12.727
 1936SOL    HW1 7705   9.732   9.334  12.698
 1936SOL    HW2 7706   9.589   9.383  12.703
 1937SOL     OW 7707  13.807  13.698  12.189
 1937SOL    HW1 7708  13.722  13.734  12.213
 1937SOL    HW2 7709  13.855  13.773  12.153
 1938SOL     OW 7710   3.450   1.585   1.875
 1938SOL    HW1 7711   3.519   1.524   1.846
 1938SOL    HW2 7712   3.456   1.584   1.970
 1939SOL     OW 7713   2.359   7.968  12.793
 1939SOL    HW1 7714   2.365   7.891  12.850
 1939SOL    HW2 7715   2.273   7.959  12.751
 1940SOL     OW 7716  12.504   7.731   5.168
 1940SOL    HW1 7717  12.599   7.740   5.182
 1940SOL    HW2 7718  12.480   7.650   5.212
 1941SOL     OW 7719   2.603  12.948  10.578
 1941SOL    HW1 7720   2.564  12.894  10.509
 1941SOL    HW2 7721   2.656  13.012  10.531
 1942SOL     OW 7722  13.542   7.967   7.702
 1942SOL    HW1 7723  13.470   7.976   7.765
 1942SOL    HW2 7724  13.539   7.875   7.675
 1943SOL     OW 7725  14.322   2.458   6.762
 1943SOL    HW1 7726  14.281   2.536   6.723
 1943SOL    HW2 7727  14.381   2.493   6.828
 1944SOL     OW 7728   2.308   5.092   9.876
 1944SOL    HW1 7729   2.359   5.127   9.949
 1944SOL    HW2 7730   2.358   5.117   9.798
 1945SOL     OW 7731   0.347   9.247  14.585
 1945SOL    HW1 7732   0.292   9.313  14.628
 1945SOL    HW2 7733   0.295   9.219  14.509
 1946SOL     OW 7734  12.356  14.385   6.359
 1946SOL    HW1 7735  12.429  14.327   6.336
 1946SOL    HW2 7736  12.309  14.397   6.276
 1947SOL     OW 7737  11.450   2.391   5.616
 1947SOL    HW1 7738  11.479   2.411   5.527
 1947SOL    HW2 7739  11.524   2.417   5.672
 1948SOL     OW 7740   0.999   1.491   1.697
 1948SOL    HW1 7741   1.093   1.498   1.677
 1948SOL    HW2 7742   0.960   1.567   1.654
 1949SOL     OW 7743   4.377  10.110   8.032
 1949SOL    HW1 7744   4.329  10.038   7.990
 1949SOL    HW2 7745   4.308  10.167   8.067
 1950SOL     OW 7746   0.003  13.335  10.843
 1950SOL    HW1 7747  14.814  13.300  10.902
 1950SOL    HW2 7748  14.835  13.401  10.791
 1951SOL     OW 7749   2.094   1.891   9.621
 1951SOL    HW1 7750   2.025   1.840   9.664
 1951SOL    HW2 7751   2.138   1.937   9.692
 1952SOL     OW 7752   6.125   8.598   3.488
 1952SOL    HW1 7753   6.189   8.655   3.531
 1952SOL    HW2 7754   6.164   8.577   3.403
 1953SOL     OW 7755  10.972   3.081   0.979
 1953SOL    HW1 7756  10.980   3.176   0.988
 1953SOL    HW2 7757  10.993   3.047   1.066
 1954SOL     OW 7758   0.611   6.586   4.661
 1954SOL    HW1 7759   0.630   6.677   4.637
 1954SOL    HW2 7760   0.612   6.539   4.578
 1955SOL     OW 7761  10.148   2.593   8.206
 1955SOL    HW1 7762  10.227   2.641   8.180
 1955SOL    HW2 7763  10.164   2.503   8.178
 1956SOL     OW 7764   5.700   4.567  14.099
 1956SOL    HW1 7765   5.742   4.508  14.036
 1956SOL    HW2 7766   5.627   4.516  14.134
 1957SOL     OW 7767   5.297   4.022  13.330
 1957SOL    HW1 7768   5.288   4.076  13.252
 1957SOL    HW2 7769   5.325   3.936  13.296
 1958SOL     OW 7770   5.715   5.667  10.085
 1958SOL    HW1 7771   5.717   5.755  10.045
 1958SOL    HW2 7772   5.624   5.655  10.112
 1959SOL     OW 7773  13.541   2.768   5.335
 1959SOL    HW1 7774  13.600   2.837   5.306
 1959SOL    HW2 7775  13.553   2.697   5.273
 1960SOL     OW 7776   1.202  13.943   4.411
 1960SOL    HW1 7777   1.135  13.876   4.426
 1960SOL    HW2 7778   1.280  13.893   4.384
 1961SOL     OW 7779   8.892  12.848   7.907
 1961SOL    HW1 7780   8.923  12.769   7.863
 1961SOL    HW2 7781   8.921  12.920   7.852
 1962SOL     OW 7782   8.989   8.869   5.161
 1962SOL    HW1 7783   9.029   8.782   5.169
 1962SOL    HW2 7784   9.041   8.925   5.218
 1963SOL     OW 7785   5.462  12.110  10.842
 1963SOL    HW1 7786   5.557  12.105  10.848
 1963SOL    HW2 7787   5.431  12.055  10.915
 1964SOL     OW 7788   4.370  10.783   8.516
 1964SOL    HW1 7789   4.293  10.824   8.476
 1964SOL    HW2 7790   4.399  10.845   8.582
 1965SOL     OW 7791   2.031  11.602  14.143
 1965SOL    HW1 7792   2.016  11.696  14.146
 1965SOL    HW2 7793   2.013  11.571  14.231
 1966SOL     OW 7794   1.073   2.869  12.387
 1966SOL    HW1 7795   1.005   2.880  12.321
 1966SOL    HW2 7796   1.028   2.886  12.470
 1967SOL     OW 7797  11.329  14.501   5.350
 1967SOL    HW1 7798  11.342  14.539   5.437
 1967SOL    HW2 7799  11.329  14.576   5.290
 1968SOL     OW 7800  10.979  13.563  13.107
 1968SOL    HW1 7801  11.017  13.573  13.195
 1968SOL    HW2 7802  10.988  13.650  13.068
 1969SOL     OW 7803   6.543   6.927  14.631
 1969SOL    HW1 7804   6.611   6.944  14.696
 1969SOL    HW2 7805   6.512   7.014  14.605
 1970SOL     OW 7806  14.440   7.035   2.620
 1970SOL    HW1 7807  14.526   7.043   2.580
 1970SOL    HW2 7808  14.379   7.042   2.547
 1971SOL     OW 7809   1.838   1.654   4.015
 1971SOL    HW1 7810   1.823   1.726   4.077
 1971SOL    HW2 7811   1.926   1.622   4.037
 1972SOL     OW 7812  11.651   4.559   0.832
 1972SOL    HW1 7813  11.725   4.612   0.861
 1972SOL    HW2 7814  11.685   4.507   0.759
 1973SOL     OW 7815   9.491  14.197   8.532
 1973SOL    HW1 7816   9.512  14.107   8.557
 1973SOL    HW2 7817   9.397  14.205   8.546
 1974SOL     OW 7818   6.470  12.099   6.000
 1974SOL    HW1 7819   6.452  12.020   6.051
 1974SOL    HW2 7820   6.396  12.107   5.940
 1975SOL     OW 7821   2.368   3.214   2.920
 1975SOL    HW1 7822   2.377   3.296   2.969
 1975SOL    HW2 7823   2.347   3.242   2.830
 1976SOL     OW 7824   6.918   8.860   1.609
 1976SOL    HW1 7825   6.940   8.953   1.612
 1976SOL    HW2 7826   6.822   8.857   1.614
 1977SOL     OW 7827   1.912   7.924   8.535
 1977SOL    HW1 7828   1.874   7.837   8.547
 1977SOL    HW2 7829   1.838   7.984   8.537
 1978SOL     OW 7830   5.443   5.900   0.611
 1978SOL    HW1 7831   5.501   5.897   0.536
 1978SOL    HW2 7832   5.429   5.809   0.635
 1979SOL     OW 7833   4.211   3.941   6.234
 1979SOL    HW1 7834   4.240   3.921   6.323
 1979SOL    HW2 7835   4.116   3.934   6.238
 1980SOL     OW 7836  12.187   7.030   1.794
 1980SOL    HW1 7837  12.117   7.005   1.733
 1980SOL    HW2 7838  12.238   6.950   1.807
 1981SOL     OW 7839  13.241   8.548  10.136
 1981SOL    HW1 7840  13.255   8.453  10.135
 1981SOL    HW2 7841  13.150   8.559  10.163
 1982SOL     OW 7842  13.675   7.070   2.730
 1982SOL    HW1 7843  13.762   7.093   2.762
 1982SOL    HW2 7844  13.685   7.064   2.635
 1983SOL     OW 7845   9.173   3.268   3.316
 1983SOL    HW1 7846   9.204   3.267   3.406
 1983SOL    HW2 7847   9.174   3.361   3.292
 1984SOL     OW 7848   4.254   5.358   4.747
 1984SOL    HW1 7849   4.297   5.282   4.785
 1984SOL    HW2 7850   4.302   5.433   4.781
 1985SOL     OW 7851   6.021  11.028  13.181
 1985SOL    HW1 7852   6.032  10.943  13.136
 1985SOL    HW2 7853   6.050  11.092  13.116
 1986SOL     OW 7854  10.551  14.638   6.138
 1986SOL    HW1 7855  10.604  14.604   6.210
 1986SOL    HW2 7856  10.581  14.728   6.126
 1987SOL     OW 7857  10.975   8.706   1.624
 1987SOL    HW1 7858  10.924   8.665   1.693
 1987SOL    HW2 7859  11.040   8.639   1.599
 1988SOL     OW 7860   3.284  12.954   6.322
 1988SOL    HW1 7861   3.238  12.888   6.270
 1988SOL    HW2 7862   3.332  12.904   6.388
 1989SOL     OW 7863   0.619   9.523  14.479
 1989SOL    HW1 7864   0.596   9.544  14.570
 1989SOL    HW2 7865   0.702   9.476  14.486
 1990SOL     OW 7866   9.860  12.418   2.310
 1990SOL    HW1 7867   9.946  12.458   2.296
 1990SOL    HW2 7868   9.815  12.479   2.369
 1991SOL     OW 7869   9.148   0.765  13.381
 1991SOL    HW1 7870   9.154   0.759  13.476
 1991SOL    HW2 7871   9.163   0.676  13.350
 1992SOL     OW 7872  13.648   3.252  12.210
 1992SOL    HW1 7873  13.589   3.268  12.283
 1992SOL    HW2 7874  13.733   3.233  12.250
 1993SOL     OW 7875  10.741  12.568   5.706
 1993SOL    HW1 7876  10.792  12.623   5.647
 1993SOL    HW2 7877  10.802  12.545   5.776
 1994SOL     OW 7878   2.016  14.169  13.794
 1994SOL    HW1 7879   1.926  14.160  13.825
 1994SOL    HW2 7880   2.068  14.180  13.874
 1995SOL     OW 7881  11.097   1.398   6.300
 1995SOL    HW1 7882  11.012   1.440   6.292
 1995SOL    HW2 7883  11.078   1.304   6.296
 1996SOL     OW 7884   8.702   0.386  14.270
 1996SOL    HW1 7885   8.784   0.396  14.221
 1996SOL    HW2 7886   8.694   0.292  14.284
 1997SOL     OW 7887  10.173   7.288  14.710
 1997SOL    HW1 7888  10.107   7.267  14.776
 1997SOL    HW2 7889  10.137   7.363  14.663
 1998SOL     OW 7890  12.651   2.114   8.078
 1998SOL    HW1 7891  12.708   2.191   8.079
 1998SOL    HW2 7892  12.627   2.104   7.986
 1999SOL     OW 7893   4.239  14.684   2.129
 1999SOL    HW1 7894   4.146  14.688   2.151
 1999SOL    HW2 7895   4.275  14.768   2.159
 2000SOL     OW 7896   9.538  12.551   6.888
 2000SOL    HW1 7897   9.550  12.458   6.907
 2000SOL    HW2 7898   9.476  12.552   6.815
 2001SOL     OW 7899  10.038   5.124   8.351
 2001SOL    HW1 7900  10.058   5.030   8.351
 2001SOL    HW2 7901  10.118   5.165   8.386
 2002SOL     OW 7902   4.453   9.942   5.718
 2002SOL    HW1 7903   4.389   9.875   5.745
 2002SOL    HW2 7904   4.448   9.942   5.623
 2003SOL     OW 7905  11.488   0.803   9.120
 2003SOL    HW1 7906  11.465   0.716   9.085
 2003SOL    HW2 7907  11.540   0.844   9.051
 2004SOL     OW 7908  13.178   0.459  14.046
 2004SOL    HW1 7909  13.109   0.483  13.985
 2004SOL    HW2 7910  13.150   0.375  14.083
 2005SOL     OW 7911   5.778   7.370   8.123
 2005SOL    HW1 7912   5.727   7.444   8.089
 2005SOL    HW2 7913   5.861   7.408   8.150
 2006SOL     OW 7914   4.181  12.606  12.298
 2006SOL    HW1 7915   4.177  12.626  12.204
 2006SOL    HW2 7916   4.160  12.513  12.303
 2007SOL     OW 7917   7.279   6.610   0.095
 2007SOL    HW1 7918   7.330   6.659   0.031
 2007SOL    HW2 7919   7.190   6.608   0.058
 2008SOL     OW 7920   8.982   6.431  13.914
 2008SOL    HW1 7921   9.035   6.435  13.835
 2008SOL    HW2 7922   8.893   6.411  13.883
 2009SOL     OW 7923   0.515  14.053   1.380
 2009SOL    HW1 7924   0.582  13.992   1.410
 2009SOL    HW2 7925   0.545  14.139   1.409
 2010SOL     OW 7926   2.410  12.494   9.896
 2010SOL    HW1 7927   2.483  12.480   9.955
 2010SOL    HW2 7928   2.353  12.556   9.942
 2011SOL     OW 7929  11.379   0.415   6.340
 2011SOL    HW1 7930  11.335   0.400   6.256
 2011SOL    HW2 7931  11.371   0.509   6.355
 2012SOL     OW 7932  13.670  11.529  14.752
 2012SOL    HW1 7933  13.678  11.487  14.666
 2012SOL    HW2 7934  13.600  11.481  14.796
 2013SOL     OW 7935   2.279   7.775   7.830
 2013SOL    HW1 7936   2.209   7.831   7.794
 2013SOL    HW2 7937   2.341   7.766   7.757
 2014SOL     OW 7938   0.728   5.458   1.064
 2014SOL    HW1 7939   0.759   5.534   1.016
 2014SOL    HW2 7940   0.641   5.440   1.028
 2015SOL     OW 7941  12.392   4.962   7.728
 2015SOL    HW1 7942  12.387   5.011   7.810
 2015SOL    HW2 7943  12.345   5.016   7.665
 2016SOL     OW 7944   4.190   3.809   1.900
 2016SOL    HW1 7945   4.141   3.892   1.903
 2016SOL    HW2 7946   4.272   3.831   1.855
 2017SOL     OW 7947  11.335   2.054   5.310
 2017SOL    HW1 7948  11.261   2.059   5.250
 2017SOL    HW2 7949  11.360   1.961   5.309
 2018SOL     OW 7950   1.273   5.865   3.507
 2018SOL    HW1 7951   1.318   5.871   3.591
 2018SOL    HW2 7952   1.339   5.889   3.442
 2019SOL     OW 7953   6.415   6.024  14.281
 2019SOL    HW1 7954   6.402   5.933  14.255
 2019SOL    HW2 7955   6.477   6.019  14.354
 2020SOL     OW 7956   2.215   3.140  14.646
 2020SOL    HW1 7957   2.281   3.167  14.582
 2020SOL    HW2 7958   2.238   3.189  14.725
 2021SOL     OW 7959   9.997   3.997   5.891
 2021SOL    HW1 7960  10.016   3.999   5.797
 2021SOL    HW2 7961   9.957   4.082   5.909
 2022SOL     OW 7962   6.577   8.092   4.747
 2022SOL    HW1 7963   6.591   8.182   4.715
 2022SOL    HW2 7964   6.557   8.042   4.668
 2023SOL     OW 7965  11.457   5.094   0.937
 2023SOL    HW1 7966  11.437   5.163   0.999
 2023SOL    HW2 7967  11.515   5.135   0.873
 2024SOL     OW 7968   1.573  11.180  13.716
 2024SOL    HW1 7969   1.597  11.109  13.656
 2024SOL    HW2 7970   1.511  11.233  13.666
 2025SOL     OW 7971  10.995   2.121   3.561
 2025SOL    HW1 7972  11.045   2.192   3.600
 2025SOL    HW2 7973  11.040   2.041   3.590
 2026SOL     OW 7974   7.526  10.030   4.170
 2026SOL    HW1 7975   7.495   9.976   4.098
 2026SOL    HW2 7976   7.471  10.005   4.244
 2027SOL     OW 7977   4.332   4.769  13.298
 2027SOL    HW1 7978   4.237   4.773  13.306
 2027SOL    HW2 7979   4.356   4.854  13.261
 2028SOL     OW 7980   4.269  13.766  10.796
 2028SOL    HW1 7981   4.255  13.751  10.702
 2028SOL    HW2 7982   4.182  13.756  10.834
 2029SOL     OW 7983   4.836   9.089  11.448
 2029SOL    HW1 7984   4.895   9.070  11.521
 2029SOL    HW2 7985   4.884   9.060  11.370
 2030SOL     OW 7986  11.385   5.540   0.666
 2030SOL    HW1 7987  11.420   5.461   0.625
 2030SOL    HW2 7988  11.456   5.571   0.721
 2031SOL     OW 7989   9.417   1.871   6.880
 2031SOL    HW1 7990   9.373   1.797   6.837
 2031SOL    HW2 7991   9.456   1.833   6.959
 2032SOL     OW 7992   5.997   1.272   1.926
 2032SOL    HW1 7993   6.086   1.263   1.960
 2032SOL    HW2 7994   5.953   1.191   1.953
 2033SOL     OW 7995  12.834   8.001   3.906
 2033SOL    HW1 7996  12.792   7.921   3.935
 2033SOL    HW2 7997  12.894   7.973   3.837
 2034SOL     OW 7998  14.285  13.775   9.902
 2034SOL    HW1 7999  14.356  13.807   9.846
 2034SOL    HW2 8000  14.306  13.808   9.989
 2035SOL     OW 8001   5.174   2.028  13.372
 2035SOL    HW1 8002   5.121   1.951  13.351
 2035SOL    HW2 8003   5.112   2.100  13.374
 2036SOL     OW 8004   6.366   4.646   2.975
 2036SOL    HW1 8005   6.400   4.632   3.064
 2036SOL    HW2 8006   6.409   4.726   2.945
 2037SOL     OW 8007   6.087   6.328   5.456
 2037SOL    HW1 8008   6.137   6.248   5.437
 2037SOL    HW2 8009   6.068   6.323   5.550
 2038SOL     OW 8010   9.544   9.394   5.128
 2038SOL    HW1 8011   9.463   9.424   5.085
 2038SOL    HW2 8012   9.612   9.407   5.062
 2039SOL     OW 8013  10.789   0.424  11.045
 2039SOL    HW1 8014  10.745   0.339  11.047
 2039SOL    HW2 8015  10.882   0.402  11.047
 2040SOL     OW 8016   2.933   2.865   6.356
 2040SOL    HW1 8017   2.895   2.778   6.368
 2040SOL    HW2 8018   3.026   2.849   6.338
 2041SOL     OW 8019  11.604   5.290   6.273
 2041SOL    HW1 8020  11.621   5.320   6.183
 2041SOL    HW2 8021  11.524   5.238   6.266
 2042SOL     OW 8022   2.820   3.041   5.571
 2042SOL    HW1 8023   2.868   2.961   5.589
 2042SOL    HW2 8024   2.770   3.059   5.650
 2043SOL     OW 8025   8.802  13.145  10.390
 2043SOL    HW1 8026   8.761  13.182  10.468
 2043SOL    HW2 8027   8.837  13.221  10.343
 2044SOL     OW 8028   8.052  10.416   0.797
 2044SOL    HW1 8029   8.131  10.412   0.851
 2044SOL    HW2 8030   8.068  10.488   0.736
 2045SOL     OW 8031   3.808   1.113  13.143
 2045SOL    HW1 8032   3.882   1.095  13.085
 2045SOL    HW2 8033   3.827   1.063  13.223
 2046SOL     OW 8034   1.124   0.609  12.160
 2046SOL    HW1 8035   1.122   0.675  12.229
 2046SOL    HW2 8036   1.216   0.584  12.153
 2047SOL     OW 8037   2.727   8.908   2.768
 2047SOL    HW1 8038   2.782   8.831   2.748
 2047SOL    HW2 8039   2.779   8.982   2.737
 2048SOL     OW 8040   0.030   9.652  12.242
 2048SOL    HW1 8041  14.871   9.599  12.171
 2048SOL    HW2 8042   0.048   9.590  12.312
 2049SOL     OW 8043   8.140   6.324   7.729
 2049SOL    HW1 8044   8.083   6.387   7.685
 2049SOL    HW2 8045   8.221   6.373   7.745
 2050SOL     OW 8046   7.602   7.985   8.297
 2050SOL    HW1 8047   7.695   7.964   8.294
 2050SOL    HW2 8048   7.565   7.918   8.356
 2051SOL     OW 8049  12.713   8.459   4.024
 2051SOL    HW1 8050  12.703   8.524   3.955
 2051SOL    HW2 8051  12.805   8.435   4.022
 2052SOL     OW 8052  13.385   1.378  12.143
 2052SOL    HW1 8053  13.348   1.405  12.059
 2052SOL    HW2 8054  13.309   1.355  12.197
 2053SOL     OW 8055   7.584   9.169   2.829
 2053SOL    HW1 8056   7.659   9.226   2.811
 2053SOL    HW2 8057   7.534   9.215   2.896
 2054SOL     OW 8058   6.074   3.262   0.581
 2054SOL    HW1 8059   5.999   3.244   0.639
 2054SOL    HW2 8060   6.034   3.296   0.501
 2055SOL     OW 8061   0.732   3.569   9.829
 2055SOL    HW1 8062   0.820   3.533   9.834
 2055SOL    HW2 8063   0.708   3.584   9.921
 2056SOL     OW 8064   5.440  14.582  10.624
 2056SOL    HW1 8065   5.405  14.662  10.663
 2056SOL    HW2 8066   5.370  14.551  10.567
 2057SOL     OW 8067   8.995  10.135  13.905
 2057SOL    HW1 8068   8.975  10.214  13.856
 2057SOL    HW2 8069   8.919  10.121  13.961
 2058SOL     OW 8070   0.170  14.627   6.922
 2058SOL    HW1 8071   0.149  14.564   6.992
 2058SOL    HW2 8072   0.225  14.692   6.965
 2059SOL     OW 8073   7.290   5.181   2.623
 2059SOL    HW1 8074   7.204   5.146   2.601
 2059SOL    HW2 8075   7.276   5.275   2.633
 2060SOL     OW 8076   3.452   5.947   3.234
 2060SOL    HW1 8077   3.438   5.852   3.228
 2060SOL    HW2 8078   3.463   5.963   3.327
 2061SOL     OW 8079  13.514   7.189   2.126
 2061SOL    HW1 8080  13.476   7.217   2.209
 2061SOL    HW2 8081  13.490   7.097   2.118
 2062SOL     OW 8082  11.037  11.539   4.101
 2062SOL    HW1 8083  11.125  11.578   4.094
 2062SOL    HW2 8084  10.978  11.610   4.074
 2063SOL     OW 8085  10.578   3.334   8.217
 2063SOL    HW1 8086  10.640   3.407   8.228
 2063SOL    HW2 8087  10.497   3.375   8.187
 2064SOL     OW 8088  12.722   4.362   6.637
 2064SOL    HW1 8089  12.815   4.356   6.619
 2064SOL    HW2 8090  12.686   4.407   6.561
 2065SOL     OW 8091   4.680   5.772   2.402
 2065SOL    HW1 8092   4.720   5.685   2.415
 2065SOL    HW2 8093   4.597   5.767   2.449
 2066SOL     OW 8094  14.544   5.110  10.600
 2066SOL    HW1 8095  14.451   5.104  10.578
 2066SOL    HW2 8096  14.589   5.082  10.521
 2067SOL     OW 8097   5.300   7.387   3.972
 2067SOL    HW1 8098   5.345   7.309   4.004
 2067SOL    HW2 8099   5.237   7.355   3.908
 2068SOL     OW 8100  14.267   6.335  13.821
 2068SOL    HW1 8101  14.224   6.402  13.875
 2068SOL    HW2 8102  14.266   6.372  13.733
 2069SOL     OW 8103  11.927   6.714   0.490
 2069SOL    HW1 8104  12.004   6.709   0.546
 2069SOL    HW2 8105  11.871   6.779   0.533
 2070SOL     OW 8106   1.319  10.993   2.135
 2070SOL    HW1 8107   1.351  11.021   2.221
 2070SOL    HW2 8108   1.397  10.959   2.091
 2071SOL     OW 8109   2.359   5.504   9.832
 2071SOL    HW1 8110   2.277   5.510   9.881
 2071SOL    HW2 8111   2.335   5.464   9.748
 2072SOL     OW 8112  10.892   8.259   6.623
 2072SOL    HW1 8113  10.965   8.215   6.580
 2072SOL    HW2 8114  10.852   8.192   6.678
 2073SOL     OW 8115   2.492  14.260   4.634
 2073SOL    HW1 8116   2.409  14.246   4.590
 2073SOL    HW2 8117   2.540  14.321   4.578
 2074SOL     OW 8118  12.699  14.209  11.723
 2074SOL    HW1 8119  12.662  14.131  11.683
 2074SOL    HW2 8120  12.624  14.256  11.759
 2075SOL     OW 8121  11.133   9.483   1.652
 2075SOL    HW1 8122  11.087   9.399   1.652
 2075SOL    HW2 8123  11.171   9.489   1.740
 2076SOL     OW 8124  11.531   1.381   4.404
 2076SOL    HW1 8125  11.469   1.451   4.421
 2076SOL    HW2 8126  11.617   1.423   4.407
 2077SOL     OW 8127   1.938   4.023   3.111
 2077SOL    HW1 8128   1.998   3.986   3.175
 2077SOL    HW2 8129   1.994   4.073   3.052
 2078SOL     OW 8130  11.693   7.580   2.114
 2078SOL    HW1 8131  11.778   7.549   2.081
 2078SOL    HW2 8132  11.696   7.675   2.102
 2079SOL     OW 8133   4.006   1.414  10.901
 2079SOL    HW1 8134   4.053   1.480  10.850
 2079SOL    HW2 8135   4.076   1.362  10.942
 2080SOL     OW 8136  10.185   4.151  12.788
 2080SOL    HW1 8137  10.185   4.225  12.848
 2080SOL    HW2 8138  10.260   4.098  12.815
 2081SOL     OW 8139  14.394   8.152   3.802
 2081SOL    HW1 8140  14.431   8.240   3.796
 2081SOL    HW2 8141  14.302   8.166   3.822
 2082SOL     OW 8142   4.953   3.036   8.553
 2082SOL    HW1 8143   4.865   3.073   8.564
 2082SOL    HW2 8144   4.982   3.016   8.642
 2083SOL     OW 8145   6.935   1.423   9.963
 2083SOL    HW1 8146   6.908   1.499   9.911
 2083SOL    HW2 8147   7.031   1.428   9.964
 2084SOL     OW 8148   2.577   8.836   7.970
 2084SOL    HW1 8149   2.623   8.754   7.951
 2084SOL    HW2 8150   2.485   8.814   7.960
 2085SOL     OW 8151   9.065   9.800  10.583
 2085SOL    HW1 8152   9.015   9.764  10.657
 2085SOL    HW2 8153   9.144   9.835  10.623
 2086SOL     OW 8154   5.943   7.575  13.936
 2086SOL    HW1 8155   5.860   7.544  13.972
 2086SOL    HW2 8156   5.995   7.496  13.924
 2087SOL     OW 8157  11.414   2.915   9.503
 2087SOL    HW1 8158  11.419   2.824   9.474
 2087SOL    HW2 8159  11.474   2.920   9.577
 2088SOL     OW 8160   2.736   6.639   9.467
 2088SOL    HW1 8161   2.775   6.635   9.380
 2088SOL    HW2 8162   2.729   6.732   9.487
 2089SOL     OW 8163   2.597   7.879  12.588
 2089SOL    HW1 8164   2.506   7.854  12.606
 2089SOL    HW2 8165   2.610   7.960  12.638
 2090SOL     OW 8166  12.638   2.943   6.568
 2090SOL    HW1 8167  12.608   2.988   6.647
 2090SOL    HW2 8168  12.578   2.869   6.558
 2091SOL     OW 8169   4.547   8.110  14.846
 2091SOL    HW1 8170   4.565   8.197  14.811
 2091SOL    HW2 8171   4.521   8.125   0.060
 2092SOL     OW 8172  11.810   8.983  11.364
 2092SOL    HW1 8173  11.785   9.052  11.426
 2092SOL    HW2 8174  11.897   9.010  11.333
 2093SOL     OW 8175  11.911   1.354   8.409
 2093SOL    HW1 8176  11.818   1.378   8.414
 2093SOL    HW2 8177  11.952   1.424   8.359
 2094SOL     OW 8178  13.546   6.599   7.419
 2094SOL    HW1 8179  13.487   6.524   7.425
 2094SOL    HW2 8180  13.535   6.645   7.502
 2095SOL     OW 8181   7.018  11.256   2.491
 2095SOL    HW1 8182   6.979  11.170   2.481
 2095SOL    HW2 8183   6.944  11.314   2.511
 2096SOL     OW 8184  13.839   3.806   5.094
 2096SOL    HW1 8185  13.919   3.858   5.109
 2096SOL    HW2 8186  13.775   3.843   5.154
 2097SOL     OW 8187   5.908   7.733   9.552
 2097SOL    HW1 8188   5.892   7.640   9.534
 2097SOL    HW2 8189   5.944   7.734   9.640
 2098SOL     OW 8190   6.042   1.758   3.646
 2098SOL    HW1 8191   6.025   1.667   3.670
 2098SOL    HW2 8192   6.136   1.769   3.658
 2099SOL     OW 8193   6.897   2.237   5.333
 2099SOL    HW1 8194   6.836   2.284   5.276
 2099SOL    HW2 8195   6.933   2.305   5.390
 2100SOL     OW 8196   4.421   6.993   3.544
 2100SOL    HW1 8197   4.468   7.023   3.467
 2100SOL    HW2 8198   4.385   6.908   3.519
 2101SOL     OW 8199   4.102   4.551   9.451
 2101SOL    HW1 8200   4.007   4.549   9.436
 2101SOL    HW2 8201   4.118   4.482   9.514
 2102SOL     OW 8202   3.576  10.500   7.257
 2102SOL    HW1 8203   3.509  10.452   7.209
 2102SOL    HW2 8204   3.575  10.588   7.219
 2103SOL     OW 8205  11.780   8.484   9.675
 2103SOL    HW1 8206  11.731   8.509   9.754
 2103SOL    HW2 8207  11.817   8.399   9.696
 2104SOL     OW 8208   1.003   6.635   3.847
 2104SOL    HW1 8209   1.098   6.631   3.850
 2104SOL    HW2 8210   0.976   6.647   3.938
 2105SOL     OW 8211  11.812   1.147  11.695
 2105SOL    HW1 8212  11.885   1.158  11.755
 2105SOL    HW2 8213  11.806   1.053  11.681
 2106SOL     OW 8214  12.444   8.123   5.212
 2106SOL    HW1 8215  12.429   8.047   5.268
 2106SOL    HW2 8216  12.508   8.093   5.148
 2107SOL     OW 8217   7.161   1.485  13.125
 2107SOL    HW1 8218   7.102   1.426  13.077
 2107SOL    HW2 8219   7.103   1.544  13.173
 2108SOL     OW 8220  12.665  13.300  12.204
 2108SOL    HW1 8221  12.596  13.353  12.245
 2108SOL    HW2 8222  12.746  13.346  12.224
 2109SOL     OW 8223  13.841   3.445   6.869
 2109SOL    HW1 8224  13.760   3.496   6.862
 2109SOL    HW2 8225  13.835   3.402   6.954
 2110SOL     OW 8226   7.367   1.569  13.397
 2110SOL    HW1 8227   7.402   1.609  13.476
 2110SOL    HW2 8228   7.284   1.615  13.382
 2111SOL     OW 8229  12.834   7.640  11.728
 2111SOL    HW1 8230  12.842   7.638  11.632
 2111SOL    HW2 8231  12.741   7.655  11.744
 2112SOL     OW 8232   3.460  14.190   5.510
 2112SOL    HW1 8233   3.464  14.188   5.606
 2112SOL    HW2 8234   3.507  14.270   5.486
 2113SOL     OW 8235   9.296   5.913  10.829
 2113SOL    HW1 8236   9.245   5.991  10.852
 2113SOL    HW2 8237   9.359   5.943  10.764
 2114SOL     OW 8238   7.797   5.833   9.509
 2114SOL    HW1 8239   7.838   5.918   9.498
 2114SOL    HW2 8240   7.811   5.811   9.601
 2115SOL     OW 8241   9.543   1.183   2.141
 2115SOL    HW1 8242   9.451   1.158   2.142
 2115SOL    HW2 8243   9.545   1.265   2.092
 2116SOL     OW 8244  11.388   0.482  12.798
 2116SOL    HW1 8245  11.321   0.503  12.733
 2116SOL    HW2 8246  11.438   0.411  12.759
 2117SOL     OW 8247  11.267   5.134   1.942
 2117SOL    HW1 8248  11.313   5.210   1.907
 2117SOL    HW2 8249  11.293   5.130   2.034
 2118SOL     OW 8250   0.883   6.708   2.628
 2118SOL    HW1 8251   0.943   6.731   2.557
 2118SOL    HW2 8252   0.885   6.784   2.687
 2119SOL     OW 8253   1.513  12.701   3.532
 2119SOL    HW1 8254   1.429  12.741   3.553
 2119SOL    HW2 8255   1.507  12.611   3.564
 2120SOL     OW 8256   0.748   6.246   8.669
 2120SOL    HW1 8257   0.751   6.342   8.669
 2120SOL    HW2 8258   0.678   6.225   8.731
 2121SOL     OW 8259  13.337  13.196   7.669
 2121SOL    HW1 8260  13.257  13.145   7.656
 2121SOL    HW2 8261  13.379  13.196   7.583
 2122SOL     OW 8262  12.557   6.357  10.043
 2122SOL    HW1 8263  12.503   6.362   9.965
 2122SOL    HW2 8264  12.510   6.297  10.101
 2123SOL     OW 8265   3.363  11.234   8.499
 2123SOL    HW1 8266   3.350  11.329   8.509
 2123SOL    HW2 8267   3.352  11.218   8.406
 2124SOL     OW 8268  14.815   4.840   2.624
 2124SOL    HW1 8269  14.795   4.824   2.531
 2124SOL    HW2 8270  14.729   4.838   2.667
 2125SOL     OW 8271  14.216  13.631  10.205
 2125SOL    HW1 8272  14.273  13.555  10.190
 2125SOL    HW2 8273  14.269  13.691  10.258
 2126SOL     OW 8274   8.693   8.091   2.048
 2126SOL    HW1 8275   8.673   8.171   2.097
 2126SOL    HW2 8276   8.787   8.080   2.056
 2127SOL     OW 8277  14.345   6.343   5.371
 2127SOL    HW1 8278  14.304   6.425   5.344
 2127SOL    HW2 8279  14.391   6.365   5.452
 2128SOL     OW 8280  12.566   8.592   2.753
 2128SOL    HW1 8281  12.650   8.547   2.745
 2128SOL    HW2 8282  12.531   8.593   2.663
 2129SOL     OW 8283   7.096   1.658   6.268
 2129SOL    HW1 8284   7.112   1.736   6.216
 2129SOL    HW2 8285   7.010   1.627   6.241
 2130SOL     OW 8286   6.174  13.520  11.799
 2130SOL    HW1 8287   6.225  13.520  11.717
 2130SOL    HW2 8288   6.237  13.493  11.866
 2131SOL     OW 8289   9.460  14.518  10.419
 2131SOL    HW1 8290   9.371  14.544  10.440
 2131SOL    HW2 8291   9.467  14.532  10.324
 2132SOL     OW 8292   8.873   8.630   3.125
 2132SOL    HW1 8293   8.847   8.544   3.159
 2132SOL    HW2 8294   8.790   8.674   3.107
 2133SOL     OW 8295   5.646  14.796   9.369
 2133SOL    HW1 8296   5.556  14.828   9.370
 2133SOL    HW2 8297   5.689  14.846   9.299
 2134SOL     OW 8298  13.780  10.252   2.980
 2134SOL    HW1 8299  13.785  10.175   3.036
 2134SOL    HW2 8300  13.687  10.264   2.963
 2135SOL     OW 8301   3.741  11.702   9.731
 2135SOL    HW1 8302   3.809  11.762   9.763
 2135SOL    HW2 8303   3.739  11.716   9.637
 2136SOL     OW 8304   9.766   7.516   9.955
 2136SOL    HW1 8305   9.828   7.587   9.969
 2136SOL    HW2 8306   9.731   7.497  10.043
 2137SOL     OW 8307   4.075   4.618   6.890
 2137SOL    HW1 8308   4.073   4.533   6.932
 2137SOL    HW2 8309   4.120   4.603   6.807
 2138SOL     OW 8310   2.327  10.330   5.013
 2138SOL    HW1 8311   2.395  10.283   4.964
 2138SOL    HW2 8312   2.300  10.400   4.954
 2139SOL     OW 8313  13.505  12.985  10.416
 2139SOL    HW1 8314  13.501  13.055  10.481
 2139SOL    HW2 8315  13.508  12.905  10.467
 2140SOL     OW 8316  14.553   1.174   1.429
 2140SOL    HW1 8317  14.564   1.232   1.354
 2140SOL    HW2 8318  14.481   1.116   1.404
 2141SOL     OW 8319   7.795   0.057   0.441
 2141SOL    HW1 8320   7.864   0.109   0.398
 2141SOL    HW2 8321   7.739   0.122   0.483
 2142SOL     OW 8322   8.857   4.356   8.409
 2142SOL    HW1 8323   8.783   4.319   8.456
 2142SOL    HW2 8324   8.820   4.428   8.358
 2143SOL     OW 8325   9.332   8.674  11.374
 2143SOL    HW1 8326   9.401   8.627  11.327
 2143SOL    HW2 8327   9.318   8.623  11.454
 2144SOL     OW 8328  13.485   5.434  13.108
 2144SOL    HW1 8329  13.521   5.345  13.104
 2144SOL    HW2 8330  13.555   5.486  13.147
 2145SOL     OW 8331   8.973  11.105   4.617
 2145SOL    HW1 8332   8.941  11.191   4.590
 2145SOL    HW2 8333   8.894  11.056   4.640
 2146SOL     OW 8334   8.301   2.195   3.623
 2146SOL    HW1 8335   8.322   2.123   3.563
 2146SOL    HW2 8336   8.234   2.246   3.577
 2147SOL     OW 8337  13.429   5.913   3.787
 2147SOL    HW1 8338  13.471   5.877   3.865
 2147SOL    HW2 8339  13.338   5.884   3.792
 2148SOL     OW 8340   4.725  13.410   7.830
 2148SOL    HW1 8341   4.798  13.374   7.880
 2148SOL    HW2 8342   4.653  13.418   7.893
 2149SOL     OW 8343   6.956  11.222   4.252
 2149SOL    HW1 8344   6.987  11.303   4.292
 2149SOL    HW2 8345   6.879  11.197   4.303
 2150SOL     OW 8346   5.836   8.654   4.065
 2150SOL    HW1 8347   5.803   8.718   4.128
 2150SOL    HW2 8348   5.763   8.594   4.051
 2151SOL     OW 8349   6.511   0.991  13.402
 2151SOL    HW1 8350   6.520   1.071  13.455
 2151SOL    HW2 8351   6.513   1.022  13.312
 2152SOL     OW 8352   7.983   1.810   7.921
 2152SOL    HW1 8353   7.922   1.801   7.994
 2152SOL    HW2 8354   8.069   1.815   7.962
 2153SOL     OW 8355   5.545   5.334  12.886
 2153SOL    HW1 8356   5.574   5.337  12.795
 2153SOL    HW2 8357   5.606   5.274  12.928
 2154SOL     OW 8358   1.981  12.383  13.514
 2154SOL    HW1 8359   1.965  12.425  13.430
 2154SOL    HW2 8360   1.923  12.427  13.576
 2155SOL     OW 8361   3.839   1.388  13.122
 2155SOL    HW1 8362   3.815   1.300  13.150
 2155SOL    HW2 8363   3.878   1.428  13.200
 2156SOL     OW 8364  11.548   9.865   7.963
 2156SOL    HW1 8365  11.508   9.788   7.921
 2156SOL    HW2 8366  11.545   9.933   7.896
 2157SOL     OW 8367   0.578   9.768   7.099
 2157SOL    HW1 8368   0.505   9.817   7.062
 2157SOL    HW2 8369   0.644   9.766   7.030
 2158SOL     OW 8370   5.602   7.493   7.337
 2158SOL    HW1 8371   5.614   7.410   7.291
 2158SOL    HW2 8372   5.670   7.550   7.302
 2159SOL     OW 8373   9.470  11.081   6.996
 2159SOL    HW1 8374   9.558  11.083   6.958
 2159SOL    HW2 8375   9.419  11.029   6.933
 2160SOL     OW 8376   3.014   9.377   7.465
 2160SOL    HW1 8377   3.108   9.366   7.474
 2160SOL    HW2 8378   2.997   9.363   7.372
 2161SOL     OW 8379   4.000   5.496   4.855
 2161SOL    HW1 8380   3.915   5.454   4.840
 2161SOL    HW2 8381   4.064   5.436   4.817
 2162SOL     OW 8382   4.475   0.672   2.591
 2162SOL    HW1 8383   4.474   0.752   2.538
 2162SOL    HW2 8384   4.387   0.667   2.628
 2163SOL     OW 8385  11.476  14.496   3.425
 2163SOL    HW1 8386  11.469  14.570   3.486
 2163SOL    HW2 8387  11.467  14.418   3.479
 2164SOL     OW 8388   6.571  10.002   8.504
 2164SOL    HW1 8389   6.521   9.970   8.429
 2164SOL    HW2 8390   6.520   9.975   8.581
 2165SOL     OW 8391  10.390  10.523   0.646
 2165SOL    HW1 8392  10.409  10.455   0.710
 2165SOL    HW2 8393  10.334  10.481   0.582
 2166SOL     OW 8394   0.113   8.119  11.597
 2166SOL    HW1 8395   0.036   8.105  11.542
 2166SOL    HW2 8396   0.167   8.041  11.584
 2167SOL     OW 8397   2.794   6.263   0.384
 2167SOL    HW1 8398   2.813   6.170   0.375
 2167SOL    HW2 8399   2.879   6.306   0.370
 2168SOL     OW 8400   5.006   6.840   6.496
 2168SOL    HW1 8401   5.052   6.862   6.415
 2168SOL    HW2 8402   4.946   6.913   6.511
 2169SOL     OW 8403   2.254   3.507   6.692
 2169SOL    HW1 8404   2.296   3.592   6.681
 2169SOL    HW2 8405   2.239   3.499   6.787
 2170SOL     OW 8406  14.741   3.721   4.470
 2170SOL    HW1 8407  14.819   3.694   4.519
 2170SOL    HW2 8408  14.710   3.800   4.515
 2171SOL     OW 8409  14.517  14.145   4.379
 2171SOL    HW1 8410  14.497  14.066   4.328
 2171SOL    HW2 8411  14.433  14.188   4.393
 2172SOL     OW 8412  14.278  12.738   0.548
 2172SOL    HW1 8413  14.194  12.707   0.580
 2172SOL    HW2 8414  14.324  12.771   0.625
 2173SOL     OW 8415   2.657  14.159   2.105
 2173SOL    HW1 8416   2.564  14.182   2.102
 2173SOL    HW2 8417   2.702  14.243   2.091
 2174SOL     OW 8418   8.390   1.367   6.378
 2174SOL    HW1 8419   8.336   1.309   6.325
 2174SOL    HW2 8420   8.336   1.446   6.388
 2175SOL     OW 8421  10.785   1.859   7.647
 2175SOL    HW1 8422  10.776   1.767   7.624
 2175SOL    HW2 8423  10.729   1.869   7.725
 2176SOL     OW 8424   6.419   1.665  10.880
 2176SOL    HW1 8425   6.515   1.668  10.877
 2176SOL    HW2 8426   6.399   1.604  10.951
 2177SOL     OW 8427  14.243   0.674  11.444
 2177SOL    HW1 8428  14.295   0.752  11.422
 2177SOL    HW2 8429  14.229   0.680  11.538
 2178SOL     OW 8430  10.040   7.865   5.878
 2178SOL    HW1 8431  10.095   7.807   5.825
 2178SOL    HW2 8432  10.098   7.897   5.947
 2179SOL     OW 8433   9.638   2.605  14.387
 2179SOL    HW1 8434   9.657   2.536  14.324
 2179SOL    HW2 8435   9.716   2.610  14.441
 2180SOL     OW 8436   5.521   1.252  12.092
 2180SOL    HW1 8437   5.589   1.311  12.061
 2180SOL    HW2 8438   5.569   1.175  12.124
 2181SOL     OW 8439  12.180   1.530   0.422
 2181SOL    HW1 8440  12.124   1.567   0.490
 2181SOL    HW2 8441  12.241   1.601   0.401
 2182SOL     OW 8442   5.088   0.325   1.347
 2182SOL    HW1 8443   5.130   0.243   1.375
 2182SOL    HW2 8444   5.080   0.317   1.252
 2183SOL     OW 8445   7.547   3.833  14.640
 2183SOL    HW1 8446   7.475   3.817  14.579
 2183SOL    HW2 8447   7.567   3.747  14.677
 2184SOL     OW 8448   2.078   2.041   1.093
 2184SOL    HW1 8449   2.071   1.983   1.169
 2184SOL    HW2 8450   2.039   2.124   1.123
 2185SOL     OW 8451  10.529   1.672   3.189
 2185SOL    HW1 8452  10.461   1.740   3.189
 2185SOL    HW2 8453  10.518   1.628   3.104
 2186SOL     OW 8454   6.975   4.631  13.842
 2186SOL    HW1 8455   6.980   4.672  13.756
 2186SOL    HW2 8456   7.045   4.566  13.842
 2187SOL     OW 8457   7.095   3.527   8.000
 2187SOL    HW1 8458   7.059   3.610   7.967
 2187SOL    HW2 8459   7.022   3.465   7.992
 2188SOL     OW 8460   8.991  13.106  14.649
 2188SOL    HW1 8461   8.991  13.201  14.654
 2188SOL    HW2 8462   9.077  13.084  14.614
 2189SOL     OW 8463   2.282   9.076  11.912
 2189SOL    HW1 8464   2.236   9.147  11.868
 2189SOL    HW2 8465   2.372   9.108  11.920
 2190SOL     OW 8466   0.101  10.732  11.913
 2190SOL    HW1 8467   0.119  10.731  11.819
 2190SOL    HW2 8468   0.182  10.764  11.953
 2191SOL     OW 8469  12.247  11.703  12.199
 2191SOL    HW1 8470  12.205  11.724  12.116
 2191SOL    HW2 8471  12.266  11.789  12.238
 2192SOL     OW 8472   4.644   1.803   8.603
 2192SOL    HW1 8473   4.697   1.858   8.545
 2192SOL    HW2 8474   4.576   1.861   8.637
 2193SOL     OW 8475   7.813  12.144   4.801
 2193SOL    HW1 8476   7.765  12.183   4.728
 2193SOL    HW2 8477   7.905  12.160   4.781
 2194SOL     OW 8478   0.133   0.171   4.068
 2194SOL    HW1 8479   0.131   0.080   4.038
 2194SOL    HW2 8480   0.062   0.176   4.133
 2195SOL     OW 8481  10.969   3.653   9.241
 2195SOL    HW1 8482  10.892   3.606   9.271
 2195SOL    HW2 8483  11.042   3.595   9.262
 2196SOL     OW 8484   2.720   6.074   2.727
 2196SOL    HW1 8485   2.660   6.025   2.672
 2196SOL    HW2 8486   2.754   6.143   2.671
 2197SOL     OW 8487   3.536   1.326   1.030
 2197SOL    HW1 8488   3.448   1.295   1.008
 2197SOL    HW2 8489   3.591   1.247   1.025
 2198SOL     OW 8490   4.902   1.051   9.475
 2198SOL    HW1 8491   4.808   1.061   9.491
 2198SOL    HW2 8492   4.912   0.960   9.446
 2199SOL     OW 8493   8.441  10.143  13.635
 2199SOL    HW1 8494   8.430  10.124  13.728
 2199SOL    HW2 8495   8.354  10.128  13.597
 2200SOL     OW 8496  14.847   0.378  12.315
 2200SOL    HW1 8497  14.830   0.285  12.331
 2200SOL    HW2 8498  14.848   0.386  12.220
 2201SOL     OW 8499  12.528  11.286   7.846
 2201SOL    HW1 8500  12.612  11.279   7.800
 2201SOL    HW2 8501  12.462  11.273   7.777
 2202SOL     OW 8502   0.834   3.499   3.524
 2202SOL    HW1 8503   0.866   3.498   3.434
 2202SOL    HW2 8504   0.832   3.592   3.547
 2203SOL     OW 8505  10.132   1.700  12.238
 2203SOL    HW1 8506  10.188   1.752  12.181
 2203SOL    HW2 8507  10.192   1.662  12.302
 2204SOL     OW 8508   9.860   4.270   0.066
 2204SOL    HW1 8509   9.887   4.350   0.110
 2204SOL    HW2 8510   9.798   4.228   0.126
 2205SOL     OW 8511  13.360  10.450  14.421
 2205SOL    HW1 8512  13.385  10.541  14.439
 2205SOL    HW2 8513  13.388  10.436  14.330
 2206SOL     OW 8514  10.760   3.465   1.463
 2206SOL    HW1 8515  10.852   3.458   1.487
 2206SOL    HW2 8516  10.760   3.460   1.367
 2207SOL     OW 8517   8.256   0.686   8.443
 2207SOL    HW1 8518   8.205   0.696   8.363
 2207SOL    HW2 8519   8.289   0.773   8.463
 2208SOL     OW 8520   1.385   3.795  13.867
 2208SOL    HW1 8521   1.350   3.884  13.874
 2208SOL    HW2 8522   1.328   3.752  13.804
 2209SOL     OW 8523   5.687  10.332  13.217
 2209SOL    HW1 8524   5.738  10.302  13.292
 2209SOL    HW2 8525   5.719  10.279  13.144
 2210SOL     OW 8526   0.025  14.169   2.773
 2210SOL    HW1 8527  14.822  14.220   2.784
 2210SOL    HW2 8528   0.039  14.129   2.859
 2211SOL     OW 8529   3.556   5.086   7.949
 2211SOL    HW1 8530   3.479   5.055   7.997
 2211SOL    HW2 8531   3.602   5.006   7.924
 2212SOL     OW 8532  10.636  12.695   7.244
 2212SOL    HW1 8533  10.621  12.788   7.261
 2212SOL    HW2 8534  10.611  12.652   7.326
 2213SOL     OW 8535   6.361   3.958   5.071
 2213SOL    HW1 8536   6.285   4.009   5.041
 2213SOL    HW2 8537   6.326   3.904   5.143
 2214SOL     OW 8538  14.662   6.062  11.005
 2214SOL    HW1 8539  14.634   6.018  10.926
 2214SOL    HW2 8540  14.727   6.004  11.044
 2215SOL     OW 8541   1.314   2.527  10.245
 2215SOL    HW1 8542   1.352   2.604  10.287
 2215SOL    HW2 8543   1.224   2.553  10.226
 2216SOL     OW 8544  14.578   3.459   4.261
 2216SOL    HW1 8545  14.654   3.414   4.224
 2216SOL    HW2 8546  14.518   3.388   4.286
 2217SOL     OW 8547   5.776  14.131   0.948
 2217SOL    HW1 8548   5.733  14.117   1.032
 2217SOL    HW2 8549   5.709  14.173   0.893
 2218SOL     OW 8550   1.046  14.355   9.482
 2218SOL    HW1 8551   1.015  14.391   9.565
 2218SOL    HW2 8552   0.968  14.312   9.445
 2219SOL     OW 8553  11.127   9.540   8.577
 2219SOL    HW1 8554  11.050   9.520   8.523
 2219SOL    HW2 8555  11.111   9.629   8.609
 2220SOL     OW 8556   4.200   7.936  14.465
 2220SOL    HW1 8557   4.250   7.940  14.383
 2220SOL    HW2 8558   4.199   7.842  14.487
 2221SOL     OW 8559  14.028   2.285   8.283
 2221SOL    HW1 8560  14.112   2.253   8.314
 2221SOL    HW2 8561  13.963   2.237   8.335
 2222SOL     OW 8562   4.920   4.650  11.962
 2222SOL    HW1 8563   4.988   4.689  11.907
 2222SOL    HW2 8564   4.855   4.719  11.972
 2223SOL     OW 8565   1.131   6.674   4.681
 2223SOL    HW1 8566   1.081   6.660   4.600
 2223SOL    HW2 8567   1.104   6.603   4.739
 2224SOL     OW 8568   5.467  13.287  13.760
 2224SOL    HW1 8569   5.552  13.315  13.727
 2224SOL    HW2 8570   5.484  13.264  13.852
 2225SOL     OW 8571  13.811   4.981   6.513
 2225SOL    HW1 8572  13.844   4.917   6.577
 2225SOL    HW2 8573  13.734   4.939   6.474
 2226SOL     OW 8574   1.540  14.868  12.879
 2226SOL    HW1 8575   1.633  14.871  12.904
 2226SOL    HW2 8576   1.537   0.029  12.792
 2227SOL     OW 8577  13.835   6.897   3.162
 2227SOL    HW1 8578  13.926   6.881   3.138
 2227SOL    HW2 8579  13.817   6.834   3.232
 2228SOL     OW 8580   5.975  13.510   6.403
 2228SOL    HW1 8581   5.943  13.599   6.384
 2228SOL    HW2 8582   5.896  13.460   6.422
 2229SOL     OW 8583   4.250  11.997   6.276
 2229SOL    HW1 8584   4.259  12.067   6.341
 2229SOL    HW2 8585   4.203  11.928   6.322
 2230SOL     OW 8586   2.450   9.720  10.029
 2230SOL    HW1 8587   2.369   9.765  10.055
 2230SOL    HW2 8588   2.423   9.662   9.958
 2231SOL     OW 8589  12.071   8.084  12.141
 2231SOL    HW1 8590  12.086   8.176  12.163
 2231SOL    HW2 8591  12.157   8.042  12.152
 2232SOL     OW 8592   2.012   8.734  10.912
 2232SOL    HW1 8593   2.028   8.828  10.912
 2232SOL    HW2 8594   1.966   8.718  10.994
 2233SOL     OW 8595   0.002  14.139   2.102
 2233SOL    HW1 8596  14.841  14.076   2.041
 2233SOL    HW2 8597   0.008  14.221   2.052
 2234SOL     OW 8598   9.595  12.761  14.290
 2234SOL    HW1 8599   9.589  12.668  14.269
 2234SOL    HW2 8600   9.509  12.783  14.326
 2235SOL     OW 8601  12.137  12.390  13.427
 2235SOL    HW1 8602  12.101  12.321  13.483
 2235SOL    HW2 8603  12.222  12.356  13.399
 2236SOL     OW 8604  11.741   3.552   3.776
 2236SOL    HW1 8605  11.753   3.635   3.730
 2236SOL    HW2 8606  11.695   3.575   3.857
 2237SOL     OW 8607   4.853   6.890  10.869
 2237SOL    HW1 8608   4.851   6.984  10.887
 2237SOL    HW2 8609   4.800   6.851  10.939
 2238SOL     OW 8610   3.067  13.943   3.911
 2238SOL    HW1 8611   2.973  13.943   3.889
 2238SOL    HW2 8612   3.082  13.857   3.952
 2239SOL     OW 8613   3.999   3.374  14.802
 2239SOL    HW1 8614   4.078   3.335  14.765
 2239SOL    HW2 8615   4.027   3.407   0.010
 2240SOL     OW 8616  12.816   9.139   1.938
 2240SOL    HW1 8617  12.849   9.055   1.907
 2240SOL    HW2 8618  12.754   9.116   2.008
 2241SOL     OW 8619   6.255   7.406  10.824
 2241SOL    HW1 8620   6.348   7.429  10.822
 2241SOL    HW2 8621   6.252   7.312  10.810
 2242SOL     OW 8622   6.740   3.854  14.454
 2242SOL    HW1 8623   6.823   3.843  14.407
 2242SOL    HW2 8624   6.674   3.827  14.390
 2243SOL     OW 8625   9.984   6.600   2.558
 2243SOL    HW1 8626   9.932   6.647   2.493
 2243SOL    HW2 8627  10.036   6.667   2.601
 2244SOL     OW 8628   8.740  11.735   3.849
 2244SOL    HW1 8629   8.789  11.778   3.778
 2244SOL    HW2 8630   8.687  11.805   3.887
 2245SOL     OW 8631  14.143   8.182   7.197
 2245SOL    HW1 8632  14.152   8.189   7.101
 2245SOL    HW2 8633  14.150   8.273   7.228
 2246SOL     OW 8634  13.294   0.603   4.349
 2246SOL    HW1 8635  13.351   0.663   4.397
 2246SOL    HW2 8636  13.323   0.516   4.377
 2247SOL     OW 8637   0.303  10.861   9.813
 2247SOL    HW1 8638   0.235  10.830   9.753
 2247SOL    HW2 8639   0.335  10.943   9.773
 2248SOL     OW 8640  10.635   8.960  10.442
 2248SOL    HW1 8641  10.587   8.996  10.517
 2248SOL    HW2 8642  10.684   9.035  10.407
 2249SOL     OW 8643  13.594   3.036   0.926
 2249SOL    HW1 8644  13.654   3.037   0.852
 2249SOL    HW2 8645  13.533   3.109   0.910
 2250SOL     OW 8646   7.457   4.456   7.427
 2250SOL    HW1 8647   7.550   4.455   7.406
 2250SOL    HW2 8648   7.413   4.455   7.342
 2251SOL     OW 8649   2.669  11.788  14.236
 2251SOL    HW1 8650   2.650  11.875  14.201
 2251SOL    HW2 8651   2.729  11.749  14.173
 2252SOL     OW 8652   6.488   8.101  11.651
 2252SOL    HW1 8653   6.480   8.044  11.727
 2252SOL    HW2 8654   6.582   8.116  11.643
 2253SOL     OW 8655  13.338  13.351   6.994
 2253SOL    HW1 8656  13.407  13.285   7.001
 2253SOL    HW2 8657  13.259  13.305   7.022
 2254SOL     OW 8658   1.133   6.757  11.637
 2254SOL    HW1 8659   1.062   6.740  11.699
 2254SOL    HW2 8660   1.212   6.728  11.683
 2255SOL     OW 8661   5.279   9.742   9.660
 2255SOL    HW1 8662   5.298   9.788   9.742
 2255SOL    HW2 8663   5.201   9.786   9.625
 2256SOL     OW 8664   2.100   9.924   0.740
 2256SOL    HW1 8665   2.166   9.990   0.717
 2256SOL    HW2 8666   2.064   9.955   0.823
 2257SOL     OW 8667   5.042  11.436   2.041
 2257SOL    HW1 8668   5.067  11.404   1.955
 2257SOL    HW2 8669   5.124  11.452   2.087
 2258SOL     OW 8670  10.327   2.037  14.297
 2258SOL    HW1 8671  10.388   2.101  14.259
 2258SOL    HW2 8672  10.344   2.040  14.391
 2259SOL     OW 8673   1.583  14.221   8.334
 2259SOL    HW1 8674   1.557  14.285   8.268
 2259SOL    HW2 8675   1.677  14.232   8.343
 2260SOL     OW 8676   3.703   6.221   2.677
 2260SOL    HW1 8677   3.715   6.189   2.767
 2260SOL    HW2 8678   3.783   6.271   2.659
 2261SOL     OW 8679   8.076   6.208  13.171
 2261SOL    HW1 8680   8.091   6.183  13.262
 2261SOL    HW2 8681   8.131   6.286  13.159
 2262SOL     OW 8682  10.853   6.613  12.684
 2262SOL    HW1 8683  10.909   6.535  12.692
 2262SOL    HW2 8684  10.880   6.653  12.601
 2263SOL     OW 8685   5.314  10.758   4.152
 2263SOL    HW1 8686   5.355  10.778   4.236
 2263SOL    HW2 8687   5.370  10.690   4.113
 2264SOL     OW 8688   8.029  13.512   1.705
 2264SOL    HW1 8689   8.005  13.514   1.797
 2264SOL    HW2 8690   7.988  13.432   1.671
 2265SOL     OW 8691   9.784   6.943  13.486
 2265SOL    HW1 8692   9.808   7.035  13.490
 2265SOL    HW2 8693   9.853   6.902  13.435
 2266SOL     OW 8694  12.849   1.978   3.697
 2266SOL    HW1 8695  12.847   1.991   3.603
 2266SOL    HW2 8696  12.869   2.065   3.733
 2267SOL     OW 8697   8.871   9.020   8.017
 2267SOL    HW1 8698   8.891   8.950   7.955
 2267SOL    HW2 8699   8.937   9.087   8.001
 2268SOL     OW 8700   9.807   3.626   4.115
 2268SOL    HW1 8701   9.742   3.637   4.046
 2268SOL    HW2 8702   9.891   3.642   4.072
 2269SOL     OW 8703   5.955  13.790  10.411
 2269SOL    HW1 8704   5.952  13.885  10.426
 2269SOL    HW2 8705   5.876  13.772  10.359
 2270SOL     OW 8706   9.127  11.962   2.799
 2270SOL    HW1 8707   9.126  11.871   2.770
 2270SOL    HW2 8708   9.034  11.986   2.804
 2271SOL     OW 8709   7.458   8.981   3.395
 2271SOL    HW1 8710   7.525   8.918   3.369
 2271SOL    HW2 8711   7.385   8.965   3.334
 2272SOL     OW 8712   7.192   8.289   2.743
 2272SOL    HW1 8713   7.276   8.289   2.789
 2272SOL    HW2 8714   7.188   8.375   2.701
 2273SOL     OW 8715  10.162   4.757   5.444
 2273SOL    HW1 8716  10.078   4.788   5.479
 2273SOL    HW2 8717  10.169   4.797   5.358
 2274SOL     OW 8718  11.788   9.192  14.495
 2274SOL    HW1 8719  11.732   9.186  14.418
 2274SOL    HW2 8720  11.838   9.272  14.483
 2275SOL     OW 8721  12.951   4.566  12.280
 2275SOL    HW1 8722  12.867   4.536  12.245
 2275SOL    HW2 8723  12.955   4.528  12.368
 2276SOL     OW 8724  11.568  10.649  10.357
 2276SOL    HW1 8725  11.562  10.565  10.403
 2276SOL    HW2 8726  11.572  10.715  10.427
 2277SOL     OW 8727  12.552   0.886  12.519
 2277SOL    HW1 8728  12.543   0.914  12.610
 2277SOL    HW2 8729  12.484   0.820  12.507
 2278SOL     OW 8730   6.706  12.478   5.030
 2278SOL    HW1 8731   6.715  12.471   5.125
 2278SOL    HW2 8732   6.730  12.568   5.010
 2279SOL     OW 8733  11.953  10.757  13.613
 2279SOL    HW1 8734  11.908  10.794  13.689
 2279SOL    HW2 8735  12.030  10.713  13.650
 2280SOL     OW 8736   6.468   6.761   1.361
 2280SOL    HW1 8737   6.553   6.716   1.358
 2280SOL    HW2 8738   6.486   6.848   1.323
 2281SOL     OW 8739   5.791   4.448   1.308
 2281SOL    HW1 8740   5.808   4.355   1.323
 2281SOL    HW2 8741   5.749   4.478   1.389
 2282SOL     OW 8742  12.298   5.965   2.702
 2282SOL    HW1 8743  12.240   5.934   2.772
 2282SOL    HW2 8744  12.300   6.060   2.713
 2283SOL     OW 8745   0.359  11.104  13.926
 2283SOL    HW1 8746   0.434  11.086  13.983
 2283SOL    HW2 8747   0.296  11.035  13.946
 2284SOL     OW 8748   3.998  10.704   7.602
 2284SOL    HW1 8749   4.005  10.621   7.554
 2284SOL    HW2 8750   3.932  10.754   7.553
 2285SOL     OW 8751   0.267  14.786   7.953
 2285SOL    HW1 8752   0.321  14.721   7.997
 2285SOL    HW2 8753   0.296  14.784   7.862
 2286SOL     OW 8754  14.605   8.897  11.440
 2286SOL    HW1 8755  14.659   8.889  11.518
 2286SOL    HW2 8756  14.606   8.810  11.400
 2287SOL     OW 8757  11.529   1.328  10.818
 2287SOL    HW1 8758  11.488   1.328  10.904
 2287SOL    HW2 8759  11.466   1.285  10.760
 2288SOL     OW 8760   9.716   2.825   0.819
 2288SOL    HW1 8761   9.645   2.878   0.784
 2288SOL    HW2 8762   9.755   2.880   0.888
 2289SOL     OW 8763   6.528   9.362   6.919
 2289SOL    HW1 8764   6.504   9.292   6.859
 2289SOL    HW2 8765   6.458   9.362   6.985
 2290SOL     OW 8766   9.562  11.904   6.228
 2290SOL    HW1 8767   9.625  11.882   6.159
 2290SOL    HW2 8768   9.477  11.901   6.183
 2291SOL     OW 8769  13.701   4.155  13.849
 2291SOL    HW1 8770  13.791   4.170  13.821
 2291SOL    HW2 8771  13.707   4.148  13.944
 2292SOL     OW 8772   8.276  11.683  13.916
 2292SOL    HW1 8773   8.194  11.711  13.875
 2292SOL    HW2 8774   8.250  11.612  13.975
 2293SOL     OW 8775   6.401  12.497   2.240
 2293SOL    HW1 8776   6.344  12.573   2.245
 2293SOL    HW2 8777   6.488  12.532   2.221
 2294SOL     OW 8778  11.754   2.740   4.063
 2294SOL    HW1 8779  11.742   2.695   3.980
 2294SOL    HW2 8780  11.675   2.793   4.074
 2295SOL     OW 8781   8.376   5.717   9.562
 2295SOL    HW1 8782   8.377   5.774   9.638
 2295SOL    HW2 8783   8.350   5.773   9.489
 2296SOL     OW 8784  13.994   1.853   2.110
 2296SOL    HW1 8785  13.953   1.769   2.134
 2296SOL    HW2 8786  14.071   1.829   2.059
 2297SOL     OW 8787   9.327   8.794   4.610
 2297SOL    HW1 8788   9.421   8.809   4.620
 2297SOL    HW2 8789   9.299   8.757   4.694
 2298SOL     OW 8790  12.915   8.232   8.134
 2298SOL    HW1 8791  12.824   8.245   8.161
 2298SOL    HW2 8792  12.966   8.274   8.204
 2299SOL     OW 8793   3.276   7.878   1.075
 2299SOL    HW1 8794   3.260   7.816   1.146
 2299SOL    HW2 8795   3.241   7.960   1.106
 2300SOL     OW 8796  14.590  11.938   3.785
 2300SOL    HW1 8797  14.557  11.951   3.696
 2300SOL    HW2 8798  14.682  11.963   3.781
 2301SOL     OW 8799   6.403  12.928  13.782
 2301SOL    HW1 8800   6.427  12.850  13.732
 2301SOL    HW2 8801   6.312  12.945  13.757
 2302SOL     OW 8802   9.426   4.037   4.433
 2302SOL    HW1 8803   9.424   4.099   4.360
 2302SOL    HW2 8804   9.340   3.995   4.431
 2303SOL     OW 8805   5.700   6.763   2.452
 2303SOL    HW1 8806   5.764   6.694   2.469
 2303SOL    HW2 8807   5.630   6.720   2.403
 2304SOL     OW 8808  12.831   7.821   4.662
 2304SOL    HW1 8809  12.782   7.902   4.652
 2304SOL    HW2 8810  12.907   7.844   4.715
 2305SOL     OW 8811  12.060  10.309   7.852
 2305SOL    HW1 8812  12.007  10.310   7.773
 2305SOL    HW2 8813  12.135  10.366   7.832
 2306SOL     OW 8814  12.025   3.532   2.892
 2306SOL    HW1 8815  12.115   3.537   2.925
 2306SOL    HW2 8816  11.987   3.457   2.937
 2307SOL     OW 8817   6.590  11.890   1.781
 2307SOL    HW1 8818   6.657  11.878   1.849
 2307SOL    HW2 8819   6.566  11.801   1.756
 2308SOL     OW 8820   6.599   2.690   2.576
 2308SOL    HW1 8821   6.575   2.696   2.484
 2308SOL    HW2 8822   6.562   2.607   2.605
 2309SOL     OW 8823   0.082   7.154  12.688
 2309SOL    HW1 8824   0.093   7.066  12.723
 2309SOL    HW2 8825   0.092   7.211  12.764
 2310SOL     OW 8826   8.486  12.221  14.034
 2310SOL    HW1 8827   8.489  12.135  14.075
 2310SOL    HW2 8828   8.405  12.221  13.983
 2311SOL     OW 8829   7.978   5.675   1.888
 2311SOL    HW1 8830   7.966   5.580   1.885
 2311SOL    HW2 8831   7.984   5.696   1.981
 2312SOL     OW 8832   0.103   9.687   3.474
 2312SOL    HW1 8833   0.109   9.719   3.563
 2312SOL    HW2 8834   0.099   9.591   3.483
 2313SOL     OW 8835   6.439   2.720  13.348
 2313SOL    HW1 8836   6.452   2.693  13.439
 2313SOL    HW2 8837   6.386   2.650  13.310
 2314SOL     OW 8838  10.152   7.863   9.634
 2314SOL    HW1 8839  10.100   7.906   9.702
 2314SOL    HW2 8840  10.193   7.789   9.679
 2315SOL     OW 8841   6.991   1.901   4.098
 2315SOL    HW1 8842   6.933   1.866   4.030
 2315SOL    HW2 8843   7.053   1.831   4.116
 2316SOL     OW 8844   0.123   7.230  14.032
 2316SOL    HW1 8845   0.063   7.163  14.000
 2316SOL    HW2 8846   0.152   7.276  13.954
 2317SOL     OW 8847   2.273   6.193  12.945
 2317SOL    HW1 8848   2.306   6.148  12.867
 2317SOL    HW2 8849   2.349   6.238  12.981
 2318SOL     OW 8850   7.441   2.459   7.654
 2318SOL    HW1 8851   7.450   2.551   7.682
 2318SOL    HW2 8852   7.523   2.440   7.608
 2319SOL     OW 8853   8.308   0.290   7.866
 2319SOL    HW1 8854   8.223   0.308   7.827
 2319SOL    HW2 8855   8.290   0.225   7.933
 2320SOL     OW 8856   6.309   5.371   6.896
 2320SOL    HW1 8857   6.381   5.339   6.842
 2320SOL    HW2 8858   6.343   5.449   6.939
 2321SOL     OW 8859   4.045  10.192   3.265
 2321SOL    HW1 8860   3.992  10.183   3.186
 2321SOL    HW2 8861   3.982  10.205   3.336
 2322SOL     OW 8862   0.295   9.292  12.502
 2322SOL    HW1 8863   0.214   9.342  12.514
 2322SOL    HW2 8864   0.266   9.204  12.477
 2323SOL     OW 8865   5.812  12.162  12.071
 2323SOL    HW1 8866   5.812  12.169  11.975
 2323SOL    HW2 8867   5.757  12.236  12.100
 2324SOL     OW 8868  14.521  11.333  11.185
 2324SOL    HW1 8869  14.591  11.379  11.138
 2324SOL    HW2 8870  14.513  11.379  11.268
 2325SOL     OW 8871   3.985   5.411   4.064
 2325SOL    HW1 8872   3.932   5.456   4.129
 2325SOL    HW2 8873   3.945   5.432   3.980
 2326SOL     OW 8874   2.879  12.756  13.096
 2326SOL    HW1 8875   2.791  12.723  13.076
 2326SOL    HW2 8876   2.867  12.806  13.177
 2327SOL     OW 8877   4.324   8.240  11.527
 2327SOL    HW1 8878   4.243   8.289  11.543
 2327SOL    HW2 8879   4.393   8.296  11.563
 2328SOL     OW 8880   0.284   6.342   6.593
 2328SOL    HW1 8881   0.241   6.427   6.581
 2328SOL    HW2 8882   0.366   6.363   6.638
 2329SOL     OW 8883   8.059   1.555   5.093
 2329SOL    HW1 8884   8.042   1.549   4.999
 2329SOL    HW2 8885   8.133   1.616   5.099
 2330SOL     OW 8886   6.901   4.127  12.223
 2330SOL    HW1 8887   6.877   4.035  12.226
 2330SOL    HW2 8888   6.818   4.174  12.226
 2331SOL     OW 8889   7.312   1.162  10.951
 2331SOL    HW1 8890   7.272   1.223  11.013
 2331SOL    HW2 8891   7.405   1.163  10.975
 2332SOL     OW 8892   3.956   2.551  14.345
 2332SOL    HW1 8893   4.030   2.602  14.314
 2332SOL    HW2 8894   3.995   2.472  14.383
 2333SOL     OW 8895  12.439   4.660   5.747
 2333SOL    HW1 8896  12.505   4.596   5.719
 2333SOL    HW2 8897  12.420   4.711   5.668
 2334SOL     OW 8898   6.344   8.860  14.117
 2334SOL    HW1 8899   6.380   8.921  14.182
 2334SOL    HW2 8900   6.314   8.785  14.169
 2335SOL     OW 8901   8.244   6.968  13.869
 2335SOL    HW1 8902   8.170   7.026  13.853
 2335SOL    HW2 8903   8.321   7.023  13.857
 2336SOL     OW 8904   7.477   6.552  14.136
 2336SOL    HW1 8905   7.423   6.519  14.207
 2336SOL    HW2 8906   7.546   6.486  14.125
 2337SOL     OW 8907  14.097   9.632   3.911
 2337SOL    HW1 8908  14.116   9.673   3.996
 2337SOL    HW2 8909  14.044   9.697   3.865
 2338SOL     OW 8910  11.688  14.507  12.502
 2338SOL    HW1 8911  11.683  14.455  12.582
 2338SOL    HW2 8912  11.707  14.444  12.433
 2339SOL     OW 8913   9.085   1.318   9.828
 2339SOL    HW1 8914   9.019   1.317   9.759
 2339SOL    HW2 8915   9.134   1.399   9.814
 2340SOL     OW 8916   0.991  10.467   2.274
 2340SOL    HW1 8917   0.968  10.376   2.256
 2340SOL    HW2 8918   1.015  10.503   2.189
 2341SOL     OW 8919  11.326  11.038  13.501
 2341SOL    HW1 8920  11.237  11.044  13.534
 2341SOL    HW2 8921  11.379  11.083  13.567
 2342SOL     OW 8922   0.588   3.762   4.305
 2342SOL    HW1 8923   0.635   3.681   4.324
 2342SOL    HW2 8924   0.500   3.734   4.280
 2343SOL     OW 8925  12.593   8.286   5.951
 2343SOL    HW1 8926  12.538   8.315   6.024
 2343SOL    HW2 8927  12.573   8.346   5.879
 2344SOL     OW 8928   8.214  13.259  12.028
 2344SOL    HW1 8929   8.164  13.243  11.948
 2344SOL    HW2 8930   8.251  13.174  12.051
 2345SOL     OW 8931   7.678  12.317  12.294
 2345SOL    HW1 8932   7.596  12.274  12.318
 2345SOL    HW2 8933   7.746  12.258  12.327
 2346SOL     OW 8934   8.612   6.545  11.763
 2346SOL    HW1 8935   8.524   6.535  11.799
 2346SOL    HW2 8936   8.599   6.549  11.668
 2347SOL     OW 8937   7.150  12.038   7.474
 2347SOL    HW1 8938   7.127  11.947   7.492
 2347SOL    HW2 8939   7.163  12.041   7.380
 2348SOL     OW 8940  11.546   8.481   9.477
 2348SOL    HW1 8941  11.557   8.386   9.486
 2348SOL    HW2 8942  11.634   8.516   9.490
 2349SOL     OW 8943   1.718  12.886   4.107
 2349SOL    HW1 8944   1.765  12.872   4.189
 2349SOL    HW2 8945   1.786  12.893   4.041
 2350SOL     OW 8946   5.721   3.307   7.289
 2350SOL    HW1 8947   5.810   3.334   7.308
 2350SOL    HW2 8948   5.722   3.279   7.198
 2351SOL     OW 8949   7.621  10.543   1.300
 2351SOL    HW1 8950   7.621  10.558   1.394
 2351SOL    HW2 8951   7.676  10.465   1.288
 2352SOL     OW 8952   8.065   0.295   9.541
 2352SOL    HW1 8953   8.131   0.354   9.578
 2352SOL    HW2 8954   7.989   0.307   9.598
 2353SOL     OW 8955  13.958   8.900   9.601
 2353SOL    HW1 8956  13.915   8.986   9.599
 2353SOL    HW2 8957  14.010   8.899   9.520
 2354SOL     OW 8958  12.954   8.007  13.963
 2354SOL    HW1 8959  12.964   7.964  13.878
 2354SOL    HW2 8960  13.035   8.058  13.974
 2355SOL     OW 8961   8.412   8.078   9.940
 2355SOL    HW1 8962   8.399   8.007   9.877
 2355SOL    HW2 8963   8.447   8.150   9.888
 2356SOL     OW 8964  13.231   3.704  14.574
 2356SOL    HW1 8965  13.142   3.675  14.593
 2356SOL    HW2 8966  13.254   3.760  14.649
 2357SOL     OW 8967  11.363   9.835   9.224
 2357SOL    HW1 8968  11.332   9.764   9.280
 2357SOL    HW2 8969  11.295   9.902   9.229
 2358SOL     OW 8970   4.405  14.589   5.374
 2358SOL    HW1 8971   4.329  14.613   5.426
 2358SOL    HW2 8972   4.370  14.543   5.298
 2359SOL     OW 8973   1.931  10.614  11.902
 2359SOL    HW1 8974   1.965  10.560  11.831
 2359SOL    HW2 8975   1.963  10.571  11.982
 2360SOL     OW 8976   5.545   4.962  14.164
 2360SOL    HW1 8977   5.517   5.035  14.220
 2360SOL    HW2 8978   5.496   4.973  14.083
 2361SOL     OW 8979  12.365  10.009  14.225
 2361SOL    HW1 8980  12.431  10.059  14.273
 2361SOL    HW2 8981  12.298  10.073  14.202
 2362SOL     OW 8982   6.947   3.148   0.541
 2362SOL    HW1 8983   6.941   3.095   0.620
 2362SOL    HW2 8984   7.013   3.104   0.487
 2363SOL     OW 8985   1.511   0.490  11.367
 2363SOL    HW1 8986   1.513   0.408  11.317
 2363SOL    HW2 8987   1.481   0.464  11.454
 2364SOL     OW 8988  12.483  13.785  12.124
 2364SOL    HW1 8989  12.523  13.871  12.120
 2364SOL    HW2 8990  12.389  13.801  12.118
 2365SOL     OW 8991  13.475   3.648   2.313
 2365SOL    HW1 8992  13.485   3.611   2.401
 2365SOL    HW2 8993  13.470   3.571   2.255
 2366SOL     OW 8994   3.930  10.113   4.017
 2366SOL    HW1 8995   3.962  10.119   4.107
 2366SOL    HW2 8996   3.982  10.177   3.968
 2367SOL     OW 8997   6.970   5.378  13.568
 2367SOL    HW1 8998   6.965   5.308  13.633
 2367SOL    HW2 8999   7.061   5.405  13.569
 2368SOL     OW 9000   7.074  12.066  13.485
 2368SOL    HW1 9001   7.073  11.984  13.435
 2368SOL    HW2 9002   7.033  12.043  13.569
 2369SOL     OW 9003   3.914   0.008   3.148
 2369SOL    HW1 9004   3.952   0.096   3.148
 2369SOL    HW2 9005   3.989  14.827   3.144
 2370SOL     OW 9006   9.045   9.635   6.189
 2370SOL    HW1 9007   9.005   9.549   6.205
 2370SOL    HW2 9008   8.978   9.684   6.140
 2371SOL     OW 9009   0.209   4.121   6.621
 2371SOL    HW1 9010   0.138   4.100   6.681
 2371SOL    HW2 9011   0.167   4.126   6.535
 2372SOL     OW 9012   0.197  11.111   8.914
 2372SOL    HW1 9013   0.249  11.185   8.883
 2372SOL    HW2 9014   0.120  11.151   8.955
 2373SOL     OW 9015   2.771   6.063  11.628
 2373SOL    HW1 9016   2.726   6.046  11.544
 2373SOL    HW2 9017   2.853   6.105  11.603
 2374SOL     OW 9018   5.047  14.114   2.044
 2374SOL    HW1 9019   5.059  14.196   1.997
 2374SOL    HW2 9020   4.954  14.114   2.069
 2375SOL     OW 9021  14.689   3.703   5.045
 2375SOL    HW1 9022  14.658   3.624   5.002
 2375SOL    HW2 9023  14.777   3.680   5.076
 2376SOL     OW 9024   2.437   0.941  10.014
 2376SOL    HW1 9025   2.365   1.004  10.021
 2376SOL    HW2 9026   2.455   0.937   9.920
 2377SOL     OW 9027   5.566   0.718   0.809
 2377SOL    HW1 9028   5.490   0.665   0.783
 2377SOL    HW2 9029   5.545   0.746   0.898
 2378SOL     OW 9030  12.979   4.482   9.212
 2378SOL    HW1 9031  12.961   4.531   9.292
 2378SOL    HW2 9032  12.924   4.404   9.218
 2379SOL     OW 9033   4.632   1.617   1.435
 2379SOL    HW1 9034   4.604   1.661   1.355
 2379SOL    HW2 9035   4.618   1.681   1.504
 2380SOL     OW 9036  12.815   1.311   2.352
 2380SOL    HW1 9037  12.840   1.403   2.364
 2380SOL    HW2 9038  12.837   1.292   2.261
 2381SOL     OW 9039   4.788   2.969   4.930
 2381SOL    HW1 9040   4.718   2.947   4.992
 2381SOL    HW2 9041   4.866   2.980   4.985
 2382SOL     OW 9042  10.503   2.324   8.248
 2382SOL    HW1 9043  10.416   2.293   8.273
 2382SOL    HW2 9044  10.557   2.310   8.326
 2383SOL     OW 9045   3.460   0.422   4.064
 2383SOL    HW1 9046   3.444   0.474   3.986
 2383SOL    HW2 9047   3.378   0.423   4.112
 2384SOL     OW 9048  10.748   0.854  10.488
 2384SOL    HW1 9049  10.739   0.767  10.449
 2384SOL    HW2 9050  10.662   0.893  10.480
 2385SOL     OW 9051   9.273   2.897   5.316
 2385SOL    HW1 9052   9.181   2.904   5.341
 2385SOL    HW2 9053   9.305   2.987   5.315
 2386SOL     OW 9054  14.859   6.534   7.151
 2386SOL    HW1 9055  14.821   6.549   7.065
 2386SOL    HW2 9056  14.867   6.439   7.158
 2387SOL     OW 9057  14.124  13.721   1.167
 2387SOL    HW1 9058  14.208  13.725   1.122
 2387SOL    HW2 9059  14.113  13.629   1.190
 2388SOL     OW 9060  14.522  14.306   7.991
 2388SOL    HW1 9061  14.490  14.380   8.042
 2388SOL    HW2 9062  14.466  14.233   8.017
 2389SOL     OW 9063  10.079  12.752  11.713
 2389SOL    HW1 9064  10.144  12.778  11.778
 2389SOL    HW2 9065  10.105  12.798  11.633
 2390SOL     OW 9066  12.504   2.551   7.892
 2390SOL    HW1 9067  12.436   2.605   7.851
 2390SOL    HW2 9068  12.462   2.466   7.906
 2391SOL     OW 9069  14.507   1.436   7.899
 2391SOL    HW1 9070  14.579   1.390   7.942
 2391SOL    HW2 9071  14.470   1.372   7.838
 2392SOL     OW 9072   3.536  13.859   5.882
 2392SOL    HW1 9073   3.567  13.813   5.960
 2392SOL    HW2 9074   3.612  13.905   5.848
 2393SOL     OW 9075   5.812   6.264  13.502
 2393SOL    HW1 9076   5.826   6.240  13.411
 2393SOL    HW2 9077   5.726   6.305  13.504
 2394SOL     OW 9078   9.691   1.261  13.154
 2394SOL    HW1 9079   9.723   1.188  13.101
 2394SOL    HW2 9080   9.739   1.252  13.237
 2395SOL     OW 9081   4.400  12.470   7.514
 2395SOL    HW1 9082   4.447  12.406   7.568
 2395SOL    HW2 9083   4.468  12.520   7.470
 2396SOL     OW 9084  11.384   9.724   0.780
 2396SOL    HW1 9085  11.327   9.736   0.857
 2396SOL    HW2 9086  11.344   9.652   0.732
 2397SOL     OW 9087   3.108  11.990   5.364
 2397SOL    HW1 9088   3.068  12.075   5.344
 2397SOL    HW2 9089   3.091  11.976   5.457
 2398SOL     OW 9090  10.469  14.157   8.684
 2398SOL    HW1 9091  10.428  14.094   8.624
 2398SOL    HW2 9092  10.396  14.203   8.725
 2399SOL     OW 9093   3.892   5.776   0.115
 2399SOL    HW1 9094   3.944   5.854   0.095
 2399SOL    HW2 9095   3.814   5.784   0.062
 2400SOL     OW 9096   0.868  10.380   6.748
 2400SOL    HW1 9097   0.788  10.416   6.787
 2400SOL    HW2 9098   0.897  10.313   6.810
 2401SOL     OW 9099  14.861  11.654   1.105
 2401SOL    HW1 9100   0.054  11.624   1.047
 2401SOL    HW2 9101  14.868  11.749   1.104
 2402SOL     OW 9102   1.222  14.567  14.185
 2402SOL    HW1 9103   1.305  14.521  14.180
 2402SOL    HW2 9104   1.231  14.640  14.123
 2403SOL     OW 9105   9.005   4.839   1.671
 2403SOL    HW1 9106   8.969   4.880   1.750
 2403SOL    HW2 9107   8.928   4.817   1.618
 2404SOL     OW 9108   3.728  14.559   5.057
 2404SOL    HW1 9109   3.694  14.620   5.123
 2404SOL    HW2 9110   3.677  14.479   5.070
 2405SOL     OW 9111   4.856  11.299   4.572
 2405SOL    HW1 9112   4.946  11.330   4.563
 2405SOL    HW2 9113   4.865  11.208   4.601
 2406SOL     OW 9114  12.523  10.170   6.322
 2406SOL    HW1 9115  12.498  10.124   6.402
 2406SOL    HW2 9116  12.618  10.164   6.319
 2407SOL     OW 9117  10.395  14.848   3.620
 2407SOL    HW1 9118  10.312  14.799   3.623
 2407SOL    HW2 9119  10.413  14.871   3.711
 2408SOL     OW 9120   2.281   8.423   1.307
 2408SOL    HW1 9121   2.300   8.353   1.368
 2408SOL    HW2 9122   2.342   8.493   1.331
 2409SOL     OW 9123   5.576   4.066  14.693
 2409SOL    HW1 9124   5.617   4.121  14.760
 2409SOL    HW2 9125   5.499   4.115  14.665
 2410SOL     OW 9126  11.631   3.734   1.305
 2410SOL    HW1 9127  11.657   3.649   1.271
 2410SOL    HW2 9128  11.631   3.723   1.400
 2411SOL     OW 9129   5.944   8.239   2.175
 2411SOL    HW1 9130   5.978   8.306   2.115
 2411SOL    HW2 9131   5.981   8.263   2.260
 2412SOL     OW 9132  10.001  14.215  11.513
 2412SOL    HW1 9133   9.999  14.132  11.466
 2412SOL    HW2 9134   9.992  14.282  11.445
 2413SOL     OW 9135   5.043   8.010   8.572
 2413SOL    HW1 9136   5.099   8.057   8.512
 2413SOL    HW2 9137   4.973   8.072   8.594
 2414SOL     OW 9138   8.648   7.597  10.130
 2414SOL    HW1 9139   8.669   7.567  10.041
 2414SOL    HW2 9140   8.567   7.646  10.120
 2415SOL     OW 9141  13.591  12.812   4.662
 2415SOL    HW1 9142  13.538  12.794   4.739
 2415SOL    HW2 9143  13.585  12.732   4.610
 2416SOL     OW 9144   8.582  10.347  13.858
 2416SOL    HW1 9145   8.487  10.344  13.846
 2416SOL    HW2 9146   8.614  10.399  13.785
 2417SOL     OW 9147   8.394   2.917  13.849
 2417SOL    HW1 9148   8.430   2.886  13.931
 2417SOL    HW2 9149   8.428   2.857  13.783
 2418SOL     OW 9150   3.624   7.412  11.225
 2418SOL    HW1 9151   3.529   7.417  11.228
 2418SOL    HW2 9152   3.645   7.328  11.267
 2419SOL     OW 9153   2.873  10.624   6.383
 2419SOL    HW1 9154   2.961  10.621   6.420
 2419SOL    HW2 9155   2.865  10.712   6.347
 2420SOL     OW 9156  10.949   7.055   5.959
 2420SOL    HW1 9157  10.960   7.127   5.896
 2420SOL    HW2 9158  10.889   6.994   5.916
 2421SOL     OW 9159   5.119   2.742   5.963
 2421SOL    HW1 9160   5.125   2.711   6.054
 2421SOL    HW2 9161   5.196   2.796   5.951
 2422SOL     OW 9162   2.767   3.623   3.359
 2422SOL    HW1 9163   2.691   3.680   3.368
 2422SOL    HW2 9164   2.797   3.608   3.449
 2423SOL     OW 9165   4.993   8.423   5.051
 2423SOL    HW1 9166   5.078   8.422   5.008
 2423SOL    HW2 9167   5.013   8.407   5.143
 2424SOL     OW 9168  10.769   9.967  12.019
 2424SOL    HW1 9169  10.753  10.037  12.081
 2424SOL    HW2 9170  10.820   9.902  12.068
 2425SOL     OW 9171  12.053   7.608   8.405
 2425SOL    HW1 9172  12.023   7.615   8.314
 2425SOL    HW2 9173  11.976   7.577   8.453
 2426SOL     OW 9174  12.004   7.112   0.531
 2426SOL    HW1 9175  12.016   7.206   0.539
 2426SOL    HW2 9176  11.929   7.101   0.473
 2427SOL     OW 9177   2.463   4.302  13.089
 2427SOL    HW1 9178   2.478   4.364  13.161
 2427SOL    HW2 9179   2.369   4.307  13.072
 2428SOL     OW 9180   4.775   8.893  13.904
 2428SOL    HW1 9181   4.865   8.868  13.921
 2428SOL    HW2 9182   4.738   8.912  13.990
 2429SOL     OW 9183   3.638  11.259  10.557
 2429SOL    HW1 9184   3.559  11.294  10.518
 2429SOL    HW2 9185   3.632  11.164  10.544
 2430SOL     OW 9186   6.494   8.475   7.337
 2430SOL    HW1 9187   6.485   8.509   7.425
 2430SOL    HW2 9188   6.534   8.546   7.287
 2431SOL     OW 9189   0.905   8.503   9.343
 2431SOL    HW1 9190   0.877   8.437   9.407
 2431SOL    HW2 9191   0.861   8.478   9.262
 2432SOL     OW 9192   1.036   1.279   4.145
 2432SOL    HW1 9193   1.095   1.285   4.220
 2432SOL    HW2 9194   1.093   1.256   4.071
 2433SOL     OW 9195   5.375   4.201  12.777
 2433SOL    HW1 9196   5.441   4.252  12.823
 2433SOL    HW2 9197   5.425   4.144  12.719
 2434SOL     OW 9198   5.747   0.533  11.300
 2434SOL    HW1 9199   5.780   0.457  11.348
 2434SOL    HW2 9200   5.822   0.592  11.294
 2435SOL     OW 9201   7.469   7.019   5.447
 2435SOL    HW1 9202   7.472   6.953   5.377
 2435SOL    HW2 9203   7.391   6.998   5.497
 2436SOL     OW 9204  11.936   5.006  11.324
 2436SOL    HW1 9205  11.884   5.069  11.374
 2436SOL    HW2 9206  11.873   4.943  11.291
 2437SOL     OW 9207  10.906  11.437  12.273
 2437SOL    HW1 9208  10.980  11.388  12.236
 2437SOL    HW2 9209  10.861  11.474  12.197
 2438SOL     OW 9210   1.076  10.137   4.821
 2438SOL    HW1 9211   1.131  10.065   4.787
 2438SOL    HW2 9212   0.995  10.130   4.771
 2439SOL     OW 9213   2.264   0.359  11.247
 2439SOL    HW1 9214   2.330   0.342  11.179
 2439SOL    HW2 9215   2.212   0.431  11.212
 2440SOL     OW 9216   0.009   6.262   2.343
 2440SOL    HW1 9217  14.861   6.170   2.356
 2440SOL    HW2 9218  14.805   6.305   2.314
 2441SOL     OW 9219   2.073   0.049   9.141
 2441SOL    HW1 9220   2.153   0.088   9.174
 2441SOL    HW2 9221   2.101  14.844   9.101
 2442SOL     OW 9222   3.467  14.046  12.400
 2442SOL    HW1 9223   3.377  14.046  12.367
 2442SOL    HW2 9224   3.519  14.012  12.327
 2443SOL     OW 9225   5.399   0.059   9.383
 2443SOL    HW1 9226   5.322   0.112   9.404
 2443SOL    HW2 9227   5.467   0.123   9.362
 2444SOL     OW 9228  13.872   6.828  12.742
 2444SOL    HW1 9229  13.789   6.784  12.721
 2444SOL    HW2 9230  13.885   6.809  12.836
 2445SOL     OW 9231   5.408   7.339  12.445
 2445SOL    HW1 9232   5.448   7.273  12.502
 2445SOL    HW2 9233   5.356   7.288  12.383
 2446SOL     OW 9234   3.130   8.216   7.231
 2446SOL    HW1 9235   3.062   8.281   7.217
 2446SOL    HW2 9236   3.212   8.266   7.232
 2447SOL     OW 9237  13.053  12.519   9.081
 2447SOL    HW1 9238  13.054  12.477   8.995
 2447SOL    HW2 9239  13.016  12.605   9.066
 2448SOL     OW 9240  13.291  11.903  12.130
 2448SOL    HW1 9241  13.247  11.988  12.130
 2448SOL    HW2 9242  13.250  11.855  12.203
 2449SOL     OW 9243  12.917  11.094   6.813
 2449SOL    HW1 9244  12.888  11.178   6.848
 2449SOL    HW2 9245  12.853  11.072   6.745
 2450SOL     OW 9246  12.522   0.190  10.095
 2450SOL    HW1 9247  12.589   0.123  10.087
 2450SOL    HW2 9248  12.570   0.273  10.091
 2451SOL     OW 9249   2.905   8.448  12.266
 2451SOL    HW1 9250   2.898   8.409  12.353
 2451SOL    HW2 9251   2.944   8.534  12.281
 2452SOL     OW 9252   4.914  13.744   8.033
 2452SOL    HW1 9253   4.952  13.822   7.992
 2452SOL    HW2 9254   4.974  13.673   8.009
 2453SOL     OW 9255   5.358   8.640   8.202
 2453SOL    HW1 9256   5.441   8.628   8.155
 2453SOL    HW2 9257   5.326   8.551   8.217
 2454SOL     OW 9258   4.230  10.035  10.463
 2454SOL    HW1 9259   4.260   9.957  10.509
 2454SOL    HW2 9260   4.166  10.075  10.522
 2455SOL     OW 9261   2.923   7.639   9.784
 2455SOL    HW1 9262   2.861   7.569   9.803
 2455SOL    HW2 9263   2.990   7.631   9.852
 2456SOL     OW 9264  14.456   4.690   7.741
 2456SOL    HW1 9265  14.407   4.769   7.718
 2456SOL    HW2 9266  14.541   4.722   7.771
 2457SOL     OW 9267   5.478   6.145   1.401
 2457SOL    HW1 9268   5.541   6.217   1.401
 2457SOL    HW2 9269   5.423   6.159   1.324
 2458SOL     OW 9270   9.304   1.008   9.966
 2458SOL    HW1 9271   9.213   1.006   9.996
 2458SOL    HW2 9272   9.350   0.945  10.021
 2459SOL     OW 9273   2.833  11.516  11.539
 2459SOL    HW1 9274   2.926  11.535  11.551
 2459SOL    HW2 9275   2.813  11.450  11.605
 2460SOL     OW 9276  10.888   4.557   9.952
 2460SOL    HW1 9277  10.897   4.651   9.967
 2460SOL    HW2 9278  10.933   4.517  10.027
 2461SOL     OW 9279   9.013   1.799   2.477
 2461SOL    HW1 9280   9.029   1.732   2.411
 2461SOL    HW2 9281   9.094   1.850   2.480
 2462SOL     OW 9282  14.235   7.169   7.853
 2462SOL    HW1 9283  14.278   7.225   7.918
 2462SOL    HW2 9284  14.305   7.112   7.822
 2463SOL     OW 9285  14.355   8.250   2.668
 2463SOL    HW1 9286  14.282   8.190   2.682
 2463SOL    HW2 9287  14.328   8.303   2.592
 2464SOL     OW 9288   4.557  14.042   6.522
 2464SOL    HW1 9289   4.516  13.961   6.492
 2464SOL    HW2 9290   4.485  14.096   6.553
 2465SOL     OW 9291   3.183   8.932  12.906
 2465SOL    HW1 9292   3.273   8.902  12.892
 2465SOL    HW2 9293   3.155   8.890  12.987
 2466SOL     OW 9294  14.528  10.247   7.228
 2466SOL    HW1 9295  14.474  10.253   7.149
 2466SOL    HW2 9296  14.501  10.165   7.269
 2467SOL     OW 9297  10.615   2.454   8.648
 2467SOL    HW1 9298  10.538   2.454   8.705
 2467SOL    HW2 9299  10.586   2.500   8.569
 2468SOL     OW 9300  10.635   6.377  13.245
 2468SOL    HW1 9301  10.700   6.414  13.185
 2468SOL    HW2 9302  10.655   6.418  13.329
 2469SOL     OW 9303   2.087   1.841   3.006
 2469SOL    HW1 9304   2.054   1.843   3.096
 2469SOL    HW2 9305   2.008   1.837   2.952
 2470SOL     OW 9306   2.824  14.140  10.078
 2470SOL    HW1 9307   2.871  14.167   9.999
 2470SOL    HW2 9308   2.750  14.200  10.082
 2471SOL     OW 9309   2.677   3.054   4.354
 2471SOL    HW1 9310   2.620   3.068   4.430
 2471SOL    HW2 9311   2.628   3.091   4.280
 2472SOL     OW 9312  13.646   4.504   9.967
 2472SOL    HW1 9313  13.576   4.470  10.022
 2472SOL    HW2 9314  13.702   4.429   9.948
 2473SOL     OW 9315   1.621   7.834   7.602
 2473SOL    HW1 9316   1.686   7.763   7.598
 2473SOL    HW2 9317   1.671   7.911   7.630
 2474SOL     OW 9318   1.362   6.176   1.860
 2474SOL    HW1 9319   1.309   6.123   1.920
 2474SOL    HW2 9320   1.449   6.178   1.900
 2475SOL     OW 9321  14.168   9.755   8.987
 2475SOL    HW1 9322  14.173   9.705   8.905
 2475SOL    HW2 9323  14.144   9.689   9.052
 2476SOL     OW 9324   5.832   9.169   7.205
 2476SOL    HW1 9325   5.815   9.106   7.275
 2476SOL    HW2 9326   5.778   9.245   7.226
 2477SOL     OW 9327   6.246   2.511   6.784
 2477SOL    HW1 9328   6.295   2.535   6.705
 2477SOL    HW2 9329   6.234   2.416   6.777
 2478SOL     OW 9330   9.585  12.684   4.497
 2478SOL    HW1 9331   9.519  12.670   4.428
 2478SOL    HW2 9332   9.555  12.629   4.569
 2479SOL     OW 9333   1.413   8.462   2.146
 2479SOL    HW1 9334   1.390   8.379   2.105
 2479SOL    HW2 9335   1.393   8.450   2.239
 2480SOL     OW 9336   7.023   8.201   0.025
 2480SOL    HW1 9337   6.935   8.163   0.020
 2480SOL    HW2 9338   7.064   8.177  14.819
 2481SOL     OW 9339  10.852   5.263   8.631
 2481SOL    HW1 9340  10.892   5.338   8.586
 2481SOL    HW2 9341  10.759   5.287   8.639
 2482SOL     OW 9342   5.553  11.844   5.568
 2482SOL    HW1 9343   5.588  11.900   5.499
 2482SOL    HW2 9344   5.501  11.904   5.622
 2483SOL     OW 9345   1.280   3.789   6.269
 2483SOL    HW1 9346   1.346   3.737   6.314
 2483SOL    HW2 9347   1.247   3.731   6.201
 2484SOL     OW 9348  14.034  12.010   0.219
 2484SOL    HW1 9349  14.028  11.977   0.129
 2484SOL    HW2 9350  14.047  11.932   0.273
 2485SOL     OW 9351   1.668   7.684   5.786
 2485SOL    HW1 9352   1.701   7.770   5.760
 2485SOL    HW2 9353   1.592   7.703   5.842
 2486SOL     OW 9354  14.634   4.030   9.395
 2486SOL    HW1 9355  14.614   3.975   9.319
 2486SOL    HW2 9356  14.717   4.073   9.373
 2487SOL     OW 9357   9.022  13.047   5.641
 2487SOL    HW1 9358   9.098  13.019   5.691
 2487SOL    HW2 9359   9.053  13.053   5.550
 2488SOL     OW 9360   4.340  11.216   4.037
 2488SOL    HW1 9361   4.259  11.165   4.032
 2488SOL    HW2 9362   4.386  11.181   4.113
 2489SOL     OW 9363   6.699  14.442  11.386
 2489SOL    HW1 9364   6.660  14.462  11.471
 2489SOL    HW2 9365   6.651  14.495  11.323
 2490SOL     OW 9366   0.356   6.077   1.503
 2490SOL    HW1 9367   0.264   6.098   1.486
 2490SOL    HW2 9368   0.395   6.069   1.416
 2491SOL     OW 9369   5.546  10.756  14.432
 2491SOL    HW1 9370   5.523  10.812  14.357
 2491SOL    HW2 9371   5.462  10.719  14.460
 2492SOL     OW 9372  13.375   6.975  12.612
 2492SOL    HW1 9373  13.286   7.004  12.593
 2492SOL    HW2 9374  13.399   7.020  12.693
 2493SOL     OW 9375   8.242   4.205  10.399
 2493SOL    HW1 9376   8.149   4.202  10.377
 2493SOL    HW2 9377   8.259   4.122  10.442
 2494SOL     OW 9378   8.467   5.250   4.113
 2494SOL    HW1 9379   8.485   5.339   4.081
 2494SOL    HW2 9380   8.385   5.258   4.161
 2495SOL     OW 9381  13.285  13.581  14.128
 2495SOL    HW1 9382  13.214  13.585  14.193
 2495SOL    HW2 9383  13.271  13.657  14.072
 2496SOL     OW 9384   2.775  14.227   2.945
 2496SOL    HW1 9385   2.684  14.203   2.963
 2496SOL    HW2 9386   2.786  14.215   2.851
 2497SOL     OW 9387   7.740   2.053   6.005
 2497SOL    HW1 9388   7.669   2.046   5.941
 2497SOL    HW2 9389   7.731   1.975   6.060
 2498SOL     OW 9390  11.876   0.482   6.822
 2498SOL    HW1 9391  11.811   0.547   6.846
 2498SOL    HW2 9392  11.889   0.494   6.728
 2499SOL     OW 9393   2.895   8.698   8.366
 2499SOL    HW1 9394   2.898   8.664   8.276
 2499SOL    HW2 9395   2.802   8.702   8.386
 2500SOL     OW 9396  13.986   4.821   5.432
 2500SOL    HW1 9397  13.903   4.838   5.388
 2500SOL    HW2 9398  13.961   4.786   5.517
 2501SOL     OW 9399   6.464   1.297   5.256
 2501SOL    HW1 9400   6.423   1.252   5.182
 2501SOL    HW2 9401   6.551   1.256   5.264
 2502SOL     OW 9402   7.453   0.110   4.262
 2502SOL    HW1 9403   7.518   0.075   4.201
 2502SOL    HW2 9404   7.505   0.149   4.332
 2503SOL     OW 9405  13.042   5.484   3.227
 2503SOL    HW1 9406  13.091   5.567   3.224
 2503SOL    HW2 9407  12.950   5.511   3.221
 2504SOL     OW 9408   7.767   3.082   4.819
 2504SOL    HW1 9409   7.718   3.070   4.738
 2504SOL    HW2 9410   7.828   3.153   4.801
 2505SOL     OW 9411  10.797   4.071  12.701
 2505SOL    HW1 9412  10.882   4.027  12.699
 2505SOL    HW2 9413  10.818   4.162  12.723
 2506SOL     OW 9414  10.497   3.792   2.377
 2506SOL    HW1 9415  10.464   3.703   2.362
 2506SOL    HW2 9416  10.421   3.848   2.361
 2507SOL     OW 9417   8.502  12.018   5.726
 2507SOL    HW1 9418   8.424  11.986   5.681
 2507SOL    HW2 9419   8.502  11.970   5.809
 2508SOL     OW 9420  14.259  11.132   8.500
 2508SOL    HW1 9421  14.172  11.111   8.466
 2508SOL    HW2 9422  14.249  11.219   8.537
 2509SOL     OW 9423   6.649   2.132   5.025
 2509SOL    HW1 9424   6.563   2.138   4.983
 2509SOL    HW2 9425   6.640   2.059   5.087
 2510SOL     OW 9426  11.863   1.369   9.588
 2510SOL    HW1 9427  11.943   1.359   9.639
 2510SOL    HW2 9428  11.851   1.463   9.579
 2511SOL     OW 9429   6.091   4.909   7.180
 2511SOL    HW1 9430   6.134   4.855   7.115
 2511SOL    HW2 9431   6.162   4.958   7.221
 2512SOL     OW 9432   6.220   2.778   2.382
 2512SOL    HW1 9433   6.216   2.833   2.460
 2512SOL    HW2 9434   6.129   2.774   2.351
 2513SOL     OW 9435   1.002   0.009   9.362
 2513SOL    HW1 9436   1.032  14.797   9.378
 2513SOL    HW2 9437   0.907   0.005   9.378
 2514SOL     OW 9438   5.036   5.691  12.180
 2514SOL    HW1 9439   5.010   5.724  12.094
 2514SOL    HW2 9440   4.972   5.623  12.200
 2515SOL     OW 9441   6.266   2.500   7.520
 2515SOL    HW1 9442   6.226   2.447   7.589
 2515SOL    HW2 9443   6.212   2.579   7.516
 2516SOL     OW 9444  13.126   4.716   2.809
 2516SOL    HW1 9445  13.099   4.763   2.730
 2516SOL    HW2 9446  13.167   4.636   2.777
 2517SOL     OW 9447   4.765   8.608   2.269
 2517SOL    HW1 9448   4.687   8.637   2.316
 2517SOL    HW2 9449   4.794   8.530   2.315
 2518SOL     OW 9450   6.018  13.481   9.023
 2518SOL    HW1 9451   6.066  13.457   9.102
 2518SOL    HW2 9452   5.984  13.399   8.989
 2519SOL     OW 9453   4.131  10.731   0.741
 2519SOL    HW1 9454   4.098  10.806   0.691
 2519SOL    HW2 9455   4.076  10.658   0.714
 2520SOL     OW 9456   9.953  14.105   3.777
 2520SOL    HW1 9457   9.861  14.112   3.750
 2520SOL    HW2 9458   9.987  14.031   3.727
 2521SOL     OW 9459  11.894   2.024   3.596
 2521SOL    HW1 9460  11.944   2.086   3.543
 2521SOL    HW2 9461  11.961   1.974   3.643
 2522SOL     OW 9462   3.347   9.830   6.667
 2522SOL    HW1 9463   3.303   9.893   6.610
 2522SOL    HW2 9464   3.282   9.807   6.733
 2523SOL     OW 9465   7.294   9.424   0.532
 2523SOL    HW1 9466   7.277   9.514   0.506
 2523SOL    HW2 9467   7.316   9.430   0.625
 2524SOL     OW 9468  14.266   2.134  10.430
 2524SOL    HW1 9469  14.213   2.105  10.504
 2524SOL    HW2 9470  14.351   2.156  10.469
 2525SOL     OW 9471   6.124   3.834  13.279
 2525SOL    HW1 9472   6.070   3.841  13.358
 2525SOL    HW2 9473   6.064   3.857  13.207
 2526SOL     OW 9474   0.113   1.583   9.505
 2526SOL    HW1 9475   0.200   1.579   9.466
 2526SOL    HW2 9476   0.091   1.492   9.524
 2527SOL     OW 9477   9.248   4.871  11.249
 2527SOL    HW1 9478   9.213   4.787  11.279
 2527SOL    HW2 9479   9.311   4.848  11.181
 2528SOL     OW 9480  13.626   1.386   9.026
 2528SOL    HW1 9481  13.544   1.347   9.056
 2528SOL    HW2 9482  13.689   1.367   9.095
 2529SOL     OW 9483  11.664   6.756   0.654
 2529SOL    HW1 9484  11.694   6.673   0.691
 2529SOL    HW2 9485  11.594   6.731   0.593
 2530SOL     OW 9486   1.273   2.919   1.635
 2530SOL    HW1 9487   1.270   3.001   1.683
 2530SOL    HW2 9488   1.317   2.941   1.553
 2531SOL     OW 9489  10.361   7.205   8.323
 2531SOL    HW1 9490  10.403   7.254   8.394
 2531SOL    HW2 9491  10.271   7.192   8.352
 2532SOL     OW 9492  12.850  10.616   2.290
 2532SOL    HW1 9493  12.929  10.670   2.298
 2532SOL    HW2 9494  12.881  10.526   2.298
 2533SOL     OW 9495   5.149  12.543  13.939
 2533SOL    HW1 9496   5.125  12.493  13.861
 2533SOL    HW2 9497   5.162  12.477  14.007
 2534SOL     OW 9498  10.085   8.012   0.107
 2534SOL    HW1 9499  10.101   7.938   0.165
 2534SOL    HW2 9500  10.009   7.987   0.055
 2535SOL     OW 9501   5.065   8.308  12.790
 2535SOL    HW1 9502   5.047   8.275  12.878
 2535SOL    HW2 9503   5.067   8.403  12.799
 2536SOL     OW 9504   2.705   5.498   0.207
 2536SOL    HW1 9505   2.749   5.527   0.127
 2536SOL    HW2 9506   2.734   5.559   0.275
 2537SOL     OW 9507   2.929   1.386   3.644
 2537SOL    HW1 9508   2.989   1.459   3.630
 2537SOL    HW2 9509   2.973   1.310   3.604
 2538SOL     OW 9510  11.259   2.926  10.901
 2538SOL    HW1 9511  11.240   3.015  10.870
 2538SOL    HW2 9512  11.173   2.887  10.917
 2539SOL     OW 9513   1.881  13.200   5.726
 2539SOL    HW1 9514   1.976  13.205   5.716
 2539SOL    HW2 9515   1.866  13.210   5.820
 2540SOL     OW 9516   8.179  11.859  13.164
 2540SOL    HW1 9517   8.226  11.778  13.185
 2540SOL    HW2 9518   8.166  11.855  13.069
 2541SOL     OW 9519   8.646   6.099   1.783
 2541SOL    HW1 9520   8.663   6.040   1.856
 2541SOL    HW2 9521   8.710   6.169   1.793
 2542SOL     OW 9522   6.100  10.418  13.614
 2542SOL    HW1 9523   6.147  10.345  13.574
 2542SOL    HW2 9524   6.083  10.478  13.542
 2543SOL     OW 9525   2.140  10.752   0.212
 2543SOL    HW1 9526   2.153  10.843   0.240
 2543SOL    HW2 9527   2.177  10.749   0.124
 2544SOL     OW 9528   0.288   5.090   4.789
 2544SOL    HW1 9529   0.217   5.144   4.825
 2544SOL    HW2 9530   0.306   5.026   4.858
 2545SOL     OW 9531   1.126   8.971   3.152
 2545SOL    HW1 9532   1.196   9.029   3.182
 2545SOL    HW2 9533   1.086   9.018   3.080
 2546SOL     OW 9534   5.242   3.889   6.166
 2546SOL    HW1 9535   5.160   3.844   6.149
 2546SOL    HW2 9536   5.267   3.861   6.255
 2547SOL     OW 9537   8.958   3.271   7.900
 2547SOL    HW1 9538   8.961   3.358   7.859
 2547SOL    HW2 9539   8.945   3.211   7.827
 2548SOL     OW 9540  14.240   8.767  12.649
 2548SOL    HW1 9541  14.164   8.710  12.644
 2548SOL    HW2 9542  14.231   8.812  12.732
 2549SOL     OW 9543  12.790  12.069   7.792
 2549SOL    HW1 9544  12.858  12.088   7.857
 2549SOL    HW2 9545  12.824  12.103   7.710
 2550SOL     OW 9546  11.368   1.591   2.378
 2550SOL    HW1 9547  11.459   1.620   2.368
 2550SOL    HW2 9548  11.365   1.553   2.466
 2551SOL     OW 9549   4.996  12.325  13.391
 2551SOL    HW1 9550   5.030  12.384  13.324
 2551SOL    HW2 9551   4.926  12.277  13.348
 2552SOL     OW 9552   2.130   2.860   9.126
 2552SOL    HW1 9553   2.098   2.860   9.216
 2552SOL    HW2 9554   2.159   2.950   9.112
 2553SOL     OW 9555   5.367   4.289   6.744
 2553SOL    HW1 9556   5.458   4.275   6.719
 2553SOL    HW2 9557   5.324   4.205   6.728
 2554SOL     OW 9558   9.505   2.784   6.879
 2554SOL    HW1 9559   9.504   2.696   6.840
 2554SOL    HW2 9560   9.438   2.832   6.831
 2555SOL     OW 9561   9.187  10.792  14.539
 2555SOL    HW1 9562   9.116  10.829  14.486
 2555SOL    HW2 9563   9.147  10.773  14.624
 2556SOL     OW 9564   5.805  14.382  14.817
 2556SOL    HW1 9565   5.897  14.397  14.795
 2556SOL    HW2 9566   5.763  14.467  14.801
 2557SOL     OW 9567   8.434   4.659  13.445
 2557SOL    HW1 9568   8.413   4.733  13.388
 2557SOL    HW2 9569   8.349   4.629  13.478
 2558SOL     OW 9570   1.194   9.706  12.373
 2558SOL    HW1 9571   1.249   9.746  12.441
 2558SOL    HW2 9572   1.106   9.740  12.390
 2559SOL     OW 9573   9.491   4.999  12.541
 2559SOL    HW1 9574   9.524   5.033  12.624
 2559SOL    HW2 9575   9.441   5.071  12.503
 2560SOL     OW 9576   5.334   1.986   0.064
 2560SOL    HW1 9577   5.288   1.915   0.018
 2560SOL    HW2 9578   5.304   2.066   0.022
 2561SOL     OW 9579   9.998   9.566   8.606
 2561SOL    HW1 9580  10.022   9.615   8.685
 2561SOL    HW2 9581   9.969   9.633   8.544
 2562SOL     OW 9582  14.192   5.576   9.847
 2562SOL    HW1 9583  14.096   5.574   9.847
 2562SOL    HW2 9584  14.215   5.667   9.866
 2563SOL     OW 9585   7.812  12.914   8.700
 2563SOL    HW1 9586   7.720  12.925   8.725
 2563SOL    HW2 9587   7.855  12.992   8.733
 2564SOL     OW 9588   2.925   3.614   8.650
 2564SOL    HW1 9589   2.993   3.615   8.718
 2564SOL    HW2 9590   2.933   3.699   8.607
 2565SOL     OW 9591   9.982   5.213   3.810
 2565SOL    HW1 9592  10.046   5.253   3.750
 2565SOL    HW2 9593   9.952   5.135   3.764
 2566SOL     OW 9594   3.511  13.177  10.066
 2566SOL    HW1 9595   3.424  13.202  10.035
 2566SOL    HW2 9596   3.546  13.120   9.997
 2567SOL     OW 9597   2.975   6.317   9.901
 2567SOL    HW1 9598   3.054   6.287   9.856
 2567SOL    HW2 9599   2.903   6.281   9.849
 2568SOL     OW 9600   4.651   1.701  12.890
 2568SOL    HW1 9601   4.639   1.608  12.906
 2568SOL    HW2 9602   4.591   1.721  12.818
 2569SOL     OW 9603   7.539   9.233  10.928
 2569SOL    HW1 9604   7.513   9.202  11.015
 2569SOL    HW2 9605   7.539   9.155  10.873
 2570SOL     OW 9606   5.876  13.696   8.996
 2570SOL    HW1 9607   5.932  13.621   9.017
 2570SOL    HW2 9608   5.806  13.693   9.061
 2571SOL     OW 9609   5.660   3.919  13.453
 2571SOL    HW1 9610   5.581   3.958  13.491
 2571SOL    HW2 9611   5.719   3.993  13.437
 2572SOL     OW 9612   3.835  13.233   9.794
 2572SOL    HW1 9613   3.794  13.305   9.746
 2572SOL    HW2 9614   3.928  13.253   9.793
 2573SOL     OW 9615   8.693  12.018  12.732
 2573SOL    HW1 9616   8.764  12.034  12.670
 2573SOL    HW2 9617   8.674  11.925  12.723
 2574SOL     OW 9618   7.387   2.637   6.497
 2574SOL    HW1 9619   7.444   2.646   6.573
 2574SOL    HW2 9620   7.333   2.716   6.499
 2575SOL     OW 9621  11.427  12.752   1.173
 2575SOL    HW1 9622  11.440  12.661   1.197
 2575SOL    HW2 9623  11.334  12.757   1.148
 2576SOL     OW 9624  11.006   4.503  10.191
 2576SOL    HW1 9625  11.094   4.536  10.207
 2576SOL    HW2 9626  10.995   4.430  10.253
 2577SOL     OW 9627   3.403   9.209   7.682
 2577SOL    HW1 9628   3.347   9.251   7.748
 2577SOL    HW2 9629   3.444   9.136   7.728
 2578SOL     OW 9630  14.028  10.884  10.303
 2578SOL    HW1 9631  14.012  10.918  10.392
 2578SOL    HW2 9632  14.056  10.794  10.317
 2579SOL     OW 9633   7.231   9.592   9.229
 2579SOL    HW1 9634   7.294   9.655   9.265
 2579SOL    HW2 9635   7.147   9.638   9.231
 2580SOL     OW 9636   4.072  12.863   0.706
 2580SOL    HW1 9637   4.074  12.947   0.660
 2580SOL    HW2 9638   3.983  12.831   0.694
 2581SOL     OW 9639   3.560   0.871   6.421
 2581SOL    HW1 9640   3.611   0.936   6.372
 2581SOL    HW2 9641   3.609   0.789   6.410
 2582SOL     OW 9642   4.918   1.007   8.263
 2582SOL    HW1 9643   4.930   1.101   8.267
 2582SOL    HW2 9644   4.835   0.995   8.215
 2583SOL     OW 9645   3.121   7.842  10.039
 2583SOL    HW1 9646   3.095   7.905   9.972
 2583SOL    HW2 9647   3.079   7.874  10.119
 2584SOL     OW 9648   9.263   3.516  13.278
 2584SOL    HW1 9649   9.296   3.601  13.249
 2584SOL    HW2 9650   9.239   3.471  13.196
 2585SOL     OW 9651   0.942   9.076   5.504
 2585SOL    HW1 9652   0.901   9.035   5.580
 2585SOL    HW2 9653   0.874   9.074   5.436
 2586SOL     OW 9654  14.356  13.645  11.284
 2586SOL    HW1 9655  14.276  13.698  11.280
 2586SOL    HW2 9656  14.420  13.702  11.327
 2587SOL     OW 9657   5.674   2.924   2.398
 2587SOL    HW1 9658   5.765   2.954   2.409
 2587SOL    HW2 9659   5.632   2.947   2.481
 2588SOL     OW 9660   9.913   7.751  12.911
 2588SOL    HW1 9661   9.823   7.779  12.892
 2588SOL    HW2 9662   9.945   7.714  12.829
 2589SOL     OW 9663   1.486   4.793   3.427
 2589SOL    HW1 9664   1.419   4.835   3.481
 2589SOL    HW2 9665   1.541   4.745   3.490
 2590SOL     OW 9666  11.714   3.716   1.950
 2590SOL    HW1 9667  11.740   3.686   1.862
 2590SOL    HW2 9668  11.723   3.638   2.005
 2591SOL     OW 9669   1.443   3.167  11.204
 2591SOL    HW1 9670   1.409   3.207  11.284
 2591SOL    HW2 9671   1.380   3.191  11.137
 2592SOL     OW 9672  13.147   4.335  13.832
 2592SOL    HW1 9673  13.134   4.245  13.861
 2592SOL    HW2 9674  13.241   4.343  13.818
 2593SOL     OW 9675   1.973   5.315   2.604
 2593SOL    HW1 9676   1.878   5.328   2.613
 2593SOL    HW2 9677   2.002   5.287   2.690
 2594SOL     OW 9678   3.346   6.260   6.206
 2594SOL    HW1 9679   3.396   6.337   6.233
 2594SOL    HW2 9680   3.343   6.265   6.111
 2595SOL     OW 9681  10.228   5.899   2.036
 2595SOL    HW1 9682  10.212   5.962   2.106
 2595SOL    HW2 9683  10.181   5.820   2.064
 2596SOL     OW 9684   7.529   0.892  12.708
 2596SOL    HW1 9685   7.555   0.950  12.779
 2596SOL    HW2 9686   7.601   0.830  12.698
 2597SOL     OW 9687  11.938  12.314   7.531
 2597SOL    HW1 9688  11.888  12.393   7.550
 2597SOL    HW2 9689  11.933  12.263   7.612
 2598SOL     OW 9690  10.444  12.436   4.207
 2598SOL    HW1 9691  10.382  12.506   4.227
 2598SOL    HW2 9692  10.522  12.481   4.175
 2599SOL     OW 9693  11.308   6.824  13.874
 2599SOL    HW1 9694  11.252   6.888  13.918
 2599SOL    HW2 9695  11.280   6.739  13.909
 2600SOL     OW 9696   3.791   3.101   9.196
 2600SOL    HW1 9697   3.780   3.021   9.144
 2600SOL    HW2 9698   3.845   3.158   9.142
 2601SOL     OW 9699   3.941  11.829   1.760
 2601SOL    HW1 9700   4.031  11.850   1.735
 2601SOL    HW2 9701   3.926  11.881   1.839
 2602SOL     OW 9702   9.629   4.735  12.062
 2602SOL    HW1 9703   9.706   4.759  12.114
 2602SOL    HW2 9704   9.557   4.731  12.126
 2603SOL     OW 9705  13.952   9.971   1.139
 2603SOL    HW1 9706  13.993  10.053   1.111
 2603SOL    HW2 9707  13.894   9.947   1.066
 2604SOL     OW 9708   7.413  13.409   5.338
 2604SOL    HW1 9709   7.413  13.492   5.386
 2604SOL    HW2 9710   7.481  13.357   5.381
 2605SOL     OW 9711  11.380   7.546   3.449
 2605SOL    HW1 9712  11.394   7.460   3.490
 2605SOL    HW2 9713  11.404   7.609   3.517
 2606SOL     OW 9714   4.934   6.225  13.824
 2606SOL    HW1 9715   4.885   6.170  13.886
 2606SOL    HW2 9716   5.021   6.231  13.861
 2607SOL     OW 9717   1.685   8.472   8.354
 2607SOL    HW1 9718   1.704   8.550   8.407
 2607SOL    HW2 9719   1.591   8.476   8.337
 2608SOL     OW 9720  10.100  10.138   5.752
 2608SOL    HW1 9721  10.049  10.202   5.703
 2608SOL    HW2 9722  10.053  10.056   5.741
 2609SOL     OW 9723   7.365   4.540  14.160
 2609SOL    HW1 9724   7.439   4.489  14.194
 2609SOL    HW2 9725   7.291   4.480  14.163
 2610SOL     OW 9726   9.353  11.399   4.832
 2610SOL    HW1 9727   9.438  11.412   4.790
 2610SOL    HW2 9728   9.314  11.325   4.785
 2611SOL     OW 9729   9.391   9.363   7.921
 2611SOL    HW1 9730   9.306   9.386   7.884
 2611SOL    HW2 9731   9.370   9.318   8.003
 2612SOL     OW 9732  12.643   5.943  10.907
 2612SOL    HW1 9733  12.666   6.012  10.844
 2612SOL    HW2 9734  12.694   5.867  10.878
 2613SOL     OW 9735   3.052   6.108   7.609
 2613SOL    HW1 9736   3.058   6.018   7.579
 2613SOL    HW2 9737   3.077   6.104   7.702
 2614SOL     OW 9738  13.574   3.827  13.418
 2614SOL    HW1 9739  13.553   3.913  13.383
 2614SOL    HW2 9740  13.516   3.816  13.493
 2615SOL     OW 9741   0.624   0.962   1.534
 2615SOL    HW1 9742   0.560   0.986   1.468
 2615SOL    HW2 9743   0.573   0.944   1.612
 2616SOL     OW 9744  10.429  10.413   1.351
 2616SOL    HW1 9745  10.372  10.398   1.427
 2616SOL    HW2 9746  10.458  10.504   1.361
 2617SOL     OW 9747   9.066   7.316   1.897
 2617SOL    HW1 9748   9.149   7.279   1.867
 2617SOL    HW2 9749   9.085   7.408   1.914
 2618SOL     OW 9750   1.226   0.071  14.867
 2618SOL    HW1 9751   1.240  14.863  14.827
 2618SOL    HW2 9752   1.312   0.113  14.864
 2619SOL     OW 9753   1.978   0.303   6.758
 2619SOL    HW1 9754   1.991   0.253   6.838
 2619SOL    HW2 9755   2.058   0.290   6.708
 2620SOL     OW 9756  10.376   8.710   8.482
 2620SOL    HW1 9757  10.376   8.763   8.562
 2620SOL    HW2 9758  10.301   8.652   8.492
 2621SOL     OW 9759   3.806  10.879   6.086
 2621SOL    HW1 9760   3.808  10.821   6.010
 2621SOL    HW2 9761   3.715  10.907   6.093
 2622SOL     OW 9762  10.738   7.797  13.560
 2622SOL    HW1 9763  10.663   7.809  13.618
 2622SOL    HW2 9764  10.730   7.706  13.530
 2623SOL     OW 9765   9.883  13.024   5.585
 2623SOL    HW1 9766   9.883  12.932   5.560
 2623SOL    HW2 9767   9.807  13.061   5.540
 2624SOL     OW 9768   0.205   8.744   5.341
 2624SOL    HW1 9769   0.169   8.832   5.329
 2624SOL    HW2 9770   0.230   8.717   5.253
 2625SOL     OW 9771  12.587  11.862   7.031
 2625SOL    HW1 9772  12.641  11.783   7.030
 2625SOL    HW2 9773  12.542  11.862   6.946
 2626SOL     OW 9774  11.803   5.430  13.764
 2626SOL    HW1 9775  11.793   5.335  13.756
 2626SOL    HW2 9776  11.752   5.454  13.841
 2627SOL     OW 9777   6.745   8.053  10.896
 2627SOL    HW1 9778   6.696   8.133  10.916
 2627SOL    HW2 9779   6.805   8.043  10.970
 2628SOL     OW 9780   1.341  12.474  10.019
 2628SOL    HW1 9781   1.312  12.385  10.001
 2628SOL    HW2 9782   1.421  12.463  10.070
 2629SOL     OW 9783   9.730   2.937   1.770
 2629SOL    HW1 9784   9.664   2.955   1.703
 2629SOL    HW2 9785   9.797   3.004   1.756
 2630SOL     OW 9786   0.067   3.527   3.795
 2630SOL    HW1 9787   0.116   3.582   3.734
 2630SOL    HW2 9788   0.084   3.565   3.881
 2631SOL     OW 9789   2.934  11.559  11.169
 2631SOL    HW1 9790   2.922  11.464  11.161
 2631SOL    HW2 9791   2.848  11.591  11.196
 2632SOL     OW 9792   9.514   4.141  10.430
 2632SOL    HW1 9793   9.528   4.064  10.485
 2632SOL    HW2 9794   9.565   4.124  10.351
 2633SOL     OW 9795  10.337  11.453   6.074
 2633SOL    HW1 9796  10.363  11.533   6.119
 2633SOL    HW2 9797  10.378  11.459   5.988
 2634SOL     OW 9798   0.878   6.457   2.555
 2634SOL    HW1 9799   0.920   6.474   2.471
 2634SOL    HW2 9800   0.865   6.544   2.593
 2635SOL     OW 9801   4.755  14.704   7.706
 2635SOL    HW1 9802   4.846  14.691   7.680
 2635SOL    HW2 9803   4.706  14.643   7.652
 2636SOL     OW 9804  10.720  12.640   9.699
 2636SOL    HW1 9805  10.809  12.623   9.732
 2636SOL    HW2 9806  10.726  12.621   9.605
 2637SOL     OW 9807   2.981  14.465  11.973
 2637SOL    HW1 9808   3.060  14.470  12.027
 2637SOL    HW2 9809   2.965  14.371  11.963
 2638SOL     OW 9810   2.705  11.787   2.008
 2638SOL    HW1 9811   2.678  11.700   1.980
 2638SOL    HW2 9812   2.797  11.777   2.034
 2639SOL     OW 9813   6.447   2.953  11.360
 2639SOL    HW1 9814   6.523   3.008  11.339
 2639SOL    HW2 9815   6.484   2.880  11.410
 2640SOL     OW 9816   8.484  13.724  13.390
 2640SOL    HW1 9817   8.453  13.814  13.382
 2640SOL    HW2 9818   8.448  13.679  13.314
 2641SOL     OW 9819   7.039   1.053  11.483
 2641SOL    HW1 9820   7.115   1.111  11.487
 2641SOL    HW2 9821   7.076   0.965  11.496
 2642SOL     OW 9822  11.301  14.809   5.421
 2642SOL    HW1 9823  11.388  14.799   5.381
 2642SOL    HW2 9824  11.320  14.839   5.510
 2643SOL     OW 9825   7.007   4.290   3.050
 2643SOL    HW1 9826   7.005   4.274   2.955
 2643SOL    HW2 9827   6.936   4.237   3.085
 2644SOL     OW 9828   7.984   5.142  11.723
 2644SOL    HW1 9829   7.998   5.237  11.725
 2644SOL    HW2 9830   8.066   5.107  11.688
 2645SOL     OW 9831   6.929   3.596   5.750
 2645SOL    HW1 9832   6.958   3.561   5.835
 2645SOL    HW2 9833   6.870   3.668   5.773
 2646SOL     OW 9834   3.069   3.483   5.949
 2646SOL    HW1 9835   3.112   3.550   5.896
 2646SOL    HW2 9836   3.056   3.525   6.034
 2647SOL     OW 9837   5.268   0.697   4.386
 2647SOL    HW1 9838   5.275   0.772   4.444
 2647SOL    HW2 9839   5.208   0.725   4.317
 2648SOL     OW 9840  12.664   4.269  11.778
 2648SOL    HW1 9841  12.640   4.341  11.719
 2648SOL    HW2 9842  12.583   4.219  11.789
 2649SOL     OW 9843   8.591   6.346  12.331
 2649SOL    HW1 9844   8.581   6.306  12.418
 2649SOL    HW2 9845   8.645   6.423  12.347
 2650SOL     OW 9846   1.054  14.108  11.831
 2650SOL    HW1 9847   0.982  14.160  11.795
 2650SOL    HW2 9848   1.017  14.068  11.910
 2651SOL     OW 9849   2.732   5.997  10.878
 2651SOL    HW1 9850   2.766   6.034  10.796
 2651SOL    HW2 9851   2.807   5.953  10.918
 2652SOL     OW 9852   8.451   8.149   8.663
 2652SOL    HW1 9853   8.425   8.057   8.667
 2652SOL    HW2 9854   8.546   8.148   8.677
 2653SOL     OW 9855   1.018  13.988  10.363
 2653SOL    HW1 9856   1.104  13.952  10.381
 2653SOL    HW2 9857   1.033  14.081  10.350
 2654SOL     OW 9858   8.286  11.077   7.544
 2654SOL    HW1 9859   8.318  11.165   7.562
 2654SOL    HW2 9860   8.261  11.079   7.452
 2655SOL     OW 9861  11.494   9.165   2.372
 2655SOL    HW1 9862  11.556   9.096   2.397
 2655SOL    HW2 9863  11.540   9.214   2.304
 2656SOL     OW 9864  10.731   1.304   1.981
 2656SOL    HW1 9865  10.676   1.249   2.037
 2656SOL    HW2 9866  10.820   1.286   2.011
 2657SOL     OW 9867   7.068   0.380   4.472
 2657SOL    HW1 9868   7.058   0.436   4.395
 2657SOL    HW2 9869   6.978   0.364   4.502
 2658SOL     OW 9870   3.563   1.773   4.463
 2658SOL    HW1 9871   3.474   1.786   4.429
 2658SOL    HW2 9872   3.619   1.819   4.401
 2659SOL     OW 9873   5.327   6.043  12.971
 2659SOL    HW1 9874   5.418   6.067  12.990
 2659SOL    HW2 9875   5.295   6.003  13.052
 2660SOL     OW 9876  14.047   3.676   5.347
 2660SOL    HW1 9877  13.970   3.628   5.380
 2660SOL    HW2 9878  14.047   3.657   5.253
 2661SOL     OW 9879   5.899  12.671   6.152
 2661SOL    HW1 9880   5.934  12.758   6.131
 2661SOL    HW2 9881   5.949  12.611   6.097
 2662SOL     OW 9882   9.034   5.968   3.562
 2662SOL    HW1 9883   8.998   6.045   3.605
 2662SOL    HW2 9884   9.121   5.958   3.601
 2663SOL     OW 9885  13.108   8.232  13.984
 2663SOL    HW1 9886  13.119   8.307  14.043
 2663SOL    HW2 9887  13.181   8.239  13.922
 2664SOL     OW 9888   3.770   7.845   2.483
 2664SOL    HW1 9889   3.720   7.826   2.563
 2664SOL    HW2 9890   3.789   7.759   2.446
 2665SOL     OW 9891   5.302   1.973   4.398
 2665SOL    HW1 9892   5.281   1.907   4.465
 2665SOL    HW2 9893   5.362   1.928   4.339
 2666SOL     OW 9894  10.223   0.306   1.070
 2666SOL    HW1 9895  10.156   0.292   1.004
 2666SOL    HW2 9896  10.232   0.401   1.076
 2667SOL     OW 9897   0.854  10.311  10.268
 2667SOL    HW1 9898   0.829  10.402  10.284
 2667SOL    HW2 9899   0.836  10.266  10.350
 2668SOL     OW 9900  13.435   5.689   6.528
 2668SOL    HW1 9901  13.396   5.718   6.446
 2668SOL    HW2 9902  13.360   5.679   6.587
 2669SOL     OW 9903   0.858   0.485  11.805
 2669SOL    HW1 9904   0.905   0.409  11.839
 2669SOL    HW2 9905   0.767   0.457  11.802
 2670SOL     OW 9906   0.073   8.021   3.174
 2670SOL    HW1 9907   0.158   8.049   3.208
 2670SOL    HW2 9908   0.095   7.952   3.110
 2671SOL     OW 9909   6.722   6.819   2.503
 2671SOL    HW1 9910   6.771   6.812   2.585
 2671SOL    HW2 9911   6.659   6.890   2.519
 2672SOL     OW 9912  10.651  13.988   4.524
 2672SOL    HW1 9913  10.618  13.977   4.613
 2672SOL    HW2 9914  10.622  14.076   4.498
 2673SOL     OW 9915   3.332   7.284   7.626
 2673SOL    HW1 9916   3.245   7.324   7.631
 2673SOL    HW2 9917   3.317   7.198   7.586
 2674SOL     OW 9918   6.216   7.683   9.910
 2674SOL    HW1 9919   6.296   7.728   9.885
 2674SOL    HW2 9920   6.244   7.596   9.937
 2675SOL     OW 9921   1.647   4.014   7.988
 2675SOL    HW1 9922   1.648   3.971   7.902
 2675SOL    HW2 9923   1.674   3.946   8.049
 2676SOL     OW 9924  11.060   3.596   1.956
 2676SOL    HW1 9925  11.091   3.683   1.932
 2676SOL    HW2 9926  10.993   3.611   2.022
 2677SOL     OW 9927   1.126   0.065   4.523
 2677SOL    HW1 9928   1.159  14.861   4.484
 2677SOL    HW2 9929   1.040   0.078   4.483
 2678SOL     OW 9930  13.459  10.926   8.908
 2678SOL    HW1 9931  13.521  10.864   8.946
 2678SOL    HW2 9932  13.461  11.002   8.966
 2679SOL     OW 9933  11.829  13.542   7.144
 2679SOL    HW1 9934  11.919  13.572   7.133
 2679SOL    HW2 9935  11.790  13.605   7.204
 2680SOL     OW 9936   9.035   5.566   3.723
 2680SOL    HW1 9937   9.036   5.497   3.790
 2680SOL    HW2 9938   9.019   5.647   3.773
 2681SOL     OW 9939   3.576   9.571   6.336
 2681SOL    HW1 9940   3.573   9.568   6.240
 2681SOL    HW2 9941   3.486   9.590   6.362
 2682SOL     OW 9942   5.670   2.869   5.662
 2682SOL    HW1 9943   5.743   2.924   5.635
 2682SOL    HW2 9944   5.610   2.871   5.587
 2683SOL     OW 9945   3.559   7.694   9.079
 2683SOL    HW1 9946   3.553   7.706   8.984
 2683SOL    HW2 9947   3.618   7.620   9.091
 2684SOL     OW 9948   2.455   4.400   3.421
 2684SOL    HW1 9949   2.446   4.464   3.350
 2684SOL    HW2 9950   2.522   4.339   3.390
 2685SOL     OW 9951  13.084  11.866   8.125
 2685SOL    HW1 9952  13.103  11.878   8.218
 2685SOL    HW2 9953  13.057  11.775   8.117
 2686SOL     OW 9954  10.330   9.845   4.905
 2686SOL    HW1 9955  10.373   9.761   4.887
 2686SOL    HW2 9956  10.247   9.821   4.945
 2687SOL     OW 9957   6.945   8.892  10.096
 2687SOL    HW1 9958   6.943   8.825  10.165
 2687SOL    HW2 9959   7.033   8.929  10.101
 2688SOL     OW 9960   4.175  14.032   2.529
 2688SOL    HW1 9961   4.167  13.971   2.603
 2688SOL    HW2 9962   4.086  14.065   2.516
 2689SOL     OW 9963  10.728   0.386  13.539
 2689SOL    HW1 9964  10.765   0.433  13.464
 2689SOL    HW2 9965  10.801   0.377  13.600
 2690SOL     OW 9966   2.761  12.571   7.451
 2690SOL    HW1 9967   2.766  12.659   7.414
 2690SOL    HW2 9968   2.711  12.582   7.532
 2691SOL     OW 9969   2.572   0.643  14.651
 2691SOL    HW1 9970   2.494   0.628  14.598
 2691SOL    HW2 9971   2.628   0.568  14.634
 2692SOL     OW 9972  11.383   8.028   6.434
 2692SOL    HW1 9973  11.429   8.012   6.516
 2692SOL    HW2 9974  11.293   8.000   6.452
 2693SOL     OW 9975   4.226   6.182  11.869
 2693SOL    HW1 9976   4.287   6.255  11.878
 2693SOL    HW2 9977   4.282   6.105  11.856
 2694SOL     OW 9978   0.494   4.982   3.822
 2694SOL    HW1 9979   0.576   5.015   3.785
 2694SOL    HW2 9980   0.479   5.035   3.900
 2695SOL     OW 9981   9.316   3.350  10.039
 2695SOL    HW1 9982   9.296   3.402   9.962
 2695SOL    HW2 9983   9.404   3.315  10.023
 2696SOL     OW 9984  14.074   4.124  11.714
 2696SOL    HW1 9985  14.134   4.089  11.648
 2696SOL    HW2 9986  14.024   4.048  11.744
 2697SOL     OW 9987   2.221   3.544  12.828
 2697SOL    HW1 9988   2.259   3.574  12.911
 2697SOL    HW2 9989   2.221   3.448  12.835
 2698SOL     OW 9990   2.904   3.624   4.410
 2698SOL    HW1 9991   2.935   3.645   4.498
 2698SOL    HW2 9992   2.983   3.618   4.357
 2699SOL     OW 9993   6.532   5.962   1.857
 2699SOL    HW1 9994   6.523   5.962   1.761
 2699SOL    HW2 9995   6.449   5.998   1.888
 2700SOL     OW 9996  11.238  10.264   1.908
 2700SOL    HW1 9997  11.231  10.175   1.941
 2700SOL    HW2 9998  11.147  10.289   1.887
 2701SOL     OW 9999   8.400   0.856   5.089
 2701SOL    HW110000   8.335   0.819   5.029
 2701SOL    HW210001   8.435   0.932   5.042
 2702SOL     OW10002  13.213   1.882   5.962
 2702SOL    HW110003  13.177   1.824   5.895
 2702SOL    HW210004  13.184   1.844   6.045
 2703SOL     OW10005   2.527  13.240   3.734
 2703SOL    HW110006   2.574  13.203   3.659
 2703SOL    HW210007   2.517  13.166   3.794
 2704SOL     OW10008  14.702  12.893  11.534
 2704SOL    HW110009  14.657  12.909  11.452
 2704SOL    HW210010  14.635  12.860  11.593
 2705SOL     OW10011  11.577   1.003  12.801
 2705SOL    HW110012  11.624   1.039  12.727
 2705SOL    HW210013  11.611   0.914  12.811
 2706SOL     OW10014   9.534   3.022  11.093
 2706SOL    HW110015   9.492   2.944  11.129
 2706SOL    HW210016   9.614   3.032  11.145
 2707SOL     OW10017  13.181   5.182   4.737
 2707SOL    HW110018  13.165   5.192   4.643
 2707SOL    HW210019  13.152   5.265   4.775
 2708SOL     OW10020   1.944   7.326   9.980
 2708SOL    HW110021   1.892   7.247   9.998
 2708SOL    HW210022   1.974   7.315   9.890
 2709SOL     OW10023   8.395   7.118   6.117
 2709SOL    HW110024   8.399   7.066   6.036
 2709SOL    HW210025   8.398   7.052   6.187
 2710SOL     OW10026   9.450   2.029   7.186
 2710SOL    HW110027   9.486   2.023   7.275
 2710SOL    HW210028   9.377   1.967   7.187
 2711SOL     OW10029  10.587  11.363  11.875
 2711SOL    HW110030  10.585  11.309  11.796
 2711SOL    HW210031  10.680  11.381  11.889
 2712SOL     OW10032   6.156   4.583   8.982
 2712SOL    HW110033   6.163   4.505   8.927
 2712SOL    HW210034   6.246   4.603   9.007
 2713SOL     OW10035  14.375   8.427   6.879
 2713SOL    HW110036  14.414   8.443   6.965
 2713SOL    HW210037  14.441   8.458   6.817
 2714SOL     OW10038   6.095   4.913  14.042
 2714SOL    HW110039   6.188   4.935  14.032
 2714SOL    HW210040   6.095   4.822  14.073
 2715SOL     OW10041   4.716   5.170   2.451
 2715SOL    HW110042   4.646   5.213   2.499
 2715SOL    HW210043   4.673   5.099   2.404
 2716SOL     OW10044  12.359  13.743   7.112
 2716SOL    HW110045  12.320  13.674   7.059
 2716SOL    HW210046  12.285  13.796   7.141
 2717SOL     OW10047   5.759   6.598  10.813
 2717SOL    HW110048   5.791   6.516  10.776
 2717SOL    HW210049   5.832   6.630  10.867
 2718SOL     OW10050   3.993   0.965   0.721
 2718SOL    HW110051   3.912   0.998   0.760
 2718SOL    HW210052   4.062   0.997   0.779
 2719SOL     OW10053  11.854   2.819   0.911
 2719SOL    HW110054  11.905   2.895   0.941
 2719SOL    HW210055  11.897   2.791   0.830
 2720SOL     OW10056   6.005   0.797   3.514
 2720SOL    HW110057   6.071   0.738   3.479
 2720SOL    HW210058   6.013   0.876   3.461
 2721SOL     OW10059   9.978   1.513  11.926
 2721SOL    HW110060   9.986   1.420  11.945
 2721SOL    HW210061  10.067   1.543  11.910
 2722SOL     OW10062   0.468   5.210  12.975
 2722SOL    HW110063   0.514   5.189  13.056
 2722SOL    HW210064   0.519   5.281  12.937
 2723SOL     OW10065  11.651  10.653   8.186
 2723SOL    HW110066  11.736  10.613   8.166
 2723SOL    HW210067  11.588  10.602   8.134
 2724SOL     OW10068   2.757   4.607   9.995
 2724SOL    HW110069   2.684   4.668  10.005
 2724SOL    HW210070   2.745   4.544  10.066
 2725SOL     OW10071  13.963   6.220  12.555
 2725SOL    HW110072  13.886   6.273  12.537
 2725SOL    HW210073  13.938   6.131  12.530
 2726SOL     OW10074  10.101   7.876  13.547
 2726SOL    HW110075  10.153   7.865  13.468
 2726SOL    HW210076  10.126   7.961  13.581
 2727SOL     OW10077  10.787   0.330   6.503
 2727SOL    HW110078  10.877   0.299   6.492
 2727SOL    HW210079  10.778   0.343   6.598
 2728SOL     OW10080   5.585  12.924   8.289
 2728SOL    HW110081   5.648  12.941   8.359
 2728SOL    HW210082   5.507  12.891   8.334
 2729SOL     OW10083   8.065   4.956  13.575
 2729SOL    HW110084   8.002   5.024  13.601
 2729SOL    HW210085   8.033   4.877  13.617
 2730SOL     OW10086  10.148   1.182   3.471
 2730SOL    HW110087  10.095   1.110   3.504
 2730SOL    HW210088  10.104   1.261   3.502
 2731SOL     OW10089   3.986   3.485   6.454
 2731SOL    HW110090   3.908   3.454   6.501
 2731SOL    HW210091   4.031   3.541   6.518
 2732SOL     OW10092   9.235  11.427  13.141
 2732SOL    HW110093   9.176  11.422  13.066
 2732SOL    HW210094   9.318  11.394  13.108
 2733SOL     OW10095   5.613  11.307   8.293
 2733SOL    HW110096   5.597  11.224   8.338
 2733SOL    HW210097   5.591  11.290   8.201
 2734SOL     OW10098   2.800   3.218   0.121
 2734SOL    HW110099   2.875   3.171   0.085
 2734SOL    HW210100   2.819   3.226   0.215
 2735SOL     OW10101  10.770   2.594  12.719
 2735SOL    HW110102  10.831   2.545  12.773
 2735SOL    HW210103  10.755   2.538  12.643
 2736SOL     OW10104   3.047   5.091  10.579
 2736SOL    HW110105   3.064   5.030  10.651
 2736SOL    HW210106   2.970   5.055  10.535
 2737SOL     OW10107  13.306   2.393   0.836
 2737SOL    HW110108  13.341   2.344   0.910
 2737SOL    HW210109  13.220   2.353   0.820
 2738SOL     OW10110   7.407   2.572   1.459
 2738SOL    HW110111   7.374   2.576   1.370
 2738SOL    HW210112   7.406   2.662   1.490
 2739SOL     OW10113  11.950   3.253   6.128
 2739SOL    HW110114  11.877   3.311   6.107
 2739SOL    HW210115  12.027   3.297   6.092
 2740SOL     OW10116   4.889   5.759   2.940
 2740SOL    HW110117   4.816   5.779   2.881
 2740SOL    HW210118   4.902   5.665   2.931
 2741SOL     OW10119   6.636   5.942   3.196
 2741SOL    HW110120   6.625   5.864   3.251
 2741SOL    HW210121   6.550   5.955   3.156
 2742SOL     OW10122   8.386   1.206   2.621
 2742SOL    HW110123   8.470   1.167   2.596
 2742SOL    HW210124   8.336   1.210   2.539
 2743SOL     OW10125   6.026  10.630   8.474
 2743SOL    HW110126   6.071  10.640   8.390
 2743SOL    HW210127   5.938  10.601   8.451
 2744SOL     OW10128   2.437   5.151  10.098
 2744SOL    HW110129   2.455   5.226  10.155
 2744SOL    HW210130   2.387   5.091  10.153
 2745SOL     OW10131   0.356  12.020  14.302
 2745SOL    HW110132   0.347  11.976  14.387
 2745SOL    HW210133   0.447  12.004  14.276
 2746SOL     OW10134   6.440   6.178   8.923
 2746SOL    HW110135   6.380   6.182   8.848
 2746SOL    HW210136   6.483   6.264   8.924
 2747SOL     OW10137   5.047   4.713   2.854
 2747SOL    HW110138   5.027   4.718   2.947
 2747SOL    HW210139   4.971   4.751   2.811
 2748SOL     OW10140   4.558   7.211   4.367
 2748SOL    HW110141   4.649   7.239   4.373
 2748SOL    HW210142   4.525   7.257   4.290
 2749SOL     OW10143   8.035  11.596   2.848
 2749SOL    HW110144   8.114  11.546   2.827
 2749SOL    HW210145   8.052  11.683   2.813
 2750SOL     OW10146  14.480   4.389   0.957
 2750SOL    HW110147  14.413   4.330   0.993
 2750SOL    HW210148  14.499   4.450   1.028
 2751SOL     OW10149  11.864   6.865  10.727
 2751SOL    HW110150  11.769   6.852  10.725
 2751SOL    HW210151  11.875   6.957  10.754
 2752SOL     OW10152   2.433  11.797   6.400
 2752SOL    HW110153   2.407  11.774   6.489
 2752SOL    HW210154   2.510  11.743   6.383
 2753SOL     OW10155   0.457  10.216   9.182
 2753SOL    HW110156   0.461  10.154   9.109
 2753SOL    HW210157   0.443  10.161   9.259
 2754SOL     OW10158   7.336  11.409  13.399
 2754SOL    HW110159   7.370  11.476  13.340
 2754SOL    HW210160   7.308  11.338  13.342
 2755SOL     OW10161   0.079  13.844   8.749
 2755SOL    HW110162   0.022  13.773   8.778
 2755SOL    HW210163   0.031  13.924   8.772
 2756SOL     OW10164  14.211   7.963   9.928
 2756SOL    HW110165  14.143   7.924   9.873
 2756SOL    HW210166  14.198   8.057   9.921
 2757SOL     OW10167   2.780  13.917   3.493
 2757SOL    HW110168   2.712  13.978   3.463
 2757SOL    HW210169   2.844  13.916   3.422
 2758SOL     OW10170  14.720   9.507  12.098
 2758SOL    HW110171  14.729   9.420  12.060
 2758SOL    HW210172  14.672   9.557  12.032
 2759SOL     OW10173   2.421   2.009  12.063
 2759SOL    HW110174   2.339   2.059  12.061
 2759SOL    HW210175   2.455   2.015  11.974
 2760SOL     OW10176   8.448   0.512   3.556
 2760SOL    HW110177   8.418   0.514   3.647
 2760SOL    HW210178   8.416   0.594   3.518
 2761SOL     OW10179   7.613   7.189   6.147
 2761SOL    HW110180   7.541   7.248   6.165
 2761SOL    HW210181   7.583   7.103   6.178
 2762SOL     OW10182  13.560  13.493  11.511
 2762SOL    HW110183  13.634  13.451  11.555
 2762SOL    HW210184  13.596  13.574  11.475
 2763SOL     OW10185  11.627   4.581   5.991
 2763SOL    HW110186  11.668   4.501   6.022
 2763SOL    HW210187  11.630   4.574   5.896
 2764SOL     OW10188   1.147   9.353  14.667
 2764SOL    HW110189   1.073   9.292  14.678
 2764SOL    HW210190   1.155   9.397  14.751
 2765SOL     OW10191   3.579   5.071   9.029
 2765SOL    HW110192   3.578   5.064   8.934
 2765SOL    HW210193   3.588   5.164   9.047
 2766SOL     OW10194   9.079   5.347  13.909
 2766SOL    HW110195   9.129   5.286  13.964
 2766SOL    HW210196   9.114   5.433  13.931
 2767SOL     OW10197   6.462   2.228  14.075
 2767SOL    HW110198   6.457   2.256  13.984
 2767SOL    HW210199   6.436   2.306  14.125
 2768SOL     OW10200  12.792  12.815   2.232
 2768SOL    HW110201  12.806  12.836   2.325
 2768SOL    HW210202  12.878  12.786   2.202
 2769SOL     OW10203   0.166   9.629   4.812
 2769SOL    HW110204   0.136   9.684   4.885
 2769SOL    HW210205   0.094   9.631   4.749
 2770SOL     OW10206   2.955   8.598  14.338
 2770SOL    HW110207   3.046   8.612  14.312
 2770SOL    HW210208   2.905   8.652  14.277
 2771SOL     OW10209   5.978   7.885   7.124
 2771SOL    HW110210   6.047   7.928   7.175
 2771SOL    HW210211   6.024   7.821   7.070
 2772SOL     OW10212   7.326   5.213   6.509
 2772SOL    HW110213   7.344   5.140   6.569
 2772SOL    HW210214   7.408   5.225   6.460
 2773SOL     OW10215   7.712   8.844   1.009
 2773SOL    HW110216   7.623   8.815   0.988
 2773SOL    HW210217   7.763   8.825   0.930
 2774SOL     OW10218  11.202  12.576   6.639
 2774SOL    HW110219  11.204  12.668   6.663
 2774SOL    HW210220  11.197  12.576   6.544
 2775SOL     OW10221  10.426  10.573   8.976
 2775SOL    HW110222  10.519  10.589   8.961
 2775SOL    HW210223  10.405  10.626   9.054
 2776SOL     OW10224  13.147   4.976   4.122
 2776SOL    HW110225  13.235   5.008   4.144
 2776SOL    HW210226  13.155   4.946   4.031
 2777SOL     OW10227   0.452   1.358  11.675
 2777SOL    HW110228   0.535   1.377  11.719
 2777SOL    HW210229   0.385   1.387  11.737
 2778SOL     OW10230   3.397  12.361   7.322
 2778SOL    HW110231   3.377  12.433   7.382
 2778SOL    HW210232   3.484  12.381   7.289
 2779SOL     OW10233  10.999   5.058  11.663
 2779SOL    HW110234  11.012   5.119  11.736
 2779SOL    HW210235  11.020   5.109  11.585
 2780SOL     OW10236   5.222   4.754   5.334
 2780SOL    HW110237   5.259   4.835   5.368
 2780SOL    HW210238   5.137   4.781   5.296
 2781SOL     OW10239  10.767   5.750   1.358
 2781SOL    HW110240  10.713   5.714   1.288
 2781SOL    HW210241  10.704   5.782   1.423
 2782SOL     OW10242  14.368   9.971   6.554
 2782SOL    HW110243  14.437  10.034   6.576
 2782SOL    HW210244  14.292  10.026   6.535
 2783SOL     OW10245   6.327   2.027   5.828
 2783SOL    HW110246   6.354   1.942   5.861
 2783SOL    HW210247   6.399   2.054   5.770
 2784SOL     OW10248  13.932   3.258   0.998
 2784SOL    HW110249  14.006   3.318   0.991
 2784SOL    HW210250  13.861   3.300   0.950
 2785SOL     OW10251   9.125   1.233   3.007
 2785SOL    HW110252   9.134   1.209   3.100
 2785SOL    HW210253   9.208   1.207   2.968
 2786SOL     OW10254   0.737   7.896   1.880
 2786SOL    HW110255   0.653   7.861   1.854
 2786SOL    HW210256   0.728   7.914   1.974
 2787SOL     OW10257   4.637   5.990   5.081
 2787SOL    HW110258   4.614   6.082   5.093
 2787SOL    HW210259   4.690   5.968   5.157
 2788SOL     OW10260   6.904   7.718   2.206
 2788SOL    HW110261   6.848   7.720   2.283
 2788SOL    HW210262   6.914   7.625   2.185
 2789SOL     OW10263   4.701  10.550   1.550
 2789SOL    HW110264   4.618  10.595   1.566
 2789SOL    HW210265   4.717  10.500   1.631
 2790SOL     OW10266   3.464   3.750  12.670
 2790SOL    HW110267   3.518   3.762  12.748
 2790SOL    HW210268   3.409   3.675  12.691
 2791SOL     OW10269   2.290   5.151   6.071
 2791SOL    HW110270   2.370   5.192   6.039
 2791SOL    HW210271   2.277   5.188   6.159
 2792SOL     OW10272  12.581  12.437   5.020
 2792SOL    HW110273  12.613  12.520   4.983
 2792SOL    HW210274  12.518  12.405   4.955
 2793SOL     OW10275  12.860   7.540   4.601
 2793SOL    HW110276  12.844   7.634   4.594
 2793SOL    HW210277  12.937   7.533   4.658
 2794SOL     OW10278   7.934   2.631   4.723
 2794SOL    HW110279   7.983   2.577   4.662
 2794SOL    HW210280   7.922   2.714   4.676
 2795SOL     OW10281   1.930   5.764   7.765
 2795SOL    HW110282   1.861   5.829   7.775
 2795SOL    HW210283   1.904   5.712   7.688
 2796SOL     OW10284   5.851  13.001  14.636
 2796SOL    HW110285   5.919  13.053  14.595
 2796SOL    HW210286   5.814  13.058  14.703
 2797SOL     OW10287   9.806   7.860   9.882
 2797SOL    HW110288   9.859   7.805   9.940
 2797SOL    HW210289   9.862   7.934   9.862
 2798SOL     OW10290  12.733   6.608  11.917
 2798SOL    HW110291  12.645   6.575  11.936
 2798SOL    HW210292  12.718   6.696  11.881
 2799SOL     OW10293   8.863  12.553  10.775
 2799SOL    HW110294   8.940  12.555  10.718
 2799SOL    HW210295   8.809  12.482  10.741
 2800SOL     OW10296   4.111   2.415   6.048
 2800SOL    HW110297   4.147   2.379   6.130
 2800SOL    HW210298   4.185   2.414   5.987
 2801SOL     OW10299   9.483   1.470   7.668
 2801SOL    HW110300   9.408   1.420   7.634
 2801SOL    HW210301   9.463   1.482   7.761
 2802SOL     OW10302   2.169  14.714  14.457
 2802SOL    HW110303   2.261  14.741  14.453
 2802SOL    HW210304   2.134  14.760  14.533
 2803SOL     OW10305   0.238   9.137  14.318
 2803SOL    HW110306   0.271   9.196  14.251
 2803SOL    HW210307   0.149   9.115  14.290
 2804SOL     OW10308   4.805   9.104   3.943
 2804SOL    HW110309   4.802   9.012   3.971
 2804SOL    HW210310   4.872   9.143   3.999
 2805SOL     OW10311   7.762  11.947   0.571
 2805SOL    HW110312   7.854  11.969   0.590
 2805SOL    HW210313   7.717  11.961   0.654
 2806SOL     OW10314   9.234   8.285   1.710
 2806SOL    HW110315   9.203   8.228   1.640
 2806SOL    HW210316   9.321   8.251   1.732
 2807SOL     OW10317  10.237  14.049  11.624
 2807SOL    HW110318  10.174  14.104  11.577
 2807SOL    HW210319  10.279  14.108  11.686
 2808SOL     OW10320   7.306   2.950  11.745
 2808SOL    HW110321   7.389   2.905  11.761
 2808SOL    HW210322   7.240   2.880  11.742
 2809SOL     OW10323   4.203   0.422   0.635
 2809SOL    HW110324   4.149   0.405   0.713
 2809SOL    HW210325   4.188   0.345   0.580
 2810SOL     OW10326  12.924   5.746   0.639
 2810SOL    HW110327  12.844   5.697   0.621
 2810SOL    HW210328  12.955   5.713   0.723
 2811SOL     OW10329   7.386   8.101   2.903
 2811SOL    HW110330   7.459   8.148   2.861
 2811SOL    HW210331   7.399   8.010   2.878
 2812SOL     OW10332   6.548  10.361   0.871
 2812SOL    HW110333   6.593  10.278   0.853
 2812SOL    HW210334   6.522  10.393   0.785
 2813SOL     OW10335   0.949  11.916   4.227
 2813SOL    HW110336   0.903  11.989   4.268
 2813SOL    HW210337   1.034  11.913   4.271
 2814SOL     OW10338   3.604   7.824  14.049
 2814SOL    HW110339   3.576   7.750  13.996
 2814SOL    HW210340   3.524   7.856  14.090
 2815SOL     OW10341   1.462   8.086  10.548
 2815SOL    HW110342   1.518   8.163  10.555
 2815SOL    HW210343   1.391   8.102  10.610
 2816SOL     OW10344   1.218   3.078   5.913
 2816SOL    HW110345   1.276   3.006   5.940
 2816SOL    HW210346   1.278   3.143   5.876
 2817SOL     OW10347   3.750   0.745   0.936
 2817SOL    HW110348   3.657   0.729   0.926
 2817SOL    HW210349   3.759   0.785   1.023
 2818SOL     OW10350  13.397   1.421   0.556
 2818SOL    HW110351  13.370   1.512   0.568
 2818SOL    HW210352  13.492   1.426   0.548
 2819SOL     OW10353  10.172   4.931  11.816
 2819SOL    HW110354  10.159   5.025  11.806
 2819SOL    HW210355  10.231   4.907  11.744
 2820SOL     OW10356   2.798   0.546   6.900
 2820SOL    HW110357   2.864   0.593   6.951
 2820SOL    HW210358   2.844   0.470   6.865
 2821SOL     OW10359   8.412   8.471   9.922
 2821SOL    HW110360   8.357   8.548   9.929
 2821SOL    HW210361   8.369   8.405   9.976
 2822SOL     OW10362   7.224  11.786  10.469
 2822SOL    HW110363   7.231  11.821  10.557
 2822SOL    HW210364   7.275  11.705  10.470
 2823SOL     OW10365   0.201  10.168   8.983
 2823SOL    HW110366   0.113  10.174   8.945
 2823SOL    HW210367   0.205  10.079   9.018
 2824SOL     OW10368   2.753  11.792  13.076
 2824SOL    HW110369   2.747  11.782  12.981
 2824SOL    HW210370   2.847  11.805  13.093
 2825SOL     OW10371   2.377  11.468   4.703
 2825SOL    HW110372   2.370  11.409   4.778
 2825SOL    HW210373   2.405  11.411   4.631
 2826SOL     OW10374   4.759   7.575   9.016
 2826SOL    HW110375   4.802   7.493   9.044
 2826SOL    HW210376   4.710   7.551   8.937
 2827SOL     OW10377   5.972  11.648   2.072
 2827SOL    HW110378   6.061  11.616   2.086
 2827SOL    HW210379   5.984  11.740   2.046
 2828SOL     OW10380   6.463   2.074   0.587
 2828SOL    HW110381   6.374   2.065   0.552
 2828SOL    HW210382   6.452   2.078   0.682
 2829SOL     OW10383   7.878   3.529  12.584
 2829SOL    HW110384   7.805   3.576  12.625
 2829SOL    HW210385   7.905   3.466  12.650
 2830SOL     OW10386   0.191  13.939  13.717
 2830SOL    HW110387   0.128  13.940  13.645
 2830SOL    HW210388   0.252  13.868  13.696
 2831SOL     OW10389  10.890   4.137   5.269
 2831SOL    HW110390  10.840   4.211   5.304
 2831SOL    HW210391  10.867   4.134   5.176
 2832SOL     OW10392   2.867  12.658  10.350
 2832SOL    HW110393   2.803  12.604  10.394
 2832SOL    HW210394   2.946  12.651  10.403
 2833SOL     OW10395   1.074  12.394  10.774
 2833SOL    HW110396   1.038  12.315  10.816
 2833SOL    HW210397   1.056  12.464  10.837
 2834SOL     OW10398   2.889  12.639   3.651
 2834SOL    HW110399   2.972  12.597   3.631
 2834SOL    HW210400   2.885  12.640   3.747
 2835SOL     OW10401  10.934  13.030   8.034
 2835SOL    HW110402  10.859  13.025   7.975
 2835SOL    HW210403  11.008  12.999   7.983
 2836SOL     OW10404   9.169   2.743   5.099
 2836SOL    HW110405   9.180   2.801   5.174
 2836SOL    HW210406   9.108   2.789   5.042
 2837SOL     OW10407   4.434  12.271  12.329
 2837SOL    HW110408   4.433  12.228  12.415
 2837SOL    HW210409   4.468  12.205  12.269
 2838SOL     OW10410   1.613   7.970   9.749
 2838SOL    HW110411   1.690   7.959   9.806
 2838SOL    HW210412   1.597   8.064   9.750
 2839SOL     OW10413  10.026   7.652  11.761
 2839SOL    HW110414  10.024   7.664  11.856
 2839SOL    HW210415   9.991   7.564  11.747
 2840SOL     OW10416   1.979   6.273   0.659
 2840SOL    HW110417   2.006   6.234   0.576
 2840SOL    HW210418   2.061   6.301   0.701
 2841SOL     OW10419   8.808  11.139   6.620
 2841SOL    HW110420   8.716  11.153   6.596
 2841SOL    HW210421   8.829  11.213   6.677
 2842SOL     OW10422   3.229  12.154   5.842
 2842SOL    HW110423   3.272  12.072   5.864
 2842SOL    HW210424   3.301  12.217   5.835
 2843SOL     OW10425   9.316   4.719   7.952
 2843SOL    HW110426   9.345   4.643   8.004
 2843SOL    HW210427   9.379   4.788   7.973
 2844SOL     OW10428  11.646  14.519   5.597
 2844SOL    HW110429  11.637  14.425   5.580
 2844SOL    HW210430  11.738  14.538   5.578
 2845SOL     OW10431  10.776   7.848  11.546
 2845SOL    HW110432  10.780   7.777  11.482
 2845SOL    HW210433  10.867   7.870  11.564
 2846SOL     OW10434   9.543   9.390   7.224
 2846SOL    HW110435   9.604   9.325   7.260
 2846SOL    HW210436   9.523   9.356   7.137
 2847SOL     OW10437   8.922   8.542   8.105
 2847SOL    HW110438   8.885   8.551   8.017
 2847SOL    HW210439   8.884   8.615   8.154
 2848SOL     OW10440   6.064   8.529  11.329
 2848SOL    HW110441   6.082   8.436  11.324
 2848SOL    HW210442   6.121   8.569  11.264
 2849SOL     OW10443  11.942   0.065   7.519
 2849SOL    HW110444  11.946   0.114   7.437
 2849SOL    HW210445  11.967  14.853   7.495
 2850SOL     OW10446  10.316   1.814   9.632
 2850SOL    HW110447  10.238   1.855   9.596
 2850SOL    HW210448  10.341   1.871   9.705
 2851SOL     OW10449   9.563  12.921   0.373
 2851SOL    HW110450   9.641  12.865   0.376
 2851SOL    HW210451   9.594  13.003   0.337
 2852SOL     OW10452   1.748   0.742  12.759
 2852SOL    HW110453   1.784   0.716  12.843
 2852SOL    HW210454   1.819   0.727  12.696
 2853SOL     OW10455  13.525   2.136   2.780
 2853SOL    HW110456  13.515   2.227   2.807
 2853SOL    HW210457  13.620   2.124   2.774
 2854SOL     OW10458  11.722  14.638  13.989
 2854SOL    HW110459  11.683  14.623  13.903
 2854SOL    HW210460  11.748  14.551  14.019
 2855SOL     OW10461  13.631  12.436   2.214
 2855SOL    HW110462  13.539  12.446   2.190
 2855SOL    HW210463  13.629  12.374   2.288
 2856SOL     OW10464   5.946  10.915  13.790
 2856SOL    HW110465   5.868  10.908  13.736
 2856SOL    HW210466   5.985  10.999  13.766
 2857SOL     OW10467   6.837  11.149   7.101
 2857SOL    HW110468   6.805  11.060   7.110
 2857SOL    HW210469   6.926  11.147   7.136
 2858SOL     OW10470   5.789   1.279  14.283
 2858SOL    HW110471   5.868   1.244  14.324
 2858SOL    HW210472   5.728   1.292  14.356
 2859SOL     OW10473   2.701  10.439   6.505
 2859SOL    HW110474   2.745  10.510   6.459
 2859SOL    HW210475   2.746  10.432   6.588
 2860SOL     OW10476   6.237   8.458   7.178
 2860SOL    HW110477   6.324   8.445   7.216
 2860SOL    HW210478   6.210   8.371   7.150
 2861SOL     OW10479  14.505   4.454  11.660
 2861SOL    HW110480  14.453   4.534  11.669
 2861SOL    HW210481  14.500   4.412  11.745
 2862SOL     OW10482   8.067   6.545   7.578
 2862SOL    HW110483   7.996   6.604   7.551
 2862SOL    HW210484   8.103   6.585   7.657
 2863SOL     OW10485   9.221   1.033  14.542
 2863SOL    HW110486   9.209   0.999  14.454
 2863SOL    HW210487   9.132   1.034  14.579
 2864SOL     OW10488  14.088  12.966  12.162
 2864SOL    HW110489  14.037  12.885  12.166
 2864SOL    HW210490  14.158  12.953  12.226
 2865SOL     OW10491  12.215   9.140  11.932
 2865SOL    HW110492  12.140   9.125  11.875
 2865SOL    HW210493  12.183   9.200  11.999
 2866SOL     OW10494   6.439   6.775   6.820
 2866SOL    HW110495   6.527   6.785   6.784
 2866SOL    HW210496   6.454   6.753   6.912
 2867SOL     OW10497   3.833  13.162   4.657
 2867SOL    HW110498   3.819  13.193   4.747
 2867SOL    HW210499   3.766  13.206   4.606
 2868SOL     OW10500   1.564   0.653   2.095
 2868SOL    HW110501   1.566   0.748   2.082
 2868SOL    HW210502   1.486   0.637   2.148
 2869SOL     OW10503   9.711   9.305   1.673
 2869SOL    HW110504   9.662   9.308   1.591
 2869SOL    HW210505   9.644   9.302   1.742
 2870SOL     OW10506   8.812  14.849  13.619
 2870SOL    HW110507   8.819   0.046  13.560
 2870SOL    HW210508   8.881  14.789  13.591
 2871SOL     OW10509   5.254   0.605   5.814
 2871SOL    HW110510   5.217   0.619   5.727
 2871SOL    HW210511   5.339   0.564   5.797
 2872SOL     OW10512  13.546   3.518   1.671
 2872SOL    HW110513  13.478   3.472   1.721
 2872SOL    HW210514  13.504   3.599   1.643
 2873SOL     OW10515   0.205   0.555   7.621
 2873SOL    HW110516   0.270   0.533   7.554
 2873SOL    HW210517   0.245   0.529   7.704
 2874SOL     OW10518  10.414   7.081   7.740
 2874SOL    HW110519  10.489   7.076   7.799
 2874SOL    HW210520  10.431   7.159   7.687
 2875SOL     OW10521  12.381  12.880  14.722
 2875SOL    HW110522  12.301  12.925  14.747
 2875SOL    HW210523  12.451  12.944  14.739
 2876SOL     OW10524   7.321   6.720   2.074
 2876SOL    HW110525   7.333   6.761   2.160
 2876SOL    HW210526   7.287   6.790   2.018
 2877SOL     OW10527   6.396   5.052   3.292
 2877SOL    HW110528   6.478   5.013   3.261
 2877SOL    HW210529   6.338   4.977   3.306
 2878SOL     OW10530   1.798   8.535   4.293
 2878SOL    HW110531   1.866   8.470   4.309
 2878SOL    HW210532   1.738   8.493   4.231
 2879SOL     OW10533   1.048   7.406  10.453
 2879SOL    HW110534   0.991   7.338  10.490
 2879SOL    HW210535   1.076   7.372  10.369
 2880SOL     OW10536  13.123   3.975   3.319
 2880SOL    HW110537  13.066   3.910   3.278
 2880SOL    HW210538  13.197   3.983   3.260
 2881SOL     OW10539   5.264   3.131   0.929
 2881SOL    HW110540   5.261   3.191   1.004
 2881SOL    HW210541   5.223   3.180   0.858
 2882SOL     OW10542  10.049  14.873   8.695
 2882SOL    HW110543   9.983  14.805   8.707
 2882SOL    HW210544  10.073  14.867   8.602
 2883SOL     OW10545   4.449  13.453  12.762
 2883SOL    HW110546   4.416  13.365  12.745
 2883SOL    HW210547   4.472  13.488  12.676
 2884SOL     OW10548   0.230   3.055  14.514
 2884SOL    HW110549   0.297   3.108  14.472
 2884SOL    HW210550   0.224   2.976  14.460
 2885SOL     OW10551  12.204   9.819   2.033
 2885SOL    HW110552  12.258   9.784   2.104
 2885SOL    HW210553  12.250   9.897   2.003
 2886SOL     OW10554   6.805   3.615  12.072
 2886SOL    HW110555   6.802   3.531  12.120
 2886SOL    HW210556   6.849   3.594  11.990
 2887SOL     OW10557   5.175   5.538   7.160
 2887SOL    HW110558   5.116   5.586   7.218
 2887SOL    HW210559   5.116   5.487   7.104
 2888SOL     OW10560  13.708   0.831   1.853
 2888SOL    HW110561  13.724   0.842   1.759
 2888SOL    HW210562  13.643   0.898   1.874
 2889SOL     OW10563   6.970  13.289   4.268
 2889SOL    HW110564   7.056  13.302   4.308
 2889SOL    HW210565   6.913  13.266   4.341
 2890SOL     OW10566  10.561   1.102   5.820
 2890SOL    HW110567  10.484   1.113   5.765
 2890SOL    HW210568  10.573   1.007   5.826
 2891SOL     OW10569   7.162   9.367   9.705
 2891SOL    HW110570   7.254   9.382   9.724
 2891SOL    HW210571   7.134   9.304   9.772
 2892SOL     OW10572   5.096   2.408   5.418
 2892SOL    HW110573   5.133   2.331   5.374
 2892SOL    HW210574   5.067   2.464   5.346
 2893SOL     OW10575   7.879   0.301   9.726
 2893SOL    HW110576   7.840   0.231   9.779
 2893SOL    HW210577   7.805   0.354   9.698
 2894SOL     OW10578   5.307   5.523   1.729
 2894SOL    HW110579   5.357   5.546   1.808
 2894SOL    HW210580   5.272   5.435   1.748
 2895SOL     OW10581   5.401   8.534  10.307
 2895SOL    HW110582   5.405   8.580  10.224
 2895SOL    HW210583   5.326   8.573  10.353
 2896SOL     OW10584  14.472  14.029   4.115
 2896SOL    HW110585  14.545  14.022   4.053
 2896SOL    HW210586  14.404  13.973   4.078
 2897SOL     OW10587  14.747   7.565  14.611
 2897SOL    HW110588  14.810   7.627  14.576
 2897SOL    HW210589  14.672   7.570  14.552
 2898SOL     OW10590   4.962   9.812  10.309
 2898SOL    HW110591   5.001   9.725  10.304
 2898SOL    HW210592   4.993   9.847  10.393
 2899SOL     OW10593   5.752  10.997   8.787
 2899SOL    HW110594   5.711  10.963   8.707
 2899SOL    HW210595   5.741  10.928   8.852
 2900SOL     OW10596   6.681   7.311   9.770
 2900SOL    HW110597   6.609   7.371   9.752
 2900SOL    HW210598   6.741   7.321   9.696
 2901SOL     OW10599   8.352   3.748   3.668
 2901SOL    HW110600   8.294   3.683   3.708
 2901SOL    HW210601   8.423   3.760   3.730
 2902SOL     OW10602  14.514  14.504   6.934
 2902SOL    HW110603  14.455  14.580   6.939
 2902SOL    HW210604  14.597  14.537   6.969
 2903SOL     OW10605  12.455  13.286  11.056
 2903SOL    HW110606  12.493  13.372  11.037
 2903SOL    HW210607  12.453  13.281  11.152
 2904SOL     OW10608   0.833   3.611  12.942
 2904SOL    HW110609   0.851   3.517  12.943
 2904SOL    HW210610   0.811   3.630  12.851
 2905SOL     OW10611   9.898  11.902   9.535
 2905SOL    HW110612   9.812  11.923   9.498
 2905SOL    HW210613   9.921  11.979   9.587
 2906SOL     OW10614   4.461   0.846   1.229
 2906SOL    HW110615   4.539   0.818   1.277
 2906SOL    HW210616   4.495   0.889   1.151
 2907SOL     OW10617   3.081   4.134  11.879
 2907SOL    HW110618   3.034   4.073  11.936
 2907SOL    HW210619   3.154   4.084  11.844
 2908SOL     OW10620   4.802   2.592   7.188
 2908SOL    HW110621   4.754   2.671   7.211
 2908SOL    HW210622   4.753   2.554   7.115
 2909SOL     OW10623   8.782  13.532   8.191
 2909SOL    HW110624   8.865  13.509   8.232
 2909SOL    HW210625   8.728  13.454   8.200
 2910SOL     OW10626  10.861   9.568   3.928
 2910SOL    HW110627  10.935   9.590   3.984
 2910SOL    HW210628  10.791   9.545   3.989
 2911SOL     OW10629   2.955   8.529   3.893
 2911SOL    HW110630   2.945   8.587   3.817
 2911SOL    HW210631   3.046   8.538   3.919
 2912SOL     OW10632   6.113   4.670   9.744
 2912SOL    HW110633   6.178   4.738   9.729
 2912SOL    HW210634   6.137   4.631   9.828
 2913SOL     OW10635   9.917   7.693  13.855
 2913SOL    HW110636   9.880   7.760  13.797
 2913SOL    HW210637  10.009   7.688  13.829
 2914SOL     OW10638   3.859   6.569   4.030
 2914SOL    HW110639   3.869   6.556   4.125
 2914SOL    HW210640   3.818   6.488   3.999
 2915SOL     OW10641   6.400   2.428   1.307
 2915SOL    HW110642   6.370   2.474   1.386
 2915SOL    HW210643   6.495   2.425   1.316
 2916SOL     OW10644   6.332   3.630   0.668
 2916SOL    HW110645   6.299   3.710   0.708
 2916SOL    HW210646   6.408   3.657   0.618
 2917SOL     OW10647   1.099   4.949   3.438
 2917SOL    HW110648   1.048   5.028   3.453
 2917SOL    HW210649   1.099   4.937   3.343
 2918SOL     OW10650   4.177   2.105   8.198
 2918SOL    HW110651   4.162   2.119   8.104
 2918SOL    HW210652   4.125   2.027   8.219
 2919SOL     OW10653   0.524   9.106   9.545
 2919SOL    HW110654   0.599   9.047   9.540
 2919SOL    HW210655   0.456   9.062   9.494
 2920SOL     OW10656  13.674   2.189   8.188
 2920SOL    HW110657  13.625   2.118   8.146
 2920SOL    HW210658  13.610   2.233   8.243
 2921SOL     OW10659  13.130   2.198   5.440
 2921SOL    HW110660  13.181   2.117   5.440
 2921SOL    HW210661  13.170   2.252   5.373
 2922SOL     OW10662   4.071   5.161   7.042
 2922SOL    HW110663   4.142   5.224   7.031
 2922SOL    HW210664   4.026   5.189   7.121
 2923SOL     OW10665   4.833   1.450   3.432
 2923SOL    HW110666   4.835   1.355   3.426
 2923SOL    HW210667   4.820   1.468   3.526
 2924SOL     OW10668  10.177  12.031   5.123
 2924SOL    HW110669  10.081  12.030   5.118
 2924SOL    HW210670  10.197  12.110   5.173
 2925SOL     OW10671  14.131   1.142  14.721
 2925SOL    HW110672  14.046   1.183  14.704
 2925SOL    HW210673  14.119   1.050  14.696
 2926SOL     OW10674   3.489   2.050  10.014
 2926SOL    HW110675   3.434   2.020  10.086
 2926SOL    HW210676   3.443   2.126   9.978
 2927SOL     OW10677   3.669   1.617   2.499
 2927SOL    HW110678   3.688   1.572   2.416
 2927SOL    HW210679   3.668   1.710   2.476
 2928SOL     OW10680   4.423  13.548  13.028
 2928SOL    HW110681   4.422  13.511  12.939
 2928SOL    HW210682   4.516  13.567  13.044
 2929SOL     OW10683  10.035   1.696  11.612
 2929SOL    HW110684  10.002   1.748  11.538
 2929SOL    HW210685   9.990   1.612  11.604
 2930SOL     OW10686   2.038  12.899   7.907
 2930SOL    HW110687   1.992  12.942   7.979
 2930SOL    HW210688   2.032  12.961   7.835
 2931SOL     OW10689  12.749   3.368   6.683
 2931SOL    HW110690  12.741   3.324   6.598
 2931SOL    HW210691  12.740   3.461   6.663
 2932SOL     OW10692  14.307  12.422   9.100
 2932SOL    HW110693  14.266  12.336   9.109
 2932SOL    HW210694  14.398  12.402   9.077
 2933SOL     OW10695  10.467   8.694   2.522
 2933SOL    HW110696  10.533   8.751   2.561
 2933SOL    HW210697  10.494   8.606   2.546
 2934SOL     OW10698   1.737  11.577   2.061
 2934SOL    HW110699   1.749  11.550   1.969
 2934SOL    HW210700   1.824  11.566   2.100
 2935SOL     OW10701   6.625   5.898   5.434
 2935SOL    HW110702   6.701   5.859   5.391
 2935SOL    HW210703   6.643   5.992   5.436
 2936SOL     OW10704   2.071   7.775   5.296
 2936SOL    HW110705   2.144   7.836   5.299
 2936SOL    HW210706   2.105   7.699   5.248
 2937SOL     OW10707   8.139  10.060   2.717
 2937SOL    HW110708   8.104  10.095   2.635
 2937SOL    HW210709   8.098  10.113   2.785
 2938SOL     OW10710   5.497   0.412   2.673
 2938SOL    HW110711   5.472   0.408   2.765
 2938SOL    HW210712   5.416   0.436   2.627
 2939SOL     OW10713   5.186   1.838  13.728
 2939SOL    HW110714   5.133   1.759  13.719
 2939SOL    HW210715   5.123   1.906  13.752
 2940SOL     OW10716  12.787   5.006  12.113
 2940SOL    HW110717  12.800   5.002  12.018
 2940SOL    HW210718  12.736   4.928  12.134
 2941SOL     OW10719   4.463   6.006   4.438
 2941SOL    HW110720   4.547   6.052   4.437
 2941SOL    HW210721   4.421   6.032   4.355
 2942SOL     OW10722   6.224   3.063  13.612
 2942SOL    HW110723   6.192   3.120  13.542
 2942SOL    HW210724   6.290   3.116  13.657
 2943SOL     OW10725   1.545   3.423   4.426
 2943SOL    HW110726   1.541   3.496   4.487
 2943SOL    HW210727   1.562   3.347   4.481
 2944SOL     OW10728  14.358   6.401   0.861
 2944SOL    HW110729  14.283   6.348   0.889
 2944SOL    HW210730  14.415   6.404   0.938
 2945SOL     OW10731  11.457   4.954   1.874
 2945SOL    HW110732  11.505   5.024   1.831
 2945SOL    HW210733  11.384   4.998   1.918
 2946SOL     OW10734   9.623   3.825   3.441
 2946SOL    HW110735   9.549   3.791   3.391
 2946SOL    HW210736   9.583   3.870   3.516
 2947SOL     OW10737   5.297   9.095  11.850
 2947SOL    HW110738   5.384   9.136  11.854
 2947SOL    HW210739   5.236   9.167  11.861
 2948SOL     OW10740   7.211   8.702  10.164
 2948SOL    HW110741   7.166   8.655  10.234
 2948SOL    HW210742   7.194   8.650  10.085
 2949SOL     OW10743   4.208   2.390   9.358
 2949SOL    HW110744   4.151   2.434   9.295
 2949SOL    HW210745   4.221   2.453   9.428
 2950SOL     OW10746   7.239  12.104   1.427
 2950SOL    HW110747   7.224  12.084   1.335
 2950SOL    HW210748   7.177  12.174   1.448
 2951SOL     OW10749   4.443   4.504  13.750
 2951SOL    HW110750   4.434   4.568  13.679
 2951SOL    HW210751   4.533   4.474  13.743
 2952SOL     OW10752   9.206   4.538   0.403
 2952SOL    HW110753   9.121   4.494   0.398
 2952SOL    HW210754   9.205   4.584   0.487
 2953SOL     OW10755  12.019   8.935   7.784
 2953SOL    HW110756  12.023   8.841   7.770
 2953SOL    HW210757  12.096   8.955   7.838
 2954SOL     OW10758  11.469   0.567   2.341
 2954SOL    HW110759  11.398   0.571   2.276
 2954SOL    HW210760  11.445   0.495   2.399
 2955SOL     OW10761   2.086   9.405   7.566
 2955SOL    HW110762   2.123   9.488   7.536
 2955SOL    HW210763   2.070   9.419   7.659
 2956SOL     OW10764   5.178  11.951  13.398
 2956SOL    HW110765   5.186  11.969  13.304
 2956SOL    HW210766   5.148  11.860  13.402
 2957SOL     OW10767  12.116  11.622  14.137
 2957SOL    HW110768  12.169  11.549  14.107
 2957SOL    HW210769  12.061  11.645  14.062
 2958SOL     OW10770   1.667   4.327  12.593
 2958SOL    HW110771   1.695   4.304  12.681
 2958SOL    HW210772   1.697   4.254  12.538
 2959SOL     OW10773  12.559   2.023   9.595
 2959SOL    HW110774  12.479   2.067   9.566
 2959SOL    HW210775  12.577   1.959   9.526
 2960SOL     OW10776  11.657  13.152   8.589
 2960SOL    HW110777  11.703  13.198   8.519
 2960SOL    HW210778  11.726  13.124   8.649
 2961SOL     OW10779  10.558   4.191   3.855
 2961SOL    HW110780  10.567   4.095   3.855
 2961SOL    HW210781  10.517   4.210   3.940
 2962SOL     OW10782   7.963   4.659   3.679
 2962SOL    HW110783   7.940   4.667   3.587
 2962SOL    HW210784   8.015   4.737   3.697
 2963SOL     OW10785   9.255   3.935  14.117
 2963SOL    HW110786   9.327   3.940  14.181
 2963SOL    HW210787   9.190   3.879  14.159
 2964SOL     OW10788   9.104   1.693   0.304
 2964SOL    HW110789   9.087   1.787   0.314
 2964SOL    HW210790   9.168   1.688   0.233
 2965SOL     OW10791  11.082  13.616   1.799
 2965SOL    HW110792  11.084  13.711   1.816
 2965SOL    HW210793  11.170  13.586   1.820
 2966SOL     OW10794  12.074   4.134  11.750
 2966SOL    HW110795  11.984   4.158  11.772
 2966SOL    HW210796  12.129   4.195  11.799
 2967SOL     OW10797   0.368   0.794  10.370
 2967SOL    HW110798   0.432   0.724  10.385
 2967SOL    HW210799   0.284   0.756  10.397
 2968SOL     OW10800   5.338   1.475  10.636
 2968SOL    HW110801   5.432   1.468  10.617
 2968SOL    HW210802   5.316   1.566  10.614
 2969SOL     OW10803  14.752   3.181   3.495
 2969SOL    HW110804  14.804   3.114   3.451
 2969SOL    HW210805  14.771   3.261   3.447
 2970SOL     OW10806   2.270   3.741   3.621
 2970SOL    HW110807   2.205   3.722   3.554
 2970SOL    HW210808   2.223   3.730   3.704
 2971SOL     OW10809   7.008  11.969   7.094
 2971SOL    HW110810   6.924  11.925   7.107
 2971SOL    HW210811   7.071  11.912   7.139
 2972SOL     OW10812  13.207  14.794   6.363
 2972SOL    HW110813  13.124  14.795   6.316
 2972SOL    HW210814  13.200  14.866   6.426
 2973SOL     OW10815   5.890  12.553   2.274
 2973SOL    HW110816   5.969  12.596   2.242
 2973SOL    HW210817   5.896  12.559   2.370
 2974SOL     OW10818   0.973   6.646   6.268
 2974SOL    HW110819   0.931   6.730   6.246
 2974SOL    HW210820   1.020   6.622   6.188
 2975SOL     OW10821   8.865   6.793   9.966
 2975SOL    HW110822   8.823   6.721  10.013
 2975SOL    HW210823   8.948   6.806  10.012
 2976SOL     OW10824   2.388   0.403   3.974
 2976SOL    HW110825   2.429   0.353   4.045
 2976SOL    HW210826   2.455   0.406   3.905
 2977SOL     OW10827  11.809  14.359   3.531
 2977SOL    HW110828  11.757  14.281   3.514
 2977SOL    HW210829  11.744  14.425   3.556
 2978SOL     OW10830  14.351   2.596   0.545
 2978SOL    HW110831  14.365   2.640   0.629
 2978SOL    HW210832  14.415   2.636   0.486
 2979SOL     OW10833  13.269  14.017   9.001
 2979SOL    HW110834  13.244  14.102   8.964
 2979SOL    HW210835  13.229  13.953   8.942
 2980SOL     OW10836  11.703  12.268  10.053
 2980SOL    HW110837  11.791  12.298  10.071
 2980SOL    HW210838  11.695  12.185  10.101
 2981SOL     OW10839   5.532  14.776  13.962
 2981SOL    HW110840   5.545  14.848  14.023
 2981SOL    HW210841   5.469  14.719  14.006
 2982SOL     OW10842   7.696   9.392   0.363
 2982SOL    HW110843   7.626   9.433   0.312
 2982SOL    HW210844   7.668   9.301   0.374
 2983SOL     OW10845   7.897  10.695   8.504
 2983SOL    HW110846   7.885  10.736   8.590
 2983SOL    HW210847   7.808  10.680   8.473
 2984SOL     OW10848   2.629   9.427   4.549
 2984SOL    HW110849   2.624   9.410   4.643
 2984SOL    HW210850   2.562   9.369   4.511
 2985SOL     OW10851  12.130   4.497   4.048
 2985SOL    HW110852  12.103   4.426   4.106
 2985SOL    HW210853  12.070   4.568   4.067
 2986SOL     OW10854   5.865  12.064   1.606
 2986SOL    HW110855   5.901  12.139   1.559
 2986SOL    HW210856   5.872  12.087   1.698
 2987SOL     OW10857   9.232  12.985   6.686
 2987SOL    HW110858   9.139  13.005   6.674
 2987SOL    HW210859   9.251  13.009   6.777
 2988SOL     OW10860   2.516   0.976   3.111
 2988SOL    HW110861   2.598   0.932   3.088
 2988SOL    HW210862   2.448   0.921   3.073
 2989SOL     OW10863  11.356   9.400  14.482
 2989SOL    HW110864  11.382   9.343  14.554
 2989SOL    HW210865  11.298   9.347  14.428
 2990SOL     OW10866   9.674   7.139   6.932
 2990SOL    HW110867   9.600   7.115   6.987
 2990SOL    HW210868   9.746   7.084   6.962
 2991SOL     OW10869   9.182   3.934  14.412
 2991SOL    HW110870   9.262   3.987  14.413
 2991SOL    HW210871   9.206   3.853  14.368
 2992SOL     OW10872   5.797  11.210   3.274
 2992SOL    HW110873   5.833  11.169   3.196
 2992SOL    HW210874   5.753  11.139   3.321
 2993SOL     OW10875   6.050   5.206   3.052
 2993SOL    HW110876   5.981   5.173   2.994
 2993SOL    HW210877   6.036   5.300   3.055
 2994SOL     OW10878  14.167  11.190  13.496
 2994SOL    HW110879  14.155  11.204  13.402
 2994SOL    HW210880  14.243  11.244  13.518
 2995SOL     OW10881   8.830   7.319  11.689
 2995SOL    HW110882   8.790   7.316  11.776
 2995SOL    HW210883   8.760   7.350  11.631
 2996SOL     OW10884   7.561   9.136   8.605
 2996SOL    HW110885   7.538   9.043   8.611
 2996SOL    HW210886   7.657   9.137   8.609
 2997SOL     OW10887   8.051   9.733   9.306
 2997SOL    HW110888   8.078   9.819   9.337
 2997SOL    HW210889   8.003   9.694   9.379
 2998SOL     OW10890   1.451   1.997   0.109
 2998SOL    HW110891   1.374   1.990   0.165
 2998SOL    HW210892   1.519   1.948   0.154
 2999SOL     OW10893  14.373   6.840   8.478
 2999SOL    HW110894  14.292   6.836   8.529
 2999SOL    HW210895  14.393   6.748   8.459
 3000SOL     OW10896   4.135  13.787   6.786
 3000SOL    HW110897   4.065  13.756   6.843
 3000SOL    HW210898   4.163  13.870   6.825
 3001SOL     OW10899  11.611   9.724  10.466
 3001SOL    HW110900  11.560   9.696  10.541
 3001SOL    HW210901  11.692   9.673  10.471
 3002SOL     OW10902  10.213   6.206   5.567
 3002SOL    HW110903  10.188   6.226   5.476
 3002SOL    HW210904  10.220   6.292   5.609
 3003SOL     OW10905  14.638  12.270  10.843
 3003SOL    HW110906  14.639  12.338  10.776
 3003SOL    HW210907  14.716  12.287  10.896
 3004SOL     OW10908   0.619  13.072   5.992
 3004SOL    HW110909   0.612  13.165   6.014
 3004SOL    HW210910   0.638  13.071   5.898
 3005SOL     OW10911   3.814   6.079   7.220
 3005SOL    HW110912   3.832   6.126   7.301
 3005SOL    HW210913   3.894   6.089   7.168
 3006SOL     OW10914   5.743   7.183   5.240
 3006SOL    HW110915   5.792   7.171   5.321
 3006SOL    HW210916   5.767   7.270   5.210
 3007SOL     OW10917  11.014   2.175  11.823
 3007SOL    HW110918  10.994   2.228  11.900
 3007SOL    HW210919  10.981   2.226  11.750
 3008SOL     OW10920   2.798   3.815   1.218
 3008SOL    HW110921   2.771   3.892   1.268
 3008SOL    HW210922   2.858   3.850   1.152
 3009SOL     OW10923  14.228   8.718   1.755
 3009SOL    HW110924  14.311   8.748   1.716
 3009SOL    HW210925  14.174   8.797   1.760
 3010SOL     OW10926   3.238   3.736   4.434
 3010SOL    HW110927   3.313   3.685   4.402
 3010SOL    HW210928   3.230   3.710   4.526
 3011SOL     OW10929   2.543   8.047  11.917
 3011SOL    HW110930   2.521   7.954  11.921
 3011SOL    HW210931   2.459   8.092  11.923
 3012SOL     OW10932  13.084   6.932  13.856
 3012SOL    HW110933  12.998   6.915  13.894
 3012SOL    HW210934  13.145   6.882  13.910
 3013SOL     OW10935   9.716  13.774  13.399
 3013SOL    HW110936   9.626  13.767  13.369
 3013SOL    HW210937   9.712  13.757  13.493
 3014SOL     OW10938  11.946  11.117  14.348
 3014SOL    HW110939  11.974  11.027  14.332
 3014SOL    HW210940  11.915  11.149  14.263
 3015SOL     OW10941   1.822   8.795   3.294
 3015SOL    HW110942   1.744   8.795   3.237
 3015SOL    HW210943   1.853   8.886   3.291
 3016SOL     OW10944   8.959   9.044   6.406
 3016SOL    HW110945   8.887   9.034   6.344
 3016SOL    HW210946   8.924   9.014   6.490
 3017SOL     OW10947  14.732   8.068   1.574
 3017SOL    HW110948  14.691   8.009   1.511
 3017SOL    HW210949  14.715   8.028   1.659
 3018SOL     OW10950   1.584   3.593   7.183
 3018SOL    HW110951   1.522   3.641   7.130
 3018SOL    HW210952   1.546   3.594   7.271
 3019SOL     OW10953   4.929   8.999  14.480
 3019SOL    HW110954   4.846   9.044  14.462
 3019SOL    HW210955   4.927   8.922  14.423
 3020SOL     OW10956   8.214   8.537  10.310
 3020SOL    HW110957   8.212   8.466  10.374
 3020SOL    HW210958   8.305   8.567  10.309
 3021SOL     OW10959  12.124   6.366  14.773
 3021SOL    HW110960  12.219   6.360  14.789
 3021SOL    HW210961  12.111   6.323  14.689
 3022SOL     OW10962   6.171   6.867  10.507
 3022SOL    HW110963   6.190   6.845  10.599
 3022SOL    HW210964   6.253   6.903  10.474
 3023SOL     OW10965   7.001   0.125   3.380
 3023SOL    HW110966   7.061   0.059   3.415
 3023SOL    HW210967   6.987   0.186   3.453
 3024SOL     OW10968   3.997  13.074  12.069
 3024SOL    HW110969   3.995  13.049  11.977
 3024SOL    HW210970   3.992  12.991  12.117
 3025SOL     OW10971   2.331   6.484   2.516
 3025SOL    HW110972   2.306   6.489   2.423
 3025SOL    HW210973   2.386   6.406   2.522
 3026SOL     OW10974   8.063  14.152   1.692
 3026SOL    HW110975   8.051  14.072   1.744
 3026SOL    HW210976   8.000  14.214   1.729
 3027SOL     OW10977   9.405   7.264   2.331
 3027SOL    HW110978   9.492   7.295   2.356
 3027SOL    HW210979   9.391   7.300   2.243
 3028SOL     OW10980   1.402   5.640  10.174
 3028SOL    HW110981   1.308   5.632  10.189
 3028SOL    HW210982   1.443   5.597  10.249
 3029SOL     OW10983  12.364  11.821  12.933
 3029SOL    HW110984  12.356  11.735  12.891
 3029SOL    HW210985  12.383  11.882  12.861
 3030SOL     OW10986   4.263  14.225  14.524
 3030SOL    HW110987   4.170  14.214  14.504
 3030SOL    HW210988   4.267  14.306  14.575
 3031SOL     OW10989   6.072   8.452   2.851
 3031SOL    HW110990   6.129   8.409   2.915
 3031SOL    HW210991   6.131   8.475   2.779
 3032SOL     OW10992   7.969   8.830  11.076
 3032SOL    HW110993   7.911   8.754  11.085
 3032SOL    HW210994   7.918   8.904  11.110
 3033SOL     OW10995   1.103  11.849   3.310
 3033SOL    HW110996   1.100  11.929   3.259
 3033SOL    HW210997   1.122  11.780   3.247
 3034SOL     OW10998   4.996  10.782   8.037
 3034SOL    HW110999   5.070  10.756   7.982
 3034SOL    HW211000   5.033  10.843   8.100
 3035SOL     OW11001   4.552   0.612  10.119
 3035SOL    HW111002   4.638   0.625  10.081
 3035SOL    HW211003   4.535   0.518  10.108
 3036SOL     OW11004  13.229  11.447   1.372
 3036SOL    HW111005  13.291  11.508   1.412
 3036SOL    HW211006  13.149  11.457   1.423
 3037SOL     OW11007   8.127   3.087   5.976
 3037SOL    HW111008   8.207   3.138   5.988
 3037SOL    HW211009   8.080   3.132   5.906
 3038SOL     OW11010   2.579   8.651  13.469
 3038SOL    HW111011   2.538   8.716  13.411
 3038SOL    HW211012   2.658   8.695  13.501
 3039SOL     OW11013   6.878  11.626   9.985
 3039SOL    HW111014   6.882  11.537   9.951
 3039SOL    HW211015   6.819  11.672   9.925
 3040SOL     OW11016   2.228   6.976  12.202
 3040SOL    HW111017   2.275   7.052  12.238
 3040SOL    HW211018   2.220   6.915  12.275
 3041SOL     OW11019   5.580  14.529  10.969
 3041SOL    HW111020   5.540  14.508  11.054
 3041SOL    HW211021   5.574  14.447  10.919
 3042SOL     OW11022   1.505  14.064   1.953
 3042SOL    HW111023   1.590  14.033   1.921
 3042SOL    HW211024   1.443  13.995   1.927
 3043SOL     OW11025   7.202   8.170   6.006
 3043SOL    HW111026   7.196   8.209   6.094
 3043SOL    HW211027   7.181   8.078   6.019
 3044SOL     OW11028  11.339   3.832  11.160
 3044SOL    HW111029  11.328   3.751  11.211
 3044SOL    HW211030  11.404   3.809  11.094
 3045SOL     OW11031  11.421   4.174  10.937
 3045SOL    HW111032  11.510   4.189  10.969
 3045SOL    HW211033  11.387   4.262  10.922
 3046SOL     OW11034  12.008   5.112   5.216
 3046SOL    HW111035  11.937   5.048   5.207
 3046SOL    HW211036  12.087   5.063   5.196
 3047SOL     OW11037  10.517  11.520   0.765
 3047SOL    HW111038  10.523  11.534   0.860
 3047SOL    HW211039  10.531  11.426   0.754
 3048SOL     OW11040  11.160   3.670   5.813
 3048SOL    HW111041  11.098   3.612   5.769
 3048SOL    HW211042  11.229   3.612   5.846
 3049SOL     OW11043  10.604   5.288   8.375
 3049SOL    HW111044  10.587   5.307   8.467
 3049SOL    HW211045  10.653   5.363   8.343
 3050SOL     OW11046  10.806   4.752   5.460
 3050SOL    HW111047  10.717   4.722   5.481
 3050SOL    HW211048  10.794   4.843   5.433
 3051SOL     OW11049   8.507  14.603  11.050
 3051SOL    HW111050   8.425  14.603  11.100
 3051SOL    HW211051   8.537  14.512  11.053
 3052SOL     OW11052  10.813   9.874   2.423
 3052SOL    HW111053  10.837   9.967   2.426
 3052SOL    HW211054  10.808   9.847   2.515
 3053SOL     OW11055  11.502   2.716   5.234
 3053SOL    HW111056  11.531   2.737   5.145
 3053SOL    HW211057  11.437   2.783   5.255
 3054SOL     OW11058   8.734   9.874   6.991
 3054SOL    HW111059   8.798   9.915   6.933
 3054SOL    HW211060   8.772   9.883   7.079
 3055SOL     OW11061   1.207   5.297  11.769
 3055SOL    HW111062   1.131   5.247  11.742
 3055SOL    HW211063   1.282   5.246  11.737
 3056SOL     OW11064   3.468   6.604   7.398
 3056SOL    HW111065   3.394   6.579   7.453
 3056SOL    HW211066   3.496   6.689   7.431
 3057SOL     OW11067   3.948  14.323   5.785
 3057SOL    HW111068   3.864  14.282   5.767
 3057SOL    HW211069   4.012  14.262   5.748
 3058SOL     OW11070  13.995   3.417  13.842
 3058SOL    HW111071  13.961   3.495  13.886
 3058SOL    HW211072  14.089   3.418  13.861
 3059SOL     OW11073  13.503   3.786   4.286
 3059SOL    HW111074  13.435   3.796   4.219
 3059SOL    HW211075  13.460   3.734   4.355
 3060SOL     OW11076   8.143   3.669  10.947
 3060SOL    HW111077   8.140   3.577  10.973
 3060SOL    HW211078   8.135   3.717  11.029
 3061SOL     OW11079  14.734   2.789   0.003
 3061SOL    HW111080  14.818   2.776  14.837
 3061SOL    HW211081  14.686   2.708  14.864
 3062SOL     OW11082   1.255   5.415   5.419
 3062SOL    HW111083   1.291   5.412   5.508
 3062SOL    HW211084   1.242   5.509   5.402
 3063SOL     OW11085   0.728  12.802   5.876
 3063SOL    HW111086   0.696  12.787   5.787
 3063SOL    HW211087   0.809  12.851   5.864
 3064SOL     OW11088  12.645   2.851   1.478
 3064SOL    HW111089  12.628   2.792   1.552
 3064SOL    HW211090  12.595   2.814   1.406
 3065SOL     OW11091  10.676   0.768  14.203
 3065SOL    HW111092  10.602   0.827  14.187
 3065SOL    HW211093  10.640   0.680  14.190
 3066SOL     OW11094  11.560   3.242   0.663
 3066SOL    HW111095  11.617   3.272   0.733
 3066SOL    HW211096  11.523   3.160   0.696
 3067SOL     OW11097  11.042   2.945  13.436
 3067SOL    HW111098  11.123   2.996  13.431
 3067SOL    HW211099  10.978   2.996  13.388
 3068SOL     OW11100   8.202   9.523   9.984
 3068SOL    HW111101   8.142   9.468  10.035
 3068SOL    HW211102   8.177   9.613  10.007
 3069SOL     OW11103  13.068   7.167   2.092
 3069SOL    HW111104  13.018   7.190   2.014
 3069SOL    HW211105  13.016   7.098   2.134
 3070SOL     OW11106   5.338  12.329   0.340
 3070SOL    HW111107   5.325  12.422   0.362
 3070SOL    HW211108   5.363  12.289   0.423
 3071SOL     OW11109  11.730  10.375   5.781
 3071SOL    HW111110  11.786  10.303   5.810
 3071SOL    HW211111  11.782  10.454   5.798
 3072SOL     OW11112   4.028   4.478  13.919
 3072SOL    HW111113   4.052   4.391  13.887
 3072SOL    HW211114   4.112   4.522  13.935
 3073SOL     OW11115   0.347  12.212   9.412
 3073SOL    HW111116   0.405  12.155   9.461
 3073SOL    HW211117   0.371  12.198   9.320
 3074SOL     OW11118   4.127   0.116   4.381
 3074SOL    HW111119   4.076   0.127   4.461
 3074SOL    HW211120   4.063   0.123   4.310
 3075SOL     OW11121  13.181   9.758   3.143
 3075SOL    HW111122  13.158   9.848   3.121
 3075SOL    HW211123  13.277   9.756   3.138
 3076SOL     OW11124  12.481   0.966   4.021
 3076SOL    HW111125  12.436   0.924   3.948
 3076SOL    HW211126  12.574   0.948   4.006
 3077SOL     OW11127  10.197   5.861   7.633
 3077SOL    HW111128  10.165   5.773   7.614
 3077SOL    HW211129  10.224   5.857   7.725
 3078SOL     OW11130  14.565  10.024   0.026
 3078SOL    HW111131  14.507  10.069  14.841
 3078SOL    HW211132  14.594  10.094   0.085
 3079SOL     OW11133   7.626   4.032   0.481
 3079SOL    HW111134   7.627   3.936   0.477
 3079SOL    HW211135   7.575   4.059   0.405
 3080SOL     OW11136   9.754  10.796   2.733
 3080SOL    HW111137   9.684  10.782   2.669
 3080SOL    HW211138   9.820  10.732   2.710
 3081SOL     OW11139   5.134   6.619   2.891
 3081SOL    HW111140   5.083   6.697   2.866
 3081SOL    HW211141   5.157   6.579   2.807
 3082SOL     OW11142   3.191   0.511   9.836
 3082SOL    HW111143   3.114   0.544   9.883
 3082SOL    HW211144   3.217   0.433   9.884
 3083SOL     OW11145  13.406  12.344  14.062
 3083SOL    HW111146  13.434  12.259  14.098
 3083SOL    HW211147  13.375  12.393  14.138
 3084SOL     OW11148  12.248   9.185  14.446
 3084SOL    HW111149  12.214   9.165  14.533
 3084SOL    HW211150  12.331   9.231  14.462
 3085SOL     OW11151   6.757   8.161  11.584
 3085SOL    HW111152   6.754   8.242  11.636
 3085SOL    HW211153   6.850   8.143  11.574
 3086SOL     OW11154   6.887  11.311   7.537
 3086SOL    HW111155   6.895  11.256   7.460
 3086SOL    HW211156   6.976  11.340   7.555
 3087SOL     OW11157   9.000  12.082   8.374
 3087SOL    HW111158   9.003  12.133   8.455
 3087SOL    HW211159   8.928  12.020   8.388
 3088SOL     OW11160   3.854   9.088   8.312
 3088SOL    HW111161   3.804   9.134   8.245
 3088SOL    HW211162   3.874   9.003   8.274
 3089SOL     OW11163   6.726  11.396   0.859
 3089SOL    HW111164   6.786  11.471   0.856
 3089SOL    HW211165   6.755  11.344   0.934
 3090SOL     OW11166   6.012   5.243  12.029
 3090SOL    HW111167   5.918   5.261  12.025
 3090SOL    HW211168   6.053   5.329  12.027
 3091SOL     OW11169  14.165   4.548   7.061
 3091SOL    HW111170  14.161   4.590   7.147
 3091SOL    HW211171  14.077   4.558   7.025
 3092SOL     OW11172  12.052  13.405   4.533
 3092SOL    HW111173  12.106  13.354   4.472
 3092SOL    HW211174  12.102  13.486   4.546
 3093SOL     OW11175  10.798   2.738  10.502
 3093SOL    HW111176  10.871   2.677  10.491
 3093SOL    HW211177  10.779   2.769  10.413
 3094SOL     OW11178   7.884   9.860   5.923
 3094SOL    HW111179   7.879   9.938   5.979
 3094SOL    HW211180   7.920   9.792   5.979
 3095SOL     OW11181  11.336  11.568   3.084
 3095SOL    HW111182  11.309  11.547   3.173
 3095SOL    HW211183  11.365  11.485   3.047
 3096SOL     OW11184  11.484   3.880   7.265
 3096SOL    HW111185  11.504   3.973   7.281
 3096SOL    HW211186  11.422   3.857   7.334
 3097SOL     OW11187   1.954  11.509   3.925
 3097SOL    HW111188   1.880  11.542   3.977
 3097SOL    HW211189   1.975  11.582   3.866
 3098SOL     OW11190  13.776   8.084  10.938
 3098SOL    HW111191  13.797   8.170  10.902
 3098SOL    HW211192  13.682   8.087  10.953
 3099SOL     OW11193  12.932   5.317  13.973
 3099SOL    HW111194  12.995   5.360  13.915
 3099SOL    HW211195  12.854   5.371  13.968
 3100SOL     OW11196   4.172  10.690  11.059
 3100SOL    HW111197   4.138  10.727  10.977
 3100SOL    HW211198   4.131  10.742  11.128
 3101SOL     OW11199   4.886  13.167   8.362
 3101SOL    HW111200   4.973  13.194   8.393
 3101SOL    HW211201   4.905  13.109   8.288
 3102SOL     OW11202   4.503  10.130  13.894
 3102SOL    HW111203   4.576  10.130  13.956
 3102SOL    HW211204   4.532  10.072  13.824
 3103SOL     OW11205   8.195   3.054  13.956
 3103SOL    HW111206   8.268   3.046  13.895
 3103SOL    HW211207   8.163   2.965  13.968
 3104SOL     OW11208   3.483   7.516   7.342
 3104SOL    HW111209   3.532   7.447   7.388
 3104SOL    HW211210   3.395   7.479   7.331
 3105SOL     OW11211   4.951   9.624  12.979
 3105SOL    HW111212   4.939   9.661  13.067
 3105SOL    HW211213   4.957   9.529  12.994
 3106SOL     OW11214  10.938  14.692   6.474
 3106SOL    HW111215  10.950  14.728   6.562
 3106SOL    HW211216  11.019  14.644   6.456
 3107SOL     OW11217   0.948  12.467  11.349
 3107SOL    HW111218   0.886  12.535  11.371
 3107SOL    HW211219   0.936  12.400  11.417
 3108SOL     OW11220   6.263   3.202   9.261
 3108SOL    HW111221   6.353   3.172   9.271
 3108SOL    HW211222   6.209   3.130   9.294
 3109SOL     OW11223  10.014  10.054  10.522
 3109SOL    HW111224   9.995   9.960  10.517
 3109SOL    HW211225   9.929  10.094  10.540
 3110SOL     OW11226   0.685   1.542   6.455
 3110SOL    HW111227   0.590   1.539   6.471
 3110SOL    HW211228   0.701   1.632   6.426
 3111SOL     OW11229   0.477   8.893   5.438
 3111SOL    HW111230   0.408   8.870   5.500
 3111SOL    HW211231   0.437   8.880   5.352
 3112SOL     OW11232   6.734  11.794   4.860
 3112SOL    HW111233   6.771  11.727   4.803
 3112SOL    HW211234   6.795  11.867   4.854
 3113SOL     OW11235   1.955   9.039   8.075
 3113SOL    HW111236   1.934   9.003   7.989
 3113SOL    HW211237   1.898   9.116   8.083
 3114SOL     OW11238   6.670   4.457  13.132
 3114SOL    HW111239   6.603   4.505  13.084
 3114SOL    HW211240   6.652   4.365  13.113
 3115SOL     OW11241   3.428   9.671   9.066
 3115SOL    HW111242   3.361   9.684   8.998
 3115SOL    HW211243   3.444   9.759   9.100
 3116SOL     OW11244   2.702   6.359   8.571
 3116SOL    HW111245   2.771   6.423   8.553
 3116SOL    HW211246   2.629   6.412   8.603
 3117SOL     OW11247   7.247   6.235   1.724
 3117SOL    HW111248   7.296   6.317   1.724
 3117SOL    HW211249   7.158   6.259   1.749
 3118SOL     OW11250  13.952  14.796   2.631
 3118SOL    HW111251  13.990   0.004   2.647
 3118SOL    HW211252  13.872  14.814   2.582
 3119SOL     OW11253   8.054   8.545   2.363
 3119SOL    HW111254   8.129   8.552   2.421
 3119SOL    HW211255   8.022   8.635   2.354
 3120SOL     OW11256  10.597  10.632   0.487
 3120SOL    HW111257  10.517  10.615   0.538
 3120SOL    HW211258  10.578  10.596   0.400
 3121SOL     OW11259   5.625  11.583   0.024
 3121SOL    HW111260   5.717  11.581   0.001
 3121SOL    HW211261   5.592  11.665  14.865
 3122SOL     OW11262   4.657   1.021   4.145
 3122SOL    HW111263   4.669   1.068   4.228
 3122SOL    HW211264   4.621   0.936   4.171
 3123SOL     OW11265   7.622   3.175   5.879
 3123SOL    HW111266   7.678   3.133   5.945
 3123SOL    HW211267   7.553   3.218   5.930
 3124SOL     OW11268   2.230   8.561   8.231
 3124SOL    HW111269   2.246   8.531   8.142
 3124SOL    HW211270   2.177   8.640   8.220
 3125SOL     OW11271   6.669  12.036   8.569
 3125SOL    HW111272   6.714  11.955   8.546
 3125SOL    HW211273   6.715  12.068   8.646
 3126SOL     OW11274  14.474   2.507   0.888
 3126SOL    HW111275  14.552   2.493   0.941
 3126SOL    HW211276  14.501   2.572   0.822
 3127SOL     OW11277   0.745   8.894   6.037
 3127SOL    HW111278   0.816   8.843   6.076
 3127SOL    HW211279   0.693   8.830   5.988
 3128SOL     OW11280   6.420   4.785   9.491
 3128SOL    HW111281   6.335   4.772   9.447
 3128SOL    HW211282   6.418   4.723   9.564
 3129SOL     OW11283   1.919   2.115   1.629
 3129SOL    HW111284   1.839   2.165   1.614
 3129SOL    HW211285   1.981   2.179   1.664
 3130SOL     OW11286   2.434   6.963   6.774
 3130SOL    HW111287   2.445   6.994   6.864
 3130SOL    HW211288   2.394   6.876   6.784
 3131SOL     OW11289  11.719  13.823  10.611
 3131SOL    HW111290  11.693  13.909  10.646
 3131SOL    HW211291  11.741  13.841  10.519
 3132SOL     OW11292   8.357   9.554  13.481
 3132SOL    HW111293   8.313   9.497  13.419
 3132SOL    HW211294   8.315   9.639  13.470
 3133SOL     OW11295   4.387   8.538  14.355
 3133SOL    HW111296   4.449   8.475  14.317
 3133SOL    HW211297   4.363   8.501  14.439
 3134SOL     OW11298   4.841  13.478   0.076
 3134SOL    HW111299   4.845  13.420  14.877
 3134SOL    HW211300   4.911  13.447   0.133
 3135SOL     OW11301   3.904   5.466   5.853
 3135SOL    HW111302   3.982   5.435   5.806
 3135SOL    HW211303   3.831   5.444   5.795
 3136SOL     OW11304   0.665   0.456   6.374
 3136SOL    HW111305   0.671   0.469   6.280
 3136SOL    HW211306   0.596   0.390   6.385
 3137SOL     OW11307   8.621   1.355   3.834
 3137SOL    HW111308   8.645   1.263   3.823
 3137SOL    HW211309   8.600   1.385   3.745
 3138SOL     OW11310   2.092   2.943  10.005
 3138SOL    HW111311   2.144   2.994  10.067
 3138SOL    HW211312   2.044   3.009   9.955
 3139SOL     OW11313   0.046  11.117   0.880
 3139SOL    HW111314   0.126  11.070   0.906
 3139SOL    HW211315  14.870  11.116   0.959
 3140SOL     OW11316   6.855  14.524   3.316
 3140SOL    HW111317   6.837  14.452   3.376
 3140SOL    HW211318   6.910  14.486   3.248
 3141SOL     OW11319   3.881   3.569   0.816
 3141SOL    HW111320   3.828   3.642   0.846
 3141SOL    HW211321   3.879   3.506   0.888
 3142SOL     OW11322   9.918   0.585  12.845
 3142SOL    HW111323   9.890   0.502  12.884
 3142SOL    HW211324   9.992   0.562  12.790
 3143SOL     OW11325  11.532   4.905   2.211
 3143SOL    HW111326  11.470   4.845   2.171
 3143SOL    HW211327  11.618   4.868   2.190
 3144SOL     OW11328   5.473   4.650  10.700
 3144SOL    HW111329   5.484   4.555  10.712
 3144SOL    HW211330   5.511   4.667  10.614
 3145SOL     OW11331   4.960   9.820   9.962
 3145SOL    HW111332   4.955   9.742  10.016
 3145SOL    HW211333   4.908   9.799   9.884
 3146SOL     OW11334   1.025  12.098   0.992
 3146SOL    HW111335   1.049  12.057   1.075
 3146SOL    HW211336   1.040  12.029   0.927
 3147SOL     OW11337   3.446   0.830   6.147
 3147SOL    HW111338   3.435   0.822   6.242
 3147SOL    HW211339   3.420   0.919   6.127
 3148SOL     OW11340   0.746   8.768  10.808
 3148SOL    HW111341   0.786   8.805  10.729
 3148SOL    HW211342   0.721   8.679  10.782
 3149SOL     OW11343   2.432  11.867   2.114
 3149SOL    HW111344   2.449  11.916   2.033
 3149SOL    HW211345   2.519  11.845   2.147
 3150SOL     OW11346   3.629   7.594   1.505
 3150SOL    HW111347   3.703   7.562   1.453
 3150SOL    HW211348   3.625   7.535   1.580
 3151SOL     OW11349  11.917   4.399  14.226
 3151SOL    HW111350  11.914   4.304  14.225
 3151SOL    HW211351  11.838   4.425  14.273
 3152SOL     OW11352   1.523  12.801   9.409
 3152SOL    HW111353   1.564  12.797   9.496
 3152SOL    HW211354   1.567  12.734   9.358
 3153SOL     OW11355   0.380   5.508   1.297
 3153SOL    HW111356   0.307   5.556   1.335
 3153SOL    HW211357   0.349   5.417   1.292
 3154SOL     OW11358   9.175   1.826   9.848
 3154SOL    HW111359   9.179   1.889   9.776
 3154SOL    HW211360   9.084   1.830   9.878
 3155SOL     OW11361   8.068   9.651  12.132
 3155SOL    HW111362   8.042   9.604  12.053
 3155SOL    HW211363   8.162   9.636  12.139
 3156SOL     OW11364   9.976  13.421   5.238
 3156SOL    HW111365   9.936  13.419   5.325
 3156SOL    HW211366  10.063  13.383   5.251
 3157SOL     OW11367   5.646  14.181   8.037
 3157SOL    HW111368   5.657  14.087   8.050
 3157SOL    HW211369   5.628  14.190   7.943
 3158SOL     OW11370   7.438   6.225   2.416
 3158SOL    HW111371   7.349   6.219   2.452
 3158SOL    HW211372   7.426   6.264   2.329
 3159SOL     OW11373   7.372  13.630   4.305
 3159SOL    HW111374   7.310  13.686   4.353
 3159SOL    HW211375   7.325  13.606   4.225
 3160SOL     OW11376  12.179  10.255   5.519
 3160SOL    HW111377  12.123  10.321   5.558
 3160SOL    HW211378  12.141  10.172   5.547
 3161SOL     OW11379  11.544   8.316   1.958
 3161SOL    HW111380  11.612   8.324   1.891
 3161SOL    HW211381  11.574   8.245   2.014
 3162SOL     OW11382   5.242  12.152   8.892
 3162SOL    HW111383   5.274  12.100   8.818
 3162SOL    HW211384   5.236  12.090   8.964
 3163SOL     OW11385   3.672   2.206   2.819
 3163SOL    HW111386   3.688   2.240   2.731
 3163SOL    HW211387   3.578   2.191   2.823
 3164SOL     OW11388   0.650   3.338   9.992
 3164SOL    HW111389   0.723   3.284   9.963
 3164SOL    HW211390   0.608   3.367   9.911
 3165SOL     OW11391   6.510  13.544  12.485
 3165SOL    HW111392   6.477  13.465  12.442
 3165SOL    HW211393   6.437  13.606  12.482
 3166SOL     OW11394  14.875  12.645  12.632
 3166SOL    HW111395  14.871  12.607  12.544
 3166SOL    HW211396  14.874  12.739  12.617
 3167SOL     OW11397   3.926   6.552   4.313
 3167SOL    HW111398   3.923   6.637   4.358
 3167SOL    HW211399   3.886   6.491   4.375
 3168SOL     OW11400   3.915   7.486  11.242
 3168SOL    HW111401   3.838   7.481  11.187
 3168SOL    HW211402   3.898   7.560  11.301
 3169SOL     OW11403   6.612   1.998  10.089
 3169SOL    HW111404   6.522   2.016  10.062
 3169SOL    HW211405   6.606   1.916  10.138
 3170SOL     OW11406  12.929  14.846   2.660
 3170SOL    HW111407  12.847  14.806   2.688
 3170SOL    HW211408  12.997  14.783   2.684
 3171SOL     OW11409   1.577   8.702   8.488
 3171SOL    HW111410   1.582   8.673   8.579
 3171SOL    HW211411   1.498   8.660   8.453
 3172SOL     OW11412  14.031  13.260  12.865
 3172SOL    HW111413  14.005  13.177  12.905
 3172SOL    HW211414  14.067  13.235  12.779
 3173SOL     OW11415  14.058   9.605  10.718
 3173SOL    HW111416  13.964   9.623  10.722
 3173SOL    HW211417  14.098   9.679  10.765
 3174SOL     OW11418   0.446  10.967  12.284
 3174SOL    HW111419   0.422  11.019  12.361
 3174SOL    HW211420   0.433  10.876  12.312
 3175SOL     OW11421   4.986   4.822   2.332
 3175SOL    HW111422   4.897   4.821   2.368
 3175SOL    HW211423   5.031   4.751   2.377
 3176SOL     OW11424  11.030  13.511   7.504
 3176SOL    HW111425  10.987  13.564   7.571
 3176SOL    HW211426  11.121  13.541   7.505
 3177SOL     OW11427   8.851   4.502   5.294
 3177SOL    HW111428   8.820   4.475   5.380
 3177SOL    HW211429   8.933   4.549   5.311
 3178SOL     OW11430  10.214   3.642  12.534
 3178SOL    HW111431  10.306   3.662  12.553
 3178SOL    HW211432  10.180   3.720  12.492
 3179SOL     OW11433  10.430   2.873   1.489
 3179SOL    HW111434  10.442   2.907   1.401
 3179SOL    HW211435  10.503   2.911   1.539
 3180SOL     OW11436  10.648   1.566   2.606
 3180SOL    HW111437  10.633   1.489   2.660
 3180SOL    HW211438  10.655   1.532   2.517
 3181SOL     OW11439   7.475   3.231   7.862
 3181SOL    HW111440   7.413   3.304   7.866
 3181SOL    HW211441   7.481   3.201   7.953
 3182SOL     OW11442  14.775   9.337   1.734
 3182SOL    HW111443  14.839   9.407   1.727
 3182SOL    HW211444  14.785   9.287   1.652
 3183SOL     OW11445   6.134   3.203  12.349
 3183SOL    HW111446   6.073   3.226  12.279
 3183SOL    HW211447   6.115   3.111  12.369
 3184SOL     OW11448   4.646   2.759   4.599
 3184SOL    HW111449   4.606   2.731   4.517
 3184SOL    HW211450   4.739   2.766   4.579
 3185SOL     OW11451  13.122   3.865  14.833
 3185SOL    HW111452  13.037   3.905  14.853
 3185SOL    HW211453  13.117   3.778  14.873
 3186SOL     OW11454   4.895  11.125   8.997
 3186SOL    HW111455   4.963  11.082   8.946
 3186SOL    HW211456   4.919  11.110   9.088
 3187SOL     OW11457   2.564  14.029   2.914
 3187SOL    HW111458   2.508  13.951   2.909
 3187SOL    HW211459   2.515  14.095   2.865
 3188SOL     OW11460   9.165  10.578   4.564
 3188SOL    HW111461   9.118  10.585   4.647
 3188SOL    HW211462   9.098  10.551   4.501
 3189SOL     OW11463   5.249   6.922   7.536
 3189SOL    HW111464   5.155   6.934   7.536
 3189SOL    HW211465   5.272   6.900   7.626
 3190SOL     OW11466   9.706   7.662   3.148
 3190SOL    HW111467   9.634   7.685   3.089
 3190SOL    HW211468   9.676   7.583   3.192
 3191SOL     OW11469   3.498   7.933   3.200
 3191SOL    HW111470   3.464   8.016   3.235
 3191SOL    HW211471   3.547   7.895   3.273
 3192SOL     OW11472   1.912   7.810   6.288
 3192SOL    HW111473   1.852   7.736   6.281
 3192SOL    HW211474   1.920   7.843   6.198
 3193SOL     OW11475   1.826  13.817   0.731
 3193SOL    HW111476   1.781  13.889   0.775
 3193SOL    HW211477   1.859  13.762   0.802
 3194SOL     OW11478   7.232   5.494  13.486
 3194SOL    HW111479   7.185   5.570  13.520
 3194SOL    HW211480   7.324   5.510  13.510
 3195SOL     OW11481   8.417   2.521   9.565
 3195SOL    HW111482   8.336   2.568   9.542
 3195SOL    HW211483   8.469   2.522   9.485
 3196SOL     OW11484   4.777   3.085  10.475
 3196SOL    HW111485   4.812   3.098  10.387
 3196SOL    HW211486   4.845   3.035  10.521
 3197SOL     OW11487   5.974   1.249  10.419
 3197SOL    HW111488   5.888   1.206  10.419
 3197SOL    HW211489   6.005   1.238  10.509
 3198SOL     OW11490   4.202  13.763   0.894
 3198SOL    HW111491   4.150  13.771   0.814
 3198SOL    HW211492   4.153  13.701   0.948
 3199SOL     OW11493  10.108   9.429   0.747
 3199SOL    HW111494  10.195   9.399   0.720
 3199SOL    HW211495  10.102   9.518   0.713
 3200SOL     OW11496  14.135   5.631   6.718
 3200SOL    HW111497  14.215   5.675   6.689
 3200SOL    HW211498  14.165   5.562   6.776
 3201SOL     OW11499   2.710  12.761   8.959
 3201SOL    HW111500   2.760  12.812   9.023
 3201SOL    HW211501   2.622  12.797   8.963
 3202SOL     OW11502   0.807  13.013   6.172
 3202SOL    HW111503   0.745  13.002   6.100
 3202SOL    HW211504   0.892  13.016   6.129
 3203SOL     OW11505   9.732  12.467   3.542
 3203SOL    HW111506   9.729  12.423   3.457
 3203SOL    HW211507   9.657  12.432   3.590
 3204SOL     OW11508   6.482   1.022   4.884
 3204SOL    HW111509   6.436   1.047   4.804
 3204SOL    HW211510   6.454   0.932   4.900
 3205SOL     OW11511   8.389  12.020   3.644
 3205SOL    HW111512   8.353  12.101   3.680
 3205SOL    HW211513   8.366  11.954   3.709
 3206SOL     OW11514   7.270   8.086  10.475
 3206SOL    HW111515   7.284   8.103  10.382
 3206SOL    HW211516   7.175   8.094  10.486
 3207SOL     OW11517  14.395   6.398   2.721
 3207SOL    HW111518  14.355   6.483   2.738
 3207SOL    HW211519  14.321   6.337   2.715
 3208SOL     OW11520   9.436   0.446  14.586
 3208SOL    HW111521   9.356   0.409  14.550
 3208SOL    HW211522   9.504   0.423  14.522
 3209SOL     OW11523   9.486  11.504   3.079
 3209SOL    HW111524   9.534  11.449   3.018
 3209SOL    HW211525   9.544  11.579   3.096
 3210SOL     OW11526   9.207  10.372   7.406
 3210SOL    HW111527   9.284  10.404   7.455
 3210SOL    HW211528   9.159  10.318   7.469
 3211SOL     OW11529   6.740   8.340   3.949
 3211SOL    HW111530   6.794   8.396   3.894
 3211SOL    HW211531   6.700   8.278   3.888
 3212SOL     OW11532   9.819  11.601   1.835
 3212SOL    HW111533   9.733  11.589   1.796
 3212SOL    HW211534   9.850  11.512   1.853
 3213SOL     OW11535   3.985   8.201   8.003
 3213SOL    HW111536   3.927   8.274   8.026
 3213SOL    HW211537   3.925   8.130   7.980
 3214SOL     OW11538   5.161   2.267   5.003
 3214SOL    HW111539   5.228   2.255   4.936
 3214SOL    HW211540   5.078   2.258   4.956
 3215SOL     OW11541   9.836   1.186  12.329
 3215SOL    HW111542   9.876   1.272  12.345
 3215SOL    HW211543   9.747   1.205  12.302
 3216SOL     OW11544  11.808   5.283   1.801
 3216SOL    HW111545  11.826   5.373   1.826
 3216SOL    HW211546  11.848   5.230   1.870
 3217SOL     OW11547   0.928   1.094   9.539
 3217SOL    HW111548   1.008   1.145   9.556
 3217SOL    HW211549   0.923   1.089   9.443
 3218SOL     OW11550  14.787   2.686   3.722
 3218SOL    HW111551  14.781   2.676   3.817
 3218SOL    HW211552   0.001   2.710   3.706
 3219SOL     OW11553   2.635  10.816   8.150
 3219SOL    HW111554   2.566  10.807   8.085
 3219SOL    HW211555   2.642  10.911   8.164
 3220SOL     OW11556   1.185   8.642  11.324
 3220SOL    HW111557   1.188   8.710  11.257
 3220SOL    HW211558   1.092   8.622  11.334
 3221SOL     OW11559  13.145  10.969  10.532
 3221SOL    HW111560  13.116  10.998  10.445
 3221SOL    HW211561  13.240  10.968  10.526
 3222SOL     OW11562   3.483   5.159   4.060
 3222SOL    HW111563   3.546   5.103   4.014
 3222SOL    HW211564   3.398   5.125   4.034
 3223SOL     OW11565  13.709   7.134  12.651
 3223SOL    HW111566  13.712   7.040  12.632
 3223SOL    HW211567  13.800   7.161  12.656
 3224SOL     OW11568   8.842   8.944  10.799
 3224SOL    HW111569   8.833   9.013  10.734
 3224SOL    HW211570   8.934   8.949  10.827
 3225SOL     OW11571  13.791   2.321   6.389
 3225SOL    HW111572  13.757   2.232   6.404
 3225SOL    HW211573  13.741   2.353   6.314
 3226SOL     OW11574  10.692   8.988  12.949
 3226SOL    HW111575  10.628   8.928  12.987
 3226SOL    HW211576  10.737   8.937  12.882
 3227SOL     OW11577  12.855   5.448  13.059
 3227SOL    HW111578  12.918   5.515  13.087
 3227SOL    HW211579  12.879   5.370  13.110
 3228SOL     OW11580  13.048  12.398   7.006
 3228SOL    HW111581  13.012  12.345   7.077
 3228SOL    HW211582  13.019  12.354   6.927
 3229SOL     OW11583   2.499   8.755   8.799
 3229SOL    HW111584   2.562   8.816   8.838
 3229SOL    HW211585   2.553   8.684   8.765
 3230SOL     OW11586   3.891  10.704   2.837
 3230SOL    HW111587   3.935  10.754   2.768
 3230SOL    HW211588   3.952  10.707   2.911
 3231SOL     OW11589  10.882   5.531   1.554
 3231SOL    HW111590  10.973   5.509   1.531
 3231SOL    HW211591  10.858   5.599   1.492
 3232SOL     OW11592  10.732  13.364   0.906
 3232SOL    HW111593  10.744  13.354   1.001
 3232SOL    HW211594  10.722  13.275   0.873
 3233SOL     OW11595  11.273   7.594   3.981
 3233SOL    HW111596  11.314   7.674   4.015
 3233SOL    HW211597  11.219   7.625   3.907
 3234SOL     OW11598   3.248   1.441  14.359
 3234SOL    HW111599   3.330   1.458  14.311
 3234SOL    HW211600   3.212   1.362  14.318
 3235SOL     OW11601   8.021  12.755  14.054
 3235SOL    HW111602   8.108  12.719  14.039
 3235SOL    HW211603   7.976  12.688  14.107
 3236SOL     OW11604   1.807  11.061   6.947
 3236SOL    HW111605   1.834  11.137   7.000
 3236SOL    HW211606   1.775  11.100   6.865
 3237SOL     OW11607  13.650  14.536   6.877
 3237SOL    HW111608  13.689  14.573   6.798
 3237SOL    HW211609  13.724  14.519   6.935
 3238SOL     OW11610  14.034   9.073   3.922
 3238SOL    HW111611  14.036   9.158   3.966
 3238SOL    HW211612  13.975   9.085   3.847
 3239SOL     OW11613   4.268  13.866  11.932
 3239SOL    HW111614   4.350  13.824  11.906
 3239SOL    HW211615   4.251  13.833  12.020
 3240SOL     OW11616  14.780   7.435   0.974
 3240SOL    HW111617  14.773   7.366   0.908
 3240SOL    HW211618  14.808   7.513   0.925
 3241SOL     OW11619  14.388  13.236   6.728
 3241SOL    HW111620  14.443  13.212   6.653
 3241SOL    HW211621  14.299  13.218   6.698
 3242SOL     OW11622  14.220   2.858  11.207
 3242SOL    HW111623  14.163   2.886  11.278
 3242SOL    HW211624  14.250   2.939  11.166
 3243SOL     OW11625  13.461   9.085   5.681
 3243SOL    HW111626  13.531   9.137   5.722
 3243SOL    HW211627  13.495   9.064   5.594
 3244SOL     OW11628  14.705   2.664  12.896
 3244SOL    HW111629  14.795   2.649  12.924
 3244SOL    HW211630  14.672   2.577  12.874
 3245SOL     OW11631   3.344   1.077  14.046
 3245SOL    HW111632   3.260   1.073  14.000
 3245SOL    HW211633   3.324   1.117  14.130
 3246SOL     OW11634  14.681   6.995   8.044
 3246SOL    HW111635  14.721   6.928   7.989
 3246SOL    HW211636  14.659   6.950   8.125
 3247SOL     OW11637   9.708  14.079  10.728
 3247SOL    HW111638   9.730  13.986  10.719
 3247SOL    HW211639   9.612  14.080  10.732
 3248SOL     OW11640  12.420   6.883   9.718
 3248SOL    HW111641  12.509   6.877   9.682
 3248SOL    HW211642  12.381   6.798   9.701
 3249SOL     OW11643   5.954   0.391   9.638
 3249SOL    HW111644   5.898   0.314   9.639
 3249SOL    HW211645   5.993   0.394   9.725
 3250SOL     OW11646  13.675  12.526  11.009
 3250SOL    HW111647  13.622  12.473  11.068
 3250SOL    HW211648  13.632  12.611  11.006
 3251SOL     OW11649   2.912   7.181   5.121
 3251SOL    HW111650   2.994   7.225   5.147
 3251SOL    HW211651   2.920   7.171   5.026
 3252SOL     OW11652   6.580  13.718   2.679
 3252SOL    HW111653   6.542  13.752   2.599
 3252SOL    HW211654   6.561  13.784   2.745
 3253SOL     OW11655   9.816   6.582  14.255
 3253SOL    HW111656   9.890   6.642  14.255
 3253SOL    HW211657   9.767   6.605  14.176
 3254SOL     OW11658  12.991   8.987  10.053
 3254SOL    HW111659  12.954   9.066  10.015
 3254SOL    HW211660  13.085   8.996  10.040
 3255SOL     OW11661  11.912  12.385  14.400
 3255SOL    HW111662  11.819  12.394  14.380
 3255SOL    HW211663  11.952  12.359  14.317
 3256SOL     OW11664   6.797   1.325  12.076
 3256SOL    HW111665   6.762   1.298  11.991
 3256SOL    HW211666   6.823   1.244  12.119
 3257SOL     OW11667  14.732   8.967   3.126
 3257SOL    HW111668  14.789   8.992   3.198
 3257SOL    HW211669  14.773   8.888   3.089
 3258SOL     OW11670   1.238   3.800   3.995
 3258SOL    HW111671   1.225   3.878   3.941
 3258SOL    HW211672   1.266   3.732   3.934
 3259SOL     OW11673   4.038   3.262   8.615
 3259SOL    HW111674   3.987   3.308   8.549
 3259SOL    HW211675   4.039   3.321   8.690
 3260SOL     OW11676  13.364   1.882  11.869
 3260SOL    HW111677  13.450   1.923  11.880
 3260SOL    HW211678  13.378   1.789  11.887
 3261SOL     OW11679  11.613  13.007   4.285
 3261SOL    HW111680  11.542  13.032   4.226
 3261SOL    HW211681  11.608  13.070   4.356
 3262SOL     OW11682   0.624   5.558   4.774
 3262SOL    HW111683   0.566   5.486   4.749
 3262SOL    HW211684   0.712   5.523   4.759
 3263SOL     OW11685  10.959  11.954  14.423
 3263SOL    HW111686  10.895  11.972  14.492
 3263SOL    HW211687  10.967  12.037  14.375
 3264SOL     OW11688  14.325   1.953  11.127
 3264SOL    HW111689  14.400   1.908  11.088
 3264SOL    HW211690  14.336   2.045  11.102
 3265SOL     OW11691  12.747   2.498  12.395
 3265SOL    HW111692  12.665   2.548  12.392
 3265SOL    HW211693  12.761   2.482  12.488
 3266SOL     OW11694   7.925   4.506   2.515
 3266SOL    HW111695   7.939   4.427   2.566
 3266SOL    HW211696   7.979   4.495   2.437
 3267SOL     OW11697  11.400   7.098   1.583
 3267SOL    HW111698  11.386   7.058   1.498
 3267SOL    HW211699  11.397   7.025   1.645
 3268SOL     OW11700   7.985   5.005   2.692
 3268SOL    HW111701   7.901   5.027   2.731
 3268SOL    HW211702   7.966   4.934   2.631
 3269SOL     OW11703  10.843   1.906   8.056
 3269SOL    HW111704  10.821   1.980   8.000
 3269SOL    HW211705  10.761   1.859   8.068
 3270SOL     OW11706  13.872   0.197  11.089
 3270SOL    HW111707  13.852   0.290  11.091
 3270SOL    HW211708  13.788   0.154  11.100
 3271SOL     OW11709   4.332   9.947   0.677
 3271SOL    HW111710   4.359   9.943   0.585
 3271SOL    HW211711   4.312  10.040   0.691
 3272SOL     OW11712   2.697   6.207  14.465
 3272SOL    HW111713   2.769   6.144  14.463
 3272SOL    HW211714   2.731   6.285  14.421
 3273SOL     OW11715   9.292  12.824  13.455
 3273SOL    HW111716   9.270  12.797  13.545
 3273SOL    HW211717   9.220  12.790  13.402
 3274SOL     OW11718  12.904   2.239   5.258
 3274SOL    HW111719  12.934   2.292   5.184
 3274SOL    HW211720  12.980   2.235   5.316
 3275SOL     OW11721   4.683  14.821  12.444
 3275SOL    HW111722   4.768  14.841  12.403
 3275SOL    HW211723   4.672  14.727  12.432
 3276SOL     OW11724   9.073  11.642   2.491
 3276SOL    HW111725   9.089  11.550   2.470
 3276SOL    HW211726   9.121  11.657   2.572
 3277SOL     OW11727   7.988   7.800   8.000
 3277SOL    HW111728   8.064   7.827   8.051
 3277SOL    HW211729   7.975   7.871   7.936
 3278SOL     OW11730   2.727   7.147   9.974
 3278SOL    HW111731   2.665   7.128  10.044
 3278SOL    HW211732   2.731   7.065   9.923
 3279SOL     OW11733   5.976   3.577   3.776
 3279SOL    HW111734   5.911   3.610   3.839
 3279SOL    HW211735   5.949   3.487   3.759
 3280SOL     OW11736   6.732  13.751  13.647
 3280SOL    HW111737   6.718  13.846  13.651
 3280SOL    HW211738   6.815  13.737  13.691
 3281SOL     OW11739   8.497   1.028   2.228
 3281SOL    HW111740   8.456   0.993   2.307
 3281SOL    HW211741   8.442   0.996   2.156
 3282SOL     OW11742  11.063   3.040  13.842
 3282SOL    HW111743  10.984   3.000  13.807
 3282SOL    HW211744  11.132   2.976  13.828
 3283SOL     OW11745   1.069  13.244  14.458
 3283SOL    HW111746   1.096  13.255  14.367
 3283SOL    HW211747   1.011  13.167  14.457
 3284SOL     OW11748   6.342  13.198   4.959
 3284SOL    HW111749   6.323  13.113   4.919
 3284SOL    HW211750   6.409  13.180   5.025
 3285SOL     OW11751  13.037  12.846  11.378
 3285SOL    HW111752  13.037  12.916  11.443
 3285SOL    HW211753  12.944  12.827  11.364
 3286SOL     OW11754  11.742   5.577  10.575
 3286SOL    HW111755  11.694   5.534  10.645
 3286SOL    HW211756  11.830   5.539  10.577
 3287SOL     OW11757  13.466   6.985  11.130
 3287SOL    HW111758  13.515   6.935  11.065
 3287SOL    HW211759  13.521   7.061  11.148
 3288SOL     OW11760   1.397   5.818   7.525
 3288SOL    HW111761   1.443   5.828   7.442
 3288SOL    HW211762   1.370   5.726   7.528
 3289SOL     OW11763   9.321   1.364   8.061
 3289SOL    HW111764   9.302   1.421   8.136
 3289SOL    HW211765   9.274   1.283   8.080
 3290SOL     OW11766   5.732  14.751   8.841
 3290SOL    HW111767   5.774  14.669   8.867
 3290SOL    HW211768   5.786  14.785   8.771
 3291SOL     OW11769   7.837  10.695   5.038
 3291SOL    HW111770   7.757  10.678   5.087
 3291SOL    HW211771   7.808  10.743   4.960
 3292SOL     OW11772   2.993   2.476  11.250
 3292SOL    HW111773   2.923   2.541  11.262
 3292SOL    HW211774   3.007   2.474  11.155
 3293SOL     OW11775   8.473   8.719   9.041
 3293SOL    HW111776   8.385   8.720   9.076
 3293SOL    HW211777   8.509   8.634   9.067
 3294SOL     OW11778   1.792   8.980  11.338
 3294SOL    HW111779   1.751   9.031  11.268
 3294SOL    HW211780   1.860   9.038  11.373
 3295SOL     OW11781  11.608   3.888   0.252
 3295SOL    HW111782  11.647   3.975   0.241
 3295SOL    HW211783  11.639   3.859   0.338
 3296SOL     OW11784  10.108   1.277   7.680
 3296SOL    HW111785  10.046   1.348   7.665
 3296SOL    HW211786  10.167   1.311   7.748
 3297SOL     OW11787  13.672   1.543   4.757
 3297SOL    HW111788  13.688   1.521   4.849
 3297SOL    HW211789  13.642   1.633   4.759
 3298SOL     OW11790  13.122  13.001   7.629
 3298SOL    HW111791  13.156  12.927   7.579
 3298SOL    HW211792  13.055  13.039   7.573
 3299SOL     OW11793   6.206  10.177  13.553
 3299SOL    HW111794   6.153  10.097  13.549
 3299SOL    HW211795   6.294  10.146  13.575
 3300SOL     OW11796   0.280  13.578  13.582
 3300SOL    HW111797   0.354  13.547  13.531
 3300SOL    HW211798   0.243  13.650  13.530
 3301SOL     OW11799   0.646   4.737  11.766
 3301SOL    HW111800   0.680   4.694  11.844
 3301SOL    HW211801   0.625   4.826  11.794
 3302SOL     OW11802   4.606   2.190   2.766
 3302SOL    HW111803   4.587   2.275   2.807
 3302SOL    HW211804   4.690   2.163   2.805
 3303SOL     OW11805   5.102   3.312   4.074
 3303SOL    HW111806   5.075   3.399   4.046
 3303SOL    HW211807   5.021   3.260   4.070
 3304SOL     OW11808   3.844   4.716   3.060
 3304SOL    HW111809   3.781   4.765   3.113
 3304SOL    HW211810   3.790   4.653   3.011
 3305SOL     OW11811   3.638  13.043  12.284
 3305SOL    HW111812   3.568  13.056  12.221
 3305SOL    HW211813   3.696  13.118  12.272
 3306SOL     OW11814  10.844   7.559   6.779
 3306SOL    HW111815  10.824   7.482   6.727
 3306SOL    HW211816  10.760   7.587   6.815
 3307SOL     OW11817   2.855   3.315   4.986
 3307SOL    HW111818   2.941   3.307   5.026
 3307SOL    HW211819   2.872   3.332   4.894
 3308SOL     OW11820  14.200  14.815  14.818
 3308SOL    HW111821  14.259  14.812  14.743
 3308SOL    HW211822  14.135   0.004  14.796
 3309SOL     OW11823   9.704  13.308   9.623
 3309SOL    HW111824   9.618  13.267   9.618
 3309SOL    HW211825   9.734  13.312   9.532
 3310SOL     OW11826   6.647   8.124  13.408
 3310SOL    HW111827   6.646   8.216  13.435
 3310SOL    HW211828   6.620   8.076  13.486
 3311SOL     OW11829   4.175   5.561  14.806
 3311SOL    HW111830   4.171   5.510  14.724
 3311SOL    HW211831   4.120   5.638  14.789
 3312SOL     OW11832  11.393   4.487  13.495
 3312SOL    HW111833  11.382   4.394  13.474
 3312SOL    HW211834  11.334   4.501  13.570
 3313SOL     OW11835  14.518   8.000   9.076
 3313SOL    HW111836  14.572   7.928   9.042
 3313SOL    HW211837  14.540   8.004   9.169
 3314SOL     OW11838  10.763   9.098  10.192
 3314SOL    HW111839  10.725   9.164  10.134
 3314SOL    HW211840  10.809   9.039  10.133
 3315SOL     OW11841  12.157   0.350  11.022
 3315SOL    HW111842  12.090   0.414  11.045
 3315SOL    HW211843  12.164   0.294  11.099
 3316SOL     OW11844   1.404   5.708   2.663
 3316SOL    HW111845   1.311   5.730   2.661
 3316SOL    HW211846   1.408   5.616   2.687
 3317SOL     OW11847   2.623   5.766   4.029
 3317SOL    HW111848   2.638   5.678   3.994
 3317SOL    HW211849   2.710   5.805   4.035
 3318SOL     OW11850  13.400   8.789  12.417
 3318SOL    HW111851  13.407   8.726  12.345
 3318SOL    HW211852  13.423   8.738  12.495
 3319SOL     OW11853   1.565  14.328  10.205
 3319SOL    HW111854   1.524  14.260  10.258
 3319SOL    HW211855   1.640  14.358  10.256
 3320SOL     OW11856   2.749   1.271   4.653
 3320SOL    HW111857   2.753   1.364   4.673
 3320SOL    HW211858   2.838   1.249   4.624
 3321SOL     OW11859  10.594   6.373   5.144
 3321SOL    HW111860  10.505   6.352   5.115
 3321SOL    HW211861  10.586   6.458   5.187
 3322SOL     OW11862   5.340   9.837  12.262
 3322SOL    HW111863   5.390   9.909  12.301
 3322SOL    HW211864   5.334   9.772  12.332
 3323SOL     OW11865   4.017  13.452   6.006
 3323SOL    HW111866   4.055  13.375   5.963
 3323SOL    HW211867   4.004  13.424   6.097
 3324SOL     OW11868   6.986  12.392  13.742
 3324SOL    HW111869   7.006  12.484  13.757
 3324SOL    HW211870   7.061  12.358  13.694
 3325SOL     OW11871   0.041  12.306   4.528
 3325SOL    HW111872   0.070  12.261   4.449
 3325SOL    HW211873   0.089  12.263   4.599
 3326SOL     OW11874   2.413   0.010   4.809
 3326SOL    HW111875   2.372  14.842   4.735
 3326SOL    HW211876   2.484  14.830   4.836
 3327SOL     OW11877  12.111  13.390  11.456
 3327SOL    HW111878  12.112  13.328  11.383
 3327SOL    HW211879  12.040  13.359  11.513
 3328SOL     OW11880  14.129   9.947  13.187
 3328SOL    HW111881  14.177   9.956  13.270
 3328SOL    HW211882  14.043   9.913  13.213
 3329SOL     OW11883   3.931  12.199   8.207
 3329SOL    HW111884   3.941  12.125   8.268
 3329SOL    HW211885   3.876  12.165   8.137
 3330SOL     OW11886  12.037   5.021   9.582
 3330SOL    HW111887  12.110   5.035   9.642
 3330SOL    HW211888  12.071   4.963   9.514
 3331SOL     OW11889  10.139   7.226   3.184
 3331SOL    HW111890  10.140   7.317   3.155
 3331SOL    HW211891  10.051   7.195   3.165
 3332SOL     OW11892   8.411   7.426   8.982
 3332SOL    HW111893   8.337   7.471   9.022
 3332SOL    HW211894   8.470   7.408   9.055
 3333SOL     OW11895   7.957  12.599  12.400
 3333SOL    HW111896   8.026  12.561  12.455
 3333SOL    HW211897   7.952  12.541  12.324
 3334SOL     OW11898   7.976  12.297   7.301
 3334SOL    HW111899   7.934  12.214   7.325
 3334SOL    HW211900   8.049  12.305   7.362
 3335SOL     OW11901   4.138  12.187  12.015
 3335SOL    HW111902   4.230  12.210  12.014
 3335SOL    HW211903   4.093  12.265  11.982
 3336SOL     OW11904  11.577  13.829   1.447
 3336SOL    HW111905  11.623  13.866   1.522
 3336SOL    HW211906  11.570  13.735   1.467
 3337SOL     OW11907   6.529   1.938   6.817
 3337SOL    HW111908   6.538   1.893   6.901
 3337SOL    HW211909   6.588   2.013   6.822
 3338SOL     OW11910   2.818   1.317   0.828
 3338SOL    HW111911   2.769   1.278   0.900
 3338SOL    HW211912   2.821   1.411   0.849
 3339SOL     OW11913   4.961   2.799   6.749
 3339SOL    HW111914   4.890   2.744   6.717
 3339SOL    HW211915   4.976   2.772   6.839
 3340SOL     OW11916   9.359  11.616   6.495
 3340SOL    HW111917   9.309  11.697   6.491
 3340SOL    HW211918   9.295  11.550   6.523
 3341SOL     OW11919  11.404   3.245   8.310
 3341SOL    HW111920  11.323   3.278   8.348
 3341SOL    HW211921  11.447   3.199   8.381
 3342SOL     OW11922   5.698   2.712   8.550
 3342SOL    HW111923   5.688   2.799   8.511
 3342SOL    HW211924   5.770   2.723   8.613
 3343SOL     OW11925  11.068   4.199   6.206
 3343SOL    HW111926  11.060   4.243   6.291
 3343SOL    HW211927  11.013   4.121   6.214
 3344SOL     OW11928  14.592   2.973  14.711
 3344SOL    HW111929  14.636   2.935  14.787
 3344SOL    HW211930  14.661   3.019  14.664
 3345SOL     OW11931  12.733   4.709   4.192
 3345SOL    HW111932  12.737   4.659   4.273
 3345SOL    HW211933  12.809   4.680   4.142
 3346SOL     OW11934  14.291   3.543  10.677
 3346SOL    HW111935  14.311   3.609  10.744
 3346SOL    HW211936  14.202   3.513  10.699
 3347SOL     OW11937   5.810  13.751  13.256
 3347SOL    HW111938   5.888  13.767  13.309
 3347SOL    HW211939   5.779  13.839  13.232
 3348SOL     OW11940   7.970   0.425   5.864
 3348SOL    HW111941   7.990   0.508   5.821
 3348SOL    HW211942   7.997   0.358   5.801
 3349SOL     OW11943   4.350   3.996   1.725
 3349SOL    HW111944   4.431   4.031   1.687
 3349SOL    HW211945   4.281   4.030   1.670
 3350SOL     OW11946  11.973   2.245   3.407
 3350SOL    HW111947  11.917   2.289   3.342
 3350SOL    HW211948  12.003   2.315   3.464
 3351SOL     OW11949  13.894   8.579  10.873
 3351SOL    HW111950  13.954   8.592  10.800
 3351SOL    HW211951  13.951   8.566  10.949
 3352SOL     OW11952  14.564   8.690   9.230
 3352SOL    HW111953  14.501   8.662   9.164
 3352SOL    HW211954  14.511   8.706   9.308
 3353SOL     OW11955  14.404  12.781   4.919
 3353SOL    HW111956  14.406  12.871   4.951
 3353SOL    HW211957  14.434  12.729   4.993
 3354SOL     OW11958   4.967   7.054   4.701
 3354SOL    HW111959   4.967   6.984   4.767
 3354SOL    HW211960   5.053   7.047   4.659
 3355SOL     OW11961   3.997   7.634   4.096
 3355SOL    HW111962   3.921   7.621   4.153
 3355SOL    HW211963   3.975   7.586   4.016
 3356SOL     OW11964  13.601   7.010   0.176
 3356SOL    HW111965  13.660   6.937   0.194
 3356SOL    HW211966  13.553   7.023   0.257
 3357SOL     OW11967   3.787  10.345  11.088
 3357SOL    HW111968   3.788  10.389  11.173
 3357SOL    HW211969   3.865  10.379  11.043
 3358SOL     OW11970   7.388  11.189  11.297
 3358SOL    HW111971   7.401  11.162  11.388
 3358SOL    HW211972   7.475  11.188  11.259
 3359SOL     OW11973   9.301   0.809  12.702
 3359SOL    HW111974   9.366   0.820  12.633
 3359SOL    HW211975   9.268   0.720  12.690
 3360SOL     OW11976   6.084  10.230   6.819
 3360SOL    HW111977   6.003  10.270   6.851
 3360SOL    HW211978   6.097  10.269   6.733
 3361SOL     OW11979  14.205   1.180   8.009
 3361SOL    HW111980  14.175   1.241   8.076
 3361SOL    HW211981  14.287   1.144   8.043
 3362SOL     OW11982  13.682  14.746   6.103
 3362SOL    HW111983  13.728  14.731   6.186
 3362SOL    HW211984  13.728  14.691   6.040
 3363SOL     OW11985  14.361   1.227   1.745
 3363SOL    HW111986  14.445   1.227   1.699
 3363SOL    HW211987  14.373   1.288   1.818
 3364SOL     OW11988   3.888   9.226   1.423
 3364SOL    HW111989   3.947   9.299   1.442
 3364SOL    HW211990   3.821   9.230   1.491
 3365SOL     OW11991   2.770   2.778  13.178
 3365SOL    HW111992   2.806   2.861  13.147
 3365SOL    HW211993   2.846   2.725  13.198
 3366SOL     OW11994   0.431   7.156  11.263
 3366SOL    HW111995   0.438   7.069  11.300
 3366SOL    HW211996   0.480   7.151  11.180
 3367SOL     OW11997   5.398   1.106   8.502
 3367SOL    HW111998   5.420   1.069   8.588
 3367SOL    HW211999   5.313   1.147   8.516
 3368SOL     OW12000   2.756  12.810   7.331
 3368SOL    HW112001   2.776  12.872   7.400
 3368SOL    HW212002   2.726  12.864   7.258
 3369SOL     OW12003  11.635   5.803  13.326
 3369SOL    HW112004  11.606   5.743  13.394
 3369SOL    HW212005  11.565   5.801  13.260
 3370SOL     OW12006   8.850  13.696  11.365
 3370SOL    HW112007   8.886  13.764  11.309
 3370SOL    HW212008   8.893  13.709  11.449
 3371SOL     OW12009   7.818   9.142  12.175
 3371SOL    HW112010   7.764   9.086  12.118
 3371SOL    HW212011   7.847   9.084  12.245
 3372SOL     OW12012   5.221   1.680   1.152
 3372SOL    HW112013   5.199   1.685   1.245
 3372SOL    HW212014   5.312   1.708   1.147
 3373SOL     OW12015   1.549   0.072   0.917
 3373SOL    HW112016   1.525   0.071   1.009
 3373SOL    HW212017   1.639   0.105   0.916
 3374SOL     OW12018   2.941   6.765   1.963
 3374SOL    HW112019   2.935   6.844   2.016
 3374SOL    HW212020   2.853   6.753   1.927
 3375SOL     OW12021   4.027   1.079   4.047
 3375SOL    HW112022   3.979   1.160   4.058
 3375SOL    HW212023   4.118   1.106   4.038
 3376SOL     OW12024  10.333  13.744  10.744
 3376SOL    HW112025  10.351  13.671  10.686
 3376SOL    HW212026  10.241  13.765  10.729
 3377SOL     OW12027  14.395   3.069   7.619
 3377SOL    HW112028  14.410   3.015   7.697
 3377SOL    HW212029  14.465   3.045   7.559
 3378SOL     OW12030   0.040  14.537   7.463
 3378SOL    HW112031  14.823  14.530   7.477
 3378SOL    HW212032   0.070  14.601   7.528
 3379SOL     OW12033  11.398  14.136  11.656
 3379SOL    HW112034  11.469  14.116  11.595
 3379SOL    HW212035  11.440  14.184  11.728
 3380SOL     OW12036   6.862   5.129   5.111
 3380SOL    HW112037   6.782   5.180   5.120
 3380SOL    HW212038   6.933   5.193   5.123
 3381SOL     OW12039   7.334   1.105   3.464
 3381SOL    HW112040   7.421   1.078   3.494
 3381SOL    HW212041   7.347   1.193   3.430
 3382SOL     OW12042  14.762   2.391  12.920
 3382SOL    HW112043  14.846   2.378  12.965
 3382SOL    HW212044  14.786   2.395  12.827
 3383SOL     OW12045   7.072  12.556  12.714
 3383SOL    HW112046   7.122  12.629  12.751
 3383SOL    HW212047   7.081  12.565  12.620
 3384SOL     OW12048   5.660   0.949  14.545
 3384SOL    HW112049   5.641   1.038  14.518
 3384SOL    HW212050   5.589   0.897  14.508
 3385SOL     OW12051   0.964  11.552   9.151
 3385SOL    HW112052   1.039  11.560   9.093
 3385SOL    HW212053   1.001  11.557   9.239
 3386SOL     OW12054   1.442   4.963  10.789
 3386SOL    HW112055   1.465   5.050  10.821
 3386SOL    HW212056   1.442   4.907  10.866
 3387SOL     OW12057   3.018  10.825   2.108
 3387SOL    HW112058   3.076  10.810   2.033
 3387SOL    HW212059   2.992  10.737   2.135
 3388SOL     OW12060   5.632   7.440  11.586
 3388SOL    HW112061   5.717   7.397  11.579
 3388SOL    HW212062   5.653   7.534  11.589
 3389SOL     OW12063   5.408  12.967   1.230
 3389SOL    HW112064   5.380  12.876   1.227
 3389SOL    HW212065   5.326  13.017   1.227
 3390SOL     OW12066   7.572   8.409  10.216
 3390SOL    HW112067   7.480   8.385  10.208
 3390SOL    HW212068   7.621   8.332  10.189
 3391SOL     OW12069  13.632  13.348  14.373
 3391SOL    HW112070  13.607  13.286  14.442
 3391SOL    HW212071  13.610  13.303  14.292
 3392SOL     OW12072   8.288  13.183  12.688
 3392SOL    HW112073   8.194  13.188  12.669
 3392SOL    HW212074   8.317  13.275  12.690
 3393SOL     OW12075  13.141   0.735  10.214
 3393SOL    HW112076  13.099   0.695  10.291
 3393SOL    HW212077  13.092   0.817  10.201
 3394SOL     OW12078   5.290  12.375  10.787
 3394SOL    HW112079   5.308  12.282  10.770
 3394SOL    HW212080   5.229  12.400  10.718
 3395SOL     OW12081  10.527  10.058  13.828
 3395SOL    HW112082  10.562   9.978  13.789
 3395SOL    HW212083  10.588  10.080  13.898
 3396SOL     OW12084  11.173  13.004   4.386
 3396SOL    HW112085  11.187  12.947   4.311
 3396SOL    HW212086  11.246  13.066   4.382
 3397SOL     OW12087  14.228   2.501   9.153
 3397SOL    HW112088  14.153   2.443   9.166
 3397SOL    HW212089  14.228   2.558   9.230
 3398SOL     OW12090   2.077   2.411   2.226
 3398SOL    HW112091   2.156   2.400   2.172
 3398SOL    HW212092   2.093   2.356   2.303
 3399SOL     OW12093   3.783  14.707   4.683
 3399SOL    HW112094   3.760  14.744   4.598
 3399SOL    HW212095   3.797  14.783   4.739
 3400SOL     OW12096   4.163  14.702   5.755
 3400SOL    HW112097   4.223  14.763   5.799
 3400SOL    HW212098   4.088  14.695   5.815
 3401SOL     OW12099   0.894  10.202  12.500
 3401SOL    HW112100   0.962  10.136  12.516
 3401SOL    HW212101   0.824  10.155  12.455
 3402SOL     OW12102  12.282  11.715  14.660
 3402SOL    HW112103  12.306  11.666  14.581
 3402SOL    HW212104  12.366  11.742  14.697
 3403SOL     OW12105  13.445  12.148  12.841
 3403SOL    HW112106  13.521  12.157  12.784
 3403SOL    HW212107  13.372  12.183  12.790
 3404SOL     OW12108  12.916   0.155  12.448
 3404SOL    HW112109  12.940   0.066  12.475
 3404SOL    HW212110  12.833   0.172  12.495
 3405SOL     OW12111   1.818  11.749   5.738
 3405SOL    HW112112   1.853  11.836   5.759
 3405SOL    HW212113   1.768  11.725   5.816
 3406SOL     OW12114   7.914  12.333   8.818
 3406SOL    HW112115   7.866  12.252   8.804
 3406SOL    HW212116   7.883  12.392   8.749
 3407SOL     OW12117   8.976  12.442   2.476
 3407SOL    HW112118   9.065  12.452   2.443
 3407SOL    HW212119   8.982  12.369   2.538
 3408SOL     OW12120  13.412   1.744  14.726
 3408SOL    HW112121  13.451   1.737  14.639
 3408SOL    HW212122  13.415   1.838  14.746
 3409SOL     OW12123  13.603   9.043   3.273
 3409SOL    HW112124  13.576   9.032   3.364
 3409SOL    HW212125  13.671   9.110   3.276
 3410SOL     OW12126   7.498   8.569   7.519
 3410SOL    HW112127   7.486   8.491   7.464
 3410SOL    HW212128   7.581   8.553   7.564
 3411SOL     OW12129  14.543   4.605  10.750
 3411SOL    HW112130  14.611   4.672  10.743
 3411SOL    HW212131  14.466   4.653  10.781
 3412SOL     OW12132   0.201   7.534  14.379
 3412SOL    HW112133   0.171   7.625  14.381
 3412SOL    HW212134   0.263   7.527  14.452
 3413SOL     OW12135   9.404   2.269   0.727
 3413SOL    HW112136   9.369   2.320   0.654
 3413SOL    HW212137   9.335   2.205   0.747
 3414SOL     OW12138   3.932   6.122   3.470
 3414SOL    HW112139   3.985   6.185   3.422
 3414SOL    HW212140   3.846   6.125   3.427
 3415SOL     OW12141   4.072   3.322   3.192
 3415SOL    HW112142   4.112   3.306   3.278
 3415SOL    HW212143   3.985   3.356   3.213
 3416SOL     OW12144   7.457   9.068   1.938
 3416SOL    HW112145   7.419   8.982   1.924
 3416SOL    HW212146   7.456   9.110   1.852
 3417SOL     OW12147  11.053   2.741  10.133
 3417SOL    HW112148  11.051   2.737  10.038
 3417SOL    HW212149  11.068   2.650  10.160
 3418SOL     OW12150  10.725   3.518   8.511
 3418SOL    HW112151  10.735   3.574   8.587
 3418SOL    HW212152  10.809   3.474   8.502
 3419SOL     OW12153   6.473   5.025   7.828
 3419SOL    HW112154   6.514   5.108   7.805
 3419SOL    HW212155   6.472   5.024   7.924
 3420SOL     OW12156   3.835   0.645   7.995
 3420SOL    HW112157   3.910   0.623   7.940
 3420SOL    HW212158   3.858   0.611   8.082
 3421SOL     OW12159  12.762  13.745   5.937
 3421SOL    HW112160  12.858  13.740   5.942
 3421SOL    HW212161  12.738  13.679   5.872
 3422SOL     OW12162  10.682   0.213   7.805
 3422SOL    HW112163  10.636   0.256   7.877
 3422SOL    HW212164  10.730   0.283   7.762
 3423SOL     OW12165   8.991  13.111  11.947
 3423SOL    HW112166   9.025  13.062  11.872
 3423SOL    HW212167   9.032  13.198  11.938
 3424SOL     OW12168  13.155   7.546   1.708
 3424SOL    HW112169  13.147   7.503   1.793
 3424SOL    HW212170  13.231   7.604   1.717
 3425SOL     OW12171   7.444  10.875  13.736
 3425SOL    HW112172   7.450  10.938  13.808
 3425SOL    HW212173   7.414  10.926  13.661
 3426SOL     OW12174  14.142   6.528   7.522
 3426SOL    HW112175  14.220   6.581   7.504
 3426SOL    HW212176  14.175   6.439   7.528
 3427SOL     OW12177  13.187  10.686  14.418
 3427SOL    HW112178  13.189  10.659  14.326
 3427SOL    HW212179  13.164  10.779  14.415
 3428SOL     OW12180   5.480  11.643   6.631
 3428SOL    HW112181   5.499  11.620   6.722
 3428SOL    HW212182   5.417  11.714   6.636
 3429SOL     OW12183   5.077   1.769  13.288
 3429SOL    HW112184   5.008   1.714  13.322
 3429SOL    HW212185   5.101   1.729  13.204
 3430SOL     OW12186   9.817   4.570   9.683
 3430SOL    HW112187   9.848   4.498   9.739
 3430SOL    HW212188   9.876   4.643   9.704
 3431SOL     OW12189   1.478  10.297   9.908
 3431SOL    HW112190   1.535  10.257   9.974
 3431SOL    HW212191   1.418  10.227   9.882
 3432SOL     OW12192   2.750   9.183   1.444
 3432SOL    HW112193   2.810   9.178   1.370
 3432SOL    HW212194   2.744   9.094   1.478
 3433SOL     OW12195   1.350  12.496   0.972
 3433SOL    HW112196   1.290  12.549   1.025
 3433SOL    HW212197   1.432  12.496   1.021
 3434SOL     OW12198  14.089  14.580  11.715
 3434SOL    HW112199  14.070  14.497  11.758
 3434SOL    HW212200  14.089  14.560  11.621
 3435SOL     OW12201   4.268  14.576   9.697
 3435SOL    HW112202   4.273  14.538   9.610
 3435SOL    HW212203   4.254  14.669   9.682
 3436SOL     OW12204   6.958   7.614   7.139
 3436SOL    HW112205   7.023   7.551   7.107
 3436SOL    HW212206   7.007   7.669   7.200
 3437SOL     OW12207   3.538   0.524   9.270
 3437SOL    HW112208   3.464   0.568   9.229
 3437SOL    HW212209   3.545   0.441   9.223
 3438SOL     OW12210  14.871  10.897   7.105
 3438SOL    HW112211   0.003  10.851   7.189
 3438SOL    HW212212  14.868  10.827   7.040
 3439SOL     OW12213   3.888   4.686   3.739
 3439SOL    HW112214   3.828   4.709   3.667
 3439SOL    HW212215   3.884   4.591   3.743
 3440SOL     OW12216  14.649   2.605   3.498
 3440SOL    HW112217  14.665   2.511   3.502
 3440SOL    HW212218  14.716   2.644   3.554
 3441SOL     OW12219   1.240   1.824   6.998
 3441SOL    HW112220   1.144   1.834   6.999
 3441SOL    HW212221   1.271   1.902   6.952
 3442SOL     OW12222   3.142   4.961   4.427
 3442SOL    HW112223   3.233   4.936   4.413
 3442SOL    HW212224   3.112   4.906   4.499
 3443SOL     OW12225   7.558   0.089  11.474
 3443SOL    HW112226   7.571   0.077  11.380
 3443SOL    HW212227   7.509   0.011  11.502
 3444SOL     OW12228  11.520   3.937  12.517
 3444SOL    HW112229  11.577   3.968  12.447
 3444SOL    HW212230  11.503   3.845  12.494
 3445SOL     OW12231   8.427   1.330  12.393
 3445SOL    HW112232   8.335   1.319  12.372
 3445SOL    HW212233   8.459   1.242  12.412
 3446SOL     OW12234  11.596  10.338   6.410
 3446SOL    HW112235  11.612  10.306   6.499
 3446SOL    HW212236  11.601  10.433   6.418
 3447SOL     OW12237   8.385  11.161   3.944
 3447SOL    HW112238   8.420  11.099   3.880
 3447SOL    HW212239   8.430  11.139   4.026
 3448SOL     OW12240   6.949   0.622   8.580
 3448SOL    HW112241   6.881   0.574   8.626
 3448SOL    HW212242   6.919   0.626   8.489
 3449SOL     OW12243   5.875   9.146   5.404
 3449SOL    HW112244   5.856   9.074   5.464
 3449SOL    HW212245   5.810   9.212   5.425
 3450SOL     OW12246   9.881   2.083  11.601
 3450SOL    HW112247   9.886   2.145  11.529
 3450SOL    HW212248   9.842   2.004  11.563
 3451SOL     OW12249  10.480   4.409   4.331
 3451SOL    HW112250  10.511   4.467   4.401
 3451SOL    HW212251  10.407   4.362   4.370
 3452SOL     OW12252  11.203   9.472   3.933
 3452SOL    HW112253  11.249   9.502   4.012
 3452SOL    HW212254  11.130   9.533   3.923
 3453SOL     OW12255   0.387   2.193   8.248
 3453SOL    HW112256   0.417   2.251   8.177
 3453SOL    HW212257   0.301   2.227   8.271
 3454SOL     OW12258   4.436   5.601  10.808
 3454SOL    HW112259   4.425   5.694  10.789
 3454SOL    HW212260   4.476   5.565  10.729
 3455SOL     OW12261  12.469   2.163   0.714
 3455SOL    HW112262  12.511   2.170   0.799
 3455SOL    HW212263  12.523   2.217   0.656
 3456SOL     OW12264   5.306   8.924   0.148
 3456SOL    HW112265   5.306   8.829   0.149
 3456SOL    HW212266   5.281   8.949   0.237
 3457SOL     OW12267  14.440   8.750  13.462
 3457SOL    HW112268  14.358   8.754  13.412
 3457SOL    HW212269  14.499   8.698  13.408
 3458SOL     OW12270   1.984   8.948   1.798
 3458SOL    HW112271   1.904   8.999   1.793
 3458SOL    HW212272   1.957   8.863   1.832
 3459SOL     OW12273  11.901   1.136   5.058
 3459SOL    HW112274  11.814   1.135   5.018
 3459SOL    HW212275  11.953   1.077   5.003
 3460SOL     OW12276   6.929  14.725   2.699
 3460SOL    HW112277   6.973  14.643   2.678
 3460SOL    HW212278   6.837  14.702   2.710
 3461SOL     OW12279   3.026   3.112   8.191
 3461SOL    HW112280   3.108   3.155   8.168
 3461SOL    HW212281   2.974   3.116   8.110
 3462SOL     OW12282   8.326   5.970  12.963
 3462SOL    HW112283   8.317   6.063  12.985
 3462SOL    HW212284   8.345   5.970  12.869
 3463SOL     OW12285   9.393  14.000   6.381
 3463SOL    HW112286   9.477  13.964   6.411
 3463SOL    HW212287   9.380  14.078   6.435
 3464SOL     OW12288   4.779  13.104  13.571
 3464SOL    HW112289   4.721  13.154  13.628
 3464SOL    HW212290   4.793  13.021  13.618
 3465SOL     OW12291  11.415  13.846   7.496
 3465SOL    HW112292  11.421  13.922   7.555
 3465SOL    HW212293  11.372  13.880   7.418
 3466SOL     OW12294   2.602  13.087   9.120
 3466SOL    HW112295   2.581  13.119   9.208
 3466SOL    HW212296   2.519  13.051   9.088
 3467SOL     OW12297   1.568   6.707   5.314
 3467SOL    HW112298   1.538   6.619   5.335
 3467SOL    HW212299   1.617   6.735   5.391
 3468SOL     OW12300   9.556   3.308   1.046
 3468SOL    HW112301   9.606   3.288   0.967
 3468SOL    HW212302   9.492   3.374   1.017
 3469SOL     OW12303  13.906   6.581   1.082
 3469SOL    HW112304  13.874   6.510   1.026
 3469SOL    HW212305  13.905   6.544   1.170
 3470SOL     OW12306   3.342  10.083   4.294
 3470SOL    HW112307   3.383   9.996   4.297
 3470SOL    HW212308   3.399  10.138   4.348
 3471SOL     OW12309   8.772   0.956   1.551
 3471SOL    HW112310   8.795   0.912   1.469
 3471SOL    HW212311   8.722   0.891   1.600
 3472SOL     OW12312   8.267  14.724   2.307
 3472SOL    HW112313   8.195  14.662   2.318
 3472SOL    HW212314   8.282  14.759   2.395
 3473SOL     OW12315   5.853  11.990  11.501
 3473SOL    HW112316   5.862  11.968  11.408
 3473SOL    HW212317   5.858  12.086  11.504
 3474SOL     OW12318   8.682   4.256   6.179
 3474SOL    HW112319   8.590   4.236   6.161
 3474SOL    HW212320   8.682   4.286   6.270
 3475SOL     OW12321  10.630  13.271  14.385
 3475SOL    HW112322  10.590  13.186  14.404
 3475SOL    HW212323  10.557  13.333  14.388
 3476SOL     OW12324   9.664  14.076   4.581
 3476SOL    HW112325   9.615  13.994   4.572
 3476SOL    HW212326   9.721  14.061   4.657
 3477SOL     OW12327   7.105   6.714  11.413
 3477SOL    HW112328   7.110   6.700  11.508
 3477SOL    HW212329   7.077   6.629  11.378
 3478SOL     OW12330   3.811   8.564   4.380
 3478SOL    HW112331   3.869   8.533   4.450
 3478SOL    HW212332   3.726   8.574   4.423
 3479SOL     OW12333  14.680   8.151  10.585
 3479SOL    HW112334  14.701   8.091  10.514
 3479SOL    HW212335  14.765   8.177  10.621
 3480SOL     OW12336   7.720   7.928  10.893
 3480SOL    HW112337   7.657   7.996  10.918
 3480SOL    HW212338   7.802   7.975  10.878
 3481SOL     OW12339   1.307   7.486   2.481
 3481SOL    HW112340   1.392   7.443   2.485
 3481SOL    HW212341   1.295   7.508   2.388
 3482SOL     OW12342   2.122   5.889  11.445
 3482SOL    HW112343   2.186   5.882  11.374
 3482SOL    HW212344   2.041   5.918  11.403
 3483SOL     OW12345   7.002  12.322   6.178
 3483SOL    HW112346   7.050  12.316   6.095
 3483SOL    HW212347   6.913  12.293   6.155
 3484SOL     OW12348   5.659   5.238   3.178
 3484SOL    HW112349   5.654   5.204   3.267
 3484SOL    HW212350   5.570   5.264   3.157
 3485SOL     OW12351   3.824  14.372   9.228
 3485SOL    HW112352   3.824  14.457   9.272
 3485SOL    HW212353   3.848  14.309   9.296
 3486SOL     OW12354   1.081   7.709  13.545
 3486SOL    HW112355   1.070   7.705  13.640
 3486SOL    HW212356   1.174   7.725  13.533
 3487SOL     OW12357   5.461  14.682   0.379
 3487SOL    HW112358   5.480  14.773   0.402
 3487SOL    HW212359   5.428  14.643   0.460
 3488SOL     OW12360  11.845   7.753   3.869
 3488SOL    HW112361  11.904   7.821   3.903
 3488SOL    HW212362  11.875   7.672   3.911
 3489SOL     OW12363  11.224   1.311   3.415
 3489SOL    HW112364  11.198   1.403   3.423
 3489SOL    HW212365  11.305   1.305   3.465
 3490SOL     OW12366  12.975   4.200   0.950
 3490SOL    HW112367  12.907   4.239   0.896
 3490SOL    HW212368  13.053   4.253   0.933
 3491SOL     OW12369  11.290   4.921   4.936
 3491SOL    HW112370  11.365   4.959   4.889
 3491SOL    HW212371  11.218   4.924   4.873
 3492SOL     OW12372  13.840   4.730   9.458
 3492SOL    HW112373  13.770   4.738   9.393
 3492SOL    HW212374  13.918   4.759   9.412
 3493SOL     OW12375   9.259   0.932   4.322
 3493SOL    HW112376   9.190   0.907   4.382
 3493SOL    HW212377   9.339   0.931   4.374
 3494SOL     OW12378  11.446   7.945   6.166
 3494SOL    HW112379  11.436   8.014   6.100
 3494SOL    HW212380  11.432   7.990   6.250
 3495SOL     OW12381   2.640   2.180   4.106
 3495SOL    HW112382   2.664   2.244   4.039
 3495SOL    HW212383   2.587   2.230   4.168
 3496SOL     OW12384  14.529   3.911   4.123
 3496SOL    HW112385  14.514   3.903   4.029
 3496SOL    HW212386  14.623   3.928   4.132
 3497SOL     OW12387   6.029   3.766   9.515
 3497SOL    HW112388   6.004   3.857   9.532
 3497SOL    HW212389   6.109   3.753   9.566
 3498SOL     OW12390   5.800   1.573  11.155
 3498SOL    HW112391   5.750   1.637  11.104
 3498SOL    HW212392   5.768   1.488  11.125
 3499SOL     OW12393   4.130   4.948  13.796
 3499SOL    HW112394   4.126   4.866  13.846
 3499SOL    HW212395   4.175   4.924  13.715
 3500SOL     OW12396  12.647   3.513   0.807
 3500SOL    HW112397  12.651   3.421   0.782
 3500SOL    HW212398  12.723   3.553   0.766
 3501SOL     OW12399  13.325   2.495   1.743
 3501SOL    HW112400  13.289   2.528   1.661
 3501SOL    HW212401  13.333   2.400   1.729
 3502SOL     OW12402   9.204   8.916   0.194
 3502SOL    HW112403   9.253   8.922   0.276
 3502SOL    HW212404   9.117   8.885   0.221
 3503SOL     OW12405   6.454  13.805   9.586
 3503SOL    HW112406   6.449  13.730   9.645
 3503SOL    HW212407   6.390  13.867   9.621
 3504SOL     OW12408  10.555  10.936   3.339
 3504SOL    HW112409  10.484  10.991   3.374
 3504SOL    HW212410  10.550  10.948   3.244
 3505SOL     OW12411   0.974   1.921  13.871
 3505SOL    HW112412   0.948   2.003  13.829
 3505SOL    HW212413   0.900   1.899  13.928
 3506SOL     OW12414   6.386   4.684  10.700
 3506SOL    HW112415   6.390   4.592  10.725
 3506SOL    HW212416   6.478   4.714  10.703
 3507SOL     OW12417  11.122   5.575   6.780
 3507SOL    HW112418  11.151   5.486   6.758
 3507SOL    HW212419  11.203   5.623   6.795
 3508SOL     OW12420   0.858  11.195   4.344
 3508SOL    HW112421   0.883  11.142   4.420
 3508SOL    HW212422   0.805  11.136   4.291
 3509SOL     OW12423   0.861   2.247   1.693
 3509SOL    HW112424   0.797   2.317   1.684
 3509SOL    HW212425   0.942   2.284   1.658
 3510SOL     OW12426   0.570   5.617  11.774
 3510SOL    HW112427   0.519   5.689  11.811
 3510SOL    HW212428   0.551   5.619  11.680
 3511SOL     OW12429  13.779   0.678  14.060
 3511SOL    HW112430  13.691   0.714  14.055
 3511SOL    HW212431  13.771   0.589  14.026
 3512SOL     OW12432   0.543  14.591   5.343
 3512SOL    HW112433   0.500  14.534   5.407
 3512SOL    HW212434   0.484  14.589   5.267
 3513SOL     OW12435   8.150   7.624   4.639
 3513SOL    HW112436   8.073   7.664   4.678
 3513SOL    HW212437   8.219   7.634   4.705
 3514SOL     OW12438  10.006   7.963   2.565
 3514SOL    HW112439  10.082   7.995   2.518
 3514SOL    HW212440   9.982   8.033   2.625
 3515SOL     OW12441   0.898   6.201   4.441
 3515SOL    HW112442   0.928   6.197   4.350
 3515SOL    HW212443   0.847   6.281   4.446
 3516SOL     OW12444  12.269   8.612  10.804
 3516SOL    HW112445  12.257   8.577  10.893
 3516SOL    HW212446  12.184   8.649  10.782
 3517SOL     OW12447   6.672   7.628  10.875
 3517SOL    HW112448   6.633   7.640  10.961
 3517SOL    HW212449   6.751   7.681  10.876
 3518SOL     OW12450   2.467   6.079   8.231
 3518SOL    HW112451   2.499   5.995   8.197
 3518SOL    HW212452   2.509   6.088   8.317
 3519SOL     OW12453   3.463  11.486  12.570
 3519SOL    HW112454   3.380  11.528  12.547
 3519SOL    HW212455   3.531  11.542  12.533
 3520SOL     OW12456   9.934   9.261   6.261
 3520SOL    HW112457   9.985   9.290   6.186
 3520SOL    HW212458   9.930   9.166   6.253
 3521SOL     OW12459  14.306   6.563  10.715
 3521SOL    HW112460  14.308   6.507  10.792
 3521SOL    HW212461  14.218   6.553  10.680
 3522SOL     OW12462  13.269  12.624   1.758
 3522SOL    HW112463  13.206  12.676   1.808
 3522SOL    HW212464  13.345  12.616   1.816
 3523SOL     OW12465   0.249  11.381   2.576
 3523SOL    HW112466   0.325  11.431   2.546
 3523SOL    HW212467   0.284  11.318   2.638
 3524SOL     OW12468   7.691   1.469   9.801
 3524SOL    HW112469   7.649   1.475   9.887
 3524SOL    HW212470   7.660   1.547   9.754
 3525SOL     OW12471   9.620   3.462  12.223
 3525SOL    HW112472   9.563   3.531  12.258
 3525SOL    HW212473   9.643   3.410  12.300
 3526SOL     OW12474   4.424   2.318  13.842
 3526SOL    HW112475   4.458   2.331  13.931
 3526SOL    HW212476   4.389   2.228  13.844
 3527SOL     OW12477  12.000   9.802   5.141
 3527SOL    HW112478  11.906   9.808   5.159
 3527SOL    HW212479  12.041   9.855   5.210
 3528SOL     OW12480   3.593   1.366   7.510
 3528SOL    HW112481   3.592   1.460   7.493
 3528SOL    HW212482   3.677   1.350   7.554
 3529SOL     OW12483  12.722   7.086   2.455
 3529SOL    HW112484  12.735   7.154   2.522
 3529SOL    HW212485  12.759   7.007   2.494
 3530SOL     OW12486   0.100   6.058  10.751
 3530SOL    HW112487   0.078   5.966  10.737
 3530SOL    HW212488   0.130   6.062  10.842
 3531SOL     OW12489  10.699  12.529   0.096
 3531SOL    HW112490  10.687  12.624   0.086
 3531SOL    HW212491  10.787  12.513   0.063
 3532SOL     OW12492  14.236  13.992   4.559
 3532SOL    HW112493  14.208  13.906   4.528
 3532SOL    HW212494  14.262  14.039   4.480
 3533SOL     OW12495   5.837   1.046   0.168
 3533SOL    HW112496   5.762   0.986   0.166
 3533SOL    HW212497   5.843   1.081   0.080
 3534SOL     OW12498   0.699   4.896   6.671
 3534SOL    HW112499   0.604   4.899   6.657
 3534SOL    HW212500   0.737   4.916   6.586
 3535SOL     OW12501  14.468   0.033   1.435
 3535SOL    HW112502  14.375   0.020   1.452
 3535SOL    HW212503  14.494  14.834   1.384
 3536SOL     OW12504   8.833   1.574  14.865
 3536SOL    HW112505   8.831   1.607   0.077
 3536SOL    HW212506   8.884   1.493  14.870
 3537SOL     OW12507   5.165   8.015  11.773
 3537SOL    HW112508   5.156   7.972  11.857
 3537SOL    HW212509   5.120   8.099  11.784
 3538SOL     OW12510   6.139   7.644  11.574
 3538SOL    HW112511   6.217   7.665  11.626
 3538SOL    HW212512   6.168   7.655  11.483
 3539SOL     OW12513   2.204   8.151   2.747
 3539SOL    HW112514   2.118   8.144   2.787
 3539SOL    HW212515   2.260   8.095   2.801
 3540SOL     OW12516   4.656   3.759  14.339
 3540SOL    HW112517   4.618   3.845  14.319
 3540SOL    HW212518   4.677   3.764  14.433
 3541SOL     OW12519   0.648   5.559   1.307
 3541SOL    HW112520   0.553   5.551   1.308
 3541SOL    HW212521   0.675   5.519   1.224
 3542SOL     OW12522   4.257   1.609   7.435
 3542SOL    HW112523   4.310   1.652   7.368
 3542SOL    HW212524   4.297   1.523   7.445
 3543SOL     OW12525   7.829   6.075  14.672
 3543SOL    HW112526   7.745   6.116  14.694
 3543SOL    HW212527   7.888   6.101  14.743
 3544SOL     OW12528  11.826   1.647   5.097
 3544SOL    HW112529  11.861   1.563   5.069
 3544SOL    HW212530  11.858   1.710   5.033
 3545SOL     OW12531   3.952   9.962  14.865
 3545SOL    HW112532   3.876   9.916  14.830
 3545SOL    HW212533   4.023   9.898  14.858
 3546SOL     OW12534  10.836   4.120   0.384
 3546SOL    HW112535  10.914   4.119   0.439
 3546SOL    HW212536  10.869   4.132   0.295
 3547SOL     OW12537  13.301  10.533   9.494
 3547SOL    HW112538  13.352  10.557   9.417
 3547SOL    HW212539  13.296  10.613   9.546
 3548SOL     OW12540   0.215   7.725  10.827
 3548SOL    HW112541   0.212   7.633  10.803
 3548SOL    HW212542   0.134   7.741  10.875
 3549SOL     OW12543   3.831  10.597  14.038
 3549SOL    HW112544   3.777  10.524  14.068
 3549SOL    HW212545   3.921  10.570  14.056
 3550SOL     OW12546   6.163   3.418  14.575
 3550SOL    HW112547   6.110   3.352  14.530
 3550SOL    HW212548   6.170   3.490  14.513
 3551SOL     OW12549  14.477  14.633   3.354
 3551SOL    HW112550  14.488  14.728   3.350
 3551SOL    HW212551  14.414  14.618   3.425
 3552SOL     OW12552  11.435   1.281   9.530
 3552SOL    HW112553  11.403   1.200   9.489
 3552SOL    HW212554  11.472   1.252   9.613
 3553SOL     OW12555   7.172   1.290  13.818
 3553SOL    HW112556   7.254   1.283  13.770
 3553SOL    HW212557   7.108   1.245  13.762
 3554SOL     OW12558   7.976  11.209   6.864
 3554SOL    HW112559   7.889  11.248   6.862
 3554SOL    HW212560   8.030  11.275   6.909
 3555SOL     OW12561   3.622   5.872  11.382
 3555SOL    HW112562   3.609   5.799  11.443
 3555SOL    HW212563   3.599   5.837  11.296
 3556SOL     OW12564   2.786  10.597   8.584
 3556SOL    HW112565   2.770  10.617   8.676
 3556SOL    HW212566   2.882  10.592   8.578
 3557SOL     OW12567   3.583  12.971   1.091
 3557SOL    HW112568   3.531  12.920   1.028
 3557SOL    HW212569   3.652  12.912   1.119
 3558SOL     OW12570  14.399   5.586   2.096
 3558SOL    HW112571  14.385   5.493   2.113
 3558SOL    HW212572  14.412   5.625   2.182
 3559SOL     OW12573   6.057   6.154   2.436
 3559SOL    HW112574   6.143   6.119   2.460
 3559SOL    HW212575   6.038   6.219   2.504
 3560SOL     OW12576   8.097   7.725   2.429
 3560SOL    HW112577   8.002   7.717   2.419
 3560SOL    HW212578   8.118   7.669   2.503
 3561SOL     OW12579  12.418   2.193   5.909
 3561SOL    HW112580  12.459   2.275   5.884
 3561SOL    HW212581  12.343   2.184   5.850
 3562SOL     OW12582   6.878  10.976   2.364
 3562SOL    HW112583   6.913  11.012   2.282
 3562SOL    HW212584   6.789  11.011   2.370
 3563SOL     OW12585  10.729   2.722   1.680
 3563SOL    HW112586  10.819   2.754   1.687
 3563SOL    HW212587  10.730   2.669   1.600
 3564SOL     OW12588   2.742  12.579  14.320
 3564SOL    HW112589   2.718  12.540  14.404
 3564SOL    HW212590   2.731  12.673  14.333
 3565SOL     OW12591   2.646   9.407  12.436
 3565SOL    HW112592   2.699   9.398  12.357
 3565SOL    HW212593   2.610   9.496  12.430
 3566SOL     OW12594  10.790   4.657   5.203
 3566SOL    HW112595  10.780   4.733   5.146
 3566SOL    HW212596  10.801   4.694   5.290
 3567SOL     OW12597  11.951   0.194   3.624
 3567SOL    HW112598  11.967   0.134   3.552
 3567SOL    HW212599  12.038   0.211   3.661
 3568SOL     OW12600  11.447   3.788  14.161
 3568SOL    HW112601  11.369   3.834  14.131
 3568SOL    HW212602  11.426   3.695  14.148
 3569SOL     OW12603   6.353  12.924   9.348
 3569SOL    HW112604   6.303  12.843   9.348
 3569SOL    HW212605   6.437  12.901   9.309
 3570SOL     OW12606   4.749   9.607   1.513
 3570SOL    HW112607   4.766   9.571   1.426
 3570SOL    HW212608   4.712   9.694   1.497
 3571SOL     OW12609  12.563   8.655   7.904
 3571SOL    HW112610  12.509   8.734   7.892
 3571SOL    HW212611  12.642   8.672   7.852
 3572SOL     OW12612  13.122   2.862   5.694
 3572SOL    HW112613  13.178   2.795   5.733
 3572SOL    HW212614  13.044   2.815   5.665
 3573SOL     OW12615   0.398   3.803   5.332
 3573SOL    HW112616   0.422   3.717   5.296
 3573SOL    HW212617   0.321   3.785   5.387
 3574SOL     OW12618  14.550  14.644   2.420
 3574SOL    HW112619  14.600  14.687   2.351
 3574SOL    HW212620  14.614  14.630   2.490
 3575SOL     OW12621  13.170  10.319   9.336
 3575SOL    HW112622  13.098  10.353   9.283
 3575SOL    HW212623  13.172  10.375   9.413
 3576SOL     OW12624   9.477  12.766   1.656
 3576SOL    HW112625   9.422  12.708   1.708
 3576SOL    HW212626   9.418  12.837   1.630
 3577SOL     OW12627  11.860   4.062   8.828
 3577SOL    HW112628  11.903   4.143   8.800
 3577SOL    HW212629  11.932   4.004   8.852
 3578SOL     OW12630   6.378   9.080   9.651
 3578SOL    HW112631   6.333   9.150   9.604
 3578SOL    HW212632   6.322   9.063   9.727
 3579SOL     OW12633   6.780  12.295  12.558
 3579SOL    HW112634   6.840  12.289  12.631
 3579SOL    HW212635   6.809  12.228  12.496
 3580SOL     OW12636   7.466   4.563  14.677
 3580SOL    HW112637   7.542   4.513  14.645
 3580SOL    HW212638   7.432   4.607  14.599
 3581SOL     OW12639   7.094  12.249   3.303
 3581SOL    HW112640   7.093  12.302   3.383
 3581SOL    HW212641   7.180  12.206   3.304
 3582SOL     OW12642   0.025   4.193  13.111
 3582SOL    HW112643   0.032   4.245  13.191
 3582SOL    HW212644   0.114   4.164  13.092
 3583SOL     OW12645  10.792   5.468   9.896
 3583SOL    HW112646  10.818   5.417   9.820
 3583SOL    HW212647  10.743   5.406   9.951
 3584SOL     OW12648   0.736   9.498   0.416
 3584SOL    HW112649   0.674   9.425   0.415
 3584SOL    HW212650   0.794   9.480   0.490
 3585SOL     OW12651   3.657   9.811   4.521
 3585SOL    HW112652   3.728   9.758   4.484
 3585SOL    HW212653   3.696   9.851   4.599
 3586SOL     OW12654   8.120   9.387   0.097
 3586SOL    HW112655   8.153   9.389   0.187
 3586SOL    HW212656   8.179   9.444   0.049
 3587SOL     OW12657   1.860   8.381   5.640
 3587SOL    HW112658   1.945   8.403   5.679
 3587SOL    HW212659   1.800   8.374   5.714
 3588SOL     OW12660  12.561   8.658   0.807
 3588SOL    HW112661  12.558   8.575   0.854
 3588SOL    HW212662  12.655   8.677   0.798
 3589SOL     OW12663   9.708  10.553   8.390
 3589SOL    HW112664   9.635  10.513   8.438
 3589SOL    HW212665   9.786  10.510   8.425
 3590SOL     OW12666   1.655   3.039  11.899
 3590SOL    HW112667   1.687   2.989  11.974
 3590SOL    HW212668   1.647   2.975  11.829
 3591SOL     OW12669   5.970   6.710   7.723
 3591SOL    HW112670   6.044   6.694   7.782
 3591SOL    HW212671   5.915   6.772   7.770
 3592SOL     OW12672   6.397   8.420  14.583
 3592SOL    HW112673   6.387   8.515  14.593
 3592SOL    HW212674   6.491   8.405  14.589
 3593SOL     OW12675   3.717  14.391  13.027
 3593SOL    HW112676   3.683  14.310  13.066
 3593SOL    HW212677   3.680  14.392  12.938
 3594SOL     OW12678  13.906  10.889  10.896
 3594SOL    HW112679  13.959  10.953  10.942
 3594SOL    HW212680  13.818  10.898  10.934
 3595SOL     OW12681  10.201   6.213  13.001
 3595SOL    HW112682  10.243   6.128  13.002
 3595SOL    HW212683  10.264   6.271  13.044
 3596SOL     OW12684   7.678   1.235   9.321
 3596SOL    HW112685   7.611   1.167   9.322
 3596SOL    HW212686   7.722   1.227   9.406
 3597SOL     OW12687   6.313   6.099   7.110
 3597SOL    HW112688   6.290   6.159   7.040
 3597SOL    HW212689   6.243   6.033   7.109
 3598SOL     OW12690   2.639  13.168   3.460
 3598SOL    HW112691   2.612  13.088   3.415
 3598SOL    HW212692   2.622  13.238   3.397
 3599SOL     OW12693  14.440   3.764   0.014
 3599SOL    HW112694  14.413   3.853   0.034
 3599SOL    HW212695  14.511   3.746   0.076
 3600SOL     OW12696  12.833   2.756   0.403
 3600SOL    HW112697  12.902   2.819   0.425
 3600SOL    HW212698  12.819   2.766   0.309
 3601SOL     OW12699  13.348   9.403  14.797
 3601SOL    HW112700  13.404   9.476  14.826
 3601SOL    HW212701  13.410   9.333  14.778
 3602SOL     OW12702   4.438  13.912   4.842
 3602SOL    HW112703   4.380  13.838   4.824
 3602SOL    HW212704   4.387  13.989   4.818
 3603SOL     OW12705  11.439   2.173  10.986
 3603SOL    HW112706  11.520   2.152  11.034
 3603SOL    HW212707  11.376   2.196  11.054
 3604SOL     OW12708   4.842   1.346  13.494
 3604SOL    HW112709   4.784   1.353  13.418
 3604SOL    HW212710   4.860   1.436  13.520
 3605SOL     OW12711   8.291  12.224   7.168
 3605SOL    HW112712   8.268  12.311   7.137
 3605SOL    HW212713   8.291  12.232   7.263
 3606SOL     OW12714  14.088   8.869   8.645
 3606SOL    HW112715  13.998   8.841   8.632
 3606SOL    HW212716  14.123   8.880   8.556
 3607SOL     OW12717   5.522   7.619   8.799
 3607SOL    HW112718   5.508   7.713   8.788
 3607SOL    HW212719   5.528   7.606   8.893
 3608SOL     OW12720  10.828   8.472  13.556
 3608SOL    HW112721  10.852   8.564  13.548
 3608SOL    HW212722  10.901   8.425  13.515
 3609SOL     OW12723   7.480   6.615   5.962
 3609SOL    HW112724   7.575   6.609   5.950
 3609SOL    HW212725   7.451   6.524   5.971
 3610SOL     OW12726   4.264   7.634   9.532
 3610SOL    HW112727   4.353   7.650   9.500
 3610SOL    HW212728   4.235   7.719   9.564
 3611SOL     OW12729  10.510   2.158   1.294
 3611SOL    HW112730  10.444   2.089   1.301
 3611SOL    HW212731  10.466   2.227   1.244
 3612SOL     OW12732   0.371   7.476   0.253
 3612SOL    HW112733   0.365   7.381   0.257
 3612SOL    HW212734   0.279   7.506   0.253
 3613SOL     OW12735  12.842   0.932   8.951
 3613SOL    HW112736  12.825   1.025   8.966
 3613SOL    HW212737  12.836   0.921   8.856
 3614SOL     OW12738   1.168  11.787   1.902
 3614SOL    HW112739   1.120  11.834   1.834
 3614SOL    HW212740   1.169  11.848   1.976
 3615SOL     OW12741   8.693   2.861   4.956
 3615SOL    HW112742   8.716   2.893   5.043
 3615SOL    HW212743   8.621   2.917   4.928
 3616SOL     OW12744   6.821   6.130   1.683
 3616SOL    HW112745   6.885   6.197   1.707
 3616SOL    HW212746   6.848   6.053   1.732
 3617SOL     OW12747   8.427   6.236   5.301
 3617SOL    HW112748   8.409   6.184   5.379
 3617SOL    HW212749   8.341   6.251   5.262
 3618SOL     OW12750  10.245  12.166   2.690
 3618SOL    HW112751  10.242  12.262   2.689
 3618SOL    HW212752  10.256  12.142   2.598
 3619SOL     OW12753  12.406  10.562   0.842
 3619SOL    HW112754  12.409  10.650   0.878
 3619SOL    HW212755  12.362  10.572   0.757
 3620SOL     OW12756   5.712   2.290  13.693
 3620SOL    HW112757   5.721   2.383  13.677
 3620SOL    HW212758   5.795   2.263  13.732
 3621SOL     OW12759   1.732   0.902   5.804
 3621SOL    HW112760   1.652   0.871   5.846
 3621SOL    HW212761   1.795   0.831   5.817
 3622SOL     OW12762   1.779   1.030   5.168
 3622SOL    HW112763   1.724   1.023   5.090
 3622SOL    HW212764   1.800   0.940   5.191
 3623SOL     OW12765   0.057  11.288   5.480
 3623SOL    HW112766   0.098  11.237   5.411
 3623SOL    HW212767  14.841  11.286   5.460
 3624SOL     OW12768  13.587  12.505   5.674
 3624SOL    HW112769  13.507  12.469   5.712
 3624SOL    HW212770  13.639  12.531   5.750
 3625SOL     OW12771   4.036   7.184   0.586
 3625SOL    HW112772   4.110   7.127   0.564
 3625SOL    HW212773   3.987   7.191   0.505
 3626SOL     OW12774   0.077   8.131   6.299
 3626SOL    HW112775   0.145   8.158   6.238
 3626SOL    HW212776   0.098   8.176   6.381
 3627SOL     OW12777   3.621  11.705   4.525
 3627SOL    HW112778   3.596  11.625   4.571
 3627SOL    HW212779   3.541  11.759   4.526
 3628SOL     OW12780   9.888   3.331  10.287
 3628SOL    HW112781   9.828   3.396  10.250
 3628SOL    HW212782   9.876   3.338  10.382
 3629SOL     OW12783   4.261   7.334   6.822
 3629SOL    HW112784   4.264   7.420   6.780
 3629SOL    HW212785   4.315   7.278   6.766
 3630SOL     OW12786   7.822   8.905   8.362
 3630SOL    HW112787   7.798   8.967   8.431
 3630SOL    HW212788   7.869   8.959   8.298
 3631SOL     OW12789   8.682   6.553  14.220
 3631SOL    HW112790   8.758   6.557  14.162
 3631SOL    HW212791   8.640   6.638  14.211
 3632SOL     OW12792   5.497   8.872   8.146
 3632SOL    HW112793   5.437   8.807   8.183
 3632SOL    HW212794   5.444   8.918   8.080
 3633SOL     OW12795   9.722   5.437   3.395
 3633SOL    HW112796   9.714   5.344   3.374
 3633SOL    HW212797   9.718   5.441   3.490
 3634SOL     OW12798  10.371   4.245   4.095
 3634SOL    HW112799  10.345   4.332   4.066
 3634SOL    HW212800  10.289   4.199   4.108
 3635SOL     OW12801   4.018   7.368   0.113
 3635SOL    HW112802   4.099   7.411   0.137
 3635SOL    HW212803   4.026   7.279   0.148
 3636SOL     OW12804   0.962  10.812   5.790
 3636SOL    HW112805   0.919  10.862   5.720
 3636SOL    HW212806   1.033  10.869   5.820
 3637SOL     OW12807  11.671   0.846   1.503
 3637SOL    HW112808  11.637   0.806   1.423
 3637SOL    HW212809  11.651   0.783   1.572
 3638SOL     OW12810  13.047   2.021   6.268
 3638SOL    HW112811  13.059   2.113   6.295
 3638SOL    HW212812  12.998   2.026   6.186
 3639SOL     OW12813   3.710   5.383   1.333
 3639SOL    HW112814   3.694   5.389   1.427
 3639SOL    HW212815   3.628   5.411   1.293
 3640SOL     OW12816  12.175  12.820   0.987
 3640SOL    HW112817  12.269  12.805   0.977
 3640SOL    HW212818  12.136  12.783   0.907
 3641SOL     OW12819  10.506   0.910  12.564
 3641SOL    HW112820  10.527   0.950  12.479
 3641SOL    HW212821  10.564   0.954  12.626
 3642SOL     OW12822   1.902  12.538  12.862
 3642SOL    HW112823   1.995  12.529  12.883
 3642SOL    HW212824   1.899  12.538  12.766
 3643SOL     OW12825  10.248   6.771   3.496
 3643SOL    HW112826  10.160   6.740   3.518
 3643SOL    HW212827  10.280   6.707   3.432
 3644SOL     OW12828  14.574   8.312   2.150
 3644SOL    HW112829  14.488   8.321   2.191
 3644SOL    HW212830  14.604   8.225   2.177
 3645SOL     OW12831   9.616  10.709   9.449
 3645SOL    HW112832   9.625  10.707   9.544
 3645SOL    HW212833   9.595  10.800   9.428
 3646SOL     OW12834   2.898   9.490  14.215
 3646SOL    HW112835   2.828   9.510  14.153
 3646SOL    HW212836   2.976   9.482  14.161
 3647SOL     OW12837   7.992  12.944   8.272
 3647SOL    HW112838   7.998  12.997   8.352
 3647SOL    HW212839   8.022  13.002   8.202
 3648SOL     OW12840   5.667  10.407  14.867
 3648SOL    HW112841   5.663  10.351   0.067
 3648SOL    HW212842   5.593  10.379  14.813
 3649SOL     OW12843  12.763  14.637  13.581
 3649SOL    HW112844  12.810  14.689  13.647
 3649SOL    HW212845  12.769  14.689  13.501
 3650SOL     OW12846   7.941   7.257   5.886
 3650SOL    HW112847   7.973   7.183   5.834
 3650SOL    HW212848   7.859   7.283   5.843
 3651SOL     OW12849  10.703   8.117  13.775
 3651SOL    HW112850  10.699   8.134  13.869
 3651SOL    HW212851  10.642   8.045  13.761
 3652SOL     OW12852  10.420   5.007   4.748
 3652SOL    HW112853  10.467   4.976   4.825
 3652SOL    HW212854  10.335   5.034   4.780
 3653SOL     OW12855   2.643  12.363   2.896
 3653SOL    HW112856   2.634  12.321   2.982
 3653SOL    HW212857   2.702  12.437   2.913
 3654SOL     OW12858   2.773   1.898   3.782
 3654SOL    HW112859   2.780   1.984   3.741
 3654SOL    HW212860   2.687   1.899   3.825
 3655SOL     OW12861  11.774   3.227  10.030
 3655SOL    HW112862  11.705   3.290  10.012
 3655SOL    HW212863  11.817   3.259  10.110
 3656SOL     OW12864  14.252   2.086   0.209
 3656SOL    HW112865  14.170   2.125   0.179
 3656SOL    HW212866  14.315   2.158   0.209
 3657SOL     OW12867   3.552   9.750  11.256
 3657SOL    HW112868   3.633   9.722  11.212
 3657SOL    HW212869   3.576   9.831  11.300
 3658SOL     OW12870   2.134   0.058   6.431
 3658SOL    HW112871   2.138   0.082   6.524
 3658SOL    HW212872   2.100   0.136   6.388
 3659SOL     OW12873   5.350  14.737  12.336
 3659SOL    HW112874   5.360  14.684  12.256
 3659SOL    HW212875   5.277  14.795  12.317
 3660SOL     OW12876   9.375   1.785   0.402
 3660SOL    HW112877   9.358   1.692   0.391
 3660SOL    HW212878   9.289   1.826   0.401
 3661SOL     OW12879  11.049   7.095  11.251
 3661SOL    HW112880  11.023   7.183  11.225
 3661SOL    HW212881  10.970   7.042  11.241
 3662SOL     OW12882   5.608   5.710   5.534
 3662SOL    HW112883   5.640   5.798   5.515
 3662SOL    HW212884   5.669   5.676   5.599
 3663SOL     OW12885   5.092   2.685   6.396
 3663SOL    HW112886   5.029   2.737   6.346
 3663SOL    HW212887   5.146   2.642   6.331
 3664SOL     OW12888  10.711   9.502   7.550
 3664SOL    HW112889  10.766   9.503   7.472
 3664SOL    HW212890  10.678   9.412   7.554
 3665SOL     OW12891   6.544   8.664  13.930
 3665SOL    HW112892   6.560   8.598  13.863
 3665SOL    HW212893   6.456   8.644  13.963
 3666SOL     OW12894   3.978   9.725   8.920
 3666SOL    HW112895   3.897   9.776   8.924
 3666SOL    HW212896   3.953   9.638   8.950
 3667SOL     OW12897   0.997  12.382   2.792
 3667SOL    HW112898   0.928  12.427   2.744
 3667SOL    HW212899   0.989  12.290   2.764
 3668SOL     OW12900   4.523   7.078   9.049
 3668SOL    HW112901   4.611   7.092   9.014
 3668SOL    HW212902   4.465   7.126   8.990
 3669SOL     OW12903  14.462   1.331  10.308
 3669SOL    HW112904  14.403   1.374  10.370
 3669SOL    HW212905  14.482   1.398  10.243
 3670SOL     OW12906   6.551   8.214   6.572
 3670SOL    HW112907   6.536   8.155   6.646
 3670SOL    HW212908   6.557   8.156   6.496
 3671SOL     OW12909   1.026  11.205   1.753
 3671SOL    HW112910   0.966  11.135   1.727
 3671SOL    HW212911   1.068  11.171   1.832
 3672SOL     OW12912   4.424   6.941   1.223
 3672SOL    HW112913   4.414   7.029   1.259
 3672SOL    HW212914   4.518   6.927   1.218
 3673SOL     OW12915   3.830   7.994   1.386
 3673SOL    HW112916   3.781   8.076   1.383
 3673SOL    HW212917   3.770   7.932   1.427
 3674SOL     OW12918  14.585   0.225  10.116
 3674SOL    HW112919  14.606   0.313  10.147
 3674SOL    HW212920  14.519   0.240  10.048
 3675SOL     OW12921  11.607  13.762   2.524
 3675SOL    HW112922  11.637  13.830   2.585
 3675SOL    HW212923  11.651  13.784   2.441
 3676SOL     OW12924   1.316  14.706   6.619
 3676SOL    HW112925   1.241  14.714   6.678
 3676SOL    HW212926   1.293  14.761   6.544
 3677SOL     OW12927  14.313   1.445   5.458
 3677SOL    HW112928  14.335   1.419   5.369
 3677SOL    HW212929  14.219   1.458   5.457
 3678SOL     OW12930  12.207   8.698  13.443
 3678SOL    HW112931  12.247   8.695  13.530
 3678SOL    HW212932  12.196   8.607  13.419
 3679SOL     OW12933   1.130   1.257  11.821
 3679SOL    HW112934   1.132   1.175  11.772
 3679SOL    HW212935   1.214   1.298  11.802
 3680SOL     OW12936   0.196   2.733   2.246
 3680SOL    HW112937   0.217   2.779   2.165
 3680SOL    HW212938   0.109   2.766   2.270
 3681SOL     OW12939   3.608   9.258   9.600
 3681SOL    HW112940   3.579   9.260   9.509
 3681SOL    HW212941   3.700   9.283   9.596
 3682SOL     OW12942   8.602   1.191   1.144
 3682SOL    HW112943   8.681   1.138   1.149
 3682SOL    HW212944   8.591   1.227   1.233
 3683SOL     OW12945   5.950  12.705  12.950
 3683SOL    HW112946   5.940  12.629  13.009
 3683SOL    HW212947   5.919  12.779  13.001
 3684SOL     OW12948  11.085   9.631  12.527
 3684SOL    HW112949  11.017   9.697  12.511
 3684SOL    HW212950  11.163   9.667  12.485
 3685SOL     OW12951  11.995   7.047   6.204
 3685SOL    HW112952  11.929   7.002   6.257
 3685SOL    HW212953  12.076   7.038   6.256
 3686SOL     OW12954   2.849   9.545   2.388
 3686SOL    HW112955   2.890   9.482   2.447
 3686SOL    HW212956   2.922   9.598   2.355
 3687SOL     OW12957   7.415  12.242  11.965
 3687SOL    HW112958   7.347  12.185  12.000
 3687SOL    HW212959   7.423  12.313  12.029
 3688SOL     OW12960  14.766   8.139   4.116
 3688SOL    HW112961  14.710   8.216   4.107
 3688SOL    HW212962  14.853   8.169   4.089
 3689SOL     OW12963   8.546   3.989  14.295
 3689SOL    HW112964   8.557   3.984  14.200
 3689SOL    HW212965   8.611   4.055  14.323
 3690SOL     OW12966   7.917   4.516   5.780
 3690SOL    HW112967   7.896   4.591   5.725
 3690SOL    HW212968   8.013   4.516   5.785
 3691SOL     OW12969  14.424   7.120  10.699
 3691SOL    HW112970  14.368   7.179  10.649
 3691SOL    HW212971  14.500   7.174  10.724
 3692SOL     OW12972   3.366   7.579  12.028
 3692SOL    HW112973   3.392   7.486  12.030
 3692SOL    HW212974   3.345   7.599  12.120
 3693SOL     OW12975   5.862  14.523   8.684
 3693SOL    HW112976   5.778  14.535   8.639
 3693SOL    HW212977   5.906  14.454   8.635
 3694SOL     OW12978  11.036   5.888   7.305
 3694SOL    HW112979  11.045   5.958   7.240
 3694SOL    HW212980  10.944   5.861   7.299
 3695SOL     OW12981  13.046   4.689  11.415
 3695SOL    HW112982  13.039   4.618  11.352
 3695SOL    HW212983  13.109   4.750  11.376
 3696SOL     OW12984   4.542   5.721  11.475
 3696SOL    HW112985   4.509   5.657  11.412
 3696SOL    HW212986   4.585   5.787  11.421
 3697SOL     OW12987  14.443  12.225  13.143
 3697SOL    HW112988  14.441  12.217  13.238
 3697SOL    HW212989  14.470  12.316  13.128
 3698SOL     OW12990   0.436  11.582   3.228
 3698SOL    HW112991   0.439  11.529   3.149
 3698SOL    HW212992   0.351  11.625   3.226
 3699SOL     OW12993  11.245   1.460   7.898
 3699SOL    HW112994  11.316   1.524   7.906
 3699SOL    HW212995  11.286   1.376   7.916
 3700SOL     OW12996  13.098  13.629   0.310
 3700SOL    HW112997  13.013  13.649   0.270
 3700SOL    HW212998  13.160  13.632   0.237
 3701SOL     OW12999  12.455   4.768   3.100
 3701SOL    HW113000  12.446   4.713   3.022
 3701SOL    HW213001  12.426   4.712   3.172
 3702SOL     OW13002   4.292   9.653   7.269
 3702SOL    HW113003   4.274   9.746   7.280
 3702SOL    HW213004   4.317   9.644   7.177
 3703SOL     OW13005   1.819   0.191   7.289
 3703SOL    HW113006   1.857   0.254   7.351
 3703SOL    HW213007   1.798   0.115   7.342
 3704SOL     OW13008   4.631   7.970  10.465
 3704SOL    HW113009   4.641   7.878  10.493
 3704SOL    HW213010   4.565   8.006  10.524
 3705SOL     OW13011   9.062  14.591  12.098
 3705SOL    HW113012   9.135  14.651  12.082
 3705SOL    HW213013   9.066  14.528  12.025
 3706SOL     OW13014   7.386   2.632  12.050
 3706SOL    HW113015   7.401   2.538  12.057
 3706SOL    HW213016   7.358   2.646  11.959
 3707SOL     OW13017   8.169   3.264   9.368
 3707SOL    HW113018   8.241   3.295   9.313
 3707SOL    HW213019   8.096   3.254   9.308
 3708SOL     OW13020   1.833   9.905   7.768
 3708SOL    HW113021   1.902   9.958   7.727
 3708SOL    HW213022   1.855   9.815   7.744
 3709SOL     OW13023   8.255  14.204   9.495
 3709SOL    HW113024   8.302  14.123   9.477
 3709SOL    HW213025   8.231  14.238   9.409
 3710SOL     OW13026   4.647   8.783   2.117
 3710SOL    HW113027   4.699   8.708   2.146
 3710SOL    HW213028   4.706   8.834   2.063
 3711SOL     OW13029   8.702  11.570  10.042
 3711SOL    HW113030   8.667  11.579   9.953
 3711SOL    HW213031   8.701  11.659  10.077
 3712SOL     OW13032   2.787   1.609  11.096
 3712SOL    HW113033   2.860   1.625  11.036
 3712SOL    HW213034   2.734   1.543  11.052
 3713SOL     OW13035  10.298   1.395   8.959
 3713SOL    HW113036  10.267   1.317   9.004
 3713SOL    HW213037  10.252   1.468   9.001
 3714SOL     OW13038   5.947  13.679  10.961
 3714SOL    HW113039   6.025  13.675  11.016
 3714SOL    HW213040   5.977  13.720  10.880
 3715SOL     OW13041   6.532  10.466  12.400
 3715SOL    HW113042   6.582  10.460  12.482
 3715SOL    HW213043   6.514  10.375  12.377
 3716SOL     OW13044   1.502  13.626   5.429
 3716SOL    HW113045   1.555  13.558   5.470
 3716SOL    HW213046   1.563  13.699   5.417
 3717SOL     OW13047   6.768   4.801   7.379
 3717SOL    HW113048   6.808   4.827   7.462
 3717SOL    HW213049   6.809   4.718   7.357
 3718SOL     OW13050  11.192   6.526   1.626
 3718SOL    HW113051  11.135   6.476   1.686
 3718SOL    HW213052  11.131   6.584   1.579
 3719SOL     OW13053  12.942  10.352   9.884
 3719SOL    HW113054  12.963  10.308   9.966
 3719SOL    HW213055  12.856  10.391   9.899
 3720SOL     OW13056   6.649   9.162   4.219
 3720SOL    HW113057   6.726   9.115   4.253
 3720SOL    HW213058   6.581   9.145   4.284
 3721SOL     OW13059   2.329   0.513   9.224
 3721SOL    HW113060   2.409   0.470   9.255
 3721SOL    HW213061   2.345   0.529   9.131
 3722SOL     OW13062   5.449   0.537  14.632
 3722SOL    HW113063   5.388   0.570  14.566
 3722SOL    HW213064   5.394   0.508  14.704
 3723SOL     OW13065   7.083  12.589   7.149
 3723SOL    HW113066   7.153  12.625   7.204
 3723SOL    HW213067   7.129  12.539   7.081
 3724SOL     OW13068   7.290  11.945   5.552
 3724SOL    HW113069   7.354  11.957   5.482
 3724SOL    HW213070   7.342  11.946   5.633
 3725SOL     OW13071  14.799   4.703  10.704
 3725SOL    HW113072  14.797   4.612  10.676
 3725SOL    HW213073  14.847   4.702  10.787
 3726SOL     OW13074   3.911   1.336   4.132
 3726SOL    HW113075   3.818   1.344   4.153
 3726SOL    HW213076   3.956   1.354   4.214
 3727SOL     OW13077   0.981   0.864  11.688
 3727SOL    HW113078   0.888   0.852  11.707
 3727SOL    HW213079   0.984   0.940  11.630
 3728SOL     OW13080  14.283  14.593   3.557
 3728SOL    HW113081  14.217  14.635   3.612
 3728SOL    HW213082  14.333  14.538   3.617
 3729SOL     OW13083  13.090  14.254  11.554
 3729SOL    HW113084  13.110  14.347  11.565
 3729SOL    HW213085  13.171  14.209  11.580
 3730SOL     OW13086   6.522   0.043  10.814
 3730SOL    HW113087   6.474   0.076  10.738
 3730SOL    HW213088   6.613   0.067  10.797
 3731SOL     OW13089  12.890  14.256   7.388
 3731SOL    HW113090  12.960  14.191   7.378
 3731SOL    HW213091  12.809  14.205   7.378
 3732SOL     OW13092   0.684   1.242   3.196
 3732SOL    HW113093   0.669   1.192   3.116
 3732SOL    HW213094   0.599   1.242   3.241
 3733SOL     OW13095  13.457   6.027  11.811
 3733SOL    HW113096  13.453   6.071  11.896
 3733SOL    HW213097  13.455   6.097  11.746
 3734SOL     OW13098  12.525   1.560   2.482
 3734SOL    HW113099  12.465   1.633   2.492
 3734SOL    HW213100  12.543   1.556   2.388
 3735SOL     OW13101   5.815  11.793  13.020
 3735SOL    HW113102   5.735  11.845  13.015
 3735SOL    HW213103   5.820  11.749  12.935
 3736SOL     OW13104  12.090   3.735   1.715
 3736SOL    HW113105  12.100   3.811   1.773
 3736SOL    HW213106  12.033   3.766   1.645
 3737SOL     OW13107  14.160   9.939   0.530
 3737SOL    HW113108  14.161   9.873   0.599
 3737SOL    HW213109  14.122   9.895   0.454
 3738SOL     OW13110  10.510  11.256   6.296
 3738SOL    HW113111  10.526  11.347   6.317
 3738SOL    HW213112  10.556  11.207   6.363
 3739SOL     OW13113   4.638  11.537   2.105
 3739SOL    HW113114   4.625  11.454   2.059
 3739SOL    HW213115   4.663  11.599   2.037
 3740SOL     OW13116   8.921   6.456  13.413
 3740SOL    HW113117   8.874   6.411  13.343
 3740SOL    HW213118   8.936   6.544  13.379
 3741SOL     OW13119  12.012   8.472   4.775
 3741SOL    HW113120  12.107   8.460   4.764
 3741SOL    HW213121  12.003   8.521   4.857
 3742SOL     OW13122   1.434   9.870  11.640
 3742SOL    HW113123   1.487   9.925  11.699
 3742SOL    HW213124   1.377   9.820  11.699
 3743SOL     OW13125   0.286   8.310  12.708
 3743SOL    HW113126   0.370   8.328  12.749
 3743SOL    HW213127   0.223   8.362  12.758
 3744SOL     OW13128   5.299  10.424   4.283
 3744SOL    HW113129   5.270  10.398   4.195
 3744SOL    HW213130   5.374  10.369   4.301
 3745SOL     OW13131  11.995   7.705  14.596
 3745SOL    HW113132  11.974   7.789  14.555
 3745SOL    HW213133  12.089   7.707  14.609
 3746SOL     OW13134  12.218   7.538   6.770
 3746SOL    HW113135  12.192   7.545   6.862
 3746SOL    HW213136  12.276   7.613   6.756
 3747SOL     OW13137   1.083   6.004  13.322
 3747SOL    HW113138   1.168   5.981  13.359
 3747SOL    HW213139   1.023   6.002  13.396
 3748SOL     OW13140   6.271  13.327   1.581
 3748SOL    HW113141   6.243  13.235   1.574
 3748SOL    HW213142   6.195  13.377   1.549
 3749SOL     OW13143  10.332  12.475   6.897
 3749SOL    HW113144  10.373  12.547   6.849
 3749SOL    HW213145  10.268  12.517   6.954
 3750SOL     OW13146   9.712   8.937   0.511
 3750SOL    HW113147   9.662   9.018   0.507
 3750SOL    HW213148   9.649   8.868   0.489
 3751SOL     OW13149   8.268   6.884   8.444
 3751SOL    HW113150   8.233   6.851   8.526
 3751SOL    HW213151   8.325   6.814   8.412
 3752SOL     OW13152   5.156   5.898   0.655
 3752SOL    HW113153   5.248   5.910   0.634
 3752SOL    HW213154   5.147   5.932   0.744
 3753SOL     OW13155   9.498   1.988  14.140
 3753SOL    HW113156   9.422   1.999  14.197
 3753SOL    HW213157   9.461   1.975  14.053
 3754SOL     OW13158  13.230  14.004   8.108
 3754SOL    HW113159  13.171  13.953   8.163
 3754SOL    HW213160  13.216  13.971   8.020
 3755SOL     OW13161   6.225   6.568  10.433
 3755SOL    HW113162   6.190   6.577  10.522
 3755SOL    HW213163   6.223   6.657  10.398
 3756SOL     OW13164  13.947  11.384  12.698
 3756SOL    HW113165  13.951  11.289  12.705
 3756SOL    HW213166  14.037  11.410  12.678
 3757SOL     OW13167   6.899   3.607   8.298
 3757SOL    HW113168   6.978   3.662   8.303
 3757SOL    HW213169   6.827   3.666   8.322
 3758SOL     OW13170   1.721   2.941   1.573
 3758SOL    HW113171   1.712   2.862   1.627
 3758SOL    HW213172   1.683   2.915   1.488
 3759SOL     OW13173   2.957   7.142   3.819
 3759SOL    HW113174   2.933   7.226   3.779
 3759SOL    HW213175   2.915   7.143   3.904
 3760SOL     OW13176   3.912   5.775   2.931
 3760SOL    HW113177   3.904   5.705   2.865
 3760SOL    HW213178   3.861   5.847   2.895
 3761SOL     OW13179   7.880   2.388   7.453
 3761SOL    HW113180   7.898   2.323   7.385
 3761SOL    HW213181   7.794   2.365   7.487
 3762SOL     OW13182   9.291   5.380   2.116
 3762SOL    HW113183   9.369   5.353   2.165
 3762SOL    HW213184   9.224   5.392   2.184
 3763SOL     OW13185   2.557   6.320  13.279
 3763SOL    HW113186   2.538   6.408  13.312
 3763SOL    HW213187   2.527   6.322  13.188
 3764SOL     OW13188   2.246  13.092   9.706
 3764SOL    HW113189   2.290  13.020   9.660
 3764SOL    HW213190   2.315  13.157   9.719
 3765SOL     OW13191   0.732   7.732  10.665
 3765SOL    HW113192   0.661   7.713  10.603
 3765SOL    HW213193   0.727   7.826  10.679
 3766SOL     OW13194   9.418   9.887   8.403
 3766SOL    HW113195   9.345   9.949   8.406
 3766SOL    HW213196   9.470   9.916   8.328
 3767SOL     OW13197   7.319   8.314   3.654
 3767SOL    HW113198   7.278   8.292   3.571
 3767SOL    HW213199   7.379   8.386   3.634
 3768SOL     OW13200  12.161   2.626  14.091
 3768SOL    HW113201  12.112   2.704  14.066
 3768SOL    HW213202  12.108   2.583  14.158
 3769SOL     OW13203   6.287   9.594   9.327
 3769SOL    HW113204   6.268   9.634   9.412
 3769SOL    HW213205   6.382   9.594   9.321
 3770SOL     OW13206  13.058   5.465  11.662
 3770SOL    HW113207  12.994   5.433  11.599
 3770SOL    HW213208  13.109   5.529  11.613
 3771SOL     OW13209   9.643   5.608   7.893
 3771SOL    HW113210   9.582   5.548   7.936
 3771SOL    HW213211   9.690   5.554   7.830
 3772SOL     OW13212   1.060  11.194  14.034
 3772SOL    HW113213   1.024  11.281  14.054
 3772SOL    HW213214   1.081  11.157  14.120
 3773SOL     OW13215   1.429  13.169   0.285
 3773SOL    HW113216   1.345  13.144   0.324
 3773SOL    HW213217   1.454  13.093   0.232
 3774SOL     OW13218   1.336  14.868   9.896
 3774SOL    HW113219   1.321  14.853   9.803
 3774SOL    HW213220   1.343   0.085   9.905
 3775SOL     OW13221   9.564  10.894   0.246
 3775SOL    HW113222   9.591  10.855   0.162
 3775SOL    HW213223   9.622  10.969   0.256
 3776SOL     OW13224   5.916   4.160  13.602
 3776SOL    HW113225   5.874   4.136  13.519
 3776SOL    HW213226   5.856   4.224  13.641
 3777SOL     OW13227   9.281   8.648   1.400
 3777SOL    HW113228   9.365   8.660   1.444
 3777SOL    HW213229   9.232   8.728   1.420
 3778SOL     OW13230  10.730  12.039  14.626
 3778SOL    HW113231  10.647  12.014  14.586
 3778SOL    HW213232  10.737  11.982  14.703
 3779SOL     OW13233   0.106  13.072   1.298
 3779SOL    HW113234   0.084  13.081   1.391
 3779SOL    HW213235   0.029  13.104   1.252
 3780SOL     OW13236   7.316   5.523   3.556
 3780SOL    HW113237   7.285   5.442   3.516
 3780SOL    HW213238   7.392   5.497   3.608
 3781SOL     OW13239   9.797  10.921  13.777
 3781SOL    HW113240   9.735  10.848  13.777
 3781SOL    HW213241   9.787  10.960  13.690
 3782SOL     OW13242   8.606   4.735   2.696
 3782SOL    HW113243   8.527   4.696   2.732
 3782SOL    HW213244   8.670   4.731   2.767
 3783SOL     OW13245   1.751   1.833   5.252
 3783SOL    HW113246   1.707   1.797   5.329
 3783SOL    HW213247   1.803   1.759   5.218
 3784SOL     OW13248   1.619   1.498   6.841
 3784SOL    HW113249   1.613   1.539   6.928
 3784SOL    HW213250   1.711   1.472   6.834
 3785SOL     OW13251   8.253   1.083   9.078
 3785SOL    HW113252   8.240   1.105   9.170
 3785SOL    HW213253   8.333   1.031   9.076
 3786SOL     OW13254   1.914  12.882  12.547
 3786SOL    HW113255   1.962  12.818  12.600
 3786SOL    HW213256   1.920  12.848  12.457
 3787SOL     OW13257   6.363   2.644  10.712
 3787SOL    HW113258   6.413   2.581  10.764
 3787SOL    HW213259   6.304   2.687  10.775
 3788SOL     OW13260  12.975  12.579   4.231
 3788SOL    HW113261  12.943  12.504   4.280
 3788SOL    HW213262  12.985  12.547   4.141
 3789SOL     OW13263   6.421   6.199  11.035
 3789SOL    HW113264   6.508   6.206  11.074
 3789SOL    HW213265   6.407   6.284  10.993
 3790SOL     OW13266  12.264  11.353  13.477
 3790SOL    HW113267  12.205  11.428  13.462
 3790SOL    HW213268  12.205  11.280  13.498
 3791SOL     OW13269   1.266   0.273  11.993
 3791SOL    HW113270   1.307   0.186  11.991
 3791SOL    HW213271   1.325   0.327  12.045
 3792SOL     OW13272  10.203   4.568   9.114
 3792SOL    HW113273  10.236   4.552   9.203
 3792SOL    HW213274  10.265   4.631   9.077
 3793SOL     OW13275   2.519  10.968  13.022
 3793SOL    HW113276   2.503  10.876  13.000
 3793SOL    HW213277   2.614  10.975  13.027
 3794SOL     OW13278   2.951   6.744  10.581
 3794SOL    HW113279   2.931   6.827  10.623
 3794SOL    HW213280   2.871   6.721  10.535
 3795SOL     OW13281  11.416  11.425   4.387
 3795SOL    HW113282  11.332  11.417   4.342
 3795SOL    HW213283  11.406  11.371   4.466
 3796SOL     OW13284  13.951  10.933   6.550
 3796SOL    HW113285  13.953  10.838   6.539
 3796SOL    HW213286  13.943  10.967   6.461
 3797SOL     OW13287   1.095   2.404   9.120
 3797SOL    HW113288   1.106   2.357   9.038
 3797SOL    HW213289   1.182   2.440   9.140
 3798SOL     OW13290   1.295  13.615   7.705
 3798SOL    HW113291   1.220  13.576   7.749
 3798SOL    HW213292   1.329  13.679   7.767
 3799SOL     OW13293  14.847   1.290   1.749
 3799SOL    HW113294   0.056   1.330   1.737
 3799SOL    HW213295  14.819   1.266   1.661
 3800SOL     OW13296   4.613   4.082   3.670
 3800SOL    HW113297   4.578   4.162   3.710
 3800SOL    HW213298   4.708   4.092   3.677
 3801SOL     OW13299  13.540  10.689   5.547
 3801SOL    HW113300  13.551  10.784   5.537
 3801SOL    HW213301  13.463  10.668   5.495
 3802SOL     OW13302  13.148  12.741  14.445
 3802SOL    HW113303  13.091  12.743  14.522
 3802SOL    HW213304  13.234  12.720  14.480
 3803SOL     OW13305   2.462   3.768  12.378
 3803SOL    HW113306   2.466   3.759  12.473
 3803SOL    HW213307   2.470   3.679  12.345
 3804SOL     OW13308   8.006  12.146   0.318
 3804SOL    HW113309   8.016  12.135   0.224
 3804SOL    HW213310   8.056  12.075   0.357
 3805SOL     OW13311   1.048  11.504   0.591
 3805SOL    HW113312   0.969  11.463   0.556
 3805SOL    HW213313   1.022  11.534   0.679
 3806SOL     OW13314  14.260  11.116   6.610
 3806SOL    HW113315  14.291  11.089   6.696
 3806SOL    HW213316  14.278  11.040   6.554
 3807SOL     OW13317   9.449  10.915   2.258
 3807SOL    HW113318   9.415  10.924   2.347
 3807SOL    HW213319   9.524  10.974   2.255
 3808SOL     OW13320   3.326  11.554  10.519
 3808SOL    HW113321   3.381  11.632  10.532
 3808SOL    HW213322   3.316  11.517  10.607
 3809SOL     OW13323   1.532   8.036   1.097
 3809SOL    HW113324   1.468   8.101   1.127
 3809SOL    HW213325   1.527   7.966   1.162
 3810SOL     OW13326   6.222  12.202   7.668
 3810SOL    HW113327   6.195  12.293   7.661
 3810SOL    HW213328   6.140  12.153   7.673
 3811SOL     OW13329   7.635   4.124   1.607
 3811SOL    HW113330   7.646   4.204   1.660
 3811SOL    HW213331   7.550   4.089   1.634
 3812SOL     OW13332   1.258  11.182   4.509
 3812SOL    HW113333   1.231  11.230   4.431
 3812SOL    HW213334   1.339  11.225   4.537
 3813SOL     OW13335  12.759   7.765   6.112
 3813SOL    HW113336  12.673   7.759   6.070
 3813SOL    HW213337  12.817   7.793   6.042
 3814SOL     OW13338  12.452   4.046   6.760
 3814SOL    HW113339  12.547   4.053   6.761
 3814SOL    HW213340  12.424   4.104   6.689
 3815SOL     OW13341   8.387   5.091   8.035
 3815SOL    HW113342   8.373   5.086   8.129
 3815SOL    HW213343   8.301   5.113   7.999
 3816SOL     OW13344   3.681   6.614   6.160
 3816SOL    HW113345   3.739   6.538   6.160
 3816SOL    HW213346   3.730   6.683   6.204
 3817SOL     OW13347   2.801  11.665   8.577
 3817SOL    HW113348   2.741  11.591   8.590
 3817SOL    HW213349   2.866  11.656   8.646
 3818SOL     OW13350  13.467  12.085   9.648
 3818SOL    HW113351  13.495  12.033   9.572
 3818SOL    HW213352  13.476  12.176   9.620
 3819SOL     OW13353   6.430  11.618  10.610
 3819SOL    HW113354   6.462  11.600  10.521
 3819SOL    HW213355   6.490  11.683  10.645
 3820SOL     OW13356  12.443   9.215   2.503
 3820SOL    HW113357  12.394   9.193   2.424
 3820SOL    HW213358  12.410   9.154   2.569
 3821SOL     OW13359  14.324   3.881  12.771
 3821SOL    HW113360  14.273   3.848  12.845
 3821SOL    HW213361  14.410   3.841  12.782
 3822SOL     OW13362   2.539  13.900   0.830
 3822SOL    HW113363   2.628  13.933   0.838
 3822SOL    HW213364   2.513  13.879   0.919
 3823SOL     OW13365   8.706   9.093   7.263
 3823SOL    HW113366   8.774   9.159   7.278
 3823SOL    HW213367   8.719   9.029   7.333
 3824SOL     OW13368   0.014   9.459  13.764
 3824SOL    HW113369   0.086   9.436  13.823
 3824SOL    HW213370   0.005   9.384  13.706
 3825SOL     OW13371   7.758   6.589  10.950
 3825SOL    HW113372   7.762   6.606  10.856
 3825SOL    HW213373   7.725   6.670  10.989
 3826SOL     OW13374   6.903  13.071   5.033
 3826SOL    HW113375   6.815  13.056   4.999
 3826SOL    HW213376   6.891  13.139   5.100
 3827SOL     OW13377   0.156   7.864   4.502
 3827SOL    HW113378   0.124   7.861   4.592
 3827SOL    HW213379   0.178   7.956   4.487
 3828SOL     OW13380  12.675  11.189   3.652
 3828SOL    HW113381  12.610  11.259   3.647
 3828SOL    HW213382  12.624  11.110   3.670
 3829SOL     OW13383   1.094   2.252   0.538
 3829SOL    HW113384   1.162   2.195   0.575
 3829SOL    HW213385   1.054   2.294   0.615
 3830SOL     OW13386   1.055   3.909   8.707
 3830SOL    HW113387   1.001   3.832   8.721
 3830SOL    HW213388   1.036   3.936   8.617
 3831SOL     OW13389   9.008  13.485   1.064
 3831SOL    HW113390   8.926  13.522   1.096
 3831SOL    HW213391   9.027  13.413   1.124
 3832SOL     OW13392   1.431   4.383   4.223
 3832SOL    HW113393   1.443   4.478   4.214
 3832SOL    HW213394   1.468   4.347   4.142
 3833SOL     OW13395   1.977   0.333   1.243
 3833SOL    HW113396   1.887   0.312   1.266
 3833SOL    HW213397   1.969   0.384   1.162
 3834SOL     OW13398   0.626  10.410   8.890
 3834SOL    HW113399   0.696  10.464   8.853
 3834SOL    HW213400   0.635  10.421   8.985
 3835SOL     OW13401   1.720  12.673  11.469
 3835SOL    HW113402   1.752  12.592  11.510
 3835SOL    HW213403   1.639  12.692  11.517
 3836SOL     OW13404   8.703   9.544   2.268
 3836SOL    HW113405   8.665   9.612   2.213
 3836SOL    HW213406   8.640   9.533   2.340
 3837SOL     OW13407  14.628  11.369   2.347
 3837SOL    HW113408  14.716  11.375   2.384
 3837SOL    HW213409  14.614  11.453   2.305
 3838SOL     OW13410   1.157   5.876   1.881
 3838SOL    HW113411   1.232   5.869   1.822
 3838SOL    HW213412   1.159   5.796   1.933
 3839SOL     OW13413  12.949  13.694   2.939
 3839SOL    HW113414  12.978  13.782   2.912
 3839SOL    HW213415  12.863  13.684   2.898
 3840SOL     OW13416   4.917  11.015  14.044
 3840SOL    HW113417   4.835  11.013  14.095
 3840SOL    HW213418   4.984  11.041  14.107
 3841SOL     OW13419  13.872   3.253  10.302
 3841SOL    HW113420  13.891   3.179  10.245
 3841SOL    HW213421  13.931   3.322  10.272
 3842SOL     OW13422   0.006  11.230  12.684
 3842SOL    HW113423  14.830  11.152  12.699
 3842SOL    HW213424   0.082  11.218  12.741
 3843SOL     OW13425  14.635  12.903   9.086
 3843SOL    HW113426  14.623  12.970   9.153
 3843SOL    HW213427  14.633  12.820   9.134
 3844SOL     OW13428   3.279  12.409   8.492
 3844SOL    HW113429   3.281  12.409   8.587
 3844SOL    HW213430   3.227  12.332   8.469
 3845SOL     OW13431  13.508  13.268   3.989
 3845SOL    HW113432  13.528  13.336   4.053
 3845SOL    HW213433  13.421  13.236   4.015
 3846SOL     OW13434   3.510   8.078   6.821
 3846SOL    HW113435   3.571   8.118   6.884
 3846SOL    HW213436   3.426   8.078   6.865
 3847SOL     OW13437   6.180   3.087   7.326
 3847SOL    HW113438   6.207   3.044   7.245
 3847SOL    HW213439   6.233   3.167   7.329
 3848SOL     OW13440   5.763   7.043   7.032
 3848SOL    HW113441   5.841   6.993   7.055
 3848SOL    HW213442   5.733   7.004   6.950
 3849SOL     OW13443   0.791   6.305  10.217
 3849SOL    HW113444   0.695   6.313  10.220
 3849SOL    HW213445   0.815   6.340  10.132
 3850SOL     OW13446   3.972   3.567  12.239
 3850SOL    HW113447   3.927   3.579  12.155
 3850SOL    HW213448   3.975   3.473  12.252
 3851SOL     OW13449   0.225  12.046   5.290
 3851SOL    HW113450   0.217  12.036   5.385
 3851SOL    HW213451   0.151  11.996   5.254
 3852SOL     OW13452  11.037  12.089   3.905
 3852SOL    HW113453  11.090  12.033   3.847
 3852SOL    HW213454  11.095  12.163   3.926
 3853SOL     OW13455   6.045   8.240  10.371
 3853SOL    HW113456   6.071   8.213  10.283
 3853SOL    HW213457   5.968   8.296  10.358
 3854SOL     OW13458  14.095   0.241   8.686
 3854SOL    HW113459  14.115   0.242   8.593
 3854SOL    HW213460  14.048   0.159   8.699
 3855SOL     OW13461  11.089   5.966  13.823
 3855SOL    HW113462  11.034   6.040  13.849
 3855SOL    HW213463  11.026   5.896  13.803
 3856SOL     OW13464   1.926   4.389  12.043
 3856SOL    HW113465   1.977   4.458  12.086
 3856SOL    HW213466   1.987   4.316  12.033
 3857SOL     OW13467  13.341   7.970   7.888
 3857SOL    HW113468  13.306   7.886   7.916
 3857SOL    HW213469  13.342   8.023   7.967
 3858SOL     OW13470   6.863   9.024   3.567
 3858SOL    HW113471   6.925   9.098   3.572
 3858SOL    HW213472   6.779   9.065   3.545
 3859SOL     OW13473   0.799   5.590  12.945
 3859SOL    HW113474   0.732   5.522  12.940
 3859SOL    HW213475   0.750   5.672  12.939
 3860SOL     OW13476  11.897  11.862   3.809
 3860SOL    HW113477  11.910  11.892   3.899
 3860SOL    HW213478  11.816  11.905   3.780
 3861SOL     OW13479  10.051  10.245  10.708
 3861SOL    HW113480  10.023  10.193  10.632
 3861SOL    HW213481   9.972  10.291  10.735
 3862SOL     OW13482   7.563  11.875  14.085
 3862SOL    HW113483   7.505  11.868  14.160
 3862SOL    HW213484   7.646  11.906  14.121
 3863SOL     OW13485   8.556   7.647   4.392
 3863SOL    HW113486   8.624   7.618   4.332
 3863SOL    HW213487   8.586   7.618   4.478
 3864SOL     OW13488   5.600   7.301   6.638
 3864SOL    HW113489   5.660   7.226   6.637
 3864SOL    HW213490   5.545   7.287   6.560
 3865SOL     OW13491   1.760  14.770  11.613
 3865SOL    HW113492   1.834  14.719  11.580
 3865SOL    HW213493   1.684  14.715  11.593
 3866SOL     OW13494   2.647   4.532   4.404
 3866SOL    HW113495   2.649   4.578   4.321
 3866SOL    HW213496   2.689   4.448   4.386
 3867SOL     OW13497   5.070  13.862  10.330
 3867SOL    HW113498   5.031  13.872  10.416
 3867SOL    HW213499   4.996  13.844  10.272
 3868SOL     OW13500  10.939   4.179  10.933
 3868SOL    HW113501  10.951   4.173  11.028
 3868SOL    HW213502  10.894   4.098  10.909
 3869SOL     OW13503   0.117   2.598   8.246
 3869SOL    HW113504   0.145   2.595   8.155
 3869SOL    HW213505   0.074   2.684   8.255
 3870SOL     OW13506   7.087   5.814   2.257
 3870SOL    HW113507   7.084   5.885   2.321
 3870SOL    HW213508   7.148   5.844   2.190
 3871SOL     OW13509  14.161   9.339   4.997
 3871SOL    HW113510  14.147   9.358   4.904
 3871SOL    HW213511  14.141   9.246   5.006
 3872SOL     OW13512   7.172   6.458  13.867
 3872SOL    HW113513   7.167   6.368  13.898
 3872SOL    HW213514   7.160   6.511  13.946
 3873SOL     OW13515   4.967   8.584   4.686
 3873SOL    HW113516   4.893   8.616   4.737
 3873SOL    HW213517   5.008   8.662   4.650
 3874SOL     OW13518   7.059   0.599   3.604
 3874SOL    HW113519   7.021   0.537   3.667
 3874SOL    HW213520   7.074   0.678   3.655
 3875SOL     OW13521  14.334  14.275   6.355
 3875SOL    HW113522  14.239  14.272   6.368
 3875SOL    HW213523  14.351  14.211   6.286
 3876SOL     OW13524  11.702  12.301  11.511
 3876SOL    HW113525  11.753  12.356  11.571
 3876SOL    HW213526  11.632  12.266  11.564
 3877SOL     OW13527  11.726   9.167   5.977
 3877SOL    HW113528  11.705   9.259   5.957
 3877SOL    HW213529  11.645   9.120   5.957
 3878SOL     OW13530   4.991  13.779   6.516
 3878SOL    HW113531   4.896  13.766   6.513
 3878SOL    HW213532   5.007  13.830   6.595
 3879SOL     OW13533   4.667   5.668  12.076
 3879SOL    HW113534   4.713   5.619  12.145
 3879SOL    HW213535   4.728   5.669  12.002
 3880SOL     OW13536   6.589   5.864   7.268
 3880SOL    HW113537   6.661   5.807   7.239
 3880SOL    HW213538   6.596   5.941   7.213
 3881SOL     OW13539   8.542  13.668  12.277
 3881SOL    HW113540   8.478  13.738  12.289
 3881SOL    HW213541   8.619  13.712  12.242
 3882SOL     OW13542   0.032   2.837  14.610
 3882SOL    HW113543   0.117   2.802  14.637
 3882SOL    HW213544   0.035   2.835  14.515
 3883SOL     OW13545   7.217   0.017  11.768
 3883SOL    HW113546   7.302  14.863  11.736
 3883SOL    HW213547   7.215   0.109  11.742
 3884SOL     OW13548   2.353  13.808  12.282
 3884SOL    HW113549   2.324  13.766  12.363
 3884SOL    HW213550   2.311  13.894  12.283
 3885SOL     OW13551   5.350   3.732   5.482
 3885SOL    HW113552   5.411   3.690   5.543
 3885SOL    HW213553   5.264   3.705   5.512
 3886SOL     OW13554   0.137  10.378  12.770
 3886SOL    HW113555   0.114  10.292  12.736
 3886SOL    HW213556   0.057  10.409  12.813
 3887SOL     OW13557  14.100  13.459   1.251
 3887SOL    HW113558  14.050  13.399   1.307
 3887SOL    HW213559  14.101  13.416   1.165
 3888SOL     OW13560  14.002   8.220  11.561
 3888SOL    HW113561  14.037   8.177  11.483
 3888SOL    HW213562  14.077   8.226  11.621
 3889SOL     OW13563  14.642   4.672  10.298
 3889SOL    HW113564  14.669   4.581  10.287
 3889SOL    HW213565  14.693   4.720  10.234
 3890SOL     OW13566   8.598   7.938  13.239
 3890SOL    HW113567   8.520   7.892  13.208
 3890SOL    HW213568   8.640   7.876  13.299
 3891SOL     OW13569   0.362   3.499   8.177
 3891SOL    HW113570   0.381   3.546   8.258
 3891SOL    HW213571   0.273   3.525   8.154
 3892SOL     OW13572  12.847   1.452   8.851
 3892SOL    HW113573  12.920   1.513   8.850
 3892SOL    HW213574  12.850   1.409   8.765
 3893SOL     OW13575   5.738   6.560   0.883
 3893SOL    HW113576   5.743   6.653   0.865
 3893SOL    HW213577   5.820   6.539   0.928
 3894SOL     OW13578  12.335   4.442   4.698
 3894SOL    HW113579  12.415   4.410   4.740
 3894SOL    HW213580  12.293   4.364   4.663
 3895SOL     OW13581   0.859  12.535   8.473
 3895SOL    HW113582   0.890  12.481   8.546
 3895SOL    HW213583   0.876  12.483   8.395
 3896SOL     OW13584   6.227   0.216   5.872
 3896SOL    HW113585   6.320   0.194   5.881
 3896SOL    HW213586   6.201   0.177   5.789
 3897SOL     OW13587   2.130   5.535   9.965
 3897SOL    HW113588   2.159   5.575  10.047
 3897SOL    HW213589   2.091   5.608   9.915
 3898SOL     OW13590   8.854   0.315   6.040
 3898SOL    HW113591   8.872   0.386   6.101
 3898SOL    HW213592   8.776   0.342   5.993
 3899SOL     OW13593  13.649  10.659   4.851
 3899SOL    HW113594  13.624  10.648   4.942
 3899SOL    HW213595  13.565  10.663   4.804
 3900SOL     OW13596  14.348   4.221  14.723
 3900SOL    HW113597  14.265   4.205  14.678
 3900SOL    HW213598  14.412   4.231  14.653
 3901SOL     OW13599   4.878   7.844   1.464
 3901SOL    HW113600   4.875   7.785   1.389
 3901SOL    HW213601   4.925   7.794   1.531
 3902SOL     OW13602   3.578   1.139   8.460
 3902SOL    HW113603   3.605   1.217   8.509
 3902SOL    HW213604   3.650   1.077   8.471
 3903SOL     OW13605   8.216   7.184   2.682
 3903SOL    HW113606   8.125   7.157   2.688
 3903SOL    HW213607   8.243   7.158   2.594
 3904SOL     OW13608   1.918  10.065  10.411
 3904SOL    HW113609   1.942  10.081  10.502
 3904SOL    HW213610   2.001  10.058  10.365
 3905SOL     OW13611  13.975   5.568   4.665
 3905SOL    HW113612  13.955   5.612   4.748
 3905SOL    HW213613  13.894   5.574   4.615
 3906SOL     OW13614   9.947   4.318   4.742
 3906SOL    HW113615   9.900   4.240   4.770
 3906SOL    HW213616   9.928   4.325   4.648
 3907SOL     OW13617   2.538   4.725  10.111
 3907SOL    HW113618   2.496   4.639  10.110
 3907SOL    HW213619   2.515   4.764  10.027
 3908SOL     OW13620   5.341  14.050   6.607
 3908SOL    HW113621   5.367  14.075   6.518
 3908SOL    HW213622   5.310  13.960   6.598
 3909SOL     OW13623  14.693   3.070   1.427
 3909SOL    HW113624  14.633   3.138   1.457
 3909SOL    HW213625  14.776   3.116   1.413
 3910SOL     OW13626   9.175   2.385   2.492
 3910SOL    HW113627   9.246   2.323   2.478
 3910SOL    HW213628   9.103   2.352   2.438
 3911SOL     OW13629   9.950  14.221   2.012
 3911SOL    HW113630   9.924  14.279   2.083
 3911SOL    HW213631  10.014  14.271   1.962
 3912SOL     OW13632   8.878   8.696  12.677
 3912SOL    HW113633   8.856   8.626  12.615
 3912SOL    HW213634   8.832   8.673  12.757
 3913SOL     OW13635  13.583   5.915   6.532
 3913SOL    HW113636  13.530   5.990   6.560
 3913SOL    HW213637  13.519   5.844   6.520
 3914SOL     OW13638   3.229   8.203   9.012
 3914SOL    HW113639   3.184   8.246   9.084
 3914SOL    HW213640   3.159   8.170   8.956
 3915SOL     OW13641   3.934   2.241   6.692
 3915SOL    HW113642   3.958   2.152   6.668
 3915SOL    HW213643   4.002   2.267   6.755
 3916SOL     OW13644   4.516  12.954   3.874
 3916SOL    HW113645   4.511  12.881   3.812
 3916SOL    HW213646   4.600  12.941   3.919
 3917SOL     OW13647  13.348   7.245   7.468
 3917SOL    HW113648  13.278   7.261   7.531
 3917SOL    HW213649  13.358   7.149   7.468
 3918SOL     OW13650  14.095   4.425  10.917
 3918SOL    HW113651  14.128   4.382  10.838
 3918SOL    HW213652  14.016   4.471  10.889
 3919SOL     OW13653  13.257   7.063   1.920
 3919SOL    HW113654  13.313   7.011   1.977
 3919SOL    HW213655  13.189   7.098   1.978
 3920SOL     OW13656   1.977   4.185  11.699
 3920SOL    HW113657   1.888   4.163  11.726
 3920SOL    HW213658   2.028   4.183  11.780
 3921SOL     OW13659  12.502  12.710   1.226
 3921SOL    HW113660  12.541  12.790   1.191
 3921SOL    HW213661  12.470  12.734   1.313
 3922SOL     OW13662   2.483  14.744   3.750
 3922SOL    HW113663   2.446  14.830   3.733
 3922SOL    HW213664   2.555  14.736   3.687
 3923SOL     OW13665   9.705  12.201   4.091
 3923SOL    HW113666   9.759  12.209   4.012
 3923SOL    HW213667   9.652  12.123   4.077
 3924SOL     OW13668   4.646  11.850  12.656
 3924SOL    HW113669   4.719  11.836  12.717
 3924SOL    HW213670   4.601  11.928  12.690
 3925SOL     OW13671  12.285  13.019   2.789
 3925SOL    HW113672  12.303  12.930   2.819
 3925SOL    HW213673  12.369  13.051   2.756
 3926SOL     OW13674  10.708   8.036   4.944
 3926SOL    HW113675  10.613   8.029   4.938
 3926SOL    HW213676  10.725   8.128   4.964
 3927SOL     OW13677  11.376  10.898   1.270
 3927SOL    HW113678  11.329  10.904   1.354
 3927SOL    HW213679  11.365  10.807   1.244
 3928SOL     OW13680   3.231   1.791  11.782
 3928SOL    HW113681   3.194   1.704  11.795
 3928SOL    HW213682   3.183   1.847  11.843
 3929SOL     OW13683   4.846   6.540   8.247
 3929SOL    HW113684   4.854   6.462   8.193
 3929SOL    HW213685   4.870   6.512   8.335
 3930SOL     OW13686  12.213   7.215   5.288
 3930SOL    HW113687  12.132   7.240   5.244
 3930SOL    HW213688  12.281   7.231   5.223
 3931SOL     OW13689  11.213   1.446   6.604
 3931SOL    HW113690  11.127   1.426   6.567
 3931SOL    HW213691  11.255   1.360   6.613
 3932SOL     OW13692  10.435   4.617   0.311
 3932SOL    HW113693  10.343   4.619   0.339
 3932SOL    HW213694  10.432   4.635   0.217
 3933SOL     OW13695  11.775   1.474   8.030
 3933SOL    HW113696  11.798   1.519   7.948
 3933SOL    HW213697  11.719   1.537   8.076
 3934SOL     OW13698   3.338  13.113   1.137
 3934SOL    HW113699   3.420  13.064   1.131
 3934SOL    HW213700   3.279  13.055   1.185
 3935SOL     OW13701   9.746   9.997  10.872
 3935SOL    HW113702   9.737  10.063  10.941
 3935SOL    HW213703   9.660   9.993  10.831
 3936SOL     OW13704  14.377   7.765   6.437
 3936SOL    HW113705  14.463   7.798   6.465
 3936SOL    HW213706  14.385   7.670   6.439
 3937SOL     OW13707   1.855  14.697   1.020
 3937SOL    HW113708   1.774  14.651   0.998
 3937SOL    HW213709   1.924  14.642   0.984
 3938SOL     OW13710  13.312   5.877   0.720
 3938SOL    HW113711  13.358   5.804   0.679
 3938SOL    HW213712  13.376   5.948   0.722
 3939SOL     OW13713  12.720   4.634  13.369
 3939SOL    HW113714  12.700   4.629  13.463
 3939SOL    HW213715  12.637   4.615  13.325
 3940SOL     OW13716  14.234   9.537  12.296
 3940SOL    HW113717  14.198   9.570  12.379
 3940SOL    HW213718  14.252   9.445  12.313
 3941SOL     OW13719  10.598   2.751   4.251
 3941SOL    HW113720  10.514   2.797   4.248
 3941SOL    HW213721  10.660   2.814   4.215
 3942SOL     OW13722   8.267  14.716  13.100
 3942SOL    HW113723   8.343  14.670  13.136
 3942SOL    HW213724   8.259  14.795  13.153
 3943SOL     OW13725   6.726   7.192   3.225
 3943SOL    HW113726   6.656   7.237   3.177
 3943SOL    HW213727   6.778   7.151   3.156
 3944SOL     OW13728   4.638  14.318   4.316
 3944SOL    HW113729   4.704  14.329   4.385
 3944SOL    HW213730   4.663  14.381   4.249
 3945SOL     OW13731   8.007  10.808   5.747
 3945SOL    HW113732   7.928  10.838   5.791
 3945SOL    HW213733   8.070  10.794   5.818
 3946SOL     OW13734   2.373   7.353   6.197
 3946SOL    HW113735   2.363   7.323   6.288
 3946SOL    HW213736   2.408   7.441   6.204
 3947SOL     OW13737   2.341  10.335   3.883
 3947SOL    HW113738   2.336  10.312   3.790
 3947SOL    HW213739   2.410  10.279   3.918
 3948SOL     OW13740  12.483   2.013   7.721
 3948SOL    HW113741  12.514   1.941   7.666
 3948SOL    HW213742  12.554   2.078   7.718
 3949SOL     OW13743   6.812   2.141   4.225
 3949SOL    HW113744   6.855   2.187   4.297
 3949SOL    HW213745   6.883   2.109   4.170
 3950SOL     OW13746   2.664  12.396   5.147
 3950SOL    HW113747   2.703  12.417   5.232
 3950SOL    HW213748   2.727  12.336   5.107
 3951SOL     OW13749   8.858   6.005   8.645
 3951SOL    HW113750   8.832   6.083   8.694
 3951SOL    HW213751   8.826   5.931   8.697
 3952SOL     OW13752   5.237   5.621  13.376
 3952SOL    HW113753   5.209   5.699  13.424
 3952SOL    HW213754   5.330   5.612  13.397
 3953SOL     OW13755  11.976   4.768  12.418
 3953SOL    HW113756  12.013   4.841  12.367
 3953SOL    HW213757  12.018   4.775  12.504
 3954SOL     OW13758   8.775   3.385   9.252
 3954SOL    HW113759   8.830   3.455   9.289
 3954SOL    HW213760   8.703   3.432   9.209
 3955SOL     OW13761   8.724  11.097  13.316
 3955SOL    HW113762   8.698  11.014  13.276
 3955SOL    HW213763   8.818  11.091  13.327
 3956SOL     OW13764   8.312  11.890   3.871
 3956SOL    HW113765   8.393  11.873   3.919
 3956SOL    HW213766   8.251  11.921   3.937
 3957SOL     OW13767   4.979  14.175   5.422
 3957SOL    HW113768   4.985  14.098   5.365
 3957SOL    HW213769   4.887  14.178   5.449
 3958SOL     OW13770   7.821   8.990   6.166
 3958SOL    HW113771   7.804   8.899   6.191
 3958SOL    HW213772   7.870   8.984   6.084
 3959SOL     OW13773   9.516   9.324  10.113
 3959SOL    HW113774   9.572   9.384  10.065
 3959SOL    HW213775   9.446   9.301  10.052
 3960SOL     OW13776  13.340   1.777   7.267
 3960SOL    HW113777  13.401   1.850   7.264
 3960SOL    HW213778  13.254   1.818   7.275
 3961SOL     OW13779   4.808  11.466   4.362
 3961SOL    HW113780   4.893  11.510   4.369
 3961SOL    HW213781   4.810  11.400   4.432
 3962SOL     OW13782   0.071  14.432   3.707
 3962SOL    HW113783   0.043  14.419   3.617
 3962SOL    HW213784  14.877  14.480   3.748
 3963SOL     OW13785   2.471   7.824   9.503
 3963SOL    HW113786   2.499   7.737   9.476
 3963SOL    HW213787   2.381   7.831   9.472
 3964SOL     OW13788  10.214  11.186  12.496
 3964SOL    HW113789  10.191  11.216  12.583
 3964SOL    HW213790  10.165  11.243  12.437
 3965SOL     OW13791   8.036   0.385   8.358
 3965SOL    HW113792   8.037   0.407   8.265
 3965SOL    HW213793   8.118   0.338   8.373
 3966SOL     OW13794  12.540   0.497   4.702
 3966SOL    HW113795  12.480   0.439   4.655
 3966SOL    HW213796  12.490   0.578   4.714
 3967SOL     OW13797   9.510   7.045   7.129
 3967SOL    HW113798   9.549   7.019   7.212
 3967SOL    HW213799   9.455   6.971   7.104
 3968SOL     OW13800  10.213   4.531   7.636
 3968SOL    HW113801  10.188   4.489   7.718
 3968SOL    HW213802  10.231   4.459   7.576
 3969SOL     OW13803   0.072   0.002   1.012
 3969SOL    HW113804   0.142  14.817   0.996
 3969SOL    HW213805   0.030   0.014   0.927
 3970SOL     OW13806   4.008  13.107   4.928
 3970SOL    HW113807   3.916  13.099   4.954
 3970SOL    HW213808   4.022  13.202   4.921
 3971SOL     OW13809   3.422   8.170  11.727
 3971SOL    HW113810   3.431   8.076  11.740
 3971SOL    HW213811   3.426   8.207  11.816
 3972SOL     OW13812  10.402  13.602   4.952
 3972SOL    HW113813  10.394  13.602   4.856
 3972SOL    HW213814  10.464  13.673   4.970
 3973SOL     OW13815   0.819   1.321   7.097
 3973SOL    HW113816   0.800   1.366   7.179
 3973SOL    HW213817   0.769   1.240   7.102
 3974SOL     OW13818   2.716   5.213  12.755
 3974SOL    HW113819   2.777   5.145  12.726
 3974SOL    HW213820   2.729   5.218  12.850
 3975SOL     OW13821  10.501   4.201   1.165
 3975SOL    HW113822  10.559   4.260   1.213
 3975SOL    HW213823  10.554   4.169   1.092
 3976SOL     OW13824   9.640   3.565  13.037
 3976SOL    HW113825   9.637   3.470  13.021
 3976SOL    HW213826   9.617   3.575  13.129
 3977SOL     OW13827   2.001   5.992  10.105
 3977SOL    HW113828   1.949   5.933  10.050
 3977SOL    HW213829   2.005   6.074  10.055
 3978SOL     OW13830  10.469  13.457   4.464
 3978SOL    HW113831  10.504  13.368   4.464
 3978SOL    HW213832  10.407  13.459   4.391
 3979SOL     OW13833   5.421   5.876   4.106
 3979SOL    HW113834   5.378   5.818   4.044
 3979SOL    HW213835   5.395   5.843   4.192
 3980SOL     OW13836   4.926  11.457   9.476
 3980SOL    HW113837   4.902  11.506   9.555
 3980SOL    HW213838   4.952  11.524   9.413
 3981SOL     OW13839   1.165   3.653   4.987
 3981SOL    HW113840   1.091   3.713   4.996
 3981SOL    HW213841   1.129   3.578   4.939
 3982SOL     OW13842   4.110   7.480  10.102
 3982SOL    HW113843   4.068   7.502  10.019
 3982SOL    HW213844   4.143   7.391  10.089
 3983SOL     OW13845  11.870  14.094  14.014
 3983SOL    HW113846  11.958  14.086  14.052
 3983SOL    HW213847  11.839  14.180  14.042
 3984SOL     OW13848   6.148   5.104  11.259
 3984SOL    HW113849   6.076   5.120  11.199
 3984SOL    HW213850   6.187   5.022  11.229
 3985SOL     OW13851   9.290   9.842  11.751
 3985SOL    HW113852   9.299   9.877  11.840
 3985SOL    HW213853   9.310   9.749  11.761
 3986SOL     OW13854   6.345  12.977   2.882
 3986SOL    HW113855   6.409  13.036   2.841
 3986SOL    HW213856   6.340  12.902   2.822
 3987SOL     OW13857   5.004   2.161  10.531
 3987SOL    HW113858   5.099   2.160  10.530
 3987SOL    HW213859   4.978   2.074  10.502
 3988SOL     OW13860  13.596   2.025   8.576
 3988SOL    HW113861  13.686   1.993   8.576
 3988SOL    HW213862  13.544   1.949   8.550
 3989SOL     OW13863   9.554   5.308  14.844
 3989SOL    HW113864   9.645   5.328  14.863
 3989SOL    HW213865   9.521   5.385  14.798
 3990SOL     OW13866  11.510   9.872  11.850
 3990SOL    HW113867  11.548   9.882  11.763
 3990SOL    HW213868  11.474   9.783  11.851
 3991SOL     OW13869  14.406   5.973  11.112
 3991SOL    HW113870  14.495   6.010  11.117
 3991SOL    HW213871  14.352   6.034  11.163
 3992SOL     OW13872   4.373   6.283   6.586
 3992SOL    HW113873   4.442   6.340   6.619
 3992SOL    HW213874   4.412   6.240   6.510
 3993SOL     OW13875   0.925   1.117   0.841
 3993SOL    HW113876   0.972   1.051   0.892
 3993SOL    HW213877   0.855   1.146   0.899
 3994SOL     OW13878   1.387   0.267   3.504
 3994SOL    HW113879   1.440   0.329   3.454
 3994SOL    HW213880   1.401   0.292   3.596
 3995SOL     OW13881   1.321  11.114   4.796
 3995SOL    HW113882   1.307  11.129   4.702
 3995SOL    HW213883   1.414  11.093   4.803
 3996SOL     OW13884   2.715  13.689   9.720
 3996SOL    HW113885   2.665  13.702   9.800
 3996SOL    HW213886   2.772  13.765   9.714
 3997SOL     OW13887  11.065  13.241   1.715
 3997SOL    HW113888  10.982  13.198   1.697
 3997SOL    HW213889  11.075  13.237   1.810
 3998SOL     OW13890   0.624   9.279   7.977
 3998SOL    HW113891   0.608   9.343   7.907
 3998SOL    HW213892   0.575   9.313   8.052
 3999SOL     OW13893   3.328   5.977  13.046
 3999SOL    HW113894   3.357   5.892  13.014
 3999SOL    HW213895   3.322   5.966  13.141
 4000SOL     OW13896  13.562  14.274   8.705
 4000SOL    HW113897  13.473  14.243   8.691
 4000SOL    HW213898  13.568  14.355   8.654
 4001SOL     OW13899  14.082  13.207   8.430
 4001SOL    HW113900  14.080  13.161   8.514
 4001SOL    HW213901  14.100  13.298   8.452
 4002SOL     OW13902   4.567   6.232   5.178
 4002SOL    HW113903   4.483   6.250   5.221
 4002SOL    HW213904   4.625   6.301   5.210
 4003SOL     OW13905   0.672   4.678   0.154
 4003SOL    HW113906   0.622   4.648   0.077
 4003SOL    HW213907   0.684   4.599   0.207
 4004SOL     OW13908   2.346   7.594   6.427
 4004SOL    HW113909   2.274   7.650   6.400
 4004SOL    HW213910   2.400   7.586   6.348
 4005SOL     OW13911   2.948   9.804  12.549
 4005SOL    HW113912   2.854   9.800  12.570
 4005SOL    HW213913   2.964   9.726  12.496
 4006SOL     OW13914  13.531   5.838   8.205
 4006SOL    HW113915  13.575   5.816   8.122
 4006SOL    HW213916  13.467   5.905   8.181
 4007SOL     OW13917   5.862   5.730   4.987
 4007SOL    HW113918   5.821   5.726   5.073
 4007SOL    HW213919   5.880   5.639   4.964
 4008SOL     OW13920   9.656   0.227   0.407
 4008SOL    HW113921   9.733   0.260   0.361
 4008SOL    HW213922   9.692   0.182   0.484
 4009SOL     OW13923  12.513  10.833  13.523
 4009SOL    HW113924  12.468  10.843  13.439
 4009SOL    HW213925  12.594  10.881  13.512
 4010SOL     OW13926   5.775   0.923  11.667
 4010SOL    HW113927   5.722   0.858  11.713
 4010SOL    HW213928   5.861   0.919  11.709
 4011SOL     OW13929  12.894   6.517  11.365
 4011SOL    HW113930  12.915   6.427  11.342
 4011SOL    HW213931  12.818   6.538  11.311
 4012SOL     OW13932   6.439  10.480  12.151
 4012SOL    HW113933   6.468  10.498  12.241
 4012SOL    HW213934   6.372  10.547  12.134
 4013SOL     OW13935   8.812   1.596   8.289
 4013SOL    HW113936   8.835   1.541   8.213
 4013SOL    HW213937   8.865   1.561   8.360
 4014SOL     OW13938   5.134   2.067   5.865
 4014SOL    HW113939   5.059   2.057   5.924
 4014SOL    HW213940   5.119   2.002   5.796
 4015SOL     OW13941  12.533   9.202  14.191
 4015SOL    HW113942  12.467   9.238  14.132
 4015SOL    HW213943  12.512   9.239  14.277
 4016SOL     OW13944   3.208  12.126   9.706
 4016SOL    HW113945   3.135  12.186   9.691
 4016SOL    HW213946   3.280  12.182   9.735
 4017SOL     OW13947  14.141  13.871  11.134
 4017SOL    HW113948  14.170  13.961  11.145
 4017SOL    HW213949  14.156  13.851  11.042
 4018SOL     OW13950   0.736   6.036  10.822
 4018SOL    HW113951   0.725   6.000  10.910
 4018SOL    HW213952   0.711   6.128  10.830
 4019SOL     OW13953   4.203   8.654  13.509
 4019SOL    HW113954   4.113   8.680  13.489
 4019SOL    HW213955   4.217   8.574  13.459
 4020SOL     OW13956  14.531   7.297   1.819
 4020SOL    HW113957  14.581   7.280   1.739
 4020SOL    HW213958  14.488   7.213   1.838
 4021SOL     OW13959  10.929   1.945   6.092
 4021SOL    HW113960  11.025   1.952   6.093
 4021SOL    HW213961  10.899   2.026   6.133
 4022SOL     OW13962   8.004   8.007   7.794
 4022SOL    HW113963   8.032   8.098   7.790
 4022SOL    HW213964   7.929   8.001   7.734
 4023SOL     OW13965   0.036   4.908   4.472
 4023SOL    HW113966   0.073   4.949   4.393
 4023SOL    HW213967   0.087   4.828   4.483
 4024SOL     OW13968   3.002  14.737  14.330
 4024SOL    HW113969   2.920  14.718  14.376
 4024SOL    HW213970   3.060  14.771  14.398
 4025SOL     OW13971  12.771  11.978   1.238
 4025SOL    HW113972  12.703  11.933   1.289
 4025SOL    HW213973  12.760  11.943   1.149
 4026SOL     OW13974   4.911  13.428  13.592
 4026SOL    HW113975   4.843  13.422  13.526
 4026SOL    HW213976   4.864  13.425  13.676
 4027SOL     OW13977  12.859   9.716  11.708
 4027SOL    HW113978  12.952   9.696  11.719
 4027SOL    HW213979  12.848   9.801  11.751
 4028SOL     OW13980  13.262   1.553   8.323
 4028SOL    HW113981  13.179   1.524   8.286
 4028SOL    HW213982  13.302   1.606   8.253
 4029SOL     OW13983   1.191   5.257  13.458
 4029SOL    HW113984   1.242   5.315  13.515
 4029SOL    HW213985   1.155   5.316  13.392
 4030SOL     OW13986   7.733  13.360   0.518
 4030SOL    HW113987   7.793  13.431   0.493
 4030SOL    HW213988   7.759  13.286   0.463
 4031SOL     OW13989   3.471  12.329   3.533
 4031SOL    HW113990   3.522  12.324   3.613
 4031SOL    HW213991   3.509  12.401   3.484
 4032SOL     OW13992   8.085   5.264  14.239
 4032SOL    HW113993   8.030   5.221  14.173
 4032SOL    HW213994   8.073   5.212  14.318
 4033SOL     OW13995   3.267   5.523   8.150
 4033SOL    HW113996   3.185   5.473   8.153
 4033SOL    HW213997   3.331   5.462   8.115
 4034SOL     OW13998   8.026   4.562  10.220
 4034SOL    HW113999   7.961   4.566  10.290
 4034SOL    HW214000   7.998   4.490  10.164
 4035SOL     OW14001  12.322  10.341   9.019
 4035SOL    HW114002  12.243  10.331   8.967
 4035SOL    HW214003  12.295  10.316   9.108
 4036SOL     OW14004   3.488   6.710   4.960
 4036SOL    HW114005   3.481   6.783   4.899
 4036SOL    HW214006   3.398   6.678   4.970
 4037SOL     OW14007   0.186   5.863   6.176
 4037SOL    HW114008   0.234   5.932   6.130
 4037SOL    HW214009   0.254   5.809   6.215
 4038SOL     OW14010   8.351   7.040  11.399
 4038SOL    HW114011   8.357   7.026  11.304
 4038SOL    HW214012   8.322   7.131  11.408
 4039SOL     OW14013   7.372   1.066   3.162
 4039SOL    HW114014   7.389   1.004   3.091
 4039SOL    HW214015   7.439   1.047   3.227
 4040SOL     OW14016  12.098   9.868  12.645
 4040SOL    HW114017  12.175   9.824  12.682
 4040SOL    HW214018  12.024   9.817  12.678
 4041SOL     OW14019   3.536   8.099  13.633
 4041SOL    HW114020   3.448   8.073  13.662
 4041SOL    HW214021   3.543   8.065  13.544
 4042SOL     OW14022  14.719   5.287   9.990
 4042SOL    HW114023  14.659   5.352   9.956
 4042SOL    HW214024  14.748   5.322  10.074
 4043SOL     OW14025   1.253   9.864   9.085
 4043SOL    HW114026   1.231   9.846   8.994
 4043SOL    HW214027   1.251   9.960   9.091
 4044SOL     OW14028  11.318   4.280  10.346
 4044SOL    HW114029  11.271   4.260  10.265
 4044SOL    HW214030  11.339   4.194  10.383
 4045SOL     OW14031   1.609   5.995   4.889
 4045SOL    HW114032   1.672   5.931   4.922
 4045SOL    HW214033   1.526   5.947   4.885
 4046SOL     OW14034   0.966   4.433   0.221
 4046SOL    HW114035   0.933   4.358   0.170
 4046SOL    HW214036   0.975   4.503   0.156
 4047SOL     OW14037   0.280   6.964  10.336
 4047SOL    HW114038   0.229   6.901  10.286
 4047SOL    HW214039   0.369   6.928  10.336
 4048SOL     OW14040   1.869  10.220   3.077
 4048SOL    HW114041   1.920  10.251   3.002
 4048SOL    HW214042   1.934  10.203   3.145
 4049SOL     OW14043   7.461   5.848  13.437
 4049SOL    HW114044   7.530   5.788  13.467
 4049SOL    HW214045   7.490   5.874  13.350
 4050SOL     OW14046   3.881   2.529   3.772
 4050SOL    HW114047   3.806   2.552   3.718
 4050SOL    HW214048   3.892   2.435   3.759
 4051SOL     OW14049  13.953  13.608  14.055
 4051SOL    HW114050  13.868  13.589  14.095
 4051SOL    HW214051  14.016  13.571  14.116
 4052SOL     OW14052   1.323   0.811   6.904
 4052SOL    HW114053   1.387   0.753   6.945
 4052SOL    HW214054   1.364   0.898   6.906
 4053SOL     OW14055   5.924   4.063   8.481
 4053SOL    HW114056   5.900   4.078   8.573
 4053SOL    HW214057   5.864   4.120   8.432
 4054SOL     OW14058   7.885  14.649   0.455
 4054SOL    HW114059   7.830  14.724   0.476
 4054SOL    HW214060   7.825  14.584   0.419
 4055SOL     OW14061  12.215   0.465   4.072
 4055SOL    HW114062  12.141   0.495   4.020
 4055SOL    HW214063  12.234   0.537   4.132
 4056SOL     OW14064   8.397   1.342  12.939
 4056SOL    HW114065   8.360   1.274  12.996
 4056SOL    HW214066   8.492   1.329  12.945
 4057SOL     OW14067   5.049  14.542   6.338
 4057SOL    HW114068   5.073  14.594   6.415
 4057SOL    HW214069   5.083  14.592   6.264
 4058SOL     OW14070  12.255   3.703   0.715
 4058SOL    HW114071  12.306   3.681   0.793
 4058SOL    HW214072  12.164   3.706   0.745
 4059SOL     OW14073   4.292   7.206  14.157
 4059SOL    HW114074   4.217   7.191  14.214
 4059SOL    HW214075   4.255   7.246  14.078
 4060SOL     OW14076   8.096  14.392   4.700
 4060SOL    HW114077   8.002  14.373   4.703
 4060SOL    HW214078   8.133  14.344   4.774
 4061SOL     OW14079  14.652  14.580   8.894
 4061SOL    HW114080  14.690  14.607   8.978
 4061SOL    HW214081  14.598  14.503   8.916
 4062SOL     OW14082  12.505  10.484  13.233
 4062SOL    HW114083  12.554  10.449  13.306
 4062SOL    HW214084  12.562  10.552  13.196
 4063SOL     OW14085   0.987   5.167   3.541
 4063SOL    HW114086   0.990   5.208   3.628
 4063SOL    HW214087   0.917   5.214   3.496
 4064SOL     OW14088   5.498   8.104   3.693
 4064SOL    HW114089   5.472   8.040   3.626
 4064SOL    HW214090   5.539   8.175   3.643
 4065SOL     OW14091   6.481   3.541  12.582
 4065SOL    HW114092   6.417   3.481  12.621
 4065SOL    HW214093   6.564   3.515  12.622
 4066SOL     OW14094  11.076   4.742   2.195
 4066SOL    HW114095  11.073   4.653   2.228
 4066SOL    HW214096  10.984   4.771   2.197
 4067SOL     OW14097   6.143  10.178  11.347
 4067SOL    HW114098   6.232  10.156  11.317
 4067SOL    HW214099   6.108  10.233  11.277
 4068SOL     OW14100   5.068  10.543   7.514
 4068SOL    HW114101   5.062  10.588   7.430
 4068SOL    HW214102   5.025  10.459   7.499
 4069SOL     OW14103  11.417   8.288   1.668
 4069SOL    HW114104  11.469   8.254   1.596
 4069SOL    HW214105  11.468   8.360   1.704
 4070SOL     OW14106   1.799   4.685  14.705
 4070SOL    HW114107   1.755   4.641  14.778
 4070SOL    HW214108   1.891   4.692  14.733
 4071SOL     OW14109  11.302   0.666   6.654
 4071SOL    HW114110  11.288   0.638   6.563
 4071SOL    HW214111  11.358   0.744   6.646
 4072SOL     OW14112   6.408  12.097   4.147
 4072SOL    HW114113   6.404  12.144   4.063
 4072SOL    HW214114   6.346  12.144   4.203
 4073SOL     OW14115   9.824   7.302   9.074
 4073SOL    HW114116   9.791   7.294   8.984
 4073SOL    HW214117   9.812   7.394   9.096
 4074SOL     OW14118  10.418   1.151  14.646
 4074SOL    HW114119  10.336   1.125  14.688
 4074SOL    HW214120  10.404   1.132  14.553
 4075SOL     OW14121   8.876  12.012   2.816
 4075SOL    HW114122   8.825  11.991   2.894
 4075SOL    HW214123   8.814  12.008   2.744
 4076SOL     OW14124  11.322   6.321  14.717
 4076SOL    HW114125  11.242   6.314  14.769
 4076SOL    HW214126  11.378   6.381  14.767
 4077SOL     OW14127   1.028   4.493  11.974
 4077SOL    HW114128   1.049   4.527  11.886
 4077SOL    HW214129   1.095   4.531  12.030
 4078SOL     OW14130  10.187  13.016   3.723
 4078SOL    HW114131  10.268  12.971   3.749
 4078SOL    HW214132  10.134  12.949   3.681
 4079SOL     OW14133   6.471   8.706   2.799
 4079SOL    HW114134   6.524   8.765   2.854
 4079SOL    HW214135   6.531   8.677   2.731
 4080SOL     OW14136  12.168   9.570   2.789
 4080SOL    HW114137  12.200   9.529   2.709
 4080SOL    HW214138  12.239   9.629   2.816
 4081SOL     OW14139   3.636   0.751   0.177
 4081SOL    HW114140   3.545   0.724   0.163
 4081SOL    HW214141   3.631   0.833   0.225
 4082SOL     OW14142   8.170   6.948   2.127
 4082SOL    HW114143   8.230   7.015   2.096
 4082SOL    HW214144   8.226   6.884   2.170
 4083SOL     OW14145   1.658  11.263  13.357
 4083SOL    HW114146   1.700  11.204  13.420
 4083SOL    HW214147   1.730  11.294  13.302
 4084SOL     OW14148  11.303   5.099   3.273
 4084SOL    HW114149  11.355   5.179   3.267
 4084SOL    HW214150  11.213   5.129   3.284
 4085SOL     OW14151  13.079  10.479   2.807
 4085SOL    HW114152  13.001  10.457   2.859
 4085SOL    HW214153  13.044  10.498   2.720
 4086SOL     OW14154  12.829   7.971   1.611
 4086SOL    HW114155  12.851   7.891   1.659
 4086SOL    HW214156  12.736   7.963   1.592
 4087SOL     OW14157   5.637  10.338   4.717
 4087SOL    HW114158   5.636  10.268   4.652
 4087SOL    HW214159   5.625  10.418   4.665
 4088SOL     OW14160   4.373   3.510   9.123
 4088SOL    HW114161   4.396   3.542   9.035
 4088SOL    HW214162   4.292   3.557   9.144
 4089SOL     OW14163   2.121   9.302   8.647
 4089SOL    HW114164   2.099   9.219   8.690
 4089SOL    HW214165   2.118   9.367   8.717
 4090SOL     OW14166   8.430   2.557  13.189
 4090SOL    HW114167   8.376   2.635  13.202
 4090SOL    HW214168   8.494   2.560  13.260
 4091SOL     OW14169   0.922   4.183  12.653
 4091SOL    HW114170   0.923   4.225  12.567
 4091SOL    HW214171   0.842   4.131  12.653
 4092SOL     OW14172  11.728   1.204   2.604
 4092SOL    HW114173  11.650   1.230   2.554
 4092SOL    HW214174  11.802   1.237   2.553
 4093SOL     OW14175  14.607   4.009   2.091
 4093SOL    HW114176  14.555   4.065   2.033
 4093SOL    HW214177  14.544   3.947   2.128
 4094SOL     OW14178   3.500   4.623  13.976
 4094SOL    HW114179   3.552   4.551  13.940
 4094SOL    HW214180   3.531   4.700  13.929
 4095SOL     OW14181   7.136   0.564  13.783
 4095SOL    HW114182   7.137   0.625  13.709
 4095SOL    HW214183   7.080   0.607  13.848
 4096SOL     OW14184   3.815   7.407   9.329
 4096SOL    HW114185   3.731   7.367   9.352
 4096SOL    HW214186   3.874   7.333   9.313
 4097SOL     OW14187   5.539  12.426   3.039
 4097SOL    HW114188   5.568  12.389   2.956
 4097SOL    HW214189   5.512  12.515   3.018
 4098SOL     OW14190   7.390   0.457   9.971
 4098SOL    HW114191   7.450   0.452  10.046
 4098SOL    HW214192   7.434   0.409   9.901
 4099SOL     OW14193   9.862   6.529   5.026
 4099SOL    HW114194   9.890   6.604   4.974
 4099SOL    HW214195   9.767   6.537   5.030
 4100SOL     OW14196  11.389   4.722  12.681
 4100SOL    HW114197  11.405   4.797  12.624
 4100SOL    HW214198  11.412   4.646  12.627
 4101SOL     OW14199   8.339  10.405   7.376
 4101SOL    HW114200   8.429  10.383   7.403
 4101SOL    HW214201   8.285  10.337   7.416
 4102SOL     OW14202  13.384  10.860   1.896
 4102SOL    HW114203  13.444  10.837   1.967
 4102SOL    HW214204  13.439  10.903   1.830
 4103SOL     OW14205   6.421  10.974   9.587
 4103SOL    HW114206   6.355  10.931   9.532
 4103SOL    HW214207   6.498  10.917   9.580
 4104SOL     OW14208   2.185   6.970   1.625
 4104SOL    HW114209   2.100   7.014   1.622
 4104SOL    HW214210   2.163   6.877   1.627
 4105SOL     OW14211   8.407  10.936   1.437
 4105SOL    HW114212   8.327  10.886   1.419
 4105SOL    HW214213   8.405  10.951   1.532
 4106SOL     OW14214   3.388   7.196  10.232
 4106SOL    HW114215   3.474   7.231  10.209
 4106SOL    HW214216   3.385   7.110  10.191
 4107SOL     OW14217   2.806  12.179  10.974
 4107SOL    HW114218   2.859  12.180  10.894
 4107SOL    HW214219   2.719  12.205  10.945
 4108SOL     OW14220   9.889   7.324   5.763
 4108SOL    HW114221   9.811   7.270   5.772
 4108SOL    HW214222   9.907   7.356   5.851
 4109SOL     OW14223   9.563  13.383   8.580
 4109SOL    HW114224   9.480  13.425   8.557
 4109SOL    HW214225   9.543  13.332   8.659
 4110SOL     OW14226   9.475  14.121   9.188
 4110SOL    HW114227   9.534  14.047   9.204
 4110SOL    HW214228   9.527  14.198   9.213
 4111SOL     OW14229   8.524   5.084  13.487
 4111SOL    HW114230   8.446   5.123  13.526
 4111SOL    HW214231   8.547   5.011  13.545
 4112SOL     OW14232  13.451   3.769  14.802
 4112SOL    HW114233  13.462   3.785   0.018
 4112SOL    HW214234  13.451   3.674  14.794
 4113SOL     OW14235  12.197   7.439  14.508
 4113SOL    HW114236  12.150   7.519  14.485
 4113SOL    HW214237  12.191   7.434  14.604
 4114SOL     OW14238  10.756   8.310   5.052
 4114SOL    HW114239  10.827   8.321   4.990
 4114SOL    HW214240  10.797   8.274   5.130
 4115SOL     OW14241  11.396   6.631   8.403
 4115SOL    HW114242  11.307   6.637   8.436
 4115SOL    HW214243  11.402   6.545   8.363
 4116SOL     OW14244   8.181   9.551   1.921
 4116SOL    HW114245   8.240   9.596   1.861
 4116SOL    HW214246   8.181   9.605   2.000
 4117SOL     OW14247   9.441   8.269  13.582
 4117SOL    HW114248   9.400   8.301  13.662
 4117SOL    HW214249   9.476   8.348  13.540
 4118SOL     OW14250   0.433  14.836   9.450
 4118SOL    HW114251   0.367   0.020   9.483
 4118SOL    HW214252   0.429  14.762   9.511
 4119SOL     OW14253   6.585   4.085   0.926
 4119SOL    HW114254   6.513   4.049   0.978
 4119SOL    HW214255   6.607   4.167   0.969
 4120SOL     OW14256  11.864   4.551  10.660
 4120SOL    HW114257  11.809   4.612  10.610
 4120SOL    HW214258  11.952   4.589  10.655
 4121SOL     OW14259   3.065  11.899   2.123
 4121SOL    HW114260   3.079  11.962   2.052
 4121SOL    HW214261   3.048  11.953   2.200
 4122SOL     OW14262   0.105  13.859   2.436
 4122SOL    HW114263   0.118  13.877   2.343
 4122SOL    HW214264   0.124  13.942   2.479
 4123SOL     OW14265   0.689   6.816   2.430
 4123SOL    HW114266   0.698   6.747   2.364
 4123SOL    HW214267   0.729   6.780   2.509
 4124SOL     OW14268   6.447  11.473   7.188
 4124SOL    HW114269   6.441  11.378   7.177
 4124SOL    HW214270   6.371  11.496   7.241
 4125SOL     OW14271  11.727   2.869   2.846
 4125SOL    HW114272  11.635   2.846   2.831
 4125SOL    HW214273  11.736   2.958   2.811
 4126SOL     OW14274  10.960   5.140   0.268
 4126SOL    HW114275  10.960   5.062   0.213
 4126SOL    HW214276  10.995   5.209   0.212
 4127SOL     OW14277   7.106  13.919   0.148
 4127SOL    HW114278   7.200  13.901   0.145
 4127SOL    HW214279   7.076  13.880   0.230
 4128SOL     OW14280  12.298   0.301  12.995
 4128SOL    HW114281  12.254   0.223  13.029
 4128SOL    HW214282  12.390   0.276  12.990
 4129SOL     OW14283   1.189   4.829  14.593
 4129SOL    HW114284   1.188   4.862  14.683
 4129SOL    HW214285   1.106   4.857  14.556
 4130SOL     OW14286   1.081  13.011   4.744
 4130SOL    HW114287   1.112  13.102   4.751
 4130SOL    HW214288   1.154  12.964   4.703
 4131SOL     OW14289   2.024   0.107  11.532
 4131SOL    HW114290   1.997   0.018  11.553
 4131SOL    HW214291   2.024   0.109  11.436
 4132SOL     OW14292   4.890  13.621   5.666
 4132SOL    HW114293   4.796  13.616   5.683
 4132SOL    HW214294   4.907  13.714   5.653
 4133SOL     OW14295   2.665   7.280   6.403
 4133SOL    HW114296   2.627   7.237   6.479
 4133SOL    HW214297   2.657   7.373   6.421
 4134SOL     OW14298  12.194  12.384  12.322
 4134SOL    HW114299  12.195  12.326  12.246
 4134SOL    HW214300  12.284  12.414  12.332
 4135SOL     OW14301   1.454   6.819  14.232
 4135SOL    HW114302   1.404   6.851  14.157
 4135SOL    HW214303   1.543   6.851  14.217
 4136SOL     OW14304   4.896   3.211   3.042
 4136SOL    HW114305   4.844   3.140   3.080
 4136SOL    HW214306   4.908   3.186   2.950
 4137SOL     OW14307   0.636  11.010   1.593
 4137SOL    HW114308   0.559  10.988   1.645
 4137SOL    HW214309   0.625  10.961   1.511
 4138SOL     OW14310   4.304  14.382   2.476
 4138SOL    HW114311   4.241  14.347   2.540
 4138SOL    HW214312   4.255  14.449   2.428
 4139SOL     OW14313   5.116   9.557   2.878
 4139SOL    HW114314   5.068   9.639   2.873
 4139SOL    HW214315   5.205   9.579   2.851
 4140SOL     OW14316  11.132  11.518   2.837
 4140SOL    HW114317  11.096  11.496   2.751
 4140SOL    HW214318  11.220  11.479   2.837
 4141SOL     OW14319   9.072  13.246  13.457
 4141SOL    HW114320   9.035  13.177  13.403
 4141SOL    HW214321   9.164  13.220  13.469
 4142SOL     OW14322   1.447  12.952   7.561
 4142SOL    HW114323   1.439  13.021   7.495
 4142SOL    HW214324   1.540  12.951   7.583
 4143SOL     OW14325  14.828   2.020   2.581
 4143SOL    HW114326  14.785   2.031   2.666
 4143SOL    HW214327  14.800   2.096   2.530
 4144SOL     OW14328  10.457   0.937  12.009
 4144SOL    HW114329  10.417   0.896  11.933
 4144SOL    HW214330  10.437   1.030  12.000
 4145SOL     OW14331   4.339  14.318   1.745
 4145SOL    HW114332   4.291  14.271   1.677
 4145SOL    HW214333   4.303  14.284   1.827
 4146SOL     OW14334   4.536   2.494   8.589
 4146SOL    HW114335   4.505   2.578   8.623
 4146SOL    HW214336   4.607   2.517   8.529
 4147SOL     OW14337   7.795  12.554   8.638
 4147SOL    HW114338   7.828  12.634   8.597
 4147SOL    HW214339   7.709  12.578   8.672
 4148SOL     OW14340   6.246   5.880  14.652
 4148SOL    HW114341   6.259   5.968  14.616
 4148SOL    HW214342   6.173   5.844  14.601
 4149SOL     OW14343  10.526   6.997   5.465
 4149SOL    HW114344  10.444   6.990   5.514
 4149SOL    HW214345  10.586   7.041   5.525
 4150SOL     OW14346   8.378  12.167   4.068
 4150SOL    HW114347   8.336  12.241   4.113
 4150SOL    HW214348   8.466  12.198   4.047
 4151SOL     OW14349   6.935   2.830   4.275
 4151SOL    HW114350   7.025   2.860   4.262
 4151SOL    HW214351   6.881   2.890   4.224
 4152SOL     OW14352   9.368   6.316   9.474
 4152SOL    HW114353   9.301   6.371   9.435
 4152SOL    HW214354   9.389   6.359   9.557
 4153SOL     OW14355   9.166   3.113  14.385
 4153SOL    HW114356   9.234   3.073  14.330
 4153SOL    HW214357   9.210   3.132  14.467
 4154SOL     OW14358  10.096   4.499   4.364
 4154SOL    HW114359  10.112   4.417   4.412
 4154SOL    HW214360  10.001   4.507   4.362
 4155SOL     OW14361   3.684   3.283   6.811
 4155SOL    HW114362   3.697   3.310   6.902
 4155SOL    HW214363   3.719   3.356   6.760
 4156SOL     OW14364   1.625   8.558  13.065
 4156SOL    HW114365   1.570   8.484  13.042
 4156SOL    HW214366   1.714   8.522  13.070
 4157SOL     OW14367   9.529   5.974  11.475
 4157SOL    HW114368   9.583   5.895  11.469
 4157SOL    HW214369   9.592   6.045  11.488
 4158SOL     OW14370   6.505  14.476   5.324
 4158SOL    HW114371   6.440  14.474   5.394
 4158SOL    HW214372   6.472  14.541   5.262
 4159SOL     OW14373  10.093   5.674   2.148
 4159SOL    HW114374  10.108   5.620   2.226
 4159SOL    HW214375  10.004   5.706   2.158
 4160SOL     OW14376  13.559   7.535   6.503
 4160SOL    HW114377  13.552   7.441   6.491
 4160SOL    HW214378  13.652   7.552   6.519
 4161SOL     OW14379   0.042   5.660   3.773
 4161SOL    HW114380   0.083   5.642   3.688
 4161SOL    HW214381   0.110   5.706   3.823
 4162SOL     OW14382   0.650  11.296   4.637
 4162SOL    HW114383   0.690  11.310   4.723
 4162SOL    HW214384   0.631  11.202   4.634
 4163SOL     OW14385   0.905   0.399   6.513
 4163SOL    HW114386   0.910   0.308   6.485
 4163SOL    HW214387   0.824   0.432   6.473
 4164SOL     OW14388   3.282  14.165   7.404
 4164SOL    HW114389   3.316  14.220   7.334
 4164SOL    HW214390   3.278  14.077   7.366
 4165SOL     OW14391  10.609  13.532  12.919
 4165SOL    HW114392  10.549  13.505  12.988
 4165SOL    HW214393  10.681  13.469  12.924
 4166SOL     OW14394  13.412   4.548   0.223
 4166SOL    HW114395  13.396   4.591   0.139
 4166SOL    HW214396  13.356   4.471   0.222
 4167SOL     OW14397   0.630   5.577   4.160
 4167SOL    HW114398   0.566   5.511   4.131
 4167SOL    HW214399   0.650   5.552   4.250
 4168SOL     OW14400   9.363  10.306   6.430
 4168SOL    HW114401   9.435  10.258   6.471
 4168SOL    HW214402   9.312  10.340   6.503
 4169SOL     OW14403   4.853   4.079   9.438
 4169SOL    HW114404   4.827   4.170   9.453
 4169SOL    HW214405   4.878   4.077   9.345
 4170SOL     OW14406   5.924  13.191   5.995
 4170SOL    HW114407   5.950  13.152   5.911
 4170SOL    HW214408   5.915  13.284   5.976
 4171SOL     OW14409  11.247  12.018   7.517
 4171SOL    HW114410  11.206  12.015   7.603
 4171SOL    HW214411  11.174  12.007   7.456
 4172SOL     OW14412  10.379   6.288   4.476
 4172SOL    HW114413  10.339   6.202   4.489
 4172SOL    HW214414  10.333   6.345   4.538
 4173SOL     OW14415   8.209   0.864   5.300
 4173SOL    HW114416   8.273   0.839   5.233
 4173SOL    HW214417   8.131   0.813   5.278
 4174SOL     OW14418   5.998   1.717   2.896
 4174SOL    HW114419   5.980   1.656   2.825
 4174SOL    HW214420   6.031   1.662   2.967
 4175SOL     OW14421   9.591  12.315   5.836
 4175SOL    HW114422   9.568  12.407   5.830
 4175SOL    HW214423   9.607  12.300   5.930
 4176SOL     OW14424   3.245   7.081   7.879
 4176SOL    HW114425   3.179   7.068   7.947
 4176SOL    HW214426   3.265   7.175   7.883
 4177SOL     OW14427   2.921   9.364  10.072
 4177SOL    HW114428   2.913   9.298  10.141
 4177SOL    HW214429   3.002   9.342  10.027
 4178SOL     OW14430   3.648  10.526  11.880
 4178SOL    HW114431   3.646  10.433  11.902
 4178SOL    HW214432   3.556  10.552  11.879
 4179SOL     OW14433  11.575   9.953   2.630
 4179SOL    HW114434  11.600   9.911   2.548
 4179SOL    HW214435  11.596   9.887   2.697
 4180SOL     OW14436   2.086   1.639   8.879
 4180SOL    HW114437   2.037   1.699   8.823
 4180SOL    HW214438   2.121   1.573   8.819
 4181SOL     OW14439   0.999  11.890   4.910
 4181SOL    HW114440   0.940  11.912   4.838
 4181SOL    HW214441   1.079  11.939   4.891
 4182SOL     OW14442   9.426   6.222   3.987
 4182SOL    HW114443   9.490   6.285   3.954
 4182SOL    HW214444   9.475   6.141   3.999
 4183SOL     OW14445   3.972   5.098  14.765
 4183SOL    HW114446   3.956   5.173  14.708
 4183SOL    HW214447   4.040   5.048  14.721
 4184SOL     OW14448   5.457   5.443   7.781
 4184SOL    HW114449   5.425   5.436   7.871
 4184SOL    HW214450   5.378   5.431   7.727
 4185SOL     OW14451  13.103   5.610   2.106
 4185SOL    HW114452  13.161   5.566   2.043
 4185SOL    HW214453  13.019   5.617   2.060
 4186SOL     OW14454  13.595   2.363  13.867
 4186SOL    HW114455  13.523   2.421  13.842
 4186SOL    HW214456  13.668   2.423  13.885
 4187SOL     OW14457  14.482  12.286  12.367
 4187SOL    HW114458  14.492  12.378  12.394
 4187SOL    HW214459  14.472  12.238  12.449
 4188SOL     OW14460   1.793  14.584   9.951
 4188SOL    HW114461   1.790  14.668   9.998
 4188SOL    HW214462   1.701  14.557   9.946
 4189SOL     OW14463   5.768   8.886   4.245
 4189SOL    HW114464   5.704   8.957   4.237
 4189SOL    HW214465   5.852   8.926   4.223
 4190SOL     OW14466  13.502   4.404  11.126
 4190SOL    HW114467  13.480   4.402  11.033
 4190SOL    HW214468  13.432   4.355  11.168
 4191SOL     OW14469   9.000   4.895   4.078
 4191SOL    HW114470   8.957   4.934   4.002
 4191SOL    HW214471   9.092   4.922   4.069
 4192SOL     OW14472   0.051   1.903   4.816
 4192SOL    HW114473   0.106   1.825   4.811
 4192SOL    HW214474   0.056   1.941   4.729
 4193SOL     OW14475  12.474  14.140  14.314
 4193SOL    HW114476  12.472  14.187  14.231
 4193SOL    HW214477  12.405  14.180  14.366
 4194SOL     OW14478  10.797   0.306   2.157
 4194SOL    HW114479  10.731   0.256   2.109
 4194SOL    HW214480  10.880   0.267   2.129
 4195SOL     OW14481   5.234   1.832  12.355
 4195SOL    HW114482   5.313   1.781  12.374
 4195SOL    HW214483   5.172   1.808  12.423
 4196SOL     OW14484   7.445  12.015   6.082
 4196SOL    HW114485   7.516  11.953   6.067
 4196SOL    HW214486   7.402  11.984   6.162
 4197SOL     OW14487   6.109  12.926  12.592
 4197SOL    HW114488   6.158  12.851  12.559
 4197SOL    HW214489   6.173  12.997  12.595
 4198SOL     OW14490  14.381   0.575  10.691
 4198SOL    HW114491  14.470   0.601  10.717
 4198SOL    HW214492  14.383   0.577  10.596
 4199SOL     OW14493  13.221   3.705   2.008
 4199SOL    HW114494  13.198   3.695   1.916
 4199SOL    HW214495  13.225   3.615   2.042
 4200SOL     OW14496  10.419   8.820   3.736
 4200SOL    HW114497  10.416   8.915   3.744
 4200SOL    HW214498  10.488   8.803   3.671
 4201SOL     OW14499   1.592   0.047  14.440
 4201SOL    HW114500   1.498   0.060  14.452
 4201SOL    HW214501   1.610  14.841  14.483
 4202SOL     OW14502   2.373   4.774   2.475
 4202SOL    HW114503   2.393   4.719   2.550
 4202SOL    HW214504   2.432   4.849   2.484
 4203SOL     OW14505   4.754   0.734   3.982
 4203SOL    HW114506   4.844   0.725   3.950
 4203SOL    HW214507   4.716   0.802   3.926
 4204SOL     OW14508   8.235  11.098   7.265
 4204SOL    HW114509   8.313  11.094   7.210
 4204SOL    HW214510   8.162  11.099   7.202
 4205SOL     OW14511  13.682   1.411   5.520
 4205SOL    HW114512  13.678   1.465   5.599
 4205SOL    HW214513  13.736   1.336   5.544
 4206SOL     OW14514   8.905   1.228   1.042
 4206SOL    HW114515   8.868   1.141   1.057
 4206SOL    HW214516   8.864   1.259   0.962
 4207SOL     OW14517   4.357   1.396   4.216
 4207SOL    HW114518   4.384   1.417   4.305
 4207SOL    HW214519   4.275   1.348   4.226
 4208SOL     OW14520  13.006  13.207   0.877
 4208SOL    HW114521  13.004  13.112   0.883
 4208SOL    HW214522  13.094  13.228   0.846
 4209SOL     OW14523   2.161   1.830   4.121
 4209SOL    HW114524   2.097   1.843   4.190
 4209SOL    HW214525   2.126   1.878   4.046
 4210SOL     OW14526   2.316   8.168  12.505
 4210SOL    HW114527   2.294   8.082  12.541
 4210SOL    HW214528   2.261   8.229  12.554
 4211SOL     OW14529  13.353   3.688   0.406
 4211SOL    HW114530  13.285   3.739   0.362
 4211SOL    HW214531  13.345   3.710   0.498
 4212SOL     OW14532   0.426  14.305  14.789
 4212SOL    HW114533   0.411  14.382  14.734
 4212SOL    HW214534   0.435  14.340  14.878
 4213SOL     OW14535  11.537   8.513  13.567
 4213SOL    HW114536  11.513   8.580  13.503
 4213SOL    HW214537  11.628   8.532  13.588
 4214SOL     OW14538   4.720  12.851   1.878
 4214SOL    HW114539   4.712  12.823   1.787
 4214SOL    HW214540   4.772  12.931   1.874
 4215SOL     OW14541   8.854  11.756  13.584
 4215SOL    HW114542   8.946  11.780  13.579
 4215SOL    HW214543   8.849  11.670  13.541
 4216SOL     OW14544   4.789  10.404   0.922
 4216SOL    HW114545   4.850  10.468   0.958
 4216SOL    HW214546   4.732  10.381   0.995
 4217SOL     OW14547   4.328   8.365   0.287
 4217SOL    HW114548   4.324   8.460   0.287
 4217SOL    HW214549   4.258   8.338   0.346
 4218SOL     OW14550  13.429   1.182  11.218
 4218SOL    HW114551  13.373   1.180  11.296
 4218SOL    HW214552  13.510   1.138  11.246
 4219SOL     OW14553   2.844  13.481   5.988
 4219SOL    HW114554   2.898  13.557   5.967
 4219SOL    HW214555   2.896  13.406   5.959
 4220SOL     OW14556   0.870   3.644  10.503
 4220SOL    HW114557   0.878   3.598  10.420
 4220SOL    HW214558   0.780   3.678  10.504
 4221SOL     OW14559  13.580   6.209   1.887
 4221SOL    HW114560  13.521   6.162   1.828
 4221SOL    HW214561  13.576   6.300   1.857
 4222SOL     OW14562  10.038   1.981  14.409
 4222SOL    HW114563  10.053   2.070  14.440
 4222SOL    HW214564  10.104   1.928  14.453
 4223SOL     OW14565  13.688  14.845  13.740
 4223SOL    HW114566  13.708  14.842  13.833
 4223SOL    HW214567  13.631   0.043  13.729
 4224SOL     OW14568   8.973  13.602   7.860
 4224SOL    HW114569   8.912  13.531   7.842
 4224SOL    HW214570   8.926  13.660   7.920
 4225SOL     OW14571   6.979   6.418   6.793
 4225SOL    HW114572   6.919   6.473   6.843
 4225SOL    HW214573   7.008   6.351   6.855
 4226SOL     OW14574   0.821  14.274   3.005
 4226SOL    HW114575   0.842  14.328   3.081
 4226SOL    HW214576   0.853  14.324   2.930
 4227SOL     OW14577   7.824  11.796   5.455
 4227SOL    HW114578   7.917  11.817   5.447
 4227SOL    HW214579   7.780  11.859   5.399
 4228SOL     OW14580   4.291  14.243   9.777
 4228SOL    HW114581   4.284  14.331   9.739
 4228SOL    HW214582   4.271  14.184   9.705
 4229SOL     OW14583  11.795  10.194  10.853
 4229SOL    HW114584  11.802  10.127  10.784
 4229SOL    HW214585  11.827  10.274  10.812
 4230SOL     OW14586  10.665   8.866   2.289
 4230SOL    HW114587  10.620   8.858   2.205
 4230SOL    HW214588  10.653   8.957   2.314
 4231SOL     OW14589  14.458   5.056   4.080
 4231SOL    HW114590  14.406   5.084   4.004
 4231SOL    HW214591  14.454   5.129   4.141
 4232SOL     OW14592  13.485   8.330  11.555
 4232SOL    HW114593  13.475   8.240  11.586
 4232SOL    HW214594  13.572   8.332  11.515
 4233SOL     OW14595   2.926  14.844   6.515
 4233SOL    HW114596   3.013   0.007   6.512
 4233SOL    HW214597   2.915  14.817   6.606
 4234SOL     OW14598  11.517   6.812   4.929
 4234SOL    HW114599  11.576   6.877   4.967
 4234SOL    HW214600  11.494   6.847   4.843
 4235SOL     OW14601   1.860   7.459   1.769
 4235SOL    HW114602   1.875   7.553   1.753
 4235SOL    HW214603   1.945   7.427   1.798
 4236SOL     OW14604   1.272   0.056   2.565
 4236SOL    HW114605   1.291  14.845   2.536
 4236SOL    HW214606   1.179   0.055   2.586
 4237SOL     OW14607  10.787   3.357   9.095
 4237SOL    HW114608  10.815   3.368   9.186
 4237SOL    HW214609  10.716   3.421   9.084
 4238SOL     OW14610   7.519   0.602  12.850
 4238SOL    HW114611   7.514   0.589  12.945
 4238SOL    HW214612   7.595   0.551  12.823
 4239SOL     OW14613   1.266   4.285  12.058
 4239SOL    HW114614   1.317   4.208  12.082
 4239SOL    HW214615   1.182   4.250  12.027
 4240SOL     OW14616   1.624   8.965   9.476
 4240SOL    HW114617   1.587   8.877   9.485
 4240SOL    HW214618   1.558   9.022   9.516
 4241SOL     OW14619   2.426  14.330   5.839
 4241SOL    HW114620   2.438  14.299   5.928
 4241SOL    HW214621   2.435  14.425   5.845
 4242SOL     OW14622   0.593  10.544   5.276
 4242SOL    HW114623   0.631  10.530   5.362
 4242SOL    HW214624   0.581  10.639   5.269
 4243SOL     OW14625  12.578   8.905  14.663
 4243SOL    HW114626  12.572   8.904  14.568
 4243SOL    HW214627  12.487   8.898  14.693
 4244SOL     OW14628  13.699   6.060  10.276
 4244SOL    HW114629  13.788   6.029  10.293
 4244SOL    HW214630  13.668   6.008  10.202
 4245SOL     OW14631  12.164   6.035   8.607
 4245SOL    HW114632  12.102   6.105   8.625
 4245SOL    HW214633  12.110   5.960   8.582
 4246SOL     OW14634   1.053   1.924   9.173
 4246SOL    HW114635   1.108   1.999   9.195
 4246SOL    HW214636   0.986   1.960   9.115
 4247SOL     OW14637  14.842   1.938   3.684
 4247SOL    HW114638   0.011   1.916   3.765
 4247SOL    HW214639   0.024   1.996   3.638
 4248SOL     OW14640  12.812  12.492   5.376
 4248SOL    HW114641  12.763  12.432   5.432
 4248SOL    HW214642  12.748  12.558   5.349
 4249SOL     OW14643  12.105   8.202   7.714
 4249SOL    HW114644  12.066   8.116   7.725
 4249SOL    HW214645  12.177   8.204   7.777
 4250SOL     OW14646   2.427   2.501  13.576
 4250SOL    HW114647   2.483   2.568  13.615
 4250SOL    HW214648   2.458   2.419  13.614
 4251SOL     OW14649   0.500   2.372  14.595
 4251SOL    HW114650   0.428   2.392  14.536
 4251SOL    HW214651   0.564   2.326  14.541
 4252SOL     OW14652   6.545   2.631   3.592
 4252SOL    HW114653   6.542   2.601   3.502
 4252SOL    HW214654   6.472   2.585   3.635
 4253SOL     OW14655   1.558  11.156   3.543
 4253SOL    HW114656   1.644  11.130   3.577
 4253SOL    HW214657   1.548  11.247   3.572
 4254SOL     OW14658   4.796   2.276   1.691
 4254SOL    HW114659   4.730   2.244   1.630
 4254SOL    HW214660   4.879   2.245   1.654
 4255SOL     OW14661   0.886  14.438   1.575
 4255SOL    HW114662   0.974  14.417   1.543
 4255SOL    HW214663   0.859  14.513   1.522
 4256SOL     OW14664   6.222  13.065   1.538
 4256SOL    HW114665   6.206  13.013   1.617
 4256SOL    HW214666   6.213  13.003   1.466
 4257SOL     OW14667  12.092  11.325  14.488
 4257SOL    HW114668  12.034  11.394  14.454
 4257SOL    HW214669  12.046  11.244  14.468
 4258SOL     OW14670   6.663   8.111  11.288
 4258SOL    HW114671   6.687   8.074  11.373
 4258SOL    HW214672   6.707   8.196  11.285
 4259SOL     OW14673   3.400   5.997   8.812
 4259SOL    HW114674   3.485   6.031   8.784
 4259SOL    HW214675   3.371   6.059   8.879
 4260SOL     OW14676   1.507   4.599   5.892
 4260SOL    HW114677   1.414   4.594   5.874
 4260SOL    HW214678   1.543   4.654   5.822
 4261SOL     OW14679   3.330  12.888   0.088
 4261SOL    HW114680   3.259  12.870   0.026
 4261SOL    HW214681   3.298  12.964   0.138
 4262SOL     OW14682   7.989   7.042   2.683
 4262SOL    HW114683   7.936   7.095   2.624
 4262SOL    HW214684   7.936   6.964   2.700
 4263SOL     OW14685   0.686  14.292   3.648
 4263SOL    HW114686   0.704  14.363   3.710
 4263SOL    HW214687   0.590  14.290   3.642
 4264SOL     OW14688  12.664  11.742  11.316
 4264SOL    HW114689  12.574  11.732  11.347
 4264SOL    HW214690  12.672  11.835  11.295
 4265SOL     OW14691  13.443   1.660   0.291
 4265SOL    HW114692  13.419   1.583   0.238
 4265SOL    HW214693  13.533   1.680   0.265
 4266SOL     OW14694  12.702   8.557   4.892
 4266SOL    HW114695  12.614   8.570   4.927
 4266SOL    HW214696  12.702   8.607   4.810
 4267SOL     OW14697  13.779   9.603   7.103
 4267SOL    HW114698  13.685   9.592   7.116
 4267SOL    HW214699  13.788   9.618   7.009
 4268SOL     OW14700  14.282   9.363   7.206
 4268SOL    HW114701  14.326   9.357   7.291
 4268SOL    HW214702  14.241   9.449   7.206
 4269SOL     OW14703   4.312   6.928   4.779
 4269SOL    HW114704   4.348   6.867   4.714
 4269SOL    HW214705   4.255   6.874   4.834
 4270SOL     OW14706  13.692  10.748  11.007
 4270SOL    HW114707  13.604  10.758  11.043
 4270SOL    HW214708  13.696  10.658  10.976
 4271SOL     OW14709   7.868   0.844   0.291
 4271SOL    HW114710   7.793   0.841   0.232
 4271SOL    HW214711   7.930   0.781   0.254
 4272SOL     OW14712   2.078   0.404   9.279
 4272SOL    HW114713   2.085   0.343   9.353
 4272SOL    HW214714   2.165   0.443   9.272
 4273SOL     OW14715  12.395   3.522   8.521
 4273SOL    HW114716  12.431   3.492   8.437
 4273SOL    HW214717  12.443   3.602   8.540
 4274SOL     OW14718  12.828   5.329  13.329
 4274SOL    HW114719  12.800   5.238  13.344
 4274SOL    HW214720  12.748   5.380  13.333
 4275SOL     OW14721  14.422   1.680   2.275
 4275SOL    HW114722  14.434   1.721   2.360
 4275SOL    HW214723  14.367   1.603   2.292
 4276SOL     OW14724   2.190   7.636   3.883
 4276SOL    HW114725   2.130   7.609   3.953
 4276SOL    HW214726   2.203   7.730   3.898
 4277SOL     OW14727   2.029   8.418  11.012
 4277SOL    HW114728   2.039   8.405  11.107
 4277SOL    HW214729   2.114   8.452  10.984
 4278SOL     OW14730   2.927  13.528  13.936
 4278SOL    HW114731   3.011  13.545  13.978
 4278SOL    HW214732   2.862  13.547  14.005
 4279SOL     OW14733   6.532   7.551   6.002
 4279SOL    HW114734   6.486   7.487   6.057
 4279SOL    HW214735   6.576   7.497   5.936
 4280SOL     OW14736  11.967   5.979   0.538
 4280SOL    HW114737  11.990   6.070   0.519
 4280SOL    HW214738  11.888   5.985   0.592
 4281SOL     OW14739  10.440   1.039  10.794
 4281SOL    HW114740  10.516   1.032  10.850
 4281SOL    HW214741  10.370   1.070  10.852
 4282SOL     OW14742  12.370  14.359   1.669
 4282SOL    HW114743  12.385  14.452   1.683
 4282SOL    HW214744  12.301  14.356   1.603
 4283SOL     OW14745  13.003  13.965   2.883
 4283SOL    HW114746  13.008  14.047   2.932
 4283SOL    HW214747  12.923  13.973   2.831
 4284SOL     OW14748   3.792   0.818   5.471
 4284SOL    HW114749   3.794   0.786   5.381
 4284SOL    HW214750   3.703   0.800   5.501
 4285SOL     OW14751  13.508  12.243   2.713
 4285SOL    HW114752  13.512  12.308   2.783
 4285SOL    HW214753  13.494  12.159   2.758
 4286SOL     OW14754   7.568   9.749   5.776
 4286SOL    HW114755   7.492   9.707   5.817
 4286SOL    HW214756   7.618   9.676   5.738
 4287SOL     OW14757   2.232   3.005   5.096
 4287SOL    HW114758   2.256   3.090   5.131
 4287SOL    HW214759   2.220   3.020   5.002
 4288SOL     OW14760   7.211  12.655   3.976
 4288SOL    HW114761   7.249  12.567   3.977
 4288SOL    HW214762   7.172  12.666   4.062
 4289SOL     OW14763   6.995   1.286   5.373
 4289SOL    HW114764   7.017   1.378   5.359
 4289SOL    HW214765   6.924   1.269   5.312
 4290SOL     OW14766   0.126  11.097  13.184
 4290SOL    HW114767   0.181  11.018  13.183
 4290SOL    HW214768   0.036  11.063  13.186
 4291SOL     OW14769   9.692   0.420  11.622
 4291SOL    HW114770   9.599   0.406  11.635
 4291SOL    HW214771   9.707   0.398  11.530
 4292SOL     OW14772  12.230  14.116   4.580
 4292SOL    HW114773  12.195  14.116   4.669
 4292SOL    HW214774  12.325  14.122   4.592
 4293SOL     OW14775   7.200   3.917   1.418
 4293SOL    HW114776   7.107   3.894   1.430
 4293SOL    HW214777   7.239   3.902   1.504
 4294SOL     OW14778   3.725  14.146  11.695
 4294SOL    HW114779   3.714  14.055  11.721
 4294SOL    HW214780   3.715  14.144  11.599
 4295SOL     OW14781   6.112   7.220   5.638
 4295SOL    HW114782   6.175   7.149   5.645
 4295SOL    HW214783   6.137   7.267   5.559
 4296SOL     OW14784  13.070  13.718   6.740
 4296SOL    HW114785  13.019  13.652   6.692
 4296SOL    HW214786  13.123  13.667   6.802
 4297SOL     OW14787  12.314   2.685  13.226
 4297SOL    HW114788  12.277   2.597  13.225
 4297SOL    HW214789  12.271   2.730  13.153
 4298SOL     OW14790   2.462   1.141  12.568
 4298SOL    HW114791   2.443   1.223  12.524
 4298SOL    HW214792   2.558   1.135  12.568
 4299SOL     OW14793   4.730  14.682   0.619
 4299SOL    HW114794   4.770  14.721   0.541
 4299SOL    HW214795   4.752  14.589   0.613
 4300SOL     OW14796   9.981   4.861   0.212
 4300SOL    HW114797   9.894   4.832   0.240
 4300SOL    HW214798  10.041   4.796   0.249
 4301SOL     OW14799   5.888   4.169   4.125
 4301SOL    HW114800   5.894   4.148   4.031
 4301SOL    HW214801   5.794   4.170   4.143
 4302SOL     OW14802  12.968   3.254   5.491
 4302SOL    HW114803  12.925   3.211   5.565
 4302SOL    HW214804  12.976   3.186   5.425
 4303SOL     OW14805   1.427   6.582  11.577
 4303SOL    HW114806   1.516   6.552  11.597
 4303SOL    HW214807   1.371   6.507  11.598
 4304SOL     OW14808  14.718  14.316   8.838
 4304SOL    HW114809  14.761  14.401   8.832
 4304SOL    HW214810  14.701  14.303   8.931
 4305SOL     OW14811   8.944   0.588   4.843
 4305SOL    HW114812   8.942   0.508   4.792
 4305SOL    HW214813   9.037   0.603   4.862
 4306SOL     OW14814   1.327   5.060   9.417
 4306SOL    HW114815   1.297   5.049   9.327
 4306SOL    HW214816   1.423   5.050   9.412
 4307SOL     OW14817   5.193   4.984   5.842
 4307SOL    HW114818   5.133   4.971   5.915
 4307SOL    HW214819   5.277   4.949   5.873
 4308SOL     OW14820   1.420   4.348   4.513
 4308SOL    HW114821   1.504   4.310   4.486
 4308SOL    HW214822   1.403   4.416   4.449
 4309SOL     OW14823   3.800   4.009  13.196
 4309SOL    HW114824   3.763   4.006  13.107
 4309SOL    HW214825   3.852   3.929  13.203
 4310SOL     OW14826  12.956  13.921   0.013
 4310SOL    HW114827  12.975  13.943   0.104
 4310SOL    HW214828  12.871  13.960  14.873
 4311SOL     OW14829  10.027   6.466   4.725
 4311SOL    HW114830   9.959   6.495   4.786
 4311SOL    HW214831   9.999   6.499   4.640
 4312SOL     OW14832   0.419   1.416  12.541
 4312SOL    HW114833   0.513   1.397  12.533
 4312SOL    HW214834   0.410   1.454  12.629
 4313SOL     OW14835  14.594  12.476   6.535
 4313SOL    HW114836  14.641  12.431   6.605
 4313SOL    HW214837  14.619  12.430   6.455
 4314SOL     OW14838  13.139   3.432   0.708
 4314SOL    HW114839  13.075   3.491   0.669
 4314SOL    HW214840  13.217   3.440   0.653
 4315SOL     OW14841   0.948   9.153   0.830
 4315SOL    HW114842   0.983   9.077   0.876
 4315SOL    HW214843   1.023   9.188   0.782
 4316SOL     OW14844   9.790   1.065  10.466
 4316SOL    HW114845   9.862   1.008  10.438
 4316SOL    HW214846   9.830   1.151  10.476
 4317SOL     OW14847  13.195  11.963  10.132
 4317SOL    HW114848  13.186  11.957  10.037
 4317SOL    HW214849  13.120  11.914  10.167
 4318SOL     OW14850  14.146   4.315   6.670
 4318SOL    HW114851  14.225   4.262   6.658
 4318SOL    HW214852  14.083   4.280   6.608
 4319SOL     OW14853   3.330   6.278   1.598
 4319SOL    HW114854   3.266   6.238   1.540
 4319SOL    HW214855   3.414   6.243   1.569
 4320SOL     OW14856   1.335   8.609  14.569
 4320SOL    HW114857   1.338   8.644  14.480
 4320SOL    HW214858   1.421   8.629  14.606
 4321SOL     OW14859   6.822   6.348  13.759
 4321SOL    HW114860   6.796   6.417  13.819
 4321SOL    HW214861   6.847   6.275  13.815
 4322SOL     OW14862   2.890   2.907   8.363
 4322SOL    HW114863   2.909   2.994   8.328
 4322SOL    HW214864   2.845   2.924   8.446
 4323SOL     OW14865   0.812  13.820   3.454
 4323SOL    HW114866   0.752  13.779   3.393
 4323SOL    HW214867   0.763  13.827   3.536
 4324SOL     OW14868   2.124   0.106  13.816
 4324SOL    HW114869   2.193   0.041  13.804
 4324SOL    HW214870   2.108   0.142  13.729
 4325SOL     OW14871   6.309   5.996   3.618
 4325SOL    HW114872   6.342   5.988   3.528
 4325SOL    HW214873   6.231   5.940   3.619
 4326SOL     OW14874  13.626   0.996   0.680
 4326SOL    HW114875  13.703   0.996   0.624
 4326SOL    HW214876  13.565   1.056   0.637
 4327SOL     OW14877   8.056   3.276  12.814
 4327SOL    HW114878   8.143   3.315  12.817
 4327SOL    HW214879   8.048   3.239  12.726
 4328SOL     OW14880  14.057   8.519  14.354
 4328SOL    HW114881  14.137   8.515  14.407
 4328SOL    HW214882  14.086   8.503  14.264
 4329SOL     OW14883   0.632   1.923   4.982
 4329SOL    HW114884   0.597   1.991   5.040
 4329SOL    HW214885   0.726   1.924   4.999
 4330SOL     OW14886   5.821  11.288  12.444
 4330SOL    HW114887   5.838  11.239  12.524
 4330SOL    HW214888   5.902  11.280  12.394
 4331SOL     OW14889   9.476   3.593   8.179
 4331SOL    HW114890   9.395   3.636   8.152
 4331SOL    HW214891   9.449   3.507   8.211
 4332SOL     OW14892  11.941   2.013  10.313
 4332SOL    HW114893  11.943   2.066  10.393
 4332SOL    HW214894  11.848   2.001  10.295
 4333SOL     OW14895   4.846   4.750  10.517
 4333SOL    HW114896   4.755   4.777  10.519
 4333SOL    HW214897   4.854   4.686  10.588
 4334SOL     OW14898   2.317   5.273   8.199
 4334SOL    HW114899   2.350   5.184   8.213
 4334SOL    HW214900   2.253   5.286   8.268
 4335SOL     OW14901   9.764   3.364   1.582
 4335SOL    HW114902   9.719   3.383   1.665
 4335SOL    HW214903   9.778   3.451   1.544
 4336SOL     OW14904  11.756  10.469   1.450
 4336SOL    HW114905  11.679  10.486   1.504
 4336SOL    HW214906  11.721  10.448   1.363
 4337SOL     OW14907   8.202   6.055   2.652
 4337SOL    HW114908   8.167   6.136   2.690
 4337SOL    HW214909   8.280   6.036   2.704
 4338SOL     OW14910   9.943   7.447   7.047
 4338SOL    HW114911   9.879   7.436   6.976
 4338SOL    HW214912   9.999   7.519   7.017
 4339SOL     OW14913   2.509   3.693   9.227
 4339SOL    HW114914   2.576   3.626   9.212
 4339SOL    HW214915   2.549   3.754   9.289
 4340SOL     OW14916   2.988  12.242   5.335
 4340SOL    HW114917   2.946  12.328   5.339
 4340SOL    HW214918   2.915  12.180   5.341
 4341SOL     OW14919   4.145  11.738  12.202
 4341SOL    HW114920   4.085  11.748  12.276
 4341SOL    HW214921   4.225  11.702  12.240
 4342SOL     OW14922   7.513   0.304   8.548
 4342SOL    HW114923   7.579   0.253   8.501
 4342SOL    HW214924   7.467   0.352   8.479
 4343SOL     OW14925  12.881   5.944   2.473
 4343SOL    HW114926  12.913   5.854   2.471
 4343SOL    HW214927  12.838   5.956   2.388
 4344SOL     OW14928   3.404   4.271   6.942
 4344SOL    HW114929   3.400   4.202   6.876
 4344SOL    HW214930   3.330   4.252   7.000
 4345SOL     OW14931   8.074  13.651  11.375
 4345SOL    HW114932   8.081  13.586  11.445
 4345SOL    HW214933   8.057  13.600  11.296
 4346SOL     OW14934   1.839   3.562   6.644
 4346SOL    HW114935   1.908   3.507   6.606
 4346SOL    HW214936   1.831   3.530   6.734
 4347SOL     OW14937   2.954  14.364   9.043
 4347SOL    HW114938   2.885  14.300   9.061
 4347SOL    HW214939   2.949  14.427   9.115
 4348SOL     OW14940   3.182   9.608   9.935
 4348SOL    HW114941   3.185   9.588  10.028
 4348SOL    HW214942   3.196   9.523   9.892
 4349SOL     OW14943  13.513   2.541   2.252
 4349SOL    HW114944  13.598   2.585   2.244
 4349SOL    HW214945  13.486   2.524   2.162
 4350SOL     OW14946   4.959   3.198   9.192
 4350SOL    HW114947   4.950   3.281   9.145
 4350SOL    HW214948   4.971   3.133   9.123
 4351SOL     OW14949   9.001   9.323  10.521
 4351SOL    HW114950   9.049   9.343  10.441
 4351SOL    HW214951   8.916   9.290  10.491
 4352SOL     OW14952   8.674   3.382  13.956
 4352SOL    HW114953   8.649   3.314  13.894
 4352SOL    HW214954   8.765   3.402  13.935
 4353SOL     OW14955  14.422   6.737   7.912
 4353SOL    HW114956  14.329   6.723   7.899
 4353SOL    HW214957  14.444   6.686   7.990
 4354SOL     OW14958   6.645  12.765   8.158
 4354SOL    HW114959   6.673  12.855   8.173
 4354SOL    HW214960   6.657  12.751   8.064
 4355SOL     OW14961   9.039   0.194  14.286
 4355SOL    HW114962   9.111   0.140  14.316
 4355SOL    HW214963   9.010   0.154  14.205
 4356SOL     OW14964  11.647  12.181  14.429
 4356SOL    HW114965  11.597  12.126  14.490
 4356SOL    HW214966  11.678  12.254  14.483
 4357SOL     OW14967   8.684   2.655   4.101
 4357SOL    HW114968   8.616   2.716   4.071
 4357SOL    HW214969   8.752   2.711   4.137
 4358SOL     OW14970   9.319  10.361   4.303
 4358SOL    HW114971   9.340  10.453   4.318
 4358SOL    HW214972   9.227  10.361   4.278
 4359SOL     OW14973   8.169  14.580   3.166
 4359SOL    HW114974   8.105  14.545   3.104
 4359SOL    HW214975   8.253  14.546   3.136
 4360SOL     OW14976   5.416  13.747   8.685
 4360SOL    HW114977   5.374  13.702   8.611
 4360SOL    HW214978   5.474  13.811   8.644
 4361SOL     OW14979   1.630  12.150   3.169
 4361SOL    HW114980   1.650  12.172   3.260
 4361SOL    HW214981   1.694  12.199   3.118
 4362SOL     OW14982   8.096   2.227  14.638
 4362SOL    HW114983   8.060   2.275  14.713
 4362SOL    HW214984   8.114   2.140  14.672
 4363SOL     OW14985   5.537   1.687   9.145
 4363SOL    HW114986   5.465   1.635   9.110
 4363SOL    HW214987   5.615   1.653   9.101
 4364SOL     OW14988   6.909  13.182   3.995
 4364SOL    HW114989   6.931  13.204   4.085
 4364SOL    HW214990   6.903  13.087   3.994
 4365SOL     OW14991  14.071  11.764   7.274
 4365SOL    HW114992  14.163  11.774   7.251
 4365SOL    HW214993  14.050  11.674   7.249
 4366SOL     OW14994   8.070  12.764   2.560
 4366SOL    HW114995   8.119  12.808   2.491
 4366SOL    HW214996   8.136  12.724   2.616
 4367SOL     OW14997   5.121   6.378  11.681
 4367SOL    HW114998   5.155   6.290  11.666
 4367SOL    HW214999   5.096   6.410  11.594
 4368SOL     OW15000   4.355   2.246   6.261
 4368SOL    HW115001   4.358   2.340   6.282
 4368SOL    HW215002   4.298   2.209   6.328
 4369SOL     OW15003   9.674  12.006   4.907
 4369SOL    HW115004   9.721  11.924   4.894
 4369SOL    HW215005   9.592  11.980   4.950
 4370SOL     OW15006  12.628  10.749  14.607
 4370SOL    HW115007  12.723  10.757  14.615
 4370SOL    HW215008  12.604  10.686  14.676
 4371SOL     OW15009   5.030  12.858  10.239
 4371SOL    HW115010   4.964  12.837  10.306
 4371SOL    HW215011   5.100  12.902  10.287
 4372SOL     OW15012   8.272   0.886  11.122
 4372SOL    HW115013   8.226   0.967  11.102
 4372SOL    HW215014   8.291   0.892  11.215
 4373SOL     OW15015   1.394  12.293  11.857
 4373SOL    HW115016   1.443  12.306  11.775
 4373SOL    HW215017   1.400  12.199  11.874
 4374SOL     OW15018   4.697  14.631   0.155
 4374SOL    HW115019   4.610  14.623   0.117
 4374SOL    HW215020   4.741  14.696   0.100
 4375SOL     OW15021  11.861  11.697  10.183
 4375SOL    HW115022  11.767  11.709  10.193
 4375SOL    HW215023  11.896  11.785  10.171
 4376SOL     OW15024   5.565  13.018  13.016
 4376SOL    HW115025   5.598  12.989  12.930
 4376SOL    HW215026   5.567  13.114  13.010
 4377SOL     OW15027   0.096  14.571  14.805
 4377SOL    HW115028   0.176  14.595  14.759
 4377SOL    HW215029   0.038  14.647  14.793
 4378SOL     OW15030   7.149   6.229   5.549
 4378SOL    HW115031   7.218   6.217   5.615
 4378SOL    HW215032   7.179   6.178   5.474
 4379SOL     OW15033   9.291   8.731   0.888
 4379SOL    HW115034   9.315   8.649   0.930
 4379SOL    HW215035   9.195   8.732   0.890
 4380SOL     OW15036   8.883   9.400   6.620
 4380SOL    HW115037   8.877   9.466   6.689
 4380SOL    HW215038   8.792   9.380   6.598
 4381SOL     OW15039   8.261  10.509   1.815
 4381SOL    HW115040   8.289  10.555   1.736
 4381SOL    HW215041   8.165  10.515   1.814
 4382SOL     OW15042   9.669   0.555   2.766
 4382SOL    HW115043   9.578   0.534   2.745
 4382SOL    HW215044   9.699   0.483   2.821
 4383SOL     OW15045   7.577   3.992  12.239
 4383SOL    HW115046   7.577   4.046  12.160
 4383SOL    HW215047   7.614   4.049  12.307
 4384SOL     OW15048  10.471   4.983  13.892
 4384SOL    HW115049  10.397   4.946  13.939
 4384SOL    HW215050  10.542   4.986  13.957
 4385SOL     OW15051  12.175  10.547   2.104
 4385SOL    HW115052  12.240  10.598   2.152
 4385SOL    HW215053  12.091  10.574   2.142
 4386SOL     OW15054  12.779   3.120   7.786
 4386SOL    HW115055  12.771   3.048   7.848
 4386SOL    HW215056  12.739   3.195   7.830
 4387SOL     OW15057   3.666  12.009   1.257
 4387SOL    HW115058   3.648  12.099   1.285
 4387SOL    HW215059   3.750  12.014   1.212
 4388SOL     OW15060  14.548   7.074  10.987
 4388SOL    HW115061  14.560   7.000  10.927
 4388SOL    HW215062  14.564   7.151  10.934
 4389SOL     OW15063  12.872   4.307   3.919
 4389SOL    HW115064  12.938   4.339   3.981
 4389SOL    HW215065  12.816   4.250   3.972
 4390SOL     OW15066   6.292   8.014  11.506
 4390SOL    HW115067   6.351   8.044  11.575
 4390SOL    HW215068   6.328   8.052  11.426
 4391SOL     OW15069   2.714   7.460   6.808
 4391SOL    HW115070   2.633   7.417   6.836
 4391SOL    HW215071   2.784   7.410   6.851
 4392SOL     OW15072   9.139   5.513   8.303
 4392SOL    HW115073   9.176   5.440   8.253
 4392SOL    HW215074   9.129   5.479   8.392
 4393SOL     OW15075   8.637   9.879  11.738
 4393SOL    HW115076   8.559   9.931  11.760
 4393SOL    HW215077   8.707   9.918  11.790
 4394SOL     OW15078   6.439   7.132   2.434
 4394SOL    HW115079   6.437   7.093   2.521
 4394SOL    HW215080   6.349   7.160   2.419
 4395SOL     OW15081   7.678   9.285   6.950
 4395SOL    HW115082   7.719   9.317   7.031
 4395SOL    HW215083   7.584   9.295   6.965
 4396SOL     OW15084   4.834  12.217  13.713
 4396SOL    HW115085   4.837  12.137  13.660
 4396SOL    HW215086   4.891  12.198  13.787
 4397SOL     OW15087   0.908   8.997   5.804
 4397SOL    HW115088   0.895   8.975   5.896
 4397SOL    HW215089   0.897   8.914   5.758
 4398SOL     OW15090   1.870   0.049   9.465
 4398SOL    HW115091   1.819   0.074   9.388
 4398SOL    HW215092   1.835   0.104   9.536
 4399SOL     OW15093   4.090   2.307   4.295
 4399SOL    HW115094   4.148   2.383   4.307
 4399SOL    HW215095   4.065   2.310   4.203
 4400SOL     OW15096  12.069   4.910  13.418
 4400SOL    HW115097  12.143   4.908  13.357
 4400SOL    HW215098  12.109   4.905  13.505
 4401SOL     OW15099   8.608  12.828   3.500
 4401SOL    HW115100   8.571  12.742   3.483
 4401SOL    HW215101   8.594  12.842   3.594
 4402SOL     OW15102   9.065   0.748   4.138
 4402SOL    HW115103   9.091   0.835   4.169
 4402SOL    HW215104   9.144   0.713   4.096
 4403SOL     OW15105  10.757   5.692  13.416
 4403SOL    HW115106  10.717   5.758  13.473
 4403SOL    HW215107  10.823   5.740  13.367
 4404SOL     OW15108  14.829  12.847   4.550
 4404SOL    HW115109  14.773  12.925   4.549
 4404SOL    HW215110  14.787  12.788   4.612
 4405SOL     OW15111   6.470   0.740   1.227
 4405SOL    HW115112   6.468   0.821   1.175
 4405SOL    HW215113   6.411   0.680   1.181
 4406SOL     OW15114   6.807   2.495   2.336
 4406SOL    HW115115   6.818   2.408   2.373
 4406SOL    HW215116   6.815   2.483   2.241
 4407SOL     OW15117   7.958   8.560   7.402
 4407SOL    HW115118   7.904   8.554   7.481
 4407SOL    HW215119   7.956   8.652   7.378
 4408SOL     OW15120   5.076  12.556  10.918
 4408SOL    HW115121   5.124  12.611  10.856
 4408SOL    HW215122   5.140  12.491  10.947
 4409SOL     OW15123  12.558   4.407   6.894
 4409SOL    HW115124  12.546   4.393   6.800
 4409SOL    HW215125  12.563   4.318   6.931
 4410SOL     OW15126   5.378  10.717   8.681
 4410SOL    HW115127   5.416  10.633   8.656
 4410SOL    HW215128   5.285  10.698   8.691
 4411SOL     OW15129   8.381   6.209   0.488
 4411SOL    HW115130   8.461   6.156   0.496
 4411SOL    HW215131   8.393   6.280   0.550
 4412SOL     OW15132  12.025  14.263  10.029
 4412SOL    HW115133  11.940  14.220  10.015
 4412SOL    HW215134  12.071  14.251   9.945
 4413SOL     OW15135   5.101   7.628  12.014
 4413SOL    HW115136   5.132   7.684  12.085
 4413SOL    HW215137   5.145   7.661  11.936
 4414SOL     OW15138  14.739   7.419   5.658
 4414SOL    HW115139  14.690   7.384   5.583
 4414SOL    HW215140  14.827   7.381   5.648
 4415SOL     OW15141   2.055   7.431   0.311
 4415SOL    HW115142   2.069   7.511   0.362
 4415SOL    HW215143   2.083   7.455   0.222
 4416SOL     OW15144   5.286   7.391  10.504
 4416SOL    HW115145   5.338   7.461  10.543
 4416SOL    HW215146   5.261   7.336  10.578
 4417SOL     OW15147   2.712   4.751  10.676
 4417SOL    HW115148   2.705   4.816  10.746
 4417SOL    HW215149   2.621   4.739  10.646
 4418SOL     OW15150   7.259   3.088  11.989
 4418SOL    HW115151   7.253   3.012  12.047
 4418SOL    HW215152   7.283   3.051  11.904
 4419SOL     OW15153  10.643  12.442   8.538
 4419SOL    HW115154  10.591  12.404   8.467
 4419SOL    HW215155  10.593  12.422   8.618
 4420SOL     OW15156   4.401  10.543   1.972
 4420SOL    HW115157   4.367  10.537   1.883
 4420SOL    HW215158   4.331  10.587   2.021
 4421SOL     OW15159  10.929   2.168   7.447
 4421SOL    HW115160  10.954   2.096   7.506
 4421SOL    HW215161  10.849   2.204   7.487
 4422SOL     OW15162   1.571   0.141   1.484
 4422SOL    HW115163   1.539   0.060   1.444
 4422SOL    HW215164   1.497   0.172   1.536
 4423SOL     OW15165   0.633   4.978  13.311
 4423SOL    HW115166   0.722   4.962  13.342
 4423SOL    HW215167   0.623   4.919  13.236
 4424SOL     OW15168   0.505  10.108   7.710
 4424SOL    HW115169   0.479  10.028   7.664
 4424SOL    HW215170   0.520  10.172   7.640
 4425SOL     OW15171   6.156  10.547  13.131
 4425SOL    HW115172   6.252  10.544  13.129
 4425SOL    HW215173   6.132  10.515  13.218
 4426SOL     OW15174   3.876   4.790   5.498
 4426SOL    HW115175   3.877   4.857   5.567
 4426SOL    HW215176   3.947   4.730   5.522
 4427SOL     OW15177   5.364  13.850   5.184
 4427SOL    HW115178   5.410  13.852   5.100
 4427SOL    HW215179   5.432  13.828   5.248
 4428SOL     OW15180  13.462  14.130   3.022
 4428SOL    HW115181  13.514  14.173   2.954
 4428SOL    HW215182  13.390  14.089   2.973
 4429SOL     OW15183   2.958  13.787  13.278
 4429SOL    HW115184   2.973  13.698  13.245
 4429SOL    HW215185   2.905  13.775  13.356
 4430SOL     OW15186   1.712   4.468   5.351
 4430SOL    HW115187   1.749   4.513   5.275
 4430SOL    HW215188   1.785   4.456   5.410
 4431SOL     OW15189  10.798   7.578   1.802
 4431SOL    HW115190  10.816   7.512   1.868
 4431SOL    HW215191  10.759   7.651   1.851
 4432SOL     OW15192   8.524  14.547   2.713
 4432SOL    HW115193   8.522  14.643   2.716
 4432SOL    HW215194   8.440  14.519   2.748
 4433SOL     OW15195  12.612  14.575   2.349
 4433SOL    HW115196  12.697  14.585   2.392
 4433SOL    HW215197  12.632  14.536   2.264
 4434SOL     OW15198  10.469   1.752   0.719
 4434SOL    HW115199  10.527   1.740   0.644
 4434SOL    HW215200  10.456   1.663   0.753
 4435SOL     OW15201  10.906  13.929   8.671
 4435SOL    HW115202  10.969  13.923   8.743
 4435SOL    HW215203  10.826  13.961   8.711
 4436SOL     OW15204   3.719   6.895   6.683
 4436SOL    HW115205   3.799   6.875   6.634
 4436SOL    HW215206   3.718   6.990   6.689
 4437SOL     OW15207   3.309  13.485   8.359
 4437SOL    HW115208   3.371  13.557   8.348
 4437SOL    HW215209   3.233  13.509   8.305
 4438SOL     OW15210   3.024   7.602   4.708
 4438SOL    HW115211   2.961   7.622   4.639
 4438SOL    HW215212   3.052   7.687   4.741
 4439SOL     OW15213   6.827  13.352   6.595
 4439SOL    HW115214   6.763  13.415   6.626
 4439SOL    HW215215   6.910  13.382   6.632
 4440SOL     OW15216   9.930   9.911   9.449
 4440SOL    HW115217   9.953   9.837   9.505
 4440SOL    HW215218  10.013   9.958   9.437
 4441SOL     OW15219   9.970  14.733   9.269
 4441SOL    HW115220   9.912  14.754   9.195
 4441SOL    HW215221   9.931  14.654   9.307
 4442SOL     OW15222   6.180   2.059   4.595
 4442SOL    HW115223   6.233   2.040   4.672
 4442SOL    HW215224   6.100   2.097   4.630
 4443SOL     OW15225   9.350   4.159   6.250
 4443SOL    HW115226   9.340   4.139   6.156
 4443SOL    HW215227   9.266   4.136   6.288
 4444SOL     OW15228  11.095  11.820   1.552
 4444SOL    HW115229  11.142  11.772   1.484
 4444SOL    HW215230  11.161  11.836   1.619
 4445SOL     OW15231   6.374   2.599   5.412
 4445SOL    HW115232   6.410   2.687   5.401
 4445SOL    HW215233   6.417   2.547   5.344
 4446SOL     OW15234   6.942   9.468   1.448
 4446SOL    HW115235   6.957   9.381   1.413
 4446SOL    HW215236   6.962   9.460   1.541
 4447SOL     OW15237   6.406  11.614   4.207
 4447SOL    HW115238   6.451  11.613   4.123
 4447SOL    HW215239   6.412  11.524   4.239
 4448SOL     OW15240   7.978   3.268  10.763
 4448SOL    HW115241   7.910   3.206  10.737
 4448SOL    HW215242   7.970   3.274  10.858
 4449SOL     OW15243   3.063   9.371   4.604
 4449SOL    HW115244   3.056   9.282   4.569
 4449SOL    HW215245   3.150   9.401   4.577
 4450SOL     OW15246   0.351  14.698   0.224
 4450SOL    HW115247   0.259  14.676   0.211
 4450SOL    HW215248   0.349  14.786   0.262
 4451SOL     OW15249   6.461  12.977  12.342
 4451SOL    HW115250   6.420  12.949  12.424
 4451SOL    HW215251   6.470  12.897  12.291
 4452SOL     OW15252   6.127  12.613   7.408
 4452SOL    HW115253   6.139  12.554   7.482
 4452SOL    HW215254   6.185  12.578   7.340
 4453SOL     OW15255  12.080   4.117  14.674
 4453SOL    HW115256  12.109   4.145  14.587
 4453SOL    HW215257  12.023   4.188  14.704
 4454SOL     OW15258   5.660  11.553   7.052
 4454SOL    HW115259   5.676  11.459   7.042
 4454SOL    HW215260   5.627  11.562   7.142
 4455SOL     OW15261   2.123   8.059   7.432
 4455SOL    HW115262   2.143   8.075   7.340
 4455SOL    HW215263   2.044   8.111   7.448
 4456SOL     OW15264   9.849  12.254   4.763
 4456SOL    HW115265   9.888  12.171   4.791
 4456SOL    HW215266   9.762  12.230   4.733
 4457SOL     OW15267   6.266   0.194  12.331
 4457SOL    HW115268   6.259   0.171  12.423
 4457SOL    HW215269   6.177   0.181  12.296
 4458SOL     OW15270   5.656   3.860   3.566
 4458SOL    HW115271   5.717   3.904   3.627
 4458SOL    HW215272   5.569   3.887   3.595
 4459SOL     OW15273   1.101  13.571   5.643
 4459SOL    HW115274   1.029  13.632   5.630
 4459SOL    HW215275   1.062  13.496   5.687
 4460SOL     OW15276  12.587   3.347   0.146
 4460SOL    HW115277  12.641   3.305   0.079
 4460SOL    HW215278  12.555   3.427   0.104
 4461SOL     OW15279  14.341  11.558  10.054
 4461SOL    HW115280  14.275  11.499  10.017
 4461SOL    HW215281  14.364  11.616   9.982
 4462SOL     OW15282  12.893   4.668   4.821
 4462SOL    HW115283  12.836   4.617   4.878
 4462SOL    HW215284  12.970   4.686   4.875
 4463SOL     OW15285  10.774   4.026   0.699
 4463SOL    HW115286  10.856   3.987   0.729
 4463SOL    HW215287  10.741   3.965   0.633
 4464SOL     OW15288  12.150   0.242   1.086
 4464SOL    HW115289  12.211   0.167   1.087
 4464SOL    HW215290  12.182   0.299   1.156
 4465SOL     OW15291   5.239   4.624   8.443
 4465SOL    HW115292   5.228   4.700   8.501
 4465SOL    HW215293   5.330   4.630   8.414
 4466SOL     OW15294  11.361  12.846   1.587
 4466SOL    HW115295  11.440  12.817   1.633
 4466SOL    HW215296  11.335  12.771   1.535
 4467SOL     OW15297   0.485   2.385   0.596
 4467SOL    HW115298   0.566   2.339   0.619
 4467SOL    HW215299   0.479   2.376   0.500
 4468SOL     OW15300  10.236  11.711   7.144
 4468SOL    HW115301  10.183  11.651   7.196
 4468SOL    HW215302  10.326  11.683   7.158
 4469SOL     OW15303   4.389  10.410  11.514
 4469SOL    HW115304   4.330  10.462  11.460
 4469SOL    HW215305   4.460  10.470  11.538
 4470SOL     OW15306  13.950   3.727   6.723
 4470SOL    HW115307  14.015   3.680   6.775
 4470SOL    HW215308  13.866   3.702   6.762
 4471SOL     OW15309   6.097  11.937  11.256
 4471SOL    HW115310   6.144  11.900  11.181
 4471SOL    HW215311   6.073  12.025  11.228
 4472SOL     OW15312  11.514  14.016   1.231
 4472SOL    HW115313  11.591  14.007   1.287
 4472SOL    HW215314  11.440  13.997   1.288
 4473SOL     OW15315  13.709  13.108  10.763
 4473SOL    HW115316  13.787  13.159  10.741
 4473SOL    HW215317  13.705  13.041  10.695
 4474SOL     OW15318  12.563   0.216   4.484
 4474SOL    HW115319  12.479   0.211   4.439
 4474SOL    HW215320  12.625   0.176   4.423
 4475SOL     OW15321  14.660   2.982   4.841
 4475SOL    HW115322  14.637   2.904   4.892
 4475SOL    HW215323  14.705   2.947   4.764
 4476SOL     OW15324   4.817  12.900   0.963
 4476SOL    HW115325   4.727  12.872   0.981
 4476SOL    HW215326   4.808  12.991   0.935
 4477SOL     OW15327   6.017   9.145   1.001
 4477SOL    HW115328   6.026   9.058   1.038
 4477SOL    HW215329   6.106   9.168   0.972
 4478SOL     OW15330  11.966   3.265   2.401
 4478SOL    HW115331  11.895   3.203   2.387
 4478SOL    HW215332  11.955   3.295   2.491
 4479SOL     OW15333  14.876  14.384  11.602
 4479SOL    HW115334   0.018  14.418  11.514
 4479SOL    HW215335   0.082  14.348  11.632
 4480SOL     OW15336   0.848  10.791   7.525
 4480SOL    HW115337   0.786  10.746   7.582
 4480SOL    HW215338   0.928  10.797   7.577
 4481SOL     OW15339  14.743  11.016  12.824
 4481SOL    HW115340  14.772  10.948  12.885
 4481SOL    HW215341  14.649  11.024  12.841
 4482SOL     OW15342   8.748   0.849   9.229
 4482SOL    HW115343   8.748   0.847   9.133
 4482SOL    HW215344   8.841   0.849   9.253
 4483SOL     OW15345   0.607   1.773   2.207
 4483SOL    HW115346   0.648   1.758   2.292
 4483SOL    HW215347   0.550   1.849   2.221
 4484SOL     OW15348   0.361  10.985   4.597
 4484SOL    HW115349   0.443  10.948   4.628
 4484SOL    HW215350   0.385  11.070   4.559
 4485SOL     OW15351  10.971   5.519   8.875
 4485SOL    HW115352  10.959   5.424   8.885
 4485SOL    HW215353  10.882   5.554   8.875
 4486SOL     OW15354  12.684   9.664  13.863
 4486SOL    HW115355  12.699   9.584  13.812
 4486SOL    HW215356  12.696   9.637  13.954
 4487SOL     OW15357   6.361  10.772   0.118
 4487SOL    HW115358   6.323  10.705   0.062
 4487SOL    HW215359   6.425  10.817   0.062
 4488SOL     OW15360  11.512   2.736   2.129
 4488SOL    HW115361  11.503   2.824   2.094
 4488SOL    HW215362  11.427   2.717   2.168
 4489SOL     OW15363   0.330  11.672   9.882
 4489SOL    HW115364   0.327  11.680   9.978
 4489SOL    HW215365   0.321  11.578   9.866
 4490SOL     OW15366  14.564   7.566  11.574
 4490SOL    HW115367  14.489   7.566  11.515
 4490SOL    HW215368  14.564   7.479  11.614
 4491SOL     OW15369  14.269   8.266  10.492
 4491SOL    HW115370  14.359   8.296  10.481
 4491SOL    HW215371  14.215   8.343  10.474
 4492SOL     OW15372  12.189  14.441  12.211
 4492SOL    HW115373  12.235  14.357  12.216
 4492SOL    HW215374  12.250  14.505  12.248
 4493SOL     OW15375  13.786   4.108  14.110
 4493SOL    HW115376  13.749   4.062  14.186
 4493SOL    HW215377  13.844   4.043  14.069
 4494SOL     OW15378   2.119   0.637  11.420
 4494SOL    HW115379   2.094   0.677  11.504
 4494SOL    HW215380   2.047   0.577  11.400
 4495SOL     OW15381  11.125   8.216   9.208
 4495SOL    HW115382  11.079   8.237   9.126
 4495SOL    HW215383  11.113   8.294   9.262
 4496SOL     OW15384   1.148  14.047   6.625
 4496SOL    HW115385   1.222  14.090   6.582
 4496SOL    HW215386   1.079  14.114   6.628
 4497SOL     OW15387   4.188   3.648  10.134
 4497SOL    HW115388   4.140   3.683  10.208
 4497SOL    HW215389   4.168   3.708  10.062
 4498SOL     OW15390   2.204   2.699   6.443
 4498SOL    HW115391   2.228   2.736   6.528
 4498SOL    HW215392   2.266   2.627   6.430
 4499SOL     OW15393   8.060   2.454   4.549
 4499SOL    HW115394   8.101   2.397   4.614
 4499SOL    HW215395   8.053   2.400   4.470
 4500SOL     OW15396   1.072   2.672   8.063
 4500SOL    HW115397   1.016   2.597   8.044
 4500SOL    HW215398   1.160   2.635   8.074
 4501SOL     OW15399   5.028   0.346   8.424
 4501SOL    HW115400   5.004   0.430   8.463
 4501SOL    HW215401   5.123   0.342   8.433
 4502SOL     OW15402  10.461   9.409   3.727
 4502SOL    HW115403  10.405   9.332   3.717
 4502SOL    HW215404  10.484   9.433   3.637
 4503SOL     OW15405  11.405  11.733   1.587
 4503SOL    HW115406  11.328  11.680   1.610
 4503SOL    HW215407  11.467  11.718   1.658
 4504SOL     OW15408   0.528   2.801   2.688
 4504SOL    HW115409   0.451   2.746   2.704
 4504SOL    HW215410   0.601   2.739   2.687
 4505SOL     OW15411  11.262  14.827  12.380
 4505SOL    HW115412  11.264   0.007  12.304
 4505SOL    HW215413  11.337  14.770  12.369
 4506SOL     OW15414   0.866   9.720  11.873
 4506SOL    HW115415   0.891   9.645  11.818
 4506SOL    HW215416   0.779   9.743  11.843
 4507SOL     OW15417   4.528  10.692   2.707
 4507SOL    HW115418   4.597  10.730   2.653
 4507SOL    HW215419   4.573  10.665   2.787
 4508SOL     OW15420  11.682   4.628   7.183
 4508SOL    HW115421  11.729   4.559   7.136
 4508SOL    HW215422  11.644   4.683   7.115
 4509SOL     OW15423  13.901   1.618  14.211
 4509SOL    HW115424  13.927   1.534  14.248
 4509SOL    HW215425  13.959   1.630  14.136
 4510SOL     OW15426   7.975   3.259   5.067
 4510SOL    HW115427   7.944   3.347   5.085
 4510SOL    HW215428   7.909   3.202   5.106
 4511SOL     OW15429  13.261   3.779  12.459
 4511SOL    HW115430  13.274   3.869  12.489
 4511SOL    HW215431  13.319   3.771  12.384
 4512SOL     OW15432   9.775   8.992   8.010
 4512SOL    HW115433   9.697   8.965   7.961
 4512SOL    HW215434   9.743   9.006   8.099
 4513SOL     OW15435   1.589   2.889   3.120
 4513SOL    HW115436   1.573   2.963   3.060
 4513SOL    HW215437   1.663   2.917   3.174
 4514SOL     OW15438  14.651  11.311  13.229
 4514SOL    HW115439  14.693  11.350  13.153
 4514SOL    HW215440  14.557  11.330  13.217
 4515SOL     OW15441   4.027   7.723   3.598
 4515SOL    HW115442   4.061   7.808   3.627
 4515SOL    HW215443   4.072   7.706   3.515
 4516SOL     OW15444   4.812   5.566   2.204
 4516SOL    HW115445   4.770   5.600   2.283
 4516SOL    HW215446   4.872   5.635   2.177
 4517SOL     OW15447   6.687   9.545  14.511
 4517SOL    HW115448   6.656   9.455  14.512
 4517SOL    HW215449   6.704   9.566  14.603
 4518SOL     OW15450  13.962   2.818   2.178
 4518SOL    HW115451  13.878   2.780   2.154
 4518SOL    HW215452  13.941   2.884   2.243
 4519SOL     OW15453  13.547  11.914  11.621
 4519SOL    HW115454  13.457  11.881  11.613
 4519SOL    HW215455  13.566  11.906  11.714
 4520SOL     OW15456   8.262  10.448   0.973
 4520SOL    HW115457   8.281  10.375   1.032
 4520SOL    HW215458   8.208  10.507   1.025
 4521SOL     OW15459  13.253   4.795   5.609
 4521SOL    HW115460  13.305   4.873   5.631
 4521SOL    HW215461  13.315   4.736   5.566
 4522SOL     OW15462  13.168  14.268   4.733
 4522SOL    HW115463  13.214  14.188   4.708
 4522SOL    HW215464  13.094  14.273   4.674
 4523SOL     OW15465  12.973   2.638   2.148
 4523SOL    HW115466  13.000   2.727   2.126
 4523SOL    HW215467  13.009   2.583   2.078
 4524SOL     OW15468   1.151  13.362   0.663
 4524SOL    HW115469   1.074  13.351   0.607
 4524SOL    HW215470   1.196  13.277   0.659
 4525SOL     OW15471   7.232   8.930  14.753
 4525SOL    HW115472   7.323   8.959  14.755
 4525SOL    HW215473   7.235   8.840  14.786
 4526SOL     OW15474  11.603   7.030  12.766
 4526SOL    HW115475  11.520   7.046  12.811
 4526SOL    HW215476  11.631   6.945  12.799
 4527SOL     OW15477   6.667  12.264   4.309
 4527SOL    HW115478   6.711  12.344   4.279
 4527SOL    HW215479   6.664  12.207   4.232
 4528SOL     OW15480  10.983   8.688  14.233
 4528SOL    HW115481  11.052   8.716  14.293
 4528SOL    HW215482  10.991   8.593  14.230
 4529SOL     OW15483   5.990  13.637   2.634
 4529SOL    HW115484   5.980  13.562   2.575
 4529SOL    HW215485   6.050  13.696   2.587
 4530SOL     OW15486   8.975  11.783   8.327
 4530SOL    HW115487   9.056  11.817   8.291
 4530SOL    HW215488   8.998  11.755   8.416
 4531SOL     OW15489  12.201  11.213   0.042
 4531SOL    HW115490  12.199  11.141   0.105
 4531SOL    HW215491  12.231  11.289   0.092
 4532SOL     OW15492   0.793  11.881  12.427
 4532SOL    HW115493   0.819  11.875  12.519
 4532SOL    HW215494   0.873  11.862  12.378
 4533SOL     OW15495   9.795   6.769   2.439
 4533SOL    HW115496   9.842   6.838   2.391
 4533SOL    HW215497   9.732   6.816   2.493
 4534SOL     OW15498  13.372   6.414   0.156
 4534SOL    HW115499  13.369   6.449   0.245
 4534SOL    HW215500  13.463   6.426   0.129
 4535SOL     OW15501   5.714   6.629   7.503
 4535SOL    HW115502   5.655   6.555   7.518
 4535SOL    HW215503   5.660   6.706   7.522
 4536SOL     OW15504   0.513   0.627  12.330
 4536SOL    HW115505   0.538   0.580  12.250
 4536SOL    HW215506   0.436   0.580  12.362
 4537SOL     OW15507   2.201   3.921   6.189
 4537SOL    HW115508   2.255   3.905   6.112
 4537SOL    HW215509   2.127   3.972   6.155
 4538SOL     OW15510   6.976   1.601   5.670
 4538SOL    HW115511   6.984   1.582   5.576
 4538SOL    HW215512   7.057   1.646   5.693
 4539SOL     OW15513   3.031   4.848   6.860
 4539SOL    HW115514   3.119   4.877   6.882
 4539SOL    HW215515   3.033   4.832   6.766
 4540SOL     OW15516   7.694  10.057   4.845
 4540SOL    HW115517   7.624  10.076   4.782
 4540SOL    HW215518   7.678  10.117   4.918
 4541SOL     OW15519   1.428  10.552   2.815
 4541SOL    HW115520   1.336  10.555   2.787
 4541SOL    HW215521   1.424  10.561   2.910
 4542SOL     OW15522   1.376  13.951  14.528
 4542SOL    HW115523   1.375  13.995  14.443
 4542SOL    HW215524   1.315  13.878  14.518
 4543SOL     OW15525   2.510  10.256  10.758
 4543SOL    HW115526   2.588  10.233  10.708
 4543SOL    HW215527   2.544  10.299  10.837
 4544SOL     OW15528  10.698   5.538   8.336
 4544SOL    HW115529  10.718   5.534   8.242
 4544SOL    HW215530  10.673   5.629   8.351
 4545SOL     OW15531  14.728  13.263  14.478
 4545SOL    HW115532  14.753  13.171  14.474
 4545SOL    HW215533  14.633  13.261  14.493
 4546SOL     OW15534  10.808   6.034  10.753
 4546SOL    HW115535  10.772   5.945  10.756
 4546SOL    HW215536  10.746   6.087  10.803
 4547SOL     OW15537   4.965   8.478   0.422
 4547SOL    HW115538   4.903   8.442   0.358
 4547SOL    HW215539   4.917   8.477   0.505
 4548SOL     OW15540   0.160   4.642   4.584
 4548SOL    HW115541   0.105   4.623   4.660
 4548SOL    HW215542   0.145   4.567   4.526
 4549SOL     OW15543  12.221   7.225   3.446
 4549SOL    HW115544  12.208   7.209   3.353
 4549SOL    HW215545  12.134   7.214   3.485
 4550SOL     OW15546   8.007  13.896   8.698
 4550SOL    HW115547   7.971  13.950   8.627
 4550SOL    HW215548   7.932  13.844   8.728
 4551SOL     OW15549  13.035   8.809   2.386
 4551SOL    HW115550  13.108   8.866   2.411
 4551SOL    HW215551  12.999   8.849   2.306
 4552SOL     OW15552   4.155  10.856   8.295
 4552SOL    HW115553   4.089  10.864   8.227
 4552SOL    HW215554   4.106  10.854   8.377
 4553SOL     OW15555   3.426  13.228  12.379
 4553SOL    HW115556   3.511  13.258  12.412
 4553SOL    HW215557   3.445  13.142  12.340
 4554SOL     OW15558  14.417   5.962   3.927
 4554SOL    HW115559  14.458   5.878   3.947
 4554SOL    HW215560  14.374   5.948   3.843
 4555SOL     OW15561   0.742   3.246  12.131
 4555SOL    HW115562   0.757   3.263  12.224
 4555SOL    HW215563   0.744   3.333  12.090
 4556SOL     OW15564   7.310   1.609   7.351
 4556SOL    HW115565   7.401   1.636   7.338
 4556SOL    HW215566   7.315   1.517   7.376
 4557SOL     OW15567   1.674   2.021   9.672
 4557SOL    HW115568   1.714   2.008   9.758
 4557SOL    HW215569   1.671   1.934   9.634
 4558SOL     OW15570   6.605   3.246   4.063
 4558SOL    HW115571   6.654   3.276   4.140
 4558SOL    HW215572   6.616   3.316   3.999
 4559SOL     OW15573   5.692   6.904   1.512
 4559SOL    HW115574   5.736   6.986   1.533
 4559SOL    HW215575   5.762   6.843   1.489
 4560SOL     OW15576   9.094  10.987  11.167
 4560SOL    HW115577   9.000  10.970  11.164
 4560SOL    HW215578   9.124  10.944  11.247
 4561SOL     OW15579   2.325   5.260   2.180
 4561SOL    HW115580   2.359   5.197   2.116
 4561SOL    HW215581   2.354   5.226   2.265
 4562SOL     OW15582   0.195   8.712   9.600
 4562SOL    HW115583   0.154   8.799   9.596
 4562SOL    HW215584   0.169   8.669   9.519
 4563SOL     OW15585   3.330  11.414   4.130
 4563SOL    HW115586   3.247  11.383   4.166
 4563SOL    HW215587   3.396  11.387   4.193
 4564SOL     OW15588   8.310   1.014  13.611
 4564SOL    HW115589   8.324   1.081  13.544
 4564SOL    HW215590   8.346   1.052  13.691
 4565SOL     OW15591  10.236   2.991  10.105
 4565SOL    HW115592  10.207   2.917  10.052
 4565SOL    HW215593  10.157   3.021  10.150
 4566SOL     OW15594  11.412   5.557   7.114
 4566SOL    HW115595  11.437   5.465   7.103
 4566SOL    HW215596  11.320   5.554   7.141
 4567SOL     OW15597  12.394   3.645  10.844
 4567SOL    HW115598  12.303   3.642  10.814
 4567SOL    HW215599  12.403   3.570  10.902
 4568SOL     OW15600   3.235   6.431   4.148
 4568SOL    HW115601   3.231   6.468   4.060
 4568SOL    HW215602   3.255   6.506   4.204
 4569SOL     OW15603   1.569   2.552  13.374
 4569SOL    HW115604   1.614   2.518  13.296
 4569SOL    HW215605   1.480   2.570  13.344
 4570SOL     OW15606   4.390   4.560   5.600
 4570SOL    HW115607   4.329   4.509   5.653
 4570SOL    HW215608   4.476   4.524   5.621
 4571SOL     OW15609   8.963   7.049   7.210
 4571SOL    HW115610   9.014   7.041   7.291
 4571SOL    HW215611   8.971   7.142   7.187
 4572SOL     OW15612  11.599   9.618  13.768
 4572SOL    HW115613  11.585   9.681  13.697
 4572SOL    HW215614  11.574   9.534  13.730
 4573SOL     OW15615  12.391  14.554   4.983
 4573SOL    HW115616  12.300  14.530   5.000
 4573SOL    HW215617  12.441  14.504   5.047
 4574SOL     OW15618   1.879   1.316  13.213
 4574SOL    HW115619   1.950   1.333  13.275
 4574SOL    HW215620   1.808   1.280  13.267
 4575SOL     OW15621   2.070   4.657   7.371
 4575SOL    HW115622   2.130   4.711   7.421
 4575SOL    HW215623   1.991   4.711   7.361
 4576SOL     OW15624  10.923  12.752   4.350
 4576SOL    HW115625  10.854  12.774   4.287
 4576SOL    HW215626  10.997  12.807   4.323
 4577SOL     OW15627  10.154   7.852   1.684
 4577SOL    HW115628  10.082   7.793   1.661
 4577SOL    HW215629  10.154   7.917   1.614
 4578SOL     OW15630   8.703   2.772   8.366
 4578SOL    HW115631   8.651   2.729   8.299
 4578SOL    HW215632   8.638   2.818   8.420
 4579SOL     OW15633  12.026   4.314   3.574
 4579SOL    HW115634  12.088   4.251   3.536
 4579SOL    HW215635  11.946   4.263   3.587
 4580SOL     OW15636   3.217   1.893   2.531
 4580SOL    HW115637   3.262   1.976   2.545
 4580SOL    HW215638   3.287   1.831   2.513
 4581SOL     OW15639   6.729  13.501   9.849
 4581SOL    HW115640   6.639  13.480   9.826
 4581SOL    HW215641   6.724  13.531   9.940
 4582SOL     OW15642   7.558  13.497   7.307
 4582SOL    HW115643   7.621  13.565   7.330
 4582SOL    HW215644   7.588  13.463   7.223
 4583SOL     OW15645   6.686  14.431  12.577
 4583SOL    HW115646   6.756  14.370  12.553
 4583SOL    HW215647   6.606  14.381  12.564
 4584SOL     OW15648   2.727   3.701  12.445
 4584SOL    HW115649   2.724   3.796  12.439
 4584SOL    HW215650   2.741   3.671  12.355
 4585SOL     OW15651  14.864  14.681   9.007
 4585SOL    HW115652   0.025  14.673   9.095
 4585SOL    HW215653   0.052  14.729   8.957
 4586SOL     OW15654   5.324   2.360   9.339
 4586SOL    HW115655   5.257   2.296   9.365
 4586SOL    HW215656   5.396   2.307   9.304
 4587SOL     OW15657   9.810   5.342   8.435
 4587SOL    HW115658   9.730   5.350   8.486
 4587SOL    HW215659   9.795   5.265   8.380
 4588SOL     OW15660   2.728   0.583   5.020
 4588SOL    HW115661   2.778   0.644   5.075
 4588SOL    HW215662   2.718   0.630   4.936
 4589SOL     OW15663   1.727  14.338  10.417
 4589SOL    HW115664   1.712  14.258  10.467
 4589SOL    HW215665   1.689  14.408  10.472
 4590SOL     OW15666   0.742  14.730  14.371
 4590SOL    HW115667   0.750  14.636  14.383
 4590SOL    HW215668   0.758  14.767  14.458
 4591SOL     OW15669   7.885  13.669   5.726
 4591SOL    HW115670   7.816  13.686   5.790
 4591SOL    HW215671   7.882  13.574   5.714
 4592SOL     OW15672  10.355   4.474   8.776
 4592SOL    HW115673  10.394   4.447   8.860
 4592SOL    HW215674  10.360   4.569   8.777
 4593SOL     OW15675   0.590   7.828  11.095
 4593SOL    HW115676   0.510   7.783  11.069
 4593SOL    HW215677   0.660   7.765  11.078
 4594SOL     OW15678   0.629   7.559  14.520
 4594SOL    HW115679   0.706   7.519  14.560
 4594SOL    HW215680   0.606   7.501  14.448
 4595SOL     OW15681   7.696   8.781   2.146
 4595SOL    HW115682   7.665   8.811   2.231
 4595SOL    HW215683   7.760   8.713   2.167
 4596SOL     OW15684  10.533   4.921   5.413
 4596SOL    HW115685  10.520   4.829   5.390
 4596SOL    HW215686  10.545   4.920   5.508
 4597SOL     OW15687  13.841  13.802  11.155
 4597SOL    HW115688  13.779  13.781  11.086
 4597SOL    HW215689  13.913  13.847  11.110
 4598SOL     OW15690   9.315  13.609   0.429
 4598SOL    HW115691   9.347  13.554   0.357
 4598SOL    HW215692   9.371  13.586   0.503
 4599SOL     OW15693  12.226   9.106  13.594
 4599SOL    HW115694  12.197   9.054  13.519
 4599SOL    HW215695  12.164   9.084  13.663
 4600SOL     OW15696   0.257   4.576   5.339
 4600SOL    HW115697   0.201   4.648   5.309
 4600SOL    HW215698   0.317   4.561   5.265
 4601SOL     OW15699   1.189   4.529   1.431
 4601SOL    HW115700   1.211   4.443   1.466
 4601SOL    HW215701   1.238   4.534   1.349
 4602SOL     OW15702   6.246  14.857   1.433
 4602SOL    HW115703   6.249  14.785   1.371
 4602SOL    HW215704   6.256   0.058   1.380
 4603SOL     OW15705  13.511   7.247   6.289
 4603SOL    HW115706  13.558   7.165   6.272
 4603SOL    HW215707  13.419   7.221   6.296
 4604SOL     OW15708  13.900   2.613   3.823
 4604SOL    HW115709  13.856   2.529   3.839
 4604SOL    HW215710  13.986   2.603   3.863
 4605SOL     OW15711   9.718   6.118   8.766
 4605SOL    HW115712   9.774   6.122   8.843
 4605SOL    HW215713   9.759   6.178   8.704
 4606SOL     OW15714   0.627   1.704   6.142
 4606SOL    HW115715   0.604   1.612   6.146
 4606SOL    HW215716   0.569   1.747   6.205
 4607SOL     OW15717   3.029   5.123   5.948
 4607SOL    HW115718   3.025   5.070   5.869
 4607SOL    HW215719   3.033   5.213   5.917
 4608SOL     OW15720   3.196  12.386   2.029
 4608SOL    HW115721   3.198  12.444   1.952
 4608SOL    HW215722   3.161  12.441   2.099
 4609SOL     OW15723   8.323   5.515   1.452
 4609SOL    HW115724   8.397   5.462   1.423
 4609SOL    HW215725   8.280   5.463   1.520
 4610SOL     OW15726   9.475   0.352  11.188
 4610SOL    HW115727   9.551   0.302  11.217
 4610SOL    HW215728   9.510   0.415  11.125
 4611SOL     OW15729   1.749   1.959  10.082
 4611SOL    HW115730   1.770   2.041  10.038
 4611SOL    HW215731   1.797   1.962  10.165
 4612SOL     OW15732   7.587   7.068   1.462
 4612SOL    HW115733   7.603   7.144   1.518
 4612SOL    HW215734   7.580   7.104   1.374
 4613SOL     OW15735   2.166   2.276   3.869
 4613SOL    HW115736   2.239   2.263   3.809
 4613SOL    HW215737   2.091   2.293   3.812
 4614SOL     OW15738  11.790  11.003   4.193
 4614SOL    HW115739  11.779  11.030   4.102
 4614SOL    HW215740  11.878  10.965   4.197
 4615SOL     OW15741   2.387   6.716   7.548
 4615SOL    HW115742   2.330   6.639   7.538
 4615SOL    HW215743   2.326   6.788   7.561
 4616SOL     OW15744   4.006  11.523   0.189
 4616SOL    HW115745   4.098  11.515   0.214
 4616SOL    HW215746   3.997  11.615   0.162
 4617SOL     OW15747  11.874   3.703   8.431
 4617SOL    HW115748  11.884   3.608   8.437
 4617SOL    HW215749  11.916   3.727   8.349
 4618SOL     OW15750   7.146  12.712   0.956
 4618SOL    HW115751   7.150  12.664   0.873
 4618SOL    HW215752   7.096  12.791   0.936
 4619SOL     OW15753   3.775   7.166   6.622
 4619SOL    HW115754   3.867   7.189   6.631
 4619SOL    HW215755   3.751   7.197   6.535
 4620SOL     OW15756  13.588   0.749  10.044
 4620SOL    HW115757  13.546   0.789  10.120
 4620SOL    HW215758  13.612   0.661  10.074
 4621SOL     OW15759  10.322  14.730  10.400
 4621SOL    HW115760  10.408  14.772  10.402
 4621SOL    HW215761  10.327  14.669  10.327
 4622SOL     OW15762   0.959   9.009   2.706
 4622SOL    HW115763   0.927   9.057   2.629
 4622SOL    HW215764   0.949   8.917   2.682
 4623SOL     OW15765   1.563   5.230   8.567
 4623SOL    HW115766   1.647   5.210   8.527
 4623SOL    HW215767   1.518   5.146   8.573
 4624SOL     OW15768   8.132  14.370  11.858
 4624SOL    HW115769   8.178  14.300  11.812
 4624SOL    HW215770   8.149  14.448  11.806
 4625SOL     OW15771   4.251   9.508   3.622
 4625SOL    HW115772   4.161   9.480   3.603
 4625SOL    HW215773   4.305   9.431   3.601
 4626SOL     OW15774  14.810   9.312   8.202
 4626SOL    HW115775  14.721   9.346   8.200
 4626SOL    HW215776  14.803   9.226   8.242
 4627SOL     OW15777   6.418  12.509   2.834
 4627SOL    HW115778   6.406  12.600   2.807
 4627SOL    HW215779   6.441  12.463   2.753
 4628SOL     OW15780   2.282  11.496   9.635
 4628SOL    HW115781   2.295  11.495   9.729
 4628SOL    HW215782   2.368  11.479   9.598
 4629SOL     OW15783   8.644   0.223   3.214
 4629SOL    HW115784   8.629   0.240   3.307
 4629SOL    HW215785   8.557   0.230   3.174
 4630SOL     OW15786   2.707  14.726   2.344
 4630SOL    HW115787   2.686  14.656   2.282
 4630SOL    HW215788   2.652  14.800   2.318
 4631SOL     OW15789  13.667   7.971  14.329
 4631SOL    HW115790  13.735   7.950  14.266
 4631SOL    HW215791  13.637   8.059  14.305
 4632SOL     OW15792   5.684   9.755   2.170
 4632SOL    HW115793   5.745   9.827   2.181
 4632SOL    HW215794   5.693   9.729   2.078
 4633SOL     OW15795  10.422  14.813   5.713
 4633SOL    HW115796  10.376  14.758   5.776
 4633SOL    HW215797  10.410  14.769   5.629
 4634SOL     OW15798  13.740  13.493   8.452
 4634SOL    HW115799  13.823  13.489   8.499
 4634SOL    HW215800  13.759  13.456   8.366
 4635SOL     OW15801   0.841  14.172  12.062
 4635SOL    HW115802   0.746  14.161  12.052
 4635SOL    HW215803   0.875  14.083  12.069
 4636SOL     OW15804   7.940   2.049  12.121
 4636SOL    HW115805   7.911   2.136  12.091
 4636SOL    HW215806   8.002   2.020  12.054
 4637SOL     OW15807   7.163  13.130  12.466
 4637SOL    HW115808   7.188  13.212  12.422
 4637SOL    HW215809   7.097  13.091  12.409
 4638SOL     OW15810   4.754   8.235   5.980
 4638SOL    HW115811   4.794   8.211   6.064
 4638SOL    HW215812   4.812   8.301   5.944
 4639SOL     OW15813   8.852  12.800  14.221
 4639SOL    HW115814   8.831  12.710  14.245
 4639SOL    HW215815   8.852  12.848  14.305
 4640SOL     OW15816   5.990   7.789   6.269
 4640SOL    HW115817   5.954   7.751   6.189
 4640SOL    HW215818   6.017   7.878   6.244
 4641SOL     OW15819   7.237   2.559   0.187
 4641SOL    HW115820   7.227   2.526   0.277
 4641SOL    HW215821   7.261   2.651   0.198
 4642SOL     OW15822   7.545   9.974  11.828
 4642SOL    HW115823   7.530   9.882  11.845
 4642SOL    HW215824   7.460  10.008  11.799
 4643SOL     OW15825  10.107   7.674  11.511
 4643SOL    HW115826  10.076   7.664  11.601
 4643SOL    HW215827  10.138   7.764  11.505
 4644SOL     OW15828   0.317   8.124  11.221
 4644SOL    HW115829   0.244   8.083  11.175
 4644SOL    HW215830   0.369   8.165  11.152
 4645SOL     OW15831   5.962   3.015   7.449
 4645SOL    HW115832   5.885   3.027   7.394
 4645SOL    HW215833   6.031   3.067   7.406
 4646SOL     OW15834  13.665   5.689   2.237
 4646SOL    HW115835  13.686   5.618   2.298
 4646SOL    HW215836  13.575   5.712   2.259
 4647SOL     OW15837  11.525   5.741  13.594
 4647SOL    HW115838  11.565   5.792  13.665
 4647SOL    HW215839  11.433   5.735  13.618
 4648SOL     OW15840   5.125  13.428  12.479
 4648SOL    HW115841   5.056  13.491  12.497
 4648SOL    HW215842   5.079  13.345  12.462
 4649SOL     OW15843  12.421   6.549   8.748
 4649SOL    HW115844  12.447   6.512   8.832
 4649SOL    HW215845  12.454   6.486   8.684
 4650SOL     OW15846   4.297   0.113   7.795
 4650SOL    HW115847   4.312   0.019   7.802
 4650SOL    HW215848   4.360   0.143   7.729
 4651SOL     OW15849   7.100  13.976   3.552
 4651SOL    HW115850   7.040  14.002   3.622
 4651SOL    HW215851   7.179  13.946   3.598
 4652SOL     OW15852   0.017   3.116   8.136
 4652SOL    HW115853  14.866   3.145   8.223
 4652SOL    HW215854  14.822   3.064   8.103
 4653SOL     OW15855   4.492  14.161  12.525
 4653SOL    HW115856   4.564  14.150  12.586
 4653SOL    HW215857   4.420  14.196  12.578
 4654SOL     OW15858   9.622  10.766  14.627
 4654SOL    HW115859   9.621  10.690  14.570
 4654SOL    HW215860   9.531  10.775  14.656
 4655SOL     OW15861  13.162   5.101   2.474
 4655SOL    HW115862  13.169   5.111   2.379
 4655SOL    HW215863  13.090   5.159   2.499
 4656SOL     OW15864   4.445  14.572  11.423
 4656SOL    HW115865   4.474  14.548  11.335
 4656SOL    HW215866   4.522  14.615  11.462
 4657SOL     OW15867   1.106   8.764   5.622
 4657SOL    HW115868   1.137   8.808   5.543
 4657SOL    HW215869   1.186   8.752   5.675
 4658SOL     OW15870   2.983  13.552   9.657
 4658SOL    HW115871   2.901  13.597   9.675
 4658SOL    HW215872   3.049  13.621   9.662
 4659SOL     OW15873   4.803  14.725   3.137
 4659SOL    HW115874   4.857  14.735   3.059
 4659SOL    HW215875   4.782  14.631   3.139
 4660SOL     OW15876   5.521   3.986   2.383
 4660SOL    HW115877   5.451   4.051   2.380
 4660SOL    HW215878   5.585   4.021   2.446
 4661SOL     OW15879   2.225  10.174   8.011
 4661SOL    HW115880   2.188  10.098   8.055
 4661SOL    HW215881   2.181  10.249   8.051
 4662SOL     OW15882  12.623   4.835  12.542
 4662SOL    HW115883  12.652   4.885  12.466
 4662SOL    HW215884  12.548   4.885  12.576
 4663SOL     OW15885  11.830   6.914   7.831
 4663SOL    HW115886  11.898   6.895   7.766
 4663SOL    HW215887  11.870   6.977   7.890
 4664SOL     OW15888   9.604   7.373   0.721
 4664SOL    HW115889   9.635   7.294   0.766
 4664SOL    HW215890   9.515   7.351   0.693
 4665SOL     OW15891   7.077  13.845   6.173
 4665SOL    HW115892   7.113  13.878   6.255
 4665SOL    HW215893   7.121  13.761   6.159
 4666SOL     OW15894   8.330   3.637   4.128
 4666SOL    HW115895   8.273   3.699   4.082
 4666SOL    HW215896   8.323   3.663   4.220
 4667SOL     OW15897   7.644   9.836   7.906
 4667SOL    HW115898   7.574   9.783   7.868
 4667SOL    HW215899   7.604   9.922   7.920
 4668SOL     OW15900  10.887   0.509   8.786
 4668SOL    HW115901  10.843   0.562   8.853
 4668SOL    HW215902  10.899   0.424   8.826
 4669SOL     OW15903  10.841  12.779   1.738
 4669SOL    HW115904  10.796  12.714   1.684
 4669SOL    HW215905  10.923  12.796   1.691
 4670SOL     OW15906   1.787  11.656   0.212
 4670SOL    HW115907   1.783  11.625   0.303
 4670SOL    HW215908   1.706  11.706   0.200
 4671SOL     OW15909   5.509   4.573   6.327
 4671SOL    HW115910   5.571   4.501   6.322
 4671SOL    HW215911   5.427   4.533   6.356
 4672SOL     OW15912   3.915  10.309  12.304
 4672SOL    HW115913   3.979  10.238  12.300
 4672SOL    HW215914   3.889  10.313  12.396
 4673SOL     OW15915  13.348   5.505  12.283
 4673SOL    HW115916  13.381   5.588  12.250
 4673SOL    HW215917  13.255   5.504  12.257
 4674SOL     OW15918   4.882   8.361  13.113
 4674SOL    HW115919   4.843   8.388  13.030
 4674SOL    HW215920   4.807   8.334  13.167
 4675SOL     OW15921  10.818   4.649   4.634
 4675SOL    HW115922  10.832   4.744   4.632
 4675SOL    HW215923  10.836   4.620   4.545
 4676SOL     OW15924   0.476   9.397   4.468
 4676SOL    HW115925   0.537   9.348   4.524
 4676SOL    HW215926   0.483   9.355   4.382
 4677SOL     OW15927   1.157   2.687   1.709
 4677SOL    HW115928   1.197   2.774   1.698
 4677SOL    HW215929   1.204   2.632   1.647
 4678SOL     OW15930   3.638   7.603  11.557
 4678SOL    HW115931   3.659   7.515  11.587
 4678SOL    HW215932   3.548   7.597  11.525
 4679SOL     OW15933  11.188   5.634   3.628
 4679SOL    HW115934  11.106   5.587   3.639
 4679SOL    HW215935  11.221   5.606   3.542
 4680SOL     OW15936   9.378  14.628  13.013
 4680SOL    HW115937   9.412  14.539  13.028
 4680SOL    HW215938   9.285  14.615  12.992
 4681SOL     OW15939  10.034   1.827   1.995
 4681SOL    HW115940  10.098   1.757   1.983
 4681SOL    HW215941  10.083   1.898   2.036
 4682SOL     OW15942  14.597   6.854   8.315
 4682SOL    HW115943  14.670   6.841   8.376
 4682SOL    HW215944  14.529   6.793   8.346
 4683SOL     OW15945   3.146   2.051  13.708
 4683SOL    HW115946   3.228   2.003  13.714
 4683SOL    HW215947   3.104   2.020  13.628
 4684SOL     OW15948  11.349  10.411   5.402
 4684SOL    HW115949  11.384  10.498   5.380
 4684SOL    HW215950  11.278  10.397   5.339
 4685SOL     OW15951   3.292  14.724   8.885
 4685SOL    HW115952   3.338  14.805   8.904
 4685SOL    HW215953   3.280  14.724   8.790
 4686SOL     OW15954   7.843   3.508   5.043
 4686SOL    HW115955   7.915   3.569   5.058
 4686SOL    HW215956   7.764   3.563   5.047
 4687SOL     OW15957  11.240   0.626   2.232
 4687SOL    HW115958  11.240   0.714   2.270
 4687SOL    HW215959  11.147   0.602   2.227
 4688SOL     OW15960   2.208   1.398  13.206
 4688SOL    HW115961   2.293   1.381  13.168
 4688SOL    HW215962   2.214   1.486  13.242
 4689SOL     OW15963   7.982   7.037   7.727
 4689SOL    HW115964   7.952   7.007   7.813
 4689SOL    HW215965   8.077   7.028   7.730
 4690SOL     OW15966   7.799   4.680   9.074
 4690SOL    HW115967   7.834   4.765   9.048
 4690SOL    HW215968   7.825   4.670   9.166
 4691SOL     OW15969   1.116   2.696   0.176
 4691SOL    HW115970   1.101   2.607   0.208
 4691SOL    HW215971   1.028   2.732   0.163
 4692SOL     OW15972  10.368   6.769  11.359
 4692SOL    HW115973  10.391   6.685  11.398
 4692SOL    HW215974  10.273   6.768  11.353
 4693SOL     OW15975   8.076   0.370  13.046
 4693SOL    HW115976   8.092   0.371  12.952
 4693SOL    HW215977   8.069   0.277  13.068
 4694SOL     OW15978   4.903   8.278  10.715
 4694SOL    HW115979   4.950   8.272  10.632
 4694SOL    HW215980   4.866   8.366  10.715
 4695SOL     OW15981   7.033   1.619  13.652
 4695SOL    HW115982   7.011   1.537  13.608
 4695SOL    HW215983   7.124   1.609  13.679
 4696SOL     OW15984   2.312   3.624   1.987
 4696SOL    HW115985   2.275   3.660   1.906
 4696SOL    HW215986   2.273   3.537   1.994
 4697SOL     OW15987  12.655  14.520   8.883
 4697SOL    HW115988  12.594  14.592   8.866
 4697SOL    HW215989  12.633  14.491   8.972
 4698SOL     OW15990   7.369  14.173   9.567
 4698SOL    HW115991   7.408  14.095   9.607
 4698SOL    HW215992   7.311  14.139   9.499
 4699SOL     OW15993   4.752  13.294   9.200
 4699SOL    HW115994   4.812  13.363   9.229
 4699SOL    HW215995   4.773  13.219   9.256
 4700SOL     OW15996   4.639   5.043   4.312
 4700SOL    HW115997   4.585   4.968   4.290
 4700SOL    HW215998   4.728   5.008   4.315
 4701SOL     OW15999   2.741   9.090  13.615
 4701SOL    HW116000   2.767   9.106  13.706
 4701SOL    HW216001   2.706   9.174  13.585
 4702SOL     OW16002   0.611   3.221   2.227
 4702SOL    HW116003   0.697   3.233   2.185
 4702SOL    HW216004   0.623   3.144   2.283
 4703SOL     OW16005   1.682   2.502  11.677
 4703SOL    HW116006   1.652   2.534  11.762
 4703SOL    HW216007   1.612   2.527  11.616
 4704SOL     OW16008  10.772   1.854  12.345
 4704SOL    HW116009  10.741   1.917  12.280
 4704SOL    HW216010  10.854   1.821  12.309
 4705SOL     OW16011   3.515  13.093  14.746
 4705SOL    HW116012   3.576  13.117  14.676
 4705SOL    HW216013   3.468  13.018  14.712
 4706SOL     OW16014   8.663   5.893  13.807
 4706SOL    HW116015   8.660   5.883  13.902
 4706SOL    HW216016   8.633   5.809  13.773
 4707SOL     OW16017   4.841   1.612   7.397
 4707SOL    HW116018   4.873   1.544   7.337
 4707SOL    HW216019   4.900   1.607   7.472
 4708SOL     OW16020   2.174   4.339   8.364
 4708SOL    HW116021   2.216   4.417   8.402
 4708SOL    HW216022   2.093   4.373   8.325
 4709SOL     OW16023   9.789   9.912   2.573
 4709SOL    HW116024   9.786   9.823   2.610
 4709SOL    HW216025   9.866   9.952   2.615
 4710SOL     OW16026   2.268  13.977   3.432
 4710SOL    HW116027   2.203  14.017   3.373
 4710SOL    HW216028   2.223  13.902   3.471
 4711SOL     OW16029   6.979  12.937   6.341
 4711SOL    HW116030   7.034  12.917   6.417
 4711SOL    HW216031   6.964  12.852   6.300
 4712SOL     OW16032  10.033   3.633   8.536
 4712SOL    HW116033  10.056   3.607   8.626
 4712SOL    HW216034  10.081   3.570   8.481
 4713SOL     OW16035   8.163   2.989   5.447
 4713SOL    HW116036   8.204   2.984   5.360
 4713SOL    HW216037   8.208   3.061   5.490
 4714SOL     OW16038   9.282   2.950   9.689
 4714SOL    HW116039   9.343   2.979   9.621
 4714SOL    HW216040   9.330   2.883   9.738
 4715SOL     OW16041  13.213  12.727   1.507
 4715SOL    HW116042  13.168  12.662   1.453
 4715SOL    HW216043  13.249  12.676   1.580
 4716SOL     OW16044   6.609   3.625  14.090
 4716SOL    HW116045   6.531   3.678  14.105
 4716SOL    HW216046   6.632   3.641  13.998
 4717SOL     OW16047   5.712  13.543   5.320
 4717SOL    HW116048   5.762  13.520   5.242
 4717SOL    HW216049   5.770  13.522   5.393
 4718SOL     OW16050   2.521   5.977   1.281
 4718SOL    HW116051   2.562   6.055   1.243
 4718SOL    HW216052   2.559   5.903   1.234
 4719SOL     OW16053   0.577  10.612   7.283
 4719SOL    HW116054   0.647  10.628   7.220
 4719SOL    HW216055   0.623  10.586   7.363
 4720SOL     OW16056   1.491   9.428   5.455
 4720SOL    HW116057   1.419   9.416   5.518
 4720SOL    HW216058   1.535   9.507   5.485
 4721SOL     OW16059   1.500   8.826   4.075
 4721SOL    HW116060   1.558   8.820   3.999
 4721SOL    HW216061   1.506   8.739   4.117
 4722SOL     OW16062   3.043   1.958  11.896
 4722SOL    HW116063   2.996   1.884  11.935
 4722SOL    HW216064   3.077   2.007  11.972
 4723SOL     OW16065   1.977  11.785   4.134
 4723SOL    HW116066   1.961  11.874   4.165
 4723SOL    HW216067   1.891  11.755   4.102
 4724SOL     OW16068   7.167  13.407  12.202
 4724SOL    HW116069   7.077  13.383  12.223
 4724SOL    HW216070   7.190  13.474  12.266
 4725SOL     OW16071  10.145  12.759   0.314
 4725SOL    HW116072  10.172  12.668   0.299
 4725SOL    HW216073  10.135  12.796   0.226
 4726SOL     OW16074   8.534   2.141   1.302
 4726SOL    HW116075   8.554   2.224   1.258
 4726SOL    HW216076   8.472   2.097   1.244
 4727SOL     OW16077   7.412   7.098   5.050
 4727SOL    HW116078   7.433   7.005   5.057
 4727SOL    HW216079   7.340   7.111   5.113
 4728SOL     OW16080   5.959   0.054   3.230
 4728SOL    HW116081   6.025   0.022   3.169
 4728SOL    HW216082   5.938   0.142   3.199
 4729SOL     OW16083   2.262   1.550  14.324
 4729SOL    HW116084   2.305   1.623  14.279
 4729SOL    HW216085   2.332   1.511  14.377
 4730SOL     OW16086   4.561  10.421   1.201
 4730SOL    HW116087   4.521  10.351   1.150
 4730SOL    HW216088   4.489  10.480   1.223
 4731SOL     OW16089   4.918  13.879   1.942
 4731SOL    HW116090   4.939  13.809   2.004
 4731SOL    HW216091   4.970  13.954   1.970
 4732SOL     OW16092   7.827   2.259   8.241
 4732SOL    HW116093   7.845   2.317   8.315
 4732SOL    HW216094   7.732   2.261   8.232
 4733SOL     OW16095   8.121   6.754   5.182
 4733SOL    HW116096   8.040   6.784   5.223
 4733SOL    HW216097   8.128   6.662   5.207
 4734SOL     OW16098  12.142   0.895   9.343
 4734SOL    HW116099  12.225   0.894   9.294
 4734SOL    HW216100  12.110   0.985   9.333
 4735SOL     OW16101   5.320   0.382  11.010
 4735SOL    HW116102   5.233   0.341  11.013
 4735SOL    HW216103   5.375   0.326  11.065
 4736SOL     OW16104  11.255   3.011   0.642
 4736SOL    HW116105  11.162   3.012   0.620
 4736SOL    HW216106  11.288   3.097   0.614
 4737SOL     OW16107   0.198   0.419   1.038
 4737SOL    HW116108   0.130   0.414   0.970
 4737SOL    HW216109   0.280   0.407   0.990
 4738SOL     OW16110   2.874   0.692   6.510
 4738SOL    HW116111   2.800   0.732   6.466
 4738SOL    HW216112   2.943   0.758   6.505
 4739SOL     OW16113  13.039   0.498   8.454
 4739SOL    HW116114  13.106   0.439   8.422
 4739SOL    HW216115  12.974   0.441   8.495
 4740SOL     OW16116  13.012  12.318  14.847
 4740SOL    HW116117  13.051  12.344  14.763
 4740SOL    HW216118  12.928  12.280  14.823
 4741SOL     OW16119   4.277   4.367  14.804
 4741SOL    HW116120   4.370   4.349  14.806
 4741SOL    HW216121   4.269   4.458  14.834
 4742SOL     OW16122   2.001   5.753   8.997
 4742SOL    HW116123   2.005   5.747   8.901
 4742SOL    HW216124   2.068   5.817   9.020
 4743SOL     OW16125  14.785   3.976  12.150
 4743SOL    HW116126  14.817   4.045  12.208
 4743SOL    HW216127  14.698   4.004  12.125
 4744SOL     OW16128   1.974   1.192   9.563
 4744SOL    HW116129   1.900   1.164   9.509
 4744SOL    HW216130   1.999   1.114   9.613
 4745SOL     OW16131   5.628  13.045   1.067
 4745SOL    HW116132   5.669  13.128   1.091
 4745SOL    HW216133   5.555  13.035   1.129
 4746SOL     OW16134   9.355   8.682  14.505
 4746SOL    HW116135   9.431   8.627  14.527
 4746SOL    HW216136   9.288   8.620  14.478
 4747SOL     OW16137   4.429  10.145  14.798
 4747SOL    HW116138   4.373  10.123  14.872
 4747SOL    HW216139   4.411  10.076  14.733
 4748SOL     OW16140   5.260   6.000   7.231
 4748SOL    HW116141   5.304   6.068   7.281
 4748SOL    HW216142   5.330   5.948   7.193
 4749SOL     OW16143   1.849   4.636   0.807
 4749SOL    HW116144   1.902   4.587   0.745
 4749SOL    HW216145   1.855   4.727   0.777
 4750SOL     OW16146   6.798   5.457   4.007
 4750SOL    HW116147   6.797   5.363   3.991
 4750SOL    HW216148   6.762   5.467   4.095
 4751SOL     OW16149  10.087   7.515   8.374
 4751SOL    HW116150   9.997   7.510   8.407
 4751SOL    HW216151  10.090   7.449   8.305
 4752SOL     OW16152   9.319  13.501  10.032
 4752SOL    HW116153   9.398  13.447  10.039
 4752SOL    HW216154   9.351  13.590  10.018
 4753SOL     OW16155   1.231   0.950   0.477
 4753SOL    HW116156   1.185   0.927   0.396
 4753SOL    HW216157   1.167   1.000   0.528
 4754SOL     OW16158   1.712  13.250   0.351
 4754SOL    HW116159   1.641  13.186   0.340
 4754SOL    HW216160   1.678  13.331   0.312
 4755SOL     OW16161   3.643  12.328  14.253
 4755SOL    HW116162   3.581  12.365  14.191
 4755SOL    HW216163   3.709  12.286  14.199
 4756SOL     OW16164   5.588   5.442  12.625
 4756SOL    HW116165   5.519   5.392  12.581
 4756SOL    HW216166   5.554   5.531  12.629
 4757SOL     OW16167   7.392   2.250   2.332
 4757SOL    HW116168   7.304   2.246   2.368
 4757SOL    HW216169   7.398   2.174   2.274
 4758SOL     OW16170   2.485   3.920   0.078
 4758SOL    HW116171   2.448   3.867   0.149
 4758SOL    HW216172   2.503   3.857   0.008
 4759SOL     OW16173   0.603  13.802   5.652
 4759SOL    HW116174   0.570  13.890   5.669
 4759SOL    HW216175   0.547  13.745   5.704
 4760SOL     OW16176   0.644   2.330   2.674
 4760SOL    HW116177   0.640   2.425   2.662
 4760SOL    HW216178   0.554   2.300   2.663
 4761SOL     OW16179   7.455   9.103  11.443
 4761SOL    HW116180   7.384   9.039  11.444
 4761SOL    HW216181   7.528   9.059  11.486
 4762SOL     OW16182   6.438  11.064   6.781
 4762SOL    HW116183   6.470  11.064   6.691
 4762SOL    HW216184   6.515  11.040   6.833
 4763SOL     OW16185   5.695   1.672  11.378
 4763SOL    HW116186   5.722   1.653  11.289
 4763SOL    HW216187   5.600   1.664  11.377
 4764SOL     OW16188   3.393  13.826   3.318
 4764SOL    HW116189   3.427  13.906   3.278
 4764SOL    HW216190   3.308  13.851   3.353
 4765SOL     OW16191   9.465  13.899   8.635
 4765SOL    HW116192   9.454  13.887   8.729
 4765SOL    HW216193   9.559  13.894   8.621
 4766SOL     OW16194   6.716  12.104   4.083
 4766SOL    HW116195   6.797  12.057   4.104
 4766SOL    HW216196   6.648  12.037   4.088
 4767SOL     OW16197   1.175   8.298   4.838
 4767SOL    HW116198   1.258   8.255   4.860
 4767SOL    HW216199   1.115   8.227   4.816
 4768SOL     OW16200  10.846   9.544   3.659
 4768SOL    HW116201  10.893   9.460   3.656
 4768SOL    HW216202  10.838   9.564   3.752
 4769SOL     OW16203  13.595  10.198   7.446
 4769SOL    HW116204  13.591  10.199   7.350
 4769SOL    HW216205  13.633  10.113   7.468
 4770SOL     OW16206   1.796   4.448   4.469
 4770SOL    HW116207   1.752   4.363   4.462
 4770SOL    HW216208   1.886   4.427   4.494
 4771SOL     OW16209   1.887   1.303   5.075
 4771SOL    HW116210   1.883   1.210   5.096
 4771SOL    HW216211   1.827   1.344   5.136
 4772SOL     OW16212  10.936  10.382  11.594
 4772SOL    HW116213  10.849  10.385  11.634
 4772SOL    HW216214  10.984  10.317  11.646
 4773SOL     OW16215   2.696   8.709   5.025
 4773SOL    HW116216   2.720   8.618   5.041
 4773SOL    HW216217   2.654   8.738   5.106
 4774SOL     OW16218   0.516   3.102   3.869
 4774SOL    HW116219   0.556   3.031   3.819
 4774SOL    HW216220   0.422   3.094   3.851
 4775SOL     OW16221   2.178  14.070   5.130
 4775SOL    HW116222   2.141  14.049   5.216
 4775SOL    HW216223   2.225  14.152   5.144
 4776SOL     OW16224  11.109  10.699  12.273
 4776SOL    HW116225  11.100  10.723  12.366
 4776SOL    HW216226  11.191  10.739  12.246
 4777SOL     OW16227   2.315   8.358   5.156
 4777SOL    HW116228   2.407   8.335   5.149
 4777SOL    HW216229   2.312   8.452   5.145
 4778SOL     OW16230   8.785   2.151   1.798
 4778SOL    HW116231   8.741   2.082   1.749
 4778SOL    HW216232   8.810   2.216   1.733
 4779SOL     OW16233  12.570  12.184  13.023
 4779SOL    HW116234  12.654  12.211  13.060
 4779SOL    HW216235  12.593  12.140  12.941
 4780SOL     OW16236  14.155  11.499   9.353
 4780SOL    HW116237  14.166  11.498   9.258
 4780SOL    HW216238  14.082  11.438   9.368
 4781SOL     OW16239  11.717   1.384  13.892
 4781SOL    HW116240  11.665   1.305  13.879
 4781SOL    HW216241  11.803   1.362  13.855
 4782SOL     OW16242   6.090  13.535   5.354
 4782SOL    HW116243   6.021  13.526   5.288
 4782SOL    HW216244   6.167  13.496   5.314
 4783SOL     OW16245  11.047   7.014   0.744
 4783SOL    HW116246  11.124   6.969   0.712
 4783SOL    HW216247  11.003   6.951   0.801
 4784SOL     OW16248   6.368   5.731   8.444
 4784SOL    HW116249   6.443   5.747   8.386
 4784SOL    HW216250   6.386   5.645   8.484
 4785SOL     OW16251   8.430   3.514  13.950
 4785SOL    HW116252   8.440   3.595  13.901
 4785SOL    HW216253   8.517   3.475  13.950
 4786SOL     OW16254   9.776   2.562   3.682
 4786SOL    HW116255   9.809   2.617   3.612
 4786SOL    HW216256   9.775   2.619   3.759
 4787SOL     OW16257   1.753   3.206   5.494
 4787SOL    HW116258   1.820   3.149   5.457
 4787SOL    HW216259   1.680   3.200   5.433
 4788SOL     OW16260   7.641  13.013   3.751
 4788SOL    HW116261   7.569  13.056   3.705
 4788SOL    HW216262   7.598  12.949   3.808
 4789SOL     OW16263  10.902   5.790   0.517
 4789SOL    HW116264  10.908   5.816   0.609
 4789SOL    HW216265  10.911   5.695   0.519
 4790SOL     OW16266   4.421   5.696   4.437
 4790SOL    HW116267   4.338   5.694   4.390
 4790SOL    HW216268   4.464   5.776   4.407
 4791SOL     OW16269   7.848   2.497  12.348
 4791SOL    HW116270   7.785   2.555  12.306
 4791SOL    HW216271   7.796   2.448  12.412
 4792SOL     OW16272   0.787   9.858   2.604
 4792SOL    HW116273   0.811   9.792   2.540
 4792SOL    HW216274   0.853   9.852   2.673
 4793SOL     OW16275  10.318   9.169   5.691
 4793SOL    HW116276  10.301   9.083   5.652
 4793SOL    HW216277  10.409   9.188   5.670
 4794SOL     OW16278  11.686   6.912   3.959
 4794SOL    HW116279  11.656   6.955   3.879
 4794SOL    HW216280  11.755   6.853   3.930
 4795SOL     OW16281  14.873   2.429   7.073
 4795SOL    HW116282  14.824   2.351   7.046
 4795SOL    HW216283   0.070   2.394   7.122
 4796SOL     OW16284   1.627   2.299  12.937
 4796SOL    HW116285   1.566   2.344  12.878
 4796SOL    HW216286   1.710   2.299  12.889
 4797SOL     OW16287   2.345   7.141  12.421
 4797SOL    HW116288   2.261   7.107  12.451
 4797SOL    HW216289   2.360   7.219  12.475
 4798SOL     OW16290   9.918  10.153   4.484
 4798SOL    HW116291   9.911  10.107   4.400
 4798SOL    HW216292   9.828  10.159   4.516
 4799SOL     OW16293   5.192   9.163  12.552
 4799SOL    HW116294   5.117   9.135  12.500
 4799SOL    HW216295   5.253   9.199  12.488
 4800SOL     OW16296   7.643   0.513   8.960
 4800SOL    HW116297   7.690   0.487   9.040
 4800SOL    HW216298   7.551   0.509   8.985
 4801SOL     OW16299   2.013   4.107   6.063
 4801SOL    HW116300   1.926   4.147   6.065
 4801SOL    HW216301   2.012   4.050   5.986
 4802SOL     OW16302   1.912  10.828   9.872
 4802SOL    HW116303   1.947  10.800   9.787
 4802SOL    HW216304   1.955  10.771   9.935
 4803SOL     OW16305   5.041  11.207   9.566
 4803SOL    HW116306   5.128  11.234   9.593
 4803SOL    HW216307   4.993  11.289   9.553
 4804SOL     OW16308   9.631  10.873   4.921
 4804SOL    HW116309   9.702  10.931   4.949
 4804SOL    HW216310   9.675  10.797   4.883
 4805SOL     OW16311  14.156   3.107  14.420
 4805SOL    HW116312  14.094   3.166  14.464
 4805SOL    HW216313  14.241   3.152  14.427
 4806SOL     OW16314   4.828   2.583   1.518
 4806SOL    HW116315   4.834   2.596   1.613
 4806SOL    HW216316   4.919   2.581   1.488
 4807SOL     OW16317   6.491   4.134  11.807
 4807SOL    HW116318   6.566   4.151  11.750
 4807SOL    HW216319   6.507   4.188  11.885
 4808SOL     OW16320   4.182   9.643  10.287
 4808SOL    HW116321   4.189   9.607  10.375
 4808SOL    HW216322   4.267   9.685  10.272
 4809SOL     OW16323   8.691   4.775   1.851
 4809SOL    HW116324   8.731   4.842   1.906
 4809SOL    HW216325   8.673   4.819   1.768
 4810SOL     OW16326  14.500  10.016  11.260
 4810SOL    HW116327  14.532   9.933  11.297
 4810SOL    HW216328  14.434  10.045  11.322
 4811SOL     OW16329   1.166   5.403  10.946
 4811SOL    HW116330   1.210   5.348  11.011
 4811SOL    HW216331   1.102   5.454  10.996
 4812SOL     OW16332   1.674  12.265   6.630
 4812SOL    HW116333   1.633  12.258   6.544
 4812SOL    HW216334   1.709  12.354   6.633
 4813SOL     OW16335   4.136   2.503   3.590
 4813SOL    HW116336   4.124   2.418   3.548
 4813SOL    HW216337   4.081   2.562   3.538
 4814SOL     OW16338   5.439  10.284  10.482
 4814SOL    HW116339   5.357  10.327  10.508
 4814SOL    HW216340   5.487  10.273  10.564
 4815SOL     OW16341   9.970   6.712   6.494
 4815SOL    HW116342  10.062   6.709   6.519
 4815SOL    HW216343   9.962   6.789   6.439
 4816SOL     OW16344   1.173  10.977  13.845
 4816SOL    HW116345   1.148  10.996  13.935
 4816SOL    HW216346   1.152  10.884  13.834
 4817SOL     OW16347   0.383   4.020   1.961
 4817SOL    HW116348   0.447   4.087   1.983
 4817SOL    HW216349   0.317   4.067   1.909
 4818SOL     OW16350   4.960   8.487   0.078
 4818SOL    HW116351   5.044   8.447   0.101
 4818SOL    HW216352   4.966   8.503  14.862
 4819SOL     OW16353  12.896   1.437  12.518
 4819SOL    HW116354  12.958   1.368  12.541
 4819SOL    HW216355  12.823   1.424  12.579
 4820SOL     OW16356   9.750  12.165   3.071
 4820SOL    HW116357   9.758  12.080   3.115
 4820SOL    HW216358   9.739  12.142   2.978
 4821SOL     OW16359  11.865   1.658   9.599
 4821SOL    HW116360  11.881   1.705   9.681
 4821SOL    HW216361  11.770   1.664   9.586
 4822SOL     OW16362   3.363  11.736   0.623
 4822SOL    HW116363   3.312  11.770   0.549
 4822SOL    HW216364   3.298  11.711   0.688
 4823SOL     OW16365   4.531   1.840   1.607
 4823SOL    HW116366   4.469   1.880   1.669
 4823SOL    HW216367   4.617   1.866   1.639
 4824SOL     OW16368   2.767   5.730  13.046
 4824SOL    HW116369   2.736   5.703  12.959
 4824SOL    HW216370   2.699   5.698  13.105
 4825SOL     OW16371   2.240  13.017   6.658
 4825SOL    HW116372   2.189  13.078   6.605
 4825SOL    HW216373   2.190  13.010   6.740
 4826SOL     OW16374   2.241   6.886   9.963
 4826SOL    HW116375   2.188   6.930  10.030
 4826SOL    HW216376   2.208   6.796   9.962
 4827SOL     OW16377   3.281   4.065  13.433
 4827SOL    HW116378   3.305   4.151  13.465
 4827SOL    HW216379   3.318   4.060  13.345
 4828SOL     OW16380  11.007   2.841   1.698
 4828SOL    HW116381  11.054   2.866   1.777
 4828SOL    HW216382  11.068   2.786   1.649
 4829SOL     OW16383  14.736  11.849  10.943
 4829SOL    HW116384  14.805  11.798  10.985
 4829SOL    HW216385  14.655  11.805  10.967
 4830SOL     OW16386  12.447   2.386  11.751
 4830SOL    HW116387  12.444   2.469  11.799
 4830SOL    HW216388  12.537   2.355  11.761
 4831SOL     OW16389   7.317   1.169  11.401
 4831SOL    HW116390   7.371   1.098  11.367
 4831SOL    HW216391   7.379   1.239  11.423
 4832SOL     OW16392   9.111  11.841   6.498
 4832SOL    HW116393   9.020  11.847   6.530
 4832SOL    HW216394   9.102  11.829   6.404
 4833SOL     OW16395  14.283   2.292  13.273
 4833SOL    HW116396  14.216   2.258  13.333
 4833SOL    HW216397  14.235   2.310  13.192
 4834SOL     OW16398   8.546   9.084   6.676
 4834SOL    HW116399   8.640   9.064   6.674
 4834SOL    HW216400   8.539   9.171   6.637
 4835SOL     OW16401   5.990  10.289  13.076
 4835SOL    HW116402   6.026  10.336  13.151
 4835SOL    HW216403   6.042  10.320  13.002
 4836SOL     OW16404  13.612  13.058   2.335
 4836SOL    HW116405  13.639  13.148   2.317
 4836SOL    HW216406  13.655  13.006   2.267
 4837SOL     OW16407   7.250   1.253  14.291
 4837SOL    HW116408   7.267   1.284  14.380
 4837SOL    HW216409   7.224   1.331  14.242
 4838SOL     OW16410   3.410   7.576   8.058
 4838SOL    HW116411   3.422   7.548   7.967
 4838SOL    HW216412   3.331   7.630   8.057
 4839SOL     OW16413  10.077   3.529  13.446
 4839SOL    HW116414  10.111   3.603  13.396
 4839SOL    HW216415  10.024   3.480  13.383
 4840SOL     OW16416   7.518   7.537   1.341
 4840SOL    HW116417   7.468   7.500   1.414
 4840SOL    HW216418   7.455   7.541   1.269
 4841SOL     OW16419   6.526   8.671  14.348
 4841SOL    HW116420   6.527   8.589  14.299
 4841SOL    HW216421   6.616   8.682  14.378
 4842SOL     OW16422  10.575   2.255   1.997
 4842SOL    HW116423  10.609   2.330   1.948
 4842SOL    HW216424  10.622   2.180   1.960
 4843SOL     OW16425   0.761   9.849   6.433
 4843SOL    HW116426   0.698   9.784   6.404
 4843SOL    HW216427   0.713   9.905   6.493
 4844SOL     OW16428   8.148   4.784   2.168
 4844SOL    HW116429   8.137   4.774   2.073
 4844SOL    HW216430   8.215   4.852   2.177
 4845SOL     OW16431  13.980  12.860   4.717
 4845SOL    HW116432  14.036  12.812   4.777
 4845SOL    HW216433  13.951  12.795   4.653
 4846SOL     OW16434   5.666  14.001  13.927
 4846SOL    HW116435   5.667  13.981  13.833
 4846SOL    HW216436   5.600  13.942  13.963
 4847SOL     OW16437   2.928   1.994   8.032
 4847SOL    HW116438   3.014   2.035   8.040
 4847SOL    HW216439   2.888   2.005   8.118
 4848SOL     OW16440   8.518   3.912   4.317
 4848SOL    HW116441   8.557   3.997   4.339
 4848SOL    HW216442   8.546   3.854   4.387
 4849SOL     OW16443  14.522   0.627  11.109
 4849SOL    HW116444  14.564   0.644  11.025
 4849SOL    HW216445  14.429   0.619  11.088
 4850SOL     OW16446  10.248  13.445   4.288
 4850SOL    HW116447  10.196  13.364   4.292
 4850SOL    HW216448  10.201  13.506   4.345
 4851SOL     OW16449  11.083  14.596   0.397
 4851SOL    HW116450  11.012  14.534   0.379
 4851SOL    HW216451  11.154  14.567   0.340
 4852SOL     OW16452   1.909   7.116   1.653
 4852SOL    HW116453   1.848   7.062   1.703
 4852SOL    HW216454   1.853   7.167   1.594
 4853SOL     OW16455  13.838   1.607   5.092
 4853SOL    HW116456  13.836   1.641   5.182
 4853SOL    HW216457  13.883   1.523   5.099
 4854SOL     OW16458   2.391   8.141   6.278
 4854SOL    HW116459   2.302   8.123   6.249
 4854SOL    HW216460   2.397   8.099   6.364
 4855SOL     OW16461   9.552   5.092   5.213
 4855SOL    HW116462   9.607   5.160   5.174
 4855SOL    HW216463   9.497   5.061   5.140
 4856SOL     OW16464  14.554   2.053  13.104
 4856SOL    HW116465  14.496   2.053  13.180
 4856SOL    HW216466  14.606   2.132  13.114
 4857SOL     OW16467  10.918   3.412   7.107
 4857SOL    HW116468  10.900   3.436   7.016
 4857SOL    HW216469  11.013   3.420   7.115
 4858SOL     OW16470   2.758  13.600   7.120
 4858SOL    HW116471   2.836  13.566   7.076
 4858SOL    HW216472   2.689  13.594   7.054
 4859SOL     OW16473   5.288   1.165   3.083
 4859SOL    HW116474   5.333   1.217   3.016
 4859SOL    HW216475   5.290   1.075   3.049
 4860SOL     OW16476   3.179  10.837  11.028
 4860SOL    HW116477   3.207  10.797  10.946
 4860SOL    HW216478   3.219  10.924  11.027
 4861SOL     OW16479   8.907   8.977   5.823
 4861SOL    HW116480   8.935   9.059   5.782
 4861SOL    HW216481   8.812   8.974   5.808
 4862SOL     OW16482   7.167   1.757  11.837
 4862SOL    HW116483   7.198   1.668  11.821
 4862SOL    HW216484   7.077   1.746  11.867
 4863SOL     OW16485  14.765   3.654  13.651
 4863SOL    HW116486  14.792   3.728  13.706
 4863SOL    HW216487  14.717   3.695  13.579
 4864SOL     OW16488  14.751  13.668   3.062
 4864SOL    HW116489  14.744  13.592   3.120
 4864SOL    HW216490  14.668  13.715   3.075
 4865SOL     OW16491   7.767   5.299   2.497
 4865SOL    HW116492   7.695   5.360   2.515
 4865SOL    HW216493   7.815   5.294   2.579
 4866SOL     OW16494   5.312  11.597   0.902
 4866SOL    HW116495   5.255  11.535   0.857
 4866SOL    HW216496   5.273  11.607   0.989
 4867SOL     OW16497   0.558   1.250   6.406
 4867SOL    HW116498   0.593   1.168   6.440
 4867SOL    HW216499   0.503   1.224   6.332
 4868SOL     OW16500   8.467  11.568   3.839
 4868SOL    HW116501   8.471  11.589   3.932
 4868SOL    HW216502   8.537  11.505   3.825
 4869SOL     OW16503  13.077  12.306   3.319
 4869SOL    HW116504  12.997  12.311   3.266
 4869SOL    HW216505  13.061  12.366   3.392
 4870SOL     OW16506  10.720   3.880  11.141
 4870SOL    HW116507  10.731   3.971  11.169
 4870SOL    HW216508  10.771   3.873  11.061
 4871SOL     OW16509  11.937  14.305   3.101
 4871SOL    HW116510  11.996  14.352   3.042
 4871SOL    HW216511  11.986  14.299   3.184
 4872SOL     OW16512   9.329  12.648  12.748
 4872SOL    HW116513   9.400  12.634  12.811
 4872SOL    HW216514   9.289  12.730  12.777
 4873SOL     OW16515   1.744  10.604   2.038
 4873SOL    HW116516   1.771  10.577   2.126
 4873SOL    HW216517   1.720  10.523   1.994
 4874SOL     OW16518  11.225   6.173   1.619
 4874SOL    HW116519  11.196   6.240   1.682
 4874SOL    HW216520  11.282   6.116   1.671
 4875SOL     OW16521   6.212  14.735  11.772
 4875SOL    HW116522   6.204  14.648  11.811
 4875SOL    HW216523   6.162  14.792  11.830
 4876SOL     OW16524  12.230  13.974   4.334
 4876SOL    HW116525  12.195  14.042   4.276
 4876SOL    HW216526  12.223  14.012   4.422
 4877SOL     OW16527  14.153  12.322   2.948
 4877SOL    HW116528  14.182  12.356   2.863
 4877SOL    HW216529  14.213  12.360   3.011
 4878SOL     OW16530  12.977   7.368   3.539
 4878SOL    HW116531  12.940   7.342   3.455
 4878SOL    HW216532  12.995   7.462   3.529
 4879SOL     OW16533   7.705   0.743   3.052
 4879SOL    HW116534   7.698   0.658   3.096
 4879SOL    HW216535   7.712   0.721   2.959
 4880SOL     OW16536  13.124   2.030  10.923
 4880SOL    HW116537  13.131   2.102  10.985
 4880SOL    HW216538  13.031   2.028  10.898
 4881SOL     OW16539   0.049  10.379   5.966
 4881SOL    HW116540  14.863  10.313   5.939
 4881SOL    HW216541  14.873  10.455   5.988
 4882SOL     OW16542   3.280  12.431   9.961
 4882SOL    HW116543   3.270  12.484  10.040
 4882SOL    HW216544   3.282  12.341   9.994
 4883SOL     OW16545   3.959   6.674   3.586
 4883SOL    HW116546   4.037   6.714   3.624
 4883SOL    HW216547   3.988   6.641   3.501
 4884SOL     OW16548   1.690   8.700   2.342
 4884SOL    HW116549   1.769   8.717   2.393
 4884SOL    HW216550   1.720   8.694   2.251
 4885SOL     OW16551   9.081   3.740   7.718
 4885SOL    HW116552   9.041   3.794   7.651
 4885SOL    HW216553   9.047   3.775   7.801
 4886SOL     OW16554   6.362   1.974  12.716
 4886SOL    HW116555   6.300   1.937  12.778
 4886SOL    HW216556   6.353   2.069  12.728
 4887SOL     OW16557   5.691   1.836  12.589
 4887SOL    HW116558   5.671   1.814  12.680
 4887SOL    HW216559   5.779   1.875  12.593
 4888SOL     OW16560  10.892   6.074  14.324
 4888SOL    HW116561  10.831   6.087  14.397
 4888SOL    HW216562  10.949   6.150  14.326
 4889SOL     OW16563   0.375  14.817  10.645
 4889SOL    HW116564   0.404  14.864  10.723
 4889SOL    HW216565   0.429  14.852  10.574
 4890SOL     OW16566   8.144  12.667   2.918
 4890SOL    HW116567   8.060  12.698   2.883
 4890SOL    HW216568   8.190  12.632   2.842
 4891SOL     OW16569   6.009   2.452  10.428
 4891SOL    HW116570   6.068   2.380  10.447
 4891SOL    HW216571   5.932   2.411  10.388
 4892SOL     OW16572  10.923   2.406   3.916
 4892SOL    HW116573  10.945   2.485   3.966
 4892SOL    HW216574  10.961   2.334   3.967
 4893SOL     OW16575   1.139   1.409  13.869
 4893SOL    HW116576   1.088   1.485  13.839
 4893SOL    HW216577   1.121   1.404  13.963
 4894SOL     OW16578   2.323  14.063   7.810
 4894SOL    HW116579   2.328  14.141   7.866
 4894SOL    HW216580   2.296  13.993   7.868
 4895SOL     OW16581   1.198   7.030   5.897
 4895SOL    HW116582   1.198   6.972   5.973
 4895SOL    HW216583   1.289   7.031   5.867
 4896SOL     OW16584  14.732   3.828  13.180
 4896SOL    HW116585  14.764   3.743  13.210
 4896SOL    HW216586  14.753   3.888  13.251
 4897SOL     OW16587   9.045   4.984  13.754
 4897SOL    HW116588   9.083   5.024  13.832
 4897SOL    HW216589   8.953   5.011  13.756
 4898SOL     OW16590   0.842  14.167   9.628
 4898SOL    HW116591   0.922  14.115   9.624
 4898SOL    HW216592   0.824  14.177   9.721
 4899SOL     OW16593  11.946  10.305   4.902
 4899SOL    HW116594  11.934  10.386   4.852
 4899SOL    HW216595  11.932  10.331   4.993
 4900SOL     OW16596   2.655   6.866  11.182
 4900SOL    HW116597   2.695   6.826  11.105
 4900SOL    HW216598   2.693   6.819  11.256
 4901SOL     OW16599   1.495  13.529   1.699
 4901SOL    HW116600   1.459  13.537   1.787
 4901SOL    HW216601   1.479  13.438   1.674
 4902SOL     OW16602   9.820  11.960   4.634
 4902SOL    HW116603   9.887  11.900   4.666
 4902SOL    HW216604   9.853  11.990   4.549
 4903SOL     OW16605   6.545  14.356  10.547
 4903SOL    HW116606   6.592  14.288  10.499
 4903SOL    HW216607   6.524  14.422  10.480
 4904SOL     OW16608  10.809   5.001   0.439
 4904SOL    HW116609  10.834   5.072   0.381
 4904SOL    HW216610  10.726   4.969   0.403
 4905SOL     OW16611   2.212   8.118  13.472
 4905SOL    HW116612   2.198   8.151  13.383
 4905SOL    HW216613   2.216   8.023  13.462
 4906SOL     OW16614   1.659   9.521   8.315
 4906SOL    HW116615   1.593   9.506   8.248
 4906SOL    HW216616   1.734   9.469   8.287
 4907SOL     OW16617   2.345   4.608   9.483
 4907SOL    HW116618   2.358   4.514   9.497
 4907SOL    HW216619   2.406   4.650   9.544
 4908SOL     OW16620   4.746   7.474   7.131
 4908SOL    HW116621   4.783   7.416   7.198
 4908SOL    HW216622   4.736   7.558   7.176
 4909SOL     OW16623   5.850  13.300   5.452
 4909SOL    HW116624   5.770  13.250   5.467
 4909SOL    HW216625   5.892  13.258   5.377
 4910SOL     OW16626  11.329   9.188   8.770
 4910SOL    HW116627  11.366   9.124   8.709
 4910SOL    HW216628  11.315   9.139   8.851
 4911SOL     OW16629   7.187   7.375   3.176
 4911SOL    HW116630   7.109   7.346   3.224
 4911SOL    HW216631   7.261   7.348   3.230
 4912SOL     OW16632   2.268  14.063  13.167
 4912SOL    HW116633   2.295  13.997  13.231
 4912SOL    HW216634   2.203  14.117  13.214
 4913SOL     OW16635   8.161   0.868  11.594
 4913SOL    HW116636   8.084   0.846  11.542
 4913SOL    HW216637   8.168   0.799  11.659
 4914SOL     OW16638  13.713   6.591   9.958
 4914SOL    HW116639  13.668   6.544  10.028
 4914SOL    HW216640  13.643   6.613   9.896
 4915SOL     OW16641   0.645  14.409  10.002
 4915SOL    HW116642   0.591  14.358   9.942
 4915SOL    HW216643   0.591  14.420  10.080
 4916SOL     OW16644  13.672   6.193  11.196
 4916SOL    HW116645  13.581   6.181  11.168
 4916SOL    HW216646  13.675   6.283  11.229
 4917SOL     OW16647   4.602   8.472   4.971
 4917SOL    HW116648   4.608   8.399   4.911
 4917SOL    HW216649   4.573   8.433   5.054
 4918SOL     OW16650   1.814  12.482   5.327
 4918SOL    HW116651   1.733  12.433   5.313
 4918SOL    HW216652   1.799  12.530   5.408
 4919SOL     OW16653   4.444   1.107  11.302
 4919SOL    HW116654   4.369   1.163  11.317
 4919SOL    HW216655   4.520   1.162  11.322
 4920SOL     OW16656   1.008   8.865  11.431
 4920SOL    HW116657   1.103   8.854  11.438
 4920SOL    HW216658   0.973   8.776  11.439
 4921SOL     OW16659   3.732  12.424  13.351
 4921SOL    HW116660   3.667  12.406  13.419
 4921SOL    HW216661   3.805  12.366  13.371
 4922SOL     OW16662   2.547   1.688  12.667
 4922SOL    HW116663   2.630   1.655  12.699
 4922SOL    HW216664   2.555   1.686  12.572
 4923SOL     OW16665  13.013   4.976   1.878
 4923SOL    HW116666  12.979   5.065   1.873
 4923SOL    HW216667  12.965   4.935   1.949
 4924SOL     OW16668   3.098   0.966   3.853
 4924SOL    HW116669   3.049   0.974   3.772
 4924SOL    HW216670   3.086   1.050   3.897
 4925SOL     OW16671  12.100   2.064  12.612
 4925SOL    HW116672  12.011   2.034  12.595
 4925SOL    HW216673  12.123   2.116  12.535
 4926SOL     OW16674   4.697  13.777   1.709
 4926SOL    HW116675   4.707  13.713   1.779
 4926SOL    HW216676   4.697  13.862   1.753
 4927SOL     OW16677   6.489   5.858  12.518
 4927SOL    HW116678   6.469   5.848  12.612
 4927SOL    HW216679   6.580   5.832  12.510
 4928SOL     OW16680  10.781  13.217   8.224
 4928SOL    HW116681  10.855  13.159   8.202
 4928SOL    HW216682  10.733  13.227   8.142
 4929SOL     OW16683   2.895   8.747  12.920
 4929SOL    HW116684   2.932   8.807  12.984
 4929SOL    HW216685   2.818   8.710  12.964
 4930SOL     OW16686   7.002   1.056  11.984
 4930SOL    HW116687   6.978   0.969  12.018
 4930SOL    HW216688   6.987   1.050  11.890
 4931SOL     OW16689  10.473  13.379   1.286
 4931SOL    HW116690  10.474  13.313   1.355
 4931SOL    HW216691  10.455  13.330   1.206
 4932SOL     OW16692  11.075   7.148   3.343
 4932SOL    HW116693  10.984   7.171   3.365
 4932SOL    HW216694  11.073   7.132   3.249
 4933SOL     OW16695   2.529  10.691   5.316
 4933SOL    HW116696   2.465  10.690   5.244
 4933SOL    HW216697   2.611  10.663   5.275
 4934SOL     OW16698   3.729  11.548   2.153
 4934SOL    HW116699   3.650  11.569   2.102
 4934SOL    HW216700   3.718  11.455   2.176
 4935SOL     OW16701  13.760  13.387  12.507
 4935SOL    HW116702  13.784  13.336  12.584
 4935SOL    HW216703  13.835  13.444  12.492
 4936SOL     OW16704  13.207   0.588   0.865
 4936SOL    HW116705  13.268   0.647   0.821
 4936SOL    HW216706  13.122   0.630   0.857
 4937SOL     OW16707   6.692   7.224  11.438
 4937SOL    HW116708   6.703   7.131  11.417
 4937SOL    HW216709   6.601   7.231  11.466
 4938SOL     OW16710   1.251   1.801   2.711
 4938SOL    HW116711   1.196   1.730   2.745
 4938SOL    HW216712   1.236   1.874   2.771
 4939SOL     OW16713   1.971   1.790   8.663
 4939SOL    HW116714   1.876   1.788   8.664
 4939SOL    HW216715   1.993   1.874   8.623
 4940SOL     OW16716   2.757   7.402   3.579
 4940SOL    HW116717   2.681   7.344   3.576
 4940SOL    HW216718   2.735   7.473   3.520
 4941SOL     OW16719   0.323   6.081  13.359
 4941SOL    HW116720   0.414   6.111  13.364
 4941SOL    HW216721   0.273   6.148  13.406
 4942SOL     OW16722  11.653  10.310  13.804
 4942SOL    HW116723  11.670  10.349  13.718
 4942SOL    HW216724  11.583  10.364  13.842
 4943SOL     OW16725   1.724  10.779   0.506
 4943SOL    HW116726   1.811  10.805   0.537
 4943SOL    HW216727   1.713  10.690   0.541
 4944SOL     OW16728   6.966   6.483   0.625
 4944SOL    HW116729   6.988   6.410   0.684
 4944SOL    HW216730   6.939   6.441   0.544
 4945SOL     OW16731   8.052  11.220   3.521
 4945SOL    HW116732   7.966  11.179   3.531
 4945SOL    HW216733   8.040  11.283   3.450
 4946SOL     OW16734   1.285   0.229  12.289
 4946SOL    HW116735   1.323   0.313  12.316
 4946SOL    HW216736   1.300   0.171  12.364
 4947SOL     OW16737   5.301  13.142  10.124
 4947SOL    HW116738   5.251  13.127  10.044
 4947SOL    HW216739   5.371  13.077  10.122
 4948SOL     OW16740   7.386   2.754  14.367
 4948SOL    HW116741   7.397   2.661  14.346
 4948SOL    HW216742   7.391   2.799  14.283
 4949SOL     OW16743  14.496   6.416   3.214
 4949SOL    HW116744  14.430   6.483   3.196
 4949SOL    HW216745  14.504   6.415   3.310
 4950SOL     OW16746  10.495  13.872   1.188
 4950SOL    HW116747  10.547  13.851   1.110
 4950SOL    HW216748  10.438  13.945   1.160
 4951SOL     OW16749   6.203   4.541   3.907
 4951SOL    HW116750   6.241   4.599   3.841
 4951SOL    HW216751   6.109   4.561   3.905
 4952SOL     OW16752   0.919   5.655   6.620
 4952SOL    HW116753   0.978   5.657   6.696
 4952SOL    HW216754   0.845   5.710   6.646
 4953SOL     OW16755  12.069   9.253   3.591
 4953SOL    HW116756  12.143   9.290   3.640
 4953SOL    HW216757  12.109   9.192   3.529
 4954SOL     OW16758   3.080   1.592   3.524
 4954SOL    HW116759   3.108   1.617   3.436
 4954SOL    HW216760   3.061   1.675   3.568
 4955SOL     OW16761   0.961   1.164   3.116
 4955SOL    HW116762   0.882   1.184   3.165
 4955SOL    HW216763   0.969   1.069   3.122
 4956SOL     OW16764   4.787   4.189  12.886
 4956SOL    HW116765   4.817   4.215  12.973
 4956SOL    HW216766   4.798   4.094  12.884
 4957SOL     OW16767   2.796   1.056   8.456
 4957SOL    HW116768   2.874   1.095   8.416
 4957SOL    HW216769   2.823   1.036   8.546
 4958SOL     OW16770   2.949   9.929   3.169
 4958SOL    HW116771   2.929   9.836   3.173
 4958SOL    HW216772   2.957   9.948   3.076
 4959SOL     OW16773   2.531   2.362   0.376
 4959SOL    HW116774   2.477   2.396   0.305
 4959SOL    HW216775   2.469   2.321   0.436
 4960SOL     OW16776   0.555   2.928  10.152
 4960SOL    HW116777   0.636   2.881  10.173
 4960SOL    HW216778   0.509   2.935  10.236
 4961SOL     OW16779   8.618  14.709  14.869
 4961SOL    HW116780   8.680  14.641   0.016
 4961SOL    HW216781   8.590  14.748   0.074
 4962SOL     OW16782   1.170  10.498   0.211
 4962SOL    HW116783   1.127  10.413   0.198
 4962SOL    HW216784   1.216  10.514   0.128
 4963SOL     OW16785   6.979   6.241   7.156
 4963SOL    HW116786   6.992   6.226   7.062
 4963SOL    HW216787   7.006   6.158   7.197
 4964SOL     OW16788   8.132  11.998   4.034
 4964SOL    HW116789   8.052  11.993   3.981
 4964SOL    HW216790   8.138  12.090   4.059
 4965SOL     OW16791   2.324   9.237   7.880
 4965SOL    HW116792   2.279   9.164   7.924
 4965SOL    HW216793   2.411   9.202   7.859
 4966SOL     OW16794   2.866  12.978  13.651
 4966SOL    HW116795   2.788  13.016  13.609
 4966SOL    HW216796   2.876  13.029  13.732
 4967SOL     OW16797   3.155  14.280  13.476
 4967SOL    HW116798   3.130  14.365  13.438
 4967SOL    HW216799   3.076  14.226  13.468
 4968SOL     OW16800  10.933   0.625  10.899
 4968SOL    HW116801  11.002   0.599  10.838
 4968SOL    HW216802  10.880   0.546  10.910
 4969SOL     OW16803   7.156   4.350   3.591
 4969SOL    HW116804   7.225   4.417   3.595
 4969SOL    HW216805   7.136   4.341   3.498
 4970SOL     OW16806   5.164   6.123   3.483
 4970SOL    HW116807   5.155   6.097   3.575
 4970SOL    HW216808   5.223   6.058   3.445
 4971SOL     OW16809   6.757  13.397  10.468
 4971SOL    HW116810   6.829  13.349  10.427
 4971SOL    HW216811   6.797  13.481  10.494
 4972SOL     OW16812  10.139  13.234   9.997
 4972SOL    HW116813  10.112  13.146  10.023
 4972SOL    HW216814  10.063  13.270   9.952
 4973SOL     OW16815  10.349  13.409   8.439
 4973SOL    HW116816  10.433  13.369   8.419
 4973SOL    HW216817  10.285  13.355   8.394
 4974SOL     OW16818   9.405   1.043   5.501
 4974SOL    HW116819   9.447   0.982   5.563
 4974SOL    HW216820   9.333   0.993   5.464
 4975SOL     OW16821   0.159  12.235   0.766
 4975SOL    HW116822   0.162  12.148   0.807
 4975SOL    HW216823   0.242  12.276   0.791
 4976SOL     OW16824   9.236   2.592   1.168
 4976SOL    HW116825   9.224   2.686   1.181
 4976SOL    HW216826   9.313   2.585   1.111
 4977SOL     OW16827   8.832   4.234   0.977
 4977SOL    HW116828   8.746   4.207   0.945
 4977SOL    HW216829   8.863   4.160   1.029
 4978SOL     OW16830  13.490  11.496   3.065
 4978SOL    HW116831  13.510  11.483   2.972
 4978SOL    HW216832  13.552  11.439   3.111
 4979SOL     OW16833   5.614   9.676   7.193
 4979SOL    HW116834   5.576   9.742   7.251
 4979SOL    HW216835   5.682   9.723   7.145
 4980SOL     OW16836  12.103   0.785   5.798
 4980SOL    HW116837  12.066   0.800   5.885
 4980SOL    HW216838  12.093   0.869   5.753
 4981SOL     OW16839   5.491  12.431   7.088
 4981SOL    HW116840   5.434  12.472   7.153
 4981SOL    HW216841   5.455  12.343   7.076
 4982SOL     OW16842  13.997   2.965   3.532
 4982SOL    HW116843  14.077   2.914   3.547
 4982SOL    HW216844  14.020   3.054   3.558
 4983SOL     OW16845  14.006   3.240   0.300
 4983SOL    HW116846  14.007   3.251   0.395
 4983SOL    HW216847  13.929   3.290   0.272
 4984SOL     OW16848  13.477  12.705  10.882
 4984SOL    HW116849  13.482  12.797  10.907
 4984SOL    HW216850  13.385  12.691  10.861
 4985SOL     OW16851  13.943   4.049   0.668
 4985SOL    HW116852  14.002   4.033   0.594
 4985SOL    HW216853  13.915   4.140   0.657
 4986SOL     OW16854  11.711   7.416   7.359
 4986SOL    HW116855  11.682   7.331   7.394
 4986SOL    HW216856  11.758   7.394   7.279
 4987SOL     OW16857   8.515   5.104  10.288
 4987SOL    HW116858   8.478   5.016  10.285
 4987SOL    HW216859   8.588   5.102  10.226
 4988SOL     OW16860   3.232  13.242   3.434
 4988SOL    HW116861   3.303  13.251   3.497
 4988SOL    HW216862   3.181  13.168   3.465
 4989SOL     OW16863   9.715   1.558  13.844
 4989SOL    HW116864   9.804   1.570  13.811
 4989SOL    HW216865   9.708   1.463  13.859
 4990SOL     OW16866   3.827   9.893  12.674
 4990SOL    HW116867   3.790   9.917  12.759
 4990SOL    HW216868   3.910   9.942  12.669
 4991SOL     OW16869   5.222  14.275  12.329
 4991SOL    HW116870   5.161  14.335  12.287
 4991SOL    HW216871   5.182  14.253  12.412
 4992SOL     OW16872   1.888   2.632  13.159
 4992SOL    HW116873   1.878   2.721  13.192
 4992SOL    HW216874   1.945   2.589  13.223
 4993SOL     OW16875   3.334   2.609  11.160
 4993SOL    HW116876   3.372   2.524  11.181
 4993SOL    HW216877   3.288   2.635  11.240
 4994SOL     OW16878  14.729   6.692   9.150
 4994SOL    HW116879  14.740   6.601   9.176
 4994SOL    HW216880  14.667   6.727   9.214
 4995SOL     OW16881  14.549   8.988  13.571
 4995SOL    HW116882  14.508   9.067  13.537
 4995SOL    HW216883  14.515   8.917  13.516
 4996SOL     OW16884   8.728   7.047   7.646
 4996SOL    HW116885   8.749   6.962   7.684
 4996SOL    HW216886   8.647   7.074   7.690
 4997SOL     OW16887  13.598  10.497  13.092
 4997SOL    HW116888  13.580  10.433  13.023
 4997SOL    HW216889  13.580  10.450  13.174
 4998SOL     OW16890   5.015   2.255   2.605
 4998SOL    HW116891   4.933   2.304   2.597
 4998SOL    HW216892   5.074   2.315   2.650
 4999SOL     OW16893   4.759  11.778  13.184
 4999SOL    HW116894   4.775  11.841  13.114
 4999SOL    HW216895   4.668  11.752  13.172
 5000SOL     OW16896   5.649  10.388   5.506
 5000SOL    HW116897   5.662  10.449   5.579
 5000SOL    HW216898   5.554  10.371   5.505
 5001SOL     OW16899   1.418   2.713   9.977
 5001SOL    HW116900   1.415   2.764   9.896
 5001SOL    HW216901   1.383   2.627   9.953
 5002SOL     OW16902  12.665   9.175  11.078
 5002SOL    HW116903  12.736   9.233  11.105
 5002SOL    HW216904  12.695   9.137  10.995
 5003SOL     OW16905  11.874   6.482   5.087
 5003SOL    HW116906  11.844   6.451   5.173
 5003SOL    HW216907  11.795   6.515   5.045
 5004SOL     OW16908   3.292   9.282   4.034
 5004SOL    HW116909   3.214   9.338   4.039
 5004SOL    HW216910   3.333   9.306   3.950
 5005SOL     OW16911   8.152  13.564   6.412
 5005SOL    HW116912   8.100  13.638   6.379
 5005SOL    HW216913   8.216  13.605   6.471
 5006SOL     OW16914   3.948  12.284  12.650
 5006SOL    HW116915   3.953  12.376  12.676
 5006SOL    HW216916   4.038  12.260  12.627
 5007SOL     OW16917   7.333   4.735   7.220
 5007SOL    HW116918   7.256   4.776   7.261
 5007SOL    HW216919   7.389   4.809   7.196
 5008SOL     OW16920  11.035   1.798  12.367
 5008SOL    HW116921  11.008   1.845  12.445
 5008SOL    HW216922  11.115   1.842  12.339
 5009SOL     OW16923   3.663   9.460   7.496
 5009SOL    HW116924   3.759   9.463   7.498
 5009SOL    HW216925   3.637   9.449   7.587
 5010SOL     OW16926   5.650  11.267   4.063
 5010SOL    HW116927   5.742  11.290   4.073
 5010SOL    HW216928   5.621  11.316   3.987
 5011SOL     OW16929   2.162   1.368   4.978
 5011SOL    HW116930   2.173   1.297   4.915
 5011SOL    HW216931   2.075   1.355   5.015
 5012SOL     OW16932   4.227   2.460   8.582
 5012SOL    HW116933   4.313   2.468   8.539
 5012SOL    HW216934   4.188   2.382   8.544
 5013SOL     OW16935   2.703  11.049   0.390
 5013SOL    HW116936   2.627  11.106   0.381
 5013SOL    HW216937   2.672  10.975   0.442
 5014SOL     OW16938   9.063  13.477   4.948
 5014SOL    HW116939   9.129  13.535   4.910
 5014SOL    HW216940   9.098  13.389   4.934
 5015SOL     OW16941   6.005   5.354  14.057
 5015SOL    HW116942   6.005   5.263  14.026
 5015SOL    HW216943   6.019   5.348  14.152
 5016SOL     OW16944   6.052   0.943  11.793
 5016SOL    HW116945   6.059   1.011  11.859
 5016SOL    HW216946   6.007   0.871  11.837
 5017SOL     OW16947   1.840   0.435  11.897
 5017SOL    HW116948   1.875   0.395  11.817
 5017SOL    HW216949   1.858   0.372  11.966
 5018SOL     OW16950   3.555   1.327  11.895
 5018SOL    HW116951   3.566   1.291  11.983
 5018SOL    HW216952   3.488   1.394  11.905
 5019SOL     OW16953   2.239   9.136  10.666
 5019SOL    HW116954   2.259   9.219  10.625
 5019SOL    HW216955   2.303   9.075  10.630
 5020SOL     OW16956   9.533  10.078  11.136
 5020SOL    HW116957   9.475  10.019  11.182
 5020SOL    HW216958   9.619  10.065  11.177
 5021SOL     OW16959   9.083   2.365   1.927
 5021SOL    HW116960   9.122   2.340   2.011
 5021SOL    HW216961   9.152   2.413   1.882
 5022SOL     OW16962   8.091  11.501   3.592
 5022SOL    HW116963   8.152  11.563   3.632
 5022SOL    HW216964   8.105  11.420   3.640
 5023SOL     OW16965   8.019  13.162   0.204
 5023SOL    HW116966   8.096  13.196   0.249
 5023SOL    HW216967   7.955  13.148   0.275
 5024SOL     OW16968  11.264  12.935  12.600
 5024SOL    HW116969  11.276  12.867  12.533
 5024SOL    HW216970  11.213  12.891  12.668
 5025SOL     OW16971  11.371   0.020  14.805
 5025SOL    HW116972  11.316   0.011   0.006
 5025SOL    HW216973  11.412   0.106  14.815
 5026SOL     OW16974   9.876   5.662   3.665
 5026SOL    HW116975   9.806   5.596   3.672
 5026SOL    HW216976   9.906   5.654   3.574
 5027SOL     OW16977  11.989   3.692   6.830
 5027SOL    HW116978  11.980   3.739   6.747
 5027SOL    HW216979  12.045   3.617   6.808
 5028SOL     OW16980   5.108  12.472   1.528
 5028SOL    HW116981   5.109  12.420   1.448
 5028SOL    HW216982   5.156  12.419   1.592
 5029SOL     OW16983   7.984  10.577   2.776
 5029SOL    HW116984   7.904  10.627   2.792
 5029SOL    HW216985   7.997  10.527   2.857
 5030SOL     OW16986   2.930   7.242   0.156
 5030SOL    HW116987   2.978   7.322   0.133
 5030SOL    HW216988   2.845   7.274   0.186
 5031SOL     OW16989   4.603  12.176   4.430
 5031SOL    HW116990   4.622  12.083   4.439
 5031SOL    HW216991   4.650  12.203   4.351
 5032SOL     OW16992   1.063   0.301   9.886
 5032SOL    HW116993   1.022   0.292   9.972
 5032SOL    HW216994   1.154   0.326   9.905
 5033SOL     OW16995   9.250   2.571   1.445
 5033SOL    HW116996   9.305   2.646   1.422
 5033SOL    HW216997   9.312   2.499   1.459
 5034SOL     OW16998   1.611   0.345   3.123
 5034SOL    HW116999   1.563   0.389   3.194
 5034SOL    HW217000   1.703   0.353   3.148
 5035SOL     OW17001   0.694  10.510   7.499
 5035SOL    HW117002   0.685  10.441   7.565
 5035SOL    HW217003   0.788  10.513   7.480
 5036SOL     OW17004  12.682   7.199   5.190
 5036SOL    HW117005  12.764   7.220   5.145
 5036SOL    HW217006  12.705   7.130   5.252
 5037SOL     OW17007   0.493   7.727  13.110
 5037SOL    HW117008   0.521   7.789  13.043
 5037SOL    HW217009   0.445   7.660  13.062
 5038SOL     OW17010   4.428   2.818   2.538
 5038SOL    HW117011   4.395   2.892   2.588
 5038SOL    HW217012   4.481   2.857   2.468
 5039SOL     OW17013   7.789   2.734   0.969
 5039SOL    HW117014   7.824   2.714   0.882
 5039SOL    HW217015   7.813   2.826   0.983
 5040SOL     OW17016   7.380  11.828   4.563
 5040SOL    HW117017   7.471  11.799   4.550
 5040SOL    HW217018   7.337  11.754   4.605
 5041SOL     OW17019   6.630   2.359  11.237
 5041SOL    HW117020   6.603   2.445  11.205
 5041SOL    HW217021   6.682   2.323  11.165
 5042SOL     OW17022  14.514  13.274   2.716
 5042SOL    HW117023  14.595  13.306   2.756
 5042SOL    HW217024  14.475  13.351   2.675
 5043SOL     OW17025   4.822   4.663   4.497
 5043SOL    HW117026   4.908   4.633   4.468
 5043SOL    HW217027   4.811   4.627   4.584
 5044SOL     OW17028   5.014   7.353   8.978
 5044SOL    HW117029   4.978   7.283   8.924
 5044SOL    HW217030   4.953   7.360   9.052
 5045SOL     OW17031   2.390   0.818   4.298
 5045SOL    HW117032   2.459   0.879   4.324
 5045SOL    HW217033   2.312   0.873   4.288
 5046SOL     OW17034   1.945  10.741  14.631
 5046SOL    HW117035   1.906  10.815  14.585
 5046SOL    HW217036   1.915  10.664  14.583
 5047SOL     OW17037   3.943   4.967   6.007
 5047SOL    HW117038   3.969   5.009   5.925
 5047SOL    HW217039   3.885   5.031   6.049
 5048SOL     OW17040   2.816  11.035   2.295
 5048SOL    HW117041   2.810  11.130   2.304
 5048SOL    HW217042   2.750  11.012   2.230
 5049SOL     OW17043   5.458  14.581   6.027
 5049SOL    HW117044   5.464  14.486   6.029
 5049SOL    HW217045   5.543  14.610   5.993
 5050SOL     OW17046   6.313  12.486   1.922
 5050SOL    HW117047   6.397  12.441   1.927
 5050SOL    HW217048   6.255  12.425   1.876
 5051SOL     OW17049  13.995   5.959  10.380
 5051SOL    HW117050  14.017   5.949  10.473
 5051SOL    HW217051  14.052   6.029  10.349
 5052SOL     OW17052   4.957   6.277  11.451
 5052SOL    HW117053   4.894   6.343  11.423
 5052SOL    HW217054   4.921   6.242  11.532
 5053SOL     OW17055   8.991  12.539  11.130
 5053SOL    HW117056   8.902  12.556  11.162
 5053SOL    HW217057   9.023  12.625  11.102
 5054SOL     OW17058   2.058   7.461   5.458
 5054SOL    HW117059   2.079   7.368   5.471
 5054SOL    HW217060   2.122   7.492   5.394
 5055SOL     OW17061  12.574   8.549  10.035
 5055SOL    HW117062  12.552   8.494   9.960
 5055SOL    HW217063  12.491   8.562  10.080
 5056SOL     OW17064   4.609   8.373   1.841
 5056SOL    HW117065   4.690   8.403   1.883
 5056SOL    HW217066   4.639   8.322   1.765
 5057SOL     OW17067   4.455  13.814   9.814
 5057SOL    HW117068   4.444  13.909   9.808
 5057SOL    HW217069   4.439  13.783   9.725
 5058SOL     OW17070   3.862   0.614   2.855
 5058SOL    HW117071   3.811   0.550   2.806
 5058SOL    HW217072   3.802   0.647   2.922
 5059SOL     OW17073   3.505   1.589   6.375
 5059SOL    HW117074   3.409   1.586   6.370
 5059SOL    HW217075   3.534   1.583   6.284
 5060SOL     OW17076   1.265   5.687  12.804
 5060SOL    HW117077   1.280   5.694  12.898
 5060SOL    HW217078   1.170   5.676  12.796
 5061SOL     OW17079   8.812   1.752  13.180
 5061SOL    HW117080   8.717   1.764  13.168
 5061SOL    HW217081   8.849   1.838  13.158
 5062SOL     OW17082   2.750  12.022   1.321
 5062SOL    HW117083   2.724  12.051   1.233
 5062SOL    HW217084   2.670  12.031   1.374
 5063SOL     OW17085  11.119   4.050  12.942
 5063SOL    HW117086  11.206   4.020  12.970
 5063SOL    HW217087  11.119   4.144  12.962
 5064SOL     OW17088   5.058   0.550   2.939
 5064SOL    HW117089   4.966   0.558   2.965
 5064SOL    HW217090   5.058   0.483   2.871
 5065SOL     OW17091   9.726  11.179   3.579
 5065SOL    HW117092   9.761  11.181   3.489
 5065SOL    HW217093   9.631  11.169   3.568
 5066SOL     OW17094   1.308   0.134   6.736
 5066SOL    HW117095   1.343   0.089   6.813
 5066SOL    HW217096   1.259   0.208   6.772
 5067SOL     OW17097   1.582   8.214   2.046
 5067SOL    HW117098   1.573   8.125   2.081
 5067SOL    HW217099   1.676   8.223   2.030
 5068SOL     OW17100  10.029   0.238   1.425
 5068SOL    HW117101   9.986   0.235   1.340
 5068SOL    HW217102  10.123   0.236   1.405
 5069SOL     OW17103   5.834   7.899   0.870
 5069SOL    HW117104   5.808   7.923   0.959
 5069SOL    HW217105   5.808   7.974   0.816
 5070SOL     OW17106   4.943  13.890   5.623
 5070SOL    HW117107   5.004  13.964   5.635
 5070SOL    HW217108   4.905  13.905   5.537
 5071SOL     OW17109  12.112   5.026   7.074
 5071SOL    HW117110  12.150   5.049   7.159
 5071SOL    HW217111  12.168   4.955   7.041
 5072SOL     OW17112   3.486   7.097   1.716
 5072SOL    HW117113   3.508   7.010   1.684
 5072SOL    HW217114   3.482   7.088   1.811
 5073SOL     OW17115   4.168  11.084   8.532
 5073SOL    HW117116   4.234  11.092   8.463
 5073SOL    HW217117   4.100  11.028   8.495
 5074SOL     OW17118  12.539   1.861   0.077
 5074SOL    HW117119  12.537   1.809   0.157
 5074SOL    HW217120  12.631   1.868   0.055
 5075SOL     OW17121   4.125   0.052   7.005
 5075SOL    HW117122   4.217   0.060   6.979
 5075SOL    HW217123   4.123  14.853   7.063
 5076SOL     OW17124  13.072  14.627   3.537
 5076SOL    HW117125  13.129  14.703   3.531
 5076SOL    HW217126  13.068  14.607   3.631
 5077SOL     OW17127  14.527   7.192   5.119
 5077SOL    HW117128  14.541   7.284   5.139
 5077SOL    HW217129  14.495   7.154   5.201
 5078SOL     OW17130   4.906   8.496  13.846
 5078SOL    HW117131   4.981   8.512  13.789
 5078SOL    HW217132   4.842   8.562  13.821
 5079SOL     OW17133  10.864   7.792   9.294
 5079SOL    HW117134  10.855   7.884   9.269
 5079SOL    HW217135  10.887   7.794   9.387
 5080SOL     OW17136   4.940  13.579   4.066
 5080SOL    HW117137   4.898  13.584   4.152
 5080SOL    HW217138   4.891  13.512   4.020
 5081SOL     OW17139   3.980   3.561  10.935
 5081SOL    HW117140   3.918   3.523  10.874
 5081SOL    HW217141   4.060   3.573  10.885
 5082SOL     OW17142   0.447  14.199   0.704
 5082SOL    HW117143   0.368  14.253   0.707
 5082SOL    HW217144   0.448  14.163   0.616
 5083SOL     OW17145  14.322   1.649   9.492
 5083SOL    HW117146  14.365   1.731   9.518
 5083SOL    HW217147  14.370   1.621   9.414
 5084SOL     OW17148   8.026  10.243  12.829
 5084SOL    HW117149   8.057  10.192  12.904
 5084SOL    HW217150   7.996  10.326  12.867
 5085SOL     OW17151   7.206  12.102   1.152
 5085SOL    HW117152   7.289  12.149   1.149
 5085SOL    HW217153   7.157  12.136   1.077
 5086SOL     OW17154  12.120  10.097   4.163
 5086SOL    HW117155  12.119  10.081   4.068
 5086SOL    HW217156  12.116  10.192   4.172
 5087SOL     OW17157  12.579   6.136   8.016
 5087SOL    HW117158  12.634   6.058   8.024
 5087SOL    HW217159  12.573   6.171   8.105
 5088SOL     OW17160   6.763   5.216  10.234
 5088SOL    HW117161   6.673   5.244  10.249
 5088SOL    HW217162   6.815   5.296  10.238
 5089SOL     OW17163   2.588   5.120   3.481
 5089SOL    HW117164   2.532   5.101   3.556
 5089SOL    HW217165   2.551   5.200   3.444
 5090SOL     OW17166   3.429   5.204   0.821
 5090SOL    HW117167   3.506   5.182   0.874
 5090SOL    HW217168   3.363   5.233   0.885
 5091SOL     OW17169   9.293   6.218  13.669
 5091SOL    HW117170   9.197   6.225  13.672
 5091SOL    HW217171   9.311   6.125  13.676
 5092SOL     OW17172   0.225   1.697  14.348
 5092SOL    HW117173   0.130   1.712  14.348
 5092SOL    HW217174   0.237   1.620  14.292
 5093SOL     OW17175   9.365  11.604   3.867
 5093SOL    HW117176   9.307  11.562   3.803
 5093SOL    HW217177   9.348  11.559   3.949
 5094SOL     OW17178  10.703   2.466   1.476
 5094SOL    HW117179  10.631   2.470   1.539
 5094SOL    HW217180  10.741   2.380   1.489
 5095SOL     OW17181   2.417   7.600   6.684
 5095SOL    HW117182   2.401   7.622   6.592
 5095SOL    HW217183   2.403   7.506   6.688
 5096SOL     OW17184   6.772   6.130   2.258
 5096SOL    HW117185   6.760   6.157   2.167
 5096SOL    HW217186   6.854   6.172   2.285
 5097SOL     OW17187   4.317   8.939   2.015
 5097SOL    HW117188   4.252   8.958   1.948
 5097SOL    HW217189   4.304   8.847   2.037
 5098SOL     OW17190   7.916   9.419   7.620
 5098SOL    HW117191   7.892   9.352   7.556
 5098SOL    HW217192   7.890   9.502   7.579
 5099SOL     OW17193  14.216   5.869  10.637
 5099SOL    HW117194  14.270   5.857  10.715
 5099SOL    HW217195  14.130   5.833  10.661
 5100SOL     OW17196  14.414   1.264   8.461
 5100SOL    HW117197  14.396   1.197   8.527
 5100SOL    HW217198  14.337   1.320   8.463
 5101SOL     OW17199  12.169  11.768  11.930
 5101SOL    HW117200  12.116  11.741  11.855
 5101SOL    HW217201  12.253  11.794  11.892
 5102SOL     OW17202   6.427  14.727   1.590
 5102SOL    HW117203   6.367  14.788   1.546
 5102SOL    HW217204   6.416  14.746   1.683
 5103SOL     OW17205   7.724  13.693  12.164
 5103SOL    HW117206   7.702  13.786  12.174
 5103SOL    HW217207   7.659  13.647  12.217
 5104SOL     OW17208   1.952  11.765  11.487
 5104SOL    HW117209   1.977  11.853  11.459
 5104SOL    HW217210   1.856  11.766  11.486
 5105SOL     OW17211   0.543  10.810   5.698
 5105SOL    HW117212   0.610  10.778   5.638
 5105SOL    HW217213   0.477  10.741   5.702
 5106SOL     OW17214   4.455   1.702  12.688
 5106SOL    HW117215   4.387   1.643  12.654
 5106SOL    HW217216   4.430   1.788  12.656
 5107SOL     OW17217   1.007   4.374  12.836
 5107SOL    HW117218   0.967   4.332  12.912
 5107SOL    HW217219   0.967   4.330  12.761
 5108SOL     OW17220   8.135   2.778   9.772
 5108SOL    HW117221   8.074   2.747   9.838
 5108SOL    HW217222   8.168   2.697   9.731
 5109SOL     OW17223  13.185  10.519   5.560
 5109SOL    HW117224  13.254  10.505   5.495
 5109SOL    HW217225  13.104  10.510   5.511
 5110SOL     OW17226   5.887   6.591   7.274
 5110SOL    HW117227   5.824   6.594   7.346
 5110SOL    HW217228   5.833   6.574   7.196
 5111SOL     OW17229   3.057   3.794   0.733
 5111SOL    HW117230   3.113   3.736   0.682
 5111SOL    HW217231   3.117   3.837   0.794
 5112SOL     OW17232  11.611   6.274   7.421
 5112SOL    HW117233  11.526   6.234   7.438
 5112SOL    HW217234  11.665   6.202   7.387
 5113SOL     OW17235   8.918   1.219   6.330
 5113SOL    HW117236   8.833   1.258   6.307
 5113SOL    HW217237   8.910   1.127   6.306
 5114SOL     OW17238  14.806  10.813   5.026
 5114SOL    HW117239  14.835  10.752   4.958
 5114SOL    HW217240  14.819  10.900   4.986
 5115SOL     OW17241   3.255   9.417   8.234
 5115SOL    HW117242   3.203   9.348   8.275
 5115SOL    HW217243   3.346   9.387   8.242
 5116SOL     OW17244   0.357  10.165  13.513
 5116SOL    HW117245   0.392  10.076  13.520
 5116SOL    HW217246   0.424  10.213  13.465
 5117SOL     OW17247  11.524  10.120   5.156
 5117SOL    HW117248  11.537  10.067   5.078
 5117SOL    HW217249  11.474  10.196   5.125
 5118SOL     OW17250  14.622   6.568  11.475
 5118SOL    HW117251  14.695   6.607  11.426
 5118SOL    HW217252  14.557   6.638  11.481
 5119SOL     OW17253  14.353  12.809   9.228
 5119SOL    HW117254  14.354  12.821   9.323
 5119SOL    HW217255  14.304  12.728   9.215
 5120SOL     OW17256   2.136  11.546   5.184
 5120SOL    HW117257   2.068  11.511   5.127
 5120SOL    HW217258   2.218  11.526   5.140
 5121SOL     OW17259   8.285   3.386  10.585
 5121SOL    HW117260   8.213   3.356  10.530
 5121SOL    HW217261   8.302   3.313  10.645
 5122SOL     OW17262   5.534   1.407   8.914
 5122SOL    HW117263   5.569   1.398   9.002
 5122SOL    HW217264   5.447   1.446   8.925
 5123SOL     OW17265  10.045   9.026  14.479
 5123SOL    HW117266  10.005   9.089  14.418
 5123SOL    HW217267  10.025   8.940  14.441
 5124SOL     OW17268   9.616  11.041   6.696
 5124SOL    HW117269   9.669  11.048   6.617
 5124SOL    HW217270   9.607  10.947   6.711
 5125SOL     OW17271   1.734   8.925   7.411
 5125SOL    HW117272   1.787   8.909   7.333
 5125SOL    HW217273   1.755   9.015   7.436
 5126SOL     OW17274   5.067   2.239   7.638
 5126SOL    HW117275   4.996   2.260   7.699
 5126SOL    HW217276   5.024   2.236   7.552
 5127SOL     OW17277  13.713  10.054   6.457
 5127SOL    HW117278  13.637   9.998   6.469
 5127SOL    HW217279  13.780  10.017   6.515
 5128SOL     OW17280   0.392   9.295   3.853
 5128SOL    HW117281   0.393   9.331   3.942
 5128SOL    HW217282   0.323   9.229   3.854
 5129SOL     OW17283   3.912  13.550   8.448
 5129SOL    HW117284   3.893  13.644   8.454
 5129SOL    HW217285   3.899  13.518   8.537
 5130SOL     OW17286  13.509  12.091   1.171
 5130SOL    HW117287  13.573  12.053   1.111
 5130SOL    HW217288  13.458  12.016   1.202
 5131SOL     OW17289   6.599  14.029  13.678
 5131SOL    HW117290   6.531  14.067  13.622
 5131SOL    HW217291   6.679  14.040  13.627
 5132SOL     OW17292  11.307  11.079   1.571
 5132SOL    HW117293  11.318  11.131   1.492
 5132SOL    HW217294  11.395  11.046   1.590
 5133SOL     OW17295  11.752   2.330   4.805
 5133SOL    HW117296  11.827   2.347   4.748
 5133SOL    HW217297  11.703   2.261   4.760
 5134SOL     OW17298   8.509  12.916  10.664
 5134SOL    HW117299   8.560  12.841  10.633
 5134SOL    HW217300   8.498  12.971  10.586
 5135SOL     OW17301   1.620   6.069   7.156
 5135SOL    HW117302   1.666   6.149   7.130
 5135SOL    HW217303   1.584   6.036   7.074
 5136SOL     OW17304   2.592   8.005  11.644
 5136SOL    HW117305   2.669   8.019  11.589
 5136SOL    HW217306   2.592   8.079  11.705
 5137SOL     OW17307   7.911   4.294  14.513
 5137SOL    HW117308   7.994   4.297  14.561
 5137SOL    HW217309   7.922   4.359  14.443
 5138SOL     OW17310   5.466   8.909  12.026
 5138SOL    HW117311   5.453   8.955  12.109
 5138SOL    HW217312   5.408   8.955  11.964
 5139SOL     OW17313  10.790  10.108   8.761
 5139SOL    HW117314  10.750  10.030   8.798
 5139SOL    HW217315  10.884  10.098   8.778
 5140SOL     OW17316   4.017   7.558   3.017
 5140SOL    HW117317   4.021   7.589   3.107
 5140SOL    HW217318   3.974   7.629   2.969
 5141SOL     OW17319   7.793  11.664   0.490
 5141SOL    HW117320   7.744  11.730   0.538
 5141SOL    HW217321   7.884  11.677   0.518
 5142SOL     OW17322   3.360   6.415   0.257
 5142SOL    HW117323   3.411   6.487   0.293
 5142SOL    HW217324   3.272   6.427   0.293
 5143SOL     OW17325  12.946   3.489  13.182
 5143SOL    HW117326  12.930   3.429  13.255
 5143SOL    HW217327  13.039   3.511  13.190
 5144SOL     OW17328   2.331   3.913   8.104
 5144SOL    HW117329   2.329   3.819   8.088
 5144SOL    HW217330   2.422   3.938   8.088
 5145SOL     OW17331  12.876  12.194  13.144
 5145SOL    HW117332  12.918  12.140  13.211
 5145SOL    HW217333  12.868  12.280  13.184
 5146SOL     OW17334  14.725  11.378   8.372
 5146SOL    HW117335  14.797  11.318   8.351
 5146SOL    HW217336  14.652  11.321   8.395
 5147SOL     OW17337  11.193   8.500  13.817
 5147SOL    HW117338  11.246   8.437  13.769
 5147SOL    HW217339  11.179   8.459  13.903
 5148SOL     OW17340   3.994   9.169   3.281
 5148SOL    HW117341   4.019   9.134   3.367
 5148SOL    HW217342   3.900   9.151   3.276
 5149SOL     OW17343   3.090   0.222   6.909
 5149SOL    HW117344   3.045   0.300   6.878
 5149SOL    HW217345   3.026   0.177   6.965
 5150SOL     OW17346   8.175  11.642  11.499
 5150SOL    HW117347   8.216  11.711  11.448
 5150SOL    HW217348   8.089  11.629  11.458
 5151SOL     OW17349  11.704  14.235   4.635
 5151SOL    HW117350  11.714  14.319   4.680
 5151SOL    HW217351  11.792  14.212   4.607
 5152SOL     OW17352   8.940   5.628   7.976
 5152SOL    HW117353   8.862   5.633   7.920
 5152SOL    HW217354   8.926   5.694   8.043
 5153SOL     OW17355   5.358   0.695  11.312
 5153SOL    HW117356   5.312   0.748  11.247
 5153SOL    HW217357   5.289   0.638  11.349
 5154SOL     OW17358   7.386   9.072  12.205
 5154SOL    HW117359   7.450   9.054  12.274
 5154SOL    HW217360   7.317   9.007  12.218
 5155SOL     OW17361   9.130   4.538  10.335
 5155SOL    HW117362   9.194   4.549  10.264
 5155SOL    HW217363   9.047   4.565  10.297
 5156SOL     OW17364   1.356  10.156  10.303
 5156SOL    HW117365   1.289  10.197  10.247
 5156SOL    HW217366   1.308  10.127  10.381
 5157SOL     OW17367   5.229   0.035   2.778
 5157SOL    HW117368   5.279   0.097   2.724
 5157SOL    HW217369   5.221  14.834   2.723
 5158SOL     OW17370  11.680   7.587   6.715
 5158SOL    HW117371  11.753   7.572   6.655
 5158SOL    HW217372  11.701   7.671   6.757
 5159SOL     OW17373   8.887   6.660   8.096
 5159SOL    HW117374   8.823   6.704   8.151
 5159SOL    HW217375   8.845   6.577   8.072
 5160SOL     OW17376  10.095   1.326  14.044
 5160SOL    HW117377  10.091   1.371  13.960
 5160SOL    HW217378  10.127   1.393  14.105
 5161SOL     OW17379  13.676   1.398   1.952
 5161SOL    HW117380  13.647   1.490   1.955
 5161SOL    HW217381  13.762   1.399   1.994
 5162SOL     OW17382  11.749  14.817   0.500
 5162SOL    HW117383  11.726  14.727   0.479
 5162SOL    HW217384  11.714  14.831   0.588
 5163SOL     OW17385  12.118   5.801  14.339
 5163SOL    HW117386  12.052   5.740  14.370
 5163SOL    HW217387  12.176   5.748  14.284
 5164SOL     OW17388  11.030  12.100   2.601
 5164SOL    HW117389  11.061  12.180   2.561
 5164SOL    HW217390  11.106  12.064   2.646
 5165SOL     OW17391   1.572   6.513   4.637
 5165SOL    HW117392   1.602   6.423   4.650
 5165SOL    HW217393   1.631   6.566   4.691
 5166SOL     OW17394  11.014   0.578   2.511
 5166SOL    HW117395  10.970   0.598   2.594
 5166SOL    HW217396  10.946   0.539   2.456
 5167SOL     OW17397   9.548  14.845   7.424
 5167SOL    HW117398   9.623   0.007   7.379
 5167SOL    HW217399   9.508   0.040   7.472
 5168SOL     OW17400   5.445   5.228   2.372
 5168SOL    HW117401   5.450   5.133   2.378
 5168SOL    HW217402   5.354   5.246   2.348
 5169SOL     OW17403   0.780  10.158   3.997
 5169SOL    HW117404   0.787  10.253   4.001
 5169SOL    HW217405   0.799  10.128   4.085
 5170SOL     OW17406  10.303   8.278   2.865
 5170SOL    HW117407  10.333   8.218   2.933
 5170SOL    HW217408  10.367   8.268   2.795
 5171SOL     OW17409   6.144   6.231  10.633
 5171SOL    HW117410   6.165   6.203  10.544
 5171SOL    HW217411   6.166   6.157  10.689
 5172SOL     OW17412   4.786  11.904   4.373
 5172SOL    HW117413   4.788  11.853   4.454
 5172SOL    HW217414   4.768  11.840   4.304
 5173SOL     OW17415   8.589  11.400   1.691
 5173SOL    HW117416   8.576  11.397   1.786
 5173SOL    HW217417   8.616  11.311   1.667
 5174SOL     OW17418   8.304   1.729   3.659
 5174SOL    HW117419   8.253   1.718   3.739
 5174SOL    HW217420   8.390   1.758   3.689
 5175SOL     OW17421   9.900   1.419  12.761
 5175SOL    HW117422   9.897   1.345  12.701
 5175SOL    HW217423   9.829   1.477  12.732
 5176SOL     OW17424  13.447  10.315  10.910
 5176SOL    HW117425  13.502  10.239  10.929
 5176SOL    HW217426  13.416  10.300  10.820
 5177SOL     OW17427   0.554  12.530   9.078
 5177SOL    HW117428   0.500  12.547   9.001
 5177SOL    HW217429   0.513  12.581   9.148
 5178SOL     OW17430  13.016   4.947  10.462
 5178SOL    HW117431  12.982   5.035  10.444
 5178SOL    HW217432  12.966   4.917  10.538
 5179SOL     OW17433   6.690  14.275   5.860
 5179SOL    HW117434   6.644  14.291   5.942
 5179SOL    HW217435   6.701  14.362   5.821
 5180SOL     OW17436   8.251   2.304  11.219
 5180SOL    HW117437   8.272   2.384  11.267
 5180SOL    HW217438   8.292   2.317  11.133
 5181SOL     OW17439   7.108  14.483   0.635
 5181SOL    HW117440   7.196  14.511   0.661
 5181SOL    HW217441   7.077  14.552   0.576
 5182SOL     OW17442   7.693   0.468   9.612
 5182SOL    HW117443   7.692   0.559   9.640
 5182SOL    HW217444   7.665   0.470   9.521
 5183SOL     OW17445   1.582  13.181   0.751
 5183SOL    HW117446   1.596  13.197   0.845
 5183SOL    HW217447   1.565  13.268   0.714
 5184SOL     OW17448  11.577   5.564   1.819
 5184SOL    HW117449  11.495   5.596   1.783
 5184SOL    HW217450  11.644   5.598   1.760
 5185SOL     OW17451  14.796   6.819  10.008
 5185SOL    HW117452  14.732   6.890  10.008
 5185SOL    HW217453  14.756   6.751   9.952
 5186SOL     OW17454   5.508   3.616  14.214
 5186SOL    HW117455   5.432   3.581  14.168
 5186SOL    HW217456   5.583   3.575  14.172
 5187SOL     OW17457   2.416   4.302  13.680
 5187SOL    HW117458   2.429   4.219  13.633
 5187SOL    HW217459   2.466   4.292  13.761
 5188SOL     OW17460  14.216  13.210   5.774
 5188SOL    HW117461  14.234  13.117   5.761
 5188SOL    HW217462  14.139  13.211   5.831
 5189SOL     OW17463  13.811  11.629   6.446
 5189SOL    HW117464  13.813  11.697   6.378
 5189SOL    HW217465  13.781  11.675   6.525
 5190SOL     OW17466  12.606   5.178   2.971
 5190SOL    HW117467  12.646   5.144   3.051
 5190SOL    HW217468  12.512   5.158   2.981
 5191SOL     OW17469   4.923   4.493   0.911
 5191SOL    HW117470   5.014   4.471   0.892
 5191SOL    HW217471   4.917   4.587   0.899
 5192SOL     OW17472   9.691   8.777   0.964
 5192SOL    HW117473   9.774   8.809   1.000
 5192SOL    HW217474   9.708   8.765   0.870
 5193SOL     OW17475  12.783  11.502  11.305
 5193SOL    HW117476  12.734  11.583  11.289
 5193SOL    HW217477  12.873  11.533  11.322
 5194SOL     OW17478  13.190   0.681  13.344
 5194SOL    HW117479  13.213   0.732  13.267
 5194SOL    HW217480  13.262   0.695  13.406
 5195SOL     OW17481   6.935   0.514  13.413
 5195SOL    HW117482   6.903   0.518  13.323
 5195SOL    HW217483   6.984   0.595  13.424
 5196SOL     OW17484   6.969   3.593   2.032
 5196SOL    HW117485   7.046   3.585   2.088
 5196SOL    HW217486   6.997   3.649   1.960
 5197SOL     OW17487   6.980  10.276   2.049
 5197SOL    HW117488   7.039  10.334   2.002
 5197SOL    HW217489   7.034  10.200   2.071
 5198SOL     OW17490  10.913   6.342  11.434
 5198SOL    HW117491  11.007   6.340  11.414
 5198SOL    HW217492  10.908   6.316  11.526
 5199SOL     OW17493  12.457   5.514   8.793
 5199SOL    HW117494  12.370   5.537   8.762
 5199SOL    HW217495  12.489   5.593   8.836
 5200SOL     OW17496   5.704  12.930  14.020
 5200SOL    HW117497   5.756  12.917  13.940
 5200SOL    HW217498   5.615  12.945  13.988
 5201SOL     OW17499   0.080   8.690   0.568
 5201SOL    HW117500   0.144   8.750   0.606
 5201SOL    HW217501   0.073   8.716   0.476
 5202SOL     OW17502  10.018   6.497   3.251
 5202SOL    HW117503  10.041   6.404   3.244
 5202SOL    HW217504  10.102   6.543   3.252
 5203SOL     OW17505   7.939   3.064   4.379
 5203SOL    HW117506   7.860   3.118   4.393
 5203SOL    HW217507   8.008   3.111   4.425
 5204SOL     OW17508   4.251   6.453   2.970
 5204SOL    HW117509   4.305   6.403   2.909
 5204SOL    HW217510   4.282   6.543   2.960
 5205SOL     OW17511  10.977   5.831   4.242
 5205SOL    HW117512  10.908   5.896   4.256
 5205SOL    HW217513  10.995   5.795   4.329
 5206SOL     OW17514  10.996  11.920   4.799
 5206SOL    HW117515  11.023  11.972   4.724
 5206SOL    HW217516  10.928  11.862   4.765
 5207SOL     OW17517   4.769   5.173   9.445
 5207SOL    HW117518   4.751   5.267   9.451
 5207SOL    HW217519   4.721   5.145   9.366
 5208SOL     OW17520   3.297   3.385  14.859
 5208SOL    HW117521   3.372   3.379   0.040
 5208SOL    HW217522   3.283   3.479  14.847
 5209SOL     OW17523   2.739  14.809   9.819
 5209SOL    HW117524   2.715  14.721   9.789
 5209SOL    HW217525   2.816  14.795   9.874
 5210SOL     OW17526   9.258   1.686   7.791
 5210SOL    HW117527   9.299   1.702   7.706
 5210SOL    HW217528   9.198   1.760   7.803
 5211SOL     OW17529  11.592   1.568  12.131
 5211SOL    HW117530  11.519   1.542  12.076
 5211SOL    HW217531  11.608   1.493  12.188
 5212SOL     OW17532   2.120   1.350   6.090
 5212SOL    HW117533   2.042   1.383   6.135
 5212SOL    HW217534   2.150   1.277   6.144
 5213SOL     OW17535  11.105  14.027  14.194
 5213SOL    HW117536  11.155  14.076  14.128
 5213SOL    HW217537  11.044  13.973  14.143
 5214SOL     OW17538   4.547  14.308   7.159
 5214SOL    HW117539   4.521  14.265   7.240
 5214SOL    HW217540   4.587  14.390   7.188
 5215SOL     OW17541   9.808   1.090   2.268
 5215SOL    HW117542   9.736   1.123   2.214
 5215SOL    HW217543   9.871   1.162   2.270
 5216SOL     OW17544  13.815   0.697  11.946
 5216SOL    HW117545  13.896   0.706  11.896
 5216SOL    HW217546  13.747   0.687  11.880
 5217SOL     OW17547  12.518   5.462  11.891
 5217SOL    HW117548  12.512   5.496  11.802
 5217SOL    HW217549  12.561   5.377  11.881
 5218SOL     OW17550  14.420   3.114  14.877
 5218SOL    HW117551  14.463   3.082   0.079
 5218SOL    HW217552  14.452   3.059  14.807
 5219SOL     OW17553  14.869   8.909  13.887
 5219SOL    HW117554  14.841   8.997  13.911
 5219SOL    HW217555  14.870   8.860  13.969
 5220SOL     OW17556  12.920  12.853   4.997
 5220SOL    HW117557  12.921  12.779   4.935
 5220SOL    HW217558  12.847  12.833   5.056
 5221SOL     OW17559   3.832  14.847   0.405
 5221SOL    HW117560   3.912  14.804   0.373
 5221SOL    HW217561   3.827   0.051   0.354
 5222SOL     OW17562   4.140  10.592   3.891
 5222SOL    HW117563   4.170  10.626   3.807
 5222SOL    HW217564   4.065  10.647   3.913
 5223SOL     OW17565   1.274  10.741  13.335
 5223SOL    HW117566   1.253  10.728  13.427
 5223SOL    HW217567   1.225  10.820  13.310
 5224SOL     OW17568   5.061   4.920  14.427
 5224SOL    HW117569   4.982   4.944  14.475
 5224SOL    HW217570   5.124   4.895  14.495
 5225SOL     OW17571   0.925  13.797   9.433
 5225SOL    HW117572   1.003  13.744   9.421
 5225SOL    HW217573   0.957  13.880   9.469
 5226SOL     OW17574   9.778   6.272   0.732
 5226SOL    HW117575   9.703   6.294   0.787
 5226SOL    HW217576   9.849   6.326   0.765
 5227SOL     OW17577   4.369   3.464  14.555
 5227SOL    HW117578   4.328   3.467  14.469
 5227SOL    HW217579   4.355   3.374  14.585
 5228SOL     OW17580  14.104   7.229   6.438
 5228SOL    HW117581  14.138   7.206   6.351
 5228SOL    HW217582  14.043   7.159   6.459
 5229SOL     OW17583   5.988  10.705   0.691
 5229SOL    HW117584   5.895  10.710   0.667
 5229SOL    HW217585   5.992  10.741   0.779
 5230SOL     OW17586   2.894   8.787  11.599
 5230SOL    HW117587   2.846   8.776  11.517
 5230SOL    HW217588   2.928   8.876  11.595
 5231SOL     OW17589   4.439  10.907  13.311
 5231SOL    HW117590   4.474  10.973  13.251
 5231SOL    HW217591   4.373  10.954  13.362
 5232SOL     OW17592  14.829   4.679   3.745
 5232SOL    HW117593  14.826   4.772   3.724
 5232SOL    HW217594   0.032   4.648   3.703
 5233SOL     OW17595   4.609   6.960   9.980
 5233SOL    HW117596   4.513   6.967   9.984
 5233SOL    HW217597   4.626   6.866   9.974
 5234SOL     OW17598   9.261  12.755  13.696
 5234SOL    HW117599   9.256  12.661  13.676
 5234SOL    HW217600   9.279  12.758  13.790
 5235SOL     OW17601   5.367  12.118  12.458
 5235SOL    HW117602   5.388  12.072  12.539
 5235SOL    HW217603   5.276  12.095  12.439
 5236SOL     OW17604  13.867   9.889   5.324
 5236SOL    HW117605  13.828   9.973   5.351
 5236SOL    HW217606  13.961   9.902   5.334
 5237SOL     OW17607   1.747   9.345   0.686
 5237SOL    HW117608   1.767   9.278   0.621
 5237SOL    HW217609   1.652   9.349   0.688
 5238SOL     OW17610   6.389   6.857   8.407
 5238SOL    HW117611   6.338   6.779   8.431
 5238SOL    HW217612   6.369   6.921   8.476
 5239SOL     OW17613   9.136  14.556  13.744
 5239SOL    HW117614   9.133  14.547  13.840
 5239SOL    HW217615   9.194  14.487  13.715
 5240SOL     OW17616   7.834   2.489  13.035
 5240SOL    HW117617   7.762   2.552  13.024
 5240SOL    HW217618   7.805   2.433  13.107
 5241SOL     OW17619  11.408   0.949  14.865
 5241SOL    HW117620  11.403   0.879   0.053
 5241SOL    HW217621  11.341   1.013   0.016
 5242SOL     OW17622   0.025   4.104  10.442
 5242SOL    HW117623  14.842   4.176  10.463
 5242SOL    HW217624  14.868   4.029  10.490
 5243SOL     OW17625   4.708  12.432   2.923
 5243SOL    HW117626   4.799  12.407   2.903
 5243SOL    HW217627   4.697  12.409   3.015
 5244SOL     OW17628   9.050   2.255  11.482
 5244SOL    HW117629   9.027   2.313  11.409
 5244SOL    HW217630   9.077   2.314  11.552
 5245SOL     OW17631   0.274  12.270   5.686
 5245SOL    HW117632   0.185  12.250   5.714
 5245SOL    HW217633   0.330  12.233   5.755
 5246SOL     OW17634   0.078  10.514  13.722
 5246SOL    HW117635   0.017  10.576  13.683
 5246SOL    HW217636   0.080  10.440  13.661
 5247SOL     OW17637   2.855   5.221   7.545
 5247SOL    HW117638   2.817   5.290   7.599
 5247SOL    HW217639   2.947   5.247   7.534
 5248SOL     OW17640  10.401  14.660  10.932
 5248SOL    HW117641  10.428  14.726  10.868
 5248SOL    HW217642  10.326  14.699  10.977
 5249SOL     OW17643   1.141   9.377   0.467
 5249SOL    HW117644   1.122   9.464   0.503
 5249SOL    HW217645   1.076   9.319   0.509
 5250SOL     OW17646   2.971  14.776   6.780
 5250SOL    HW117647   2.891  14.750   6.824
 5250SOL    HW217648   3.041  14.747   6.839
 5251SOL     OW17649   5.680   3.448   3.929
 5251SOL    HW117650   5.633   3.506   3.869
 5251SOL    HW217651   5.649   3.474   4.016
 5252SOL     OW17652  14.104   4.012   5.653
 5252SOL    HW117653  14.096   3.996   5.558
 5252SOL    HW217654  14.149   3.934   5.686
 5253SOL     OW17655  11.834   2.164   1.677
 5253SOL    HW117656  11.911   2.119   1.713
 5253SOL    HW217657  11.815   2.117   1.595
 5254SOL     OW17658   8.126   8.605   0.603
 5254SOL    HW117659   8.061   8.536   0.615
 5254SOL    HW217660   8.082   8.684   0.636
 5255SOL     OW17661  12.823   7.077   7.756
 5255SOL    HW117662  12.756   7.059   7.690
 5255SOL    HW217663  12.872   6.996   7.764
 5256SOL     OW17664   4.667   1.739   6.159
 5256SOL    HW117665   4.737   1.764   6.219
 5256SOL    HW217666   4.587   1.745   6.212
 5257SOL     OW17667  13.326   4.794   8.987
 5257SOL    HW117668  13.292   4.734   9.053
 5257SOL    HW217669  13.250   4.819   8.935
 5258SOL     OW17670   7.568  10.546   4.894
 5258SOL    HW117671   7.578  10.547   4.989
 5258SOL    HW217672   7.651  10.511   4.861
 5259SOL     OW17673  10.580   2.557   4.062
 5259SOL    HW117674  10.519   2.485   4.079
 5259SOL    HW217675  10.582   2.607   4.143
 5260SOL     OW17676   6.705  14.254   5.384
 5260SOL    HW117677   6.643  14.184   5.402
 5260SOL    HW217678   6.651  14.326   5.350
 5261SOL     OW17679  13.840  12.990   8.187
 5261SOL    HW117680  13.859  13.068   8.136
 5261SOL    HW217681  13.907  12.988   8.255
 5262SOL     OW17682   7.080  10.025  12.620
 5262SOL    HW117683   7.150   9.966  12.647
 5262SOL    HW217684   7.065  10.080  12.697
 5263SOL     OW17685   5.915  12.490   3.939
 5263SOL    HW117686   5.886  12.581   3.932
 5263SOL    HW217687   6.011  12.496   3.937
 5264SOL     OW17688   0.857   0.098   4.422
 5264SOL    HW117689   0.764   0.079   4.436
 5264SOL    HW217690   0.880   0.049   4.343
 5265SOL     OW17691   0.103  12.065   1.707
 5265SOL    HW117692   0.137  12.142   1.663
 5265SOL    HW217693   0.150  11.992   1.667
 5266SOL     OW17694   7.898  11.385   8.234
 5266SOL    HW117695   7.892  11.290   8.237
 5266SOL    HW217696   7.983  11.403   8.194
 5267SOL     OW17697   4.758   3.331   5.028
 5267SOL    HW117698   4.719   3.305   5.111
 5267SOL    HW217699   4.684   3.346   4.970
 5268SOL     OW17700   6.591   1.461   9.391
 5268SOL    HW117701   6.601   1.460   9.296
 5268SOL    HW217702   6.678   1.481   9.424
 5269SOL     OW17703   3.330  11.823  12.915
 5269SOL    HW117704   3.377  11.829  12.832
 5269SOL    HW217705   3.307  11.913  12.937
 5270SOL     OW17706   1.484   7.886   6.598
 5270SOL    HW117707   1.451   7.965   6.553
 5270SOL    HW217708   1.460   7.898   6.689
 5271SOL     OW17709   2.912   4.640   7.987
 5271SOL    HW117710   2.898   4.554   7.948
 5271SOL    HW217711   2.946   4.623   8.074
 5272SOL     OW17712   0.092  11.524  13.468
 5272SOL    HW117713   0.162  11.486  13.416
 5272SOL    HW217714   0.128  11.527  13.557
 5273SOL     OW17715   5.481  10.577   2.923
 5273SOL    HW117716   5.391  10.606   2.904
 5273SOL    HW217717   5.505  10.628   3.001
 5274SOL     OW17718   7.851   4.035  12.962
 5274SOL    HW117719   7.811   4.108  12.915
 5274SOL    HW217720   7.852   3.963  12.899
 5275SOL     OW17721  13.672  11.845   6.039
 5275SOL    HW117722  13.633  11.773   5.988
 5275SOL    HW217723  13.646  11.924   5.993
 5276SOL     OW17724   1.215  14.775   0.746
 5276SOL    HW117725   1.170  14.742   0.668
 5276SOL    HW217726   1.236  14.696   0.797
 5277SOL     OW17727   8.534  10.764   0.383
 5277SOL    HW117728   8.503  10.683   0.344
 5277SOL    HW217729   8.523  10.830   0.315
 5278SOL     OW17730  10.865  10.421  11.965
 5278SOL    HW117731  10.935  10.437  12.028
 5278SOL    HW217732  10.785  10.422  12.018
 5279SOL     OW17733   9.850  10.655   9.229
 5279SOL    HW117734   9.776  10.650   9.290
 5279SOL    HW217735   9.874  10.747   9.227
 5280SOL     OW17736   2.312   3.576   2.276
 5280SOL    HW117737   2.371   3.594   2.203
 5280SOL    HW217738   2.254   3.651   2.280
 5281SOL     OW17739   3.202   2.913   0.129
 5281SOL    HW117740   3.277   2.961   0.094
 5281SOL    HW217741   3.240   2.831   0.162
 5282SOL     OW17742   8.648   8.208  10.496
 5282SOL    HW117743   8.709   8.152  10.544
 5282SOL    HW217744   8.569   8.207  10.550
 5283SOL     OW17745   1.011   0.883  10.292
 5283SOL    HW117746   1.064   0.829  10.351
 5283SOL    HW217747   1.069   0.904  10.219
 5284SOL     OW17748   1.583   5.397   4.302
 5284SOL    HW117749   1.563   5.490   4.286
 5284SOL    HW217750   1.613   5.364   4.217
 5285SOL     OW17751   6.102   0.102  14.185
 5285SOL    HW117752   6.187   0.068  14.213
 5285SOL    HW217753   6.110   0.197  14.195
 5286SOL     OW17754  14.682  12.817   7.068
 5286SOL    HW117755  14.638  12.784   7.146
 5286SOL    HW217756  14.613  12.827   7.003
 5287SOL     OW17757  11.957   1.040   7.161
 5287SOL    HW117758  12.038   1.053   7.211
 5287SOL    HW217759  11.924   1.128   7.145
 5288SOL     OW17760   7.671   9.244  14.370
 5288SOL    HW117761   7.764   9.265  14.380
 5288SOL    HW217762   7.660   9.161  14.416
 5289SOL     OW17763  13.852   4.377  10.213
 5289SOL    HW117764  13.932   4.330  10.235
 5289SOL    HW217765  13.787   4.308  10.200
 5290SOL     OW17766   7.319   6.110   1.011
 5290SOL    HW117767   7.324   6.092   1.105
 5290SOL    HW217768   7.298   6.026   0.971
 5291SOL     OW17769   8.660   3.600   9.649
 5291SOL    HW117770   8.619   3.586   9.734
 5291SOL    HW217771   8.624   3.531   9.593
 5292SOL     OW17772   9.579   8.056   9.363
 5292SOL    HW117773   9.670   8.026   9.361
 5292SOL    HW217774   9.527   7.977   9.349
 5293SOL     OW17775   1.291  10.584  14.851
 5293SOL    HW117776   1.384  10.584  14.826
 5293SOL    HW217777   1.256  10.665  14.815
 5294SOL     OW17778   8.530  12.497  11.664
 5294SOL    HW117779   8.531  12.421  11.722
 5294SOL    HW217780   8.524  12.572  11.723
 5295SOL     OW17781   1.070  13.949  14.087
 5295SOL    HW117782   1.038  14.030  14.125
 5295SOL    HW217783   0.998  13.918  14.032
 5296SOL     OW17784  11.098   6.734   5.140
 5296SOL    HW117785  11.181   6.701   5.104
 5296SOL    HW217786  11.115   6.742   5.234
 5297SOL     OW17787   7.075   2.982   3.357
 5297SOL    HW117788   7.086   2.887   3.353
 5297SOL    HW217789   7.072   3.002   3.450
 5298SOL     OW17790   2.855  10.215   6.443
 5298SOL    HW117791   2.792  10.286   6.454
 5298SOL    HW217792   2.916  10.247   6.377
 5299SOL     OW17793   3.307  10.252   0.856
 5299SOL    HW117794   3.241  10.320   0.843
 5299SOL    HW217795   3.258  10.170   0.850
 5300SOL     OW17796   8.051   2.739   6.270
 5300SOL    HW117797   8.088   2.760   6.356
 5300SOL    HW217798   8.101   2.663   6.240
 5301SOL     OW17799  12.665   3.549   9.647
 5301SOL    HW117800  12.620   3.484   9.701
 5301SOL    HW217801  12.595   3.604   9.613
 5302SOL     OW17802   7.553  13.328   8.656
 5302SOL    HW117803   7.524  13.344   8.746
 5302SOL    HW217804   7.490  13.374   8.601
 5303SOL     OW17805  12.641   3.517   1.817
 5303SOL    HW117806  12.546   3.530   1.812
 5303SOL    HW217807  12.671   3.585   1.877
 5304SOL     OW17808   1.584   0.412   3.721
 5304SOL    HW117809   1.539   0.489   3.686
 5304SOL    HW217810   1.513   0.354   3.748
 5305SOL     OW17811   5.763  13.661   8.469
 5305SOL    HW117812   5.810  13.717   8.531
 5305SOL    HW217813   5.816  13.664   8.390
 5306SOL     OW17814   3.821   5.275   8.335
 5306SOL    HW117815   3.835   5.336   8.262
 5306SOL    HW217816   3.834   5.188   8.297
 5307SOL     OW17817   0.457   4.356   8.936
 5307SOL    HW117818   0.537   4.406   8.948
 5307SOL    HW217819   0.408   4.404   8.869
 5308SOL     OW17820  10.653   5.829   7.024
 5308SOL    HW117821  10.719   5.775   6.981
 5308SOL    HW217822  10.588   5.766   7.057
 5309SOL     OW17823   6.482  13.016   1.315
 5309SOL    HW117824   6.479  13.096   1.367
 5309SOL    HW217825   6.391  13.001   1.289
 5310SOL     OW17826  11.809   7.461  13.946
 5310SOL    HW117827  11.823   7.548  13.984
 5310SOL    HW217828  11.835   7.470  13.854
 5311SOL     OW17829   1.639   3.725  13.853
 5311SOL    HW117830   1.662   3.776  13.775
 5311SOL    HW217831   1.546   3.741  13.865
 5312SOL     OW17832  13.351   3.289   7.300
 5312SOL    HW117833  13.316   3.246   7.379
 5312SOL    HW217834  13.444   3.266   7.301
 5313SOL     OW17835   8.705   0.991  14.695
 5313SOL    HW117836   8.640   0.935  14.653
 5313SOL    HW217837   8.657   1.038  14.763
 5314SOL     OW17838   6.141   5.621  10.939
 5314SOL    HW117839   6.189   5.657  10.864
 5314SOL    HW217840   6.051   5.613  10.908
 5315SOL     OW17841  13.013   9.733   0.808
 5315SOL    HW117842  12.926   9.693   0.799
 5315SOL    HW217843  12.997   9.816   0.853
 5316SOL     OW17844   3.701   2.133  13.539
 5316SOL    HW117845   3.630   2.197  13.541
 5316SOL    HW217846   3.703   2.097  13.628
 5317SOL     OW17847   7.764   8.168   7.890
 5317SOL    HW117848   7.807   8.126   7.964
 5317SOL    HW217849   7.722   8.245   7.926
 5318SOL     OW17850   7.500   3.883  13.215
 5318SOL    HW117851   7.563   3.849  13.151
 5318SOL    HW217852   7.421   3.830  13.202
 5319SOL     OW17853  12.635   7.485   5.278
 5319SOL    HW117854  12.602   7.497   5.367
 5319SOL    HW217855  12.594   7.404   5.247
 5320SOL     OW17856  10.114   4.024   3.055
 5320SOL    HW117857  10.047   3.958   3.038
 5320SOL    HW217858  10.096   4.094   2.992
 5321SOL     OW17859  10.141   6.207   9.839
 5321SOL    HW117860  10.110   6.245   9.756
 5321SOL    HW217861  10.090   6.126   9.848
 5322SOL     OW17862   3.051  11.121  11.663
 5322SOL    HW117863   2.984  11.136  11.730
 5322SOL    HW217864   3.041  11.028  11.640
 5323SOL     OW17865  14.852   2.746  10.560
 5323SOL    HW117866   0.029   2.825  10.557
 5323SOL    HW217867   0.035   2.675  10.540
 5324SOL     OW17868  14.554   7.047   1.208
 5324SOL    HW117869  14.474   6.995   1.219
 5324SOL    HW217870  14.573   7.079   1.296
 5325SOL     OW17871  11.957   6.168  12.024
 5325SOL    HW117872  11.888   6.222  12.063
 5325SOL    HW217873  11.999   6.125  12.098
 5326SOL     OW17874  12.842   2.627  14.697
 5326SOL    HW117875  12.847   2.653  14.605
 5326SOL    HW217876  12.903   2.685  14.742
 5327SOL     OW17877   2.586   9.779  12.835
 5327SOL    HW117878   2.653   9.838  12.871
 5327SOL    HW217879   2.594   9.789  12.740
 5328SOL     OW17880   6.874   5.500   1.946
 5328SOL    HW117881   6.823   5.429   1.984
 5328SOL    HW217882   6.889   5.473   1.855
 5329SOL     OW17883   0.343   3.177   9.177
 5329SOL    HW117884   0.285   3.172   9.253
 5329SOL    HW217885   0.353   3.087   9.148
 5330SOL     OW17886   3.285  12.198  14.642
 5330SOL    HW117887   3.202  12.151  14.640
 5330SOL    HW217888   3.350  12.130  14.662
 5331SOL     OW17889  12.539   9.153   4.714
 5331SOL    HW117890  12.515   9.245   4.710
 5331SOL    HW217891  12.570   9.132   4.626
 5332SOL     OW17892  13.813  11.273   4.686
 5332SOL    HW117893  13.827  11.210   4.615
 5332SOL    HW217894  13.900  11.289   4.722
 5333SOL     OW17895  12.336  14.515  11.112
 5333SOL    HW117896  12.423  14.487  11.139
 5333SOL    HW217897  12.319  14.594  11.163
 5334SOL     OW17898   9.945   4.429  12.076
 5334SOL    HW117899   9.975   4.520  12.071
 5334SOL    HW217900   9.884   4.420  12.003
 5335SOL     OW17901   7.210   8.034   5.401
 5335SOL    HW117902   7.250   7.983   5.471
 5335SOL    HW217903   7.283   8.054   5.342
 5336SOL     OW17904   2.021  11.988  14.786
 5336SOL    HW117905   2.047  11.977  14.695
 5336SOL    HW217906   2.004  11.900  14.818
 5337SOL     OW17907   4.290  13.741   1.366
 5337SOL    HW117908   4.327  13.666   1.318
 5337SOL    HW217909   4.329  13.736   1.453
 5338SOL     OW17910   4.466  11.360   2.586
 5338SOL    HW117911   4.448  11.454   2.587
 5338SOL    HW217912   4.542  11.350   2.530
 5339SOL     OW17913   3.774   8.168  11.858
 5339SOL    HW117914   3.849   8.119  11.892
 5339SOL    HW217915   3.797   8.186  11.767
 5340SOL     OW17916   0.467   5.523  10.940
 5340SOL    HW117917   0.448   5.431  10.959
 5340SOL    HW217918   0.533   5.548  11.004
 5341SOL     OW17919   1.695   5.837   4.593
 5341SOL    HW117920   1.728   5.926   4.600
 5341SOL    HW217921   1.753   5.794   4.530
 5342SOL     OW17922   8.956   1.016   3.527
 5342SOL    HW117923   8.944   0.943   3.466
 5342SOL    HW217924   8.968   1.092   3.470
 5343SOL     OW17925  14.316   0.657   6.542
 5343SOL    HW117926  14.295   0.735   6.593
 5343SOL    HW217927  14.380   0.610   6.595
 5344SOL     OW17928   4.924   2.762  13.156
 5344SOL    HW117929   4.898   2.838  13.209
 5344SOL    HW217930   5.014   2.744  13.184
 5345SOL     OW17931  13.277   5.554   0.902
 5345SOL    HW117932  13.305   5.562   0.993
 5345SOL    HW217933  13.316   5.629   0.857
 5346SOL     OW17934   4.661   5.789   8.810
 5346SOL    HW117935   4.642   5.881   8.793
 5346SOL    HW217936   4.744   5.790   8.857
 5347SOL     OW17937   4.061   3.657   5.570
 5347SOL    HW117938   4.003   3.672   5.646
 5347SOL    HW217939   4.103   3.742   5.556
 5348SOL     OW17940   8.553   3.460   8.126
 5348SOL    HW117941   8.641   3.428   8.145
 5348SOL    HW217942   8.522   3.405   8.054
 5349SOL     OW17943   7.958   4.823  12.529
 5349SOL    HW117944   8.051   4.813  12.509
 5349SOL    HW217945   7.925   4.734  12.539
 5350SOL     OW17946   5.626   0.938  13.317
 5350SOL    HW117947   5.659   0.862  13.366
 5350SOL    HW217948   5.702   0.995  13.309
 5351SOL     OW17949  12.551   7.323   4.059
 5351SOL    HW117950  12.594   7.257   4.114
 5351SOL    HW217951  12.512   7.272   3.988
 5352SOL     OW17952   6.228   6.506   9.943
 5352SOL    HW117953   6.285   6.508   9.866
 5352SOL    HW217954   6.200   6.415   9.950
 5353SOL     OW17955   8.231   3.170   6.744
 5353SOL    HW117956   8.327   3.171   6.740
 5353SOL    HW217957   8.212   3.149   6.835
 5354SOL     OW17958  13.192  14.264   1.928
 5354SOL    HW117959  13.129  14.332   1.952
 5354SOL    HW217960  13.197  14.268   1.833
 5355SOL     OW17961   6.660  11.135   2.348
 5355SOL    HW117962   6.654  11.225   2.315
 5355SOL    HW217963   6.579  11.123   2.397
 5356SOL     OW17964  14.116   6.729  11.140
 5356SOL    HW117965  14.173   6.781  11.083
 5356SOL    HW217966  14.171   6.706  11.215
 5357SOL     OW17967  10.833   9.301  12.033
 5357SOL    HW117968  10.862   9.217  12.068
 5357SOL    HW217969  10.806   9.351  12.111
 5358SOL     OW17970  13.708   2.581  13.412
 5358SOL    HW117971  13.616   2.600  13.430
 5358SOL    HW217972  13.756   2.627  13.481
 5359SOL     OW17973   4.911  11.931  12.845
 5359SOL    HW117974   4.860  11.966  12.918
 5359SOL    HW217975   4.910  11.837  12.858
 5360SOL     OW17976   5.190   0.351   6.994
 5360SOL    HW117977   5.226   0.262   6.998
 5360SOL    HW217978   5.266   0.406   6.973
 5361SOL     OW17979  13.221  10.670  13.014
 5361SOL    HW117980  13.314  10.681  12.996
 5361SOL    HW217981  13.187  10.759  13.019
 5362SOL     OW17982  11.636   1.404   8.362
 5362SOL    HW117983  11.654   1.475   8.423
 5362SOL    HW217984  11.571   1.440   8.302
 5363SOL     OW17985   5.504  14.369   6.895
 5363SOL    HW117986   5.488  14.326   6.812
 5363SOL    HW217987   5.563  14.311   6.943
 5364SOL     OW17988   5.239   9.650   3.204
 5364SOL    HW117989   5.267   9.710   3.135
 5364SOL    HW217990   5.320   9.612   3.237
 5365SOL     OW17991   8.311   9.912  12.010
 5365SOL    HW117992   8.364   9.959  12.074
 5365SOL    HW217993   8.338   9.820  12.020
 5366SOL     OW17994   1.896   3.474  10.498
 5366SOL    HW117995   1.854   3.540  10.554
 5366SOL    HW217996   1.843   3.473  10.419
 5367SOL     OW17997   8.788  13.463   4.383
 5367SOL    HW117998   8.880  13.478   4.363
 5367SOL    HW217999   8.744  13.543   4.355
 5368SOL     OW18000   7.027   0.454   1.996
 5368SOL    HW118001   7.105   0.399   1.997
 5368SOL    HW218002   7.049   0.528   2.052
 5369SOL     OW18003   6.676   4.676   4.651
 5369SOL    HW118004   6.618   4.690   4.726
 5369SOL    HW218005   6.755   4.636   4.689
 5370SOL     OW18006   5.181  12.372  14.176
 5370SOL    HW118007   5.188  12.278  14.189
 5370SOL    HW218008   5.211  12.410  14.259
 5371SOL     OW18009   1.871  10.113   0.426
 5371SOL    HW118010   1.935  10.122   0.355
 5371SOL    HW218011   1.879  10.022   0.454
 5372SOL     OW18012   3.175   4.978   5.672
 5372SOL    HW118013   3.138   4.932   5.596
 5372SOL    HW218014   3.267   4.991   5.649
 5373SOL     OW18015  10.060   9.815   5.984
 5373SOL    HW118016  10.096   9.864   5.910
 5373SOL    HW218017  10.128   9.751   6.006
 5374SOL     OW18018   4.558   9.979   8.253
 5374SOL    HW118019   4.541  10.035   8.177
 5374SOL    HW218020   4.651   9.994   8.273
 5375SOL     OW18021   5.283   5.964   8.648
 5375SOL    HW118022   5.304   5.872   8.663
 5375SOL    HW218023   5.356   5.997   8.596
 5376SOL     OW18024   9.937   2.232   3.376
 5376SOL    HW118025   9.918   2.324   3.361
 5376SOL    HW218026   9.858   2.186   3.346
 5377SOL     OW18027   5.734   3.442  11.661
 5377SOL    HW118028   5.660   3.500  11.682
 5377SOL    HW218029   5.811   3.492  11.686
 5378SOL     OW18030   1.444   6.907   3.142
 5378SOL    HW118031   1.501   6.979   3.169
 5378SOL    HW218032   1.466   6.892   3.050
 5379SOL     OW18033   3.854  13.494  11.914
 5379SOL    HW118034   3.888  13.405  11.907
 5379SOL    HW218035   3.777  13.487  11.970
 5380SOL     OW18036   5.836  12.441   9.893
 5380SOL    HW118037   5.771  12.408   9.955
 5380SOL    HW218038   5.838  12.377   9.822
 5381SOL     OW18039  10.026  13.845   6.614
 5381SOL    HW118040   9.950  13.789   6.607
 5381SOL    HW218041  10.023  13.901   6.536
 5382SOL     OW18042  11.558   1.709   7.679
 5382SOL    HW118043  11.524   1.767   7.611
 5382SOL    HW218044  11.577   1.627   7.634
 5383SOL     OW18045   3.492   0.062   6.351
 5383SOL    HW118046   3.513  14.858   6.396
 5383SOL    HW218047   3.466   0.035   6.263
 5384SOL     OW18048  14.145   9.521  11.969
 5384SOL    HW118049  14.156   9.520  12.064
 5384SOL    HW218050  14.055   9.553  11.956
 5385SOL     OW18051  12.541  10.264   1.481
 5385SOL    HW118052  12.499  10.213   1.412
 5385SOL    HW218053  12.564  10.346   1.438
 5386SOL     OW18054  11.709   9.748  13.497
 5386SOL    HW118055  11.737   9.819  13.440
 5386SOL    HW218056  11.730   9.668  13.449
 5387SOL     OW18057   1.907   9.250   6.959
 5387SOL    HW118058   1.936   9.337   6.932
 5387SOL    HW218059   1.985   9.209   6.997
 5388SOL     OW18060  11.939  10.065   5.397
 5388SOL    HW118061  11.877  10.128   5.434
 5388SOL    HW218062  11.886  10.012   5.338
 5389SOL     OW18063   8.623  13.916   5.229
 5389SOL    HW118064   8.636  13.918   5.134
 5389SOL    HW218065   8.711  13.916   5.266
 5390SOL     OW18066  11.520   6.968   7.238
 5390SOL    HW118067  11.531   6.992   7.146
 5390SOL    HW218068  11.577   6.891   7.250
 5391SOL     OW18069   0.232  11.191   7.759
 5391SOL    HW118070   0.238  11.097   7.777
 5391SOL    HW218071   0.185  11.197   7.675
 5392SOL     OW18072  12.458   8.187  11.201
 5392SOL    HW118073  12.396   8.119  11.226
 5392SOL    HW218074  12.426   8.266  11.244
 5393SOL     OW18075  10.223   1.617  11.840
 5393SOL    HW118076  10.266   1.629  11.755
 5393SOL    HW218077  10.255   1.688  11.894
 5394SOL     OW18078  10.895   9.799   6.642
 5394SOL    HW118079  10.952   9.732   6.604
 5394SOL    HW218080  10.815   9.752   6.666
 5395SOL     OW18081   7.686   9.376   0.020
 5395SOL    HW118082   7.621   9.402   0.086
 5395SOL    HW218083   7.639   9.383  14.814
 5396SOL     OW18084   4.862   6.948   9.695
 5396SOL    HW118085   4.776   6.936   9.654
 5396SOL    HW218086   4.854   7.029   9.745
 5397SOL     OW18087  14.563  13.958   6.095
 5397SOL    HW118088  14.629  13.909   6.144
 5397SOL    HW218089  14.580  13.935   6.003
 5398SOL     OW18090  13.631   2.434  11.767
 5398SOL    HW118091  13.613   2.355  11.817
 5398SOL    HW218092  13.727   2.441  11.767
 5399SOL     OW18093   2.247   4.578  13.375
 5399SOL    HW118094   2.186   4.600  13.446
 5399SOL    HW218095   2.244   4.654  13.317
 5400SOL     OW18096   7.283   7.492   5.344
 5400SOL    HW118097   7.210   7.552   5.361
 5400SOL    HW218098   7.266   7.418   5.402
 5401SOL     OW18099  14.494   4.231  10.291
 5401SOL    HW118100  14.427   4.276  10.239
 5401SOL    HW218101  14.455   4.145  10.310
 5402SOL     OW18102   1.332  12.306  14.292
 5402SOL    HW118103   1.276  12.264  14.227
 5402SOL    HW218104   1.338  12.398  14.264
 5403SOL     OW18105   9.106   1.522   7.425
 5403SOL    HW118106   9.038   1.572   7.470
 5403SOL    HW218107   9.058   1.465   7.365
 5404SOL     OW18108   9.856  12.661   1.426
 5404SOL    HW118109   9.842  12.665   1.521
 5404SOL    HW218110   9.891  12.747   1.404
 5405SOL     OW18111   4.660   9.186   8.314
 5405SOL    HW118112   4.613   9.133   8.379
 5405SOL    HW218113   4.742   9.208   8.357
 5406SOL     OW18114  11.394  10.033   3.298
 5406SOL    HW118115  11.412  10.125   3.277
 5406SOL    HW218116  11.475  10.003   3.340
 5407SOL     OW18117  14.850   6.613   4.638
 5407SOL    HW118118  14.870   6.582   4.726
 5407SOL    HW218119   0.038   6.572   4.582
 5408SOL     OW18120   2.702  11.113  14.274
 5408SOL    HW118121   2.744  11.055  14.210
 5408SOL    HW218122   2.631  11.060  14.312
 5409SOL     OW18123   9.262   0.670  10.105
 5409SOL    HW118124   9.332   0.632  10.052
 5409SOL    HW218125   9.199   0.703  10.040
 5410SOL     OW18126  10.625   9.184   4.720
 5410SOL    HW118127  10.562   9.253   4.698
 5410SOL    HW218128  10.573   9.104   4.723
 5411SOL     OW18129   8.506  11.649  13.745
 5411SOL    HW118130   8.426  11.617  13.786
 5411SOL    HW218131   8.567  11.660  13.818
 5412SOL     OW18132   8.379  13.930   7.785
 5412SOL    HW118133   8.400  13.867   7.716
 5412SOL    HW218134   8.407  13.888   7.866
 5413SOL     OW18135  12.879  10.156   7.726
 5413SOL    HW118136  12.876  10.230   7.667
 5413SOL    HW218137  12.972  10.138   7.739
 5414SOL     OW18138   6.093   1.318   6.901
 5414SOL    HW118139   6.146   1.287   6.827
 5414SOL    HW218140   6.129   1.404   6.921
 5415SOL     OW18141   0.797  14.170   8.840
 5415SOL    HW118142   0.722  14.208   8.794
 5415SOL    HW218143   0.862  14.239   8.842
 5416SOL     OW18144   6.469   4.937  11.346
 5416SOL    HW118145   6.456   4.996  11.420
 5416SOL    HW218146   6.486   4.852  11.386
 5417SOL     OW18147  13.317  13.346   9.435
 5417SOL    HW118148  13.280  13.376   9.352
 5417SOL    HW218149  13.406  13.380   9.435
 5418SOL     OW18150   5.537   2.439  12.995
 5418SOL    HW118151   5.606   2.472  13.052
 5418SOL    HW218152   5.580   2.374  12.940
 5419SOL     OW18153   7.281   4.229  11.919
 5419SOL    HW118154   7.264   4.307  11.973
 5419SOL    HW218155   7.305   4.161  11.982
 5420SOL     OW18156   9.706   2.866   5.096
 5420SOL    HW118157   9.701   2.940   5.156
 5420SOL    HW218158   9.780   2.814   5.127
 5421SOL     OW18159   0.995  11.332  10.255
 5421SOL    HW118160   0.943  11.355  10.332
 5421SOL    HW218161   1.057  11.266  10.287
 5422SOL     OW18162   4.584   6.812   0.224
 5422SOL    HW118163   4.593   6.720   0.201
 5422SOL    HW218164   4.613   6.817   0.315
 5423SOL     OW18165   7.498   3.809  13.969
 5423SOL    HW118166   7.418   3.787  13.922
 5423SOL    HW218167   7.487   3.902  13.992
 5424SOL     OW18168  13.636   2.031   9.008
 5424SOL    HW118169  13.671   2.078   8.932
 5424SOL    HW218170  13.705   2.039   9.074
 5425SOL     OW18171   9.415   8.288   7.474
 5425SOL    HW118172   9.364   8.327   7.545
 5425SOL    HW218173   9.429   8.360   7.412
 5426SOL     OW18174  11.909   7.605   9.845
 5426SOL    HW118175  11.840   7.543   9.867
 5426SOL    HW218176  11.865   7.674   9.795
 5427SOL     OW18177   4.215  12.305   6.630
 5427SOL    HW118178   4.269  12.248   6.685
 5427SOL    HW218179   4.137  12.254   6.612
 5428SOL     OW18180   1.758   9.189  10.671
 5428SOL    HW118181   1.715   9.225  10.593
 5428SOL    HW218182   1.829   9.251  10.689
 5429SOL     OW18183   2.144   6.793  13.879
 5429SOL    HW118184   2.110   6.769  13.793
 5429SOL    HW218185   2.209   6.860  13.862
 5430SOL     OW18186   8.087   4.757   1.552
 5430SOL    HW118187   8.048   4.826   1.606
 5430SOL    HW218188   8.060   4.777   1.463
 5431SOL     OW18189   6.350   5.405  14.143
 5431SOL    HW118190   6.293   5.479  14.124
 5431SOL    HW218191   6.393   5.428  14.225
 5432SOL     OW18192   0.649   9.884  12.551
 5432SOL    HW118193   0.677   9.798  12.521
 5432SOL    HW218194   0.661   9.941  12.475
 5433SOL     OW18195  12.536   1.824   5.408
 5433SOL    HW118196  12.496   1.898   5.362
 5433SOL    HW218197  12.628   1.848   5.417
 5434SOL     OW18198  12.023  10.827   3.278
 5434SOL    HW118199  11.977  10.851   3.197
 5434SOL    HW218200  11.954  10.828   3.345
 5435SOL     OW18201   1.081   7.649   9.198
 5435SOL    HW118202   1.120   7.635   9.285
 5435SOL    HW218203   1.098   7.742   9.179
 5436SOL     OW18204  10.878   7.445   2.507
 5436SOL    HW118205  10.867   7.535   2.476
 5436SOL    HW218206  10.805   7.397   2.467
 5437SOL     OW18207   2.751  12.144  11.283
 5437SOL    HW118208   2.756  12.153  11.188
 5437SOL    HW218209   2.758  12.049  11.298
 5438SOL     OW18210   9.761  13.578  13.210
 5438SOL    HW118211   9.769  13.497  13.259
 5438SOL    HW218212   9.767  13.647  13.276
 5439SOL     OW18213   9.966  14.269   3.177
 5439SOL    HW118214   9.874  14.251   3.198
 5439SOL    HW218215  10.011  14.186   3.190
 5440SOL     OW18216   3.308   5.893   0.832
 5440SOL    HW118217   3.281   5.874   0.921
 5440SOL    HW218218   3.350   5.812   0.802
 5441SOL     OW18219  13.216   7.562   7.214
 5441SOL    HW118220  13.231   7.656   7.223
 5441SOL    HW218221  13.121   7.554   7.203
 5442SOL     OW18222   9.441  10.870   3.416
 5442SOL    HW118223   9.477  10.810   3.350
 5442SOL    HW218224   9.510  10.876   3.482
 5443SOL     OW18225  14.698   9.885   7.514
 5443SOL    HW118226  14.679   9.955   7.577
 5443SOL    HW218227  14.621   9.882   7.457
 5444SOL     OW18228   7.692   1.278   3.702
 5444SOL    HW118229   7.609   1.322   3.719
 5444SOL    HW218230   7.669   1.201   3.649
 5445SOL     OW18231  14.812   4.812   4.135
 5445SOL    HW118232  14.796   4.855   4.050
 5445SOL    HW218233   0.004   4.864   4.175
 5446SOL     OW18234   1.707   3.981   8.408
 5446SOL    HW118235   1.613   3.968   8.420
 5446SOL    HW218236   1.746   3.953   8.491
 5447SOL     OW18237  10.442   9.015   2.628
 5447SOL    HW118238  10.367   8.976   2.673
 5447SOL    HW218239  10.456   9.098   2.674
 5448SOL     OW18240   6.542   3.182   5.453
 5448SOL    HW118241   6.511   3.104   5.498
 5448SOL    HW218242   6.470   3.206   5.394
 5449SOL     OW18243  12.331  13.916   0.680
 5449SOL    HW118244  12.284  13.968   0.744
 5449SOL    HW218245  12.338  13.972   0.603
 5450SOL     OW18246  11.470   7.223   2.661
 5450SOL    HW118247  11.474   7.304   2.712
 5450SOL    HW218248  11.541   7.231   2.597
 5451SOL     OW18249  12.506   9.270   6.557
 5451SOL    HW118250  12.466   9.183   6.547
 5451SOL    HW218251  12.442   9.319   6.609
 5452SOL     OW18252  12.356   8.192   7.826
 5452SOL    HW118253  12.423   8.142   7.872
 5452SOL    HW218254  12.350   8.275   7.874
 5453SOL     OW18255  13.868   8.243   9.490
 5453SOL    HW118256  13.926   8.309   9.452
 5453SOL    HW218257  13.926   8.186   9.540
 5454SOL     OW18258   9.268  12.901  10.875
 5454SOL    HW118259   9.265  12.992  10.903
 5454SOL    HW218260   9.187  12.889  10.825
 5455SOL     OW18261  13.964  10.329  12.805
 5455SOL    HW118262  13.927  10.318  12.717
 5455SOL    HW218263  14.039  10.387  12.791
 5456SOL     OW18264   3.876   8.388  13.709
 5456SOL    HW118265   3.817   8.460  13.731
 5456SOL    HW218266   3.883   8.390  13.614
 5457SOL     OW18267   6.567   4.620   1.028
 5457SOL    HW118268   6.494   4.588   0.975
 5457SOL    HW218269   6.645   4.582   0.987
 5458SOL     OW18270   6.079   4.529   2.299
 5458SOL    HW118271   6.089   4.452   2.244
 5458SOL    HW218272   6.116   4.601   2.246
 5459SOL     OW18273   9.567   7.263  10.831
 5459SOL    HW118274   9.531   7.263  10.920
 5459SOL    HW218275   9.607   7.177  10.821
 5460SOL     OW18276   1.255   1.668  10.822
 5460SOL    HW118277   1.230   1.758  10.842
 5460SOL    HW218278   1.214   1.650  10.737
 5461SOL     OW18279   8.957   4.262  11.102
 5461SOL    HW118280   8.957   4.172  11.136
 5461SOL    HW218281   9.032   4.264  11.042
 5462SOL     OW18282   7.464   4.115   6.028
 5462SOL    HW118283   7.528   4.071   5.971
 5462SOL    HW218284   7.473   4.071   6.112
 5463SOL     OW18285   7.576  14.846   4.059
 5463SOL    HW118286   7.493  14.805   4.036
 5463SOL    HW218287   7.642  14.791   4.015
 5464SOL     OW18288  11.331   9.956   2.924
 5464SOL    HW118289  11.381   9.876   2.912
 5464SOL    HW218290  11.388  10.014   2.974
 5465SOL     OW18291   6.117  11.010   4.100
 5465SOL    HW118292   6.138  11.097   4.067
 5465SOL    HW218293   6.080  10.964   4.025
 5466SOL     OW18294  12.151   7.984  12.886
 5466SOL    HW118295  12.182   8.072  12.908
 5466SOL    HW218296  12.223   7.926  12.911
 5467SOL     OW18297   5.101  12.845  14.818
 5467SOL    HW118298   5.099  12.938  14.799
 5467SOL    HW218299   5.050  12.805  14.748
 5468SOL     OW18300   6.267  11.303   0.352
 5468SOL    HW118301   6.306  11.218   0.331
 5468SOL    HW218302   6.174  11.284   0.364
 5469SOL     OW18303   3.188  13.286  11.483
 5469SOL    HW118304   3.187  13.374  11.446
 5469SOL    HW218305   3.152  13.296  11.571
 5470SOL     OW18306   1.028   2.999  12.910
 5470SOL    HW118307   0.957   3.008  12.974
 5470SOL    HW218308   1.105   3.032  12.956
 5471SOL     OW18309   3.321  11.388  11.024
 5471SOL    HW118310   3.246  11.441  10.998
 5471SOL    HW218311   3.283  11.315  11.073
 5472SOL     OW18312   2.396   1.330   6.697
 5472SOL    HW118313   2.471   1.275   6.673
 5472SOL    HW218314   2.351   1.280   6.765
 5473SOL     OW18315   2.182  12.690  11.726
 5473SOL    HW118316   2.189  12.625  11.656
 5473SOL    HW218317   2.190  12.639  11.807
 5474SOL     OW18318   0.944   0.306   4.567
 5474SOL    HW118319   0.917   0.248   4.638
 5474SOL    HW218320   0.919   0.261   4.487
 5475SOL     OW18321   9.202   0.463   7.789
 5475SOL    HW118322   9.152   0.405   7.846
 5475SOL    HW218323   9.284   0.416   7.774
 5476SOL     OW18324   6.837  10.167  11.979
 5476SOL    HW118325   6.789  10.249  11.989
 5476SOL    HW218326   6.857  10.141  12.069
 5477SOL     OW18327  11.849   8.210  10.083
 5477SOL    HW118328  11.847   8.294  10.127
 5477SOL    HW218329  11.897   8.152  10.144
 5478SOL     OW18330   0.783  11.546  12.560
 5478SOL    HW118331   0.839  11.581  12.491
 5478SOL    HW218332   0.824  11.575  12.642
 5479SOL     OW18333   2.468   3.182   1.080
 5479SOL    HW118334   2.436   3.265   1.115
 5479SOL    HW218335   2.534   3.153   1.142
 5480SOL     OW18336   2.706  14.128   7.533
 5480SOL    HW118337   2.734  14.115   7.624
 5480SOL    HW218338   2.633  14.068   7.522
 5481SOL     OW18339   4.886  14.258  11.803
 5481SOL    HW118340   4.934  14.176  11.814
 5481SOL    HW218341   4.809  14.234  11.752
 5482SOL     OW18342   3.055   5.362  10.877
 5482SOL    HW118343   3.113   5.421  10.923
 5482SOL    HW218344   3.028   5.298  10.943
 5483SOL     OW18345  11.091   5.788   5.057
 5483SOL    HW118346  11.021   5.735   5.096
 5483SOL    HW218347  11.087   5.768   4.963
 5484SOL     OW18348   2.826   1.244   2.635
 5484SOL    HW118349   2.812   1.310   2.567
 5484SOL    HW218350   2.738   1.222   2.665
 5485SOL     OW18351   3.788   9.976   9.646
 5485SOL    HW118352   3.766   9.903   9.588
 5485SOL    HW218353   3.749  10.053   9.605
 5486SOL     OW18354   8.901  12.232  11.023
 5486SOL    HW118355   8.979  12.271  10.983
 5486SOL    HW218356   8.871  12.169  10.957
 5487SOL     OW18357   2.455  13.663   1.705
 5487SOL    HW118358   2.457  13.638   1.797
 5487SOL    HW218359   2.413  13.749   1.703
 5488SOL     OW18360   5.019  10.026   4.815
 5488SOL    HW118361   4.953  10.093   4.795
 5488SOL    HW218362   4.970   9.944   4.815
 5489SOL     OW18363  14.182   2.982   9.716
 5489SOL    HW118364  14.156   2.987   9.624
 5489SOL    HW218365  14.233   2.901   9.721
 5490SOL     OW18366   3.463  10.389   7.606
 5490SOL    HW118367   3.413  10.386   7.525
 5490SOL    HW218368   3.555  10.379   7.579
 5491SOL     OW18369  11.370   1.451  13.031
 5491SOL    HW118370  11.458   1.488  13.027
 5491SOL    HW218371  11.381   1.359  13.008
 5492SOL     OW18372  14.524   4.976   6.850
 5492SOL    HW118373  14.530   5.062   6.892
 5492SOL    HW218374  14.503   4.915   6.921
 5493SOL     OW18375   6.312   1.344  11.435
 5493SOL    HW118376   6.307   1.434  11.405
 5493SOL    HW218377   6.290   1.291  11.358
 5494SOL     OW18378  14.327   1.227   6.113
 5494SOL    HW118379  14.404   1.214   6.168
 5494SOL    HW218380  14.295   1.138   6.094
 5495SOL     OW18381   1.565  12.113   2.796
 5495SOL    HW118382   1.635  12.128   2.733
 5495SOL    HW218383   1.575  12.022   2.822
 5496SOL     OW18384  11.602  12.070   5.647
 5496SOL    HW118385  11.643  11.984   5.646
 5496SOL    HW218386  11.650  12.119   5.713
 5497SOL     OW18387  12.394  10.527  12.689
 5497SOL    HW118388  12.327  10.459  12.697
 5497SOL    HW218389  12.475  10.483  12.716
 5498SOL     OW18390   7.619  11.079   6.660
 5498SOL    HW118391   7.649  10.993   6.691
 5498SOL    HW218392   7.640  11.139   6.731
 5499SOL     OW18393   8.725   5.593   3.290
 5499SOL    HW118394   8.656   5.658   3.276
 5499SOL    HW218395   8.757   5.611   3.378
 5500SOL     OW18396   9.890   4.940   2.818
 5500SOL    HW118397   9.967   4.991   2.795
 5500SOL    HW218398   9.857   4.980   2.898
 5501SOL     OW18399   6.882   0.071  13.862
 5501SOL    HW118400   6.811   0.116  13.907
 5501SOL    HW218401   6.927   0.022  13.931
 5502SOL     OW18402   5.561  12.711   1.179
 5502SOL    HW118403   5.572  12.746   1.091
 5502SOL    HW218404   5.647  12.724   1.221
 5503SOL     OW18405   1.460   7.780   8.403
 5503SOL    HW118406   1.457   7.721   8.328
 5503SOL    HW218407   1.474   7.723   8.478
 5504SOL     OW18408  11.915   1.565   3.489
 5504SOL    HW118409  12.009   1.576   3.509
 5504SOL    HW218410  11.912   1.497   3.422
 5505SOL     OW18411  12.234   1.360  10.395
 5505SOL    HW118412  12.153   1.401  10.364
 5505SOL    HW218413  12.287   1.349  10.316
 5506SOL     OW18414   8.089   7.499   4.938
 5506SOL    HW118415   8.173   7.533   4.910
 5506SOL    HW218416   8.068   7.431   4.875
 5507SOL     OW18417   3.322  11.759   5.475
 5507SOL    HW118418   3.266  11.828   5.508
 5507SOL    HW218419   3.297  11.749   5.383
 5508SOL     OW18420  10.366   2.373   8.771
 5508SOL    HW118421  10.280   2.398   8.738
 5508SOL    HW218422  10.374   2.280   8.749
 5509SOL     OW18423   7.188  14.290   3.481
 5509SOL    HW118424   7.197  14.257   3.571
 5509SOL    HW218425   7.144  14.220   3.434
 5510SOL     OW18426   1.013   8.667   5.222
 5510SOL    HW118427   1.016   8.725   5.146
 5510SOL    HW218428   0.921   8.643   5.231
 5511SOL     OW18429  11.057   5.302   1.041
 5511SOL    HW118430  11.081   5.361   0.970
 5511SOL    HW218431  11.003   5.355   1.100
 5512SOL     OW18432   9.445   3.248  11.626
 5512SOL    HW118433   9.375   3.279  11.684
 5512SOL    HW218434   9.443   3.308  11.552
 5513SOL     OW18435  12.741   8.928   5.084
 5513SOL    HW118436  12.814   8.907   5.142
 5513SOL    HW218437  12.728   9.023   5.095
 5514SOL     OW18438   1.540   3.101   8.872
 5514SOL    HW118439   1.588   3.132   8.795
 5514SOL    HW218440   1.455   3.074   8.837
 5515SOL     OW18441   6.880   5.562   2.823
 5515SOL    HW118442   6.904   5.579   2.732
 5515SOL    HW218443   6.925   5.480   2.845
 5516SOL     OW18444   0.467   5.111   4.068
 5516SOL    HW118445   0.443   5.065   4.148
 5516SOL    HW218446   0.523   5.183   4.096
 5517SOL     OW18447   9.727   2.972   0.232
 5517SOL    HW118448   9.718   2.952   0.325
 5517SOL    HW218449   9.799   2.917   0.203
 5518SOL     OW18450  14.470   8.859   3.672
 5518SOL    HW118451  14.437   8.893   3.588
 5518SOL    HW218452  14.395   8.863   3.731
 5519SOL     OW18453  13.742  11.657  13.903
 5519SOL    HW118454  13.817  11.659  13.962
 5519SOL    HW218455  13.731  11.565  13.880
 5520SOL     OW18456   2.841   8.608   1.776
 5520SOL    HW118457   2.933   8.624   1.796
 5520SOL    HW218458   2.798   8.599   1.861
 5521SOL     OW18459   6.691  14.691   9.807
 5521SOL    HW118460   6.750  14.753   9.765
 5521SOL    HW218461   6.742  14.610   9.812
 5522SOL     OW18462   9.636  11.705   7.364
 5522SOL    HW118463   9.671  11.653   7.436
 5522SOL    HW218464   9.579  11.644   7.316
 5523SOL     OW18465  10.216   1.990   1.293
 5523SOL    HW118466  10.166   2.014   1.371
 5523SOL    HW218467  10.170   2.033   1.221
 5524SOL     OW18468  14.378   7.154  14.742
 5524SOL    HW118469  14.348   7.245  14.753
 5524SOL    HW218470  14.310   7.101  14.784
 5525SOL     OW18471   8.408   4.354  10.275
 5525SOL    HW118472   8.458   4.388  10.348
 5525SOL    HW218473   8.347   4.291  10.314
 5526SOL     OW18474   6.310   8.349  14.339
 5526SOL    HW118475   6.382   8.377  14.282
 5526SOL    HW218476   6.334   8.381  14.426
 5527SOL     OW18477   1.768  14.171  12.339
 5527SOL    HW118478   1.736  14.261  12.346
 5527SOL    HW218479   1.783  14.159  12.245
 5528SOL     OW18480   3.180   3.795  11.587
 5528SOL    HW118481   3.099   3.756  11.619
 5528SOL    HW218482   3.231   3.812  11.666
 5529SOL     OW18483   3.816   3.655   2.445
 5529SOL    HW118484   3.783   3.722   2.505
 5529SOL    HW218485   3.881   3.607   2.496
 5530SOL     OW18486   3.459   9.099   8.257
 5530SOL    HW118487   3.445   9.123   8.348
 5530SOL    HW218488   3.509   9.171   8.220
 5531SOL     OW18489   1.736   5.418   0.892
 5531SOL    HW118490   1.671   5.484   0.868
 5531SOL    HW218491   1.790   5.409   0.815
 5532SOL     OW18492  14.766   0.369   0.488
 5532SOL    HW118493  14.837   0.409   0.540
 5532SOL    HW218494  14.773   0.276   0.506
 5533SOL     OW18495  12.724   8.796   4.697
 5533SOL    HW118496  12.805   8.807   4.748
 5533SOL    HW218497  12.680   8.880   4.702
 5534SOL     OW18498  11.752  14.606  14.490
 5534SOL    HW118499  11.839  14.575  14.465
 5534SOL    HW218500  11.726  14.665  14.419
 5535SOL     OW18501  11.092  13.966   4.794
 5535SOL    HW118502  11.021  13.936   4.738
 5535SOL    HW218503  11.077  13.922   4.878
 5536SOL     OW18504   6.753   6.270  13.296
 5536SOL    HW118505   6.773   6.345  13.240
 5536SOL    HW218506   6.749   6.307  13.384
 5537SOL     OW18507   3.217   1.088  10.997
 5537SOL    HW118508   3.246   1.008  10.953
 5537SOL    HW218509   3.284   1.152  10.975
 5538SOL     OW18510   4.505   9.173  11.661
 5538SOL    HW118511   4.587   9.129  11.682
 5538SOL    HW218512   4.508   9.186  11.567
 5539SOL     OW18513   1.390   8.666   6.547
 5539SOL    HW118514   1.464   8.694   6.492
 5539SOL    HW218515   1.324   8.733   6.534
 5540SOL     OW18516  12.142   6.352   5.284
 5540SOL    HW118517  12.060   6.353   5.333
 5540SOL    HW218518  12.203   6.401   5.340
 5541SOL     OW18519   6.374  12.710   6.398
 5541SOL    HW118520   6.461  12.711   6.439
 5541SOL    HW218521   6.337  12.625   6.423
 5542SOL     OW18522   8.794   8.687   7.555
 5542SOL    HW118523   8.844   8.754   7.509
 5542SOL    HW218524   8.732   8.736   7.609
 5543SOL     OW18525   8.692   1.940   6.410
 5543SOL    HW118526   8.728   1.931   6.498
 5543SOL    HW218527   8.639   1.862   6.397
 5544SOL     OW18528  13.971   7.369   8.708
 5544SOL    HW118529  14.055   7.397   8.671
 5544SOL    HW218530  13.945   7.442   8.764
 5545SOL     OW18531   7.544   1.010  10.784
 5545SOL    HW118532   7.522   0.980  10.872
 5545SOL    HW218533   7.569   0.931  10.737
 5546SOL     OW18534  12.233   2.825   9.724
 5546SOL    HW118535  12.207   2.901   9.777
 5546SOL    HW218536  12.154   2.770   9.721
 5547SOL     OW18537  10.248  11.139  12.866
 5547SOL    HW118538  10.228  11.046  12.857
 5547SOL    HW218539  10.246  11.155  12.961
 5548SOL     OW18540   5.164   4.233   4.717
 5548SOL    HW118541   5.255   4.212   4.697
 5548SOL    HW218542   5.156   4.215   4.811
 5549SOL     OW18543   3.919   7.258  10.549
 5549SOL    HW118544   3.919   7.163  10.561
 5549SOL    HW218545   4.012   7.281  10.542
 5550SOL     OW18546  10.456  10.057   9.217
 5550SOL    HW118547  10.438  10.150   9.232
 5550SOL    HW218548  10.524  10.057   9.150
 5551SOL     OW18549  13.712  11.266   3.779
 5551SOL    HW118550  13.690  11.287   3.869
 5551SOL    HW218551  13.709  11.350   3.733
 5552SOL     OW18552  11.876  14.178   6.010
 5552SOL    HW118553  11.914  14.249   6.061
 5552SOL    HW218554  11.872  14.104   6.071
 5553SOL     OW18555   7.951  12.340   2.259
 5553SOL    HW118556   7.996  12.403   2.203
 5553SOL    HW218557   7.910  12.393   2.327
 5554SOL     OW18558   2.583  14.759   0.279
 5554SOL    HW118559   2.497  14.781   0.315
 5554SOL    HW218560   2.578  14.787   0.188
 5555SOL     OW18561   8.192   2.544  10.070
 5555SOL    HW118562   8.104   2.573  10.044
 5555SOL    HW218563   8.243   2.547   9.990
 5556SOL     OW18564   6.751   5.837   4.620
 5556SOL    HW118565   6.737   5.745   4.645
 5556SOL    HW218566   6.674   5.883   4.654
 5557SOL     OW18567   9.476   4.860   9.059
 5557SOL    HW118568   9.502   4.786   9.004
 5557SOL    HW218569   9.383   4.872   9.041
 5558SOL     OW18570   8.592  12.045   7.778
 5558SOL    HW118571   8.684  12.070   7.780
 5558SOL    HW218572   8.559  12.065   7.865
 5559SOL     OW18573   3.092  10.880   6.799
 5559SOL    HW118574   2.999  10.869   6.776
 5559SOL    HW218575   3.103  10.975   6.806
 5560SOL     OW18576   9.327   4.318  13.568
 5560SOL    HW118577   9.382   4.295  13.643
 5560SOL    HW218578   9.307   4.411  13.579
 5561SOL     OW18579  13.327   9.941   5.826
 5561SOL    HW118580  13.396   9.965   5.764
 5561SOL    HW218581  13.252   9.995   5.801
 5562SOL     OW18582   4.688   2.392   5.768
 5562SOL    HW118583   4.653   2.305   5.788
 5562SOL    HW218584   4.780   2.376   5.746
 5563SOL     OW18585   6.521  14.448   4.057
 5563SOL    HW118586   6.554  14.411   3.975
 5563SOL    HW218587   6.429  14.466   4.041
 5564SOL     OW18588  11.639   8.601   7.981
 5564SOL    HW118589  11.673   8.598   7.892
 5564SOL    HW218590  11.690   8.535   8.029
 5565SOL     OW18591  10.250  12.207   6.834
 5565SOL    HW118592  10.337  12.168   6.825
 5565SOL    HW218593  10.268  12.301   6.847
 5566SOL     OW18594   3.213  12.985   9.180
 5566SOL    HW118595   3.173  12.952   9.261
 5566SOL    HW218596   3.239  12.907   9.132
 5567SOL     OW18597   5.047   7.935   3.031
 5567SOL    HW118598   4.968   7.975   3.067
 5567SOL    HW218599   5.094   8.008   2.990
 5568SOL     OW18600   6.141   2.696   6.992
 5568SOL    HW118601   6.186   2.778   6.973
 5568SOL    HW218602   6.171   2.636   6.923
 5569SOL     OW18603   2.049   6.445   7.019
 5569SOL    HW118604   1.960   6.422   7.046
 5569SOL    HW218605   2.038   6.496   6.939
 5570SOL     OW18606  10.967  14.115  13.024
 5570SOL    HW118607  10.987  14.137  13.115
 5570SOL    HW218608  11.028  14.168  12.972
 5571SOL     OW18609   5.777   4.331   6.892
 5571SOL    HW118610   5.789   4.317   6.986
 5571SOL    HW218611   5.770   4.426   6.882
 5572SOL     OW18612   2.564   3.995   6.812
 5572SOL    HW118613   2.592   4.007   6.721
 5572SOL    HW218614   2.610   4.063   6.860
 5573SOL     OW18615   0.484   5.971   2.580
 5573SOL    HW118616   0.460   5.905   2.515
 5573SOL    HW218617   0.578   5.981   2.570
 5574SOL     OW18618   7.996   4.371  12.413
 5574SOL    HW118619   8.080   4.416  12.418
 5574SOL    HW218620   8.003   4.315  12.336
 5575SOL     OW18621  14.521  12.820  13.826
 5575SOL    HW118622  14.537  12.729  13.802
 5575SOL    HW218623  14.426  12.826  13.836
 5576SOL     OW18624   1.075  10.624   7.808
 5576SOL    HW118625   1.125  10.543   7.815
 5576SOL    HW218626   1.091  10.655   7.719
 5577SOL     OW18627   1.268  12.354   7.990
 5577SOL    HW118628   1.293  12.340   7.899
 5577SOL    HW218629   1.336  12.412   8.025
 5578SOL     OW18630  10.437   6.907   8.006
 5578SOL    HW118631  10.495   6.832   8.015
 5578SOL    HW218632  10.354   6.879   8.044
 5579SOL     OW18633   7.693   9.279   2.468
 5579SOL    HW118634   7.772   9.311   2.425
 5579SOL    HW218635   7.645   9.357   2.492
 5580SOL     OW18636   5.974  11.896   4.924
 5580SOL    HW118637   6.063  11.930   4.918
 5580SOL    HW218638   5.961  11.849   4.842
 5581SOL     OW18639  11.921   5.065   0.820
 5581SOL    HW118640  11.984   5.135   0.805
 5581SOL    HW218641  11.883   5.047   0.733
 5582SOL     OW18642   9.457   1.916   1.721
 5582SOL    HW118643   9.438   1.904   1.814
 5582SOL    HW218644   9.540   1.962   1.719
 5583SOL     OW18645  12.734  10.648   9.535
 5583SOL    HW118646  12.705  10.717   9.475
 5583SOL    HW218647  12.752  10.695   9.617
 5584SOL     OW18648   9.137   3.893  14.716
 5584SOL    HW118649   9.229   3.869  14.725
 5584SOL    HW218650   9.124   3.904  14.622
 5585SOL     OW18651   9.829   0.502   5.912
 5585SOL    HW118652   9.850   0.493   5.819
 5585SOL    HW218653   9.898   0.558   5.947
 5586SOL     OW18654  13.220   6.473   6.443
 5586SOL    HW118655  13.262   6.550   6.403
 5586SOL    HW218656  13.193   6.419   6.370
 5587SOL     OW18657   8.965  13.810  11.899
 5587SOL    HW118658   8.978  13.894  11.944
 5587SOL    HW218659   8.876  13.784  11.922
 5588SOL     OW18660   1.268   8.203   3.062
 5588SOL    HW118661   1.219   8.142   3.007
 5588SOL    HW218662   1.326   8.147   3.114
 5589SOL     OW18663  11.953   9.386   9.631
 5589SOL    HW118664  12.010   9.331   9.577
 5589SOL    HW218665  11.920   9.326   9.699
 5590SOL     OW18666   5.660   1.247   5.069
 5590SOL    HW118667   5.754   1.269   5.067
 5590SOL    HW218668   5.642   1.225   5.160
 5591SOL     OW18669  10.947  13.472   4.994
 5591SOL    HW118670  10.927  13.411   5.065
 5591SOL    HW218671  11.036  13.449   4.967
 5592SOL     OW18672  11.244  13.457  12.931
 5592SOL    HW118673  11.213  13.538  12.889
 5592SOL    HW218674  11.262  13.483  13.021
 5593SOL     OW18675   0.294  14.675  11.551
 5593SOL    HW118676   0.349  14.647  11.477
 5593SOL    HW218677   0.287  14.770  11.539
 5594SOL     OW18678  10.323   1.291   0.666
 5594SOL    HW118679  10.240   1.313   0.625
 5594SOL    HW218680  10.300   1.228   0.735
 5595SOL     OW18681  12.001   2.801   6.055
 5595SOL    HW118682  11.915   2.770   6.082
 5595SOL    HW218683  11.998   2.801   5.959
 5596SOL     OW18684   5.249  12.596   9.252
 5596SOL    HW118685   5.286  12.641   9.328
 5596SOL    HW218686   5.246  12.662   9.183
 5597SOL     OW18687  11.640  11.943   0.483
 5597SOL    HW118688  11.547  11.939   0.460
 5597SOL    HW218689  11.645  11.904   0.570
 5598SOL     OW18690   0.649  11.811   6.080
 5598SOL    HW118691   0.556  11.833   6.078
 5598SOL    HW218692   0.663  11.768   6.164
 5599SOL     OW18693   7.603  12.836  13.301
 5599SOL    HW118694   7.690  12.803  13.324
 5599SOL    HW218695   7.543  12.765  13.325
 5600SOL     OW18696  14.576   8.845   2.409
 5600SOL    HW118697  14.540   8.925   2.371
 5600SOL    HW218698  14.665   8.839   2.374
 5601SOL     OW18699  11.116   4.989   7.501
 5601SOL    HW118700  11.176   5.062   7.519
 5601SOL    HW218701  11.042   5.004   7.559
 5602SOL     OW18702   1.979  14.242   5.042
 5602SOL    HW118703   1.997  14.336   5.038
 5602SOL    HW218704   2.063  14.200   5.024
 5603SOL     OW18705   4.854  14.190   5.836
 5603SOL    HW118706   4.818  14.167   5.750
 5603SOL    HW218707   4.778  14.213   5.888
 5604SOL     OW18708   7.234   3.081  13.332
 5604SOL    HW118709   7.198   2.993  13.343
 5604SOL    HW218710   7.168   3.127  13.280
 5605SOL     OW18711   6.590   8.976  10.699
 5605SOL    HW118712   6.559   9.058  10.662
 5605SOL    HW218713   6.681   8.969  10.672
 5606SOL     OW18714   9.715   1.366  11.724
 5606SOL    HW118715   9.718   1.324  11.810
 5606SOL    HW218716   9.784   1.323  11.674
 5607SOL     OW18717   4.119   1.910   2.207
 5607SOL    HW118718   4.098   1.994   2.166
 5607SOL    HW218719   4.180   1.868   2.146
 5608SOL     OW18720  10.433   2.877   7.688
 5608SOL    HW118721  10.504   2.815   7.671
 5608SOL    HW218722  10.432   2.934   7.611
 5609SOL     OW18723   0.373  13.656   7.809
 5609SOL    HW118724   0.402  13.747   7.817
 5609SOL    HW218725   0.452  13.604   7.824
 5610SOL     OW18726   4.566   1.238   4.017
 5610SOL    HW118727   4.499   1.260   4.082
 5610SOL    HW218728   4.598   1.152   4.045
 5611SOL     OW18729   6.938   3.618  12.620
 5611SOL    HW118730   6.868   3.576  12.672
 5611SOL    HW218731   6.907   3.613  12.530
 5612SOL     OW18732   5.555   0.280   8.762
 5612SOL    HW118733   5.580   0.356   8.710
 5612SOL    HW218734   5.541   0.210   8.698
 5613SOL     OW18735  10.344   3.802   1.468
 5613SOL    HW118736  10.411   3.867   1.486
 5613SOL    HW218737  10.391   3.729   1.427
 5614SOL     OW18738   5.355   2.939   8.356
 5614SOL    HW118739   5.432   2.928   8.300
 5614SOL    HW218740   5.385   2.993   8.428
 5615SOL     OW18741   4.330  12.905  11.417
 5615SOL    HW118742   4.356  12.834  11.358
 5615SOL    HW218743   4.234  12.906  11.412
 5616SOL     OW18744   1.794   5.327  11.276
 5616SOL    HW118745   1.887   5.329  11.298
 5616SOL    HW218746   1.786   5.388  11.203
 5617SOL     OW18747   3.414   8.364   3.899
 5617SOL    HW118748   3.467   8.314   3.837
 5617SOL    HW218749   3.474   8.429   3.935
 5618SOL     OW18750   9.925   6.090  12.011
 5618SOL    HW118751  10.014   6.085  11.976
 5618SOL    HW218752   9.897   5.999  12.021
 5619SOL     OW18753  11.530   0.536  14.547
 5619SOL    HW118754  11.498   0.626  14.543
 5619SOL    HW218755  11.452   0.482  14.536
 5620SOL     OW18756   4.626   9.815   8.001
 5620SOL    HW118757   4.623   9.756   7.926
 5620SOL    HW218758   4.536   9.845   8.013
 5621SOL     OW18759   2.895   3.733   1.887
 5621SOL    HW118760   2.873   3.650   1.931
 5621SOL    HW218761   2.851   3.800   1.939
 5622SOL     OW18762   8.787   2.690   2.547
 5622SOL    HW118763   8.722   2.741   2.500
 5622SOL    HW218764   8.870   2.714   2.506
 5623SOL     OW18765  10.731   7.904   7.717
 5623SOL    HW118766  10.804   7.844   7.734
 5623SOL    HW218767  10.730   7.962   7.794
 5624SOL     OW18768   6.631   4.308  12.475
 5624SOL    HW118769   6.607   4.237  12.416
 5624SOL    HW218770   6.575   4.296  12.552
 5625SOL     OW18771   6.773   7.243   8.278
 5625SOL    HW118772   6.765   7.232   8.373
 5625SOL    HW218773   6.693   7.204   8.242
 5626SOL     OW18774  14.618  13.330   1.713
 5626SOL    HW118775  14.694  13.325   1.772
 5626SOL    HW218776  14.630  13.413   1.665
 5627SOL     OW18777  12.949  14.033   5.842
 5627SOL    HW118778  12.859  14.019   5.811
 5627SOL    HW218779  12.973  13.951   5.885
 5628SOL     OW18780   5.742   4.230  14.255
 5628SOL    HW118781   5.838   4.233  14.261
 5628SOL    HW218782   5.726   4.199  14.166
 5629SOL     OW18783  12.609   6.226   6.230
 5629SOL    HW118784  12.535   6.191   6.181
 5629SOL    HW218785  12.621   6.165   6.303
 5630SOL     OW18786   2.861   3.996  13.829
 5630SOL    HW118787   2.790   3.932  13.834
 5630SOL    HW218788   2.939   3.944  13.809
 5631SOL     OW18789   9.459   9.216   9.438
 5631SOL    HW118790   9.444   9.183   9.526
 5631SOL    HW218791   9.510   9.148   9.395
 5632SOL     OW18792  11.647   1.547  11.106
 5632SOL    HW118793  11.615   1.615  11.164
 5632SOL    HW218794  11.738   1.534  11.132
 5633SOL     OW18795   3.119   5.972   1.066
 5633SOL    HW118796   3.059   5.973   0.992
 5633SOL    HW218797   3.120   5.880   1.095
 5634SOL     OW18798   2.964   1.284   1.385
 5634SOL    HW118799   3.039   1.225   1.376
 5634SOL    HW218800   2.950   1.291   1.479
 5635SOL     OW18801   6.521  13.600  10.717
 5635SOL    HW118802   6.467  13.568  10.644
 5635SOL    HW218803   6.590  13.534  10.726
 5636SOL     OW18804   3.406   8.323  11.072
 5636SOL    HW118805   3.416   8.238  11.030
 5636SOL    HW218806   3.345   8.307  11.144
 5637SOL     OW18807   1.559  10.171   4.189
 5637SOL    HW118808   1.491  10.129   4.137
 5637SOL    HW218809   1.511  10.236   4.242
 5638SOL     OW18810  10.351   0.073  11.271
 5638SOL    HW118811  10.352   0.102  11.363
 5638SOL    HW218812  10.265   0.033  11.261
 5639SOL     OW18813   9.485  11.402   1.520
 5639SOL    HW118814   9.514  11.413   1.610
 5639SOL    HW218815   9.488  11.490   1.482
 5640SOL     OW18816  13.086  11.998   5.266
 5640SOL    HW118817  13.105  12.019   5.357
 5640SOL    HW218818  13.037  12.074   5.234
 5641SOL     OW18819   7.369   3.547  10.994
 5641SOL    HW118820   7.281   3.525  11.024
 5641SOL    HW218821   7.360   3.634  10.956
 5642SOL     OW18822  11.712   0.830  14.294
 5642SOL    HW118823  11.721   0.814  14.388
 5642SOL    HW218824  11.781   0.894  14.274
 5643SOL     OW18825  14.542  12.857   7.739
 5643SOL    HW118826  14.549  12.940   7.691
 5643SOL    HW218827  14.512  12.795   7.673
 5644SOL     OW18828   5.946  14.678   4.665
 5644SOL    HW118829   5.860  14.640   4.646
 5644SOL    HW218830   5.933  14.728   4.746
 5645SOL     OW18831  10.352   9.312   2.651
 5645SOL    HW118832  10.287   9.259   2.605
 5645SOL    HW218833  10.352   9.395   2.604
 5646SOL     OW18834   9.779   0.669  13.286
 5646SOL    HW118835   9.807   0.712  13.205
 5646SOL    HW218836   9.698   0.624  13.262
 5647SOL     OW18837  13.397  13.108  10.670
 5647SOL    HW118838  13.366  13.145  10.753
 5647SOL    HW218839  13.352  13.024  10.662
 5648SOL     OW18840   9.659   6.565   8.180
 5648SOL    HW118841   9.586   6.503   8.172
 5648SOL    HW218842   9.626   6.645   8.140
 5649SOL     OW18843  13.015   6.499   3.086
 5649SOL    HW118844  13.107   6.520   3.097
 5649SOL    HW218845  12.973   6.582   3.064
 5650SOL     OW18846   8.598   9.953   5.162
 5650SOL    HW118847   8.687   9.922   5.144
 5650SOL    HW218848   8.590  10.033   5.110
 5651SOL     OW18849   2.743   2.955   1.142
 5651SOL    HW118850   2.805   2.964   1.215
 5651SOL    HW218851   2.752   3.037   1.093
 5652SOL     OW18852  14.050  14.226   1.355
 5652SOL    HW118853  13.990  14.281   1.305
 5652SOL    HW218854  14.035  14.138   1.321
 5653SOL     OW18855   6.289   4.295   4.290
 5653SOL    HW118856   6.224   4.343   4.340
 5653SOL    HW218857   6.263   4.306   4.199
 5654SOL     OW18858  10.706  12.307   6.410
 5654SOL    HW118859  10.681  12.359   6.486
 5654SOL    HW218860  10.647  12.232   6.413
 5655SOL     OW18861   0.614   9.331  12.463
 5655SOL    HW118862   0.523   9.329  12.433
 5655SOL    HW218863   0.666   9.328  12.383
 5656SOL     OW18864  12.597   8.410  14.512
 5656SOL    HW118865  12.636   8.354  14.580
 5656SOL    HW218866  12.596   8.354  14.433
 5657SOL     OW18867   5.445  11.471   4.589
 5657SOL    HW118868   5.434  11.508   4.676
 5657SOL    HW218869   5.497  11.535   4.541
 5658SOL     OW18870   1.787  13.200  11.833
 5658SOL    HW118871   1.789  13.244  11.748
 5658SOL    HW218872   1.798  13.107  11.811
 5659SOL     OW18873   6.357  14.152   2.863
 5659SOL    HW118874   6.420  14.223   2.878
 5659SOL    HW218875   6.321  14.134   2.950
 5660SOL     OW18876  14.681  12.382   5.212
 5660SOL    HW118877  14.699  12.322   5.284
 5660SOL    HW218878  14.760  12.381   5.159
 5661SOL     OW18879  10.823   0.262  10.082
 5661SOL    HW118880  10.824   0.249   9.988
 5661SOL    HW218881  10.731   0.256  10.107
 5662SOL     OW18882   7.742   1.654  12.719
 5662SOL    HW118883   7.651   1.661  12.690
 5662SOL    HW218884   7.778   1.582  12.668
 5663SOL     OW18885  13.805   4.626   0.257
 5663SOL    HW118886  13.735   4.688   0.236
 5663SOL    HW218887  13.879   4.681   0.283
 5664SOL     OW18888   9.474  12.560   5.901
 5664SOL    HW118889   9.564  12.592   5.910
 5664SOL    HW218890   9.420  12.630   5.937
 5665SOL     OW18891   3.462   0.283   9.043
 5665SOL    HW118892   3.378   0.324   9.022
 5665SOL    HW218893   3.444   0.230   9.120
 5666SOL     OW18894  10.387  13.412   2.105
 5666SOL    HW118895  10.393  13.455   2.020
 5666SOL    HW218896  10.478  13.398   2.131
 5667SOL     OW18897   3.910  12.027  12.933
 5667SOL    HW118898   3.904  12.066  13.020
 5667SOL    HW218899   3.834  12.061  12.886
 5668SOL     OW18900   9.296  11.983   6.923
 5668SOL    HW118901   9.254  12.007   6.840
 5668SOL    HW218902   9.385  12.018   6.916
 5669SOL     OW18903   0.174   2.919   5.466
 5669SOL    HW118904   0.239   2.988   5.481
 5669SOL    HW218905   0.116   2.923   5.541
 5670SOL     OW18906   9.285   0.510   7.447
 5670SOL    HW118907   9.208   0.563   7.469
 5670SOL    HW218908   9.325   0.556   7.373
 5671SOL     OW18909   5.973  12.009  13.016
 5671SOL    HW118910   5.916  12.080  12.987
 5671SOL    HW218911   5.915  11.934  13.029
 5672SOL     OW18912   8.268   9.237  14.634
 5672SOL    HW118913   8.220   9.156  14.618
 5672SOL    HW218914   8.303   9.228  14.722
 5673SOL     OW18915   3.383  10.100   8.823
 5673SOL    HW118916   3.323  10.169   8.793
 5673SOL    HW218917   3.327  10.037   8.866
 5674SOL     OW18918   8.833   3.898   5.558
 5674SOL    HW118919   8.887   3.856   5.625
 5674SOL    HW218920   8.753   3.922   5.605
 5675SOL     OW18921   4.102  12.511   8.961
 5675SOL    HW118922   4.060  12.487   9.044
 5675SOL    HW218923   4.111  12.428   8.915
 5676SOL     OW18924   5.542  10.320   1.485
 5676SOL    HW118925   5.493  10.239   1.496
 5676SOL    HW218926   5.610  10.299   1.421
 5677SOL     OW18927   4.169  12.283   3.759
 5677SOL    HW118928   4.079  12.264   3.733
 5677SOL    HW218929   4.177  12.249   3.848
 5678SOL     OW18930   2.113  13.558   4.227
 5678SOL    HW118931   2.124  13.596   4.314
 5678SOL    HW218932   2.021  13.534   4.222
 5679SOL     OW18933  12.209   5.609   7.439
 5679SOL    HW118934  12.258   5.690   7.432
 5679SOL    HW218935  12.190   5.584   7.348
 5680SOL     OW18936   8.962   0.478  12.633
 5680SOL    HW118937   8.967   0.557  12.685
 5680SOL    HW218938   8.984   0.407  12.693
 5681SOL     OW18939   9.558   6.047  12.175
 5681SOL    HW118940   9.562   6.106  12.099
 5681SOL    HW218941   9.481   5.993  12.159
 5682SOL     OW18942   8.643  14.239  12.369
 5682SOL    HW118943   8.547  14.247  12.370
 5682SOL    HW218944   8.674  14.329  12.369
 5683SOL     OW18945  10.680   4.538   3.059
 5683SOL    HW118946  10.661   4.496   3.143
 5683SOL    HW218947  10.651   4.476   2.993
 5684SOL     OW18948   3.867   4.439   2.703
 5684SOL    HW118949   3.849   4.346   2.688
 5684SOL    HW218950   3.946   4.456   2.652
 5685SOL     OW18951   6.127   8.739  12.402
 5685SOL    HW118952   6.203   8.763  12.350
 5685SOL    HW218953   6.163   8.706  12.484
 5686SOL     OW18954   3.560  11.708   8.853
 5686SOL    HW118955   3.654  11.712   8.871
 5686SOL    HW218956   3.554  11.662   8.769
 5687SOL     OW18957  10.655  13.350   8.012
 5687SOL    HW118958  10.643  13.431   7.963
 5687SOL    HW218959  10.569  13.330   8.048
 5688SOL     OW18960  11.200  12.154   0.171
 5688SOL    HW118961  11.152  12.191   0.097
 5688SOL    HW218962  11.175  12.062   0.173
 5689SOL     OW18963   8.255   8.980  12.094
 5689SOL    HW118964   8.173   8.936  12.115
 5689SOL    HW218965   8.272   9.038  12.168
 5690SOL     OW18966   1.049  11.368  13.065
 5690SOL    HW118967   1.031  11.369  13.159
 5690SOL    HW218968   0.963  11.379  13.024
 5691SOL     OW18969   6.589  10.420   2.389
 5691SOL    HW118970   6.629  10.506   2.401
 5691SOL    HW218971   6.644  10.376   2.324
 5692SOL     OW18972   2.589   6.468   7.009
 5692SOL    HW118973   2.555   6.516   6.933
 5692SOL    HW218974   2.513   6.455   7.065
 5693SOL     OW18975   6.121   8.076   1.485
 5693SOL    HW118976   6.115   8.131   1.408
 5693SOL    HW218977   6.031   8.066   1.515
 5694SOL     OW18978  10.944   8.412  14.426
 5694SOL    HW118979  10.940   8.410  14.330
 5694SOL    HW218980  11.035   8.394  14.447
 5695SOL     OW18981   7.742  14.142   8.051
 5695SOL    HW118982   7.816  14.088   8.078
 5695SOL    HW218983   7.759  14.161   7.959
 5696SOL     OW18984   6.744  14.852  13.005
 5696SOL    HW118985   6.769  14.808  12.923
 5696SOL    HW218986   6.811  14.825  13.068
 5697SOL     OW18987   2.613  14.189   0.908
 5697SOL    HW118988   2.660  14.108   0.926
 5697SOL    HW218989   2.617  14.199   0.813
 5698SOL     OW18990   3.863   8.044   3.448
 5698SOL    HW118991   3.928   7.982   3.414
 5698SOL    HW218992   3.783   7.992   3.456
 5699SOL     OW18993   0.517   3.238   3.267
 5699SOL    HW118994   0.539   3.315   3.319
 5699SOL    HW218995   0.521   3.268   3.176
 5700SOL     OW18996   1.035  11.780  12.308
 5700SOL    HW118997   1.084  11.698  12.311
 5700SOL    HW218998   1.102  11.849  12.309
 5701SOL     OW18999   9.273  14.695  14.750
 5701SOL    HW119000   9.246  14.723  14.838
 5701SOL    HW219001   9.258  14.601  14.749
 5702SOL     OW19002   8.611   8.054  11.041
 5702SOL    HW119003   8.638   8.144  11.061
 5702SOL    HW219004   8.518   8.060  11.021
 5703SOL     OW19005   1.198   9.856   8.238
 5703SOL    HW119006   1.236   9.916   8.302
 5703SOL    HW219007   1.120   9.822   8.281
 5704SOL     OW19008   7.177   1.479  12.717
 5704SOL    HW119009   7.087   1.494  12.744
 5704SOL    HW219010   7.178   1.504  12.624
 5705SOL     OW19011   1.079   0.955  12.689
 5705SOL    HW119012   1.103   0.992  12.774
 5705SOL    HW219013   1.060   0.863  12.707
 5706SOL     OW19014   0.601  12.719   9.616
 5706SOL    HW119015   0.648  12.704   9.534
 5706SOL    HW219016   0.638  12.801   9.650
 5707SOL     OW19017  10.945   1.051   0.728
 5707SOL    HW119018  10.890   1.121   0.763
 5707SOL    HW219019  11.028   1.059   0.775
 5708SOL     OW19020  13.492   2.318  10.122
 5708SOL    HW119021  13.587   2.312  10.127
 5708SOL    HW219022  13.468   2.380  10.191
 5709SOL     OW19023  10.204  13.293   7.885
 5709SOL    HW119024  10.123  13.334   7.854
 5709SOL    HW219025  10.174  13.213   7.930
 5710SOL     OW19026   3.478   6.891  12.497
 5710SOL    HW119027   3.445   6.886  12.407
 5710SOL    HW219028   3.475   6.801  12.529
 5711SOL     OW19029  14.874   9.963   5.545
 5711SOL    HW119030  14.842   9.937   5.459
 5711SOL    HW219031  14.800   9.946   5.604
 5712SOL     OW19032  10.886   3.411   7.682
 5712SOL    HW119033  10.817   3.400   7.747
 5712SOL    HW219034  10.863   3.491   7.636
 5713SOL     OW19035  10.901   4.946   3.304
 5713SOL    HW119036  10.928   4.956   3.395
 5713SOL    HW219037  10.806   4.937   3.307
 5714SOL     OW19038   5.312  11.289   3.839
 5714SOL    HW119039   5.268  11.302   3.755
 5714SOL    HW219040   5.395  11.337   3.831
 5715SOL     OW19041   6.063   7.073   8.116
 5715SOL    HW119042   6.109   6.989   8.124
 5715SOL    HW219043   6.088   7.120   8.196
 5716SOL     OW19044   4.359   0.005   5.221
 5716SOL    HW119045   4.321  14.813   5.274
 5716SOL    HW219046   4.429  14.840   5.172
 5717SOL     OW19047  12.816   5.828   6.836
 5717SOL    HW119048  12.722   5.838   6.820
 5717SOL    HW219049  12.829   5.864   6.924
 5718SOL     OW19050   9.675  14.760   6.201
 5718SOL    HW119051   9.725  14.823   6.148
 5718SOL    HW219052   9.738  14.725   6.263
 5719SOL     OW19053  12.270   1.162  14.077
 5719SOL    HW119054  12.303   1.073  14.090
 5719SOL    HW219055  12.348   1.217  14.083
 5720SOL     OW19056   9.542   5.798  13.330
 5720SOL    HW119057   9.551   5.814  13.236
 5720SOL    HW219058   9.525   5.884  13.368
 5721SOL     OW19059  10.120  12.451   8.557
 5721SOL    HW119060  10.188  12.501   8.602
 5721SOL    HW219061  10.049  12.514   8.543
 5722SOL     OW19062  11.935   4.978   7.960
 5722SOL    HW119063  11.858   4.996   8.014
 5722SOL    HW219064  11.914   5.017   7.875
 5723SOL     OW19065   2.901  14.048   8.639
 5723SOL    HW119066   2.821  14.012   8.678
 5723SOL    HW219067   2.877  14.137   8.612
 5724SOL     OW19068   1.192   3.757   4.273
 5724SOL    HW119069   1.272   3.729   4.227
 5724SOL    HW219070   1.141   3.803   4.206
 5725SOL     OW19071   9.125   3.268   0.447
 5725SOL    HW119072   9.066   3.193   0.442
 5725SOL    HW219073   9.113   3.313   0.363
 5726SOL     OW19074   5.301   6.574  13.083
 5726SOL    HW119075   5.373   6.538  13.134
 5726SOL    HW219076   5.335   6.581  12.994
 5727SOL     OW19077   4.298  11.827  10.009
 5727SOL    HW119078   4.326  11.760   9.947
 5727SOL    HW219079   4.349  11.808  10.088
 5728SOL     OW19080  11.354  14.774   0.432
 5728SOL    HW119081  11.417  14.735   0.371
 5728SOL    HW219082  11.360  14.718   0.510
 5729SOL     OW19083   8.903  14.346   8.714
 5729SOL    HW119084   8.906  14.370   8.806
 5729SOL    HW219085   8.918  14.428   8.667
 5730SOL     OW19086  10.779   9.862   8.860
 5730SOL    HW119087  10.770   9.796   8.792
 5730SOL    HW219088  10.806   9.812   8.938
 5731SOL     OW19089   4.159   6.678   7.401
 5731SOL    HW119090   4.094   6.719   7.345
 5731SOL    HW219091   4.115   6.602   7.438
 5732SOL     OW19092  12.082   7.315   0.902
 5732SOL    HW119093  12.005   7.259   0.892
 5732SOL    HW219094  12.157   7.255   0.896
 5733SOL     OW19095  13.237  12.812  10.350
 5733SOL    HW119096  13.311  12.865  10.321
 5733SOL    HW219097  13.193  12.786  10.269
 5734SOL     OW19098  13.520   3.178   6.754
 5734SOL    HW119099  13.449   3.181   6.691
 5734SOL    HW219100  13.516   3.089   6.790
 5735SOL     OW19101  14.636   7.376  10.575
 5735SOL    HW119102  14.704   7.431  10.536
 5735SOL    HW219103  14.627   7.302  10.514
 5736SOL     OW19104   8.911   8.194   8.343
 5736SOL    HW119105   8.940   8.225   8.257
 5736SOL    HW219106   8.991   8.187   8.395
 5737SOL     OW19107  11.040  10.890  14.374
 5737SOL    HW119108  10.973  10.950  14.406
 5737SOL    HW219109  11.077  10.933  14.297
 5738SOL     OW19110  10.564  14.773  11.282
 5738SOL    HW119111  10.581  14.775  11.188
 5738SOL    HW219112  10.494  14.837  11.295
 5739SOL     OW19113  13.580  10.308   4.636
 5739SOL    HW119114  13.601  10.341   4.548
 5739SOL    HW219115  13.500  10.258   4.624
 5740SOL     OW19116  11.435   5.112   6.139
 5740SOL    HW119117  11.354   5.080   6.177
 5740SOL    HW219118  11.410   5.144   6.052
 5741SOL     OW19119   8.498   8.129   3.989
 5741SOL    HW119120   8.555   8.122   4.065
 5741SOL    HW219121   8.549   8.093   3.917
 5742SOL     OW19122   4.838   0.107   3.535
 5742SOL    HW119123   4.869   0.031   3.585
 5742SOL    HW219124   4.784   0.069   3.466
 5743SOL     OW19125   3.275   1.567   5.240
 5743SOL    HW119126   3.218   1.644   5.245
 5743SOL    HW219127   3.301   1.563   5.148
 5744SOL     OW19128   7.177   2.535  11.436
 5744SOL    HW119129   7.250   2.594  11.453
 5744SOL    HW219130   7.156   2.547  11.344
 5745SOL     OW19131  14.605   8.868   9.615
 5745SOL    HW119132  14.541   8.916   9.668
 5745SOL    HW219133  14.666   8.832   9.679
 5746SOL     OW19134   7.390  10.388   0.117
 5746SOL    HW119135   7.474  10.343   0.112
 5746SOL    HW219136   7.358  10.391   0.027
 5747SOL     OW19137  13.481   9.189  11.335
 5747SOL    HW119138  13.527   9.113  11.371
 5747SOL    HW219139  13.419   9.152  11.272
 5748SOL     OW19140   1.402   6.086   1.582
 5748SOL    HW119141   1.362   6.000   1.566
 5748SOL    HW219142   1.361   6.117   1.663
 5749SOL     OW19143   7.612   0.800   0.184
 5749SOL    HW119144   7.614   0.764   0.096
 5749SOL    HW219145   7.577   0.729   0.239
 5750SOL     OW19146  14.189  12.492  12.304
 5750SOL    HW119147  14.122  12.510  12.370
 5750SOL    HW219148  14.230  12.411  12.333
 5751SOL     OW19149   0.778   2.799   1.869
 5751SOL    HW119150   0.841   2.869   1.884
 5751SOL    HW219151   0.817   2.745   1.800
 5752SOL     OW19152   0.672   2.770   7.705
 5752SOL    HW119153   0.650   2.748   7.614
 5752SOL    HW219154   0.732   2.845   7.697
 5753SOL     OW19155   6.373   8.220   5.810
 5753SOL    HW119156   6.312   8.226   5.736
 5753SOL    HW219157   6.432   8.149   5.786
 5754SOL     OW19158   8.490   5.857  10.856
 5754SOL    HW119159   8.394   5.860  10.861
 5754SOL    HW219160   8.511   5.895  10.771
 5755SOL     OW19161  14.018  10.798   7.321
 5755SOL    HW119162  13.991  10.753   7.401
 5755SOL    HW219163  13.939  10.799   7.266
 5756SOL     OW19164  14.035   4.861   7.829
 5756SOL    HW119165  14.048   4.766   7.836
 5756SOL    HW219166  14.118   4.898   7.860
 5757SOL     OW19167   6.405   1.352   7.462
 5757SOL    HW119168   6.442   1.436   7.433
 5757SOL    HW219169   6.443   1.337   7.548
 5758SOL     OW19170  14.868   5.194   6.815
 5758SOL    HW119171  14.848   5.146   6.734
 5758SOL    HW219172  14.812   5.271   6.812
 5759SOL     OW19173  10.906   3.463  11.959
 5759SOL    HW119174  10.834   3.502  11.910
 5759SOL    HW219175  10.899   3.369  11.941
 5760SOL     OW19176   0.566   3.032   4.746
 5760SOL    HW119177   0.515   3.109   4.719
 5760SOL    HW219178   0.530   3.008   4.831
 5761SOL     OW19179  10.301   0.156  13.291
 5761SOL    HW119180  10.247   0.131  13.366
 5761SOL    HW219181  10.387   0.176  13.330
 5762SOL     OW19182  11.149  13.145  10.377
 5762SOL    HW119183  11.080  13.078  10.373
 5762SOL    HW219184  11.219  13.111  10.322
 5763SOL     OW19185   1.014  14.127  13.439
 5763SOL    HW119186   1.034  14.050  13.386
 5763SOL    HW219187   0.957  14.095  13.508
 5764SOL     OW19188   2.877  12.386   6.618
 5764SOL    HW119189   2.833  12.370   6.702
 5764SOL    HW219190   2.867  12.303   6.571
 5765SOL     OW19191   5.956   4.950   2.866
 5765SOL    HW119192   5.990   4.900   2.941
 5765SOL    HW219193   5.892   5.010   2.905
 5766SOL     OW19194  14.713   4.274   4.026
 5766SOL    HW119195  14.706   4.363   3.991
 5766SOL    HW219196  14.795   4.274   4.074
 5767SOL     OW19197   5.779  14.354   5.555
 5767SOL    HW119198   5.800  14.260   5.556
 5767SOL    HW219199   5.701  14.361   5.500
 5768SOL     OW19200   5.922   0.639   8.385
 5768SOL    HW119201   5.972   0.693   8.446
 5768SOL    HW219202   5.960   0.657   8.299
 5769SOL     OW19203   6.342  12.587   0.211
 5769SOL    HW119204   6.343  12.496   0.182
 5769SOL    HW219205   6.256  12.620   0.185
 5770SOL     OW19206  11.239   3.069   7.310
 5770SOL    HW119207  11.332   3.065   7.286
 5770SOL    HW219208  11.225   2.988   7.360
 5771SOL     OW19209   5.304  12.286   7.894
 5771SOL    HW119210   5.294  12.218   7.960
 5771SOL    HW219211   5.361  12.351   7.935
 5772SOL     OW19212   9.097   2.040   5.450
 5772SOL    HW119213   9.187   2.073   5.440
 5772SOL    HW219214   9.079   2.049   5.544
 5773SOL     OW19215   6.096   7.147   9.138
 5773SOL    HW119216   6.158   7.157   9.211
 5773SOL    HW219217   6.104   7.056   9.112
 5774SOL     OW19218   0.826   5.202   2.374
 5774SOL    HW119219   0.834   5.268   2.442
 5774SOL    HW219220   0.858   5.121   2.414
 5775SOL     OW19221   7.444  12.079   7.050
 5775SOL    HW119222   7.493  12.099   6.971
 5775SOL    HW219223   7.476  11.993   7.078
 5776SOL     OW19224   6.204   2.321  10.204
 5776SOL    HW119225   6.164   2.301  10.289
 5776SOL    HW219226   6.216   2.416  10.205
 5777SOL     OW19227   9.432  12.460   3.378
 5777SOL    HW119228   9.372  12.452   3.304
 5777SOL    HW219229   9.461  12.551   3.376
 5778SOL     OW19230   1.378  11.196   0.924
 5778SOL    HW119231   1.369  11.202   0.829
 5778SOL    HW219232   1.461  11.150   0.937
 5779SOL     OW19233  14.492   4.161  14.219
 5779SOL    HW119234  14.540   4.198  14.145
 5779SOL    HW219235  14.431   4.230  14.245
 5780SOL     OW19236   5.767  13.659   0.167
 5780SOL    HW119237   5.850  13.672   0.122
 5780SOL    HW219238   5.704  13.639   0.098
 5781SOL     OW19239   7.161   8.392   1.203
 5781SOL    HW119240   7.192   8.339   1.276
 5781SOL    HW219241   7.074   8.422   1.229
 5782SOL     OW19242   3.839   7.109  11.518
 5782SOL    HW119243   3.806   7.069  11.599
 5782SOL    HW219244   3.761   7.117  11.463
 5783SOL     OW19245  12.940   1.824   9.599
 5783SOL    HW119246  13.016   1.857   9.551
 5783SOL    HW219247  12.918   1.895   9.660
 5784SOL     OW19248   8.897  11.567  10.718
 5784SOL    HW119249   8.937  11.567  10.805
 5784SOL    HW219250   8.893  11.474  10.694
 5785SOL     OW19251  10.256  12.567  12.767
 5785SOL    HW119252  10.254  12.602  12.678
 5785SOL    HW219253  10.284  12.476  12.756
 5786SOL     OW19254   0.073   5.271   9.452
 5786SOL    HW119255   0.083   5.328   9.375
 5786SOL    HW219256   0.054   5.331   9.524
 5787SOL     OW19257  10.467  13.868  12.969
 5787SOL    HW119258  10.421  13.842  12.889
 5787SOL    HW219259  10.512  13.789  12.997
 5788SOL     OW19260  13.020   2.917   2.609
 5788SOL    HW119261  12.964   2.847   2.575
 5788SOL    HW219262  13.070   2.946   2.532
 5789SOL     OW19263   6.209   9.979   1.012
 5789SOL    HW119264   6.233   9.929   0.934
 5789SOL    HW219265   6.273   9.952   1.078
 5790SOL     OW19266   8.216   9.084  13.723
 5790SOL    HW119267   8.165   9.044  13.794
 5790SOL    HW219268   8.164   9.159  13.696
 5791SOL     OW19269   1.169  10.431   1.461
 5791SOL    HW119270   1.255  10.460   1.490
 5791SOL    HW219271   1.186  10.354   1.407
 5792SOL     OW19272   8.015   8.923   8.825
 5792SOL    HW119273   7.926   8.904   8.857
 5792SOL    HW219274   8.065   8.941   8.905
 5793SOL     OW19275   9.611   0.815   6.332
 5793SOL    HW119276   9.532   0.786   6.287
 5793SOL    HW219277   9.592   0.905   6.359
 5794SOL     OW19278   1.986  12.930  13.926
 5794SOL    HW119279   2.059  12.971  13.880
 5794SOL    HW219280   1.911  12.987  13.909
 5795SOL     OW19281  13.638   5.706  10.176
 5795SOL    HW119282  13.652   5.777  10.112
 5795SOL    HW219283  13.713   5.711  10.234
 5796SOL     OW19284  10.292   7.040  10.901
 5796SOL    HW119285  10.310   6.962  10.952
 5796SOL    HW219286  10.345   7.030  10.821
 5797SOL     OW19287   2.778   0.793  10.965
 5797SOL    HW119288   2.733   0.710  10.946
 5797SOL    HW219289   2.867   0.778  10.933
 5798SOL     OW19290   6.737   7.052  12.896
 5798SOL    HW119291   6.669   7.106  12.855
 5798SOL    HW219292   6.773   7.108  12.966
 5799SOL     OW19293   5.558   4.527  13.090
 5799SOL    HW119294   5.555   4.598  13.026
 5799SOL    HW219295   5.481   4.541  13.145
 5800SOL     OW19296   3.459  14.533   3.529
 5800SOL    HW119297   3.453  14.562   3.620
 5800SOL    HW219298   3.552  14.512   3.517
 5801SOL     OW19299   8.366   8.328   0.593
 5801SOL    HW119300   8.299   8.263   0.614
 5801SOL    HW219301   8.445   8.296   0.637
 5802SOL     OW19302   9.631  11.915   3.127
 5802SOL    HW119303   9.656  11.906   3.219
 5802SOL    HW219304   9.552  11.969   3.129
 5803SOL     OW19305   7.783   9.362   2.780
 5803SOL    HW119306   7.801   9.436   2.722
 5803SOL    HW219307   7.870   9.333   2.810
 5804SOL     OW19308   3.458   2.684   6.166
 5804SOL    HW119309   3.379   2.737   6.162
 5804SOL    HW219310   3.468   2.651   6.076
 5805SOL     OW19311   6.009   6.685   9.973
 5805SOL    HW119312   6.099   6.653   9.972
 5805SOL    HW219313   6.007   6.747  10.046
 5806SOL     OW19314   8.015   9.312   4.502
 5806SOL    HW119315   8.052   9.352   4.581
 5806SOL    HW219316   7.930   9.354   4.491
 5807SOL     OW19317   7.818  11.187   2.307
 5807SOL    HW119318   7.739  11.154   2.351
 5807SOL    HW219319   7.862  11.238   2.375
 5808SOL     OW19320   5.694   2.737   2.150
 5808SOL    HW119321   5.682   2.711   2.241
 5808SOL    HW219322   5.609   2.771   2.123
 5809SOL     OW19323   0.429   4.111   9.610
 5809SOL    HW119324   0.340   4.082   9.625
 5809SOL    HW219325   0.481   4.067   9.678
 5810SOL     OW19326  10.219   6.595  14.664
 5810SOL    HW119327  10.223   6.685  14.632
 5810SOL    HW219328  10.157   6.599  14.737
 5811SOL     OW19329   4.642   2.666   1.813
 5811SOL    HW119330   4.624   2.680   1.905
 5811SOL    HW219331   4.736   2.646   1.809
 5812SOL     OW19332  11.926   2.039   0.301
 5812SOL    HW119333  12.021   2.048   0.313
 5812SOL    HW219334  11.911   2.065   0.210
 5813SOL     OW19335   4.036  14.147   8.526
 5813SOL    HW119336   3.980  14.203   8.473
 5813SOL    HW219337   3.978  14.112   8.594
 5814SOL     OW19338   3.378   1.494   9.568
 5814SOL    HW119339   3.461   1.446   9.569
 5814SOL    HW219340   3.311   1.425   9.567
 5815SOL     OW19341   9.185  11.092  10.200
 5815SOL    HW119342   9.259  11.074  10.258
 5815SOL    HW219343   9.123  11.022  10.218
 5816SOL     OW19344   6.116  10.747   8.223
 5816SOL    HW119345   6.106  10.746   8.128
 5816SOL    HW219346   6.170  10.824   8.241
 5817SOL     OW19347   0.059   5.325   9.841
 5817SOL    HW119348   0.087   5.240   9.807
 5817SOL    HW219349  14.851   5.308   9.881
 5818SOL     OW19350   4.617   2.302   1.341
 5818SOL    HW119351   4.580   2.307   1.429
 5818SOL    HW219352   4.565   2.236   1.297
 5819SOL     OW19353   7.215   1.537   6.625
 5819SOL    HW119354   7.217   1.445   6.602
 5819SOL    HW219355   7.163   1.540   6.706
 5820SOL     OW19356   6.339   0.236  14.586
 5820SOL    HW119357   6.364   0.318  14.543
 5820SOL    HW219358   6.252   0.216  14.552
 5821SOL     OW19359   1.114   5.056   1.210
 5821SOL    HW119360   1.072   4.971   1.198
 5821SOL    HW219361   1.041   5.118   1.218
 5822SOL     OW19362  14.414   9.937   0.496
 5822SOL    HW119363  14.322   9.946   0.518
 5822SOL    HW219364  14.414   9.909   0.404
 5823SOL     OW19365   7.489   8.627   1.931
 5823SOL    HW119366   7.528   8.603   2.015
 5823SOL    HW219367   7.562   8.655   1.878
 5824SOL     OW19368   5.094   8.758   2.661
 5824SOL    HW119369   5.049   8.680   2.694
 5824SOL    HW219370   5.078   8.758   2.567
 5825SOL     OW19371  10.988   2.023   7.744
 5825SOL    HW119372  10.910   1.976   7.713
 5825SOL    HW219373  11.057   1.956   7.745
 5826SOL     OW19374  13.679   5.287   7.890
 5826SOL    HW119375  13.740   5.361   7.890
 5826SOL    HW219376  13.733   5.210   7.908
 5827SOL     OW19377  12.887   6.226  11.333
 5827SOL    HW119378  12.908   6.229  11.239
 5827SOL    HW219379  12.792   6.210  11.335
 5828SOL     OW19380   4.091  10.959   4.304
 5828SOL    HW119381   4.083  10.994   4.393
 5828SOL    HW219382   4.046  10.874   4.308
 5829SOL     OW19383   5.674  10.124   9.860
 5829SOL    HW119384   5.616  10.171   9.921
 5829SOL    HW219385   5.726  10.067   9.917
 5830SOL     OW19386  11.275   4.721   5.092
 5830SOL    HW119387  11.200   4.737   5.149
 5830SOL    HW219388  11.281   4.799   5.038
 5831SOL     OW19389  10.959   1.474   7.784
 5831SOL    HW119390  10.988   1.383   7.791
 5831SOL    HW219391  11.024   1.524   7.833
 5832SOL     OW19392   0.290   2.496  12.323
 5832SOL    HW119393   0.334   2.436  12.383
 5832SOL    HW219394   0.275   2.444  12.243
 5833SOL     OW19395  12.326   6.615   5.761
 5833SOL    HW119396  12.335   6.688   5.699
 5833SOL    HW219397  12.388   6.635   5.831
 5834SOL     OW19398  10.695   0.758   0.235
 5834SOL    HW119399  10.677   0.773   0.328
 5834SOL    HW219400  10.610   0.737   0.197
 5835SOL     OW19401   7.514   8.201   2.344
 5835SOL    HW119402   7.608   8.217   2.331
 5835SOL    HW219403   7.504   8.198   2.439
 5836SOL     OW19404   1.008   2.229   3.456
 5836SOL    HW119405   0.936   2.285   3.487
 5836SOL    HW219406   0.964   2.158   3.409
 5837SOL     OW19407  13.606   0.547  12.432
 5837SOL    HW119408  13.544   0.541  12.360
 5837SOL    HW219409  13.664   0.619  12.408
 5838SOL     OW19410   7.572   4.862   0.984
 5838SOL    HW119411   7.645   4.864   0.922
 5838SOL    HW219412   7.509   4.925   0.949
 5839SOL     OW19413   2.788  12.176   7.120
 5839SOL    HW119414   2.870  12.194   7.166
 5839SOL    HW219415   2.750  12.263   7.104
 5840SOL     OW19416  10.698   3.602   4.676
 5840SOL    HW119417  10.662   3.613   4.589
 5840SOL    HW219418  10.671   3.514   4.703
 5841SOL     OW19419   3.874   7.116   3.972
 5841SOL    HW119420   3.960   7.157   3.966
 5841SOL    HW219421   3.890   7.022   3.962
 5842SOL     OW19422   7.891   3.887   2.510
 5842SOL    HW119423   7.885   3.924   2.598
 5842SOL    HW219424   7.876   3.961   2.452
 5843SOL     OW19425  11.323   7.425  13.386
 5843SOL    HW119426  11.259   7.390  13.448
 5843SOL    HW219427  11.405   7.383  13.409
 5844SOL     OW19428   6.232  11.386  10.106
 5844SOL    HW119429   6.296  11.439  10.154
 5844SOL    HW219430   6.234  11.301  10.149
 5845SOL     OW19431  14.096   6.551  13.923
 5845SOL    HW119432  14.143   6.547  14.006
 5845SOL    HW219433  14.096   6.643  13.899
 5846SOL     OW19434   6.216   5.184   4.045
 5846SOL    HW119435   6.178   5.159   4.129
 5846SOL    HW219436   6.191   5.276   4.034
 5847SOL     OW19437   2.534   4.641   8.528
 5847SOL    HW119438   2.531   4.688   8.612
 5847SOL    HW219439   2.599   4.688   8.477
 5848SOL     OW19440   7.278   8.872   4.780
 5848SOL    HW119441   7.249   8.952   4.736
 5848SOL    HW219442   7.258   8.888   4.873
 5849SOL     OW19443  10.052   3.346   6.841
 5849SOL    HW119444  10.010   3.263   6.817
 5849SOL    HW219445  10.068   3.339   6.935
 5850SOL     OW19446  13.506   5.658   4.483
 5850SOL    HW119447  13.452   5.585   4.515
 5850SOL    HW219448  13.571   5.671   4.552
 5851SOL     OW19449  10.807   7.328   4.633
 5851SOL    HW119450  10.855   7.273   4.695
 5851SOL    HW219451  10.876   7.369   4.581
 5852SOL     OW19452   5.625   2.227  14.463
 5852SOL    HW119453   5.619   2.171  14.541
 5852SOL    HW219454   5.535   2.246  14.440
 5853SOL     OW19455   7.925  14.704   2.975
 5853SOL    HW119456   7.929  14.608   2.978
 5853SOL    HW219457   7.838  14.723   2.938
 5854SOL     OW19458   4.725   4.301  12.103
 5854SOL    HW119459   4.649   4.347  12.139
 5854SOL    HW219460   4.713   4.307  12.008
 5855SOL     OW19461   7.449   1.642   4.823
 5855SOL    HW119462   7.486   1.626   4.910
 5855SOL    HW219463   7.365   1.685   4.840
 5856SOL     OW19464  11.406   5.800  13.083
 5856SOL    HW119465  11.391   5.866  13.015
 5856SOL    HW219466  11.443   5.725  13.036
 5857SOL     OW19467  11.409   4.618   7.963
 5857SOL    HW119468  11.491   4.661   7.989
 5857SOL    HW219469  11.341   4.683   7.983
 5858SOL     OW19470  10.543   0.129   3.333
 5858SOL    HW119471  10.525   0.176   3.415
 5858SOL    HW219472  10.457   0.116   3.293
 5859SOL     OW19473   2.029   7.613   4.106
 5859SOL    HW119474   2.051   7.555   4.179
 5859SOL    HW219475   1.977   7.683   4.146
 5860SOL     OW19476   8.983   8.407   9.683
 5860SOL    HW119477   9.070   8.401   9.721
 5860SOL    HW219478   8.955   8.317   9.671
 5861SOL     OW19479   4.473   6.422   2.565
 5861SOL    HW119480   4.533   6.477   2.615
 5861SOL    HW219481   4.529   6.360   2.519
 5862SOL     OW19482  13.301   2.219   7.927
 5862SOL    HW119483  13.213   2.180   7.929
 5862SOL    HW219484  13.309   2.262   8.012
 5863SOL     OW19485  11.999   7.554   4.962
 5863SOL    HW119486  12.023   7.467   4.930
 5863SOL    HW219487  12.036   7.558   5.051
 5864SOL     OW19488   8.128  13.957  13.235
 5864SOL    HW119489   8.129  13.868  13.199
 5864SOL    HW219490   8.198  13.958  13.300
 5865SOL     OW19491   5.580   1.121   4.192
 5865SOL    HW119492   5.515   1.085   4.252
 5865SOL    HW219493   5.550   1.093   4.105
 5866SOL     OW19494   2.481   9.653   8.455
 5866SOL    HW119495   2.431   9.672   8.535
 5866SOL    HW219496   2.563   9.701   8.467
 5867SOL     OW19497  12.281   3.931  13.913
 5867SOL    HW119498  12.363   3.883  13.922
 5867SOL    HW219499  12.296   3.992  13.841
 5868SOL     OW19500  12.852   3.898  12.482
 5868SOL    HW119501  12.877   3.848  12.403
 5868SOL    HW219502  12.825   3.831  12.545
 5869SOL     OW19503   1.117   8.461   8.518
 5869SOL    HW119504   1.208   8.444   8.543
 5869SOL    HW219505   1.076   8.375   8.517
 5870SOL     OW19506  12.299   9.823  11.745
 5870SOL    HW119507  12.237   9.889  11.713
 5870SOL    HW219508  12.266   9.741  11.707
 5871SOL     OW19509   6.117   2.883   0.600
 5871SOL    HW119510   6.184   2.861   0.665
 5871SOL    HW219511   6.167   2.910   0.523
 5872SOL     OW19512   2.122   9.971   8.223
 5872SOL    HW119513   2.115   9.939   8.133
 5872SOL    HW219514   2.098   9.895   8.277
 5873SOL     OW19515   9.892   8.661   9.972
 5873SOL    HW119516   9.925   8.636   9.886
 5873SOL    HW219517   9.801   8.630   9.973
 5874SOL     OW19518   6.501   0.846  14.742
 5874SOL    HW119519   6.595   0.863  14.745
 5874SOL    HW219520   6.461   0.932  14.741
 5875SOL     OW19521   8.335   4.555  11.640
 5875SOL    HW119522   8.239   4.547  11.640
 5875SOL    HW219523   8.355   4.597  11.557
 5876SOL     OW19524  13.581  12.551   4.881
 5876SOL    HW119525  13.534  12.469   4.896
 5876SOL    HW219526  13.515  12.619   4.890
 5877SOL     OW19527   4.745  10.204   9.024
 5877SOL    HW119528   4.809  10.275   9.022
 5877SOL    HW219529   4.768  10.153   9.102
 5878SOL     OW19530  13.623   6.853   1.394
 5878SOL    HW119531  13.682   6.794   1.441
 5878SOL    HW219532  13.585   6.909   1.462
 5879SOL     OW19533   6.843   5.328   8.357
 5879SOL    HW119534   6.924   5.346   8.405
 5879SOL    HW219535   6.865   5.348   8.266
 5880SOL     OW19536   1.264   3.370  12.116
 5880SOL    HW119537   1.235   3.282  12.090
 5880SOL    HW219538   1.355   3.374  12.088
 5881SOL     OW19539   9.248   5.880   6.097
 5881SOL    HW119540   9.187   5.823   6.144
 5881SOL    HW219541   9.200   5.961   6.085
 5882SOL     OW19542   3.688  13.429   4.240
 5882SOL    HW119543   3.747  13.469   4.303
 5882SOL    HW219544   3.638  13.502   4.204
 5883SOL     OW19545   7.676  11.092   7.740
 5883SOL    HW119546   7.616  11.092   7.814
 5883SOL    HW219547   7.670  11.180   7.704
 5884SOL     OW19548   7.893  14.005   7.366
 5884SOL    HW119549   7.904  13.943   7.295
 5884SOL    HW219550   7.803  14.037   7.357
 5885SOL     OW19551   6.328   1.558   5.067
 5885SOL    HW119552   6.261   1.497   5.036
 5885SOL    HW219553   6.280   1.619   5.123
 5886SOL     OW19554   5.217   4.810   8.651
 5886SOL    HW119555   5.260   4.885   8.691
 5886SOL    HW219556   5.127   4.838   8.635
 5887SOL     OW19557   8.311  13.910   2.940
 5887SOL    HW119558   8.385  13.971   2.948
 5887SOL    HW219559   8.281  13.897   3.030
 5888SOL     OW19560   3.675   9.235  12.705
 5888SOL    HW119561   3.678   9.298  12.632
 5888SOL    HW219562   3.589   9.194  12.698
 5889SOL     OW19563   5.925   3.443   9.204
 5889SOL    HW119564   5.958   3.353   9.206
 5889SOL    HW219565   5.858   3.443   9.137
 5890SOL     OW19566   1.194  11.785   7.398
 5890SOL    HW119567   1.253  11.714   7.421
 5890SOL    HW219568   1.252  11.857   7.372
 5891SOL     OW19569  10.877   3.396  11.514
 5891SOL    HW119570  10.797   3.360  11.553
 5891SOL    HW219571  10.936   3.322  11.507
 5892SOL     OW19572  11.469   9.186   9.746
 5892SOL    HW119573  11.488   9.136   9.667
 5892SOL    HW219574  11.455   9.275   9.715
 5893SOL     OW19575   8.414   1.824   5.556
 5893SOL    HW119576   8.498   1.821   5.511
 5893SOL    HW219577   8.373   1.905   5.527
 5894SOL     OW19578   2.287   0.338   3.092
 5894SOL    HW119579   2.210   0.368   3.140
 5894SOL    HW219580   2.335   0.419   3.071
 5895SOL     OW19581   6.115  12.191   8.383
 5895SOL    HW119582   6.071  12.268   8.347
 5895SOL    HW219583   6.044  12.136   8.415
 5896SOL     OW19584  12.260   1.353  12.132
 5896SOL    HW119585  12.261   1.432  12.186
 5896SOL    HW219586  12.322   1.371  12.061
 5897SOL     OW19587   3.468  14.183   1.128
 5897SOL    HW119588   3.523  14.156   1.054
 5897SOL    HW219589   3.520  14.250   1.173
 5898SOL     OW19590   6.828  13.602  12.243
 5898SOL    HW119591   6.748  13.552  12.252
 5898SOL    HW219592   6.853  13.591  12.151
 5899SOL     OW19593   2.422   1.142  11.863
 5899SOL    HW119594   2.472   1.073  11.819
 5899SOL    HW219595   2.331   1.115  11.855
 5900SOL     OW19596  14.671   9.465   0.877
 5900SOL    HW119597  14.730   9.396   0.845
 5900SOL    HW219598  14.658   9.444   0.969
 5901SOL     OW19599   0.129   8.707   4.624
 5901SOL    HW119600   0.189   8.678   4.555
 5901SOL    HW219601   0.053   8.650   4.615
 5902SOL     OW19602  13.444   9.909   3.910
 5902SOL    HW119603  13.464   9.956   3.829
 5902SOL    HW219604  13.392   9.971   3.962
 5903SOL     OW19605   7.656   1.904   9.012
 5903SOL    HW119606   7.583   1.947   8.967
 5903SOL    HW219607   7.642   1.924   9.104
 5904SOL     OW19608   1.546   8.623   9.127
 5904SOL    HW119609   1.605   8.552   9.104
 5904SOL    HW219610   1.575   8.651   9.215
 5905SOL     OW19611   7.425  13.293  11.590
 5905SOL    HW119612   7.446  13.312  11.499
 5905SOL    HW219613   7.458  13.367  11.639
 5906SOL     OW19614   3.840  10.354  14.516
 5906SOL    HW119615   3.800  10.439  14.500
 5906SOL    HW219616   3.792  10.319  14.592
 5907SOL     OW19617   7.943  11.461   0.827
 5907SOL    HW119618   7.990  11.529   0.778
 5907SOL    HW219619   7.923  11.394   0.762
 5908SOL     OW19620   1.497   2.035  14.172
 5908SOL    HW119621   1.527   1.954  14.131
 5908SOL    HW219622   1.427   2.067  14.114
 5909SOL     OW19623   9.506  11.058   4.760
 5909SOL    HW119624   9.547  10.995   4.819
 5909SOL    HW219625   9.554  11.048   4.678
 5910SOL     OW19626  11.917   9.754  10.964
 5910SOL    HW119627  11.925   9.836  11.013
 5910SOL    HW219628  11.898   9.781  10.874
 5911SOL     OW19629  10.016   6.242   6.350
 5911SOL    HW119630  10.078   6.190   6.401
 5911SOL    HW219631  10.034   6.219   6.259
 5912SOL     OW19632   2.151   8.641   0.003
 5912SOL    HW119633   2.195   8.636  14.795
 5912SOL    HW219634   2.058   8.641  14.860
 5913SOL     OW19635   7.538   6.891   0.322
 5913SOL    HW119636   7.507   6.870   0.234
 5913SOL    HW219637   7.591   6.971   0.310
 5914SOL     OW19638   9.340   7.187   4.253
 5914SOL    HW119639   9.424   7.233   4.251
 5914SOL    HW219640   9.364   7.095   4.268
 5915SOL     OW19641   0.909   7.912  11.035
 5915SOL    HW119642   0.976   7.920  10.968
 5915SOL    HW219643   0.840   7.860  10.995
 5916SOL     OW19644   6.446   7.520   2.441
 5916SOL    HW119645   6.440   7.614   2.457
 5916SOL    HW219646   6.410   7.509   2.353
 5917SOL     OW19647   4.441  11.620   2.638
 5917SOL    HW119648   4.507  11.651   2.575
 5917SOL    HW219649   4.461  11.669   2.718
 5918SOL     OW19650   9.319  10.805   0.641
 5918SOL    HW119651   9.391  10.864   0.662
 5918SOL    HW219652   9.360  10.732   0.595
 5919SOL     OW19653   3.002   2.321   5.324
 5919SOL    HW119654   2.966   2.242   5.365
 5919SOL    HW219655   3.006   2.299   5.231
 5920SOL     OW19656   6.794   6.457   3.417
 5920SOL    HW119657   6.724   6.449   3.482
 5920SOL    HW219658   6.790   6.376   3.366
 5921SOL     OW19659   4.415   5.168   5.751
 5921SOL    HW119660   4.493   5.181   5.696
 5921SOL    HW219661   4.450   5.144   5.837
 5922SOL     OW19662   8.403   2.521   7.155
 5922SOL    HW119663   8.363   2.452   7.103
 5922SOL    HW219664   8.373   2.602   7.115
 5923SOL     OW19665   1.570  11.859   9.130
 5923SOL    HW119666   1.486  11.874   9.086
 5923SOL    HW219667   1.628  11.827   9.061
 5924SOL     OW19668   8.549  13.639  10.061
 5924SOL    HW119669   8.493  13.582  10.115
 5924SOL    HW219670   8.487  13.694  10.014
 5925SOL     OW19671   6.333   9.964   3.943
 5925SOL    HW119672   6.392  10.014   3.886
 5925SOL    HW219673   6.251  10.012   3.941
 5926SOL     OW19674   9.223  12.885   6.355
 5926SOL    HW119675   9.248  12.823   6.286
 5926SOL    HW219676   9.292  12.875   6.421
 5927SOL     OW19677  12.187  13.109   6.611
 5927SOL    HW119678  12.203  13.198   6.578
 5927SOL    HW219679  12.136  13.122   6.691
 5928SOL     OW19680   6.193   5.451   1.708
 5928SOL    HW119681   6.120   5.462   1.769
 5928SOL    HW219682   6.263   5.412   1.760
 5929SOL     OW19683  12.092   4.306   1.927
 5929SOL    HW119684  12.038   4.270   1.997
 5929SOL    HW219685  12.084   4.244   1.855
 5930SOL     OW19686  13.421  12.200   7.010
 5930SOL    HW119687  13.372  12.118   7.008
 5930SOL    HW219688  13.477  12.192   7.087
 5931SOL     OW19689  13.294   1.349   4.936
 5931SOL    HW119690  13.347   1.397   5.000
 5931SOL    HW219691  13.352   1.339   4.860
 5932SOL     OW19692   7.706   9.142   3.703
 5932SOL    HW119693   7.637   9.202   3.673
 5932SOL    HW219694   7.661   9.083   3.764
 5933SOL     OW19695   1.458  11.341   4.945
 5933SOL    HW119696   1.519  11.267   4.942
 5933SOL    HW219697   1.378  11.307   4.906
 5934SOL     OW19698   6.459   9.345   0.226
 5934SOL    HW119699   6.542   9.378   0.191
 5934SOL    HW219700   6.401   9.340   0.150
 5935SOL     OW19701   5.694   8.964  11.888
 5935SOL    HW119702   5.766   8.924  11.938
 5935SOL    HW219703   5.618   8.956  11.945
 5936SOL     OW19704  14.126  12.352  12.904
 5936SOL    HW119705  14.147  12.439  12.938
 5936SOL    HW219706  14.155  12.354  12.813
 5937SOL     OW19707  12.383   8.365   6.886
 5937SOL    HW119708  12.344   8.303   6.948
 5937SOL    HW219709  12.421   8.433   6.941
 5938SOL     OW19710  13.257   6.362   8.190
 5938SOL    HW119711  13.207   6.342   8.111
 5938SOL    HW219712  13.270   6.457   8.187
 5939SOL     OW19713   1.022   3.020   8.973
 5939SOL    HW119714   0.986   2.932   8.987
 5939SOL    HW219715   1.110   3.015   9.010
 5940SOL     OW19716  14.177  12.726   9.860
 5940SOL    HW119717  14.257  12.677   9.877
 5940SOL    HW219718  14.158  12.711   9.768
 5941SOL     OW19719  14.778   3.215   4.868
 5941SOL    HW119720  14.809   3.225   4.958
 5941SOL    HW219721  14.736   3.129   4.867
 5942SOL     OW19722   5.602  10.271   0.220
 5942SOL    HW119723   5.526  10.249   0.274
 5942SOL    HW219724   5.676  10.263   0.280
 5943SOL     OW19725  12.477  10.774  12.132
 5943SOL    HW119726  12.474  10.816  12.218
 5943SOL    HW219727  12.559  10.805  12.093
 5944SOL     OW19728   3.692   3.177   5.536
 5944SOL    HW119729   3.602   3.204   5.516
 5944SOL    HW219730   3.742   3.201   5.458
 5945SOL     OW19731  12.734   7.370   0.348
 5945SOL    HW119732  12.829   7.380   0.354
 5945SOL    HW219733  12.703   7.456   0.320
 5946SOL     OW19734  14.031   6.644   4.051
 5946SOL    HW119735  14.109   6.700   4.047
 5946SOL    HW219736  14.062   6.561   4.086
 5947SOL     OW19737   8.604   6.766   5.965
 5947SOL    HW119738   8.554   6.706   6.020
 5947SOL    HW219739   8.544   6.790   5.895
 5948SOL     OW19740   1.438   4.058  14.114
 5948SOL    HW119741   1.466   3.967  14.121
 5948SOL    HW219742   1.406   4.066  14.024
 5949SOL     OW19743   7.936   6.714  12.680
 5949SOL    HW119744   7.972   6.653  12.744
 5949SOL    HW219745   8.012   6.745  12.631
 5950SOL     OW19746   6.060   2.113  11.532
 5950SOL    HW119747   5.970   2.084  11.540
 5950SOL    HW219748   6.088   2.132  11.622
 5951SOL     OW19749   3.517  10.630   3.191
 5951SOL    HW119750   3.449  10.697   3.197
 5951SOL    HW219751   3.589  10.673   3.144
 5952SOL     OW19752  13.757   8.835  12.293
 5952SOL    HW119753  13.840   8.878  12.314
 5952SOL    HW219754  13.767   8.746  12.325
 5953SOL     OW19755  12.530   2.766   1.914
 5953SOL    HW119756  12.600   2.747   1.852
 5953SOL    HW219757  12.450   2.737   1.870
 5954SOL     OW19758   7.743  14.733  10.825
 5954SOL    HW119759   7.746  14.640  10.803
 5954SOL    HW219760   7.753  14.735  10.920
 5955SOL     OW19761  10.701   3.208   1.936
 5955SOL    HW119762  10.738   3.255   1.861
 5955SOL    HW219763  10.643   3.143   1.897
 5956SOL     OW19764   4.409  13.539   7.716
 5956SOL    HW119765   4.423  13.518   7.809
 5956SOL    HW219766   4.412  13.455   7.671
 5957SOL     OW19767   6.340  12.710   9.765
 5957SOL    HW119768   6.327  12.631   9.818
 5957SOL    HW219769   6.252  12.746   9.755
 5958SOL     OW19770  13.696   9.457   9.279
 5958SOL    HW119771  13.662   9.537   9.318
 5958SOL    HW219772  13.687   9.391   9.347
 5959SOL     OW19773   5.586  14.398   9.053
 5959SOL    HW119774   5.625  14.476   9.092
 5959SOL    HW219775   5.658  14.355   9.007
 5960SOL     OW19776   4.472   9.480  10.810
 5960SOL    HW119777   4.567   9.468  10.821
 5960SOL    HW219778   4.453   9.437  10.726
 5961SOL     OW19779  13.539   0.900  12.697
 5961SOL    HW119780  13.614   0.846  12.723
 5961SOL    HW219781  13.497   0.924  12.780
 5962SOL     OW19782   1.675   1.412   3.993
 5962SOL    HW119783   1.756   1.461   3.978
 5962SOL    HW219784   1.624   1.424   3.913
 5963SOL     OW19785  13.681   9.654   4.961
 5963SOL    HW119786  13.599   9.701   4.977
 5963SOL    HW219787  13.749   9.714   4.990
 5964SOL     OW19788   7.127   0.559  10.183
 5964SOL    HW119789   7.149   0.468  10.201
 5964SOL    HW219790   7.032   0.559  10.168
 5965SOL     OW19791  10.497  10.156  10.343
 5965SOL    HW119792  10.412  10.123  10.312
 5965SOL    HW219793  10.484  10.250  10.351
 5966SOL     OW19794   1.316  14.672   7.708
 5966SOL    HW119795   1.310  14.766   7.724
 5966SOL    HW219796   1.409  14.652   7.722
 5967SOL     OW19797   9.819   1.672   8.624
 5967SOL    HW119798   9.813   1.621   8.704
 5967SOL    HW219799   9.835   1.607   8.555
 5968SOL     OW19800   5.709   5.517   0.488
 5968SOL    HW119801   5.697   5.545   0.579
 5968SOL    HW219802   5.796   5.477   0.487
 5969SOL     OW19803  13.854  10.468   3.158
 5969SOL    HW119804  13.939  10.444   3.195
 5969SOL    HW219805  13.836  10.400   3.093
 5970SOL     OW19806   5.847  13.452   3.537
 5970SOL    HW119807   5.857  13.359   3.518
 5970SOL    HW219808   5.804  13.488   3.459
 5971SOL     OW19809   7.193  10.194   0.178
 5971SOL    HW119810   7.260  10.263   0.183
 5971SOL    HW219811   7.209  10.151   0.094
 5972SOL     OW19812   2.131   6.485  11.048
 5972SOL    HW119813   2.179   6.529  10.978
 5972SOL    HW219814   2.064   6.434  11.002
 5973SOL     OW19815  12.866  11.201  13.096
 5973SOL    HW119816  12.904  11.258  13.030
 5973SOL    HW219817  12.816  11.260  13.153
 5974SOL     OW19818   5.204   3.108   8.814
 5974SOL    HW119819   5.218   3.180   8.753
 5974SOL    HW219820   5.284   3.055   8.806
 5975SOL     OW19821   7.414   5.680   6.477
 5975SOL    HW119822   7.415   5.620   6.551
 5975SOL    HW219823   7.505   5.703   6.462
 5976SOL     OW19824   7.644   6.343  14.211
 5976SOL    HW119825   7.711   6.301  14.157
 5976SOL    HW219826   7.668   6.319  14.301
 5977SOL     OW19827  13.340   2.737   2.786
 5977SOL    HW119828  13.381   2.721   2.701
 5977SOL    HW219829  13.409   2.718   2.850
 5978SOL     OW19830  12.056   2.746   9.233
 5978SOL    HW119831  12.112   2.823   9.225
 5978SOL    HW219832  12.033   2.723   9.143
 5979SOL     OW19833  13.087  14.373   1.028
 5979SOL    HW119834  13.174  14.356   0.993
 5979SOL    HW219835  13.037  14.293   1.010
 5980SOL     OW19836   8.874   7.364  13.887
 5980SOL    HW119837   8.936   7.340  13.956
 5980SOL    HW219838   8.793   7.386  13.934
 5981SOL     OW19839   4.370   3.137  13.402
 5981SOL    HW119840   4.396   3.073  13.469
 5981SOL    HW219841   4.373   3.221  13.448
 5982SOL     OW19842   4.772   8.963   1.934
 5982SOL    HW119843   4.683   8.999   1.942
 5982SOL    HW219844   4.826   9.023   1.985
 5983SOL     OW19845   8.657   7.070   3.916
 5983SOL    HW119846   8.698   7.031   3.993
 5983SOL    HW219847   8.718   7.054   3.844
 5984SOL     OW19848   1.738  14.800   6.612
 5984SOL    HW119849   1.815  14.751   6.583
 5984SOL    HW219850   1.721  14.863   6.541
 5985SOL     OW19851   6.238   6.991   6.833
 5985SOL    HW119852   6.318   6.942   6.854
 5985SOL    HW219853   6.205   7.021   6.918
 5986SOL     OW19854   2.057   2.891  10.659
 5986SOL    HW119855   2.071   2.979  10.624
 5986SOL    HW219856   1.995   2.904  10.731
 5987SOL     OW19857  10.394  11.742   3.662
 5987SOL    HW119858  10.352  11.663   3.627
 5987SOL    HW219859  10.325  11.786   3.711
 5988SOL     OW19860   5.581   1.123   4.826
 5988SOL    HW119861   5.539   1.047   4.866
 5988SOL    HW219862   5.608   1.177   4.901
 5989SOL     OW19863  10.128  10.162   0.715
 5989SOL    HW119864  10.129  10.210   0.632
 5989SOL    HW219865  10.136  10.230   0.782
 5990SOL     OW19866  11.495   3.065   7.258
 5990SOL    HW119867  11.494   3.078   7.163
 5990SOL    HW219868  11.585   3.038   7.278
 5991SOL     OW19869  10.708   2.929   2.352
 5991SOL    HW119870  10.721   2.940   2.257
 5991SOL    HW219871  10.625   2.882   2.359
 5992SOL     OW19872   6.018   9.461   4.982
 5992SOL    HW119873   6.012   9.522   5.056
 5992SOL    HW219874   6.085   9.499   4.925
 5993SOL     OW19875   3.178   6.679   1.843
 5993SOL    HW119876   3.195   6.754   1.786
 5993SOL    HW219877   3.096   6.700   1.887
 5994SOL     OW19878   2.472  11.432   0.416
 5994SOL    HW119879   2.503  11.351   0.376
 5994SOL    HW219880   2.408  11.403   0.482
 5995SOL     OW19881  11.624  11.491   8.168
 5995SOL    HW119882  11.533  11.506   8.145
 5995SOL    HW219883  11.656  11.576   8.199
 5996SOL     OW19884   9.701  14.148   3.636
 5996SOL    HW119885   9.724  14.080   3.573
 5996SOL    HW219886   9.605  14.152   3.634
 5997SOL     OW19887   1.350   8.064   2.485
 5997SOL    HW119888   1.315   8.026   2.565
 5997SOL    HW219889   1.343   7.995   2.419
 5998SOL     OW19890   0.950  11.103   5.944
 5998SOL    HW119891   1.018  11.080   6.008
 5998SOL    HW219892   0.992  11.092   5.859
 5999SOL     OW19893   2.512   1.673  12.395
 5999SOL    HW119894   2.508   1.765  12.419
 5999SOL    HW219895   2.445   1.661  12.328
 6000SOL     OW19896   0.875  12.627   0.439
 6000SOL    HW119897   0.788  12.666   0.437
 6000SOL    HW219898   0.869  12.558   0.504
 6001SOL     OW19899   3.961  11.599  10.814
 6001SOL    HW119900   3.919  11.680  10.785
 6001SOL    HW219901   3.889  11.537  10.825
 6002SOL     OW19902   3.368  10.118  13.518
 6002SOL    HW119903   3.355  10.200  13.473
 6002SOL    HW219904   3.300  10.115  13.585
 6003SOL     OW19905   1.337   1.525   5.580
 6003SOL    HW119906   1.282   1.566   5.646
 6003SOL    HW219907   1.419   1.506   5.624
 6004SOL     OW19908   7.681   1.173  13.188
 6004SOL    HW119909   7.755   1.158  13.246
 6004SOL    HW219910   7.608   1.191  13.247
 6005SOL     OW19911   5.215   6.424   7.970
 6005SOL    HW119912   5.195   6.509   7.931
 6005SOL    HW219913   5.203   6.438   8.064
 6006SOL     OW19914   6.232   6.660  13.566
 6006SOL    HW119915   6.219   6.569  13.594
 6006SOL    HW219916   6.176   6.711  13.624
 6007SOL     OW19917   9.633   6.742  14.742
 6007SOL    HW119918   9.595   6.823  14.709
 6007SOL    HW219919   9.623   6.679  14.671
 6008SOL     OW19920   7.702  14.797   7.385
 6008SOL    HW119921   7.622  14.744   7.386
 6008SOL    HW219922   7.716  14.820   7.477
 6009SOL     OW19923   6.017   9.377   2.603
 6009SOL    HW119924   5.989   9.462   2.636
 6009SOL    HW219925   5.944   9.318   2.623
 6010SOL     OW19926   2.800  14.797   1.783
 6010SOL    HW119927   2.754  14.836   1.709
 6010SOL    HW219928   2.736  14.794   1.853
 6011SOL     OW19929  12.564   8.444   3.471
 6011SOL    HW119930  12.645   8.436   3.420
 6011SOL    HW219931  12.587   8.411   3.558
 6012SOL     OW19932   4.750   6.800   7.471
 6012SOL    HW119933   4.790   6.781   7.556
 6012SOL    HW219934   4.663   6.834   7.491
 6013SOL     OW19935   9.772   8.836   9.245
 6013SOL    HW119936   9.844   8.899   9.244
 6013SOL    HW219937   9.808   8.758   9.203
 6014SOL     OW19938   0.148   0.629  11.198
 6014SOL    HW119939   0.091   0.560  11.232
 6014SOL    HW219940   0.230   0.619  11.247
 6015SOL     OW19941  11.173   9.034   0.348
 6015SOL    HW119942  11.171   9.126   0.322
 6015SOL    HW219943  11.100   9.024   0.408
 6016SOL     OW19944   5.306  11.791   0.494
 6016SOL    HW119945   5.240  11.750   0.437
 6016SOL    HW219946   5.257  11.819   0.571
 6017SOL     OW19947   5.619   9.497   5.770
 6017SOL    HW119948   5.696   9.498   5.826
 6017SOL    HW219949   5.545   9.508   5.830
 6018SOL     OW19950  12.151   5.158   2.793
 6018SOL    HW119951  12.112   5.230   2.841
 6018SOL    HW219952  12.151   5.085   2.855
 6019SOL     OW19953  11.076  10.438  12.112
 6019SOL    HW119954  11.140  10.474  12.173
 6019SOL    HW219955  11.068  10.346  12.137
 6020SOL     OW19956  11.126   7.191   6.154
 6020SOL    HW119957  11.079   7.260   6.201
 6020SOL    HW219958  11.063   7.119   6.148
 6021SOL     OW19959  11.126   3.581  12.400
 6021SOL    HW119960  11.077   3.636  12.338
 6021SOL    HW219961  11.178   3.523  12.345
 6022SOL     OW19962  12.189  10.122   0.187
 6022SOL    HW119963  12.173  10.029   0.203
 6022SOL    HW219964  12.102  10.159   0.168
 6023SOL     OW19965  10.523   8.954  12.693
 6023SOL    HW119966  10.506   8.907  12.774
 6023SOL    HW219967  10.480   9.039  12.704
 6024SOL     OW19968   3.003   5.486   4.964
 6024SOL    HW119969   2.966   5.407   5.004
 6024SOL    HW219970   2.992   5.553   5.031
 6025SOL     OW19971  10.986  14.034  11.738
 6025SOL    HW119972  11.080  14.016  11.744
 6025SOL    HW219973  10.979  14.106  11.675
 6026SOL     OW19974  13.713  12.561   8.750
 6026SOL    HW119975  13.711  12.525   8.838
 6026SOL    HW219976  13.649  12.633   8.752
 6027SOL     OW19977   2.379   9.506   4.716
 6027SOL    HW119978   2.323   9.441   4.673
 6027SOL    HW219979   2.410   9.562   4.645
 6028SOL     OW19980   6.671   2.017   8.292
 6028SOL    HW119981   6.581   2.025   8.324
 6028SOL    HW219982   6.694   1.925   8.306
 6029SOL     OW19983  12.744   4.591   4.424
 6029SOL    HW119984  12.704   4.635   4.499
 6029SOL    HW219985  12.808   4.531   4.462
 6030SOL     OW19986   1.475   2.115  11.875
 6030SOL    HW119987   1.481   2.022  11.853
 6030SOL    HW219988   1.381   2.131  11.885
 6031SOL     OW19989   8.624   1.297  10.379
 6031SOL    HW119990   8.576   1.345  10.312
 6031SOL    HW219991   8.705   1.270  10.336
 6032SOL     OW19992   6.334   5.529   7.727
 6032SOL    HW119993   6.352   5.494   7.640
 6032SOL    HW219994   6.356   5.457   7.787
 6033SOL     OW19995   6.212  14.546  13.758
 6033SOL    HW119996   6.229  14.486  13.831
 6033SOL    HW219997   6.233  14.495  13.680
 6034SOL     OW19998   1.392   7.152  12.797
 6034SOL    HW119999   1.306   7.162  12.755
 6034SOL    HW220000   1.372   7.127  12.887
 6035SOL     OW20001   6.865   1.408   5.836
 6035SOL    HW120002   6.918   1.460   5.776
 6035SOL    HW220003   6.781   1.454   5.839
 6036SOL     OW20004   6.503   3.272   1.153
 6036SOL    HW120005   6.469   3.206   1.215
 6036SOL    HW220006   6.480   3.237   1.067
 6037SOL     OW20007   6.455   9.564   2.054
 6037SOL    HW120008   6.451   9.476   2.016
 6037SOL    HW220009   6.464   9.549   2.148
 6038SOL     OW20010   0.107   4.610   9.701
 6038SOL    HW120011   0.047   4.655   9.642
 6038SOL    HW220012   0.189   4.659   9.693
 6039SOL     OW20013   2.409  11.072   6.633
 6039SOL    HW120014   2.343  11.014   6.670
 6039SOL    HW220015   2.490  11.021   6.636
 6040SOL     OW20016   1.874  10.733   5.200
 6040SOL    HW120017   1.930  10.668   5.242
 6040SOL    HW220018   1.928  10.768   5.128
 6041SOL     OW20019   3.537  13.104  11.422
 6041SOL    HW120020   3.602  13.034  11.429
 6041SOL    HW220021   3.542  13.134  11.332
 6042SOL     OW20022   3.046   7.379  11.369
 6042SOL    HW120023   3.060   7.303  11.312
 6042SOL    HW220024   3.061   7.454  11.311
 6043SOL     OW20025   0.481   6.644  10.823
 6043SOL    HW120026   0.455   6.716  10.765
 6043SOL    HW220027   0.425   6.571  10.796
 6044SOL     OW20028  10.787  10.831   3.487
 6044SOL    HW120029  10.726  10.899   3.514
 6044SOL    HW220030  10.739  10.749   3.498
 6045SOL     OW20031  12.483  14.690  12.032
 6045SOL    HW120032  12.540  14.759  11.999
 6045SOL    HW220033  12.540  14.613  12.038
 6046SOL     OW20034   3.077   2.563   1.544
 6046SOL    HW120035   3.086   2.549   1.450
 6046SOL    HW220036   3.107   2.480   1.583
 6047SOL     OW20037   2.649  12.675   8.515
 6047SOL    HW120038   2.569  12.727   8.512
 6047SOL    HW220039   2.718  12.736   8.487
 6048SOL     OW20040   1.908   7.299   2.650
 6048SOL    HW120041   1.834   7.247   2.680
 6048SOL    HW220042   1.974   7.289   2.718
 6049SOL     OW20043   3.219   4.720  14.834
 6049SOL    HW120044   3.135   4.674  14.834
 6049SOL    HW220045   3.197   4.810  14.810
 6050SOL     OW20046   6.879  14.373  14.501
 6050SOL    HW120047   6.835  14.376  14.586
 6050SOL    HW220048   6.946  14.441  14.507
 6051SOL     OW20049   8.527  13.334  11.959
 6051SOL    HW120050   8.591  13.334  12.030
 6051SOL    HW220051   8.476  13.254  11.971
 6052SOL     OW20052   2.269   9.076   0.120
 6052SOL    HW120053   2.264   9.062   0.025
 6052SOL    HW220054   2.214   9.006   0.157
 6053SOL     OW20055  10.576  14.876  14.085
 6053SOL    HW120056  10.587  14.817  14.160
 6053SOL    HW220057  10.496  14.845  14.042
 6054SOL     OW20058   3.448  12.373   5.619
 6054SOL    HW120059   3.502  12.429   5.563
 6054SOL    HW220060   3.361  12.375   5.579
 6055SOL     OW20061   7.668   6.683  13.982
 6055SOL    HW120062   7.589   6.657  14.029
 6055SOL    HW220063   7.677   6.777  14.001
 6056SOL     OW20064   1.481   2.168   5.154
 6056SOL    HW120065   1.507   2.097   5.096
 6056SOL    HW220066   1.480   2.246   5.098
 6057SOL     OW20067   7.447   9.050   7.569
 6057SOL    HW120068   7.358   9.032   7.599
 6057SOL    HW220069   7.437   9.082   7.479
 6058SOL     OW20070   8.115   6.341   2.538
 6058SOL    HW120071   8.211   6.337   2.538
 6058SOL    HW220072   8.091   6.338   2.630
 6059SOL     OW20073  13.774   7.960   0.844
 6059SOL    HW120074  13.793   7.867   0.841
 6059SOL    HW220075  13.705   7.969   0.911
 6060SOL     OW20076   1.359   4.057   5.920
 6060SOL    HW120077   1.374   4.043   6.014
 6060SOL    HW220078   1.443   4.038   5.879
 6061SOL     OW20079   3.899   4.578  11.279
 6061SOL    HW120080   3.921   4.656  11.330
 6061SOL    HW220081   3.840   4.528  11.336
 6062SOL     OW20082   1.569   7.010   9.205
 6062SOL    HW120083   1.628   6.976   9.272
 6062SOL    HW220084   1.491   6.955   9.211
 6063SOL     OW20085  11.312   8.299  10.114
 6063SOL    HW120086  11.260   8.332  10.041
 6063SOL    HW220087  11.391   8.263  10.072
 6064SOL     OW20088  12.998   4.509  13.044
 6064SOL    HW120089  12.922   4.497  12.988
 6064SOL    HW220090  12.977   4.586  13.098
 6065SOL     OW20091  11.955   4.168  11.164
 6065SOL    HW120092  12.017   4.178  11.092
 6065SOL    HW220093  11.981   4.087  11.207
 6066SOL     OW20094  11.470   7.474   2.811
 6066SOL    HW120095  11.506   7.542   2.868
 6066SOL    HW220096  11.448   7.519   2.729
 6067SOL     OW20097  12.694   0.014   8.673
 6067SOL    HW120098  12.781   0.016   8.712
 6067SOL    HW220099  12.644   0.082   8.719
 6068SOL     OW20100   1.965   9.081   3.852
 6068SOL    HW120101   1.930   9.011   3.797
 6068SOL    HW220102   1.889   9.133   3.876
 6069SOL     OW20103  11.421   4.266  14.634
 6069SOL    HW120104  11.404   4.357  14.609
 6069SOL    HW220105  11.350   4.216  14.594
 6070SOL     OW20106  13.799   9.895  10.668
 6070SOL    HW120107  13.879   9.860  10.628
 6070SOL    HW220108  13.728   9.850  10.622
 6071SOL     OW20109   6.135   4.421  12.877
 6071SOL    HW120110   6.144   4.457  12.788
 6071SOL    HW220111   6.046   4.444  12.903
 6072SOL     OW20112  10.239   8.131  14.287
 6072SOL    HW120113  10.332   8.128  14.310
 6072SOL    HW220114  10.200   8.060  14.337
 6073SOL     OW20115   8.045   2.305   7.168
 6073SOL    HW120116   8.019   2.391   7.135
 6073SOL    HW220117   8.054   2.251   7.089
 6074SOL     OW20118   7.818  14.564  11.219
 6074SOL    HW120119   7.894  14.553  11.162
 6074SOL    HW220120   7.854  14.598  11.301
 6075SOL     OW20121   1.182  13.492   3.309
 6075SOL    HW120122   1.212  13.401   3.314
 6075SOL    HW220123   1.258  13.540   3.276
 6076SOL     OW20124  12.332   1.410   6.594
 6076SOL    HW120125  12.242   1.393   6.623
 6076SOL    HW220126  12.332   1.503   6.571
 6077SOL     OW20127   1.865   8.096   4.060
 6077SOL    HW120128   1.958   8.113   4.072
 6077SOL    HW220129   1.836   8.164   3.999
 6078SOL     OW20130   3.140  13.592   8.133
 6078SOL    HW120131   3.081  13.638   8.074
 6078SOL    HW220132   3.228  13.618   8.104
 6079SOL     OW20133   9.366   5.764   6.913
 6079SOL    HW120134   9.374   5.670   6.927
 6079SOL    HW220135   9.286   5.774   6.861
 6080SOL     OW20136   4.785   4.457  12.792
 6080SOL    HW120137   4.879   4.441  12.780
 6080SOL    HW220138   4.754   4.487  12.707
 6081SOL     OW20139   4.797   8.088  14.165
 6081SOL    HW120140   4.742   8.011  14.154
 6081SOL    HW220141   4.802   8.126  14.077
 6082SOL     OW20142   2.562   3.875   1.464
 6082SOL    HW120143   2.527   3.860   1.552
 6082SOL    HW220144   2.624   3.947   1.475
 6083SOL     OW20145   7.472  12.703  13.734
 6083SOL    HW120146   7.556  12.656  13.739
 6083SOL    HW220147   7.416  12.645  13.683
 6084SOL     OW20148   7.004   5.487   5.002
 6084SOL    HW120149   7.085   5.465   5.048
 6084SOL    HW220150   7.032   5.537   4.926
 6085SOL     OW20151   6.112   4.061   6.590
 6085SOL    HW120152   6.036   4.106   6.626
 6085SOL    HW220153   6.075   3.998   6.528
 6086SOL     OW20154   9.752   2.142   1.200
 6086SOL    HW120155   9.706   2.181   1.125
 6086SOL    HW220156   9.702   2.063   1.220
 6087SOL     OW20157   7.474  11.082  13.937
 6087SOL    HW120158   7.552  11.137  13.947
 6087SOL    HW220159   7.488  11.010  14.000
 6088SOL     OW20160  13.999  12.536   2.374
 6088SOL    HW120161  13.969  12.457   2.419
 6088SOL    HW220162  14.005  12.511   2.282
 6089SOL     OW20163  10.981   0.519   1.964
 6089SOL    HW120164  11.018   0.569   1.891
 6089SOL    HW220165  10.887   0.519   1.948
 6090SOL     OW20166   4.168   6.074   4.606
 6090SOL    HW120167   4.233   6.007   4.628
 6090SOL    HW220168   4.211   6.157   4.631
 6091SOL     OW20169   1.950   8.404   5.168
 6091SOL    HW120170   1.989   8.345   5.233
 6091SOL    HW220171   1.858   8.376   5.164
 6092SOL     OW20172  11.476   7.490   0.779
 6092SOL    HW120173  11.508   7.426   0.843
 6092SOL    HW220174  11.526   7.470   0.700
 6093SOL     OW20175  12.160   1.639   1.235
 6093SOL    HW120176  12.250   1.611   1.218
 6093SOL    HW220177  12.113   1.557   1.253
 6094SOL     OW20178  13.155   1.837   4.618
 6094SOL    HW120179  13.134   1.781   4.693
 6094SOL    HW220180  13.212   1.905   4.654
 6095SOL     OW20181   7.876   4.022   9.106
 6095SOL    HW120182   7.928   4.063   9.037
 6095SOL    HW220183   7.800   4.080   9.116
 6096SOL     OW20184  13.049   4.838   0.232
 6096SOL    HW120185  13.009   4.774   0.291
 6096SOL    HW220186  13.056   4.918   0.284
 6097SOL     OW20187   2.539  13.886   9.539
 6097SOL    HW120188   2.549  13.977   9.569
 6097SOL    HW220189   2.626  13.860   9.511
 6098SOL     OW20190   4.182   7.722  11.430
 6098SOL    HW120191   4.209   7.659  11.497
 6098SOL    HW220192   4.093   7.747  11.456
 6099SOL     OW20193   0.844  11.891  14.555
 6099SOL    HW120194   0.898  11.872  14.632
 6099SOL    HW220195   0.811  11.980  14.570
 6100SOL     OW20196  11.336   1.131  12.186
 6100SOL    HW120197  11.364   1.132  12.278
 6100SOL    HW220198  11.411   1.167  12.138
 6101SOL     OW20199   8.092   5.609   3.752
 6101SOL    HW120200   8.036   5.583   3.679
 6101SOL    HW220201   8.168   5.552   3.746
 6102SOL     OW20202  14.544   6.994   3.157
 6102SOL    HW120203  14.605   6.951   3.217
 6102SOL    HW220204  14.559   7.088   3.171
 6103SOL     OW20205   8.131  10.575   3.974
 6103SOL    HW120206   8.051  10.594   4.023
 6103SOL    HW220207   8.109  10.501   3.919
 6104SOL     OW20208  13.287   7.919   8.242
 6104SOL    HW120209  13.232   7.934   8.165
 6104SOL    HW220210  13.230   7.934   8.317
 6105SOL     OW20211   8.183  13.672   5.739
 6105SOL    HW120212   8.224  13.744   5.690
 6105SOL    HW220213   8.089  13.690   5.735
 6106SOL     OW20214  11.691   9.601   1.329
 6106SOL    HW120215  11.659   9.545   1.399
 6106SOL    HW220216  11.782   9.621   1.354
 6107SOL     OW20217   3.693   8.923  11.521
 6107SOL    HW120218   3.725   9.013  11.529
 6107SOL    HW220219   3.676   8.895  11.611
 6108SOL     OW20220   6.555   9.683  11.969
 6108SOL    HW120221   6.544   9.617  12.038
 6108SOL    HW220222   6.634   9.656  11.923
 6109SOL     OW20223  11.198  12.211  11.861
 6109SOL    HW120224  11.190  12.201  11.766
 6109SOL    HW220225  11.252  12.290  11.872
 6110SOL     OW20226   9.037   9.727   5.091
 6110SOL    HW120227   8.995   9.803   5.131
 6110SOL    HW220228   9.058   9.670   5.165
 6111SOL     OW20229   6.091   6.493   3.031
 6111SOL    HW120230   6.066   6.410   2.991
 6111SOL    HW220231   6.167   6.473   3.085
 6112SOL     OW20232   7.599  13.690   0.478
 6112SOL    HW120233   7.552  13.772   0.461
 6112SOL    HW220234   7.544  13.622   0.439
 6113SOL     OW20235  13.123   2.116   5.836
 6113SOL    HW120236  13.123   2.038   5.892
 6113SOL    HW220237  13.111   2.189   5.897
 6114SOL     OW20238   5.472   4.458   9.431
 6114SOL    HW120239   5.528   4.519   9.481
 6114SOL    HW220240   5.402   4.435   9.491
 6115SOL     OW20241   8.481  13.702   3.217
 6115SOL    HW120242   8.472  13.642   3.292
 6115SOL    HW220243   8.518  13.782   3.255
 6116SOL     OW20244  11.846  13.697   8.365
 6116SOL    HW120245  11.794  13.620   8.341
 6116SOL    HW220246  11.858  13.744   8.282
 6117SOL     OW20247   5.557  11.754   7.547
 6117SOL    HW120248   5.534  11.662   7.542
 6117SOL    HW220249   5.543  11.787   7.458
 6118SOL     OW20250  10.669   9.834  10.636
 6118SOL    HW120251  10.642   9.891  10.708
 6118SOL    HW220252  10.671   9.746  10.674
 6119SOL     OW20253  11.006  12.582   6.160
 6119SOL    HW120254  10.982  12.561   6.250
 6119SOL    HW220255  11.040  12.672   6.164
 6120SOL     OW20256   4.022   6.798   4.493
 6120SOL    HW120257   4.007   6.842   4.577
 6120SOL    HW220258   3.961   6.840   4.433
 6121SOL     OW20259   5.998  14.025   2.288
 6121SOL    HW120260   5.906  14.000   2.289
 6121SOL    HW220261   6.041  13.954   2.241
 6122SOL     OW20262  13.729   2.955  14.295
 6122SOL    HW120263  13.777   2.958  14.378
 6122SOL    HW220264  13.769   2.883  14.246
 6123SOL     OW20265   0.917   3.630  14.644
 6123SOL    HW120266   0.945   3.639  14.736
 6123SOL    HW220267   0.840   3.686  14.637
 6124SOL     OW20268   9.891   3.410   6.528
 6124SOL    HW120269   9.950   3.344   6.566
 6124SOL    HW220270   9.818   3.414   6.589
 6125SOL     OW20271   6.968  10.333   8.528
 6125SOL    HW120272   6.974  10.399   8.598
 6125SOL    HW220273   6.887  10.353   8.483
 6126SOL     OW20274   4.345   3.813   0.443
 6126SOL    HW120275   4.343   3.758   0.521
 6126SOL    HW220276   4.367   3.900   0.475
 6127SOL     OW20277  11.479   9.624   8.146
 6127SOL    HW120278  11.549   9.611   8.082
 6127SOL    HW220279  11.524   9.636   8.229
 6128SOL     OW20280   1.919   2.330   3.759
 6128SOL    HW120281   1.871   2.341   3.842
 6128SOL    HW220282   1.904   2.412   3.712
 6129SOL     OW20283   4.659   3.403   6.854
 6129SOL    HW120284   4.738   3.410   6.801
 6129SOL    HW220285   4.634   3.493   6.874
 6130SOL     OW20286   4.368   8.114   5.569
 6130SOL    HW120287   4.386   8.192   5.515
 6130SOL    HW220288   4.391   8.040   5.513
 6131SOL     OW20289  12.611   3.629  11.528
 6131SOL    HW120290  12.626   3.718  11.494
 6131SOL    HW220291  12.527   3.634  11.572
 6132SOL     OW20292  10.561  14.179  10.173
 6132SOL    HW120293  10.572  14.166  10.079
 6132SOL    HW220294  10.624  14.120  10.213
 6133SOL     OW20295   1.119  10.628   1.700
 6133SOL    HW120296   1.077  10.712   1.677
 6133SOL    HW220297   1.142  10.589   1.616
 6134SOL     OW20298  13.407   5.920   7.760
 6134SOL    HW120299  13.371   5.851   7.704
 6134SOL    HW220300  13.388   6.001   7.713
 6135SOL     OW20301   2.146  13.945   0.602
 6135SOL    HW120302   2.083  13.873   0.593
 6135SOL    HW220303   2.110  14.001   0.671
 6136SOL     OW20304   1.426   4.825   7.209
 6136SOL    HW120305   1.507   4.818   7.159
 6136SOL    HW220306   1.360   4.851   7.145
 6137SOL     OW20307   7.039   8.819   2.587
 6137SOL    HW120308   7.063   8.757   2.519
 6137SOL    HW220309   7.010   8.897   2.540
 6138SOL     OW20310   1.197   1.689  11.206
 6138SOL    HW120311   1.230   1.600  11.219
 6138SOL    HW220312   1.268   1.734  11.161
 6139SOL     OW20313  10.349  10.346  12.176
 6139SOL    HW120314  10.442  10.338  12.158
 6139SOL    HW220315  10.343  10.350  12.272
 6140SOL     OW20316   4.362  10.874   4.254
 6140SOL    HW120317   4.275  10.901   4.283
 6140SOL    HW220318   4.348  10.835   4.167
 6141SOL     OW20319   7.763  10.579   3.527
 6141SOL    HW120320   7.778  10.520   3.601
 6141SOL    HW220321   7.766  10.667   3.565
 6142SOL     OW20322   6.521   8.578   5.308
 6142SOL    HW120323   6.519   8.652   5.369
 6142SOL    HW220324   6.576   8.513   5.350
 6143SOL     OW20325   4.753  13.397   7.129
 6143SOL    HW120326   4.706  13.344   7.065
 6143SOL    HW220327   4.816  13.337   7.168
 6144SOL     OW20328  11.949  12.157   2.907
 6144SOL    HW120329  11.995  12.163   2.990
 6144SOL    HW220330  11.924  12.065   2.901
 6145SOL     OW20331   4.434   8.396   4.482
 6145SOL    HW120332   4.361   8.428   4.429
 6145SOL    HW220333   4.468   8.321   4.434
 6146SOL     OW20334   6.215   8.412  12.400
 6146SOL    HW120335   6.284   8.353  12.373
 6146SOL    HW220336   6.226   8.421  12.494
 6147SOL     OW20337   1.558   0.827  14.562
 6147SOL    HW120338   1.621   0.788  14.501
 6147SOL    HW220339   1.551   0.918  14.534
 6148SOL     OW20340   8.081   3.785  13.127
 6148SOL    HW120341   8.087   3.771  13.222
 6148SOL    HW220342   8.169   3.762  13.094
 6149SOL     OW20343   0.880  10.939  12.182
 6149SOL    HW120344   0.889  10.849  12.151
 6149SOL    HW220345   0.932  10.991  12.121
 6150SOL     OW20346   2.138  11.985  14.459
 6150SOL    HW120347   2.194  11.929  14.512
 6150SOL    HW220348   2.059  11.933  14.445
 6151SOL     OW20349  11.741   3.910  12.078
 6151SOL    HW120350  11.811   3.854  12.045
 6151SOL    HW220351  11.663   3.854  12.076
 6152SOL     OW20352   9.243  13.499   5.907
 6152SOL    HW120353   9.199  13.528   5.987
 6152SOL    HW220354   9.213  13.409   5.894
 6153SOL     OW20355  13.782   1.383   1.398
 6153SOL    HW120356  13.726   1.327   1.344
 6153SOL    HW220357  13.871   1.352   1.380
 6154SOL     OW20358   6.092   5.002  12.868
 6154SOL    HW120359   6.092   4.919  12.916
 6154SOL    HW220360   6.018   5.050  12.905
 6155SOL     OW20361   4.137  10.952  12.880
 6155SOL    HW120362   4.168  11.041  12.897
 6155SOL    HW220363   4.178  10.927  12.797
 6156SOL     OW20364   1.725  10.766   5.618
 6156SOL    HW120365   1.724  10.682   5.663
 6156SOL    HW220366   1.652  10.815   5.657
 6157SOL     OW20367  13.003  14.430   5.039
 6157SOL    HW120368  13.026  14.508   5.089
 6157SOL    HW220369  12.968  14.464   4.957
 6158SOL     OW20370   4.410   3.421   7.472
 6158SOL    HW120371   4.373   3.428   7.560
 6158SOL    HW220372   4.335   3.429   7.413
 6159SOL     OW20373  11.722   6.784  11.918
 6159SOL    HW120374  11.708   6.879  11.911
 6159SOL    HW220375  11.697   6.750  11.832
 6160SOL     OW20376  11.156  11.612   8.264
 6160SOL    HW120377  11.229  11.570   8.310
 6160SOL    HW220378  11.078  11.584   8.310
 6161SOL     OW20379  11.366   3.810   7.519
 6161SOL    HW120380  11.270   3.803   7.526
 6161SOL    HW220381  11.395   3.820   7.610
 6162SOL     OW20382  11.369   4.951   8.855
 6162SOL    HW120383  11.380   4.922   8.764
 6162SOL    HW220384  11.282   4.990   8.858
 6163SOL     OW20385   1.830  11.076   3.565
 6163SOL    HW120386   1.890  11.026   3.621
 6163SOL    HW220387   1.883  11.106   3.492
 6164SOL     OW20388   4.823   7.929   6.304
 6164SOL    HW120389   4.862   7.945   6.390
 6164SOL    HW220390   4.859   7.996   6.247
 6165SOL     OW20391  10.089  11.913  12.766
 6165SOL    HW120392  10.136  11.978  12.818
 6165SOL    HW220393  10.100  11.831  12.815
 6166SOL     OW20394  14.162   7.493   2.965
 6166SOL    HW120395  14.153   7.422   3.028
 6166SOL    HW220396  14.081   7.490   2.913
 6167SOL     OW20397   0.724  14.785  11.549
 6167SOL    HW120398   0.718  14.821  11.638
 6167SOL    HW220399   0.812  14.748  11.544
 6168SOL     OW20400   3.102   8.867   5.993
 6168SOL    HW120401   3.101   8.772   6.011
 6168SOL    HW220402   3.030   8.902   6.046
 6169SOL     OW20403   2.174   3.501   3.013
 6169SOL    HW120404   2.188   3.475   3.104
 6169SOL    HW220405   2.254   3.547   2.989
 6170SOL     OW20406  11.532   1.058   0.481
 6170SOL    HW120407  11.618   1.033   0.515
 6170SOL    HW220408  11.542   1.054   0.385
 6171SOL     OW20409   7.964   1.545   7.145
 6171SOL    HW120410   7.981   1.465   7.094
 6171SOL    HW220411   7.890   1.522   7.200
 6172SOL     OW20412   4.858   8.231   4.908
 6172SOL    HW120413   4.913   8.253   4.833
 6172SOL    HW220414   4.887   8.292   4.977
 6173SOL     OW20415   6.407   5.426   7.977
 6173SOL    HW120416   6.501   5.414   7.985
 6173SOL    HW220417   6.370   5.380   8.052
 6174SOL     OW20418   4.742  11.641   4.999
 6174SOL    HW120419   4.834  11.644   4.975
 6174SOL    HW220420   4.707  11.726   4.972
 6175SOL     OW20421  14.253   3.763   4.244
 6175SOL    HW120422  14.217   3.852   4.242
 6175SOL    HW220423  14.331   3.770   4.300
 6176SOL     OW20424   8.629  11.209   4.953
 6176SOL    HW120425   8.580  11.130   4.933
 6176SOL    HW220426   8.683  11.185   5.029
 6177SOL     OW20427  14.384  11.266   9.745
 6177SOL    HW120428  14.294  11.300   9.743
 6177SOL    HW220429  14.433  11.330   9.796
 6178SOL     OW20430   2.074  11.296  12.270
 6178SOL    HW120431   2.068  11.219  12.327
 6178SOL    HW220432   2.085  11.259  12.182
 6179SOL     OW20433   4.202   5.626   3.292
 6179SOL    HW120434   4.212   5.577   3.211
 6179SOL    HW220435   4.110   5.652   3.293
 6180SOL     OW20436  13.230   7.388  13.532
 6180SOL    HW120437  13.167   7.410  13.464
 6180SOL    HW220438  13.277   7.312  13.497
 6181SOL     OW20439   6.341   4.519   5.184
 6181SOL    HW120440   6.258   4.470   5.188
 6181SOL    HW220441   6.399   4.463   5.132
 6182SOL     OW20442   1.502   5.594   0.897
 6182SOL    HW120443   1.487   5.688   0.910
 6182SOL    HW220444   1.419   5.561   0.866
 6183SOL     OW20445   5.619  14.768   9.950
 6183SOL    HW120446   5.574  14.850   9.972
 6183SOL    HW220447   5.678  14.753  10.024
 6184SOL     OW20448  13.432   3.627   6.095
 6184SOL    HW120449  13.510   3.574   6.111
 6184SOL    HW220450  13.417   3.621   6.001
 6185SOL     OW20451   6.741   3.020   9.980
 6185SOL    HW120452   6.810   3.083   9.957
 6185SOL    HW220453   6.776   2.975  10.057
 6186SOL     OW20454   2.370  13.755  14.568
 6186SOL    HW120455   2.411  13.801  14.495
 6186SOL    HW220456   2.432  13.764  14.641
 6187SOL     OW20457  13.277   9.414   6.396
 6187SOL    HW120458  13.318   9.332   6.424
 6187SOL    HW220459  13.190   9.388   6.366
 6188SOL     OW20460   8.324   3.693  14.666
 6188SOL    HW120461   8.414   3.693  14.633
 6188SOL    HW220462   8.270   3.707  14.589
 6189SOL     OW20463   3.179  10.475  12.028
 6189SOL    HW120464   3.273  10.493  12.020
 6189SOL    HW220465   3.175  10.389  12.069
 6190SOL     OW20466  13.561   2.829  12.202
 6190SOL    HW120467  13.570   2.753  12.144
 6190SOL    HW220468  13.631   2.820  12.265
 6191SOL     OW20469   8.899  13.755   9.790
 6191SOL    HW120470   8.873  13.834   9.742
 6191SOL    HW220471   8.994  13.759   9.792
 6192SOL     OW20472  11.571   2.317   7.902
 6192SOL    HW120473  11.566   2.235   7.950
 6192SOL    HW220474  11.618   2.376   7.960
 6193SOL     OW20475   4.136   3.295  13.058
 6193SOL    HW120476   4.164   3.210  13.091
 6193SOL    HW220477   4.057   3.277  13.008
 6194SOL     OW20478   7.897  10.284   9.089
 6194SOL    HW120479   7.923  10.335   9.166
 6194SOL    HW220480   7.838  10.217   9.123
 6195SOL     OW20481  13.428   2.225   4.426
 6195SOL    HW120482  13.424   2.316   4.453
 6195SOL    HW220483  13.511   2.217   4.378
 6196SOL     OW20484   4.664   8.513   9.318
 6196SOL    HW120485   4.710   8.595   9.337
 6196SOL    HW220486   4.721   8.445   9.353
 6197SOL     OW20487  13.181   8.790   2.753
 6197SOL    HW120488  13.110   8.784   2.817
 6197SOL    HW220489  13.186   8.702   2.715
 6198SOL     OW20490   3.976   6.412  13.217
 6198SOL    HW120491   4.053   6.357  13.230
 6198SOL    HW220492   3.904   6.362  13.255
 6199SOL     OW20493   4.264  10.869   7.955
 6199SOL    HW120494   4.309  10.834   7.878
 6199SOL    HW220495   4.180  10.900   7.922
 6200SOL     OW20496  12.136   4.025   5.145
 6200SOL    HW120497  12.051   4.028   5.189
 6200SOL    HW220498  12.160   3.932   5.146
 6201SOL     OW20499  12.293   8.643   1.594
 6201SOL    HW120500  12.379   8.684   1.610
 6201SOL    HW220501  12.236   8.680   1.662
 6202SOL     OW20502   1.940   5.499   1.366
 6202SOL    HW120503   1.919   5.457   1.283
 6202SOL    HW220504   1.856   5.535   1.397
 6203SOL     OW20505  12.194  10.301   4.648
 6203SOL    HW120506  12.273  10.271   4.693
 6203SOL    HW220507  12.193  10.253   4.566
 6204SOL     OW20508   7.436   7.800   2.919
 6204SOL    HW120509   7.512   7.821   2.974
 6204SOL    HW220510   7.381   7.745   2.975
 6205SOL     OW20511   0.049   5.031   6.383
 6205SOL    HW120512   0.007   4.975   6.318
 6205SOL    HW220513   0.136   4.993   6.395
 6206SOL     OW20514   1.219   8.988   3.605
 6206SOL    HW120515   1.227   9.073   3.560
 6206SOL    HW220516   1.197   8.926   3.535
 6207SOL     OW20517   1.184  10.780  12.008
 6207SOL    HW120518   1.189  10.705  12.068
 6207SOL    HW220519   1.094  10.777  11.974
 6208SOL     OW20520   1.685   6.642   3.196
 6208SOL    HW120521   1.726   6.640   3.283
 6208SOL    HW220522   1.713   6.726   3.159
 6209SOL     OW20523   6.075  12.492   5.761
 6209SOL    HW120524   6.138  12.473   5.830
 6209SOL    HW220525   6.097  12.581   5.732
 6210SOL     OW20526  14.740   4.299   5.854
 6210SOL    HW120527  14.802   4.371   5.848
 6210SOL    HW220528  14.672   4.320   5.789
 6211SOL     OW20529   2.186   0.775   0.698
 6211SOL    HW120530   2.277   0.746   0.691
 6211SOL    HW220531   2.140   0.725   0.630
 6212SOL     OW20532   4.360  11.677   4.854
 6212SOL    HW120533   4.361  11.718   4.767
 6212SOL    HW220534   4.419  11.602   4.847
 6213SOL     OW20535   4.029   3.374   9.927
 6213SOL    HW120536   3.992   3.291   9.896
 6213SOL    HW220537   3.969   3.403   9.995
 6214SOL     OW20538  11.325  13.893   1.650
 6214SOL    HW120539  11.294  13.896   1.560
 6214SOL    HW220540  11.421  13.897   1.643
 6215SOL     OW20541  10.402   4.027  12.543
 6215SOL    HW120542  10.466   3.974  12.591
 6215SOL    HW220543  10.434   4.029  12.453
 6216SOL     OW20544   6.219   4.642  14.204
 6216SOL    HW120545   6.244   4.552  14.227
 6216SOL    HW220546   6.125   4.635  14.185
 6217SOL     OW20547   3.045  14.848   4.208
 6217SOL    HW120548   3.031  14.811   4.120
 6217SOL    HW220549   3.080  14.775   4.259
 6218SOL     OW20550  12.732   7.544  12.812
 6218SOL    HW120551  12.794   7.592  12.867
 6218SOL    HW220552  12.771   7.546  12.725
 6219SOL     OW20553   9.768   8.251  11.151
 6219SOL    HW120554   9.852   8.289  11.126
 6219SOL    HW220555   9.710   8.272  11.078
 6220SOL     OW20556   0.253   2.395   1.015
 6220SOL    HW120557   0.336   2.423   1.054
 6220SOL    HW220558   0.278   2.347   0.936
 6221SOL     OW20559   1.698  14.006  11.827
 6221SOL    HW120560   1.716  14.080  11.886
 6221SOL    HW220561   1.625  14.036  11.773
 6222SOL     OW20562   1.260   8.048   3.747
 6222SOL    HW120563   1.303   8.118   3.795
 6222SOL    HW220564   1.330   8.004   3.699
 6223SOL     OW20565   0.374  13.341  12.066
 6223SOL    HW120566   0.287  13.341  12.027
 6223SOL    HW220567   0.434  13.331  11.992
 6224SOL     OW20568  10.680   8.186  13.301
 6224SOL    HW120569  10.606   8.242  13.326
 6224SOL    HW220570  10.736   8.185  13.378
 6225SOL     OW20571   9.417   0.347   9.881
 6225SOL    HW120572   9.471   0.422   9.905
 6225SOL    HW220573   9.454   0.316   9.799
 6226SOL     OW20574  14.622   7.278   2.237
 6226SOL    HW120575  14.533   7.246   2.226
 6226SOL    HW220576  14.658   7.278   2.148
 6227SOL     OW20577   9.198   7.676   6.878
 6227SOL    HW120578   9.251   7.698   6.801
 6227SOL    HW220579   9.145   7.754   6.894
 6228SOL     OW20580   1.629   0.826   7.897
 6228SOL    HW120581   1.702   0.834   7.958
 6228SOL    HW220582   1.628   0.909   7.849
 6229SOL     OW20583  13.640   3.583  13.720
 6229SOL    HW120584  13.592   3.586  13.803
 6229SOL    HW220585  13.677   3.671  13.710
 6230SOL     OW20586   7.093   4.938   5.596
 6230SOL    HW120587   7.102   5.027   5.561
 6230SOL    HW220588   7.131   4.881   5.529
 6231SOL     OW20589   4.917  12.162  14.834
 6231SOL    HW120590   4.826  12.135  14.845
 6231SOL    HW220591   4.963  12.122   0.031
 6232SOL     OW20592   4.556   1.693   3.424
 6232SOL    HW120593   4.528   1.783   3.406
 6232SOL    HW220594   4.633   1.703   3.479
 6233SOL     OW20595  10.325  12.587   4.698
 6233SOL    HW120596  10.328  12.540   4.782
 6233SOL    HW220597  10.417  12.605   4.678
 6234SOL     OW20598  11.266   9.943   3.514
 6234SOL    HW120599  11.182   9.898   3.508
 6234SOL    HW220600  11.302   9.938   3.426
 6235SOL     OW20601  14.356   2.606   1.188
 6235SOL    HW120602  14.380   2.688   1.145
 6235SOL    HW220603  14.403   2.539   1.139
 6236SOL     OW20604   9.650  12.781   7.041
 6236SOL    HW120605   9.616  12.804   7.128
 6236SOL    HW220606   9.593  12.709   7.013
 6237SOL     OW20607   7.271  10.738  12.411
 6237SOL    HW120608   7.228  10.665  12.456
 6237SOL    HW220609   7.227  10.743  12.326
 6238SOL     OW20610  13.895   4.491   0.847
 6238SOL    HW120611  13.917   4.540   0.768
 6238SOL    HW220612  13.815   4.532   0.880
 6239SOL     OW20613   6.742  10.724   0.770
 6239SOL    HW120614   6.652  10.696   0.785
 6239SOL    HW220615   6.776  10.664   0.704
 6240SOL     OW20616  13.142  10.076   7.740
 6240SOL    HW120617  13.191  10.069   7.822
 6240SOL    HW220618  13.209  10.088   7.673
 6241SOL     OW20619   7.256   4.882   0.843
 6241SOL    HW120620   7.222   4.795   0.864
 6241SOL    HW220621   7.205   4.941   0.899
 6242SOL     OW20622  10.011   4.604  12.457
 6242SOL    HW120623  10.049   4.683  12.419
 6242SOL    HW220624   9.951   4.571  12.390
 6243SOL     OW20625   3.896  14.506  10.306
 6243SOL    HW120626   3.881  14.509  10.211
 6243SOL    HW220627   3.947  14.584  10.325
 6244SOL     OW20628   7.525  12.563   9.922
 6244SOL    HW120629   7.529  12.613  10.004
 6244SOL    HW220630   7.460  12.609   9.869
 6245SOL     OW20631  13.499   9.418   0.214
 6245SOL    HW120632  13.465   9.337   0.175
 6245SOL    HW220633  13.533   9.468   0.139
 6246SOL     OW20634   9.854   0.766  13.044
 6246SOL    HW120635   9.853   0.704  12.971
 6246SOL    HW220636   9.846   0.852  13.002
 6247SOL     OW20637   7.280  12.748  13.946
 6247SOL    HW120638   7.340  12.741  13.871
 6247SOL    HW220639   7.247  12.659  13.958
 6248SOL     OW20640   9.735   3.755  14.762
 6248SOL    HW120641   9.725   3.663  14.786
 6248SOL    HW220642   9.715   3.804  14.842
 6249SOL     OW20643   6.614   1.730   4.450
 6249SOL    HW120644   6.623   1.814   4.405
 6249SOL    HW220645   6.633   1.665   4.382
 6250SOL     OW20646  12.223  10.644   0.245
 6250SOL    HW120647  12.205  10.669   0.155
 6250SOL    HW220648  12.164  10.571   0.262
 6251SOL     OW20649   1.835   9.200   7.737
 6251SOL    HW120650   1.757   9.241   7.700
 6251SOL    HW220651   1.887   9.273   7.770
 6252SOL     OW20652  13.925   4.166   4.881
 6252SOL    HW120653  13.933   4.209   4.796
 6252SOL    HW220654  13.904   4.236   4.942
 6253SOL     OW20655   9.038   9.534   4.916
 6253SOL    HW120656   9.030   9.616   4.963
 6253SOL    HW220657   8.986   9.472   4.966
 6254SOL     OW20658   5.656   2.981  13.208
 6254SOL    HW120659   5.569   3.004  13.241
 6254SOL    HW220660   5.654   2.885  13.202
 6255SOL     OW20661   9.367   4.931   8.691
 6255SOL    HW120662   9.416   4.909   8.770
 6255SOL    HW220663   9.374   4.853   8.636
 6256SOL     OW20664  10.296   8.082  12.208
 6256SOL    HW120665  10.244   8.063  12.129
 6256SOL    HW220666  10.263   8.020  12.273
 6257SOL     OW20667   1.710   7.286   3.852
 6257SOL    HW120668   1.727   7.219   3.786
 6257SOL    HW220669   1.765   7.260   3.926
 6258SOL     OW20670   5.523   5.196   0.344
 6258SOL    HW120671   5.429   5.212   0.347
 6258SOL    HW220672   5.560   5.260   0.405
 6259SOL     OW20673  14.456   0.321   4.237
 6259SOL    HW120674  14.506   0.333   4.156
 6259SOL    HW220675  14.522   0.322   4.306
 6260SOL     OW20676  11.287   1.405   1.197
 6260SOL    HW120677  11.249   1.458   1.128
 6260SOL    HW220678  11.281   1.459   1.275
 6261SOL     OW20679   4.272   1.244   3.954
 6261SOL    HW120680   4.346   1.183   3.956
 6261SOL    HW220681   4.313   1.330   3.954
 6262SOL     OW20682   2.661   2.601  11.538
 6262SOL    HW120683   2.603   2.668  11.575
 6262SOL    HW220684   2.731   2.592  11.602
 6263SOL     OW20685  11.712  14.194   6.443
 6263SOL    HW120686  11.681  14.110   6.477
 6263SOL    HW220687  11.743  14.241   6.521
 6264SOL     OW20688   5.601   3.375  12.718
 6264SOL    HW120689   5.619   3.293  12.672
 6264SOL    HW220690   5.522   3.409  12.678
 6265SOL     OW20691   5.697   5.578   0.744
 6265SOL    HW120692   5.660   5.641   0.806
 6265SOL    HW220693   5.790   5.574   0.765
 6266SOL     OW20694   0.426   1.991   0.316
 6266SOL    HW120695   0.494   1.946   0.366
 6266SOL    HW220696   0.344   1.951   0.345
 6267SOL     OW20697   6.357   4.292   0.825
 6267SOL    HW120698   6.370   4.386   0.813
 6267SOL    HW220699   6.403   4.252   0.751
 6268SOL     OW20700   4.511   3.720   8.655
 6268SOL    HW120701   4.470   3.762   8.579
 6268SOL    HW220702   4.589   3.774   8.672
 6269SOL     OW20703   2.419   3.050   6.068
 6269SOL    HW120704   2.416   3.107   5.991
 6269SOL    HW220705   2.379   2.968   6.038
 6270SOL     OW20706   0.351   7.948   6.357
 6270SOL    HW120707   0.434   7.904   6.344
 6270SOL    HW220708   0.299   7.925   6.281
 6271SOL     OW20709   7.933   5.194  14.463
 6271SOL    HW120710   7.845   5.168  14.490
 6271SOL    HW220711   7.930   5.290  14.460
 6272SOL     OW20712   3.989  10.799  12.629
 6272SOL    HW120713   3.894  10.790  12.624
 6272SOL    HW220714   4.023  10.734  12.567
 6273SOL     OW20715  10.277   2.361   5.991
 6273SOL    HW120716  10.323   2.277   6.000
 6273SOL    HW220717  10.184   2.339   5.997
 6274SOL     OW20718   2.889   5.754  11.252
 6274SOL    HW120719   2.830   5.710  11.191
 6274SOL    HW220720   2.933   5.821  11.199
 6275SOL     OW20721   0.855  10.038  14.380
 6275SOL    HW120722   0.863  10.107  14.445
 6275SOL    HW220723   0.785   9.981  14.414
 6276SOL     OW20724   2.849   2.319   0.758
 6276SOL    HW120725   2.943   2.313   0.777
 6276SOL    HW220726   2.834   2.413   0.742
 6277SOL     OW20727  10.673  14.488   5.498
 6277SOL    HW120728  10.703  14.410   5.543
 6277SOL    HW220729  10.747  14.548   5.501
 6278SOL     OW20730   7.985  12.801   0.780
 6278SOL    HW120731   8.079  12.786   0.771
 6278SOL    HW220732   7.961  12.752   0.859
 6279SOL     OW20733   0.614   7.113   2.690
 6279SOL    HW120734   0.564   7.125   2.610
 6279SOL    HW220735   0.563   7.159   2.757
 6280SOL     OW20736   9.433   3.357   4.672
 6280SOL    HW120737   9.480   3.373   4.591
 6280SOL    HW220738   9.340   3.363   4.648
 6281SOL     OW20739   0.083   4.750  12.594
 6281SOL    HW120740   0.095   4.789  12.681
 6281SOL    HW220741  14.867   4.762  12.575
 6282SOL     OW20742   0.168  10.210  13.298
 6282SOL    HW120743   0.096  10.271  13.314
 6282SOL    HW220744   0.234  10.234  13.364
 6283SOL     OW20745  12.125  14.091   8.874
 6283SOL    HW120746  12.058  14.061   8.813
 6283SOL    HW220747  12.100  14.054   8.958
 6284SOL     OW20748  10.532  12.018  14.266
 6284SOL    HW120749  10.627  12.026  14.256
 6284SOL    HW220750  10.498  12.030  14.177
 6285SOL     OW20751   1.152   2.030  10.549
 6285SOL    HW120752   1.168   1.955  10.491
 6285SOL    HW220753   1.064   2.058  10.526
 6286SOL     OW20754   8.376   4.718  10.898
 6286SOL    HW120755   8.457   4.694  10.852
 6286SOL    HW220756   8.405   4.756  10.980
 6287SOL     OW20757  11.405   6.321  10.312
 6287SOL    HW120758  11.318   6.341  10.347
 6287SOL    HW220759  11.416   6.227  10.326
 6288SOL     OW20760   7.274  13.665   0.732
 6288SOL    HW120761   7.196  13.720   0.720
 6288SOL    HW220762   7.326  13.713   0.796
 6289SOL     OW20763   7.067   5.005  11.877
 6289SOL    HW120764   7.156   4.970  11.884
 6289SOL    HW220765   7.061   5.038  11.788
 6290SOL     OW20766   2.337  11.691   8.324
 6290SOL    HW120767   2.287  11.614   8.351
 6290SOL    HW220768   2.428  11.669   8.343
 6291SOL     OW20769   3.552   3.065   3.438
 6291SOL    HW120770   3.512   3.085   3.353
 6291SOL    HW220771   3.509   2.985   3.468
 6292SOL     OW20772   9.175   9.014  13.377
 6292SOL    HW120773   9.178   9.104  13.345
 6292SOL    HW220774   9.082   8.995  13.388
 6293SOL     OW20775   5.882   7.699   8.972
 6293SOL    HW120776   5.956   7.729   9.025
 6293SOL    HW220777   5.837   7.780   8.946
 6294SOL     OW20778   9.904   0.831  12.717
 6294SOL    HW120779   9.894   0.742  12.751
 6294SOL    HW220780   9.990   0.859  12.750
 6295SOL     OW20781  12.651  14.149   2.209
 6295SOL    HW120782  12.633  14.057   2.190
 6295SOL    HW220783  12.717  14.147   2.278
 6296SOL     OW20784  13.785   6.724   2.641
 6296SOL    HW120785  13.770   6.814   2.667
 6296SOL    HW220786  13.879   6.719   2.623
 6297SOL     OW20787  12.126  12.429  11.842
 6297SOL    HW120788  12.125  12.471  11.929
 6297SOL    HW220789  12.213  12.391  11.835
 6298SOL     OW20790  14.460   1.784   3.514
 6298SOL    HW120791  14.390   1.719   3.514
 6298SOL    HW220792  14.511   1.764   3.435
 6299SOL     OW20793   5.186   5.295   1.800
 6299SOL    HW120794   5.189   5.218   1.856
 6299SOL    HW220795   5.123   5.354   1.843
 6300SOL     OW20796  12.073   6.709  12.157
 6300SOL    HW120797  12.086   6.621  12.122
 6300SOL    HW220798  12.043   6.695  12.246
 6301SOL     OW20799  14.345  13.282  10.750
 6301SOL    HW120800  14.378  13.215  10.809
 6301SOL    HW220801  14.386  13.262  10.665
 6302SOL     OW20802   8.608   9.957   3.133
 6302SOL    HW120803   8.636  10.037   3.178
 6302SOL    HW220804   8.613   9.979   3.040
 6303SOL     OW20805  13.975   7.676  11.031
 6303SOL    HW120806  13.889   7.719  11.028
 6303SOL    HW220807  13.963   7.596  10.981
 6304SOL     OW20808  11.908  11.429   6.520
 6304SOL    HW120809  11.951  11.504   6.479
 6304SOL    HW220810  11.876  11.377   6.447
 6305SOL     OW20811  13.605   5.044  14.673
 6305SOL    HW120812  13.615   5.139  14.669
 6305SOL    HW220813  13.684   5.010  14.632
 6306SOL     OW20814  14.579   1.336   6.997
 6306SOL    HW120815  14.509   1.294   7.046
 6306SOL    HW220816  14.536   1.409   6.952
 6307SOL     OW20817  13.788   0.115   7.335
 6307SOL    HW120818  13.856   0.103   7.401
 6307SOL    HW220819  13.819   0.188   7.282
 6308SOL     OW20820   7.578   5.396   9.878
 6308SOL    HW120821   7.559   5.315   9.926
 6308SOL    HW220822   7.518   5.461   9.916
 6309SOL     OW20823   7.829  13.721   8.066
 6309SOL    HW120824   7.837  13.816   8.064
 6309SOL    HW220825   7.866  13.692   7.983
 6310SOL     OW20826   9.234   6.586   3.975
 6310SOL    HW120827   9.148   6.601   4.014
 6310SOL    HW220828   9.222   6.512   3.916
 6311SOL     OW20829  14.052   1.872   8.678
 6311SOL    HW120830  14.124   1.865   8.740
 6311SOL    HW220831  14.019   1.962   8.689
 6312SOL     OW20832   3.405   4.601   5.962
 6312SOL    HW120833   3.318   4.563   5.961
 6312SOL    HW220834   3.391   4.696   5.961
 6313SOL     OW20835   4.706   5.473   9.431
 6313SOL    HW120836   4.674   5.490   9.342
 6313SOL    HW220837   4.783   5.529   9.440
 6314SOL     OW20838   0.939  10.389   1.223
 6314SOL    HW120839   0.955  10.465   1.168
 6314SOL    HW220840   1.016  10.333   1.211
 6315SOL     OW20841   0.011   1.071   6.613
 6315SOL    HW120842   0.100   1.054   6.642
 6315SOL    HW220843  14.839   1.086   6.693
 6316SOL     OW20844   6.630   0.324   9.878
 6316SOL    HW120845   6.691   0.323   9.952
 6316SOL    HW220846   6.575   0.247   9.891
 6317SOL     OW20847   2.514  13.176   5.385
 6317SOL    HW120848   2.426  13.171   5.348
 6317SOL    HW220849   2.521  13.099   5.442
 6318SOL     OW20850   0.645   3.424   6.358
 6318SOL    HW120851   0.707   3.355   6.381
 6318SOL    HW220852   0.582   3.426   6.430
 6319SOL     OW20853   4.092   8.372  11.644
 6319SOL    HW120854   4.124   8.318  11.715
 6319SOL    HW220855   4.106   8.462  11.673
 6320SOL     OW20856   8.330  12.070  11.588
 6320SOL    HW120857   8.385  12.132  11.541
 6320SOL    HW220858   8.391  12.018  11.641
 6321SOL     OW20859  13.822  13.417   7.999
 6321SOL    HW120860  13.814  13.495   8.054
 6321SOL    HW220861  13.880  13.443   7.928
 6322SOL     OW20862   5.323   6.073  12.550
 6322SOL    HW120863   5.348   6.157  12.512
 6322SOL    HW220864   5.255   6.094  12.614
 6323SOL     OW20865   4.892   0.617  13.677
 6323SOL    HW120866   4.829   0.689  13.679
 6323SOL    HW220867   4.860   0.555  13.744
 6324SOL     OW20868   8.150   5.326   0.276
 6324SOL    HW120869   8.087   5.398   0.267
 6324SOL    HW220870   8.213   5.342   0.205
 6325SOL     OW20871   8.974  10.478   3.354
 6325SOL    HW120872   8.903  10.542   3.341
 6325SOL    HW220873   8.948  10.431   3.434
 6326SOL     OW20874  12.158   1.810  12.686
 6326SOL    HW120875  12.161   1.899  12.650
 6326SOL    HW220876  12.125   1.820  12.775
 6327SOL     OW20877   2.846  14.859   3.623
 6327SOL    HW120878   2.905   0.054   3.603
 6327SOL    HW220879   2.886  14.816   3.699
 6328SOL     OW20880  11.534  10.152   7.856
 6328SOL    HW120881  11.581  10.234   7.870
 6328SOL    HW220882  11.451  10.164   7.904
 6329SOL     OW20883   6.331   8.928   7.453
 6329SOL    HW120884   6.335   9.011   7.501
 6329SOL    HW220885   6.256   8.883   7.490
 6330SOL     OW20886   4.654  13.547   4.740
 6330SOL    HW120887   4.612  13.466   4.768
 6330SOL    HW220888   4.737  13.520   4.702
 6331SOL     OW20889  13.241  12.249  12.705
 6331SOL    HW120890  13.164  12.223  12.756
 6331SOL    HW220891  13.214  12.240  12.614
 6332SOL     OW20892  14.507  14.579  12.957
 6332SOL    HW120893  14.486  14.641  12.888
 6332SOL    HW220894  14.437  14.514  12.954
 6333SOL     OW20895  13.157  14.606   1.636
 6333SOL    HW120896  13.192  14.694   1.643
 6333SOL    HW220897  13.145  14.592   1.542
 6334SOL     OW20898   7.027  10.534  14.257
 6334SOL    HW120899   7.006  10.453  14.210
 6334SOL    HW220900   6.983  10.602  14.206
 6335SOL     OW20901   2.461   3.438  14.708
 6335SOL    HW120902   2.431   3.374  14.773
 6335SOL    HW220903   2.554   3.449  14.725
 6336SOL     OW20904  12.897   7.262  12.735
 6336SOL    HW120905  12.890   7.301  12.822
 6336SOL    HW220906  12.850   7.179  12.741
 6337SOL     OW20907  10.490   4.059   6.573
 6337SOL    HW120908  10.505   4.010   6.653
 6337SOL    HW220909  10.577   4.083   6.543
 6338SOL     OW20910   8.133  11.331  11.636
 6338SOL    HW120911   8.105  11.368  11.720
 6338SOL    HW220912   8.109  11.397  11.571
 6339SOL     OW20913   8.096   8.425  13.587
 6339SOL    HW120914   8.084   8.405  13.680
 6339SOL    HW220915   8.132   8.345  13.550
 6340SOL     OW20916   7.797  11.793   3.689
 6340SOL    HW120917   7.731  11.850   3.649
 6340SOL    HW220918   7.880  11.823   3.653
 6341SOL     OW20919  12.342  12.359  14.697
 6341SOL    HW120920  12.322  12.444  14.736
 6341SOL    HW220921  12.289  12.357  14.617
 6342SOL     OW20922   4.585   3.353   6.000
 6342SOL    HW120923   4.578   3.257   5.999
 6342SOL    HW220924   4.505   3.382   6.043
 6343SOL     OW20925   6.563   0.729  12.803
 6343SOL    HW120926   6.542   0.765  12.889
 6343SOL    HW220927   6.503   0.655  12.793
 6344SOL     OW20928   1.854   3.385   7.909
 6344SOL    HW120929   1.927   3.339   7.950
 6344SOL    HW220930   1.821   3.325   7.843
 6345SOL     OW20931   8.766   0.818   5.902
 6345SOL    HW120932   8.760   0.740   5.846
 6345SOL    HW220933   8.750   0.891   5.842
 6346SOL     OW20934   7.513   2.604   9.110
 6346SOL    HW120935   7.598   2.638   9.083
 6346SOL    HW220936   7.465   2.593   9.028
 6347SOL     OW20937  10.798  13.246   0.511
 6347SOL    HW120938  10.740  13.196   0.569
 6347SOL    HW220939  10.838  13.180   0.455
 6348SOL     OW20940  11.247   2.267   9.891
 6348SOL    HW120941  11.312   2.330   9.922
 6348SOL    HW220942  11.165   2.295   9.932
 6349SOL     OW20943  14.255   0.578   6.222
 6349SOL    HW120944  14.346   0.547   6.214
 6349SOL    HW220945  14.229   0.553   6.310
 6350SOL     OW20946  11.283   5.781  13.698
 6350SOL    HW120947  11.220   5.841  13.738
 6350SOL    HW220948  11.244   5.694  13.710
 6351SOL     OW20949   1.766  14.340   2.901
 6351SOL    HW120950   1.712  14.271   2.863
 6351SOL    HW220951   1.721  14.421   2.879
 6352SOL     OW20952   1.076   4.639   3.357
 6352SOL    HW120953   1.073   4.730   3.328
 6352SOL    HW220954   1.002   4.630   3.417
 6353SOL     OW20955  10.859  11.778   7.480
 6353SOL    HW120956  10.924  11.742   7.420
 6353SOL    HW220957  10.777  11.734   7.456
 6354SOL     OW20958   2.632   0.731   1.480
 6354SOL    HW120959   2.560   0.794   1.479
 6354SOL    HW220960   2.693   0.765   1.545
 6355SOL     OW20961   4.156   4.051  10.648
 6355SOL    HW120962   4.155   4.035  10.743
 6355SOL    HW220963   4.171   4.145  10.639
 6356SOL     OW20964   9.284  11.622  10.160
 6356SOL    HW120965   9.240  11.554  10.212
 6356SOL    HW220966   9.355  11.653  10.215
 6357SOL     OW20967   2.508  13.985   1.373
 6357SOL    HW120968   2.504  14.066   1.322
 6357SOL    HW220969   2.600  13.959   1.370
 6358SOL     OW20970   0.411   1.151  12.788
 6358SOL    HW120971   0.393   1.228  12.842
 6358SOL    HW220972   0.367   1.168  12.705
 6359SOL     OW20973   5.372  14.265   8.145
 6359SOL    HW120974   5.457  14.238   8.110
 6359SOL    HW220975   5.318  14.283   8.068
 6360SOL     OW20976  12.560   3.291   1.970
 6360SOL    HW120977  12.588   3.381   1.955
 6360SOL    HW220978  12.530   3.261   1.885
 6361SOL     OW20979   1.289   2.065   4.003
 6361SOL    HW120980   1.225   2.095   3.938
 6361SOL    HW220981   1.239   2.007   4.061
 6362SOL     OW20982   7.632  14.637   1.127
 6362SOL    HW120983   7.726  14.621   1.118
 6362SOL    HW220984   7.606  14.583   1.202
 6363SOL     OW20985  11.802   8.642   1.220
 6363SOL    HW120986  11.830   8.612   1.133
 6363SOL    HW220987  11.711   8.614   1.226
 6364SOL     OW20988  12.190   8.145   0.340
 6364SOL    HW120989  12.215   8.168   0.250
 6364SOL    HW220990  12.146   8.224   0.373
 6365SOL     OW20991  10.648  11.558  14.186
 6365SOL    HW120992  10.628  11.510  14.266
 6365SOL    HW220993  10.690  11.639  14.216
 6366SOL     OW20994   3.673   6.777  10.512
 6366SOL    HW120995   3.626   6.718  10.454
 6366SOL    HW220996   3.765   6.753  10.502
 6367SOL     OW20997   0.777  14.511   2.085
 6367SOL    HW120998   0.815  14.595   2.109
 6367SOL    HW220999   0.693  14.508   2.132
 6368SOL     OW21000  14.494   8.595  10.696
 6368SOL    HW121001  14.526   8.516  10.653
 6368SOL    HW221002  14.501   8.663  10.629
 6369SOL     OW21003   5.729  10.747   4.897
 6369SOL    HW121004   5.691  10.791   4.973
 6369SOL    HW221005   5.823  10.763   4.904
 6370SOL     OW21006  12.512   6.608   7.084
 6370SOL    HW121007  12.590   6.645   7.126
 6370SOL    HW221008  12.485   6.538   7.142
 6371SOL     OW21009   3.018  14.030   1.174
 6371SOL    HW121010   3.024  14.065   1.085
 6371SOL    HW221011   3.107  13.998   1.192
 6372SOL     OW21012  11.489   9.628  12.756
 6372SOL    HW121013  11.543   9.705  12.739
 6372SOL    HW221014  11.402   9.663  12.774
 6373SOL     OW21015   2.199   9.528   2.981
 6373SOL    HW121016   2.239   9.548   2.896
 6373SOL    HW221017   2.210   9.434   2.991
 6374SOL     OW21018   7.900   0.831   3.999
 6374SOL    HW121019   7.977   0.869   4.040
 6374SOL    HW221020   7.888   0.882   3.919
 6375SOL     OW21021   9.663   4.205   5.715
 6375SOL    HW121022   9.606   4.263   5.765
 6375SOL    HW221023   9.732   4.180   5.776
 6376SOL     OW21024  13.496   7.406   7.803
 6376SOL    HW121025  13.526   7.325   7.844
 6376SOL    HW221026  13.572   7.464   7.805
 6377SOL     OW21027  12.206  14.478   6.575
 6377SOL    HW121028  12.194  14.388   6.603
 6377SOL    HW221029  12.249  14.472   6.490
 6378SOL     OW21030  11.855  12.392   5.502
 6378SOL    HW121031  11.942  12.400   5.541
 6378SOL    HW221032  11.860  12.314   5.447
 6379SOL     OW21033   9.207  10.534   9.910
 6379SOL    HW121034   9.219  10.473   9.837
 6379SOL    HW221035   9.121  10.513   9.945
 6380SOL     OW21036   7.303   0.766   0.014
 6380SOL    HW121037   7.350   0.690   0.049
 6380SOL    HW221038   7.318   0.761  14.797
 6381SOL     OW21039  11.140   7.338  12.444
 6381SOL    HW121040  11.119   7.385  12.363
 6381SOL    HW221041  11.225   7.372  12.470
 6382SOL     OW21042   1.988  13.184  12.303
 6382SOL    HW121043   1.938  13.202  12.224
 6382SOL    HW221044   1.987  13.265  12.352
 6383SOL     OW21045   9.109   6.423   6.861
 6383SOL    HW121046   9.158   6.446   6.941
 6383SOL    HW221047   9.177   6.401   6.798
 6384SOL     OW21048  11.323  12.570   1.459
 6384SOL    HW121049  11.402  12.533   1.421
 6384SOL    HW221050  11.251  12.524   1.415
 6385SOL     OW21051   1.863   4.395   9.021
 6385SOL    HW121052   1.862   4.457   9.094
 6385SOL    HW221053   1.873   4.310   9.063
 6386SOL     OW21054  11.586  10.888   1.687
 6386SOL    HW121055  11.541  10.848   1.612
 6386SOL    HW221056  11.603  10.815   1.747
 6387SOL     OW21057  10.896   1.204   2.823
 6387SOL    HW121058  10.918   1.277   2.765
 6387SOL    HW221059  10.958   1.210   2.895
 6388SOL     OW21060  12.834   6.537  12.918
 6388SOL    HW121061  12.836   6.519  13.012
 6388SOL    HW221062  12.906   6.485  12.882
 6389SOL     OW21063  14.158   7.628   9.249
 6389SOL    HW121064  14.194   7.661   9.331
 6389SOL    HW221065  14.127   7.707   9.204
 6390SOL     OW21066   8.484  13.493   1.226
 6390SOL    HW121067   8.448  13.405   1.216
 6390SOL    HW221068   8.549  13.485   1.295
 6391SOL     OW21069   6.607  12.157  10.422
 6391SOL    HW121070   6.610  12.192  10.511
 6391SOL    HW221071   6.671  12.085  10.423
 6392SOL     OW21072   8.528   6.761   6.776
 6392SOL    HW121073   8.465   6.690   6.760
 6392SOL    HW221074   8.593   6.722   6.835
 6393SOL     OW21075  10.437  13.003   6.754
 6393SOL    HW121076  10.486  12.986   6.673
 6393SOL    HW221077  10.473  12.941   6.817
 6394SOL     OW21078   1.947   8.386   1.495
 6394SOL    HW121079   1.882   8.317   1.501
 6394SOL    HW221080   2.021   8.354   1.546
 6395SOL     OW21081  12.695  10.536   1.082
 6395SOL    HW121082  12.658  10.622   1.062
 6395SOL    HW221083  12.677  10.523   1.175
 6396SOL     OW21084   9.106   2.988   5.864
 6396SOL    HW121085   9.077   3.028   5.947
 6396SOL    HW221086   9.152   3.059   5.819
 6397SOL     OW21087   6.300   8.109  13.245
 6397SOL    HW121088   6.387   8.135  13.213
 6397SOL    HW221089   6.283   8.025  13.204
 6398SOL     OW21090   9.218  12.920   1.697
 6398SOL    HW121091   9.144  12.943   1.753
 6398SOL    HW221092   9.199  12.831   1.667
 6399SOL     OW21093  12.246  14.877   2.939
 6399SOL    HW121094  12.252  14.849   2.848
 6399SOL    HW221095  12.326   0.048   2.955
 6400SOL     OW21096   6.898   1.483   8.294
 6400SOL    HW121097   6.895   1.489   8.390
 6400SOL    HW221098   6.975   1.535   8.269
 6401SOL     OW21099   0.352   6.210  10.159
 6401SOL    HW121100   0.329   6.254  10.241
 6401SOL    HW221101   0.437   6.247  10.135
 6402SOL     OW21102   5.986   5.223   4.200
 6402SOL    HW121103   5.930   5.286   4.246
 6402SOL    HW221104   5.930   5.187   4.131
 6403SOL     OW21105   9.226   0.135  10.114
 6403SOL    HW121106   9.230   0.212  10.057
 6403SOL    HW221107   9.162   0.077  10.073
 6404SOL     OW21108   9.019   4.932   7.651
 6404SOL    HW121109   9.017   4.993   7.725
 6404SOL    HW221110   9.085   4.867   7.675
 6405SOL     OW21111   6.231   6.050  10.820
 6405SOL    HW121112   6.151   6.043  10.872
 6405SOL    HW221113   6.299   6.070  10.883
 6406SOL     OW21114   1.924   1.714   1.772
 6406SOL    HW121115   1.955   1.637   1.819
 6406SOL    HW221116   1.847   1.742   1.821
 6407SOL     OW21117  10.134   7.921  11.416
 6407SOL    HW121118  10.046   7.926  11.452
 6407SOL    HW221119  10.170   8.009  11.427
 6408SOL     OW21120   4.182   2.337   5.089
 6408SOL    HW121121   4.274   2.359   5.103
 6408SOL    HW221122   4.172   2.330   4.994
 6409SOL     OW21123  12.491   5.346   6.477
 6409SOL    HW121124  12.536   5.270   6.441
 6409SOL    HW221125  12.398   5.322   6.476
 6410SOL     OW21126   8.849   9.563   7.842
 6410SOL    HW121127   8.841   9.656   7.863
 6410SOL    HW221128   8.766   9.541   7.800
 6411SOL     OW21129   8.836   7.484   4.866
 6411SOL    HW121130   8.805   7.512   4.952
 6411SOL    HW221131   8.812   7.392   4.861
 6412SOL     OW21132   7.016  14.429   3.093
 6412SOL    HW121133   6.984  14.339   3.088
 6412SOL    HW221134   7.111  14.422   3.084
 6413SOL     OW21135   5.693   5.241   2.519
 6413SOL    HW121136   5.642   5.309   2.563
 6413SOL    HW221137   5.653   5.234   2.432
 6414SOL     OW21138   9.606   0.005  13.676
 6414SOL    HW121139   9.527   0.034  13.629
 6414SOL    HW221140   9.675   0.062  13.644
 6415SOL     OW21141   4.883   5.863   4.460
 6415SOL    HW121142   4.936   5.831   4.387
 6415SOL    HW221143   4.947   5.886   4.528
 6416SOL     OW21144   1.142   3.399   9.472
 6416SOL    HW121145   1.049   3.394   9.492
 6416SOL    HW221146   1.148   3.454   9.394
 6417SOL     OW21147  13.397   0.203  10.221
 6417SOL    HW121148  13.378   0.119  10.179
 6417SOL    HW221149  13.382   0.188  10.314
 6418SOL     OW21150   8.189  12.864   6.843
 6418SOL    HW121151   8.237  12.800   6.896
 6418SOL    HW221152   8.118  12.894   6.899
 6419SOL     OW21153   8.291   9.896  14.781
 6419SOL    HW121154   8.343   9.911  14.860
 6419SOL    HW221155   8.354   9.909  14.709
 6420SOL     OW21156   1.871  13.478   4.115
 6420SOL    HW121157   1.786  13.473   4.071
 6420SOL    HW221158   1.867  13.411   4.183
 6421SOL     OW21159  11.054  12.772   1.543
 6421SOL    HW121160  11.103  12.689   1.539
 6421SOL    HW221161  11.008  12.776   1.460
 6422SOL     OW21162   4.805  13.980   0.203
 6422SOL    HW121163   4.900  13.984   0.213
 6422SOL    HW221164   4.774  13.940   0.284
 6423SOL     OW21165  11.046   9.649  11.292
 6423SOL    HW121166  10.952   9.630  11.296
 6423SOL    HW221167  11.052   9.742  11.314
 6424SOL     OW21168   8.785   3.116  10.801
 6424SOL    HW121169   8.794   3.109  10.896
 6424SOL    HW221170   8.716   3.181  10.787
 6425SOL     OW21171  13.964   3.972   1.252
 6425SOL    HW121172  13.966   3.880   1.225
 6425SOL    HW221173  13.962   3.968   1.348
 6426SOL     OW21174   0.386  12.179   0.011
 6426SOL    HW121175   0.341  12.137  14.815
 6426SOL    HW221176   0.363  12.125   0.087
 6427SOL     OW21177   8.121  11.849   5.429
 6427SOL    HW121178   8.114  11.893   5.344
 6427SOL    HW221179   8.189  11.784   5.417
 6428SOL     OW21180   6.154   3.333   9.644
 6428SOL    HW121181   6.169   3.366   9.556
 6428SOL    HW221182   6.241   3.311   9.677
 6429SOL     OW21183   7.893   3.660   3.942
 6429SOL    HW121184   7.807   3.698   3.958
 6429SOL    HW221185   7.903   3.663   3.847
 6430SOL     OW21186   8.322   5.297  10.222
 6430SOL    HW121187   8.262   5.223  10.210
 6430SOL    HW221188   8.394   5.261  10.275
 6431SOL     OW21189   4.083   5.438   5.501
 6431SOL    HW121190   4.115   5.412   5.414
 6431SOL    HW221191   3.991   5.460   5.487
 6432SOL     OW21192   7.983  14.838   7.724
 6432SOL    HW121193   8.058  14.824   7.780
 6432SOL    HW221194   8.007  14.798   7.640
 6433SOL     OW21195  12.482   8.456   4.478
 6433SOL    HW121196  12.445   8.542   4.458
 6433SOL    HW221197  12.563   8.475   4.527
 6434SOL     OW21198   1.853   8.850   0.498
 6434SOL    HW121199   1.922   8.856   0.564
 6434SOL    HW221200   1.881   8.909   0.428
 6435SOL     OW21201   6.772   6.312   8.156
 6435SOL    HW121202   6.805   6.222   8.151
 6435SOL    HW221203   6.677   6.302   8.168
 6436SOL     OW21204  12.098   5.621   9.451
 6436SOL    HW121205  12.146   5.696   9.415
 6436SOL    HW221206  12.014   5.623   9.405
 6437SOL     OW21207  13.866  13.740   9.448
 6437SOL    HW121208  13.873  13.646   9.433
 6437SOL    HW221209  13.777  13.763   9.421
 6438SOL     OW21210  11.765   8.848  10.209
 6438SOL    HW121211  11.720   8.827  10.127
 6438SOL    HW221212  11.823   8.921  10.187
 6439SOL     OW21213  12.578   5.487   1.689
 6439SOL    HW121214  12.532   5.503   1.772
 6439SOL    HW221215  12.543   5.553   1.630
 6440SOL     OW21216  10.869   3.235   2.304
 6440SOL    HW121217  10.843   3.281   2.224
 6440SOL    HW221218  10.919   3.299   2.354
 6441SOL     OW21219   8.412  11.722   6.951
 6441SOL    HW121220   8.450  11.801   6.913
 6441SOL    HW221221   8.365  11.752   7.028
 6442SOL     OW21222   2.784  13.947   5.337
 6442SOL    HW121223   2.698  13.914   5.310
 6442SOL    HW221224   2.766  14.007   5.408
 6443SOL     OW21225   2.311   5.960   7.495
 6443SOL    HW121226   2.380   5.906   7.456
 6443SOL    HW221227   2.328   5.956   7.589
 6444SOL     OW21228  10.494  14.677   6.932
 6444SOL    HW121229  10.516  14.590   6.966
 6444SOL    HW221230  10.470  14.727   7.009
 6445SOL     OW21231   4.636   4.205   4.082
 6445SOL    HW121232   4.604   4.221   3.994
 6445SOL    HW221233   4.629   4.289   4.127
 6446SOL     OW21234   1.886   8.292   6.899
 6446SOL    HW121235   1.865   8.345   6.822
 6446SOL    HW221236   1.824   8.219   6.894
 6447SOL     OW21237   3.509  10.341  12.242
 6447SOL    HW121238   3.475  10.424  12.275
 6447SOL    HW221239   3.526  10.289  12.321
 6448SOL     OW21240   9.288  12.860   9.118
 6448SOL    HW121241   9.260  12.905   9.198
 6448SOL    HW221242   9.289  12.767   9.143
 6449SOL     OW21243  13.432   7.210  14.275
 6449SOL    HW121244  13.385   7.141  14.227
 6449SOL    HW221245  13.523   7.182  14.274
 6450SOL     OW21246   6.963   0.016   9.011
 6450SOL    HW121247   7.006   0.012   8.926
 6450SOL    HW221248   7.013  14.834   9.066
 6451SOL     OW21249  10.896  10.988  10.528
 6451SOL    HW121250  10.975  10.942  10.500
 6451SOL    HW221251  10.880  10.957  10.617
 6452SOL     OW21252   0.270   5.357   2.297
 6452SOL    HW121253   0.349   5.409   2.284
 6452SOL    HW221254   0.269   5.338   2.391
 6453SOL     OW21255  12.172   4.918  14.363
 6453SOL    HW121256  12.179   4.885  14.452
 6453SOL    HW221257  12.216   5.003  14.365
 6454SOL     OW21258   8.237  10.128  14.416
 6454SOL    HW121259   8.215  10.192  14.484
 6454SOL    HW221260   8.285  10.179  14.350
 6455SOL     OW21261   6.270  13.139  13.024
 6455SOL    HW121262   6.245  13.137  13.117
 6455SOL    HW221263   6.231  13.059  12.988
 6456SOL     OW21264  13.428   5.677  11.071
 6456SOL    HW121265  13.352   5.724  11.034
 6456SOL    HW221266  13.502   5.734  11.052
 6457SOL     OW21267   6.070   5.883   2.593
 6457SOL    HW121268   6.101   5.893   2.503
 6457SOL    HW221269   6.014   5.806   2.591
 6458SOL     OW21270  10.638   6.387  10.502
 6458SOL    HW121271  10.561   6.397  10.558
 6458SOL    HW221272  10.626   6.453  10.433
 6459SOL     OW21273  10.342  13.265   3.702
 6459SOL    HW121274  10.374  13.250   3.791
 6459SOL    HW221275  10.275  13.198   3.689
 6460SOL     OW21276   3.733  14.439   4.568
 6460SOL    HW121277   3.695  14.494   4.636
 6460SOL    HW221278   3.683  14.460   4.489
 6461SOL     OW21279   9.322   5.951   1.978
 6461SOL    HW121280   9.381   6.018   1.945
 6461SOL    HW221281   9.320   5.885   1.908
 6462SOL     OW21282   4.628  10.818  10.100
 6462SOL    HW121283   4.617  10.830  10.194
 6462SOL    HW221284   4.550  10.856  10.061
 6463SOL     OW21285   0.515   1.857   3.333
 6463SOL    HW121286   0.436   1.864   3.385
 6463SOL    HW221287   0.511   1.932   3.273
 6464SOL     OW21288   7.598   8.752   7.111
 6464SOL    HW121289   7.593   8.759   7.206
 6464SOL    HW221290   7.691   8.741   7.092
 6465SOL     OW21291  12.725  12.190   2.841
 6465SOL    HW121292  12.802  12.151   2.800
 6465SOL    HW221293  12.754  12.276   2.871
 6466SOL     OW21294   2.234   8.214   0.289
 6466SOL    HW121295   2.158   8.234   0.343
 6466SOL    HW221296   2.271   8.299   0.266
 6467SOL     OW21297   5.462   0.599   1.688
 6467SOL    HW121298   5.504   0.614   1.604
 6467SOL    HW221299   5.532   0.563   1.744
 6468SOL     OW21300   1.729   6.269   6.482
 6468SOL    HW121301   1.658   6.219   6.522
 6468SOL    HW221302   1.710   6.266   6.388
 6469SOL     OW21303   0.573   0.898  10.529
 6469SOL    HW121304   0.498   0.906  10.471
 6469SOL    HW221305   0.577   0.983  10.574
 6470SOL     OW21306   1.716   9.407   9.897
 6470SOL    HW121307   1.674   9.391   9.812
 6470SOL    HW221308   1.691   9.496   9.920
 6471SOL     OW21309   2.806   9.973   1.235
 6471SOL    HW121310   2.717  10.001   1.215
 6471SOL    HW221311   2.840   9.941   1.151
 6472SOL     OW21312  12.475  14.696   6.594
 6472SOL    HW121313  12.396  14.659   6.554
 6472SOL    HW221314  12.499  14.768   6.536
 6473SOL     OW21315   8.069   2.435  12.183
 6473SOL    HW121316   8.078   2.530  12.180
 6473SOL    HW221317   8.002   2.419  12.249
 6474SOL     OW21318   0.969  11.632  10.189
 6474SOL    HW121319   1.036  11.675  10.242
 6474SOL    HW221320   0.887  11.653  10.233
 6475SOL     OW21321   0.858   2.221  12.551
 6475SOL    HW121322   0.891   2.139  12.587
 6475SOL    HW221323   0.848   2.279  12.627
 6476SOL     OW21324  13.799   7.470  12.481
 6476SOL    HW121325  13.810   7.546  12.423
 6476SOL    HW221326  13.711   7.438  12.462
 6477SOL     OW21327   8.983   8.227  10.230
 6477SOL    HW121328   9.036   8.173  10.171
 6477SOL    HW221329   9.044   8.259  10.296
 6478SOL     OW21330  10.937  13.429  11.949
 6478SOL    HW121331  10.927  13.456  11.858
 6478SOL    HW221332  10.848  13.410  11.978
 6479SOL     OW21333  10.659   2.379   0.065
 6479SOL    HW121334  10.651   2.382   0.160
 6479SOL    HW221335  10.572   2.403   0.033
 6480SOL     OW21336  12.190  13.585   9.286
 6480SOL    HW121337  12.147  13.500   9.299
 6480SOL    HW221338  12.168  13.609   9.195
 6481SOL     OW21339   7.592   9.331   9.549
 6481SOL    HW121340   7.599   9.422   9.521
 6481SOL    HW221341   7.608   9.280   9.470
 6482SOL     OW21342   2.297   2.155   7.169
 6482SOL    HW121343   2.390   2.151   7.146
 6482SOL    HW221344   2.296   2.161   7.265
 6483SOL     OW21345  14.203   9.392  12.576
 6483SOL    HW121346  14.171   9.479  12.598
 6483SOL    HW221347  14.124   9.344  12.548
 6484SOL     OW21348   9.258   9.875   7.623
 6484SOL    HW121349   9.351   9.858   7.636
 6484SOL    HW221350   9.214   9.805   7.671
 6485SOL     OW21351   0.775  14.160   5.174
 6485SOL    HW121352   0.699  14.103   5.165
 6485SOL    HW221353   0.777  14.184   5.266
 6486SOL     OW21354   3.128  10.259  14.738
 6486SOL    HW121355   3.141  10.165  14.748
 6486SOL    HW221356   3.212  10.291  14.703
 6487SOL     OW21357   7.163  13.548   1.678
 6487SOL    HW121358   7.160  13.565   1.583
 6487SOL    HW221359   7.103  13.612   1.715
 6488SOL     OW21360   7.317   7.622   0.708
 6488SOL    HW121361   7.235   7.668   0.691
 6488SOL    HW221362   7.291   7.534   0.734
 6489SOL     OW21363   0.646  11.603  13.079
 6489SOL    HW121364   0.604  11.593  13.165
 6489SOL    HW221365   0.576  11.631  13.021
 6490SOL     OW21366   4.788   0.761   7.818
 6490SOL    HW121367   4.849   0.691   7.796
 6490SOL    HW221368   4.830   0.808   7.890
 6491SOL     OW21369   6.674   4.725   1.999
 6491SOL    HW121370   6.709   4.806   2.036
 6491SOL    HW221371   6.592   4.751   1.959
 6492SOL     OW21372  14.740   3.692   2.049
 6492SOL    HW121373  14.735   3.787   2.042
 6492SOL    HW221374  14.659   3.667   2.094
 6493SOL     OW21375   2.493   6.408   3.414
 6493SOL    HW121376   2.515   6.501   3.412
 6493SOL    HW221377   2.448   6.396   3.497
 6494SOL     OW21378   7.642   1.012   6.316
 6494SOL    HW121379   7.737   1.008   6.307
 6494SOL    HW221380   7.626   1.089   6.370
 6495SOL     OW21381   0.704   2.838   7.976
 6495SOL    HW121382   0.671   2.928   7.981
 6495SOL    HW221383   0.693   2.814   7.884
 6496SOL     OW21384   6.238   3.100  11.475
 6496SOL    HW121385   6.310   3.066  11.422
 6496SOL    HW221386   6.267   3.187  11.503
 6497SOL     OW21387  13.822   6.495  13.971
 6497SOL    HW121388  13.804   6.584  14.004
 6497SOL    HW221389  13.913   6.498  13.942
 6498SOL     OW21390  14.547   2.690  11.033
 6498SOL    HW121391  14.586   2.603  11.032
 6498SOL    HW221392  14.590   2.737  10.962
 6499SOL     OW21393   4.371  13.465   8.231
 6499SOL    HW121394   4.283  13.496   8.252
 6499SOL    HW221395   4.412  13.450   8.317
 6500SOL     OW21396  11.943  11.207  10.552
 6500SOL    HW121397  11.879  11.271  10.521
 6500SOL    HW221398  12.016  11.214  10.491
 6501SOL     OW21399   6.956   4.958   2.886
 6501SOL    HW121400   6.921   5.027   2.828
 6501SOL    HW221401   7.041   4.936   2.848
 6502SOL     OW21402   5.913   6.742   1.394
 6502SOL    HW121403   5.986   6.802   1.381
 6502SOL    HW221404   5.924   6.674   1.327
 6503SOL     OW21405   4.710   3.058  12.919
 6503SOL    HW121406   4.640   3.083  12.979
 6503SOL    HW221407   4.690   3.107  12.839
 6504SOL     OW21408   5.327   3.178   4.558
 6504SOL    HW121409   5.273   3.099   4.569
 6504SOL    HW221410   5.358   3.198   4.646
 6505SOL     OW21411  13.547  10.155   9.968
 6505SOL    HW121412  13.518  10.145   9.877
 6505SOL    HW221413  13.469  10.138  10.020
 6506SOL     OW21414   8.273  13.138  14.104
 6506SOL    HW121415   8.355  13.116  14.149
 6506SOL    HW221416   8.207  13.138  14.173
 6507SOL     OW21417   9.732   5.631   8.853
 6507SOL    HW121418   9.713   5.659   8.942
 6507SOL    HW221419   9.680   5.689   8.797
 6508SOL     OW21420   1.890   3.127  10.338
 6508SOL    HW121421   1.887   3.061  10.269
 6508SOL    HW221422   1.981   3.156  10.339
 6509SOL     OW21423   5.093   5.159   0.487
 6509SOL    HW121424   5.142   5.089   0.529
 6509SOL    HW221425   5.002   5.141   0.509
 6510SOL     OW21426   0.797   0.535   5.773
 6510SOL    HW121427   0.866   0.474   5.745
 6510SOL    HW221428   0.823   0.562   5.861
 6511SOL     OW21429  12.071   9.946   1.681
 6511SOL    HW121430  12.101  10.033   1.707
 6511SOL    HW221431  12.041   9.905   1.763
 6512SOL     OW21432  14.854  12.145   7.878
 6512SOL    HW121433  14.821  12.129   7.967
 6512SOL    HW221434  14.877  12.058   7.845
 6513SOL     OW21435   0.150   7.553   7.485
 6513SOL    HW121436   0.185   7.473   7.447
 6513SOL    HW221437   0.066   7.566   7.440
 6514SOL     OW21438  11.140  10.973   5.368
 6514SOL    HW121439  11.177  10.970   5.456
 6514SOL    HW221440  11.133  10.882   5.342
 6515SOL     OW21441   2.909  14.627   4.057
 6515SOL    HW121442   2.932  14.644   3.966
 6515SOL    HW221443   2.818  14.657   4.065
 6516SOL     OW21444   6.374   5.984   3.120
 6516SOL    HW121445   6.326   5.949   3.195
 6516SOL    HW221446   6.306   6.010   3.058
 6517SOL     OW21447   0.706   9.547  14.129
 6517SOL    HW121448   0.749   9.467  14.100
 6517SOL    HW221449   0.670   9.526  14.215
 6518SOL     OW21450   0.623   2.109  12.472
 6518SOL    HW121451   0.694   2.157  12.515
 6518SOL    HW221452   0.646   2.111  12.379
 6519SOL     OW21453   7.755   4.609  13.173
 6519SOL    HW121454   7.843   4.606  13.136
 6519SOL    HW221455   7.729   4.517  13.181
 6520SOL     OW21456  14.519   5.718   4.286
 6520SOL    HW121457  14.516   5.671   4.370
 6520SOL    HW221458  14.564   5.800   4.306
 6521SOL     OW21459  13.706   9.990   0.245
 6521SOL    HW121460  13.721  10.073   0.289
 6521SOL    HW221461  13.752   9.926   0.299
 6522SOL     OW21462   9.321  12.613   6.719
 6522SOL    HW121463   9.344  12.689   6.665
 6522SOL    HW221464   9.308  12.542   6.657
 6523SOL     OW21465   3.487   2.305   7.021
 6523SOL    HW121466   3.502   2.391   7.061
 6523SOL    HW221467   3.560   2.251   7.052
 6524SOL     OW21468   3.035   1.424   4.868
 6524SOL    HW121469   2.947   1.419   4.831
 6524SOL    HW221470   3.029   1.495   4.932
 6525SOL     OW21471   0.518  11.485   4.151
 6525SOL    HW121472   0.465  11.539   4.209
 6525SOL    HW221473   0.595  11.462   4.203
 6526SOL     OW21474  11.254   0.928   2.696
 6526SOL    HW121475  11.346   0.927   2.671
 6526SOL    HW221476  11.251   0.884   2.781
 6527SOL     OW21477   7.669  14.121  13.566
 6527SOL    HW121478   7.615  14.198  13.585
 6527SOL    HW221479   7.721  14.146  13.490
 6528SOL     OW21480  13.764   7.242  12.094
 6528SOL    HW121481  13.799   7.222  12.007
 6528SOL    HW221482  13.812   7.320  12.121
 6529SOL     OW21483   5.173  13.118   6.788
 6529SOL    HW121484   5.155  13.200   6.742
 6529SOL    HW221485   5.195  13.145   6.877
 6530SOL     OW21486   7.462  11.283   3.438
 6530SOL    HW121487   7.486  11.257   3.349
 6530SOL    HW221488   7.467  11.203   3.489
 6531SOL     OW21489   8.434  11.930   3.086
 6531SOL    HW121490   8.430  11.962   3.176
 6531SOL    HW221491   8.444  11.835   3.095
 6532SOL     OW21492   6.611   8.584  12.401
 6532SOL    HW121493   6.695   8.541  12.383
 6532SOL    HW221494   6.548   8.540  12.344
 6533SOL     OW21495   8.853  12.843   2.979
 6533SOL    HW121496   8.786  12.906   3.005
 6533SOL    HW221497   8.842  12.832   2.885
 6534SOL     OW21498   4.644   2.984   5.320
 6534SOL    HW121499   4.630   2.949   5.232
 6534SOL    HW221500   4.733   2.957   5.344
 6535SOL     OW21501  10.073   5.328   1.791
 6535SOL    HW121502  10.121   5.251   1.763
 6535SOL    HW221503  10.101   5.343   1.881
 6536SOL     OW21504   2.402   6.072  13.371
 6536SOL    HW121505   2.406   6.065  13.466
 6536SOL    HW221506   2.437   6.159  13.352
 6537SOL     OW21507  13.750  14.451  11.159
 6537SOL    HW121508  13.724  14.403  11.080
 6537SOL    HW221509  13.708  14.404  11.231
 6538SOL     OW21510  13.012  12.832  11.904
 6538SOL    HW121511  13.018  12.821  11.999
 6538SOL    HW221512  13.039  12.923  11.890
 6539SOL     OW21513   3.480   3.702   2.958
 6539SOL    HW121514   3.568   3.683   2.990
 6539SOL    HW221515   3.494   3.760   2.883
 6540SOL     OW21516  11.376   8.278   0.398
 6540SOL    HW121517  11.375   8.373   0.392
 6540SOL    HW221518  11.324   8.258   0.476
 6541SOL     OW21519   1.440  13.262   1.660
 6541SOL    HW121520   1.507  13.199   1.634
 6541SOL    HW221521   1.386  13.274   1.582
 6542SOL     OW21522  11.595   9.221  10.032
 6542SOL    HW121523  11.635   9.188  10.112
 6542SOL    HW221524  11.646   9.299  10.010
 6543SOL     OW21525   6.043   7.636  10.500
 6543SOL    HW121526   6.002   7.709  10.454
 6543SOL    HW221527   6.109   7.602  10.439
 6544SOL     OW21528   6.495   3.117  14.035
 6544SOL    HW121529   6.586   3.147  14.043
 6544SOL    HW221530   6.466   3.104  14.125
 6545SOL     OW21531  13.950   9.709   8.636
 6545SOL    HW121532  13.890   9.646   8.676
 6545SOL    HW221533  14.022   9.655   8.603
 6546SOL     OW21534   1.857   2.018  12.858
 6546SOL    HW121535   1.880   2.101  12.899
 6546SOL    HW221536   1.921   1.955  12.893
 6547SOL     OW21537   0.967  13.546   7.522
 6547SOL    HW121538   1.049  13.496   7.520
 6547SOL    HW221539   0.908  13.498   7.464
 6548SOL     OW21540   0.617  12.690   7.034
 6548SOL    HW121541   0.574  12.635   7.100
 6548SOL    HW221542   0.558  12.686   6.958
 6549SOL     OW21543   4.703   8.427   3.880
 6549SOL    HW121544   4.692   8.503   3.822
 6549SOL    HW221545   4.785   8.443   3.926
 6550SOL     OW21546  13.972   7.718  10.178
 6550SOL    HW121547  13.921   7.756  10.249
 6550SOL    HW221548  13.910   7.708  10.106
 6551SOL     OW21549  11.871   3.830   5.898
 6551SOL    HW121550  11.776   3.836   5.903
 6551SOL    HW221551  11.900   3.918   5.874
 6552SOL     OW21552  13.855   2.931   7.911
 6552SOL    HW121553  13.883   2.897   7.996
 6552SOL    HW221554  13.937   2.951   7.866
 6553SOL     OW21555   4.132  12.015   8.841
 6553SOL    HW121556   4.086  11.955   8.900
 6553SOL    HW221557   4.216  12.032   8.884
 6554SOL     OW21558  13.859   5.767  14.653
 6554SOL    HW121559  13.871   5.807  14.739
 6554SOL    HW221560  13.807   5.689  14.670
 6555SOL     OW21561   1.682   9.825   5.837
 6555SOL    HW121562   1.614   9.758   5.834
 6555SOL    HW221563   1.716   9.828   5.747
 6556SOL     OW21564  14.334   4.703  13.248
 6556SOL    HW121565  14.301   4.749  13.171
 6556SOL    HW221566  14.293   4.617  13.244
 6557SOL     OW21567   7.545   5.623  10.800
 6557SOL    HW121568   7.455   5.650  10.821
 6557SOL    HW221569   7.569   5.676  10.724
 6558SOL     OW21570   8.211   3.000  10.306
 6558SOL    HW121571   8.275   3.069  10.290
 6558SOL    HW221572   8.166   3.027  10.386
 6559SOL     OW21573   7.360  12.927   2.548
 6559SOL    HW121574   7.438  12.872   2.556
 6559SOL    HW221575   7.394  13.016   2.549
 6560SOL     OW21576   6.907  13.233  13.502
 6560SOL    HW121577   6.944  13.196  13.582
 6560SOL    HW221578   6.963  13.200  13.431
 6561SOL     OW21579   3.674  12.342   7.039
 6561SOL    HW121580   3.694  12.430   7.007
 6561SOL    HW221581   3.623  12.356   7.119
 6562SOL     OW21582  11.579  14.393  14.451
 6562SOL    HW121583  11.606  14.339  14.526
 6562SOL    HW221584  11.619  14.479  14.468
 6563SOL     OW21585  11.636   3.342  10.899
 6563SOL    HW121586  11.660   3.249  10.903
 6563SOL    HW221587  11.705   3.382  10.848
 6564SOL     OW21588  13.354   1.956   2.929
 6564SOL    HW121589  13.386   2.038   2.891
 6564SOL    HW221590  13.284   1.984   2.989
 6565SOL     OW21591  11.865   3.476   8.129
 6565SOL    HW121592  11.788   3.434   8.166
 6565SOL    HW221593  11.845   3.483   8.035
 6566SOL     OW21594   7.009   7.829   5.553
 6566SOL    HW121595   6.994   7.860   5.642
 6566SOL    HW221596   7.057   7.901   5.511
 6567SOL     OW21597  13.750   4.536   0.024
 6567SOL    HW121598  13.688   4.466   0.045
 6567SOL    HW221599  13.770   4.577   0.108
 6568SOL     OW21600  11.099   2.443   6.887
 6568SOL    HW121601  11.174   2.478   6.934
 6568SOL    HW221602  11.137   2.383   6.823
 6569SOL     OW21603  11.234   8.501   2.291
 6569SOL    HW121604  11.266   8.506   2.381
 6569SOL    HW221605  11.313   8.501   2.237
 6570SOL     OW21606   2.062   6.556  11.677
 6570SOL    HW121607   2.146   6.567  11.631
 6570SOL    HW221608   2.083   6.499  11.751
 6571SOL     OW21609   2.689   4.324   7.104
 6571SOL    HW121610   2.599   4.300   7.078
 6571SOL    HW221611   2.713   4.257   7.169
 6572SOL     OW21612   2.000   1.238  12.073
 6572SOL    HW121613   2.067   1.306  12.075
 6572SOL    HW221614   1.975   1.231  11.981
 6573SOL     OW21615   4.837   7.488   8.510
 6573SOL    HW121616   4.839   7.578   8.541
 6573SOL    HW221617   4.769   7.487   8.443
 6574SOL     OW21618   6.640  13.652  11.126
 6574SOL    HW121619   6.571  13.649  11.192
 6574SOL    HW221620   6.596  13.686  11.048
 6575SOL     OW21621   3.987   3.527  10.657
 6575SOL    HW121622   3.989   3.550  10.565
 6575SOL    HW221623   4.066   3.566  10.694
 6576SOL     OW21624  11.883   1.408   9.248
 6576SOL    HW121625  11.891   1.424   9.342
 6576SOL    HW221626  11.968   1.436   9.212
 6577SOL     OW21627  13.988   1.605  13.724
 6577SOL    HW121628  13.997   1.519  13.685
 6577SOL    HW221629  14.064   1.654  13.694
 6578SOL     OW21630   2.449   4.784  10.585
 6578SOL    HW121631   2.433   4.859  10.528
 6578SOL    HW221632   2.430   4.816  10.673
 6579SOL     OW21633  10.150   3.015  14.090
 6579SOL    HW121634  10.210   3.089  14.090
 6579SOL    HW221635  10.135   2.996  13.998
 6580SOL     OW21636   5.830  13.674   0.487
 6580SOL    HW121637   5.793  13.708   0.406
 6580SOL    HW221638   5.894  13.740   0.514
 6581SOL     OW21639   6.919   6.808   4.704
 6581SOL    HW121640   6.882   6.720   4.697
 6581SOL    HW221641   7.001   6.795   4.753
 6582SOL     OW21642   5.741  12.214  13.068
 6582SOL    HW121643   5.688  12.285  13.032
 6582SOL    HW221644   5.757  12.239  13.159
 6583SOL     OW21645   9.950   6.158  11.035
 6583SOL    HW121646   9.987   6.233  11.083
 6583SOL    HW221647   9.870   6.137  11.083
 6584SOL     OW21648   7.215   3.498  11.993
 6584SOL    HW121649   7.260   3.524  12.073
 6584SOL    HW221650   7.158   3.426  12.020
 6585SOL     OW21651   6.136  13.427   9.277
 6585SOL    HW121652   6.214  13.441   9.330
 6585SOL    HW221653   6.089  13.357   9.321
 6586SOL     OW21654  11.946  12.172   4.287
 6586SOL    HW121655  11.963  12.099   4.228
 6586SOL    HW221656  11.995  12.245   4.249
 6587SOL     OW21657   2.735   9.922   8.959
 6587SOL    HW121658   2.708   9.961   8.875
 6587SOL    HW221659   2.654   9.907   9.006
 6588SOL     OW21660   8.051  10.007   5.610
 6588SOL    HW121661   8.006   9.924   5.628
 6588SOL    HW221662   7.991  10.056   5.553
 6589SOL     OW21663   6.894  12.954   0.505
 6589SOL    HW121664   6.815  12.937   0.556
 6589SOL    HW221665   6.934  13.030   0.547
 6590SOL     OW21666   2.931  11.016  13.732
 6590SOL    HW121667   2.841  11.014  13.698
 6590SOL    HW221668   2.968  10.931  13.707
 6591SOL     OW21669   4.918   8.598  14.103
 6591SOL    HW121670   5.013   8.601  14.115
 6591SOL    HW221671   4.906   8.548  14.022
 6592SOL     OW21672   8.025   4.136   3.565
 6592SOL    HW121673   7.991   4.063   3.617
 6592SOL    HW221674   8.120   4.127   3.570
 6593SOL     OW21675   7.240   2.823   3.100
 6593SOL    HW121676   7.246   2.917   3.088
 6593SOL    HW221677   7.258   2.809   3.193
 6594SOL     OW21678   4.063   3.203   5.497
 6594SOL    HW121679   4.152   3.225   5.523
 6594SOL    HW221680   4.009   3.274   5.532
 6595SOL     OW21681   3.818   4.942  13.652
 6595SOL    HW121682   3.742   4.885  13.638
 6595SOL    HW221683   3.860   4.907  13.731
 6596SOL     OW21684   4.983   3.261   0.879
 6596SOL    HW121685   4.968   3.182   0.931
 6596SOL    HW221686   4.897   3.282   0.843
 6597SOL     OW21687   8.057   6.865   7.368
 6597SOL    HW121688   8.148   6.878   7.342
 6597SOL    HW221689   8.007   6.917   7.305
 6598SOL     OW21690   9.236   5.821   3.900
 6598SOL    HW121691   9.231   5.808   3.995
 6598SOL    HW221692   9.150   5.855   3.876
 6599SOL     OW21693  13.264   4.980   0.145
 6599SOL    HW121694  13.192   4.921   0.166
 6599SOL    HW221695  13.297   4.948   0.060
 6600SOL     OW21696  12.676   1.345  13.479
 6600SOL    HW121697  12.724   1.426  13.459
 6600SOL    HW221698  12.588   1.362  13.447
 6601SOL     OW21699   8.860  11.279   6.188
 6601SOL    HW121700   8.777  11.320   6.162
 6601SOL    HW221701   8.925  11.318   6.129
 6602SOL     OW21702   1.802  14.635   9.145
 6602SOL    HW121703   1.722  14.585   9.159
 6602SOL    HW221704   1.773  14.727   9.143
 6603SOL     OW21705   1.323   5.663  13.654
 6603SOL    HW121706   1.356   5.697  13.571
 6603SOL    HW221707   1.295   5.741  13.702
 6604SOL     OW21708  11.536   5.338   6.979
 6604SOL    HW121709  11.612   5.291   7.012
 6604SOL    HW221710  11.533   5.317   6.886
 6605SOL     OW21711  10.889  12.666  12.569
 6605SOL    HW121712  10.886  12.639  12.477
 6605SOL    HW221713  10.944  12.600  12.611
 6606SOL     OW21714  11.487   3.240  14.135
 6606SOL    HW121715  11.507   3.241  14.041
 6606SOL    HW221716  11.517   3.326  14.166
 6607SOL     OW21717  12.154   0.315  10.374
 6607SOL    HW121718  12.093   0.312  10.448
 6607SOL    HW221719  12.128   0.393  10.325
 6608SOL     OW21720   7.905   7.737   4.705
 6608SOL    HW121721   7.839   7.703   4.765
 6608SOL    HW221722   7.864   7.813   4.664
 6609SOL     OW21723   8.246   2.609   3.632
 6609SOL    HW121724   8.169   2.664   3.619
 6609SOL    HW221725   8.297   2.618   3.551
 6610SOL     OW21726  11.043  13.668  12.014
 6610SOL    HW121727  11.011  13.579  12.002
 6610SOL    HW221728  10.971  13.714  12.057
 6611SOL     OW21729  11.854   3.607  10.184
 6611SOL    HW121730  11.947   3.627  10.177
 6611SOL    HW221731  11.814   3.690  10.211
 6612SOL     OW21732   0.051  11.816   7.592
 6612SOL    HW121733   0.101  11.837   7.513
 6612SOL    HW221734  14.850  11.871   7.585
 6613SOL     OW21735   2.373   6.473   4.855
 6613SOL    HW121736   2.347   6.391   4.812
 6613SOL    HW221737   2.362   6.456   4.949
 6614SOL     OW21738   9.235  11.878   3.462
 6614SOL    HW121739   9.288  11.957   3.455
 6614SOL    HW221740   9.198  11.881   3.550
 6615SOL     OW21741   0.237  10.475  13.057
 6615SOL    HW121742   0.146  10.506  13.061
 6615SOL    HW221743   0.236  10.409  12.988
 6616SOL     OW21744  12.145   8.548  12.739
 6616SOL    HW121745  12.097   8.466  12.729
 6616SOL    HW221746  12.157   8.557  12.834
 6617SOL     OW21747   7.318   9.677   8.537
 6617SOL    HW121748   7.250   9.681   8.470
 6617SOL    HW221749   7.346   9.767   8.549
 6618SOL     OW21750  12.690  12.613   8.902
 6618SOL    HW121751  12.621  12.660   8.855
 6618SOL    HW221752  12.642  12.556   8.963
 6619SOL     OW21753   3.687   6.907   1.303
 6619SOL    HW121754   3.633   6.971   1.255
 6619SOL    HW221755   3.777   6.932   1.282
 6620SOL     OW21756  12.197   5.837  11.324
 6620SOL    HW121757  12.226   5.801  11.240
 6620SOL    HW221758  12.150   5.917  11.301
 6621SOL     OW21759  13.625  14.691   9.627
 6621SOL    HW121760  13.697  14.742   9.589
 6621SOL    HW221761  13.666  14.610   9.657
 6622SOL     OW21762   2.023   6.674   1.647
 6622SOL    HW121763   2.057   6.605   1.591
 6622SOL    HW221764   2.060   6.656   1.733
 6623SOL     OW21765   1.352   5.657  14.805
 6623SOL    HW121766   1.301   5.592  14.853
 6623SOL    HW221767   1.383   5.611  14.727
 6624SOL     OW21768   1.254  14.511   9.725
 6624SOL    HW121769   1.178  14.567   9.737
 6624SOL    HW221770   1.248  14.481   9.634
 6625SOL     OW21771   5.198   9.575   4.242
 6625SOL    HW121772   5.245   9.652   4.210
 6625SOL    HW221773   5.116   9.574   4.192
 6626SOL     OW21774  12.321   3.551   3.470
 6626SOL    HW121775  12.303   3.642   3.493
 6626SOL    HW221776  12.413   3.539   3.495
 6627SOL     OW21777  11.398   5.402   5.412
 6627SOL    HW121778  11.338   5.328   5.426
 6627SOL    HW221779  11.441   5.382   5.329
 6628SOL     OW21780   5.286   4.918  14.580
 6628SOL    HW121781   5.311   4.907  14.672
 6628SOL    HW221782   5.324   5.003  14.556
 6629SOL     OW21783   6.683  12.546   7.504
 6629SOL    HW121784   6.599  12.514   7.471
 6629SOL    HW221785   6.738  12.554   7.426
 6630SOL     OW21786   4.619   5.287   7.245
 6630SOL    HW121787   4.713   5.304   7.237
 6630SOL    HW221788   4.578   5.349   7.185
 6631SOL     OW21789  12.756  12.966   0.470
 6631SOL    HW121790  12.805  13.016   0.535
 6631SOL    HW221791  12.815  12.895   0.445
 6632SOL     OW21792  14.766   7.513   5.166
 6632SOL    HW121793  14.779   7.443   5.102
 6632SOL    HW221794  14.854   7.551   5.178
 6633SOL     OW21795   7.024  11.442   4.418
 6633SOL    HW121796   7.002  11.380   4.488
 6633SOL    HW221797   6.939  11.475   4.388
 6634SOL     OW21798  14.504   7.648  14.765
 6634SOL    HW121799  14.566   7.591  14.720
 6634SOL    HW221800  14.510   7.731  14.718
 6635SOL     OW21801   1.208   9.582   9.084
 6635SOL    HW121802   1.245   9.528   9.015
 6635SOL    HW221803   1.272   9.651   9.098
 6636SOL     OW21804  12.521  14.278  11.190
 6636SOL    HW121805  12.457  14.208  11.204
 6636SOL    HW221806  12.586  14.266  11.259
 6637SOL     OW21807   4.488  12.718  11.745
 6637SOL    HW121808   4.522  12.641  11.791
 6637SOL    HW221809   4.531  12.792  11.786
 6638SOL     OW21810   0.306   4.737  10.635
 6638SOL    HW121811   0.323   4.831  10.638
 6638SOL    HW221812   0.250   4.724  10.559
 6639SOL     OW21813   6.672   5.522  11.841
 6639SOL    HW121814   6.751   5.575  11.856
 6639SOL    HW221815   6.697   5.460  11.773
 6640SOL     OW21816   1.645  11.558   2.368
 6640SOL    HW121817   1.631  11.552   2.273
 6640SOL    HW221818   1.558  11.545   2.405
 6641SOL     OW21819   2.863  13.189   7.454
 6641SOL    HW121820   2.844  13.281   7.434
 6641SOL    HW221821   2.952  13.175   7.422
 6642SOL     OW21822  13.515   8.563  14.077
 6642SOL    HW121823  13.601   8.605  14.084
 6642SOL    HW221824  13.497   8.561  13.982
 6643SOL     OW21825   5.228   9.034  13.309
 6643SOL    HW121826   5.219   9.032  13.404
 6643SOL    HW221827   5.267   9.119  13.290
 6644SOL     OW21828  10.750   6.647   4.114
 6644SOL    HW121829  10.716   6.681   4.197
 6644SOL    HW221830  10.832   6.695   4.101
 6645SOL     OW21831   7.024   0.764   2.638
 6645SOL    HW121832   7.118   0.762   2.619
 6645SOL    HW221833   6.997   0.854   2.620
 6646SOL     OW21834   5.531   6.843   6.271
 6646SOL    HW121835   5.599   6.778   6.287
 6646SOL    HW221836   5.569   6.902   6.206
 6647SOL     OW21837   5.229   8.652   0.976
 6647SOL    HW121838   5.300   8.590   0.995
 6647SOL    HW221839   5.272   8.728   0.938
 6648SOL     OW21840   9.156   6.308   8.462
 6648SOL    HW121841   9.231   6.301   8.521
 6648SOL    HW221842   9.128   6.218   8.447
 6649SOL     OW21843   4.291   6.971  11.342
 6649SOL    HW121844   4.209   7.017  11.323
 6649SOL    HW221845   4.345   7.035  11.388
 6650SOL     OW21846  12.819  10.817   1.481
 6650SOL    HW121847  12.758  10.745   1.495
 6650SOL    HW221848  12.866  10.794   1.401
 6651SOL     OW21849  10.496  14.048   6.065
 6651SOL    HW121850  10.549  13.975   6.033
 6651SOL    HW221851  10.408  14.012   6.073
 6652SOL     OW21852  11.922   6.787   3.455
 6652SOL    HW121853  11.934   6.717   3.520
 6652SOL    HW221854  11.840   6.765   3.411
 6653SOL     OW21855   4.243   9.355  14.047
 6653SOL    HW121856   4.157   9.315  14.030
 6653SOL    HW221857   4.304   9.302  13.997
 6654SOL     OW21858   1.946  10.623   6.744
 6654SOL    HW121859   1.920  10.708   6.780
 6654SOL    HW221860   2.017  10.594   6.801
 6655SOL     OW21861  10.310   1.935   0.406
 6655SOL    HW121862  10.305   2.007   0.469
 6655SOL    HW221863  10.225   1.935   0.363
 6656SOL     OW21864   2.702   5.421  13.182
 6656SOL    HW121865   2.737   5.440  13.095
 6656SOL    HW221866   2.773   5.374  13.227
 6657SOL     OW21867  11.716  12.673   3.135
 6657SOL    HW121868  11.689  12.764   3.124
 6657SOL    HW221869  11.649  12.621   3.090
 6658SOL     OW21870  11.463   2.180   0.242
 6658SOL    HW121871  11.487   2.089   0.230
 6658SOL    HW221872  11.399   2.179   0.313
 6659SOL     OW21873   1.946   3.109   9.205
 6659SOL    HW121874   2.035   3.095   9.238
 6659SOL    HW221875   1.929   3.201   9.222
 6660SOL     OW21876  10.757   2.579  12.221
 6660SOL    HW121877  10.676   2.595  12.173
 6660SOL    HW221878  10.819   2.642  12.185
 6661SOL     OW21879   4.341  13.722  14.382
 6661SOL    HW121880   4.266  13.719  14.441
 6661SOL    HW221881   4.413  13.754  14.437
 6662SOL     OW21882   6.251   3.778  10.633
 6662SOL    HW121883   6.318   3.845  10.624
 6662SOL    HW221884   6.184   3.801  10.568
 6663SOL     OW21885   7.676  14.165   9.108
 6663SOL    HW121886   7.630  14.132   9.186
 6663SOL    HW221887   7.606  14.200   9.053
 6664SOL     OW21888   9.691  14.287   7.287
 6664SOL    HW121889   9.605  14.248   7.274
 6664SOL    HW221890   9.691  14.365   7.231
 6665SOL     OW21891   1.216  13.512   8.938
 6665SOL    HW121892   1.157  13.582   8.910
 6665SOL    HW221893   1.267  13.551   9.009
 6666SOL     OW21894   6.697  12.012  14.111
 6666SOL    HW121895   6.778  12.042  14.152
 6666SOL    HW221896   6.693  11.918  14.133
 6667SOL     OW21897  13.320   3.316  14.064
 6667SOL    HW121898  13.402   3.268  14.072
 6667SOL    HW221899  13.337   3.400  14.107
 6668SOL     OW21900   2.227   4.353   5.681
 6668SOL    HW121901   2.296   4.381   5.742
 6668SOL    HW221902   2.211   4.261   5.704
 6669SOL     OW21903   0.294  12.321   2.233
 6669SOL    HW121904   0.272  12.289   2.145
 6669SOL    HW221905   0.281  12.416   2.227
 6670SOL     OW21906  11.208   0.395   2.856
 6670SOL    HW121907  11.252   0.313   2.834
 6670SOL    HW221908  11.119   0.369   2.881
 6671SOL     OW21909   7.568  10.820   2.721
 6671SOL    HW121910   7.492  10.803   2.664
 6671SOL    HW221911   7.544  10.780   2.804
 6672SOL     OW21912  11.562   2.232   5.288
 6672SOL    HW121913  11.514   2.165   5.338
 6672SOL    HW221914  11.508   2.247   5.210
 6673SOL     OW21915   5.467   2.334  11.644
 6673SOL    HW121916   5.529   2.285  11.698
 6673SOL    HW221917   5.382   2.294  11.660
 6674SOL     OW21918   5.413   2.850  14.447
 6674SOL    HW121919   5.352   2.839  14.374
 6674SOL    HW221920   5.439   2.761  14.471
 6675SOL     OW21921  11.358   6.948   2.721
 6675SOL    HW121922  11.411   6.907   2.653
 6675SOL    HW221923  11.396   7.035   2.732
 6676SOL     OW21924   4.069  13.360  10.740
 6676SOL    HW121925   3.997  13.423  10.740
 6676SOL    HW221926   4.125  13.387  10.813
 6677SOL     OW21927  12.757   7.342   6.898
 6677SOL    HW121928  12.758   7.248   6.916
 6677SOL    HW221929  12.670   7.371   6.924
 6678SOL     OW21930   5.885   0.766   2.680
 6678SOL    HW121931   5.922   0.739   2.764
 6678SOL    HW221932   5.795   0.735   2.681
 6679SOL     OW21933   4.187   2.687   3.793
 6679SOL    HW121934   4.118   2.750   3.772
 6679SOL    HW221935   4.210   2.648   3.708
 6680SOL     OW21936  13.666   2.278   1.516
 6680SOL    HW121937  13.648   2.298   1.608
 6680SOL    HW221938  13.631   2.353   1.468
 6681SOL     OW21939   1.019  12.446   0.288
 6681SOL    HW121940   1.025  12.540   0.308
 6681SOL    HW221941   0.953  12.414   0.349
 6682SOL     OW21942   6.715   9.094   1.720
 6682SOL    HW121943   6.773   9.085   1.644
 6682SOL    HW221944   6.750   9.170   1.768
 6683SOL     OW21945   9.940   5.285   5.784
 6683SOL    HW121946   9.995   5.241   5.849
 6683SOL    HW221947   9.871   5.328   5.835
 6684SOL     OW21948  11.282   6.201   2.373
 6684SOL    HW121949  11.232   6.128   2.409
 6684SOL    HW221950  11.351   6.216   2.437
 6685SOL     OW21951   0.866  13.783  13.463
 6685SOL    HW121952   0.836  13.709  13.410
 6685SOL    HW221953   0.934  13.746  13.519
 6686SOL     OW21954   9.318   8.376   4.789
 6686SOL    HW121955   9.375   8.322   4.843
 6686SOL    HW221956   9.376   8.439   4.747
 6687SOL     OW21957   8.493   9.054  13.727
 6687SOL    HW121958   8.402   9.072  13.702
 6687SOL    HW221959   8.524   9.136  13.766
 6688SOL     OW21960  13.191   4.517   9.540
 6688SOL    HW121961  13.224   4.496   9.627
 6688SOL    HW221962  13.193   4.612   9.536
 6689SOL     OW21963  11.302   5.067   5.186
 6689SOL    HW121964  11.259   5.054   5.101
 6689SOL    HW221965  11.322   4.979   5.216
 6690SOL     OW21966  11.989   1.664   1.868
 6690SOL    HW121967  11.921   1.712   1.820
 6690SOL    HW221968  12.052   1.731   1.894
 6691SOL     OW21969   1.935   1.307   4.570
 6691SOL    HW121970   1.977   1.222   4.584
 6691SOL    HW221971   2.007   1.370   4.575
 6692SOL     OW21972  13.129  11.042   8.039
 6692SOL    HW121973  13.046  11.003   8.066
 6692SOL    HW221974  13.104  11.111   7.977
 6693SOL     OW21975  10.014   8.907   9.936
 6693SOL    HW121976   9.958   8.831   9.921
 6693SOL    HW221977   9.987   8.970   9.869
 6694SOL     OW21978   6.573  10.205   5.487
 6694SOL    HW121979   6.514  10.132   5.506
 6694SOL    HW221980   6.545  10.237   5.401
 6695SOL     OW21981   9.390   7.239   6.418
 6695SOL    HW121982   9.390   7.248   6.323
 6695SOL    HW221983   9.463   7.294   6.447
 6696SOL     OW21984  13.036  13.764   5.897
 6696SOL    HW121985  13.110  13.741   5.954
 6696SOL    HW221986  13.057  13.722   5.813
 6697SOL     OW21987  12.389   5.944   8.133
 6697SOL    HW121988  12.318   5.969   8.191
 6697SOL    HW221989  12.376   5.998   8.055
 6698SOL     OW21990   0.150   5.913   8.666
 6698SOL    HW121991   0.232   5.888   8.624
 6698SOL    HW221992   0.158   5.881   8.756
 6699SOL     OW21993   5.799   7.344   2.237
 6699SOL    HW121994   5.858   7.268   2.243
 6699SOL    HW221995   5.723   7.312   2.189
 6700SOL     OW21996  13.272  12.532  12.797
 6700SOL    HW121997  13.270  12.536  12.892
 6700SOL    HW221998  13.300  12.442  12.777
 6701SOL     OW21999   5.440   0.742   4.136
 6701SOL    HW122000   5.448   0.797   4.058
 6701SOL    HW222001   5.359   0.772   4.177
 6702SOL     OW22002  12.027  10.142   7.104
 6702SOL    HW122003  12.106  10.138   7.050
 6702SOL    HW222004  12.060  10.136   7.194
 6703SOL     OW22005  14.639   6.657   9.829
 6703SOL    HW122006  14.636   6.649   9.734
 6703SOL    HW222007  14.548   6.670   9.856
 6704SOL     OW22008   3.640   1.126   6.299
 6704SOL    HW122009   3.659   1.167   6.383
 6704SOL    HW222010   3.705   1.164   6.239
 6705SOL     OW22011  11.136  14.654   5.151
 6705SOL    HW122012  11.189  14.727   5.182
 6705SOL    HW222013  11.192  14.609   5.087
 6706SOL     OW22014   9.656  13.320   3.282
 6706SOL    HW122015   9.704  13.332   3.200
 6706SOL    HW222016   9.607  13.401   3.293
 6707SOL     OW22017  12.081   0.732   8.093
 6707SOL    HW122018  12.125   0.653   8.062
 6707SOL    HW222019  12.147   0.800   8.085
 6708SOL     OW22020  12.367   3.792  11.858
 6708SOL    HW122021  12.353   3.886  11.865
 6708SOL    HW222022  12.462   3.781  11.860
 6709SOL     OW22023  10.035  12.090   8.044
 6709SOL    HW122024  10.064  12.074   7.954
 6709SOL    HW222025  10.053  12.009   8.090
 6710SOL     OW22026   4.061   7.643   2.078
 6710SOL    HW122027   4.002   7.601   2.139
 6710SOL    HW222028   4.148   7.614   2.104
 6711SOL     OW22029  10.902   1.156   3.835
 6711SOL    HW122030  10.951   1.098   3.777
 6711SOL    HW222031  10.822   1.176   3.787
 6712SOL     OW22032   0.848  14.141   9.917
 6712SOL    HW122033   0.828  14.137  10.011
 6712SOL    HW222034   0.943  14.128   9.912
 6713SOL     OW22035   8.772  10.862  10.922
 6713SOL    HW122036   8.754  10.780  10.876
 6713SOL    HW222037   8.854  10.893  10.885
 6714SOL     OW22038  12.128   3.534   8.642
 6714SOL    HW122039  12.215   3.547   8.604
 6714SOL    HW222040  12.074   3.503   8.569
 6715SOL     OW22041  10.934   3.599   5.007
 6715SOL    HW122042  10.862   3.539   5.025
 6715SOL    HW222043  10.917   3.675   5.063
 6716SOL     OW22044   8.333  12.396   9.736
 6716SOL    HW122045   8.381  12.328   9.689
 6716SOL    HW222046   8.302  12.455   9.667
 6717SOL     OW22047   6.746   5.537   7.778
 6717SOL    HW122048   6.713   5.577   7.697
 6717SOL    HW222049   6.793   5.607   7.822
 6718SOL     OW22050   1.973  14.792   2.670
 6718SOL    HW122051   2.058  14.831   2.647
 6718SOL    HW222052   1.911  14.830   2.608
 6719SOL     OW22053   8.390   0.170   3.056
 6719SOL    HW122054   8.354   0.242   3.106
 6719SOL    HW222055   8.397   0.203   2.967
 6720SOL     OW22056   6.895   0.295   5.951
 6720SOL    HW122057   6.831   0.360   5.921
 6720SOL    HW222058   6.857   0.211   5.926
 6721SOL     OW22059  12.417   3.641   0.454
 6721SOL    HW122060  12.399   3.699   0.379
 6721SOL    HW222061  12.335   3.642   0.504
 6722SOL     OW22062   3.683  13.748   7.785
 6722SOL    HW122063   3.680  13.740   7.689
 6722SOL    HW222064   3.679  13.842   7.801
 6723SOL     OW22065   3.649  11.607   3.884
 6723SOL    HW122066   3.731  11.560   3.867
 6723SOL    HW222067   3.598  11.597   3.804
 6724SOL     OW22068   6.777  13.583   6.870
 6724SOL    HW122069   6.701  13.567   6.814
 6724SOL    HW222070   6.761  13.528   6.948
 6725SOL     OW22071   4.208  14.212   0.041
 6725SOL    HW122072   4.155  14.137   0.014
 6725SOL    HW222073   4.160  14.250   0.114
 6726SOL     OW22074   6.231  11.494  13.001
 6726SOL    HW122075   6.170  11.544  13.055
 6726SOL    HW222076   6.224  11.532  12.914
 6727SOL     OW22077   2.582   7.731   7.242
 6727SOL    HW122078   2.566   7.723   7.336
 6727SOL    HW222079   2.500   7.765   7.206
 6728SOL     OW22080  13.316  13.098   6.326
 6728SOL    HW122081  13.366  13.097   6.407
 6728SOL    HW222082  13.325  13.188   6.294
 6729SOL     OW22083  10.621   4.896   3.379
 6729SOL    HW122084  10.619   4.852   3.294
 6729SOL    HW222085  10.613   4.826   3.443
 6730SOL     OW22086  13.229  10.177  13.598
 6730SOL    HW122087  13.240  10.120  13.522
 6730SOL    HW222088  13.307  10.234  13.596
 6731SOL     OW22089  10.444   6.180  13.302
 6731SOL    HW122090  10.478   6.105  13.252
 6731SOL    HW222091  10.511   6.247  13.293
 6732SOL     OW22092   5.719  14.310   5.947
 6732SOL    HW122093   5.746  14.227   5.906
 6732SOL    HW222094   5.692  14.364   5.873
 6733SOL     OW22095   6.349   8.445   4.194
 6733SOL    HW122096   6.439   8.430   4.223
 6733SOL    HW222097   6.327   8.533   4.227
 6734SOL     OW22098   0.497  10.011   8.701
 6734SOL    HW122099   0.571  10.034   8.645
 6734SOL    HW222100   0.518   9.925   8.735
 6735SOL     OW22101   1.175  14.269  10.736
 6735SOL    HW122102   1.107  14.217  10.778
 6735SOL    HW222103   1.234  14.204  10.698
 6736SOL     OW22104   5.174   9.717   7.144
 6736SOL    HW122105   5.246   9.690   7.087
 6736SOL    HW222106   5.206   9.697   7.232
 6737SOL     OW22107  11.702   3.976   9.373
 6737SOL    HW122108  11.656   4.037   9.430
 6737SOL    HW222109  11.788   3.966   9.414
 6738SOL     OW22110  10.229  13.375   0.700
 6738SOL    HW122111  10.298  13.312   0.680
 6738SOL    HW222112  10.151  13.341   0.656
 6739SOL     OW22113  11.058   8.376  12.999
 6739SOL    HW122114  11.006   8.334  13.067
 6739SOL    HW222115  11.031   8.467  13.001
 6740SOL     OW22116  12.433   5.449   5.100
 6740SOL    HW122117  12.510   5.444   5.043
 6740SOL    HW222118  12.391   5.531   5.075
 6741SOL     OW22119  13.951   2.206   9.830
 6741SOL    HW122120  13.868   2.167   9.805
 6741SOL    HW222121  13.953   2.290   9.784
 6742SOL     OW22122   3.454  14.583   5.952
 6742SOL    HW122123   3.541  14.586   5.914
 6742SOL    HW222124   3.397  14.557   5.880
 6743SOL     OW22125   9.551   9.411   2.215
 6743SOL    HW122126   9.463   9.443   2.235
 6743SOL    HW222127   9.598   9.488   2.185
 6744SOL     OW22128  10.448  12.849   5.057
 6744SOL    HW122129  10.421  12.853   4.965
 6744SOL    HW222130  10.365  12.847   5.106
 6745SOL     OW22131  13.930   4.585  10.644
 6745SOL    HW122132  13.885   4.524  10.585
 6745SOL    HW222133  13.876   4.585  10.723
 6746SOL     OW22134   1.913   4.617  11.724
 6746SOL    HW122135   1.855   4.545  11.749
 6746SOL    HW222136   1.922   4.609  11.629
 6747SOL     OW22137  10.403  14.605   0.159
 6747SOL    HW122138  10.312  14.617   0.188
 6747SOL    HW222139  10.406  14.648   0.073
 6748SOL     OW22140   5.468  13.569   6.957
 6748SOL    HW122141   5.460  13.661   6.929
 6748SOL    HW222142   5.381  13.532   6.940
 6749SOL     OW22143   3.772   4.139   5.380
 6749SOL    HW122144   3.751   4.053   5.416
 6749SOL    HW222145   3.810   4.121   5.295
 6750SOL     OW22146   6.342   0.614   5.690
 6750SOL    HW122147   6.383   0.694   5.724
 6750SOL    HW222148   6.390   0.594   5.610
 6751SOL     OW22149   5.540   1.962  11.393
 6751SOL    HW122150   5.544   1.972  11.298
 6751SOL    HW222151   5.485   1.885  11.407
 6752SOL     OW22152   5.195   6.112   1.224
 6752SOL    HW122153   5.168   6.203   1.210
 6752SOL    HW222154   5.113   6.064   1.236
 6753SOL     OW22155   9.989   7.208   4.176
 6753SOL    HW122156   9.951   7.124   4.151
 6753SOL    HW222157   9.914   7.263   4.198
 6754SOL     OW22158  10.949   6.106   2.789
 6754SOL    HW122159  10.946   6.014   2.814
 6754SOL    HW222160  10.866   6.122   2.744
 6755SOL     OW22161   7.604  12.290  11.250
 6755SOL    HW122162   7.598  12.386  11.251
 6755SOL    HW222163   7.514  12.260  11.235
 6756SOL     OW22164   9.771   0.776   4.037
 6756SOL    HW122165   9.861   0.766   4.008
 6756SOL    HW222166   9.726   0.814   3.961
 6757SOL     OW22167   4.912  13.066   5.067
 6757SOL    HW122168   4.865  13.144   5.035
 6757SOL    HW222169   4.896  12.999   5.001
 6758SOL     OW22170   6.786   1.119   4.311
 6758SOL    HW122171   6.715   1.179   4.291
 6758SOL    HW222172   6.834   1.109   4.229
 6759SOL     OW22173   0.719   9.195   5.727
 6759SOL    HW122174   0.760   9.116   5.763
 6759SOL    HW222175   0.790   9.259   5.720
 6760SOL     OW22176  11.489   6.280   3.555
 6760SOL    HW122177  11.415   6.295   3.614
 6760SOL    HW222178  11.496   6.362   3.505
 6761SOL     OW22179  11.237  10.129  13.037
 6761SOL    HW122180  11.258  10.217  13.004
 6761SOL    HW222181  11.262  10.071  12.965
 6762SOL     OW22182  12.929  12.820   5.558
 6762SOL    HW122183  12.842  12.857   5.570
 6762SOL    HW222184  12.919  12.727   5.579
 6763SOL     OW22185   6.158   6.225   4.895
 6763SOL    HW122186   6.236   6.178   4.922
 6763SOL    HW222187   6.168   6.236   4.800
 6764SOL     OW22188  13.325  12.846  10.628
 6764SOL    HW122189  13.260  12.796  10.677
 6764SOL    HW222190  13.304  12.830  10.536
 6765SOL     OW22191  11.998   9.324  13.809
 6765SOL    HW122192  11.946   9.348  13.886
 6765SOL    HW222193  12.066   9.391  13.805
 6766SOL     OW22194   9.809   3.217   6.305
 6766SOL    HW122195   9.787   3.129   6.337
 6766SOL    HW222196   9.864   3.254   6.375
 6767SOL     OW22197   3.720   0.783   3.056
 6767SOL    HW122198   3.773   0.863   3.057
 6767SOL    HW222199   3.741   0.739   3.139
 6768SOL     OW22200   5.872   7.369   1.345
 6768SOL    HW122201   5.966   7.356   1.362
 6768SOL    HW222202   5.846   7.437   1.407
 6769SOL     OW22203  14.649   3.965   4.577
 6769SOL    HW122204  14.625   3.962   4.669
 6769SOL    HW222205  14.668   4.057   4.560
 6770SOL     OW22206   4.195   7.224  12.920
 6770SOL    HW122207   4.288   7.204  12.912
 6770SOL    HW222208   4.185   7.259  13.008
 6771SOL     OW22209   1.463  11.380  12.606
 6771SOL    HW122210   1.400  11.308  12.617
 6771SOL    HW222211   1.500  11.393  12.693
 6772SOL     OW22212  12.650  11.223  10.467
 6772SOL    HW122213  12.688  11.245  10.552
 6772SOL    HW222214  12.710  11.158  10.430
 6773SOL     OW22215   6.458  14.309  10.811
 6773SOL    HW122216   6.496  14.325  10.724
 6773SOL    HW222217   6.516  14.356  10.871
 6774SOL     OW22218   6.352   2.813   2.765
 6774SOL    HW122219   6.396   2.789   2.846
 6774SOL    HW222220   6.298   2.737   2.743
 6775SOL     OW22221  13.200   7.496  12.574
 6775SOL    HW122222  13.136   7.453  12.517
 6775SOL    HW222223  13.247   7.556  12.516
 6776SOL     OW22224   7.239   8.379   7.717
 6776SOL    HW122225   7.199   8.297   7.690
 6776SOL    HW222226   7.175   8.446   7.693
 6777SOL     OW22227   9.537   5.880   3.656
 6777SOL    HW122228   9.499   5.806   3.702
 6777SOL    HW222229   9.621   5.895   3.700
 6778SOL     OW22230   6.589   9.239  13.432
 6778SOL    HW122231   6.653   9.308  13.416
 6778SOL    HW222232   6.579   9.196  13.346
 6779SOL     OW22233   7.247  12.484   9.607
 6779SOL    HW122234   7.236  12.570   9.566
 6779SOL    HW222235   7.341  12.467   9.602
 6780SOL     OW22236   1.617  10.168   7.295
 6780SOL    HW122237   1.523  10.152   7.304
 6780SOL    HW222238   1.633  10.165   7.201
 6781SOL     OW22239  11.532  13.199   1.557
 6781SOL    HW122240  11.478  13.240   1.624
 6781SOL    HW222241  11.472  13.141   1.510
 6782SOL     OW22242  14.122  13.686   6.268
 6782SOL    HW122243  14.055  13.722   6.326
 6782SOL    HW222244  14.124  13.593   6.290
 6783SOL     OW22245   1.742  11.751  13.483
 6783SOL    HW122246   1.660  11.793  13.509
 6783SOL    HW222247   1.780  11.811  13.419
 6784SOL     OW22248  12.922  12.229   2.673
 6784SOL    HW122249  12.859  12.179   2.620
 6784SOL    HW222250  12.991  12.253   2.611
 6785SOL     OW22251  10.955   3.354   4.747
 6785SOL    HW122252  11.035   3.404   4.764
 6785SOL    HW222253  10.965   3.276   4.802
 6786SOL     OW22254  12.002   6.659   9.607
 6786SOL    HW122255  11.910   6.635   9.597
 6786SOL    HW222256  12.001   6.732   9.668
 6787SOL     OW22257  14.686   9.760   4.817
 6787SOL    HW122258  14.743   9.726   4.887
 6787SOL    HW222259  14.599   9.763   4.856
 6788SOL     OW22260   0.045   8.088   7.204
 6788SOL    HW122261   0.051   8.183   7.199
 6788SOL    HW222262   0.118   8.062   7.259
 6789SOL     OW22263  10.032   2.695   3.077
 6789SOL    HW122264   9.987   2.719   2.996
 6789SOL    HW222265  10.070   2.609   3.059
 6790SOL     OW22266  14.569   8.451   8.501
 6790SOL    HW122267  14.599   8.436   8.591
 6790SOL    HW222268  14.489   8.503   8.512
 6791SOL     OW22269  10.667   0.975   9.158
 6791SOL    HW122270  10.591   0.942   9.206
 6791SOL    HW222271  10.742   0.949   9.211
 6792SOL     OW22272  13.420  14.811   4.056
 6792SOL    HW122273  13.373  14.805   3.972
 6792SOL    HW222274  13.497  14.864   4.037
 6793SOL     OW22275   5.528   3.518   3.274
 6793SOL    HW122276   5.578   3.522   3.355
 6793SOL    HW222277   5.581   3.566   3.210
 6794SOL     OW22278   1.262  14.319  13.931
 6794SOL    HW122279   1.278  14.283  14.018
 6794SOL    HW222280   1.256  14.241  13.875
 6795SOL     OW22281  11.600   4.764  14.331
 6795SOL    HW122282  11.660   4.838  14.343
 6795SOL    HW222283  11.599   4.721  14.416
 6796SOL     OW22284   9.530   1.969   6.034
 6796SOL    HW122285   9.583   1.896   6.004
 6796SOL    HW222286   9.537   1.967   6.129
 6797SOL     OW22287   3.699  13.825  12.633
 6797SOL    HW122288   3.784  13.835  12.591
 6797SOL    HW222289   3.647  13.774  12.571
 6798SOL     OW22290   9.852  13.757   3.294
 6798SOL    HW122291   9.920  13.690   3.285
 6798SOL    HW222292   9.825  13.775   3.204
 6799SOL     OW22293  13.608   7.184   7.240
 6799SOL    HW122294  13.549   7.259   7.253
 6799SOL    HW222295  13.566   7.113   7.288
 6800SOL     OW22296  13.027   4.025   7.105
 6800SOL    HW122297  12.937   4.014   7.076
 6800SOL    HW222298  13.020   4.059   7.194
 6801SOL     OW22299   7.615   4.092   7.509
 6801SOL    HW122300   7.657   4.165   7.555
 6801SOL    HW222301   7.673   4.074   7.435
 6802SOL     OW22302   9.334   8.997  11.071
 6802SOL    HW122303   9.335   8.986  11.166
 6802SOL    HW222304   9.373   9.084  11.057
 6803SOL     OW22305   8.640  11.328   0.779
 6803SOL    HW122306   8.554  11.359   0.805
 6803SOL    HW222307   8.630  11.233   0.771
 6804SOL     OW22308   6.924   2.904  12.615
 6804SOL    HW122309   6.943   2.819  12.656
 6804SOL    HW222310   6.845   2.935  12.659
 6805SOL     OW22311  10.179   7.491   4.033
 6805SOL    HW122312  10.234   7.506   3.956
 6805SOL    HW222313  10.154   7.578   4.062
 6806SOL     OW22314  14.714  11.417  13.476
 6806SOL    HW122315  14.793  11.468  13.462
 6806SOL    HW222316  14.696  11.375  13.392
 6807SOL     OW22317   1.988  10.064   4.377
 6807SOL    HW122318   2.053  10.028   4.437
 6807SOL    HW222319   2.027  10.054   4.290
 6808SOL     OW22320  13.998   7.061   3.389
 6808SOL    HW122321  14.089   7.076   3.364
 6808SOL    HW222322  13.973   6.981   3.341
 6809SOL     OW22323   1.272   7.083   3.272
 6809SOL    HW122324   1.191   7.034   3.281
 6809SOL    HW222325   1.338   7.017   3.249
 6810SOL     OW22326  13.048   3.169   9.718
 6810SOL    HW122327  13.013   3.083   9.692
 6810SOL    HW222328  12.986   3.202   9.782
 6811SOL     OW22329   0.701  12.733   7.551
 6811SOL    HW122330   0.796  12.730   7.549
 6811SOL    HW222331   0.679  12.774   7.634
 6812SOL     OW22332   4.925   1.972   7.654
 6812SOL    HW122333   4.985   2.022   7.710
 6812SOL    HW222334   4.980   1.902   7.617
 6813SOL     OW22335  12.875   8.595   5.511
 6813SOL    HW122336  12.837   8.676   5.545
 6813SOL    HW222337  12.809   8.562   5.450
 6814SOL     OW22338   3.652   9.739   1.545
 6814SOL    HW122339   3.729   9.795   1.555
 6814SOL    HW222340   3.600   9.756   1.623
 6815SOL     OW22341  10.815   0.672  14.398
 6815SOL    HW122342  10.902   0.674  14.359
 6815SOL    HW222343  10.759   0.716  14.334
 6816SOL     OW22344  10.382   6.352   2.149
 6816SOL    HW122345  10.300   6.364   2.197
 6816SOL    HW222346  10.359   6.370   2.058
 6817SOL     OW22347  13.910   9.814  13.896
 6817SOL    HW122348  13.966   9.736  13.902
 6817SOL    HW222349  13.832   9.784  13.849
 6818SOL     OW22350  11.493   9.942  10.413
 6818SOL    HW122351  11.424   9.916  10.473
 6818SOL    HW222352  11.550   9.865  10.405
 6819SOL     OW22353   3.881   0.316  13.490
 6819SOL    HW122354   3.953   0.378  13.479
 6819SOL    HW222355   3.882   0.262  13.411
 6820SOL     OW22356   8.410   0.017  10.146
 6820SOL    HW122357   8.321   0.050  10.134
 6820SOL    HW222358   8.451   0.080  10.207
 6821SOL     OW22359  12.873  10.978   2.487
 6821SOL    HW122360  12.808  11.032   2.532
 6821SOL    HW222361  12.879  11.016   2.399
 6822SOL     OW22362  10.963  12.637  11.728
 6822SOL    HW122363  10.944  12.728  11.704
 6822SOL    HW222364  10.953  12.634  11.823
 6823SOL     OW22365   8.924  14.655  14.254
 6823SOL    HW122366   8.942  14.736  14.302
 6823SOL    HW222367   8.897  14.592  14.321
 6824SOL     OW22368  10.266   1.762  14.161
 6824SOL    HW122369  10.202   1.790  14.095
 6824SOL    HW222370  10.278   1.838  14.217
 6825SOL     OW22371   8.292   7.941   7.863
 6825SOL    HW122372   8.259   7.916   7.949
 6825SOL    HW222373   8.218   7.930   7.804
 6826SOL     OW22374  12.897   6.863   0.636
 6826SOL    HW122375  12.827   6.914   0.677
 6826SOL    HW222376  12.972   6.876   0.693
 6827SOL     OW22377   2.540  11.703   4.383
 6827SOL    HW122378   2.446  11.721   4.371
 6827SOL    HW222379   2.584  11.763   4.323
 6828SOL     OW22380  14.448   6.701   2.560
 6828SOL    HW122381  14.412   6.711   2.472
 6828SOL    HW222382  14.373   6.713   2.619
 6829SOL     OW22383  13.813   0.732  10.981
 6829SOL    HW122384  13.885   0.774  11.028
 6829SOL    HW222385  13.792   0.792  10.910
 6830SOL     OW22386   9.668   3.412   6.717
 6830SOL    HW122387   9.691   3.490   6.767
 6830SOL    HW222388   9.697   3.339   6.772
 6831SOL     OW22389  13.449   9.536  11.956
 6831SOL    HW122390  13.399   9.615  11.938
 6831SOL    HW222391  13.514   9.531  11.886
 6832SOL     OW22392   2.058   6.434   7.294
 6832SOL    HW122393   2.011   6.354   7.318
 6832SOL    HW222394   2.062   6.432   7.199
 6833SOL     OW22395   4.408   4.565   9.082
 6833SOL    HW122396   4.342   4.574   9.013
 6833SOL    HW222397   4.384   4.484   9.127
 6834SOL     OW22398   5.820   3.691   4.925
 6834SOL    HW122399   5.761   3.757   4.961
 6834SOL    HW222400   5.764   3.638   4.867
 6835SOL     OW22401  12.656   1.242  13.099
 6835SOL    HW122402  12.673   1.333  13.075
 6835SOL    HW222403  12.655   1.195  13.016
 6836SOL     OW22404  13.496  14.501   4.459
 6836SOL    HW122405  13.581  14.458   4.455
 6836SOL    HW222406  13.465  14.502   4.368
 6837SOL     OW22407   5.295  13.811   2.249
 6837SOL    HW122408   5.313  13.859   2.330
 6837SOL    HW222409   5.368  13.750   2.241
 6838SOL     OW22410  12.971  11.227   6.343
 6838SOL    HW122411  13.046  11.254   6.289
 6838SOL    HW222412  12.927  11.309   6.365
 6839SOL     OW22413   5.697  10.508   9.558
 6839SOL    HW122414   5.756  10.482   9.628
 6839SOL    HW222415   5.624  10.446   9.564
 6840SOL     OW22416   3.494   8.780   7.381
 6840SOL    HW122417   3.546   8.825   7.448
 6840SOL    HW222418   3.558   8.753   7.315
 6841SOL     OW22419   6.188   2.103   8.277
 6841SOL    HW122420   6.123   2.171   8.295
 6841SOL    HW222421   6.259   2.149   8.231
 6842SOL     OW22422  12.046   1.999   5.569
 6842SOL    HW122423  12.073   2.012   5.659
 6842SOL    HW222424  11.951   1.991   5.573
 6843SOL     OW22425   9.796  11.210  12.040
 6843SOL    HW122426   9.848  11.237  12.116
 6843SOL    HW222427   9.727  11.154  12.076
 6844SOL     OW22428  11.298   8.658  11.420
 6844SOL    HW122429  11.361   8.597  11.459
 6844SOL    HW222430  11.350   8.708  11.357
 6845SOL     OW22431   4.477  13.775  11.522
 6845SOL    HW122432   4.475  13.688  11.563
 6845SOL    HW222433   4.516  13.760  11.436
 6846SOL     OW22434  11.863   5.175  11.703
 6846SOL    HW122435  11.811   5.191  11.625
 6846SOL    HW222436  11.868   5.080  11.710
 6847SOL     OW22437  14.759   4.595  13.748
 6847SOL    HW122438  14.664   4.602  13.741
 6847SOL    HW222439  14.792   4.670  13.697
 6848SOL     OW22440  10.485   5.537   5.085
 6848SOL    HW122441  10.562   5.585   5.057
 6848SOL    HW222442  10.411   5.592   5.057
 6849SOL     OW22443   0.170   5.027   0.078
 6849SOL    HW122444   0.252   5.058   0.039
 6849SOL    HW222445   0.185   5.032   0.173
 6850SOL     OW22446   8.609  14.611  12.987
 6850SOL    HW122447   8.581  14.538  12.932
 6850SOL    HW222448   8.556  14.604  13.066
 6851SOL     OW22449  10.870   0.939   5.297
 6851SOL    HW122450  10.901   0.926   5.207
 6851SOL    HW222451  10.797   0.878   5.307
 6852SOL     OW22452  12.682   3.467   5.316
 6852SOL    HW122453  12.615   3.405   5.289
 6852SOL    HW222454  12.765   3.421   5.305
 6853SOL     OW22455  13.946   3.062   8.801
 6853SOL    HW122456  13.974   3.052   8.892
 6853SOL    HW222457  14.015   3.019   8.750
 6854SOL     OW22458   8.193  12.246  11.897
 6854SOL    HW122459   8.139  12.167  11.903
 6854SOL    HW222460   8.132  12.315  11.869
 6855SOL     OW22461  10.114   2.796   9.934
 6855SOL    HW122462  10.111   2.701   9.930
 6855SOL    HW222463  10.192   2.819   9.883
 6856SOL     OW22464  11.853   5.621   4.598
 6856SOL    HW122465  11.892   5.574   4.524
 6856SOL    HW222466  11.865   5.714   4.578
 6857SOL     OW22467   9.273  12.379   2.446
 6857SOL    HW122468   9.289  12.313   2.513
 6857SOL    HW222469   9.337  12.448   2.464
 6858SOL     OW22470  14.007   3.172   2.079
 6858SOL    HW122471  14.034   3.081   2.086
 6858SOL    HW222472  14.032   3.211   2.163
 6859SOL     OW22473  11.036   2.519   5.603
 6859SOL    HW122474  11.102   2.588   5.594
 6859SOL    HW222475  11.079   2.451   5.655
 6860SOL     OW22476   0.560  12.022   2.308
 6860SOL    HW122477   0.468  12.036   2.328
 6860SOL    HW222478   0.599  11.993   2.390
 6861SOL     OW22479   6.529  12.687   9.427
 6861SOL    HW122480   6.476  12.608   9.418
 6861SOL    HW222481   6.484  12.739   9.494
 6862SOL     OW22482   4.831   9.483   2.426
 6862SOL    HW122483   4.849   9.390   2.435
 6862SOL    HW222484   4.860   9.522   2.509
 6863SOL     OW22485   4.084   1.452  11.477
 6863SOL    HW122486   4.069   1.420  11.388
 6863SOL    HW222487   4.161   1.404  11.508
 6864SOL     OW22488   3.352   2.718   5.696
 6864SOL    HW122489   3.344   2.649   5.761
 6864SOL    HW222490   3.445   2.718   5.672
 6865SOL     OW22491   6.738  10.873   8.959
 6865SOL    HW122492   6.728  10.834   9.046
 6865SOL    HW222493   6.651  10.866   8.920
 6866SOL     OW22494   7.831  14.770   5.774
 6866SOL    HW122495   7.867  14.746   5.859
 6866SOL    HW222496   7.887  14.726   5.710
 6867SOL     OW22497   5.154   4.867   2.077
 6867SOL    HW122498   5.119   4.848   2.164
 6867SOL    HW222499   5.182   4.782   2.042
 6868SOL     OW22500   5.730   2.723   4.696
 6868SOL    HW122501   5.722   2.726   4.791
 6868SOL    HW222502   5.665   2.786   4.665
 6869SOL     OW22503   8.756   6.566  12.388
 6869SOL    HW122504   8.689   6.633  12.405
 6869SOL    HW222505   8.811   6.604  12.320
 6870SOL     OW22506  14.006   2.533  12.886
 6870SOL    HW122507  13.941   2.489  12.941
 6870SOL    HW222508  14.085   2.536  12.940
 6871SOL     OW22509  11.181   0.336   4.791
 6871SOL    HW122510  11.093   0.373   4.797
 6871SOL    HW222511  11.221   0.357   4.876
 6872SOL     OW22512  10.712   7.100   7.801
 6872SOL    HW122513  10.780   7.082   7.866
 6872SOL    HW222514  10.754   7.157   7.737
 6873SOL     OW22515   9.309  10.155   0.458
 6873SOL    HW122516   9.224  10.137   0.417
 6873SOL    HW222517   9.318  10.250   0.453
 6874SOL     OW22518   7.845   8.850   9.638
 6874SOL    HW122519   7.762   8.877   9.677
 6874SOL    HW222520   7.911   8.907   9.678
 6875SOL     OW22521  14.458   6.773   2.068
 6875SOL    HW122522  14.453   6.844   2.131
 6875SOL    HW222523  14.548   6.775   2.036
 6876SOL     OW22524   5.169  10.964  14.684
 6876SOL    HW122525   5.093  10.991  14.735
 6876SOL    HW222526   5.133  10.911  14.614
 6877SOL     OW22527   7.026  14.320   6.548
 6877SOL    HW122528   7.045  14.409   6.516
 6877SOL    HW222529   6.931  14.318   6.557
 6878SOL     OW22530   4.410   9.319  12.632
 6878SOL    HW122531   4.343   9.383  12.653
 6878SOL    HW222532   4.369   9.262  12.568
 6879SOL     OW22533  12.311  13.114   0.969
 6879SOL    HW122534  12.328  13.120   1.063
 6879SOL    HW222535  12.392  13.144   0.928
 6880SOL     OW22536   8.250   4.877   1.243
 6880SOL    HW122537   8.221   4.805   1.298
 6880SOL    HW222538   8.308   4.929   1.299
 6881SOL     OW22539  12.692  10.357  12.204
 6881SOL    HW122540  12.611  10.308  12.197
 6881SOL    HW222541  12.696  10.410  12.125
 6882SOL     OW22542   2.305   1.942   9.461
 6882SOL    HW122543   2.357   1.863   9.480
 6882SOL    HW222544   2.226   1.932   9.514
 6883SOL     OW22545  14.625   5.472  12.985
 6883SOL    HW122546  14.547   5.422  13.009
 6883SOL    HW222547  14.674   5.414  12.927
 6884SOL     OW22548   3.046  10.521   7.106
 6884SOL    HW122549   2.994  10.542   7.028
 6884SOL    HW222550   2.994  10.455   7.152
 6885SOL     OW22551  13.269  13.262   1.070
 6885SOL    HW122552  13.332  13.193   1.092
 6885SOL    HW222553  13.283  13.278   0.977
 6886SOL     OW22554   7.823   3.516   4.754
 6886SOL    HW122555   7.790   3.537   4.842
 6886SOL    HW222556   7.773   3.439   4.728
 6887SOL     OW22557   0.534   6.308   6.185
 6887SOL    HW122558   0.484   6.253   6.245
 6887SOL    HW222559   0.625   6.280   6.198
 6888SOL     OW22560   5.912  10.526   9.355
 6888SOL    HW122561   5.856  10.576   9.415
 6888SOL    HW222562   5.923  10.441   9.398
 6889SOL     OW22563   6.251   7.527  11.939
 6889SOL    HW122564   6.243   7.434  11.916
 6889SOL    HW222565   6.237   7.529  12.034
 6890SOL     OW22566   3.001  11.607  13.841
 6890SOL    HW122567   2.963  11.691  13.868
 6890SOL    HW222568   3.069  11.630  13.778
 6891SOL     OW22569   6.418  11.714   5.454
 6891SOL    HW122570   6.510  11.741   5.453
 6891SOL    HW222571   6.414  11.639   5.395
 6892SOL     OW22572  14.292  14.384  10.780
 6892SOL    HW122573  14.230  14.449  10.812
 6892SOL    HW222574  14.299  14.319  10.850
 6893SOL     OW22575   0.674  12.655   5.366
 6893SOL    HW122576   0.712  12.731   5.410
 6893SOL    HW222577   0.624  12.692   5.293
 6894SOL     OW22578   5.106   7.424  12.684
 6894SOL    HW122579   5.194   7.389  12.696
 6894SOL    HW222580   5.067   7.369  12.616
 6895SOL     OW22581   7.860  12.414   2.990
 6895SOL    HW122582   7.799  12.485   3.006
 6895SOL    HW222583   7.848  12.393   2.897
 6896SOL     OW22584  10.351  10.508  12.513
 6896SOL    HW122585  10.304  10.571  12.458
 6896SOL    HW222586  10.398  10.561  12.576
 6897SOL     OW22587   6.564  13.526   6.387
 6897SOL    HW122588   6.597  13.459   6.327
 6897SOL    HW222589   6.503  13.578   6.334
 6898SOL     OW22590   5.712  14.864   7.140
 6898SOL    HW122591   5.659  14.785   7.133
 6898SOL    HW222592   5.784  14.850   7.078
 6899SOL     OW22593   7.562  12.595   6.372
 6899SOL    HW122594   7.618  12.650   6.317
 6899SOL    HW222595   7.529  12.653   6.440
 6900SOL     OW22596   5.946  12.734   6.975
 6900SOL    HW122597   5.945  12.719   7.070
 6900SOL    HW222598   6.006  12.669   6.941
 6901SOL     OW22599   5.020   9.016  11.719
 6901SOL    HW122600   5.076   9.094  11.727
 6901SOL    HW222601   5.040   8.964  11.797
 6902SOL     OW22602   2.112   7.032  12.523
 6902SOL    HW122603   2.023   7.029  12.488
 6902SOL    HW222604   2.104   7.085  12.602
 6903SOL     OW22605   8.409   2.041   7.911
 6903SOL    HW122606   8.382   2.095   7.837
 6903SOL    HW222607   8.504   2.044   7.910
 6904SOL     OW22608   0.006   5.935   5.936
 6904SOL    HW122609   0.078   5.928   5.999
 6904SOL    HW222610  14.805   5.943   5.991
 6905SOL     OW22611  10.014  12.987  14.498
 6905SOL    HW122612   9.946  13.003  14.563
 6905SOL    HW222613   9.996  13.049  14.428
 6906SOL     OW22614   0.969   1.568   5.380
 6906SOL    HW122615   0.963   1.591   5.473
 6906SOL    HW222616   0.892   1.607   5.340
 6907SOL     OW22617   1.219  13.721  11.043
 6907SOL    HW122618   1.272  13.736  11.121
 6907SOL    HW222619   1.271  13.660  10.990
 6908SOL     OW22620   6.696   0.951  12.642
 6908SOL    HW122621   6.658   0.917  12.723
 6908SOL    HW222622   6.692   0.877  12.581
 6909SOL     OW22623   4.577  11.433  11.850
 6909SOL    HW122624   4.525  11.353  11.861
 6909SOL    HW222625   4.621  11.421  11.765
 6910SOL     OW22626   6.703   7.480  12.340
 6910SOL    HW122627   6.608   7.467  12.336
 6910SOL    HW222628   6.718   7.526  12.422
 6911SOL     OW22629   3.165   8.587  12.659
 6911SOL    HW122630   3.231   8.577  12.727
 6911SOL    HW222631   3.094   8.528  12.686
 6912SOL     OW22632   3.822   5.005   4.287
 6912SOL    HW122633   3.756   5.073   4.275
 6912SOL    HW222634   3.894   5.031   4.229
 6913SOL     OW22635   4.651  14.583  11.840
 6913SOL    HW122636   4.714  14.544  11.779
 6913SOL    HW222637   4.642  14.674  11.810
 6914SOL     OW22638   1.128   1.055   7.008
 6914SOL    HW122639   1.174   0.996   6.947
 6914SOL    HW222640   1.198   1.093   7.060
 6915SOL     OW22641  13.637   6.889   5.836
 6915SOL    HW122642  13.622   6.826   5.765
 6915SOL    HW222643  13.693   6.841   5.898
 6916SOL     OW22644   3.220   5.773   7.320
 6916SOL    HW122645   3.252   5.728   7.242
 6916SOL    HW222646   3.196   5.703   7.380
 6917SOL     OW22647   8.847   4.587   6.070
 6917SOL    HW122648   8.854   4.500   6.029
 6917SOL    HW222649   8.934   4.626   6.057
 6918SOL     OW22650   1.273  12.035   6.792
 6918SOL    HW122651   1.270  12.038   6.697
 6918SOL    HW222652   1.339  12.100   6.816
 6919SOL     OW22653   7.973   2.998   7.005
 6919SOL    HW122654   7.920   3.029   6.932
 6919SOL    HW222655   7.908   2.974   7.072
 6920SOL     OW22656  11.706  13.123  13.415
 6920SOL    HW122657  11.794  13.153  13.392
 6920SOL    HW222658  11.654  13.136  13.335
 6921SOL     OW22659   3.686  11.730   6.498
 6921SOL    HW122660   3.664  11.789   6.426
 6921SOL    HW222661   3.604  11.682   6.515
 6922SOL     OW22662   9.730  13.910   5.930
 6922SOL    HW122663   9.687  13.989   5.897
 6922SOL    HW222664   9.704  13.841   5.869
 6923SOL     OW22665   9.577   2.202   4.847
 6923SOL    HW122666   9.572   2.274   4.910
 6923SOL    HW222667   9.487   2.194   4.814
 6924SOL     OW22668   5.709   7.794  10.910
 6924SOL    HW122669   5.698   7.734  10.983
 6924SOL    HW222670   5.724   7.737  10.834
 6925SOL     OW22671   8.493   1.890  11.909
 6925SOL    HW122672   8.549   1.885  11.832
 6925SOL    HW222673   8.466   1.981  11.914
 6926SOL     OW22674  11.141   7.956   9.327
 6926SOL    HW122675  11.111   8.035   9.372
 6926SOL    HW222676  11.200   7.988   9.259
 6927SOL     OW22677   7.037   0.921   8.230
 6927SOL    HW122678   7.099   0.929   8.158
 6927SOL    HW222679   6.992   1.005   8.232
 6928SOL     OW22680   1.098   7.006   3.961
 6928SOL    HW122681   1.177   7.027   3.910
 6928SOL    HW222682   1.028   7.055   3.918
 6929SOL     OW22683  13.475   6.410  14.400
 6929SOL    HW122684  13.547   6.387  14.458
 6929SOL    HW222685  13.431   6.484  14.443
 6930SOL     OW22686   1.675   5.435   6.183
 6930SOL    HW122687   1.663   5.494   6.108
 6930SOL    HW222688   1.619   5.471   6.252
 6931SOL     OW22689   8.781   8.402   3.942
 6931SOL    HW122690   8.839   8.466   3.983
 6931SOL    HW222691   8.754   8.344   4.013
 6932SOL     OW22692  14.482  13.878   9.758
 6932SOL    HW122693  14.438  13.881   9.673
 6932SOL    HW222694  14.575  13.868   9.736
 6933SOL     OW22695  13.799   1.122   7.884
 6933SOL    HW122696  13.704   1.123   7.883
 6933SOL    HW222697  13.821   1.094   7.973
 6934SOL     OW22698   6.373   0.692  11.745
 6934SOL    HW122699   6.355   0.631  11.816
 6934SOL    HW222700   6.463   0.720  11.759
 6935SOL     OW22701  14.761   4.149   7.226
 6935SOL    HW122702  14.817   4.214   7.185
 6935SOL    HW222703  14.684   4.197   7.255
 6936SOL     OW22704   0.268  10.060  10.486
 6936SOL    HW122705   0.192  10.017  10.526
 6936SOL    HW222706   0.310   9.991  10.435
 6937SOL     OW22707  11.215   1.891   6.055
 6937SOL    HW122708  11.186   1.820   6.113
 6937SOL    HW222709  11.191   1.862   5.968
 6938SOL     OW22710  13.738  10.307   8.356
 6938SOL    HW122711  13.758  10.240   8.291
 6938SOL    HW222712  13.679  10.367   8.311
 6939SOL     OW22713   4.611   4.237  13.491
 6939SOL    HW122714   4.599   4.238  13.396
 6939SOL    HW222715   4.525   4.219  13.527
 6940SOL     OW22716   8.852  11.562   6.781
 6940SOL    HW122717   8.850  11.549   6.687
 6940SOL    HW222718   8.915  11.497   6.813
 6941SOL     OW22719   0.809   7.567   2.403
 6941SOL    HW122720   0.787   7.657   2.381
 6941SOL    HW222721   0.799   7.561   2.498
 6942SOL     OW22722   3.628   1.270   2.135
 6942SOL    HW122723   3.663   1.259   2.046
 6942SOL    HW222724   3.553   1.211   2.139
 6943SOL     OW22725   9.089   6.831  10.090
 6943SOL    HW122726   9.095   6.893  10.162
 6943SOL    HW222727   9.120   6.749  10.126
 6944SOL     OW22728  12.359  11.338   6.777
 6944SOL    HW122729  12.404  11.260   6.811
 6944SOL    HW222730  12.266  11.315   6.779
 6945SOL     OW22731   8.465   9.880   4.752
 6945SOL    HW122732   8.403   9.839   4.812
 6945SOL    HW222733   8.538   9.819   4.747
 6946SOL     OW22734   0.491   7.374  10.652
 6946SOL    HW122735   0.543   7.355  10.574
 6946SOL    HW222736   0.554   7.373  10.724
 6947SOL     OW22737  10.571   1.836   8.106
 6947SOL    HW122738  10.593   1.906   8.167
 6947SOL    HW222739  10.510   1.876   8.045
 6948SOL     OW22740   5.956   3.726   7.082
 6948SOL    HW122741   5.952   3.816   7.048
 6948SOL    HW222742   6.005   3.677   7.016
 6949SOL     OW22743  14.412  13.145   5.284
 6949SOL    HW122744  14.427  13.179   5.372
 6949SOL    HW222745  14.348  13.204   5.246
 6950SOL     OW22746   8.347   3.687   2.594
 6950SOL    HW122747   8.353   3.780   2.617
 6950SOL    HW222748   8.409   3.644   2.652
 6951SOL     OW22749   6.792  11.263   1.695
 6951SOL    HW122750   6.868  11.290   1.747
 6951SOL    HW222751   6.814  11.288   1.605
 6952SOL     OW22752  14.283   5.816   9.904
 6952SOL    HW122753  14.234   5.867   9.968
 6952SOL    HW222754  14.368   5.861   9.898
 6953SOL     OW22755   9.538   7.309   9.273
 6953SOL    HW122756   9.449   7.281   9.251
 6953SOL    HW222757   9.590   7.228   9.268
 6954SOL     OW22758   9.431  11.504  11.356
 6954SOL    HW122759   9.336  11.496  11.340
 6954SOL    HW222760   9.437  11.557  11.436
 6955SOL     OW22761   1.821   6.451   3.664
 6955SOL    HW122762   1.749   6.400   3.701
 6955SOL    HW222763   1.880   6.385   3.628
 6956SOL     OW22764   6.591   3.227   8.599
 6956SOL    HW122765   6.627   3.147   8.561
 6956SOL    HW222766   6.537   3.264   8.529
 6957SOL     OW22767  12.531  14.206   6.221
 6957SOL    HW122768  12.483  14.127   6.198
 6957SOL    HW222769  12.552  14.247   6.137
 6958SOL     OW22770   8.101   1.959   7.268
 6958SOL    HW122771   8.095   1.926   7.358
 6958SOL    HW222772   8.016   1.997   7.251
 6959SOL     OW22773  10.554   9.701   2.933
 6959SOL    HW122774  10.635   9.650   2.926
 6959SOL    HW222775  10.532   9.697   3.026
 6960SOL     OW22776   6.241   1.234  14.660
 6960SOL    HW122777   6.258   1.315  14.613
 6960SOL    HW222778   6.257   1.165  14.595
 6961SOL     OW22779   6.156   2.066   1.917
 6961SOL    HW122780   6.120   2.062   2.005
 6961SOL    HW222781   6.250   2.079   1.929
 6962SOL     OW22782  14.237   4.793   4.640
 6962SOL    HW122783  14.317   4.771   4.593
 6962SOL    HW222784  14.230   4.888   4.635
 6963SOL     OW22785  11.549   1.951   6.044
 6963SOL    HW122786  11.454   1.953   6.055
 6963SOL    HW222787  11.565   1.878   5.985
 6964SOL     OW22788   8.120   2.043   9.760
 6964SOL    HW122789   8.087   2.117   9.709
 6964SOL    HW222790   8.041   2.004   9.799
 6965SOL     OW22791   1.047   0.771  10.834
 6965SOL    HW122792   0.956   0.773  10.806
 6965SOL    HW222793   1.044   0.733  10.922
 6966SOL     OW22794  10.350  14.019  11.262
 6966SOL    HW122795  10.345  14.081  11.190
 6966SOL    HW222796  10.363  13.934  11.220
 6967SOL     OW22797   0.203   2.078  12.046
 6967SOL    HW122798   0.175   1.993  12.013
 6967SOL    HW222799   0.282   2.060  12.097
 6968SOL     OW22800  12.361   5.095  10.801
 6968SOL    HW122801  12.345   5.004  10.777
 6968SOL    HW222802  12.415   5.130  10.730
 6969SOL     OW22803  14.494   9.388   3.090
 6969SOL    HW122804  14.527   9.298   3.104
 6969SOL    HW222805  14.497   9.428   3.177
 6970SOL     OW22806   2.821   2.037  10.486
 6970SOL    HW122807   2.908   2.025  10.448
 6970SOL    HW222808   2.797   1.951  10.521
 6971SOL     OW22809   6.487  13.571   7.961
 6971SOL    HW122810   6.576  13.572   7.926
 6971SOL    HW222811   6.468  13.478   7.975
 6972SOL     OW22812   2.891  10.799  10.385
 6972SOL    HW122813   2.931  10.757  10.309
 6972SOL    HW222814   2.799  10.773  10.381
 6973SOL     OW22815   6.157  12.706   2.233
 6973SOL    HW122816   6.105  12.786   2.248
 6973SOL    HW222817   6.184  12.712   2.142
 6974SOL     OW22818   6.465  14.706  12.460
 6974SOL    HW122819   6.552  14.675  12.486
 6974SOL    HW222820   6.470  14.716  12.365
 6975SOL     OW22821  13.924   8.333  12.578
 6975SOL    HW122822  13.853   8.360  12.520
 6975SOL    HW222823  13.983   8.282  12.521
 6976SOL     OW22824   4.292  11.698   3.877
 6976SOL    HW122825   4.382  11.722   3.854
 6976SOL    HW222826   4.301  11.622   3.934
 6977SOL     OW22827   0.783  12.302   9.680
 6977SOL    HW122828   0.698  12.263   9.699
 6977SOL    HW222829   0.768  12.397   9.685
 6978SOL     OW22830   3.657   7.978   8.636
 6978SOL    HW122831   3.674   7.978   8.542
 6978SOL    HW222832   3.638   7.887   8.658
 6979SOL     OW22833  11.126   3.691   2.447
 6979SOL    HW122834  11.168   3.617   2.403
 6979SOL    HW222835  11.194   3.725   2.505
 6980SOL     OW22836   5.233   7.172  13.739
 6980SOL    HW122837   5.199   7.256  13.707
 6980SOL    HW222838   5.155   7.117  13.747
 6981SOL     OW22839   0.163   5.191   8.024
 6981SOL    HW122840   0.185   5.105   8.060
 6981SOL    HW222841   0.147   5.175   7.932
 6982SOL     OW22842  11.773   2.447   2.865
 6982SOL    HW122843  11.749   2.354   2.867
 6982SOL    HW222844  11.700   2.491   2.907
 6983SOL     OW22845  11.131  14.460  11.476
 6983SOL    HW122846  11.053  14.500  11.437
 6983SOL    HW222847  11.171  14.411  11.404
 6984SOL     OW22848   5.344  14.472   2.054
 6984SOL    HW122849   5.435  14.480   2.026
 6984SOL    HW222850   5.314  14.390   2.014
 6985SOL     OW22851   9.277   4.921   1.585
 6985SOL    HW122852   9.184   4.921   1.609
 6985SOL    HW222853   9.278   4.895   1.493
 6986SOL     OW22854   5.300   5.701   2.949
 6986SOL    HW122855   5.371   5.760   2.973
 6986SOL    HW222856   5.276   5.658   3.032
 6987SOL     OW22857  12.797   1.895   5.806
 6987SOL    HW122858  12.702   1.881   5.798
 6987SOL    HW222859  12.828   1.897   5.716
 6988SOL     OW22860  11.114   5.648   8.341
 6988SOL    HW122861  11.091   5.741   8.335
 6988SOL    HW222862  11.207   5.648   8.365
 6989SOL     OW22863  10.114   1.998   4.670
 6989SOL    HW122864  10.118   2.093   4.684
 6989SOL    HW222865  10.064   1.965   4.745
 6990SOL     OW22866   3.225   4.703   1.645
 6990SOL    HW122867   3.164   4.770   1.675
 6990SOL    HW222868   3.175   4.651   1.583
 6991SOL     OW22869  12.895   1.605   5.178
 6991SOL    HW122870  12.891   1.517   5.141
 6991SOL    HW222871  12.922   1.661   5.105
 6992SOL     OW22872   9.838   8.330   4.596
 6992SOL    HW122873   9.748   8.322   4.566
 6992SOL    HW222874   9.833   8.387   4.674
 6993SOL     OW22875   6.389   3.732  10.194
 6993SOL    HW122876   6.432   3.665  10.247
 6993SOL    HW222877   6.452   3.804  10.190
 6994SOL     OW22878   7.445  13.584  11.686
 6994SOL    HW122879   7.467  13.675  11.664
 6994SOL    HW222880   7.433  13.585  11.781
 6995SOL     OW22881   7.962   8.494  10.630
 6995SOL    HW122882   7.934   8.542  10.709
 6995SOL    HW222883   7.886   8.441  10.607
 6996SOL     OW22884   2.488  13.429   7.962
 6996SOL    HW122885   2.439  13.453   7.883
 6996SOL    HW222886   2.421  13.404   8.025
 6997SOL     OW22887   1.810   4.078   3.951
 6997SOL    HW122888   1.743   4.012   3.935
 6997SOL    HW222889   1.774   4.159   3.913
 6998SOL     OW22890   3.941   9.012   7.115
 6998SOL    HW122891   4.024   9.006   7.161
 6998SOL    HW222892   3.912   8.921   7.106
 6999SOL     OW22893   7.661   6.855   4.180
 6999SOL    HW122894   7.593   6.788   4.185
 6999SOL    HW222895   7.732   6.821   4.235
 7000SOL     OW22896   0.488  10.230  11.912
 7000SOL    HW122897   0.405  10.273  11.932
 7000SOL    HW222898   0.504  10.249  11.819
 7001SOL     OW22899   7.019  13.945   6.645
 7001SOL    HW122900   6.938  13.975   6.604
 7001SOL    HW222901   7.036  14.010   6.714
 7002SOL     OW22902  12.449   3.975   3.904
 7002SOL    HW122903  12.457   3.980   3.999
 7002SOL    HW222904  12.354   3.973   3.888
 7003SOL     OW22905   9.862   3.965  10.566
 7003SOL    HW122906   9.918   3.965  10.488
 7003SOL    HW222907   9.898   4.035  10.621
 7004SOL     OW22908  10.661   4.418   8.255
 7004SOL    HW122909  10.577   4.373   8.270
 7004SOL    HW222910  10.721   4.375   8.316
 7005SOL     OW22911   9.268  12.589   9.134
 7005SOL    HW122912   9.215  12.518   9.097
 7005SOL    HW222913   9.344  12.545   9.172
 7006SOL     OW22914   7.458   2.927   8.094
 7006SOL    HW122915   7.468   2.835   8.072
 7006SOL    HW222916   7.542   2.967   8.073
 7007SOL     OW22917   3.112   2.963  12.689
 7007SOL    HW122918   3.159   3.005  12.617
 7007SOL    HW222919   3.172   2.894  12.719
 7008SOL     OW22920  10.885   4.535  10.686
 7008SOL    HW122921  10.969   4.576  10.666
 7008SOL    HW222922  10.833   4.605  10.724
 7009SOL     OW22923  12.113  13.885  13.916
 7009SOL    HW122924  12.197  13.915  13.953
 7009SOL    HW222925  12.095  13.947  13.846
 7010SOL     OW22926   5.758   0.420  12.566
 7010SOL    HW122927   5.723   0.509  12.566
 7010SOL    HW222928   5.747   0.390  12.475
 7011SOL     OW22929   5.755  12.586  11.840
 7011SOL    HW122930   5.846  12.616  11.844
 7011SOL    HW222931   5.703  12.665  11.856
 7012SOL     OW22932   8.049  13.843  10.584
 7012SOL    HW122933   8.072  13.755  10.612
 7012SOL    HW222934   7.992  13.877  10.653
 7013SOL     OW22935   1.350  13.650   8.665
 7013SOL    HW122936   1.331  13.606   8.748
 7013SOL    HW222937   1.270  13.640   8.613
 7014SOL     OW22938   7.793  13.647   6.591
 7014SOL    HW122939   7.866  13.693   6.633
 7014SOL    HW222940   7.718  13.705   6.603
 7015SOL     OW22941   8.724   8.560  12.477
 7015SOL    HW122942   8.730   8.618  12.401
 7015SOL    HW222943   8.646   8.589  12.524
 7016SOL     OW22944  11.038   4.728   8.746
 7016SOL    HW122945  11.021   4.817   8.714
 7016SOL    HW222946  11.077   4.683   8.671
 7017SOL     OW22947   3.173   5.250   8.430
 7017SOL    HW122948   3.237   5.187   8.461
 7017SOL    HW222949   3.161   5.229   8.337
 7018SOL     OW22950   0.818   8.990  12.473
 7018SOL    HW122951   0.755   8.919  12.459
 7018SOL    HW222952   0.903   8.946  12.471
 7019SOL     OW22953   7.891   8.592   4.896
 7019SOL    HW122954   7.914   8.546   4.816
 7019SOL    HW222955   7.909   8.684   4.877
 7020SOL     OW22956   6.723  10.823  12.133
 7020SOL    HW122957   6.734  10.901  12.187
 7020SOL    HW222958   6.706  10.752  12.195
 7021SOL     OW22959   9.554   4.689   0.678
 7021SOL    HW122960   9.560   4.643   0.762
 7021SOL    HW222961   9.463   4.676   0.650
 7022SOL     OW22962  12.373   5.038   2.991
 7022SOL    HW122963  12.401   4.956   3.032
 7022SOL    HW222964  12.305   5.072   3.049
 7023SOL     OW22965   8.419   6.210  13.070
 7023SOL    HW122966   8.352   6.273  13.042
 7023SOL    HW222967   8.477   6.260  13.126
 7024SOL     OW22968  12.105   6.934  13.020
 7024SOL    HW122969  12.105   6.875  12.945
 7024SOL    HW222970  12.059   7.012  12.989
 7025SOL     OW22971   8.908  10.163   9.367
 7025SOL    HW122972   8.960  10.243   9.371
 7025SOL    HW222973   8.946  10.112   9.295
 7026SOL     OW22974  10.305   5.213  11.387
 7026SOL    HW122975  10.363   5.257  11.324
 7026SOL    HW222976  10.284   5.281  11.452
 7027SOL     OW22977   6.558   5.242   4.710
 7027SOL    HW122978   6.534   5.238   4.618
 7027SOL    HW222979   6.639   5.191   4.716
 7028SOL     OW22980   3.538  13.898   6.264
 7028SOL    HW122981   3.576  13.820   6.223
 7028SOL    HW222982   3.462  13.867   6.311
 7029SOL     OW22983   4.575   1.090  13.928
 7029SOL    HW122984   4.571   1.128  13.840
 7029SOL    HW222985   4.577   1.165  13.987
 7030SOL     OW22986   1.894   4.734   3.079
 7030SOL    HW122987   1.896   4.639   3.067
 7030SOL    HW222988   1.906   4.770   2.991
 7031SOL     OW22989   3.291  11.070  11.102
 7031SOL    HW122990   3.244  11.139  11.148
 7031SOL    HW222991   3.325  11.013  11.172
 7032SOL     OW22992   3.881   7.797  13.214
 7032SOL    HW122993   3.864   7.814  13.306
 7032SOL    HW222994   3.841   7.872  13.169
 7033SOL     OW22995   3.482   0.504   3.122
 7033SOL    HW122996   3.489   0.423   3.071
 7033SOL    HW222997   3.435   0.478   3.201
 7034SOL     OW22998  10.430   7.756   0.929
 7034SOL    HW122999  10.420   7.788   0.839
 7034SOL    HW223000  10.462   7.832   0.978
 7035SOL     OW23001   2.677   6.508   5.758
 7035SOL    HW123002   2.659   6.568   5.831
 7035SOL    HW223003   2.739   6.444   5.794
 7036SOL     OW23004  11.824   6.462  10.564
 7036SOL    HW123005  11.810   6.379  10.610
 7036SOL    HW223006  11.744   6.474  10.513
 7037SOL     OW23007  11.440  14.499   2.613
 7037SOL    HW123008  11.385  14.501   2.691
 7037SOL    HW223009  11.529  14.489   2.646
 7038SOL     OW23010   1.298  14.742   9.404
 7038SOL    HW123011   1.208  14.712   9.420
 7038SOL    HW223012   1.300  14.831   9.440
 7039SOL     OW23013   9.175   4.329  14.542
 7039SOL    HW123014   9.149   4.418  14.565
 7039SOL    HW223015   9.131   4.273  14.606
 7040SOL     OW23016  12.189   3.933   3.811
 7040SOL    HW123017  12.137   3.991   3.867
 7040SOL    HW223018  12.218   3.863   3.869
 7041SOL     OW23019   3.327   7.916  11.222
 7041SOL    HW123020   3.288   7.999  11.194
 7041SOL    HW223021   3.393   7.941  11.286
 7042SOL     OW23022   0.275  14.837  11.069
 7042SOL    HW123023   0.222  14.813  10.993
 7042SOL    HW223024   0.212  14.866  11.134
 7043SOL     OW23025   5.640  13.024   9.528
 7043SOL    HW123026   5.644  13.118   9.547
 7043SOL    HW223027   5.717  12.988   9.572
 7044SOL     OW23028   3.518   5.652   5.303
 7044SOL    HW123029   3.548   5.743   5.314
 7044SOL    HW223030   3.462   5.655   5.225
 7045SOL     OW23031  14.197   1.962   9.567
 7045SOL    HW123032  14.204   2.056   9.583
 7045SOL    HW223033  14.233   1.922   9.647
 7046SOL     OW23034   7.909  14.293  12.059
 7046SOL    HW123035   7.913  14.384  12.086
 7046SOL    HW223036   7.999  14.271  12.034
 7047SOL     OW23037   6.226   8.953  13.893
 7047SOL    HW123038   6.272   8.918  13.970
 7047SOL    HW223039   6.294   8.965  13.828
 7048SOL     OW23040  12.562   5.038   9.028
 7048SOL    HW123041  12.549   5.132   9.038
 7048SOL    HW223042  12.478   5.005   8.998
 7049SOL     OW23043   9.948  12.980   9.940
 7049SOL    HW123044   9.923  12.888   9.935
 7049SOL    HW223045   9.982  13.001   9.853
 7050SOL     OW23046   1.637   0.211   9.290
 7050SOL    HW123047   1.686   0.271   9.347
 7050SOL    HW223048   1.548   0.244   9.291
 7051SOL     OW23049  13.865  11.659   2.876
 7051SOL    HW123050  13.783  11.683   2.918
 7051SOL    HW223051  13.915  11.741   2.872
 7052SOL     OW23052  11.846  12.788  10.676
 7052SOL    HW123053  11.786  12.716  10.659
 7052SOL    HW223054  11.795  12.850  10.727
 7053SOL     OW23055   4.292   7.599   1.375
 7053SOL    HW123056   4.208   7.561   1.350
 7053SOL    HW223057   4.358   7.543   1.333
 7054SOL     OW23058   4.581   9.932  14.643
 7054SOL    HW123059   4.632   9.952  14.721
 7054SOL    HW223060   4.598  10.006  14.584
 7055SOL     OW23061  10.009   2.983   7.195
 7055SOL    HW123062   9.921   3.020   7.188
 7055SOL    HW223063  10.057   3.046   7.249
 7056SOL     OW23064   7.538   2.349   5.562
 7056SOL    HW123065   7.619   2.398   5.575
 7056SOL    HW223066   7.496   2.393   5.487
 7057SOL     OW23067   6.921  10.021   6.374
 7057SOL    HW123068   6.951   9.968   6.449
 7057SOL    HW223069   6.915   9.958   6.302
 7058SOL     OW23070  11.638  11.526   7.127
 7058SOL    HW123071  11.604  11.514   7.216
 7058SOL    HW223072  11.686  11.609   7.131
 7059SOL     OW23073   7.914  14.185   6.284
 7059SOL    HW123074   7.872  14.198   6.199
 7059SOL    HW223075   7.868  14.245   6.342
 7060SOL     OW23076   0.850  13.017  12.550
 7060SOL    HW123077   0.847  13.111  12.567
 7060SOL    HW223078   0.942  12.994  12.561
 7061SOL     OW23079   8.259   6.308   0.859
 7061SOL    HW123080   8.253   6.321   0.953
 7061SOL    HW223081   8.172   6.275   0.834
 7062SOL     OW23082   8.998  14.572   5.506
 7062SOL    HW123083   9.005  14.531   5.420
 7062SOL    HW223084   8.921  14.628   5.500
 7063SOL     OW23085   5.751   7.590   8.460
 7063SOL    HW123086   5.687   7.523   8.437
 7063SOL    HW223087   5.780   7.565   8.548
 7064SOL     OW23088   8.638   1.273   5.533
 7064SOL    HW123089   8.609   1.337   5.469
 7064SOL    HW223090   8.577   1.200   5.524
 7065SOL     OW23091  13.275   2.952   4.468
 7065SOL    HW123092  13.231   2.867   4.467
 7065SOL    HW223093  13.268   2.985   4.379
 7066SOL     OW23094   7.200   6.648   6.081
 7066SOL    HW123095   7.288   6.622   6.109
 7066SOL    HW223096   7.144   6.625   6.155
 7067SOL     OW23097   2.460   5.025  10.459
 7067SOL    HW123098   2.513   5.007  10.381
 7067SOL    HW223099   2.510   5.092  10.506
 7068SOL     OW23100   0.736  12.763   3.758
 7068SOL    HW123101   0.750  12.687   3.702
 7068SOL    HW223102   0.649  12.794   3.735
 7069SOL     OW23103  13.480   5.753  13.146
 7069SOL    HW123104  13.485   5.757  13.242
 7069SOL    HW223105  13.561   5.709  13.120
 7070SOL     OW23106  14.826  13.399   8.314
 7070SOL    HW123107  14.802  13.349   8.236
 7070SOL    HW223108   0.028  13.356   8.347
 7071SOL     OW23109   7.816  13.057  11.683
 7071SOL    HW123110   7.862  12.973  11.687
 7071SOL    HW223111   7.726  13.035  11.658
 7072SOL     OW23112  12.656   9.508  11.185
 7072SOL    HW123113  12.744   9.469  11.188
 7072SOL    HW223114  12.659   9.578  11.250
 7073SOL     OW23115   3.448   1.023   7.026
 7073SOL    HW123116   3.531   0.980   7.006
 7073SOL    HW223117   3.434   1.006   7.119
 7074SOL     OW23118   1.836  11.817  10.318
 7074SOL    HW123119   1.924  11.795  10.288
 7074SOL    HW223120   1.845  11.904  10.356
 7075SOL     OW23121   5.192  11.114  13.422
 7075SOL    HW123122   5.166  11.188  13.368
 7075SOL    HW223123   5.121  11.105  13.486
 7076SOL     OW23124   3.005  14.270  10.303
 7076SOL    HW123125   3.010  14.358  10.266
 7076SOL    HW223126   3.091  14.232  10.286
 7077SOL     OW23127   5.661   2.538   9.696
 7077SOL    HW123128   5.675   2.600   9.767
 7077SOL    HW223129   5.735   2.478   9.701
 7078SOL     OW23130   4.069   7.417   9.584
 7078SOL    HW123131   3.991   7.453   9.542
 7078SOL    HW223132   4.134   7.486   9.576
 7079SOL     OW23133   7.145  14.868  14.272
 7079SOL    HW123134   7.166  14.775  14.277
 7079SOL    HW223135   7.136   0.009  14.179
 7080SOL     OW23136   8.885  14.480   8.931
 7080SOL    HW123137   8.898  14.495   9.025
 7080SOL    HW223138   8.846  14.562   8.899
 7081SOL     OW23139  14.023  10.920   4.932
 7081SOL    HW123140  13.951  10.857   4.927
 7081SOL    HW223141  14.101  10.869   4.913
 7082SOL     OW23142  13.282  10.365   5.837
 7082SOL    HW123143  13.335  10.444   5.825
 7082SOL    HW223144  13.299  10.313   5.758
 7083SOL     OW23145  14.086  14.408   7.821
 7083SOL    HW123146  14.044  14.374   7.741
 7083SOL    HW223147  14.166  14.449   7.789
 7084SOL     OW23148   0.457   2.011  12.136
 7084SOL    HW123149   0.481   1.921  12.115
 7084SOL    HW223150   0.531   2.045  12.186
 7085SOL     OW23151   1.729   2.828  10.658
 7085SOL    HW123152   1.650   2.786  10.694
 7085SOL    HW223153   1.772   2.865  10.735
 7086SOL     OW23154   0.873   1.788   1.840
 7086SOL    HW123155   0.897   1.880   1.834
 7086SOL    HW223156   0.902   1.750   1.757
 7087SOL     OW23157   8.922   3.412   4.015
 7087SOL    HW123158   8.904   3.504   3.995
 7087SOL    HW223159   8.837   3.369   4.008
 7088SOL     OW23160  11.483   2.462  14.685
 7088SOL    HW123161  11.452   2.435  14.772
 7088SOL    HW223162  11.404   2.469  14.632
 7089SOL     OW23163   6.679   2.789  14.501
 7089SOL    HW123164   6.657   2.866  14.554
 7089SOL    HW223165   6.635   2.716  14.546
 7090SOL     OW23166   2.702   6.706   1.402
 7090SOL    HW123167   2.665   6.794   1.391
 7090SOL    HW223168   2.784   6.721   1.449
 7091SOL     OW23169   6.000  14.641  11.478
 7091SOL    HW123170   6.073  14.601  11.526
 7091SOL    HW223171   5.944  14.567  11.455
 7092SOL     OW23172  13.977  12.620   5.857
 7092SOL    HW123173  14.049  12.671   5.819
 7092SOL    HW223174  14.016  12.576   5.932
 7093SOL     OW23175   8.244  14.179  14.093
 7093SOL    HW123176   8.308  14.132  14.039
 7093SOL    HW223177   8.177  14.113  14.113
 7094SOL     OW23178  12.502  11.147  13.274
 7094SOL    HW123179  12.507  11.242  13.287
 7094SOL    HW223180  12.593  11.117  13.285
 7095SOL     OW23181  12.259   9.578   3.275
 7095SOL    HW123182  12.280   9.488   3.249
 7095SOL    HW223183  12.338   9.610   3.318
 7096SOL     OW23184  11.559   3.147   9.396
 7096SOL    HW123185  11.507   3.074   9.430
 7096SOL    HW223186  11.603   3.110   9.319
 7097SOL     OW23187  11.690   0.328   8.403
 7097SOL    HW123188  11.752   0.390   8.365
 7097SOL    HW223189  11.743   0.252   8.426
 7098SOL     OW23190   7.203  10.534   9.386
 7098SOL    HW123191   7.140  10.467   9.413
 7098SOL    HW223192   7.260  10.490   9.323
 7099SOL     OW23193   6.860   0.178  14.156
 7099SOL    HW123194   6.865   0.086  14.132
 7099SOL    HW223195   6.931   0.190  14.220
 7100SOL     OW23196   6.980  14.061   7.051
 7100SOL    HW123197   6.938  14.095   6.972
 7100SOL    HW223198   6.927  13.985   7.077
 7101SOL     OW23199   8.764   1.781   5.352
 7101SOL    HW123200   8.714   1.713   5.398
 7101SOL    HW223201   8.725   1.863   5.380
 7102SOL     OW23202   1.305   2.447   6.186
 7102SOL    HW123203   1.356   2.366   6.187
 7102SOL    HW223204   1.240   2.433   6.116
 7103SOL     OW23205  13.789  12.248   1.988
 7103SOL    HW123206  13.772  12.310   1.917
 7103SOL    HW223207  13.850  12.293   2.046
 7104SOL     OW23208  14.380   6.384  14.491
 7104SOL    HW123209  14.448   6.437  14.532
 7104SOL    HW223210  14.321   6.448  14.451
 7105SOL     OW23211   8.994  14.652  13.542
 7105SOL    HW123212   9.052  14.619  13.611
 7105SOL    HW223213   9.011  14.595  13.467
 7106SOL     OW23214   2.669  14.451  11.833
 7106SOL    HW123215   2.741  14.414  11.782
 7106SOL    HW223216   2.623  14.508  11.771
 7107SOL     OW23217  13.658   7.846   6.250
 7107SOL    HW123218  13.680   7.753   6.246
 7107SOL    HW223219  13.564   7.848   6.267
 7108SOL     OW23220   9.370  10.549  13.189
 7108SOL    HW123221   9.365  10.472  13.133
 7108SOL    HW223222   9.280  10.579  13.196
 7109SOL     OW23223   9.142   8.919  13.668
 7109SOL    HW123224   9.211   8.854  13.684
 7109SOL    HW223225   9.156   8.947  13.577
 7110SOL     OW23226  10.054   2.630   1.387
 7110SOL    HW123227  10.119   2.595   1.448
 7110SOL    HW223228  10.088   2.607   1.300
 7111SOL     OW23229   8.489   2.017   9.551
 7111SOL    HW123230   8.460   1.958   9.481
 7111SOL    HW223231   8.442   2.099   9.533
 7112SOL     OW23232   0.214  11.884  12.926
 7112SOL    HW123233   0.125  11.851  12.911
 7112SOL    HW223234   0.206  11.940  13.003
 7113SOL     OW23235   7.490  12.392   8.321
 7113SOL    HW123236   7.410  12.342   8.303
 7113SOL    HW223237   7.503  12.445   8.243
 7114SOL     OW23238   8.730   4.794  11.040
 7114SOL    HW123239   8.693   4.771  10.955
 7114SOL    HW223240   8.763   4.712  11.075
 7115SOL     OW23241   1.926  14.416   3.897
 7115SOL    HW123242   1.953  14.351   3.831
 7115SOL    HW223243   1.956  14.379   3.980
 7116SOL     OW23244   3.165   6.962   8.924
 7116SOL    HW123245   3.172   6.912   9.006
 7116SOL    HW223246   3.246   6.940   8.877
 7117SOL     OW23247   7.037   7.167   0.874
 7117SOL    HW123248   7.011   7.078   0.853
 7117SOL    HW223249   6.958   7.207   0.911
 7118SOL     OW23250   0.987  12.082   6.634
 7118SOL    HW123251   0.938  12.001   6.619
 7118SOL    HW223252   0.988  12.125   6.548
 7119SOL     OW23253  14.875  12.853  10.995
 7119SOL    HW123254   0.051  12.854  11.075
 7119SOL    HW223255  14.874  12.761  10.969
 7120SOL     OW23256   3.518   8.863   3.627
 7120SOL    HW123257   3.480   8.936   3.580
 7120SOL    HW223258   3.519   8.891   3.719
 7121SOL     OW23259   1.583   1.952   4.993
 7121SOL    HW123260   1.633   1.970   4.914
 7121SOL    HW223261   1.623   1.874   5.030
 7122SOL     OW23262   4.131   0.467   4.859
 7122SOL    HW123263   4.218   0.461   4.899
 7122SOL    HW223264   4.076   0.413   4.916
 7123SOL     OW23265   6.346  10.672  12.439
 7123SOL    HW123266   6.393  10.591  12.423
 7123SOL    HW223267   6.411  10.732  12.476
 7124SOL     OW23268   4.074  13.996  11.084
 7124SOL    HW123269   4.146  14.052  11.112
 7124SOL    HW223270   4.005  14.012  11.148
 7125SOL     OW23271  11.986  10.567   0.966
 7125SOL    HW123272  11.981  10.482   1.009
 7125SOL    HW223273  11.979  10.631   1.037
 7126SOL     OW23274   7.215  14.414   3.903
 7126SOL    HW123275   7.142  14.368   3.944
 7126SOL    HW223276   7.292  14.387   3.954
 7127SOL     OW23277   5.755   4.332   4.678
 7127SOL    HW123278   5.777   4.394   4.748
 7127SOL    HW223279   5.741   4.249   4.725
 7128SOL     OW23280  13.890   9.574   6.410
 7128SOL    HW123281  13.939   9.598   6.331
 7128SOL    HW223282  13.955   9.529   6.464
 7129SOL     OW23283  10.576  10.192   3.111
 7129SOL    HW123284  10.578  10.108   3.157
 7129SOL    HW223285  10.620  10.253   3.170
 7130SOL     OW23286  12.479   2.035   0.327
 7130SOL    HW123287  12.493   2.128   0.343
 7130SOL    HW223288  12.491   2.025   0.233
 7131SOL     OW23289  11.358  13.916  11.359
 7131SOL    HW123290  11.293  13.929  11.429
 7131SOL    HW223291  11.409  13.841  11.387
 7132SOL     OW23292   3.986  10.132   1.714
 7132SOL    HW123293   4.023  10.050   1.747
 7132SOL    HW223294   4.056  10.197   1.728
 7133SOL     OW23295   3.862   6.522  11.484
 7133SOL    HW123296   3.811   6.441  11.474
 7133SOL    HW223297   3.938   6.510  11.428
 7134SOL     OW23298   7.091   0.516  12.258
 7134SOL    HW123299   7.116   0.499  12.167
 7134SOL    HW223300   7.158   0.576  12.291
 7135SOL     OW23301  11.199   9.235   5.735
 7135SOL    HW123302  11.277   9.243   5.680
 7135SOL    HW223303  11.139   9.181   5.683
 7136SOL     OW23304   1.898   8.791   4.171
 7136SOL    HW123305   1.819   8.781   4.118
 7136SOL    HW223306   1.881   8.740   4.250
 7137SOL     OW23307  12.744   9.196   7.896
 7137SOL    HW123308  12.786   9.208   7.811
 7137SOL    HW223309  12.667   9.253   7.893
 7138SOL     OW23310   5.697  13.370  11.454
 7138SOL    HW123311   5.615  13.323  11.462
 7138SOL    HW223312   5.762  13.313  11.495
 7139SOL     OW23313   0.774   1.600  12.154
 7139SOL    HW123314   0.782   1.623  12.246
 7139SOL    HW223315   0.685   1.566  12.145
 7140SOL     OW23316   1.897   7.917  11.711
 7140SOL    HW123317   1.917   7.855  11.641
 7140SOL    HW223318   1.979   7.962  11.728
 7141SOL     OW23319   7.097   9.486  13.710
 7141SOL    HW123320   7.049   9.438  13.642
 7141SOL    HW223321   7.152   9.419  13.751
 7142SOL     OW23322   5.674   9.442  14.405
 7142SOL    HW123323   5.732   9.503  14.451
 7142SOL    HW223324   5.588   9.456  14.444
 7143SOL     OW23325   4.687  14.402   0.659
 7143SOL    HW123326   4.673  14.417   0.752
 7143SOL    HW223327   4.610  14.353   0.631
 7144SOL     OW23328   5.741   6.473  14.424
 7144SOL    HW123329   5.684   6.541  14.460
 7144SOL    HW223330   5.744   6.491  14.330
 7145SOL     OW23331  10.344   2.574   6.979
 7145SOL    HW123332  10.288   2.513   6.931
 7145SOL    HW223333  10.291   2.654   6.986
 7146SOL     OW23334  11.960   6.033  14.662
 7146SOL    HW123335  11.864   6.037  14.667
 7146SOL    HW223336  11.983   6.096  14.594
 7147SOL     OW23337   4.022  13.930   5.670
 7147SOL    HW123338   4.054  13.908   5.582
 7147SOL    HW223339   4.069  13.870   5.728
 7148SOL     OW23340  13.069   6.207  13.384
 7148SOL    HW123341  12.986   6.194  13.338
 7148SOL    HW223342  13.119   6.127  13.366
 7149SOL     OW23343   4.717   6.047   0.506
 7149SOL    HW123344   4.650   6.039   0.575
 7149SOL    HW223345   4.794   6.002   0.542
 7150SOL     OW23346  11.480   5.970   7.663
 7150SOL    HW123347  11.436   5.920   7.594
 7150SOL    HW223348  11.454   6.060   7.648
 7151SOL     OW23349   8.616  11.000   4.378
 7151SOL    HW123350   8.691  11.056   4.355
 7151SOL    HW223351   8.635  10.970   4.467
 7152SOL     OW23352   6.988   9.379  13.171
 7152SOL    HW123353   7.029   9.295  13.151
 7152SOL    HW223354   6.963   9.415  13.086
 7153SOL     OW23355   2.277   9.587   8.676
 7153SOL    HW123356   2.228   9.518   8.719
 7153SOL    HW223357   2.300   9.550   8.590
 7154SOL     OW23358  11.505   3.021  14.283
 7154SOL    HW123359  11.454   2.958  14.232
 7154SOL    HW223360  11.526   3.090  14.220
 7155SOL     OW23361   7.311   5.482   9.630
 7155SOL    HW123362   7.369   5.440   9.567
 7155SOL    HW223363   7.309   5.574   9.603
 7156SOL     OW23364   1.496   1.581   4.498
 7156SOL    HW123365   1.422   1.558   4.442
 7156SOL    HW223366   1.560   1.510   4.485
 7157SOL     OW23367   5.229   9.373   7.082
 7157SOL    HW123368   5.295   9.441   7.071
 7157SOL    HW223369   5.209   9.374   7.176
 7158SOL     OW23370   8.684   9.883  13.388
 7158SOL    HW123371   8.616   9.950  13.400
 7158SOL    HW223372   8.730   9.881  13.471
 7159SOL     OW23373  10.658   5.887   0.396
 7159SOL    HW123374  10.629   5.798   0.413
 7159SOL    HW223375  10.577   5.938   0.390
 7160SOL     OW23376   4.036   3.658   7.601
 7160SOL    HW123377   4.039   3.713   7.523
 7160SOL    HW223378   3.955   3.684   7.646
 7161SOL     OW23379   6.982   6.624  13.738
 7161SOL    HW123380   6.894   6.625  13.776
 7161SOL    HW223381   7.023   6.545  13.774
 7162SOL     OW23382  13.721   1.565   0.172
 7162SOL    HW123383  13.804   1.579   0.218
 7162SOL    HW223384  13.733   1.483   0.125
 7163SOL     OW23385  12.490   7.045   5.508
 7163SOL    HW123386  12.454   7.131   5.527
 7163SOL    HW223387  12.582   7.051   5.532
 7164SOL     OW23388   9.473  10.610  11.498
 7164SOL    HW123389   9.436  10.538  11.448
 7164SOL    HW223390   9.409  10.627  11.568
 7165SOL     OW23391  10.462   8.446  10.718
 7165SOL    HW123392  10.443   8.504  10.792
 7165SOL    HW223393  10.556   8.454  10.704
 7166SOL     OW23394   1.758   0.703   2.841
 7166SOL    HW123395   1.814   0.625   2.833
 7166SOL    HW223396   1.754   0.738   2.752
 7167SOL     OW23397   3.719  12.266   1.733
 7167SOL    HW123398   3.657  12.194   1.744
 7167SOL    HW223399   3.691  12.332   1.796
 7168SOL     OW23400  12.510  12.275   8.822
 7168SOL    HW123401  12.483  12.315   8.905
 7168SOL    HW223402  12.461  12.192   8.819
 7169SOL     OW23403   4.252   4.102  12.817
 7169SOL    HW123404   4.309   4.149  12.879
 7169SOL    HW223405   4.313   4.061  12.756
 7170SOL     OW23406   4.708  14.637   5.387
 7170SOL    HW123407   4.614  14.629   5.372
 7170SOL    HW223408   4.717  14.651   5.481
 7171SOL     OW23409  11.147  14.090   0.163
 7171SOL    HW123410  11.105  14.038   0.231
 7171SOL    HW223411  11.219  14.134   0.208
 7172SOL     OW23412  14.110   5.108  12.338
 7172SOL    HW123413  14.145   5.171  12.276
 7172SOL    HW223414  14.016   5.127  12.342
 7173SOL     OW23415   9.477  10.058  10.339
 7173SOL    HW123416   9.426  10.039  10.261
 7173SOL    HW223417   9.449  10.146  10.366
 7174SOL     OW23418  12.253  12.471   6.375
 7174SOL    HW123419  12.333  12.480   6.426
 7174SOL    HW223420  12.279  12.494   6.286
 7175SOL     OW23421  12.961   5.622   5.661
 7175SOL    HW123422  12.969   5.541   5.611
 7175SOL    HW223423  12.911   5.598   5.739
 7176SOL     OW23424  12.736   2.892  14.528
 7176SOL    HW123425  12.649   2.852  14.534
 7176SOL    HW223426  12.786   2.833  14.472
 7177SOL     OW23427  14.704   5.964   1.423
 7177SOL    HW123428  14.689   5.999   1.511
 7177SOL    HW223429  14.770   6.022   1.386
 7178SOL     OW23430  11.930   5.784  12.652
 7178SOL    HW123431  11.891   5.761  12.736
 7178SOL    HW223432  11.954   5.876  12.662
 7179SOL     OW23433   2.890   0.435  11.011
 7179SOL    HW123434   2.811   0.391  11.042
 7179SOL    HW223435   2.937   0.460  11.090
 7180SOL     OW23436   7.902  14.211   4.882
 7180SOL    HW123437   7.917  14.189   4.974
 7180SOL    HW223438   7.935  14.136   4.833
 7181SOL     OW23439   8.967   3.692  12.427
 7181SOL    HW123440   8.932   3.628  12.365
 7181SOL    HW223441   9.008   3.639  12.496
 7182SOL     OW23442   8.736   2.371  11.045
 7182SOL    HW123443   8.832   2.379  11.048
 7182SOL    HW223444   8.708   2.447  10.994
 7183SOL     OW23445   6.696   4.874   8.960
 7183SOL    HW123446   6.688   4.904   9.051
 7183SOL    HW223447   6.790   4.865   8.946
 7184SOL     OW23448  12.046   9.265  10.503
 7184SOL    HW123449  12.132   9.271  10.460
 7184SOL    HW223450  11.994   9.334  10.461
 7185SOL     OW23451  13.422  11.146  11.927
 7185SOL    HW123452  13.447  11.229  11.888
 7185SOL    HW223453  13.466  11.080  11.873
 7186SOL     OW23454  12.706   6.417   1.480
 7186SOL    HW123455  12.693   6.415   1.385
 7186SOL    HW223456  12.791   6.461   1.492
 7187SOL     OW23457   7.137  13.624   3.563
 7187SOL    HW123458   7.157  13.716   3.582
 7187SOL    HW223459   7.058  13.627   3.510
 7188SOL     OW23460   1.903   1.061   5.454
 7188SOL    HW123461   1.915   1.083   5.362
 7188SOL    HW223462   1.819   1.017   5.458
 7189SOL     OW23463   3.139  11.039  14.284
 7189SOL    HW123464   3.185  11.012  14.363
 7189SOL    HW223465   3.100  11.123  14.308
 7190SOL     OW23466   7.563   3.149   8.885
 7190SOL    HW123467   7.554   3.133   8.791
 7190SOL    HW223468   7.552   3.063   8.926
 7191SOL     OW23469   9.128   7.456   4.115
 7191SOL    HW123470   9.040   7.493   4.117
 7191SOL    HW223471   9.117   7.365   4.142
 7192SOL     OW23472  13.447  13.457  13.510
 7192SOL    HW123473  13.499  13.379  13.535
 7192SOL    HW223474  13.417  13.439  13.421
 7193SOL     OW23475   0.184  12.032   8.207
 7193SOL    HW123476   0.114  12.016   8.270
 7193SOL    HW223477   0.184  11.955   8.150
 7194SOL     OW23478  11.465  10.069   3.955
 7194SOL    HW123479  11.473  10.164   3.958
 7194SOL    HW223480  11.395  10.053   3.891
 7195SOL     OW23481   0.125   7.320   9.545
 7195SOL    HW123482   0.215   7.329   9.575
 7195SOL    HW223483   0.088   7.251   9.602
 7196SOL     OW23484   1.135  13.397  12.891
 7196SOL    HW123485   1.164  13.488  12.885
 7196SOL    HW223486   1.042  13.400  12.866
 7197SOL     OW23487   3.983   3.532   2.630
 7197SOL    HW123488   3.914   3.468   2.648
 7197SOL    HW223489   4.064   3.485   2.649
 7198SOL     OW23490   6.485   0.578   1.698
 7198SOL    HW123491   6.578   0.602   1.690
 7198SOL    HW223492   6.472   0.564   1.791
 7199SOL     OW23493  13.360  12.330   8.939
 7199SOL    HW123494  13.266  12.341   8.922
 7199SOL    HW223495  13.379  12.395   9.007
 7200SOL     OW23496   4.502   2.852  13.320
 7200SOL    HW123497   4.582   2.902  13.336
 7200SOL    HW223498   4.449   2.867  13.398
 7201SOL     OW23499  13.372  11.481  14.771
 7201SOL    HW123500  13.391  11.574  14.757
 7201SOL    HW223501  13.286  11.467  14.731
 7202SOL     OW23502   9.450   3.286   8.239
 7202SOL    HW123503   9.469   3.303   8.147
 7202SOL    HW223504   9.412   3.198   8.240
 7203SOL     OW23505   0.456  12.072   4.623
 7203SOL    HW123506   0.447  12.057   4.529
 7203SOL    HW223507   0.546  12.048   4.643
 7204SOL     OW23508  11.925   9.698   1.392
 7204SOL    HW123509  11.907   9.791   1.395
 7204SOL    HW223510  12.015   9.692   1.361
 7205SOL     OW23511  10.353   5.585   2.351
 7205SOL    HW123512  10.370   5.495   2.324
 7205SOL    HW223513  10.283   5.577   2.415
 7206SOL     OW23514   2.781  12.179   5.046
 7206SOL    HW123515   2.846  12.206   4.982
 7206SOL    HW223516   2.799  12.086   5.061
 7207SOL     OW23517  10.220  12.358   1.036
 7207SOL    HW123518  10.226  12.315   0.950
 7207SOL    HW223519  10.145  12.317   1.078
 7208SOL     OW23520   6.852   2.401  11.008
 7208SOL    HW123521   6.909   2.446  10.946
 7208SOL    HW223522   6.841   2.313  10.971
 7209SOL     OW23523   3.970  10.869  10.909
 7209SOL    HW123524   3.912  10.897  10.838
 7209SOL    HW223525   4.011  10.950  10.939
 7210SOL     OW23526  13.025   4.929   7.368
 7210SOL    HW123527  13.088   4.956   7.435
 7210SOL    HW223528  12.987   4.848   7.402
 7211SOL     OW23529   4.384  13.697   9.582
 7211SOL    HW123530   4.402  13.604   9.590
 7211SOL    HW223531   4.305  13.702   9.528
 7212SOL     OW23532   2.395   3.850  10.618
 7212SOL    HW123533   2.341   3.920  10.655
 7212SOL    HW223534   2.483   3.867  10.653
 7213SOL     OW23535  11.090   0.886   7.756
 7213SOL    HW123536  11.170   0.848   7.721
 7213SOL    HW223537  11.029   0.812   7.763
 7214SOL     OW23538   7.007   4.857   4.884
 7214SOL    HW123539   7.027   4.774   4.841
 7214SOL    HW223540   6.992   4.919   4.813
 7215SOL     OW23541   4.588   1.222   7.090
 7215SOL    HW123542   4.543   1.215   7.005
 7215SOL    HW223543   4.669   1.269   7.070
 7216SOL     OW23544   8.683   3.760  13.257
 7216SOL    HW123545   8.651   3.687  13.205
 7216SOL    HW223546   8.713   3.824  13.193
 7217SOL     OW23547   5.636   2.722   7.419
 7217SOL    HW123548   5.552   2.713   7.374
 7217SOL    HW223549   5.622   2.793   7.481
 7218SOL     OW23550   4.381   4.318  11.389
 7218SOL    HW123551   4.320   4.374  11.341
 7218SOL    HW223552   4.449   4.377  11.420
 7219SOL     OW23553   6.247  13.694   6.365
 7219SOL    HW123554   6.233  13.606   6.399
 7219SOL    HW223555   6.319  13.684   6.303
 7220SOL     OW23556  12.851   9.838   6.546
 7220SOL    HW123557  12.908   9.762   6.562
 7220SOL    HW223558  12.907   9.914   6.560
 7221SOL     OW23559   0.863  13.374   8.255
 7221SOL    HW123560   0.841  13.289   8.219
 7221SOL    HW223561   0.947  13.397   8.215
 7222SOL     OW23562   7.373   3.184   1.344
 7222SOL    HW123563   7.408   3.252   1.401
 7222SOL    HW223564   7.404   3.207   1.257
 7223SOL     OW23565   0.458   1.121   3.951
 7223SOL    HW123566   0.528   1.115   4.015
 7223SOL    HW223567   0.466   1.041   3.899
 7224SOL     OW23568   1.900   5.067  11.381
 7224SOL    HW123569   1.836   5.134  11.403
 7224SOL    HW223570   1.919   5.024  11.464
 7225SOL     OW23571   4.899   0.060  12.309
 7225SOL    HW123572   4.891   0.148  12.347
 7225SOL    HW223573   4.959   0.015  12.368
 7226SOL     OW23574  11.987  10.842   2.973
 7226SOL    HW123575  11.932  10.888   2.910
 7226SOL    HW223576  12.075  10.877   2.958
 7227SOL     OW23577  10.368  12.215   5.708
 7227SOL    HW123578  10.324  12.235   5.791
 7227SOL    HW223579  10.362  12.296   5.657
 7228SOL     OW23580  13.077   6.041   2.115
 7228SOL    HW123581  13.151   6.070   2.063
 7228SOL    HW223582  13.112   5.973   2.173
 7229SOL     OW23583  14.192  13.366   2.930
 7229SOL    HW123584  14.237  13.337   3.009
 7229SOL    HW223585  14.176  13.286   2.880
 7230SOL     OW23586   5.032   4.200   0.852
 7230SOL    HW123587   5.084   4.228   0.776
 7230SOL    HW223588   5.079   4.236   0.927
 7231SOL     OW23589   1.601  11.888   3.144
 7231SOL    HW123590   1.549  11.887   3.225
 7231SOL    HW223591   1.649  11.971   3.148
 7232SOL     OW23592   7.195  10.896   3.290
 7232SOL    HW123593   7.198  10.947   3.209
 7232SOL    HW223594   7.178  10.961   3.359
 7233SOL     OW23595   9.465   5.482   6.538
 7233SOL    HW123596   9.483   5.389   6.528
 7233SOL    HW223597   9.370   5.488   6.546
 7234SOL     OW23598   3.329   9.622   6.460
 7234SOL    HW123599   3.337   9.690   6.527
 7234SOL    HW223600   3.251   9.572   6.485
 7235SOL     OW23601   6.001   0.043   6.547
 7235SOL    HW123602   5.941   0.071   6.478
 7235SOL    HW223603   6.054  14.852   6.506
 7236SOL     OW23604  13.223  11.146   1.910
 7236SOL    HW123605  13.236  11.205   1.836
 7236SOL    HW223606  13.262  11.063   1.882
 7237SOL     OW23607   2.907   4.299  13.036
 7237SOL    HW123608   2.978   4.312  12.974
 7237SOL    HW223609   2.830   4.283  12.982
 7238SOL     OW23610  12.356  10.334   9.834
 7238SOL    HW123611  12.265  10.304   9.839
 7238SOL    HW223612  12.364  10.371   9.746
 7239SOL     OW23613   8.153  12.840   5.238
 7239SOL    HW123614   8.140  12.791   5.319
 7239SOL    HW223615   8.066  12.851   5.201
 7240SOL     OW23616   3.311   4.803   8.351
 7240SOL    HW123617   3.367   4.749   8.406
 7240SOL    HW223618   3.223   4.769   8.365
 7241SOL     OW23619  11.425   5.584  13.922
 7241SOL    HW123620  11.389   5.547  13.842
 7241SOL    HW223621  11.519   5.592  13.906
 7242SOL     OW23622   3.315   1.272   9.034
 7242SOL    HW123623   3.375   1.277   9.109
 7242SOL    HW223624   3.296   1.363   9.013
 7243SOL     OW23625   1.780   4.315  12.834
 7243SOL    HW123626   1.724   4.312  12.912
 7243SOL    HW223627   1.844   4.246  12.848
 7244SOL     OW23628   3.128   0.037   9.599
 7244SOL    HW123629   3.195   0.095   9.635
 7244SOL    HW223630   3.064   0.097   9.559
 7245SOL     OW23631  12.525   5.139   1.504
 7245SOL    HW123632  12.482   5.143   1.589
 7245SOL    HW223633  12.554   5.229   1.488
 7246SOL     OW23634   8.676   2.576   3.083
 7246SOL    HW123635   8.704   2.506   3.024
 7246SOL    HW223636   8.752   2.634   3.089
 7247SOL     OW23637   0.354   9.986  10.157
 7247SOL    HW123638   0.266   9.980  10.119
 7247SOL    HW223639   0.353   9.922  10.229
 7248SOL     OW23640  12.648   3.247   8.846
 7248SOL    HW123641  12.578   3.294   8.801
 7248SOL    HW223642  12.710   3.224   8.777
 7249SOL     OW23643   3.522  11.906   9.748
 7249SOL    HW123644   3.561  11.819   9.743
 7249SOL    HW223645   3.556  11.943   9.829
 7250SOL     OW23646   1.245  12.164   8.171
 7250SOL    HW123647   1.257  12.227   8.100
 7250SOL    HW223648   1.224  12.217   8.248
 7251SOL     OW23649   3.463  11.231   0.183
 7251SOL    HW123650   3.503  11.225   0.270
 7251SOL    HW223651   3.505  11.162   0.132
 7252SOL     OW23652  12.297   0.966   0.090
 7252SOL    HW123653  12.241   1.037   0.123
 7252SOL    HW223654  12.237   0.906   0.046
 7253SOL     OW23655   9.304  13.739   2.270
 7253SOL    HW123656   9.349  13.704   2.194
 7253SOL    HW223657   9.324  13.833   2.269
 7254SOL     OW23658  12.091   0.872  12.538
 7254SOL    HW123659  12.123   0.838  12.621
 7254SOL    HW223660  12.102   0.800  12.476
 7255SOL     OW23661  10.661   7.029   0.987
 7255SOL    HW123662  10.729   7.096   0.982
 7255SOL    HW223663  10.608   7.055   1.063
 7256SOL     OW23664   6.528  12.086   9.925
 7256SOL    HW123665   6.554  12.167   9.879
 7256SOL    HW223666   6.444  12.063   9.886
 7257SOL     OW23667  10.284  13.851   7.469
 7257SOL    HW123668  10.254  13.941   7.477
 7257SOL    HW223669  10.355  13.843   7.532
 7258SOL     OW23670  12.783  13.841   9.758
 7258SOL    HW123671  12.836  13.834   9.678
 7258SOL    HW223672  12.706  13.787   9.740
 7259SOL     OW23673  13.524   4.700  11.164
 7259SOL    HW123674  13.615   4.693  11.138
 7259SOL    HW223675  13.494   4.610  11.173
 7260SOL     OW23676   9.223  11.126   4.504
 7260SOL    HW123677   9.157  11.101   4.569
 7260SOL    HW223678   9.305  11.130   4.554
 7261SOL     OW23679   2.816   4.979   6.622
 7261SOL    HW123680   2.824   4.946   6.711
 7261SOL    HW223681   2.894   5.034   6.609
 7262SOL     OW23682   8.256   9.069  13.154
 7262SOL    HW123683   8.307   9.146  13.179
 7262SOL    HW223684   8.241   9.023  13.237
 7263SOL     OW23685   4.906   2.900   0.975
 7263SOL    HW123686   4.827   2.941   0.940
 7263SOL    HW223687   4.876   2.817   1.012
 7264SOL     OW23688   1.730   2.213   2.762
 7264SOL    HW123689   1.674   2.220   2.685
 7264SOL    HW223690   1.724   2.121   2.788
 7265SOL     OW23691   6.962   1.966   6.681
 7265SOL    HW123692   7.029   2.010   6.733
 7265SOL    HW223693   7.012   1.918   6.615
 7266SOL     OW23694  12.079   0.994   5.373
 7266SOL    HW123695  12.073   0.957   5.461
 7266SOL    HW223696  11.988   1.004   5.345
 7267SOL     OW23697   6.085   6.252  13.169
 7267SOL    HW123698   6.141   6.231  13.094
 7267SOL    HW223699   6.079   6.347  13.168
 7268SOL     OW23700  10.171  14.433   1.198
 7268SOL    HW123701  10.122  14.432   1.280
 7268SOL    HW223702  10.236  14.502   1.209
 7269SOL     OW23703   7.540   2.236  11.675
 7269SOL    HW123704   7.548   2.183  11.755
 7269SOL    HW223705   7.446   2.240  11.658
 7270SOL     OW23706   3.460   9.320   1.650
 7270SOL    HW123707   3.492   9.333   1.560
 7270SOL    HW223708   3.538   9.333   1.704
 7271SOL     OW23709  10.079   3.907  14.794
 7271SOL    HW123710  10.055   3.834  14.737
 7271SOL    HW223711   9.996   3.951  14.813
 7272SOL     OW23712  13.252  10.261   3.359
 7272SOL    HW123713  13.271  10.300   3.444
 7272SOL    HW223714  13.236  10.336   3.301
 7273SOL     OW23715   9.180  11.357  12.589
 7273SOL    HW123716   9.183  11.426  12.522
 7273SOL    HW223717   9.118  11.293  12.555
 7274SOL     OW23718  12.906   3.980  10.008
 7274SOL    HW123719  12.813   3.987   9.986
 7274SOL    HW223720  12.951   3.983   9.924
 7275SOL     OW23721   3.790  12.913   1.405
 7275SOL    HW123722   3.720  12.923   1.470
 7275SOL    HW223723   3.861  12.870   1.452
 7276SOL     OW23724  11.325   2.685  12.042
 7276SOL    HW123725  11.230   2.696  12.043
 7276SOL    HW223726  11.339   2.597  12.007
 7277SOL     OW23727   6.223  13.724   9.740
 7277SOL    HW123728   6.153  13.789   9.745
 7277SOL    HW223729   6.178  13.643   9.718
 7278SOL     OW23730   7.295   6.087  14.543
 7278SOL    HW123731   7.215   6.066  14.496
 7278SOL    HW223732   7.274   6.072  14.635
 7279SOL     OW23733   4.170   3.532   0.486
 7279SOL    HW123734   4.156   3.589   0.561
 7279SOL    HW223735   4.178   3.592   0.412
 7280SOL     OW23736  13.572   5.307   1.061
 7280SOL    HW123737  13.599   5.319   0.969
 7280SOL    HW223738  13.643   5.347   1.112
 7281SOL     OW23739   4.626   2.611   6.454
 7281SOL    HW123740   4.698   2.618   6.391
 7281SOL    HW223741   4.547   2.613   6.400
 7282SOL     OW23742   0.642   5.807  14.798
 7282SOL    HW123743   0.689   5.854  14.868
 7282SOL    HW223744   0.675   5.717  14.805
 7283SOL     OW23745   1.954  14.213   7.336
 7283SOL    HW123746   1.870  14.179   7.304
 7283SOL    HW223747   1.998  14.244   7.257
 7284SOL     OW23748   0.803   2.587   6.578
 7284SOL    HW123749   0.824   2.572   6.670
 7284SOL    HW223750   0.886   2.614   6.539
 7285SOL     OW23751   6.809   5.720   6.539
 7285SOL    HW123752   6.818   5.812   6.562
 7285SOL    HW223753   6.769   5.679   6.615
 7286SOL     OW23754  10.774   1.378  10.773
 7286SOL    HW123755  10.746   1.415  10.857
 7286SOL    HW223756  10.693   1.356  10.728
 7287SOL     OW23757   0.307   2.133   5.200
 7287SOL    HW123758   0.384   2.128   5.144
 7287SOL    HW223759   0.290   2.043   5.226
 7288SOL     OW23760  13.904  14.430   7.415
 7288SOL    HW123761  13.955  14.382   7.479
 7288SOL    HW223762  13.813  14.408   7.435
 7289SOL     OW23763   4.180   3.837   8.779
 7289SOL    HW123764   4.213   3.834   8.869
 7289SOL    HW223765   4.215   3.758   8.738
 7290SOL     OW23766   2.728   0.907   7.622
 7290SOL    HW123767   2.778   0.835   7.660
 7290SOL    HW223768   2.636   0.887   7.644
 7291SOL     OW23769  10.224  13.359   4.590
 7291SOL    HW123770  10.315  13.335   4.572
 7291SOL    HW223771  10.172  13.292   4.547
 7292SOL     OW23772   8.056   8.811   6.786
 7292SOL    HW123773   8.115   8.877   6.750
 7292SOL    HW223774   8.026   8.849   6.868
 7293SOL     OW23775   7.959   4.312   8.795
 7293SOL    HW123776   7.965   4.402   8.762
 7293SOL    HW223777   7.955   4.322   8.890
 7294SOL     OW23778  11.556   9.380   3.565
 7294SOL    HW123779  11.558   9.453   3.626
 7294SOL    HW223780  11.633   9.392   3.509
 7295SOL     OW23781   3.197  11.049   8.052
 7295SOL    HW123782   3.223  11.087   7.968
 7295SOL    HW223783   3.178  10.957   8.032
 7296SOL     OW23784   0.091   9.492  10.555
 7296SOL    HW123785   0.031   9.438  10.606
 7296SOL    HW223786   0.177   9.471  10.590
 7297SOL     OW23787   8.384   0.898   5.956
 7297SOL    HW123788   8.467   0.852   5.971
 7297SOL    HW223789   8.400   0.953   5.880
 7298SOL     OW23790   3.078   1.905  14.825
 7298SOL    HW123791   2.994   1.927  14.784
 7298SOL    HW223792   3.056   1.888   0.039
 7299SOL     OW23793   6.095  14.593   9.150
 7299SOL    HW123794   6.121  14.654   9.218
 7299SOL    HW223795   6.122  14.507   9.183
 7300SOL     OW23796   4.467   8.629   8.637
 7300SOL    HW123797   4.402   8.699   8.637
 7300SOL    HW223798   4.431   8.562   8.694
 7301SOL     OW23799   6.796   7.741   8.486
 7301SOL    HW123800   6.730   7.799   8.523
 7301SOL    HW223801   6.756   7.654   8.488
 7302SOL     OW23802   2.503  12.705   4.983
 7302SOL    HW123803   2.492  12.768   5.054
 7302SOL    HW223804   2.463  12.625   5.015
 7303SOL     OW23805   8.069   1.784  13.769
 7303SOL    HW123806   8.086   1.741  13.685
 7303SOL    HW223807   7.980   1.755  13.793
 7304SOL     OW23808  14.712  12.082  14.332
 7304SOL    HW123809  14.691  12.034  14.252
 7304SOL    HW223810  14.696  12.020  14.403
 7305SOL     OW23811   4.486   5.977   3.328
 7305SOL    HW123812   4.540   5.907   3.293
 7305SOL    HW223813   4.417   5.988   3.263
 7306SOL     OW23814   2.669   4.726   1.307
 7306SOL    HW123815   2.723   4.772   1.372
 7306SOL    HW223816   2.732   4.681   1.251
 7307SOL     OW23817  11.739  13.296  11.195
 7307SOL    HW123818  11.793  13.313  11.117
 7307SOL    HW223819  11.737  13.201  11.203
 7308SOL     OW23820   9.780  10.404   6.605
 7308SOL    HW123821   9.775  10.495   6.575
 7308SOL    HW223822   9.813  10.356   6.529
 7309SOL     OW23823  14.567   6.968   6.284
 7309SOL    HW123824  14.593   7.019   6.208
 7309SOL    HW223825  14.575   7.029   6.358
 7310SOL     OW23826   1.652   2.547   0.400
 7310SOL    HW123827   1.701   2.609   0.346
 7310SOL    HW223828   1.569   2.536   0.355
 7311SOL     OW23829   9.887  13.101  10.861
 7311SOL    HW123830   9.800  13.126  10.893
 7311SOL    HW223831   9.893  13.143  10.775
 7312SOL     OW23832   0.416   5.430   5.906
 7312SOL    HW123833   0.360   5.491   5.954
 7312SOL    HW223834   0.472   5.486   5.852
 7313SOL     OW23835  13.271  13.146   2.053
 7313SOL    HW123836  13.198  13.157   1.992
 7313SOL    HW223837  13.258  13.215   2.118
 7314SOL     OW23838   0.628  10.169  13.868
 7314SOL    HW123839   0.710  10.169  13.819
 7314SOL    HW223840   0.601  10.261  13.870
 7315SOL     OW23841  10.445   8.281   9.502
 7315SOL    HW123842  10.485   8.203   9.464
 7315SOL    HW223843  10.363   8.293   9.455
 7316SOL     OW23844  14.395   9.093   6.385
 7316SOL    HW123845  14.396   9.173   6.437
 7316SOL    HW223846  14.465   9.105   6.320
 7317SOL     OW23847  12.059   0.581  10.609
 7317SOL    HW123848  12.049   0.501  10.660
 7317SOL    HW223849  11.979   0.630  10.627
 7318SOL     OW23850   1.302   5.716   4.507
 7318SOL    HW123851   1.311   5.627   4.471
 7318SOL    HW223852   1.365   5.719   4.579
 7319SOL     OW23853   1.277  14.389   3.239
 7319SOL    HW123854   1.361  14.436   3.233
 7319SOL    HW223855   1.256  14.392   3.333
 7320SOL     OW23856   2.396  10.732   3.328
 7320SOL    HW123857   2.461  10.679   3.374
 7320SOL    HW223858   2.387  10.689   3.243
 7321SOL     OW23859  11.984   3.529   6.301
 7321SOL    HW123860  12.035   3.493   6.229
 7321SOL    HW223861  11.999   3.624   6.296
 7322SOL     OW23862   9.798  12.513   1.165
 7322SOL    HW123863   9.863  12.443   1.157
 7322SOL    HW223864   9.825  12.562   1.242
 7323SOL     OW23865   4.881  10.497   4.857
 7323SOL    HW123866   4.867  10.553   4.780
 7323SOL    HW223867   4.905  10.412   4.821
 7324SOL     OW23868  11.993   7.045   5.915
 7324SOL    HW123869  12.086   7.025   5.909
 7324SOL    HW223870  11.971   7.026   6.006
 7325SOL     OW23871   3.305   8.041   1.821
 7325SOL    HW123872   3.273   8.001   1.903
 7325SOL    HW223873   3.226   8.052   1.768
 7326SOL     OW23874  14.456  12.207   5.852
 7326SOL    HW123875  14.362  12.192   5.843
 7326SOL    HW223876  14.494  12.173   5.771
 7327SOL     OW23877   4.047  13.419   8.905
 7327SOL    HW123878   4.141  13.402   8.903
 7327SOL    HW223879   4.009  13.354   8.846
 7328SOL     OW23880   8.193   2.169  10.132
 7328SOL    HW123881   8.209   2.203  10.219
 7328SOL    HW223882   8.278   2.138  10.102
 7329SOL     OW23883   5.410   9.387   1.321
 7329SOL    HW123884   5.352   9.398   1.396
 7329SOL    HW223885   5.497   9.379   1.359
 7330SOL     OW23886   2.922   4.680   3.016
 7330SOL    HW123887   2.858   4.749   3.032
 7330SOL    HW223888   2.869   4.603   2.993
 7331SOL     OW23889  13.379   2.646   0.893
 7331SOL    HW123890  13.369   2.553   0.874
 7331SOL    HW223891  13.343   2.656   0.982
 7332SOL     OW23892   6.220  11.946   7.917
 7332SOL    HW123893   6.301  11.970   7.870
 7332SOL    HW223894   6.247  11.877   7.977
 7333SOL     OW23895  14.814  10.190  11.007
 7333SOL    HW123896  14.816  10.169  11.101
 7333SOL    HW223897  14.813  10.286  11.004
 7334SOL     OW23898   2.802   3.723   0.700
 7334SOL    HW123899   2.887   3.766   0.702
 7334SOL    HW223900   2.760   3.749   0.782
 7335SOL     OW23901   0.170   2.791   4.588
 7335SOL    HW123902   0.178   2.868   4.531
 7335SOL    HW223903   0.256   2.750   4.585
 7336SOL     OW23904   4.653  12.610   3.382
 7336SOL    HW123905   4.582  12.665   3.416
 7336SOL    HW223906   4.729  12.667   3.381
 7337SOL     OW23907   6.015   2.759   1.649
 7337SOL    HW123908   5.924   2.745   1.623
 7337SOL    HW223909   6.048   2.825   1.587
 7338SOL     OW23910  10.287   8.924   7.772
 7338SOL    HW123911  10.353   8.854   7.770
 7338SOL    HW223912  10.249   8.918   7.860
 7339SOL     OW23913   1.574   2.560  10.995
 7339SOL    HW123914   1.668   2.555  10.977
 7339SOL    HW223915   1.537   2.600  10.916
 7340SOL     OW23916  13.666   4.500   6.828
 7340SOL    HW123917  13.660   4.410   6.796
 7340SOL    HW223918  13.643   4.495   6.921
 7341SOL     OW23919   8.196   3.658   0.550
 7341SOL    HW123920   8.119   3.626   0.504
 7341SOL    HW223921   8.167   3.669   0.641
 7342SOL     OW23922   0.788  13.273   3.906
 7342SOL    HW123923   0.738  13.193   3.926
 7342SOL    HW223924   0.878  13.251   3.928
 7343SOL     OW23925   5.081   1.163  12.191
 7343SOL    HW123926   5.073   1.100  12.262
 7343SOL    HW223927   5.119   1.113  12.119
 7344SOL     OW23928   7.123   9.398  14.606
 7344SOL    HW123929   7.207   9.445  14.606
 7344SOL    HW223930   7.125   9.346  14.526
 7345SOL     OW23931   6.649  11.564  10.410
 7345SOL    HW123932   6.698  11.500  10.463
 7345SOL    HW223933   6.717  11.622  10.375
 7346SOL     OW23934   8.280   5.946   0.064
 7346SOL    HW123935   8.304   5.891   0.138
 7346SOL    HW223936   8.351   6.010   0.057
 7347SOL     OW23937   6.448   6.331   6.022
 7347SOL    HW123938   6.415   6.248   5.987
 7347SOL    HW223939   6.411   6.397   5.963
 7348SOL     OW23940   0.463   8.877   4.187
 7348SOL    HW123941   0.454   8.920   4.102
 7348SOL    HW223942   0.439   8.786   4.171
 7349SOL     OW23943  11.154   1.677   5.305
 7349SOL    HW123944  11.115   1.727   5.378
 7349SOL    HW223945  11.231   1.728   5.280
 7350SOL     OW23946   7.187  12.544   1.929
 7350SOL    HW123947   7.243  12.467   1.940
 7350SOL    HW223948   7.238  12.602   1.872
 7351SOL     OW23949   1.730  12.991   8.621
 7351SOL    HW123950   1.642  12.993   8.582
 7351SOL    HW223951   1.728  13.059   8.688
 7352SOL     OW23952   1.333  10.422  10.126
 7352SOL    HW123953   1.363  10.404  10.036
 7352SOL    HW223954   1.250  10.467  10.115
 7353SOL     OW23955  14.474   3.250   3.260
 7353SOL    HW123956  14.421   3.327   3.279
 7353SOL    HW223957  14.492   3.212   3.346
 7354SOL     OW23958   8.470   2.374   8.380
 7354SOL    HW123959   8.476   2.314   8.306
 7354SOL    HW223960   8.554   2.364   8.425
 7355SOL     OW23961   1.912   5.448   5.849
 7355SOL    HW123962   1.910   5.407   5.762
 7355SOL    HW223963   1.949   5.381   5.906
 7356SOL     OW23964  13.005   3.509   8.736
 7356SOL    HW123965  12.910   3.521   8.742
 7356SOL    HW223966  13.016   3.442   8.668
 7357SOL     OW23967   7.517  10.322   0.470
 7357SOL    HW123968   7.607  10.295   0.484
 7357SOL    HW223969   7.473  10.303   0.553
 7358SOL     OW23970   9.389  11.810   1.861
 7358SOL    HW123971   9.340  11.789   1.940
 7358SOL    HW223972   9.480  11.787   1.882
 7359SOL     OW23973  10.953   8.525   4.860
 7359SOL    HW123974  10.970   8.431   4.864
 7359SOL    HW223975  10.882   8.540   4.922
 7360SOL     OW23976   1.709   4.230   6.857
 7360SOL    HW123977   1.789   4.272   6.826
 7360SOL    HW223978   1.647   4.301   6.869
 7361SOL     OW23979  13.912   0.526   9.489
 7361SOL    HW123980  13.935   0.610   9.529
 7361SOL    HW223981  13.885   0.549   9.400
 7362SOL     OW23982   3.965  10.998   5.118
 7362SOL    HW123983   3.983  11.003   5.024
 7362SOL    HW223984   4.023  10.929   5.150
 7363SOL     OW23985   9.923  13.211   6.901
 7363SOL    HW123986   9.908  13.172   6.815
 7363SOL    HW223987   9.972  13.145   6.950
 7364SOL     OW23988  11.326   0.144  10.073
 7364SOL    HW123989  11.386   0.120  10.002
 7364SOL    HW223990  11.345   0.082  10.143
 7365SOL     OW23991   2.120  11.494   7.232
 7365SOL    HW123992   2.153  11.444   7.157
 7365SOL    HW223993   2.054  11.552   7.195
 7366SOL     OW23994   0.348   9.576   9.725
 7366SOL    HW123995   0.300   9.579   9.807
 7366SOL    HW223996   0.375   9.484   9.716
 7367SOL     OW23997   9.375  14.319   1.500
 7367SOL    HW123998   9.449  14.310   1.440
 7367SOL    HW223999   9.320  14.387   1.460
 7368SOL     OW24000   5.170   6.670   3.173
 7368SOL    HW124001   5.227   6.599   3.201
 7368SOL    HW224002   5.193   6.686   3.081
 7369SOL     OW24003   7.162   5.783   3.567
 7369SOL    HW124004   7.082   5.737   3.544
 7369SOL    HW224005   7.232   5.725   3.537
 7370SOL     OW24006  14.211  11.082  14.148
 7370SOL    HW124007  14.116  11.080  14.162
 7370SOL    HW224008  14.229  11.000  14.101
 7371SOL     OW24009  11.534  12.463   3.709
 7371SOL    HW124010  11.489  12.384   3.739
 7371SOL    HW224011  11.495  12.483   3.624
 7372SOL     OW24012  10.790   5.471   7.995
 7372SOL    HW124013  10.879   5.498   8.021
 7372SOL    HW224014  10.790   5.479   7.900
 7373SOL     OW24015   5.616  14.677  12.964
 7373SOL    HW124016   5.692  14.726  12.932
 7373SOL    HW224017   5.545  14.742  12.964
 7374SOL     OW24018  14.474   8.417   3.707
 7374SOL    HW124019  14.465   8.471   3.785
 7374SOL    HW224020  14.569   8.413   3.693
 7375SOL     OW24021   4.027   1.310   1.635
 7375SOL    HW124022   4.077   1.245   1.586
 7375SOL    HW224023   4.068   1.394   1.613
 7376SOL     OW24024   0.233   5.294   0.912
 7376SOL    HW124025   0.231   5.270   1.004
 7376SOL    HW224026   0.144   5.278   0.881
 7377SOL     OW24027   1.152   8.588   0.580
 7377SOL    HW124028   1.130   8.501   0.549
 7377SOL    HW224029   1.217   8.621   0.518
 7378SOL     OW24030   0.888   7.086   6.996
 7378SOL    HW124031   0.807   7.039   7.017
 7378SOL    HW224032   0.859   7.159   6.941
 7379SOL     OW24033   4.930  11.317  14.876
 7379SOL    HW124034   5.009  11.263  14.876
 7379SOL    HW224035   4.937  11.370  14.796
 7380SOL     OW24036   2.982   4.901   1.125
 7380SOL    HW124037   2.980   4.973   1.188
 7380SOL    HW224038   2.952   4.940   1.043
 7381SOL     OW24039   2.280   3.417  10.982
 7381SOL    HW124040   2.314   3.506  10.972
 7381SOL    HW224041   2.322   3.367  10.912
 7382SOL     OW24042  11.962   3.480   4.134
 7382SOL    HW124043  11.997   3.471   4.045
 7382SOL    HW224044  11.868   3.497   4.121
 7383SOL     OW24045   4.829   8.663  11.753
 7383SOL    HW124046   4.876   8.583  11.779
 7383SOL    HW224047   4.860   8.680  11.664
 7384SOL     OW24048   6.278   1.972   9.904
 7384SOL    HW124049   6.250   1.882   9.919
 7384SOL    HW224050   6.290   2.008   9.992
 7385SOL     OW24051   1.046   0.150  12.176
 7385SOL    HW124052   1.121   0.204  12.201
 7385SOL    HW224053   1.042   0.081  12.241
 7386SOL     OW24054   1.940   3.211   3.350
 7386SOL    HW124055   1.940   3.142   3.416
 7386SOL    HW224056   2.021   3.196   3.300
 7387SOL     OW24057  11.229   3.323  13.949
 7387SOL    HW124058  11.255   3.231  13.935
 7387SOL    HW224059  11.162   3.319  14.017
 7388SOL     OW24060  11.161   3.797   8.309
 7388SOL    HW124061  11.223   3.818   8.378
 7388SOL    HW224062  11.103   3.873   8.305
 7389SOL     OW24063  11.695  14.076  11.545
 7389SOL    HW124064  11.756  14.130  11.596
 7389SOL    HW224065  11.699  14.113  11.457
 7390SOL     OW24066   9.687   0.912  13.863
 7390SOL    HW124067   9.699   0.990  13.808
 7390SOL    HW224068   9.622   0.938  13.928
 7391SOL     OW24069   5.725   6.380   2.824
 7391SOL    HW124070   5.690   6.462   2.858
 7391SOL    HW224071   5.650   6.336   2.784
 7392SOL     OW24072   6.069   8.791   9.674
 7392SOL    HW124073   6.129   8.806   9.601
 7392SOL    HW224074   6.002   8.733   9.638
 7393SOL     OW24075  13.232   0.048   7.583
 7393SOL    HW124076  13.244   0.090   7.669
 7393SOL    HW224077  13.301  14.859   7.579
 7394SOL     OW24078   7.812  13.589   7.140
 7394SOL    HW124079   7.822  13.680   7.112
 7394SOL    HW224080   7.780  13.544   7.062
 7395SOL     OW24081   8.707   4.362  14.041
 7395SOL    HW124082   8.785   4.351  13.986
 7395SOL    HW224083   8.646   4.412  13.986
 7396SOL     OW24084   2.589   5.747  12.286
 7396SOL    HW124085   2.612   5.766  12.196
 7396SOL    HW224086   2.509   5.694  12.280
 7397SOL     OW24087   6.020  13.845   3.532
 7397SOL    HW124088   6.023  13.939   3.550
 7397SOL    HW224089   6.106  13.825   3.497
 7398SOL     OW24090   7.503   9.113   2.556
 7398SOL    HW124091   7.518   9.138   2.647
 7398SOL    HW224092   7.575   9.154   2.507
 7399SOL     OW24093   6.962   2.139  11.020
 7399SOL    HW124094   6.968   2.161  11.113
 7399SOL    HW224095   7.052   2.119  10.994
 7400SOL     OW24096   5.382   2.635  13.960
 7400SOL    HW124097   5.442   2.601  14.026
 7400SOL    HW224098   5.418   2.721  13.937
 7401SOL     OW24099   1.171   7.471   2.175
 7401SOL    HW124100   1.204   7.547   2.126
 7401SOL    HW224101   1.236   7.403   2.161
 7402SOL     OW24102   3.708  13.014   9.139
 7402SOL    HW124103   3.669  13.069   9.071
 7402SOL    HW224104   3.651  12.937   9.143
 7403SOL     OW24105   3.472  12.742  14.808
 7403SOL    HW124106   3.447  12.651  14.826
 7403SOL    HW224107   3.427  12.793  14.874
 7404SOL     OW24108   0.922   7.861   0.946
 7404SOL    HW124109   0.895   7.950   0.968
 7404SOL    HW224110   0.870   7.838   0.869
 7405SOL     OW24111   4.364   8.223   8.931
 7405SOL    HW124112   4.377   8.190   9.020
 7405SOL    HW224113   4.269   8.220   8.918
 7406SOL     OW24114  11.698   8.990   3.986
 7406SOL    HW124115  11.785   9.031   3.987
 7406SOL    HW224116  11.715   8.900   4.013
 7407SOL     OW24117   1.066   1.827   3.133
 7407SOL    HW124118   1.119   1.803   3.209
 7407SOL    HW224119   1.025   1.745   3.106
 7408SOL     OW24120  11.874   0.302   1.092
 7408SOL    HW124121  11.942   0.239   1.114
 7408SOL    HW224122  11.807   0.251   1.047
 7409SOL     OW24123   3.924   7.525  14.476
 7409SOL    HW124124   3.862   7.491  14.411
 7409SOL    HW224125   3.920   7.462  14.548
 7410SOL     OW24126   6.341  14.096  14.349
 7410SOL    HW124127   6.426  14.091  14.304
 7410SOL    HW224128   6.351  14.042  14.427
 7411SOL     OW24129  11.556  13.194  11.827
 7411SOL    HW124130  11.468  13.199  11.790
 7411SOL    HW224131  11.551  13.123  11.892
 7412SOL     OW24132  10.821  11.928  11.500
 7412SOL    HW124133  10.744  11.934  11.555
 7412SOL    HW224134  10.841  11.834  11.496
 7413SOL     OW24135   9.139   2.400  14.677
 7413SOL    HW124136   9.117   2.443  14.760
 7413SOL    HW224137   9.168   2.472  14.620
 7414SOL     OW24138   3.766  12.908  11.460
 7414SOL    HW124139   3.853  12.935  11.433
 7414SOL    HW224140   3.748  12.828  11.409
 7415SOL     OW24141   5.504   8.626  12.141
 7415SOL    HW124142   5.538   8.698  12.086
 7415SOL    HW224143   5.561   8.552  12.121
 7416SOL     OW24144   5.628  12.059   0.675
 7416SOL    HW124145   5.602  11.979   0.629
 7416SOL    HW224146   5.672  12.111   0.608
 7417SOL     OW24147   3.431   7.199  11.414
 7417SOL    HW124148   3.404   7.284  11.379
 7417SOL    HW224149   3.378   7.135  11.366
 7418SOL     OW24150   9.067   8.478  13.829
 7418SOL    HW124151   9.021   8.558  13.802
 7418SOL    HW224152   9.038   8.464  13.919
 7419SOL     OW24153  10.059  12.276   1.772
 7419SOL    HW124154  10.034  12.193   1.810
 7419SOL    HW224155   9.981  12.332   1.780
 7420SOL     OW24156   2.142   2.783   2.233
 7420SOL    HW124157   2.178   2.761   2.147
 7420SOL    HW224158   2.070   2.721   2.245
 7421SOL     OW24159  10.723   2.617   1.236
 7421SOL    HW124160  10.673   2.562   1.296
 7421SOL    HW224161  10.768   2.680   1.292
 7422SOL     OW24162  12.596   9.384  11.655
 7422SOL    HW124163  12.607   9.452  11.721
 7422SOL    HW224164  12.505   9.356  11.666
 7423SOL     OW24165   2.304   0.140  10.640
 7423SOL    HW124166   2.292   0.045  10.631
 7423SOL    HW224167   2.363   0.164  10.569
 7424SOL     OW24168   9.151   6.006  12.757
 7424SOL    HW124169   9.236   6.046  12.773
 7424SOL    HW224170   9.111   6.060  12.690
 7425SOL     OW24171  12.830  13.648  14.398
 7425SOL    HW124172  12.921  13.679  14.387
 7425SOL    HW224173  12.839  13.562  14.437
 7426SOL     OW24174  10.147   7.045   2.708
 7426SOL    HW124175  10.071   6.992   2.681
 7426SOL    HW224176  10.209   6.982   2.743
 7427SOL     OW24177   0.917  12.517   6.438
 7427SOL    HW124178   0.854  12.513   6.510
 7427SOL    HW224179   1.002  12.521   6.481
 7428SOL     OW24180   4.430  13.344   0.975
 7428SOL    HW124181   4.495  13.413   0.965
 7428SOL    HW224182   4.464  13.272   0.922
 7429SOL     OW24183  11.372   0.645  10.053
 7429SOL    HW124184  11.419   0.604  10.126
 7429SOL    HW224185  11.320   0.574  10.015
 7430SOL     OW24186   9.996   2.366   3.709
 7430SOL    HW124187   9.930   2.431   3.686
 7430SOL    HW224188  10.005   2.374   3.804
 7431SOL     OW24189   5.760   0.648   5.439
 7431SOL    HW124190   5.708   0.630   5.518
 7431SOL    HW224191   5.770   0.743   5.438
 7432SOL     OW24192  14.369  10.517  11.918
 7432SOL    HW124193  14.403  10.562  11.840
 7432SOL    HW224194  14.295  10.570  11.946
 7433SOL     OW24195   7.665   1.991   3.730
 7433SOL    HW124196   7.583   2.035   3.753
 7433SOL    HW224197   7.705   1.969   3.814
 7434SOL     OW24198   2.797   6.095   3.918
 7434SOL    HW124199   2.849   6.165   3.958
 7434SOL    HW224200   2.817   6.017   3.970
 7435SOL     OW24201   9.547   7.982   1.708
 7435SOL    HW124202   9.578   7.913   1.767
 7435SOL    HW224203   9.502   7.934   1.638
 7436SOL     OW24204   2.989   1.526   3.049
 7436SOL    HW124205   2.975   1.613   3.010
 7436SOL    HW224206   2.992   1.466   2.974
 7437SOL     OW24207   5.201  10.487   2.086
 7437SOL    HW124208   5.197  10.466   1.993
 7437SOL    HW224209   5.173  10.579   2.091
 7438SOL     OW24210  13.954  12.604   8.455
 7438SOL    HW124211  13.887  12.653   8.408
 7438SOL    HW224212  13.952  12.516   8.416
 7439SOL     OW24213   5.526  14.660  14.437
 7439SOL    HW124214   5.520  14.597  14.365
 7439SOL    HW224215   5.558  14.609  14.511
 7440SOL     OW24216   9.315   0.893   1.935
 7440SOL    HW124217   9.340   0.857   1.850
 7440SOL    HW224218   9.386   0.869   1.994
 7441SOL     OW24219   1.241   0.921   4.220
 7441SOL    HW124220   1.312   0.857   4.228
 7441SOL    HW224221   1.213   0.936   4.310
 7442SOL     OW24222   8.025   2.047   8.322
 7442SOL    HW124223   7.985   1.966   8.291
 7442SOL    HW224224   7.979   2.116   8.274
 7443SOL     OW24225   2.103   8.993   4.244
 7443SOL    HW124226   2.040   8.927   4.214
 7443SOL    HW224227   2.057   9.041   4.312
 7444SOL     OW24228   9.998   2.511  11.117
 7444SOL    HW124229   9.905   2.493  11.107
 7444SOL    HW224230  10.008   2.535  11.209
 7445SOL     OW24231   0.375  13.635   9.040
 7445SOL    HW124232   0.468  13.612   9.036
 7445SOL    HW224233   0.336  13.591   8.966
 7446SOL     OW24234  12.487   3.971   4.195
 7446SOL    HW124235  12.550   3.921   4.247
 7446SOL    HW224236  12.435   4.019   4.259
 7447SOL     OW24237  14.680   6.323  11.178
 7447SOL    HW124238  14.707   6.384  11.109
 7447SOL    HW224239  14.692   6.236  11.138
 7448SOL     OW24240   2.961   6.970   0.236
 7448SOL    HW124241   2.978   7.040   0.172
 7448SOL    HW224242   2.968   7.013   0.321
 7449SOL     OW24243  13.562  13.627   1.424
 7449SOL    HW124244  13.549  13.692   1.493
 7449SOL    HW224245  13.473  13.601   1.399
 7450SOL     OW24246   2.436   7.314   8.449
 7450SOL    HW124247   2.469   7.232   8.485
 7450SOL    HW224248   2.344   7.316   8.472
 7451SOL     OW24249   6.113   4.219   6.093
 7451SOL    HW124250   6.046   4.207   6.026
 7451SOL    HW224251   6.185   4.163   6.065
 7452SOL     OW24252  13.327  12.463   0.984
 7452SOL    HW124253  13.414  12.427   0.998
 7452SOL    HW224254  13.291  12.410   0.913
 7453SOL     OW24255   2.780   8.457   5.045
 7453SOL    HW124256   2.802   8.378   4.996
 7453SOL    HW224257   2.855   8.471   5.104
 7454SOL     OW24258   6.312  11.284   6.518
 7454SOL    HW124259   6.378  11.312   6.582
 7454SOL    HW224260   6.362  11.253   6.443
 7455SOL     OW24261   8.836   7.320   5.935
 7455SOL    HW124262   8.854   7.298   5.843
 7455SOL    HW224263   8.789   7.244   5.969
 7456SOL     OW24264   0.520   5.352  12.639
 7456SOL    HW124265   0.517   5.256  12.648
 7456SOL    HW224266   0.558   5.382  12.722
 7457SOL     OW24267   9.748  11.651   0.461
 7457SOL    HW124268   9.726  11.572   0.411
 7457SOL    HW224269   9.688  11.718   0.428
 7458SOL     OW24270  11.809  11.552   2.731
 7458SOL    HW124271  11.758  11.629   2.706
 7458SOL    HW224272  11.773  11.526   2.816
 7459SOL     OW24273   9.734   5.392   5.995
 7459SOL    HW124274   9.801   5.411   6.061
 7459SOL    HW224275   9.712   5.300   6.008
 7460SOL     OW24276   1.651   1.710   8.484
 7460SOL    HW124277   1.636   1.743   8.396
 7460SOL    HW224278   1.665   1.788   8.537
 7461SOL     OW24279  12.379  11.952   6.011
 7461SOL    HW124280  12.350  11.943   5.920
 7461SOL    HW224281  12.327  12.025   6.046
 7462SOL     OW24282   8.090  10.713   8.913
 7462SOL    HW124283   8.094  10.622   8.941
 7462SOL    HW224284   8.156  10.757   8.967
 7463SOL     OW24285   5.218   2.651   4.842
 7463SOL    HW124286   5.125   2.643   4.867
 7463SOL    HW224287   5.224   2.606   4.758
 7464SOL     OW24288   7.662   5.299  14.107
 7464SOL    HW124289   7.666   5.375  14.165
 7464SOL    HW224290   7.572   5.268  14.115
 7465SOL     OW24291   3.384  11.826   6.749
 7465SOL    HW124292   3.324  11.857   6.817
 7465SOL    HW224293   3.382  11.731   6.757
 7466SOL     OW24294  13.352  12.809   7.529
 7466SOL    HW124295  13.411  12.769   7.466
 7466SOL    HW224296  13.409  12.851   7.593
 7467SOL     OW24297  10.920  12.299  11.963
 7467SOL    HW124298  10.993  12.244  11.935
 7467SOL    HW224299  10.851  12.238  11.987
 7468SOL     OW24300  12.300   2.668  10.676
 7468SOL    HW124301  12.396   2.659  10.673
 7468SOL    HW224302  12.269   2.624  10.598
 7469SOL     OW24303   2.835   1.274   3.885
 7469SOL    HW124304   2.765   1.220   3.846
 7469SOL    HW224305   2.853   1.341   3.819
 7470SOL     OW24306   9.417  12.545   2.946
 7470SOL    HW124307   9.341  12.555   3.003
 7470SOL    HW224308   9.394  12.591   2.865
 7471SOL     OW24309   0.001  13.018   8.451
 7471SOL    HW124310   0.028  12.929   8.472
 7471SOL    HW224311   0.055  13.074   8.507
 7472SOL     OW24312   7.424   3.131   9.427
 7472SOL    HW124313   7.357   3.191   9.461
 7472SOL    HW224314   7.411   3.133   9.332
 7473SOL     OW24315   8.215  12.887   2.330
 7473SOL    HW124316   8.287  12.903   2.391
 7473SOL    HW224317   8.195  12.972   2.292
 7474SOL     OW24318  10.114   7.094   8.387
 7474SOL    HW124319  10.149   7.005   8.386
 7474SOL    HW224320  10.029   7.087   8.345
 7475SOL     OW24321   6.692   7.871   4.055
 7475SOL    HW124322   6.729   7.938   4.112
 7475SOL    HW224323   6.619   7.914   4.011
 7476SOL     OW24324   1.719  13.800  11.640
 7476SOL    HW124325   1.664  13.735  11.684
 7476SOL    HW224326   1.741  13.863  11.708
 7477SOL     OW24327   7.046   2.631  14.224
 7477SOL    HW124328   7.005   2.691  14.161
 7477SOL    HW224329   7.081   2.687  14.292
 7478SOL     OW24330   8.353   5.537  12.479
 7478SOL    HW124331   8.284   5.593  12.513
 7478SOL    HW224332   8.306   5.466  12.434
 7479SOL     OW24333   2.608   5.609   4.718
 7479SOL    HW124334   2.610   5.546   4.645
 7479SOL    HW224335   2.585   5.693   4.677
 7480SOL     OW24336  12.269   1.588  11.000
 7480SOL    HW124337  12.262   1.509  11.054
 7480SOL    HW224338  12.185   1.631  11.009
 7481SOL     OW24339   2.268  11.545  12.977
 7481SOL    HW124340   2.343  11.566  13.032
 7481SOL    HW224341   2.306  11.522  12.892
 7482SOL     OW24342   6.435   8.489   5.884
 7482SOL    HW124343   6.416   8.398   5.861
 7482SOL    HW224344   6.357   8.519   5.929
 7483SOL     OW24345  14.411   4.557   9.943
 7483SOL    HW124346  14.503   4.574   9.965
 7483SOL    HW224347  14.386   4.485  10.001
 7484SOL     OW24348   6.223   3.653   8.599
 7484SOL    HW124349   6.310   3.688   8.615
 7484SOL    HW224350   6.185   3.710   8.532
 7485SOL     OW24351  12.213   9.607  11.637
 7485SOL    HW124352  12.206   9.603  11.542
 7485SOL    HW224353  12.146   9.547  11.669
 7486SOL     OW24354   4.346  11.761   0.719
 7486SOL    HW124355   4.424  11.789   0.767
 7486SOL    HW224356   4.277  11.821   0.749
 7487SOL     OW24357  13.788   2.298   7.206
 7487SOL    HW124358  13.718   2.359   7.227
 7487SOL    HW224359  13.824   2.331   7.124
 7488SOL     OW24360   3.142   1.433   1.654
 7488SOL    HW124361   3.057   1.389   1.657
 7488SOL    HW224362   3.124   1.520   1.618
 7489SOL     OW24363   2.282   4.494   0.245
 7489SOL    HW124364   2.276   4.493   0.149
 7489SOL    HW224365   2.191   4.488   0.274
 7490SOL     OW24366   5.124  12.245   0.997
 7490SOL    HW124367   5.109  12.324   0.945
 7490SOL    HW224368   5.115  12.274   1.088
 7491SOL     OW24369   3.568  14.776   0.315
 7491SOL    HW124370   3.657  14.804   0.339
 7491SOL    HW224371   3.554  14.696   0.366
 7492SOL     OW24372   5.069  12.804   2.295
 7492SOL    HW124373   5.021  12.721   2.301
 7492SOL    HW224374   5.030  12.849   2.221
 7493SOL     OW24375  10.480   5.016   9.661
 7493SOL    HW124376  10.387   5.025   9.682
 7493SOL    HW224377  10.483   5.021   9.565
 7494SOL     OW24378   8.061  10.106   0.296
 7494SOL    HW124379   8.037  10.087   0.386
 7494SOL    HW224380   8.001  10.053   0.243
 7495SOL     OW24381  10.271  13.811   3.949
 7495SOL    HW124382  10.293  13.743   4.011
 7495SOL    HW224383  10.286  13.893   3.996
 7496SOL     OW24384   5.211   7.954   6.720
 7496SOL    HW124385   5.158   7.998   6.786
 7496SOL    HW224386   5.248   7.878   6.766
 7497SOL     OW24387   5.344   9.511   2.053
 7497SOL    HW124388   5.266   9.556   2.020
 7497SOL    HW224389   5.315   9.471   2.135
 7498SOL     OW24390   1.362   2.486   5.011
 7498SOL    HW124391   1.350   2.501   4.918
 7498SOL    HW224392   1.274   2.497   5.048
 7499SOL     OW24393   8.943   1.395   5.838
 7499SOL    HW124394   8.962   1.362   5.926
 7499SOL    HW224395   9.001   1.470   5.827
 7500SOL     OW24396   3.346   0.296   7.067
 7500SOL    HW124397   3.331   0.369   7.006
 7500SOL    HW224398   3.261   0.252   7.072
 7501SOL     OW24399  12.930  14.835  12.093
 7501SOL    HW124400  13.022  14.812  12.110
 7501SOL    HW224401  12.883  14.753  12.103
 7502SOL     OW24402   7.540  13.350   9.686
 7502SOL    HW124403   7.506  13.391   9.765
 7502SOL    HW224404   7.572  13.264   9.715
 7503SOL     OW24405   6.157   2.318   0.459
 7503SOL    HW124406   6.081   2.262   0.477
 7503SOL    HW224407   6.206   2.270   0.392
 7504SOL     OW24408   5.251   4.436   6.185
 7504SOL    HW124409   5.307   4.398   6.117
 7504SOL    HW224410   5.236   4.363   6.246
 7505SOL     OW24411  10.841   1.556  12.741
 7505SOL    HW124412  10.936   1.550  12.742
 7505SOL    HW224413  10.813   1.496  12.811
 7506SOL     OW24414  10.005   8.417   7.378
 7506SOL    HW124415  10.067   8.349   7.405
 7506SOL    HW224416   9.958   8.380   7.303
 7507SOL     OW24417  13.100  10.929  12.670
 7507SOL    HW124418  13.130  10.858  12.613
 7507SOL    HW224419  13.161  10.929  12.744
 7508SOL     OW24420   1.333   8.474   8.670
 7508SOL    HW124421   1.424   8.498   8.687
 7508SOL    HW224422   1.281   8.546   8.706
 7509SOL     OW24423   0.087   0.040  11.260
 7509SOL    HW124424   0.056   0.131  11.257
 7509SOL    HW224425   0.012  14.867  11.228
 7510SOL     OW24426   8.258  13.687   3.405
 7510SOL    HW124427   8.182  13.668   3.459
 7510SOL    HW224428   8.322  13.620   3.430
 7511SOL     OW24429  13.015   2.070   0.527
 7511SOL    HW124430  12.998   1.988   0.574
 7511SOL    HW224431  13.110   2.069   0.513
 7512SOL     OW24432  10.143   8.358   5.397
 7512SOL    HW124433  10.238   8.356   5.390
 7512SOL    HW224434  10.126   8.410   5.475
 7513SOL     OW24435  11.650   8.389   5.928
 7513SOL    HW124436  11.605   8.368   5.846
 7513SOL    HW224437  11.742   8.400   5.903
 7514SOL     OW24438   3.487   8.928   4.895
 7514SOL    HW124439   3.535   8.851   4.925
 7514SOL    HW224440   3.466   8.976   4.974
 7515SOL     OW24441  14.707  14.734  11.952
 7515SOL    HW124442  14.766  14.682  11.898
 7515SOL    HW224443  14.621  14.692  11.942
 7516SOL     OW24444  11.521   3.939   3.392
 7516SOL    HW124445  11.483   4.003   3.453
 7516SOL    HW224446  11.464   3.943   3.315
 7517SOL     OW24447  10.280   6.141  10.359
 7517SOL    HW124448  10.275   6.233  10.334
 7517SOL    HW224449  10.295   6.094  10.277
 7518SOL     OW24450   6.853   9.962   1.724
 7518SOL    HW124451   6.913   9.894   1.695
 7518SOL    HW224452   6.766   9.928   1.704
 7519SOL     OW24453   9.885   1.231   1.775
 7519SOL    HW124454   9.847   1.208   1.690
 7519SOL    HW224455   9.941   1.307   1.756
 7520SOL     OW24456   2.273  14.352   5.430
 7520SOL    HW124457   2.297  14.396   5.348
 7520SOL    HW224458   2.200  14.295   5.406
 7521SOL     OW24459  12.107  13.435  12.139
 7521SOL    HW124460  12.110  13.524  12.104
 7521SOL    HW224461  12.130  13.444  12.231
 7522SOL     OW24462   8.685   9.736   4.798
 7522SOL    HW124463   8.744   9.686   4.741
 7522SOL    HW224464   8.728   9.733   4.884
 7523SOL     OW24465   5.296   0.247  13.380
 7523SOL    HW124466   5.371   0.194  13.408
 7523SOL    HW224467   5.220   0.202  13.416
 7524SOL     OW24468   5.719   6.141   9.106
 7524SOL    HW124469   5.668   6.071   9.147
 7524SOL    HW224470   5.772   6.177   9.177
 7525SOL     OW24471   9.190   6.425  11.902
 7525SOL    HW124472   9.209   6.492  11.837
 7525SOL    HW224473   9.273   6.381  11.916
 7526SOL     OW24474   7.354  12.909   7.500
 7526SOL    HW124475   7.312  12.984   7.543
 7526SOL    HW224476   7.356  12.841   7.567
 7527SOL     OW24477   6.926  11.602   6.861
 7527SOL    HW124478   7.017  11.634   6.865
 7527SOL    HW224479   6.883  11.662   6.800
 7528SOL     OW24480   7.560   0.606   7.045
 7528SOL    HW124481   7.483   0.663   7.051
 7528SOL    HW224482   7.555   0.569   6.957
 7529SOL     OW24483   9.270   5.970   3.694
 7529SOL    HW124484   9.356   5.941   3.661
 7529SOL    HW224485   9.266   5.936   3.783
 7530SOL     OW24486   8.163  13.574   0.257
 7530SOL    HW124487   8.175  13.525   0.176
 7530SOL    HW224488   8.249  13.610   0.277
 7531SOL     OW24489   0.610  14.053   6.413
 7531SOL    HW124490   0.616  14.007   6.497
 7531SOL    HW224491   0.593  13.984   6.349
 7532SOL     OW24492  10.238  12.200  11.367
 7532SOL    HW124493  10.234  12.284  11.322
 7532SOL    HW224494  10.258  12.136  11.299
 7533SOL     OW24495   7.007   5.162   9.396
 7533SOL    HW124496   7.009   5.067   9.413
 7533SOL    HW224497   6.913   5.182   9.388
 7534SOL     OW24498   3.709   8.468   1.253
 7534SOL    HW124499   3.750   8.550   1.225
 7534SOL    HW224500   3.740   8.403   1.190
 7535SOL     OW24501   2.475  11.294   2.322
 7535SOL    HW124502   2.424  11.360   2.275
 7535SOL    HW224503   2.430  11.285   2.406
 7536SOL     OW24504  12.465  11.162   0.877
 7536SOL    HW124505  12.515  11.081   0.881
 7536SOL    HW224506  12.389  11.141   0.824
 7537SOL     OW24507  13.156  12.817   6.436
 7537SOL    HW124508  13.063  12.838   6.428
 7537SOL    HW224509  13.194  12.892   6.483
 7538SOL     OW24510   0.821  12.873   3.500
 7538SOL    HW124511   0.775  12.881   3.416
 7538SOL    HW224512   0.834  12.779   3.512
 7539SOL     OW24513  12.046   5.464  12.561
 7539SOL    HW124514  12.125   5.412  12.547
 7539SOL    HW224515  12.077   5.553  12.575
 7540SOL     OW24516  13.709  13.087   5.233
 7540SOL    HW124517  13.772  13.075   5.305
 7540SOL    HW224518  13.694  12.999   5.199
 7541SOL     OW24519   0.182   2.161   3.820
 7541SOL    HW124520   0.215   2.073   3.836
 7541SOL    HW224521   0.260   2.215   3.813
 7542SOL     OW24522  14.409  14.448  10.566
 7542SOL    HW124523  14.429  14.376  10.506
 7542SOL    HW224524  14.380  14.405  10.646
 7543SOL     OW24525  12.574   7.426   8.241
 7543SOL    HW124526  12.583   7.390   8.329
 7543SOL    HW224527  12.658   7.468   8.223
 7544SOL     OW24528   6.158   3.600   8.968
 7544SOL    HW124529   6.145   3.693   8.986
 7544SOL    HW224530   6.184   3.597   8.875
 7545SOL     OW24531   9.714   1.481  10.171
 7545SOL    HW124532   9.688   1.523  10.089
 7545SOL    HW224533   9.810   1.483  10.170
 7546SOL     OW24534   1.648  14.244  11.969
 7546SOL    HW124535   1.735  14.271  11.999
 7546SOL    HW224536   1.587  14.293  12.026
 7547SOL     OW24537   2.947   3.491  13.479
 7547SOL    HW124538   2.876   3.464  13.538
 7547SOL    HW224539   2.918   3.575  13.444
 7548SOL     OW24540   0.279   3.645  12.409
 7548SOL    HW124541   0.334   3.721  12.427
 7548SOL    HW224542   0.190   3.675  12.424
 7549SOL     OW24543  10.344   7.623  13.647
 7549SOL    HW124544  10.346   7.527  13.639
 7549SOL    HW224545  10.383   7.655  13.566
 7550SOL     OW24546   8.294   2.176   3.912
 7550SOL    HW124547   8.355   2.250   3.908
 7550SOL    HW224548   8.282   2.150   3.821
 7551SOL     OW24549   5.851   7.101  13.235
 7551SOL    HW124550   5.766   7.128  13.268
 7551SOL    HW224551   5.872   7.164  13.166
 7552SOL     OW24552   3.953  10.920  10.170
 7552SOL    HW124553   4.036  10.921  10.218
 7552SOL    HW224554   3.964  10.850  10.106
 7553SOL     OW24555  13.954   5.561   6.457
 7553SOL    HW124556  14.014   5.513   6.400
 7553SOL    HW224557  14.010   5.593   6.528
 7554SOL     OW24558  14.129  12.996   9.910
 7554SOL    HW124559  14.128  12.907   9.874
 7554SOL    HW224560  14.037  13.016   9.926
 7555SOL     OW24561   2.329   1.226   7.542
 7555SOL    HW124562   2.254   1.167   7.530
 7555SOL    HW224563   2.296   1.295   7.599
 7556SOL     OW24564  12.729   4.697   3.837
 7556SOL    HW124565  12.707   4.606   3.817
 7556SOL    HW224566  12.798   4.692   3.902
 7557SOL     OW24567   1.773   6.711   4.477
 7557SOL    HW124568   1.715   6.779   4.510
 7557SOL    HW224569   1.748   6.633   4.526
 7558SOL     OW24570   8.215   9.354   1.588
 7558SOL    HW124571   8.172   9.286   1.639
 7558SOL    HW224572   8.144   9.414   1.564
 7559SOL     OW24573   7.323  14.682   4.443
 7559SOL    HW124574   7.228  14.675   4.457
 7559SOL    HW224575   7.332  14.690   4.348
 7560SOL     OW24576   6.211   9.229   9.512
 7560SOL    HW124577   6.133   9.174   9.496
 7560SOL    HW224578   6.187   9.314   9.476
 7561SOL     OW24579  12.987  10.283  11.364
 7561SOL    HW124580  12.896  10.290  11.335
 7561SOL    HW224581  13.004  10.367  11.408
 7562SOL     OW24582  13.469   5.999   2.665
 7562SOL    HW124583  13.537   5.939   2.696
 7562SOL    HW224584  13.445   6.049   2.744
 7563SOL     OW24585  13.973  12.004  12.247
 7563SOL    HW124586  13.897  12.052  12.279
 7563SOL    HW224587  13.999  12.050  12.168
 7564SOL     OW24588   5.120  14.831   7.590
 7564SOL    HW124589   5.052  14.830   7.524
 7564SOL    HW224590   5.202  14.826   7.541
 7565SOL     OW24591   3.912   8.133   4.131
 7565SOL    HW124592   4.000   8.160   4.105
 7565SOL    HW224593   3.858   8.210   4.114
 7566SOL     OW24594   1.851   5.978  10.880
 7566SOL    HW124595   1.827   5.919  10.808
 7566SOL    HW224596   1.944   5.961  10.896
 7567SOL     OW24597   4.715   5.837   1.272
 7567SOL    HW124598   4.644   5.821   1.335
 7567SOL    HW224599   4.764   5.755   1.270
 7568SOL     OW24600   8.807   7.988  12.745
 7568SOL    HW124601   8.847   8.057  12.798
 7568SOL    HW224602   8.716   7.985  12.774
 7569SOL     OW24603   5.072   5.813   9.854
 7569SOL    HW124604   5.006   5.755   9.894
 7569SOL    HW224605   5.024   5.894   9.837
 7570SOL     OW24606  10.617   5.790  12.011
 7570SOL    HW124607  10.599   5.818  12.100
 7570SOL    HW224608  10.635   5.872  11.963
 7571SOL     OW24609   8.194   1.874   3.089
 7571SOL    HW124610   8.181   1.924   3.170
 7571SOL    HW224611   8.288   1.853   3.089
 7572SOL     OW24612   7.508  14.345   8.758
 7572SOL    HW124613   7.578  14.405   8.732
 7572SOL    HW224614   7.427  14.394   8.744
 7573SOL     OW24615   3.954   8.472   0.473
 7573SOL    HW124616   4.017   8.401   0.488
 7573SOL    HW224617   3.905   8.444   0.396
 7574SOL     OW24618   3.213   4.798  10.229
 7574SOL    HW124619   3.210   4.884  10.273
 7574SOL    HW224620   3.307   4.782  10.216
 7575SOL     OW24621   1.893   5.398  10.119
 7575SOL    HW124622   1.843   5.421  10.041
 7575SOL    HW224623   1.949   5.326  10.092
 7576SOL     OW24624   0.189   3.117  10.723
 7576SOL    HW124625   0.209   3.026  10.744
 7576SOL    HW224626   0.096   3.117  10.701
 7577SOL     OW24627  10.709   1.061   8.518
 7577SOL    HW124628  10.678   0.984   8.470
 7577SOL    HW224629  10.804   1.054   8.516
 7578SOL     OW24630   9.457   0.409   6.296
 7578SOL    HW124631   9.491   0.424   6.207
 7578SOL    HW224632   9.522   0.353   6.337
 7579SOL     OW24633   7.639   3.687   5.030
 7579SOL    HW124634   7.606   3.709   5.117
 7579SOL    HW224635   7.578   3.730   4.970
 7580SOL     OW24636   1.696   2.237  13.623
 7580SOL    HW124637   1.774   2.282  13.589
 7580SOL    HW224638   1.662   2.188  13.549
 7581SOL     OW24639   0.343  12.013   2.889
 7581SOL    HW124640   0.413  12.026   2.824
 7581SOL    HW224641   0.390  11.989   2.969
 7582SOL     OW24642   8.192   1.684  10.473
 7582SOL    HW124643   8.282   1.660  10.495
 7582SOL    HW224644   8.197   1.717  10.383
 7583SOL     OW24645   9.689   5.716   9.115
 7583SOL    HW124646   9.679   5.803   9.076
 7583SOL    HW224647   9.601   5.679   9.116
 7584SOL     OW24648   0.643   9.367   2.394
 7584SOL    HW124649   0.566   9.397   2.346
 7584SOL    HW224650   0.715   9.373   2.330
 7585SOL     OW24651   8.718   1.461   2.149
 7585SOL    HW124652   8.713   1.392   2.216
 7585SOL    HW224653   8.721   1.414   2.066
 7586SOL     OW24654  10.026   9.466   1.029
 7586SOL    HW124655  10.067   9.493   0.947
 7586SOL    HW224656  10.031   9.371   1.029
 7587SOL     OW24657   3.068  10.314   5.396
 7587SOL    HW124658   3.054  10.282   5.485
 7587SOL    HW224659   3.075  10.409   5.406
 7588SOL     OW24660   4.448   4.836   9.051
 7588SOL    HW124661   4.481   4.877   8.971
 7588SOL    HW224662   4.481   4.747   9.048
 7589SOL     OW24663   7.874  13.512  14.873
 7589SOL    HW124664   7.892  13.419   0.004
 7589SOL    HW224665   7.782  13.521   0.021
 7590SOL     OW24666   4.473   5.882   1.389
 7590SOL    HW124667   4.475   5.971   1.356
 7590SOL    HW224668   4.381   5.857   1.387
 7591SOL     OW24669   4.752   4.972  12.169
 7591SOL    HW124670   4.763   4.973  12.074
 7591SOL    HW224671   4.841   4.985  12.204
 7592SOL     OW24672  14.170   7.320   4.224
 7592SOL    HW124673  14.097   7.297   4.281
 7592SOL    HW224674  14.208   7.399   4.263
 7593SOL     OW24675  13.299  12.201   2.318
 7593SOL    HW124676  13.259  12.212   2.232
 7593SOL    HW224677  13.360  12.128   2.308
 7594SOL     OW24678   2.314  12.134   1.031
 7594SOL    HW124679   2.315  12.183   1.113
 7594SOL    HW224680   2.337  12.198   0.964
 7595SOL     OW24681   9.410   4.495   2.074
 7595SOL    HW124682   9.451   4.563   2.127
 7595SOL    HW224683   9.457   4.415   2.098
 7596SOL     OW24684   3.786  13.264  11.763
 7596SOL    HW124685   3.751  13.205  11.831
 7596SOL    HW224686   3.714  13.275  11.702
 7597SOL     OW24687  10.363   4.109  14.528
 7597SOL    HW124688  10.271   4.130  14.542
 7597SOL    HW224689  10.367   4.014  14.534
 7598SOL     OW24690   7.976  10.055  10.175
 7598SOL    HW124691   8.058  10.083  10.215
 7598SOL    HW224692   7.932  10.004  10.243
 7599SOL     OW24693  11.663   1.388   4.063
 7599SOL    HW124694  11.725   1.426   4.001
 7599SOL    HW224695  11.579   1.426   4.040
 7600SOL     OW24696  10.360   9.211   6.242
 7600SOL    HW124697  10.330   9.266   6.315
 7600SOL    HW224698  10.453   9.198   6.259
 7601SOL     OW24699  13.541  11.935  13.070
 7601SOL    HW124700  13.585  12.020  13.077
 7601SOL    HW224701  13.611  11.874  13.047
 7602SOL     OW24702  10.476   9.573   1.588
 7602SOL    HW124703  10.567   9.580   1.616
 7602SOL    HW224704  10.437   9.509   1.648
 7603SOL     OW24705   1.805  11.709   0.714
 7603SOL    HW124706   1.711  11.704   0.697
 7603SOL    HW224707   1.829  11.620   0.740
 7604SOL     OW24708  10.271   1.122   0.854
 7604SOL    HW124709  10.222   1.067   0.794
 7604SOL    HW224710  10.224   1.115   0.937
 7605SOL     OW24711   0.728   6.193  14.651
 7605SOL    HW124712   0.651   6.137  14.665
 7605SOL    HW224713   0.754   6.176  14.561
 7606SOL     OW24714   3.606  13.330  13.995
 7606SOL    HW124715   3.585  13.388  13.922
 7606SOL    HW224716   3.693  13.357  14.023
 7607SOL     OW24717  10.216   0.808  13.521
 7607SOL    HW124718  10.172   0.764  13.448
 7607SOL    HW224719  10.268   0.877  13.481
 7608SOL     OW24720  10.264   1.408   8.697
 7608SOL    HW124721  10.239   1.316   8.683
 7608SOL    HW224722  10.269   1.417   8.792
 7609SOL     OW24723  10.024   3.412  10.021
 7609SOL    HW124724  10.110   3.386   9.987
 7609SOL    HW224725   9.995   3.336  10.071
 7610SOL     OW24726   6.793   9.952   2.029
 7610SOL    HW124727   6.704   9.923   2.045
 7610SOL    HW224728   6.790   9.994   1.943
 7611SOL     OW24729   3.007   1.281   5.822
 7611SOL    HW124730   3.089   1.329   5.831
 7611SOL    HW224731   2.959   1.299   5.903
 7612SOL     OW24732  12.273   1.806   5.826
 7612SOL    HW124733  12.208   1.875   5.840
 7612SOL    HW224734  12.253   1.741   5.893
 7613SOL     OW24735   2.187  12.945  11.807
 7613SOL    HW124736   2.174  12.862  11.761
 7613SOL    HW224737   2.181  12.922  11.900
 7614SOL     OW24738  11.351   8.070   6.984
 7614SOL    HW124739  11.321   8.033   7.067
 7614SOL    HW224740  11.357   8.164   7.001
 7615SOL     OW24741  13.431   5.417   4.000
 7615SOL    HW124742  13.463   5.339   3.955
 7615SOL    HW224743  13.510   5.468   4.019
 7616SOL     OW24744   2.234   1.581  11.879
 7616SOL    HW124745   2.271   1.660  11.839
 7616SOL    HW224746   2.189   1.536  11.807
 7617SOL     OW24747   7.411  10.407   4.178
 7617SOL    HW124748   7.451  10.399   4.265
 7617SOL    HW224749   7.459  10.344   4.124
 7618SOL     OW24750   3.790   4.640  11.017
 7618SOL    HW124751   3.841   4.646  11.098
 7618SOL    HW224752   3.763   4.549  11.011
 7619SOL     OW24753   8.436   0.265   4.403
 7619SOL    HW124754   8.354   0.225   4.373
 7619SOL    HW224755   8.409   0.331   4.467
 7620SOL     OW24756   4.283   3.636  12.653
 7620SOL    HW124757   4.368   3.652  12.612
 7620SOL    HW224758   4.295   3.664  12.744
 7621SOL     OW24759   1.285   9.010   9.103
 7621SOL    HW124760   1.220   9.079   9.090
 7621SOL    HW224761   1.249   8.934   9.057
 7622SOL     OW24762   2.891   3.754  11.008
 7622SOL    HW124763   2.893   3.849  11.008
 7622SOL    HW224764   2.919   3.730  10.919
 7623SOL     OW24765  13.987   0.789   7.489
 7623SOL    HW124766  14.067   0.789   7.540
 7623SOL    HW224767  13.932   0.721   7.528
 7624SOL     OW24768  13.565   0.270   0.559
 7624SOL    HW124769  13.535   0.320   0.635
 7624SOL    HW224770  13.484   0.237   0.520
 7625SOL     OW24771   5.802   3.080   9.808
 7625SOL    HW124772   5.811   3.136   9.885
 7625SOL    HW224773   5.775   2.995   9.844
 7626SOL     OW24774   2.117   9.884   7.975
 7626SOL    HW124775   2.212   9.884   7.958
 7626SOL    HW224776   2.080   9.839   7.899
 7627SOL     OW24777   8.104   3.050   8.915
 7627SOL    HW124778   8.091   3.044   8.821
 7627SOL    HW224779   8.164   2.979   8.936
 7628SOL     OW24780   0.199   4.571   7.522
 7628SOL    HW124781   0.191   4.516   7.600
 7628SOL    HW224782   0.150   4.525   7.455
 7629SOL     OW24783   4.357  12.739  12.455
 7629SOL    HW124784   4.403  12.807  12.407
 7629SOL    HW224785   4.302  12.695  12.390
 7630SOL     OW24786   0.667   8.824   2.351
 7630SOL    HW124787   0.759   8.831   2.375
 7630SOL    HW224788   0.633   8.913   2.358
 7631SOL     OW24789   8.114   4.246   0.358
 7631SOL    HW124790   8.111   4.150   0.366
 7631SOL    HW224791   8.076   4.264   0.272
 7632SOL     OW24792   0.840  12.109   7.673
 7632SOL    HW124793   0.896  12.051   7.621
 7632SOL    HW224794   0.846  12.076   7.762
 7633SOL     OW24795   4.335   8.010   3.135
 7633SOL    HW124796   4.271   7.981   3.200
 7633SOL    HW224797   4.326   8.105   3.134
 7634SOL     OW24798   0.104  14.150  13.018
 7634SOL    HW124799   0.113  14.159  13.113
 7634SOL    HW224800   0.109  14.239  12.984
 7635SOL     OW24801   1.227  12.195   9.932
 7635SOL    HW124802   1.264  12.112   9.902
 7635SOL    HW224803   1.136  12.191   9.905
 7636SOL     OW24804  10.695  11.373   2.935
 7636SOL    HW124805  10.675  11.455   2.979
 7636SOL    HW224806  10.736  11.399   2.852
 7637SOL     OW24807   5.484  10.246   4.321
 7637SOL    HW124808   5.471  10.188   4.246
 7637SOL    HW224809   5.444  10.200   4.394
 7638SOL     OW24810  10.199  12.810   4.606
 7638SOL    HW124811  10.230  12.727   4.643
 7638SOL    HW224812  10.232  12.876   4.666
 7639SOL     OW24813   6.658  10.122  14.056
 7639SOL    HW124814   6.566  10.100  14.043
 7639SOL    HW224815   6.689  10.056  14.119
 7640SOL     OW24816   5.667   2.679   3.894
 7640SOL    HW124817   5.753   2.654   3.859
 7640SOL    HW224818   5.607   2.673   3.820
 7641SOL     OW24819   2.458  10.721   2.326
 7641SOL    HW124820   2.506  10.639   2.315
 7641SOL    HW224821   2.527  10.788   2.331
 7642SOL     OW24822   8.365   9.052  10.386
 7642SOL    HW124823   8.366   9.117  10.456
 7642SOL    HW224824   8.429   8.986  10.414
 7643SOL     OW24825   3.945   4.876   0.705
 7643SOL    HW124826   3.930   4.782   0.709
 7643SOL    HW224827   3.866   4.912   0.665
 7644SOL     OW24828  12.888   7.319   6.568
 7644SOL    HW124829  12.836   7.399   6.572
 7644SOL    HW224830  12.955   7.337   6.502
 7645SOL     OW24831  13.888   4.453  13.781
 7645SOL    HW124832  13.818   4.453  13.846
 7645SOL    HW224833  13.923   4.364  13.782
 7646SOL     OW24834   3.162   5.325  10.617
 7646SOL    HW124835   3.128   5.240  10.589
 7646SOL    HW224836   3.121   5.340  10.702
 7647SOL     OW24837   9.088  14.037   0.450
 7647SOL    HW124838   9.091  13.945   0.427
 7647SOL    HW224839   9.157  14.077   0.397
 7648SOL     OW24840  10.826   8.832   2.519
 7648SOL    HW124841  10.793   8.844   2.430
 7648SOL    HW224842  10.749   8.841   2.575
 7649SOL     OW24843   7.401   2.712   3.890
 7649SOL    HW124844   7.435   2.716   3.801
 7649SOL    HW224845   7.342   2.787   3.897
 7650SOL     OW24846   6.624   7.453  11.994
 7650SOL    HW124847   6.615   7.529  12.051
 7650SOL    HW224848   6.552   7.462  11.931
 7651SOL     OW24849  10.480   3.200  14.285
 7651SOL    HW124850  10.542   3.132  14.260
 7651SOL    HW224851  10.446   3.233  14.202
 7652SOL     OW24852   9.676  12.538   6.429
 7652SOL    HW124853   9.733  12.493   6.491
 7652SOL    HW224854   9.730  12.610   6.396
 7653SOL     OW24855  12.059  12.085   5.787
 7653SOL    HW124856  12.000  12.121   5.721
 7653SOL    HW224857  12.063  12.153   5.854
 7654SOL     OW24858   0.699   6.659   3.241
 7654SOL    HW124859   0.750   6.628   3.166
 7654SOL    HW224860   0.699   6.755   3.233
 7655SOL     OW24861   4.709   9.718  10.782
 7655SOL    HW124862   4.664   9.796  10.815
 7655SOL    HW224863   4.709   9.728  10.687
 7656SOL     OW24864   7.937   6.924   5.501
 7656SOL    HW124865   7.849   6.935   5.537
 7656SOL    HW224866   7.974   7.013   5.501
 7657SOL     OW24867   1.663   9.598  11.204
 7657SOL    HW124868   1.639   9.684  11.170
 7657SOL    HW224869   1.669   9.611  11.299
 7658SOL     OW24870   5.575   4.274   2.486
 7658SOL    HW124871   5.552   4.256   2.395
 7658SOL    HW224872   5.645   4.340   2.480
 7659SOL     OW24873  12.545   2.415  13.468
 7659SOL    HW124874  12.602   2.382  13.537
 7659SOL    HW224875  12.458   2.383  13.491
 7660SOL     OW24876   6.933   0.771  11.778
 7660SOL    HW124877   7.018   0.759  11.821
 7660SOL    HW224878   6.913   0.685  11.739
 7661SOL     OW24879   2.108   3.862   6.834
 7661SOL    HW124880   2.027   3.852   6.784
 7661SOL    HW224881   2.100   3.798   6.904
 7662SOL     OW24882   3.953   3.866   6.267
 7662SOL    HW124883   3.871   3.898   6.230
 7662SOL    HW224884   3.957   3.775   6.240
 7663SOL     OW24885   5.990   2.030  14.638
 7663SOL    HW124886   5.972   1.936  14.632
 7663SOL    HW224887   6.060   2.037  14.703
 7664SOL     OW24888   5.675  14.570  10.193
 7664SOL    HW124889   5.742  14.540  10.132
 7664SOL    HW224890   5.653  14.492  10.245
 7665SOL     OW24891   7.183   4.207   4.859
 7665SOL    HW124892   7.260   4.260   4.880
 7665SOL    HW224893   7.115   4.240   4.918
 7666SOL     OW24894   1.567  13.430  14.337
 7666SOL    HW124895   1.569  13.490  14.263
 7666SOL    HW224896   1.648  13.449  14.385
 7667SOL     OW24897   7.754   2.806   6.625
 7667SOL    HW124898   7.793   2.766   6.703
 7667SOL    HW224899   7.660   2.804   6.642
 7668SOL     OW24900  12.810   9.321   9.067
 7668SOL    HW124901  12.883   9.286   9.016
 7668SOL    HW224902  12.735   9.269   9.040
 7669SOL     OW24903  10.402  13.355   8.096
 7669SOL    HW124904  10.354  13.346   8.014
 7669SOL    HW224905  10.347  13.310   8.160
 7670SOL     OW24906   0.473  13.340   9.573
 7670SOL    HW124907   0.464  13.272   9.506
 7670SOL    HW224908   0.567  13.346   9.588
 7671SOL     OW24909  13.949   8.036   1.317
 7671SOL    HW124910  13.867   8.001   1.284
 7671SOL    HW224911  13.934   8.051   1.410
 7672SOL     OW24912   1.690  10.214  13.602
 7672SOL    HW124913   1.718  10.289  13.653
 7672SOL    HW224914   1.737  10.221  13.519
 7673SOL     OW24915   3.922  11.123   4.131
 7673SOL    HW124916   3.942  11.108   4.224
 7673SOL    HW224917   3.992  11.080   4.084
 7674SOL     OW24918   2.651   6.777   4.365
 7674SOL    HW124919   2.637   6.844   4.431
 7674SOL    HW224920   2.707   6.819   4.299
 7675SOL     OW24921   3.647   1.803   4.722
 7675SOL    HW124922   3.650   1.712   4.749
 7675SOL    HW224923   3.595   1.803   4.641
 7676SOL     OW24924  12.415   2.268   8.556
 7676SOL    HW124925  12.335   2.232   8.517
 7676SOL    HW224926  12.486   2.223   8.509
 7677SOL     OW24927  12.545   6.333   4.932
 7677SOL    HW124928  12.604   6.270   4.972
 7677SOL    HW224929  12.491   6.364   5.004
 7678SOL     OW24930   2.517  13.843  14.781
 7678SOL    HW124931   2.556  13.930  14.792
 7678SOL    HW224932   2.455  13.836  14.853
 7679SOL     OW24933   6.481  10.293  10.337
 7679SOL    HW124934   6.408  10.344  10.372
 7679SOL    HW224935   6.459  10.279  10.245
 7680SOL     OW24936   7.279   7.901  13.516
 7680SOL    HW124937   7.277   7.808  13.538
 7680SOL    HW224938   7.355   7.935  13.563
 7681SOL     OW24939   1.767   6.489   0.254
 7681SOL    HW124940   1.823   6.411   0.255
 7681SOL    HW224941   1.705   6.475   0.325
 7682SOL     OW24942  14.799  11.310  11.768
 7682SOL    HW124943  14.823  11.366  11.842
 7682SOL    HW224944  14.710  11.337  11.746
 7683SOL     OW24945   7.570   6.027  14.472
 7683SOL    HW124946   7.594   6.116  14.448
 7683SOL    HW224947   7.474   6.029  14.480
 7684SOL     OW24948  14.177   5.145   0.086
 7684SOL    HW124949  14.149   5.115  14.877
 7684SOL    HW224950  14.271   5.160   0.076
 7685SOL     OW24951  11.466  12.225   8.965
 7685SOL    HW124952  11.528  12.254   8.897
 7685SOL    HW224953  11.380  12.253   8.933
 7686SOL     OW24954  14.194   5.721   6.278
 7686SOL    HW124955  14.189   5.626   6.292
 7686SOL    HW224956  14.112   5.743   6.234
 7687SOL     OW24957   4.315   4.043  11.361
 7687SOL    HW124958   4.260   4.040  11.283
 7687SOL    HW224959   4.348   4.133  11.363
 7688SOL     OW24960  13.463   5.114   7.924
 7688SOL    HW124961  13.501   5.057   7.991
 7688SOL    HW224962  13.537   5.168   7.894
 7689SOL     OW24963   9.300  12.472   6.164
 7689SOL    HW124964   9.358  12.435   6.230
 7689SOL    HW224965   9.317  12.421   6.085
 7690SOL     OW24966  11.729  12.563   3.903
 7690SOL    HW124967  11.652  12.534   3.853
 7690SOL    HW224968  11.803  12.523   3.857
 7691SOL     OW24969   7.814   6.545  14.293
 7691SOL    HW124970   7.837   6.605  14.221
 7691SOL    HW224971   7.757   6.480  14.252
 7692SOL     OW24972   8.425   1.846  12.254
 7692SOL    HW124973   8.518   1.829  12.267
 7692SOL    HW224974   8.401   1.793  12.178
 7693SOL     OW24975  10.984  13.844   0.673
 7693SOL    HW124976  11.011  13.820   0.762
 7693SOL    HW224977  10.937  13.927   0.684
 7694SOL     OW24978  13.739   9.372  11.980
 7694SOL    HW124979  13.711   9.431  11.910
 7694SOL    HW224980  13.665   9.312  11.993
 7695SOL     OW24981   5.455  12.147   4.975
 7695SOL    HW124982   5.404  12.067   4.964
 7695SOL    HW224983   5.393  12.210   5.013
 7696SOL     OW24984   4.789   1.310   4.788
 7696SOL    HW124985   4.863   1.252   4.808
 7696SOL    HW224986   4.739   1.312   4.870
 7697SOL     OW24987   5.526   8.147   3.308
 7697SOL    HW124988   5.562   8.228   3.344
 7697SOL    HW224989   5.494   8.172   3.221
 7698SOL     OW24990   6.969   0.818  13.488
 7698SOL    HW124991   7.040   0.855  13.541
 7698SOL    HW224992   6.906   0.784  13.552
 7699SOL     OW24993   6.547   9.167   2.599
 7699SOL    HW124994   6.520   9.229   2.667
 7699SOL    HW224995   6.552   9.220   2.519
 7700SOL     OW24996  11.487  14.670   1.189
 7700SOL    HW124997  11.439  14.677   1.272
 7700SOL    HW224998  11.437  14.608   1.137
 7701SOL     OW24999  14.557   1.205  11.324
 7701SOL    HW125000  14.503   1.241  11.394
 7701SOL    HW225001  14.515   1.122  11.302
 7702SOL     OW25002   5.126   3.539  12.146
 7702SOL    HW125003   5.146   3.508  12.057
 7702SOL    HW225004   5.072   3.617  12.132
 7703SOL     OW25005   3.404  13.878  11.304
 7703SOL    HW125006   3.395  13.786  11.279
 7703SOL    HW225007   3.319  13.903  11.339
 7704SOL     OW25008   5.606   8.807   6.402
 7704SOL    HW125009   5.643   8.871   6.462
 7704SOL    HW225010   5.608   8.724   6.450
 7705SOL     OW25011  13.462   8.483   9.585
 7705SOL    HW125012  13.412   8.491   9.504
 7705SOL    HW225013  13.398   8.451   9.649
 7706SOL     OW25014  10.751   4.676  10.263
 7706SOL    HW125015  10.676   4.619  10.247
 7706SOL    HW225016  10.827   4.623  10.239
 7707SOL     OW25017   6.709  14.731   2.011
 7707SOL    HW125018   6.753  14.735   2.096
 7707SOL    HW225019   6.636  14.793   2.018
 7708SOL     OW25020  11.780  13.430  13.648
 7708SOL    HW125021  11.830  13.408  13.570
 7708SOL    HW225022  11.784  13.526  13.654
 7709SOL     OW25023   4.750  12.832  13.093
 7709SOL    HW125024   4.754  12.761  13.157
 7709SOL    HW225025   4.659  12.864  13.099
 7710SOL     OW25026   4.721  13.455   3.217
 7710SOL    HW125027   4.657  13.384   3.223
 7710SOL    HW225028   4.750  13.469   3.307
 7711SOL     OW25029  14.040  10.103  12.077
 7711SOL    HW125030  14.062  10.077  12.166
 7711SOL    HW225031  13.955  10.062  12.060
 7712SOL     OW25032   4.693   5.292  11.157
 7712SOL    HW125033   4.722   5.350  11.087
 7712SOL    HW225034   4.683   5.207  11.114
 7713SOL     OW25035  14.089  10.000   1.708
 7713SOL    HW125036  14.000   9.984   1.737
 7713SOL    HW225037  14.093  10.095   1.694
 7714SOL     OW25038  11.677   6.264  12.099
 7714SOL    HW125039  11.704   6.263  12.191
 7714SOL    HW225040  11.662   6.172  12.078
 7715SOL     OW25041   1.447  14.734   9.152
 7715SOL    HW125042   1.522  14.793   9.150
 7715SOL    HW225043   1.409  14.746   9.239
 7716SOL     OW25044   0.042   3.777   6.729
 7716SOL    HW125045   0.123   3.731   6.749
 7716SOL    HW225046   0.029   3.764   6.635
 7717SOL     OW25047   5.552   1.788   0.411
 7717SOL    HW125048   5.579   1.796   0.319
 7717SOL    HW225049   5.479   1.727   0.410
 7718SOL     OW25050   7.984   5.535   0.170
 7718SOL    HW125051   8.034   5.569   0.096
 7718SOL    HW225052   7.922   5.604   0.192
 7719SOL     OW25053   7.034  14.758   9.962
 7719SOL    HW125054   7.020  14.707   9.882
 7719SOL    HW225055   6.961  14.820   9.964
 7720SOL     OW25056   6.546  14.323  13.674
 7720SOL    HW125057   6.592  14.368  13.744
 7720SOL    HW225058   6.615  14.286  13.620
 7721SOL     OW25059   6.265   1.311   1.363
 7721SOL    HW125060   6.252   1.217   1.346
 7721SOL    HW225061   6.333   1.314   1.430
 7722SOL     OW25062   3.452   5.760  10.384
 7722SOL    HW125063   3.470   5.788  10.474
 7722SOL    HW225064   3.477   5.668  10.382
 7723SOL     OW25065   5.520  13.549   3.893
 7723SOL    HW125066   5.550  13.620   3.836
 7723SOL    HW225067   5.508  13.590   3.979
 7724SOL     OW25068   5.280   0.667   9.462
 7724SOL    HW125069   5.324   0.753   9.459
 7724SOL    HW225070   5.312   0.621   9.384
 7725SOL     OW25071  10.893   8.523   1.787
 7725SOL    HW125072  10.818   8.482   1.830
 7725SOL    HW225073  10.969   8.496   1.838
 7726SOL     OW25074  10.664   3.587   8.260
 7726SOL    HW125075  10.674   3.573   8.354
 7726SOL    HW225076  10.707   3.671   8.243
 7727SOL     OW25077   6.046   9.182   5.983
 7727SOL    HW125078   6.056   9.263   6.033
 7727SOL    HW225079   6.092   9.116   6.035
 7728SOL     OW25080   5.171   4.214  10.068
 7728SOL    HW125081   5.250   4.234  10.119
 7728SOL    HW225082   5.111   4.176  10.132
 7729SOL     OW25083  10.699  12.857   4.550
 7729SOL    HW125084  10.788  12.823   4.540
 7729SOL    HW225085  10.665  12.860   4.461
 7730SOL     OW25086   9.390  13.550   4.113
 7730SOL    HW125087   9.350  13.525   4.030
 7730SOL    HW225088   9.464  13.490   4.124
 7731SOL     OW25089  13.406   3.292   3.678
 7731SOL    HW125090  13.501   3.296   3.662
 7731SOL    HW225091  13.368   3.281   3.591
 7732SOL     OW25092   2.140   0.691   2.920
 7732SOL    HW125093   2.228   0.726   2.906
 7732SOL    HW225094   2.081   0.763   2.898
 7733SOL     OW25095   2.366   9.656   6.052
 7733SOL    HW125096   2.341   9.671   6.143
 7733SOL    HW225097   2.302   9.593   6.020
 7734SOL     OW25098   0.199   9.427   0.776
 7734SOL    HW125099   0.221   9.390   0.691
 7734SOL    HW225100   0.222   9.520   0.769
 7735SOL     OW25101  13.219  12.548  10.587
 7735SOL    HW125102  13.203  12.566  10.680
 7735SOL    HW225103  13.237  12.454  10.584
 7736SOL     OW25104   8.901   1.415   2.426
 7736SOL    HW125105   8.852   1.340   2.391
 7736SOL    HW225106   8.992   1.395   2.407
 7737SOL     OW25107  11.656   2.639  10.719
 7737SOL    HW125108  11.632   2.729  10.698
 7737SOL    HW225109  11.735   2.623  10.667
 7738SOL     OW25110   6.643   9.175   2.204
 7738SOL    HW125111   6.625   9.232   2.279
 7738SOL    HW225112   6.557   9.161   2.164
 7739SOL     OW25113  11.823  14.243   8.858
 7739SOL    HW125114  11.917  14.250   8.847
 7739SOL    HW225115  11.802  14.305   8.928
 7740SOL     OW25116   2.998  11.873   8.308
 7740SOL    HW125117   3.048  11.925   8.245
 7740SOL    HW225118   2.912  11.914   8.310
 7741SOL     OW25119   0.864   9.334   9.127
 7741SOL    HW125120   0.783   9.334   9.078
 7741SOL    HW225121   0.851   9.267   9.195
 7742SOL     OW25122   8.181  10.300  14.604
 7742SOL    HW125123   8.133  10.319  14.684
 7742SOL    HW225124   8.271  10.284  14.633
 7743SOL     OW25125   4.573   5.908   5.963
 7743SOL    HW125126   4.559   5.833   5.906
 7743SOL    HW225127   4.667   5.906   5.982
 7744SOL     OW25128   7.214   1.057  13.044
 7744SOL    HW125129   7.269   0.987  13.008
 7744SOL    HW225130   7.162   1.014  13.112
 7745SOL     OW25131  11.219  13.231   8.019
 7745SOL    HW125132  11.240  13.229   7.926
 7745SOL    HW225133  11.126  13.255   8.022
 7746SOL     OW25134   5.408   9.088   1.640
 7746SOL    HW125135   5.327   9.128   1.671
 7746SOL    HW225136   5.403   8.997   1.671
 7747SOL     OW25137   0.316  13.176  11.717
 7747SOL    HW125138   0.381  13.138  11.658
 7747SOL    HW225139   0.232  13.160  11.675
 7748SOL     OW25140  11.235   7.881  10.655
 7748SOL    HW125141  11.300   7.815  10.631
 7748SOL    HW225142  11.206   7.917  10.572
 7749SOL     OW25143   8.830   7.260   4.176
 7749SOL    HW125144   8.896   7.203   4.215
 7749SOL    HW225145   8.801   7.316   4.248
 7750SOL     OW25146   7.085   4.407   7.222
 7750SOL    HW125147   7.167   4.390   7.175
 7750SOL    HW225148   7.017   4.406   7.155
 7751SOL     OW25149   7.977   0.150   2.776
 7751SOL    HW125150   7.914   0.158   2.848
 7751SOL    HW225151   8.044   0.091   2.809
 7752SOL     OW25152  10.059   1.673   2.890
 7752SOL    HW125153   9.978   1.692   2.843
 7752SOL    HW225154  10.035   1.608   2.956
 7753SOL     OW25155  14.197  13.180   8.703
 7753SOL    HW125156  14.251  13.257   8.720
 7753SOL    HW225157  14.256  13.106   8.716
 7754SOL     OW25158   3.110  12.382   5.942
 7754SOL    HW125159   3.154  12.297   5.945
 7754SOL    HW225160   3.122  12.411   5.851
 7755SOL     OW25161   4.055   8.903  10.482
 7755SOL    HW125162   4.135   8.939  10.521
 7755SOL    HW225163   4.087   8.841  10.416
 7756SOL     OW25164   5.019   6.140   8.349
 7756SOL    HW125165   4.939   6.112   8.304
 7756SOL    HW225166   4.988   6.174   8.433
 7757SOL     OW25167   9.994  11.835  14.046
 7757SOL    HW125168  10.059  11.856  14.112
 7757SOL    HW225169   9.911  11.865  14.083
 7758SOL     OW25170   3.280   3.648   9.373
 7758SOL    HW125171   3.224   3.618   9.301
 7758SOL    HW225172   3.261   3.587   9.445
 7759SOL     OW25173   7.799   2.512  13.661
 7759SOL    HW125174   7.763   2.460  13.589
 7759SOL    HW225175   7.825   2.594  13.619
 7760SOL     OW25176  14.805   1.586   6.521
 7760SOL    HW125177  14.862   1.566   6.595
 7760SOL    HW225178  14.726   1.624   6.560
 7761SOL     OW25179   9.182  13.794   8.847
 7761SOL    HW125180   9.194  13.857   8.918
 7761SOL    HW225181   9.264  13.743   8.847
 7762SOL     OW25182  10.425   8.606  13.960
 7762SOL    HW125183  10.518   8.611  13.983
 7762SOL    HW225184  10.423   8.621  13.866
 7763SOL     OW25185  14.068   9.308   3.629
 7763SOL    HW125186  14.005   9.374   3.603
 7763SOL    HW225187  14.152   9.354   3.633
 7764SOL     OW25188   6.856  11.122  10.714
 7764SOL    HW125189   6.767  11.116  10.679
 7764SOL    HW225190   6.858  11.058  10.785
 7765SOL     OW25191   4.546   8.959   5.622
 7765SOL    HW125192   4.619   8.935   5.564
 7765SOL    HW225193   4.524   8.878   5.668
 7766SOL     OW25194   9.902  12.136   1.457
 7766SOL    HW125195   9.808  12.150   1.471
 7766SOL    HW225196   9.941  12.222   1.468
 7767SOL     OW25197   5.391  14.224   1.888
 7767SOL    HW125198   5.361  14.144   1.930
 7767SOL    HW225199   5.483  14.230   1.911
 7768SOL     OW25200   2.810  12.691  14.791
 7768SOL    HW125201   2.893  12.649  14.766
 7768SOL    HW225202   2.837  12.772  14.833
 7769SOL     OW25203   7.464   0.564  10.700
 7769SOL    HW125204   7.504   0.486  10.738
 7769SOL    HW225205   7.425   0.610  10.774
 7770SOL     OW25206   6.696  13.361   1.795
 7770SOL    HW125207   6.784  13.397   1.781
 7770SOL    HW225208   6.709  13.291   1.860
 7771SOL     OW25209   9.017   8.603   6.448
 7771SOL    HW125210   9.036   8.588   6.540
 7771SOL    HW225211   8.921   8.607   6.444
 7772SOL     OW25212   9.062  13.074   5.366
 7772SOL    HW125213   8.974  13.046   5.343
 7772SOL    HW225214   9.119  13.018   5.312
 7773SOL     OW25215   5.750   1.305   9.759
 7773SOL    HW125216   5.696   1.234   9.726
 7773SOL    HW225217   5.741   1.300   9.854
 7774SOL     OW25218   9.396   4.942   6.332
 7774SOL    HW125219   9.332   5.000   6.291
 7774SOL    HW225220   9.376   4.946   6.425
 7775SOL     OW25221  12.918  10.500  12.633
 7775SOL    HW125222  12.856  10.497  12.561
 7775SOL    HW225223  12.864  10.522  12.710
 7776SOL     OW25224   5.864   4.779   6.626
 7776SOL    HW125225   5.864   4.691   6.589
 7776SOL    HW225226   5.790   4.823   6.584
 7777SOL     OW25227   1.566   3.672  13.194
 7777SOL    HW125228   1.613   3.755  13.205
 7777SOL    HW225229   1.475   3.693  13.213
 7778SOL     OW25230   3.805   3.263   2.146
 7778SOL    HW125231   3.795   3.328   2.215
 7778SOL    HW225232   3.880   3.210   2.173
 7779SOL     OW25233  13.457   7.112   5.276
 7779SOL    HW125234  13.518   7.164   5.329
 7779SOL    HW225235  13.504   7.031   5.257
 7780SOL     OW25236  10.800   1.250  11.145
 7780SOL    HW125237  10.849   1.176  11.109
 7780SOL    HW225238  10.825   1.324  11.089
 7781SOL     OW25239   0.289  10.893   3.658
 7781SOL    HW125240   0.211  10.840   3.641
 7781SOL    HW225241   0.287  10.961   3.590
 7782SOL     OW25242  12.900   7.739   0.864
 7782SOL    HW125243  12.967   7.736   0.796
 7782SOL    HW225244  12.818   7.718   0.818
 7783SOL     OW25245   7.882   8.941   4.019
 7783SOL    HW125246   7.855   8.886   4.093
 7783SOL    HW225247   7.935   8.883   3.964
 7784SOL     OW25248   3.160   0.293   2.833
 7784SOL    HW125249   3.195   0.332   2.913
 7784SOL    HW225250   3.065   0.289   2.847
 7785SOL     OW25251   2.915   0.974   8.878
 7785SOL    HW125252   2.884   1.053   8.833
 7785SOL    HW225253   2.986   1.005   8.934
 7786SOL     OW25254   1.704  10.563   9.592
 7786SOL    HW125255   1.702  10.659   9.582
 7786SOL    HW225256   1.667  10.547   9.679
 7787SOL     OW25257  10.848   2.000  10.926
 7787SOL    HW125258  10.907   1.995  10.851
 7787SOL    HW225259  10.765   2.031  10.890
 7788SOL     OW25260   3.074   3.400  10.458
 7788SOL    HW125261   3.072   3.494  10.443
 7788SOL    HW225262   3.039   3.362  10.377
 7789SOL     OW25263  13.173  13.200   8.954
 7789SOL    HW125264  13.162  13.105   8.952
 7789SOL    HW225265  13.251  13.217   8.901
 7790SOL     OW25266   8.895  14.323   0.904
 7790SOL    HW125267   8.824  14.262   0.927
 7790SOL    HW225268   8.968  14.266   0.880
 7791SOL     OW25269   8.672   2.456   7.095
 7791SOL    HW125270   8.672   2.434   7.002
 7791SOL    HW225271   8.579   2.462   7.118
 7792SOL     OW25272  11.635   5.746   9.253
 7792SOL    HW125273  11.564   5.697   9.210
 7792SOL    HW225274  11.688   5.679   9.296
 7793SOL     OW25275   3.644   6.242   0.591
 7793SOL    HW125276   3.549   6.252   0.600
 7793SOL    HW225277   3.680   6.321   0.630
 7794SOL     OW25278   9.408  10.209   3.079
 7794SOL    HW125279   9.340  10.231   3.143
 7794SOL    HW225280   9.379  10.253   2.998
 7795SOL     OW25281   5.648   4.351   5.909
 7795SOL    HW125282   5.697   4.430   5.932
 7795SOL    HW225283   5.593   4.378   5.835
 7796SOL     OW25284   3.365   0.712  12.937
 7796SOL    HW125285   3.323   0.637  12.979
 7796SOL    HW225286   3.335   0.709  12.847
 7797SOL     OW25287   5.657  11.550   3.440
 7797SOL    HW125288   5.646  11.570   3.347
 7797SOL    HW225289   5.686  11.458   3.441
 7798SOL     OW25290  11.547  10.609   6.338
 7798SOL    HW125291  11.518  10.555   6.264
 7798SOL    HW225292  11.620  10.660   6.303
 7799SOL     OW25293   8.937   9.450   5.982
 7799SOL    HW125294   8.887   9.517   6.029
 7799SOL    HW225295   8.875   9.413   5.919
 7800SOL     OW25296   8.315   3.058   0.756
 7800SOL    HW125297   8.295   3.033   0.846
 7800SOL    HW225298   8.259   3.001   0.702
 7801SOL     OW25299  14.805   3.406   9.218
 7801SOL    HW125300   0.002   3.387   9.161
 7801SOL    HW225301  14.764   3.483   9.180
 7802SOL     OW25302  11.729  13.829  12.924
 7802SOL    HW125303  11.689  13.747  12.952
 7802SOL    HW225304  11.724  13.885  13.001
 7803SOL     OW25305   8.041  14.797  11.911
 7803SOL    HW125306   8.091  14.755  11.841
 7803SOL    HW225307   8.105  14.813  11.981
 7804SOL     OW25308  10.145   9.067   9.570
 7804SOL    HW125309  10.217   9.105   9.619
 7804SOL    HW225310  10.140   8.976   9.601
 7805SOL     OW25311  11.408  10.517   8.111
 7805SOL    HW125312  11.363  10.568   8.179
 7805SOL    HW225313  11.461  10.454   8.160
 7806SOL     OW25314   2.741   8.756  11.343
 7806SOL    HW125315   2.651   8.761  11.374
 7806SOL    HW225316   2.756   8.837  11.295
 7807SOL     OW25317  11.294  12.247   8.393
 7807SOL    HW125318  11.286  12.248   8.488
 7807SOL    HW225319  11.232  12.312   8.363
 7808SOL     OW25320  12.679   5.129   0.757
 7808SOL    HW125321  12.765   5.087   0.757
 7808SOL    HW225322  12.618   5.058   0.778
 7809SOL     OW25323   0.549  12.934   0.547
 7809SOL    HW125324   0.570  12.929   0.641
 7809SOL    HW225325   0.457  12.960   0.544
 7810SOL     OW25326   9.016   7.153   6.807
 7810SOL    HW125327   9.064   7.214   6.752
 7810SOL    HW225328   9.084   7.099   6.848
 7811SOL     OW25329  11.189   9.015   3.101
 7811SOL    HW125330  11.228   9.019   3.188
 7811SOL    HW225331  11.260   8.988   3.043
 7812SOL     OW25332   8.250  11.596   7.827
 7812SOL    HW125333   8.307  11.562   7.759
 7812SOL    HW225334   8.253  11.691   7.817
 7813SOL     OW25335   4.065   5.013   9.691
 7813SOL    HW125336   4.083   4.928   9.652
 7813SOL    HW225337   4.137   5.069   9.660
 7814SOL     OW25338  11.899  14.150   7.236
 7814SOL    HW125339  11.974  14.159   7.294
 7814SOL    HW225340  11.902  14.059   7.207
 7815SOL     OW25341  12.013  14.020   9.116
 7815SOL    HW125342  11.937  14.077   9.122
 7815SOL    HW225343  11.992  13.945   9.172
 7816SOL     OW25344  11.648   2.136   4.664
 7816SOL    HW125345  11.722   2.086   4.629
 7816SOL    HW225346  11.571   2.086   4.637
 7817SOL     OW25347  12.540   0.868   8.175
 7817SOL    HW125348  12.543   0.835   8.265
 7817SOL    HW225349  12.505   0.957   8.184
 7818SOL     OW25350  11.083  11.387   1.807
 7818SOL    HW125351  11.027  11.404   1.731
 7818SOL    HW225352  11.132  11.309   1.783
 7819SOL     OW25353  13.814   9.759  14.169
 7819SOL    HW125354  13.836   9.789  14.081
 7819SOL    HW225355  13.898   9.748  14.213
 7820SOL     OW25356  10.527   6.760   2.187
 7820SOL    HW125357  10.567   6.826   2.244
 7820SOL    HW225358  10.570   6.678   2.211
 7821SOL     OW25359   5.342   4.675   2.985
 7821SOL    HW125360   5.353   4.589   2.943
 7821SOL    HW225361   5.342   4.737   2.912
 7822SOL     OW25362   6.338  11.352   4.657
 7822SOL    HW125363   6.267  11.373   4.598
 7822SOL    HW225364   6.317  11.399   4.738
 7823SOL     OW25365  12.227   4.731   1.478
 7823SOL    HW125366  12.289   4.681   1.424
 7823SOL    HW225367  12.274   4.748   1.559
 7824SOL     OW25368  13.776  10.062   4.852
 7824SOL    HW125369  13.771  10.157   4.840
 7824SOL    HW225370  13.698  10.041   4.904
 7825SOL     OW25371  12.597  14.585   9.591
 7825SOL    HW125372  12.587  14.660   9.650
 7825SOL    HW225373  12.689  14.560   9.599
 7826SOL     OW25374   1.476  11.816  10.845
 7826SOL    HW125375   1.436  11.816  10.758
 7826SOL    HW225376   1.570  11.820  10.829
 7827SOL     OW25377   3.172   4.508  13.381
 7827SOL    HW125378   3.092   4.486  13.334
 7827SOL    HW225379   3.150   4.588  13.429
 7828SOL     OW25380   3.508   2.716   7.574
 7828SOL    HW125381   3.540   2.797   7.613
 7828SOL    HW225382   3.582   2.682   7.524
 7829SOL     OW25383   6.759   1.212   2.628
 7829SOL    HW125384   6.745   1.171   2.713
 7829SOL    HW225385   6.774   1.139   2.568
 7830SOL     OW25386   9.546  11.204   7.670
 7830SOL    HW125387   9.632  11.212   7.628
 7830SOL    HW225388   9.512  11.294   7.671
 7831SOL     OW25389  10.958   2.849  14.169
 7831SOL    HW125390  11.040   2.875  14.212
 7831SOL    HW225391  10.934   2.766  14.211
 7832SOL     OW25392   2.695   2.294  10.371
 7832SOL    HW125393   2.717   2.257  10.286
 7832SOL    HW225394   2.728   2.230  10.434
 7833SOL     OW25395  14.481   1.658   3.269
 7833SOL    HW125396  14.516   1.572   3.292
 7833SOL    HW225397  14.414   1.640   3.202
 7834SOL     OW25398   5.057   1.918   5.661
 7834SOL    HW125399   5.027   1.973   5.589
 7834SOL    HW225400   5.142   1.885   5.631
 7835SOL     OW25401  12.895   8.600   1.962
 7835SOL    HW125402  12.975   8.649   1.982
 7835SOL    HW225403  12.869   8.561   2.045
 7836SOL     OW25404  14.530   4.526   5.450
 7836SOL    HW125405  14.551   4.489   5.364
 7836SOL    HW225406  14.445   4.567   5.439
 7837SOL     OW25407  11.518   4.734   9.429
 7837SOL    HW125408  11.502   4.669   9.497
 7837SOL    HW225409  11.476   4.814   9.461
 7838SOL     OW25410  10.712  12.609  10.255
 7838SOL    HW125411  10.798  12.591  10.216
 7838SOL    HW225412  10.667  12.663  10.190
 7839SOL     OW25413   9.386   5.863   9.967
 7839SOL    HW125414   9.324   5.899  10.030
 7839SOL    HW225415   9.331   5.820   9.901
 7840SOL     OW25416  11.681   9.899   3.329
 7840SOL    HW125417  11.750   9.866   3.271
 7840SOL    HW225418  11.677   9.836   3.401
 7841SOL     OW25419   6.629   8.973   8.514
 7841SOL    HW125420   6.695   8.907   8.534
 7841SOL    HW225421   6.608   9.013   8.598
 7842SOL     OW25422  12.900   2.056   9.369
 7842SOL    HW125423  12.987   2.044   9.406
 7842SOL    HW225424  12.889   2.151   9.365
 7843SOL     OW25425   4.923   5.974  13.082
 7843SOL    HW125426   4.964   5.939  13.003
 7843SOL    HW225427   4.898   5.898  13.133
 7844SOL     OW25428  13.568   9.766  12.839
 7844SOL    HW125429  13.509   9.691  12.843
 7844SOL    HW225430  13.610   9.768  12.925
 7845SOL     OW25431   8.764  14.055   7.357
 7845SOL    HW125432   8.760  14.071   7.451
 7845SOL    HW225433   8.739  13.963   7.347
 7846SOL     OW25434  14.780   3.407   5.355
 7846SOL    HW125435  14.691   3.372   5.346
 7846SOL    HW225436  14.776   3.462   5.433
 7847SOL     OW25437   2.262  12.078   8.637
 7847SOL    HW125438   2.310  12.104   8.558
 7847SOL    HW225439   2.206  12.154   8.656
 7848SOL     OW25440  12.320   1.449  12.515
 7848SOL    HW125441  12.361   1.524  12.560
 7848SOL    HW225442  12.260   1.489  12.452
 7849SOL     OW25443   2.380   6.014   2.917
 7849SOL    HW125444   2.473   6.033   2.930
 7849SOL    HW225445   2.336   6.062   2.987
 7850SOL     OW25446  12.231   2.660  10.367
 7850SOL    HW125447  12.320   2.690  10.347
 7850SOL    HW225448  12.243   2.571  10.400
 7851SOL     OW25449  13.455   5.754  12.246
 7851SOL    HW125450  13.445   5.717  12.159
 7851SOL    HW225451  13.373   5.801  12.262
 7852SOL     OW25452   9.323   2.116   5.965
 7852SOL    HW125453   9.341   2.159   5.882
 7852SOL    HW225454   9.391   2.050   5.973
 7853SOL     OW25455   0.696   3.746   3.921
 7853SOL    HW125456   0.714   3.831   3.960
 7853SOL    HW225457   0.612   3.719   3.960
 7854SOL     OW25458   0.027   9.573   1.723
 7854SOL    HW125459   0.058   9.546   1.809
 7854SOL    HW225460  14.868   9.661   1.737
 7855SOL     OW25461   4.427   6.420   1.134
 7855SOL    HW125462   4.433   6.504   1.178
 7855SOL    HW225463   4.337   6.390   1.151
 7856SOL     OW25464   2.085   3.132   5.778
 7856SOL    HW125465   2.041   3.047   5.779
 7856SOL    HW225466   2.070   3.168   5.865
 7857SOL     OW25467  13.727   3.461   2.119
 7857SOL    HW125468  13.736   3.398   2.191
 7857SOL    HW225469  13.634   3.482   2.117
 7858SOL     OW25470   1.839   0.061   5.088
 7858SOL    HW125471   1.762   0.038   5.036
 7858SOL    HW225472   1.913   0.047   5.029
 7859SOL     OW25473   2.362   0.431   4.379
 7859SOL    HW125474   2.354   0.492   4.453
 7859SOL    HW225475   2.316   0.476   4.308
 7860SOL     OW25476   1.644   1.383   2.134
 7860SOL    HW125477   1.552   1.373   2.110
 7860SOL    HW225478   1.646   1.364   2.228
 7861SOL     OW25479   5.327  11.782   7.142
 7861SOL    HW125480   5.266  11.792   7.215
 7861SOL    HW225481   5.413  11.801   7.181
 7862SOL     OW25482  13.632   3.944   7.300
 7862SOL    HW125483  13.586   3.938   7.384
 7862SOL    HW225484  13.709   3.888   7.310
 7863SOL     OW25485   2.388   8.332   1.558
 7863SOL    HW125486   2.440   8.253   1.573
 7863SOL    HW225487   2.421   8.396   1.620
 7864SOL     OW25488   2.830   6.820  13.898
 7864SOL    HW125489   2.820   6.728  13.877
 7864SOL    HW225490   2.918   6.843  13.866
 7865SOL     OW25491   6.953   9.081  10.418
 7865SOL    HW125492   7.048   9.075  10.431
 7865SOL    HW225493   6.922   8.991  10.430
 7866SOL     OW25494   3.263   9.826   6.261
 7866SOL    HW125495   3.207   9.805   6.186
 7866SOL    HW225496   3.263   9.747   6.314
 7867SOL     OW25497  14.034  10.548   4.089
 7867SOL    HW125498  14.034  10.454   4.109
 7867SOL    HW225499  14.110  10.582   4.136
 7868SOL     OW25500  12.705   4.799   6.863
 7868SOL    HW125501  12.754   4.719   6.843
 7868SOL    HW225502  12.747   4.834   6.941
 7869SOL     OW25503  11.139  13.823  14.804
 7869SOL    HW125504  11.046  13.807  14.819
 7869SOL    HW225505  11.141  13.904  14.753
 7870SOL     OW25506   9.644   7.297   3.603
 7870SOL    HW125507   9.603   7.252   3.676
 7870SOL    HW225508   9.736   7.272   3.607
 7871SOL     OW25509   7.979   3.884   3.107
 7871SOL    HW125510   8.063   3.916   3.074
 7871SOL    HW225511   8.002   3.815   3.169
 7872SOL     OW25512   7.523   1.671   1.367
 7872SOL    HW125513   7.523   1.715   1.282
 7872SOL    HW225514   7.492   1.738   1.428
 7873SOL     OW25515   4.355   3.519   2.297
 7873SOL    HW125516   4.342   3.613   2.310
 7873SOL    HW225517   4.403   3.513   2.215
 7874SOL     OW25518  10.029  13.967   5.622
 7874SOL    HW125519  10.096  14.021   5.580
 7874SOL    HW225520   9.948  13.992   5.576
 7875SOL     OW25521  12.269  14.069  12.767
 7875SOL    HW125522  12.244  13.986  12.808
 7875SOL    HW225523  12.194  14.126  12.783
 7876SOL     OW25524  11.614   4.976  12.228
 7876SOL    HW125525  11.662   4.998  12.308
 7876SOL    HW225526  11.579   5.059  12.197
 7877SOL     OW25527   3.540   0.201   2.821
 7877SOL    HW125528   3.526   0.187   2.915
 7877SOL    HW225529   3.470   0.152   2.778
 7878SOL     OW25530   9.719  14.564   5.373
 7878SOL    HW125531   9.667  14.523   5.442
 7878SOL    HW225532   9.802  14.587   5.416
 7879SOL     OW25533   6.575   9.988  13.072
 7879SOL    HW125534   6.541  10.033  12.994
 7879SOL    HW225535   6.661  10.028  13.086
 7880SOL     OW25536   2.670  13.803   7.770
 7880SOL    HW125537   2.649  13.882   7.819
 7880SOL    HW225538   2.596  13.789   7.712
 7881SOL     OW25539   4.738   0.734   2.904
 7881SOL    HW125540   4.776   0.807   2.952
 7881SOL    HW225541   4.763   0.656   2.955
 7882SOL     OW25542  11.928   5.642   0.837
 7882SOL    HW125543  11.955   5.733   0.837
 7882SOL    HW225544  11.885   5.629   0.922
 7883SOL     OW25545   7.805   6.885  12.891
 7883SOL    HW125546   7.823   6.842  12.974
 7883SOL    HW225547   7.739   6.951  12.911
 7884SOL     OW25548   0.719   0.021   1.446
 7884SOL    HW125549   0.700   0.069   1.526
 7884SOL    HW225550   0.671   0.069   1.378
 7885SOL     OW25551   1.443   7.013   2.023
 7885SOL    HW125552   1.511   7.075   2.049
 7885SOL    HW225553   1.377   7.019   2.093
 7886SOL     OW25554   6.702  10.666   7.797
 7886SOL    HW125555   6.764  10.596   7.779
 7886SOL    HW225556   6.713  10.684   7.891
 7887SOL     OW25557  13.940  13.746   8.531
 7887SOL    HW125558  13.933  13.741   8.436
 7887SOL    HW225559  13.956  13.656   8.559
 7888SOL     OW25560  12.862   5.247  12.155
 7888SOL    HW125561  12.864   5.301  12.076
 7888SOL    HW225562  12.834   5.161  12.124
 7889SOL     OW25563   8.728   6.276   0.620
 7889SOL    HW125564   8.713   6.300   0.712
 7889SOL    HW225565   8.716   6.357   0.571
 7890SOL     OW25566   2.279   3.895   8.450
 7890SOL    HW125567   2.291   3.821   8.391
 7890SOL    HW225568   2.229   3.958   8.398
 7891SOL     OW25569   7.294   9.432  11.002
 7891SOL    HW125570   7.254   9.361  11.052
 7891SOL    HW225571   7.221   9.473  10.956
 7892SOL     OW25572  10.140   3.801   6.024
 7892SOL    HW125573  10.182   3.770   5.944
 7892SOL    HW225574  10.084   3.873   5.996
 7893SOL     OW25575  11.994  14.522   8.279
 7893SOL    HW125576  12.021  14.465   8.351
 7893SOL    HW225577  11.971  14.605   8.322
 7894SOL     OW25578  13.904   6.193   8.406
 7894SOL    HW125579  13.907   6.101   8.431
 7894SOL    HW225580  13.811   6.213   8.399
 7895SOL     OW25581  11.655   1.282   6.131
 7895SOL    HW125582  11.726   1.296   6.068
 7895SOL    HW225583  11.642   1.368   6.172
 7896SOL     OW25584   0.244   2.766  12.352
 7896SOL    HW125585   0.311   2.790  12.288
 7896SOL    HW225586   0.251   2.671  12.359
 7897SOL     OW25587   9.920   4.489   0.215
 7897SOL    HW125588   9.853   4.468   0.280
 7897SOL    HW225589   9.996   4.516   0.267
 7898SOL     OW25590   0.902   7.528  12.216
 7898SOL    HW125591   0.841   7.456  12.201
 7898SOL    HW225592   0.959   7.528  12.139
 7899SOL     OW25593  14.422   2.071   7.823
 7899SOL    HW125594  14.394   2.139   7.884
 7899SOL    HW225595  14.457   2.001   7.879
 7900SOL     OW25596   7.924   9.848   5.320
 7900SOL    HW125597   7.906   9.939   5.343
 7900SOL    HW225598   7.839   9.804   5.325
 7901SOL     OW25599  10.779  10.512   5.085
 7901SOL    HW125600  10.744  10.584   5.033
 7901SOL    HW225601  10.716  10.502   5.157
 7902SOL     OW25602   8.760   0.529  13.041
 7902SOL    HW125603   8.750   0.435  13.054
 7902SOL    HW225604   8.727   0.568  13.121
 7903SOL     OW25605   0.020  10.383   9.506
 7903SOL    HW125606   0.110  10.358   9.525
 7903SOL    HW225607  14.865  10.420   9.588
 7904SOL     OW25608   5.004  14.714   1.136
 7904SOL    HW125609   5.054  14.685   1.212
 7904SOL    HW225610   4.914  14.690   1.156
 7905SOL     OW25611   7.768  13.513   6.881
 7905SOL    HW125612   7.691  13.570   6.887
 7905SOL    HW225613   7.794  13.519   6.789
 7906SOL     OW25614   6.260   7.173  13.252
 7906SOL    HW125615   6.320   7.172  13.177
 7906SOL    HW225616   6.288   7.099  13.306
 7907SOL     OW25617   5.583   1.189  13.164
 7907SOL    HW125618   5.672   1.167  13.193
 7907SOL    HW225619   5.528   1.118  13.198
 7908SOL     OW25620   1.703   8.315  14.770
 7908SOL    HW125621   1.777   8.336  14.827
 7908SOL    HW225622   1.713   8.222  14.751
 7909SOL     OW25623  10.191   6.158   8.516
 7909SOL    HW125624  10.276   6.155   8.559
 7909SOL    HW225625  10.144   6.229   8.561
 7910SOL     OW25626   0.041   3.226  12.612
 7910SOL    HW125627   0.136   3.239  12.610
 7910SOL    HW225628   0.030   3.134  12.637
 7911SOL     OW25629   5.637   8.668   3.086
 7911SOL    HW125630   5.632   8.640   2.994
 7911SOL    HW225631   5.686   8.599   3.129
 7912SOL     OW25632   2.120   0.805  11.164
 7912SOL    HW125633   2.209   0.840  11.165
 7912SOL    HW225634   2.108   0.766  11.251
 7913SOL     OW25635   3.186  11.595  11.274
 7913SOL    HW125636   3.165  11.673  11.326
 7913SOL    HW225637   3.108  11.580  11.221
 7914SOL     OW25638  10.781   3.118   2.581
 7914SOL    HW125639  10.803   3.085   2.494
 7914SOL    HW225640  10.701   3.168   2.568
 7915SOL     OW25641   5.046  13.794  10.622
 7915SOL    HW125642   5.032  13.709  10.664
 7915SOL    HW225643   5.116  13.835  10.673
 7916SOL     OW25644   8.850  11.531   6.511
 7916SOL    HW125645   8.837  11.603   6.449
 7916SOL    HW225646   8.777  11.471   6.493
 7917SOL     OW25647   8.798   8.234   6.740
 7917SOL    HW125648   8.740   8.171   6.697
 7917SOL    HW225649   8.878   8.184   6.757
 7918SOL     OW25650  12.703  10.460   6.808
 7918SOL    HW125651  12.753  10.381   6.830
 7918SOL    HW225652  12.645  10.472   6.883
 7919SOL     OW25653   6.128   9.341   7.454
 7919SOL    HW125654   6.083   9.405   7.508
 7919SOL    HW225655   6.218   9.373   7.448
 7920SOL     OW25656  14.301   3.126   3.072
 7920SOL    HW125657  14.365   3.153   3.138
 7920SOL    HW225658  14.218   3.125   3.119
 7921SOL     OW25659  10.085  12.417  14.554
 7921SOL    HW125660  10.015  12.468  14.596
 7921SOL    HW225661  10.051  12.400  14.466
 7922SOL     OW25662   9.982   3.041  14.792
 7922SOL    HW125663   9.898   3.005  14.762
 7922SOL    HW225664   9.974   3.135  14.776
 7923SOL     OW25665   7.391  13.749   8.085
 7923SOL    HW125666   7.454  13.677   8.076
 7923SOL    HW225667   7.435  13.824   8.044
 7924SOL     OW25668  11.330   1.091   3.251
 7924SOL    HW125669  11.309   1.174   3.294
 7924SOL    HW225670  11.291   1.025   3.309
 7925SOL     OW25671   5.449  14.204  13.661
 7925SOL    HW125672   5.445  14.244  13.748
 7925SOL    HW225673   5.434  14.276  13.601
 7926SOL     OW25674   7.404   4.804   5.170
 7926SOL    HW125675   7.342   4.854   5.116
 7926SOL    HW225676   7.350   4.738   5.213
 7927SOL     OW25677   3.300   8.643   5.849
 7927SOL    HW125678   3.379   8.657   5.900
 7927SOL    HW225679   3.248   8.581   5.901
 7928SOL     OW25680   5.194  11.961  10.390
 7928SOL    HW125681   5.247  11.938  10.314
 7928SOL    HW225682   5.121  11.899  10.389
 7929SOL     OW25683  11.261   0.662   2.957
 7929SOL    HW125684  11.347   0.642   2.993
 7929SOL    HW225685  11.232   0.580   2.916
 7930SOL     OW25686  11.803   0.562   6.581
 7930SOL    HW125687  11.783   0.628   6.514
 7930SOL    HW225688  11.718   0.536   6.615
 7931SOL     OW25689  13.975   8.187   5.780
 7931SOL    HW125690  13.950   8.179   5.872
 7931SOL    HW225691  13.899   8.155   5.731
 7932SOL     OW25692   3.236   4.006   8.329
 7932SOL    HW125693   3.162   4.039   8.278
 7932SOL    HW225694   3.290   4.083   8.347
 7933SOL     OW25695  10.071  14.153   9.625
 7933SOL    HW125696  10.092  14.219   9.691
 7933SOL    HW225697  10.068  14.071   9.674
 7934SOL     OW25698  11.399   3.820   9.444
 7934SOL    HW125699  11.372   3.767   9.369
 7934SOL    HW225700  11.450   3.891   9.405
 7935SOL     OW25701   1.425   0.662   8.032
 7935SOL    HW125702   1.388   0.647   7.945
 7935SOL    HW225703   1.480   0.740   8.020
 7936SOL     OW25704   4.081  10.486   4.555
 7936SOL    HW125705   4.104  10.567   4.509
 7936SOL    HW225706   4.155  10.428   4.541
 7937SOL     OW25707   2.409   4.221   7.040
 7937SOL    HW125708   2.376   4.143   7.084
 7937SOL    HW225709   2.363   4.223   6.956
 7938SOL     OW25710   7.134   2.194   4.730
 7938SOL    HW125711   7.144   2.120   4.790
 7938SOL    HW225712   7.048   2.231   4.752
 7939SOL     OW25713   8.029   9.520   8.496
 7939SOL    HW125714   8.124   9.532   8.496
 7939SOL    HW225715   7.994   9.607   8.473
 7940SOL     OW25716   4.596   7.361   4.636
 7940SOL    HW125717   4.674   7.306   4.624
 7940SOL    HW225718   4.617   7.442   4.590
 7941SOL     OW25719   0.906   1.272  12.363
 7941SOL    HW125720   0.926   1.189  12.407
 7941SOL    HW225721   0.915   1.251  12.270
 7942SOL     OW25722   6.456   1.084   7.448
 7942SOL    HW125723   6.466   1.081   7.353
 7942SOL    HW225724   6.446   1.177   7.468
 7943SOL     OW25725   3.394   3.032   9.248
 7943SOL    HW125726   3.394   3.128   9.256
 7943SOL    HW225727   3.399   3.001   9.339
 7944SOL     OW25728   9.401  11.225   4.148
 7944SOL    HW125729   9.459  11.160   4.187
 7944SOL    HW225730   9.390  11.197   4.057
 7945SOL     OW25731  13.077  11.504   8.064
 7945SOL    HW125732  12.994  11.530   8.104
 7945SOL    HW225733  13.143  11.522   8.131
 7946SOL     OW25734  13.628   5.873  10.498
 7946SOL    HW125735  13.687   5.924  10.554
 7946SOL    HW225736  13.671   5.871  10.413
 7947SOL     OW25737   5.854  12.886   5.315
 7947SOL    HW125738   5.763  12.886   5.284
 7947SOL    HW225739   5.879  12.794   5.319
 7948SOL     OW25740   4.911  12.932   6.425
 7948SOL    HW125741   4.897  12.977   6.341
 7948SOL    HW225742   4.929  13.003   6.487
 7949SOL     OW25743   7.101  10.348  12.109
 7949SOL    HW125744   7.106  10.387  12.197
 7949SOL    HW225745   7.120  10.256  12.123
 7950SOL     OW25746   1.861   4.163  12.409
 7950SOL    HW125747   1.817   4.091  12.454
 7950SOL    HW225748   1.918   4.202  12.477
 7951SOL     OW25749  11.770   5.919   2.330
 7951SOL    HW125750  11.704   5.886   2.270
 7951SOL    HW225751  11.817   5.987   2.280
 7952SOL     OW25752   7.741   6.619   7.741
 7952SOL    HW125753   7.680   6.556   7.701
 7952SOL    HW225754   7.783   6.662   7.666
 7953SOL     OW25755   8.068   4.769   8.823
 7953SOL    HW125756   8.121   4.689   8.824
 7953SOL    HW225757   8.053   4.786   8.730
 7954SOL     OW25758  12.258   9.470   2.520
 7954SOL    HW125759  12.314   9.393   2.512
 7954SOL    HW225760  12.169   9.436   2.518
 7955SOL     OW25761   8.018   6.060   1.737
 7955SOL    HW125762   7.975   6.118   1.674
 7955SOL    HW225763   8.103   6.102   1.753
 7956SOL     OW25764   7.113  13.728  14.585
 7956SOL    HW125765   7.102  13.685  14.670
 7956SOL    HW225766   7.024  13.733  14.549
 7957SOL     OW25767  12.773  12.041  11.011
 7957SOL    HW125768  12.747  12.037  11.103
 7957SOL    HW225769  12.694  12.069  10.965
 7958SOL     OW25770  11.857   6.437   8.505
 7958SOL    HW125771  11.887   6.346   8.504
 7958SOL    HW225772  11.768   6.433   8.472
 7959SOL     OW25773   4.662   3.788   2.615
 7959SOL    HW125774   4.735   3.846   2.636
 7959SOL    HW225775   4.699   3.726   2.552
 7960SOL     OW25776  12.522   2.053  12.330
 7960SOL    HW125777  12.512   2.149  12.324
 7960SOL    HW225778  12.607   2.036  12.289
 7961SOL     OW25779   2.696  13.887  10.778
 7961SOL    HW125780   2.725  13.962  10.726
 7961SOL    HW225781   2.653  13.829  10.714
 7962SOL     OW25782   1.193  12.136   9.611
 7962SOL    HW125783   1.268  12.193   9.596
 7962SOL    HW225784   1.132  12.190   9.662
 7963SOL     OW25785   4.034  11.992   1.451
 7963SOL    HW125786   4.023  11.899   1.472
 7963SOL    HW225787   4.056  12.032   1.535
 7964SOL     OW25788  13.068   3.225  13.130
 7964SOL    HW125789  13.098   3.309  13.165
 7964SOL    HW225790  13.109   3.219  13.044
 7965SOL     OW25791   6.811  14.030  12.792
 7965SOL    HW125792   6.724  14.035  12.830
 7965SOL    HW225793   6.796  14.011  12.699
 7966SOL     OW25794   6.525   1.403   2.944
 7966SOL    HW125795   6.580   1.378   3.019
 7966SOL    HW225796   6.461   1.464   2.981
 7967SOL     OW25797   3.559   3.816   7.301
 7967SOL    HW125798   3.513   3.760   7.364
 7967SOL    HW225799   3.548   3.905   7.336
 7968SOL     OW25800  10.749  13.545   4.457
 7968SOL    HW125801  10.659  13.533   4.487
 7968SOL    HW225802  10.777  13.457   4.432
 7969SOL     OW25803   9.105   5.696   9.166
 7969SOL    HW125804   9.130   5.757   9.235
 7969SOL    HW225805   9.104   5.749   9.086
 7970SOL     OW25806   6.412  14.161   6.804
 7970SOL    HW125807   6.454  14.205   6.730
 7970SOL    HW225808   6.328  14.205   6.813
 7971SOL     OW25809   0.223   1.344   8.102
 7971SOL    HW125810   0.233   1.438   8.118
 7971SOL    HW225811   0.233   1.304   8.188
 7972SOL     OW25812   8.956   1.570   8.880
 7972SOL    HW125813   8.870   1.574   8.921
 7972SOL    HW225814   9.018   1.584   8.952
 7973SOL     OW25815   3.373   8.172   1.293
 7973SOL    HW125816   3.331   8.160   1.208
 7973SOL    HW225817   3.337   8.102   1.348
 7974SOL     OW25818   9.690   6.540   8.575
 7974SOL    HW125819   9.622   6.604   8.594
 7974SOL    HW225820   9.754   6.551   8.645
 7975SOL     OW25821   4.430   2.098   5.069
 7975SOL    HW125822   4.342   2.063   5.057
 7975SOL    HW225823   4.440   2.105   5.164
 7976SOL     OW25824   3.356  10.456   9.725
 7976SOL    HW125825   3.349  10.362   9.708
 7976SOL    HW225826   3.351  10.463   9.821
 7977SOL     OW25827  14.272  11.048   2.567
 7977SOL    HW125828  14.308  11.063   2.654
 7977SOL    HW225829  14.177  11.050   2.579
 7978SOL     OW25830  12.468   2.027  13.382
 7978SOL    HW125831  12.479   2.019  13.287
 7978SOL    HW225832  12.551   2.064  13.413
 7979SOL     OW25833   3.117   3.253  12.759
 7979SOL    HW125834   3.084   3.164  12.744
 7979SOL    HW225835   3.184   3.265  12.692
 7980SOL     OW25836   9.191   5.228  11.474
 7980SOL    HW125837   9.130   5.231  11.401
 7980SOL    HW225838   9.270   5.189  11.437
 7981SOL     OW25839   0.685   8.132   9.332
 7981SOL    HW125840   0.622   8.068   9.365
 7981SOL    HW225841   0.667   8.138   9.238
 7982SOL     OW25842  14.406   2.635   3.894
 7982SOL    HW125843  14.323   2.680   3.908
 7982SOL    HW225844  14.469   2.705   3.875
 7983SOL     OW25845   0.060  12.037  10.306
 7983SOL    HW125846   0.072  12.033  10.401
 7983SOL    HW225847  14.854  11.992  10.291
 7984SOL     OW25848   4.643   0.265   4.329
 7984SOL    HW125849   4.658   0.348   4.285
 7984SOL    HW225850   4.600   0.211   4.263
 7985SOL     OW25851   8.407  10.864   7.668
 7985SOL    HW125852   8.482  10.830   7.619
 7985SOL    HW225853   8.368  10.929   7.610
 7986SOL     OW25854   5.338   0.237   5.212
 7986SOL    HW125855   5.268   0.182   5.245
 7986SOL    HW225856   5.410   0.225   5.274
 7987SOL     OW25857  11.796   9.266   7.984
 7987SOL    HW125858  11.838   9.212   8.052
 7987SOL    HW225859  11.843   9.243   7.904
 7988SOL     OW25860   2.954   3.598   0.021
 7988SOL    HW125861   2.950   3.542  14.821
 7988SOL    HW225862   3.023   3.661   0.002
 7989SOL     OW25863   4.826  10.167  13.094
 7989SOL    HW125864   4.815  10.099  13.028
 7989SOL    HW225865   4.847  10.246  13.044
 7990SOL     OW25866   4.204   0.293   3.333
 7990SOL    HW125867   4.272   0.225   3.342
 7990SOL    HW225868   4.251   0.375   3.345
 7991SOL     OW25869   2.481  11.107   4.774
 7991SOL    HW125870   2.509  11.177   4.715
 7991SOL    HW225871   2.557  11.090   4.829
 7992SOL     OW25872   2.075  10.070   5.388
 7992SOL    HW125873   1.987  10.091   5.358
 7992SOL    HW225874   2.063  10.032   5.475
 7993SOL     OW25875   4.927  11.044   3.776
 7993SOL    HW125876   4.996  11.070   3.715
 7993SOL    HW225877   4.930  10.948   3.776
 7994SOL     OW25878   4.447   5.804  12.170
 7994SOL    HW125879   4.507   5.736  12.138
 7994SOL    HW225880   4.503   5.879  12.187
 7995SOL     OW25881   6.776   6.322   6.429
 7995SOL    HW125882   6.683   6.344   6.424
 7995SOL    HW225883   6.778   6.242   6.481
 7996SOL     OW25884  10.077   6.500   6.073
 7996SOL    HW125885  10.084   6.438   6.001
 7996SOL    HW225886  10.041   6.579   6.034
 7997SOL     OW25887  14.234   3.459   3.625
 7997SOL    HW125888  14.172   3.458   3.697
 7997SOL    HW225889  14.318   3.478   3.665
 7998SOL     OW25890   9.231   9.426   4.569
 7998SOL    HW125891   9.210   9.437   4.476
 7998SOL    HW225892   9.325   9.446   4.575
 7999SOL     OW25893  10.612  13.679   8.529
 7999SOL    HW125894  10.707  13.679   8.536
 7999SOL    HW225895  10.593  13.619   8.457
 8000SOL     OW25896  12.195   8.185  12.372
 8000SOL    HW125897  12.236   8.201  12.287
 8000SOL    HW225898  12.235   8.103  12.403
 8001SOL     OW25899  12.990   1.533   4.121
 8001SOL    HW125900  13.038   1.576   4.192
 8001SOL    HW225901  12.902   1.520   4.155
 8002SOL     OW25902   9.710   9.460   6.299
 8002SOL    HW125903   9.777   9.392   6.296
 8002SOL    HW225904   9.634   9.421   6.256
 8003SOL     OW25905  12.745   6.597   4.260
 8003SOL    HW125906  12.696   6.588   4.179
 8003SOL    HW225907  12.763   6.691   4.268
 8004SOL     OW25908   5.963   0.362   1.964
 8004SOL    HW125909   6.029   0.398   1.905
 8004SOL    HW225910   5.961   0.269   1.943
 8005SOL     OW25911   9.146   3.698   9.762
 8005SOL    HW125912   9.183   3.737   9.683
 8005SOL    HW225913   9.097   3.622   9.731
 8006SOL     OW25914   9.824   1.002  13.333
 8006SOL    HW125915   9.852   1.010  13.242
 8006SOL    HW225916   9.731   0.979  13.327
 8007SOL     OW25917  13.364  14.609  12.848
 8007SOL    HW125918  13.295  14.674  12.860
 8007SOL    HW225919  13.441  14.660  12.821
 8008SOL     OW25920  12.655   2.681   8.083
 8008SOL    HW125921  12.736   2.634   8.101
 8008SOL    HW225922  12.612   2.632   8.014
 8009SOL     OW25923   3.762  12.703   7.289
 8009SOL    HW125924   3.845  12.737   7.321
 8009SOL    HW225925   3.720  12.778   7.247
 8010SOL     OW25926   9.480   2.257   9.490
 8010SOL    HW125927   9.502   2.283   9.400
 8010SOL    HW225928   9.513   2.168   9.498
 8011SOL     OW25929  11.584   5.078  14.380
 8011SOL    HW125930  11.558   5.167  14.401
 8011SOL    HW225931  11.535   5.057  14.301
 8012SOL     OW25932   3.268   1.381   0.783
 8012SOL    HW125933   3.214   1.458   0.801
 8012SOL    HW225934   3.207   1.307   0.785
 8013SOL     OW25935   1.473  10.869  10.530
 8013SOL    HW125936   1.402  10.851  10.468
 8013SOL    HW225937   1.446  10.826  10.611
 8014SOL     OW25938  11.820   1.610  11.304
 8014SOL    HW125939  11.840   1.695  11.264
 8014SOL    HW225940  11.841   1.623  11.397
 8015SOL     OW25941   8.991   9.660   5.760
 8015SOL    HW125942   8.948   9.587   5.716
 8015SOL    HW225943   8.932   9.683   5.832
 8016SOL     OW25944  12.295  12.549   6.089
 8016SOL    HW125945  12.376  12.564   6.041
 8016SOL    HW225946  12.233  12.517   6.022
 8017SOL     OW25947   4.665  10.862   7.404
 8017SOL    HW125948   4.638  10.877   7.495
 8017SOL    HW225949   4.742  10.805   7.411
 8018SOL     OW25950   7.442   5.972   7.466
 8018SOL    HW125951   7.433   5.877   7.466
 8018SOL    HW225952   7.525   5.988   7.421
 8019SOL     OW25953   0.237  11.908   7.370
 8019SOL    HW125954   0.297  11.934   7.300
 8019SOL    HW225955   0.288  11.920   7.450
 8020SOL     OW25956  13.110  13.151   2.425
 8020SOL    HW125957  13.153  13.069   2.401
 8020SOL    HW225958  13.039  13.124   2.484
 8021SOL     OW25959   8.101  10.504  10.902
 8021SOL    HW125960   8.087  10.472  10.813
 8021SOL    HW225961   8.176  10.454  10.934
 8022SOL     OW25962   0.523   7.224   4.971
 8022SOL    HW125963   0.566   7.239   5.055
 8022SOL    HW225964   0.525   7.129   4.959
 8023SOL     OW25965   5.145   3.332  11.211
 8023SOL    HW125966   5.199   3.410  11.201
 8023SOL    HW225967   5.176   3.273  11.142
 8024SOL     OW25968  13.339   2.749  13.284
 8024SOL    HW125969  13.378   2.802  13.354
 8024SOL    HW225970  13.262   2.799  13.256
 8025SOL     OW25971   7.811   9.792   9.198
 8025SOL    HW125972   7.749   9.755   9.261
 8025SOL    HW225973   7.897   9.776   9.238
 8026SOL     OW25974   4.957   9.410   6.954
 8026SOL    HW125975   5.000   9.492   6.930
 8026SOL    HW225976   5.028   9.350   6.975
 8027SOL     OW25977  11.348  12.546  11.176
 8027SOL    HW125978  11.315  12.604  11.107
 8027SOL    HW225979  11.290  12.471  11.174
 8028SOL     OW25980  10.439   3.245   0.388
 8028SOL    HW125981  10.403   3.202   0.312
 8028SOL    HW225982  10.458   3.174   0.450
 8029SOL     OW25983  10.158   0.283   0.699
 8029SOL    HW125984  10.246   0.318   0.683
 8029SOL    HW225985  10.156   0.200   0.652
 8030SOL     OW25986   2.275   4.552   1.182
 8030SOL    HW125987   2.208   4.533   1.115
 8030SOL    HW225988   2.323   4.627   1.146
 8031SOL     OW25989   6.228  13.207   6.618
 8031SOL    HW125990   6.264  13.118   6.608
 8031SOL    HW225991   6.145  13.194   6.664
 8032SOL     OW25992  14.455  13.252  12.623
 8032SOL    HW125993  14.481  13.162  12.643
 8032SOL    HW225994  14.538  13.299  12.614
 8033SOL     OW25995   8.520  12.368   2.770
 8033SOL    HW125996   8.596  12.342   2.822
 8033SOL    HW225997   8.546  12.352   2.679
 8034SOL     OW25998   9.565   8.464  11.580
 8034SOL    HW125999   9.486   8.426  11.541
 8034SOL    HW226000   9.573   8.421  11.665
 8035SOL     OW26001  11.426   1.349  11.077
 8035SOL    HW126002  11.467   1.278  11.127
 8035SOL    HW226003  11.466   1.428  11.111
 8036SOL     OW26004   6.089   1.194   8.567
 8036SOL    HW126005   6.068   1.105   8.539
 8036SOL    HW226006   6.154   1.224   8.504
 8037SOL     OW26007   5.120   7.575  10.868
 8037SOL    HW126008   5.085   7.583  10.780
 8037SOL    HW226009   5.048   7.602  10.925
 8038SOL     OW26010   3.965   3.855   4.260
 8038SOL    HW126011   3.957   3.768   4.221
 8038SOL    HW226012   3.960   3.839   4.355
 8039SOL     OW26013  14.849   2.431   2.690
 8039SOL    HW126014  14.769   2.414   2.741
 8039SOL    HW226015   0.042   2.402   2.747
 8040SOL     OW26016  13.543   0.801   5.836
 8040SOL    HW126017  13.533   0.877   5.779
 8040SOL    HW226018  13.471   0.809   5.899
 8041SOL     OW26019  12.721   7.215  13.332
 8041SOL    HW126020  12.674   7.140  13.295
 8041SOL    HW226021  12.703   7.286  13.270
 8042SOL     OW26022  11.746   0.335  11.619
 8042SOL    HW126023  11.769   0.259  11.566
 8042SOL    HW226024  11.710   0.398  11.556
 8043SOL     OW26025  11.817  14.387  14.024
 8043SOL    HW126026  11.913  14.391  14.019
 8043SOL    HW226027  11.791  14.341  13.945
 8044SOL     OW26028   8.213   4.268  13.435
 8044SOL    HW126029   8.225   4.233  13.523
 8044SOL    HW226030   8.128   4.233  13.407
 8045SOL     OW26031   6.247   8.276   2.478
 8045SOL    HW126032   6.269   8.278   2.385
 8045SOL    HW226033   6.156   8.246   2.480
 8046SOL     OW26034   1.395   7.731   0.351
 8046SOL    HW126035   1.414   7.644   0.316
 8046SOL    HW226036   1.325   7.717   0.414
 8047SOL     OW26037   2.094   7.929  12.882
 8047SOL    HW126038   2.040   7.895  12.810
 8047SOL    HW226039   2.050   8.008  12.910
 8048SOL     OW26040  12.910   7.723   1.397
 8048SOL    HW126041  12.899   7.748   1.489
 8048SOL    HW226042  12.874   7.635   1.392
 8049SOL     OW26043  12.943   4.814   8.559
 8049SOL    HW126044  13.028   4.845   8.590
 8049SOL    HW226045  12.882   4.837   8.629
 8050SOL     OW26046  12.001   6.619  11.868
 8050SOL    HW126047  11.912   6.584  11.869
 8050SOL    HW226048  12.013   6.654  11.957
 8051SOL     OW26049   9.646  10.516   3.657
 8051SOL    HW126050   9.603  10.437   3.691
 8051SOL    HW226051   9.634  10.510   3.562
 8052SOL     OW26052   8.392   7.910   5.352
 8052SOL    HW126053   8.330   7.906   5.280
 8052SOL    HW226054   8.456   7.841   5.334
 8053SOL     OW26055  11.071   3.322   1.371
 8053SOL    HW126056  11.098   3.238   1.333
 8053SOL    HW226057  11.070   3.307   1.465
 8054SOL     OW26058   6.268   6.466   2.553
 8054SOL    HW126059   6.305   6.394   2.501
 8054SOL    HW226060   6.323   6.541   2.531
 8055SOL     OW26061   6.369   6.568  14.834
 8055SOL    HW126062   6.318   6.640  14.796
 8055SOL    HW226063   6.422   6.536  14.761
 8056SOL     OW26064  13.614  12.898   7.664
 8056SOL    HW126065  13.611  12.835   7.736
 8056SOL    HW226066  13.648  12.847   7.590
 8057SOL     OW26067   2.277   1.899   2.198
 8057SOL    HW126068   2.200   1.870   2.150
 8057SOL    HW226069   2.325   1.818   2.218
 8058SOL     OW26070  13.899   5.501  10.021
 8058SOL    HW126071  13.953   5.550  10.082
 8058SOL    HW226072  13.836   5.456  10.077
 8059SOL     OW26073   7.104  12.694   3.739
 8059SOL    HW126074   7.145  12.698   3.826
 8059SOL    HW226075   7.019  12.735   3.751
 8060SOL     OW26076  12.261   2.167   3.297
 8060SOL    HW126077  12.277   2.262   3.294
 8060SOL    HW226078  12.315   2.137   3.370
 8061SOL     OW26079   8.012   0.716  12.922
 8061SOL    HW126080   8.003   0.623  12.904
 8061SOL    HW226081   7.958   0.759  12.856
 8062SOL     OW26082   0.501   3.542  13.076
 8062SOL    HW126083   0.572   3.605  13.068
 8062SOL    HW226084   0.513   3.503  13.162
 8063SOL     OW26085   7.497   6.266   7.224
 8063SOL    HW126086   7.577   6.227   7.189
 8063SOL    HW226087   7.451   6.299   7.147
 8064SOL     OW26088  10.071   7.176  10.915
 8064SOL    HW126089  10.154   7.131  10.901
 8064SOL    HW226090  10.091   7.269  10.907
 8065SOL     OW26091  12.194   5.474  14.741
 8065SOL    HW126092  12.284   5.508  14.744
 8065SOL    HW226093  12.150   5.513  14.816
 8066SOL     OW26094   1.825   6.884   9.195
 8066SOL    HW126095   1.744   6.913   9.154
 8066SOL    HW226096   1.882   6.860   9.122
 8067SOL     OW26097   0.264   7.515   3.032
 8067SOL    HW126098   0.317   7.592   3.010
 8067SOL    HW226099   0.196   7.549   3.089
 8068SOL     OW26100   6.962  13.307  14.536
 8068SOL    HW126101   6.906  13.342  14.606
 8068SOL    HW226102   6.903  13.255  14.482
 8069SOL     OW26103   1.646   6.653   8.735
 8069SOL    HW126104   1.727   6.703   8.729
 8069SOL    HW226105   1.628   6.625   8.645
 8070SOL     OW26106   8.950   2.263  12.410
 8070SOL    HW126107   8.927   2.281  12.319
 8070SOL    HW226108   8.893   2.190  12.435
 8071SOL     OW26109   6.896   4.852   0.638
 8071SOL    HW126110   6.875   4.867   0.730
 8071SOL    HW226111   6.926   4.761   0.635
 8072SOL     OW26112   5.922  13.953   9.050
 8072SOL    HW126113   5.950  13.941   9.141
 8072SOL    HW226114   5.881  13.869   9.028
 8073SOL     OW26115   7.110   4.825  12.260
 8073SOL    HW126116   7.178   4.811  12.325
 8073SOL    HW226117   7.028   4.815  12.308
 8074SOL     OW26118  14.857  11.176  11.526
 8074SOL    HW126119  14.871  11.238  11.597
 8074SOL    HW226120  14.866  11.228  11.446
 8075SOL     OW26121   9.472   3.994   8.912
 8075SOL    HW126122   9.450   3.936   8.839
 8075SOL    HW226123   9.539   4.053   8.877
 8076SOL     OW26124   1.450  13.980   8.513
 8076SOL    HW126125   1.370  13.959   8.466
 8076SOL    HW226126   1.500  14.034   8.452
 8077SOL     OW26127   0.338  14.831   7.042
 8077SOL    HW126128   0.417  14.830   6.987
 8077SOL    HW226129   0.371  14.848   7.130
 8078SOL     OW26130   8.798   7.751   9.823
 8078SOL    HW126131   8.729   7.792   9.874
 8078SOL    HW226132   8.776   7.657   9.823
 8079SOL     OW26133   9.623   3.037  12.120
 8079SOL    HW126134   9.534   3.042  12.086
 8079SOL    HW226135   9.615   3.059  12.213
 8080SOL     OW26136   2.059   7.238   2.023
 8080SOL    HW126137   2.134   7.182   2.040
 8080SOL    HW226138   2.096   7.324   2.005
 8081SOL     OW26139   2.809  13.602   3.143
 8081SOL    HW126140   2.747  13.661   3.099
 8081SOL    HW226141   2.782  13.605   3.235
 8082SOL     OW26142   7.488  10.802  12.091
 8082SOL    HW126143   7.523  10.847  12.014
 8082SOL    HW226144   7.538  10.839  12.164
 8083SOL     OW26145   7.090   3.328   9.154
 8083SOL    HW126146   7.046   3.371   9.082
 8083SOL    HW226147   7.024   3.322   9.223
 8084SOL     OW26148   9.559   8.411   6.036
 8084SOL    HW126149   9.584   8.476   5.970
 8084SOL    HW226150   9.568   8.327   5.992
 8085SOL     OW26151  13.027   2.177   8.040
 8085SOL    HW126152  12.973   2.256   8.041
 8085SOL    HW226153  13.029   2.148   8.131
 8086SOL     OW26154   5.427   5.707   9.542
 8086SOL    HW126155   5.503   5.679   9.492
 8086SOL    HW226156   5.463   5.744   9.622
 8087SOL     OW26157  13.565   9.588   7.921
 8087SOL    HW126158  13.622   9.520   7.957
 8087SOL    HW226159  13.566   9.658   7.987
 8088SOL     OW26160   5.179   9.377   5.264
 8088SOL    HW126161   5.145   9.451   5.315
 8088SOL    HW226162   5.237   9.418   5.199
 8089SOL     OW26163  13.025  13.059  10.476
 8089SOL    HW126164  13.102  13.084  10.528
 8089SOL    HW226165  13.038  12.966  10.458
 8090SOL     OW26166  13.692   0.146   0.769
 8090SOL    HW126167  13.703   0.051   0.768
 8090SOL    HW226168  13.619   0.161   0.708
 8091SOL     OW26169   8.075   0.348  13.637
 8091SOL    HW126170   8.028   0.330  13.719
 8091SOL    HW226171   8.160   0.305  13.648
 8092SOL     OW26172  14.059   9.606   5.416
 8092SOL    HW126173  14.137   9.625   5.363
 8092SOL    HW226174  14.078   9.647   5.501
 8093SOL     OW26175  11.726   9.561   6.470
 8093SOL    HW126176  11.642   9.539   6.509
 8093SOL    HW226177  11.747   9.485   6.414
 8094SOL     OW26178  14.569  10.437   0.928
 8094SOL    HW126179  14.556  10.498   1.001
 8094SOL    HW226180  14.663  10.418   0.929
 8095SOL     OW26181   2.557   3.397   2.006
 8095SOL    HW126182   2.563   3.460   1.935
 8095SOL    HW226183   2.525   3.317   1.965
 8096SOL     OW26184   0.247   2.937   7.838
 8096SOL    HW126185   0.249   2.957   7.932
 8096SOL    HW226186   0.188   3.002   7.801
 8097SOL     OW26187   4.726  13.340   0.532
 8097SOL    HW126188   4.650  13.285   0.547
 8097SOL    HW226189   4.714  13.374   0.443
 8098SOL     OW26190   6.802   7.584   6.543
 8098SOL    HW126191   6.864   7.640   6.496
 8098SOL    HW226192   6.753   7.539   6.474
 8099SOL     OW26193   4.235   6.875   6.120
 8099SOL    HW126194   4.190   6.948   6.077
 8099SOL    HW226195   4.207   6.880   6.212
 8100SOL     OW26196   2.505   1.126   1.936
 8100SOL    HW126197   2.515   1.194   2.003
 8100SOL    HW226198   2.481   1.047   1.985
 8101SOL     OW26199   0.003   5.544   4.979
 8101SOL    HW126200   0.040   5.632   4.990
 8101SOL    HW226201  14.811   5.555   4.914
 8102SOL     OW26202  13.135  14.321   6.927
 8102SOL    HW126203  13.162  14.244   6.978
 8102SOL    HW226204  13.054  14.350   6.969
 8103SOL     OW26205  12.709   8.549   8.585
 8103SOL    HW126206  12.796   8.569   8.552
 8103SOL    HW226207  12.704   8.453   8.584
 8104SOL     OW26208   5.129   4.675   1.173
 8104SOL    HW126209   5.184   4.607   1.212
 8104SOL    HW226210   5.047   4.630   1.152
 8105SOL     OW26211  11.144   4.608  10.604
 8105SOL    HW126212  11.161   4.580  10.514
 8105SOL    HW226213  11.150   4.704  10.600
 8106SOL     OW26214  12.242   9.813  11.180
 8106SOL    HW126215  12.197   9.765  11.249
 8106SOL    HW226216  12.313   9.754  11.153
 8107SOL     OW26217   1.788   7.780   7.231
 8107SOL    HW126218   1.818   7.688   7.230
 8107SOL    HW226219   1.724   7.784   7.302
 8108SOL     OW26220   2.249  11.692  10.846
 8108SOL    HW126221   2.266  11.689  10.940
 8108SOL    HW226222   2.331  11.720  10.807
 8109SOL     OW26223   6.688   2.241   9.014
 8109SOL    HW126224   6.699   2.148   9.031
 8109SOL    HW226225   6.701   2.250   8.920
 8110SOL     OW26226  14.246  11.193   9.505
 8110SOL    HW126227  14.324  11.192   9.561
 8110SOL    HW226228  14.233  11.102   9.479
 8111SOL     OW26229  13.437   2.098   6.593
 8111SOL    HW126230  13.446   2.043   6.671
 8111SOL    HW226231  13.347   2.084   6.563
 8112SOL     OW26232  11.678   7.455   3.538
 8112SOL    HW126233  11.666   7.384   3.601
 8112SOL    HW226234  11.640   7.532   3.581
 8113SOL     OW26235   1.664   4.011  10.855
 8113SOL    HW126236   1.671   4.103  10.881
 8113SOL    HW226237   1.750   3.974  10.874
 8114SOL     OW26238   8.984  11.518   4.983
 8114SOL    HW126239   8.927  11.482   4.915
 8114SOL    HW226240   8.973  11.613   4.975
 8115SOL     OW26241   6.136   6.817   4.566
 8115SOL    HW126242   6.125   6.907   4.598
 8115SOL    HW226243   6.047   6.788   4.546
 8116SOL     OW26244   7.816  14.162   2.213
 8116SOL    HW126245   7.753  14.103   2.172
 8116SOL    HW226246   7.862  14.107   2.276
 8117SOL     OW26247   0.502   1.478   5.829
 8117SOL    HW126248   0.433   1.501   5.892
 8117SOL    HW226249   0.533   1.392   5.858
 8118SOL     OW26250   6.545   4.363  12.776
 8118SOL    HW126251   6.634   4.330  12.788
 8118SOL    HW226252   6.534   4.428  12.845
 8119SOL     OW26253   6.712  10.978  11.413
 8119SOL    HW126254   6.666  10.987  11.496
 8119SOL    HW226255   6.797  11.019  11.428
 8120SOL     OW26256   3.206   4.023   7.350
 8120SOL    HW126257   3.207   4.005   7.256
 8120SOL    HW226258   3.242   4.111   7.358
 8121SOL     OW26259   2.891  14.325   0.232
 8121SOL    HW126260   2.966  14.380   0.210
 8121SOL    HW226261   2.837  14.379   0.289
 8122SOL     OW26262  11.625  14.799   2.241
 8122SOL    HW126263  11.669  14.759   2.166
 8122SOL    HW226264  11.574  14.728   2.280
 8123SOL     OW26265  11.803   2.168   8.235
 8123SOL    HW126266  11.822   2.076   8.218
 8123SOL    HW226267  11.864   2.194   8.303
 8124SOL     OW26268   6.315  10.314   0.327
 8124SOL    HW126269   6.226  10.319   0.291
 8124SOL    HW226270   6.365  10.376   0.273
 8125SOL     OW26271   2.520   4.372  14.737
 8125SOL    HW126272   2.491   4.371  14.646
 8125SOL    HW226273   2.439   4.385  14.787
 8126SOL     OW26274   3.378   3.562  14.264
 8126SOL    HW126275   3.313   3.493  14.267
 8126SOL    HW226276   3.388   3.590  14.355
 8127SOL     OW26277  10.994  11.808  13.925
 8127SOL    HW126278  10.939  11.731  13.942
 8127SOL    HW226279  11.032  11.829  14.010
 8128SOL     OW26280  12.869   5.241   4.026
 8128SOL    HW126281  12.929   5.240   3.951
 8128SOL    HW226282  12.887   5.158   4.071
 8129SOL     OW26283  12.252   5.025   6.708
 8129SOL    HW126284  12.197   4.968   6.761
 8129SOL    HW226285  12.341   4.998   6.728
 8130SOL     OW26286  11.211   8.454  11.795
 8130SOL    HW126287  11.138   8.511  11.820
 8130SOL    HW226288  11.171   8.370  11.776
 8131SOL     OW26289   6.885   6.909  13.186
 8131SOL    HW126290   6.895   6.992  13.138
 8131SOL    HW226291   6.946   6.849  13.143
 8132SOL     OW26292   9.467   7.181   5.269
 8132SOL    HW126293   9.562   7.174   5.256
 8132SOL    HW226294   9.430   7.156   5.184
 8133SOL     OW26295  13.845   6.878   9.689
 8133SOL    HW126296  13.817   6.819   9.619
 8133SOL    HW226297  13.771   6.936   9.704
 8134SOL     OW26298   0.699   4.030   1.908
 8134SOL    HW126299   0.677   3.975   1.833
 8134SOL    HW226300   0.697   4.119   1.873
 8135SOL     OW26301   9.112  14.732   2.580
 8135SOL    HW126302   9.141  14.815   2.544
 8135SOL    HW226303   9.057  14.694   2.511
 8136SOL     OW26304   3.871  11.385   5.226
 8136SOL    HW126305   3.826  11.302   5.205
 8136SOL    HW226306   3.800  11.448   5.239
 8137SOL     OW26307  13.809   2.477   9.285
 8137SOL    HW126308  13.841   2.553   9.237
 8137SOL    HW226309  13.716   2.495   9.300
 8138SOL     OW26310   8.278   0.687  14.149
 8138SOL    HW126311   8.220   0.749  14.105
 8138SOL    HW226312   8.259   0.699  14.242
 8139SOL     OW26313   8.605   4.371   2.068
 8139SOL    HW126314   8.579   4.372   2.161
 8139SOL    HW226315   8.633   4.281   2.052
 8140SOL     OW26316  11.493   3.728  11.534
 8140SOL    HW126317  11.539   3.739  11.451
 8140SOL    HW226318  11.439   3.650  11.521
 8141SOL     OW26319  11.839   5.046  10.171
 8141SOL    HW126320  11.897   5.078  10.240
 8141SOL    HW226321  11.760   5.018  10.217
 8142SOL     OW26322  14.224   6.870   0.204
 8142SOL    HW126323  14.193   6.949   0.159
 8142SOL    HW226324  14.291   6.834   0.146
 8143SOL     OW26325   6.437   4.208   6.840
 8143SOL    HW126326   6.426   4.147   6.767
 8143SOL    HW226327   6.512   4.173   6.889
 8144SOL     OW26328   9.868   6.544  14.657
 8144SOL    HW126329   9.782   6.571  14.690
 8144SOL    HW226330   9.930   6.576  14.722
 8145SOL     OW26331   2.480   6.413   7.288
 8145SOL    HW126332   2.413   6.352   7.317
 8145SOL    HW226333   2.562   6.364   7.295
 8146SOL     OW26334   5.941  12.926   9.547
 8146SOL    HW126335   5.909  12.893   9.463
 8146SOL    HW226336   6.024  12.968   9.526
 8147SOL     OW26337   1.482   1.947  10.061
 8147SOL    HW126338   1.454   1.974   9.973
 8147SOL    HW226339   1.577   1.951  10.058
 8148SOL     OW26340   2.646  13.183   0.070
 8148SOL    HW126341   2.724  13.139   0.105
 8148SOL    HW226342   2.612  13.233   0.144
 8149SOL     OW26343  10.433   5.322   4.170
 8149SOL    HW126344  10.518   5.347   4.205
 8149SOL    HW226345  10.383   5.403   4.167
 8150SOL     OW26346   3.907  14.415   1.382
 8150SOL    HW126347   3.938  14.352   1.317
 8150SOL    HW226348   3.834  14.371   1.425
 8151SOL     OW26349   9.993  12.189   6.649
 8151SOL    HW126350  10.066  12.192   6.711
 8151SOL    HW226351  10.018  12.123   6.585
 8152SOL     OW26352   0.287   0.515   3.192
 8152SOL    HW126353   0.193   0.523   3.175
 8152SOL    HW226354   0.329   0.550   3.113
 8153SOL     OW26355   0.461  11.196  11.540
 8153SOL    HW126356   0.461  11.157  11.453
 8153SOL    HW226357   0.455  11.290  11.524
 8154SOL     OW26358   2.501   5.873   5.748
 8154SOL    HW126359   2.556   5.922   5.809
 8154SOL    HW226360   2.416   5.866   5.793
 8155SOL     OW26361   7.065   1.989   2.031
 8155SOL    HW126362   7.089   1.918   2.090
 8155SOL    HW226363   7.037   2.060   2.089
 8156SOL     OW26364   1.984  13.522  10.097
 8156SOL    HW126365   2.057  13.461  10.083
 8156SOL    HW226366   1.917  13.470  10.142
 8157SOL     OW26367   4.510   9.364  10.516
 8157SOL    HW126368   4.429   9.317  10.534
 8157SOL    HW226369   4.508   9.378  10.421
 8158SOL     OW26370   8.014  10.883   3.494
 8158SOL    HW126371   8.063  10.964   3.505
 8158SOL    HW226372   8.062  10.819   3.547
 8159SOL     OW26373   2.538   0.094   8.057
 8159SOL    HW126374   2.462   0.116   8.111
 8159SOL    HW226375   2.586   0.176   8.047
 8160SOL     OW26376   3.293   4.678   6.304
 8160SOL    HW126377   3.329   4.766   6.291
 8160SOL    HW226378   3.243   4.662   6.224
 8161SOL     OW26379   5.778  10.495   2.281
 8161SOL    HW126380   5.734  10.481   2.365
 8161SOL    HW226381   5.829  10.415   2.267
 8162SOL     OW26382   1.608  14.384  11.124
 8162SOL    HW126383   1.603  14.346  11.211
 8162SOL    HW226384   1.648  14.316  11.070
 8163SOL     OW26385  12.975  13.169  10.912
 8163SOL    HW126386  12.883  13.146  10.908
 8163SOL    HW226387  12.978  13.247  10.968
 8164SOL     OW26388  12.128  14.180   1.377
 8164SOL    HW126389  12.196  14.114   1.388
 8164SOL    HW226390  12.094  14.165   1.289
 8165SOL     OW26391   3.949  12.285  14.700
 8165SOL    HW126392   3.952  12.378  14.680
 8165SOL    HW226393   3.857  12.269  14.722
 8166SOL     OW26394  14.731   7.048   5.397
 8166SOL    HW126395  14.780   7.058   5.479
 8166SOL    HW226396  14.667   6.980   5.415
 8167SOL     OW26397   3.244   2.047   8.755
 8167SOL    HW126398   3.305   2.099   8.807
 8167SOL    HW226399   3.215   1.977   8.814
 8168SOL     OW26400   8.750  10.684  10.717
 8168SOL    HW126401   8.731  10.743  10.644
 8168SOL    HW226402   8.728  10.597  10.685
 8169SOL     OW26403  10.964   5.407   1.856
 8169SOL    HW126404  11.018   5.461   1.914
 8169SOL    HW226405  10.923   5.470   1.796
 8170SOL     OW26406   0.978   8.440  12.854
 8170SOL    HW126407   0.919   8.397  12.792
 8170SOL    HW226408   0.923   8.503  12.900
 8171SOL     OW26409  12.982  12.873   2.884
 8171SOL    HW126410  13.015  12.805   2.941
 8171SOL    HW226411  13.051  12.939   2.881
 8172SOL     OW26412   2.083  13.935   4.056
 8172SOL    HW126413   2.006  13.925   4.001
 8172SOL    HW226414   2.050  13.930   4.146
 8173SOL     OW26415   9.047   8.926   4.759
 8173SOL    HW126416   9.077   9.013   4.735
 8173SOL    HW226417   9.043   8.878   4.677
 8174SOL     OW26418   1.053   2.193   7.115
 8174SOL    HW126419   0.999   2.268   7.092
 8174SOL    HW226420   1.060   2.197   7.210
 8175SOL     OW26421   0.900   4.132  14.602
 8175SOL    HW126422   0.966   4.088  14.654
 8175SOL    HW226423   0.945   4.156  14.521
 8176SOL     OW26424   9.883   7.067   8.225
 8176SOL    HW126425   9.919   7.062   8.136
 8176SOL    HW226426   9.791   7.043   8.215
 8177SOL     OW26427  13.535   4.909   6.904
 8177SOL    HW126428  13.597   4.974   6.871
 8177SOL    HW226429  13.498   4.869   6.825
 8178SOL     OW26430  10.787  14.018   2.032
 8178SOL    HW126431  10.749  13.978   1.954
 8178SOL    HW226432  10.823  13.945   2.082
 8179SOL     OW26433   7.456   3.480   1.435
 8179SOL    HW126434   7.492   3.494   1.523
 8179SOL    HW226435   7.533   3.470   1.379
 8180SOL     OW26436   0.938  11.698   5.111
 8180SOL    HW126437   0.982  11.766   5.059
 8180SOL    HW226438   0.977  11.706   5.198
 8181SOL     OW26439   5.824   3.867   3.333
 8181SOL    HW126440   5.895   3.803   3.338
 8181SOL    HW226441   5.770   3.848   3.410
 8182SOL     OW26442   7.494  14.410   3.924
 8182SOL    HW126443   7.524  14.426   3.834
 8182SOL    HW226444   7.525  14.322   3.944
 8183SOL     OW26445   8.884   1.596   4.618
 8183SOL    HW126446   8.871   1.504   4.597
 8183SOL    HW226447   8.965   1.619   4.572
 8184SOL     OW26448  12.048   8.565   2.952
 8184SOL    HW126449  12.103   8.502   2.999
 8184SOL    HW226450  12.109   8.632   2.922
 8185SOL     OW26451   5.745   1.766  11.658
 8185SOL    HW126452   5.723   1.735  11.570
 8185SOL    HW226453   5.707   1.700  11.716
 8186SOL     OW26454   5.241   9.197   8.338
 8186SOL    HW126455   5.292   9.179   8.260
 8186SOL    HW226456   5.243   9.293   8.347
 8187SOL     OW26457   9.769   6.315  13.243
 8187SOL    HW126458   9.833   6.322  13.173
 8187SOL    HW226459   9.789   6.232  13.286
 8188SOL     OW26460   5.584  12.112   8.104
 8188SOL    HW126461   5.494  12.100   8.135
 8188SOL    HW226462   5.582  12.080   8.014
 8189SOL     OW26463  11.985  11.582  14.689
 8189SOL    HW126464  11.917  11.618  14.633
 8189SOL    HW226465  12.031  11.518  14.634
 8190SOL     OW26466   9.093   4.160   2.717
 8190SOL    HW126467   9.165   4.107   2.752
 8190SOL    HW226468   9.137   4.234   2.674
 8191SOL     OW26469  12.533   2.821   9.875
 8191SOL    HW126470  12.535   2.861   9.788
 8191SOL    HW226471  12.444   2.788   9.885
 8192SOL     OW26472   0.376   7.669  11.070
 8192SOL    HW126473   0.319   7.684  10.994
 8192SOL    HW226474   0.429   7.592  11.045
 8193SOL     OW26475  11.277   2.823  13.321
 8193SOL    HW126476  11.188   2.804  13.349
 8193SOL    HW226477  11.323   2.739  13.330
 8194SOL     OW26478   9.008  11.130   2.040
 8194SOL    HW126479   9.017  11.109   1.947
 8194SOL    HW226480   9.055  11.060   2.086
 8195SOL     OW26481  14.383  11.643   8.698
 8195SOL    HW126482  14.352  11.557   8.671
 8195SOL    HW226483  14.473  11.648   8.666
 8196SOL     OW26484   9.898   3.069   9.123
 8196SOL    HW126485   9.845   3.004   9.078
 8196SOL    HW226486   9.986   3.057   9.087
 8197SOL     OW26487  14.789  13.604   7.747
 8197SOL    HW126488  14.788  13.541   7.819
 8197SOL    HW226489  14.835  13.680   7.782
 8198SOL     OW26490  10.330  12.155   6.533
 8198SOL    HW126491  10.417  12.162   6.571
 8198SOL    HW226492  10.279  12.105   6.597
 8199SOL     OW26493  13.837   6.465   9.583
 8199SOL    HW126494  13.748   6.440   9.606
 8199SOL    HW226495  13.890   6.436   9.658
 8200SOL     OW26496   6.394   9.142  14.587
 8200SOL    HW126497   6.426   9.056  14.614
 8200SOL    HW226498   6.474   9.191  14.566
 8201SOL     OW26499   2.011   8.545   6.359
 8201SOL    HW126500   2.009   8.490   6.437
 8201SOL    HW226501   2.011   8.635   6.392
 8202SOL     OW26502   0.306   7.992  14.159
 8202SOL    HW126503   0.392   7.989  14.117
 8202SOL    HW226504   0.270   8.077  14.134
 8203SOL     OW26505   6.965   5.951  14.075
 8203SOL    HW126506   6.959   6.008  13.999
 8203SOL    HW226507   6.914   5.996  14.143
 8204SOL     OW26508   0.943  10.902   1.194
 8204SOL    HW126509   0.968  10.886   1.103
 8204SOL    HW226510   0.870  10.843   1.209
 8205SOL     OW26511  14.197   5.826   7.212
 8205SOL    HW126512  14.171   5.917   7.196
 8205SOL    HW226513  14.231   5.826   7.302
 8206SOL     OW26514   2.733   5.397   5.483
 8206SOL    HW126515   2.784   5.446   5.547
 8206SOL    HW226516   2.751   5.305   5.502
 8207SOL     OW26517   5.156  13.575   1.175
 8207SOL    HW126518   5.214  13.615   1.240
 8207SOL    HW226519   5.157  13.637   1.101
 8208SOL     OW26520  12.972   5.236   1.307
 8208SOL    HW126521  12.966   5.313   1.250
 8208SOL    HW226522  13.065   5.228   1.327
 8209SOL     OW26523   6.771   3.947   7.069
 8209SOL    HW126524   6.832   3.902   7.129
 8209SOL    HW226525   6.784   3.904   6.985
 8210SOL     OW26526   4.362   9.583   1.293
 8210SOL    HW126527   4.298   9.516   1.267
 8210SOL    HW226528   4.443   9.557   1.248
 8211SOL     OW26529   6.242   1.184   6.709
 8211SOL    HW126530   6.289   1.254   6.664
 8211SOL    HW226531   6.170   1.160   6.650
 8212SOL     OW26532  10.621   1.152   3.864
 8212SOL    HW126533  10.588   1.225   3.811
 8212SOL    HW226534  10.642   1.085   3.800
 8213SOL     OW26535   1.576   9.632  13.069
 8213SOL    HW126536   1.598   9.551  13.115
 8213SOL    HW226537   1.489   9.655  13.101
 8214SOL     OW26538   2.560   3.219   4.159
 8214SOL    HW126539   2.589   3.297   4.205
 8214SOL    HW226540   2.582   3.236   4.067
 8215SOL     OW26541   1.503   0.869   1.331
 8215SOL    HW126542   1.564   0.807   1.292
 8215SOL    HW226543   1.490   0.936   1.265
 8216SOL     OW26544   4.253   1.970   8.735
 8216SOL    HW126545   4.168   1.981   8.779
 8216SOL    HW226546   4.232   1.961   8.643
 8217SOL     OW26547  10.165  12.560  14.098
 8217SOL    HW126548  10.190  12.472  14.125
 8217SOL    HW226549  10.073  12.553  14.075
 8218SOL     OW26550   6.646   3.387   6.677
 8218SOL    HW126551   6.611   3.315   6.626
 8218SOL    HW226552   6.641   3.463   6.619
 8219SOL     OW26553   6.686   1.047  12.233
 8219SOL    HW126554   6.769   1.093  12.249
 8219SOL    HW226555   6.690   0.970  12.290
 8220SOL     OW26556   0.949   7.880   9.467
 8220SOL    HW126557   0.960   7.963   9.421
 8220SOL    HW226558   0.920   7.904   9.555
 8221SOL     OW26559   8.182   4.770  11.313
 8221SOL    HW126560   8.110   4.791  11.372
 8221SOL    HW226561   8.212   4.684  11.342
 8222SOL     OW26562   0.257   0.772   8.300
 8222SOL    HW126563   0.193   0.836   8.269
 8222SOL    HW226564   0.341   0.817   8.295
 8223SOL     OW26565   3.309   8.480   2.846
 8223SOL    HW126566   3.243   8.433   2.795
 8223SOL    HW226567   3.263   8.510   2.924
 8224SOL     OW26568  12.469  11.428  10.951
 8224SOL    HW126569  12.420  11.347  10.961
 8224SOL    HW226570  12.561  11.401  10.954
 8225SOL     OW26571  12.044   7.896   8.405
 8225SOL    HW126572  12.045   7.800   8.407
 8225SOL    HW226573  11.958   7.920   8.441
 8226SOL     OW26574   7.385   3.956   5.348
 8226SOL    HW126575   7.330   3.899   5.294
 8226SOL    HW226576   7.366   3.930   5.438
 8227SOL     OW26577   8.389   6.346   2.491
 8227SOL    HW126578   8.457   6.401   2.532
 8227SOL    HW226579   8.377   6.384   2.404
 8228SOL     OW26580  10.948  14.707   8.128
 8228SOL    HW126581  11.043  14.718   8.133
 8228SOL    HW226582  10.920  14.769   8.060
 8229SOL     OW26583  11.266   6.606  10.955
 8229SOL    HW126584  11.257   6.511  10.956
 8229SOL    HW226585  11.178   6.640  10.968
 8230SOL     OW26586  13.206  12.131   6.428
 8230SOL    HW126587  13.111  12.120   6.431
 8230SOL    HW226588  13.239  12.077   6.499
 8231SOL     OW26589  13.663  14.139   6.032
 8231SOL    HW126590  13.600  14.094   6.089
 8231SOL    HW226591  13.609  14.173   5.960
 8232SOL     OW26592   4.414  11.792   6.469
 8232SOL    HW126593   4.461  11.709   6.459
 8232SOL    HW226594   4.324  11.771   6.446
 8233SOL     OW26595  11.502   3.729   2.540
 8233SOL    HW126596  11.458   3.663   2.486
 8233SOL    HW226597  11.433   3.764   2.596
 8234SOL     OW26598  11.488  10.463   0.449
 8234SOL    HW126599  11.492  10.375   0.412
 8234SOL    HW226600  11.502  10.521   0.374
 8235SOL     OW26601  11.005   9.041   0.610
 8235SOL    HW126602  10.980   8.956   0.645
 8235SOL    HW226603  10.934   9.100   0.637
 8236SOL     OW26604   4.923  11.320   3.858
 8236SOL    HW126605   4.910  11.324   3.953
 8236SOL    HW226606   4.934  11.227   3.839
 8237SOL     OW26607   0.547  13.950   3.295
 8237SOL    HW126608   0.578  13.862   3.277
 8237SOL    HW226609   0.606  14.008   3.246
 8238SOL     OW26610   4.416  12.677  10.253
 8238SOL    HW126611   4.342  12.622  10.227
 8238SOL    HW226612   4.491  12.618  10.254
 8239SOL     OW26613   2.733   5.617  11.562
 8239SOL    HW126614   2.811   5.567  11.586
 8239SOL    HW226615   2.764   5.708  11.555
 8240SOL     OW26616  10.634   4.098   3.159
 8240SOL    HW126617  10.716   4.101   3.110
 8240SOL    HW226618  10.584   4.026   3.119
 8241SOL     OW26619   5.489  13.738   3.549
 8241SOL    HW126620   5.513  13.706   3.462
 8241SOL    HW226621   5.469  13.831   3.535
 8242SOL     OW26622   1.050   9.944   9.889
 8242SOL    HW126623   1.026   9.898   9.809
 8242SOL    HW226624   0.971   9.942   9.943
 8243SOL     OW26625   3.150   0.080  14.192
 8243SOL    HW126626   3.112  14.877  14.227
 8243SOL    HW226627   3.098   0.150  14.233
 8244SOL     OW26628  14.646   7.470  14.234
 8244SOL    HW126629  14.726   7.490  14.186
 8244SOL    HW226630  14.624   7.380  14.209
 8245SOL     OW26631   6.574   4.719   8.740
 8245SOL    HW126632   6.528   4.794   8.701
 8245SOL    HW226633   6.623   4.756   8.813
 8246SOL     OW26634   1.719   1.881   8.683
 8246SOL    HW126635   1.649   1.821   8.709
 8246SOL    HW226636   1.678   1.968   8.684
 8247SOL     OW26637   9.107   9.446  11.140
 8247SOL    HW126638   9.172   9.428  11.072
 8247SOL    HW226639   9.084   9.538  11.127
 8248SOL     OW26640   9.354   3.145   5.193
 8248SOL    HW126641   9.431   3.134   5.138
 8248SOL    HW226642   9.284   3.167   5.132
 8249SOL     OW26643   0.631   7.142  12.324
 8249SOL    HW126644   0.600   7.153  12.414
 8249SOL    HW226645   0.580   7.069  12.290
 8250SOL     OW26646   6.825   4.063   0.803
 8250SOL    HW126647   6.864   4.150   0.800
 8250SOL    HW226648   6.736   4.077   0.836
 8251SOL     OW26649  14.705   4.811   5.568
 8251SOL    HW126650  14.716   4.812   5.663
 8251SOL    HW226651  14.732   4.723   5.541
 8252SOL     OW26652  12.988  12.498   3.493
 8252SOL    HW126653  13.043  12.542   3.558
 8252SOL    HW226654  12.931  12.567   3.460
 8253SOL     OW26655  11.475   5.456  10.331
 8253SOL    HW126656  11.505   5.541  10.364
 8253SOL    HW226657  11.393   5.476  10.287
 8254SOL     OW26658   1.400   3.433  10.294
 8254SOL    HW126659   1.424   3.408  10.205
 8254SOL    HW226660   1.405   3.528  10.295
 8255SOL     OW26661  11.788   4.024   7.089
 8255SOL    HW126662  11.833   4.071   7.160
 8255SOL    HW226663  11.700   4.007   7.124
 8256SOL     OW26664  14.512  11.102  11.331
 8256SOL    HW126665  14.533  11.087  11.423
 8256SOL    HW226666  14.537  11.193  11.315
 8257SOL     OW26667  13.402   0.702   6.800
 8257SOL    HW126668  13.395   0.784   6.752
 8257SOL    HW226669  13.406   0.729   6.892
 8258SOL     OW26670   3.700   9.519   6.590
 8258SOL    HW126671   3.665   9.555   6.508
 8258SOL    HW226672   3.705   9.594   6.649
 8259SOL     OW26673   8.206  11.212  14.863
 8259SOL    HW126674   8.277  11.232  14.803
 8259SOL    HW226675   8.128  11.247  14.820
 8260SOL     OW26676   1.536   8.054  13.700
 8260SOL    HW126677   1.575   7.980  13.654
 8260SOL    HW226678   1.500   8.016  13.780
 8261SOL     OW26679   7.355   4.996  11.423
 8261SOL    HW126680   7.302   5.066  11.385
 8261SOL    HW226681   7.420   4.976  11.357
 8262SOL     OW26682   9.919  10.169   7.279
 8262SOL    HW126683   9.828  10.159   7.254
 8262SOL    HW226684   9.967  10.107   7.224
 8263SOL     OW26685   1.153   9.992  10.858
 8263SOL    HW126686   1.062   9.979  10.834
 8263SOL    HW226687   1.152  10.068  10.916
 8264SOL     OW26688   3.500   1.907   2.541
 8264SOL    HW126689   3.563   1.905   2.614
 8264SOL    HW226690   3.546   1.952   2.471
 8265SOL     OW26691   0.696   0.139  10.977
 8265SOL    HW126692   0.734   0.136  11.065
 8265SOL    HW226693   0.719   0.055  10.938
 8266SOL     OW26694   2.671   7.737  14.143
 8266SOL    HW126695   2.712   7.653  14.166
 8266SOL    HW226696   2.652   7.729  14.050
 8267SOL     OW26697  11.314   1.821   0.692
 8267SOL    HW126698  11.314   1.917   0.688
 8267SOL    HW226699  11.406   1.797   0.699
 8268SOL     OW26700  13.094   2.122   7.042
 8268SOL    HW126701  13.144   2.087   6.967
 8268SOL    HW226702  13.006   2.134   7.008
 8269SOL     OW26703  10.469   1.251  14.348
 8269SOL    HW126704  10.418   1.199  14.286
 8269SOL    HW226705  10.511   1.318  14.295
 8270SOL     OW26706  11.951  13.214   3.069
 8270SOL    HW126707  11.983  13.259   3.146
 8270SOL    HW226708  11.966  13.121   3.087
 8271SOL     OW26709  10.911  13.727   3.898
 8271SOL    HW126710  10.852  13.781   3.951
 8271SOL    HW226711  10.982  13.704   3.958
 8272SOL     OW26712   5.054  13.158  12.341
 8272SOL    HW126713   4.984  13.131  12.281
 8272SOL    HW226714   5.122  13.092  12.330
 8273SOL     OW26715   5.887   4.674   5.504
 8273SOL    HW126716   5.893   4.754   5.556
 8273SOL    HW226717   5.912   4.604   5.564
 8274SOL     OW26718   3.557   4.500   0.131
 8274SOL    HW126719   3.638   4.477   0.087
 8274SOL    HW226720   3.577   4.490   0.224
 8275SOL     OW26721  11.304  12.966  13.794
 8275SOL    HW126722  11.278  12.881  13.831
 8275SOL    HW226723  11.302  12.952  13.699
 8276SOL     OW26724   8.715   9.759  13.148
 8276SOL    HW126725   8.722   9.667  13.174
 8276SOL    HW226726   8.696   9.805  13.229
 8277SOL     OW26727   3.121   7.028   4.625
 8277SOL    HW126728   3.157   7.093   4.565
 8277SOL    HW226729   3.192   7.008   4.685
 8278SOL     OW26730   7.699   0.831  11.049
 8278SOL    HW126731   7.648   0.772  10.994
 8278SOL    HW226732   7.789   0.798  11.043
 8279SOL     OW26733  10.550   7.985   1.052
 8279SOL    HW126734  10.575   7.993   1.144
 8279SOL    HW226735  10.631   7.957   1.008
 8280SOL     OW26736  11.721  12.192   4.045
 8280SOL    HW126737  11.736  12.174   4.138
 8280SOL    HW226738  11.676  12.277   4.044
 8281SOL     OW26739  13.911  10.487  13.017
 8281SOL    HW126740  13.933  10.442  12.934
 8281SOL    HW226741  13.863  10.421  13.067
 8282SOL     OW26742   2.524  13.180   8.808
 8282SOL    HW126743   2.615  13.154   8.824
 8282SOL    HW226744   2.521  13.273   8.832
 8283SOL     OW26745   5.899   3.465  13.150
 8283SOL    HW126746   5.849   3.422  13.080
 8283SOL    HW226747   5.948   3.534  13.105
 8284SOL     OW26748   1.611   3.627   8.375
 8284SOL    HW126749   1.706   3.635   8.369
 8284SOL    HW226750   1.595   3.610   8.468
 8285SOL     OW26751   6.649  10.194   4.976
 8285SOL    HW126752   6.664  10.123   4.913
 8285SOL    HW226753   6.735  10.235   4.987
 8286SOL     OW26754   8.435  14.494  11.703
 8286SOL    HW126755   8.470  14.509  11.615
 8286SOL    HW226756   8.503  14.527  11.762
 8287SOL     OW26757  14.162   2.825   4.011
 8287SOL    HW126758  14.116   2.871   3.941
 8287SOL    HW226759  14.131   2.867   4.091
 8288SOL     OW26760   2.289   4.880   7.937
 8288SOL    HW126761   2.244   4.849   7.858
 8288SOL    HW226762   2.292   4.803   7.995
 8289SOL     OW26763  10.024  14.269   1.601
 8289SOL    HW126764  10.009  14.351   1.553
 8289SOL    HW226765  10.091  14.224   1.550
 8290SOL     OW26766  10.042   6.630   0.675
 8290SOL    HW126767  10.096   6.641   0.753
 8290SOL    HW226768  10.081   6.689   0.610
 8291SOL     OW26769  10.418   4.433   2.189
 8291SOL    HW126770  10.508   4.424   2.219
 8291SOL    HW226771  10.382   4.505   2.241
 8292SOL     OW26772  13.635   4.830   0.207
 8292SOL    HW126773  13.595   4.834   0.294
 8292SOL    HW226774  13.685   4.911   0.200
 8293SOL     OW26775   3.046   1.738   8.864
 8293SOL    HW126776   2.983   1.806   8.841
 8293SOL    HW226777   3.008   1.695   8.940
 8294SOL     OW26778   7.356   5.803   2.559
 8294SOL    HW126779   7.325   5.723   2.601
 8294SOL    HW226780   7.398   5.774   2.479
 8295SOL     OW26781  13.276  14.374   7.323
 8295SOL    HW126782  13.267  14.302   7.384
 8295SOL    HW226783  13.344  14.346   7.261
 8296SOL     OW26784   8.909   9.282  11.010
 8296SOL    HW126785   8.956   9.325  11.081
 8296SOL    HW226786   8.941   9.324  10.931
 8297SOL     OW26787   1.331   5.174   4.114
 8297SOL    HW126788   1.375   5.254   4.087
 8297SOL    HW226789   1.336   5.175   4.210
 8298SOL     OW26790   5.516   9.875  12.027
 8298SOL    HW126791   5.443   9.869  12.089
 8298SOL    HW226792   5.593   9.849  12.078
 8299SOL     OW26793   0.840  13.769   6.761
 8299SOL    HW126794   0.930  13.755   6.792
 8299SOL    HW226795   0.792  13.797   6.838
 8300SOL     OW26796  14.187  12.979   5.234
 8300SOL    HW126797  14.163  12.902   5.285
 8300SOL    HW226798  14.275  13.002   5.264
 8301SOL     OW26799   8.430   3.204   1.955
 8301SOL    HW126800   8.338   3.214   1.982
 8301SOL    HW226801   8.425   3.165   1.868
 8302SOL     OW26802  13.653   8.549  12.082
 8302SOL    HW126803  13.674   8.542  11.989
 8302SOL    HW226804  13.738   8.550  12.126
 8303SOL     OW26805   6.596  13.517   6.651
 8303SOL    HW126806   6.503  13.508   6.674
 8303SOL    HW226807   6.597  13.519   6.555
 8304SOL     OW26808  10.434   2.440   1.654
 8304SOL    HW126809  10.449   2.349   1.676
 8304SOL    HW226810  10.397   2.479   1.733
 8305SOL     OW26811  10.806  10.326   1.136
 8305SOL    HW126812  10.865  10.384   1.183
 8305SOL    HW226813  10.827  10.238   1.169
 8306SOL     OW26814   1.764   4.042  11.184
 8306SOL    HW126815   1.824   4.036  11.259
 8306SOL    HW226816   1.821   4.037  11.107
 8307SOL     OW26817  11.467   5.594  14.440
 8307SOL    HW126818  11.395   5.646  14.403
 8307SOL    HW226819  11.458   5.605  14.535
 8308SOL     OW26820   2.551   5.995   9.977
 8308SOL    HW126821   2.529   6.085  10.002
 8308SOL    HW226822   2.632   6.003   9.927
 8309SOL     OW26823  11.350  13.979   5.167
 8309SOL    HW126824  11.321  14.057   5.214
 8309SOL    HW226825  11.293  13.909   5.199
 8310SOL     OW26826   6.831   2.620   9.976
 8310SOL    HW126827   6.806   2.697   9.924
 8310SOL    HW226828   6.825   2.547   9.915
 8311SOL     OW26829   8.190  10.576   5.386
 8311SOL    HW126830   8.136  10.581   5.465
 8311SOL    HW226831   8.170  10.656   5.338
 8312SOL     OW26832  14.450  14.354  14.456
 8312SOL    HW126833  14.508  14.281  14.477
 8312SOL    HW226834  14.498  14.404  14.390
 8313SOL     OW26835   5.099  13.520   5.257
 8313SOL    HW126836   5.111  13.429   5.283
 8313SOL    HW226837   5.080  13.516   5.163
 8314SOL     OW26838   2.403   0.277  11.008
 8314SOL    HW126839   2.398   0.188  10.972
 8314SOL    HW226840   2.403   0.334  10.931
 8315SOL     OW26841   4.394   9.406  11.781
 8315SOL    HW126842   4.461   9.462  11.742
 8315SOL    HW226843   4.424   9.316  11.763
 8316SOL     OW26844  10.539   0.819   1.050
 8316SOL    HW126845  10.536   0.733   1.092
 8316SOL    HW226846  10.610   0.812   0.986
 8317SOL     OW26847   1.512  11.837  13.832
 8317SOL    HW126848   1.603  11.810  13.842
 8317SOL    HW226849   1.494  11.823  13.739
 8318SOL     OW26850   1.397   7.812  11.611
 8318SOL    HW126851   1.347   7.730  11.617
 8318SOL    HW226852   1.478   7.794  11.659
 8319SOL     OW26853   1.485   1.869   1.335
 8319SOL    HW126854   1.491   1.848   1.428
 8319SOL    HW226855   1.571   1.846   1.299
 8320SOL     OW26856   5.377  12.750   5.356
 8320SOL    HW126857   5.460  12.780   5.394
 8320SOL    HW226858   5.404  12.692   5.284
 8321SOL     OW26859   2.900   1.031   4.979
 8321SOL    HW126860   2.816   1.005   5.016
 8321SOL    HW226861   2.934   1.096   5.041
 8322SOL     OW26862   4.719  11.689   9.386
 8322SOL    HW126863   4.707  11.733   9.302
 8322SOL    HW226864   4.754  11.757   9.443
 8323SOL     OW26865   6.052   0.914   4.727
 8323SOL    HW126866   6.020   0.826   4.708
 8323SOL    HW226867   6.038   0.925   4.821
 8324SOL     OW26868  14.835   3.271   8.588
 8324SOL    HW126869  14.828   3.261   8.493
 8324SOL    HW226870   0.037   3.223   8.612
 8325SOL     OW26871   3.010   4.220   6.083
 8325SOL    HW126872   2.921   4.253   6.092
 8325SOL    HW226873   3.031   4.183   6.169
 8326SOL     OW26874   7.644   8.908   1.298
 8326SOL    HW126875   7.558   8.896   1.258
 8326SOL    HW226876   7.673   8.994   1.268
 8327SOL     OW26877  10.934  12.032   1.720
 8327SOL    HW126878  10.875  11.958   1.711
 8327SOL    HW226879  11.009  11.997   1.769
 8328SOL     OW26880   0.795  10.885   9.955
 8328SOL    HW126881   0.864  10.902  10.019
 8328SOL    HW226882   0.827  10.810   9.904
 8329SOL     OW26883   1.518   6.792   0.813
 8329SOL    HW126884   1.450   6.807   0.879
 8329SOL    HW226885   1.499   6.856   0.744
 8330SOL     OW26886  10.582   6.229  11.159
 8330SOL    HW126887  10.548   6.318  11.165
 8330SOL    HW226888  10.605   6.205  11.249
 8331SOL     OW26889  14.234  12.889   0.333
 8331SOL    HW126890  14.319  12.896   0.289
 8331SOL    HW226891  14.251  12.836   0.411
 8332SOL     OW26892  13.987   7.732   6.351
 8332SOL    HW126893  13.971   7.724   6.257
 8332SOL    HW226894  14.050   7.663   6.371
 8333SOL     OW26895   2.916   9.722   5.429
 8333SOL    HW126896   3.002   9.758   5.451
 8333SOL    HW226897   2.935   9.653   5.365
 8334SOL     OW26898  11.944   8.576   4.522
 8334SOL    HW126899  12.004   8.546   4.454
 8334SOL    HW226900  11.963   8.521   4.598
 8335SOL     OW26901   9.358  10.250  14.486
 8335SOL    HW126902   9.358  10.344  14.467
 8335SOL    HW226903   9.392  10.210  14.406
 8336SOL     OW26904   0.103  13.663   3.554
 8336SOL    HW126905   0.134  13.739   3.604
 8336SOL    HW226906   0.180  13.632   3.506
 8337SOL     OW26907   8.362  11.974   6.456
 8337SOL    HW126908   8.438  12.017   6.496
 8337SOL    HW226909   8.313  11.938   6.531
 8338SOL     OW26910  11.461   7.517   8.452
 8338SOL    HW126911  11.381   7.547   8.495
 8338SOL    HW226912  11.513   7.478   8.521
 8339SOL     OW26913   9.715   9.865   2.305
 8339SOL    HW126914   9.726   9.952   2.268
 8339SOL    HW226915   9.708   9.880   2.399
 8340SOL     OW26916   4.321   1.691   8.607
 8340SOL    HW126917   4.314   1.776   8.651
 8340SOL    HW226918   4.348   1.712   8.517
 8341SOL     OW26919   0.046   1.097   1.974
 8341SOL    HW126920   0.013   1.135   2.055
 8341SOL    HW226921  14.866   1.132   1.906
 8342SOL     OW26922   6.794  10.954  13.567
 8342SOL    HW126923   6.851  11.025  13.594
 8342SOL    HW226924   6.734  10.942  13.641
 8343SOL     OW26925   1.969   5.034   4.632
 8343SOL    HW126926   2.019   4.988   4.565
 8343SOL    HW226927   2.013   5.118   4.641
 8344SOL     OW26928   4.002   8.588   7.094
 8344SOL    HW126929   4.037   8.574   7.182
 8344SOL    HW226930   4.045   8.668   7.064
 8345SOL     OW26931   2.415   8.966   2.164
 8345SOL    HW126932   2.382   8.997   2.249
 8345SOL    HW226933   2.345   8.988   2.103
 8346SOL     OW26934  13.316  13.602   0.807
 8346SOL    HW126935  13.383  13.668   0.790
 8346SOL    HW226936  13.280  13.625   0.892
 8347SOL     OW26937   8.010  14.521  11.017
 8347SOL    HW126938   8.078  14.471  11.062
 8347SOL    HW226939   8.042  14.531  10.928
 8348SOL     OW26940  11.458   8.043   3.306
 8348SOL    HW126941  11.509   8.030   3.226
 8348SOL    HW226942  11.434   7.954   3.334
 8349SOL     OW26943   7.232  12.851   4.667
 8349SOL    HW126944   7.311  12.876   4.713
 8349SOL    HW226945   7.163  12.851   4.734
 8350SOL     OW26946   4.631   6.694   2.405
 8350SOL    HW126947   4.602   6.785   2.399
 8350SOL    HW226948   4.644   6.666   2.314
 8351SOL     OW26949   6.803   5.657   0.316
 8351SOL    HW126950   6.728   5.650   0.256
 8351SOL    HW226951   6.872   5.696   0.264
 8352SOL     OW26952  14.266   0.033   5.659
 8352SOL    HW126953  14.187   0.019   5.711
 8352SOL    HW226954  14.333  14.856   5.701
 8353SOL     OW26955   1.678   3.485  11.861
 8353SOL    HW126956   1.650   3.530  11.782
 8353SOL    HW226957   1.732   3.412  11.829
 8354SOL     OW26958  11.735   6.584   7.909
 8354SOL    HW126959  11.677   6.578   7.985
 8354SOL    HW226960  11.821   6.605   7.945
 8355SOL     OW26961   1.058  11.508  10.736
 8355SOL    HW126962   1.034  11.543  10.650
 8355SOL    HW226963   1.093  11.421  10.719
 8356SOL     OW26964   7.278   9.655  14.852
 8356SOL    HW126965   7.210   9.705   0.019
 8356SOL    HW226966   7.295   9.704  14.772
 8357SOL     OW26967   2.160   4.927   4.004
 8357SOL    HW126968   2.070   4.895   4.011
 8357SOL    HW226969   2.150   5.021   3.991
 8358SOL     OW26970  11.051  10.414   2.561
 8358SOL    HW126971  11.016  10.502   2.546
 8358SOL    HW226972  10.992  10.357   2.511
 8359SOL     OW26973   0.356   4.614  12.672
 8359SOL    HW126974   0.308   4.532  12.661
 8359SOL    HW226975   0.314   4.675  12.611
 8360SOL     OW26976   4.584   5.659  12.491
 8360SOL    HW126977   4.622   5.598  12.554
 8360SOL    HW226978   4.654   5.722  12.473
 8361SOL     OW26979   0.693   6.839   1.492
 8361SOL    HW126980   0.762   6.780   1.462
 8361SOL    HW226981   0.739   6.912   1.532
 8362SOL     OW26982  14.634  12.491  12.744
 8362SOL    HW126983  14.674  12.519  12.661
 8362SOL    HW226984  14.707  12.462  12.798
 8363SOL     OW26985   3.656   3.086   3.775
 8363SOL    HW126986   3.715   3.107   3.703
 8363SOL    HW226987   3.596   3.020   3.740
 8364SOL     OW26988   4.960  10.991  13.567
 8364SOL    HW126989   4.908  10.935  13.509
 8364SOL    HW226990   4.909  10.996  13.647
 8365SOL     OW26991   7.928   0.976  10.406
 8365SOL    HW126992   7.869   1.048  10.432
 8365SOL    HW226993   7.928   0.917  10.481
 8366SOL     OW26994   4.848  13.217   3.969
 8366SOL    HW126995   4.862  13.204   3.875
 8366SOL    HW226996   4.934  13.200   4.008
 8367SOL     OW26997   0.305   6.830   5.196
 8367SOL    HW126998   0.317   6.807   5.104
 8367SOL    HW226999   0.345   6.758   5.245
 8368SOL     OW27000   4.624  12.721   6.723
 8368SOL    HW127001   4.600  12.748   6.812
 8368SOL    HW227002   4.685  12.789   6.694
 8369SOL     OW27003   9.556  12.240   8.007
 8369SOL    HW127004   9.651  12.233   7.997
 8369SOL    HW227005   9.522  12.235   7.918
 8370SOL     OW27006  14.400  11.147   6.122
 8370SOL    HW127007  14.387  11.242   6.126
 8370SOL    HW227008  14.452  11.128   6.201
 8371SOL     OW27009  13.203   5.863  12.205
 8371SOL    HW127010  13.125   5.816  12.235
 8371SOL    HW227011  13.182   5.892  12.116
 8372SOL     OW27012   5.357  12.040   7.536
 8372SOL    HW127013   5.326  12.124   7.570
 8372SOL    HW227014   5.422  12.064   7.470
 8373SOL     OW27015   2.151  14.542  13.671
 8373SOL    HW127016   2.158  14.471  13.734
 8373SOL    HW227017   2.222  14.527  13.609
 8374SOL     OW27018   1.138   0.625  14.487
 8374SOL    HW127019   1.146   0.629  14.392
 8374SOL    HW227020   1.102   0.710  14.512
 8375SOL     OW27021   7.179   0.059   8.072
 8375SOL    HW127022   7.129   0.003   8.131
 8375SOL    HW227023   7.120   0.074   7.998
 8376SOL     OW27024   7.596   5.386   4.610
 8376SOL    HW127025   7.655   5.438   4.554
 8376SOL    HW227026   7.526   5.447   4.633
 8377SOL     OW27027  10.055   3.172   2.001
 8377SOL    HW127028   9.996   3.132   2.066
 8377SOL    HW227029  10.085   3.253   2.042
 8378SOL     OW27030  11.263   5.312   6.700
 8378SOL    HW127031  11.328   5.377   6.673
 8378SOL    HW227032  11.298   5.228   6.670
 8379SOL     OW27033   3.237   6.961   9.810
 8379SOL    HW127034   3.192   6.882   9.840
 8379SOL    HW227035   3.316   6.966   9.865
 8380SOL     OW27036   5.971   1.747  13.512
 8380SOL    HW127037   6.044   1.775  13.457
 8380SOL    HW227038   5.930   1.828  13.542
 8381SOL     OW27039  10.252  11.739   2.828
 8381SOL    HW127040  10.324  11.676   2.826
 8381SOL    HW227041  10.228  11.745   2.920
 8382SOL     OW27042   6.964   3.226  13.568
 8382SOL    HW127043   7.027   3.295  13.549
 8382SOL    HW227044   6.973   3.165  13.495
 8383SOL     OW27045   6.054  13.459   8.677
 8383SOL    HW127046   6.133  13.448   8.625
 8383SOL    HW227047   5.983  13.432   8.618
 8384SOL     OW27048   0.506  13.678   0.773
 8384SOL    HW127049   0.505  13.607   0.707
 8384SOL    HW227050   0.582  13.731   0.749
 8385SOL     OW27051   4.137  14.766   1.822
 8385SOL    HW127052   4.085  14.823   1.878
 8385SOL    HW227053   4.207  14.822   1.789
 8386SOL     OW27054   3.385  11.316   5.135
 8386SOL    HW127055   3.298  11.337   5.167
 8386SOL    HW227056   3.419  11.252   5.197
 8387SOL     OW27057   0.508   2.794   6.095
 8387SOL    HW127058   0.575   2.834   6.151
 8387SOL    HW227059   0.426   2.804   6.143
 8388SOL     OW27060  13.178  10.637   0.514
 8388SOL    HW127061  13.266  10.601   0.521
 8388SOL    HW227062  13.129  10.570   0.465
 8389SOL     OW27063   8.928  11.837   3.248
 8389SOL    HW127064   8.970  11.773   3.306
 8389SOL    HW227065   8.998  11.867   3.191
 8390SOL     OW27066   7.533   1.098  12.892
 8390SOL    HW127067   7.461   1.156  12.867
 8390SOL    HW227068   7.570   1.138  12.970
 8391SOL     OW27069   7.589   6.594   0.717
 8391SOL    HW127070   7.652   6.624   0.783
 8391SOL    HW227071   7.563   6.674   0.671
 8392SOL     OW27072   7.770   0.374   3.471
 8392SOL    HW127073   7.693   0.348   3.522
 8392SOL    HW227074   7.830   0.413   3.535
 8393SOL     OW27075   5.742   6.178   6.478
 8393SOL    HW127076   5.828   6.203   6.446
 8393SOL    HW227077   5.682   6.199   6.407
 8394SOL     OW27078   7.891   2.298  14.462
 8394SOL    HW127079   7.941   2.294  14.543
 8394SOL    HW227080   7.800   2.309  14.490
 8395SOL     OW27081   4.087   1.205  12.526
 8395SOL    HW127082   4.152   1.135  12.531
 8395SOL    HW227083   4.033   1.194  12.604
 8396SOL     OW27084  10.359  13.431   2.563
 8396SOL    HW127085  10.264  13.431   2.563
 8396SOL    HW227086  10.383  13.361   2.624
 8397SOL     OW27087   1.129   3.309   3.246
 8397SOL    HW127088   1.094   3.237   3.299
 8397SOL    HW227089   1.051   3.350   3.209
 8398SOL     OW27090  11.311   4.222   6.099
 8398SOL    HW127091  11.217   4.226   6.119
 8398SOL    HW227092  11.332   4.311   6.069
 8399SOL     OW27093   9.567  13.955   3.837
 8399SOL    HW127094   9.609  14.021   3.893
 8399SOL    HW227095   9.526  14.006   3.767
 8400SOL     OW27096   5.889  14.058  11.759
 8400SOL    HW127097   5.846  13.975  11.780
 8400SOL    HW227098   5.924  14.090  11.842
 8401SOL     OW27099  12.892   2.654  11.895
 8401SOL    HW127100  12.946   2.674  11.818
 8401SOL    HW227101  12.942   2.689  11.968
 8402SOL     OW27102  13.449  12.262   0.015
 8402SOL    HW127103  13.395  12.307   0.080
 8402SOL    HW227104  13.458  12.173   0.049
 8403SOL     OW27105   7.893   3.403   6.849
 8403SOL    HW127106   7.861   3.469   6.788
 8403SOL    HW227107   7.981   3.433   6.873
 8404SOL     OW27108   3.410   4.859   7.535
 8404SOL    HW127109   3.450   4.796   7.595
 8404SOL    HW227110   3.413   4.816   7.450
 8405SOL     OW27111   6.589   3.508  13.598
 8405SOL    HW127112   6.668   3.527  13.547
 8405SOL    HW227113   6.561   3.593  13.631
 8406SOL     OW27114  14.487  10.010  10.607
 8406SOL    HW127115  14.552  10.008  10.677
 8406SOL    HW227116  14.507  10.089  10.557
 8407SOL     OW27117   6.792   9.620  11.858
 8407SOL    HW127118   6.769   9.625  11.765
 8407SOL    HW227119   6.845   9.699  11.873
 8408SOL     OW27120   9.750  10.361   9.719
 8408SOL    HW127121   9.749  10.456   9.724
 8408SOL    HW227122   9.663  10.337   9.686
 8409SOL     OW27123  12.864   2.116   4.875
 8409SOL    HW127124  12.841   2.041   4.820
 8409SOL    HW227125  12.787   2.130   4.930
 8410SOL     OW27126   3.500   2.711  14.799
 8410SOL    HW127127   3.521   2.756   0.003
 8410SOL    HW227128   3.550   2.629  14.802
 8411SOL     OW27129   5.587   5.106   6.740
 8411SOL    HW127130   5.650   5.043   6.774
 8411SOL    HW227131   5.618   5.191   6.772
 8412SOL     OW27132   8.797  10.552  11.774
 8412SOL    HW127133   8.730  10.543  11.705
 8412SOL    HW227134   8.851  10.473  11.764
 8413SOL     OW27135   1.897  12.088   9.425
 8413SOL    HW127136   1.893  12.180   9.400
 8413SOL    HW227137   1.879  12.041   9.343
 8414SOL     OW27138  12.231  10.508  12.262
 8414SOL    HW127139  12.287  10.540  12.190
 8414SOL    HW227140  12.144  10.501  12.223
 8415SOL     OW27141   3.750   5.968   0.982
 8415SOL    HW127142   3.805   5.893   0.961
 8415SOL    HW227143   3.766   6.030   0.911
 8416SOL     OW27144   5.039  13.116  14.308
 8416SOL    HW127145   5.131  13.091  14.313
 8416SOL    HW227146   4.998  13.049  14.253
 8417SOL     OW27147   4.638  12.732   5.232
 8417SOL    HW127148   4.555  12.700   5.268
 8417SOL    HW227149   4.699  12.731   5.306
 8418SOL     OW27150   7.853   2.476   9.623
 8418SOL    HW127151   7.803   2.414   9.570
 8418SOL    HW227152   7.787   2.517   9.679
 8419SOL     OW27153  11.982   3.730   9.324
 8419SOL    HW127154  11.928   3.763   9.396
 8419SOL    HW227155  11.929   3.744   9.246
 8420SOL     OW27156   6.766   3.513  13.225
 8420SOL    HW127157   6.814   3.539  13.303
 8420SOL    HW227158   6.745   3.421  13.239
 8421SOL     OW27159   2.120   8.206   5.275
 8421SOL    HW127160   2.193   8.245   5.226
 8421SOL    HW227161   2.108   8.119   5.235
 8422SOL     OW27162   7.139   3.000  14.214
 8422SOL    HW127163   7.137   3.095  14.222
 8422SOL    HW227164   7.062   2.979  14.160
 8423SOL     OW27165  11.873  13.575   9.035
 8423SOL    HW127166  11.833  13.551   8.952
 8423SOL    HW227167  11.962  13.601   9.012
 8424SOL     OW27168   4.942  11.167   2.698
 8424SOL    HW127169   4.910  11.211   2.619
 8424SOL    HW227170   5.022  11.214   2.721
 8425SOL     OW27171   5.382  13.186  14.682
 8425SOL    HW127172   5.448  13.246  14.715
 8425SOL    HW227173   5.421  13.151  14.601
 8426SOL     OW27174   5.008  11.667   3.692
 8426SOL    HW127175   5.037  11.648   3.603
 8426SOL    HW227176   4.957  11.747   3.684
 8427SOL     OW27177   9.375   6.663  11.798
 8427SOL    HW127178   9.360   6.610  11.720
 8427SOL    HW227179   9.418   6.742  11.765
 8428SOL     OW27180   6.405  12.569   8.166
 8428SOL    HW127181   6.472  12.638   8.173
 8428SOL    HW227182   6.357  12.592   8.086
 8429SOL     OW27183   5.658   7.488   3.540
 8429SOL    HW127184   5.731   7.434   3.570
 8429SOL    HW227185   5.610   7.510   3.620
 8430SOL     OW27186   7.837   2.246   3.124
 8430SOL    HW127187   7.861   2.336   3.147
 8430SOL    HW227188   7.903   2.220   3.059
 8431SOL     OW27189   2.273  12.335  10.290
 8431SOL    HW127190   2.195  12.300  10.334
 8431SOL    HW227191   2.244  12.348  10.200
 8432SOL     OW27192   1.406   4.683   6.189
 8432SOL    HW127193   1.315   4.664   6.168
 8432SOL    HW227194   1.455   4.608   6.155
 8433SOL     OW27195   7.053   1.164  13.591
 8433SOL    HW127196   7.001   1.114  13.528
 8433SOL    HW227197   7.093   1.234  13.539
 8434SOL     OW27198   4.923   3.743   4.476
 8434SOL    HW127199   4.967   3.825   4.500
 8434SOL    HW227200   4.941   3.684   4.549
 8435SOL     OW27201  11.796   7.707  12.671
 8435SOL    HW127202  11.861   7.645  12.706
 8435SOL    HW227203  11.756   7.746  12.749
 8436SOL     OW27204   9.228   8.652   1.999
 8436SOL    HW127205   9.163   8.608   1.945
 8436SOL    HW227206   9.298   8.587   2.010
 8437SOL     OW27207  10.525   1.790  14.357
 8437SOL    HW127208  10.470   1.763  14.431
 8437SOL    HW227209  10.469   1.848  14.306
 8438SOL     OW27210   3.971  10.573  11.644
 8438SOL    HW127211   4.049  10.518  11.653
 8438SOL    HW227212   3.953  10.603  11.733
 8439SOL     OW27213   4.717  13.540   4.314
 8439SOL    HW127214   4.765  13.476   4.367
 8439SOL    HW227215   4.641  13.563   4.368
 8440SOL     OW27216   3.819   6.945   7.906
 8440SOL    HW127217   3.754   6.895   7.857
 8440SOL    HW227218   3.835   6.894   7.985
 8441SOL     OW27219  11.963   6.066  11.359
 8441SOL    HW127220  11.939   6.066  11.267
 8441SOL    HW227221  11.925   5.986  11.395
 8442SOL     OW27222  12.065   3.647   0.084
 8442SOL    HW127223  12.091   3.720   0.028
 8442SOL    HW227224  11.977   3.670   0.113
 8443SOL     OW27225   7.149  11.066  11.795
 8443SOL    HW127226   7.161  11.018  11.877
 8443SOL    HW227227   7.230  11.050  11.746
 8444SOL     OW27228   2.891   4.929  13.120
 8444SOL    HW127229   2.805   4.887  13.111
 8444SOL    HW227230   2.943   4.892  13.048
 8445SOL     OW27231   8.970   8.840   0.312
 8445SOL    HW127232   8.918   8.783   0.255
 8445SOL    HW227233   8.970   8.796   0.397
 8446SOL     OW27234   0.262   6.021   4.781
 8446SOL    HW127235   0.260   6.052   4.690
 8446SOL    HW227236   0.322   5.946   4.778
 8447SOL     OW27237   5.180   2.862   7.557
 8447SOL    HW127238   5.130   2.817   7.626
 8447SOL    HW227239   5.205   2.945   7.597
 8448SOL     OW27240  14.304   1.986   5.128
 8448SOL    HW127241  14.374   2.014   5.187
 8448SOL    HW227242  14.310   2.047   5.054
 8449SOL     OW27243   2.628   2.570   1.343
 8449SOL    HW127244   2.544   2.594   1.383
 8449SOL    HW227245   2.648   2.642   1.283
 8450SOL     OW27246   0.018  12.760   9.188
 8450SOL    HW127247   0.046  12.850   9.173
 8450SOL    HW227248   0.024  12.719   9.102
 8451SOL     OW27249   6.807  14.839  11.074
 8451SOL    HW127250   6.775  14.848  11.164
 8451SOL    HW227251   6.810   0.051  11.041
 8452SOL     OW27252   3.235   2.994   1.435
 8452SOL    HW127253   3.293   2.918   1.423
 8452SOL    HW227254   3.240   3.041   1.351
 8453SOL     OW27255   3.557  10.461   3.393
 8453SOL    HW127256   3.555  10.510   3.310
 8453SOL    HW227257   3.477  10.488   3.438
 8454SOL     OW27258   1.814   7.078  10.882
 8454SOL    HW127259   1.824   7.080  10.977
 8454SOL    HW227260   1.744   7.015  10.866
 8455SOL     OW27261   7.024   5.798  14.382
 8455SOL    HW127262   7.098   5.855  14.362
 8455SOL    HW227263   7.022   5.795  14.478
 8456SOL     OW27264   5.098  11.560   6.757
 8456SOL    HW127265   5.091  11.654   6.769
 8456SOL    HW227266   5.145  11.550   6.673
 8457SOL     OW27267  11.490  11.851   9.516
 8457SOL    HW127268  11.538  11.928   9.485
 8457SOL    HW227269  11.456  11.877   9.602
 8458SOL     OW27270   5.323   4.253   5.822
 8458SOL    HW127271   5.248   4.275   5.768
 8458SOL    HW227272   5.368   4.336   5.836
 8459SOL     OW27273   7.621   4.273   4.102
 8459SOL    HW127274   7.694   4.324   4.066
 8459SOL    HW227275   7.553   4.338   4.120
 8460SOL     OW27276   5.479   3.786   4.154
 8460SOL    HW127277   5.534   3.860   4.179
 8460SOL    HW227278   5.501   3.769   4.062
 8461SOL     OW27279   8.077   4.064   9.334
 8461SOL    HW127280   8.115   4.151   9.318
 8461SOL    HW227281   8.006   4.057   9.270
 8462SOL     OW27282   5.478   0.454   6.705
 8462SOL    HW127283   5.457   0.510   6.780
 8462SOL    HW227284   5.527   0.381   6.742
 8463SOL     OW27285   9.533  12.370   3.673
 8463SOL    HW127286   9.489  12.301   3.722
 8463SOL    HW227287   9.466  12.404   3.614
 8464SOL     OW27288   2.317  11.288   4.892
 8464SOL    HW127289   2.240  11.260   4.941
 8464SOL    HW227290   2.356  11.206   4.860
 8465SOL     OW27291   0.504   5.542  10.455
 8465SOL    HW127292   0.519   5.598  10.380
 8465SOL    HW227293   0.592   5.520  10.488
 8466SOL     OW27294   1.209  12.879   7.366
 8466SOL    HW127295   1.162  12.826   7.302
 8466SOL    HW227296   1.261  12.817   7.416
 8467SOL     OW27297   8.064   1.536  13.002
 8467SOL    HW127298   8.091   1.559  12.913
 8467SOL    HW227299   7.968   1.539  12.999
 8468SOL     OW27300  14.867   5.890   9.135
 8468SOL    HW127301  14.844   5.916   9.224
 8468SOL    HW227302  14.789   5.843   9.103
 8469SOL     OW27303  11.424   6.268   2.598
 8469SOL    HW127304  11.392   6.354   2.624
 8469SOL    HW227305  11.506   6.286   2.551
 8470SOL     OW27306   1.926  14.415  10.119
 8470SOL    HW127307   1.881  14.472  10.057
 8470SOL    HW227308   1.882  14.330  10.109
 8471SOL     OW27309   4.869   2.033   3.244
 8471SOL    HW127310   4.812   2.107   3.225
 8471SOL    HW227311   4.837   1.963   3.187
 8472SOL     OW27312   1.585   2.591   5.157
 8472SOL    HW127313   1.527   2.566   5.229
 8472SOL    HW227314   1.527   2.604   5.082
 8473SOL     OW27315   0.346  13.460  14.621
 8473SOL    HW127316   0.354  13.516  14.543
 8473SOL    HW227317   0.286  13.390  14.594
 8474SOL     OW27318   4.619   0.122   6.896
 8474SOL    HW127319   4.689   0.145   6.835
 8474SOL    HW227320   4.656   0.139   6.983
 8475SOL     OW27321   0.023   5.675  12.712
 8475SOL    HW127322  14.852   5.756  12.704
 8475SOL    HW227323   0.089   5.679  12.643
 8476SOL     OW27324   4.659   6.940   6.529
 8476SOL    HW127325   4.720   7.014   6.535
 8476SOL    HW227326   4.693   6.876   6.593
 8477SOL     OW27327   1.957   0.853   0.066
 8477SOL    HW127328   1.974   0.778   0.009
 8477SOL    HW227329   1.894   0.906   0.018
 8478SOL     OW27330   9.845  10.266   6.380
 8478SOL    HW127331   9.913  10.266   6.312
 8478SOL    HW227332   9.763  10.251   6.332
 8479SOL     OW27333   8.520  13.587  13.634
 8479SOL    HW127334   8.486  13.642  13.563
 8479SOL    HW227335   8.442  13.546  13.672
 8480SOL     OW27336   8.619   3.942   8.822
 8480SOL    HW127337   8.693   3.927   8.881
 8480SOL    HW227338   8.652   3.918   8.736
 8481SOL     OW27339   2.850  13.399  11.791
 8481SOL    HW127340   2.782  13.461  11.765
 8481SOL    HW227341   2.919  13.453  11.829
 8482SOL     OW27342  10.537   7.460  14.014
 8482SOL    HW127343  10.604   7.456  14.082
 8482SOL    HW227344  10.536   7.552  13.986
 8483SOL     OW27345   8.195  10.209   9.290
 8483SOL    HW127346   8.111  10.249   9.313
 8483SOL    HW227347   8.260  10.274   9.317
 8484SOL     OW27348   3.729   5.500   9.618
 8484SOL    HW127349   3.671   5.529   9.547
 8484SOL    HW227350   3.816   5.532   9.592
 8485SOL     OW27351  13.983   2.431   2.012
 8485SOL    HW127352  13.983   2.412   1.918
 8485SOL    HW227353  13.900   2.397   2.044
 8486SOL     OW27354  12.131   8.727   2.567
 8486SOL    HW127355  12.092   8.747   2.652
 8486SOL    HW227356  12.116   8.633   2.555
 8487SOL     OW27357  10.862   6.025   0.079
 8487SOL    HW127358  10.843   5.967   0.153
 8487SOL    HW227359  10.923   5.975   0.025
 8488SOL     OW27360  13.450   0.909   1.021
 8488SOL    HW127361  13.356   0.902   1.037
 8488SOL    HW227362  13.470   0.838   0.960
 8489SOL     OW27363  11.046   4.836   4.313
 8489SOL    HW127364  11.083   4.815   4.228
 8489SOL    HW227365  11.012   4.925   4.303
 8490SOL     OW27366   2.927   9.428   5.075
 8490SOL    HW127367   2.874   9.368   5.127
 8490SOL    HW227368   2.978   9.372   5.017
 8491SOL     OW27369  13.638   6.256  10.455
 8491SOL    HW127370  13.713   6.255  10.514
 8491SOL    HW227371  13.663   6.196  10.384
 8492SOL     OW27372   6.398  14.464  10.038
 8492SOL    HW127373   6.469  14.428  10.092
 8492SOL    HW227374   6.352  14.386  10.006
 8493SOL     OW27375   8.650   7.952   5.618
 8493SOL    HW127376   8.744   7.934   5.616
 8493SOL    HW227377   8.609   7.866   5.620
 8494SOL     OW27378   8.142   5.325   2.136
 8494SOL    HW127379   8.054   5.303   2.167
 8494SOL    HW227380   8.185   5.364   2.213
 8495SOL     OW27381   0.624   7.009   3.554
 8495SOL    HW127382   0.626   7.059   3.473
 8495SOL    HW227383   0.579   6.928   3.531
 8496SOL     OW27384   5.105   7.304   2.367
 8496SOL    HW127385   5.118   7.304   2.272
 8496SOL    HW227386   5.020   7.345   2.379
 8497SOL     OW27387  12.471   3.486  12.808
 8497SOL    HW127388  12.476   3.556  12.874
 8497SOL    HW227389  12.548   3.432  12.825
 8498SOL     OW27390  11.306   5.359   7.636
 8498SOL    HW127391  11.296   5.274   7.594
 8498SOL    HW227392  11.222   5.374   7.680
 8499SOL     OW27393   7.263   5.451   2.621
 8499SOL    HW127394   7.196   5.455   2.553
 8499SOL    HW227395   7.216   5.473   2.702
 8500SOL     OW27396   3.173  13.281  11.771
 8500SOL    HW127397   3.169  13.301  11.864
 8500SOL    HW227398   3.137  13.193  11.764
 8501SOL     OW27399  14.158  12.694   4.867
 8501SOL    HW127400  14.135  12.617   4.919
 8501SOL    HW227401  14.251  12.710   4.887
 8502SOL     OW27402  11.150  13.193   9.181
 8502SOL    HW127403  11.232  13.237   9.202
 8502SOL    HW227404  11.132  13.219   9.090
 8503SOL     OW27405   0.088   7.959   5.428
 8503SOL    HW127406   0.154   7.918   5.372
 8503SOL    HW227407   0.050   7.886   5.477
 8504SOL     OW27408   5.901   9.400   8.451
 8504SOL    HW127409   5.896   9.362   8.539
 8504SOL    HW227410   5.979   9.361   8.412
 8505SOL     OW27411   4.592   6.540   3.035
 8505SOL    HW127412   4.548   6.466   2.994
 8505SOL    HW227413   4.680   6.540   2.999
 8506SOL     OW27414   3.613   0.004  10.109
 8506SOL    HW127415   3.529  14.841  10.087
 8506SOL    HW227416   3.596   0.098  10.109
 8507SOL     OW27417   1.703   2.092  13.121
 8507SOL    HW127418   1.678   2.169  13.070
 8507SOL    HW227419   1.649   2.021  13.086
 8508SOL     OW27420  12.024   8.710  10.435
 8508SOL    HW127421  11.935   8.710  10.470
 8508SOL    HW227422  12.042   8.801  10.413
 8509SOL     OW27423  10.633   2.938  10.648
 8509SOL    HW127424  10.658   3.021  10.607
 8509SOL    HW227425  10.690   2.873  10.606
 8510SOL     OW27426   7.814   6.086   4.239
 8510SOL    HW127427   7.858   6.002   4.253
 8510SOL    HW227428   7.851   6.144   4.305
 8511SOL     OW27429   6.816  13.831   4.650
 8511SOL    HW127430   6.848  13.821   4.561
 8511SOL    HW227431   6.885  13.878   4.697
 8512SOL     OW27432  12.109   2.599   2.871
 8512SOL    HW127433  12.061   2.679   2.849
 8512SOL    HW227434  12.050   2.550   2.928
 8513SOL     OW27435   1.486   6.584  13.713
 8513SOL    HW127436   1.436   6.615  13.637
 8513SOL    HW227437   1.420   6.560  13.777
 8514SOL     OW27438   8.592  10.486  12.928
 8514SOL    HW127439   8.497  10.477  12.934
 8514SOL    HW227440   8.606  10.548  12.856
 8515SOL     OW27441   2.157   2.670  10.818
 8515SOL    HW127442   2.083   2.722  10.786
 8515SOL    HW227443   2.188   2.622  10.741
 8516SOL     OW27444   3.430   0.516   7.922
 8516SOL    HW127445   3.343   0.555   7.936
 8516SOL    HW227446   3.465   0.505   8.010
 8517SOL     OW27447   8.083  13.414   6.021
 8517SOL    HW127448   8.077  13.505   6.047
 8517SOL    HW227449   8.177  13.397   6.013
 8518SOL     OW27450  10.791   6.800  13.437
 8518SOL    HW127451  10.719   6.756  13.483
 8518SOL    HW227452  10.756   6.821  13.351
 8519SOL     OW27453  13.705   6.255   9.354
 8519SOL    HW127454  13.618   6.287   9.377
 8519SOL    HW227455  13.691   6.206   9.272
 8520SOL     OW27456   8.682   9.940  13.671
 8520SOL    HW127457   8.701  10.033  13.683
 8520SOL    HW227458   8.764   9.896  13.694
 8521SOL     OW27459  13.055   7.214   4.604
 8521SOL    HW127460  13.099   7.182   4.682
 8521SOL    HW227461  13.049   7.309   4.616
 8522SOL     OW27462  11.335   3.535   6.625
 8522SOL    HW127463  11.358   3.627   6.643
 8522SOL    HW227464  11.286   3.507   6.702
 8523SOL     OW27465   1.137   0.864   2.081
 8523SOL    HW127466   1.116   0.898   2.169
 8523SOL    HW227467   1.053   0.863   2.036
 8524SOL     OW27468   3.245   4.860   1.228
 8524SOL    HW127469   3.194   4.843   1.307
 8524SOL    HW227470   3.180   4.869   1.159
 8525SOL     OW27471   7.728   3.941   6.073
 8525SOL    HW127472   7.732   3.950   5.978
 8525SOL    HW227473   7.780   4.015   6.106
 8526SOL     OW27474  10.979   9.968   5.880
 8526SOL    HW127475  10.889   9.938   5.876
 8526SOL    HW227476  10.989  10.003   5.969
 8527SOL     OW27477   2.352   3.259   3.907
 8527SOL    HW127478   2.346   3.342   3.859
 8527SOL    HW227479   2.408   3.204   3.853
 8528SOL     OW27480   8.387   8.758  12.094
 8528SOL    HW127481   8.347   8.694  12.153
 8528SOL    HW227482   8.316   8.817  12.070
 8529SOL     OW27483  11.763   4.900   3.981
 8529SOL    HW127484  11.848   4.879   3.940
 8529SOL    HW227485  11.777   4.985   4.021
 8530SOL     OW27486  11.338   5.873   1.363
 8530SOL    HW127487  11.251   5.891   1.399
 8530SOL    HW227488  11.333   5.904   1.273
 8531SOL     OW27489  12.793  10.122   4.711
 8531SOL    HW127490  12.752  10.208   4.704
 8531SOL    HW227491  12.756  10.085   4.791
 8532SOL     OW27492   5.893  11.736  14.142
 8532SOL    HW127493   5.931  11.798  14.080
 8532SOL    HW227494   5.814  11.705  14.098
 8533SOL     OW27495   5.047  12.355   8.817
 8533SOL    HW127496   4.969  12.303   8.798
 8533SOL    HW227497   5.116  12.290   8.832
 8534SOL     OW27498  10.323   0.051   4.712
 8534SOL    HW127499  10.386  14.864   4.744
 8534SOL    HW227500  10.238   0.007   4.718
 8535SOL     OW27501  11.101   6.206   6.559
 8535SOL    HW127502  11.048   6.149   6.616
 8535SOL    HW227503  11.112   6.286   6.610
 8536SOL     OW27504  12.430   3.430  11.892
 8536SOL    HW127505  12.493   3.360  11.910
 8536SOL    HW227506  12.420   3.430  11.797
 8537SOL     OW27507   4.821  12.540  11.685
 8537SOL    HW127508   4.840  12.633  11.674
 8537SOL    HW227509   4.805  12.508  11.596
 8538SOL     OW27510   5.938   5.231   1.888
 8538SOL    HW127511   5.857   5.179   1.884
 8538SOL    HW227512   5.990   5.189   1.956
 8539SOL     OW27513  13.740   1.370   5.825
 8539SOL    HW127514  13.775   1.460   5.824
 8539SOL    HW227515  13.809   1.318   5.866
 8540SOL     OW27516  10.758   4.142   6.502
 8540SOL    HW127517  10.775   4.222   6.551
 8540SOL    HW227518  10.831   4.084   6.524
 8541SOL     OW27519  11.375   3.220   9.724
 8541SOL    HW127520  11.364   3.312   9.700
 8541SOL    HW227521  11.467   3.201   9.705
 8542SOL     OW27522   2.364  14.548   0.944
 8542SOL    HW127523   2.387  14.465   0.987
 8542SOL    HW227524   2.438  14.567   0.887
 8543SOL     OW27525  13.339   8.866   4.731
 8543SOL    HW127526  13.265   8.809   4.753
 8543SOL    HW227527  13.310   8.915   4.654
 8544SOL     OW27528   2.964  14.629   3.810
 8544SOL    HW127529   3.053  14.662   3.825
 8544SOL    HW227530   2.975  14.562   3.742
 8545SOL     OW27531  14.739  13.856   7.218
 8545SOL    HW127532  14.786  13.844   7.300
 8545SOL    HW227533  14.722  13.768   7.186
 8546SOL     OW27534   8.020   1.637   8.986
 8546SOL    HW127535   8.064   1.708   8.939
 8546SOL    HW227536   8.025   1.663   9.078
 8547SOL     OW27537  11.053   8.406   7.557
 8547SOL    HW127538  11.087   8.459   7.485
 8547SOL    HW227539  10.975   8.453   7.587
 8548SOL     OW27540   3.118   7.204   9.083
 8548SOL    HW127541   3.129   7.170   9.172
 8548SOL    HW227542   3.118   7.126   9.028
 8549SOL     OW27543   6.987  10.535  14.823
 8549SOL    HW127544   7.069  10.494  14.853
 8549SOL    HW227545   6.998  10.542  14.729
 8550SOL     OW27546   7.063  10.245   7.900
 8550SOL    HW127547   7.102  10.164   7.868
 8550SOL    HW227548   7.116  10.269   7.976
 8551SOL     OW27549  14.339   5.509   4.678
 8551SOL    HW127550  14.254   5.510   4.721
 8551SOL    HW227551  14.347   5.421   4.641
 8552SOL     OW27552   2.744  14.825  12.216
 8552SOL    HW127553   2.656  14.847  12.186
 8552SOL    HW227554   2.769  14.749  12.163
 8553SOL     OW27555   0.307   5.848   3.162
 8553SOL    HW127556   0.396   5.845   3.127
 8553SOL    HW227557   0.318   5.842   3.257
 8554SOL     OW27558  11.102   2.138   0.179
 8554SOL    HW127559  11.120   2.132   0.085
 8554SOL    HW227560  11.117   2.049   0.211
 8555SOL     OW27561   1.843   0.091   2.049
 8555SOL    HW127562   1.893   0.032   1.993
 8555SOL    HW227563   1.760   0.102   2.003
 8556SOL     OW27564   1.305   3.711  13.317
 8556SOL    HW127565   1.292   3.769  13.242
 8556SOL    HW227566   1.218   3.675  13.334
 8557SOL     OW27567  10.337   9.898   1.924
 8557SOL    HW127568  10.249   9.936   1.929
 8557SOL    HW227569  10.330   9.816   1.973
 8558SOL     OW27570  10.323   1.791  11.318
 8558SOL    HW127571  10.239   1.772  11.275
 8558SOL    HW227572  10.348   1.708  11.359
 8559SOL     OW27573   8.653   5.109   7.194
 8559SOL    HW127574   8.601   5.066   7.262
 8559SOL    HW227575   8.739   5.122   7.235
 8560SOL     OW27576   9.709   4.881   7.199
 8560SOL    HW127577   9.701   4.886   7.294
 8560SOL    HW227578   9.742   4.792   7.182
 8561SOL     OW27579   6.833   2.991  11.967
 8561SOL    HW127580   6.820   2.958  11.878
 8561SOL    HW227581   6.812   3.084  11.962
 8562SOL     OW27582  14.627   3.241   2.735
 8562SOL    HW127583  14.572   3.198   2.669
 8562SOL    HW227584  14.705   3.270   2.686
 8563SOL     OW27585   4.322  14.580   1.677
 8563SOL    HW127586   4.321  14.484   1.681
 8563SOL    HW227587   4.231  14.604   1.667
 8564SOL     OW27588  10.945  11.700   8.703
 8564SOL    HW127589  10.874  11.681   8.765
 8564SOL    HW227590  10.960  11.616   8.659
 8565SOL     OW27591   9.046   8.996   7.200
 8565SOL    HW127592   9.074   9.040   7.120
 8565SOL    HW227593   9.087   9.046   7.270
 8566SOL     OW27594  12.450   9.427  10.020
 8566SOL    HW127595  12.484   9.494  10.080
 8566SOL    HW227596  12.355   9.435  10.027
 8567SOL     OW27597  12.923   3.498   2.779
 8567SOL    HW127598  13.000   3.462   2.823
 8567SOL    HW227599  12.955   3.579   2.739
 8568SOL     OW27600  13.392  12.739   8.448
 8568SOL    HW127601  13.460  12.798   8.482
 8568SOL    HW227602  13.440  12.677   8.393
 8569SOL     OW27603   2.762  13.416   1.756
 8569SOL    HW127604   2.675  13.387   1.784
 8569SOL    HW227605   2.749  13.451   1.668
 8570SOL     OW27606   4.285   3.773   7.623
 8570SOL    HW127607   4.200   3.732   7.610
 8570SOL    HW227608   4.293   3.783   7.718
 8571SOL     OW27609   5.508  12.557  14.676
 8571SOL    HW127610   5.421  12.575  14.640
 8571SOL    HW227611   5.497  12.477  14.728
 8572SOL     OW27612   1.950   6.068   8.636
 8572SOL    HW127613   1.904   6.146   8.603
 8572SOL    HW227614   2.039   6.097   8.651
 8573SOL     OW27615  12.576   1.623   8.290
 8573SOL    HW127616  12.647   1.568   8.257
 8573SOL    HW227617  12.552   1.585   8.374
 8574SOL     OW27618   5.415  10.819   6.217
 8574SOL    HW127619   5.403  10.809   6.311
 8574SOL    HW227620   5.347  10.764   6.177
 8575SOL     OW27621  12.205   2.010   4.875
 8575SOL    HW127622  12.197   1.946   4.804
 8575SOL    HW227623  12.298   2.035   4.874
 8576SOL     OW27624   0.405   5.943   6.496
 8576SOL    HW127625   0.469   5.940   6.567
 8576SOL    HW227626   0.320   5.950   6.540
 8577SOL     OW27627  14.576   8.062   1.292
 8577SOL    HW127628  14.624   8.121   1.235
 8577SOL    HW227629  14.588   7.975   1.253
 8578SOL     OW27630   1.607   0.190   9.932
 8578SOL    HW127631   1.639   0.173   9.843
 8578SOL    HW227632   1.684   0.224   9.979
 8579SOL     OW27633   9.686  11.849  10.812
 8579SOL    HW127634   9.650  11.854  10.901
 8579SOL    HW227635   9.618  11.889  10.758
 8580SOL     OW27636  14.067   3.832  10.845
 8580SOL    HW127637  13.994   3.774  10.824
 8580SOL    HW227638  14.144   3.774  10.844
 8581SOL     OW27639   5.083   4.717   9.923
 8581SOL    HW127640   4.988   4.717   9.912
 8581SOL    HW227641   5.107   4.625   9.926
 8582SOL     OW27642   9.938   4.134   7.042
 8582SOL    HW127643   9.906   4.213   7.085
 8582SOL    HW227644   9.875   4.066   7.067
 8583SOL     OW27645   9.414  11.913   7.892
 8583SOL    HW127646   9.418  11.834   7.837
 8583SOL    HW227647   9.321  11.920   7.915
 8584SOL     OW27648   5.741  10.991   3.386
 8584SOL    HW127649   5.699  10.906   3.389
 8584SOL    HW227650   5.805  10.989   3.457
 8585SOL     OW27651   7.479  14.496  11.772
 8585SOL    HW127652   7.495  14.401  11.772
 8585SOL    HW227653   7.431  14.512  11.853
 8586SOL     OW27654   0.614  11.946   6.597
 8586SOL    HW127655   0.678  11.912   6.659
 8586SOL    HW227656   0.618  11.886   6.523
 8587SOL     OW27657   3.542  12.877  10.570
 8587SOL    HW127658   3.505  12.884  10.658
 8587SOL    HW227659   3.636  12.881  10.583
 8588SOL     OW27660   8.844   7.460  13.173
 8588SOL    HW127661   8.926   7.417  13.150
 8588SOL    HW227662   8.851   7.478  13.266
 8589SOL     OW27663  11.498  14.868   6.521
 8589SOL    HW127664  11.499   0.036   6.437
 8589SOL    HW227665  11.409  14.833   6.528
 8590SOL     OW27666  14.474  12.115   3.185
 8590SOL    HW127667  14.381  12.093   3.175
 8590SOL    HW227668  14.519  12.058   3.123
 8591SOL     OW27669   7.539  11.198   7.963
 8591SOL    HW127670   7.544  11.191   8.058
 8591SOL    HW227671   7.613  11.254   7.938
 8592SOL     OW27672   5.190  10.324  10.265
 8592SOL    HW127673   5.156  10.290  10.348
 8592SOL    HW227674   5.249  10.255  10.234
 8593SOL     OW27675   4.577  13.953   0.032
 8593SOL    HW127676   4.549  14.018  14.846
 8593SOL    HW227677   4.647  13.996   0.082
 8594SOL     OW27678  12.190   3.382   0.440
 8594SOL    HW127679  12.232   3.353   0.359
 8594SOL    HW227680  12.180   3.476   0.429
 8595SOL     OW27681   0.461   3.380   0.508
 8595SOL    HW127682   0.372   3.345   0.498
 8595SOL    HW227683   0.477   3.378   0.603
 8596SOL     OW27684  14.055   4.814   9.326
 8596SOL    HW127685  14.055   4.910   9.325
 8596SOL    HW227686  14.123   4.791   9.262
 8597SOL     OW27687  10.272  14.744  12.639
 8597SOL    HW127688  10.306  14.832  12.622
 8597SOL    HW227689  10.233  14.717  12.556
 8598SOL     OW27690   2.441  10.592   1.396
 8598SOL    HW127691   2.516  10.648   1.379
 8598SOL    HW227692   2.475  10.503   1.390
 8599SOL     OW27693   0.903   0.948   4.354
 8599SOL    HW127694   0.867   0.988   4.433
 8599SOL    HW227695   0.968   0.886   4.386
 8600SOL     OW27696   9.922   4.646   4.630
 8600SOL    HW127697   9.836   4.624   4.665
 8600SOL    HW227698   9.946   4.570   4.577
 8601SOL     OW27699  14.307   8.858  13.759
 8601SOL    HW127700  14.239   8.892  13.701
 8601SOL    HW227701  14.313   8.765  13.736
 8602SOL     OW27702   8.950  14.124  14.099
 8602SOL    HW127703   9.000  14.155  14.175
 8602SOL    HW227704   9.007  14.141  14.024
 8603SOL     OW27705  10.878  12.918   9.089
 8603SOL    HW127706  10.902  12.877   9.172
 8603SOL    HW227707  10.826  12.852   9.043
 8604SOL     OW27708   0.680   1.677   5.882
 8604SOL    HW127709   0.686   1.685   5.977
 8604SOL    HW227710   0.644   1.589   5.867
 8605SOL     OW27711  14.144   6.931   3.752
 8605SOL    HW127712  14.053   6.953   3.730
 8605SOL    HW227713  14.151   6.837   3.734
 8606SOL     OW27714   9.598   5.889   0.892
 8606SOL    HW127715   9.666   5.826   0.870
 8606SOL    HW227716   9.599   5.952   0.821
 8607SOL     OW27717   8.332   5.768  14.316
 8607SOL    HW127718   8.337   5.847  14.261
 8607SOL    HW227719   8.387   5.789  14.392
 8608SOL     OW27720   9.605   2.212  13.732
 8608SOL    HW127721   9.646   2.138  13.687
 8608SOL    HW227722   9.515   2.182  13.749
 8609SOL     OW27723   2.259  13.663  13.662
 8609SOL    HW127724   2.172  13.663  13.622
 8609SOL    HW227725   2.268  13.574  13.698
 8610SOL     OW27726   5.218   5.858   5.746
 8610SOL    HW127727   5.145   5.800   5.770
 8610SOL    HW227728   5.295   5.819   5.788
 8611SOL     OW27729   5.563   7.289   6.998
 8611SOL    HW127730   5.469   7.274   6.987
 8611SOL    HW227731   5.599   7.202   7.019
 8612SOL     OW27732  10.497   8.071  11.794
 8612SOL    HW127733  10.505   8.039  11.704
 8612SOL    HW227734  10.472   8.163  11.784
 8613SOL     OW27735   6.232   3.393   0.771
 8613SOL    HW127736   6.272   3.459   0.715
 8613SOL    HW227737   6.185   3.335   0.710
 8614SOL     OW27738  11.718   6.276   2.182
 8614SOL    HW127739  11.650   6.232   2.131
 8614SOL    HW227740  11.737   6.356   2.133
 8615SOL     OW27741  14.423  11.669   7.597
 8615SOL    HW127742  14.417  11.736   7.529
 8615SOL    HW227743  14.475  11.711   7.666
 8616SOL     OW27744  14.685   1.339   7.378
 8616SOL    HW127745  14.630   1.268   7.348
 8616SOL    HW227746  14.663   1.413   7.321
 8617SOL     OW27747   5.650  13.944  13.654
 8617SOL    HW127748   5.562  13.911  13.671
 8617SOL    HW227749   5.642  13.991  13.571
 8618SOL     OW27750  12.225   7.101   0.848
 8618SOL    HW127751  12.306   7.084   0.897
 8618SOL    HW227752  12.239   7.059   0.763
 8619SOL     OW27753  11.556  14.571   7.328
 8619SOL    HW127754  11.472  14.567   7.374
 8619SOL    HW227755  11.546  14.510   7.255
 8620SOL     OW27756   0.595   5.242  10.460
 8620SOL    HW127757   0.610   5.148  10.447
 8620SOL    HW227758   0.641   5.283  10.388
 8621SOL     OW27759   8.119  14.197   0.231
 8621SOL    HW127760   8.121  14.226   0.323
 8621SOL    HW227761   8.026  14.191   0.210
 8622SOL     OW27762   3.283  14.488   4.847
 8622SOL    HW127763   3.313  14.440   4.925
 8622SOL    HW227764   3.207  14.537   4.877
 8623SOL     OW27765  12.289   0.340   7.752
 8623SOL    HW127766  12.212   0.379   7.712
 8623SOL    HW227767  12.333   0.413   7.796
 8624SOL     OW27768  11.768   4.783   2.167
 8624SOL    HW127769  11.767   4.688   2.155
 8624SOL    HW227770  11.837   4.799   2.231
 8625SOL     OW27771   0.819   1.565  10.588
 8625SOL    HW127772   0.809   1.485  10.536
 8625SOL    HW227773   0.827   1.535  10.678
 8626SOL     OW27774   9.149   1.251   4.700
 8626SOL    HW127775   9.188   1.203   4.627
 8626SOL    HW227776   9.223   1.286   4.750
 8627SOL     OW27777  11.879   6.775   0.086
 8627SOL    HW127778  11.967   6.756   0.120
 8627SOL    HW227779  11.872   6.721   0.008
 8628SOL     OW27780   5.189   6.180   5.869
 8628SOL    HW127781   5.163   6.108   5.926
 8628SOL    HW227782   5.213   6.138   5.787
 8629SOL     OW27783   5.433  11.955   5.799
 8629SOL    HW127784   5.351  11.974   5.846
 8629SOL    HW227785   5.493  12.024   5.828
 8630SOL     OW27786   9.620   7.682  13.340
 8630SOL    HW127787   9.605   7.635  13.258
 8630SOL    HW227788   9.711   7.663  13.362
 8631SOL     OW27789   2.774  14.056  13.963
 8631SOL    HW127790   2.816  13.989  13.910
 8631SOL    HW227791   2.711  14.098  13.904
 8632SOL     OW27792  12.967   4.696   3.486
 8632SOL    HW127793  13.054   4.704   3.446
 8632SOL    HW227794  12.936   4.610   3.458
 8633SOL     OW27795   7.257   6.703   3.567
 8633SOL    HW127796   7.263   6.773   3.502
 8633SOL    HW227797   7.333   6.648   3.550
 8634SOL     OW27798   5.423  14.300   0.357
 8634SOL    HW127799   5.333  14.315   0.331
 8634SOL    HW227800   5.472  14.372   0.316
 8635SOL     OW27801  12.472   3.085  11.560
 8635SOL    HW127802  12.432   3.048  11.481
 8635SOL    HW227803  12.474   3.180  11.544
 8636SOL     OW27804   3.070   0.996  12.795
 8636SOL    HW127805   3.027   0.941  12.729
 8636SOL    HW227806   3.085   0.937  12.869
 8637SOL     OW27807  11.706   2.059  14.019
 8637SOL    HW127808  11.711   1.990  13.952
 8637SOL    HW227809  11.632   2.113  13.992
 8638SOL     OW27810  14.171  13.748   0.796
 8638SOL    HW127811  14.169  13.812   0.724
 8638SOL    HW227812  14.183  13.801   0.875
 8639SOL     OW27813  12.271   6.942   2.171
 8639SOL    HW127814  12.198   6.908   2.221
 8639SOL    HW227815  12.233   7.012   2.117
 8640SOL     OW27816  13.646   0.186  10.727
 8640SOL    HW127817  13.668   0.177  10.634
 8640SOL    HW227818  13.713   0.245  10.761
 8641SOL     OW27819  10.551   4.105   0.371
 8641SOL    HW127820  10.645   4.088   0.377
 8641SOL    HW227821  10.543   4.176   0.308
 8642SOL     OW27822  10.067   5.378   7.710
 8642SOL    HW127823  10.051   5.305   7.769
 8642SOL    HW227824  10.049   5.342   7.623
 8643SOL     OW27825   7.844   9.172  10.479
 8643SOL    HW127826   7.753   9.150  10.498
 8643SOL    HW227827   7.887   9.087  10.466
 8644SOL     OW27828  10.194   9.045   8.287
 8644SOL    HW127829  10.197   9.085   8.200
 8644SOL    HW227830  10.258   9.095   8.339
 8645SOL     OW27831   6.243   0.436   8.751
 8645SOL    HW127832   6.299   0.488   8.692
 8645SOL    HW227833   6.209   0.366   8.696
 8646SOL     OW27834  11.453   7.066  10.163
 8646SOL    HW127835  11.407   7.050  10.245
 8646SOL    HW227836  11.422   7.151  10.134
 8647SOL     OW27837  10.108   1.536   6.097
 8647SOL    HW127838  10.023   1.508   6.064
 8647SOL    HW227839  10.157   1.455   6.110
 8648SOL     OW27840   8.289   8.013   6.429
 8648SOL    HW127841   8.368   7.968   6.400
 8648SOL    HW227842   8.268   7.971   6.513
 8649SOL     OW27843  13.660  14.834   8.408
 8649SOL    HW127844  13.566  14.842   8.389
 8649SOL    HW227845  13.695  14.780   8.337
 8650SOL     OW27846   8.763   9.698   5.074
 8650SOL    HW127847   8.841   9.645   5.089
 8650SOL    HW227848   8.712   9.688   5.154
 8651SOL     OW27849  11.336  11.980  11.658
 8651SOL    HW127850  11.259  11.985  11.601
 8651SOL    HW227851  11.409  11.967  11.598
 8652SOL     OW27852   2.779   0.801  12.583
 8652SOL    HW127853   2.831   0.741  12.529
 8652SOL    HW227854   2.698   0.813  12.534
 8653SOL     OW27855   5.800  10.431  14.233
 8653SOL    HW127856   5.783  10.404  14.143
 8653SOL    HW227857   5.891  10.461  14.233
 8654SOL     OW27858  14.341   2.874  13.247
 8654SOL    HW127859  14.297   2.950  13.286
 8654SOL    HW227860  14.417   2.859  13.302
 8655SOL     OW27861   5.690   9.759   7.804
 8655SOL    HW127862   5.652   9.728   7.886
 8655SOL    HW227863   5.725   9.846   7.825
 8656SOL     OW27864   4.586   8.761  11.841
 8656SOL    HW127865   4.665   8.726  11.800
 8656SOL    HW227866   4.540   8.683  11.874
 8657SOL     OW27867  11.527   0.802   9.385
 8657SOL    HW127868  11.535   0.812   9.290
 8657SOL    HW227869  11.511   0.709   9.398
 8658SOL     OW27870   9.442   9.553  10.772
 8658SOL    HW127871   9.520   9.499  10.772
 8658SOL    HW227872   9.435   9.585  10.682
 8659SOL     OW27873   5.311   1.747   5.637
 8659SOL    HW127874   5.270   1.688   5.699
 8659SOL    HW227875   5.405   1.738   5.652
 8660SOL     OW27876   3.136   1.669   2.754
 8660SOL    HW127877   3.200   1.739   2.764
 8660SOL    HW227878   3.187   1.588   2.759
 8661SOL     OW27879   9.437   1.308   1.082
 8661SOL    HW127880   9.393   1.308   1.167
 8661SOL    HW227881   9.524   1.273   1.101
 8662SOL     OW27882  10.402  12.697   8.404
 8662SOL    HW127883  10.331  12.666   8.349
 8662SOL    HW227884  10.379  12.668   8.492
 8663SOL     OW27885   9.066   4.395  13.158
 8663SOL    HW127886   9.104   4.321  13.113
 8663SOL    HW227887   9.108   4.472  13.119
 8664SOL     OW27888  11.169  12.861   3.661
 8664SOL    HW127889  11.162  12.771   3.630
 8664SOL    HW227890  11.124  12.913   3.595
 8665SOL     OW27891   7.361   9.588   6.382
 8665SOL    HW127892   7.346   9.495   6.399
 8665SOL    HW227893   7.456   9.599   6.390
 8666SOL     OW27894   2.131   2.653   1.438
 8666SOL    HW127895   2.081   2.572   1.434
 8666SOL    HW227896   2.089   2.711   1.375
 8667SOL     OW27897   4.671  12.804   7.951
 8667SOL    HW127898   4.640  12.775   7.865
 8667SOL    HW227899   4.708  12.891   7.936
 8668SOL     OW27900   8.168  12.502   5.658
 8668SOL    HW127901   8.262  12.483   5.654
 8668SOL    HW227902   8.145  12.489   5.750
 8669SOL     OW27903   9.735  10.805   9.747
 8669SOL    HW127904   9.828  10.782   9.739
 8669SOL    HW227905   9.735  10.901   9.751
 8670SOL     OW27906   1.949   8.669   1.054
 8670SOL    HW127907   1.878   8.629   1.003
 8670SOL    HW227908   1.973   8.603   1.119
 8671SOL     OW27909   6.399   9.318  13.734
 8671SOL    HW127910   6.368   9.267  13.808
 8671SOL    HW227911   6.400   9.256  13.661
 8672SOL     OW27912   3.181  14.233   8.872
 8672SOL    HW127913   3.243  14.298   8.903
 8672SOL    HW227914   3.142  14.271   8.794
 8673SOL     OW27915   3.994   1.018  10.718
 8673SOL    HW127916   4.019   0.944  10.662
 8673SOL    HW227917   4.077   1.057  10.744
 8674SOL     OW27918   6.741   5.822   1.966
 8674SOL    HW127919   6.671   5.879   1.934
 8674SOL    HW227920   6.695   5.756   2.018
 8675SOL     OW27921   3.652   7.119   3.620
 8675SOL    HW127922   3.625   7.036   3.660
 8675SOL    HW227923   3.707   7.093   3.546
 8676SOL     OW27924   5.758  11.023  14.222
 8676SOL    HW127925   5.823  11.088  14.194
 8676SOL    HW227926   5.792  10.988  14.304
 8677SOL     OW27927   9.122   6.806   3.342
 8677SOL    HW127928   9.035   6.845   3.352
 8677SOL    HW227929   9.179   6.878   3.317
 8678SOL     OW27930  11.650   0.537  11.472
 8678SOL    HW127931  11.574   0.588  11.499
 8678SOL    HW227932  11.722   0.600  11.465
 8679SOL     OW27933   2.133  11.037   0.151
 8679SOL    HW127934   2.073  11.095   0.199
 8679SOL    HW227935   2.077  10.987   0.093
 8680SOL     OW27936   6.473   4.845   5.681
 8680SOL    HW127937   6.447   4.753   5.681
 8680SOL    HW227938   6.567   4.843   5.667
 8681SOL     OW27939  12.638   5.616   5.996
 8681SOL    HW127940  12.626   5.682   6.065
 8681SOL    HW227941  12.725   5.581   6.011
 8682SOL     OW27942   7.298   3.322   5.537
 8682SOL    HW127943   7.230   3.258   5.558
 8682SOL    HW227944   7.280   3.347   5.446
 8683SOL     OW27945   8.903   2.009  13.186
 8683SOL    HW127946   8.838   2.077  13.174
 8683SOL    HW227947   8.970   2.028  13.120
 8684SOL     OW27948  11.499  12.752   2.055
 8684SOL    HW127949  11.462  12.706   2.130
 8684SOL    HW227950  11.423  12.776   2.002
 8685SOL     OW27951   7.532   4.389   2.851
 8685SOL    HW127952   7.551   4.304   2.891
 8685SOL    HW227953   7.437   4.391   2.842
 8686SOL     OW27954  10.454  13.029   1.169
 8686SOL    HW127955  10.540  12.989   1.180
 8686SOL    HW227956  10.416  13.030   1.257
 8687SOL     OW27957  11.259   1.689   8.239
 8687SOL    HW127958  11.288   1.737   8.316
 8687SOL    HW227959  11.253   1.756   8.171
 8688SOL     OW27960   9.044  12.426   6.326
 8688SOL    HW127961   9.002  12.398   6.245
 8688SOL    HW227962   9.101  12.499   6.299
 8689SOL     OW27963   6.068   6.934   2.642
 8689SOL    HW127964   6.002   6.979   2.693
 8689SOL    HW227965   6.142   6.923   2.702
 8690SOL     OW27966  11.643   0.910   3.654
 8690SOL    HW127967  11.584   0.960   3.711
 8690SOL    HW227968  11.623   0.941   3.566
 8691SOL     OW27969   1.499   7.535   5.257
 8691SOL    HW127970   1.586   7.545   5.297
 8691SOL    HW227971   1.501   7.448   5.218
 8692SOL     OW27972  14.083   9.320  11.466
 8692SOL    HW127973  14.159   9.368  11.499
 8692SOL    HW227974  14.029   9.305  11.543
 8693SOL     OW27975  12.702  10.318   8.403
 8693SOL    HW127976  12.656  10.334   8.321
 8693SOL    HW227977  12.765  10.250   8.382
 8694SOL     OW27978   4.100  14.007  12.297
 8694SOL    HW127979   4.067  14.074  12.237
 8694SOL    HW227980   4.066  14.032  12.382
 8695SOL     OW27981   3.932   3.448  14.511
 8695SOL    HW127982   3.860   3.504  14.480
 8695SOL    HW227983   3.888   3.368  14.541
 8696SOL     OW27984   7.944   3.530   0.328
 8696SOL    HW127985   8.023   3.548   0.277
 8696SOL    HW227986   7.893   3.471   0.273
 8697SOL     OW27987  14.557   4.152   3.670
 8697SOL    HW127988  14.622   4.212   3.705
 8697SOL    HW227989  14.580   4.143   3.578
 8698SOL     OW27990  11.298  11.434   9.382
 8698SOL    HW127991  11.379  11.468   9.344
 8698SOL    HW227992  11.240  11.510   9.386
 8699SOL     OW27993   1.805   7.978   9.939
 8699SOL    HW127994   1.864   8.052   9.925
 8699SOL    HW227995   1.860   7.909   9.976
 8700SOL     OW27996   3.868   1.803  10.094
 8700SOL    HW127997   3.925   1.779  10.021
 8700SOL    HW227998   3.783   1.765  10.072
 8701SOL     OW27999   2.165   8.760   5.575
 8701SOL    HW128000   2.172   8.739   5.669
 8701SOL    HW228001   2.091   8.820   5.570
 8702SOL     OW28002   9.360  13.364   8.171
 8702SOL    HW128003   9.371  13.415   8.091
 8702SOL    HW228004   9.301  13.416   8.225
 8703SOL     OW28005  10.637  12.556  13.067
 8703SOL    HW128006  10.583  12.627  13.102
 8703SOL    HW228007  10.727  12.580  13.092
 8704SOL     OW28008   6.514   7.928   5.475
 8704SOL    HW128009   6.489   7.950   5.565
 8704SOL    HW228010   6.582   7.861   5.485
 8705SOL     OW28011   5.684   7.684  11.160
 8705SOL    HW128012   5.683   7.763  11.215
 8705SOL    HW228013   5.606   7.636  11.186
 8706SOL     OW28014   1.753   7.900   4.818
 8706SOL    HW128015   1.731   7.809   4.841
 8706SOL    HW228016   1.849   7.902   4.816
 8707SOL     OW28017   8.395  12.684   2.050
 8707SOL    HW128018   8.346  12.602   2.043
 8707SOL    HW228019   8.447  12.675   2.130
 8708SOL     OW28020   2.131   4.062   1.946
 8708SOL    HW128021   2.098   3.999   1.882
 8708SOL    HW228022   2.209   4.021   1.983
 8709SOL     OW28023   2.326   5.841  12.422
 8709SOL    HW128024   2.243   5.849  12.468
 8709SOL    HW228025   2.381   5.788  12.481
 8710SOL     OW28026  12.334  12.750   1.662
 8710SOL    HW128027  12.283  12.710   1.591
 8710SOL    HW228028  12.361  12.675   1.716
 8711SOL     OW28029   6.165   4.575   9.990
 8711SOL    HW128030   6.098   4.525  10.037
 8711SOL    HW228031   6.218   4.615  10.059
 8712SOL     OW28032   2.643   7.191   3.083
 8712SOL    HW128033   2.679   7.189   2.994
 8712SOL    HW228034   2.684   7.117   3.127
 8713SOL     OW28035   2.768   3.796   3.673
 8713SOL    HW128036   2.830   3.827   3.607
 8713SOL    HW228037   2.822   3.744   3.733
 8714SOL     OW28038   9.387   4.490   7.495
 8714SOL    HW128039   9.347   4.541   7.425
 8714SOL    HW228040   9.477   4.521   7.500
 8715SOL     OW28041   8.919  12.812   3.587
 8715SOL    HW128042   8.888  12.902   3.585
 8715SOL    HW228043   8.976  12.805   3.510
 8716SOL     OW28044   4.881  11.873   3.904
 8716SOL    HW128045   4.919  11.794   3.942
 8716SOL    HW228046   4.815  11.841   3.842
 8717SOL     OW28047  12.939   6.122   9.105
 8717SOL    HW128048  12.874   6.124   9.035
 8717SOL    HW228049  12.909   6.053   9.164
 8718SOL     OW28050   2.421  14.295   2.096
 8718SOL    HW128051   2.372  14.373   2.123
 8718SOL    HW228052   2.354  14.228   2.087
 8719SOL     OW28053   5.177  12.799  12.647
 8719SOL    HW128054   5.165  12.726  12.586
 8719SOL    HW228055   5.119  12.868  12.614
 8720SOL     OW28056   0.462   1.841   5.793
 8720SOL    HW128057   0.430   1.773   5.734
 8720SOL    HW228058   0.508   1.793   5.862
 8721SOL     OW28059  14.854   5.806   3.375
 8721SOL    HW128060  14.811   5.844   3.298
 8721SOL    HW228061  14.788   5.747   3.412
 8722SOL     OW28062   5.097  13.367   2.776
 8722SOL    HW128063   5.150  13.395   2.702
 8722SOL    HW228064   5.034  13.437   2.789
 8723SOL     OW28065   5.074   3.173  14.617
 8723SOL    HW128066   5.043   3.246  14.671
 8723SOL    HW228067   5.099   3.105  14.680
 8724SOL     OW28068   4.181   2.990   1.014
 8724SOL    HW128069   4.208   2.927   0.948
 8724SOL    HW228070   4.179   2.941   1.096
 8725SOL     OW28071   4.170   0.286   9.237
 8725SOL    HW128072   4.142   0.315   9.323
 8725SOL    HW228073   4.092   0.295   9.182
 8726SOL     OW28074   9.796   8.058   5.728
 8726SOL    HW128075   9.814   8.071   5.821
 8726SOL    HW228076   9.759   8.142   5.698
 8727SOL     OW28077   4.781  11.454  12.488
 8727SOL    HW128078   4.844  11.385  12.508
 8727SOL    HW228079   4.821  11.503  12.416
 8728SOL     OW28080   8.101   6.359  10.113
 8728SOL    HW128081   8.009   6.383  10.100
 8728SOL    HW228082   8.099   6.265  10.131
 8729SOL     OW28083  12.494   9.973   9.699
 8729SOL    HW128084  12.495   9.901   9.635
 8729SOL    HW228085  12.401   9.984   9.719
 8730SOL     OW28086   1.564   2.994   6.412
 8730SOL    HW128087   1.657   3.011   6.399
 8730SOL    HW228088   1.522   3.080   6.399
 8731SOL     OW28089   3.368   4.379   3.475
 8731SOL    HW128090   3.353   4.287   3.497
 8731SOL    HW228091   3.409   4.376   3.388
 8732SOL     OW28092   8.532   9.091  10.794
 8732SOL    HW128093   8.587   9.158  10.835
 8732SOL    HW228094   8.520   9.025  10.861
 8733SOL     OW28095   7.304  14.738   5.693
 8733SOL    HW128096   7.211  14.742   5.716
 8733SOL    HW228097   7.339  14.823   5.722
 8734SOL     OW28098   2.275   3.984  11.519
 8734SOL    HW128099   2.206   3.935  11.564
 8734SOL    HW228100   2.356   3.940  11.544
 8735SOL     OW28101   4.711   6.825   1.547
 8735SOL    HW128102   4.805   6.842   1.548
 8735SOL    HW228103   4.670   6.911   1.558
 8736SOL     OW28104   3.913   2.246   8.106
 8736SOL    HW128105   3.929   2.303   8.182
 8736SOL    HW228106   3.824   2.213   8.120
 8737SOL     OW28107   6.449   1.770  13.103
 8737SOL    HW128108   6.379   1.734  13.157
 8737SOL    HW228109   6.479   1.847  13.151
 8738SOL     OW28110   6.128   9.056  11.286
 8738SOL    HW128111   6.172   8.986  11.335
 8738SOL    HW228112   6.119   9.021  11.197
 8739SOL     OW28113   2.951  10.640   4.172
 8739SOL    HW128114   2.897  10.649   4.250
 8739SOL    HW228115   2.906  10.572   4.120
 8740SOL     OW28116  13.109   7.739   8.833
 8740SOL    HW128117  13.184   7.699   8.877
 8740SOL    HW228118  13.108   7.829   8.864
 8741SOL     OW28119   0.360  12.768   4.038
 8741SOL    HW128120   0.312  12.845   4.070
 8741SOL    HW228121   0.320  12.695   4.085
 8742SOL     OW28122   3.694   0.222  14.506
 8742SOL    HW128123   3.640   0.281  14.454
 8742SOL    HW228124   3.754   0.280  14.554
 8743SOL     OW28125  12.694  11.388  14.446
 8743SOL    HW128126  12.646  11.309  14.470
 8743SOL    HW228127  12.786  11.360  14.443
 8744SOL     OW28128   6.682   4.148   6.934
 8744SOL    HW128129   6.749   4.173   6.870
 8744SOL    HW228130   6.720   4.075   6.981
 8745SOL     OW28131   7.451  10.297   3.281
 8745SOL    HW128132   7.513  10.275   3.212
 8745SOL    HW228133   7.390  10.223   3.282
 8746SOL     OW28134  11.084   1.955   7.314
 8746SOL    HW128135  11.121   2.017   7.376
 8746SOL    HW228136  11.045   2.009   7.246
 8747SOL     OW28137   7.979  12.886   0.527
 8747SOL    HW128138   8.074  12.888   0.515
 8747SOL    HW228139   7.966  12.841   0.611
 8748SOL     OW28140  14.415  12.198   0.680
 8748SOL    HW128141  14.354  12.231   0.747
 8748SOL    HW228142  14.427  12.106   0.702
 8749SOL     OW28143   4.213   3.229  10.788
 8749SOL    HW128144   4.229   3.140  10.755
 8749SOL    HW228145   4.213   3.284  10.710
 8750SOL     OW28146   7.009  12.785   7.473
 8750SOL    HW128147   7.048  12.698   7.475
 8750SOL    HW228148   6.919  12.770   7.442
 8751SOL     OW28149  12.932   1.626  14.398
 8751SOL    HW128150  12.908   1.705  14.447
 8751SOL    HW228151  13.027   1.627  14.395
 8752SOL     OW28152   1.022   4.203   8.846
 8752SOL    HW128153   1.032   4.113   8.815
 8752SOL    HW228154   0.997   4.253   8.768
 8753SOL     OW28155   0.935   0.513   1.250
 8753SOL    HW128156   0.866   0.446   1.253
 8753SOL    HW228157   0.931   0.556   1.335
 8754SOL     OW28158   1.590  12.720   0.896
 8754SOL    HW128159   1.635  12.713   0.981
 8754SOL    HW228160   1.579  12.629   0.867
 8755SOL     OW28161   3.691  10.836   8.423
 8755SOL    HW128162   3.683  10.790   8.340
 8755SOL    HW228163   3.632  10.789   8.482
 8756SOL     OW28164   0.194   2.235  12.797
 8756SOL    HW128165   0.279   2.190  12.795
 8756SOL    HW228166   0.139   2.186  12.737
 8757SOL     OW28167   8.796   9.105   0.238
 8757SOL    HW128168   8.878   9.056   0.248
 8757SOL    HW228169   8.807   9.182   0.293
 8758SOL     OW28170   7.591   2.488   5.968
 8758SOL    HW128171   7.662   2.424   5.976
 8758SOL    HW228172   7.624   2.554   5.907
 8759SOL     OW28173  12.395  12.622   3.484
 8759SOL    HW128174  12.435  12.709   3.490
 8759SOL    HW228175  12.451  12.574   3.424
 8760SOL     OW28176  14.440   5.255  13.010
 8760SOL    HW128177  14.379   5.213  13.070
 8760SOL    HW228178  14.449   5.192  12.938
 8761SOL     OW28179   2.664   2.811   8.688
 8761SOL    HW128180   2.663   2.891   8.636
 8761SOL    HW228181   2.644   2.741   8.625
 8762SOL     OW28182   2.814   7.066   2.210
 8762SOL    HW128183   2.792   6.973   2.220
 8762SOL    HW228184   2.808   7.082   2.116
 8763SOL     OW28185  13.922  14.775  12.433
 8763SOL    HW128186  13.848  14.727  12.395
 8763SOL    HW228187  13.981  14.706  12.465
 8764SOL     OW28188   7.468   2.654   0.394
 8764SOL    HW128189   7.485   2.738   0.352
 8764SOL    HW228190   7.522   2.591   0.346
 8765SOL     OW28191  14.185   8.094  13.898
 8765SOL    HW128192  14.156   8.181  13.926
 8765SOL    HW228193  14.105   8.041  13.898
 8766SOL     OW28194   4.676   6.658   3.313
 8766SOL    HW128195   4.593   6.612   3.325
 8766SOL    HW228196   4.704   6.635   3.224
 8767SOL     OW28197   8.139  13.137   4.976
 8767SOL    HW128198   8.116  13.159   4.886
 8767SOL    HW228199   8.151  13.042   4.975
 8768SOL     OW28200  14.020   1.926   4.360
 8768SOL    HW128201  13.949   1.943   4.299
 8768SOL    HW228202  14.039   1.833   4.352
 8769SOL     OW28203   0.581  13.280   8.478
 8769SOL    HW128204   0.642  13.207   8.470
 8769SOL    HW228205   0.637  13.357   8.490
 8770SOL     OW28206  13.670  13.977   3.147
 8770SOL    HW128207  13.598  13.998   3.088
 8770SOL    HW228208  13.682  14.056   3.200
 8771SOL     OW28209  11.711   4.202   6.673
 8771SOL    HW128210  11.643   4.182   6.737
 8771SOL    HW228211  11.675   4.172   6.589
 8772SOL     OW28212   6.405   7.220   2.177
 8772SOL    HW128213   6.488   7.197   2.219
 8772SOL    HW228214   6.339   7.177   2.231
 8773SOL     OW28215   2.798  13.656  12.647
 8773SOL    HW128216   2.703  13.668  12.656
 8773SOL    HW228217   2.830  13.741  12.619
 8774SOL     OW28218   9.138   4.847  12.582
 8774SOL    HW128219   9.048   4.878  12.591
 8774SOL    HW228220   9.159   4.859  12.489
 8775SOL     OW28221   8.167   9.148  14.298
 8775SOL    HW128222   8.191   9.241  14.290
 8775SOL    HW228223   8.072   9.148  14.303
 8776SOL     OW28224  13.909   9.863   4.350
 8776SOL    HW128225  13.960   9.943   4.345
 8776SOL    HW228226  13.865   9.868   4.435
 8777SOL     OW28227  14.173   8.755   4.352
 8777SOL    HW128228  14.129   8.750   4.267
 8777SOL    HW228229  14.165   8.667   4.388
 8778SOL     OW28230   5.097   6.946  11.763
 8778SOL    HW128231   5.086   6.981  11.852
 8778SOL    HW228232   5.026   6.984  11.713
 8779SOL     OW28233   9.033  14.013   7.300
 8779SOL    HW128234   8.948  14.047   7.326
 8779SOL    HW228235   9.049  14.050   7.213
 8780SOL     OW28236   5.307   0.935  14.136
 8780SOL    HW128237   5.345   0.990  14.067
 8780SOL    HW228238   5.320   0.845  14.106
 8781SOL     OW28239  13.345   5.403   0.428
 8781SOL    HW128240  13.304   5.330   0.381
 8781SOL    HW228241  13.284   5.476   0.418
 8782SOL     OW28242  12.148  13.013  14.806
 8782SOL    HW128243  12.107  13.099  14.816
 8782SOL    HW228244  12.186  12.995   0.015
 8783SOL     OW28245   7.415  12.069  13.881
 8783SOL    HW128246   7.454  12.114  13.956
 8783SOL    HW228247   7.380  11.988  13.917
 8784SOL     OW28248  12.814  12.330   2.365
 8784SOL    HW128249  12.783  12.243   2.339
 8784SOL    HW228250  12.898  12.313   2.409
 8785SOL     OW28251  14.477   7.598   0.730
 8785SOL    HW128252  14.468   7.533   0.800
 8785SOL    HW228253  14.569   7.593   0.705
 8786SOL     OW28254   3.894   6.490   6.337
 8786SOL    HW128255   3.870   6.559   6.398
 8786SOL    HW228256   3.984   6.467   6.361
 8787SOL     OW28257   8.072   6.460   3.871
 8787SOL    HW128258   8.037   6.527   3.930
 8787SOL    HW228259   8.006   6.391   3.872
 8788SOL     OW28260  13.104   9.578   6.806
 8788SOL    HW128261  13.056   9.660   6.792
 8788SOL    HW228262  13.124   9.547   6.718
 8789SOL     OW28263   1.081  11.265  12.356
 8789SOL    HW128264   1.027  11.268  12.435
 8789SOL    HW228265   1.018  11.275  12.284
 8790SOL     OW28266   7.627   3.602  13.401
 8790SOL    HW128267   7.655   3.663  13.333
 8790SOL    HW228268   7.626   3.655  13.482
 8791SOL     OW28269  13.341   9.724  11.573
 8791SOL    HW128270  13.432   9.708  11.599
 8791SOL    HW228271  13.335   9.688  11.485
 8792SOL     OW28272   9.046   4.789   7.028
 8792SOL    HW128273   9.067   4.793   7.122
 8792SOL    HW228274   9.068   4.700   7.003
 8793SOL     OW28275   4.459  14.498   9.973
 8793SOL    HW128276   4.485  14.415  10.013
 8793SOL    HW228277   4.371  14.514  10.005
 8794SOL     OW28278   3.120  10.326  14.219
 8794SOL    HW128279   3.120  10.258  14.150
 8794SOL    HW228280   3.029  10.354  14.225
 8795SOL     OW28281   0.264   7.145   5.388
 8795SOL    HW128282   0.310   7.217   5.346
 8795SOL    HW228283   0.192   7.125   5.328
 8796SOL     OW28284   2.300   3.865   2.760
 8796SOL    HW128285   2.337   3.797   2.816
 8796SOL    HW228286   2.244   3.818   2.699
 8797SOL     OW28287  14.798   6.536  10.859
 8797SOL    HW128288  14.848   6.461  10.828
 8797SOL    HW228289  14.707   6.508  10.854
 8798SOL     OW28290  14.355  12.944   4.370
 8798SOL    HW128291  14.260  12.942   4.367
 8798SOL    HW228292  14.379  12.874   4.432
 8799SOL     OW28293   2.083   0.271   6.272
 8799SOL    HW128294   2.080   0.226   6.187
 8799SOL    HW228295   1.999   0.316   6.278
 8800SOL     OW28296   1.100   0.711   8.058
 8800SOL    HW128297   1.180   0.676   8.096
 8800SOL    HW228298   1.126   0.797   8.023
 8801SOL     OW28299  10.694   5.300  10.117
 8801SOL    HW128300  10.731   5.379  10.158
 8801SOL    HW228301  10.758   5.231  10.135
 8802SOL     OW28302   3.541  10.704  13.068
 8802SOL    HW128303   3.550  10.794  13.099
 8802SOL    HW228304   3.460  10.704  13.018
 8803SOL     OW28305   0.751   7.390   3.237
 8803SOL    HW128306   0.840   7.371   3.267
 8803SOL    HW228307   0.731   7.476   3.275
 8804SOL     OW28308   8.520  14.596   1.864
 8804SOL    HW128309   8.487  14.592   1.954
 8804SOL    HW228310   8.454  14.549   1.813
 8805SOL     OW28311  10.086   1.643  11.297
 8805SOL    HW128312  10.096   1.619  11.205
 8805SOL    HW228313  10.015   1.708  11.297
 8806SOL     OW28314   0.752  12.636  11.725
 8806SOL    HW128315   0.769  12.545  11.751
 8806SOL    HW228316   0.685  12.666  11.786
 8807SOL     OW28317   4.521   3.329  14.338
 8807SOL    HW128318   4.552   3.420  14.338
 8807SOL    HW228319   4.599   3.277  14.357
 8808SOL     OW28320   2.286   4.473   6.036
 8808SOL    HW128321   2.198   4.499   6.064
 8808SOL    HW228322   2.329   4.555   6.012
 8809SOL     OW28323  10.029   2.222   1.770
 8809SOL    HW128324  10.064   2.298   1.724
 8809SOL    HW228325   9.996   2.257   1.853
 8810SOL     OW28326   9.577  14.441   7.836
 8810SOL    HW128327   9.516  14.436   7.762
 8810SOL    HW228328   9.531  14.496   7.900
 8811SOL     OW28329   2.082   1.845  10.163
 8811SOL    HW128330   2.041   1.791  10.230
 8811SOL    HW228331   2.123   1.917  10.211
 8812SOL     OW28332   4.502  11.418   3.632
 8812SOL    HW128333   4.424  11.367   3.653
 8812SOL    HW228334   4.574  11.370   3.674
 8813SOL     OW28335  11.181   8.694   0.806
 8813SOL    HW128336  11.189   8.707   0.901
 8813SOL    HW228337  11.157   8.601   0.797
 8814SOL     OW28338  13.829  13.590  11.579
 8814SOL    HW128339  13.906  13.540  11.554
 8814SOL    HW228340  13.818  13.574  11.672
 8815SOL     OW28341  10.135   2.147  12.009
 8815SOL    HW128342  10.197   2.113  11.944
 8815SOL    HW228343  10.070   2.078  12.019
 8816SOL     OW28344  11.090   5.365   1.450
 8816SOL    HW128345  11.164   5.355   1.509
 8816SOL    HW228346  11.047   5.279   1.451
 8817SOL     OW28347   7.877   3.594   0.587
 8817SOL    HW128348   7.782   3.587   0.594
 8817SOL    HW228349   7.895   3.575   0.494
 8818SOL     OW28350  11.303   4.774  14.414
 8818SOL    HW128351  11.360   4.812  14.347
 8818SOL    HW228352  11.324   4.822  14.493
 8819SOL     OW28353  12.576   5.071  10.282
 8819SOL    HW128354  12.489   5.051  10.246
 8819SOL    HW228355  12.631   4.998  10.252
 8820SOL     OW28356   0.070   5.190   4.556
 8820SOL    HW128357   0.063   5.095   4.563
 8820SOL    HW228358   0.082   5.219   4.647
 8821SOL     OW28359   6.236   3.515  13.677
 8821SOL    HW128360   6.304   3.449  13.658
 8821SOL    HW228361   6.215   3.553  13.591
 8822SOL     OW28362   8.094  13.937   3.533
 8822SOL    HW128363   8.028  13.985   3.484
 8822SOL    HW228364   8.063  13.847   3.534
 8823SOL     OW28365  12.083   8.386   6.841
 8823SOL    HW128366  12.037   8.379   6.758
 8823SOL    HW228367  12.165   8.339   6.828
 8824SOL     OW28368   5.916   3.901   1.107
 8824SOL    HW128369   5.899   3.943   1.022
 8824SOL    HW228370   5.948   3.972   1.163
 8825SOL     OW28371   9.223  10.056   4.237
 8825SOL    HW128372   9.153  10.002   4.276
 8825SOL    HW228373   9.262  10.101   4.312
 8826SOL     OW28374   8.764   7.260   6.790
 8826SOL    HW128375   8.855   7.238   6.771
 8826SOL    HW228376   8.744   7.333   6.731
 8827SOL     OW28377   4.174  14.870   6.228
 8827SOL    HW128378   4.097  14.814   6.222
 8827SOL    HW228379   4.140   0.081   6.239
 8828SOL     OW28380  13.228  11.475  10.948
 8828SOL    HW128381  13.174  11.416  11.000
 8828SOL    HW228382  13.318  11.448  10.966
 8829SOL     OW28383   0.890  13.533   1.364
 8829SOL    HW128384   0.849  13.619   1.369
 8829SOL    HW228385   0.872  13.503   1.275
 8830SOL     OW28386  12.003  12.303   6.219
 8830SOL    HW128387  11.974  12.249   6.292
 8830SOL    HW228388  11.937  12.373   6.214
 8831SOL     OW28389  13.371  13.829  12.365
 8831SOL    HW128390  13.326  13.899  12.412
 8831SOL    HW228391  13.301  13.768  12.340
 8832SOL     OW28392   0.518   3.222   5.563
 8832SOL    HW128393   0.430   3.217   5.601
 8832SOL    HW228394   0.572   3.169   5.622
 8833SOL     OW28395   5.206   8.094   9.515
 8833SOL    HW128396   5.144   8.023   9.501
 8833SOL    HW228397   5.271   8.083   9.446
 8834SOL     OW28398   5.868  11.153   7.404
 8834SOL    HW128399   5.773  11.152   7.396
 8834SOL    HW228400   5.893  11.063   7.423
 8835SOL     OW28401   7.715  10.007   1.921
 8835SOL    HW128402   7.751   9.935   1.974
 8835SOL    HW228403   7.745  10.086   1.964
 8836SOL     OW28404   6.586  10.345   6.442
 8836SOL    HW128405   6.501  10.334   6.400
 8836SOL    HW228406   6.630  10.261   6.430
 8837SOL     OW28407  14.170   1.211   3.576
 8837SOL    HW128408  14.157   1.157   3.653
 8837SOL    HW228409  14.264   1.204   3.558
 8838SOL     OW28410   4.477  10.827  14.040
 8838SOL    HW128411   4.428  10.746  14.028
 8838SOL    HW228412   4.569  10.800  14.037
 8839SOL     OW28413   3.383   2.582   2.975
 8839SOL    HW128414   3.302   2.605   3.021
 8839SOL    HW228415   3.409   2.663   2.932
 8840SOL     OW28416   4.543  14.323   1.369
 8840SOL    HW128417   4.507  14.244   1.411
 8840SOL    HW228418   4.621  14.291   1.323
 8841SOL     OW28419   7.911   0.745   7.138
 8841SOL    HW128420   7.948   0.696   7.065
 8841SOL    HW228421   7.838   0.691   7.168
 8842SOL     OW28422   3.498   7.239   5.163
 8842SOL    HW128423   3.587   7.224   5.195
 8842SOL    HW228424   3.442   7.215   5.236
 8843SOL     OW28425   9.401   6.309   2.702
 8843SOL    HW128426   9.311   6.332   2.678
 8843SOL    HW228427   9.391   6.249   2.776
 8844SOL     OW28428   5.711  12.907  12.800
 8844SOL    HW128429   5.801  12.895  12.770
 8844SOL    HW228430   5.657  12.885  12.724
 8845SOL     OW28431  12.333   2.699  13.769
 8845SOL    HW128432  12.418   2.712  13.727
 8845SOL    HW228433  12.316   2.605  13.760
 8846SOL     OW28434   9.450   5.288   5.566
 8846SOL    HW128435   9.441   5.379   5.594
 8846SOL    HW228436   9.526   5.288   5.508
 8847SOL     OW28437  14.053   4.732   0.370
 8847SOL    HW128438  14.067   4.826   0.359
 8847SOL    HW228439  14.127   4.691   0.323
 8848SOL     OW28440   1.743  14.384   2.262
 8848SOL    HW128441   1.824  14.351   2.300
 8848SOL    HW228442   1.753  14.369   2.168
 8849SOL     OW28443  13.756   5.356  13.240
 8849SOL    HW128444  13.847   5.333  13.261
 8849SOL    HW228445  13.726   5.285  13.184
 8850SOL     OW28446   7.380   5.736   9.509
 8850SOL    HW128447   7.383   5.812   9.450
 8850SOL    HW228448   7.354   5.772   9.593
 8851SOL     OW28449  12.666  13.249   5.547
 8851SOL    HW128450  12.696  13.224   5.459
 8851SOL    HW228451  12.570  13.248   5.541
 8852SOL     OW28452   8.000   9.335  14.041
 8852SOL    HW128453   7.968   9.359  13.954
 8852SOL    HW228454   7.973   9.407  14.097
 8853SOL     OW28455   1.904  12.257   2.225
 8853SOL    HW128456   1.904  12.241   2.319
 8853SOL    HW228457   1.819  12.297   2.207
 8854SOL     OW28458  13.577  11.722  13.356
 8854SOL    HW128459  13.525  11.776  13.297
 8854SOL    HW228460  13.548  11.632  13.339
 8855SOL     OW28461   6.257   8.708  14.345
 8855SOL    HW128462   6.350   8.687  14.358
 8855SOL    HW228463   6.211   8.653  14.409
 8856SOL     OW28464  10.149   5.571  13.505
 8856SOL    HW128465  10.086   5.642  13.511
 8856SOL    HW228466  10.096   5.491  13.508
 8857SOL     OW28467   4.603   1.470   5.159
 8857SOL    HW128468   4.584   1.474   5.253
 8857SOL    HW228469   4.684   1.421   5.153
 8858SOL     OW28470  12.334   3.029   5.648
 8858SOL    HW128471  12.382   3.095   5.599
 8858SOL    HW228472  12.375   2.946   5.623
 8859SOL     OW28473  12.947   8.693   3.950
 8859SOL    HW128474  13.001   8.660   4.022
 8859SOL    HW228475  12.974   8.785   3.940
 8860SOL     OW28476   0.019  14.759   5.707
 8860SOL    HW128477   0.043  14.833   5.651
 8860SOL    HW228478  14.816  14.725   5.668
 8861SOL     OW28479  11.101   8.924   7.669
 8861SOL    HW128480  11.180   8.963   7.705
 8861SOL    HW228481  11.045   8.998   7.646
 8862SOL     OW28482  10.532   5.152   5.107
 8862SOL    HW128483  10.606   5.180   5.054
 8862SOL    HW228484  10.457   5.198   5.069
 8863SOL     OW28485  13.203   0.953   0.877
 8863SOL    HW128486  13.274   0.921   0.822
 8863SOL    HW228487  13.154   1.013   0.819
 8864SOL     OW28488   8.483   5.259   1.888
 8864SOL    HW128489   8.497   5.290   1.977
 8864SOL    HW228490   8.539   5.314   1.834
 8865SOL     OW28491  11.388  13.906  12.763
 8865SOL    HW128492  11.314  13.962  12.786
 8865SOL    HW228493  11.465  13.957  12.784
 8866SOL     OW28494  11.854   6.878   5.072
 8866SOL    HW128495  11.939   6.837   5.089
 8866SOL    HW228496  11.853   6.894   4.977
 8867SOL     OW28497   1.474   9.456   0.889
 8867SOL    HW128498   1.489   9.521   0.821
 8867SOL    HW228499   1.430   9.384   0.844
 8868SOL     OW28500   4.309   6.423  14.526
 8868SOL    HW128501   4.381   6.438  14.587
 8868SOL    HW228502   4.316   6.494  14.463
 8869SOL     OW28503   7.019   0.192   9.765
 8869SOL    HW128504   6.947   0.202   9.702
 8869SOL    HW228505   7.086   0.252   9.734
 8870SOL     OW28506   5.315   4.986   5.454
 8870SOL    HW128507   5.390   4.994   5.512
 8870SOL    HW228508   5.273   5.073   5.457
 8871SOL     OW28509   8.879  12.956  14.443
 8871SOL    HW128510   8.916  13.008  14.515
 8871SOL    HW228511   8.814  13.013  14.403
 8872SOL     OW28512  13.537   5.155   3.091
 8872SOL    HW128513  13.487   5.167   3.011
 8872SOL    HW228514  13.487   5.204   3.157
 8873SOL     OW28515   4.589   0.668   8.104
 8873SOL    HW128516   4.538   0.692   8.027
 8873SOL    HW228517   4.649   0.741   8.118
 8874SOL     OW28518   6.817  11.498   6.460
 8874SOL    HW128519   6.912  11.487   6.468
 8874SOL    HW228520   6.805  11.589   6.434
 8875SOL     OW28521   5.289  12.336   5.064
 8875SOL    HW128522   5.226  12.293   5.122
 8875SOL    HW228523   5.318  12.413   5.113
 8876SOL     OW28524  12.284   8.234  10.804
 8876SOL    HW128525  12.264   8.327  10.804
 8876SOL    HW228526  12.367   8.227  10.851
 8877SOL     OW28527   3.102   4.991   2.878
 8877SOL    HW128528   3.051   5.031   2.949
 8877SOL    HW228529   3.114   4.900   2.907
 8878SOL     OW28530   1.351  10.024   4.415
 8878SOL    HW128531   1.439  10.005   4.448
 8878SOL    HW228532   1.352  10.118   4.397
 8879SOL     OW28533  13.406   0.234   3.266
 8879SOL    HW128534  13.474   0.287   3.306
 8879SOL    HW228535  13.449   0.189   3.194
 8880SOL     OW28536   5.256   7.614  11.772
 8880SOL    HW128537   5.166   7.620  11.740
 8880SOL    HW228538   5.307   7.665  11.710
 8881SOL     OW28539  13.641   7.098   6.673
 8881SOL    HW128540  13.683   7.061   6.750
 8881SOL    HW228541  13.566   7.040   6.656
 8882SOL     OW28542   0.175   1.631  10.475
 8882SOL    HW128543   0.111   1.660  10.541
 8882SOL    HW228544   0.234   1.574  10.522
 8883SOL     OW28545  10.577   5.856  14.762
 8883SOL    HW128546  10.611   5.775  14.799
 8883SOL    HW228547  10.636   5.875  14.689
 8884SOL     OW28548   0.056  10.350   1.710
 8884SOL    HW128549  14.873  10.389   1.772
 8884SOL    HW228550   0.005  10.282   1.666
 8885SOL     OW28551   1.664   6.060   1.530
 8885SOL    HW128552   1.579   6.075   1.571
 8885SOL    HW228553   1.714   6.010   1.595
 8886SOL     OW28554   6.161   4.525  11.566
 8886SOL    HW128555   6.216   4.485  11.499
 8886SOL    HW228556   6.081   4.550  11.519
 8887SOL     OW28557   4.669   7.065  11.262
 8887SOL    HW128558   4.702   7.154  11.247
 8887SOL    HW228559   4.581   7.078  11.298
 8888SOL     OW28560   2.728  12.445   9.411
 8888SOL    HW128561   2.770  12.424   9.327
 8888SOL    HW228562   2.635  12.451   9.391
 8889SOL     OW28563   1.119   5.884  13.787
 8889SOL    HW128564   1.182   5.941  13.832
 8889SOL    HW228565   1.067   5.845  13.858
 8890SOL     OW28566  14.338   7.712   2.265
 8890SOL    HW128567  14.315   7.770   2.338
 8890SOL    HW228568  14.434   7.707   2.268
 8891SOL     OW28569   2.605   1.177   5.595
 8891SOL    HW128570   2.510   1.188   5.590
 8891SOL    HW228571   2.626   1.193   5.688
 8892SOL     OW28572   3.342   7.511   5.035
 8892SOL    HW128573   3.279   7.576   5.005
 8892SOL    HW228574   3.425   7.538   4.997
 8893SOL     OW28575   2.488   3.288  12.957
 8893SOL    HW128576   2.496   3.383  12.966
 8893SOL    HW228577   2.408   3.266  13.004
 8894SOL     OW28578  11.906   5.301  10.412
 8894SOL    HW128579  11.925   5.234  10.478
 8894SOL    HW228580  11.969   5.284  10.342
 8895SOL     OW28581   5.146   0.719   7.147
 8895SOL    HW128582   5.184   0.641   7.186
 8895SOL    HW228583   5.213   0.751   7.087
 8896SOL     OW28584   9.688   4.415   8.287
 8896SOL    HW128585   9.673   4.400   8.194
 8896SOL    HW228586   9.688   4.510   8.296
 8897SOL     OW28587  11.925   1.104   2.423
 8897SOL    HW128588  11.993   1.156   2.381
 8897SOL    HW228589  11.963   1.075   2.505
 8898SOL     OW28590  13.477   9.940   0.593
 8898SOL    HW128591  13.502   9.856   0.633
 8898SOL    HW228592  13.544  10.002   0.623
 8899SOL     OW28593  12.134   2.756  13.570
 8899SOL    HW128594  12.176   2.729  13.651
 8899SOL    HW228595  12.207   2.769  13.508
 8900SOL     OW28596  13.698   4.331  13.302
 8900SOL    HW128597  13.734   4.295  13.383
 8900SOL    HW228598  13.731   4.273  13.233
 8901SOL     OW28599   8.319   9.710   2.567
 8901SOL    HW128600   8.269   9.748   2.640
 8901SOL    HW228601   8.349   9.786   2.517
 8902SOL     OW28602   9.078   5.723   7.761
 8902SOL    HW128603   9.067   5.810   7.801
 8902SOL    HW228604   9.058   5.662   7.832
 8903SOL     OW28605  13.906  11.279   1.015
 8903SOL    HW128606  13.931  11.268   0.923
 8903SOL    HW228607  13.912  11.373   1.030
 8904SOL     OW28608   8.575   3.616  14.538
 8904SOL    HW128609   8.591   3.529  14.573
 8904SOL    HW228610   8.609   3.613  14.449
 8905SOL     OW28611   7.937   3.313   9.225
 8905SOL    HW128612   7.915   3.237   9.171
 8905SOL    HW228613   7.936   3.387   9.164
 8906SOL     OW28614  11.994  13.455   3.544
 8906SOL    HW128615  11.980  13.515   3.618
 8906SOL    HW228616  12.062  13.395   3.575
 8907SOL     OW28617  14.153   9.849   7.610
 8907SOL    HW128618  14.102   9.791   7.667
 8907SOL    HW228619  14.183   9.920   7.667
 8908SOL     OW28620  10.628   7.040   6.349
 8908SOL    HW128621  10.628   6.984   6.272
 8908SOL    HW228622  10.691   7.109   6.329
 8909SOL     OW28623   9.515  14.851   1.463
 8909SOL    HW128624   9.521   0.064   1.496
 8909SOL    HW228625   9.444  14.853   1.400
 8910SOL     OW28626   7.362   0.270   9.145
 8910SOL    HW128627   7.418   0.347   9.141
 8910SOL    HW228628   7.278   0.300   9.111
 8911SOL     OW28629   8.481   1.419   0.055
 8911SOL    HW128630   8.544   1.464   0.113
 8911SOL    HW228631   8.407   1.399   0.112
 8912SOL     OW28632   8.259   4.278   0.709
 8912SOL    HW128633   8.204   4.322   0.645
 8912SOL    HW228634   8.289   4.199   0.665
 8913SOL     OW28635   9.724  10.882   8.281
 8913SOL    HW128636   9.632  10.906   8.269
 8913SOL    HW228637   9.744  10.827   8.205
 8914SOL     OW28638  12.392  11.971   2.526
 8914SOL    HW128639  12.370  11.908   2.594
 8914SOL    HW228640  12.445  12.037   2.571
 8915SOL     OW28641   2.943   6.109   6.994
 8915SOL    HW128642   2.976   6.030   6.950
 8915SOL    HW228643   3.022   6.156   7.022
 8916SOL     OW28644  11.095   8.470  11.438
 8916SOL    HW128645  11.140   8.399  11.483
 8916SOL    HW228646  11.162   8.536  11.421
 8917SOL     OW28647   6.753  11.764  11.181
 8917SOL    HW128648   6.782  11.693  11.239
 8917SOL    HW228649   6.834  11.798  11.142
 8918SOL     OW28650  10.657  10.880   7.077
 8918SOL    HW128651  10.580  10.898   7.023
 8918SOL    HW228652  10.649  10.788   7.100
 8919SOL     OW28653   5.037  11.876   6.637
 8919SOL    HW128654   4.943  11.893   6.638
 8919SOL    HW228655   5.050  11.820   6.561
 8920SOL     OW28656   0.097   3.776   1.554
 8920SOL    HW128657   0.119   3.685   1.533
 8920SOL    HW228658   0.031   3.770   1.623
 8921SOL     OW28659  12.308   0.882   0.538
 8921SOL    HW128660  12.376   0.923   0.484
 8921SOL    HW228661  12.357   0.831   0.603
 8922SOL     OW28662   0.049   0.664  10.914
 8922SOL    HW128663   0.098   0.663  10.996
 8922SOL    HW228664   0.107   0.709  10.853
 8923SOL     OW28665   8.199  11.869   6.656
 8923SOL    HW128666   8.251  11.796   6.690
 8923SOL    HW228667   8.162  11.910   6.734
 8924SOL     OW28668   0.557  13.140   7.967
 8924SOL    HW128669   0.518  13.053   7.973
 8924SOL    HW228670   0.599  13.142   7.881
 8925SOL     OW28671   2.699   6.458  11.872
 8925SOL    HW128672   2.660   6.388  11.820
 8925SOL    HW228673   2.750   6.510  11.810
 8926SOL     OW28674   0.101   3.396   2.942
 8926SOL    HW128675   0.154   3.319   2.960
 8926SOL    HW228676   0.011   3.367   2.956
 8927SOL     OW28677   5.742   4.386  12.449
 8927SOL    HW128678   5.807   4.328  12.488
 8927SOL    HW228679   5.751   4.469  12.497
 8928SOL     OW28680  11.536   6.299   5.402
 8928SOL    HW128681  11.440   6.302   5.399
 8928SOL    HW228682  11.558   6.208   5.381
 8929SOL     OW28683   8.665   1.664   9.914
 8929SOL    HW128684   8.743   1.716   9.893
 8929SOL    HW228685   8.700   1.583   9.952
 8930SOL     OW28686   3.292   6.986   4.838
 8930SOL    HW128687   3.329   7.069   4.867
 8930SOL    HW228688   3.369   6.932   4.818
 8931SOL     OW28689   5.455   4.990   7.510
 8931SOL    HW128690   5.521   5.059   7.518
 8931SOL    HW228691   5.413   5.006   7.426
 8932SOL     OW28692   1.281   1.470  11.037
 8932SOL    HW128693   1.370   1.436  11.024
 8932SOL    HW228694   1.279   1.550  10.985
 8933SOL     OW28695   4.352   9.201   4.774
 8933SOL    HW128696   4.368   9.190   4.868
 8933SOL    HW228697   4.310   9.120   4.747
 8934SOL     OW28698   9.663  13.132   4.685
 8934SOL    HW128699   9.572  13.138   4.656
 8934SOL    HW228700   9.681  13.038   4.690
 8935SOL     OW28701  14.366   4.904   8.632
 8935SOL    HW128702  14.366   4.810   8.648
 8935SOL    HW228703  14.404   4.913   8.544
 8936SOL     OW28704   7.747   9.661   2.230
 8936SOL    HW128705   7.668   9.685   2.181
 8936SOL    HW228706   7.764   9.570   2.204
 8937SOL     OW28707  14.676   1.612  13.600
 8937SOL    HW128708  14.684   1.682  13.666
 8937SOL    HW228709  14.733   1.641  13.528
 8938SOL     OW28710  13.205  13.914   9.758
 8938SOL    HW128711  13.153  13.928   9.679
 8938SOL    HW228712  13.145  13.874   9.820
 8939SOL     OW28713   4.348   0.262   5.770
 8939SOL    HW128714   4.283   0.325   5.803
 8939SOL    HW228715   4.360   0.287   5.679
 8940SOL     OW28716   4.513  11.875   4.098
 8940SOL    HW128717   4.586  11.815   4.110
 8940SOL    HW228718   4.451  11.852   4.167
 8941SOL     OW28719   3.907   7.715  12.292
 8941SOL    HW128720   3.925   7.625  12.320
 8941SOL    HW228721   3.853   7.705  12.214
 8942SOL     OW28722  13.978   5.653   6.032
 8942SOL    HW128723  13.915   5.688   6.094
 8942SOL    HW228724  13.924   5.610   5.965
 8943SOL     OW28725   0.037  13.008  10.152
 8943SOL    HW128726  14.844  13.070  10.138
 8943SOL    HW228727   0.059  12.977  10.064
 8944SOL     OW28728   7.019   4.301   0.739
 8944SOL    HW128729   7.013   4.279   0.832
 8944SOL    HW228730   7.111   4.285   0.716
 8945SOL     OW28731  10.478  14.719   4.768
 8945SOL    HW128732  10.504  14.782   4.835
 8945SOL    HW228733  10.414  14.663   4.811
 8946SOL     OW28734   4.159  10.559   2.147
 8946SOL    HW128735   4.212  10.520   2.216
 8946SOL    HW228736   4.131  10.485   2.093
 8947SOL     OW28737   7.049   5.043   2.578
 8947SOL    HW128738   6.965   5.065   2.538
 8947SOL    HW228739   7.104   5.013   2.506
 8948SOL     OW28740  14.837   0.363   3.981
 8948SOL    HW128741  14.878   0.441   4.019
 8948SOL    HW228742   0.008   0.290   4.019
 8949SOL     OW28743   3.371  10.817  12.068
 8949SOL    HW128744   3.311  10.865  12.011
 8949SOL    HW228745   3.330  10.822  12.155
 8950SOL     OW28746  11.163   3.864   9.754
 8950SOL    HW128747  11.207   3.825   9.830
 8950SOL    HW228748  11.234   3.904   9.705
 8951SOL     OW28749   5.971   8.521   8.620
 8951SOL    HW128750   5.897   8.573   8.651
 8951SOL    HW228751   6.005   8.570   8.545
 8952SOL     OW28752  11.412   1.583  13.721
 8952SOL    HW128753  11.347   1.630  13.773
 8952SOL    HW228754  11.369   1.567  13.637
 8953SOL     OW28755   0.952   3.422   9.180
 8953SOL    HW128756   0.924   3.355   9.116
 8953SOL    HW228757   0.873   3.438   9.232
 8954SOL     OW28758   0.405   4.748   3.218
 8954SOL    HW128759   0.441   4.723   3.303
 8954SOL    HW228760   0.397   4.843   3.223
 8955SOL     OW28761   1.190   7.530   7.420
 8955SOL    HW128762   1.159   7.614   7.455
 8955SOL    HW228763   1.191   7.471   7.495
 8956SOL     OW28764  13.851   2.654   9.600
 8956SOL    HW128765  13.884   2.675   9.687
 8956SOL    HW228766  13.928   2.663   9.543
 8957SOL     OW28767  12.048   3.206   7.329
 8957SOL    HW128768  11.957   3.238   7.325
 8957SOL    HW228769  12.098   3.282   7.358
 8958SOL     OW28770  13.233   2.727   1.122
 8958SOL    HW128771  13.287   2.780   1.180
 8958SOL    HW228772  13.223   2.643   1.167
 8959SOL     OW28773   3.081   6.065  11.990
 8959SOL    HW128774   3.144   6.093  12.056
 8959SOL    HW228775   3.051   6.146  11.949
 8960SOL     OW28776   1.732   3.688   1.165
 8960SOL    HW128777   1.655   3.632   1.153
 8960SOL    HW228778   1.699   3.765   1.210
 8961SOL     OW28779  12.906  14.391   2.574
 8961SOL    HW128780  12.885  14.483   2.556
 8961SOL    HW228781  12.863  14.373   2.659
 8962SOL     OW28782  11.185   9.790   9.722
 8962SOL    HW128783  11.249   9.752   9.782
 8962SOL    HW228784  11.101   9.754   9.749
 8963SOL     OW28785   3.917   4.837   4.690
 8963SOL    HW128786   3.967   4.762   4.721
 8963SOL    HW228787   3.833   4.829   4.735
 8964SOL     OW28788  11.575   0.071   4.165
 8964SOL    HW128789  11.497   0.105   4.208
 8964SOL    HW228790  11.542   0.006   4.104
 8965SOL     OW28791   0.036   5.126   0.552
 8965SOL    HW128792   0.117   5.092   0.591
 8965SOL    HW228793  14.847   5.061   0.574
 8966SOL     OW28794   2.091   8.060  12.262
 8966SOL    HW128795   2.184   8.038  12.262
 8966SOL    HW228796   2.072   8.085  12.352
 8967SOL     OW28797   5.993   7.525  13.108
 8967SOL    HW128798   6.085   7.532  13.134
 8967SOL    HW228799   5.973   7.432  13.114
 8968SOL     OW28800   6.789   3.872  12.200
 8968SOL    HW128801   6.695   3.886  12.187
 8968SOL    HW228802   6.807   3.788  12.157
 8969SOL     OW28803   3.040   9.661   6.244
 8969SOL    HW128804   3.005   9.743   6.278
 8969SOL    HW228805   3.017   9.596   6.310
 8970SOL     OW28806   6.338   2.507   3.721
 8970SOL    HW128807   6.263   2.450   3.703
 8970SOL    HW228808   6.350   2.502   3.816
 8971SOL     OW28809   7.471   7.720   9.670
 8971SOL    HW128810   7.413   7.742   9.597
 8971SOL    HW228811   7.549   7.685   9.627
 8972SOL     OW28812   0.095   7.735   7.183
 8972SOL    HW128813   0.153   7.810   7.192
 8972SOL    HW228814   0.132   7.685   7.110
 8973SOL     OW28815   1.796  11.232   0.709
 8973SOL    HW128816   1.880  11.192   0.684
 8973SOL    HW228817   1.733  11.196   0.647
 8974SOL     OW28818  11.868   5.552   1.113
 8974SOL    HW128819  11.775   5.565   1.132
 8974SOL    HW228820  11.891   5.470   1.157
 8975SOL     OW28821   7.320   8.239   7.327
 8975SOL    HW128822   7.337   8.212   7.417
 8975SOL    HW228823   7.257   8.310   7.334
 8976SOL     OW28824   2.969  13.863  14.240
 8976SOL    HW128825   2.917  13.943  14.246
 8976SOL    HW228826   2.908  13.798  14.205
 8977SOL     OW28827   6.654   1.769   9.129
 8977SOL    HW128828   6.627   1.757   9.038
 8977SOL    HW228829   6.682   1.683   9.158
 8978SOL     OW28830  11.503   7.118   8.312
 8978SOL    HW128831  11.512   7.213   8.319
 8978SOL    HW228832  11.562   7.083   8.379
 8979SOL     OW28833   6.924   7.612  12.176
 8979SOL    HW128834   6.912   7.556  12.252
 8979SOL    HW228835   6.932   7.551  12.102
 8980SOL     OW28836   3.076  10.342  13.658
 8980SOL    HW128837   3.144  10.354  13.592
 8980SOL    HW228838   3.070  10.427  13.702
 8981SOL     OW28839  11.319  11.537   6.323
 8981SOL    HW128840  11.328  11.587   6.404
 8981SOL    HW228841  11.368  11.587   6.258
 8982SOL     OW28842  14.716   9.644   6.744
 8982SOL    HW128843  14.751   9.675   6.827
 8982SOL    HW228844  14.774   9.681   6.677
 8983SOL     OW28845  10.800   7.121  10.416
 8983SOL    HW128846  10.861   7.178  10.463
 8983SOL    HW228847  10.729   7.179  10.390
 8984SOL     OW28848   1.206   4.500   8.921
 8984SOL    HW128849   1.149   4.522   8.995
 8984SOL    HW228850   1.295   4.512   8.955
 8985SOL     OW28851   9.833   9.499   5.900
 8985SOL    HW128852   9.888   9.554   5.845
 8985SOL    HW228853   9.792   9.560   5.961
 8986SOL     OW28854   5.106   6.874   5.940
 8986SOL    HW128855   5.200   6.868   5.959
 8986SOL    HW228856   5.092   6.966   5.918
 8987SOL     OW28857  13.210   7.722   7.974
 8987SOL    HW128858  13.241   7.634   7.953
 8987SOL    HW228859  13.195   7.721   8.068
 8988SOL     OW28860  13.849   8.999   7.978
 8988SOL    HW128861  13.875   9.008   7.886
 8988SOL    HW228862  13.775   8.939   7.976
 8989SOL     OW28863   4.904   7.530   0.916
 8989SOL    HW128864   4.870   7.494   0.998
 8989SOL    HW228865   4.959   7.460   0.881
 8990SOL     OW28866   5.862   3.318   0.114
 8990SOL    HW128867   5.820   3.232   0.116
 8990SOL    HW228868   5.882   3.337   0.205
 8991SOL     OW28869   4.270   4.786  11.326
 8991SOL    HW128870   4.302   4.845  11.393
 8991SOL    HW228871   4.329   4.798  11.252
 8992SOL     OW28872   0.131   6.837   7.257
 8992SOL    HW128873   0.224   6.841   7.239
 8992SOL    HW228874   0.100   6.760   7.210
 8993SOL     OW28875   8.640  11.494   8.653
 8993SOL    HW128876   8.634  11.515   8.560
 8993SOL    HW228877   8.685  11.410   8.656
 8994SOL     OW28878   3.896  14.743   5.880
 8994SOL    HW128879   3.811  14.766   5.842
 8994SOL    HW228880   3.904  14.649   5.865
 8995SOL     OW28881   1.012   5.918   9.022
 8995SOL    HW128882   1.099   5.930   9.060
 8995SOL    HW228883   1.015   5.967   8.940
 8996SOL     OW28884   0.833   1.701   0.138
 8996SOL    HW128885   0.927   1.681   0.145
 8996SOL    HW228886   0.829   1.770   0.072
 8997SOL     OW28887  14.550  14.341   0.837
 8997SOL    HW128888  14.515  14.257   0.869
 8997SOL    HW228889  14.617  14.364   0.900
 8998SOL     OW28890   9.981   0.147   4.594
 8998SOL    HW128891  10.026   0.073   4.635
 8998SOL    HW228892   9.901   0.109   4.558
 8999SOL     OW28893   4.293   3.811   7.905
 8999SOL    HW128894   4.383   3.797   7.933
 8999SOL    HW228895   4.240   3.770   7.974
 9000SOL     OW28896   7.401   5.125   2.199
 9000SOL    HW128897   7.354   5.208   2.193
 9000SOL    HW228898   7.452   5.132   2.280
 9001SOL     OW28899   4.454   2.584   7.210
 9001SOL    HW128900   4.423   2.675   7.214
 9001SOL    HW228901   4.424   2.545   7.292
 9002SOL     OW28902   2.792  13.573   8.615
 9002SOL    HW128903   2.708  13.559   8.573
 9002SOL    HW228904   2.834  13.486   8.615
 9003SOL     OW28905   8.642  12.210   9.074
 9003SOL    HW128906   8.637  12.271   9.002
 9003SOL    HW228907   8.605  12.257   9.149
 9004SOL     OW28908  12.850  10.010  11.404
 9004SOL    HW128909  12.937   9.989  11.372
 9004SOL    HW228910  12.818  10.077  11.344
 9005SOL     OW28911   0.286  13.565   3.069
 9005SOL    HW128912   0.281  13.477   3.032
 9005SOL    HW228913   0.232  13.618   3.011
 9006SOL     OW28914   1.930   7.555  10.129
 9006SOL    HW128915   1.956   7.474  10.085
 9006SOL    HW228916   1.976   7.552  10.212
 9007SOL     OW28917   4.161  14.302   4.053
 9007SOL    HW128918   4.105  14.253   4.114
 9007SOL    HW228919   4.245  14.308   4.098
 9008SOL     OW28920   5.437   5.806  13.668
 9008SOL    HW128921   5.505   5.863  13.704
 9008SOL    HW228922   5.432   5.733  13.729
 9009SOL     OW28923   1.405   2.658  13.782
 9009SOL    HW128924   1.333   2.630  13.837
 9009SOL    HW228925   1.478   2.672  13.842
 9010SOL     OW28926   2.245  11.447   0.175
 9010SOL    HW128927   2.180  11.474   0.110
 9010SOL    HW228928   2.308  11.396   0.124
 9011SOL     OW28929   8.486   3.396   4.222
 9011SOL    HW128930   8.438   3.430   4.298
 9011SOL    HW228931   8.467   3.459   4.152
 9012SOL     OW28932   8.542   2.671   4.385
 9012SOL    HW128933   8.545   2.729   4.461
 9012SOL    HW228934   8.453   2.678   4.353
 9013SOL     OW28935   5.037   8.013  11.399
 9013SOL    HW128936   5.007   8.095  11.361
 9013SOL    HW228937   4.988   8.005  11.481
 9014SOL     OW28938  13.353  10.331  14.794
 9014SOL    HW128939  13.346  10.288  14.709
 9014SOL    HW228940  13.397  10.414  14.776
 9015SOL     OW28941  14.468   1.729   2.847
 9015SOL    HW128942  14.491   1.760   2.759
 9015SOL    HW228943  14.455   1.809   2.898
 9016SOL     OW28944   2.548   0.243   0.242
 9016SOL    HW128945   2.637   0.225   0.212
 9016SOL    HW228946   2.552   0.237   0.337
 9017SOL     OW28947   5.814   7.181   7.655
 9017SOL    HW128948   5.810   7.171   7.560
 9017SOL    HW228949   5.875   7.253   7.669
 9018SOL     OW28950   2.041   9.080  13.635
 9018SOL    HW128951   2.071   8.991  13.653
 9018SOL    HW228952   1.983   9.072  13.560
 9019SOL     OW28953  12.081   3.143   9.003
 9019SOL    HW128954  12.155   3.086   9.021
 9019SOL    HW228955  12.043   3.161   9.089
 9020SOL     OW28956   3.199   4.777  13.057
 9020SOL    HW128957   3.115   4.732  13.048
 9020SOL    HW228958   3.248   4.750  12.979
 9021SOL     OW28959  12.653  12.985   6.939
 9021SOL    HW128960  12.586  12.966   6.874
 9021SOL    HW228961  12.615  12.954   7.022
 9022SOL     OW28962   2.836   4.539   3.399
 9022SOL    HW128963   2.779   4.512   3.328
 9022SOL    HW228964   2.799   4.622   3.430
 9023SOL     OW28965   0.215   4.986  11.450
 9023SOL    HW128966   0.160   4.929  11.503
 9023SOL    HW228967   0.294   4.935  11.434
 9024SOL     OW28968   1.675   6.947  10.243
 9024SOL    HW128969   1.694   6.975  10.154
 9024SOL    HW228970   1.582   6.966  10.255
 9025SOL     OW28971  14.057   5.932   5.983
 9025SOL    HW128972  14.119   5.966   5.919
 9025SOL    HW228973  14.063   5.836   5.975
 9026SOL     OW28974   5.052  10.828   3.174
 9026SOL    HW128975   4.986  10.855   3.110
 9026SOL    HW228976   5.112  10.772   3.124
 9027SOL     OW28977  10.563  11.695  11.317
 9027SOL    HW128978  10.552  11.782  11.355
 9027SOL    HW228979  10.509  11.696  11.238
 9028SOL     OW28980   0.186   7.088  10.079
 9028SOL    HW128981   0.093   7.093  10.058
 9028SOL    HW228982   0.189   7.054  10.169
 9029SOL     OW28983   5.384  14.653   0.637
 9029SOL    HW128984   5.451  14.650   0.705
 9029SOL    HW228985   5.301  14.653   0.685
 9030SOL     OW28986   2.393   8.537   9.956
 9030SOL    HW128987   2.317   8.487   9.985
 9030SOL    HW228988   2.438   8.479   9.895
 9031SOL     OW28989  10.669   1.799  11.929
 9031SOL    HW128990  10.619   1.801  12.011
 9031SOL    HW228991  10.669   1.707  11.903
 9032SOL     OW28992   8.577   8.558  12.003
 9032SOL    HW128993   8.612   8.551  11.915
 9032SOL    HW228994   8.508   8.624  11.997
 9033SOL     OW28995  10.343  10.359  14.075
 9033SOL    HW128996  10.437  10.357  14.095
 9033SOL    HW228997  10.304  10.404  14.150
 9034SOL     OW28998   0.430  14.750   6.122
 9034SOL    HW128999   0.446  14.689   6.194
 9034SOL    HW229000   0.486  14.825   6.140
 9035SOL     OW29001   3.272   9.903  10.326
 9035SOL    HW129002   3.204   9.843  10.295
 9035SOL    HW229003   3.354   9.857  10.308
 9036SOL     OW29004   8.196   1.591  10.886
 9036SOL    HW129005   8.122   1.644  10.915
 9036SOL    HW229006   8.273   1.644  10.907
 9037SOL     OW29007   0.782  13.852  11.056
 9037SOL    HW129008   0.770  13.945  11.039
 9037SOL    HW229009   0.752  13.808  10.977
 9038SOL     OW29010   8.060  13.119   1.139
 9038SOL    HW129011   8.132  13.129   1.076
 9038SOL    HW229012   8.100  13.077   1.215
 9039SOL     OW29013  10.675   3.285  13.181
 9039SOL    HW129014  10.691   3.336  13.260
 9039SOL    HW229015  10.580   3.274  13.179
 9040SOL     OW29016  11.685   9.379  11.635
 9040SOL    HW129017  11.682   9.374  11.730
 9040SOL    HW229018  11.620   9.445  11.612
 9041SOL     OW29019   8.137  11.470   0.622
 9041SOL    HW129020   8.050  11.445   0.591
 9041SOL    HW229021   8.184  11.498   0.543
 9042SOL     OW29022   0.198  13.784  13.959
 9042SOL    HW129023   0.146  13.704  13.956
 9042SOL    HW229024   0.190  13.820  13.870
 9043SOL     OW29025   2.991   0.735   0.130
 9043SOL    HW129026   2.981   0.771   0.218
 9043SOL    HW229027   2.992   0.640   0.142
 9044SOL     OW29028  14.243   1.967   1.399
 9044SOL    HW129029  14.319   2.001   1.352
 9044SOL    HW229030  14.167   2.003   1.352
 9045SOL     OW29031   7.533  12.424   9.659
 9045SOL    HW129032   7.534  12.343   9.710
 9045SOL    HW229033   7.589  12.484   9.709
 9046SOL     OW29034   1.412   1.744   9.107
 9046SOL    HW129035   1.447   1.821   9.152
 9046SOL    HW229036   1.364   1.696   9.174
 9047SOL     OW29037   3.654   9.273  10.653
 9047SOL    HW129038   3.690   9.280  10.742
 9047SOL    HW229039   3.697   9.343  10.604
 9048SOL     OW29040   4.006  12.063   3.229
 9048SOL    HW129041   4.064  11.989   3.242
 9048SOL    HW229042   4.030  12.125   3.298
 9049SOL     OW29043   6.335   9.918  12.640
 9049SOL    HW129044   6.287  10.001  12.630
 9049SOL    HW229045   6.427   9.944  12.637
 9050SOL     OW29046   4.224   6.065  11.431
 9050SOL    HW129047   4.262   5.994  11.483
 9050SOL    HW229048   4.157   6.022  11.377
 9051SOL     OW29049  11.689   0.671   4.374
 9051SOL    HW129050  11.662   0.733   4.441
 9051SOL    HW229051  11.624   0.601   4.378
 9052SOL     OW29052   4.240   9.499  14.288
 9052SOL    HW129053   4.325   9.459  14.308
 9052SOL    HW229054   4.233   9.493  14.193
 9053SOL     OW29055  10.310   0.411   7.762
 9053SOL    HW129056  10.281   0.415   7.670
 9053SOL    HW229057  10.257   0.476   7.807
 9054SOL     OW29058   7.742  13.165   4.243
 9054SOL    HW129059   7.656  13.186   4.280
 9054SOL    HW229060   7.766  13.243   4.192
 9055SOL     OW29061   7.105  14.612  10.591
 9055SOL    HW129062   7.088  14.518  10.594
 9055SOL    HW229063   7.085  14.643  10.680
 9056SOL     OW29064  13.819   8.712   0.837
 9056SOL    HW129065  13.900   8.664   0.822
 9056SOL    HW229066  13.828   8.748   0.926
 9057SOL     OW29067   0.496   7.686   6.636
 9057SOL    HW129068   0.536   7.615   6.585
 9057SOL    HW229069   0.460   7.745   6.570
 9058SOL     OW29070   7.520  13.971  11.945
 9058SOL    HW129071   7.541  13.897  11.888
 9058SOL    HW229072   7.605  14.002  11.976
 9059SOL     OW29073  10.659   9.995   1.172
 9059SOL    HW129074  10.668  10.080   1.217
 9059SOL    HW229075  10.571   9.966   1.195
 9060SOL     OW29076   8.741  11.313  11.088
 9060SOL    HW129077   8.800  11.249  11.047
 9060SOL    HW229078   8.685  11.261  11.145
 9061SOL     OW29079  13.383  14.828  10.149
 9061SOL    HW129080  13.371  14.776  10.070
 9061SOL    HW229081  13.447  14.779  10.201
 9062SOL     OW29082  13.805  13.594   7.391
 9062SOL    HW129083  13.847  13.512   7.368
 9062SOL    HW229084  13.868  13.638   7.449
 9063SOL     OW29085   3.895   7.421  13.685
 9063SOL    HW129086   3.942   7.439  13.603
 9063SOL    HW229087   3.820   7.481  13.683
 9064SOL     OW29088  14.133   7.259   0.124
 9064SOL    HW129089  14.185   7.306   0.058
 9064SOL    HW229090  14.055   7.230   0.077
 9065SOL     OW29091   7.753   1.135   0.469
 9065SOL    HW129092   7.700   1.096   0.538
 9065SOL    HW229093   7.706   1.117   0.388
 9066SOL     OW29094   8.715   4.185   6.982
 9066SOL    HW129095   8.667   4.220   6.907
 9066SOL    HW229096   8.712   4.090   6.970
 9067SOL     OW29097   3.573   6.094  10.972
 9067SOL    HW129098   3.632   6.058  11.039
 9067SOL    HW229099   3.534   6.171  11.013
 9068SOL     OW29100   1.718   1.395   0.876
 9068SOL    HW129101   1.707   1.468   0.815
 9068SOL    HW229102   1.757   1.325   0.823
 9069SOL     OW29103  10.667   1.002   7.020
 9069SOL    HW129104  10.759   1.000   6.994
 9069SOL    HW229105  10.645   1.095   7.019
 9070SOL     OW29106   9.607  10.245  14.315
 9070SOL    HW129107   9.642  10.219  14.230
 9070SOL    HW229108   9.616  10.340  14.316
 9071SOL     OW29109   5.264  12.498   0.121
 9071SOL    HW129110   5.281  12.446   0.042
 9071SOL    HW229111   5.306  12.448   0.191
 9072SOL     OW29112   7.057   5.526   5.329
 9072SOL    HW129113   7.082   5.618   5.343
 9072SOL    HW229114   7.053   5.489   5.417
 9073SOL     OW29115   9.073   9.630   5.340
 9073SOL    HW129116   9.145   9.567   5.345
 9073SOL    HW229117   8.995   9.580   5.366
 9074SOL     OW29118   3.650   2.308  11.098
 9074SOL    HW129119   3.721   2.265  11.051
 9074SOL    HW229120   3.570   2.278  11.054
 9075SOL     OW29121   0.738  11.781   5.391
 9075SOL    HW129122   0.787  11.805   5.313
 9075SOL    HW229123   0.653  11.751   5.357
 9076SOL     OW29124   8.116   7.864  11.965
 9076SOL    HW129125   8.081   7.789  12.013
 9076SOL    HW229126   8.164   7.914  12.031
 9077SOL     OW29127   4.014   5.911   7.467
 9077SOL    HW129128   4.067   5.972   7.417
 9077SOL    HW229129   4.077   5.861   7.518
 9078SOL     OW29130   8.820  13.855   2.665
 9078SOL    HW129131   8.757  13.784   2.672
 9078SOL    HW229132   8.884  13.824   2.601
 9079SOL     OW29133   0.815  11.391   3.498
 9079SOL    HW129134   0.730  11.401   3.542
 9079SOL    HW229135   0.879  11.421   3.563
 9080SOL     OW29136   6.919   1.814  10.551
 9080SOL    HW129137   7.014   1.820  10.560
 9080SOL    HW229138   6.896   1.733  10.597
 9081SOL     OW29139   7.565   3.343   9.218
 9081SOL    HW129140   7.598   3.432   9.229
 9081SOL    HW229141   7.612   3.291   9.282
 9082SOL     OW29142  12.009   1.378   6.718
 9082SOL    HW129143  12.029   1.288   6.746
 9082SOL    HW229144  11.982   1.422   6.799
 9083SOL     OW29145  11.029   8.645  11.851
 9083SOL    HW129146  10.944   8.611  11.878
 9083SOL    HW229147  11.024   8.739  11.869
 9084SOL     OW29148   2.680   4.890   0.199
 9084SOL    HW129149   2.708   4.974   0.236
 9084SOL    HW229150   2.743   4.827   0.234
 9085SOL     OW29151   9.715   9.535   9.979
 9085SOL    HW129152   9.789   9.483  10.010
 9085SOL    HW229153   9.717   9.525   9.884
 9086SOL     OW29154   7.177   6.183  13.940
 9086SOL    HW129155   7.163   6.128  13.863
 9086SOL    HW229156   7.271   6.175  13.959
 9087SOL     OW29157   7.623   3.346  10.576
 9087SOL    HW129158   7.602   3.381  10.662
 9087SOL    HW229159   7.656   3.258  10.593
 9088SOL     OW29160  10.044   4.251   2.908
 9088SOL    HW129161   9.994   4.239   2.827
 9088SOL    HW229162  10.111   4.316   2.884
 9089SOL     OW29163   6.216   1.016   1.283
 9089SOL    HW129164   6.212   0.936   1.336
 9089SOL    HW229165   6.227   0.984   1.193
 9090SOL     OW29166   8.359   1.008   7.621
 9090SOL    HW129167   8.439   1.040   7.579
 9090SOL    HW229168   8.289   1.032   7.560
 9091SOL     OW29169   3.048   8.175   4.555
 9091SOL    HW129170   3.098   8.120   4.615
 9091SOL    HW229171   3.064   8.264   4.585
 9092SOL     OW29172  12.465   1.434   9.987
 9092SOL    HW129173  12.530   1.458  10.053
 9092SOL    HW229174  12.398   1.386  10.036
 9093SOL     OW29175   7.508  11.018  11.499
 9093SOL    HW129176   7.586  11.048  11.546
 9093SOL    HW229177   7.540  10.994  11.412
 9094SOL     OW29178   5.921  11.348   4.142
 9094SOL    HW129179   5.968  11.374   4.221
 9094SOL    HW229180   5.958  11.262   4.119
 9095SOL     OW29181   8.302   5.744   2.212
 9095SOL    HW129182   8.230   5.807   2.204
 9095SOL    HW229183   8.355   5.778   2.285
 9096SOL     OW29184   4.523  10.179   5.603
 9096SOL    HW129185   4.611  10.203   5.630
 9096SOL    HW229186   4.503  10.100   5.652
 9097SOL     OW29187   6.530   1.724   7.094
 9097SOL    HW129188   6.577   1.655   7.048
 9097SOL    HW229189   6.572   1.805   7.065
 9098SOL     OW29190  11.918   4.929   5.601
 9098SOL    HW129191  11.995   4.873   5.595
 9098SOL    HW229192  11.946   5.013   5.564
 9099SOL     OW29193   8.256   9.966   9.920
 9099SOL    HW129194   8.343   9.969   9.882
 9099SOL    HW229195   8.207  10.035   9.876
 9100SOL     OW29196  10.645   8.844  14.129
 9100SOL    HW129197  10.610   8.862  14.216
 9100SOL    HW229198  10.725   8.896  14.125
 9101SOL     OW29199   6.601   2.899   9.085
 9101SOL    HW129200   6.648   2.930   9.008
 9101SOL    HW229201   6.626   2.807   9.092
 9102SOL     OW29202   9.394   1.173   2.938
 9102SOL    HW129203   9.424   1.261   2.917
 9102SOL    HW229204   9.429   1.157   3.026
 9103SOL     OW29205  12.616  13.952   3.566
 9103SOL    HW129206  12.634  13.861   3.544
 9103SOL    HW229207  12.692  14.000   3.532
 9104SOL     OW29208   0.394   6.048   9.432
 9104SOL    HW129209   0.381   5.989   9.358
 9104SOL    HW229210   0.395   5.991   9.508
 9105SOL     OW29211   7.991  14.838   0.250
 9105SOL    HW129212   8.048  14.789   0.191
 9105SOL    HW229213   7.994  14.789   0.332
 9106SOL     OW29214   6.463   4.302   4.566
 9106SOL    HW129215   6.402   4.256   4.623
 9106SOL    HW229216   6.409   4.335   4.494
 9107SOL     OW29217  13.854  13.616  11.911
 9107SOL    HW129218  13.895  13.538  11.873
 9107SOL    HW229219  13.898  13.689  11.867
 9108SOL     OW29220   9.559   1.040   4.749
 9108SOL    HW129221   9.635   1.000   4.705
 9108SOL    HW229222   9.493   0.971   4.750
 9109SOL     OW29223  13.414  10.183   2.457
 9109SOL    HW129224  13.388  10.273   2.475
 9109SOL    HW229225  13.355  10.130   2.510
 9110SOL     OW29226  12.971   6.571   2.130
 9110SOL    HW129227  12.910   6.629   2.085
 9110SOL    HW229228  12.920   6.533   2.201
 9111SOL     OW29229  13.449   4.308  14.395
 9111SOL    HW129230  13.528   4.309  14.450
 9111SOL    HW229231  13.392   4.374  14.434
 9112SOL     OW29232   9.652   8.548   9.984
 9112SOL    HW129233   9.637   8.552  10.079
 9112SOL    HW229234   9.643   8.456   9.962
 9113SOL     OW29235   5.009  10.219   4.210
 9113SOL    HW129236   5.068  10.228   4.135
 9113SOL    HW229237   5.046  10.147   4.261
 9114SOL     OW29238   4.606   7.464  11.503
 9114SOL    HW129239   4.655   7.546  11.512
 9114SOL    HW229240   4.651   7.403  11.562
 9115SOL     OW29241   2.328   5.982  13.878
 9115SOL    HW129242   2.418   5.961  13.901
 9115SOL    HW229243   2.275   5.923  13.931
 9116SOL     OW29244   7.057  11.052   8.825
 9116SOL    HW129245   7.102  11.053   8.740
 9116SOL    HW229246   7.052  11.144   8.850
 9117SOL     OW29247  10.252   8.388   8.931
 9117SOL    HW129248  10.310   8.464   8.923
 9117SOL    HW229249  10.309   8.317   8.959
 9118SOL     OW29250   1.750  13.559   5.828
 9118SOL    HW129251   1.706  13.594   5.906
 9118SOL    HW229252   1.713  13.471   5.818
 9119SOL     OW29253  11.937  12.788  13.539
 9119SOL    HW129254  11.881  12.865  13.550
 9119SOL    HW229255  12.025  12.820  13.554
 9120SOL     OW29256   9.941   0.540  13.864
 9120SOL    HW129257   9.862   0.583  13.895
 9120SOL    HW229258  10.007   0.561  13.930
 9121SOL     OW29259   6.583   8.117  13.145
 9121SOL    HW129260   6.578   8.046  13.080
 9121SOL    HW229261   6.609   8.074  13.226
 9122SOL     OW29262  12.168  13.701   5.965
 9122SOL    HW129263  12.155  13.680   5.873
 9122SOL    HW229264  12.089  13.667   6.008
 9123SOL     OW29265  11.505  14.062   8.579
 9123SOL    HW129266  11.414  14.085   8.562
 9123SOL    HW229267  11.547  14.066   8.493
 9124SOL     OW29268  13.594   4.072   4.784
 9124SOL    HW129269  13.626   4.001   4.839
 9124SOL    HW229270  13.518   4.036   4.739
 9125SOL     OW29271   1.062   2.260  14.257
 9125SOL    HW129272   1.113   2.219  14.187
 9125SOL    HW229273   1.121   2.324  14.296
 9126SOL     OW29274   5.415  13.307   8.049
 9126SOL    HW129275   5.478  13.347   7.989
 9126SOL    HW229276   5.414  13.364   8.126
 9127SOL     OW29277   5.888   1.456   0.323
 9127SOL    HW129278   5.835   1.378   0.342
 9127SOL    HW229279   5.969   1.421   0.286
 9128SOL     OW29280   9.261   4.296   3.581
 9128SOL    HW129281   9.354   4.303   3.602
 9128SOL    HW229282   9.232   4.217   3.626
 9129SOL     OW29283   0.323   5.875   1.086
 9129SOL    HW129284   0.389   5.826   1.037
 9129SOL    HW229285   0.364   5.890   1.172
 9130SOL     OW29286   7.796   0.119   9.910
 9130SOL    HW129287   7.862   0.057   9.882
 9130SOL    HW229288   7.806   0.124  10.005
 9131SOL     OW29289  13.921   5.297   6.688
 9131SOL    HW129290  13.911   5.256   6.774
 9131SOL    HW229291  13.861   5.372   6.690
 9132SOL     OW29292   2.439  10.710   9.050
 9132SOL    HW129293   2.511  10.772   9.054
 9132SOL    HW229294   2.382  10.735   9.123
 9133SOL     OW29295   7.755   1.684   8.414
 9133SOL    HW129296   7.776   1.623   8.484
 9133SOL    HW229297   7.740   1.628   8.338
 9134SOL     OW29298  12.551   8.735   0.284
 9134SOL    HW129299  12.488   8.703   0.220
 9134SOL    HW229300  12.634   8.741   0.236
 9135SOL     OW29301   6.099   3.524   8.304
 9135SOL    HW129302   6.188   3.548   8.330
 9135SOL    HW229303   6.073   3.591   8.241
 9136SOL     OW29304  12.138   1.433   7.959
 9136SOL    HW129305  12.127   1.525   7.936
 9136SOL    HW229306  12.181   1.394   7.883
 9137SOL     OW29307   6.305   9.253  10.241
 9137SOL    HW129308   6.263   9.320  10.187
 9137SOL    HW229309   6.369   9.212  10.183
 9138SOL     OW29310   2.212   9.539   2.645
 9138SOL    HW129311   2.241   9.538   2.554
 9138SOL    HW229312   2.293   9.528   2.696
 9139SOL     OW29313   6.884  13.065   9.114
 9139SOL    HW129314   6.967  13.048   9.069
 9139SOL    HW229315   6.891  13.156   9.142
 9140SOL     OW29316   5.248  10.015   9.432
 9140SOL    HW129317   5.228  10.108   9.441
 9140SOL    HW229318   5.343  10.010   9.430
 9141SOL     OW29319   0.169   7.957  12.220
 9141SOL    HW129320   0.096   7.985  12.165
 9141SOL    HW229321   0.132   7.889  12.276
 9142SOL     OW29322   8.517  12.646   3.120
 9142SOL    HW129323   8.539  12.675   3.208
 9142SOL    HW229324   8.458  12.572   3.133
 9143SOL     OW29325  10.253   0.528  10.626
 9143SOL    HW129326  10.261   0.559  10.717
 9143SOL    HW229327  10.213   0.602  10.579
 9144SOL     OW29328  11.529   4.428   1.716
 9144SOL    HW129329  11.621   4.449   1.702
 9144SOL    HW229330  11.483   4.479   1.649
 9145SOL     OW29331  13.647   4.436  13.926
 9145SOL    HW129332  13.680   4.507  13.981
 9145SOL    HW229333  13.568   4.406  13.970
 9146SOL     OW29334   4.143   7.809   3.867
 9146SOL    HW129335   4.106   7.780   3.950
 9146SOL    HW229336   4.181   7.729   3.829
 9147SOL     OW29337   8.840  11.490  11.802
 9147SOL    HW129338   8.914  11.472  11.860
 9147SOL    HW229339   8.875  11.474  11.714
 9148SOL     OW29340  11.281   8.702   7.887
 9148SOL    HW129341  11.329   8.640   7.832
 9148SOL    HW229342  11.248   8.768   7.825
 9149SOL     OW29343   8.845   6.851   3.455
 9149SOL    HW129344   8.782   6.920   3.476
 9149SOL    HW229345   8.869   6.814   3.540
 9150SOL     OW29346   4.351   4.166   0.704
 9150SOL    HW129347   4.371   4.258   0.686
 9150SOL    HW229348   4.381   4.119   0.626
 9151SOL     OW29349  10.542   5.709   7.962
 9151SOL    HW129350  10.619   5.735   8.012
 9151SOL    HW229351  10.503   5.638   8.013
 9152SOL     OW29352  12.476   2.857   9.065
 9152SOL    HW129353  12.532   2.893   8.997
 9152SOL    HW229354  12.444   2.774   9.029
 9153SOL     OW29355   2.598   7.720  10.794
 9153SOL    HW129356   2.656   7.796  10.800
 9153SOL    HW229357   2.511   7.757  10.783
 9154SOL     OW29358   2.191   5.189   6.998
 9154SOL    HW129359   2.138   5.202   7.077
 9154SOL    HW229360   2.181   5.270   6.948
 9155SOL     OW29361  11.947   3.222   7.915
 9155SOL    HW129362  11.854   3.243   7.915
 9155SOL    HW229363  11.966   3.199   7.825
 9156SOL     OW29364  13.408   4.895  14.209
 9156SOL    HW129365  13.479   4.868  14.267
 9156SOL    HW229366  13.421   4.989  14.196
 9157SOL     OW29367   1.345  10.876   3.447
 9157SOL    HW129368   1.406  10.819   3.400
 9157SOL    HW229369   1.353  10.961   3.404
 9158SOL     OW29370  10.293   3.132   5.936
 9158SOL    HW129371  10.275   3.216   5.977
 9158SOL    HW229372  10.388   3.127   5.931
 9159SOL     OW29373   5.817   2.073  12.257
 9159SOL    HW129374   5.779   1.989  12.283
 9159SOL    HW229375   5.887   2.050  12.197
 9160SOL     OW29376   9.948   5.928  11.493
 9160SOL    HW129377   9.971   5.900  11.581
 9160SOL    HW229378  10.024   5.905  11.440
 9161SOL     OW29379  10.228   6.054   3.533
 9161SOL    HW129380  10.134   6.040   3.546
 9161SOL    HW229381  10.235   6.147   3.511
 9162SOL     OW29382   1.359  12.396  11.132
 9162SOL    HW129383   1.434  12.337  11.119
 9162SOL    HW229384   1.283  12.338  11.134
 9163SOL     OW29385  11.635  13.844   9.029
 9163SOL    HW129386  11.715  13.849   9.082
 9163SOL    HW229387  11.572  13.798   9.085
 9164SOL     OW29388   9.244  11.077   0.448
 9164SOL    HW129389   9.226  11.105   0.358
 9164SOL    HW229390   9.265  10.984   0.440
 9165SOL     OW29391   7.955   3.534  11.647
 9165SOL    HW129392   8.020   3.595  11.610
 9165SOL    HW229393   7.873   3.584  11.647
 9166SOL     OW29394  12.694   3.297  13.227
 9166SOL    HW129395  12.725   3.337  13.308
 9166SOL    HW229396  12.601   3.321  13.223
 9167SOL     OW29397   9.823   3.470  14.011
 9167SOL    HW129398   9.766   3.403  14.049
 9167SOL    HW229399   9.869   3.423  13.941
 9168SOL     OW29400   9.065  11.024  13.894
 9168SOL    HW129401   9.074  11.083  13.819
 9168SOL    HW229402   9.000  11.065  13.950
 9169SOL     OW29403   1.009   8.578  12.576
 9169SOL    HW129404   0.930   8.612  12.616
 9169SOL    HW229405   1.065   8.553  12.649
 9170SOL     OW29406   9.517   9.832   7.640
 9170SOL    HW129407   9.587   9.893   7.616
 9170SOL    HW229408   9.562   9.759   7.683
 9171SOL     OW29409  12.882  12.595   5.768
 9171SOL    HW129410  12.787  12.602   5.761
 9171SOL    HW229411  12.905  12.648   5.845
 9172SOL     OW29412  10.161   3.141  11.421
 9172SOL    HW129413  10.125   3.064  11.377
 9172SOL    HW229414  10.254   3.140  11.398
 9173SOL     OW29415   7.726   8.973   4.629
 9173SOL    HW129416   7.800   8.983   4.570
 9173SOL    HW229417   7.756   8.910   4.694
 9174SOL     OW29418   9.349   4.676  11.885
 9174SOL    HW129419   9.271   4.726  11.858
 9174SOL    HW229420   9.357   4.607  11.819
 9175SOL     OW29421   3.328   6.939   8.627
 9175SOL    HW129422   3.329   6.979   8.540
 9175SOL    HW229423   3.368   7.004   8.684
 9176SOL     OW29424  13.802  10.828  13.498
 9176SOL    HW129425  13.799  10.733  13.490
 9176SOL    HW229426  13.892  10.847  13.525
 9177SOL     OW29427   9.154   5.664   2.697
 9177SOL    HW129428   9.144   5.647   2.791
 9177SOL    HW229429   9.150   5.578   2.656
 9178SOL     OW29430   2.944   0.662  10.390
 9178SOL    HW129431   2.985   0.747  10.377
 9178SOL    HW229432   2.947   0.648  10.485
 9179SOL     OW29433   0.499   8.539  11.347
 9179SOL    HW129434   0.538   8.453  11.332
 9179SOL    HW229435   0.405   8.522  11.353
 9180SOL     OW29436   3.644   3.857   2.794
 9180SOL    HW129437   3.730   3.825   2.767
 9180SOL    HW229438   3.606   3.893   2.714
 9181SOL     OW29439  14.089   4.869  10.241
 9181SOL    HW129440  14.030   4.838  10.173
 9181SOL    HW229441  14.163   4.809  10.238
 9182SOL     OW29442  11.698  10.946   2.478
 9182SOL    HW129443  11.706  11.036   2.448
 9182SOL    HW229444  11.685  10.894   2.399
 9183SOL     OW29445   4.140   0.344   0.867
 9183SOL    HW129446   4.224   0.312   0.899
 9183SOL    HW229447   4.075   0.298   0.920
 9184SOL     OW29448   6.687   4.655  12.785
 9184SOL    HW129449   6.730   4.740  12.781
 9184SOL    HW229450   6.747   4.600  12.835
 9185SOL     OW29451   5.418   7.275  11.091
 9185SOL    HW129452   5.333   7.230  11.088
 9185SOL    HW229453   5.454   7.263  11.003
 9186SOL     OW29454  13.084   8.991  10.678
 9186SOL    HW129455  13.010   9.039  10.714
 9186SOL    HW229456  13.094   8.916  10.736
 9187SOL     OW29457   2.849   5.183  10.831
 9187SOL    HW129458   2.922   5.243  10.815
 9187SOL    HW229459   2.848   5.172  10.926
 9188SOL     OW29460  14.218   8.061   6.102
 9188SOL    HW129461  14.232   8.049   6.196
 9188SOL    HW229462  14.226   7.973   6.065
 9189SOL     OW29463  14.787  10.145   1.586
 9189SOL    HW129464  14.697  10.164   1.613
 9189SOL    HW229465  14.784  10.144   1.491
 9190SOL     OW29466   3.651   6.203  12.166
 9190SOL    HW129467   3.649   6.108  12.155
 9190SOL    HW229468   3.678   6.237  12.080
 9191SOL     OW29469   5.061   1.031  10.235
 9191SOL    HW129470   5.021   1.068  10.157
 9191SOL    HW229471   5.086   0.942  10.209
 9192SOL     OW29472   8.614  12.775   6.256
 9192SOL    HW129473   8.655  12.769   6.343
 9192SOL    HW229474   8.524  12.748   6.270
 9193SOL     OW29475   3.769   5.334   3.200
 9193SOL    HW129476   3.780   5.427   3.180
 9193SOL    HW229477   3.858   5.300   3.207
 9194SOL     OW29478  13.996  10.705   3.430
 9194SOL    HW129479  14.068  10.765   3.412
 9194SOL    HW229480  14.021  10.624   3.385
 9195SOL     OW29481  14.179  10.044  14.876
 9195SOL    HW129482  14.207   9.953  14.877
 9195SOL    HW229483  14.170  10.066  14.784
 9196SOL     OW29484   2.520   4.628   9.177
 9196SOL    HW129485   2.476   4.543   9.186
 9196SOL    HW229486   2.612   4.609   9.196
 9197SOL     OW29487   4.977   6.631   1.185
 9197SOL    HW129488   4.981   6.724   1.208
 9197SOL    HW229489   4.894   6.600   1.221
 9198SOL     OW29490  11.651  11.758   7.927
 9198SOL    HW129491  11.682  11.800   8.007
 9198SOL    HW229492  11.721  11.771   7.864
 9199SOL     OW29493   4.972  14.300   7.064
 9199SOL    HW129494   5.049  14.310   7.008
 9199SOL    HW229495   4.898  14.304   7.003
 9200SOL     OW29496   1.801  14.513  12.939
 9200SOL    HW129497   1.726  14.526  12.880
 9200SOL    HW229498   1.762  14.487  13.022
 9201SOL     OW29499  13.201   7.246   4.073
 9201SOL    HW129500  13.116   7.286   4.092
 9201SOL    HW229501  13.253   7.318   4.037
 9202SOL     OW29502   0.214   3.781   2.058
 9202SOL    HW129503   0.256   3.837   1.994
 9202SOL    HW229504   0.244   3.814   2.143
 9203SOL     OW29505   1.895   9.634   8.974
 9203SOL    HW129506   1.830   9.576   9.014
 9203SOL    HW229507   1.969   9.634   9.035
 9204SOL     OW29508  10.513   8.940   8.795
 9204SOL    HW129509  10.436   8.898   8.756
 9204SOL    HW229510  10.500   9.033   8.777
 9205SOL     OW29511   0.545  14.687   9.246
 9205SOL    HW129512   0.512  14.725   9.327
 9205SOL    HW229513   0.509  14.598   9.244
 9206SOL     OW29514   7.979   6.479  12.806
 9206SOL    HW129515   7.984   6.430  12.724
 9206SOL    HW229516   7.929   6.422  12.864
 9207SOL     OW29517  13.657   9.567   3.216
 9207SOL    HW129518  13.660   9.594   3.308
 9207SOL    HW229519  13.572   9.524   3.206
 9208SOL     OW29520  10.594   1.462   6.391
 9208SOL    HW129521  10.512   1.424   6.360
 9208SOL    HW229522  10.607   1.422   6.477
 9209SOL     OW29523  12.425   9.830   6.896
 9209SOL    HW129524  12.421   9.739   6.925
 9209SOL    HW229525  12.483   9.827   6.819
 9210SOL     OW29526  10.110  13.199  13.280
 9210SOL    HW129527  10.115  13.294  13.280
 9210SOL    HW229528  10.119  13.174  13.372
 9211SOL     OW29529   3.891   1.950   5.212
 9211SOL    HW129530   3.974   1.998   5.207
 9211SOL    HW229531   3.910   1.864   5.176
 9212SOL     OW29532   4.505   8.781  14.352
 9212SOL    HW129533   4.465   8.694  14.352
 9212SOL    HW229534   4.508   8.806  14.259
 9213SOL     OW29535   7.931   4.897   3.410
 9213SOL    HW129536   7.856   4.850   3.372
 9213SOL    HW229537   7.961   4.955   3.341
 9214SOL     OW29538   3.832   0.241  12.649
 9214SOL    HW129539   3.787   0.258  12.566
 9214SOL    HW229540   3.836   0.327  12.691
 9215SOL     OW29541  10.530   3.392   6.120
 9215SOL    HW129542  10.585   3.351   6.054
 9215SOL    HW229543  10.587   3.404   6.196
 9216SOL     OW29544   8.314  12.540   5.958
 9216SOL    HW129545   8.261  12.592   6.018
 9216SOL    HW229546   8.392  12.593   5.942
 9217SOL     OW29547  14.758   9.352   3.676
 9217SOL    HW129548  14.735   9.295   3.749
 9217SOL    HW229549  14.740   9.300   3.597
 9218SOL     OW29550   1.280   3.835  11.426
 9218SOL    HW129551   1.256   3.744  11.412
 9218SOL    HW229552   1.206   3.872  11.474
 9219SOL     OW29553   9.431   9.578   8.913
 9219SOL    HW129554   9.429   9.664   8.871
 9219SOL    HW229555   9.476   9.522   8.850
 9220SOL     OW29556  14.478   8.599  11.586
 9220SOL    HW129557  14.425   8.677  11.600
 9220SOL    HW229558  14.520   8.583  11.671
 9221SOL     OW29559   1.549   6.706  12.038
 9221SOL    HW129560   1.583   6.793  12.059
 9221SOL    HW229561   1.551   6.659  12.122
 9222SOL     OW29562   6.348   8.353   2.243
 9222SOL    HW129563   6.337   8.440   2.282
 9222SOL    HW229564   6.305   8.360   2.157
 9223SOL     OW29565   2.154  14.776  14.187
 9223SOL    HW129566   2.138  14.757  14.280
 9223SOL    HW229567   2.247  14.757  14.174
 9224SOL     OW29568   1.881   3.165  13.130
 9224SOL    HW129569   1.808   3.204  13.081
 9224SOL    HW229570   1.873   3.202  13.218
 9225SOL     OW29571   5.352   4.178   8.092
 9225SOL    HW129572   5.368   4.122   8.017
 9225SOL    HW229573   5.401   4.258   8.073
 9226SOL     OW29574   5.106   0.664   9.693
 9226SOL    HW129575   5.127   0.575   9.720
 9226SOL    HW229576   5.171   0.685   9.626
 9227SOL     OW29577  12.392   2.294   5.295
 9227SOL    HW129578  12.296   2.293   5.296
 9227SOL    HW229579  12.417   2.275   5.385
 9228SOL     OW29580   2.642   5.490   7.455
 9228SOL    HW129581   2.663   5.479   7.547
 9228SOL    HW229582   2.707   5.552   7.422
 9229SOL     OW29583   6.354  13.054  12.625
 9229SOL    HW129584   6.417  13.115  12.661
 9229SOL    HW229585   6.365  12.974  12.676
 9230SOL     OW29586   8.154   4.860  11.064
 9230SOL    HW129587   8.169   4.815  11.147
 9230SOL    HW229588   8.232   4.914  11.051
 9231SOL     OW29589   6.380   3.399  11.815
 9231SOL    HW129590   6.435   3.403  11.894
 9231SOL    HW229591   6.356   3.307  11.808
 9232SOL     OW29592   7.223   9.932   8.091
 9232SOL    HW129593   7.172   9.891   8.161
 9232SOL    HW229594   7.164   9.997   8.053
 9233SOL     OW29595   7.665   4.550  11.090
 9233SOL    HW129596   7.681   4.476  11.031
 9233SOL    HW229597   7.642   4.622  11.032
 9234SOL     OW29598  14.272  12.204   4.441
 9234SOL    HW129599  14.250  12.119   4.405
 9234SOL    HW229600  14.363  12.218   4.414
 9235SOL     OW29601   0.980  10.135  11.184
 9235SOL    HW129602   1.036  10.070  11.226
 9235SOL    HW229603   1.032  10.168  11.112
 9236SOL     OW29604  13.603  13.247   5.510
 9236SOL    HW129605  13.665  13.227   5.580
 9236SOL    HW229606  13.576  13.162   5.477
 9237SOL     OW29607  12.365   2.748   4.846
 9237SOL    HW129608  12.408   2.802   4.913
 9237SOL    HW229609  12.304   2.694   4.896
 9238SOL     OW29610  11.805  11.897   6.921
 9238SOL    HW129611  11.853  11.853   6.851
 9238SOL    HW229612  11.713  11.879   6.902
 9239SOL     OW29613   4.979   6.380   7.710
 9239SOL    HW129614   5.054   6.438   7.715
 9239SOL    HW229615   4.993   6.316   7.780
 9240SOL     OW29616  13.484   1.795  14.459
 9240SOL    HW129617  13.457   1.759  14.375
 9240SOL    HW229618  13.514   1.884  14.439
 9241SOL     OW29619   0.392   5.062   6.419
 9241SOL    HW129620   0.401   5.157   6.414
 9241SOL    HW229621   0.428   5.030   6.337
 9242SOL     OW29622   1.311   8.930   2.183
 9242SOL    HW129623   1.339   8.905   2.271
 9242SOL    HW229624   1.268   8.852   2.148
 9243SOL     OW29625  14.334  11.430   7.209
 9243SOL    HW129626  14.409  11.478   7.246
 9243SOL    HW229627  14.284  11.496   7.162
 9244SOL     OW29628   6.501   6.747   6.446
 9244SOL    HW129629   6.579   6.773   6.398
 9244SOL    HW229630   6.534   6.716   6.531
 9245SOL     OW29631   8.534  10.857   2.044
 9245SOL    HW129632   8.570  10.831   1.959
 9245SOL    HW229633   8.439  10.856   2.031
 9246SOL     OW29634   4.646   7.807   0.937
 9246SOL    HW129635   4.715   7.857   0.981
 9246SOL    HW229636   4.689   7.773   0.858
 9247SOL     OW29637   3.571   4.164   0.951
 9247SOL    HW129638   3.591   4.154   0.858
 9247SOL    HW229639   3.529   4.250   0.958
 9248SOL     OW29640   0.763   9.587   2.960
 9248SOL    HW129641   0.690   9.582   2.899
 9248SOL    HW229642   0.761   9.676   2.993
 9249SOL     OW29643  10.770  13.077   6.907
 9249SOL    HW129644  10.704  13.136   6.941
 9249SOL    HW229645  10.845  13.133   6.887
 9250SOL     OW29646   8.364   0.277  13.611
 9250SOL    HW129647   8.417   0.198  13.619
 9250SOL    HW229648   8.426   0.349  13.624
 9251SOL     OW29649   7.133   5.140  10.695
 9251SOL    HW129650   7.052   5.131  10.746
 9251SOL    HW229651   7.192   5.073  10.731
 9252SOL     OW29652   8.926   9.955   7.175
 9252SOL    HW129653   9.008   9.964   7.126
 9252SOL    HW229654   8.915  10.039   7.220
 9253SOL     OW29655   6.011   3.769   0.645
 9253SOL    HW129656   5.999   3.855   0.604
 9253SOL    HW229657   6.087   3.732   0.601
 9254SOL     OW29658   4.735   5.997   9.054
 9254SOL    HW129659   4.764   6.012   9.144
 9254SOL    HW229660   4.640   5.992   9.059
 9255SOL     OW29661   3.421   0.569  13.349
 9255SOL    HW129662   3.433   0.664  13.341
 9255SOL    HW229663   3.436   0.535  13.261
 9256SOL     OW29664  14.077  11.176   1.183
 9256SOL    HW129665  14.012  11.184   1.253
 9256SOL    HW229666  14.044  11.230   1.112
 9257SOL     OW29667   3.813   9.481   2.709
 9257SOL    HW129668   3.771   9.535   2.641
 9257SOL    HW229669   3.804   9.391   2.677
 9258SOL     OW29670   8.368   8.088   1.195
 9258SOL    HW129671   8.302   8.062   1.131
 9258SOL    HW229672   8.439   8.126   1.143
 9259SOL     OW29673   8.832  12.339   1.020
 9259SOL    HW129674   8.807  12.250   0.993
 9259SOL    HW229675   8.805  12.395   0.947
 9260SOL     OW29676  11.530  13.831   5.035
 9260SOL    HW129677  11.495  13.896   5.096
 9260SOL    HW229678  11.471  13.836   4.960
 9261SOL     OW29679  10.466   5.146   2.040
 9261SOL    HW129680  10.561   5.153   2.028
 9261SOL    HW229681  10.441   5.071   1.986
 9262SOL     OW29682   6.110   5.659   9.792
 9262SOL    HW129683   6.103   5.637   9.699
 9262SOL    HW229684   6.165   5.738   9.793
 9263SOL     OW29685   4.299  11.247  11.146
 9263SOL    HW129686   4.252  11.222  11.067
 9263SOL    HW229687   4.384  11.204  11.138
 9264SOL     OW29688   9.106   6.683   0.677
 9264SOL    HW129689   9.024   6.680   0.628
 9264SOL    HW229690   9.166   6.734   0.621
 9265SOL     OW29691  13.901   9.563  14.837
 9265SOL    HW129692  13.995   9.566  14.821
 9265SOL    HW229693  13.863   9.544  14.751
 9266SOL     OW29694  12.379  14.652  14.288
 9266SOL    HW129695  12.415  14.573  14.329
 9266SOL    HW229696  12.292  14.626  14.260
 9267SOL     OW29697   9.815   4.589  10.180
 9267SOL    HW129698   9.845   4.529  10.247
 9267SOL    HW229699   9.781   4.533  10.110
 9268SOL     OW29700   3.811   6.262   2.926
 9268SOL    HW129701   3.749   6.334   2.918
 9268SOL    HW229702   3.772   6.204   2.991
 9269SOL     OW29703   6.164  12.717  10.593
 9269SOL    HW129704   6.255  12.693  10.610
 9269SOL    HW229705   6.144  12.781  10.661
 9270SOL     OW29706  10.908   7.468   4.248
 9270SOL    HW129707  10.979   7.404   4.246
 9270SOL    HW229708  10.841   7.429   4.304
 9271SOL     OW29709  13.360   5.992   8.031
 9271SOL    HW129710  13.381   5.962   7.943
 9271SOL    HW229711  13.266   5.977   8.040
 9272SOL     OW29712   1.581   2.709  10.205
 9272SOL    HW129713   1.532   2.701  10.124
 9272SOL    HW229714   1.590   2.804  10.218
 9273SOL     OW29715  13.865   1.874   6.872
 9273SOL    HW129716  13.835   1.784   6.857
 9273SOL    HW229717  13.843   1.892   6.963
 9274SOL     OW29718  14.426   1.301   4.596
 9274SOL    HW129719  14.456   1.326   4.683
 9274SOL    HW229720  14.505   1.272   4.551
 9275SOL     OW29721   5.260  13.030   2.985
 9275SOL    HW129722   5.278  13.011   2.893
 9275SOL    HW229723   5.203  12.959   3.014
 9276SOL     OW29724   2.282   6.304  11.165
 9276SOL    HW129725   2.250   6.390  11.138
 9276SOL    HW229726   2.220   6.242  11.126
 9277SOL     OW29727   2.923   8.488   3.122
 9277SOL    HW129728   2.868   8.433   3.177
 9277SOL    HW229729   2.885   8.481   3.034
 9278SOL     OW29730   2.070  14.290   8.662
 9278SOL    HW129731   2.010  14.359   8.690
 9278SOL    HW229732   2.118  14.328   8.589
 9279SOL     OW29733   4.064   8.887   4.442
 9279SOL    HW129734   4.047   8.977   4.416
 9279SOL    HW229735   4.054   8.887   4.537
 9280SOL     OW29736   1.658  10.923   3.749
 9280SOL    HW129737   1.661  10.835   3.786
 9280SOL    HW229738   1.636  10.910   3.657
 9281SOL     OW29739   8.466   4.182  11.657
 9281SOL    HW129740   8.385   4.184  11.607
 9281SOL    HW229741   8.476   4.271  11.691
 9282SOL     OW29742   5.490  14.313  12.280
 9282SOL    HW129743   5.534  14.323  12.364
 9282SOL    HW229744   5.397  14.318  12.301
 9283SOL     OW29745   4.699   0.429  14.116
 9283SOL    HW129746   4.659   0.369  14.179
 9283SOL    HW229747   4.748   0.491  14.170
 9284SOL     OW29748  14.232  10.055   3.510
 9284SOL    HW129749  14.151  10.008   3.532
 9284SOL    HW229750  14.280  10.059   3.593
 9285SOL     OW29751   2.974   7.045   1.673
 9285SOL    HW129752   3.065   7.024   1.694
 9285SOL    HW229753   2.970   7.140   1.672
 9286SOL     OW29754  10.649  12.594   6.859
 9286SOL    HW129755  10.621  12.686   6.857
 9286SOL    HW229756  10.695  12.585   6.942
 9287SOL     OW29757  13.453   4.768   2.044
 9287SOL    HW129758  13.465   4.862   2.056
 9287SOL    HW229759  13.537   4.738   2.008
 9288SOL     OW29760  14.613   5.564   9.844
 9288SOL    HW129761  14.604   5.644   9.896
 9288SOL    HW229762  14.530   5.518   9.855
 9289SOL     OW29763  10.085   8.065  10.639
 9289SOL    HW129764  10.108   7.975  10.616
 9289SOL    HW229765  10.133   8.082  10.719
 9290SOL     OW29766   2.172   2.178   9.098
 9290SOL    HW129767   2.238   2.179   9.029
 9290SOL    HW229768   2.107   2.243   9.070
 9291SOL     OW29769  13.644  11.153  10.936
 9291SOL    HW129770  13.558  11.169  10.899
 9291SOL    HW229771  13.705  11.172  10.864
 9292SOL     OW29772   2.341  12.416   6.702
 9292SOL    HW129773   2.250  12.403   6.674
 9292SOL    HW229774   2.388  12.437   6.622
 9293SOL     OW29775  11.230   4.419   9.076
 9293SOL    HW129776  11.147   4.466   9.065
 9293SOL    HW229777  11.297   4.485   9.058
 9294SOL     OW29778   5.722  10.247   1.732
 9294SOL    HW129779   5.677  10.242   1.648
 9294SOL    HW229780   5.660  10.208   1.795
 9295SOL     OW29781  14.727   4.555   8.325
 9295SOL    HW129782  14.779   4.634   8.311
 9295SOL    HW229783  14.642   4.589   8.355
 9296SOL     OW29784  14.278   6.777   4.854
 9296SOL    HW129785  14.206   6.732   4.899
 9296SOL    HW229786  14.352   6.769   4.915
 9297SOL     OW29787   1.275   0.876   9.615
 9297SOL    HW129788   1.238   0.865   9.527
 9297SOL    HW229789   1.214   0.830   9.673
 9298SOL     OW29790   9.322   9.899   3.532
 9298SOL    HW129791   9.297   9.814   3.497
 9298SOL    HW229792   9.418   9.896   3.536
 9299SOL     OW29793   3.643   5.883   9.826
 9299SOL    HW129794   3.697   5.951   9.867
 9299SOL    HW229795   3.554   5.903   9.854
 9300SOL     OW29796   3.990   6.259   3.911
 9300SOL    HW129797   3.931   6.228   3.980
 9300SOL    HW229798   4.046   6.323   3.955
 9301SOL     OW29799   1.958  11.131   9.128
 9301SOL    HW129800   1.967  11.047   9.084
 9301SOL    HW229801   2.046  11.151   9.159
 9302SOL     OW29802   1.891  12.849   3.463
 9302SOL    HW129803   1.843  12.916   3.512
 9302SOL    HW229804   1.903  12.886   3.376
 9303SOL     OW29805  13.839   2.080   8.366
 9303SOL    HW129806  13.824   1.987   8.345
 9303SOL    HW229807  13.785   2.127   8.302
 9304SOL     OW29808  11.833   9.747  12.943
 9304SOL    HW129809  11.862   9.792  13.022
 9304SOL    HW229810  11.793   9.666  12.975
 9305SOL     OW29811   2.332   7.288   9.467
 9305SOL    HW129812   2.357   7.248   9.550
 9305SOL    HW229813   2.252   7.242   9.441
 9306SOL     OW29814   1.173   6.972   8.889
 9306SOL    HW129815   1.262   6.942   8.867
 9306SOL    HW229816   1.148   7.030   8.817
 9307SOL     OW29817  12.871   2.972  14.737
 9307SOL    HW129818  12.825   2.965  14.653
 9307SOL    HW229819  12.948   3.025  14.717
 9308SOL     OW29820   0.012   8.349   3.959
 9308SOL    HW129821   0.030   8.334   3.866
 9308SOL    HW229822  14.795   8.355   3.965
 9309SOL     OW29823   3.047   0.671  11.511
 9309SOL    HW129824   3.096   0.746  11.477
 9309SOL    HW229825   3.045   0.685  11.605
 9310SOL     OW29826   0.029  12.062   7.215
 9310SOL    HW129827  14.813  12.082   7.219
 9310SOL    HW229828   0.053  12.037   7.304
 9311SOL     OW29829  11.157   4.992   3.980
 9311SOL    HW129830  11.086   5.056   3.987
 9311SOL    HW229831  11.118   4.910   4.011
 9312SOL     OW29832   5.154   5.371   1.282
 9312SOL    HW129833   5.245   5.349   1.303
 9312SOL    HW229834   5.135   5.449   1.335
 9313SOL     OW29835   1.457  13.866   6.200
 9313SOL    HW129836   1.418  13.855   6.287
 9313SOL    HW229837   1.383  13.859   6.140
 9314SOL     OW29838   0.495  10.355   1.867
 9314SOL    HW129839   0.493  10.320   1.957
 9314SOL    HW229840   0.588  10.363   1.847
 9315SOL     OW29841   1.991   9.453   0.536
 9315SOL    HW129842   1.989   9.547   0.551
 9315SOL    HW229843   1.922   9.418   0.593
 9316SOL     OW29844   4.563  12.811   9.066
 9316SOL    HW129845   4.498  12.742   9.054
 9316SOL    HW229846   4.595  12.830   8.977
 9317SOL     OW29847   3.415   1.791   2.908
 9317SOL    HW129848   3.437   1.722   2.846
 9317SOL    HW229849   3.497   1.812   2.952
 9318SOL     OW29850   9.750   7.227  13.591
 9318SOL    HW129851   9.792   7.309  13.565
 9318SOL    HW229852   9.681   7.254  13.651
 9319SOL     OW29853   6.425  12.424  10.504
 9319SOL    HW129854   6.510  12.396  10.469
 9319SOL    HW229855   6.445  12.502  10.556
 9320SOL     OW29856  14.387  14.210   8.884
 9320SOL    HW129857  14.345  14.146   8.941
 9320SOL    HW229858  14.457  14.161   8.840
 9321SOL     OW29859   6.976  10.026   5.845
 9321SOL    HW129860   6.948  10.118   5.849
 9321SOL    HW229861   7.069  10.030   5.825
 9322SOL     OW29862   2.957   9.069  11.669
 9322SOL    HW129863   3.001   9.077  11.754
 9322SOL    HW229864   2.870   9.106  11.683
 9323SOL     OW29865   6.627  11.867   3.399
 9323SOL    HW129866   6.703  11.835   3.351
 9323SOL    HW229867   6.603  11.795   3.458
 9324SOL     OW29868   8.739   6.489   1.267
 9324SOL    HW129869   8.781   6.569   1.235
 9324SOL    HW229870   8.797   6.457   1.336
 9325SOL     OW29871   0.002  13.383   2.348
 9325SOL    HW129872  14.845  13.457   2.396
 9325SOL    HW229873   0.018  13.417   2.260
 9326SOL     OW29874   8.855   0.014  14.735
 9326SOL    HW129875   8.893   0.066  14.807
 9326SOL    HW229876   8.878  14.802  14.756
 9327SOL     OW29877  13.624   6.918  11.391
 9327SOL    HW129878  13.685   6.902  11.318
 9327SOL    HW229879  13.568   6.989  11.360
 9328SOL     OW29880   6.918   0.250   2.456
 9328SOL    HW129881   6.932   0.334   2.499
 9328SOL    HW229882   6.986   0.193   2.492
 9329SOL     OW29883  11.089   1.243  10.477
 9329SOL    HW129884  11.063   1.328  10.512
 9329SOL    HW229885  11.033   1.180  10.521
 9330SOL     OW29886   3.113   3.064   9.650
 9330SOL    HW129887   3.162   2.985   9.675
 9330SOL    HW229888   3.177   3.134   9.651
 9331SOL     OW29889   4.048   8.720   5.073
 9331SOL    HW129890   4.090   8.638   5.098
 9331SOL    HW229891   4.093   8.786   5.125
 9332SOL     OW29892  13.081   9.314  10.895
 9332SOL    HW129893  13.021   9.241  10.878
 9332SOL    HW229894  13.081   9.364  10.813
 9333SOL     OW29895   0.453  12.370  14.693
 9333SOL    HW129896   0.487  12.305  14.631
 9333SOL    HW229897   0.427  12.320  14.769
 9334SOL     OW29898  13.012   3.032   7.659
 9334SOL    HW129899  12.929   3.079   7.669
 9334SOL    HW229900  13.055   3.041   7.744
 9335SOL     OW29901   5.133   7.506  14.601
 9335SOL    HW129902   5.121   7.565  14.527
 9335SOL    HW229903   5.153   7.565  14.675
 9336SOL     OW29904   6.839  14.133  14.786
 9336SOL    HW129905   6.779  14.205  14.768
 9336SOL    HW229906   6.921  14.175  14.811
 9337SOL     OW29907  11.140   3.477   6.398
 9337SOL    HW129908  11.187   3.486   6.481
 9337SOL    HW229909  11.112   3.385   6.396
 9338SOL     OW29910  12.182   6.695   0.611
 9338SOL    HW129911  12.247   6.667   0.546
 9338SOL    HW229912  12.222   6.770   0.654
 9339SOL     OW29913   6.142   3.103   3.237
 9339SOL    HW129914   6.067   3.096   3.178
 9339SOL    HW229915   6.152   3.197   3.252
 9340SOL     OW29916  13.538   2.943   6.227
 9340SOL    HW129917  13.507   2.926   6.316
 9340SOL    HW229918  13.612   2.884   6.215
 9341SOL     OW29919   8.077   0.692   9.867
 9341SOL    HW129920   8.148   0.714   9.928
 9341SOL    HW229921   8.000   0.735   9.904
 9342SOL     OW29922   1.278   6.486   5.081
 9342SOL    HW129923   1.202   6.445   5.039
 9342SOL    HW229924   1.297   6.430   5.156
 9343SOL     OW29925  10.016   7.927   5.581
 9343SOL    HW129926   9.957   7.920   5.655
 9343SOL    HW229927  10.076   7.998   5.604
 9344SOL     OW29928   8.585   6.057   0.607
 9344SOL    HW129929   8.527   6.052   0.683
 9344SOL    HW229930   8.637   6.136   0.621
 9345SOL     OW29931   9.846   5.592  10.333
 9345SOL    HW129932   9.752   5.570  10.330
 9345SOL    HW229933   9.886   5.521  10.383
 9346SOL     OW29934   1.616   1.012  13.130
 9346SOL    HW129935   1.585   1.102  13.131
 9346SOL    HW229936   1.684   1.009  13.063
 9347SOL     OW29937  14.038   1.529   4.474
 9347SOL    HW129938  14.067   1.441   4.451
 9347SOL    HW229939  14.052   1.581   4.395
 9348SOL     OW29940   8.233  12.774   8.250
 9348SOL    HW129941   8.158  12.831   8.268
 9348SOL    HW229942   8.194  12.688   8.232
 9349SOL     OW29943  14.655   9.939   8.137
 9349SOL    HW129944  14.695   9.927   8.051
 9349SOL    HW229945  14.729   9.943   8.197
 9350SOL     OW29946   3.969   7.761   5.150
 9350SOL    HW129947   3.992   7.800   5.234
 9350SOL    HW229948   3.957   7.835   5.091
 9351SOL     OW29949   0.554   9.610   6.759
 9351SOL    HW129950   0.547   9.593   6.665
 9351SOL    HW229951   0.598   9.695   6.765
 9352SOL     OW29952  14.607   9.965  11.607
 9352SOL    HW129953  14.696   9.955  11.572
 9352SOL    HW229954  14.550   9.935  11.537
 9353SOL     OW29955   0.955   5.920   9.960
 9353SOL    HW129956   1.019   5.910  10.030
 9353SOL    HW229957   0.947   6.015   9.948
 9354SOL     OW29958  12.456   5.726  10.817
 9354SOL    HW129959  12.413   5.782  10.752
 9354SOL    HW229960  12.527   5.781  10.852
 9355SOL     OW29961   4.295   0.248  14.602
 9355SOL    HW129962   4.341   0.218  14.524
 9355SOL    HW229963   4.293   0.343  14.593
 9356SOL     OW29964  10.220   4.180   1.715
 9356SOL    HW129965  10.302   4.172   1.668
 9356SOL    HW229966  10.237   4.247   1.782
 9357SOL     OW29967   7.514  14.859   1.528
 9357SOL    HW129968   7.515  14.876   1.433
 9357SOL    HW229969   7.480   0.062   1.566
 9358SOL     OW29970  12.861   4.943   8.081
 9358SOL    HW129971  12.854   4.941   8.177
 9358SOL    HW229972  12.902   4.859   8.059
 9359SOL     OW29973   8.298   6.302   7.042
 9359SOL    HW129974   8.315   6.221   6.995
 9359SOL    HW229975   8.223   6.341   6.998
 9360SOL     OW29976   6.087   3.641   2.695
 9360SOL    HW129977   6.098   3.687   2.778
 9360SOL    HW229978   6.027   3.570   2.715
 9361SOL     OW29979   8.644   6.085   7.110
 9361SOL    HW129980   8.623   6.083   7.017
 9361SOL    HW229981   8.608   6.168   7.141
 9362SOL     OW29982  12.054  10.693   5.048
 9362SOL    HW129983  12.032  10.782   5.022
 9362SOL    HW229984  12.094  10.654   4.970
 9363SOL     OW29985   3.493   1.572   1.144
 9363SOL    HW129986   3.582   1.604   1.162
 9363SOL    HW229987   3.506   1.486   1.105
 9364SOL     OW29988   8.072  11.164  14.033
 9364SOL    HW129989   7.999  11.161  13.971
 9364SOL    HW229990   8.141  11.115  13.991
 9365SOL     OW29991   3.985   9.261   4.898
 9365SOL    HW129992   3.995   9.300   4.985
 9365SOL    HW229993   3.990   9.166   4.915
 9366SOL     OW29994  12.255  14.375   2.480
 9366SOL    HW129995  12.258  14.346   2.572
 9366SOL    HW229996  12.305  14.309   2.433
 9367SOL     OW29997   5.072   9.859   5.499
 9367SOL    HW129998   4.990   9.879   5.453
 9367SOL    HW229999   5.050   9.869   5.592
 9368SOL     OW30000   6.752   4.824   0.885
 9368SOL    HW130001   6.770   4.734   0.911
 9368SOL    HW230002   6.657   4.832   0.892
 9369SOL     OW30003  12.015  10.923   7.463
 9369SOL    HW130004  11.976  10.968   7.388
 9369SOL    HW230005  12.008  10.987   7.535
 9370SOL     OW30006   1.219  10.371  11.917
 9370SOL    HW130007   1.174  10.455  11.905
 9370SOL    HW230008   1.268  10.358  11.836
 9371SOL     OW30009   6.210  11.130   4.498
 9371SOL    HW130010   6.281  11.068   4.513
 9371SOL    HW230011   6.138  11.097   4.552
 9372SOL     OW30012  14.258  10.346   9.867
 9372SOL    HW130013  14.223  10.411   9.806
 9372SOL    HW230014  14.323  10.395   9.919
 9373SOL     OW30015   0.433   1.197   2.129
 9373SOL    HW130016   0.499   1.195   2.060
 9373SOL    HW230017   0.357   1.153   2.091
 9374SOL     OW30018  10.634  13.747   7.027
 9374SOL    HW130019  10.542  13.719   7.026
 9374SOL    HW230020  10.657  13.748   7.120
 9375SOL     OW30021   2.142  14.066   4.632
 9375SOL    HW130022   2.104  14.154   4.634
 9375SOL    HW230023   2.188  14.062   4.548
 9376SOL     OW30024   7.646   9.501   1.915
 9376SOL    HW130025   7.739   9.501   1.891
 9376SOL    HW230026   7.623   9.409   1.921
 9377SOL     OW30027   4.942   6.288  12.310
 9377SOL    HW130028   4.915   6.316  12.222
 9377SOL    HW230029   5.021   6.339  12.328
 9378SOL     OW30030   9.136   1.734  11.922
 9378SOL    HW130031   9.103   1.646  11.943
 9378SOL    HW230032   9.222   1.718  11.883
 9379SOL     OW30033  12.070  10.538   1.855
 9379SOL    HW130034  12.122  10.502   1.927
 9379SOL    HW230035  12.129  10.601   1.813
 9380SOL     OW30036   0.416   2.347   9.456
 9380SOL    HW130037   0.357   2.311   9.522
 9380SOL    HW230038   0.500   2.358   9.501
 9381SOL     OW30039  10.731  13.256  12.531
 9381SOL    HW130040  10.764  13.346  12.539
 9381SOL    HW230041  10.809  13.201  12.536
 9382SOL     OW30042   1.850   4.829  12.511
 9382SOL    HW130043   1.796   4.749  12.503
 9382SOL    HW230044   1.821   4.884  12.439
 9383SOL     OW30045   8.543   0.481  13.635
 9383SOL    HW130046   8.485   0.552  13.611
 9383SOL    HW230047   8.587   0.511  13.714
 9384SOL     OW30048   2.864   8.464   1.018
 9384SOL    HW130049   2.920   8.510   1.081
 9384SOL    HW230050   2.796   8.424   1.071
 9385SOL     OW30051   5.130   6.468   4.284
 9385SOL    HW130052   5.207   6.495   4.234
 9385SOL    HW230053   5.073   6.545   4.284
 9386SOL     OW30054  11.625  13.936   9.407
 9386SOL    HW130055  11.625  13.851   9.363
 9386SOL    HW230056  11.596  13.998   9.340
 9387SOL     OW30057   3.165   4.264  14.007
 9387SOL    HW130058   3.204   4.309  13.932
 9387SOL    HW230059   3.203   4.307  14.083
 9388SOL     OW30060   9.551   8.167  12.132
 9388SOL    HW130061   9.524   8.219  12.208
 9388SOL    HW230062   9.511   8.212  12.057
 9389SOL     OW30063   8.447  11.897   5.966
 9389SOL    HW130064   8.404  11.956   6.028
 9389SOL    HW230065   8.377  11.839   5.935
 9390SOL     OW30066   9.152   9.721   9.071
 9390SOL    HW130067   9.073   9.673   9.095
 9390SOL    HW230068   9.223   9.657   9.081
 9391SOL     OW30069   6.348  10.493  10.066
 9391SOL    HW130070   6.429  10.446  10.086
 9391SOL    HW230071   6.365  10.583  10.095
 9392SOL     OW30072  10.958   9.763  14.589
 9392SOL    HW130073  11.040   9.713  14.586
 9392SOL    HW230074  10.932   9.761  14.681
 9393SOL     OW30075   8.954  10.656  10.395
 9393SOL    HW130076   8.944  10.638  10.489
 9393SOL    HW230077   8.895  10.593  10.353
 9394SOL     OW30078  10.798   2.234   1.555
 9394SOL    HW130079  10.863   2.175   1.516
 9394SOL    HW230080  10.761   2.185   1.628
 9395SOL     OW30081   2.349  12.703   3.123
 9395SOL    HW130082   2.306  12.671   3.202
 9395SOL    HW230083   2.443  12.699   3.142
 9396SOL     OW30084   0.896   3.695   3.302
 9396SOL    HW130085   0.963   3.761   3.319
 9396SOL    HW230086   0.923   3.654   3.220
 9397SOL     OW30087  14.397   9.585   5.569
 9397SOL    HW130088  14.307   9.608   5.545
 9397SOL    HW230089  14.394   9.567   5.663
 9398SOL     OW30090   3.660   2.456   0.686
 9398SOL    HW130091   3.656   2.366   0.717
 9398SOL    HW230092   3.695   2.450   0.597
 9399SOL     OW30093   9.802   4.313   6.227
 9399SOL    HW130094   9.764   4.395   6.195
 9399SOL    HW230095   9.754   4.295   6.308
 9400SOL     OW30096   9.414   9.059   2.317
 9400SOL    HW130097   9.487   9.025   2.369
 9400SOL    HW230098   9.358   8.983   2.303
 9401SOL     OW30099   6.483  14.675   6.935
 9401SOL    HW130100   6.502  14.767   6.950
 9401SOL    HW230101   6.403  14.674   6.882
 9402SOL     OW30102   6.107   1.930   5.484
 9402SOL    HW130103   6.024   1.897   5.448
 9402SOL    HW230104   6.115   1.885   5.569
 9403SOL     OW30105   6.180   4.342  14.270
 9403SOL    HW130106   6.139   4.363  14.186
 9403SOL    HW230107   6.114   4.291  14.317
 9404SOL     OW30108   9.061   2.075   6.039
 9404SOL    HW130109   9.154   2.092   6.023
 9404SOL    HW230110   9.055   1.980   6.046
 9405SOL     OW30111   1.280   4.205   9.606
 9405SOL    HW130112   1.228   4.216   9.686
 9405SOL    HW230113   1.368   4.234   9.631
 9406SOL     OW30114  14.190  14.201  13.482
 9406SOL    HW130115  14.249  14.231  13.551
 9406SOL    HW230116  14.104  14.199  13.524
 9407SOL     OW30117  11.186   8.375   8.748
 9407SOL    HW130118  11.251   8.445   8.743
 9407SOL    HW230119  11.209   8.316   8.676
 9408SOL     OW30120   0.553   9.172   3.428
 9408SOL    HW130121   0.566   9.139   3.339
 9408SOL    HW230122   0.633   9.221   3.447
 9409SOL     OW30123   9.571   0.462   9.015
 9409SOL    HW130124   9.586   0.384   8.961
 9409SOL    HW230125   9.490   0.500   8.980
 9410SOL     OW30126   5.199   4.296  14.408
 9410SOL    HW130127   5.205   4.381  14.366
 9410SOL    HW230128   5.163   4.238  14.341
 9411SOL     OW30129  10.906  14.788   9.523
 9411SOL    HW130130  10.919  14.871   9.476
 9411SOL    HW230131  10.847  14.738   9.466
 9412SOL     OW30132  14.825   3.023   7.298
 9412SOL    HW130133   0.008   3.078   7.348
 9412SOL    HW230134  14.752   3.009   7.358
 9413SOL     OW30135  11.165   5.689   9.007
 9413SOL    HW130136  11.124   5.753   9.065
 9413SOL    HW230137  11.092   5.643   8.966
 9414SOL     OW30138   0.271   7.449  10.854
 9414SOL    HW130139   0.265   7.386  10.925
 9414SOL    HW230140   0.346   7.420  10.802
 9415SOL     OW30141   9.695  13.780   4.680
 9415SOL    HW130142   9.725  13.768   4.770
 9415SOL    HW230143   9.726  13.702   4.634
 9416SOL     OW30144   1.313   9.049  10.925
 9416SOL    HW130145   1.386   9.097  10.886
 9416SOL    HW230146   1.335   8.957  10.913
 9417SOL     OW30147   5.745   8.937  10.475
 9417SOL    HW130148   5.774   8.846  10.465
 9417SOL    HW230149   5.673   8.945  10.412
 9418SOL     OW30150  14.659   8.948   5.108
 9418SOL    HW130151  14.732   9.009   5.100
 9418SOL    HW230152  14.700   8.862   5.102
 9419SOL     OW30153   1.765  14.031   0.892
 9419SOL    HW130154   1.676  14.024   0.926
 9419SOL    HW230155   1.809  14.093   0.950
 9420SOL     OW30156   8.723  13.054  12.029
 9420SOL    HW130157   8.796  13.049  11.967
 9420SOL    HW230158   8.763  13.078  12.112
 9421SOL     OW30159   0.769  10.088   8.991
 9421SOL    HW130160   0.674  10.099   9.004
 9421SOL    HW230161   0.807  10.167   9.031
 9422SOL     OW30162   0.171   8.364   0.346
 9422SOL    HW130163   0.220   8.386   0.425
 9422SOL    HW230164   0.079   8.371   0.372
 9423SOL     OW30165   4.333   7.789  10.416
 9423SOL    HW130166   4.335   7.727  10.343
 9423SOL    HW230167   4.425   7.798  10.442
 9424SOL     OW30168  11.341   5.685  10.610
 9424SOL    HW130169  11.312   5.775  10.624
 9424SOL    HW230170  11.418   5.694  10.552
 9425SOL     OW30171   9.052   3.016   6.741
 9425SOL    HW130172   8.958   2.997   6.738
 9425SOL    HW230173   9.063   3.090   6.681
 9426SOL     OW30174  11.529  10.119  10.620
 9426SOL    HW130175  11.496  10.073  10.542
 9426SOL    HW230176  11.618  10.085  10.632
 9427SOL     OW30177   9.131   8.247   6.650
 9427SOL    HW130178   9.100   8.270   6.738
 9427SOL    HW230179   9.182   8.167   6.662
 9428SOL     OW30180   1.760   9.389   5.125
 9428SOL    HW130181   1.834   9.448   5.114
 9428SOL    HW230182   1.799   9.301   5.131
 9429SOL     OW30183   8.507   1.383  10.615
 9429SOL    HW130184   8.543   1.321  10.552
 9429SOL    HW230185   8.474   1.455  10.561
 9430SOL     OW30186   6.986   8.126   1.318
 9430SOL    HW130187   7.065   8.176   1.335
 9430SOL    HW230188   6.951   8.105   1.405
 9431SOL     OW30189   0.311  13.814  12.333
 9431SOL    HW130190   0.216  13.817  12.331
 9431SOL    HW230191   0.339  13.900  12.303
 9432SOL     OW30192   8.563   0.610   7.999
 9432SOL    HW130193   8.550   0.667   7.924
 9432SOL    HW230194   8.635   0.552   7.973
 9433SOL     OW30195   4.439   4.714  13.063
 9433SOL    HW130196   4.398   4.718  13.150
 9433SOL    HW230197   4.527   4.679  13.079
 9434SOL     OW30198   9.550   0.222   5.205
 9434SOL    HW130199   9.628   0.271   5.181
 9434SOL    HW230200   9.484   0.248   5.140
 9435SOL     OW30201   2.927   8.129   4.332
 9435SOL    HW130202   2.922   8.205   4.275
 9435SOL    HW230203   2.967   8.162   4.413
 9436SOL     OW30204   9.418   0.984  13.488
 9436SOL    HW130205   9.491   0.957  13.432
 9436SOL    HW230206   9.384   0.903  13.525
 9437SOL     OW30207   9.227  11.471   3.416
 9437SOL    HW130208   9.260  11.415   3.346
 9437SOL    HW230209   9.280  11.551   3.410
 9438SOL     OW30210   7.088   2.161  13.455
 9438SOL    HW130211   7.090   2.217  13.533
 9438SOL    HW230212   7.012   2.105  13.468
 9439SOL     OW30213   9.831   1.889   4.595
 9439SOL    HW130214   9.820   1.977   4.630
 9439SOL    HW230215   9.902   1.897   4.530
 9440SOL     OW30216   1.397   0.524   7.536
 9440SOL    HW130217   1.375   0.506   7.444
 9440SOL    HW230218   1.492   0.533   7.536
 9441SOL     OW30219   3.698  14.069   5.425
 9441SOL    HW130220   3.603  14.079   5.421
 9441SOL    HW230221   3.719  14.019   5.345
 9442SOL     OW30222  12.043   1.510   3.119
 9442SOL    HW130223  12.102   1.461   3.062
 9442SOL    HW230224  12.017   1.447   3.187
 9443SOL     OW30225  11.812  13.403  10.960
 9443SOL    HW130226  11.855  13.402  10.874
 9443SOL    HW230227  11.816  13.494  10.988
 9444SOL     OW30228  14.149   1.018  12.855
 9444SOL    HW130229  14.194   0.999  12.773
 9444SOL    HW230230  14.133   1.112  12.853
 9445SOL     OW30231   7.218   3.328   8.859
 9445SOL    HW130232   7.133   3.372   8.863
 9445SOL    HW230233   7.245   3.321   8.950
 9446SOL     OW30234   1.140  11.319   7.446
 9446SOL    HW130235   1.225  11.332   7.489
 9446SOL    HW230236   1.145  11.370   7.366
 9447SOL     OW30237   3.368   5.459  14.757
 9447SOL    HW130238   3.363   5.386  14.695
 9447SOL    HW230239   3.288   5.510  14.740
 9448SOL     OW30240  10.914  13.973   2.652
 9448SOL    HW130241  10.927  14.065   2.628
 9448SOL    HW230242  10.822  13.968   2.679
 9449SOL     OW30243   9.303   8.101   5.146
 9449SOL    HW130244   9.368   8.127   5.211
 9449SOL    HW230245   9.219   8.123   5.185
 9450SOL     OW30246   1.118  13.273   2.283
 9450SOL    HW130247   1.100  13.347   2.226
 9450SOL    HW230248   1.098  13.196   2.229
 9451SOL     OW30249   9.298  11.646   8.956
 9451SOL    HW130250   9.247  11.708   9.009
 9451SOL    HW230251   9.261  11.560   8.976
 9452SOL     OW30252  10.189  14.383   5.580
 9452SOL    HW130253  10.238  14.441   5.639
 9452SOL    HW230254  10.129  14.335   5.637
 9453SOL     OW30255  10.877   2.175   8.219
 9453SOL    HW130256  10.950   2.155   8.161
 9453SOL    HW230257  10.904   2.254   8.266
 9454SOL     OW30258  12.355  12.981  12.032
 9454SOL    HW130259  12.321  12.980  12.121
 9454SOL    HW230260  12.367  13.074  12.012
 9455SOL     OW30261  14.391   5.193   8.420
 9455SOL    HW130262  14.296   5.178   8.412
 9455SOL    HW230263  14.430   5.107   8.409
 9456SOL     OW30264   5.875   9.760  12.700
 9456SOL    HW130265   5.832   9.752  12.785
 9456SOL    HW230266   5.804   9.783  12.640
 9457SOL     OW30267  14.479   7.079   8.522
 9457SOL    HW130268  14.509   7.148   8.462
 9457SOL    HW230269  14.457   7.006   8.464
 9458SOL     OW30270   3.630   1.549  11.287
 9458SOL    HW130271   3.651   1.614  11.354
 9458SOL    HW230272   3.610   1.470  11.337
 9459SOL     OW30273  14.612   2.711  11.767
 9459SOL    HW130274  14.652   2.787  11.810
 9459SOL    HW230275  14.519   2.718  11.787
 9460SOL     OW30276   0.297   7.492  10.450
 9460SOL    HW130277   0.315   7.585  10.441
 9460SOL    HW230278   0.373   7.457  10.496
 9461SOL     OW30279   9.248   6.641   0.258
 9461SOL    HW130280   9.179   6.618   0.196
 9461SOL    HW230281   9.321   6.670   0.204
 9462SOL     OW30282   5.448   3.465  11.117
 9462SOL    HW130283   5.436   3.527  11.189
 9462SOL    HW230284   5.504   3.510  11.055
 9463SOL     OW30285   3.193   2.919   0.751
 9463SOL    HW130286   3.141   2.965   0.816
 9463SOL    HW230287   3.277   2.965   0.751
 9464SOL     OW30288   7.876   1.646  10.869
 9464SOL    HW130289   7.865   1.575  10.806
 9464SOL    HW230290   7.893   1.723  10.816
 9465SOL     OW30291   9.466   9.690   1.694
 9465SOL    HW130292   9.548   9.678   1.742
 9465SOL    HW230293   9.492   9.725   1.609
 9466SOL     OW30294   3.998  11.692   2.819
 9466SOL    HW130295   4.056  11.628   2.778
 9466SOL    HW230296   4.035  11.777   2.794
 9467SOL     OW30297  10.442  13.650   1.340
 9467SOL    HW130298  10.465  13.565   1.302
 9467SOL    HW230299  10.480  13.714   1.281
 9468SOL     OW30300   0.888   3.618   9.534
 9468SOL    HW130301   0.859   3.528   9.552
 9468SOL    HW230302   0.965   3.607   9.478
 9469SOL     OW30303   6.398   6.704  11.800
 9469SOL    HW130304   6.349   6.786  11.787
 9469SOL    HW230305   6.416   6.701  11.894
 9470SOL     OW30306   9.752  14.217   8.945
 9470SOL    HW130307   9.770  14.269   8.867
 9470SOL    HW230308   9.797  14.134   8.930
 9471SOL     OW30309   6.342   5.253  12.823
 9471SOL    HW130310   6.282   5.201  12.771
 9471SOL    HW230311   6.286   5.311  12.875
 9472SOL     OW30312   1.890   4.590   0.162
 9472SOL    HW130313   1.801   4.571   0.134
 9472SOL    HW230314   1.909   4.677   0.127
 9473SOL     OW30315   8.790   5.092  12.653
 9473SOL    HW130316   8.818   5.001  12.644
 9473SOL    HW230317   8.709   5.097  12.602
 9474SOL     OW30318   6.338   0.534   7.225
 9474SOL    HW130319   6.303   0.517   7.313
 9474SOL    HW230320   6.372   0.623   7.229
 9475SOL     OW30321   6.092   2.032  10.716
 9475SOL    HW130322   6.021   2.080  10.757
 9475SOL    HW230323   6.133   1.984  10.787
 9476SOL     OW30324  13.606   9.010   2.351
 9476SOL    HW130325  13.625   9.088   2.299
 9476SOL    HW230326  13.527   8.974   2.313
 9477SOL     OW30327  13.359   6.623   6.905
 9477SOL    HW130328  13.357   6.717   6.923
 9477SOL    HW230329  13.355   6.582   6.992
 9478SOL     OW30330   8.755   6.405   8.233
 9478SOL    HW130331   8.699   6.436   8.304
 9478SOL    HW230332   8.842   6.439   8.254
 9479SOL     OW30333   5.167  11.497   7.055
 9479SOL    HW130334   5.105  11.440   7.010
 9479SOL    HW230335   5.225  11.528   6.986
 9480SOL     OW30336   0.801   0.278  13.183
 9480SOL    HW130337   0.751   0.284  13.265
 9480SOL    HW230338   0.780   0.191  13.148
 9481SOL     OW30339  11.561   0.705   0.832
 9481SOL    HW130340  11.622   0.727   0.903
 9481SOL    HW230341  11.520   0.788   0.808
 9482SOL     OW30342   1.392   4.283  10.208
 9482SOL    HW130343   1.365   4.373  10.224
 9482SOL    HW230344   1.314   4.241  10.170
 9483SOL     OW30345   4.875   0.498   9.629
 9483SOL    HW130346   4.901   0.466   9.543
 9483SOL    HW230347   4.947   0.557   9.654
 9484SOL     OW30348  14.297  11.265   8.067
 9484SOL    HW130349  14.322  11.353   8.038
 9484SOL    HW230350  14.230  11.238   8.005
 9485SOL     OW30351   5.423   1.022  10.124
 9485SOL    HW130352   5.396   1.113  10.110
 9485SOL    HW230353   5.360   0.970  10.073
 9486SOL     OW30354   3.559  12.839  14.381
 9486SOL    HW130355   3.526  12.753  14.352
 9486SOL    HW230356   3.624  12.818  14.448
 9487SOL     OW30357   6.707  14.638   8.252
 9487SOL    HW130358   6.626  14.689   8.250
 9487SOL    HW230359   6.679  14.551   8.283
 9488SOL     OW30360   1.065   2.647  10.774
 9488SOL    HW130361   1.014   2.654  10.855
 9488SOL    HW230362   1.156   2.654  10.802
 9489SOL     OW30363   6.602  10.848   9.815
 9489SOL    HW130364   6.625  10.872   9.905
 9489SOL    HW230365   6.612  10.753   9.813
 9490SOL     OW30366  10.855  13.816  12.148
 9490SOL    HW130367  10.867  13.890  12.089
 9490SOL    HW230368  10.760  13.801  12.149
 9491SOL     OW30369   2.791   6.799   7.257
 9491SOL    HW130370   2.721   6.782   7.320
 9491SOL    HW230371   2.854   6.728   7.270
 9492SOL     OW30372   1.088   8.375   2.586
 9492SOL    HW130373   1.139   8.346   2.510
 9492SOL    HW230374   1.150   8.426   2.638
 9493SOL     OW30375  10.605   1.101  13.244
 9493SOL    HW130376  10.698   1.112  13.227
 9493SOL    HW230377  10.562   1.166  13.188
 9494SOL     OW30378   5.489   6.359  11.114
 9494SOL    HW130379   5.459   6.394  11.197
 9494SOL    HW230380   5.508   6.437  11.061
 9495SOL     OW30381  13.758  14.069   9.240
 9495SOL    HW130382  13.702  14.009   9.191
 9495SOL    HW230383  13.708  14.089   9.319
 9496SOL     OW30384   9.294  10.304  13.054
 9496SOL    HW130385   9.203  10.319  13.028
 9496SOL    HW230386   9.290  10.234  13.119
 9497SOL     OW30387   3.706  12.706   4.191
 9497SOL    HW130388   3.650  12.709   4.269
 9497SOL    HW230389   3.645  12.707   4.117
 9498SOL     OW30390   1.319   2.183  14.593
 9498SOL    HW130391   1.338   2.109  14.651
 9498SOL    HW230392   1.402   2.232  14.590
 9499SOL     OW30393   2.003   0.385   4.060
 9499SOL    HW130394   2.077   0.329   4.080
 9499SOL    HW230395   1.991   0.376   3.965
 9500SOL     OW30396  12.562  12.736   9.222
 9500SOL    HW130397  12.572  12.768   9.312
 9500SOL    HW230398  12.514  12.653   9.232
 9501SOL     OW30399   8.161   6.243   1.997
 9501SOL    HW130400   8.248   6.236   1.958
 9501SOL    HW230401   8.176   6.233   2.091
 9502SOL     OW30402  11.896   6.997   2.218
 9502SOL    HW130403  11.858   6.989   2.305
 9502SOL    HW230404  11.952   7.075   2.223
 9503SOL     OW30405   9.185   3.612  13.554
 9503SOL    HW130406   9.242   3.650  13.620
 9503SOL    HW230407   9.244   3.586  13.483
 9504SOL     OW30408   8.948   2.129  13.932
 9504SOL    HW130409   8.914   2.114  13.844
 9504SOL    HW230410   8.907   2.061  13.986
 9505SOL     OW30411   4.509   2.710   2.935
 9505SOL    HW130412   4.448   2.755   2.992
 9505SOL    HW230413   4.572   2.777   2.908
 9506SOL     OW30414  13.284   6.946  14.265
 9506SOL    HW130415  13.208   6.960  14.322
 9506SOL    HW230416  13.358   6.939  14.325
 9507SOL     OW30417   2.986   2.777   3.942
 9507SOL    HW130418   3.055   2.770   4.008
 9507SOL    HW230419   2.920   2.713   3.969
 9508SOL     OW30420   5.086   6.994   2.906
 9508SOL    HW130421   5.007   6.997   2.852
 9508SOL    HW230422   5.126   7.081   2.895
 9509SOL     OW30423   3.989   4.685  10.132
 9509SOL    HW130424   4.009   4.768  10.175
 9509SOL    HW230425   4.067   4.631  10.147
 9510SOL     OW30426   5.117   2.476  11.070
 9510SOL    HW130427   5.090   2.385  11.071
 9510SOL    HW230428   5.099   2.506  10.981
 9511SOL     OW30429   0.265   4.743   0.567
 9511SOL    HW130430   0.206   4.673   0.595
 9511SOL    HW230431   0.347   4.725   0.613
 9512SOL     OW30432   7.804   3.638  10.175
 9512SOL    HW130433   7.787   3.640  10.081
 9512SOL    HW230434   7.722   3.608  10.214
 9513SOL     OW30435   8.171  14.396   8.238
 9513SOL    HW130436   8.149  14.309   8.269
 9513SOL    HW230437   8.086  14.438   8.223
 9514SOL     OW30438   5.856   6.614   9.578
 9514SOL    HW130439   5.800   6.540   9.602
 9514SOL    HW230440   5.942   6.575   9.563
 9515SOL     OW30441   6.404   2.573   6.573
 9515SOL    HW130442   6.415   2.480   6.554
 9515SOL    HW230443   6.484   2.597   6.620
 9516SOL     OW30444  11.729   9.707  10.031
 9516SOL    HW130445  11.704   9.781   9.975
 9516SOL    HW230446  11.743   9.634   9.970
 9517SOL     OW30447   4.295   6.691   1.995
 9517SOL    HW130448   4.324   6.647   1.915
 9517SOL    HW230449   4.328   6.636   2.066
 9518SOL     OW30450   8.257  14.813  13.621
 9518SOL    HW130451   8.349  14.838  13.629
 9518SOL    HW230452   8.246  14.742  13.685
 9519SOL     OW30453   5.014  14.472   7.308
 9519SOL    HW130454   5.094  14.442   7.350
 9519SOL    HW230455   5.010  14.424   7.225
 9520SOL     OW30456   5.374   7.129  10.036
 9520SOL    HW130457   5.377   7.054  10.096
 9520SOL    HW230458   5.311   7.189  10.076
 9521SOL     OW30459  11.690  10.630   3.573
 9521SOL    HW130460  11.764  10.691   3.575
 9521SOL    HW230461  11.717  10.558   3.629
 9522SOL     OW30462   4.167  10.229  13.077
 9522SOL    HW130463   4.129  10.189  13.156
 9522SOL    HW230464   4.155  10.323  13.090
 9523SOL     OW30465   2.747   2.244  10.659
 9523SOL    HW130466   2.754   2.156  10.621
 9523SOL    HW230467   2.759   2.231  10.753
 9524SOL     OW30468   6.187  11.137   7.033
 9524SOL    HW130469   6.216  11.073   7.098
 9524SOL    HW230470   6.254  11.135   6.965
 9525SOL     OW30471   0.714  13.699  11.550
 9525SOL    HW130472   0.671  13.686  11.465
 9525SOL    HW230473   0.805  13.674  11.535
 9526SOL     OW30474  14.201   5.670   5.880
 9526SOL    HW130475  14.145   5.641   5.952
 9526SOL    HW230476  14.279   5.705   5.923
 9527SOL     OW30477  11.456  11.469  11.212
 9527SOL    HW130478  11.379  11.414  11.196
 9527SOL    HW230479  11.512  11.416  11.269
 9528SOL     OW30480   9.246  10.439   5.522
 9528SOL    HW130481   9.276  10.410   5.609
 9528SOL    HW230482   9.271  10.532   5.518
 9529SOL     OW30483  13.300   9.169  13.024
 9529SOL    HW130484  13.231   9.188  12.960
 9529SOL    HW230485  13.381   9.197  12.981
 9530SOL     OW30486   1.037  12.821  12.164
 9530SOL    HW130487   1.089  12.748  12.197
 9530SOL    HW230488   1.102  12.889  12.143
 9531SOL     OW30489   2.379  10.290   8.404
 9531SOL    HW130490   2.350  10.380   8.388
 9531SOL    HW230491   2.449  10.276   8.341
 9532SOL     OW30492   4.104   7.894   0.052
 9532SOL    HW130493   4.159   7.962   0.014
 9532SOL    HW230494   4.069   7.847  14.854
 9533SOL     OW30495  12.055   9.519   9.892
 9533SOL    HW130496  12.055   9.601   9.842
 9533SOL    HW230497  11.989   9.465   9.849
 9534SOL     OW30498   0.294  14.230   8.897
 9534SOL    HW130499   0.264  14.177   8.823
 9534SOL    HW230500   0.266  14.319   8.876
 9535SOL     OW30501  11.397   3.810   1.142
 9535SOL    HW130502  11.372   3.718   1.131
 9535SOL    HW230503  11.446   3.812   1.224
 9536SOL     OW30504  10.984   6.242  14.851
 9536SOL    HW130505  10.924   6.257  14.777
 9536SOL    HW230506  10.934   6.187   0.034
 9537SOL     OW30507  13.025   2.379   1.007
 9537SOL    HW130508  13.009   2.470   0.983
 9537SOL    HW230509  12.942   2.335   0.992
 9538SOL     OW30510   3.181   1.183  14.260
 9538SOL    HW130511   3.175   1.171  14.355
 9538SOL    HW230512   3.092   1.167  14.229
 9539SOL     OW30513   1.602   4.305   9.011
 9539SOL    HW130514   1.684   4.354   9.008
 9539SOL    HW230515   1.534   4.371   8.995
 9540SOL     OW30516   0.063   3.892   9.143
 9540SOL    HW130517   0.145   3.892   9.093
 9540SOL    HW230518   0.082   3.946   9.220
 9541SOL     OW30519   7.254   7.798   4.790
 9541SOL    HW130520   7.276   7.710   4.821
 9541SOL    HW230521   7.316   7.816   4.720
 9542SOL     OW30522  10.196  14.105   7.455
 9542SOL    HW130523  10.281  14.149   7.453
 9542SOL    HW230524  10.144  14.150   7.388
 9543SOL     OW30525   2.126   4.816   0.918
 9543SOL    HW130526   2.159   4.810   0.828
 9543SOL    HW230527   2.169   4.892   0.955
 9544SOL     OW30528  10.454   0.184  11.541
 9544SOL    HW130529  10.519   0.115  11.549
 9544SOL    HW230530  10.499   0.263  11.573
 9545SOL     OW30531   3.073  14.783   7.662
 9545SOL    HW130532   3.107  14.698   7.689
 9545SOL    HW230533   3.015  14.809   7.733
 9546SOL     OW30534   0.510  12.910   2.664
 9546SOL    HW130535   0.417  12.894   2.647
 9546SOL    HW230536   0.550  12.916   2.577
 9547SOL     OW30537   7.326   9.936  13.404
 9547SOL    HW130538   7.340   9.842  13.398
 9547SOL    HW230539   7.376   9.963  13.481
 9548SOL     OW30540   8.516   1.067   5.762
 9548SOL    HW130541   8.460   1.145   5.763
 9548SOL    HW230542   8.601   1.099   5.733
 9549SOL     OW30543  11.326   7.811  14.700
 9549SOL    HW130544  11.292   7.762  14.626
 9549SOL    HW230545  11.271   7.888  14.705
 9550SOL     OW30546   4.289   8.857   6.522
 9550SOL    HW130547   4.321   8.860   6.612
 9550SOL    HW230548   4.299   8.766   6.495
 9551SOL     OW30549   4.735   7.608   4.566
 9551SOL    HW130550   4.716   7.685   4.619
 9551SOL    HW230551   4.824   7.584   4.589
 9552SOL     OW30552  10.908   2.992   7.863
 9552SOL    HW130553  10.882   2.900   7.854
 9552SOL    HW230554  10.875   3.017   7.949
 9553SOL     OW30555   3.622   6.333   1.175
 9553SOL    HW130556   3.650   6.242   1.186
 9553SOL    HW230557   3.658   6.378   1.252
 9554SOL     OW30558   9.662  11.816   0.823
 9554SOL    HW130559   9.654  11.796   0.730
 9554SOL    HW230560   9.697  11.906   0.825
 9555SOL     OW30561   5.299   8.699   7.823
 9555SOL    HW130562   5.286   8.617   7.871
 9555SOL    HW230563   5.295   8.674   7.731
 9556SOL     OW30564  14.461   2.083   5.707
 9556SOL    HW130565  14.486   2.172   5.685
 9556SOL    HW230566  14.506   2.065   5.789
 9557SOL     OW30567   5.960   0.494  14.089
 9557SOL    HW130568   5.983   0.429  14.154
 9557SOL    HW230569   5.976   0.451  14.005
 9558SOL     OW30570   8.315   7.803  14.548
 9558SOL    HW130571   8.253   7.836  14.482
 9558SOL    HW230572   8.391   7.861  14.541
 9559SOL     OW30573   6.184   2.254   3.263
 9559SOL    HW130574   6.241   2.178   3.276
 9559SOL    HW230575   6.105   2.233   3.314
 9560SOL     OW30576  14.338   1.341   1.118
 9560SOL    HW130577  14.391   1.311   1.192
 9560SOL    HW230578  14.401   1.375   1.056
 9561SOL     OW30579   8.947  13.475  14.781
 9561SOL    HW130580   9.007  13.419  14.733
 9561SOL    HW230581   8.956  13.447  14.872
 9562SOL     OW30582   5.882   9.121   7.961
 9562SOL    HW130583   5.972   9.151   7.978
 9562SOL    HW230584   5.868   9.050   8.024
 9563SOL     OW30585  12.416   4.344  13.075
 9563SOL    HW130586  12.337   4.319  13.028
 9563SOL    HW230587  12.396   4.324  13.167
 9564SOL     OW30588   5.471  12.946  13.896
 9564SOL    HW130589   5.420  13.026  13.915
 9564SOL    HW230590   5.405  12.877  13.889
 9565SOL     OW30591   8.315   6.591   5.630
 9565SOL    HW130592   8.365   6.576   5.550
 9565SOL    HW230593   8.231   6.624   5.600
 9566SOL     OW30594  12.559  14.765   5.990
 9566SOL    HW130595  12.539  14.734   6.078
 9566SOL    HW230596  12.484  14.735   5.937
 9567SOL     OW30597   6.747  12.121   8.275
 9567SOL    HW130598   6.672  12.139   8.332
 9567SOL    HW230599   6.745  12.191   8.210
 9568SOL     OW30600  10.362   6.063  12.097
 9568SOL    HW130601  10.304   6.007  12.149
 9568SOL    HW230602  10.322   6.150  12.102
 9569SOL     OW30603   4.147   6.962   6.876
 9569SOL    HW130604   4.112   6.886   6.922
 9569SOL    HW230605   4.190   7.014   6.944
 9570SOL     OW30606   1.523  11.359  12.174
 9570SOL    HW130607   1.463  11.394  12.241
 9570SOL    HW230608   1.601  11.333  12.223
 9571SOL     OW30609  10.385  11.828   6.522
 9571SOL    HW130610  10.374  11.881   6.443
 9571SOL    HW230611  10.313  11.855   6.579
 9572SOL     OW30612  10.017  13.997   3.237
 9572SOL    HW130613   9.962  13.940   3.291
 9572SOL    HW230614  10.079  13.938   3.195
 9573SOL     OW30615   6.928   4.203   8.286
 9573SOL    HW130616   6.963   4.265   8.349
 9573SOL    HW230617   6.836   4.228   8.276
 9574SOL     OW30618   9.000  12.865   2.564
 9574SOL    HW130619   9.058  12.790   2.573
 9574SOL    HW230620   8.928  12.847   2.625
 9575SOL     OW30621   0.437  11.365   6.943
 9575SOL    HW130622   0.384  11.317   7.007
 9575SOL    HW230623   0.454  11.449   6.984
 9576SOL     OW30624  11.409   3.955   0.427
 9576SOL    HW130625  11.340   3.892   0.448
 9576SOL    HW230626  11.447   3.923   0.345
 9577SOL     OW30627   3.033  11.405   8.200
 9577SOL    HW130628   3.056  11.439   8.287
 9577SOL    HW230629   3.033  11.482   8.143
 9578SOL     OW30630  12.225  13.754  12.289
 9578SOL    HW130631  12.289  13.821  12.310
 9578SOL    HW230632  12.213  13.705  12.370
 9579SOL     OW30633   2.441  10.457  10.580
 9579SOL    HW130634   2.458  10.407  10.659
 9579SOL    HW230635   2.501  10.531  10.585
 9580SOL     OW30636   0.027   3.730   7.064
 9580SOL    HW130637  14.870   3.808   7.022
 9580SOL    HW230638  14.828   3.676   7.082
 9581SOL     OW30639   7.641   2.677  13.019
 9581SOL    HW130640   7.611   2.746  13.079
 9581SOL    HW230641   7.667   2.724  12.940
 9582SOL     OW30642   8.656   9.696   7.257
 9582SOL    HW130643   8.590   9.750   7.215
 9582SOL    HW230644   8.631   9.695   7.350
 9583SOL     OW30645  14.057   7.663   0.860
 9583SOL    HW130646  13.993   7.686   0.794
 9583SOL    HW230647  14.093   7.579   0.831
 9584SOL     OW30648  14.539  10.429   2.129
 9584SOL    HW130649  14.476  10.502   2.127
 9584SOL    HW230650  14.541  10.402   2.220
 9585SOL     OW30651   0.072  11.957   6.545
 9585SOL    HW130652  14.877  11.916   6.498
 9585SOL    HW230653   0.088  12.039   6.499
 9586SOL     OW30654   8.240   7.910   4.805
 9586SOL    HW130655   8.291   7.912   4.886
 9586SOL    HW230656   8.165   7.854   4.825
 9587SOL     OW30657   0.571   2.225   4.061
 9587SOL    HW130658   0.657   2.196   4.032
 9587SOL    HW230659   0.540   2.283   3.991
 9588SOL     OW30660   6.741   8.991   6.350
 9588SOL    HW130661   6.790   9.036   6.281
 9588SOL    HW230662   6.755   9.045   6.428
 9589SOL     OW30663   7.134  11.042   2.253
 9589SOL    HW130664   7.193  11.076   2.320
 9589SOL    HW230665   7.138  11.107   2.182
 9590SOL     OW30666   5.356  12.741   7.910
 9590SOL    HW130667   5.388  12.828   7.933
 9590SOL    HW230668   5.261  12.747   7.919
 9591SOL     OW30669   9.212   7.696   2.562
 9591SOL    HW130670   9.216   7.686   2.657
 9591SOL    HW230671   9.212   7.606   2.529
 9592SOL     OW30672   2.636   8.410  10.940
 9592SOL    HW130673   2.570   8.466  10.899
 9592SOL    HW230674   2.671   8.461  11.012
 9593SOL     OW30675   2.376  14.053   8.453
 9593SOL    HW130676   2.286  14.038   8.483
 9593SOL    HW230677   2.428  14.056   8.534
 9594SOL     OW30678  11.505   3.688   9.679
 9594SOL    HW130679  11.462   3.745   9.615
 9594SOL    HW230680  11.509   3.741   9.759
 9595SOL     OW30681   1.192   9.579   6.517
 9595SOL    HW130682   1.135   9.654   6.531
 9595SOL    HW230683   1.218   9.585   6.425
 9596SOL     OW30684   4.665   6.387   3.520
 9596SOL    HW130685   4.712   6.469   3.532
 9596SOL    HW230686   4.711   6.343   3.448
 9597SOL     OW30687   9.062  11.594   7.169
 9597SOL    HW130688   9.151  11.619   7.146
 9597SOL    HW230689   9.012  11.676   7.161
 9598SOL     OW30690  14.254   6.455   8.631
 9598SOL    HW130691  14.257   6.377   8.686
 9598SOL    HW230692  14.227   6.423   8.545
 9599SOL     OW30693   8.685   5.622  10.127
 9599SOL    HW130694   8.607   5.568  10.137
 9599SOL    HW230695   8.703   5.622  10.033
 9600SOL     OW30696   0.249   9.500  11.243
 9600SOL    HW130697   0.327   9.476  11.294
 9600SOL    HW230698   0.195   9.548  11.305
 9601SOL     OW30699   1.726   4.299   6.333
 9601SOL    HW130700   1.793   4.246   6.376
 9601SOL    HW230701   1.666   4.323   6.404
 9602SOL     OW30702   9.355   4.121   5.651
 9602SOL    HW130703   9.294   4.054   5.619
 9602SOL    HW230704   9.441   4.080   5.642
 9603SOL     OW30705   2.778   8.353   1.425
 9603SOL    HW130706   2.840   8.401   1.480
 9603SOL    HW230707   2.800   8.379   1.336
 9604SOL     OW30708   8.723   0.368   2.810
 9604SOL    HW130709   8.773   0.363   2.891
 9604SOL    HW230710   8.639   0.328   2.831
 9605SOL     OW30711  11.209   3.954  11.967
 9605SOL    HW130712  11.179   3.891  11.901
 9605SOL    HW230713  11.227   3.900  12.044
 9606SOL     OW30714   3.069   1.268  12.017
 9606SOL    HW130715   3.112   1.211  12.081
 9606SOL    HW230716   3.015   1.326  12.071
 9607SOL     OW30717   7.597   8.247   0.148
 9607SOL    HW130718   7.547   8.203   0.218
 9607SOL    HW230719   7.548   8.228   0.068
 9608SOL     OW30720   0.949  12.969   5.812
 9608SOL    HW130721   0.995  13.014   5.741
 9608SOL    HW230722   1.010  12.973   5.886
 9609SOL     OW30723  13.837   6.095   9.551
 9609SOL    HW130724  13.779   6.126   9.482
 9609SOL    HW230725  13.924   6.125   9.526
 9610SOL     OW30726   5.394   0.859   0.108
 9610SOL    HW130727   5.411   0.909   0.188
 9610SOL    HW230728   5.479   0.853   0.064
 9611SOL     OW30729   2.184   1.671  13.271
 9611SOL    HW130730   2.126   1.698  13.200
 9611SOL    HW230731   2.272   1.671  13.232
 9612SOL     OW30732   9.253   8.456  10.684
 9612SOL    HW130733   9.303   8.421  10.611
 9612SOL    HW230734   9.310   8.523  10.723
 9613SOL     OW30735  13.762   7.978  12.010
 9613SOL    HW130736  13.773   7.953  12.102
 9613SOL    HW230737  13.687   7.927  11.980
 9614SOL     OW30738  10.566   8.122   0.272
 9614SOL    HW130739  10.639   8.072   0.236
 9614SOL    HW230740  10.490   8.094   0.222
 9615SOL     OW30741   3.063   0.500   1.103
 9615SOL    HW130742   3.073   0.416   1.146
 9615SOL    HW230743   3.150   0.541   1.111
 9616SOL     OW30744   2.092  12.212   6.450
 9616SOL    HW130745   2.139  12.138   6.412
 9616SOL    HW230746   2.015  12.173   6.491
 9617SOL     OW30747   6.927   3.993   8.589
 9617SOL    HW130748   6.928   4.010   8.495
 9617SOL    HW230749   6.926   4.080   8.629
 9618SOL     OW30750  14.147   6.121   5.352
 9618SOL    HW130751  14.098   6.111   5.270
 9618SOL    HW230752  14.208   6.192   5.336
 9619SOL     OW30753  12.561  12.368   3.125
 9619SOL    HW130754  12.582  12.412   3.042
 9619SOL    HW230755  12.563  12.275   3.104
 9620SOL     OW30756  10.511   6.043   7.707
 9620SOL    HW130757  10.561   5.963   7.727
 9620SOL    HW230758  10.505   6.089   7.790
 9621SOL     OW30759   4.866   9.467   4.979
 9621SOL    HW130760   4.810   9.523   4.924
 9621SOL    HW230761   4.831   9.478   5.067
 9622SOL     OW30762   4.720  12.136  11.354
 9622SOL    HW130763   4.785  12.192  11.311
 9622SOL    HW230764   4.697  12.183  11.434
 9623SOL     OW30765  12.608  10.340   7.067
 9623SOL    HW130766  12.702  10.347   7.081
 9623SOL    HW230767  12.582  10.260   7.113
 9624SOL     OW30768  14.335   1.567   3.053
 9624SOL    HW130769  14.271   1.637   3.066
 9624SOL    HW230770  14.375   1.587   2.969
 9625SOL     OW30771  10.867   8.764   5.495
 9625SOL    HW130772  10.809   8.832   5.528
 9625SOL    HW230773  10.952   8.784   5.535
 9626SOL     OW30774   5.743   7.415  12.737
 9626SOL    HW130775   5.813   7.480  12.744
 9626SOL    HW230776   5.788   7.332  12.722
 9627SOL     OW30777   4.042  11.136   9.923
 9627SOL    HW130778   3.999  11.080   9.859
 9627SOL    HW230779   3.972  11.194   9.955
 9628SOL     OW30780   2.459   9.239   1.402
 9628SOL    HW130781   2.396   9.175   1.434
 9628SOL    HW230782   2.541   9.189   1.395
 9629SOL     OW30783   5.900   2.074   5.947
 9629SOL    HW130784   5.917   1.982   5.969
 9629SOL    HW230785   5.960   2.093   5.876
 9630SOL     OW30786   8.645  11.782  10.773
 9630SOL    HW130787   8.629  11.721  10.701
 9630SOL    HW230788   8.705  11.847  10.736
 9631SOL     OW30789   1.058  10.055   6.582
 9631SOL    HW130790   1.146  10.050   6.545
 9631SOL    HW230791   1.019  10.133   6.543
 9632SOL     OW30792   4.846   5.461   8.612
 9632SOL    HW130793   4.788   5.524   8.570
 9632SOL    HW230794   4.872   5.402   8.542
 9633SOL     OW30795   1.425   2.494   1.127
 9633SOL    HW130796   1.478   2.549   1.069
 9633SOL    HW230797   1.373   2.440   1.068
 9634SOL     OW30798  10.809  14.513  12.715
 9634SOL    HW130799  10.714  14.521  12.727
 9634SOL    HW230800  10.833  14.590  12.663
 9635SOL     OW30801   9.943   7.459  12.981
 9635SOL    HW130802  10.024   7.408  12.971
 9635SOL    HW230803   9.956   7.535  12.923
 9636SOL     OW30804   4.913  11.637   7.862
 9636SOL    HW130805   4.957  11.628   7.777
 9636SOL    HW230806   4.920  11.730   7.883
 9637SOL     OW30807  12.441  10.778   3.362
 9637SOL    HW130808  12.418  10.737   3.279
 9637SOL    HW230809  12.377  10.849   3.373
 9638SOL     OW30810   0.655   9.240   3.793
 9638SOL    HW130811   0.658   9.299   3.718
 9638SOL    HW230812   0.564   9.245   3.823
 9639SOL     OW30813   8.932   6.630  14.733
 9639SOL    HW130814   8.902   6.540  14.737
 9639SOL    HW230815   9.004   6.628  14.670
 9640SOL     OW30816   0.872  10.963   5.346
 9640SOL    HW130817   0.794  10.981   5.293
 9640SOL    HW230818   0.857  10.875   5.381
 9641SOL     OW30819   0.877   7.253  10.586
 9641SOL    HW130820   0.841   7.225  10.501
 9641SOL    HW230821   0.855   7.182  10.646
 9642SOL     OW30822   4.331  12.442   3.400
 9642SOL    HW130823   4.300  12.490   3.476
 9642SOL    HW230824   4.333  12.351   3.427
 9643SOL     OW30825   4.481   3.124   7.237
 9643SOL    HW130826   4.502   3.190   7.171
 9643SOL    HW230827   4.512   3.162   7.319
 9644SOL     OW30828  13.021   7.927   7.478
 9644SOL    HW130829  13.110   7.926   7.515
 9644SOL    HW230830  13.030   7.886   7.392
 9645SOL     OW30831   8.948  11.802   2.310
 9645SOL    HW130832   9.001  11.742   2.363
 9645SOL    HW230833   8.865  11.756   2.297
 9646SOL     OW30834  12.319   6.810   7.038
 9646SOL    HW130835  12.351   6.899   7.020
 9646SOL    HW230836  12.399   6.757   7.043
 9647SOL     OW30837  10.101   7.434   1.065
 9647SOL    HW130838  10.031   7.421   1.128
 9647SOL    HW230839  10.080   7.373   0.994
 9648SOL     OW30840   1.446   6.477   8.804
 9648SOL    HW130841   1.521   6.530   8.779
 9648SOL    HW230842   1.478   6.420   8.873
 9649SOL     OW30843  10.630  14.140   9.910
 9649SOL    HW130844  10.673  14.056   9.928
 9649SOL    HW230845  10.592  14.129   9.823
 9650SOL     OW30846   9.997   0.529  11.247
 9650SOL    HW130847  10.008   0.434  11.254
 9650SOL    HW230848   9.961   0.555  11.333
 9651SOL     OW30849   3.762   2.850   7.958
 9651SOL    HW130850   3.857   2.836   7.966
 9651SOL    HW230851   3.742   2.832   7.867
 9652SOL     OW30852   3.155   4.796   8.709
 9652SOL    HW130853   3.118   4.723   8.758
 9652SOL    HW230854   3.115   4.874   8.748
 9653SOL     OW30855   8.249  13.339   6.940
 9653SOL    HW130856   8.326  13.289   6.914
 9653SOL    HW230857   8.182  13.272   6.956
 9654SOL     OW30858  11.663   6.697   4.340
 9654SOL    HW130859  11.665   6.627   4.274
 9654SOL    HW230860  11.733   6.756   4.315
 9655SOL     OW30861  13.199  10.775   6.588
 9655SOL    HW130862  13.127  10.775   6.526
 9655SOL    HW230863  13.239  10.862   6.580
 9656SOL     OW30864   9.904  14.492   6.593
 9656SOL    HW130865   9.888  14.558   6.660
 9656SOL    HW230866   9.985  14.521   6.551
 9657SOL     OW30867  10.725   6.163  11.397
 9657SOL    HW130868  10.788   6.235  11.404
 9657SOL    HW230869  10.698   6.146  11.488
 9658SOL     OW30870   5.713  11.612   0.782
 9658SOL    HW130871   5.736  11.697   0.820
 9658SOL    HW230872   5.630  11.628   0.736
 9659SOL     OW30873  10.508   5.249  13.793
 9659SOL    HW130874  10.505   5.172  13.851
 9659SOL    HW230875  10.497   5.213  13.705
 9660SOL     OW30876   6.516   3.160  10.367
 9660SOL    HW130877   6.540   3.068  10.380
 9660SOL    HW230878   6.442   3.174  10.426
 9661SOL     OW30879  14.756  12.341   6.723
 9661SOL    HW130880  14.847  12.319   6.745
 9661SOL    HW230881  14.732  12.278   6.655
 9662SOL     OW30882   0.551   4.504   0.454
 9662SOL    HW130883   0.642   4.535   0.450
 9662SOL    HW230884   0.559   4.410   0.465
 9663SOL     OW30885   2.859   1.374  12.963
 9663SOL    HW130886   2.936   1.355  12.909
 9663SOL    HW230887   2.846   1.294  13.015
 9664SOL     OW30888   9.024  10.752   5.903
 9664SOL    HW130889   9.043  10.843   5.923
 9664SOL    HW230890   8.989  10.754   5.814
 9665SOL     OW30891   0.703  11.172   7.897
 9665SOL    HW130892   0.637  11.227   7.855
 9665SOL    HW230893   0.785  11.195   7.854
 9666SOL     OW30894  13.918   8.664   6.748
 9666SOL    HW130895  14.007   8.645   6.778
 9666SOL    HW230896  13.927   8.682   6.655
 9667SOL     OW30897  14.182   3.499  13.539
 9667SOL    HW130898  14.184   3.484  13.634
 9667SOL    HW230899  14.272   3.481  13.511
 9668SOL     OW30900  13.677  10.003   8.965
 9668SOL    HW130901  13.749   9.972   8.911
 9668SOL    HW230902  13.717  10.028   9.048
 9669SOL     OW30903   5.798   3.226  11.875
 9669SOL    HW130904   5.869   3.162  11.879
 9669SOL    HW230905   5.809   3.268  11.789
 9670SOL     OW30906   0.717  12.113   1.519
 9670SOL    HW130907   0.771  12.175   1.569
 9670SOL    HW230908   0.772  12.087   1.445
 9671SOL     OW30909   9.186  10.899   7.812
 9671SOL    HW130910   9.175  10.804   7.822
 9671SOL    HW230911   9.115  10.937   7.864
 9672SOL     OW30912  11.691   8.133   8.093
 9672SOL    HW130913  11.752   8.207   8.091
 9672SOL    HW230914  11.662   8.122   8.003
 9673SOL     OW30915  14.323   5.945   8.285
 9673SOL    HW130916  14.278   5.937   8.369
 9673SOL    HW230917  14.258   5.920   8.220
 9674SOL     OW30918   2.913   7.360   8.232
 9674SOL    HW130919   2.878   7.449   8.224
 9674SOL    HW230920   2.854   7.306   8.179
 9675SOL     OW30921   9.274   5.563   0.244
 9675SOL    HW130922   9.188   5.557   0.287
 9675SOL    HW230923   9.295   5.473   0.220
 9676SOL     OW30924   4.617   6.141   3.599
 9676SOL    HW130925   4.612   6.235   3.583
 9676SOL    HW230926   4.549   6.103   3.544
 9677SOL     OW30927  13.736   1.738  11.588
 9677SOL    HW130928  13.771   1.800  11.652
 9677SOL    HW230929  13.812   1.686  11.562
 9678SOL     OW30930   5.528   6.360  12.819
 9678SOL    HW130931   5.522   6.270  12.787
 9678SOL    HW230932   5.602   6.360  12.880
 9679SOL     OW30933  12.439   9.006   4.274
 9679SOL    HW130934  12.429   8.936   4.209
 9679SOL    HW230935  12.382   8.981   4.346
 9680SOL     OW30936  14.722  12.398   9.492
 9680SOL    HW130937  14.707  12.354   9.408
 9680SOL    HW230938  14.786  12.467   9.472
 9681SOL     OW30939   4.148   6.986  10.311
 9681SOL    HW130940   4.062   6.947  10.296
 9681SOL    HW230941   4.179   6.942  10.391
 9682SOL     OW30942   7.405   9.584   9.480
 9682SOL    HW130943   7.399   9.606   9.573
 9682SOL    HW230944   7.328   9.531   9.462
 9683SOL     OW30945   2.140   1.399   9.626
 9683SOL    HW130946   2.174   1.442   9.547
 9683SOL    HW230947   2.105   1.316   9.595
 9684SOL     OW30948   1.777   0.920  10.518
 9684SOL    HW130949   1.689   0.922  10.557
 9684SOL    HW230950   1.804   1.012  10.519
 9685SOL     OW30951  12.961   9.681  12.933
 9685SOL    HW130952  12.944   9.628  12.856
 9685SOL    HW230953  12.875   9.704  12.967
 9686SOL     OW30954   4.528   0.875  12.541
 9686SOL    HW130955   4.564   0.797  12.499
 9686SOL    HW230956   4.548   0.946  12.479
 9687SOL     OW30957  13.084   1.499   9.924
 9687SOL    HW130958  13.150   1.472   9.860
 9687SOL    HW230959  13.023   1.553   9.874
 9688SOL     OW30960   9.698   7.600   1.267
 9688SOL    HW130961   9.705   7.505   1.259
 9688SOL    HW230962   9.777   7.633   1.223
 9689SOL     OW30963   7.211   7.801   5.180
 9689SOL    HW130964   7.283   7.862   5.167
 9689SOL    HW230965   7.152   7.847   5.240
 9690SOL     OW30966   2.447  14.236   0.254
 9690SOL    HW130967   2.360  14.196   0.259
 9690SOL    HW230968   2.506  14.171   0.291
 9691SOL     OW30969  14.871  14.588   1.849
 9691SOL    HW130970  14.841  14.600   1.759
 9691SOL    HW230971   0.082  14.625   1.849
 9692SOL     OW30972  11.131   5.122   8.955
 9692SOL    HW130973  11.181   5.203   8.946
 9692SOL    HW230974  11.040   5.151   8.962
 9693SOL     OW30975  14.730  13.005   1.926
 9693SOL    HW130976  14.651  13.056   1.945
 9693SOL    HW230977  14.729  12.934   1.989
 9694SOL     OW30978  13.655  13.927  11.644
 9694SOL    HW130979  13.641  13.865  11.715
 9694SOL    HW230980  13.672  14.010  11.688
 9695SOL     OW30981  12.559   6.615   0.648
 9695SOL    HW130982  12.497   6.660   0.590
 9695SOL    HW230983  12.588   6.683   0.709
 9696SOL     OW30984  13.516   2.415   2.830
 9696SOL    HW130985  13.575   2.444   2.900
 9696SOL    HW230986  13.526   2.480   2.761
 9697SOL     OW30987   7.536  12.247   2.073
 9697SOL    HW130988   7.462  12.291   2.114
 9697SOL    HW230989   7.576  12.313   2.017
 9698SOL     OW30990  12.388   5.292   4.141
 9698SOL    HW130991  12.296   5.273   4.161
 9698SOL    HW230992  12.429   5.302   4.227
 9699SOL     OW30993  13.800   7.989   4.635
 9699SOL    HW130994  13.732   7.998   4.702
 9699SOL    HW230995  13.809   8.077   4.599
 9700SOL     OW30996   0.031   4.174   4.976
 9700SOL    HW130997   0.057   4.110   4.909
 9700SOL    HW230998   0.109   4.183   5.031
 9701SOL     OW30999   5.672   1.051   4.549
 9701SOL    HW131000   5.645   1.068   4.639
 9701SOL    HW231001   5.625   0.971   4.524
 9702SOL     OW31002  13.845   0.345  12.752
 9702SOL    HW131003  13.824   0.362  12.660
 9702SOL    HW231004  13.853   0.250  12.759
 9703SOL     OW31005  14.783   2.656  14.094
 9703SOL    HW131006  14.866   2.702  14.086
 9703SOL    HW231007  14.747   2.656  14.005
 9704SOL     OW31008   6.214   6.000   4.247
 9704SOL    HW131009   6.283   5.998   4.182
 9704SOL    HW231010   6.189   5.908   4.258
 9705SOL     OW31011  11.821  10.478  13.072
 9705SOL    HW131012  11.858  10.399  13.033
 9705SOL    HW231013  11.821  10.461  13.166
 9706SOL     OW31014   6.295   6.776  13.896
 9706SOL    HW131015   6.281   6.706  13.960
 9706SOL    HW231016   6.227   6.761  13.831
 9707SOL     OW31017   0.103   8.060  11.009
 9707SOL    HW131018   0.036   8.109  11.057
 9707SOL    HW231019   0.155   8.128  10.965
 9708SOL     OW31020   3.670  11.682  13.881
 9708SOL    HW131021   3.695  11.736  13.807
 9708SOL    HW231022   3.723  11.714  13.954
 9709SOL     OW31023   1.299  13.889  10.398
 9709SOL    HW131024   1.318  13.937  10.317
 9709SOL    HW231025   1.278  13.801  10.369
 9710SOL     OW31026  11.264   2.215   6.962
 9710SOL    HW131027  11.195   2.186   7.022
 9710SOL    HW231028  11.311   2.283   7.010
 9711SOL     OW31029   8.252   9.755   7.452
 9711SOL    HW131030   8.298   9.743   7.369
 9711SOL    HW231031   8.276   9.678   7.504
 9712SOL     OW31032  11.596  10.646   1.039
 9712SOL    HW131033  11.557  10.620   0.956
 9712SOL    HW231034  11.579  10.573   1.098
 9713SOL     OW31035  13.690   4.604   8.035
 9713SOL    HW131036  13.641   4.533   7.993
 9713SOL    HW231037  13.654   4.610   8.123
 9714SOL     OW31038   8.954  14.801  12.288
 9714SOL    HW131039   9.000   0.006  12.276
 9714SOL    HW231040   8.937  14.769  12.200
 9715SOL     OW31041   4.540   9.070   1.310
 9715SOL    HW131042   4.623   9.048   1.269
 9715SOL    HW231043   4.562   9.133   1.378
 9716SOL     OW31044   1.837   8.624   1.426
 9716SOL    HW131045   1.758   8.592   1.384
 9716SOL    HW231046   1.866   8.552   1.482
 9717SOL     OW31047   4.565   0.616   4.477
 9717SOL    HW131048   4.620   0.537   4.480
 9717SOL    HW231049   4.504   0.600   4.404
 9718SOL     OW31050   5.421  12.350   4.722
 9718SOL    HW131051   5.340  12.390   4.755
 9718SOL    HW231052   5.447  12.290   4.792
 9719SOL     OW31053  11.645   1.564   3.560
 9719SOL    HW131054  11.648   1.654   3.592
 9719SOL    HW231055  11.732   1.550   3.522
 9720SOL     OW31056  12.455   6.473  12.235
 9720SOL    HW131057  12.425   6.382  12.243
 9720SOL    HW231058  12.450   6.492  12.142
 9721SOL     OW31059   6.893   6.662  12.281
 9721SOL    HW131060   6.950   6.617  12.344
 9721SOL    HW231061   6.847   6.591  12.236
 9722SOL     OW31062   9.187  14.009   1.429
 9722SOL    HW131063   9.146  14.095   1.438
 9722SOL    HW231064   9.132  13.962   1.366
 9723SOL     OW31065   2.821  13.367  12.707
 9723SOL    HW131066   2.790  13.455  12.688
 9723SOL    HW231067   2.912  13.366  12.679
 9724SOL     OW31068   7.464   0.702   9.303
 9724SOL    HW131069   7.380   0.715   9.346
 9724SOL    HW231070   7.493   0.616   9.332
 9725SOL     OW31071   9.986  14.740  13.603
 9725SOL    HW131072   9.903  14.696  13.622
 9725SOL    HW231073  10.049  14.669  13.593
 9726SOL     OW31074   3.418  10.191   4.032
 9726SOL    HW131075   3.404  10.163   4.122
 9726SOL    HW231076   3.502  10.154   4.007
 9727SOL     OW31077   0.650  11.367  12.373
 9727SOL    HW131078   0.647  11.433  12.441
 9727SOL    HW231079   0.602  11.292  12.410
 9728SOL     OW31080   2.072   8.547  10.722
 9728SOL    HW131081   2.081   8.602  10.799
 9728SOL    HW231082   2.160   8.543  10.685
 9729SOL     OW31083   0.269  14.285   7.062
 9729SOL    HW131084   0.218  14.207   7.085
 9729SOL    HW231085   0.231  14.355   7.114
 9730SOL     OW31086   8.586   4.207   8.827
 9730SOL    HW131087   8.585   4.230   8.734
 9730SOL    HW231088   8.624   4.119   8.829
 9731SOL     OW31089   8.959  12.057  11.562
 9731SOL    HW131090   8.866  12.068  11.543
 9731SOL    HW231091   9.003  12.083  11.481
 9732SOL     OW31092  13.854   8.140  14.774
 9732SOL    HW131093  13.781   8.130  14.712
 9732SOL    HW231094  13.931   8.148  14.718
 9733SOL     OW31095   9.264   8.872  12.170
 9733SOL    HW131096   9.204   8.803  12.199
 9733SOL    HW231097   9.336   8.870  12.233
 9734SOL     OW31098   9.110   4.341  12.293
 9734SOL    HW131099   9.147   4.384  12.216
 9734SOL    HW231100   9.094   4.251  12.265
 9735SOL     OW31101  10.021   2.734   3.639
 9735SOL    HW131102   9.980   2.813   3.676
 9735SOL    HW231103  10.075   2.767   3.567
 9736SOL     OW31104  13.075   4.513  14.278
 9736SOL    HW131105  13.113   4.448  14.219
 9736SOL    HW231106  13.113   4.596  14.251
 9737SOL     OW31107   9.024   8.762   9.759
 9737SOL    HW131108   9.119   8.758   9.760
 9737SOL    HW231109   9.002   8.788   9.669
 9738SOL     OW31110   5.929  11.313   8.891
 9738SOL    HW131111   5.983  11.268   8.956
 9738SOL    HW231112   5.929  11.255   8.815
 9739SOL     OW31113  10.191  14.255   7.820
 9739SOL    HW131114  10.111  14.213   7.789
 9739SOL    HW231115  10.161  14.319   7.885
 9740SOL     OW31116   4.415   8.968   2.452
 9740SOL    HW131117   4.347   8.974   2.519
 9740SOL    HW231118   4.397   8.885   2.408
 9741SOL     OW31119   2.738   1.507   5.694
 9741SOL    HW131120   2.754   1.567   5.621
 9741SOL    HW231121   2.756   1.420   5.659
 9742SOL     OW31122   5.341  12.020   2.099
 9742SOL    HW131123   5.341  11.987   2.009
 9742SOL    HW231124   5.418  11.980   2.139
 9743SOL     OW31125   1.810   2.694   8.110
 9743SOL    HW131126   1.890   2.720   8.064
 9743SOL    HW231127   1.783   2.613   8.068
 9744SOL     OW31128   8.774   7.458  10.370
 9744SOL    HW131129   8.831   7.381  10.381
 9744SOL    HW231130   8.738   7.448  10.282
 9745SOL     OW31131  14.561   7.440   3.358
 9745SOL    HW131132  14.635   7.500   3.343
 9745SOL    HW231133  14.484   7.492   3.336
 9746SOL     OW31134   9.907   7.244   6.047
 9746SOL    HW131135   9.825   7.276   6.085
 9746SOL    HW231136   9.972   7.309   6.075
 9747SOL     OW31137   6.351   6.599  11.253
 9747SOL    HW131138   6.435   6.594  11.207
 9747SOL    HW231139   6.295   6.536  11.209
 9748SOL     OW31140   3.831   8.696   9.955
 9748SOL    HW131141   3.786   8.748  10.022
 9748SOL    HW231142   3.777   8.617   9.946
 9749SOL     OW31143   4.194   5.439   9.326
 9749SOL    HW131144   4.279   5.395   9.330
 9749SOL    HW231145   4.152   5.404   9.248
 9750SOL     OW31146   1.231   2.986   3.732
 9750SOL    HW131147   1.287   3.040   3.675
 9750SOL    HW231148   1.159   3.044   3.757
 9751SOL     OW31149  14.209  11.085   2.191
 9751SOL    HW131150  14.237  11.004   2.233
 9751SOL    HW231151  14.284  11.113   2.139
 9752SOL     OW31152   1.299   1.014   0.756
 9752SOL    HW131153   1.333   0.925   0.751
 9752SOL    HW231154   1.217   1.012   0.708
 9753SOL     OW31155  14.214   2.398   4.124
 9753SOL    HW131156  14.269   2.323   4.100
 9753SOL    HW231157  14.276   2.466   4.149
 9754SOL     OW31158  10.041   1.163  14.457
 9754SOL    HW131159  10.016   1.134  14.544
 9754SOL    HW231160  10.125   1.121  14.441
 9755SOL     OW31161  14.390  11.033  13.687
 9755SOL    HW131162  14.294  11.037  13.692
 9755SOL    HW231163  14.412  10.944  13.715
 9756SOL     OW31164   8.321  12.135   2.227
 9756SOL    HW131165   8.394  12.105   2.172
 9756SOL    HW231166   8.350  12.220   2.261
 9757SOL     OW31167  11.384   0.627  11.496
 9757SOL    HW131168  11.368   0.717  11.467
 9757SOL    HW231169  11.347   0.623  11.584
 9758SOL     OW31170  13.337   3.671   4.955
 9758SOL    HW131171  13.414   3.727   4.969
 9758SOL    HW231172  13.265   3.717   4.998
 9759SOL     OW31173   9.297   1.703  12.652
 9759SOL    HW131174   9.306   1.626  12.708
 9759SOL    HW231175   9.331   1.775  12.706
 9760SOL     OW31176   5.572   2.157  10.107
 9760SOL    HW131177   5.608   2.102  10.037
 9760SOL    HW231178   5.548   2.239  10.063
 9761SOL     OW31179   0.293  14.177   4.895
 9761SOL    HW131180   0.309  14.197   4.987
 9761SOL    HW231181   0.381  14.174   4.856
 9762SOL     OW31182  14.039  14.020   6.817
 9762SOL    HW131183  13.997  13.954   6.873
 9762SOL    HW231184  14.120  13.978   6.788
 9763SOL     OW31185   9.431   9.057  13.162
 9763SOL    HW131186   9.343   9.063  13.200
 9763SOL    HW231187   9.490   9.055  13.238
 9764SOL     OW31188   8.548   4.793  13.920
 9764SOL    HW131189   8.624   4.806  13.976
 9764SOL    HW231190   8.557   4.703  13.888
 9765SOL     OW31191   1.171  12.093   4.829
 9765SOL    HW131192   1.259  12.057   4.822
 9765SOL    HW231193   1.184  12.188   4.829
 9766SOL     OW31194   0.704   1.259   8.171
 9766SOL    HW131195   0.691   1.252   8.266
 9766SOL    HW231196   0.638   1.200   8.134
 9767SOL     OW31197  11.361  14.600   2.843
 9767SOL    HW131198  11.293  14.647   2.892
 9767SOL    HW231199  11.444  14.636   2.875
 9768SOL     OW31200   0.915   4.270  12.008
 9768SOL    HW131201   0.824   4.296  11.999
 9768SOL    HW231202   0.965   4.349  11.989
 9769SOL     OW31203  12.610  11.262   7.461
 9769SOL    HW131204  12.522  11.228   7.474
 9769SOL    HW231205  12.666  11.184   7.461
 9770SOL     OW31206   4.265   7.674   5.997
 9770SOL    HW131207   4.282   7.690   6.090
 9770SOL    HW231208   4.337   7.617   5.969
 9771SOL     OW31209   4.425  12.461   8.078
 9771SOL    HW131210   4.460  12.405   8.009
 9771SOL    HW231211   4.342  12.421   8.102
 9772SOL     OW31212  11.991   6.180   7.601
 9772SOL    HW131213  12.038   6.128   7.665
 9772SOL    HW231214  11.985   6.267   7.640
 9773SOL     OW31215   9.493   3.879  13.534
 9773SOL    HW131216   9.529   3.794  13.509
 9773SOL    HW231217   9.569   3.935  13.547
 9774SOL     OW31218   4.766   6.419   8.479
 9774SOL    HW131219   4.746   6.428   8.572
 9774SOL    HW231220   4.862   6.413   8.475
 9775SOL     OW31221   6.206   5.536   6.056
 9775SOL    HW131222   6.248   5.596   6.117
 9775SOL    HW231223   6.238   5.449   6.082
 9776SOL     OW31224   2.086   9.795   8.706
 9776SOL    HW131225   1.999   9.757   8.700
 9776SOL    HW231226   2.145   9.719   8.710
 9777SOL     OW31227  11.051   7.692   4.217
 9777SOL    HW131228  11.084   7.670   4.129
 9777SOL    HW231229  11.001   7.614   4.243
 9778SOL     OW31230   6.963  12.601   1.239
 9778SOL    HW131231   6.903  12.675   1.230
 9778SOL    HW231232   7.049  12.638   1.220
 9779SOL     OW31233  14.772   2.134  13.348
 9779SOL    HW131234  14.701   2.169  13.294
 9779SOL    HW231235  14.837   2.204  13.350
 9780SOL     OW31236   8.997  11.770  11.676
 9780SOL    HW131237   9.036  11.823  11.607
 9780SOL    HW231238   8.993  11.682  11.638
 9781SOL     OW31239   6.738   4.866   7.818
 9781SOL    HW131240   6.672   4.931   7.843
 9781SOL    HW231241   6.790   4.910   7.750
 9782SOL     OW31242   9.317   0.737   2.700
 9782SOL    HW131243   9.287   0.806   2.641
 9782SOL    HW231244   9.307   0.775   2.787
 9783SOL     OW31245  10.396   5.767  12.872
 9783SOL    HW131246  10.342   5.818  12.933
 9783SOL    HW231247  10.393   5.678  12.907
 9784SOL     OW31248  13.581   5.662   7.999
 9784SOL    HW131249  13.548   5.616   8.076
 9784SOL    HW231250  13.550   5.610   7.925
 9785SOL     OW31251   6.415   8.854  13.232
 9785SOL    HW131252   6.501   8.850  13.189
 9785SOL    HW231253   6.403   8.765  13.266
 9786SOL     OW31254   5.896   3.265   2.513
 9786SOL    HW131255   5.923   3.176   2.489
 9786SOL    HW231256   5.805   3.271   2.486
 9787SOL     OW31257   9.854   7.522   6.784
 9787SOL    HW131258   9.890   7.596   6.832
 9787SOL    HW231259   9.916   7.506   6.713
 9788SOL     OW31260   5.674   7.476   6.445
 9788SOL    HW131261   5.667   7.407   6.511
 9788SOL    HW231262   5.732   7.541   6.486
 9789SOL     OW31263   5.710   7.936   3.264
 9789SOL    HW131264   5.687   7.848   3.293
 9789SOL    HW231265   5.627   7.984   3.264
 9790SOL     OW31266   3.542   3.979   7.977
 9790SOL    HW131267   3.603   4.003   7.906
 9790SOL    HW231268   3.467   4.037   7.965
 9791SOL     OW31269   6.042   1.206  13.462
 9791SOL    HW131270   6.092   1.247  13.391
 9791SOL    HW231271   6.087   1.233  13.542
 9792SOL     OW31272   8.476   8.688   9.740
 9792SOL    HW131273   8.482   8.627   9.813
 9792SOL    HW231274   8.519   8.643   9.667
 9793SOL     OW31275  10.857   0.721   7.836
 9793SOL    HW131276  10.796   0.714   7.909
 9793SOL    HW231277  10.802   0.719   7.758
 9794SOL     OW31278  11.840   9.264   3.741
 9794SOL    HW131279  11.803   9.352   3.748
 9794SOL    HW231280  11.914   9.273   3.681
 9795SOL     OW31281   5.550  11.497   9.552
 9795SOL    HW131282   5.645  11.489   9.545
 9795SOL    HW231283   5.528  11.460   9.637
 9796SOL     OW31284   0.332   9.861  12.441
 9796SOL    HW131285   0.284   9.941  12.421
 9796SOL    HW231286   0.377   9.839  12.360
 9797SOL     OW31287  12.631  14.098  10.513
 9797SOL    HW131288  12.665  14.186  10.523
 9797SOL    HW231289  12.587  14.079  10.596
 9798SOL     OW31290  10.141   1.386   8.179
 9798SOL    HW131291  10.079   1.422   8.116
 9798SOL    HW231292  10.205   1.456   8.194
 9799SOL     OW31293  11.124   3.710   2.959
 9799SOL    HW131294  11.160   3.637   2.909
 9799SOL    HW231295  11.176   3.711   3.040
 9800SOL     OW31296   1.039  11.845  10.774
 9800SOL    HW131297   1.058  11.839  10.681
 9800SOL    HW231298   1.023  11.755  10.802
 9801SOL     OW31299   1.985   9.661   7.822
 9801SOL    HW131300   2.078   9.660   7.800
 9801SOL    HW231301   1.948   9.586   7.776
 9802SOL     OW31302   4.345  11.077   3.195
 9802SOL    HW131303   4.438  11.071   3.172
 9802SOL    HW231304   4.304  11.006   3.145
 9803SOL     OW31305  13.129   8.832  14.255
 9803SOL    HW131306  13.209   8.871  14.221
 9803SOL    HW231307  13.065   8.904  14.252
 9804SOL     OW31308  13.838   6.294  10.659
 9804SOL    HW131309  13.810   6.332  10.742
 9804SOL    HW231310  13.932   6.316  10.654
 9805SOL     OW31311   3.749  12.079   3.826
 9805SOL    HW131312   3.775  12.020   3.755
 9805SOL    HW231313   3.706  12.023   3.890
 9806SOL     OW31314   0.053   2.952   0.244
 9806SOL    HW131315   0.139   2.947   0.286
 9806SOL    HW231316   0.053   3.036   0.199
 9807SOL     OW31317  11.379   1.792   8.456
 9807SOL    HW131318  11.302   1.774   8.508
 9807SOL    HW231319  11.449   1.741   8.498
 9808SOL     OW31320  13.545  12.118   6.734
 9808SOL    HW131321  13.633  12.094   6.706
 9808SOL    HW231322  13.523  12.054   6.802
 9809SOL     OW31323  10.630   5.960  12.499
 9809SOL    HW131324  10.713   5.995  12.532
 9809SOL    HW231325  10.572   6.035  12.492
 9810SOL     OW31326  13.136   5.233  11.822
 9810SOL    HW131327  13.067   5.252  11.886
 9810SOL    HW231328  13.130   5.305  11.758
 9811SOL     OW31329  12.702  11.094   8.867
 9811SOL    HW131330  12.635  11.037   8.904
 9811SOL    HW231331  12.680  11.100   8.774
 9812SOL     OW31332  11.241   3.003   5.393
 9812SOL    HW131333  11.319   3.051   5.364
 9812SOL    HW231334  11.220   2.945   5.320
 9813SOL     OW31335  11.592   6.684  14.699
 9813SOL    HW131336  11.583   6.678  14.604
 9813SOL    HW231337  11.619   6.775  14.715
 9814SOL     OW31338   6.883   0.730   7.634
 9814SOL    HW131339   6.843   0.648   7.664
 9814SOL    HW231340   6.966   0.703   7.596
 9815SOL     OW31341   7.728  13.817  14.251
 9815SOL    HW131342   7.681  13.773  14.181
 9815SOL    HW231343   7.786  13.751  14.288
 9816SOL     OW31344   1.817   7.744   7.863
 9816SOL    HW131345   1.807   7.821   7.808
 9816SOL    HW231346   1.856   7.776   7.944
 9817SOL     OW31347  11.262   5.724   9.938
 9817SOL    HW131348  11.185   5.714   9.995
 9817SOL    HW231349  11.284   5.634   9.912
 9818SOL     OW31350   2.423  14.511   0.107
 9818SOL    HW131351   2.439  14.441   0.170
 9818SOL    HW231352   2.354  14.477   0.050
 9819SOL     OW31353  10.433   6.407   3.931
 9819SOL    HW131354  10.442   6.374   4.020
 9819SOL    HW231355  10.381   6.486   3.939
 9820SOL     OW31356   6.820   1.816   8.490
 9820SOL    HW131357   6.900   1.774   8.523
 9820SOL    HW231358   6.765   1.827   8.567
 9821SOL     OW31359  13.565  12.585  11.781
 9821SOL    HW131360  13.491  12.642  11.757
 9821SOL    HW231361  13.524  12.500  11.800
 9822SOL     OW31362   3.624   4.273   4.251
 9822SOL    HW131363   3.554   4.225   4.208
 9822SOL    HW231364   3.668   4.209   4.307
 9823SOL     OW31365   6.291   4.664   6.115
 9823SOL    HW131366   6.375   4.700   6.086
 9823SOL    HW231367   6.283   4.690   6.206
 9824SOL     OW31368   7.197  10.394   3.282
 9824SOL    HW131369   7.290  10.379   3.299
 9824SOL    HW231370   7.160  10.306   3.272
 9825SOL     OW31371   3.564   9.347   1.923
 9825SOL    HW131372   3.489   9.290   1.939
 9825SOL    HW231373   3.626   9.325   1.992
 9826SOL     OW31374   4.454   8.876   7.246
 9826SOL    HW131375   4.489   8.942   7.306
 9826SOL    HW231376   4.483   8.793   7.282
 9827SOL     OW31377   5.201   9.765   3.483
 9827SOL    HW131378   5.201   9.712   3.404
 9827SOL    HW231379   5.192   9.701   3.554
 9828SOL     OW31380  13.043   3.494  13.761
 9828SOL    HW131381  12.981   3.547  13.811
 9828SOL    HW231382  13.064   3.420  13.818
 9829SOL     OW31383   9.594   5.308  11.629
 9829SOL    HW131384   9.581   5.363  11.551
 9829SOL    HW231385   9.508   5.305  11.670
 9830SOL     OW31386  11.347   7.230   7.429
 9830SOL    HW131387  11.324   7.274   7.347
 9830SOL    HW231388  11.442   7.219   7.425
 9831SOL     OW31389   3.537   3.183   5.859
 9831SOL    HW131390   3.560   3.093   5.836
 9831SOL    HW231391   3.441   3.184   5.857
 9832SOL     OW31392   8.351   7.794   3.179
 9832SOL    HW131393   8.437   7.779   3.220
 9832SOL    HW231394   8.288   7.766   3.245
 9833SOL     OW31395   8.319   1.985   7.552
 9833SOL    HW131396   8.369   1.906   7.534
 9833SOL    HW231397   8.232   1.954   7.578
 9834SOL     OW31398   2.657   3.658   4.760
 9834SOL    HW131399   2.734   3.635   4.707
 9834SOL    HW231400   2.693   3.695   4.840
 9835SOL     OW31401   4.213   2.903  12.058
 9835SOL    HW131402   4.191   2.991  12.030
 9835SOL    HW231403   4.231   2.911  12.152
 9836SOL     OW31404   6.399  12.413   4.946
 9836SOL    HW131405   6.485  12.426   4.987
 9836SOL    HW231406   6.418  12.374   4.861
 9837SOL     OW31407   9.882   0.194   8.793
 9837SOL    HW131408   9.905   0.266   8.734
 9837SOL    HW231409   9.939   0.122   8.766
 9838SOL     OW31410   9.898  13.135   6.636
 9838SOL    HW131411   9.943  13.054   6.612
 9838SOL    HW231412   9.880  13.178   6.552
 9839SOL     OW31413  13.979   2.412   3.530
 9839SOL    HW131414  14.043   2.341   3.534
 9839SOL    HW231415  14.017   2.481   3.583
 9840SOL     OW31416   5.031   7.327   0.763
 9840SOL    HW131417   5.108   7.316   0.706
 9840SOL    HW231418   4.958   7.293   0.711
 9841SOL     OW31419   9.572   8.384   8.180
 9841SOL    HW131420   9.640   8.327   8.216
 9841SOL    HW231421   9.614   8.469   8.170
 9842SOL     OW31422   4.001   1.367  12.907
 9842SOL    HW131423   4.012   1.271  12.907
 9842SOL    HW231424   3.926   1.382  12.965
 9843SOL     OW31425   9.189   8.877   2.806
 9843SOL    HW131426   9.140   8.899   2.727
 9843SOL    HW231427   9.250   8.951   2.818
 9844SOL     OW31428   8.055  11.546  14.629
 9844SOL    HW131429   7.987  11.613  14.622
 9844SOL    HW231430   8.025  11.490  14.701
 9845SOL     OW31431  13.249   3.753   0.642
 9845SOL    HW131432  13.319   3.721   0.698
 9845SOL    HW231433  13.220   3.835   0.683
 9846SOL     OW31434  14.471   7.003  13.467
 9846SOL    HW131435  14.534   6.937  13.498
 9846SOL    HW231436  14.415   6.955  13.406
 9847SOL     OW31437   0.247   1.928   4.595
 9847SOL    HW131438   0.311   1.897   4.658
 9847SOL    HW231439   0.271   1.885   4.513
 9848SOL     OW31440   9.619   5.141   4.558
 9848SOL    HW131441   9.650   5.181   4.639
 9848SOL    HW231442   9.619   5.047   4.576
 9849SOL     OW31443   6.173  11.878   0.766
 9849SOL    HW131444   6.266  11.875   0.790
 9849SOL    HW231445   6.170  11.938   0.691
 9850SOL     OW31446   6.458   8.663   1.914
 9850SOL    HW131447   6.552   8.680   1.917
 9850SOL    HW231448   6.418   8.749   1.923
 9851SOL     OW31449   9.552  12.581  12.913
 9851SOL    HW131450   9.646  12.594  12.897
 9851SOL    HW231451   9.530  12.502  12.864
 9852SOL     OW31452   9.904   9.461   2.432
 9852SOL    HW131453   9.919   9.524   2.362
 9852SOL    HW231454   9.834   9.405   2.399
 9853SOL     OW31455   9.384  13.152  10.342
 9853SOL    HW131456   9.313  13.175  10.402
 9853SOL    HW231457   9.459  13.202  10.373
 9854SOL     OW31458   9.087   3.949   8.083
 9854SOL    HW131459   9.008   3.899   8.061
 9854SOL    HW231460   9.089   4.020   8.019
 9855SOL     OW31461   2.875  10.867  10.754
 9855SOL    HW131462   2.838  10.789  10.794
 9855SOL    HW231463   2.889  10.927  10.827
 9856SOL     OW31464   0.729  14.476   1.823
 9856SOL    HW131465   0.759  14.470   1.913
 9856SOL    HW231466   0.809  14.478   1.771
 9857SOL     OW31467  12.095   2.299   9.737
 9857SOL    HW131468  12.077   2.381   9.782
 9857SOL    HW231469  12.151   2.324   9.663
 9858SOL     OW31470   5.627  10.751   5.968
 9858SOL    HW131471   5.723  10.752   5.965
 9858SOL    HW231472   5.607  10.723   6.058
 9859SOL     OW31473   1.692   1.408   4.686
 9859SOL    HW131474   1.760   1.349   4.654
 9859SOL    HW231475   1.612   1.356   4.685
 9860SOL     OW31476   5.974   5.301  13.241
 9860SOL    HW131477   5.918   5.357  13.295
 9860SOL    HW231478   6.008   5.359  13.173
 9861SOL     OW31479   7.389   3.581   5.625
 9861SOL    HW131480   7.485   3.588   5.628
 9861SOL    HW231481   7.372   3.498   5.582
 9862SOL     OW31482   1.743  11.855  12.998
 9862SOL    HW131483   1.738  11.805  12.916
 9862SOL    HW231484   1.670  11.821  13.050
 9863SOL     OW31485  13.210   5.390   6.418
 9863SOL    HW131486  13.145   5.360   6.482
 9863SOL    HW231487  13.174   5.470   6.382
 9864SOL     OW31488  14.526  10.638   1.107
 9864SOL    HW131489  14.570  10.636   1.192
 9864SOL    HW231490  14.518  10.732   1.087
 9865SOL     OW31491  14.689  10.477   6.137
 9865SOL    HW131492  14.659  10.395   6.177
 9865SOL    HW231493  14.610  10.512   6.094
 9866SOL     OW31494  13.858   1.096  12.690
 9866SOL    HW131495  13.768   1.119  12.711
 9866SOL    HW231496  13.911   1.158  12.741
 9867SOL     OW31497   1.070   3.019   7.364
 9867SOL    HW131498   1.004   2.960   7.397
 9867SOL    HW231499   1.153   2.985   7.398
 9868SOL     OW31500   7.155  13.935   6.413
 9868SOL    HW131501   7.124  13.955   6.501
 9868SOL    HW231502   7.201  14.014   6.385
 9869SOL     OW31503   1.201   6.023   9.181
 9869SOL    HW131504   1.291   6.001   9.205
 9869SOL    HW231505   1.161   6.053   9.262
 9870SOL     OW31506  12.309   1.523   2.108
 9870SOL    HW131507  12.266   1.449   2.150
 9870SOL    HW231508  12.297   1.509   2.014
 9871SOL     OW31509   7.601   7.768   1.209
 9871SOL    HW131510   7.576   7.724   1.128
 9871SOL    HW231511   7.590   7.702   1.277
 9872SOL     OW31512   2.169   3.982  11.235
 9872SOL    HW131513   2.229   3.913  11.206
 9872SOL    HW231514   2.173   3.980  11.331
 9873SOL     OW31515  11.020  10.008  11.851
 9873SOL    HW131516  11.019   9.963  11.767
 9873SOL    HW231517  10.929  10.003  11.882
 9874SOL     OW31518  11.357   5.937   4.344
 9874SOL    HW131519  11.306   5.936   4.425
 9874SOL    HW231520  11.322   6.011   4.295
 9875SOL     OW31521  12.872  11.747   6.310
 9875SOL    HW131522  12.892  11.813   6.244
 9875SOL    HW231523  12.779  11.759   6.329
 9876SOL     OW31524   8.180   6.910  12.949
 9876SOL    HW131525   8.136   6.837  12.992
 9876SOL    HW231526   8.169   6.983  13.010
 9877SOL     OW31527  12.427   5.461  13.518
 9877SOL    HW131528  12.460   5.418  13.597
 9877SOL    HW231529  12.505   5.497  13.477
 9878SOL     OW31530  14.594   3.195   5.540
 9878SOL    HW131531  14.660   3.194   5.610
 9878SOL    HW231532  14.529   3.130   5.567
 9879SOL     OW31533  12.184  12.516   8.770
 9879SOL    HW131534  12.096  12.509   8.733
 9879SOL    HW231535  12.213  12.605   8.748
 9880SOL     OW31536   0.504  14.200   2.463
 9880SOL    HW131537   0.434  14.257   2.493
 9880SOL    HW231538   0.513  14.134   2.532
 9881SOL     OW31539  11.271  11.260  11.239
 9881SOL    HW131540  11.352  11.209  11.241
 9881SOL    HW231541  11.208  11.206  11.287
 9882SOL     OW31542  12.894   9.296   4.886
 9882SOL    HW131543  12.855   9.220   4.842
 9882SOL    HW231544  12.955   9.259   4.949
 9883SOL     OW31545   7.507  14.218  10.407
 9883SOL    HW131546   7.546  14.289  10.355
 9883SOL    HW231547   7.449  14.263  10.469
 9884SOL     OW31548   8.710  13.430  14.358
 9884SOL    HW131549   8.627  13.473  14.338
 9884SOL    HW231550   8.742  13.475  14.436
 9885SOL     OW31551   4.090   5.348   9.113
 9885SOL    HW131552   4.076   5.375   9.022
 9885SOL    HW231553   4.020   5.286   9.131
 9886SOL     OW31554  10.213  13.067   1.012
 9886SOL    HW131555  10.187  13.158   1.024
 9886SOL    HW231556  10.284  13.054   1.075
 9887SOL     OW31557  14.078   5.863   3.920
 9887SOL    HW131558  14.163   5.820   3.922
 9887SOL    HW231559  14.023   5.806   3.866
 9888SOL     OW31560   5.117   1.144  11.468
 9888SOL    HW131561   5.173   1.216  11.499
 9888SOL    HW231562   5.096   1.095  11.548
 9889SOL     OW31563   0.611   9.412  11.600
 9889SOL    HW131564   0.591   9.333  11.650
 9889SOL    HW231565   0.694   9.392  11.555
 9890SOL     OW31566  14.834  11.539  10.288
 9890SOL    HW131567  14.872  11.550  10.375
 9890SOL    HW231568  14.845  11.446  10.268
 9891SOL     OW31569   6.063   6.832   7.508
 9891SOL    HW131570   6.058   6.768   7.579
 9891SOL    HW231571   6.078   6.916   7.551
 9892SOL     OW31572   2.079   6.029  13.515
 9892SOL    HW131573   2.122   6.075  13.587
 9892SOL    HW231574   2.083   6.090  13.442
 9893SOL     OW31575   0.072   4.096   9.361
 9893SOL    HW131576   0.030   4.181   9.350
 9893SOL    HW231577   0.119   4.103   9.444
 9894SOL     OW31578   2.513   0.843  12.870
 9894SOL    HW131579   2.451   0.810  12.935
 9894SOL    HW231580   2.463   0.848  12.789
 9895SOL     OW31581  14.127   8.078   2.048
 9895SOL    HW131582  14.205   8.117   2.008
 9895SOL    HW231583  14.055   8.110   1.994
 9896SOL     OW31584  12.539   8.864  13.811
 9896SOL    HW131585  12.615   8.863  13.753
 9896SOL    HW231586  12.526   8.957  13.832
 9897SOL     OW31587  12.169   8.337  12.002
 9897SOL    HW131588  12.160   8.420  11.955
 9897SOL    HW231589  12.210   8.278  11.938
 9898SOL     OW31590  10.268   0.040   7.600
 9898SOL    HW131591  10.242  14.831   7.566
 9898SOL    HW231592  10.330   0.073   7.535
 9899SOL     OW31593   1.895   7.325   4.443
 9899SOL    HW131594   1.818   7.380   4.453
 9899SOL    HW231595   1.861   7.236   4.438
 9900SOL     OW31596   0.772   1.919   0.995
 9900SOL    HW131597   0.768   1.830   0.960
 9900SOL    HW231598   0.698   1.925   1.055
 9901SOL     OW31599   1.936   6.968   1.934
 9901SOL    HW131600   2.004   7.033   1.951
 9901SOL    HW231601   1.970   6.887   1.973
 9902SOL     OW31602  13.808  12.902   6.274
 9902SOL    HW131603  13.721  12.943   6.267
 9902SOL    HW231604  13.867  12.966   6.236
 9903SOL     OW31605  10.972  10.104   7.383
 9903SOL    HW131606  11.002  10.065   7.465
 9903SOL    HW231607  11.052  10.121   7.333
 9904SOL     OW31608   1.993  13.905  13.999
 9904SOL    HW131609   2.058  13.890  13.930
 9904SOL    HW231610   1.918  13.944  13.955
 9905SOL     OW31611   7.935   1.489  10.163
 9905SOL    HW131612   7.901   1.442  10.086
 9905SOL    HW231613   7.883   1.569  10.167
 9906SOL     OW31614   0.181   4.880   9.941
 9906SOL    HW131615   0.196   4.913  10.030
 9906SOL    HW231616   0.089   4.901   9.923
 9907SOL     OW31617   5.118  12.076   7.752
 9907SOL    HW131618   5.198  12.038   7.714
 9907SOL    HW231619   5.144  12.165   7.778
 9908SOL     OW31620  14.506   9.403   4.375
 9908SOL    HW131621  14.586   9.352   4.387
 9908SOL    HW231622  14.448   9.376   4.446
 9909SOL     OW31623   4.584   4.970  14.795
 9909SOL    HW131624   4.651   5.039  14.795
 9909SOL    HW231625   4.580   4.941  14.704
 9910SOL     OW31626   8.588  14.296   1.686
 9910SOL    HW131627   8.627  14.238   1.621
 9910SOL    HW231628   8.549  14.238   1.751
 9911SOL     OW31629  11.421   7.532   2.211
 9911SOL    HW131630  11.512   7.523   2.182
 9911SOL    HW231631  11.422   7.505   2.302
 9912SOL     OW31632  10.906   7.413   9.460
 9912SOL    HW131633  10.932   7.459   9.540
 9912SOL    HW231634  10.978   7.353   9.441
 9913SOL     OW31635  10.368  10.825   4.215
 9913SOL    HW131636  10.323  10.900   4.253
 9913SOL    HW231637  10.445  10.813   4.271
 9914SOL     OW31638  10.392  10.471   9.454
 9914SOL    HW131639  10.469  10.438   9.408
 9914SOL    HW231640  10.372  10.403   9.519
 9915SOL     OW31641   5.086   2.620   9.761
 9915SOL    HW131642   5.107   2.641   9.852
 9915SOL    HW231643   5.025   2.689   9.734
 9916SOL     OW31644   1.600   6.014  13.863
 9916SOL    HW131645   1.631   6.045  13.948
 9916SOL    HW231646   1.508   6.041  13.860
 9917SOL     OW31647   7.480   8.816   9.408
 9917SOL    HW131648   7.435   8.840   9.489
 9917SOL    HW231649   7.444   8.875   9.342
 9918SOL     OW31650  10.082   8.623  10.840
 9918SOL    HW131651  10.111   8.534  10.860
 9918SOL    HW231652  10.097   8.672  10.920
 9919SOL     OW31653  12.218   7.897   4.599
 9919SOL    HW131654  12.283   7.853   4.545
 9919SOL    HW231655  12.185   7.829   4.658
 9920SOL     OW31656   1.953   4.467   7.642
 9920SOL    HW131657   1.952   4.496   7.551
 9920SOL    HW231658   1.991   4.379   7.639
 9921SOL     OW31659  14.062  13.262   9.130
 9921SOL    HW131660  14.000  13.258   9.057
 9921SOL    HW231661  14.072  13.355   9.149
 9922SOL     OW31662  11.949  13.522   1.111
 9922SOL    HW131663  11.916  13.434   1.094
 9922SOL    HW231664  11.946  13.532   1.206
 9923SOL     OW31665   3.086   4.084   6.648
 9923SOL    HW131666   3.114   4.173   6.629
 9923SOL    HW231667   3.112   4.069   6.739
 9924SOL     OW31668   0.484  13.519  13.817
 9924SOL    HW131669   0.412  13.472  13.775
 9924SOL    HW231670   0.519  13.458  13.881
 9925SOL     OW31671   0.295  11.714  10.378
 9925SOL    HW131672   0.335  11.632  10.406
 9925SOL    HW231673   0.213  11.718  10.427
 9926SOL     OW31674  14.463   4.926   4.512
 9926SOL    HW131675  14.458   4.959   4.601
 9926SOL    HW231676  14.534   4.976   4.472
 9927SOL     OW31677   1.345  13.016   3.427
 9927SOL    HW131678   1.425  12.970   3.402
 9927SOL    HW231679   1.323  12.982   3.513
 9928SOL     OW31680   2.122  14.676   7.494
 9928SOL    HW131681   2.127  14.581   7.497
 9928SOL    HW231682   2.050  14.698   7.552
 9929SOL     OW31683   8.056   0.600   0.500
 9929SOL    HW131684   8.081   0.508   0.509
 9929SOL    HW231685   8.042   0.612   0.406
 9930SOL     OW31686   9.312   0.928   2.902
 9930SOL    HW131687   9.340   1.019   2.896
 9930SOL    HW231688   9.219   0.931   2.878
 9931SOL     OW31689   5.657   8.059  10.010
 9931SOL    HW131690   5.607   7.993   9.962
 9931SOL    HW231691   5.591   8.119  10.044
 9932SOL     OW31692   3.145   0.066  10.653
 9932SOL    HW131693   3.092   0.136  10.692
 9932SOL    HW231694   3.122  14.866  10.704
 9933SOL     OW31695   5.493  13.186   4.448
 9933SOL    HW131696   5.398  13.189   4.436
 9933SOL    HW231697   5.522  13.116   4.389
 9934SOL     OW31698   5.177   1.781  11.536
 9934SOL    HW131699   5.172   1.786  11.631
 9934SOL    HW231700   5.150   1.868  11.506
 9935SOL     OW31701   7.691   9.620  11.707
 9935SOL    HW131702   7.682   9.541  11.760
 9935SOL    HW231703   7.771   9.606  11.656
 9936SOL     OW31704   6.607   1.452   9.099
 9936SOL    HW131705   6.624   1.385   9.033
 9936SOL    HW231706   6.512   1.467   9.093
 9937SOL     OW31707   8.822  13.005   5.284
 9937SOL    HW131708   8.773  12.981   5.205
 9937SOL    HW231709   8.785  13.089   5.310
 9938SOL     OW31710   3.098   1.258  12.867
 9938SOL    HW131711   3.077   1.307  12.788
 9938SOL    HW231712   3.091   1.166  12.840
 9939SOL     OW31713  14.015  11.517   7.211
 9939SOL    HW131714  14.014  11.422   7.218
 9939SOL    HW231715  14.092  11.536   7.158
 9940SOL     OW31716   1.150   6.925   5.510
 9940SOL    HW131717   1.160   7.008   5.558
 9940SOL    HW231718   1.108   6.951   5.428
 9941SOL     OW31719   1.403   9.971  13.090
 9941SOL    HW131720   1.350   9.894  13.109
 9941SOL    HW231721   1.354  10.045  13.127
 9942SOL     OW31722  14.865  11.196  14.112
 9942SOL    HW131723  14.800  11.131  14.138
 9942SOL    HW231724   0.068  11.168  14.156
 9943SOL     OW31725   0.353  13.471  11.404
 9943SOL    HW131726   0.358  13.381  11.369
 9943SOL    HW231727   0.439  13.487  11.442
 9944SOL     OW31728   2.983   3.115   9.235
 9944SOL    HW131729   2.942   3.041   9.191
 9944SOL    HW231730   3.076   3.108   9.211
 9945SOL     OW31731   8.921   9.204  14.724
 9945SOL    HW131732   8.875   9.130  14.683
 9945SOL    HW231733   8.855   9.248  14.777
 9946SOL     OW31734  12.964   0.910  11.799
 9946SOL    HW131735  12.877   0.949  11.792
 9946SOL    HW231736  12.953   0.822  11.763
 9947SOL     OW31737   5.635  13.712   5.948
 9947SOL    HW131738   5.577  13.787   5.943
 9947SOL    HW231739   5.712  13.738   5.898
 9948SOL     OW31740   1.259   8.710   1.486
 9948SOL    HW131741   1.315   8.774   1.530
 9948SOL    HW231742   1.278   8.627   1.530
 9949SOL     OW31743  12.745   8.957   6.262
 9949SOL    HW131744  12.742   8.864   6.241
 9949SOL    HW231745  12.836   8.973   6.289
 9950SOL     OW31746   6.840   9.673   8.230
 9950SOL    HW131747   6.901   9.607   8.262
 9950SOL    HW231748   6.796   9.706   8.308
 9951SOL     OW31749   6.861   6.843   2.711
 9951SOL    HW131750   6.921   6.918   2.720
 9951SOL    HW231751   6.849   6.812   2.801
 9952SOL     OW31752  14.178   8.587   2.690
 9952SOL    HW131753  14.156   8.662   2.636
 9952SOL    HW231754  14.217   8.523   2.629
 9953SOL     OW31755   0.236   8.535  11.441
 9953SOL    HW131756   0.229   8.440  11.449
 9953SOL    HW231757   0.160   8.568  11.490
 9954SOL     OW31758   7.176   5.793   0.684
 9954SOL    HW131759   7.095   5.765   0.641
 9954SOL    HW231760   7.221   5.712   0.706
 9955SOL     OW31761   4.167   7.167   9.528
 9955SOL    HW131762   4.099   7.154   9.462
 9955SOL    HW231763   4.137   7.242   9.579
 9956SOL     OW31764  11.823  12.715   0.683
 9956SOL    HW131765  11.803  12.646   0.746
 9956SOL    HW231766  11.915  12.700   0.659
 9957SOL     OW31767  11.053   4.857   3.050
 9957SOL    HW131768  10.983   4.880   3.111
 9957SOL    HW231769  11.128   4.910   3.077
 9958SOL     OW31770   6.839   3.483   2.252
 9958SOL    HW131771   6.910   3.444   2.303
 9958SOL    HW231772   6.881   3.512   2.171
 9959SOL     OW31773   2.948  13.633  10.657
 9959SOL    HW131774   2.859  13.667  10.652
 9959SOL    HW231775   2.948  13.576  10.734
 9960SOL     OW31776   2.609  12.427  10.881
 9960SOL    HW131777   2.594  12.420  10.975
 9960SOL    HW231778   2.684  12.485  10.873
 9961SOL     OW31779   2.498   2.427   1.621
 9961SOL    HW131780   2.536   2.468   1.699
 9961SOL    HW231781   2.477   2.500   1.563
 9962SOL     OW31782  11.808  14.460  10.129
 9962SOL    HW131783  11.890  14.411  10.128
 9962SOL    HW231784  11.786  14.466  10.222
 9963SOL     OW31785   2.330  10.600   3.819
 9963SOL    HW131786   2.341  10.520   3.870
 9963SOL    HW231787   2.317  10.669   3.884
 9964SOL     OW31788   6.079   6.485   4.367
 9964SOL    HW131789   6.152   6.442   4.412
 9964SOL    HW231790   6.118   6.522   4.288
 9965SOL     OW31791  13.796  12.813  10.399
 9965SOL    HW131792  13.877  12.780  10.439
 9965SOL    HW231793  13.732  12.811  10.470
 9966SOL     OW31794   1.554   3.175   7.052
 9966SOL    HW131795   1.502   3.105   7.092
 9966SOL    HW231796   1.593   3.135   6.974
 9967SOL     OW31797  10.312   0.254  10.071
 9967SOL    HW131798  10.276   0.321  10.013
 9967SOL    HW231799  10.340   0.184  10.012
 9968SOL     OW31800   5.261  13.153  11.174
 9968SOL    HW131801   5.252  13.089  11.103
 9968SOL    HW231802   5.273  13.099  11.253
 9969SOL     OW31803  13.316   7.301   9.762
 9969SOL    HW131804  13.255   7.351   9.817
 9969SOL    HW231805  13.379   7.265   9.824
 9970SOL     OW31806   9.426   7.690  14.471
 9970SOL    HW131807   9.381   7.640  14.540
 9970SOL    HW231808   9.377   7.670  14.391
 9971SOL     OW31809   0.952  14.594   2.476
 9971SOL    HW131810   1.015  14.598   2.404
 9971SOL    HW231811   0.993  14.536   2.540
 9972SOL     OW31812  10.345  14.369   0.928
 9972SOL    HW131813  10.286  14.331   0.993
 9972SOL    HW231814  10.347  14.462   0.948
 9973SOL     OW31815   2.186  12.298   9.488
 9973SOL    HW131816   2.224  12.287   9.575
 9973SOL    HW231817   2.131  12.376   9.495
 9974SOL     OW31818   4.106  11.791   4.205
 9974SOL    HW131819   4.068  11.761   4.123
 9974SOL    HW231820   4.036  11.841   4.247
 9975SOL     OW31821   1.161   1.070  12.038
 9975SOL    HW131822   1.072   1.069  12.073
 9975SOL    HW231823   1.162   1.144  11.978
 9976SOL     OW31824  14.457   9.284   9.646
 9976SOL    HW131825  14.388   9.218   9.650
 9976SOL    HW231826  14.539   9.235   9.646
 9977SOL     OW31827   9.420  10.814  10.342
 9977SOL    HW131828   9.396  10.891  10.392
 9977SOL    HW231829   9.435  10.746  10.407
 9978SOL     OW31830   2.572  14.177   5.377
 9978SOL    HW131831   2.510  14.108   5.402
 9978SOL    HW231832   2.527  14.259   5.397
 9979SOL     OW31833   2.894   8.598   8.998
 9979SOL    HW131834   2.819   8.547   9.028
 9979SOL    HW231835   2.967   8.568   9.053
 9980SOL     OW31836   7.202   3.693   2.728
 9980SOL    HW131837   7.198   3.762   2.795
 9980SOL    HW231838   7.289   3.702   2.690
 9981SOL     OW31839   9.735  10.768   8.579
 9981SOL    HW131840   9.829  10.765   8.596
 9981SOL    HW231841   9.729  10.759   8.484
 9982SOL     OW31842   7.004  10.310   0.841
 9982SOL    HW131843   6.996  10.234   0.783
 9982SOL    HW231844   7.029  10.382   0.783
 9983SOL     OW31845  11.325   9.165   9.962
 9983SOL    HW131846  11.392   9.189   9.898
 9983SOL    HW231847  11.368   9.175  10.047
 9984SOL     OW31848  13.468   8.899   8.447
 9984SOL    HW131849  13.486   8.898   8.541
 9984SOL    HW231850  13.513   8.977   8.415
 9985SOL     OW31851   4.013  12.395  11.928
 9985SOL    HW131852   3.957  12.400  12.005
 9985SOL    HW231853   3.978  12.460  11.868
 9986SOL     OW31854   0.253   6.820   2.327
 9986SOL    HW131855   0.208   6.735   2.334
 9986SOL    HW231856   0.239   6.860   2.413
 9987SOL     OW31857   6.296  11.862   2.028
 9987SOL    HW131858   6.317  11.769   2.022
 9987SOL    HW231859   6.245  11.871   2.108
 9988SOL     OW31860   4.956  14.647   4.116
 9988SOL    HW131861   4.942  14.693   4.199
 9988SOL    HW231862   5.049  14.659   4.097
 9989SOL     OW31863   9.232  10.913  10.620
 9989SOL    HW131864   9.306  10.969  10.645
 9989SOL    HW231865   9.264  10.824  10.631
 9990SOL     OW31866   8.205   3.915  11.467
 9990SOL    HW131867   8.213   4.008  11.451
 9990SOL    HW231868   8.283   3.876  11.426
 9991SOL     OW31869  11.183  10.586   2.890
 9991SOL    HW131870  11.155  10.599   2.799
 9991SOL    HW231871  11.252  10.519   2.884
 9992SOL     OW31872  10.969  13.970   7.481
 9992SOL    HW131873  10.882  13.931   7.471
 9992SOL    HW231874  11.000  13.937   7.565
 9993SOL     OW31875   9.645  10.054   9.485
 9993SOL    HW131876   9.650   9.961   9.465
 9993SOL    HW231877   9.672  10.097   9.403
 9994SOL     OW31878  13.799  11.183  11.515
 9994SOL    HW131879  13.829  11.273  11.500
 9994SOL    HW231880  13.704  11.190  11.520
 9995SOL     OW31881  14.300   6.659   2.322
 9995SOL    HW131882  14.371   6.643   2.259
 9995SOL    HW231883  14.250   6.578   2.323
 9996SOL     OW31884   7.716  13.051   7.309
 9996SOL    HW131885   7.711  13.015   7.397
 9996SOL    HW231886   7.783  13.118   7.314
 9997SOL     OW31887   9.303   8.755   3.546
 9997SOL    HW131888   9.284   8.807   3.468
 9997SOL    HW231889   9.258   8.801   3.617
 9998SOL     OW31890  11.240   0.501   0.137
 9998SOL    HW131891  11.144   0.507   0.146
 9998SOL    HW231892  11.273   0.575   0.188
 9999SOL     OW31893   4.655   9.635   8.337
 9999SOL    HW131894   4.638   9.655   8.429
 9999SOL    HW231895   4.650   9.720   8.293
10000SOL     OW31896   9.785   7.636   8.753
10000SOL    HW131897   9.709   7.583   8.727
10000SOL    HW231898   9.857   7.574   8.756
10001SOL     OW31899  10.116   2.440   6.837
10001SOL    HW131900  10.057   2.387   6.783
10001SOL    HW231901  10.066   2.457   6.917
10002SOL     OW31902   3.877   1.765  14.534
10002SOL    HW131903   3.834   1.837  14.489
10002SOL    HW231904   3.880   1.694  14.469
10003SOL     OW31905   1.561  10.971  14.132
10003SOL    HW131906   1.576  10.890  14.180
10003SOL    HW231907   1.527  10.943  14.047
10004SOL     OW31908   7.951  13.838   9.635
10004SOL    HW131909   8.000  13.920   9.643
10004SOL    HW231910   7.966  13.808   9.545
10005SOL     OW31911  11.837   6.324   2.678
10005SOL    HW131912  11.921   6.335   2.633
10005SOL    HW231913  11.852   6.362   2.765
10006SOL     OW31914   4.337   7.774   4.869
10006SOL    HW131915   4.283   7.703   4.833
10006SOL    HW231916   4.312   7.780   4.961
10007SOL     OW31917   4.393   5.052  14.503
10007SOL    HW131918   4.470   4.997  14.489
10007SOL    HW231919   4.414   5.136  14.463
10008SOL     OW31920   4.448   9.009   5.276
10008SOL    HW131921   4.461   8.923   5.315
10008SOL    HW231922   4.508   9.067   5.322
10009SOL     OW31923  10.121   8.225   4.195
10009SOL    HW131924  10.173   8.305   4.184
10009SOL    HW231925  10.032   8.257   4.209
10010SOL     OW31926  11.120  11.235  10.185
10010SOL    HW131927  11.105  11.283  10.103
10010SOL    HW231928  11.121  11.143  10.158
10011SOL     OW31929   9.752  12.105  12.207
10011SOL    HW131930   9.684  12.073  12.266
10011SOL    HW231931   9.725  12.073  12.121
10012SOL     OW31932   1.820  12.509  12.580
10012SOL    HW131933   1.874  12.505  12.501
10012SOL    HW231934   1.762  12.433  12.573
10013SOL     OW31935   1.756   8.695   2.078
10013SOL    HW131936   1.805   8.721   2.000
10013SOL    HW231937   1.790   8.607   2.098
10014SOL     OW31938  11.697   2.595   1.018
10014SOL    HW131939  11.740   2.664   0.968
10014SOL    HW231940  11.696   2.519   0.959
10015SOL     OW31941  11.258   6.103   9.278
10015SOL    HW131942  11.196   6.116   9.206
10015SOL    HW231943  11.292   6.015   9.264
10016SOL     OW31944   0.427   6.347   5.936
10016SOL    HW131945   0.472   6.338   6.021
10016SOL    HW231946   0.493   6.319   5.872
10017SOL     OW31947  12.892   1.734  11.628
10017SOL    HW131948  12.854   1.767  11.711
10017SOL    HW231949  12.910   1.642  11.645
10018SOL     OW31950  12.708  10.348   4.933
10018SOL    HW131951  12.619  10.378   4.914
10018SOL    HW231952  12.698  10.255   4.951
10019SOL     OW31953  11.834   0.024   9.400
10019SOL    HW131954  11.771  14.864   9.340
10019SOL    HW231955  11.909  14.842   9.398
10020SOL     OW31956   3.767  13.774  12.264
10020SOL    HW131957   3.817  13.853  12.286
10020SOL    HW231958   3.762  13.774  12.169
10021SOL     OW31959   5.668   1.288   2.554
10021SOL    HW131960   5.618   1.365   2.529
10021SOL    HW231961   5.755   1.303   2.516
10022SOL     OW31962  13.164   0.982  12.721
10022SOL    HW131963  13.203   0.899  12.695
10022SOL    HW231964  13.135   0.968  12.811
10023SOL     OW31965   0.123   2.810   9.528
10023SOL    HW131966   0.145   2.861   9.606
10023SOL    HW231967   0.196   2.824   9.468
10024SOL     OW31968   1.329   6.335  10.469
10024SOL    HW131969   1.301   6.420  10.433
10024SOL    HW231970   1.346   6.281  10.392
10025SOL     OW31971   1.423  10.354   1.112
10025SOL    HW131972   1.355  10.313   1.166
10025SOL    HW231973   1.500  10.355   1.169
10026SOL     OW31974   2.724   3.524   9.209
10026SOL    HW131975   2.731   3.430   9.195
10026SOL    HW231976   2.789   3.543   9.277
10027SOL     OW31977   6.514   9.698   5.004
10027SOL    HW131978   6.485   9.628   5.062
10027SOL    HW231979   6.604   9.676   4.982
10028SOL     OW31980   2.497  11.017   4.216
10028SOL    HW131981   2.406  11.040   4.199
10028SOL    HW231982   2.493  10.934   4.264
10029SOL     OW31983   2.770  13.773   5.722
10029SOL    HW131984   2.830  13.847   5.709
10029SOL    HW231985   2.737  13.784   5.811
10030SOL     OW31986   6.990   0.057   5.374
10030SOL    HW131987   6.961   0.132   5.425
10030SOL    HW231988   7.085   0.062   5.375
10031SOL     OW31989  10.483   7.610   7.143
10031SOL    HW131990  10.556   7.575   7.193
10031SOL    HW231991  10.498   7.705   7.143
10032SOL     OW31992   0.169   6.717   1.642
10032SOL    HW131993   0.240   6.668   1.684
10032SOL    HW231994   0.179   6.697   1.548
10033SOL     OW31995  12.883  13.602   5.219
10033SOL    HW131996  12.923  13.520   5.189
10033SOL    HW231997  12.810  13.616   5.160
10034SOL     OW31998  14.701   2.406   0.993
10034SOL    HW131999  14.779   2.441   1.036
10034SOL    HW232000  14.731   2.380   0.906
10035SOL     OW32001  14.021  14.484   6.087
10035SOL    HW132002  14.016  14.557   6.025
10035SOL    HW232003  13.931  14.472   6.118
10036SOL     OW32004   2.854   2.259   8.425
10036SOL    HW132005   2.943   2.226   8.410
10036SOL    HW232006   2.867   2.336   8.482
10037SOL     OW32007   9.721  14.026  10.332
10037SOL    HW132008   9.750  14.098  10.277
10037SOL    HW232009   9.799  13.972  10.345
10038SOL     OW32010   3.017   6.707   6.521
10038SOL    HW132011   2.960   6.676   6.592
10038SOL    HW232012   3.073   6.633   6.500
10039SOL     OW32013   5.844   5.479  14.859
10039SOL    HW132014   5.887   5.464   0.065
10039SOL    HW232015   5.808   5.568  14.866
10040SOL     OW32016  11.771  10.061  12.483
10040SOL    HW132017  11.761   9.968  12.462
10040SOL    HW232018  11.732  10.070  12.570
10041SOL     OW32019   5.380  12.758   0.166
10041SOL    HW132020   5.338  12.677   0.139
10041SOL    HW232021   5.417  12.795   0.085
10042SOL     OW32022  14.334   0.977   0.174
10042SOL    HW132023  14.414   0.926   0.186
10042SOL    HW232024  14.269   0.932   0.228
10043SOL     OW32025  12.053  12.006  12.110
10043SOL    HW132026  12.059  11.949  12.033
10043SOL    HW232027  11.978  11.972  12.159
10044SOL     OW32028   4.284   9.956  13.261
10044SOL    HW132029   4.329   9.900  13.197
10044SOL    HW232030   4.324  10.042  13.250
10045SOL     OW32031   5.322   7.911   7.060
10045SOL    HW132032   5.346   7.856   6.985
10045SOL    HW232033   5.236   7.945   7.038
10046SOL     OW32034  10.008   6.748  11.884
10046SOL    HW132035   9.971   6.821  11.833
10046SOL    HW232036   9.943   6.733  11.953
10047SOL     OW32037   5.711   4.780   0.779
10047SOL    HW132038   5.780   4.789   0.713
10047SOL    HW232039   5.750   4.724   0.847
10048SOL     OW32040  12.636  11.959  14.053
10048SOL    HW132041  12.666  11.869  14.068
10048SOL    HW232042  12.573  11.952  13.982
10049SOL     OW32043   7.069   0.020   0.324
10049SOL    HW132044   7.025   0.103   0.342
10049SOL    HW232045   7.090   0.024   0.231
10050SOL     OW32046  11.125   0.053   4.870
10050SOL    HW132047  11.200  14.871   4.866
10050SOL    HW232048  11.150   0.127   4.814
10051SOL     OW32049  14.334   4.967   2.961
10051SOL    HW132050  14.339   4.962   3.056
10051SOL    HW232051  14.316   5.060   2.943
10052SOL     OW32052   4.510   7.197   2.011
10052SOL    HW132053   4.440   7.260   1.990
10052SOL    HW232054   4.464   7.114   2.023
10053SOL     OW32055   8.167   9.214  10.994
10053SOL    HW132056   8.162   9.119  10.984
10053SOL    HW232057   8.094   9.237  11.051
10054SOL     OW32058   9.807  11.240   4.250
10054SOL    HW132059   9.786  11.153   4.217
10054SOL    HW232060   9.781  11.300   4.180
10055SOL     OW32061  12.119   6.348  12.927
10055SOL    HW132062  12.128   6.403  13.004
10055SOL    HW232063  12.091   6.408  12.858
10056SOL     OW32064  11.445   4.533   8.976
10056SOL    HW132065  11.426   4.575   8.892
10056SOL    HW232066  11.535   4.500   8.966
10057SOL     OW32067  14.866  12.599  10.905
10057SOL    HW132068  14.801  12.550  10.855
10057SOL    HW232069   0.011  12.541  10.978
10058SOL     OW32070   0.894   4.081   6.712
10058SOL    HW132071   0.844   4.038   6.642
10058SOL    HW232072   0.952   4.013   6.745
10059SOL     OW32073   2.671   7.458  13.024
10059SOL    HW132074   2.664   7.420  12.936
10059SOL    HW232075   2.673   7.382  13.083
10060SOL     OW32076   5.258   1.848   6.707
10060SOL    HW132077   5.309   1.834   6.786
10060SOL    HW232078   5.287   1.779   6.647
10061SOL     OW32079   0.240   7.861  13.496
10061SOL    HW132080   0.182   7.918  13.446
10061SOL    HW232081   0.182   7.799  13.540
10062SOL     OW32082   2.806   3.387  11.480
10062SOL    HW132083   2.712   3.405  11.476
10062SOL    HW232084   2.813   3.309  11.535
10063SOL     OW32085   7.765  10.102   7.302
10063SOL    HW132086   7.748  10.012   7.274
10063SOL    HW232087   7.758  10.098   7.398
10064SOL     OW32088   6.268   6.576   1.066
10064SOL    HW132089   6.358   6.607   1.055
10064SOL    HW232090   6.243   6.605   1.154
10065SOL     OW32091   7.716  14.867   0.784
10065SOL    HW132092   7.730   0.072   0.738
10065SOL    HW232093   7.802  14.824   0.783
10066SOL     OW32094   8.508   6.822   1.399
10066SOL    HW132095   8.462   6.886   1.452
10066SOL    HW232096   8.574   6.873   1.351
10067SOL     OW32097   7.436   1.776   0.220
10067SOL    HW132098   7.355   1.821   0.197
10067SOL    HW232099   7.413   1.721   0.294
10068SOL     OW32100  12.831   4.635   8.149
10068SOL    HW132101  12.781   4.557   8.173
10068SOL    HW232102  12.901   4.639   8.214
10069SOL     OW32103   5.972  13.844  13.902
10069SOL    HW132104   5.968  13.850  13.807
10069SOL    HW232105   5.958  13.933  13.933
10070SOL     OW32106   9.967   6.730   3.648
10070SOL    HW132107  10.024   6.687   3.711
10070SOL    HW232108   9.944   6.813   3.690
10071SOL     OW32109  11.750   2.933  12.273
10071SOL    HW132110  11.709   2.917  12.358
10071SOL    HW232111  11.742   2.850  12.226
10072SOL     OW32112  12.373   8.712   2.180
10072SOL    HW132113  12.354   8.713   2.273
10072SOL    HW232114  12.390   8.803   2.158
10073SOL     OW32115   3.195   0.868  11.411
10073SOL    HW132116   3.283   0.903  11.400
10073SOL    HW232117   3.150   0.890  11.329
10074SOL     OW32118   9.077   3.580   5.185
10074SOL    HW132119   9.073   3.664   5.231
10074SOL    HW232120   9.057   3.515   5.253
10075SOL     OW32121  14.624   9.766   8.616
10075SOL    HW132122  14.597   9.848   8.575
10075SOL    HW232123  14.697   9.791   8.673
10076SOL     OW32124  12.755  13.770   7.682
10076SOL    HW132125  12.737  13.808   7.768
10076SOL    HW232126  12.810  13.835   7.638
10077SOL     OW32127   7.353  14.242  11.340
10077SOL    HW132128   7.405  14.189  11.279
10077SOL    HW232129   7.387  14.331  11.329
10078SOL     OW32130  11.538  11.457  14.092
10078SOL    HW132131  11.560  11.492  14.006
10078SOL    HW232132  11.473  11.389  14.074
10079SOL     OW32133  11.640   8.192   0.337
10079SOL    HW132134  11.689   8.266   0.372
10079SOL    HW232135  11.548   8.211   0.359
10080SOL     OW32136   4.839  13.712   3.283
10080SOL    HW132137   4.804  13.628   3.254
10080SOL    HW232138   4.856  13.761   3.203
10081SOL     OW32139   3.701   3.444   6.556
10081SOL    HW132140   3.635   3.499   6.599
10081SOL    HW232141   3.662   3.422   6.471
10082SOL     OW32142   9.778  10.715  10.428
10082SOL    HW132143   9.778  10.772  10.351
10082SOL    HW232144   9.841  10.646  10.407
10083SOL     OW32145   3.481   7.917   8.168
10083SOL    HW132146   3.535   7.851   8.123
10083SOL    HW232147   3.458   7.876   8.251
10084SOL     OW32148   2.016  11.827   7.954
10084SOL    HW132149   1.982  11.810   8.042
10084SOL    HW232150   2.110  11.813   7.961
10085SOL     OW32151   2.308   2.707   0.074
10085SOL    HW132152   2.332   2.796   0.099
10085SOL    HW232153   2.379   2.679   0.016
10086SOL     OW32154   4.509   3.394   9.309
10086SOL    HW132155   4.457   3.423   9.235
10086SOL    HW232156   4.530   3.302   9.289
10087SOL     OW32157  11.220   8.529   9.243
10087SOL    HW132158  11.309   8.527   9.209
10087SOL    HW232159  11.170   8.575   9.176
10088SOL     OW32160   1.687  12.800  12.178
10088SOL    HW132161   1.711  12.723  12.229
10088SOL    HW232162   1.602  12.826  12.212
10089SOL     OW32163  10.636   9.004  13.646
10089SOL    HW132164  10.584   9.000  13.726
10089SOL    HW232165  10.586   9.062  13.588
10090SOL     OW32166   3.793  13.678  10.187
10090SOL    HW132167   3.770  13.615  10.120
10090SOL    HW232168   3.710  13.723  10.208
10091SOL     OW32169   7.660  12.315   1.791
10091SOL    HW132170   7.743  12.339   1.832
10091SOL    HW232171   7.626  12.397   1.755
10092SOL     OW32172  12.755   7.094   8.960
10092SOL    HW132173  12.819   7.108   9.031
10092SOL    HW232174  12.751   7.179   8.916
10093SOL     OW32175   0.230   0.121  13.766
10093SOL    HW132176   0.249   0.105  13.673
10093SOL    HW232177   0.135   0.117  13.772
10094SOL     OW32178   3.717   1.129   1.065
10094SOL    HW132179   3.725   1.081   0.983
10094SOL    HW232180   3.696   1.062   1.130
10095SOL     OW32181  12.167   1.079  12.131
10095SOL    HW132182  12.189   1.172  12.136
10095SOL    HW232183  12.251   1.034  12.133
10096SOL     OW32184   0.832   8.890   1.113
10096SOL    HW132185   0.766   8.876   1.044
10096SOL    HW232186   0.912   8.910   1.065
10097SOL     OW32187   1.187  10.903  14.138
10097SOL    HW132188   1.163  10.832  14.197
10097SOL    HW232189   1.256  10.865  14.083
10098SOL     OW32190   7.408  13.143   2.994
10098SOL    HW132191   7.429  13.155   3.087
10098SOL    HW232192   7.312  13.148   2.991
10099SOL     OW32193   2.707   8.765  12.586
10099SOL    HW132194   2.791   8.755  12.630
10099SOL    HW232195   2.696   8.684  12.535
10100SOL     OW32196  12.388  12.057  13.220
10100SOL    HW132197  12.414  11.965  13.226
10100SOL    HW232198  12.432  12.090  13.142
10101SOL     OW32199   0.945   8.331   4.558
10101SOL    HW132200   0.925   8.290   4.475
10101SOL    HW232201   0.862   8.336   4.604
10102SOL     OW32202   7.021  11.122   7.374
10102SOL    HW132203   7.094  11.131   7.436
10102SOL    HW232204   7.051  11.165   7.295
10103SOL     OW32205   4.474   7.266  13.929
10103SOL    HW132206   4.400   7.261  13.869
10103SOL    HW232207   4.433   7.262  14.016
10104SOL     OW32208   1.389   7.947  13.917
10104SOL    HW132209   1.390   8.023  13.976
10104SOL    HW232210   1.316   7.964  13.858
10105SOL     OW32211   6.436  11.727   4.586
10105SOL    HW132212   6.368  11.690   4.529
10105SOL    HW232213   6.439  11.820   4.563
10106SOL     OW32214  10.654   2.004  11.692
10106SOL    HW132215  10.637   1.978  11.783
10106SOL    HW232216  10.721   1.943  11.661
10107SOL     OW32217  11.957  13.998   1.546
10107SOL    HW132218  12.020  13.969   1.612
10107SOL    HW232219  12.012  14.035   1.476
10108SOL     OW32220  11.576   3.659   8.414
10108SOL    HW132221  11.610   3.569   8.417
10108SOL    HW232222  11.653   3.714   8.419
10109SOL     OW32223  13.896   9.138   6.407
10109SOL    HW132224  13.990   9.135   6.391
10109SOL    HW232225  13.882   9.079   6.480
10110SOL     OW32226  13.732   8.201  11.554
10110SOL    HW132227  13.698   8.140  11.619
10110SOL    HW232228  13.826   8.205  11.572
10111SOL     OW32229   4.446   7.514  10.764
10111SOL    HW132230   4.427   7.530  10.856
10111SOL    HW232231   4.540   7.532  10.755
10112SOL     OW32232   6.000   7.968  10.594
10112SOL    HW132233   5.993   8.054  10.553
10112SOL    HW232234   5.959   7.908  10.532
10113SOL     OW32235   0.447  12.326   0.769
10113SOL    HW132236   0.526  12.367   0.806
10113SOL    HW232237   0.478  12.284   0.689
10114SOL     OW32238   0.961   0.382   0.268
10114SOL    HW132239   0.968   0.422   0.181
10114SOL    HW232240   1.033   0.319   0.271
10115SOL     OW32241  13.852   2.890   9.051
10115SOL    HW132242  13.891   2.835   8.983
10115SOL    HW232243  13.842   2.832   9.126
10116SOL     OW32244  12.523   8.495  13.600
10116SOL    HW132245  12.607   8.531  13.573
10116SOL    HW232246  12.511   8.417  13.545
10117SOL     OW32247  13.264  10.521   3.192
10117SOL    HW132248  13.354  10.546   3.170
10117SOL    HW232249  13.209  10.575   3.135
10118SOL     OW32250  11.342   7.735   7.172
10118SOL    HW132251  11.364   7.804   7.235
10118SOL    HW232252  11.324   7.658   7.227
10119SOL     OW32253   5.384   1.420  13.237
10119SOL    HW132254   5.359   1.410  13.329
10119SOL    HW232255   5.464   1.368  13.228
10120SOL     OW32256   2.786  12.588   2.949
10120SOL    HW132257   2.809  12.634   2.868
10120SOL    HW232258   2.863  12.537   2.971
10121SOL     OW32259   7.503  12.690   2.530
10121SOL    HW132260   7.483  12.596   2.534
10121SOL    HW232261   7.488  12.714   2.439
10122SOL     OW32262   1.387   9.007  12.207
10122SOL    HW132263   1.379   9.102  12.199
10122SOL    HW232264   1.434   8.980  12.128
10123SOL     OW32265   2.321   1.284  13.705
10123SOL    HW132266   2.340   1.311  13.615
10123SOL    HW232267   2.247   1.340  13.731
10124SOL     OW32268   0.931   2.569  12.141
10124SOL    HW132269   0.921   2.477  12.165
10124SOL    HW232270   1.025   2.585  12.149
10125SOL     OW32271   7.479  14.246   0.483
10125SOL    HW132272   7.451  14.337   0.474
10125SOL    HW232273   7.474  14.230   0.577
10126SOL     OW32274   3.238  11.333  11.310
10126SOL    HW132275   3.239  11.427  11.292
10126SOL    HW232276   3.147  11.308  11.298
10127SOL     OW32277   1.969  10.412  13.667
10127SOL    HW132278   2.041  10.353  13.690
10127SOL    HW232279   1.969  10.414  13.572
10128SOL     OW32280   0.553   5.220   1.318
10128SOL    HW132281   0.570   5.266   1.401
10128SOL    HW232282   0.602   5.138   1.326
10129SOL     OW32283  12.347   8.672   3.965
10129SOL    HW132284  12.396   8.625   4.032
10129SOL    HW232285  12.262   8.629   3.961
10130SOL     OW32286   1.207   3.723   5.957
10130SOL    HW132287   1.295   3.735   5.920
10130SOL    HW232288   1.158   3.800   5.928
10131SOL     OW32289   5.260  12.464  14.423
10131SOL    HW132290   5.262  12.515  14.503
10131SOL    HW232291   5.312  12.386  14.443
10132SOL     OW32292   3.836   6.693   2.138
10132SOL    HW132293   3.928   6.709   2.115
10132SOL    HW232294   3.825   6.599   2.130
10133SOL     OW32295   2.228   6.887  11.933
10133SOL    HW132296   2.220   6.924  12.021
10133SOL    HW232297   2.258   6.797  11.947
10134SOL     OW32298   9.053  12.088   4.522
10134SOL    HW132299   9.017  12.115   4.607
10134SOL    HW232300   8.986  12.115   4.458
10135SOL     OW32301  12.695   0.672   3.022
10135SOL    HW132302  12.685   0.759   2.983
10135SOL    HW232303  12.789   0.665   3.040
10136SOL     OW32304   2.973  11.679   7.120
10136SOL    HW132305   2.892  11.685   7.170
10136SOL    HW232306   3.040  11.713   7.178
10137SOL     OW32307   6.030   1.734  14.325
10137SOL    HW132308   6.125   1.731  14.336
10137SOL    HW232309   6.012   1.819  14.286
10138SOL     OW32310   1.801  11.663   3.435
10138SOL    HW132311   1.723  11.683   3.383
10138SOL    HW232312   1.782  11.698   3.522
10139SOL     OW32313   7.692   6.140   4.525
10139SOL    HW132314   7.618   6.091   4.490
10139SOL    HW232315   7.703   6.107   4.614
10140SOL     OW32316   0.467   0.886   1.733
10140SOL    HW132317   0.395   0.913   1.791
10140SOL    HW232318   0.424   0.832   1.666
10141SOL     OW32319   5.399   9.550   5.919
10141SOL    HW132320   5.419   9.485   5.987
10141SOL    HW232321   5.305   9.564   5.928
10142SOL     OW32322   3.702   8.387   5.373
10142SOL    HW132323   3.771   8.422   5.429
10142SOL    HW232324   3.690   8.297   5.403
10143SOL     OW32325  10.908   0.198  10.796
10143SOL    HW132326  10.962   0.199  10.876
10143SOL    HW232327  10.821   0.174  10.827
10144SOL     OW32328  13.131  13.956  11.179
10144SOL    HW132329  13.172  13.904  11.110
10144SOL    HW232330  13.072  13.894  11.222
10145SOL     OW32331  14.790   3.545   1.318
10145SOL    HW132332  14.827   3.457   1.310
10145SOL    HW232333  14.793   3.565   1.411
10146SOL     OW32334   2.478   7.161   4.559
10146SOL    HW132335   2.522   7.081   4.589
10146SOL    HW232336   2.435   7.195   4.637
10147SOL     OW32337   5.219   9.967   6.906
10147SOL    HW132338   5.271  10.000   6.979
10147SOL    HW232339   5.132   9.951   6.942
10148SOL     OW32340   4.910   5.313  13.430
10148SOL    HW132341   4.945   5.398  13.456
10148SOL    HW232342   4.899   5.320  13.335
10149SOL     OW32343   6.721  10.950   2.005
10149SOL    HW132344   6.771  10.877   1.968
10149SOL    HW232345   6.631  10.917   2.008
10150SOL     OW32346   9.424   6.330  12.071
10150SOL    HW132347   9.492   6.275  12.033
10150SOL    HW232348   9.462   6.362  12.153
10151SOL     OW32349   4.502   5.537   7.617
10151SOL    HW132350   4.546   5.610   7.575
10151SOL    HW232351   4.517   5.463   7.559
10152SOL     OW32352  10.607   1.613  10.285
10152SOL    HW132353  10.524   1.566  10.294
10152SOL    HW232354  10.673   1.544  10.278
10153SOL     OW32355   4.227   0.956   6.836
10153SOL    HW132356   4.193   0.873   6.869
10153SOL    HW232357   4.217   1.017   6.910
10154SOL     OW32358   0.702   1.798   5.292
10154SOL    HW132359   0.663   1.715   5.323
10154SOL    HW232360   0.659   1.865   5.346
10155SOL     OW32361   6.976   6.220  12.812
10155SOL    HW132362   7.032   6.165  12.758
10155SOL    HW232363   6.953   6.294  12.755
10156SOL     OW32364   2.531   7.810  12.306
10156SOL    HW132365   2.565   7.848  12.387
10156SOL    HW232366   2.581   7.729  12.296
10157SOL     OW32367   2.570   1.538   5.933
10157SOL    HW132368   2.519   1.616   5.913
10157SOL    HW232369   2.642   1.539   5.870
10158SOL     OW32370  13.978   1.914   7.666
10158SOL    HW132371  13.966   1.888   7.757
10158SOL    HW232372  13.924   1.993   7.657
10159SOL     OW32373   4.760   6.816  13.805
10159SOL    HW132374   4.690   6.876  13.831
10159SOL    HW232375   4.839   6.869  13.809
10160SOL     OW32376   2.574   3.372   7.714
10160SOL    HW132377   2.623   3.341   7.638
10160SOL    HW232378   2.551   3.293   7.763
10161SOL     OW32379   1.185   4.136  10.735
10161SOL    HW132380   1.163   4.045  10.718
10161SOL    HW232381   1.113   4.168  10.790
10162SOL     OW32382   0.807   5.429   7.717
10162SOL    HW132383   0.739   5.497   7.718
10162SOL    HW232384   0.764   5.353   7.679
10163SOL     OW32385  13.201   3.183   5.079
10163SOL    HW132386  13.183   3.255   5.018
10163SOL    HW232387  13.195   3.105   5.025
10164SOL     OW32388  10.814   3.985   1.375
10164SOL    HW132389  10.790   4.064   1.326
10164SOL    HW232390  10.809   4.011   1.467
10165SOL     OW32391   7.346   1.373   3.367
10165SOL    HW132392   7.269   1.369   3.311
10165SOL    HW232393   7.329   1.448   3.426
10166SOL     OW32394  10.015  10.916   6.896
10166SOL    HW132395  10.027  10.958   6.811
10166SOL    HW232396  10.075  10.842   6.895
10167SOL     OW32397  12.966   3.262   1.475
10167SOL    HW132398  12.920   3.188   1.435
10167SOL    HW232399  12.938   3.338   1.423
10168SOL     OW32400  10.358  14.310   2.052
10168SOL    HW132401  10.358  14.249   2.125
10168SOL    HW232402  10.279  14.363   2.065
10169SOL     OW32403  12.032   7.104   6.838
10169SOL    HW132404  12.079   7.104   6.922
10169SOL    HW232405  11.950   7.150   6.857
10170SOL     OW32406   3.568   2.447   6.420
10170SOL    HW132407   3.568   2.431   6.326
10170SOL    HW232408   3.623   2.378   6.457
10171SOL     OW32409   3.422  10.859   8.531
10171SOL    HW132410   3.356  10.895   8.590
10171SOL    HW232411   3.493  10.923   8.531
10172SOL     OW32412  12.896   8.970  12.771
10172SOL    HW132413  12.808   9.006  12.757
10172SOL    HW232414  12.919   8.932  12.687
10173SOL     OW32415  13.577   8.469   7.672
10173SOL    HW132416  13.566   8.387   7.625
10173SOL    HW232417  13.520   8.461   7.749
10174SOL     OW32418   6.670   4.571   2.309
10174SOL    HW132419   6.614   4.641   2.276
10174SOL    HW232420   6.665   4.502   2.243
10175SOL     OW32421   6.313   0.137   8.149
10175SOL    HW132422   6.266   0.118   8.231
10175SOL    HW232423   6.248   0.123   8.081
10176SOL     OW32424  13.835   1.986  10.094
10176SOL    HW132425  13.755   1.939  10.071
10176SOL    HW232426  13.906   1.927  10.066
10177SOL     OW32427   1.245   6.218   8.167
10177SOL    HW132428   1.279   6.260   8.246
10177SOL    HW232429   1.288   6.133   8.164
10178SOL     OW32430  14.532   2.494  11.651
10178SOL    HW132431  14.492   2.451  11.726
10178SOL    HW232432  14.568   2.576  11.686
10179SOL     OW32433   4.896   3.803  10.351
10179SOL    HW132434   4.950   3.840  10.281
10179SOL    HW232435   4.905   3.709  10.341
10180SOL     OW32436   0.605  11.756   3.305
10180SOL    HW132437   0.595  11.819   3.235
10180SOL    HW232438   0.567  11.675   3.271
10181SOL     OW32439  13.699   6.222  11.646
10181SOL    HW132440  13.682   6.302  11.696
10181SOL    HW232441  13.612   6.189  11.622
10182SOL     OW32442  12.596   3.573   4.180
10182SOL    HW132443  12.648   3.648   4.152
10182SOL    HW232444  12.650   3.497   4.157
10183SOL     OW32445   2.589  10.834  12.228
10183SOL    HW132446   2.611  10.886  12.151
10183SOL    HW232447   2.498  10.809  12.215
10184SOL     OW32448   1.518   3.614   4.617
10184SOL    HW132449   1.545   3.706   4.626
10184SOL    HW232450   1.551   3.572   4.696
10185SOL     OW32451   6.923  14.153   9.816
10185SOL    HW132452   6.885  14.130   9.732
10185SOL    HW232453   6.938  14.070   9.860
10186SOL     OW32454  12.014   3.320   0.065
10186SOL    HW132455  11.946   3.361   0.118
10186SOL    HW232456  12.065   3.393   0.030
10187SOL     OW32457  14.303   3.516   6.551
10187SOL    HW132458  14.210   3.524   6.528
10187SOL    HW232459  14.302   3.477   6.638
10188SOL     OW32460   4.350   3.053   6.917
10188SOL    HW132461   4.335   3.121   6.851
10188SOL    HW232462   4.264   3.040   6.957
10189SOL     OW32463   0.750   7.717   9.797
10189SOL    HW132464   0.788   7.654   9.735
10189SOL    HW232465   0.826   7.754   9.843
10190SOL     OW32466  12.493  10.015  12.526
10190SOL    HW132467  12.523   9.996  12.436
10190SOL    HW232468  12.543  10.093  12.551
10191SOL     OW32469   5.074   1.978   9.786
10191SOL    HW132470   5.101   1.909   9.725
10191SOL    HW232471   4.986   2.002   9.758
10192SOL     OW32472   4.706  12.644   2.185
10192SOL    HW132473   4.680  12.735   2.170
10192SOL    HW232474   4.759  12.647   2.264
10193SOL     OW32475   3.342  12.508   3.802
10193SOL    HW132476   3.275  12.546   3.745
10193SOL    HW232477   3.419  12.562   3.788
10194SOL     OW32478   7.553   2.631   5.187
10194SOL    HW132479   7.498   2.696   5.143
10194SOL    HW232480   7.576   2.569   5.118
10195SOL     OW32481   7.841   2.888   7.526
10195SOL    HW132482   7.901   2.814   7.527
10195SOL    HW232483   7.840   2.920   7.616
10196SOL     OW32484   3.598   6.368  10.491
10196SOL    HW132485   3.554   6.441  10.447
10196SOL    HW232486   3.618   6.307  10.420
10197SOL     OW32487  14.311   5.054   3.844
10197SOL    HW132488  14.221   5.034   3.819
10197SOL    HW232489  14.356   4.969   3.844
10198SOL     OW32490   9.036   4.635  13.398
10198SOL    HW132491   8.977   4.589  13.338
10198SOL    HW232492   9.034   4.726  13.368
10199SOL     OW32493  10.636  13.069   3.336
10199SOL    HW132494  10.623  12.977   3.313
10199SOL    HW232495  10.595  13.118   3.264
10200SOL     OW32496   0.035   0.851   2.440
10200SOL    HW132497   0.096   0.780   2.459
10200SOL    HW232498  14.869   0.869   2.524
10201SOL     OW32499   2.933   9.008  10.719
10201SOL    HW132500   2.912   8.917  10.696
10201SOL    HW232501   2.921   9.012  10.814
10202SOL     OW32502   1.527   5.269   5.192
10202SOL    HW132503   1.550   5.201   5.129
10202SOL    HW232504   1.481   5.223   5.262
10203SOL     OW32505  13.751  10.574  14.157
10203SOL    HW132506  13.775  10.637  14.089
10203SOL    HW232507  13.821  10.509  14.156
10204SOL     OW32508   0.212   4.714   3.665
10204SOL    HW132509   0.305   4.727   3.683
10204SOL    HW232510   0.208   4.693   3.571
10205SOL     OW32511   0.836   9.857   5.835
10205SOL    HW132512   0.846   9.769   5.872
10205SOL    HW232513   0.925   9.891   5.830
10206SOL     OW32514  11.988   0.342   7.050
10206SOL    HW132515  12.082   0.346   7.032
10206SOL    HW232516  11.948   0.395   6.982
10207SOL     OW32517   5.376   1.304   2.332
10207SOL    HW132518   5.456   1.278   2.287
10207SOL    HW232519   5.406   1.349   2.411
10208SOL     OW32520  13.687   8.947   1.607
10208SOL    HW132521  13.672   8.892   1.684
10208SOL    HW232522  13.697   9.035   1.643
10209SOL     OW32523  13.426   2.361   7.753
10209SOL    HW132524  13.406   2.305   7.828
10209SOL    HW232525  13.391   2.447   7.778
10210SOL     OW32526   7.000   9.233   0.582
10210SOL    HW132527   6.944   9.158   0.601
10210SOL    HW232528   7.064   9.201   0.519
10211SOL     OW32529   6.620   1.641   5.111
10211SOL    HW132530   6.644   1.563   5.060
10211SOL    HW232531   6.525   1.633   5.123
10212SOL     OW32532   2.512  11.728  10.740
10212SOL    HW132533   2.556  11.697  10.661
10212SOL    HW232534   2.582  11.736  10.805
10213SOL     OW32535  12.082   4.900   5.945
10213SOL    HW132536  12.053   4.991   5.934
10213SOL    HW232537  12.001   4.849   5.942
10214SOL     OW32538   0.341  11.754   2.681
10214SOL    HW132539   0.332  11.814   2.607
10214SOL    HW232540   0.254  11.714   2.690
10215SOL     OW32541  14.404   1.291   5.650
10215SOL    HW132542  14.358   1.350   5.591
10215SOL    HW232543  14.367   1.205   5.633
10216SOL     OW32544   1.795   7.106   6.335
10216SOL    HW132545   1.752   7.191   6.322
10216SOL    HW232546   1.812   7.074   6.246
10217SOL     OW32547   0.396   9.674   7.978
10217SOL    HW132548   0.393   9.768   7.960
10217SOL    HW232549   0.376   9.668   8.071
10218SOL     OW32550   9.527  13.073   7.116
10218SOL    HW132551   9.521  13.138   7.186
10218SOL    HW232552   9.525  12.989   7.161
10219SOL     OW32553   6.783   1.244   4.551
10219SOL    HW132554   6.780   1.204   4.465
10219SOL    HW232555   6.779   1.338   4.533
10220SOL     OW32556   1.025  14.607   1.985
10220SOL    HW132557   1.007  14.547   1.913
10220SOL    HW232558   1.120  14.602   1.997
10221SOL     OW32559  11.754  12.813   8.930
10221SOL    HW132560  11.739  12.907   8.928
10221SOL    HW232561  11.837  12.801   8.884
10222SOL     OW32562   6.437  10.296   8.475
10222SOL    HW132563   6.442  10.384   8.438
10222SOL    HW232564   6.488  10.242   8.415
10223SOL     OW32565   1.167   9.064   6.606
10223SOL    HW132566   1.181   9.012   6.686
10223SOL    HW232567   1.131   9.146   6.638
10224SOL     OW32568  14.473   3.164   2.533
10224SOL    HW132569  14.429   3.084   2.560
10224SOL    HW232570  14.491   3.152   2.439
10225SOL     OW32571   3.751  10.484   1.862
10225SOL    HW132572   3.757  10.426   1.938
10225SOL    HW232573   3.759  10.425   1.787
10226SOL     OW32574  11.880   4.313  10.776
10226SOL    HW132575  11.884   4.264  10.694
10226SOL    HW232576  11.849   4.400  10.751
10227SOL     OW32577  14.327  14.526   7.774
10227SOL    HW132578  14.343  14.605   7.826
10227SOL    HW232579  14.400  14.523   7.712
10228SOL     OW32580   0.379   0.270  14.529
10228SOL    HW132581   0.404   0.358  14.500
10228SOL    HW232582   0.461   0.221  14.532
10229SOL     OW32583   4.335   1.372   7.793
10229SOL    HW132584   4.380   1.294   7.761
10229SOL    HW232585   4.405   1.433   7.815
10230SOL     OW32586  14.850  10.393   0.986
10230SOL    HW132587  14.870  10.396   1.079
10230SOL    HW232588  14.859  10.484   0.956
10231SOL     OW32589   0.221  10.261   8.609
10231SOL    HW132590   0.297  10.276   8.665
10231SOL    HW232591   0.188  10.175   8.636
10232SOL     OW32592   9.270   0.905   3.202
10232SOL    HW132593   9.335   0.845   3.238
10232SOL    HW232594   9.283   0.900   3.107
10233SOL     OW32595  13.527   9.277  12.869
10233SOL    HW132596  13.540   9.234  12.784
10233SOL    HW232597  13.581   9.226  12.930
10234SOL     OW32598   3.814   5.633  14.752
10234SOL    HW132599   3.844   5.544  14.772
10234SOL    HW232600   3.719   5.626  14.750
10235SOL     OW32601   3.209   7.339   5.212
10235SOL    HW132602   3.257   7.408   5.167
10235SOL    HW232603   3.269   7.308   5.279
10236SOL     OW32604   1.643   6.543   8.481
10236SOL    HW132605   1.576   6.474   8.483
10236SOL    HW232606   1.726   6.496   8.472
10237SOL     OW32607   8.928   3.198   7.643
10237SOL    HW132608   8.833   3.209   7.640
10237SOL    HW232609   8.954   3.196   7.551
10238SOL     OW32610   0.667   6.025  11.098
10238SOL    HW132611   0.674   5.957  11.165
10238SOL    HW232612   0.604   6.087  11.133
10239SOL     OW32613   0.815   4.660  13.017
10239SOL    HW132614   0.833   4.720  12.945
10239SOL    HW232615   0.899   4.615  13.032
10240SOL     OW32616  12.086   7.188   2.221
10240SOL    HW132617  12.129   7.180   2.306
10240SOL    HW232618  12.148   7.235   2.167
10241SOL     OW32619   1.518   8.284   2.614
10241SOL    HW132620   1.508   8.190   2.598
10241SOL    HW232621   1.605   8.293   2.653
10242SOL     OW32622  14.387  13.394   0.763
10242SOL    HW132623  14.318  13.393   0.829
10242SOL    HW232624  14.402  13.487   0.746
10243SOL     OW32625   1.341   7.217  12.111
10243SOL    HW132626   1.293   7.158  12.169
10243SOL    HW232627   1.311   7.305  12.135
10244SOL     OW32628  11.603   5.217  11.053
10244SOL    HW132629  11.529   5.219  11.113
10244SOL    HW232630  11.580   5.151  10.988
10245SOL     OW32631  12.730   5.130   4.336
10245SOL    HW132632  12.766   5.084   4.411
10245SOL    HW232633  12.718   5.061   4.270
10246SOL     OW32634  14.600  10.777   4.590
10246SOL    HW132635  14.626  10.696   4.632
10246SOL    HW232636  14.651  10.845   4.635
10247SOL     OW32637   9.137   9.180  14.049
10247SOL    HW132638   9.093   9.096  14.033
10247SOL    HW232639   9.198   9.162  14.120
10248SOL     OW32640   7.684   6.676   5.443
10248SOL    HW132641   7.724   6.601   5.400
10248SOL    HW232642   7.628   6.639   5.511
10249SOL     OW32643   6.974   8.766   0.915
10249SOL    HW132644   7.031   8.731   0.846
10249SOL    HW232645   6.886   8.752   0.883
10250SOL     OW32646   0.314   8.267   1.373
10250SOL    HW132647   0.271   8.189   1.337
10250SOL    HW232648   0.289   8.338   1.313
10251SOL     OW32649   5.987   3.406   0.321
10251SOL    HW132650   5.953   3.441   0.403
10251SOL    HW232651   6.063   3.460   0.300
10252SOL     OW32652  13.430   4.376  13.304
10252SOL    HW132653  13.440   4.470  13.315
10252SOL    HW232654  13.520   4.342  13.312
10253SOL     OW32655  12.682   7.226   1.224
10253SOL    HW132656  12.725   7.281   1.158
10253SOL    HW232657  12.719   7.139   1.211
10254SOL     OW32658   1.114  14.024  11.409
10254SOL    HW132659   1.080  14.109  11.382
10254SOL    HW232660   1.057  13.997  11.481
10255SOL     OW32661   3.780   5.291   7.164
10255SOL    HW132662   3.808   5.304   7.073
10255SOL    HW232663   3.861   5.298   7.215
10256SOL     OW32664  14.092   8.545   5.072
10256SOL    HW132665  14.066   8.469   5.125
10256SOL    HW232666  14.187   8.544   5.075
10257SOL     OW32667   7.426   5.084   7.422
10257SOL    HW132668   7.451   5.175   7.442
10257SOL    HW232669   7.364   5.091   7.350
10258SOL     OW32670  12.538   5.371   7.212
10258SOL    HW132671  12.626   5.392   7.181
10258SOL    HW232672  12.512   5.448   7.262
10259SOL     OW32673  10.309   6.838   9.575
10259SOL    HW132674  10.347   6.900   9.638
10259SOL    HW232675  10.322   6.881   9.490
10260SOL     OW32676   2.968   6.696  13.017
10260SOL    HW132677   3.019   6.777  13.006
10260SOL    HW232678   3.021   6.629  12.972
10261SOL     OW32679   6.675   9.086   4.487
10261SOL    HW132680   6.653   9.070   4.579
10261SOL    HW232681   6.707   9.001   4.455
10262SOL     OW32682   8.530   3.664   4.680
10262SOL    HW132683   8.568   3.576   4.691
10262SOL    HW232684   8.463   3.669   4.747
10263SOL     OW32685  10.330   2.915   0.647
10263SOL    HW132686  10.241   2.909   0.613
10263SOL    HW232687  10.339   2.840   0.706
10264SOL     OW32688   8.584   6.771   4.824
10264SOL    HW132689   8.524   6.836   4.786
10264SOL    HW232690   8.589   6.795   4.917
10265SOL     OW32691   9.601  11.034   5.757
10265SOL    HW132692   9.551  10.970   5.707
10265SOL    HW232693   9.645  10.983   5.825
10266SOL     OW32694   6.688  12.270   9.802
10266SOL    HW132695   6.628  12.321   9.748
10266SOL    HW232696   6.775  12.301   9.777
10267SOL     OW32697  14.510  12.113   9.356
10267SOL    HW132698  14.593  12.076   9.388
10267SOL    HW232699  14.458  12.036   9.332
10268SOL     OW32700   7.379  11.440   8.263
10268SOL    HW132701   7.300  11.482   8.227
10268SOL    HW232702   7.441  11.440   8.189
10269SOL     OW32703   6.744   6.286   5.596
10269SOL    HW132704   6.748   6.194   5.570
10269SOL    HW232705   6.652   6.310   5.583
10270SOL     OW32706   2.005  12.967  10.815
10270SOL    HW132707   1.927  13.022  10.817
10270SOL    HW232708   2.011  12.938  10.724
10271SOL     OW32709  14.486   0.926  10.792
10271SOL    HW132710  14.393   0.919  10.771
10271SOL    HW232711  14.528   0.948  10.709
10272SOL     OW32712   4.896   3.447   0.297
10272SOL    HW132713   4.981   3.489   0.315
10272SOL    HW232714   4.831   3.514   0.319
10273SOL     OW32715   4.745  10.790   0.218
10273SOL    HW132716   4.834  10.757   0.226
10273SOL    HW232717   4.691  10.711   0.209
10274SOL     OW32718   8.686   6.246   2.371
10274SOL    HW132719   8.614   6.283   2.320
10274SOL    HW232720   8.681   6.291   2.456
10275SOL     OW32721  12.510   7.344  13.568
10275SOL    HW132722  12.591   7.294  13.570
10275SOL    HW232723  12.536   7.431  13.538
10276SOL     OW32724   8.266   5.020   9.995
10276SOL    HW132725   8.249   4.980  10.081
10276SOL    HW232726   8.228   4.958   9.932
10277SOL     OW32727  11.971  12.900   5.685
10277SOL    HW132728  11.965  12.804   5.684
10277SOL    HW232729  11.880  12.929   5.675
10278SOL     OW32730  14.034   1.477   5.450
10278SOL    HW132731  14.011   1.404   5.507
10278SOL    HW232732  13.974   1.547   5.475
10279SOL     OW32733  13.687   0.797   0.024
10279SOL    HW132734  13.742   0.719   0.023
10279SOL    HW232735  13.660   0.809  14.811
10280SOL     OW32736   2.870   3.058   7.726
10280SOL    HW132737   2.800   3.071   7.662
10280SOL    HW232738   2.940   3.016   7.677
10281SOL     OW32739  10.353   6.873  14.680
10281SOL    HW132740  10.341   6.888  14.774
10281SOL    HW232741  10.441   6.837  14.672
10282SOL     OW32742  12.868   9.900   3.447
10282SOL    HW132743  12.948   9.867   3.488
10282SOL    HW232744  12.835   9.966   3.508
10283SOL     OW32745   2.014   4.507  12.981
10283SOL    HW132746   1.959   4.519  13.058
10283SOL    HW232747   1.977   4.567  12.916
10284SOL     OW32748   1.852   3.103  11.140
10284SOL    HW132749   1.836   3.196  11.124
10284SOL    HW232750   1.884   3.100  11.230
10285SOL     OW32751  12.068   9.666  14.479
10285SOL    HW132752  12.110   9.747  14.509
10285SOL    HW232753  12.104   9.598  14.535
10286SOL     OW32754   8.789   3.554   8.885
10286SOL    HW132755   8.866   3.525   8.836
10286SOL    HW232756   8.716   3.543   8.823
10287SOL     OW32757  13.858  13.332   8.267
10287SOL    HW132758  13.945  13.371   8.267
10287SOL    HW232759  13.829  13.341   8.176
10288SOL     OW32760  14.703   0.656   5.649
10288SOL    HW132761  14.786   0.703   5.635
10288SOL    HW232762  14.668   0.693   5.730
10289SOL     OW32763   9.245  12.139   2.575
10289SOL    HW132764   9.287  12.090   2.645
10289SOL    HW232765   9.269  12.093   2.495
10290SOL     OW32766  11.832   7.368   9.969
10290SOL    HW132767  11.772   7.294   9.980
10290SOL    HW232768  11.918   7.332   9.986
10291SOL     OW32769   6.484  12.787  12.719
10291SOL    HW132770   6.456  12.788  12.627
10291SOL    HW232771   6.461  12.699  12.750
10292SOL     OW32772  12.676  11.065   8.362
10292SOL    HW132773  12.652  11.129   8.295
10292SOL    HW232774  12.636  11.099   8.443
10293SOL     OW32775  11.244   6.218  13.680
10293SOL    HW132776  11.278   6.151  13.740
10293SOL    HW232777  11.255   6.180  13.593
10294SOL     OW32778   3.497  10.430   5.507
10294SOL    HW132779   3.470  10.492   5.439
10294SOL    HW232780   3.540  10.359   5.460
10295SOL     OW32781   0.773   4.200   0.957
10295SOL    HW132782   0.858   4.234   0.930
10295SOL    HW232783   0.767   4.222   1.050
10296SOL     OW32784   1.979  14.489   3.007
10296SOL    HW132785   1.916  14.425   2.974
10296SOL    HW232786   1.947  14.573   2.975
10297SOL     OW32787   1.547   1.204  14.051
10297SOL    HW132788   1.623   1.233  14.102
10297SOL    HW232789   1.474   1.210  14.113
10298SOL     OW32790   2.727   9.195   9.764
10298SOL    HW132791   2.724   9.137   9.689
10298SOL    HW232792   2.635   9.218   9.781
10299SOL     OW32793   9.560   6.329  11.344
10299SOL    HW132794   9.647   6.296  11.366
10299SOL    HW232795   9.519   6.348  11.428
10300SOL     OW32796   2.907   3.848   1.657
10300SOL    HW132797   2.981   3.908   1.647
10300SOL    HW232798   2.933   3.790   1.729
10301SOL     OW32799   8.503   2.212   3.091
10301SOL    HW132800   8.595   2.187   3.098
10301SOL    HW232801   8.468   2.197   3.178
10302SOL     OW32802   9.507   2.957   0.698
10302SOL    HW132803   9.448   2.960   0.773
10302SOL    HW232804   9.453   2.925   0.626
10303SOL     OW32805  12.109  11.189   7.326
10303SOL    HW132806  12.125  11.197   7.232
10303SOL    HW232807  12.193  11.164   7.364
10304SOL     OW32808  11.726   1.275   3.174
10304SOL    HW132809  11.674   1.334   3.228
10304SOL    HW232810  11.667   1.248   3.103
10305SOL     OW32811  11.880   0.570   3.608
10305SOL    HW132812  11.961   0.526   3.630
10305SOL    HW232813  11.817   0.499   3.594
10306SOL     OW32814   7.982   2.939   1.630
10306SOL    HW132815   8.067   2.932   1.674
10306SOL    HW232816   7.974   2.857   1.581
10307SOL     OW32817   2.234  14.134  13.974
10307SOL    HW132818   2.219  14.087  14.057
10307SOL    HW232819   2.247  14.065  13.910
10308SOL     OW32820   3.032   4.633   4.829
10308SOL    HW132821   3.086   4.681   4.893
10308SOL    HW232822   2.949   4.617   4.874
10309SOL     OW32823   2.592  10.310   8.822
10309SOL    HW132824   2.507  10.283   8.786
10309SOL    HW232825   2.654  10.292   8.751
10310SOL     OW32826   4.472  11.042  14.726
10310SOL    HW132827   4.543  10.984  14.754
10310SOL    HW232828   4.406  11.034  14.796
10311SOL     OW32829   4.155  13.609  12.647
10311SOL    HW132830   4.153  13.705  12.648
10311SOL    HW232831   4.170  13.585  12.739
10312SOL     OW32832   7.168   1.279   5.636
10312SOL    HW132833   7.133   1.337   5.568
10312SOL    HW232834   7.115   1.298   5.713
10313SOL     OW32835   4.985  11.906   5.857
10313SOL    HW132836   4.918  11.897   5.924
10313SOL    HW232837   4.993  12.000   5.843
10314SOL     OW32838   3.765  10.606   6.317
10314SOL    HW132839   3.688  10.661   6.306
10314SOL    HW232840   3.788  10.579   6.228
10315SOL     OW32841   4.428   6.424  12.544
10315SOL    HW132842   4.377   6.478  12.483
10315SOL    HW232843   4.368   6.406  12.616
10316SOL     OW32844   4.985  10.006   2.595
10316SOL    HW132845   5.012  10.089   2.635
10316SOL    HW232846   4.893   9.996   2.620
10317SOL     OW32847   2.998  11.676   6.539
10317SOL    HW132848   2.923  11.669   6.598
10317SOL    HW232849   3.036  11.762   6.558
10318SOL     OW32850   5.428   1.726  11.441
10318SOL    HW132851   5.335   1.750  11.440
10318SOL    HW232852   5.432   1.652  11.501
10319SOL     OW32853   2.383   8.439  13.483
10319SOL    HW132854   2.459   8.496  13.487
10319SOL    HW232855   2.311   8.497  13.458
10320SOL     OW32856  11.642   1.008  10.213
10320SOL    HW132857  11.602   0.957  10.283
10320SOL    HW232858  11.571   1.064  10.181
10321SOL     OW32859   0.176   0.041  10.099
10321SOL    HW132860   0.137  14.869  10.028
10321SOL    HW232861   0.151  14.871  10.178
10322SOL     OW32862  10.361   4.321  11.802
10322SOL    HW132863  10.277   4.289  11.769
10322SOL    HW232864  10.364   4.413  11.774
10323SOL     OW32865  11.074  11.176   7.949
10323SOL    HW132866  11.160  11.141   7.928
10323SOL    HW232867  11.076  11.266   7.918
10324SOL     OW32868   3.195  13.753  10.529
10324SOL    HW132869   3.282  13.753  10.568
10324SOL    HW232870   3.144  13.692  10.582
10325SOL     OW32871  11.239   7.743   7.693
10325SOL    HW132872  11.279   7.830   7.696
10325SOL    HW232873  11.295   7.689   7.748
10326SOL     OW32874   4.943  10.136   8.791
10326SOL    HW132875   4.917  10.191   8.865
10326SOL    HW232876   5.022  10.091   8.821
10327SOL     OW32877   1.021   0.815  13.126
10327SOL    HW132878   1.113   0.839  13.137
10327SOL    HW232879   1.023   0.740  13.067
10328SOL     OW32880   1.633  12.812   1.233
10328SOL    HW132881   1.718  12.776   1.209
10328SOL    HW232882   1.652  12.899   1.267
10329SOL     OW32883   2.007   0.781   9.362
10329SOL    HW132884   1.964   0.699   9.338
10329SOL    HW232885   1.938   0.834   9.401
10330SOL     OW32886   0.129   1.060  11.497
10330SOL    HW132887   0.075   1.134  11.527
10330SOL    HW232888   0.212   1.070  11.544
10331SOL     OW32889   2.720   4.654   8.348
10331SOL    HW132890   2.766   4.570   8.352
10331SOL    HW232891   2.653   4.641   8.281
10332SOL     OW32892   0.274   4.537   5.724
10332SOL    HW132893   0.239   4.623   5.748
10332SOL    HW232894   0.241   4.478   5.791
10333SOL     OW32895   0.606  10.354   8.612
10333SOL    HW132896   0.666  10.281   8.597
10333SOL    HW232897   0.596  10.358   8.707
10334SOL     OW32898   1.408  14.521   8.985
10334SOL    HW132899   1.432  14.558   8.900
10334SOL    HW232900   1.433  14.588   9.048
10335SOL     OW32901  10.332  10.342  14.827
10335SOL    HW132902  10.421  10.320  14.798
10335SOL    HW232903  10.332  10.437  14.832
10336SOL     OW32904   2.758   3.852  11.478
10336SOL    HW132905   2.724   3.802  11.405
10336SOL    HW232906   2.841   3.810  11.499
10337SOL     OW32907   1.320   3.113   2.747
10337SOL    HW132908   1.338   3.119   2.653
10337SOL    HW232909   1.334   3.021   2.769
10338SOL     OW32910   0.805   8.768   8.129
10338SOL    HW132911   0.720   8.724   8.138
10338SOL    HW232912   0.868   8.706   8.167
10339SOL     OW32913  12.286   0.656  10.705
10339SOL    HW132914  12.344   0.656  10.629
10339SOL    HW232915  12.200   0.635  10.670
10340SOL     OW32916   0.999  14.742  13.490
10340SOL    HW132917   0.946  14.662  13.487
10340SOL    HW232918   0.941  14.810  13.455
10341SOL     OW32919  13.650   7.600  14.838
10341SOL    HW132920  13.647   7.537  14.766
10341SOL    HW232921  13.629   7.684  14.798
10342SOL     OW32922   1.320  13.668   9.128
10342SOL    HW132923   1.375  13.649   9.204
10342SOL    HW232924   1.340  13.760   9.107
10343SOL     OW32925  10.730   2.107   5.102
10343SOL    HW132926  10.812   2.150   5.128
10343SOL    HW232927  10.730   2.110   5.006
10344SOL     OW32928   4.723   1.462  12.084
10344SOL    HW132929   4.653   1.447  12.147
10344SOL    HW232930   4.679   1.458  11.998
10345SOL     OW32931   6.555   9.945   1.233
10345SOL    HW132932   6.651   9.941   1.236
10345SOL    HW232933   6.535   9.963   1.142
10346SOL     OW32934  13.223   5.327  14.230
10346SOL    HW132935  13.164   5.252  14.241
10346SOL    HW232936  13.207   5.382  14.307
10347SOL     OW32937  14.788   4.483   0.737
10347SOL    HW132938  14.849   4.557   0.733
10347SOL    HW232939  14.833   4.412   0.691
10348SOL     OW32940  14.333  14.316  13.656
10348SOL    HW132941  14.316  14.409  13.665
10348SOL    HW232942  14.380  14.292  13.736
10349SOL     OW32943   9.188   7.050  11.370
10349SOL    HW132944   9.174   7.064  11.277
10349SOL    HW232945   9.141   7.122  11.413
10350SOL     OW32946  12.323   0.688   0.156
10350SOL    HW132947  12.320   0.780   0.184
10350SOL    HW232948  12.315   0.693   0.060
10351SOL     OW32949   3.857   8.853   9.727
10351SOL    HW132950   3.950   8.866   9.746
10351SOL    HW232951   3.828   8.790   9.793
10352SOL     OW32952   6.262   0.973   2.484
10352SOL    HW132953   6.223   0.892   2.519
10352SOL    HW232954   6.340   0.987   2.537
10353SOL     OW32955   0.543   4.811  11.317
10353SOL    HW132956   0.517   4.902  11.301
10353SOL    HW232957   0.465   4.771  11.356
10354SOL     OW32958   3.811   8.838   3.871
10354SOL    HW132959   3.731   8.817   3.918
10354SOL    HW232960   3.810   8.934   3.865
10355SOL     OW32961  13.127  11.897   8.406
10355SOL    HW132962  13.121  11.803   8.418
10355SOL    HW232963  13.183  11.927   8.477
10356SOL     OW32964   5.567  11.414  14.010
10356SOL    HW132965   5.600  11.504  14.015
10356SOL    HW232966   5.487  11.415  14.063
10357SOL     OW32967   4.922   6.276   5.335
10357SOL    HW132968   4.992   6.341   5.342
10357SOL    HW232969   4.849   6.312   5.385
10358SOL     OW32970   9.762  14.516  14.023
10358SOL    HW132971   9.843  14.499  13.973
10358SOL    HW232972   9.786  14.588  14.082
10359SOL     OW32973   3.143   9.039   2.394
10359SOL    HW132974   3.144   9.122   2.345
10359SOL    HW232975   3.121   9.065   2.484
10360SOL     OW32976   9.596  14.235   6.250
10360SOL    HW132977   9.502  14.219   6.263
10360SOL    HW232978   9.604  14.331   6.250
10361SOL     OW32979   6.593   5.404   8.214
10361SOL    HW132980   6.662   5.463   8.183
10361SOL    HW232981   6.640   5.339   8.267
10362SOL     OW32982   9.085   1.028   1.963
10362SOL    HW132983   9.039   1.046   1.881
10362SOL    HW232984   9.157   0.971   1.938
10363SOL     OW32985  11.577  14.089  12.890
10363SOL    HW132986  11.633  14.152  12.935
10363SOL    HW232987  11.616  14.080  12.803
10364SOL     OW32988   6.411  13.606  13.446
10364SOL    HW132989   6.377  13.533  13.498
10364SOL    HW232990   6.334  13.640  13.400
10365SOL     OW32991   0.966  12.364   4.678
10365SOL    HW132992   0.934  12.450   4.704
10365SOL    HW232993   0.937  12.354   4.587
10366SOL     OW32994   9.543   8.748   9.121
10366SOL    HW132995   9.633   8.772   9.145
10366SOL    HW232996   9.506   8.712   9.202
10367SOL     OW32997   9.633  11.817   6.974
10367SOL    HW132998   9.552  11.776   6.945
10367SOL    HW232999   9.700  11.786   6.912
10368SOL     OW33000   5.323   7.628   2.890
10368SOL    HW133001   5.326   7.670   2.804
10368SOL    HW233002   5.361   7.692   2.950
10369SOL     OW33003  11.144   3.948   1.132
10369SOL    HW133004  11.237   3.925   1.131
10369SOL    HW233005  11.101   3.871   1.095
10370SOL     OW33006   4.806   6.338   6.311
10370SOL    HW133007   4.823   6.295   6.394
10370SOL    HW233008   4.824   6.430   6.327
10371SOL     OW33009  11.457   3.674  14.426
10371SOL    HW133010  11.384   3.613  14.419
10371SOL    HW233011  11.459   3.718  14.341
10372SOL     OW33012   2.668   4.273  11.683
10372SOL    HW133013   2.609   4.311  11.617
10372SOL    HW233014   2.739   4.235  11.632
10373SOL     OW33015  11.232   1.139   3.886
10373SOL    HW133016  11.251   1.156   3.978
10373SOL    HW233017  11.169   1.207   3.862
10374SOL     OW33018  13.618   7.815   7.169
10374SOL    HW133019  13.705   7.782   7.150
10374SOL    HW233020  13.627   7.860   7.253
10375SOL     OW33021   1.220   5.464   1.048
10375SOL    HW133022   1.226   5.559   1.052
10375SOL    HW233023   1.127   5.447   1.029
10376SOL     OW33024  12.816   7.935  11.392
10376SOL    HW133025  12.786   7.966  11.307
10376SOL    HW233026  12.796   8.008  11.452
10377SOL     OW33027   7.013   2.449   2.615
10377SOL    HW133028   7.089   2.400   2.649
10377SOL    HW233029   6.964   2.474   2.694
10378SOL     OW33030   4.108  14.050  13.998
10378SOL    HW133031   4.130  13.977  14.056
10378SOL    HW233032   4.026  14.025  13.958
10379SOL     OW33033  10.329   4.768   4.645
10379SOL    HW133034  10.251   4.819   4.626
10379SOL    HW233035  10.400   4.832   4.649
10380SOL     OW33036   1.267  12.704   1.692
10380SOL    HW133037   1.294  12.785   1.734
10380SOL    HW233038   1.266  12.724   1.598
10381SOL     OW33039  12.583   3.857   0.098
10381SOL    HW133040  12.561   3.883   0.008
10381SOL    HW233041  12.511   3.891   0.151
10382SOL     OW33042   1.156   2.832  10.033
10382SOL    HW133043   1.190   2.847  10.121
10382SOL    HW233044   1.175   2.740  10.015
10383SOL     OW33045   7.222   1.411   2.380
10383SOL    HW133046   7.139   1.368   2.358
10383SOL    HW233047   7.247   1.456   2.299
10384SOL     OW33048   1.494   1.235  11.583
10384SOL    HW133049   1.506   1.148  11.543
10384SOL    HW233050   1.575   1.251  11.631
10385SOL     OW33051  12.744   3.034   7.325
10385SOL    HW133052  12.674   3.092   7.356
10385SOL    HW233053  12.825   3.077   7.353
10386SOL     OW33054  10.649   4.767   6.158
10386SOL    HW133055  10.656   4.709   6.233
10386SOL    HW233056  10.615   4.849   6.194
10387SOL     OW33057  11.310   1.250  13.586
10387SOL    HW133058  11.264   1.274  13.506
10387SOL    HW233059  11.403   1.266  13.566
10388SOL     OW33060   8.657   9.847   6.601
10388SOL    HW133061   8.636   9.938   6.581
10388SOL    HW233062   8.584   9.797   6.564
10389SOL     OW33063  11.964   4.827   6.790
10389SOL    HW133064  11.968   4.824   6.885
10389SOL    HW233065  11.871   4.838   6.770
10390SOL     OW33066  11.329   1.055  12.922
10390SOL    HW133067  11.331   0.960  12.913
10390SOL    HW233068  11.416   1.078  12.955
10391SOL     OW33069   7.666   8.838  12.231
10391SOL    HW133070   7.596   8.838  12.296
10391SOL    HW233071   7.742   8.802  12.277
10392SOL     OW33072   9.731   6.085  13.854
10392SOL    HW133073   9.679   6.030  13.912
10392SOL    HW233074   9.700   6.174  13.872
10393SOL     OW33075  10.161  10.968  14.623
10393SOL    HW133076  10.256  10.968  14.618
10393SOL    HW233077  10.132  10.920  14.545
10394SOL     OW33078   4.248  13.572   6.642
10394SOL    HW133079   4.220  13.657   6.676
10394SOL    HW233080   4.176  13.512   6.663
10395SOL     OW33081  13.011  13.920  12.043
10395SOL    HW133082  12.935  13.898  11.990
10395SOL    HW233083  13.075  13.850  12.024
10396SOL     OW33084  13.113  11.746   8.930
10396SOL    HW133085  13.081  11.836   8.936
10396SOL    HW233086  13.125  11.718   9.021
10397SOL     OW33087   3.706   8.939   3.064
10397SOL    HW133088   3.733   8.985   3.144
10397SOL    HW233089   3.664   8.859   3.096
10398SOL     OW33090  11.342   8.649  14.197
10398SOL    HW133091  11.336   8.554  14.207
10398SOL    HW233092  11.374   8.680  14.282
10399SOL     OW33093   9.248   0.011  14.345
10399SOL    HW133094   9.332   0.035  14.383
10399SOL    HW233095   9.264   0.009  14.251
10400SOL     OW33096   3.897   9.146  13.169
10400SOL    HW133097   3.871   9.191  13.089
10400SOL    HW233098   3.888   9.212  13.238
10401SOL     OW33099   2.342  12.452  11.624
10401SOL    HW133100   2.403  12.498  11.682
10401SOL    HW233101   2.384  12.368  11.606
10402SOL     OW33102   1.725   6.053   5.783
10402SOL    HW133103   1.813   6.064   5.747
10402SOL    HW233104   1.671   6.035   5.706
10403SOL     OW33105   1.872   7.945  12.140
10403SOL    HW133106   1.954   7.994  12.146
10403SOL    HW233107   1.805   8.009  12.163
10404SOL     OW33108  12.393   5.640   6.952
10404SOL    HW133109  12.397   5.546   6.934
10404SOL    HW233110  12.434   5.680   6.875
10405SOL     OW33111   2.775   7.998  14.175
10405SOL    HW133112   2.755   7.915  14.219
10405SOL    HW233113   2.832   7.973  14.102
10406SOL     OW33114   2.921   2.712   8.753
10406SOL    HW133115   2.838   2.722   8.706
10406SOL    HW233116   2.950   2.801   8.771
10407SOL     OW33117   5.081   7.780  10.544
10407SOL    HW133118   5.012   7.731  10.500
10407SOL    HW233119   5.034   7.846  10.595
10408SOL     OW33120   4.403  11.315   8.368
10408SOL    HW133121   4.485  11.306   8.320
10408SOL    HW233122   4.353  11.236   8.345
10409SOL     OW33123   9.205  11.694  14.372
10409SOL    HW133124   9.176  11.630  14.437
10409SOL    HW233125   9.301  11.693  14.379
10410SOL     OW33126   6.083   1.902   1.462
10410SOL    HW133127   6.053   1.963   1.395
10410SOL    HW233128   6.138   1.954   1.520
10411SOL     OW33129   3.256   3.062   5.482
10411SOL    HW133130   3.248   3.025   5.570
10411SOL    HW233131   3.175   3.110   5.468
10412SOL     OW33132   0.071   2.787   2.872
10412SOL    HW133133  14.865   2.742   2.868
10412SOL    HW233134   0.064   2.844   2.949
10413SOL     OW33135  12.550   5.826  14.077
10413SOL    HW133136  12.625   5.883  14.097
10413SOL    HW233137  12.580   5.772  14.004
10414SOL     OW33138   0.579  10.003  10.563
10414SOL    HW133139   0.582  10.021  10.469
10414SOL    HW233140   0.635   9.926  10.574
10415SOL     OW33141   7.088  12.021   9.947
10415SOL    HW133142   7.130  11.935   9.940
10415SOL    HW233143   7.033  12.027   9.869
10416SOL     OW33144   0.297   7.073   4.862
10416SOL    HW133145   0.356   7.103   4.932
10416SOL    HW233146   0.288   7.148   4.804
10417SOL     OW33147  14.290  12.442   2.733
10417SOL    HW133148  14.279  12.503   2.661
10417SOL    HW233149  14.352  12.377   2.700
10418SOL     OW33150   4.529   3.879   1.391
10418SOL    HW133151   4.442   3.852   1.421
10418SOL    HW233152   4.521   3.885   1.295
10419SOL     OW33153  13.517  13.234   1.905
10419SOL    HW133154  13.444  13.234   1.842
10419SOL    HW233155  13.576  13.167   1.872
10420SOL     OW33156   6.448   5.595   2.579
10420SOL    HW133157   6.434   5.671   2.635
10420SOL    HW233158   6.466   5.524   2.640
10421SOL     OW33159   4.807   7.302   6.053
10421SOL    HW133160   4.851   7.385   6.036
10421SOL    HW233161   4.769   7.276   5.970
10422SOL     OW33162   6.888   6.458  14.146
10422SOL    HW133163   6.856   6.464  14.236
10422SOL    HW233164   6.983   6.451  14.154
10423SOL     OW33165  12.944   1.724  10.446
10423SOL    HW133166  12.892   1.676  10.382
10423SOL    HW233167  12.954   1.662  10.519
10424SOL     OW33168  12.011   1.930   0.637
10424SOL    HW133169  12.013   1.864   0.707
10424SOL    HW233170  12.086   1.986   0.655
10425SOL     OW33171   3.220   1.466  10.806
10425SOL    HW133172   3.265   1.467  10.890
10425SOL    HW233173   3.287   1.489  10.742
10426SOL     OW33174   1.982   3.180   6.038
10426SOL    HW133175   1.889   3.196   6.027
10426SOL    HW233176   2.000   3.204   6.129
10427SOL     OW33177  12.426   9.192   7.498
10427SOL    HW133178  12.365   9.218   7.567
10427SOL    HW233179  12.438   9.098   7.510
10428SOL     OW33180   4.528   1.304   0.893
10428SOL    HW133181   4.569   1.289   0.978
10428SOL    HW233182   4.578   1.376   0.855
10429SOL     OW33183  14.768   5.009   0.038
10429SOL    HW133184  14.736   5.041   0.122
10429SOL    HW233185  14.861   4.991   0.054
10430SOL     OW33186   1.496  12.331   8.556
10430SOL    HW133187   1.553  12.283   8.496
10430SOL    HW233188   1.474  12.412   8.510
10431SOL     OW33189  13.777   6.578   8.834
10431SOL    HW133190  13.827   6.498   8.816
10431SOL    HW233191  13.739   6.564   8.920
10432SOL     OW33192   1.174   6.097  14.728
10432SOL    HW133193   1.229   6.037  14.779
10432SOL    HW233194   1.171   6.177  14.780
10433SOL     OW33195   9.974   4.518  12.903
10433SOL    HW133196   9.902   4.456  12.892
10433SOL    HW233197  10.030   4.503  12.828
10434SOL     OW33198   8.220   8.200   8.495
10434SOL    HW133199   8.311   8.184   8.517
10434SOL    HW233200   8.193   8.271   8.554
10435SOL     OW33201   6.252  10.034  10.840
10435SOL    HW133202   6.303   9.996  10.912
10435SOL    HW233203   6.311  10.099  10.802
10436SOL     OW33204  12.777   9.853   8.271
10436SOL    HW133205  12.727   9.776   8.297
10436SOL    HW233206  12.731   9.887   8.195
10437SOL     OW33207  13.767   9.810   2.048
10437SOL    HW133208  13.744   9.752   2.121
10437SOL    HW233209  13.691   9.867   2.037
10438SOL     OW33210   1.725   1.759  10.579
10438SOL    HW133211   1.776   1.680  10.596
10438SOL    HW233212   1.672   1.737  10.503
10439SOL     OW33213   2.120   0.613  13.206
10439SOL    HW133214   2.063   0.676  13.250
10439SOL    HW233215   2.163   0.566  13.278
10440SOL     OW33216   8.457   8.097   8.201
10440SOL    HW133217   8.456   8.003   8.183
10440SOL    HW233218   8.523   8.108   8.270
10441SOL     OW33219  13.961   0.180   7.582
10441SOL    HW133220  13.946   0.178   7.676
10441SOL    HW233221  14.023   0.252   7.569
10442SOL     OW33222   7.986  13.266  14.572
10442SOL    HW133223   8.061  13.304  14.526
10442SOL    HW233224   7.910  13.303  14.527
10443SOL     OW33225   2.444  14.595   7.008
10443SOL    HW133226   2.383  14.547   7.064
10443SOL    HW233227   2.501  14.641   7.069
10444SOL     OW33228   5.196   2.575  13.279
10444SOL    HW133229   5.266   2.636  13.255
10444SOL    HW233230   5.229   2.489  13.254
10445SOL     OW33231   3.470  10.971  14.068
10445SOL    HW133232   3.379  11.001  14.066
10445SOL    HW233233   3.498  10.986  14.158
10446SOL     OW33234   6.111  14.530  13.217
10446SOL    HW133235   6.015  14.530  13.212
10446SOL    HW233236   6.130  14.553  13.308
10447SOL     OW33237   4.378   9.097   3.301
10447SOL    HW133238   4.365   9.155   3.375
10447SOL    HW233239   4.465   9.059   3.316
10448SOL     OW33240  11.991  13.676   4.302
10448SOL    HW133241  11.982  13.634   4.387
10448SOL    HW233242  12.041  13.613   4.249
10449SOL     OW33243   3.491  13.239   3.506
10449SOL    HW133244   3.512  13.304   3.440
10449SOL    HW233245   3.539  13.267   3.584
10450SOL     OW33246   6.823   9.967   1.276
10450SOL    HW133247   6.873   9.891   1.304
10450SOL    HW233248   6.886  10.021   1.227
10451SOL     OW33249   1.990   0.906  14.250
10451SOL    HW133250   2.008   0.990  14.209
10451SOL    HW233251   2.068   0.853  14.231
10452SOL     OW33252  12.940   0.993   6.884
10452SOL    HW133253  13.018   0.999   6.829
10452SOL    HW233254  12.933   1.078   6.927
10453SOL     OW33255  14.214  14.067   7.922
10453SOL    HW133256  14.119  14.068   7.921
10453SOL    HW233257  14.240  14.159   7.922
10454SOL     OW33258   7.112   4.025   5.791
10454SOL    HW133259   7.126   3.933   5.817
10454SOL    HW233260   7.116   4.074   5.873
10455SOL     OW33261  11.422   2.455  11.928
10455SOL    HW133262  11.492   2.423  11.985
10455SOL    HW233263  11.459   2.454  11.840
10456SOL     OW33264   0.876  10.787   8.900
10456SOL    HW133265   0.960  10.818   8.931
10456SOL    HW233266   0.821  10.865   8.896
10457SOL     OW33267   3.020   3.197   5.988
10457SOL    HW133268   2.926   3.203   5.970
10457SOL    HW233269   3.046   3.287   6.011
10458SOL     OW33270   4.820   9.529   9.670
10458SOL    HW133271   4.814   9.616   9.631
10458SOL    HW233272   4.898   9.490   9.630
10459SOL     OW33273   6.833  13.563  11.976
10459SOL    HW133274   6.884  13.603  11.905
10459SOL    HW233275   6.783  13.494  11.933
10460SOL     OW33276   9.545  14.345   3.931
10460SOL    HW133277   9.525  14.433   3.961
10460SOL    HW233278   9.614  14.358   3.866
10461SOL     OW33279   6.385  14.726   2.120
10461SOL    HW133280   6.438  14.765   2.189
10461SOL    HW233281   6.306  14.780   2.116
10462SOL     OW33282   5.008  12.374  12.928
10462SOL    HW133283   4.917  12.345  12.936
10462SOL    HW233284   5.021  12.435  13.000
10463SOL     OW33285  10.099   5.835   4.246
10463SOL    HW133286  10.085   5.873   4.159
10463SOL    HW233287  10.019   5.784   4.262
10464SOL     OW33288  10.562  13.024  12.262
10464SOL    HW133289  10.637  12.963  12.263
10464SOL    HW233290  10.527  13.019  12.351
10465SOL     OW33291  11.485   5.684   7.858
10465SOL    HW133292  11.411   5.741   7.836
10465SOL    HW233293  11.507   5.641   7.775
10466SOL     OW33294  12.813   2.429  10.548
10466SOL    HW133295  12.723   2.396  10.555
10466SOL    HW233296  12.849   2.384  10.472
10467SOL     OW33297   4.085   6.493   5.289
10467SOL    HW133298   4.170   6.517   5.326
10467SOL    HW233299   4.094   6.513   5.195
10468SOL     OW33300   2.534  12.130  14.550
10468SOL    HW133301   2.457  12.077  14.570
10468SOL    HW233302   2.531  12.201  14.614
10469SOL     OW33303   8.285   8.825   7.640
10469SOL    HW133304   8.252   8.790   7.558
10469SOL    HW233305   8.226   8.789   7.707
10470SOL     OW33306  12.528   9.277   3.860
10470SOL    HW133307  12.483   9.195   3.877
10470SOL    HW233308  12.466   9.345   3.886
10471SOL     OW33309   6.675  11.726  14.106
10471SOL    HW133310   6.587  11.700  14.081
10471SOL    HW233311   6.710  11.649  14.152
10472SOL     OW33312  13.089   4.383   8.403
10472SOL    HW133313  13.097   4.468   8.360
10472SOL    HW233314  13.166   4.376   8.459
10473SOL     OW33315   7.069  12.343   7.374
10473SOL    HW133316   6.996  12.308   7.323
10473SOL    HW233317   7.146  12.325   7.320
10474SOL     OW33318   1.780  11.651  10.074
10474SOL    HW133319   1.703  11.614  10.117
10474SOL    HW233320   1.785  11.741  10.106
10475SOL     OW33321   4.911  14.181   2.596
10475SOL    HW133322   4.908  14.131   2.514
10475SOL    HW233323   5.004  14.192   2.614
10476SOL     OW33324   8.208   4.021   2.557
10476SOL    HW133325   8.179   3.970   2.482
10476SOL    HW233326   8.137   4.011   2.621
10477SOL     OW33327   7.225   5.122   9.654
10477SOL    HW133328   7.253   5.161   9.737
10477SOL    HW233329   7.282   5.046   9.643
10478SOL     OW33330   2.708  11.382   5.157
10478SOL    HW133331   2.762  11.348   5.085
10478SOL    HW233332   2.771  11.419   5.219
10479SOL     OW33333   7.434  10.436   2.250
10479SOL    HW133334   7.360  10.403   2.302
10479SOL    HW233335   7.502  10.370   2.261
10480SOL     OW33336   9.734  13.942  13.792
10480SOL    HW133337   9.795  13.899  13.731
10480SOL    HW233338   9.791  13.987  13.855
10481SOL     OW33339  12.662   1.024   5.284
10481SOL    HW133340  12.608   0.989   5.354
10481SOL    HW233341  12.600   1.067   5.225
10482SOL     OW33342   3.096   7.027  10.540
10482SOL    HW133343   3.003   7.007  10.538
10482SOL    HW233344   3.112   7.074  10.458
10483SOL     OW33345   5.147   5.703   9.011
10483SOL    HW133346   5.195   5.685   8.931
10483SOL    HW233347   5.204   5.671   9.081
10484SOL     OW33348   6.173  11.078  13.384
10484SOL    HW133349   6.103  11.062  13.321
10484SOL    HW233350   6.128  11.097  13.466
10485SOL     OW33351  10.716   0.006  11.494
10485SOL    HW133352  10.698  14.789  11.497
10485SOL    HW233353  10.803   0.013  11.455
10486SOL     OW33354   4.521  12.250   8.887
10486SOL    HW133355   4.493  12.213   8.804
10486SOL    HW233356   4.606  12.210   8.904
10487SOL     OW33357   3.261  13.351  13.288
10487SOL    HW133358   3.319  13.289  13.244
10487SOL    HW233359   3.262  13.324  13.380
10488SOL     OW33360  10.841  13.393  12.931
10488SOL    HW133361  10.879  13.306  12.926
10488SOL    HW233362  10.914  13.450  12.953
10489SOL     OW33363   9.711   0.973  10.984
10489SOL    HW133364   9.625   1.014  10.977
10489SOL    HW233365   9.731   0.944  10.895
10490SOL     OW33366  14.790   2.222   2.964
10490SOL    HW133367  14.818   2.150   3.020
10490SOL    HW233368  14.802   2.300   3.018
10491SOL     OW33369   6.096   7.552   0.224
10491SOL    HW133370   6.124   7.629   0.175
10491SOL    HW233371   6.024   7.583   0.279
10492SOL     OW33372  13.040   6.819   3.565
10492SOL    HW133373  13.053   6.727   3.541
10492SOL    HW233374  13.076   6.826   3.653
10493SOL     OW33375   1.374   0.270   6.176
10493SOL    HW133376   1.467   0.283   6.192
10493SOL    HW233377   1.359   0.176   6.191
10494SOL     OW33378  14.314  14.742   6.252
10494SOL    HW133379  14.369  14.679   6.299
10494SOL    HW233380  14.355  14.827   6.266
10495SOL     OW33381   3.388   1.628   7.002
10495SOL    HW133382   3.360   1.542   7.033
10495SOL    HW233383   3.432   1.610   6.918
10496SOL     OW33384   6.068  13.605  13.076
10496SOL    HW133385   6.160  13.613  13.049
10496SOL    HW233386   6.051  13.511  13.075
10497SOL     OW33387   4.577   1.338  12.815
10497SOL    HW133388   4.612   1.384  12.891
10497SOL    HW233389   4.517   1.274  12.852
10498SOL     OW33390   0.793  11.346  10.069
10498SOL    HW133391   0.793  11.441  10.055
10498SOL    HW233392   0.864  11.331  10.132
10499SOL     OW33393   6.790   1.074  13.481
10499SOL    HW133394   6.790   1.071  13.577
10499SOL    HW233395   6.729   1.005  13.455
10500SOL     OW33396   1.748  14.145   4.523
10500SOL    HW133397   1.774  14.117   4.611
10500SOL    HW233398   1.666  14.192   4.536
10501SOL     OW33399  10.119  13.048   1.522
10501SOL    HW133400  10.084  13.119   1.468
10501SOL    HW233401  10.077  12.969   1.488
10502SOL     OW33402   9.277   7.960   4.293
10502SOL    HW133403   9.368   7.983   4.311
10502SOL    HW233404   9.227   8.028   4.339
10503SOL     OW33405  11.472   3.904  14.606
10503SOL    HW133406  11.488   3.826  14.553
10503SOL    HW233407  11.492   3.877  14.696
10504SOL     OW33408   8.430   2.205   5.103
10504SOL    HW133409   8.386   2.209   5.019
10504SOL    HW233410   8.523   2.221   5.083
10505SOL     OW33411  10.585   0.145   6.442
10505SOL    HW133412  10.629   0.137   6.358
10505SOL    HW233413  10.652   0.182   6.500
10506SOL     OW33414   7.857   4.392   9.030
10506SOL    HW133415   7.840   4.486   9.034
10506SOL    HW233416   7.770   4.353   9.025
10507SOL     OW33417  12.629   6.421  11.119
10507SOL    HW133418  12.561   6.355  11.109
10507SOL    HW233419  12.700   6.391  11.061
10508SOL     OW33420  10.288  12.600  13.046
10508SOL    HW133421  10.292  12.582  12.952
10508SOL    HW233422  10.259  12.691  13.051
10509SOL     OW33423  14.275   4.329   7.402
10509SOL    HW133424  14.186   4.365   7.397
10509SOL    HW233425  14.312   4.371   7.480
10510SOL     OW33426  12.835   4.394   0.818
10510SOL    HW133427  12.759   4.420   0.871
10510SOL    HW233428  12.800   4.379   0.731
10511SOL     OW33429   5.346   4.441  11.011
10511SOL    HW133430   5.339   4.434  10.916
10511SOL    HW233431   5.266   4.400  11.044
10512SOL     OW33432   0.550  13.651  10.480
10512SOL    HW133433   0.619  13.597  10.442
10512SOL    HW233434   0.562  13.643  10.574
10513SOL     OW33435  10.269  13.655   1.555
10513SOL    HW133436  10.229  13.568   1.566
10513SOL    HW233437  10.340  13.640   1.493
10514SOL     OW33438   3.384   1.138   5.824
10514SOL    HW133439   3.337   1.222   5.829
10514SOL    HW233440   3.331   1.086   5.764
10515SOL     OW33441   3.259   6.736  13.185
10515SOL    HW133442   3.246   6.782  13.102
10515SOL    HW233443   3.309   6.658  13.161
10516SOL     OW33444  13.759   0.802   9.809
10516SOL    HW133445  13.678   0.768   9.845
10516SOL    HW233446  13.828   0.762   9.861
10517SOL     OW33447   3.808  11.039   9.441
10517SOL    HW133448   3.888  10.988   9.429
10517SOL    HW233449   3.828  11.125   9.405
10518SOL     OW33450   9.219   8.557   8.220
10518SOL    HW133451   9.125   8.570   8.217
10518SOL    HW233452   9.255   8.624   8.162
10519SOL     OW33453  13.184  12.756   5.071
10519SOL    HW133454  13.119  12.697   5.110
10519SOL    HW233455  13.134  12.806   5.006
10520SOL     OW33456  10.188  12.934   6.336
10520SOL    HW133457  10.237  12.977   6.265
10520SOL    HW233458  10.185  13.000   6.406
10521SOL     OW33459   1.905   2.259   7.381
10521SOL    HW133460   1.835   2.320   7.363
10521SOL    HW233461   1.889   2.185   7.323
10522SOL     OW33462   1.994  12.672   2.983
10522SOL    HW133463   2.061  12.716   2.931
10522SOL    HW233464   1.919  12.664   2.924
10523SOL     OW33465  12.966  12.565  10.350
10523SOL    HW133466  13.021  12.524  10.284
10523SOL    HW233467  12.913  12.494  10.385
10524SOL     OW33468   9.807   6.855   5.332
10524SOL    HW133469   9.718   6.884   5.352
10524SOL    HW233470   9.796   6.798   5.256
10525SOL     OW33471  11.765  11.592   9.279
10525SOL    HW133472  11.853  11.593   9.315
10525SOL    HW233473  11.775  11.625   9.190
10526SOL     OW33474   8.703   9.004  13.986
10526SOL    HW133475   8.607   9.011  13.988
10526SOL    HW233476   8.720   8.911  13.999
10527SOL     OW33477  12.959   7.277   7.880
10527SOL    HW133478  12.923   7.269   7.968
10527SOL    HW233479  12.923   7.202   7.832
10528SOL     OW33480   4.129   1.725   4.910
10528SOL    HW133481   4.166   1.649   4.866
10528SOL    HW233482   4.139   1.797   4.847
10529SOL     OW33483   2.712   6.480   3.195
10529SOL    HW133484   2.705   6.453   3.286
10529SOL    HW233485   2.706   6.575   3.196
10530SOL     OW33486  10.032  13.897  13.999
10530SOL    HW133487  10.039  13.804  13.977
10530SOL    HW233488  10.028  13.899  14.094
10531SOL     OW33489   5.940   4.711  11.203
10531SOL    HW133490   6.012   4.649  11.195
10531SOL    HW233491   5.898   4.710  11.116
10532SOL     OW33492  13.057  11.543  11.276
10532SOL    HW133493  13.072  11.609  11.208
10532SOL    HW233494  13.040  11.462  11.227
10533SOL     OW33495   4.688   1.755   0.511
10533SOL    HW133496   4.776   1.776   0.543
10533SOL    HW233497   4.680   1.804   0.429
10534SOL     OW33498   1.186   9.564   1.368
10534SOL    HW133499   1.224   9.535   1.285
10534SOL    HW233500   1.092   9.576   1.350
10535SOL     OW33501   3.729   2.631  13.933
10535SOL    HW133502   3.666   2.566  13.964
10535SOL    HW233503   3.783   2.650  14.009
10536SOL     OW33504   4.154   2.842  13.355
10536SOL    HW133505   4.229   2.788  13.381
10536SOL    HW233506   4.133   2.894  13.432
10537SOL     OW33507  12.242   1.347   7.586
10537SOL    HW133508  12.316   1.286   7.584
10537SOL    HW233509  12.165   1.290   7.598
10538SOL     OW33510   2.640   4.978   1.721
10538SOL    HW133511   2.620   5.063   1.759
10538SOL    HW233512   2.575   4.918   1.759
10539SOL     OW33513   7.612  13.255   4.893
10539SOL    HW133514   7.615  13.259   4.797
10539SOL    HW233515   7.692  13.210   4.918
10540SOL     OW33516   3.960   4.285  12.044
10540SOL    HW133517   3.886   4.226  12.053
10540SOL    HW233518   3.948   4.350  12.113
10541SOL     OW33519   8.321   2.115  11.381
10541SOL    HW133520   8.310   2.036  11.328
10541SOL    HW233521   8.301   2.187  11.321
10542SOL     OW33522  11.952   1.379   0.915
10542SOL    HW133523  12.005   1.300   0.921
10542SOL    HW233524  11.914   1.376   0.827
10543SOL     OW33525   9.401   2.502  10.556
10543SOL    HW133526   9.346   2.518  10.479
10543SOL    HW233527   9.459   2.430  10.529
10544SOL     OW33528   2.865   6.922   4.281
10544SOL    HW133529   2.866   6.992   4.346
10544SOL    HW233530   2.927   6.857   4.315
10545SOL     OW33531   9.654   4.959   0.301
10545SOL    HW133532   9.661   5.050   0.274
10545SOL    HW233533   9.675   4.961   0.395
10546SOL     OW33534   9.024   8.570   1.222
10546SOL    HW133535   9.102   8.622   1.243
10546SOL    HW233536   8.951   8.621   1.257
10547SOL     OW33537   0.709   5.775   6.820
10547SOL    HW133538   0.646   5.782   6.892
10547SOL    HW233539   0.793   5.761   6.864
10548SOL     OW33540  14.602   0.123   8.353
10548SOL    HW133541  14.599   0.171   8.436
10548SOL    HW233542  14.623   0.033   8.379
10549SOL     OW33543  12.204   8.696   0.966
10549SOL    HW133544  12.158   8.760   1.020
10549SOL    HW233545  12.278   8.667   1.020
10550SOL     OW33546   8.568   7.215  10.635
10550SOL    HW133547   8.577   7.292  10.578
10550SOL    HW233548   8.564   7.251  10.723
10551SOL     OW33549   9.283  13.686   5.123
10551SOL    HW133550   9.190  13.693   5.143
10551SOL    HW233551   9.327  13.707   5.206
10552SOL     OW33552   9.128   0.838   4.551
10552SOL    HW133553   9.169   0.755   4.574
10552SOL    HW233554   9.037   0.816   4.531
10553SOL     OW33555   4.798   6.919   3.944
10553SOL    HW133556   4.826   6.833   3.975
10553SOL    HW233557   4.873   6.975   3.958
10554SOL     OW33558  10.631   3.878   2.049
10554SOL    HW133559  10.626   3.899   2.142
10554SOL    HW233560  10.556   3.923   2.010
10555SOL     OW33561  12.117  14.076   2.594
10555SOL    HW133562  12.158  14.036   2.518
10555SOL    HW233563  12.186  14.080   2.660
10556SOL     OW33564  13.481  10.008  11.641
10556SOL    HW133565  13.491  10.018  11.547
10556SOL    HW233566  13.436  10.087  11.670
10557SOL     OW33567   1.270  10.120  12.496
10557SOL    HW133568   1.299  10.162  12.577
10557SOL    HW233569   1.213  10.049  12.526
10558SOL     OW33570  12.221  12.871   9.882
10558SOL    HW133571  12.228  12.956   9.840
10558SOL    HW233572  12.174  12.889   9.964
10559SOL     OW33573   7.394   3.005  12.341
10559SOL    HW133574   7.345   2.932  12.302
10559SOL    HW233575   7.326   3.062  12.377
10560SOL     OW33576   3.128   7.354   8.825
10560SOL    HW133577   3.124   7.449   8.829
10560SOL    HW233578   3.106   7.325   8.914
10561SOL     OW33579   4.765  14.219   2.276
10561SOL    HW133580   4.703  14.205   2.347
10561SOL    HW233581   4.831  14.151   2.288
10562SOL     OW33582   2.789  14.554  11.149
10562SOL    HW133583   2.707  14.511  11.174
10562SOL    HW233584   2.819  14.597  11.229
10563SOL     OW33585   5.605   1.090   9.677
10563SOL    HW133586   5.556   1.018   9.717
10563SOL    HW233587   5.631   1.056   9.591
10564SOL     OW33588   0.460   3.608   1.599
10564SOL    HW133589   0.428   3.697   1.585
10564SOL    HW233590   0.462   3.569   1.512
10565SOL     OW33591  10.481  12.832   7.661
10565SOL    HW133592  10.533  12.907   7.633
10565SOL    HW233593  10.495  12.829   7.756
10566SOL     OW33594   8.455   3.106  11.304
10566SOL    HW133595   8.359   3.101  11.296
10566SOL    HW233596   8.480   3.021  11.341
10567SOL     OW33597  14.633  12.041   0.474
10567SOL    HW133598  14.576  12.046   0.397
10567SOL    HW233599  14.576  12.011   0.545
10568SOL     OW33600  10.718  11.014   8.528
10568SOL    HW133601  10.683  11.103   8.535
10568SOL    HW233602  10.804  11.020   8.569
10569SOL     OW33603   6.208   6.638   1.338
10569SOL    HW133604   6.177   6.604   1.422
10569SOL    HW233605   6.281   6.695   1.360
10570SOL     OW33606   9.610   5.380   4.396
10570SOL    HW133607   9.567   5.454   4.438
10570SOL    HW233608   9.614   5.312   4.463
10571SOL     OW33609   1.259   4.270   5.407
10571SOL    HW133610   1.352   4.293   5.397
10571SOL    HW233611   1.259   4.175   5.418
10572SOL     OW33612   1.996  12.969  10.346
10572SOL    HW133613   2.086  13.003  10.346
10572SOL    HW233614   1.966  12.981  10.256
10573SOL     OW33615  13.203   6.001  14.156
10573SOL    HW133616  13.192   6.096  14.160
10573SOL    HW233617  13.277   5.982  14.214
10574SOL     OW33618   2.231   7.806   2.700
10574SOL    HW133619   2.191   7.790   2.786
10574SOL    HW233620   2.307   7.861   2.718
10575SOL     OW33621   0.397   5.906   9.663
10575SOL    HW133622   0.400   5.811   9.657
10575SOL    HW233623   0.345   5.924   9.742
10576SOL     OW33624   5.736   6.021   6.096
10576SOL    HW133625   5.745   6.012   6.191
10576SOL    HW233626   5.814   5.980   6.060
10577SOL     OW33627   1.692   2.380   0.884
10577SOL    HW133628   1.695   2.343   0.796
10577SOL    HW233629   1.627   2.326   0.929
10578SOL     OW33630  14.499   6.380   3.499
10578SOL    HW133631  14.545   6.432   3.566
10578SOL    HW233632  14.550   6.300   3.493
10579SOL     OW33633   2.505  13.475   8.946
10579SOL    HW133634   2.599  13.459   8.955
10579SOL    HW233635   2.483  13.535   9.016
10580SOL     OW33636   8.602  13.165  13.701
10580SOL    HW133637   8.534  13.169  13.634
10580SOL    HW233638   8.665  13.233  13.675
10581SOL     OW33639   7.618  11.901   0.801
10581SOL    HW133640   7.598  11.972   0.861
10581SOL    HW233641   7.534  11.879   0.761
10582SOL     OW33642  11.633   5.986  12.852
10582SOL    HW133643  11.694   5.940  12.909
10582SOL    HW233644  11.586   5.915  12.807
10583SOL     OW33645   0.658   1.794  14.343
10583SOL    HW133646   0.739   1.802  14.393
10583SOL    HW233647   0.590   1.830  14.401
10584SOL     OW33648   0.405  13.950   3.532
10584SOL    HW133649   0.463  13.898   3.588
10584SOL    HW233650   0.445  13.945   3.445
10585SOL     OW33651   3.074   0.609   8.170
10585SOL    HW133652   2.988   0.648   8.158
10585SOL    HW233653   3.111   0.653   8.246
10586SOL     OW33654  11.856  11.903   2.912
10586SOL    HW133655  11.762  11.890   2.925
10586SOL    HW233656  11.895  11.883   2.997
10587SOL     OW33657   3.142   1.200  10.025
10587SOL    HW133658   3.063   1.167  10.068
10587SOL    HW233659   3.164   1.281  10.073
10588SOL     OW33660  12.049   4.692   7.661
10588SOL    HW133661  12.134   4.711   7.620
10588SOL    HW233662  12.072   4.652   7.745
10589SOL     OW33663  14.812   2.644   8.739
10589SOL    HW133664  14.846   2.563   8.778
10589SOL    HW233665  14.744   2.615   8.679
10590SOL     OW33666   9.713   9.688   3.020
10590SOL    HW133667   9.629   9.673   2.978
10590SOL    HW233668   9.776   9.639   2.968
10591SOL     OW33669   3.058   3.202  11.467
10591SOL    HW133670   3.090   3.152  11.542
10591SOL    HW233671   3.127   3.266  11.449
10592SOL     OW33672  11.226   2.571  13.463
10592SOL    HW133673  11.238   2.571  13.558
10592SOL    HW233674  11.132   2.575  13.450
10593SOL     OW33675  13.626   5.256  11.148
10593SOL    HW133676  13.620   5.308  11.068
10593SOL    HW233677  13.539   5.265  11.189
10594SOL     OW33678   3.277   3.971   4.725
10594SOL    HW133679   3.372   3.971   4.725
10594SOL    HW233680   3.253   4.033   4.656
10595SOL     OW33681   7.453   0.681   7.873
10595SOL    HW133682   7.507   0.754   7.842
10595SOL    HW233683   7.365   0.700   7.839
10596SOL     OW33684   2.976  12.167  14.359
10596SOL    HW133685   2.991  12.261  14.366
10596SOL    HW233686   3.051  12.135  14.308
10597SOL     OW33687   6.614  11.052  14.254
10597SOL    HW133688   6.548  10.985  14.238
10597SOL    HW233689   6.636  11.044  14.346
10598SOL     OW33690   4.972   7.938   5.234
10598SOL    HW133691   4.912   7.948   5.160
10598SOL    HW233692   5.055   7.913   5.195
10599SOL     OW33693   0.777   5.752  14.396
10599SOL    HW133694   0.780   5.834  14.346
10599SOL    HW233695   0.868   5.737  14.422
10600SOL     OW33696   2.138   0.760   6.045
10600SOL    HW133697   2.173   0.675   6.018
10600SOL    HW233698   2.215   0.815   6.057
10601SOL     OW33699   9.061   8.078   2.111
10601SOL    HW133700   9.067   8.163   2.068
10601SOL    HW233701   9.023   8.097   2.197
10602SOL     OW33702  13.520  13.463  12.184
10602SOL    HW133703  13.519  13.510  12.267
10602SOL    HW233704  13.595  13.404  12.191
10603SOL     OW33705   2.108   5.615   8.281
10603SOL    HW133706   2.043   5.684   8.286
10603SOL    HW233707   2.167   5.631   8.355
10604SOL     OW33708   4.605   3.191  14.862
10604SOL    HW133709   4.696   3.196  14.833
10604SOL    HW233710   4.581   3.283   0.000
10605SOL     OW33711  10.703  12.645  10.538
10605SOL    HW133712  10.689  12.622  10.446
10605SOL    HW233713  10.671  12.735  10.545
10606SOL     OW33714  14.284   0.677  12.349
10606SOL    HW133715  14.308   0.585  12.361
10606SOL    HW233716  14.202   0.675  12.300
10607SOL     OW33717   0.695   3.685   2.648
10607SOL    HW133718   0.760   3.689   2.578
10607SOL    HW233719   0.611   3.697   2.605
10608SOL     OW33720   7.453  10.886   5.267
10608SOL    HW133721   7.382  10.842   5.221
10608SOL    HW233722   7.413  10.921   5.347
10609SOL     OW33723   9.017  14.343   0.331
10609SOL    HW133724   9.076  14.280   0.290
10609SOL    HW233725   8.949  14.288   0.372
10610SOL     OW33726  14.428  10.749  13.077
10610SOL    HW133727  14.359  10.683  13.070
10610SOL    HW233728  14.382  10.833  13.069
10611SOL     OW33729  13.477   3.429   5.103
10611SOL    HW133730  13.385   3.450   5.086
10611SOL    HW233731  13.519   3.434   5.017
10612SOL     OW33732  10.092  11.978  12.374
10612SOL    HW133733  10.021  11.928  12.334
10612SOL    HW233734  10.133  11.916  12.435
10613SOL     OW33735  10.930  11.410  13.105
10613SOL    HW133736  10.885  11.409  13.020
10613SOL    HW233737  10.939  11.503  13.126
10614SOL     OW33738   9.121   2.335  14.128
10614SOL    HW133739   9.088   2.247  14.116
10614SOL    HW233740   9.156   2.336  14.217
10615SOL     OW33741   0.269  10.609   3.354
10615SOL    HW133742   0.296  10.700   3.364
10615SOL    HW233743   0.249  10.580   3.443
10616SOL     OW33744   0.745   7.625   5.133
10616SOL    HW133745   0.821   7.571   5.156
10616SOL    HW233746   0.748   7.632   5.038
10617SOL     OW33747   3.241   8.991  13.895
10617SOL    HW133748   3.174   8.922  13.893
10617SOL    HW233749   3.318   8.950  13.855
10618SOL     OW33750   7.464  14.650   1.949
10618SOL    HW133751   7.442  14.675   1.859
10618SOL    HW233752   7.515  14.723   1.982
10619SOL     OW33753   3.371   1.633  13.503
10619SOL    HW133754   3.282   1.634  13.538
10619SOL    HW233755   3.412   1.557  13.546
10620SOL     OW33756   2.545   9.959   6.276
10620SOL    HW133757   2.477   9.917   6.223
10620SOL    HW233758   2.575  10.032   6.223
10621SOL     OW33759  10.987   8.751  10.599
10621SOL    HW133760  11.046   8.826  10.590
10621SOL    HW233761  10.935   8.771  10.677
10622SOL     OW33762  14.508  12.568   7.135
10622SOL    HW133763  14.554  12.614   7.206
10622SOL    HW233764  14.569  12.572   7.061
10623SOL     OW33765  13.264   7.319   0.818
10623SOL    HW133766  13.299   7.323   0.729
10623SOL    HW233767  13.313   7.249   0.860
10624SOL     OW33768   3.994   5.567  13.825
10624SOL    HW133769   3.961   5.510  13.893
10624SOL    HW233770   3.922   5.627  13.806
10625SOL     OW33771   9.418   5.560   3.019
10625SOL    HW133772   9.430   5.495   2.950
10625SOL    HW233773   9.494   5.618   3.011
10626SOL     OW33774   5.060   5.697  14.288
10626SOL    HW133775   4.968   5.720  14.274
10626SOL    HW233776   5.079   5.636  14.217
10627SOL     OW33777   1.475   2.586  11.516
10627SOL    HW133778   1.384   2.570  11.489
10627SOL    HW233779   1.500   2.666  11.470
10628SOL     OW33780   8.923  13.935   4.526
10628SOL    HW133781   8.854  13.872   4.545
10628SOL    HW233782   8.987  13.886   4.475
10629SOL     OW33783   3.947   3.975   8.299
10629SOL    HW133784   3.860   3.935   8.288
10629SOL    HW233785   3.959   4.029   8.221
10630SOL     OW33786   6.496   1.206  13.604
10630SOL    HW133787   6.560   1.274  13.584
10630SOL    HW233788   6.508   1.188  13.697
10631SOL     OW33789  13.788   5.655  11.720
10631SOL    HW133790  13.761   5.654  11.812
10631SOL    HW233791  13.873   5.698  11.721
10632SOL     OW33792   8.966  11.470   9.016
10632SOL    HW133793   9.055  11.469   9.050
10632SOL    HW233794   8.915  11.513   9.085
10633SOL     OW33795   3.031   1.709   9.534
10633SOL    HW133796   2.960   1.752   9.583
10633SOL    HW233797   3.110   1.754   9.564
10634SOL     OW33798  12.000  12.768   0.019
10634SOL    HW133799  11.906  12.774   0.003
10634SOL    HW233800  12.018  12.837   0.083
10635SOL     OW33801   3.003   1.355   2.843
10635SOL    HW133802   2.954   1.310   2.775
10635SOL    HW233803   3.088   1.375   2.803
10636SOL     OW33804   6.123  14.123   6.019
10636SOL    HW133805   6.086  14.144   5.934
10636SOL    HW233806   6.161  14.036   6.007
10637SOL     OW33807   7.185  12.261   1.861
10637SOL    HW133808   7.102  12.253   1.909
10637SOL    HW233809   7.242  12.195   1.900
10638SOL     OW33810  10.381   3.306   0.980
10638SOL    HW133811  10.336   3.265   0.907
10638SOL    HW233812  10.311   3.333   1.039
10639SOL     OW33813  12.668   4.153  10.434
10639SOL    HW133814  12.760   4.145  10.459
10639SOL    HW233815  12.670   4.168  10.340
10640SOL     OW33816   7.713   4.440   0.021
10640SOL    HW133817   7.686   4.510   0.081
10640SOL    HW233818   7.700   4.477  14.811
10641SOL     OW33819  13.307   2.474  10.262
10641SOL    HW133820  13.273   2.512  10.343
10641SOL    HW233821  13.237   2.418  10.230
10642SOL     OW33822   2.659   8.244  12.416
10642SOL    HW133823   2.722   8.196  12.470
10642SOL    HW233824   2.664   8.202  12.330
10643SOL     OW33825  12.751  13.884  10.291
10643SOL    HW133826  12.812  13.953  10.264
10643SOL    HW233827  12.746  13.825  10.216
10644SOL     OW33828   9.490   9.611   5.861
10644SOL    HW133829   9.398   9.611   5.889
10644SOL    HW233830   9.528   9.686   5.906
10645SOL     OW33831   0.495   3.140   8.713
10645SOL    HW133832   0.527   3.137   8.623
10645SOL    HW233833   0.551   3.079   8.761
10646SOL     OW33834   7.754   0.341  14.495
10646SOL    HW133835   7.841   0.321  14.459
10646SOL    HW233836   7.702   0.263  14.478
10647SOL     OW33837   5.523   0.911   0.614
10647SOL    HW133838   5.443   0.960   0.632
10647SOL    HW233839   5.530   0.849   0.686
10648SOL     OW33840   8.574   3.313  11.227
10648SOL    HW133841   8.629   3.264  11.166
10648SOL    HW233842   8.523   3.246  11.272
10649SOL     OW33843  13.699   1.791   0.370
10649SOL    HW133844  13.754   1.739   0.430
10649SOL    HW233845  13.739   1.779   0.284
10650SOL     OW33846   1.754   1.198   1.096
10650SOL    HW133847   1.827   1.137   1.103
10650SOL    HW233848   1.782   1.262   1.030
10651SOL     OW33849   0.637   1.457  11.894
10651SOL    HW133850   0.664   1.543  11.862
10651SOL    HW233851   0.603   1.474  11.982
10652SOL     OW33852   0.172   9.346   8.028
10652SOL    HW133853   0.237   9.324   8.094
10652SOL    HW233854   0.089   9.349   8.076
10653SOL     OW33855   8.465   8.407   8.702
10653SOL    HW133856   8.450   8.313   8.690
10653SOL    HW233857   8.378   8.446   8.705
10654SOL     OW33858   7.484   8.972  10.168
10654SOL    HW133859   7.535   8.917  10.228
10654SOL    HW233860   7.527   9.057  10.171
10655SOL     OW33861  12.309   6.834   5.602
10655SOL    HW133862  12.380   6.889   5.568
10655SOL    HW233863  12.234   6.855   5.547
10656SOL     OW33864   2.575  12.742   4.337
10656SOL    HW133865   2.572  12.822   4.389
10656SOL    HW233866   2.665  12.711   4.346
10657SOL     OW33867   5.504   2.669   4.105
10657SOL    HW133868   5.540   2.690   4.019
10657SOL    HW233869   5.440   2.738   4.121
10658SOL     OW33870  14.733   6.717   1.970
10658SOL    HW133871  14.756   6.728   2.062
10658SOL    HW233872  14.805   6.666   1.933
10659SOL     OW33873   7.085   4.311   3.348
10659SOL    HW133874   6.996   4.306   3.384
10659SOL    HW233875   7.077   4.371   3.273
10660SOL     OW33876   3.825   4.213   2.220
10660SOL    HW133877   3.918   4.207   2.197
10660SOL    HW233878   3.780   4.185   2.140
10661SOL     OW33879   2.299   6.332   7.014
10661SOL    HW133880   2.207   6.353   7.029
10661SOL    HW233881   2.309   6.242   7.048
10662SOL     OW33882   9.389   4.119   8.056
10662SOL    HW133883   9.384   4.070   8.138
10662SOL    HW233884   9.310   4.173   8.055
10663SOL     OW33885   0.879   0.362  13.839
10663SOL    HW133886   0.847   0.386  13.926
10663SOL    HW233887   0.834   0.280  13.818
10664SOL     OW33888   7.199   0.887  13.614
10664SOL    HW133889   7.252   0.961  13.585
10664SOL    HW233890   7.260   0.814  13.616
10665SOL     OW33891  13.589   3.202   9.656
10665SOL    HW133892  13.579   3.257   9.578
10665SOL    HW233893  13.500   3.175   9.678
10666SOL     OW33894   9.739   1.603  11.064
10666SOL    HW133895   9.651   1.616  11.098
10666SOL    HW233896   9.782   1.688  11.072
10667SOL     OW33897   2.912  11.011  11.276
10667SOL    HW133898   2.820  11.009  11.299
10667SOL    HW233899   2.945  10.924  11.300
10668SOL     OW33900   6.544   2.367   1.823
10668SOL    HW133901   6.622   2.340   1.871
10668SOL    HW233902   6.478   2.381   1.891
10669SOL     OW33903  10.429  12.435  12.441
10669SOL    HW133904  10.476  12.508  12.400
10669SOL    HW233905  10.485  12.409  12.514
10670SOL     OW33906   4.560   8.385   0.461
10670SOL    HW133907   4.580   8.296   0.490
10670SOL    HW233908   4.484   8.375   0.404
10671SOL     OW33909   8.725  10.585   4.983
10671SOL    HW133910   8.763  10.540   4.908
10671SOL    HW233911   8.731  10.678   4.961
10672SOL     OW33912  14.490   4.731   0.155
10672SOL    HW133913  14.543   4.713   0.078
10672SOL    HW233914  14.542   4.699   0.228
10673SOL     OW33915   3.153  14.458   3.587
10673SOL    HW133916   3.151  14.553   3.579
10673SOL    HW233917   3.241  14.439   3.621
10674SOL     OW33918   9.228   3.709  14.288
10674SOL    HW133919   9.202   3.629  14.333
10674SOL    HW233920   9.270   3.678  14.207
10675SOL     OW33921  14.726   2.477   1.769
10675SOL    HW133922  14.684   2.502   1.687
10675SOL    HW233923  14.679   2.527   1.836
10676SOL     OW33924  14.130  11.058   3.353
10676SOL    HW133925  14.076  11.098   3.421
10676SOL    HW233926  14.200  11.121   3.337
10677SOL     OW33927  12.124   7.795   3.480
10677SOL    HW133928  12.141   7.705   3.451
10677SOL    HW233929  12.115   7.788   3.575
10678SOL     OW33930   2.367   7.395   4.443
10678SOL    HW133931   2.383   7.301   4.439
10678SOL    HW233932   2.454   7.434   4.456
10679SOL     OW33933  12.259   0.653   2.735
10679SOL    HW133934  12.345   0.615   2.752
10679SOL    HW233935  12.278   0.742   2.705
10680SOL     OW33936  14.659   2.664   0.735
10680SOL    HW133937  14.688   2.754   0.717
10680SOL    HW233938  14.739   2.620   0.765
10681SOL     OW33939   3.034   2.767   4.761
10681SOL    HW133940   3.126   2.741   4.765
10681SOL    HW233941   2.998   2.743   4.847
10682SOL     OW33942  13.615  13.918  12.633
10682SOL    HW133943  13.659  13.837  12.661
10682SOL    HW233944  13.646  13.984  12.695
10683SOL     OW33945   6.366   6.060   1.317
10683SOL    HW133946   6.311   6.131   1.349
10683SOL    HW233947   6.425   6.103   1.254
10684SOL     OW33948   1.930  13.892  10.533
10684SOL    HW133949   1.935  13.894  10.628
10684SOL    HW233950   2.018  13.867  10.504
10685SOL     OW33951   2.688  13.242  11.398
10685SOL    HW133952   2.629  13.223  11.325
10685SOL    HW233953   2.769  13.197  11.376
10686SOL     OW33954  12.229   1.252  13.171
10686SOL    HW133955  12.153   1.302  13.200
10686SOL    HW233956  12.192   1.172  13.134
10687SOL     OW33957  11.848   9.461   4.185
10687SOL    HW133958  11.851   9.479   4.279
10687SOL    HW233959  11.784   9.390   4.177
10688SOL     OW33960  12.729   0.096   1.019
10688SOL    HW133961  12.742   0.041   0.942
10688SOL    HW233962  12.667   0.163   0.990
10689SOL     OW33963  13.739   4.871   1.840
10689SOL    HW133964  13.668   4.839   1.784
10689SOL    HW233965  13.790   4.793   1.861
10690SOL     OW33966  12.124   7.881   2.877
10690SOL    HW133967  12.160   7.970   2.882
10690SOL    HW233968  12.145   7.842   2.962
10691SOL     OW33969   8.650   6.146  11.731
10691SOL    HW133970   8.708   6.083  11.773
10691SOL    HW233971   8.703   6.226  11.724
10692SOL     OW33972   8.294   9.036  11.228
10692SOL    HW133973   8.255   9.006  11.146
10692SOL    HW233974   8.386   9.013  11.221
10693SOL     OW33975   9.248   3.219  12.795
10693SOL    HW133976   9.278   3.167  12.720
10693SOL    HW233977   9.309   3.293  12.799
10694SOL     OW33978   1.464   4.581  13.596
10694SOL    HW133979   1.430   4.643  13.532
10694SOL    HW233980   1.525   4.632  13.649
10695SOL     OW33981   8.464   4.876   6.840
10695SOL    HW133982   8.532   4.822   6.881
10695SOL    HW233983   8.420   4.919   6.913
10696SOL     OW33984   6.247  11.968   6.410
10696SOL    HW133985   6.240  11.897   6.473
10696SOL    HW233986   6.189  12.036   6.443
10697SOL     OW33987   8.871   4.827  12.649
10697SOL    HW133988   8.872   4.790  12.737
10697SOL    HW233989   8.892   4.753  12.592
10698SOL     OW33990   4.846   4.152   3.732
10698SOL    HW133991   4.871   4.145   3.824
10698SOL    HW233992   4.925   4.127   3.684
10699SOL     OW33993  10.303  10.134   5.406
10699SOL    HW133994  10.240  10.206   5.407
10699SOL    HW233995  10.346  10.138   5.491
10700SOL     OW33996   7.654   4.315   0.274
10700SOL    HW133997   7.628   4.223   0.285
10700SOL    HW233998   7.624   4.339   0.187
10701SOL     OW33999   0.489   1.634  10.359
10701SOL    HW134000   0.498   1.659  10.451
10701SOL    HW234001   0.533   1.549  10.353
10702SOL     OW34002   4.526   3.093   5.993
10702SOL    HW134003   4.589   3.022   6.002
10702SOL    HW234004   4.485   3.077   5.907
10703SOL     OW34005  10.454   0.631  10.257
10703SOL    HW134006  10.429   0.544  10.228
10703SOL    HW234007  10.509   0.616  10.334
10704SOL     OW34008   6.183  12.599   1.226
10704SOL    HW134009   6.240  12.522   1.223
10704SOL    HW234010   6.232  12.667   1.182
10705SOL     OW34011   2.864   0.117   7.036
10705SOL    HW134012   2.774   0.136   7.064
10705SOL    HW234013   2.900   0.062   7.105
10706SOL     OW34014   4.648  13.399  10.828
10706SOL    HW134015   4.610  13.486  10.831
10706SOL    HW234016   4.578  13.343  10.795
10707SOL     OW34017  12.438   2.098   8.230
10707SOL    HW134018  12.495   2.087   8.153
10707SOL    HW234019  12.499   2.110   8.303
10708SOL     OW34020   1.722  10.726   8.176
10708SOL    HW134021   1.689  10.649   8.129
10708SOL    HW234022   1.645  10.763   8.220
10709SOL     OW34023  12.791  11.851   5.671
10709SOL    HW134024  12.825  11.810   5.751
10709SOL    HW234025  12.739  11.925   5.703
10710SOL     OW34026   5.559   6.409   7.576
10710SOL    HW134027   5.553   6.464   7.654
10710SOL    HW234028   5.535   6.322   7.607
10711SOL     OW34029   3.536  10.040   9.855
10711SOL    HW134030   3.593   9.988   9.798
10711SOL    HW234031   3.596  10.093   9.908
10712SOL     OW34032   0.915   8.864   9.965
10712SOL    HW134033   0.965   8.789   9.935
10712SOL    HW234034   0.826   8.848   9.934
10713SOL     OW34035  12.188   1.889   1.627
10713SOL    HW134036  12.235   1.955   1.576
10713SOL    HW234037  12.113   1.936   1.664
10714SOL     OW34038  10.234   6.482   6.299
10714SOL    HW134039  10.170   6.476   6.369
10714SOL    HW234040  10.183   6.476   6.218
10715SOL     OW34041   7.009   2.909   1.011
10715SOL    HW134042   7.080   2.899   1.075
10715SOL    HW234043   6.994   3.003   1.007
10716SOL     OW34044  13.486   9.219   7.230
10716SOL    HW134045  13.548   9.265   7.173
10716SOL    HW234046  13.472   9.135   7.187
10717SOL     OW34047   0.785   6.131  10.545
10717SOL    HW134048   0.739   6.215  10.545
10717SOL    HW234049   0.741   6.080  10.613
10718SOL     OW34050   5.261   7.093   6.862
10718SOL    HW134051   5.260   7.126   6.772
10718SOL    HW234052   5.277   7.170   6.916
10719SOL     OW34053   1.962   9.590  10.068
10719SOL    HW134054   1.880   9.637  10.077
10719SOL    HW234055   1.977   9.550  10.154
10720SOL     OW34056   5.772   8.687  11.562
10720SOL    HW134057   5.822   8.723  11.490
10720SOL    HW234058   5.754   8.596  11.536
10721SOL     OW34059   9.211   6.526   8.065
10721SOL    HW134060   9.161   6.490   7.991
10721SOL    HW234061   9.242   6.611   8.035
10722SOL     OW34062   8.025  11.137   5.971
10722SOL    HW134063   8.088  11.118   5.901
10722SOL    HW234064   7.941  11.106   5.936
10723SOL     OW34065  14.262  11.864   3.443
10723SOL    HW134066  14.318  11.798   3.484
10723SOL    HW234067  14.267  11.939   3.502
10724SOL     OW34068  13.502  10.317   8.909
10724SOL    HW134069  13.511  10.412   8.901
10724SOL    HW234070  13.464  10.304   8.996
10725SOL     OW34071   1.982   0.399   8.609
10725SOL    HW134072   2.009   0.307   8.618
10725SOL    HW234073   1.891   0.401   8.639
10726SOL     OW34074   4.755   6.922  10.232
10726SOL    HW134075   4.719   6.833  10.232
10726SOL    HW234076   4.714   6.965  10.157
10727SOL     OW34077   0.290   6.874  12.745
10727SOL    HW134078   0.197   6.876  12.769
10727SOL    HW234079   0.332   6.935  12.806
10728SOL     OW34080   3.534   8.925   9.537
10728SOL    HW134081   3.560   8.888   9.621
10728SOL    HW234082   3.602   8.990   9.517
10729SOL     OW34083  10.518   1.817   8.681
10729SOL    HW134084  10.435   1.860   8.701
10729SOL    HW234085  10.518   1.738   8.735
10730SOL     OW34086  12.981   1.274   6.888
10730SOL    HW134087  13.076   1.272   6.877
10730SOL    HW234088  12.951   1.343   6.829
10731SOL     OW34089   4.020   3.106  14.473
10731SOL    HW134090   3.952   3.076  14.412
10731SOL    HW234091   4.096   3.125  14.418
10732SOL     OW34092   8.874   9.529   8.304
10732SOL    HW134093   8.884   9.581   8.384
10732SOL    HW234094   8.944   9.558   8.246
10733SOL     OW34095   3.893   5.209   9.886
10733SOL    HW134096   3.836   5.223   9.810
10733SOL    HW234097   3.956   5.143   9.857
10734SOL     OW34098   4.337   1.097  12.915
10734SOL    HW134099   4.404   1.047  12.869
10734SOL    HW234100   4.306   1.161  12.852
10735SOL     OW34101   2.202   7.049  10.813
10735SOL    HW134102   2.234   7.108  10.745
10735SOL    HW234103   2.163   7.106  10.879
10736SOL     OW34104   5.108   1.565   5.741
10736SOL    HW134105   5.102   1.641   5.798
10736SOL    HW234106   5.027   1.517   5.755
10737SOL     OW34107   6.599   1.272  14.743
10737SOL    HW134108   6.611   1.262  14.649
10737SOL    HW234109   6.536   1.203  14.766
10738SOL     OW34110   3.686  12.117   6.468
10738SOL    HW134111   3.657  12.058   6.398
10738SOL    HW234112   3.678  12.205   6.430
10739SOL     OW34113   0.898  13.251  11.311
10739SOL    HW134114   0.915  13.201  11.231
10739SOL    HW234115   0.980  13.245  11.361
10740SOL     OW34116   9.972  10.964   5.105
10740SOL    HW134117  10.046  10.986   5.162
10740SOL    HW234118   9.896  10.965   5.163
10741SOL     OW34119  13.217   9.321  11.842
10741SOL    HW134120  13.231   9.344  11.750
10741SOL    HW234121  13.281   9.373  11.890
10742SOL     OW34122   8.714   3.467   3.009
10742SOL    HW134123   8.805   3.449   2.991
10742SOL    HW234124   8.715   3.509   3.096
10743SOL     OW34125   7.348  11.254   3.988
10743SOL    HW134126   7.312  11.241   4.076
10743SOL    HW234127   7.440  11.277   4.002
10744SOL     OW34128  12.741   3.085   9.181
10744SOL    HW134129  12.721   3.033   9.259
10744SOL    HW234130  12.702   3.035   9.109
10745SOL     OW34131   4.035   7.411  13.451
10745SOL    HW134132   4.043   7.484  13.390
10745SOL    HW234133   3.965   7.357  13.416
10746SOL     OW34134  13.021   5.616  11.898
10746SOL    HW134135  13.050   5.707  11.890
10746SOL    HW234136  13.051   5.575  11.816
10747SOL     OW34137   7.253  11.137   4.218
10747SOL    HW134138   7.174  11.084   4.212
10747SOL    HW234139   7.242  11.188   4.299
10748SOL     OW34140   8.221   9.104   0.763
10748SOL    HW134141   8.253   9.164   0.831
10748SOL    HW234142   8.250   9.018   0.792
10749SOL     OW34143   4.814   7.545  14.650
10749SOL    HW134144   4.883   7.496  14.605
10749SOL    HW234145   4.783   7.608  14.585
10750SOL     OW34146  10.336  12.582   3.973
10750SOL    HW134147  10.339  12.490   3.948
10750SOL    HW234148  10.274  12.585   4.047
10751SOL     OW34149  11.871   7.938  12.600
10751SOL    HW134150  11.852   7.846  12.619
10751SOL    HW234151  11.790   7.984  12.620
10752SOL     OW34152   2.667   4.593   6.722
10752SOL    HW134153   2.645   4.566   6.633
10752SOL    HW234154   2.621   4.530   6.778
10753SOL     OW34155   8.233   5.671  11.431
10753SOL    HW134156   8.279   5.671  11.514
10753SOL    HW234157   8.145   5.702  11.453
10754SOL     OW34158  10.478   4.847   2.629
10754SOL    HW134159  10.405   4.794   2.662
10754SOL    HW234160  10.556   4.802   2.661
10755SOL     OW34161   1.441   0.445   9.436
10755SOL    HW134162   1.412   0.440   9.345
10755SOL    HW234163   1.360   0.458   9.486
10756SOL     OW34164   6.487  12.619   4.287
10756SOL    HW134165   6.410  12.576   4.249
10756SOL    HW234166   6.459  12.648   4.373
10757SOL     OW34167   1.694  11.538   5.931
10757SOL    HW134168   1.788  11.520   5.931
10757SOL    HW234169   1.656  11.463   5.978
10758SOL     OW34170  13.382  14.315   2.731
10758SOL    HW134171  13.433  14.376   2.679
10758SOL    HW234172  13.358  14.364   2.810
10759SOL     OW34173   5.527   6.462   1.028
10759SOL    HW134174   5.607   6.497   0.988
10759SOL    HW234175   5.465   6.455   0.955
10760SOL     OW34176  10.008  11.569  14.652
10760SOL    HW134177  10.081  11.616  14.692
10760SOL    HW234178   9.958  11.636  14.606
10761SOL     OW34179   7.764  11.528  11.747
10761SOL    HW134180   7.699  11.481  11.695
10761SOL    HW234181   7.720  11.610  11.771
10762SOL     OW34182   2.287  10.972   8.854
10762SOL    HW134183   2.288  11.036   8.926
10762SOL    HW234184   2.377  10.972   8.822
10763SOL     OW34185  14.594   5.289  14.379
10763SOL    HW134186  14.553   5.357  14.432
10763SOL    HW234187  14.685   5.287  14.408
10764SOL     OW34188  11.891   6.372   9.403
10764SOL    HW134189  11.853   6.435   9.464
10764SOL    HW234190  11.985   6.392   9.402
10765SOL     OW34191  11.143   9.931   4.884
10765SOL    HW134192  11.126   9.958   4.974
10765SOL    HW234193  11.115   9.839   4.880
10766SOL     OW34194   1.163  12.312   8.370
10766SOL    HW134195   1.206  12.397   8.381
10766SOL    HW234196   1.127  12.291   8.457
10767SOL     OW34197  11.888   0.109   1.810
10767SOL    HW134198  11.813   0.167   1.811
10767SOL    HW234199  11.869   0.046   1.740
10768SOL     OW34200   0.099   9.341   7.130
10768SOL    HW134201   0.034   9.272   7.116
10768SOL    HW234202   0.179   9.307   7.092
10769SOL     OW34203   3.290   3.818   8.860
10769SOL    HW134204   3.276   3.850   8.771
10769SOL    HW234205   3.384   3.827   8.874
10770SOL     OW34206   3.964  14.806   4.060
10770SOL    HW134207   3.984  14.713   4.057
10770SOL    HW234208   4.013  14.844   3.987
10771SOL     OW34209   1.442   1.626   0.299
10771SOL    HW134210   1.483   1.625   0.212
10771SOL    HW234211   1.459   1.538   0.333
10772SOL     OW34212   7.056   2.841   1.603
10772SOL    HW134213   7.134   2.864   1.552
10772SOL    HW234214   7.073   2.876   1.690
10773SOL     OW34215   9.805  14.569   5.053
10773SOL    HW134216   9.789  14.524   5.136
10773SOL    HW234217   9.769  14.656   5.066
10774SOL     OW34218  11.253   4.753   1.805
10774SOL    HW134219  11.190   4.806   1.757
10774SOL    HW234220  11.336   4.800   1.795
10775SOL     OW34221   9.384   7.721  11.434
10775SOL    HW134222   9.436   7.641  11.425
10775SOL    HW234223   9.395   7.767  11.351
10776SOL     OW34224   1.167   4.260  11.581
10776SOL    HW134225   1.228   4.263  11.506
10776SOL    HW234226   1.212   4.309  11.650
10777SOL     OW34227   5.920   4.822   0.611
10777SOL    HW134228   5.996   4.764   0.616
10777SOL    HW234229   5.925   4.862   0.524
10778SOL     OW34230  14.786  10.991   8.083
10778SOL    HW134231  14.824  10.976   7.996
10778SOL    HW234232  14.709  11.046   8.067
10779SOL     OW34233  10.185  11.322   1.528
10779SOL    HW134234  10.261  11.269   1.503
10779SOL    HW234235  10.148  11.276   1.604
10780SOL     OW34236   6.027   0.148   9.473
10780SOL    HW134237   5.946   0.185   9.438
10780SOL    HW234238   6.095   0.210   9.447
10781SOL     OW34239   2.476   0.187  14.257
10781SOL    HW134240   2.429   0.235  14.189
10781SOL    HW234241   2.407   0.157  14.317
10782SOL     OW34242   3.337   3.766  13.248
10782SOL    HW134243   3.301   3.814  13.174
10782SOL    HW234244   3.390   3.696  13.209
10783SOL     OW34245   6.334   9.933   7.878
10783SOL    HW134246   6.368  10.019   7.901
10783SOL    HW234247   6.394   9.901   7.810
10784SOL     OW34248   6.875  10.602   6.893
10784SOL    HW134249   6.912  10.514   6.895
10784SOL    HW234250   6.780  10.589   6.892
10785SOL     OW34251  12.300   1.732  13.970
10785SOL    HW134252  12.218   1.776  13.947
10785SOL    HW234253  12.369   1.794  13.945
10786SOL     OW34254   5.366   5.035   2.619
10786SOL    HW134255   5.324   4.979   2.684
10786SOL    HW234256   5.358   4.986   2.537
10787SOL     OW34257  13.550   5.522   8.626
10787SOL    HW134258  13.645   5.535   8.635
10787SOL    HW234259  13.529   5.559   8.540
10788SOL     OW34260  10.368  14.545   1.479
10788SOL    HW134261  10.404  14.457   1.469
10788SOL    HW234262  10.383  14.587   1.394
10789SOL     OW34263   2.592   7.209   7.739
10789SOL    HW134264   2.572   7.117   7.725
10789SOL    HW234265   2.509   7.255   7.724
10790SOL     OW34266   9.572  12.516   5.497
10790SOL    HW134267   9.599  12.537   5.407
10790SOL    HW234268   9.594  12.595   5.547
10791SOL     OW34269   5.626   0.123   5.865
10791SOL    HW134270   5.542   0.149   5.828
10791SOL    HW234271   5.649   0.196   5.924
10792SOL     OW34272  10.004   6.543   5.532
10792SOL    HW134273  10.095   6.516   5.544
10792SOL    HW234274   9.978   6.506   5.447
10793SOL     OW34275   4.791  10.127   6.749
10793SOL    HW134276   4.734  10.176   6.808
10793SOL    HW234277   4.742  10.047   6.730
10794SOL     OW34278  13.164   3.241  14.299
10794SOL    HW134279  13.119   3.321  14.328
10794SOL    HW234280  13.219   3.268  14.226
10795SOL     OW34281   5.334   9.647  11.632
10795SOL    HW134282   5.415   9.600  11.611
10795SOL    HW234283   5.265   9.598  11.588
10796SOL     OW34284   2.585   9.057  14.721
10796SOL    HW134285   2.646   9.016  14.782
10796SOL    HW234286   2.579   9.148  14.750
10797SOL     OW34287   2.984   6.121   2.423
10797SOL    HW134288   2.962   6.147   2.334
10797SOL    HW234289   3.072   6.157   2.438
10798SOL     OW34290   6.868  14.582   3.765
10798SOL    HW134291   6.784  14.551   3.732
10798SOL    HW234292   6.931  14.555   3.697
10799SOL     OW34293   8.733   4.590  10.526
10799SOL    HW134294   8.687   4.673  10.511
10799SOL    HW234295   8.810   4.615  10.577
10800SOL     OW34296   2.021   7.915  14.603
10800SOL    HW134297   1.939   7.887  14.562
10800SOL    HW234298   2.076   7.942  14.530
10801SOL     OW34299   3.391   5.898  13.306
10801SOL    HW134300   3.448   5.823  13.288
10801SOL    HW234301   3.355   5.880  13.393
10802SOL     OW34302  10.745   1.474   5.355
10802SOL    HW134303  10.708   1.478   5.443
10802SOL    HW234304  10.811   1.404   5.361
10803SOL     OW34305   8.160   4.281  13.717
10803SOL    HW134306   8.096   4.351  13.732
10803SOL    HW234307   8.243   4.327  13.703
10804SOL     OW34308  11.431   9.137   3.619
10804SOL    HW134309  11.348   9.161   3.660
10804SOL    HW234310  11.456   9.215   3.570
10805SOL     OW34311  13.262  12.796   7.137
10805SOL    HW134312  13.320  12.792   7.061
10805SOL    HW234313  13.307  12.852   7.199
10806SOL     OW34314  10.225  11.566   1.831
10806SOL    HW134315  10.193  11.633   1.771
10806SOL    HW234316  10.206  11.600   1.918
10807SOL     OW34317   4.786  12.939   4.438
10807SOL    HW134318   4.806  12.847   4.457
10807SOL    HW234319   4.855  12.966   4.378
10808SOL     OW34320  13.756  11.945   0.438
10808SOL    HW134321  13.719  12.033   0.448
10808SOL    HW234322  13.789  11.943   0.348
10809SOL     OW34323  11.910  13.050   3.753
10809SOL    HW134324  11.949  13.097   3.827
10809SOL    HW234325  11.850  12.988   3.793
10810SOL     OW34326   1.648  10.483   9.849
10810SOL    HW134327   1.638  10.548   9.919
10810SOL    HW234328   1.580  10.418   9.868
10811SOL     OW34329   6.394   8.613   6.714
10811SOL    HW134330   6.404   8.652   6.627
10811SOL    HW234331   6.452   8.665   6.770
10812SOL     OW34332   5.221   5.230   3.332
10812SOL    HW134333   5.305   5.185   3.338
10812SOL    HW234334   5.158   5.161   3.314
10813SOL     OW34335   1.459   4.838  10.236
10813SOL    HW134336   1.389   4.850  10.173
10813SOL    HW234337   1.423   4.870  10.319
10814SOL     OW34338  12.280   6.736  12.596
10814SOL    HW134339  12.348   6.690  12.547
10814SOL    HW234340  12.198   6.715  12.552
10815SOL     OW34341   6.256  13.411  10.907
10815SOL    HW134342   6.328  13.395  10.846
10815SOL    HW234343   6.187  13.450  10.854
10816SOL     OW34344   9.336   7.259   0.589
10816SOL    HW134345   9.266   7.321   0.568
10816SOL    HW234346   9.361   7.222   0.504
10817SOL     OW34347   1.687  12.501   7.497
10817SOL    HW134348   1.742  12.444   7.443
10817SOL    HW234349   1.599  12.489   7.464
10818SOL     OW34350   5.592  10.982   2.253
10818SOL    HW134351   5.575  10.950   2.165
10818SOL    HW234352   5.687  10.990   2.258
10819SOL     OW34353   3.072   4.713   3.583
10819SOL    HW134354   3.166   4.725   3.575
10819SOL    HW234355   3.034   4.776   3.522
10820SOL     OW34356  14.160   1.897  10.849
10820SOL    HW134357  14.189   1.889  10.940
10820SOL    HW234358  14.065   1.905  10.855
10821SOL     OW34359   3.992   6.327  10.049
10821SOL    HW134360   4.005   6.234  10.065
10821SOL    HW234361   4.081   6.364  10.047
10822SOL     OW34362   0.271   0.341   2.259
10822SOL    HW134363   0.270   0.393   2.179
10822SOL    HW234364   0.199   0.376   2.311
10823SOL     OW34365  12.153   1.219   8.461
10823SOL    HW134366  12.167   1.220   8.555
10823SOL    HW234367  12.071   1.265   8.447
10824SOL     OW34368  11.637  11.550   4.304
10824SOL    HW134369  11.641  11.568   4.210
10824SOL    HW234370  11.551  11.511   4.318
10825SOL     OW34371   2.401   2.035   8.455
10825SOL    HW134372   2.411   1.944   8.429
10825SOL    HW234373   2.309   2.043   8.480
10826SOL     OW34374   9.127   9.934   6.994
10826SOL    HW134375   9.152  10.015   6.951
10826SOL    HW234376   9.070   9.889   6.931
10827SOL     OW34377  13.515   8.387   5.845
10827SOL    HW134378  13.529   8.305   5.798
10827SOL    HW234379  13.424   8.410   5.826
10828SOL     OW34380   5.395   0.053   4.963
10828SOL    HW134381   5.385   0.021   5.052
10828SOL    HW234382   5.485   0.085   4.959
10829SOL     OW34383   5.061  13.354   2.293
10829SOL    HW134384   5.085  13.261   2.288
10829SOL    HW234385   5.122  13.391   2.356
10830SOL     OW34386  11.740   4.526  12.654
10830SOL    HW134387  11.804   4.521  12.584
10830SOL    HW234388  11.734   4.619  12.675
10831SOL     OW34389  12.191   5.836   0.550
10831SOL    HW134390  12.098   5.856   0.548
10831SOL    HW234391  12.196   5.745   0.582
10832SOL     OW34392   2.714   3.103   3.906
10832SOL    HW134393   2.753   3.048   3.975
10832SOL    HW234394   2.655   3.044   3.859
10833SOL     OW34395   3.102  14.811   5.818
10833SOL    HW134396   3.099  14.822   5.723
10833SOL    HW234397   3.138  14.723   5.831
10834SOL     OW34398   3.182  11.346   7.626
10834SOL    HW134399   3.155  11.360   7.535
10834SOL    HW234400   3.218  11.431   7.653
10835SOL     OW34401   7.769   8.543   7.652
10835SOL    HW134402   7.699   8.574   7.710
10835SOL    HW234403   7.820   8.483   7.706
10836SOL     OW34404   9.143   1.464  11.983
10836SOL    HW134405   9.229   1.423  11.974
10836SOL    HW234406   9.102   1.419  12.057
10837SOL     OW34407   0.637   2.442   1.640
10837SOL    HW134408   0.594   2.445   1.725
10837SOL    HW234409   0.655   2.533   1.618
10838SOL     OW34410   2.239   6.080   5.009
10838SOL    HW134411   2.178   6.145   4.973
10838SOL    HW234412   2.202   6.056   5.094
10839SOL     OW34413   2.653   5.714   9.098
10839SOL    HW134414   2.626   5.640   9.043
10839SOL    HW234415   2.692   5.776   9.037
10840SOL     OW34416  11.878   6.394  10.933
10840SOL    HW134417  11.826   6.466  10.896
10840SOL    HW234418  11.959   6.435  10.961
10841SOL     OW34419   3.302   8.332   4.720
10841SOL    HW134420   3.379   8.316   4.664
10841SOL    HW234421   3.252   8.399   4.673
10842SOL     OW34422   3.364   2.035   7.486
10842SOL    HW134423   3.387   2.027   7.394
10842SOL    HW234424   3.444   2.009   7.533
10843SOL     OW34425   8.072  12.224   8.131
10843SOL    HW134426   8.087  12.146   8.184
10843SOL    HW234427   7.985  12.211   8.092
10844SOL     OW34428   7.360  10.427   6.299
10844SOL    HW134429   7.303  10.351   6.311
10844SOL    HW234430   7.314  10.499   6.342
10845SOL     OW34431   1.251   0.814  11.971
10845SOL    HW134432   1.197   0.747  11.930
10845SOL    HW234433   1.195   0.891  11.976
10846SOL     OW34434   7.801   5.576  10.859
10846SOL    HW134435   7.709   5.597  10.847
10846SOL    HW234436   7.846   5.620  10.786
10847SOL     OW34437   5.732  10.655   5.275
10847SOL    HW134438   5.811  10.653   5.220
10847SOL    HW234439   5.729  10.567   5.314
10848SOL     OW34440   3.416   8.247   7.579
10848SOL    HW134441   3.450   8.171   7.534
10848SOL    HW234442   3.492   8.288   7.619
10849SOL     OW34443  13.188   3.873   8.740
10849SOL    HW134444  13.111   3.852   8.793
10849SOL    HW234445  13.221   3.787   8.712
10850SOL     OW34446   1.821   8.488  11.542
10850SOL    HW134447   1.763   8.473  11.617
10850SOL    HW234448   1.777   8.446  11.469
10851SOL     OW34449   0.756  11.630  10.846
10851SOL    HW134450   0.797  11.697  10.901
10851SOL    HW234451   0.683  11.597  10.899
10852SOL     OW34452  10.417  14.746  13.167
10852SOL    HW134453  10.354  14.784  13.228
10852SOL    HW234454  10.463  14.679  13.219
10853SOL     OW34455  12.119   2.158  12.877
10853SOL    HW134456  12.199   2.125  12.917
10853SOL    HW234457  12.116   2.117  12.791
10854SOL     OW34458   1.426   6.625   5.972
10854SOL    HW134459   1.430   6.646   5.879
10854SOL    HW234460   1.356   6.560   5.979
10855SOL     OW34461   7.075   5.021   9.982
10855SOL    HW134462   6.986   5.016  10.014
10855SOL    HW234463   7.101   4.930   9.967
10856SOL     OW34464   2.027   3.498   0.789
10856SOL    HW134465   2.120   3.517   0.771
10856SOL    HW234466   2.023   3.489   0.884
10857SOL     OW34467   3.272  13.996  11.732
10857SOL    HW134468   3.326  14.042  11.797
10857SOL    HW234469   3.324  13.921  11.705
10858SOL     OW34470  12.604   0.405  14.130
10858SOL    HW134471  12.652   0.323  14.144
10858SOL    HW234472  12.661   0.459  14.076
10859SOL     OW34473   6.890  12.043  11.910
10859SOL    HW134474   6.880  12.018  11.818
10859SOL    HW234475   6.896  11.960  11.957
10860SOL     OW34476   3.986   5.745   0.596
10860SOL    HW134477   4.060   5.694   0.631
10860SOL    HW234478   4.002   5.834   0.627
10861SOL     OW34479   7.252  11.800  12.971
10861SOL    HW134480   7.226  11.854  13.046
10861SOL    HW234481   7.171  11.783  12.924
10862SOL     OW34482   9.423  13.723   2.008
10862SOL    HW134483   9.479  13.721   1.931
10862SOL    HW234484   9.341  13.762   1.978
10863SOL     OW34485   7.854   7.455   8.257
10863SOL    HW134486   7.822   7.370   8.287
10863SOL    HW234487   7.789   7.483   8.193
10864SOL     OW34488   9.753   8.277   2.517
10864SOL    HW134489   9.823   8.248   2.459
10864SOL    HW234490   9.724   8.361   2.480
10865SOL     OW34491   3.843   2.927   1.044
10865SOL    HW134492   3.788   2.892   0.973
10865SOL    HW234493   3.899   2.992   1.000
10866SOL     OW34494  11.601   9.364   8.988
10866SOL    HW134495  11.588   9.458   8.999
10866SOL    HW234496  11.670   9.356   8.922
10867SOL     OW34497  12.835  11.171  11.908
10867SOL    HW134498  12.822  11.241  11.972
10867SOL    HW234499  12.775  11.192  11.837
10868SOL     OW34500   5.745   3.483  12.011
10868SOL    HW134501   5.781   3.405  11.969
10868SOL    HW234502   5.807   3.553  11.990
10869SOL     OW34503   2.580  12.676   0.728
10869SOL    HW134504   2.489  12.648   0.717
10869SOL    HW234505   2.574  12.761   0.771
10870SOL     OW34506   7.963   0.656   8.474
10870SOL    HW134507   8.023   0.583   8.461
10870SOL    HW234508   7.911   0.631   8.551
10871SOL     OW34509   0.150  11.954   4.470
10871SOL    HW134510   0.145  11.900   4.391
10871SOL    HW234511   0.155  12.043   4.437
10872SOL     OW34512   6.905   3.262   3.232
10872SOL    HW134513   6.991   3.304   3.235
10872SOL    HW234514   6.920   3.175   3.269
10873SOL     OW34515   8.533   5.686  10.590
10873SOL    HW134516   8.438   5.700  10.596
10873SOL    HW234517   8.549   5.611  10.646
10874SOL     OW34518   8.035   6.235   8.708
10874SOL    HW134519   8.038   6.292   8.785
10874SOL    HW234520   7.978   6.162   8.734
10875SOL     OW34521  12.767   6.429   0.018
10875SOL    HW134522  12.793   6.346   0.058
10875SOL    HW234523  12.776   6.493   0.088
10876SOL     OW34524   6.114   7.493   5.735
10876SOL    HW134525   6.059   7.426   5.694
10876SOL    HW234526   6.073   7.576   5.710
10877SOL     OW34527   0.701  10.291   5.821
10877SOL    HW134528   0.762  10.269   5.892
10877SOL    HW234529   0.687  10.385   5.831
10878SOL     OW34530   9.927   0.620  10.085
10878SOL    HW134531   9.980   0.653  10.013
10878SOL    HW234532   9.888   0.699  10.124
10879SOL     OW34533   8.354   7.320   4.477
10879SOL    HW134534   8.423   7.264   4.513
10879SOL    HW234535   8.283   7.314   4.540
10880SOL     OW34536  10.057  11.379   9.308
10880SOL    HW134537  10.080  11.457   9.357
10880SOL    HW234538  10.141  11.347   9.274
10881SOL     OW34539  11.229   3.766  12.152
10881SOL    HW134540  11.156   3.803  12.201
10881SOL    HW234541  11.212   3.672  12.150
10882SOL     OW34542   4.914   8.470   5.959
10882SOL    HW134543   4.846   8.516   6.008
10882SOL    HW234544   4.990   8.472   6.017
10883SOL     OW34545  11.123  11.885   1.847
10883SOL    HW134546  11.216  11.896   1.868
10883SOL    HW234547  11.083  11.854   1.929
10884SOL     OW34548   7.941  11.350   8.791
10884SOL    HW134549   7.992  11.324   8.714
10884SOL    HW234550   7.850  11.340   8.763
10885SOL     OW34551   3.161   5.113  14.324
10885SOL    HW134552   3.126   5.190  14.280
10885SOL    HW234553   3.120   5.039  14.280
10886SOL     OW34554   7.639   8.618  11.452
10886SOL    HW134555   7.703   8.555  11.419
10886SOL    HW234556   7.689   8.699  11.466
10887SOL     OW34557  10.197   8.139  12.712
10887SOL    HW134558  10.210   8.226  12.675
10887SOL    HW234559  10.182   8.155  12.805
10888SOL     OW34560   8.832  14.779   7.519
10888SOL    HW134561   8.771  14.755   7.449
10888SOL    HW234562   8.824  14.874   7.526
10889SOL     OW34563  12.168  13.534  13.333
10889SOL    HW134564  12.142  13.624  13.352
10889SOL    HW234565  12.253  13.542  13.290
10890SOL     OW34566   0.208   1.693   4.844
10890SOL    HW134567   0.200   1.709   4.938
10890SOL    HW234568   0.254   1.609   4.838
10891SOL     OW34569  12.652   9.803   5.629
10891SOL    HW134570  12.576   9.844   5.670
10891SOL    HW234571  12.686   9.869   5.569
10892SOL     OW34572  10.436   2.158  12.599
10892SOL    HW134573  10.457   2.102  12.524
10892SOL    HW234574  10.366   2.111  12.645
10893SOL     OW34575  13.789   0.167   1.026
10893SOL    HW134576  13.813   0.075   1.035
10893SOL    HW234577  13.749   0.173   0.939
10894SOL     OW34578  13.689  13.768   8.349
10894SOL    HW134579  13.703  13.681   8.387
10894SOL    HW234580  13.620  13.806   8.404
10895SOL     OW34581  11.471   6.269   4.571
10895SOL    HW134582  11.397   6.304   4.620
10895SOL    HW234583  11.433   6.243   4.487
10896SOL     OW34584   8.507   0.749   5.327
10896SOL    HW134585   8.497   0.816   5.395
10896SOL    HW234586   8.456   0.782   5.254
10897SOL     OW34587  13.493  12.428  11.496
10897SOL    HW134588  13.423  12.487  11.467
10897SOL    HW234589  13.448  12.358  11.542
10898SOL     OW34590  12.649  10.213   7.890
10898SOL    HW134591  12.730  10.199   7.841
10898SOL    HW234592  12.590  10.145   7.858
10899SOL     OW34593  13.699   2.406   3.987
10899SOL    HW134594  13.758   2.420   4.060
10899SOL    HW234595  13.617   2.447   4.014
10900SOL     OW34596   1.750   1.647   9.329
10900SOL    HW134597   1.775   1.703   9.255
10900SOL    HW234598   1.831   1.637   9.380
10901SOL     OW34599  13.156   0.212  14.202
10901SOL    HW134600  13.102   0.141  14.236
10901SOL    HW234601  13.193   0.254  14.279
10902SOL     OW34602  11.332   2.513  13.083
10902SOL    HW134603  11.388   2.589  13.101
10902SOL    HW234604  11.389   2.438  13.092
10903SOL     OW34605  10.885  10.967  11.360
10903SOL    HW134606  10.824  10.904  11.320
10903SOL    HW234607  10.842  10.992  11.442
10904SOL     OW34608   7.074   7.255   7.816
10904SOL    HW134609   6.990   7.222   7.785
10904SOL    HW234610   7.076   7.346   7.789
10905SOL     OW34611   1.021   9.467  12.060
10905SOL    HW134612   1.070   9.485  11.979
10905SOL    HW234613   1.087   9.473  12.129
10906SOL     OW34614  14.611   8.697   7.958
10906SOL    HW134615  14.636   8.788   7.941
10906SOL    HW234616  14.544   8.679   7.891
10907SOL     OW34617   2.956   4.585  13.763
10907SOL    HW134618   2.948   4.557  13.672
10907SOL    HW234619   2.940   4.506  13.814
10908SOL     OW34620  10.769   1.793  12.918
10908SOL    HW134621  10.819   1.859  12.869
10908SOL    HW234622  10.814   1.711  12.899
10909SOL     OW34623   2.203   0.272   2.704
10909SOL    HW134624   2.207   0.208   2.775
10909SOL    HW234625   2.268   0.242   2.641
10910SOL     OW34626   4.066   0.419   3.588
10910SOL    HW134627   4.079   0.368   3.508
10910SOL    HW234628   4.090   0.359   3.659
10911SOL     OW34629   7.555   7.370   1.893
10911SOL    HW134630   7.647   7.358   1.870
10911SOL    HW234631   7.529   7.449   1.845
10912SOL     OW34632  10.376  12.882   7.064
10912SOL    HW134633  10.466  12.903   7.039
10912SOL    HW234634  10.384  12.806   7.122
10913SOL     OW34635  10.712  11.961  11.023
10913SOL    HW134636  10.647  12.004  11.078
10913SOL    HW234637  10.731  12.024  10.954
10914SOL     OW34638  12.733   7.248  14.427
10914SOL    HW134639  12.784   7.310  14.375
10914SOL    HW234640  12.647   7.290  14.436
10915SOL     OW34641  10.891  10.968   4.461
10915SOL    HW134642  10.868  11.060   4.475
10915SOL    HW234643  10.964  10.970   4.399
10916SOL     OW34644   3.263   6.692   2.763
10916SOL    HW134645   3.319   6.714   2.689
10916SOL    HW234646   3.196   6.760   2.763
10917SOL     OW34647   9.698  11.573  10.427
10917SOL    HW134648   9.709  11.597  10.519
10917SOL    HW234649   9.788  11.563  10.394
10918SOL     OW34650  11.684   7.970  14.058
10918SOL    HW134651  11.710   8.060  14.041
10918SOL    HW234652  11.658   7.935  13.973
10919SOL     OW34653  13.790  13.519   1.488
10919SOL    HW134654  13.707  13.559   1.460
10919SOL    HW234655  13.809  13.559   1.572
10920SOL     OW34656   3.336   3.666  11.397
10920SOL    HW134657   3.273   3.714  11.451
10920SOL    HW234658   3.398   3.629  11.460
10921SOL     OW34659  11.691  14.325   1.313
10921SOL    HW134660  11.747  14.264   1.266
10921SOL    HW234661  11.751  14.377   1.367
10922SOL     OW34662  14.763   6.995   2.836
10922SOL    HW134663  14.784   7.075   2.884
10922SOL    HW234664  14.703   6.948   2.894
10923SOL     OW34665   1.719   8.689   3.949
10923SOL    HW134666   1.709   8.650   3.863
10923SOL    HW234667   1.720   8.614   4.009
10924SOL     OW34668   1.448   5.208   7.147
10924SOL    HW134669   1.355   5.198   7.163
10924SOL    HW234670   1.490   5.167   7.222
10925SOL     OW34671   3.156   1.407   9.416
10925SOL    HW134672   3.103   1.335   9.450
10925SOL    HW234673   3.100   1.484   9.422
10926SOL     OW34674  10.707   5.252   1.693
10926SOL    HW134675  10.768   5.287   1.628
10926SOL    HW234676  10.638   5.209   1.642
10927SOL     OW34677  13.933  13.181  11.123
10927SOL    HW134678  13.903  13.120  11.190
10927SOL    HW234679  14.025  13.157  11.109
10928SOL     OW34680   5.320   9.420   9.363
10928SOL    HW134681   5.373   9.340   9.371
10928SOL    HW234682   5.340   9.469   9.443
10929SOL     OW34683   7.775   8.793   5.087
10929SOL    HW134684   7.695   8.743   5.070
10929SOL    HW234685   7.759   8.838   5.170
10930SOL     OW34686   4.904  13.757   0.856
10930SOL    HW134687   4.840  13.828   0.858
10930SOL    HW234688   4.898  13.716   0.942
10931SOL     OW34689  13.389   6.952  10.365
10931SOL    HW134690  13.361   6.864  10.339
10931SOL    HW234691  13.438   6.939  10.446
10932SOL     OW34692   4.758  10.320   6.268
10932SOL    HW134693   4.804  10.247   6.226
10932SOL    HW234694   4.826  10.386   6.280
10933SOL     OW34695   5.194   7.187   9.346
10933SOL    HW134696   5.248   7.225   9.277
10933SOL    HW234697   5.244   7.201   9.426
10934SOL     OW34698   8.214   3.203  12.275
10934SOL    HW134699   8.129   3.242  12.258
10934SOL    HW234700   8.221   3.132  12.211
10935SOL     OW34701  10.682   4.587   1.005
10935SOL    HW134702  10.681   4.672   0.961
10935SOL    HW234703  10.765   4.547   0.978
10936SOL     OW34704  11.049  13.640   9.038
10936SOL    HW134705  11.131  13.600   9.008
10936SOL    HW234706  11.056  13.642   9.133
10937SOL     OW34707   8.763   3.983   3.660
10937SOL    HW134708   8.821   3.949   3.728
10937SOL    HW234709   8.758   3.913   3.595
10938SOL     OW34710   1.156   2.911   2.990
10938SOL    HW134711   1.100   2.912   3.068
10938SOL    HW234712   1.220   2.981   3.005
10939SOL     OW34713  10.708   7.208   8.518
10939SOL    HW134714  10.649   7.145   8.477
10939SOL    HW234715  10.725   7.170   8.605
10940SOL     OW34716   2.184  13.698   5.995
10940SOL    HW134717   2.179  13.769   5.931
10940SOL    HW234718   2.162  13.739   6.079
10941SOL     OW34719   5.794   6.785   8.271
10941SOL    HW134720   5.830   6.873   8.273
10941SOL    HW234721   5.778   6.763   8.363
10942SOL     OW34722   1.858   1.192  10.356
10942SOL    HW134723   1.788   1.234  10.406
10942SOL    HW234724   1.899   1.263  10.307
10943SOL     OW34725   2.870   6.510  10.296
10943SOL    HW134726   2.935   6.449  10.331
10943SOL    HW234727   2.860   6.575  10.365
10944SOL     OW34728   9.401   7.922  11.215
10944SOL    HW134729   9.459   7.976  11.270
10944SOL    HW234730   9.328   7.981  11.194
10945SOL     OW34731   7.379  11.552  12.230
10945SOL    HW134732   7.417  11.624  12.281
10945SOL    HW234733   7.431  11.550  12.149
10946SOL     OW34734  11.538   2.504   8.447
10946SOL    HW134735  11.564   2.429   8.393
10946SOL    HW234736  11.495   2.563   8.386
10947SOL     OW34737   9.130   0.335   5.812
10947SOL    HW134738   9.051   0.308   5.858
10947SOL    HW234739   9.147   0.264   5.750
10948SOL     OW34740   6.178   9.975   4.521
10948SOL    HW134741   6.185   9.906   4.587
10948SOL    HW234742   6.099  10.024   4.545
10949SOL     OW34743   7.491  10.324   6.516
10949SOL    HW134744   7.472  10.348   6.425
10949SOL    HW234745   7.574  10.367   6.535
10950SOL     OW34746   5.659   2.118   3.244
10950SOL    HW134747   5.639   2.124   3.150
10950SOL    HW234748   5.573   2.116   3.286
10951SOL     OW34749  12.497   0.336  13.802
10951SOL    HW134750  12.452   0.344  13.886
10951SOL    HW234751  12.462   0.407  13.748
10952SOL     OW34752  12.169  11.993   7.196
10952SOL    HW134753  12.154  11.900   7.183
10952SOL    HW234754  12.104  12.020   7.261
10953SOL     OW34755   4.708  14.379   5.675
10953SOL    HW134756   4.775  14.447   5.664
10953SOL    HW234757   4.731  14.313   5.610
10954SOL     OW34758  10.794   8.145  11.687
10954SOL    HW134759  10.776   8.085  11.614
10954SOL    HW234760  10.712   8.192  11.701
10955SOL     OW34761   3.957   1.282   6.877
10955SOL    HW134762   3.965   1.238   6.793
10955SOL    HW234763   3.864   1.278   6.898
10956SOL     OW34764   9.726   1.367   3.595
10956SOL    HW134765   9.658   1.405   3.538
10956SOL    HW234766   9.741   1.434   3.662
10957SOL     OW34767  13.350   0.200   0.232
10957SOL    HW134768  13.312   0.286   0.250
10957SOL    HW234769  13.292   0.139   0.277
10958SOL     OW34770   1.573   9.502   8.563
10958SOL    HW134771   1.489   9.549   8.563
10958SOL    HW234772   1.599   9.498   8.471
10959SOL     OW34773   7.648   1.981   2.924
10959SOL    HW134774   7.715   1.933   2.974
10959SOL    HW234775   7.570   1.979   2.979
10960SOL     OW34776   0.128  12.383   9.089
10960SOL    HW134777   0.179  12.415   9.163
10960SOL    HW234778   0.189  12.325   9.043
10961SOL     OW34779  11.310  11.872   5.164
10961SOL    HW134780  11.321  11.964   5.186
10961SOL    HW234781  11.216  11.862   5.146
10962SOL     OW34782   0.035   1.171   3.384
10962SOL    HW134783  14.857   1.194   3.459
10962SOL    HW234784   0.086   1.251   3.368
10963SOL     OW34785   0.282  10.925   1.971
10963SOL    HW134786   0.210  10.986   1.988
10963SOL    HW234787   0.303  10.888   2.057
10964SOL     OW34788   5.573  14.580   5.271
10964SOL    HW134789   5.547  14.672   5.274
10964SOL    HW234790   5.520  14.538   5.339
10965SOL     OW34791  10.689  11.021   6.741
10965SOL    HW134792  10.638  10.953   6.784
10965SOL    HW234793  10.738  11.062   6.813
10966SOL     OW34794   4.822   4.297  10.674
10966SOL    HW134795   4.871   4.229  10.721
10966SOL    HW234796   4.806   4.259  10.588
10967SOL     OW34797   3.843   6.791   8.879
10967SOL    HW134798   3.830   6.697   8.890
10967SOL    HW234799   3.848   6.825   8.969
10968SOL     OW34800   2.253  13.296   7.396
10968SOL    HW134801   2.261  13.210   7.437
10968SOL    HW234802   2.324  13.348   7.433
10969SOL     OW34803   2.862  10.721   8.275
10969SOL    HW134804   2.836  10.680   8.357
10969SOL    HW234805   2.780  10.734   8.227
10970SOL     OW34806   1.008   2.752   2.834
10970SOL    HW134807   0.981   2.807   2.761
10970SOL    HW234808   1.077   2.801   2.878
10971SOL     OW34809   8.489   3.956   2.529
10971SOL    HW134810   8.541   3.943   2.608
10971SOL    HW234811   8.408   3.998   2.560
10972SOL     OW34812  11.954   4.975   4.639
10972SOL    HW134813  11.874   4.951   4.593
10972SOL    HW234814  11.924   5.022   4.717
10973SOL     OW34815   9.557  13.904   0.419
10973SOL    HW134816   9.469  13.888   0.385
10973SOL    HW234817   9.589  13.978   0.367
10974SOL     OW34818   0.400   2.370  10.184
10974SOL    HW134819   0.346   2.433  10.136
10974SOL    HW234820   0.472   2.350  10.125
10975SOL     OW34821   3.362  11.713  14.256
10975SOL    HW134822   3.272  11.738  14.276
10975SOL    HW234823   3.399  11.790  14.213
10976SOL     OW34824  11.779   2.221  11.408
10976SOL    HW134825  11.695   2.195  11.372
10976SOL    HW234826  11.781   2.180  11.495
10977SOL     OW34827   0.577  10.086   0.323
10977SOL    HW134828   0.582   9.994   0.349
10977SOL    HW234829   0.642  10.095   0.253
10978SOL     OW34830   4.174   0.243   3.772
10978SOL    HW134831   4.260   0.208   3.749
10978SOL    HW234832   4.132   0.173   3.822
10979SOL     OW34833  10.684  11.138  14.436
10979SOL    HW134834  10.765  11.144  14.385
10979SOL    HW234835  10.713  11.140  14.527
10980SOL     OW34836  14.451   1.673   4.153
10980SOL    HW134837  14.381   1.705   4.096
10980SOL    HW234838  14.445   1.728   4.231
10981SOL     OW34839   1.620  10.691   6.454
10981SOL    HW134840   1.583  10.660   6.371
10981SOL    HW234841   1.544  10.708   6.509
10982SOL     OW34842  13.099   4.813  13.608
10982SOL    HW134843  13.180   4.844  13.647
10982SOL    HW234844  13.099   4.718  13.622
10983SOL     OW34845  13.441   5.182  14.370
10983SOL    HW134846  13.392   5.120  14.424
10983SOL    HW234847  13.376   5.218  14.310
10984SOL     OW34848   3.541   4.466  13.459
10984SOL    HW134849   3.513   4.475  13.368
10984SOL    HW234850   3.633   4.441  13.453
10985SOL     OW34851  10.526  13.972   6.742
10985SOL    HW134852  10.477  13.975   6.824
10985SOL    HW234853  10.618  13.970   6.769
10986SOL     OW34854  10.069  10.362  14.475
10986SOL    HW134855  10.153  10.330  14.441
10986SOL    HW234856  10.058  10.315  14.558
10987SOL     OW34857  11.273  13.749  12.193
10987SOL    HW134858  11.228  13.716  12.115
10987SOL    HW234859  11.203  13.789  12.246
10988SOL     OW34860  11.856   7.875   2.834
10988SOL    HW134861  11.951   7.875   2.844
10988SOL    HW234862  11.829   7.965   2.849
10989SOL     OW34863   6.111  12.495   3.109
10989SOL    HW134864   6.034  12.438   3.103
10989SOL    HW234865   6.184  12.437   3.085
10990SOL     OW34866  13.396  13.674   9.595
10990SOL    HW134867  13.456  13.654   9.523
10990SOL    HW234868  13.349  13.753   9.567
10991SOL     OW34869   6.451  12.462  12.364
10991SOL    HW134870   6.437  12.372  12.393
10991SOL    HW234871   6.418  12.464  12.274
10992SOL     OW34872   2.260  10.068  12.196
10992SOL    HW134873   2.259  10.132  12.267
10992SOL    HW234874   2.189  10.007  12.218
10993SOL     OW34875   2.434   4.302   5.895
10993SOL    HW134876   2.372   4.360   5.938
10993SOL    HW234877   2.505   4.291   5.957
10994SOL     OW34878  12.500  14.055   0.942
10994SOL    HW134879  12.500  14.142   0.982
10994SOL    HW234880  12.435  14.006   0.991
10995SOL     OW34881  13.714   9.155   1.784
10995SOL    HW134882  13.731   9.155   1.879
10995SOL    HW234883  13.770   9.225   1.751
10996SOL     OW34884  12.680  13.671  10.107
10996SOL    HW134885  12.642  13.596  10.061
10996SOL    HW234886  12.774  13.662  10.094
10997SOL     OW34887   2.518   2.238   6.657
10997SOL    HW134888   2.476   2.188   6.727
10997SOL    HW234889   2.520   2.328   6.689
10998SOL     OW34890   9.027  11.153  12.489
10998SOL    HW134891   8.933  11.167  12.503
10998SOL    HW234892   9.037  11.058  12.485
10999SOL     OW34893   3.732   0.588  14.655
10999SOL    HW134894   3.763   0.662  14.707
10999SOL    HW234895   3.792   0.517  14.676
11000SOL     OW34896  10.144   3.067  10.981
11000SOL    HW134897  10.125   3.135  11.045
11000SOL    HW234898  10.193   3.111  10.912
11001SOL     OW34899  12.508   3.197  14.237
11001SOL    HW134900  12.591   3.167  14.274
11001SOL    HW234901  12.463   3.118  14.208
11002SOL     OW34902  11.794  10.106  10.129
11002SOL    HW134903  11.773  10.013  10.139
11002SOL    HW234904  11.747  10.133  10.051
11003SOL     OW34905   9.092  10.185   2.294
11003SOL    HW134906   9.055  10.097   2.285
11003SOL    HW234907   9.017  10.239   2.320
11004SOL     OW34908   8.771   0.872   4.838
11004SOL    HW134909   8.794   0.861   4.930
11004SOL    HW234910   8.845   0.921   4.801
11005SOL     OW34911   1.259   3.164  10.132
11005SOL    HW134912   1.305   3.237  10.090
11005SOL    HW234913   1.280   3.088  10.077
11006SOL     OW34914  10.566   9.682  12.285
11006SOL    HW134915  10.488   9.729  12.254
11006SOL    HW234916  10.563   9.691  12.380
11007SOL     OW34917   7.936  13.155   5.982
11007SOL    HW134918   8.000  13.118   5.921
11007SOL    HW234919   7.966  13.245   5.996
11008SOL     OW34920  14.220   3.945   2.357
11008SOL    HW134921  14.255   4.011   2.416
11008SOL    HW234922  14.257   3.967   2.272
11009SOL     OW34923   2.035   0.143  10.667
11009SOL    HW134924   2.119   0.156  10.623
11009SOL    HW234925   2.029   0.215  10.730
11010SOL     OW34926   8.499   9.747  13.707
11010SOL    HW134927   8.519   9.679  13.642
11010SOL    HW234928   8.555   9.821  13.682
11011SOL     OW34929   6.490   0.007   2.325
11011SOL    HW134930   6.524   0.077   2.381
11011SOL    HW234931   6.409  14.857   2.368
11012SOL     OW34932  10.014   2.010   2.658
11012SOL    HW134933   9.949   2.061   2.610
11012SOL    HW234934  10.007   1.922   2.622
11013SOL     OW34935   3.569   3.833   8.822
11013SOL    HW134936   3.573   3.741   8.849
11013SOL    HW234937   3.649   3.845   8.770
11014SOL     OW34938  12.544  13.864   3.255
11014SOL    HW134939  12.540  13.815   3.337
11014SOL    HW234940  12.637  13.870   3.236
11015SOL     OW34941   2.284   5.785   9.756
11015SOL    HW134942   2.352   5.719   9.766
11015SOL    HW234943   2.327   5.857   9.709
11016SOL     OW34944   3.321   1.759   9.565
11016SOL    HW134945   3.332   1.665   9.575
11016SOL    HW234946   3.332   1.775   9.471
11017SOL     OW34947   7.948  10.621   6.865
11017SOL    HW134948   7.999  10.629   6.946
11017SOL    HW234949   7.902  10.704   6.857
11018SOL     OW34950  13.541  10.156   3.511
11018SOL    HW134951  13.579  10.240   3.537
11018SOL    HW234952  13.459  10.180   3.467
11019SOL     OW34953  12.587  10.365  12.828
11019SOL    HW134954  12.675  10.391  12.854
11019SOL    HW234955  12.541  10.349  12.911
11020SOL     OW34956   8.840  10.144   9.067
11020SOL    HW134957   8.863  10.166   8.977
11020SOL    HW234958   8.858  10.050   9.074
11021SOL     OW34959   0.149   8.612   6.068
11021SOL    HW134960   0.172   8.555   5.995
11021SOL    HW234961   0.202   8.580   6.141
11022SOL     OW34962  11.721   3.884   2.355
11022SOL    HW134963  11.720   3.978   2.371
11022SOL    HW234964  11.776   3.873   2.278
11023SOL     OW34965   5.333   9.541  13.622
11023SOL    HW134966   5.250   9.511  13.659
11023SOL    HW234967   5.312   9.625  13.582
11024SOL     OW34968   3.033  14.864   8.554
11024SOL    HW134969   3.073   0.051   8.496
11024SOL    HW234970   2.966  14.821   8.501
11025SOL     OW34971   8.158  12.620   7.314
11025SOL    HW134972   8.206  12.547   7.352
11025SOL    HW234973   8.154  12.599   7.221
11026SOL     OW34974   3.601   6.498  12.368
11026SOL    HW134975   3.546   6.431  12.327
11026SOL    HW234976   3.546   6.535  12.438
11027SOL     OW34977   3.349  11.738   1.302
11027SOL    HW134978   3.314  11.680   1.369
11027SOL    HW234979   3.281  11.741   1.235
11028SOL     OW34980   7.685   2.727   0.117
11028SOL    HW134981   7.669   2.770   0.032
11028SOL    HW234982   7.776   2.749   0.138
11029SOL     OW34983  11.923   8.903   5.601
11029SOL    HW134984  12.003   8.929   5.555
11029SOL    HW234985  11.954   8.842   5.668
11030SOL     OW34986   2.999   2.313  14.448
11030SOL    HW134987   3.058   2.283  14.378
11030SOL    HW234988   2.954   2.389  14.410
11031SOL     OW34989   2.518  14.877   2.226
11031SOL    HW134990   2.509   0.073   2.165
11031SOL    HW234991   2.428  14.857   2.253
11032SOL     OW34992   8.495   1.188   4.291
11032SOL    HW134993   8.416   1.201   4.342
11032SOL    HW234994   8.564   1.172   4.355
11033SOL     OW34995  13.230  12.944   1.253
11033SOL    HW134996  13.217  12.865   1.307
11033SOL    HW234997  13.146  12.989   1.257
11034SOL     OW34998  11.511  14.425   4.834
11034SOL    HW134999  11.568  14.472   4.774
11034SOL    HW235000  11.566  14.407   4.910
11035SOL     OW35001   9.610  11.694  10.187
11035SOL    HW135002   9.648  11.632  10.249
11035SOL    HW235003   9.558  11.753  10.241
11036SOL     OW35004  13.421   5.221   6.055
11036SOL    HW135005  13.386   5.140   6.020
11036SOL    HW235006  13.360   5.245   6.126
11037SOL     OW35007   1.719  11.062   5.831
11037SOL    HW135008   1.790  11.079   5.769
11037SOL    HW235009   1.724  11.134   5.893
11038SOL     OW35010   8.980   9.204   5.707
11038SOL    HW135011   8.974   9.212   5.612
11038SOL    HW235012   9.074   9.197   5.725
11039SOL     OW35013   3.495   1.655   7.937
11039SOL    HW135014   3.547   1.652   7.857
11039SOL    HW235015   3.558   1.646   8.008
11040SOL     OW35016   5.647   3.102   5.096
11040SOL    HW135017   5.739   3.102   5.124
11040SOL    HW235018   5.600   3.059   5.168
11041SOL     OW35019  13.933  11.925   6.897
11041SOL    HW135020  13.942  12.020   6.905
11041SOL    HW235021  13.914  11.895   6.986
11042SOL     OW35022   7.799  14.269   1.355
11042SOL    HW135023   7.721  14.324   1.352
11042SOL    HW235024   7.767  14.181   1.336
11043SOL     OW35025   4.379  14.149   4.695
11043SOL    HW135026   4.354  14.119   4.608
11043SOL    HW235027   4.346  14.238   4.701
11044SOL     OW35028   3.042   7.769  12.253
11044SOL    HW135029   3.012   7.814  12.174
11044SOL    HW235030   2.973   7.785  12.318
11045SOL     OW35031   3.651   7.394   7.919
11045SOL    HW135032   3.587   7.456   7.883
11045SOL    HW235033   3.729   7.448   7.936
11046SOL     OW35034  11.057   4.309   3.014
11046SOL    HW135035  11.006   4.389   3.026
11046SOL    HW235036  11.146   4.339   2.997
11047SOL     OW35037  14.659   2.461   4.708
11047SOL    HW135038  14.666   2.369   4.731
11047SOL    HW235039  14.575   2.469   4.662
11048SOL     OW35040   4.925   8.185   6.225
11048SOL    HW135041   4.945   8.248   6.294
11048SOL    HW235042   4.989   8.203   6.156
11049SOL     OW35043   2.950   2.614   6.632
11049SOL    HW135044   2.856   2.632   6.642
11049SOL    HW235045   2.965   2.537   6.687
11050SOL     OW35046   3.727   8.962   6.400
11050SOL    HW135047   3.760   9.014   6.326
11050SOL    HW235048   3.639   8.937   6.375
11051SOL     OW35049  12.885  12.818   8.622
11051SOL    HW135050  12.954  12.763   8.660
11051SOL    HW235051  12.869  12.885   8.689
11052SOL     OW35052   1.868   0.749   8.715
11052SOL    HW135053   1.906   0.741   8.803
11052SOL    HW235054   1.793   0.808   8.726
11053SOL     OW35055  13.270   3.985   8.147
11053SOL    HW135056  13.297   4.068   8.186
11053SOL    HW235057  13.310   3.918   8.204
11054SOL     OW35058  10.100  12.839  12.341
11054SOL    HW135059  10.037  12.783  12.297
11054SOL    HW235060  10.168  12.855  12.276
11055SOL     OW35061   4.600  11.655   5.891
11055SOL    HW135062   4.504  11.657   5.881
11055SOL    HW235063   4.626  11.569   5.859
11056SOL     OW35064   1.576  12.172   4.188
11056SOL    HW135065   1.610  12.240   4.246
11056SOL    HW235066   1.597  12.203   4.100
11057SOL     OW35067  13.242   2.566  11.750
11057SOL    HW135068  13.318   2.625  11.750
11057SOL    HW235069  13.190   2.594  11.825
11058SOL     OW35070   0.434  13.265  12.687
11058SOL    HW135071   0.486  13.185  12.697
11058SOL    HW235072   0.469  13.306  12.608
11059SOL     OW35073   4.893   6.530   5.863
11059SOL    HW135074   4.816   6.573   5.901
11059SOL    HW235075   4.947   6.506   5.939
11060SOL     OW35076   2.630   2.174   0.696
11060SOL    HW135077   2.548   2.223   0.687
11060SOL    HW235078   2.692   2.237   0.730
11061SOL     OW35079   6.187  13.846  14.778
11061SOL    HW135080   6.227  13.893  14.851
11061SOL    HW235081   6.254  13.848  14.709
11062SOL     OW35082  14.495   7.292  13.828
11062SOL    HW135083  14.495   7.266  13.736
11062SOL    HW235084  14.571   7.349  13.836
11063SOL     OW35085   6.350  11.621   4.839
11063SOL    HW135086   6.258  11.640   4.818
11063SOL    HW235087   6.399  11.695   4.804
11064SOL     OW35088   5.769   8.301   4.583
11064SOL    HW135089   5.853   8.347   4.580
11064SOL    HW235090   5.712   8.353   4.527
11065SOL     OW35091  10.266  14.270   5.224
11065SOL    HW135092  10.357  14.277   5.194
11065SOL    HW235093  10.225  14.210   5.163
11066SOL     OW35094   4.370   2.755   1.990
11066SOL    HW135095   4.371   2.819   2.061
11066SOL    HW235096   4.433   2.688   2.016
11067SOL     OW35097  11.566   3.509  13.525
11067SOL    HW135098  11.575   3.601  13.550
11067SOL    HW235099  11.523   3.468  13.600
11068SOL     OW35100   8.179   8.768  12.484
11068SOL    HW135101   8.247   8.831  12.460
11068SOL    HW235102   8.186   8.699  12.418
11069SOL     OW35103   1.960  10.657   1.605
11069SOL    HW135104   2.004  10.617   1.530
11069SOL    HW235105   1.983  10.601   1.679
11070SOL     OW35106  13.006  13.328   4.230
11070SOL    HW135107  12.957  13.365   4.303
11070SOL    HW235108  12.954  13.251   4.204
11071SOL     OW35109   1.694   5.215   1.238
11071SOL    HW135110   1.645   5.286   1.196
11071SOL    HW235111   1.703   5.243   1.329
11072SOL     OW35112   9.570  10.268   4.730
11072SOL    HW135113   9.561  10.356   4.767
11072SOL    HW235114   9.587  10.284   4.637
11073SOL     OW35115  12.250   2.061   7.905
11073SOL    HW135116  12.314   2.045   7.835
11073SOL    HW235117  12.171   2.015   7.875
11074SOL     OW35118   5.050   1.430   7.280
11074SOL    HW135119   5.119   1.377   7.318
11074SOL    HW235120   5.094   1.482   7.212
11075SOL     OW35121  12.122   2.769   1.320
11075SOL    HW135122  12.143   2.676   1.316
11075SOL    HW235123  12.190   2.807   1.375
11076SOL     OW35124   0.406   6.609  14.399
11076SOL    HW135125   0.476   6.546  14.385
11076SOL    HW235126   0.346   6.594  14.327
11077SOL     OW35127  10.580   5.013  13.292
11077SOL    HW135128  10.622   5.030  13.208
11077SOL    HW235129  10.646   4.964  13.342
11078SOL     OW35130  11.462   6.667  12.167
11078SOL    HW135131  11.535   6.729  12.169
11078SOL    HW235132  11.430   6.664  12.257
11079SOL     OW35133   1.717   6.611   7.070
11079SOL    HW135134   1.728   6.669   6.994
11079SOL    HW235135   1.777   6.646   7.136
11080SOL     OW35136  13.462   8.666   3.089
11080SOL    HW135137  13.367   8.663   3.096
11080SOL    HW235138  13.482   8.758   3.069
11081SOL     OW35139   1.035   0.284   1.625
11081SOL    HW135140   1.076   0.335   1.555
11081SOL    HW235141   0.961   0.338   1.653
11082SOL     OW35142   1.097  13.232   5.395
11082SOL    HW135143   1.098  13.216   5.300
11082SOL    HW235144   1.189  13.246   5.418
11083SOL     OW35145  13.854  14.495  11.923
11083SOL    HW135146  13.900  14.558  11.978
11083SOL    HW235147  13.806  14.440  11.984
11084SOL     OW35148  10.942   5.157   3.922
11084SOL    HW135149  10.914   5.183   4.010
11084SOL    HW235150  11.006   5.223   3.896
11085SOL     OW35151   0.721   1.141   8.444
11085SOL    HW135152   0.727   1.160   8.538
11085SOL    HW235153   0.788   1.075   8.428
11086SOL     OW35154   2.138  11.534  11.401
11086SOL    HW135155   2.170  11.519  11.490
11086SOL    HW235156   2.081  11.610  11.408
11087SOL     OW35157   6.600  13.535   5.588
11087SOL    HW135158   6.664  13.474   5.623
11087SOL    HW235159   6.598  13.606   5.652
11088SOL     OW35160   3.385   2.351   8.064
11088SOL    HW135161   3.403   2.445   8.054
11088SOL    HW235162   3.301   2.347   8.108
11089SOL     OW35163  13.481   3.072   8.865
11089SOL    HW135164  13.501   3.149   8.919
11089SOL    HW235165  13.433   3.013   8.923
11090SOL     OW35166  11.838   8.301  13.421
11090SOL    HW135167  11.878   8.287  13.507
11090SOL    HW235168  11.820   8.395  13.418
11091SOL     OW35169  10.904   4.765   7.387
11091SOL    HW135170  10.924   4.699   7.322
11091SOL    HW235171  10.963   4.838   7.367
11092SOL     OW35172   2.048  10.734  12.202
11092SOL    HW135173   2.125  10.746  12.146
11092SOL    HW235174   2.034  10.639  12.204
11093SOL     OW35175  10.767   2.833  12.987
11093SOL    HW135176  10.825   2.758  12.990
11093SOL    HW235177  10.686   2.799  12.949
11094SOL     OW35178   2.500   1.018   6.374
11094SOL    HW135179   2.507   1.082   6.304
11094SOL    HW235180   2.417   0.973   6.357
11095SOL     OW35181  11.642   3.092  14.685
11095SOL    HW135182  11.713   3.031  14.667
11095SOL    HW235183  11.663   3.130  14.770
11096SOL     OW35184   0.471  13.186   5.052
11096SOL    HW135185   0.493  13.220   5.138
11096SOL    HW235186   0.552  13.192   5.002
11097SOL     OW35187   4.372   6.692   3.026
11097SOL    HW135188   4.327   6.744   3.093
11097SOL    HW235189   4.452   6.661   3.070
11098SOL     OW35190   0.286   0.558   3.555
11098SOL    HW135191   0.251   0.577   3.642
11098SOL    HW235192   0.366   0.508   3.571
11099SOL     OW35193  12.256   3.699   9.292
11099SOL    HW135194  12.283   3.608   9.302
11099SOL    HW235195  12.161   3.697   9.305
11100SOL     OW35196   4.106   1.065   8.192
11100SOL    HW135197   4.034   1.105   8.241
11100SOL    HW235198   4.160   1.138   8.164
11101SOL     OW35199   8.220   9.907  13.242
11101SOL    HW135200   8.215   9.843  13.171
11101SOL    HW235201   8.306   9.947  13.232
11102SOL     OW35202   0.912  13.399   6.031
11102SOL    HW135203   0.905  13.486   6.071
11102SOL    HW235204   0.977  13.353   6.084
11103SOL     OW35205   9.158   7.718   9.790
11103SOL    HW135206   9.143   7.714   9.884
11103SOL    HW235207   9.138   7.629   9.759
11104SOL     OW35208   4.053  10.762  13.075
11104SOL    HW135209   3.963  10.774  13.045
11104SOL    HW235210   4.101  10.836  13.036
11105SOL     OW35211  13.095   3.544  12.435
11105SOL    HW135212  13.128   3.632  12.416
11105SOL    HW235213  13.005   3.558  12.462
11106SOL     OW35214  10.868  12.773   5.584
11106SOL    HW135215  10.842  12.865   5.582
11106SOL    HW235216  10.897  12.755   5.495
11107SOL     OW35217  14.401   0.904   4.804
11107SOL    HW135218  14.396   0.960   4.881
11107SOL    HW235219  14.494   0.904   4.780
11108SOL     OW35220   4.708  11.534   6.136
11108SOL    HW135221   4.777  11.480   6.097
11108SOL    HW235222   4.634  11.524   6.077
11109SOL     OW35223  13.729   6.131   5.137
11109SOL    HW135224  13.705   6.082   5.215
11109SOL    HW235225  13.716   6.223   5.161
11110SOL     OW35226  12.430   5.337   2.730
11110SOL    HW135227  12.485   5.373   2.800
11110SOL    HW235228  12.462   5.248   2.718
11111SOL     OW35229   4.165   4.575   8.363
11111SOL    HW135230   4.160   4.670   8.352
11111SOL    HW235231   4.074   4.548   8.375
11112SOL     OW35232   3.749  10.720  12.043
11112SOL    HW135233   3.742  10.646  11.982
11112SOL    HW235234   3.702  10.691  12.121
11113SOL     OW35235   8.588   4.197   3.605
11113SOL    HW135236   8.629   4.225   3.523
11113SOL    HW235237   8.627   4.111   3.622
11114SOL     OW35238   3.698   5.985   6.492
11114SOL    HW135239   3.604   5.984   6.474
11114SOL    HW235240   3.737   5.940   6.417
11115SOL     OW35241   9.183   6.032   6.965
11115SOL    HW135242   9.102   6.080   6.952
11115SOL    HW235243   9.218   6.019   6.877
11116SOL     OW35244  10.500   0.877   5.004
11116SOL    HW135245  10.441   0.811   5.041
11116SOL    HW235246  10.585   0.858   5.043
11117SOL     OW35247   6.486   9.990   0.721
11117SOL    HW135248   6.432   9.911   0.721
11117SOL    HW235249   6.443  10.048   0.658
11118SOL     OW35250   0.352   0.617  11.671
11118SOL    HW135251   0.262   0.586  11.672
11118SOL    HW235252   0.402   0.546  11.632
11119SOL     OW35253   6.487   4.834  10.256
11119SOL    HW135254   6.516   4.866  10.341
11119SOL    HW235255   6.509   4.904  10.195
11120SOL     OW35256   1.826   6.202   9.408
11120SOL    HW135257   1.902   6.257   9.392
11120SOL    HW235258   1.800   6.223   9.498
11121SOL     OW35259   0.272   6.774  14.564
11121SOL    HW135260   0.321   6.719  14.502
11121SOL    HW235261   0.275   6.725  14.646
11122SOL     OW35262   7.075   2.706   7.275
11122SOL    HW135263   7.029   2.735   7.354
11122SOL    HW235264   7.166   2.697   7.302
11123SOL     OW35265   6.472  13.239   0.471
11123SOL    HW135266   6.455  13.282   0.555
11123SOL    HW235267   6.457  13.146   0.488
11124SOL     OW35268   1.457   1.981   8.032
11124SOL    HW135269   1.464   1.963   8.126
11124SOL    HW235270   1.519   1.920   7.991
11125SOL     OW35271   4.246   2.929  11.733
11125SOL    HW135272   4.248   2.834  11.742
11125SOL    HW235273   4.166   2.956  11.778
11126SOL     OW35274   0.875   5.469   4.713
11126SOL    HW135275   0.967   5.466   4.740
11126SOL    HW235276   0.859   5.385   4.672
11127SOL     OW35277   8.597   5.883   0.388
11127SOL    HW135278   8.586   5.918   0.476
11127SOL    HW235279   8.691   5.889   0.371
11128SOL     OW35280   9.974   0.627   2.965
11128SOL    HW135281  10.062   0.610   3.001
11128SOL    HW235282   9.931   0.679   3.032
11129SOL     OW35283  11.358   4.336   1.261
11129SOL    HW135284  11.294   4.407   1.267
11129SOL    HW235285  11.434   4.376   1.220
11130SOL     OW35286   8.877   6.121  13.082
11130SOL    HW135287   8.802   6.080  13.039
11130SOL    HW235288   8.928   6.158  13.010
11131SOL     OW35289   0.784   8.493  11.069
11131SOL    HW135290   0.693   8.471  11.092
11131SOL    HW235291   0.788   8.588  11.075
11132SOL     OW35292   0.456   2.695  11.083
11132SOL    HW135293   0.518   2.707  11.154
11132SOL    HW235294   0.505   2.716  11.003
11133SOL     OW35295   1.926  14.075   5.928
11133SOL    HW135296   1.910  14.163   5.895
11133SOL    HW235297   1.873  14.068   6.007
11134SOL     OW35298  10.542  14.453  11.067
11134SOL    HW135299  10.504  14.529  11.022
11134SOL    HW235300  10.626  14.440  11.025
11135SOL     OW35301   6.415  14.618   2.851
11135SOL    HW135302   6.353  14.592   2.783
11135SOL    HW235303   6.373  14.590   2.933
11136SOL     OW35304   7.034   8.148   8.629
11136SOL    HW135305   7.034   8.055   8.607
11136SOL    HW235306   7.116   8.181   8.591
11137SOL     OW35307   3.863   6.257  10.716
11137SOL    HW135308   3.942   6.231  10.670
11137SOL    HW235309   3.842   6.344  10.681
11138SOL     OW35310  12.740   5.137  10.713
11138SOL    HW135311  12.727   5.118  10.806
11138SOL    HW235312  12.834   5.149  10.703
11139SOL     OW35313   9.954   0.074   8.287
11139SOL    HW135314   9.917   0.109   8.368
11139SOL    HW235315   9.880   0.068   8.227
11140SOL     OW35316  13.229  14.296   6.241
11140SOL    HW135317  13.264  14.284   6.153
11140SOL    HW235318  13.210  14.207   6.272
11141SOL     OW35319   0.241  11.239   5.724
11141SOL    HW135320   0.152  11.261   5.698
11141SOL    HW235321   0.278  11.196   5.647
11142SOL     OW35322   6.372   8.059   4.194
11142SOL    HW135323   6.324   8.138   4.168
11142SOL    HW235324   6.305   7.991   4.195
11143SOL     OW35325   4.692   9.920   3.716
11143SOL    HW135326   4.670   9.884   3.802
11143SOL    HW235327   4.607   9.945   3.679
11144SOL     OW35328   2.895   3.855   3.072
11144SOL    HW135329   2.918   3.887   2.984
11144SOL    HW235330   2.973   3.873   3.125
11145SOL     OW35331  13.535   9.049  12.350
11145SOL    HW135332  13.460   9.009  12.306
11145SOL    HW235333  13.609   8.994  12.327
11146SOL     OW35334   1.033  10.798   1.468
11146SOL    HW135335   0.995  10.711   1.453
11146SOL    HW235336   1.027  10.842   1.383
11147SOL     OW35337   7.686  12.108  10.210
11147SOL    HW135338   7.666  12.022  10.174
11147SOL    HW235339   7.688  12.096  10.305
11148SOL     OW35340  11.841   9.826   7.656
11148SOL    HW135341  11.747   9.806   7.655
11148SOL    HW235342  11.883   9.741   7.673
11149SOL     OW35343   3.080   6.553  14.592
11149SOL    HW135344   2.999   6.578  14.637
11149SOL    HW235345   3.074   6.458  14.583
11150SOL     OW35346   0.521  11.948   5.629
11150SOL    HW135347   0.482  11.883   5.571
11150SOL    HW235348   0.566  12.008   5.569
11151SOL     OW35349   2.629  14.555   8.637
11151SOL    HW135350   2.656  14.625   8.697
11151SOL    HW235351   2.561  14.507   8.685
11152SOL     OW35352  11.024  11.799   2.808
11152SOL    HW135353  10.972  11.764   2.880
11152SOL    HW235354  11.090  11.733   2.791
11153SOL     OW35355  14.833   0.605   0.012
11153SOL    HW135356  14.821   0.688  14.843
11153SOL    HW235357  14.862   0.543  14.823
11154SOL     OW35358  12.459  11.880  10.020
11154SOL    HW135359  12.444  11.970   9.991
11154SOL    HW235360  12.374  11.837  10.010
11155SOL     OW35361   2.022   1.959   3.467
11155SOL    HW135362   1.963   1.993   3.534
11155SOL    HW235363   2.045   2.035   3.414
11156SOL     OW35364   0.411   3.136   0.890
11156SOL    HW135365   0.497   3.176   0.878
11156SOL    HW235366   0.353   3.209   0.912
11157SOL     OW35367   6.835   2.839  10.171
11157SOL    HW135368   6.801   2.830  10.260
11157SOL    HW235369   6.832   2.750  10.136
11158SOL     OW35370   3.433  11.890   9.514
11158SOL    HW135371   3.447  11.893   9.609
11158SOL    HW235372   3.438  11.981   9.486
11159SOL     OW35373   4.030   1.595   3.974
11159SOL    HW135374   4.103   1.628   4.026
11159SOL    HW235375   3.998   1.520   4.024
11160SOL     OW35376   2.789  11.943   4.198
11160SOL    HW135377   2.697  11.968   4.211
11160SOL    HW235378   2.785  11.850   4.176
11161SOL     OW35379   1.895   3.140  13.536
11161SOL    HW135380   1.839   3.216  13.553
11161SOL    HW235381   1.975   3.178  13.499
11162SOL     OW35382  11.449  12.433  10.905
11162SOL    HW135383  11.503  12.356  10.888
11162SOL    HW235384  11.442  12.437  11.000
11163SOL     OW35385  10.066   8.502   5.651
11163SOL    HW135386   9.993   8.467   5.703
11163SOL    HW235387  10.102   8.572   5.705
11164SOL     OW35388  13.235  14.851   1.691
11164SOL    HW135389  13.197   0.061   1.692
11164SOL    HW235390  13.292  14.849   1.768
11165SOL     OW35391  11.939   4.318   1.375
11165SOL    HW135392  12.004   4.249   1.367
11165SOL    HW235393  11.979   4.382   1.434
11166SOL     OW35394   0.368   8.659   7.757
11166SOL    HW135395   0.421   8.584   7.730
11166SOL    HW235396   0.285   8.621   7.786
11167SOL     OW35397   8.654   3.854   4.080
11167SOL    HW135398   8.696   3.935   4.051
11167SOL    HW235399   8.606   3.878   4.159
11168SOL     OW35400  11.779   5.095  13.894
11168SOL    HW135401  11.866   5.135  13.894
11168SOL    HW235402  11.780   5.037  13.818
11169SOL     OW35403  13.297  11.273   2.141
11169SOL    HW135404  13.264  11.203   2.085
11169SOL    HW235405  13.242  11.349   2.118
11170SOL     OW35406   8.312   0.838   8.883
11170SOL    HW135407   8.272   0.923   8.902
11170SOL    HW235408   8.322   0.837   8.788
11171SOL     OW35409   5.386   6.155  10.544
11171SOL    HW135410   5.347   6.124  10.626
11171SOL    HW235411   5.417   6.243  10.563
11172SOL     OW35412  14.823  11.675  13.707
11172SOL    HW135413  14.810  11.756  13.658
11172SOL    HW235414  14.742  11.664  13.757
11173SOL     OW35415   7.947   3.842   9.938
11173SOL    HW135416   7.854   3.843   9.962
11173SOL    HW235417   7.957   3.917   9.880
11174SOL     OW35418  14.516   7.836  11.249
11174SOL    HW135419  14.482   7.751  11.274
11174SOL    HW235420  14.446   7.876  11.198
11175SOL     OW35421   8.795  10.468  10.298
11175SOL    HW135422   8.788  10.389  10.352
11175SOL    HW235423   8.793  10.435  10.208
11176SOL     OW35424   9.009   5.001   1.389
11176SOL    HW135425   8.936   5.035   1.440
11176SOL    HW235426   8.971   4.930   1.337
11177SOL     OW35427  11.330   1.523  13.477
11177SOL    HW135428  11.324   1.457  13.407
11177SOL    HW235429  11.354   1.604  13.431
11178SOL     OW35430  14.644   6.219   0.734
11178SOL    HW135431  14.678   6.253   0.652
11178SOL    HW235432  14.688   6.271   0.802
11179SOL     OW35433  10.326   4.434  13.297
11179SOL    HW135434  10.273   4.500  13.251
11179SOL    HW235435  10.392   4.407  13.232
11180SOL     OW35436   3.073  12.388   8.750
11180SOL    HW135437   3.087  12.297   8.777
11180SOL    HW235438   3.151  12.434   8.780
11181SOL     OW35439   2.910   6.062   0.063
11181SOL    HW135440   2.891   5.995   0.130
11181SOL    HW235441   2.875   6.143   0.100
11182SOL     OW35442   5.958   8.055  11.910
11182SOL    HW135443   6.018   8.127  11.889
11182SOL    HW235444   6.002   8.008  11.981
11183SOL     OW35445   4.145   1.436   4.876
11183SOL    HW135446   4.194   1.361   4.843
11183SOL    HW235447   4.056   1.404   4.887
11184SOL     OW35448   0.648   7.260   4.590
11184SOL    HW135449   0.563   7.228   4.622
11184SOL    HW235450   0.645   7.244   4.496
11185SOL     OW35451  11.021   8.465   0.636
11185SOL    HW135452  11.045   8.438   0.548
11185SOL    HW235453  10.962   8.538   0.624
11186SOL     OW35454   9.236  14.138   5.367
11186SOL    HW135455   9.312  14.142   5.309
11186SOL    HW235456   9.182  14.067   5.330
11187SOL     OW35457   6.348   1.235   6.159
11187SOL    HW135458   6.423   1.223   6.102
11187SOL    HW235459   6.283   1.171   6.127
11188SOL     OW35460   4.216   7.693   0.221
11188SOL    HW135461   4.234   7.623   0.158
11188SOL    HW235462   4.194   7.769   0.168
11189SOL     OW35463   6.413   0.429  11.873
11189SOL    HW135464   6.438   0.337  11.877
11189SOL    HW235465   6.492   0.477  11.899
11190SOL     OW35466   1.287   3.868   7.313
11190SOL    HW135467   1.276   3.776   7.288
11190SOL    HW235468   1.200   3.894   7.345
11191SOL     OW35469   1.845   6.221   8.093
11191SOL    HW135470   1.893   6.286   8.043
11191SOL    HW235471   1.893   6.214   8.176
11192SOL     OW35472  10.250   8.474  10.188
11192SOL    HW135473  10.261   8.423  10.268
11192SOL    HW235474  10.313   8.437  10.126
11193SOL     OW35475   6.846  11.914   1.027
11193SOL    HW135476   6.778  11.947   1.086
11193SOL    HW235477   6.908  11.869   1.084
11194SOL     OW35478   9.628   8.629   5.850
11194SOL    HW135479   9.566   8.685   5.898
11194SOL    HW235480   9.593   8.626   5.761
11195SOL     OW35481   6.184  12.956   0.567
11195SOL    HW135482   6.174  13.019   0.496
11195SOL    HW235483   6.095  12.929   0.589
11196SOL     OW35484   8.982   9.690  11.176
11196SOL    HW135485   8.889   9.671  11.164
11196SOL    HW235486   8.985   9.746  11.254
11197SOL     OW35487   4.950  11.506  13.150
11197SOL    HW135488   4.957  11.552  13.067
11197SOL    HW235489   4.874  11.449  13.140
11198SOL     OW35490  12.873   7.462  14.348
11198SOL    HW135491  12.871   7.552  14.381
11198SOL    HW235492  12.903   7.469  14.258
11199SOL     OW35493   7.943   3.230   0.894
11199SOL    HW135494   7.949   3.191   0.806
11199SOL    HW235495   7.968   3.321   0.882
11200SOL     OW35496   2.027   1.776   0.350
11200SOL    HW135497   1.963   1.728   0.403
11200SOL    HW235498   2.073   1.832   0.412
11201SOL     OW35499  13.201  12.073   7.106
11201SOL    HW135500  13.120  12.099   7.064
11201SOL    HW235501  13.188  11.982   7.131
11202SOL     OW35502   7.860   4.908   3.119
11202SOL    HW135503   7.802   4.969   3.073
11202SOL    HW235504   7.803   4.836   3.144
11203SOL     OW35505   1.417   9.129   9.555
11203SOL    HW135506   1.430   9.161   9.466
11203SOL    HW235507   1.324   9.109   9.561
11204SOL     OW35508   9.658   4.496   7.394
11204SOL    HW135509   9.723   4.428   7.410
11204SOL    HW235510   9.623   4.476   7.307
11205SOL     OW35511   5.046  10.188  10.515
11205SOL    HW135512   5.111  10.227  10.573
11205SOL    HW235513   4.977  10.156  10.574
11206SOL     OW35514   1.873  14.074   5.277
11206SOL    HW135515   1.916  14.122   5.206
11206SOL    HW235516   1.904  14.117   5.357
11207SOL     OW35517   4.532   6.745  11.463
11207SOL    HW135518   4.468   6.745  11.534
11207SOL    HW235519   4.596   6.811  11.489
11208SOL     OW35520  13.599   5.923  14.043
11208SOL    HW135521  13.637   6.010  14.031
11208SOL    HW235522  13.650   5.885  14.115
11209SOL     OW35523   6.752  13.997  11.479
11209SOL    HW135524   6.745  13.913  11.434
11209SOL    HW235525   6.688  13.992  11.550
11210SOL     OW35526   4.659  10.667   7.631
11210SOL    HW135527   4.723  10.651   7.700
11210SOL    HW235528   4.625  10.581   7.609
11211SOL     OW35529   2.256  12.617   2.659
11211SOL    HW135530   2.336  12.570   2.680
11211SOL    HW235531   2.187  12.550   2.659
11212SOL     OW35532   1.037   2.469   9.941
11212SOL    HW135533   1.110   2.518   9.903
11212SOL    HW235534   1.031   2.500  10.031
11213SOL     OW35535   4.779   5.416  10.810
11213SOL    HW135536   4.860   5.394  10.765
11213SOL    HW235537   4.718   5.346  10.787
11214SOL     OW35538   0.681   7.593   5.612
11214SOL    HW135539   0.646   7.577   5.525
11214SOL    HW235540   0.776   7.583   5.602
11215SOL     OW35541   0.426  13.570   8.109
11215SOL    HW135542   0.335  13.581   8.080
11215SOL    HW235543   0.435  13.476   8.124
11216SOL     OW35544   1.970  13.684  13.257
11216SOL    HW135545   1.988  13.773  13.286
11216SOL    HW235546   2.022  13.673  13.178
11217SOL     OW35547   5.811   5.014  14.241
11217SOL    HW135548   5.733   4.977  14.201
11217SOL    HW235549   5.798   5.000  14.335
11218SOL     OW35550  10.789  13.826   4.355
11218SOL    HW135551  10.768  13.736   4.380
11218SOL    HW235552  10.753  13.879   4.426
11219SOL     OW35553   4.670   4.832   5.823
11219SOL    HW135554   4.735   4.762   5.832
11219SOL    HW235555   4.618   4.806   5.747
11220SOL     OW35556   9.076   0.514   1.783
11220SOL    HW135557   9.063   0.466   1.865
11220SOL    HW235558   9.169   0.536   1.782
11221SOL     OW35559   5.437  12.273   8.379
11221SOL    HW135560   5.505  12.215   8.345
11221SOL    HW235561   5.429  12.250   8.471
11222SOL     OW35562   4.217   9.232   0.194
11222SOL    HW135563   4.243   9.163   0.255
11222SOL    HW235564   4.157   9.188   0.133
11223SOL     OW35565   6.025  11.495   7.854
11223SOL    HW135566   5.979  11.533   7.929
11223SOL    HW235567   6.106  11.546   7.848
11224SOL     OW35568   6.494   3.631   9.206
11224SOL    HW135569   6.438   3.700   9.243
11224SOL    HW235570   6.434   3.561   9.183
11225SOL     OW35571   6.823   9.914  14.220
11225SOL    HW135572   6.830   9.915  14.315
11225SOL    HW235573   6.822   9.821  14.197
11226SOL     OW35574   1.805  12.160  14.671
11226SOL    HW135575   1.849  12.089  14.716
11226SOL    HW235576   1.726  12.120  14.634
11227SOL     OW35577   3.962   0.963   9.700
11227SOL    HW135578   4.014   0.922   9.631
11227SOL    HW235579   3.964   1.057   9.679
11228SOL     OW35580   2.742   2.895   6.154
11228SOL    HW135581   2.697   2.978   6.169
11228SOL    HW235582   2.818   2.899   6.212
11229SOL     OW35583   6.656   0.866   1.689
11229SOL    HW135584   6.691   0.777   1.693
11229SOL    HW235585   6.625   0.883   1.778
11230SOL     OW35586  11.272  14.256  13.034
11230SOL    HW135587  11.275  14.204  12.953
11230SOL    HW235588  11.249  14.344  13.005
11231SOL     OW35589   5.813  13.391   1.841
11231SOL    HW135590   5.743  13.429   1.788
11231SOL    HW235591   5.892  13.436   1.811
11232SOL     OW35592   8.638   2.451  12.119
11232SOL    HW135593   8.624   2.387  12.050
11232SOL    HW235594   8.707   2.413  12.173
11233SOL     OW35595  10.502  10.242  10.830
11233SOL    HW135596  10.491  10.148  10.843
11233SOL    HW235597  10.415  10.273  10.806
11234SOL     OW35598   4.422   1.907   6.781
11234SOL    HW135599   4.436   2.001   6.775
11234SOL    HW235600   4.490   1.876   6.841
11235SOL     OW35601   1.719   5.503  10.758
11235SOL    HW135602   1.748   5.488  10.668
11235SOL    HW235603   1.628   5.474  10.759
11236SOL     OW35604   8.729   5.190   6.679
11236SOL    HW135605   8.685   5.120   6.631
11236SOL    HW235606   8.657   5.245   6.712
11237SOL     OW35607   5.012   7.504   9.677
11237SOL    HW135608   5.089   7.558   9.661
11237SOL    HW235609   5.046   7.425   9.718
11238SOL     OW35610   1.861  14.372   1.477
11238SOL    HW135611   1.894  14.449   1.432
11238SOL    HW235612   1.939  14.326   1.508
11239SOL     OW35613   5.340  12.932   5.080
11239SOL    HW135614   5.430  12.904   5.097
11239SOL    HW235615   5.348  13.022   5.050
11240SOL     OW35616   8.360   1.290   9.779
11240SOL    HW135617   8.454   1.282   9.766
11240SOL    HW235618   8.339   1.226   9.847
11241SOL     OW35619   1.511  13.466   2.473
11241SOL    HW135620   1.422  13.463   2.438
11241SOL    HW235621   1.526  13.379   2.508
11242SOL     OW35622  10.801   2.243   2.889
11242SOL    HW135623  10.799   2.164   2.835
11242SOL    HW235624  10.883   2.235   2.939
11243SOL     OW35625  13.746   5.336   1.292
11243SOL    HW135626  13.763   5.243   1.282
11243SOL    HW235627  13.808   5.366   1.358
11244SOL     OW35628   7.589  10.613   5.164
11244SOL    HW135629   7.510  10.666   5.155
11244SOL    HW235630   7.581  10.572   5.251
11245SOL     OW35631   6.837   2.501   0.156
11245SOL    HW135632   6.794   2.505   0.241
11245SOL    HW235633   6.774   2.539   0.095
11246SOL     OW35634   7.716  12.441  13.142
11246SOL    HW135635   7.753  12.402  13.063
11246SOL    HW235636   7.793  12.465  13.195
11247SOL     OW35637   5.050   4.955  13.658
11247SOL    HW135638   4.956   4.965  13.676
11247SOL    HW235639   5.093   4.998  13.732
11248SOL     OW35640   8.604   7.576   8.330
11248SOL    HW135641   8.691   7.560   8.294
11248SOL    HW235642   8.547   7.587   8.254
11249SOL     OW35643   2.533  11.162  13.263
11249SOL    HW135644   2.535  11.156  13.359
11249SOL    HW235645   2.570  11.078  13.234
11250SOL     OW35646   2.866   6.373   1.344
11250SOL    HW135647   2.846   6.437   1.413
11250SOL    HW235648   2.921   6.308   1.387
11251SOL     OW35649   2.599   4.674   4.115
11251SOL    HW135650   2.562   4.598   4.072
11251SOL    HW235651   2.531   4.703   4.176
11252SOL     OW35652   8.575   7.492   5.374
11252SOL    HW135653   8.555   7.502   5.467
11252SOL    HW235654   8.622   7.408   5.369
11253SOL     OW35655  13.686  11.479  13.079
11253SOL    HW135656  13.598  11.512  13.059
11253SOL    HW235657  13.738  11.502  13.001
11254SOL     OW35658   1.268   3.636  10.908
11254SOL    HW135659   1.190   3.580  10.908
11254SOL    HW235660   1.291   3.646  11.000
11255SOL     OW35661  13.939   9.289  12.517
11255SOL    HW135662  13.866   9.284  12.579
11255SOL    HW235663  13.900   9.323  12.437
11256SOL     OW35664  10.915  12.972  10.397
11256SOL    HW135665  10.868  12.993  10.316
11256SOL    HW235666  10.849  12.977  10.466
11257SOL     OW35667  11.631  10.127   8.129
11257SOL    HW135668  11.613  10.118   8.036
11257SOL    HW235669  11.647  10.038   8.159
11258SOL     OW35670   1.793   8.568   5.426
11258SOL    HW135671   1.750   8.504   5.369
11258SOL    HW235672   1.804   8.522   5.509
11259SOL     OW35673   4.211   2.212  10.274
11259SOL    HW135674   4.257   2.162  10.341
11259SOL    HW235675   4.146   2.150  10.239
11260SOL     OW35676  11.912   6.048   1.519
11260SOL    HW135677  11.838   6.082   1.569
11260SOL    HW235678  11.928   6.115   1.452
11261SOL     OW35679  13.395   6.254  10.626
11261SOL    HW135680  13.486   6.279  10.615
11261SOL    HW235681  13.389   6.166  10.587
11262SOL     OW35682   7.134   0.406   5.677
11262SOL    HW135683   7.151   0.419   5.584
11262SOL    HW235684   7.061   0.343   5.680
11263SOL     OW35685   6.280  10.869   5.287
11263SOL    HW135686   6.275  10.801   5.354
11263SOL    HW235687   6.373  10.893   5.284
11264SOL     OW35688  10.880  10.424   9.697
11264SOL    HW135689  10.789  10.394   9.702
11264SOL    HW235690  10.876  10.517   9.719
11265SOL     OW35691   5.212  10.876   0.589
11265SOL    HW135692   5.194  10.968   0.571
11265SOL    HW235693   5.151  10.853   0.659
11266SOL     OW35694   3.551   0.038  14.176
11266SOL    HW135695   3.541  14.869  14.093
11266SOL    HW235696   3.518  14.855  14.242
11267SOL     OW35697  13.610   3.944   5.870
11267SOL    HW135698  13.682   3.882   5.885
11267SOL    HW235699  13.649   4.015   5.820
11268SOL     OW35700   6.610   2.288   4.104
11268SOL    HW135701   6.672   2.310   4.034
11268SOL    HW235702   6.660   2.232   4.163
11269SOL     OW35703  11.837   2.496  13.732
11269SOL    HW135704  11.911   2.459  13.684
11269SOL    HW235705  11.814   2.429  13.797
11270SOL     OW35706   5.714   2.076   5.375
11270SOL    HW135707   5.674   2.157   5.409
11270SOL    HW235708   5.642   2.014   5.369
11271SOL     OW35709   8.872  10.213   7.266
11271SOL    HW135710   8.911  10.281   7.321
11271SOL    HW235711   8.839  10.148   7.328
11272SOL     OW35712   4.054  11.810   8.998
11272SOL    HW135713   3.984  11.763   8.952
11272SOL    HW235714   4.091  11.745   9.058
11273SOL     OW35715   5.745   6.622   7.914
11273SOL    HW135716   5.821   6.606   7.969
11273SOL    HW235717   5.733   6.717   7.916
11274SOL     OW35718  13.006  13.861   9.938
11274SOL    HW135719  12.926  13.866   9.885
11274SOL    HW235720  12.981  13.806  10.012
11275SOL     OW35721   1.402   1.743   4.721
11275SOL    HW135722   1.449   1.687   4.659
11275SOL    HW235723   1.420   1.705   4.807
11276SOL     OW35724   6.218   3.850   0.367
11276SOL    HW135725   6.223   3.822   0.276
11276SOL    HW235726   6.301   3.895   0.384
11277SOL     OW35727   1.550   1.391   4.241
11277SOL    HW135728   1.590   1.385   4.154
11277SOL    HW235729   1.619   1.423   4.298
11278SOL     OW35730   0.606   0.661   5.161
11278SOL    HW135731   0.642   0.574   5.179
11278SOL    HW235732   0.621   0.675   5.068
11279SOL     OW35733  11.159  14.326   6.626
11279SOL    HW135734  11.213  14.374   6.563
11279SOL    HW235735  11.131  14.248   6.578
11280SOL     OW35736   4.297   0.174   4.651
11280SOL    HW135737   4.296   0.088   4.693
11280SOL    HW235738   4.387   0.206   4.664
11281SOL     OW35739   2.377  14.600   9.998
11281SOL    HW135740   2.301  14.647   9.964
11281SOL    HW235741   2.345  14.558  10.077
11282SOL     OW35742  13.772   2.581  13.892
11282SOL    HW135743  13.782   2.626  13.808
11282SOL    HW235744  13.718   2.639  13.945
11283SOL     OW35745  10.980  12.600   0.487
11283SOL    HW135746  11.045  12.533   0.467
11283SOL    HW235747  10.896  12.562   0.459
11284SOL     OW35748  14.125   0.503   1.995
11284SOL    HW135749  14.196   0.472   2.052
11284SOL    HW235750  14.170   0.534   1.916
11285SOL     OW35751   9.676   3.516   9.555
11285SOL    HW135752   9.750   3.564   9.590
11285SOL    HW235753   9.618   3.583   9.519
11286SOL     OW35754   8.786   1.712   3.430
11286SOL    HW135755   8.792   1.636   3.488
11286SOL    HW235756   8.846   1.776   3.470
11287SOL     OW35757   7.634   3.700  10.857
11287SOL    HW135758   7.640   3.605  10.863
11287SOL    HW235759   7.674   3.732  10.939
11288SOL     OW35760   8.468   5.026  11.400
11288SOL    HW135761   8.469   5.001  11.492
11288SOL    HW235762   8.553   4.999  11.366
11289SOL     OW35763  12.743  10.647  10.965
11289SOL    HW135764  12.762  10.626  10.874
11289SOL    HW235765  12.782  10.734  10.979
11290SOL     OW35766   0.511   6.369   1.063
11290SOL    HW135767   0.479   6.453   1.032
11290SOL    HW235768   0.589   6.390   1.114
11291SOL     OW35769   0.062   9.966  13.279
11291SOL    HW135770   0.040   9.944  13.188
11291SOL    HW235771   0.104  10.051  13.274
11292SOL     OW35772  11.062   2.027   5.665
11292SOL    HW135773  11.054   2.027   5.761
11292SOL    HW235774  11.117   2.103   5.645
11293SOL     OW35775   0.779   4.343   5.848
11293SOL    HW135776   0.758   4.280   5.779
11293SOL    HW235777   0.707   4.407   5.844
11294SOL     OW35778   5.382  11.192   6.267
11294SOL    HW135779   5.313  11.206   6.332
11294SOL    HW235780   5.418  11.106   6.289
11295SOL     OW35781   8.963   3.900   2.878
11295SOL    HW135782   8.903   3.952   2.823
11295SOL    HW235783   9.015   3.850   2.815
11296SOL     OW35784   3.288  13.115   1.450
11296SOL    HW135785   3.293  13.117   1.545
11296SOL    HW235786   3.233  13.039   1.430
11297SOL     OW35787   3.321   5.188   4.349
11297SOL    HW135788   3.382   5.137   4.295
11297SOL    HW235789   3.243   5.133   4.355
11298SOL     OW35790   8.433   6.483   6.435
11298SOL    HW135791   8.520   6.442   6.443
11298SOL    HW235792   8.375   6.410   6.413
11299SOL     OW35793   9.678   7.386   8.370
11299SOL    HW135794   9.658   7.440   8.294
11299SOL    HW235795   9.757   7.425   8.407
11300SOL     OW35796   9.654   1.716  12.207
11300SOL    HW135797   9.628   1.782  12.143
11300SOL    HW235798   9.745   1.697  12.186
11301SOL     OW35799  10.099   7.023   7.348
11301SOL    HW135800  10.055   7.091   7.297
11301SOL    HW235801  10.183   7.063   7.372
11302SOL     OW35802   4.230   7.833   4.446
11302SOL    HW135803   4.277   7.775   4.506
11302SOL    HW235804   4.277   7.916   4.452
11303SOL     OW35805  14.089   1.683   4.249
11303SOL    HW135806  14.145   1.680   4.171
11303SOL    HW235807  14.015   1.626   4.228
11304SOL     OW35808  14.745   1.760   4.465
11304SOL    HW135809  14.669   1.717   4.503
11304SOL    HW235810  14.820   1.709   4.497
11305SOL     OW35811   6.319  14.430   7.718
11305SOL    HW135812   6.358  14.461   7.637
11305SOL    HW235813   6.385  14.446   7.785
11306SOL     OW35814   8.432  12.263  13.628
11306SOL    HW135815   8.447  12.321  13.553
11306SOL    HW235816   8.498  12.290  13.692
11307SOL     OW35817   8.108   8.000   5.653
11307SOL    HW135818   8.149   8.076   5.611
11307SOL    HW235819   8.175   7.932   5.649
11308SOL     OW35820   1.882  14.134  10.060
11308SOL    HW135821   1.922  14.072  10.121
11308SOL    HW235822   1.806  14.088  10.024
11309SOL     OW35823   8.451   6.269   9.667
11309SOL    HW135824   8.377   6.234   9.716
11309SOL    HW235825   8.459   6.213   9.590
11310SOL     OW35826  12.703  11.082  11.686
11310SOL    HW135827  12.763  11.009  11.703
11310SOL    HW235828  12.618  11.040  11.669
11311SOL     OW35829  11.396   7.914  13.337
11311SOL    HW135830  11.454   7.974  13.291
11311SOL    HW235831  11.435   7.827  13.324
11312SOL     OW35832  12.396   3.628   4.362
11312SOL    HW135833  12.361   3.539   4.362
11312SOL    HW235834  12.470   3.625   4.302
11313SOL     OW35835  11.768   1.861  13.307
11313SOL    HW135836  11.703   1.812  13.256
11313SOL    HW235837  11.852   1.821  13.283
11314SOL     OW35838   2.209   9.260   4.621
11314SOL    HW135839   2.278   9.242   4.558
11314SOL    HW235840   2.179   9.173   4.649
11315SOL     OW35841   5.273  11.661   9.054
11315SOL    HW135842   5.294  11.568   9.062
11315SOL    HW235843   5.337  11.705   9.110
11316SOL     OW35844   6.248   0.153  11.187
11316SOL    HW135845   6.285   0.073  11.226
11316SOL    HW235846   6.291   0.159  11.101
11317SOL     OW35847   7.647  14.208   7.678
11317SOL    HW135848   7.728  14.202   7.727
11317SOL    HW235849   7.666  14.268   7.606
11318SOL     OW35850   3.325  11.272   3.806
11318SOL    HW135851   3.347  11.180   3.820
11318SOL    HW235852   3.234  11.280   3.835
11319SOL     OW35853   8.755  11.535   4.797
11319SOL    HW135854   8.835  11.542   4.744
11319SOL    HW235855   8.718  11.623   4.797
11320SOL     OW35856   6.740  11.813   4.433
11320SOL    HW135857   6.663  11.842   4.385
11320SOL    HW235858   6.706  11.776   4.515
11321SOL     OW35859  11.787   8.741  14.666
11321SOL    HW135860  11.869   8.691  14.668
11321SOL    HW235861  11.794   8.795  14.587
11322SOL     OW35862  13.827  12.386   6.284
11322SOL    HW135863  13.784  12.465   6.250
11322SOL    HW235864  13.782  12.368   6.366
11323SOL     OW35865  13.488  10.233  13.617
11323SOL    HW135866  13.550  10.271  13.679
11323SOL    HW235867  13.502  10.138  13.624
11324SOL     OW35868   1.915  10.434  10.956
11324SOL    HW135869   1.890  10.521  10.925
11324SOL    HW235870   2.010  10.437  10.963
11325SOL     OW35871  10.691   6.831   3.859
11325SOL    HW135872  10.658   6.761   3.915
11325SOL    HW235873  10.616   6.857   3.807
11326SOL     OW35874  11.227   3.929   4.268
11326SOL    HW135875  11.262   3.945   4.356
11326SOL    HW235876  11.174   4.006   4.250
11327SOL     OW35877   4.712   0.115  12.679
11327SOL    HW135878   4.722   0.078  12.591
11327SOL    HW235879   4.639   0.065  12.717
11328SOL     OW35880  10.165   3.758   7.135
11328SOL    HW135881  10.181   3.724   7.223
11328SOL    HW235882  10.235   3.720   7.082
11329SOL     OW35883   1.508   8.611   4.410
11329SOL    HW135884   1.504   8.685   4.471
11329SOL    HW235885   1.602   8.598   4.395
11330SOL     OW35886   9.105  11.669  11.213
11330SOL    HW135887   9.147  11.585  11.229
11330SOL    HW235888   9.012  11.652  11.224
11331SOL     OW35889   2.493  11.201  12.867
11331SOL    HW135890   2.509  11.135  12.934
11331SOL    HW235891   2.538  11.167  12.789
11332SOL     OW35892   4.258   5.163   9.571
11332SOL    HW135893   4.314   5.172   9.495
11332SOL    HW235894   4.305   5.207   9.641
11333SOL     OW35895   4.291   6.827   8.318
11333SOL    HW135896   4.372   6.874   8.334
11333SOL    HW235897   4.224   6.878   8.363
11334SOL     OW35898   3.035   5.380  12.621
11334SOL    HW135899   3.066   5.382  12.530
11334SOL    HW235900   2.984   5.461  12.631
11335SOL     OW35901   2.499  12.499  14.174
11335SOL    HW135902   2.580  12.492  14.226
11335SOL    HW235903   2.515  12.574  14.117
11336SOL     OW35904   5.333   5.908  10.338
11336SOL    HW135905   5.378   5.988  10.367
11336SOL    HW235906   5.402   5.854  10.300
11337SOL     OW35907   1.310  14.538  13.290
11337SOL    HW135908   1.299  14.582  13.375
11337SOL    HW235909   1.338  14.608  13.231
11338SOL     OW35910   3.573   2.398   3.037
11338SOL    HW135911   3.602   2.381   2.947
11338SOL    HW235912   3.520   2.477   3.031
11339SOL     OW35913  11.867   8.719   5.141
11339SOL    HW135914  11.914   8.707   5.059
11339SOL    HW235915  11.905   8.797   5.180
11340SOL     OW35916   6.777   3.539   4.554
11340SOL    HW135917   6.684   3.552   4.574
11340SOL    HW235918   6.808   3.477   4.619
11341SOL     OW35919   7.324  10.620   7.864
11341SOL    HW135920   7.253  10.610   7.927
11341SOL    HW235921   7.302  10.559   7.793
11342SOL     OW35922   7.344   9.995   4.389
11342SOL    HW135923   7.304   9.920   4.432
11342SOL    HW235924   7.403  10.032   4.455
11343SOL     OW35925   6.338   4.909   8.282
11343SOL    HW135926   6.309   4.822   8.254
11343SOL    HW235927   6.259   4.953   8.311
11344SOL     OW35928   9.281  11.727   1.180
11344SOL    HW135929   9.252  11.818   1.173
11344SOL    HW235930   9.226  11.680   1.118
11345SOL     OW35931   2.772   4.827   2.709
11345SOL    HW135932   2.776   4.817   2.804
11345SOL    HW235933   2.823   4.753   2.675
11346SOL     OW35934   9.638   1.063   2.488
11346SOL    HW135935   9.683   0.990   2.530
11346SOL    HW235936   9.697   1.090   2.417
11347SOL     OW35937   7.950   4.827  10.730
11347SOL    HW135938   8.021   4.885  10.756
11347SOL    HW235939   7.914   4.867  10.651
11348SOL     OW35940   5.912  12.069   8.101
11348SOL    HW135941   5.976  12.139   8.087
11348SOL    HW235942   5.856  12.102   8.172
11349SOL     OW35943  13.457  14.058   0.989
11349SOL    HW135944  13.515  14.114   0.938
11349SOL    HW235945  13.420  14.115   1.056
11350SOL     OW35946   8.254   0.039   6.257
11350SOL    HW135947   8.262  14.870   6.173
11350SOL    HW235948   8.195  14.861   6.309
11351SOL     OW35949   7.850  11.481  13.895
11351SOL    HW135950   7.900  11.463  13.815
11351SOL    HW235951   7.760  11.493  13.865
11352SOL     OW35952   8.383  12.552   4.971
11352SOL    HW135953   8.454  12.613   4.991
11352SOL    HW235954   8.320  12.604   4.921
11353SOL     OW35955   1.483  13.897   1.541
11353SOL    HW135956   1.571  13.865   1.563
11353SOL    HW235957   1.478  13.891   1.445
11354SOL     OW35958   5.189  12.017  14.582
11354SOL    HW135959   5.263  12.055  14.533
11354SOL    HW235960   5.122  12.085  14.579
11355SOL     OW35961  13.255  13.089  12.046
11355SOL    HW135962  13.269  13.047  11.961
11355SOL    HW235963  13.342  13.092  12.086
11356SOL     OW35964   8.211  12.356  11.625
11356SOL    HW135965   8.172  12.311  11.700
11356SOL    HW235966   8.178  12.308  11.549
11357SOL     OW35967  14.688   8.119  11.128
11357SOL    HW135968  14.663   8.054  11.062
11357SOL    HW235969  14.692   8.201  11.079
11358SOL     OW35970  12.936  10.172   0.767
11358SOL    HW135971  12.873  10.208   0.829
11358SOL    HW235972  12.948  10.081   0.795
11359SOL     OW35973   4.843  10.769  13.437
11359SOL    HW135974   4.864  10.737  13.349
11359SOL    HW235975   4.750  10.749  13.448
11360SOL     OW35976   2.115  14.793   4.964
11360SOL    HW135977   2.178  14.853   5.004
11360SOL    HW235978   2.067  14.848   4.901
11361SOL     OW35979   8.692   9.177  12.713
11361SOL    HW135980   8.652   9.166  12.799
11361SOL    HW235981   8.716   9.089  12.686
11362SOL     OW35982  11.197  11.494   1.556
11362SOL    HW135983  11.122  11.520   1.609
11362SOL    HW235984  11.188  11.546   1.476
11363SOL     OW35985   5.613   3.170  12.982
11363SOL    HW135986   5.627   3.100  12.918
11363SOL    HW235987   5.628   3.129  13.067
11364SOL     OW35988   4.887   2.091   8.107
11364SOL    HW135989   4.974   2.082   8.146
11364SOL    HW235990   4.839   2.014   8.137
11365SOL     OW35991   1.446   2.828   9.696
11365SOL    HW135992   1.461   2.754   9.638
11365SOL    HW235993   1.378   2.880   9.653
11366SOL     OW35994   7.541   0.043   1.216
11366SOL    HW135995   7.534   0.081   1.128
11366SOL    HW235996   7.595  14.842   1.204
11367SOL     OW35997   4.232   4.044   2.950
11367SOL    HW135998   4.208   4.137   2.951
11367SOL    HW235999   4.245   4.022   3.042
11368SOL     OW36000   5.184   8.867   2.026
11368SOL    HW136001   5.123   8.940   2.038
11368SOL    HW236002   5.165   8.835   1.938
11369SOL     OW36003   3.536  13.290  13.408
11369SOL    HW136004   3.620  13.253  13.433
11369SOL    HW236005   3.554  13.343  13.331
11370SOL     OW36006   5.617   2.091  13.022
11370SOL    HW136007   5.602   2.140  12.941
11370SOL    HW236008   5.532   2.052  13.043
11371SOL     OW36009   1.165   6.924   4.845
11371SOL    HW136010   1.152   6.879   4.762
11371SOL    HW236011   1.171   6.854   4.910
11372SOL     OW36012  12.828   2.451   2.269
11372SOL    HW136013  12.861   2.525   2.218
11372SOL    HW236014  12.902   2.391   2.274
11373SOL     OW36015  12.648  13.108   2.292
11373SOL    HW136016  12.710  13.044   2.257
11373SOL    HW236017  12.703  13.181   2.321
11374SOL     OW36018  10.558  11.163  10.391
11374SOL    HW136019  10.623  11.195  10.454
11374SOL    HW236020  10.514  11.092  10.436
11375SOL     OW36021   0.281   8.917  12.857
11375SOL    HW136022   0.329   8.994  12.886
11375SOL    HW236023   0.191   8.932  12.888
11376SOL     OW36024   6.331  10.353   3.726
11376SOL    HW136025   6.295  10.359   3.815
11376SOL    HW236026   6.257  10.323   3.672
11377SOL     OW36027   6.972   0.189   3.638
11377SOL    HW136028   6.903   0.122   3.636
11377SOL    HW236029   7.049   0.143   3.671
11378SOL     OW36030   4.732  13.710  14.822
11378SOL    HW136031   4.701  13.767   0.015
11378SOL    HW236032   4.768  13.634  14.868
11379SOL     OW36033  11.077   4.574   2.992
11379SOL    HW136034  11.133   4.559   2.916
11379SOL    HW236035  11.100   4.662   3.022
11380SOL     OW36036  11.125   7.494   8.815
11380SOL    HW136037  11.109   7.563   8.879
11380SOL    HW236038  11.135   7.414   8.866
11381SOL     OW36039   2.476  12.187  13.926
11381SOL    HW136040   2.499  12.140  14.006
11381SOL    HW236041   2.417  12.128  13.880
11382SOL     OW36042   5.678   6.349   9.374
11382SOL    HW136043   5.658   6.414   9.441
11382SOL    HW236044   5.742   6.392   9.318
11383SOL     OW36045   3.608   9.208   7.402
11383SOL    HW136046   3.697   9.234   7.377
11383SOL    HW236047   3.556   9.288   7.391
11384SOL     OW36048  10.765  12.441   4.390
11384SOL    HW136049  10.700  12.430   4.459
11384SOL    HW236050  10.845  12.466   4.436
11385SOL     OW36051   7.449  14.147   5.822
11385SOL    HW136052   7.524  14.087   5.823
11385SOL    HW236053   7.406  14.134   5.907
11386SOL     OW36054   4.438   5.963  11.552
11386SOL    HW136055   4.496   6.032  11.522
11386SOL    HW236056   4.485   5.882  11.534
11387SOL     OW36057   3.944  13.492   3.197
11387SOL    HW136058   3.868  13.461   3.149
11387SOL    HW236059   4.015  13.433   3.171
11388SOL     OW36060  14.045   3.888   0.218
11388SOL    HW136061  14.074   3.807   0.177
11388SOL    HW236062  13.993   3.932   0.151
11389SOL     OW36063   6.953   4.768  13.598
11389SOL    HW136064   6.930   4.861  13.591
11389SOL    HW236065   6.868   4.723  13.599
11390SOL     OW36066   7.282   5.839   0.943
11390SOL    HW136067   7.213   5.869   0.885
11390SOL    HW236068   7.257   5.750   0.968
11391SOL     OW36069   2.729  12.862   1.773
11391SOL    HW136070   2.799  12.797   1.764
11391SOL    HW236071   2.774  12.946   1.768
11392SOL     OW36072  14.230  11.120   9.906
11392SOL    HW136073  14.311  11.123   9.855
11392SOL    HW236074  14.198  11.030   9.895
11393SOL     OW36075   8.693   1.069   4.503
11393SOL    HW136076   8.662   0.981   4.522
11393SOL    HW236077   8.629   1.127   4.544
11394SOL     OW36078   5.899   6.957  11.848
11394SOL    HW136079   5.921   6.994  11.762
11394SOL    HW236080   5.897   6.862  11.833
11395SOL     OW36081   3.433  13.355   6.849
11395SOL    HW136082   3.351  13.364   6.801
11395SOL    HW236083   3.410  13.379   6.939
11396SOL     OW36084  12.848   0.597   7.186
11396SOL    HW136085  12.847   0.545   7.266
11396SOL    HW236086  12.860   0.687   7.216
11397SOL     OW36087  11.868   8.599   6.351
11397SOL    HW136088  11.955   8.588   6.388
11397SOL    HW236089  11.857   8.524   6.292
11398SOL     OW36090  10.459  12.767   2.615
11398SOL    HW136091  10.547  12.758   2.652
11398SOL    HW236092  10.472  12.759   2.520
11399SOL     OW36093   1.692   9.523   3.575
11399SOL    HW136094   1.654   9.504   3.661
11399SOL    HW236095   1.626   9.578   3.532
11400SOL     OW36096  12.848  14.154   9.015
11400SOL    HW136097  12.825  14.069   8.977
11400SOL    HW236098  12.822  14.146   9.107
11401SOL     OW36099   6.604  11.289   2.049
11401SOL    HW136100   6.690  11.254   2.071
11401SOL    HW236101   6.571  11.230   1.981
11402SOL     OW36102  11.427   6.525   2.395
11402SOL    HW136103  11.405   6.535   2.488
11402SOL    HW236104  11.516   6.489   2.395
11403SOL     OW36105   4.967   4.405   2.612
11403SOL    HW136106   4.952   4.371   2.524
11403SOL    HW236107   4.908   4.354   2.668
11404SOL     OW36108   8.427  13.892   9.587
11404SOL    HW136109   8.343  13.906   9.631
11404SOL    HW236110   8.492  13.920   9.651
11405SOL     OW36111   0.360   4.219   5.813
11405SOL    HW136112   0.452   4.235   5.794
11405SOL    HW236113   0.317   4.227   5.728
11406SOL     OW36114   7.619   2.715   7.448
11406SOL    HW136115   7.658   2.652   7.508
11406SOL    HW236116   7.691   2.774   7.425
11407SOL     OW36117   2.085  11.656  13.341
11407SOL    HW136118   2.044  11.741  13.322
11407SOL    HW236119   2.045  11.629  13.424
11408SOL     OW36120   6.569   3.706   5.562
11408SOL    HW136121   6.581   3.637   5.627
11408SOL    HW236122   6.650   3.756   5.564
11409SOL     OW36123   0.907  13.146   9.676
11409SOL    HW136124   0.946  13.186   9.598
11409SOL    HW236125   0.890  13.055   9.650
11410SOL     OW36126  12.861   9.813  13.733
11410SOL    HW136127  12.793   9.760  13.774
11410SOL    HW236128  12.856   9.897  13.778
11411SOL     OW36129   0.734   5.093   9.649
11411SOL    HW136130   0.681   5.019   9.677
11411SOL    HW236131   0.825   5.063   9.656
11412SOL     OW36132   9.932   8.972  13.594
11412SOL    HW136133   9.996   8.903  13.613
11412SOL    HW236134   9.933   9.027  13.672
11413SOL     OW36135  14.567  14.871   8.048
11413SOL    HW136136  14.553  14.814   8.124
11413SOL    HW236137  14.658  14.855   8.022
11414SOL     OW36138  11.638   5.054   7.119
11414SOL    HW136139  11.627   4.974   7.067
11414SOL    HW236140  11.623   5.026   7.209
11415SOL     OW36141   2.184   9.812   4.026
11415SOL    HW136142   2.186   9.721   3.997
11415SOL    HW236143   2.126   9.811   4.103
11416SOL     OW36144  11.538   4.940   7.779
11416SOL    HW136145  11.603   4.870   7.767
11416SOL    HW236146  11.455   4.900   7.750
11417SOL     OW36147   2.318  11.406  13.860
11417SOL    HW136148   2.389  11.428  13.799
11417SOL    HW236149   2.351  11.331  13.909
11418SOL     OW36150   1.823   9.998   7.389
11418SOL    HW136151   1.759  10.056   7.347
11418SOL    HW236152   1.807   9.913   7.348
11419SOL     OW36153   3.480  11.108  10.747
11419SOL    HW136154   3.524  11.059  10.678
11419SOL    HW236155   3.526  11.085  10.827
11420SOL     OW36156   1.799   2.539   4.972
11420SOL    HW136157   1.734   2.575   5.032
11420SOL    HW236158   1.825   2.456   5.012
11421SOL     OW36159   2.382   8.861   5.414
11421SOL    HW136160   2.301   8.849   5.465
11421SOL    HW236161   2.367   8.941   5.364
11422SOL     OW36162   2.308   2.718  10.186
11422SOL    HW136163   2.303   2.769  10.267
11422SOL    HW236164   2.261   2.637  10.206
11423SOL     OW36165   8.991   1.591   3.803
11423SOL    HW136166   9.078   1.564   3.833
11423SOL    HW236167   8.937   1.590   3.882
11424SOL     OW36168   4.654   8.427   6.583
11424SOL    HW136169   4.649   8.519   6.556
11424SOL    HW236170   4.746   8.403   6.571
11425SOL     OW36171   6.645  12.705   3.474
11425SOL    HW136172   6.572  12.648   3.448
11425SOL    HW236173   6.604  12.776   3.522
11426SOL     OW36174  11.708   4.246  10.989
11426SOL    HW136175  11.773   4.204  11.045
11426SOL    HW236176  11.759   4.287  10.919
11427SOL     OW36177   3.976  14.191   1.716
11427SOL    HW136178   3.904  14.160   1.662
11427SOL    HW236179   4.043  14.219   1.654
11428SOL     OW36180   7.468   3.730  11.900
11428SOL    HW136181   7.437   3.640  11.889
11428SOL    HW236182   7.446   3.753  11.990
11429SOL     OW36183   2.792  13.675  10.323
11429SOL    HW136184   2.783  13.629  10.239
11429SOL    HW236185   2.772  13.766  10.303
11430SOL     OW36186   1.419   7.535   8.874
11430SOL    HW136187   1.409   7.611   8.817
11430SOL    HW236188   1.412   7.460   8.816
11431SOL     OW36189  12.557  13.484   3.231
11431SOL    HW136190  12.552  13.478   3.326
11431SOL    HW236191  12.545  13.394   3.201
11432SOL     OW36192   4.316   1.619   6.819
11432SOL    HW136193   4.374   1.583   6.887
11432SOL    HW236194   4.322   1.714   6.831
11433SOL     OW36195  11.940  14.651   4.944
11433SOL    HW136196  11.867  14.662   5.004
11433SOL    HW236197  12.004  14.600   4.993
11434SOL     OW36198   1.316   7.518  10.227
11434SOL    HW136199   1.342   7.429  10.250
11434SOL    HW236200   1.388   7.551  10.172
11435SOL     OW36201   3.603   1.996  14.785
11435SOL    HW136202   3.644   2.080  14.761
11435SOL    HW236203   3.531   2.021  14.844
11436SOL     OW36204  12.593  10.568   8.207
11436SOL    HW136205  12.688  10.580   8.206
11436SOL    HW236206  12.580  10.475   8.190
11437SOL     OW36207   8.722   3.853   2.171
11437SOL    HW136208   8.805   3.828   2.211
11437SOL    HW236209   8.722   3.808   2.086
11438SOL     OW36210   7.744   2.317   7.915
11438SOL    HW136211   7.817   2.255   7.913
11438SOL    HW236212   7.720   2.322   8.007
11439SOL     OW36213   6.033  14.156   5.756
11439SOL    HW136214   6.034  14.177   5.663
11439SOL    HW236215   5.941  14.135   5.775
11440SOL     OW36216   0.052  13.875  12.321
11440SOL    HW136217   0.026  13.929  12.396
11440SOL    HW236218  14.849  13.862  12.272
11441SOL     OW36219  10.484   6.338   7.752
11441SOL    HW136220  10.540   6.300   7.684
11441SOL    HW236221  10.525   6.421   7.774
11442SOL     OW36222  14.812   9.405   6.343
11442SOL    HW136223  14.870   9.329   6.341
11442SOL    HW236224  14.724   9.368   6.335
11443SOL     OW36225   8.021  12.105   0.045
11443SOL    HW136226   8.018  12.023  14.872
11443SOL    HW236227   8.049  12.170  14.859
11444SOL     OW36228   0.901   8.768   2.513
11444SOL    HW136229   0.869   8.681   2.491
11444SOL    HW236230   0.995   8.755   2.530
11445SOL     OW36231  11.559  12.211   1.385
11445SOL    HW136232  11.629  12.253   1.436
11445SOL    HW236233  11.522  12.146   1.444
11446SOL     OW36234   1.759   4.231  10.077
11446SOL    HW136235   1.815   4.157  10.054
11446SOL    HW236236   1.742   4.219  10.171
11447SOL     OW36237  13.029  12.808  12.179
11447SOL    HW136238  13.099  12.845  12.234
11447SOL    HW236239  12.962  12.780  12.242
11448SOL     OW36240   7.275   2.276  10.268
11448SOL    HW136241   7.185   2.307  10.269
11448SOL    HW236242   7.274   2.197  10.322
11449SOL     OW36243   0.394   6.628   5.983
11449SOL    HW136244   0.393   6.536   5.956
11449SOL    HW236245   0.307   6.661   5.961
11450SOL     OW36246  10.715  13.916   8.269
11450SOL    HW136247  10.664  13.992   8.239
11450SOL    HW236248  10.662  13.879   8.340
11451SOL     OW36249   5.703  11.815  14.533
11451SOL    HW136250   5.752  11.874  14.476
11451SOL    HW236251   5.735  11.728  14.512
11452SOL     OW36252   4.512   4.651  14.441
11452SOL    HW136253   4.512   4.684  14.531
11452SOL    HW236254   4.533   4.558  14.451
11453SOL     OW36255  13.573   8.532  11.768
11453SOL    HW136256  13.486   8.568  11.786
11453SOL    HW236257  13.556   8.448  11.727
11454SOL     OW36258   2.214   8.249   4.821
11454SOL    HW136259   2.185   8.339   4.837
11454SOL    HW236260   2.309   8.257   4.807
11455SOL     OW36261   2.456   3.885   5.123
11455SOL    HW136262   2.379   3.854   5.170
11455SOL    HW236263   2.452   3.839   5.039
11456SOL     OW36264   5.004   3.033   8.954
11456SOL    HW136265   4.931   3.067   8.903
11456SOL    HW236266   5.080   3.043   8.896
11457SOL     OW36267   1.597  11.857   8.724
11457SOL    HW136268   1.681  11.891   8.754
11457SOL    HW236269   1.609  11.762   8.721
11458SOL     OW36270   7.403   6.263   4.563
11458SOL    HW136271   7.399   6.167   4.554
11458SOL    HW236272   7.471   6.277   4.629
11459SOL     OW36273   3.452   4.165   0.182
11459SOL    HW136274   3.519   4.102   0.155
11459SOL    HW236275   3.442   4.224   0.107
11460SOL     OW36276  12.658   9.115   0.452
11460SOL    HW136277  12.681   9.075   0.368
11460SOL    HW236278  12.592   9.058   0.489
11461SOL     OW36279  13.984   0.140  14.775
11461SOL    HW136280  13.914   0.119  14.837
11461SOL    HW236281  13.984   0.236  14.771
11462SOL     OW36282  12.896   7.372   8.490
11462SOL    HW136283  12.981   7.370   8.446
11462SOL    HW236284  12.916   7.399   8.580
11463SOL     OW36285   6.689  12.937  11.536
11463SOL    HW136286   6.607  12.974  11.568
11463SOL    HW236287   6.723  13.002  11.474
11464SOL     OW36288   8.132   9.678   2.171
11464SOL    HW136289   8.148   9.766   2.204
11464SOL    HW236290   8.124   9.624   2.250
11465SOL     OW36291   9.145   5.606  13.322
11465SOL    HW136292   9.074   5.542  13.329
11465SOL    HW236293   9.220   5.563  13.363
11466SOL     OW36294   5.277   9.150  14.872
11466SOL    HW136295   5.191   9.124  14.840
11466SOL    HW236296   5.308   9.074   0.044
11467SOL     OW36297   0.298   9.121  11.610
11467SOL    HW136298   0.319   9.212  11.629
11467SOL    HW236299   0.331   9.073  11.686
11468SOL     OW36300  11.577   0.960   6.796
11468SOL    HW136301  11.646   1.026   6.803
11468SOL    HW236302  11.513   0.986   6.862
11469SOL     OW36303  10.042  14.502  10.101
11469SOL    HW136304   9.962  14.541  10.135
11469SOL    HW236305  10.112  14.559  10.133
11470SOL     OW36306   3.303  10.876   6.031
11470SOL    HW136307   3.231  10.879   6.094
11470SOL    HW236308   3.329  10.784   6.029
11471SOL     OW36309   5.467  11.869   5.201
11471SOL    HW136310   5.509  11.787   5.226
11471SOL    HW236311   5.503  11.934   5.262
11472SOL     OW36312  11.509  11.413   4.039
11472SOL    HW136313  11.559  11.385   3.962
11472SOL    HW236314  11.460  11.336   4.066
11473SOL     OW36315  10.717   9.684   3.406
11473SOL    HW136316  10.685   9.632   3.480
11473SOL    HW236317  10.679   9.771   3.420
11474SOL     OW36318   8.554  12.788   8.757
11474SOL    HW136319   8.530  12.828   8.841
11474SOL    HW236320   8.490  12.718   8.744
11475SOL     OW36321   8.051   1.888   2.865
11475SOL    HW136322   8.101   1.892   2.946
11475SOL    HW236323   7.980   1.826   2.884
11476SOL     OW36324   3.384   7.950   9.907
11476SOL    HW136325   3.297   7.970   9.941
11476SOL    HW236326   3.370   7.878   9.845
11477SOL     OW36327  13.401   0.932  12.482
11477SOL    HW136328  13.463   0.920  12.554
11477SOL    HW236329  13.315   0.930  12.525
11478SOL     OW36330  13.623   0.789   3.653
11478SOL    HW136331  13.660   0.779   3.741
11478SOL    HW236332  13.596   0.701   3.628
11479SOL     OW36333  14.231  11.231  12.946
11479SOL    HW136334  14.206  11.319  12.975
11479SOL    HW236335  14.298  11.246  12.880
11480SOL     OW36336  10.393  13.782  11.160
11480SOL    HW136337  10.434  13.747  11.081
11480SOL    HW236338  10.310  13.737  11.166
11481SOL     OW36339   7.574   8.822   7.369
11481SOL    HW136340   7.547   8.756   7.433
11481SOL    HW236341   7.492   8.864   7.342
11482SOL     OW36342   6.327   6.692  10.161
11482SOL    HW136343   6.293   6.603  10.152
11482SOL    HW236344   6.335   6.724  10.071
11483SOL     OW36345   5.169   1.258   8.459
11483SOL    HW136346   5.170   1.210   8.376
11483SOL    HW236347   5.139   1.346   8.437
11484SOL     OW36348   8.035  14.668   8.445
11484SOL    HW136349   8.079  14.584   8.457
11484SOL    HW236350   8.104  14.727   8.416
11485SOL     OW36351  10.275   4.126   2.791
11485SOL    HW136352  10.330   4.191   2.747
11485SOL    HW236353  10.334   4.084   2.854
11486SOL     OW36354   5.594   4.911   6.210
11486SOL    HW136355   5.655   4.978   6.180
11486SOL    HW236356   5.540   4.892   6.133
11487SOL     OW36357   3.466  12.409  13.872
11487SOL    HW136358   3.381  12.446  13.894
11487SOL    HW236359   3.456  12.315  13.885
11488SOL     OW36360  12.140   7.469   2.481
11488SOL    HW136361  12.060   7.420   2.502
11488SOL    HW236362  12.165   7.511   2.563
11489SOL     OW36363  13.395  13.727   4.869
11489SOL    HW136364  13.368  13.726   4.961
11489SOL    HW236365  13.360  13.646   4.833
11490SOL     OW36366   9.453   0.590   6.859
11490SOL    HW136367   9.395   0.658   6.893
11490SOL    HW236368   9.466   0.613   6.767
11491SOL     OW36369  13.178   3.386   6.652
11491SOL    HW136370  13.150   3.450   6.587
11491SOL    HW236371  13.132   3.411   6.732
11492SOL     OW36372   5.211   0.368   0.268
11492SOL    HW136373   5.221   0.277   0.296
11492SOL    HW236374   5.267   0.418   0.329
11493SOL     OW36375   9.949   8.645  13.430
11493SOL    HW136376   9.857   8.670  13.438
11493SOL    HW236377   9.995   8.726  13.412
11494SOL     OW36378   8.648  13.655   2.693
11494SOL    HW136379   8.673  13.586   2.631
11494SOL    HW236380   8.554  13.642   2.707
11495SOL     OW36381   5.327  10.755   7.514
11495SOL    HW136382   5.310  10.661   7.503
11495SOL    HW236383   5.242  10.796   7.505
11496SOL     OW36384   9.872   7.438  11.808
11496SOL    HW136385   9.872   7.349  11.842
11496SOL    HW236386   9.787   7.474  11.833
11497SOL     OW36387   1.384   6.569  14.711
11497SOL    HW136388   1.375   6.603  14.622
11497SOL    HW236389   1.307   6.602  14.757
11498SOL     OW36390  10.721   4.625   3.415
11498SOL    HW136391  10.791   4.598   3.355
11498SOL    HW236392  10.649   4.565   3.397
11499SOL     OW36393  14.770   8.522   9.569
11499SOL    HW136394  14.841   8.549   9.511
11499SOL    HW236395  14.799   8.438   9.605
11500SOL     OW36396   3.422  10.961   5.019
11500SOL    HW136397   3.477  11.026   4.976
11500SOL    HW236398   3.405  10.895   4.951
11501SOL     OW36399   4.589  13.639   4.092
11501SOL    HW136400   4.617  13.559   4.136
11501SOL    HW236401   4.537  13.609   4.018
11502SOL     OW36402   3.720   6.951   0.699
11502SOL    HW136403   3.769   7.015   0.750
11502SOL    HW236404   3.765   6.868   0.714
11503SOL     OW36405   6.834   5.460  10.840
11503SOL    HW136406   6.887   5.533  10.872
11503SOL    HW236407   6.749   5.499  10.821
11504SOL     OW36408   2.504  10.594   1.740
11504SOL    HW136409   2.515  10.542   1.819
11504SOL    HW236410   2.501  10.529   1.669
11505SOL     OW36411   0.350   6.742  10.585
11505SOL    HW136412   0.351   6.837  10.590
11505SOL    HW236413   0.258   6.719  10.572
11506SOL     OW36414   2.996   3.439   5.673
11506SOL    HW136415   2.997   3.426   5.768
11506SOL    HW236416   2.945   3.518   5.659
11507SOL     OW36417   9.806   9.950   6.376
11507SOL    HW136418   9.773  10.034   6.342
11507SOL    HW236419   9.864   9.918   6.307
11508SOL     OW36420   0.261  12.567   9.600
11508SOL    HW136421   0.311  12.647   9.588
11508SOL    HW236422   0.230  12.571   9.691
11509SOL     OW36423  14.715   5.615   2.266
11509SOL    HW136424  14.691   5.573   2.348
11509SOL    HW236425  14.634   5.653   2.233
11510SOL     OW36426  13.117   8.532   9.247
11510SOL    HW136427  13.040   8.578   9.213
11510SOL    HW236428  13.117   8.550   9.341
11511SOL     OW36429  11.035  11.946   9.446
11511SOL    HW136430  10.987  12.025   9.420
11511SOL    HW236431  11.126  11.966   9.428
11512SOL     OW36432  10.346  10.248  13.822
11512SOL    HW136433  10.352  10.288  13.909
11512SOL    HW236434  10.415  10.181  13.823
11513SOL     OW36435  13.912   6.948  14.076
11513SOL    HW136436  13.970   6.923  14.004
11513SOL    HW236437  13.847   6.878  14.080
11514SOL     OW36438   8.694   6.172   6.825
11514SOL    HW136439   8.629   6.112   6.790
11514SOL    HW236440   8.647   6.254   6.841
11515SOL     OW36441  10.932  11.995   3.295
11515SOL    HW136442  10.960  12.087   3.291
11515SOL    HW236443  11.008  11.946   3.263
11516SOL     OW36444   3.638  10.197   5.252
11516SOL    HW136445   3.671  10.279   5.290
11516SOL    HW236446   3.543  10.208   5.251
11517SOL     OW36447   7.218   9.709   6.172
11517SOL    HW136448   7.162   9.638   6.141
11517SOL    HW236449   7.276   9.668   6.236
11518SOL     OW36450   3.487  14.020   3.939
11518SOL    HW136451   3.474  13.925   3.934
11518SOL    HW236452   3.428  14.048   4.009
11519SOL     OW36453   4.006   2.951  10.520
11519SOL    HW136454   4.066   2.924  10.450
11519SOL    HW236455   4.062   2.985  10.589
11520SOL     OW36456   4.565  14.370   6.780
11520SOL    HW136457   4.582  14.331   6.695
11520SOL    HW236458   4.629  14.441   6.788
11521SOL     OW36459   4.768  10.693  11.955
11521SOL    HW136460   4.702  10.656  11.898
11521SOL    HW236461   4.718  10.737  12.024
11522SOL     OW36462  12.450   8.944  13.003
11522SOL    HW136463  12.372   8.928  13.056
11522SOL    HW236464  12.514   8.982  13.063
11523SOL     OW36465   0.800   7.276  14.265
11523SOL    HW136466   0.857   7.235  14.329
11523SOL    HW236467   0.844   7.358  14.243
11524SOL     OW36468   8.664   9.731   5.772
11524SOL    HW136469   8.639   9.730   5.680
11524SOL    HW236470   8.624   9.810   5.807
11525SOL     OW36471   3.874   5.556  11.812
11525SOL    HW136472   3.955   5.505  11.816
11525SOL    HW236473   3.903   5.645  11.790
11526SOL     OW36474   3.974   3.889   7.881
11526SOL    HW136475   3.930   3.936   7.952
11526SOL    HW236476   3.903   3.848   7.831
11527SOL     OW36477   5.219   5.353   2.917
11527SOL    HW136478   5.247   5.351   2.825
11527SOL    HW236479   5.134   5.395   2.916
11528SOL     OW36480   0.280  13.834   9.461
11528SOL    HW136481   0.369  13.819   9.494
11528SOL    HW236482   0.285  13.807   9.369
11529SOL     OW36483  14.225   9.706   5.213
11529SOL    HW136484  14.144   9.671   5.176
11529SOL    HW236485  14.295   9.655   5.171
11530SOL     OW36486   0.549  10.376   1.580
11530SOL    HW136487   0.584  10.312   1.642
11530SOL    HW236488   0.593  10.458   1.602
11531SOL     OW36489  11.552  14.853   5.787
11531SOL    HW136490  11.641  14.820   5.791
11531SOL    HW236491  11.554   0.059   5.834
11532SOL     OW36492  10.944   9.762   4.584
11532SOL    HW136493  11.010   9.831   4.583
11532SOL    HW236494  10.993   9.682   4.604
11533SOL     OW36495   2.351   3.148   5.815
11533SOL    HW136496   2.284   3.087   5.785
11533SOL    HW236497   2.381   3.191   5.735
11534SOL     OW36498   4.022  14.520   7.053
11534SOL    HW136499   3.935  14.558   7.038
11534SOL    HW236500   4.045  14.481   6.969
11535SOL     OW36501   2.213  12.777   2.190
11535SOL    HW136502   2.189  12.837   2.120
11535SOL    HW236503   2.134  12.724   2.204
11536SOL     OW36504   2.040   0.720   4.079
11536SOL    HW136505   1.994   0.707   3.996
11536SOL    HW236506   2.053   0.814   4.085
11537SOL     OW36507   6.626   5.793   8.360
11537SOL    HW136508   6.684   5.867   8.377
11537SOL    HW236509   6.573   5.821   8.285
11538SOL     OW36510   0.904   5.668   9.492
11538SOL    HW136511   0.814   5.658   9.463
11538SOL    HW236512   0.904   5.750   9.542
11539SOL     OW36513   0.806   5.480  14.701
11539SOL    HW136514   0.826   5.530  14.622
11539SOL    HW236515   0.750   5.409  14.671
11540SOL     OW36516  11.261   9.716   5.159
11540SOL    HW136517  11.281   9.630   5.198
11540SOL    HW236518  11.166   9.723   5.165
11541SOL     OW36519   9.110   0.127  12.208
11541SOL    HW136520   9.092   0.198  12.146
11541SOL    HW236521   9.198   0.146  12.241
11542SOL     OW36522   5.051   6.838  12.675
11542SOL    HW136523   5.078   6.779  12.604
11542SOL    HW236524   5.122   6.902  12.681
11543SOL     OW36525   2.353   3.933  10.937
11543SOL    HW136526   2.433   3.922  10.989
11543SOL    HW236527   2.358   4.022  10.903
11544SOL     OW36528   8.180  13.380   5.086
11544SOL    HW136529   8.099  13.431   5.079
11544SOL    HW236530   8.157  13.293   5.055
11545SOL     OW36531   3.451   7.912   0.458
11545SOL    HW136532   3.492   7.920   0.373
11545SOL    HW236533   3.499   7.841   0.502
11546SOL     OW36534   6.764   8.391   6.454
11546SOL    HW136535   6.709   8.341   6.514
11546SOL    HW236536   6.816   8.448   6.511
11547SOL     OW36537   0.607  14.688   4.072
11547SOL    HW136538   0.632  14.599   4.047
11547SOL    HW236539   0.533  14.709   4.015
11548SOL     OW36540  13.213   3.388   9.440
11548SOL    HW136541  13.123   3.360   9.423
11548SOL    HW236542  13.231   3.358   9.529
11549SOL     OW36543  13.225   2.809   8.802
11549SOL    HW136544  13.214   2.902   8.820
11549SOL    HW236545  13.274   2.806   8.720
11550SOL     OW36546   5.554   3.597   6.513
11550SOL    HW136547   5.605   3.541   6.455
11550SOL    HW236548   5.500   3.537   6.564
11551SOL     OW36549  13.241   7.770   8.590
11551SOL    HW136550  13.188   7.841   8.554
11551SOL    HW236551  13.204   7.755   8.678
11552SOL     OW36552   9.967   7.697   1.170
11552SOL    HW136553  10.023   7.620   1.182
11552SOL    HW236554   9.998   7.736   1.088
11553SOL     OW36555  12.591   5.222   6.793
11553SOL    HW136556  12.639   5.248   6.715
11553SOL    HW236557  12.653   5.233   6.865
11554SOL     OW36558   9.560   1.082   3.221
11554SOL    HW136559   9.514   1.032   3.287
11554SOL    HW236560   9.633   1.122   3.268
11555SOL     OW36561  14.246  13.756  14.693
11555SOL    HW136562  14.202  13.820  14.636
11555SOL    HW236563  14.299  13.809  14.752
11556SOL     OW36564   6.539  14.775   5.372
11556SOL    HW136565   6.512  14.799   5.283
11556SOL    HW236566   6.632  14.756   5.365
11557SOL     OW36567  12.524  12.563   4.216
11557SOL    HW136568  12.601  12.533   4.168
11557SOL    HW236569  12.538  12.531   4.305
11558SOL     OW36570  11.176  12.373   5.819
11558SOL    HW136571  11.103  12.435   5.818
11558SOL    HW236572  11.172  12.330   5.733
11559SOL     OW36573   8.517   6.698  14.515
11559SOL    HW136574   8.568   6.621  14.491
11559SOL    HW236575   8.581   6.770  14.514
11560SOL     OW36576   5.078   9.603  12.723
11560SOL    HW136577   5.035   9.643  12.799
11560SOL    HW236578   5.033   9.519  12.711
11561SOL     OW36579  10.762  11.972   8.766
11561SOL    HW136580  10.842  11.978   8.714
11561SOL    HW236581  10.699  11.930   8.708
11562SOL     OW36582  13.713   3.592  14.311
11562SOL    HW136583  13.652   3.632  14.372
11562SOL    HW236584  13.659   3.562  14.238
11563SOL     OW36585   5.387   0.882   1.109
11563SOL    HW136586   5.337   0.889   1.027
11563SOL    HW236587   5.321   0.868   1.176
11564SOL     OW36588   6.753   0.643  10.847
11564SOL    HW136589   6.820   0.640  10.915
11564SOL    HW236590   6.714   0.730  10.856
11565SOL     OW36591  12.074   7.008   3.313
11565SOL    HW136592  12.043   6.973   3.229
11565SOL    HW236593  12.033   6.953   3.379
11566SOL     OW36594   2.158   2.857  14.665
11566SOL    HW136595   2.243   2.830  14.701
11566SOL    HW236596   2.158   2.952  14.671
11567SOL     OW36597   6.585  13.704   4.701
11567SOL    HW136598   6.549  13.780   4.745
11567SOL    HW236599   6.679  13.723   4.694
11568SOL     OW36600   0.228   2.802  14.407
11568SOL    HW136601   0.311   2.800  14.454
11568SOL    HW236602   0.248   2.764  14.321
11569SOL     OW36603   6.611  13.094   3.207
11569SOL    HW136604   6.646  13.102   3.296
11569SOL    HW236605   6.520  13.124   3.215
11570SOL     OW36606   3.125  13.992   8.774
11570SOL    HW136607   3.158  14.072   8.814
11570SOL    HW236608   3.053  14.021   8.718
11571SOL     OW36609  12.389  11.760   6.298
11571SOL    HW136610  12.357  11.670   6.308
11571SOL    HW236611  12.347  11.791   6.217
11572SOL     OW36612  10.232   2.679   4.917
11572SOL    HW136613  10.150   2.632   4.904
11572SOL    HW236614  10.280   2.625   4.981
11573SOL     OW36615   9.059   9.474  13.453
11573SOL    HW136616   8.982   9.440  13.499
11573SOL    HW236617   9.123   9.491  13.522
11574SOL     OW36618   7.572   7.153  12.392
11574SOL    HW136619   7.479   7.154  12.368
11574SOL    HW236620   7.571   7.138  12.486
11575SOL     OW36621   0.999   4.799  11.911
11575SOL    HW136622   0.919   4.756  11.942
11575SOL    HW236623   0.973   4.845  11.832
11576SOL     OW36624   9.442   7.936   7.212
11576SOL    HW136625   9.423   7.959   7.303
11576SOL    HW236626   9.462   7.842   7.215
11577SOL     OW36627   2.801  14.665  13.432
11577SOL    HW136628   2.868  14.672  13.500
11577SOL    HW236629   2.848  14.635  13.354
11578SOL     OW36630  14.814   9.000  13.608
11578SOL    HW136631  14.831   8.965  13.696
11578SOL    HW236632  14.719   9.006  13.603
11579SOL     OW36633   3.818   6.712   7.631
11579SOL    HW136634   3.878   6.652   7.588
11579SOL    HW236635   3.782   6.662   7.704
11580SOL     OW36636   4.551  12.837  10.044
11580SOL    HW136637   4.499  12.792  10.110
11580SOL    HW236638   4.597  12.905  10.093
11581SOL     OW36639   6.081  12.227   5.953
11581SOL    HW136640   6.096  12.156   6.015
11581SOL    HW236641   5.988  12.247   5.962
11582SOL     OW36642  11.960   4.399  13.398
11582SOL    HW136643  11.896   4.450  13.449
11582SOL    HW236644  12.040   4.451  13.401
11583SOL     OW36645   3.436  10.778   4.826
11583SOL    HW136646   3.345  10.770   4.852
11583SOL    HW236647   3.435  10.767   4.731
11584SOL     OW36648   3.993   9.461   3.512
11584SOL    HW136649   3.933   9.421   3.574
11584SOL    HW236650   3.983   9.409   3.432
11585SOL     OW36651   5.116   7.874  13.829
11585SOL    HW136652   5.094   7.915  13.745
11585SOL    HW236653   5.195   7.823  13.811
11586SOL     OW36654   0.558  10.197   5.448
11586SOL    HW136655   0.531  10.155   5.530
11586SOL    HW236656   0.608  10.129   5.402
11587SOL     OW36657   0.290   7.312   7.762
11587SOL    HW136658   0.328   7.400   7.761
11587SOL    HW236659   0.315   7.275   7.677
11588SOL     OW36660   0.453   3.648   1.253
11588SOL    HW136661   0.438   3.742   1.242
11588SOL    HW236662   0.544   3.635   1.227
11589SOL     OW36663   1.683   2.300   9.654
11589SOL    HW136664   1.588   2.312   9.649
11589SOL    HW236665   1.696   2.206   9.648
11590SOL     OW36666  12.773  10.612   4.696
11590SOL    HW136667  12.776  10.561   4.777
11590SOL    HW236668  12.801  10.700   4.722
11591SOL     OW36669  13.692   4.105   7.090
11591SOL    HW136670  13.725   4.182   7.137
11591SOL    HW236671  13.654   4.050   7.158
11592SOL     OW36672   2.809  13.131   2.639
11592SOL    HW136673   2.794  13.224   2.622
11592SOL    HW236674   2.829  13.127   2.733
11593SOL     OW36675   7.368  10.054   2.286
11593SOL    HW136676   7.344  10.111   2.359
11593SOL    HW236677   7.444  10.006   2.317
11594SOL     OW36678   5.980   8.722   1.886
11594SOL    HW136679   5.891   8.757   1.881
11594SOL    HW236680   5.992   8.674   1.804
11595SOL     OW36681   7.487   9.782   5.405
11595SOL    HW136682   7.554   9.850   5.414
11595SOL    HW236683   7.484   9.763   5.311
11596SOL     OW36684  11.155   9.293   9.170
11596SOL    HW136685  11.120   9.263   9.086
11596SOL    HW236686  11.246   9.263   9.170
11597SOL     OW36687   4.377   0.568   8.288
11597SOL    HW136688   4.345   0.655   8.312
11597SOL    HW236689   4.441   0.584   8.218
11598SOL     OW36690   8.125   6.178   4.757
11598SOL    HW136691   8.141   6.172   4.851
11598SOL    HW236692   8.033   6.202   4.749
11599SOL     OW36693   2.021  13.108  12.586
11599SOL    HW136694   1.995  13.171  12.519
11599SOL    HW236695   1.983  13.025  12.557
11600SOL     OW36696  11.001   2.340   4.310
11600SOL    HW136697  11.035   2.268   4.255
11600SOL    HW236698  10.919   2.366   4.268
11601SOL     OW36699   0.122  14.815  10.834
11601SOL    HW136700   0.053  14.802  10.769
11601SOL    HW236701   0.189  14.865  10.788
11602SOL     OW36702  13.198   8.600  10.602
11602SOL    HW136703  13.232   8.519  10.565
11602SOL    HW236704  13.103   8.584  10.611
11603SOL     OW36705   0.130   9.529   2.956
11603SOL    HW136706   0.217   9.524   2.916
11603SOL    HW236707   0.141   9.588   3.030
11604SOL     OW36708   2.890   5.088   2.638
11604SOL    HW136709   2.861   4.997   2.642
11604SOL    HW236710   2.980   5.086   2.671
11605SOL     OW36711  11.264   0.860   3.402
11605SOL    HW136712  11.329   0.791   3.419
11605SOL    HW236713  11.232   0.885   3.488
11606SOL     OW36714   5.271   9.319   9.081
11606SOL    HW136715   5.210   9.246   9.094
11606SOL    HW236716   5.303   9.339   9.169
11607SOL     OW36717   9.482  10.410  12.899
11607SOL    HW136718   9.397  10.379  12.928
11607SOL    HW236719   9.476  10.413  12.804
11608SOL     OW36720  12.524   0.934  13.923
11608SOL    HW136721  12.463   0.916  13.995
11608SOL    HW236722  12.469   0.970  13.854
11609SOL     OW36723   8.986   1.081   1.728
11609SOL    HW136724   8.953   1.170   1.723
11609SOL    HW236725   8.908   1.026   1.713
11610SOL     OW36726  10.090  10.887  13.676
11610SOL    HW136727  10.001  10.904  13.705
11610SOL    HW236728  10.081  10.854  13.587
11611SOL     OW36729   5.950   2.809  10.877
11611SOL    HW136730   5.925   2.814  10.970
11611SOL    HW236731   5.907   2.884  10.837
11612SOL     OW36732   1.305   9.511   7.591
11612SOL    HW136733   1.293   9.605   7.605
11612SOL    HW236734   1.311   9.501   7.496
11613SOL     OW36735   1.328   1.310   2.358
11613SOL    HW136736   1.268   1.245   2.394
11613SOL    HW236737   1.415   1.280   2.387
11614SOL     OW36738   9.535   6.444   7.102
11614SOL    HW136739   9.534   6.412   7.012
11614SOL    HW236740   9.618   6.413   7.137
11615SOL     OW36741   1.805   8.399   2.175
11615SOL    HW136742   1.711   8.384   2.190
11615SOL    HW236743   1.847   8.321   2.211
11616SOL     OW36744   5.436  13.487   0.354
11616SOL    HW136745   5.355  13.505   0.402
11616SOL    HW236746   5.466  13.574   0.326
11617SOL     OW36747  11.235   8.622   5.354
11617SOL    HW136748  11.164   8.605   5.292
11617SOL    HW236749  11.260   8.536   5.387
11618SOL     OW36750   1.794  12.057   2.569
11618SOL    HW136751   1.814  12.141   2.529
11618SOL    HW236752   1.822  11.992   2.504
11619SOL     OW36753   3.752   9.549   8.033
11619SOL    HW136754   3.830   9.498   8.056
11619SOL    HW236755   3.780   9.640   8.039
11620SOL     OW36756   3.560  11.802   1.950
11620SOL    HW136757   3.495  11.834   1.887
11620SOL    HW236758   3.525  11.718   1.979
11621SOL     OW36759  13.459   9.813  10.465
11621SOL    HW136760  13.364   9.802  10.459
11621SOL    HW236761  13.495   9.725  10.454
11622SOL     OW36762  12.497   9.127  13.492
11622SOL    HW136763  12.410   9.140  13.530
11622SOL    HW236764  12.553   9.189  13.538
11623SOL     OW36765   5.335   6.492   3.277
11623SOL    HW136766   5.417   6.442   3.273
11623SOL    HW236767   5.315   6.497   3.371
11624SOL     OW36768   8.903  12.898   4.555
11624SOL    HW136769   8.948  12.834   4.609
11624SOL    HW236770   8.825  12.921   4.605
11625SOL     OW36771  13.401  14.522   8.147
11625SOL    HW136772  13.496  14.509   8.146
11625SOL    HW236773  13.366  14.433   8.137
11626SOL     OW36774  12.627  13.258   0.430
11626SOL    HW136775  12.633  13.339   0.480
11626SOL    HW236776  12.648  13.189   0.492
11627SOL     OW36777   7.089  10.110  11.856
11627SOL    HW136778   7.033  10.032  11.852
11627SOL    HW236779   7.030  10.181  11.881
11628SOL     OW36780   0.208  11.993   5.592
11628SOL    HW136781   0.214  11.920   5.653
11628SOL    HW236782   0.245  12.067   5.639
11629SOL     OW36783  14.728   1.739  14.639
11629SOL    HW136784  14.727   1.833  14.657
11629SOL    HW236785  14.676   1.700  14.709
11630SOL     OW36786  13.309   7.842   3.834
11630SOL    HW136787  13.357   7.919   3.865
11630SOL    HW236788  13.233   7.835   3.892
11631SOL     OW36789  12.393  13.508   7.867
11631SOL    HW136790  12.421  13.540   7.782
11631SOL    HW236791  12.310  13.462   7.850
11632SOL     OW36792  11.262   0.502  13.887
11632SOL    HW136793  11.298   0.537  13.806
11632SOL    HW236794  11.330   0.518  13.953
11633SOL     OW36795   1.441   8.919   0.841
11633SOL    HW136796   1.472   8.840   0.886
11633SOL    HW236797   1.422   8.981   0.911
11634SOL     OW36798   3.026  12.081  14.679
11634SOL    HW136799   2.989  12.169  14.675
11634SOL    HW236800   2.959  12.025  14.639
11635SOL     OW36801   1.412  10.353  14.282
11635SOL    HW136802   1.433  10.431  14.332
11635SOL    HW236803   1.365  10.386  14.205
11636SOL     OW36804   8.007  10.277   6.847
11636SOL    HW136805   7.946  10.348   6.864
11636SOL    HW236806   7.991  10.214   6.916
11637SOL     OW36807   7.870   0.819   9.980
11637SOL    HW136808   7.813   0.892   9.957
11637SOL    HW236809   7.844   0.795  10.069
11638SOL     OW36810   3.130  11.753   0.484
11638SOL    HW136811   3.100  11.676   0.436
11638SOL    HW236812   3.049  11.802   0.501
11639SOL     OW36813  11.138   2.850   4.169
11639SOL    HW136814  11.087   2.922   4.205
11639SOL    HW236815  11.197   2.892   4.106
11640SOL     OW36816  10.607  11.713   6.840
11640SOL    HW136817  10.562  11.691   6.922
11640SOL    HW236818  10.652  11.633   6.815
11641SOL     OW36819   7.866   7.924   8.219
11641SOL    HW136820   7.915   7.998   8.180
11641SOL    HW236821   7.851   7.864   8.146
11642SOL     OW36822  12.313  11.308  14.642
11642SOL    HW136823  12.270  11.296  14.726
11642SOL    HW236824  12.241  11.318  14.579
11643SOL     OW36825  12.306   2.755  11.015
11643SOL    HW136826  12.275   2.773  10.927
11643SOL    HW236827  12.368   2.826  11.033
11644SOL     OW36828   8.836  14.866   3.341
11644SOL    HW136829   8.890  14.797   3.304
11644SOL    HW236830   8.765   0.000   3.278
11645SOL     OW36831  12.879  10.820   7.218
11645SOL    HW136832  12.788  10.804   7.244
11645SOL    HW236833  12.873  10.850   7.127
11646SOL     OW36834   0.626   6.465  11.867
11646SOL    HW136835   0.643   6.380  11.827
11646SOL    HW236836   0.702   6.518  11.845
11647SOL     OW36837   7.070   1.702  12.232
11647SOL    HW136838   7.131   1.741  12.294
11647SOL    HW236839   7.117   1.628  12.195
11648SOL     OW36840  12.302   6.815   1.927
11648SOL    HW136841  12.293   6.842   2.018
11648SOL    HW236842  12.311   6.719   1.931
11649SOL     OW36843   6.675  10.928  11.880
11649SOL    HW136844   6.697  10.872  11.954
11649SOL    HW236845   6.724  10.892  11.806
11650SOL     OW36846   3.259  13.975   4.627
11650SOL    HW136847   3.256  14.061   4.668
11650SOL    HW236848   3.168  13.954   4.608
11651SOL     OW36849   6.277   9.436   5.381
11651SOL    HW136850   6.289   9.521   5.424
11651SOL    HW236851   6.184   9.418   5.390
11652SOL     OW36852  13.970   7.746   1.569
11652SOL    HW136853  14.055   7.770   1.532
11652SOL    HW236854  13.914   7.821   1.552
11653SOL     OW36855  13.085  11.021   3.643
11653SOL    HW136856  13.042  10.990   3.563
11653SOL    HW236857  13.080  11.117   3.637
11654SOL     OW36858   7.634  10.967  14.650
11654SOL    HW136859   7.713  11.018  14.635
11654SOL    HW236860   7.622  10.970  14.745
11655SOL     OW36861   9.787  14.804   9.055
11655SOL    HW136862   9.808  14.716   9.023
11655SOL    HW236863   9.704  14.793   9.101
11656SOL     OW36864   6.293  10.440  14.766
11656SOL    HW136865   6.308  10.456  14.859
11656SOL    HW236866   6.335  10.513  14.721
11657SOL     OW36867  10.804   4.836  14.800
11657SOL    HW136868  10.843   4.769  14.743
11657SOL    HW236869  10.786   4.910  14.741
11658SOL     OW36870   8.382  11.674   1.930
11658SOL    HW136871   8.458  11.656   1.986
11658SOL    HW236872   8.330  11.594   1.934
11659SOL     OW36873   5.338   6.685   1.026
11659SOL    HW136874   5.386   6.606   1.052
11659SOL    HW236875   5.303   6.664   0.940
11660SOL     OW36876   0.936   7.273   9.080
11660SOL    HW136877   0.856   7.307   9.119
11660SOL    HW236878   0.905   7.209   9.015
11661SOL     OW36879   2.452  12.858   8.977
11661SOL    HW136880   2.406  12.847   8.893
11661SOL    HW236881   2.383  12.854   9.043
11662SOL     OW36882   3.754   4.778   7.474
11662SOL    HW136883   3.843   4.763   7.444
11662SOL    HW236884   3.705   4.802   7.395
11663SOL     OW36885   4.704  10.987   9.440
11663SOL    HW136886   4.724  10.943   9.523
11663SOL    HW236887   4.676  10.917   9.381
11664SOL     OW36888   2.561   5.183   7.763
11664SOL    HW136889   2.477   5.208   7.723
11664SOL    HW236890   2.592   5.110   7.710
11665SOL     OW36891   0.133   9.178  10.411
11665SOL    HW136892   0.171   9.152  10.327
11665SOL    HW236893   0.052   9.223  10.387
11666SOL     OW36894   2.769   9.366   1.171
11666SOL    HW136895   2.756   9.386   1.078
11666SOL    HW236896   2.844   9.306   1.172
11667SOL     OW36897  11.627   2.426   2.263
11667SOL    HW136898  11.552   2.370   2.284
11667SOL    HW236899  11.607   2.510   2.305
11668SOL     OW36900   7.245   6.690  11.952
11668SOL    HW136901   7.222   6.764  12.008
11668SOL    HW236902   7.336   6.670  11.975
11669SOL     OW36903   6.657   2.710  14.216
11669SOL    HW136904   6.633   2.802  14.201
11669SOL    HW236905   6.684   2.708  14.308
11670SOL     OW36906   7.941   7.909   8.491
11670SOL    HW136907   7.988   7.828   8.512
11670SOL    HW236908   7.932   7.907   8.395
11671SOL     OW36909  10.754  14.777   9.734
11671SOL    HW136910  10.811  14.787   9.658
11671SOL    HW236911  10.667  14.760   9.696
11672SOL     OW36912   7.656  11.036   5.393
11672SOL    HW136913   7.623  10.972   5.330
11672SOL    HW236914   7.653  11.120   5.346
11673SOL     OW36915   8.296   5.159  13.613
11673SOL    HW136916   8.219   5.108  13.588
11673SOL    HW236917   8.342   5.103  13.676
11674SOL     OW36918   3.308  10.171   9.192
11674SOL    HW136919   3.288  10.169   9.285
11674SOL    HW236920   3.387  10.119   9.183
11675SOL     OW36921   5.059   1.193   0.096
11675SOL    HW136922   5.005   1.148   0.031
11675SOL    HW236923   5.134   1.225   0.047
11676SOL     OW36924  10.708   1.604   5.061
11676SOL    HW136925  10.720   1.617   5.156
11676SOL    HW236926  10.796   1.614   5.024
11677SOL     OW36927   2.054   1.630  14.511
11677SOL    HW136928   2.120   1.651  14.576
11677SOL    HW236929   2.102   1.585  14.441
11678SOL     OW36930  13.442   0.788   4.463
11678SOL    HW136931  13.476   0.836   4.538
11678SOL    HW236932  13.456   0.846   4.388
11679SOL     OW36933   3.410   1.952  13.722
11679SOL    HW136934   3.492   1.994  13.748
11679SOL    HW236935   3.404   1.876  13.780
11680SOL     OW36936   9.437   8.479   2.079
11680SOL    HW136937   9.501   8.411   2.059
11680SOL    HW236938   9.486   8.544   2.130
11681SOL     OW36939   9.890   3.518   2.056
11681SOL    HW136940   9.832   3.592   2.036
11681SOL    HW236941   9.932   3.498   1.972
11682SOL     OW36942   8.893   4.030  13.466
11682SOL    HW136943   8.961   4.003  13.404
11682SOL    HW236944   8.919   3.989  13.549
11683SOL     OW36945   8.518   8.906  10.565
11683SOL    HW136946   8.545   8.917  10.657
11683SOL    HW236947   8.601   8.893  10.518
11684SOL     OW36948   8.730  11.779   6.251
11684SOL    HW136949   8.638  11.802   6.264
11684SOL    HW236950   8.770  11.858   6.216
11685SOL     OW36951   3.563   4.390   9.676
11685SOL    HW136952   3.598   4.320   9.732
11685SOL    HW236953   3.587   4.471   9.721
11686SOL     OW36954   3.285   8.924  14.704
11686SOL    HW136955   3.292   8.837  14.665
11686SOL    HW236956   3.250   8.909  14.792
11687SOL     OW36957   2.271   3.258   5.304
11687SOL    HW136958   2.232   3.236   5.389
11687SOL    HW236959   2.196   3.267   5.245
11688SOL     OW36960   4.440   0.007   5.715
11688SOL    HW136961   4.499   0.044   5.649
11688SOL    HW236962   4.389   0.082   5.745
11689SOL     OW36963   9.140  11.049   1.173
11689SOL    HW136964   9.113  10.972   1.224
11689SOL    HW236965   9.236  11.051   1.183
11690SOL     OW36966   3.918   0.252   1.752
11690SOL    HW136967   3.980   0.324   1.737
11690SOL    HW236968   3.924   0.198   1.673
11691SOL     OW36969  12.702   0.801   0.993
11691SOL    HW136970  12.626   0.837   0.948
11691SOL    HW236971  12.669   0.720   1.033
11692SOL     OW36972  12.386   5.074   0.656
11692SOL    HW136973  12.435   5.031   0.726
11692SOL    HW236974  12.431   5.158   0.643
11693SOL     OW36975   3.954  10.101   8.931
11693SOL    HW136976   3.913  10.165   8.874
11693SOL    HW236977   4.035  10.144   8.961
11694SOL     OW36978  12.142   9.775  10.690
11694SOL    HW136979  12.092   9.843  10.734
11694SOL    HW236980  12.232   9.809  10.687
11695SOL     OW36981   6.649   4.822  13.284
11695SOL    HW136982   6.730   4.866  13.259
11695SOL    HW236983   6.675   4.733  13.306
11696SOL     OW36984   9.487  12.144   7.734
11696SOL    HW136985   9.460  12.074   7.793
11696SOL    HW236986   9.550  12.103   7.675
11697SOL     OW36987   5.894  14.575   9.641
11697SOL    HW136988   5.876  14.665   9.613
11697SOL    HW236989   5.814  14.526   9.619
11698SOL     OW36990   3.652   7.710   3.905
11698SOL    HW136991   3.730   7.655   3.912
11698SOL    HW236992   3.677   7.792   3.947
11699SOL     OW36993  13.480   0.028   9.245
11699SOL    HW136994  13.483   0.018   9.150
11699SOL    HW236995  13.395   0.068   9.262
11700SOL     OW36996   6.982   1.322   7.272
11700SOL    HW136997   6.909   1.330   7.211
11700SOL    HW236998   6.954   1.371   7.350
11701SOL     OW36999   2.434   8.614  10.219
11701SOL    HW137000   2.425   8.602  10.124
11701SOL    HW237001   2.528   8.605  10.235
11702SOL     OW37002  10.520   5.682   2.592
11702SOL    HW137003  10.535   5.619   2.662
11702SOL    HW237004  10.482   5.629   2.521
11703SOL     OW37005  10.167   7.249  12.368
11703SOL    HW137006  10.130   7.266  12.281
11703SOL    HW237007  10.207   7.162  12.360
11704SOL     OW37008  12.843   0.168   0.057
11704SOL    HW137009  12.900   0.230   0.103
11704SOL    HW237010  12.761   0.217   0.042
11705SOL     OW37011   5.519   0.343   7.407
11705SOL    HW137012   5.435   0.297   7.411
11705SOL    HW237013   5.512   0.412   7.472
11706SOL     OW37014   2.515   0.269   6.782
11706SOL    HW137015   2.508   0.280   6.877
11706SOL    HW237016   2.582   0.201   6.771
11707SOL     OW37017   2.274   1.936  11.506
11707SOL    HW137018   2.212   1.886  11.452
11707SOL    HW237019   2.254   1.910  11.596
11708SOL     OW37020   7.865   6.469   4.935
11708SOL    HW137021   7.863   6.463   5.030
11708SOL    HW237022   7.901   6.556   4.917
11709SOL     OW37023  11.477  10.885   9.933
11709SOL    HW137024  11.521  10.879  10.018
11709SOL    HW237025  11.405  10.822   9.939
11710SOL     OW37026   3.249   1.993   6.435
11710SOL    HW137027   3.215   1.917   6.482
11710SOL    HW237028   3.317   2.028   6.492
11711SOL     OW37029   0.396   2.069  11.395
11711SOL    HW137030   0.372   2.161  11.395
11711SOL    HW237031   0.409   2.048  11.302
11712SOL     OW37032   7.328   6.022  12.267
11712SOL    HW137033   7.253   6.078  12.285
11712SOL    HW237034   7.371   6.063  12.192
11713SOL     OW37035   5.174  12.978  10.439
11713SOL    HW137036   5.098  12.971  10.497
11713SOL    HW237037   5.242  12.927  10.483
11714SOL     OW37038   8.319   9.654   8.938
11714SOL    HW137039   8.272   9.598   9.001
11714SOL    HW237040   8.251   9.715   8.906
11715SOL     OW37041   3.165   3.074   4.282
11715SOL    HW137042   3.098   3.097   4.346
11715SOL    HW237043   3.120   3.081   4.197
11716SOL     OW37044   9.756   8.862  11.489
11716SOL    HW137045   9.700   8.804  11.540
11716SOL    HW237046   9.710   8.873  11.406
11717SOL     OW37047   1.307   1.468  10.141
11717SOL    HW137048   1.307   1.562  10.128
11717SOL    HW237049   1.331   1.456  10.233
11718SOL     OW37050   2.065   7.163  12.008
11718SOL    HW137051   2.091   7.130  11.922
11718SOL    HW237052   2.146   7.197  12.046
11719SOL     OW37053   5.882   7.190   6.622
11719SOL    HW137054   5.964   7.141   6.615
11719SOL    HW237055   5.834   7.168   6.542
11720SOL     OW37056   1.486   1.233   6.012
11720SOL    HW137057   1.418   1.218   6.078
11720SOL    HW237058   1.439   1.269   5.937
11721SOL     OW37059  12.865   4.289   9.845
11721SOL    HW137060  12.852   4.340   9.765
11721SOL    HW237061  12.917   4.213   9.818
11722SOL     OW37062   4.919   0.470   8.125
11722SOL    HW137063   4.902   0.401   8.190
11722SOL    HW237064   4.902   0.551   8.172
11723SOL     OW37065   4.704   2.573  12.231
11723SOL    HW137066   4.664   2.515  12.166
11723SOL    HW237067   4.723   2.653  12.183
11724SOL     OW37068   1.227   9.984   0.990
11724SOL    HW137069   1.298  10.014   0.933
11724SOL    HW237070   1.272   9.936   1.060
11725SOL     OW37071  13.570   2.654   9.918
11725SOL    HW137072  13.491   2.645   9.972
11725SOL    HW237073  13.587   2.565   9.887
11726SOL     OW37074  10.751  11.381   9.852
11726SOL    HW137075  10.775  11.335   9.933
11726SOL    HW237076  10.813  11.454   9.847
11727SOL     OW37077   3.516   9.562  13.281
11727SOL    HW137078   3.609   9.539  13.285
11727SOL    HW237079   3.505   9.629  13.347
11728SOL     OW37080  14.425   0.264   5.166
11728SOL    HW137081  14.363   0.259   5.239
11728SOL    HW237082  14.469   0.348   5.177
11729SOL     OW37083  11.557   6.329   0.629
11729SOL    HW137084  11.491   6.276   0.674
11729SOL    HW237085  11.552   6.300   0.538
11730SOL     OW37086   5.075  12.174   7.434
11730SOL    HW137087   5.108  12.222   7.510
11730SOL    HW237088   4.981  12.188   7.435
11731SOL     OW37089   9.916   3.987   8.544
11731SOL    HW137090   9.952   4.042   8.613
11731SOL    HW237091   9.989   3.971   8.485
11732SOL     OW37092   9.567   9.029  10.247
11732SOL    HW137093   9.650   8.992  10.216
11732SOL    HW237094   9.535   9.080  10.174
11733SOL     OW37095  12.366   6.753  13.608
11733SOL    HW137096  12.432   6.782  13.546
11733SOL    HW237097  12.349   6.829  13.663
11734SOL     OW37098   0.212   4.984  10.189
11734SOL    HW137099   0.263   4.908  10.217
11734SOL    HW237100   0.230   5.050  10.255
11735SOL     OW37101   9.285   0.564   9.506
11735SOL    HW137102   9.333   0.481   9.499
11735SOL    HW237103   9.263   0.572   9.599
11736SOL     OW37104   9.183   3.253   7.192
11736SOL    HW137105   9.214   3.343   7.184
11736SOL    HW237106   9.133   3.238   7.111
11737SOL     OW37107   0.489  10.793   7.847
11737SOL    HW137108   0.461  10.704   7.868
11737SOL    HW237109   0.567  10.806   7.900
11738SOL     OW37110  11.899   0.264   8.079
11738SOL    HW137111  11.896   0.336   8.015
11738SOL    HW237112  11.954   0.198   8.038
11739SOL     OW37113   6.392   6.129   6.389
11739SOL    HW137114   6.448   6.055   6.368
11739SOL    HW237115   6.445   6.206   6.370
11740SOL     OW37116   7.600   3.085   4.581
11740SOL    HW137117   7.508   3.105   4.567
11740SOL    HW237118   7.604   2.989   4.583
11741SOL     OW37119   2.913  13.358   5.345
11741SOL    HW137120   2.849  13.429   5.342
11741SOL    HW237121   2.964  13.375   5.424
11742SOL     OW37122  14.073   8.925   6.004
11742SOL    HW137123  14.104   8.898   5.918
11742SOL    HW237124  14.072   8.844   6.056
11743SOL     OW37125   0.843   3.344   2.443
11743SOL    HW137126   0.909   3.409   2.465
11743SOL    HW237127   0.890   3.261   2.446
11744SOL     OW37128  12.092  10.324  12.658
11744SOL    HW137129  12.164  10.269  12.689
11744SOL    HW237130  12.074  10.293  12.569
11745SOL     OW37131   9.381   4.871  14.113
11745SOL    HW137132   9.331   4.793  14.088
11745SOL    HW237133   9.419   4.902  14.031
11746SOL     OW37134   6.331   2.626  12.371
11746SOL    HW137135   6.368   2.710  12.345
11746SOL    HW237136   6.330   2.574  12.291
11747SOL     OW37137   0.489   6.095  14.718
11747SOL    HW137138   0.407   6.047  14.703
11747SOL    HW237139   0.460   6.180  14.751
11748SOL     OW37140  11.851   6.521   4.065
11748SOL    HW137141  11.796   6.443   4.069
11748SOL    HW237142  11.936   6.491   4.096
11749SOL     OW37143   3.313  14.875  11.789
11749SOL    HW137144   3.285  14.873  11.697
11749SOL    HW237145   3.301   0.089  11.816
11750SOL     OW37146  13.234   6.263   7.274
11750SOL    HW137147  13.139   6.267   7.281
11750SOL    HW237148  13.252   6.182   7.228
11751SOL     OW37149   7.291  13.921   5.681
11751SOL    HW137150   7.297  14.012   5.712
11751SOL    HW237151   7.209  13.919   5.631
11752SOL     OW37152   9.929   6.484   1.046
11752SOL    HW137153   9.970   6.454   0.965
11752SOL    HW237154   9.897   6.405   1.088
11753SOL     OW37155   9.368   2.405  12.515
11753SOL    HW137156   9.388   2.316  12.547
11753SOL    HW237157   9.450   2.435  12.476
11754SOL     OW37158  13.420   3.559   5.337
11754SOL    HW137159  13.456   3.507   5.264
11754SOL    HW237160  13.350   3.504   5.373
11755SOL     OW37161   0.897  11.629   7.936
11755SOL    HW137162   0.824  11.571   7.914
11755SOL    HW237163   0.886  11.647   8.029
11756SOL     OW37164   6.157  10.643   6.560
11756SOL    HW137165   6.187  10.725   6.521
11756SOL    HW237166   6.207  10.635   6.641
11757SOL     OW37167   5.619   5.485  14.684
11757SOL    HW137168   5.708   5.492  14.717
11757SOL    HW237169   5.603   5.391  14.676
11758SOL     OW37170   5.493   0.971   8.262
11758SOL    HW137171   5.480   0.974   8.357
11758SOL    HW237172   5.501   1.063   8.237
11759SOL     OW37173   9.141   7.842  10.865
11759SOL    HW137174   9.058   7.795  10.874
11759SOL    HW237175   9.195   7.808  10.936
11760SOL     OW37176  14.517  13.205   9.913
11760SOL    HW137177  14.431  13.247   9.908
11760SOL    HW237178  14.558  13.227   9.829
11761SOL     OW37179  14.475  12.493   5.900
11761SOL    HW137180  14.462  12.517   5.992
11761SOL    HW237181  14.472  12.397   5.900
11762SOL     OW37182  14.451   4.539  11.042
11762SOL    HW137183  14.388   4.592  10.994
11762SOL    HW237184  14.458   4.580  11.128
11763SOL     OW37185   3.695   3.402   5.014
11763SOL    HW137186   3.622   3.459   4.990
11763SOL    HW237187   3.670   3.366   5.099
11764SOL     OW37188   3.452  13.649   9.762
11764SOL    HW137189   3.405  13.650   9.679
11764SOL    HW237190   3.423  13.568   9.805
11765SOL     OW37191   4.755  10.152   4.135
11765SOL    HW137192   4.819  10.204   4.183
11765SOL    HW237193   4.803  10.075   4.105
11766SOL     OW37194   2.590   4.469   7.443
11766SOL    HW137195   2.558   4.492   7.356
11766SOL    HW237196   2.672   4.518   7.452
11767SOL     OW37197   4.927   8.410  11.835
11767SOL    HW137198   4.929   8.346  11.763
11767SOL    HW237199   4.986   8.374  11.901
11768SOL     OW37200   4.693  10.177   9.945
11768SOL    HW137201   4.697  10.191  10.039
11768SOL    HW237202   4.685  10.082   9.935
11769SOL     OW37203  12.485   1.722   1.464
11769SOL    HW137204  12.511   1.659   1.397
11769SOL    HW237205  12.561   1.779   1.473
11770SOL     OW37206   4.233   5.118   1.229
11770SOL    HW137207   4.301   5.070   1.182
11770SOL    HW237208   4.152   5.071   1.210
11771SOL     OW37209   9.178  13.313   3.205
11771SOL    HW137210   9.240  13.279   3.271
11771SOL    HW237211   9.141  13.234   3.165
11772SOL     OW37212  11.373   7.608  13.100
11772SOL    HW137213  11.301   7.571  13.150
11772SOL    HW237214  11.395   7.540  13.036
11773SOL     OW37215   8.799   7.829   6.410
11773SOL    HW137216   8.881   7.800   6.451
11773SOL    HW237217   8.793   7.777   6.330
11774SOL     OW37218  12.260  11.985  10.270
11774SOL    HW137219  12.321  11.991  10.343
11774SOL    HW237220  12.209  12.067  10.274
11775SOL     OW37221  11.880   7.637   5.662
11775SOL    HW137222  11.934   7.654   5.585
11775SOL    HW237223  11.930   7.675   5.735
11776SOL     OW37224  14.346   4.708   2.896
11776SOL    HW137225  14.441   4.698   2.896
11776SOL    HW237226  14.330   4.798   2.922
11777SOL     OW37227   2.578   7.537  12.625
11777SOL    HW137228   2.652   7.582  12.583
11777SOL    HW237229   2.619   7.485  12.694
11778SOL     OW37230   4.122   8.644  11.682
11778SOL    HW137231   4.166   8.727  11.663
11778SOL    HW237232   4.085   8.656  11.770
11779SOL     OW37233   1.984   3.312   3.641
11779SOL    HW137234   1.961   3.312   3.548
11779SOL    HW237235   1.901   3.299   3.687
11780SOL     OW37236   8.800   7.026   6.987
11780SOL    HW137237   8.823   7.096   6.927
11780SOL    HW237238   8.860   7.037   7.061
11781SOL     OW37239   8.079  12.564   4.669
11781SOL    HW137240   7.989  12.533   4.677
11781SOL    HW237241   8.115  12.517   4.594
11782SOL     OW37242   1.499   6.330  14.645
11782SOL    HW137243   1.495   6.276  14.724
11782SOL    HW237244   1.470   6.417  14.674
11783SOL     OW37245   4.880   7.271   9.903
11783SOL    HW137246   4.926   7.294   9.984
11783SOL    HW237247   4.947   7.229   9.849
11784SOL     OW37248  10.660   5.335   3.962
11784SOL    HW137249  10.581   5.372   4.001
11784SOL    HW237250  10.638   5.242   3.948
11785SOL     OW37251   1.579  10.357  11.527
11785SOL    HW137252   1.599  10.269  11.494
11785SOL    HW237253   1.665  10.396  11.542
11786SOL     OW37254   9.891   5.193   8.858
11786SOL    HW137255   9.812   5.219   8.907
11786SOL    HW237256   9.885   5.098   8.852
11787SOL     OW37257  11.353   6.951   1.358
11787SOL    HW137258  11.330   6.865   1.393
11787SOL    HW237259  11.419   6.932   1.292
11788SOL     OW37260  11.509   2.107   9.465
11788SOL    HW137261  11.509   2.202   9.457
11788SOL    HW237262  11.424   2.087   9.504
11789SOL     OW37263   9.973   3.278   1.224
11789SOL    HW137264   9.904   3.226   1.265
11789SOL    HW237265   9.934   3.364   1.208
11790SOL     OW37266   1.070   1.757   0.629
11790SOL    HW137267   1.107   1.754   0.717
11790SOL    HW237268   1.138   1.799   0.576
11791SOL     OW37269  13.752  11.541  12.825
11791SOL    HW137270  13.787  11.620  12.783
11791SOL    HW237271  13.815  11.472  12.803
11792SOL     OW37272   7.070  10.995   5.671
11792SOL    HW137273   7.000  11.004   5.735
11792SOL    HW237274   7.026  10.971   5.589
11793SOL     OW37275  13.490   9.868   3.349
11793SOL    HW137276  13.414   9.916   3.383
11793SOL    HW237277  13.463   9.840   3.262
11794SOL     OW37278   4.642   1.053   8.668
11794SOL    HW137279   4.576   1.059   8.737
11794SOL    HW237280   4.650   0.959   8.652
11795SOL     OW37281   1.277  12.113   0.763
11795SOL    HW137282   1.361  12.103   0.719
11795SOL    HW237283   1.294  12.175   0.834
11796SOL     OW37284   4.790   3.649   2.441
11796SOL    HW137285   4.873   3.695   2.427
11796SOL    HW237286   4.750   3.644   2.355
11797SOL     OW37287   4.568  12.183   3.161
11797SOL    HW137288   4.591  12.132   3.239
11797SOL    HW237289   4.527  12.262   3.195
11798SOL     OW37290  10.175   4.041   9.287
11798SOL    HW137291  10.161   4.135   9.291
11798SOL    HW237292  10.246   4.030   9.224
11799SOL     OW37293   3.392   5.190  12.826
11799SOL    HW137294   3.303   5.165  12.801
11799SOL    HW237295   3.437   5.204  12.743
11800SOL     OW37296   0.601  12.853   4.158
11800SOL    HW137297   0.517  12.816   4.130
11800SOL    HW237298   0.659  12.840   4.084
11801SOL     OW37299   3.020  14.605  14.588
11801SOL    HW137300   3.064  14.630  14.669
11801SOL    HW237301   3.087  14.562  14.536
11802SOL     OW37302  11.940   0.219   5.812
11802SOL    HW137303  11.929   0.184   5.900
11802SOL    HW237304  12.011   0.283   5.820
11803SOL     OW37305  11.011   9.353   2.995
11803SOL    HW137306  10.997   9.316   2.908
11803SOL    HW237307  11.096   9.397   2.989
11804SOL     OW37308  14.615   4.106   2.441
11804SOL    HW137309  14.708   4.122   2.456
11804SOL    HW237310  14.590   4.172   2.377
11805SOL     OW37311   1.719  14.127   7.780
11805SOL    HW137312   1.657  14.196   7.758
11805SOL    HW237313   1.672  14.046   7.760
11806SOL     OW37314   4.177   0.721  10.762
11806SOL    HW137315   4.149   0.653  10.824
11806SOL    HW237316   4.218   0.788  10.817
11807SOL     OW37317   4.619   5.860   7.548
11807SOL    HW137318   4.700   5.857   7.599
11807SOL    HW237319   4.641   5.815   7.466
11808SOL     OW37320  10.271   4.610   2.376
11808SOL    HW137321  10.266   4.626   2.470
11808SOL    HW237322  10.194   4.654   2.340
11809SOL     OW37323  13.074   9.529  11.377
11809SOL    HW137324  12.981   9.517  11.393
11809SOL    HW237325  13.085   9.520  11.283
11810SOL     OW37326  10.195  11.514  10.932
11810SOL    HW137327  10.258  11.514  10.860
11810SOL    HW237328  10.124  11.457  10.901
11811SOL     OW37329  14.646  13.336   8.872
11811SOL    HW137330  14.583  13.286   8.924
11811SOL    HW237331  14.731  13.301   8.896
11812SOL     OW37332  14.169   9.577  13.658
11812SOL    HW137333  14.222   9.507  13.694
11812SOL    HW237334  14.231   9.633  13.612
11813SOL     OW37335  14.758  12.829  13.982
11813SOL    HW137336  14.700  12.825  13.906
11813SOL    HW237337  14.791  12.739  13.992
11814SOL     OW37338   9.739   3.305  14.307
11814SOL    HW137339   9.746   3.262  14.221
11814SOL    HW237340   9.645   3.324  14.317
11815SOL     OW37341  12.760   8.246   0.338
11815SOL    HW137342  12.851   8.265   0.363
11815SOL    HW237343  12.727   8.329   0.304
11816SOL     OW37344   9.986   6.086   7.638
11816SOL    HW137345  10.053   6.018   7.642
11816SOL    HW237346  10.030   6.165   7.669
11817SOL     OW37347   8.362   2.278   6.284
11817SOL    HW137348   8.303   2.345   6.318
11817SOL    HW237349   8.309   2.198   6.284
11818SOL     OW37350   3.130  13.358   2.784
11818SOL    HW137351   3.053  13.414   2.783
11818SOL    HW237352   3.199  13.412   2.746
11819SOL     OW37353  12.384   0.703   4.787
11819SOL    HW137354  12.396   0.790   4.824
11819SOL    HW237355  12.294   0.703   4.755
11820SOL     OW37356  11.958  13.526   2.968
11820SOL    HW137357  11.863  13.519   2.982
11820SOL    HW237358  11.993  13.547   3.054
11821SOL     OW37359   2.528   0.765  13.994
11821SOL    HW137360   2.495   0.783  14.082
11821SOL    HW237361   2.566   0.848  13.966
11822SOL     OW37362   2.756  12.302   2.308
11822SOL    HW137363   2.744  12.363   2.236
11822SOL    HW237364   2.730  12.217   2.271
11823SOL     OW37365   0.754  11.445   8.991
11823SOL    HW137366   0.844  11.473   9.005
11823SOL    HW237367   0.761  11.361   8.945
11824SOL     OW37368   9.581  10.647   5.842
11824SOL    HW137369   9.631  10.714   5.890
11824SOL    HW237370   9.498  10.689   5.820
11825SOL     OW37371  11.337   1.668   6.516
11825SOL    HW137372  11.416   1.663   6.570
11825SOL    HW237373  11.280   1.599   6.549
11826SOL     OW37374  12.428   5.694   0.374
11826SOL    HW137375  12.356   5.658   0.427
11826SOL    HW237376  12.389   5.708   0.288
11827SOL     OW37377   9.174  12.415  12.698
11827SOL    HW137378   9.246  12.478  12.692
11827SOL    HW237379   9.111  12.457  12.756
11828SOL     OW37380   3.402  10.936   0.727
11828SOL    HW137381   3.320  10.890   0.743
11828SOL    HW237382   3.461  10.903   0.794
11829SOL     OW37383   0.934   6.765   2.990
11829SOL    HW137384   0.919   6.671   2.979
11829SOL    HW237385   0.894   6.804   2.912
11830SOL     OW37386   8.805   3.205   5.445
11830SOL    HW137387   8.846   3.184   5.529
11830SOL    HW237388   8.743   3.275   5.466
11831SOL     OW37389  13.699   6.456   1.850
11831SOL    HW137390  13.744   6.465   1.934
11831SOL    HW237391  13.711   6.542   1.808
11832SOL     OW37392   6.787   5.560   8.119
11832SOL    HW137393   6.850   5.496   8.086
11832SOL    HW237394   6.802   5.639   8.066
11833SOL     OW37395   8.976  13.814  10.133
11833SOL    HW137396   8.976  13.901  10.093
11833SOL    HW237397   8.945  13.756  10.063
11834SOL     OW37398   7.874   3.736  14.541
11834SOL    HW137399   7.797   3.775  14.501
11834SOL    HW237400   7.861   3.641  14.533
11835SOL     OW37401  10.599   3.129  12.652
11835SOL    HW137402  10.575   3.076  12.728
11835SOL    HW237403  10.516   3.161  12.617
11836SOL     OW37404   1.326  10.137  14.422
11836SOL    HW137405   1.365  10.203  14.364
11836SOL    HW237406   1.248  10.106  14.375
11837SOL     OW37407   4.112   8.068   2.813
11837SOL    HW137408   4.055   8.037   2.743
11837SOL    HW237409   4.199   8.072   2.773
11838SOL     OW37410   7.543   7.308   2.295
11838SOL    HW137411   7.555   7.389   2.246
11838SOL    HW237412   7.625   7.260   2.282
11839SOL     OW37413   7.778  13.683  13.557
11839SOL    HW137414   7.686  13.658  13.569
11839SOL    HW237415   7.781  13.775  13.583
11840SOL     OW37416  13.094  14.126  14.524
11840SOL    HW137417  13.150  14.178  14.581
11840SOL    HW237418  13.093  14.039  14.565
11841SOL     OW37419  13.454   0.845  12.979
11841SOL    HW137420  13.533   0.811  13.021
11841SOL    HW237421  13.467   0.940  12.976
11842SOL     OW37422   5.053   2.464   5.129
11842SOL    HW137423   4.990   2.396   5.151
11842SOL    HW237424   5.124   2.418   5.084
11843SOL     OW37425  12.043   9.839   7.988
11843SOL    HW137426  12.110   9.907   7.981
11843SOL    HW237427  11.964   9.879   7.952
11844SOL     OW37428  11.808   0.535   8.613
11844SOL    HW137429  11.723   0.540   8.656
11844SOL    HW237430  11.860   0.476   8.668
11845SOL     OW37431   2.496   7.538   9.478
11845SOL    HW137432   2.458   7.450   9.484
11845SOL    HW237433   2.585   7.529   9.511
11846SOL     OW37434   6.253   7.153   0.297
11846SOL    HW137435   6.166   7.117   0.310
11846SOL    HW237436   6.301   7.085   0.250
11847SOL     OW37437   5.947   4.351   2.656
11847SOL    HW137438   6.013   4.283   2.640
11847SOL    HW237439   5.984   4.405   2.725
11848SOL     OW37440  14.337   3.286   9.569
11848SOL    HW137441  14.389   3.355   9.609
11848SOL    HW237442  14.346   3.211   9.629
11849SOL     OW37443   8.093   4.099   5.891
11849SOL    HW137444   8.176   4.134   5.858
11849SOL    HW237445   8.029   4.126   5.825
11850SOL     OW37446   5.729  11.553  12.524
11850SOL    HW137447   5.671  11.605  12.468
11850SOL    HW237448   5.748  11.475  12.472
11851SOL     OW37449  13.606  12.293  13.205
11851SOL    HW137450  13.606  12.322  13.296
11851SOL    HW237451  13.674  12.226  13.201
11852SOL     OW37452   3.048   6.332   4.827
11852SOL    HW137453   2.964   6.291   4.806
11852SOL    HW237454   3.088   6.273   4.891
11853SOL     OW37455   6.172   6.055  11.404
11853SOL    HW137456   6.222   6.135  11.392
11853SOL    HW237457   6.202   5.997  11.333
11854SOL     OW37458   1.341   4.626   4.469
11854SOL    HW137459   1.379   4.633   4.557
11854SOL    HW237460   1.247   4.638   4.483
11855SOL     OW37461  10.233   5.387   3.305
11855SOL    HW137462  10.309   5.405   3.250
11855SOL    HW237463  10.200   5.474   3.330
11856SOL     OW37464  11.344   8.437  12.963
11856SOL    HW137465  11.370   8.346  12.975
11856SOL    HW237466  11.249   8.437  12.976
11857SOL     OW37467   6.285  11.292   1.603
11857SOL    HW137468   6.372  11.330   1.594
11857SOL    HW237469   6.288  11.245   1.686
11858SOL     OW37470  11.478   4.351   0.400
11858SOL    HW137471  11.389   4.315   0.407
11858SOL    HW237472  11.527   4.306   0.468
11859SOL     OW37473   3.527   9.729  13.050
11859SOL    HW137474   3.538   9.698  12.960
11859SOL    HW237475   3.518   9.649  13.102
11860SOL     OW37476  14.287  10.646  10.252
11860SOL    HW137477  14.374  10.683  10.236
11860SOL    HW237478  14.303  10.554  10.270
11861SOL     OW37479  13.717   5.350   9.682
11861SOL    HW137480  13.633   5.314   9.653
11861SOL    HW237481  13.716   5.340   9.777
11862SOL     OW37482   1.480  13.927  14.785
11862SOL    HW137483   1.463  14.011  14.827
11862SOL    HW237484   1.439  13.934  14.699
11863SOL     OW37485   1.487   8.198   9.123
11863SOL    HW137486   1.505   8.190   9.216
11863SOL    HW237487   1.543   8.270   9.094
11864SOL     OW37488   6.860   4.929  10.782
11864SOL    HW137489   6.773   4.897  10.806
11864SOL    HW237490   6.871   5.010  10.830
11865SOL     OW37491   5.160   3.296   8.624
11865SOL    HW137492   5.219   3.327   8.555
11865SOL    HW237493   5.137   3.374   8.674
11866SOL     OW37494  11.205   7.230  13.061
11866SOL    HW137495  11.111   7.217  13.050
11866SOL    HW237496  11.238   7.142  13.082
11867SOL     OW37497  10.379  11.017   7.381
11867SOL    HW137498  10.326  10.992   7.305
11867SOL    HW237499  10.405  10.934   7.421
11868SOL     OW37500   7.137   6.746   0.325
11868SOL    HW137501   7.214   6.701   0.290
11868SOL    HW237502   7.063   6.708   0.278
11869SOL     OW37503   6.435  11.258  12.784
11869SOL    HW137504   6.468  11.347  12.798
11869SOL    HW237505   6.357  11.270  12.729
11870SOL     OW37506   7.019   1.186  13.261
11870SOL    HW137507   6.997   1.218  13.174
11870SOL    HW237508   7.010   1.091  13.255
11871SOL     OW37509   3.928   8.776   7.527
11871SOL    HW137510   3.914   8.706   7.463
11871SOL    HW237511   3.861   8.760   7.594
11872SOL     OW37512  13.820   6.907  11.207
11872SOL    HW137513  13.806   6.933  11.116
11872SOL    HW237514  13.907   6.942  11.229
11873SOL     OW37515   6.632   0.172   3.575
11873SOL    HW137516   6.702   0.110   3.597
11873SOL    HW237517   6.608   0.212   3.659
11874SOL     OW37518   6.905   8.802   5.648
11874SOL    HW137519   6.992   8.802   5.687
11874SOL    HW237520   6.914   8.858   5.571
11875SOL     OW37521   9.836  11.641   8.351
11875SOL    HW137522   9.764  11.703   8.342
11875SOL    HW237523   9.834  11.616   8.444
11876SOL     OW37524   4.630   7.561   5.517
11876SOL    HW137525   4.636   7.647   5.558
11876SOL    HW237526   4.681   7.568   5.437
11877SOL     OW37527   1.526  11.837   3.872
11877SOL    HW137528   1.523  11.813   3.965
11877SOL    HW237529   1.468  11.774   3.829
11878SOL     OW37530   5.260   2.275   2.458
11878SOL    HW137531   5.190   2.219   2.424
11878SOL    HW237532   5.215   2.345   2.505
11879SOL     OW37533   0.827   5.773  13.310
11879SOL    HW137534   0.914   5.760  13.347
11879SOL    HW237535   0.843   5.803  13.220
11880SOL     OW37536   8.988  13.262   7.255
11880SOL    HW137537   9.076  13.224   7.259
11880SOL    HW237538   8.976  13.288   7.164
11881SOL     OW37539   9.272   5.222   7.053
11881SOL    HW137540   9.304   5.191   7.137
11881SOL    HW237541   9.195   5.274   7.075
11882SOL     OW37542   4.420   4.462   8.409
11882SOL    HW137543   4.452   4.435   8.323
11882SOL    HW237544   4.329   4.489   8.393
11883SOL     OW37545   9.583   0.914  13.228
11883SOL    HW137546   9.541   0.834  13.260
11883SOL    HW237547   9.560   0.918  13.135
11884SOL     OW37548   4.814   7.341  13.186
11884SOL    HW137549   4.876   7.269  13.191
11884SOL    HW237550   4.861   7.411  13.141
11885SOL     OW37551  13.193   2.924  10.886
11885SOL    HW137552  13.212   2.999  10.830
11885SOL    HW237553  13.219   2.951  10.974
11886SOL     OW37554  13.947   6.451  10.116
11886SOL    HW137555  14.041   6.441  10.102
11886SOL    HW237556  13.940   6.485  10.206
11887SOL     OW37557  12.906  13.859  10.528
11887SOL    HW137558  12.836  13.871  10.464
11887SOL    HW237559  12.987  13.867  10.478
11888SOL     OW37560  14.589   5.907   9.572
11888SOL    HW137561  14.646   5.982   9.591
11888SOL    HW237562  14.632   5.860   9.501
11889SOL     OW37563   2.897   6.463   6.685
11889SOL    HW137564   2.855   6.390   6.732
11889SOL    HW237565   2.856   6.463   6.599
11890SOL     OW37566  14.812   7.593   2.758
11890SOL    HW137567  14.845   7.673   2.717
11890SOL    HW237568   0.011   7.536   2.765
11891SOL     OW37569   6.899   9.567  11.557
11891SOL    HW137570   6.839   9.641  11.546
11891SOL    HW237571   6.985   9.602  11.534
11892SOL     OW37572   8.112   3.261   6.308
11892SOL    HW137573   8.069   3.177   6.292
11892SOL    HW237574   8.118   3.302   6.221
11893SOL     OW37575   3.357   0.181  14.697
11893SOL    HW137576   3.330   0.193  14.606
11893SOL    HW237577   3.308   0.247  14.746
11894SOL     OW37578  13.229   1.198   3.265
11894SOL    HW137579  13.222   1.112   3.224
11894SOL    HW237580  13.214   1.260   3.194
11895SOL     OW37581  14.293   5.307  12.512
11895SOL    HW137582  14.249   5.361  12.577
11895SOL    HW237583  14.243   5.321  12.431
11896SOL     OW37584  10.005   6.408   0.806
11896SOL    HW137585  10.003   6.493   0.761
11896SOL    HW237586  10.074   6.359   0.761
11897SOL     OW37587   2.160   7.139   9.320
11897SOL    HW137588   2.133   7.047   9.321
11897SOL    HW237589   2.085   7.185   9.283
11898SOL     OW37590   6.244   4.049   8.571
11898SOL    HW137591   6.198   3.972   8.536
11898SOL    HW237592   6.300   4.014   8.640
11899SOL     OW37593  10.766   2.640   7.266
11899SOL    HW137594  10.671   2.650   7.277
11899SOL    HW237595  10.787   2.691   7.188
11900SOL     OW37596  11.397  10.007  14.358
11900SOL    HW137597  11.468  10.010  14.293
11900SOL    HW237598  11.432   9.953  14.429
11901SOL     OW37599  12.365   0.637  13.016
11901SOL    HW137600  12.424   0.651  13.090
11901SOL    HW237601  12.311   0.562  13.043
11902SOL     OW37602   7.925   5.594   2.606
11902SOL    HW137603   7.968   5.678   2.623
11902SOL    HW237604   7.986   5.547   2.550
11903SOL     OW37605   8.951   3.178   0.884
11903SOL    HW137606   8.965   3.209   0.973
11903SOL    HW237607   8.918   3.088   0.894
11904SOL     OW37608   9.628  12.683   7.848
11904SOL    HW137609   9.719  12.691   7.819
11904SOL    HW237610   9.598  12.601   7.809
11905SOL     OW37611   4.083   5.855  13.760
11905SOL    HW137612   4.088   5.833  13.667
11905SOL    HW237613   4.173   5.849  13.791
11906SOL     OW37614   6.460   6.341   8.000
11906SOL    HW137615   6.522   6.391   7.948
11906SOL    HW237616   6.402   6.299   7.936
11907SOL     OW37617   6.230  14.646   6.887
11907SOL    HW137618   6.195  14.647   6.976
11907SOL    HW237619   6.162  14.686   6.834
11908SOL     OW37620   0.728   7.362   4.833
11908SOL    HW137621   0.714   7.331   4.743
11908SOL    HW237622   0.649   7.336   4.879
11909SOL     OW37623   6.366   0.632  13.683
11909SOL    HW137624   6.394   0.543  13.703
11909SOL    HW237625   6.307   0.656  13.756
11910SOL     OW37626   2.903   3.689   5.540
11910SOL    HW137627   2.998   3.695   5.533
11910SOL    HW237628   2.878   3.764   5.595
11911SOL     OW37629   0.225  13.611   7.532
11911SOL    HW137630   0.186  13.524   7.527
11911SOL    HW237631   0.201  13.643   7.618
11912SOL     OW37632  14.464   8.138  11.325
11912SOL    HW137633  14.413   8.074  11.275
11912SOL    HW237634  14.535   8.164  11.266
11913SOL     OW37635   2.785   5.029   4.526
11913SOL    HW137636   2.813   4.939   4.514
11913SOL    HW237637   2.739   5.029   4.610
11914SOL     OW37638   3.424   8.024  14.201
11914SOL    HW137639   3.499   8.078  14.178
11914SOL    HW237640   3.419   8.029  14.296
11915SOL     OW37641   5.525  13.509  12.789
11915SOL    HW137642   5.444  13.520  12.739
11915SOL    HW237643   5.507  13.550  12.873
11916SOL     OW37644   2.261   6.218   7.391
11916SOL    HW137645   2.218   6.190   7.310
11916SOL    HW237646   2.279   6.137   7.438
11917SOL     OW37647  12.633   7.537  14.638
11917SOL    HW137648  12.705   7.566  14.582
11917SOL    HW237649  12.588   7.470  14.587
11918SOL     OW37650   8.843  14.046  11.357
11918SOL    HW137651   8.877  14.017  11.442
11918SOL    HW237652   8.909  14.019  11.294
11919SOL     OW37653   9.353   2.165   6.275
11919SOL    HW137654   9.396   2.083   6.299
11919SOL    HW237655   9.340   2.158   6.180
11920SOL     OW37656   6.331  10.582   5.312
11920SOL    HW137657   6.341  10.488   5.295
11920SOL    HW237658   6.244  10.590   5.353
11921SOL     OW37659   3.084  14.828   5.552
11921SOL    HW137660   3.014   0.016   5.552
11921SOL    HW237661   3.132  14.844   5.470
11922SOL     OW37662   0.519   9.959  11.942
11922SOL    HW137663   0.507  10.050  11.916
11922SOL    HW237664   0.475   9.908  11.874
11923SOL     OW37665   6.032   3.618   5.556
11923SOL    HW137666   6.126   3.617   5.574
11923SOL    HW237667   5.995   3.551   5.614
11924SOL     OW37668  12.118   9.816   7.471
11924SOL    HW137669  12.166   9.827   7.389
11924SOL    HW237670  12.031   9.786   7.444
11925SOL     OW37671   1.792  12.813  10.895
11925SOL    HW137672   1.869  12.849  10.851
11925SOL    HW237673   1.827  12.744  10.952
11926SOL     OW37674  10.244   3.542   6.307
11926SOL    HW137675  10.243   3.485   6.384
11926SOL    HW237676  10.175   3.607   6.325
11927SOL     OW37677  11.588   8.114   2.156
11927SOL    HW137678  11.517   8.054   2.181
11927SOL    HW237679  11.644   8.118   2.233
11928SOL     OW37680   9.085   9.548   2.758
11928SOL    HW137681   9.061   9.461   2.790
11928SOL    HW237682   9.137   9.532   2.680
11929SOL     OW37683  12.600   1.291  11.085
11929SOL    HW137684  12.513   1.298  11.123
11929SOL    HW237685  12.604   1.361  11.020
11930SOL     OW37686  10.811  12.669   7.059
11930SOL    HW137687  10.888  12.626   7.097
11930SOL    HW237688  10.750  12.679   7.133
11931SOL     OW37689  11.742  13.714   4.715
11931SOL    HW137690  11.650  13.689   4.710
11931SOL    HW237691  11.743  13.787   4.777
11932SOL     OW37692   0.915   0.453   7.111
11932SOL    HW137693   0.869   0.441   7.028
11932SOL    HW237694   0.916   0.365   7.150
11933SOL     OW37695   5.333   8.569  12.379
11933SOL    HW137696   5.295   8.613  12.303
11933SOL    HW237697   5.398   8.509  12.342
11934SOL     OW37698   5.908   0.065   7.453
11934SOL    HW137699   5.816   0.046   7.472
11934SOL    HW237700   5.906   0.148   7.406
11935SOL     OW37701  14.095  13.509   3.919
11935SOL    HW137702  14.139  13.425   3.927
11935SOL    HW237703  14.086  13.522   3.825
11936SOL     OW37704   3.001   0.444  13.550
11936SOL    HW137705   3.093   0.436  13.523
11936SOL    HW237706   2.991   0.379  13.619
11937SOL     OW37707   4.423   0.516   7.858
11937SOL    HW137708   4.380   0.494   7.775
11937SOL    HW237709   4.414   0.438   7.912
11938SOL     OW37710   8.641   8.144   8.416
11938SOL    HW137711   8.734   8.139   8.390
11938SOL    HW237712   8.622   8.238   8.417
11939SOL     OW37713  12.969   7.812  13.742
11939SOL    HW137714  13.009   7.736  13.784
11939SOL    HW237715  12.886   7.780  13.706
11940SOL     OW37716  12.850  12.336  13.564
11940SOL    HW137717  12.771  12.290  13.592
11940SOL    HW237718  12.917  12.267  13.562
11941SOL     OW37719   5.711  10.212   2.909
11941SOL    HW137720   5.700  10.251   2.996
11941SOL    HW237721   5.634  10.241   2.860
11942SOL     OW37722   1.844   2.120   6.635
11942SOL    HW137723   1.755   2.093   6.657
11942SOL    HW237724   1.900   2.062   6.687
11943SOL     OW37725  14.578   5.559   0.652
11943SOL    HW137726  14.547   5.649   0.663
11943SOL    HW237727  14.548   5.514   0.731
11944SOL     OW37728  10.406   6.194   5.894
11944SOL    HW137729  10.499   6.197   5.918
11944SOL    HW237730  10.388   6.101   5.879
11945SOL     OW37731   1.520   9.616   8.828
11945SOL    HW137732   1.490   9.532   8.861
11945SOL    HW237733   1.475   9.626   8.744
11946SOL     OW37734   0.564   8.294   9.603
11946SOL    HW137735   0.569   8.388   9.586
11946SOL    HW237736   0.484   8.266   9.558
11947SOL     OW37737   5.770   2.144  12.549
11947SOL    HW137738   5.701   2.086  12.583
11947SOL    HW237739   5.795   2.105  12.465
11948SOL     OW37740   8.527  10.259   5.632
11948SOL    HW137741   8.446  10.212   5.614
11948SOL    HW237742   8.586  10.233   5.561
11949SOL     OW37743  14.045   3.371   8.673
11949SOL    HW137744  14.040   3.285   8.631
11949SOL    HW237745  13.989   3.427   8.618
11950SOL     OW37746   2.759   9.687  11.228
11950SOL    HW137747   2.667   9.675  11.250
11950SOL    HW237748   2.777   9.779  11.250
11951SOL     OW37749   1.561   9.318  11.392
11951SOL    HW137750   1.507   9.254  11.346
11951SOL    HW237751   1.596   9.271  11.467
11952SOL     OW37752  12.871  10.618   2.651
11952SOL    HW137753  12.821  10.552   2.603
11952SOL    HW237754  12.804  10.665   2.702
11953SOL     OW37755   1.340   0.338   3.005
11953SOL    HW137756   1.326   0.397   2.931
11953SOL    HW237757   1.418   0.372   3.049
11954SOL     OW37758  14.649   6.670  13.331
11954SOL    HW137759  14.561   6.635  13.314
11954SOL    HW237760  14.705   6.592  13.337
11955SOL     OW37761   9.829  13.557   4.579
11955SOL    HW137762   9.815  13.510   4.661
11955SOL    HW237763   9.822  13.490   4.511
11956SOL     OW37764   0.548   7.222   9.401
11956SOL    HW137765   0.454   7.202   9.406
11956SOL    HW237766   0.557   7.303   9.452
11957SOL     OW37767   7.555   4.921  11.264
11957SOL    HW137768   7.549   4.973  11.184
11957SOL    HW237769   7.621   4.855  11.245
11958SOL     OW37770   2.586   5.680   9.883
11958SOL    HW137771   2.527   5.606   9.870
11958SOL    HW237772   2.626   5.694   9.797
11959SOL     OW37773   2.980  10.038   8.186
11959SOL    HW137774   2.919  10.110   8.201
11959SOL    HW237775   3.046  10.074   8.128
11960SOL     OW37776   6.632   6.066   5.125
11960SOL    HW137777   6.714   6.102   5.089
11960SOL    HW237778   6.635   5.973   5.104
11961SOL     OW37779   9.140   7.696   7.791
11961SOL    HW137780   9.124   7.767   7.729
11961SOL    HW237781   9.094   7.725   7.871
11962SOL     OW37782   5.925   9.689   7.703
11962SOL    HW137783   5.958   9.764   7.654
11962SOL    HW237784   5.835   9.714   7.727
11963SOL     OW37785   5.910  14.825   4.117
11963SOL    HW137786   5.831  14.861   4.157
11963SOL    HW237787   5.890  14.733   4.101
11964SOL     OW37788   4.827   6.978   6.790
11964SOL    HW137789   4.745   7.012   6.825
11964SOL    HW237790   4.870   6.939   6.866
11965SOL     OW37791   0.652   6.013  10.317
11965SOL    HW137792   0.615   5.992  10.402
11965SOL    HW237793   0.706   6.091  10.332
11966SOL     OW37794   6.212   4.101   1.019
11966SOL    HW137795   6.251   4.174   0.971
11966SOL    HW237796   6.285   4.064   1.069
11967SOL     OW37797  12.748   6.774  12.858
11967SOL    HW137798  12.665   6.787  12.904
11967SOL    HW237799  12.791   6.703  12.905
11968SOL     OW37800  10.213   4.587   7.067
11968SOL    HW137801  10.258   4.644   7.004
11968SOL    HW237802  10.220   4.499   7.030
11969SOL     OW37803  12.237  14.186   9.211
11969SOL    HW137804  12.174  14.151   9.149
11969SOL    HW237805  12.309  14.219   9.157
11970SOL     OW37806   1.700  11.678  14.373
11970SOL    HW137807   1.617  11.708  14.336
11970SOL    HW237808   1.699  11.583  14.361
11971SOL     OW37809   1.781   1.739  13.333
11971SOL    HW137810   1.809   1.786  13.411
11971SOL    HW237811   1.751   1.654  13.366
11972SOL     OW37812   8.827  12.746   2.745
11972SOL    HW137813   8.844  12.656   2.772
11972SOL    HW237814   8.732  12.755   2.753
11973SOL     OW37815   7.261   5.028  10.214
11973SOL    HW137816   7.251   5.123  10.206
11973SOL    HW237817   7.211   5.006  10.292
11974SOL     OW37818   5.353   1.995   7.557
11974SOL    HW137819   5.370   2.083   7.590
11974SOL    HW237820   5.333   2.008   7.464
11975SOL     OW37821   1.013  11.534   1.462
11975SOL    HW137822   0.966  11.560   1.541
11975SOL    HW237823   1.053  11.615   1.431
11976SOL     OW37824   9.939   7.558   6.173
11976SOL    HW137825   9.968   7.603   6.253
11976SOL    HW237826   9.895   7.479   6.205
11977SOL     OW37827   1.018   0.475  10.625
11977SOL    HW137828   0.980   0.387  10.624
11977SOL    HW237829   1.107   0.463  10.658
11978SOL     OW37830   7.721   1.629  14.728
11978SOL    HW137831   7.740   1.719  14.755
11978SOL    HW237832   7.672   1.592  14.801
11979SOL     OW37833   3.673   0.284  12.448
11979SOL    HW137834   3.585   0.253  12.426
11979SOL    HW237835   3.665   0.380  12.450
11980SOL     OW37836   6.707   2.966   8.535
11980SOL    HW137837   6.729   2.875   8.513
11980SOL    HW237838   6.612   2.967   8.543
11981SOL     OW37839   8.948  10.108  12.248
11981SOL    HW137840   8.929  10.041  12.182
11981SOL    HW237841   8.929  10.066  12.331
11982SOL     OW37842   3.763  14.135   5.036
11982SOL    HW137843   3.734  14.087   5.113
11982SOL    HW237844   3.683  14.169   4.996
11983SOL     OW37845   8.872  10.177  11.897
11983SOL    HW137846   8.833  10.129  11.970
11983SOL    HW237847   8.965  10.183  11.919
11984SOL     OW37848   5.651  10.997   6.216
11984SOL    HW137849   5.574  10.952   6.182
11984SOL    HW237850   5.623  11.032   6.301
11985SOL     OW37851  13.530  14.033  14.870
11985SOL    HW137852  13.545  14.049   0.086
11985SOL    HW237853  13.554  14.115  14.828
11986SOL     OW37854   9.278   1.466   4.204
11986SOL    HW137855   9.348   1.410   4.172
11986SOL    HW237856   9.306   1.490   4.293
11987SOL     OW37857   1.242   9.087  11.905
11987SOL    HW137858   1.246   9.046  11.992
11987SOL    HW237859   1.286   9.171  11.917
11988SOL     OW37860   0.714   2.713  12.801
11988SOL    HW137861   0.745   2.673  12.720
11988SOL    HW237862   0.721   2.807  12.785
11989SOL     OW37863  13.920  13.119  10.507
11989SOL    HW137864  13.858  13.167  10.451
11989SOL    HW237865  13.955  13.050  10.450
11990SOL     OW37866  11.485   1.953   2.097
11990SOL    HW137867  11.530   1.931   2.179
11990SOL    HW237868  11.541   2.018   2.055
11991SOL     OW37869   6.011   3.189   5.847
11991SOL    HW137870   6.030   3.151   5.933
11991SOL    HW237871   5.930   3.146   5.819
11992SOL     OW37872   8.080   6.530   5.965
11992SOL    HW137873   8.069   6.506   6.057
11992SOL    HW237874   8.142   6.465   5.932
11993SOL     OW37875   6.276   0.872  12.913
11993SOL    HW137876   6.264   0.809  12.842
11993SOL    HW237877   6.193   0.921  12.916
11994SOL     OW37878  13.943   5.560   5.504
11994SOL    HW137879  13.975   5.496   5.439
11994SOL    HW237880  14.019   5.577   5.559
11995SOL     OW37881  11.960  14.283  11.904
11995SOL    HW137882  11.904  14.359  11.922
11995SOL    HW237883  12.049  14.317  11.912
11996SOL     OW37884   8.240   0.936   4.089
11996SOL    HW137885   8.248   0.996   4.016
11996SOL    HW237886   8.300   0.864   4.068
11997SOL     OW37887  14.246  10.362   7.815
11997SOL    HW137888  14.219  10.382   7.905
11997SOL    HW237889  14.302  10.435   7.790
11998SOL     OW37890   5.637   8.065   6.610
11998SOL    HW137891   5.657   7.973   6.592
11998SOL    HW237892   5.546   8.076   6.585
11999SOL     OW37893   8.743   8.541   7.871
11999SOL    HW137894   8.683   8.598   7.824
11999SOL    HW237895   8.694   8.459   7.883
12000SOL     OW37896  11.736   3.823   3.651
12000SOL    HW137897  11.712   3.899   3.704
12000SOL    HW237898  11.653   3.777   3.637
12001SOL     OW37899   4.335   6.488   2.171
12001SOL    HW137900   4.429   6.497   2.181
12001SOL    HW237901   4.312   6.412   2.225
12002SOL     OW37902   1.164  11.277   2.564
12002SOL    HW137903   1.258  11.285   2.550
12002SOL    HW237904   1.137  11.362   2.597
12003SOL     OW37905  14.043   1.738   3.375
12003SOL    HW137906  13.962   1.718   3.329
12003SOL    HW237907  14.043   1.833   3.384
12004SOL     OW37908   6.880   8.264   4.424
12004SOL    HW137909   6.933   8.219   4.488
12004SOL    HW237910   6.820   8.197   4.391
12005SOL     OW37911   4.335  13.145   2.068
12005SOL    HW137912   4.242  13.126   2.055
12005SOL    HW237913   4.372  13.145   1.980
12006SOL     OW37914   8.691   4.580   0.190
12006SOL    HW137915   8.747   4.533   0.252
12006SOL    HW237916   8.670   4.515   0.123
12007SOL     OW37917   2.326  12.163   3.901
12007SOL    HW137918   2.322  12.172   3.996
12007SOL    HW237919   2.397  12.221   3.874
12008SOL     OW37920   7.117   2.405  14.088
12008SOL    HW137921   7.063   2.418  14.010
12008SOL    HW237922   7.097   2.480  14.144
12009SOL     OW37923  12.224   5.389  14.486
12009SOL    HW137924  12.130   5.377  14.478
12009SOL    HW237925  12.239   5.396  14.581
12010SOL     OW37926   3.744  12.495   8.463
12010SOL    HW137927   3.671  12.454   8.418
12010SOL    HW237928   3.774  12.429   8.526
12011SOL     OW37929   4.413   4.670  12.748
12011SOL    HW137930   4.499   4.663  12.789
12011SOL    HW237931   4.373   4.745  12.791
12012SOL     OW37932  10.781   5.592   7.188
12012SOL    HW137933  10.875   5.604   7.199
12012SOL    HW237934  10.744   5.679   7.200
12013SOL     OW37935   5.557  13.454   8.339
12013SOL    HW137936   5.624  13.511   8.377
12013SOL    HW237937   5.476  13.506   8.343
12014SOL     OW37938   6.293  12.872   5.518
12014SOL    HW137939   6.335  12.936   5.575
12014SOL    HW237940   6.350  12.795   5.523
12015SOL     OW37941  10.304   8.653   4.356
12015SOL    HW137942  10.353   8.733   4.337
12015SOL    HW237943  10.293   8.653   4.451
12016SOL     OW37944   7.320   2.355  11.232
12016SOL    HW137945   7.342   2.445  11.206
12016SOL    HW237946   7.401   2.321  11.269
12017SOL     OW37947  14.738   2.363  14.665
12017SOL    HW137948  14.696   2.407  14.591
12017SOL    HW237949  14.821   2.331  14.629
12018SOL     OW37950  10.466   2.475   6.622
12018SOL    HW137951  10.397   2.534   6.590
12018SOL    HW237952  10.426   2.428   6.695
12019SOL     OW37953   8.115  12.807  12.882
12019SOL    HW137954   8.069  12.884  12.915
12019SOL    HW237955   8.174  12.842  12.815
12020SOL     OW37956   9.679  11.755   9.210
12020SOL    HW137957   9.670  11.793   9.122
12020SOL    HW237958   9.667  11.829   9.269
12021SOL     OW37959   0.959   3.111   3.702
12021SOL    HW137960   0.933   3.202   3.717
12021SOL    HW237961   0.926   3.064   3.779
12022SOL     OW37962   6.153   3.604   6.911
12022SOL    HW137963   6.128   3.595   6.819
12022SOL    HW237964   6.223   3.670   6.911
12023SOL     OW37965   3.870   5.111   7.663
12023SOL    HW137966   3.849   5.018   7.674
12023SOL    HW237967   3.947   5.112   7.606
12024SOL     OW37968   4.640  11.809   0.382
12024SOL    HW137969   4.629  11.821   0.287
12024SOL    HW237970   4.662  11.895   0.415
12025SOL     OW37971   3.148  10.134  13.962
12025SOL    HW137972   3.158  10.040  13.948
12025SOL    HW237973   3.071  10.158  13.911
12026SOL     OW37974   2.580  10.123  12.745
12026SOL    HW137975   2.653  10.176  12.714
12026SOL    HW237976   2.552  10.073  12.668
12027SOL     OW37977   4.448   5.719  12.994
12027SOL    HW137978   4.482   5.793  13.044
12027SOL    HW237979   4.479   5.642  13.041
12028SOL     OW37980  11.048   4.629  14.128
12028SOL    HW137981  10.955   4.614  14.116
12028SOL    HW237982  11.077   4.556  14.184
12029SOL     OW37983   1.558   4.670   4.271
12029SOL    HW137984   1.510   4.717   4.204
12029SOL    HW237985   1.495   4.657   4.342
12030SOL     OW37986   1.521   8.861  12.001
12030SOL    HW137987   1.598   8.858  11.945
12030SOL    HW237988   1.506   8.770  12.027
12031SOL     OW37989   9.962   5.068   0.594
12031SOL    HW137990  10.049   5.069   0.633
12031SOL    HW237991   9.976   5.099   0.504
12032SOL     OW37992   7.987  11.441   7.205
12032SOL    HW137993   8.029  11.442   7.119
12032SOL    HW237994   7.938  11.360   7.207
12033SOL     OW37995   8.786   5.998  13.585
12033SOL    HW137996   8.757   5.973  13.673
12033SOL    HW237997   8.761   5.924  13.529
12034SOL     OW37998   4.280   5.591  13.553
12034SOL    HW137999   4.280   5.508  13.506
12034SOL    HW238000   4.218   5.578  13.625
12035SOL     OW38001   9.400   9.089   9.692
12035SOL    HW138002   9.405   9.007   9.642
12035SOL    HW238003   9.340   9.070   9.764
12036SOL     OW38004   8.824  11.975   0.672
12036SOL    HW138005   8.883  11.901   0.685
12036SOL    HW238006   8.758  11.942   0.611
12037SOL     OW38007   1.113  14.162  11.124
12037SOL    HW138008   1.192  14.203  11.158
12037SOL    HW238009   1.132  14.145  11.032
12038SOL     OW38010   2.677   9.106   2.376
12038SOL    HW138011   2.726   9.141   2.301
12038SOL    HW238012   2.598   9.068   2.337
12039SOL     OW38013   6.044   2.380   9.980
12039SOL    HW138014   6.126   2.369  10.027
12039SOL    HW238015   6.030   2.296   9.936
12040SOL     OW38016   4.704   0.385   0.651
12040SOL    HW138017   4.714   0.305   0.600
12040SOL    HW238018   4.660   0.357   0.731
12041SOL     OW38019   1.924   5.374   1.837
12041SOL    HW138020   1.863   5.380   1.763
12041SOL    HW238021   2.001   5.330   1.801
12042SOL     OW38022   4.579  13.934  11.286
12042SOL    HW138023   4.551  14.025  11.278
12042SOL    HW238024   4.498  13.883  11.281
12043SOL     OW38025   6.868   1.028  11.737
12043SOL    HW138026   6.897   0.938  11.747
12043SOL    HW238027   6.887   1.049  11.645
12044SOL     OW38028  12.302  12.856   6.219
12044SOL    HW138029  12.303  12.767   6.185
12044SOL    HW238030  12.210  12.881   6.219
12045SOL     OW38031  10.815   7.456   8.523
12045SOL    HW138032  10.741   7.500   8.565
12045SOL    HW238033  10.782   7.369   8.500
12046SOL     OW38034  11.542   8.654   4.855
12046SOL    HW138035  11.526   8.619   4.942
12046SOL    HW238036  11.455   8.677   4.822
12047SOL     OW38037   8.361   8.031   3.431
12047SOL    HW138038   8.418   8.103   3.407
12047SOL    HW238039   8.282   8.043   3.378
12048SOL     OW38040   1.422  14.338   6.776
12048SOL    HW138041   1.457  14.265   6.828
12048SOL    HW238042   1.341  14.362   6.820
12049SOL     OW38043  13.388  14.495  11.455
12049SOL    HW138044  13.343  14.513  11.372
12049SOL    HW238045  13.443  14.572  11.469
12050SOL     OW38046   8.873   7.416   0.699
12050SOL    HW138047   8.912   7.496   0.663
12050SOL    HW238048   8.871   7.432   0.794
12051SOL     OW38049  10.508   0.448  10.620
12051SOL    HW138050  10.418   0.472  10.638
12051SOL    HW238051  10.556   0.473  10.700
12052SOL     OW38052   0.213   2.561  11.417
12052SOL    HW138053   0.286   2.504  11.438
12052SOL    HW238054   0.142   2.502  11.393
12053SOL     OW38055  10.686  14.787   3.305
12053SOL    HW138056  10.635  14.864   3.330
12053SOL    HW238057  10.637  14.748   3.232
12054SOL     OW38058   3.845   5.356  10.913
12054SOL    HW138059   3.775   5.363  10.978
12054SOL    HW238060   3.867   5.263  10.911
12055SOL     OW38061  10.964   0.490   0.228
12055SOL    HW138062  10.908   0.534   0.292
12055SOL    HW238063  11.009   0.422   0.277
12056SOL     OW38064   5.838   1.407  10.762
12056SOL    HW138065   5.878   1.459  10.831
12056SOL    HW238066   5.903   1.338  10.744
12057SOL     OW38067  14.541   4.767  13.658
12057SOL    HW138068  14.560   4.733  13.571
12057SOL    HW238069  14.448   4.745  13.672
12058SOL     OW38070   8.859   2.587   5.610
12058SOL    HW138071   8.862   2.609   5.517
12058SOL    HW238072   8.771   2.552   5.624
12059SOL     OW38073  11.501  13.778  14.204
12059SOL    HW138074  11.522  13.861  14.161
12059SOL    HW238075  11.573  13.720  14.180
12060SOL     OW38076  10.930   6.940   5.159
12060SOL    HW138077  10.960   6.874   5.221
12060SOL    HW238078  11.006   6.998   5.147
12061SOL     OW38079  11.717  14.084  12.660
12061SOL    HW138080  11.722  14.029  12.581
12061SOL    HW238081  11.806  14.084  12.695
12062SOL     OW38082   7.730   5.954  11.980
12062SOL    HW138083   7.768   5.966  12.067
12062SOL    HW238084   7.662   6.020  11.974
12063SOL     OW38085   8.871   4.729   8.442
12063SOL    HW138086   8.834   4.802   8.491
12063SOL    HW238087   8.854   4.750   8.350
12064SOL     OW38088   3.997  14.439   7.894
12064SOL    HW138089   3.979  14.414   7.803
12064SOL    HW238090   3.923  14.494   7.919
12065SOL     OW38091   4.821   6.183   6.528
12065SOL    HW138092   4.768   6.124   6.582
12065SOL    HW238093   4.908   6.180   6.568
12066SOL     OW38094   3.003   1.716  12.804
12066SOL    HW138095   3.059   1.705  12.881
12066SOL    HW238096   3.062   1.705  12.730
12067SOL     OW38097   4.028   5.336   2.627
12067SOL    HW138098   3.987   5.249   2.620
12067SOL    HW238099   4.070   5.350   2.542
12068SOL     OW38100   9.505  14.325  13.769
12068SOL    HW138101   9.431  14.385  13.759
12068SOL    HW238102   9.519  14.318  13.863
12069SOL     OW38103   2.263  14.511  11.412
12069SOL    HW138104   2.202  14.445  11.444
12069SOL    HW238105   2.248  14.516  11.318
12070SOL     OW38106  12.476   9.796   1.718
12070SOL    HW138107  12.565   9.782   1.686
12070SOL    HW238108  12.456   9.887   1.695
12071SOL     OW38109   6.728   7.832   3.131
12071SOL    HW138110   6.760   7.889   3.061
12071SOL    HW238111   6.711   7.748   3.088
12072SOL     OW38112   6.751   0.474   7.719
12072SOL    HW138113   6.658   0.499   7.723
12072SOL    HW238114   6.764   0.449   7.628
12073SOL     OW38115   8.406   2.328   6.910
12073SOL    HW138116   8.437   2.238   6.924
12073SOL    HW238117   8.443   2.352   6.825
12074SOL     OW38118   6.028   0.392   0.022
12074SOL    HW138119   5.980   0.322   0.066
12074SOL    HW238120   5.961   0.446  14.857
12075SOL     OW38121   4.209   2.914  10.754
12075SOL    HW138122   4.152   2.843  10.784
12075SOL    HW238123   4.298   2.882  10.772
12076SOL     OW38124  14.239   8.145   5.702
12076SOL    HW138125  14.285   8.194   5.771
12076SOL    HW238126  14.146   8.165   5.717
12077SOL     OW38127   0.845  12.163   0.199
12077SOL    HW138128   0.937  12.172   0.225
12077SOL    HW238129   0.842  12.080   0.151
12078SOL     OW38130   1.369  13.873   2.308
12078SOL    HW138131   1.301  13.940   2.313
12078SOL    HW238132   1.450  13.923   2.296
12079SOL     OW38133  11.900   1.617  11.552
12079SOL    HW138134  11.818   1.665  11.561
12079SOL    HW238135  11.962   1.663  11.609
12080SOL     OW38136  10.712  11.567   9.193
12080SOL    HW138137  10.639  11.553   9.253
12080SOL    HW238138  10.702  11.657   9.163
12081SOL     OW38139   6.977  14.082  13.000
12081SOL    HW138140   6.968  14.012  13.065
12081SOL    HW238141   6.928  14.050  12.924
12082SOL     OW38142  14.813  13.814  10.119
12082SOL    HW138143  14.864  13.893  10.100
12082SOL    HW238144  14.875  13.755  10.162
12083SOL     OW38145  11.056  12.427   3.205
12083SOL    HW138146  11.130  12.385   3.160
12083SOL    HW238147  10.992  12.444   3.136
12084SOL     OW38148  11.318   8.280   2.663
12084SOL    HW138149  11.246   8.333   2.697
12084SOL    HW238150  11.286   8.190   2.667
12085SOL     OW38151  10.660  10.650   3.762
12085SOL    HW138152  10.597  10.688   3.823
12085SOL    HW238153  10.730  10.715   3.755
12086SOL     OW38154   7.505   6.613  11.980
12086SOL    HW138155   7.545   6.556  12.045
12086SOL    HW238156   7.521   6.570  11.896
12087SOL     OW38157  13.942   4.831   6.695
12087SOL    HW138158  13.986   4.746   6.692
12087SOL    HW238159  14.008   4.892   6.729
12088SOL     OW38160   0.792   8.147   0.233
12088SOL    HW138161   0.874   8.100   0.223
12088SOL    HW238162   0.816   8.226   0.282
12089SOL     OW38163  11.085   2.720   9.187
12089SOL    HW138164  11.009   2.728   9.246
12089SOL    HW238165  11.107   2.810   9.164
12090SOL     OW38166   0.915   0.190   8.100
12090SOL    HW138167   0.890   0.205   8.009
12090SOL    HW238168   0.860   0.250   8.150
12091SOL     OW38169   3.170   6.195  13.398
12091SOL    HW138170   3.139   6.121  13.346
12091SOL    HW238171   3.090   6.236  13.430
12092SOL     OW38172  12.081   5.776  13.568
12092SOL    HW138173  12.117   5.836  13.634
12092SOL    HW238174  12.021   5.720  13.616
12093SOL     OW38175   3.043   8.445   4.635
12093SOL    HW138176   2.996   8.521   4.671
12093SOL    HW238177   3.075   8.474   4.550
12094SOL     OW38178  13.948  14.238   9.140
12094SOL    HW138179  13.899  14.177   9.194
12094SOL    HW238180  13.935  14.207   9.050
12095SOL     OW38181  11.613  12.921  14.513
12095SOL    HW138182  11.672  12.847  14.525
12095SOL    HW238183  11.525  12.883  14.517
12096SOL     OW38184  11.651   6.093   1.593
12096SOL    HW138185  11.566   6.080   1.634
12096SOL    HW238186  11.651   6.185   1.566
12097SOL     OW38187   6.231   1.258   0.260
12097SOL    HW138188   6.187   1.322   0.204
12097SOL    HW238189   6.237   1.179   0.206
12098SOL     OW38190   6.181   3.635  11.799
12098SOL    HW138191   6.233   3.616  11.877
12098SOL    HW238192   6.241   3.679  11.740
12099SOL     OW38193   7.592   6.803   1.372
12099SOL    HW138194   7.634   6.883   1.405
12099SOL    HW238195   7.662   6.738   1.372
12100SOL     OW38196  13.584   2.556   1.400
12100SOL    HW138197  13.624   2.535   1.316
12100SOL    HW238198  13.614   2.645   1.418
12101SOL     OW38199   5.569   6.048   5.721
12101SOL    HW138200   5.561   6.079   5.811
12101SOL    HW238201   5.661   6.062   5.698
12102SOL     OW38202   0.183   1.742   7.006
12102SOL    HW138203   0.233   1.798   6.947
12102SOL    HW238204   0.210   1.653   6.982
12103SOL     OW38205   3.839   8.687  13.623
12103SOL    HW138206   3.856   8.780  13.611
12103SOL    HW238207   3.814   8.678  13.715
12104SOL     OW38208  13.956   8.607   0.451
12104SOL    HW138209  13.909   8.686   0.476
12104SOL    HW238210  13.984   8.567   0.534
12105SOL     OW38211  13.143   3.803   9.603
12105SOL    HW138212  13.217   3.794   9.663
12105SOL    HW238213  13.069   3.765   9.650
12106SOL     OW38214   8.510   9.545   8.126
12106SOL    HW138215   8.576   9.587   8.182
12106SOL    HW238216   8.435   9.603   8.131
12107SOL     OW38217  10.531   1.784   2.419
12107SOL    HW138218  10.481   1.703   2.404
12107SOL    HW238219  10.613   1.754   2.457
12108SOL     OW38220  14.371   5.299   3.681
12108SOL    HW138221  14.284   5.326   3.710
12108SOL    HW238222  14.397   5.231   3.743
12109SOL     OW38223   8.950   9.887   3.881
12109SOL    HW138224   8.946   9.794   3.858
12109SOL    HW238225   9.040   9.913   3.864
12110SOL     OW38226   5.484   3.764   7.479
12110SOL    HW138227   5.413   3.802   7.530
12110SOL    HW238228   5.442   3.696   7.426
12111SOL     OW38229   2.599   5.009   9.942
12111SOL    HW138230   2.548   5.069   9.997
12111SOL    HW238231   2.672   5.063   9.911
12112SOL     OW38232   0.909   5.495   9.091
12112SOL    HW138233   0.882   5.458   9.006
12112SOL    HW238234   0.887   5.427   9.155
12113SOL     OW38235  13.180  12.083   5.019
12113SOL    HW138236  13.151  12.008   4.967
12113SOL    HW238237  13.194  12.047   5.107
12114SOL     OW38238   8.306   7.006   0.251
12114SOL    HW138239   8.286   6.969   0.165
12114SOL    HW238240   8.340   6.932   0.302
12115SOL     OW38241   0.238   9.076   4.185
12115SOL    HW138242   0.180   9.032   4.123
12115SOL    HW238243   0.281   9.005   4.232
12116SOL     OW38244  12.470   9.402  10.466
12116SOL    HW138245  12.480   9.494  10.492
12116SOL    HW238246  12.444   9.357  10.546
12117SOL     OW38247   3.478  12.234  12.619
12117SOL    HW138248   3.415  12.238  12.692
12117SOL    HW238249   3.485  12.325  12.590
12118SOL     OW38250   9.987  13.569   2.228
12118SOL    HW138251  10.026  13.620   2.157
12118SOL    HW238252  10.053  13.503   2.249
12119SOL     OW38253   9.489   5.013  12.832
12119SOL    HW138254   9.460   5.094  12.874
12119SOL    HW238255   9.580   5.003  12.859
12120SOL     OW38256   2.388   4.784   7.214
12120SOL    HW138257   2.416   4.853   7.153
12120SOL    HW238258   2.447   4.710   7.194
12121SOL     OW38259   6.539   2.758  11.500
12121SOL    HW138260   6.629   2.729  11.488
12121SOL    HW238261   6.505   2.704  11.570
12122SOL     OW38262  13.672   0.154   2.754
12122SOL    HW138263  13.678   0.075   2.700
12122SOL    HW238264  13.578   0.163   2.772
12123SOL     OW38265  14.790   5.147   1.041
12123SOL    HW138266  14.799   5.231   0.996
12123SOL    HW238267  14.810   5.166   1.132
12124SOL     OW38268   2.414  13.975   5.450
12124SOL    HW138269   2.395  14.016   5.534
12124SOL    HW238270   2.342  13.913   5.437
12125SOL     OW38271  11.827   8.555   0.956
12125SOL    HW138272  11.771   8.481   0.977
12125SOL    HW238273  11.841   8.549   0.862
12126SOL     OW38274   2.550   3.648  11.815
12126SOL    HW138275   2.495   3.622  11.889
12126SOL    HW238276   2.530   3.585  11.746
12127SOL     OW38277  13.945   0.418  14.758
12127SOL    HW138278  13.958   0.500  14.805
12127SOL    HW238279  13.850   0.403  14.760
12128SOL     OW38280   1.131   2.982   6.268
12128SOL    HW138281   1.137   2.947   6.179
12128SOL    HW238282   1.038   3.000   6.280
12129SOL     OW38283   3.604  12.099  13.209
12129SOL    HW138284   3.657  12.153  13.151
12129SOL    HW238285   3.544  12.160  13.251
12130SOL     OW38286   1.939   8.745  13.345
12130SOL    HW138287   1.901   8.671  13.392
12130SOL    HW238288   1.973   8.708  13.264
12131SOL     OW38289   2.642  10.744  13.593
12131SOL    HW138290   2.550  10.761  13.615
12131SOL    HW238291   2.641  10.724  13.499
12132SOL     OW38292   5.298  10.218  12.400
12132SOL    HW138293   5.203  10.208  12.391
12132SOL    HW238294   5.325  10.145  12.455
12133SOL     OW38295   1.411   3.922   6.606
12133SOL    HW138296   1.362   4.001   6.586
12133SOL    HW238297   1.347   3.863   6.645
12134SOL     OW38298  13.547   1.059   7.961
12134SOL    HW138299  13.536   0.989   8.026
12134SOL    HW238300  13.457   1.080   7.934
12135SOL     OW38301   0.863   9.209  11.899
12135SOL    HW138302   0.920   9.148  11.851
12135SOL    HW238303   0.910   9.226  11.981
12136SOL     OW38304   9.228   6.613  10.231
12136SOL    HW138305   9.247   6.575  10.317
12136SOL    HW238306   9.313   6.613  10.186
12137SOL     OW38307  12.331   5.445   0.162
12137SOL    HW138308  12.243   5.483   0.168
12137SOL    HW238309  12.367   5.480   0.081
12138SOL     OW38310  10.163   7.603   7.877
12138SOL    HW138311  10.178   7.688   7.918
12138SOL    HW238312  10.128   7.625   7.790
12139SOL     OW38313   3.674   0.894   4.059
12139SOL    HW138314   3.746   0.851   4.012
12139SOL    HW238315   3.640   0.958   3.997
12140SOL     OW38316   4.571  13.519  14.630
12140SOL    HW138317   4.574  13.591  14.567
12140SOL    HW238318   4.507  13.548  14.695
12141SOL     OW38319   4.304   3.163  14.366
12141SOL    HW138320   4.376   3.224  14.381
12141SOL    HW238321   4.305   3.147  14.272
12142SOL     OW38322   4.376   8.723  12.654
12142SOL    HW138323   4.284   8.698  12.650
12142SOL    HW238324   4.416   8.681  12.578
12143SOL     OW38325  13.367   5.979  14.385
12143SOL    HW138326  13.350   6.017  14.471
12143SOL    HW238327  13.462   5.966  14.383
12144SOL     OW38328  11.639   8.762   5.775
12144SOL    HW138329  11.573   8.717   5.722
12144SOL    HW238330  11.707   8.696   5.790
12145SOL     OW38331   3.735   1.393   5.379
12145SOL    HW138332   3.677   1.327   5.417
12145SOL    HW238333   3.771   1.351   5.301
12146SOL     OW38334   1.466  13.085  12.521
12146SOL    HW138335   1.482  13.148  12.451
12146SOL    HW238336   1.398  13.126  12.575
12147SOL     OW38337   0.281   5.966  11.266
12147SOL    HW138338   0.277   5.910  11.343
12147SOL    HW238339   0.371   6.000  11.266
12148SOL     OW38340   6.165   8.421  10.585
12148SOL    HW138341   6.164   8.508  10.623
12148SOL    HW238342   6.183   8.436  10.492
12149SOL     OW38343   9.121   5.046  13.494
12149SOL    HW138344   9.216   5.035  13.492
12149SOL    HW238345   9.095   5.013  13.580
12150SOL     OW38346   0.253  13.720   0.606
12150SOL    HW138347   0.185  13.788   0.612
12150SOL    HW238348   0.312  13.739   0.678
12151SOL     OW38349  10.214   6.311  12.059
12151SOL    HW138350  10.217   6.377  12.129
12151SOL    HW238351  10.129   6.325  12.017
12152SOL     OW38352   3.250  13.036   5.500
12152SOL    HW138353   3.248  13.088   5.580
12152SOL    HW238354   3.334  12.989   5.504
12153SOL     OW38355   9.405  10.933   5.596
12153SOL    HW138356   9.330  10.922   5.539
12153SOL    HW238357   9.368  10.941   5.684
12154SOL     OW38358   6.911   1.442  10.461
12154SOL    HW138359   6.884   1.454  10.369
12154SOL    HW238360   6.976   1.373  10.457
12155SOL     OW38361   8.819  10.948  12.202
12155SOL    HW138362   8.838  10.861  12.167
12155SOL    HW238363   8.781  10.996  12.129
12156SOL     OW38364   3.869   7.073  10.928
12156SOL    HW138365   3.884   7.024  11.009
12156SOL    HW238366   3.802   7.138  10.952
12157SOL     OW38367  10.811  13.987   3.530
12157SOL    HW138368  10.789  14.066   3.579
12157SOL    HW238369  10.789  14.008   3.439
12158SOL     OW38370   3.593  11.303   2.176
12158SOL    HW138371   3.533  11.288   2.103
12158SOL    HW238372   3.647  11.225   2.179
12159SOL     OW38373   1.230   7.251  13.944
12159SOL    HW138374   1.187   7.211  14.019
12159SOL    HW238375   1.174   7.325  13.921
12160SOL     OW38376   9.444  11.515   7.602
12160SOL    HW138377   9.460  11.534   7.509
12160SOL    HW238378   9.503  11.573   7.649
12161SOL     OW38379  12.347  12.011  11.301
12161SOL    HW138380  12.301  11.949  11.356
12161SOL    HW238381  12.372  11.961  11.223
12162SOL     OW38382   1.770   1.819   6.829
12162SOL    HW138383   1.812   1.803   6.744
12162SOL    HW238384   1.809   1.753   6.887
12163SOL     OW38385  11.089   1.795  13.026
12163SOL    HW138386  11.110   1.789  12.933
12163SOL    HW238387  11.032   1.720  13.042
12164SOL     OW38388   4.587   3.602   6.265
12164SOL    HW138389   4.514   3.540   6.267
12164SOL    HW238390   4.620   3.603   6.355
12165SOL     OW38391  13.658   8.304   9.645
12165SOL    HW138392  13.713   8.292   9.568
12165SOL    HW238393  13.602   8.379   9.623
12166SOL     OW38394   5.169   6.393   7.075
12166SOL    HW138395   5.151   6.403   6.981
12166SOL    HW238396   5.259   6.359   7.079
12167SOL     OW38397   7.339  13.800   9.104
12167SOL    HW138398   7.382  13.868   9.052
12167SOL    HW238399   7.288  13.849   9.169
12168SOL     OW38400   3.611   3.667   7.716
12168SOL    HW138401   3.534   3.667   7.660
12168SOL    HW238402   3.677   3.715   7.667
12169SOL     OW38403   2.310  13.859   1.241
12169SOL    HW138404   2.359  13.924   1.292
12169SOL    HW238405   2.354  13.776   1.260
12170SOL     OW38406   2.158   2.470   8.088
12170SOL    HW138407   2.156   2.451   8.182
12170SOL    HW238408   2.242   2.512   8.073
12171SOL     OW38409   4.961   2.497   0.376
12171SOL    HW138410   4.918   2.560   0.318
12171SOL    HW238411   5.041   2.541   0.405
12172SOL     OW38412  11.094   4.522   0.588
12172SOL    HW138413  11.182   4.509   0.624
12172SOL    HW238414  11.106   4.520   0.493
12173SOL     OW38415   3.904  14.254  13.805
12173SOL    HW138416   3.857  14.248  13.722
12173SOL    HW238417   3.990  14.216  13.788
12174SOL     OW38418   8.976   2.556  14.861
12174SOL    HW138419   9.007   2.591   0.067
12174SOL    HW238420   8.979   2.630  14.801
12175SOL     OW38421   0.865   3.172   9.869
12175SOL    HW138422   0.925   3.111   9.826
12175SOL    HW238423   0.791   3.179   9.809
12176SOL     OW38424   1.698   6.042   7.608
12176SOL    HW138425   1.676   5.960   7.653
12176SOL    HW238426   1.789   6.030   7.581
12177SOL     OW38427   1.867  13.863   0.302
12177SOL    HW138428   1.779  13.836   0.276
12177SOL    HW238429   1.923  13.791   0.274
12178SOL     OW38430  12.936  11.775   9.764
12178SOL    HW138431  13.002  11.723   9.810
12178SOL    HW238432  12.868  11.712   9.740
12179SOL     OW38433  13.912  12.531  14.369
12179SOL    HW138434  13.947  12.620  14.372
12179SOL    HW238435  13.842  12.531  14.435
12180SOL     OW38436   1.411  14.824   6.960
12180SOL    HW138437   1.382  14.775   7.037
12180SOL    HW238438   1.485  14.775   6.926
12181SOL     OW38439  14.098   9.201  10.850
12181SOL    HW138440  14.083   9.285  10.893
12181SOL    HW238441  14.107   9.138  10.922
12182SOL     OW38442   3.662   5.458   3.532
12182SOL    HW138443   3.740   5.512   3.524
12182SOL    HW238444   3.627   5.453   3.443
12183SOL     OW38445   0.546  13.422   0.639
12183SOL    HW138446   0.505  13.338   0.657
12183SOL    HW238447   0.518  13.443   0.550
12184SOL     OW38448   6.372   8.046   2.953
12184SOL    HW138449   6.422   7.999   2.887
12184SOL    HW238450   6.281   8.041   2.924
12185SOL     OW38451   6.005   4.992   2.317
12185SOL    HW138452   5.996   4.959   2.407
12185SOL    HW238453   5.916   4.989   2.281
12186SOL     OW38454  14.101   7.223   8.467
12186SOL    HW138455  14.047   7.300   8.447
12186SOL    HW238456  14.122   7.185   8.382
12187SOL     OW38457  10.728   9.685   1.603
12187SOL    HW138458  10.776   9.739   1.540
12187SOL    HW238459  10.670   9.747   1.648
12188SOL     OW38460   9.617  14.728   8.828
12188SOL    HW138461   9.565  14.651   8.808
12188SOL    HW238462   9.569  14.772   8.899
12189SOL     OW38463   9.732   5.533   5.747
12189SOL    HW138464   9.650   5.519   5.699
12189SOL    HW238465   9.716   5.494   5.833
12190SOL     OW38466   4.344   1.236   7.388
12190SOL    HW138467   4.347   1.146   7.354
12190SOL    HW238468   4.294   1.228   7.470
12191SOL     OW38469   5.861  10.918   9.445
12191SOL    HW138470   5.907  10.872   9.375
12191SOL    HW238471   5.779  10.870   9.456
12192SOL     OW38472   9.436   9.413   3.197
12192SOL    HW138473   9.341   9.410   3.183
12192SOL    HW238474   9.451   9.350   3.268
12193SOL     OW38475   4.485   7.898   5.434
12193SOL    HW138476   4.561   7.881   5.489
12193SOL    HW238477   4.449   7.812   5.416
12194SOL     OW38478   3.613   9.496   0.234
12194SOL    HW138479   3.567   9.515   0.152
12194SOL    HW238480   3.599   9.574   0.288
12195SOL     OW38481   2.363  10.426  12.120
12195SOL    HW138482   2.328  10.385  12.199
12195SOL    HW238483   2.455  10.443  12.140
12196SOL     OW38484   7.210  14.058   3.035
12196SOL    HW138485   7.174  14.002   2.966
12196SOL    HW238486   7.163  14.031   3.114
12197SOL     OW38487   8.005   3.190   6.573
12197SOL    HW138488   8.074   3.225   6.629
12197SOL    HW238489   8.010   3.241   6.492
12198SOL     OW38490   3.991   2.103   7.280
12198SOL    HW138491   4.023   2.187   7.315
12198SOL    HW238492   3.994   2.044   7.355
12199SOL     OW38493   7.207  14.362   0.291
12199SOL    HW138494   7.252  14.414   0.358
12199SOL    HW238495   7.200  14.275   0.330
12200SOL     OW38496   4.759   5.772   0.848
12200SOL    HW138497   4.744   5.788   0.755
12200SOL    HW238498   4.705   5.694   0.868
12201SOL     OW38499  11.625   9.358   2.251
12201SOL    HW138500  11.605   9.448   2.225
12201SOL    HW238501  11.670   9.321   2.175
12202SOL     OW38502   2.667   9.120  10.735
12202SOL    HW138503   2.726   9.157  10.669
12202SOL    HW238504   2.725   9.085  10.803
12203SOL     OW38505  10.679   5.089   0.147
12203SOL    HW138506  10.721   5.174   0.136
12203SOL    HW238507  10.750   5.026   0.138
12204SOL     OW38508   6.100   3.208   1.260
12204SOL    HW138509   6.126   3.213   1.168
12204SOL    HW238510   6.017   3.256   1.264
12205SOL     OW38511  11.277   7.660   5.371
12205SOL    HW138512  11.356   7.700   5.336
12205SOL    HW238513  11.308   7.583   5.419
12206SOL     OW38514  11.450   9.865  13.548
12206SOL    HW138515  11.540   9.897  13.549
12206SOL    HW238516  11.429   9.853  13.456
12207SOL     OW38517  11.004  11.335  11.425
12207SOL    HW138518  11.060  11.334  11.502
12207SOL    HW238519  11.012  11.247  11.389
12208SOL     OW38520  13.446  14.812   7.458
12208SOL    HW138521  13.445  14.842   7.367
12208SOL    HW238522  13.486  14.726   7.456
12209SOL     OW38523   6.089   0.983  13.692
12209SOL    HW138524   6.049   1.059  13.735
12209SOL    HW238525   6.023   0.953  13.629
12210SOL     OW38526   3.313   1.148  13.261
12210SOL    HW138527   3.324   1.061  13.223
12210SOL    HW238528   3.403   1.178  13.280
12211SOL     OW38529   1.339   0.267   4.451
12211SOL    HW138530   1.420   0.216   4.452
12211SOL    HW238531   1.270   0.202   4.465
12212SOL     OW38532   6.821   9.829   0.682
12212SOL    HW138533   6.757   9.844   0.612
12212SOL    HW238534   6.904   9.857   0.645
12213SOL     OW38535  14.699   4.699  11.671
12213SOL    HW138536  14.662   4.640  11.737
12213SOL    HW238537  14.741   4.768  11.722
12214SOL     OW38538   5.276   1.051   0.674
12214SOL    HW138539   5.256   1.137   0.637
12214SOL    HW238540   5.191   1.011   0.690
12215SOL     OW38541  12.193   5.711   3.926
12215SOL    HW138542  12.112   5.705   3.976
12215SOL    HW238543  12.261   5.679   3.985
12216SOL     OW38544  10.845  14.658   6.011
12216SOL    HW138545  10.847  14.746   6.048
12216SOL    HW238546  10.813  14.670   5.921
12217SOL     OW38547   0.977   2.282  12.079
12217SOL    HW138548   1.012   2.348  12.018
12217SOL    HW238549   0.889   2.263  12.046
12218SOL     OW38550  11.597  13.451  14.768
12218SOL    HW138551  11.614  13.423  14.678
12218SOL    HW238552  11.587  13.546  14.762
12219SOL     OW38553  14.573  14.026  13.087
12219SOL    HW138554  14.573  14.120  13.103
12219SOL    HW238555  14.541  13.988  13.169
12220SOL     OW38556   7.869  10.795   8.750
12220SOL    HW138557   7.822  10.871   8.784
12220SOL    HW238558   7.923  10.765   8.823
12221SOL     OW38559   6.584  14.376  10.200
12221SOL    HW138560   6.677  14.397  10.198
12221SOL    HW238561   6.581  14.281  10.211
12222SOL     OW38562   3.732   2.847   4.403
12222SOL    HW138563   3.766   2.872   4.489
12222SOL    HW238564   3.797   2.785   4.369
12223SOL     OW38565   6.781  11.416   2.502
12223SOL    HW138566   6.685  11.422   2.495
12223SOL    HW238567   6.805  11.491   2.556
12224SOL     OW38568  10.168   4.218  13.427
12224SOL    HW138569  10.088   4.265  13.404
12224SOL    HW238570  10.237   4.261  13.377
12225SOL     OW38571   9.028   0.951   2.822
12225SOL    HW138572   8.978   1.014   2.769
12225SOL    HW238573   8.962   0.910   2.878
12226SOL     OW38574   7.377   5.245   8.812
12226SOL    HW138575   7.375   5.288   8.898
12226SOL    HW238576   7.291   5.263   8.774
12227SOL     OW38577   9.517   5.603   0.141
12227SOL    HW138578   9.428   5.592   0.176
12227SOL    HW238579   9.504   5.647   0.057
12228SOL     OW38580   5.442   0.051   8.406
12228SOL    HW138581   5.492   0.129   8.384
12228SOL    HW238582   5.353   0.068   8.373
12229SOL     OW38583   1.012  12.455  14.406
12229SOL    HW138584   0.942  12.515  14.381
12229SOL    HW238585   1.083  12.512  14.436
12230SOL     OW38586   1.440   9.483   7.025
12230SOL    HW138587   1.411   9.405   6.978
12230SOL    HW238588   1.412   9.556   6.970
12231SOL     OW38589   7.017   9.933   0.451
12231SOL    HW138590   7.056   9.856   0.409
12231SOL    HW238591   6.973   9.979   0.380
12232SOL     OW38592   9.609   4.582   5.600
12232SOL    HW138593   9.536   4.640   5.620
12232SOL    HW238594   9.623   4.531   5.680
12233SOL     OW38595   5.035  13.659  11.013
12233SOL    HW138596   5.044  13.629  11.104
12233SOL    HW238597   5.046  13.754  11.018
12234SOL     OW38598   6.316   2.649  11.298
12234SOL    HW138599   6.229   2.624  11.327
12234SOL    HW238600   6.353   2.697  11.372
12235SOL     OW38601   4.089   9.433   7.780
12235SOL    HW138602   4.000   9.397   7.789
12235SOL    HW238603   4.143   9.377   7.836
12236SOL     OW38604   4.355   3.578  13.319
12236SOL    HW138605   4.372   3.668  13.347
12236SOL    HW238606   4.385   3.525  13.392
12237SOL     OW38607   4.701   4.784   3.320
12237SOL    HW138608   4.729   4.793   3.411
12237SOL    HW238609   4.764   4.836   3.270
12238SOL     OW38610   4.460  13.454   9.760
12238SOL    HW138611   4.434  13.433   9.670
12238SOL    HW238612   4.555  13.448   9.760
12239SOL     OW38613  14.574   3.164  13.755
12239SOL    HW138614  14.520   3.181  13.831
12239SOL    HW238615  14.625   3.245  13.743
12240SOL     OW38616  11.601  13.485   2.450
12240SOL    HW138617  11.600  13.579   2.466
12240SOL    HW238618  11.691  13.458   2.469
12241SOL     OW38619   0.780  13.301   2.346
12241SOL    HW138620   0.703  13.245   2.339
12241SOL    HW238621   0.746  13.386   2.374
12242SOL     OW38622  11.653  13.747   2.995
12242SOL    HW138623  11.628  13.834   2.965
12242SOL    HW238624  11.744  13.758   3.025
12243SOL     OW38625  13.634   7.151   3.377
12243SOL    HW138626  13.621   7.143   3.471
12243SOL    HW238627  13.700   7.219   3.367
12244SOL     OW38628  10.588   7.026  12.290
12244SOL    HW138629  10.668   7.077  12.286
12244SOL    HW238630  10.549   7.048  12.374
12245SOL     OW38631  13.397   7.115   8.968
12245SOL    HW138632  13.388   7.185   8.902
12245SOL    HW238633  13.477   7.136   9.015
12246SOL     OW38634  13.397   1.387   1.458
12246SOL    HW138635  13.426   1.341   1.537
12246SOL    HW238636  13.302   1.378   1.458
12247SOL     OW38637   7.812   6.607   6.291
12247SOL    HW138638   7.895   6.571   6.261
12247SOL    HW238639   7.803   6.575   6.381
12248SOL     OW38640   7.655  10.118   7.943
12248SOL    HW138641   7.641  10.209   7.913
12248SOL    HW238642   7.590  10.106   8.012
12249SOL     OW38643  12.510   6.612  14.455
12249SOL    HW138644  12.440   6.548  14.441
12249SOL    HW238645  12.552   6.584  14.536
12250SOL     OW38646  10.412  11.453  11.397
12250SOL    HW138647  10.459  11.536  11.401
12250SOL    HW238648  10.456  11.404  11.328
12251SOL     OW38649  10.695  13.536   8.302
12251SOL    HW138650  10.786  13.507   8.304
12251SOL    HW238651  10.646  13.463   8.340
12252SOL     OW38652   3.652   8.229   6.456
12252SOL    HW138653   3.724   8.171   6.431
12252SOL    HW238654   3.683   8.273   6.535
12253SOL     OW38655  14.471   5.874   5.726
12253SOL    HW138656  14.514   5.956   5.750
12253SOL    HW238657  14.418   5.897   5.649
12254SOL     OW38658   3.486  11.268   9.793
12254SOL    HW138659   3.446  11.194   9.839
12254SOL    HW238660   3.510  11.233   9.708
12255SOL     OW38661  11.979   4.642   9.266
12255SOL    HW138662  11.883   4.648   9.268
12255SOL    HW238663  12.007   4.705   9.333
12256SOL     OW38664   9.207   5.826   4.536
12256SOL    HW138665   9.231   5.867   4.619
12256SOL    HW238666   9.208   5.732   4.554
12257SOL     OW38667   4.817  11.940  12.415
12257SOL    HW138668   4.792  11.967  12.504
12257SOL    HW238669   4.873  11.864  12.429
12258SOL     OW38670  11.942   2.946   9.698
12258SOL    HW138671  11.947   2.941   9.602
12258SOL    HW238672  11.896   3.029   9.714
12259SOL     OW38673   4.422  14.247  11.775
12259SOL    HW138674   4.436  14.169  11.829
12259SOL    HW238675   4.508  14.288  11.769
12260SOL     OW38676   2.174   6.223   7.831
12260SOL    HW138677   2.132   6.185   7.908
12260SOL    HW238678   2.248   6.164   7.813
12261SOL     OW38679  10.978  12.667   9.794
12261SOL    HW138680  11.024  12.751   9.805
12261SOL    HW238681  11.048  12.604   9.775
12262SOL     OW38682  12.183   2.218   2.313
12262SOL    HW138683  12.184   2.268   2.394
12262SOL    HW238684  12.091   2.202   2.296
12263SOL     OW38685   1.025  10.405   0.499
12263SOL    HW138686   1.115  10.433   0.485
12263SOL    HW238687   0.975  10.451   0.432
12264SOL     OW38688   6.092   7.885   9.399
12264SOL    HW138689   6.154   7.858   9.468
12264SOL    HW238690   6.007   7.855   9.431
12265SOL     OW38691   4.339  13.136  14.086
12265SOL    HW138692   4.350  13.169  14.175
12265SOL    HW238693   4.295  13.206  14.039
12266SOL     OW38694  11.611   0.243   0.525
12266SOL    HW138695  11.636   0.335   0.510
12266SOL    HW238696  11.693   0.201   0.552
12267SOL     OW38697  11.465   0.123   9.293
12267SOL    HW138698  11.415   0.088   9.219
12267SOL    HW238699  11.432   0.213   9.303
12268SOL     OW38700   0.503  11.967   7.927
12268SOL    HW138701   0.443  11.909   7.881
12268SOL    HW238702   0.590  11.932   7.908
12269SOL     OW38703   1.582   0.018   5.530
12269SOL    HW138704   1.551  14.873   5.442
12269SOL    HW238705   1.610   0.109   5.522
12270SOL     OW38706  13.282  10.393  11.150
12270SOL    HW138707  13.306  10.388  11.057
12270SOL    HW238708  13.256  10.484  11.164
12271SOL     OW38709   0.887   0.439   8.920
12271SOL    HW138710   0.974   0.447   8.881
12271SOL    HW238711   0.829   0.480   8.855
12272SOL     OW38712   9.744   3.285  11.456
12272SOL    HW138713   9.733   3.226  11.531
12272SOL    HW238714   9.654   3.302  11.426
12273SOL     OW38715   6.108   3.644  10.896
12273SOL    HW138716   6.102   3.723  10.842
12273SOL    HW238717   6.155   3.581  10.842
12274SOL     OW38718   6.540  10.723  13.886
12274SOL    HW138719   6.506  10.655  13.827
12274SOL    HW238720   6.563  10.677  13.966
12275SOL     OW38721   0.652  13.594   7.800
12275SOL    HW138722   0.681  13.668   7.746
12275SOL    HW238723   0.667  13.624   7.890
12276SOL     OW38724   4.487  14.822   4.506
12276SOL    HW138725   4.523  14.737   4.529
12276SOL    HW238726   4.474  14.867   4.590
12277SOL     OW38727  12.408   5.290   8.304
12277SOL    HW138728  12.332   5.234   8.315
12277SOL    HW238729  12.383   5.352   8.236
12278SOL     OW38730  12.839   3.657   0.683
12278SOL    HW138731  12.856   3.631   0.593
12278SOL    HW238732  12.885   3.740   0.693
12279SOL     OW38733   8.858   2.857  10.712
12279SOL    HW138734   8.926   2.815  10.661
12279SOL    HW238735   8.869   2.951  10.695
12280SOL     OW38736   5.378   2.299  14.356
12280SOL    HW138737   5.316   2.345  14.413
12280SOL    HW238738   5.328   2.224  14.323
12281SOL     OW38739   0.721   5.773   2.303
12281SOL    HW138740   0.790   5.801   2.243
12281SOL    HW238741   0.663   5.719   2.250
12282SOL     OW38742  14.798   6.112   8.344
12282SOL    HW138743  14.769   6.170   8.274
12282SOL    HW238744   0.016   6.118   8.342
12283SOL     OW38745  14.707  12.516  11.691
12283SOL    HW138746  14.728  12.425  11.710
12283SOL    HW238747  14.735  12.564  11.769
12284SOL     OW38748  10.669   7.764   1.965
12284SOL    HW138749  10.624   7.846   1.945
12284SOL    HW238750  10.601   7.706   1.999
12285SOL     OW38751   8.984   3.188   8.656
12285SOL    HW138752   9.049   3.212   8.722
12285SOL    HW238753   8.941   3.270   8.633
12286SOL     OW38754  10.061   0.875  14.132
12286SOL    HW138755  10.081   0.913  14.046
12286SOL    HW238756  10.076   0.781  14.119
12287SOL     OW38757   9.015   4.187   0.647
12287SOL    HW138758   9.045   4.139   0.724
12287SOL    HW238759   8.919   4.189   0.655
12288SOL     OW38760   9.283  11.896   8.341
12288SOL    HW138761   9.334  11.946   8.403
12288SOL    HW238762   9.316  11.806   8.349
12289SOL     OW38763   1.252  13.605   5.134
12289SOL    HW138764   1.219  13.628   5.221
12289SOL    HW238765   1.199  13.529   5.109
12290SOL     OW38766   4.464   4.667  14.736
12290SOL    HW138767   4.371   4.645  14.724
12290SOL    HW238768   4.469   4.699  14.826
12291SOL     OW38769   5.568   0.792   3.607
12291SOL    HW138770   5.589   0.840   3.527
12291SOL    HW238771   5.649   0.746   3.629
12292SOL     OW38772   5.661   6.968  11.151
12292SOL    HW138773   5.678   7.055  11.114
12292SOL    HW238774   5.569   6.951  11.131
12293SOL     OW38775   7.174   7.053   3.560
12293SOL    HW138776   7.198   7.145   3.571
12293SOL    HW238777   7.150   7.024   3.648
12294SOL     OW38778   3.449  12.139  13.843
12294SOL    HW138779   3.493  12.062  13.877
12294SOL    HW238780   3.360  12.109  13.823
12295SOL     OW38781   2.940   1.830   6.202
12295SOL    HW138782   2.910   1.819   6.112
12295SOL    HW238783   2.961   1.923   6.209
12296SOL     OW38784   6.704   0.757  12.299
12296SOL    HW138785   6.626   0.725  12.254
12296SOL    HW238786   6.740   0.680  12.343
12297SOL     OW38787  14.182   0.266   5.848
12297SOL    HW138788  14.157   0.192   5.792
12297SOL    HW238789  14.211   0.225   5.930
12298SOL     OW38790  12.016  10.176  14.132
12298SOL    HW138791  11.946  10.239  14.113
12298SOL    HW238792  11.973  10.107  14.182
12299SOL     OW38793   8.597   9.467   0.189
12299SOL    HW138794   8.523   9.408   0.203
12299SOL    HW238795   8.657   9.450   0.261
12300SOL     OW38796  11.596  13.527   5.919
12300SOL    HW138797  11.561  13.602   5.967
12300SOL    HW238798  11.521  13.495   5.868
12301SOL     OW38799  12.673   8.221   1.835
12301SOL    HW138800  12.676   8.317   1.835
12301SOL    HW238801  12.757   8.195   1.797
12302SOL     OW38802  13.170   1.376   0.788
12302SOL    HW138803  13.266   1.383   0.787
12302SOL    HW238804  13.153   1.282   0.793
12303SOL     OW38805  12.724   1.215   7.931
12303SOL    HW138806  12.712   1.214   7.836
12303SOL    HW238807  12.709   1.305   7.957
12304SOL     OW38808   5.575   1.516   2.819
12304SOL    HW138809   5.609   1.594   2.775
12304SOL    HW238810   5.634   1.503   2.894
12305SOL     OW38811   7.059  14.692   9.150
12305SOL    HW138812   7.052  14.643   9.068
12305SOL    HW238813   7.139  14.661   9.190
12306SOL     OW38814   2.173   9.243   7.345
12306SOL    HW138815   2.252   9.210   7.388
12306SOL    HW238816   2.125   9.288   7.415
12307SOL     OW38817   8.492   0.556  11.140
12307SOL    HW138818   8.495   0.527  11.231
12307SOL    HW238819   8.401   0.546  11.114
12308SOL     OW38820   2.379   4.550  13.945
12308SOL    HW138821   2.294   4.588  13.926
12308SOL    HW238822   2.366   4.456  13.937
12309SOL     OW38823   3.810   1.423  12.699
12309SOL    HW138824   3.904   1.428  12.720
12309SOL    HW238825   3.768   1.482  12.761
12310SOL     OW38826  13.859  12.971   5.870
12310SOL    HW138827  13.765  12.978   5.851
12310SOL    HW238828  13.902  12.980   5.785
12311SOL     OW38829   3.480   0.507   8.182
12311SOL    HW138830   3.497   0.580   8.242
12311SOL    HW238831   3.539   0.438   8.212
12312SOL     OW38832   5.415   8.644   3.559
12312SOL    HW138833   5.490   8.702   3.573
12312SOL    HW238834   5.389   8.617   3.646
12313SOL     OW38835   0.611  14.359   0.315
12313SOL    HW138836   0.663  14.285   0.346
12313SOL    HW238837   0.641  14.433   0.368
12314SOL     OW38838   1.329  11.647  12.841
12314SOL    HW138839   1.256  11.643  12.902
12314SOL    HW238840   1.394  11.587  12.877
12315SOL     OW38841  12.765   7.853   4.234
12315SOL    HW138842  12.719   7.825   4.313
12315SOL    HW238843  12.740   7.788   4.168
12316SOL     OW38844   6.780   0.298   5.409
12316SOL    HW138845   6.723   0.253   5.346
12316SOL    HW238846   6.797   0.383   5.368
12317SOL     OW38847  11.113   8.697  13.063
12317SOL    HW138848  11.183   8.747  13.105
12317SOL    HW238849  11.034   8.719  13.112
12318SOL     OW38850   5.891  10.379   6.080
12318SOL    HW138851   5.841  10.314   6.129
12318SOL    HW238852   5.982  10.360   6.100
12319SOL     OW38853  14.035  12.112   8.169
12319SOL    HW138854  14.034  12.034   8.225
12319SOL    HW238855  14.060  12.079   8.083
12320SOL     OW38856  14.061   6.513   3.349
12320SOL    HW138857  14.015   6.577   3.404
12320SOL    HW238858  14.120   6.468   3.409
12321SOL     OW38859   5.883   2.872   5.370
12321SOL    HW138860   5.806   2.815   5.363
12321SOL    HW238861   5.955   2.812   5.388
12322SOL     OW38862   1.204   0.526   1.181
12322SOL    HW138863   1.109   0.531   1.191
12322SOL    HW238864   1.235   0.480   1.258
12323SOL     OW38865   7.807  12.884   4.846
12323SOL    HW138866   7.806  12.803   4.897
12323SOL    HW238867   7.835  12.856   4.758
12324SOL     OW38868   7.411  13.829  14.695
12324SOL    HW138869   7.460  13.851  14.774
12324SOL    HW238870   7.419  13.734  14.687
12325SOL     OW38871   3.570  10.582  10.808
12325SOL    HW138872   3.557  10.490  10.827
12325SOL    HW238873   3.605  10.584  10.718
12326SOL     OW38874   0.518   1.847   4.179
12326SOL    HW138875   0.607   1.868   4.209
12326SOL    HW238876   0.529   1.823   4.087
12327SOL     OW38877   6.097  10.692  14.406
12327SOL    HW138878   6.002  10.692  14.411
12327SOL    HW238879   6.127  10.701  14.496
12328SOL     OW38880   9.099   6.018  10.530
12328SOL    HW138881   9.101   6.089  10.594
12328SOL    HW238882   9.086   6.062  10.446
12329SOL     OW38883   1.213   4.262   1.503
12329SOL    HW138884   1.194   4.248   1.596
12329SOL    HW238885   1.182   4.183   1.461
12330SOL     OW38886  12.955  11.305  14.423
12330SOL    HW138887  12.972  11.268  14.510
12330SOL    HW238888  13.031  11.360  14.405
12331SOL     OW38889   0.829   4.203   7.594
12331SOL    HW138890   0.813   4.194   7.500
12331SOL    HW238891   0.884   4.128   7.616
12332SOL     OW38892  14.221   9.725  11.417
12332SOL    HW138893  14.152   9.783  11.450
12332SOL    HW238894  14.285   9.721  11.488
12333SOL     OW38895   2.413   8.209   8.446
12333SOL    HW138896   2.481   8.191   8.510
12333SOL    HW238897   2.420   8.137   8.382
12334SOL     OW38898   4.132   8.703  14.604
12334SOL    HW138899   4.162   8.616  14.576
12334SOL    HW238900   4.165   8.763  14.537
12335SOL     OW38901  12.796   0.681  10.203
12335SOL    HW138902  12.829   0.748  10.144
12335SOL    HW238903  12.858   0.680  10.276
12336SOL     OW38904  14.553   3.681   1.789
12336SOL    HW138905  14.469   3.652   1.825
12336SOL    HW238906  14.615   3.671   1.861
12337SOL     OW38907   7.012   6.704  14.818
12337SOL    HW138908   6.945   6.752  14.769
12337SOL    HW238909   6.965   6.632  14.859
12338SOL     OW38910   4.049  13.118   8.978
12338SOL    HW138911   4.092  13.057   8.919
12338SOL    HW238912   4.067  13.083   9.066
12339SOL     OW38913   8.218   4.305   2.115
12339SOL    HW138914   8.231   4.211   2.106
12339SOL    HW238915   8.137   4.313   2.167
12340SOL     OW38916  14.446   0.804   0.824
12340SOL    HW138917  14.487   0.812   0.738
12340SOL    HW238918  14.369   0.860   0.819
12341SOL     OW38919   3.830   1.437   0.791
12341SOL    HW138920   3.800   1.520   0.829
12341SOL    HW238921   3.750   1.387   0.774
12342SOL     OW38922  12.086   2.102   9.936
12342SOL    HW138923  12.074   2.174   9.874
12342SOL    HW238924  12.043   2.132  10.016
12343SOL     OW38925  10.027   0.320   0.412
12343SOL    HW138926   9.978   0.290   0.489
12343SOL    HW238927  10.071   0.241   0.380
12344SOL     OW38928   8.871   3.461   2.058
12344SOL    HW138929   8.883   3.411   2.139
12344SOL    HW238930   8.778   3.484   2.057
12345SOL     OW38931  10.980  14.203  11.510
12345SOL    HW138932  11.003  14.285  11.554
12345SOL    HW238933  10.983  14.225  11.416
12346SOL     OW38934   9.144   1.372   9.367
12346SOL    HW138935   9.185   1.359   9.452
12346SOL    HW238936   9.110   1.286   9.343
12347SOL     OW38937  12.528   3.261   5.211
12347SOL    HW138938  12.529   3.294   5.122
12347SOL    HW238939  12.588   3.186   5.209
12348SOL     OW38940   3.248   7.243   6.452
12348SOL    HW138941   3.276   7.313   6.394
12348SOL    HW238942   3.156   7.260   6.469
12349SOL     OW38943   3.055   5.346  14.197
12349SOL    HW138944   3.112   5.356  14.121
12349SOL    HW238945   2.968   5.334  14.160
12350SOL     OW38946  13.661  14.237   6.833
12350SOL    HW138947  13.652  14.321   6.879
12350SOL    HW238948  13.571  14.215   6.808
12351SOL     OW38949   0.544   6.006   7.659
12351SOL    HW138950   0.554   5.962   7.574
12351SOL    HW238951   0.533   6.098   7.637
12352SOL     OW38952   0.606  14.709   0.061
12352SOL    HW138953   0.637  14.730   0.149
12352SOL    HW238954   0.510  14.709   0.068
12353SOL     OW38955   3.568  10.168  12.799
12353SOL    HW138956   3.473  10.159  12.805
12353SOL    HW238957   3.591  10.226  12.872
12354SOL     OW38958   3.248   2.735   4.085
12354SOL    HW138959   3.295   2.716   4.166
12354SOL    HW238960   3.310   2.785   4.032
12355SOL     OW38961   3.496   1.065   0.674
12355SOL    HW138962   3.412   1.048   0.717
12355SOL    HW238963   3.492   1.014   0.594
12356SOL     OW38964   4.394   6.047   0.881
12356SOL    HW138965   4.426   5.964   0.915
12356SOL    HW238966   4.327   6.023   0.817
12357SOL     OW38967  11.756  13.141   1.295
12357SOL    HW138968  11.743  13.235   1.303
12357SOL    HW238969  11.677  13.103   1.334
12358SOL     OW38970  10.931   8.396   8.525
12358SOL    HW138971  11.002   8.339   8.495
12358SOL    HW238972  10.851   8.357   8.488
12359SOL     OW38973  10.819  13.761   1.568
12359SOL    HW138974  10.790  13.815   1.494
12359SOL    HW238975  10.880  13.818   1.616
12360SOL     OW38976   9.414   5.152   9.681
12360SOL    HW138977   9.346   5.185   9.739
12360SOL    HW238978   9.481   5.118   9.740
12361SOL     OW38979   6.239  11.585   4.508
12361SOL    HW138980   6.176  11.607   4.577
12361SOL    HW238981   6.193  11.520   4.454
12362SOL     OW38982   9.976   8.477  12.354
12362SOL    HW138983   9.928   8.478  12.437
12362SOL    HW238984   9.939   8.402  12.307
12363SOL     OW38985   5.277   0.099  13.769
12363SOL    HW138986   5.263   0.005  13.760
12363SOL    HW238987   5.372   0.110  13.766
12364SOL     OW38988   9.817   5.307   0.026
12364SOL    HW138989   9.856   5.219   0.024
12364SOL    HW238990   9.844   5.342   0.111
12365SOL     OW38991   0.892   9.251   8.053
12365SOL    HW138992   0.804   9.263   8.017
12365SOL    HW238993   0.945   9.228   7.977
12366SOL     OW38994   8.704  10.018  14.538
12366SOL    HW138995   8.739  10.032  14.450
12366SOL    HW238996   8.777  10.039  14.596
12367SOL     OW38997   4.530   6.766  12.972
12367SOL    HW138998   4.447   6.748  13.016
12367SOL    HW238999   4.563   6.845  13.013
12368SOL     OW39000   0.286   3.698   6.810
12368SOL    HW139001   0.374   3.659   6.808
12368SOL    HW239002   0.292   3.766   6.877
12369SOL     OW39003   1.702   6.588  14.853
12369SOL    HW139004   1.759   6.555   0.045
12369SOL    HW239005   1.619   6.541  14.867
12370SOL     OW39006   2.668  11.669   6.435
12370SOL    HW139007   2.635  11.617   6.508
12370SOL    HW239008   2.734  11.612   6.394
12371SOL     OW39009  10.659   1.727   3.528
12371SOL    HW139010  10.608   1.712   3.449
12371SOL    HW239011  10.701   1.642   3.545
12372SOL     OW39012  13.069   6.406  12.153
12372SOL    HW139013  13.017   6.483  12.129
12372SOL    HW239014  13.138   6.402  12.086
12373SOL     OW39015   3.389  11.437  13.238
12373SOL    HW139016   3.426  11.425  13.150
12373SOL    HW239017   3.403  11.529  13.258
12374SOL     OW39018   7.078  10.993   1.861
12374SOL    HW139019   7.024  10.965   1.935
12374SOL    HW239020   7.015  11.008   1.790
12375SOL     OW39021   0.449   0.016   3.505
12375SOL    HW139022   0.440  14.832   3.432
12375SOL    HW239023   0.361   0.018   3.545
12376SOL     OW39024   3.160  14.400   7.533
12376SOL    HW139025   3.076  14.366   7.562
12376SOL    HW239026   3.214  14.322   7.520
12377SOL     OW39027  14.846   2.889   3.111
12377SOL    HW139028   0.029   2.926   3.175
12377SOL    HW239029  14.769   2.945   3.114
12378SOL     OW39030   8.070   4.040   7.869
12378SOL    HW139031   8.042   4.129   7.889
12378SOL    HW239032   8.040   3.988   7.943
12379SOL     OW39033  14.825  11.668   1.940
12379SOL    HW139034  14.746  11.687   1.992
12379SOL    HW239035   0.020  11.691   1.998
12380SOL     OW39036  12.821   4.876  14.768
12380SOL    HW139037  12.833   4.872  14.673
12380SOL    HW239038  12.879   4.947  14.796
12381SOL     OW39039   1.207   5.875   1.578
12381SOL    HW139040   1.184   5.783   1.566
12381SOL    HW239041   1.146   5.922   1.521
12382SOL     OW39042  10.910   1.125  14.539
12382SOL    HW139043  11.002   1.099  14.536
12382SOL    HW239044  10.867   1.069  14.474
12383SOL     OW39045  14.086   8.608   9.377
12383SOL    HW139046  14.073   8.700   9.399
12383SOL    HW239047  14.133   8.610   9.293
12384SOL     OW39048   5.785  12.286   9.064
12384SOL    HW139049   5.842  12.272   8.989
12384SOL    HW239050   5.811  12.219   9.127
12385SOL     OW39051   2.857  11.193  13.057
12385SOL    HW139052   2.822  11.181  12.969
12385SOL    HW239053   2.881  11.286  13.060
12386SOL     OW39054   1.893  10.908   9.465
12386SOL    HW139055   1.966  10.946   9.417
12386SOL    HW239056   1.933  10.839   9.518
12387SOL     OW39057   2.291  13.597   2.941
12387SOL    HW139058   2.297  13.546   2.860
12387SOL    HW239059   2.241  13.675   2.917
12388SOL     OW39060   5.773   3.718   6.607
12388SOL    HW139061   5.710   3.651   6.583
12388SOL    HW239062   5.789   3.766   6.526
12389SOL     OW39063   0.272   2.412   2.345
12389SOL    HW139064   0.290   2.319   2.355
12389SOL    HW239065   0.286   2.449   2.432
12390SOL     OW39066   4.957   4.503   6.093
12390SOL    HW139067   5.027   4.548   6.140
12390SOL    HW239068   4.986   4.412   6.089
12391SOL     OW39069   1.213   4.925   2.724
12391SOL    HW139070   1.264   4.918   2.643
12391SOL    HW239071   1.277   4.911   2.794
12392SOL     OW39072  14.520   3.919   4.802
12392SOL    HW139073  14.535   3.961   4.887
12392SOL    HW239074  14.478   3.836   4.824
12393SOL     OW39075   5.950   9.545   8.047
12393SOL    HW139076   5.946   9.629   8.093
12393SOL    HW239077   5.978   9.568   7.958
12394SOL     OW39078  11.111   6.738   1.904
12394SOL    HW139079  11.044   6.766   1.966
12394SOL    HW239080  11.149   6.659   1.944
12395SOL     OW39081  10.647   5.786  10.819
12395SOL    HW139082  10.708   5.725  10.777
12395SOL    HW239083  10.567   5.780  10.766
12396SOL     OW39084   4.623  14.840   0.803
12396SOL    HW139085   4.551   0.015   0.769
12396SOL    HW239086   4.646  14.781   0.731
12397SOL     OW39087   3.683  13.837   3.714
12397SOL    HW139088   3.689  13.745   3.686
12397SOL    HW239089   3.680  13.833   3.809
12398SOL     OW39090  10.203   2.423  13.294
12398SOL    HW139091  10.115   2.428  13.331
12398SOL    HW239092  10.193   2.457  13.205
12399SOL     OW39093   7.309   7.590   7.017
12399SOL    HW139094   7.390   7.544   6.996
12399SOL    HW239095   7.307   7.594   7.112
12400SOL     OW39096   7.038  12.162   0.953
12400SOL    HW139097   7.049  12.250   0.988
12400SOL    HW239098   6.945  12.142   0.968
12401SOL     OW39099   1.973  13.455  14.121
12401SOL    HW139100   2.026  13.380  14.149
12401SOL    HW239101   1.997  13.469  14.030
12402SOL     OW39102   5.044   1.079   3.255
12402SOL    HW139103   5.129   1.109   3.224
12402SOL    HW239104   5.038   0.988   3.225
12403SOL     OW39105  10.346   4.928  12.028
12403SOL    HW139106  10.435   4.912  11.998
12403SOL    HW239107  10.294   4.930  11.948
12404SOL     OW39108  10.601   0.589  12.186
12404SOL    HW139109  10.689   0.552  12.186
12404SOL    HW239110  10.612   0.678  12.151
12405SOL     OW39111  11.917   3.339   4.846
12405SOL    HW139112  11.951   3.337   4.757
12405SOL    HW239113  11.856   3.413   4.847
12406SOL     OW39114   0.696  12.331  11.733
12406SOL    HW139115   0.713  12.240  11.757
12406SOL    HW239116   0.602  12.334  11.713
12407SOL     OW39117  12.630  14.625   3.287
12407SOL    HW139118  12.566  14.660   3.225
12407SOL    HW239119  12.633  14.691   3.357
12408SOL     OW39120  14.273   1.719   1.825
12408SOL    HW139121  14.298   1.730   1.916
12408SOL    HW239122  14.255   1.808   1.794
12409SOL     OW39123  14.170   8.164  10.712
12409SOL    HW139124  14.083   8.167  10.673
12409SOL    HW239125  14.229   8.189  10.640
12410SOL     OW39126   1.023  14.288  10.372
12410SOL    HW139127   1.105  14.317  10.333
12410SOL    HW239128   0.956  14.342  10.331
12411SOL     OW39129   6.060   6.656   8.345
12411SOL    HW139130   6.117   6.581   8.357
12411SOL    HW239131   5.973   6.624   8.367
12412SOL     OW39132   6.127   4.672   0.356
12412SOL    HW139133   6.072   4.622   0.417
12412SOL    HW239134   6.148   4.609   0.287
12413SOL     OW39135   1.989   2.632  12.180
12413SOL    HW139136   1.927   2.703  12.169
12413SOL    HW239137   2.068   2.662  12.134
12414SOL     OW39138   8.639  14.734   9.232
12414SOL    HW139139   8.615  14.826   9.235
12414SOL    HW239140   8.732  14.734   9.207
12415SOL     OW39141  14.782   2.955  11.651
12415SOL    HW139142  14.750   2.977  11.564
12415SOL    HW239143  14.845   2.883  11.637
12416SOL     OW39144   4.890  14.117  13.470
12416SOL    HW139145   4.936  14.187  13.423
12416SOL    HW239146   4.938  14.107  13.552
12417SOL     OW39147  12.355  12.926  10.946
12417SOL    HW139148  12.373  12.977  11.025
12417SOL    HW239149  12.280  12.971  10.906
12418SOL     OW39150  12.758  10.938   4.731
12418SOL    HW139151  12.849  10.929   4.759
12418SOL    HW239152  12.733  11.027   4.756
12419SOL     OW39153   3.691   4.834  11.188
12419SOL    HW139154   3.666   4.763  11.129
12419SOL    HW239155   3.775   4.805  11.225
12420SOL     OW39156   6.053  13.168  10.555
12420SOL    HW139157   5.996  13.217  10.496
12420SOL    HW239158   5.997  13.101  10.593
12421SOL     OW39159  13.499   7.737   8.241
12421SOL    HW139160  13.425   7.798   8.250
12421SOL    HW239161  13.546   7.744   8.324
12422SOL     OW39162   0.920   8.491   0.142
12422SOL    HW139163   1.011   8.512   0.121
12422SOL    HW239164   0.926   8.429   0.214
12423SOL     OW39165   9.320   3.215  12.136
12423SOL    HW139166   9.309   3.278  12.065
12423SOL    HW239167   9.232   3.201  12.171
12424SOL     OW39168  12.682   8.192   3.711
12424SOL    HW139169  12.752   8.248   3.677
12424SOL    HW239170  12.728   8.119   3.752
12425SOL     OW39171   7.855   1.398   1.160
12425SOL    HW139172   7.916   1.327   1.182
12425SOL    HW239173   7.801   1.409   1.238
12426SOL     OW39174  13.508   8.672   3.404
12426SOL    HW139175  13.418   8.668   3.435
12426SOL    HW239176  13.508   8.621   3.323
12427SOL     OW39177   4.919  12.882   9.731
12427SOL    HW139178   4.956  12.838   9.654
12427SOL    HW239179   4.993  12.894   9.790
12428SOL     OW39180   1.221   0.060  10.523
12428SOL    HW139181   1.293   0.044  10.461
12428SOL    HW239182   1.145   0.077  10.468
12429SOL     OW39183   1.599   0.054  10.977
12429SOL    HW139184   1.603   0.128  10.916
12429SOL    HW239185   1.689   0.023  10.983
12430SOL     OW39186   7.229   3.563   4.527
12430SOL    HW139187   7.322   3.579   4.546
12430SOL    HW239188   7.186   3.569   4.613
12431SOL     OW39189   7.681  13.655   7.721
12431SOL    HW139190   7.672  13.747   7.698
12431SOL    HW239191   7.771  13.646   7.750
12432SOL     OW39192  12.414  10.201   4.791
12432SOL    HW139193  12.419  10.134   4.859
12432SOL    HW239194  12.451  10.159   4.713
12433SOL     OW39195   4.801   8.921   2.295
12433SOL    HW139196   4.732   8.862   2.266
12433SOL    HW239197   4.767   8.962   2.374
12434SOL     OW39198   9.982   4.073   1.646
12434SOL    HW139199   9.977   4.070   1.551
12434SOL    HW239200  10.064   4.118   1.665
12435SOL     OW39201   4.436   6.109  11.229
12435SOL    HW139202   4.433   6.033  11.170
12435SOL    HW239203   4.372   6.088  11.297
12436SOL     OW39204  14.441   8.971   4.932
12436SOL    HW139205  14.521   8.959   4.984
12436SOL    HW239206  14.430   8.889   4.885
12437SOL     OW39207  14.678  14.442   8.573
12437SOL    HW139208  14.685  14.408   8.662
12437SOL    HW239209  14.752  14.401   8.527
12438SOL     OW39210  12.157   7.537  12.998
12438SOL    HW139211  12.087   7.531  12.933
12438SOL    HW239212  12.235   7.504  12.953
12439SOL     OW39213  11.837   0.663   2.065
12439SOL    HW139214  11.796   0.578   2.080
12439SOL    HW239215  11.846   0.701   2.152
12440SOL     OW39216  10.039   9.296   5.990
12440SOL    HW139217  10.116   9.332   5.946
12440SOL    HW239218   9.965   9.343   5.952
12441SOL     OW39219  12.838   4.929   9.357
12441SOL    HW139220  12.830   5.022   9.377
12441SOL    HW239221  12.784   4.917   9.279
12442SOL     OW39222  10.877   1.208   6.073
12442SOL    HW139223  10.828   1.225   6.154
12442SOL    HW239224  10.871   1.290   6.024
12443SOL     OW39225  10.812   8.398  10.959
12443SOL    HW139226  10.810   8.430  10.868
12443SOL    HW239227  10.902   8.417  10.988
12444SOL     OW39228   0.209   4.395   1.685
12444SOL    HW139229   0.122   4.416   1.651
12444SOL    HW239230   0.199   4.309   1.725
12445SOL     OW39231   7.005   3.842   4.793
12445SOL    HW139232   6.990   3.924   4.840
12445SOL    HW239233   7.099   3.843   4.773
12446SOL     OW39234   1.883   8.095   5.051
12446SOL    HW139235   1.968   8.139   5.045
12446SOL    HW239236   1.828   8.139   4.986
12447SOL     OW39237   1.411   3.764  11.727
12447SOL    HW139238   1.357   3.752  11.649
12447SOL    HW239239   1.366   3.832  11.777
12448SOL     OW39240   4.234   2.017   3.285
12448SOL    HW139241   4.205   2.040   3.197
12448SOL    HW239242   4.169   1.953   3.316
12449SOL     OW39243   3.446   6.877   6.386
12449SOL    HW139244   3.540   6.872   6.368
12449SOL    HW239245   3.404   6.864   6.301
12450SOL     OW39246   9.493   0.406   8.668
12450SOL    HW139247   9.487   0.323   8.715
12450SOL    HW239248   9.476   0.473   8.734
12451SOL     OW39249  13.002  11.963  12.259
12451SOL    HW139250  12.988  12.054  12.232
12451SOL    HW239251  12.994  11.965  12.355
12452SOL     OW39252   8.861  12.890   8.180
12452SOL    HW139253   8.851  12.874   8.087
12452SOL    HW239254   8.836  12.808   8.222
12453SOL     OW39255   3.373   0.793  14.490
12453SOL    HW139256   3.452   0.846  14.489
12453SOL    HW239257   3.302   0.856  14.499
12454SOL     OW39258  14.193   6.826  10.028
12454SOL    HW139259  14.109   6.781  10.018
12454SOL    HW239260  14.248   6.790   9.959
12455SOL     OW39261   4.042   0.101   5.918
12455SOL    HW139262   3.998   0.016   5.914
12455SOL    HW239263   3.979   0.163   5.882
12456SOL     OW39264  11.747  12.326  12.153
12456SOL    HW139265  11.776  12.253  12.207
12456SOL    HW239266  11.828  12.363  12.118
12457SOL     OW39267  12.952   4.640   7.452
12457SOL    HW139268  13.011   4.569   7.475
12457SOL    HW239269  12.865   4.599   7.451
12458SOL     OW39270   8.202   8.664   3.713
12458SOL    HW139271   8.246   8.747   3.734
12458SOL    HW239272   8.270   8.611   3.672
12459SOL     OW39273  11.364   7.447   5.500
12459SOL    HW139274  11.432   7.431   5.564
12459SOL    HW239275  11.341   7.361   5.466
12460SOL     OW39276   0.586   7.745   4.369
12460SOL    HW139277   0.508   7.721   4.320
12460SOL    HW239278   0.564   7.726   4.460
12461SOL     OW39279   5.648   8.176   8.820
12461SOL    HW139280   5.600   8.165   8.902
12461SOL    HW239281   5.592   8.232   8.766
12462SOL     OW39282   1.253   0.426   5.989
12462SOL    HW139283   1.279   0.351   6.041
12462SOL    HW239284   1.335   0.460   5.953
12463SOL     OW39285  10.657  10.825   1.228
12463SOL    HW139286  10.611  10.905   1.202
12463SOL    HW239287  10.611  10.755   1.182
12464SOL     OW39288   6.175   7.393   3.134
12464SOL    HW139289   6.263   7.427   3.122
12464SOL    HW239290   6.133   7.404   3.049
12465SOL     OW39291   0.620   2.369   7.157
12465SOL    HW139292   0.606   2.351   7.064
12465SOL    HW239293   0.621   2.282   7.198
12466SOL     OW39294   8.594   1.498  11.612
12466SOL    HW139295   8.524   1.553  11.646
12466SOL    HW239296   8.667   1.512  11.673
12467SOL     OW39297   5.267   2.991   7.270
12467SOL    HW139298   5.344   3.012   7.216
12467SOL    HW239299   5.274   3.050   7.345
12468SOL     OW39300  13.206   0.340   9.034
12468SOL    HW139301  13.122   0.333   9.080
12468SOL    HW239302  13.272   0.338   9.104
12469SOL     OW39303  13.577   9.303  11.585
12469SOL    HW139304  13.670   9.282  11.598
12469SOL    HW239305  13.564   9.297  11.491
12470SOL     OW39306  13.220   7.024   0.597
12470SOL    HW139307  13.202   7.117   0.582
12470SOL    HW239308  13.202   7.011   0.690
12471SOL     OW39309   2.031   8.746   8.155
12471SOL    HW139310   1.985   8.814   8.204
12471SOL    HW239311   2.026   8.775   8.064
12472SOL     OW39312   2.140   8.130  11.432
12472SOL    HW139313   2.211   8.074  11.463
12472SOL    HW239314   2.110   8.175  11.510
12473SOL     OW39315   0.898   1.092  12.149
12473SOL    HW139316   0.815   1.068  12.109
12473SOL    HW239317   0.902   1.040  12.230
12474SOL     OW39318  13.841   3.839   2.736
12474SOL    HW139319  13.877   3.923   2.705
12474SOL    HW239320  13.759   3.829   2.687
12475SOL     OW39321   2.144   1.375   0.375
12475SOL    HW139322   2.158   1.337   0.461
12475SOL    HW239323   2.132   1.469   0.392
12476SOL     OW39324   4.983   5.454   6.562
12476SOL    HW139325   5.071   5.474   6.530
12476SOL    HW239326   4.954   5.380   6.508
12477SOL     OW39327   3.267  10.917  14.518
12477SOL    HW139328   3.304  10.829  14.509
12477SOL    HW239329   3.334  10.968  14.563
12478SOL     OW39330  10.945   7.602  14.149
12478SOL    HW139331  10.928   7.537  14.082
12478SOL    HW239332  11.026   7.645  14.121
12479SOL     OW39333   7.119   8.004   0.496
12479SOL    HW139334   7.097   7.939   0.429
12479SOL    HW239335   7.213   8.014   0.489
12480SOL     OW39336  12.292   3.446   9.276
12480SOL    HW139337  12.318   3.443   9.184
12480SOL    HW239338  12.273   3.355   9.299
12481SOL     OW39339   6.512   0.811  10.590
12481SOL    HW139340   6.428   0.855  10.576
12481SOL    HW239341   6.563   0.872  10.642
12482SOL     OW39342  11.406  14.547   1.971
12482SOL    HW139343  11.316  14.554   1.941
12482SOL    HW239344  11.420  14.624   2.026
12483SOL     OW39345   7.821  12.066   9.263
12483SOL    HW139346   7.763  11.997   9.231
12483SOL    HW239347   7.788  12.089   9.349
12484SOL     OW39348   1.751  13.825   1.470
12484SOL    HW139349   1.757  13.810   1.376
12484SOL    HW239350   1.818  13.891   1.489
12485SOL     OW39351  14.487   5.844  12.467
12485SOL    HW139352  14.422   5.891  12.519
12485SOL    HW239353  14.451   5.843  12.378
12486SOL     OW39354   7.817  14.395   2.428
12486SOL    HW139355   7.818  14.319   2.370
12486SOL    HW239356   7.881  14.374   2.496
12487SOL     OW39357   9.767  12.072   0.843
12487SOL    HW139358   9.824  12.064   0.920
12487SOL    HW239359   9.725  12.157   0.852
12488SOL     OW39360  14.085   1.238   3.008
12488SOL    HW139361  14.152   1.279   2.953
12488SOL    HW239362  14.087   1.288   3.089
12489SOL     OW39363  13.341   3.653  10.990
12489SOL    HW139364  13.308   3.726  11.042
12489SOL    HW239365  13.270   3.589  10.991
12490SOL     OW39366  12.510  13.792  10.423
12490SOL    HW139367  12.483  13.877  10.457
12490SOL    HW239368  12.589  13.811  10.372
12491SOL     OW39369   7.420   0.477  12.294
12491SOL    HW139370   7.367   0.421  12.351
12491SOL    HW239371   7.408   0.565  12.329
12492SOL     OW39372   8.784   2.636  11.220
12492SOL    HW139373   8.719   2.655  11.153
12492SOL    HW239374   8.856   2.697  11.202
12493SOL     OW39375   5.164   0.633  13.686
12493SOL    HW139376   5.205   0.611  13.602
12493SOL    HW239377   5.071   0.620  13.671
12494SOL     OW39378   5.248  10.625   5.525
12494SOL    HW139379   5.158  10.648   5.500
12494SOL    HW239380   5.240  10.543   5.572
12495SOL     OW39381   4.737  14.558   2.665
12495SOL    HW139382   4.685  14.527   2.591
12495SOL    HW239383   4.821  14.584   2.627
12496SOL     OW39384  13.712   6.947   9.079
12496SOL    HW139385  13.672   7.025   9.042
12496SOL    HW239386  13.702   6.956   9.173
12497SOL     OW39387   6.844   0.706  13.692
12497SOL    HW139388   6.754   0.738  13.700
12497SOL    HW239389   6.875   0.699  13.783
12498SOL     OW39390  11.779  12.543   7.580
12498SOL    HW139391  11.725  12.523   7.504
12498SOL    HW239392  11.845  12.604   7.547
12499SOL     OW39393   2.574   6.515   1.826
12499SOL    HW139394   2.633   6.587   1.847
12499SOL    HW239395   2.602   6.443   1.882
12500SOL     OW39396   8.217   6.244   0.258
12500SOL    HW139397   8.176   6.160   0.236
12500SOL    HW239398   8.272   6.224   0.333
12501SOL     OW39399  10.203   8.682   2.003
12501SOL    HW139400  10.224   8.752   2.065
12501SOL    HW239401  10.287   8.653   1.970
12502SOL     OW39402   0.915   1.007   8.146
12502SOL    HW139403   0.864   1.067   8.200
12502SOL    HW239404   0.989   0.982   8.201
12503SOL     OW39405   8.216  12.517   0.391
12503SOL    HW139406   8.204  12.436   0.343
12503SOL    HW239407   8.129  12.556   0.396
12504SOL     OW39408  11.146   2.308  12.275
12504SOL    HW139409  11.084   2.349  12.335
12504SOL    HW239410  11.092   2.256  12.216
12505SOL     OW39411   9.323  13.597  14.624
12505SOL    HW139412   9.345  13.678  14.670
12505SOL    HW239413   9.228  13.599  14.617
12506SOL     OW39414   9.611   1.900   0.241
12506SOL    HW139415   9.667   1.934   0.310
12506SOL    HW239416   9.544   1.849   0.287
12507SOL     OW39417  10.008  12.796  12.024
12507SOL    HW139418   9.962  12.727  12.072
12507SOL    HW239419  10.009  12.765  11.933
12508SOL     OW39420   2.276  13.892   1.732
12508SOL    HW139421   2.235  13.926   1.812
12508SOL    HW239422   2.278  13.967   1.672
12509SOL     OW39423  12.993   0.928  10.602
12509SOL    HW139424  12.980   0.904  10.694
12509SOL    HW239425  12.904   0.941  10.568
12510SOL     OW39426   1.263   2.995  12.574
12510SOL    HW139427   1.201   2.990  12.501
12510SOL    HW239428   1.234   2.927  12.635
12511SOL     OW39429   8.319   3.459  12.965
12511SOL    HW139430   8.285   3.438  13.052
12511SOL    HW239431   8.401   3.410  12.958
12512SOL     OW39432  11.588   2.363   1.917
12512SOL    HW139433  11.613   2.431   1.981
12512SOL    HW239434  11.626   2.283   1.953
12513SOL     OW39435  12.584   2.352  14.590
12513SOL    HW139436  12.665   2.332  14.544
12513SOL    HW239437  12.565   2.273  14.641
12514SOL     OW39438  11.315  13.303   0.307
12514SOL    HW139439  11.345  13.354   0.232
12514SOL    HW239440  11.391  13.251   0.334
12515SOL     OW39441   5.669   6.781  10.078
12515SOL    HW139442   5.657   6.854  10.017
12515SOL    HW239443   5.757   6.795  10.114
12516SOL     OW39444   0.790   6.591   3.513
12516SOL    HW139445   0.807   6.499   3.530
12516SOL    HW239446   0.750   6.593   3.426
12517SOL     OW39447  14.299   4.276  13.956
12517SOL    HW139448  14.257   4.235  14.032
12517SOL    HW239449  14.227   4.304  13.901
12518SOL     OW39450   3.757   6.779  14.805
12518SOL    HW139451   3.834   6.726  14.784
12518SOL    HW239452   3.683   6.721  14.788
12519SOL     OW39453   8.209   7.109   9.728
12519SOL    HW139454   8.163   7.161   9.662
12519SOL    HW239455   8.301   7.111   9.701
12520SOL     OW39456   1.134   8.520   3.731
12520SOL    HW139457   1.189   8.516   3.652
12520SOL    HW239458   1.054   8.564   3.701
12521SOL     OW39459   5.209   7.184   6.600
12521SOL    HW139460   5.235   7.276   6.591
12521SOL    HW239461   5.164   7.164   6.518
12522SOL     OW39462  11.416   0.098   4.592
12522SOL    HW139463  11.355   0.171   4.583
12522SOL    HW239464  11.502   0.135   4.570
12523SOL     OW39465   0.288  14.419   5.341
12523SOL    HW139466   0.310  14.358   5.270
12523SOL    HW239467   0.331  14.382   5.418
12524SOL     OW39468  11.404  12.185   3.204
12524SOL    HW139469  11.366  12.147   3.283
12524SOL    HW239470  11.331  12.229   3.161
12525SOL     OW39471   5.616   2.491   7.215
12525SOL    HW139472   5.670   2.556   7.169
12525SOL    HW239473   5.528   2.505   7.181
12526SOL     OW39474   6.226   1.670  13.212
12526SOL    HW139475   6.182   1.742  13.258
12526SOL    HW239476   6.182   1.666  13.127
12527SOL     OW39477  13.417   2.489   4.497
12527SOL    HW139478  13.496   2.522   4.540
12527SOL    HW239479  13.441   2.484   4.404
12528SOL     OW39480   8.869   3.434  10.028
12528SOL    HW139481   8.889   3.396   9.943
12528SOL    HW239482   8.815   3.369  10.072
12529SOL     OW39483  12.477   9.735  14.533
12529SOL    HW139484  12.421   9.812  14.530
12529SOL    HW239485  12.503   9.727  14.625
12530SOL     OW39486   3.474   3.401   2.655
12530SOL    HW139487   3.455   3.320   2.608
12530SOL    HW239488   3.411   3.403   2.727
12531SOL     OW39489   0.835   2.688  13.047
12531SOL    HW139490   0.787   2.670  12.966
12531SOL    HW239491   0.788   2.639  13.114
12532SOL     OW39492  11.173  13.236  12.774
12532SOL    HW139493  11.190  13.297  12.845
12532SOL    HW239494  11.248  13.246  12.715
12533SOL     OW39495   1.907   9.250   4.661
12533SOL    HW139496   1.998   9.275   4.679
12533SOL    HW239497   1.860   9.269   4.742
12534SOL     OW39498  13.656  10.154  11.383
12534SOL    HW139499  13.581  10.096  11.369
12534SOL    HW239500  13.731  10.095  11.389
12535SOL     OW39501   5.041   0.206  13.472
12535SOL    HW139502   4.950   0.234  13.462
12535SOL    HW239503   5.047   0.176  13.563
12536SOL     OW39504   5.062   5.175   5.698
12536SOL    HW139505   5.101   5.203   5.616
12536SOL    HW239506   5.130   5.125   5.742
12537SOL     OW39507  11.345   5.388   4.044
12537SOL    HW139508  11.389   5.329   4.105
12537SOL    HW239509  11.415   5.425   3.991
12538SOL     OW39510  14.762   7.082  11.568
12538SOL    HW139511  14.776   6.990  11.546
12538SOL    HW239512  14.779   7.087  11.662
12539SOL     OW39513   9.937  10.500  10.353
12539SOL    HW139514  10.025  10.472  10.378
12539SOL    HW239515   9.920  10.455  10.270
12540SOL     OW39516   1.244   4.376  14.235
12540SOL    HW139517   1.173   4.416  14.186
12540SOL    HW239518   1.280   4.447  14.288
12541SOL     OW39519   6.706   4.328   9.021
12541SOL    HW139520   6.676   4.404   9.071
12541SOL    HW239521   6.793   4.310   9.055
12542SOL     OW39522   9.062   4.661   8.822
12542SOL    HW139523   9.029   4.604   8.753
12542SOL    HW239524   9.053   4.609   8.902
12543SOL     OW39525  13.573   4.755   4.995
12543SOL    HW139526  13.665   4.769   5.017
12543SOL    HW239527  13.524   4.796   5.066
12544SOL     OW39528  12.802  14.356   2.819
12544SOL    HW139529  12.720  14.308   2.829
12544SOL    HW239530  12.809  14.409   2.898
12545SOL     OW39531   6.900   1.947   0.483
12545SOL    HW139532   6.962   2.005   0.526
12545SOL    HW239533   6.838   2.006   0.441
12546SOL     OW39534   1.344   9.333   0.244
12546SOL    HW139535   1.428   9.311   0.284
12546SOL    HW239536   1.292   9.369   0.316
12547SOL     OW39537   4.680   5.679   9.229
12547SOL    HW139538   4.761   5.725   9.207
12547SOL    HW239539   4.677   5.606   9.168
12548SOL     OW39540  10.918   5.028   3.578
12548SOL    HW139541  10.987   4.988   3.631
12548SOL    HW239542  10.948   5.118   3.564
12549SOL     OW39543  13.825  11.339   0.110
12549SOL    HW139544  13.891  11.323   0.042
12549SOL    HW239545  13.816  11.255   0.155
12550SOL     OW39546   3.901   6.299   9.350
12550SOL    HW139547   3.963   6.227   9.340
12550SOL    HW239548   3.815   6.257   9.350
12551SOL     OW39549   4.962  14.552   2.520
12551SOL    HW139550   4.951  14.473   2.468
12551SOL    HW239551   4.917  14.620   2.470
12552SOL     OW39552   6.143  13.785   0.751
12552SOL    HW139553   6.202  13.855   0.722
12552SOL    HW239554   6.089  13.826   0.819
12553SOL     OW39555  13.261   9.888   5.230
12553SOL    HW139556  13.278   9.969   5.181
12553SOL    HW239557  13.337   9.878   5.288
12554SOL     OW39558   1.810  10.359   0.122
12554SOL    HW139559   1.852  10.443   0.141
12554SOL    HW239560   1.878  10.308   0.077
12555SOL     OW39561   9.810   6.736   2.150
12555SOL    HW139562   9.888   6.777   2.186
12555SOL    HW239563   9.740   6.799   2.168
12556SOL     OW39564   1.097  14.401   8.561
12556SOL    HW139565   1.093  14.350   8.480
12556SOL    HW239566   1.181  14.448   8.555
12557SOL     OW39567   4.486   1.755   0.722
12557SOL    HW139568   4.405   1.703   0.715
12557SOL    HW239569   4.527   1.746   0.636
12558SOL     OW39570  12.065  12.220   3.145
12558SOL    HW139571  11.992  12.278   3.166
12558SOL    HW239572  12.143  12.274   3.154
12559SOL     OW39573   1.123   6.739  10.963
12559SOL    HW139574   1.060   6.796  11.008
12559SOL    HW239575   1.079   6.654  10.960
12560SOL     OW39576   8.558  10.770   6.518
12560SOL    HW139577   8.562  10.676   6.502
12560SOL    HW239578   8.649  10.798   6.522
12561SOL     OW39579   6.566   7.084   8.336
12561SOL    HW139580   6.632   7.101   8.404
12561SOL    HW239581   6.540   6.994   8.351
12562SOL     OW39582   0.941  11.127   2.630
12562SOL    HW139583   1.022  11.177   2.618
12562SOL    HW239584   0.925  11.087   2.545
12563SOL     OW39585   5.579  12.079   8.776
12563SOL    HW139586   5.656  12.119   8.816
12563SOL    HW239587   5.595  11.985   8.783
12564SOL     OW39588  12.221  14.557  10.137
12564SOL    HW139589  12.144  14.556  10.079
12564SOL    HW239590  12.231  14.649  10.161
12565SOL     OW39591   1.424  11.658   4.971
12565SOL    HW139592   1.445  11.636   5.062
12565SOL    HW239593   1.409  11.574   4.928
12566SOL     OW39594   3.220   9.460   3.156
12566SOL    HW139595   3.257   9.546   3.177
12566SOL    HW239596   3.173   9.434   3.235
12567SOL     OW39597   3.516  11.865  11.258
12567SOL    HW139598   3.485  11.926  11.325
12567SOL    HW239599   3.525  11.782  11.303
12568SOL     OW39600   8.943   2.553   0.293
12568SOL    HW139601   8.923   2.631   0.345
12568SOL    HW239602   9.035   2.535   0.312
12569SOL     OW39603   2.136   2.635   4.758
12569SOL    HW139604   2.106   2.720   4.726
12569SOL    HW239605   2.218   2.654   4.803
12570SOL     OW39606  12.251   0.819   2.338
12570SOL    HW139607  12.286   0.872   2.410
12570SOL    HW239608  12.210   0.745   2.381
12571SOL     OW39609  10.085   9.571   5.776
12571SOL    HW139610  10.128   9.487   5.790
12571SOL    HW239611  10.157   9.630   5.752
12572SOL     OW39612   8.097   4.077   8.928
12572SOL    HW139613   8.179   4.070   8.975
12572SOL    HW239614   8.085   4.170   8.912
12573SOL     OW39615   4.962   9.614   8.255
12573SOL    HW139616   4.960   9.624   8.350
12573SOL    HW239617   4.878   9.574   8.233
12574SOL     OW39618   7.401  10.854  10.285
12574SOL    HW139619   7.442  10.892  10.207
12574SOL    HW239620   7.308  10.848  10.263
12575SOL     OW39621   5.801   4.503   8.875
12575SOL    HW139622   5.779   4.441   8.944
12575SOL    HW239623   5.734   4.571   8.881
12576SOL     OW39624   0.914   6.216  13.028
12576SOL    HW139625   1.004   6.189  13.049
12576SOL    HW239626   0.893   6.283  13.093
12577SOL     OW39627   6.378  10.272   2.462
12577SOL    HW139628   6.292  10.270   2.422
12577SOL    HW239629   6.420  10.350   2.427
12578SOL     OW39630   7.791  14.145   9.493
12578SOL    HW139631   7.785  14.128   9.399
12578SOL    HW239632   7.743  14.227   9.506
12579SOL     OW39633  13.932   1.240   5.995
12579SOL    HW139634  14.025   1.225   5.973
12579SOL    HW239635  13.912   1.172   6.058
12580SOL     OW39636  13.504   4.731   9.509
12580SOL    HW139637  13.568   4.724   9.439
12580SOL    HW239638  13.539   4.677   9.580
12581SOL     OW39639   5.022   5.360  10.362
12581SOL    HW139640   5.027   5.363  10.266
12581SOL    HW239641   4.954   5.295  10.381
12582SOL     OW39642   1.085   7.364   1.883
12582SOL    HW139643   1.178   7.373   1.862
12582SOL    HW239644   1.066   7.440   1.938
12583SOL     OW39645   1.463   0.492  14.443
12583SOL    HW139646   1.465   0.443  14.525
12583SOL    HW239647   1.372   0.523  14.435
12584SOL     OW39648   9.090  13.555   3.479
12584SOL    HW139649   9.048  13.623   3.531
12584SOL    HW239650   9.042  13.555   3.396
12585SOL     OW39651   8.879  10.492   8.283
12585SOL    HW139652   8.972  10.507   8.270
12585SOL    HW239653   8.843  10.578   8.305
12586SOL     OW39654   1.246   6.987   0.775
12586SOL    HW139655   1.320   7.023   0.726
12586SOL    HW239656   1.281   6.974   0.864
12587SOL     OW39657  13.101   8.476   0.918
12587SOL    HW139658  13.146   8.507   0.839
12587SOL    HW239659  13.165   8.488   0.988
12588SOL     OW39660   6.840   8.832  11.546
12588SOL    HW139661   6.873   8.921  11.562
12588SOL    HW239662   6.847   8.821  11.451
12589SOL     OW39663   0.489   9.229   9.178
12589SOL    HW139664   0.526   9.263   9.260
12589SOL    HW239665   0.554   9.252   9.111
12590SOL     OW39666   1.567  12.616  12.659
12590SOL    HW139667   1.574  12.709  12.639
12590SOL    HW239668   1.658  12.584  12.660
12591SOL     OW39669  13.798   1.241  13.305
12591SOL    HW139670  13.775   1.151  13.330
12591SOL    HW239671  13.873   1.262  13.360
12592SOL     OW39672   4.848   6.893   4.360
12592SOL    HW139673   4.786   6.916   4.430
12592SOL    HW239674   4.844   6.968   4.300
12593SOL     OW39675   6.960   7.792   3.870
12593SOL    HW139676   6.929   7.852   3.802
12593SOL    HW239677   6.914   7.821   3.949
12594SOL     OW39678   3.300   7.251  14.204
12594SOL    HW139679   3.213   7.217  14.225
12594SOL    HW239680   3.342   7.180  14.154
12595SOL     OW39681   0.602   2.354   0.348
12595SOL    HW139682   0.685   2.328   0.387
12595SOL    HW239683   0.603   2.316   0.261
12596SOL     OW39684  13.254  14.513  11.196
12596SOL    HW139685  13.205  14.574  11.141
12596SOL    HW239686  13.272  14.438  11.139
12597SOL     OW39687  10.813   8.455  11.317
12597SOL    HW139688  10.855   8.475  11.401
12597SOL    HW239689  10.878   8.481  11.252
12598SOL     OW39690   2.753  11.902  12.049
12598SOL    HW139691   2.764  11.919  11.956
12598SOL    HW239692   2.777  11.985  12.092
12599SOL     OW39693   4.589   8.205   6.795
12599SOL    HW139694   4.591   8.259   6.716
12599SOL    HW239695   4.666   8.148   6.787
12600SOL     OW39696   5.391  11.050   2.859
12600SOL    HW139697   5.394  11.143   2.838
12600SOL    HW239698   5.459  11.038   2.925
12601SOL     OW39699   4.513   4.386   1.536
12601SOL    HW139700   4.562   4.409   1.615
12601SOL    HW239701   4.514   4.290   1.534
12602SOL     OW39702   6.913   0.743   5.142
12602SOL    HW139703   6.854   0.694   5.084
12602SOL    HW239704   6.974   0.788   5.084
12603SOL     OW39705   2.570   7.323   0.685
12603SOL    HW139706   2.556   7.394   0.747
12603SOL    HW239707   2.637   7.269   0.725
12604SOL     OW39708  10.956   4.328   4.881
12604SOL    HW139709  11.016   4.268   4.837
12604SOL    HW239710  11.013   4.384   4.934
12605SOL     OW39711  11.383   6.863  11.320
12605SOL    HW139712  11.376   6.876  11.225
12605SOL    HW239713  11.348   6.775  11.335
12606SOL     OW39714   4.884  11.506  14.414
12606SOL    HW139715   4.880  11.551  14.330
12606SOL    HW239716   4.796  11.514  14.450
12607SOL     OW39717   6.905  14.813   1.822
12607SOL    HW139718   6.840  14.826   1.753
12607SOL    HW239719   6.859  14.764   1.889
12608SOL     OW39720  11.310   6.539   0.667
12608SOL    HW139721  11.326   6.492   0.749
12608SOL    HW239722  11.396   6.543   0.624
12609SOL     OW39723  13.665  14.089   2.087
12609SOL    HW139724  13.583  14.137   2.092
12609SOL    HW239725  13.713  14.115   2.166
12610SOL     OW39726   5.569   4.081  10.601
12610SOL    HW139727   5.552   4.075  10.507
12610SOL    HW239728   5.482   4.085  10.641
12611SOL     OW39729   5.269  11.338   4.955
12611SOL    HW139730   5.285  11.274   4.886
12611SOL    HW239731   5.352  11.383   4.966
12612SOL     OW39732   6.853   2.828   1.417
12612SOL    HW139733   6.860   2.738   1.386
12612SOL    HW239734   6.933   2.843   1.466
12613SOL     OW39735   6.717   4.990   6.818
12613SOL    HW139736   6.739   4.899   6.799
12613SOL    HW239737   6.622   4.989   6.833
12614SOL     OW39738  10.815   4.586   8.580
12614SOL    HW139739  10.896   4.590   8.528
12614SOL    HW239740  10.836   4.526   8.652
12615SOL     OW39741   2.424  14.183   7.052
12615SOL    HW139742   2.362  14.238   7.003
12615SOL    HW239743   2.462  14.242   7.117
12616SOL     OW39744   6.273   9.771  10.251
12616SOL    HW139745   6.271   9.694  10.307
12616SOL    HW239746   6.364   9.800  10.252
12617SOL     OW39747   3.211  14.451  11.348
12617SOL    HW139748   3.303  14.460  11.321
12617SOL    HW239749   3.164  14.430  11.268
12618SOL     OW39750   6.800  14.738   4.827
12618SOL    HW139751   6.823  14.709   4.916
12618SOL    HW239752   6.724  14.686   4.804
12619SOL     OW39753   0.056   0.944   3.602
12619SOL    HW139754  14.850   0.898   3.595
12619SOL    HW239755   0.048   1.020   3.544
12620SOL     OW39756   5.138   2.643  10.076
12620SOL    HW139757   5.233   2.647  10.064
12620SOL    HW239758   5.124   2.565  10.130
12621SOL     OW39759  13.648  11.553  12.043
12621SOL    HW139760  13.557  11.528  12.027
12621SOL    HW239761  13.643  11.632  12.097
12622SOL     OW39762  10.800  13.023   0.012
12622SOL    HW139763  10.741  13.076   0.066
12622SOL    HW239764  10.875  13.080  14.873
12623SOL     OW39765   1.537  12.959   8.353
12623SOL    HW139766   1.477  12.999   8.290
12623SOL    HW239767   1.624  12.974   8.317
12624SOL     OW39768  10.117   9.349  14.285
12624SOL    HW139769  10.203   9.321  14.252
12624SOL    HW239770  10.075   9.268  14.312
12625SOL     OW39771   0.244   8.365  14.830
12625SOL    HW139772   0.257   8.302   0.023
12625SOL    HW239773   0.328   8.368  14.783
12626SOL     OW39774  11.243   5.819   7.777
12626SOL    HW139775  11.263   5.833   7.685
12626SOL    HW239776  11.154   5.785   7.778
12627SOL     OW39777   0.251   8.062   2.626
12627SOL    HW139778   0.174   8.067   2.682
12627SOL    HW239779   0.278   7.970   2.630
12628SOL     OW39780   3.240   5.394   9.649
12628SOL    HW139781   3.155   5.424   9.682
12628SOL    HW239782   3.266   5.325   9.709
12629SOL     OW39783   2.555  14.054   8.667
12629SOL    HW139784   2.587  14.128   8.617
12629SOL    HW239785   2.603  13.978   8.633
12630SOL     OW39786   5.720   9.353   6.771
12630SOL    HW139787   5.784   9.367   6.841
12630SOL    HW239788   5.686   9.265   6.787
12631SOL     OW39789   4.237  11.868   7.671
12631SOL    HW139790   4.306  11.878   7.605
12631SOL    HW239791   4.263  11.926   7.743
12632SOL     OW39792   1.975   3.616   5.953
12632SOL    HW139793   1.961   3.591   6.044
12632SOL    HW239794   1.915   3.561   5.903
12633SOL     OW39795   3.534   6.460   4.077
12633SOL    HW139796   3.462   6.408   4.115
12633SOL    HW239797   3.582   6.398   4.023
12634SOL     OW39798  10.086   4.727   7.898
12634SOL    HW139799  10.117   4.656   7.955
12634SOL    HW239800  10.112   4.807   7.942
12635SOL     OW39801   9.538   1.667   2.064
12635SOL    HW139802   9.607   1.733   2.073
12635SOL    HW239803   9.457   1.719   2.056
12636SOL     OW39804   9.849  13.884   5.336
12636SOL    HW139805   9.765  13.931   5.330
12636SOL    HW239806   9.915  13.952   5.326
12637SOL     OW39807  10.682   0.011   9.250
12637SOL    HW139808  10.708  14.798   9.261
12637SOL    HW239809  10.740   0.045   9.181
12638SOL     OW39810   4.898   6.253  13.269
12638SOL    HW139811   4.943   6.173  13.297
12638SOL    HW239812   4.871   6.236  13.179
12639SOL     OW39813   0.954  12.621   9.479
12639SOL    HW139814   0.995  12.605   9.565
12639SOL    HW239815   0.930  12.534   9.448
12640SOL     OW39816   4.747  14.410  10.025
12640SOL    HW139817   4.790  14.366   9.951
12640SOL    HW239818   4.722  14.496   9.990
12641SOL     OW39819  14.777   5.129  11.614
12641SOL    HW139820  14.780   5.222  11.592
12641SOL    HW239821  14.721   5.090  11.547
12642SOL     OW39822   3.005   6.537   3.084
12642SOL    HW139823   3.034   6.516   3.173
12642SOL    HW239824   2.910   6.543   3.090
12643SOL     OW39825   3.053   3.246  13.034
12643SOL    HW139826   3.087   3.258  12.945
12643SOL    HW239827   3.127   3.264  13.091
12644SOL     OW39828  13.754  10.546  14.458
12644SOL    HW139829  13.848  10.543  14.474
12644SOL    HW239830  13.746  10.555  14.363
12645SOL     OW39831   5.631  13.745  12.685
12645SOL    HW139832   5.635  13.658  12.724
12645SOL    HW239833   5.652  13.805  12.757
12646SOL     OW39834   6.371   3.859  12.266
12646SOL    HW139835   6.399   3.838  12.177
12646SOL    HW239836   6.372   3.954  12.270
12647SOL     OW39837  11.314  14.357   8.772
12647SOL    HW139838  11.410  14.356   8.779
12647SOL    HW239839  11.287  14.268   8.795
12648SOL     OW39840   5.669   5.568   8.256
12648SOL    HW139841   5.689   5.567   8.350
12648SOL    HW239842   5.739   5.516   8.216
12649SOL     OW39843   2.945   4.294   2.203
12649SOL    HW139844   2.989   4.378   2.196
12649SOL    HW239845   2.880   4.306   2.273
12650SOL     OW39846  12.825   8.820   7.719
12650SOL    HW139847  12.738   8.856   7.701
12650SOL    HW239848  12.873   8.831   7.637
12651SOL     OW39849  10.667   3.433   5.287
12651SOL    HW139850  10.580   3.474   5.288
12651SOL    HW239851  10.699   3.450   5.198
12652SOL     OW39852   8.738   4.310   6.431
12652SOL    HW139853   8.682   4.307   6.509
12652SOL    HW239854   8.824   4.336   6.466
12653SOL     OW39855   9.751   2.666   1.803
12653SOL    HW139856   9.682   2.655   1.738
12653SOL    HW239857   9.779   2.757   1.793
12654SOL     OW39858  10.605  10.206   2.591
12654SOL    HW139859  10.619  10.112   2.586
12654SOL    HW239860  10.647  10.233   2.673
12655SOL     OW39861  13.274   1.172   3.880
12655SOL    HW139862  13.366   1.186   3.900
12655SOL    HW239863  13.227   1.208   3.955
12656SOL     OW39864  10.702   5.856   2.406
12656SOL    HW139865  10.717   5.782   2.465
12656SOL    HW239866  10.659   5.818   2.330
12657SOL     OW39867   7.284  13.010  12.672
12657SOL    HW139868   7.230  13.057  12.608
12657SOL    HW239869   7.340  12.953  12.619
12658SOL     OW39870  10.089   9.836   4.725
12658SOL    HW139871  10.032   9.817   4.799
12658SOL    HW239872  10.058   9.778   4.655
12659SOL     OW39873   1.953  12.058   5.128
12659SOL    HW139874   2.024  11.995   5.142
12659SOL    HW239875   1.954  12.074   5.034
12660SOL     OW39876   2.618   2.793   0.959
12660SOL    HW139877   2.537   2.751   0.989
12660SOL    HW239878   2.648   2.844   1.034
12661SOL     OW39879   7.984  10.610   4.714
12661SOL    HW139880   8.050  10.662   4.759
12661SOL    HW239881   8.019  10.598   4.625
12662SOL     OW39882  14.538   7.160   7.619
12662SOL    HW139883  14.459   7.171   7.567
12662SOL    HW239884  14.508   7.115   7.699
12663SOL     OW39885   5.283   7.639   4.966
12663SOL    HW139886   5.305   7.625   4.873
12663SOL    HW239887   5.236   7.559   4.991
12664SOL     OW39888  12.776   9.625   0.752
12664SOL    HW139889  12.772   9.594   0.662
12664SOL    HW239890  12.710   9.573   0.798
12665SOL     OW39891   9.340   6.477  11.603
12665SOL    HW139892   9.379   6.394  11.575
12665SOL    HW239893   9.251   6.474  11.567
12666SOL     OW39894   0.188   5.292  11.470
12666SOL    HW139895   0.167   5.209  11.513
12666SOL    HW239896   0.165   5.279  11.378
12667SOL     OW39897   4.320  12.347   9.590
12667SOL    HW139898   4.303  12.254   9.582
12667SOL    HW239899   4.407  12.359   9.550
12668SOL     OW39900   7.327  14.331   0.920
12668SOL    HW139901   7.398  14.283   0.877
12668SOL    HW239902   7.320  14.413   0.871
12669SOL     OW39903   0.698  10.989   9.626
12669SOL    HW139904   0.732  11.057   9.684
12669SOL    HW239905   0.605  11.008   9.618
12670SOL     OW39906  10.324   7.484   7.391
12670SOL    HW139907  10.284   7.551   7.336
12670SOL    HW239908  10.263   7.473   7.464
12671SOL     OW39909  11.911  10.072   6.133
12671SOL    HW139910  11.832  10.080   6.080
12671SOL    HW239911  11.930  10.162   6.161
12672SOL     OW39912   3.809   1.476   6.183
12672SOL    HW139913   3.724   1.511   6.153
12672SOL    HW239914   3.801   1.381   6.174
12673SOL     OW39915   5.343  10.869  13.336
12673SOL    HW139916   5.302  10.949  13.369
12673SOL    HW239917   5.276  10.802  13.345
12674SOL     OW39918   6.005  10.617   5.168
12674SOL    HW139919   6.017  10.524   5.149
12674SOL    HW239920   6.038  10.628   5.257
12675SOL     OW39921   1.873   5.156   7.735
12675SOL    HW139922   1.877   5.110   7.819
12675SOL    HW239923   1.890   5.247   7.758
12676SOL     OW39924   5.730  11.577   8.630
12676SOL    HW139925   5.694  11.586   8.542
12676SOL    HW239926   5.658  11.540   8.682
12677SOL     OW39927   8.224   7.672  10.513
12677SOL    HW139928   8.258   7.760  10.494
12677SOL    HW239929   8.302   7.619  10.529
12678SOL     OW39930   1.231   6.225  11.456
12678SOL    HW139931   1.244   6.171  11.535
12678SOL    HW239932   1.304   6.201  11.399
12679SOL     OW39933  13.741   8.599  12.448
12679SOL    HW139934  13.674   8.532  12.460
12679SOL    HW239935  13.722   8.664  12.516
12680SOL     OW39936   8.995  12.764   1.066
12680SOL    HW139937   8.960  12.761   0.977
12680SOL    HW239938   9.083  12.801   1.057
12681SOL     OW39939   2.107   9.882   7.290
12681SOL    HW139940   2.038   9.928   7.244
12681SOL    HW239941   2.154   9.834   7.221
12682SOL     OW39942   4.418  14.152  11.311
12682SOL    HW139943   4.402  14.152  11.405
12682SOL    HW239944   4.335  14.180  11.272
12683SOL     OW39945   8.629  13.639   8.427
12683SOL    HW139946   8.607  13.549   8.451
12683SOL    HW239947   8.713  13.632   8.382
12684SOL     OW39948  12.555  11.237   8.112
12684SOL    HW139949  12.629  11.283   8.150
12684SOL    HW239950  12.547  11.272   8.023
12685SOL     OW39951   8.709  12.788  10.446
12685SOL    HW139952   8.802  12.774  10.467
12685SOL    HW239953   8.703  12.880  10.423
12686SOL     OW39954   1.974   6.658   3.898
12686SOL    HW139955   2.001   6.739   3.941
12686SOL    HW239956   1.885   6.643   3.930
12687SOL     OW39957  13.790  12.098  13.166
12687SOL    HW139958  13.876  12.126  13.136
12687SOL    HW239959  13.807  12.022  13.222
12688SOL     OW39960  12.064   3.886  11.533
12688SOL    HW139961  12.053   3.933  11.615
12688SOL    HW239962  12.005   3.930  11.472
12689SOL     OW39963  11.907   0.510   2.445
12689SOL    HW139964  11.927   0.442   2.381
12689SOL    HW239965  11.838   0.561   2.405
12690SOL     OW39966   3.820   4.039   4.812
12690SOL    HW139967   3.820   4.135   4.813
12690SOL    HW239968   3.770   4.015   4.890
12691SOL     OW39969   6.960   1.903   7.095
12691SOL    HW139970   7.030   1.962   7.121
12691SOL    HW239971   6.969   1.828   7.153
12692SOL     OW39972  10.039   7.189   7.629
12692SOL    HW139973  10.051   7.116   7.568
12692SOL    HW239974  10.101   7.171   7.700
12693SOL     OW39975   5.030  11.255   1.622
12693SOL    HW139976   5.095  11.281   1.687
12693SOL    HW239977   5.055  11.166   1.597
12694SOL     OW39978   4.895   2.110   3.653
12694SOL    HW139979   4.875   2.194   3.611
12694SOL    HW239980   4.829   2.049   3.619
12695SOL     OW39981  12.327   6.178  10.166
12695SOL    HW139982  12.304   6.218  10.082
12695SOL    HW239983  12.254   6.200  10.224
12696SOL     OW39984   8.626   7.926   1.580
12696SOL    HW139985   8.681   7.848   1.578
12696SOL    HW239986   8.649   7.974   1.501
12697SOL     OW39987  11.559   4.168   0.958
12697SOL    HW139988  11.467   4.173   0.983
12697SOL    HW239989  11.591   4.087   0.997
12698SOL     OW39990   4.377  13.045   3.381
12698SOL    HW139991   4.435  13.073   3.452
12698SOL    HW239992   4.436  13.013   3.313
12699SOL     OW39993   5.906   9.731  11.581
12699SOL    HW139994   5.811   9.725  11.593
12699SOL    HW239995   5.935   9.641  11.573
12700SOL     OW39996  10.702   8.435   2.168
12700SOL    HW139997  10.701   8.358   2.225
12700SOL    HW239998  10.776   8.487   2.200
12701SOL     OW39999  13.837  13.834  10.433
12701SOL    HW140000  13.923  13.795  10.444
12701SOL    HW240001  13.787  13.770  10.382
12702SOL     OW40002   8.096   1.293   9.738
12702SOL    HW140003   8.188   1.274   9.756
12702SOL    HW240004   8.068   1.222   9.679
12703SOL     OW40005  11.842   2.668   0.596
12703SOL    HW140006  11.846   2.664   0.500
12703SOL    HW240007  11.865   2.580   0.625
12704SOL     OW40008  11.725   5.133   2.916
12704SOL    HW140009  11.708   5.128   3.011
12704SOL    HW240010  11.796   5.197   2.908
12705SOL     OW40011   1.173  10.358   7.575
12705SOL    HW140012   1.239  10.289   7.582
12705SOL    HW240013   1.221  10.438   7.596
12706SOL     OW40014   4.923   8.175   0.620
12706SOL    HW140015   4.878   8.149   0.540
12706SOL    HW240016   4.917   8.271   0.621
12707SOL     OW40017   2.129   9.036   6.665
12707SOL    HW140018   2.057   9.071   6.717
12707SOL    HW240019   2.152   8.954   6.708
12708SOL     OW40020   9.998   4.118   6.774
12708SOL    HW140021  10.004   4.125   6.869
12708SOL    HW240022   9.917   4.071   6.758
12709SOL     OW40023  13.279   1.949  12.270
12709SOL    HW140024  13.206   1.977  12.324
12709SOL    HW240025  13.294   1.858  12.296
12710SOL     OW40026  10.510  13.254  11.060
12710SOL    HW140027  10.437  13.303  11.023
12710SOL    HW240028  10.583  13.316  11.061
12711SOL     OW40029   4.563   9.812   4.868
12711SOL    HW140030   4.509   9.780   4.796
12711SOL    HW240031   4.530   9.767   4.945
12712SOL     OW40032   0.987   0.505   6.762
12712SOL    HW140033   0.933   0.429   6.786
12712SOL    HW240034   1.001   0.495   6.668
12713SOL     OW40035   5.699   4.144   0.950
12713SOL    HW140036   5.794   4.135   0.943
12713SOL    HW240037   5.667   4.056   0.968
12714SOL     OW40038   7.721   0.769   2.000
12714SOL    HW140039   7.645   0.711   1.998
12714SOL    HW240040   7.794   0.711   2.021
12715SOL     OW40041   2.655  13.429  12.281
12715SOL    HW140042   2.739  13.475  12.277
12715SOL    HW240043   2.626  13.425  12.190
12716SOL     OW40044   7.170   0.034   7.312
12716SOL    HW140045   7.115   0.059   7.238
12716SOL    HW240046   7.111   0.035   7.387
12717SOL     OW40047   5.480   4.524  14.250
12717SOL    HW140048   5.387   4.523  14.227
12717SOL    HW240049   5.496   4.614  14.279
12718SOL     OW40050  10.689   8.299   6.445
12718SOL    HW140051  10.774   8.279   6.485
12718SOL    HW240052  10.710   8.321   6.354
12719SOL     OW40053   8.409  10.551   8.015
12719SOL    HW140054   8.383  10.626   7.961
12719SOL    HW240055   8.496  10.527   7.982
12720SOL     OW40056   3.283  10.486  12.537
12720SOL    HW140057   3.215  10.551  12.549
12720SOL    HW240058   3.257  10.413  12.593
12721SOL     OW40059  11.818  12.613   8.230
12721SOL    HW140060  11.825  12.708   8.237
12721SOL    HW240061  11.794  12.597   8.138
12722SOL     OW40062   1.118   0.579   5.081
12722SOL    HW140063   1.041   0.631   5.058
12722SOL    HW240064   1.102   0.551   5.171
12723SOL     OW40065  14.741   3.840  10.813
12723SOL    HW140066  14.723   3.915  10.870
12723SOL    HW240067  14.690   3.857  10.733
12724SOL     OW40068  13.111   9.768  12.374
12724SOL    HW140069  13.027   9.729  12.348
12724SOL    HW240070  13.090   9.815  12.455
12725SOL     OW40071   7.799   1.104   3.888
12725SOL    HW140072   7.834   1.132   3.973
12725SOL    HW240073   7.793   1.185   3.838
12726SOL     OW40074   5.594   5.512   4.949
12726SOL    HW140075   5.519   5.470   4.908
12726SOL    HW240076   5.557   5.565   5.019
12727SOL     OW40077   5.602   2.768  10.628
12727SOL    HW140078   5.582   2.746  10.719
12727SOL    HW240079   5.692   2.736  10.614
12728SOL     OW40080   1.504   8.400   7.744
12728SOL    HW140081   1.422   8.430   7.706
12728SOL    HW240082   1.478   8.336   7.811
12729SOL     OW40083  11.284   0.495   7.347
12729SOL    HW140084  11.308   0.460   7.433
12729SOL    HW240085  11.367   0.501   7.300
12730SOL     OW40086  14.123  11.638  13.711
12730SOL    HW140087  14.051  11.642  13.774
12730SOL    HW240088  14.106  11.559  13.660
12731SOL     OW40089   7.282   0.524  11.531
12731SOL    HW140090   7.207   0.465  11.525
12731SOL    HW240091   7.358   0.467  11.518
12732SOL     OW40092  14.621   4.546   2.117
12732SOL    HW140093  14.584   4.631   2.139
12732SOL    HW240094  14.716   4.558   2.123
12733SOL     OW40095   0.175  14.052   3.988
12733SOL    HW140096   0.083  14.041   4.012
12733SOL    HW240097   0.217  14.084   4.068
12734SOL     OW40098   6.980   7.281   3.318
12734SOL    HW140099   6.975   7.186   3.308
12734SOL    HW240100   6.889   7.308   3.331
12735SOL     OW40101  12.075   0.040  14.815
12735SOL    HW140102  12.122   0.054   0.020
12735SOL    HW240103  11.985   0.020  14.842
12736SOL     OW40104  14.148  10.107  10.807
12736SOL    HW140105  14.102  10.147  10.733
12736SOL    HW240106  14.134  10.168  10.879
12737SOL     OW40107   4.915  10.279  13.670
12737SOL    HW140108   4.868  10.349  13.715
12737SOL    HW240109   5.006  10.287  13.699
12738SOL     OW40110   5.386   8.970   4.326
12738SOL    HW140111   5.413   8.929   4.408
12738SOL    HW240112   5.458   9.028   4.303
12739SOL     OW40113   8.172   3.839  10.738
12739SOL    HW140114   8.158   3.769  10.802
12739SOL    HW240115   8.184   3.918  10.791
12740SOL     OW40116  13.861   3.706   6.220
12740SOL    HW140117  13.919   3.767   6.266
12740SOL    HW240118  13.777   3.716   6.263
12741SOL     OW40119  12.081  10.075  10.031
12741SOL    HW140120  12.138  10.121  10.093
12741SOL    HW240121  11.995  10.075  10.072
12742SOL     OW40122   4.580   6.656   8.195
12742SOL    HW140123   4.561   6.704   8.276
12742SOL    HW240124   4.673   6.635   8.202
12743SOL     OW40125  11.463   6.954   4.140
12743SOL    HW140126  11.541   6.937   4.087
12743SOL    HW240127  11.498   6.980   4.225
12744SOL     OW40128  10.017   9.830   7.519
12744SOL    HW140129  10.023   9.881   7.600
12744SOL    HW240130  10.062   9.748   7.540
12745SOL     OW40131   1.080   6.897  12.484
12745SOL    HW140132   1.140   6.831  12.518
12745SOL    HW240133   1.015   6.908  12.553
12746SOL     OW40134   1.396   5.884   6.489
12746SOL    HW140135   1.323   5.826   6.468
12746SOL    HW240136   1.472   5.826   6.498
12747SOL     OW40137   7.953   8.625   9.700
12747SOL    HW140138   7.939   8.605   9.793
12747SOL    HW240139   7.896   8.700   9.683
12748SOL     OW40140  12.438   6.321   6.868
12748SOL    HW140141  12.375   6.287   6.804
12748SOL    HW240142  12.439   6.415   6.853
12749SOL     OW40143   6.737   7.184  11.811
12749SOL    HW140144   6.790   7.122  11.760
12749SOL    HW240145   6.648   7.173  11.778
12750SOL     OW40146   4.138   0.302  11.486
12750SOL    HW140147   4.224   0.344  11.483
12750SOL    HW240148   4.157   0.209  11.490
12751SOL     OW40149  11.794   2.533  11.840
12751SOL    HW140150  11.824   2.624  11.835
12751SOL    HW240151  11.759   2.515  11.753
12752SOL     OW40152   3.470   1.574  10.274
12752SOL    HW140153   3.392   1.610  10.315
12752SOL    HW240154   3.482   1.626  10.195
12753SOL     OW40155  13.510  10.998   5.604
12753SOL    HW140156  13.549  10.967   5.686
12753SOL    HW240157  13.421  11.025   5.629
12754SOL     OW40158  13.741   8.390  12.774
12754SOL    HW140159  13.803   8.364  12.707
12754SOL    HW240160  13.707   8.475  12.745
12755SOL     OW40161   7.777  12.153  11.419
12755SOL    HW140162   7.718  12.198  11.359
12755SOL    HW240163   7.789  12.066  11.382
12756SOL     OW40164  11.121  13.659  11.451
12756SOL    HW140165  11.125  13.753  11.435
12756SOL    HW240166  11.089  13.650  11.541
12757SOL     OW40167   8.593  13.850   9.812
12757SOL    HW140168   8.524  13.894   9.862
12757SOL    HW240169   8.672  13.901   9.831
12758SOL     OW40170   1.371   0.504  13.900
12758SOL    HW140171   1.307   0.575  13.892
12758SOL    HW240172   1.340   0.451  13.973
12759SOL     OW40173  13.986   4.315   7.701
12759SOL    HW140174  13.970   4.228   7.667
12759SOL    HW240175  13.905   4.364   7.684
12760SOL     OW40176  14.688   4.929   0.854
12760SOL    HW140177  14.598   4.961   0.862
12760SOL    HW240178  14.738   4.981   0.916
12761SOL     OW40179  13.387  11.776   0.726
12761SOL    HW140180  13.408  11.762   0.633
12761SOL    HW240181  13.342  11.696   0.753
12762SOL     OW40182  11.584  14.300   2.934
12762SOL    HW140183  11.615  14.213   2.908
12762SOL    HW240184  11.637  14.322   3.010
12763SOL     OW40185   0.671  12.742   1.053
12763SOL    HW140186   0.627  12.817   1.093
12763SOL    HW240187   0.641  12.741   0.962
12764SOL     OW40188  14.391  10.679   1.827
12764SOL    HW140189  14.310  10.648   1.868
12764SOL    HW240190  14.393  10.638   1.741
12765SOL     OW40191   7.421  12.796   9.409
12765SOL    HW140192   7.375  12.760   9.485
12765SOL    HW240193   7.355  12.846   9.361
12766SOL     OW40194   5.289  10.638  14.327
12766SOL    HW140195   5.298  10.653  14.233
12766SOL    HW240196   5.197  10.657  14.346
12767SOL     OW40197  14.679   9.688  14.541
12767SOL    HW140198  14.703   9.761  14.599
12767SOL    HW240199  14.602   9.649  14.582
12768SOL     OW40200   0.278   2.661   8.038
12768SOL    HW140201   0.247   2.749   8.056
12768SOL    HW240202   0.334   2.669   7.961
12769SOL     OW40203   4.187  13.339   9.148
12769SOL    HW140204   4.124  13.391   9.097
12769SOL    HW240205   4.151  13.250   9.148
12770SOL     OW40206  11.857   4.967   1.768
12770SOL    HW140207  11.916   4.907   1.813
12770SOL    HW240208  11.852   4.933   1.679
12771SOL     OW40209   7.441  13.070  11.984
12771SOL    HW140210   7.421  13.009  12.055
12771SOL    HW240211   7.463  13.152  12.027
12772SOL     OW40212  12.131   5.938  14.870
12772SOL    HW140213  12.055   5.967  14.818
12772SOL    HW240214  12.205   5.944  14.810
12773SOL     OW40215  11.190  12.319   4.169
12773SOL    HW140216  11.213  12.412   4.178
12773SOL    HW240217  11.211  12.298   4.078
12774SOL     OW40218  10.371  13.893   0.420
12774SOL    HW140219  10.364  13.941   0.502
12774SOL    HW240220  10.330  13.808   0.438
12775SOL     OW40221   9.756   2.341  11.179
12775SOL    HW140222   9.747   2.303  11.091
12775SOL    HW240223   9.689   2.296  11.230
12776SOL     OW40224   8.225   4.787   8.416
12776SOL    HW140225   8.151   4.827   8.463
12776SOL    HW240226   8.240   4.704   8.462
12777SOL     OW40227   5.603   9.194  13.376
12777SOL    HW140228   5.693   9.223  13.390
12777SOL    HW240229   5.596   9.182  13.281
12778SOL     OW40230   5.958   3.001   6.698
12778SOL    HW140231   5.881   3.039   6.657
12778SOL    HW240232   6.000   2.952   6.627
12779SOL     OW40233   0.366  12.917   4.601
12779SOL    HW140234   0.431  12.905   4.531
12779SOL    HW240235   0.319  12.996   4.575
12780SOL     OW40236  12.628  10.381   8.794
12780SOL    HW140237  12.676  10.456   8.830
12780SOL    HW240238  12.675  10.304   8.827
12781SOL     OW40239  11.998   5.756   7.692
12781SOL    HW140240  12.059   5.817   7.733
12781SOL    HW240241  11.916   5.806   7.684
12782SOL     OW40242   7.888  12.076   7.431
12782SOL    HW140243   7.964  12.040   7.476
12782SOL    HW240244   7.813  12.034   7.474
12783SOL     OW40245  14.696   8.821   0.310
12783SOL    HW140246  14.791   8.811   0.309
12783SOL    HW240247  14.664   8.746   0.361
12784SOL     OW40248   6.758  10.347   0.061
12784SOL    HW140249   6.828  10.394   0.015
12784SOL    HW240250   6.761  10.382   0.150
12785SOL     OW40251   8.924   2.760  13.273
12785SOL    HW140252   8.889   2.671  13.263
12785SOL    HW240253   8.957   2.762  13.363
12786SOL     OW40254   5.410   1.484   9.633
12786SOL    HW140255   5.388   1.395   9.606
12786SOL    HW240256   5.459   1.520   9.559
12787SOL     OW40257   2.574   9.787   3.523
12787SOL    HW140258   2.601   9.732   3.449
12787SOL    HW240259   2.527   9.727   3.581
12788SOL     OW40260   3.547  13.097   0.170
12788SOL    HW140261   3.483  13.043   0.216
12788SOL    HW240262   3.517  13.097   0.079
12789SOL     OW40263   3.520   8.368   2.975
12789SOL    HW140264   3.536   8.291   2.920
12789SOL    HW240265   3.475   8.430   2.917
12790SOL     OW40266   7.611  14.671   5.939
12790SOL    HW140267   7.598  14.743   6.001
12790SOL    HW240268   7.677  14.704   5.878
12791SOL     OW40269   0.264  10.505   1.804
12791SOL    HW140270   0.192  10.466   1.753
12791SOL    HW240271   0.320  10.431   1.827
12792SOL     OW40272   1.384   2.891   5.646
12792SOL    HW140273   1.440   2.964   5.673
12792SOL    HW240274   1.386   2.831   5.720
12793SOL     OW40275  13.350   8.717  13.328
12793SOL    HW140276  13.315   8.804  13.306
12793SOL    HW240277  13.405   8.732  13.405
12794SOL     OW40278  11.340   7.818   4.117
12794SOL    HW140279  11.407   7.884   4.135
12794SOL    HW240280  11.257   7.865   4.120
12795SOL     OW40281  13.602   3.210  10.067
12795SOL    HW140282  13.619   3.159  10.147
12795SOL    HW240283  13.684   3.208  10.019
12796SOL     OW40284  12.110   4.213   2.334
12796SOL    HW140285  12.032   4.264   2.312
12796SOL    HW240286  12.109   4.140   2.272
12797SOL     OW40287   1.754   1.426   5.282
12797SOL    HW140288   1.795   1.493   5.227
12797SOL    HW240289   1.791   1.441   5.369
12798SOL     OW40290   7.118  11.027   4.586
12798SOL    HW140291   7.156  11.015   4.673
12798SOL    HW240292   7.054  10.957   4.577
12799SOL     OW40293  14.386   2.404   1.895
12799SOL    HW140294  14.308   2.423   1.843
12799SOL    HW240295  14.396   2.309   1.889
12800SOL     OW40296  12.330   3.610   1.883
12800SOL    HW140297  12.255   3.565   1.843
12800SOL    HW240298  12.381   3.642   1.808
12801SOL     OW40299   1.695   9.306   4.849
12801SOL    HW140300   1.647   9.385   4.824
12801SOL    HW240301   1.718   9.320   4.940
12802SOL     OW40302   8.016  11.141  13.198
12802SOL    HW140303   7.983  11.170  13.113
12802SOL    HW240304   8.106  11.114  13.181
12803SOL     OW40305   9.358   5.496   9.649
12803SOL    HW140306   9.279   5.486   9.596
12803SOL    HW240307   9.421   5.435   9.610
12804SOL     OW40308   6.789   6.011  13.080
12804SOL    HW140309   6.818   6.095  13.116
12804SOL    HW240310   6.819   6.012  12.989
12805SOL     OW40311  12.874   5.137  10.991
12805SOL    HW140312  12.899   5.045  10.985
12805SOL    HW240313  12.927   5.171  11.063
12806SOL     OW40314  10.263   5.628   5.900
12806SOL    HW140315  10.334   5.568   5.877
12806SOL    HW240316  10.229   5.658   5.816
12807SOL     OW40317   8.460  11.681   3.574
12807SOL    HW140318   8.381  11.735   3.578
12807SOL    HW240319   8.465  11.639   3.660
12808SOL     OW40320   3.967   7.120   0.192
12808SOL    HW140321   3.977   7.066   0.271
12808SOL    HW240322   3.875   7.148   0.193
12809SOL     OW40323  13.503  13.153   3.735
12809SOL    HW140324  13.537  13.191   3.816
12809SOL    HW240325  13.435  13.093   3.764
12810SOL     OW40326   4.970   6.329   5.705
12810SOL    HW140327   5.045   6.278   5.735
12810SOL    HW240328   4.954   6.392   5.776
12811SOL     OW40329  10.179  10.698  11.863
12811SOL    HW140330  10.140  10.741  11.939
12811SOL    HW240331  10.121  10.624  11.845
12812SOL     OW40332  10.364   8.373   6.353
12812SOL    HW140333  10.421   8.417   6.290
12812SOL    HW240334  10.409   8.381   6.437
12813SOL     OW40335   8.809  14.699   5.985
12813SOL    HW140336   8.854  14.633   5.932
12813SOL    HW240337   8.827  14.781   5.941
12814SOL     OW40338   6.918   1.167  11.252
12814SOL    HW140339   6.948   1.120  11.329
12814SOL    HW240340   6.837   1.209  11.279
12815SOL     OW40341  14.818  11.077   2.085
12815SOL    HW140342   0.021  11.119   2.055
12815SOL    HW240343  14.839  11.045   2.173
12816SOL     OW40344   4.331   8.683   0.455
12816SOL    HW140345   4.377   8.765   0.470
12816SOL    HW240346   4.288   8.663   0.538
12817SOL     OW40347  10.841   3.214   0.013
12817SOL    HW140348  10.805   3.167   0.088
12817SOL    HW240349  10.930   3.180   0.003
12818SOL     OW40350   0.166   3.011  12.966
12818SOL    HW140351   0.206   2.931  13.001
12818SOL    HW240352   0.094   2.979  12.912
12819SOL     OW40353   2.362  14.671   8.279
12819SOL    HW140354   2.312  14.619   8.342
12819SOL    HW240355   2.309  14.750   8.266
12820SOL     OW40356  11.829  14.512   7.875
12820SOL    HW140357  11.871  14.538   7.792
12820SOL    HW240358  11.899  14.467   7.923
12821SOL     OW40359  14.805   4.907  11.798
12821SOL    HW140360  14.874   4.967  11.771
12821SOL    HW240361  14.821   4.892  11.891
12822SOL     OW40362   9.804   5.946   4.323
12822SOL    HW140363   9.828   5.854   4.331
12822SOL    HW240364   9.735   5.959   4.388
12823SOL     OW40365   4.442   1.487   3.910
12823SOL    HW140366   4.498   1.426   3.862
12823SOL    HW240367   4.479   1.490   3.998
12824SOL     OW40368   1.742  10.781   6.880
12824SOL    HW140369   1.748  10.865   6.926
12824SOL    HW240370   1.653  10.779   6.844
12825SOL     OW40371   3.373   6.659   6.548
12825SOL    HW140372   3.387   6.596   6.477
12825SOL    HW240373   3.396   6.743   6.510
12826SOL     OW40374  10.575   6.054  11.924
12826SOL    HW140375  10.508   6.010  11.977
12826SOL    HW240376  10.591   6.136  11.970
12827SOL     OW40377   2.675   0.271  11.059
12827SOL    HW140378   2.660   0.188  11.013
12827SOL    HW240379   2.595   0.321  11.043
12828SOL     OW40380  14.555   3.451  10.795
12828SOL    HW140381  14.509   3.384  10.845
12828SOL    HW240382  14.499   3.468  10.719
12829SOL     OW40383   3.115   9.879   9.920
12829SOL    HW140384   3.050   9.892   9.851
12829SOL    HW240385   3.133   9.786   9.920
12830SOL     OW40386  13.991   2.042  13.834
12830SOL    HW140387  14.069   2.043  13.778
12830SOL    HW240388  13.936   2.111  13.798
12831SOL     OW40389  10.296  13.433  10.964
12831SOL    HW140390  10.258  13.432  10.876
12831SOL    HW240391  10.228  13.396  11.020
12832SOL     OW40392  13.761  12.787   4.919
12832SOL    HW140393  13.737  12.798   4.827
12832SOL    HW240394  13.770  12.693   4.931
12833SOL     OW40395  11.307   2.224  13.133
12833SOL    HW140396  11.351   2.145  13.165
12833SOL    HW240397  11.240   2.242  13.199
12834SOL     OW40398  12.404   8.625   3.718
12834SOL    HW140399  12.350   8.694   3.680
12834SOL    HW240400  12.396   8.638   3.813
12835SOL     OW40401  10.315   9.066   0.679
12835SOL    HW140402  10.242   9.052   0.740
12835SOL    HW240403  10.368   8.987   0.688
12836SOL     OW40404   6.139  10.761  11.648
12836SOL    HW140405   6.181  10.794  11.568
12836SOL    HW240406   6.046  10.784  11.638
12837SOL     OW40407   6.404  10.033  12.181
12837SOL    HW140408   6.363  10.083  12.110
12837SOL    HW240409   6.483   9.996  12.141
12838SOL     OW40410   4.581   8.346   5.202
12838SOL    HW140411   4.553   8.345   5.293
12838SOL    HW240412   4.676   8.332   5.206
12839SOL     OW40413   8.197   0.421  13.261
12839SOL    HW140414   8.245   0.344  13.292
12839SOL    HW240415   8.154   0.392  13.181
12840SOL     OW40416   8.445   3.493   7.836
12840SOL    HW140417   8.391   3.453   7.767
12840SOL    HW240418   8.386   3.554   7.880
12841SOL     OW40419   6.266  12.432   9.824
12841SOL    HW140420   6.226  12.485   9.893
12841SOL    HW240421   6.235  12.343   9.842
12842SOL     OW40422  12.823   5.490   9.867
12842SOL    HW140423  12.839   5.418   9.928
12842SOL    HW240424  12.905   5.501   9.820
12843SOL     OW40425   5.564  10.768   9.245
12843SOL    HW140426   5.575  10.761   9.340
12843SOL    HW240427   5.472  10.795   9.233
12844SOL     OW40428   4.971   1.399   8.732
12844SOL    HW140429   5.007   1.485   8.711
12844SOL    HW240430   4.979   1.349   8.650
12845SOL     OW40431   9.705  14.545   2.988
12845SOL    HW140432   9.775  14.485   3.012
12845SOL    HW240433   9.644  14.491   2.937
12846SOL     OW40434   5.179   7.232  14.584
12846SOL    HW140435   5.141   7.320  14.593
12846SOL    HW240436   5.215   7.213  14.670
12847SOL     OW40437   5.906   4.212   5.901
12847SOL    HW140438   5.817   4.219   5.936
12847SOL    HW240439   5.894   4.185   5.810
12848SOL     OW40440   2.419   1.626   5.549
12848SOL    HW140441   2.437   1.532   5.544
12848SOL    HW240442   2.325   1.631   5.568
12849SOL     OW40443  10.611   1.813   1.237
12849SOL    HW140444  10.597   1.880   1.170
12849SOL    HW240445  10.555   1.840   1.310
12850SOL     OW40446   9.896   8.457   8.844
12850SOL    HW140447   9.805   8.430   8.836
12850SOL    HW240448   9.928   8.460   8.754
12851SOL     OW40449   3.132   7.691   7.137
12851SOL    HW140450   3.102   7.760   7.078
12851SOL    HW240451   3.215   7.662   7.101
12852SOL     OW40452  13.883   4.953   3.560
12852SOL    HW140453  13.905   4.863   3.535
12852SOL    HW240454  13.789   4.952   3.575
12853SOL     OW40455  12.785   0.024  14.649
12853SOL    HW140456  12.707   0.071  14.679
12853SOL    HW240457  12.821  14.861  14.729
12854SOL     OW40458   8.471   2.304   7.377
12854SOL    HW140459   8.498   2.393   7.401
12854SOL    HW240460   8.376   2.308   7.372
12855SOL     OW40461   4.544   7.040  11.930
12855SOL    HW140462   4.492   7.084  11.863
12855SOL    HW240463   4.485   7.033  12.005
12856SOL     OW40464  13.770  12.436   4.395
12856SOL    HW140465  13.715  12.363   4.364
12856SOL    HW240466  13.724  12.469   4.472
12857SOL     OW40467  12.442  10.587  13.624
12857SOL    HW140468  12.425  10.572  13.531
12857SOL    HW240469  12.474  10.677  13.628
12858SOL     OW40470   9.411   0.937   5.988
12858SOL    HW140471   9.476   0.992   5.944
12858SOL    HW240472   9.340   0.930   5.924
12859SOL     OW40473  11.540   0.519   7.756
12859SOL    HW140474  11.501   0.494   7.839
12859SOL    HW240475  11.466   0.530   7.696
12860SOL     OW40476  10.481   9.224   2.215
12860SOL    HW140477  10.534   9.165   2.268
12860SOL    HW240478  10.436   9.280   2.278
12861SOL     OW40479   0.701  12.518   2.036
12861SOL    HW140480   0.794  12.535   2.048
12861SOL    HW240481   0.683  12.442   2.092
12862SOL     OW40482   6.467   1.039   6.449
12862SOL    HW140483   6.533   0.969   6.446
12862SOL    HW240484   6.414   1.025   6.371
12863SOL     OW40485   8.831   8.070   1.361
12863SOL    HW140486   8.828   8.089   1.454
12863SOL    HW240487   8.741   8.044   1.339
12864SOL     OW40488  11.794  10.686   7.365
12864SOL    HW140489  11.799  10.725   7.453
12864SOL    HW240490  11.733  10.742   7.318
12865SOL     OW40491   3.422   4.780   0.469
12865SOL    HW140492   3.408   4.827   0.551
12865SOL    HW240493   3.511   4.745   0.477
12866SOL     OW40494   1.579   1.811  10.846
12866SOL    HW140495   1.673   1.830  10.844
12866SOL    HW240496   1.556   1.799  10.754
12867SOL     OW40497  14.195   0.194   0.783
12867SOL    HW140498  14.163   0.130   0.719
12867SOL    HW240499  14.182   0.152   0.868
12868SOL     OW40500   7.113   5.510  14.293
12868SOL    HW140501   7.122   5.596  14.251
12868SOL    HW240502   7.021   5.506  14.320
12869SOL     OW40503  11.972   4.772   7.377
12869SOL    HW140504  11.883   4.763   7.410
12869SOL    HW240505  11.986   4.867   7.372
12870SOL     OW40506   3.061   3.976   5.915
12870SOL    HW140507   3.056   4.055   5.970
12870SOL    HW240508   3.135   3.993   5.857
12871SOL     OW40509  11.081   9.274  10.987
12871SOL    HW140510  11.131   9.323  11.053
12871SOL    HW240511  11.066   9.337  10.917
12872SOL     OW40512   9.004   8.565   4.638
12872SOL    HW140513   8.912   8.540   4.648
12872SOL    HW240514   9.005   8.625   4.563
12873SOL     OW40515   1.308  11.384   1.838
12873SOL    HW140516   1.356  11.308   1.806
12873SOL    HW240517   1.256  11.351   1.911
12874SOL     OW40518   1.405   9.901   0.688
12874SOL    HW140519   1.387   9.920   0.596
12874SOL    HW240520   1.400   9.987   0.731
12875SOL     OW40521   4.153   7.004   0.417
12875SOL    HW140522   4.242   7.007   0.383
12875SOL    HW240523   4.144   6.916   0.454
12876SOL     OW40524   6.849  10.180   1.549
12876SOL    HW140525   6.879  10.117   1.615
12876SOL    HW240526   6.772  10.139   1.510
12877SOL     OW40527   5.216  10.597   3.538
12877SOL    HW140528   5.191  10.683   3.504
12877SOL    HW240529   5.156  10.581   3.610
12878SOL     OW40530   1.385   9.548  10.318
12878SOL    HW140531   1.403   9.642  10.319
12878SOL    HW240532   1.380   9.523  10.410
12879SOL     OW40533  13.132  12.160   2.859
12879SOL    HW140534  13.092  12.155   2.947
12879SOL    HW240535  13.069  12.210   2.807
12880SOL     OW40536   2.811   6.936   5.652
12880SOL    HW140537   2.771   7.023   5.653
12880SOL    HW240538   2.776   6.893   5.730
12881SOL     OW40539   1.356  13.433   8.348
12881SOL    HW140540   1.421  13.461   8.283
12881SOL    HW240541   1.293  13.382   8.297
12882SOL     OW40542  10.550   7.786  11.028
12882SOL    HW140543  10.460   7.787  10.994
12882SOL    HW240544  10.541   7.815  11.119
12883SOL     OW40545   7.583  11.136   7.175
12883SOL    HW140546   7.599  11.230   7.181
12883SOL    HW240547   7.509  11.128   7.115
12884SOL     OW40548  11.334   1.755   3.839
12884SOL    HW140549  11.328   1.828   3.777
12884SOL    HW240550  11.278   1.781   3.912
12885SOL     OW40551   8.934   5.091  10.607
12885SOL    HW140552   8.847   5.090  10.567
12885SOL    HW240553   8.995   5.093  10.533
12886SOL     OW40554   5.747   2.337  10.481
12886SOL    HW140555   5.740   2.298  10.394
12886SOL    HW240556   5.664   2.383  10.493
12887SOL     OW40557   0.510   0.169   9.200
12887SOL    HW140558   0.432   0.178   9.255
12887SOL    HW240559   0.530   0.076   9.202
12888SOL     OW40560  13.403   6.198   2.475
12888SOL    HW140561  13.397   6.109   2.511
12888SOL    HW240562  13.440   6.250   2.546
12889SOL     OW40563  12.613   2.839   2.798
12889SOL    HW140564  12.642   2.851   2.708
12889SOL    HW240565  12.552   2.766   2.795
12890SOL     OW40566  10.374  10.370   8.768
12890SOL    HW140567  10.389  10.448   8.822
12890SOL    HW240568  10.459  10.325   8.766
12891SOL     OW40569   0.172   8.787   2.076
12891SOL    HW140570   0.087   8.828   2.059
12891SOL    HW240571   0.216   8.788   1.992
12892SOL     OW40572   5.066   8.805  12.973
12892SOL    HW140573   5.064   8.864  12.898
12892SOL    HW240574   5.156   8.773  12.976
12893SOL     OW40575   7.195   1.220   9.958
12893SOL    HW140576   7.138   1.185   9.890
12893SOL    HW240577   7.262   1.268   9.910
12894SOL     OW40578   2.577   6.874  14.044
12894SOL    HW140579   2.650   6.848  13.988
12894SOL    HW240580   2.618   6.907  14.123
12895SOL     OW40581  12.759   4.129   6.747
12895SOL    HW140582  12.737   4.222   6.738
12895SOL    HW240583  12.855   4.127   6.743
12896SOL     OW40584   7.366   5.832   1.632
12896SOL    HW140585   7.351   5.749   1.587
12896SOL    HW240586   7.283   5.852   1.674
12897SOL     OW40587   5.804   0.059  13.212
12897SOL    HW140588   5.748   0.018  13.278
12897SOL    HW240589   5.743   0.104  13.153
12898SOL     OW40590   9.074  10.480  13.086
12898SOL    HW140591   8.994  10.524  13.056
12898SOL    HW240592   9.060  10.466  13.180
12899SOL     OW40593  14.518   8.470  12.489
12899SOL    HW140594  14.494   8.506  12.574
12899SOL    HW240595  14.435   8.451  12.446
12900SOL     OW40596   4.731   3.002  13.529
12900SOL    HW140597   4.812   3.047  13.556
12900SOL    HW240598   4.740   2.913  13.562
12901SOL     OW40599   9.871  14.678   8.729
12901SOL    HW140600   9.883  14.589   8.762
12901SOL    HW240601   9.789  14.707   8.769
12902SOL     OW40602   9.684   2.520  10.722
12902SOL    HW140603   9.614   2.496  10.782
12902SOL    HW240604   9.736   2.584  10.771
12903SOL     OW40605   8.268  14.812   6.845
12903SOL    HW140606   8.204  14.874   6.811
12903SOL    HW240607   8.226  14.772   6.921
12904SOL     OW40608   6.779   9.814   7.781
12904SOL    HW140609   6.807   9.837   7.869
12904SOL    HW240610   6.856   9.828   7.727
12905SOL     OW40611   8.055  10.159  13.904
12905SOL    HW140612   7.971  10.120  13.879
12905SOL    HW240613   8.067  10.134  13.996
12906SOL     OW40614   7.280   5.344   6.876
12906SOL    HW140615   7.325   5.402   6.938
12906SOL    HW240616   7.247   5.272   6.929
12907SOL     OW40617  11.648   1.972  11.119
12907SOL    HW140618  11.721   1.921  11.154
12907SOL    HW240619  11.655   1.961  11.024
12908SOL     OW40620   5.532   0.581   2.391
12908SOL    HW140621   5.477   0.503   2.378
12908SOL    HW240622   5.576   0.593   2.307
12909SOL     OW40623  10.403   6.071   6.284
12909SOL    HW140624  10.428   6.016   6.210
12909SOL    HW240625  10.428   6.159   6.259
12910SOL     OW40626   9.309   6.645   8.431
12910SOL    HW140627   9.274   6.661   8.519
12910SOL    HW240628   9.404   6.655   8.441
12911SOL     OW40629  14.247   0.160   4.631
12911SOL    HW140630  14.317   0.095   4.637
12911SOL    HW240631  14.175   0.113   4.589
12912SOL     OW40632   3.722   8.531   2.177
12912SOL    HW140633   3.792   8.467   2.165
12912SOL    HW240634   3.691   8.518   2.266
12913SOL     OW40635  12.564  13.708   9.699
12913SOL    HW140636  12.523  13.782   9.655
12913SOL    HW240637  12.515  13.631   9.669
12914SOL     OW40638   2.123   3.183  11.022
12914SOL    HW140639   2.065   3.170  10.947
12914SOL    HW240640   2.176   3.259  11.000
12915SOL     OW40641   8.235   9.575   0.900
12915SOL    HW140642   8.323   9.560   0.936
12915SOL    HW240643   8.219   9.668   0.914
12916SOL     OW40644   8.545   5.467  11.576
12916SOL    HW140645   8.574   5.417  11.500
12916SOL    HW240646   8.622   5.517  11.603
12917SOL     OW40647  12.397  13.919  11.438
12917SOL    HW140648  12.432  13.891  11.353
12917SOL    HW240649  12.454  13.990  11.465
12918SOL     OW40650   8.134  12.524   2.127
12918SOL    HW140651   8.201  12.546   2.191
12918SOL    HW240652   8.183  12.482   2.055
12919SOL     OW40653  12.408   5.641   2.104
12919SOL    HW140654  12.349   5.573   2.135
12919SOL    HW240655  12.357   5.690   2.039
12920SOL     OW40656  12.495  13.505   0.961
12920SOL    HW140657  12.545  13.570   0.912
12920SOL    HW240658  12.426  13.476   0.902
12921SOL     OW40659   6.375   6.962  13.347
12921SOL    HW140660   6.374   6.866  13.348
12921SOL    HW240661   6.463   6.985  13.317
12922SOL     OW40662   5.489  12.762   5.849
12922SOL    HW140663   5.545  12.730   5.919
12922SOL    HW240664   5.462  12.850   5.878
12923SOL     OW40665  12.718  11.571   0.408
12923SOL    HW140666  12.742  11.483   0.437
12923SOL    HW240667  12.627  11.581   0.434
12924SOL     OW40668   9.036  11.698   3.476
12924SOL    HW140669   9.061  11.625   3.532
12924SOL    HW240670   9.119  11.736   3.448
12925SOL     OW40671   4.179  13.918   9.908
12925SOL    HW140672   4.173  13.953   9.819
12925SOL    HW240673   4.220  13.833   9.898
12926SOL     OW40674   9.622   3.954   8.399
12926SOL    HW140675   9.692   3.979   8.459
12926SOL    HW240676   9.564   4.030   8.397
12927SOL     OW40677   7.065   8.500  14.070
12927SOL    HW140678   7.135   8.555  14.105
12927SOL    HW240679   7.061   8.522  13.977
12928SOL     OW40680   2.937   1.057   3.594
12928SOL    HW140681   3.012   1.094   3.549
12928SOL    HW240682   2.912   0.980   3.542
12929SOL     OW40683   0.909   2.777  14.326
12929SOL    HW140684   0.941   2.700  14.279
12929SOL    HW240685   0.831   2.747  14.372
12930SOL     OW40686   4.995   8.494  10.404
12930SOL    HW140687   4.921   8.508  10.345
12930SOL    HW240688   5.028   8.582  10.423
12931SOL     OW40689  10.048   6.843  13.408
12931SOL    HW140690  10.059   6.781  13.336
12931SOL    HW240691  10.119   6.821  13.470
12932SOL     OW40692   1.514   5.986   3.469
12932SOL    HW140693   1.573   5.919   3.437
12932SOL    HW240694   1.549   6.010   3.555
12933SOL     OW40695   3.804   4.989   0.335
12933SOL    HW140696   3.733   5.050   0.350
12933SOL    HW240697   3.810   4.982   0.239
12934SOL     OW40698  12.365  11.044   7.437
12934SOL    HW140699  12.323  10.961   7.415
12934SOL    HW240700  12.312  11.079   7.509
12935SOL     OW40701  10.603   2.617   9.352
12935SOL    HW140702  10.512   2.639   9.331
12935SOL    HW240703  10.608   2.522   9.337
12936SOL     OW40704  11.740  10.732   3.093
12936SOL    HW140705  11.780  10.692   3.170
12936SOL    HW240706  11.656  10.766   3.125
12937SOL     OW40707  11.769   0.394  10.795
12937SOL    HW140708  11.747   0.423  10.883
12937SOL    HW240709  11.865   0.384  10.796
12938SOL     OW40710   3.420  14.609   4.656
12938SOL    HW140711   3.380  14.555   4.724
12938SOL    HW240712   3.473  14.673   4.705
12939SOL     OW40713   8.512   2.125   3.356
12939SOL    HW140714   8.603   2.094   3.363
12939SOL    HW240715   8.460   2.058   3.399
12940SOL     OW40716  14.132  12.175  13.555
12940SOL    HW140717  14.114  12.081  13.558
12940SOL    HW240718  14.052  12.214  13.521
12941SOL     OW40719   9.653  12.109   1.717
12941SOL    HW140720   9.682  12.139   1.631
12941SOL    HW240721   9.571  12.062   1.700
12942SOL     OW40722   8.814   5.400  10.277
12942SOL    HW140723   8.878   5.453  10.326
12942SOL    HW240724   8.730   5.425  10.314
12943SOL     OW40725   0.298   7.859   1.104
12943SOL    HW140726   0.380   7.888   1.062
12943SOL    HW240727   0.322   7.780   1.152
12944SOL     OW40728  14.530   0.944  14.657
12944SOL    HW140729  14.442   0.921  14.626
12944SOL    HW240730  14.587   0.928  14.582
12945SOL     OW40731  11.311  11.878  10.642
12945SOL    HW140732  11.315  11.860  10.736
12945SOL    HW240733  11.388  11.836  10.605
12946SOL     OW40734   4.917   6.663   3.936
12946SOL    HW140735   4.990   6.684   3.876
12946SOL    HW240736   4.857   6.610   3.883
12947SOL     OW40737   3.858   7.191   4.660
12947SOL    HW140738   3.780   7.245   4.665
12947SOL    HW240739   3.855   7.151   4.573
12948SOL     OW40740  11.892   1.032  14.297
12948SOL    HW140741  11.958   1.057  14.362
12948SOL    HW240742  11.823   1.098  14.305
12949SOL     OW40743   5.654   1.411   7.095
12949SOL    HW140744   5.715   1.337   7.099
12949SOL    HW240745   5.594   1.395   7.168
12950SOL     OW40746   0.117   5.609   1.046
12950SOL    HW140747   0.174   5.561   0.985
12950SOL    HW240748   0.032   5.610   1.003
12951SOL     OW40749   7.331  14.106   7.441
12951SOL    HW140750   7.241  14.082   7.463
12951SOL    HW240751   7.342  14.194   7.479
12952SOL     OW40752   4.646   9.484  12.054
12952SOL    HW140753   4.618   9.537  11.979
12952SOL    HW240754   4.673   9.401  12.016
12953SOL     OW40755  11.759   0.453  13.097
12953SOL    HW140756  11.731   0.507  13.171
12953SOL    HW240757  11.717   0.369  13.110
12954SOL     OW40758  14.473  10.850   3.567
12954SOL    HW140759  14.399  10.829   3.510
12954SOL    HW240760  14.435  10.905   3.636
12955SOL     OW40761   2.765  12.510   6.380
12955SOL    HW140762   2.819  12.496   6.457
12955SOL    HW240763   2.809  12.580   6.331
12956SOL     OW40764  11.482   3.424   3.691
12956SOL    HW140765  11.455   3.419   3.783
12956SOL    HW240766  11.445   3.507   3.660
12957SOL     OW40767   0.941   6.406   6.386
12957SOL    HW140768   0.859   6.406   6.436
12957SOL    HW240769   0.945   6.493   6.347
12958SOL     OW40770  11.204  10.773   1.471
12958SOL    HW140771  11.218  10.857   1.513
12958SOL    HW240772  11.112  10.774   1.446
12959SOL     OW40773   2.122   1.719   2.598
12959SOL    HW140774   2.216   1.707   2.610
12959SOL    HW240775   2.084   1.695   2.683
12960SOL     OW40776  10.401   5.162   7.138
12960SOL    HW140777  10.335   5.103   7.100
12960SOL    HW240778  10.485   5.123   7.114
12961SOL     OW40779   0.890   6.019   8.163
12961SOL    HW140780   0.908   5.927   8.146
12961SOL    HW240781   0.920   6.033   8.253
12962SOL     OW40782  13.854   4.441   4.039
12962SOL    HW140783  13.852   4.359   3.990
12962SOL    HW240784  13.885   4.417   4.126
12963SOL     OW40785   0.576  11.162  10.123
12963SOL    HW140786   0.637  11.222  10.080
12963SOL    HW240787   0.555  11.204  10.207
12964SOL     OW40788   1.379   4.221  14.517
12964SOL    HW140789   1.415   4.283  14.581
12964SOL    HW240790   1.425   4.240  14.436
12965SOL     OW40791  10.862   4.302   4.385
12965SOL    HW140792  10.790   4.283   4.325
12965SOL    HW240793  10.864   4.398   4.391
12966SOL     OW40794  13.668  10.099   4.122
12966SOL    HW140795  13.635  10.013   4.094
12966SOL    HW240796  13.698  10.141   4.041
12967SOL     OW40797   2.062   2.623  13.361
12967SOL    HW140798   2.022   2.706  13.385
12967SOL    HW240799   2.156   2.638  13.369
12968SOL     OW40800   8.524   9.838   5.532
12968SOL    HW140801   8.533   9.820   5.438
12968SOL    HW240802   8.432   9.858   5.544
12969SOL     OW40803   3.023   2.542   9.146
12969SOL    HW140804   3.101   2.581   9.106
12969SOL    HW240805   2.994   2.476   9.084
12970SOL     OW40806  12.514  12.967   2.513
12970SOL    HW140807  12.578  13.004   2.452
12970SOL    HW240808  12.546  12.993   2.599
12971SOL     OW40809  13.131   0.157   8.199
12971SOL    HW140810  13.078   0.099   8.254
12971SOL    HW240811  13.071   0.186   8.131
12972SOL     OW40812  10.915  11.263   1.111
12972SOL    HW140813  10.848  11.228   1.170
12972SOL    HW240814  10.993  11.209   1.129
12973SOL     OW40815   0.865   0.438   9.757
12973SOL    HW140816   0.917   0.381   9.813
12973SOL    HW240817   0.860   0.521   9.805
12974SOL     OW40818   8.080   8.279   3.976
12974SOL    HW140819   8.148   8.310   4.036
12974SOL    HW240820   8.084   8.340   3.902
12975SOL     OW40821   3.721   4.488   2.316
12975SOL    HW140822   3.727   4.500   2.222
12975SOL    HW240823   3.682   4.401   2.327
12976SOL     OW40824   6.283  11.618   9.344
12976SOL    HW140825   6.336  11.566   9.405
12976SOL    HW240826   6.282  11.566   9.264
12977SOL     OW40827   6.868  12.784   2.184
12977SOL    HW140828   6.948  12.810   2.230
12977SOL    HW240829   6.899  12.748   2.101
12978SOL     OW40830   0.000  12.224   0.136
12978SOL    HW140831   0.011  12.132   0.112
12978SOL    HW240832  14.873  12.270   0.053
12979SOL     OW40833   3.173   7.861  14.618
12979SOL    HW140834   3.220   7.781  14.594
12979SOL    HW240835   3.209   7.928  14.561
12980SOL     OW40836   5.895   2.855  10.276
12980SOL    HW140837   5.883   2.774  10.326
12980SOL    HW240838   5.971   2.838  10.221
12981SOL     OW40839   0.676  12.942  11.646
12981SOL    HW140840   0.695  12.862  11.695
12981SOL    HW240841   0.730  12.935  11.567
12982SOL     OW40842   6.973   2.110  12.775
12982SOL    HW140843   6.968   2.043  12.707
12982SOL    HW240844   6.888   2.105  12.819
12983SOL     OW40845   9.394   4.800  10.065
12983SOL    HW140846   9.327   4.864  10.041
12983SOL    HW240847   9.456   4.802   9.992
12984SOL     OW40848   1.532   5.664   5.995
12984SOL    HW140849   1.545   5.617   5.913
12984SOL    HW240850   1.540   5.756   5.972
12985SOL     OW40851   3.958   8.498   4.604
12985SOL    HW140852   4.053   8.489   4.616
12985SOL    HW240853   3.930   8.553   4.677
12986SOL     OW40854   5.807   0.661   3.646
12986SOL    HW140855   5.879   0.714   3.610
12986SOL    HW240856   5.851   0.593   3.697
12987SOL     OW40857   3.410   7.751   6.538
12987SOL    HW140858   3.439   7.823   6.481
12987SOL    HW240859   3.353   7.793   6.602
12988SOL     OW40860  13.490   2.244  10.835
12988SOL    HW140861  13.579   2.226  10.865
12988SOL    HW240862  13.490   2.337  10.815
12989SOL     OW40863   9.932   3.561   4.727
12989SOL    HW140864   9.877   3.535   4.653
12989SOL    HW240865   9.882   3.536   4.804
12990SOL     OW40866   6.332   5.733  12.115
12990SOL    HW140867   6.372   5.687  12.189
12990SOL    HW240868   6.396   5.726  12.045
12991SOL     OW40869   9.989   7.381   7.880
12991SOL    HW140870  10.037   7.308   7.841
12991SOL    HW240871  10.056   7.446   7.899
12992SOL     OW40872  12.907   8.970  14.273
12992SOL    HW140873  12.855   8.903  14.228
12992SOL    HW240874  12.861   9.052  14.255
12993SOL     OW40875  10.668   5.338  13.471
12993SOL    HW140876  10.628   5.381  13.546
12993SOL    HW240877  10.660   5.401  13.399
12994SOL     OW40878   8.598  14.843  14.052
12994SOL    HW140879   8.503  14.831  14.058
12994SOL    HW240880   8.632  14.756  14.034
12995SOL     OW40881   0.283  13.105   9.887
12995SOL    HW140882   0.273  13.185   9.939
12995SOL    HW240883   0.268  13.034   9.949
12996SOL     OW40884  12.031   3.541  14.421
12996SOL    HW140885  12.081   3.506  14.347
12996SOL    HW240886  12.021   3.634  14.401
12997SOL     OW40887   1.657  13.216  13.425
12997SOL    HW140888   1.614  13.252  13.348
12997SOL    HW240889   1.707  13.141  13.391
12998SOL     OW40890   9.098   8.863   4.490
12998SOL    HW140891   9.185   8.838   4.521
12998SOL    HW240892   9.105   8.957   4.473
12999SOL     OW40893  12.094   6.044   8.231
12999SOL    HW140894  12.057   6.009   8.313
12999SOL    HW240895  12.038   6.007   8.162
13000SOL     OW40896   8.033  13.119   2.371
13000SOL    HW140897   8.071  13.113   2.283
13000SOL    HW240898   8.053  13.208   2.400
13001SOL     OW40899   3.257  14.598  11.916
13001SOL    HW140900   3.180  14.623  11.865
13001SOL    HW240901   3.314  14.675  11.911
13002SOL     OW40902   2.697   7.330   2.650
13002SOL    HW140903   2.741   7.285   2.578
13002SOL    HW240904   2.750   7.408   2.666
13003SOL     OW40905   9.598   7.461   6.894
13003SOL    HW140906   9.596   7.365   6.889
13003SOL    HW240907   9.673   7.486   6.840
13004SOL     OW40908   6.731   8.379   8.792
13004SOL    HW140909   6.794   8.385   8.863
13004SOL    HW240910   6.744   8.292   8.755
13005SOL     OW40911  12.559   0.854  10.333
13005SOL    HW140912  12.494   0.863  10.263
13005SOL    HW240913  12.633   0.810  10.292
13006SOL     OW40914   5.514   9.190  13.824
13006SOL    HW140915   5.532   9.149  13.740
13006SOL    HW240916   5.448   9.257  13.805
13007SOL     OW40917   3.376   8.735   1.788
13007SOL    HW140918   3.311   8.802   1.808
13007SOL    HW240919   3.419   8.717   1.872
13008SOL     OW40920  10.153  12.018  13.294
13008SOL    HW140921  10.100  11.952  13.249
13008SOL    HW240922  10.139  12.098  13.244
13009SOL     OW40923  12.000  12.490   0.868
13009SOL    HW140924  12.078  12.536   0.838
13009SOL    HW240925  12.029  12.438   0.943
13010SOL     OW40926   7.660  13.585  14.523
13010SOL    HW140927   7.673  13.508  14.579
13010SOL    HW240928   7.585  13.563  14.469
13011SOL     OW40929   4.007   1.261   5.871
13011SOL    HW140930   3.977   1.262   5.780
13011SOL    HW240931   4.067   1.186   5.876
13012SOL     OW40932  14.403   7.560  12.704
13012SOL    HW140933  14.388   7.467  12.717
13012SOL    HW240934  14.494   7.574  12.730
13013SOL     OW40935   5.317  12.272   1.614
13013SOL    HW140936   5.378  12.231   1.553
13013SOL    HW240937   5.374  12.314   1.680
13014SOL     OW40938  12.015   3.920   3.604
13014SOL    HW140939  12.079   3.927   3.675
13014SOL    HW240940  11.931   3.906   3.648
13015SOL     OW40941  11.149   5.712  13.164
13015SOL    HW140942  11.144   5.659  13.085
13015SOL    HW240943  11.227   5.767  13.152
13016SOL     OW40944  14.053  13.519   9.205
13016SOL    HW140945  14.029  13.586   9.141
13016SOL    HW240946  14.115  13.563   9.263
13017SOL     OW40947   3.537   2.972  14.002
13017SOL    HW140948   3.493   2.887  13.997
13017SOL    HW240949   3.578   2.973  14.089
13018SOL     OW40950   5.265   2.976   9.978
13018SOL    HW140951   5.307   3.030   9.911
13018SOL    HW240952   5.288   2.886   9.955
13019SOL     OW40953   5.580   4.827   3.320
13019SOL    HW140954   5.647   4.853   3.258
13019SOL    HW240955   5.625   4.769   3.382
13020SOL     OW40956   5.449   1.178  10.710
13020SOL    HW140957   5.407   1.210  10.789
13020SOL    HW240958   5.397   1.102  10.684
13021SOL     OW40959  11.548   5.961   3.338
13021SOL    HW140960  11.478   5.980   3.275
13021SOL    HW240961  11.578   5.873   3.315
13022SOL     OW40962   8.530   4.056   7.572
13022SOL    HW140963   8.499   4.045   7.483
13022SOL    HW240964   8.463   4.108   7.616
13023SOL     OW40965   7.386  10.370  14.509
13023SOL    HW140966   7.335  10.347  14.432
13023SOL    HW240967   7.477  10.351  14.484
13024SOL     OW40968   4.117   7.074  12.467
13024SOL    HW140969   4.064   7.135  12.518
13024SOL    HW240970   4.053   7.014  12.429
13025SOL     OW40971   5.541   7.490   2.983
13025SOL    HW140972   5.477   7.528   2.923
13025SOL    HW240973   5.491   7.425   3.033
13026SOL     OW40974   5.528   5.019   9.582
13026SOL    HW140975   5.509   4.960   9.510
13026SOL    HW240976   5.623   5.017   9.591
13027SOL     OW40977   8.576   3.876   5.068
13027SOL    HW140978   8.626   3.938   5.121
13027SOL    HW240979   8.522   3.930   5.011
13028SOL     OW40980   8.450  11.964   7.321
13028SOL    HW140981   8.472  11.877   7.352
13028SOL    HW240982   8.455  12.020   7.398
13029SOL     OW40983   2.594   5.924  13.953
13029SOL    HW140984   2.669   5.980  13.936
13029SOL    HW240985   2.604   5.898  14.045
13030SOL     OW40986   1.060   2.042   8.185
13030SOL    HW140987   1.108   2.028   8.104
13030SOL    HW240988   1.128   2.056   8.251
13031SOL     OW40989  10.969   8.431  10.417
13031SOL    HW140990  10.897   8.489  10.390
13031SOL    HW240991  11.043   8.489  10.429
13032SOL     OW40992   7.526   3.268   9.756
13032SOL    HW140993   7.518   3.188   9.705
13032SOL    HW240994   7.612   3.262   9.798
13033SOL     OW40995   8.323   1.390  11.801
13033SOL    HW140996   8.393   1.454  11.815
13033SOL    HW240997   8.317   1.342  11.883
13034SOL     OW40998   5.759   7.662   8.196
13034SOL    HW140999   5.756   7.639   8.288
13034SOL    HW241000   5.693   7.731   8.186
13035SOL     OW41001   1.751   7.758  11.958
13035SOL    HW141002   1.823   7.733  11.901
13035SOL    HW241003   1.790   7.823  12.018
13036SOL     OW41004  11.365  14.526   0.617
13036SOL    HW141005  11.333  14.479   0.695
13036SOL    HW241006  11.301  14.504   0.549
13037SOL     OW41007   6.342   2.853   5.119
13037SOL    HW141008   6.363   2.834   5.210
13037SOL    HW241009   6.392   2.931   5.098
13038SOL     OW41010   8.468  10.937  11.818
13038SOL    HW141011   8.447  10.844  11.813
13038SOL    HW241012   8.392  10.976  11.862
13039SOL     OW41013   7.239   9.095  10.426
13039SOL    HW141014   7.277   9.007  10.423
13039SOL    HW241015   7.257   9.131  10.339
13040SOL     OW41016   1.726  13.006  13.801
13040SOL    HW141017   1.799  12.970  13.749
13040SOL    HW241018   1.655  13.016  13.738
13041SOL     OW41019   3.355   3.262   4.591
13041SOL    HW141020   3.376   3.312   4.670
13041SOL    HW241021   3.427   3.199   4.583
13042SOL     OW41022  11.609   3.887   0.979
13042SOL    HW141023  11.551   3.853   1.047
13042SOL    HW241024  11.694   3.898   1.022
13043SOL     OW41025   4.981   8.336   7.191
13043SOL    HW141026   5.032   8.413   7.216
13043SOL    HW241027   4.899   8.345   7.239
13044SOL     OW41028  13.036   0.791  13.855
13044SOL    HW141029  12.984   0.865  13.889
13044SOL    HW241030  13.075   0.825  13.775
13045SOL     OW41031  14.008  12.344   0.675
13045SOL    HW141032  14.060  12.321   0.598
13045SOL    HW241033  14.068  12.331   0.749
13046SOL     OW41034   3.247   7.905   3.668
13046SOL    HW141035   3.160   7.942   3.648
13046SOL    HW241036   3.281   7.877   3.583
13047SOL     OW41037   6.397  14.430   5.573
13047SOL    HW141038   6.410  14.418   5.667
13047SOL    HW241039   6.332  14.364   5.549
13048SOL     OW41040  14.774  14.826   3.397
13048SOL    HW141041  14.748  14.837   3.488
13048SOL    HW241042  14.775   0.037   3.361
13049SOL     OW41043   7.720   3.210  14.003
13049SOL    HW141044   7.723   3.194  14.098
13049SOL    HW241045   7.808   3.189  13.973
13050SOL     OW41046   9.775  11.029   4.072
13050SOL    HW141047   9.728  10.958   4.030
13050SOL    HW241048   9.803  11.086   4.000
13051SOL     OW41049   1.547   1.980  11.203
13051SOL    HW141050   1.516   2.065  11.172
13051SOL    HW241051   1.543   1.986  11.298
13052SOL     OW41052  13.612   4.776   8.998
13052SOL    HW141053  13.661   4.842   8.948
13052SOL    HW241054  13.520   4.793   8.975
13053SOL     OW41055   0.036   3.686   1.121
13053SOL    HW141056   0.010   3.639   1.200
13053SOL    HW241057   0.064   3.772   1.152
13054SOL     OW41058   2.406  13.726   7.103
13054SOL    HW141059   2.415  13.747   7.010
13054SOL    HW241060   2.383  13.633   7.104
13055SOL     OW41061   4.904   6.304  10.030
13055SOL    HW141062   4.943   6.229   9.986
13055SOL    HW241063   4.972   6.333  10.092
13056SOL     OW41064  11.521   2.120  11.290
13056SOL    HW141065  11.566   2.058  11.232
13056SOL    HW241066  11.450   2.069  11.329
13057SOL     OW41067   6.229   7.729   7.068
13057SOL    HW141068   6.215   7.635   7.081
13057SOL    HW241069   6.289   7.754   7.137
13058SOL     OW41070   1.840   5.065   4.040
13058SOL    HW141071   1.781   5.054   3.965
13058SOL    HW241072   1.862   4.976   4.067
13059SOL     OW41073  11.608   8.237  11.994
13059SOL    HW141074  11.695   8.277  11.997
13059SOL    HW241075  11.552   8.296  12.044
13060SOL     OW41076  10.830   3.563   0.909
13060SOL    HW141077  10.847   3.591   0.819
13060SOL    HW241078  10.743   3.524   0.906
13061SOL     OW41079   3.932   6.301   4.624
13061SOL    HW141080   3.861   6.272   4.682
13061SOL    HW241081   4.004   6.241   4.643
13062SOL     OW41082  10.472  11.993  14.568
13062SOL    HW141083  10.437  11.928  14.507
13062SOL    HW241084  10.398  12.052  14.584
13063SOL     OW41085  13.898  14.822   6.584
13063SOL    HW141086  13.828   0.003   6.555
13063SOL    HW241087  13.942  14.794   6.504
13064SOL     OW41088  11.745   4.199   5.436
13064SOL    HW141089  11.714   4.217   5.525
13064SOL    HW241090  11.693   4.257   5.380
13065SOL     OW41091   3.426   9.433   9.258
13065SOL    HW141092   3.460   9.447   9.347
13065SOL    HW241093   3.402   9.520   9.227
13066SOL     OW41094   5.649  13.003   6.179
13066SOL    HW141095   5.727  13.009   6.124
13066SOL    HW241096   5.579  12.977   6.118
13067SOL     OW41097  13.549  12.068   7.419
13067SOL    HW141098  13.559  12.044   7.511
13067SOL    HW241099  13.560  12.163   7.417
13068SOL     OW41100   2.588   4.304   1.264
13068SOL    HW141101   2.529   4.267   1.329
13068SOL    HW241102   2.539   4.304   1.182
13069SOL     OW41103   2.828   6.702  13.561
13069SOL    HW141104   2.887   6.761  13.608
13069SOL    HW241105   2.871   6.688  13.476
13070SOL     OW41106  11.294  12.918   6.539
13070SOL    HW141107  11.307  12.830   6.505
13070SOL    HW241108  11.204  12.919   6.571
13071SOL     OW41109   0.837   2.752   0.662
13071SOL    HW141110   0.779   2.716   0.729
13071SOL    HW241111   0.778   2.788   0.596
13072SOL     OW41112   0.663   4.090   3.541
13072SOL    HW141113   0.608   4.165   3.521
13072SOL    HW241114   0.606   4.029   3.588
13073SOL     OW41115   5.170   8.968  13.720
13073SOL    HW141116   5.256   8.989  13.759
13073SOL    HW241117   5.133   8.901  13.778
13074SOL     OW41118   0.226   7.649   3.927
13074SOL    HW141119   0.191   7.640   3.838
13074SOL    HW241120   0.153   7.686   3.978
13075SOL     OW41121   9.804  10.199  11.846
13075SOL    HW141122   9.868  10.130  11.828
13075SOL    HW241123   9.802  10.206  11.942
13076SOL     OW41124   4.463   7.839   8.628
13076SOL    HW141125   4.554   7.865   8.645
13076SOL    HW241126   4.470   7.759   8.577
13077SOL     OW41127   8.067   6.833   6.492
13077SOL    HW141128   8.116   6.774   6.435
13077SOL    HW241129   8.021   6.774   6.553
13078SOL     OW41130   0.467   9.503   1.682
13078SOL    HW141131   0.515   9.583   1.704
13078SOL    HW241132   0.465   9.452   1.763
13079SOL     OW41133   2.853   9.371   6.664
13079SOL    HW141134   2.783   9.426   6.699
13079SOL    HW241135   2.832   9.360   6.571
13080SOL     OW41136   1.809   0.530   1.105
13080SOL    HW141137   1.837   0.513   1.015
13080SOL    HW241138   1.729   0.582   1.096
13081SOL     OW41139   1.572   1.007   9.823
13081SOL    HW141140   1.652   0.955   9.830
13081SOL    HW241141   1.596   1.093   9.859
13082SOL     OW41142   0.435  11.340   9.530
13082SOL    HW141143   0.348  11.304   9.510
13082SOL    HW241144   0.484  11.330   9.448
13083SOL     OW41145   4.788   7.402   2.931
13083SOL    HW141146   4.741   7.470   2.978
13083SOL    HW241147   4.864   7.446   2.894
13084SOL     OW41148  12.327  14.790   4.473
13084SOL    HW141149  12.357  14.774   4.562
13084SOL    HW241150  12.232  14.788   4.479
13085SOL     OW41151   3.058   2.971  14.719
13085SOL    HW141152   3.132   2.912  14.737
13085SOL    HW241153   3.040   3.014  14.802
13086SOL     OW41154   0.350   8.473   9.112
13086SOL    HW141155   0.278   8.411   9.125
13086SOL    HW241156   0.341   8.502   9.021
13087SOL     OW41157  13.245  13.955   7.775
13087SOL    HW141158  13.320  13.900   7.753
13087SOL    HW241159  13.172  13.894   7.786
13088SOL     OW41160  13.213  10.679   5.157
13088SOL    HW141161  13.153  10.716   5.222
13088SOL    HW241162  13.156  10.656   5.083
13089SOL     OW41163   0.877   8.972  10.594
13089SOL    HW141164   0.785   8.995  10.592
13089SOL    HW241165   0.896   8.940  10.506
13090SOL     OW41166   5.166   5.559   5.642
13090SOL    HW141167   5.220   5.615   5.586
13090SOL    HW241168   5.080   5.557   5.600
13091SOL     OW41169  10.069   9.118  12.083
13091SOL    HW141170  10.103   9.030  12.096
13091SOL    HW241171  10.058   9.126  11.988
13092SOL     OW41172  11.304   6.448   5.567
13092SOL    HW141173  11.328   6.487   5.651
13092SOL    HW241174  11.214   6.476   5.552
13093SOL     OW41175   1.756  13.708  12.225
13093SOL    HW141176   1.814  13.778  12.195
13093SOL    HW241177   1.743  13.652  12.149
13094SOL     OW41178  11.470   5.472   5.787
13094SOL    HW141179  11.488   5.536   5.856
13094SOL    HW241180  11.552   5.424   5.777
13095SOL     OW41181   7.577  11.791   6.657
13095SOL    HW141182   7.539  11.870   6.694
13095SOL    HW241183   7.525  11.774   6.578
13096SOL     OW41184   1.877  13.179   1.355
13096SOL    HW141185   1.887  13.084   1.361
13096SOL    HW241186   1.904  13.200   1.265
13097SOL     OW41187  14.412   1.554   8.675
13097SOL    HW141188  14.334   1.523   8.627
13097SOL    HW241189  14.435   1.482   8.733
13098SOL     OW41190  10.359  14.806   7.154
13098SOL    HW141191  10.445  14.849   7.162
13098SOL    HW241192  10.337  14.780   7.243
13099SOL     OW41193  14.180   0.340   1.571
13099SOL    HW141194  14.120   0.282   1.619
13099SOL    HW241195  14.251   0.358   1.633
13100SOL     OW41196  10.719  10.092   7.609
13100SOL    HW141197  10.753  10.022   7.553
13100SOL    HW241198  10.625  10.091   7.594
13101SOL     OW41199   7.763  14.221  12.405
13101SOL    HW141200   7.706  14.161  12.453
13101SOL    HW241201   7.730  14.308  12.426
13102SOL     OW41202  13.661   8.265   3.493
13102SOL    HW141203  13.694   8.352   3.474
13102SOL    HW241204  13.706   8.207   3.432
13103SOL     OW41205   3.664   4.139   6.052
13103SOL    HW141206   3.652   4.044   6.047
13103SOL    HW241207   3.698   4.163   5.965
13104SOL     OW41208  12.290   0.767   1.037
13104SOL    HW141209  12.254   0.723   0.960
13104SOL    HW241210  12.344   0.701   1.080
13105SOL     OW41211   5.193   0.772   8.074
13105SOL    HW141212   5.283   0.751   8.097
13105SOL    HW241213   5.158   0.691   8.038
13106SOL     OW41214   3.176   0.693  11.142
13106SOL    HW141215   3.259   0.719  11.181
13106SOL    HW241216   3.123   0.773  11.141
13107SOL     OW41217   4.092  10.456   8.983
13107SOL    HW141218   4.182  10.464   8.952
13107SOL    HW241219   4.043  10.427   8.906
13108SOL     OW41220   0.602   6.199   3.319
13108SOL    HW141221   0.587   6.294   3.318
13108SOL    HW241222   0.530   6.163   3.268
13109SOL     OW41223   2.676  12.384   8.810
13109SOL    HW141224   2.715  12.368   8.896
13109SOL    HW241225   2.710  12.469   8.783
13110SOL     OW41226   7.908  13.592   5.138
13110SOL    HW141227   7.928  13.573   5.230
13110SOL    HW241228   7.813  13.590   5.133
13111SOL     OW41229   6.393   8.251   6.119
13111SOL    HW141230   6.331   8.323   6.106
13111SOL    HW241231   6.410   8.218   6.030
13112SOL     OW41232   3.159   6.349   6.542
13112SOL    HW141233   3.154   6.283   6.473
13112SOL    HW241234   3.067   6.364   6.566
13113SOL     OW41235   6.340   6.455   3.147
13113SOL    HW141236   6.390   6.515   3.203
13113SOL    HW241237   6.314   6.384   3.205
13114SOL     OW41238   7.751  14.134   2.615
13114SOL    HW141239   7.814  14.072   2.578
13114SOL    HW241240   7.666  14.099   2.590
13115SOL     OW41241  11.166   9.758   0.953
13115SOL    HW141242  11.154   9.666   0.980
13115SOL    HW241243  11.094   9.775   0.893
13116SOL     OW41244  11.256   8.758   3.733
13116SOL    HW141245  11.311   8.780   3.808
13116SOL    HW241246  11.244   8.841   3.686
13117SOL     OW41247   4.915   4.682  14.597
13117SOL    HW141248   4.932   4.713  14.686
13117SOL    HW241249   4.946   4.591  14.597
13118SOL     OW41250   4.142  14.166  10.016
13118SOL    HW141251   4.184  14.081  10.011
13118SOL    HW241252   4.156  14.206   9.930
13119SOL     OW41253  10.826   4.251   8.884
13119SOL    HW141254  10.793   4.329   8.928
13119SOL    HW241255  10.836   4.186   8.954
13120SOL     OW41256   6.102   9.989   5.465
13120SOL    HW141257   6.089   9.962   5.556
13120SOL    HW241258   6.021  10.035   5.442
13121SOL     OW41259   9.833   4.261  12.905
13121SOL    HW141260   9.742   4.247  12.880
13121SOL    HW241261   9.880   4.264  12.821
13122SOL     OW41262  13.814   5.402  11.027
13122SOL    HW141263  13.767   5.417  11.109
13122SOL    HW241264  13.745   5.399  10.961
13123SOL     OW41265   2.694   1.932   9.068
13123SOL    HW141266   2.644   1.858   9.033
13123SOL    HW241267   2.674   1.932   9.162
13124SOL     OW41268   0.030   2.270   4.398
13124SOL    HW141269   0.114   2.228   4.417
13124SOL    HW241270   0.046   2.323   4.320
13125SOL     OW41271  11.418   1.329  11.436
13125SOL    HW141272  11.363   1.390  11.484
13125SOL    HW241273  11.395   1.243  11.470
13126SOL     OW41274  13.965   6.494  12.822
13126SOL    HW141275  13.910   6.441  12.763
13126SOL    HW241276  13.911   6.507  12.899
13127SOL     OW41277  14.455   5.938   7.092
13127SOL    HW141278  14.391   5.999   7.130
13127SOL    HW241279  14.413   5.852   7.101
13128SOL     OW41280  12.234   1.229   0.475
13128SOL    HW141281  12.237   1.315   0.434
13128SOL    HW241282  12.150   1.227   0.521
13129SOL     OW41283   3.310  14.376   2.667
13129SOL    HW141284   3.250  14.443   2.632
13129SOL    HW241285   3.394  14.396   2.628
13130SOL     OW41286   8.768  11.013   5.954
13130SOL    HW141287   8.711  10.987   5.881
13130SOL    HW241288   8.824  11.081   5.918
13131SOL     OW41289   9.454   7.459   5.488
13131SOL    HW141290   9.483   7.378   5.445
13131SOL    HW241291   9.417   7.511   5.417
13132SOL     OW41292  12.801  14.536   1.392
13132SOL    HW141293  12.837  14.619   1.425
13132SOL    HW241294  12.854  14.515   1.316
13133SOL     OW41295   5.455   7.895  10.927
13133SOL    HW141296   5.545   7.893  10.893
13133SOL    HW241297   5.461   7.855  11.014
13134SOL     OW41298   8.896  14.624   4.961
13134SOL    HW141299   8.907  14.541   4.914
13134SOL    HW241300   8.868  14.686   4.894
13135SOL     OW41301   3.176   5.280   3.062
13135SOL    HW141302   3.112   5.212   3.041
13135SOL    HW241303   3.149   5.355   3.009
13136SOL     OW41304   0.593   5.201  14.107
13136SOL    HW141305   0.566   5.111  14.088
13136SOL    HW241306   0.654   5.224  14.037
13137SOL     OW41307   3.789  12.161  11.226
13137SOL    HW141308   3.821  12.099  11.291
13137SOL    HW241309   3.770  12.108  11.148
13138SOL     OW41310   5.683   3.357  11.383
13138SOL    HW141311   5.590   3.377  11.397
13138SOL    HW241312   5.715   3.328  11.468
13139SOL     OW41313   5.661   5.453   6.747
13139SOL    HW141314   5.743   5.497   6.725
13139SOL    HW241315   5.602   5.472   6.674
13140SOL     OW41316   6.928   1.573  12.437
13140SOL    HW141317   6.949   1.629  12.363
13140SOL    HW241318   6.950   1.626  12.514
13141SOL     OW41319   8.479   8.999   3.022
13141SOL    HW141320   8.391   9.021   2.992
13141SOL    HW241321   8.515   9.081   3.055
13142SOL     OW41322   1.630   1.079  12.473
13142SOL    HW141323   1.552   1.108  12.426
13142SOL    HW241324   1.666   1.158  12.512
13143SOL     OW41325   2.877   5.870   6.615
13143SOL    HW141326   2.894   5.778   6.639
13143SOL    HW241327   2.960   5.900   6.579
13144SOL     OW41328   5.544   0.843  12.808
13144SOL    HW141329   5.571   0.791  12.883
13144SOL    HW241330   5.483   0.787  12.760
13145SOL     OW41331   5.153   6.378   1.134
13145SOL    HW141332   5.117   6.467   1.143
13145SOL    HW241333   5.189   6.376   1.045
13146SOL     OW41334  13.019   0.892  12.070
13146SOL    HW141335  13.012   0.915  11.977
13146SOL    HW241336  12.953   0.825  12.083
13147SOL     OW41337   9.025   9.516   9.678
13147SOL    HW141338   9.101   9.472   9.639
13147SOL    HW241339   9.062   9.574   9.744
13148SOL     OW41340   8.548  12.470  13.106
13148SOL    HW141341   8.591  12.508  13.183
13148SOL    HW241342   8.543  12.541  13.043
13149SOL     OW41343  10.772   0.342  13.241
13149SOL    HW141344  10.726   0.369  13.161
13149SOL    HW241345  10.712   0.281  13.283
13150SOL     OW41346  10.444  14.041   6.999
13150SOL    HW141347  10.364  14.005   7.039
13150SOL    HW241348  10.432  14.136   7.002
13151SOL     OW41349   9.752   4.445  10.824
13151SOL    HW141350   9.720   4.458  10.735
13151SOL    HW241351   9.716   4.518  10.874
13152SOL     OW41352   6.351   2.612   8.606
13152SOL    HW141353   6.357   2.560   8.525
13152SOL    HW241354   6.261   2.644   8.606
13153SOL     OW41355   5.914   8.766  11.321
13153SOL    HW141356   5.992   8.712  11.333
13153SOL    HW241357   5.879   8.739  11.236
13154SOL     OW41358   8.099   9.036  10.388
13154SOL    HW141359   8.091   9.048  10.482
13154SOL    HW241360   8.194   9.030  10.372
13155SOL     OW41361  11.568   7.340  11.748
13155SOL    HW141362  11.483   7.317  11.786
13155SOL    HW241363  11.567   7.298  11.662
13156SOL     OW41364   5.781   5.250  11.434
13156SOL    HW141365   5.833   5.197  11.373
13156SOL    HW241366   5.723   5.188  11.478
13157SOL     OW41367   6.956  13.535  11.257
13157SOL    HW141368   6.997  13.462  11.211
13157SOL    HW241369   7.026  13.599  11.268
13158SOL     OW41370   7.417  12.928   4.873
13158SOL    HW141371   7.393  12.982   4.948
13158SOL    HW241372   7.429  12.840   4.908
13159SOL     OW41373   4.718   2.473   8.972
13159SOL    HW141374   4.719   2.494   8.879
13159SOL    HW241375   4.628   2.488   8.999
13160SOL     OW41376   5.425   8.633   5.843
13160SOL    HW141377   5.478   8.683   5.780
13160SOL    HW241378   5.344   8.613   5.795
13161SOL     OW41379   7.325  11.661  14.434
13161SOL    HW141380   7.303  11.635  14.345
13161SOL    HW241381   7.413  11.626  14.448
13162SOL     OW41382  14.398   6.089   9.412
13162SOL    HW141383  14.449   6.029   9.467
13162SOL    HW241384  14.317   6.041   9.394
13163SOL     OW41385   2.821  11.424  11.840
13163SOL    HW141386   2.832  11.501  11.896
13163SOL    HW241387   2.907  11.410  11.801
13164SOL     OW41388  12.523   1.163   0.566
13164SOL    HW141389  12.427   1.159   0.574
13164SOL    HW241390  12.539   1.231   0.501
13165SOL     OW41391   1.981   4.523  14.037
13165SOL    HW141392   1.968   4.557  13.948
13165SOL    HW241393   2.016   4.597  14.086
13166SOL     OW41394  12.128   2.353   2.736
13166SOL    HW141395  12.131   2.437   2.783
13166SOL    HW241396  12.148   2.288   2.803
13167SOL     OW41397  11.578  14.404   7.868
13167SOL    HW141398  11.521  14.478   7.888
13167SOL    HW241399  11.666  14.441   7.867
13168SOL     OW41400   1.611   0.107   6.751
13168SOL    HW141401   1.638   0.031   6.701
13168SOL    HW241402   1.532   0.138   6.707
13169SOL     OW41403   4.157   8.235   8.443
13169SOL    HW141404   4.144   8.329   8.446
13169SOL    HW241405   4.252   8.223   8.445
13170SOL     OW41406   0.121   4.226   7.097
13170SOL    HW141407   0.086   4.160   7.036
13170SOL    HW241408   0.192   4.268   7.048
13171SOL     OW41409  14.336   3.261   7.459
13171SOL    HW141410  14.371   3.235   7.373
13171SOL    HW241411  14.378   3.202   7.521
13172SOL     OW41412  14.401   1.474  12.211
13172SOL    HW141413  14.399   1.515  12.297
13172SOL    HW241414  14.356   1.390  12.223
13173SOL     OW41415   3.128   0.991   5.356
13173SOL    HW141416   3.046   1.039   5.361
13173SOL    HW241417   3.132   0.958   5.266
13174SOL     OW41418  14.066   1.703   2.864
13174SOL    HW141419  13.972   1.722   2.861
13174SOL    HW241420  14.099   1.757   2.935
13175SOL     OW41421  12.608  10.832  12.896
13175SOL    HW141422  12.613  10.754  12.952
13175SOL    HW241423  12.699  10.859  12.885
13176SOL     OW41424  12.287   8.168   2.253
13176SOL    HW141425  12.257   8.138   2.339
13176SOL    HW241426  12.211   8.157   2.196
13177SOL     OW41427   0.438   0.286   6.530
13177SOL    HW141428   0.455   0.337   6.609
13177SOL    HW241429   0.440   0.195   6.559
13178SOL     OW41430  12.725   6.910   8.780
13178SOL    HW141431  12.641   6.941   8.747
13178SOL    HW241432  12.741   6.961   8.859
13179SOL     OW41433   5.598  13.751  10.774
13179SOL    HW141434   5.662  13.688  10.740
13179SOL    HW241435   5.595  13.733  10.868
13180SOL     OW41436  13.115  11.618   8.439
13180SOL    HW141437  13.165  11.556   8.385
13180SOL    HW241438  13.145  11.602   8.528
13181SOL     OW41439   4.011   3.348   3.681
13181SOL    HW141440   4.088   3.345   3.738
13181SOL    HW241441   3.941   3.383   3.737
13182SOL     OW41442  12.745   0.487  12.506
13182SOL    HW141443  12.692   0.452  12.434
13182SOL    HW241444  12.684   0.493  12.580
13183SOL     OW41445   0.196   8.217   5.408
13183SOL    HW141446   0.151   8.132   5.403
13183SOL    HW241447   0.283   8.196   5.440
13184SOL     OW41448  12.418   9.880   1.302
13184SOL    HW141449  12.344   9.921   1.347
13184SOL    HW241450  12.469   9.953   1.268
13185SOL     OW41451   7.370   3.660   0.078
13185SOL    HW141452   7.370   3.752   0.052
13185SOL    HW241453   7.370   3.662   0.174
13186SOL     OW41454   9.702   2.513   2.802
13186SOL    HW141455   9.672   2.459   2.728
13186SOL    HW241456   9.798   2.508   2.797
13187SOL     OW41457  13.692   9.256  14.542
13187SOL    HW141458  13.708   9.216  14.456
13187SOL    HW241459  13.727   9.192  14.604
13188SOL     OW41460   2.338   1.826  11.781
13188SOL    HW141461   2.247   1.830  11.810
13188SOL    HW241462   2.381   1.898  11.827
13189SOL     OW41463   4.948   7.650  10.034
13189SOL    HW141464   4.899   7.703   9.971
13189SOL    HW241465   5.039   7.678  10.023
13190SOL     OW41466   4.658   9.538   4.518
13190SOL    HW141467   4.569   9.516   4.494
13190SOL    HW241468   4.712   9.470   4.477
13191SOL     OW41469  13.901  13.362  14.374
13191SOL    HW141470  13.928  13.317  14.454
13191SOL    HW241471  13.807  13.347  14.369
13192SOL     OW41472  10.731   9.613   9.917
13192SOL    HW141473  10.684   9.664   9.851
13192SOL    HW241474  10.774   9.678   9.972
13193SOL     OW41475  11.903   7.978   3.403
13193SOL    HW141476  11.872   7.931   3.326
13193SOL    HW241477  11.969   7.921   3.442
13194SOL     OW41478  11.975  10.123   0.766
13194SOL    HW141479  11.964  10.140   0.672
13194SOL    HW241480  11.956  10.029   0.775
13195SOL     OW41481  12.713   8.971   7.418
13195SOL    HW141482  12.793   8.920   7.432
13195SOL    HW241483  12.643   8.916   7.454
13196SOL     OW41484   5.638   0.097   7.383
13196SOL    HW141485   5.680   0.073   7.300
13196SOL    HW241486   5.617   0.189   7.373
13197SOL     OW41487  12.899   3.783   3.143
13197SOL    HW141488  12.845   3.751   3.070
13197SOL    HW241489  12.905   3.878   3.128
13198SOL     OW41490   5.660  10.048   6.457
13198SOL    HW141491   5.722  10.047   6.530
13198SOL    HW241492   5.708  10.008   6.385
13199SOL     OW41493  12.561   3.681   2.253
13199SOL    HW141494  12.586   3.602   2.302
13199SOL    HW241495  12.465   3.681   2.256
13200SOL     OW41496   4.412   5.980   8.099
13200SOL    HW141497   4.470   6.032   8.154
13200SOL    HW241498   4.327   5.983   8.143
13201SOL     OW41499  12.942   1.390  12.230
13201SOL    HW141500  12.896   1.443  12.165
13201SOL    HW241501  12.915   1.428  12.314
13202SOL     OW41502  11.207   0.791  10.250
13202SOL    HW141503  11.220   0.739  10.171
13202SOL    HW241504  11.157   0.868  10.220
13203SOL     OW41505  12.862   8.058   2.317
13203SOL    HW141506  12.876   8.073   2.223
13203SOL    HW241507  12.920   7.984   2.337
13204SOL     OW41508  14.601  11.041   4.708
13204SOL    HW141509  14.644  11.119   4.743
13204SOL    HW241510  14.516  11.040   4.751
13205SOL     OW41511  14.870   6.289   1.372
13205SOL    HW141512  14.797   6.326   1.421
13205SOL    HW241513  14.860   6.325   1.284
13206SOL     OW41514  10.014   0.152  13.238
13206SOL    HW141515   9.972   0.069  13.261
13206SOL    HW241516  10.107   0.138  13.256
13207SOL     OW41517   6.089   2.403  12.960
13207SOL    HW141518   6.134   2.342  13.018
13207SOL    HW241519   6.050   2.347  12.893
13208SOL     OW41520   5.948  14.799   8.661
13208SOL    HW141521   5.951  14.708   8.632
13208SOL    HW241522   5.996  14.800   8.743
13209SOL     OW41523   4.817  13.312  12.486
13209SOL    HW141524   4.726  13.290  12.505
13209SOL    HW241525   4.838  13.262  12.407
13210SOL     OW41526  13.291  11.511   8.264
13210SOL    HW141527  13.347  11.475   8.333
13210SOL    HW241528  13.350  11.562   8.209
13211SOL     OW41529  12.495   8.869   6.911
13211SOL    HW141530  12.405   8.886   6.940
13211SOL    HW241531  12.530   8.955   6.890
13212SOL     OW41532   2.916   5.935   0.882
13212SOL    HW141533   2.904   6.004   0.817
13212SOL    HW241534   2.908   5.854   0.832
13213SOL     OW41535   3.639   8.359   4.734
13213SOL    HW141536   3.665   8.341   4.644
13213SOL    HW241537   3.616   8.452   4.735
13214SOL     OW41538  13.485   4.229  10.004
13214SOL    HW141539  13.394   4.255  10.011
13214SOL    HW241540  13.482   4.140   9.970
13215SOL     OW41541   0.875   9.878   8.001
13215SOL    HW141542   0.816   9.934   7.951
13215SOL    HW241543   0.919   9.938   8.062
13216SOL     OW41544  11.504   9.473   6.287
13216SOL    HW141545  11.595   9.457   6.260
13216SOL    HW241546  11.504   9.563   6.319
13217SOL     OW41547  14.619   3.809   0.214
13217SOL    HW141548  14.598   3.770   0.299
13217SOL    HW241549  14.715   3.811   0.211
13218SOL     OW41550   2.653  10.425   2.771
13218SOL    HW141551   2.616  10.501   2.727
13218SOL    HW241552   2.740  10.453   2.799
13219SOL     OW41553  10.705   9.584  13.746
13219SOL    HW141554  10.779   9.527  13.726
13219SOL    HW241555  10.683   9.624  13.662
13220SOL     OW41556  11.446   3.806   1.888
13220SOL    HW141557  11.395   3.882   1.915
13220SOL    HW241558  11.532   3.819   1.926
13221SOL     OW41559   0.814   4.889   3.557
13221SOL    HW141560   0.904   4.904   3.530
13221SOL    HW241561   0.784   4.973   3.592
13222SOL     OW41562  10.487   6.708  13.171
13222SOL    HW141563  10.522   6.793  13.198
13222SOL    HW241564  10.563   6.651  13.164
13223SOL     OW41565   9.896   9.589   9.391
13223SOL    HW141566   9.970   9.594   9.451
13223SOL    HW241567   9.819   9.589   9.447
13224SOL     OW41568  10.160   6.000   2.848
13224SOL    HW141569  10.221   6.012   2.775
13224SOL    HW241570  10.122   6.087   2.861
13225SOL     OW41571  13.648   6.429   7.682
13225SOL    HW141572  13.574   6.489   7.672
13225SOL    HW241573  13.722   6.476   7.643
13226SOL     OW41574  12.947   6.333   3.697
13226SOL    HW141575  12.877   6.380   3.653
13226SOL    HW241576  12.905   6.294   3.774
13227SOL     OW41577   0.976  13.947   2.739
13227SOL    HW141578   0.964  13.907   2.825
13227SOL    HW241579   0.975  13.873   2.678
13228SOL     OW41580  10.081   0.414   5.614
13228SOL    HW141581  10.105   0.427   5.522
13228SOL    HW241582  10.162   0.430   5.662
13229SOL     OW41583   6.238   4.927   4.332
13229SOL    HW141584   6.200   4.935   4.419
13229SOL    HW241585   6.199   4.848   4.296
13230SOL     OW41586   3.991  12.983  11.118
13230SOL    HW141587   4.077  12.961  11.080
13230SOL    HW241588   3.978  13.074  11.095
13231SOL     OW41589  14.829   8.243   9.313
13231SOL    HW141590  14.753   8.222   9.366
13231SOL    HW241591  14.802   8.319   9.261
13232SOL     OW41592   8.264   7.209  12.583
13232SOL    HW141593   8.287   7.268  12.655
13232SOL    HW241594   8.189   7.159  12.616
13233SOL     OW41595   1.899   0.790   6.932
13233SOL    HW141596   1.987   0.822   6.954
13233SOL    HW241597   1.905   0.695   6.944
13234SOL     OW41598   0.125   4.973   3.723
13234SOL    HW141599   0.163   4.886   3.715
13234SOL    HW241600   0.138   5.013   3.637
13235SOL     OW41601   7.508   7.815   3.877
13235SOL    HW141602   7.599   7.801   3.854
13235SOL    HW241603   7.498   7.910   3.877
13236SOL     OW41604   0.906  10.568   9.407
13236SOL    HW141605   0.831  10.619   9.438
13236SOL    HW241606   0.926  10.509   9.480
13237SOL     OW41607   9.017   9.987  10.268
13237SOL    HW141608   8.924   9.973  10.252
13237SOL    HW241609   9.037  10.069  10.223
13238SOL     OW41610   4.638  12.553  13.887
13238SOL    HW141611   4.626  12.623  13.951
13238SOL    HW241612   4.694  12.489  13.931
13239SOL     OW41613  10.240   6.748   7.467
13239SOL    HW141614  10.231   6.805   7.544
13239SOL    HW241615  10.237   6.808   7.393
13240SOL     OW41616  11.015   6.310  14.325
13240SOL    HW141617  11.008   6.347  14.237
13240SOL    HW241618  11.011   6.386  14.383
13241SOL     OW41619  10.510  11.374  14.366
13241SOL    HW141620  10.527  11.283  14.341
13241SOL    HW241621  10.533  11.378  14.459
13242SOL     OW41622   5.444   0.656   8.185
13242SOL    HW141623   5.464   0.570   8.149
13242SOL    HW241624   5.501   0.717   8.137
13243SOL     OW41625  10.879  13.350   6.729
13243SOL    HW141626  10.857  13.440   6.753
13243SOL    HW241627  10.930  13.317   6.803
13244SOL     OW41628   9.258   6.485   7.639
13244SOL    HW141629   9.244   6.579   7.627
13244SOL    HW241630   9.197   6.444   7.577
13245SOL     OW41631   0.305   4.509   0.342
13245SOL    HW141632   0.288   4.578   0.278
13245SOL    HW241633   0.380   4.540   0.391
13246SOL     OW41634   7.009   7.488   9.359
13246SOL    HW141635   7.029   7.553   9.426
13246SOL    HW241636   6.960   7.536   9.292
13247SOL     OW41637   3.303   2.174   3.762
13247SOL    HW141638   3.318   2.250   3.819
13247SOL    HW241639   3.286   2.212   3.676
13248SOL     OW41640   0.046   7.775   1.420
13248SOL    HW141641   0.019   7.701   1.366
13248SOL    HW241642  14.869   7.769   1.498
13249SOL     OW41643   1.990   1.299   7.446
13249SOL    HW141644   2.024   1.335   7.364
13249SOL    HW241645   1.932   1.367   7.480
13250SOL     OW41646  12.381  13.956  13.960
13250SOL    HW141647  12.435  13.932  14.035
13250SOL    HW241648  12.389  13.882  13.900
13251SOL     OW41649   5.491  11.664   0.666
13251SOL    HW141650   5.460  11.707   0.586
13251SOL    HW241651   5.415  11.659   0.723
13252SOL     OW41652  14.311  11.491   0.823
13252SOL    HW141653  14.316  11.524   0.734
13252SOL    HW241654  14.401  11.496   0.855
13253SOL     OW41655  14.229  11.413   2.684
13253SOL    HW141656  14.315  11.386   2.654
13253SOL    HW241657  14.239  11.425   2.779
13254SOL     OW41658   3.189  10.650   2.543
13254SOL    HW141659   3.193  10.584   2.475
13254SOL    HW241660   3.135  10.720   2.506
13255SOL     OW41661   0.615   2.690   1.550
13255SOL    HW141662   0.706   2.718   1.559
13255SOL    HW241663   0.588   2.721   1.464
13256SOL     OW41664  11.409   0.756  14.432
13256SOL    HW141665  11.363   0.707  14.364
13256SOL    HW241666  11.399   0.848  14.407
13257SOL     OW41667   2.844   7.968  10.130
13257SOL    HW141668   2.792   7.939  10.054
13257SOL    HW241669   2.837   8.064  10.128
13258SOL     OW41670   9.936   8.334   0.276
13258SOL    HW141671   9.876   8.293   0.214
13258SOL    HW241672  10.017   8.347   0.227
13259SOL     OW41673   5.171   8.293   9.022
13259SOL    HW141674   5.119   8.373   9.032
13259SOL    HW241675   5.148   8.240   9.098
13260SOL     OW41676   3.454   8.562  12.289
13260SOL    HW141677   3.521   8.495  12.278
13260SOL    HW241678   3.489   8.639  12.244
13261SOL     OW41679  12.717   5.130   6.383
13261SOL    HW141680  12.786   5.064   6.371
13261SOL    HW241681  12.644   5.081   6.420
13262SOL     OW41682  12.462   5.334   1.119
13262SOL    HW141683  12.373   5.365   1.104
13262SOL    HW241684  12.518   5.399   1.077
13263SOL     OW41685  11.461   8.157   4.008
13263SOL    HW141686  11.405   8.105   3.951
13263SOL    HW241687  11.424   8.146   4.095
13264SOL     OW41688   9.247   3.172   5.695
13264SOL    HW141689   9.283   3.165   5.606
13264SOL    HW241690   9.322   3.190   5.750
13265SOL     OW41691  14.846   7.414   6.102
13265SOL    HW141692  14.792   7.413   6.022
13265SOL    HW241693   0.058   7.403   6.070
13266SOL     OW41694   3.261  13.037   4.595
13266SOL    HW141695   3.248  13.118   4.545
13266SOL    HW241696   3.355  13.023   4.594
13267SOL     OW41697   1.923   8.993   0.293
13267SOL    HW141698   2.001   8.957   0.252
13267SOL    HW241699   1.882   9.046   0.224
13268SOL     OW41700   6.326  13.601   6.805
13268SOL    HW141701   6.359  13.574   6.891
13268SOL    HW241702   6.345  13.695   6.801
13269SOL     OW41703   6.028   7.385   8.547
13269SOL    HW141704   5.966   7.313   8.558
13269SOL    HW241705   6.046   7.415   8.636
13270SOL     OW41706   4.607   1.144   2.896
13270SOL    HW141707   4.582   1.210   2.962
13270SOL    HW241708   4.701   1.131   2.909
13271SOL     OW41709  13.195  11.910  10.684
13271SOL    HW141710  13.252  11.955  10.746
13271SOL    HW241711  13.188  11.971  10.610
13272SOL     OW41712   8.589   0.702   8.879
13272SOL    HW141713   8.557   0.652   8.804
13272SOL    HW241714   8.510   0.727   8.927
13273SOL     OW41715   1.209  13.661   6.277
13273SOL    HW141716   1.209  13.566   6.283
13273SOL    HW241717   1.121  13.683   6.247
13274SOL     OW41718   3.374   1.694  13.226
13274SOL    HW141719   3.370   1.660  13.315
13274SOL    HW241720   3.400   1.619  13.172
13275SOL     OW41721   9.687  14.677   0.248
13275SOL    HW141722   9.747  14.609   0.218
13275SOL    HW241723   9.708  14.687   0.341
13276SOL     OW41724   2.370   7.363  12.561
13276SOL    HW141725   2.311   7.436  12.540
13276SOL    HW241726   2.450   7.406  12.592
13277SOL     OW41727  14.586   2.043   2.390
13277SOL    HW141728  14.657   2.104   2.409
13277SOL    HW241729  14.512   2.098   2.364
13278SOL     OW41730   2.450   4.381  14.464
13278SOL    HW141731   2.420   4.460  14.417
13278SOL    HW241732   2.476   4.321  14.395
13279SOL     OW41733   3.007   2.333  12.063
13279SOL    HW141734   3.013   2.429  12.061
13279SOL    HW241735   2.990   2.308  11.972
13280SOL     OW41736   4.859   2.643  14.094
13280SOL    HW141737   4.948   2.652  14.127
13280SOL    HW241738   4.870   2.622  14.001
13281SOL     OW41739   4.406   9.261   3.044
13281SOL    HW141740   4.318   9.269   3.079
13281SOL    HW241741   4.464   9.290   3.115
13282SOL     OW41742   0.739   9.464  11.130
13282SOL    HW141743   0.818   9.458  11.184
13282SOL    HW241744   0.753   9.542  11.077
13283SOL     OW41745   4.622   5.134   3.422
13283SOL    HW141746   4.573   5.054   3.441
13283SOL    HW241747   4.646   5.168   3.508
13284SOL     OW41748   5.038  13.867  12.450
13284SOL    HW141749   5.012  13.946  12.403
13284SOL    HW241750   4.969  13.855  12.516
13285SOL     OW41751   9.338   8.681  13.401
13285SOL    HW141752   9.261   8.635  13.435
13285SOL    HW241753   9.306   8.729  13.325
13286SOL     OW41754   0.865   8.008  11.954
13286SOL    HW141755   0.786   8.037  11.999
13286SOL    HW241756   0.834   7.972  11.871
13287SOL     OW41757  14.854   9.690  11.436
13287SOL    HW141758  14.811   9.605  11.443
13287SOL    HW241759   0.060   9.679  11.482
13288SOL     OW41760   3.210   0.976   5.659
13288SOL    HW141761   3.196   0.898   5.605
13288SOL    HW241762   3.126   1.023   5.656
13289SOL     OW41763  12.054   1.908  11.467
13289SOL    HW141764  12.001   1.883  11.543
13289SOL    HW241765  12.082   1.998  11.485
13290SOL     OW41766   9.848   1.771   9.177
13290SOL    HW141767   9.785   1.813   9.119
13290SOL    HW241768   9.805   1.690   9.205
13291SOL     OW41769   2.437  12.333   8.635
13291SOL    HW141770   2.524  12.342   8.674
13291SOL    HW241771   2.434  12.400   8.567
13292SOL     OW41772  12.941  13.515   0.870
13292SOL    HW141773  12.944  13.513   0.965
13292SOL    HW241774  12.967  13.427   0.843
13293SOL     OW41775  13.051  11.980  14.398
13293SOL    HW141776  13.046  11.938  14.312
13293SOL    HW241777  13.081  12.068  14.379
13294SOL     OW41778  14.544  11.337   2.645
13294SOL    HW141779  14.640  11.339   2.646
13294SOL    HW241780  14.522  11.317   2.554
13295SOL     OW41781  11.211   7.988   9.895
13295SOL    HW141782  11.177   8.077   9.884
13295SOL    HW241783  11.184   7.963   9.983
13296SOL     OW41784  11.887  13.648  10.705
13296SOL    HW141785  11.798  13.684  10.704
13296SOL    HW241786  11.929  13.691  10.779
13297SOL     OW41787  14.432  14.792  12.062
13297SOL    HW141788  14.404  14.869  12.112
13297SOL    HW241789  14.447  14.826  11.974
13298SOL     OW41790   7.241   5.244   3.524
13298SOL    HW141791   7.219   5.249   3.617
13298SOL    HW241792   7.314   5.183   3.520
13299SOL     OW41793   7.180  13.038  10.243
13299SOL    HW141794   7.143  13.075  10.163
13299SOL    HW241795   7.117  13.062  10.312
13300SOL     OW41796  13.262   4.339  11.203
13300SOL    HW141797  13.240   4.257  11.247
13300SOL    HW241798  13.180   4.366  11.162
13301SOL     OW41799   6.204   6.233   6.898
13301SOL    HW141800   6.245   6.318   6.918
13301SOL    HW241801   6.267   6.188   6.843
13302SOL     OW41802  11.637   2.637   5.906
13302SOL    HW141803  11.604   2.601   5.988
13302SOL    HW241804  11.656   2.560   5.852
13303SOL     OW41805  11.370   0.230   4.278
13303SOL    HW141806  11.397   0.317   4.248
13303SOL    HW241807  11.339   0.244   4.367
13304SOL     OW41808   1.566   2.935   0.652
13304SOL    HW141809   1.473   2.957   0.660
13304SOL    HW241810   1.581   2.931   0.558
13305SOL     OW41811   2.076   3.850   7.750
13305SOL    HW141812   2.089   3.852   7.655
13305SOL    HW241813   1.995   3.799   7.762
13306SOL     OW41814   5.227   6.355  12.295
13306SOL    HW141815   5.239   6.383  12.204
13306SOL    HW241816   5.278   6.417  12.346
13307SOL     OW41817   5.587   1.960   5.925
13307SOL    HW141818   5.606   2.005   5.843
13307SOL    HW241819   5.601   1.868   5.905
13308SOL     OW41820   8.453  10.817   3.214
13308SOL    HW141821   8.460  10.752   3.283
13308SOL    HW241822   8.364  10.808   3.180
13309SOL     OW41823   6.204  14.310  10.552
13309SOL    HW141824   6.180  14.281  10.640
13309SOL    HW241825   6.190  14.405  10.554
13310SOL     OW41826  12.795   6.098  13.003
13310SOL    HW141827  12.772   6.010  12.973
13310SOL    HW241828  12.747   6.157  12.944
13311SOL     OW41829   0.572  13.806   7.551
13311SOL    HW141830   0.665  13.790   7.568
13311SOL    HW241831   0.548  13.740   7.486
13312SOL     OW41832  14.596   1.107  14.260
13312SOL    HW141833  14.618   1.079  14.171
13312SOL    HW241834  14.534   1.179  14.248
13313SOL     OW41835  10.904   3.528  10.829
13313SOL    HW141836  10.820   3.540  10.873
13313SOL    HW241837  10.889   3.457  10.767
13314SOL     OW41838   0.517   4.299   4.962
13314SOL    HW141839   0.562   4.327   4.882
13314SOL    HW241840   0.568   4.225   4.995
13315SOL     OW41841   3.596   6.694   9.360
13315SOL    HW141842   3.520   6.703   9.418
13315SOL    HW241843   3.575   6.618   9.306
13316SOL     OW41844  13.037   3.461   6.885
13316SOL    HW141845  13.106   3.445   6.949
13316SOL    HW241846  12.956   3.442   6.932
13317SOL     OW41847  11.055   7.875  11.566
13317SOL    HW141848  11.081   7.961  11.534
13317SOL    HW241849  11.134   7.821  11.558
13318SOL     OW41850   1.856   2.932   1.060
13318SOL    HW141851   1.831   2.879   0.985
13318SOL    HW241852   1.925   2.990   1.027
13319SOL     OW41853   9.176   7.034   9.131
13319SOL    HW141854   9.232   6.959   9.112
13319SOL    HW241855   9.146   7.064   9.045
13320SOL     OW41856  13.856   5.091  10.748
13320SOL    HW141857  13.855   5.045  10.664
13320SOL    HW241858  13.919   5.162  10.737
13321SOL     OW41859   0.694  10.773   6.258
13321SOL    HW141860   0.726  10.851   6.303
13321SOL    HW241861   0.741  10.772   6.174
13322SOL     OW41862   1.902   8.173  13.992
13322SOL    HW141863   1.926   8.103  13.931
13322SOL    HW241864   1.856   8.128  14.063
13323SOL     OW41865   0.240  14.259   0.359
13323SOL    HW141866   0.327  14.296   0.340
13323SOL    HW241867   0.192  14.331   0.401
13324SOL     OW41868   9.918   0.404   8.650
13324SOL    HW141869   9.866   0.470   8.604
13324SOL    HW241870  10.000   0.449   8.672
13325SOL     OW41871   2.072   2.717   6.212
13325SOL    HW141872   2.081   2.624   6.191
13325SOL    HW241873   2.116   2.727   6.296
13326SOL     OW41874   8.901   7.654   7.581
13326SOL    HW141875   8.995   7.663   7.565
13326SOL    HW241876   8.873   7.739   7.613
13327SOL     OW41877   0.216  14.472   9.923
13327SOL    HW141878   0.219  14.566   9.909
13327SOL    HW241879   0.136  14.444   9.879
13328SOL     OW41880   4.663   1.256  11.371
13328SOL    HW141881   4.615   1.338  11.383
13328SOL    HW241882   4.755   1.280  11.385
13329SOL     OW41883   9.280  13.598   2.707
13329SOL    HW141884   9.367  13.610   2.670
13329SOL    HW241885   9.294  13.542   2.784
13330SOL     OW41886  11.269  10.387   3.836
13330SOL    HW141887  11.221  10.318   3.791
13330SOL    HW241888  11.358  10.380   3.803
13331SOL     OW41889   9.189  10.241   6.711
13331SOL    HW141890   9.180  10.316   6.652
13331SOL    HW241891   9.276  10.252   6.750
13332SOL     OW41892   9.132   1.603   5.703
13332SOL    HW141893   9.110   1.625   5.612
13332SOL    HW241894   9.226   1.583   5.701
13333SOL     OW41895   4.902  13.796   3.787
13333SOL    HW141896   4.851  13.830   3.860
13333SOL    HW241897   4.948  13.720   3.823
13334SOL     OW41898   9.645   8.003   6.223
13334SOL    HW141899   9.649   7.908   6.230
13334SOL    HW241900   9.646   8.034   6.314
13335SOL     OW41901   2.861  14.350   2.207
13335SOL    HW141902   2.781  14.402   2.201
13335SOL    HW241903   2.890  14.360   2.298
13336SOL     OW41904   5.157   4.450   9.885
13336SOL    HW141905   5.099   4.400   9.943
13336SOL    HW241906   5.243   4.409   9.896
13337SOL     OW41907   6.435   2.091   6.166
13337SOL    HW141908   6.393   2.005   6.166
13337SOL    HW241909   6.466   2.103   6.255
13338SOL     OW41910   6.071   5.255   5.042
13338SOL    HW141911   6.105   5.321   5.102
13338SOL    HW241912   6.095   5.172   5.083
13339SOL     OW41913   0.271   2.794   6.206
13339SOL    HW141914   0.226   2.774   6.124
13339SOL    HW241915   0.224   2.871   6.240
13340SOL     OW41916  13.871   1.256  14.736
13340SOL    HW141917  13.917   1.339  14.748
13340SOL    HW241918  13.848   1.229  14.825
13341SOL     OW41919   5.337   3.841  14.866
13341SOL    HW141920   5.356   3.834  14.772
13341SOL    HW241921   5.361   3.756   0.024
13342SOL     OW41922  14.683  11.130   7.118
13342SOL    HW141923  14.681  11.042   7.080
13342SOL    HW241924  14.675  11.189   7.043
13343SOL     OW41925   2.073   9.086   5.319
13343SOL    HW141926   2.060   9.041   5.402
13343SOL    HW241927   2.087   9.177   5.344
13344SOL     OW41928  14.773   2.591   5.812
13344SOL    HW141929  14.860   2.553   5.802
13344SOL    HW241930  14.744   2.609   5.722
13345SOL     OW41931   7.938   4.960  12.009
13345SOL    HW141932   8.006   4.983  11.946
13345SOL    HW241933   7.958   5.011  12.087
13346SOL     OW41934   8.321   6.958   7.284
13346SOL    HW141935   8.317   7.048   7.317
13346SOL    HW241936   8.382   6.962   7.211
13347SOL     OW41937   4.849  10.284  12.192
13347SOL    HW141938   4.881  10.328  12.113
13347SOL    HW241939   4.782  10.343  12.226
13348SOL     OW41940   9.832   0.098  13.971
13348SOL    HW141941   9.903   0.111  14.033
13348SOL    HW241942   9.857   0.149  13.894
13349SOL     OW41943  11.340   5.820   5.797
13349SOL    HW141944  11.420   5.862   5.828
13349SOL    HW241945  11.270   5.861   5.849
13350SOL     OW41946   8.439   3.759   0.667
13350SOL    HW141947   8.375   3.720   0.608
13350SOL    HW241948   8.417   3.724   0.753
13351SOL     OW41949   0.645  12.955  12.373
13351SOL    HW141950   0.721  12.968  12.429
13351SOL    HW241951   0.677  12.898  12.302
13352SOL     OW41952  11.226   3.406   9.405
13352SOL    HW141953  11.284   3.389   9.331
13352SOL    HW241954  11.284   3.417   9.480
13353SOL     OW41955   7.478  14.867   0.619
13353SOL    HW141956   7.568  14.853   0.648
13353SOL    HW241957   7.466   0.084   0.622
13354SOL     OW41958  14.593  10.340   6.847
13354SOL    HW141959  14.645  10.386   6.913
13354SOL    HW241960  14.643  10.348   6.766
13355SOL     OW41961   0.004   8.386   5.570
13355SOL    HW141962  14.798   8.433   5.573
13355SOL    HW241963   0.041   8.408   5.485
13356SOL     OW41964  13.594  13.390   4.231
13356SOL    HW141965  13.585  13.470   4.283
13356SOL    HW241966  13.515  13.340   4.250
13357SOL     OW41967   0.799   6.472   4.229
13357SOL    HW141968   0.816   6.566   4.228
13357SOL    HW241969   0.819   6.443   4.139
13358SOL     OW41970   6.506   0.253   4.868
13358SOL    HW141971   6.509   0.157   4.865
13358SOL    HW241972   6.421   0.275   4.831
13359SOL     OW41973  10.008   1.357   3.622
13359SOL    HW141974   9.988   1.438   3.669
13359SOL    HW241975   9.923   1.316   3.606
13360SOL     OW41976   4.519  11.805  11.345
13360SOL    HW141977   4.473  11.735  11.299
13360SOL    HW241978   4.611  11.789  11.328
13361SOL     OW41979   0.574  14.019   3.993
13361SOL    HW141980   0.589  13.925   3.998
13361SOL    HW241981   0.655  14.054   3.955
13362SOL     OW41982   8.373   0.827   6.967
13362SOL    HW141983   8.332   0.834   7.053
13362SOL    HW241984   8.449   0.770   6.981
13363SOL     OW41985   5.797   9.460   1.284
13363SOL    HW141986   5.758   9.412   1.211
13363SOL    HW241987   5.865   9.402   1.318
13364SOL     OW41988  13.400   7.578   1.338
13364SOL    HW141989  13.438   7.495   1.367
13364SOL    HW241990  13.369   7.619   1.418
13365SOL     OW41991   4.466  11.102   1.303
13365SOL    HW141992   4.403  11.037   1.334
13365SOL    HW241993   4.549  11.054   1.296
13366SOL     OW41994  13.442  11.971   5.002
13366SOL    HW141995  13.363  12.023   4.984
13366SOL    HW241996  13.430  11.939   5.091
13367SOL     OW41997   1.591  12.214  13.696
13367SOL    HW141998   1.575  12.239  13.787
13367SOL    HW241999   1.675  12.167  13.699
13368SOL     OW42000   8.217   1.564   1.076
13368SOL    HW142001   8.165   1.639   1.104
13368SOL    HW242002   8.190   1.548   0.985
13369SOL     OW42003   9.705   3.342   0.468
13369SOL    HW142004   9.616   3.373   0.452
13369SOL    HW242005   9.742   3.407   0.528
13370SOL     OW42006   0.139   4.155  11.678
13370SOL    HW142007   0.158   4.117  11.763
13370SOL    HW242008   0.208   4.221  11.664
13371SOL     OW42009   5.361  10.915  13.975
13371SOL    HW142010   5.363  10.824  13.944
13371SOL    HW242011   5.390  10.910  14.066
13372SOL     OW42012   7.030   0.246   9.407
13372SOL    HW142013   6.935   0.247   9.420
13372SOL    HW242014   7.050   0.154   9.387
13373SOL     OW42015   1.292   2.306   5.272
13373SOL    HW142016   1.355   2.239   5.245
13373SOL    HW242017   1.222   2.300   5.207
13374SOL     OW42018   1.937  14.523   3.354
13374SOL    HW142019   1.895  14.527   3.440
13374SOL    HW242020   1.865  14.512   3.292
13375SOL     OW42021  13.687  11.110   6.961
13375SOL    HW142022  13.717  11.199   6.941
13375SOL    HW242023  13.603  11.123   7.005
13376SOL     OW42024  11.404  10.532   6.579
13376SOL    HW142025  11.313  10.555   6.562
13376SOL    HW242026  11.455  10.587   6.519
13377SOL     OW42027   6.806  11.021   0.373
13377SOL    HW142028   6.828  11.079   0.446
13377SOL    HW242029   6.867  11.046   0.303
13378SOL     OW42030   2.107   2.067   4.435
13378SOL    HW142031   2.016   2.037   4.423
13378SOL    HW242032   2.106   2.157   4.405
13379SOL     OW42033   4.962   7.497  10.597
13379SOL    HW142034   4.948   7.480  10.504
13379SOL    HW242035   4.998   7.414  10.631
13380SOL     OW42036  11.174   9.597  14.576
13380SOL    HW142037  11.170   9.503  14.591
13380SOL    HW242038  11.254   9.610  14.525
13381SOL     OW42039   2.393   6.360   6.771
13381SOL    HW142040   2.410   6.453   6.784
13381SOL    HW242041   2.339   6.334   6.846
13382SOL     OW42042   8.323   0.983   4.636
13382SOL    HW142043   8.253   0.922   4.611
13382SOL    HW242044   8.391   0.928   4.674
13383SOL     OW42045   1.698   8.959   2.587
13383SOL    HW142046   1.747   9.036   2.614
13383SOL    HW242047   1.631   8.992   2.527
13384SOL     OW42048   2.681  14.323   8.179
13384SOL    HW142049   2.643  14.398   8.225
13384SOL    HW242050   2.616  14.253   8.191
13385SOL     OW42051   4.354   1.586  10.389
13385SOL    HW142052   4.282   1.635  10.350
13385SOL    HW242053   4.387   1.531  10.317
13386SOL     OW42054   8.166  14.287   9.251
13386SOL    HW142055   8.202  14.282   9.163
13386SOL    HW242056   8.072  14.275   9.239
13387SOL     OW42057   2.675  10.443   4.874
13387SOL    HW142058   2.618  10.375   4.838
13387SOL    HW242059   2.715  10.404   4.951
13388SOL     OW42060  12.753   0.792  11.464
13388SOL    HW142061  12.748   0.869  11.520
13388SOL    HW242062  12.832   0.806  11.411
13389SOL     OW42063   0.862   1.048   6.283
13389SOL    HW142064   0.887   1.022   6.372
13389SOL    HW242065   0.870   0.968   6.231
13390SOL     OW42066   7.764  10.065   7.558
13390SOL    HW142067   7.679  10.057   7.601
13390SOL    HW242068   7.828  10.052   7.628
13391SOL     OW42069   1.087  12.946   6.045
13391SOL    HW142070   1.043  12.883   6.102
13391SOL    HW242071   1.179  12.920   6.046
13392SOL     OW42072   2.117  12.454   8.411
13392SOL    HW142073   2.023  12.445   8.395
13392SOL    HW242074   2.123  12.507   8.491
13393SOL     OW42075   7.771  13.358  11.747
13393SOL    HW142076   7.737  13.419  11.682
13393SOL    HW242077   7.780  13.275  11.700
13394SOL     OW42078   3.691  13.302  12.505
13394SOL    HW142079   3.765  13.301  12.444
13394SOL    HW242080   3.728  13.270  12.587
13395SOL     OW42081   9.496  13.879   9.686
13395SOL    HW142082   9.529  13.965   9.662
13395SOL    HW242083   9.489  13.832   9.602
13396SOL     OW42084  12.988   9.015   8.343
13396SOL    HW142085  13.021   8.973   8.423
13396SOL    HW242086  12.911   9.065   8.372
13397SOL     OW42087   8.398  10.263   5.235
13397SOL    HW142088   8.469  10.325   5.218
13397SOL    HW242089   8.408  10.197   5.166
13398SOL     OW42090   9.637  10.334   2.573
13398SOL    HW142091   9.676  10.421   2.578
13398SOL    HW242092   9.554  10.347   2.529
13399SOL     OW42093   1.373  14.648   2.506
13399SOL    HW142094   1.435  14.628   2.437
13399SOL    HW242095   1.404  14.598   2.582
13400SOL     OW42096   7.691   2.195   4.088
13400SOL    HW142097   7.756   2.250   4.044
13400SOL    HW242098   7.616   2.194   4.029
13401SOL     OW42099  11.659   6.661   7.595
13401SOL    HW142100  11.745   6.646   7.635
13401SOL    HW242101  11.597   6.637   7.663
13402SOL     OW42102  10.411   3.840  14.587
13402SOL    HW142103  10.454   3.758  14.562
13402SOL    HW242104  10.418   3.843  14.682
13403SOL     OW42105  12.625   0.560   8.715
13403SOL    HW142106  12.621   0.655   8.701
13403SOL    HW242107  12.594   0.548   8.805
13404SOL     OW42108   5.071  10.867  12.541
13404SOL    HW142109   5.095  10.776  12.523
13404SOL    HW242110   5.153  10.908  12.571
13405SOL     OW42111   1.350   4.795   5.207
13405SOL    HW142112   1.399   4.807   5.288
13405SOL    HW242113   1.366   4.704   5.183
13406SOL     OW42114   1.696   1.623   0.731
13406SOL    HW142115   1.615   1.661   0.698
13406SOL    HW242116   1.737   1.694   0.780
13407SOL     OW42117   7.057   9.467  11.243
13407SOL    HW142118   6.975   9.421  11.222
13407SOL    HW242119   7.115   9.398  11.276
13408SOL     OW42120   1.420  13.850   7.140
13408SOL    HW142121   1.385  13.896   7.216
13408SOL    HW242122   1.407  13.910   7.067
13409SOL     OW42123   6.419   6.868  12.433
13409SOL    HW142124   6.452   6.784  12.400
13409SOL    HW242125   6.497   6.921  12.447
13410SOL     OW42126   5.522  12.058   7.316
13410SOL    HW142127   5.482  12.127   7.262
13410SOL    HW242128   5.611  12.088   7.331
13411SOL     OW42129   9.620   5.468  12.476
13411SOL    HW142130   9.550   5.405  12.464
13411SOL    HW242131   9.682   5.424  12.534
13412SOL     OW42132   7.531   4.487   8.651
13412SOL    HW142133   7.602   4.492   8.715
13412SOL    HW242134   7.556   4.551   8.583
13413SOL     OW42135   9.462  11.905  11.514
13413SOL    HW142136   9.442  11.996  11.495
13413SOL    HW242137   9.523  11.879  11.445
13414SOL     OW42138   7.637   4.251  11.320
13414SOL    HW142139   7.609   4.258  11.229
13414SOL    HW242140   7.556   4.233  11.368
13415SOL     OW42141   7.719  13.167   9.356
13415SOL    HW142142   7.761  13.092   9.315
13415SOL    HW242143   7.664  13.129   9.425
13416SOL     OW42144  14.745   4.451   8.745
13416SOL    HW142145  14.827   4.403   8.737
13416SOL    HW242146  14.754   4.499   8.828
13417SOL     OW42147   0.294   5.018   0.339
13417SOL    HW142148   0.340   4.934   0.342
13417SOL    HW242149   0.271   5.036   0.430
13418SOL     OW42150   9.877  14.539   9.436
13418SOL    HW142151   9.915  14.464   9.391
13418SOL    HW242152   9.792  14.508   9.468
13419SOL     OW42153  11.532  12.821   7.531
13419SOL    HW142154  11.577  12.901   7.557
13419SOL    HW242155  11.507  12.780   7.614
13420SOL     OW42156   9.048   8.725   8.739
13420SOL    HW142157   9.031   8.817   8.761
13420SOL    HW242158   8.972   8.699   8.686
13421SOL     OW42159   1.935   9.288   6.469
13421SOL    HW142160   1.994   9.236   6.413
13421SOL    HW242161   1.848   9.270   6.435
13422SOL     OW42162   0.008   5.140  14.248
13422SOL    HW142163  14.868   5.177  14.162
13422SOL    HW242164   0.045   5.054  14.231
13423SOL     OW42165   5.467   0.869   3.170
13423SOL    HW142166   5.404   0.798   3.160
13423SOL    HW242167   5.454   0.924   3.093
13424SOL     OW42168   1.391   8.503   1.610
13424SOL    HW142169   1.371   8.458   1.692
13424SOL    HW242170   1.443   8.440   1.560
13425SOL     OW42171  13.487  13.172   3.188
13425SOL    HW142172  13.477  13.148   3.280
13425SOL    HW242173  13.580  13.160   3.170
13426SOL     OW42174   0.040   1.249   3.993
13426SOL    HW142175   0.104   1.201   4.046
13426SOL    HW242176   0.054   1.341   4.017
13427SOL     OW42177   3.546  14.466   4.344
13427SOL    HW142178   3.450  14.465   4.353
13427SOL    HW242179   3.567  14.380   4.308
13428SOL     OW42180  10.936   8.871  12.743
13428SOL    HW142181  10.988   8.792  12.761
13428SOL    HW242182  10.868   8.841  12.682
13429SOL     OW42183  14.075  10.086   5.015
13429SOL    HW142184  14.104  10.037   5.092
13429SOL    HW242185  14.000  10.136   5.047
13430SOL     OW42186  10.793   7.179   3.390
13430SOL    HW142187  10.715   7.172   3.446
13430SOL    HW242188  10.771   7.130   3.311
13431SOL     OW42189   0.446   8.639  12.521
13431SOL    HW142190   0.477   8.680  12.602
13431SOL    HW242191   0.526   8.606  12.479
13432SOL     OW42192  13.385   1.171   3.485
13432SOL    HW142193  13.322   1.212   3.426
13432SOL    HW242194  13.399   1.084   3.448
13433SOL     OW42195   7.304   6.539  13.141
13433SOL    HW142196   7.326   6.632  13.139
13433SOL    HW242197   7.213   6.535  13.170
13434SOL     OW42198   0.038  13.961  14.112
13434SOL    HW142199   0.062  13.883  14.062
13434SOL    HW242200  14.826  13.944  14.141
13435SOL     OW42201  12.097  14.078   5.285
13435SOL    HW142202  12.163  14.091   5.216
13435SOL    HW242203  12.019  14.048   5.237
13436SOL     OW42204   6.216  11.474  13.836
13436SOL    HW142205   6.246  11.427  13.758
13436SOL    HW242206   6.122  11.485  13.822
13437SOL     OW42207   6.049   7.915   9.766
13437SOL    HW142208   6.082   7.985   9.823
13437SOL    HW242209   6.127   7.873   9.731
13438SOL     OW42210  13.025   4.440   7.830
13438SOL    HW142211  12.980   4.359   7.807
13438SOL    HW242212  12.981   4.508   7.780
13439SOL     OW42213   6.613  10.196   0.264
13439SOL    HW142214   6.547  10.210   0.332
13439SOL    HW242215   6.605  10.272   0.207
13440SOL     OW42216   2.723   9.986  10.567
13440SOL    HW142217   2.765   9.906  10.535
13440SOL    HW242218   2.796  10.042  10.593
13441SOL     OW42219   1.438   6.681  12.320
13441SOL    HW142220   1.352   6.642  12.304
13441SOL    HW242221   1.458   6.657  12.410
13442SOL     OW42222  11.648   6.685   3.625
13442SOL    HW142223  11.668   6.777   3.642
13442SOL    HW242224  11.647   6.678   3.529
13443SOL     OW42225  14.231   4.106   4.386
13443SOL    HW142226  14.212   4.166   4.458
13443SOL    HW242227  14.285   4.037   4.426
13444SOL     OW42228   7.418  14.288  13.537
13444SOL    HW142229   7.455  14.301  13.449
13444SOL    HW242230   7.433  14.371  13.582
13445SOL     OW42231   5.614  14.411  14.214
13445SOL    HW142232   5.635  14.320  14.191
13445SOL    HW242233   5.538  14.432  14.159
13446SOL     OW42234   0.725  10.576   3.055
13446SOL    HW142235   0.658  10.598   2.990
13446SOL    HW242236   0.699  10.625   3.134
13447SOL     OW42237   9.092   9.682   1.382
13447SOL    HW142238   9.150   9.688   1.306
13447SOL    HW242239   9.086   9.772   1.414
13448SOL     OW42240   8.207   1.641   2.182
13448SOL    HW142241   8.171   1.708   2.240
13448SOL    HW242242   8.156   1.648   2.102
13449SOL     OW42243   2.964   4.816   5.241
13449SOL    HW142244   2.912   4.736   5.246
13449SOL    HW242245   2.902   4.884   5.215
13450SOL     OW42246   5.678   8.079   3.887
13450SOL    HW142247   5.617   8.090   3.813
13450SOL    HW242248   5.683   8.167   3.926
13451SOL     OW42249   4.484  10.865   3.802
13451SOL    HW142250   4.543  10.929   3.841
13451SOL    HW242251   4.459  10.903   3.718
13452SOL     OW42252   4.106   1.249  14.479
13452SOL    HW142253   4.129   1.167  14.523
13452SOL    HW242254   4.142   1.317  14.536
13453SOL     OW42255   1.488   9.410   9.252
13453SOL    HW142256   1.407   9.429   9.301
13453SOL    HW242257   1.504   9.317   9.267
13454SOL     OW42258   4.588   2.234   0.946
13454SOL    HW142259   4.537   2.259   1.023
13454SOL    HW242260   4.529   2.249   0.872
13455SOL     OW42261   7.553   8.061   0.710
13455SOL    HW142262   7.636   8.041   0.753
13455SOL    HW242263   7.505   7.978   0.711
13456SOL     OW42264   6.875  12.765  11.674
13456SOL    HW142265   6.806  12.830  11.659
13456SOL    HW242266   6.930  12.771  11.596
13457SOL     OW42267   5.931   3.911   0.121
13457SOL    HW142268   5.917   3.931   0.028
13457SOL    HW242269   5.891   3.985   0.167
13458SOL     OW42270  13.099  11.733   1.895
13458SOL    HW142271  13.119  11.645   1.861
13458SOL    HW242272  13.018  11.758   1.851
13459SOL     OW42273   6.040   9.373   5.516
13459SOL    HW142274   6.057   9.338   5.603
13459SOL    HW242275   5.976   9.314   5.477
13460SOL     OW42276  11.797   5.769  12.908
13460SOL    HW142277  11.848   5.846  12.934
13460SOL    HW242278  11.804   5.710  12.983
13461SOL     OW42279  14.365  10.309  13.614
13461SOL    HW142280  14.454  10.330  13.587
13461SOL    HW242281  14.314  10.313  13.533
13462SOL     OW42282   2.577   3.043   9.483
13462SOL    HW142283   2.660   3.007   9.513
13462SOL    HW242284   2.536   3.079   9.561
13463SOL     OW42285   6.454   4.540  13.490
13463SOL    HW142286   6.461   4.472  13.556
13463SOL    HW242287   6.542   4.549  13.454
13464SOL     OW42288  11.106   9.505   1.069
13464SOL    HW142289  11.087   9.526   1.160
13464SOL    HW242290  11.118   9.410   1.068
13465SOL     OW42291   4.950   0.496   0.611
13465SOL    HW142292   4.921   0.530   0.526
13465SOL    HW242293   4.877   0.442   0.641
13466SOL     OW42294  13.165   5.782  14.403
13466SOL    HW142295  13.085   5.835  14.394
13466SOL    HW242296  13.236   5.845  14.393
13467SOL     OW42297   1.374   9.887   6.091
13467SOL    HW142298   1.313   9.954   6.121
13467SOL    HW242299   1.381   9.902   5.997
13468SOL     OW42300   2.959   3.951   7.474
13468SOL    HW142301   2.916   3.880   7.426
13468SOL    HW242302   3.049   3.951   7.441
13469SOL     OW42303   6.447   3.585   0.187
13469SOL    HW142304   6.507   3.645   0.142
13469SOL    HW242305   6.498   3.552   0.261
13470SOL     OW42306   8.438   0.918   6.721
13470SOL    HW142307   8.399   0.873   6.796
13470SOL    HW242308   8.368   0.922   6.656
13471SOL     OW42309  11.285  11.554   0.107
13471SOL    HW142310  11.369  11.591   0.080
13471SOL    HW242311  11.307  11.471   0.149
13472SOL     OW42312  14.162  10.943   1.092
13472SOL    HW142313  14.100  10.899   1.151
13472SOL    HW242314  14.141  11.036   1.101
13473SOL     OW42315  10.693   1.924  13.144
13473SOL    HW142316  10.702   1.866  13.068
13473SOL    HW242317  10.670   2.009  13.106
13474SOL     OW42318  12.132   5.054   3.123
13474SOL    HW142319  12.103   5.004   3.047
13474SOL    HW242320  12.055   5.059   3.180
13475SOL     OW42321   3.376   9.113   8.527
13475SOL    HW142322   3.396   9.160   8.608
13475SOL    HW242323   3.301   9.058   8.548
13476SOL     OW42324  13.415   4.095   4.383
13476SOL    HW142325  13.447   4.181   4.410
13476SOL    HW242326  13.405   4.102   4.288
13477SOL     OW42327   3.575   3.771  14.302
13477SOL    HW142328   3.506   3.782  14.236
13477SOL    HW242329   3.582   3.856  14.345
13478SOL     OW42330   4.039  12.281   2.212
13478SOL    HW142331   4.134  12.276   2.207
13478SOL    HW242332   4.015  12.214   2.276
13479SOL     OW42333  14.007   6.560  10.656
13479SOL    HW142334  13.950   6.624  10.697
13479SOL    HW242335  14.000   6.577  10.562
13480SOL     OW42336  12.141   1.926   6.615
13480SOL    HW142337  12.075   1.915   6.684
13480SOL    HW242338  12.225   1.919   6.660
13481SOL     OW42339   8.520  14.603  13.681
13481SOL    HW142340   8.496  14.521  13.726
13481SOL    HW242341   8.566  14.654  13.747
13482SOL     OW42342   3.147   9.776   1.122
13482SOL    HW142343   3.060   9.797   1.089
13482SOL    HW242344   3.153   9.824   1.204
13483SOL     OW42345   9.210   3.222   4.265
13483SOL    HW142346   9.245   3.241   4.352
13483SOL    HW242347   9.278   3.252   4.205
13484SOL     OW42348   0.472   4.695   5.048
13484SOL    HW142349   0.530   4.709   5.123
13484SOL    HW242350   0.531   4.695   4.972
13485SOL     OW42351   1.799   4.809  13.063
13485SOL    HW142352   1.728   4.857  13.020
13485SOL    HW242353   1.879   4.848  13.028
13486SOL     OW42354   2.716   4.765  12.085
13486SOL    HW142355   2.722   4.860  12.093
13486SOL    HW242356   2.664   4.750  12.006
13487SOL     OW42357   7.142  11.216   6.710
13487SOL    HW142358   7.138  11.123   6.688
13487SOL    HW242359   7.156  11.259   6.626
13488SOL     OW42360  10.363   6.202   8.114
13488SOL    HW142361  10.417   6.162   8.046
13488SOL    HW242362  10.286   6.146   8.119
13489SOL     OW42363  10.636   7.598  14.320
13489SOL    HW142364  10.691   7.543  14.376
13489SOL    HW242365  10.695   7.628  14.251
13490SOL     OW42366  10.078   9.205   1.046
13490SOL    HW142367  10.113   9.161   1.123
13490SOL    HW242368  10.091   9.143   0.974
13491SOL     OW42369   8.270  13.782   4.593
13491SOL    HW142370   8.183  13.795   4.555
13491SOL    HW242371   8.253  13.766   4.686
13492SOL     OW42372  13.355  10.162   7.050
13492SOL    HW142373  13.362  10.113   7.132
13492SOL    HW242374  13.381  10.099   6.983
13493SOL     OW42375  14.239  10.165   9.472
13493SOL    HW142376  14.297  10.201   9.538
13493SOL    HW242377  14.297  10.141   9.400
13494SOL     OW42378  12.053   1.560  13.875
13494SOL    HW142379  11.991   1.499  13.833
13494SOL    HW242380  12.102   1.505  13.936
13495SOL     OW42381   2.835  11.783   3.840
13495SOL    HW142382   2.799  11.820   3.760
13495SOL    HW242383   2.928  11.803   3.836
13496SOL     OW42384   5.742   4.703   4.118
13496SOL    HW142385   5.734   4.625   4.173
13496SOL    HW242386   5.682   4.767   4.157
13497SOL     OW42387   2.416  12.271  13.029
13497SOL    HW142388   2.474  12.260  12.954
13497SOL    HW242389   2.342  12.214  13.010
13498SOL     OW42390   2.191  14.453   9.268
13498SOL    HW142391   2.097  14.440   9.253
13498SOL    HW242392   2.201  14.442   9.362
13499SOL     OW42393   5.206   5.164   6.978
13499SOL    HW142394   5.195   5.071   6.997
13499SOL    HW242395   5.292   5.186   7.013
13500SOL     OW42396   2.774   5.369   0.472
13500SOL    HW142397   2.765   5.460   0.500
13500SOL    HW242398   2.802   5.374   0.380
13501SOL     OW42399   6.981   7.855   7.309
13501SOL    HW142400   7.047   7.920   7.283
13501SOL    HW242401   7.017   7.816   7.389
13502SOL     OW42402   6.462   0.013   4.165
13502SOL    HW142403   6.521  14.855   4.232
13502SOL    HW242404   6.510   0.003   4.083
13503SOL     OW42405   7.067  13.702   6.547
13503SOL    HW142406   7.055  13.655   6.630
13503SOL    HW242407   7.041  13.792   6.568
13504SOL     OW42408   9.624  11.596   7.808
13504SOL    HW142409   9.709  11.608   7.851
13504SOL    HW242410   9.567  11.565   7.878
13505SOL     OW42411   6.697   1.033   8.192
13505SOL    HW142412   6.704   0.966   8.261
13505SOL    HW242413   6.787   1.062   8.178
13506SOL     OW42414   0.825   9.255   2.162
13506SOL    HW142415   0.903   9.216   2.200
13506SOL    HW242416   0.789   9.186   2.106
13507SOL     OW42417   9.591  14.090   6.990
13507SOL    HW142418   9.619  14.163   6.935
13507SOL    HW242419   9.530  14.129   7.052
13508SOL     OW42420   8.577   8.924   0.315
13508SOL    HW142421   8.511   8.982   0.277
13508SOL    HW242422   8.661   8.962   0.289
13509SOL     OW42423  13.038   2.906   6.247
13509SOL    HW142424  13.007   2.901   6.338
13509SOL    HW242425  12.959   2.928   6.196
13510SOL     OW42426   6.540   3.937   3.852
13510SOL    HW142427   6.624   3.891   3.852
13510SOL    HW242428   6.475   3.868   3.863
13511SOL     OW42429   3.853   3.712   1.844
13511SOL    HW142430   3.792   3.648   1.881
13511SOL    HW242431   3.921   3.659   1.802
13512SOL     OW42432   7.977   5.764   2.123
13512SOL    HW142433   7.909   5.716   2.171
13512SOL    HW242434   7.942   5.852   2.114
13513SOL     OW42435   2.540  13.079   1.578
13513SOL    HW142436   2.537  13.153   1.638
13513SOL    HW242437   2.449  13.056   1.562
13514SOL     OW42438  10.142  10.983  12.181
13514SOL    HW142439  10.231  11.008  12.154
13514SOL    HW242440  10.115  10.918  12.117
13515SOL     OW42441  12.565   6.399   8.578
13515SOL    HW142442  12.611   6.411   8.495
13515SOL    HW242443  12.629   6.355   8.635
13516SOL     OW42444   6.169   6.338   0.244
13516SOL    HW142445   6.125   6.394   0.180
13516SOL    HW242446   6.171   6.391   0.324
13517SOL     OW42447  13.503  12.803  12.049
13517SOL    HW142448  13.465  12.871  12.104
13517SOL    HW242449  13.540  12.851  11.975
13518SOL     OW42450   9.877   5.415   7.982
13518SOL    HW142451   9.941   5.486   7.997
13518SOL    HW242452   9.825   5.413   8.062
13519SOL     OW42453   5.363   5.535   0.146
13519SOL    HW142454   5.446   5.541   0.194
13519SOL    HW242455   5.302   5.497   0.210
13520SOL     OW42456  12.867  11.397   9.545
13520SOL    HW142457  12.903  11.351   9.469
13520SOL    HW242458  12.789  11.347   9.568
13521SOL     OW42459   7.592   4.053   9.425
13521SOL    HW142460   7.586   3.958   9.408
13521SOL    HW242461   7.662   4.061   9.489
13522SOL     OW42462  13.286   0.958   8.405
13522SOL    HW142463  13.211   0.947   8.347
13522SOL    HW242464  13.281   0.884   8.465
13523SOL     OW42465   5.388   5.132   4.855
13523SOL    HW142466   5.348   5.190   4.791
13523SOL    HW242467   5.332   5.054   4.855
13524SOL     OW42468  14.267   0.851  14.572
13524SOL    HW142469  14.242   0.769  14.530
13524SOL    HW242470  14.246   0.919  14.508
13525SOL     OW42471   3.902   1.324   1.038
13525SOL    HW142472   3.836   1.259   1.062
13525SOL    HW242473   3.871   1.361   0.955
13526SOL     OW42474  10.905   8.084   9.034
13526SOL    HW142475  10.960   8.013   9.067
13526SOL    HW242476  10.966   8.155   9.015
13527SOL     OW42477  10.267   3.403   6.060
13527SOL    HW142478  10.266   3.426   6.153
13527SOL    HW242479  10.359   3.412   6.034
13528SOL     OW42480   8.085   1.088  14.129
13528SOL    HW142481   8.151   1.158  14.129
13528SOL    HW242482   8.013   1.123  14.183
13529SOL     OW42483  13.095   9.528   2.490
13529SOL    HW142484  13.178   9.518   2.444
13529SOL    HW242485  13.095   9.460   2.557
13530SOL     OW42486   3.397   1.876  10.730
13530SOL    HW142487   3.375   1.942  10.795
13530SOL    HW242488   3.420   1.798  10.781
13531SOL     OW42489   2.186   1.582   5.681
13531SOL    HW142490   2.099   1.620   5.683
13531SOL    HW242491   2.181   1.506   5.740
13532SOL     OW42492  13.788  10.365   4.816
13532SOL    HW142493  13.748  10.422   4.881
13532SOL    HW242494  13.723  10.360   4.746
13533SOL     OW42495  11.420  11.031   8.440
13533SOL    HW142496  11.403  10.968   8.510
13533SOL    HW242497  11.500  10.999   8.398
13534SOL     OW42498   0.986   3.519   3.072
13534SOL    HW142499   0.923   3.458   3.033
13534SOL    HW242500   1.002   3.584   3.004
13535SOL     OW42501   1.383   5.045  12.244
13535SOL    HW142502   1.301   5.000  12.263
13535SOL    HW242503   1.357   5.130  12.208
13536SOL     OW42504   1.390   5.674   7.012
13536SOL    HW142505   1.320   5.700   7.072
13536SOL    HW242506   1.408   5.753   6.961
13537SOL     OW42507  11.351   9.238   1.497
13537SOL    HW142508  11.358   9.323   1.452
13537SOL    HW242509  11.259   9.214   1.489
13538SOL     OW42510   5.178   8.380   0.185
13538SOL    HW142511   5.268   8.407   0.168
13538SOL    HW242512   5.153   8.426   0.265
13539SOL     OW42513   2.781   9.208   2.159
13539SOL    HW142514   2.722   9.283   2.165
13539SOL    HW242515   2.798   9.200   2.065
13540SOL     OW42516  14.100   7.765   7.337
13540SOL    HW142517  14.110   7.696   7.272
13540SOL    HW242518  14.165   7.831   7.313
13541SOL     OW42519   0.239  10.959   6.974
13541SOL    HW142520   0.179  10.948   7.047
13541SOL    HW242521   0.325  10.968   7.015
13542SOL     OW42522   3.664   4.253  10.586
13542SOL    HW142523   3.728   4.187  10.615
13542SOL    HW242524   3.678   4.259  10.491
13543SOL     OW42525   3.676  11.934   2.519
13543SOL    HW142526   3.728  11.883   2.582
13543SOL    HW242527   3.670  11.877   2.442
13544SOL     OW42528  12.746   3.448  12.992
13544SOL    HW142529  12.803   3.461  13.068
13544SOL    HW242530  12.692   3.373  13.015
13545SOL     OW42531  11.420   0.974   6.587
13545SOL    HW142532  11.478   0.999   6.515
13545SOL    HW242533  11.480   0.947   6.657
13546SOL     OW42534   4.462   6.770   8.683
13546SOL    HW142535   4.411   6.689   8.682
13546SOL    HW242536   4.522   6.760   8.757
13547SOL     OW42537   6.334   2.677   4.904
13547SOL    HW142538   6.337   2.740   4.976
13547SOL    HW242539   6.403   2.705   4.845
13548SOL     OW42540   0.309  10.519  12.612
13548SOL    HW142541   0.245  10.491  12.677
13548SOL    HW242542   0.349  10.597  12.649
13549SOL     OW42543  10.828   1.794   5.876
13549SOL    HW142544  10.734   1.792   5.895
13549SOL    HW242545  10.865   1.845   5.949
13550SOL     OW42546   8.607  14.053   0.379
13550SOL    HW142547   8.614  14.148   0.379
13550SOL    HW242548   8.686  14.023   0.334
13551SOL     OW42549   1.852  14.657  14.118
13551SOL    HW142550   1.892  14.731  14.071
13551SOL    HW242551   1.868  14.677  14.211
13552SOL     OW42552  14.554   7.427   0.221
13552SOL    HW142553  14.639   7.385   0.206
13552SOL    HW242554  14.571   7.520   0.212
13553SOL     OW42555   3.048  10.794  11.331
13553SOL    HW142556   3.039  10.702  11.304
13553SOL    HW242557   3.107  10.832  11.265
13554SOL     OW42558   7.661   1.936   7.871
13554SOL    HW142559   7.687   1.844   7.879
13554SOL    HW242560   7.578   1.941   7.918
13555SOL     OW42561   9.472   3.779   8.703
13555SOL    HW142562   9.562   3.807   8.687
13555SOL    HW242563   9.470   3.687   8.674
13556SOL     OW42564  11.246  13.997   3.082
13556SOL    HW142565  11.280  13.994   2.993
13556SOL    HW242566  11.272  13.913   3.121
13557SOL     OW42567   7.341   8.764   5.238
13557SOL    HW142568   7.280   8.695   5.213
13557SOL    HW242569   7.427   8.722   5.236
13558SOL     OW42570   7.502   1.725  11.111
13558SOL    HW142571   7.574   1.662  11.116
13558SOL    HW242572   7.427   1.680  11.149
13559SOL     OW42573   4.302   6.012  14.812
13559SOL    HW142574   4.381   6.056  14.844
13559SOL    HW242575   4.273   6.065  14.737
13560SOL     OW42576   8.224  14.272   1.055
13560SOL    HW142577   8.140  14.277   1.010
13560SOL    HW242578   8.228  14.182   1.089
13561SOL     OW42579   7.696  12.428   6.175
13561SOL    HW142580   7.646  12.377   6.112
13561SOL    HW242581   7.632  12.486   6.216
13562SOL     OW42582   6.604  11.363   0.603
13562SOL    HW142583   6.614  11.456   0.583
13562SOL    HW242584   6.662  11.347   0.677
13563SOL     OW42585   8.740   5.774   9.599
13563SOL    HW142586   8.745   5.808   9.510
13563SOL    HW242587   8.750   5.679   9.590
13564SOL     OW42588   9.028  12.186  12.765
13564SOL    HW142589   9.064  12.262  12.721
13564SOL    HW242590   9.004  12.126  12.694
13565SOL     OW42591  10.220   7.442   5.614
13565SOL    HW142592  10.137   7.472   5.578
13565SOL    HW242593  10.225   7.484   5.700
13566SOL     OW42594   2.356   7.290   1.273
13566SOL    HW142595   2.417   7.308   1.202
13566SOL    HW242596   2.273   7.273   1.229
13567SOL     OW42597  12.783   5.388   7.992
13567SOL    HW142598  12.860   5.416   7.943
13567SOL    HW242599  12.746   5.317   7.940
13568SOL     OW42600   7.166   2.126   6.795
13568SOL    HW142601   7.187   2.202   6.740
13568SOL    HW242602   7.245   2.111   6.846
13569SOL     OW42603  14.423   0.948   3.789
13569SOL    HW142604  14.337   0.976   3.758
13569SOL    HW242605  14.409   0.928   3.882
13570SOL     OW42606  10.040   2.620  11.367
13570SOL    HW142607  10.118   2.574  11.399
13570SOL    HW242608   9.997   2.653  11.446
13571SOL     OW42609  11.407   1.917  12.668
13571SOL    HW142610  11.438   1.860  12.597
13571SOL    HW242611  11.329   1.872  12.701
13572SOL     OW42612  14.445   0.489   1.142
13572SOL    HW142613  14.474   0.554   1.206
13572SOL    HW242614  14.397   0.424   1.194
13573SOL     OW42615   0.271   7.932  11.440
13573SOL    HW142616   0.308   7.988  11.372
13573SOL    HW242617   0.235   7.857  11.393
13574SOL     OW42618   9.668   8.635   8.540
13574SOL    HW142619   9.652   8.725   8.512
13574SOL    HW242620   9.634   8.632   8.630
13575SOL     OW42621   5.236   8.649   1.329
13575SOL    HW142622   5.230   8.553   1.337
13575SOL    HW242623   5.330   8.666   1.333
13576SOL     OW42624  11.055   2.590   4.483
13576SOL    HW142625  10.963   2.597   4.508
13576SOL    HW242626  11.055   2.526   4.411
13577SOL     OW42627   8.831   1.502   3.617
13577SOL    HW142628   8.873   1.546   3.691
13577SOL    HW242629   8.853   1.409   3.628
13578SOL     OW42630   3.921   9.539   4.133
13578SOL    HW142631   3.920   9.484   4.055
13578SOL    HW242632   3.927   9.629   4.100
13579SOL     OW42633  14.708  11.675   2.529
13579SOL    HW142634  14.643  11.668   2.460
13579SOL    HW242635  14.658  11.685   2.610
13580SOL     OW42636  12.266   4.763   2.491
13580SOL    HW142637  12.253   4.668   2.486
13580SOL    HW242638  12.311   4.785   2.409
13581SOL     OW42639   3.548  14.306   5.012
13581SOL    HW142640   3.482  14.237   5.015
13581SOL    HW242641   3.581  14.305   4.922
13582SOL     OW42642   5.320   7.708   5.358
13582SOL    HW142643   5.354   7.796   5.345
13582SOL    HW242644   5.390   7.650   5.327
13583SOL     OW42645   5.044   4.867   6.058
13583SOL    HW142646   4.989   4.933   6.101
13583SOL    HW242647   5.043   4.792   6.117
13584SOL     OW42648  10.235  11.314   1.940
13584SOL    HW142649  10.202  11.388   1.889
13584SOL    HW242650  10.170  11.300   2.008
13585SOL     OW42651   4.494   7.851  10.019
13585SOL    HW142652   4.453   7.770  10.050
13585SOL    HW242653   4.523   7.895  10.098
13586SOL     OW42654   2.435  11.460   3.452
13586SOL    HW142655   2.440  11.407   3.532
13586SOL    HW242656   2.387  11.404   3.390
13587SOL     OW42657  10.112  14.069   4.419
13587SOL    HW142658  10.033  14.090   4.371
13587SOL    HW242659  10.153  14.153   4.438
13588SOL     OW42660   4.485  10.891   2.949
13588SOL    HW142661   4.527  10.938   3.020
13588SOL    HW242662   4.400  10.863   2.985
13589SOL     OW42663  10.528  12.547   9.488
13589SOL    HW142664  10.535  12.595   9.406
13589SOL    HW242665  10.602  12.486   9.486
13590SOL     OW42666   8.436   5.813   3.923
13590SOL    HW142667   8.383   5.839   3.847
13590SOL    HW242668   8.527   5.825   3.894
13591SOL     OW42669  12.543  10.458   7.850
13591SOL    HW142670  12.562  10.367   7.872
13591SOL    HW242671  12.593  10.509   7.914
13592SOL     OW42672   5.759   0.733   1.470
13592SOL    HW142673   5.739   0.824   1.494
13592SOL    HW242674   5.678   0.700   1.433
13593SOL     OW42675  14.467   7.725   0.992
13593SOL    HW142676  14.431   7.787   0.929
13593SOL    HW242677  14.527   7.670   0.940
13594SOL     OW42678   5.432   0.897   5.610
13594SOL    HW142679   5.443   0.992   5.606
13594SOL    HW242680   5.460   0.874   5.698
13595SOL     OW42681  14.087   6.227   6.039
13595SOL    HW142682  14.136   6.171   5.980
13595SOL    HW242683  14.056   6.169   6.109
13596SOL     OW42684  13.091   9.887   6.288
13596SOL    HW142685  13.096   9.898   6.193
13596SOL    HW242686  13.070   9.794   6.301
13597SOL     OW42687   3.144   6.407  10.446
13597SOL    HW142688   3.216   6.458  10.482
13597SOL    HW242689   3.118   6.349  10.518
13598SOL     OW42690   6.353   7.165  14.515
13598SOL    HW142691   6.348   7.107  14.439
13598SOL    HW242692   6.356   7.253  14.478
13599SOL     OW42693   3.036   6.990   6.555
13599SOL    HW142694   3.018   6.896   6.550
13599SOL    HW242695   3.124   6.995   6.593
13600SOL     OW42696   6.385  14.264  11.478
13600SOL    HW142697   6.342  14.180  11.463
13600SOL    HW242698   6.439  14.250  11.556
13601SOL     OW42699  11.547   6.755   2.230
13601SOL    HW142700  11.470   6.718   2.272
13601SOL    HW242701  11.513   6.816   2.165
13602SOL     OW42702   0.951  13.724   8.815
13602SOL    HW142703   0.885  13.786   8.784
13602SOL    HW242704   1.030  13.777   8.828
13603SOL     OW42705   5.625  11.729  10.407
13603SOL    HW142706   5.569  11.799  10.443
13603SOL    HW242707   5.688  11.775  10.352
13604SOL     OW42708  10.622   3.557   9.026
13604SOL    HW142709  10.610   3.555   8.931
13604SOL    HW242710  10.638   3.649   9.046
13605SOL     OW42711   3.946   2.102  14.608
13605SOL    HW142712   3.981   2.067  14.526
13605SOL    HW242713   4.023   2.132  14.656
13606SOL     OW42714  14.302   8.769   7.471
13606SOL    HW142715  14.386   8.728   7.489
13606SOL    HW242716  14.254   8.762   7.554
13607SOL     OW42717   7.559   7.366   6.473
13607SOL    HW142718   7.603   7.281   6.474
13607SOL    HW242719   7.466   7.345   6.479
13608SOL     OW42720   6.900   9.261   2.145
13608SOL    HW142721   6.815   9.234   2.181
13608SOL    HW242722   6.927   9.334   2.201
13609SOL     OW42723  14.678   1.242   2.151
13609SOL    HW142724  14.597   1.192   2.161
13609SOL    HW242725  14.660   1.304   2.081
13610SOL     OW42726  13.734   9.016   7.057
13610SOL    HW142727  13.766   9.071   7.129
13610SOL    HW242728  13.793   8.940   7.058
13611SOL     OW42729   1.231   8.720  12.739
13611SOL    HW142730   1.254   8.809  12.765
13611SOL    HW242731   1.244   8.719  12.644
13612SOL     OW42732  13.172   6.872   5.178
13612SOL    HW142733  13.267   6.872   5.175
13612SOL    HW242734  13.145   6.914   5.096
13613SOL     OW42735  11.418  13.890   0.015
13613SOL    HW142736  11.398  13.871   0.106
13613SOL    HW242737  11.337  13.925  14.856
13614SOL     OW42738  14.568   9.768   6.010
13614SOL    HW142739  14.620   9.688   5.999
13614SOL    HW242740  14.478   9.738   6.004
13615SOL     OW42741   5.619   5.857   8.310
13615SOL    HW142742   5.665   5.931   8.269
13615SOL    HW242743   5.687   5.812   8.360
13616SOL     OW42744   9.803   3.491   2.563
13616SOL    HW142745   9.718   3.536   2.561
13616SOL    HW242746   9.840   3.507   2.477
13617SOL     OW42747  10.920  10.118   4.821
13617SOL    HW142748  10.928  10.164   4.904
13617SOL    HW242749  10.995  10.058   4.818
13618SOL     OW42750   6.804   4.892  12.744
13618SOL    HW142751   6.817   4.941  12.662
13618SOL    HW242752   6.770   4.957  12.805
13619SOL     OW42753   5.661   9.090   2.458
13619SOL    HW142754   5.589   9.119   2.514
13619SOL    HW242755   5.618   9.049   2.383
13620SOL     OW42756   7.025   9.821  14.865
13620SOL    HW142757   7.019   9.888   0.056
13620SOL    HW242758   6.969   9.750   0.019
13621SOL     OW42759   7.379   9.165   4.004
13621SOL    HW142760   7.436   9.088   3.998
13621SOL    HW242761   7.293   9.129   4.023
13622SOL     OW42762  10.443  11.854  14.827
13622SOL    HW142763  10.504  11.791  14.789
13622SOL    HW242764  10.477  11.940  14.801
13623SOL     OW42765  10.035   3.347   3.397
13623SOL    HW142766  10.101   3.286   3.365
13623SOL    HW242767   9.964   3.342   3.332
13624SOL     OW42768   3.493   9.366   1.361
13624SOL    HW142769   3.517   9.364   1.269
13624SOL    HW242770   3.426   9.435   1.367
13625SOL     OW42771   5.829   1.866  13.214
13625SOL    HW142772   5.846   1.956  13.184
13625SOL    HW242773   5.828   1.873  13.310
13626SOL     OW42774   8.107   7.556   8.138
13626SOL    HW142775   8.041   7.622   8.117
13626SOL    HW242776   8.066   7.503   8.207
13627SOL     OW42777  12.975  12.457   6.558
13627SOL    HW142778  12.972  12.400   6.635
13627SOL    HW242779  12.923  12.533   6.582
13628SOL     OW42780   1.946  11.105   0.974
13628SOL    HW142781   1.892  11.045   0.922
13628SOL    HW242782   2.015  11.049   1.011
13629SOL     OW42783   3.203   4.689  13.823
13629SOL    HW142784   3.201   4.666  13.916
13629SOL    HW242785   3.119   4.660  13.789
13630SOL     OW42786   1.137   3.464   7.396
13630SOL    HW142787   1.170   3.522   7.465
13630SOL    HW242788   1.098   3.523   7.332
13631SOL     OW42789   0.885   0.304  11.606
13631SOL    HW142790   0.876   0.385  11.657
13631SOL    HW242791   0.831   0.240  11.653
13632SOL     OW42792   1.524   1.167   1.714
13632SOL    HW142793   1.525   1.073   1.726
13632SOL    HW242794   1.574   1.202   1.788
13633SOL     OW42795   6.927   9.983   5.380
13633SOL    HW142796   6.942   9.890   5.393
13633SOL    HW242797   7.015  10.022   5.386
13634SOL     OW42798   0.875  10.148   3.109
13634SOL    HW142799   0.809  10.168   3.175
13634SOL    HW242800   0.837  10.175   3.026
13635SOL     OW42801   1.642  11.027   8.362
13635SOL    HW142802   1.568  10.979   8.326
13635SOL    HW242803   1.685  10.964   8.420
13636SOL     OW42804  13.495  14.033   7.843
13636SOL    HW142805  13.403  14.037   7.817
13636SOL    HW242806  13.535  14.108   7.799
13637SOL     OW42807   1.487   2.114  10.792
13637SOL    HW142808   1.501   2.038  10.849
13637SOL    HW242809   1.555   2.176  10.816
13638SOL     OW42810   4.663  11.564   7.915
13638SOL    HW142811   4.622  11.588   7.832
13638SOL    HW242812   4.755  11.586   7.904
13639SOL     OW42813  14.225   1.754   8.473
13639SOL    HW142814  14.160   1.778   8.539
13639SOL    HW242815  14.307   1.792   8.504
13640SOL     OW42816  14.054   7.556   0.585
13640SOL    HW142817  13.959   7.553   0.574
13640SOL    HW242818  14.089   7.507   0.510
13641SOL     OW42819   6.213   0.695  14.100
13641SOL    HW142820   6.171   0.662  14.020
13641SOL    HW242821   6.304   0.711  14.075
13642SOL     OW42822  11.057  10.929   8.970
13642SOL    HW142823  10.961  10.936   8.970
13642SOL    HW242824  11.080  10.918   9.062
13643SOL     OW42825   2.966   1.877   0.303
13643SOL    HW142826   2.987   1.970   0.310
13643SOL    HW242827   2.872   1.875   0.286
13644SOL     OW42828   9.202  14.237   7.823
13644SOL    HW142829   9.215  14.331   7.812
13644SOL    HW242830   9.150  14.230   7.904
13645SOL     OW42831   7.106  10.952   9.068
13645SOL    HW142832   7.083  10.984   8.980
13645SOL    HW242833   7.154  11.025   9.107
13646SOL     OW42834   6.378  12.303   8.088
13646SOL    HW142835   6.444  12.365   8.058
13646SOL    HW242836   6.390  12.299   8.183
13647SOL     OW42837   1.800  13.988   2.225
13647SOL    HW142838   1.872  14.042   2.259
13647SOL    HW242839   1.831  13.898   2.234
13648SOL     OW42840   1.101  13.057   2.123
13648SOL    HW142841   1.190  13.088   2.134
13648SOL    HW242842   1.095  13.033   2.031
13649SOL     OW42843  12.420   6.436   2.839
13649SOL    HW142844  12.454   6.391   2.762
13649SOL    HW242845  12.399   6.367   2.901
13650SOL     OW42846  10.667  14.699   8.482
13650SOL    HW142847  10.594  14.728   8.427
13650SOL    HW242848  10.632  14.623   8.530
13651SOL     OW42849   0.315   7.153   3.615
13651SOL    HW142850   0.303   7.093   3.689
13651SOL    HW242851   0.409   7.173   3.615
13652SOL     OW42852   8.680   8.832   7.995
13652SOL    HW142853   8.742   8.904   7.988
13652SOL    HW242854   8.672   8.798   7.906
13653SOL     OW42855   0.932   2.455   8.023
13653SOL    HW142856   0.907   2.435   7.933
13653SOL    HW242857   0.894   2.384   8.075
13654SOL     OW42858  13.488   6.551   6.680
13654SOL    HW142859  13.576   6.588   6.682
13654SOL    HW242860  13.446   6.584   6.759
13655SOL     OW42861   1.827  12.286  10.586
13655SOL    HW142862   1.732  12.280  10.584
13655SOL    HW242863   1.846  12.378  10.568
13656SOL     OW42864   7.624   8.981  14.454
13656SOL    HW142865   7.683   8.940  14.392
13656SOL    HW242866   7.625   8.924  14.531
13657SOL     OW42867   5.783  14.071   5.827
13657SOL    HW142868   5.705  14.069   5.772
13657SOL    HW242869   5.810  13.979   5.834
13658SOL     OW42870  14.745   8.816   7.002
13658SOL    HW142871  14.733   8.727   7.035
13658SOL    HW242872  14.658   8.841   6.968
13659SOL     OW42873   6.799   8.142   6.967
13659SOL    HW142874   6.778   8.060   7.012
13659SOL    HW242875   6.888   8.129   6.934
13660SOL     OW42876   6.644  10.698   4.302
13660SOL    HW142877   6.626  10.670   4.212
13660SOL    HW242878   6.558  10.713   4.340
13661SOL     OW42879   6.478  11.673  11.590
13661SOL    HW142880   6.513  11.738  11.528
13661SOL    HW242881   6.400  11.715  11.627
13662SOL     OW42882   7.001   0.576   9.035
13662SOL    HW142883   6.999   0.633   9.112
13662SOL    HW242884   7.050   0.626   8.969
13663SOL     OW42885   7.452   6.679   6.504
13663SOL    HW142886   7.473   6.725   6.422
13663SOL    HW242887   7.489   6.592   6.494
13664SOL     OW42888  13.507  14.083   3.493
13664SOL    HW142889  13.483  14.100   3.402
13664SOL    HW242890  13.474  14.159   3.542
13665SOL     OW42891   6.654   3.419   9.340
13665SOL    HW142892   6.618   3.382   9.420
13665SOL    HW242893   6.605   3.500   9.326
13666SOL     OW42894   5.438   6.673  13.357
13666SOL    HW142895   5.458   6.588  13.317
13666SOL    HW242896   5.343   6.673  13.369
13667SOL     OW42897  10.760  13.988  14.507
13667SOL    HW142898  10.771  13.938  14.426
13667SOL    HW242899  10.695  14.055  14.485
13668SOL     OW42900  11.664   9.132  13.167
13668SOL    HW142901  11.673   9.054  13.222
13668SOL    HW242902  11.749   9.176  13.174
13669SOL     OW42903   7.800   2.204   3.454
13669SOL    HW142904   7.716   2.241   3.482
13669SOL    HW242905   7.850   2.196   3.536
13670SOL     OW42906  14.151   9.691   4.412
13670SOL    HW142907  14.234   9.736   4.431
13670SOL    HW242908  14.086   9.736   4.466
13671SOL     OW42909  10.204   5.284  10.786
13671SOL    HW142910  10.145   5.231  10.732
13671SOL    HW242911  10.146   5.340  10.837
13672SOL     OW42912  14.262   1.274   7.260
13672SOL    HW142913  14.173   1.294   7.233
13672SOL    HW242914  14.309   1.357   7.255
13673SOL     OW42915   3.475   1.511   2.151
13673SOL    HW142916   3.398   1.456   2.165
13673SOL    HW242917   3.549   1.451   2.161
13674SOL     OW42918   6.271   7.446   6.335
13674SOL    HW142919   6.182   7.414   6.325
13674SOL    HW242920   6.316   7.379   6.387
13675SOL     OW42921  13.785   7.673   9.166
13675SOL    HW142922  13.812   7.639   9.252
13675SOL    HW242923  13.796   7.768   9.173
13676SOL     OW42924  14.142   0.591  10.842
13676SOL    HW142925  14.224   0.579  10.794
13676SOL    HW242926  14.096   0.660  10.794
13677SOL     OW42927   8.872   1.940  12.088
13677SOL    HW142928   8.946   1.915  12.142
13677SOL    HW242929   8.795   1.923  12.142
13678SOL     OW42930   6.541   7.645  11.131
13678SOL    HW142931   6.448   7.646  11.110
13678SOL    HW242932   6.562   7.552  11.143
13679SOL     OW42933   5.389   7.692   0.067
13679SOL    HW142934   5.443   7.679   0.145
13679SOL    HW242935   5.392   7.608   0.021
13680SOL     OW42936   4.140   0.603   9.981
13680SOL    HW142937   4.129   0.515   9.946
13680SOL    HW242938   4.185   0.590  10.065
13681SOL     OW42939  13.858   1.015   1.213
13681SOL    HW142940  13.872   0.925   1.184
13681SOL    HW242941  13.870   1.012   1.308
13682SOL     OW42942   8.600   8.216   0.053
13682SOL    HW142943   8.589   8.282   0.122
13682SOL    HW242944   8.678   8.245   0.006
13683SOL     OW42945   9.761  14.820   7.619
13683SOL    HW142946   9.744  14.781   7.705
13683SOL    HW242947   9.681  14.867   7.597
13684SOL     OW42948   5.715   8.574   5.873
13684SOL    HW142949   5.795   8.565   5.925
13684SOL    HW242950   5.650   8.608   5.935
13685SOL     OW42951   2.025  12.473   6.176
13685SOL    HW142952   2.027  12.393   6.123
13685SOL    HW242953   2.040  12.442   6.266
13686SOL     OW42954   2.896   6.134   8.196
13686SOL    HW142955   2.879   6.196   8.126
13686SOL    HW242956   2.858   6.052   8.166
13687SOL     OW42957   7.454  12.419   0.934
13687SOL    HW142958   7.463  12.504   0.979
13687SOL    HW242959   7.544  12.394   0.914
13688SOL     OW42960   2.272  13.368   6.276
13688SOL    HW142961   2.260  13.460   6.300
13688SOL    HW242962   2.305  13.370   6.186
13689SOL     OW42963   7.601   8.413   1.166
13689SOL    HW142964   7.514   8.379   1.145
13689SOL    HW242965   7.618   8.383   1.255
13690SOL     OW42966  12.419   9.484   5.821
13690SOL    HW142967  12.503   9.489   5.775
13690SOL    HW242968  12.439   9.514   5.910
13691SOL     OW42969   4.385  10.900   4.836
13691SOL    HW142970   4.480  10.905   4.848
13691SOL    HW242971   4.351  10.876   4.922
13692SOL     OW42972   2.511   3.336  10.102
13692SOL    HW142973   2.466   3.252  10.106
13692SOL    HW242974   2.442   3.400  10.084
13693SOL     OW42975   2.749  11.687   4.187
13693SOL    HW142976   2.673  11.652   4.140
13693SOL    HW242977   2.824  11.651   4.140
13694SOL     OW42978   5.541   9.943   5.288
13694SOL    HW142979   5.555  10.035   5.313
13694SOL    HW242980   5.620   9.898   5.317
13695SOL     OW42981   9.321   8.702   4.863
13695SOL    HW142982   9.302   8.614   4.833
13695SOL    HW242983   9.384   8.691   4.934
13696SOL     OW42984   3.674  11.507  13.076
13696SOL    HW142985   3.751  11.501  13.019
13696SOL    HW242986   3.649  11.599  13.074
13697SOL     OW42987  13.499   4.717   1.083
13697SOL    HW142988  13.430   4.726   1.149
13697SOL    HW242989  13.554   4.795   1.096
13698SOL     OW42990   8.800   4.227   9.606
13698SOL    HW142991   8.725   4.184   9.647
13698SOL    HW242992   8.764   4.269   9.528
13699SOL     OW42993   4.336   1.926   5.741
13699SOL    HW142994   4.414   1.883   5.776
13699SOL    HW242995   4.283   1.854   5.706
13700SOL     OW42996  11.070  13.266   8.507
13700SOL    HW142997  11.003  13.198   8.506
13700SOL    HW242998  11.143  13.228   8.457
13701SOL     OW42999  12.960   4.281   4.960
13701SOL    HW143000  12.881   4.228   4.951
13701SOL    HW243001  13.027   4.233   4.911
13702SOL     OW43002  11.654   2.379  12.042
13702SOL    HW143003  11.679   2.388  11.950
13702SOL    HW243004  11.727   2.419  12.091
13703SOL     OW43005   7.833   1.194  12.947
13703SOL    HW143006   7.758   1.195  12.889
13703SOL    HW243007   7.798   1.165  13.031
13704SOL     OW43008   0.764  11.370   3.202
13704SOL    HW143009   0.727  11.375   3.290
13704SOL    HW243010   0.806  11.455   3.188
13705SOL     OW43011  12.635  14.415   9.184
13705SOL    HW143012  12.568  14.477   9.215
13705SOL    HW243013  12.673  14.379   9.264
13706SOL     OW43014  10.539  13.246  13.433
13706SOL    HW143015  10.542  13.211  13.343
13706SOL    HW243016  10.491  13.328  13.425
13707SOL     OW43017  10.937  14.792   4.007
13707SOL    HW143018  11.003  14.828   4.067
13707SOL    HW243019  10.961  14.700   3.997
13708SOL     OW43020   1.324  13.649   1.513
13708SOL    HW143021   1.387  13.602   1.568
13708SOL    HW243022   1.376  13.711   1.463
13709SOL     OW43023  13.365   7.107  12.140
13709SOL    HW143024  13.401   7.142  12.222
13709SOL    HW243025  13.377   7.177  12.076
13710SOL     OW43026  10.232  14.623   7.799
13710SOL    HW143027  10.172  14.556   7.831
13710SOL    HW243028  10.208  14.635   7.707
13711SOL     OW43029   6.852   6.965   1.873
13711SOL    HW143030   6.765   6.925   1.873
13711SOL    HW243031   6.910   6.893   1.899
13712SOL     OW43032  14.428   3.696  10.499
13712SOL    HW143033  14.369   3.641  10.550
13712SOL    HW243034  14.383   3.781  10.494
13713SOL     OW43035   6.767  11.038  12.292
13713SOL    HW143036   6.736  11.045  12.383
13713SOL    HW243037   6.796  11.126  12.269
13714SOL     OW43038   1.050   1.165   1.955
13714SOL    HW143039   1.010   1.176   1.869
13714SOL    HW243040   1.129   1.113   1.938
13715SOL     OW43041   1.110   9.456   5.099
13715SOL    HW143042   1.024   9.490   5.074
13715SOL    HW243043   1.171   9.492   5.035
13716SOL     OW43044   3.962   5.776   0.917
13716SOL    HW143045   3.960   5.687   0.881
13716SOL    HW243046   3.980   5.832   0.842
13717SOL     OW43047   0.760   2.143  11.914
13717SOL    HW143048   0.673   2.180  11.897
13717SOL    HW243049   0.773   2.077  11.846
13718SOL     OW43050   3.897   4.493  13.628
13718SOL    HW143051   3.940   4.495  13.713
13718SOL    HW243052   3.899   4.585  13.599
13719SOL     OW43053  10.902  14.361   0.504
13719SOL    HW143054  10.874  14.304   0.433
13719SOL    HW243055  10.821  14.394   0.542
13720SOL     OW43056   2.906  14.492   8.383
13720SOL    HW143057   2.822  14.522   8.348
13720SOL    HW243058   2.955  14.572   8.400
13721SOL     OW43059   9.912   2.373  10.643
13721SOL    HW143060   9.829   2.415  10.666
13721SOL    HW243061   9.971   2.397  10.714
13722SOL     OW43062  10.618   5.586  12.367
13722SOL    HW143063  10.569   5.560  12.445
13722SOL    HW243064  10.562   5.652  12.325
13723SOL     OW43065   9.161   3.423   2.535
13723SOL    HW143066   9.131   3.491   2.474
13723SOL    HW243067   9.251   3.449   2.556
13724SOL     OW43068   7.254   4.208  11.211
13724SOL    HW143069   7.175   4.250  11.178
13724SOL    HW243070   7.321   4.228  11.145
13725SOL     OW43071  13.572   3.663  10.386
13725SOL    HW143072  13.605   3.589  10.437
13725SOL    HW243073  13.573   3.737  10.447
13726SOL     OW43074   1.561  13.238  12.297
13726SOL    HW143075   1.619  13.161  12.292
13726SOL    HW243076   1.528  13.248  12.208
13727SOL     OW43077   5.436   2.634   0.582
13727SOL    HW143078   5.439   2.703   0.515
13727SOL    HW243079   5.421   2.681   0.664
13728SOL     OW43080   0.096   1.067  14.575
13728SOL    HW143081   0.148   1.011  14.517
13728SOL    HW243082   0.034   1.111  14.517
13729SOL     OW43083  13.737   8.358   2.052
13729SOL    HW143084  13.661   8.321   2.096
13729SOL    HW243085  13.790   8.395   2.123
13730SOL     OW43086  12.123  11.110  13.153
13730SOL    HW143087  12.139  11.016  13.161
13730SOL    HW243088  12.064  11.131  13.225
13731SOL     OW43089   9.940   6.330   2.412
13731SOL    HW143090   9.877   6.398   2.437
13731SOL    HW243091   9.885   6.255   2.386
13732SOL     OW43092   8.121   4.600   1.290
13732SOL    HW143093   8.089   4.510   1.300
13732SOL    HW243094   8.054   4.643   1.237
13733SOL     OW43095   3.569   8.861   0.428
13733SOL    HW143096   3.642   8.923   0.428
13733SOL    HW243097   3.574   8.818   0.514
13734SOL     OW43098   9.076   8.636   5.275
13734SOL    HW143099   9.058   8.621   5.368
13734SOL    HW243100   9.118   8.555   5.245
13735SOL     OW43101   6.348   7.573   5.415
13735SOL    HW143102   6.331   7.666   5.400
13735SOL    HW243103   6.371   7.567   5.508
13736SOL     OW43104   7.099  14.545   9.463
13736SOL    HW143105   7.133  14.471   9.512
13736SOL    HW243106   7.159  14.554   9.388
13737SOL     OW43107   7.451   5.244   2.839
13737SOL    HW143108   7.402   5.194   2.774
13737SOL    HW243109   7.397   5.241   2.918
13738SOL     OW43110   5.132   6.847   0.720
13738SOL    HW143111   5.168   6.902   0.790
13738SOL    HW243112   5.190   6.861   0.645
13739SOL     OW43113   4.354  10.838   3.471
13739SOL    HW143114   4.379  10.922   3.510
13739SOL    HW243115   4.291  10.801   3.532
13740SOL     OW43116   0.945   6.145  11.879
13740SOL    HW143117   1.028   6.193  11.878
13740SOL    HW243118   0.969   6.056  11.853
13741SOL     OW43119   6.084   4.468  10.359
13741SOL    HW143120   6.076   4.457  10.264
13741SOL    HW243121   6.078   4.563  10.373
13742SOL     OW43122  10.152   5.326   0.154
13742SOL    HW143123  10.168   5.402   0.097
13742SOL    HW243124  10.239   5.287   0.166
13743SOL     OW43125   5.899   3.184   9.278
13743SOL    HW143126   5.805   3.203   9.279
13743SOL    HW243127   5.922   3.171   9.370
13744SOL     OW43128  10.208   6.501   7.046
13744SOL    HW143129  10.146   6.521   6.977
13744SOL    HW243130  10.251   6.421   7.018
13745SOL     OW43131   7.188   1.955   1.143
13745SOL    HW143132   7.151   2.002   1.068
13745SOL    HW243133   7.160   2.006   1.219
13746SOL     OW43134   6.932  10.034  10.476
13746SOL    HW143135   6.887  10.000  10.553
13746SOL    HW243136   6.941   9.958  10.418
13747SOL     OW43137   4.016  12.243  10.795
13747SOL    HW143138   3.922  12.241  10.814
13747SOL    HW243139   4.047  12.155  10.812
13748SOL     OW43140   3.933   3.849  11.980
13748SOL    HW143141   4.020   3.826  11.947
13748SOL    HW243142   3.903   3.919  11.921
13749SOL     OW43143   8.325   0.745  14.466
13749SOL    HW143144   8.257   0.681  14.487
13749SOL    HW243145   8.278   0.822  14.436
13750SOL     OW43146   3.198   2.685   8.808
13750SOL    HW143147   3.104   2.684   8.791
13750SOL    HW243148   3.232   2.755   8.753
13751SOL     OW43149  11.752   1.354  12.902
13751SOL    HW143150  11.822   1.288  12.905
13751SOL    HW243151  11.798   1.437  12.892
13752SOL     OW43152  10.877  10.092   9.926
13752SOL    HW143153  10.839  10.147   9.994
13752SOL    HW243154  10.966  10.073   9.957
13753SOL     OW43155   3.077  14.498   8.833
13753SOL    HW143156   3.160  14.502   8.882
13753SOL    HW243157   3.022  14.438   8.884
13754SOL     OW43158   4.433  13.383  11.058
13754SOL    HW143159   4.381  13.331  11.120
13754SOL    HW243160   4.498  13.322  11.024
13755SOL     OW43161   1.706   9.508   4.497
13755SOL    HW143162   1.782   9.455   4.473
13755SOL    HW243163   1.663   9.458   4.566
13756SOL     OW43164  12.188   5.334   6.817
13756SOL    HW143165  12.139   5.259   6.851
13756SOL    HW243166  12.252   5.353   6.886
13757SOL     OW43167   1.145   4.351   9.311
13757SOL    HW143168   1.208   4.413   9.348
13757SOL    HW243169   1.174   4.266   9.343
13758SOL     OW43170   4.063  11.957   2.781
13758SOL    HW143171   4.082  12.004   2.700
13758SOL    HW243172   4.087  12.018   2.850
13759SOL     OW43173   4.697   0.346   4.569
13759SOL    HW143174   4.770   0.407   4.561
13759SOL    HW243175   4.692   0.303   4.484
13760SOL     OW43176   8.805   9.996   0.158
13760SOL    HW143177   8.781   9.916   0.112
13760SOL    HW243178   8.761  10.066   0.110
13761SOL     OW43179   0.886   7.150  11.796
13761SOL    HW143180   0.886   7.101  11.878
13761SOL    HW243181   0.975   7.184  11.788
13762SOL     OW43182  10.656   8.844  14.548
13762SOL    HW143183  10.580   8.810  14.502
13762SOL    HW243184  10.721   8.774  14.543
13763SOL     OW43185   8.456   1.754   7.461
13763SOL    HW143186   8.371   1.720   7.435
13763SOL    HW243187   8.488   1.801   7.384
13764SOL     OW43188  14.114  10.608   6.416
13764SOL    HW143189  14.152  10.638   6.499
13764SOL    HW243190  14.022  10.593   6.437
13765SOL     OW43191   9.230   1.540   3.925
13765SOL    HW143192   9.294   1.495   3.871
13765SOL    HW243193   9.235   1.497   4.010
13766SOL     OW43194   3.864   1.519   5.891
13766SOL    HW143195   3.866   1.504   5.797
13766SOL    HW243196   3.792   1.464   5.923
13767SOL     OW43197  12.319   3.167   6.755
13767SOL    HW143198  12.358   3.218   6.684
13767SOL    HW243199  12.393   3.125   6.798
13768SOL     OW43200   1.241  14.816  10.149
13768SOL    HW143201   1.300  14.808  10.074
13768SOL    HW243202   1.207  14.728  10.163
13769SOL     OW43203   0.826  11.184   1.151
13769SOL    HW143204   0.885  11.123   1.196
13769SOL    HW243205   0.802  11.248   1.219
13770SOL     OW43206   6.354   3.922   6.692
13770SOL    HW143207   6.431   3.931   6.636
13770SOL    HW243208   6.290   3.984   6.656
13771SOL     OW43209  12.728   6.936   0.399
13771SOL    HW143210  12.760   7.005   0.457
13771SOL    HW243211  12.806   6.893   0.366
13772SOL     OW43212   0.261  14.010   1.076
13772SOL    HW143213   0.341  14.022   1.024
13772SOL    HW243214   0.293  13.980   1.161
13773SOL     OW43215  10.401   6.469   7.324
13773SOL    HW143216  10.343   6.394   7.336
13773SOL    HW243217  10.343   6.545   7.319
13774SOL     OW43218  10.885  13.373   6.448
13774SOL    HW143219  10.890  13.352   6.542
13774SOL    HW243220  10.812  13.433   6.441
13775SOL     OW43221   9.607   9.926   5.097
13775SOL    HW143222   9.542   9.856   5.084
13775SOL    HW243223   9.592   9.986   5.023
13776SOL     OW43224   1.849   3.198   2.104
13776SOL    HW143225   1.879   3.257   2.035
13776SOL    HW243226   1.816   3.121   2.057
13777SOL     OW43227   3.157  11.053   5.803
13777SOL    HW143228   3.190  10.974   5.845
13777SOL    HW243229   3.139  11.027   5.713
13778SOL     OW43230   6.479  12.246   2.296
13778SOL    HW143231   6.546  12.191   2.256
13778SOL    HW243232   6.476  12.324   2.240
13779SOL     OW43233   2.095   1.065   0.686
13779SOL    HW143234   2.174   1.037   0.733
13779SOL    HW243235   2.069   0.987   0.636
13780SOL     OW43236  12.405  14.194   7.337
13780SOL    HW143237  12.471  14.255   7.369
13780SOL    HW243238  12.451  14.142   7.270
13781SOL     OW43239  10.127   5.438   9.738
13781SOL    HW143240  10.192   5.424   9.670
13781SOL    HW243241  10.073   5.359   9.738
13782SOL     OW43242   6.811   3.241   3.744
13782SOL    HW143243   6.759   3.162   3.742
13782SOL    HW243244   6.802   3.279   3.656
13783SOL     OW43245   0.895   6.424   1.902
13783SOL    HW143246   0.881   6.332   1.925
13783SOL    HW243247   0.824   6.444   1.841
13784SOL     OW43248   0.292   1.617   8.096
13784SOL    HW143249   0.205   1.628   8.056
13784SOL    HW243250   0.319   1.706   8.118
13785SOL     OW43251   7.558   8.482   4.491
13785SOL    HW143252   7.580   8.393   4.465
13785SOL    HW243253   7.468   8.495   4.460
13786SOL     OW43254  13.009  11.894   1.338
13786SOL    HW143255  12.921  11.923   1.317
13786SOL    HW243256  13.060  11.974   1.344
13787SOL     OW43257  11.262   7.231   0.231
13787SOL    HW143258  11.205   7.280   0.290
13787SOL    HW243259  11.274   7.289   0.155
13788SOL     OW43260  12.630   2.688   4.720
13788SOL    HW143261  12.669   2.645   4.797
13788SOL    HW243262  12.544   2.717   4.750
13789SOL     OW43263  11.046   1.674   4.305
13789SOL    HW143264  10.954   1.657   4.287
13789SOL    HW243265  11.088   1.671   4.219
13790SOL     OW43266   9.722   4.612   3.745
13790SOL    HW143267   9.745   4.523   3.772
13790SOL    HW243268   9.631   4.605   3.716
13791SOL     OW43269  12.247  12.857   8.088
13791SOL    HW143270  12.245  12.765   8.112
13791SOL    HW243271  12.309  12.896   8.150
13792SOL     OW43272  13.849   3.912   4.698
13792SOL    HW143273  13.865   4.006   4.712
13792SOL    HW243274  13.934   3.877   4.671
13793SOL     OW43275   0.692  10.561  11.297
13793SOL    HW143276   0.774  10.516  11.319
13793SOL    HW243277   0.679  10.541  11.204
13794SOL     OW43278  11.017  11.514   0.992
13794SOL    HW143279  10.977  11.441   1.039
13794SOL    HW243280  10.953  11.537   0.925
13795SOL     OW43281  11.707   6.467  10.151
13795SOL    HW143282  11.777   6.532  10.155
13795SOL    HW243283  11.661   6.476  10.234
13796SOL     OW43284   0.395   4.411  13.180
13796SOL    HW143285   0.405   4.350  13.253
13796SOL    HW243286   0.481   4.415  13.139
13797SOL     OW43287   5.989  14.646  14.742
13797SOL    HW143288   6.047  14.691  14.681
13797SOL    HW243289   5.906  14.639  14.695
13798SOL     OW43290   1.742   5.797   8.928
13798SOL    HW143291   1.825   5.773   8.969
13798SOL    HW243292   1.703   5.714   8.901
13799SOL     OW43293  14.350   8.193   9.450
13799SOL    HW143294  14.441   8.220   9.446
13799SOL    HW243295  14.310   8.251   9.514
13800SOL     OW43296   7.086   9.979   7.824
13800SOL    HW143297   7.021   9.933   7.878
13800SOL    HW243298   7.077   9.940   7.737
13801SOL     OW43299   5.165   8.903   8.466
13801SOL    HW143300   5.259   8.911   8.451
13801SOL    HW243301   5.136   8.992   8.487
13802SOL     OW43302  14.399   9.762   6.741
13802SOL    HW143303  14.364   9.842   6.702
13802SOL    HW243304  14.408   9.784   6.834
13803SOL     OW43305   3.953   7.867   8.637
13803SOL    HW143306   4.033   7.883   8.687
13803SOL    HW243307   3.888   7.924   8.677
13804SOL     OW43308   5.699   4.100   2.181
13804SOL    HW143309   5.754   4.023   2.195
13804SOL    HW243310   5.631   4.093   2.248
13805SOL     OW43311   3.831  12.240  12.404
13805SOL    HW143312   3.805  12.161  12.452
13805SOL    HW243313   3.869  12.297  12.470
13806SOL     OW43314   2.240   4.438   6.556
13806SOL    HW143315   2.223   4.348   6.527
13806SOL    HW243316   2.160   4.465   6.600
13807SOL     OW43317   5.821   8.060   9.601
13807SOL    HW143318   5.858   7.981   9.639
13807SOL    HW243319   5.896   8.106   9.563
13808SOL     OW43320  11.081   2.126   5.925
13808SOL    HW143321  11.066   2.203   5.980
13808SOL    HW243322  11.133   2.067   5.980
13809SOL     OW43323   2.815  10.914   9.520
13809SOL    HW143324   2.731  10.909   9.474
13809SOL    HW243325   2.860  10.988   9.481
13810SOL     OW43326   7.604  13.605   5.161
13810SOL    HW143327   7.565  13.689   5.187
13810SOL    HW243328   7.571  13.589   5.073
13811SOL     OW43329   3.562   6.628   3.878
13811SOL    HW143330   3.617   6.571   3.824
13811SOL    HW243331   3.559   6.585   3.963
13812SOL     OW43332   2.078  13.871  11.737
13812SOL    HW143333   2.029  13.793  11.763
13812SOL    HW243334   2.163  13.863  11.781
13813SOL     OW43335   9.982   3.961  12.655
13813SOL    HW143336  10.066   3.932  12.619
13813SOL    HW243337  10.006   4.012  12.733
13814SOL     OW43338   4.967   9.189   7.693
13814SOL    HW143339   4.917   9.219   7.769
13814SOL    HW243340   4.922   9.110   7.664
13815SOL     OW43341  12.008   4.140   1.730
13815SOL    HW143342  11.914   4.141   1.752
13815SOL    HW243343  12.021   4.058   1.683
13816SOL     OW43344   8.595   5.733  12.826
13816SOL    HW143345   8.520   5.729  12.885
13816SOL    HW243346   8.586   5.655  12.771
13817SOL     OW43347   3.713  12.980  11.094
13817SOL    HW143348   3.677  13.055  11.142
13817SOL    HW243349   3.803  12.972  11.126
13818SOL     OW43350   9.176  14.175   2.202
13818SOL    HW143351   9.083  14.172   2.179
13818SOL    HW243352   9.210  14.250   2.154
13819SOL     OW43353   6.842   8.654   4.139
13819SOL    HW143354   6.872   8.564   4.152
13819SOL    HW243355   6.746   8.648   4.139
13820SOL     OW43356   4.387   1.710   8.336
13820SOL    HW143357   4.447   1.711   8.261
13820SOL    HW243358   4.317   1.650   8.309
13821SOL     OW43359   2.982  11.629  12.349
13821SOL    HW143360   2.913  11.690  12.325
13821SOL    HW243361   3.021  11.666  12.427
13822SOL     OW43362   9.816   4.073   4.778
13822SOL    HW143363   9.728   4.049   4.747
13822SOL    HW243364   9.875   4.024   4.721
13823SOL     OW43365   0.388   9.711   8.273
13823SOL    HW143366   0.347   9.796   8.285
13823SOL    HW243367   0.482   9.729   8.272
13824SOL     OW43368   4.110   0.320   9.884
13824SOL    HW143369   4.095   0.237   9.930
13824SOL    HW243370   4.188   0.356   9.924
13825SOL     OW43371   9.125   8.392   6.109
13825SOL    HW143372   9.130   8.361   6.200
13825SOL    HW243373   9.040   8.435   6.104
13826SOL     OW43374   9.557  10.274   8.183
13826SOL    HW143375   9.531  10.184   8.165
13826SOL    HW243376   9.519  10.325   8.111
13827SOL     OW43377  14.207   9.286   8.109
13827SOL    HW143378  14.122   9.253   8.136
13827SOL    HW243379  14.204   9.287   8.013
13828SOL     OW43380   8.788  13.130  13.931
13828SOL    HW143381   8.751  13.181  14.003
13828SOL    HW243382   8.723  13.135  13.862
13829SOL     OW43383  14.274  13.010  12.378
13829SOL    HW143384  14.219  13.070  12.427
13829SOL    HW243385  14.344  13.065  12.342
13830SOL     OW43386  13.063  12.363  11.730
13830SOL    HW143387  13.149  12.405  11.723
13830SOL    HW243388  13.003  12.425  11.688
13831SOL     OW43389  12.496  14.371  11.801
13831SOL    HW143390  12.477  14.464  11.789
13831SOL    HW243391  12.445  14.346  11.878
13832SOL     OW43392   1.125   8.249   7.210
13832SOL    HW143393   1.202   8.270   7.158
13832SOL    HW243394   1.156   8.252   7.301
13833SOL     OW43395  14.069   6.547  14.271
13833SOL    HW143396  14.161   6.545  14.244
13833SOL    HW243397  14.049   6.456  14.292
13834SOL     OW43398  12.326   5.931  14.471
13834SOL    HW143399  12.404   5.875  14.475
13834SOL    HW243400  12.270   5.889  14.406
13835SOL     OW43401  11.101  10.557   7.993
13835SOL    HW143402  11.141  10.643   7.989
13835SOL    HW243403  11.050  10.550   7.912
13836SOL     OW43404  13.059   5.509   8.332
13836SOL    HW143405  13.112   5.430   8.341
13836SOL    HW243406  13.103   5.574   8.388
13837SOL     OW43407  13.354   5.080   8.677
13837SOL    HW143408  13.297   5.032   8.736
13837SOL    HW243409  13.396   5.146   8.732
13838SOL     OW43410   0.370   5.901   9.190
13838SOL    HW143411   0.295   5.852   9.158
13838SOL    HW243412   0.446   5.853   9.157
13839SOL     OW43413  11.778  12.098  13.871
13839SOL    HW143414  11.738  12.183  13.893
13839SOL    HW243415  11.725  12.066  13.798
13840SOL     OW43416   0.412  14.530  12.495
13840SOL    HW143417   0.476  14.496  12.432
13840SOL    HW243418   0.366  14.452  12.526
13841SOL     OW43419   7.345  13.643  12.775
13841SOL    HW143420   7.327  13.579  12.844
13841SOL    HW243421   7.281  13.624  12.707
13842SOL     OW43422  14.754   9.501  14.096
13842SOL    HW143423  14.741   9.473  14.186
13842SOL    HW243424  14.770   9.419  14.048
13843SOL     OW43425  11.037  11.488  11.132
13843SOL    HW143426  11.095  11.437  11.188
13843SOL    HW243427  10.952  11.444  11.138
13844SOL     OW43428   8.487   2.961   0.180
13844SOL    HW143429   8.449   3.046   0.200
13844SOL    HW243430   8.458   2.942   0.091
13845SOL     OW43431   0.848   4.904   0.827
13845SOL    HW143432   0.809   4.834   0.879
13845SOL    HW243433   0.942   4.888   0.833
13846SOL     OW43434   3.384  10.126   7.443
13846SOL    HW143435   3.303  10.080   7.423
13846SOL    HW243436   3.364  10.218   7.429
13847SOL     OW43437   2.223  12.812   5.847
13847SOL    HW143438   2.232  12.720   5.871
13847SOL    HW243439   2.158  12.847   5.909
13848SOL     OW43440   9.347  10.168  14.751
13848SOL    HW143441   9.354  10.072  14.753
13848SOL    HW243442   9.364  10.191  14.660
13849SOL     OW43443   6.274   5.709   7.353
13849SOL    HW143444   6.237   5.626   7.383
13849SOL    HW243445   6.298   5.755   7.433
13850SOL     OW43446   4.271  11.197   2.934
13850SOL    HW143447   4.299  11.150   3.013
13850SOL    HW243448   4.335  11.267   2.924
13851SOL     OW43449   7.279  10.385  14.758
13851SOL    HW143450   7.254  10.294  14.747
13851SOL    HW243451   7.305  10.414  14.671
13852SOL     OW43452  12.535   1.761  11.878
13852SOL    HW143453  12.487   1.830  11.924
13852SOL    HW243454  12.616   1.803  11.850
13853SOL     OW43455   8.322  14.249   2.508
13853SOL    HW143456   8.346  14.191   2.580
13853SOL    HW243457   8.396  14.309   2.499
13854SOL     OW43458   2.926  12.054   9.374
13854SOL    HW143459   2.877  12.064   9.292
13854SOL    HW243460   2.863  12.075   9.443
13855SOL     OW43461   3.824   7.380  12.074
13855SOL    HW143462   3.813   7.326  12.152
13855SOL    HW243463   3.887   7.332  12.020
13856SOL     OW43464   6.227  13.527   3.596
13856SOL    HW143465   6.202  13.573   3.676
13856SOL    HW243466   6.159  13.460   3.584
13857SOL     OW43467   4.924   0.668   5.982
13857SOL    HW143468   5.011   0.635   6.003
13857SOL    HW243469   4.916   0.656   5.887
13858SOL     OW43470  14.689  11.878  14.136
13858SOL    HW143471  14.763  11.828  14.102
13858SOL    HW243472  14.659  11.929  14.061
13859SOL     OW43473   9.791   9.773  13.026
13859SOL    HW143474   9.766   9.782  12.934
13859SOL    HW243475   9.887   9.781  13.025
13860SOL     OW43476   9.981   3.712   5.138
13860SOL    HW143477   9.995   3.707   5.233
13860SOL    HW243478   9.888   3.693   5.127
13861SOL     OW43479   1.064  11.224   9.013
13861SOL    HW143480   1.066  11.308   8.968
13861SOL    HW243481   1.054  11.159   8.942
13862SOL     OW43482   2.437  12.371   6.976
13862SOL    HW143483   2.474  12.285   6.954
13862SOL    HW243484   2.405  12.405   6.893
13863SOL     OW43485   0.468   1.508   1.628
13863SOL    HW143486   0.391   1.489   1.681
13863SOL    HW243487   0.436   1.559   1.554
13864SOL     OW43488  13.589   9.185   6.876
13864SOL    HW143489  13.643   9.153   6.948
13864SOL    HW243490  13.514   9.125   6.873
13865SOL     OW43491  12.321  11.976   4.069
13865SOL    HW143492  12.268  11.970   4.148
13865SOL    HW243493  12.378  11.899   4.071
13866SOL     OW43494  10.204  10.609   4.545
13866SOL    HW143495  10.148  10.552   4.493
13866SOL    HW243496  10.225  10.557   4.623
13867SOL     OW43497  14.091   4.329  14.829
13867SOL    HW143498  14.101   4.291   0.039
13867SOL    HW243499  14.104   4.255  14.769
13868SOL     OW43500  12.565   8.895   7.713
13868SOL    HW143501  12.565   8.987   7.743
13868SOL    HW243502  12.506   8.894   7.638
13869SOL     OW43503  14.190   5.019   3.428
13869SOL    HW143504  14.129   5.068   3.372
13869SOL    HW243505  14.144   5.011   3.512
13870SOL     OW43506  14.125   0.486   6.472
13870SOL    HW143507  14.183   0.561   6.483
13870SOL    HW243508  14.162   0.418   6.529
13871SOL     OW43509   7.345  10.176  11.804
13871SOL    HW143510   7.253  10.161  11.827
13871SOL    HW243511   7.342  10.249  11.742
13872SOL     OW43512  13.044   8.582  11.484
13872SOL    HW143513  12.957   8.618  11.501
13872SOL    HW243514  13.103   8.638  11.535
13873SOL     OW43515  10.768   4.232   1.261
13873SOL    HW143516  10.818   4.204   1.185
13873SOL    HW243517  10.805   4.317   1.285
13874SOL     OW43518   1.348   3.209   1.199
13874SOL    HW143519   1.285   3.258   1.146
13874SOL    HW243520   1.350   3.122   1.160
13875SOL     OW43521   9.434   1.139   7.899
13875SOL    HW143522   9.423   1.131   7.804
13875SOL    HW243523   9.402   1.227   7.919
13876SOL     OW43524   8.721   8.341  12.079
13876SOL    HW143525   8.714   8.313  12.170
13876SOL    HW243526   8.644   8.396  12.065
13877SOL     OW43527   8.625   2.605  10.962
13877SOL    HW143528   8.534   2.630  10.980
13877SOL    HW243529   8.667   2.685  10.932
13878SOL     OW43530   4.583   3.341   7.925
13878SOL    HW143531   4.568   3.328   8.018
13878SOL    HW243532   4.614   3.256   7.893
13879SOL     OW43533  13.773   8.779   5.406
13879SOL    HW143534  13.768   8.724   5.327
13879SOL    HW243535  13.692   8.830   5.404
13880SOL     OW43536   5.831   4.587  13.434
13880SOL    HW143537   5.748   4.602  13.479
13880SOL    HW243538   5.898   4.619  13.494
13881SOL     OW43539  12.301   0.450  11.442
13881SOL    HW143540  12.209   0.423  11.446
13881SOL    HW243541  12.306   0.504  11.364
13882SOL     OW43542   4.976   6.972   7.571
13882SOL    HW143543   4.925   7.051   7.553
13882SOL    HW243544   4.942   6.941   7.655
13883SOL     OW43545  14.178   4.591   1.096
13883SOL    HW143546  14.092   4.593   1.054
13883SOL    HW243547  14.240   4.606   1.025
13884SOL     OW43548   3.022   6.514  11.065
13884SOL    HW143549   2.959   6.566  11.015
13884SOL    HW243550   3.083   6.481  10.999
13885SOL     OW43551   8.676   5.857  13.070
13885SOL    HW143552   8.752   5.823  13.116
13885SOL    HW243553   8.667   5.800  12.994
13886SOL     OW43554   8.920   3.016   2.747
13886SOL    HW143555   8.991   3.076   2.770
13886SOL    HW243556   8.930   3.003   2.653
13887SOL     OW43557   3.977   3.132  12.608
13887SOL    HW143558   3.994   3.048  12.652
13887SOL    HW243559   4.035   3.131  12.532
13888SOL     OW43560   2.398   6.522   5.769
13888SOL    HW143561   2.362   6.540   5.856
13888SOL    HW243562   2.493   6.523   5.781
13889SOL     OW43563   9.587  11.870  14.695
13889SOL    HW143564   9.537  11.899  14.619
13889SOL    HW243565   9.623  11.951  14.732
13890SOL     OW43566   3.980   7.962   2.597
13890SOL    HW143567   4.055   7.909   2.571
13890SOL    HW243568   3.909   7.935   2.539
13891SOL     OW43569   0.388   4.340  13.481
13891SOL    HW143570   0.368   4.434  13.477
13891SOL    HW243571   0.436   4.330  13.563
13892SOL     OW43572   7.905   8.684  10.435
13892SOL    HW143573   7.996   8.702  10.412
13892SOL    HW243574   7.910   8.621  10.507
13893SOL     OW43575   9.652   2.138   7.038
13893SOL    HW143576   9.653   2.225   7.078
13893SOL    HW243577   9.590   2.088   7.091
13894SOL     OW43578  10.844   5.088  10.154
13894SOL    HW143579  10.924   5.079  10.102
13894SOL    HW243580  10.797   5.006  10.142
13895SOL     OW43581   0.531  13.854   3.777
13895SOL    HW143582   0.544  13.946   3.801
13895SOL    HW243583   0.593  13.806   3.832
13896SOL     OW43584  12.647  14.865   1.269
13896SOL    HW143585  12.617   0.071   1.304
13896SOL    HW243586  12.651   0.001   1.174
13897SOL     OW43587   9.060  14.869  10.923
13897SOL    HW143588   8.967   0.007  10.905
13897SOL    HW243589   9.066  14.776  10.943
13898SOL     OW43590  14.157   2.785   1.736
13898SOL    HW143591  14.215   2.718   1.699
13898SOL    HW243592  14.170   2.777   1.831
13899SOL     OW43593  11.091  12.878   4.143
13899SOL    HW143594  11.115  12.800   4.093
13899SOL    HW243595  11.100  12.950   4.080
13900SOL     OW43596   1.440   7.912  11.310
13900SOL    HW143597   1.371   7.939  11.371
13900SOL    HW243598   1.475   7.831  11.348
13901SOL     OW43599   6.534   9.852  10.249
13901SOL    HW143600   6.593   9.777  10.252
13901SOL    HW243601   6.542   9.885  10.160
13902SOL     OW43602   4.404   3.324  11.935
13902SOL    HW143603   4.409   3.399  11.994
13902SOL    HW243604   4.440   3.357  11.852
13903SOL     OW43605   1.167   7.939   6.118
13903SOL    HW143606   1.135   7.856   6.153
13903SOL    HW243607   1.146   8.004   6.185
13904SOL     OW43608   6.286   3.744  14.508
13904SOL    HW143609   6.270   3.734  14.602
13904SOL    HW243610   6.202   3.722  14.467
13905SOL     OW43611   9.643   0.046   1.101
13905SOL    HW143612   9.718   0.088   1.143
13905SOL    HW243613   9.567   0.095   1.133
13906SOL     OW43614   8.039   2.268   9.605
13906SOL    HW143615   7.998   2.210   9.540
13906SOL    HW243616   7.980   2.343   9.610
13907SOL     OW43617   2.049   2.706   8.552
13907SOL    HW143618   2.135   2.706   8.511
13907SOL    HW243619   1.987   2.712   8.480
13908SOL     OW43620  10.267   0.178  10.342
13908SOL    HW143621  10.289   0.155  10.252
13908SOL    HW243622  10.224   0.100  10.377
13909SOL     OW43623  10.865   0.876  14.031
13909SOL    HW143624  10.817   0.832  14.101
13909SOL    HW243625  10.908   0.805  13.984
13910SOL     OW43626  13.499  10.884   3.777
13910SOL    HW143627  13.509  10.951   3.709
13910SOL    HW243628  13.543  10.807   3.741
13911SOL     OW43629   5.376   0.927   9.395
13911SOL    HW143630   5.404   0.972   9.315
13911SOL    HW243631   5.364   0.998   9.459
13912SOL     OW43632   0.536  14.083   0.459
13912SOL    HW143633   0.563  14.073   0.367
13912SOL    HW243634   0.604  14.037   0.509
13913SOL     OW43635   4.436   7.771   4.066
13913SOL    HW143636   4.379   7.705   4.105
13913SOL    HW243637   4.509   7.722   4.031
13914SOL     OW43638  10.503  12.379   7.396
13914SOL    HW143639  10.497  12.457   7.451
13914SOL    HW243640  10.421  12.377   7.348
13915SOL     OW43641   1.512   3.659  11.980
13915SOL    HW143642   1.576   3.593  11.956
13915SOL    HW243643   1.499   3.710  11.899
13916SOL     OW43644   3.794  13.190  13.484
13916SOL    HW143645   3.878  13.225  13.456
13916SOL    HW243646   3.795  13.199  13.580
13917SOL     OW43647  11.788  12.568   7.939
13917SOL    HW143648  11.764  12.649   7.893
13917SOL    HW243649  11.767  12.498   7.877
13918SOL     OW43650   8.465   7.237   8.489
13918SOL    HW143651   8.539   7.211   8.545
13918SOL    HW243652   8.456   7.331   8.505
13919SOL     OW43653   0.449   8.142  11.860
13919SOL    HW143654   0.518   8.205  11.839
13919SOL    HW243655   0.465   8.069  11.801
13920SOL     OW43656   5.722  12.753  13.466
13920SOL    HW143657   5.636  12.775  13.503
13920SOL    HW243658   5.715  12.777  13.373
13921SOL     OW43659   3.850   1.499   0.055
13921SOL    HW143660   3.850   1.565   0.125
13921SOL    HW243661   3.836   1.416   0.102
13922SOL     OW43662   8.532   1.794  13.105
13922SOL    HW143663   8.485   1.712  13.119
13922SOL    HW243664   8.467   1.862  13.118
13923SOL     OW43665   2.503   6.334  13.000
13923SOL    HW143666   2.582   6.298  12.960
13923SOL    HW243667   2.489   6.418  12.956
13924SOL     OW43668   9.777  11.436   5.505
13924SOL    HW143669   9.691  11.402   5.532
13924SOL    HW243670   9.828  11.358   5.483
13925SOL     OW43671   1.086   4.828  11.084
13925SOL    HW143672   0.991   4.823  11.072
13925SOL    HW243673   1.120   4.748  11.044
13926SOL     OW43674   6.731  13.561  10.128
13926SOL    HW143675   6.663  13.589  10.190
13926SOL    HW243676   6.809  13.549  10.182
13927SOL     OW43677   1.050   2.600  10.209
13927SOL    HW143678   1.046   2.597  10.305
13927SOL    HW243679   0.963   2.631  10.182
13928SOL     OW43680  12.532   2.868  11.103
13928SOL    HW143681  12.562   2.959  11.103
13928SOL    HW243682  12.613   2.817  11.095
13929SOL     OW43683  11.955   8.443  10.206
13929SOL    HW143684  11.883   8.504  10.219
13929SOL    HW243685  11.997   8.437  10.292
13930SOL     OW43686   1.264  11.335   0.531
13930SOL    HW143687   1.179  11.377   0.537
13930SOL    HW243688   1.249  11.245   0.559
13931SOL     OW43689  13.039   9.291   9.276
13931SOL    HW143690  12.999   9.266   9.359
13931SOL    HW243691  12.965   9.314   9.220
13932SOL     OW43692   0.809   0.689   5.364
13932SOL    HW143693   0.809   0.782   5.388
13932SOL    HW243694   0.741   0.681   5.298
13933SOL     OW43695  11.148   1.912  12.747
13933SOL    HW143696  11.172   1.988  12.799
13933SOL    HW243697  11.053   1.911  12.747
13934SOL     OW43698   2.337   5.146  10.771
13934SOL    HW143699   2.285   5.172  10.696
13934SOL    HW243700   2.324   5.216  10.835
13935SOL     OW43701   3.597   9.930   3.575
13935SOL    HW143702   3.617  10.001   3.636
13935SOL    HW243703   3.534   9.968   3.515
13936SOL     OW43704   0.958   7.900  14.213
13936SOL    HW143705   0.971   7.904  14.118
13936SOL    HW243706   0.864   7.885  14.224
13937SOL     OW43707  14.329  11.685  14.707
13937SOL    HW143708  14.324  11.646  14.794
13937SOL    HW243709  14.359  11.775  14.724
13938SOL     OW43710   8.487  14.551   0.652
13938SOL    HW143711   8.567  14.532   0.700
13938SOL    HW243712   8.418  14.551   0.718
13939SOL     OW43713   0.244   2.546  10.052
13939SOL    HW143714   0.319   2.574  10.000
13939SOL    HW243715   0.206   2.627  10.085
13940SOL     OW43716  12.921  12.422   4.676
13940SOL    HW143717  12.916  12.392   4.586
13940SOL    HW243718  12.830  12.438   4.701
13941SOL     OW43719  11.024  13.952   3.287
13941SOL    HW143720  10.957  13.998   3.237
13941SOL    HW243721  11.083  13.915   3.221
13942SOL     OW43722   5.144  12.801   1.144
13942SOL    HW143723   5.057  12.795   1.103
13942SOL    HW243724   5.205  12.775   1.075
13943SOL     OW43725   8.153   1.866   1.842
13943SOL    HW143726   8.090   1.937   1.855
13943SOL    HW243727   8.238   1.911   1.836
13944SOL     OW43728   7.538   5.040  13.180
13944SOL    HW143729   7.484   4.981  13.232
13944SOL    HW243730   7.515   5.128  13.212
13945SOL     OW43731  14.401   5.637   3.522
13945SOL    HW143732  14.428   5.702   3.457
13945SOL    HW243733  14.314   5.609   3.493
13946SOL     OW43734  14.554   0.755  10.198
13946SOL    HW143735  14.581   0.845  10.214
13946SOL    HW243736  14.532   0.753  10.105
13947SOL     OW43737   3.347   8.290   0.679
13947SOL    HW143738   3.337   8.347   0.755
13947SOL    HW243739   3.258   8.264   0.656
13948SOL     OW43740   0.085  10.740   7.362
13948SOL    HW143741   0.052  10.653   7.383
13948SOL    HW243742   0.045  10.797   7.429
13949SOL     OW43743   9.836  10.897   6.142
13949SOL    HW143744   9.750  10.901   6.182
13949SOL    HW243745   9.897  10.881   6.214
13950SOL     OW43746   9.908   2.009   9.322
13950SOL    HW143747   9.904   1.914   9.308
13950SOL    HW243748   9.879   2.047   9.239
13951SOL     OW43749   6.939   7.337   8.978
13951SOL    HW143750   6.928   7.342   9.073
13951SOL    HW243751   6.903   7.252   8.953
13952SOL     OW43752   8.948  10.055   1.947
13952SOL    HW143753   8.909  10.130   1.992
13952SOL    HW243754   8.880   9.988   1.949
13953SOL     OW43755   8.750   6.378  13.796
13953SOL    HW143756   8.665   6.352  13.761
13953SOL    HW243757   8.773   6.458  13.749
13954SOL     OW43758   9.842   4.104  11.394
13954SOL    HW143759   9.826   4.097  11.489
13954SOL    HW243760   9.883   4.021  11.370
13955SOL     OW43761   6.949   7.152   6.323
13955SOL    HW143762   7.011   7.084   6.348
13955SOL    HW243763   7.003   7.223   6.288
13956SOL     OW43764   1.042   9.843   9.610
13956SOL    HW143765   0.989   9.765   9.623
13956SOL    HW243766   1.073   9.837   9.520
13957SOL     OW43767   8.797   4.857   1.231
13957SOL    HW143768   8.737   4.929   1.213
13957SOL    HW243769   8.821   4.824   1.144
13958SOL     OW43770  13.441  12.609  10.323
13958SOL    HW143771  13.438  12.684  10.263
13958SOL    HW243772  13.367  12.624  10.383
13959SOL     OW43773   3.386   4.760   9.386
13959SOL    HW143774   3.411   4.790   9.299
13959SOL    HW243775   3.454   4.795   9.444
13960SOL     OW43776   1.296   5.573   3.050
13960SOL    HW143777   1.294   5.628   3.128
13960SOL    HW243778   1.218   5.597   3.001
13961SOL     OW43779  14.494   3.586   6.869
13961SOL    HW143780  14.558   3.652   6.841
13961SOL    HW243781  14.521   3.506   6.824
13962SOL     OW43782   8.170   1.115   2.444
13962SOL    HW143783   8.118   1.165   2.507
13962SOL    HW243784   8.126   1.130   2.360
13963SOL     OW43785  11.205   4.470   5.359
13963SOL    HW143786  11.117   4.497   5.385
13963SOL    HW243787  11.219   4.386   5.403
13964SOL     OW43788   7.132   5.377  10.350
13964SOL    HW143789   7.126   5.334  10.264
13964SOL    HW243790   7.137   5.470  10.330
13965SOL     OW43791   4.856   6.892   7.805
13965SOL    HW143792   4.871   6.825   7.871
13965SOL    HW243793   4.761   6.904   7.804
13966SOL     OW43794  11.579   1.676   1.917
13966SOL    HW143795  11.511   1.726   1.963
13966SOL    HW243796  11.569   1.586   1.950
13967SOL     OW43797  10.455  13.277  12.098
13967SOL    HW143798  10.373  13.236  12.071
13967SOL    HW243799  10.494  13.214  12.159
13968SOL     OW43800   0.340  10.078   3.957
13968SOL    HW143801   0.354  10.041   4.044
13968SOL    HW243802   0.375  10.167   3.963
13969SOL     OW43803   3.066   0.032   4.646
13969SOL    HW143804   3.124   0.025   4.571
13969SOL    HW243805   3.032   0.122   4.642
13970SOL     OW43806  13.842   0.761   0.922
13970SOL    HW143807  13.896   0.836   0.896
13970SOL    HW243808  13.905   0.697   0.955
13971SOL     OW43809  14.339   9.508   5.078
13971SOL    HW143810  14.253   9.477   5.049
13971SOL    HW243811  14.376   9.434   5.126
13972SOL     OW43812   5.904   2.883  11.561
13972SOL    HW143813   5.993   2.867  11.530
13972SOL    HW243814   5.892   2.820  11.632
13973SOL     OW43815  11.331  11.025  11.904
13973SOL    HW143816  11.273  10.969  11.956
13973SOL    HW243817  11.360  10.968  11.833
13974SOL     OW43818   2.007   4.202  10.276
13974SOL    HW143819   2.035   4.294  10.279
13974SOL    HW243820   1.921   4.201  10.317
13975SOL     OW43821   0.888   4.785   1.785
13975SOL    HW143822   0.801   4.813   1.815
13975SOL    HW243823   0.940   4.866   1.786
13976SOL     OW43824   7.897  10.748   7.512
13976SOL    HW143825   7.827  10.777   7.570
13976SOL    HW243826   7.858  10.674   7.464
13977SOL     OW43827   3.567  12.897   8.637
13977SOL    HW143828   3.543  12.945   8.717
13977SOL    HW243829   3.560  12.963   8.567
13978SOL     OW43830  10.046   9.274   6.514
13978SOL    HW143831  10.122   9.303   6.464
13978SOL    HW243832   9.973   9.284   6.453
13979SOL     OW43833   6.871   6.156   5.020
13979SOL    HW143834   6.932   6.155   5.094
13979SOL    HW243835   6.926   6.143   4.943
13980SOL     OW43836  11.244  12.017   1.225
13980SOL    HW143837  11.281  12.061   1.301
13980SOL    HW243838  11.294  11.936   1.216
13981SOL     OW43839   1.124   5.429   3.356
13981SOL    HW143840   1.146   5.347   3.401
13981SOL    HW243841   1.183   5.432   3.281
13982SOL     OW43842   0.965  10.192   7.617
13982SOL    HW143843   1.037  10.256   7.617
13982SOL    HW243844   1.007  10.108   7.603
13983SOL     OW43845  10.440   8.977   4.730
13983SOL    HW143846  10.436   8.950   4.822
13983SOL    HW243847  10.508   8.923   4.692
13984SOL     OW43848  11.076   7.469  10.132
13984SOL    HW143849  10.999   7.524  10.126
13984SOL    HW243850  11.058   7.396  10.072
13985SOL     OW43851  13.904  11.349   9.456
13985SOL    HW143852  13.855  11.279   9.413
13985SOL    HW243853  13.903  11.324   9.549
13986SOL     OW43854   0.025   0.079  12.399
13986SOL    HW143855  14.857   0.055  12.318
13986SOL    HW243856  14.840   0.062  12.468
13987SOL     OW43857   6.381   9.814  13.521
13987SOL    HW143858   6.466   9.807  13.479
13987SOL    HW243859   6.350   9.724  13.530
13988SOL     OW43860   5.315  14.039   2.056
13988SOL    HW143861   5.306  13.958   2.107
13988SOL    HW243862   5.230  14.082   2.064
13989SOL     OW43863   0.407   7.317   0.975
13989SOL    HW143864   0.459   7.247   0.937
13989SOL    HW243865   0.321   7.309   0.934
13990SOL     OW43866  11.945  13.231  11.596
13990SOL    HW143867  11.856  13.263  11.609
13990SOL    HW243868  11.984  13.234  11.684
13991SOL     OW43869  13.083  10.932   5.745
13991SOL    HW143870  13.115  10.972   5.664
13991SOL    HW243871  13.156  10.937   5.806
13992SOL     OW43872  13.891  12.300  13.500
13992SOL    HW143873  13.836  12.365  13.458
13992SOL    HW243874  13.836  12.221  13.504
13993SOL     OW43875  10.323   6.504   4.636
13993SOL    HW143876  10.232   6.475   4.644
13993SOL    HW243877  10.336   6.562   4.710
13994SOL     OW43878   8.325   6.772   2.308
13994SOL    HW143879   8.281   6.789   2.391
13994SOL    HW243880   8.404   6.723   2.332
13995SOL     OW43881  13.246   8.104   0.890
13995SOL    HW143882  13.326   8.152   0.914
13995SOL    HW243883  13.186   8.120   0.962
13996SOL     OW43884   2.256  11.336  13.409
13996SOL    HW143885   2.324  11.278  13.374
13996SOL    HW243886   2.292  11.369  13.491
13997SOL     OW43887   2.088   3.298   2.724
13997SOL    HW143888   2.043   3.377   2.695
13997SOL    HW243889   2.151   3.279   2.654
13998SOL     OW43890  13.561   5.759   1.022
13998SOL    HW143891  13.531   5.672   0.993
13998SOL    HW243892  13.611   5.742   1.102
13999SOL     OW43893  12.884   7.144  14.179
13999SOL    HW143894  12.805   7.179  14.222
13999SOL    HW243895  12.858   7.133  14.088
14000SOL     OW43896   6.415  14.643   0.104
14000SOL    HW143897   6.349  14.673   0.042
14000SOL    HW243898   6.385  14.556   0.131
14001SOL     OW43899   7.636   7.593  10.326
14001SOL    HW143900   7.614   7.645  10.404
14001SOL    HW243901   7.556   7.545  10.306
14002SOL     OW43902   6.815   7.083   0.655
14002SOL    HW143903   6.786   7.170   0.624
14002SOL    HW243904   6.906   7.077   0.626
14003SOL     OW43905   7.027   7.218   1.411
14003SOL    HW143906   6.997   7.173   1.490
14003SOL    HW243907   7.028   7.151   1.343
14004SOL     OW43908   9.021   5.992   4.223
14004SOL    HW143909   8.958   6.051   4.182
14004SOL    HW243910   8.985   5.977   4.311
14005SOL     OW43911   6.586   6.681  12.032
14005SOL    HW143912   6.560   6.610  12.090
14005SOL    HW243913   6.636   6.638  11.963
14006SOL     OW43914   1.788  13.138  10.849
14006SOL    HW143915   1.720  13.126  10.783
14006SOL    HW243916   1.822  13.226  10.833
14007SOL     OW43917   7.565  10.718   4.364
14007SOL    HW143918   7.651  10.677   4.365
14007SOL    HW243919   7.579  10.804   4.405
14008SOL     OW43920   5.775  11.932  12.328
14008SOL    HW143921   5.813  11.969  12.408
14008SOL    HW243922   5.743  12.008  12.279
14009SOL     OW43923   4.191   4.508   0.562
14009SOL    HW143924   4.285   4.493   0.573
14009SOL    HW243925   4.154   4.496   0.650
14010SOL     OW43926   4.379  12.619   8.998
14010SOL    HW143927   4.290  12.597   8.970
14010SOL    HW243928   4.405  12.545   9.053
14011SOL     OW43929  11.432   6.947   5.917
14011SOL    HW143930  11.441   7.042   5.916
14011SOL    HW243931  11.346   6.931   5.878
14012SOL     OW43932  13.780   5.515   2.426
14012SOL    HW143933  13.823   5.435   2.396
14012SOL    HW243934  13.832   5.545   2.500
14013SOL     OW43935   1.663   3.773  10.407
14013SOL    HW143936   1.581   3.814  10.382
14013SOL    HW243937   1.656   3.683  10.375
14014SOL     OW43938   9.130   2.318  12.853
14014SOL    HW143939   9.112   2.320  12.759
14014SOL    HW243940   9.204   2.377  12.865
14015SOL     OW43941   5.271   5.461   6.528
14015SOL    HW143942   5.323   5.381   6.539
14015SOL    HW243943   5.335   5.532   6.535
14016SOL     OW43944   0.393   1.629   0.501
14016SOL    HW143945   0.397   1.540   0.465
14016SOL    HW243946   0.436   1.623   0.586
14017SOL     OW43947   0.043   3.333  14.491
14017SOL    HW143948   0.044   3.417  14.537
14017SOL    HW243949   0.071   3.354  14.402
14018SOL     OW43950   3.335   6.931   5.515
14018SOL    HW143951   3.387   6.882   5.450
14018SOL    HW243952   3.338   6.877   5.594
14019SOL     OW43953  12.123   4.584   9.620
14019SOL    HW143954  12.145   4.564   9.711
14019SOL    HW243955  12.035   4.547   9.609
14020SOL     OW43956  10.683  11.455   5.937
14020SOL    HW143957  10.600  11.503   5.933
14020SOL    HW243958  10.702  11.435   5.845
14021SOL     OW43959   1.463   8.390   7.112
14021SOL    HW143960   1.535   8.381   7.175
14021SOL    HW243961   1.391   8.428   7.164
14022SOL     OW43962  10.122   0.216   0.040
14022SOL    HW143963  10.194   0.216   0.103
14022SOL    HW243964  10.149   0.278  14.850
14023SOL     OW43965   6.190  12.774  11.828
14023SOL    HW143966   6.206  12.717  11.753
14023SOL    HW243967   6.098  12.801  11.819
14024SOL     OW43968   6.276   5.096   2.353
14024SOL    HW143969   6.185   5.074   2.370
14024SOL    HW243970   6.279   5.117   2.260
14025SOL     OW43971   2.845  13.428   1.135
14025SOL    HW143972   2.755  13.441   1.165
14025SOL    HW243973   2.890  13.509   1.160
14026SOL     OW43974  10.264   8.045   8.269
14026SOL    HW143975  10.254   7.952   8.253
14026SOL    HW243976  10.244   8.056   8.362
14027SOL     OW43977   6.089   5.529   2.318
14027SOL    HW143978   6.163   5.486   2.362
14027SOL    HW243979   6.016   5.469   2.329
14028SOL     OW43980   9.562   6.216   7.881
14028SOL    HW143981   9.564   6.253   7.793
14028SOL    HW243982   9.627   6.266   7.930
14029SOL     OW43983  11.798   2.034   5.257
14029SOL    HW143984  11.818   2.038   5.163
14029SOL    HW243985  11.716   2.083   5.266
14030SOL     OW43986   9.114  14.083   5.928
14030SOL    HW143987   9.205  14.111   5.920
14030SOL    HW243988   9.116  14.013   5.993
14031SOL     OW43989   8.380   0.300   4.856
14031SOL    HW143990   8.472   0.277   4.846
14031SOL    HW243991   8.346   0.303   4.766
14032SOL     OW43992   3.473  10.295  11.458
14032SOL    HW143993   3.568  10.302  11.462
14032SOL    HW243994   3.445  10.373  11.409
14033SOL     OW43995   0.105  10.407   6.310
14033SOL    HW143996   0.110  10.420   6.215
14033SOL    HW243997   0.189  10.441   6.342
14034SOL     OW43998   1.599  13.031   1.643
14034SOL    HW143999   1.620  13.039   1.550
14034SOL    HW244000   1.645  12.952   1.671
14035SOL     OW44001  13.495   6.283   2.751
14035SOL    HW144002  13.469   6.245   2.835
14035SOL    HW244003  13.511   6.375   2.770
14036SOL     OW44004  10.560   4.640   1.745
14036SOL    HW144005  10.544   4.711   1.683
14036SOL    HW244006  10.627   4.674   1.804
14037SOL     OW44007   0.430  12.578   8.852
14037SOL    HW144008   0.516  12.590   8.813
14037SOL    HW244009   0.379  12.531   8.786
14038SOL     OW44010   6.019   3.559   6.690
14038SOL    HW144011   6.021   3.538   6.596
14038SOL    HW244012   5.931   3.592   6.706
14039SOL     OW44013   8.184   7.136   3.633
14039SOL    HW144014   8.095   7.117   3.604
14039SOL    HW244015   8.173   7.199   3.705
14040SOL     OW44016  12.112  14.130   5.583
14040SOL    HW144017  12.094  14.129   5.489
14040SOL    HW244018  12.066  14.054   5.618
14041SOL     OW44019  12.495   6.462   6.549
14041SOL    HW144020  12.407   6.454   6.587
14041SOL    HW244021  12.478   6.468   6.454
14042SOL     OW44022   8.793  13.605   3.886
14042SOL    HW144023   8.878  13.570   3.913
14042SOL    HW244024   8.802  13.699   3.896
14043SOL     OW44025   3.854  11.110   0.190
14043SOL    HW144026   3.879  11.017   0.195
14043SOL    HW244027   3.814  11.129   0.275
14044SOL     OW44028  11.283   9.356  13.321
14044SOL    HW144029  11.325   9.438  13.350
14044SOL    HW244030  11.192   9.380  13.307
14045SOL     OW44031   9.142   7.567  11.848
14045SOL    HW144032   9.096   7.486  11.869
14045SOL    HW244033   9.234   7.543  11.844
14046SOL     OW44034  14.567   1.406   5.840
14046SOL    HW144035  14.503   1.467   5.878
14046SOL    HW244036  14.517   1.358   5.774
14047SOL     OW44037   9.761   9.185   6.742
14047SOL    HW144038   9.806   9.248   6.798
14047SOL    HW244039   9.807   9.102   6.759
14048SOL     OW44040   8.318   7.020  12.324
14048SOL    HW144041   8.236   6.999  12.280
14048SOL    HW244042   8.292   7.075  12.399
14049SOL     OW44043  12.927   5.019  11.862
14049SOL    HW144044  12.880   5.092  11.820
14049SOL    HW244045  12.981   4.982  11.792
14050SOL     OW44046   0.182   0.471   6.656
14050SOL    HW144047   0.113   0.528   6.621
14050SOL    HW244048   0.189   0.496   6.748
14051SOL     OW44049  14.244   9.689   3.513
14051SOL    HW144050  14.234   9.653   3.424
14051SOL    HW244051  14.169   9.746   3.525
14052SOL     OW44052   4.692  14.532   4.152
14052SOL    HW144053   4.771  14.575   4.121
14052SOL    HW244054   4.626  14.554   4.087
14053SOL     OW44055  11.360   1.093  11.554
14053SOL    HW144056  11.301   1.021  11.530
14053SOL    HW244057  11.437   1.049  11.591
14054SOL     OW44058  12.710   6.251   4.295
14054SOL    HW144059  12.755   6.314   4.352
14054SOL    HW244060  12.751   6.263   4.209
14055SOL     OW44061   8.065   1.775   6.338
14055SOL    HW144062   8.012   1.699   6.313
14055SOL    HW244063   8.063   1.832   6.261
14056SOL     OW44064   1.902  13.706   4.767
14056SOL    HW144065   1.867  13.741   4.849
14056SOL    HW244066   1.963  13.637   4.794
14057SOL     OW44067   9.883  12.341  11.682
14057SOL    HW144068   9.811  12.385  11.638
14057SOL    HW244069   9.924  12.288  11.613
14058SOL     OW44070   8.945   8.959  12.433
14058SOL    HW144071   9.012   9.018  12.467
14058SOL    HW244072   8.881   8.952  12.504
14059SOL     OW44073  14.176   6.260  14.095
14059SOL    HW144074  14.093   6.260  14.047
14059SOL    HW244075  14.217   6.177  14.071
14060SOL     OW44076   2.383   2.288  10.345
14060SOL    HW144077   2.468   2.293  10.387
14060SOL    HW244078   2.322   2.270  10.416
14061SOL     OW44079  12.155   8.385  10.036
14061SOL    HW144080  12.220   8.353  10.098
14061SOL    HW244081  12.088   8.426  10.090
14062SOL     OW44082   1.861  10.113  11.535
14062SOL    HW144083   1.955  10.093  11.540
14062SOL    HW244084   1.826  10.081  11.618
14063SOL     OW44085   9.039  12.359   5.703
14063SOL    HW144086   9.129  12.365   5.734
14063SOL    HW244087   9.023  12.443   5.659
14064SOL     OW44088   4.618  12.971   9.539
14064SOL    HW144089   4.627  13.003   9.629
14064SOL    HW244090   4.704  12.986   9.499
14065SOL     OW44091   9.813   0.475  10.279
14065SOL    HW144092   9.864   0.537  10.226
14065SOL    HW244093   9.877   0.411  10.309
14066SOL     OW44094   0.315   4.018   6.017
14066SOL    HW144095   0.223   3.998   6.035
14066SOL    HW244096   0.313   4.105   5.978
14067SOL     OW44097  13.436   3.329  14.428
14067SOL    HW144098  13.388   3.263  14.478
14067SOL    HW244099  13.489   3.279  14.366
14068SOL     OW44100   5.375   4.885  14.847
14068SOL    HW144101   5.459   4.846  14.869
14068SOL    HW244102   5.314   4.846   0.032
14069SOL     OW44103   6.779  14.679  12.531
14069SOL    HW144104   6.809  14.698  12.620
14069SOL    HW244105   6.735  14.595  12.537
14070SOL     OW44106   5.686  13.413  13.205
14070SOL    HW144107   5.644  13.340  13.159
14070SOL    HW244108   5.693  13.482  13.140
14071SOL     OW44109   4.862   5.978  14.868
14071SOL    HW144110   4.829   6.018   0.071
14071SOL    HW244111   4.864   6.049  14.804
14072SOL     OW44112   7.764  10.822   4.819
14072SOL    HW144113   7.830  10.822   4.750
14072SOL    HW244114   7.680  10.822   4.773
14073SOL     OW44115   5.226   9.654   9.981
14073SOL    HW144116   5.246   9.745   9.960
14073SOL    HW244117   5.196   9.615   9.899
14074SOL     OW44118   5.683   3.004   8.448
14074SOL    HW144119   5.768   3.049   8.457
14074SOL    HW244120   5.680   2.976   8.357
14075SOL     OW44121  10.344   6.300   6.959
14075SOL    HW144122  10.349   6.272   6.867
14075SOL    HW244123  10.342   6.218   7.009
14076SOL     OW44124  13.735  12.081   3.430
14076SOL    HW144125  13.678  12.085   3.506
14076SOL    HW244126  13.716  11.997   3.389
14077SOL     OW44127   6.724   6.841   7.267
14077SOL    HW144128   6.774   6.911   7.310
14077SOL    HW244129   6.758   6.760   7.306
14078SOL     OW44130   1.332   5.525  12.327
14078SOL    HW144131   1.349   5.546  12.419
14078SOL    HW244132   1.356   5.604  12.280
14079SOL     OW44133  13.464   6.313   4.277
14079SOL    HW144134  13.476   6.226   4.238
14079SOL    HW244135  13.529   6.318   4.347
14080SOL     OW44136  11.027   9.262   2.333
14080SOL    HW144137  11.006   9.187   2.389
14080SOL    HW244138  11.115   9.288   2.360
14081SOL     OW44139   4.379   2.272   0.771
14081SOL    HW144140   4.300   2.326   0.783
14081SOL    HW244141   4.402   2.285   0.679
14082SOL     OW44142   1.155   4.649   6.155
14082SOL    HW144143   1.139   4.743   6.160
14082SOL    HW244144   1.105   4.612   6.227
14083SOL     OW44145   6.466  10.578   4.552
14083SOL    HW144146   6.402  10.508   4.536
14083SOL    HW244147   6.486  10.572   4.645
14084SOL     OW44148   6.441   7.808   7.229
14084SOL    HW144149   6.529   7.818   7.265
14084SOL    HW244150   6.443   7.856   7.146
14085SOL     OW44151   3.088  10.821   6.162
14085SOL    HW144152   2.994  10.808   6.177
14085SOL    HW244153   3.129  10.790   6.243
14086SOL     OW44154  12.453  12.201   4.062
14086SOL    HW144155  12.420  12.114   4.043
14086SOL    HW244156  12.393  12.237   4.127
14087SOL     OW44157   5.130  13.740   2.655
14087SOL    HW144158   5.144  13.829   2.623
14087SOL    HW244159   5.218  13.701   2.656
14088SOL     OW44160   7.693   9.174   7.939
14088SOL    HW144161   7.684   9.269   7.942
14088SOL    HW244162   7.781   9.157   7.972
14089SOL     OW44163   0.782   5.223   5.001
14089SOL    HW144164   0.710   5.272   5.041
14089SOL    HW244165   0.739   5.164   4.939
14090SOL     OW44166  12.210   7.384   4.615
14090SOL    HW144167  12.255   7.304   4.587
14090SOL    HW244168  12.278   7.451   4.614
14091SOL     OW44169  14.367   1.244  10.697
14091SOL    HW144170  14.408   1.177  10.642
14091SOL    HW244171  14.367   1.206  10.785
14092SOL     OW44172   3.475   3.576   4.442
14092SOL    HW144173   3.528   3.615   4.372
14092SOL    HW244174   3.540   3.544   4.506
14093SOL     OW44175   1.467  13.313   1.941
14093SOL    HW144176   1.379  13.319   1.903
14093SOL    HW244177   1.509  13.242   1.892
14094SOL     OW44178   1.035   5.796   0.026
14094SOL    HW144179   1.028   5.822  14.812
14094SOL    HW244180   0.973   5.852   0.072
14095SOL     OW44181   1.157   5.516   8.094
14095SOL    HW144182   1.135   5.476   8.178
14095SOL    HW244183   1.122   5.456   8.028
14096SOL     OW44184  13.968   6.319   1.363
14096SOL    HW144185  13.881   6.351   1.339
14096SOL    HW244186  13.954   6.268   1.443
14097SOL     OW44187   3.322   1.341   4.574
14097SOL    HW144188   3.277   1.387   4.504
14097SOL    HW244189   3.303   1.392   4.653
14098SOL     OW44190   5.875   8.411   2.570
14098SOL    HW144191   5.783   8.411   2.546
14098SOL    HW244192   5.904   8.502   2.557
14099SOL     OW44193   1.035   6.932   3.228
14099SOL    HW144194   1.031   6.870   3.155
14099SOL    HW244195   0.944   6.948   3.250
14100SOL     OW44196   3.388  11.416   6.083
14100SOL    HW144197   3.374  11.479   6.012
14100SOL    HW244198   3.471  11.443   6.123
14101SOL     OW44199   5.753   4.463  11.150
14101SOL    HW144200   5.679   4.406  11.169
14101SOL    HW244201   5.743   4.487  11.058
14102SOL     OW44202   5.689  13.136   3.843
14102SOL    HW144203   5.710  13.108   3.932
14102SOL    HW244204   5.625  13.071   3.812
14103SOL     OW44205  10.130  13.427   9.417
14103SOL    HW144206  10.146  13.399   9.327
14103SOL    HW244207  10.109  13.346   9.464
14104SOL     OW44208   6.475  11.566   8.699
14104SOL    HW144209   6.470  11.549   8.793
14104SOL    HW244210   6.562  11.537   8.674
14105SOL     OW44211   0.112   1.384   7.840
14105SOL    HW144212   0.160   1.352   7.916
14105SOL    HW244213   0.137   1.476   7.833
14106SOL     OW44214  11.462  13.559   3.111
14106SOL    HW144215  11.519  13.622   3.066
14106SOL    HW244216  11.392  13.613   3.147
14107SOL     OW44217   9.227   1.725   3.353
14107SOL    HW144218   9.217   1.634   3.324
14107SOL    HW244219   9.137   1.756   3.366
14108SOL     OW44220   0.232  13.144   4.547
14108SOL    HW144221   0.250  13.194   4.627
14108SOL    HW244222   0.139  13.159   4.530
14109SOL     OW44223   4.872  11.111   5.401
14109SOL    HW144224   4.874  11.113   5.497
14109SOL    HW244225   4.851  11.020   5.379
14110SOL     OW44226   4.231  13.868  11.437
14110SOL    HW144227   4.318  13.836  11.459
14110SOL    HW244228   4.229  13.958  11.470
14111SOL     OW44229   3.812   3.652   3.627
14111SOL    HW144230   3.769   3.568   3.614
14111SOL    HW244231   3.876   3.658   3.557
14112SOL     OW44232   5.057   4.999   2.691
14112SOL    HW144233   4.986   4.935   2.689
14112SOL    HW244234   5.088   5.003   2.600
14113SOL     OW44235   0.503   5.411  13.806
14113SOL    HW144236   0.553   5.450  13.733
14113SOL    HW244237   0.424   5.376  13.765
14114SOL     OW44238  11.570  11.248   7.150
14114SOL    HW144239  11.613  11.217   7.230
14114SOL    HW244240  11.601  11.337   7.139
14115SOL     OW44241  13.647   7.630   4.014
14115SOL    HW144242  13.635   7.714   4.058
14115SOL    HW244243  13.740   7.609   4.028
14116SOL     OW44244   0.711  14.014   2.693
14116SOL    HW144245   0.652  14.038   2.764
14116SOL    HW244246   0.798  14.012   2.734
14117SOL     OW44247   7.379  12.212   3.634
14117SOL    HW144248   7.327  12.137   3.662
14117SOL    HW244249   7.352  12.283   3.693
14118SOL     OW44250   7.705   1.237   0.766
14118SOL    HW144251   7.628   1.182   0.748
14118SOL    HW244252   7.683   1.282   0.848
14119SOL     OW44253  12.067  11.186  14.072
14119SOL    HW144254  12.131  11.152  14.135
14119SOL    HW244255  12.083  11.280  14.070
14120SOL     OW44256   4.692   4.440  13.697
14120SOL    HW144257   4.769   4.419  13.749
14120SOL    HW244258   4.697   4.382  13.621
14121SOL     OW44259   6.450   9.155   0.598
14121SOL    HW144260   6.535   9.194   0.619
14121SOL    HW244261   6.472   9.073   0.554
14122SOL     OW44262   0.747  13.249   3.176
14122SOL    HW144263   0.824  13.200   3.206
14122SOL    HW244264   0.764  13.340   3.203
14123SOL     OW44265   7.676   0.732   4.614
14123SOL    HW144266   7.709   0.663   4.672
14123SOL    HW244267   7.588   0.750   4.647
14124SOL     OW44268   0.598  13.600   7.167
14124SOL    HW144269   0.534  13.531   7.151
14124SOL    HW244270   0.546  13.675   7.196
14125SOL     OW44271  11.327   9.040  12.314
14125SOL    HW144272  11.305   9.130  12.289
14125SOL    HW244273  11.329   9.041  12.410
14126SOL     OW44274  13.457   1.823  13.848
14126SOL    HW144275  13.523   1.779  13.901
14126SOL    HW244276  13.493   1.821  13.759
14127SOL     OW44277   3.221   9.970  10.612
14127SOL    HW144278   3.271  10.045  10.644
14127SOL    HW244279   3.239   9.967  10.518
14128SOL     OW44280   5.368  12.059   4.541
14128SOL    HW144281   5.285  12.065   4.589
14128SOL    HW244282   5.417  12.136   4.570
14129SOL     OW44283  10.625   8.941   5.557
14129SOL    HW144284  10.640   8.921   5.464
14129SOL    HW244285  10.627   9.036   5.562
14130SOL     OW44286   1.367  14.119  10.956
14130SOL    HW144287   1.343  14.153  10.871
14130SOL    HW244288   1.413  14.037  10.937
14131SOL     OW44289  11.956   1.735  10.232
14131SOL    HW144290  11.957   1.825  10.264
14131SOL    HW244291  12.031   1.730  10.173
14132SOL     OW44292   8.321  11.458   8.844
14132SOL    HW144293   8.295  11.492   8.930
14132SOL    HW244294   8.401  11.507   8.823
14133SOL     OW44295   3.994   1.583   6.757
14133SOL    HW144296   4.086   1.605   6.773
14133SOL    HW244297   3.991   1.488   6.764
14134SOL     OW44298   1.011   6.880  13.438
14134SOL    HW144299   0.988   6.941  13.508
14134SOL    HW244300   1.103   6.859  13.453
14135SOL     OW44301  10.483   1.031   8.020
14135SOL    HW144302  10.563   1.048   7.969
14135SOL    HW244303  10.469   1.112   8.069
14136SOL     OW44304  13.458   5.195   3.399
14136SOL    HW144305  13.372   5.209   3.360
14136SOL    HW244306  13.516   5.256   3.353
14137SOL     OW44307  12.823   9.656   2.053
14137SOL    HW144308  12.864   9.578   2.089
14137SOL    HW244309  12.797   9.631   1.964
14138SOL     OW44310  11.887   0.388  11.259
14138SOL    HW144311  11.930   0.455  11.206
14138SOL    HW244312  11.921   0.400  11.347
14139SOL     OW44313  13.932  14.157   0.722
14139SOL    HW144314  13.975  14.138   0.639
14139SOL    HW244315  13.952  14.248   0.740
14140SOL     OW44316   5.763   7.130   9.929
14140SOL    HW144317   5.762   7.126  10.024
14140SOL    HW244318   5.850   7.098   9.904
14141SOL     OW44319   3.739  14.434   7.673
14141SOL    HW144320   3.683  14.372   7.625
14141SOL    HW244321   3.718  14.519   7.635
14142SOL     OW44322   4.774   4.292   8.442
14142SOL    HW144323   4.736   4.208   8.416
14142SOL    HW244324   4.822   4.322   8.365
14143SOL     OW44325   1.883   2.201  10.034
14143SOL    HW144326   1.909   2.216  10.124
14143SOL    HW244327   1.956   2.235   9.981
14144SOL     OW44328   2.792   8.134  11.458
14144SOL    HW144329   2.865   8.090  11.502
14144SOL    HW244330   2.832   8.209  11.415
14145SOL     OW44331   8.611   7.913   8.943
14145SOL    HW144332   8.598   8.007   8.959
14145SOL    HW244333   8.570   7.897   8.859
14146SOL     OW44334   6.608   5.350   3.573
14146SOL    HW144335   6.541   5.290   3.541
14146SOL    HW244336   6.683   5.294   3.593
14147SOL     OW44337   9.187   3.491   5.766
14147SOL    HW144338   9.154   3.459   5.850
14147SOL    HW244339   9.266   3.540   5.788
14148SOL     OW44340  13.691   3.775  14.562
14148SOL    HW144341  13.754   3.737  14.623
14148SOL    HW244342  13.611   3.723  14.576
14149SOL     OW44343  14.752  12.577   2.480
14149SOL    HW144344  14.720  12.650   2.428
14149SOL    HW244345  14.718  12.593   2.568
14150SOL     OW44346  11.019  13.782   6.691
14150SOL    HW144347  10.978  13.717   6.750
14150SOL    HW244348  10.945  13.829   6.653
14151SOL     OW44349  11.601  10.981   1.988
14151SOL    HW144350  11.581  10.927   1.911
14151SOL    HW244351  11.516  11.008   2.022
14152SOL     OW44352   3.953   9.309  13.375
14152SOL    HW144353   3.883   9.359  13.416
14152SOL    HW244354   3.992   9.368  13.311
14153SOL     OW44355  13.616   4.815   4.587
14153SOL    HW144356  13.687   4.780   4.532
14153SOL    HW244357  13.555   4.742   4.597
14154SOL     OW44358   4.604   4.621  10.112
14154SOL    HW144359   4.659   4.674  10.169
14154SOL    HW244360   4.549   4.684  10.067
14155SOL     OW44361   0.957   3.479   1.836
14155SOL    HW144362   0.888   3.413   1.828
14155SOL    HW244363   0.912   3.557   1.870
14156SOL     OW44364   8.605  10.238   9.244
14156SOL    HW144365   8.535  10.256   9.182
14156SOL    HW244366   8.667  10.183   9.196
14157SOL     OW44367   0.662   1.052  12.475
14157SOL    HW144368   0.585   0.997  12.485
14157SOL    HW244369   0.722   1.000  12.422
14158SOL     OW44370   3.570   9.244   5.112
14158SOL    HW144371   3.641   9.180   5.123
14158SOL    HW244372   3.509   9.224   5.183
14159SOL     OW44373   2.209   0.698  14.058
14159SOL    HW144374   2.193   0.780  14.011
14159SOL    HW244375   2.192   0.630  13.993
14160SOL     OW44376   7.741  14.385   6.299
14160SOL    HW144377   7.742  14.440   6.220
14160SOL    HW244378   7.725  14.447   6.370
14161SOL     OW44379  12.384   4.730   5.456
14161SOL    HW144380  12.384   4.642   5.417
14161SOL    HW244381  12.457   4.775   5.412
14162SOL     OW44382  11.791   0.446   7.817
14162SOL    HW144383  11.700   0.473   7.803
14162SOL    HW244384  11.796   0.359   7.777
14163SOL     OW44385   6.005  11.798   5.152
14163SOL    HW144386   5.997  11.809   5.057
14163SOL    HW244387   6.006  11.887   5.187
14164SOL     OW44388  10.594   6.864  14.348
14164SOL    HW144389  10.561   6.946  14.386
14164SOL    HW244390  10.644   6.891  14.271
14165SOL     OW44391  13.300   6.706  10.053
14165SOL    HW144392  13.342   6.627  10.021
14165SOL    HW244393  13.265   6.682  10.139
14166SOL     OW44394   6.288   7.712  10.345
14166SOL    HW144395   6.333   7.783  10.298
14166SOL    HW244396   6.335   7.633  10.319
14167SOL     OW44397   2.217   9.443  11.869
14167SOL    HW144398   2.302   9.464  11.907
14167SOL    HW244399   2.189   9.523  11.826
14168SOL     OW44400  10.171   0.430  10.239
14168SOL    HW144401  10.231   0.357  10.257
14168SOL    HW244402  10.156   0.426  10.144
14169SOL     OW44403   5.610   6.117  11.030
14169SOL    HW144404   5.632   6.085  11.118
14169SOL    HW244405   5.553   6.193  11.046
14170SOL     OW44406   0.319  14.415   3.442
14170SOL    HW144407   0.338  14.354   3.514
14170SOL    HW244408   0.226  14.404   3.425
14171SOL     OW44409   7.218  14.741  12.010
14171SOL    HW144410   7.210  14.802  12.083
14171SOL    HW244411   7.199  14.794  11.932
14172SOL     OW44412   3.180   5.172   8.143
14172SOL    HW144413   3.169   5.166   8.048
14172SOL    HW244414   3.100   5.134   8.178
14173SOL     OW44415   8.566   4.355   7.150
14173SOL    HW144416   8.494   4.307   7.191
14173SOL    HW244417   8.611   4.290   7.097
14174SOL     OW44418  13.502   5.095  10.009
14174SOL    HW144419  13.459   5.019   9.969
14174SOL    HW244420  13.488   5.083  10.103
14175SOL     OW44421   1.776  10.485   7.074
14175SOL    HW144422   1.774  10.578   7.053
14175SOL    HW244423   1.730  10.478   7.158
14176SOL     OW44424   6.637  12.937   9.211
14176SOL    HW144425   6.617  13.011   9.154
14176SOL    HW244426   6.733  12.935   9.214
14177SOL     OW44427  14.733  10.533  14.065
14177SOL    HW144428  14.694  10.566  13.984
14177SOL    HW244429  14.763  10.445  14.043
14178SOL     OW44430  13.288   9.552  10.611
14178SOL    HW144431  13.207   9.520  10.571
14178SOL    HW244432  13.357   9.500  10.569
14179SOL     OW44433  13.871   2.260   8.563
14179SOL    HW144434  13.956   2.304   8.570
14179SOL    HW244435  13.882   2.198   8.491
14180SOL     OW44436   8.023  10.753   1.695
14180SOL    HW144437   7.949  10.811   1.684
14180SOL    HW244438   8.064  10.781   1.777
14181SOL     OW44439   3.947  11.234  13.809
14181SOL    HW144440   3.877  11.259  13.869
14181SOL    HW244441   3.966  11.143  13.831
14182SOL     OW44442   5.133  13.331   8.514
14182SOL    HW144443   5.091  13.376   8.587
14182SOL    HW244444   5.209  13.287   8.554
14183SOL     OW44445  12.350   1.471   5.178
14183SOL    HW144446  12.390   1.510   5.256
14183SOL    HW244447  12.279   1.416   5.213
14184SOL     OW44448   8.130  14.146   8.345
14184SOL    HW144449   8.185  14.104   8.278
14184SOL    HW244450   8.063  14.080   8.365
14185SOL     OW44451   4.702   0.175   3.104
14185SOL    HW144452   4.631   0.142   3.159
14185SOL    HW244453   4.687   0.133   3.019
14186SOL     OW44454   4.977   0.316   2.411
14186SOL    HW144455   5.054   0.361   2.375
14186SOL    HW244456   4.925   0.386   2.451
14187SOL     OW44457  10.357   8.896  10.938
14187SOL    HW144458  10.427   8.941  10.892
14187SOL    HW244459  10.287   8.960  10.944
14188SOL     OW44460   1.056   7.661  10.187
14188SOL    HW144461   1.098   7.723  10.246
14188SOL    HW244462   1.098   7.577  10.206
14189SOL     OW44463   3.823   2.054   8.341
14189SOL    HW144464   3.899   2.041   8.399
14189SOL    HW244465   3.786   2.138   8.369
14190SOL     OW44466   3.226  11.269   5.663
14190SOL    HW144467   3.180  11.218   5.729
14190SOL    HW244468   3.310  11.225   5.652
14191SOL     OW44469  11.560   2.240   3.517
14191SOL    HW144470  11.619   2.313   3.536
14191SOL    HW244471  11.480   2.281   3.486
14192SOL     OW44472   0.599  10.619  12.021
14192SOL    HW144473   0.623  10.584  11.936
14192SOL    HW244474   0.552  10.548  12.065
14193SOL     OW44475  11.381  11.120   6.750
14193SOL    HW144476  11.379  11.181   6.823
14193SOL    HW244477  11.376  11.175   6.672
14194SOL     OW44478   8.424  10.774   4.962
14194SOL    HW144479   8.432  10.748   5.054
14194SOL    HW244480   8.341  10.821   4.959
14195SOL     OW44481   2.989  13.233   1.265
14195SOL    HW144482   2.987  13.165   1.198
14195SOL    HW244483   2.924  13.296   1.237
14196SOL     OW44484   1.690  11.222  12.811
14196SOL    HW144485   1.599  11.195  12.796
14196SOL    HW244486   1.687  11.270  12.894
14197SOL     OW44487  13.368  13.391   6.283
14197SOL    HW144488  13.311  13.447   6.335
14197SOL    HW244489  13.321  13.378   6.201
14198SOL     OW44490   2.968   8.758  10.640
14198SOL    HW144491   3.031   8.696  10.605
14198SOL    HW244492   2.884   8.712  10.634
14199SOL     OW44493   8.148   4.575   0.926
14199SOL    HW144494   8.071   4.572   0.870
14199SOL    HW244495   8.160   4.484   0.956
14200SOL     OW44496  10.242  10.858  10.568
14200SOL    HW144497  10.267  10.947  10.592
14200SOL    HW244498  10.225  10.862  10.474
14201SOL     OW44499   0.546   5.121   8.652
14201SOL    HW144500   0.471   5.179   8.664
14201SOL    HW244501   0.540   5.060   8.725
14202SOL     OW44502  10.273   9.368   8.838
14202SOL    HW144503  10.298   9.378   8.929
14202SOL    HW244504  10.218   9.444   8.819
14203SOL     OW44505  11.965   3.850  11.905
14203SOL    HW144506  11.964   3.921  11.841
14203SOL    HW244507  12.001   3.890  11.985
14204SOL     OW44508   6.175  14.545   0.904
14204SOL    HW144509   6.120  14.600   0.849
14204SOL    HW244510   6.128  14.461   0.910
14205SOL     OW44511   1.196   8.833  12.274
14205SOL    HW144512   1.113   8.863  12.238
14205SOL    HW244513   1.254   8.909  12.265
14206SOL     OW44514  10.112  10.769   3.957
14206SOL    HW144515  10.163  10.847   3.937
14206SOL    HW244516  10.169  10.696   3.932
14207SOL     OW44517  10.995   7.312  11.637
14207SOL    HW144518  11.073   7.339  11.588
14207SOL    HW244519  11.003   7.217  11.645
14208SOL     OW44520  13.760   9.521  10.190
14208SOL    HW144521  13.753   9.612  10.219
14208SOL    HW244522  13.843   9.491  10.226
14209SOL     OW44523  11.094  11.735  14.602
14209SOL    HW144524  11.047  11.817  14.590
14209SOL    HW244525  11.059  11.677  14.533
14210SOL     OW44526  12.740  13.142  10.620
14210SOL    HW144527  12.807  13.211  10.611
14210SOL    HW244528  12.704  13.155  10.707
14211SOL     OW44529   9.304   6.899   4.328
14211SOL    HW144530   9.393   6.873   4.350
14211SOL    HW244531   9.249   6.852   4.390
14212SOL     OW44532   8.239  12.290   2.805
14212SOL    HW144533   8.258  12.226   2.737
14212SOL    HW244534   8.306  12.274   2.872
14213SOL     OW44535  10.264   0.970  14.483
14213SOL    HW144536  10.305   0.908  14.422
14213SOL    HW244537  10.231   0.916  14.554
14214SOL     OW44538   0.234   4.895  14.636
14214SOL    HW144539   0.279   4.900  14.552
14214SOL    HW244540   0.181   4.816  14.631
14215SOL     OW44541  11.980  12.926   8.087
14215SOL    HW144542  12.074  12.925   8.106
14215SOL    HW244543  11.970  12.990   8.017
14216SOL     OW44544   0.476   6.587   6.244
14216SOL    HW144545   0.523   6.507   6.266
14216SOL    HW244546   0.434   6.568   6.160
14217SOL     OW44547   4.164   1.321  10.484
14217SOL    HW144548   4.086   1.271  10.506
14217SOL    HW244549   4.136   1.380  10.414
14218SOL     OW44550   1.954   5.627   3.435
14218SOL    HW144551   2.004   5.652   3.512
14218SOL    HW244552   1.919   5.540   3.456
14219SOL     OW44553   2.057  13.361   3.483
14219SOL    HW144554   2.044  13.296   3.414
14219SOL    HW244555   2.146  13.394   3.469
14220SOL     OW44556  11.571   7.361   8.642
14220SOL    HW144557  11.607   7.310   8.714
14220SOL    HW244558  11.501   7.306   8.606
14221SOL     OW44559   9.078   7.227   1.298
14221SOL    HW144560   9.036   7.145   1.272
14221SOL    HW244561   9.013   7.294   1.276
14222SOL     OW44562  11.771   8.069   1.395
14222SOL    HW144563  11.840   8.131   1.371
14222SOL    HW244564  11.818   7.989   1.419
14223SOL     OW44565   7.413  14.556  12.316
14223SOL    HW144566   7.400  14.528  12.225
14223SOL    HW244567   7.425  14.475  12.365
14224SOL     OW44568  11.955   4.611  13.029
14224SOL    HW144569  11.967   4.649  13.116
14224SOL    HW244570  11.883   4.662  12.991
14225SOL     OW44571   3.544   1.838   5.689
14225SOL    HW144572   3.600   1.894   5.744
14225SOL    HW244573   3.587   1.837   5.604
14226SOL     OW44574   9.675   0.706   1.277
14226SOL    HW144575   9.723   0.713   1.359
14226SOL    HW244576   9.742   0.719   1.209
14227SOL     OW44577   2.310   1.279  10.858
14227SOL    HW144578   2.381   1.295  10.795
14227SOL    HW244579   2.264   1.203  10.824
14228SOL     OW44580   4.070   4.101  10.262
14228SOL    HW144581   4.121   4.155  10.202
14228SOL    HW244582   4.036   4.030  10.208
14229SOL     OW44583   0.168   1.665   3.632
14229SOL    HW144584   0.130   1.725   3.696
14229SOL    HW244585   0.096   1.608   3.606
14230SOL     OW44586   9.268   9.660   5.608
14230SOL    HW144587   9.317   9.656   5.690
14230SOL    HW244588   9.176   9.669   5.635
14231SOL     OW44589   8.925   1.223   2.784
14231SOL    HW144590   8.859   1.258   2.844
14231SOL    HW244591   9.007   1.229   2.831
14232SOL     OW44592   7.863   2.285  12.010
14232SOL    HW144593   7.923   2.351  12.041
14232SOL    HW244594   7.881   2.279  11.916
14233SOL     OW44595  10.971  11.129   5.801
14233SOL    HW144596  10.893  11.143   5.748
14233SOL    HW244597  10.974  11.034   5.814
14234SOL     OW44598   1.319   0.908   3.267
14234SOL    HW144599   1.297   0.978   3.205
14234SOL    HW244600   1.415   0.907   3.269
14235SOL     OW44601   8.128   0.287   1.354
14235SOL    HW144602   8.203   0.294   1.295
14235SOL    HW244603   8.119   0.193   1.370
14236SOL     OW44604   1.629   9.070   8.020
14236SOL    HW144605   1.534   9.069   8.033
14236SOL    HW244606   1.662   9.128   8.089
14237SOL     OW44607   7.544   7.859   4.131
14237SOL    HW144608   7.499   7.810   4.062
14237SOL    HW244609   7.629   7.816   4.140
14238SOL     OW44610   7.371   3.736   1.233
14238SOL    HW144611   7.359   3.765   1.142
14238SOL    HW244612   7.303   3.784   1.282
14239SOL     OW44613   3.772   2.345  10.667
14239SOL    HW144614   3.754   2.304  10.751
14239SOL    HW244615   3.840   2.290  10.627
14240SOL     OW44616   8.959   7.351   1.590
14240SOL    HW144617   8.997   7.423   1.540
14240SOL    HW244618   9.026   7.283   1.589
14241SOL     OW44619   0.788   4.953   5.986
14241SOL    HW144620   0.860   4.949   6.049
14241SOL    HW244621   0.788   4.867   5.943
14242SOL     OW44622   6.602   0.558   1.426
14242SOL    HW144623   6.558   0.567   1.510
14242SOL    HW244624   6.555   0.617   1.367
14243SOL     OW44625   9.138   8.981   8.923
14243SOL    HW144626   9.199   8.926   8.973
14243SOL    HW244627   9.061   8.987   8.978
14244SOL     OW44628   3.811  13.241   9.275
14244SOL    HW144629   3.761  13.169   9.236
14244SOL    HW244630   3.869  13.200   9.338
14245SOL     OW44631   1.547  12.836   6.689
14245SOL    HW144632   1.617  12.890   6.724
14245SOL    HW244633   1.477  12.841   6.755
14246SOL     OW44634  12.004   5.986   3.660
14246SOL    HW144635  11.957   6.069   3.650
14246SOL    HW244636  12.010   5.951   3.571
14247SOL     OW44637  11.110   4.990   7.063
14247SOL    HW144638  11.161   4.928   7.115
14247SOL    HW244639  11.176   5.051   7.028
14248SOL     OW44640   7.362   7.176   5.946
14248SOL    HW144641   7.322   7.169   6.032
14248SOL    HW244642   7.389   7.267   5.939
14249SOL     OW44643   8.409   7.594   2.396
14249SOL    HW144644   8.490   7.643   2.408
14249SOL    HW244645   8.347   7.658   2.361
14250SOL     OW44646  14.430  13.798   7.264
14250SOL    HW144647  14.459  13.720   7.311
14250SOL    HW244648  14.424  13.770   7.172
14251SOL     OW44649   0.188   7.802   4.812
14251SOL    HW144650   0.094   7.783   4.817
14251SOL    HW244651   0.192   7.897   4.802
14252SOL     OW44652   7.780   0.273  11.276
14252SOL    HW144653   7.716   0.211  11.242
14252SOL    HW244654   7.773   0.348  11.217
14253SOL     OW44655  11.615   6.627   5.160
14253SOL    HW144656  11.576   6.638   5.074
14253SOL    HW244657  11.541   6.631   5.221
14254SOL     OW44658  11.140   6.364   3.507
14254SOL    HW144659  11.174   6.335   3.592
14254SOL    HW244660  11.205   6.335   3.444
14255SOL     OW44661  12.249   8.006   0.900
14255SOL    HW144662  12.231   8.067   0.971
14255SOL    HW244663  12.183   7.938   0.910
14256SOL     OW44664  10.022   0.048  11.712
14256SOL    HW144665   9.928   0.053  11.698
14256SOL    HW244666  10.046  14.837  11.684
14257SOL     OW44667   4.393   0.693  14.319
14257SOL    HW144668   4.481   0.729  14.331
14257SOL    HW244669   4.335   0.769  14.320
14258SOL     OW44670   3.527  11.104   8.671
14258SOL    HW144671   3.462  11.137   8.609
14258SOL    HW244672   3.556  11.181   8.720
14259SOL     OW44673   5.407   5.765  10.884
14259SOL    HW144674   5.345   5.718  10.941
14259SOL    HW244675   5.373   5.751  10.795
14260SOL     OW44676   7.721  11.701  11.440
14260SOL    HW144677   7.686  11.771  11.494
14260SOL    HW244678   7.709  11.621  11.492
14261SOL     OW44679   1.018  12.773   6.735
14261SOL    HW144680   1.044  12.844   6.795
14261SOL    HW244681   0.960  12.718   6.787
14262SOL     OW44682   5.153  12.651   2.032
14262SOL    HW144683   5.112  12.738   2.033
14262SOL    HW244684   5.086  12.593   2.069
14263SOL     OW44685  13.257   0.116  11.144
14263SOL    HW144686  13.166   0.087  11.137
14263SOL    HW244687  13.308   0.036  11.130
14264SOL     OW44688  13.000  10.665   1.863
14264SOL    HW144689  13.036  10.651   1.950
14264SOL    HW244690  12.914  10.705   1.879
14265SOL     OW44691   2.604  10.650  13.297
14265SOL    HW144692   2.629  10.563  13.265
14265SOL    HW244693   2.518  10.666  13.257
14266SOL     OW44694   6.900   7.295  14.226
14266SOL    HW144695   6.973   7.294  14.164
14266SOL    HW244696   6.915   7.374  14.279
14267SOL     OW44697   7.511   2.604   2.814
14267SOL    HW144698   7.602   2.575   2.824
14267SOL    HW244699   7.491   2.590   2.721
14268SOL     OW44700   5.155   3.831   0.758
14268SOL    HW144701   5.141   3.761   0.822
14268SOL    HW244702   5.068   3.867   0.742
14269SOL     OW44703  13.523   8.568   1.991
14269SOL    HW144704  13.501   8.574   2.084
14269SOL    HW244705  13.551   8.478   1.979
14270SOL     OW44706   6.948  11.878   2.063
14270SOL    HW144707   6.994  11.875   1.980
14270SOL    HW244708   6.964  11.793   2.103
14271SOL     OW44709  13.535  12.213   4.874
14271SOL    HW144710  13.526  12.123   4.907
14271SOL    HW244711  13.481  12.266   4.933
14272SOL     OW44712  11.004  10.484   8.371
14272SOL    HW144713  11.044  10.571   8.380
14272SOL    HW244714  11.048  10.445   8.296
14273SOL     OW44715   8.802   2.955   1.057
14273SOL    HW144716   8.838   2.992   1.137
14273SOL    HW244717   8.707   2.957   1.069
14274SOL     OW44718   8.548   9.323   9.312
14274SOL    HW144719   8.526   9.397   9.257
14274SOL    HW244720   8.560   9.360   9.399
14275SOL     OW44721  10.226   7.247   9.969
14275SOL    HW144722  10.204   7.202   9.887
14275SOL    HW244723  10.144   7.290   9.995
14276SOL     OW44724   4.563  14.065   4.008
14276SOL    HW144725   4.509  14.143   3.994
14276SOL    HW244726   4.551  14.013   3.928
14277SOL     OW44727   6.706   0.551   6.841
14277SOL    HW144728   6.730   0.634   6.799
14277SOL    HW244729   6.785   0.525   6.888
14278SOL     OW44730   1.743  10.183  10.002
14278SOL    HW144731   1.807  10.112  10.007
14278SOL    HW244732   1.752  10.230  10.085
14279SOL     OW44733   2.019  11.026   6.054
14279SOL    HW144734   2.103  11.009   6.097
14279SOL    HW244735   2.035  11.106   6.003
14280SOL     OW44736  14.236   5.278  11.821
14280SOL    HW144737  14.167   5.345  11.826
14280SOL    HW244738  14.199   5.202  11.866
14281SOL     OW44739   5.472   3.405   0.273
14281SOL    HW144740   5.550   3.459   0.266
14281SOL    HW244741   5.401   3.460   0.239
14282SOL     OW44742  12.485   6.119  14.028
14282SOL    HW144743  12.573   6.081  14.027
14282SOL    HW244744  12.459   6.117  14.120
14283SOL     OW44745   5.488   1.380   1.165
14283SOL    HW144746   5.439   1.343   1.240
14283SOL    HW244747   5.523   1.303   1.120
14284SOL     OW44748   1.251   8.473   7.664
14284SOL    HW144749   1.293   8.558   7.679
14284SOL    HW244750   1.169   8.478   7.713
14285SOL     OW44751   7.571  14.601   8.054
14285SOL    HW144752   7.500  14.578   8.113
14285SOL    HW244753   7.590  14.693   8.074
14286SOL     OW44754   8.783   0.219   8.877
14286SOL    HW144755   8.804   0.243   8.787
14286SOL    HW244756   8.692   0.247   8.888
14287SOL     OW44757   5.595   5.007   5.533
14287SOL    HW144758   5.570   4.915   5.534
14287SOL    HW244759   5.614   5.026   5.442
14288SOL     OW44760  11.089  12.558   2.112
14288SOL    HW144761  11.045  12.638   2.142
14288SOL    HW244762  11.105  12.573   2.019
14289SOL     OW44763   9.738  13.781   8.580
14289SOL    HW144764   9.776  13.869   8.577
14289SOL    HW244765   9.778  13.735   8.506
14290SOL     OW44766   5.991   3.293  12.140
14290SOL    HW144767   5.980   3.385  12.167
14290SOL    HW244768   6.068   3.295  12.082
14291SOL     OW44769   5.994   3.966   4.297
14291SOL    HW144770   5.988   4.021   4.219
14291SOL    HW244771   6.050   4.015   4.357
14292SOL     OW44772  13.161   3.223   1.649
14292SOL    HW144773  13.236   3.228   1.590
14292SOL    HW244774  13.086   3.246   1.594
14293SOL     OW44775  11.495  14.758   4.007
14293SOL    HW144776  11.425  14.706   4.046
14293SOL    HW244777  11.475  14.760   3.913
14294SOL     OW44778   1.555   2.273  12.657
14294SOL    HW144779   1.611   2.288  12.580
14294SOL    HW244780   1.563   2.180  12.674
14295SOL     OW44781   5.762   1.842  10.981
14295SOL    HW144782   5.755   1.772  10.916
14295SOL    HW244783   5.673   1.876  10.990
14296SOL     OW44784   2.512  14.613   6.192
14296SOL    HW144785   2.485  14.526   6.220
14296SOL    HW244786   2.599  14.625   6.230
14297SOL     OW44787   9.682   3.622   6.915
14297SOL    HW144788   9.755   3.646   6.972
14297SOL    HW244789   9.627   3.700   6.912
14298SOL     OW44790  12.234   1.870   4.003
14298SOL    HW144791  12.254   1.906   4.089
14298SOL    HW244792  12.140   1.852   4.005
14299SOL     OW44793   6.112  10.624  10.944
14299SOL    HW144794   6.052  10.646  11.016
14299SOL    HW244795   6.055  10.604  10.870
14300SOL     OW44796  10.448   5.230  14.085
14300SOL    HW144797  10.427   5.271  14.169
14300SOL    HW244798  10.495   5.150  14.109
14301SOL     OW44799   8.047   8.372   5.974
14301SOL    HW144800   7.993   8.330   6.041
14301SOL    HW244801   7.999   8.452   5.953
14302SOL     OW44802  13.183   8.102   0.113
14302SOL    HW144803  13.278   8.100   0.119
14302SOL    HW244804  13.156   8.011   0.130
14303SOL     OW44805  14.544   0.150   7.762
14303SOL    HW144806  14.500   0.081   7.711
14303SOL    HW244807  14.524   0.128   7.853
14304SOL     OW44808   4.575   8.110   0.524
14304SOL    HW144809   4.522   8.036   0.495
14304SOL    HW244810   4.643   8.071   0.580
14305SOL     OW44811  11.072   6.887  10.819
14305SOL    HW144812  11.058   6.834  10.898
14305SOL    HW244813  11.083   6.976  10.851
14306SOL     OW44814   5.690  13.802   1.217
14306SOL    HW144815   5.781  13.820   1.197
14306SOL    HW244816   5.641  13.842   1.145
14307SOL     OW44817  12.962  12.078   3.088
14307SOL    HW144818  12.945  12.119   3.173
14307SOL    HW244819  12.909  11.999   3.088
14308SOL     OW44820  10.828  12.526   9.454
14308SOL    HW144821  10.796  12.437   9.464
14308SOL    HW244822  10.862  12.529   9.364
14309SOL     OW44823  11.409   1.606   1.647
14309SOL    HW144824  11.420   1.515   1.620
14309SOL    HW244825  11.492   1.629   1.689
14310SOL     OW44826   1.567  12.779   7.836
14310SOL    HW144827   1.492  12.813   7.885
14310SOL    HW244828   1.533  12.701   7.792
14311SOL     OW44829   1.920   8.676  12.313
14311SOL    HW144830   1.920   8.738  12.385
14311SOL    HW244831   1.911   8.590  12.354
14312SOL     OW44832   9.155   3.523   2.147
14312SOL    HW144833   9.187   3.566   2.068
14312SOL    HW244834   9.065   3.497   2.126
14313SOL     OW44835  13.877   0.041  11.829
14313SOL    HW144836  13.971   0.022  11.826
14313SOL    HW244837  13.871   0.135  11.811
14314SOL     OW44838  12.666  12.481   4.434
14314SOL    HW144839  12.746  12.438   4.403
14314SOL    HW244840  12.649  12.442   4.519
14315SOL     OW44841  14.770   1.557   8.938
14315SOL    HW144842  14.705   1.492   8.962
14315SOL    HW244843  14.807   1.586   9.021
14316SOL     OW44844   4.599   2.624   2.096
14316SOL    HW144845   4.631   2.534   2.103
14316SOL    HW244846   4.646   2.672   2.165
14317SOL     OW44847   9.839  14.730   7.168
14317SOL    HW144848   9.866  14.756   7.256
14317SOL    HW244849   9.918  14.738   7.115
14318SOL     OW44850  10.928  10.367   1.878
14318SOL    HW144851  10.875  10.337   1.952
14318SOL    HW244852  10.864  10.382   1.807
14319SOL     OW44853   2.953  14.874   7.931
14319SOL    HW144854   3.024  14.840   7.986
14319SOL    HW244855   2.989   0.075   7.891
14320SOL     OW44856   1.753   2.420  14.035
14320SOL    HW144857   1.790   2.507  14.048
14320SOL    HW244858   1.660   2.435  14.020
14321SOL     OW44859   9.580   2.911   3.617
14321SOL    HW144860   9.504   2.882   3.567
14321SOL    HW244861   9.639   2.948   3.552
14322SOL     OW44862  13.286  10.333   4.963
14322SOL    HW144863  13.239  10.366   4.886
14322SOL    HW244864  13.224  10.343   5.035
14323SOL     OW44865   9.395   3.373   4.132
14323SOL    HW144866   9.459   3.399   4.066
14323SOL    HW244867   9.326   3.439   4.125
14324SOL     OW44868   2.333   3.460   6.179
14324SOL    HW144869   2.306   3.509   6.102
14324SOL    HW244870   2.287   3.376   6.173
14325SOL     OW44871   5.883   2.626   7.411
14325SOL    HW144872   5.790   2.633   7.388
14325SOL    HW244873   5.890   2.669   7.496
14326SOL     OW44874  13.891   5.970  12.440
14326SOL    HW144875  13.948   5.894  12.436
14326SOL    HW244876  13.803   5.933  12.446
14327SOL     OW44877  14.103   2.903  13.036
14327SOL    HW144878  14.027   2.852  13.066
14327SOL    HW244879  14.118   2.872  12.947
14328SOL     OW44880   9.357   0.908   0.146
14328SOL    HW144881   9.420   0.980   0.148
14328SOL    HW244882   9.291   0.935   0.082
14329SOL     OW44883   7.199   2.270   2.706
14329SOL    HW144884   7.270   2.210   2.684
14329SOL    HW244885   7.132   2.214   2.747
14330SOL     OW44886  14.415   6.052  13.473
14330SOL    HW144887  14.422   6.072  13.567
14330SOL    HW244888  14.506   6.057  13.441
14331SOL     OW44889  11.398   9.667   5.449
14331SOL    HW144890  11.364   9.751   5.417
14331SOL    HW244891  11.493   9.680   5.452
14332SOL     OW44892  13.123  11.580   9.844
14332SOL    HW144893  13.177  11.599   9.920
14332SOL    HW244894  13.071  11.503   9.870
14333SOL     OW44895  13.345   2.368   8.902
14333SOL    HW144896  13.373   2.366   8.810
14333SOL    HW244897  13.374   2.454   8.934
14334SOL     OW44898  11.413   2.513   0.794
14334SOL    HW144899  11.371   2.468   0.866
14334SOL    HW244900  11.354   2.586   0.773
14335SOL     OW44901   2.601  10.134  13.075
14335SOL    HW144902   2.595  10.061  13.137
14335SOL    HW244903   2.638  10.095  12.996
14336SOL     OW44904   5.733   9.263  14.739
14336SOL    HW144905   5.723   9.242  14.646
14336SOL    HW244906   5.813   9.316  14.743
14337SOL     OW44907   4.222   4.713  14.527
14337SOL    HW144908   4.259   4.642  14.473
14337SOL    HW244909   4.212   4.786  14.466
14338SOL     OW44910   1.373   4.922   1.616
14338SOL    HW144911   1.353   4.828   1.612
14338SOL    HW244912   1.451   4.928   1.671
14339SOL     OW44913   9.768   8.284  14.285
14339SOL    HW144914   9.772   8.197  14.326
14339SOL    HW244915   9.813   8.273  14.201
14340SOL     OW44916   3.485  10.491  10.331
14340SOL    HW144917   3.473  10.426  10.400
14340SOL    HW244918   3.396  10.513  10.303
14341SOL     OW44919   5.175   1.977   8.905
14341SOL    HW144920   5.091   1.985   8.859
14341SOL    HW244921   5.154   2.001   8.996
14342SOL     OW44922   1.824   8.244  10.266
14342SOL    HW144923   1.883   8.193  10.210
14342SOL    HW244924   1.791   8.181  10.330
14343SOL     OW44925   0.363   5.691   6.020
14343SOL    HW144926   0.369   5.704   6.115
14343SOL    HW244927   0.275   5.720   5.997
14344SOL     OW44928   6.928   6.918  10.998
14344SOL    HW144929   6.848   6.865  11.002
14344SOL    HW244930   6.960   6.920  11.088
14345SOL     OW44931   3.608   4.936   2.281
14345SOL    HW144932   3.657   4.950   2.361
14345SOL    HW244933   3.554   5.015   2.272
14346SOL     OW44934   3.854  12.647   6.162
14346SOL    HW144935   3.813  12.695   6.089
14346SOL    HW244936   3.854  12.709   6.235
14347SOL     OW44937   6.626   7.321  14.192
14347SOL    HW144938   6.595   7.231  14.184
14347SOL    HW244939   6.721   7.314  14.198
14348SOL     OW44940   1.846  14.699   9.707
14348SOL    HW144941   1.840  14.645   9.786
14348SOL    HW244942   1.776  14.666   9.650
14349SOL     OW44943   6.941  10.187   4.933
14349SOL    HW144944   6.942  10.227   4.846
14349SOL    HW244945   7.018  10.131   4.935
14350SOL     OW44946  13.782  10.799   1.011
14350SOL    HW144947  13.775  10.765   1.100
14350SOL    HW244948  13.853  10.749   0.971
14351SOL     OW44949   3.881   4.156   8.025
14351SOL    HW144950   3.940   4.231   8.012
14351SOL    HW244951   3.824   4.183   8.097
14352SOL     OW44952   6.973   2.120  14.877
14352SOL    HW144953   6.983   2.212  14.852
14352SOL    HW244954   6.878   2.105  14.877
14353SOL     OW44955   8.069   0.622   0.231
14353SOL    HW144956   8.162   0.625   0.253
14353SOL    HW244957   8.067   0.607   0.137
14354SOL     OW44958   3.931   4.724   1.994
14354SOL    HW144959   4.023   4.741   2.014
14354SOL    HW244960   3.884   4.801   2.026
14355SOL     OW44961   7.292   1.782   3.914
14355SOL    HW144962   7.357   1.729   3.960
14355SOL    HW244963   7.311   1.872   3.939
14356SOL     OW44964  12.206   0.986   5.622
14356SOL    HW144965  12.286   0.934   5.620
14356SOL    HW244966  12.227   1.064   5.571
14357SOL     OW44967  13.453  10.513   6.152
14357SOL    HW144968  13.370  10.561   6.148
14357SOL    HW244969  13.435  10.429   6.109
14358SOL     OW44970   7.198  14.852  12.703
14358SOL    HW144971   7.216  14.761  12.726
14358SOL    HW244972   7.207   0.022  12.785
14359SOL     OW44973  11.505   4.108  14.854
14359SOL    HW144974  11.497   4.136  14.763
14359SOL    HW244975  11.419   4.125   0.015
14360SOL     OW44976  13.109  11.980   0.622
14360SOL    HW144977  13.187  12.017   0.663
14360SOL    HW244978  13.074  11.920   0.689
14361SOL     OW44979   4.947   2.772  10.444
14361SOL    HW144980   4.913   2.753  10.356
14361SOL    HW244981   5.040   2.749  10.439
14362SOL     OW44982   0.802   8.290  14.626
14362SOL    HW144983   0.839   8.208  14.659
14362SOL    HW244984   0.756   8.263  14.546
14363SOL     OW44985   2.009  12.769   1.858
14363SOL    HW144986   2.059  12.699   1.900
14363SOL    HW244987   2.065  12.846   1.865
14364SOL     OW44988   4.972   5.028  12.330
14364SOL    HW144989   5.023   4.953  12.301
14364SOL    HW244990   4.995   5.040  12.422
14365SOL     OW44991   2.754  12.706   1.989
14365SOL    HW144992   2.717  12.734   1.905
14365SOL    HW244993   2.847  12.693   1.970
14366SOL     OW44994   4.444   6.689  13.389
14366SOL    HW144995   4.450   6.599  13.360
14366SOL    HW244996   4.456   6.684  13.484
14367SOL     OW44997   2.275  13.636  14.042
14367SOL    HW144998   2.182  13.653  14.027
14367SOL    HW244999   2.298  13.690  14.118
14368SOL     OW45000   7.784   7.177   2.261
14368SOL    HW145001   7.858   7.236   2.243
14368SOL    HW245002   7.806   7.097   2.214
14369SOL     OW45003   0.576  10.088  11.035
14369SOL    HW145004   0.647  10.028  11.057
14369SOL    HW245005   0.541  10.055  10.953
14370SOL     OW45006   3.388  13.174   2.327
14370SOL    HW145007   3.441  13.149   2.251
14370SOL    HW245008   3.386  13.270   2.324
14371SOL     OW45009  14.248   7.893  12.416
14371SOL    HW145010  14.338   7.886  12.385
14371SOL    HW245011  14.219   7.803  12.427
14372SOL     OW45012   2.360  11.316   4.451
14372SOL    HW145013   2.303  11.364   4.391
14372SOL    HW245014   2.448  11.328   4.415
14373SOL     OW45015   9.192   0.758  11.403
14373SOL    HW145016   9.126   0.735  11.338
14373SOL    HW245017   9.242   0.677  11.417
14374SOL     OW45018   7.284  13.897   9.458
14374SOL    HW145019   7.233  13.816   9.467
14374SOL    HW245020   7.325  13.908   9.544
14375SOL     OW45021   9.039   9.853  14.824
14375SOL    HW145022   8.978   9.926  14.813
14375SOL    HW245023   8.998   9.780  14.779
14376SOL     OW45024   0.384  11.844   3.824
14376SOL    HW145025   0.469  11.878   3.850
14376SOL    HW245026   0.401  11.754   3.798
14377SOL     OW45027  10.422   8.344  12.862
14377SOL    HW145028  10.442   8.353  12.768
14377SOL    HW245029  10.421   8.250  12.877
14378SOL     OW45030   1.936   9.142  14.189
14378SOL    HW145031   1.974   9.211  14.134
14378SOL    HW245032   1.911   9.074  14.127
14379SOL     OW45033   5.320   7.549   8.315
14379SOL    HW145034   5.404   7.504   8.326
14379SOL    HW245035   5.318   7.613   8.386
14380SOL     OW45036  13.596  14.751   8.678
14380SOL    HW145037  13.661  14.732   8.609
14380SOL    HW245038  13.597  14.846   8.686
14381SOL     OW45039  12.708   0.651  14.429
14381SOL    HW145040  12.801   0.666  14.412
14381SOL    HW245041  12.666   0.658  14.344
14382SOL     OW45042   5.879  14.241   7.383
14382SOL    HW145043   5.895  14.148   7.399
14382SOL    HW245044   5.861  14.278   7.469
14383SOL     OW45045  13.503   1.326  11.758
14383SOL    HW145046  13.555   1.263  11.807
14383SOL    HW245047  13.562   1.400  11.743
14384SOL     OW45048   7.915   2.140  10.621
14384SOL    HW145049   7.981   2.210  10.616
14384SOL    HW245050   7.874   2.152  10.707
14385SOL     OW45051   5.729   1.508   7.496
14385SOL    HW145052   5.641   1.485   7.528
14385SOL    HW245053   5.788   1.459   7.553
14386SOL     OW45054  10.326  12.113   2.443
14386SOL    HW145055  10.356  12.202   2.424
14386SOL    HW245056  10.269  12.091   2.370
14387SOL     OW45057   5.257   0.660   6.071
14387SOL    HW145058   5.288   0.591   6.130
14387SOL    HW245059   5.248   0.617   5.986
14388SOL     OW45060   8.113  12.621  14.635
14388SOL    HW145061   8.048  12.652  14.572
14388SOL    HW245062   8.197  12.634  14.591
14389SOL     OW45063   1.216  10.915   6.594
14389SOL    HW145064   1.151  10.911   6.524
14389SOL    HW245065   1.231  11.009   6.607
14390SOL     OW45066   7.566   8.424   3.072
14390SOL    HW145067   7.600   8.510   3.047
14390SOL    HW245068   7.506   8.442   3.144
14391SOL     OW45069   5.902  12.113  10.369
14391SOL    HW145070   5.945  12.028  10.375
14391SOL    HW245071   5.847  12.117  10.447
14392SOL     OW45072   1.120   7.184  12.732
14392SOL    HW145073   1.080   7.156  12.815
14392SOL    HW245074   1.138   7.278  12.744
14393SOL     OW45075   1.284  11.687  12.280
14393SOL    HW145076   1.315  11.600  12.254
14393SOL    HW245077   1.341  11.712  12.353
14394SOL     OW45078   0.249  13.352   0.972
14394SOL    HW145079   0.253  13.446   0.959
14394SOL    HW245080   0.196  13.319   0.900
14395SOL     OW45081   0.820   8.466   4.304
14395SOL    HW145082   0.905   8.477   4.260
14395SOL    HW245083   0.811   8.372   4.314
14396SOL     OW45084   9.917   3.668   8.876
14396SOL    HW145085   9.893   3.588   8.830
14396SOL    HW245086  10.005   3.650   8.911
14397SOL     OW45087   3.502   8.832   1.544
14397SOL    HW145088   3.452   8.791   1.614
14397SOL    HW245089   3.479   8.925   1.548
14398SOL     OW45090   5.954   1.178   4.264
14398SOL    HW145091   5.940   1.271   4.280
14398SOL    HW245092   5.953   1.137   4.350
14399SOL     OW45093   9.040  12.781  11.890
14399SOL    HW145094   8.967  12.770  11.829
14399SOL    HW245095   9.064  12.692  11.915
14400SOL     OW45096   8.957  12.466   2.078
14400SOL    HW145097   9.023  12.439   2.141
14400SOL    HW245098   8.990  12.435   1.994
14401SOL     OW45099   4.673   0.504   6.281
14401SOL    HW145100   4.642   0.515   6.191
14401SOL    HW245101   4.596   0.524   6.334
14402SOL     OW45102   6.783   0.949  14.087
14402SOL    HW145103   6.838   1.011  14.136
14402SOL    HW245104   6.844   0.885  14.052
14403SOL     OW45105  10.838  13.627   0.912
14403SOL    HW145106  10.899  13.630   0.839
14403SOL    HW245107  10.806  13.537   0.914
14404SOL     OW45108  10.990   4.564   5.480
14404SOL    HW145109  10.934   4.641   5.472
14404SOL    HW245110  11.003   4.552   5.574
14405SOL     OW45111   3.445  12.611   4.748
14405SOL    HW145112   3.394  12.610   4.667
14405SOL    HW245113   3.536  12.613   4.719
14406SOL     OW45114  12.749   6.708   7.219
14406SOL    HW145115  12.831   6.724   7.265
14406SOL    HW245116  12.696   6.786   7.236
14407SOL     OW45117  11.765  10.049  13.033
14407SOL    HW145118  11.838   9.995  13.064
14407SOL    HW245119  11.693   9.987  13.021
14408SOL     OW45120   9.965   6.474  10.232
14408SOL    HW145121  10.038   6.496  10.174
14408SOL    HW245122   9.905   6.424  10.176
14409SOL     OW45123   6.786  12.298   8.088
14409SOL    HW145124   6.709  12.350   8.063
14409SOL    HW245125   6.829  12.278   8.005
14410SOL     OW45126  14.193   4.029   4.136
14410SOL    HW145127  14.199   4.072   4.221
14410SOL    HW245128  14.231   4.092   4.075
14411SOL     OW45129   8.420   6.040   0.850
14411SOL    HW145130   8.471   6.033   0.930
14411SOL    HW245131   8.368   6.120   0.861
14412SOL     OW45132   6.711  12.252   2.813
14412SOL    HW145133   6.682  12.228   2.725
14412SOL    HW245134   6.633  12.241   2.867
14413SOL     OW45135   7.673   3.566   5.939
14413SOL    HW145136   7.688   3.585   5.847
14413SOL    HW245137   7.759   3.580   5.980
14414SOL     OW45138   7.842  11.893   1.934
14414SOL    HW145139   7.824  11.924   1.845
14414SOL    HW245140   7.881  11.968   1.979
14415SOL     OW45141   4.184  10.147   9.874
14415SOL    HW145142   4.197  10.221   9.933
14415SOL    HW245143   4.128  10.087   9.923
14416SOL     OW45144   6.559   3.635   6.590
14416SOL    HW145145   6.469   3.613   6.616
14416SOL    HW245146   6.555   3.728   6.567
14417SOL     OW45147   4.380   5.326  13.531
14417SOL    HW145148   4.463   5.306  13.489
14417SOL    HW245149   4.394   5.301  13.623
14418SOL     OW45150   5.673  12.291  13.648
14418SOL    HW145151   5.690  12.206  13.608
14418SOL    HW245152   5.584  12.313  13.619
14419SOL     OW45153  13.657  14.533   8.834
14419SOL    HW145154  13.636  14.589   8.759
14419SOL    HW245155  13.583  14.472   8.839
14420SOL     OW45156  13.440   7.453   3.970
14420SOL    HW145157  13.417   7.445   3.877
14420SOL    HW245158  13.502   7.526   3.973
14421SOL     OW45159   0.017   3.543  11.507
14421SOL    HW145160  14.853   3.545  11.421
14421SOL    HW245161   0.099   3.496  11.493
14422SOL     OW45162   7.439   9.115   5.550
14422SOL    HW145163   7.490   9.057   5.607
14422SOL    HW245164   7.348   9.092   5.567
14423SOL     OW45165   7.205   0.627   6.270
14423SOL    HW145166   7.196   0.570   6.346
14423SOL    HW245167   7.274   0.689   6.294
14424SOL     OW45168   9.830  11.777   4.921
14424SOL    HW145169   9.846  11.770   4.827
14424SOL    HW245170   9.912  11.748   4.962
14425SOL     OW45171  14.635  12.076  14.747
14425SOL    HW145172  14.557  12.022  14.734
14425SOL    HW245173  14.601  12.161  14.775
14426SOL     OW45174   6.947   1.902   5.659
14426SOL    HW145175   6.957   1.932   5.569
14426SOL    HW245176   6.866   1.852   5.659
14427SOL     OW45177   7.322  12.452  11.065
14427SOL    HW145178   7.324  12.360  11.092
14427SOL    HW245179   7.316  12.450  10.970
14428SOL     OW45180   2.555   5.077   4.746
14428SOL    HW145181   2.492   5.144   4.769
14428SOL    HW245182   2.528   5.000   4.796
14429SOL     OW45183  11.512   9.026  11.772
14429SOL    HW145184  11.445   9.094  11.764
14429SOL    HW245185  11.464   8.944  11.772
14430SOL     OW45186   5.895   6.053   2.775
14430SOL    HW145187   5.916   5.971   2.820
14430SOL    HW245188   5.909   6.034   2.682
14431SOL     OW45189   5.001   7.719   1.660
14431SOL    HW145190   5.096   7.716   1.658
14431SOL    HW245191   4.974   7.627   1.661
14432SOL     OW45192   4.590   4.793  10.439
14432SOL    HW145193   4.542   4.798  10.522
14432SOL    HW245194   4.537   4.734  10.385
14433SOL     OW45195   6.197   9.041   3.004
14433SOL    HW145196   6.195   8.946   2.993
14433SOL    HW245197   6.131   9.074   2.943
14434SOL     OW45198  10.132   1.070   2.702
14434SOL    HW145199  10.112   1.140   2.763
14434SOL    HW245200  10.059   1.009   2.710
14435SOL     OW45201  13.466   9.811   8.892
14435SOL    HW145202  13.508   9.881   8.941
14435SOL    HW245203  13.530   9.739   8.894
14436SOL     OW45204   7.310   3.015  14.480
14436SOL    HW145205   7.241   3.039  14.419
14436SOL    HW245206   7.340   2.930  14.449
14437SOL     OW45207   5.012   4.071  12.564
14437SOL    HW145208   5.040   4.048  12.653
14437SOL    HW245209   5.019   3.990  12.514
14438SOL     OW45210  10.064   4.504   4.892
14438SOL    HW145211  10.102   4.442   4.955
14438SOL    HW245212  10.015   4.449   4.831
14439SOL     OW45213  11.131  11.073  11.715
14439SOL    HW145214  11.081  10.994  11.697
14439SOL    HW245215  11.187  11.051  11.790
14440SOL     OW45216  12.309   2.462   6.501
14440SOL    HW145217  12.269   2.377   6.520
14440SOL    HW245218  12.307   2.469   6.406
14441SOL     OW45219  12.156  12.660   7.144
14441SOL    HW145220  12.064  12.683   7.140
14441SOL    HW245221  12.199  12.720   7.083
14442SOL     OW45222   2.294   9.154  11.089
14442SOL    HW145223   2.327   9.236  11.053
14442SOL    HW245224   2.221   9.131  11.032
14443SOL     OW45225  11.035   0.340  11.021
14443SOL    HW145226  11.063   0.286  11.095
14443SOL    HW245227  11.104   0.404  11.010
14444SOL     OW45228  12.174  14.072   0.860
14444SOL    HW145229  12.178  14.041   0.950
14444SOL    HW245230  12.082  14.060   0.834
14445SOL     OW45231   5.930   0.531   2.167
14445SOL    HW145232   5.940   0.485   2.084
14445SOL    HW245233   5.915   0.461   2.231
14446SOL     OW45234   6.778   1.758   8.227
14446SOL    HW145235   6.803   1.670   8.199
14446SOL    HW245236   6.801   1.761   8.320
14447SOL     OW45237   5.056   0.312   4.592
14447SOL    HW145238   5.024   0.311   4.502
14447SOL    HW245239   5.151   0.303   4.584
14448SOL     OW45240   4.010   0.519  11.921
14448SOL    HW145241   4.042   0.499  12.009
14448SOL    HW245242   4.083   0.565  11.880
14449SOL     OW45243  13.612   5.936  13.590
14449SOL    HW145244  13.664   5.888  13.655
14449SOL    HW245245  13.546   5.982  13.642
14450SOL     OW45246   9.856   8.313   4.279
14450SOL    HW145247   9.812   8.342   4.359
14450SOL    HW245248   9.788   8.266   4.230
14451SOL     OW45249   5.143   2.913   6.585
14451SOL    HW145250   5.080   2.884   6.651
14451SOL    HW245251   5.165   2.835   6.536
14452SOL     OW45252   5.597   3.332   8.011
14452SOL    HW145253   5.625   3.287   7.931
14452SOL    HW245254   5.653   3.296   8.080
14453SOL     OW45255   3.131   2.181  10.648
14453SOL    HW145256   3.224   2.200  10.658
14453SOL    HW245257   3.118   2.098  10.694
14454SOL     OW45258   6.254   9.743   6.848
14454SOL    HW145259   6.256   9.656   6.808
14454SOL    HW245260   6.221   9.800   6.778
14455SOL     OW45261   1.233  10.865   2.469
14455SOL    HW145262   1.294  10.938   2.455
14455SOL    HW245263   1.195  10.881   2.555
14456SOL     OW45264   0.185   1.385  11.234
14456SOL    HW145265   0.110   1.340  11.274
14456SOL    HW245266   0.237   1.415  11.308
14457SOL     OW45267   7.250  14.331   3.030
14457SOL    HW145268   7.331  14.350   2.982
14457SOL    HW245269   7.248  14.235   3.036
14458SOL     OW45270   8.464   5.321  11.271
14458SOL    HW145271   8.556   5.314  11.294
14458SOL    HW245272   8.422   5.247  11.315
14459SOL     OW45273   7.437   8.797  12.378
14459SOL    HW145274   7.507   8.802  12.443
14459SOL    HW245275   7.359   8.830  12.423
14460SOL     OW45276  12.704   2.974   9.428
14460SOL    HW145277  12.625   2.935   9.466
14460SOL    HW245278  12.763   2.900   9.418
14461SOL     OW45279  13.278  11.013   6.505
14461SOL    HW145280  13.218  11.072   6.551
14461SOL    HW245281  13.327  11.069   6.446
14462SOL     OW45282   8.744   8.637  14.234
14462SOL    HW145283   8.798   8.677  14.302
14462SOL    HW245284   8.666   8.607  14.279
14463SOL     OW45285  11.972   1.358   5.268
14463SOL    HW145286  11.978   1.380   5.175
14463SOL    HW245287  11.897   1.409   5.299
14464SOL     OW45288   3.354  12.520  14.874
14464SOL    HW145289   3.365  12.464   0.073
14464SOL    HW245290   3.265  12.503  14.843
14465SOL     OW45291   1.731   6.126  14.774
14465SOL    HW145292   1.746   6.047  14.825
14465SOL    HW245293   1.652   6.164  14.812
14466SOL     OW45294  13.406  10.662   1.222
14466SOL    HW145295  13.432  10.754   1.217
14466SOL    HW245296  13.388  10.637   1.132
14467SOL     OW45297   7.631  13.943   2.205
14467SOL    HW145298   7.641  13.863   2.153
14467SOL    HW245299   7.539  13.967   2.193
14468SOL     OW45300  12.289   7.081   8.900
14468SOL    HW145301  12.277   7.171   8.928
14468SOL    HW245302  12.374   7.055   8.936
14469SOL     OW45303   2.299   5.725   3.864
14469SOL    HW145304   2.368   5.791   3.858
14469SOL    HW245305   2.260   5.739   3.950
14470SOL     OW45306   0.836   2.116   0.495
14470SOL    HW145307   0.806   2.065   0.571
14470SOL    HW245308   0.921   2.151   0.522
14471SOL     OW45309   6.836   3.096   1.914
14471SOL    HW145310   6.826   3.099   2.009
14471SOL    HW245311   6.930   3.096   1.900
14472SOL     OW45312   9.596  10.722   7.314
14472SOL    HW145313   9.565  10.812   7.325
14472SOL    HW245314   9.687  10.724   7.345
14473SOL     OW45315   2.006   7.409   3.041
14473SOL    HW145316   2.054   7.380   2.964
14473SOL    HW245317   2.074   7.437   3.103
14474SOL     OW45318   5.952  14.299   2.255
14474SOL    HW145319   5.935  14.309   2.161
14474SOL    HW245320   5.993  14.213   2.263
14475SOL     OW45321  12.861   6.850  13.972
14475SOL    HW145322  12.808   6.929  13.977
14475SOL    HW245323  12.853   6.810  14.059
14476SOL     OW45324   3.985  11.224   5.669
14476SOL    HW145325   3.904  11.208   5.620
14476SOL    HW245326   3.975  11.313   5.702
14477SOL     OW45327  10.472  12.274  14.395
14477SOL    HW145328  10.474  12.271  14.491
14477SOL    HW245329  10.467  12.182  14.368
14478SOL     OW45330   2.149   7.630   0.470
14478SOL    HW145331   2.187   7.709   0.431
14478SOL    HW245332   2.197   7.618   0.552
14479SOL     OW45333  10.694  13.747   7.303
14479SOL    HW145334  10.725  13.663   7.338
14479SOL    HW245335  10.598  13.739   7.303
14480SOL     OW45336   4.862   8.021   7.474
14480SOL    HW145337   4.824   8.093   7.423
14480SOL    HW245338   4.882   8.060   7.559
14481SOL     OW45339   6.234  11.979  12.926
14481SOL    HW145340   6.282  11.897  12.936
14481SOL    HW245341   6.149  11.963  12.967
14482SOL     OW45342   5.083   3.835   1.567
14482SOL    HW145343   5.132   3.807   1.490
14482SOL    HW245344   5.052   3.753   1.607
14483SOL     OW45345  10.761   3.080   8.131
14483SOL    HW145346  10.728   3.079   8.221
14483SOL    HW245347  10.700   3.137   8.084
14484SOL     OW45348   0.584   3.894   1.705
14484SOL    HW145349   0.498   3.852   1.699
14484SOL    HW245350   0.593   3.943   1.623
14485SOL     OW45351   3.509   3.388  12.815
14485SOL    HW145352   3.540   3.349  12.733
14485SOL    HW245353   3.589   3.404  12.865
14486SOL     OW45354   4.650  10.484   7.979
14486SOL    HW145355   4.717  10.536   7.935
14486SOL    HW245356   4.657  10.509   8.072
14487SOL     OW45357  14.253   5.174   8.941
14487SOL    HW145358  14.229   5.230   8.868
14487SOL    HW245359  14.260   5.233   9.016
14488SOL     OW45360   4.378   1.572   9.612
14488SOL    HW145361   4.370   1.624   9.532
14488SOL    HW245362   4.457   1.607   9.655
14489SOL     OW45363   6.964   1.510   0.233
14489SOL    HW145364   7.028   1.456   0.188
14489SOL    HW245365   6.880   1.485   0.194
14490SOL     OW45366  11.158   9.951   5.681
14490SOL    HW145367  11.099   9.943   5.756
14490SOL    HW245368  11.171  10.045   5.672
14491SOL     OW45369   9.070   2.992  11.930
14491SOL    HW145370   9.020   3.027  11.856
14491SOL    HW245371   9.099   2.905  11.901
14492SOL     OW45372   1.528  11.772   0.250
14492SOL    HW145373   1.467  11.817   0.310
14492SOL    HW245374   1.542  11.835   0.180
14493SOL     OW45375  12.841   3.789   7.641
14493SOL    HW145376  12.788   3.788   7.721
14493SOL    HW245377  12.924   3.828   7.669
14494SOL     OW45378   7.391   3.596  10.262
14494SOL    HW145379   7.424   3.608  10.174
14494SOL    HW245380   7.311   3.545  10.251
14495SOL     OW45381   9.242  14.874  10.698
14495SOL    HW145382   9.182   0.013  10.770
14495SOL    HW245383   9.229   0.069  10.637
14496SOL     OW45384   6.823  12.873   8.900
14496SOL    HW145385   6.733  12.869   8.869
14496SOL    HW245386   6.819  12.914   8.986
14497SOL     OW45387   4.000  13.553   0.420
14497SOL    HW145388   3.906  13.569   0.418
14497SOL    HW245389   4.008  13.458   0.431
14498SOL     OW45390   3.488   4.672   1.271
14498SOL    HW145391   3.483   4.675   1.366
14498SOL    HW245392   3.410   4.718   1.242
14499SOL     OW45393  13.794   8.389   8.366
14499SOL    HW145394  13.752   8.436   8.438
14499SOL    HW245395  13.735   8.316   8.347
14500SOL     OW45396   4.916  14.284   7.702
14500SOL    HW145397   4.876  14.281   7.615
14500SOL    HW245398   5.002  14.244   7.691
14501SOL     OW45399   2.260  12.260   5.259
14501SOL    HW145400   2.323  12.332   5.253
14501SOL    HW245401   2.174  12.303   5.255
14502SOL     OW45402  10.177   3.178   4.085
14502SOL    HW145403  10.210   3.165   4.173
14502SOL    HW245404  10.155   3.272   4.081
14503SOL     OW45405   1.421  14.380  10.475
14503SOL    HW145406   1.503  14.363  10.520
14503SOL    HW245407   1.395  14.468  10.503
14504SOL     OW45408   5.953   1.668  10.887
14504SOL    HW145409   5.990   1.702  10.968
14504SOL    HW245410   5.994   1.582  10.877
14505SOL     OW45411   0.959  11.409   1.982
14505SOL    HW145412   0.924  11.498   1.991
14505SOL    HW245413   0.940  11.385   1.891
14506SOL     OW45414  10.374   4.210   3.112
14506SOL    HW145415  10.399   4.159   3.189
14506SOL    HW245416  10.322   4.150   3.059
14507SOL     OW45417  13.764   6.601   4.886
14507SOL    HW145418  13.702   6.621   4.816
14507SOL    HW245419  13.794   6.512   4.866
14508SOL     OW45420   1.923   6.737   7.224
14508SOL    HW145421   1.930   6.771   7.313
14508SOL    HW245422   1.955   6.647   7.230
14509SOL     OW45423   0.682   0.595   2.646
14509SOL    HW145424   0.596   0.582   2.684
14509SOL    HW245425   0.728   0.512   2.662
14510SOL     OW45426   7.042   6.591   8.256
14510SOL    HW145427   7.049   6.672   8.306
14510SOL    HW245428   6.997   6.530   8.314
14511SOL     OW45429   3.761  13.147   1.998
14511SOL    HW145430   3.826  13.141   1.927
14511SOL    HW245431   3.746  13.241   2.009
14512SOL     OW45432   9.166   1.101   6.098
14512SOL    HW145433   9.104   1.058   6.039
14512SOL    HW245434   9.248   1.053   6.086
14513SOL     OW45435  10.537   3.621   1.352
14513SOL    HW145436  10.570   3.676   1.280
14513SOL    HW245437  10.607   3.622   1.417
14514SOL     OW45438   5.239   4.444   7.626
14514SOL    HW145439   5.173   4.486   7.571
14514SOL    HW245440   5.271   4.514   7.683
14515SOL     OW45441  14.059  13.320  10.074
14515SOL    HW145442  14.093  13.315  10.163
14515SOL    HW245443  13.964  13.325  10.084
14516SOL     OW45444   2.863   5.283  13.347
14516SOL    HW145445   2.860   5.313  13.438
14516SOL    HW245446   2.943   5.231  13.341
14517SOL     OW45447   2.751   0.113   6.796
14517SOL    HW145448   2.745   0.024   6.763
14517SOL    HW245449   2.812   0.107   6.870
14518SOL     OW45450   1.921   4.790  14.370
14518SOL    HW145451   1.909   4.872  14.322
14518SOL    HW245452   2.004   4.756  14.338
14519SOL     OW45453   1.828   2.438   7.069
14519SOL    HW145454   1.912   2.437   7.024
14519SOL    HW245455   1.782   2.361   7.035
14520SOL     OW45456   7.785   1.307   5.575
14520SOL    HW145457   7.728   1.252   5.628
14520SOL    HW245458   7.730   1.339   5.504
14521SOL     OW45459  14.789  11.192   3.276
14521SOL    HW145460  14.863  11.241   3.240
14521SOL    HW245461  14.766  11.129   3.208
14522SOL     OW45462   2.709   9.063   0.108
14522SOL    HW145463   2.655   9.136   0.136
14522SOL    HW245464   2.674   8.987   0.156
14523SOL     OW45465   5.139   9.307   6.594
14523SOL    HW145466   5.161   9.220   6.561
14523SOL    HW245467   5.138   9.298   6.689
14524SOL     OW45468   0.620   1.150   1.922
14524SOL    HW145469   0.650   1.207   1.851
14524SOL    HW245470   0.699   1.133   1.974
14525SOL     OW45471  13.083   1.343  11.664
14525SOL    HW145472  13.001   1.392  11.670
14525SOL    HW245473  13.074   1.291  11.584
14526SOL     OW45474   2.788  11.100  10.376
14526SOL    HW145475   2.862  11.103  10.315
14526SOL    HW245476   2.788  11.185  10.418
14527SOL     OW45477  13.160   5.085   5.892
14527SOL    HW145478  13.231   5.023   5.909
14527SOL    HW245479  13.081   5.032   5.895
14528SOL     OW45480   2.498   2.684  14.683
14528SOL    HW145481   2.566   2.627  14.648
14528SOL    HW245482   2.493   2.758  14.622
14529SOL     OW45483  11.849  12.257  12.835
14529SOL    HW145484  11.925  12.279  12.890
14529SOL    HW245485  11.865  12.304  12.753
14530SOL     OW45486   5.430   2.780  13.314
14530SOL    HW145487   5.388   2.863  13.289
14530SOL    HW245488   5.478   2.800  13.394
14531SOL     OW45489   7.054   2.619   1.914
14531SOL    HW145490   7.051   2.567   1.834
14531SOL    HW245491   6.962   2.636   1.935
14532SOL     OW45492   1.778   3.860   7.493
14532SOL    HW145493   1.718   3.827   7.560
14532SOL    HW245494   1.732   3.934   7.453
14533SOL     OW45495  10.896  13.591  10.835
14533SOL    HW145496  10.865  13.647  10.907
14533SOL    HW245497  10.915  13.508  10.877
14534SOL     OW45498   7.938   6.038   2.134
14534SOL    HW145499   7.884   6.080   2.068
14534SOL    HW245500   7.930   6.094   2.211
14535SOL     OW45501  12.677   9.160   4.123
14535SOL    HW145502  12.608   9.098   4.147
14535SOL    HW245503  12.635   9.246   4.126
14536SOL     OW45504   4.412   7.961   6.277
14536SOL    HW145505   4.378   7.874   6.256
14536SOL    HW245506   4.462   7.948   6.358
14537SOL     OW45507   8.779   3.886   6.931
14537SOL    HW145508   8.736   3.928   6.856
14537SOL    HW245509   8.720   3.815   6.956
14538SOL     OW45510   8.911   5.311   3.573
14538SOL    HW145511   8.920   5.304   3.668
14538SOL    HW245512   8.835   5.368   3.560
14539SOL     OW45513  10.550   7.872   5.841
14539SOL    HW145514  10.499   7.835   5.769
14539SOL    HW245515  10.497   7.946   5.872
14540SOL     OW45516  14.457   4.208   0.234
14540SOL    HW145517  14.534   4.247   0.192
14540SOL    HW245518  14.474   4.216   0.328
14541SOL     OW45519   7.469   6.724   5.616
14541SOL    HW145520   7.409   6.799   5.617
14541SOL    HW245521   7.414   6.650   5.642
14542SOL     OW45522  12.445   2.726   1.230
14542SOL    HW145523  12.429   2.753   1.139
14542SOL    HW245524  12.393   2.646   1.240
14543SOL     OW45525   2.313   3.424   8.149
14543SOL    HW145526   2.238   3.367   8.136
14543SOL    HW245527   2.389   3.366   8.139
14544SOL     OW45528  10.927   0.336   1.041
14544SOL    HW145529  10.906   0.405   0.978
14544SOL    HW245530  10.862   0.346   1.110
14545SOL     OW45531   8.026  10.121   0.577
14545SOL    HW145532   7.982  10.051   0.625
14545SOL    HW245533   7.974  10.200   0.597
14546SOL     OW45534   3.321   0.739  12.670
14546SOL    HW145535   3.339   0.833  12.676
14546SOL    HW245536   3.243   0.734  12.614
14547SOL     OW45537   5.889  11.313   0.557
14547SOL    HW145538   5.857  11.391   0.512
14547SOL    HW245539   5.950  11.273   0.495
14548SOL     OW45540   0.325  10.776   0.430
14548SOL    HW145541   0.290  10.711   0.490
14548SOL    HW245542   0.308  10.741   0.343
14549SOL     OW45543   7.207  10.387   8.153
14549SOL    HW145544   7.204  10.351   8.241
14549SOL    HW245545   7.278  10.340   8.109
14550SOL     OW45546  10.560   5.060  10.972
14550SOL    HW145547  10.593   5.048  10.883
14550SOL    HW245548  10.465   5.065  10.962
14551SOL     OW45549  11.129   0.466   8.699
14551SOL    HW145550  11.143   0.383   8.654
14551SOL    HW245551  11.035   0.483   8.690
14552SOL     OW45552  14.683   3.582   7.084
14552SOL    HW145553  14.628   3.615   7.156
14552SOL    HW245554  14.627   3.589   7.007
14553SOL     OW45555   5.852   1.498  13.713
14553SOL    HW145556   5.853   1.565  13.645
14553SOL    HW245557   5.921   1.437  13.688
14554SOL     OW45558  10.932   5.832  13.273
14554SOL    HW145559  11.005   5.834  13.211
14554SOL    HW245560  10.961   5.885  13.347
14555SOL     OW45561   1.069   5.020  13.551
14555SOL    HW145562   1.124   5.094  13.527
14555SOL    HW245563   1.130   4.951  13.577
14556SOL     OW45564   7.668   3.664  12.167
14556SOL    HW145565   7.729   3.653  12.240
14556SOL    HW245566   7.722   3.699  12.096
14557SOL     OW45567   1.715   6.382   0.969
14557SOL    HW145568   1.663   6.367   1.048
14557SOL    HW245569   1.788   6.321   0.977
14558SOL     OW45570  11.596  11.607  11.624
14558SOL    HW145571  11.666  11.603  11.690
14558SOL    HW245572  11.549  11.688  11.644
14559SOL     OW45573   6.453   7.296   3.246
14559SOL    HW145574   6.446   7.263   3.335
14559SOL    HW245575   6.479   7.388   3.255
14560SOL     OW45576   5.140   2.161   6.269
14560SOL    HW145577   5.147   2.203   6.355
14560SOL    HW245578   5.223   2.114   6.259
14561SOL     OW45579   5.612   2.645   2.649
14561SOL    HW145580   5.662   2.690   2.718
14561SOL    HW245581   5.545   2.597   2.697
14562SOL     OW45582  11.095   6.707   0.763
14562SOL    HW145583  11.168   6.649   0.742
14562SOL    HW245584  11.104   6.723   0.857
14563SOL     OW45585  10.830   9.707  14.851
14563SOL    HW145586  10.786   9.641  14.797
14563SOL    HW245587  10.888   9.656   0.031
14564SOL     OW45588  11.700  11.739   6.034
14564SOL    HW145589  11.743  11.775   6.112
14564SOL    HW245590  11.742  11.783   5.961
14565SOL     OW45591   1.275  11.009  13.486
14565SOL    HW145592   1.197  11.052  13.520
14565SOL    HW245593   1.284  11.042  13.397
14566SOL     OW45594   5.544   9.690   4.982
14566SOL    HW145595   5.586   9.677   5.067
14566SOL    HW245596   5.459   9.647   4.990
14567SOL     OW45597   6.079   0.413   9.382
14567SOL    HW145598   6.173   0.419   9.398
14567SOL    HW245599   6.039   0.410   9.470
14568SOL     OW45600   3.185  10.767   8.039
14568SOL    HW145601   3.257  10.704   8.037
14568SOL    HW245602   3.154  10.765   8.130
14569SOL     OW45603   4.601   7.761   2.805
14569SOL    HW145604   4.638   7.718   2.882
14569SOL    HW245605   4.592   7.853   2.831
14570SOL     OW45606  10.840  10.279   3.992
14570SOL    HW145607  10.868  10.365   3.960
14570SOL    HW245608  10.807  10.296   4.080
14571SOL     OW45609   6.217  14.202   8.761
14571SOL    HW145610   6.144  14.179   8.704
14571SOL    HW245611   6.203  14.150   8.840
14572SOL     OW45612  11.312  14.871   9.074
14572SOL    HW145613  11.376  14.874   9.004
14572SOL    HW245614  11.247  14.807   9.045
14573SOL     OW45615  11.262   6.966  13.323
14573SOL    HW145616  11.188   6.922  13.367
14573SOL    HW245617  11.321   6.990  13.395
14574SOL     OW45618   0.089  14.483  11.368
14574SOL    HW145619   0.084  14.509  11.276
14574SOL    HW245620   0.174  14.514  11.397
14575SOL     OW45621  11.421   5.454   8.329
14575SOL    HW145622  11.400   5.395   8.257
14575SOL    HW245623  11.498   5.415   8.371
14576SOL     OW45624   7.216  12.046   6.711
14576SOL    HW145625   7.132  12.033   6.666
14576SOL    HW245626   7.196  12.109   6.780
14577SOL     OW45627   3.078   0.145   8.258
14577SOL    HW145628   3.147   0.187   8.206
14577SOL    HW245629   3.082   0.053   8.233
14578SOL     OW45630  11.469   3.084   5.769
14578SOL    HW145631  11.431   3.115   5.687
14578SOL    HW245632  11.563   3.083   5.752
14579SOL     OW45633   9.180   3.806  12.307
14579SOL    HW145634   9.093   3.783  12.338
14579SOL    HW245635   9.199   3.742  12.238
14580SOL     OW45636   9.483   3.428   3.561
14580SOL    HW145637   9.399   3.473   3.573
14580SOL    HW245638   9.462   3.336   3.574
14581SOL     OW45639   9.561  12.622   1.432
14581SOL    HW145640   9.554  12.707   1.475
14581SOL    HW245641   9.650  12.593   1.451
14582SOL     OW45642  10.340   2.535   5.388
14582SOL    HW145643  10.419   2.580   5.360
14582SOL    HW245644  10.362   2.499   5.474
14583SOL     OW45645   6.338   3.422  13.245
14583SOL    HW145646   6.431   3.404  13.259
14583SOL    HW245647   6.332   3.447  13.153
14584SOL     OW45648   3.380   4.820   4.401
14584SOL    HW145649   3.457   4.839   4.455
14584SOL    HW245650   3.414   4.769   4.328
14585SOL     OW45651   5.093   4.120   4.289
14585SOL    HW145652   5.029   4.159   4.349
14585SOL    HW245653   5.041   4.059   4.236
14586SOL     OW45654  12.204  12.501   3.627
14586SOL    HW145655  12.215  12.544   3.711
14586SOL    HW245656  12.276  12.535   3.573
14587SOL     OW45657   0.699   9.264   2.676
14587SOL    HW145658   0.691   9.335   2.611
14587SOL    HW245659   0.751   9.197   2.632
14588SOL     OW45660   7.416   1.386   9.505
14588SOL    HW145661   7.371   1.378   9.421
14588SOL    HW245662   7.465   1.467   9.498
14589SOL     OW45663   1.892   1.422   6.872
14589SOL    HW145664   1.920   1.429   6.781
14589SOL    HW245665   1.922   1.336   6.900
14590SOL     OW45666   9.243   2.259   7.229
14590SOL    HW145667   9.286   2.345   7.236
14590SOL    HW245668   9.314   2.196   7.234
14591SOL     OW45669   5.216   6.940   0.144
14591SOL    HW145670   5.206   6.996   0.067
14591SOL    HW245671   5.250   6.858   0.110
14592SOL     OW45672   4.337   1.023   4.266
14592SOL    HW145673   4.354   0.994   4.177
14592SOL    HW245674   4.271   0.962   4.299
14593SOL     OW45675   4.031   8.637  11.160
14593SOL    HW145676   3.942   8.662  11.186
14593SOL    HW245677   4.021   8.553  11.117
14594SOL     OW45678   4.738   8.404   1.529
14594SOL    HW145679   4.700   8.486   1.560
14594SOL    HW245680   4.821   8.430   1.488
14595SOL     OW45681  13.996  11.217   0.763
14595SOL    HW145682  14.084  11.211   0.801
14595SOL    HW245683  13.961  11.129   0.770
14596SOL     OW45684   9.174   4.411   7.318
14596SOL    HW145685   9.138   4.477   7.378
14596SOL    HW245686   9.124   4.332   7.336
14597SOL     OW45687  13.482   0.369  14.831
14597SOL    HW145688  13.545   0.358   0.025
14597SOL    HW245689  13.452   0.460  14.839
14598SOL     OW45690   0.318   2.149  10.977
14598SOL    HW145691   0.382   2.215  11.002
14598SOL    HW245692   0.357   2.104  10.902
14599SOL     OW45693   0.586  10.990   1.015
14599SOL    HW145694   0.636  10.919   0.976
14599SOL    HW245695   0.633  11.069   0.989
14600SOL     OW45696   8.795   4.601   8.973
14600SOL    HW145697   8.699   4.599   8.963
14600SOL    HW245698   8.810   4.671   9.037
14601SOL     OW45699   7.593   4.441  12.309
14601SOL    HW145700   7.570   4.487  12.229
14601SOL    HW245701   7.671   4.487  12.341
14602SOL     OW45702  11.624  10.281  13.164
14602SOL    HW145703  11.635  10.376  13.157
14602SOL    HW245704  11.661  10.247  13.083
14603SOL     OW45705   5.404   5.162   0.938
14603SOL    HW145706   5.342   5.218   0.986
14603SOL    HW245707   5.459   5.224   0.890
14604SOL     OW45708  12.352   7.812  13.019
14604SOL    HW145709  12.399   7.729  13.020
14604SOL    HW245710  12.304   7.813  13.102
14605SOL     OW45711   6.562   0.149   8.125
14605SOL    HW145712   6.467   0.138   8.132
14605SOL    HW245713   6.597   0.107   8.203
14606SOL     OW45714  12.148   3.176   1.355
14606SOL    HW145715  12.204   3.176   1.277
14606SOL    HW245716  12.162   3.090   1.394
14607SOL     OW45717  14.128   8.744   7.710
14607SOL    HW145718  14.053   8.720   7.764
14607SOL    HW245719  14.203   8.704   7.755
14608SOL     OW45720   6.845   5.838   4.322
14608SOL    HW145721   6.810   5.924   4.300
14608SOL    HW245722   6.851   5.838   4.418
14609SOL     OW45723   5.949  11.560   0.456
14609SOL    HW145724   5.985  11.615   0.386
14609SOL    HW245725   5.902  11.621   0.513
14610SOL     OW45726   5.070   6.468  13.962
14610SOL    HW145727   4.983   6.503  13.943
14610SOL    HW245728   5.129   6.543  13.954
14611SOL     OW45729  14.612  10.695   3.303
14611SOL    HW145730  14.687  10.647   3.337
14611SOL    HW245731  14.631  10.787   3.322
14612SOL     OW45732   0.824   9.455   2.002
14612SOL    HW145733   0.754   9.412   1.953
14612SOL    HW245734   0.843   9.394   2.074
14613SOL     OW45735  11.599   1.701   3.841
14613SOL    HW145736  11.636   1.788   3.822
14613SOL    HW245737  11.505   1.717   3.848
14614SOL     OW45738   7.988   5.742  11.492
14614SOL    HW145739   7.911   5.711  11.444
14614SOL    HW245740   7.997   5.833  11.465
14615SOL     OW45741   4.049   5.089   5.775
14615SOL    HW145742   4.119   5.036   5.737
14615SOL    HW245743   4.085   5.178   5.779
14616SOL     OW45744  14.300   3.372   3.956
14616SOL    HW145745  14.379   3.426   3.958
14616SOL    HW245746  14.329   3.288   3.921
14617SOL     OW45747   4.223   4.941   5.281
14617SOL    HW145748   4.269   5.011   5.234
14617SOL    HW245749   4.146   4.984   5.319
14618SOL     OW45750   1.111   4.615   9.578
14618SOL    HW145751   1.076   4.526   9.578
14618SOL    HW245752   1.183   4.613   9.515
14619SOL     OW45753   0.848   1.742   3.623
14619SOL    HW145754   0.906   1.672   3.593
14619SOL    HW245755   0.785   1.754   3.552
14620SOL     OW45756   4.346   6.708  10.860
14620SOL    HW145757   4.307   6.764  10.926
14620SOL    HW245758   4.429   6.679  10.898
14621SOL     OW45759   1.011   5.834   0.954
14621SOL    HW145760   1.037   5.916   0.995
14621SOL    HW245761   1.029   5.846   0.861
14622SOL     OW45762  12.628  11.328   9.308
14622SOL    HW145763  12.694  11.396   9.299
14622SOL    HW245764  12.667  11.251   9.266
14623SOL     OW45765  10.314   5.228  13.296
14623SOL    HW145766  10.254   5.176  13.244
14623SOL    HW245767  10.284   5.319  13.285
14624SOL     OW45768  13.832  10.131  14.763
14624SOL    HW145769  13.870  10.192  14.827
14624SOL    HW245770  13.834  10.179  14.680
14625SOL     OW45771   4.939   0.179  13.738
14625SOL    HW145772   4.975   0.184  13.826
14625SOL    HW245773   4.852   0.219  13.745
14626SOL     OW45774   5.258  11.290   1.086
14626SOL    HW145775   5.199  11.236   1.138
14626SOL    HW245776   5.206  11.367   1.061
14627SOL     OW45777   3.579  12.957   4.512
14627SOL    HW145778   3.599  12.968   4.605
14627SOL    HW245779   3.622  13.031   4.469
14628SOL     OW45780  11.994   3.734  13.504
14628SOL    HW145781  12.071   3.699  13.460
14628SOL    HW245782  11.982   3.678  13.580
14629SOL     OW45783   0.195   5.506   4.690
14629SOL    HW145784   0.147   5.581   4.655
14629SOL    HW245785   0.247   5.542   4.762
14630SOL     OW45786   4.475  14.608  13.559
14630SOL    HW145787   4.472  14.574  13.649
14630SOL    HW245788   4.567  14.605  13.535
14631SOL     OW45789  12.155  12.729   4.891
14631SOL    HW145790  12.204  12.784   4.952
14631SOL    HW245791  12.189  12.640   4.906
14632SOL     OW45792   5.912   6.803  10.203
14632SOL    HW145793   5.907   6.834  10.294
14632SOL    HW245794   5.962   6.870  10.157
14633SOL     OW45795   4.068   9.452   8.534
14633SOL    HW145796   4.022   9.368   8.527
14633SOL    HW245797   4.149   9.440   8.485
14634SOL     OW45798  11.957   8.425   9.042
14634SOL    HW145799  11.927   8.375   8.966
14634SOL    HW245800  11.877   8.453   9.086
14635SOL     OW45801   2.228  11.000  13.566
14635SOL    HW145802   2.286  10.983  13.640
14635SOL    HW245803   2.141  11.010  13.605
14636SOL     OW45804   9.647  10.741  12.620
14636SOL    HW145805   9.679  10.689  12.693
14636SOL    HW245806   9.720  10.745  12.559
14637SOL     OW45807  11.502   2.816  13.642
14637SOL    HW145808  11.544   2.798  13.726
14637SOL    HW245809  11.546   2.760  13.580
14638SOL     OW45810   0.491  12.035  14.619
14638SOL    HW145811   0.473  11.945  14.593
14638SOL    HW245812   0.406  12.079  14.614
14639SOL     OW45813   2.143   4.431   7.246
14639SOL    HW145814   2.124   4.513   7.292
14639SOL    HW245815   2.058   4.390   7.233
14640SOL     OW45816   5.006   0.564  14.335
14640SOL    HW145817   4.922   0.561  14.380
14640SOL    HW245818   4.987   0.611  14.253
14641SOL     OW45819   5.207   7.624   3.908
14641SOL    HW145820   5.244   7.551   3.957
14641SOL    HW245821   5.113   7.621   3.928
14642SOL     OW45822  13.010  14.785  12.554
14642SOL    HW145823  13.025  14.805  12.646
14642SOL    HW245824  12.957  14.705  12.555
14643SOL     OW45825  11.580  13.118   7.607
14643SOL    HW145826  11.573  13.213   7.617
14643SOL    HW245827  11.517  13.097   7.538
14644SOL     OW45828  12.651  14.790  13.098
14644SOL    HW145829  12.688  14.728  13.035
14644SOL    HW245830  12.719  14.801  13.164
14645SOL     OW45831  10.845   9.542  13.091
14645SOL    HW145832  10.775   9.568  13.031
14645SOL    HW245833  10.878   9.459  13.056
14646SOL     OW45834  11.330   1.313   8.351
14646SOL    HW145835  11.379   1.395   8.362
14646SOL    HW245836  11.363   1.257   8.422
14647SOL     OW45837   0.154  13.812   7.335
14647SOL    HW145838   0.214  13.798   7.261
14647SOL    HW245839   0.175  13.742   7.396
14648SOL     OW45840  11.290   2.444   0.285
14648SOL    HW145841  11.261   2.382   0.351
14648SOL    HW245842  11.210   2.480   0.247
14649SOL     OW45843   4.055  10.009   1.354
14649SOL    HW145844   4.032  10.024   1.262
14649SOL    HW245845   4.144  10.043   1.361
14650SOL     OW45846   5.865  11.848   3.228
14650SOL    HW145847   5.824  11.896   3.300
14650SOL    HW245848   5.959  11.864   3.240
14651SOL     OW45849   5.311   1.264  10.110
14651SOL    HW145850   5.226   1.306  10.114
14651SOL    HW245851   5.343   1.264  10.200
14652SOL     OW45852   9.792   7.594   9.053
14652SOL    HW145853   9.768   7.629   8.967
14652SOL    HW245854   9.884   7.621   9.064
14653SOL     OW45855  10.421   4.820   3.928
14653SOL    HW145856  10.379   4.867   3.856
14653SOL    HW245857  10.381   4.857   4.007
14654SOL     OW45858   0.216   9.431  14.725
14654SOL    HW145859   0.280   9.441  14.796
14654SOL    HW245860   0.138   9.396  14.768
14655SOL     OW45861   9.874  10.259  10.221
14655SOL    HW145862   9.891  10.267  10.127
14655SOL    HW245863   9.922  10.181  10.248
14656SOL     OW45864   5.492   0.229  10.311
14656SOL    HW145865   5.504   0.324  10.310
14656SOL    HW245866   5.469   0.209  10.402
14657SOL     OW45867  12.274  11.160   7.682
14657SOL    HW145868  12.252  11.253   7.676
14657SOL    HW245869  12.236  11.131   7.765
14658SOL     OW45870  11.656  11.342   7.940
14658SOL    HW145871  11.626  11.393   8.015
14658SOL    HW245872  11.671  11.407   7.871
14659SOL     OW45873   3.245  10.041   2.068
14659SOL    HW145874   3.230   9.962   2.016
14659SOL    HW245875   3.163  10.054   2.116
14660SOL     OW45876   8.926  10.500   7.957
14660SOL    HW145877   8.873  10.515   8.035
14660SOL    HW245878   9.015  10.523   7.984
14661SOL     OW45879   9.140   2.757   4.403
14661SOL    HW145880   9.055   2.718   4.423
14661SOL    HW245881   9.187   2.755   4.486
14662SOL     OW45882   9.466  12.951   5.398
14662SOL    HW145883   9.560  12.946   5.381
14662SOL    HW245884   9.459  13.003   5.478
14663SOL     OW45885   9.118   4.111   4.866
14663SOL    HW145886   9.165   4.123   4.784
14663SOL    HW245887   9.164   4.167   4.929
14664SOL     OW45888  13.738   3.928   4.400
14664SOL    HW145889  13.791   3.868   4.453
14664SOL    HW245890  13.669   3.873   4.364
14665SOL     OW45891  14.811   7.489   6.562
14665SOL    HW145892  14.845   7.408   6.524
14665SOL    HW245893  14.784   7.542   6.486
14666SOL     OW45894   7.004   4.540   3.207
14666SOL    HW145895   7.020   4.490   3.126
14666SOL    HW245896   6.909   4.542   3.216
14667SOL     OW45897   5.471   4.369   7.468
14667SOL    HW145898   5.428   4.345   7.386
14667SOL    HW245899   5.410   4.430   7.510
14668SOL     OW45900   3.941   1.028   1.994
14668SOL    HW145901   3.896   1.042   2.077
14668SOL    HW245902   4.034   1.030   2.017
14669SOL     OW45903   9.322  11.976  12.564
14669SOL    HW145904   9.249  11.967  12.502
14669SOL    HW245905   9.391  12.019  12.514
14670SOL     OW45906   1.172   8.211   5.778
14670SOL    HW145907   1.100   8.254   5.730
14670SOL    HW245908   1.211   8.152   5.713
14671SOL     OW45909  14.037   8.267   3.690
14671SOL    HW145910  14.002   8.178   3.696
14671SOL    HW245911  13.985   8.318   3.753
14672SOL     OW45912   4.774   5.510  11.500
14672SOL    HW145913   4.861   5.548  11.511
14672SOL    HW245914   4.718   5.584  11.475
14673SOL     OW45915   2.181  10.078   6.079
14673SOL    HW145916   2.105  10.037   6.037
14673SOL    HW245917   2.255  10.022   6.055
14674SOL     OW45918   8.927  12.056  14.138
14674SOL    HW145919   8.856  12.120  14.149
14674SOL    HW245920   8.882  11.974  14.120
14675SOL     OW45921   9.830   1.873   8.133
14675SOL    HW145922   9.745   1.831   8.133
14675SOL    HW245923   9.819   1.950   8.189
14676SOL     OW45924   8.748   7.795   7.216
14676SOL    HW145925   8.704   7.748   7.145
14676SOL    HW245926   8.713   7.884   7.212
14677SOL     OW45927  11.870   2.160   0.538
14677SOL    HW145928  11.894   2.084   0.590
14677SOL    HW245929  11.859   2.126   0.449
14678SOL     OW45930  10.643  10.050   4.915
14678SOL    HW145931  10.590  10.075   4.839
14678SOL    HW245932  10.730  10.086   4.898
14679SOL     OW45933   7.514   5.217   1.963
14679SOL    HW145934   7.459   5.177   2.030
14679SOL    HW245935   7.463   5.292   1.932
14680SOL     OW45936   1.074   2.504   5.045
14680SOL    HW145937   1.040   2.535   4.961
14680SOL    HW245938   1.062   2.409   5.042
14681SOL     OW45939  10.130  11.209  11.927
14681SOL    HW145940  10.105  11.298  11.952
14681SOL    HW245941  10.224  11.205  11.946
14682SOL     OW45942   6.510   4.477  14.346
14682SOL    HW145943   6.444   4.428  14.299
14682SOL    HW245944   6.495   4.456  14.439
14683SOL     OW45945  13.870   0.906  10.062
14683SOL    HW145946  13.809   0.979  10.053
14683SOL    HW245947  13.956   0.946  10.054
14684SOL     OW45948   0.452  11.073   3.877
14684SOL    HW145949   0.370  11.042   3.839
14684SOL    HW245950   0.512  11.079   3.803
14685SOL     OW45951  12.511   8.773   9.250
14685SOL    HW145952  12.488   8.705   9.185
14685SOL    HW245953  12.531   8.724   9.330
14686SOL     OW45954   5.066   4.620   0.211
14686SOL    HW145955   5.045   4.693   0.269
14686SOL    HW245956   5.014   4.636   0.133
14687SOL     OW45957  13.759   4.184  12.146
14687SOL    HW145958  13.692   4.171  12.079
14687SOL    HW245959  13.722   4.249  12.206
14688SOL     OW45960   0.758   8.571   0.978
14688SOL    HW145961   0.835   8.584   1.033
14688SOL    HW245962   0.739   8.477   0.984
14689SOL     OW45963   4.280   1.981  11.585
14689SOL    HW145964   4.239   1.898  11.607
14689SOL    HW245965   4.347   1.959  11.520
14690SOL     OW45966   8.573   9.345   1.267
14690SOL    HW145967   8.542   9.390   1.345
14690SOL    HW245968   8.668   9.354   1.270
14691SOL     OW45969  10.105  12.203   3.928
14691SOL    HW145970  10.180  12.207   3.987
14691SOL    HW245971  10.138  12.233   3.843
14692SOL     OW45972  10.043  13.659   9.243
14692SOL    HW145973  10.029  13.620   9.329
14692SOL    HW245974  10.057  13.584   9.185
14693SOL     OW45975   5.056   9.242   1.837
14693SOL    HW145976   4.964   9.268   1.825
14693SOL    HW245977   5.068   9.169   1.777
14694SOL     OW45978   0.601   5.346   0.784
14694SOL    HW145979   0.634   5.428   0.748
14694SOL    HW245980   0.670   5.282   0.764
14695SOL     OW45981   7.605   7.030  14.399
14695SOL    HW145982   7.700   7.025  14.388
14695SOL    HW245983   7.592   7.103  14.459
14696SOL     OW45984   2.115   8.804   9.539
14696SOL    HW145985   2.022   8.814   9.561
14696SOL    HW245986   2.115   8.766   9.451
14697SOL     OW45987   8.806   1.784  14.692
14697SOL    HW145988   8.740   1.785  14.623
14697SOL    HW245989   8.805   1.694  14.725
14698SOL     OW45990  14.451   2.722  11.274
14698SOL    HW145991  14.476   2.702  11.184
14698SOL    HW245992  14.368   2.769  11.267
14699SOL     OW45993  14.178  11.111   3.874
14699SOL    HW145994  14.218  11.042   3.928
14699SOL    HW245995  14.225  11.190   3.900
14700SOL     OW45996   6.749   9.652  10.191
14700SOL    HW145997   6.690   9.614  10.125
14700SOL    HW245998   6.788   9.576  10.234
14701SOL     OW45999   6.045   9.939   0.668
14701SOL    HW146000   5.983   9.878   0.710
14701SOL    HW246001   6.097   9.883   0.610
14702SOL     OW46002  11.459  14.144   7.493
14702SOL    HW146003  11.534  14.151   7.553
14702SOL    HW246004  11.498  14.143   7.406
14703SOL     OW46005  11.016   3.220  12.208
14703SOL    HW146006  10.995   3.300  12.257
14703SOL    HW246007  10.981   3.235  12.121
14704SOL     OW46008   8.358   5.834  11.629
14704SOL    HW146009   8.351   5.858  11.537
14704SOL    HW246010   8.314   5.905  11.677
14705SOL     OW46011  12.022   4.814   0.919
14705SOL    HW146012  11.949   4.752   0.932
14705SOL    HW246013  11.980   4.895   0.890
14706SOL     OW46014   9.705   8.044   1.426
14706SOL    HW146015   9.653   7.966   1.442
14706SOL    HW246016   9.784   8.013   1.382
14707SOL     OW46017  10.649   6.766   9.571
14707SOL    HW146018  10.671   6.839   9.514
14707SOL    HW246019  10.608   6.806   9.648
14708SOL     OW46020  13.800   9.051   0.912
14708SOL    HW146021  13.737   9.003   0.967
14708SOL    HW246022  13.745   9.098   0.849
14709SOL     OW46023  11.253   9.930   5.387
14709SOL    HW146024  11.233   9.943   5.480
14709SOL    HW246025  11.319   9.997   5.367
14710SOL     OW46026   5.922  13.072   4.615
14710SOL    HW146027   5.957  13.059   4.704
14710SOL    HW246028   5.855  13.004   4.606
14711SOL     OW46029  12.558   6.605   4.030
14711SOL    HW146030  12.471   6.597   4.069
14711SOL    HW246031  12.595   6.518   4.037
14712SOL     OW46032   6.709   0.461   7.445
14712SOL    HW146033   6.725   0.546   7.403
14712SOL    HW246034   6.755   0.398   7.390
14713SOL     OW46035   5.047   5.181   4.931
14713SOL    HW146036   5.033   5.149   4.842
14713SOL    HW246037   5.043   5.277   4.923
14714SOL     OW46038  12.051  10.966   0.991
14714SOL    HW146039  12.111  10.929   0.926
14714SOL    HW246040  11.966  10.967   0.947
14715SOL     OW46041  14.810  11.531   6.630
14715SOL    HW146042  14.740  11.569   6.576
14715SOL    HW246043   0.007  11.525   6.571
14716SOL     OW46044   3.104   7.400   7.609
14716SOL    HW146045   3.110   7.389   7.514
14716SOL    HW246046   3.024   7.355   7.633
14717SOL     OW46047  14.729  14.046  10.307
14717SOL    HW146048  14.748  14.138  10.327
14717SOL    HW246049  14.779  14.028  10.227
14718SOL     OW46050   2.575   3.742  13.425
14718SOL    HW146051   2.575   3.655  13.387
14718SOL    HW246052   2.664   3.775  13.411
14719SOL     OW46053   0.406  12.875   0.134
14719SOL    HW146054   0.485  12.920   0.104
14719SOL    HW246055   0.436  12.820   0.206
14720SOL     OW46056  14.503  12.044   3.549
14720SOL    HW146057  14.409  12.062   3.552
14720SOL    HW246058  14.543  12.131   3.539
14721SOL     OW46059   3.930  10.549   0.737
14721SOL    HW146060   3.957  10.490   0.668
14721SOL    HW246061   3.839  10.570   0.717
14722SOL     OW46062   4.150  12.185  14.550
14722SOL    HW146063   4.099  12.235  14.614
14722SOL    HW246064   4.088  12.120  14.517
14723SOL     OW46065   0.372   8.666   1.080
14723SOL    HW146066   0.447   8.723   1.063
14723SOL    HW246067   0.368   8.608   1.004
14724SOL     OW46068  13.155   5.461   4.132
14724SOL    HW146069  13.251   5.456   4.137
14724SOL    HW246070  13.125   5.440   4.221
14725SOL     OW46071  12.790   9.689   0.124
14725SOL    HW146072  12.877   9.661   0.096
14725SOL    HW246073  12.753   9.613   0.169
14726SOL     OW46074   6.680   3.323   0.096
14726SOL    HW146075   6.593   3.291   0.119
14726SOL    HW246076   6.740   3.266   0.144
14727SOL     OW46077   2.040   2.369   0.021
14727SOL    HW146078   1.992   2.452   0.013
14727SOL    HW246079   2.008   2.331   0.103
14728SOL     OW46080   2.717  13.624   6.170
14728SOL    HW146081   2.630  13.586   6.183
14728SOL    HW246082   2.759  13.565   6.107
14729SOL     OW46083  11.871   2.189   2.378
14729SOL    HW146084  11.885   2.284   2.387
14729SOL    HW246085  11.850   2.160   2.466
14730SOL     OW46086   8.199   0.732   4.928
14730SOL    HW146087   8.129   0.676   4.961
14730SOL    HW246088   8.156   0.786   4.862
14731SOL     OW46089   2.531   1.064   8.564
14731SOL    HW146090   2.617   1.086   8.531
14731SOL    HW246091   2.478   1.049   8.486
14732SOL     OW46092   8.861  11.557   9.750
14732SOL    HW146093   8.814  11.482   9.713
14732SOL    HW246094   8.859  11.543   9.844
14733SOL     OW46095   4.964   1.196   7.928
14733SOL    HW146096   4.905   1.268   7.944
14733SOL    HW246097   4.968   1.188   7.832
14734SOL     OW46098  11.803  12.539  13.599
14734SOL    HW146099  11.882  12.593  13.604
14734SOL    HW246100  11.753  12.562  13.677
14735SOL     OW46101   9.802  11.007  12.487
14735SOL    HW146102   9.727  11.052  12.450
14735SOL    HW246103   9.878  11.048  12.445
14736SOL     OW46104  13.938   3.805   8.746
14736SOL    HW146105  13.950   3.758   8.663
14736SOL    HW246106  13.950   3.738   8.813
14737SOL     OW46107   4.326   6.308  13.397
14737SOL    HW146108   4.420   6.328  13.393
14737SOL    HW246109   4.302   6.286  13.307
14738SOL     OW46110  11.257   1.748   9.911
14738SOL    HW146111  11.279   1.695   9.834
14738SOL    HW246112  11.245   1.837   9.877
14739SOL     OW46113   3.154   7.844   9.184
14739SOL    HW146114   3.112   7.875   9.264
14739SOL    HW246115   3.082   7.830   9.123
14740SOL     OW46116   5.169   8.855   8.202
14740SOL    HW146117   5.198   8.766   8.182
14740SOL    HW246118   5.184   8.865   8.296
14741SOL     OW46119   9.471   1.644  11.175
14741SOL    HW146120   9.435   1.711  11.117
14741SOL    HW246121   9.408   1.572  11.171
14742SOL     OW46122   8.766   7.470  10.736
14742SOL    HW146123   8.724   7.489  10.652
14742SOL    HW246124   8.702   7.417  10.784
14743SOL     OW46125   4.272   8.763   2.841
14743SOL    HW146126   4.219   8.685   2.824
14743SOL    HW246127   4.242   8.794   2.926
14744SOL     OW46128  11.176   5.972  10.144
14744SOL    HW146129  11.163   6.024  10.065
14744SOL    HW246130  11.124   5.893  10.129
14745SOL     OW46131   9.611  14.200  11.213
14745SOL    HW146132   9.520  14.222  11.190
14745SOL    HW246133   9.659  14.283  11.204
14746SOL     OW46134   9.876   4.357   6.604
14746SOL    HW146135   9.817   4.292   6.567
14746SOL    HW246136   9.926   4.389   6.528
14747SOL     OW46137   6.519   7.082   8.622
14747SOL    HW146138   6.424   7.067   8.621
14747SOL    HW246139   6.555   7.006   8.667
14748SOL     OW46140   8.506   3.067  14.349
14748SOL    HW146141   8.469   3.081  14.262
14748SOL    HW246142   8.472   2.982  14.377
14749SOL     OW46143   6.457  14.561   0.914
14749SOL    HW146144   6.366  14.534   0.901
14749SOL    HW246145   6.455  14.656   0.905
14750SOL     OW46146  12.304   3.095  12.343
14750SOL    HW146147  12.311   3.136  12.429
14750SOL    HW246148  12.253   3.157  12.291
14751SOL     OW46149   8.969   6.987   8.219
14751SOL    HW146150   8.946   6.908   8.268
14751SOL    HW246151   9.014   6.954   8.141
14752SOL     OW46152   6.198  12.604  14.672
14752SOL    HW146153   6.150  12.681  14.644
14752SOL    HW246154   6.172  12.591  14.763
14753SOL     OW46155   6.513   4.760  11.772
14753SOL    HW146156   6.532   4.705  11.848
14753SOL    HW246157   6.473   4.839  11.809
14754SOL     OW46158   8.041   9.201   2.387
14754SOL    HW146159   8.134   9.199   2.368
14754SOL    HW246160   8.035   9.215   2.481
14755SOL     OW46161   2.432   4.309   0.983
14755SOL    HW146162   2.394   4.393   0.959
14755SOL    HW246163   2.521   4.312   0.948
14756SOL     OW46164   7.818   0.317   7.604
14756SOL    HW146165   7.806   0.326   7.510
14756SOL    HW246166   7.799   0.405   7.639
14757SOL     OW46167  10.709   0.860  11.764
14757SOL    HW146168  10.788   0.830  11.719
14757SOL    HW246169  10.721   0.832  11.854
14758SOL     OW46170   2.095   3.448   8.444
14758SOL    HW146171   2.132   3.384   8.503
14758SOL    HW246172   2.130   3.425   8.358
14759SOL     OW46173   3.884   2.215  12.207
14759SOL    HW146174   3.974   2.197  12.231
14759SOL    HW246175   3.852   2.133  12.169
14760SOL     OW46176   8.112   4.863   9.849
14760SOL    HW146177   8.033   4.811   9.860
14760SOL    HW246178   8.151   4.832   9.767
14761SOL     OW46179   9.986   1.237  11.998
14761SOL    HW146180  10.041   1.175  12.045
14761SOL    HW246181   9.897   1.203  12.007
14762SOL     OW46182   5.434   5.026   9.829
14762SOL    HW146183   5.352   4.985   9.801
14762SOL    HW246184   5.487   5.030   9.749
14763SOL     OW46185   0.501   8.643   9.880
14763SOL    HW146186   0.412   8.614   9.862
14763SOL    HW246187   0.553   8.563   9.879
14764SOL     OW46188   0.455   2.247   4.774
14764SOL    HW146189   0.376   2.217   4.820
14764SOL    HW246190   0.514   2.172   4.778
14765SOL     OW46191  12.699  13.431   4.304
14765SOL    HW146192  12.743  13.512   4.331
14765SOL    HW246193  12.615  13.461   4.269
14766SOL     OW46194   1.824   9.463  12.751
14766SOL    HW146195   1.739   9.432  12.783
14766SOL    HW246196   1.886   9.440  12.820
14767SOL     OW46197   3.087   5.014  11.239
14767SOL    HW146198   3.051   4.937  11.195
14767SOL    HW246199   3.088   4.990  11.332
14768SOL     OW46200  13.377   5.951   3.136
14768SOL    HW146201  13.309   5.890   3.162
14768SOL    HW246202  13.455   5.923   3.184
14769SOL     OW46203   5.018   6.644   2.149
14769SOL    HW146204   4.956   6.700   2.104
14769SOL    HW246205   4.966   6.569   2.179
14770SOL     OW46206   5.681  14.565   6.566
14770SOL    HW146207   5.589  14.544   6.585
14770SOL    HW246208   5.678  14.614   6.484
14771SOL     OW46209   8.265  11.840  11.105
14771SOL    HW146210   8.346  11.792  11.088
14771SOL    HW246211   8.273  11.870  11.196
14772SOL     OW46212  10.794   5.875   4.771
14772SOL    HW146213  10.772   5.929   4.695
14772SOL    HW246214  10.794   5.937   4.845
14773SOL     OW46215   2.221   6.863  14.275
14773SOL    HW146216   2.151   6.812  14.316
14773SOL    HW246217   2.176   6.925  14.217
14774SOL     OW46218  10.265   0.566  14.446
14774SOL    HW146219  10.357   0.552  14.466
14774SOL    HW246220  10.265   0.639  14.383
14775SOL     OW46221   1.946   2.934   5.465
14775SOL    HW146222   1.992   2.909   5.546
14775SOL    HW246223   1.997   2.893   5.395
14776SOL     OW46224   3.825   4.549  14.524
14776SOL    HW146225   3.862   4.637  14.521
14776SOL    HW246226   3.740   4.559  14.567
14777SOL     OW46227   8.546   2.873  10.289
14777SOL    HW146228   8.463   2.825  10.291
14777SOL    HW246229   8.602   2.828  10.353
14778SOL     OW46230   6.006   5.666   7.467
14778SOL    HW146231   5.922   5.688   7.508
14778SOL    HW246232   6.045   5.750   7.446
14779SOL     OW46233  13.157   9.622   3.577
14779SOL    HW146234  13.248   9.640   3.600
14779SOL    HW246235  13.114   9.707   3.583
14780SOL     OW46236   8.441   7.278   3.039
14780SOL    HW146237   8.479   7.217   2.977
14780SOL    HW246238   8.447   7.363   2.996
14781SOL     OW46239  12.643  10.225  12.587
14781SOL    HW146240  12.607  10.253  12.671
14781SOL    HW246241  12.649  10.305  12.535
14782SOL     OW46242   5.406   4.092   4.686
14782SOL    HW146243   5.482   4.086   4.744
14782SOL    HW246244   5.360   4.009   4.698
14783SOL     OW46245  11.929   2.792   1.872
14783SOL    HW146246  12.006   2.765   1.921
14783SOL    HW246247  11.924   2.729   1.800
14784SOL     OW46248   4.212   7.593  10.633
14784SOL    HW146249   4.292   7.578  10.683
14784SOL    HW246250   4.191   7.686  10.649
14785SOL     OW46251   0.635  11.492   7.857
14785SOL    HW146252   0.568  11.448   7.805
14785SOL    HW246253   0.593  11.510   7.941
14786SOL     OW46254   4.545  12.900   4.629
14786SOL    HW146255   4.484  12.838   4.671
14786SOL    HW246256   4.501  12.926   4.548
14787SOL     OW46257   3.559   5.052   3.522
14787SOL    HW146258   3.643   5.019   3.552
14787SOL    HW246259   3.513   5.077   3.602
14788SOL     OW46260   3.933  13.647   0.826
14788SOL    HW146261   3.881  13.619   0.901
14788SOL    HW246262   3.978  13.568   0.797
14789SOL     OW46263   6.493   9.083   1.503
14789SOL    HW146264   6.482   9.177   1.512
14789SOL    HW246265   6.484   9.049   1.592
14790SOL     OW46266   6.006   7.794   4.218
14790SOL    HW146267   6.032   7.836   4.299
14790SOL    HW246268   5.919   7.828   4.199
14791SOL     OW46269   2.256   1.208   7.995
14791SOL    HW146270   2.327   1.144   7.990
14791SOL    HW246271   2.299   1.293   7.990
14792SOL     OW46272  13.345  13.206   1.680
14792SOL    HW146273  13.263  13.251   1.697
14792SOL    HW246274  13.319  13.116   1.661
14793SOL     OW46275   0.475  14.341   6.073
14793SOL    HW146276   0.569  14.326   6.085
14793SOL    HW246277   0.433  14.288   6.141
14794SOL     OW46278   2.141  14.564  11.187
14794SOL    HW146279   2.193  14.520  11.119
14794SOL    HW246280   2.063  14.594  11.141
14795SOL     OW46281   9.015   9.690   7.197
14795SOL    HW146282   8.947   9.744   7.158
14795SOL    HW246283   9.056   9.747   7.262
14796SOL     OW46284   5.921   7.772  11.383
14796SOL    HW146285   5.985   7.716  11.340
14796SOL    HW246286   5.860   7.797  11.313
14797SOL     OW46287  12.558   5.129   3.307
14797SOL    HW146288  12.481   5.073   3.305
14797SOL    HW246289  12.616   5.088   3.372
14798SOL     OW46290   1.214  14.610   3.865
14798SOL    HW146291   1.184  14.693   3.828
14798SOL    HW246292   1.309  14.614   3.859
14799SOL     OW46293  12.900   2.060   9.709
14799SOL    HW146294  12.818   2.106   9.725
14799SOL    HW246295  12.965   2.108   9.761
14800SOL     OW46296   4.132   2.871  14.038
14800SOL    HW146297   4.073   2.842  13.968
14800SOL    HW246298   4.111   2.816  14.113
14801SOL     OW46299   5.226  12.785   7.553
14801SOL    HW146300   5.232  12.785   7.649
14801SOL    HW246301   5.231  12.692   7.529
14802SOL     OW46302   5.031  12.005   9.685
14802SOL    HW146303   5.015  12.099   9.676
14802SOL    HW246304   5.046  11.991   9.778
14803SOL     OW46305   0.380   5.837  11.780
14803SOL    HW146306   0.389   5.902  11.711
14803SOL    HW246307   0.364   5.889  11.859
14804SOL     OW46308   5.829  14.325   2.772
14804SOL    HW146309   5.824  14.233   2.798
14804SOL    HW246310   5.921  14.348   2.787
14805SOL     OW46311  11.117   7.608   6.367
14805SOL    HW146312  11.174   7.675   6.329
14805SOL    HW246313  11.083   7.649   6.446
14806SOL     OW46314  14.803   1.525   5.753
14806SOL    HW146315  14.866   1.496   5.818
14806SOL    HW246316  14.720   1.484   5.779
14807SOL     OW46317   3.632  11.305  14.686
14807SOL    HW146318   3.575  11.356  14.744
14807SOL    HW246319   3.618  11.344  14.599
14808SOL     OW46320   5.495  12.468   1.763
14808SOL    HW146321   5.526  12.535   1.702
14808SOL    HW246322   5.569  12.452   1.821
14809SOL     OW46323   7.500   5.966  11.763
14809SOL    HW146324   7.510   5.885  11.713
14809SOL    HW246325   7.524   6.036  11.701
14810SOL     OW46326   9.565   0.543  11.038
14810SOL    HW146327   9.649   0.587  11.045
14810SOL    HW246328   9.501   0.610  11.061
14811SOL     OW46329   7.774   1.263   9.598
14811SOL    HW146330   7.856   1.230   9.633
14811SOL    HW246331   7.733   1.309   9.671
14812SOL     OW46332   3.754  13.105   7.420
14812SOL    HW146333   3.663  13.135   7.418
14812SOL    HW246334   3.805  13.184   7.438
14813SOL     OW46335   6.703   9.679  12.514
14813SOL    HW146336   6.642   9.676  12.440
14813SOL    HW246337   6.647   9.666  12.591
14814SOL     OW46338  13.512  13.966  13.274
14814SOL    HW146339  13.586  13.920  13.313
14814SOL    HW246340  13.439  13.947  13.333
14815SOL     OW46341  12.078   0.613   7.449
14815SOL    HW146342  12.091   0.708   7.451
14815SOL    HW246343  12.110   0.583   7.534
14816SOL     OW46344  10.382   4.299  12.557
14816SOL    HW146345  10.455   4.307  12.496
14816SOL    HW246346  10.372   4.205  12.572
14817SOL     OW46347  14.499  11.614  13.065
14817SOL    HW146348  14.517  11.594  13.157
14817SOL    HW246349  14.551  11.551  13.015
14818SOL     OW46350   0.010  14.117   9.417
14818SOL    HW146351  14.816  14.095   9.358
14818SOL    HW246352   0.087  14.122   9.361
14819SOL     OW46353   8.319   4.932   6.448
14819SOL    HW146354   8.337   4.970   6.363
14819SOL    HW246355   8.362   4.846   6.446
14820SOL     OW46356   9.381   1.311   3.473
14820SOL    HW146357   9.434   1.390   3.457
14820SOL    HW246358   9.293   1.335   3.445
14821SOL     OW46359   2.651   6.651   2.529
14821SOL    HW146360   2.652   6.586   2.459
14821SOL    HW246361   2.672   6.601   2.608
14822SOL     OW46362   6.987   9.912   9.336
14822SOL    HW146363   6.917   9.852   9.359
14822SOL    HW246364   6.962   9.947   9.250
14823SOL     OW46365   2.172   5.273   0.563
14823SOL    HW146366   2.152   5.179   0.564
14823SOL    HW246367   2.190   5.292   0.471
14824SOL     OW46368  14.049   8.933  10.419
14824SOL    HW146369  14.132   8.928  10.373
14824SOL    HW246370  14.072   8.954  10.510
14825SOL     OW46371   9.943  11.006  11.887
14825SOL    HW146372   9.860  11.015  11.934
14825SOL    HW246373   9.994  11.083  11.914
14826SOL     OW46374   5.165   8.128   0.741
14826SOL    HW146375   5.167   8.210   0.791
14826SOL    HW246376   5.078   8.125   0.702
14827SOL     OW46377   8.482   9.852   9.661
14827SOL    HW146378   8.430   9.793   9.715
14827SOL    HW246379   8.471   9.819   9.572
14828SOL     OW46380   2.838   2.673   1.594
14828SOL    HW146381   2.790   2.642   1.517
14828SOL    HW246382   2.926   2.638   1.583
14829SOL     OW46383   2.584   1.142   3.460
14829SOL    HW146384   2.527   1.182   3.527
14829SOL    HW246385   2.614   1.217   3.408
14830SOL     OW46386  14.114  13.061   3.756
14830SOL    HW146387  14.097  13.155   3.753
14830SOL    HW246388  14.049  13.027   3.817
14831SOL     OW46389  11.939  11.167  13.360
14831SOL    HW146390  11.887  11.089  13.340
14831SOL    HW246391  11.874  11.236  13.377
14832SOL     OW46392  11.783   3.927  14.613
14832SOL    HW146393  11.859   3.906  14.668
14832SOL    HW246394  11.707   3.910  14.669
14833SOL     OW46395  10.731   3.626  12.711
14833SOL    HW146396  10.826   3.637  12.720
14833SOL    HW246397  10.722   3.544  12.662
14834SOL     OW46398  13.528   7.491   9.802
14834SOL    HW146399  13.521   7.507   9.897
14834SOL    HW246400  13.473   7.414   9.786
14835SOL     OW46401  12.357   1.674   0.631
14835SOL    HW146402  12.362   1.609   0.701
14835SOL    HW246403  12.401   1.751   0.668
14836SOL     OW46404   0.159  13.366   3.440
14836SOL    HW146405   0.242  13.366   3.489
14836SOL    HW246406   0.107  13.298   3.482
14837SOL     OW46407   8.413   2.289  13.803
14837SOL    HW146408   8.405   2.210  13.749
14837SOL    HW246409   8.499   2.280  13.845
14838SOL     OW46410  11.229   8.250   8.510
14838SOL    HW146411  11.180   8.167   8.510
14838SOL    HW246412  11.245   8.267   8.417
14839SOL     OW46413   0.089  11.302   8.664
14839SOL    HW146414   0.051  11.258   8.740
14839SOL    HW246415   0.040  11.384   8.657
14840SOL     OW46416  12.295   4.535   2.983
14840SOL    HW146417  12.245   4.484   3.047
14840SOL    HW246418  12.386   4.514   3.001
14841SOL     OW46419  14.247  11.795  12.057
14841SOL    HW146420  14.168  11.827  12.013
14841SOL    HW246421  14.220  11.780  12.148
14842SOL     OW46422   2.940   9.102   9.096
14842SOL    HW146423   3.026   9.089   9.137
14842SOL    HW246424   2.917   9.016   9.060
14843SOL     OW46425   4.200   8.743  13.000
14843SOL    HW146426   4.142   8.806  13.042
14843SOL    HW246427   4.181   8.660  13.044
14844SOL     OW46428   0.345   7.211  14.601
14844SOL    HW146429   0.417   7.192  14.541
14844SOL    HW246430   0.329   7.305  14.592
14845SOL     OW46431   3.870   9.775   8.169
14845SOL    HW146432   3.920   9.856   8.159
14845SOL    HW246433   3.934   9.710   8.200
14846SOL     OW46434  10.121  13.719   7.274
14846SOL    HW146435  10.153  13.737   7.362
14846SOL    HW246436  10.032  13.756   7.273
14847SOL     OW46437   9.540   7.089   3.267
14847SOL    HW146438   9.627   7.060   3.295
14847SOL    HW246439   9.526   7.045   3.183
14848SOL     OW46440   6.960  11.282  11.811
14848SOL    HW146441   6.897  11.238  11.868
14848SOL    HW246442   7.027  11.216  11.793
14849SOL     OW46443   2.972   3.128  10.547
14849SOL    HW146444   2.985   3.111  10.641
14849SOL    HW246445   3.014   3.212  10.533
14850SOL     OW46446   5.084  11.617   5.811
14850SOL    HW146447   5.028  11.694   5.807
14850SOL    HW246448   5.170  11.652   5.835
14851SOL     OW46449   8.497   2.852  11.416
14851SOL    HW146450   8.510   2.794  11.491
14851SOL    HW246451   8.454   2.798  11.350
14852SOL     OW46452   0.247  10.965  12.083
14852SOL    HW146453   0.308  10.986  12.154
14852SOL    HW246454   0.300  10.917  12.019
14853SOL     OW46455   0.600   9.147  11.693
14853SOL    HW146456   0.641   9.079  11.639
14853SOL    HW246457   0.552   9.099  11.760
14854SOL     OW46458  13.014   7.986  12.133
14854SOL    HW146459  12.993   7.926  12.205
14854SOL    HW246460  13.033   8.069  12.176
14855SOL     OW46461   8.811   5.888  12.470
14855SOL    HW146462   8.755   5.820  12.433
14855SOL    HW246463   8.766   5.916  12.549
14856SOL     OW46464  11.376  11.780   9.238
14856SOL    HW146465  11.420  11.717   9.295
14856SOL    HW246466  11.336  11.843   9.298
14857SOL     OW46467   8.640   9.172   4.016
14857SOL    HW146468   8.590   9.252   4.035
14857SOL    HW246469   8.730   9.194   4.038
14858SOL     OW46470   1.311  11.848   9.019
14858SOL    HW146471   1.270  11.916   9.073
14858SOL    HW246472   1.265  11.768   9.042
14859SOL     OW46473  10.692   7.364   4.366
14859SOL    HW146474  10.610   7.329   4.331
14859SOL    HW246475  10.664   7.432   4.428
14860SOL     OW46476   5.062   1.753   5.931
14860SOL    HW146477   5.081   1.812   6.004
14860SOL    HW246478   4.991   1.698   5.963
14861SOL     OW46479   6.722   3.768  11.786
14861SOL    HW146480   6.672   3.691  11.760
14861SOL    HW246481   6.813   3.748  11.762
14862SOL     OW46482   3.967  10.560  12.426
14862SOL    HW146483   4.049  10.512  12.441
14862SOL    HW246484   3.962  10.568  12.330
14863SOL     OW46485   3.287   3.468  12.342
14863SOL    HW146486   3.322   3.552  12.313
14863SOL    HW246487   3.324   3.405  12.280
14864SOL     OW46488  14.588  10.770  10.277
14864SOL    HW146489  14.616  10.698  10.333
14864SOL    HW246490  14.669  10.801  10.235
14865SOL     OW46491  10.814  13.921  13.870
14865SOL    HW146492  10.795  13.870  13.792
14865SOL    HW246493  10.848  14.004  13.837
14866SOL     OW46494  14.312   7.798   1.965
14866SOL    HW146495  14.256   7.730   1.926
14866SOL    HW246496  14.254   7.845   2.025
14867SOL     OW46497   4.009  10.616   3.093
14867SOL    HW146498   3.969  10.609   3.179
14867SOL    HW246499   4.078  10.550   3.093
14868SOL     OW46500   0.127  13.753  13.417
14868SOL    HW146501   0.051  13.694  13.419
14868SOL    HW246502   0.090  13.838  13.393
14869SOL     OW46503  12.538   4.478   8.536
14869SOL    HW146504  12.629   4.452   8.520
14869SOL    HW246505  12.488   4.430   8.470
14870SOL     OW46506   5.434  11.492  14.729
14870SOL    HW146507   5.485  11.437  14.669
14870SOL    HW246508   5.485  11.493  14.810
14871SOL     OW46509   7.470   0.644   0.360
14871SOL    HW146510   7.501   0.553   0.361
14871SOL    HW246511   7.375   0.637   0.354
14872SOL     OW46512   2.914   1.437  12.186
14872SOL    HW146513   2.886   1.527  12.206
14872SOL    HW246514   2.837   1.384  12.206
14873SOL     OW46515   2.723   8.146   3.622
14873SOL    HW146516   2.724   8.232   3.663
14873SOL    HW246517   2.630   8.121   3.619
14874SOL     OW46518  14.567  10.787   8.167
14874SOL    HW146519  14.513  10.812   8.092
14874SOL    HW246520  14.652  10.825   8.148
14875SOL     OW46521   2.169   8.030   4.970
14875SOL    HW146522   2.094   7.997   4.919
14875SOL    HW246523   2.200   8.105   4.920
14876SOL     OW46524  13.108   8.561  14.208
14876SOL    HW146525  13.118   8.656  14.212
14876SOL    HW246526  13.015   8.546  14.226
14877SOL     OW46527  11.421   0.039   8.522
14877SOL    HW146528  11.331   0.054   8.495
14877SOL    HW246529  11.417  14.841   8.581
14878SOL     OW46530  10.677   3.836   7.336
14878SOL    HW146531  10.722   3.752   7.343
14878SOL    HW246532  10.745   3.902   7.349
14879SOL     OW46533   5.673  11.677  13.986
14879SOL    HW146534   5.581  11.702  13.988
14879SOL    HW246535   5.693  11.664  13.893
14880SOL     OW46536   2.416   3.774  11.232
14880SOL    HW146537   2.470   3.853  11.230
14880SOL    HW246538   2.465   3.711  11.179
14881SOL     OW46539   0.170   0.285   7.134
14881SOL    HW146540   0.256   0.300   7.095
14881SOL    HW246541   0.184   0.218   7.200
14882SOL     OW46542  14.671   4.255  10.512
14882SOL    HW146543  14.602   4.230  10.450
14882SOL    HW246544  14.649   4.206  10.592
14883SOL     OW46545   4.861  14.233  10.931
14883SOL    HW146546   4.937  14.177  10.950
14883SOL    HW246547   4.894  14.322  10.938
14884SOL     OW46548  10.735   6.193   7.165
14884SOL    HW146549  10.655   6.145   7.144
14884SOL    HW246550  10.732   6.271   7.109
14885SOL     OW46551   9.856   1.960   6.704
14885SOL    HW146552   9.904   2.007   6.635
14885SOL    HW246553   9.810   1.890   6.658
14886SOL     OW46554   7.678  10.935   3.280
14886SOL    HW146555   7.612  10.911   3.346
14886SOL    HW246556   7.662  11.028   3.264
14887SOL     OW46557   2.642   3.822   0.939
14887SOL    HW146558   2.550   3.847   0.930
14887SOL    HW246559   2.667   3.854   1.025
14888SOL     OW46560   5.891   5.983   0.091
14888SOL    HW146561   5.961   6.041   0.061
14888SOL    HW246562   5.916   5.961   0.181
14889SOL     OW46563   1.933  12.417  14.873
14889SOL    HW146564   1.926  12.334   0.044
14889SOL    HW246565   1.859  12.469   0.026
14890SOL     OW46566   3.330  10.187   9.705
14890SOL    HW146567   3.404  10.128   9.722
14890SOL    HW246568   3.277  10.183   9.784
14891SOL     OW46569   7.332  12.736   9.813
14891SOL    HW146570   7.309  12.773   9.898
14891SOL    HW246571   7.288  12.651   9.810
14892SOL     OW46572   5.103   2.605  13.565
14892SOL    HW146573   5.157   2.580  13.490
14892SOL    HW246574   5.075   2.521  13.602
14893SOL     OW46575  12.646   0.295   7.767
14893SOL    HW146576  12.551   0.307   7.767
14893SOL    HW246577  12.679   0.363   7.826
14894SOL     OW46578  13.997   8.484   7.383
14894SOL    HW146579  13.977   8.397   7.417
14894SOL    HW246580  14.043   8.467   7.301
14895SOL     OW46581   3.811   4.436   0.073
14895SOL    HW146582   3.881   4.442   0.008
14895SOL    HW246583   3.856   4.418   0.155
14896SOL     OW46584   9.880  13.727   1.580
14896SOL    HW146585   9.891  13.732   1.485
14896SOL    HW246586   9.789  13.701   1.592
14897SOL     OW46587   9.588   9.467   9.380
14897SOL    HW146588   9.628   9.448   9.295
14897SOL    HW246589   9.548   9.384   9.406
14898SOL     OW46590   0.371   3.682  14.586
14898SOL    HW146591   0.387   3.747  14.518
14898SOL    HW246592   0.448   3.687  14.642
14899SOL     OW46593   4.926   9.833  12.110
14899SOL    HW146594   5.020   9.837  12.092
14899SOL    HW246595   4.885   9.874  12.033
14900SOL     OW46596   7.616  14.480   1.383
14900SOL    HW146597   7.532  14.516   1.410
14900SOL    HW246598   7.678  14.509   1.450
14901SOL     OW46599  14.611  12.092  13.899
14901SOL    HW146600  14.562  12.172  13.920
14901SOL    HW246601  14.691  12.123  13.857
14902SOL     OW46602   6.182   8.236   4.133
14902SOL    HW146603   6.107   8.279   4.174
14902SOL    HW246604   6.253   8.299   4.139
14903SOL     OW46605  14.454   5.696   3.828
14903SOL    HW146606  14.500   5.736   3.754
14903SOL    HW246607  14.522   5.645   3.873
14904SOL     OW46608  14.500   6.576   7.691
14904SOL    HW146609  14.449   6.628   7.752
14904SOL    HW246610  14.531   6.639   7.625
14905SOL     OW46611   5.309   1.582  12.051
14905SOL    HW146612   5.228   1.595  12.101
14905SOL    HW246613   5.288   1.512  11.989
14906SOL     OW46614   3.622  12.239   5.162
14906SOL    HW146615   3.569  12.308   5.201
14906SOL    HW246616   3.664  12.282   5.087
14907SOL     OW46617   1.448  11.803  13.565
14907SOL    HW146618   1.421  11.726  13.516
14907SOL    HW246619   1.384  11.870  13.542
14908SOL     OW46620   6.168   1.840   9.558
14908SOL    HW146621   6.234   1.779   9.523
14908SOL    HW246622   6.087   1.789   9.560
14909SOL     OW46623  12.423  14.850  10.889
14909SOL    HW146624  12.473  14.768  10.882
14909SOL    HW246625  12.408  14.862  10.982
14910SOL     OW46626  13.123   3.858   2.428
14910SOL    HW146627  13.122   3.934   2.486
14910SOL    HW246628  13.160   3.891   2.346
14911SOL     OW46629  10.453   7.253  14.662
14911SOL    HW146630  10.358   7.253  14.675
14911SOL    HW246631  10.489   7.275  14.749
14912SOL     OW46632   3.890   8.527   6.880
14912SOL    HW146633   3.923   8.533   6.969
14912SOL    HW246634   3.943   8.588   6.830
14913SOL     OW46635   7.079   8.525   2.669
14913SOL    HW146636   7.088   8.562   2.581
14913SOL    HW246637   7.063   8.601   2.725
14914SOL     OW46638  10.656  11.555   1.579
14914SOL    HW146639  10.740  11.535   1.537
14914SOL    HW246640  10.597  11.572   1.506
14915SOL     OW46641   6.719  11.275  10.070
14915SOL    HW146642   6.792  11.224  10.106
14915SOL    HW246643   6.754  11.310   9.987
14916SOL     OW46644  11.971   6.973  14.379
14916SOL    HW146645  12.011   7.053  14.416
14916SOL    HW246646  11.882   6.973  14.414
14917SOL     OW46647   7.547   2.850  10.631
14917SOL    HW146648   7.564   2.864  10.538
14917SOL    HW246649   7.633   2.830  10.668
14918SOL     OW46650  13.624  14.328   7.392
14918SOL    HW146651  13.550  14.383   7.417
14918SOL    HW246652  13.592  14.238   7.405
14919SOL     OW46653   8.388   8.545   9.440
14919SOL    HW146654   8.346   8.544   9.526
14919SOL    HW246655   8.475   8.510   9.455
14920SOL     OW46656  11.375   0.495  13.068
14920SOL    HW146657  11.281   0.473  13.070
14920SOL    HW246658  11.400   0.485  12.977
14921SOL     OW46659   5.935   3.092   6.935
14921SOL    HW146660   5.954   3.051   6.851
14921SOL    HW246661   5.959   3.184   6.924
14922SOL     OW46662   4.732   4.111   4.982
14922SOL    HW146663   4.731   4.194   5.030
14922SOL    HW246664   4.747   4.137   4.891
14923SOL     OW46665  11.356   9.085   5.117
14923SOL    HW146666  11.400   9.008   5.152
14923SOL    HW246667  11.424   9.133   5.070
14924SOL     OW46668  11.504   5.472  12.454
14924SOL    HW146669  11.532   5.506  12.369
14924SOL    HW246670  11.418   5.435  12.438
14925SOL     OW46671  11.079   7.969   4.030
14925SOL    HW146672  10.989   7.974   4.062
14925SOL    HW246673  11.080   7.892   3.973
14926SOL     OW46674  10.411   4.670   0.901
14926SOL    HW146675  10.499   4.696   0.876
14926SOL    HW246676  10.365   4.658   0.818
14927SOL     OW46677  14.444   5.171   2.645
14927SOL    HW146678  14.481   5.218   2.570
14927SOL    HW246679  14.502   5.193   2.718
14928SOL     OW46680  12.978  10.589  12.327
14928SOL    HW146681  13.033  10.666  12.343
14928SOL    HW246682  12.889  10.619  12.343
14929SOL     OW46683   9.562   0.888   5.697
14929SOL    HW146684   9.644   0.923   5.663
14929SOL    HW246685   9.588   0.819   5.758
14930SOL     OW46686   2.344  14.081   5.684
14930SOL    HW146687   2.354  14.156   5.742
14930SOL    HW246688   2.268  14.034   5.719
14931SOL     OW46689   0.665   0.809   1.302
14931SOL    HW146690   0.644   0.880   1.363
14931SOL    HW246691   0.655   0.729   1.353
14932SOL     OW46692   5.189   3.616   5.035
14932SOL    HW146693   5.121   3.552   5.055
14932SOL    HW246694   5.261   3.565   4.999
14933SOL     OW46695   1.903  11.743   1.174
14933SOL    HW146696   1.934  11.659   1.207
14933SOL    HW246697   1.847  11.777   1.244
14934SOL     OW46698  11.418   3.911   4.064
14934SOL    HW146699  11.358   3.897   4.137
14934SOL    HW246700  11.369   3.964   4.002
14935SOL     OW46701   9.468  10.425   2.365
14935SOL    HW146702   9.506  10.396   2.282
14935SOL    HW246703   9.374  10.410   2.355
14936SOL     OW46704   9.727   9.621  12.001
14936SOL    HW146705   9.761   9.533  11.985
14936SOL    HW246706   9.664   9.610  12.072
14937SOL     OW46707   2.013   3.485  13.163
14937SOL    HW146708   2.066   3.564  13.151
14937SOL    HW246709   1.945   3.493  13.096
14938SOL     OW46710   5.999  11.083  11.953
14938SOL    HW146711   6.069  11.023  11.930
14938SOL    HW246712   6.027  11.168  11.919
14939SOL     OW46713  13.216  10.303  13.260
14939SOL    HW146714  13.152  10.374  13.251
14939SOL    HW246715  13.188  10.236  13.198
14940SOL     OW46716   3.553   6.987  13.072
14940SOL    HW146717   3.527   6.973  13.163
14940SOL    HW246718   3.629   6.931  13.060
14941SOL     OW46719   4.508  11.641   5.590
14941SOL    HW146720   4.445  11.605   5.653
14941SOL    HW246721   4.593  11.613   5.623
14942SOL     OW46722   5.537   4.159  11.743
14942SOL    HW146723   5.533   4.153  11.647
14942SOL    HW246724   5.629   4.141  11.764
14943SOL     OW46725   9.205   7.875   3.555
14943SOL    HW146726   9.228   7.874   3.648
14943SOL    HW246727   9.289   7.871   3.510
14944SOL     OW46728   0.869  12.541   7.114
14944SOL    HW146729   0.886  12.447   7.113
14944SOL    HW246730   0.779  12.549   7.145
14945SOL     OW46731  13.700   7.577   6.157
14945SOL    HW146732  13.719   7.573   6.064
14945SOL    HW246733  13.741   7.499   6.193
14946SOL     OW46734   8.809   8.369   5.551
14946SOL    HW146735   8.864   8.320   5.613
14946SOL    HW246736   8.867   8.438   5.518
14947SOL     OW46737  13.683   8.501   9.859
14947SOL    HW146738  13.756   8.520   9.918
14947SOL    HW246739  13.716   8.429   9.805
14948SOL     OW46740   0.860   6.664  12.062
14948SOL    HW146741   0.766   6.665  12.047
14948SOL    HW246742   0.875   6.585  12.115
14949SOL     OW46743   6.999   7.698   6.383
14949SOL    HW146744   6.931   7.766   6.391
14949SOL    HW246745   7.070   7.730   6.438
14950SOL     OW46746   3.153  11.711   0.843
14950SOL    HW146747   3.070  11.740   0.805
14950SOL    HW246748   3.163  11.620   0.815
14951SOL     OW46749   4.018  14.097   9.171
14951SOL    HW146750   3.966  14.151   9.111
14951SOL    HW246751   3.974  14.012   9.171
14952SOL     OW46752   2.121   6.713   2.480
14952SOL    HW146753   2.196   6.736   2.425
14952SOL    HW246754   2.150   6.634   2.527
14953SOL     OW46755   4.108   0.465  12.751
14953SOL    HW146756   4.028   0.461  12.804
14953SOL    HW246757   4.078   0.479  12.662
14954SOL     OW46758  13.103   2.886   2.868
14954SOL    HW146759  13.180   2.834   2.844
14954SOL    HW246760  13.060   2.904   2.784
14955SOL     OW46761  11.840   8.770   6.666
14955SOL    HW146762  11.860   8.863   6.667
14955SOL    HW246763  11.772   8.760   6.599
14956SOL     OW46764  10.587  14.049   0.364
14956SOL    HW146765  10.508  14.003   0.391
14956SOL    HW246766  10.596  14.030   0.271
14957SOL     OW46767   0.208   9.376  13.220
14957SOL    HW146768   0.243   9.458  13.186
14957SOL    HW246769   0.119   9.398  13.249
14958SOL     OW46770   5.834  10.632  13.660
14958SOL    HW146771   5.909  10.672  13.704
14958SOL    HW246772   5.786  10.705  13.622
14959SOL     OW46773  14.386   7.833   4.477
14959SOL    HW146774  14.445   7.778   4.528
14959SOL    HW246775  14.425   7.835   4.389
14960SOL     OW46776   1.147   7.093   3.024
14960SOL    HW146777   1.215   7.136   3.076
14960SOL    HW246778   1.097   7.041   3.088
14961SOL     OW46779   6.643   5.224   9.889
14961SOL    HW146780   6.682   5.263   9.968
14961SOL    HW246781   6.646   5.294   9.824
14962SOL     OW46782   9.464  11.366   2.329
14962SOL    HW146783   9.404  11.323   2.268
14962SOL    HW246784   9.522  11.418   2.273
14963SOL     OW46785  11.338   6.430   3.035
14963SOL    HW146786  11.323   6.412   3.128
14963SOL    HW246787  11.275   6.374   2.989
14964SOL     OW46788  12.080   9.117   4.324
14964SOL    HW146789  11.989   9.088   4.314
14964SOL    HW246790  12.081   9.165   4.406
14965SOL     OW46791  10.162   0.671  10.402
14965SOL    HW146792  10.126   0.742  10.350
14965SOL    HW246793  10.173   0.599  10.341
14966SOL     OW46794  10.607   1.904  13.390
14966SOL    HW146795  10.611   1.913  13.295
14966SOL    HW246796  10.689   1.941  13.422
14967SOL     OW46797  11.425   7.544   6.596
14967SOL    HW146798  11.516   7.529   6.622
14967SOL    HW246799  11.404   7.630   6.633
14968SOL     OW46800  10.348   4.129   5.198
14968SOL    HW146801  10.421   4.192   5.194
14968SOL    HW246802  10.310   4.144   5.285
14969SOL     OW46803  10.532   6.399   5.429
14969SOL    HW146804  10.541   6.475   5.371
14969SOL    HW246805  10.545   6.323   5.372
14970SOL     OW46806   5.445  10.075   2.933
14970SOL    HW146807   5.533  10.093   2.964
14970SOL    HW246808   5.427  10.143   2.868
14971SOL     OW46809   7.711  13.579   9.643
14971SOL    HW146810   7.654  13.504   9.625
14971SOL    HW246811   7.796  13.540   9.663
14972SOL     OW46812  10.173  11.117   5.536
14972SOL    HW146813  10.105  11.139   5.601
14972SOL    HW246814  10.152  11.172   5.461
14973SOL     OW46815   7.472   5.272   5.431
14973SOL    HW146816   7.404   5.316   5.482
14973SOL    HW246817   7.490   5.191   5.480
14974SOL     OW46818   7.790   8.646   9.403
14974SOL    HW146819   7.855   8.666   9.336
14974SOL    HW246820   7.824   8.689   9.482
14975SOL     OW46821   2.910   8.603   1.510
14975SOL    HW146822   2.914   8.681   1.455
14975SOL    HW246823   2.890   8.637   1.598
14976SOL     OW46824   0.313  10.511  11.118
14976SOL    HW146825   0.255  10.587  11.124
14976SOL    HW246826   0.292  10.458  11.195
14977SOL     OW46827   2.194  10.158   9.891
14977SOL    HW146828   2.285  10.145   9.917
14977SOL    HW246829   2.184  10.106   9.811
14978SOL     OW46830   6.625  11.589   6.979
14978SOL    HW146831   6.569  11.569   7.054
14978SOL    HW246832   6.655  11.504   6.949
14979SOL     OW46833  14.364   1.559   1.647
14979SOL    HW146834  14.432   1.523   1.703
14979SOL    HW246835  14.318   1.622   1.703
14980SOL     OW46836  12.873   0.211  12.023
14980SOL    HW146837  12.888   0.119  12.046
14980SOL    HW246838  12.897   0.259  12.102
14981SOL     OW46839  10.045   1.972   0.297
14981SOL    HW146840  10.006   2.006   0.217
14981SOL    HW246841   9.975   1.977   0.362
14982SOL     OW46842   1.246   8.246  12.905
14982SOL    HW146843   1.293   8.312  12.956
14982SOL    HW246844   1.285   8.163  12.931
14983SOL     OW46845   9.740  11.461   6.892
14983SOL    HW146846   9.660  11.473   6.841
14983SOL    HW246847   9.775  11.377   6.860
14984SOL     OW46848  10.424   5.519   8.176
14984SOL    HW146849  10.436   5.425   8.187
14984SOL    HW246850  10.400   5.550   8.264
14985SOL     OW46851   0.801   7.530   8.042
14985SOL    HW146852   0.722   7.552   7.992
14985SOL    HW246853   0.783   7.444   8.079
14986SOL     OW46854   3.595  13.184   8.948
14986SOL    HW146855   3.580  13.276   8.926
14986SOL    HW246856   3.509  13.142   8.938
14987SOL     OW46857   5.095  12.214   2.475
14987SOL    HW146858   5.154  12.288   2.487
14987SOL    HW246859   5.149  12.146   2.434
14988SOL     OW46860   8.612   2.800   2.385
14988SOL    HW146861   8.611   2.895   2.375
14988SOL    HW246862   8.604   2.767   2.296
14989SOL     OW46863   1.302  14.017   7.319
14989SOL    HW146864   1.323  14.105   7.287
14989SOL    HW246865   1.211  14.003   7.293
14990SOL     OW46866   9.784  14.676   4.725
14990SOL    HW146867   9.757  14.588   4.701
14990SOL    HW246868   9.722  14.703   4.792
14991SOL     OW46869  14.779  12.682   4.301
14991SOL    HW146870  14.796  12.742   4.374
14991SOL    HW246871  14.693  12.708   4.269
14992SOL     OW46872  13.847   3.619   7.603
14992SOL    HW146873  13.871   3.687   7.666
14992SOL    HW246874  13.752   3.618   7.604
14993SOL     OW46875   8.273   3.313   2.314
14993SOL    HW146876   8.365   3.333   2.298
14993SOL    HW246877   8.265   3.219   2.298
14994SOL     OW46878   4.225   9.888   9.617
14994SOL    HW146879   4.298   9.910   9.559
14994SOL    HW246880   4.157   9.951   9.593
14995SOL     OW46881  11.315   6.155   6.059
14995SOL    HW146882  11.285   6.152   6.150
14995SOL    HW246883  11.367   6.235   6.053
14996SOL     OW46884   9.169   3.501   4.048
14996SOL    HW146885   9.159   3.596   4.056
14996SOL    HW246886   9.080   3.468   4.038
14997SOL     OW46887   0.111  14.620   9.285
14997SOL    HW146888   0.045  14.567   9.330
14997SOL    HW246889   0.194  14.596   9.326
14998SOL     OW46890  14.258   1.455   2.328
14998SOL    HW146891  14.196   1.479   2.397
14998SOL    HW246892  14.203   1.422   2.257
14999SOL     OW46893   3.902   4.174   4.078
14999SOL    HW146894   3.978   4.179   4.020
14999SOL    HW246895   3.838   4.121   4.031
15000SOL     OW46896   5.755   2.728   5.881
15000SOL    HW146897   5.723   2.792   5.818
15000SOL    HW246898   5.804   2.665   5.829
15001SOL     OW46899  12.480   6.146   9.380
15001SOL    HW146900  12.568   6.118   9.404
15001SOL    HW246901  12.484   6.158   9.285
15002SOL     OW46902   4.230  13.843  14.109
15002SOL    HW146903   4.275  13.782  14.168
15002SOL    HW246904   4.279  13.838  14.028
15003SOL     OW46905  14.669  12.197  10.425
15003SOL    HW146906  14.638  12.268  10.368
15003SOL    HW246907  14.701  12.242  10.503
15004SOL     OW46908   2.354   9.230   1.954
15004SOL    HW146909   2.273   9.280   1.943
15004SOL    HW246910   2.418   9.294   1.986
15005SOL     OW46911   9.791   7.608   4.768
15005SOL    HW146912   9.739   7.666   4.711
15005SOL    HW246913   9.731   7.583   4.838
15006SOL     OW46914  12.395  12.986   7.370
15006SOL    HW146915  12.333  12.916   7.348
15006SOL    HW246916  12.405  12.980   7.465
15007SOL     OW46917   3.819   8.408   8.051
15007SOL    HW146918   3.843   8.466   7.979
15007SOL    HW246919   3.725   8.393   8.039
15008SOL     OW46920  14.509  12.863   6.839
15008SOL    HW146921  14.542  12.847   6.750
15008SOL    HW246922  14.443  12.795   6.853
15009SOL     OW46923  13.290   0.727   0.103
15009SOL    HW146924  13.337   0.788   0.046
15009SOL    HW246925  13.198   0.751   0.093
15010SOL     OW46926  14.415   7.987   5.884
15010SOL    HW146927  14.490   7.990   5.824
15010SOL    HW246928  14.376   8.074   5.878
15011SOL     OW46929   1.861  12.077   0.963
15011SOL    HW146930   1.932  12.020   0.934
15011SOL    HW246931   1.816  12.026   1.031
15012SOL     OW46932  12.994   1.084   7.520
15012SOL    HW146933  12.938   1.017   7.480
15012SOL    HW246934  12.994   1.156   7.457
15013SOL     OW46935   2.173   2.364  14.286
15013SOL    HW146936   2.198   2.396  14.199
15013SOL    HW246937   2.147   2.273  14.272
15014SOL     OW46938   6.530  13.543  11.553
15014SOL    HW146939   6.615  13.542  11.509
15014SOL    HW246940   6.548  13.581  11.639
15015SOL     OW46941  12.634   6.812   9.145
15015SOL    HW146942  12.617   6.718   9.137
15015SOL    HW246943  12.712   6.827   9.093
15016SOL     OW46944   1.763   8.537   0.868
15016SOL    HW146945   1.705   8.560   0.795
15016SOL    HW246946   1.725   8.457   0.905
15017SOL     OW46947  12.627  12.386  11.124
15017SOL    HW146948  12.557  12.349  11.071
15017SOL    HW246949  12.685  12.429  11.061
15018SOL     OW46950   5.362  13.201   5.046
15018SOL    HW146951   5.403  13.287   5.049
15018SOL    HW246952   5.282  13.214   4.995
15019SOL     OW46953   9.797  14.624  11.399
15019SOL    HW146954   9.845  14.613  11.482
15019SOL    HW246955   9.778  14.717  11.395
15020SOL     OW46956   4.746  12.691   4.948
15020SOL    HW146957   4.749  12.709   5.042
15020SOL    HW246958   4.718  12.600   4.942
15021SOL     OW46959  12.276   3.586   1.219
15021SOL    HW146960  12.254   3.587   1.312
15021SOL    HW246961  12.359   3.540   1.214
15022SOL     OW46962   8.874  10.136  14.804
15022SOL    HW146963   8.910  10.129  14.715
15022SOL    HW246964   8.947  10.170  14.856
15023SOL     OW46965   6.055   7.923  14.085
15023SOL    HW146966   6.117   7.859  14.121
15023SOL    HW246967   6.022   7.882  14.005
15024SOL     OW46968   3.355   4.128   3.994
15024SOL    HW146969   3.293   4.108   3.924
15024SOL    HW246970   3.307   4.188   4.051
15025SOL     OW46971   9.992   0.252   8.059
15025SOL    HW146972   9.977   0.184   7.993
15025SOL    HW246973  10.005   0.205   8.141
15026SOL     OW46974   0.862   1.664   5.622
15026SOL    HW146975   0.770   1.641   5.607
15026SOL    HW246976   0.859   1.723   5.697
15027SOL     OW46977  12.253   8.819  12.872
15027SOL    HW146978  12.295   8.748  12.823
15027SOL    HW246979  12.325   8.862  12.918
15028SOL     OW46980  14.146  11.499  10.946
15028SOL    HW146981  14.174  11.522  10.857
15028SOL    HW246982  14.218  11.530  11.002
15029SOL     OW46983   8.743   4.583   5.073
15029SOL    HW146984   8.678   4.648   5.101
15029SOL    HW246985   8.791   4.561   5.153
15030SOL     OW46986  11.954   8.990  14.554
15030SOL    HW146987  11.933   8.918  14.495
15030SOL    HW246988  11.897   9.062  14.527
15031SOL     OW46989   7.276  10.298   5.199
15031SOL    HW146990   7.210  10.353   5.241
15031SOL    HW246991   7.299  10.346   5.119
15032SOL     OW46992   0.997  13.543  11.454
15032SOL    HW146993   1.016  13.627  11.412
15032SOL    HW246994   1.007  13.479  11.384
15033SOL     OW46995   3.488   8.915   9.247
15033SOL    HW146996   3.458   8.868   9.169
15033SOL    HW246997   3.549   8.855   9.290
15034SOL     OW46998   2.336   1.356   7.105
15034SOL    HW146999   2.318   1.292   7.036
15034SOL    HW247000   2.252   1.369   7.149
15035SOL     OW47001  11.579   1.075   6.325
15035SOL    HW147002  11.619   1.138   6.385
15035SOL    HW247003  11.643   1.063   6.256
15036SOL     OW47004   7.025   5.330   2.861
15036SOL    HW147005   7.063   5.272   2.927
15036SOL    HW247006   6.982   5.271   2.800
15037SOL     OW47007   1.911   1.333  13.805
15037SOL    HW147008   1.913   1.237  13.799
15037SOL    HW247009   1.821   1.353  13.830
15038SOL     OW47010  10.211  10.483  12.762
15038SOL    HW147011  10.148  10.531  12.707
15038SOL    HW247012  10.234  10.545  12.831
15039SOL     OW47013  14.689   0.632  14.560
15039SOL    HW147014  14.709   0.612  14.469
15039SOL    HW247015  14.767   0.679  14.592
15040SOL     OW47016   4.703   3.628   9.670
15040SOL    HW147017   4.762   3.567   9.625
15040SOL    HW247018   4.733   3.715   9.642
15041SOL     OW47019   8.114   1.634   1.508
15041SOL    HW147020   8.199   1.647   1.465
15041SOL    HW247021   8.135   1.583   1.586
15042SOL     OW47022   8.611   6.814  14.184
15042SOL    HW147023   8.559   6.837  14.107
15042SOL    HW247024   8.636   6.899  14.222
15043SOL     OW47025   6.428   8.589   6.421
15043SOL    HW147026   6.497   8.527   6.400
15043SOL    HW247027   6.348   8.549   6.386
15044SOL     OW47028   5.984  12.337  10.223
15044SOL    HW147029   5.957  12.260  10.273
15044SOL    HW247030   6.079  12.337  10.229
15045SOL     OW47031   2.150   1.790  10.691
15045SOL    HW147032   2.097   1.721  10.731
15045SOL    HW247033   2.204   1.823  10.762
15046SOL     OW47034  14.216   4.615   5.422
15046SOL    HW147035  14.147   4.642   5.482
15046SOL    HW247036  14.201   4.669   5.344
15047SOL     OW47037   9.566  11.025   1.432
15047SOL    HW147038   9.565  10.930   1.429
15047SOL    HW247039   9.645  11.047   1.481
15048SOL     OW47040  10.451   6.941   0.805
15048SOL    HW147041  10.485   6.943   0.716
15048SOL    HW247042  10.525   6.967   0.860
15049SOL     OW47043   4.985   6.191   5.009
15049SOL    HW147044   4.927   6.138   4.953
15049SOL    HW247045   4.957   6.169   5.098
15050SOL     OW47046   4.957  13.327  11.058
15050SOL    HW147047   4.952  13.294  10.968
15050SOL    HW247048   5.029  13.391  11.055
15051SOL     OW47049   5.435   9.804  13.863
15051SOL    HW147050   5.349   9.842  13.843
15051SOL    HW247051   5.492   9.833  13.791
15052SOL     OW47052   3.855   2.221  10.264
15052SOL    HW147053   3.785   2.252  10.322
15052SOL    HW247054   3.809   2.193  10.185
15053SOL     OW47055   3.142   6.080   1.499
15053SOL    HW147056   3.076   6.108   1.562
15053SOL    HW247057   3.146   5.984   1.508
15054SOL     OW47058  12.045   2.777   7.615
15054SOL    HW147059  12.121   2.796   7.669
15054SOL    HW247060  12.081   2.735   7.537
15055SOL     OW47061   7.743  12.790   8.145
15055SOL    HW147062   7.795  12.791   8.065
15055SOL    HW247063   7.698  12.874   8.146
15056SOL     OW47064  14.502   5.397  11.197
15056SOL    HW147065  14.427   5.342  11.220
15056SOL    HW247066  14.463   5.478  11.164
15057SOL     OW47067   7.508   6.957   2.718
15057SOL    HW147068   7.468   6.968   2.632
15057SOL    HW247069   7.602   6.962   2.702
15058SOL     OW47070   9.872   7.575   8.494
15058SOL    HW147071   9.895   7.668   8.483
15058SOL    HW247072   9.856   7.565   8.587
15059SOL     OW47073   0.763  11.010   8.555
15059SOL    HW147074   0.786  11.032   8.645
15059SOL    HW247075   0.788  11.087   8.504
15060SOL     OW47076   7.240   4.896   3.133
15060SOL    HW147077   7.150   4.867   3.118
15060SOL    HW247078   7.294   4.838   3.079
15061SOL     OW47079  12.696   7.899   7.799
15061SOL    HW147080  12.782   7.885   7.840
15061SOL    HW247081  12.681   7.820   7.747
15062SOL     OW47082   2.860   0.915   1.981
15062SOL    HW147083   2.778   0.963   1.971
15062SOL    HW247084   2.837   0.824   1.960
15063SOL     OW47085   7.705   8.826   6.755
15063SOL    HW147086   7.732   8.848   6.666
15063SOL    HW247087   7.748   8.891   6.810
15064SOL     OW47088   0.590  10.383   5.044
15064SOL    HW147089   0.590  10.435   5.124
15064SOL    HW247090   0.512  10.328   5.051
15065SOL     OW47091   7.686  10.162  12.460
15065SOL    HW147092   7.782  10.158  12.454
15065SOL    HW247093   7.663  10.098  12.527
15066SOL     OW47094   6.620  14.259   3.308
15066SOL    HW147095   6.595  14.310   3.386
15066SOL    HW247096   6.617  14.322   3.236
15067SOL     OW47097   4.656   6.167   8.490
15067SOL    HW147098   4.699   6.252   8.480
15067SOL    HW247099   4.727   6.106   8.508
15068SOL     OW47100  12.669   4.543   5.688
15068SOL    HW147101  12.728   4.501   5.751
15068SOL    HW247102  12.726   4.569   5.616
15069SOL     OW47103   1.208   5.890  10.435
15069SOL    HW147104   1.257   5.962  10.394
15069SOL    HW247105   1.274   5.823  10.452
15070SOL     OW47106  10.197   6.216  13.382
15070SOL    HW147107  10.278   6.178  13.348
15070SOL    HW247108  10.127   6.160  13.348
15071SOL     OW47109  10.937   3.705   4.753
15071SOL    HW147110  10.855   3.664   4.724
15071SOL    HW247111  10.951   3.670   4.841
15072SOL     OW47112   6.521   8.463  14.156
15072SOL    HW147113   6.564   8.533  14.106
15072SOL    HW247114   6.507   8.394  14.092
15073SOL     OW47115  13.009   7.134   9.183
15073SOL    HW147116  12.960   7.164   9.260
15073SOL    HW247117  12.999   7.205   9.119
15074SOL     OW47118   0.746  12.427  13.597
15074SOL    HW147119   0.678  12.488  13.570
15074SOL    HW247120   0.707  12.377  13.669
15075SOL     OW47121  14.702   7.255   1.602
15075SOL    HW147122  14.708   7.333   1.546
15075SOL    HW247123  14.790   7.246   1.640
15076SOL     OW47124   7.181  12.746   0.330
15076SOL    HW147125   7.132  12.731   0.410
15076SOL    HW247126   7.224  12.663   0.311
15077SOL     OW47127  14.368   3.084   1.230
15077SOL    HW147128  14.319   3.142   1.288
15077SOL    HW247129  14.459   3.115   1.235
15078SOL     OW47130   8.563  14.331   0.444
15078SOL    HW147131   8.515  14.368   0.519
15078SOL    HW247132   8.654  14.328   0.474
15079SOL     OW47133  12.511  13.113   3.957
15079SOL    HW147134  12.465  13.061   4.024
15079SOL    HW247135  12.558  13.179   4.008
15080SOL     OW47136   5.789   9.343  10.768
15080SOL    HW147137   5.872   9.348  10.720
15080SOL    HW247138   5.735   9.283  10.716
15081SOL     OW47139  11.123   1.239  12.019
15081SOL    HW147140  11.144   1.204  11.933
15081SOL    HW247141  11.195   1.210  12.075
15082SOL     OW47142  13.885   3.186   7.756
15082SOL    HW147143  13.941   3.154   7.686
15082SOL    HW247144  13.941   3.186   7.834
15083SOL     OW47145   8.616   0.301   3.484
15083SOL    HW147146   8.569   0.383   3.478
15083SOL    HW247147   8.663   0.306   3.568
15084SOL     OW47148   2.304  10.641  13.877
15084SOL    HW147149   2.250  10.672  13.805
15084SOL    HW247150   2.378  10.701  13.879
15085SOL     OW47151   0.413   1.969   3.826
15085SOL    HW147152   0.444   2.036   3.887
15085SOL    HW247153   0.456   1.990   3.743
15086SOL     OW47154   6.333   5.812   1.202
15086SOL    HW147155   6.397   5.819   1.131
15086SOL    HW247156   6.343   5.893   1.251
15087SOL     OW47157   5.654   8.522  14.611
15087SOL    HW147158   5.621   8.440  14.649
15087SOL    HW247159   5.581   8.555  14.558
15088SOL     OW47160   8.615  12.054   0.256
15088SOL    HW147161   8.587  12.103   0.334
15088SOL    HW247162   8.592  11.963   0.276
15089SOL     OW47163   9.636   0.821  12.802
15089SOL    HW147164   9.577   0.860  12.739
15089SOL    HW247165   9.723   0.835  12.766
15090SOL     OW47166   1.798  11.464   4.709
15090SOL    HW147167   1.788  11.499   4.798
15090SOL    HW247168   1.882  11.500   4.679
15091SOL     OW47169  10.565   7.968   3.888
15091SOL    HW147170  10.650   7.946   3.926
15091SOL    HW247171  10.561   8.063   3.893
15092SOL     OW47172   4.320  13.357   3.672
15092SOL    HW147173   4.253  13.348   3.739
15092SOL    HW247174   4.274  13.397   3.598
15093SOL     OW47175  10.732  13.395  11.114
15093SOL    HW147176  10.775  13.377  11.198
15093SOL    HW247177  10.803  13.392  11.050
15094SOL     OW47178   4.858  11.286   7.778
15094SOL    HW147179   4.925  11.315   7.716
15094SOL    HW247180   4.775  11.313   7.739
15095SOL     OW47181   5.795   6.744  14.235
15095SOL    HW147182   5.845   6.810  14.185
15095SOL    HW247183   5.704   6.760  14.210
15096SOL     OW47184   4.873   9.529   5.880
15096SOL    HW147185   4.814   9.523   5.805
15096SOL    HW247186   4.823   9.493   5.953
15097SOL     OW47187   1.411   7.795  14.169
15097SOL    HW147188   1.401   7.812  14.075
15097SOL    HW247189   1.503   7.772  14.180
15098SOL     OW47190   2.007  14.296   3.651
15098SOL    HW147191   1.965  14.280   3.567
15098SOL    HW247192   2.099  14.274   3.637
15099SOL     OW47193  11.532   3.554   4.573
15099SOL    HW147194  11.616   3.526   4.609
15099SOL    HW247195  11.489   3.600   4.645
15100SOL     OW47196   1.283   9.548   6.266
15100SOL    HW147197   1.371   9.577   6.239
15100SOL    HW247198   1.273   9.462   6.225
15101SOL     OW47199  11.983  10.444   4.551
15101SOL    HW147200  11.944  10.477   4.631
15101SOL    HW247201  12.062  10.398   4.579
15102SOL     OW47202   7.524   4.925   3.030
15102SOL    HW147203   7.565   4.864   3.092
15102SOL    HW247204   7.578   5.004   3.034
15103SOL     OW47205   5.366   9.476   8.151
15103SOL    HW147206   5.287   9.453   8.199
15103SOL    HW247207   5.404   9.391   8.126
15104SOL     OW47208  11.734   3.689  10.726
15104SOL    HW147209  11.683   3.619  10.683
15104SOL    HW247210  11.780   3.645  10.797
15105SOL     OW47211   7.747   9.466   7.857
15105SOL    HW147212   7.776   9.424   7.776
15105SOL    HW247213   7.826   9.509   7.891
15106SOL     OW47214  14.048   3.429  10.654
15106SOL    HW147215  13.975   3.452  10.712
15106SOL    HW247216  14.041   3.335  10.642
15107SOL     OW47217   8.822  13.979  11.063
15107SOL    HW147218   8.904  13.933  11.046
15107SOL    HW247219   8.761  13.911  11.090
15108SOL     OW47220   8.070  14.698   6.281
15108SOL    HW147221   8.053  14.686   6.187
15108SOL    HW247222   8.091  14.611   6.314
15109SOL     OW47223   8.859   0.537  13.458
15109SOL    HW147224   8.862   0.606  13.525
15109SOL    HW247225   8.939   0.487  13.471
15110SOL     OW47226   7.872   9.825   7.757
15110SOL    HW147227   7.788   9.816   7.803
15110SOL    HW247228   7.900   9.914   7.775
15111SOL     OW47229   4.463   3.215   3.565
15111SOL    HW147230   4.495   3.189   3.651
15111SOL    HW247231   4.503   3.154   3.505
15112SOL     OW47232   5.420   5.913   8.019
15112SOL    HW147233   5.452   5.853   8.087
15112SOL    HW247234   5.391   5.990   8.067
15113SOL     OW47235   1.284  11.071  13.196
15113SOL    HW147236   1.355  11.033  13.144
15113SOL    HW247237   1.302  11.165  13.196
15114SOL     OW47238   6.109   8.741   8.403
15114SOL    HW147239   6.195   8.746   8.363
15114SOL    HW247240   6.097   8.825   8.446
15115SOL     OW47241  12.446   8.595  12.077
15115SOL    HW147242  12.388   8.572  12.149
15115SOL    HW247243  12.448   8.691  12.077
15116SOL     OW47244   4.342   8.190  13.792
15116SOL    HW147245   4.331   8.238  13.710
15116SOL    HW247246   4.393   8.248  13.848
15117SOL     OW47247  13.532  10.367   0.778
15117SOL    HW147248  13.506  10.437   0.838
15117SOL    HW247249  13.478  10.292   0.802
15118SOL     OW47250   1.619  14.711   5.775
15118SOL    HW147251   1.646  14.711   5.683
15118SOL    HW247252   1.592  14.620   5.791
15119SOL     OW47253   8.772   1.293   0.248
15119SOL    HW147254   8.705   1.244   0.295
15119SOL    HW247255   8.783   1.247   0.165
15120SOL     OW47256   5.917  10.140   8.498
15120SOL    HW147257   5.885  10.089   8.424
15120SOL    HW247258   5.963  10.077   8.553
15121SOL     OW47259   2.341   1.110   4.659
15121SOL    HW147260   2.428   1.070   4.651
15121SOL    HW247261   2.358   1.196   4.696
15122SOL     OW47262  11.925  12.306  13.236
15122SOL    HW147263  11.873  12.383  13.258
15122SOL    HW247264  11.997  12.307  13.299
15123SOL     OW47265  14.598   0.685   6.709
15123SOL    HW147266  14.530   0.624   6.739
15123SOL    HW247267  14.597   0.755   6.774
15124SOL     OW47268  12.423   9.552   8.569
15124SOL    HW147269  12.406   9.477   8.626
15124SOL    HW247270  12.341   9.601   8.567
15125SOL     OW47271  13.017  13.718   9.051
15125SOL    HW147272  13.098  13.692   9.095
15125SOL    HW247273  13.045  13.781   8.985
15126SOL     OW47274   0.551   2.345  12.869
15126SOL    HW147275   0.509   2.430  12.855
15126SOL    HW247276   0.643   2.360  12.848
15127SOL     OW47277   9.689   8.121   6.466
15127SOL    HW147278   9.770   8.162   6.494
15127SOL    HW247279   9.626   8.193   6.463
15128SOL     OW47280   6.151  14.828   8.362
15128SOL    HW147281   6.095  14.801   8.434
15128SOL    HW247282   6.096   0.008   8.308
15129SOL     OW47283  12.296  13.512   7.291
15129SOL    HW147284  12.310  13.418   7.291
15129SOL    HW247285  12.376  13.548   7.250
15130SOL     OW47286   6.815  14.570   7.002
15130SOL    HW147287   6.742  14.567   7.064
15130SOL    HW247288   6.801  14.651   6.953
15131SOL     OW47289  13.920   8.038  10.037
15131SOL    HW147290  13.997   8.026  10.093
15131SOL    HW247291  13.847   8.046  10.099
15132SOL     OW47292  13.120   3.945  10.838
15132SOL    HW147293  13.045   4.004  10.849
15132SOL    HW247294  13.111   3.881  10.909
15133SOL     OW47295   7.788  14.836   1.548
15133SOL    HW147296   7.693  14.842   1.538
15133SOL    HW247297   7.803  14.747   1.581
15134SOL     OW47298  12.953   5.935   5.017
15134SOL    HW147299  12.913   5.983   4.945
15134SOL    HW247300  12.901   5.957   5.094
15135SOL     OW47301   6.909   4.354  11.544
15135SOL    HW147302   6.947   4.398  11.469
15135SOL    HW247303   6.979   4.353  11.610
15136SOL     OW47304  13.054   6.870   7.584
15136SOL    HW147305  13.013   6.841   7.665
15136SOL    HW247306  13.148   6.872   7.602
15137SOL     OW47307  14.326   8.265   0.225
15137SOL    HW147308  14.253   8.204   0.215
15137SOL    HW247309  14.305   8.315   0.304
15138SOL     OW47310   6.586  12.180   4.987
15138SOL    HW147311   6.580  12.090   4.956
15138SOL    HW247312   6.604  12.231   4.908
15139SOL     OW47313   4.115  14.030   4.830
15139SOL    HW147314   4.122  14.053   4.737
15139SOL    HW247315   4.091  14.113   4.873
15140SOL     OW47316   8.556   1.002   6.273
15140SOL    HW147317   8.492   0.959   6.331
15140SOL    HW247318   8.574   0.937   6.205
15141SOL     OW47319   3.017   5.452   3.418
15141SOL    HW147320   3.014   5.513   3.491
15141SOL    HW247321   2.935   5.465   3.371
15142SOL     OW47322   9.399   0.281   0.484
15142SOL    HW147323   9.348   0.283   0.403
15142SOL    HW247324   9.488   0.259   0.456
15143SOL     OW47325   2.457   6.032  13.624
15143SOL    HW147326   2.396   5.985  13.681
15143SOL    HW247327   2.527   6.060  13.683
15144SOL     OW47328   8.971   0.444   2.785
15144SOL    HW147329   8.976   0.528   2.740
15144SOL    HW247330   8.879   0.419   2.778
15145SOL     OW47331  13.797  14.836   4.228
15145SOL    HW147332  13.719  14.786   4.207
15145SOL    HW247333  13.808   0.018   4.155
15146SOL     OW47334   5.801  12.742   3.949
15146SOL    HW147335   5.779  12.757   4.041
15146SOL    HW247336   5.744  12.802   3.901
15147SOL     OW47337  13.745   0.479   3.312
15147SOL    HW147338  13.774   0.551   3.368
15147SOL    HW247339  13.721   0.521   3.230
15148SOL     OW47340  10.821   4.887   8.481
15148SOL    HW147341  10.843   4.833   8.405
15148SOL    HW247342  10.801   4.824   8.551
15149SOL     OW47343   8.981  12.361   3.659
15149SOL    HW147344   8.914  12.297   3.683
15149SOL    HW247345   9.025  12.323   3.583
15150SOL     OW47346   2.298   1.422   2.641
15150SOL    HW147347   2.342   1.507   2.632
15150SOL    HW247348   2.357   1.370   2.695
15151SOL     OW47349   1.106  10.059  14.280
15151SOL    HW147350   1.014  10.048  14.304
15151SOL    HW247351   1.105  10.069  14.185
15152SOL     OW47352  11.085  13.889   8.139
15152SOL    HW147353  11.167  13.923   8.103
15152SOL    HW247354  11.110  13.812   8.190
15153SOL     OW47355  11.765   4.332  11.904
15153SOL    HW147356  11.851   4.330  11.945
15153SOL    HW247357  11.761   4.417  11.861
15154SOL     OW47358  11.333   1.305   0.523
15154SOL    HW147359  11.420   1.268   0.536
15154SOL    HW247360  11.340   1.395   0.552
15155SOL     OW47361   5.516   9.905   0.477
15155SOL    HW147362   5.463   9.827   0.464
15155SOL    HW247363   5.606   9.876   0.464
15156SOL     OW47364   6.477   0.384  13.779
15156SOL    HW147365   6.568   0.392  13.752
15156SOL    HW247366   6.477   0.313  13.843
15157SOL     OW47367   6.958   4.663   3.916
15157SOL    HW147368   7.019   4.601   3.876
15157SOL    HW247369   6.966   4.648   4.010
15158SOL     OW47370   4.059  14.440  11.153
15158SOL    HW147371   4.112  14.453  11.075
15158SOL    HW247372   3.969  14.458  11.124
15159SOL     OW47373   6.110   8.328   7.535
15159SOL    HW147374   6.108   8.363   7.624
15159SOL    HW247375   6.177   8.259   7.537
15160SOL     OW47376   2.619   0.567   7.897
15160SOL    HW147377   2.528   0.538   7.891
15160SOL    HW247378   2.615   0.649   7.946
15161SOL     OW47379  13.004   0.238   5.517
15161SOL    HW147380  13.047   0.162   5.558
15161SOL    HW247381  13.021   0.310   5.578
15162SOL     OW47382   1.371   3.492   4.230
15162SOL    HW147383   1.423   3.474   4.152
15162SOL    HW247384   1.433   3.484   4.302
15163SOL     OW47385  11.686   1.645  14.021
15163SOL    HW147386  11.628   1.685  13.956
15163SOL    HW247387  11.717   1.565  13.979
15164SOL     OW47388   9.235   2.812   6.776
15164SOL    HW147389   9.175   2.884   6.793
15164SOL    HW247390   9.204   2.741   6.831
15165SOL     OW47391   6.092   3.490   4.122
15165SOL    HW147392   6.073   3.397   4.124
15165SOL    HW247393   6.007   3.532   4.109
15166SOL     OW47394   0.933   7.374   5.802
15166SOL    HW147395   0.876   7.436   5.847
15166SOL    HW247396   1.013   7.373   5.854
15167SOL     OW47397   6.822   0.303   5.016
15167SOL    HW147398   6.856   0.218   5.046
15167SOL    HW247399   6.872   0.321   4.936
15168SOL     OW47400  12.512   1.702   4.506
15168SOL    HW147401  12.541   1.611   4.505
15168SOL    HW247402  12.471   1.715   4.420
15169SOL     OW47403   0.632  12.875   3.047
15169SOL    HW147404   0.684  12.944   3.007
15169SOL    HW247405   0.624  12.808   2.979
15170SOL     OW47406  13.321   1.215   2.246
15170SOL    HW147407  13.358   1.220   2.158
15170SOL    HW247408  13.321   1.306   2.277
15171SOL     OW47409   8.306  12.217   3.198
15171SOL    HW147410   8.292  12.165   3.119
15171SOL    HW247411   8.315  12.307   3.167
15172SOL     OW47412   0.749   1.955   8.695
15172SOL    HW147413   0.840   1.967   8.666
15172SOL    HW247414   0.723   2.040   8.729
15173SOL     OW47415  13.405   2.884   1.321
15173SOL    HW147416  13.489   2.858   1.358
15173SOL    HW247417  13.421   2.971   1.283
15174SOL     OW47418   7.158  13.198   6.935
15174SOL    HW147419   7.178  13.215   6.843
15174SOL    HW247420   7.125  13.281   6.969
15175SOL     OW47421   6.390   0.440   9.382
15175SOL    HW147422   6.379   0.345   9.381
15175SOL    HW247423   6.473   0.454   9.335
15176SOL     OW47424  10.148  11.997   0.686
15176SOL    HW147425  10.124  11.998   0.593
15176SOL    HW247426  10.231  11.950   0.689
15177SOL     OW47427   9.285   6.782   7.994
15177SOL    HW147428   9.201   6.826   7.981
15177SOL    HW247429   9.327   6.783   7.908
15178SOL     OW47430  11.155  12.839   6.175
15178SOL    HW147431  11.222  12.898   6.138
15178SOL    HW247432  11.079  12.895   6.188
15179SOL     OW47433  10.599  13.441   5.325
15179SOL    HW147434  10.568  13.361   5.366
15179SOL    HW247435  10.693  13.443   5.342
15180SOL     OW47436  10.584  12.671  11.491
15180SOL    HW147437  10.544  12.712  11.414
15180SOL    HW247438  10.588  12.741  11.556
15181SOL     OW47439   6.290   2.916   7.004
15181SOL    HW147440   6.321   3.002   7.031
15181SOL    HW247441   6.369   2.864   6.993
15182SOL     OW47442   2.504  12.953   1.888
15182SOL    HW147443   2.581  12.930   1.836
15182SOL    HW247444   2.501  13.049   1.885
15183SOL     OW47445   2.453   3.874   1.198
15183SOL    HW147446   2.504   3.873   1.279
15183SOL    HW247447   2.388   3.943   1.211
15184SOL     OW47448   9.490   2.853   7.896
15184SOL    HW147449   9.422   2.920   7.894
15184SOL    HW247450   9.548   2.880   7.968
15185SOL     OW47451   4.561  12.784   7.053
15185SOL    HW147452   4.585  12.877   7.057
15185SOL    HW247453   4.537  12.761   7.143
15186SOL     OW47454   6.835   6.070  11.530
15186SOL    HW147455   6.798   5.990  11.567
15186SOL    HW247456   6.902   6.098  11.593
15187SOL     OW47457  11.258  11.455   5.283
15187SOL    HW147458  11.297  11.508   5.214
15187SOL    HW247459  11.247  11.368   5.244
15188SOL     OW47460  11.569   2.098   7.280
15188SOL    HW147461  11.645   2.143   7.317
15188SOL    HW247462  11.493   2.148   7.313
15189SOL     OW47463   7.929   4.941   8.976
15189SOL    HW147464   7.969   4.892   8.904
15189SOL    HW247465   8.000   4.955   9.038
15190SOL     OW47466  10.262   9.421   9.569
15190SOL    HW147467  10.285   9.511   9.546
15190SOL    HW247468  10.245   9.379   9.485
15191SOL     OW47469  11.336   2.338  14.166
15191SOL    HW147470  11.244   2.360  14.151
15191SOL    HW247471  11.384   2.415  14.134
15192SOL     OW47472   4.870  10.659   6.527
15192SOL    HW147473   4.840  10.724   6.463
15192SOL    HW247474   4.875  10.577   6.478
15193SOL     OW47475   7.890   3.535   9.383
15193SOL    HW147476   7.894   3.443   9.360
15193SOL    HW247477   7.974   3.571   9.355
15194SOL     OW47478  14.515   8.099   6.832
15194SOL    HW147479  14.560   8.115   6.915
15194SOL    HW247480  14.574   8.134   6.766
15195SOL     OW47481  13.669   5.847   9.423
15195SOL    HW147482  13.750   5.898   9.435
15195SOL    HW247483  13.699   5.757   9.412
15196SOL     OW47484   6.909   2.438   6.612
15196SOL    HW147485   6.913   2.431   6.707
15196SOL    HW247486   6.938   2.527   6.593
15197SOL     OW47487  14.456   3.506   4.687
15197SOL    HW147488  14.463   3.541   4.599
15197SOL    HW247489  14.406   3.572   4.736
15198SOL     OW47490   3.361   0.234   0.572
15198SOL    HW147491   3.302   0.241   0.647
15198SOL    HW247492   3.427   0.171   0.600
15199SOL     OW47493   1.951   9.069   4.462
15199SOL    HW147494   1.916   9.137   4.520
15199SOL    HW247495   2.010   9.018   4.519
15200SOL     OW47496  13.557  13.740   3.422
15200SOL    HW147497  13.605  13.766   3.343
15200SOL    HW247498  13.587  13.800   3.489
15201SOL     OW47499   2.771   8.465   7.394
15201SOL    HW147500   2.758   8.503   7.307
15201SOL    HW247501   2.820   8.532   7.442
15202SOL     OW47502  12.994   3.897   9.317
15202SOL    HW147503  13.058   3.882   9.247
15202SOL    HW247504  13.046   3.930   9.390
15203SOL     OW47505  14.794   4.203   5.346
15203SOL    HW147506  14.849   4.135   5.308
15203SOL    HW247507  14.855   4.259   5.395
15204SOL     OW47508   9.508   3.572   0.688
15204SOL    HW147509   9.556   3.624   0.623
15204SOL    HW247510   9.424   3.553   0.646
15205SOL     OW47511   5.881  11.426   5.988
15205SOL    HW147512   5.958  11.460   6.034
15205SOL    HW247513   5.907  11.338   5.961
15206SOL     OW47514   7.583  11.825   4.374
15206SOL    HW147515   7.599  11.839   4.281
15206SOL    HW247516   7.648  11.760   4.401
15207SOL     OW47517   1.689   2.215   6.998
15207SOL    HW147518   1.655   2.155   6.932
15207SOL    HW247519   1.624   2.212   7.069
15208SOL     OW47520   6.871   7.058   1.614
15208SOL    HW147521   6.779   7.070   1.589
15208SOL    HW247522   6.867   7.000   1.690
15209SOL     OW47523   5.728   5.732  14.469
15209SOL    HW147524   5.702   5.646  14.436
15209SOL    HW247525   5.656   5.759  14.527
15210SOL     OW47526   0.112  12.921  14.156
15210SOL    HW147527   0.185  12.925  14.095
15210SOL    HW247528   0.038  12.890  14.103
15211SOL     OW47529   2.776   1.099   9.233
15211SOL    HW147530   2.684   1.085   9.214
15211SOL    HW247531   2.814   1.011   9.232
15212SOL     OW47532   3.965   9.601   6.400
15212SOL    HW147533   4.009   9.625   6.481
15212SOL    HW247534   3.950   9.507   6.408
15213SOL     OW47535  10.507   4.562  14.072
15213SOL    HW147536  10.469   4.478  14.099
15213SOL    HW247537  10.509   4.558  13.977
15214SOL     OW47538   5.457   8.026   7.819
15214SOL    HW147539   5.446   8.081   7.741
15214SOL    HW247540   5.443   7.937   7.787
15215SOL     OW47541  13.837   2.442   5.131
15215SOL    HW147542  13.908   2.484   5.180
15215SOL    HW247543  13.825   2.357   5.173
15216SOL     OW47544   5.821  14.221   0.483
15216SOL    HW147545   5.876  14.155   0.525
15216SOL    HW247546   5.785  14.177   0.406
15217SOL     OW47547  12.577   9.466   1.656
15217SOL    HW147548  12.499   9.510   1.690
15217SOL    HW247549  12.547   9.423   1.576
15218SOL     OW47550   0.887   8.844   2.120
15218SOL    HW147551   0.896   8.936   2.143
15218SOL    HW247552   0.902   8.841   2.025
15219SOL     OW47553   9.576   0.413   5.684
15219SOL    HW147554   9.657   0.431   5.636
15219SOL    HW247555   9.577   0.319   5.700
15220SOL     OW47556   8.509  11.708  14.127
15220SOL    HW147557   8.489  11.629  14.176
15220SOL    HW247558   8.444  11.710  14.056
15221SOL     OW47559  10.319   5.845   6.905
15221SOL    HW147560  10.388   5.808   6.961
15221SOL    HW247561  10.314   5.785   6.830
15222SOL     OW47562   4.061   4.132   9.715
15222SOL    HW147563   4.018   4.050   9.738
15222SOL    HW247564   4.004   4.171   9.649
15223SOL     OW47565   0.622   0.817   7.879
15223SOL    HW147566   0.542   0.818   7.827
15223SOL    HW247567   0.678   0.884   7.838
15224SOL     OW47568   6.410  10.954   9.226
15224SOL    HW147569   6.331  10.904   9.247
15224SOL    HW247570   6.436  10.996   9.308
15225SOL     OW47571  11.039   3.159   8.183
15225SOL    HW147572  11.129   3.161   8.151
15225SOL    HW247573  11.014   3.066   8.181
15226SOL     OW47574   4.293  12.342   5.207
15226SOL    HW147575   4.335  12.257   5.194
15226SOL    HW247576   4.207  12.320   5.245
15227SOL     OW47577   1.193  13.139  12.949
15227SOL    HW147578   1.287  13.148  12.968
15227SOL    HW247579   1.163  13.229  12.937
15228SOL     OW47580  10.190   2.440   1.530
15228SOL    HW147581  10.284   2.427   1.522
15228SOL    HW247582  10.180   2.508   1.596
15229SOL     OW47583   0.675   9.498  14.838
15229SOL    HW147584   0.762   9.536  14.849
15229SOL    HW247585   0.687   9.404  14.852
15230SOL     OW47586   6.851   8.597   7.132
15230SOL    HW147587   6.834   8.568   7.043
15230SOL    HW247588   6.831   8.521   7.187
15231SOL     OW47589   2.388   6.969   2.618
15231SOL    HW147590   2.400   6.878   2.645
15231SOL    HW247591   2.296   6.988   2.635
15232SOL     OW47592   3.547   7.227   0.696
15232SOL    HW147593   3.557   7.303   0.638
15232SOL    HW247594   3.588   7.155   0.649
15233SOL     OW47595   8.855  14.864   3.904
15233SOL    HW147596   8.762  14.850   3.887
15233SOL    HW247597   8.860   0.075   3.938
15234SOL     OW47598   7.949   1.182   4.462
15234SOL    HW147599   8.004   1.152   4.390
15234SOL    HW247600   8.011   1.210   4.530
15235SOL     OW47601   6.811   8.520  13.977
15235SOL    HW147602   6.872   8.506  14.050
15235SOL    HW247603   6.836   8.605  13.942
15236SOL     OW47604  11.073   0.669  11.435
15236SOL    HW147605  11.127   0.591  11.430
15236SOL    HW247606  11.033   0.677  11.348
15237SOL     OW47607   4.287  11.285  14.782
15237SOL    HW147608   4.195  11.313  14.790
15237SOL    HW247609   4.309  11.250  14.868
15238SOL     OW47610   7.346  11.522  10.484
15238SOL    HW147611   7.356  11.437  10.440
15238SOL    HW247612   7.436  11.552  10.497
15239SOL     OW47613   6.005   7.971  12.934
15239SOL    HW147614   6.070   8.035  12.906
15239SOL    HW247615   6.047   7.924  13.006
15240SOL     OW47616  12.854  13.605  11.634
15240SOL    HW147617  12.917  13.573  11.570
15240SOL    HW247618  12.869  13.700  11.636
15241SOL     OW47619   1.030   2.649  11.717
15241SOL    HW147620   1.043   2.604  11.633
15241SOL    HW247621   1.075   2.733  11.707
15242SOL     OW47622   8.084  10.078  14.162
15242SOL    HW147623   8.018  10.131  14.206
15242SOL    HW247624   8.126  10.028  14.232
15243SOL     OW47625   4.418  10.527  14.140
15243SOL    HW147626   4.403  10.447  14.191
15243SOL    HW247627   4.331  10.551  14.108
15244SOL     OW47628   8.686  13.626   1.399
15244SOL    HW147629   8.718  13.716   1.386
15244SOL    HW247630   8.670  13.620   1.494
15245SOL     OW47631  12.006   4.260   7.227
15245SOL    HW147632  12.065   4.261   7.152
15245SOL    HW247633  12.014   4.347   7.265
15246SOL     OW47634  11.897  10.712   5.266
15246SOL    HW147635  11.955  10.712   5.190
15246SOL    HW247636  11.812  10.740   5.232
15247SOL     OW47637  14.042  14.372   2.573
15247SOL    HW147638  14.065  14.426   2.648
15247SOL    HW247639  14.126  14.339   2.540
15248SOL     OW47640  13.765   3.758   3.954
15248SOL    HW147641  13.787   3.822   4.022
15248SOL    HW247642  13.676   3.780   3.928
15249SOL     OW47643  10.784   5.713   4.085
15249SOL    HW147644  10.858   5.766   4.116
15249SOL    HW247645  10.737   5.771   4.025
15250SOL     OW47646   6.509  13.251   6.522
15250SOL    HW147647   6.442  13.245   6.589
15250SOL    HW247648   6.509  13.343   6.496
15251SOL     OW47649   4.294   3.233  11.568
15251SOL    HW147650   4.336   3.307  11.524
15251SOL    HW247651   4.364   3.191  11.618
15252SOL     OW47652  13.736  13.856   7.445
15252SOL    HW147653  13.750  13.898   7.360
15252SOL    HW247654  13.744  13.762   7.426
15253SOL     OW47655  10.328   6.802  10.663
15253SOL    HW147656  10.407   6.857  10.656
15253SOL    HW247657  10.337   6.737  10.593
15254SOL     OW47658   0.328  11.842   6.534
15254SOL    HW147659   0.391  11.909   6.562
15254SOL    HW247660   0.243  11.886   6.538
15255SOL     OW47661  12.255   4.108   4.879
15255SOL    HW147662  12.211   4.043   4.824
15255SOL    HW247663  12.192   4.126   4.949
15256SOL     OW47664   1.440   8.134  11.047
15256SOL    HW147665   1.412   8.215  11.006
15256SOL    HW247666   1.386   8.126  11.126
15257SOL     OW47667   5.707   7.228  11.094
15257SOL    HW147668   5.618   7.260  11.111
15257SOL    HW247669   5.757   7.307  11.072
15258SOL     OW47670  12.052  12.364   1.135
15258SOL    HW147671  12.114  12.291   1.126
15258SOL    HW247672  12.089  12.419   1.204
15259SOL     OW47673  13.518  14.179  13.660
15259SOL    HW147674  13.474  14.264  13.649
15259SOL    HW247675  13.578  14.173  13.586
15260SOL     OW47676   7.495   6.247   4.113
15260SOL    HW147677   7.522   6.272   4.201
15260SOL    HW247678   7.416   6.299   4.096
15261SOL     OW47679   5.661   8.936   9.101
15261SOL    HW147680   5.566   8.922   9.102
15261SOL    HW247681   5.672   9.024   9.064
15262SOL     OW47682   7.880   7.128   0.435
15262SOL    HW147683   7.860   7.077   0.357
15262SOL    HW247684   7.967   7.165   0.418
15263SOL     OW47685   0.594   9.877   2.344
15263SOL    HW147686   0.600   9.851   2.252
15263SOL    HW247687   0.612   9.971   2.344
15264SOL     OW47688  12.520   6.984   4.524
15264SOL    HW147689  12.483   6.898   4.543
15264SOL    HW247690  12.590   6.994   4.589
15265SOL     OW47691   5.730   7.548   9.240
15265SOL    HW147692   5.760   7.493   9.168
15265SOL    HW247693   5.761   7.504   9.319
15266SOL     OW47694  12.976   5.649   8.632
15266SOL    HW147695  12.898   5.663   8.577
15266SOL    HW247696  13.049   5.675   8.576
15267SOL     OW47697  10.390   6.487  11.473
15267SOL    HW147698  10.313   6.457  11.521
15267SOL    HW247699  10.464   6.462  11.528
15268SOL     OW47700   9.699  14.255   3.022
15268SOL    HW147701   9.649  14.185   3.066
15268SOL    HW247702   9.654  14.267   2.939
15269SOL     OW47703   1.835   1.333   0.426
15269SOL    HW147704   1.790   1.249   0.418
15269SOL    HW247705   1.926   1.310   0.445
15270SOL     OW47706   1.993   7.036   3.691
15270SOL    HW147707   2.007   7.121   3.733
15270SOL    HW247708   1.901   7.038   3.663
15271SOL     OW47709   9.616   3.508  10.737
15271SOL    HW147710   9.520   3.500  10.743
15271SOL    HW247711   9.636   3.488  10.646
15272SOL     OW47712  14.295   8.745   3.285
15272SOL    HW147713  14.239   8.668   3.284
15272SOL    HW247714  14.360   8.729   3.217
15273SOL     OW47715   7.395   3.081   6.997
15273SOL    HW147716   7.421   3.161   7.042
15273SOL    HW247717   7.312   3.104   6.954
15274SOL     OW47718  13.037  14.469   7.447
15274SOL    HW147719  12.977  14.396   7.437
15274SOL    HW247720  13.114  14.444   7.395
15275SOL     OW47721   8.199   8.358  10.520
15275SOL    HW147722   8.142   8.420  10.566
15275SOL    HW247723   8.214   8.287  10.583
15276SOL     OW47724   3.180   2.123  11.681
15276SOL    HW147725   3.132   2.070  11.744
15276SOL    HW247726   3.197   2.063  11.608
15277SOL     OW47727   2.439  14.384   8.770
15277SOL    HW147728   2.400  14.416   8.851
15277SOL    HW247729   2.408  14.294   8.762
15278SOL     OW47730  13.692   8.889   6.133
15278SOL    HW147731  13.709   8.960   6.070
15278SOL    HW247732  13.661   8.933   6.211
15279SOL     OW47733   5.361  13.863   1.154
15279SOL    HW147734   5.282  13.855   1.101
15279SOL    HW247735   5.429  13.821   1.101
15280SOL     OW47736   9.220  10.221   8.119
15280SOL    HW147737   9.148  10.186   8.067
15280SOL    HW247738   9.227  10.313   8.093
15281SOL     OW47739   4.188   7.415   7.928
15281SOL    HW147740   4.130   7.343   7.952
15281SOL    HW247741   4.144   7.457   7.854
15282SOL     OW47742   7.744   2.418  10.121
15282SOL    HW147743   7.801   2.413  10.044
15282SOL    HW247744   7.692   2.338  10.117
15283SOL     OW47745  12.520   6.524  14.084
15283SOL    HW147746  12.471   6.603  14.062
15283SOL    HW247747  12.456   6.467  14.128
15284SOL     OW47748  13.321   7.618  10.406
15284SOL    HW147749  13.280   7.649  10.487
15284SOL    HW247750  13.250   7.577  10.357
15285SOL     OW47751  10.429  10.500   0.255
15285SOL    HW147752  10.399  10.536   0.172
15285SOL    HW247753  10.350  10.500   0.310
15286SOL     OW47754  10.086   7.094   5.737
15286SOL    HW147755  10.008   7.053   5.699
15286SOL    HW247756  10.059   7.184   5.755
15287SOL     OW47757  10.197  12.605  12.478
15287SOL    HW147758  10.183  12.672  12.411
15287SOL    HW247759  10.254  12.540  12.437
15288SOL     OW47760   9.803   9.660   6.485
15288SOL    HW147761   9.851   9.708   6.418
15288SOL    HW247762   9.747   9.600   6.436
15289SOL     OW47763   9.024   1.090  11.782
15289SOL    HW147764   8.982   1.037  11.850
15289SOL    HW247765   8.978   1.174  11.786
15290SOL     OW47766  12.713  14.517  12.005
15290SOL    HW147767  12.706  14.429  11.969
15290SOL    HW247768  12.744  14.571  11.932
15291SOL     OW47769  12.906  11.337   2.121
15291SOL    HW147770  12.844  11.384   2.065
15291SOL    HW247771  12.897  11.380   2.207
15292SOL     OW47772   1.011  12.895   6.464
15292SOL    HW147773   0.936  12.954   6.476
15292SOL    HW247774   1.030  12.863   6.552
15293SOL     OW47775   4.853   6.066  11.183
15293SOL    HW147776   4.826   6.138  11.126
15293SOL    HW247777   4.948   6.075  11.189
15294SOL     OW47778   6.074  11.508   3.852
15294SOL    HW147779   6.038  11.566   3.784
15294SOL    HW247780   6.024  11.528   3.930
15295SOL     OW47781   5.953  13.648   8.279
15295SOL    HW147782   5.924  13.659   8.188
15295SOL    HW247783   6.006  13.568   8.277
15296SOL     OW47784   9.094   0.888  10.718
15296SOL    HW147785   9.006   0.858  10.743
15296SOL    HW247786   9.115   0.956  10.781
15297SOL     OW47787   2.540   2.941   7.213
15297SOL    HW147788   2.478   2.906   7.149
15297SOL    HW247789   2.487   2.997   7.269
15298SOL     OW47790   2.598   6.163   3.370
15298SOL    HW147791   2.568   6.253   3.358
15298SOL    HW247792   2.580   6.120   3.287
15299SOL     OW47793  12.100  10.941  13.899
15299SOL    HW147794  12.013  10.923  13.864
15299SOL    HW247795  12.090  11.024  13.946
15300SOL     OW47796   5.206   4.066   8.712
15300SOL    HW147797   5.161   4.143   8.678
15300SOL    HW247798   5.285   4.059   8.659
15301SOL     OW47799   5.297   9.563  10.397
15301SOL    HW147800   5.337   9.648  10.414
15301SOL    HW247801   5.283   9.525  10.484
15302SOL     OW47802  14.658  14.790   9.276
15302SOL    HW147803  14.735  14.825   9.321
15302SOL    HW247804  14.642  14.705   9.319
15303SOL     OW47805   6.805   1.488   4.400
15303SOL    HW147806   6.890   1.476   4.358
15303SOL    HW247807   6.748   1.424   4.358
15304SOL     OW47808   8.013   2.093   0.179
15304SOL    HW147809   7.973   2.129   0.258
15304SOL    HW247810   8.023   2.169   0.121
15305SOL     OW47811   4.997   1.271  11.948
15305SOL    HW147812   5.065   1.339  11.952
15305SOL    HW247813   4.982   1.247  12.039
15306SOL     OW47814   9.493   9.140  11.634
15306SOL    HW147815   9.449   9.058  11.612
15306SOL    HW247816   9.460   9.203  11.571
15307SOL     OW47817   4.364   9.536   5.734
15307SOL    HW147818   4.321   9.622   5.728
15307SOL    HW247819   4.297   9.478   5.770
15308SOL     OW47820   8.591   3.980   3.188
15308SOL    HW147821   8.535   3.913   3.148
15308SOL    HW247822   8.571   4.060   3.140
15309SOL     OW47823  12.379  11.312   9.465
15309SOL    HW147824  12.435  11.329   9.389
15309SOL    HW247825  12.299  11.361   9.447
15310SOL     OW47826   6.473  10.716  10.201
15310SOL    HW147827   6.538  10.650  10.222
15310SOL    HW247828   6.463  10.766  10.282
15311SOL     OW47829   2.114   8.517   3.563
15311SOL    HW147830   2.077   8.542   3.478
15311SOL    HW247831   2.069   8.436   3.586
15312SOL     OW47832   0.291  10.613   4.931
15312SOL    HW147833   0.313  10.628   5.023
15312SOL    HW247834   0.375  10.619   4.885
15313SOL     OW47835   7.859   9.216   4.803
15313SOL    HW147836   7.935   9.158   4.811
15313SOL    HW247837   7.791   9.160   4.766
15314SOL     OW47838  10.033   8.901   7.927
15314SOL    HW147839   9.959   8.957   7.951
15314SOL    HW247840   9.994   8.826   7.884
15315SOL     OW47841   6.955   7.618  10.157
15315SOL    HW147842   7.032   7.674  10.142
15315SOL    HW247843   6.982   7.532  10.126
15316SOL     OW47844   1.434  13.077  10.768
15316SOL    HW147845   1.470  13.100  10.683
15316SOL    HW247846   1.469  12.990  10.787
15317SOL     OW47847   4.129  11.224   6.481
15317SOL    HW147848   4.047  11.241   6.528
15317SOL    HW247849   4.196  11.228   6.548
15318SOL     OW47850   4.019  12.899  14.161
15318SOL    HW147851   4.071  12.968  14.203
15318SOL    HW247852   4.020  12.827  14.224
15319SOL     OW47853   4.043   1.965  12.950
15319SOL    HW147854   3.987   2.014  12.889
15319SOL    HW247855   3.984   1.905  12.994
15320SOL     OW47856   9.295  13.483   2.993
15320SOL    HW147857   9.290  13.574   3.021
15320SOL    HW247858   9.229  13.438   3.044
15321SOL     OW47859  11.479  13.151   4.068
15321SOL    HW147860  11.442  13.081   4.015
15321SOL    HW247861  11.406  13.211   4.084
15322SOL     OW47862   0.813   2.623   4.111
15322SOL    HW147863   0.811   2.641   4.017
15322SOL    HW247864   0.874   2.687   4.147
15323SOL     OW47865   2.557  10.524   1.990
15323SOL    HW147866   2.579  10.616   2.006
15323SOL    HW247867   2.641  10.478   1.992
15324SOL     OW47868   8.652   1.737  13.925
15324SOL    HW147869   8.578   1.737  13.987
15324SOL    HW247870   8.721   1.786  13.971
15325SOL     OW47871   6.034   9.560   4.253
15325SOL    HW147872   6.051   9.483   4.307
15325SOL    HW247873   6.120   9.598   4.237
15326SOL     OW47874  13.161   6.550  12.449
15326SOL    HW147875  13.169   6.470  12.501
15326SOL    HW247876  13.251   6.575  12.430
15327SOL     OW47877  12.001  12.567   3.440
15327SOL    HW147878  12.057  12.557   3.517
15327SOL    HW247879  12.023  12.492   3.385
15328SOL     OW47880   6.876   8.972  11.034
15328SOL    HW147881   6.871   8.914  10.958
15328SOL    HW247882   6.969   8.978  11.053
15329SOL     OW47883   9.747   6.091  12.774
15329SOL    HW147884   9.760   6.002  12.742
15329SOL    HW247885   9.823   6.139  12.742
15330SOL     OW47886  10.459   7.985  14.356
15330SOL    HW147887  10.437   7.925  14.285
15330SOL    HW247888  10.419   7.947  14.434
15331SOL     OW47889   7.956  11.633  13.042
15331SOL    HW147890   8.015  11.677  12.981
15331SOL    HW247891   7.885  11.695  13.055
15332SOL     OW47892   0.976   3.944   7.687
15332SOL    HW147893   0.905   3.900   7.733
15332SOL    HW247894   1.017   4.000   7.753
15333SOL     OW47895   3.240   1.821   7.909
15333SOL    HW147896   3.263   1.914   7.905
15333SOL    HW247897   3.323   1.776   7.918
15334SOL     OW47898  12.937   4.218   8.714
15334SOL    HW147899  12.943   4.193   8.622
15334SOL    HW247900  12.866   4.282   8.717
15335SOL     OW47901  13.589   2.986   7.989
15335SOL    HW147902  13.613   3.057   8.049
15335SOL    HW247903  13.655   2.991   7.919
15336SOL     OW47904   3.887  13.329   1.134
15336SOL    HW147905   3.934  13.278   1.069
15336SOL    HW247906   3.806  13.281   1.148
15337SOL     OW47907   7.238   1.280   6.164
15337SOL    HW147908   7.229   1.355   6.223
15337SOL    HW247909   7.185   1.304   6.088
15338SOL     OW47910  11.380  13.100  14.560
15338SOL    HW147911  11.467  13.062  14.569
15338SOL    HW247912  11.388  13.161  14.487
15339SOL     OW47913  12.727   7.017   6.152
15339SOL    HW147914  12.755   7.108   6.156
15339SOL    HW247915  12.717   6.990   6.243
15340SOL     OW47916   7.212  11.303   9.850
15340SOL    HW147917   7.214  11.207   9.847
15340SOL    HW247918   7.155  11.329   9.778
15341SOL     OW47919  13.950   4.555   8.177
15341SOL    HW147920  13.953   4.463   8.203
15341SOL    HW247921  13.876   4.561   8.117
15342SOL     OW47922   1.372   6.648  10.808
15342SOL    HW147923   1.311   6.627  10.737
15342SOL    HW247924   1.319   6.698  10.870
15343SOL     OW47925   8.926   9.235  11.426
15343SOL    HW147926   8.951   9.264  11.514
15343SOL    HW247927   8.846   9.185  11.439
15344SOL     OW47928  14.376   0.137  13.118
15344SOL    HW147929  14.410   0.050  13.095
15344SOL    HW247930  14.282   0.131  13.101
15345SOL     OW47931  10.774  14.130   6.482
15345SOL    HW147932  10.755  14.215   6.521
15345SOL    HW247933  10.688  14.086   6.476
15346SOL     OW47934   7.108   0.269   9.052
15346SOL    HW147935   7.062   0.300   9.131
15346SOL    HW247936   7.084   0.177   9.045
15347SOL     OW47937   4.745   0.683  14.800
15347SOL    HW147938   4.711   0.609  14.851
15347SOL    HW247939   4.671   0.743  14.792
15348SOL     OW47940   6.031   8.590  13.553
15348SOL    HW147941   6.040   8.650  13.479
15348SOL    HW247942   6.091   8.518  13.535
15349SOL     OW47943   9.071  12.839   5.935
15349SOL    HW147944   8.981  12.843   5.967
15349SOL    HW247945   9.118  12.789   6.002
15350SOL     OW47946   0.166   4.441  10.894
15350SOL    HW147947   0.105   4.368  10.879
15350SOL    HW247948   0.214   4.417  10.973
15351SOL     OW47949   7.507   8.553   6.727
15351SOL    HW147950   7.516   8.647   6.713
15351SOL    HW247951   7.504   8.544   6.822
15352SOL     OW47952   6.623  13.628  13.091
15352SOL    HW147953   6.655  13.645  13.180
15352SOL    HW247954   6.690  13.666  13.034
15353SOL     OW47955  14.786   1.980   5.421
15353SOL    HW147956  14.764   2.050   5.482
15353SOL    HW247957  14.784   1.901   5.475
15354SOL     OW47958  11.268   1.394   5.819
15354SOL    HW147959  11.183   1.363   5.849
15354SOL    HW247960  11.285   1.472   5.872
15355SOL     OW47961   7.683  11.534  10.151
15355SOL    HW147962   7.659  11.443  10.133
15355SOL    HW247963   7.677  11.578  10.066
15356SOL     OW47964  10.757  14.508   8.214
15356SOL    HW147965  10.753  14.601   8.237
15356SOL    HW247966  10.851  14.491   8.201
15357SOL     OW47967  12.348   9.553   9.114
15357SOL    HW147968  12.421   9.549   9.052
15357SOL    HW247969  12.283   9.609   9.071
15358SOL     OW47970  12.165  12.391   7.260
15358SOL    HW147971  12.150  12.476   7.219
15358SOL    HW247972  12.145  12.327   7.191
15359SOL     OW47973   5.466   0.882   7.382
15359SOL    HW147974   5.562   0.879   7.378
15359SOL    HW247975   5.447   0.913   7.471
15360SOL     OW47976  10.252   6.214   7.671
15360SOL    HW147977  10.281   6.140   7.724
15360SOL    HW247978  10.327   6.273   7.668
15361SOL     OW47979   1.066   8.379   4.223
15361SOL    HW147980   1.153   8.400   4.258
15361SOL    HW247981   1.075   8.391   4.128
15362SOL     OW47982   7.218  10.259  14.321
15362SOL    HW147983   7.174  10.267  14.406
15362SOL    HW247984   7.167  10.193  14.274
15363SOL     OW47985   4.049   0.254  12.422
15363SOL    HW147986   4.035   0.208  12.339
15363SOL    HW247987   4.031   0.187  12.489
15364SOL     OW47988   0.785   6.675  13.919
15364SOL    HW147989   0.730   6.605  13.955
15364SOL    HW247990   0.840   6.631  13.855
15365SOL     OW47991  10.702  12.759  11.933
15365SOL    HW147992  10.786  12.769  11.979
15365SOL    HW247993  10.675  12.669  11.953
15366SOL     OW47994   7.508   8.338   9.301
15366SOL    HW147995   7.484   8.431   9.294
15366SOL    HW247996   7.595   8.339   9.340
15367SOL     OW47997  10.633   6.285  13.723
15367SOL    HW147998  10.657   6.364  13.770
15367SOL    HW247999  10.577   6.317  13.651
15368SOL     OW48000   8.226   9.763   0.497
15368SOL    HW148001   8.248   9.760   0.404
15368SOL    HW248002   8.244   9.674   0.529
15369SOL     OW48003  10.159   7.095   9.691
15369SOL    HW148004  10.137   7.035   9.619
15369SOL    HW248005  10.247   7.125   9.671
15370SOL     OW48006   1.459   6.275   5.032
15370SOL    HW148007   1.554   6.284   5.034
15370SOL    HW248008   1.437   6.226   5.111
15371SOL     OW48009   0.362   9.610  13.199
15371SOL    HW148010   0.390   9.682  13.257
15371SOL    HW248011   0.435   9.599  13.138
15372SOL     OW48012   2.294  13.582  12.099
15372SOL    HW148013   2.292  13.647  12.169
15372SOL    HW248014   2.203  13.553  12.091
15373SOL     OW48015  11.839   5.113   7.705
15373SOL    HW148016  11.822   5.021   7.685
15373SOL    HW248017  11.767   5.161   7.665
15374SOL     OW48018   1.277   5.740   8.916
15374SOL    HW148019   1.215   5.698   8.856
15374SOL    HW248020   1.249   5.713   9.003
15375SOL     OW48021  11.985   6.222   2.318
15375SOL    HW148022  11.909   6.243   2.264
15375SOL    HW248023  12.060   6.240   2.261
15376SOL     OW48024  13.605   2.227  10.402
15376SOL    HW148025  13.628   2.170  10.329
15376SOL    HW248026  13.568   2.169  10.468
15377SOL     OW48027  12.181   1.747   0.141
15377SOL    HW148028  12.240   1.750   0.216
15377SOL    HW248029  12.225   1.688   0.079
15378SOL     OW48030   3.852   5.502  12.840
15378SOL    HW148031   3.864   5.547  12.756
15378SOL    HW248032   3.872   5.411  12.821
15379SOL     OW48033   4.376   6.963   2.067
15379SOL    HW148034   4.349   6.887   2.016
15379SOL    HW248035   4.444   6.929   2.125
15380SOL     OW48036   7.657   2.647   2.222
15380SOL    HW148037   7.647   2.639   2.316
15380SOL    HW248038   7.567   2.651   2.188
15381SOL     OW48039   1.226   6.490   6.647
15381SOL    HW148040   1.181   6.420   6.600
15381SOL    HW248041   1.179   6.569   6.622
15382SOL     OW48042   9.343   3.055   0.248
15382SOL    HW148043   9.274   3.014   0.301
15382SOL    HW248044   9.380   3.122   0.305
15383SOL     OW48045   1.774   4.091   5.783
15383SOL    HW148046   1.690   4.133   5.764
15383SOL    HW248047   1.764   4.057   5.872
15384SOL     OW48048  13.371   2.668   8.530
15384SOL    HW148049  13.298   2.730   8.535
15384SOL    HW248050  13.449   2.723   8.535
15385SOL     OW48051   9.526   3.001  14.546
15385SOL    HW148052   9.454   2.961  14.595
15385SOL    HW248053   9.496   3.090  14.527
15386SOL     OW48054   3.222   1.966   4.533
15386SOL    HW148055   3.134   1.997   4.555
15386SOL    HW248056   3.274   1.985   4.611
15387SOL     OW48057  10.943   5.781   7.729
15387SOL    HW148058  10.873   5.725   7.696
15387SOL    HW248059  10.946   5.855   7.669
15388SOL     OW48060  13.048   3.836  13.742
15388SOL    HW148061  12.967   3.785  13.737
15388SOL    HW248062  13.117   3.771  13.759
15389SOL     OW48063  12.366  14.615  12.361
15389SOL    HW148064  12.307  14.672  12.410
15389SOL    HW248065  12.434  14.673  12.327
15390SOL     OW48066   4.996  10.651   7.203
15390SOL    HW148067   5.055  10.667   7.130
15390SOL    HW248068   4.909  10.651   7.163
15391SOL     OW48069   2.117   0.352  14.521
15391SOL    HW148070   2.063   0.284  14.561
15391SOL    HW248071   2.064   0.388  14.450
15392SOL     OW48072  11.261  12.870  14.428
15392SOL    HW148073  11.216  12.799  14.474
15392SOL    HW248074  11.291  12.929  14.497
15393SOL     OW48075  11.617   6.979   6.285
15393SOL    HW148076  11.686   6.913   6.277
15393SOL    HW248077  11.544   6.944   6.234
15394SOL     OW48078   9.859   0.610  13.582
15394SOL    HW148079   9.906   0.578  13.659
15394SOL    HW248080   9.776   0.562  13.583
15395SOL     OW48081  14.158   7.786  10.869
15395SOL    HW148082  14.094   7.733  10.915
15395SOL    HW248083  14.145   7.875  10.903
15396SOL     OW48084   9.379   0.721  14.269
15396SOL    HW148085   9.349   0.701  14.357
15396SOL    HW248086   9.472   0.744  14.279
15397SOL     OW48087  13.915  13.488  13.576
15397SOL    HW148088  13.856  13.515  13.505
15397SOL    HW248089  13.869  13.514  13.656
15398SOL     OW48090   9.200  11.765  11.886
15398SOL    HW148091   9.249  11.840  11.853
15398SOL    HW248092   9.140  11.742  11.815
15399SOL     OW48093  10.005   8.379  14.681
15399SOL    HW148094   9.985   8.286  14.672
15399SOL    HW248095  10.014   8.410  14.591
15400SOL     OW48096  12.444   3.846   5.651
15400SOL    HW148097  12.379   3.864   5.718
15400SOL    HW248098  12.411   3.769   5.605
15401SOL     OW48099   1.149  11.248   9.994
15401SOL    HW148100   1.112  11.295   9.919
15401SOL    HW248101   1.099  11.279  10.069
15402SOL     OW48102   8.736   4.881  13.315
15402SOL    HW148103   8.749   4.970  13.348
15402SOL    HW248104   8.750   4.825  13.392
15403SOL     OW48105   5.797  10.272   8.065
15403SOL    HW148106   5.710  10.232   8.072
15403SOL    HW248107   5.782  10.366   8.078
15404SOL     OW48108   1.377  11.994  11.877
15404SOL    HW148109   1.429  11.945  11.940
15404SOL    HW248110   1.359  11.932  11.807
15405SOL     OW48111   8.786   7.417   6.995
15405SOL    HW148112   8.854   7.399   7.061
15405SOL    HW248113   8.778   7.335   6.946
15406SOL     OW48114  11.320  10.789   0.979
15406SOL    HW148115  11.361  10.711   0.941
15406SOL    HW248116  11.289  10.759   1.065
15407SOL     OW48117  12.693  11.036   1.538
15407SOL    HW148118  12.736  10.951   1.538
15407SOL    HW248119  12.751  11.092   1.486
15408SOL     OW48120   7.146   0.200   1.506
15408SOL    HW148121   7.121   0.285   1.542
15408SOL    HW248122   7.162   0.217   1.413
15409SOL     OW48123   2.862   0.761  14.060
15409SOL    HW148124   2.952   0.783  14.084
15409SOL    HW248125   2.867   0.734  13.969
15410SOL     OW48126   9.464  10.045   9.689
15410SOL    HW148127   9.521  10.062   9.614
15410SOL    HW248128   9.487  10.112   9.753
15411SOL     OW48129   7.543   7.765   8.796
15411SOL    HW148130   7.518   7.776   8.888
15411SOL    HW248131   7.631   7.800   8.791
15412SOL     OW48132   5.301   9.430   1.580
15412SOL    HW148133   5.348   9.375   1.642
15412SOL    HW248134   5.305   9.518   1.618
15413SOL     OW48135   6.088   7.234   3.378
15413SOL    HW148136   6.102   7.298   3.448
15413SOL    HW248137   6.105   7.282   3.297
15414SOL     OW48138   0.830   3.371   1.132
15414SOL    HW148139   0.758   3.321   1.093
15414SOL    HW248140   0.798   3.461   1.133
15415SOL     OW48141  12.924   7.982   9.829
15415SOL    HW148142  12.905   8.048   9.763
15415SOL    HW248143  12.886   8.016   9.910
15416SOL     OW48144   3.622   1.816   1.854
15416SOL    HW148145   3.607   1.894   1.908
15416SOL    HW248146   3.555   1.754   1.882
15417SOL     OW48147   3.186   7.521   3.286
15417SOL    HW148148   3.276   7.526   3.320
15417SOL    HW248149   3.131   7.520   3.364
15418SOL     OW48150   7.315  10.782  11.811
15418SOL    HW148151   7.328  10.694  11.848
15418SOL    HW248152   7.391  10.832  11.839
15419SOL     OW48153   2.144   6.586   6.083
15419SOL    HW148154   2.212   6.518   6.085
15419SOL    HW248155   2.079   6.556   6.146
15420SOL     OW48156   1.473   2.881  10.923
15420SOL    HW148157   1.463   2.975  10.905
15420SOL    HW248158   1.536   2.878  10.995
15421SOL     OW48159  14.798  10.366   3.959
15421SOL    HW148160   0.005  10.366   4.003
15421SOL    HW248161  14.782  10.274   3.939
15422SOL     OW48162   8.508   0.796   1.319
15422SOL    HW148163   8.581   0.746   1.281
15422SOL    HW248164   8.444   0.729   1.342
15423SOL     OW48165   7.512   3.027   5.430
15423SOL    HW148166   7.551   3.114   5.439
15423SOL    HW248167   7.464   3.014   5.512
15424SOL     OW48168  12.382   6.343  10.434
15424SOL    HW148169  12.322   6.365  10.506
15424SOL    HW248170  12.363   6.252  10.413
15425SOL     OW48171   3.008  13.964  10.428
15425SOL    HW148172   3.036  13.874  10.445
15425SOL    HW248173   3.084  14.017  10.451
15426SOL     OW48174   2.158   2.364   3.485
15426SOL    HW148175   2.253   2.362   3.473
15426SOL    HW248176   2.146   2.386   3.577
15427SOL     OW48177  14.189   2.119   9.272
15427SOL    HW148178  14.166   2.204   9.235
15427SOL    HW248179  14.275   2.099   9.235
15428SOL     OW48180  10.883  14.487  13.145
15428SOL    HW148181  10.915  14.537  13.069
15428SOL    HW248182  10.962  14.465  13.194
15429SOL     OW48183   0.475   5.488  11.257
15429SOL    HW148184   0.542   5.517  11.195
15429SOL    HW248185   0.524   5.435  11.321
15430SOL     OW48186   1.908   9.607   5.674
15430SOL    HW148187   1.964   9.529   5.681
15430SOL    HW248188   1.930   9.659   5.751
15431SOL     OW48189  13.322   8.589   6.766
15431SOL    HW148190  13.261   8.536   6.818
15431SOL    HW248191  13.275   8.670   6.748
15432SOL     OW48192  14.111   5.561   7.276
15432SOL    HW148193  14.119   5.638   7.219
15432SOL    HW248194  14.142   5.488   7.222
15433SOL     OW48195  10.513   1.221   4.294
15433SOL    HW148196  10.503   1.273   4.214
15433SOL    HW248197  10.453   1.261   4.357
15434SOL     OW48198   4.234   0.974   8.780
15434SOL    HW148199   4.151   0.976   8.732
15434SOL    HW248200   4.268   0.886   8.765
15435SOL     OW48201   4.247  12.827   1.529
15435SOL    HW148202   4.298  12.753   1.562
15435SOL    HW248203   4.313  12.889   1.498
15436SOL     OW48204  13.690   2.008   1.309
15436SOL    HW148205  13.744   1.982   1.384
15436SOL    HW248206  13.676   2.102   1.320
15437SOL     OW48207   2.792   1.035   4.043
15437SOL    HW148208   2.802   1.009   3.952
15437SOL    HW248209   2.699   1.027   4.061
15438SOL     OW48210  13.082  13.680  11.256
15438SOL    HW148211  13.042  13.635  11.331
15438SOL    HW248212  13.176  13.672  11.271
15439SOL     OW48213   7.645   0.705   9.707
15439SOL    HW148214   7.560   0.731   9.670
15439SOL    HW248215   7.630   0.700   9.801
15440SOL     OW48216   6.250   3.332   8.180
15440SOL    HW148217   6.192   3.403   8.207
15440SOL    HW248218   6.324   3.337   8.240
15441SOL     OW48219  10.784   5.759   3.670
15441SOL    HW148220  10.828   5.836   3.707
15441SOL    HW248221  10.719   5.735   3.736
15442SOL     OW48222  13.233  14.036   6.295
15442SOL    HW148223  13.179  13.977   6.348
15442SOL    HW248224  13.272  13.979   6.229
15443SOL     OW48225  11.598  12.835   5.922
15443SOL    HW148226  11.506  12.842   5.896
15443SOL    HW248227  11.610  12.743   5.946
15444SOL     OW48228   6.618   9.301   6.515
15444SOL    HW148229   6.534   9.347   6.506
15444SOL    HW248230   6.660   9.310   6.429
15445SOL     OW48231   2.020   5.656  10.819
15445SOL    HW148232   1.958   5.681  10.751
15445SOL    HW248233   2.006   5.719  10.889
15446SOL     OW48234   2.122   3.495   7.755
15446SOL    HW148235   2.047   3.555   7.755
15446SOL    HW248236   2.198   3.552   7.764
15447SOL     OW48237   9.607   2.621   9.005
15447SOL    HW148238   9.539   2.590   9.065
15447SOL    HW248239   9.559   2.650   8.927
15448SOL     OW48240   8.418   6.968   5.585
15448SOL    HW148241   8.362   6.941   5.513
15448SOL    HW248242   8.409   6.898   5.650
15449SOL     OW48243  11.113   5.527   2.071
15449SOL    HW148244  11.129   5.493   2.159
15449SOL    HW248245  11.194   5.573   2.049
15450SOL     OW48246   2.234   9.409  13.477
15450SOL    HW148247   2.285   9.474  13.525
15450SOL    HW248248   2.150   9.452  13.459
15451SOL     OW48249   9.789  13.937   2.682
15451SOL    HW148250   9.852  13.976   2.743
15451SOL    HW248251   9.757  13.859   2.727
15452SOL     OW48252   5.254   7.510  13.020
15452SOL    HW148253   5.286   7.521  13.109
15452SOL    HW248254   5.307   7.440  12.983
15453SOL     OW48255  13.595  13.768   1.157
15453SOL    HW148256  13.542  13.688   1.158
15453SOL    HW248257  13.681  13.740   1.126
15454SOL     OW48258   3.343  10.061   8.261
15454SOL    HW148259   3.426  10.015   8.247
15454SOL    HW248260   3.289  10.035   8.187
15455SOL     OW48261  11.499   3.205  11.478
15455SOL    HW148262  11.501   3.282  11.535
15455SOL    HW248263  11.498   3.131  11.538
15456SOL     OW48264  11.315   5.578   4.263
15456SOL    HW148265  11.332   5.524   4.186
15456SOL    HW248266  11.235   5.625   4.241
15457SOL     OW48267  12.684  10.563  14.187
15457SOL    HW148268  12.711  10.493  14.127
15457SOL    HW248269  12.723  10.539  14.271
15458SOL     OW48270  10.122   2.878   8.000
15458SOL    HW148271  10.194   2.815   8.008
15458SOL    HW248272  10.047   2.832   8.038
15459SOL     OW48273   1.905   8.262  12.039
15459SOL    HW148274   1.847   8.258  12.115
15459SOL    HW248275   1.898   8.352  12.008
15460SOL     OW48276  10.350   6.743  13.925
15460SOL    HW148277  10.262   6.778  13.911
15460SOL    HW248278  10.349   6.709  14.014
15461SOL     OW48279  14.450  11.439   3.289
15461SOL    HW148280  14.395  11.512   3.321
15461SOL    HW248281  14.517  11.429   3.356
15462SOL     OW48282  12.825  10.208   6.845
15462SOL    HW148283  12.835  10.131   6.900
15462SOL    HW248284  12.878  10.189   6.767
15463SOL     OW48285   2.631  14.263   6.495
15463SOL    HW148286   2.677  14.325   6.439
15463SOL    HW248287   2.655  14.288   6.584
15464SOL     OW48288  14.400   7.691   4.050
15464SOL    HW148289  14.482   7.717   4.091
15464SOL    HW248290  14.381   7.761   3.987
15465SOL     OW48291  12.125   2.391   4.041
15465SOL    HW148292  12.136   2.473   4.089
15465SOL    HW248293  12.211   2.348   4.048
15466SOL     OW48294  10.900   7.613   7.459
15466SOL    HW148295  10.990   7.641   7.442
15466SOL    HW248296  10.907   7.557   7.537
15467SOL     OW48297  12.611   9.904  12.280
15467SOL    HW148298  12.634   9.924  12.189
15467SOL    HW248299  12.568   9.819  12.276
15468SOL     OW48300   2.437   7.688   4.392
15468SOL    HW148301   2.427   7.690   4.297
15468SOL    HW248302   2.526   7.656   4.407
15469SOL     OW48303   0.481   3.883   4.975
15469SOL    HW148304   0.391   3.888   5.005
15469SOL    HW248305   0.503   3.790   4.980
15470SOL     OW48306   8.420  11.629   0.680
15470SOL    HW148307   8.413  11.552   0.736
15470SOL    HW248308   8.386  11.600   0.595
15471SOL     OW48309   1.636  14.422  12.324
15471SOL    HW148310   1.547  14.451  12.344
15471SOL    HW248311   1.658  14.468  12.242
15472SOL     OW48312  11.950   7.971  11.922
15472SOL    HW148313  11.861   7.941  11.943
15472SOL    HW248314  11.990   7.986  12.008
15473SOL     OW48315  12.352   7.751   0.648
15473SOL    HW148316  12.311   7.694   0.713
15473SOL    HW248317  12.323   7.839   0.671
15474SOL     OW48318  12.984   4.629  10.936
15474SOL    HW148319  13.026   4.553  10.976
15474SOL    HW248320  13.049   4.663  10.875
15475SOL     OW48321   1.047   0.404   5.776
15475SOL    HW148322   0.999   0.323   5.760
15475SOL    HW248323   1.094   0.388   5.858
15476SOL     OW48324   1.963   6.062   6.094
15476SOL    HW148325   1.950   5.989   6.155
15476SOL    HW248326   2.037   6.110   6.129
15477SOL     OW48327   6.161   7.348  12.891
15477SOL    HW148328   6.189   7.427  12.937
15477SOL    HW248329   6.242   7.303  12.867
15478SOL     OW48330   2.282   5.637  12.698
15478SOL    HW148331   2.200   5.648  12.649
15478SOL    HW248332   2.258   5.583  12.774
15479SOL     OW48333   0.375  13.197   9.360
15479SOL    HW148334   0.444  13.132   9.364
15479SOL    HW248335   0.391  13.245   9.278
15480SOL     OW48336   2.807  13.653   7.969
15480SOL    HW148337   2.845  13.718   8.029
15480SOL    HW248338   2.750  13.704   7.912
15481SOL     OW48339   5.674   3.978   7.369
15481SOL    HW148340   5.614   3.914   7.407
15481SOL    HW248341   5.662   4.057   7.422
15482SOL     OW48342   0.545  12.886   5.221
15482SOL    HW148343   0.575  12.976   5.226
15482SOL    HW248344   0.473  12.881   5.284
15483SOL     OW48345   7.842   6.989   7.253
15483SOL    HW148346   7.826   7.073   7.208
15483SOL    HW248347   7.820   7.006   7.344
15484SOL     OW48348   6.373   0.030   1.815
15484SOL    HW148349   6.444   0.043   1.877
15484SOL    HW248350   6.359   0.116   1.777
15485SOL     OW48351  10.619  11.653   4.316
15485SOL    HW148352  10.614  11.739   4.357
15485SOL    HW248353  10.647  11.671   4.226
15486SOL     OW48354  10.922  10.320   9.409
15486SOL    HW148355  10.896  10.228   9.405
15486SOL    HW248356  10.942  10.335   9.501
15487SOL     OW48357   1.600   2.011   0.735
15487SOL    HW148358   1.570   1.959   0.660
15487SOL    HW248359   1.644   2.086   0.695
15488SOL     OW48360   3.103  13.859   1.470
15488SOL    HW148361   3.047  13.783   1.484
15488SOL    HW248362   3.187  13.823   1.442
15489SOL     OW48363  12.955   0.289   1.046
15489SOL    HW148364  12.922   0.375   1.069
15489SOL    HW248365  12.883   0.229   1.066
15490SOL     OW48366  13.000   5.650   2.355
15490SOL    HW148367  13.033   5.566   2.387
15490SOL    HW248368  13.056   5.671   2.279
15491SOL     OW48369   5.716  14.720   5.881
15491SOL    HW148370   5.809  14.728   5.860
15491SOL    HW248371   5.688  14.810   5.900
15492SOL     OW48372   9.233   2.670   2.453
15492SOL    HW148373   9.241   2.574   2.455
15492SOL    HW248374   9.205   2.690   2.364
15493SOL     OW48375   1.516   1.811  10.394
15493SOL    HW148376   1.553   1.853  10.316
15493SOL    HW248377   1.473   1.882  10.442
15494SOL     OW48378  14.687  10.173   6.171
15494SOL    HW148379  14.750  10.179   6.242
15494SOL    HW248380  14.674  10.079   6.157
15495SOL     OW48381   0.604   4.587   8.547
15495SOL    HW148382   0.604   4.615   8.639
15495SOL    HW248383   0.646   4.659   8.500
15496SOL     OW48384  10.807   0.578   8.539
15496SOL    HW148385  10.851   0.508   8.492
15496SOL    HW248386  10.818   0.557   8.631
15497SOL     OW48387   3.718   8.579  13.205
15497SOL    HW148388   3.677   8.514  13.148
15497SOL    HW248389   3.742   8.651  13.146
15498SOL     OW48390  12.625   7.057   7.576
15498SOL    HW148391  12.679   7.073   7.498
15498SOL    HW248392  12.546   7.016   7.542
15499SOL     OW48393   7.579   9.842  14.620
15499SOL    HW148394   7.579   9.936  14.637
15499SOL    HW248395   7.672   9.818  14.618
15500SOL     OW48396  13.288   9.900  12.167
15500SOL    HW148397  13.288   9.985  12.123
15500SOL    HW248398  13.220   9.907  12.234
15501SOL     OW48399  12.383  11.942   4.551
15501SOL    HW148400  12.412  12.033   4.563
15501SOL    HW248401  12.387  11.904   4.639
15502SOL     OW48402  11.697   9.320   5.622
15502SOL    HW148403  11.653   9.384   5.678
15502SOL    HW248404  11.682   9.236   5.664
15503SOL     OW48405   5.552   0.303  12.351
15503SOL    HW148406   5.563   0.208  12.345
15503SOL    HW248407   5.539   0.331  12.261
15504SOL     OW48408   7.794   7.809   5.776
15504SOL    HW148409   7.775   7.833   5.867
15504SOL    HW248410   7.794   7.893   5.729
15505SOL     OW48411  14.758   1.413   9.930
15505SOL    HW148412  14.793   1.372  10.009
15505SOL    HW248413  14.811   1.491   9.917
15506SOL     OW48414   7.816   4.828   9.621
15506SOL    HW148415   7.855   4.908   9.586
15506SOL    HW248416   7.780   4.784   9.544
15507SOL     OW48417   4.082   0.212   8.729
15507SOL    HW148418   4.009   0.268   8.702
15507SOL    HW248419   4.081   0.139   8.668
15508SOL     OW48420  12.703   5.426   2.896
15508SOL    HW148421  12.685   5.337   2.927
15508SOL    HW248422  12.685   5.482   2.972
15509SOL     OW48423   6.395  14.185   9.969
15509SOL    HW148424   6.332  14.206   9.899
15509SOL    HW248425   6.459  14.129   9.927
15510SOL     OW48426   8.848   8.839   9.947
15510SOL    HW148427   8.760   8.817   9.916
15510SOL    HW248428   8.904   8.823   9.871
15511SOL     OW48429   6.269  13.187   6.309
15511SOL    HW148430   6.293  13.257   6.370
15511SOL    HW248431   6.187  13.152   6.345
15512SOL     OW48432   5.869   8.620   3.628
15512SOL    HW148433   5.814   8.697   3.643
15512SOL    HW248434   5.950   8.655   3.592
15513SOL     OW48435   5.938   7.401   7.817
15513SOL    HW148436   6.010   7.360   7.867
15513SOL    HW248437   5.982   7.452   7.750
15514SOL     OW48438   2.185  12.195   8.332
15514SOL    HW148439   2.146  12.204   8.245
15514SOL    HW248440   2.193  12.284   8.365
15515SOL     OW48441   8.142   0.006   2.945
15515SOL    HW148442   8.073  14.817   2.954
15515SOL    HW248443   8.151   0.044   3.032
15516SOL     OW48444   1.040   5.597   6.102
15516SOL    HW148445   0.996   5.651   6.167
15516SOL    HW248446   1.082   5.659   6.042
15517SOL     OW48447   1.339   2.860   6.032
15517SOL    HW148448   1.382   2.776   6.017
15517SOL    HW248449   1.380   2.895   6.111
15518SOL     OW48450   3.576   5.004  11.335
15518SOL    HW148451   3.611   4.943  11.270
15518SOL    HW248452   3.489   5.028  11.302
15519SOL     OW48453  10.542  11.953   8.943
15519SOL    HW148454  10.488  11.925   8.870
15519SOL    HW248455  10.630  11.963   8.906
15520SOL     OW48456  11.806   5.649  13.174
15520SOL    HW148457  11.746   5.715  13.209
15520SOL    HW248458  11.822   5.590  13.248
15521SOL     OW48459   4.686   7.578  14.053
15521SOL    HW148460   4.731   7.649  14.007
15521SOL    HW248461   4.611   7.556  13.997
15522SOL     OW48462   9.254   1.491   5.296
15522SOL    HW148463   9.201   1.553   5.345
15522SOL    HW248464   9.314   1.454   5.361
15523SOL     OW48465   5.931   9.711  10.268
15523SOL    HW148466   5.973   9.677  10.347
15523SOL    HW248467   5.855   9.760  10.300
15524SOL     OW48468   0.016   4.246   0.582
15524SOL    HW148469   0.030   4.171   0.640
15524SOL    HW248470   0.003   4.208   0.495
15525SOL     OW48471   8.511   5.003   3.488
15525SOL    HW148472   8.444   5.038   3.430
15525SOL    HW248473   8.480   4.916   3.511
15526SOL     OW48474   6.939  11.595   0.110
15526SOL    HW148475   6.961  11.665   0.171
15526SOL    HW248476   6.849  11.614   0.083
15527SOL     OW48477   8.298   2.483   5.739
15527SOL    HW148478   8.218   2.496   5.689
15527SOL    HW248479   8.270   2.437   5.818
15528SOL     OW48480   1.631   7.761  10.707
15528SOL    HW148481   1.647   7.855  10.719
15528SOL    HW248482   1.693   7.719  10.767
15529SOL     OW48483  14.025   2.509  11.361
15529SOL    HW148484  14.117   2.485  11.364
15529SOL    HW248485  13.985   2.459  11.432
15530SOL     OW48486   9.674   8.826  12.078
15530SOL    HW148487   9.584   8.803  12.055
15530SOL    HW248488   9.668   8.913  12.117
15531SOL     OW48489   7.265   1.960   2.529
15531SOL    HW148490   7.232   1.925   2.611
15531SOL    HW248491   7.330   1.897   2.499
15532SOL     OW48492   9.721   6.499   2.418
15532SOL    HW148493   9.693   6.502   2.509
15532SOL    HW248494   9.756   6.586   2.400
15533SOL     OW48495  14.844   7.981   1.836
15533SOL    HW148496  14.862   7.926   1.912
15533SOL    HW248497  14.798   8.057   1.872
15534SOL     OW48498   2.727   7.544   6.492
15534SOL    HW148499   2.700   7.542   6.584
15534SOL    HW248500   2.809   7.495   6.491
15535SOL     OW48501   6.132   0.688  10.847
15535SOL    HW148502   6.102   0.682  10.756
15535SOL    HW248503   6.221   0.654  10.844
15536SOL     OW48504  12.245   6.357  13.902
15536SOL    HW148505  12.282   6.348  13.990
15536SOL    HW248506  12.160   6.313  13.906
15537SOL     OW48507   3.483   1.226   8.221
15537SOL    HW148508   3.513   1.211   8.311
15537SOL    HW248509   3.391   1.251   8.230
15538SOL     OW48510   3.774   5.437   4.701
15538SOL    HW148511   3.767   5.532   4.693
15538SOL    HW248512   3.748   5.404   4.615
15539SOL     OW48513   3.330   2.293   7.348
15539SOL    HW148514   3.309   2.239   7.425
15539SOL    HW248515   3.389   2.239   7.296
15540SOL     OW48516   2.194  12.994  13.304
15540SOL    HW148517   2.283  12.999  13.270
15540SOL    HW248518   2.195  12.919  13.364
15541SOL     OW48519  12.954   6.697  14.857
15541SOL    HW148520  12.947   6.650  14.774
15541SOL    HW248521  12.924   6.786  14.837
15542SOL     OW48522   1.166   6.744  14.803
15542SOL    HW148523   1.109   6.712  14.874
15542SOL    HW248524   1.211   6.819  14.841
15543SOL     OW48525   8.869  10.340   1.156
15543SOL    HW148526   8.854  10.337   1.251
15543SOL    HW248527   8.859  10.433   1.134
15544SOL     OW48528  13.923   1.384   2.111
15544SOL    HW148529  13.906   1.290   2.116
15544SOL    HW248530  14.011   1.394   2.148
15545SOL     OW48531  11.776  13.847  13.934
15545SOL    HW148532  11.794  13.940  13.948
15545SOL    HW248533  11.749  13.815  14.021
15546SOL     OW48534   4.756   6.889  14.547
15546SOL    HW148535   4.827   6.941  14.509
15546SOL    HW248536   4.693   6.955  14.578
15547SOL     OW48537   9.787   6.304   0.382
15547SOL    HW148538   9.859   6.256   0.423
15547SOL    HW248539   9.817   6.321   0.293
15548SOL     OW48540   2.856  11.328   5.813
15548SOL    HW148541   2.777  11.275   5.800
15548SOL    HW248542   2.872  11.369   5.728
15549SOL     OW48543  14.723  13.478   0.806
15549SOL    HW148544  14.637  13.499   0.842
15549SOL    HW248545  14.783  13.538   0.851
15550SOL     OW48546   6.946   8.264  13.160
15550SOL    HW148547   6.899   8.279  13.077
15550SOL    HW248548   7.038   8.258  13.134
15551SOL     OW48549   4.240   2.342  14.609
15551SOL    HW148550   4.252   2.429  14.648
15551SOL    HW248551   4.233   2.283  14.685
15552SOL     OW48552   2.423   7.334  13.279
15552SOL    HW148553   2.336   7.300  13.300
15552SOL    HW248554   2.484   7.273  13.321
15553SOL     OW48555   5.633  12.151   3.187
15553SOL    HW148556   5.620  12.078   3.127
15553SOL    HW248557   5.590  12.225   3.144
15554SOL     OW48558   9.191   2.726   5.769
15554SOL    HW148559   9.126   2.675   5.818
15554SOL    HW248560   9.180   2.816   5.801
15555SOL     OW48561  12.532   5.053   9.527
15555SOL    HW148562  12.593   5.109   9.479
15555SOL    HW248563  12.521   4.976   9.472
15556SOL     OW48564   0.390   6.568   0.922
15556SOL    HW148565   0.332   6.600   0.992
15556SOL    HW248566   0.346   6.595   0.841
15557SOL     OW48567   8.908  12.617   6.835
15557SOL    HW148568   8.911  12.523   6.850
15557SOL    HW248569   8.909  12.626   6.740
15558SOL     OW48570  14.092   4.887  13.874
15558SOL    HW148571  14.023   4.859  13.813
15558SOL    HW248572  14.047   4.945  13.935
15559SOL     OW48573   8.654   9.452  10.699
15559SOL    HW148574   8.637   9.394  10.773
15559SOL    HW248575   8.597   9.528  10.715
15560SOL     OW48576   0.761   7.442  10.777
15560SOL    HW148577   0.772   7.532  10.748
15560SOL    HW248578   0.828   7.393  10.729
15561SOL     OW48579   1.023   2.781   4.177
15561SOL    HW148580   1.074   2.739   4.246
15561SOL    HW248581   1.022   2.874   4.202
15562SOL     OW48582   9.491  14.594  10.157
15562SOL    HW148583   9.427  14.550  10.102
15562SOL    HW248584   9.549  14.639  10.096
15563SOL     OW48585   8.407   1.845   9.375
15563SOL    HW148586   8.322   1.845   9.417
15563SOL    HW248587   8.388   1.843   9.281
15564SOL     OW48588   6.563   0.312  11.049
15564SOL    HW148589   6.551   0.218  11.038
15564SOL    HW248590   6.596   0.342  10.964
15565SOL     OW48591  11.352  11.777   7.424
15565SOL    HW148592  11.283  11.766   7.489
15565SOL    HW248593  11.353  11.871   7.405
15566SOL     OW48594  14.719  10.929   3.443
15566SOL    HW148595  14.629  10.912   3.472
15566SOL    HW248596  14.740  11.015   3.480
15567SOL     OW48597   4.275   6.488   8.086
15567SOL    HW148598   4.272   6.543   8.164
15567SOL    HW248599   4.250   6.401   8.117
15568SOL     OW48600   4.445   6.484  11.528
15568SOL    HW148601   4.419   6.564  11.481
15568SOL    HW248602   4.366   6.430  11.528
15569SOL     OW48603  12.695  10.982   0.798
15569SOL    HW148604  12.702  10.908   0.858
15569SOL    HW248605  12.707  10.945   0.711
15570SOL     OW48606  14.151   5.478  13.241
15570SOL    HW148607  14.118   5.393  13.271
15570SOL    HW248608  14.234   5.489  13.288
15571SOL     OW48609   9.826   3.470   3.754
15571SOL    HW148610   9.876   3.392   3.730
15571SOL    HW248611   9.760   3.479   3.685
15572SOL     OW48612   3.899  14.767   0.044
15572SOL    HW148613   3.900  14.863   0.044
15572SOL    HW248614   3.855  14.743  14.840
15573SOL     OW48615   7.583   0.087  11.197
15573SOL    HW148616   7.609   0.022  11.132
15573SOL    HW248617   7.497   0.117  11.168
15574SOL     OW48618   5.217  14.348   3.383
15574SOL    HW148619   5.176  14.315   3.463
15574SOL    HW248620   5.240  14.269   3.334
15575SOL     OW48621   6.998   1.682  13.224
15575SOL    HW148622   7.023   1.720  13.308
15575SOL    HW248623   6.904   1.696  13.218
15576SOL     OW48624   2.241   1.836   8.985
15576SOL    HW148625   2.208   1.751   8.957
15576SOL    HW248626   2.234   1.834   9.081
15577SOL     OW48627   9.518   5.480  11.419
15577SOL    HW148628   9.431   5.518  11.414
15577SOL    HW248629   9.577   5.556  11.427
15578SOL     OW48630  14.560  14.111   5.218
15578SOL    HW148631  14.571  14.051   5.145
15578SOL    HW248632  14.525  14.057   5.289
15579SOL     OW48633  10.292   2.547   3.302
15579SOL    HW148634  10.259   2.524   3.215
15579SOL    HW248635  10.230   2.508   3.363
15580SOL     OW48636  14.156  10.044   7.061
15580SOL    HW148637  14.209  10.118   7.089
15580SOL    HW248638  14.114  10.012   7.141
15581SOL     OW48639   5.529   0.412   0.913
15581SOL    HW148640   5.523   0.325   0.952
15581SOL    HW248641   5.482   0.469   0.974
15582SOL     OW48642   9.845  13.100   5.295
15582SOL    HW148643   9.759  13.140   5.281
15582SOL    HW248644   9.855  13.039   5.222
15583SOL     OW48645  10.751  12.989   2.243
15583SOL    HW148646  10.696  13.067   2.248
15583SOL    HW248647  10.805  13.003   2.165
15584SOL     OW48648   0.859   0.223   7.447
15584SOL    HW148649   0.776   0.271   7.452
15584SOL    HW248650   0.913   0.263   7.515
15585SOL     OW48651  13.527   4.511   4.889
15585SOL    HW148652  13.549   4.603   4.906
15585SOL    HW248653  13.447   4.495   4.938
15586SOL     OW48654  14.532   3.320  11.496
15586SOL    HW148655  14.558   3.371  11.420
15586SOL    HW248656  14.517   3.385  11.565
15587SOL     OW48657   1.485  11.328   6.689
15587SOL    HW148658   1.571  11.352   6.653
15587SOL    HW248659   1.423  11.381   6.639
15588SOL     OW48660   8.926   3.171  12.407
15588SOL    HW148661   8.939   3.234  12.478
15588SOL    HW248662   9.006   3.177  12.355
15589SOL     OW48663   4.748  10.796  14.285
15589SOL    HW148664   4.713  10.844  14.210
15589SOL    HW248665   4.753  10.861  14.355
15590SOL     OW48666  10.498   7.804   0.371
15590SOL    HW148667  10.409   7.839   0.369
15590SOL    HW248668  10.511   7.768   0.283
15591SOL     OW48669  11.096  11.507   2.540
15591SOL    HW148670  11.131  11.581   2.491
15591SOL    HW248671  11.149  11.433   2.512
15592SOL     OW48672   1.401   9.193  10.003
15592SOL    HW148673   1.469   9.132  10.031
15592SOL    HW248674   1.323   9.165  10.052
15593SOL     OW48675   2.605  10.524  12.626
15593SOL    HW148676   2.538  10.489  12.684
15593SOL    HW248677   2.593  10.619  12.630
15594SOL     OW48678  13.106  14.581  13.293
15594SOL    HW148679  13.107  14.525  13.216
15594SOL    HW248680  13.131  14.522  13.365
15595SOL     OW48681   4.420   5.388   4.339
15595SOL    HW148682   4.401   5.339   4.419
15595SOL    HW248683   4.429   5.479   4.368
15596SOL     OW48684  12.070  13.952   1.137
15596SOL    HW148685  12.093  13.865   1.105
15596SOL    HW248686  11.993  13.938   1.192
15597SOL     OW48687   1.544  12.175  14.379
15597SOL    HW148688   1.462  12.216  14.352
15597SOL    HW248689   1.560  12.108  14.313
15598SOL     OW48690   8.984   0.868   1.308
15598SOL    HW148691   9.048   0.930   1.342
15598SOL    HW248692   9.010   0.853   1.217
15599SOL     OW48693  12.826  12.704  13.149
15599SOL    HW148694  12.833  12.767  13.077
15599SOL    HW248695  12.844  12.755  13.227
15600SOL     OW48696   3.156   1.357   8.609
15600SOL    HW148697   3.101   1.432   8.585
15600SOL    HW248698   3.095   1.294   8.646
15601SOL     OW48699  10.929  10.800   3.237
15601SOL    HW148700  10.868  10.827   3.305
15601SOL    HW248701  10.941  10.706   3.251
15602SOL     OW48702  12.609   7.016   8.466
15602SOL    HW148703  12.678   6.951   8.482
15602SOL    HW248704  12.544   6.998   8.533
15603SOL     OW48705   3.861   8.400   7.662
15603SOL    HW148706   3.766   8.404   7.652
15603SOL    HW248707   3.879   8.460   7.735
15604SOL     OW48708   3.762  10.098   0.137
15604SOL    HW148709   3.705  10.021   0.140
15604SOL    HW248710   3.840  10.068   0.090
15605SOL     OW48711  10.620   9.957   3.231
15605SOL    HW148712  10.591   9.943   3.321
15605SOL    HW248713  10.713   9.935   3.232
15606SOL     OW48714   1.009   8.124   7.575
15606SOL    HW148715   0.994   8.213   7.607
15606SOL    HW248716   1.047   8.077   7.650
15607SOL     OW48717   3.027   1.761   2.369
15607SOL    HW148718   2.997   1.680   2.411
15607SOL    HW248719   3.117   1.772   2.398
15608SOL     OW48720   5.335   5.034   7.259
15608SOL    HW148721   5.425   5.051   7.232
15608SOL    HW248722   5.311   4.954   7.211
15609SOL     OW48723   0.381   6.837   4.652
15609SOL    HW148724   0.329   6.896   4.707
15609SOL    HW248725   0.445   6.894   4.610
15610SOL     OW48726   3.004   3.469  14.650
15610SOL    HW148727   3.097   3.488  14.637
15610SOL    HW248728   2.967   3.468  14.561
15611SOL     OW48729   9.409   9.207   8.471
15611SOL    HW148730   9.486   9.181   8.522
15611SOL    HW248731   9.335   9.174   8.522
15612SOL     OW48732   4.664  13.422   5.442
15612SOL    HW148733   4.734  13.448   5.381
15612SOL    HW248734   4.589  13.475   5.415
15613SOL     OW48735   2.769  12.903   9.262
15613SOL    HW148736   2.675  12.889   9.263
15613SOL    HW248737   2.780  12.991   9.227
15614SOL     OW48738   1.885   6.235  13.765
15614SOL    HW148739   1.970   6.200  13.740
15614SOL    HW248740   1.826   6.205  13.696
15615SOL     OW48741   3.765   8.804   3.486
15615SOL    HW148742   3.829   8.852   3.538
15615SOL    HW248743   3.680   8.834   3.519
15616SOL     OW48744   0.858   1.979   3.207
15616SOL    HW148745   0.919   1.912   3.177
15616SOL    HW248746   0.775   1.957   3.164
15617SOL     OW48747  13.324   6.933   6.284
15617SOL    HW148748  13.235   6.924   6.250
15617SOL    HW248749  13.312   6.957   6.376
15618SOL     OW48750   3.452   3.102   3.202
15618SOL    HW148751   3.423   3.192   3.216
15618SOL    HW248752   3.375   3.057   3.168
15619SOL     OW48753   7.304  13.145   4.096
15619SOL    HW148754   7.310  13.181   4.008
15619SOL    HW248755   7.239  13.074   4.089
15620SOL     OW48756  13.473   4.612   8.671
15620SOL    HW148757  13.510   4.643   8.754
15620SOL    HW248758  13.441   4.691   8.628
15621SOL     OW48759   0.132   2.805   7.052
15621SOL    HW148760   0.152   2.896   7.027
15621SOL    HW248761   0.205   2.754   7.018
15622SOL     OW48762   6.380   5.322   0.406
15622SOL    HW148763   6.337   5.265   0.343
15622SOL    HW248764   6.317   5.393   0.423
15623SOL     OW48765  14.400   8.189   1.921
15623SOL    HW148766  14.399   8.275   1.880
15623SOL    HW248767  14.401   8.208   2.015
15624SOL     OW48768   3.171   8.950   5.739
15624SOL    HW148769   3.166   8.963   5.834
15624SOL    HW248770   3.144   8.859   5.727
15625SOL     OW48771   7.094   9.024  12.864
15625SOL    HW148772   7.106   8.951  12.925
15625SOL    HW248773   7.136   9.098  12.907
15626SOL     OW48774   4.495   9.374   6.965
15626SOL    HW148775   4.486   9.421   6.882
15626SOL    HW248776   4.405   9.355   6.992
15627SOL     OW48777   0.010  14.821   2.058
15627SOL    HW148778   0.062   0.010   2.013
15627SOL    HW248779   0.075  14.759   2.092
15628SOL     OW48780   8.759  10.868   8.932
15628SOL    HW148781   8.700  10.799   8.902
15628SOL    HW248782   8.835  10.821   8.967
15629SOL     OW48783   8.708   6.357   0.887
15629SOL    HW148784   8.626   6.381   0.930
15629SOL    HW248785   8.764   6.325   0.958
15630SOL     OW48786   1.899  13.594  11.471
15630SOL    HW148787   1.821  13.542  11.489
15630SOL    HW248788   1.871  13.685  11.480
15631SOL     OW48789  10.847   9.322   3.189
15631SOL    HW148790  10.893   9.318   3.106
15631SOL    HW248791  10.888   9.254   3.243
15632SOL     OW48792   2.130   1.451  13.795
15632SOL    HW148793   2.046   1.405  13.796
15632SOL    HW248794   2.133   1.497  13.879
15633SOL     OW48795   9.938   7.574  12.097
15633SOL    HW148796   9.903   7.610  12.178
15633SOL    HW248797   9.865   7.581  12.035
15634SOL     OW48798   8.708   4.375  11.726
15634SOL    HW148799   8.754   4.457  11.707
15634SOL    HW248800   8.619   4.402  11.749
15635SOL     OW48801   7.346   9.560  14.558
15635SOL    HW148802   7.387   9.646  14.561
15635SOL    HW248803   7.276   9.568  14.492
15636SOL     OW48804   9.869   4.024   5.040
15636SOL    HW148805   9.854   4.026   4.945
15636SOL    HW248806   9.961   3.999   5.048
15637SOL     OW48807   8.589   1.668   0.796
15637SOL    HW148808   8.681   1.677   0.817
15637SOL    HW248809   8.558   1.597   0.853
15638SOL     OW48810   8.721   1.230  12.348
15638SOL    HW148811   8.646   1.271  12.305
15638SOL    HW248812   8.758   1.298  12.404
15639SOL     OW48813   5.158   2.968  13.262
15639SOL    HW148814   5.064   2.981  13.264
15639SOL    HW248815   5.174   2.923  13.179
15640SOL     OW48816  10.262  12.330   1.596
15640SOL    HW148817  10.290  12.246   1.558
15640SOL    HW248818  10.198  12.305   1.662
15641SOL     OW48819   5.370   9.090   5.053
15641SOL    HW148820   5.451   9.085   5.103
15641SOL    HW248821   5.396   9.069   4.963
15642SOL     OW48822   5.605   4.167   6.593
15642SOL    HW148823   5.577   4.114   6.519
15642SOL    HW248824   5.660   4.109   6.646
15643SOL     OW48825   5.929   3.604  10.403
15643SOL    HW148826   5.872   3.527  10.401
15643SOL    HW248827   6.003   3.581  10.347
15644SOL     OW48828   7.373   4.281  11.450
15644SOL    HW148829   7.309   4.253  11.385
15644SOL    HW248830   7.363   4.376  11.454
15645SOL     OW48831   6.997  13.251   3.718
15645SOL    HW148832   6.947  13.214   3.646
15645SOL    HW248833   6.946  13.229   3.796
15646SOL     OW48834   1.776  13.285  13.921
15646SOL    HW148835   1.741  13.277  14.009
15646SOL    HW248836   1.766  13.198  13.883
15647SOL     OW48837   2.520   0.648  13.654
15647SOL    HW148838   2.490   0.722  13.707
15647SOL    HW248839   2.464   0.649  13.576
15648SOL     OW48840   7.892  12.994  12.993
15648SOL    HW148841   7.836  12.930  13.038
15648SOL    HW248842   7.832  13.063  12.966
15649SOL     OW48843  11.386  10.809   2.940
15649SOL    HW148844  11.469  10.782   2.900
15649SOL    HW248845  11.319  10.759   2.893
15650SOL     OW48846   4.770  12.164  10.990
15650SOL    HW148847   4.784  12.232  10.923
15650SOL    HW248848   4.856  12.151  11.029
15651SOL     OW48849   5.291  11.787   9.313
15651SOL    HW148850   5.335  11.702   9.319
15651SOL    HW248851   5.275  11.812   9.404
15652SOL     OW48852   0.446   3.352   1.421
15652SOL    HW148853   0.418   3.311   1.339
15652SOL    HW248854   0.523   3.301   1.448
15653SOL     OW48855   7.045   6.048   2.765
15653SOL    HW148856   7.049   5.963   2.809
15653SOL    HW248857   7.083   6.109   2.828
15654SOL     OW48858   4.958  10.463  11.656
15654SOL    HW148859   5.049  10.451  11.684
15654SOL    HW248860   4.963  10.486  11.564
15655SOL     OW48861  10.165  11.343  14.085
15655SOL    HW148862  10.258  11.318  14.085
15655SOL    HW248863  10.131  11.306  14.003
15656SOL     OW48864   2.045   3.176   5.441
15656SOL    HW148865   2.007   3.089   5.432
15656SOL    HW248866   2.072   3.182   5.532
15657SOL     OW48867   7.261   1.933   1.829
15657SOL    HW148868   7.256   1.997   1.758
15657SOL    HW248869   7.192   1.960   1.890
15658SOL     OW48870   9.593   8.712  11.073
15658SOL    HW148871   9.631   8.777  11.131
15658SOL    HW248872   9.567   8.640  11.131
15659SOL     OW48873  12.339   2.303   2.098
15659SOL    HW148874  12.426   2.326   2.133
15659SOL    HW248875  12.309   2.233   2.156
15660SOL     OW48876  10.137   8.932   5.840
15660SOL    HW148877  10.189   8.956   5.763
15660SOL    HW248878  10.156   8.839   5.853
15661SOL     OW48879  11.551   6.690   8.679
15661SOL    HW148880  11.487   6.621   8.696
15661SOL    HW248881  11.546   6.705   8.585
15662SOL     OW48882  12.814  11.386   3.951
15662SOL    HW148883  12.900  11.410   3.916
15662SOL    HW248884  12.758  11.461   3.932
15663SOL     OW48885  12.427   2.700   6.564
15663SOL    HW148886  12.363   2.739   6.504
15663SOL    HW248887  12.423   2.607   6.546
15664SOL     OW48888   0.655   8.756   8.822
15664SOL    HW148889   0.643   8.849   8.844
15664SOL    HW248890   0.601   8.744   8.744
15665SOL     OW48891  10.019   6.292   9.618
15665SOL    HW148892  10.052   6.351   9.550
15665SOL    HW248893   9.929   6.319   9.632
15666SOL     OW48894   5.347   3.869  14.598
15666SOL    HW148895   5.331   3.816  14.520
15666SOL    HW248896   5.435   3.904  14.585
15667SOL     OW48897   9.591   7.432  14.292
15667SOL    HW148898   9.501   7.462  14.280
15667SOL    HW248899   9.642   7.512  14.304
15668SOL     OW48900  11.570  14.000   2.901
15668SOL    HW148901  11.481  14.008   2.867
15668SOL    HW248902  11.624  13.990   2.823
15669SOL     OW48903   6.723  11.217   8.935
15669SOL    HW148904   6.739  11.131   8.897
15669SOL    HW248905   6.706  11.199   9.028
15670SOL     OW48906   4.185   3.712   9.269
15670SOL    HW148907   4.188   3.742   9.359
15670SOL    HW248908   4.102   3.664   9.263
15671SOL     OW48909   0.114  13.682   6.450
15671SOL    HW148910   0.200  13.723   6.450
15671SOL    HW248911   0.129  13.594   6.415
15672SOL     OW48912   6.407   9.452   7.451
15672SOL    HW148913   6.395   9.516   7.520
15672SOL    HW248914   6.388   9.499   7.370
15673SOL     OW48915   4.017   7.825  10.990
15673SOL    HW148916   4.097   7.811  11.040
15673SOL    HW248917   3.997   7.740  10.951
15674SOL     OW48918   6.181  11.184   0.681
15674SOL    HW148919   6.087  11.171   0.671
15674SOL    HW248920   6.196  11.274   0.652
15675SOL     OW48921   9.344   9.119   2.855
15675SOL    HW148922   9.331   9.064   2.932
15675SOL    HW248923   9.438   9.135   2.852
15676SOL     OW48924  10.914   8.975   1.256
15676SOL    HW148925  10.895   9.021   1.175
15676SOL    HW248926  10.916   8.883   1.231
15677SOL     OW48927  12.096  13.551   7.108
15677SOL    HW148928  12.142  13.540   7.025
15677SOL    HW248929  12.164  13.545   7.175
15678SOL     OW48930   5.347  14.060  12.156
15678SOL    HW148931   5.441  14.076  12.145
15678SOL    HW248932   5.319  14.127  12.219
15679SOL     OW48933  11.482   8.210   7.605
15679SOL    HW148934  11.484   8.296   7.562
15679SOL    HW248935  11.477   8.147   7.533
15680SOL     OW48936   3.791   3.249   1.434
15680SOL    HW148937   3.776   3.211   1.520
15680SOL    HW248938   3.822   3.338   1.451
15681SOL     OW48939   1.726   7.426  11.134
15681SOL    HW148940   1.649   7.430  11.077
15681SOL    HW248941   1.740   7.333  11.150
15682SOL     OW48942  14.753  10.944  11.798
15682SOL    HW148943  14.805  11.015  11.833
15682SOL    HW248944  14.807  10.866  11.811
15683SOL     OW48945  11.830   9.227   7.276
15683SOL    HW148946  11.837   9.189   7.188
15683SOL    HW248947  11.823   9.321   7.261
15684SOL     OW48948   9.430   1.368  10.143
15684SOL    HW148949   9.463   1.345  10.057
15684SOL    HW248950   9.498   1.423  10.182
15685SOL     OW48951   1.744   2.764   7.670
15685SOL    HW148952   1.838   2.768   7.652
15685SOL    HW248953   1.715   2.685   7.625
15686SOL     OW48954  14.514   1.016   2.669
15686SOL    HW148955  14.487   1.077   2.738
15686SOL    HW248956  14.546   1.072   2.599
15687SOL     OW48957   0.664   6.811  13.665
15687SOL    HW148958   0.620   6.866  13.601
15687SOL    HW248959   0.641   6.849  13.750
15688SOL     OW48960   8.641  11.346   3.809
15688SOL    HW148961   8.679  11.275   3.861
15688SOL    HW248962   8.574  11.303   3.755
15689SOL     OW48963   9.787   4.427  14.152
15689SOL    HW148964   9.881   4.419  14.138
15689SOL    HW248965   9.761   4.504  14.102
15690SOL     OW48966   9.816   6.075   7.398
15690SOL    HW148967   9.867   6.109   7.472
15690SOL    HW248968   9.872   6.006   7.362
15691SOL     OW48969   1.517   1.580  13.065
15691SOL    HW148970   1.604   1.540  13.059
15691SOL    HW248971   1.534   1.672  13.085
15692SOL     OW48972   8.212  10.726  13.911
15692SOL    HW148973   8.148  10.727  13.981
15692SOL    HW248974   8.203  10.640  13.871
15693SOL     OW48975   4.540  10.021  12.359
15693SOL    HW148976   4.584  10.055  12.437
15693SOL    HW248977   4.516   9.931  12.382
15694SOL     OW48978   8.113   1.939  11.912
15694SOL    HW148979   8.115   1.855  11.958
15694SOL    HW248980   8.077   1.918  11.826
15695SOL     OW48981   8.624  12.311   5.940
15695SOL    HW148982   8.631  12.288   5.847
15695SOL    HW248983   8.562  12.247   5.975
15696SOL     OW48984  10.691   8.896   4.641
15696SOL    HW148985  10.740   8.971   4.608
15696SOL    HW248986  10.737   8.870   4.720
15697SOL     OW48987   4.770   3.685   1.829
15697SOL    HW148988   4.803   3.763   1.873
15697SOL    HW248989   4.781   3.703   1.735
15698SOL     OW48990  13.180   4.157   4.906
15698SOL    HW148991  13.112   4.095   4.933
15698SOL    HW248992  13.261   4.120   4.940
15699SOL     OW48993   8.313  12.877   4.089
15699SOL    HW148994   8.408  12.890   4.090
15699SOL    HW248995   8.277  12.963   4.112
15700SOL     OW48996   8.816   9.737  12.917
15700SOL    HW148997   8.899   9.693  12.932
15700SOL    HW248998   8.772   9.736  13.003
15701SOL     OW48999   0.126   4.334   8.172
15701SOL    HW149000   0.221   4.331   8.168
15701SOL    HW249001   0.098   4.350   8.081
15702SOL     OW49002  10.323   2.960   1.774
15702SOL    HW149003  10.239   2.988   1.736
15702SOL    HW249004  10.320   2.865   1.772
15703SOL     OW49005   9.803   6.149   3.329
15703SOL    HW149006   9.713   6.122   3.313
15703SOL    HW249007   9.797   6.239   3.359
15704SOL     OW49008   5.719   1.899   1.997
15704SOL    HW149009   5.664   1.867   1.926
15704SOL    HW249010   5.808   1.896   1.961
15705SOL     OW49011  13.570   9.413  13.384
15705SOL    HW149012  13.543   9.445  13.298
15705SOL    HW249013  13.506   9.346  13.406
15706SOL     OW49014   8.516   7.166   7.410
15706SOL    HW149015   8.548   7.192   7.496
15706SOL    HW249016   8.545   7.236   7.351
15707SOL     OW49017   9.388  12.499  13.402
15707SOL    HW149018   9.374  12.496  13.497
15707SOL    HW249019   9.421  12.412  13.380
15708SOL     OW49020   7.180   0.060   8.498
15708SOL    HW149021   7.122  14.862   8.487
15708SOL    HW249022   7.130   0.134   8.464
15709SOL     OW49023   3.737   9.806   5.072
15709SOL    HW149024   3.694   9.721   5.085
15709SOL    HW249025   3.821   9.783   5.030
15710SOL     OW49026  11.085   2.850   1.962
15710SOL    HW149027  11.099   2.887   2.049
15710SOL    HW249028  11.062   2.758   1.978
15711SOL     OW49029  10.772   5.873   7.300
15711SOL    HW149030  10.744   5.905   7.214
15711SOL    HW249031  10.740   5.940   7.362
15712SOL     OW49032   3.385  12.919  11.928
15712SOL    HW149033   3.305  12.894  11.882
15712SOL    HW249034   3.412  12.839  11.973
15713SOL     OW49035   7.811   9.035   2.337
15713SOL    HW149036   7.741   9.073   2.284
15713SOL    HW249037   7.870   9.108   2.354
15714SOL     OW49038   4.699   8.170  11.775
15714SOL    HW149039   4.631   8.237  11.782
15714SOL    HW249040   4.746   8.175  11.858
15715SOL     OW49041  14.300   8.517  14.535
15715SOL    HW149042  14.345   8.599  14.520
15715SOL    HW249043  14.283   8.515  14.629
15716SOL     OW49044  11.460   6.683   7.841
15716SOL    HW149045  11.496   6.761   7.882
15716SOL    HW249046  11.380   6.664   7.889
15717SOL     OW49047   1.572   8.291  11.783
15717SOL    HW149048   1.554   8.218  11.724
15717SOL    HW249049   1.500   8.287  11.847
15718SOL     OW49050   1.279  11.555  11.480
15718SOL    HW149051   1.259  11.539  11.572
15718SOL    HW249052   1.301  11.469  11.445
15719SOL     OW49053   3.678   0.726   4.601
15719SOL    HW149054   3.623   0.675   4.662
15719SOL    HW249055   3.725   0.660   4.550
15720SOL     OW49056  12.741   3.640   7.241
15720SOL    HW149057  12.777   3.599   7.320
15720SOL    HW249058  12.691   3.571   7.198
15721SOL     OW49059   8.070  14.679   4.604
15721SOL    HW149060   8.101  14.595   4.639
15721SOL    HW249061   8.064  14.737   4.680
15722SOL     OW49062  11.563   0.168   6.075
15722SOL    HW149063  11.556   0.176   6.170
15722SOL    HW249064  11.613   0.088   6.061
15723SOL     OW49065  11.548   2.160   2.374
15723SOL    HW149066  11.624   2.156   2.315
15723SOL    HW249067  11.579   2.123   2.456
15724SOL     OW49068   7.159   5.347  14.061
15724SOL    HW149069   7.149   5.423  14.118
15724SOL    HW249070   7.080   5.296  14.075
15725SOL     OW49071   4.078   6.757   8.525
15725SOL    HW149072   4.074   6.663   8.545
15725SOL    HW249073   3.992   6.777   8.487
15726SOL     OW49074   8.075   6.632  13.006
15726SOL    HW149075   8.145   6.598  13.062
15726SOL    HW249076   8.069   6.569  12.934
15727SOL     OW49077  13.995  11.511   3.937
15727SOL    HW149078  13.997  11.585   3.877
15727SOL    HW249079  13.954  11.544   4.017
15728SOL     OW49080  11.908  11.231   4.305
15728SOL    HW149081  11.974  11.240   4.236
15728SOL    HW249082  11.854  11.158   4.277
15729SOL     OW49083   7.574   2.909  13.375
15729SOL    HW149084   7.615   2.926  13.460
15729SOL    HW249085   7.647   2.885  13.318
15730SOL     OW49086  14.325   4.084   2.159
15730SOL    HW149087  14.270   4.038   2.095
15730SOL    HW249088  14.306   4.176   2.146
15731SOL     OW49089   9.139   0.680  10.531
15731SOL    HW149090   9.170   0.718  10.449
15731SOL    HW249091   9.119   0.756  10.586
15732SOL     OW49092   6.987  10.698  11.998
15732SOL    HW149093   6.911  10.729  12.047
15732SOL    HW249094   7.061  10.711  12.058
15733SOL     OW49095  14.463   5.464  14.556
15733SOL    HW149096  14.432   5.516  14.483
15733SOL    HW249097  14.384   5.425  14.594
15734SOL     OW49098   1.576   3.320  10.569
15734SOL    HW149099   1.627   3.356  10.642
15734SOL    HW249100   1.604   3.229  10.562
15735SOL     OW49101   2.001   0.972   1.509
15735SOL    HW149102   1.920   1.014   1.481
15735SOL    HW249103   2.031   0.923   1.433
15736SOL     OW49104  12.253   5.067   7.503
15736SOL    HW149105  12.246   5.159   7.529
15736SOL    HW249106  12.293   5.069   7.416
15737SOL     OW49107   3.268   6.502  11.552
15737SOL    HW149108   3.272   6.530  11.644
15737SOL    HW249109   3.254   6.408  11.557
15738SOL     OW49110   6.760   0.044   5.964
15738SOL    HW149111   6.774   0.000   6.048
15738SOL    HW249112   6.665   0.037   5.950
15739SOL     OW49113   8.823   2.987  14.504
15739SOL    HW149114   8.888   3.051  14.475
15739SOL    HW249115   8.839   2.910  14.449
15740SOL     OW49116  11.433  10.999   5.220
15740SOL    HW149117  11.340  11.015   5.207
15740SOL    HW249118  11.454  11.044   5.302
15741SOL     OW49119   1.739   7.731   0.797
15741SOL    HW149120   1.785   7.686   0.867
15741SOL    HW249121   1.739   7.823   0.824
15742SOL     OW49122   2.725   8.128   1.077
15742SOL    HW149123   2.798   8.128   1.140
15742SOL    HW249124   2.737   8.047   1.027
15743SOL     OW49125   4.918   2.892   5.417
15743SOL    HW149126   4.951   2.918   5.503
15743SOL    HW249127   4.978   2.823   5.388
15744SOL     OW49128   0.517   2.772   1.027
15744SOL    HW149129   0.600   2.751   0.984
15744SOL    HW249130   0.469   2.825   0.964
15745SOL     OW49131   6.152  10.342   2.732
15745SOL    HW149132   6.230  10.397   2.738
15745SOL    HW249133   6.184  10.254   2.752
15746SOL     OW49134  10.520   1.598   8.234
15746SOL    HW149135  10.557   1.678   8.195
15746SOL    HW249136  10.425   1.613   8.233
15747SOL     OW49137  11.278   0.994   9.202
15747SOL    HW149138  11.291   1.074   9.150
15747SOL    HW249139  11.346   0.934   9.171
15748SOL     OW49140   4.389  13.533   6.936
15748SOL    HW149141   4.368  13.557   6.846
15748SOL    HW249142   4.305  13.512   6.976
15749SOL     OW49143  12.571  14.755   9.161
15749SOL    HW149144  12.523  14.697   9.220
15749SOL    HW249145  12.534  14.737   9.075
15750SOL     OW49146   7.067   8.308  14.444
15750SOL    HW149147   7.143   8.358  14.473
15750SOL    HW249148   7.081   8.295  14.350
15751SOL     OW49149   0.659  10.430  12.882
15751SOL    HW149150   0.583  10.393  12.838
15751SOL    HW249151   0.726  10.435  12.814
15752SOL     OW49152   4.088   1.118   1.434
15752SOL    HW149153   4.112   1.034   1.471
15752SOL    HW249154   4.140   1.125   1.354
15753SOL     OW49155   9.417  13.278   4.405
15753SOL    HW149156   9.490  13.272   4.343
15753SOL    HW249157   9.339  13.260   4.353
15754SOL     OW49158   9.142   0.276   9.895
15754SOL    HW149159   9.061   0.326   9.906
15754SOL    HW249160   9.205   0.339   9.862
15755SOL     OW49161   8.834   5.141  13.373
15755SOL    HW149162   8.855   5.226  13.334
15755SOL    HW249163   8.919   5.102  13.393
15756SOL     OW49164  13.750   3.124   4.595
15756SOL    HW149165  13.766   3.095   4.506
15756SOL    HW249166  13.760   3.219   4.592
15757SOL     OW49167  13.941   6.346  14.406
15757SOL    HW149168  13.856   6.348  14.450
15757SOL    HW249169  13.929   6.285  14.334
15758SOL     OW49170   4.259   8.466  12.570
15758SOL    HW149171   4.292   8.384  12.532
15758SOL    HW249172   4.207   8.505  12.500
15759SOL     OW49173   1.483   9.770   8.114
15759SOL    HW149174   1.514   9.812   8.034
15759SOL    HW249175   1.395   9.804   8.127
15760SOL     OW49176   6.113   1.407   9.478
15760SOL    HW149177   6.076   1.377   9.561
15760SOL    HW249178   6.207   1.393   9.487
15761SOL     OW49179  11.139   9.220  12.692
15761SOL    HW149180  11.145   9.183  12.780
15761SOL    HW249181  11.225   9.260  12.677
15762SOL     OW49182   8.197  11.650   0.081
15762SOL    HW149183   8.266  11.692   0.029
15762SOL    HW249184   8.215  11.556   0.072
15763SOL     OW49185   4.366   7.657   5.410
15763SOL    HW149186   4.281   7.613   5.416
15763SOL    HW249187   4.430   7.588   5.424
15764SOL     OW49188   1.349   9.623  14.693
15764SOL    HW149189   1.298   9.566  14.750
15764SOL    HW249190   1.340   9.710  14.732
15765SOL     OW49191  11.473   4.088   1.529
15765SOL    HW149192  11.411   4.161   1.533
15765SOL    HW249193  11.513   4.087   1.616
15766SOL     OW49194   1.143  13.094  10.863
15766SOL    HW149195   1.237  13.107  10.849
15766SOL    HW249196   1.116  13.036  10.792
15767SOL     OW49197   1.291   7.858  11.949
15767SOL    HW149198   1.209   7.831  11.909
15767SOL    HW249199   1.355   7.855  11.878
15768SOL     OW49200   1.870   5.755   3.736
15768SOL    HW149201   1.955   5.753   3.693
15768SOL    HW249202   1.829   5.836   3.706
15769SOL     OW49203   0.384  12.056   9.936
15769SOL    HW149204   0.378  11.982   9.996
15769SOL    HW249205   0.301  12.056   9.890
15770SOL     OW49206  14.673  11.145   9.104
15770SOL    HW149207  14.593  11.192   9.126
15770SOL    HW249208  14.661  11.058   9.144
15771SOL     OW49209  13.098   3.763  14.111
15771SOL    HW149210  13.036   3.703  14.152
15771SOL    HW249211  13.047   3.809  14.045
15772SOL     OW49212   6.125   8.082   9.175
15772SOL    HW149213   6.105   8.164   9.221
15772SOL    HW249214   6.093   8.013   9.233
15773SOL     OW49215  11.874  14.647  12.629
15773SOL    HW149216  11.796  14.613  12.585
15773SOL    HW249217  11.942  14.582  12.612
15774SOL     OW49218   1.720   5.137   6.956
15774SOL    HW149219   1.697   5.155   7.047
15774SOL    HW249220   1.684   5.212   6.908
15775SOL     OW49221  13.874  14.741   6.306
15775SOL    HW149222  13.939  14.746   6.235
15775SOL    HW249223  13.891  14.656   6.348
15776SOL     OW49224   4.280   7.671  11.796
15776SOL    HW149225   4.202   7.719  11.771
15776SOL    HW249226   4.310   7.713  11.877
15777SOL     OW49227   7.205  12.393   6.652
15777SOL    HW149228   7.300  12.381   6.654
15777SOL    HW249229   7.175  12.330   6.587
15778SOL     OW49230  12.817   6.415  13.714
15778SOL    HW149231  12.755   6.483  13.687
15778SOL    HW249232  12.895   6.431  13.661
15779SOL     OW49233  11.156   3.565  10.246
15779SOL    HW149234  11.115   3.561  10.333
15779SOL    HW249235  11.249   3.556  10.264
15780SOL     OW49236   3.397  10.074   6.116
15780SOL    HW149237   3.390  10.009   6.047
15780SOL    HW249238   3.359  10.032   6.194
15781SOL     OW49239   9.467   6.742  11.389
15781SOL    HW149240   9.413   6.672  11.353
15781SOL    HW249241   9.441   6.747  11.481
15782SOL     OW49242   6.509   5.251   6.325
15782SOL    HW149243   6.467   5.181   6.375
15782SOL    HW249244   6.567   5.295   6.387
15783SOL     OW49245   4.596   6.836   6.276
15783SOL    HW149246   4.609   6.862   6.367
15783SOL    HW249247   4.640   6.752   6.267
15784SOL     OW49248  12.688  14.050   7.378
15784SOL    HW149249  12.719  13.960   7.392
15784SOL    HW249250  12.662  14.052   7.286
15785SOL     OW49251   7.980   3.056   1.218
15785SOL    HW149252   7.983   2.967   1.184
15785SOL    HW249253   7.897   3.060   1.266
15786SOL     OW49254  12.623   1.261  13.960
15786SOL    HW149255  12.629   1.228  13.871
15786SOL    HW249256  12.711   1.293  13.980
15787SOL     OW49257   8.373   9.947  11.302
15787SOL    HW149258   8.347   9.928  11.212
15787SOL    HW249259   8.305  10.007  11.334
15788SOL     OW49260   4.793  12.505   2.640
15788SOL    HW149261   4.762  12.463   2.720
15788SOL    HW249262   4.774  12.443   2.570
15789SOL     OW49263   5.980   0.225   1.231
15789SOL    HW149264   5.924   0.261   1.300
15789SOL    HW249265   6.017   0.146   1.270
15790SOL     OW49266   6.629   0.336  14.091
15790SOL    HW149267   6.570   0.277  14.045
15790SOL    HW249268   6.716   0.307  14.066
15791SOL     OW49269  12.499   6.794   0.458
15791SOL    HW149270  12.486   6.747   0.376
15791SOL    HW249271  12.574   6.851   0.441
15792SOL     OW49272  10.770  11.453  11.595
15792SOL    HW149273  10.818  11.393  11.652
15792SOL    HW249274  10.739  11.522  11.654
15793SOL     OW49275  13.825  10.359   6.152
15793SOL    HW149276  13.826  10.265   6.136
15793SOL    HW249277  13.776  10.396   6.078
15794SOL     OW49278   4.057  13.013   2.146
15794SOL    HW149279   4.004  12.948   2.191
15794SOL    HW249280   3.998  13.089   2.136
15795SOL     OW49281   0.850   2.335  10.650
15795SOL    HW149282   0.919   2.342  10.716
15795SOL    HW249283   0.793   2.266  10.683
15796SOL     OW49284   2.076   1.343   2.989
15796SOL    HW149285   2.139   1.349   3.061
15796SOL    HW249286   1.995   1.380   3.026
15797SOL     OW49287   9.944  14.533   0.257
15797SOL    HW149288   9.997  14.491   0.190
15797SOL    HW249289   9.914  14.461   0.313
15798SOL     OW49290  10.128   1.038   3.104
15798SOL    HW149291  10.054   1.094   3.126
15798SOL    HW249292  10.195   1.097   3.069
15799SOL     OW49293   8.724  13.768   4.587
15799SOL    HW149294   8.703  13.740   4.498
15799SOL    HW249295   8.649  13.821   4.614
15800SOL     OW49296   1.153   3.675   0.671
15800SOL    HW149297   1.153   3.583   0.699
15800SOL    HW249298   1.175   3.672   0.578
15801SOL     OW49299   0.232   3.912   0.452
15801SOL    HW149300   0.285   3.959   0.388
15801SOL    HW249301   0.294   3.854   0.497
15802SOL     OW49302  10.620   1.450  14.756
15802SOL    HW149303  10.600   1.441  14.663
15802SOL    HW249304  10.715   1.436  14.762
15803SOL     OW49305   8.788  12.539   3.118
15803SOL    HW149306   8.719  12.604   3.122
15803SOL    HW249307   8.869  12.590   3.109
15804SOL     OW49308   0.071   5.626   6.924
15804SOL    HW149309   0.095   5.561   6.991
15804SOL    HW249310  14.854   5.620   6.917
15805SOL     OW49311   4.612   9.768   8.571
15805SOL    HW149312   4.696   9.813   8.572
15805SOL    HW249313   4.552   9.827   8.618
15806SOL     OW49314   3.875  13.513  12.301
15806SOL    HW149315   3.969  13.521  12.317
15806SOL    HW249316   3.839  13.598  12.327
15807SOL     OW49317   9.856  10.256   1.188
15807SOL    HW149318   9.869  10.340   1.144
15807SOL    HW249319   9.858  10.191   1.118
15808SOL     OW49320  12.907   6.880   9.207
15808SOL    HW149321  12.958   6.959   9.190
15808SOL    HW249322  12.904   6.833   9.124
15809SOL     OW49323  12.150   9.665  14.222
15809SOL    HW149324  12.174   9.575  14.242
15809SOL    HW249325  12.105   9.696  14.300
15810SOL     OW49326   2.281  12.622   3.372
15810SOL    HW149327   2.302  12.661   3.457
15810SOL    HW249328   2.252  12.533   3.394
15811SOL     OW49329   8.605  12.835  11.117
15811SOL    HW149330   8.649  12.770  11.172
15811SOL    HW249331   8.676  12.888  11.081
15812SOL     OW49332   8.696   1.820   8.447
15812SOL    HW149333   8.757   1.824   8.521
15812SOL    HW249334   8.734   1.754   8.389
15813SOL     OW49335   8.587   5.023   1.197
15813SOL    HW149336   8.595   5.113   1.166
15813SOL    HW249337   8.510   5.024   1.255
15814SOL     OW49338  11.048  13.367  11.592
15814SOL    HW149339  11.104  13.423  11.537
15814SOL    HW249340  11.014  13.425  11.659
15815SOL     OW49341   4.246   9.031  11.134
15815SOL    HW149342   4.173   8.986  11.176
15815SOL    HW249343   4.247   8.999  11.044
15816SOL     OW49344  12.471  13.241  12.015
15816SOL    HW149345  12.563  13.244  12.042
15816SOL    HW249346  12.463  13.311  11.951
15817SOL     OW49347   7.612   7.447   8.497
15817SOL    HW149348   7.683   7.394   8.534
15817SOL    HW249349   7.633   7.537   8.522
15818SOL     OW49350   4.415  13.400   4.760
15818SOL    HW149351   4.370  13.350   4.692
15818SOL    HW249352   4.400  13.350   4.840
15819SOL     OW49353   9.435   2.479   4.122
15819SOL    HW149354   9.398   2.540   4.058
15819SOL    HW249355   9.444   2.532   4.202
15820SOL     OW49356   0.296  14.811   4.726
15820SOL    HW149357   0.290   0.003   4.792
15820SOL    HW249358   0.259  14.734   4.769
15821SOL     OW49359   8.508   0.036  13.669
15821SOL    HW149360   8.589   0.035  13.617
15821SOL    HW249361   8.535   0.065  13.756
15822SOL     OW49362   9.724  11.062  14.587
15822SOL    HW149363   9.686  10.986  14.632
15822SOL    HW249364   9.670  11.136  14.616
15823SOL     OW49365  13.213   8.337   3.254
15823SOL    HW149366  13.167   8.253   3.245
15823SOL    HW249367  13.306   8.314   3.256
15824SOL     OW49368   6.382   7.571   4.272
15824SOL    HW149369   6.376   7.563   4.177
15824SOL    HW249370   6.292   7.561   4.303
15825SOL     OW49371   4.148  12.378   0.241
15825SOL    HW149372   4.178  12.465   0.266
15825SOL    HW249373   4.174  12.322   0.313
15826SOL     OW49374  12.316   8.074   4.841
15826SOL    HW149375  12.294   8.167   4.854
15826SOL    HW249376  12.287   8.055   4.752
15827SOL     OW49377   7.272   4.792   3.553
15827SOL    HW149378   7.189   4.764   3.516
15827SOL    HW249379   7.257   4.795   3.648
15828SOL     OW49380   6.959   6.130  12.136
15828SOL    HW149381   6.943   6.040  12.166
15828SOL    HW249382   6.898   6.143  12.064
15829SOL     OW49383   8.603   6.239  12.573
15829SOL    HW149384   8.659   6.163  12.590
15829SOL    HW249385   8.631   6.304  12.638
15830SOL     OW49386   0.873   8.672  12.996
15830SOL    HW149387   0.801   8.693  12.936
15830SOL    HW249388   0.847   8.712  13.079
15831SOL     OW49389   7.005   0.336  14.847
15831SOL    HW149390   6.996   0.429  14.828
15831SOL    HW249391   6.967   0.293  14.770
15832SOL     OW49392  11.030   6.019   5.198
15832SOL    HW149393  11.017   6.090   5.135
15832SOL    HW249394  11.023   5.939   5.146
15833SOL     OW49395   5.244  14.376  13.152
15833SOL    HW149396   5.338  14.383  13.137
15833SOL    HW249397   5.236  14.307  13.218
15834SOL     OW49398  10.370   2.368   7.191
15834SOL    HW149399  10.373   2.435   7.123
15834SOL    HW249400  10.446   2.313   7.174
15835SOL     OW49401   4.984   2.907   7.896
15835SOL    HW149402   4.931   2.881   7.820
15835SOL    HW249403   5.011   2.825   7.936
15836SOL     OW49404   6.221   6.948   5.635
15836SOL    HW149405   6.266   6.897   5.568
15836SOL    HW249406   6.288   6.964   5.702
15837SOL     OW49407   9.915  13.341   4.103
15837SOL    HW149408   9.945  13.430   4.084
15837SOL    HW249409   9.887  13.306   4.018
15838SOL     OW49410   9.517  14.497   6.305
15838SOL    HW149411   9.572  14.567   6.269
15838SOL    HW249412   9.441  14.542   6.340
15839SOL     OW49413   3.916  12.997  10.787
15839SOL    HW149414   3.917  12.930  10.855
15839SOL    HW249415   3.834  13.045  10.800
15840SOL     OW49416   2.642   6.902   9.448
15840SOL    HW149417   2.659   6.983   9.496
15840SOL    HW249418   2.547   6.894   9.448
15841SOL     OW49419  13.843  11.909   9.964
15841SOL    HW149420  13.756  11.944   9.942
15841SOL    HW249421  13.830  11.863  10.047
15842SOL     OW49422   2.782   8.868   0.379
15842SOL    HW149423   2.724   8.944   0.389
15842SOL    HW249424   2.723   8.794   0.368
15843SOL     OW49425   1.253   8.675   9.182
15843SOL    HW149426   1.338   8.641   9.155
15843SOL    HW249427   1.194   8.652   9.109
15844SOL     OW49428  14.645   9.794  10.479
15844SOL    HW149429  14.706   9.867  10.495
15844SOL    HW249430  14.571   9.812  10.537
15845SOL     OW49431   8.637  12.114   2.298
15845SOL    HW149432   8.712  12.148   2.250
15845SOL    HW249433   8.623  12.026   2.263
15846SOL     OW49434   9.758   0.623  11.763
15846SOL    HW149435   9.672   0.662  11.751
15846SOL    HW249436   9.750   0.534  11.730
15847SOL     OW49437  10.269   7.538  12.116
15847SOL    HW149438  10.207   7.469  12.090
15847SOL    HW249439  10.353   7.493  12.122
15848SOL     OW49440   1.201   2.771   7.121
15848SOL    HW149441   1.256   2.834   7.167
15848SOL    HW249442   1.210   2.793   7.028
15849SOL     OW49443   6.618  13.308   3.786
15849SOL    HW149444   6.636  13.373   3.718
15849SOL    HW249445   6.652  13.347   3.866
15850SOL     OW49446  11.128  14.706   8.979
15850SOL    HW149447  11.164  14.618   8.970
15850SOL    HW249448  11.079  14.720   8.898
15851SOL     OW49449   8.186   4.263   5.652
15851SOL    HW149450   8.184   4.286   5.559
15851SOL    HW249451   8.096   4.239   5.674
15852SOL     OW49452   0.013   3.795   0.307
15852SOL    HW149453  14.865   3.736   0.377
15852SOL    HW249454   0.072   3.858   0.349
15853SOL     OW49455   1.127  14.319   8.254
15853SOL    HW149456   1.080  14.279   8.180
15853SOL    HW249457   1.204  14.262   8.267
15854SOL     OW49458   9.083  12.412   9.070
15854SOL    HW149459   9.098  12.324   9.037
15854SOL    HW249460   9.010  12.445   9.018
15855SOL     OW49461  12.532   1.810   7.568
15855SOL    HW149462  12.548   1.794   7.475
15855SOL    HW249463  12.461   1.748   7.590
15856SOL     OW49464   6.560   0.788   2.928
15856SOL    HW149465   6.620   0.742   2.987
15856SOL    HW249466   6.607   0.792   2.845
15857SOL     OW49467  10.363  13.007  14.813
15857SOL    HW149468  10.403  13.015   0.022
15857SOL    HW249469  10.437  13.000  14.753
15858SOL     OW49470   5.544   0.788   6.768
15858SOL    HW149471   5.626   0.738   6.759
15858SOL    HW249472   5.562   0.871   6.725
15859SOL     OW49473   2.774   9.886  10.120
15859SOL    HW149474   2.802   9.795  10.135
15859SOL    HW249475   2.699   9.878  10.061
15860SOL     OW49476  11.798  11.394   3.005
15860SOL    HW149477  11.886  11.370   3.033
15860SOL    HW249478  11.757  11.312   2.977
15861SOL     OW49479   8.382   2.672  12.162
15861SOL    HW149480   8.474   2.696  12.152
15861SOL    HW249481   8.334   2.754  12.151
15862SOL     OW49482   3.280   6.399  12.059
15862SOL    HW149483   3.198   6.407  12.108
15862SOL    HW249484   3.324   6.324  12.098
15863SOL     OW49485   8.825   6.417  11.829
15863SOL    HW149486   8.758   6.475  11.793
15863SOL    HW249487   8.817   6.425  11.924
15864SOL     OW49488   8.515   5.669   3.540
15864SOL    HW149489   8.495   5.729   3.611
15864SOL    HW249490   8.604   5.640   3.557
15865SOL     OW49491   1.577   1.325   8.925
15865SOL    HW149492   1.549   1.237   8.952
15865SOL    HW249493   1.588   1.318   8.830
15866SOL     OW49494   2.228   3.830   8.718
15866SOL    HW149495   2.242   3.868   8.631
15866SOL    HW249496   2.156   3.882   8.755
15867SOL     OW49497   4.472   2.268   1.624
15867SOL    HW149498   4.466   2.275   1.719
15867SOL    HW249499   4.384   2.289   1.593
15868SOL     OW49500   7.277   3.378   2.467
15868SOL    HW149501   7.191   3.388   2.508
15868SOL    HW249502   7.310   3.295   2.500
15869SOL     OW49503   9.151  14.111   0.910
15869SOL    HW149504   9.093  14.128   0.984
15869SOL    HW249505   9.213  14.045   0.942
15870SOL     OW49506   2.862  10.609   6.923
15870SOL    HW149507   2.885  10.677   6.860
15870SOL    HW249508   2.793  10.648   6.977
15871SOL     OW49509   5.496  13.940   5.897
15871SOL    HW149510   5.420  13.974   5.945
15871SOL    HW249511   5.510  14.004   5.827
15872SOL     OW49512  14.332  12.742  12.485
15872SOL    HW149513  14.257  12.726  12.543
15872SOL    HW249514  14.311  12.825  12.442
15873SOL     OW49515   8.746  14.404   3.383
15873SOL    HW149516   8.784  14.408   3.471
15873SOL    HW249517   8.761  14.314   3.355
15874SOL     OW49518  12.744   3.715  12.926
15874SOL    HW149519  12.694   3.759  12.995
15874SOL    HW249520  12.725   3.622  12.939
15875SOL     OW49521   4.159  12.575   7.483
15875SOL    HW149522   4.248  12.547   7.503
15875SOL    HW249523   4.141  12.645   7.546
15876SOL     OW49524   9.334  11.222   2.796
15876SOL    HW149525   9.378  11.211   2.880
15876SOL    HW249526   9.264  11.157   2.797
15877SOL     OW49527  13.291  10.959   9.364
15877SOL    HW149528  13.376  10.921   9.387
15877SOL    HW249529  13.229  10.886   9.374
15878SOL     OW49530   1.884   3.436   7.518
15878SOL    HW149531   1.946   3.377   7.474
15878SOL    HW249532   1.854   3.495   7.449
15879SOL     OW49533   3.368  11.212  13.587
15879SOL    HW149534   3.297  11.148  13.587
15879SOL    HW249535   3.448  11.159  13.589
15880SOL     OW49536   9.060   3.799  11.478
15880SOL    HW149537   9.069   3.780  11.572
15880SOL    HW249538   9.024   3.888  11.475
15881SOL     OW49539   9.204   0.747   6.757
15881SOL    HW149540   9.280   0.756   6.700
15881SOL    HW249541   9.151   0.824   6.739
15882SOL     OW49542  10.090  13.878   1.530
15882SOL    HW149543  10.014  13.825   1.554
15882SOL    HW249544  10.163  13.816   1.526
15883SOL     OW49545  11.762   0.258   4.503
15883SOL    HW149546  11.726   0.326   4.445
15883SOL    HW249547  11.746   0.176   4.456
15884SOL     OW49548   0.225   6.990   1.124
15884SOL    HW149549   0.166   7.029   1.188
15884SOL    HW249550   0.168   6.944   1.063
15885SOL     OW49551   4.696   0.015   8.518
15885SOL    HW149552   4.718  14.877   8.610
15885SOL    HW249553   4.659   0.104   8.517
15886SOL     OW49554  11.738   0.075  10.294
15886SOL    HW149555  11.763   0.140  10.360
15886SOL    HW249556  11.691   0.008  10.343
15887SOL     OW49557   4.793   0.519   4.227
15887SOL    HW149558   4.809   0.554   4.139
15887SOL    HW249559   4.800   0.596   4.284
15888SOL     OW49560   7.219  11.894   0.084
15888SOL    HW149561   7.184  11.911  14.874
15888SOL    HW249562   7.265  11.810   0.076
15889SOL     OW49563   7.586   7.768   8.476
15889SOL    HW149564   7.656   7.757   8.540
15889SOL    HW249565   7.620   7.729   8.396
15890SOL     OW49566  11.652   2.618  13.515
15890SOL    HW149567  11.697   2.589  13.594
15890SOL    HW249568  11.597   2.545  13.490
15891SOL     OW49569   4.246   5.691   0.748
15891SOL    HW149570   4.327   5.738   0.729
15891SOL    HW249571   4.253   5.668   0.841
15892SOL     OW49572   4.431   6.219   9.081
15892SOL    HW149573   4.526   6.218   9.091
15892SOL    HW249574   4.401   6.286   9.143
15893SOL     OW49575   4.144   0.716  14.686
15893SOL    HW149576   4.126   0.710  14.592
15893SOL    HW249577   4.199   0.640  14.705
15894SOL     OW49578  14.626   1.895   0.125
15894SOL    HW149579  14.652   1.818   0.175
15894SOL    HW249580  14.540   1.872   0.089
15895SOL     OW49581   4.694   7.220   0.688
15895SOL    HW149582   4.669   7.133   0.659
15895SOL    HW249583   4.611   7.261   0.714
15896SOL     OW49584  11.894   9.539   7.741
15896SOL    HW149585  11.979   9.527   7.783
15896SOL    HW249586  11.897   9.481   7.665
15897SOL     OW49587  13.124   7.501   4.736
15897SOL    HW149588  13.137   7.586   4.779
15897SOL    HW249589  13.194   7.446   4.770
15898SOL     OW49590   9.096   5.322  13.114
15898SOL    HW149591   9.079   5.229  13.098
15898SOL    HW249592   9.186   5.324  13.146
15899SOL     OW49593   0.284   1.515   3.052
15899SOL    HW149594   0.191   1.520   3.075
15899SOL    HW249595   0.287   1.456   2.977
15900SOL     OW49596   6.563  13.684   5.099
15900SOL    HW149597   6.537  13.734   5.176
15900SOL    HW249598   6.492  13.699   5.036
15901SOL     OW49599   3.925  12.444  10.174
15901SOL    HW149600   3.975  12.364  10.166
15901SOL    HW249601   3.991  12.514  10.171
15902SOL     OW49602  13.048   2.591  13.370
15902SOL    HW149603  13.118   2.544  13.326
15902SOL    HW249604  13.029   2.665  13.312
15903SOL     OW49605   3.350  10.418   4.601
15903SOL    HW149606   3.280  10.453   4.655
15903SOL    HW249607   3.312  10.409   4.514
15904SOL     OW49608   5.550   2.911  13.573
15904SOL    HW149609   5.592   2.980  13.521
15904SOL    HW249610   5.577   2.930  13.663
15905SOL     OW49611  11.580   5.783   6.462
15905SOL    HW149612  11.640   5.726   6.510
15905SOL    HW249613  11.493   5.761   6.496
15906SOL     OW49614   6.517  12.295   1.924
15906SOL    HW149615   6.437  12.243   1.928
15906SOL    HW249616   6.585  12.232   1.901
15907SOL     OW49617   5.689   6.058   6.712
15907SOL    HW149618   5.767   6.090   6.757
15907SOL    HW249619   5.691   6.101   6.627
15908SOL     OW49620   8.918   5.652  13.916
15908SOL    HW149621   8.825   5.633  13.904
15908SOL    HW249622   8.931   5.646  14.010
15909SOL     OW49623   7.100   2.076   1.365
15909SOL    HW149624   7.080   2.168   1.383
15909SOL    HW249625   7.163   2.052   1.433
15910SOL     OW49626   9.362  11.085   7.868
15910SOL    HW149627   9.304  11.011   7.853
15910SOL    HW249628   9.429  11.077   7.800
15911SOL     OW49629  10.417  11.241   4.854
15911SOL    HW149630  10.442  11.245   4.762
15911SOL    HW249631  10.341  11.182   4.856
15912SOL     OW49632   2.750  14.455  14.073
15912SOL    HW149633   2.701  14.441  14.154
15912SOL    HW249634   2.831  14.407  14.085
15913SOL     OW49635   6.898  11.321   6.814
15913SOL    HW149636   6.990  11.314   6.791
15913SOL    HW249637   6.888  11.410   6.849
15914SOL     OW49638   8.403   6.134  13.682
15914SOL    HW149639   8.429   6.078  13.608
15914SOL    HW249640   8.437   6.221  13.659
15915SOL     OW49641   4.303   2.570   1.360
15915SOL    HW149642   4.328   2.631   1.429
15915SOL    HW249643   4.211   2.590   1.342
15916SOL     OW49644  13.505   6.880  14.526
15916SOL    HW149645  13.566   6.867  14.598
15916SOL    HW249646  13.444   6.947  14.558
15917SOL     OW49647   5.522   1.361   6.672
15917SOL    HW149648   5.613   1.387   6.657
15917SOL    HW249649   5.471   1.421   6.618
15918SOL     OW49650   7.390   9.182   9.970
15918SOL    HW149651   7.414   9.245   9.902
15918SOL    HW249652   7.473   9.159  10.011
15919SOL     OW49653   9.331   2.365   6.952
15919SOL    HW149654   9.337   2.431   7.021
15919SOL    HW249655   9.333   2.282   6.999
15920SOL     OW49656   0.636   7.557  13.974
15920SOL    HW149657   0.545   7.570  14.001
15920SOL    HW249658   0.639   7.467  13.942
15921SOL     OW49659  13.010   0.484   5.678
15921SOL    HW149660  12.989   0.512   5.767
15921SOL    HW249661  12.964   0.546   5.621
15922SOL     OW49662  13.783   8.835   5.746
15922SOL    HW149663  13.809   8.824   5.837
15922SOL    HW249664  13.842   8.779   5.696
15923SOL     OW49665   0.985   7.591  14.772
15923SOL    HW149666   0.908   7.597  14.828
15923SOL    HW249667   1.045   7.534  14.821
15924SOL     OW49668   5.344   6.927   0.529
15924SOL    HW149669   5.393   6.865   0.583
15924SOL    HW249670   5.405   6.998   0.512
15925SOL     OW49671   1.526  12.684   2.492
15925SOL    HW149672   1.589  12.684   2.564
15925SOL    HW249673   1.485  12.597   2.496
15926SOL     OW49674   2.528  10.436   5.449
15926SOL    HW149675   2.504  10.380   5.375
15926SOL    HW249676   2.516  10.525   5.416
15927SOL     OW49677   9.840  10.426   6.901
15927SOL    HW149678   9.887  10.466   6.828
15927SOL    HW249679   9.824  10.336   6.873
15928SOL     OW49680   1.085   2.038  14.465
15928SOL    HW149681   1.096   2.123  14.422
15928SOL    HW249682   1.152   2.036  14.533
15929SOL     OW49683  10.772   8.312   9.457
15929SOL    HW149684  10.861   8.342   9.440
15929SOL    HW249685  10.759   8.328   9.551
15930SOL     OW49686  12.521   7.013  12.648
15930SOL    HW149687  12.521   6.922  12.621
15930SOL    HW249688  12.569   7.059  12.579
15931SOL     OW49689   2.412   0.002  12.533
15931SOL    HW149690   2.420  14.871  12.438
15931SOL    HW249691   2.401   0.095  12.548
15932SOL     OW49692   0.380   8.250  13.116
15932SOL    HW149693   0.347   8.218  13.201
15932SOL    HW249694   0.422   8.173  13.077
15933SOL     OW49695  13.686   4.057   3.936
15933SOL    HW149696  13.743   4.040   4.011
15933SOL    HW249697  13.737   4.116   3.880
15934SOL     OW49698   2.690   0.785   6.342
15934SOL    HW149699   2.696   0.872   6.301
15934SOL    HW249700   2.609   0.748   6.308
15935SOL     OW49701  12.134  12.766   3.966
15935SOL    HW149702  12.153  12.747   4.058
15935SOL    HW249703  12.088  12.688   3.935
15936SOL     OW49704  12.479   7.975  10.172
15936SOL    HW149705  12.427   8.045  10.132
15936SOL    HW249706  12.492   8.003  10.263
15937SOL     OW49707   1.189   7.688   8.465
15937SOL    HW149708   1.196   7.720   8.376
15937SOL    HW249709   1.100   7.713   8.492
15938SOL     OW49710  12.578   1.018  10.955
15938SOL    HW149711  12.635   1.071  11.011
15938SOL    HW249712  12.559   1.074  10.880
15939SOL     OW49713   6.958  13.110  10.476
15939SOL    HW149714   6.999  13.168  10.540
15939SOL    HW249715   6.956  13.161  10.395
15940SOL     OW49716  12.471  14.418  14.414
15940SOL    HW149717  12.559  14.387  14.436
15940SOL    HW249718  12.418  14.397  14.490
15941SOL     OW49719   2.362  12.052  11.812
15941SOL    HW149720   2.402  12.077  11.729
15941SOL    HW249721   2.422  11.988  11.850
15942SOL     OW49722   3.478  10.065   0.695
15942SOL    HW149723   3.409  10.124   0.725
15942SOL    HW249724   3.441  10.022   0.617
15943SOL     OW49725   8.835  13.523  12.676
15943SOL    HW149726   8.908  13.519  12.614
15943SOL    HW249727   8.757  13.505  12.624
15944SOL     OW49728  11.193   7.732   8.310
15944SOL    HW149729  11.214   7.670   8.380
15944SOL    HW249730  11.115   7.778   8.342
15945SOL     OW49731  13.613   4.856  12.777
15945SOL    HW149732  13.528   4.894  12.802
15945SOL    HW249733  13.635   4.798  12.851
15946SOL     OW49734   0.054   8.792   9.148
15946SOL    HW149735   0.120   8.730   9.178
15946SOL    HW249736   0.104   8.869   9.120
15947SOL     OW49737   8.002   6.182   4.435
15947SOL    HW149738   7.979   6.134   4.515
15947SOL    HW249739   7.972   6.272   4.452
15948SOL     OW49740   8.111  10.608   8.339
15948SOL    HW149741   8.107  10.671   8.268
15948SOL    HW249742   8.041  10.633   8.399
15949SOL     OW49743   3.949  14.580   3.801
15949SOL    HW149744   3.965  14.566   3.895
15949SOL    HW249745   3.854  14.577   3.792
15950SOL     OW49746   7.743   1.074   3.298
15950SOL    HW149747   7.766   1.165   3.280
15950SOL    HW249748   7.819   1.024   3.269
15951SOL     OW49749  10.681   1.967   0.386
15951SOL    HW149750  10.727   1.938   0.307
15951SOL    HW249751  10.622   1.895   0.407
15952SOL     OW49752   9.305   9.573  13.626
15952SOL    HW149753   9.330   9.557  13.716
15952SOL    HW249754   9.383   9.552  13.575
15953SOL     OW49755   6.318   4.031   3.566
15953SOL    HW149756   6.344   4.113   3.609
15953SOL    HW249757   6.222   4.035   3.563
15954SOL     OW49758   4.940   1.692   7.901
15954SOL    HW149759   4.869   1.756   7.909
15954SOL    HW249760   5.006   1.721   7.964
15955SOL     OW49761   5.952   7.973   3.544
15955SOL    HW149762   5.925   7.966   3.452
15955SOL    HW249763   5.963   7.882   3.572
15956SOL     OW49764  14.533   7.626   8.862
15956SOL    HW149765  14.437   7.625   8.859
15956SOL    HW249766  14.558   7.673   8.782
15957SOL     OW49767   6.059   9.886   7.568
15957SOL    HW149768   6.008   9.862   7.491
15957SOL    HW249769   6.148   9.897   7.536
15958SOL     OW49770  10.192  11.171   5.275
15958SOL    HW149771  10.277  11.126   5.272
15958SOL    HW249772  10.194  11.230   5.200
15959SOL     OW49773   4.390   2.749  10.880
15959SOL    HW149774   4.479   2.729  10.910
15959SOL    HW249775   4.359   2.668  10.841
15960SOL     OW49776   3.446   7.626   0.566
15960SOL    HW149777   3.459   7.619   0.660
15960SOL    HW249778   3.511   7.567   0.527
15961SOL     OW49779  13.305  11.421   9.034
15961SOL    HW149780  13.254  11.425   8.954
15961SOL    HW249781  13.273  11.342   9.079
15962SOL     OW49782   1.570   7.435   2.322
15962SOL    HW149783   1.656   7.395   2.337
15962SOL    HW249784   1.589   7.527   2.304
15963SOL     OW49785   8.624   0.783   0.132
15963SOL    HW149786   8.533   0.799   0.107
15963SOL    HW249787   8.673   0.787   0.050
15964SOL     OW49788  12.837   2.183  10.870
15964SOL    HW149789  12.743   2.193  10.886
15964SOL    HW249790  12.879   2.224  10.945
15965SOL     OW49791  13.709   9.113  13.063
15965SOL    HW149792  13.705   9.024  13.028
15965SOL    HW249793  13.661   9.108  13.146
15966SOL     OW49794  14.579   9.015  12.326
15966SOL    HW149795  14.580   8.965  12.244
15966SOL    HW249796  14.557   8.951  12.393
15967SOL     OW49797   0.477   1.070   9.800
15967SOL    HW149798   0.465   0.988   9.848
15967SOL    HW249799   0.553   1.112   9.841
15968SOL     OW49800   2.131   1.945   3.691
15968SOL    HW149801   2.138   1.850   3.706
15968SOL    HW249802   2.099   1.952   3.601
15969SOL     OW49803   0.314   2.824  11.467
15969SOL    HW149804   0.255   2.755  11.438
15969SOL    HW249805   0.284   2.845  11.556
15970SOL     OW49806   4.852  13.841   8.730
15970SOL    HW149807   4.865  13.811   8.640
15970SOL    HW249808   4.807  13.769   8.774
15971SOL     OW49809  10.252   4.184   5.466
15971SOL    HW149810  10.238   4.277   5.450
15971SOL    HW249811  10.164   4.146   5.463
15972SOL     OW49812   6.594   6.831   8.729
15972SOL    HW149813   6.661   6.792   8.673
15972SOL    HW249814   6.582   6.768   8.800
15973SOL     OW49815  14.639   1.321   9.029
15973SOL    HW149816  14.596   1.307   9.114
15973SOL    HW249817  14.683   1.238   9.011
15974SOL     OW49818   0.957  12.283  11.559
15974SOL    HW149819   1.027  12.289  11.625
15974SOL    HW249820   0.878  12.264  11.610
15975SOL     OW49821  12.509   3.108   2.456
15975SOL    HW149822  12.429   3.157   2.439
15975SOL    HW249823  12.566   3.128   2.382
15976SOL     OW49824   6.190  12.371  14.840
15976SOL    HW149825   6.221  12.402  14.755
15976SOL    HW249826   6.116  12.314  14.819
15977SOL     OW49827  10.784  10.800   0.385
15977SOL    HW149828  10.712  10.757   0.431
15977SOL    HW249829  10.842  10.729   0.358
15978SOL     OW49830   9.685   6.889   5.062
15978SOL    HW149831   9.643   6.879   4.977
15978SOL    HW249832   9.672   6.981   5.085
15979SOL     OW49833   4.325   4.096   9.458
15979SOL    HW149834   4.320   4.116   9.364
15979SOL    HW249835   4.410   4.054   9.469
15980SOL     OW49836   1.166   3.602  11.407
15980SOL    HW149837   1.093   3.625  11.465
15980SOL    HW249838   1.124   3.579  11.325
15981SOL     OW49839   3.393  13.779  14.868
15981SOL    HW149840   3.368  13.860  14.822
15981SOL    HW249841   3.459  13.740  14.811
15982SOL     OW49842   9.936   6.265   9.315
15982SOL    HW149843   9.979   6.348   9.330
15982SOL    HW249844   9.850   6.274   9.356
15983SOL     OW49845   1.573  13.657   7.312
15983SOL    HW149846   1.521  13.721   7.264
15983SOL    HW249847   1.568  13.577   7.259
15984SOL     OW49848   0.943   8.651   3.614
15984SOL    HW149849   0.970   8.730   3.662
15984SOL    HW249850   0.918   8.684   3.527
15985SOL     OW49851   1.218  14.479   6.463
15985SOL    HW149852   1.202  14.525   6.545
15985SOL    HW249853   1.305  14.509   6.435
15986SOL     OW49854   5.525  11.661   4.370
15986SOL    HW149855   5.499  11.644   4.280
15986SOL    HW249856   5.589  11.732   4.364
15987SOL     OW49857   5.938  13.581   3.958
15987SOL    HW149858   5.868  13.523   3.929
15987SOL    HW249859   5.949  13.643   3.885
15988SOL     OW49860  11.255   8.280  11.559
15988SOL    HW149861  11.239   8.206  11.500
15988SOL    HW249862  11.286   8.239  11.640
15989SOL     OW49863   2.618   2.193   1.323
15989SOL    HW149864   2.647   2.246   1.397
15989SOL    HW249865   2.697   2.179   1.271
15990SOL     OW49866  11.488   8.450  12.713
15990SOL    HW149867  11.470   8.413  12.799
15990SOL    HW249868  11.430   8.526  12.707
15991SOL     OW49869   2.628  14.647   4.032
15991SOL    HW149870   2.574  14.678   3.960
15991SOL    HW249871   2.581  14.573   4.068
15992SOL     OW49872   0.762   8.589  14.116
15992SOL    HW149873   0.797   8.510  14.156
15992SOL    HW249874   0.714   8.558  14.039
15993SOL     OW49875   2.125  12.372   2.375
15993SOL    HW149876   2.202  12.425   2.355
15993SOL    HW249877   2.059  12.401   2.312
15994SOL     OW49878  11.580  14.278   8.739
15994SOL    HW149879  11.555  14.208   8.679
15994SOL    HW249880  11.671  14.259   8.762
15995SOL     OW49881  11.692  14.801  14.339
15995SOL    HW149882  11.703   0.003  14.392
15995SOL    HW249883  11.607  14.812  14.297
15996SOL     OW49884   6.159   2.619   9.409
15996SOL    HW149885   6.105   2.540   9.418
15996SOL    HW249886   6.109   2.687   9.453
15997SOL     OW49887  11.924   2.240   2.084
15997SOL    HW149888  11.991   2.309   2.082
15997SOL    HW249889  11.866   2.266   2.156
15998SOL     OW49890   0.543   2.911   5.469
15998SOL    HW149891   0.514   2.997   5.502
15998SOL    HW249892   0.534   2.918   5.374
15999SOL     OW49893   5.904   0.332  11.009
15999SOL    HW149894   5.960   0.337  10.931
15999SOL    HW249895   5.847   0.408  11.002
16000SOL     OW49896  14.128   1.688   6.913
16000SOL    HW149897  14.116   1.651   6.825
16000SOL    HW249898  14.041   1.716   6.939
16001SOL     OW49899  10.305   4.929   4.155
16001SOL    HW149900  10.221   4.972   4.173
16001SOL    HW249901  10.370   4.983   4.198
16002SOL     OW49902  12.964   2.964   8.713
16002SOL    HW149903  12.934   3.049   8.681
16002SOL    HW249904  12.993   2.980   8.803
16003SOL     OW49905   0.356   9.725  11.801
16003SOL    HW149906   0.333   9.633  11.806
16003SOL    HW249907   0.284   9.770  11.845
16004SOL     OW49908   2.646   7.778   3.167
16004SOL    HW149909   2.690   7.775   3.252
16004SOL    HW249910   2.565   7.729   3.181
16005SOL     OW49911  13.615   9.016   0.245
16005SOL    HW149912  13.609   8.921   0.258
16005SOL    HW249913  13.708   9.032   0.228
16006SOL     OW49914   1.082   9.905   7.641
16006SOL    HW149915   1.119   9.840   7.701
16006SOL    HW249916   1.109   9.875   7.554
16007SOL     OW49917  14.146   0.214  10.602
16007SOL    HW149918  14.111   0.255  10.681
16007SOL    HW249919  14.241   0.216  10.615
16008SOL     OW49920   8.134   9.977   2.039
16008SOL    HW149921   8.188  10.054   2.024
16008SOL    HW249922   8.127   9.935   1.953
16009SOL     OW49923   9.760  10.343   2.011
16009SOL    HW149924   9.712  10.368   1.932
16009SOL    HW249925   9.838  10.398   2.010
16010SOL     OW49926  11.350   4.999   2.396
16010SOL    HW149927  11.392   4.961   2.472
16010SOL    HW249928  11.421   5.014   2.334
16011SOL     OW49929  11.067  13.082  13.903
16011SOL    HW149930  11.159  13.084  13.877
16011SOL    HW249931  11.069  13.109  13.996
16012SOL     OW49932   0.007  11.474   1.522
16012SOL    HW149933  14.865  11.406   1.586
16012SOL    HW249934  14.869  11.556   1.568
16013SOL     OW49935   4.096   1.428   6.075
16013SOL    HW149936   4.065   1.423   5.985
16013SOL    HW249937   4.025   1.393   6.128
16014SOL     OW49938   5.162   4.150   6.989
16014SOL    HW149939   5.242   4.142   7.041
16014SOL    HW249940   5.093   4.116   7.045
16015SOL     OW49941   3.014   8.823  12.679
16015SOL    HW149942   2.992   8.822  12.772
16015SOL    HW249943   3.088   8.763  12.670
16016SOL     OW49944  11.797   2.862   5.829
16016SOL    HW149945  11.816   2.846   5.737
16016SOL    HW249946  11.735   2.793   5.853
16017SOL     OW49947   8.294   0.895   0.483
16017SOL    HW149948   8.307   0.821   0.425
16017SOL    HW249949   8.215   0.939   0.449
16018SOL     OW49950   4.802   4.320   5.136
16018SOL    HW149951   4.864   4.392   5.146
16018SOL    HW249952   4.726   4.347   5.187
16019SOL     OW49953   9.519  13.927   5.053
16019SOL    HW149954   9.587  13.974   5.005
16019SOL    HW249955   9.467  13.884   4.985
16020SOL     OW49956   9.994   4.120   5.326
16020SOL    HW149957   9.971   4.134   5.234
16020SOL    HW249958   9.912   4.094   5.367
16021SOL     OW49959  11.123   6.742  12.969
16021SOL    HW149960  11.101   6.655  13.002
16021SOL    HW249961  11.196   6.771  13.024
16022SOL     OW49962   0.867  14.643  12.667
16022SOL    HW149963   0.901  14.686  12.746
16022SOL    HW249964   0.784  14.688  12.649
16023SOL     OW49965   4.536   3.347   4.313
16023SOL    HW149966   4.630   3.329   4.322
16023SOL    HW249967   4.494   3.291   4.378
16024SOL     OW49968   8.637   2.885   6.155
16024SOL    HW149969   8.613   2.959   6.100
16024SOL    HW249970   8.554   2.858   6.195
16025SOL     OW49971   0.719   8.346   7.412
16025SOL    HW149972   0.743   8.337   7.319
16025SOL    HW249973   0.688   8.259   7.437
16026SOL     OW49974   1.831   3.764   1.994
16026SOL    HW149975   1.748   3.759   1.946
16026SOL    HW249976   1.821   3.701   2.065
16027SOL     OW49977   9.835   7.811  12.591
16027SOL    HW149978   9.894   7.882  12.614
16027SOL    HW249979   9.753   7.833  12.635
16028SOL     OW49980   1.978   8.494   9.000
16028SOL    HW149981   1.965   8.540   8.917
16028SOL    HW249982   2.073   8.483   9.007
16029SOL     OW49983   7.006  11.475   6.138
16029SOL    HW149984   6.999  11.426   6.055
16029SOL    HW249985   7.098  11.469   6.162
16030SOL     OW49986  12.974  12.784   7.411
16030SOL    HW149987  12.922  12.707   7.388
16030SOL    HW249988  13.057  12.770   7.366
16031SOL     OW49989   7.367   4.391   4.055
16031SOL    HW149990   7.315   4.439   4.120
16031SOL    HW249991   7.360   4.445   3.976
16032SOL     OW49992   7.949   3.624  14.157
16032SOL    HW149993   8.024   3.622  14.098
16032SOL    HW249994   7.905   3.707  14.138
16033SOL     OW49995  14.663  12.697   9.808
16033SOL    HW149996  14.655  12.667   9.718
16033SOL    HW249997  14.638  12.790   9.805
16034SOL     OW49998  10.720   1.387   0.242
16034SOL    HW149999  10.693   1.475   0.218
16034SOL    HW250000  10.815   1.394   0.258
16035SOL     OW50001   0.302   9.445   5.904
16035SOL    HW150002   0.345   9.510   5.960
16035SOL    HW250003   0.368   9.379   5.888
16036SOL     OW50004   5.657   3.945   3.136
16036SOL    HW150005   5.604   4.014   3.175
16036SOL    HW250006   5.695   3.898   3.210
16037SOL     OW50007  13.569  13.961  13.996
16037SOL    HW150008  13.638  14.023  13.971
16037SOL    HW250009  13.563  13.970  14.091
16038SOL     OW50010   2.217   0.720   5.344
16038SOL    HW150011   2.189   0.761   5.426
16038SOL    HW250012   2.136   0.713   5.292
16039SOL     OW50013  12.195   0.371   5.727
16039SOL    HW150014  12.213   0.465   5.731
16039SOL    HW250015  12.167   0.356   5.637
16040SOL     OW50016   5.312   6.977   4.162
16040SOL    HW150017   5.232   6.962   4.213
16040SOL    HW250018   5.380   6.930   4.210
16041SOL     OW50019   0.348   7.867   6.048
16041SOL    HW150020   0.387   7.889   5.963
16041SOL    HW250021   0.398   7.792   6.079
16042SOL     OW50022   4.467   1.701  12.231
16042SOL    HW150023   4.539   1.751  12.191
16042SOL    HW250024   4.425   1.764  12.290
16043SOL     OW50025   5.494   6.842   8.265
16043SOL    HW150026   5.459   6.756   8.287
16043SOL    HW250027   5.588   6.828   8.253
16044SOL     OW50028  12.477  13.103   0.017
16044SOL    HW150029  12.470  13.121   0.111
16044SOL    HW250030  12.538  13.030   0.011
16045SOL     OW50031   8.546   3.699  13.471
16045SOL    HW150032   8.608   3.728  13.538
16045SOL    HW250033   8.586   3.727  13.388
16046SOL     OW50034   3.373  14.649   1.235
16046SOL    HW150035   3.360  14.740   1.263
16046SOL    HW250036   3.454  14.622   1.279
16047SOL     OW50037   2.327   7.471  11.125
16047SOL    HW150038   2.411   7.454  11.084
16047SOL    HW250039   2.340   7.449  11.217
16048SOL     OW50040   6.566  10.902   7.782
16048SOL    HW150041   6.629  10.830   7.787
16048SOL    HW250042   6.501  10.882   7.849
16049SOL     OW50043   4.567  10.366   7.085
16049SOL    HW150044   4.474  10.382   7.102
16049SOL    HW250045   4.573  10.359   6.989
16050SOL     OW50046  13.883  12.802  13.373
16050SOL    HW150047  13.921  12.751  13.445
16050SOL    HW250048  13.881  12.741  13.299
16051SOL     OW50049   9.779   2.038   1.945
16051SOL    HW150050   9.851   2.100   1.938
16051SOL    HW250051   9.755   2.019   1.854
16052SOL     OW50052   2.954   2.777   4.311
16052SOL    HW150053   2.938   2.843   4.378
16052SOL    HW250054   2.990   2.702   4.359
16053SOL     OW50055  10.762   4.350   9.603
16053SOL    HW150056  10.769   4.276   9.663
16053SOL    HW250057  10.725   4.421   9.656
16054SOL     OW50058  13.039   4.658   1.001
16054SOL    HW150059  13.049   4.563   0.999
16054SOL    HW250060  13.083   4.689   0.922
16055SOL     OW50061  12.410   5.949   5.791
16055SOL    HW150062  12.478   6.016   5.792
16055SOL    HW250063  12.367   5.959   5.706
16056SOL     OW50064   9.537   6.154   7.419
16056SOL    HW150065   9.629   6.129   7.416
16056SOL    HW250066   9.512   6.167   7.327
16057SOL     OW50067   9.326  12.355   6.586
16057SOL    HW150068   9.362  12.377   6.501
16057SOL    HW250069   9.247  12.304   6.567
16058SOL     OW50070   9.606   5.706   1.331
16058SOL    HW150071   9.684   5.720   1.276
16058SOL    HW250072   9.580   5.616   1.313
16059SOL     OW50073   2.837  13.958   2.046
16059SOL    HW150074   2.915  14.013   2.058
16059SOL    HW250075   2.764  14.012   2.076
16060SOL     OW50076   7.201   4.829   2.783
16060SOL    HW150077   7.245   4.778   2.851
16060SOL    HW250078   7.229   4.789   2.701
16061SOL     OW50079   1.768   2.928   9.263
16061SOL    HW150080   1.829   2.998   9.239
16061SOL    HW250081   1.726   2.904   9.180
16062SOL     OW50082  11.749   9.190   2.092
16062SOL    HW150083  11.684   9.121   2.082
16062SOL    HW250084  11.832   9.144   2.107
16063SOL     OW50085   4.759   5.015   3.823
16063SOL    HW150086   4.699   5.073   3.869
16063SOL    HW250087   4.834   5.071   3.801
16064SOL     OW50088   7.931  13.653  14.383
16064SOL    HW150089   7.942  13.747  14.394
16064SOL    HW250090   7.865  13.629  14.448
16065SOL     OW50091   2.164   5.868   1.804
16065SOL    HW150092   2.118   5.853   1.721
16065SOL    HW250093   2.184   5.780   1.836
16066SOL     OW50094   0.309   2.412  11.112
16066SOL    HW150095   0.331   2.501  11.086
16066SOL    HW250096   0.389   2.379  11.154
16067SOL     OW50097   0.100   8.120   8.924
16067SOL    HW150098   0.144   8.038   8.902
16067SOL    HW250099   0.139   8.146   9.008
16068SOL     OW50100   6.886   6.424   8.402
16068SOL    HW150101   6.823   6.427   8.473
16068SOL    HW250102   6.834   6.409   8.323
16069SOL     OW50103   4.449  10.704   1.052
16069SOL    HW150104   4.404  10.783   1.023
16069SOL    HW250105   4.394  10.632   1.022
16070SOL     OW50106   7.818  13.326   7.921
16070SOL    HW150107   7.765  13.342   7.843
16070SOL    HW250108   7.903  13.298   7.887
16071SOL     OW50109   8.890   7.216   5.689
16071SOL    HW150110   8.880   7.134   5.642
16071SOL    HW250111   8.936   7.273   5.628
16072SOL     OW50112   8.090   0.348   6.579
16072SOL    HW150113   8.003   0.319   6.551
16072SOL    HW250114   8.148   0.326   6.506
16073SOL     OW50115  11.047   6.865   0.071
16073SOL    HW150116  10.953   6.857   0.089
16073SOL    HW250117  11.084   6.899   0.152
16074SOL     OW50118   2.595   1.612   4.142
16074SOL    HW150119   2.506   1.584   4.162
16074SOL    HW250120   2.585   1.693   4.091
16075SOL     OW50121   9.259   1.176   3.244
16075SOL    HW150122   9.338   1.205   3.290
16075SOL    HW250123   9.270   1.082   3.233
16076SOL     OW50124   6.267   6.151  13.722
16076SOL    HW150125   6.224   6.160  13.807
16076SOL    HW250126   6.359   6.137  13.744
16077SOL     OW50127  13.226   3.735   4.714
16077SOL    HW150128  13.266   3.721   4.800
16077SOL    HW250129  13.153   3.673   4.711
16078SOL     OW50130   8.634   5.993   1.521
16078SOL    HW150131   8.652   5.900   1.533
16078SOL    HW250132   8.645   6.031   1.609
16079SOL     OW50133  10.277   3.451   4.728
16079SOL    HW150134  10.226   3.527   4.703
16079SOL    HW250135  10.275   3.394   4.651
16080SOL     OW50136   6.125  11.099   6.573
16080SOL    HW150137   6.061  11.132   6.636
16080SOL    HW250138   6.185  11.172   6.560
16081SOL     OW50139   1.922   9.348   5.421
16081SOL    HW150140   1.836   9.307   5.434
16081SOL    HW250141   1.907   9.416   5.357
16082SOL     OW50142   0.487  14.064   7.061
16082SOL    HW150143   0.454  14.092   6.976
16082SOL    HW250144   0.459  14.132   7.122
16083SOL     OW50145   0.252   4.579  13.526
16083SOL    HW150146   0.208   4.586  13.441
16083SOL    HW250147   0.211   4.504  13.568
16084SOL     OW50148  11.693  14.679   6.562
16084SOL    HW150149  11.688  14.647   6.652
16084SOL    HW250150  11.632  14.752   6.559
16085SOL     OW50151   2.667  12.066  10.523
16085SOL    HW150152   2.587  12.023  10.492
16085SOL    HW250153   2.676  12.143  10.466
16086SOL     OW50154  12.879   1.088  12.360
16086SOL    HW150155  12.945   1.021  12.346
16086SOL    HW250156  12.925   1.158  12.407
16087SOL     OW50157   4.000   6.645  14.685
16087SOL    HW150158   4.002   6.708  14.613
16087SOL    HW250159   4.036   6.565  14.648
16088SOL     OW50160  12.614   3.527   1.075
16088SOL    HW150161  12.628   3.440   1.113
16088SOL    HW250162  12.641   3.519   0.984
16089SOL     OW50163   7.860  13.171   9.694
16089SOL    HW150164   7.764  13.170   9.691
16089SOL    HW250165   7.886  13.086   9.658
16090SOL     OW50166  10.750  13.559   2.823
16090SOL    HW150167  10.808  13.625   2.785
16090SOL    HW250168  10.662  13.593   2.808
16091SOL     OW50169   1.776   0.803  11.668
16091SOL    HW150170   1.767   0.878  11.611
16091SOL    HW250171   1.761   0.727  11.612
16092SOL     OW50172  14.765   8.033   6.087
16092SOL    HW150173  14.837   8.049   6.148
16092SOL    HW250174  14.730   8.120   6.068
16093SOL     OW50175   6.233   1.803   5.168
16093SOL    HW150176   6.285   1.803   5.249
16093SOL    HW250177   6.143   1.816   5.198
16094SOL     OW50178   8.651   0.340   5.845
16094SOL    HW150179   8.566   0.382   5.861
16094SOL    HW250180   8.636   0.282   5.771
16095SOL     OW50181   5.984   3.759  11.397
16095SOL    HW150182   6.040   3.762  11.319
16095SOL    HW250183   5.991   3.668  11.427
16096SOL     OW50184  10.344   8.220  11.053
16096SOL    HW150185  10.358   8.303  11.098
16096SOL    HW250186  10.432   8.189  11.031
16097SOL     OW50187   5.500  10.043   9.286
16097SOL    HW150188   5.499   9.960   9.334
16097SOL    HW250189   5.536  10.020   9.201
16098SOL     OW50190   5.890  13.050   1.789
16098SOL    HW150191   5.974  13.005   1.791
16098SOL    HW250192   5.898  13.119   1.854
16099SOL     OW50193   4.101   2.743   7.292
16099SOL    HW150194   4.171   2.746   7.227
16099SOL    HW250195   4.021   2.735   7.240
16100SOL     OW50196   9.643  11.976  12.830
16100SOL    HW150197   9.593  11.895  12.819
16100SOL    HW250198   9.719  11.966  12.773
16101SOL     OW50199  10.511  14.524  13.353
16101SOL    HW150200  10.465  14.564  13.427
16101SOL    HW250201  10.566  14.457  13.392
16102SOL     OW50202  12.202   3.917  14.438
16102SOL    HW150203  12.110   3.941  14.432
16102SOL    HW250204  12.202   3.828  14.471
16103SOL     OW50205   5.434   0.703  13.168
16103SOL    HW150206   5.496   0.658  13.111
16103SOL    HW250207   5.358   0.720  13.112
16104SOL     OW50208  11.008   4.645   1.203
16104SOL    HW150209  10.972   4.712   1.144
16104SOL    HW250210  11.099   4.671   1.217
16105SOL     OW50211  10.392   1.903   1.866
16105SOL    HW150212  10.417   1.935   1.953
16105SOL    HW250213  10.467   1.850   1.838
16106SOL     OW50214   7.583   5.827   4.213
16106SOL    HW150215   7.595   5.741   4.253
16106SOL    HW250216   7.665   5.844   4.166
16107SOL     OW50217   4.380  14.217   0.254
16107SOL    HW150218   4.346  14.294   0.300
16107SOL    HW250219   4.348  14.228   0.164
16108SOL     OW50220   4.289  13.023   1.816
16108SOL    HW150221   4.219  13.018   1.751
16108SOL    HW250222   4.337  12.941   1.806
16109SOL     OW50223   2.140   4.369   1.427
16109SOL    HW150224   2.120   4.309   1.498
16109SOL    HW250225   2.084   4.342   1.355
16110SOL     OW50226   1.485   5.317   9.732
16110SOL    HW150227   1.549   5.273   9.676
16110SOL    HW250228   1.446   5.246   9.784
16111SOL     OW50229   2.811  10.168   0.971
16111SOL    HW150230   2.830  10.083   1.010
16111SOL    HW250231   2.883  10.224   1.000
16112SOL     OW50232   8.843  14.210   1.866
16112SOL    HW150233   8.868  14.201   1.774
16112SOL    HW250234   8.803  14.297   1.871
16113SOL     OW50235   7.635  14.408   1.912
16113SOL    HW150236   7.587  14.486   1.940
16113SOL    HW250237   7.566  14.345   1.888
16114SOL     OW50238   4.925   9.537  10.004
16114SOL    HW150239   4.981   9.551  10.081
16114SOL    HW250240   4.953   9.452   9.969
16115SOL     OW50241   2.834   4.809   7.522
16115SOL    HW150242   2.915   4.859   7.522
16115SOL    HW250243   2.770   4.868   7.562
16116SOL     OW50244   4.152   8.355   2.404
16116SOL    HW150245   4.180   8.283   2.347
16116SOL    HW250246   4.065   8.330   2.435
16117SOL     OW50247  13.324   2.097  10.116
16117SOL    HW150248  13.364   2.079  10.031
16117SOL    HW250249  13.343   2.190  10.132
16118SOL     OW50250   1.510  12.561   3.067
16118SOL    HW150251   1.557  12.499   3.011
16118SOL    HW250252   1.423  12.521   3.078
16119SOL     OW50253  11.470   1.947   2.751
16119SOL    HW150254  11.415   1.903   2.686
16119SOL    HW250255  11.409   1.977   2.818
16120SOL     OW50256   8.703  10.769   6.067
16120SOL    HW150257   8.712  10.859   6.035
16120SOL    HW250258   8.634  10.731   6.013
16121SOL     OW50259   5.551   6.046   8.536
16121SOL    HW150260   5.542   5.993   8.457
16121SOL    HW250261   5.645   6.060   8.545
16122SOL     OW50262   0.567  10.528   2.660
16122SOL    HW150263   0.608  10.441   2.660
16122SOL    HW250264   0.474  10.510   2.647
16123SOL     OW50265   8.580   8.052  12.943
16123SOL    HW150266   8.540   8.123  12.993
16123SOL    HW250267   8.640   8.009  13.004
16124SOL     OW50268   7.894   4.517   2.163
16124SOL    HW150269   7.941   4.516   2.080
16124SOL    HW250270   7.875   4.610   2.178
16125SOL     OW50271  11.712   7.847  13.578
16125SOL    HW150272  11.669   7.915  13.526
16125SOL    HW250273  11.653   7.772  13.572
16126SOL     OW50274   9.455   6.558   4.332
16126SOL    HW150275   9.398   6.634   4.314
16126SOL    HW250276   9.406   6.483   4.299
16127SOL     OW50277   5.010   2.374  13.116
16127SOL    HW150278   5.066   2.319  13.061
16127SOL    HW250279   5.001   2.324  13.197
16128SOL     OW50280  14.675  13.449   4.861
16128SOL    HW150281  14.617  13.432   4.786
16128SOL    HW250282  14.723  13.367   4.873
16129SOL     OW50283  12.330   9.614   3.692
16129SOL    HW150284  12.341   9.659   3.608
16129SOL    HW250285  12.255   9.658   3.733
16130SOL     OW50286   5.453   5.151   3.656
16130SOL    HW150287   5.473   5.068   3.699
16130SOL    HW250288   5.499   5.216   3.708
16131SOL     OW50289   6.861  10.729  11.359
16131SOL    HW150290   6.865  10.672  11.436
16131SOL    HW250291   6.950  10.763  11.349
16132SOL     OW50292  12.201  13.607   9.020
16132SOL    HW150293  12.218  13.672   8.952
16132SOL    HW250294  12.248  13.529   8.990
16133SOL     OW50295   4.444   1.012   2.204
16133SOL    HW150296   4.409   1.092   2.245
16133SOL    HW250297   4.369   0.972   2.162
16134SOL     OW50298   4.342   9.441   1.643
16134SOL    HW150299   4.345   9.536   1.647
16134SOL    HW250300   4.282   9.421   1.571
16135SOL     OW50301   0.087   6.609  12.732
16135SOL    HW150302   0.041   6.563  12.802
16135SOL    HW250303   0.031   6.684  12.711
16136SOL     OW50304   4.297  11.870   1.788
16136SOL    HW150305   4.275  11.891   1.879
16136SOL    HW250306   4.263  11.781   1.775
16137SOL     OW50307  11.513   8.096   3.577
16137SOL    HW150308  11.538   8.120   3.488
16137SOL    HW250309  11.596   8.083   3.623
16138SOL     OW50310   9.873  12.811  11.253
16138SOL    HW150311   9.932  12.739  11.272
16138SOL    HW250312   9.911  12.886  11.299
16139SOL     OW50313   0.164   8.846   2.980
16139SOL    HW150314   0.120   8.819   3.060
16139SOL    HW250315   0.105   8.819   2.910
16140SOL     OW50316   7.759   3.379  13.412
16140SOL    HW150317   7.843   3.425  13.417
16140SOL    HW250318   7.695   3.448  13.392
16141SOL     OW50319  10.947   0.968   6.969
16141SOL    HW150320  11.001   1.047   6.969
16141SOL    HW250321  11.009   0.897   6.950
16142SOL     OW50322   5.461   8.449  13.483
16142SOL    HW150323   5.390   8.452  13.547
16142SOL    HW250324   5.514   8.527  13.503
16143SOL     OW50325   3.202  14.251  10.966
16143SOL    HW150326   3.139  14.195  10.921
16143SOL    HW250327   3.148  14.306  11.023
16144SOL     OW50328   4.082   4.385   2.542
16144SOL    HW150329   4.096   4.463   2.488
16144SOL    HW250330   4.169   4.360   2.572
16145SOL     OW50331   5.312   1.577   1.529
16145SOL    HW150332   5.328   1.648   1.592
16145SOL    HW250333   5.392   1.574   1.476
16146SOL     OW50334  14.136  12.176  14.766
16146SOL    HW150335  14.086  12.094  14.762
16146SOL    HW250336  14.082  12.234  14.819
16147SOL     OW50337   3.317  12.042   4.280
16147SOL    HW150338   3.288  11.980   4.347
16147SOL    HW250339   3.411  12.054   4.298
16148SOL     OW50340   6.342   5.450   7.465
16148SOL    HW150341   6.304   5.382   7.409
16148SOL    HW250342   6.436   5.443   7.452
16149SOL     OW50343   5.910   2.674   0.534
16149SOL    HW150344   5.969   2.734   0.580
16149SOL    HW250345   5.887   2.720   0.453
16150SOL     OW50346   3.295   6.806   9.447
16150SOL    HW150347   3.319   6.889   9.489
16150SOL    HW250348   3.330   6.739   9.506
16151SOL     OW50349  11.165  13.081   1.497
16151SOL    HW150350  11.141  13.144   1.565
16151SOL    HW250351  11.168  12.997   1.542
16152SOL     OW50352   8.419   3.466   5.193
16152SOL    HW150353   8.413   3.561   5.186
16152SOL    HW250354   8.492   3.442   5.136
16153SOL     OW50355   7.331  10.381   8.725
16153SOL    HW150356   7.417  10.351   8.697
16153SOL    HW250357   7.273  10.306   8.710
16154SOL     OW50358  11.072   6.427   5.865
16154SOL    HW150359  11.043   6.386   5.783
16154SOL    HW250360  11.024   6.382   5.933
16155SOL     OW50361   3.660  11.086   4.273
16155SOL    HW150362   3.578  11.078   4.321
16155SOL    HW250363   3.692  11.174   4.294
16156SOL     OW50364   5.255   0.096  11.520
16156SOL    HW150365   5.184   0.032  11.528
16156SOL    HW250366   5.242   0.135  11.434
16157SOL     OW50367  10.232  10.873  13.019
16157SOL    HW150368  10.292  10.920  13.078
16157SOL    HW250369  10.149  10.920  13.027
16158SOL     OW50370   7.691   4.058   8.011
16158SOL    HW150371   7.720   4.010   8.089
16158SOL    HW250372   7.652   4.138   8.045
16159SOL     OW50373   1.722   9.789   8.837
16159SOL    HW150374   1.649   9.728   8.839
16159SOL    HW250375   1.792   9.744   8.885
16160SOL     OW50376   5.140   1.665  12.582
16160SOL    HW150377   5.183   1.597  12.635
16160SOL    HW250378   5.074   1.702  12.640
16161SOL     OW50379   4.733   3.267   0.797
16161SOL    HW150380   4.756   3.258   0.705
16161SOL    HW250381   4.640   3.245   0.801
16162SOL     OW50382  12.090  11.474   3.919
16162SOL    HW150383  12.027  11.502   3.853
16162SOL    HW250384  12.176  11.490   3.880
16163SOL     OW50385   8.309   1.257   5.745
16163SOL    HW150386   8.242   1.191   5.759
16163SOL    HW250387   8.279   1.333   5.795
16164SOL     OW50388  11.826   7.756   4.954
16164SOL    HW150389  11.894   7.691   4.970
16164SOL    HW250390  11.857   7.835   4.997
16165SOL     OW50391   0.022  10.586  13.378
16165SOL    HW150392   0.110  10.605  13.346
16165SOL    HW250393  14.865  10.671  13.404
16166SOL     OW50394  12.853   6.404   9.291
16166SOL    HW150395  12.899   6.340   9.345
16166SOL    HW250396  12.908   6.482   9.293
16167SOL     OW50397   1.732   0.318  10.936
16167SOL    HW150398   1.750   0.358  11.021
16167SOL    HW250399   1.815   0.324  10.889
16168SOL     OW50400  12.242   3.817   4.467
16168SOL    HW150401  12.245   3.886   4.401
16168SOL    HW250402  12.275   3.739   4.423
16169SOL     OW50403   5.936  11.687   2.786
16169SOL    HW150404   5.938  11.777   2.753
16169SOL    HW250405   5.887  11.638   2.720
16170SOL     OW50406   0.023  10.864   4.348
16170SOL    HW150407   0.084  10.923   4.305
16170SOL    HW250408   0.069  10.835   4.427
16171SOL     OW50409   5.085   6.322   3.069
16171SOL    HW150410   5.052   6.397   3.118
16171SOL    HW250411   5.179   6.339   3.060
16172SOL     OW50412   0.179   4.828   2.732
16172SOL    HW150413   0.134   4.777   2.798
16172SOL    HW250414   0.110   4.856   2.671
16173SOL     OW50415   0.040   1.079   1.211
16173SOL    HW150416   0.026   1.117   1.298
16173SOL    HW250417  14.840   1.026   1.195
16174SOL     OW50418   4.571   4.736  10.837
16174SOL    HW150419   4.547   4.650  10.804
16174SOL    HW250420   4.658   4.724  10.876
16175SOL     OW50421   6.255   1.134  11.261
16175SOL    HW150422   6.166   1.164  11.248
16175SOL    HW250423   6.246   1.048  11.301
16176SOL     OW50424  13.227  13.712   9.230
16176SOL    HW150425  13.282  13.786   9.257
16176SOL    HW250426  13.200  13.672   9.312
16177SOL     OW50427   5.016   3.704  14.637
16177SOL    HW150428   5.012   3.767  14.565
16177SOL    HW250429   5.019   3.758  14.716
16178SOL     OW50430  12.816   9.575  11.460
16178SOL    HW150431  12.847   9.614  11.542
16178SOL    HW250432  12.738   9.625  11.438
16179SOL     OW50433  10.085   5.205  14.582
16179SOL    HW150434  10.000   5.175  14.551
16179SOL    HW250435  10.128   5.126  14.615
16180SOL     OW50436   4.825  13.152  11.684
16180SOL    HW150437   4.878  13.228  11.659
16180SOL    HW250438   4.791  13.175  11.771
16181SOL     OW50439   3.703   0.393   2.718
16181SOL    HW150440   3.654   0.323   2.760
16181SOL    HW250441   3.767   0.349   2.663
16182SOL     OW50442   7.788   2.305   6.023
16182SOL    HW150443   7.872   2.314   6.068
16182SOL    HW250444   7.783   2.213   5.999
16183SOL     OW50445   2.809   7.541   3.802
16183SOL    HW150446   2.807   7.494   3.719
16183SOL    HW250447   2.902   7.545   3.826
16184SOL     OW50448  10.187   7.152   2.345
16184SOL    HW150449  10.237   7.183   2.421
16184SOL    HW250450  10.254   7.118   2.285
16185SOL     OW50451   8.843   4.243   2.236
16185SOL    HW150452   8.801   4.186   2.173
16185SOL    HW250453   8.772   4.297   2.272
16186SOL     OW50454   3.019   8.229   0.615
16186SOL    HW150455   3.033   8.147   0.663
16186SOL    HW250456   2.924   8.242   0.617
16187SOL     OW50457   4.982  14.522   7.867
16187SOL    HW150458   4.984  14.484   7.779
16187SOL    HW250459   4.898  14.494   7.903
16188SOL     OW50460   2.880   1.322   1.657
16188SOL    HW150461   2.847   1.237   1.688
16188SOL    HW250462   2.810   1.384   1.679
16189SOL     OW50463  13.470   4.046   3.282
16189SOL    HW150464  13.422   4.033   3.364
16189SOL    HW250465  13.504   4.135   3.288
16190SOL     OW50466   3.697  11.171   3.889
16190SOL    HW150467   3.658  11.253   3.922
16190SOL    HW250468   3.744  11.136   3.964
16191SOL     OW50469   6.284   7.028  11.283
16191SOL    HW150470   6.263   7.021  11.376
16191SOL    HW250471   6.379   7.024  11.279
16192SOL     OW50472  10.929   4.139   1.046
16192SOL    HW150473  11.003   4.079   1.058
16192SOL    HW250474  10.857   4.083   1.017
16193SOL     OW50475   3.576   1.087  12.698
16193SOL    HW150476   3.497   1.035  12.683
16193SOL    HW250477   3.606   1.059  12.784
16194SOL     OW50478  12.174   8.714  13.890
16194SOL    HW150479  12.146   8.626  13.863
16194SOL    HW250480  12.220   8.749  13.814
16195SOL     OW50481  11.635   7.848  13.836
16195SOL    HW150482  11.599   7.760  13.822
16195SOL    HW250483  11.653   7.881  13.748
16196SOL     OW50484   5.248  12.627  14.672
16196SOL    HW150485   5.195  12.603  14.748
16196SOL    HW250486   5.246  12.723  14.671
16197SOL     OW50487   3.809   0.917   1.588
16197SOL    HW150488   3.871   0.882   1.524
16197SOL    HW250489   3.818   1.012   1.581
16198SOL     OW50490   7.670   8.193   3.242
16198SOL    HW150491   7.654   8.116   3.187
16198SOL    HW250492   7.665   8.267   3.182
16199SOL     OW50493  12.968   9.293  12.598
16199SOL    HW150494  13.018   9.299  12.517
16199SOL    HW250495  12.886   9.250  12.572
16200SOL     OW50496   0.597  12.093  12.990
16200SOL    HW150497   0.583  12.029  12.920
16200SOL    HW250498   0.691  12.087  13.009
16201SOL     OW50499  11.218  13.887  12.434
16201SOL    HW150500  11.273  13.813  12.458
16201SOL    HW250501  11.129  13.851  12.431
16202SOL     OW50502   8.849  12.618   4.800
16202SOL    HW150503   8.930  12.657   4.767
16202SOL    HW250504   8.860  12.617   4.895
16203SOL     OW50505   5.485   4.521   4.104
16203SOL    HW150506   5.418   4.453   4.096
16203SOL    HW250507   5.544   4.505   4.031
16204SOL     OW50508   1.045   3.075   7.760
16204SOL    HW150509   1.057   2.986   7.792
16204SOL    HW250510   1.103   3.081   7.684
16205SOL     OW50511   7.946   1.864   9.153
16205SOL    HW150512   7.911   1.888   9.068
16205SOL    HW250513   8.011   1.932   9.172
16206SOL     OW50514   3.623   6.997  10.055
16206SOL    HW150515   3.557   7.047  10.008
16206SOL    HW250516   3.656   6.934   9.992
16207SOL     OW50517   8.432   2.705   8.863
16207SOL    HW150518   8.410   2.782   8.915
16207SOL    HW250519   8.396   2.723   8.776
16208SOL     OW50520   5.513  13.807  11.396
16208SOL    HW150521   5.535  13.899  11.415
16208SOL    HW250522   5.420  13.800  11.417
16209SOL     OW50523   1.757   2.394   4.567
16209SOL    HW150524   1.736   2.406   4.475
16209SOL    HW250525   1.721   2.308   4.589
16210SOL     OW50526   2.323   4.077   3.545
16210SOL    HW150527   2.405   4.079   3.593
16210SOL    HW250528   2.278   3.999   3.578
16211SOL     OW50529  10.367  11.800   1.676
16211SOL    HW150530  10.440  11.851   1.711
16211SOL    HW250531  10.404  11.752   1.602
16212SOL     OW50532   6.455   1.598   7.357
16212SOL    HW150533   6.472   1.642   7.273
16212SOL    HW250534   6.469   1.666   7.423
16213SOL     OW50535  13.546   5.598   3.474
16213SOL    HW150536  13.576   5.512   3.444
16213SOL    HW250537  13.453   5.585   3.494
16214SOL     OW50538   8.036   2.883   8.449
16214SOL    HW150539   7.999   2.795   8.457
16214SOL    HW250540   8.049   2.895   8.354
16215SOL     OW50541  11.905  14.850  12.372
16215SOL    HW150542  11.860  14.866  12.455
16215SOL    HW250543  11.841  14.875  12.305
16216SOL     OW50544   1.077   3.273  12.758
16216SOL    HW150545   1.089   3.183  12.788
16216SOL    HW250546   1.084   3.267  12.663
16217SOL     OW50547   7.513  11.554  11.967
16217SOL    HW150548   7.462  11.516  11.895
16217SOL    HW250549   7.574  11.613  11.924
16218SOL     OW50550  13.722   3.942  10.463
16218SOL    HW150551  13.761   3.926  10.377
16218SOL    HW250552  13.755   4.027  10.489
16219SOL     OW50553  10.161  12.832   2.030
16219SOL    HW150554  10.157  12.865   1.940
16219SOL    HW250555  10.144  12.739   2.022
16220SOL     OW50556   9.365   9.271   3.828
16220SOL    HW150557   9.392   9.359   3.854
16220SOL    HW250558   9.361   9.274   3.732
16221SOL     OW50559   9.820   2.378   7.615
16221SOL    HW150560   9.775   2.313   7.669
16221SOL    HW250561   9.891   2.410   7.671
16222SOL     OW50562  10.192   7.636  13.869
16222SOL    HW150563  10.239   7.593  13.798
16222SOL    HW250564  10.198   7.730  13.848
16223SOL     OW50565  11.323   4.585   3.286
16223SOL    HW150566  11.302   4.674   3.313
16223SOL    HW250567  11.391   4.596   3.219
16224SOL     OW50568  10.289   4.670  13.460
16224SOL    HW150569  10.307   4.743  13.402
16224SOL    HW250570  10.303   4.592  13.406
16225SOL     OW50571   8.122   7.744   7.597
16225SOL    HW150572   8.146   7.711   7.684
16225SOL    HW250573   8.079   7.670   7.554
16226SOL     OW50574   3.971  12.514   7.202
16226SOL    HW150575   3.893  12.569   7.197
16226SOL    HW250576   4.014  12.540   7.283
16227SOL     OW50577   5.108   0.840   4.238
16227SOL    HW150578   5.080   0.931   4.225
16227SOL    HW250579   5.027   0.790   4.244
16228SOL     OW50580   1.021   0.974  10.628
16228SOL    HW150581   1.015   0.899  10.686
16228SOL    HW250582   0.965   1.041  10.668
16229SOL     OW50583  10.487  14.003   1.587
16229SOL    HW150584  10.442  13.928   1.625
16229SOL    HW250585  10.564  14.016   1.643
16230SOL     OW50586   9.906   6.583   9.312
16230SOL    HW150587   9.921   6.664   9.264
16230SOL    HW250588   9.991   6.564   9.353
16231SOL     OW50589   5.926   7.243  13.018
16231SOL    HW150590   6.003   7.258  12.963
16231SOL    HW250591   5.882   7.169  12.976
16232SOL     OW50592   2.362   0.471   8.771
16232SOL    HW150593   2.353   0.544   8.710
16232SOL    HW250594   2.292   0.484   8.835
16233SOL     OW50595  13.724   0.517   9.216
16233SOL    HW150596  13.730   0.589   9.154
16233SOL    HW250597  13.630   0.505   9.230
16234SOL     OW50598   8.152   1.511   0.829
16234SOL    HW150599   8.106   1.574   0.773
16234SOL    HW250600   8.242   1.510   0.794
16235SOL     OW50601   5.229   3.155  10.496
16235SOL    HW150602   5.152   3.132  10.547
16235SOL    HW250603   5.240   3.082  10.435
16236SOL     OW50604   9.723   4.073  10.167
16236SOL    HW150605   9.750   3.983  10.183
16236SOL    HW250606   9.666   4.068  10.090
16237SOL     OW50607   4.774   5.218  14.228
16237SOL    HW150608   4.699   5.247  14.176
16237SOL    HW250609   4.817   5.152  14.175
16238SOL     OW50610   5.374   1.367   0.241
16238SOL    HW150611   5.331   1.452   0.238
16238SOL    HW250612   5.323   1.312   0.180
16239SOL     OW50613  13.905   2.521   7.523
16239SOL    HW150614  13.947   2.437   7.503
16239SOL    HW250615  13.822   2.496   7.564
16240SOL     OW50616   7.612  10.284  11.019
16240SOL    HW150617   7.676  10.347  11.053
16240SOL    HW250618   7.581  10.238  11.097
16241SOL     OW50619  10.081  14.517  11.986
16241SOL    HW150620  10.125  14.534  12.070
16241SOL    HW250621  10.105  14.427  11.965
16242SOL     OW50622  12.491   2.170   6.658
16242SOL    HW150623  12.534   2.160   6.743
16242SOL    HW250624  12.532   2.247   6.619
16243SOL     OW50625  10.111  12.731   6.522
16243SOL    HW150626  10.152  12.785   6.453
16243SOL    HW250627  10.026  12.708   6.486
16244SOL     OW50628  10.232   5.392  11.148
16244SOL    HW150629  10.180   5.382  11.227
16244SOL    HW250630  10.306   5.448  11.174
16245SOL     OW50631   2.437  13.722  11.129
16245SOL    HW150632   2.487  13.804  11.124
16245SOL    HW250633   2.389  13.728  11.212
16246SOL     OW50634  14.534   9.664  10.904
16246SOL    HW150635  14.554   9.747  10.948
16246SOL    HW250636  14.596   9.659  10.831
16247SOL     OW50637  10.981   2.096   5.208
16247SOL    HW150638  10.968   2.170   5.268
16247SOL    HW250639  10.968   2.019   5.264
16248SOL     OW50640   5.273   6.669   0.323
16248SOL    HW150641   5.343   6.692   0.384
16248SOL    HW250642   5.266   6.744   0.264
16249SOL     OW50643  11.352   2.995   7.669
16249SOL    HW150644  11.400   3.054   7.728
16249SOL    HW250645  11.264   3.033   7.663
16250SOL     OW50646   7.393  11.071  14.865
16250SOL    HW150647   7.486  11.047  14.867
16250SOL    HW250648   7.387  11.147   0.044
16251SOL     OW50649   8.013   1.877  13.125
16251SOL    HW150650   7.936   1.934  13.133
16251SOL    HW250651   8.006   1.818  13.200
16252SOL     OW50652  12.947   1.882   4.019
16252SOL    HW150653  12.995   1.805   4.050
16252SOL    HW250654  13.016   1.943   3.990
16253SOL     OW50655  11.815   0.723  10.721
16253SOL    HW150656  11.825   0.770  10.638
16253SOL    HW250657  11.727   0.686  10.716
16254SOL     OW50658   5.994   3.006   0.279
16254SOL    HW150659   6.016   3.029   0.369
16254SOL    HW250660   5.957   2.918   0.285
16255SOL     OW50661  14.128   4.128  14.113
16255SOL    HW150662  14.073   4.203  14.134
16255SOL    HW250663  14.108   4.064  14.181
16256SOL     OW50664   1.838   7.493   7.286
16256SOL    HW150665   1.781   7.416   7.281
16256SOL    HW250666   1.926   7.458   7.273
16257SOL     OW50667   6.894  13.460   3.361
16257SOL    HW150668   6.864  13.409   3.285
16257SOL    HW250669   6.975  13.417   3.388
16258SOL     OW50670   2.419   8.075   4.256
16258SOL    HW150671   2.508   8.053   4.282
16258SOL    HW250672   2.377   7.990   4.239
16259SOL     OW50673   4.835   8.213  13.931
16259SOL    HW150674   4.898   8.279  13.902
16259SOL    HW250675   4.751   8.259  13.932
16260SOL     OW50676   9.420  13.109   2.541
16260SOL    HW150677   9.472  13.181   2.506
16260SOL    HW250678   9.400  13.055   2.465
16261SOL     OW50679   4.341   0.834   7.603
16261SOL    HW150680   4.411   0.769   7.592
16261SOL    HW250681   4.260   0.786   7.589
16262SOL     OW50682  10.093   4.728   6.730
16262SOL    HW150683  10.077   4.796   6.665
16262SOL    HW250684  10.061   4.765   6.812
16263SOL     OW50685   6.841  14.156  11.701
16263SOL    HW150686   6.784  14.113  11.637
16263SOL    HW250687   6.922  14.105  11.700
16264SOL     OW50688   8.661  12.942   0.082
16264SOL    HW150689   8.719  13.013   0.054
16264SOL    HW250690   8.690  12.866   0.033
16265SOL     OW50691   6.601   2.276  12.011
16265SOL    HW150692   6.629   2.267  11.920
16265SOL    HW250693   6.650   2.209  12.058
16266SOL     OW50694   7.945   4.548   8.657
16266SOL    HW150695   8.027   4.537   8.609
16266SOL    HW250696   7.918   4.638   8.639
16267SOL     OW50697   9.062  13.912  10.922
16267SOL    HW150698   9.013  13.838  10.885
16267SOL    HW250699   9.143  13.873  10.955
16268SOL     OW50700   1.728   2.995   1.979
16268SOL    HW150701   1.773   2.930   1.924
16268SOL    HW250702   1.668   3.039   1.919
16269SOL     OW50703  14.421   9.384  11.237
16269SOL    HW150704  14.478   9.461  11.234
16269SOL    HW250705  14.374   9.385  11.153
16270SOL     OW50706   2.146   0.234   9.756
16270SOL    HW150707   2.155   0.207   9.665
16270SOL    HW250708   2.220   0.191   9.801
16271SOL     OW50709   6.437   0.076   6.317
16271SOL    HW150710   6.459   0.142   6.251
16271SOL    HW250711   6.379   0.015   6.271
16272SOL     OW50712   7.750  12.616  11.224
16272SOL    HW150713   7.728  12.630  11.317
16272SOL    HW250714   7.831  12.665  11.212
16273SOL     OW50715  10.452  12.843  11.307
16273SOL    HW150716  10.446  12.939  11.307
16273SOL    HW250717  10.406  12.816  11.228
16274SOL     OW50718  13.411   0.241   3.630
16274SOL    HW150719  13.412   0.150   3.600
16274SOL    HW250720  13.439   0.236   3.721
16275SOL     OW50721   8.665   4.018   5.736
16275SOL    HW150722   8.576   4.046   5.719
16275SOL    HW250723   8.712   4.098   5.758
16276SOL     OW50724  10.314   3.937   9.523
16276SOL    HW150725  10.232   3.987   9.529
16276SOL    HW250726  10.369   3.989   9.464
16277SOL     OW50727  11.500   2.795   6.756
16277SOL    HW150728  11.537   2.882   6.743
16277SOL    HW250729  11.569   2.735   6.726
16278SOL     OW50730   7.599  11.432  11.547
16278SOL    HW150731   7.541  11.497  11.588
16278SOL    HW250732   7.573  11.433  11.454
16279SOL     OW50733   4.264   4.351   7.193
16279SOL    HW150734   4.311   4.299   7.128
16279SOL    HW250735   4.303   4.324   7.277
16280SOL     OW50736  14.184   2.885  12.073
16280SOL    HW150737  14.253   2.931  12.024
16280SOL    HW250738  14.155   2.816  12.013
16281SOL     OW50739   6.115  14.397   2.821
16281SOL    HW150740   6.134  14.336   2.749
16281SOL    HW250741   6.164  14.476   2.798
16282SOL     OW50742   0.620   6.532  14.156
16282SOL    HW150743   0.637   6.455  14.210
16282SOL    HW250744   0.605   6.497  14.068
16283SOL     OW50745   2.397   7.765   4.127
16283SOL    HW150746   2.376   7.686   4.077
16283SOL    HW250747   2.446   7.819   4.066
16284SOL     OW50748   6.462  12.212   7.552
16284SOL    HW150749   6.482  12.138   7.494
16284SOL    HW250750   6.378  12.189   7.591
16285SOL     OW50751   1.681   0.983  13.411
16285SOL    HW150752   1.625   0.940  13.346
16285SOL    HW250753   1.647   1.073  13.415
16286SOL     OW50754   5.253   3.450   3.409
16286SOL    HW150755   5.200   3.408   3.477
16286SOL    HW250756   5.220   3.413   3.327
16287SOL     OW50757  12.761   0.618  13.571
16287SOL    HW150758  12.703   0.649  13.640
16287SOL    HW250759  12.718   0.645  13.490
16288SOL     OW50760  14.503   8.932   5.594
16288SOL    HW150761  14.504   8.948   5.500
16288SOL    HW250762  14.411   8.916   5.615
16289SOL     OW50763   0.318   1.591  10.725
16289SOL    HW150764   0.330   1.666  10.784
16289SOL    HW250765   0.407   1.563  10.704
16290SOL     OW50766  13.145  12.493  14.630
16290SOL    HW150767  13.063  12.542  14.635
16290SOL    HW250768  13.206  12.554  14.587
16291SOL     OW50769   5.169  13.211   1.687
16291SOL    HW150770   5.258  13.245   1.684
16291SOL    HW250771   5.114  13.284   1.658
16292SOL     OW50772   9.607  10.381   5.888
16292SOL    HW150773   9.557  10.319   5.834
16292SOL    HW250774   9.552  10.458   5.895
16293SOL     OW50775   3.680   8.641   3.262
16293SOL    HW150776   3.636   8.570   3.310
16293SOL    HW250777   3.715   8.698   3.331
16294SOL     OW50778   2.818   6.032  11.998
16294SOL    HW150779   2.911   6.033  12.018
16294SOL    HW250780   2.785   5.952  12.040
16295SOL     OW50781  11.792   3.184  12.839
16295SOL    HW150782  11.745   3.121  12.784
16295SOL    HW250783  11.742   3.265  12.831
16296SOL     OW50784   7.471  13.258   1.952
16296SOL    HW150785   7.454  13.286   2.042
16296SOL    HW250786   7.444  13.332   1.898
16297SOL     OW50787   9.743   2.926  12.540
16297SOL    HW150788   9.834   2.918  12.568
16297SOL    HW250789   9.731   2.854  12.478
16298SOL     OW50790   0.203   2.746   8.880
16298SOL    HW150791   0.260   2.788   8.816
16298SOL    HW250792   0.178   2.663   8.838
16299SOL     OW50793   7.157   4.492  14.586
16299SOL    HW150794   7.235   4.519  14.536
16299SOL    HW250795   7.148   4.558  14.655
16300SOL     OW50796  13.221   2.911  11.551
16300SOL    HW150797  13.221   2.985  11.612
16300SOL    HW250798  13.312   2.903  11.523
16301SOL     OW50799   8.152  10.204   7.445
16301SOL    HW150800   8.174  10.118   7.480
16301SOL    HW250801   8.121  10.187   7.356
16302SOL     OW50802   1.883   3.642   8.330
16302SOL    HW150803   1.920   3.718   8.284
16302SOL    HW250804   1.958   3.603   8.375
16303SOL     OW50805  12.674   0.961  12.253
16303SOL    HW150806  12.737   1.028  12.280
16303SOL    HW250807  12.647   0.919  12.334
16304SOL     OW50808   7.761   1.439   6.489
16304SOL    HW150809   7.806   1.428   6.573
16304SOL    HW250810   7.828   1.475   6.431
16305SOL     OW50811  11.409   7.193   3.823
16305SOL    HW150812  11.450   7.272   3.858
16305SOL    HW250813  11.337   7.225   3.769
16306SOL     OW50814   4.276   3.718   4.952
16306SOL    HW150815   4.290   3.628   4.982
16306SOL    HW250816   4.361   3.745   4.918
16307SOL     OW50817  12.364  13.420  11.804
16307SOL    HW150818  12.278  13.457  11.786
16307SOL    HW250819  12.370  13.344  11.746
16308SOL     OW50820  12.829  10.521   8.964
16308SOL    HW150821  12.887  10.445   8.973
16308SOL    HW250822  12.816  10.553   9.053
16309SOL     OW50823   5.186   7.844   1.254
16309SOL    HW150824   5.116   7.885   1.204
16309SOL    HW250825   5.143   7.773   1.302
16310SOL     OW50826   9.136  13.749   3.929
16310SOL    HW150827   9.210  13.804   3.954
16310SOL    HW250828   9.075  13.757   4.002
16311SOL     OW50829   1.016  10.390   3.121
16311SOL    HW150830   1.024  10.431   3.035
16311SOL    HW250831   0.975  10.306   3.104
16312SOL     OW50832   0.857   3.163   6.641
16312SOL    HW150833   0.905   3.081   6.651
16312SOL    HW250834   0.882   3.195   6.554
16313SOL     OW50835   3.431   7.232   3.483
16313SOL    HW150836   3.507   7.206   3.535
16313SOL    HW250837   3.436   7.178   3.404
16314SOL     OW50838   0.979   8.060  10.768
16314SOL    HW150839   1.035   7.986  10.744
16314SOL    HW250840   1.035   8.137  10.762
16315SOL     OW50841   6.126   5.510  14.774
16315SOL    HW150842   6.130   5.529  14.868
16315SOL    HW250843   6.032   5.501  14.756
16316SOL     OW50844  13.543   0.489   6.178
16316SOL    HW150845  13.562   0.421   6.243
16316SOL    HW250846  13.599   0.466   6.103
16317SOL     OW50847  14.409   5.805  12.196
16317SOL    HW150848  14.462   5.840  12.125
16317SOL    HW250849  14.324   5.847  12.185
16318SOL     OW50850   5.840  12.036   8.923
16318SOL    HW150851   5.868  11.981   8.850
16318SOL    HW250852   5.810  11.975   8.990
16319SOL     OW50853  12.593   5.346  12.600
16319SOL    HW150854  12.665   5.370  12.658
16319SOL    HW250855  12.515   5.387  12.639
16320SOL     OW50856   8.159  13.970   4.296
16320SOL    HW150857   8.162  13.875   4.288
16320SOL    HW250858   8.079  13.996   4.250
16321SOL     OW50859   9.925   5.291   6.696
16321SOL    HW150860   9.947   5.384   6.697
16321SOL    HW250861   9.886   5.277   6.609
16322SOL     OW50862   0.880  10.681   9.799
16322SOL    HW150863   0.958  10.648   9.755
16322SOL    HW250864   0.810  10.671   9.735
16323SOL     OW50865  10.075   2.087   9.844
16323SOL    HW150866  10.014   2.147   9.801
16323SOL    HW250867  10.020   2.018   9.881
16324SOL     OW50868  14.591  11.900   2.266
16324SOL    HW150869  14.579  11.894   2.361
16324SOL    HW250870  14.517  11.954   2.236
16325SOL     OW50871   2.613   9.701  13.863
16325SOL    HW150872   2.704   9.671  13.858
16325SOL    HW250873   2.602   9.731  13.953
16326SOL     OW50874   2.970  10.818  12.957
16326SOL    HW150875   2.912  10.878  12.910
16326SOL    HW250876   3.001  10.869  13.032
16327SOL     OW50877   9.462  13.246   8.803
16327SOL    HW150878   9.511  13.259   8.884
16327SOL    HW250879   9.386  13.305   8.811
16328SOL     OW50880   3.784   3.370  10.589
16328SOL    HW150881   3.833   3.450  10.607
16328SOL    HW250882   3.754   3.340  10.675
16329SOL     OW50883   0.254   6.029   0.866
16329SOL    HW150884   0.222   6.117   0.884
16329SOL    HW250885   0.289   5.998   0.949
16330SOL     OW50886   6.913  13.124   0.728
16330SOL    HW150887   6.821  13.149   0.728
16330SOL    HW250888   6.961  13.206   0.736
16331SOL     OW50889  11.107   8.002  14.610
16331SOL    HW150890  11.179   8.063  14.593
16331SOL    HW250891  11.066   7.989  14.524
16332SOL     OW50892   7.324  10.457   9.920
16332SOL    HW150893   7.261  10.463   9.848
16332SOL    HW250894   7.286  10.511   9.990
16333SOL     OW50895   2.452   8.079  10.151
16333SOL    HW150896   2.401   8.085  10.070
16333SOL    HW250897   2.508   8.002  10.138
16334SOL     OW50898   4.735   6.354  14.103
16334SOL    HW150899   4.700   6.397  14.180
16334SOL    HW250900   4.775   6.425  14.052
16335SOL     OW50901   9.322  11.413   4.480
16335SOL    HW150902   9.253  11.349   4.464
16335SOL    HW250903   9.403  11.363   4.472
16336SOL     OW50904   3.856   4.618   0.657
16336SOL    HW150905   3.899   4.534   0.673
16336SOL    HW250906   3.854   4.626   0.562
16337SOL     OW50907  14.646   3.828   0.579
16337SOL    HW150908  14.658   3.905   0.524
16337SOL    HW250909  14.579   3.854   0.642
16338SOL     OW50910   8.871  12.304  12.049
16338SOL    HW150911   8.882  12.313  11.954
16338SOL    HW250912   8.790  12.352  12.068
16339SOL     OW50913  13.387   7.602  13.193
16339SOL    HW150914  13.384   7.507  13.181
16339SOL    HW250915  13.415   7.636  13.108
16340SOL     OW50916   9.528   9.423  14.761
16340SOL    HW150917   9.573   9.467  14.833
16340SOL    HW250918   9.587   9.436  14.686
16341SOL     OW50919   1.825   4.522   9.659
16341SOL    HW150920   1.861   4.591   9.715
16341SOL    HW250921   1.786   4.570   9.585
16342SOL     OW50922   4.322  12.894   6.599
16342SOL    HW150923   4.363  12.860   6.520
16342SOL    HW250924   4.394  12.931   6.649
16343SOL     OW50925   9.302  14.735   5.446
16343SOL    HW150926   9.240  14.806   5.433
16343SOL    HW250927   9.295  14.714   5.539
16344SOL     OW50928   7.967  11.396  11.115
16344SOL    HW150929   7.913  11.319  11.133
16344SOL    HW250930   7.988  11.390  11.022
16345SOL     OW50931  12.996   8.842   5.210
16345SOL    HW150932  13.066   8.786   5.243
16345SOL    HW250933  12.979   8.903   5.281
16346SOL     OW50934  13.396   6.885   9.413
16346SOL    HW150935  13.367   6.970   9.379
16346SOL    HW250936  13.458   6.853   9.348
16347SOL     OW50937   4.216   3.849   9.507
16347SOL    HW150938   4.297   3.810   9.539
16347SOL    HW250939   4.234   3.943   9.504
16348SOL     OW50940   6.249   7.057   7.096
16348SOL    HW150941   6.341   7.083   7.100
16348SOL    HW250942   6.228   7.028   7.185
16349SOL     OW50943  11.233  12.604   5.972
16349SOL    HW150944  11.275  12.524   5.940
16349SOL    HW250945  11.198  12.579   6.058
16350SOL     OW50946   1.136   7.144   7.057
16350SOL    HW150947   1.125   7.200   7.133
16350SOL    HW250948   1.047   7.119   7.032
16351SOL     OW50949   5.332  11.467   9.963
16351SOL    HW150950   5.426  11.450   9.967
16351SOL    HW250951   5.296  11.419  10.038
16352SOL     OW50952   5.400  12.294  13.565
16352SOL    HW150953   5.311  12.258  13.564
16352SOL    HW250954   5.388  12.387  13.582
16353SOL     OW50955   5.980  10.838   8.896
16353SOL    HW150956   5.906  10.838   8.957
16353SOL    HW250957   5.958  10.905   8.831
16354SOL     OW50958  13.876   1.269   9.120
16354SOL    HW150959  13.846   1.200   9.179
16354SOL    HW250960  13.955   1.303   9.160
16355SOL     OW50961   5.164   3.319   6.620
16355SOL    HW150962   5.156   3.406   6.658
16355SOL    HW250963   5.258   3.305   6.611
16356SOL     OW50964   1.727   4.158   0.363
16356SOL    HW150965   1.799   4.096   0.372
16356SOL    HW250966   1.674   4.124   0.291
16357SOL     OW50967   3.585   6.816   9.697
16357SOL    HW150968   3.597   6.909   9.679
16357SOL    HW250969   3.559   6.778   9.613
16358SOL     OW50970   2.114   1.095  14.655
16358SOL    HW150971   2.081   1.117  14.743
16358SOL    HW250972   2.040   1.112  14.597
16359SOL     OW50973   2.279  10.455   0.296
16359SOL    HW150974   2.280  10.550   0.290
16359SOL    HW250975   2.274  10.437   0.390
16360SOL     OW50976   3.721   6.923   5.804
16360SOL    HW150977   3.712   6.836   5.842
16360SOL    HW250978   3.778   6.910   5.728
16361SOL     OW50979   2.751   1.129  14.477
16361SOL    HW150980   2.788   1.072  14.410
16361SOL    HW250981   2.691   1.072  14.526
16362SOL     OW50982  11.262  13.163   2.647
16362SOL    HW150983  11.258  13.225   2.574
16362SOL    HW250984  11.340  13.191   2.697
16363SOL     OW50985  11.939   7.261  11.631
16363SOL    HW150986  11.911   7.294  11.717
16363SOL    HW250987  12.013   7.203  11.650
16364SOL     OW50988   9.838   2.640   0.425
16364SOL    HW150989   9.904   2.664   0.360
16364SOL    HW250990   9.884   2.583   0.487
16365SOL     OW50991   7.797   2.570   6.210
16365SOL    HW150992   7.801   2.503   6.141
16365SOL    HW250993   7.864   2.634   6.185
16366SOL     OW50994  14.104  12.397  11.331
16366SOL    HW150995  14.023  12.388  11.281
16366SOL    HW250996  14.087  12.470  11.391
16367SOL     OW50997  13.019   1.769   9.179
16367SOL    HW150998  12.959   1.808   9.116
16367SOL    HW250999  13.102   1.764   9.133
16368SOL     OW51000   5.690   8.060  11.819
16368SOL    HW151001   5.780   8.077  11.847
16368SOL    HW251002   5.646   8.145  11.828
16369SOL     OW51003   6.462   7.233   1.837
16369SOL    HW151004   6.481   7.327   1.829
16369SOL    HW251005   6.438   7.221   1.929
16370SOL     OW51006   4.990   4.785   0.004
16370SOL    HW151007   4.895   4.779  14.875
16370SOL    HW251008   5.006   4.865   0.055
16371SOL     OW51009  13.525   4.903   8.276
16371SOL    HW151010  13.496   4.987   8.311
16371SOL    HW251011  13.575   4.864   8.348
16372SOL     OW51012   1.221  13.636  10.352
16372SOL    HW151013   1.136  13.649  10.394
16372SOL    HW251014   1.214  13.549  10.312
16373SOL     OW51015  11.389  11.536   8.363
16373SOL    HW151016  11.390  11.491   8.279
16373SOL    HW251017  11.404  11.467   8.428
16374SOL     OW51018   4.588  14.685   5.855
16374SOL    HW151019   4.546  14.658   5.937
16374SOL    HW251020   4.538  14.762   5.827
16375SOL     OW51021  11.238  13.778   1.404
16375SOL    HW151022  11.317  13.725   1.387
16375SOL    HW251023  11.190  13.729   1.471
16376SOL     OW51024  12.364  14.028   3.088
16376SOL    HW151025  12.281  14.036   3.135
16376SOL    HW251026  12.421  13.979   3.147
16377SOL     OW51027   4.068   5.221  13.817
16377SOL    HW151028   3.982   5.216  13.776
16377SOL    HW251029   4.097   5.130  13.824
16378SOL     OW51030  11.150   6.400   8.573
16378SOL    HW151031  11.157   6.395   8.478
16378SOL    HW251032  11.098   6.324   8.598
16379SOL     OW51033   6.256   9.244   3.901
16379SOL    HW151034   6.277   9.247   3.808
16379SOL    HW251035   6.273   9.153   3.927
16380SOL     OW51036   8.095   1.530   9.270
16380SOL    HW151037   8.138   1.512   9.354
16380SOL    HW251038   8.082   1.444   9.230
16381SOL     OW51039   8.619   0.913   1.981
16381SOL    HW151040   8.687   0.942   2.042
16381SOL    HW251041   8.554   0.983   1.983
16382SOL     OW51042   1.531   9.786   4.662
16382SOL    HW151043   1.607   9.840   4.641
16382SOL    HW251044   1.460   9.849   4.673
16383SOL     OW51045   4.719   3.435   2.608
16383SOL    HW151046   4.752   3.432   2.697
16383SOL    HW251047   4.757   3.515   2.571
16384SOL     OW51048  12.079   1.730  12.090
16384SOL    HW151049  12.004   1.676  12.114
16384SOL    HW251050  12.091   1.715  11.997
16385SOL     OW51051   2.006   3.653  10.757
16385SOL    HW151052   1.919   3.637  10.719
16385SOL    HW251053   2.012   3.590  10.829
16386SOL     OW51054   7.641  14.867   9.665
16386SOL    HW151055   7.695   0.009   9.589
16386SOL    HW251056   7.657   0.062   9.725
16387SOL     OW51057   6.790   0.996   3.510
16387SOL    HW151058   6.708   0.951   3.530
16387SOL    HW251059   6.767   1.056   3.439
16388SOL     OW51060  13.783  11.282   4.047
16388SOL    HW151061  13.867  11.241   4.063
16388SOL    HW251062  13.793  11.372   4.079
16389SOL     OW51063   3.735   6.799  13.064
16389SOL    HW151064   3.808   6.787  13.126
16389SOL    HW251065   3.681   6.721  13.076
16390SOL     OW51066  11.858   5.598   6.956
16390SOL    HW151067  11.876   5.577   6.864
16390SOL    HW251068  11.945   5.606   6.996
16391SOL     OW51069   3.956  12.394  13.619
16391SOL    HW151070   4.030  12.409  13.677
16391SOL    HW251071   3.917  12.313  13.650
16392SOL     OW51072   5.240   8.405  11.182
16392SOL    HW151073   5.318   8.351  11.194
16392SOL    HW251074   5.201   8.373  11.101
16393SOL     OW51075  13.280   0.257   5.651
16393SOL    HW151076  13.335   0.331   5.624
16393SOL    HW251077  13.296   0.248   5.745
16394SOL     OW51078   6.888  10.077   9.731
16394SOL    HW151079   6.874   9.994   9.778
16394SOL    HW251080   6.811  10.130   9.753
16395SOL     OW51081   3.510   7.611   1.834
16395SOL    HW151082   3.603   7.631   1.829
16395SOL    HW251083   3.505   7.516   1.823
16396SOL     OW51084  13.836  12.820   7.983
16396SOL    HW151085  13.832  12.882   8.056
16396SOL    HW251086  13.892  12.862   7.918
16397SOL     OW51087  14.808  10.829  14.344
16397SOL    HW151088  14.797  10.768  14.417
16397SOL    HW251089  14.872  10.787  14.287
16398SOL     OW51090   5.772   1.956   2.557
16398SOL    HW151091   5.753   2.037   2.509
16398SOL    HW251092   5.840   1.913   2.506
16399SOL     OW51093   0.937   4.752   5.619
16399SOL    HW151094   1.026   4.721   5.602
16399SOL    HW251095   0.909   4.790   5.536
16400SOL     OW51096   0.220  12.442  13.428
16400SOL    HW151097   0.299  12.393  13.450
16400SOL    HW251098   0.185  12.471  13.512
16401SOL     OW51099   1.454   2.452  14.075
16401SOL    HW151100   1.455   2.525  14.136
16401SOL    HW251101   1.363   2.421  14.075
16402SOL     OW51102   4.171   4.136   5.643
16402SOL    HW151103   4.150   4.174   5.728
16402SOL    HW251104   4.114   4.181   5.581
16403SOL     OW51105  10.928   5.163   7.135
16403SOL    HW151106  10.953   5.238   7.080
16403SOL    HW251107  10.987   5.093   7.108
16404SOL     OW51108   0.727   1.916   9.736
16404SOL    HW151109   0.719   1.827   9.702
16404SOL    HW251110   0.657   1.923   9.801
16405SOL     OW51111  11.301   3.525   6.178
16405SOL    HW151112  11.261   3.523   6.266
16405SOL    HW251113  11.230   3.503   6.119
16406SOL     OW51114   2.323   7.386  14.090
16406SOL    HW151115   2.306   7.435  14.171
16406SOL    HW251116   2.264   7.311  14.094
16407SOL     OW51117  12.182   1.437   6.292
16407SOL    HW151118  12.145   1.353   6.265
16407SOL    HW251119  12.266   1.442   6.246
16408SOL     OW51120  14.787   4.977   9.894
16408SOL    HW151121  14.745   5.049   9.940
16408SOL    HW251122  14.745   4.976   9.808
16409SOL     OW51123   4.440   7.379  12.284
16409SOL    HW151124   4.359   7.381  12.336
16409SOL    HW251125   4.444   7.290  12.250
16410SOL     OW51126   1.171  11.686   3.089
16410SOL    HW151127   1.205  11.704   3.002
16410SOL    HW251128   1.246  11.656   3.140
16411SOL     OW51129   8.703   2.689  12.537
16411SOL    HW151130   8.790   2.710  12.503
16411SOL    HW251131   8.677   2.610  12.490
16412SOL     OW51132  13.176  10.971  14.429
16412SOL    HW151133  13.099  10.996  14.378
16412SOL    HW251134  13.195  11.047  14.483
16413SOL     OW51135  14.711  12.565   2.053
16413SOL    HW151136  14.753  12.497   2.106
16413SOL    HW251137  14.620  12.537   2.046
16414SOL     OW51138   8.201   8.122  10.660
16414SOL    HW151139   8.215   8.064  10.735
16414SOL    HW251140   8.109   8.109  10.637
16415SOL     OW51141  11.478   1.076   7.068
16415SOL    HW151142  11.542   1.013   7.099
16415SOL    HW251143  11.397   1.053   7.113
16416SOL     OW51144   0.771   4.548   9.674
16416SOL    HW151145   0.693   4.492   9.679
16416SOL    HW251146   0.842   4.488   9.648
16417SOL     OW51147   6.034   5.277   5.545
16417SOL    HW151148   6.075   5.322   5.471
16417SOL    HW251149   6.090   5.201   5.561
16418SOL     OW51150   9.388   3.246   5.440
16418SOL    HW151151   9.384   3.226   5.346
16418SOL    HW251152   9.467   3.300   5.449
16419SOL     OW51153   7.657  13.308  10.539
16419SOL    HW151154   7.694  13.229  10.577
16419SOL    HW251155   7.714  13.328  10.464
16420SOL     OW51156   1.329  14.685   3.464
16420SOL    HW151157   1.407  14.698   3.517
16420SOL    HW251158   1.304  14.594   3.479
16421SOL     OW51159   9.750   9.793   1.692
16421SOL    HW151160   9.758   9.823   1.783
16421SOL    HW251161   9.810   9.719   1.686
16422SOL     OW51162  10.788   1.226   9.203
16422SOL    HW151163  10.795   1.298   9.140
16422SOL    HW251164  10.746   1.156   9.153
16423SOL     OW51165  14.199   2.919   5.451
16423SOL    HW151166  14.215   2.938   5.359
16423SOL    HW251167  14.124   2.859   5.450
16424SOL     OW51168  10.296  12.309  13.524
16424SOL    HW151169  10.332  12.324  13.437
16424SOL    HW251170  10.330  12.224  13.551
16425SOL     OW51171   3.070   5.223   4.681
16425SOL    HW151172   3.003   5.192   4.741
16425SOL    HW251173   3.141   5.254   4.738
16426SOL     OW51174  12.088   2.693  11.166
16426SOL    HW151175  12.155   2.716  11.102
16426SOL    HW251176  12.136   2.674  11.246
16427SOL     OW51177   6.307  10.404   3.415
16427SOL    HW151178   6.255  10.368   3.487
16427SOL    HW251179   6.291  10.344   3.342
16428SOL     OW51180   0.100  13.097   5.298
16428SOL    HW151181   0.145  13.086   5.215
16428SOL    HW251182   0.067  13.010   5.319
16429SOL     OW51183   5.793   4.605   6.245
16429SOL    HW151184   5.867   4.661   6.271
16429SOL    HW251185   5.718   4.645   6.288
16430SOL     OW51186   0.557  14.496   4.762
16430SOL    HW151187   0.576  14.435   4.691
16430SOL    HW251188   0.561  14.444   4.842
16431SOL     OW51189   4.838   8.165   8.639
16431SOL    HW151190   4.785   8.184   8.561
16431SOL    HW251191   4.834   8.245   8.690
16432SOL     OW51192   2.422  11.845   7.736
16432SOL    HW151193   2.436  11.803   7.821
16432SOL    HW251194   2.468  11.929   7.742
16433SOL     OW51195   2.519   6.542   5.279
16433SOL    HW151196   2.478   6.584   5.355
16433SOL    HW251197   2.528   6.450   5.304
16434SOL     OW51198   5.041   6.425   8.474
16434SOL    HW151199   5.093   6.378   8.540
16434SOL    HW251200   5.081   6.512   8.469
16435SOL     OW51201  12.562   8.244   4.916
16435SOL    HW151202  12.498   8.173   4.920
16435SOL    HW251203  12.510   8.324   4.922
16436SOL     OW51204  13.361   3.035  13.639
16436SOL    HW151205  13.405   2.977  13.576
16436SOL    HW251206  13.293   3.078  13.587
16437SOL     OW51207  14.739   3.412  12.473
16437SOL    HW151208  14.794   3.386  12.399
16437SOL    HW251209  14.766   3.353  12.544
16438SOL     OW51210   9.472   6.016   9.530
16438SOL    HW151211   9.468   6.028   9.435
16438SOL    HW251212   9.461   5.922   9.542
16439SOL     OW51213   0.208   9.934  12.948
16439SOL    HW151214   0.119   9.969  12.943
16439SOL    HW251215   0.224   9.895  12.862
16440SOL     OW51216   4.635   3.015   9.615
16440SOL    HW151217   4.627   3.043   9.706
16440SOL    HW251218   4.659   2.922   9.620
16441SOL     OW51219   9.385  14.056   4.733
16441SOL    HW151220   9.302  14.034   4.775
16441SOL    HW251221   9.406  13.980   4.679
16442SOL     OW51222   2.844   6.289   5.862
16442SOL    HW151223   2.918   6.311   5.805
16442SOL    HW251224   2.884   6.255   5.941
16443SOL     OW51225   0.686   1.621   9.671
16443SOL    HW151226   0.716   1.530   9.670
16443SOL    HW251227   0.594   1.616   9.646
16444SOL     OW51228  12.377  12.478   9.322
16444SOL    HW151229  12.302  12.523   9.285
16444SOL    HW251230  12.380  12.506   9.414
16445SOL     OW51231   7.917   7.709   6.438
16445SOL    HW151232   7.902   7.742   6.350
16445SOL    HW251233   7.940   7.787   6.489
16446SOL     OW51234   7.626  11.630   0.248
16446SOL    HW151235   7.686  11.701   0.269
16446SOL    HW251236   7.672  11.550   0.274
16447SOL     OW51237   2.381   2.888   6.650
16447SOL    HW151238   2.453   2.852   6.700
16447SOL    HW251239   2.420   2.913   6.566
16448SOL     OW51240   2.635   0.053  14.581
16448SOL    HW151241   2.677   0.055  14.667
16448SOL    HW251242   2.634   0.144  14.552
16449SOL     OW51243   1.377   9.333  11.899
16449SOL    HW151244   1.311   9.369  11.840
16449SOL    HW251245   1.383   9.397  11.970
16450SOL     OW51246   8.550  10.869   8.499
16450SOL    HW151247   8.611  10.897   8.567
16450SOL    HW251248   8.505  10.794   8.537
16451SOL     OW51249  13.258   9.532   8.616
16451SOL    HW151250  13.240   9.531   8.522
16451SOL    HW251251  13.243   9.623   8.642
16452SOL     OW51252   5.758   8.292   4.022
16452SOL    HW151253   5.709   8.357   4.073
16452SOL    HW251254   5.797   8.342   3.950
16453SOL     OW51255   9.353   8.746   5.439
16453SOL    HW151256   9.293   8.819   5.453
16453SOL    HW251257   9.357   8.701   5.523
16454SOL     OW51258   2.512   6.003  10.697
16454SOL    HW151259   2.559   6.011  10.780
16454SOL    HW251260   2.581   5.992  10.632
16455SOL     OW51261   2.481   2.687   4.637
16455SOL    HW151262   2.445   2.643   4.559
16455SOL    HW251263   2.553   2.631   4.665
16456SOL     OW51264   2.656   9.861   4.104
16456SOL    HW151265   2.644   9.854   4.009
16456SOL    HW251266   2.645   9.771   4.136
16457SOL     OW51267  12.763   6.785   8.532
16457SOL    HW151268  12.688   6.738   8.495
16457SOL    HW251269  12.736   6.809   8.620
16458SOL     OW51270   3.390   7.549  13.629
16458SOL    HW151271   3.312   7.604  13.626
16458SOL    HW251272   3.457   7.605  13.667
16459SOL     OW51273   4.752  13.164   8.967
16459SOL    HW151274   4.740  13.237   8.906
16459SOL    HW251275   4.741  13.204   9.053
16460SOL     OW51276   3.520   3.057   4.944
16460SOL    HW151277   3.584   3.061   5.015
16460SOL    HW251278   3.495   3.148   4.930
16461SOL     OW51279  12.047   8.826   6.090
16461SOL    HW151280  12.030   8.919   6.101
16461SOL    HW251281  11.964   8.784   6.112
16462SOL     OW51282   0.660  11.090   3.097
16462SOL    HW151283   0.654  11.185   3.106
16462SOL    HW251284   0.743  11.075   3.052
16463SOL     OW51285   6.941   5.999   1.945
16463SOL    HW151286   6.897   5.932   1.997
16463SOL    HW251287   6.901   6.081   1.973
16464SOL     OW51288   2.985   1.196   5.168
16464SOL    HW151289   2.934   1.271   5.198
16464SOL    HW251290   3.075   1.229   5.164
16465SOL     OW51291   4.500  11.410   8.109
16465SOL    HW151292   4.535  11.478   8.051
16465SOL    HW251293   4.569  11.344   8.113
16466SOL     OW51294  12.615   7.097   1.550
16466SOL    HW151295  12.570   7.178   1.527
16466SOL    HW251296  12.556   7.027   1.523
16467SOL     OW51297   9.193   5.273  10.507
16467SOL    HW151298   9.115   5.325  10.488
16467SOL    HW251299   9.237   5.322  10.576
16468SOL     OW51300  11.345  10.380  14.640
16468SOL    HW151301  11.273  10.318  14.654
16468SOL    HW251302  11.368  10.370  14.548
16469SOL     OW51303  11.775  12.885   8.269
16469SOL    HW151304  11.704  12.863   8.210
16469SOL    HW251305  11.841  12.926   8.214
16470SOL     OW51306   5.917   3.826   3.646
16470SOL    HW151307   5.924   3.749   3.589
16470SOL    HW251308   5.964   3.801   3.725
16471SOL     OW51309  11.983  12.087   7.369
16471SOL    HW151310  11.980  12.039   7.451
16471SOL    HW251311  11.979  12.179   7.394
16472SOL     OW51312   9.787  13.202   8.662
16472SOL    HW151313   9.707  13.207   8.714
16472SOL    HW251314   9.803  13.293   8.635
16473SOL     OW51315   6.455   9.815  11.459
16473SOL    HW151316   6.415   9.901  11.471
16473SOL    HW251317   6.387   9.762  11.418
16474SOL     OW51318   5.555   0.120  14.129
16474SOL    HW151319   5.514   0.205  14.146
16474SOL    HW251320   5.628   0.116  14.192
16475SOL     OW51321   0.049  13.037  11.661
16475SOL    HW151322  14.851  13.005  11.612
16475SOL    HW251323   0.109  12.962  11.666
16476SOL     OW51324   1.651   3.990   6.700
16476SOL    HW151325   1.656   4.064   6.761
16476SOL    HW251326   1.566   3.999   6.658
16477SOL     OW51327   8.380   5.015  11.130
16477SOL    HW151328   8.418   5.099  11.104
16477SOL    HW251329   8.367   5.022  11.224
16478SOL     OW51330   5.188  14.392   5.233
16478SOL    HW151331   5.101  14.427   5.214
16478SOL    HW251332   5.171  14.304   5.266
16479SOL     OW51333  10.356   0.400  13.159
16479SOL    HW151334  10.302   0.408  13.080
16479SOL    HW251335  10.330   0.316  13.197
16480SOL     OW51336   5.097  11.696   0.323
16480SOL    HW151337   5.027  11.633   0.341
16480SOL    HW251338   5.138  11.664   0.242
16481SOL     OW51339  12.435   4.164  10.605
16481SOL    HW151340  12.486   4.122  10.536
16481SOL    HW251341  12.455   4.114  10.684
16482SOL     OW51342   5.082   1.251   9.585
16482SOL    HW151343   5.019   1.197   9.537
16482SOL    HW251344   5.071   1.339   9.549
16483SOL     OW51345   5.130   6.662   7.124
16483SOL    HW151346   5.157   6.574   7.101
16483SOL    HW251347   5.100   6.655   7.215
16484SOL     OW51348   6.169  10.226   1.132
16484SOL    HW151349   6.164  10.140   1.090
16484SOL    HW251350   6.244  10.219   1.191
16485SOL     OW51351   4.973   7.631  11.118
16485SOL    HW151352   4.970   7.577  11.197
16485SOL    HW251353   5.022   7.709  11.144
16486SOL     OW51354   0.207   3.189  12.064
16486SOL    HW151355   0.198   3.097  12.039
16486SOL    HW251356   0.291   3.194  12.108
16487SOL     OW51357  10.569   0.535  10.918
16487SOL    HW151358  10.568   0.631  10.917
16487SOL    HW251359  10.642   0.513  10.976
16488SOL     OW51360   7.316   3.262  12.636
16488SOL    HW151361   7.323   3.167  12.634
16488SOL    HW251362   7.405   3.294  12.652
16489SOL     OW51363   6.874  11.909   1.338
16489SOL    HW151364   6.952  11.909   1.282
16489SOL    HW251365   6.807  11.954   1.286
16490SOL     OW51366   7.820   0.060   9.497
16490SOL    HW151367   7.812   0.065   9.401
16490SOL    HW251368   7.872   0.137   9.520
16491SOL     OW51369   5.911   3.364   1.618
16491SOL    HW151370   5.892   3.416   1.539
16491SOL    HW251371   6.000   3.388   1.641
16492SOL     OW51372  11.002   6.466  11.905
16492SOL    HW151373  11.087   6.503  11.882
16492SOL    HW251374  10.953   6.539  11.942
16493SOL     OW51375   1.934  13.334   7.744
16493SOL    HW151376   1.964  13.385   7.669
16493SOL    HW251377   1.848  13.370   7.765
16494SOL     OW51378   8.192  11.674   5.976
16494SOL    HW151379   8.143  11.629   6.045
16494SOL    HW251380   8.213  11.606   5.913
16495SOL     OW51381  11.368   8.906  12.886
16495SOL    HW151382  11.390   8.830  12.941
16495SOL    HW251383  11.447   8.960  12.887
16496SOL     OW51384   8.173  12.289   1.649
16496SOL    HW151385   8.163  12.211   1.595
16496SOL    HW251386   8.084  12.307   1.682
16497SOL     OW51387   2.800   9.944  11.192
16497SOL    HW151388   2.866   9.994  11.238
16497SOL    HW251389   2.841   9.922  11.108
16498SOL     OW51390   4.648   3.655  13.888
16498SOL    HW151391   4.602   3.646  13.972
16498SOL    HW251392   4.655   3.565  13.855
16499SOL     OW51393  11.182  12.683   3.968
16499SOL    HW151394  11.263  12.717   3.929
16499SOL    HW251395  11.128  12.659   3.893
16500SOL     OW51396   6.680  10.943   5.661
16500SOL    HW151397   6.695  10.849   5.659
16500SOL    HW251398   6.740  10.976   5.727
16501SOL     OW51399   7.712   9.537   5.691
16501SOL    HW151400   7.739   9.455   5.650
16501SOL    HW251401   7.699   9.516   5.783
16502SOL     OW51402   0.909   6.497   0.978
16502SOL    HW151403   0.963   6.455   0.911
16502SOL    HW251404   0.825   6.513   0.935
16503SOL     OW51405   1.524  11.425  11.882
16503SOL    HW151406   1.590  11.495  11.876
16503SOL    HW251407   1.523  11.401  11.974
16504SOL     OW51408   0.344   5.398   0.637
16504SOL    HW151409   0.403   5.352   0.577
16504SOL    HW251410   0.385   5.389   0.723
16505SOL     OW51411   6.031  10.836   6.928
16505SOL    HW151412   6.086  10.865   6.855
16505SOL    HW251413   6.083  10.770   6.973
16506SOL     OW51414  11.387  14.233   2.013
16506SOL    HW151415  11.461  14.217   1.955
16506SOL    HW251416  11.407  14.317   2.055
16507SOL     OW51417   0.928   1.406   0.628
16507SOL    HW151418   0.968   1.445   0.705
16507SOL    HW251419   0.990   1.424   0.557
16508SOL     OW51420  13.604  11.367   8.899
16508SOL    HW151421  13.565  11.410   8.823
16508SOL    HW251422  13.654  11.295   8.863
16509SOL     OW51423   0.107  10.357  10.027
16509SOL    HW151424   0.195  10.350  10.065
16509SOL    HW251425   0.120  10.398   9.942
16510SOL     OW51426  10.688  11.198   3.699
16510SOL    HW151427  10.719  11.179   3.611
16510SOL    HW251428  10.596  11.220   3.688
16511SOL     OW51429   8.876   8.258   1.006
16511SOL    HW151430   8.904   8.181   0.956
16511SOL    HW251431   8.944   8.269   1.073
16512SOL     OW51432  14.153  14.652   9.952
16512SOL    HW151433  14.210  14.682  10.023
16512SOL    HW251434  14.184  14.700   9.875
16513SOL     OW51435  13.951   0.690   7.190
16513SOL    HW151436  13.867   0.703   7.234
16513SOL    HW251437  13.929   0.669   7.100
16514SOL     OW51438   3.090  10.139   4.295
16514SOL    HW151439   3.105  10.234   4.297
16514SOL    HW251440   3.176  10.101   4.311
16515SOL     OW51441   5.126   1.835  10.261
16515SOL    HW151442   5.055   1.837  10.197
16515SOL    HW251443   5.181   1.910  10.239
16516SOL     OW51444   6.630   8.439   8.347
16516SOL    HW151445   6.676   8.438   8.431
16516SOL    HW251446   6.662   8.362   8.300
16517SOL     OW51447   5.906   3.333  12.775
16517SOL    HW151448   5.812   3.341  12.786
16517SOL    HW251449   5.929   3.396  12.707
16518SOL     OW51450   9.461   5.434   8.029
16518SOL    HW151451   9.382   5.426   8.082
16518SOL    HW251452   9.532   5.442   8.093
16519SOL     OW51453   1.035  11.610  10.992
16519SOL    HW151454   1.042  11.553  10.916
16519SOL    HW251455   0.954  11.582  11.036
16520SOL     OW51456  13.123   3.434   4.967
16520SOL    HW151457  13.183   3.503   4.996
16520SOL    HW251458  13.094   3.462   4.880
16521SOL     OW51459  13.126  10.304   1.449
16521SOL    HW151460  13.113  10.281   1.541
16521SOL    HW251461  13.190  10.374   1.451
16522SOL     OW51462   7.182  14.295   1.537
16522SOL    HW151463   7.207  14.378   1.577
16522SOL    HW251464   7.121  14.256   1.599
16523SOL     OW51465  14.441   4.197   4.029
16523SOL    HW151466  14.525   4.241   4.042
16523SOL    HW251467  14.465   4.107   4.006
16524SOL     OW51468  11.095   3.764  14.241
16524SOL    HW151469  11.116   3.772  14.334
16524SOL    HW251470  11.125   3.847  14.202
16525SOL     OW51471   7.709   5.225  10.525
16525SOL    HW151472   7.666   5.240  10.609
16525SOL    HW251473   7.754   5.308  10.506
16526SOL     OW51474   4.072   7.304   8.178
16526SOL    HW151475   3.994   7.256   8.206
16526SOL    HW251476   4.116   7.245   8.116
16527SOL     OW51477   9.395  12.113   3.117
16527SOL    HW151478   9.317  12.167   3.109
16527SOL    HW251479   9.383  12.045   3.051
16528SOL     OW51480   0.985   6.009   1.470
16528SOL    HW151481   1.005   6.102   1.486
16528SOL    HW251482   0.934   6.010   1.389
16529SOL     OW51483   4.534  12.160  12.065
16529SOL    HW151484   4.488  12.087  12.025
16529SOL    HW251485   4.627  12.140  12.052
16530SOL     OW51486   5.544   1.638  10.905
16530SOL    HW151487   5.578   1.552  10.929
16530SOL    HW251488   5.449   1.627  10.905
16531SOL     OW51489   2.396   9.595  14.111
16531SOL    HW151490   2.376   9.546  14.032
16531SOL    HW251491   2.479   9.559  14.142
16532SOL     OW51492   8.672  11.819  10.147
16532SOL    HW151493   8.692  11.875  10.072
16532SOL    HW251494   8.646  11.880  10.216
16533SOL     OW51495  12.429  11.310   8.879
16533SOL    HW151496  12.390  11.282   8.796
16533SOL    HW251497  12.380  11.389   8.902
16534SOL     OW51498   7.584   5.372   5.219
16534SOL    HW151499   7.550   5.315   5.288
16534SOL    HW251500   7.531   5.451   5.224
16535SOL     OW51501   8.406  12.024   0.800
16535SOL    HW151502   8.422  12.118   0.787
16535SOL    HW251503   8.311  12.015   0.802
16536SOL     OW51504   5.639   2.164   4.702
16536SOL    HW151505   5.709   2.151   4.639
16536SOL    HW251506   5.560   2.174   4.649
16537SOL     OW51507  10.243   4.506   8.535
16537SOL    HW151508  10.285   4.477   8.616
16537SOL    HW251509  10.199   4.588   8.559
16538SOL     OW51510   8.603  10.340   8.366
16538SOL    HW151511   8.526  10.295   8.330
16538SOL    HW251512   8.567  10.416   8.411
16539SOL     OW51513   8.194   1.603   1.760
16539SOL    HW151514   8.190   1.689   1.802
16539SOL    HW251515   8.125   1.553   1.804
16540SOL     OW51516   1.082   3.041   4.231
16540SOL    HW151517   1.094   3.026   4.325
16540SOL    HW251518   1.024   3.117   4.226
16541SOL     OW51519  11.908   4.862   4.325
16541SOL    HW151520  11.872   4.948   4.348
16541SOL    HW251521  12.003   4.876   4.322
16542SOL     OW51522   1.945   7.601   6.655
16542SOL    HW151523   2.025   7.639   6.617
16542SOL    HW251524   1.916   7.664   6.720
16543SOL     OW51525   4.753  11.847   6.011
16543SOL    HW151526   4.733  11.770   5.958
16543SOL    HW251527   4.757  11.814   6.101
16544SOL     OW51528  13.359   1.170   7.140
16544SOL    HW151529  13.342   1.090   7.189
16544SOL    HW251530  13.410   1.225   7.200
16545SOL     OW51531   9.899   9.327  10.939
16545SOL    HW151532   9.980   9.360  10.978
16545SOL    HW251533   9.840   9.402  10.939
16546SOL     OW51534  10.796   3.658   5.697
16546SOL    HW151535  10.817   3.747   5.669
16546SOL    HW251536  10.744   3.670   5.776
16547SOL     OW51537  10.462  11.680   1.439
16547SOL    HW151538  10.477  11.742   1.367
16547SOL    HW251539  10.383  11.633   1.414
16548SOL     OW51540   7.856  10.085   8.115
16548SOL    HW151541   7.902  10.168   8.131
16548SOL    HW251542   7.796  10.104   8.044
16549SOL     OW51543  10.765   7.677  10.563
16549SOL    HW151544  10.821   7.644  10.633
16549SOL    HW251545  10.687   7.710  10.609
16550SOL     OW51546  10.331  10.862   5.015
16550SOL    HW151547  10.309  10.917   4.940
16550SOL    HW251548  10.258  10.801   5.023
16551SOL     OW51549   8.651  12.512   1.784
16551SOL    HW151550   8.636  12.430   1.831
16551SOL    HW251551   8.618  12.496   1.696
16552SOL     OW51552  12.243   1.152   4.856
16552SOL    HW151553  12.302   1.225   4.838
16552SOL    HW251554  12.161   1.176   4.813
16553SOL     OW51555  10.425   0.751   2.162
16553SOL    HW151556  10.350   0.700   2.134
16553SOL    HW251557  10.408   0.770   2.255
16554SOL     OW51558   5.671   4.767   2.502
16554SOL    HW151559   5.721   4.695   2.466
16554SOL    HW251560   5.672   4.752   2.597
16555SOL     OW51561   0.306  11.409   6.698
16555SOL    HW151562   0.340  11.404   6.788
16555SOL    HW251563   0.229  11.352   6.698
16556SOL     OW51564   2.366  12.329  10.753
16556SOL    HW151565   2.386  12.271  10.679
16556SOL    HW251566   2.448  12.374  10.770
16557SOL     OW51567   0.733   5.991   0.491
16557SOL    HW151568   0.805   5.931   0.511
16557SOL    HW251569   0.684   5.948   0.421
16558SOL     OW51570   8.620  10.443   8.665
16558SOL    HW151571   8.557  10.500   8.621
16558SOL    HW251572   8.648  10.493   8.742
16559SOL     OW51573   4.980  11.929   4.832
16559SOL    HW151574   4.918  11.999   4.815
16559SOL    HW251575   4.961  11.900   4.921
16560SOL     OW51576  12.200   0.936   1.435
16560SOL    HW151577  12.248   0.966   1.357
16560SOL    HW251578  12.267   0.891   1.487
16561SOL     OW51579   1.524   5.925   6.917
16561SOL    HW151580   1.563   5.933   6.830
16561SOL    HW251581   1.450   5.986   6.917
16562SOL     OW51582   3.164   3.992  12.234
16562SOL    HW151583   3.213   3.912  12.214
16562SOL    HW251584   3.092   3.993  12.171
16563SOL     OW51585   6.829   6.593   1.089
16563SOL    HW151586   6.901   6.639   1.047
16563SOL    HW251587   6.840   6.502   1.062
16564SOL     OW51588   1.719  12.239  11.200
16564SOL    HW151589   1.685  12.206  11.116
16564SOL    HW251590   1.660  12.201  11.266
16565SOL     OW51591   0.456   8.108   5.515
16565SOL    HW151592   0.506   8.119   5.596
16565SOL    HW251593   0.506   8.043   5.466
16566SOL     OW51594  12.817   0.678   7.822
16566SOL    HW151595  12.827   0.767   7.855
16566SOL    HW251596  12.795   0.626   7.899
16567SOL     OW51597  13.785   7.375  14.262
16567SOL    HW151598  13.735   7.415  14.192
16567SOL    HW251599  13.877   7.391  14.239
16568SOL     OW51600   0.260   8.820  10.955
16568SOL    HW151601   0.329   8.859  10.902
16568SOL    HW251602   0.185   8.879  10.945
16569SOL     OW51603   5.080  10.029  12.630
16569SOL    HW151604   4.997  10.009  12.587
16569SOL    HW251605   5.065  10.112  12.674
16570SOL     OW51606  11.746   0.096   6.620
16570SOL    HW151607  11.659   0.098   6.580
16570SOL    HW251608  11.730   0.102   6.714
16571SOL     OW51609  12.793   6.899   3.990
16571SOL    HW151610  12.763   6.895   4.081
16571SOL    HW251611  12.814   6.809   3.967
16572SOL     OW51612   8.655   3.453   8.613
16572SOL    HW151613   8.595   3.380   8.597
16572SOL    HW251614   8.644   3.510   8.538
16573SOL     OW51615   2.820   8.262   6.460
16573SOL    HW151616   2.814   8.228   6.371
16573SOL    HW251617   2.879   8.337   6.453
16574SOL     OW51618  10.754  10.851   8.323
16574SOL    HW151619  10.712  10.904   8.390
16574SOL    HW251620  10.782  10.772   8.368
16575SOL     OW51621   9.936   9.111   2.290
16575SOL    HW151622   9.887   9.182   2.331
16575SOL    HW251623   9.933   9.040   2.354
16576SOL     OW51624   5.406  11.233  12.553
16576SOL    HW151625   5.470  11.292  12.593
16576SOL    HW251626   5.422  11.240  12.459
16577SOL     OW51627   2.844   4.178   5.663
16577SOL    HW151628   2.813   4.222   5.584
16577SOL    HW251629   2.766   4.164   5.716
16578SOL     OW51630   6.147   9.630   3.602
16578SOL    HW151631   6.077   9.667   3.656
16578SOL    HW251632   6.122   9.539   3.591
16579SOL     OW51633   4.033   8.193   1.780
16579SOL    HW151634   3.945   8.208   1.746
16579SOL    HW251635   4.085   8.265   1.745
16580SOL     OW51636   0.272   5.333   3.579
16580SOL    HW151637   0.179   5.315   3.567
16580SOL    HW251638   0.275   5.413   3.630
16581SOL     OW51639  11.936   5.204   6.899
16581SOL    HW151640  11.903   5.255   6.973
16581SOL    HW251641  11.994   5.139   6.938
16582SOL     OW51642  11.741   0.291   9.465
16582SOL    HW151643  11.782   0.205   9.457
16582SOL    HW251644  11.813   0.353   9.460
16583SOL     OW51645   2.240   1.015  12.459
16583SOL    HW151646   2.171   1.069  12.498
16583SOL    HW251647   2.319   1.069  12.465
16584SOL     OW51648   7.267  12.959  14.422
16584SOL    HW151649   7.300  12.949  14.333
16584SOL    HW251650   7.176  12.986  14.411
16585SOL     OW51651   5.007   9.032   3.778
16585SOL    HW151652   4.970   8.952   3.741
16585SOL    HW251653   4.936   9.070   3.830
16586SOL     OW51654  11.638  10.741   5.176
16586SOL    HW151655  11.615  10.811   5.238
16586SOL    HW251656  11.556  10.693   5.162
16587SOL     OW51657   8.525   4.706  12.595
16587SOL    HW151658   8.435   4.702  12.629
16587SOL    HW251659   8.561   4.619  12.612
16588SOL     OW51660   9.078  14.856   7.713
16588SOL    HW151661   9.052  14.874   7.623
16588SOL    HW251662   9.028   0.041   7.766
16589SOL     OW51663  14.130   6.565   0.157
16589SOL    HW151664  14.152   6.621   0.083
16589SOL    HW251665  14.188   6.489   0.148
16590SOL     OW51666  10.463  14.133   3.190
16590SOL    HW151667  10.403  14.131   3.264
16590SOL    HW251668  10.536  14.077   3.217
16591SOL     OW51669   9.966   3.268   3.644
16591SOL    HW151670   9.992   3.281   3.553
16591SOL    HW251671  10.048   3.269   3.693
16592SOL     OW51672  12.289  11.499  10.299
16592SOL    HW151673  12.206  11.546  10.305
16592SOL    HW251674  12.319  11.490  10.390
16593SOL     OW51675  14.048   8.038   9.608
16593SOL    HW151676  14.143   8.032   9.601
16593SOL    HW251677  14.023   7.967   9.666
16594SOL     OW51678  12.911   1.093  13.609
16594SOL    HW151679  12.822   1.122  13.586
16594SOL    HW251680  12.906   0.997  13.605
16595SOL     OW51681   8.662  10.280   3.779
16595SOL    HW151682   8.717  10.289   3.857
16595SOL    HW251683   8.657  10.185   3.764
16596SOL     OW51684  13.134  13.697   1.039
16596SOL    HW151685  13.058  13.641   1.055
16596SOL    HW251686  13.103  13.786   1.059
16597SOL     OW51687  14.474   4.498  13.995
16597SOL    HW151688  14.550   4.446  13.968
16597SOL    HW251689  14.402   4.434  14.001
16598SOL     OW51690   3.917  10.632  13.644
16598SOL    HW151691   3.903  10.690  13.718
16598SOL    HW251692   3.875  10.677  13.570
16599SOL     OW51693   9.778   9.086   9.008
16599SOL    HW151694   9.806   9.078   9.099
16599SOL    HW251695   9.685   9.066   9.009
16600SOL     OW51696   6.145   8.891  14.629
16600SOL    HW151697   6.068   8.913  14.577
16600SOL    HW251698   6.170   8.973  14.671
16601SOL     OW51699   2.443  13.474   3.819
16601SOL    HW151700   2.348  13.478   3.807
16601SOL    HW251701   2.469  13.394   3.775
16602SOL     OW51702  10.437   2.713  14.129
16602SOL    HW151703  10.452   2.748  14.217
16602SOL    HW251704  10.342   2.697  14.125
16603SOL     OW51705   6.853  11.031   6.208
16603SOL    HW151706   6.772  11.075   6.181
16603SOL    HW251707   6.890  10.998   6.126
16604SOL     OW51708  10.185   8.653   7.503
16604SOL    HW151709  10.173   8.561   7.480
16604SOL    HW251710  10.172   8.656   7.597
16605SOL     OW51711   2.503   0.587   6.328
16605SOL    HW151712   2.500   0.551   6.416
16605SOL    HW251713   2.455   0.524   6.274
16606SOL     OW51714  10.907   6.418  10.570
16606SOL    HW151715  10.901   6.497  10.623
16606SOL    HW251716  10.817   6.401  10.542
16607SOL     OW51717   8.409   7.417   9.878
16607SOL    HW151718   8.345   7.453   9.940
16607SOL    HW251719   8.363   7.417   9.794
16608SOL     OW51720   4.959   1.889  10.476
16608SOL    HW151721   5.024   1.869  10.408
16608SOL    HW251722   4.907   1.809  10.484
16609SOL     OW51723   1.384   3.227   5.744
16609SOL    HW151724   1.314   3.243   5.681
16609SOL    HW251725   1.388   3.308   5.795
16610SOL     OW51726   6.238   5.051   9.924
16610SOL    HW151727   6.225   5.127   9.867
16610SOL    HW251728   6.175   5.062   9.995
16611SOL     OW51729   7.736   0.642   1.028
16611SOL    HW151730   7.659   0.647   1.085
16611SOL    HW251731   7.799   0.591   1.078
16612SOL     OW51732   5.094  12.103   1.863
16612SOL    HW151733   5.069  12.134   1.777
16612SOL    HW251734   5.164  12.161   1.891
16613SOL     OW51735   8.243   6.672   0.575
16613SOL    HW151736   8.182   6.745   0.568
16613SOL    HW251737   8.214   6.610   0.509
16614SOL     OW51738  13.447  10.474  14.157
16614SOL    HW151739  13.442  10.389  14.113
16614SOL    HW251740  13.536  10.505  14.140
16615SOL     OW51741   6.178   9.259   3.249
16615SOL    HW151742   6.150   9.188   3.306
16615SOL    HW251743   6.186   9.219   3.163
16616SOL     OW51744   9.022   0.571   8.014
16616SOL    HW151745   9.004   0.477   8.018
16616SOL    HW251746   9.075   0.582   7.935
16617SOL     OW51747  11.386   0.247   0.066
16617SOL    HW151748  11.418   0.206   0.146
16617SOL    HW251749  11.314   0.303   0.095
16618SOL     OW51750   1.437   1.999   2.297
16618SOL    HW151751   1.356   1.950   2.285
16618SOL    HW251752   1.429   2.073   2.237
16619SOL     OW51753   6.333  11.698   8.459
16619SOL    HW151754   6.390  11.666   8.529
16619SOL    HW251755   6.314  11.620   8.407
16620SOL     OW51756  11.586  12.970   4.987
16620SOL    HW151757  11.549  12.898   4.936
16620SOL    HW251758  11.548  13.049   4.949
16621SOL     OW51759  10.394   8.217   0.965
16621SOL    HW151760  10.372   8.155   0.895
16621SOL    HW251761  10.463   8.173   1.015
16622SOL     OW51762   3.624  14.523   0.735
16622SOL    HW151763   3.667  14.496   0.816
16622SOL    HW251764   3.534  14.539   0.759
16623SOL     OW51765   4.857   6.825   3.112
16623SOL    HW151766   4.776   6.869   3.088
16623SOL    HW251767   4.919   6.896   3.130
16624SOL     OW51768  13.922   9.299   1.663
16624SOL    HW151769  13.956   9.264   1.581
16624SOL    HW251770  13.984   9.368   1.687
16625SOL     OW51771  14.053  13.933   5.581
16625SOL    HW151772  14.036  13.860   5.522
16625SOL    HW251773  14.130  13.906   5.631
16626SOL     OW51774   2.013  11.753   5.329
16626SOL    HW151775   2.065  11.833   5.321
16626SOL    HW251776   2.062  11.687   5.279
16627SOL     OW51777   1.246   7.973   4.281
16627SOL    HW151778   1.296   8.052   4.301
16627SOL    HW251779   1.305   7.918   4.230
16628SOL     OW51780   2.705   4.171  14.869
16628SOL    HW151781   2.630   4.182  14.810
16628SOL    HW251782   2.668   4.135   0.072
16629SOL     OW51783   4.052   8.412  10.128
16629SOL    HW151784   3.978   8.440  10.182
16629SOL    HW251785   4.130   8.437  10.178
16630SOL     OW51786   0.089  13.406   9.752
16630SOL    HW151787   0.181  13.406   9.775
16630SOL    HW251788   0.079  13.333   9.690
16631SOL     OW51789  13.101   2.128   1.393
16631SOL    HW151790  13.050   2.046   1.392
16631SOL    HW251791  13.112   2.150   1.301
16632SOL     OW51792   5.150   3.436  13.036
16632SOL    HW151793   5.143   3.384  12.956
16632SOL    HW251794   5.084   3.397  13.094
16633SOL     OW51795  13.357   0.498  11.241
16633SOL    HW151796  13.452   0.497  11.241
16633SOL    HW251797  13.332   0.412  11.277
16634SOL     OW51798   0.234   6.730   2.799
16634SOL    HW151799   0.147   6.723   2.837
16634SOL    HW251800   0.232   6.672   2.723
16635SOL     OW51801  13.743  12.290   7.252
16635SOL    HW151802  13.740  12.197   7.228
16635SOL    HW251803  13.653  12.311   7.276
16636SOL     OW51804   1.764   8.463  11.080
16636SOL    HW151805   1.716   8.397  11.030
16636SOL    HW251806   1.854   8.455  11.050
16637SOL     OW51807   9.737  12.595   8.400
16637SOL    HW151808   9.669  12.642   8.351
16637SOL    HW251809   9.717  12.613   8.492
16638SOL     OW51810   8.118   9.801   1.355
16638SOL    HW151811   8.063   9.802   1.276
16638SOL    HW251812   8.199   9.757   1.327
16639SOL     OW51813   0.735   7.578   8.552
16639SOL    HW151814   0.715   7.493   8.513
16639SOL    HW251815   0.750   7.559   8.645
16640SOL     OW51816   3.388   3.949   0.909
16640SOL    HW151817   3.452   4.019   0.924
16640SOL    HW251818   3.385   3.901   0.992
16641SOL     OW51819   5.276   8.470  13.303
16641SOL    HW151820   5.336   8.447  13.374
16641SOL    HW251821   5.313   8.551  13.266
16642SOL     OW51822   9.584  10.942   6.256
16642SOL    HW151823   9.523  10.945   6.182
16642SOL    HW251824   9.528  10.927   6.332
16643SOL     OW51825   7.217  12.597   7.782
16643SOL    HW151826   7.174  12.682   7.779
16643SOL    HW251827   7.185  12.551   7.705
16644SOL     OW51828   3.227   0.538   0.316
16644SOL    HW151829   3.240   0.524   0.410
16644SOL    HW251830   3.134   0.522   0.302
16645SOL     OW51831   9.957  10.466   8.481
16645SOL    HW151832  10.015  10.515   8.423
16645SOL    HW251833   9.994  10.377   8.482
16646SOL     OW51834   4.181  10.388   7.137
16646SOL    HW151835   4.185  10.433   7.053
16646SOL    HW251836   4.119  10.316   7.123
16647SOL     OW51837   2.703   8.216   8.921
16647SOL    HW151838   2.687   8.263   8.839
16647SOL    HW251839   2.684   8.281   8.989
16648SOL     OW51840   3.669   1.843   2.315
16648SOL    HW151841   3.751   1.799   2.339
16648SOL    HW251842   3.697   1.921   2.267
16649SOL     OW51843   0.200  10.542   9.827
16649SOL    HW151844   0.186  10.605   9.897
16649SOL    HW251845   0.191  10.593   9.746
16650SOL     OW51846   5.475   4.567  14.758
16650SOL    HW151847   5.397   4.533  14.801
16650SOL    HW251848   5.445   4.590  14.669
16651SOL     OW51849   0.398   9.302   8.601
16651SOL    HW151850   0.441   9.217   8.603
16651SOL    HW251851   0.469   9.365   8.611
16652SOL     OW51852   9.173   7.689   5.114
16652SOL    HW151853   9.205   7.708   5.026
16652SOL    HW251854   9.134   7.602   5.107
16653SOL     OW51855   7.561  13.892  11.027
16653SOL    HW151856   7.530  13.950  11.096
16653SOL    HW251857   7.510  13.918  10.950
16654SOL     OW51858  12.046   4.551   5.657
16654SOL    HW151859  12.069   4.644   5.657
16654SOL    HW251860  12.055   4.524   5.748
16655SOL     OW51861   7.457  11.595   1.891
16655SOL    HW151862   7.490  11.631   1.809
16655SOL    HW251863   7.475  11.663   1.956
16656SOL     OW51864   9.123   8.159  14.039
16656SOL    HW151865   9.168   8.077  14.060
16656SOL    HW251866   9.064   8.137  13.967
16657SOL     OW51867   7.880   2.659   8.563
16657SOL    HW151868   7.797   2.616   8.542
16657SOL    HW251869   7.943   2.588   8.571
16658SOL     OW51870   8.736   4.112   0.646
16658SOL    HW151871   8.708   4.060   0.570
16658SOL    HW251872   8.654   4.132   0.693
16659SOL     OW51873   3.639  10.625   4.945
16659SOL    HW151874   3.724  10.637   4.903
16659SOL    HW251875   3.588  10.702   4.920
16660SOL     OW51876   6.880   1.007  12.842
16660SOL    HW151877   6.854   0.961  12.763
16660SOL    HW251878   6.915   0.938  12.899
16661SOL     OW51879  11.513   2.726   5.626
16661SOL    HW151880  11.539   2.645   5.581
16661SOL    HW251881  11.588   2.748   5.681
16662SOL     OW51882   9.543  14.550   6.784
16662SOL    HW151883   9.484  14.619   6.756
16662SOL    HW251884   9.569  14.506   6.702
16663SOL     OW51885   3.036  14.328   9.956
16663SOL    HW151886   3.104  14.347  10.021
16663SOL    HW251887   3.025  14.411   9.909
16664SOL     OW51888   0.529  13.136   8.807
16664SOL    HW151889   0.611  13.171   8.842
16664SOL    HW251890   0.554  13.054   8.764
16665SOL     OW51891   5.309   6.790   1.339
16665SOL    HW151892   5.260   6.867   1.311
16665SOL    HW251893   5.301   6.729   1.266
16666SOL     OW51894  13.512   9.457   2.114
16666SOL    HW151895  13.438   9.477   2.172
16666SOL    HW251896  13.559   9.541   2.106
16667SOL     OW51897   4.563  11.534   9.007
16667SOL    HW151898   4.629  11.603   9.013
16667SOL    HW251899   4.565  11.491   9.093
16668SOL     OW51900  12.776   8.855  13.707
16668SOL    HW151901  12.819   8.928  13.661
16668SOL    HW251902  12.795   8.778  13.653
16669SOL     OW51903   6.887  14.382   6.222
16669SOL    HW151904   6.868  14.431   6.143
16669SOL    HW251905   6.957  14.321   6.196
16670SOL     OW51906   3.840  11.824   9.483
16670SOL    HW151907   3.784  11.851   9.410
16670SOL    HW251908   3.826  11.890   9.550
16671SOL     OW51909   7.057   6.170   2.256
16671SOL    HW151910   7.129   6.132   2.206
16671SOL    HW251911   7.091   6.181   2.344
16672SOL     OW51912   2.592   5.396   8.302
16672SOL    HW151913   2.582   5.302   8.319
16672SOL    HW251914   2.627   5.400   8.213
16673SOL     OW51915   3.799   0.121  14.253
16673SOL    HW151916   3.790   0.133  14.348
16673SOL    HW251917   3.709   0.108  14.222
16674SOL     OW51918   7.166   8.966   9.769
16674SOL    HW151919   7.084   9.005   9.738
16674SOL    HW251920   7.169   8.985   9.862
16675SOL     OW51921   0.859  13.611  13.930
16675SOL    HW151922   0.952  13.631  13.944
16675SOL    HW251923   0.845  13.530  13.980
16676SOL     OW51924   1.709   9.015   2.190
16676SOL    HW151925   1.793   9.008   2.235
16676SOL    HW251926   1.678   8.924   2.183
16677SOL     OW51927   2.526  14.313   7.334
16677SOL    HW151928   2.554  14.240   7.390
16677SOL    HW251929   2.472  14.367   7.392
16678SOL     OW51930   0.682  12.558   9.346
16678SOL    HW151931   0.616  12.500   9.308
16678SOL    HW251932   0.763  12.508   9.340
16679SOL     OW51933  13.063  10.379   9.642
16679SOL    HW151934  13.027  10.357   9.728
16679SOL    HW251935  13.153  10.407   9.660
16680SOL     OW51936   9.036  12.358  10.646
16680SOL    HW151937   8.998  12.315  10.569
16680SOL    HW251938   9.094  12.291  10.683
16681SOL     OW51939  11.797   9.885   2.992
16681SOL    HW151940  11.868   9.892   2.928
16681SOL    HW251941  11.811   9.801   3.035
16682SOL     OW51942   6.893  14.439   0.305
16682SOL    HW151943   6.984  14.411   0.304
16682SOL    HW251944   6.848  14.378   0.246
16683SOL     OW51945  11.733   6.843   1.450
16683SOL    HW151946  11.828   6.856   1.459
16683SOL    HW251947  11.695   6.920   1.493
16684SOL     OW51948  13.252   8.718  13.789
16684SOL    HW151949  13.169   8.696  13.831
16684SOL    HW251950  13.227   8.758  13.705
16685SOL     OW51951   2.237   7.601   0.166
16685SOL    HW151952   2.321   7.637   0.194
16685SOL    HW251953   2.173   7.666   0.194
16686SOL     OW51954   5.795   2.405  14.309
16686SOL    HW151955   5.800   2.327  14.364
16686SOL    HW251956   5.701   2.426  14.306
16687SOL     OW51957   8.519   5.322   7.096
16687SOL    HW151958   8.553   5.394   7.150
16687SOL    HW251959   8.559   5.243   7.133
16688SOL     OW51960   6.273   5.844   5.133
16688SOL    HW151961   6.243   5.754   5.147
16688SOL    HW251962   6.213   5.898   5.185
16689SOL     OW51963   8.729  13.501   9.081
16689SOL    HW151964   8.674  13.512   9.004
16689SOL    HW251965   8.668  13.477   9.151
16690SOL     OW51966  13.476  13.337   2.665
16690SOL    HW151967  13.501  13.244   2.667
16690SOL    HW251968  13.494  13.365   2.575
16691SOL     OW51969   2.254   4.646   4.747
16691SOL    HW151970   2.291   4.731   4.726
16691SOL    HW251971   2.238   4.649   4.842
16692SOL     OW51972   9.089  13.500   8.102
16692SOL    HW151973   9.124  13.581   8.139
16692SOL    HW251974   9.103  13.508   8.008
16693SOL     OW51975  10.113   1.029  11.310
16693SOL    HW151976  10.100   1.123  11.301
16693SOL    HW251977  10.034   0.998  11.354
16694SOL     OW51978   9.396  11.394   3.649
16694SOL    HW151979   9.428  11.320   3.596
16694SOL    HW251980   9.330  11.436   3.595
16695SOL     OW51981   0.420   9.763   1.853
16695SOL    HW151982   0.344   9.771   1.795
16695SOL    HW251983   0.451   9.852   1.864
16696SOL     OW51984   5.296  11.522   8.323
16696SOL    HW151985   5.216  11.562   8.288
16696SOL    HW251986   5.265  11.463   8.392
16697SOL     OW51987  13.620   3.355   3.114
16697SOL    HW151988  13.641   3.263   3.098
16697SOL    HW251989  13.691   3.403   3.072
16698SOL     OW51990   9.279   3.316   1.298
16698SOL    HW151991   9.329   3.394   1.323
16698SOL    HW251992   9.338   3.243   1.317
16699SOL     OW51993   0.571   0.654  12.964
16699SOL    HW151994   0.652   0.629  13.009
16699SOL    HW251995   0.504   0.597  13.002
16700SOL     OW51996   5.605   8.875   3.664
16700SOL    HW151997   5.669   8.945   3.648
16700SOL    HW251998   5.610   8.860   3.759
16701SOL     OW51999   8.930  13.391  13.956
16701SOL    HW152000   9.007  13.416  13.905
16701SOL    HW252001   8.895  13.315  13.909
16702SOL     OW52002   8.034  14.013  14.151
16702SOL    HW152003   7.993  13.985  14.233
16702SOL    HW252004   8.031  13.935  14.095
16703SOL     OW52005   4.667  14.680  10.642
16703SOL    HW152006   4.621  14.647  10.565
16703SOL    HW252007   4.683  14.603  10.696
16704SOL     OW52008  13.302   4.029  10.625
16704SOL    HW152009  13.231   4.021  10.689
16704SOL    HW252010  13.258   4.019  10.540
16705SOL     OW52011   5.360  11.676   5.857
16705SOL    HW152012   5.410  11.756   5.843
16705SOL    HW252013   5.356  11.635   5.770
16706SOL     OW52014   5.324   0.229   1.067
16706SOL    HW152015   5.363   0.172   1.000
16706SOL    HW252016   5.244   0.184   1.093
16707SOL     OW52017  10.863   1.038   7.278
16707SOL    HW152018  10.890   1.129   7.262
16707SOL    HW252019  10.794   1.022   7.214
16708SOL     OW52020   7.900   8.876  11.806
16708SOL    HW152021   7.923   8.784  11.792
16708SOL    HW252022   7.837   8.874  11.878
16709SOL     OW52023   1.368   2.260   8.860
16709SOL    HW152024   1.434   2.319   8.899
16709SOL    HW252025   1.385   2.266   8.766
16710SOL     OW52026  11.530   5.146   4.402
16710SOL    HW152027  11.519   5.237   4.430
16710SOL    HW252028  11.453   5.128   4.347
16711SOL     OW52029   8.429   4.668   3.268
16711SOL    HW152030   8.360   4.625   3.218
16711SOL    HW252031   8.382   4.714   3.338
16712SOL     OW52032   3.568   1.108   3.871
16712SOL    HW152033   3.494   1.095   3.812
16712SOL    HW252034   3.645   1.108   3.814
16713SOL     OW52035   5.256   7.257   1.992
16713SOL    HW152036   5.222   7.315   2.061
16713SOL    HW252037   5.348   7.281   1.984
16714SOL     OW52038   6.112   6.642   4.113
16714SOL    HW152039   6.138   6.639   4.021
16714SOL    HW252040   6.081   6.732   4.126
16715SOL     OW52041  13.908   0.972   3.636
16715SOL    HW152042  13.906   0.898   3.696
16715SOL    HW252043  13.845   0.949   3.567
16716SOL     OW52044  12.955   7.626  13.441
16716SOL    HW152045  12.966   7.541  13.399
16716SOL    HW252046  12.910   7.606  13.524
16717SOL     OW52047   5.837   4.572   4.819
16717SOL    HW152048   5.925   4.574   4.780
16717SOL    HW252049   5.791   4.644   4.774
16718SOL     OW52050  11.012  12.246  14.374
16718SOL    HW152051  11.066  12.320  14.346
16718SOL    HW252052  10.923  12.269  14.345
16719SOL     OW52053   6.220   9.008   1.626
16719SOL    HW152054   6.238   8.943   1.694
16719SOL    HW252055   6.268   8.978   1.549
16720SOL     OW52056   4.728   8.115   0.859
16720SOL    HW152057   4.761   8.087   0.773
16720SOL    HW252058   4.765   8.203   0.871
16721SOL     OW52059   6.443   9.468   5.147
16721SOL    HW152060   6.376   9.441   5.210
16721SOL    HW252061   6.454   9.392   5.090
16722SOL     OW52062  13.433   3.611   4.524
16722SOL    HW152063  13.520   3.651   4.527
16722SOL    HW252064  13.382   3.658   4.590
16723SOL     OW52065  12.346   9.464   5.153
16723SOL    HW152066  12.264   9.508   5.128
16723SOL    HW252067  12.407   9.535   5.173
16724SOL     OW52068   7.437   8.129   6.576
16724SOL    HW152069   7.389   8.072   6.637
16724SOL    HW252070   7.522   8.142   6.618
16725SOL     OW52071   5.838   8.836   3.116
16725SOL    HW152072   5.893   8.790   3.053
16725SOL    HW252073   5.749   8.807   3.097
16726SOL     OW52074   0.233   8.507   3.551
16726SOL    HW152075   0.200   8.597   3.551
16726SOL    HW252076   0.252   8.488   3.459
16727SOL     OW52077   3.094  12.982   1.897
16727SOL    HW152078   3.028  13.032   1.945
16727SOL    HW252079   3.143  12.935   1.965
16728SOL     OW52080  10.219   8.608   6.076
16728SOL    HW152081  10.290   8.658   6.117
16728SOL    HW252082  10.140   8.646   6.113
16729SOL     OW52083  13.376   2.708  10.891
16729SOL    HW152084  13.450   2.757  10.926
16729SOL    HW252085  13.307   2.773  10.879
16730SOL     OW52086   9.769   4.597   9.398
16730SOL    HW152087   9.772   4.581   9.492
16730SOL    HW252088   9.827   4.673   9.385
16731SOL     OW52089   3.799   7.606   5.392
16731SOL    HW152090   3.868   7.670   5.411
16731SOL    HW252091   3.804   7.592   5.298
16732SOL     OW52092   1.614   4.765   0.568
16732SOL    HW152093   1.618   4.828   0.640
16732SOL    HW252094   1.528   4.779   0.529
16733SOL     OW52095   6.087   5.375  13.640
16733SOL    HW152096   6.133   5.456  13.661
16733SOL    HW252097   6.155   5.309  13.634
16734SOL     OW52098   1.008  11.417   9.805
16734SOL    HW152099   0.954  11.351   9.761
16734SOL    HW252100   0.947  11.487   9.829
16735SOL     OW52101   5.474   1.263   3.678
16735SOL    HW152102   5.393   1.219   3.652
16735SOL    HW252103   5.517   1.201   3.737
16736SOL     OW52104   8.066  13.285  10.308
16736SOL    HW152105   8.082  13.324  10.222
16736SOL    HW252106   8.149  13.291  10.354
16737SOL     OW52107   2.476   1.413   8.939
16737SOL    HW152108   2.446   1.376   8.856
16737SOL    HW252109   2.562   1.449   8.919
16738SOL     OW52110   7.750  12.128   3.693
16738SOL    HW152111   7.682  12.194   3.683
16738SOL    HW252112   7.751  12.082   3.609
16739SOL     OW52113  12.951  13.569   3.704
16739SOL    HW152114  13.020  13.563   3.638
16739SOL    HW252115  12.959  13.658   3.738
16740SOL     OW52116   1.257   3.058   8.813
16740SOL    HW152117   1.184   3.070   8.751
16740SOL    HW252118   1.227   3.100   8.893
16741SOL     OW52119   3.497   0.269   7.751
16741SOL    HW152120   3.490   0.339   7.686
16741SOL    HW252121   3.489   0.315   7.835
16742SOL     OW52122   4.653   0.878   1.422
16742SOL    HW152123   4.632   0.959   1.469
16742SOL    HW252124   4.657   0.811   1.490
16743SOL     OW52125   0.738   4.496  13.219
16743SOL    HW152126   0.772   4.559  13.154
16743SOL    HW252127   0.700   4.551  13.288
16744SOL     OW52128  14.100   3.732   3.582
16744SOL    HW152129  14.171   3.690   3.630
16744SOL    HW252130  14.027   3.733   3.644
16745SOL     OW52131   8.188   4.521   1.685
16745SOL    HW152132   8.240   4.457   1.635
16745SOL    HW252133   8.149   4.577   1.618
16746SOL     OW52134   2.573   8.374   5.228
16746SOL    HW152135   2.634   8.404   5.160
16746SOL    HW252136   2.591   8.431   5.303
16747SOL     OW52137   6.850   4.449   0.407
16747SOL    HW152138   6.897   4.486   0.482
16747SOL    HW252139   6.872   4.356   0.408
16748SOL     OW52140   3.274   5.997  10.981
16748SOL    HW152141   3.219   6.074  10.971
16748SOL    HW252142   3.361   6.025  10.952
16749SOL     OW52143   4.606  11.071   9.039
16749SOL    HW152144   4.543  11.096   8.971
16749SOL    HW252145   4.692  11.086   8.999
16750SOL     OW52146   5.408   6.448  11.370
16750SOL    HW152147   5.399   6.374  11.430
16750SOL    HW252148   5.491   6.490  11.395
16751SOL     OW52149   5.255  13.349  12.189
16751SOL    HW152150   5.206  13.392  12.259
16751SOL    HW252151   5.268  13.259  12.220
16752SOL     OW52152  11.516  14.236   1.504
16752SOL    HW152153  11.574  14.208   1.574
16752SOL    HW252154  11.573  14.282   1.442
16753SOL     OW52155  10.207   0.476   9.936
16753SOL    HW152156  10.295   0.513   9.931
16753SOL    HW252157  10.151   0.539   9.891
16754SOL     OW52158   3.637   5.494   6.428
16754SOL    HW152159   3.670   5.462   6.513
16754SOL    HW252160   3.599   5.579   6.448
16755SOL     OW52161   5.192   6.099  11.665
16755SOL    HW152162   5.207   6.023  11.721
16755SOL    HW252163   5.130   6.068  11.599
16756SOL     OW52164   2.256   6.324   0.706
16756SOL    HW152165   2.307   6.379   0.765
16756SOL    HW252166   2.260   6.368   0.622
16757SOL     OW52167   0.631   6.878  13.954
16757SOL    HW152168   0.667   6.941  14.017
16757SOL    HW252169   0.700   6.813  13.943
16758SOL     OW52170  11.487   4.595  11.888
16758SOL    HW152171  11.402   4.577  11.928
16758SOL    HW252172  11.487   4.689  11.871
16759SOL     OW52173   4.448  10.900   4.514
16759SOL    HW152174   4.434  10.885   4.420
16759SOL    HW252175   4.461  10.995   4.521
16760SOL     OW52176   6.502   9.876   4.173
16760SOL    HW152177   6.413   9.860   4.141
16760SOL    HW252178   6.558   9.858   4.097
16761SOL     OW52179  10.378  10.744  14.200
16761SOL    HW152180  10.433  10.737  14.278
16761SOL    HW252181  10.314  10.673  14.209
16762SOL     OW52182   6.456  13.751   9.273
16762SOL    HW152183   6.465  13.835   9.318
16762SOL    HW252184   6.511  13.759   9.195
16763SOL     OW52185   3.763   8.508  14.574
16763SOL    HW152186   3.680   8.502  14.621
16763SOL    HW252187   3.813   8.432  14.603
16764SOL     OW52188   3.846  10.014  10.565
16764SOL    HW152189   3.810   9.961  10.636
16764SOL    HW252190   3.915  10.066  10.606
16765SOL     OW52191   5.961   9.112   6.774
16765SOL    HW152192   5.893   9.142   6.835
16765SOL    HW252193   5.971   9.019   6.795
16766SOL     OW52194  13.095   9.953  10.630
16766SOL    HW152195  13.106  10.036  10.584
16766SOL    HW252196  13.150   9.960  10.708
16767SOL     OW52197   2.039   7.872   2.919
16767SOL    HW152198   1.945   7.869   2.936
16767SOL    HW252199   2.066   7.959   2.950
16768SOL     OW52200   1.801   0.089   0.995
16768SOL    HW152201   1.845   0.008   0.971
16768SOL    HW252202   1.870   0.155   0.996
16769SOL     OW52203   0.042  11.894   6.900
16769SOL    HW152204   0.029  11.810   6.944
16769SOL    HW252205   0.076  11.871   6.813
16770SOL     OW52206   4.537   9.104   8.769
16770SOL    HW152207   4.579   9.024   8.804
16770SOL    HW252208   4.587   9.175   8.809
16771SOL     OW52209   6.481   8.242  10.513
16771SOL    HW152210   6.395   8.199  10.517
16771SOL    HW252211   6.544   8.170  10.519
16772SOL     OW52212  10.891   0.922   0.146
16772SOL    HW152213  10.928   0.968   0.221
16772SOL    HW252214  10.819   0.870   0.182
16773SOL     OW52215   6.926   7.066  11.650
16773SOL    HW152216   6.990   6.995  11.655
16773SOL    HW252217   6.865   7.038  11.581
16774SOL     OW52218  14.100   8.166  13.180
16774SOL    HW152219  14.053   8.235  13.227
16774SOL    HW252220  14.161   8.130  13.245
16775SOL     OW52221   4.776   8.623   8.951
16775SOL    HW152222   4.685   8.609   8.976
16775SOL    HW252223   4.799   8.708   8.990
16776SOL     OW52224   4.779   9.586  12.337
16776SOL    HW152225   4.801   9.570  12.245
16776SOL    HW252226   4.854   9.634  12.372
16777SOL     OW52227   1.379   0.801   9.903
16777SOL    HW152228   1.312   0.741   9.870
16777SOL    HW252229   1.413   0.844   9.824
16778SOL     OW52230   3.005   9.133   8.611
16778SOL    HW152231   3.067   9.066   8.641
16778SOL    HW252232   2.922   9.108   8.652
16779SOL     OW52233   7.321   6.808   3.817
16779SOL    HW152234   7.260   6.882   3.823
16779SOL    HW252235   7.292   6.759   3.740
16780SOL     OW52236   4.713   2.660   6.719
16780SOL    HW152237   4.623   2.692   6.729
16780SOL    HW252238   4.720   2.637   6.626
16781SOL     OW52239  12.846   5.523   1.733
16781SOL    HW152240  12.751   5.523   1.723
16781SOL    HW252241  12.861   5.557   1.821
16782SOL     OW52242   5.170   3.413   7.151
16782SOL    HW152243   5.118   3.384   7.226
16782SOL    HW252244   5.247   3.455   7.189
16783SOL     OW52245   7.603  10.632   9.890
16783SOL    HW152246   7.577  10.715   9.931
16783SOL    HW252247   7.603  10.569   9.961
16784SOL     OW52248   0.162   4.373   7.722
16784SOL    HW152249   0.226   4.317   7.678
16784SOL    HW252250   0.077   4.331   7.705
16785SOL     OW52251  12.784  13.695   8.127
16785SOL    HW152252  12.841  13.624   8.159
16785SOL    HW252253  12.754  13.665   8.042
16786SOL     OW52254   1.322   4.216  14.865
16786SOL    HW152255   1.304   4.229   0.080
16786SOL    HW252256   1.390   4.280  14.844
16787SOL     OW52257   3.526  12.716   5.726
16787SOL    HW152258   3.526  12.793   5.784
16787SOL    HW252259   3.605  12.727   5.673
16788SOL     OW52260   4.616   3.002   6.547
16788SOL    HW152261   4.598   3.094   6.567
16788SOL    HW252262   4.530   2.961   6.543
16789SOL     OW52263   2.206   3.261   1.784
16789SOL    HW152264   2.173   3.174   1.808
16789SOL    HW252265   2.173   3.318   1.853
16790SOL     OW52266   0.064   0.778   5.658
16790SOL    HW152267   0.075   0.721   5.582
16790SOL    HW252268   0.114   0.734   5.727
16791SOL     OW52269  10.330  10.000   5.693
16791SOL    HW152270  10.408  10.038   5.733
16791SOL    HW252271  10.258  10.056   5.724
16792SOL     OW52272   1.132   5.499  11.930
16792SOL    HW152273   1.218   5.510  11.971
16792SOL    HW252274   1.145   5.430  11.865
16793SOL     OW52275   1.813   8.548  12.042
16793SOL    HW152276   1.870   8.580  12.112
16793SOL    HW252277   1.725   8.562  12.075
16794SOL     OW52278   0.583   3.529   1.833
16794SOL    HW152279   0.513   3.533   1.899
16794SOL    HW252280   0.542   3.560   1.752
16795SOL     OW52281  11.589  10.821  12.058
16795SOL    HW152282  11.642  10.858  11.987
16795SOL    HW252283  11.639  10.838  12.137
16796SOL     OW52284  10.572   7.227   8.850
16796SOL    HW152285  10.646   7.261   8.901
16796SOL    HW252286  10.602   7.141   8.820
16797SOL     OW52287  11.642   3.098   9.145
16797SOL    HW152288  11.553   3.098   9.110
16797SOL    HW252289  11.694   3.053   9.079
16798SOL     OW52290  10.602   2.254   8.478
16798SOL    HW152291  10.627   2.315   8.547
16798SOL    HW252292  10.627   2.168   8.512
16799SOL     OW52293   8.392  11.417   8.018
16799SOL    HW152294   8.410  11.444   7.928
16799SOL    HW252295   8.477  11.422   8.062
16800SOL     OW52296  11.374  13.114   1.835
16800SOL    HW152297  11.372  13.158   1.920
16800SOL    HW252298  11.368  13.185   1.772
16801SOL     OW52299  11.828   3.986  11.440
16801SOL    HW152300  11.804   4.025  11.523
16801SOL    HW252301  11.761   3.920  11.423
16802SOL     OW52302   9.976   0.884  12.272
16802SOL    HW152303  10.029   0.816  12.313
16802SOL    HW252304   9.896   0.887  12.324
16803SOL     OW52305  13.544   2.643   1.700
16803SOL    HW152306  13.590   2.606   1.624
16803SOL    HW252307  13.468   2.586   1.712
16804SOL     OW52308   5.171   6.150  14.259
16804SOL    HW152309   5.234   6.221  14.268
16804SOL    HW252310   5.090   6.193  14.232
16805SOL     OW52311  10.547   5.749   2.206
16805SOL    HW152312  10.568   5.704   2.125
16805SOL    HW252313  10.497   5.686   2.257
16806SOL     OW52314   4.646  13.422  13.991
16806SOL    HW152315   4.609  13.485  14.053
16806SOL    HW252316   4.688  13.355  14.045
16807SOL     OW52317   8.263   3.909   4.538
16807SOL    HW152318   8.265   3.899   4.443
16807SOL    HW252319   8.176   3.880   4.564
16808SOL     OW52320   7.752   1.848  11.879
16808SOL    HW152321   7.800   1.904  11.818
16808SOL    HW252322   7.809   1.772  11.892
16809SOL     OW52323  13.285   4.770   3.137
16809SOL    HW152324  13.260   4.816   3.057
16809SOL    HW252325  13.346   4.702   3.109
16810SOL     OW52326   4.138   3.981   2.695
16810SOL    HW152327   4.225   3.969   2.657
16810SOL    HW252328   4.154   4.008   2.785
16811SOL     OW52329  13.382   5.545   7.100
16811SOL    HW152330  13.292   5.548   7.069
16811SOL    HW252331  13.422   5.473   7.051
16812SOL     OW52332   7.556   3.257   5.597
16812SOL    HW152333   7.465   3.277   5.575
16812SOL    HW252334   7.555   3.239   5.691
16813SOL     OW52335   0.125   9.514   3.874
16813SOL    HW152336   0.148   9.604   3.898
16813SOL    HW252337   0.126   9.514   3.779
16814SOL     OW52338   8.596   9.335   1.651
16814SOL    HW152339   8.551   9.333   1.735
16814SOL    HW252340   8.582   9.424   1.618
16815SOL     OW52341   5.131   8.750   1.796
16815SOL    HW152342   5.081   8.736   1.716
16815SOL    HW252343   5.132   8.665   1.839
16816SOL     OW52344   4.771  13.859   4.035
16816SOL    HW152345   4.726  13.778   4.058
16816SOL    HW252346   4.704  13.927   4.041
16817SOL     OW52347   3.573  13.782  14.458
16817SOL    HW152348   3.563  13.859  14.514
16817SOL    HW252349   3.522  13.802  14.380
16818SOL     OW52350  13.552   2.661  11.995
16818SOL    HW152351  13.610   2.587  12.014
16818SOL    HW252352  13.536   2.656  11.901
16819SOL     OW52353   9.490   9.299   9.100
16819SOL    HW152354   9.573   9.335   9.069
16819SOL    HW252355   9.496   9.206   9.080
16820SOL     OW52356   2.642  11.349  11.151
16820SOL    HW152357   2.673  11.258  11.151
16820SOL    HW252358   2.561  11.346  11.101
16821SOL     OW52359  14.661  10.805  13.842
16821SOL    HW152360  14.737  10.856  13.871
16821SOL    HW252361  14.622  10.858  13.772
16822SOL     OW52362   3.131   1.309   1.890
16822SOL    HW152363   3.121   1.226   1.843
16822SOL    HW252364   3.138   1.375   1.821
16823SOL     OW52365  13.406  11.849   1.179
16823SOL    HW152366  13.444  11.769   1.144
16823SOL    HW252367  13.323  11.859   1.133
16824SOL     OW52368  10.384   2.415  13.507
16824SOL    HW152369  10.318   2.430  13.439
16824SOL    HW252370  10.419   2.501  13.526
16825SOL     OW52371   4.199   0.705  13.295
16825SOL    HW152372   4.149   0.719  13.215
16825SOL    HW252373   4.287   0.738  13.274
16826SOL     OW52374   8.295  12.966   6.109
16826SOL    HW152375   8.387  12.993   6.100
16826SOL    HW252376   8.251  13.008   6.035
16827SOL     OW52377   2.132  10.176   9.175
16827SOL    HW152378   2.052  10.124   9.163
16827SOL    HW252379   2.201  10.125   9.134
16828SOL     OW52380   1.235  14.281  12.072
16828SOL    HW152381   1.250  14.191  12.043
16828SOL    HW252382   1.302  14.296  12.138
16829SOL     OW52383   6.233   1.091   1.757
16829SOL    HW152384   6.255   1.071   1.848
16829SOL    HW252385   6.304   1.053   1.705
16830SOL     OW52386   9.311   6.081   5.087
16830SOL    HW152387   9.332   6.010   5.147
16830SOL    HW252388   9.228   6.055   5.047
16831SOL     OW52389   4.191   9.301   0.866
16831SOL    HW152390   4.264   9.312   0.927
16831SOL    HW252391   4.140   9.381   0.875
16832SOL     OW52392   4.529   1.579   7.833
16832SOL    HW152393   4.573   1.575   7.748
16832SOL    HW252394   4.490   1.666   7.835
16833SOL     OW52395  11.800   5.533   2.852
16833SOL    HW152396  11.862   5.602   2.874
16833SOL    HW252397  11.847   5.452   2.872
16834SOL     OW52398  11.585   7.635   4.109
16834SOL    HW152399  11.581   7.681   4.193
16834SOL    HW252400  11.572   7.704   4.043
16835SOL     OW52401   4.199   9.331   0.475
16835SOL    HW152402   4.170   9.253   0.524
16835SOL    HW252403   4.163   9.318   0.387
16836SOL     OW52404   2.086  11.168   8.010
16836SOL    HW152405   2.155  11.103   8.001
16836SOL    HW252406   2.007  11.124   7.977
16837SOL     OW52407   5.443  12.477  11.415
16837SOL    HW152408   5.420  12.519  11.332
16837SOL    HW252409   5.360  12.466  11.461
16838SOL     OW52410   0.538   8.470  12.955
16838SOL    HW152411   0.494   8.548  12.991
16838SOL    HW252412   0.470   8.403  12.954
16839SOL     OW52413   0.919  12.794   8.706
16839SOL    HW152414   0.973  12.718   8.683
16839SOL    HW252415   0.968  12.869   8.674
16840SOL     OW52416  11.155   5.385  14.436
16840SOL    HW152417  11.192   5.356  14.352
16840SOL    HW252418  11.060   5.379  14.424
16841SOL     OW52419   9.259  12.459   0.383
16841SOL    HW152420   9.351  12.434   0.372
16841SOL    HW252421   9.220  12.384   0.428
16842SOL     OW52422   6.796  12.499   1.567
16842SOL    HW152423   6.883  12.508   1.605
16842SOL    HW252424   6.761  12.588   1.566
16843SOL     OW52425  11.705   9.479   0.238
16843SOL    HW152426  11.680   9.386   0.233
16843SOL    HW252427  11.651   9.514   0.309
16844SOL     OW52428  11.302   7.329   1.112
16844SOL    HW152429  11.335   7.404   1.161
16844SOL    HW252430  11.210   7.349   1.096
16845SOL     OW52431   3.772   2.463   5.879
16845SOL    HW152432   3.796   2.398   5.812
16845SOL    HW252433   3.856   2.501   5.906
16846SOL     OW52434   4.954   3.148  11.881
16846SOL    HW152435   4.974   3.158  11.787
16846SOL    HW252436   5.008   3.075  11.910
16847SOL     OW52437   6.013   3.678  12.404
16847SOL    HW152438   6.001   3.766  12.439
16847SOL    HW252439   6.060   3.691  12.322
16848SOL     OW52440   0.529   7.359   0.485
16848SOL    HW152441   0.474   7.424   0.441
16848SOL    HW252442   0.590   7.410   0.538
16849SOL     OW52443  13.645   6.667  14.802
16849SOL    HW152444  13.555   6.656  14.832
16849SOL    HW252445  13.664   6.760  14.818
16850SOL     OW52446   9.511   3.364  14.687
16850SOL    HW152447   9.565   3.397  14.615
16850SOL    HW252448   9.570   3.364  14.762
16851SOL     OW52449   4.816   1.528  12.513
16851SOL    HW152450   4.843   1.611  12.475
16851SOL    HW252451   4.861   1.462  12.461
16852SOL     OW52452   2.194  11.828   1.877
16852SOL    HW152453   2.241  11.901   1.837
16852SOL    HW252454   2.219  11.831   1.970
16853SOL     OW52455   5.663   0.171   9.680
16853SOL    HW152456   5.643   0.218   9.761
16853SOL    HW252457   5.631   0.082   9.696
16854SOL     OW52458   6.826  14.023   8.028
16854SOL    HW152459   6.876  13.967   7.969
16854SOL    HW252460   6.820  13.973   8.109
16855SOL     OW52461   3.834   5.479   2.263
16855SOL    HW152462   3.838   5.394   2.308
16855SOL    HW252463   3.760   5.524   2.304
16856SOL     OW52464   5.517  14.138   0.608
16856SOL    HW152465   5.575  14.065   0.632
16856SOL    HW252466   5.507  14.130   0.513
16857SOL     OW52467   5.995   0.486   3.716
16857SOL    HW152468   5.937   0.409   3.721
16857SOL    HW252469   6.062   0.470   3.783
16858SOL     OW52470   2.443  10.699   5.745
16858SOL    HW152471   2.370  10.746   5.706
16858SOL    HW252472   2.411  10.672   5.831
16859SOL     OW52473   8.257  13.118   5.328
16859SOL    HW152474   8.240  13.037   5.279
16859SOL    HW252475   8.327  13.161   5.279
16860SOL     OW52476   5.281   7.278   9.099
16860SOL    HW152477   5.351   7.300   9.037
16860SOL    HW252478   5.200   7.293   9.049
16861SOL     OW52479  14.075   9.079  14.523
16861SOL    HW152480  13.995   9.025  14.515
16861SOL    HW252481  14.110   9.081  14.434
16862SOL     OW52482   1.088   1.940   0.019
16862SOL    HW152483   1.095   2.004   0.089
16862SOL    HW252484   0.995   1.922   0.011
16863SOL     OW52485   8.283   4.318   2.542
16863SOL    HW152486   8.227   4.387   2.505
16863SOL    HW252487   8.286   4.251   2.473
16864SOL     OW52488   7.874  12.737   2.873
16864SOL    HW152489   7.830  12.767   2.793
16864SOL    HW252490   7.805  12.695   2.924
16865SOL     OW52491   1.399  13.135   9.725
16865SOL    HW152492   1.456  13.207   9.752
16865SOL    HW252493   1.408  13.070   9.795
16866SOL     OW52494  12.925  12.728   9.011
16866SOL    HW152495  12.911  12.690   8.925
16866SOL    HW252496  12.845  12.777   9.030
16867SOL     OW52497   3.718  13.489   9.684
16867SOL    HW152498   3.637  13.476   9.635
16867SOL    HW252499   3.702  13.565   9.739
16868SOL     OW52500   4.340   6.494   0.146
16868SOL    HW152501   4.284   6.553   0.096
16868SOL    HW252502   4.429   6.517   0.120
16869SOL     OW52503   2.109  11.307   7.004
16869SOL    HW152504   2.201  11.280   7.012
16869SOL    HW252505   2.062  11.226   6.987
16870SOL     OW52506   4.755   8.172   1.658
16870SOL    HW152507   4.772   8.243   1.597
16870SOL    HW252508   4.694   8.114   1.612
16871SOL     OW52509   4.371   1.201   5.799
16871SOL    HW152510   4.337   1.246   5.877
16871SOL    HW252511   4.308   1.131   5.783
16872SOL     OW52512   5.646   8.066   1.038
16872SOL    HW152513   5.657   8.157   1.011
16872SOL    HW252514   5.562   8.064   1.083
16873SOL     OW52515   4.053   3.269  12.200
16873SOL    HW152516   4.083   3.223  12.279
16873SOL    HW252517   4.078   3.211  12.129
16874SOL     OW52518   5.714  13.023  13.300
16874SOL    HW152519   5.665  13.105  13.312
16874SOL    HW252520   5.764  13.013  13.381
16875SOL     OW52521   6.857   2.012   3.645
16875SOL    HW152522   6.901   2.052   3.569
16875SOL    HW252523   6.913   1.938   3.668
16876SOL     OW52524   8.728  11.787  13.223
16876SOL    HW152525   8.673  11.822  13.154
16876SOL    HW252526   8.695  11.698  13.237
16877SOL     OW52527  12.227   4.204   9.094
16877SOL    HW152528  12.212   4.249   9.177
16877SOL    HW252529  12.255   4.116   9.119
16878SOL     OW52530   3.883  13.228   1.509
16878SOL    HW152531   3.969  13.190   1.523
16878SOL    HW252532   3.866  13.216   1.415
16879SOL     OW52533   0.255  14.853   7.319
16879SOL    HW152534   0.251   0.047   7.382
16879SOL    HW252535   0.318  14.791   7.355
16880SOL     OW52536   2.785   0.463  14.753
16880SOL    HW152537   2.736   0.461  14.835
16880SOL    HW252538   2.801   0.370  14.733
16881SOL     OW52539  12.220   0.153   2.088
16881SOL    HW152540  12.231   0.246   2.066
16881SOL    HW252541  12.310   0.122   2.103
16882SOL     OW52542  12.872  12.696  10.099
16882SOL    HW152543  12.851  12.778  10.143
16882SOL    HW252544  12.823  12.700  10.016
16883SOL     OW52545   3.431   9.624   0.859
16883SOL    HW152546   3.468   9.649   0.944
16883SOL    HW252547   3.481   9.547   0.832
16884SOL     OW52548   1.553  12.664   5.962
16884SOL    HW152549   1.585  12.754   5.970
16884SOL    HW252550   1.525  12.657   5.871
16885SOL     OW52551   5.957   2.795  14.432
16885SOL    HW152552   5.917   2.875  14.468
16885SOL    HW252553   5.936   2.727  14.495
16886SOL     OW52554   7.541   8.511   6.993
16886SOL    HW152555   7.567   8.593   7.034
16886SOL    HW252556   7.606   8.448   7.022
16887SOL     OW52557   6.912  12.647  13.905
16887SOL    HW152558   6.909  12.741  13.884
16887SOL    HW252559   6.936  12.644  13.997
16888SOL     OW52560  10.559   6.329  12.056
16888SOL    HW152561  10.610   6.265  12.105
16888SOL    HW252562  10.624   6.388  12.019
16889SOL     OW52563   6.313   4.781  13.125
16889SOL    HW152564   6.371   4.845  13.085
16889SOL    HW252565   6.345   4.773  13.215
16890SOL     OW52566   0.390   7.379   5.268
16890SOL    HW152567   0.424   7.462   5.302
16890SOL    HW252568   0.467   7.333   5.235
16891SOL     OW52569   7.913  13.828   5.480
16891SOL    HW152570   7.924  13.734   5.487
16891SOL    HW252571   7.933  13.861   5.567
16892SOL     OW52572   6.458   0.861   6.965
16892SOL    HW152573   6.456   0.884   6.873
16892SOL    HW252574   6.378   0.900   7.001
16893SOL     OW52575   1.574  12.105   1.881
16893SOL    HW152576   1.533  12.111   1.795
16893SOL    HW252577   1.537  12.025   1.919
16894SOL     OW52578   4.921  10.029   3.673
16894SOL    HW152579   4.926  10.080   3.754
16894SOL    HW252580   4.829  10.003   3.667
16895SOL     OW52581   0.473   7.161  10.111
16895SOL    HW152582   0.454   7.134  10.021
16895SOL    HW252583   0.389   7.159  10.155
16896SOL     OW52584  13.447   7.876   8.804
16896SOL    HW152585  13.407   7.814   8.865
16896SOL    HW252586  13.532   7.838   8.782
16897SOL     OW52587  10.265   2.614   1.175
16897SOL    HW152588  10.267   2.703   1.140
16897SOL    HW252589  10.318   2.619   1.255
16898SOL     OW52590   4.353   0.119  10.977
16898SOL    HW152591   4.398   0.195  10.941
16898SOL    HW252592   4.357   0.053  10.909
16899SOL     OW52593  11.017  10.873   4.003
16899SOL    HW152594  11.062  10.947   3.963
16899SOL    HW252595  11.082  10.802   4.003
16900SOL     OW52596  11.479   9.940  12.400
16900SOL    HW152597  11.422   9.866  12.380
16900SOL    HW252598  11.565   9.913  12.367
16901SOL     OW52599   7.298   1.297   8.960
16901SOL    HW152600   7.378   1.336   8.925
16901SOL    HW252601   7.291   1.213   8.915
16902SOL     OW52602   4.164  11.296   8.983
16902SOL    HW152603   4.218  11.375   8.985
16902SOL    HW252604   4.127  11.294   8.895
16903SOL     OW52605  11.142  11.663   3.790
16903SOL    HW152606  11.188  11.583   3.816
16903SOL    HW252607  11.094  11.639   3.711
16904SOL     OW52608   8.124   2.055   8.931
16904SOL    HW152609   8.193   2.109   8.971
16904SOL    HW252610   8.171   1.980   8.895
16905SOL     OW52611   5.770  12.505   2.034
16905SOL    HW152612   5.795  12.542   2.119
16905SOL    HW252613   5.822  12.554   1.970
16906SOL     OW52614   4.984   6.577   1.562
16906SOL    HW152615   4.972   6.550   1.653
16906SOL    HW252616   5.035   6.507   1.522
16907SOL     OW52617  10.585   1.069  12.374
16907SOL    HW152618  10.649   1.101  12.311
16907SOL    HW252619  10.514   1.033  12.320
16908SOL     OW52620   4.941   9.913  12.358
16908SOL    HW152621   4.930   9.879  12.269
16908SOL    HW252622   4.997   9.849  12.402
16909SOL     OW52623  10.163   6.935   1.157
16909SOL    HW152624  10.138   6.875   1.227
16909SOL    HW252625  10.087   6.992   1.146
16910SOL     OW52626   0.672   1.491   2.190
16910SOL    HW152627   0.694   1.512   2.099
16910SOL    HW252628   0.655   1.576   2.231
16911SOL     OW52629  12.370   9.332   3.573
16911SOL    HW152630  12.390   9.425   3.560
16911SOL    HW252631  12.391   9.315   3.665
16912SOL     OW52632   2.077   2.004  10.550
16912SOL    HW152633   1.990   2.021  10.585
16912SOL    HW252634   2.101   1.919  10.586
16913SOL     OW52635   1.531   3.451   1.719
16913SOL    HW152636   1.477   3.517   1.675
16913SOL    HW252637   1.583   3.412   1.649
16914SOL     OW52638  11.071  14.190   4.621
16914SOL    HW152639  11.090  14.100   4.647
16914SOL    HW252640  11.154  14.237   4.633
16915SOL     OW52641   6.216   9.481   1.388
16915SOL    HW152642   6.122   9.467   1.395
16915SOL    HW252643   6.229   9.520   1.302
16916SOL     OW52644  10.159   7.706   1.932
16916SOL    HW152645  10.079   7.744   1.966
16916SOL    HW252646  10.174   7.750   1.849
16917SOL     OW52647   4.081   2.890  13.628
16917SOL    HW152648   4.058   2.924  13.714
16917SOL    HW252649   4.107   2.800  13.644
16918SOL     OW52650   7.808  12.400  12.858
16918SOL    HW152651   7.814  12.385  12.763
16918SOL    HW252652   7.797  12.495  12.866
16919SOL     OW52653   4.170   6.063  10.894
16919SOL    HW152654   4.246   6.109  10.929
16919SOL    HW252655   4.142   6.117  10.819
16920SOL     OW52656   7.937   3.386   2.529
16920SOL    HW152657   8.024   3.406   2.494
16920SOL    HW252658   7.890   3.469   2.528
16921SOL     OW52659   9.062   1.336   5.138
16921SOL    HW152660   9.132   1.380   5.186
16921SOL    HW252661   8.986   1.342   5.196
16922SOL     OW52662  13.841   4.289  11.666
16922SOL    HW152663  13.912   4.224  11.668
16922SOL    HW252664  13.851   4.337  11.748
16923SOL     OW52665   7.661  11.568  11.063
16923SOL    HW152666   7.672  11.653  11.108
16923SOL    HW252667   7.730  11.567  10.997
16924SOL     OW52668   1.578  14.765   4.718
16924SOL    HW152669   1.508  14.812   4.762
16924SOL    HW252670   1.597  14.817   4.640
16925SOL     OW52671   1.275  11.579   8.019
16925SOL    HW152672   1.354  11.631   8.038
16925SOL    HW252673   1.265  11.585   7.924
16926SOL     OW52674  11.395   3.885   3.731
16926SOL    HW152675  11.351   3.802   3.749
16926SOL    HW252676  11.411   3.885   3.637
16927SOL     OW52677   7.479   9.501   0.174
16927SOL    HW152678   7.457   9.547   0.093
16927SOL    HW252679   7.424   9.542   0.241
16928SOL     OW52680   1.797  13.600   6.280
16928SOL    HW152681   1.750  13.528   6.322
16928SOL    HW252682   1.778  13.590   6.187
16929SOL     OW52683   9.594   0.573   4.126
16929SOL    HW152684   9.651   0.648   4.144
16929SOL    HW252685   9.571   0.582   4.034
16930SOL     OW52686   6.156  13.296   5.525
16930SOL    HW152687   6.101  13.357   5.475
16930SOL    HW252688   6.224  13.270   5.463
16931SOL     OW52689   7.303  12.259  11.477
16931SOL    HW152690   7.289  12.348  11.508
16931SOL    HW252691   7.382  12.230  11.523
16932SOL     OW52692   9.252  11.672   4.714
16932SOL    HW152693   9.305  11.744   4.678
16932SOL    HW252694   9.316  11.606   4.741
16933SOL     OW52695  12.292  10.279   3.591
16933SOL    HW152696  12.257  10.343   3.654
16933SOL    HW252697  12.365  10.238   3.637
16934SOL     OW52698  10.204   5.772   0.522
16934SOL    HW152699  10.203   5.682   0.554
16934SOL    HW252700  10.136   5.774   0.454
16935SOL     OW52701   9.738   7.706  11.952
16935SOL    HW152702   9.730   7.792  11.993
16935SOL    HW252703   9.718   7.721  11.860
16936SOL     OW52704  10.504   5.692  10.294
16936SOL    HW152705  10.498   5.784  10.319
16936SOL    HW252706  10.449   5.685  10.216
16937SOL     OW52707   3.378   5.307   2.526
16937SOL    HW152708   3.378   5.221   2.483
16937SOL    HW252709   3.299   5.307   2.580
16938SOL     OW52710   3.282   1.553  12.786
16938SOL    HW152711   3.264   1.562  12.880
16938SOL    HW252712   3.315   1.463  12.778
16939SOL     OW52713  13.073   3.062   5.888
16939SOL    HW152714  13.136   3.030   5.952
16939SOL    HW252715  13.090   3.009   5.810
16940SOL     OW52716  11.184  11.052   4.929
16940SOL    HW152717  11.266  11.046   4.881
16940SOL    HW252718  11.122  11.001   4.877
16941SOL     OW52719   6.118   3.993   5.432
16941SOL    HW152720   6.028   3.962   5.442
16941SOL    HW252721   6.156   3.982   5.519
16942SOL     OW52722  13.828   2.901   6.401
16942SOL    HW152723  13.761   2.961   6.435
16942SOL    HW252724  13.795   2.814   6.423
16943SOL     OW52725  11.197   0.622  14.271
16943SOL    HW152726  11.144   0.545  14.290
16943SOL    HW252727  11.143   0.696  14.299
16944SOL     OW52728   6.236  12.948   6.537
16944SOL    HW152729   6.271  12.873   6.490
16944SOL    HW252730   6.214  12.914   6.624
16945SOL     OW52731   0.111  10.707   2.691
16945SOL    HW152732   0.030  10.679   2.733
16945SOL    HW252733   0.122  10.798   2.718
16946SOL     OW52734   0.704  12.444  12.774
16946SOL    HW152735   0.690  12.450  12.679
16946SOL    HW252736   0.783  12.495  12.790
16947SOL     OW52737   8.352   3.153   8.075
16947SOL    HW152738   8.323   3.152   8.166
16947SOL    HW252739   8.288   3.209   8.030
16948SOL     OW52740   3.485   8.692   6.049
16948SOL    HW152741   3.479   8.690   6.145
16948SOL    HW252742   3.540   8.769   6.030
16949SOL     OW52743   4.823   6.744  14.219
16949SOL    HW152744   4.861   6.828  14.191
16949SOL    HW252745   4.739   6.768  14.258
16950SOL     OW52746   6.033  14.532   8.103
16950SOL    HW152747   6.021  14.489   8.187
16950SOL    HW252748   6.128  14.529   8.088
16951SOL     OW52749   9.022   8.239   8.955
16951SOL    HW152750   8.927   8.229   8.940
16951SOL    HW252751   9.030   8.323   9.000
16952SOL     OW52752  14.493   1.260  12.603
16952SOL    HW152753  14.556   1.290  12.668
16952SOL    HW252754  14.412   1.307  12.624
16953SOL     OW52755   8.640   3.216   9.715
16953SOL    HW152756   8.604   3.280   9.653
16953SOL    HW252757   8.574   3.211   9.784
16954SOL     OW52758   8.512   3.945   9.947
16954SOL    HW152759   8.439   3.927  10.005
16954SOL    HW252760   8.576   3.990  10.002
16955SOL     OW52761   7.355  12.711   5.077
16955SOL    HW152762   7.430  12.656   5.056
16955SOL    HW252763   7.363  12.730   5.170
16956SOL     OW52764  11.474   9.602   1.623
16956SOL    HW152765  11.435   9.689   1.635
16956SOL    HW252766  11.431   9.567   1.545
16957SOL     OW52767   7.461   6.171  13.711
16957SOL    HW152768   7.529   6.190  13.775
16957SOL    HW252769   7.443   6.255  13.670
16958SOL     OW52770   9.119  12.626  14.568
16958SOL    HW152771   9.080  12.543  14.597
16958SOL    HW252772   9.073  12.692  14.619
16959SOL     OW52773  13.427   2.183   3.825
16959SOL    HW152774  13.459   2.267   3.792
16959SOL    HW252775  13.359   2.157   3.762
16960SOL     OW52776   1.432   5.974   0.553
16960SOL    HW152777   1.504   5.920   0.519
16960SOL    HW252778   1.383   5.914   0.610
16961SOL     OW52779  14.849   6.717   8.364
16961SOL    HW152780  14.840   6.625   8.339
16961SOL    HW252781   0.064   6.736   8.353
16962SOL     OW52782   0.980   0.022   1.554
16962SOL    HW152783   0.989   0.113   1.582
16962SOL    HW252784   0.917   0.025   1.482
16963SOL     OW52785   4.560  14.702   2.992
16963SOL    HW152786   4.607  14.644   3.052
16963SOL    HW252787   4.513  14.763   3.048
16964SOL     OW52788   6.780  14.139  11.008
16964SOL    HW152789   6.759  14.197  10.934
16964SOL    HW252790   6.745  14.184  11.085
16965SOL     OW52791   6.089  12.641  11.375
16965SOL    HW152792   6.024  12.584  11.334
16965SOL    HW252793   6.047  12.671  11.456
16966SOL     OW52794  14.386   7.066   2.902
16966SOL    HW152795  14.420   6.990   2.950
16966SOL    HW252796  14.396   7.042   2.810
16967SOL     OW52797  11.445  14.609   3.175
16967SOL    HW152798  11.520  14.669   3.171
16967SOL    HW252799  11.473  14.539   3.233
16968SOL     OW52800  12.951   6.359   1.887
16968SOL    HW152801  12.861   6.356   1.856
16968SOL    HW252802  12.961   6.447   1.924
16969SOL     OW52803   6.693  10.805   1.246
16969SOL    HW152804   6.735  10.779   1.164
16969SOL    HW252805   6.671  10.722   1.288
16970SOL     OW52806  14.014  14.421   0.391
16970SOL    HW152807  14.022  14.355   0.460
16970SOL    HW252808  14.102  14.425   0.352
16971SOL     OW52809   5.817  12.989  12.275
16971SOL    HW152810   5.840  13.073  12.315
16971SOL    HW252811   5.740  12.960  12.325
16972SOL     OW52812   0.138   0.123   1.904
16972SOL    HW152813   0.091   0.202   1.878
16972SOL    HW252814   0.216   0.123   1.849
16973SOL     OW52815   6.488  13.769  14.190
16973SOL    HW152816   6.500  13.860  14.216
16973SOL    HW252817   6.403  13.768  14.145
16974SOL     OW52818   2.403   0.859   2.043
16974SOL    HW152819   2.360   0.784   2.003
16974SOL    HW252820   2.366   0.863   2.132
16975SOL     OW52821   6.234   7.730   6.225
16975SOL    HW152822   6.252   7.663   6.292
16975SOL    HW252823   6.140   7.747   6.233
16976SOL     OW52824   9.993   0.854  13.678
16976SOL    HW152825  10.007   0.919  13.747
16976SOL    HW252826  10.080   0.817  13.663
16977SOL     OW52827   7.493   6.842   4.784
16977SOL    HW152828   7.533   6.826   4.869
16977SOL    HW252829   7.558   6.812   4.721
16978SOL     OW52830   7.993   5.868   2.947
16978SOL    HW152831   7.905   5.902   2.936
16978SOL    HW252832   8.024   5.851   2.858
16979SOL     OW52833  13.583  12.462   9.827
16979SOL    HW152834  13.548  12.414   9.902
16979SOL    HW252835  13.625  12.539   9.867
16980SOL     OW52836   0.649   8.012  12.127
16980SOL    HW152837   0.650   7.916  12.125
16980SOL    HW252838   0.567   8.034  12.172
16981SOL     OW52839   9.634   0.807  14.277
16981SOL    HW152840   9.690   0.881  14.300
16981SOL    HW252841   9.695   0.741  14.244
16982SOL     OW52842   3.700  14.761   3.235
16982SOL    HW152843   3.775  14.799   3.190
16982SOL    HW252844   3.681  14.822   3.306
16983SOL     OW52845   5.586   4.002  11.121
16983SOL    HW152846   5.598   4.066  11.050
16983SOL    HW252847   5.660   3.942  11.112
16984SOL     OW52848   9.086   9.774   2.121
16984SOL    HW152849   9.078   9.843   2.056
16984SOL    HW252850   9.049   9.696   2.078
16985SOL     OW52851  13.071   4.148  10.170
16985SOL    HW152852  13.001   4.203  10.204
16985SOL    HW252853  13.028   4.088  10.110
16986SOL     OW52854   4.474  12.764   3.647
16986SOL    HW152855   4.570  12.771   3.651
16986SOL    HW252856   4.458  12.675   3.615
16987SOL     OW52857   7.514   9.505  11.995
16987SOL    HW152858   7.605   9.475  11.997
16987SOL    HW252859   7.472   9.459  12.067
16988SOL     OW52860   0.661   0.347   2.056
16988SOL    HW152861   0.718   0.292   2.109
16988SOL    HW252862   0.598   0.383   2.118
16989SOL     OW52863  12.208   0.123  14.363
16989SOL    HW152864  12.188   0.211  14.331
16989SOL    HW252865  12.149   0.065  14.316
16990SOL     OW52866   6.391   1.735   5.636
16990SOL    HW152867   6.395   1.737   5.541
16990SOL    HW252868   6.461   1.795   5.664
16991SOL     OW52869  11.446   3.106  10.334
16991SOL    HW152870  11.502   3.031  10.315
16991SOL    HW252871  11.394   3.079  10.409
16992SOL     OW52872  10.789   7.031  11.211
16992SOL    HW152873  10.766   7.072  11.128
16992SOL    HW252874  10.706   7.020  11.257
16993SOL     OW52875   5.462   8.270   0.154
16993SOL    HW152876   5.495   8.331   0.220
16993SOL    HW252877   5.409   8.208   0.203
16994SOL     OW52878   3.953  10.966   9.713
16994SOL    HW152879   3.865  10.949   9.680
16994SOL    HW252880   4.008  10.968   9.635
16995SOL     OW52881   8.068   1.285   8.232
16995SOL    HW152882   8.123   1.355   8.268
16995SOL    HW252883   8.106   1.205   8.267
16996SOL     OW52884  13.359  10.235   8.447
16996SOL    HW152885  13.264  10.242   8.446
16996SOL    HW252886  13.379  10.197   8.533
16997SOL     OW52887   9.194   5.829   5.570
16997SOL    HW152888   9.135   5.758   5.544
16997SOL    HW252889   9.226   5.803   5.656
16998SOL     OW52890  10.049   3.272   9.573
16998SOL    HW152891  10.125   3.278   9.631
16998SOL    HW252892  10.013   3.185   9.589
16999SOL     OW52893   6.732   7.917   9.724
16999SOL    HW152894   6.778   7.864   9.789
16999SOL    HW252895   6.795   7.928   9.653
17000SOL     OW52896  10.144   1.065   4.287
17000SOL    HW152897  10.143   1.006   4.212
17000SOL    HW252898  10.159   1.152   4.250
17001SOL     OW52899   1.125   4.206   7.512
17001SOL    HW152900   1.105   4.115   7.490
17001SOL    HW252901   1.128   4.208   7.608
17002SOL     OW52902   2.800  14.699   6.266
17002SOL    HW152903   2.780  14.779   6.217
17002SOL    HW252904   2.817  14.729   6.356
17003SOL     OW52905  12.073  11.215   4.068
17003SOL    HW152906  12.069  11.166   3.986
17003SOL    HW252907  12.057  11.306   4.041
17004SOL     OW52908  12.037   6.972   9.473
17004SOL    HW152909  12.010   6.928   9.554
17004SOL    HW252910  11.974   7.043   9.462
17005SOL     OW52911   0.577  11.701   8.880
17005SOL    HW152912   0.544  11.630   8.935
17005SOL    HW252913   0.575  11.664   8.791
17006SOL     OW52914   5.755  13.109  14.219
17006SOL    HW152915   5.846  13.101  14.189
17006SOL    HW252916   5.706  13.052  14.161
17007SOL     OW52917  12.227   2.604   8.470
17007SOL    HW152918  12.248   2.555   8.390
17007SOL    HW252919  12.170   2.675   8.440
17008SOL     OW52920   4.740  11.047  10.611
17008SOL    HW152921   4.760  10.956  10.631
17008SOL    HW252922   4.682  11.076  10.681
17009SOL     OW52923   3.639   7.850   1.523
17009SOL    HW152924   3.612   7.870   1.613
17009SOL    HW252925   3.631   7.755   1.516
17010SOL     OW52926  13.355   2.612   1.990
17010SOL    HW152927  13.337   2.584   1.900
17010SOL    HW252928  13.411   2.689   1.980
17011SOL     OW52929   9.288  10.834   6.644
17011SOL    HW152930   9.354  10.779   6.686
17011SOL    HW252931   9.208  10.819   6.695
17012SOL     OW52932  12.134   6.536   2.889
17012SOL    HW152933  12.214   6.484   2.896
17012SOL    HW252934  12.151   6.596   2.817
17013SOL     OW52935   2.807   3.901   5.670
17013SOL    HW152936   2.722   3.922   5.631
17013SOL    HW252937   2.857   3.982   5.665
17014SOL     OW52938   6.579   9.931   3.680
17014SOL    HW152939   6.501   9.877   3.667
17014SOL    HW252940   6.635   9.910   3.606
17015SOL     OW52941   4.223   7.631   1.044
17015SOL    HW152942   4.300   7.683   1.067
17015SOL    HW252943   4.237   7.607   0.953
17016SOL     OW52944   7.589   1.863   3.475
17016SOL    HW152945   7.646   1.923   3.524
17016SOL    HW252946   7.532   1.920   3.424
17017SOL     OW52947   7.777  13.108   3.255
17017SOL    HW152948   7.849  13.168   3.236
17017SOL    HW252949   7.774  13.048   3.181
17018SOL     OW52950   5.657   0.961  14.826
17018SOL    HW152951   5.650   0.961  14.731
17018SOL    HW252952   5.721   0.892  14.845
17019SOL     OW52953   4.096  11.870   5.591
17019SOL    HW152954   4.171  11.924   5.618
17019SOL    HW252955   4.128  11.780   5.598
17020SOL     OW52956   9.054  11.110   3.560
17020SOL    HW152957   9.098  11.081   3.640
17020SOL    HW252958   9.062  11.036   3.500
17021SOL     OW52959   9.907  13.123   1.791
17021SOL    HW152960   9.890  13.142   1.883
17021SOL    HW252961  10.002  13.128   1.783
17022SOL     OW52962   3.080  11.680   2.537
17022SOL    HW152963   3.073  11.756   2.595
17022SOL    HW252964   3.173  11.658   2.536
17023SOL     OW52965   3.058  12.434   4.917
17023SOL    HW152966   2.981  12.473   4.875
17023SOL    HW252967   3.038  12.340   4.920
17024SOL     OW52968  13.198  13.393   0.064
17024SOL    HW152969  13.281  13.370   0.021
17024SOL    HW252970  13.202  13.488   0.075
17025SOL     OW52971   3.293   1.196   6.906
17025SOL    HW152972   3.231   1.247   6.957
17025SOL    HW252973   3.348   1.152   6.971
17026SOL     OW52974  11.833   0.535   1.361
17026SOL    HW152975  11.777   0.598   1.315
17026SOL    HW252976  11.916   0.536   1.313
17027SOL     OW52977  11.632   5.436  10.781
17027SOL    HW152978  11.538   5.423  10.795
17027SOL    HW252979  11.671   5.351  10.801
17028SOL     OW52980   8.322   3.330  13.182
17028SOL    HW152981   8.234   3.303  13.207
17028SOL    HW252982   8.379   3.298  13.252
17029SOL     OW52983   5.548   2.128   6.871
17029SOL    HW152984   5.510   2.202   6.824
17029SOL    HW252985   5.562   2.062   6.803
17030SOL     OW52986   0.031   1.388  13.585
17030SOL    HW152987  14.838   1.325  13.574
17030SOL    HW252988   0.111   1.336  13.581
17031SOL     OW52989  11.131   5.779  12.379
17031SOL    HW152990  11.044   5.776  12.417
17031SOL    HW252991  11.166   5.690  12.391
17032SOL     OW52992   7.869   7.170   4.912
17032SOL    HW152993   7.899   7.148   4.824
17032SOL    HW252994   7.950   7.180   4.963
17033SOL     OW52995   2.407   8.999   8.707
17033SOL    HW152996   2.344   8.973   8.640
17033SOL    HW252997   2.447   8.916   8.735
17034SOL     OW52998  12.476   5.122   5.105
17034SOL    HW152999  12.479   5.218   5.096
17034SOL    HW253000  12.508   5.105   5.193
17035SOL     OW53001  11.363   3.243  12.933
17035SOL    HW153002  11.322   3.298  13.001
17035SOL    HW253003  11.299   3.174  12.916
17036SOL     OW53004  10.523   2.915  13.972
17036SOL    HW153005  10.489   2.843  14.025
17036SOL    HW253006  10.608   2.935  14.009
17037SOL     OW53007  10.852   9.052  14.212
17037SOL    HW153008  10.904   9.116  14.162
17037SOL    HW253009  10.764   9.059  14.176
17038SOL     OW53010   3.299   0.255  14.445
17038SOL    HW153011   3.349   0.257  14.364
17038SOL    HW253012   3.264   0.344  14.454
17039SOL     OW53013   5.219   4.684   7.803
17039SOL    HW153014   5.209   4.775   7.776
17039SOL    HW253015   5.205   4.686   7.898
17040SOL     OW53016   2.926   8.062   2.820
17040SOL    HW153017   2.917   7.992   2.886
17040SOL    HW253018   2.978   8.022   2.751
17041SOL     OW53019  10.359  11.611   4.845
17041SOL    HW153020  10.390  11.678   4.905
17041SOL    HW253021  10.435  11.555   4.829
17042SOL     OW53022   6.628   5.687  10.888
17042SOL    HW153023   6.663   5.734  10.812
17042SOL    HW253024   6.567   5.623  10.851
17043SOL     OW53025   9.687   2.466   8.036
17043SOL    HW153026   9.617   2.426   8.087
17043SOL    HW253027   9.749   2.395   8.020
17044SOL     OW53028  13.587   8.829  14.586
17044SOL    HW153029  13.536   8.816  14.666
17044SOL    HW253030  13.521   8.837  14.517
17045SOL     OW53031  12.499   4.599  10.700
17045SOL    HW153032  12.446   4.524  10.670
17045SOL    HW253033  12.575   4.559  10.743
17046SOL     OW53034   2.677  11.766   2.305
17046SOL    HW153035   2.721  11.813   2.376
17046SOL    HW253036   2.745  11.752   2.239
17047SOL     OW53037  13.725   4.102   0.104
17047SOL    HW153038  13.793   4.044   0.070
17047SOL    HW253039  13.692   4.148   0.026
17048SOL     OW53040   2.162   8.712  10.505
17048SOL    HW153041   2.080   8.708  10.457
17048SOL    HW253042   2.153   8.788  10.563
17049SOL     OW53043  11.018   4.053   9.377
17049SOL    HW153044  11.011   3.979   9.437
17049SOL    HW253045  11.014   4.130   9.433
17050SOL     OW53046   0.563  12.561  13.467
17050SOL    HW153047   0.597  12.545  13.379
17050SOL    HW253048   0.537  12.653  13.466
17051SOL     OW53049   2.871   7.345   4.576
17051SOL    HW153050   2.877   7.260   4.532
17051SOL    HW253051   2.833   7.324   4.662
17052SOL     OW53052   5.327  13.084   7.719
17052SOL    HW153053   5.242  13.124   7.699
17052SOL    HW253054   5.390  13.154   7.702
17053SOL     OW53055   4.023   4.697   6.499
17053SOL    HW153056   4.076   4.705   6.579
17053SOL    HW253057   3.990   4.785   6.484
17054SOL     OW53058  14.811   0.861  14.729
17054SOL    HW153059  14.877   0.917  14.688
17054SOL    HW253060  14.727   0.903  14.706
17055SOL     OW53061   4.945  14.039   6.353
17055SOL    HW153062   4.973  13.991   6.431
17055SOL    HW253063   4.884  14.105   6.386
17056SOL     OW53064  10.409   7.993   7.724
17056SOL    HW153065  10.333   7.970   7.670
17056SOL    HW253066  10.410   7.927   7.793
17057SOL     OW53067  14.457   3.743   1.547
17057SOL    HW153068  14.367   3.777   1.555
17057SOL    HW253069  14.484   3.729   1.637
17058SOL     OW53070   7.954  11.600   1.107
17058SOL    HW153071   7.940  11.594   1.201
17058SOL    HW253072   7.937  11.511   1.074
17059SOL     OW53073  10.821   1.796   9.886
17059SOL    HW153074  10.853   1.765   9.971
17059SOL    HW253075  10.867   1.878   9.871
17060SOL     OW53076   2.272   1.955   7.607
17060SOL    HW153077   2.354   1.992   7.575
17060SOL    HW253078   2.207   2.022   7.587
17061SOL     OW53079   1.311  14.261   4.106
17061SOL    HW153080   1.365  14.187   4.132
17061SOL    HW253081   1.242  14.223   4.053
17062SOL     OW53082   6.048  11.617   3.449
17062SOL    HW153083   6.031  11.525   3.428
17062SOL    HW253084   5.987  11.666   3.393
17063SOL     OW53085  13.776   0.025   4.908
17063SOL    HW153086  13.783  14.809   4.924
17063SOL    HW253087  13.866   0.057   4.908
17064SOL     OW53088  12.018  11.118   3.823
17064SOL    HW153089  11.997  11.026   3.804
17064SOL    HW253090  12.040  11.156   3.738
17065SOL     OW53091   3.083  13.754   5.165
17065SOL    HW153092   3.106  13.840   5.199
17065SOL    HW253093   2.989  13.758   5.149
17066SOL     OW53094  13.808   3.622  10.771
17066SOL    HW153095  13.822   3.640  10.678
17066SOL    HW253096  13.719   3.653  10.788
17067SOL     OW53097  11.863   8.633   5.911
17067SOL    HW153098  11.948   8.676   5.919
17067SOL    HW253099  11.876   8.567   5.842
17068SOL     OW53100   6.527   6.206   8.226
17068SOL    HW153101   6.511   6.112   8.215
17068SOL    HW253102   6.488   6.246   8.149
17069SOL     OW53103   0.813   5.964  12.652
17069SOL    HW153104   0.796   5.891  12.592
17069SOL    HW253105   0.781   6.041  12.605
17070SOL     OW53106  10.279  12.494   2.649
17070SOL    HW153107  10.260  12.493   2.555
17070SOL    HW253108  10.351  12.556   2.658
17071SOL     OW53109   8.992   5.210   0.566
17071SOL    HW153110   9.010   5.201   0.473
17071SOL    HW253111   9.072   5.249   0.603
17072SOL     OW53112   4.790   2.866   7.307
17072SOL    HW153113   4.875   2.834   7.279
17072SOL    HW253114   4.783   2.954   7.268
17073SOL     OW53115  13.165   1.758  10.118
17073SOL    HW153116  13.217   1.740  10.196
17073SOL    HW253117  13.083   1.711  10.132
17074SOL     OW53118  12.772   7.870   3.366
17074SOL    HW153119  12.866   7.870   3.350
17074SOL    HW253120  12.734   7.924   3.296
17075SOL     OW53121   6.897  13.288   5.222
17075SOL    HW153122   6.816  13.312   5.267
17075SOL    HW253123   6.965  13.342   5.262
17076SOL     OW53124   7.557   5.951   5.610
17076SOL    HW153125   7.520   5.919   5.528
17076SOL    HW253126   7.647   5.918   5.610
17077SOL     OW53127  12.138   6.074  10.963
17077SOL    HW153128  12.229   6.044  10.966
17077SOL    HW253129  12.135   6.134  10.889
17078SOL     OW53130  14.132   6.716   1.045
17078SOL    HW153131  14.054   6.662   1.058
17078SOL    HW253132  14.143   6.718   0.950
17079SOL     OW53133  14.826   0.641   7.614
17079SOL    HW153134   0.037   0.606   7.618
17079SOL    HW253135  14.803   0.657   7.706
17080SOL     OW53136   8.419  10.989   8.797
17080SOL    HW153137   8.408  10.923   8.866
17080SOL    HW253138   8.387  10.946   8.718
17081SOL     OW53139  13.329   3.454   2.501
17081SOL    HW153140  13.344   3.506   2.580
17081SOL    HW253141  13.292   3.372   2.532
17082SOL     OW53142   1.513  14.810   2.249
17082SOL    HW153143   1.545   0.016   2.284
17082SOL    HW253144   1.576  14.745   2.280
17083SOL     OW53145   7.691   1.711   0.599
17083SOL    HW153146   7.684   1.617   0.580
17083SOL    HW253147   7.613   1.730   0.651
17084SOL     OW53148   1.642   8.312   0.992
17084SOL    HW153149   1.713   8.247   1.000
17084SOL    HW253150   1.597   8.308   1.077
17085SOL     OW53151  10.059   3.677   0.782
17085SOL    HW153152  10.153   3.692   0.769
17085SOL    HW253153  10.038   3.726   0.862
17086SOL     OW53154   6.037  11.618   4.717
17086SOL    HW153155   5.992  11.605   4.634
17086SOL    HW253156   5.980  11.577   4.782
17087SOL     OW53157   9.348   4.062   0.654
17087SOL    HW153158   9.267   4.057   0.705
17087SOL    HW253159   9.368   4.155   0.650
17088SOL     OW53160  13.213  13.239  10.040
17088SOL    HW153161  13.137  13.226  10.098
17088SOL    HW253162  13.218  13.158   9.989
17089SOL     OW53163   9.270   1.109  12.481
17089SOL    HW153164   9.234   1.103  12.569
17089SOL    HW253165   9.235   1.191  12.446
17090SOL     OW53166   2.555   0.339   0.877
17090SOL    HW153167   2.470   0.324   0.918
17090SOL    HW253168   2.602   0.395   0.939
17091SOL     OW53169  10.844   6.586   0.657
17091SOL    HW153170  10.908   6.637   0.705
17091SOL    HW253171  10.762   6.600   0.703
17092SOL     OW53172  11.961   0.759  13.879
17092SOL    HW153173  11.983   0.802  13.796
17092SOL    HW253174  12.025   0.794  13.942
17093SOL     OW53175   8.574  11.286  12.142
17093SOL    HW153176   8.556  11.250  12.056
17093SOL    HW253177   8.652  11.340  12.130
17094SOL     OW53178   8.702   5.531  14.174
17094SOL    HW153179   8.744   5.471  14.112
17094SOL    HW253180   8.622   5.486  14.201
17095SOL     OW53181   7.625   6.762   3.673
17095SOL    HW153182   7.603   6.842   3.720
17095SOL    HW253183   7.719   6.751   3.686
17096SOL     OW53184   7.266   5.047   0.338
17096SOL    HW153185   7.202   5.109   0.374
17096SOL    HW253186   7.303   5.004   0.415
17097SOL     OW53187   6.594   5.157   7.488
17097SOL    HW153188   6.682   5.150   7.527
17097SOL    HW253189   6.559   5.068   7.492
17098SOL     OW53190  12.402   9.258  10.695
17098SOL    HW153191  12.475   9.199  10.715
17098SOL    HW253192  12.334   9.233  10.757
17099SOL     OW53193   2.576   2.087  10.091
17099SOL    HW153194   2.666   2.094  10.058
17099SOL    HW253195   2.537   2.172  10.072
17100SOL     OW53196   2.503  13.805   6.399
17100SOL    HW153197   2.441  13.874   6.421
17100SOL    HW253198   2.456  13.749   6.337
17101SOL     OW53199  10.958   4.539  13.544
17101SOL    HW153200  10.982   4.452  13.514
17101SOL    HW253201  10.986   4.597  13.472
17102SOL     OW53202   9.349  12.705   2.707
17102SOL    HW153203   9.407  12.778   2.727
17102SOL    HW253204   9.319  12.722   2.618
17103SOL     OW53205   5.471  10.568   3.626
17103SOL    HW153206   5.377  10.564   3.607
17103SOL    HW253207   5.483  10.517   3.706
17104SOL     OW53208   8.944   8.784  12.093
17104SOL    HW153209   8.978   8.766  12.181
17104SOL    HW253210   8.941   8.698  12.050
17105SOL     OW53211   3.267   7.879   6.748
17105SOL    HW153212   3.283   7.803   6.804
17105SOL    HW253213   3.258   7.952   6.808
17106SOL     OW53214   1.815   6.131  11.133
17106SOL    HW153215   1.759   6.066  11.090
17106SOL    HW253216   1.758   6.207  11.145
17107SOL     OW53217  10.243  12.836  11.524
17107SOL    HW153218  10.294  12.915  11.540
17107SOL    HW253219  10.302  12.779  11.475
17108SOL     OW53220  13.666  11.160   0.683
17108SOL    HW153221  13.675  11.099   0.610
17108SOL    HW253222  13.648  11.104   0.759
17109SOL     OW53223   6.755   2.741  12.947
17109SOL    HW153224   6.708   2.800  12.888
17109SOL    HW253225   6.710   2.751  13.031
17110SOL     OW53226   6.929   1.484   4.823
17110SOL    HW153227   6.909   1.534   4.744
17110SOL    HW253228   6.917   1.546   4.895
17111SOL     OW53229  11.016  14.507   9.304
17111SOL    HW153230  11.072  14.584   9.302
17111SOL    HW253231  11.070  14.439   9.344
17112SOL     OW53232   9.651  12.222  13.902
17112SOL    HW153233   9.672  12.254  13.814
17112SOL    HW253234   9.559  12.245  13.915
17113SOL     OW53235   2.433   2.470   9.694
17113SOL    HW153236   2.362   2.495   9.634
17113SOL    HW253237   2.415   2.520   9.774
17114SOL     OW53238   2.988   4.977  13.547
17114SOL    HW153239   2.914   4.949  13.602
17114SOL    HW253240   3.064   4.974  13.605
17115SOL     OW53241   5.648   2.155   4.185
17115SOL    HW153242   5.622   2.075   4.231
17115SOL    HW253243   5.634   2.225   4.248
17116SOL     OW53244   1.721   5.532  11.831
17116SOL    HW153245   1.650   5.595  11.817
17116SOL    HW253246   1.775   5.539  11.753
17117SOL     OW53247   3.476   6.231  12.386
17117SOL    HW153248   3.509   6.188  12.465
17117SOL    HW253249   3.545   6.217  12.321
17118SOL     OW53250  11.389  10.139  11.871
17118SOL    HW153251  11.460  10.076  11.860
17118SOL    HW253252  11.317  10.089  11.906
17119SOL     OW53253   0.949   1.801   6.143
17119SOL    HW153254   0.877   1.742   6.165
17119SOL    HW253255   0.910   1.888   6.143
17120SOL     OW53256   7.182  11.155   0.348
17120SOL    HW153257   7.100  11.173   0.393
17120SOL    HW253258   7.195  11.230   0.291
17121SOL     OW53259   8.718  10.551   7.208
17121SOL    HW153260   8.706  10.582   7.297
17121SOL    HW253261   8.655  10.479   7.199
17122SOL     OW53262   6.565   9.713   2.531
17122SOL    HW153263   6.476   9.713   2.565
17122SOL    HW253264   6.556   9.743   2.440
17123SOL     OW53265   9.571   3.571  12.708
17123SOL    HW153266   9.632   3.570  12.634
17123SOL    HW253267   9.555   3.664  12.724
17124SOL     OW53268   0.842   4.989  10.042
17124SOL    HW153269   0.747   4.981  10.053
17124SOL    HW253270   0.872   4.899  10.031
17125SOL     OW53271  10.018   6.662   1.651
17125SOL    HW153272  10.066   6.606   1.711
17125SOL    HW253273  10.032   6.751   1.684
17126SOL     OW53274   6.942  11.180  12.561
17126SOL    HW153275   6.879  11.136  12.618
17126SOL    HW253276   7.008  11.114  12.542
17127SOL     OW53277   4.926   7.650  13.358
17127SOL    HW153278   4.920   7.601  13.276
17127SOL    HW253279   4.998   7.712  13.344
17128SOL     OW53280   5.321  10.924   9.195
17128SOL    HW153281   5.355  10.986   9.260
17128SOL    HW253282   5.343  10.963   9.110
17129SOL     OW53283   1.436  12.275   1.523
17129SOL    HW153284   1.368  12.209   1.511
17129SOL    HW253285   1.405  12.327   1.598
17130SOL     OW53286   9.179   0.054   2.389
17130SOL    HW153287   9.207   0.138   2.425
17130SOL    HW253288   9.148   0.075   2.301
17131SOL     OW53289  12.898   1.269   1.475
17131SOL    HW153290  12.843   1.283   1.399
17131SOL    HW253291  12.895   1.352   1.523
17132SOL     OW53292  11.455   1.537   4.889
17132SOL    HW153293  11.364   1.564   4.874
17132SOL    HW253294  11.501   1.560   4.808
17133SOL     OW53295  13.592  12.365   5.266
17133SOL    HW153296  13.653  12.411   5.209
17133SOL    HW253297  13.641  12.289   5.298
17134SOL     OW53298   2.023   8.135  11.818
17134SOL    HW153299   1.954   8.177  11.869
17134SOL    HW253300   2.043   8.197  11.748
17135SOL     OW53301   5.128   9.674  13.961
17135SOL    HW153302   5.095   9.628  13.884
17135SOL    HW253303   5.217   9.701  13.936
17136SOL     OW53304   5.828   7.079   8.874
17136SOL    HW153305   5.900   7.029   8.913
17136SOL    HW253306   5.857   7.170   8.880
17137SOL     OW53307  13.184  12.196  13.746
17137SOL    HW153308  13.272  12.161  13.759
17137SOL    HW253309  13.159  12.232  13.832
17138SOL     OW53310  14.813   0.715   1.521
17138SOL    HW153311  14.797   0.685   1.610
17138SOL    HW253312   0.031   0.717   1.514
17139SOL     OW53313   8.933  12.712   0.807
17139SOL    HW153314   8.913  12.629   0.762
17139SOL    HW253315   9.025  12.728   0.788
17140SOL     OW53316   4.062   6.081   7.070
17140SOL    HW153317   4.108   6.048   7.147
17140SOL    HW253318   4.118   6.151   7.036
17141SOL     OW53319   8.734   9.497  10.252
17141SOL    HW153320   8.664   9.466  10.310
17141SOL    HW253321   8.784   9.558  10.306
17142SOL     OW53322   1.060   4.552   9.136
17142SOL    HW153323   1.076   4.470   9.185
17142SOL    HW253324   0.985   4.591   9.180
17143SOL     OW53325  10.439   2.822   6.526
17143SOL    HW153326  10.366   2.817   6.464
17143SOL    HW253327  10.398   2.823   6.612
17144SOL     OW53328  10.907  13.883   5.950
17144SOL    HW153329  10.932  13.930   5.870
17144SOL    HW253330  10.824  13.840   5.928
17145SOL     OW53331  14.392   8.001  14.335
17145SOL    HW153332  14.479   8.013  14.298
17145SOL    HW253333  14.369   8.086  14.372
17146SOL     OW53334   2.329   9.927  11.204
17146SOL    HW153335   2.369   9.840  11.200
17146SOL    HW253336   2.324   9.956  11.113
17147SOL     OW53337   7.980  14.543  12.109
17147SOL    HW153338   7.904  14.585  12.068
17147SOL    HW253339   7.997  14.594  12.187
17148SOL     OW53340  12.384   7.767   5.596
17148SOL    HW153341  12.377   7.750   5.689
17148SOL    HW253342  12.477   7.759   5.576
17149SOL     OW53343  10.537   1.722  10.778
17149SOL    HW153344  10.512   1.717  10.685
17149SOL    HW253345  10.480   1.790  10.814
17150SOL     OW53346  11.551  10.613  11.778
17150SOL    HW153347  11.539  10.518  11.769
17150SOL    HW253348  11.643  10.623  11.800
17151SOL     OW53349  12.506   0.849   7.748
17151SOL    HW153350  12.534   0.845   7.839
17151SOL    HW253351  12.463   0.934   7.740
17152SOL     OW53352   2.120   1.953   5.921
17152SOL    HW153353   2.039   1.965   5.871
17152SOL    HW253354   2.104   1.996   6.005
17153SOL     OW53355  10.680  13.789   5.794
17153SOL    HW153356  10.690  13.764   5.702
17153SOL    HW253357  10.605  13.739   5.825
17154SOL     OW53358   2.956   9.402  13.301
17154SOL    HW153359   2.987   9.493  13.298
17154SOL    HW253360   2.867   9.408  13.336
17155SOL     OW53361  10.451  12.550   5.853
17155SOL    HW153362  10.450  12.528   5.946
17155SOL    HW253363  10.536  12.520   5.822
17156SOL     OW53364  12.771   8.799   2.204
17156SOL    HW153365  12.719   8.798   2.124
17156SOL    HW253366  12.855   8.837   2.178
17157SOL     OW53367   9.147  11.775  13.552
17157SOL    HW153368   9.184  11.775  13.463
17157SOL    HW253369   9.209  11.723  13.603
17158SOL     OW53370   9.864   5.810   6.621
17158SOL    HW153371   9.769   5.813   6.614
17158SOL    HW253372   9.896   5.852   6.541
17159SOL     OW53373   3.488  10.139  13.196
17159SOL    HW153374   3.564  10.084  13.181
17159SOL    HW253375   3.506  10.183  13.279
17160SOL     OW53376   5.707  13.846  11.926
17160SOL    HW153377   5.677  13.758  11.902
17160SOL    HW253378   5.637  13.881  11.982
17161SOL     OW53379  13.032  11.770   0.800
17161SOL    HW153380  13.090  11.761   0.876
17161SOL    HW253381  12.966  11.702   0.811
17162SOL     OW53382  10.214   8.133   3.955
17162SOL    HW153383  10.170   8.173   4.030
17162SOL    HW253384  10.305   8.161   3.964
17163SOL     OW53385  10.632   5.601   0.737
17163SOL    HW153386  10.627   5.692   0.708
17163SOL    HW253387  10.725   5.586   0.756
17164SOL     OW53388  13.669   7.110   8.655
17164SOL    HW153389  13.689   7.033   8.708
17164SOL    HW253390  13.618   7.076   8.582
17165SOL     OW53391   2.578  10.900   6.097
17165SOL    HW153392   2.515  10.961   6.060
17165SOL    HW253393   2.611  10.851   6.022
17166SOL     OW53394  13.392   6.228  11.195
17166SOL    HW153395  13.361   6.306  11.240
17166SOL    HW253396  13.312   6.179  11.172
17167SOL     OW53397  12.065   8.308  10.500
17167SOL    HW153398  11.980   8.291  10.540
17167SOL    HW253399  12.106   8.222  10.493
17168SOL     OW53400   2.721   9.024  14.187
17168SOL    HW153401   2.707   9.038  14.280
17168SOL    HW253402   2.635   9.038  14.147
17169SOL     OW53403  10.203   0.839   5.265
17169SOL    HW153404  10.167   0.836   5.176
17169SOL    HW253405  10.208   0.933   5.285
17170SOL     OW53406  13.220   5.231   4.301
17170SOL    HW153407  13.187   5.162   4.243
17170SOL    HW253408  13.157   5.233   4.373
17171SOL     OW53409   5.438   8.359   5.523
17171SOL    HW153410   5.455   8.265   5.520
17171SOL    HW253411   5.516   8.395   5.565
17172SOL     OW53412  10.651   3.549   4.180
17172SOL    HW153413  10.745   3.565   4.170
17172SOL    HW253414  10.616   3.554   4.091
17173SOL     OW53415   2.399   8.161   8.777
17173SOL    HW153416   2.486   8.190   8.750
17173SOL    HW253417   2.346   8.241   8.777
17174SOL     OW53418  10.663   8.075   6.995
17174SOL    HW153419  10.622   8.012   7.055
17174SOL    HW253420  10.692   8.147   7.052
17175SOL     OW53421   6.160   5.588  14.074
17175SOL    HW153422   6.168   5.653  14.005
17175SOL    HW253423   6.110   5.516  14.034
17176SOL     OW53424   3.446   3.223  11.507
17176SOL    HW153425   3.399   3.282  11.566
17176SOL    HW253426   3.500   3.280  11.453
17177SOL     OW53427   5.481  11.157   1.214
17177SOL    HW153428   5.525  11.190   1.292
17177SOL    HW253429   5.437  11.233   1.177
17178SOL     OW53430   7.815   7.464   6.666
17178SOL    HW153431   7.818   7.368   6.664
17178SOL    HW253432   7.885   7.491   6.608
17179SOL     OW53433  12.122  10.636   7.689
17179SOL    HW153434  12.164  10.717   7.662
17179SOL    HW253435  12.192  10.584   7.728
17180SOL     OW53436   3.084   1.568   0.721
17180SOL    HW153437   3.069   1.662   0.717
17180SOL    HW253438   3.010   1.530   0.673
17181SOL     OW53439   4.046   2.862   2.437
17181SOL    HW153440   4.116   2.873   2.373
17181SOL    HW253441   4.036   2.768   2.447
17182SOL     OW53442   4.603   8.998   3.002
17182SOL    HW153443   4.580   8.907   3.020
17182SOL    HW253444   4.520   9.046   3.010
17183SOL     OW53445  13.893   6.789   7.842
17183SOL    HW153446  13.903   6.754   7.754
17183SOL    HW253447  13.865   6.715   7.895
17184SOL     OW53448   0.509  11.811  10.560
17184SOL    HW153449   0.447  11.788  10.490
17184SOL    HW253450   0.564  11.879  10.521
17185SOL     OW53451   6.062   0.647  14.325
17185SOL    HW153452   6.129   0.658  14.257
17185SOL    HW253453   5.984   0.689  14.288
17186SOL     OW53454  13.013  12.471   3.997
17186SOL    HW153455  13.055  12.525   3.930
17186SOL    HW253456  13.046  12.383   3.981
17187SOL     OW53457   8.118   9.307   2.626
17187SOL    HW153458   8.196   9.257   2.651
17187SOL    HW253459   8.109   9.373   2.695
17188SOL     OW53460  13.636   7.959   6.624
17188SOL    HW153461  13.551   7.933   6.661
17188SOL    HW253462  13.698   7.947   6.696
17189SOL     OW53463  13.441  10.757  11.091
17189SOL    HW153464  13.451  10.846  11.124
17189SOL    HW253465  13.348  10.737  11.102
17190SOL     OW53466   1.011   4.717   4.221
17190SOL    HW153467   1.058   4.795   4.192
17190SOL    HW253468   1.012   4.722   4.317
17191SOL     OW53469   3.405   4.926   6.316
17191SOL    HW153470   3.349   5.000   6.342
17191SOL    HW253471   3.492   4.964   6.308
17192SOL     OW53472   6.003  10.157   9.194
17192SOL    HW153473   6.066  10.086   9.211
17192SOL    HW253474   5.927  10.135   9.247
17193SOL     OW53475  13.966   2.369   9.612
17193SOL    HW153476  13.938   2.461   9.608
17193SOL    HW253477  13.895   2.321   9.569
17194SOL     OW53478   9.583   3.763   2.793
17194SOL    HW153479   9.638   3.722   2.859
17194SOL    HW253480   9.602   3.857   2.800
17195SOL     OW53481   8.754   5.163  10.128
17195SOL    HW153482   8.778   5.243  10.176
17195SOL    HW253483   8.834   5.112  10.125
17196SOL     OW53484   0.833   1.674   0.846
17196SOL    HW153485   0.921   1.640   0.831
17196SOL    HW253486   0.803   1.703   0.760
17197SOL     OW53487  13.186   7.151  10.098
17197SOL    HW153488  13.277   7.165  10.125
17197SOL    HW253489  13.172   7.218  10.031
17198SOL     OW53490   6.982   2.244   7.412
17198SOL    HW153491   6.917   2.312   7.396
17198SOL    HW253492   7.067   2.287   7.396
17199SOL     OW53493   2.553  12.362  11.149
17199SOL    HW153494   2.502  12.281  11.145
17199SOL    HW253495   2.492  12.427  11.185
17200SOL     OW53496   6.581   8.454   0.786
17200SOL    HW153497   6.487   8.456   0.802
17200SOL    HW253498   6.588   8.437   0.692
17201SOL     OW53499  13.562  11.728   2.223
17201SOL    HW153500  13.583  11.786   2.150
17201SOL    HW253501  13.474  11.696   2.203
17202SOL     OW53502   9.789  13.075  13.434
17202SOL    HW153503   9.709  13.050  13.387
17202SOL    HW253504   9.858  13.026  13.389
17203SOL     OW53505  11.895   8.730   0.555
17203SOL    HW153506  11.823   8.723   0.618
17203SOL    HW253507  11.972   8.751   0.607
17204SOL     OW53508   7.186   1.130  12.155
17204SOL    HW153509   7.144   1.124  12.241
17204SOL    HW253510   7.119   1.099  12.094
17205SOL     OW53511   4.348  11.449   3.095
17205SOL    HW153512   4.331  11.517   3.161
17205SOL    HW253513   4.385  11.376   3.144
17206SOL     OW53514   4.767   2.743   9.448
17206SOL    HW153515   4.726   2.728   9.362
17206SOL    HW253516   4.856   2.709   9.438
17207SOL     OW53517  10.143   4.297   4.556
17207SOL    HW153518  10.192   4.372   4.588
17207SOL    HW253519  10.078   4.280   4.625
17208SOL     OW53520   2.677   6.757   0.724
17208SOL    HW153521   2.741   6.767   0.794
17208SOL    HW253522   2.715   6.804   0.650
17209SOL     OW53523  14.511   5.659   7.829
17209SOL    HW153524  14.500   5.618   7.744
17209SOL    HW253525  14.579   5.725   7.815
17210SOL     OW53526   1.890   2.331  11.105
17210SOL    HW153527   1.879   2.426  11.095
17210SOL    HW253528   1.939   2.321  11.186
17211SOL     OW53529   7.440  10.344  10.765
17211SOL    HW153530   7.362  10.376  10.719
17211SOL    HW253531   7.409  10.268  10.815
17212SOL     OW53532   3.187   4.752   3.012
17212SOL    HW153533   3.206   4.792   3.097
17212SOL    HW253534   3.100   4.714   3.022
17213SOL     OW53535   3.773   0.404   1.297
17213SOL    HW153536   3.710   0.473   1.278
17213SOL    HW253537   3.823   0.437   1.372
17214SOL     OW53538   5.622  13.109   1.784
17214SOL    HW153539   5.712  13.076   1.786
17214SOL    HW253540   5.574  13.051   1.843
17215SOL     OW53541   1.819  10.962   1.604
17215SOL    HW153542   1.867  10.907   1.541
17215SOL    HW253543   1.879  11.034   1.623
17216SOL     OW53544   6.968   9.225   1.306
17216SOL    HW153545   7.054   9.209   1.267
17216SOL    HW253546   6.911   9.159   1.265
17217SOL     OW53547   1.771  12.498   3.701
17217SOL    HW153548   1.821  12.489   3.620
17217SOL    HW253549   1.751  12.591   3.706
17218SOL     OW53550   4.966  12.087   0.593
17218SOL    HW153551   5.036  12.147   0.618
17218SOL    HW253552   4.889  12.119   0.639
17219SOL     OW53553  14.538  14.702   8.248
17219SOL    HW153554  14.472  14.662   8.304
17219SOL    HW253555  14.614  14.714   8.305
17220SOL     OW53556   4.955   2.348   5.687
17220SOL    HW153557   4.991   2.343   5.598
17220SOL    HW253558   5.027   2.382   5.740
17221SOL     OW53559  11.932  13.298   5.535
17221SOL    HW153560  11.955  13.338   5.619
17221SOL    HW253561  11.878  13.223   5.559
17222SOL     OW53562  11.767   9.318   1.824
17222SOL    HW153563  11.777   9.290   1.916
17222SOL    HW253564  11.686   9.277   1.795
17223SOL     OW53565   8.233   8.972  14.520
17223SOL    HW153566   8.232   9.031  14.444
17223SOL    HW253567   8.288   8.899  14.493
17224SOL     OW53568   2.232   9.489   4.309
17224SOL    HW153569   2.195   9.406   4.281
17224SOL    HW253570   2.323   9.487   4.279
17225SOL     OW53571   2.804   8.929  10.427
17225SOL    HW153572   2.877   8.868  10.416
17225SOL    HW253573   2.825   8.978  10.506
17226SOL     OW53574  11.426   7.148  13.970
17226SOL    HW153575  11.379   7.229  13.952
17226SOL    HW253576  11.433   7.146  14.066
17227SOL     OW53577   4.353  13.445   4.028
17227SOL    HW153578   4.339  13.432   4.122
17227SOL    HW253579   4.386  13.361   3.997
17228SOL     OW53580  12.825   5.050   4.619
17228SOL    HW153581  12.873   5.031   4.700
17228SOL    HW253582  12.738   5.078   4.649
17229SOL     OW53583   5.645   9.187  14.052
17229SOL    HW153584   5.589   9.183  13.975
17229SOL    HW253585   5.620   9.268  14.096
17230SOL     OW53586   7.402   1.330   0.691
17230SOL    HW153587   7.374   1.288   0.772
17230SOL    HW253588   7.348   1.290   0.623
17231SOL     OW53589   5.309   4.443   6.501
17231SOL    HW153590   5.364   4.458   6.578
17231SOL    HW253591   5.309   4.348   6.490
17232SOL     OW53592   0.760   4.334  14.232
17232SOL    HW153593   0.738   4.378  14.151
17232SOL    HW253594   0.833   4.277  14.210
17233SOL     OW53595   3.563   6.879   3.735
17233SOL    HW153596   3.618   6.813   3.776
17233SOL    HW253597   3.544   6.942   3.806
17234SOL     OW53598   4.010   5.525   7.544
17234SOL    HW153599   4.041   5.482   7.623
17234SOL    HW253600   4.086   5.525   7.485
17235SOL     OW53601   5.325  13.984   1.638
17235SOL    HW153602   5.270  13.918   1.678
17235SOL    HW253603   5.411  13.972   1.679
17236SOL     OW53604  14.231  12.112   9.550
17236SOL    HW153605  14.315  12.157   9.558
17236SOL    HW253606  14.181  12.140   9.627
17237SOL     OW53607   3.335   9.666  12.336
17237SOL    HW153608   3.262   9.654  12.274
17237SOL    HW253609   3.352   9.760  12.335
17238SOL     OW53610   1.243  14.756   7.469
17238SOL    HW153611   1.216  14.847   7.477
17238SOL    HW253612   1.241  14.722   7.558
17239SOL     OW53613   8.299   5.854   5.735
17239SOL    HW153614   8.345   5.778   5.772
17239SOL    HW253615   8.273   5.905   5.812
17240SOL     OW53616   5.145   9.411  10.881
17240SOL    HW153617   5.051   9.392  10.879
17240SOL    HW253618   5.182   9.361  10.809
17241SOL     OW53619  13.506   3.145  14.266
17241SOL    HW153620  13.566   3.071  14.257
17241SOL    HW253621  13.419   3.105  14.265
17242SOL     OW53622   5.223  11.201  12.011
17242SOL    HW153623   5.318  11.187  12.008
17242SOL    HW253624   5.187  11.115  12.034
17243SOL     OW53625   4.282   5.448   8.813
17243SOL    HW153626   4.304   5.539   8.836
17243SOL    HW253627   4.302   5.442   8.719
17244SOL     OW53628   1.995  12.726   6.435
17244SOL    HW153629   2.073  12.706   6.383
17244SOL    HW253630   1.924  12.681   6.391
17245SOL     OW53631  13.428  12.691   2.891
17245SOL    HW153632  13.481  12.743   2.950
17245SOL    HW253633  13.486  12.672   2.817
17246SOL     OW53634  12.217  12.684  12.714
17246SOL    HW153635  12.285  12.683  12.646
17246SOL    HW253636  12.244  12.754  12.774
17247SOL     OW53637   4.445   5.869   0.645
17247SOL    HW153638   4.380   5.860   0.575
17247SOL    HW253639   4.520   5.817   0.615
17248SOL     OW53640   7.840  14.340   1.756
17248SOL    HW153641   7.806  14.276   1.694
17248SOL    HW253642   7.766  14.360   1.814
17249SOL     OW53643   2.439   4.365  11.880
17249SOL    HW153644   2.353   4.403  11.863
17249SOL    HW253645   2.487   4.376  11.798
17250SOL     OW53646  10.137   9.139   8.752
17250SOL    HW153647  10.191   9.216   8.766
17250SOL    HW253648  10.187   9.067   8.789
17251SOL     OW53649   8.041  10.449   7.992
17251SOL    HW153650   8.008  10.443   7.902
17251SOL    HW253651   8.061  10.542   8.004
17252SOL     OW53652   1.178   7.600   2.674
17252SOL    HW153653   1.085   7.579   2.665
17252SOL    HW253654   1.220   7.550   2.604
17253SOL     OW53655   9.284   1.218   0.228
17253SOL    HW153656   9.210   1.247   0.282
17253SOL    HW253657   9.358   1.213   0.288
17254SOL     OW53658   1.505   3.130  13.215
17254SOL    HW153659   1.524   3.057  13.275
17254SOL    HW253660   1.563   3.201  13.244
17255SOL     OW53661  10.407   8.873   4.251
17255SOL    HW153662  10.379   8.834   4.168
17255SOL    HW253663  10.497   8.900   4.235
17256SOL     OW53664   5.389  12.729  14.218
17256SOL    HW153665   5.407  12.647  14.172
17256SOL    HW253666   5.444  12.725  14.296
17257SOL     OW53667  13.319  13.535   0.477
17257SOL    HW153668  13.242  13.553   0.424
17257SOL    HW253669  13.340  13.444   0.459
17258SOL     OW53670  13.107   6.748  13.038
17258SOL    HW153671  13.159   6.828  13.042
17258SOL    HW253672  13.114   6.718  12.947
17259SOL     OW53673   1.443  10.581   9.455
17259SOL    HW153674   1.528  10.620   9.473
17259SOL    HW253675   1.438  10.507   9.516
17260SOL     OW53676   8.514   1.067   9.623
17260SOL    HW153677   8.551   1.143   9.668
17260SOL    HW253678   8.590   1.013   9.600
17261SOL     OW53679  11.503  11.016   4.310
17261SOL    HW153680  11.512  10.950   4.242
17261SOL    HW253681  11.592  11.045   4.327
17262SOL     OW53682  12.914   9.737   4.441
17262SOL    HW153683  12.868   9.774   4.517
17262SOL    HW253684  12.975   9.805   4.415
17263SOL     OW53685   9.335   9.181  12.380
17263SOL    HW153686   9.270   9.119  12.414
17263SOL    HW253687   9.294   9.216  12.301
17264SOL     OW53688   9.650  12.591  11.882
17264SOL    HW153689   9.706  12.628  11.815
17264SOL    HW253690   9.662  12.496  11.875
17265SOL     OW53691  12.261  14.176   7.628
17265SOL    HW153692  12.257  14.247   7.563
17265SOL    HW253693  12.352  14.145   7.624
17266SOL     OW53694  13.236   9.160  10.409
17266SOL    HW153695  13.330   9.170  10.423
17266SOL    HW253696  13.217   9.070  10.437
17267SOL     OW53697   7.933   4.329   8.270
17267SOL    HW153698   7.843   4.306   8.251
17267SOL    HW253699   7.929   4.418   8.304
17268SOL     OW53700   6.287   5.824   4.847
17268SOL    HW153701   6.201   5.865   4.851
17268SOL    HW253702   6.323   5.834   4.934
17269SOL     OW53703   7.456   6.848   0.916
17269SOL    HW153704   7.375   6.877   0.874
17269SOL    HW253705   7.521   6.915   0.892
17270SOL     OW53706   2.629  11.436   4.324
17270SOL    HW153707   2.633  11.442   4.229
17270SOL    HW253708   2.626  11.527   4.354
17271SOL     OW53709  12.147  10.006  11.568
17271SOL    HW153710  12.073   9.946  11.562
17271SOL    HW253711  12.131  10.071  11.499
17272SOL     OW53712   6.027   5.768  14.547
17272SOL    HW153713   5.931   5.770  14.546
17272SOL    HW253714   6.050   5.680  14.516
17273SOL     OW53715   1.134  11.432   8.839
17273SOL    HW153716   1.227  11.441   8.816
17273SOL    HW253717   1.093  11.395   8.760
17274SOL     OW53718  14.446   7.563   6.821
17274SOL    HW153719  14.503   7.550   6.896
17274SOL    HW253720  14.468   7.650   6.789
17275SOL     OW53721  12.270   3.794   0.291
17275SOL    HW153722  12.258   3.789   0.196
17275SOL    HW253723  12.225   3.874   0.316
17276SOL     OW53724   3.557  11.538   7.027
17276SOL    HW153725   3.523  11.465   7.079
17276SOL    HW253726   3.643  11.556   7.065
17277SOL     OW53727   6.729   0.679   2.096
17277SOL    HW153728   6.820   0.711   2.089
17277SOL    HW253729   6.698   0.714   2.179
17278SOL     OW53730  10.691   9.454  12.228
17278SOL    HW153731  10.613   9.405  12.203
17278SOL    HW253732  10.666   9.546  12.217
17279SOL     OW53733   2.499   3.219   8.426
17279SOL    HW153734   2.407   3.215   8.399
17279SOL    HW253735   2.497   3.262   8.511
17280SOL     OW53736   7.548   8.592   7.824
17280SOL    HW153737   7.476   8.555   7.772
17280SOL    HW253738   7.507   8.658   7.879
17281SOL     OW53739   0.800   7.624  10.129
17281SOL    HW153740   0.794   7.538  10.169
17281SOL    HW253741   0.890   7.652  10.146
17282SOL     OW53742  13.487   5.205   4.377
17282SOL    HW153743  13.397   5.185   4.353
17282SOL    HW253744  13.491   5.188   4.471
17283SOL     OW53745   5.537  11.982  12.668
17283SOL    HW153746   5.481  12.023  12.734
17283SOL    HW253747   5.557  11.896  12.703
17284SOL     OW53748   6.446   3.502   6.948
17284SOL    HW153749   6.484   3.477   6.864
17284SOL    HW253750   6.420   3.593   6.937
17285SOL     OW53751  14.179   3.154   6.420
17285SOL    HW153752  14.120   3.188   6.353
17285SOL    HW253753  14.188   3.225   6.483
17286SOL     OW53754   9.452  13.982  12.958
17286SOL    HW153755   9.493  14.035  13.026
17286SOL    HW253756   9.525  13.937  12.915
17287SOL     OW53757   5.230   6.241   3.905
17287SOL    HW153758   5.165   6.306   3.877
17287SOL    HW253759   5.314   6.286   3.895
17288SOL     OW53760  10.548   0.643  12.490
17288SOL    HW153761  10.607   0.641  12.416
17288SOL    HW253762  10.564   0.728  12.531
17289SOL     OW53763   0.541   8.631  14.839
17289SOL    HW153764   0.583   8.716  14.836
17289SOL    HW253765   0.601   8.572  14.793
17290SOL     OW53766   0.503   5.253   6.746
17290SOL    HW153767   0.475   5.162   6.747
17290SOL    HW253768   0.549   5.264   6.663
17291SOL     OW53769   4.931   0.537  13.424
17291SOL    HW153770   4.878   0.458  13.438
17291SOL    HW253771   4.906   0.596  13.495
17292SOL     OW53772   7.339  13.216   9.479
17292SOL    HW153773   7.382  13.284   9.427
17292SOL    HW253774   7.371  13.231   9.568
17293SOL     OW53775   8.987   6.911   4.067
17293SOL    HW153776   8.998   6.863   3.984
17293SOL    HW253777   8.973   6.842   4.132
17294SOL     OW53778  10.258   6.182   3.851
17294SOL    HW153779  10.245   6.204   3.759
17294SOL    HW253780  10.331   6.237   3.879
17295SOL     OW53781   8.718   4.002   2.394
17295SOL    HW153782   8.718   3.953   2.312
17295SOL    HW253783   8.631   3.985   2.431
17296SOL     OW53784  12.848   9.921   5.076
17296SOL    HW153785  12.795   9.843   5.059
17296SOL    HW253786  12.938   9.894   5.055
17297SOL     OW53787   2.170  11.682   8.759
17297SOL    HW153788   2.152  11.774   8.779
17297SOL    HW253789   2.264  11.680   8.739
17298SOL     OW53790   4.310   8.357   5.383
17298SOL    HW153791   4.225   8.332   5.347
17298SOL    HW253792   4.291   8.383   5.473
17299SOL     OW53793   7.312  11.763   3.279
17299SOL    HW153794   7.278  11.813   3.353
17299SOL    HW253795   7.243  11.700   3.259
17300SOL     OW53796   9.551  14.364   2.801
17300SOL    HW153797   9.461  14.367   2.834
17300SOL    HW253798   9.543  14.330   2.712
17301SOL     OW53799   1.722  12.271   1.548
17301SOL    HW153800   1.634  12.250   1.577
17301SOL    HW253801   1.719  12.365   1.528
17302SOL     OW53802   3.905   2.213  13.347
17302SOL    HW153803   3.868   2.254  13.269
17302SOL    HW253804   3.829   2.180  13.395
17303SOL     OW53805   5.433  12.486  14.088
17303SOL    HW153806   5.401  12.462  14.001
17303SOL    HW253807   5.461  12.403  14.126
17304SOL     OW53808   4.425  12.048   6.543
17304SOL    HW153809   4.487  12.089   6.482
17304SOL    HW253810   4.422  11.956   6.516
17305SOL     OW53811   7.045  14.616  10.854
17305SOL    HW153812   7.075  14.576  10.935
17305SOL    HW253813   6.954  14.641  10.871
17306SOL     OW53814   6.112   7.641  10.767
17306SOL    HW153815   6.062   7.638  10.686
17306SOL    HW253816   6.148   7.553  10.777
17307SOL     OW53817  13.670   2.244   4.671
17307SOL    HW153818  13.759   2.238   4.707
17307SOL    HW253819  13.614   2.213   4.742
17308SOL     OW53820  14.859  10.419   6.597
17308SOL    HW153821   0.011  10.362   6.668
17308SOL    HW253822   0.062  10.456   6.561
17309SOL     OW53823  13.705   7.995  10.493
17309SOL    HW153824  13.616   8.028  10.507
17309SOL    HW253825  13.762   8.066  10.522
17310SOL     OW53826  13.163   6.834   8.010
17310SOL    HW153827  13.206   6.909   8.052
17310SOL    HW253828  13.075   6.834   8.046
17311SOL     OW53829   4.959  11.926   2.285
17311SOL    HW153830   4.953  11.926   2.190
17311SOL    HW253831   4.870  11.944   2.315
17312SOL     OW53832  14.873   7.231  13.002
17312SOL    HW153833  14.786   7.233  12.962
17312SOL    HW253834   0.023   7.323  13.004
17313SOL     OW53835  12.579  10.960   7.157
17313SOL    HW153836  12.591  10.874   7.197
17313SOL    HW253837  12.554  11.017   7.230
17314SOL     OW53838   2.120   3.725   1.003
17314SOL    HW153839   2.035   3.755   0.969
17314SOL    HW253840   2.120   3.753   1.094
17315SOL     OW53841   8.209   8.624   4.684
17315SOL    HW153842   8.207   8.647   4.591
17315SOL    HW253843   8.164   8.539   4.689
17316SOL     OW53844   6.570  11.487  11.223
17316SOL    HW153845   6.653  11.506  11.266
17316SOL    HW253846   6.583  11.518  11.133
17317SOL     OW53847   6.178   6.814   1.751
17317SOL    HW153848   6.226   6.840   1.829
17317SOL    HW253849   6.087   6.809   1.780
17318SOL     OW53850   6.988   8.366   4.071
17318SOL    HW153851   6.918   8.302   4.083
17318SOL    HW253852   7.051   8.322   4.013
17319SOL     OW53853  14.866   6.973   5.760
17319SOL    HW153854  14.832   7.014   5.840
17319SOL    HW253855   0.083   6.992   5.762
17320SOL     OW53856   3.196   7.219   6.749
17320SOL    HW153857   3.171   7.150   6.809
17320SOL    HW253858   3.245   7.174   6.680
17321SOL     OW53859   9.845  11.775  14.606
17321SOL    HW153860   9.764  11.737  14.640
17321SOL    HW253861   9.838  11.868  14.624
17322SOL     OW53862   5.819   9.016   7.726
17322SOL    HW153863   5.843   9.059   7.808
17322SOL    HW253864   5.749   8.955   7.750
17323SOL     OW53865  14.698  12.352   1.666
17323SOL    HW153866  14.611  12.392   1.662
17323SOL    HW253867  14.707  12.305   1.583
17324SOL     OW53868   7.852   1.738   3.260
17324SOL    HW153869   7.788   1.724   3.330
17324SOL    HW253870   7.885   1.826   3.276
17325SOL     OW53871  10.362   7.986   7.192
17325SOL    HW153872  10.416   7.911   7.218
17325SOL    HW253873  10.389   8.056   7.251
17326SOL     OW53874   8.952   3.538   9.367
17326SOL    HW153875   9.022   3.602   9.355
17326SOL    HW253876   8.942   3.531   9.462
17327SOL     OW53877   8.794  12.990  10.159
17327SOL    HW153878   8.875  13.036  10.136
17327SOL    HW253879   8.761  13.039  10.235
17328SOL     OW53880  11.729  11.725   2.322
17328SOL    HW153881  11.650  11.681   2.289
17328SOL    HW253882  11.747  11.792   2.256
17329SOL     OW53883   8.748   9.867   2.519
17329SOL    HW153884   8.778   9.878   2.609
17329SOL    HW253885   8.799   9.932   2.469
17330SOL     OW53886  11.240   7.149   7.122
17330SOL    HW153887  11.243   7.070   7.175
17330SOL    HW253888  11.218   7.219   7.184
17331SOL     OW53889  12.774   9.856   1.630
17331SOL    HW153890  12.792   9.877   1.721
17331SOL    HW253891  12.746   9.939   1.591
17332SOL     OW53892   6.511   0.280   3.790
17332SOL    HW153893   6.453   0.205   3.798
17332SOL    HW253894   6.518   0.315   3.879
17333SOL     OW53895  13.437   5.621   0.090
17333SOL    HW153896  13.530   5.612   0.110
17333SOL    HW253897  13.436   5.666   0.006
17334SOL     OW53898   9.441   2.797  12.292
17334SOL    HW153899   9.534   2.789  12.274
17334SOL    HW253900   9.404   2.833  12.211
17335SOL     OW53901  14.687   2.483  10.497
17335SOL    HW153902  14.647   2.566  10.473
17335SOL    HW253903  14.739   2.459  10.420
17336SOL     OW53904  13.605   6.014  13.323
17336SOL    HW153905  13.534   6.079  13.330
17336SOL    HW253906  13.622   5.988  13.413
17337SOL     OW53907   1.179   5.780   0.303
17337SOL    HW153908   1.207   5.870   0.325
17337SOL    HW253909   1.137   5.788   0.217
17338SOL     OW53910   6.688   4.256   7.986
17338SOL    HW153911   6.637   4.175   7.994
17338SOL    HW253912   6.647   4.317   8.047
17339SOL     OW53913   9.954   8.684   7.160
17339SOL    HW153914   9.907   8.633   7.226
17339SOL    HW253915   9.886   8.709   7.097
17340SOL     OW53916   3.098   1.114   7.460
17340SOL    HW153917   3.144   1.047   7.410
17340SOL    HW253918   3.153   1.126   7.538
17341SOL     OW53919   0.371  14.841  12.811
17341SOL    HW153920   0.316  14.763  12.825
17341SOL    HW253921   0.328   0.010  12.740
17342SOL     OW53922   8.322   0.719   1.742
17342SOL    HW153923   8.321   0.799   1.690
17342SOL    HW253924   8.268   0.738   1.818
17343SOL     OW53925   2.695   5.615  13.448
17343SOL    HW153926   2.745   5.649  13.523
17343SOL    HW253927   2.762   5.593  13.383
17344SOL     OW53928  14.494   9.018   0.715
17344SOL    HW153929  14.403   8.999   0.736
17344SOL    HW253930  14.542   8.996   0.795
17345SOL     OW53931  14.627  12.471  10.637
17345SOL    HW153932  14.702  12.529  10.623
17345SOL    HW253933  14.576  12.477  10.556
17346SOL     OW53934  11.765   0.032   4.350
17346SOL    HW153935  11.714   0.023   4.270
17346SOL    HW253936  11.856   0.021   4.321
17347SOL     OW53937  13.102   3.239  13.898
17347SOL    HW153938  13.089   3.144  13.903
17347SOL    HW253939  13.175   3.257  13.958
17348SOL     OW53940   0.964  12.418   5.795
17348SOL    HW153941   0.895  12.435   5.859
17348SOL    HW253942   0.937  12.467   5.717
17349SOL     OW53943  14.788  13.237   6.515
17349SOL    HW153944  14.736  13.204   6.588
17349SOL    HW253945  14.735  13.218   6.438
17350SOL     OW53946   9.255   3.149   0.998
17350SOL    HW153947   9.235   3.214   1.065
17350SOL    HW253948   9.206   3.178   0.921
17351SOL     OW53949   5.851   9.531   9.851
17351SOL    HW153950   5.815   9.619   9.847
17351SOL    HW253951   5.810   9.484   9.779
17352SOL     OW53952  13.533   0.337   5.108
17352SOL    HW153953  13.571   0.423   5.091
17352SOL    HW253954  13.595   0.295   5.169
17353SOL     OW53955   9.403   0.432   2.437
17353SOL    HW153956   9.328   0.375   2.423
17353SOL    HW253957   9.421   0.469   2.351
17354SOL     OW53958  10.541   6.778  11.996
17354SOL    HW153959  10.450   6.805  11.999
17354SOL    HW253960  10.585   6.833  12.061
17355SOL     OW53961   1.818  11.301  13.819
17355SOL    HW153962   1.765  11.381  13.807
17355SOL    HW253963   1.757  11.230  13.799
17356SOL     OW53964   3.387  11.063   2.323
17356SOL    HW153965   3.434  11.005   2.263
17356SOL    HW253966   3.401  11.024   2.409
17357SOL     OW53967   8.469   3.726  10.256
17357SOL    HW153968   8.418   3.653  10.223
17357SOL    HW253969   8.555   3.716  10.214
17358SOL     OW53970  10.157   7.762   8.312
17358SOL    HW153971  10.136   7.669   8.316
17358SOL    HW253972  10.098   7.803   8.375
17359SOL     OW53973   7.680   5.592   4.835
17359SOL    HW153974   7.614   5.616   4.900
17359SOL    HW253975   7.698   5.500   4.853
17360SOL     OW53976   3.236  14.607   0.385
17360SOL    HW153977   3.215  14.691   0.426
17360SOL    HW253978   3.330  14.596   0.398
17361SOL     OW53979  14.521   0.991  11.987
17361SOL    HW153980  14.460   0.944  11.930
17361SOL    HW253981  14.485   0.981  12.075
17362SOL     OW53982   4.547   9.020  10.688
17362SOL    HW153983   4.627   9.045  10.642
17362SOL    HW253984   4.545   9.075  10.766
17363SOL     OW53985   3.829   6.412   8.100
17363SOL    HW153986   3.776   6.356   8.158
17363SOL    HW253987   3.908   6.431   8.151
17364SOL     OW53988  12.800   4.713   2.960
17364SOL    HW153989  12.777   4.801   2.991
17364SOL    HW253990  12.799   4.659   3.039
17365SOL     OW53991  11.220   5.978   9.831
17365SOL    HW153992  11.267   5.909   9.878
17365SOL    HW253993  11.248   5.969   9.740
17366SOL     OW53994   6.592   6.185   2.961
17366SOL    HW153995   6.635   6.109   2.998
17366SOL    HW253996   6.639   6.260   2.997
17367SOL     OW53997   3.942   3.604   9.287
17367SOL    HW153998   3.874   3.539   9.270
17367SOL    HW253999   3.960   3.596   9.381
17368SOL     OW54000  10.834  12.646   3.913
17368SOL    HW154001  10.820  12.741   3.909
17368SOL    HW254002  10.814  12.615   3.825
17369SOL     OW54003   8.684  14.658   5.206
17369SOL    HW154004   8.713  14.714   5.134
17369SOL    HW254005   8.733  14.689   5.282
17370SOL     OW54006  14.518   7.573  13.027
17370SOL    HW154007  14.429   7.607  13.010
17370SOL    HW254008  14.559   7.571  12.941
17371SOL     OW54009  13.376   8.293   7.175
17371SOL    HW154010  13.386   8.238   7.098
17371SOL    HW254011  13.361   8.232   7.247
17372SOL     OW54012  11.943  12.468   8.632
17372SOL    HW154013  11.976  12.452   8.543
17372SOL    HW254014  11.860  12.515   8.618
17373SOL     OW54015   4.192   4.998   0.633
17373SOL    HW154016   4.258   4.945   0.677
17373SOL    HW254017   4.110   4.976   0.677
17374SOL     OW54018   9.024  10.818   1.865
17374SOL    HW154019   9.046  10.907   1.837
17374SOL    HW254020   8.929  10.820   1.879
17375SOL     OW54021   3.113   8.543  10.007
17375SOL    HW154022   3.182   8.530   9.942
17375SOL    HW254023   3.042   8.584   9.958
17376SOL     OW54024   5.161   7.560   7.621
17376SOL    HW154025   5.198   7.641   7.588
17376SOL    HW254026   5.236   7.508   7.648
17377SOL     OW54027   9.583   5.725   4.250
17377SOL    HW154028   9.536   5.650   4.287
17377SOL    HW254029   9.605   5.779   4.326
17378SOL     OW54030   3.911  12.829   9.161
17378SOL    HW154031   3.998  12.870   9.166
17378SOL    HW254032   3.850  12.903   9.163
17379SOL     OW54033   9.369   1.636   1.702
17379SOL    HW154034   9.338   1.719   1.737
17379SOL    HW254035   9.463   1.636   1.719
17380SOL     OW54036   4.949   5.593   7.813
17380SOL    HW154037   4.939   5.573   7.720
17380SOL    HW254038   4.965   5.508   7.854
17381SOL     OW54039   1.188   5.182   6.323
17381SOL    HW154040   1.234   5.219   6.248
17381SOL    HW254041   1.185   5.253   6.387
17382SOL     OW54042  10.123   1.815   9.082
17382SOL    HW154043  10.049   1.803   9.022
17382SOL    HW254044  10.097   1.889   9.137
17383SOL     OW54045  11.662  13.388   1.725
17383SOL    HW154046  11.660  13.311   1.782
17383SOL    HW254047  11.751  13.388   1.688
17384SOL     OW54048   6.608   7.359   4.183
17384SOL    HW154049   6.576   7.410   4.258
17384SOL    HW254050   6.693   7.397   4.162
17385SOL     OW54051   5.971  11.883   6.326
17385SOL    HW154052   5.972  11.788   6.325
17385SOL    HW254053   5.881  11.907   6.307
17386SOL     OW54054  12.561   2.589   0.829
17386SOL    HW154055  12.467   2.584   0.813
17386SOL    HW254056  12.598   2.622   0.747
17387SOL     OW54057   5.883   6.865  14.480
17387SOL    HW154058   5.948   6.894  14.416
17387SOL    HW254059   5.825   6.807  14.430
17388SOL     OW54060   7.771  11.142   3.555
17388SOL    HW154061   7.711  11.194   3.609
17388SOL    HW254062   7.721  11.123   3.476
17389SOL     OW54063  12.594  12.952   3.379
17389SOL    HW154064  12.645  12.985   3.453
17389SOL    HW254065  12.652  12.963   3.303
17390SOL     OW54066  12.088  10.058  10.751
17390SOL    HW154067  12.155  10.039  10.817
17390SOL    HW254068  12.056  10.146  10.774
17391SOL     OW54069   7.244   0.402   3.515
17391SOL    HW154070   7.210   0.405   3.426
17391SOL    HW254071   7.181   0.452   3.567
17392SOL     OW54072   1.559   4.253   5.193
17392SOL    HW154073   1.584   4.346   5.200
17392SOL    HW254074   1.591   4.214   5.274
17393SOL     OW54075  12.518   2.489   5.117
17393SOL    HW154076  12.476   2.568   5.151
17393SOL    HW254077  12.527   2.431   5.193
17394SOL     OW54078   3.657   0.127  11.879
17394SOL    HW154079   3.708   0.065  11.827
17394SOL    HW254080   3.688   0.213  11.851
17395SOL     OW54081   1.598  12.406   8.789
17395SOL    HW154082   1.556  12.368   8.867
17395SOL    HW254083   1.553  12.365   8.715
17396SOL     OW54084   1.434   3.822   8.689
17396SOL    HW154085   1.405   3.750   8.633
17396SOL    HW254086   1.418   3.790   8.778
17397SOL     OW54087   2.186  11.698   9.489
17397SOL    HW154088   2.158  11.657   9.407
17397SOL    HW254089   2.218  11.625   9.543
17398SOL     OW54090  10.114   8.714  12.322
17398SOL    HW154091  10.046   8.765  12.278
17398SOL    HW254092  10.072   8.631  12.343
17399SOL     OW54093  13.137   7.086   3.343
17399SOL    HW154094  13.225   7.116   3.365
17399SOL    HW254095  13.101   7.053   3.425
17400SOL     OW54096   6.878   1.380   1.551
17400SOL    HW154097   6.866   1.305   1.609
17400SOL    HW254098   6.831   1.452   1.595
17401SOL     OW54099  14.053   2.806   1.201
17401SOL    HW154100  14.107   2.728   1.184
17401SOL    HW254101  14.026   2.835   1.114
17402SOL     OW54102   1.316  10.705  10.023
17402SOL    HW154103   1.340  10.667  10.107
17402SOL    HW254104   1.288  10.630   9.970
17403SOL     OW54105  13.263   7.641  13.686
17403SOL    HW154106  13.277   7.552  13.653
17403SOL    HW254107  13.238   7.691  13.609
17404SOL     OW54108   4.668   1.203   1.886
17404SOL    HW154109   4.668   1.298   1.876
17404SOL    HW254110   4.745   1.174   1.838
17405SOL     OW54111  10.516   0.680   1.915
17405SOL    HW154112  10.496   0.764   1.875
17405SOL    HW254113  10.499   0.693   2.009
17406SOL     OW54114   3.352   7.823   7.342
17406SOL    HW154115   3.325   7.763   7.411
17406SOL    HW254116   3.275   7.877   7.325
17407SOL     OW54117   3.285   3.912  11.824
17407SOL    HW154118   3.363   3.930  11.877
17407SOL    HW254119   3.233   3.851  11.878
17408SOL     OW54120  13.189  10.246   0.660
17408SOL    HW154121  13.115  10.199   0.699
17408SOL    HW254122  13.188  10.331   0.702
17409SOL     OW54123   3.695   2.724  12.376
17409SOL    HW154124   3.768   2.686  12.327
17409SOL    HW254125   3.646   2.648  12.407
17410SOL     OW54126  12.314   5.758  10.243
17410SOL    HW154127  12.343   5.842  10.206
17410SOL    HW254128  12.220   5.770  10.258
17411SOL     OW54129   6.310   6.175   0.606
17411SOL    HW154130   6.379   6.235   0.634
17411SOL    HW254131   6.230   6.213   0.644
17412SOL     OW54132   6.936  13.763   9.280
17412SOL    HW154133   6.856  13.732   9.322
17412SOL    HW254134   7.005  13.745   9.344
17413SOL     OW54135   9.400  13.055   9.818
17413SOL    HW154136   9.350  13.082   9.894
17413SOL    HW254137   9.489  13.041   9.852
17414SOL     OW54138   5.686   6.626   2.961
17414SOL    HW154139   5.701   6.689   3.032
17414SOL    HW254140   5.744   6.655   2.891
17415SOL     OW54141  14.495  14.435   3.185
17415SOL    HW154142  14.420  14.376   3.180
17415SOL    HW254143  14.473  14.496   3.256
17416SOL     OW54144   7.010   7.787   9.295
17416SOL    HW154145   6.978   7.860   9.241
17416SOL    HW254146   6.962   7.796   9.377
17417SOL     OW54147   0.033   9.429  12.458
17417SOL    HW154148   0.009   9.469  12.542
17417SOL    HW254149  14.830   9.386  12.428
17418SOL     OW54150  10.578   8.236   3.816
17418SOL    HW154151  10.539   8.299   3.876
17418SOL    HW254152  10.618   8.289   3.748
17419SOL     OW54153  12.101   6.185   9.985
17419SOL    HW154154  12.129   6.262   9.935
17419SOL    HW254155  12.012   6.168   9.955
17420SOL     OW54156  13.435   7.019   0.394
17420SOL    HW154157  13.377   7.032   0.469
17420SOL    HW254158  13.417   6.929   0.366
17421SOL     OW54159  11.573   5.369   9.659
17421SOL    HW154160  11.540   5.305   9.595
17421SOL    HW254161  11.652   5.329   9.694
17422SOL     OW54162   7.197   0.383   9.692
17422SOL    HW154163   7.277   0.336   9.717
17422SOL    HW254164   7.204   0.393   9.597
17423SOL     OW54165   4.858   1.245   0.708
17423SOL    HW154166   4.853   1.341   0.712
17423SOL    HW254167   4.920   1.222   0.777
17424SOL     OW54168  11.980   6.442   0.537
17424SOL    HW154169  11.945   6.517   0.488
17424SOL    HW254170  12.045   6.480   0.597
17425SOL     OW54171  14.089   4.403  14.374
17425SOL    HW154172  14.037   4.352  14.436
17425SOL    HW254173  14.081   4.493  14.406
17426SOL     OW54174  11.461   0.709   1.805
17426SOL    HW154175  11.523   0.654   1.756
17426SOL    HW254176  11.491   0.704   1.896
17427SOL     OW54177   4.651   7.454   8.781
17427SOL    HW154178   4.697   7.455   8.697
17427SOL    HW254179   4.558   7.452   8.757
17428SOL     OW54180   1.689   0.025  11.271
17428SOL    HW154181   1.700  14.839  11.342
17428SOL    HW254182   1.644  14.855  11.202
17429SOL     OW54183   3.060  14.136   1.429
17429SOL    HW154184   3.028  14.118   1.340
17429SOL    HW254185   3.099  14.054   1.458
17430SOL     OW54186  10.752   8.612  14.322
17430SOL    HW154187  10.807   8.669  14.268
17430SOL    HW254188  10.788   8.619  14.410
17431SOL     OW54189   8.020   5.388  11.480
17431SOL    HW154190   7.928   5.414  11.485
17431SOL    HW254191   8.063   5.460  11.433
17432SOL     OW54192   7.123  12.542   7.524
17432SOL    HW154193   7.079  12.474   7.472
17432SOL    HW254194   7.198  12.568   7.471
17433SOL     OW54195   5.368  11.749   9.972
17433SOL    HW154196   5.426  11.680  10.004
17433SOL    HW254197   5.301  11.703   9.922
17434SOL     OW54198  11.260   8.254   7.354
17434SOL    HW154199  11.183   8.269   7.408
17434SOL    HW254200  11.332   8.294   7.403
17435SOL     OW54201   0.567   0.571   2.275
17435SOL    HW154202   0.611   0.637   2.222
17435SOL    HW254203   0.477   0.604   2.284
17436SOL     OW54204  10.493   2.174   1.562
17436SOL    HW154205  10.502   2.079   1.565
17436SOL    HW254206  10.541   2.200   1.483
17437SOL     OW54207  13.618   9.931  13.662
17437SOL    HW154208  13.684   9.953  13.596
17437SOL    HW254209  13.658   9.861  13.714
17438SOL     OW54210   5.366   5.619   3.199
17438SOL    HW154211   5.344   5.600   3.290
17438SOL    HW254212   5.461   5.631   3.198
17439SOL     OW54213   3.595  11.714   5.472
17439SOL    HW154214   3.610  11.808   5.475
17439SOL    HW254215   3.503  11.703   5.497
17440SOL     OW54216   5.126  13.527   0.822
17440SOL    HW154217   5.142  13.618   0.797
17440SOL    HW254218   5.186  13.476   0.768
17441SOL     OW54219   8.616   5.715  13.540
17441SOL    HW154220   8.579   5.649  13.481
17441SOL    HW254221   8.699   5.740  13.500
17442SOL     OW54222   7.770   5.383   1.644
17442SOL    HW154223   7.714   5.446   1.600
17442SOL    HW254224   7.795   5.426   1.726
17443SOL     OW54225  10.640   9.583   1.143
17443SOL    HW154226  10.564   9.600   1.199
17443SOL    HW254227  10.646   9.487   1.139
17444SOL     OW54228  10.736   0.215   0.063
17444SOL    HW154229  10.823   0.188   0.090
17444SOL    HW254230  10.677   0.157   0.112
17445SOL     OW54231   6.520   3.600   7.222
17445SOL    HW154232   6.592   3.631   7.278
17445SOL    HW254233   6.564   3.556   7.149
17446SOL     OW54234   6.276   2.042   5.043
17446SOL    HW154235   6.238   1.970   5.093
17446SOL    HW254236   6.259   2.120   5.096
17447SOL     OW54237   0.304   8.631   8.366
17447SOL    HW154238   0.274   8.701   8.424
17447SOL    HW254239   0.276   8.659   8.279
17448SOL     OW54240   8.289   6.410   5.828
17448SOL    HW154241   8.285   6.460   5.746
17448SOL    HW254242   8.301   6.319   5.801
17449SOL     OW54243   3.746   9.208   2.077
17449SOL    HW154244   3.834   9.234   2.050
17449SOL    HW254245   3.754   9.117   2.104
17450SOL     OW54246   3.426   4.364   7.975
17450SOL    HW154247   3.450   4.306   8.047
17450SOL    HW254248   3.330   4.368   7.978
17451SOL     OW54249   5.446   1.532  11.644
17451SOL    HW154250   5.459   1.600  11.710
17451SOL    HW254251   5.525   1.478  11.649
17452SOL     OW54252  11.733   4.167   7.723
17452SOL    HW154253  11.660   4.197   7.777
17452SOL    HW254254  11.715   4.202   7.636
17453SOL     OW54255   2.170   9.768  13.510
17453SOL    HW154256   2.168   9.750  13.604
17453SOL    HW254257   2.262   9.788  13.491
17454SOL     OW54258   6.315  14.551  13.039
17454SOL    HW154259   6.239  14.540  13.097
17454SOL    HW254260   6.282  14.603  12.966
17455SOL     OW54261  10.600   3.155  12.205
17455SOL    HW154262  10.531   3.140  12.142
17455SOL    HW254263  10.642   3.236  12.176
17456SOL     OW54264   9.784   6.365  14.393
17456SOL    HW154265   9.782   6.442  14.335
17456SOL    HW254266   9.877   6.347  14.406
17457SOL     OW54267   1.258   5.773   1.060
17457SOL    HW154268   1.173   5.797   1.025
17457SOL    HW254269   1.316   5.845   1.037
17458SOL     OW54270   3.712  12.776  14.598
17458SOL    HW154271   3.660  12.766  14.678
17458SOL    HW254272   3.778  12.707  14.603
17459SOL     OW54273  11.033  10.128   4.313
17459SOL    HW154274  11.054  10.218   4.340
17459SOL    HW254275  10.966  10.099   4.375
17460SOL     OW54276   8.448   2.467  10.646
17460SOL    HW154277   8.495   2.391  10.680
17460SOL    HW254278   8.482   2.479  10.557
17461SOL     OW54279  10.329  13.789   3.417
17461SOL    HW154280  10.343  13.882   3.435
17461SOL    HW254281  10.318  13.749   3.503
17462SOL     OW54282  12.226  12.363   0.120
17462SOL    HW154283  12.304  12.416   0.134
17462SOL    HW254284  12.259  12.281   0.083
17463SOL     OW54285  11.952   0.197   1.518
17463SOL    HW154286  12.042   0.182   1.489
17463SOL    HW254287  11.927   0.114   1.559
17464SOL     OW54288   3.640   9.765   6.074
17464SOL    HW154289   3.555   9.801   6.050
17464SOL    HW254290   3.642   9.678   6.033
17465SOL     OW54291   9.167  10.902   3.411
17465SOL    HW154292   9.165  10.872   3.320
17465SOL    HW254293   9.257  10.887   3.440
17466SOL     OW54294  13.844   5.869  13.231
17466SOL    HW154295  13.875   5.808  13.299
17466SOL    HW254296  13.761   5.902  13.265
17467SOL     OW54297  11.929   1.922   8.201
17467SOL    HW154298  11.922   1.902   8.294
17467SOL    HW254299  12.024   1.926   8.185
17468SOL     OW54300   9.397   4.126   5.947
17468SOL    HW154301   9.379   4.132   5.853
17468SOL    HW254302   9.475   4.071   5.953
17469SOL     OW54303   4.743  10.196   8.173
17469SOL    HW154304   4.790  10.210   8.091
17469SOL    HW254305   4.694  10.277   8.187
17470SOL     OW54306   6.929   8.752  12.137
17470SOL    HW154307   6.846   8.759  12.183
17470SOL    HW254308   6.944   8.839  12.100
17471SOL     OW54309   3.330  11.582   7.695
17471SOL    HW154310   3.421  11.569   7.722
17471SOL    HW254311   3.306  11.668   7.731
17472SOL     OW54312   8.406   7.858   1.736
17472SOL    HW154313   8.481   7.877   1.680
17472SOL    HW254314   8.391   7.940   1.784
17473SOL     OW54315   9.994   8.527   0.511
17473SOL    HW154316  10.004   8.446   0.460
17473SOL    HW254317   9.900   8.544   0.512
17474SOL     OW54318  12.289   0.043  12.585
17474SOL    HW154319  12.369   0.022  12.634
17474SOL    HW254320  12.271   0.135  12.607
17475SOL     OW54321  10.564   8.866   7.061
17475SOL    HW154322  10.479   8.826   7.079
17475SOL    HW254323  10.585   8.839   6.971
17476SOL     OW54324   9.917  11.416   4.895
17476SOL    HW154325   9.915  11.478   4.967
17476SOL    HW254326  10.002  11.430   4.854
17477SOL     OW54327   2.969   3.265   6.996
17477SOL    HW154328   3.042   3.311   6.955
17477SOL    HW254329   2.896   3.277   6.935
17478SOL     OW54330   2.689  14.633   6.551
17478SOL    HW154331   2.714  14.710   6.603
17478SOL    HW254332   2.608  14.659   6.508
17479SOL     OW54333   2.818   4.970  10.471
17479SOL    HW154334   2.756   5.008  10.534
17479SOL    HW254335   2.764   4.944  10.396
17480SOL     OW54336  11.366   2.925  12.179
17480SOL    HW154337  11.371   2.882  12.264
17480SOL    HW254338  11.367   2.854  12.116
17481SOL     OW54339   2.686   8.602   1.995
17481SOL    HW154340   2.628   8.564   2.061
17481SOL    HW254341   2.672   8.696   2.000
17482SOL     OW54342  13.182   2.668   4.017
17482SOL    HW154343  13.102   2.711   4.045
17482SOL    HW254344  13.190   2.689   3.924
17483SOL     OW54345   0.304   5.194   2.870
17483SOL    HW154346   0.247   5.262   2.906
17483SOL    HW254347   0.252   5.115   2.872
17484SOL     OW54348   3.212  13.795   7.901
17484SOL    HW154349   3.225  13.855   7.974
17484SOL    HW254350   3.159  13.845   7.839
17485SOL     OW54351   0.700   1.710   7.975
17485SOL    HW154352   0.720   1.730   8.066
17485SOL    HW254353   0.714   1.793   7.928
17486SOL     OW54354  12.005   5.659   9.852
17486SOL    HW154355  11.950   5.621   9.783
17486SOL    HW254356  12.052   5.730   9.809
17487SOL     OW54357   9.341   9.858   7.200
17487SOL    HW154358   9.355   9.847   7.294
17487SOL    HW254359   9.247   9.849   7.188
17488SOL     OW54360   9.054  10.535  13.352
17488SOL    HW154361   9.029  10.531  13.444
17488SOL    HW254362   9.113  10.610  13.347
17489SOL     OW54363   4.344   6.963   9.537
17489SOL    HW154364   4.375   6.935   9.451
17489SOL    HW254365   4.289   7.039   9.520
17490SOL     OW54366   6.213   3.689   2.210
17490SOL    HW154367   6.237   3.704   2.302
17490SOL    HW254368   6.259   3.609   2.186
17491SOL     OW54369   4.857   3.549  12.859
17491SOL    HW154370   4.786   3.488  12.842
17491SOL    HW254371   4.813   3.628  12.891
17492SOL     OW54372  12.735   9.834  14.348
17492SOL    HW154373  12.652   9.795  14.375
17492SOL    HW254374  12.801   9.782  14.394
17493SOL     OW54375   0.413  12.992   0.810
17493SOL    HW154376   0.347  12.955   0.752
17493SOL    HW254377   0.390  12.959   0.897
17494SOL     OW54378   8.476   4.086  12.074
17494SOL    HW154379   8.440   4.052  11.992
17494SOL    HW254380   8.539   4.152  12.047
17495SOL     OW54381   0.275   0.068   2.283
17495SOL    HW154382   0.248   0.160   2.276
17495SOL    HW254383   0.357   0.072   2.333
17496SOL     OW54384  11.514   7.762   9.835
17496SOL    HW154385  11.567   7.788   9.911
17496SOL    HW254386  11.427   7.748   9.870
17497SOL     OW54387  12.960   1.452   9.501
17497SOL    HW154388  13.028   1.391   9.529
17497SOL    HW254389  12.925   1.489   9.582
17498SOL     OW54390  13.502   9.970   4.972
17498SOL    HW154391  13.472   9.880   4.983
17498SOL    HW254392  13.439  10.022   5.022
17499SOL     OW54393  12.779   0.662   8.174
17499SOL    HW154394  12.685   0.656   8.191
17499SOL    HW254395  12.800   0.754   8.191
17500SOL     OW54396   1.873   3.062   8.286
17500SOL    HW154397   1.842   3.152   8.294
17500SOL    HW254398   1.796   3.011   8.262
17501SOL     OW54399   2.309   8.359  13.741
17501SOL    HW154400   2.335   8.349  13.649
17501SOL    HW254401   2.215   8.339  13.741
17502SOL     OW54402   5.513   8.446   0.379
17502SOL    HW154403   5.538   8.505   0.449
17502SOL    HW254404   5.529   8.358   0.415
17503SOL     OW54405   6.713   7.746  13.283
17503SOL    HW154406   6.769   7.692  13.338
17503SOL    HW254407   6.760   7.829  13.274
17504SOL     OW54408   1.230  11.725   8.539
17504SOL    HW154409   1.144  11.736   8.579
17504SOL    HW254410   1.287  11.784   8.588
17505SOL     OW54411   0.343  13.168   4.287
17505SOL    HW154412   0.318  13.173   4.379
17505SOL    HW254413   0.310  13.249   4.248
17506SOL     OW54414  11.697   2.424   5.754
17506SOL    HW154415  11.719   2.346   5.704
17506SOL    HW254416  11.759   2.424   5.827
17507SOL     OW54417   1.872  12.955   3.848
17507SOL    HW154418   1.941  13.009   3.809
17507SOL    HW254419   1.918  12.894   3.905
17508SOL     OW54420   2.989   0.391   6.452
17508SOL    HW154421   2.959   0.326   6.388
17508SOL    HW254422   2.933   0.467   6.435
17509SOL     OW54423   0.186   7.101   8.814
17509SOL    HW154424   0.189   7.162   8.888
17509SOL    HW254425   0.110   7.129   8.763
17510SOL     OW54426   2.123   8.444   9.558
17510SOL    HW154427   2.124   8.408   9.646
17510SOL    HW254428   2.071   8.383   9.507
17511SOL     OW54429   2.388  14.510  13.504
17511SOL    HW154430   2.364  14.556  13.423
17511SOL    HW254431   2.409  14.421  13.476
17512SOL     OW54432   0.599  12.696  11.158
17512SOL    HW154433   0.530  12.639  11.124
17512SOL    HW254434   0.570  12.718  11.247
17513SOL     OW54435   8.903   1.920   7.468
17513SOL    HW154436   8.927   1.829   7.483
17513SOL    HW254437   8.983   1.961   7.435
17514SOL     OW54438   2.885   5.419   2.288
17514SOL    HW154439   2.867   5.463   2.371
17514SOL    HW254440   2.897   5.327   2.312
17515SOL     OW54441   8.607   2.494   1.811
17515SOL    HW154442   8.695   2.460   1.799
17515SOL    HW254443   8.593   2.551   1.735
17516SOL     OW54444   4.782   3.690  12.434
17516SOL    HW154445   4.784   3.635  12.355
17516SOL    HW254446   4.849   3.653  12.491
17517SOL     OW54447   0.071   8.858   5.704
17517SOL    HW154448  14.875   8.802   5.728
17517SOL    HW254449   0.031   8.932   5.658
17518SOL     OW54450  13.861   6.902  14.508
17518SOL    HW154451  13.837   6.821  14.461
17518SOL    HW254452  13.946   6.926  14.472
17519SOL     OW54453  10.127   3.171   7.376
17519SOL    HW154454  10.066   3.241   7.398
17519SOL    HW254455  10.204   3.188   7.429
17520SOL     OW54456   7.499  11.558   3.522
17520SOL    HW154457   7.482  11.464   3.513
17520SOL    HW254458   7.594  11.564   3.525
17521SOL     OW54459   0.589   9.110   6.094
17521SOL    HW154460   0.638   9.029   6.088
17521SOL    HW254461   0.498   9.083   6.109
17522SOL     OW54462   7.886   2.061   7.814
17522SOL    HW154463   7.938   1.994   7.857
17522SOL    HW254464   7.796   2.030   7.821
17523SOL     OW54465   4.345   3.816   5.354
17523SOL    HW154466   4.273   3.835   5.414
17523SOL    HW254467   4.326   3.869   5.276
17524SOL     OW54468   1.472   2.035   9.119
17524SOL    HW154469   1.398   2.094   9.132
17524SOL    HW254470   1.537   2.086   9.071
17525SOL     OW54471   2.275  14.295   4.469
17525SOL    HW154472   2.213  14.366   4.485
17525SOL    HW254473   2.253  14.263   4.382
17526SOL     OW54474   2.608  14.351  13.091
17526SOL    HW154475   2.557  14.337  13.012
17526SOL    HW254476   2.576  14.434  13.126
17527SOL     OW54477   9.135  10.135   7.637
17527SOL    HW154478   9.195  10.068   7.604
17527SOL    HW254479   9.065  10.086   7.680
17528SOL     OW54480   2.060  14.005   5.693
17528SOL    HW154481   2.071  13.914   5.666
17528SOL    HW254482   2.006  14.001   5.772
17529SOL     OW54483   2.146  12.492  10.791
17529SOL    HW154484   2.130  12.489  10.885
17529SOL    HW254485   2.207  12.420  10.775
17530SOL     OW54486   3.113   1.214  13.426
17530SOL    HW154487   3.032   1.189  13.382
17530SOL    HW254488   3.181   1.195  13.362
17531SOL     OW54489   6.291   0.761   2.811
17531SOL    HW154490   6.301   0.749   2.717
17531SOL    HW254491   6.376   0.735   2.847
17532SOL     OW54492   6.110   7.568  13.482
17532SOL    HW154493   6.176   7.510  13.521
17532SOL    HW254494   6.055   7.510  13.430
17533SOL     OW54495   4.786  14.753   0.365
17533SOL    HW154496   4.758  14.688   0.301
17533SOL    HW254497   4.813  14.828   0.312
17534SOL     OW54498  14.692   6.319  13.114
17534SOL    HW154499  14.621   6.368  13.073
17534SOL    HW254500  14.711   6.248  13.054
17535SOL     OW54501  11.883   2.636  14.781
17535SOL    HW154502  11.831   2.657  14.859
17535SOL    HW254503  11.969   2.675  14.800
17536SOL     OW54504   9.549  11.838  13.669
17536SOL    HW154505   9.498  11.765  13.634
17536SOL    HW254506   9.638  11.821  13.638
17537SOL     OW54507  10.272   3.092  14.492
17537SOL    HW154508  10.239   3.009  14.525
17537SOL    HW254509  10.344   3.114  14.550
17538SOL     OW54510   1.496   7.405  12.746
17538SOL    HW154511   1.441   7.327  12.755
17538SOL    HW254512   1.444   7.475  12.785
17539SOL     OW54513   3.090  10.071  11.571
17539SOL    HW154514   3.042   9.993  11.543
17539SOL    HW254515   3.156  10.085  11.503
17540SOL     OW54516   6.244   6.461  13.749
17540SOL    HW154517   6.195   6.465  13.831
17540SOL    HW254518   6.336   6.454  13.776
17541SOL     OW54519  12.650  11.935   3.737
17541SOL    HW154520  12.600  12.015   3.720
17541SOL    HW254521  12.722  11.939   3.673
17542SOL     OW54522   9.877   1.642   9.836
17542SOL    HW154523   9.812   1.605   9.895
17542SOL    HW254524   9.925   1.567   9.802
17543SOL     OW54525   6.561  12.480  13.475
17543SOL    HW154526   6.617  12.528  13.414
17543SOL    HW254527   6.622  12.434  13.532
17544SOL     OW54528  14.149   4.760  11.383
17544SOL    HW154529  14.079   4.806  11.335
17544SOL    HW254530  14.218   4.826  11.394
17545SOL     OW54531   8.741   8.920  12.607
17545SOL    HW154532   8.672   8.874  12.559
17545SOL    HW254533   8.761   8.863  12.681
17546SOL     OW54534   1.281   1.561   9.302
17546SOL    HW154535   1.289   1.487   9.362
17546SOL    HW254536   1.199   1.604   9.327
17547SOL     OW54537   5.134   8.137   2.864
17547SOL    HW154538   5.163   8.169   2.779
17547SOL    HW254539   5.108   8.216   2.912
17548SOL     OW54540  14.775  12.381  13.057
17548SOL    HW154541  14.793  12.328  12.979
17548SOL    HW254542  14.842  12.352  13.120
17549SOL     OW54543   0.966   9.146   0.506
17549SOL    HW154544   0.952   9.058   0.542
17549SOL    HW254545   0.882   9.190   0.517
17550SOL     OW54546   9.187   6.155   9.726
17550SOL    HW154547   9.229   6.140   9.641
17550SOL    HW254548   9.156   6.068   9.752
17551SOL     OW54549   4.956   3.213   1.492
17551SOL    HW154550   4.898   3.284   1.519
17551SOL    HW254551   4.968   3.160   1.571
17552SOL     OW54552   2.916  10.827   2.733
17552SOL    HW154553   2.908  10.745   2.781
17552SOL    HW254554   3.010  10.842   2.726
17553SOL     OW54555   0.642   5.726   9.387
17553SOL    HW154556   0.623   5.797   9.448
17553SOL    HW254557   0.686   5.769   9.314
17554SOL     OW54558   3.791   8.642   8.572
17554SOL    HW154559   3.728   8.573   8.552
17554SOL    HW254560   3.861   8.596   8.620
17555SOL     OW54561   5.367   5.046   8.426
17555SOL    HW154562   5.317   5.126   8.445
17555SOL    HW254563   5.455   5.077   8.406
17556SOL     OW54564   2.317  14.028  10.967
17556SOL    HW154565   2.361  14.078  10.899
17556SOL    HW254566   2.312  13.939  10.932
17557SOL     OW54567   2.677   9.658   1.507
17557SOL    HW154568   2.619   9.637   1.433
17557SOL    HW254569   2.678   9.579   1.561
17558SOL     OW54570   8.136   8.270   1.230
17558SOL    HW154571   8.207   8.206   1.225
17558SOL    HW254572   8.179   8.352   1.250
17559SOL     OW54573  10.615  14.463   1.141
17559SOL    HW154574  10.630  14.403   1.069
17559SOL    HW254575  10.695  14.515   1.148
17560SOL     OW54576   9.372  11.695   2.174
17560SOL    HW154577   9.454  11.673   2.218
17560SOL    HW254578   9.350  11.616   2.125
17561SOL     OW54579  13.332   9.027   3.176
17561SOL    HW154580  13.363   9.093   3.114
17561SOL    HW254581  13.411   8.996   3.220
17562SOL     OW54582   3.631  13.238   4.466
17562SOL    HW154583   3.651  13.292   4.389
17562SOL    HW254584   3.540  13.259   4.487
17563SOL     OW54585  10.744  13.905   2.978
17563SOL    HW154586  10.740  13.810   2.988
17563SOL    HW254587  10.683  13.924   2.906
17564SOL     OW54588   3.974   7.760   2.822
17564SOL    HW154589   3.970   7.680   2.769
17564SOL    HW254590   3.956   7.831   2.759
17565SOL     OW54591  10.579   1.084   5.506
17565SOL    HW154592  10.606   1.166   5.548
17565SOL    HW254593  10.596   1.099   5.412
17566SOL     OW54594  13.063   1.213   7.162
17566SOL    HW154595  13.024   1.289   7.117
17566SOL    HW254596  13.154   1.238   7.176
17567SOL     OW54597   2.183   7.688   4.989
17567SOL    HW154598   2.240   7.619   4.956
17567SOL    HW254599   2.241   7.763   5.001
17568SOL     OW54600   7.179   7.502   7.559
17568SOL    HW154601   7.167   7.597   7.562
17568SOL    HW254602   7.242   7.484   7.629
17569SOL     OW54603   5.927   2.930  13.075
17569SOL    HW154604   5.868   2.998  13.108
17569SOL    HW254605   5.967   2.968  12.997
17570SOL     OW54606   7.178   7.428   2.212
17570SOL    HW154607   7.185   7.428   2.307
17570SOL    HW254608   7.215   7.344   2.185
17571SOL     OW54609   7.640  10.418   7.919
17571SOL    HW154610   7.705  10.415   7.849
17571SOL    HW254611   7.640  10.509   7.948
17572SOL     OW54612   1.789   0.693   0.247
17572SOL    HW154613   1.849   0.733   0.184
17572SOL    HW254614   1.779   0.602   0.217
17573SOL     OW54615  14.797  13.876   8.172
17573SOL    HW154616  14.706  13.900   8.158
17573SOL    HW254617  14.795  13.811   8.242
17574SOL     OW54618   1.108   9.853   5.168
17574SOL    HW154619   1.121   9.946   5.145
17574SOL    HW254620   1.196   9.816   5.165
17575SOL     OW54621   6.932   2.380   0.483
17575SOL    HW154622   6.881   2.455   0.452
17575SOL    HW254623   6.977   2.412   0.561
17576SOL     OW54624  13.824   9.781   6.562
17576SOL    HW154625  13.905   9.819   6.531
17576SOL    HW254626  13.804   9.711   6.500
17577SOL     OW54627   9.964  11.232   6.314
17577SOL    HW154628  10.045  11.277   6.337
17577SOL    HW254629   9.992  11.155   6.265
17578SOL     OW54630   9.257   5.384   3.637
17578SOL    HW154631   9.172   5.429   3.632
17578SOL    HW254632   9.235   5.291   3.634
17579SOL     OW54633  13.498   4.646  13.359
17579SOL    HW154634  13.435   4.717  13.343
17579SOL    HW254635  13.467   4.603  13.438
17580SOL     OW54636   5.839  14.349   6.184
17580SOL    HW154637   5.793  14.358   6.100
17580SOL    HW254638   5.931  14.347   6.160
17581SOL     OW54639   8.813   0.016   9.072
17581SOL    HW154640   8.830   0.045   9.161
17581SOL    HW254641   8.760   0.086   9.034
17582SOL     OW54642   9.354   5.222   1.517
17582SOL    HW154643   9.403   5.284   1.572
17582SOL    HW254644   9.384   5.136   1.546
17583SOL     OW54645   8.879  10.353   3.618
17583SOL    HW154646   8.928  10.276   3.591
17583SOL    HW254647   8.801  10.317   3.662
17584SOL     OW54648  13.751   1.659   5.719
17584SOL    HW154649  13.833   1.662   5.769
17584SOL    HW254650  13.719   1.749   5.721
17585SOL     OW54651   8.990   3.316  14.300
17585SOL    HW154652   9.069   3.262  14.308
17585SOL    HW254653   8.926   3.258  14.259
17586SOL     OW54654  11.715   9.880   8.177
17586SOL    HW154655  11.656   9.851   8.107
17586SOL    HW254656  11.777   9.807   8.187
17587SOL     OW54657   8.397   1.100   7.222
17587SOL    HW154658   8.352   1.099   7.138
17587SOL    HW254659   8.442   1.016   7.226
17588SOL     OW54660  14.440   7.888  12.181
17588SOL    HW154661  14.530   7.884  12.150
17588SOL    HW254662  14.392   7.826  12.124
17589SOL     OW54663  13.211   8.690  14.563
17589SOL    HW154664  13.158   8.648  14.631
17589SOL    HW254665  13.186   8.783  14.568
17590SOL     OW54666   5.057  13.104   4.479
17590SOL    HW154667   5.091  13.191   4.460
17590SOL    HW254668   5.037  13.106   4.573
17591SOL     OW54669  13.258  13.499   3.822
17591SOL    HW154670  13.313  13.573   3.798
17591SOL    HW254671  13.253  13.504   3.918
17592SOL     OW54672   4.273   3.712   2.726
17592SOL    HW154673   4.239   3.771   2.793
17592SOL    HW254674   4.236   3.627   2.747
17593SOL     OW54675   4.562   6.241   7.144
17593SOL    HW154676   4.550   6.167   7.203
17593SOL    HW254677   4.651   6.272   7.162
17594SOL     OW54678   3.377  14.392   2.928
17594SOL    HW154679   3.368  14.405   2.833
17594SOL    HW254680   3.363  14.298   2.941
17595SOL     OW54681   7.286  12.287  13.304
17595SOL    HW154682   7.233  12.213  13.335
17595SOL    HW254683   7.225  12.342  13.256
17596SOL     OW54684   5.529  14.209  11.196
17596SOL    HW154685   5.530  14.187  11.289
17596SOL    HW254686   5.620  14.234  11.176
17597SOL     OW54687   2.395   4.087   9.438
17597SOL    HW154688   2.310   4.048   9.457
17597SOL    HW254689   2.456   4.040   9.496
17598SOL     OW54690   2.096   3.106   1.273
17598SOL    HW154691   2.021   3.164   1.257
17598SOL    HW254692   2.075   3.061   1.354
17599SOL     OW54693  10.427   3.994  12.841
17599SOL    HW154694  10.390   3.905  12.846
17599SOL    HW254695  10.516   3.984  12.874
17600SOL     OW54696  10.277  11.242   9.278
17600SOL    HW154697  10.326  11.205   9.351
17600SOL    HW254698  10.279  11.173   9.211
17601SOL     OW54699   5.016  12.697  11.843
17601SOL    HW154700   5.100  12.726  11.807
17601SOL    HW254701   4.956  12.770  11.826
17602SOL     OW54702   9.586  10.090  11.677
17602SOL    HW154703   9.659  10.132  11.721
17602SOL    HW254704   9.515  10.094  11.742
17603SOL     OW54705   1.445   7.863   4.132
17603SOL    HW154706   1.512   7.794   4.134
17603SOL    HW254707   1.490   7.939   4.096
17604SOL     OW54708   4.873  11.673   0.865
17604SOL    HW154709   4.790  11.628   0.877
17604SOL    HW254710   4.908  11.637   0.784
17605SOL     OW54711  14.210   8.208   0.674
17605SOL    HW154712  14.125   8.167   0.691
17605SOL    HW254713  14.273   8.136   0.680
17606SOL     OW54714   2.646  11.449   8.277
17606SOL    HW154715   2.661  11.520   8.215
17606SOL    HW254716   2.577  11.396   8.237
17607SOL     OW54717  10.177   3.884   4.535
17607SOL    HW154718  10.196   3.841   4.452
17607SOL    HW254719  10.090   3.922   4.524
17608SOL     OW54720   4.668   8.549   6.097
17608SOL    HW154721   4.591   8.517   6.050
17608SOL    HW254722   4.658   8.514   6.186
17609SOL     OW54723  10.468   8.355  13.279
17609SOL    HW154724  10.383   8.333  13.241
17609SOL    HW254725  10.447   8.400  13.361
17610SOL     OW54726  14.677   9.426   1.152
17610SOL    HW154727  14.761   9.461   1.122
17610SOL    HW254728  14.677   9.440   1.246
17611SOL     OW54729  14.777  11.516   6.167
17611SOL    HW154730  14.783  11.591   6.108
17611SOL    HW254731  14.777  11.440   6.108
17612SOL     OW54732   8.724   0.505   4.591
17612SOL    HW154733   8.742   0.412   4.608
17612SOL    HW254734   8.630   0.514   4.606
17613SOL     OW54735   9.435   6.929  11.722
17613SOL    HW154736   9.472   6.983  11.651
17613SOL    HW254737   9.350   6.969  11.740
17614SOL     OW54738  12.336  11.991  11.994
17614SOL    HW154739  12.315  12.052  12.065
17614SOL    HW254740  12.265  12.002  11.931
17615SOL     OW54741  11.071   2.992   9.066
17615SOL    HW154742  10.976   2.999   9.051
17615SOL    HW254743  11.108   2.987   8.978
17616SOL     OW54744   0.950  13.787  10.684
17616SOL    HW154745   0.888  13.817  10.618
17616SOL    HW254746   0.957  13.693  10.669
17617SOL     OW54747   9.734   8.492  11.334
17617SOL    HW154748   9.731   8.419  11.273
17617SOL    HW254749   9.646   8.528  11.332
17618SOL     OW54750   2.745   6.318   5.531
17618SOL    HW154751   2.660   6.312   5.488
17618SOL    HW254752   2.727   6.355   5.617
17619SOL     OW54753   0.850  14.456   6.600
17619SOL    HW154754   0.858  14.363   6.580
17619SOL    HW254755   0.809  14.459   6.687
17620SOL     OW54756  11.791   8.792   9.271
17620SOL    HW154757  11.768   8.791   9.364
17620SOL    HW254758  11.880   8.757   9.268
17621SOL     OW54759   7.003   8.490   5.737
17621SOL    HW154760   7.053   8.551   5.792
17621SOL    HW254761   6.949   8.546   5.681
17622SOL     OW54762  10.125   6.591  14.184
17622SOL    HW154763  10.115   6.538  14.263
17622SOL    HW254764  10.195   6.653  14.206
17623SOL     OW54765   3.601   2.989  12.702
17623SOL    HW154766   3.669   2.922  12.710
17623SOL    HW254767   3.594   3.026  12.790
17624SOL     OW54768   8.833  12.380   8.054
17624SOL    HW154769   8.888  12.376   8.132
17624SOL    HW254770   8.776  12.455   8.067
17625SOL     OW54771   2.517   4.480   6.465
17625SOL    HW154772   2.570   4.408   6.501
17625SOL    HW254773   2.456   4.437   6.405
17626SOL     OW54774   9.146   3.233  11.350
17626SOL    HW154775   9.101   3.248  11.267
17626SOL    HW254776   9.218   3.173  11.328
17627SOL     OW54777  12.052   1.827  13.893
17627SOL    HW154778  11.961   1.858  13.898
17627SOL    HW254779  12.045   1.732  13.901
17628SOL     OW54780   9.500   0.640   7.917
17628SOL    HW154781   9.474   0.653   8.008
17628SOL    HW254782   9.492   0.546   7.903
17629SOL     OW54783  11.973   9.814   2.766
17629SOL    HW154784  12.058   9.788   2.801
17629SOL    HW254785  11.983   9.806   2.671
17630SOL     OW54786   2.000   0.749  12.616
17630SOL    HW154787   1.962   0.804  12.547
17630SOL    HW254788   2.059   0.690  12.569
17631SOL     OW54789   8.220   5.921   4.616
17631SOL    HW154790   8.210   5.910   4.711
17631SOL    HW254791   8.131   5.918   4.582
17632SOL     OW54792   7.881   7.442   2.788
17632SOL    HW154793   7.831   7.513   2.828
17632SOL    HW254794   7.951   7.424   2.850
17633SOL     OW54795   8.098   9.756   9.710
17633SOL    HW154796   8.122   9.725   9.797
17633SOL    HW254797   8.176   9.800   9.677
17634SOL     OW54798   3.687   5.441  12.086
17634SOL    HW154799   3.600   5.431  12.049
17634SOL    HW254800   3.732   5.360  12.065
17635SOL     OW54801   4.652  14.419   8.718
17635SOL    HW154802   4.739  14.393   8.688
17635SOL    HW254803   4.592  14.371   8.660
17636SOL     OW54804   5.642   2.690  14.298
17636SOL    HW154805   5.668   2.748  14.226
17636SOL    HW254806   5.654   2.744  14.377
17637SOL     OW54807  13.236   7.458   5.064
17637SOL    HW154808  13.274   7.374   5.038
17637SOL    HW254809  13.183   7.438   5.141
17638SOL     OW54810   6.876   9.151   3.024
17638SOL    HW154811   6.857   9.243   3.042
17638SOL    HW254812   6.883   9.146   2.929
17639SOL     OW54813  11.328  10.976   4.735
17639SOL    HW154814  11.423  10.980   4.725
17639SOL    HW254815  11.294  11.000   4.649
17640SOL     OW54816   5.748  11.987  13.975
17640SOL    HW154817   5.838  11.975  13.946
17640SOL    HW254818   5.696  11.987  13.894
17641SOL     OW54819   5.217   9.519  11.135
17641SOL    HW154820   5.197   9.427  11.151
17641SOL    HW254821   5.179   9.538  11.049
17642SOL     OW54822   1.926   5.440   1.088
17642SOL    HW154823   1.967   5.353   1.089
17642SOL    HW254824   1.851   5.430   1.030
17643SOL     OW54825  12.705   5.939  12.416
17643SOL    HW154826  12.730   5.921  12.326
17643SOL    HW254827  12.779   5.989  12.452
17644SOL     OW54828  13.422  11.443   8.482
17644SOL    HW154829  13.372  11.371   8.520
17644SOL    HW254830  13.512  11.427   8.511
17645SOL     OW54831   7.140  11.571  13.511
17645SOL    HW154832   7.206  11.527  13.458
17645SOL    HW254833   7.099  11.501  13.562
17646SOL     OW54834  12.165   7.225  12.190
17646SOL    HW154835  12.228   7.277  12.139
17646SOL    HW254836  12.162   7.141  12.145
17647SOL     OW54837   8.330  10.358  11.351
17647SOL    HW154838   8.286  10.275  11.369
17647SOL    HW254839   8.423  10.337  11.360
17648SOL     OW54840   2.035  11.834  13.757
17648SOL    HW154841   2.046  11.842  13.851
17648SOL    HW254842   2.091  11.761  13.732
17649SOL     OW54843   5.970   0.589  12.776
17649SOL    HW154844   5.973   0.567  12.683
17649SOL    HW254845   5.965   0.505  12.821
17650SOL     OW54846   7.474   5.808  13.798
17650SOL    HW154847   7.450   5.755  13.874
17650SOL    HW254848   7.412   5.881  13.800
17651SOL     OW54849   0.990   1.596   3.462
17651SOL    HW154850   0.958   1.517   3.417
17651SOL    HW254851   1.071   1.617   3.417
17652SOL     OW54852  11.137   0.869   3.948
17652SOL    HW154853  11.217   0.839   3.993
17652SOL    HW254854  11.149   0.964   3.939
17653SOL     OW54855   8.128   2.996  14.739
17653SOL    HW154856   8.065   2.925  14.746
17653SOL    HW254857   8.210   2.954  14.714
17654SOL     OW54858   9.112   0.287   0.597
17654SOL    HW154859   9.101   0.212   0.656
17654SOL    HW254860   9.205   0.284   0.573
17655SOL     OW54861  13.886  12.224   0.932
17655SOL    HW154862  13.863  12.317   0.937
17655SOL    HW254863  13.973  12.219   0.973
17656SOL     OW54864  13.152   2.804   4.974
17656SOL    HW154865  13.223   2.859   4.942
17656SOL    HW254866  13.190   2.757   5.048
17657SOL     OW54867   1.957  13.107   7.024
17657SOL    HW154868   1.944  13.057   7.105
17657SOL    HW254869   2.002  13.046   6.966
17658SOL     OW54870  14.032  12.965  11.844
17658SOL    HW154871  14.083  12.902  11.895
17658SOL    HW254872  13.963  12.995  11.903
17659SOL     OW54873   1.442  11.794  11.399
17659SOL    HW154874   1.413  11.866  11.342
17659SOL    HW254875   1.369  11.732  11.397
17660SOL     OW54876   9.283   1.000   9.680
17660SOL    HW154877   9.324   0.925   9.637
17660SOL    HW254878   9.286   0.979   9.773
17661SOL     OW54879   7.107  10.045  10.823
17661SOL    HW154880   7.068   9.969  10.866
17661SOL    HW254881   7.185  10.064  10.876
17662SOL     OW54882   8.950   5.289   9.826
17662SOL    HW154883   8.879   5.231   9.852
17662SOL    HW254884   8.956   5.279   9.731
17663SOL     OW54885   0.069   7.371   0.435
17663SOL    HW154886  14.865   7.407   0.469
17663SOL    HW254887   0.083   7.416   0.352
17664SOL     OW54888   6.639  10.897   6.838
17664SOL    HW154889   6.623  10.840   6.913
17664SOL    HW254890   6.658  10.836   6.766
17665SOL     OW54891   2.804  13.034   1.160
17665SOL    HW154892   2.761  12.988   1.233
17665SOL    HW254893   2.886  12.987   1.147
17666SOL     OW54894  13.354  12.038  12.442
17666SOL    HW154895  13.333  11.945  12.435
17666SOL    HW254896  13.441  12.040  12.482
17667SOL     OW54897   1.028   3.905   2.482
17667SOL    HW154898   1.056   3.823   2.523
17667SOL    HW254899   0.933   3.904   2.488
17668SOL     OW54900  14.876   5.963   0.167
17668SOL    HW154901  14.814   5.912   0.220
17668SOL    HW254902   0.077   5.969   0.222
17669SOL     OW54903   8.036   5.087   0.095
17669SOL    HW154904   8.131   5.087   0.081
17669SOL    HW254905   8.004   5.165   0.049
17670SOL     OW54906   7.266   9.496   5.775
17670SOL    HW154907   7.227   9.572   5.733
17670SOL    HW254908   7.319   9.533   5.846
17671SOL     OW54909   4.305   4.778   8.789
17671SOL    HW154910   4.212   4.799   8.790
17671SOL    HW254911   4.347   4.856   8.826
17672SOL     OW54912  10.776   5.322   3.669
17672SOL    HW154913  10.756   5.335   3.762
17672SOL    HW254914  10.734   5.239   3.647
17673SOL     OW54915   2.597   9.321  14.817
17673SOL    HW154916   2.665   9.383  14.793
17673SOL    HW254917   2.584   9.334   0.033
17674SOL     OW54918   5.902   4.254   6.660
17674SOL    HW154919   5.825   4.222   6.613
17674SOL    HW254920   5.870   4.273   6.748
17675SOL     OW54921  14.595   4.190   8.366
17675SOL    HW154922  14.601   4.209   8.460
17675SOL    HW254923  14.576   4.097   8.362
17676SOL     OW54924  13.821   6.733   5.977
17676SOL    HW154925  13.907   6.754   5.941
17676SOL    HW254926  13.807   6.641   5.954
17677SOL     OW54927   4.703   2.805   6.084
17677SOL    HW154928   4.716   2.710   6.081
17677SOL    HW254929   4.610   2.815   6.106
17678SOL     OW54930   5.590   0.604   5.188
17678SOL    HW154931   5.507   0.582   5.144
17678SOL    HW254932   5.573   0.587   5.280
17679SOL     OW54933   5.493  13.859   3.200
17679SOL    HW154934   5.457  13.825   3.118
17679SOL    HW254935   5.423  13.913   3.236
17680SOL     OW54936   7.900   5.812   5.627
17680SOL    HW154937   7.946   5.813   5.543
17680SOL    HW254938   7.930   5.732   5.670
17681SOL     OW54939   4.247   6.410  13.843
17681SOL    HW154940   4.266   6.319  13.865
17681SOL    HW254941   4.331   6.447  13.818
17682SOL     OW54942  13.277  12.806   0.452
17682SOL    HW154943  13.348  12.820   0.389
17682SOL    HW254944  13.205  12.860   0.419
17683SOL     OW54945   2.513  11.780  11.777
17683SOL    HW154946   2.606  11.762  11.762
17683SOL    HW254947   2.498  11.757  11.869
17684SOL     OW54948   3.171   7.347  12.891
17684SOL    HW154949   3.134   7.336  12.979
17684SOL    HW254950   3.246   7.287  12.889
17685SOL     OW54951  11.777   8.661  10.971
17685SOL    HW154952  11.727   8.647  10.890
17685SOL    HW254953  11.758   8.752  10.995
17686SOL     OW54954   6.513   4.882   0.583
17686SOL    HW154955   6.493   4.975   0.596
17686SOL    HW254956   6.471   4.860   0.500
17687SOL     OW54957  11.440   6.813   9.536
17687SOL    HW154958  11.467   6.723   9.555
17687SOL    HW254959  11.374   6.803   9.467
17688SOL     OW54960   1.562   9.021   8.560
17688SOL    HW154961   1.643   8.992   8.518
17688SOL    HW254962   1.590   9.090   8.620
17689SOL     OW54963   5.650   8.174   0.393
17689SOL    HW154964   5.656   8.114   0.319
17689SOL    HW254965   5.577   8.140   0.445
17690SOL     OW54966   3.988  12.571   5.001
17690SOL    HW154967   4.079  12.571   4.969
17690SOL    HW254968   3.940  12.620   4.935
17691SOL     OW54969  14.829  12.340  14.252
17691SOL    HW154970   0.037  12.340  14.211
17691SOL    HW254971  14.818  12.251  14.287
17692SOL     OW54972   1.274   7.719   4.667
17692SOL    HW154973   1.240   7.695   4.753
17692SOL    HW254974   1.293   7.635   4.625
17693SOL     OW54975   6.037   4.160   0.634
17693SOL    HW154976   6.037   4.233   0.573
17693SOL    HW254977   6.015   4.084   0.580
17694SOL     OW54978   3.177  13.453   6.492
17694SOL    HW154979   3.082  13.454   6.490
17694SOL    HW254980   3.202  13.389   6.424
17695SOL     OW54981   4.239   8.618   2.516
17695SOL    HW154982   4.217   8.551   2.451
17695SOL    HW254983   4.280   8.688   2.465
17696SOL     OW54984   3.600   5.555   4.956
17696SOL    HW154985   3.650   5.626   4.915
17696SOL    HW254986   3.540   5.526   4.887
17697SOL     OW54987   0.705   0.821  12.308
17697SOL    HW154988   0.737   0.797  12.221
17697SOL    HW254989   0.629   0.764  12.321
17698SOL     OW54990  12.663  13.314  13.745
17698SOL    HW154991  12.619  13.325  13.829
17698SOL    HW254992  12.595  13.330  13.680
17699SOL     OW54993  10.205   3.844   7.677
17699SOL    HW154994  10.148   3.860   7.602
17699SOL    HW254995  10.268   3.917   7.675
17700SOL     OW54996   7.827   2.542   2.863
17700SOL    HW154997   7.913   2.538   2.820
17700SOL    HW254998   7.776   2.473   2.821
17701SOL     OW54999   9.860   8.068   1.826
17701SOL    HW155000   9.785   8.038   1.774
17701SOL    HW255001   9.936   8.050   1.772
17702SOL     OW55002  11.175  10.833   7.902
17702SOL    HW155003  11.241  10.902   7.908
17702SOL    HW255004  11.172  10.810   7.810
17703SOL     OW55005   5.968   6.349  14.062
17703SOL    HW155006   5.984   6.255  14.053
17703SOL    HW255007   5.902   6.355  14.131
17704SOL     OW55008   8.834   1.020   2.130
17704SOL    HW155009   8.836   0.936   2.175
17704SOL    HW255010   8.911   1.019   2.073
17705SOL     OW55011   3.930  11.532  12.976
17705SOL    HW155012   3.959  11.623  12.975
17705SOL    HW255013   3.979  11.493  13.048
17706SOL     OW55014   2.063   0.936   5.829
17706SOL    HW155015   2.030   1.014   5.875
17706SOL    HW255016   2.094   0.879   5.899
17707SOL     OW55017  11.354  11.451   8.091
17707SOL    HW155018  11.351  11.356   8.101
17707SOL    HW255019  11.265  11.475   8.065
17708SOL     OW55020   4.691   8.223   3.664
17708SOL    HW155021   4.768   8.199   3.715
17708SOL    HW255022   4.654   8.299   3.710
17709SOL     OW55023  14.499  13.170  11.826
17709SOL    HW155024  14.450  13.123  11.893
17709SOL    HW255025  14.568  13.217  11.874
17710SOL     OW55026   0.536  10.112  14.516
17710SOL    HW155027   0.446  10.098  14.546
17710SOL    HW255028   0.555  10.036  14.461
17711SOL     OW55029  10.054  11.850   2.340
17711SOL    HW155030  10.095  11.841   2.426
17711SOL    HW255031  10.097  11.925   2.300
17712SOL     OW55032   5.359  13.084  13.644
17712SOL    HW155033   5.272  13.120  13.626
17712SOL    HW255034   5.399  13.148  13.703
17713SOL     OW55035  12.921   2.088  10.608
17713SOL    HW155036  12.905   2.108  10.700
17713SOL    HW255037  12.844   2.039  10.580
17714SOL     OW55038  13.955   8.717  11.374
17714SOL    HW155039  14.032   8.757  11.333
17714SOL    HW255040  13.886   8.726  11.307
17715SOL     OW55041   3.063   0.013  14.776
17715SOL    HW155042   3.101   0.030  14.690
17715SOL    HW255043   3.107  14.811  14.806
17716SOL     OW55044   3.297  10.190  12.143
17716SOL    HW155045   3.332  10.108  12.108
17716SOL    HW255046   3.374  10.235  12.179
17717SOL     OW55047   3.941   5.700   3.949
17717SOL    HW155048   3.912   5.622   3.903
17717SOL    HW255049   3.867   5.761   3.944
17718SOL     OW55050   9.062   2.574   5.963
17718SOL    HW155051   9.104   2.582   6.048
17718SOL    HW255052   8.968   2.572   5.982
17719SOL     OW55053   5.186  11.241   0.063
17719SOL    HW155054   5.225  11.158   0.091
17719SOL    HW255055   5.259  11.302   0.060
17720SOL     OW55056   5.717   3.693   5.895
17720SOL    HW155057   5.749   3.623   5.952
17720SOL    HW255058   5.785   3.760   5.898
17721SOL     OW55059   2.740   2.465  12.974
17721SOL    HW155060   2.647   2.468  12.950
17721SOL    HW255061   2.768   2.377  12.950
17722SOL     OW55062  10.048   8.517   4.631
17722SOL    HW155063   9.999   8.577   4.687
17722SOL    HW255064   9.981   8.462   4.590
17723SOL     OW55065   9.467  13.800   4.201
17723SOL    HW155066   9.443  13.714   4.169
17723SOL    HW255067   9.534  13.784   4.267
17724SOL     OW55068   2.259   4.448   9.163
17724SOL    HW155069   2.199   4.443   9.237
17724SOL    HW255070   2.315   4.371   9.172
17725SOL     OW55071   7.812  12.368  12.588
17725SOL    HW155072   7.721  12.395  12.606
17725SOL    HW255073   7.833  12.412  12.505
17726SOL     OW55074   2.551   1.419  13.772
17726SOL    HW155075   2.563   1.450  13.682
17726SOL    HW255076   2.465   1.378  13.772
17727SOL     OW55077   0.073   0.687   2.043
17727SOL    HW155078   0.155   0.641   2.057
17727SOL    HW255079   0.093   0.779   2.064
17728SOL     OW55080   7.891   8.376   2.703
17728SOL    HW155081   7.915   8.340   2.618
17728SOL    HW255082   7.805   8.337   2.723
17729SOL     OW55083   1.583   0.568   9.950
17729SOL    HW155084   1.500   0.617   9.952
17729SOL    HW255085   1.580   0.513  10.029
17730SOL     OW55086  11.383  13.396   3.783
17730SOL    HW155087  11.302  13.390   3.733
17730SOL    HW255088  11.443  13.334   3.741
17731SOL     OW55089  10.558   8.977   1.281
17731SOL    HW155090  10.610   8.901   1.308
17731SOL    HW255091  10.552   8.969   1.186
17732SOL     OW55092   8.537   4.405   9.704
17732SOL    HW155093   8.571   4.423   9.791
17732SOL    HW255094   8.545   4.311   9.693
17733SOL     OW55095   2.322  10.021  11.877
17733SOL    HW155096   2.350   9.930  11.878
17733SOL    HW255097   2.399  10.071  11.905
17734SOL     OW55098  10.669  13.900   7.533
17734SOL    HW155099  10.647  13.809   7.554
17734SOL    HW255100  10.629  13.914   7.447
17735SOL     OW55101   6.763   6.066   6.961
17735SOL    HW155102   6.738   5.975   6.977
17735SOL    HW255103   6.844   6.061   6.911
17736SOL     OW55104   6.989   4.289   4.163
17736SOL    HW155105   7.063   4.242   4.201
17736SOL    HW255106   7.017   4.312   4.074
17737SOL     OW55107   0.133   5.780  14.199
17737SOL    HW155108   0.179   5.743  14.274
17737SOL    HW255109   0.046   5.741  14.202
17738SOL     OW55110   6.473   2.447   7.809
17738SOL    HW155111   6.506   2.424   7.722
17738SOL    HW255112   6.489   2.369   7.862
17739SOL     OW55113   5.365   7.827  12.719
17739SOL    HW155114   5.403   7.886  12.784
17739SOL    HW255115   5.296   7.781  12.766
17740SOL     OW55116  14.650   6.373   7.787
17740SOL    HW155117  14.588   6.443   7.769
17740SOL    HW255118  14.731   6.400   7.743
17741SOL     OW55119   1.896   3.842   6.683
17741SOL    HW155120   1.873   3.755   6.651
17741SOL    HW255121   1.812   3.883   6.704
17742SOL     OW55122  11.689   6.568  10.844
17742SOL    HW155123  11.641   6.648  10.867
17742SOL    HW255124  11.629   6.497  10.864
17743SOL     OW55125   3.509  14.557  12.113
17743SOL    HW155126   3.516  14.621  12.042
17743SOL    HW255127   3.457  14.486  12.074
17744SOL     OW55128   5.637  14.171  10.610
17744SOL    HW155129   5.730  14.169  10.630
17744SOL    HW255130   5.616  14.080  10.586
17745SOL     OW55131   0.955   6.387   3.746
17745SOL    HW155132   0.993   6.468   3.780
17745SOL    HW255133   0.896   6.358   3.816
17746SOL     OW55134  13.722   3.060   2.725
17746SOL    HW155135  13.794   3.053   2.787
17746SOL    HW255136  13.647   3.086   2.778
17747SOL     OW55137   6.711   1.317  13.968
17747SOL    HW155138   6.649   1.249  13.942
17747SOL    HW255139   6.661   1.375  14.025
17748SOL     OW55140  13.047   3.108   1.192
17748SOL    HW155141  13.088   3.181   1.236
17748SOL    HW255142  12.961   3.100   1.233
17749SOL     OW55143  13.879   5.551   3.172
17749SOL    HW155144  13.873   5.540   3.267
17749SOL    HW255145  13.871   5.646   3.159
17750SOL     OW55146   0.753  10.201   1.705
17750SOL    HW155147   0.806  10.156   1.771
17750SOL    HW255148   0.813  10.213   1.631
17751SOL     OW55149  11.419   0.549   8.719
17751SOL    HW155150  11.447   0.458   8.709
17751SOL    HW255151  11.323   0.544   8.724
17752SOL     OW55152   0.589   4.912   1.210
17752SOL    HW155153   0.651   4.884   1.277
17752SOL    HW255154   0.602   4.851   1.138
17753SOL     OW55155   8.008   5.035  12.751
17753SOL    HW155156   8.013   4.952  12.703
17753SOL    HW255157   8.052   5.017  12.834
17754SOL     OW55158   9.148   4.712  12.217
17754SOL    HW155159   9.156   4.803  12.247
17754SOL    HW255160   9.057   4.705  12.189
17755SOL     OW55161   2.860   8.595  13.287
17755SOL    HW155162   2.790   8.545  13.245
17755SOL    HW255163   2.919   8.528  13.322
17756SOL     OW55164   9.614   5.745   7.483
17756SOL    HW155165   9.525   5.777   7.470
17756SOL    HW255166   9.640   5.780   7.568
17757SOL     OW55167   4.131   3.154   7.534
17757SOL    HW155168   4.132   3.247   7.560
17757SOL    HW255169   4.142   3.156   7.439
17758SOL     OW55170   2.452  10.264   6.419
17758SOL    HW155171   2.462  10.173   6.391
17758SOL    HW255172   2.541  10.293   6.439
17759SOL     OW55173   0.849   1.453   3.264
17759SOL    HW155174   0.798   1.375   3.242
17759SOL    HW255175   0.784   1.518   3.292
17760SOL     OW55176  14.410   8.936   9.843
17760SOL    HW155177  14.439   8.869   9.905
17760SOL    HW255178  14.431   9.019   9.885
17761SOL     OW55179   2.076  14.161   5.462
17761SOL    HW155180   2.098  14.087   5.518
17761SOL    HW255181   2.003  14.204   5.507
17762SOL     OW55182  12.773   0.751   0.615
17762SOL    HW155183  12.765   0.737   0.520
17762SOL    HW255184  12.748   0.842   0.628
17763SOL     OW55185   1.555   3.647   2.396
17763SOL    HW155186   1.563   3.736   2.360
17763SOL    HW255187   1.463   3.624   2.379
17764SOL     OW55188  13.189   6.106  12.364
17764SOL    HW155189  13.166   6.062  12.447
17764SOL    HW255190  13.219   6.036  12.307
17765SOL     OW55191   7.307  12.889   3.177
17765SOL    HW155192   7.322  12.977   3.142
17765SOL    HW255193   7.247  12.849   3.114
17766SOL     OW55194  14.570   1.538  14.268
17766SOL    HW155195  14.564   1.491  14.351
17766SOL    HW255196  14.480   1.563  14.248
17767SOL     OW55197   6.591   8.177   3.804
17767SOL    HW155198   6.554   8.112   3.863
17767SOL    HW255199   6.616   8.128   3.726
17768SOL     OW55200   5.475   6.376   7.929
17768SOL    HW155201   5.494   6.452   7.874
17768SOL    HW255202   5.380   6.374   7.936
17769SOL     OW55203   3.605   3.552  10.881
17769SOL    HW155204   3.545   3.570  10.808
17769SOL    HW255205   3.593   3.459  10.898
17770SOL     OW55206  12.876   4.401  12.492
17770SOL    HW155207  12.781   4.404  12.500
17770SOL    HW255208  12.899   4.310  12.509
17771SOL     OW55209   8.806   3.947  12.560
17771SOL    HW155210   8.849   3.864  12.537
17771SOL    HW255211   8.715   3.934  12.534
17772SOL     OW55212   8.627   1.102   7.968
17772SOL    HW155213   8.535   1.124   7.976
17772SOL    HW255214   8.655   1.142   7.886
17773SOL     OW55215  13.154   6.980   7.308
17773SOL    HW155216  13.137   6.978   7.402
17773SOL    HW255217  13.103   7.055   7.276
17774SOL     OW55218  14.461   5.416   6.651
17774SOL    HW155219  14.398   5.345   6.666
17774SOL    HW255220  14.453   5.436   6.558
17775SOL     OW55221   5.029   7.364  13.460
17775SOL    HW155222   5.010   7.456  13.443
17775SOL    HW255223   5.066   7.362  13.548
17776SOL     OW55224   3.087  10.432   4.351
17776SOL    HW155225   3.068  10.504   4.291
17776SOL    HW255226   3.018  10.437   4.417
17777SOL     OW55227  12.271  12.959   3.813
17777SOL    HW155228  12.229  12.879   3.846
17777SOL    HW255229  12.363  12.935   3.802
17778SOL     OW55230   8.206  11.236   0.269
17778SOL    HW155231   8.127  11.272   0.310
17778SOL    HW255232   8.193  11.251   0.175
17779SOL     OW55233   2.309  11.274  10.343
17779SOL    HW155234   2.302  11.180  10.362
17779SOL    HW255235   2.218  11.305  10.343
17780SOL     OW55236   6.132  12.399   2.429
17780SOL    HW155237   6.189  12.322   2.433
17780SOL    HW255238   6.051  12.370   2.470
17781SOL     OW55239  10.501   5.961  10.367
17781SOL    HW155240  10.427   6.022  10.379
17781SOL    HW255241  10.575   6.018  10.344
17782SOL     OW55242   9.292   9.338   8.891
17782SOL    HW155243   9.369   9.324   8.946
17782SOL    HW255244   9.286   9.433   8.882
17783SOL     OW55245   9.607  11.501   9.275
17783SOL    HW155246   9.571  11.483   9.188
17783SOL    HW255247   9.637  11.592   9.270
17784SOL     OW55248  10.944   0.334   8.128
17784SOL    HW155249  11.035   0.331   8.155
17784SOL    HW255250  10.928   0.249   8.087
17785SOL     OW55251   9.708   1.337  11.331
17785SOL    HW155252   9.614   1.344  11.313
17785SOL    HW255253   9.713   1.290  11.414
17786SOL     OW55254  14.323   1.952  11.407
17786SOL    HW155255  14.301   1.968  11.316
17786SOL    HW255256  14.410   1.913  11.405
17787SOL     OW55257   8.108   4.852   9.278
17787SOL    HW155258   8.084   4.941   9.252
17787SOL    HW255259   8.171   4.864   9.349
17788SOL     OW55260   7.789   2.936  13.566
17788SOL    HW155261   7.830   2.856  13.533
17788SOL    HW255262   7.861   2.999  13.572
17789SOL     OW55263   5.115  11.501  13.599
17789SOL    HW155264   5.204  11.508  13.632
17789SOL    HW255265   5.088  11.412  13.620
17790SOL     OW55266   3.224   3.745  10.890
17790SOL    HW155267   3.269   3.769  10.971
17790SOL    HW255268   3.180   3.663  10.910
17791SOL     OW55269   9.544   7.069  13.785
17791SOL    HW155270   9.518   7.126  13.857
17791SOL    HW255271   9.514   7.114  13.706
17792SOL     OW55272   8.874   9.053   6.722
17792SOL    HW155273   8.926   9.129   6.697
17792SOL    HW255274   8.838   9.075   6.807
17793SOL     OW55275   2.756   3.966   1.948
17793SOL    HW155276   2.832   4.010   1.987
17793SOL    HW255277   2.726   4.026   1.879
17794SOL     OW55278   2.869   7.894   4.796
17794SOL    HW155279   2.921   7.960   4.841
17794SOL    HW255280   2.809   7.861   4.863
17795SOL     OW55281  12.934   8.808   6.641
17795SOL    HW155282  12.908   8.882   6.586
17795SOL    HW255283  12.860   8.792   6.699
17796SOL     OW55284  12.022  14.622   8.598
17796SOL    HW155285  11.945  14.677   8.583
17796SOL    HW255286  11.989  14.546   8.645
17797SOL     OW55287   0.435   3.895   3.446
17797SOL    HW155288   0.505   3.843   3.407
17797SOL    HW255289   0.389   3.834   3.503
17798SOL     OW55290  13.179   9.408   0.800
17798SOL    HW155291  13.168   9.502   0.787
17798SOL    HW255292  13.189   9.373   0.711
17799SOL     OW55293   5.201   1.282  12.923
17799SOL    HW155294   5.147   1.290  12.844
17799SOL    HW255295   5.279   1.334  12.904
17800SOL     OW55296   2.832   4.443  11.195
17800SOL    HW155297   2.848   4.417  11.286
17800SOL    HW255298   2.764   4.509  11.201
17801SOL     OW55299   0.056   7.295   1.322
17801SOL    HW155300   0.047   7.390   1.315
17801SOL    HW255301   0.116   7.282   1.395
17802SOL     OW55302  14.577   5.882   8.392
17802SOL    HW155303  14.627   5.962   8.376
17802SOL    HW255304  14.490   5.900   8.356
17803SOL     OW55305   9.320   8.936  11.622
17803SOL    HW155306   9.259   8.975  11.684
17803SOL    HW255307   9.315   8.842  11.639
17804SOL     OW55308   8.613   3.142   5.234
17804SOL    HW155309   8.655   3.154   5.319
17804SOL    HW255310   8.637   3.220   5.184
17805SOL     OW55311   7.807  10.797  13.738
17805SOL    HW155312   7.826  10.737  13.810
17805SOL    HW255313   7.729  10.761  13.696
17806SOL     OW55314   9.022   0.947   5.944
17806SOL    HW155315   9.044   0.856   5.965
17806SOL    HW255316   8.928   0.954   5.965
17807SOL     OW55317  13.229   5.718   8.496
17807SOL    HW155318  13.299   5.666   8.457
17807SOL    HW255319  13.273   5.779   8.554
17808SOL     OW55320   5.629   5.283   3.864
17808SOL    HW155321   5.558   5.226   3.895
17808SOL    HW255322   5.600   5.371   3.888
17809SOL     OW55323   5.313   1.696   5.360
17809SOL    HW155324   5.235   1.654   5.325
17809SOL    HW255325   5.293   1.708   5.453
17810SOL     OW55326  14.439   2.758  10.134
17810SOL    HW155327  14.515   2.702  10.148
17810SOL    HW255328  14.367   2.712  10.177
17811SOL     OW55329   8.486   1.074  12.131
17811SOL    HW155330   8.473   1.060  12.224
17811SOL    HW255331   8.448   0.997  12.089
17812SOL     OW55332  10.501  10.830   7.532
17812SOL    HW155333  10.565  10.765   7.503
17812SOL    HW255334  10.446  10.783   7.595
17813SOL     OW55335  10.872  12.848  14.204
17813SOL    HW155336  10.922  12.924  14.232
17813SOL    HW255337  10.816  12.880  14.133
17814SOL     OW55338   2.580  14.319  10.113
17814SOL    HW155339   2.573  14.375  10.035
17814SOL    HW255340   2.498  14.270  10.114
17815SOL     OW55341  13.182  13.859   2.686
17815SOL    HW155342  13.238  13.932   2.662
17815SOL    HW255343  13.149  13.881   2.773
17816SOL     OW55344   4.265   9.288  13.394
17816SOL    HW155345   4.356   9.318  13.393
17816SOL    HW255346   4.229   9.318  13.310
17817SOL     OW55347  11.274  11.116  14.664
17817SOL    HW155348  11.340  11.177  14.698
17817SOL    HW255349  11.241  11.159  14.585
17818SOL     OW55350   8.296   1.926  14.586
17818SOL    HW155351   8.346   2.003  14.562
17818SOL    HW255352   8.222   1.926  14.526
17819SOL     OW55353   4.701   1.917   1.122
17819SOL    HW155354   4.650   1.869   1.188
17819SOL    HW255355   4.775   1.859   1.104
17820SOL     OW55356   6.765   1.350   1.259
17820SOL    HW155357   6.827   1.356   1.332
17820SOL    HW255358   6.683   1.385   1.295
17821SOL     OW55359   7.712  11.375   5.727
17821SOL    HW155360   7.640  11.417   5.775
17821SOL    HW255361   7.668  11.314   5.667
17822SOL     OW55362   1.019   5.372   3.760
17822SOL    HW155363   0.978   5.365   3.846
17822SOL    HW255364   1.063   5.457   3.761
17823SOL     OW55365  11.909  10.815  12.182
17823SOL    HW155366  11.840  10.874  12.211
17823SOL    HW255367  11.918  10.833  12.089
17824SOL     OW55368   5.273   5.318   3.892
17824SOL    HW155369   5.226   5.355   3.817
17824SOL    HW255370   5.317   5.241   3.857
17825SOL     OW55371   0.045   2.771   7.312
17825SOL    HW155372   0.002   2.855   7.300
17825SOL    HW255373   0.088   2.753   7.229
17826SOL     OW55374   5.844   4.613   8.363
17826SOL    HW155375   5.917   4.551   8.358
17826SOL    HW255376   5.873   4.680   8.424
17827SOL     OW55377   7.009   3.107   1.605
17827SOL    HW155378   7.027   3.016   1.583
17827SOL    HW255379   6.968   3.143   1.526
17828SOL     OW55380  10.373   1.861   7.669
17828SOL    HW155381  10.299   1.869   7.610
17828SOL    HW255382  10.421   1.784   7.638
17829SOL     OW55383   8.894  12.468  14.771
17829SOL    HW155384   8.964  12.413  14.734
17829SOL    HW255385   8.873  12.426  14.854
17830SOL     OW55386   5.124  12.789   4.028
17830SOL    HW155387   5.187  12.764   3.961
17830SOL    HW255388   5.078  12.708   4.049
17831SOL     OW55389   1.981  10.697   3.336
17831SOL    HW155390   1.887  10.683   3.352
17831SOL    HW255391   2.012  10.745   3.412
17832SOL     OW55392  14.736   5.732  14.199
17832SOL    HW155393  14.674   5.790  14.243
17832SOL    HW255394  14.700   5.644  14.211
17833SOL     OW55395   4.981   5.100   4.683
17833SOL    HW155396   4.928   5.029   4.647
17833SOL    HW255397   5.060   5.100   4.628
17834SOL     OW55398   8.787   5.214  11.147
17834SOL    HW155399   8.735   5.294  11.160
17834SOL    HW255400   8.765   5.186  11.059
17835SOL     OW55401   7.289   7.520   6.725
17835SOL    HW155402   7.200   7.491   6.704
17835SOL    HW255403   7.290   7.530   6.820
17836SOL     OW55404   5.827  13.246   0.488
17836SOL    HW155405   5.846  13.290   0.405
17836SOL    HW255406   5.768  13.306   0.534
17837SOL     OW55407  13.011   9.306   6.127
17837SOL    HW155408  12.961   9.260   6.060
17837SOL    HW255409  13.103   9.297   6.100
17838SOL     OW55410  12.137  12.105  14.448
17838SOL    HW155411  12.124  12.018  14.486
17838SOL    HW255412  12.138  12.164  14.524
17839SOL     OW55413   2.008   8.371   4.367
17839SOL    HW155414   2.012   8.355   4.461
17839SOL    HW255415   2.086   8.330   4.332
17840SOL     OW55416   1.953  14.598   6.996
17840SOL    HW155417   1.982  14.683   7.029
17840SOL    HW255418   1.976  14.599   6.903
17841SOL     OW55419  10.156   7.975   3.741
17841SOL    HW155420  10.068   8.013   3.740
17841SOL    HW255421  10.198   8.014   3.818
17842SOL     OW55422   8.137   5.820  13.228
17842SOL    HW155423   8.089   5.790  13.152
17842SOL    HW255424   8.175   5.740  13.265
17843SOL     OW55425   6.188   8.225   5.600
17843SOL    HW155426   6.105   8.272   5.607
17843SOL    HW255427   6.229   8.261   5.522
17844SOL     OW55428   2.213   3.098   9.274
17844SOL    HW155429   2.252   3.173   9.320
17844SOL    HW255430   2.285   3.057   9.227
17845SOL     OW55431  11.889   5.766  14.005
17845SOL    HW155432  11.877   5.683  14.052
17845SOL    HW255433  11.956   5.813  14.054
17846SOL     OW55434   8.597  11.751   6.641
17846SOL    HW155435   8.543  11.707   6.576
17846SOL    HW255436   8.536  11.804   6.692
17847SOL     OW55437   5.858   3.885   2.189
17847SOL    HW155438   5.859   3.798   2.150
17847SOL    HW255439   5.914   3.878   2.266
17848SOL     OW55440  11.711   4.637   9.238
17848SOL    HW155441  11.691   4.686   9.158
17848SOL    HW255442  11.637   4.656   9.296
17849SOL     OW55443  11.928   7.831   1.768
17849SOL    HW155444  11.980   7.799   1.841
17849SOL    HW255445  11.841   7.793   1.782
17850SOL     OW55446  10.875   2.528   9.053
17850SOL    HW155447  10.793   2.577   9.060
17850SOL    HW255448  10.943   2.594   9.068
17851SOL     OW55449   7.959   5.625   1.160
17851SOL    HW155450   7.999   5.626   1.247
17851SOL    HW255451   8.014   5.565   1.109
17852SOL     OW55452  12.018   8.281   2.232
17852SOL    HW155453  12.004   8.257   2.140
17852SOL    HW255454  12.079   8.354   2.228
17853SOL     OW55455   3.910  12.545   4.572
17853SOL    HW155456   3.910  12.505   4.485
17853SOL    HW255457   3.980  12.610   4.569
17854SOL     OW55458   8.023  12.419  12.202
17854SOL    HW155459   8.039  12.495  12.146
17854SOL    HW255460   8.109  12.376  12.208
17855SOL     OW55461   0.384   4.168  11.993
17855SOL    HW155462   0.338   4.246  11.963
17855SOL    HW255463   0.332   4.138  12.068
17856SOL     OW55464   1.569   4.329   1.180
17856SOL    HW155465   1.628   4.405   1.185
17856SOL    HW255466   1.608   4.273   1.113
17857SOL     OW55467   8.744   3.055   8.806
17857SOL    HW155468   8.730   3.076   8.898
17857SOL    HW255469   8.812   3.117   8.778
17858SOL     OW55470   9.440  11.274  10.060
17858SOL    HW155471   9.347  11.288  10.081
17858SOL    HW255472   9.464  11.350  10.007
17859SOL     OW55473   0.619   3.751   8.526
17859SOL    HW155474   0.694   3.695   8.548
17859SOL    HW255475   0.576   3.706   8.454
17860SOL     OW55476   5.859   6.297   2.215
17860SOL    HW155477   5.892   6.293   2.125
17860SOL    HW255478   5.854   6.205   2.242
17861SOL     OW55479   4.587   6.941   7.755
17861SOL    HW155480   4.525   6.902   7.817
17861SOL    HW255481   4.539   6.944   7.672
17862SOL     OW55482   9.280  10.893   3.723
17862SOL    HW155483   9.339  10.858   3.656
17862SOL    HW255484   9.200  10.843   3.714
17863SOL     OW55485   2.174   4.287  13.031
17863SOL    HW155486   2.144   4.377  13.020
17863SOL    HW255487   2.162   4.248  12.944
17864SOL     OW55488  13.809   7.453  11.721
17864SOL    HW155489  13.792   7.478  11.812
17864SOL    HW255490  13.723   7.454  11.679
17865SOL     OW55491   9.663   9.174   0.042
17865SOL    HW155492   9.592   9.163  14.856
17865SOL    HW255493   9.742   9.145  14.873
17866SOL     OW55494   0.115   3.725   8.682
17866SOL    HW155495   0.204   3.740   8.714
17866SOL    HW255496   0.128   3.680   8.598
17867SOL     OW55497   9.664   0.061   7.102
17867SOL    HW155498   9.685   0.114   7.179
17867SOL    HW255499   9.724  14.864   7.106
17868SOL     OW55500   6.281   7.256  11.870
17868SOL    HW155501   6.356   7.213  11.828
17868SOL    HW255502   6.260   7.199  11.944
17869SOL     OW55503  10.236  10.485   6.069
17869SOL    HW155504  10.298  10.537   6.120
17869SOL    HW255505  10.165  10.545   6.047
17870SOL     OW55506  13.711   7.673   0.987
17870SOL    HW155507  13.634   7.687   1.041
17870SOL    HW255508  13.785   7.689   1.046
17871SOL     OW55509  14.323   6.105  10.510
17871SOL    HW155510  14.400   6.092  10.455
17871SOL    HW255511  14.303   6.018  10.546
17872SOL     OW55512   0.474  10.147   5.747
17872SOL    HW155513   0.439  10.126   5.833
17872SOL    HW255514   0.553  10.198   5.766
17873SOL     OW55515   5.132   4.466  14.608
17873SOL    HW155516   5.154   4.393  14.549
17873SOL    HW255517   5.194   4.535  14.585
17874SOL     OW55518   8.972   6.180   6.861
17874SOL    HW155519   8.880   6.194   6.837
17874SOL    HW255520   9.009   6.268   6.866
17875SOL     OW55521  11.192   5.813  11.615
17875SOL    HW155522  11.213   5.735  11.564
17875SOL    HW255523  11.192   5.783  11.706
17876SOL     OW55524   9.172  11.073   5.040
17876SOL    HW155525   9.154  11.166   5.032
17876SOL    HW255526   9.222  11.051   4.961
17877SOL     OW55527   1.277   7.778  10.319
17877SOL    HW155528   1.297   7.689  10.292
17877SOL    HW255529   1.329   7.791  10.399
17878SOL     OW55530  12.114   0.588  14.436
17878SOL    HW155531  12.045   0.613  14.374
17878SOL    HW255532  12.153   0.671  14.463
17879SOL     OW55533  10.580  12.628   7.521
17879SOL    HW155534  10.534  12.699   7.566
17879SOL    HW255535  10.672  12.655   7.523
17880SOL     OW55536   0.395   1.088   0.119
17880SOL    HW155537   0.478   1.125   0.151
17880SOL    HW255538   0.359   1.041   0.195
17881SOL     OW55539   9.746   1.183   3.395
17881SOL    HW155540   9.756   1.096   3.433
17881SOL    HW255541   9.741   1.242   3.470
17882SOL     OW55542   1.990  12.245   7.911
17882SOL    HW155543   2.064  12.207   7.958
17882SOL    HW255544   1.958  12.315   7.968
17883SOL     OW55545  14.627   2.769  10.393
17883SOL    HW155546  14.710   2.806  10.423
17883SOL    HW255547  14.652   2.699  10.334
17884SOL     OW55548  13.033   6.910   6.172
17884SOL    HW155549  13.019   6.918   6.078
17884SOL    HW255550  12.966   6.847   6.201
17885SOL     OW55551  10.497   1.536   1.543
17885SOL    HW155552  10.540   1.505   1.623
17885SOL    HW255553  10.568   1.546   1.479
17886SOL     OW55554  12.790  10.413   8.009
17886SOL    HW155555  12.838  10.360   8.073
17886SOL    HW255556  12.739  10.349   7.959
17887SOL     OW55557   5.464  14.121  12.513
17887SOL    HW155558   5.436  14.066  12.587
17887SOL    HW255559   5.518  14.063  12.459
17888SOL     OW55560   6.300   9.687   3.939
17888SOL    HW155561   6.332   9.772   3.908
17888SOL    HW255562   6.212   9.705   3.971
17889SOL     OW55563   3.946  12.592   0.196
17889SOL    HW155564   3.990  12.584   0.281
17889SOL    HW255565   3.872  12.650   0.213
17890SOL     OW55566   2.936   3.740  12.673
17890SOL    HW155567   2.961   3.766  12.585
17890SOL    HW255568   2.942   3.644  12.673
17891SOL     OW55569   9.299  13.025  10.083
17891SOL    HW155570   9.355  13.015  10.160
17891SOL    HW255571   9.212  13.042  10.119
17892SOL     OW55572  12.954   0.306  14.616
17892SOL    HW155573  12.889   0.331  14.550
17892SOL    HW255574  12.924   0.221  14.649
17893SOL     OW55575   5.045   9.387   9.618
17893SOL    HW155576   5.138   9.408   9.630
17893SOL    HW255577   5.022   9.335   9.695
17894SOL     OW55578   1.389  12.430   4.565
17894SOL    HW155579   1.432  12.440   4.480
17894SOL    HW255580   1.453  12.463   4.628
17895SOL     OW55581   0.073  10.172   5.258
17895SOL    HW155582   0.122  10.214   5.328
17895SOL    HW255583   0.097  10.080   5.263
17896SOL     OW55584  13.347  10.838   6.203
17896SOL    HW155585  13.431  10.806   6.236
17896SOL    HW255586  13.308  10.884   6.278
17897SOL     OW55587   6.122   6.330   8.824
17897SOL    HW155588   6.143   6.265   8.756
17897SOL    HW255589   6.196   6.391   8.822
17898SOL     OW55590   5.350   7.674   4.378
17898SOL    HW155591   5.303   7.744   4.423
17898SOL    HW255592   5.413   7.642   4.442
17899SOL     OW55593   9.283  14.205  10.280
17899SOL    HW155594   9.353  14.156  10.323
17899SOL    HW255595   9.227  14.234  10.352
17900SOL     OW55596  11.747   6.839  11.638
17900SOL    HW155597  11.723   6.752  11.607
17900SOL    HW255598  11.681   6.897  11.600
17901SOL     OW55599   4.671   8.454   7.240
17901SOL    HW155600   4.663   8.472   7.146
17901SOL    HW255601   4.659   8.540   7.281
17902SOL     OW55602  10.155   8.032   8.538
17902SOL    HW155603  10.194   8.061   8.621
17902SOL    HW255604  10.104   8.106   8.508
17903SOL     OW55605   6.138   5.822   2.028
17903SOL    HW155606   6.061   5.768   2.015
17903SOL    HW255607   6.152   5.865   1.944
17904SOL     OW55608   0.105  14.361   9.153
17904SOL    HW155609   0.117  14.453   9.131
17904SOL    HW255610   0.188  14.320   9.131
17905SOL     OW55611  14.789   3.750  10.266
17905SOL    HW155612  14.810   3.745  10.359
17905SOL    HW255613  14.867   3.716  10.222
17906SOL     OW55614   1.037  12.141   5.832
17906SOL    HW155615   1.009  12.228   5.804
17906SOL    HW255616   0.978  12.119   5.905
17907SOL     OW55617   5.428  13.658   5.762
17907SOL    HW155618   5.459  13.653   5.852
17907SOL    HW255619   5.357  13.593   5.757
17908SOL     OW55620   4.398  14.230  10.621
17908SOL    HW155621   4.339  14.164  10.658
17908SOL    HW255622   4.485  14.203  10.649
17909SOL     OW55623   2.861  12.389   3.831
17909SOL    HW155624   2.957  12.397   3.832
17909SOL    HW255625   2.835  12.415   3.920
17910SOL     OW55626   7.159  14.486   5.699
17910SOL    HW155627   7.131  14.540   5.774
17910SOL    HW255628   7.254  14.494   5.698
17911SOL     OW55629  10.544   1.182   0.482
17911SOL    HW155630  10.475   1.248   0.475
17911SOL    HW255631  10.576   1.170   0.393
17912SOL     OW55632   4.924  10.188  10.221
17912SOL    HW155633   4.946  10.183  10.315
17912SOL    HW255634   4.999  10.233  10.182
17913SOL     OW55635   8.231   0.533  10.379
17913SOL    HW155636   8.150   0.542  10.328
17913SOL    HW255637   8.268   0.450  10.349
17914SOL     OW55638  11.562   5.312   7.907
17914SOL    HW155639  11.467   5.320   7.900
17914SOL    HW255640  11.591   5.281   7.821
17915SOL     OW55641   2.411   6.657   4.426
17915SOL    HW155642   2.501   6.669   4.397
17915SOL    HW255643   2.407   6.564   4.450
17916SOL     OW55644   7.681  11.102   4.925
17916SOL    HW155645   7.737  11.027   4.906
17916SOL    HW255646   7.742  11.174   4.940
17917SOL     OW55647   3.875  13.154  14.265
17917SOL    HW155648   3.820  13.110  14.201
17917SOL    HW255649   3.848  13.118  14.349
17918SOL     OW55650   5.794   3.751   9.853
17918SOL    HW155651   5.733   3.681   9.876
17918SOL    HW255652   5.804   3.745   9.758
17919SOL     OW55653  11.863  10.225  12.072
17919SOL    HW155654  11.790  10.169  12.096
17919SOL    HW255655  11.859  10.231  11.976
17920SOL     OW55656  14.770  10.125   7.107
17920SOL    HW155657  14.710  10.065   7.062
17920SOL    HW255658  14.732  10.211   7.093
17921SOL     OW55659   3.872  10.000  12.923
17921SOL    HW155660   3.950   9.969  12.969
17921SOL    HW255661   3.871  10.095  12.939
17922SOL     OW55662   4.907   5.731   4.833
17922SOL    HW155663   4.999   5.714   4.813
17922SOL    HW255664   4.900   5.713   4.926
17923SOL     OW55665   1.932   5.940   2.276
17923SOL    HW155666   1.853   5.890   2.256
17923SOL    HW255667   1.998   5.874   2.297
17924SOL     OW55668   5.822   7.029   3.967
17924SOL    HW155669   5.905   7.072   3.984
17924SOL    HW255670   5.844   6.952   3.915
17925SOL     OW55671   7.827   7.011  12.539
17925SOL    HW155672   7.880   7.037  12.465
17925SOL    HW255673   7.837   7.083  12.602
17926SOL     OW55674   2.243  14.090   9.541
17926SOL    HW155675   2.287  14.123   9.619
17926SOL    HW255676   2.154  14.071   9.570
17927SOL     OW55677   3.534   3.870   8.470
17927SOL    HW155678   3.578   3.903   8.392
17927SOL    HW255679   3.451   3.835   8.437
17928SOL     OW55680  13.248  11.048   5.559
17928SOL    HW155681  13.273  11.031   5.468
17928SOL    HW255682  13.246  11.143   5.566
17929SOL     OW55683  14.428   7.515   5.256
17929SOL    HW155684  14.478   7.581   5.209
17929SOL    HW255685  14.494   7.457   5.295
17930SOL     OW55686   8.314  13.805  11.297
17930SOL    HW155687   8.281  13.731  11.347
17930SOL    HW255688   8.385  13.841  11.351
17931SOL     OW55689   8.348   0.041  14.575
17931SOL    HW155690   8.312  14.876  14.653
17931SOL    HW255691   8.442   0.045  14.591
17932SOL     OW55692   9.604   8.766   7.375
17932SOL    HW155693   9.668   8.836   7.384
17932SOL    HW255694   9.520   8.811   7.361
17933SOL     OW55695  13.782  13.269  10.099
17933SOL    HW155696  13.700  13.260  10.050
17933SOL    HW255697  13.756  13.256  10.191
17934SOL     OW55698  11.734   0.642   4.095
17934SOL    HW155699  11.695   0.722   4.129
17934SOL    HW255700  11.709   0.640   4.003
17935SOL     OW55701   2.993  12.316   9.694
17935SOL    HW155702   2.909  12.281   9.664
17935SOL    HW255703   3.000  12.402   9.652
17936SOL     OW55704   0.893   3.769   1.735
17936SOL    HW155705   0.828   3.798   1.799
17936SOL    HW255706   0.852   3.694   1.692
17937SOL     OW55707  12.708   0.073   7.048
17937SOL    HW155708  12.721   0.168   7.052
17937SOL    HW255709  12.795   0.038   7.026
17938SOL     OW55710   6.035   6.332   9.840
17938SOL    HW155711   6.038   6.353   9.746
17938SOL    HW255712   5.961   6.383   9.873
17939SOL     OW55713   0.261   5.230  14.374
17939SOL    HW155714   0.170   5.217  14.349
17939SOL    HW255715   0.310   5.166  14.322
17940SOL     OW55716  13.122  13.996   9.488
17940SOL    HW155717  13.174  13.994   9.408
17940SOL    HW255718  13.089  14.085   9.494
17941SOL     OW55719  12.951   8.932  12.507
17941SOL    HW155720  13.029   8.987  12.499
17941SOL    HW255721  12.880   8.993  12.523
17942SOL     OW55722   8.597   6.898   6.516
17942SOL    HW155723   8.563   6.985   6.533
17942SOL    HW255724   8.583   6.851   6.599
17943SOL     OW55725   7.433  14.180   8.476
17943SOL    HW155726   7.449  14.237   8.551
17943SOL    HW255727   7.492  14.105   8.489
17944SOL     OW55728  12.253   6.210   7.701
17944SOL    HW155729  12.247   6.300   7.668
17944SOL    HW255730  12.345   6.201   7.727
17945SOL     OW55731  12.105  10.827   4.600
17945SOL    HW155732  12.134  10.918   4.607
17945SOL    HW255733  12.017  10.833   4.562
17946SOL     OW55734   2.240   5.842   5.499
17946SOL    HW155735   2.322   5.834   5.548
17946SOL    HW255736   2.206   5.753   5.494
17947SOL     OW55737   9.941  12.505   3.728
17947SOL    HW155738   9.898  12.521   3.812
17947SOL    HW255739   9.873  12.469   3.672
17948SOL     OW55740  11.327  11.093   7.942
17948SOL    HW155741  11.384  11.122   8.014
17948SOL    HW255742  11.367  11.130   7.864
17949SOL     OW55743   5.225   5.098  14.262
17949SOL    HW155744   5.134   5.101  14.292
17949SOL    HW255745   5.224   5.142  14.177
17950SOL     OW55746  12.023   6.784   4.461
17950SOL    HW155747  11.962   6.785   4.387
17950SOL    HW255748  12.039   6.692   4.478
17951SOL     OW55749   2.785   5.924   9.856
17951SOL    HW155750   2.737   5.846   9.880
17951SOL    HW255751   2.865   5.891   9.815
17952SOL     OW55752   5.502  12.995   4.211
17952SOL    HW155753   5.419  13.041   4.204
17952SOL    HW255754   5.483  12.906   4.181
17953SOL     OW55755   7.423   2.449   0.968
17953SOL    HW155756   7.454   2.401   0.891
17953SOL    HW255757   7.494   2.510   0.988
17954SOL     OW55758   3.728  13.056   3.041
17954SOL    HW155759   3.690  13.008   3.114
17954SOL    HW255760   3.687  13.142   3.045
17955SOL     OW55761  11.463   7.310   4.677
17955SOL    HW155762  11.469   7.216   4.659
17955SOL    HW255763  11.464   7.351   4.591
17956SOL     OW55764   9.931   1.183   7.991
17956SOL    HW155765   9.903   1.144   7.908
17956SOL    HW255766  10.025   1.169   7.994
17957SOL     OW55767   8.113  11.328   2.535
17957SOL    HW155768   8.206  11.346   2.519
17957SOL    HW255769   8.071  11.414   2.538
17958SOL     OW55770   5.507   4.416   0.220
17958SOL    HW155771   5.462   4.377   0.295
17958SOL    HW255772   5.494   4.510   0.231
17959SOL     OW55773   5.203   9.899  12.025
17959SOL    HW155774   5.252   9.818  12.038
17959SOL    HW255775   5.227   9.954  12.099
17960SOL     OW55776  10.963  11.264  13.364
17960SOL    HW155777  10.924  11.185  13.326
17960SOL    HW255778  11.010  11.304  13.291
17961SOL     OW55779   9.263  12.156   4.929
17961SOL    HW155780   9.213  12.113   4.999
17961SOL    HW255781   9.310  12.085   4.886
17962SOL     OW55782   5.961  10.715   2.319
17962SOL    HW155783   5.925  10.628   2.306
17962SOL    HW255784   5.997  10.715   2.407
17963SOL     OW55785   7.923  11.160   3.060
17963SOL    HW155786   7.857  11.170   2.992
17963SOL    HW255787   8.005  11.187   3.018
17964SOL     OW55788   6.717   5.200   0.538
17964SOL    HW155789   6.734   5.278   0.485
17964SOL    HW255790   6.745   5.127   0.483
17965SOL     OW55791   2.688   3.156  10.692
17965SOL    HW155792   2.611   3.193  10.649
17965SOL    HW255793   2.762   3.189  10.641
17966SOL     OW55794   6.718   0.011  14.401
17966SOL    HW155795   6.652   0.046  14.461
17966SOL    HW255796   6.789  14.858  14.458
17967SOL     OW55797  13.016   6.746  10.370
17967SOL    HW155798  13.030   6.750  10.465
17967SOL    HW255799  13.009   6.837  10.343
17968SOL     OW55800  13.378   3.235  11.984
17968SOL    HW155801  13.378   3.159  12.043
17968SOL    HW255802  13.422   3.304  12.033
17969SOL     OW55803   3.706   2.002  11.112
17969SOL    HW155804   3.629   2.018  11.165
17969SOL    HW255805   3.775   1.981  11.175
17970SOL     OW55806   4.822  14.859   4.250
17970SOL    HW155807   4.877   0.035   4.192
17970SOL    HW255808   4.733   0.013   4.233
17971SOL     OW55809   4.381   5.655   7.846
17971SOL    HW155810   4.411   5.617   7.764
17971SOL    HW255811   4.412   5.746   7.844
17972SOL     OW55812   4.085   9.901   8.300
17972SOL    HW155813   4.139   9.955   8.358
17972SOL    HW255814   4.142   9.881   8.226
17973SOL     OW55815  11.335   6.254   9.960
17973SOL    HW155816  11.347   6.235  10.053
17973SOL    HW255817  11.296   6.174   9.924
17974SOL     OW55818   5.189   6.701   6.787
17974SOL    HW155819   5.112   6.753   6.766
17974SOL    HW255820   5.196   6.704   6.882
17975SOL     OW55821  13.454   0.867  12.206
17975SOL    HW155822  13.430   0.885  12.297
17975SOL    HW255823  13.481   0.952  12.171
17976SOL     OW55824   5.699  11.505   1.700
17976SOL    HW155825   5.629  11.470   1.645
17976SOL    HW255826   5.773  11.515   1.641
17977SOL     OW55827   5.501  12.066  12.244
17977SOL    HW155828   5.481  12.152  12.208
17977SOL    HW255829   5.461  12.065  12.331
17978SOL     OW55830   2.508   8.732  14.163
17978SOL    HW155831   2.487   8.783  14.085
17978SOL    HW255832   2.464   8.779  14.235
17979SOL     OW55833   4.545   2.068  14.451
17979SOL    HW155834   4.525   2.092  14.361
17979SOL    HW255835   4.562   2.151  14.495
17980SOL     OW55836  11.845   2.506  13.273
17980SOL    HW155837  11.816   2.590  13.307
17980SOL    HW255838  11.804   2.499  13.187
17981SOL     OW55839   5.485   0.099  13.501
17981SOL    HW155840   5.467   0.026  13.560
17981SOL    HW255841   5.561   0.071  13.450
17982SOL     OW55842  10.455  13.260  12.619
17982SOL    HW155843  10.549  13.280  12.617
17982SOL    HW255844  10.416  13.327  12.562
17983SOL     OW55845   2.292  12.184   7.686
17983SOL    HW155846   2.279  12.161   7.595
17983SOL    HW255847   2.385  12.204   7.693
17984SOL     OW55848   6.119   7.972   5.552
17984SOL    HW155849   6.200   7.922   5.566
17984SOL    HW255850   6.145   8.064   5.566
17985SOL     OW55851   5.346   2.352  13.186
17985SOL    HW155852   5.323   2.274  13.137
17985SOL    HW255853   5.408   2.399  13.129
17986SOL     OW55854   0.380   6.055   8.083
17986SOL    HW155855   0.422   6.134   8.117
17986SOL    HW255856   0.432   5.983   8.119
17987SOL     OW55857  14.222  10.313  13.388
17987SOL    HW155858  14.137  10.273  13.410
17987SOL    HW255859  14.217  10.331  13.294
17988SOL     OW55860   3.452   1.147   7.591
17988SOL    HW155861   3.384   1.178   7.651
17988SOL    HW255862   3.495   1.227   7.560
17989SOL     OW55863   7.447   3.295  14.286
17989SOL    HW155864   7.432   3.364  14.222
17989SOL    HW255865   7.496   3.227  14.239
17990SOL     OW55866  14.136  12.049  11.196
17990SOL    HW155867  14.188  11.987  11.145
17990SOL    HW255868  14.123  12.123  11.136
17991SOL     OW55869  10.983   4.036  12.352
17991SOL    HW155870  10.984   4.086  12.271
17991SOL    HW255871  11.063   4.062  12.398
17992SOL     OW55872  10.265   8.623  14.224
17992SOL    HW155873  10.243   8.529  14.221
17992SOL    HW255874  10.339   8.632  14.164
17993SOL     OW55875   1.284   7.050  10.913
17993SOL    HW155876   1.379   7.051  10.923
17993SOL    HW255877   1.250   7.058  11.002
17994SOL     OW55878  13.935   1.402  14.386
17994SOL    HW155879  14.010   1.397  14.446
17994SOL    HW255880  13.865   1.441  14.439
17995SOL     OW55881   7.935   0.969   7.616
17995SOL    HW155882   7.942   0.986   7.522
17995SOL    HW255883   7.986   0.889   7.630
17996SOL     OW55884   4.765   6.485  12.588
17996SOL    HW155885   4.671   6.490  12.568
17996SOL    HW255886   4.808   6.521  12.510
17997SOL     OW55887  12.051   2.120   3.811
17997SOL    HW155888  12.050   2.116   3.906
17997SOL    HW255889  12.102   2.043   3.784
17998SOL     OW55890  13.298  13.470   4.830
17998SOL    HW155891  13.283  13.410   4.903
17998SOL    HW255892  13.393  13.470   4.819
17999SOL     OW55893   9.514  10.571   3.257
17999SOL    HW155894   9.461  10.524   3.322
17999SOL    HW255895   9.472  10.552   3.173
18000SOL     OW55896  10.010  11.858   8.496
18000SOL    HW155897   9.938  11.916   8.471
18000SOL    HW255898  10.077  11.873   8.429
18001SOL     OW55899   8.219   7.970   1.429
18001SOL    HW155900   8.242   7.957   1.338
18001SOL    HW255901   8.207   7.881   1.463
18002SOL     OW55902  11.220   9.305   4.668
18002SOL    HW155903  11.196   9.212   4.662
18002SOL    HW255904  11.289   9.307   4.735
18003SOL     OW55905   3.336   4.424   3.764
18003SOL    HW155906   3.308   4.427   3.673
18003SOL    HW255907   3.431   4.428   3.761
18004SOL     OW55908   0.524   0.187   0.480
18004SOL    HW155909   0.514   0.192   0.575
18004SOL    HW255910   0.605   0.235   0.462
18005SOL     OW55911  10.183   6.605  10.832
18005SOL    HW155912  10.114   6.660  10.868
18005SOL    HW255913  10.230   6.662  10.771
18006SOL     OW55914  10.624   9.240   5.599
18006SOL    HW155915  10.711   9.262   5.566
18006SOL    HW255916  10.633   9.246   5.694
18007SOL     OW55917   4.051   6.547   1.726
18007SOL    HW155918   4.133   6.522   1.685
18007SOL    HW255919   4.044   6.492   1.804
18008SOL     OW55920   7.344   6.456   8.042
18008SOL    HW155921   7.421   6.512   8.038
18008SOL    HW255922   7.374   6.371   8.010
18009SOL     OW55923   4.006   9.258   1.985
18009SOL    HW155924   4.099   9.280   1.982
18009SOL    HW255925   3.982   9.245   1.893
18010SOL     OW55926   5.941   0.371   0.506
18010SOL    HW155927   5.947   0.297   0.568
18010SOL    HW255928   5.889   0.436   0.552
18011SOL     OW55929   3.102   6.202  11.018
18011SOL    HW155930   3.158   6.260  11.070
18011SOL    HW255931   3.071   6.258  10.946
18012SOL     OW55932   8.937   3.735   1.107
18012SOL    HW155933   9.031   3.715   1.106
18012SOL    HW255934   8.894   3.650   1.117
18013SOL     OW55935   8.804  11.851   8.798
18013SOL    HW155936   8.789  11.946   8.806
18013SOL    HW255937   8.786  11.817   8.885
18014SOL     OW55938   0.036   7.915  12.575
18014SOL    HW155939   0.038   7.845  12.641
18014SOL    HW255940   0.128   7.936  12.560
18015SOL     OW55941   3.324   0.789   8.914
18015SOL    HW155942   3.237   0.752   8.925
18015SOL    HW255943   3.318   0.879   8.945
18016SOL     OW55944   5.179   0.825   1.306
18016SOL    HW155945   5.091   0.805   1.275
18016SOL    HW255946   5.173   0.821   1.401
18017SOL     OW55947  13.717  12.833   0.516
18017SOL    HW155948  13.763  12.758   0.478
18017SOL    HW255949  13.625  12.810   0.511
18018SOL     OW55950  12.095  13.147   4.705
18018SOL    HW155951  12.126  13.203   4.775
18018SOL    HW255952  12.059  13.207   4.640
18019SOL     OW55953  11.929   3.218   9.253
18019SOL    HW155954  11.953   3.305   9.284
18019SOL    HW255955  11.837   3.226   9.227
18020SOL     OW55956   6.885   6.325   0.378
18020SOL    HW155957   6.908   6.248   0.325
18020SOL    HW255958   6.790   6.331   0.371
18021SOL     OW55959   4.067  10.377   5.355
18021SOL    HW155960   4.161  10.393   5.365
18021SOL    HW255961   4.057  10.285   5.380
18022SOL     OW55962   6.277   3.627   9.949
18022SOL    HW155963   6.334   3.661   9.880
18022SOL    HW255964   6.314   3.663  10.030
18023SOL     OW55965  10.837  10.674  11.639
18023SOL    HW155966  10.896  10.603  11.615
18023SOL    HW255967  10.894  10.743  11.672
18024SOL     OW55968   7.060  10.964   6.054
18024SOL    HW155969   7.118  10.888   6.048
18024SOL    HW255970   7.118  11.039   6.065
18025SOL     OW55971  10.390   7.161   9.588
18025SOL    HW155972  10.409   7.224   9.519
18025SOL    HW255973  10.467   7.164   9.645
18026SOL     OW55974   5.225  11.653   3.375
18026SOL    HW155975   5.210  11.577   3.319
18026SOL    HW255976   5.169  11.721   3.339
18027SOL     OW55977  10.970   8.190   7.101
18027SOL    HW155978  11.021   8.110   7.118
18027SOL    HW255979  10.989   8.212   7.010
18028SOL     OW55980   4.551   7.534   9.522
18028SOL    HW155981   4.633   7.512   9.567
18028SOL    HW255982   4.485   7.479   9.564
18029SOL     OW55983   9.872   7.291   4.848
18029SOL    HW155984   9.933   7.363   4.832
18029SOL    HW255985   9.924   7.212   4.836
18030SOL     OW55986   1.381  14.167   3.582
18030SOL    HW155987   1.417  14.225   3.649
18030SOL    HW255988   1.439  14.090   3.582
18031SOL     OW55989   0.686  11.093  12.569
18031SOL    HW155990   0.731  11.010  12.553
18031SOL    HW255991   0.595  11.074  12.548
18032SOL     OW55992   3.015  11.565  14.189
18032SOL    HW155993   3.047  11.578  14.099
18032SOL    HW255994   2.940  11.507  14.179
18033SOL     OW55995   8.874   4.816   4.313
18033SOL    HW155996   8.911   4.828   4.225
18033SOL    HW255997   8.817   4.892   4.325
18034SOL     OW55998   0.711   9.940  14.046
18034SOL    HW155999   0.787   9.885  14.060
18034SOL    HW256000   0.732   9.990  13.966
18035SOL     OW56001   6.512   2.445  14.524
18035SOL    HW156002   6.474   2.523  14.563
18035SOL    HW256003   6.600   2.439  14.562
18036SOL     OW56004  10.950  13.757   1.172
18036SOL    HW156005  11.006  13.685   1.202
18036SOL    HW256006  10.888  13.715   1.111
18037SOL     OW56007   3.357  10.532   8.044
18037SOL    HW156008   3.407  10.483   8.110
18037SOL    HW256009   3.405  10.518   7.962
18038SOL     OW56010  10.612   0.193   4.483
18038SOL    HW156011  10.519   0.204   4.502
18038SOL    HW256012  10.615   0.128   4.413
18039SOL     OW56013  11.803   7.872   7.554
18039SOL    HW156014  11.792   7.908   7.642
18039SOL    HW256015  11.788   7.778   7.564
18040SOL     OW56016   1.284   8.906   6.426
18040SOL    HW156017   1.329   8.949   6.354
18040SOL    HW256018   1.267   8.976   6.489
18041SOL     OW56019  10.297   2.184  14.791
18041SOL    HW156020  10.225   2.231  14.749
18041SOL    HW256021  10.338   2.249  14.848
18042SOL     OW56022   9.361  11.444  12.762
18042SOL    HW156023   9.314  11.518  12.802
18042SOL    HW256024   9.302  11.414  12.692
18043SOL     OW56025   4.372   9.143  14.237
18043SOL    HW156026   4.298   9.092  14.202
18043SOL    HW256027   4.403   9.194  14.162
18044SOL     OW56028   1.166   1.408   5.349
18044SOL    HW156029   1.202   1.427   5.436
18044SOL    HW256030   1.078   1.446   5.350
18045SOL     OW56031  11.236  13.811   5.544
18045SOL    HW156032  11.214  13.904   5.539
18045SOL    HW256033  11.220  13.788   5.635
18046SOL     OW56034  10.442   0.131   7.409
18046SOL    HW156035  10.478   0.131   7.320
18046SOL    HW256036  10.513   0.095   7.463
18047SOL     OW56037  12.881   8.662   9.686
18047SOL    HW156038  12.856   8.630   9.773
18047SOL    HW256039  12.935   8.739   9.704
18048SOL     OW56040  12.531   6.633   2.604
18048SOL    HW156041  12.526   6.543   2.571
18048SOL    HW256042  12.613   6.636   2.653
18049SOL     OW56043  12.142   6.969   5.410
18049SOL    HW156044  12.064   6.958   5.465
18049SOL    HW256045  12.170   7.059   5.426
18050SOL     OW56046  14.111   5.613   1.580
18050SOL    HW156047  14.045   5.656   1.634
18050SOL    HW256048  14.186   5.600   1.638
18051SOL     OW56049  13.391   2.989   9.952
18051SOL    HW156050  13.429   3.075   9.969
18051SOL    HW256051  13.372   2.953  10.039
18052SOL     OW56052   3.264   6.637   3.798
18052SOL    HW156053   3.220   6.684   3.726
18052SOL    HW256054   3.354   6.628   3.769
18053SOL     OW56055  12.806  12.660  11.930
18053SOL    HW156056  12.866  12.732  11.913
18053SOL    HW256057  12.719  12.701  11.934
18054SOL     OW56058   7.864  12.774   7.892
18054SOL    HW156059   7.800  12.726   7.840
18054SOL    HW256060   7.900  12.840   7.833
18055SOL     OW56061   0.345   4.130   1.476
18055SOL    HW156062   0.410   4.194   1.506
18055SOL    HW256063   0.317   4.163   1.390
18056SOL     OW56064  10.150   6.504   4.381
18056SOL    HW156065  10.143   6.435   4.315
18056SOL    HW256066  10.243   6.529   4.379
18057SOL     OW56067   6.021   1.605   9.236
18057SOL    HW156068   5.928   1.622   9.253
18057SOL    HW256069   6.049   1.550   9.309
18058SOL     OW56070  12.575  14.146  14.765
18058SOL    HW156071  12.670  14.147  14.774
18058SOL    HW256072  12.546  14.077  14.825
18059SOL     OW56073   4.555   7.750   6.735
18059SOL    HW156074   4.530   7.658   6.746
18059SOL    HW256075   4.609   7.770   6.811
18060SOL     OW56076  11.216   1.726  13.840
18060SOL    HW156077  11.202   1.818  13.814
18060SOL    HW256078  11.134   1.702  13.883
18061SOL     OW56079   5.874   5.517  11.959
18061SOL    HW156080   5.949   5.543  11.906
18061SOL    HW256081   5.897   5.544  12.048
18062SOL     OW56082   8.136   4.351  14.649
18062SOL    HW156083   8.155   4.281  14.712
18062SOL    HW256084   8.220   4.395  14.637
18063SOL     OW56085   7.252   9.887   9.320
18063SOL    HW156086   7.290   9.925   9.399
18063SOL    HW256087   7.157   9.894   9.333
18064SOL     OW56088   2.574   8.274   6.577
18064SOL    HW156089   2.655   8.293   6.531
18064SOL    HW256090   2.582   8.183   6.605
18065SOL     OW56091   4.085  12.612   2.226
18065SOL    HW156092   3.991  12.630   2.228
18065SOL    HW256093   4.091  12.523   2.190
18066SOL     OW56094  10.565  11.348   1.137
18066SOL    HW156095  10.474  11.346   1.109
18066SOL    HW256096  10.597  11.434   1.111
18067SOL     OW56097   1.613   9.272   8.709
18067SOL    HW156098   1.602   9.347   8.650
18067SOL    HW256099   1.607   9.309   8.797
18068SOL     OW56100   8.688  10.457   6.795
18068SOL    HW156101   8.643  10.515   6.857
18068SOL    HW256102   8.684  10.371   6.836
18069SOL     OW56103   9.597   5.109  10.071
18069SOL    HW156104   9.562   5.069  10.150
18069SOL    HW256105   9.565   5.055   9.999
18070SOL     OW56106  12.816  13.578   0.118
18070SOL    HW156107  12.879  13.586   0.046
18070SOL    HW256108  12.842  13.498   0.163
18071SOL     OW56109   5.500   3.611  11.697
18071SOL    HW156110   5.487   3.632  11.790
18071SOL    HW256111   5.530   3.692  11.657
18072SOL     OW56112  13.989   8.109   0.780
18072SOL    HW156113  14.041   8.040   0.821
18072SOL    HW256114  13.899   8.091   0.809
18073SOL     OW56115   3.092   5.915   6.870
18073SOL    HW156116   3.093   5.960   6.785
18073SOL    HW256117   3.178   5.935   6.908
18074SOL     OW56118  13.452   6.126  11.547
18074SOL    HW156119  13.458   6.212  11.504
18074SOL    HW256120  13.426   6.066  11.477
18075SOL     OW56121   9.637  14.824   9.508
18075SOL    HW156122   9.564  14.780   9.551
18075SOL    HW256123   9.705  14.829   9.576
18076SOL     OW56124   5.827   4.948  10.289
18076SOL    HW156125   5.784   4.899  10.219
18076SOL    HW256126   5.833   5.038  10.256
18077SOL     OW56127   6.309   5.318  12.110
18077SOL    HW156128   6.304   5.235  12.157
18077SOL    HW256129   6.403   5.334  12.099
18078SOL     OW56130  11.776   8.864   3.429
18078SOL    HW156131  11.869   8.839   3.433
18078SOL    HW256132  11.769   8.935   3.493
18079SOL     OW56133   5.734   2.950   7.277
18079SOL    HW156134   5.807   2.923   7.221
18079SOL    HW256135   5.718   2.875   7.334
18080SOL     OW56136  14.349   6.528  11.943
18080SOL    HW156137  14.306   6.569  12.018
18080SOL    HW256138  14.278   6.483  11.896
18081SOL     OW56139  12.218   7.906   1.455
18081SOL    HW156140  12.249   7.992   1.427
18081SOL    HW256141  12.123   7.911   1.447
18082SOL     OW56142  11.606  14.513   7.034
18082SOL    HW156143  11.626  14.537   6.944
18082SOL    HW256144  11.680  14.460   7.063
18083SOL     OW56145   2.286   2.413   2.067
18083SOL    HW156146   2.297   2.502   2.032
18083SOL    HW256147   2.355   2.405   2.133
18084SOL     OW56148   8.665   9.072   1.612
18084SOL    HW156149   8.648   9.051   1.520
18084SOL    HW256150   8.614   9.152   1.628
18085SOL     OW56151   6.139  12.644  13.300
18085SOL    HW156152   6.124  12.729  13.259
18085SOL    HW256153   6.214  12.607  13.252
18086SOL     OW56154  11.265   4.486   7.517
18086SOL    HW156155  11.211   4.435   7.457
18086SOL    HW256156  11.346   4.436   7.527
18087SOL     OW56157   3.865   9.162  13.712
18087SOL    HW156158   3.925   9.230  13.743
18087SOL    HW256159   3.788   9.210  13.680
18088SOL     OW56160   9.750   4.928  11.711
18088SOL    HW156161   9.761   4.942  11.617
18088SOL    HW256162   9.797   5.001  11.751
18089SOL     OW56163   4.242  13.025   9.618
18089SOL    HW156164   4.242  12.969   9.695
18089SOL    HW256165   4.311  13.090   9.635
18090SOL     OW56166   3.386   9.295   4.925
18090SOL    HW156167   3.294   9.276   4.943
18090SOL    HW256168   3.428   9.295   5.011
18091SOL     OW56169   6.400   3.454   4.579
18091SOL    HW156170   6.342   3.394   4.532
18091SOL    HW256171   6.346   3.490   4.649
18092SOL     OW56172   1.808  12.522   5.930
18092SOL    HW156173   1.731  12.529   5.986
18092SOL    HW256174   1.787  12.452   5.868
18093SOL     OW56175  11.202   2.398  14.578
18093SOL    HW156176  11.218   2.410  14.484
18093SOL    HW256177  11.108   2.382  14.584
18094SOL     OW56178   9.295   5.201  14.260
18094SOL    HW156179   9.368   5.221  14.202
18094SOL    HW256180   9.329   5.218  14.348
18095SOL     OW56181  12.630   4.550  14.151
18095SOL    HW156182  12.579   4.606  14.092
18095SOL    HW256183  12.703   4.520  14.097
18096SOL     OW56184  12.443  10.818   5.833
18096SOL    HW156185  12.495  10.886   5.876
18096SOL    HW256186  12.507  10.752   5.808
18097SOL     OW56187  11.236  11.533   4.841
18097SOL    HW156188  11.142  11.537   4.823
18097SOL    HW256189  11.245  11.569   4.929
18098SOL     OW56190  10.365   1.929  14.860
18098SOL    HW156191  10.355   2.015  14.818
18098SOL    HW256192  10.276   1.894  14.862
18099SOL     OW56193   5.633   6.212   1.780
18099SOL    HW156194   5.716   6.256   1.763
18099SOL    HW256195   5.637   6.190   1.874
18100SOL     OW56196   8.891   6.749   5.219
18100SOL    HW156197   8.942   6.753   5.300
18100SOL    HW256198   8.919   6.668   5.177
18101SOL     OW56199  10.896   8.499   6.733
18101SOL    HW156200  10.804   8.483   6.752
18101SOL    HW256201  10.929   8.416   6.699
18102SOL     OW56202   6.631  12.802   6.788
18102SOL    HW156203   6.710  12.751   6.808
18102SOL    HW256204   6.632  12.873   6.852
18103SOL     OW56205   1.537  11.875  13.215
18103SOL    HW156206   1.573  11.953  13.257
18103SOL    HW256207   1.442  11.890  13.215
18104SOL     OW56208   0.480   2.498   6.043
18104SOL    HW156209   0.431   2.456   6.113
18104SOL    HW256210   0.493   2.588   6.074
18105SOL     OW56211   4.514  13.334   2.912
18105SOL    HW156212   4.509  13.430   2.906
18105SOL    HW256213   4.486  13.304   2.826
18106SOL     OW56214  10.107  10.620   8.134
18106SOL    HW156215  10.160  10.688   8.092
18106SOL    HW256216  10.156  10.596   8.212
18107SOL     OW56217   1.699   8.014   6.413
18107SOL    HW156218   1.612   7.987   6.384
18107SOL    HW256219   1.759   7.954   6.370
18108SOL     OW56220   5.803   3.763  14.039
18108SOL    HW156221   5.789   3.687  14.095
18108SOL    HW256222   5.734   3.757  13.973
18109SOL     OW56223   7.695   4.169  14.055
18109SOL    HW156224   7.617   4.141  14.101
18109SOL    HW256225   7.767   4.129  14.104
18110SOL     OW56226  13.064   2.329   2.246
18110SOL    HW156227  13.142   2.341   2.192
18110SOL    HW256228  13.054   2.235   2.253
18111SOL     OW56229   0.501   5.250   8.309
18111SOL    HW156230   0.429   5.260   8.371
18111SOL    HW256231   0.513   5.156   8.301
18112SOL     OW56232   5.694   6.230   3.987
18112SOL    HW156233   5.684   6.174   4.063
18112SOL    HW256234   5.773   6.281   4.005
18113SOL     OW56235   5.979   7.379   6.394
18113SOL    HW156236   5.916   7.333   6.449
18113SOL    HW256237   6.009   7.312   6.332
18114SOL     OW56238  12.237   4.517   6.578
18114SOL    HW156239  12.187   4.442   6.547
18114SOL    HW256240  12.198   4.538   6.663
18115SOL     OW56241   4.852   9.986   4.480
18115SOL    HW156242   4.861  10.071   4.437
18115SOL    HW256243   4.940   9.966   4.512
18116SOL     OW56244   2.975   9.043   3.993
18116SOL    HW156245   3.053   8.993   3.970
18116SOL    HW256246   2.942   9.076   3.910
18117SOL     OW56247  13.388   3.708   1.522
18117SOL    HW156248  13.327   3.737   1.454
18117SOL    HW256249  13.460   3.771   1.517
18118SOL     OW56250   2.327  12.729   9.716
18118SOL    HW156251   2.341  12.645   9.760
18118SOL    HW256252   2.275  12.708   9.639
18119SOL     OW56253   9.976   6.030   9.180
18119SOL    HW156254   9.950   6.114   9.218
18119SOL    HW256255   9.975   5.970   9.254
18120SOL     OW56256   8.813   9.203  13.801
18120SOL    HW156257   8.776   9.136  13.858
18120SOL    HW256258   8.886   9.239  13.852
18121SOL     OW56259  12.619  11.415   0.108
18121SOL    HW156260  12.601  11.436   0.016
18121SOL    HW256261  12.709  11.443   0.122
18122SOL     OW56262  14.753   4.900  11.259
18122SOL    HW156263  14.792   4.833  11.203
18122SOL    HW256264  14.770   4.983  11.213
18123SOL     OW56265  14.143   8.987   9.796
18123SOL    HW156266  14.231   8.955   9.775
18123SOL    HW256267  14.088   8.947   9.729
18124SOL     OW56268  12.741   6.354  10.756
18124SOL    HW156269  12.701   6.267  10.756
18124SOL    HW256270  12.819   6.344  10.703
18125SOL     OW56271   1.674   9.829  14.647
18125SOL    HW156272   1.746   9.864  14.595
18125SOL    HW256273   1.651   9.746  14.604
18126SOL     OW56274   3.092   5.030   9.954
18126SOL    HW156275   3.127   4.952   9.912
18126SOL    HW256276   3.169   5.075   9.990
18127SOL     OW56277  10.786   6.259   9.534
18127SOL    HW156278  10.760   6.346   9.562
18127SOL    HW256279  10.838   6.224   9.606
18128SOL     OW56280  13.114   8.868   9.448
18128SOL    HW156281  13.024   8.865   9.417
18128SOL    HW256282  13.107   8.891   9.541
18129SOL     OW56283   9.916   8.537  12.732
18129SOL    HW156284   9.844   8.518  12.672
18129SOL    HW256285   9.916   8.632  12.741
18130SOL     OW56286  10.513   2.910  10.289
18130SOL    HW156287  10.608   2.900  10.277
18130SOL    HW256288  10.475   2.842  10.233
18131SOL     OW56289   3.568   2.752  11.152
18131SOL    HW156290   3.547   2.841  11.181
18131SOL    HW256291   3.484   2.707  11.147
18132SOL     OW56292   4.894   2.431   9.813
18132SOL    HW156293   4.829   2.489   9.853
18132SOL    HW256294   4.955   2.489   9.769
18133SOL     OW56295   7.727  13.728   3.636
18133SOL    HW156296   7.790  13.694   3.700
18133SOL    HW256297   7.688  13.804   3.680
18134SOL     OW56298  10.191   4.348   8.323
18134SOL    HW156299  10.204   4.400   8.403
18134SOL    HW256300  10.115   4.389   8.280
18135SOL     OW56301   4.892   9.238  13.925
18135SOL    HW156302   4.826   9.208  13.863
18135SOL    HW256303   4.968   9.258  13.870
18136SOL     OW56304  14.311  11.901  11.020
18136SOL    HW156305  14.302  11.942  10.934
18136SOL    HW256306  14.301  11.807  11.004
18137SOL     OW56307  12.761  11.908  10.739
18137SOL    HW156308  12.717  11.933  10.820
18137SOL    HW256309  12.831  11.849  10.765
18138SOL     OW56310   3.651   8.961   2.305
18138SOL    HW156311   3.678   8.902   2.236
18138SOL    HW256312   3.556   8.968   2.295
18139SOL     OW56313   0.645  11.785   1.495
18139SOL    HW156314   0.553  11.779   1.468
18139SOL    HW256315   0.659  11.878   1.511
18140SOL     OW56316   7.857   6.812   5.234
18140SOL    HW156317   7.857   6.832   5.328
18140SOL    HW256318   7.837   6.895   5.191
18141SOL     OW56319  10.813   1.497   9.082
18141SOL    HW156320  10.868   1.563   9.040
18141SOL    HW256321  10.734   1.494   9.028
18142SOL     OW56322  13.721  13.982  11.341
18142SOL    HW156323  13.754  13.905  11.294
18142SOL    HW256324  13.711  13.952  11.431
18143SOL     OW56325   9.289   2.791   9.346
18143SOL    HW156326   9.358   2.830   9.401
18143SOL    HW256327   9.240   2.866   9.312
18144SOL     OW56328   3.094   0.962   0.536
18144SOL    HW156329   3.035   0.910   0.482
18144SOL    HW256330   3.180   0.953   0.494
18145SOL     OW56331   9.618   8.139   2.701
18145SOL    HW156332   9.679   8.187   2.645
18145SOL    HW256333   9.673   8.079   2.751
18146SOL     OW56334   8.757  12.447   0.779
18146SOL    HW156335   8.730  12.491   0.698
18146SOL    HW256336   8.807  12.370   0.749
18147SOL     OW56337   8.767  10.943  12.477
18147SOL    HW156338   8.687  10.994  12.489
18147SOL    HW256339   8.786  10.950  12.384
18148SOL     OW56340   4.080   0.395   0.095
18148SOL    HW156341   4.006   0.454   0.078
18148SOL    HW256342   4.140   0.448   0.149
18149SOL     OW56343   4.956   6.499  14.634
18149SOL    HW156344   5.002   6.421  14.665
18149SOL    HW256345   4.990   6.570  14.687
18150SOL     OW56346   1.752   4.612  10.246
18150SOL    HW156347   1.695   4.574  10.313
18150SOL    HW256348   1.749   4.706  10.262
18151SOL     OW56349   2.886  11.814  13.441
18151SOL    HW156350   2.811  11.755  13.449
18151SOL    HW256351   2.860  11.892  13.490
18152SOL     OW56352   6.666   7.641   5.086
18152SOL    HW156353   6.731   7.611   5.023
18152SOL    HW256354   6.624   7.716   5.044
18153SOL     OW56355  11.969   7.990  11.018
18153SOL    HW156356  11.994   8.048  11.090
18153SOL    HW256357  11.900   8.038  10.972
18154SOL     OW56358   7.033   9.429   6.411
18154SOL    HW156359   7.069   9.516   6.398
18154SOL    HW256360   7.098   9.370   6.373
18155SOL     OW56361   7.167   3.387   3.552
18155SOL    HW156362   7.161   3.466   3.606
18155SOL    HW256363   7.260   3.365   3.550
18156SOL     OW56364   0.425  11.197   4.442
18156SOL    HW156365   0.519  11.213   4.437
18156SOL    HW256366   0.388  11.280   4.472
18157SOL     OW56367  11.714   1.434   5.355
18157SOL    HW156368  11.681   1.357   5.402
18157SOL    HW256369  11.665   1.435   5.273
18158SOL     OW56370   8.463  10.042  12.206
18158SOL    HW156371   8.511   9.987  12.268
18158SOL    HW256372   8.528  10.103  12.173
18159SOL     OW56373   9.603   2.070  10.308
18159SOL    HW156374   9.553   2.120  10.372
18159SOL    HW256375   9.635   2.137  10.246
18160SOL     OW56376   6.820  13.151  10.892
18160SOL    HW156377   6.758  13.217  10.861
18160SOL    HW256378   6.829  13.167  10.986
18161SOL     OW56379  13.449   8.975  13.507
18161SOL    HW156380  13.480   9.056  13.548
18161SOL    HW256381  13.409   8.925  13.578
18162SOL     OW56382   1.216   5.299  10.696
18162SOL    HW156383   1.196   5.326  10.786
18162SOL    HW256384   1.195   5.206  10.693
18163SOL     OW56385   2.608  12.776   5.695
18163SOL    HW156386   2.642  12.691   5.723
18163SOL    HW256387   2.629  12.835   5.767
18164SOL     OW56388   6.658   3.010   6.002
18164SOL    HW156389   6.631   2.972   6.085
18164SOL    HW256390   6.580   3.052   5.968
18165SOL     OW56391   8.054   2.696  11.128
18165SOL    HW156392   8.079   2.698  11.036
18165SOL    HW256393   7.965   2.662  11.128
18166SOL     OW56394  10.520  12.408   7.074
18166SOL    HW156395  10.457  12.446   7.136
18166SOL    HW256396  10.468  12.387   6.997
18167SOL     OW56397   1.812   1.530   8.358
18167SOL    HW156398   1.880   1.597   8.357
18167SOL    HW256399   1.743   1.567   8.414
18168SOL     OW56400   8.987   4.884   3.455
18168SOL    HW156401   8.892   4.881   3.440
18168SOL    HW256402   9.005   4.975   3.477
18169SOL     OW56403   5.009   5.970   7.294
18169SOL    HW156404   5.004   6.028   7.370
18169SOL    HW256405   5.103   5.968   7.272
18170SOL     OW56406   1.937   3.531   9.442
18170SOL    HW156407   1.937   3.472   9.367
18170SOL    HW256408   2.015   3.506   9.492
18171SOL     OW56409  11.209   7.512   2.049
18171SOL    HW156410  11.285   7.514   2.108
18171SOL    HW256411  11.216   7.428   2.005
18172SOL     OW56412   9.748  14.019   6.214
18172SOL    HW156413   9.703  14.104   6.225
18172SOL    HW256414   9.720  13.989   6.128
18173SOL     OW56415   0.607   7.876   1.251
18173SOL    HW156416   0.517   7.894   1.280
18173SOL    HW256417   0.643   7.819   1.320
18174SOL     OW56418   2.954   8.994   5.370
18174SOL    HW156419   3.021   8.937   5.333
18174SOL    HW256420   2.895   8.935   5.416
18175SOL     OW56421  13.701  13.004   3.870
18175SOL    HW156422  13.727  13.074   3.811
18175SOL    HW256423  13.616  12.975   3.836
18176SOL     OW56424   9.691  11.557  11.152
18176SOL    HW156425   9.652  11.592  11.072
18176SOL    HW256426   9.649  11.606  11.222
18177SOL     OW56427   3.649   3.858  14.725
18177SOL    HW156428   3.731   3.833  14.767
18177SOL    HW256429   3.584   3.799  14.764
18178SOL     OW56430  10.048   1.744   3.307
18178SOL    HW156431  10.117   1.783   3.360
18178SOL    HW256432  10.024   1.663   3.352
18179SOL     OW56433  10.209  11.080   4.267
18179SOL    HW156434  10.232  11.150   4.206
18179SOL    HW256435  10.114  11.073   4.262
18180SOL     OW56436   0.929   2.975   1.585
18180SOL    HW156437   0.959   2.885   1.597
18180SOL    HW256438   0.974   3.005   1.507
18181SOL     OW56439  13.896   1.378  13.074
18181SOL    HW156440  13.861   1.320  13.142
18181SOL    HW256441  13.960   1.432  13.119
18182SOL     OW56442  14.620   4.684   3.508
18182SOL    HW156443  14.655   4.750   3.567
18182SOL    HW256444  14.540   4.653   3.551
18183SOL     OW56445   2.595   1.346  14.066
18183SOL    HW156446   2.585   1.362  13.972
18183SOL    HW256447   2.506   1.340  14.099
18184SOL     OW56448  10.452  12.423  10.176
18184SOL    HW156449  10.485  12.512  10.161
18184SOL    HW256450  10.378  12.415  10.116
18185SOL     OW56451   7.870   8.998   6.913
18185SOL    HW156452   7.844   8.946   6.989
18185SOL    HW256453   7.946   9.047   6.943
18186SOL     OW56454   0.303  13.718   8.658
18186SOL    HW156455   0.224  13.757   8.696
18186SOL    HW256456   0.358  13.793   8.634
18187SOL     OW56457   7.228  14.781   3.536
18187SOL    HW156458   7.281  14.861   3.540
18187SOL    HW256459   7.262  14.726   3.606
18188SOL     OW56460   0.928   2.938   7.083
18188SOL    HW156461   0.999   2.894   7.130
18188SOL    HW256462   0.949   2.924   6.990
18189SOL     OW56463   5.352   2.873   4.941
18189SOL    HW156464   5.309   2.806   4.888
18189SOL    HW256465   5.418   2.910   4.883
18190SOL     OW56466   8.662   8.259  12.790
18190SOL    HW156467   8.753   8.273  12.816
18190SOL    HW256468   8.630   8.191  12.849
18191SOL     OW56469   2.422   5.105   3.739
18191SOL    HW156470   2.350   5.167   3.726
18191SOL    HW256471   2.379   5.022   3.755
18192SOL     OW56472   2.646   1.342  10.139
18192SOL    HW156473   2.735   1.336  10.106
18192SOL    HW256474   2.628   1.436  10.142
18193SOL     OW56475  10.228  11.806   3.886
18193SOL    HW156476  10.158  11.865   3.912
18193SOL    HW256477  10.197  11.719   3.909
18194SOL     OW56478  12.431   5.550   3.466
18194SOL    HW156479  12.395   5.511   3.545
18194SOL    HW256480  12.518   5.511   3.458
18195SOL     OW56481   1.539   9.342  10.202
18195SOL    HW156482   1.478   9.336  10.128
18195SOL    HW256483   1.501   9.409  10.259
18196SOL     OW56484  14.347  11.561   2.426
18196SOL    HW156485  14.355  11.466   2.430
18196SOL    HW256486  14.326  11.579   2.334
18197SOL     OW56487   4.868   1.063   1.754
18197SOL    HW156488   4.958   1.031   1.749
18197SOL    HW256489   4.850   1.095   1.666
18198SOL     OW56490  12.942  10.415   3.573
18198SOL    HW156491  13.002  10.489   3.564
18198SOL    HW256492  12.922  10.412   3.667
18199SOL     OW56493   2.342   4.161   1.352
18199SOL    HW156494   2.318   4.117   1.433
18199SOL    HW256495   2.290   4.242   1.352
18200SOL     OW56496   5.582   9.689   8.894
18200SOL    HW156497   5.555   9.602   8.864
18200SOL    HW256498   5.674   9.696   8.868
18201SOL     OW56499  13.088  12.445   5.635
18201SOL    HW156500  12.996  12.471   5.629
18201SOL    HW256501  13.110  12.415   5.547
18202SOL     OW56502   7.642   9.289   9.047
18202SOL    HW156503   7.733   9.263   9.035
18202SOL    HW256504   7.644   9.384   9.050
18203SOL     OW56505   8.508  10.660   5.194
18203SOL    HW156506   8.593  10.622   5.173
18203SOL    HW256507   8.447  10.586   5.189
18204SOL     OW56508  13.336  12.039   0.757
18204SOL    HW156509  13.349  11.944   0.750
18204SOL    HW256510  13.311  12.053   0.849
18205SOL     OW56511   8.192   6.357  13.721
18205SOL    HW156512   8.249   6.288  13.687
18205SOL    HW256513   8.227   6.438  13.684
18206SOL     OW56514  10.987  10.054  13.087
18206SOL    HW156515  11.075  10.085  13.066
18206SOL    HW256516  10.930  10.129  13.072
18207SOL     OW56517   3.491   0.520   0.546
18207SOL    HW156518   3.517   0.429   0.553
18207SOL    HW256519   3.396   0.517   0.535
18208SOL     OW56520   6.821   7.521  11.692
18208SOL    HW156521   6.745   7.578  11.684
18208SOL    HW256522   6.789   7.433  11.671
18209SOL     OW56523   5.678   6.544  11.388
18209SOL    HW156524   5.685   6.591  11.305
18209SOL    HW256525   5.736   6.469  11.377
18210SOL     OW56526   2.077   1.783   7.908
18210SOL    HW156527   2.136   1.853   7.880
18210SOL    HW256528   2.095   1.710   7.848
18211SOL     OW56529   2.654   6.926  14.720
18211SOL    HW156530   2.580   6.888  14.672
18211SOL    HW256531   2.641   6.898  14.810
18212SOL     OW56532  11.063   3.792   4.041
18212SOL    HW156533  11.035   3.883   4.045
18212SOL    HW256534  11.022   3.757   3.962
18213SOL     OW56535   1.851   0.727   5.165
18213SOL    HW156536   1.805   0.705   5.084
18213SOL    HW256537   1.819   0.662   5.228
18214SOL     OW56538   2.951   5.132   1.344
18214SOL    HW156539   2.866   5.147   1.303
18214SOL    HW256540   2.957   5.198   1.413
18215SOL     OW56541  11.716  13.292  14.018
18215SOL    HW156542  11.764  13.212  14.039
18215SOL    HW256543  11.669  13.272  13.938
18216SOL     OW56544   7.838   1.210  10.554
18216SOL    HW156545   7.921   1.238  10.591
18216SOL    HW256546   7.774   1.228  10.623
18217SOL     OW56547   7.494   6.193  12.466
18217SOL    HW156548   7.466   6.116  12.516
18217SOL    HW256549   7.412   6.233  12.435
18218SOL     OW56550   6.226  10.282  12.107
18218SOL    HW156551   6.208  10.266  12.014
18218SOL    HW256552   6.304  10.338  12.107
18219SOL     OW56553  13.672   1.022   5.954
18219SOL    HW156554  13.645   0.945   6.004
18219SOL    HW256555  13.751   0.993   5.908
18220SOL     OW56556  13.012   6.361   2.493
18220SOL    HW156557  13.043   6.289   2.547
18220SOL    HW256558  13.031   6.334   2.403
18221SOL     OW56559   7.635  13.120   8.071
18221SOL    HW156560   7.708  13.181   8.082
18221SOL    HW256561   7.577  13.164   8.009
18222SOL     OW56562   4.057   7.036   7.490
18222SOL    HW156563   4.095   7.117   7.524
18222SOL    HW256564   4.000   7.004   7.559
18223SOL     OW56565  14.205  14.855  13.689
18223SOL    HW156566  14.146  14.869  13.763
18223SOL    HW256567  14.181   0.045  13.626
18224SOL     OW56568  13.852   9.401   4.903
18224SOL    HW156569  13.779   9.458   4.927
18224SOL    HW256570  13.907   9.398   4.981
18225SOL     OW56571   1.227  10.194   3.219
18225SOL    HW156572   1.299  10.240   3.263
18225SOL    HW256573   1.166  10.264   3.195
18226SOL     OW56574   9.329   8.966   3.361
18226SOL    HW156575   9.329   8.921   3.277
18226SOL    HW256576   9.422   8.983   3.380
18227SOL     OW56577   4.639   7.167   0.251
18227SOL    HW156578   4.631   7.173   0.156
18227SOL    HW256579   4.722   7.122   0.265
18228SOL     OW56580  11.544  14.287  10.236
18228SOL    HW156581  11.458  14.319  10.208
18228SOL    HW256582  11.606  14.342  10.189
18229SOL     OW56583  13.290  10.227  14.557
18229SOL    HW156584  13.311  10.310  14.514
18229SOL    HW256585  13.210  10.198  14.513
18230SOL     OW56586   0.113  12.608   9.844
18230SOL    HW156587   0.027  12.634   9.876
18230SOL    HW256588   0.121  12.516   9.866
18231SOL     OW56589  14.508  10.292  11.171
18231SOL    HW156590  14.601  10.296  11.194
18231SOL    HW256591  14.484  10.200  11.186
18232SOL     OW56592  13.160   2.390   5.922
18232SOL    HW156593  13.152   2.412   5.829
18232SOL    HW256594  13.091   2.441   5.964
18233SOL     OW56595   0.734   5.493  12.263
18233SOL    HW156596   0.729   5.415  12.319
18233SOL    HW256597   0.721   5.567  12.323
18234SOL     OW56598   9.494   2.493   3.218
18234SOL    HW156599   9.496   2.567   3.157
18234SOL    HW256600   9.529   2.419   3.167
18235SOL     OW56601   2.413  10.491  11.835
18235SOL    HW156602   2.374  10.577  11.851
18235SOL    HW256603   2.383  10.438  11.909
18236SOL     OW56604  11.984  12.521   5.142
18236SOL    HW156605  11.965  12.584   5.073
18236SOL    HW256606  11.970  12.569   5.224
18237SOL     OW56607   6.007  13.698   9.583
18237SOL    HW156608   6.067  13.708   9.509
18237SOL    HW256609   5.964  13.613   9.567
18238SOL     OW56610   0.754   8.697   6.381
18238SOL    HW156611   0.812   8.766   6.347
18238SOL    HW256612   0.685   8.744   6.427
18239SOL     OW56613   0.780   9.629   8.792
18239SOL    HW156614   0.778   9.717   8.756
18239SOL    HW256615   0.840   9.634   8.866
18240SOL     OW56616   5.014   9.780  13.225
18240SOL    HW156617   4.991   9.844  13.158
18240SOL    HW256618   5.001   9.827  13.308
18241SOL     OW56619  13.187  11.750   1.481
18241SOL    HW156620  13.120  11.812   1.452
18241SOL    HW256621  13.218  11.787   1.564
18242SOL     OW56622   1.537   8.368   0.564
18242SOL    HW156623   1.470   8.395   0.501
18242SOL    HW256624   1.590   8.447   0.577
18243SOL     OW56625   5.649   0.348   2.241
18243SOL    HW156626   5.624   0.267   2.284
18243SOL    HW256627   5.689   0.401   2.310
18244SOL     OW56628   5.721   5.164   6.073
18244SOL    HW156629   5.797   5.214   6.045
18244SOL    HW256630   5.650   5.229   6.079
18245SOL     OW56631   0.704  12.846   7.793
18245SOL    HW156632   0.718  12.938   7.770
18245SOL    HW256633   0.756  12.833   7.872
18246SOL     OW56634   6.842   4.644  10.209
18246SOL    HW156635   6.798   4.690  10.138
18246SOL    HW256636   6.805   4.683  10.289
18247SOL     OW56637   7.390   6.107   4.845
18247SOL    HW156638   7.427   6.076   4.927
18247SOL    HW256639   7.438   6.188   4.825
18248SOL     OW56640  10.629   1.581  10.974
18248SOL    HW156641  10.622   1.614  10.884
18248SOL    HW256642  10.701   1.631  11.012
18249SOL     OW56643  11.503   2.367   1.452
18249SOL    HW156644  11.449   2.362   1.531
18249SOL    HW256645  11.458   2.310   1.389
18250SOL     OW56646   5.347   9.284   1.062
18250SOL    HW156647   5.409   9.212   1.055
18250SOL    HW256648   5.361   9.319   1.150
18251SOL     OW56649  13.223   9.957   9.527
18251SOL    HW156650  13.134   9.931   9.550
18251SOL    HW256651  13.265   9.876   9.501
18252SOL     OW56652   9.300  14.205  11.688
18252SOL    HW156653   9.318  14.172  11.776
18252SOL    HW256654   9.205  14.205  11.682
18253SOL     OW56655   0.915  13.680  14.270
18253SOL    HW156656   0.870  13.597  14.286
18253SOL    HW256657   0.846  13.739  14.239
18254SOL     OW56658  13.828  14.631  11.518
18254SOL    HW156659  13.845  14.686  11.594
18254SOL    HW256660  13.915  14.612  11.482
18255SOL     OW56661  12.807  12.529   3.714
18255SOL    HW156662  12.780  12.620   3.706
18255SOL    HW256663  12.903  12.532   3.711
18256SOL     OW56664   4.069  14.231   8.243
18256SOL    HW156665   4.059  14.141   8.275
18256SOL    HW256666   4.075  14.222   8.148
18257SOL     OW56667  14.155  13.223   2.180
18257SOL    HW156668  14.248  13.205   2.192
18257SOL    HW256669  14.150  13.262   2.093
18258SOL     OW56670   0.072   9.153   3.612
18258SOL    HW156671  14.872   9.177   3.561
18258SOL    HW256672   0.145   9.197   3.568
18259SOL     OW56673  13.551  13.895   2.802
18259SOL    HW156674  13.647  13.897   2.795
18259SOL    HW256675  13.534  13.860   2.890
18260SOL     OW56676  11.021  12.249  14.865
18260SOL    HW156677  10.972  12.324   0.023
18260SOL    HW256678  10.955  12.199  14.817
18261SOL     OW56679   8.149   0.032   1.134
18261SOL    HW156680   8.093   0.105   1.106
18261SOL    HW256681   8.117   0.010   1.222
18262SOL     OW56682   3.608  13.977  11.489
18262SOL    HW156683   3.676  13.927  11.444
18262SOL    HW256684   3.527  13.928  11.474
18263SOL     OW56685   4.810   2.546   5.352
18263SOL    HW156686   4.861   2.627   5.359
18263SOL    HW256687   4.719   2.576   5.355
18264SOL     OW56688   6.285   7.717   5.934
18264SOL    HW156689   6.366   7.666   5.943
18264SOL    HW256690   6.252   7.724   6.024
18265SOL     OW56691   3.865   9.919   7.785
18265SOL    HW156692   3.822   9.992   7.830
18265SOL    HW256693   3.793   9.861   7.761
18266SOL     OW56694   5.222   0.736  13.005
18266SOL    HW156695   5.176   0.766  12.926
18266SOL    HW256696   5.186   0.648  13.021
18267SOL     OW56697  10.983  11.575   9.752
18267SOL    HW156698  11.074  11.549   9.738
18267SOL    HW256699  10.977  11.664   9.717
18268SOL     OW56700  11.043  10.625   9.377
18268SOL    HW156701  10.987  10.677   9.435
18268SOL    HW256702  11.079  10.556   9.432
18269SOL     OW56703   8.768   4.533   7.111
18269SOL    HW156704   8.695   4.474   7.132
18269SOL    HW256705   8.759   4.606   7.172
18270SOL     OW56706   2.117   0.558  11.052
18270SOL    HW156707   2.103   0.638  11.103
18270SOL    HW256708   2.169   0.586  10.977
18271SOL     OW56709   6.755  13.627   5.808
18271SOL    HW156710   6.752  13.576   5.888
18271SOL    HW256711   6.835  13.680   5.815
18272SOL     OW56712  10.461   7.257   1.811
18272SOL    HW156713  10.402   7.331   1.816
18272SOL    HW256714  10.493   7.257   1.721
18273SOL     OW56715   7.050   3.992  13.848
18273SOL    HW156716   7.073   4.033  13.764
18273SOL    HW256717   6.971   3.941  13.829
18274SOL     OW56718   2.737   5.757  14.589
18274SOL    HW156719   2.643   5.776  14.592
18274SOL    HW256720   2.778   5.840  14.566
18275SOL     OW56721   2.574  14.237   3.593
18275SOL    HW156722   2.559  14.305   3.527
18275SOL    HW256723   2.567  14.155   3.543
18276SOL     OW56724  14.499  14.287   6.585
18276SOL    HW156725  14.426  14.251   6.636
18276SOL    HW256726  14.473  14.274   6.494
18277SOL     OW56727   7.894  11.418  13.182
18277SOL    HW156728   7.813  11.377  13.151
18277SOL    HW256729   7.916  11.482  13.114
18278SOL     OW56730   4.683   7.491   7.651
18278SOL    HW156731   4.770   7.481   7.611
18278SOL    HW256732   4.647   7.402   7.651
18279SOL     OW56733   9.333   5.322  10.926
18279SOL    HW156734   9.279   5.248  10.954
18279SOL    HW256735   9.420   5.304  10.964
18280SOL     OW56736   9.891  13.267   6.380
18280SOL    HW156737   9.823  13.318   6.335
18280SOL    HW256738   9.972  13.315   6.364
18281SOL     OW56739   6.690  14.271   8.679
18281SOL    HW156740   6.692  14.324   8.759
18281SOL    HW256741   6.636  14.322   8.618
18282SOL     OW56742   1.132   9.587   2.266
18282SOL    HW156743   1.123   9.554   2.177
18282SOL    HW256744   1.194   9.660   2.259
18283SOL     OW56745   4.266  14.801  10.814
18283SOL    HW156746   4.302  14.768  10.732
18283SOL    HW256747   4.173  14.818  10.795
18284SOL     OW56748   4.382   5.356  11.986
18284SOL    HW156749   4.345   5.325  12.069
18284SOL    HW256750   4.475   5.338  11.993
18285SOL     OW56751  13.236   8.170   4.114
18285SOL    HW156752  13.159   8.113   4.116
18285SOL    HW256753  13.306   8.114   4.081
18286SOL     OW56754   5.289   2.546   5.599
18286SOL    HW156755   5.384   2.555   5.590
18286SOL    HW256756   5.267   2.470   5.545
18287SOL     OW56757   9.776  11.119  14.032
18287SOL    HW156758   9.840  11.083  13.970
18287SOL    HW256759   9.694  11.074  14.011
18288SOL     OW56760  14.283   4.652  11.678
18288SOL    HW156761  14.231   4.574  11.655
18288SOL    HW256762  14.294   4.646  11.773
18289SOL     OW56763   2.320   3.169   0.795
18289SOL    HW156764   2.321   3.161   0.891
18289SOL    HW256765   2.411   3.154   0.770
18290SOL     OW56766   0.269   4.727   0.169
18290SOL    HW156767   0.325   4.782   0.113
18290SOL    HW256768   0.191   4.711   0.116
18291SOL     OW56769   6.011   6.610   0.988
18291SOL    HW156770   5.963   6.654   1.058
18291SOL    HW256771   6.095   6.587   1.028
18292SOL     OW56772  14.776  12.665  14.825
18292SOL    HW156773  14.813  12.743  14.785
18292SOL    HW256774  14.681  12.678  14.820
18293SOL     OW56775   4.957   2.091   5.471
18293SOL    HW156776   4.903   2.170   5.465
18293SOL    HW256777   5.047   2.124   5.468
18294SOL     OW56778   5.306   7.267   0.077
18294SOL    HW156779   5.249   7.344   0.068
18294SOL    HW256780   5.330   7.266   0.170
18295SOL     OW56781   2.472  12.991  14.708
18295SOL    HW156782   2.501  13.078  14.682
18295SOL    HW256783   2.550  12.951  14.746
18296SOL     OW56784  11.861  10.278   6.921
18296SOL    HW156785  11.930  10.305   6.862
18296SOL    HW256786  11.905  10.226   6.988
18297SOL     OW56787   2.531  12.710  13.391
18297SOL    HW156788   2.548  12.617  13.376
18297SOL    HW256789   2.444  12.712  13.430
18298SOL     OW56790  14.152   6.640   6.279
18298SOL    HW156791  14.104   6.559   6.260
18298SOL    HW256792  14.093   6.691   6.334
18299SOL     OW56793   5.813  13.190   9.207
18299SOL    HW156794   5.878  13.210   9.275
18299SOL    HW256795   5.746  13.257   9.218
18300SOL     OW56796   1.721   5.564  12.804
18300SOL    HW156797   1.735   5.613  12.723
18300SOL    HW256798   1.808   5.556  12.843
18301SOL     OW56799  10.524   5.077  12.440
18301SOL    HW156800  10.488   5.150  12.491
18301SOL    HW256801  10.451   5.015  12.431
18302SOL     OW56802   9.239   6.001  14.190
18302SOL    HW156803   9.223   5.986  14.283
18302SOL    HW256804   9.169   6.060  14.163
18303SOL     OW56805   5.475   3.410   7.126
18303SOL    HW156806   5.530   3.333   7.106
18303SOL    HW256807   5.497   3.432   7.216
18304SOL     OW56808   6.810  13.904   2.378
18304SOL    HW156809   6.753  13.938   2.308
18304SOL    HW256810   6.754  13.906   2.456
18305SOL     OW56811   7.246  13.238   6.663
18305SOL    HW156812   7.314  13.205   6.604
18305SOL    HW256813   7.163  13.214   6.621
18306SOL     OW56814   1.078  11.634   0.844
18306SOL    HW156815   1.083  11.727   0.822
18306SOL    HW256816   1.165  11.601   0.827
18307SOL     OW56817   7.206   1.098   2.903
18307SOL    HW156818   7.161   1.082   2.986
18307SOL    HW256819   7.279   1.155   2.926
18308SOL     OW56820   7.279  12.477   8.022
18308SOL    HW156821   7.249  12.526   7.946
18308SOL    HW256822   7.286  12.387   7.990
18309SOL     OW56823  10.062   7.693   7.640
18309SOL    HW156824   9.969   7.690   7.662
18309SOL    HW256825  10.078   7.612   7.592
18310SOL     OW56826  14.014   2.737  12.281
18310SOL    HW156827  14.019   2.829  12.309
18310SOL    HW256828  13.953   2.697  12.342
18311SOL     OW56829  13.496  13.518  13.102
18311SOL    HW156830  13.575  13.565  13.130
18311SOL    HW256831  13.462  13.571  13.030
18312SOL     OW56832   6.273   4.220   6.434
18312SOL    HW156833   6.205   4.179   6.488
18312SOL    HW256834   6.227   4.290   6.388
18313SOL     OW56835   1.057   6.085  10.582
18313SOL    HW156836   1.099   6.014  10.534
18313SOL    HW256837   0.965   6.081  10.556
18314SOL     OW56838   2.170   5.496  11.077
18314SOL    HW156839   2.207   5.583  11.091
18314SOL    HW256840   2.123   5.504  10.994
18315SOL     OW56841  12.468  13.569   5.575
18315SOL    HW156842  12.516  13.551   5.494
18315SOL    HW256843  12.435  13.658   5.564
18316SOL     OW56844   3.720   8.562   3.656
18316SOL    HW156845   3.643   8.523   3.616
18316SOL    HW256846   3.725   8.650   3.618
18317SOL     OW56847  14.254   3.424   9.936
18317SOL    HW156848  14.161   3.443   9.933
18317SOL    HW256849  14.296   3.510   9.927
18318SOL     OW56850  11.651   7.666   2.920
18318SOL    HW156851  11.645   7.684   2.826
18318SOL    HW256852  11.624   7.747   2.962
18319SOL     OW56853  13.151   6.768   2.237
18319SOL    HW156854  13.081   6.755   2.174
18319SOL    HW256855  13.188   6.681   2.251
18320SOL     OW56856   2.927  10.287   7.238
18320SOL    HW156857   2.994  10.230   7.274
18320SOL    HW256858   2.856  10.228   7.213
18321SOL     OW56859  10.595   8.719  13.009
18321SOL    HW156860  10.616   8.627  13.021
18321SOL    HW256861  10.500   8.724  13.018
18322SOL     OW56862   4.537   2.381   2.422
18322SOL    HW156863   4.443   2.366   2.414
18322SOL    HW256864   4.544   2.467   2.465
18323SOL     OW56865   8.558   0.091   6.042
18323SOL    HW156866   8.485   0.033   6.063
18323SOL    HW256867   8.607   0.045   5.975
18324SOL     OW56868  14.587   8.952   0.983
18324SOL    HW156869  14.559   9.022   1.042
18324SOL    HW256870  14.581   8.873   1.036
18325SOL     OW56871   3.591   6.501  11.777
18325SOL    HW156872   3.623   6.568  11.717
18325SOL    HW256873   3.556   6.550  11.851
18326SOL     OW56874   9.835   9.793  14.548
18326SOL    HW156875   9.742   9.815  14.552
18326SOL    HW256876   9.879   9.865  14.594
18327SOL     OW56877   3.534   7.882   0.199
18327SOL    HW156878   3.467   7.814   0.191
18327SOL    HW256879   3.533   7.927   0.114
18328SOL     OW56880   8.428  10.951   9.431
18328SOL    HW156881   8.502  10.983   9.380
18328SOL    HW256882   8.435  10.855   9.425
18329SOL     OW56883  10.754   1.909   3.126
18329SOL    HW156884  10.663   1.891   3.102
18329SOL    HW256885  10.749   1.946   3.214
18330SOL     OW56886   2.299  12.495  12.569
18330SOL    HW156887   2.316  12.451  12.485
18330SOL    HW256888   2.323  12.586  12.553
18331SOL     OW56889   8.197  12.328   4.139
18331SOL    HW156890   8.129  12.319   4.073
18331SOL    HW256891   8.248  12.403   4.111
18332SOL     OW56892   1.414  13.451   0.295
18332SOL    HW156893   1.401  13.360   0.321
18332SOL    HW256894   1.374  13.458   0.209
18333SOL     OW56895   0.083   7.893   7.630
18333SOL    HW156896   0.173   7.902   7.601
18333SOL    HW256897   0.075   7.955   7.703
18334SOL     OW56898   4.196  10.232  14.024
18334SOL    HW156899   4.192  10.161  13.960
18334SOL    HW256900   4.237  10.192  14.101
18335SOL     OW56901   6.998  10.391  11.344
18335SOL    HW156902   6.954  10.444  11.410
18335SOL    HW256903   6.985  10.301  11.373
18336SOL     OW56904  12.082  11.178   1.203
18336SOL    HW156905  12.149  11.236   1.167
18336SOL    HW256906  12.054  11.125   1.128
18337SOL     OW56907  10.945  11.912   3.584
18337SOL    HW156908  10.959  11.951   3.498
18337SOL    HW256909  10.882  11.970   3.627
18338SOL     OW56910   2.143   0.747  13.577
18338SOL    HW156911   2.058   0.785  13.556
18338SOL    HW256912   2.203   0.786  13.513
18339SOL     OW56913  14.796  14.559   2.616
18339SOL    HW156914  14.862  14.554   2.547
18339SOL    HW256915  14.831  14.623   2.678
18340SOL     OW56916   9.044   8.143   4.298
18340SOL    HW156917   9.051   8.116   4.206
18340SOL    HW256918   9.002   8.229   4.295
18341SOL     OW56919   8.674  11.749  12.646
18341SOL    HW156920   8.620  11.670  12.638
18341SOL    HW256921   8.759  11.723  12.611
18342SOL     OW56922   3.975   8.881  12.360
18342SOL    HW156923   3.943   8.934  12.287
18342SOL    HW256924   3.966   8.791  12.331
18343SOL     OW56925   9.851   2.318   8.801
18343SOL    HW156926   9.807   2.335   8.718
18343SOL    HW256927   9.816   2.235   8.831
18344SOL     OW56928   5.208   8.013   2.298
18344SOL    HW156929   5.256   8.037   2.218
18344SOL    HW256930   5.129   7.969   2.266
18345SOL     OW56931  12.050   6.812   8.355
18345SOL    HW156932  12.091   6.770   8.279
18345SOL    HW256933  12.024   6.738   8.411
18346SOL     OW56934   9.491   9.143   5.206
18346SOL    HW156935   9.538   9.132   5.289
18346SOL    HW256936   9.501   9.236   5.186
18347SOL     OW56937   2.260   0.170   4.477
18347SOL    HW156938   2.208   0.209   4.547
18347SOL    HW256939   2.305   0.244   4.437
18348SOL     OW56940   4.222  11.405   5.585
18348SOL    HW156941   4.283  11.372   5.519
18348SOL    HW256942   4.179  11.479   5.543
18349SOL     OW56943  12.453   0.637   8.048
18349SOL    HW156944  12.471   0.725   8.078
18349SOL    HW256945  12.433   0.587   8.127
18350SOL     OW56946   9.500   2.312   0.401
18350SOL    HW156947   9.519   2.391   0.452
18350SOL    HW256948   9.406   2.298   0.414
18351SOL     OW56949   4.220   0.781   6.403
18351SOL    HW156950   4.144   0.799   6.348
18351SOL    HW256951   4.291   0.828   6.361
18352SOL     OW56952   4.628   7.741   7.738
18352SOL    HW156953   4.532   7.742   7.742
18352SOL    HW256954   4.650   7.651   7.717
18353SOL     OW56955  11.940   7.438   1.800
18353SOL    HW156956  11.946   7.464   1.892
18353SOL    HW256957  12.030   7.428   1.771
18354SOL     OW56958  11.123   1.479   4.098
18354SOL    HW156959  11.170   1.509   4.020
18354SOL    HW256960  11.030   1.488   4.074
18355SOL     OW56961   7.292  11.112   6.068
18355SOL    HW156962   7.313  11.178   6.002
18355SOL    HW256963   7.326  11.031   6.031
18356SOL     OW56964  12.068  13.677   5.398
18356SOL    HW156965  12.033  13.658   5.485
18356SOL    HW256966  11.992  13.704   5.347
18357SOL     OW56967   3.565   3.009   7.021
18357SOL    HW156968   3.490   3.064   7.000
18357SOL    HW256969   3.618   3.008   6.941
18358SOL     OW56970   3.393   3.755   6.048
18358SOL    HW156971   3.432   3.673   6.019
18358SOL    HW256972   3.321   3.729   6.106
18359SOL     OW56973   7.093   7.980  12.988
18359SOL    HW156974   7.167   7.944  12.940
18359SOL    HW256975   7.119   8.069  13.011
18360SOL     OW56976   3.222   5.606   1.573
18360SOL    HW156977   3.217   5.583   1.480
18360SOL    HW256978   3.169   5.685   1.581
18361SOL     OW56979   6.148   5.406  13.071
18361SOL    HW156980   6.234   5.364  13.065
18361SOL    HW256981   6.167   5.499  13.082
18362SOL     OW56982   6.497   4.731  12.558
18362SOL    HW156983   6.554   4.714  12.633
18362SOL    HW256984   6.419   4.772  12.596
18363SOL     OW56985   9.508  10.390  12.609
18363SOL    HW156986   9.593  10.369  12.570
18363SOL    HW256987   9.447  10.328  12.570
18364SOL     OW56988   4.291  12.067  10.522
18364SOL    HW156989   4.358  12.115  10.473
18364SOL    HW256990   4.285  12.113  10.606
18365SOL     OW56991   7.380   6.985   8.045
18365SOL    HW156992   7.403   7.077   8.057
18365SOL    HW256993   7.465   6.940   8.034
18366SOL     OW56994   0.850   0.172   4.109
18366SOL    HW156995   0.816   0.173   4.019
18366SOL    HW256996   0.845   0.080   4.135
18367SOL     OW56997   8.771  13.502  11.175
18367SOL    HW156998   8.739  13.420  11.214
18367SOL    HW256999   8.791  13.557  11.250
18368SOL     OW57000  11.853   3.644   8.790
18368SOL    HW157001  11.943   3.613   8.799
18368SOL    HW257002  11.818   3.595   8.716
18369SOL     OW57003  13.111   4.440   5.946
18369SOL    HW157004  13.110   4.517   5.889
18369SOL    HW257005  13.104   4.365   5.886
18370SOL     OW57006  11.453   0.556   9.058
18370SOL    HW157007  11.463   0.550   8.963
18370SOL    HW257008  11.380   0.497   9.078
18371SOL     OW57009  11.705   2.460   3.546
18371SOL    HW157010  11.798   2.445   3.558
18371SOL    HW257011  11.699   2.541   3.496
18372SOL     OW57012   1.890   5.964  13.061
18372SOL    HW157013   1.916   5.893  13.119
18372SOL    HW257014   1.845   6.026  13.118
18373SOL     OW57015   9.230   6.605   2.225
18373SOL    HW157016   9.268   6.676   2.278
18373SOL    HW257017   9.281   6.528   2.248
18374SOL     OW57018   5.222   0.313   8.091
18374SOL    HW157019   5.172   0.390   8.062
18374SOL    HW257020   5.311   0.346   8.103
18375SOL     OW57021  11.448   8.588   7.190
18375SOL    HW157022  11.368   8.592   7.137
18375SOL    HW257023  11.450   8.671   7.237
18376SOL     OW57024   9.302   5.880   0.163
18376SOL    HW157025   9.272   5.791   0.183
18376SOL    HW257026   9.356   5.905   0.238
18377SOL     OW57027  13.822  13.539  10.984
18377SOL    HW157028  13.771  13.459  10.997
18377SOL    HW257029  13.892  13.534  11.050
18378SOL     OW57030   3.274   6.156  12.209
18378SOL    HW157031   3.207   6.184  12.271
18378SOL    HW257032   3.356   6.158  12.260
18379SOL     OW57033   8.789   7.003   6.360
18379SOL    HW157034   8.728   6.944   6.405
18379SOL    HW257035   8.793   6.970   6.270
18380SOL     OW57036  13.069  12.550  13.636
18380SOL    HW157037  13.101  12.640  13.643
18380SOL    HW257038  13.041  12.528  13.725
18381SOL     OW57039   6.708  10.183   7.813
18381SOL    HW157040   6.753  10.261   7.844
18381SOL    HW257041   6.773  10.113   7.818
18382SOL     OW57042   4.149   6.049   2.262
18382SOL    HW157043   4.234   6.034   2.222
18382SOL    HW257044   4.137   5.975   2.322
18383SOL     OW57045   8.707   0.686  10.269
18383SOL    HW157046   8.791   0.728  10.291
18383SOL    HW257047   8.663   0.674  10.353
18384SOL     OW57048   3.844  12.019   4.130
18384SOL    HW157049   3.902  12.009   4.206
18384SOL    HW257050   3.801  11.933   4.121
18385SOL     OW57051   0.299   7.135   9.405
18385SOL    HW157052   0.328   7.046   9.385
18385SOL    HW257053   0.221   7.124   9.460
18386SOL     OW57054  10.533   5.719   9.882
18386SOL    HW157055  10.483   5.683   9.955
18386SOL    HW257056  10.543   5.646   9.821
18387SOL     OW57057   1.984   8.139   0.480
18387SOL    HW157058   1.971   8.205   0.548
18387SOL    HW257059   2.046   8.077   0.519
18388SOL     OW57060   7.542   1.457   7.609
18388SOL    HW157061   7.624   1.429   7.650
18388SOL    HW257062   7.554   1.551   7.593
18389SOL     OW57063   3.559   4.165  14.081
18389SOL    HW157064   3.562   4.204  13.993
18389SOL    HW257065   3.650   4.162  14.109
18390SOL     OW57066   9.876  12.042  14.677
18390SOL    HW157067   9.945  12.034  14.743
18390SOL    HW257068   9.805  12.089  14.721
18391SOL     OW57069  12.270   5.919  12.662
18391SOL    HW157070  12.233   5.979  12.727
18391SOL    HW257071  12.281   5.837  12.709
18392SOL     OW57072   0.401  14.264   5.535
18392SOL    HW157073   0.418  14.281   5.628
18392SOL    HW257074   0.321  14.212   5.535
18393SOL     OW57075  12.694  11.877  13.605
18393SOL    HW157076  12.751  11.936  13.556
18393SOL    HW257077  12.608  11.887  13.565
18394SOL     OW57078   3.261  14.050  12.233
18394SOL    HW157079   3.195  13.993  12.194
18394SOL    HW257080   3.298  14.097  12.158
18395SOL     OW57081  12.362   6.727  10.605
18395SOL    HW157082  12.353   6.806  10.660
18395SOL    HW257083  12.422   6.671  10.654
18396SOL     OW57084   1.610  14.759   0.718
18396SOL    HW157085   1.629  14.694   0.785
18396SOL    HW257086   1.583  14.837   0.767
18397SOL     OW57087   0.821  13.523   5.613
18397SOL    HW157088   0.816  13.615   5.639
18397SOL    HW257089   0.779  13.519   5.528
18398SOL     OW57090   9.994   9.994  11.845
18398SOL    HW157091  10.068  10.023  11.899
18398SOL    HW257092   9.953   9.924  11.896
18399SOL     OW57093  13.765   4.521  13.134
18399SOL    HW157094  13.801   4.594  13.184
18399SOL    HW257095  13.737   4.457  13.200
18400SOL     OW57096   1.101  13.610   0.243
18400SOL    HW157097   1.064  13.600   0.155
18400SOL    HW257098   1.195  13.610   0.229
18401SOL     OW57099  10.024   2.737   6.608
18401SOL    HW157100  10.073   2.661   6.639
18401SOL    HW257101   9.932   2.710   6.615
18402SOL     OW57102   0.321   7.950   9.151
18402SOL    HW157103   0.252   7.974   9.213
18402SOL    HW257104   0.283   7.880   9.098
18403SOL     OW57105   9.077  10.952   0.740
18403SOL    HW157106   9.162  10.928   0.703
18403SOL    HW257107   9.023  10.874   0.730
18404SOL     OW57108  12.560  11.480  14.240
18404SOL    HW157109  12.602  11.455  14.322
18404SOL    HW257110  12.470  11.449  14.249
18405SOL     OW57111   4.009   8.525   9.203
18405SOL    HW157112   3.941   8.580   9.242
18405SOL    HW257113   4.085   8.537   9.260
18406SOL     OW57114  12.231  14.199   6.949
18406SOL    HW157115  12.216  14.118   6.999
18406SOL    HW257116  12.229  14.268   7.014
18407SOL     OW57117   6.058   9.654  10.485
18407SOL    HW157118   6.138   9.604  10.498
18407SOL    HW257119   6.041   9.696  10.569
18408SOL     OW57120  14.174   2.027  13.176
18408SOL    HW157121  14.124   2.082  13.236
18408SOL    HW257122  14.256   2.009  13.223
18409SOL     OW57123   3.383   4.414   0.355
18409SOL    HW157124   3.367   4.331   0.310
18409SOL    HW257125   3.328   4.477   0.309
18410SOL     OW57126   4.415   8.491  14.852
18410SOL    HW157127   4.486   8.496   0.038
18410SOL    HW257128   4.335   8.488   0.027
18411SOL     OW57129  12.701  11.048  10.966
18411SOL    HW157130  12.767  11.005  11.020
18411SOL    HW257131  12.647  10.977  10.931
18412SOL     OW57132   9.218   2.464   4.420
18412SOL    HW157133   9.131   2.502   4.412
18412SOL    HW257134   9.255   2.506   4.498
18413SOL     OW57135   6.939   1.309   3.466
18413SOL    HW157136   6.862   1.269   3.425
18413SOL    HW257137   6.910   1.395   3.494
18414SOL     OW57138  12.191   5.842   6.789
18414SOL    HW157139  12.229   5.913   6.735
18414SOL    HW257140  12.267   5.804   6.834
18415SOL     OW57141   5.755   3.422  10.264
18415SOL    HW157142   5.806   3.448  10.187
18415SOL    HW257143   5.721   3.335  10.241
18416SOL     OW57144  12.455   2.423   4.386
18416SOL    HW157145  12.494   2.381   4.310
18416SOL    HW257146  12.523   2.481   4.420
18417SOL     OW57147  12.227   3.302  10.117
18417SOL    HW157148  12.307   3.285  10.067
18417SOL    HW257149  12.180   3.368  10.066
18418SOL     OW57150   1.588  10.391   2.394
18418SOL    HW157151   1.633  10.340   2.462
18418SOL    HW257152   1.658  10.421   2.337
18419SOL     OW57153  13.238   1.387  14.269
18419SOL    HW157154  13.178   1.433  14.210
18419SOL    HW257155  13.239   1.297  14.236
18420SOL     OW57156   5.871   2.802  11.173
18420SOL    HW157157   5.841   2.736  11.235
18420SOL    HW257158   5.905   2.873  11.227
18421SOL     OW57159   8.137   3.655   4.483
18421SOL    HW157160   8.099   3.595   4.418
18421SOL    HW257161   8.072   3.657   4.553
18422SOL     OW57162   9.343   1.920   5.164
18422SOL    HW157163   9.315   1.996   5.215
18422SOL    HW257164   9.405   1.956   5.100
18423SOL     OW57165  13.608   2.841   8.523
18423SOL    HW157166  13.654   2.866   8.443
18423SOL    HW257167  13.674   2.848   8.592
18424SOL     OW57168  12.584  11.697   8.049
18424SOL    HW157169  12.511  11.634   8.041
18424SOL    HW257170  12.599  11.728   7.960
18425SOL     OW57171  12.457   8.689   4.859
18425SOL    HW157172  12.482   8.780   4.875
18425SOL    HW257173  12.385   8.695   4.796
18426SOL     OW57174  13.445   9.331   1.245
18426SOL    HW157175  13.533   9.318   1.282
18426SOL    HW257176  13.389   9.274   1.298
18427SOL     OW57177  11.285   8.050  14.273
18427SOL    HW157178  11.232   7.975  14.247
18427SOL    HW257179  11.254   8.122  14.217
18428SOL     OW57180  14.387  13.822   3.832
18428SOL    HW157181  14.417  13.784   3.749
18428SOL    HW257182  14.292  13.810   3.831
18429SOL     OW57183   4.060   2.190  10.822
18429SOL    HW157184   4.109   2.121  10.778
18429SOL    HW257185   4.064   2.265  10.762
18430SOL     OW57186  12.400   9.091   0.604
18430SOL    HW157187  12.400   9.077   0.698
18430SOL    HW257188  12.413   9.003   0.566
18431SOL     OW57189   1.344   8.640  12.153
18431SOL    HW157190   1.314   8.579  12.084
18431SOL    HW257191   1.263   8.676  12.189
18432SOL     OW57192   6.607   3.350  11.259
18432SOL    HW157193   6.660   3.271  11.247
18432SOL    HW257194   6.663   3.422  11.230
18433SOL     OW57195   0.298   3.054   8.432
18433SOL    HW157196   0.285   3.133   8.379
18433SOL    HW257197   0.248   3.070   8.512
18434SOL     OW57198   5.616  10.910   1.284
18434SOL    HW157199   5.566  10.992   1.282
18434SOL    HW257200   5.637  10.896   1.376
18435SOL     OW57201   9.071   9.530   8.618
18435SOL    HW157202   9.036   9.601   8.564
18435SOL    HW257203   9.166   9.532   8.602
18436SOL     OW57204   2.694   5.939  12.468
18436SOL    HW157205   2.639   6.012  12.439
18436SOL    HW257206   2.663   5.865  12.417
18437SOL     OW57207   7.407  13.793   5.890
18437SOL    HW157208   7.385  13.840   5.810
18437SOL    HW257209   7.385  13.702   5.871
18438SOL     OW57210   3.690   3.573  14.456
18438SOL    HW157211   3.637   3.594  14.533
18438SOL    HW257212   3.666   3.640  14.392
18439SOL     OW57213  10.881   0.375   8.393
18439SOL    HW157214  10.914   0.370   8.303
18439SOL    HW257215  10.835   0.292   8.406
18440SOL     OW57216  10.457  13.463  13.137
18440SOL    HW157217  10.385  13.519  13.165
18440SOL    HW257218  10.415  13.382  13.110
18441SOL     OW57219   6.040  14.346  11.324
18441SOL    HW157220   6.018  14.293  11.401
18441SOL    HW257221   6.126  14.382  11.344
18442SOL     OW57222   5.239  11.098   4.025
18442SOL    HW157223   5.311  11.088   4.088
18442SOL    HW257224   5.274  11.157   3.958
18443SOL     OW57225   7.126   3.592  11.167
18443SOL    HW157226   7.087   3.677  11.148
18443SOL    HW257227   7.081   3.531  11.109
18444SOL     OW57228  14.171   5.313   8.720
18444SOL    HW157229  14.171   5.236   8.664
18444SOL    HW257230  14.250   5.361   8.695
18445SOL     OW57231   1.922   6.503   9.915
18445SOL    HW157232   1.849   6.441   9.904
18445SOL    HW257233   1.948   6.525   9.825
18446SOL     OW57234   8.322   4.525  11.342
18446SOL    HW157235   8.384   4.584  11.299
18446SOL    HW257236   8.322   4.446  11.288
18447SOL     OW57237  13.487   5.803   4.942
18447SOL    HW157238  13.401   5.844   4.930
18447SOL    HW257239  13.504   5.810   5.035
18448SOL     OW57240   1.502   6.194   4.677
18448SOL    HW157241   1.539   6.112   4.709
18448SOL    HW257242   1.414   6.197   4.714
18449SOL     OW57243  11.796   0.732   3.826
18449SOL    HW157244  11.733   0.786   3.779
18449SOL    HW257245  11.832   0.673   3.760
18450SOL     OW57246   0.154  10.401  12.228
18450SOL    HW157247   0.076  10.362  12.189
18450SOL    HW257248   0.122  10.482  12.270
18451SOL     OW57249   1.632   3.193  11.534
18451SOL    HW157250   1.572   3.127  11.499
18451SOL    HW257251   1.606   3.274  11.491
18452SOL     OW57252  13.417   0.602  10.289
18452SOL    HW157253  13.370   0.537  10.237
18452SOL    HW257254  13.376   0.685  10.266
18453SOL     OW57255   1.797   0.203   8.858
18453SOL    HW157256   1.715   0.242   8.827
18453SOL    HW257257   1.835   0.270   8.915
18454SOL     OW57258   7.047  10.204   4.447
18454SOL    HW157259   7.074  10.268   4.381
18454SOL    HW257260   7.011  10.132   4.396
18455SOL     OW57261   5.650   5.012   7.203
18455SOL    HW157262   5.725   5.048   7.154
18455SOL    HW257263   5.643   5.069   7.279
18456SOL     OW57264   5.361   4.141   2.930
18456SOL    HW157265   5.303   4.066   2.921
18456SOL    HW257266   5.387   4.161   2.840
18457SOL     OW57267  10.865   9.389   6.770
18457SOL    HW157268  10.822   9.467   6.807
18457SOL    HW257269  10.807   9.317   6.792
18458SOL     OW57270   7.281  13.606  14.243
18458SOL    HW157271   7.304  13.683  14.294
18458SOL    HW257272   7.230  13.552  14.303
18459SOL     OW57273   4.544   3.351   7.085
18459SOL    HW157274   4.585   3.381   7.004
18459SOL    HW257275   4.616   3.323   7.140
18460SOL     OW57276   6.684   2.697  13.223
18460SOL    HW157277   6.598   2.714  13.261
18460SOL    HW257278   6.746   2.728  13.289
18461SOL     OW57279   8.793   4.556   4.267
18461SOL    HW157280   8.781   4.524   4.357
18461SOL    HW257281   8.783   4.650   4.274
18462SOL     OW57282   1.054   1.373  13.376
18462SOL    HW157283   1.104   1.431  13.434
18462SOL    HW257284   0.980   1.344  13.430
18463SOL     OW57285   2.580   8.650   2.553
18463SOL    HW157286   2.674   8.654   2.536
18463SOL    HW257287   2.559   8.735   2.592
18464SOL     OW57288  13.499   3.477   3.879
18464SOL    HW157289  13.504   3.444   3.968
18464SOL    HW257290  13.447   3.412   3.832
18465SOL     OW57291   0.458   1.622   3.751
18465SOL    HW157292   0.434   1.546   3.804
18465SOL    HW257293   0.375   1.654   3.716
18466SOL     OW57294   2.848   6.629  12.351
18466SOL    HW157295   2.791   6.609  12.277
18466SOL    HW257296   2.857   6.724  12.349
18467SOL     OW57297   0.888  10.307   9.108
18467SOL    HW157298   0.963  10.360   9.079
18467SOL    HW257299   0.821  10.371   9.130
18468SOL     OW57300   0.514   9.791   0.390
18468SOL    HW157301   0.483   9.843   0.464
18468SOL    HW257302   0.445   9.800   0.324
18469SOL     OW57303  14.584  11.706   7.912
18469SOL    HW157304  14.569  11.787   7.863
18469SOL    HW257305  14.676  11.711   7.940
18470SOL     OW57306   0.527   8.932  12.174
18470SOL    HW157307   0.557   9.012  12.131
18470SOL    HW257308   0.595   8.868  12.156
18471SOL     OW57309  11.122   0.478   6.735
18471SOL    HW157310  11.208   0.520   6.735
18471SOL    HW257311  11.141   0.385   6.747
18472SOL     OW57312   7.345  10.774  12.781
18472SOL    HW157313   7.424  10.802  12.827
18472SOL    HW257314   7.342  10.679  12.795
18473SOL     OW57315   2.463  10.230   2.490
18473SOL    HW157316   2.403  10.301   2.468
18473SOL    HW257317   2.454  10.220   2.585
18474SOL     OW57318   6.626  14.471   3.129
18474SOL    HW157319   6.703  14.526   3.147
18474SOL    HW257320   6.648  14.427   3.047
18475SOL     OW57321   0.233   0.066  14.677
18475SOL    HW157322   0.258   0.147  14.631
18475SOL    HW257323   0.256   0.082  14.768
18476SOL     OW57324   8.227  10.383   6.731
18476SOL    HW157325   8.296  10.316   6.729
18476SOL    HW257326   8.155  10.343   6.779
18477SOL     OW57327  14.068   4.099   1.523
18477SOL    HW157328  13.984   4.102   1.569
18477SOL    HW257329  14.066   4.175   1.464
18478SOL     OW57330   6.478   4.866   1.789
18478SOL    HW157331   6.521   4.951   1.794
18478SOL    HW257332   6.519   4.823   1.713
18479SOL     OW57333  11.941   5.910  13.358
18479SOL    HW157334  12.005   5.863  13.411
18479SOL    HW257335  11.902   5.841  13.303
18480SOL     OW57336  12.491   9.656  11.481
18480SOL    HW157337  12.457   9.734  11.437
18480SOL    HW257338  12.461   9.583  11.427
18481SOL     OW57339  11.971   5.704   4.057
18481SOL    HW157340  11.877   5.713   4.038
18481SOL    HW257341  11.994   5.785   4.102
18482SOL     OW57342  10.265   1.675   1.650
18482SOL    HW157343  10.187   1.651   1.600
18482SOL    HW257344  10.336   1.629   1.607
18483SOL     OW57345  11.467   8.021   5.165
18483SOL    HW157346  11.418   8.078   5.224
18483SOL    HW257347  11.556   8.020   5.201
18484SOL     OW57348   4.341   2.209   1.858
18484SOL    HW157349   4.248   2.193   1.870
18484SOL    HW257350   4.349   2.304   1.854
18485SOL     OW57351   4.735   1.228  10.082
18485SOL    HW157352   4.655   1.175  10.088
18485SOL    HW257353   4.805   1.164  10.066
18486SOL     OW57354   5.863   7.854   5.384
18486SOL    HW157355   5.844   7.941   5.418
18486SOL    HW257356   5.790   7.834   5.325
18487SOL     OW57357   8.853   3.517   7.618
18487SOL    HW157358   8.872   3.423   7.607
18487SOL    HW257359   8.913   3.561   7.559
18488SOL     OW57360  14.559   7.870  14.556
18488SOL    HW157361  14.519   7.931  14.493
18488SOL    HW257362  14.540   7.783  14.520
18489SOL     OW57363   0.288  10.575   7.260
18489SOL    HW157364   0.249  10.653   7.302
18489SOL    HW257365   0.382  10.586   7.273
18490SOL     OW57366   3.068   5.020   2.032
18490SOL    HW157367   3.123   5.022   2.110
18490SOL    HW257368   3.014   4.942   2.043
18491SOL     OW57369   0.224  12.110  14.677
18491SOL    HW157370   0.157  12.042  14.670
18491SOL    HW257371   0.175  12.192  14.670
18492SOL     OW57372   9.694   3.640   7.581
18492SOL    HW157373   9.656   3.694   7.512
18492SOL    HW257374   9.622   3.584   7.609
18493SOL     OW57375   2.251   0.143  10.216
18493SOL    HW157376   2.180   0.079  10.218
18493SOL    HW257377   2.306   0.120  10.291
18494SOL     OW57378   6.253   7.000   8.629
18494SOL    HW157379   6.206   7.072   8.670
18494SOL    HW257380   6.185   6.940   8.600
18495SOL     OW57381  11.318  14.589   7.675
18495SOL    HW157382  11.329  14.518   7.612
18495SOL    HW257383  11.223  14.602   7.678
18496SOL     OW57384   5.484   4.992   9.136
18496SOL    HW157385   5.564   4.974   9.087
18496SOL    HW257386   5.414   4.963   9.078
18497SOL     OW57387   6.004   3.876  11.651
18497SOL    HW157388   5.996   3.832  11.566
18497SOL    HW257389   6.097   3.869  11.672
18498SOL     OW57390  10.631  14.300   0.902
18498SOL    HW157391  10.539  14.311   0.879
18498SOL    HW257392  10.679  14.331   0.826
18499SOL     OW57393   0.364   4.887   5.393
18499SOL    HW157394   0.296   4.820   5.384
18499SOL    HW257395   0.366   4.930   5.307
18500SOL     OW57396   3.086   1.960  10.764
18500SOL    HW157397   3.137   1.913  10.830
18500SOL    HW257398   3.078   1.899  10.691
18501SOL     OW57399   1.107   0.334   3.467
18501SOL    HW157400   1.054   0.302   3.540
18501SOL    HW257401   1.191   0.290   3.477
18502SOL     OW57402  13.144  14.263  13.667
18502SOL    HW157403  13.169  14.343  13.714
18502SOL    HW257404  13.182  14.192  13.718
18503SOL     OW57405   8.152  14.306   0.492
18503SOL    HW157406   8.100  14.296   0.572
18503SOL    HW257407   8.163  14.401   0.482
18504SOL     OW57408  10.835   7.576   1.077
18504SOL    HW157409  10.918   7.557   1.035
18504SOL    HW257410  10.779   7.609   1.006
18505SOL     OW57411   1.106   5.436   2.512
18505SOL    HW157412   1.039   5.393   2.565
18505SOL    HW257413   1.061   5.510   2.472
18506SOL     OW57414   6.962  11.855   1.787
18506SOL    HW157415   6.936  11.926   1.728
18506SOL    HW257416   6.999  11.788   1.729
18507SOL     OW57417   6.132   4.790   2.181
18507SOL    HW157418   6.102   4.857   2.242
18507SOL    HW257419   6.158   4.839   2.102
18508SOL     OW57420  11.196   9.458   3.318
18508SOL    HW157421  11.264   9.444   3.252
18508SOL    HW257422  11.145   9.532   3.285
18509SOL     OW57423   1.641   0.956   5.508
18509SOL    HW157424   1.656   0.917   5.594
18509SOL    HW257425   1.574   0.902   5.468
18510SOL     OW57426  11.724   8.083   5.284
18510SOL    HW157427  11.773   8.165   5.289
18510SOL    HW257428  11.704   8.062   5.375
18511SOL     OW57429   0.055  10.004  13.669
18511SOL    HW157430  14.865  10.055  13.714
18511SOL    HW257431   0.021   9.914  13.670
18512SOL     OW57432  13.586   0.144   8.687
18512SOL    HW157433  13.657   0.201   8.658
18512SOL    HW257434  13.528   0.138   8.612
18513SOL     OW57435  12.667   5.335   9.676
18513SOL    HW157436  12.707   5.385   9.747
18513SOL    HW257437  12.731   5.267   9.655
18514SOL     OW57438   3.095   1.160   7.977
18514SOL    HW157439   3.000   1.149   7.973
18514SOL    HW257440   3.123   1.103   8.049
18515SOL     OW57441  13.515   9.436  10.505
18515SOL    HW157442  13.520   9.387  10.423
18515SOL    HW257443  13.536   9.372  10.573
18516SOL     OW57444   6.360   4.480   4.876
18516SOL    HW157445   6.421   4.554   4.881
18516SOL    HW257446   6.399   4.413   4.932
18517SOL     OW57447   6.892   2.933   0.701
18517SOL    HW157448   6.933   2.889   0.775
18517SOL    HW257449   6.810   2.884   0.687
18518SOL     OW57450  11.521  12.872   7.147
18518SOL    HW157451  11.590  12.879   7.081
18518SOL    HW257452  11.450  12.825   7.103
18519SOL     OW57453   4.627  13.020  11.202
18519SOL    HW157454   4.596  13.020  11.111
18519SOL    HW257455   4.596  12.937  11.238
18520SOL     OW57456  11.550   6.780  13.038
18520SOL    HW157457  11.518   6.698  13.076
18520SOL    HW257458  11.591   6.753  12.955
18521SOL     OW57459   4.073   5.255   1.425
18521SOL    HW157460   4.147   5.223   1.373
18521SOL    HW257461   4.113   5.310   1.492
18522SOL     OW57462   6.949   0.355   6.198
18522SOL    HW157463   6.930   0.330   6.108
18522SOL    HW257464   7.042   0.378   6.197
18523SOL     OW57465   4.463   3.100  11.744
18523SOL    HW157466   4.393   3.036  11.730
18523SOL    HW257467   4.449   3.131  11.834
18524SOL     OW57468   8.925   6.477   3.276
18524SOL    HW157469   8.948   6.471   3.183
18524SOL    HW257470   8.902   6.569   3.289
18525SOL     OW57471  11.125   7.089  10.562
18525SOL    HW157472  11.162   7.177  10.553
18525SOL    HW257473  11.131   7.070  10.655
18526SOL     OW57474   8.262  11.359  11.149
18526SOL    HW157475   8.299  11.281  11.107
18526SOL    HW257476   8.203  11.395  11.083
18527SOL     OW57477   3.345   7.726   1.551
18527SOL    HW157478   3.331   7.741   1.644
18527SOL    HW257479   3.418   7.663   1.547
18528SOL     OW57480   3.943   7.757   1.560
18528SOL    HW157481   4.020   7.799   1.598
18528SOL    HW257482   3.905   7.826   1.505
18529SOL     OW57483  10.501   9.856   6.079
18529SOL    HW157484  10.424   9.804   6.055
18529SOL    HW257485  10.468   9.944   6.093
18530SOL     OW57486   8.757   5.738   4.387
18530SOL    HW157487   8.729   5.724   4.478
18530SOL    HW257488   8.828   5.802   4.394
18531SOL     OW57489  11.765   7.802   3.201
18531SOL    HW157490  11.802   7.716   3.179
18531SOL    HW257491  11.692   7.813   3.140
18532SOL     OW57492   2.186   9.577   9.470
18532SOL    HW157493   2.151   9.665   9.485
18532SOL    HW257494   2.112   9.518   9.490
18533SOL     OW57495   3.548   9.690   3.684
18533SOL    HW157496   3.462   9.666   3.649
18533SOL    HW257497   3.563   9.779   3.653
18534SOL     OW57498   0.325   5.529   4.966
18534SOL    HW157499   0.406   5.497   5.007
18534SOL    HW257500   0.257   5.469   4.998
18535SOL     OW57501   7.046  12.630  14.159
18535SOL    HW157502   7.119  12.576  14.129
18535SOL    HW257503   7.010  12.581  14.234
18536SOL     OW57504   9.692  12.158   0.375
18536SOL    HW157505   9.720  12.198   0.293
18536SOL    HW257506   9.774  12.134   0.419
18537SOL     OW57507  11.848  12.364   7.215
18537SOL    HW157508  11.849  12.279   7.173
18537SOL    HW257509  11.934  12.372   7.256
18538SOL     OW57510   9.636   2.786   2.954
18538SOL    HW157511   9.586   2.842   2.896
18538SOL    HW257512   9.689   2.732   2.895
18539SOL     OW57513  11.624   5.317   0.981
18539SOL    HW157514  11.601   5.385   1.044
18539SOL    HW257515  11.695   5.268   1.023
18540SOL     OW57516   1.060   9.187   4.865
18540SOL    HW157517   1.023   9.173   4.953
18540SOL    HW257518   1.153   9.204   4.881
18541SOL     OW57519  11.557   4.158   9.530
18541SOL    HW157520  11.613   4.219   9.578
18541SOL    HW257521  11.485   4.211   9.497
18542SOL     OW57522   5.631  12.365  12.176
18542SOL    HW157523   5.623  12.343  12.269
18542SOL    HW257524   5.625  12.461  12.174
18543SOL     OW57525  12.299  11.492   8.493
18543SOL    HW157526  12.287  11.583   8.519
18543SOL    HW257527  12.321  11.495   8.400
18544SOL     OW57528  12.071  10.996   5.761
18544SOL    HW157529  12.160  10.975   5.734
18544SOL    HW257530  12.015  10.940   5.707
18545SOL     OW57531  10.622   9.256   7.571
18545SOL    HW157532  10.532   9.227   7.559
18545SOL    HW257533  10.673   9.175   7.578
18546SOL     OW57534  12.706   0.106   6.165
18546SOL    HW157535  12.676   0.192   6.137
18546SOL    HW257536  12.692   0.050   6.089
18547SOL     OW57537  13.441  12.134  13.761
18547SOL    HW157538  13.488  12.061  13.801
18547SOL    HW257539  13.471  12.136  13.671
18548SOL     OW57540  11.076   3.142   4.919
18548SOL    HW157541  11.171   3.130   4.920
18548SOL    HW257542  11.046   3.107   5.003
18549SOL     OW57543   5.404   6.290  11.613
18549SOL    HW157544   5.476   6.259  11.667
18549SOL    HW257545   5.325   6.268  11.663
18550SOL     OW57546   1.955   4.089  14.381
18550SOL    HW157547   2.035   4.117  14.426
18550SOL    HW257548   1.985   4.025  14.316
18551SOL     OW57549   1.967   1.170   6.955
18551SOL    HW157550   1.919   1.109   6.899
18551SOL    HW257551   1.986   1.119   7.034
18552SOL     OW57552   9.443  12.455   7.747
18552SOL    HW157553   9.450  12.363   7.773
18552SOL    HW257554   9.384  12.494   7.812
18553SOL     OW57555  12.042   5.691   2.834
18553SOL    HW157556  12.020   5.778   2.802
18553SOL    HW257557  12.101   5.655   2.768
18554SOL     OW57558   2.588   7.116  13.388
18554SOL    HW157559   2.577   7.048  13.321
18554SOL    HW257560   2.581   7.069  13.471
18555SOL     OW57561   6.753   1.883   3.166
18555SOL    HW157562   6.831   1.849   3.123
18555SOL    HW257563   6.716   1.809   3.214
18556SOL     OW57564  10.278   5.315   0.835
18556SOL    HW157565  10.271   5.310   0.930
18556SOL    HW257566  10.370   5.337   0.819
18557SOL     OW57567  14.751   9.226   5.818
18557SOL    HW157568  14.731   9.163   5.888
18557SOL    HW257569  14.809   9.290   5.860
18558SOL     OW57570  11.025   2.104  10.679
18558SOL    HW157571  10.932   2.086  10.662
18558SOL    HW257572  11.031   2.199  10.683
18559SOL     OW57573   0.411  14.734  13.233
18559SOL    HW157574   0.327  14.689  13.220
18559SOL    HW257575   0.455  14.683  13.301
18560SOL     OW57576   1.130   1.914  10.826
18560SOL    HW157577   1.038   1.893  10.845
18560SOL    HW257578   1.133   1.922  10.730
18561SOL     OW57579   5.921  12.656   3.542
18561SOL    HW157580   5.980  12.723   3.507
18561SOL    HW257581   5.970  12.574   3.531
18562SOL     OW57582  10.039  11.979   4.064
18562SOL    HW157583  10.052  12.069   4.033
18562SOL    HW257584  10.034  11.987   4.159
18563SOL     OW57585   5.375   3.472   4.903
18563SOL    HW157586   5.366   3.382   4.870
18563SOL    HW257587   5.461   3.500   4.873
18564SOL     OW57588   0.961  14.789  14.648
18564SOL    HW157589   1.000  14.868  14.684
18564SOL    HW257590   1.028  14.754  14.589
18565SOL     OW57591   8.019   2.153   6.960
18565SOL    HW157592   8.076   2.077   6.970
18565SOL    HW257593   7.945   2.120   6.909
18566SOL     OW57594  13.941   9.026  11.478
18566SOL    HW157595  13.971   8.958  11.538
18566SOL    HW257596  13.972   9.108  11.517
18567SOL     OW57597   0.245   1.704   2.416
18567SOL    HW157598   0.291   1.694   2.499
18567SOL    HW257599   0.153   1.689   2.436
18568SOL     OW57600   5.202   0.510  12.452
18568SOL    HW157601   5.159   0.441  12.400
18568SOL    HW257602   5.152   0.512  12.533
18569SOL     OW57603   3.757   6.652  12.638
18569SOL    HW157604   3.710   6.651  12.721
18569SOL    HW257605   3.849   6.643  12.662
18570SOL     OW57606   6.302  10.044  14.266
18570SOL    HW157607   6.322   9.986  14.193
18570SOL    HW257608   6.224  10.092  14.239
18571SOL     OW57609  12.773   2.417   8.240
18571SOL    HW157610  12.863   2.407   8.271
18571SOL    HW257611  12.736   2.487   8.293
18572SOL     OW57612   8.227   7.430  13.311
18572SOL    HW157613   8.145   7.467  13.278
18572SOL    HW257614   8.282   7.419  13.233
18573SOL     OW57615   8.313   3.347   3.551
18573SOL    HW157616   8.406   3.327   3.539
18573SOL    HW257617   8.268   3.290   3.489
18574SOL     OW57618   7.309   5.307  12.078
18574SOL    HW157619   7.278   5.218  12.088
18574SOL    HW257620   7.282   5.351  12.159
18575SOL     OW57621  11.279   9.183   6.769
18575SOL    HW157622  11.344   9.146   6.829
18575SOL    HW257623  11.323   9.258   6.729
18576SOL     OW57624   7.586   2.509  11.797
18576SOL    HW157625   7.559   2.600  11.814
18576SOL    HW257626   7.503   2.461  11.791
18577SOL     OW57627   9.477   4.390   6.289
18577SOL    HW157628   9.496   4.368   6.380
18577SOL    HW257629   9.428   4.315   6.256
18578SOL     OW57630  12.064   8.027   3.727
18578SOL    HW157631  12.133   8.090   3.706
18578SOL    HW257632  11.998   8.079   3.774
18579SOL     OW57633   8.436   3.185   9.895
18579SOL    HW157634   8.381   3.123   9.848
18579SOL    HW257635   8.423   3.164   9.987
18580SOL     OW57636  12.290   5.921  11.571
18580SOL    HW157637  12.243   5.882  11.497
18580SOL    HW257638  12.221   5.962  11.624
18581SOL     OW57639   0.185   5.862   4.365
18581SOL    HW157640   0.276   5.837   4.376
18581SOL    HW257641   0.175   5.941   4.419
18582SOL     OW57642   7.637   5.267   1.047
18582SOL    HW157643   7.554   5.314   1.036
18582SOL    HW257644   7.691   5.326   1.099
18583SOL     OW57645   0.036  12.939  11.300
18583SOL    HW157646  14.830  12.977  11.270
18583SOL    HW257647   0.098  13.011  11.292
18584SOL     OW57648   4.019  12.411   5.681
18584SOL    HW157649   3.941  12.377   5.636
18584SOL    HW257650   3.985  12.443   5.765
18585SOL     OW57651  13.420  13.686  14.590
18585SOL    HW157652  13.342  13.643  14.624
18585SOL    HW257653  13.389  13.772  14.560
18586SOL     OW57654  10.853   7.466   0.721
18586SOL    HW157655  10.857   7.501   0.631
18586SOL    HW257656  10.804   7.532   0.770
18587SOL     OW57657  13.043  13.579   9.708
18587SOL    HW157658  13.010  13.492   9.732
18587SOL    HW257659  13.098  13.604   9.782
18588SOL     OW57660  11.943  11.932   3.506
18588SOL    HW157661  11.955  11.862   3.569
18588SOL    HW257662  11.868  11.904   3.453
18589SOL     OW57663  10.746   1.348   0.605
18589SOL    HW157664  10.662   1.307   0.629
18589SOL    HW257665  10.797   1.277   0.566
18590SOL     OW57666  12.880   4.578   5.502
18590SOL    HW157667  12.862   4.661   5.456
18590SOL    HW257668  12.949   4.537   5.451
18591SOL     OW57669  14.569   8.213  12.250
18591SOL    HW157670  14.588   8.136  12.304
18591SOL    HW257671  14.612   8.285  12.296
18592SOL     OW57672  14.784   6.604   6.822
18592SOL    HW157673  14.690   6.622   6.826
18592SOL    HW257674  14.790   6.514   6.789
18593SOL     OW57675  10.639  14.428  11.360
18593SOL    HW157676  10.611  14.435  11.268
18593SOL    HW257677  10.598  14.348  11.392
18594SOL     OW57678   4.874   7.994  10.119
18594SOL    HW157679   4.873   7.942  10.038
18594SOL    HW257680   4.783   8.017  10.134
18595SOL     OW57681   5.309   3.513   7.355
18595SOL    HW157682   5.240   3.559   7.402
18595SOL    HW257683   5.366   3.479   7.424
18596SOL     OW57684   9.372   6.964  12.153
18596SOL    HW157685   9.354   6.874  12.125
18596SOL    HW257686   9.462   6.979  12.125
18597SOL     OW57687   4.784   6.358   1.676
18597SOL    HW157688   4.810   6.331   1.588
18597SOL    HW257689   4.728   6.435   1.663
18598SOL     OW57690  11.179   0.797   4.419
18598SOL    HW157691  11.086   0.779   4.412
18598SOL    HW257692  11.199   0.853   4.345
18599SOL     OW57693   0.709   6.093   6.659
18599SOL    HW157694   0.629   6.063   6.701
18599SOL    HW257695   0.724   6.030   6.588
18600SOL     OW57696   5.468   4.177  11.481
18600SOL    HW157697   5.521   4.244  11.438
18600SOL    HW257698   5.382   4.218  11.491
18601SOL     OW57699   6.188   7.831  12.078
18601SOL    HW157700   6.141   7.748  12.088
18601SOL    HW257701   6.190   7.868  12.166
18602SOL     OW57702   6.529   1.567  11.343
18602SOL    HW157703   6.444   1.577  11.301
18602SOL    HW257704   6.544   1.649  11.389
18603SOL     OW57705   9.968   6.727  12.689
18603SOL    HW157706  10.028   6.690  12.754
18603SOL    HW257707   9.911   6.784  12.740
18604SOL     OW57708   0.636   0.626   9.112
18604SOL    HW157709   0.544   0.630   9.136
18604SOL    HW257710   0.652   0.533   9.097
18605SOL     OW57711  12.031  11.751   4.425
18605SOL    HW157712  12.094  11.713   4.364
18605SOL    HW257713  12.005  11.678   4.481
18606SOL     OW57714   1.906   3.662   7.856
18606SOL    HW157715   1.868   3.579   7.885
18606SOL    HW257716   1.972   3.683   7.922
18607SOL     OW57717   7.732   9.860   7.207
18607SOL    HW157718   7.823   9.830   7.215
18607SOL    HW257719   7.685   9.786   7.169
18608SOL     OW57720  11.452   3.180  12.268
18608SOL    HW157721  11.415   3.097  12.237
18608SOL    HW257722  11.516   3.204  12.201
18609SOL     OW57723   3.872   1.085   3.378
18609SOL    HW157724   3.856   0.992   3.367
18609SOL    HW257725   3.801   1.128   3.330
18610SOL     OW57726  14.843   8.058  12.044
18610SOL    HW157727   0.011   8.010  11.975
18610SOL    HW257728  14.754   8.023  12.042
18611SOL     OW57729   7.222  12.461   6.956
18611SOL    HW157730   7.210  12.429   6.866
18611SOL    HW257731   7.317  12.457   6.969
18612SOL     OW57732   0.667  14.796   0.313
18612SOL    HW157733   0.691   0.009   0.294
18612SOL    HW257734   0.598  14.803   0.379
18613SOL     OW57735   3.454   5.981   6.000
18613SOL    HW157736   3.491   5.994   6.088
18613SOL    HW257737   3.531   5.973   5.944
18614SOL     OW57738   2.586  10.726   9.949
18614SOL    HW157739   2.501  10.767   9.964
18614SOL    HW257740   2.641  10.795   9.914
18615SOL     OW57741   8.438   0.623   0.724
18615SOL    HW157742   8.347   0.651   0.712
18615SOL    HW257743   8.469   0.674   0.799
18616SOL     OW57744   4.008   8.962  11.256
18616SOL    HW157745   3.926   9.006  11.277
18616SOL    HW257746   3.993   8.871  11.280
18617SOL     OW57747   4.876   7.950   6.576
18617SOL    HW157748   4.958   7.903   6.590
18617SOL    HW257749   4.851   7.983   6.663
18618SOL     OW57750   0.077   9.965  14.086
18618SOL    HW157751   0.088   9.871  14.100
18618SOL    HW257752   0.123  10.006  14.159
18619SOL     OW57753  12.933   7.645  14.860
18619SOL    HW157754  13.021   7.657   0.019
18619SOL    HW257755  12.939   7.565  14.808
18620SOL     OW57756   8.644   1.259   9.715
18620SOL    HW157757   8.690   1.196   9.771
18620SOL    HW257758   8.715   1.307   9.671
18621SOL     OW57759   5.719   7.642   4.439
18621SOL    HW157760   5.708   7.566   4.382
18621SOL    HW257761   5.814   7.655   4.443
18622SOL     OW57762   1.463   9.864   4.988
18622SOL    HW157763   1.559   9.862   4.990
18622SOL    HW257764   1.439   9.925   5.056
18623SOL     OW57765   7.057  13.437   7.032
18623SOL    HW157766   7.141  13.483   7.027
18623SOL    HW257767   7.034  13.438   7.125
18624SOL     OW57768   2.393   9.539   1.849
18624SOL    HW157769   2.319   9.488   1.881
18624SOL    HW257770   2.424   9.492   1.772
18625SOL     OW57771  13.529   7.785  11.988
18625SOL    HW157772  13.496   7.777  11.898
18625SOL    HW257773  13.450   7.782  12.042
18626SOL     OW57774  13.046  12.637   3.746
18626SOL    HW157775  13.130  12.592   3.744
18626SOL    HW257776  13.068  12.729   3.727
18627SOL     OW57777  12.494   2.219   2.468
18627SOL    HW157778  12.474   2.138   2.420
18627SOL    HW257779  12.520   2.281   2.400
18628SOL     OW57780  11.661  14.793   1.810
18628SOL    HW157781  11.736  14.781   1.752
18628SOL    HW257782  11.598  14.843   1.758
18629SOL     OW57783   7.396  11.037   3.563
18629SOL    HW157784   7.410  10.948   3.596
18629SOL    HW257785   7.314  11.065   3.604
18630SOL     OW57786   6.838   1.650   4.618
18630SOL    HW157787   6.843   1.586   4.547
18630SOL    HW257788   6.767   1.709   4.591
18631SOL     OW57789  11.813   0.993   4.488
18631SOL    HW157790  11.731   1.041   4.476
18631SOL    HW257791  11.880   1.047   4.445
18632SOL     OW57792   3.525   9.863   4.291
18632SOL    HW157793   3.598   9.878   4.351
18632SOL    HW257794   3.520   9.768   4.282
18633SOL     OW57795   2.456  13.730   3.542
18633SOL    HW157796   2.362  13.712   3.543
18633SOL    HW257797   2.470  13.785   3.619
18634SOL     OW57798   0.143   3.415   1.720
18634SOL    HW157799   0.181   3.377   1.799
18634SOL    HW257800   0.107   3.499   1.749
18635SOL     OW57801  10.489   7.640  14.677
18635SOL    HW157802  10.504   7.585  14.600
18635SOL    HW257803  10.400   7.673  14.665
18636SOL     OW57804  13.690  13.530   2.781
18636SOL    HW157805  13.609  13.479   2.780
18636SOL    HW257806  13.723  13.525   2.692
18637SOL     OW57807   4.431   7.783   1.718
18637SOL    HW157808   4.347   7.827   1.733
18637SOL    HW257809   4.452   7.803   1.627
18638SOL     OW57810  14.756   8.115  11.422
18638SOL    HW157811  14.725   8.036  11.465
18638SOL    HW257812  14.718   8.112  11.334
18639SOL     OW57813   3.748  13.841  11.742
18639SOL    HW157814   3.764  13.762  11.691
18639SOL    HW257815   3.835  13.867  11.773
18640SOL     OW57816   8.224   3.680  11.766
18640SOL    HW157817   8.272   3.637  11.695
18640SOL    HW257818   8.151   3.723  11.722
18641SOL     OW57819   8.356  12.826  13.256
18641SOL    HW157820   8.440  12.783  13.241
18641SOL    HW257821   8.293  12.753  13.265
18642SOL     OW57822  12.006   3.458  13.709
18642SOL    HW157823  12.005   3.365  13.685
18642SOL    HW257824  11.914   3.480  13.723
18643SOL     OW57825  13.568   9.432   6.181
18643SOL    HW157826  13.626   9.504   6.154
18643SOL    HW257827  13.570   9.434   6.277
18644SOL     OW57828  11.809   7.597   0.107
18644SOL    HW157829  11.862   7.527   0.069
18644SOL    HW257830  11.750   7.624   0.036
18645SOL     OW57831  13.664   1.475   3.802
18645SOL    HW157832  13.624   1.509   3.722
18645SOL    HW257833  13.665   1.550   3.861
18646SOL     OW57834   3.935   2.387  14.787
18646SOL    HW157835   4.012   2.443  14.799
18646SOL    HW257836   3.918   2.352  14.875
18647SOL     OW57837  13.664   2.403   9.855
18647SOL    HW157838  13.753   2.434   9.872
18647SOL    HW257839  13.654   2.326   9.912
18648SOL     OW57840   6.753   5.355  13.877
18648SOL    HW157841   6.730   5.366  13.969
18648SOL    HW257842   6.821   5.420  13.861
18649SOL     OW57843   0.131   8.556   7.873
18649SOL    HW157844   0.124   8.516   7.786
18649SOL    HW257845   0.051   8.528   7.918
18650SOL     OW57846  12.491  13.941   9.321
18650SOL    HW157847  12.453  13.855   9.339
18650SOL    HW257848  12.513  13.939   9.228
18651SOL     OW57849   4.314   5.680  11.733
18651SOL    HW157850   4.329   5.697  11.640
18651SOL    HW257851   4.357   5.596  11.749
18652SOL     OW57852   1.311   1.862  13.336
18652SOL    HW157853   1.285   1.915  13.260
18652SOL    HW257854   1.271   1.777  13.321
18653SOL     OW57855  14.401   9.253   3.543
18653SOL    HW157856  14.340   9.300   3.486
18653SOL    HW257857  14.450   9.196   3.484
18654SOL     OW57858  13.866   2.689   8.170
18654SOL    HW157859  13.908   2.622   8.116
18654SOL    HW257860  13.806   2.639   8.226
18655SOL     OW57861  10.208   4.394  11.478
18655SOL    HW157862  10.292   4.350  11.470
18655SOL    HW257863  10.228   4.487  11.475
18656SOL     OW57864  10.951   5.731   6.565
18656SOL    HW157865  10.909   5.661   6.515
18656SOL    HW257866  11.031   5.692   6.599
18657SOL     OW57867   7.099   2.129   3.458
18657SOL    HW157868   7.076   2.147   3.550
18657SOL    HW257869   7.015   2.123   3.413
18658SOL     OW57870  13.102   5.606   7.091
18658SOL    HW157871  13.058   5.584   7.009
18658SOL    HW257872  13.069   5.542   7.154
18659SOL     OW57873   6.182  13.668   4.489
18659SOL    HW157874   6.272  13.649   4.463
18659SOL    HW257875   6.152  13.732   4.424
18660SOL     OW57876   4.853  14.562   3.415
18660SOL    HW157877   4.761  14.564   3.388
18660SOL    HW257878   4.898  14.519   3.342
18661SOL     OW57879  12.449   4.356  14.835
18661SOL    HW157880  12.539   4.343  14.864
18661SOL    HW257881  12.421   4.437   0.001
18662SOL     OW57882  11.609  11.085   7.863
18662SOL    HW157883  11.547  11.101   7.793
18662SOL    HW257884  11.622  11.170   7.904
18663SOL     OW57885   8.927  11.867  10.013
18663SOL    HW157886   8.945  11.847   9.921
18663SOL    HW257887   9.006  11.910  10.044
18664SOL     OW57888   0.030   5.060   7.500
18664SOL    HW157889  14.837   5.005   7.466
18664SOL    HW257890   0.066   5.103   7.423
18665SOL     OW57891   1.012  13.797  12.398
18665SOL    HW157892   0.953  13.751  12.458
18665SOL    HW257893   1.029  13.733  12.328
18666SOL     OW57894   5.383   5.581   3.716
18666SOL    HW157895   5.356   5.614   3.802
18666SOL    HW257896   5.459   5.634   3.693
18667SOL     OW57897   9.290  14.735   4.214
18667SOL    HW157898   9.277  14.642   4.196
18667SOL    HW257899   9.206  14.775   4.193
18668SOL     OW57900   9.613  12.256   2.720
18668SOL    HW157901   9.614  12.263   2.625
18668SOL    HW257902   9.660  12.175   2.739
18669SOL     OW57903   0.226  10.939   1.625
18669SOL    HW157904   0.277  10.861   1.606
18669SOL    HW257905   0.278  11.012   1.591
18670SOL     OW57906  12.395   1.084  12.760
18670SOL    HW157907  12.367   1.176  12.765
18670SOL    HW257908  12.401   1.067  12.666
18671SOL     OW57909   4.529   4.777   5.597
18671SOL    HW157910   4.500   4.817   5.515
18671SOL    HW257911   4.467   4.707   5.613
18672SOL     OW57912   7.737   5.405   0.641
18672SOL    HW157913   7.786   5.449   0.571
18672SOL    HW257914   7.804   5.360   0.692
18673SOL     OW57915   4.958  11.716  13.588
18673SOL    HW157916   4.872  11.676  13.606
18673SOL    HW257917   5.021  11.648  13.612
18674SOL     OW57918   0.272  13.953   1.337
18674SOL    HW157919   0.279  13.858   1.349
18674SOL    HW257920   0.358  13.987   1.363
18675SOL     OW57921  11.251   2.664  14.775
18675SOL    HW157922  11.181   2.708  14.726
18675SOL    HW257923  11.309   2.735  14.803
18676SOL     OW57924  13.206  12.964   0.948
18676SOL    HW157925  13.255  12.882   0.959
18676SOL    HW257926  13.267  13.032   0.978
18677SOL     OW57927   1.600   3.441  11.434
18677SOL    HW157928   1.598   3.493  11.515
18677SOL    HW257929   1.691   3.445  11.405
18678SOL     OW57930   6.192   9.789   0.444
18678SOL    HW157931   6.240   9.845   0.384
18678SOL    HW257932   6.147   9.726   0.387
18679SOL     OW57933  14.742   0.344   6.487
18679SOL    HW157934  14.798   0.291   6.431
18679SOL    HW257935  14.746   0.302   6.573
18680SOL     OW57936   5.116   2.760   2.709
18680SOL    HW157937   5.039   2.729   2.757
18680SOL    HW257938   5.103   2.728   2.620
18681SOL     OW57939  10.088   1.512   4.460
18681SOL    HW157940  10.158   1.567   4.494
18681SOL    HW257941  10.025   1.506   4.532
18682SOL     OW57942   7.569   3.482   6.755
18682SOL    HW157943   7.657   3.453   6.729
18682SOL    HW257944   7.573   3.484   6.851
18683SOL     OW57945   2.387   4.897   4.479
18683SOL    HW157946   2.347   4.983   4.473
18683SOL    HW257947   2.323   4.838   4.438
18684SOL     OW57948   7.135   8.264   0.595
18684SOL    HW157949   7.186   8.280   0.675
18684SOL    HW257950   7.128   8.169   0.590
18685SOL     OW57951  12.890   6.909  11.611
18685SOL    HW157952  12.948   6.908  11.535
18685SOL    HW257953  12.859   6.819  11.619
18686SOL     OW57954   2.241   9.748  12.337
18686SOL    HW157955   2.234   9.834  12.379
18686SOL    HW257956   2.194   9.759  12.254
18687SOL     OW57957   6.234  10.781   3.539
18687SOL    HW157958   6.144  10.765   3.569
18687SOL    HW257959   6.231  10.761   3.446
18688SOL     OW57960   9.391  11.116  10.394
18688SOL    HW157961   9.408  11.118  10.488
18688SOL    HW257962   9.423  11.200  10.362
18689SOL     OW57963   6.472  10.920  10.418
18689SOL    HW157964   6.515  10.889  10.498
18689SOL    HW257965   6.536  10.978  10.377
18690SOL     OW57966   0.115   9.918   7.173
18690SOL    HW157967   0.034   9.970   7.169
18690SOL    HW257968   0.184   9.982   7.186
18691SOL     OW57969   1.609  14.858   0.438
18691SOL    HW157970   1.624  14.823   0.526
18691SOL    HW257971   1.614   0.075   0.449
18692SOL     OW57972   2.697  10.136   4.197
18692SOL    HW157973   2.680  10.042   4.201
18692SOL    HW257974   2.750  10.154   4.274
18693SOL     OW57975   2.080  14.285   6.183
18693SOL    HW157976   1.992  14.279   6.221
18693SOL    HW257977   2.131  14.335   6.247
18694SOL     OW57978  13.981   8.748  14.179
18694SOL    HW157979  14.002   8.668  14.227
18694SOL    HW257980  14.023   8.818  14.229
18695SOL     OW57981   6.925   6.625   6.446
18695SOL    HW157982   6.857   6.611   6.512
18695SOL    HW257983   7.003   6.647   6.497
18696SOL     OW57984   7.667  13.880   0.895
18696SOL    HW157985   7.698  13.941   0.828
18696SOL    HW257986   7.746  13.843   0.933
18697SOL     OW57987   9.043  11.724  10.225
18697SOL    HW157988   9.121  11.706  10.172
18697SOL    HW257989   8.981  11.761  10.163
18698SOL     OW57990   4.550   7.973   2.978
18698SOL    HW157991   4.474   7.998   3.030
18698SOL    HW257992   4.616   8.038   3.000
18699SOL     OW57993   1.190  14.462   3.559
18699SOL    HW157994   1.097  14.444   3.540
18699SOL    HW257995   1.196  14.456   3.654
18700SOL     OW57996   6.507   7.212   5.119
18700SOL    HW157997   6.530   7.164   5.198
18700SOL    HW257998   6.467   7.147   5.061
18701SOL     OW57999   8.913  11.401   0.133
18701SOL    HW158000   8.888  11.468   0.070
18701SOL    HW258001   8.889  11.438   0.218
18702SOL     OW58002   6.520   1.281  11.637
18702SOL    HW158003   6.454   1.236  11.690
18702SOL    HW258004   6.474   1.304  11.556
18703SOL     OW58005   1.970   5.846  10.325
18703SOL    HW158006   1.989   5.905  10.252
18703SOL    HW258007   1.939   5.766  10.283
18704SOL     OW58008   6.106  12.364   6.722
18704SOL    HW158009   6.015  12.335   6.714
18704SOL    HW258010   6.131  12.340   6.811
18705SOL     OW58011   6.525   4.054   2.971
18705SOL    HW158012   6.618   4.055   2.951
18705SOL    HW258013   6.511   3.972   3.018
18706SOL     OW58014  13.330   8.917   1.704
18706SOL    HW158015  13.372   8.981   1.646
18706SOL    HW258016  13.327   8.960   1.789
18707SOL     OW58017   9.597   5.878  14.007
18707SOL    HW158018   9.640   5.860  14.091
18707SOL    HW258019   9.503   5.879  14.028
18708SOL     OW58020   7.652   7.312   1.571
18708SOL    HW158021   7.702   7.380   1.526
18708SOL    HW258022   7.565   7.349   1.584
18709SOL     OW58023  13.606   9.883   8.086
18709SOL    HW158024  13.520   9.915   8.114
18709SOL    HW258025  13.662   9.897   8.163
18710SOL     OW58026   9.481   7.806   4.990
18710SOL    HW158027   9.394   7.839   4.968
18710SOL    HW258028   9.502   7.846   5.074
18711SOL     OW58029   8.863   1.134   4.251
18711SOL    HW158030   8.887   1.061   4.308
18711SOL    HW258031   8.796   1.099   4.193
18712SOL     OW58032   7.185  10.134   8.761
18712SOL    HW158033   7.259  10.105   8.814
18712SOL    HW258034   7.192  10.084   8.680
18713SOL     OW58035  12.756   4.014   1.003
18713SOL    HW158036  12.833   4.069   1.017
18713SOL    HW258037  12.726   4.036   0.915
18714SOL     OW58038  10.887   4.317  14.587
18714SOL    HW158039  10.896   4.328  14.682
18714SOL    HW258040  10.846   4.397  14.557
18715SOL     OW58041   1.496   2.615   1.951
18715SOL    HW158042   1.469   2.580   2.036
18715SOL    HW258043   1.435   2.576   1.889
18716SOL     OW58044  11.806   9.921  13.711
18716SOL    HW158045  11.831   9.960  13.628
18716SOL    HW258046  11.784   9.830  13.690
18717SOL     OW58047  14.352  10.855   7.979
18717SOL    HW158048  14.317  10.828   7.894
18717SOL    HW258049  14.281  10.838   8.040
18718SOL     OW58050   1.460   4.473   2.549
18718SOL    HW158051   1.523   4.522   2.602
18718SOL    HW258052   1.505   4.458   2.466
18719SOL     OW58053   4.444   1.801   3.939
18719SOL    HW158054   4.492   1.733   3.986
18719SOL    HW258055   4.468   1.790   3.848
18720SOL     OW58056   9.326   8.188  10.265
18720SOL    HW158057   9.357   8.167  10.353
18720SOL    HW258058   9.329   8.284  10.260
18721SOL     OW58059   6.490   6.551   1.607
18721SOL    HW158060   6.553   6.506   1.663
18721SOL    HW258061   6.501   6.511   1.521
18722SOL     OW58062   0.786  14.774  10.062
18722SOL    HW158063   0.833  14.855  10.046
18722SOL    HW258064   0.696  14.793  10.036
18723SOL     OW58065   4.778   1.686   4.714
18723SOL    HW158066   4.798   1.701   4.806
18723SOL    HW258067   4.857   1.644   4.679
18724SOL     OW58068   5.024  12.166  13.892
18724SOL    HW158069   5.082  12.092  13.877
18724SOL    HW258070   5.027  12.180  13.986
18725SOL     OW58071   6.609   4.001   6.045
18725SOL    HW158072   6.603   4.069   5.977
18725SOL    HW258073   6.552   4.031   6.115
18726SOL     OW58074   7.195  11.809   7.223
18726SOL    HW158075   7.198  11.799   7.318
18726SOL    HW258076   7.277  11.768   7.192
18727SOL     OW58077   4.836  12.327  13.136
18727SOL    HW158078   4.832  12.243  13.182
18727SOL    HW258079   4.752  12.368  13.154
18728SOL     OW58080   4.521   1.516  13.748
18728SOL    HW158081   4.433   1.528  13.713
18728SOL    HW258082   4.514   1.541  13.840
18729SOL     OW58083   5.520   7.737   6.473
18729SOL    HW158084   5.549   7.699   6.390
18729SOL    HW258085   5.468   7.814   6.447
18730SOL     OW58086   3.100   0.827   8.628
18730SOL    HW158087   3.064   0.901   8.678
18730SOL    HW258088   3.193   0.828   8.648
18731SOL     OW58089  10.248   2.381  11.122
18731SOL    HW158090  10.241   2.352  11.213
18731SOL    HW258091  10.173   2.438  11.109
18732SOL     OW58092   6.637   8.459  13.023
18732SOL    HW158093   6.728   8.451  12.994
18732SOL    HW258094   6.644   8.481  13.116
18733SOL     OW58095   8.690   1.405   5.764
18733SOL    HW158096   8.782   1.401   5.791
18733SOL    HW258097   8.691   1.373   5.673
18734SOL     OW58098   6.478  13.011   7.901
18734SOL    HW158099   6.446  12.923   7.883
18734SOL    HW258100   6.507  13.044   7.816
18735SOL     OW58101  14.676   9.380  13.160
18735SOL    HW158102  14.733   9.450  13.191
18735SOL    HW258103  14.735   9.317  13.119
18736SOL     OW58104   6.803  12.050  11.652
18736SOL    HW158105   6.790  11.958  11.631
18736SOL    HW258106   6.842  12.088  11.573
18737SOL     OW58107  12.796   0.896   7.980
18737SOL    HW158108  12.776   0.988   7.962
18737SOL    HW258109  12.754   0.879   8.064
18738SOL     OW58110   1.021   1.584   4.325
18738SOL    HW158111   0.952   1.525   4.355
18738SOL    HW258112   0.978   1.640   4.261
18739SOL     OW58113   9.787  11.786  13.549
18739SOL    HW158114   9.838  11.761  13.626
18739SOL    HW258115   9.811  11.877  13.534
18740SOL     OW58116  12.877  10.156   7.272
18740SOL    HW158117  12.827  10.108   7.207
18740SOL    HW258118  12.961  10.174   7.230
18741SOL     OW58119   5.032   8.970   4.879
18741SOL    HW158120   5.039   9.060   4.912
18741SOL    HW258121   5.073   8.917   4.947
18742SOL     OW58122   1.111   4.909   0.832
18742SOL    HW158123   1.124   4.989   0.780
18742SOL    HW258124   1.191   4.902   0.884
18743SOL     OW58125  11.397   4.105  11.234
18743SOL    HW158126  11.394   4.012  11.209
18743SOL    HW258127  11.323   4.144  11.188
18744SOL     OW58128   4.654   4.551   8.947
18744SOL    HW158129   4.667   4.461   8.917
18744SOL    HW258130   4.586   4.544   9.014
18745SOL     OW58131   0.346  14.541  14.647
18745SOL    HW158132   0.376  14.628  14.620
18745SOL    HW258133   0.334  14.493  14.565
18746SOL     OW58134   9.762  14.689   2.241
18746SOL    HW158135   9.710  14.643   2.306
18746SOL    HW258136   9.724  14.664   2.157
18747SOL     OW58137   5.828   5.823   6.832
18747SOL    HW158138   5.821   5.913   6.801
18747SOL    HW258139   5.858   5.773   6.756
18748SOL     OW58140   1.243   7.023   6.824
18748SOL    HW158141   1.181   7.042   6.753
18748SOL    HW258142   1.215   7.079   6.896
18749SOL     OW58143  14.036   9.131   6.942
18749SOL    HW158144  14.035   9.037   6.928
18749SOL    HW258145  13.997   9.167   6.862
18750SOL     OW58146   8.731   0.495   1.994
18750SOL    HW158147   8.683   0.429   2.045
18750SOL    HW258148   8.822   0.465   1.995
18751SOL     OW58149   1.663  11.512   8.289
18751SOL    HW158150   1.599  11.560   8.341
18751SOL    HW258151   1.674  11.565   8.210
18752SOL     OW58152   2.157  14.346   4.753
18752SOL    HW158153   2.250  14.327   4.741
18752SOL    HW258154   2.138  14.414   4.689
18753SOL     OW58155   0.230   8.939   1.397
18753SOL    HW158156   0.271   8.920   1.482
18753SOL    HW258157   0.271   9.021   1.369
18754SOL     OW58158   1.416   2.976   5.366
18754SOL    HW158159   1.505   2.940   5.372
18754SOL    HW258160   1.386   2.979   5.457
18755SOL     OW58161  14.373   1.838  12.818
18755SOL    HW158162  14.311   1.911  12.820
18755SOL    HW258163  14.442   1.867  12.758
18756SOL     OW58164   2.515   8.666   9.105
18756SOL    HW158165   2.521   8.725   9.031
18756SOL    HW258166   2.555   8.714   9.178
18757SOL     OW58167   9.469   1.083  12.907
18757SOL    HW158168   9.558   1.087  12.872
18757SOL    HW258169   9.454   1.170  12.944
18758SOL     OW58170   0.736  11.615   2.652
18758SOL    HW158171   0.761  11.665   2.730
18758SOL    HW258172   0.732  11.524   2.683
18759SOL     OW58173  11.631   1.959   1.131
18759SOL    HW158174  11.542   1.972   1.162
18759SOL    HW258175  11.634   1.868   1.102
18760SOL     OW58176   4.278  13.614   4.902
18760SOL    HW158177   4.195  13.655   4.881
18760SOL    HW258178   4.297  13.558   4.826
18761SOL     OW58179   3.099   7.682   9.565
18761SOL    HW158180   3.035   7.653   9.630
18761SOL    HW258181   3.098   7.614   9.497
18762SOL     OW58182   8.556   1.374   2.825
18762SOL    HW158183   8.523   1.443   2.767
18762SOL    HW258184   8.479   1.345   2.874
18763SOL     OW58185   6.942  11.929   8.227
18763SOL    HW158186   6.959  11.886   8.311
18763SOL    HW258187   6.868  11.987   8.245
18764SOL     OW58188   2.683  13.787   2.992
18764SOL    HW158189   2.646  13.755   2.909
18764SOL    HW258190   2.676  13.882   2.985
18765SOL     OW58191   6.205   5.050  11.972
18765SOL    HW158192   6.180   5.054  11.880
18765SOL    HW258193   6.154   5.119  12.014
18766SOL     OW58194  12.744  13.209   9.969
18766SOL    HW158195  12.657  13.244   9.952
18766SOL    HW258196  12.782  13.268  10.034
18767SOL     OW58197   9.046   4.760   2.790
18767SOL    HW158198   9.000   4.780   2.709
18767SOL    HW258199   8.977   4.753   2.856
18768SOL     OW58200   3.763   2.913   9.698
18768SOL    HW158201   3.765   2.904   9.794
18768SOL    HW258202   3.849   2.946   9.675
18769SOL     OW58203   7.257  14.672  13.373
18769SOL    HW158204   7.264  14.716  13.457
18769SOL    HW258205   7.292  14.584  13.388
18770SOL     OW58206   6.478   9.582   8.410
18770SOL    HW158207   6.465   9.541   8.324
18770SOL    HW258208   6.391   9.614   8.434
18771SOL     OW58209   3.876   8.781   6.108
18771SOL    HW158210   3.909   8.698   6.074
18771SOL    HW258211   3.853   8.762   6.199
18772SOL     OW58212   2.837  13.633  12.267
18772SOL    HW158213   2.765  13.697  12.260
18772SOL    HW258214   2.913  13.686  12.293
18773SOL     OW58215   5.906   5.623  10.826
18773SOL    HW158216   5.884   5.696  10.884
18773SOL    HW258217   5.842   5.629  10.755
18774SOL     OW58218  11.216   6.179  12.855
18774SOL    HW158219  11.306   6.185  12.887
18774SOL    HW258220  11.207   6.088  12.827
18775SOL     OW58221   3.118   4.029   9.254
18775SOL    HW158222   3.179   3.996   9.320
18775SOL    HW258223   3.088   3.951   9.207
18776SOL     OW58224   0.202   3.567   4.852
18776SOL    HW158225   0.218   3.587   4.944
18776SOL    HW258226   0.263   3.497   4.830
18777SOL     OW58227  12.164   1.853   2.730
18777SOL    HW158228  12.240   1.835   2.786
18777SOL    HW258229  12.108   1.909   2.784
18778SOL     OW58230   3.386   0.857   7.952
18778SOL    HW158231   3.472   0.880   7.987
18778SOL    HW258232   3.392   0.762   7.935
18779SOL     OW58233   1.226   6.046   0.381
18779SOL    HW158234   1.213   6.136   0.411
18779SOL    HW258235   1.294   6.011   0.439
18780SOL     OW58236  12.516   0.565   2.776
18780SOL    HW158237  12.566   0.594   2.853
18780SOL    HW258238  12.582   0.559   2.706
18781SOL     OW58239   3.519   7.581  10.993
18781SOL    HW158240   3.523   7.498  10.947
18781SOL    HW258241   3.575   7.569  11.070
18782SOL     OW58242   8.272   6.428  13.184
18782SOL    HW158243   8.314   6.443  13.099
18782SOL    HW258244   8.344   6.405  13.243
18783SOL     OW58245   6.439  13.379   5.745
18783SOL    HW158246   6.480  13.426   5.672
18783SOL    HW258247   6.512  13.337   5.791
18784SOL     OW58248   2.146   8.450  10.060
18784SOL    HW158249   2.151   8.382  10.128
18784SOL    HW258250   2.134   8.532  10.109
18785SOL     OW58251  13.550  11.148   2.227
18785SOL    HW158252  13.474  11.180   2.178
18785SOL    HW258253  13.620  11.210   2.206
18786SOL     OW58254   3.621  14.842  13.071
18786SOL    HW158255   3.630   0.004  12.984
18786SOL    HW258256   3.555  14.773  13.060
18787SOL     OW58257  11.093   0.023   7.866
18787SOL    HW158258  11.074  14.814   7.830
18787SOL    HW258259  11.145   0.066   7.798
18788SOL     OW58260   6.060  10.433  10.621
18788SOL    HW158261   6.094  10.391  10.699
18788SOL    HW258262   5.966  10.414  10.622
18789SOL     OW58263   9.030  13.776   3.647
18789SOL    HW158264   9.105  13.749   3.700
18789SOL    HW258265   8.975  13.826   3.707
18790SOL     OW58266  12.241   1.931   1.147
18790SOL    HW158267  12.233   1.836   1.144
18790SOL    HW258268  12.153   1.963   1.169
18791SOL     OW58269   2.542   3.470   0.358
18791SOL    HW158270   2.537   3.495   0.450
18791SOL    HW258271   2.605   3.533   0.321
18792SOL     OW58272   0.006  10.611   0.052
18792SOL    HW158273  14.807  10.557   0.032
18792SOL    HW258274   0.063  10.603  14.853
18793SOL     OW58275   4.750   0.411   5.385
18793SOL    HW158276   4.763   0.500   5.417
18793SOL    HW258277   4.678   0.377   5.438
18794SOL     OW58278   3.075   3.959   7.084
18794SOL    HW158279   2.986   3.926   7.070
18794SOL    HW258280   3.119   3.945   7.000
18795SOL     OW58281   1.277   0.662   8.463
18795SOL    HW158282   1.342   0.678   8.395
18795SOL    HW258283   1.316   0.593   8.517
18796SOL     OW58284   4.512  13.955  12.330
18796SOL    HW158285   4.518  14.003  12.412
18796SOL    HW258286   4.445  14.002  12.279
18797SOL     OW58287  10.174   1.876   8.047
18797SOL    HW158288  10.154   1.791   8.007
18797SOL    HW258289  10.245   1.911   7.994
18798SOL     OW58290  10.878   3.898  13.007
18798SOL    HW158291  10.965   3.928  12.982
18798SOL    HW258292  10.822   3.974  12.996
18799SOL     OW58293  10.453  14.825  12.914
18799SOL    HW158294  10.455  14.781  12.999
18799SOL    HW258295  10.361  14.848  12.901
18800SOL     OW58296   7.183   2.577  13.670
18800SOL    HW158297   7.153   2.648  13.726
18800SOL    HW258298   7.259   2.614  13.624
18801SOL     OW58299  14.467   3.626   4.002
18801SOL    HW158300  14.552   3.613   4.042
18801SOL    HW258301  14.420   3.683   4.063
18802SOL     OW58302   4.705   0.867   8.421
18802SOL    HW158303   4.620   0.894   8.387
18802SOL    HW258304   4.766   0.934   8.389
18803SOL     OW58305   8.453  11.618  13.490
18803SOL    HW158306   8.458  11.615  13.585
18803SOL    HW258307   8.423  11.707  13.470
18804SOL     OW58308   2.167   2.076  12.086
18804SOL    HW158309   2.108   2.020  12.137
18804SOL    HW258310   2.127   2.163  12.091
18805SOL     OW58311   0.146  14.245   6.317
18805SOL    HW158312   0.104  14.228   6.233
18805SOL    HW258313   0.073  14.256   6.378
18806SOL     OW58314  12.333   8.393  11.331
18806SOL    HW158315  12.252   8.438  11.353
18806SOL    HW258316  12.379   8.383  11.414
18807SOL     OW58317  11.024   2.837  11.099
18807SOL    HW158318  11.039   2.915  11.152
18807SOL    HW258319  10.932   2.845  11.072
18808SOL     OW58320   3.334  12.230   1.515
18808SOL    HW158321   3.271  12.280   1.463
18808SOL    HW258322   3.301  12.141   1.513
18809SOL     OW58323   6.792   2.339  14.740
18809SOL    HW158324   6.837   2.326  14.656
18809SOL    HW258325   6.849   2.398  14.789
18810SOL     OW58326   6.925   2.601  11.783
18810SOL    HW158327   6.838   2.601  11.823
18810SOL    HW258328   6.944   2.508  11.768
18811SOL     OW58329   5.234   0.294   3.033
18811SOL    HW158330   5.274   0.372   2.996
18811SOL    HW258331   5.146   0.322   3.061
18812SOL     OW58332   2.777   4.188   8.122
18812SOL    HW158333   2.760   4.161   8.032
18812SOL    HW258334   2.691   4.189   8.164
18813SOL     OW58335   5.841   5.878   1.177
18813SOL    HW158336   5.882   5.821   1.111
18813SOL    HW258337   5.860   5.967   1.147
18814SOL     OW58338   7.199  13.907   4.174
18814SOL    HW158339   7.145  13.868   4.105
18814SOL    HW258340   7.138  13.957   4.228
18815SOL     OW58341   8.162   6.302   8.490
18815SOL    HW158342   8.096   6.272   8.552
18815SOL    HW258343   8.126   6.279   8.404
18816SOL     OW58344   8.174   0.055  13.243
18816SOL    HW158345   8.233   0.130  13.252
18816SOL    HW258346   8.122   0.055  13.324
18817SOL     OW58347   3.798  13.344  10.104
18817SOL    HW158348   3.704  13.359  10.091
18817SOL    HW258349   3.833  13.333  10.016
18818SOL     OW58350   5.385  12.479   0.792
18818SOL    HW158351   5.423  12.451   0.875
18818SOL    HW258352   5.435  12.558   0.769
18819SOL     OW58353   7.086  12.464  11.725
18819SOL    HW158354   7.061  12.554  11.745
18819SOL    HW258355   7.180  12.462  11.739
18820SOL     OW58356   9.773   6.852  12.833
18820SOL    HW158357   9.772   6.948  12.837
18820SOL    HW258358   9.705   6.825  12.895
18821SOL     OW58359  14.645  13.889   6.931
18821SOL    HW158360  14.582  13.942   6.881
18821SOL    HW258361  14.633  13.917   7.021
18822SOL     OW58362   6.464  10.368   4.038
18822SOL    HW158363   6.488  10.294   4.094
18822SOL    HW258364   6.544  10.389   3.989
18823SOL     OW58365   1.502  10.247   6.494
18823SOL    HW158366   1.443  10.311   6.533
18823SOL    HW258367   1.505  10.270   6.401
18824SOL     OW58368  13.740  10.082   6.171
18824SOL    HW158369  13.647  10.102   6.168
18824SOL    HW258370  13.755  10.055   6.262
18825SOL     OW58371   7.877  11.508   5.097
18825SOL    HW158372   7.851  11.460   5.177
18825SOL    HW258373   7.968  11.533   5.113
18826SOL     OW58374  11.499   4.570   2.793
18826SOL    HW158375  11.561   4.616   2.737
18826SOL    HW258376  11.553   4.519   2.852
18827SOL     OW58377   0.983   1.469  11.763
18827SOL    HW158378   1.050   1.501  11.703
18827SOL    HW258379   1.019   1.388  11.799
18828SOL     OW58380   9.005   5.549  10.446
18828SOL    HW158381   9.083   5.589  10.408
18828SOL    HW258382   8.969   5.616  10.504
18829SOL     OW58383  11.761   7.755  12.036
18829SOL    HW158384  11.767   7.753  12.131
18829SOL    HW258385  11.789   7.668  12.008
18830SOL     OW58386   0.292   3.869   9.003
18830SOL    HW158387   0.316   3.948   8.955
18830SOL    HW258388   0.313   3.798   8.943
18831SOL     OW58389   7.040   1.748   2.452
18831SOL    HW158390   7.108   1.752   2.519
18831SOL    HW258391   6.972   1.808   2.483
18832SOL     OW58392   8.239   6.538  14.693
18832SOL    HW158393   8.229   6.623  14.649
18832SOL    HW258394   8.217   6.556  14.784
18833SOL     OW58395  13.928  14.129   8.891
18833SOL    HW158396  13.847  14.119   8.842
18833SOL    HW258397  13.996  14.095   8.833
18834SOL     OW58398   1.287   7.742   8.722
18834SOL    HW158399   1.219   7.744   8.788
18834SOL    HW258400   1.241   7.717   8.641
18835SOL     OW58401   8.003   0.286  13.892
18835SOL    HW158402   7.918   0.242  13.897
18835SOL    HW258403   8.034   0.288  13.983
18836SOL     OW58404   3.009   3.609   3.568
18836SOL    HW158405   3.089   3.598   3.620
18836SOL    HW258406   3.007   3.702   3.546
18837SOL     OW58407  12.189   8.026   8.910
18837SOL    HW158408  12.204   7.943   8.866
18837SOL    HW258409  12.107   8.013   8.959
18838SOL     OW58410  13.196   8.535   2.660
18838SOL    HW158411  13.259   8.464   2.659
18838SOL    HW258412  13.149   8.528   2.578
18839SOL     OW58413  14.086   1.360   8.152
18839SOL    HW158414  14.093   1.440   8.205
18839SOL    HW258415  14.061   1.392   8.065
18840SOL     OW58416   0.112   1.767  13.539
18840SOL    HW158417   0.049   1.788  13.469
18840SOL    HW258418   0.104   1.839  13.601
18841SOL     OW58419   1.216  11.986   5.659
18841SOL    HW158420   1.287  12.028   5.708
18841SOL    HW258421   1.136  12.029   5.691
18842SOL     OW58422   1.544  14.721   8.196
18842SOL    HW158423   1.530  14.791   8.131
18842SOL    HW258424   1.521  14.762   8.280
18843SOL     OW58425   1.945   2.462   9.124
18843SOL    HW158426   1.969   2.524   9.055
18843SOL    HW258427   1.997   2.489   9.200
18844SOL     OW58428   5.265  13.083   7.039
18844SOL    HW158429   5.303  13.000   7.009
18844SOL    HW258430   5.304  13.097   7.125
18845SOL     OW58431  12.469   9.548  10.753
18845SOL    HW158432  12.449   9.461  10.720
18845SOL    HW258433  12.384   9.592  10.758
18846SOL     OW58434  14.213  10.887   0.288
18846SOL    HW158435  14.275  10.872   0.360
18846SOL    HW258436  14.266  10.880   0.209
18847SOL     OW58437  11.143   5.623   2.860
18847SOL    HW158438  11.199   5.683   2.909
18847SOL    HW258439  11.095   5.678   2.799
18848SOL     OW58440   9.775   6.085   6.155
18848SOL    HW158441   9.809   6.077   6.244
18848SOL    HW258442   9.841   6.137   6.109
18849SOL     OW58443   5.185   2.200   4.292
18849SOL    HW158444   5.239   2.121   4.296
18849SOL    HW258445   5.164   2.219   4.383
18850SOL     OW58446   7.805  12.160   7.706
18850SOL    HW158447   7.825  12.069   7.686
18850SOL    HW258448   7.710  12.167   7.696
18851SOL     OW58449  14.336   9.694  13.924
18851SOL    HW158450  14.323   9.602  13.901
18851SOL    HW258451  14.431   9.708  13.915
18852SOL     OW58452  13.343  14.424   3.348
18852SOL    HW158453  13.343  14.328   3.356
18852SOL    HW258454  13.261  14.444   3.302
18853SOL     OW58455  13.660   1.733  11.036
18853SOL    HW158456  13.645   1.750  11.129
18853SOL    HW258457  13.729   1.795  11.011
18854SOL     OW58458   1.149   2.747   1.045
18854SOL    HW158459   1.148   2.762   1.140
18854SOL    HW258460   1.236   2.775   1.017
18855SOL     OW58461   6.548   8.931   2.943
18855SOL    HW158462   6.558   9.002   3.007
18855SOL    HW258463   6.619   8.945   2.881
18856SOL     OW58464   2.102   9.164   5.737
18856SOL    HW158465   2.173   9.227   5.722
18856SOL    HW258466   2.024   9.206   5.701
18857SOL     OW58467   9.262   9.099   9.989
18857SOL    HW158468   9.169   9.100   9.968
18857SOL    HW258469   9.276   9.016  10.033
18858SOL     OW58470  10.187   4.785  10.512
18858SOL    HW158471  10.095   4.779  10.487
18858SOL    HW258472  10.204   4.706  10.564
18859SOL     OW58473  13.277   5.465  11.150
18859SOL    HW158474  13.309   5.431  11.234
18859SOL    HW258475  13.339   5.534  11.126
18860SOL     OW58476   9.802   4.706   3.977
18860SOL    HW158477   9.772   4.664   3.897
18860SOL    HW258478   9.875   4.762   3.948
18861SOL     OW58479   7.892   6.303   4.710
18861SOL    HW158480   7.810   6.281   4.666
18861SOL    HW258481   7.866   6.355   4.786
18862SOL     OW58482  11.882   6.437  14.185
18862SOL    HW158483  11.940   6.366  14.159
18862SOL    HW258484  11.930   6.517  14.165
18863SOL     OW58485  12.947  11.806  13.106
18863SOL    HW158486  13.006  11.747  13.058
18863SOL    HW258487  12.987  11.815  13.192
18864SOL     OW58488   1.380   2.650   3.136
18864SOL    HW158489   1.421   2.737   3.136
18864SOL    HW258490   1.406   2.611   3.052
18865SOL     OW58491   0.958  13.606   9.094
18865SOL    HW158492   0.953  13.644   9.007
18865SOL    HW258493   0.884  13.645   9.142
18866SOL     OW58494  14.113   1.095   3.852
18866SOL    HW158495  14.033   1.080   3.801
18866SOL    HW258496  14.093   1.059   3.939
18867SOL     OW58497  11.377   9.290  10.655
18867SOL    HW158498  11.356   9.382  10.640
18867SOL    HW258499  11.295   9.244  10.643
18868SOL     OW58500   3.977   9.800   4.914
18868SOL    HW158501   3.961   9.725   4.857
18868SOL    HW258502   4.070   9.821   4.899
18869SOL     OW58503   2.498   3.398   2.623
18869SOL    HW158504   2.474   3.484   2.590
18869SOL    HW258505   2.582   3.379   2.581
18870SOL     OW58506   6.000   5.119   0.624
18870SOL    HW158507   6.063   5.130   0.694
18870SOL    HW258508   5.976   5.026   0.627
18871SOL     OW58509   3.869   8.400  10.326
18871SOL    HW158510   3.908   8.342  10.391
18871SOL    HW258511   3.782   8.419  10.360
18872SOL     OW58512   7.557   3.613  10.016
18872SOL    HW158513   7.540   3.526  10.053
18872SOL    HW258514   7.495   3.620   9.943
18873SOL     OW58515  10.673   8.820   8.117
18873SOL    HW158516  10.658   8.855   8.205
18873SOL    HW258517  10.768   8.822   8.105
18874SOL     OW58518   5.874   1.195   2.320
18874SOL    HW158519   5.968   1.190   2.299
18874SOL    HW258520   5.855   1.112   2.364
18875SOL     OW58521   7.294   2.992   2.892
18875SOL    HW158522   7.267   3.054   2.959
18875SOL    HW258523   7.213   2.964   2.850
18876SOL     OW58524  13.359   4.733   4.272
18876SOL    HW158525  13.331   4.761   4.185
18876SOL    HW258526  13.454   4.724   4.265
18877SOL     OW58527  14.107   7.156  13.839
18877SOL    HW158528  14.152   7.131  13.758
18877SOL    HW258529  14.174   7.150  13.907
18878SOL     OW58530   3.166   4.957  14.614
18878SOL    HW158531   3.202   4.884  14.563
18878SOL    HW258532   3.135   5.020  14.548
18879SOL     OW58533  10.353   4.859  13.233
18879SOL    HW158534  10.349   4.873  13.139
18879SOL    HW258535  10.430   4.906  13.262
18880SOL     OW58536   7.339   4.305  10.650
18880SOL    HW158537   7.412   4.367  10.649
18880SOL    HW258538   7.371   4.229  10.602
18881SOL     OW58539  10.922   7.075   8.749
18881SOL    HW158540  10.972   7.001   8.716
18881SOL    HW258541  10.953   7.150   8.697
18882SOL     OW58542   6.900  11.325   9.850
18882SOL    HW158543   6.875  11.237   9.820
18882SOL    HW258544   6.943  11.364   9.773
18883SOL     OW58545   1.126  11.102   0.941
18883SOL    HW158546   1.118  11.048   1.019
18883SOL    HW258547   1.217  11.134   0.943
18884SOL     OW58548   9.532  11.337  11.089
18884SOL    HW158549   9.552  11.393  11.164
18884SOL    HW258550   9.442  11.308  11.104
18885SOL     OW58551   1.096  12.395   6.219
18885SOL    HW158552   1.038  12.438   6.282
18885SOL    HW258553   1.097  12.455   6.144
18886SOL     OW58554   0.220   6.467  12.530
18886SOL    HW158555   0.284   6.425  12.586
18886SOL    HW258556   0.195   6.547  12.576
18887SOL     OW58557   8.896   4.718  12.080
18887SOL    HW158558   8.830   4.749  12.141
18887SOL    HW258559   8.903   4.624  12.096
18888SOL     OW58560  12.037   2.835   0.655
18888SOL    HW158561  11.960   2.779   0.659
18888SOL    HW258562  12.078   2.815   0.571
18889SOL     OW58563  12.684   4.022  13.812
18889SOL    HW158564  12.640   4.078  13.748
18889SOL    HW258565  12.688   4.074  13.892
18890SOL     OW58566   4.955  13.439  10.313
18890SOL    HW158567   5.009  13.474  10.242
18890SOL    HW258568   5.004  13.364  10.346
18891SOL     OW58569   4.140   1.549   8.807
18891SOL    HW158570   4.223   1.554   8.854
18891SOL    HW258571   4.135   1.631   8.757
18892SOL     OW58572   0.835   9.639  10.954
18892SOL    HW158573   0.761   9.690  10.920
18892SOL    HW258574   0.908   9.700  10.957
18893SOL     OW58575   4.849   5.989   4.862
18893SOL    HW158576   4.767   5.973   4.909
18893SOL    HW258577   4.884   5.902   4.844
18894SOL     OW58578   7.137  12.515  13.168
18894SOL    HW158579   7.044  12.515  13.190
18894SOL    HW258580   7.149  12.594  13.115
18895SOL     OW58581   8.302   6.664   7.205
18895SOL    HW158582   8.260   6.749   7.220
18895SOL    HW258583   8.252   6.625   7.133
18896SOL     OW58584  10.283   9.916  14.018
18896SOL    HW158585  10.341   9.970  13.964
18896SOL    HW258586  10.213   9.975  14.045
18897SOL     OW58587   1.822  11.848   2.359
18897SOL    HW158588   1.732  11.817   2.350
18897SOL    HW258589   1.868  11.778   2.404
18898SOL     OW58590  13.986   3.333   1.551
18898SOL    HW158591  13.971   3.310   1.459
18898SOL    HW258592  13.923   3.280   1.600
18899SOL     OW58593   8.845   6.787  12.702
18899SOL    HW158594   8.803   6.868  12.673
18899SOL    HW258595   8.875   6.806  12.791
18900SOL     OW58596   5.120   9.576   5.449
18900SOL    HW158597   5.107   9.668   5.472
18900SOL    HW258598   5.188   9.545   5.511
18901SOL     OW58599  11.541   5.308   3.299
18901SOL    HW158600  11.540   5.262   3.382
18901SOL    HW258601  11.519   5.399   3.321
18902SOL     OW58602  14.142  14.766  14.121
18902SOL    HW158603  14.089  14.700  14.166
18902SOL    HW258604  14.191  14.717  14.055
18903SOL     OW58605   4.223  13.109   6.465
18903SOL    HW158606   4.268  13.026   6.477
18903SOL    HW258607   4.242  13.133   6.374
18904SOL     OW58608  12.693  13.907  12.435
18904SOL    HW158609  12.658  13.969  12.499
18904SOL    HW258610  12.774  13.874  12.475
18905SOL     OW58611   6.738   4.752   3.389
18905SOL    HW158612   6.741   4.680   3.325
18905SOL    HW258613   6.703   4.826   3.340
18906SOL     OW58614   9.559   4.087  12.923
18906SOL    HW158615   9.551   4.168  12.973
18906SOL    HW258616   9.518   4.021  12.978
18907SOL     OW58617  10.620   4.451  10.465
18907SOL    HW158618  10.703   4.492  10.491
18907SOL    HW258619  10.568   4.523  10.429
18908SOL     OW58620   9.531   3.925   9.653
18908SOL    HW158621   9.579   3.915   9.571
18908SOL    HW258622   9.583   3.876   9.717
18909SOL     OW58623   4.436   6.654   1.240
18909SOL    HW158624   4.403   6.647   1.330
18909SOL    HW258625   4.430   6.747   1.219
18910SOL     OW58626   3.303   1.290   2.145
18910SOL    HW158627   3.259   1.308   2.062
18910SOL    HW258628   3.329   1.198   2.138
18911SOL     OW58629  10.119  13.597   9.846
18911SOL    HW158630  10.048  13.598   9.910
18911SOL    HW258631  10.198  13.592   9.898
18912SOL     OW58632   0.340   7.142   2.535
18912SOL    HW158633   0.353   7.143   2.440
18912SOL    HW258634   0.321   7.051   2.556
18913SOL     OW58635  13.563  12.404  12.937
18913SOL    HW158636  13.584  12.382  13.027
18913SOL    HW258637  13.507  12.333  12.907
18914SOL     OW58638   7.776   0.083   0.098
18914SOL    HW158639   7.737   0.001   0.070
18914SOL    HW258640   7.846   0.058   0.158
18915SOL     OW58641  12.181   9.386  14.268
18915SOL    HW158642  12.180   9.301  14.311
18915SOL    HW258643  12.200   9.367  14.177
18916SOL     OW58644   6.652   1.800  14.225
18916SOL    HW158645   6.708   1.744  14.172
18916SOL    HW258646   6.712   1.863  14.265
18917SOL     OW58647   7.106   9.738  10.463
18917SOL    HW158648   7.034   9.765  10.406
18917SOL    HW258649   7.167   9.812  10.460
18918SOL     OW58650   0.572  14.601   6.299
18918SOL    HW158651   0.660  14.571   6.322
18918SOL    HW258652   0.517  14.523   6.307
18919SOL     OW58653  10.085   4.044  11.816
18919SOL    HW158654   9.997   4.026  11.847
18919SOL    HW258655  10.080   4.134  11.782
18920SOL     OW58656   2.535   0.215  10.114
18920SOL    HW158657   2.475   0.171  10.054
18920SOL    HW258658   2.588   0.144  10.151
18921SOL     OW58659  13.617  12.344   6.837
18921SOL    HW158660  13.566  12.331   6.917
18921SOL    HW258661  13.580  12.281   6.774
18922SOL     OW58662  12.522  14.683   3.006
18922SOL    HW158663  12.546  14.592   3.021
18922SOL    HW258664  12.480  14.683   2.920
18923SOL     OW58665   0.071   7.562   0.228
18923SOL    HW158666   0.015   7.564   0.150
18923SOL    HW258667   0.123   7.643   0.222
18924SOL     OW58668   6.217  11.906   0.356
18924SOL    HW158669   6.228  11.988   0.406
18924SOL    HW258670   6.189  11.843   0.422
18925SOL     OW58671   0.596   1.111  12.111
18925SOL    HW158672   0.528   1.045  12.095
18925SOL    HW258673   0.549   1.193  12.120
18926SOL     OW58674   9.516   1.479  14.124
18926SOL    HW158675   9.504   1.498  14.217
18926SOL    HW258676   9.591   1.533  14.099
18927SOL     OW58677   9.512   9.596  12.201
18927SOL    HW158678   9.541   9.565  12.287
18927SOL    HW258679   9.531   9.690  12.201
18928SOL     OW58680   9.465  10.975   8.169
18928SOL    HW158681   9.444  10.882   8.182
18928SOL    HW258682   9.460  10.988   8.075
18929SOL     OW58683   7.100  13.882   5.492
18929SOL    HW158684   7.036  13.925   5.434
18929SOL    HW258685   7.136  13.811   5.439
18930SOL     OW58686  12.771   9.801   2.280
18930SOL    HW158687  12.795   9.751   2.202
18930SOL    HW258688  12.785   9.740   2.353
18931SOL     OW58689   4.846   3.805   6.328
18931SOL    HW158690   4.780   3.757   6.278
18931SOL    HW258691   4.824   3.897   6.314
18932SOL     OW58692   2.339  10.164   6.652
18932SOL    HW158693   2.250  10.179   6.684
18932SOL    HW258694   2.348  10.225   6.579
18933SOL     OW58695   5.743   8.260   0.022
18933SOL    HW158696   5.752   8.353   0.042
18933SOL    HW258697   5.651   8.241   0.041
18934SOL     OW58698   1.303   2.056   1.643
18934SOL    HW158699   1.303   1.966   1.676
18934SOL    HW258700   1.222   2.062   1.591
18935SOL     OW58701  14.785   8.824  11.625
18935SOL    HW158702  14.792   8.733  11.596
18935SOL    HW258703  14.845   8.830  11.700
18936SOL     OW58704   3.399  14.717   9.750
18936SOL    HW158705   3.331  14.653   9.730
18936SOL    HW258706   3.363  14.801   9.722
18937SOL     OW58707   8.539   6.863  13.187
18937SOL    HW158708   8.605   6.829  13.247
18937SOL    HW258709   8.486   6.922  13.240
18938SOL     OW58710   4.645   4.259   2.326
18938SOL    HW158711   4.660   4.200   2.253
18938SOL    HW258712   4.585   4.212   2.384
18939SOL     OW58713  11.585   8.797   3.047
18939SOL    HW158714  11.562   8.853   2.972
18939SOL    HW258715  11.653   8.739   3.014
18940SOL     OW58716   7.927   4.414   4.183
18940SOL    HW158717   7.996   4.354   4.210
18940SOL    HW258718   7.865   4.413   4.256
18941SOL     OW58719   7.882  10.721  12.817
18941SOL    HW158720   7.917  10.710  12.728
18941SOL    HW258721   7.787  10.717  12.806
18942SOL     OW58722   1.196   9.922   7.988
18942SOL    HW158723   1.224  10.012   8.007
18942SOL    HW258724   1.201   9.878   8.073
18943SOL     OW58725  13.697   4.141   2.117
18943SOL    HW158726  13.663   4.107   2.200
18943SOL    HW258727  13.786   4.108   2.111
18944SOL     OW58728   7.354  10.926  10.982
18944SOL    HW158729   7.314  10.845  10.949
18944SOL    HW258730   7.281  10.977  11.015
18945SOL     OW58731   0.324   9.619   7.717
18945SOL    HW158732   0.334   9.645   7.808
18945SOL    HW258733   0.322   9.702   7.669
18946SOL     OW58734   7.750  13.617  13.157
18946SOL    HW158735   7.828  13.568  13.183
18946SOL    HW258736   7.784  13.699  13.122
18947SOL     OW58737   6.729  13.184  10.114
18947SOL    HW158738   6.754  13.226  10.196
18947SOL    HW258739   6.681  13.105  10.140
18948SOL     OW58740   0.807   9.588  12.168
18948SOL    HW158741   0.775   9.665  12.122
18948SOL    HW258742   0.886   9.563  12.121
18949SOL     OW58743   1.802   0.518   9.759
18949SOL    HW158744   1.864   0.514   9.832
18949SOL    HW258745   1.721   0.482   9.794
18950SOL     OW58746   2.312   0.825   6.337
18950SOL    HW158747   2.365   0.746   6.333
18950SOL    HW258748   2.253   0.818   6.262
18951SOL     OW58749   9.665   5.648  13.843
18951SOL    HW158750   9.639   5.719  13.901
18951SOL    HW258751   9.707   5.584  13.900
18952SOL     OW58752  10.105  10.918  12.457
18952SOL    HW158753  10.086  10.962  12.374
18952SOL    HW258754  10.146  10.984  12.511
18953SOL     OW58755  14.117   9.915   2.811
18953SOL    HW158756  14.157   9.972   2.744
18953SOL    HW258757  14.164   9.937   2.891
18954SOL     OW58758   6.220   1.783   2.496
18954SOL    HW158759   6.246   1.798   2.587
18954SOL    HW258760   6.272   1.846   2.446
18955SOL     OW58761   4.985  12.380   2.840
18955SOL    HW158762   5.025  12.462   2.869
18955SOL    HW258763   5.051  12.314   2.857
18956SOL     OW58764  13.963   8.698  13.607
18956SOL    HW158765  13.968   8.646  13.688
18956SOL    HW258766  13.876   8.736  13.609
18957SOL     OW58767   9.976   1.931  11.318
18957SOL    HW158768   9.899   1.922  11.374
18957SOL    HW258769   9.990   2.025  11.310
18958SOL     OW58770   5.662  13.278  12.934
18958SOL    HW158771   5.668  13.356  12.879
18958SOL    HW258772   5.743  13.230  12.917
18959SOL     OW58773  14.754  14.503  13.009
18959SOL    HW158774  14.673  14.545  12.981
18959SOL    HW258775  14.815  14.576  13.026
18960SOL     OW58776   6.007   7.136  13.572
18960SOL    HW158777   5.950   7.074  13.526
18960SOL    HW258778   5.954   7.214  13.583
18961SOL     OW58779   0.771  10.130   0.091
18961SOL    HW158780   0.838  10.065   0.115
18961SOL    HW258781   0.718  10.087   0.024
18962SOL     OW58782   0.197   7.488   1.635
18962SOL    HW158783   0.221   7.416   1.578
18962SOL    HW258784   0.104   7.504   1.618
18963SOL     OW58785   7.647   6.814   3.058
18963SOL    HW158786   7.740   6.805   3.038
18963SOL    HW258787   7.638   6.779   3.147
18964SOL     OW58788  12.125   7.246   8.124
18964SOL    HW158789  12.124   7.340   8.144
18964SOL    HW258790  12.077   7.206   8.197
18965SOL     OW58791   4.318   8.461  13.306
18965SOL    HW158792   4.382   8.461  13.235
18965SOL    HW258793   4.235   8.482  13.263
18966SOL     OW58794  14.524   1.341  14.052
18966SOL    HW158795  14.608   1.343  14.099
18966SOL    HW258796  14.465   1.391  14.109
18967SOL     OW58797   2.402   9.889   8.046
18967SOL    HW158798   2.453   9.934   8.114
18967SOL    HW258799   2.405   9.797   8.071
18968SOL     OW58800   1.820   8.981  13.430
18968SOL    HW158801   1.759   8.961  13.501
18968SOL    HW258802   1.833   8.897  13.386
18969SOL     OW58803   5.535   3.328   1.599
18969SOL    HW158804   5.550   3.247   1.647
18969SOL    HW258805   5.568   3.397   1.657
18970SOL     OW58806  11.237  14.871  13.470
18970SOL    HW158807  11.279   0.078  13.485
18970SOL    HW258808  11.233  14.830  13.556
18971SOL     OW58809   2.613  14.641  13.647
18971SOL    HW158810   2.537  14.611  13.598
18971SOL    HW258811   2.678  14.662  13.580
18972SOL     OW58812   3.452   4.159   1.614
18972SOL    HW158813   3.483   4.247   1.595
18972SOL    HW258814   3.465   4.111   1.533
18973SOL     OW58815   1.275   4.476  13.822
18973SOL    HW158816   1.322   4.458  13.904
18973SOL    HW258817   1.342   4.472  13.754
18974SOL     OW58818   6.962   8.740   9.850
18974SOL    HW158819   6.951   8.768   9.941
18974SOL    HW258820   7.003   8.815   9.807
18975SOL     OW58821   5.547   4.538  12.727
18975SOL    HW158822   5.526   4.600  12.797
18975SOL    HW258823   5.462   4.506  12.696
18976SOL     OW58824   7.713   0.627   3.570
18976SOL    HW158825   7.619   0.638   3.582
18976SOL    HW258826   7.724   0.612   3.476
18977SOL     OW58827   3.655   2.697   5.727
18977SOL    HW158828   3.721   2.693   5.658
18977SOL    HW258829   3.671   2.619   5.781
18978SOL     OW58830  12.927  12.870   1.345
18978SOL    HW158831  12.885  12.784   1.354
18978SOL    HW258832  12.930  12.885   1.251
18979SOL     OW58833  10.925  11.727   0.442
18979SOL    HW158834  10.991  11.760   0.380
18979SOL    HW258835  10.926  11.632   0.430
18980SOL     OW58836   5.721   0.931   7.316
18980SOL    HW158837   5.799   0.886   7.350
18980SOL    HW258838   5.737   1.024   7.336
18981SOL     OW58839   9.698   7.681   8.268
18981SOL    HW158840   9.762   7.646   8.329
18981SOL    HW258841   9.746   7.688   8.185
18982SOL     OW58842  14.806  13.844   1.421
18982SOL    HW158843   0.013  13.800   1.423
18982SOL    HW258844  14.785  13.860   1.513
18983SOL     OW58845   1.047  12.508   7.417
18983SOL    HW158846   0.959  12.492   7.449
18983SOL    HW258847   1.079  12.422   7.390
18984SOL     OW58848  11.620  10.334  10.218
18984SOL    HW158849  11.676  10.402  10.254
18984SOL    HW258850  11.680  10.262  10.197
18985SOL     OW58851  10.779   4.116   9.776
18985SOL    HW158852  10.689   4.121   9.810
18985SOL    HW258853  10.791   4.023   9.757
18986SOL     OW58854   5.009   5.004  13.191
18986SOL    HW158855   5.099   5.029  13.212
18986SOL    HW258856   5.017   4.939  13.122
18987SOL     OW58857  13.427   7.149  13.978
18987SOL    HW158858  13.430   7.226  13.921
18987SOL    HW258859  13.514   7.146  14.018
18988SOL     OW58860   2.295   2.043   6.463
18988SOL    HW158861   2.315   2.061   6.371
18988SOL    HW258862   2.306   2.127   6.507
18989SOL     OW58863   6.989  11.205   8.201
18989SOL    HW158864   6.937  11.284   8.189
18989SOL    HW258865   7.018  11.182   8.113
18990SOL     OW58866  11.609   3.719   1.610
18990SOL    HW158867  11.536   3.696   1.668
18990SOL    HW258868  11.680   3.662   1.638
18991SOL     OW58869   5.748   9.636  13.848
18991SOL    HW158870   5.715   9.702  13.787
18991SOL    HW258871   5.705   9.555  13.821
18992SOL     OW58872   3.751   2.737   3.297
18992SOL    HW158873   3.711   2.751   3.211
18992SOL    HW258874   3.694   2.672   3.340
18993SOL     OW58875   1.824  10.507  14.530
18993SOL    HW158876   1.736  10.474  14.549
18993SOL    HW258877   1.850  10.460  14.450
18994SOL     OW58878   7.764   9.693   1.660
18994SOL    HW158879   7.857   9.693   1.642
18994SOL    HW258880   7.755   9.745   1.740
18995SOL     OW58881   3.884   1.760   7.062
18995SOL    HW158882   3.947   1.820   7.101
18995SOL    HW258883   3.908   1.755   6.970
18996SOL     OW58884   6.532   0.469   1.031
18996SOL    HW158885   6.447   0.502   1.061
18996SOL    HW258886   6.570   0.543   0.983
18997SOL     OW58887   1.339   6.905   9.998
18997SOL    HW158888   1.403   6.924   9.929
18997SOL    HW258889   1.271   6.854   9.953
18998SOL     OW58890  11.636  13.545   3.468
18998SOL    HW158891  11.661  13.564   3.558
18998SOL    HW258892  11.540  13.550   3.468
18999SOL     OW58893   1.028   0.464   7.927
18999SOL    HW158894   1.084   0.422   7.992
18999SOL    HW258895   1.069   0.549   7.911
19000SOL     OW58896   6.852  10.314   7.151
19000SOL    HW158897   6.886  10.333   7.239
19000SOL    HW258898   6.789  10.384   7.135
19001SOL     OW58899   6.436  12.505  14.618
19001SOL    HW158900   6.468  12.563  14.549
19001SOL    HW258901   6.349  12.537  14.639
19002SOL     OW58902   8.690   8.485  13.872
19002SOL    HW158903   8.646   8.413  13.917
19002SOL    HW258904   8.756   8.442  13.818
19003SOL     OW58905   5.571   6.449   2.018
19003SOL    HW158906   5.610   6.501   2.088
19003SOL    HW258907   5.477   6.455   2.033
19004SOL     OW58908   5.207   9.313   2.940
19004SOL    HW158909   5.296   9.312   2.906
19004SOL    HW258910   5.172   9.398   2.912
19005SOL     OW58911  11.871   2.115   8.871
19005SOL    HW158912  11.958   2.096   8.906
19005SOL    HW258913  11.811   2.096   8.942
19006SOL     OW58914   3.288  11.161  11.525
19006SOL    HW158915   3.260  11.221  11.456
19006SOL    HW258916   3.212  11.153  11.583
19007SOL     OW58917   2.740  14.142   1.477
19007SOL    HW158918   2.826  14.168   1.511
19007SOL    HW258919   2.760  14.082   1.405
19008SOL     OW58920   9.430  12.252   0.990
19008SOL    HW158921   9.487  12.327   0.973
19008SOL    HW258922   9.343  12.290   0.998
19009SOL     OW58923   8.888  11.238  13.735
19009SOL    HW158924   8.931  11.306  13.787
19009SOL    HW258925   8.819  11.285  13.688
19010SOL     OW58926  11.131  13.695   3.453
19010SOL    HW158927  11.083  13.777   3.467
19010SOL    HW258928  11.072  13.626   3.483
19011SOL     OW58929   7.733   5.156   3.039
19011SOL    HW158930   7.824   5.185   3.041
19011SOL    HW258931   7.682   5.237   3.036
19012SOL     OW58932   2.213   8.682   5.836
19012SOL    HW158933   2.254   8.636   5.909
19012SOL    HW258934   2.215   8.774   5.861
19013SOL     OW58935   9.431  13.423   1.986
19013SOL    HW158936   9.475  13.449   1.905
19013SOL    HW258937   9.353  13.479   1.989
19014SOL     OW58938   3.826  12.887  10.556
19014SOL    HW158939   3.876  12.811  10.526
19014SOL    HW258940   3.880  12.925  10.626
19015SOL     OW58941  11.001  12.121   3.009
19015SOL    HW158942  11.034  12.045   2.960
19015SOL    HW258943  10.911  12.097   3.032
19016SOL     OW58944   2.358   6.028   5.312
19016SOL    HW158945   2.322   5.967   5.376
19016SOL    HW258946   2.421   5.976   5.262
19017SOL     OW58947  11.116  14.118   6.468
19017SOL    HW158948  11.134  14.110   6.374
19017SOL    HW258949  11.024  14.092   6.477
19018SOL     OW58950   8.469   0.495   1.880
19018SOL    HW158951   8.560   0.524   1.887
19018SOL    HW258952   8.422   0.570   1.844
19019SOL     OW58953   9.557  14.388   6.558
19019SOL    HW158954   9.558  14.447   6.482
19019SOL    HW258955   9.637  14.336   6.548
19020SOL     OW58956   5.583   5.360   6.284
19020SOL    HW158957   5.488   5.359   6.274
19020SOL    HW258958   5.616   5.390   6.199
19021SOL     OW58959  14.846  14.402   6.464
19021SOL    HW158960   0.009  14.486   6.486
19021SOL    HW258961  14.752  14.417   6.477
19022SOL     OW58962  11.638  12.817  10.038
19022SOL    HW158963  11.568  12.781   9.983
19022SOL    HW258964  11.646  12.755  10.110
19023SOL     OW58965   4.609  14.641   4.684
19023SOL    HW158966   4.687  14.693   4.704
19023SOL    HW258967   4.640  14.551   4.682
19024SOL     OW58968   9.575   1.877   7.848
19024SOL    HW158969   9.643   1.840   7.791
19024SOL    HW258970   9.593   1.840   7.934
19025SOL     OW58971  11.357  13.153   6.374
19025SOL    HW158972  11.320  13.137   6.287
19025SOL    HW258973  11.335  13.075   6.425
19026SOL     OW58974  14.178  14.110  12.265
19026SOL    HW158975  14.240  14.160  12.319
19026SOL    HW258976  14.180  14.154  12.180
19027SOL     OW58977  12.205   1.682  13.664
19027SOL    HW158978  12.168   1.659  13.749
19027SOL    HW258979  12.292   1.642  13.663
19028SOL     OW58980   0.317   2.138   1.109
19028SOL    HW158981   0.248   2.092   1.062
19028SOL    HW258982   0.292   2.230   1.106
19029SOL     OW58983   5.114  14.087  11.814
19029SOL    HW158984   5.058  14.037  11.753
19029SOL    HW258985   5.151  14.156  11.760
19030SOL     OW58986  13.969   0.295   1.899
19030SOL    HW158987  13.979   0.215   1.951
19030SOL    HW258988  14.026   0.359   1.942
19031SOL     OW58989   5.270   6.174   2.498
19031SOL    HW158990   5.178   6.151   2.513
19031SOL    HW258991   5.268   6.265   2.469
19032SOL     OW58992   2.882   0.502  14.472
19032SOL    HW158993   2.813   0.472  14.532
19032SOL    HW258994   2.834   0.535  14.396
19033SOL     OW58995   5.140  11.616  12.718
19033SOL    HW158996   5.136  11.532  12.672
19033SOL    HW258997   5.225  11.653  12.693
19034SOL     OW58998  14.672   0.886   0.915
19034SOL    HW158999  14.714   0.820   0.969
19034SOL    HW259000  14.588   0.849   0.891
19035SOL     OW59001   3.017   0.058   9.902
19035SOL    HW159002   2.963   0.109   9.841
19035SOL    HW259003   3.106   0.091   9.887
19036SOL     OW59004  14.545   4.094  12.026
19036SOL    HW159005  14.450   4.084  12.019
19036SOL    HW259006  14.577   4.090  11.936
19037SOL     OW59007   3.796  11.259  10.005
19037SOL    HW159008   3.711  11.252  10.049
19037SOL    HW259009   3.777  11.301   9.921
19038SOL     OW59010   6.039  13.745   6.177
19038SOL    HW159011   6.020  13.832   6.211
19038SOL    HW259012   6.115  13.715   6.227
19039SOL     OW59013   4.015  11.170   7.678
19039SOL    HW159014   4.004  11.255   7.720
19039SOL    HW259015   4.090  11.182   7.620
19040SOL     OW59016  10.520  11.738   0.185
19040SOL    HW159017  10.594  11.794   0.209
19040SOL    HW259018  10.496  11.766   0.097
19041SOL     OW59019  11.518  13.220  13.216
19041SOL    HW159020  11.443  13.194  13.270
19041SOL    HW259021  11.486  13.294  13.164
19042SOL     OW59022   7.236   2.523   0.481
19042SOL    HW159023   7.185   2.602   0.465
19042SOL    HW259024   7.325   2.555   0.498
19043SOL     OW59025  14.765   9.094   7.072
19043SOL    HW159026  14.716   9.096   7.154
19043SOL    HW259027  14.771   9.001   7.049
19044SOL     OW59028  11.298   0.895   7.562
19044SOL    HW159029  11.263   0.841   7.492
19044SOL    HW259030  11.387   0.862   7.575
19045SOL     OW59031   8.172   7.653  12.892
19045SOL    HW159032   8.081   7.634  12.916
19045SOL    HW259033   8.192   7.736  12.935
19046SOL     OW59034   4.551   8.977   6.992
19046SOL    HW159035   4.524   8.926   7.068
19046SOL    HW259036   4.634   8.936   6.965
19047SOL     OW59037   3.124   8.901   1.055
19047SOL    HW159038   3.160   8.984   1.025
19047SOL    HW259039   3.195   8.861   1.105
19048SOL     OW59040   8.607  12.806   3.780
19048SOL    HW159041   8.653  12.733   3.740
19048SOL    HW259042   8.535  12.765   3.828
19049SOL     OW59043   7.024   5.386   3.391
19049SOL    HW159044   6.967   5.315   3.363
19049SOL    HW259045   7.106   5.344   3.414
19050SOL     OW59046   6.035   6.100  12.138
19050SOL    HW159047   6.041   6.009  12.168
19050SOL    HW259048   6.110   6.143  12.180
19051SOL     OW59049   0.291  11.521  14.260
19051SOL    HW159050   0.259  11.499  14.173
19051SOL    HW259051   0.325  11.610  14.251
19052SOL     OW59052  11.735  10.772   6.247
19052SOL    HW159053  11.765  10.858   6.277
19052SOL    HW259054  11.816  10.721   6.237
19053SOL     OW59055   1.739  12.800   0.317
19053SOL    HW159056   1.664  12.816   0.259
19053SOL    HW259057   1.720  12.853   0.395
19054SOL     OW59058   2.045   1.103   3.310
19054SOL    HW159059   2.133   1.116   3.274
19054SOL    HW259060   1.992   1.172   3.270
19055SOL     OW59061   4.718  13.554   8.241
19055SOL    HW159062   4.759  13.539   8.156
19055SOL    HW259063   4.642  13.609   8.222
19056SOL     OW59064   1.101   6.506   3.207
19056SOL    HW159065   1.049   6.569   3.256
19056SOL    HW259066   1.186   6.504   3.252
19057SOL     OW59067   0.962   4.665   3.826
19057SOL    HW159068   0.981   4.603   3.897
19057SOL    HW259069   1.046   4.680   3.784
19058SOL     OW59070   8.767   5.898  14.684
19058SOL    HW159071   8.777   5.904  14.779
19058SOL    HW259072   8.682   5.938  14.667
19059SOL     OW59073   3.621  14.249   4.751
19059SOL    HW159074   3.555  14.267   4.684
19059SOL    HW259075   3.692  14.205   4.704
19060SOL     OW59076  13.404  11.701   0.458
19060SOL    HW159077  13.358  11.617   0.450
19060SOL    HW259078  13.447  11.713   0.374
19061SOL     OW59079  12.638   5.837   3.605
19061SOL    HW159080  12.664   5.747   3.584
19061SOL    HW259081  12.665   5.888   3.529
19062SOL     OW59082   0.236   2.477   2.835
19062SOL    HW159083   0.318   2.437   2.807
19062SOL    HW259084   0.221   2.547   2.771
19063SOL     OW59085  10.484  13.522   8.978
19063SOL    HW159086  10.535  13.570   8.913
19063SOL    HW259087  10.397  13.563   8.975
19064SOL     OW59088  13.385   1.874  10.905
19064SOL    HW159089  13.296   1.909  10.903
19064SOL    HW259090  13.390   1.827  10.989
19065SOL     OW59091   1.385   1.855   9.709
19065SOL    HW159092   1.382   1.762   9.731
19065SOL    HW259093   1.391   1.857   9.614
19066SOL     OW59094  10.033   0.512   8.056
19066SOL    HW159095   9.966   0.546   8.116
19066SOL    HW259096  10.022   0.417   8.059
19067SOL     OW59097   8.562   6.355   7.138
19067SOL    HW159098   8.551   6.364   7.233
19067SOL    HW259099   8.473   6.361   7.103
19068SOL     OW59100  13.398  14.184  14.150
19068SOL    HW159101  13.470  14.248  14.144
19068SOL    HW259102  13.438  14.107  14.189
19069SOL     OW59103   4.655   0.737   3.475
19069SOL    HW159104   4.619   0.822   3.452
19069SOL    HW259105   4.750   0.748   3.465
19070SOL     OW59106   8.877  13.633   5.567
19070SOL    HW159107   8.933  13.656   5.641
19070SOL    HW259108   8.792  13.672   5.589
19071SOL     OW59109  14.832   4.815   3.323
19071SOL    HW159110  14.805   4.826   3.232
19071SOL    HW259111  14.763   4.761   3.363
19072SOL     OW59112   6.542   2.843   6.884
19072SOL    HW159113   6.613   2.779   6.877
19072SOL    HW259114   6.541   2.888   6.799
19073SOL     OW59115   3.927   1.626   5.060
19073SOL    HW159116   3.977   1.677   4.997
19073SOL    HW259117   3.974   1.543   5.067
19074SOL     OW59118   0.375  11.926   1.764
19074SOL    HW159119   0.368  11.899   1.856
19074SOL    HW259120   0.456  11.978   1.761
19075SOL     OW59121  12.961   4.502   2.187
19075SOL    HW159122  12.992   4.508   2.277
19075SOL    HW259123  13.029   4.451   2.142
19076SOL     OW59124   7.215   3.626   3.133
19076SOL    HW159125   7.233   3.693   3.199
19076SOL    HW259126   7.180   3.676   3.058
19077SOL     OW59127  14.678   7.667   9.582
19077SOL    HW159128  14.593   7.699   9.614
19077SOL    HW259129  14.710   7.612   9.654
19078SOL     OW59130   2.783   4.356   4.900
19078SOL    HW159131   2.754   4.323   4.815
19078SOL    HW259132   2.869   4.316   4.913
19079SOL     OW59133  11.775   5.300   3.162
19079SOL    HW159134  11.822   5.342   3.233
19079SOL    HW259135  11.684   5.296   3.192
19080SOL     OW59136   3.447  12.219   1.934
19080SOL    HW159137   3.452  12.315   1.926
19080SOL    HW259138   3.434  12.188   1.845
19081SOL     OW59139  12.310  12.092   2.887
19081SOL    HW159140  12.311  12.183   2.855
19081SOL    HW259141  12.218  12.073   2.902
19082SOL     OW59142   5.115  14.308   1.848
19082SOL    HW159143   5.200  14.266   1.839
19082SOL    HW259144   5.068  14.286   1.767
19083SOL     OW59145   4.009   9.872   2.246
19083SOL    HW159146   4.056   9.918   2.315
19083SOL    HW259147   4.037   9.780   2.255
19084SOL     OW59148   5.862   2.130  13.142
19084SOL    HW159149   5.886   2.222  13.129
19084SOL    HW259150   5.770   2.126  13.117
19085SOL     OW59151   0.773   1.162  11.565
19085SOL    HW159152   0.865   1.146  11.545
19085SOL    HW259153   0.773   1.188  11.658
19086SOL     OW59154  11.501   8.238   4.725
19086SOL    HW159155  11.586   8.281   4.739
19086SOL    HW259156  11.487   8.187   4.805
19087SOL     OW59157  11.185   0.898   1.928
19087SOL    HW159158  11.225   0.872   2.011
19087SOL    HW259159  11.109   0.952   1.954
19088SOL     OW59160   9.268   3.671   7.385
19088SOL    HW159161   9.261   3.762   7.356
19088SOL    HW259162   9.361   3.650   7.373
19089SOL     OW59163   6.293   5.397  14.588
19089SOL    HW159164   6.257   5.412  14.675
19089SOL    HW259165   6.318   5.485  14.557
19090SOL     OW59166  11.219   9.250   3.774
19090SOL    HW159167  11.166   9.193   3.829
19090SOL    HW259168  11.226   9.332   3.823
19091SOL     OW59169   0.271  13.578   0.343
19091SOL    HW159170   0.328  13.627   0.401
19091SOL    HW259171   0.185  13.581   0.384
19092SOL     OW59172  10.140   5.254   9.000
19092SOL    HW159173  10.062   5.221   8.956
19092SOL    HW259174  10.107   5.319   9.062
19093SOL     OW59175   3.531   8.283  14.128
19093SOL    HW159176   3.567   8.264  14.041
19093SOL    HW259177   3.523   8.378  14.129
19094SOL     OW59178   2.552   3.455   2.914
19094SOL    HW159179   2.555   3.418   2.825
19094SOL    HW259180   2.637   3.500   2.923
19095SOL     OW59181   4.271   6.908   4.451
19095SOL    HW159182   4.196   6.848   4.455
19095SOL    HW259183   4.340   6.862   4.499
19096SOL     OW59184   8.717  10.828  13.140
19096SOL    HW159185   8.745  10.891  13.073
19096SOL    HW259186   8.621  10.824  13.131
19097SOL     OW59187  12.523   2.291   6.155
19097SOL    HW159188  12.480   2.258   6.077
19097SOL    HW259189  12.511   2.223   6.221
19098SOL     OW59190   2.539   1.811  14.376
19098SOL    HW159191   2.495   1.885  14.418
19098SOL    HW259192   2.598   1.777  14.444
19099SOL     OW59193   6.557   0.191  11.457
19099SOL    HW159194   6.494   0.188  11.529
19099SOL    HW259195   6.556   0.282  11.428
19100SOL     OW59196   2.433   5.710   5.287
19100SOL    HW159197   2.488   5.737   5.361
19100SOL    HW259198   2.488   5.649   5.238
19101SOL     OW59199  10.572   7.848   4.720
19101SOL    HW159200  10.646   7.891   4.678
19101SOL    HW259201  10.499   7.910   4.711
19102SOL     OW59202   8.930   1.109   5.424
19102SOL    HW159203   8.868   1.137   5.356
19102SOL    HW259204   8.936   1.183   5.483
19103SOL     OW59205  11.555   7.230   1.895
19103SOL    HW159206  11.581   7.276   1.975
19103SOL    HW259207  11.624   7.165   1.882
19104SOL     OW59208  14.711   7.468   6.808
19104SOL    HW159209  14.734   7.483   6.716
19104SOL    HW259210  14.784   7.415   6.842
19105SOL     OW59211   0.226  10.049  13.877
19105SOL    HW159212   0.174  10.053  13.797
19105SOL    HW259213   0.166  10.011  13.942
19106SOL     OW59214  12.924  12.752   0.399
19106SOL    HW159215  12.912  12.700   0.320
19106SOL    HW259216  12.991  12.705   0.449
19107SOL     OW59217  10.360   2.939   3.129
19107SOL    HW159218  10.330   3.030   3.121
19107SOL    HW259219  10.327   2.895   3.051
19108SOL     OW59220  14.285  14.635   6.718
19108SOL    HW159221  14.236  14.682   6.650
19108SOL    HW259222  14.229  14.562   6.742
19109SOL     OW59223   1.846   2.573  12.424
19109SOL    HW159224   1.897   2.579  12.342
19109SOL    HW259225   1.801   2.657  12.430
19110SOL     OW59226   9.967  13.058  11.413
19110SOL    HW159227   9.951  13.074  11.506
19110SOL    HW259228  10.061  13.074  11.402
19111SOL     OW59229  14.234   3.315  14.125
19111SOL    HW159230  14.255   3.399  14.084
19111SOL    HW259231  14.142   3.300  14.102
19112SOL     OW59232  12.580   3.291  12.421
19112SOL    HW159233  12.493   3.274  12.455
19112SOL    HW259234  12.636   3.296  12.499
19113SOL     OW59235   0.973  10.593  12.855
19113SOL    HW159236   0.914  10.544  12.798
19113SOL    HW259237   1.037  10.632  12.796
19114SOL     OW59238  10.980   8.348  12.129
19114SOL    HW159239  11.037   8.299  12.188
19114SOL    HW259240  10.984   8.438  12.161
19115SOL     OW59241  10.285   9.306   0.318
19115SOL    HW159242  10.354   9.352   0.271
19115SOL    HW259243  10.225   9.375   0.347
19116SOL     OW59244   0.858  13.387   2.100
19116SOL    HW159245   0.945  13.423   2.117
19116SOL    HW259246   0.835  13.341   2.181
19117SOL     OW59247   1.290   4.705  12.470
19117SOL    HW159248   1.271   4.612  12.484
19117SOL    HW259249   1.371   4.705  12.418
19118SOL     OW59250  13.734  13.547   9.699
19118SOL    HW159251  13.725  13.641   9.684
19118SOL    HW259252  13.763  13.512   9.615
19119SOL     OW59253   1.663  12.634  12.967
19119SOL    HW159254   1.753  12.606  12.950
19119SOL    HW259255   1.622  12.639  12.881
19120SOL     OW59256   5.605   0.154   5.274
19120SOL    HW159257   5.692   0.118   5.290
19120SOL    HW259258   5.576   0.187   5.359
19121SOL     OW59259   5.291   6.248   0.573
19121SOL    HW159260   5.264   6.338   0.558
19121SOL    HW259261   5.234   6.196   0.517
19122SOL     OW59262   5.688   4.699   3.019
19122SOL    HW159263   5.616   4.762   3.013
19122SOL    HW259264   5.755   4.744   3.070
19123SOL     OW59265   2.613   8.173  11.089
19123SOL    HW159266   2.589   8.263  11.067
19123SOL    HW259267   2.612   8.170  11.185
19124SOL     OW59268   7.096   7.844   2.361
19124SOL    HW159269   7.090   7.776   2.294
19124SOL    HW259270   7.054   7.921   2.322
19125SOL     OW59271  11.092  14.567   7.344
19125SOL    HW159272  11.143  14.645   7.324
19125SOL    HW259273  11.149  14.515   7.400
19126SOL     OW59274   3.478  12.541   7.961
19126SOL    HW159275   3.389  12.531   7.928
19126SOL    HW259276   3.475  12.621   8.014
19127SOL     OW59277  14.722  10.228   3.218
19127SOL    HW159278  14.707  10.291   3.288
19127SOL    HW259279  14.789  10.269   3.162
19128SOL     OW59280  13.752   6.974  13.706
19128SOL    HW159281  13.702   6.906  13.749
19128SOL    HW259282  13.837   6.933  13.688
19129SOL     OW59283   6.219   0.644   9.796
19129SOL    HW159284   6.267   0.657   9.714
19129SOL    HW259285   6.157   0.717   9.799
19130SOL     OW59286   2.339  14.123  12.334
19130SOL    HW159287   2.334  14.198  12.275
19130SOL    HW259288   2.261  14.071  12.312
19131SOL     OW59289  12.114  11.513   2.091
19131SOL    HW159290  12.060  11.532   2.168
19131SOL    HW259291  12.196  11.560   2.107
19132SOL     OW59292  11.926  13.910   9.688
19132SOL    HW159293  11.982  13.873   9.756
19132SOL    HW259294  11.936  13.851   9.614
19133SOL     OW59295  14.193  13.946   7.351
19133SOL    HW159296  14.259  13.906   7.294
19133SOL    HW259297  14.243  13.999   7.413
19134SOL     OW59298   4.448  12.163  12.571
19134SOL    HW159299   4.508  12.176  12.644
19134SOL    HW259300   4.361  12.157  12.612
19135SOL     OW59301   7.277   8.395   6.603
19135SOL    HW159302   7.227   8.323   6.640
19135SOL    HW259303   7.362   8.392   6.648
19136SOL     OW59304  12.975   6.770   3.228
19136SOL    HW159305  12.971   6.711   3.304
19136SOL    HW259306  13.067   6.798   3.225
19137SOL     OW59307   8.836   7.993  12.443
19137SOL    HW159308   8.782   7.916  12.423
19137SOL    HW259309   8.815   8.014  12.534
19138SOL     OW59310   5.026  10.240  12.767
19138SOL    HW159311   5.117  10.270  12.761
19138SOL    HW259312   4.975  10.321  12.777
19139SOL     OW59313   9.896   0.256  14.422
19139SOL    HW159314   9.801   0.264  14.419
19139SOL    HW259315   9.928   0.346  14.413
19140SOL     OW59316   9.800   0.782   0.453
19140SOL    HW159317   9.749   0.720   0.401
19140SOL    HW259318   9.806   0.741   0.540
19141SOL     OW59319  12.972   4.477   2.928
19141SOL    HW159320  12.893   4.425   2.944
19141SOL    HW259321  12.943   4.568   2.938
19142SOL     OW59322   8.584   1.706   4.197
19142SOL    HW159323   8.599   1.662   4.113
19142SOL    HW259324   8.529   1.645   4.246
19143SOL     OW59325   0.250  10.423   9.145
19143SOL    HW159326   0.242  10.331   9.120
19143SOL    HW259327   0.316  10.422   9.215
19144SOL     OW59328  10.189   0.322  14.201
19144SOL    HW159329  10.242   0.359  14.271
19144SOL    HW259330  10.245   0.327  14.124
19145SOL     OW59331   8.064  12.005   0.660
19145SOL    HW159332   8.066  11.950   0.739
19145SOL    HW259333   8.063  12.095   0.694
19146SOL     OW59334   6.616   7.301   1.058
19146SOL    HW159335   6.634   7.268   0.971
19146SOL    HW259336   6.700   7.333   1.090
19147SOL     OW59337   7.729   1.804   2.705
19147SOL    HW159338   7.691   1.731   2.752
19147SOL    HW259339   7.745   1.871   2.772
19148SOL     OW59340  14.110   0.141  13.021
19148SOL    HW159341  14.063   0.224  13.027
19148SOL    HW259342  14.066   0.093  12.951
19149SOL     OW59343   8.555   6.111   4.333
19149SOL    HW159344   8.527   6.168   4.262
19149SOL    HW259345   8.627   6.158   4.375
19150SOL     OW59346  11.457   6.949  14.538
19150SOL    HW159347  11.450   6.994  14.623
19150SOL    HW259348  11.367   6.938  14.509
19151SOL     OW59349   6.523  12.748  10.101
19151SOL    HW159350   6.429  12.731  10.103
19151SOL    HW259351   6.557  12.688  10.034
19152SOL     OW59352  13.697  11.506   6.027
19152SOL    HW159353  13.624  11.545   5.980
19152SOL    HW259354  13.775  11.537   5.982
19153SOL     OW59355   2.830  13.648   6.732
19153SOL    HW159356   2.888  13.721   6.711
19153SOL    HW259357   2.860  13.576   6.675
19154SOL     OW59358   1.179   6.490  11.769
19154SOL    HW159359   1.098   6.536  11.794
19154SOL    HW259360   1.249   6.550  11.796
19155SOL     OW59361  12.590   2.639  12.194
19155SOL    HW159362  12.529   2.698  12.239
19155SOL    HW259363  12.564   2.645  12.102
19156SOL     OW59364   3.085   0.688   5.944
19156SOL    HW159365   3.164   0.732   5.975
19156SOL    HW259366   3.052   0.642   6.021
19157SOL     OW59367   4.418   6.465   0.636
19157SOL    HW159368   4.333   6.429   0.610
19157SOL    HW259369   4.445   6.412   0.711
19158SOL     OW59370   1.970   3.113   9.602
19158SOL    HW159371   1.896   3.130   9.543
19158SOL    HW259372   1.934   3.128   9.690
19159SOL     OW59373  12.512   7.989  12.305
19159SOL    HW159374  12.537   8.081  12.306
19159SOL    HW259375  12.505   7.965  12.397
19160SOL     OW59376   7.559   6.962   3.863
19160SOL    HW159377   7.551   6.995   3.953
19160SOL    HW259378   7.474   6.922   3.844
19161SOL     OW59379  10.038  12.485  10.032
19161SOL    HW159380  10.108  12.421  10.046
19161SOL    HW259381   9.966  12.455  10.087
19162SOL     OW59382  10.255   9.560  14.825
19162SOL    HW159383  10.344   9.543  14.856
19162SOL    HW259384  10.226   9.476  14.789
19163SOL     OW59385   7.352   1.365   7.433
19163SOL    HW159386   7.298   1.295   7.471
19163SOL    HW259387   7.416   1.385   7.501
19164SOL     OW59388   2.592   9.945   2.161
19164SOL    HW159389   2.595   9.964   2.067
19164SOL    HW259390   2.634   9.860   2.170
19165SOL     OW59391   8.808   6.522   7.637
19165SOL    HW159392   8.751   6.504   7.563
19165SOL    HW259393   8.803   6.443   7.691
19166SOL     OW59394   3.979   0.825   4.144
19166SOL    HW159395   4.034   0.812   4.221
19166SOL    HW259396   3.973   0.920   4.135
19167SOL     OW59397   9.751  13.258  11.498
19167SOL    HW159398   9.842  13.277  11.475
19167SOL    HW259399   9.732  13.318  11.570
19168SOL     OW59400   7.685   2.552   4.147
19168SOL    HW159401   7.752   2.488   4.124
19168SOL    HW259402   7.679   2.609   4.070
19169SOL     OW59403   6.592  11.959   9.302
19169SOL    HW159404   6.503  11.940   9.330
19169SOL    HW259405   6.593  11.939   9.209
19170SOL     OW59406   9.636   0.598  12.264
19170SOL    HW159407   9.671   0.685  12.245
19170SOL    HW259408   9.657   0.547  12.186
19171SOL     OW59409   8.820  13.345  10.153
19171SOL    HW159410   8.839  13.407  10.223
19171SOL    HW259411   8.833  13.396  10.073
19172SOL     OW59412   2.250   8.758   4.846
19172SOL    HW159413   2.285   8.781   4.933
19172SOL    HW259414   2.321   8.710   4.804
19173SOL     OW59415   1.409   0.651  12.082
19173SOL    HW159416   1.351   0.722  12.054
19173SOL    HW259417   1.489   0.694  12.110
19174SOL     OW59418   2.477   8.337   5.603
19174SOL    HW159419   2.395   8.343   5.555
19174SOL    HW259420   2.451   8.326   5.694
19175SOL     OW59421   8.668   5.831   8.737
19175SOL    HW159422   8.692   5.739   8.744
19175SOL    HW259423   8.637   5.855   8.824
19176SOL     OW59424   9.607   3.297   7.888
19176SOL    HW159425   9.517   3.313   7.858
19176SOL    HW259426   9.637   3.382   7.918
19177SOL     OW59427  11.527   3.527  12.168
19177SOL    HW159428  11.621   3.511  12.165
19177SOL    HW259429  11.515   3.610  12.121
19178SOL     OW59430  10.318   2.020  13.453
19178SOL    HW159431  10.261   2.097  13.442
19178SOL    HW259432  10.407   2.056  13.451
19179SOL     OW59433   2.053  12.027   1.623
19179SOL    HW159434   2.139  12.053   1.656
19179SOL    HW259435   1.999  12.018   1.701
19180SOL     OW59436   9.364  11.481  14.143
19180SOL    HW159437   9.456  11.479  14.169
19180SOL    HW259438   9.320  11.422  14.204
19181SOL     OW59439  13.304   1.301  10.435
19181SOL    HW159440  13.287   1.363  10.507
19181SOL    HW259441  13.256   1.222  10.460
19182SOL     OW59442   2.405   5.547  12.459
19182SOL    HW159443   2.489   5.510  12.486
19182SOL    HW259444   2.340   5.502  12.513
19183SOL     OW59445   4.925   9.155   5.500
19183SOL    HW159446   4.933   9.060   5.505
19183SOL    HW259447   4.875   9.171   5.420
19184SOL     OW59448   5.279  11.432  14.042
19184SOL    HW159449   5.279  11.430  14.137
19184SOL    HW259450   5.272  11.340  14.016
19185SOL     OW59451   4.309  14.427  14.767
19185SOL    HW159452   4.220  14.463  14.762
19185SOL    HW259453   4.302  14.354  14.828
19186SOL     OW59454  11.960   7.304   5.174
19186SOL    HW159455  11.867   7.323   5.159
19186SOL    HW259456  11.997   7.293   5.087
19187SOL     OW59457   7.969   4.493   7.720
19187SOL    HW159458   8.052   4.529   7.751
19187SOL    HW259459   7.903   4.534   7.775
19188SOL     OW59460  12.759  11.787   0.247
19188SOL    HW159461  12.750  11.733   0.326
19188SOL    HW259462  12.799  11.729   0.183
19189SOL     OW59463   5.093   0.162   5.887
19189SOL    HW159464   5.108   0.187   5.979
19189SOL    HW259465   5.014   0.208   5.862
19190SOL     OW59466  14.823   5.298  13.991
19190SOL    HW159467  14.783   5.371  13.944
19190SOL    HW259468   0.006   5.258  13.928
19191SOL     OW59469   5.784   8.507   9.167
19191SOL    HW159470   5.826   8.456   9.097
19191SOL    HW259471   5.751   8.586   9.123
19192SOL     OW59472   4.894  12.710  10.788
19192SOL    HW159473   4.817  12.754  10.823
19192SOL    HW259474   4.907  12.634  10.845
19193SOL     OW59475  10.899  14.589  12.263
19193SOL    HW159476  10.909  14.570  12.170
19193SOL    HW259477  10.870  14.680  12.266
19194SOL     OW59478   7.650   2.159   0.935
19194SOL    HW159479   7.559   2.146   0.962
19194SOL    HW259480   7.683   2.070   0.921
19195SOL     OW59481   5.091   2.947   0.595
19195SOL    HW159482   5.086   2.926   0.688
19195SOL    HW259483   5.001   2.971   0.571
19196SOL     OW59484  14.412   0.597  14.222
19196SOL    HW159485  14.482   0.535  14.204
19196SOL    HW259486  14.456   0.681  14.231
19197SOL     OW59487   2.929  13.634   9.284
19197SOL    HW159488   3.023  13.619   9.290
19197SOL    HW259489   2.890  13.550   9.306
19198SOL     OW59490  11.893   1.422   9.914
19198SOL    HW159491  11.863   1.477   9.986
19198SOL    HW259492  11.987   1.412   9.928
19199SOL     OW59493   0.492   2.275   1.445
19199SOL    HW159494   0.527   2.349   1.495
19199SOL    HW259495   0.567   2.242   1.396
19200SOL     OW59496  13.768   8.089   2.204
19200SOL    HW159497  13.710   8.161   2.178
19200SOL    HW259498  13.827   8.128   2.269
19201SOL     OW59499   4.341   1.558   6.520
19201SOL    HW159500   4.334   1.544   6.614
19201SOL    HW259501   4.365   1.650   6.511
19202SOL     OW59502   7.873   3.885  10.919
19202SOL    HW159503   7.885   3.848  10.832
19202SOL    HW259504   7.894   3.813  10.979
19203SOL     OW59505  11.066  10.671  13.249
19203SOL    HW159506  11.087  10.586  13.209
19203SOL    HW259507  11.054  10.651  13.342
19204SOL     OW59508  12.529  14.052  10.783
19204SOL    HW159509  12.510  13.978  10.840
19204SOL    HW259510  12.475  14.123  10.818
19205SOL     OW59511   1.732   5.004   5.509
19205SOL    HW159512   1.697   4.999   5.598
19205SOL    HW259513   1.754   5.096   5.497
19206SOL     OW59514   1.476  14.303   6.219
19206SOL    HW159515   1.479  14.398   6.232
19206SOL    HW259516   1.532  14.268   6.289
19207SOL     OW59517   2.413   8.802   7.001
19207SOL    HW159518   2.423   8.719   7.048
19207SOL    HW259519   2.493   8.810   6.950
19208SOL     OW59520  11.656  10.682  14.668
19208SOL    HW159521  11.632  10.770  14.695
19208SOL    HW259522  11.730  10.659  14.725
19209SOL     OW59523   5.082   3.817  10.099
19209SOL    HW159524   5.052   3.735  10.060
19209SOL    HW259525   5.160   3.840  10.048
19210SOL     OW59526  12.071  10.970  11.617
19210SOL    HW159527  12.097  10.879  11.601
19210SOL    HW259528  11.984  10.963  11.657
19211SOL     OW59529   4.177   9.739  12.828
19211SOL    HW159530   4.237   9.678  12.871
19211SOL    HW259531   4.107   9.682  12.794
19212SOL     OW59532   8.397   9.979   1.143
19212SOL    HW159533   8.432   9.891   1.162
19212SOL    HW259534   8.470  10.024   1.100
19213SOL     OW59535   0.105   9.408   7.411
19213SOL    HW159536   0.041   9.439   7.476
19213SOL    HW259537   0.114   9.481   7.350
19214SOL     OW59538   6.194  12.960   5.277
19214SOL    HW159539   6.214  12.882   5.226
19214SOL    HW259540   6.249  12.952   5.356
19215SOL     OW59541   2.266  12.049   0.053
19215SOL    HW159542   2.205  12.024  14.860
19215SOL    HW259543   2.284  12.141   0.037
19216SOL     OW59544   0.957   8.492   7.792
19216SOL    HW159545   0.936   8.400   7.808
19216SOL    HW259546   0.889   8.522   7.732
19217SOL     OW59547  11.560  11.658  12.162
19217SOL    HW159548  11.483  11.652  12.106
19217SOL    HW259549  11.525  11.666  12.250
19218SOL     OW59550   7.340   7.206   2.108
19218SOL    HW159551   7.409   7.249   2.159
19218SOL    HW259552   7.382   7.128   2.072
19219SOL     OW59553  11.057   9.710   3.544
19219SOL    HW159554  11.125   9.682   3.606
19219SOL    HW259555  10.995   9.637   3.543
19220SOL     OW59556   8.371  11.995   4.301
19220SOL    HW159557   8.359  12.040   4.217
19220SOL    HW259558   8.440  12.044   4.345
19221SOL     OW59559  11.473  13.102   8.999
19221SOL    HW159560  11.560  13.141   8.998
19221SOL    HW259561  11.424  13.149   8.932
19222SOL     OW59562   3.200   9.285   2.292
19222SOL    HW159563   3.174   9.301   2.201
19222SOL    HW259564   3.269   9.350   2.309
19223SOL     OW59565  11.713   9.022   3.639
19223SOL    HW159566  11.758   9.103   3.664
19223SOL    HW259567  11.620   9.042   3.648
19224SOL     OW59568   7.574   5.469   3.920
19224SOL    HW159569   7.535   5.556   3.905
19224SOL    HW259570   7.571   5.458   4.015
19225SOL     OW59571  13.348   6.588   2.497
19225SOL    HW159572  13.297   6.572   2.417
19225SOL    HW259573  13.288   6.565   2.568
19226SOL     OW59574   9.283  11.042  12.733
19226SOL    HW159575   9.314  10.963  12.690
19226SOL    HW259576   9.341  11.111  12.701
19227SOL     OW59577   3.778   6.893  11.124
19227SOL    HW159578   3.865   6.853  11.116
19227SOL    HW259579   3.721   6.835  11.072
19228SOL     OW59580  10.454  10.066   7.668
19228SOL    HW159581  10.387  10.017   7.620
19228SOL    HW259582  10.477  10.009   7.742
19229SOL     OW59583   1.963   1.826  13.116
19229SOL    HW159584   1.953   1.920  13.101
19229SOL    HW259585   1.915   1.810  13.198
19230SOL     OW59586   5.519   0.379  12.072
19230SOL    HW159587   5.582   0.310  12.052
19230SOL    HW259588   5.464   0.384  11.994
19231SOL     OW59589  14.685  12.624   3.943
19231SOL    HW159590  14.662  12.681   4.016
19231SOL    HW259591  14.720  12.683   3.877
19232SOL     OW59592   8.689  14.668   7.974
19232SOL    HW159593   8.692  14.757   8.007
19232SOL    HW259594   8.748  14.619   8.032
19233SOL     OW59595   6.702   5.540   6.135
19233SOL    HW159596   6.715   5.445   6.142
19233SOL    HW259597   6.763   5.577   6.200
19234SOL     OW59598   5.905   8.783   0.947
19234SOL    HW159599   5.819   8.804   0.910
19234SOL    HW259600   5.893   8.794   1.041
19235SOL     OW59601   3.987   4.298   1.858
19235SOL    HW159602   3.977   4.246   1.779
19235SOL    HW259603   3.989   4.389   1.828
19236SOL     OW59604  10.320  12.395   6.365
19236SOL    HW159605  10.316  12.301   6.385
19236SOL    HW259606  10.328  12.438   6.450
19237SOL     OW59607   5.479  13.544   9.444
19237SOL    HW159608   5.498  13.584   9.529
19237SOL    HW259609   5.406  13.596   9.409
19238SOL     OW59610   8.279  11.478   1.627
19238SOL    HW159611   8.224  11.451   1.554
19238SOL    HW259612   8.366  11.487   1.590
19239SOL     OW59613  10.755   7.912  14.156
19239SOL    HW159614  10.765   8.004  14.180
19239SOL    HW259615  10.786   7.863  14.232
19240SOL     OW59616  10.683   6.600  10.046
19240SOL    HW159617  10.645   6.687  10.055
19240SOL    HW259618  10.626   6.554   9.985
19241SOL     OW59619   4.974   6.316   0.013
19241SOL    HW159620   4.952   6.330   0.105
19241SOL    HW259621   5.070   6.321   0.011
19242SOL     OW59622   7.662   9.357  11.781
19242SOL    HW159623   7.574   9.383  11.756
19242SOL    HW259624   7.649   9.286  11.844
19243SOL     OW59625   7.234   4.073  13.162
19243SOL    HW159626   7.258   3.992  13.118
19243SOL    HW259627   7.235   4.050  13.255
19244SOL     OW59628   9.402   1.855   7.639
19244SOL    HW159629   9.456   1.855   7.718
19244SOL    HW259630   9.353   1.937   7.643
19245SOL     OW59631   0.907  14.694  10.551
19245SOL    HW159632   0.914  14.602  10.576
19245SOL    HW259633   0.848  14.732  10.616
19246SOL     OW59634  12.316   7.190   1.984
19246SOL    HW159635  12.284   7.111   1.939
19246SOL    HW259636  12.392   7.217   1.932
19247SOL     OW59637   5.611   9.224  11.518
19247SOL    HW159638   5.583   9.134  11.534
19247SOL    HW259639   5.706   9.222  11.528
19248SOL     OW59640  13.021  12.287   8.151
19248SOL    HW159641  13.055  12.376   8.143
19248SOL    HW259642  13.022  12.269   8.245
19249SOL     OW59643  13.007   0.781   5.543
19249SOL    HW159644  12.923   0.819   5.518
19249SOL    HW259645  13.058   0.855   5.577
19250SOL     OW59646   6.625   6.583  10.055
19250SOL    HW159647   6.539   6.610  10.087
19250SOL    HW259648   6.663   6.663  10.020
19251SOL     OW59649   2.580  11.628   5.730
19251SOL    HW159650   2.606  11.597   5.816
19251SOL    HW259651   2.506  11.573   5.706
19252SOL     OW59652  11.566   1.205  13.016
19252SOL    HW159653  11.621   1.271  12.973
19252SOL    HW259654  11.620   1.171  13.087
19253SOL     OW59655   4.415  12.992  12.081
19253SOL    HW159656   4.332  12.957  12.047
19253SOL    HW259657   4.408  13.086  12.067
19254SOL     OW59658   2.210   3.564   4.294
19254SOL    HW159659   2.213   3.573   4.198
19254SOL    HW259660   2.229   3.471   4.309
19255SOL     OW59661   2.038  10.124   4.112
19255SOL    HW159662   2.126  10.155   4.135
19255SOL    HW259663   2.052  10.064   4.039
19256SOL     OW59664   8.888  13.261  12.827
19256SOL    HW159665   8.898  13.338  12.771
19256SOL    HW259666   8.795  13.259  12.849
19257SOL     OW59667   5.268  11.591   1.219
19257SOL    HW159668   5.207  11.523   1.250
19257SOL    HW259669   5.216  11.671   1.218
19258SOL     OW59670   8.470   8.996   3.417
19258SOL    HW159671   8.492   9.089   3.428
19258SOL    HW259672   8.535   8.949   3.470
19259SOL     OW59673   1.654   5.051  13.384
19259SOL    HW159674   1.616   5.133  13.354
19259SOL    HW259675   1.596   4.983  13.349
19260SOL     OW59676   6.506   7.746  13.485
19260SOL    HW159677   6.578   7.737  13.422
19260SOL    HW259678   6.492   7.657  13.518
19261SOL     OW59679  13.404   9.045   9.137
19261SOL    HW159680  13.395   8.980   9.206
19261SOL    HW259681  13.454   9.001   9.068
19262SOL     OW59682  14.045   0.568  12.200
19262SOL    HW159683  14.047   0.516  12.280
19262SOL    HW259684  14.034   0.504  12.130
19263SOL     OW59685   4.112   7.231   1.873
19263SOL    HW159686   4.069   7.197   1.951
19263SOL    HW259687   4.197   7.262   1.903
19264SOL     OW59688   2.211  11.874   2.261
19264SOL    HW159689   2.285  11.859   2.202
19264SOL    HW259690   2.220  11.966   2.287
19265SOL     OW59691  14.831   4.906   8.433
19265SOL    HW159692   0.047   4.889   8.423
19265SOL    HW259693  14.811   4.969   8.363
19266SOL     OW59694   4.154   1.220   7.578
19266SOL    HW159695   4.130   1.289   7.639
19266SOL    HW259696   4.167   1.143   7.633
19267SOL     OW59697   6.971  13.390  13.225
19267SOL    HW159698   6.984  13.298  13.248
19267SOL    HW259699   6.895  13.417  13.276
19268SOL     OW59700   1.741  13.443  14.870
19268SOL    HW159701   1.810  13.463   0.055
19268SOL    HW259702   1.697  13.527  14.855
19269SOL     OW59703   5.414   1.438   4.132
19269SOL    HW159704   5.414   1.480   4.046
19269SOL    HW259705   5.396   1.346   4.113
19270SOL     OW59706   0.165  14.173  14.207
19270SOL    HW159707   0.118  14.091  14.194
19270SOL    HW259708   0.193  14.170  14.299
19271SOL     OW59709   2.702  10.131   8.339
19271SOL    HW159710   2.649  10.171   8.270
19271SOL    HW259711   2.717  10.201   8.402
19272SOL     OW59712   5.083   9.347  13.408
19272SOL    HW159713   5.163   9.313  13.447
19272SOL    HW259714   5.111   9.422  13.355
19273SOL     OW59715   7.180   3.124   3.144
19273SOL    HW159716   7.155   3.072   3.219
19273SOL    HW259717   7.211   3.207   3.181
19274SOL     OW59718   7.181  11.326   9.433
19274SOL    HW159719   7.132  11.335   9.515
19274SOL    HW259720   7.264  11.372   9.450
19275SOL     OW59721   0.281   4.807   1.669
19275SOL    HW159722   0.227   4.860   1.610
19275SOL    HW259723   0.327   4.746   1.611
19276SOL     OW59724  14.328  12.889   2.975
19276SOL    HW159725  14.417  12.923   2.968
19276SOL    HW259726  14.332  12.803   2.933
19277SOL     OW59727   7.930  14.124   1.128
19277SOL    HW159728   7.843  14.085   1.122
19277SOL    HW259729   7.931  14.168   1.213
19278SOL     OW59730   7.951  13.613   8.446
19278SOL    HW159731   8.025  13.662   8.483
19278SOL    HW259732   7.992  13.550   8.386
19279SOL     OW59733   1.042   2.116   7.386
19279SOL    HW159734   1.057   2.042   7.445
19279SOL    HW259735   0.970   2.165   7.426
19280SOL     OW59736  12.371   3.236   5.441
19280SOL    HW159737  12.356   3.327   5.466
19280SOL    HW259738  12.422   3.241   5.360
19281SOL     OW59739  13.641   9.718  13.826
19281SOL    HW159740  13.606   9.660  13.758
19281SOL    HW259741  13.628   9.670  13.908
19282SOL     OW59742   1.764  11.643   6.200
19282SOL    HW159743   1.735  11.657   6.290
19282SOL    HW259744   1.696  11.683   6.147
19283SOL     OW59745   4.394   3.470   8.597
19283SOL    HW159746   4.346   3.538   8.550
19283SOL    HW259747   4.483   3.504   8.604
19284SOL     OW59748  12.181   3.567  13.893
19284SOL    HW159749  12.136   3.504  13.835
19284SOL    HW259750  12.151   3.652  13.862
19285SOL     OW59751   4.021  12.292  13.379
19285SOL    HW159752   4.014  12.344  13.459
19285SOL    HW259753   4.032  12.202  13.410
19286SOL     OW59754   5.408   8.534  12.634
19286SOL    HW159755   5.345   8.586  12.685
19286SOL    HW259756   5.378   8.542  12.543
19287SOL     OW59757   6.982  10.422  11.779
19287SOL    HW159758   7.067  10.411  11.737
19287SOL    HW259759   7.000  10.471  11.859
19288SOL     OW59760   6.084  12.874   4.198
19288SOL    HW159761   6.142  12.908   4.267
19288SOL    HW259762   6.015  12.940   4.189
19289SOL     OW59763   2.357   0.812  12.623
19289SOL    HW159764   2.313   0.876  12.568
19289SOL    HW259765   2.320   0.728  12.597
19290SOL     OW59766   6.684   1.486   2.723
19290SOL    HW159767   6.612   1.498   2.662
19290SOL    HW259768   6.693   1.391   2.731
19291SOL     OW59769  12.461  12.521   0.121
19291SOL    HW159770  12.525  12.516   0.192
19291SOL    HW259771  12.514  12.538   0.043
19292SOL     OW59772  11.002   8.946  11.749
19292SOL    HW159773  10.938   8.978  11.685
19292SOL    HW259774  11.050   8.878  11.702
19293SOL     OW59775   3.053   1.474   1.166
19293SOL    HW159776   3.064   1.417   1.090
19293SOL    HW259777   3.024   1.416   1.236
19294SOL     OW59778  12.387  14.281  10.840
19294SOL    HW159779  12.460  14.343  10.838
19294SOL    HW259780  12.310  14.335  10.822
19295SOL     OW59781  12.607   1.566  10.310
19295SOL    HW159782  12.594   1.655  10.279
19295SOL    HW259783  12.553   1.558  10.388
19296SOL     OW59784   4.099  12.746   1.295
19296SOL    HW159785   4.165  12.789   1.349
19296SOL    HW259786   4.037  12.710   1.359
19297SOL     OW59787   8.569  12.330   9.567
19297SOL    HW159788   8.605  12.417   9.549
19297SOL    HW259789   8.639  12.286   9.616
19298SOL     OW59790   3.272   7.817   7.880
19298SOL    HW159791   3.219   7.745   7.846
19298SOL    HW259792   3.334   7.836   7.810
19299SOL     OW59793   8.213   1.118   2.817
19299SOL    HW159794   8.239   1.165   2.896
19299SOL    HW259795   8.279   1.143   2.752
19300SOL     OW59796  12.329  11.505   8.237
19300SOL    HW159797  12.372  11.505   8.152
19300SOL    HW259798  12.281  11.422   8.240
19301SOL     OW59799   4.703   2.923   2.743
19301SOL    HW159800   4.758   2.893   2.670
19301SOL    HW259801   4.755   2.904   2.821
19302SOL     OW59802   6.057   6.916  13.211
19302SOL    HW159803   5.976   6.962  13.187
19302SOL    HW259804   6.122   6.986  13.217
19303SOL     OW59805   8.705   8.855   0.582
19303SOL    HW159806   8.788   8.825   0.544
19303SOL    HW259807   8.651   8.879   0.506
19304SOL     OW59808   7.941   1.062   4.867
19304SOL    HW159809   7.900   1.010   4.936
19304SOL    HW259810   8.030   1.076   4.897
19305SOL     OW59811   3.442  12.338   0.200
19305SOL    HW159812   3.535  12.332   0.179
19305SOL    HW259813   3.437  12.323   0.294
19306SOL     OW59814   6.523  14.153  13.946
19306SOL    HW159815   6.514  14.242  13.981
19306SOL    HW259816   6.529  14.165  13.852
19307SOL     OW59817   6.908  14.567   1.089
19307SOL    HW159818   6.952  14.638   1.135
19307SOL    HW259819   6.862  14.610   1.016
19308SOL     OW59820   4.267  13.549   3.420
19308SOL    HW159821   4.239  13.615   3.357
19308SOL    HW259822   4.233  13.466   3.385
19309SOL     OW59823  12.206   5.346   7.519
19309SOL    HW159824  12.203   5.355   7.614
19309SOL    HW259825  12.214   5.436   7.486
19310SOL     OW59826   2.507  13.420   5.992
19310SOL    HW159827   2.416  13.396   5.972
19310SOL    HW259828   2.536  13.470   5.916
19311SOL     OW59829  12.853   2.864   4.982
19311SOL    HW159830  12.947   2.847   4.985
19311SOL    HW259831  12.814   2.776   4.977
19312SOL     OW59832   3.696  13.492   0.506
19312SOL    HW159833   3.640  13.425   0.544
19312SOL    HW259834   3.651  13.520   0.427
19313SOL     OW59835   5.889  13.829   4.626
19313SOL    HW159836   5.930  13.911   4.653
19313SOL    HW259837   5.916  13.817   4.535
19314SOL     OW59838   3.396  12.857   0.910
19314SOL    HW159839   3.361  12.827   0.994
19314SOL    HW259840   3.324  12.906   0.870
19315SOL     OW59841   9.778   9.727   4.103
19315SOL    HW159842   9.823   9.735   4.019
19315SOL    HW259843   9.832   9.666   4.153
19316SOL     OW59844  14.502  14.143   6.827
19316SOL    HW159845  14.557  14.135   6.749
19316SOL    HW259846  14.548  14.206   6.883
19317SOL     OW59847   7.000   8.609   1.928
19317SOL    HW159848   7.088   8.588   1.896
19317SOL    HW259849   6.996   8.572   2.016
19318SOL     OW59850   9.861   3.502  10.895
19318SOL    HW159851   9.866   3.597  10.884
19318SOL    HW259852   9.772   3.480  10.866
19319SOL     OW59853  11.398   4.912   4.685
19319SOL    HW159854  11.472   4.854   4.701
19319SOL    HW259855  11.349   4.869   4.614
19320SOL     OW59856   4.357   6.612  14.340
19320SOL    HW159857   4.426   6.675  14.359
19320SOL    HW259858   4.364   6.597  14.246
19321SOL     OW59859  10.782   7.270  10.969
19321SOL    HW159860  10.758   7.348  11.019
19321SOL    HW259861  10.715   7.263  10.901
19322SOL     OW59862   0.803   1.586  12.604
19322SOL    HW159863   0.786   1.534  12.683
19322SOL    HW259864   0.727   1.645  12.598
19323SOL     OW59865   6.884  13.024  12.579
19323SOL    HW159866   6.971  12.998  12.549
19323SOL    HW259867   6.849  12.946  12.622
19324SOL     OW59868  10.337   8.603  12.104
19324SOL    HW159869  10.322   8.518  12.143
19324SOL    HW259870  10.433   8.609  12.095
19325SOL     OW59871  12.994  10.375   6.647
19325SOL    HW159872  13.058  10.330   6.701
19325SOL    HW259873  12.969  10.452   6.698
19326SOL     OW59874   8.366   1.977   6.456
19326SOL    HW159875   8.274   2.002   6.445
19326SOL    HW259876   8.396   1.955   6.367
19327SOL     OW59877   9.429  12.218   0.258
19327SOL    HW159878   9.439  12.313   0.249
19327SOL    HW259879   9.498  12.192   0.318
19328SOL     OW59880   7.035   2.604  14.573
19328SOL    HW159881   6.971   2.661  14.530
19328SOL    HW259882   6.999   2.591  14.661
19329SOL     OW59883   8.154  11.314   9.462
19329SOL    HW159884   8.242  11.275   9.462
19329SOL    HW259885   8.106  11.262   9.526
19330SOL     OW59886   9.620   3.541   8.627
19330SOL    HW159887   9.680   3.615   8.636
19330SOL    HW259888   9.674   3.464   8.644
19331SOL     OW59889   8.438  13.584   0.732
19331SOL    HW159890   8.493  13.605   0.807
19331SOL    HW259891   8.432  13.666   0.683
19332SOL     OW59892   9.381  12.689  13.183
19332SOL    HW159893   9.414  12.629  13.116
19332SOL    HW259894   9.379  12.636  13.263
19333SOL     OW59895  11.820   0.946  13.164
19333SOL    HW159896  11.841   0.911  13.078
19333SOL    HW259897  11.781   0.871  13.211
19334SOL     OW59898  11.833   4.855  13.675
19334SOL    HW159899  11.785   4.780  13.710
19334SOL    HW259900  11.915   4.857  13.723
19335SOL     OW59901  14.775   0.942   5.359
19335SOL    HW159902  14.866   0.971   5.357
19335SOL    HW259903  14.745   0.963   5.448
19336SOL     OW59904  11.980  11.838   6.660
19336SOL    HW159905  12.043  11.776   6.696
19336SOL    HW259906  12.029  11.920   6.654
19337SOL     OW59907   3.052   7.872  10.610
19337SOL    HW159908   3.112   7.947  10.618
19337SOL    HW259909   3.035   7.865  10.516
19338SOL     OW59910   0.621  11.242   7.525
19338SOL    HW159911   0.697  11.276   7.477
19338SOL    HW259912   0.631  11.147   7.521
19339SOL     OW59913   4.186   7.821   6.739
19339SOL    HW159914   4.121   7.860   6.798
19339SOL    HW259915   4.239   7.895   6.709
19340SOL     OW59916  14.849   3.417   4.148
19340SOL    HW159917   0.030   3.392   4.219
19340SOL    HW259918  14.808   3.335   4.120
19341SOL     OW59919  14.260   3.445  13.802
19341SOL    HW159920  14.355   3.451  13.796
19341SOL    HW259921  14.237   3.508  13.871
19342SOL     OW59922   1.587   6.100  10.904
19342SOL    HW159923   1.671   6.061  10.879
19342SOL    HW259924   1.563   6.155  10.830
19343SOL     OW59925   8.380   5.872   8.299
19343SOL    HW159926   8.407   5.951   8.345
19343SOL    HW259927   8.462   5.828   8.277
19344SOL     OW59928  14.771   4.898   6.185
19344SOL    HW159929  14.689   4.940   6.209
19344SOL    HW259930  14.761   4.807   6.213
19345SOL     OW59931   0.578   8.175   4.921
19345SOL    HW159932   0.614   8.254   4.878
19345SOL    HW259933   0.603   8.104   4.863
19346SOL     OW59934   4.889  14.340   3.614
19346SOL    HW159935   4.871  14.409   3.550
19346SOL    HW259936   4.975  14.307   3.590
19347SOL     OW59937   4.036   7.067  11.308
19347SOL    HW159938   3.948   7.080  11.344
19347SOL    HW259939   4.079   7.152  11.317
19348SOL     OW59940  14.097   1.016   8.801
19348SOL    HW159941  14.045   1.077   8.853
19348SOL    HW259942  14.044   0.936   8.798
19349SOL     OW59943  10.557   3.951   9.705
19349SOL    HW159944  10.533   4.019   9.768
19349SOL    HW259945  10.474   3.916   9.673
19350SOL     OW59946   1.585   4.998   3.302
19350SOL    HW159947   1.599   5.058   3.375
19350SOL    HW259948   1.525   4.932   3.337
19351SOL     OW59949   6.857   6.383  11.468
19351SOL    HW159950   6.833   6.301  11.425
19351SOL    HW259951   6.910   6.429  11.403
19352SOL     OW59952   7.708   2.680   3.914
19352SOL    HW159953   7.793   2.683   3.870
19352SOL    HW259954   7.644   2.689   3.844
19353SOL     OW59955   4.819   3.769   7.005
19353SOL    HW159956   4.783   3.727   7.083
19353SOL    HW259957   4.890   3.712   6.977
19354SOL     OW59958   1.010   5.329   4.944
19354SOL    HW159959   1.033   5.324   5.037
19354SOL    HW259960   0.916   5.311   4.943
19355SOL     OW59961  14.381  12.009   8.313
19355SOL    HW159962  14.393  12.087   8.369
19355SOL    HW259963  14.289  11.985   8.325
19356SOL     OW59964   0.282   7.320   3.242
19356SOL    HW159965   0.334   7.250   3.202
19356SOL    HW259966   0.268   7.383   3.171
19357SOL     OW59967   8.701   0.246  11.565
19357SOL    HW159968   8.626   0.188  11.580
19357SOL    HW259969   8.773   0.207  11.614
19358SOL     OW59970  13.663   7.426   2.495
19358SOL    HW159971  13.663   7.435   2.590
19358SOL    HW259972  13.721   7.496   2.465
19359SOL     OW59973  11.248  12.119   2.742
19359SOL    HW159974  11.333  12.074   2.740
19359SOL    HW259975  11.268  12.205   2.778
19360SOL     OW59976   1.442   0.906   1.735
19360SOL    HW159977   1.486   0.822   1.723
19360SOL    HW259978   1.393   0.919   1.655
19361SOL     OW59979   3.536  14.773  11.944
19361SOL    HW159980   3.568  14.862  11.929
19361SOL    HW259981   3.525  14.736  11.856
19362SOL     OW59982   2.414   4.337   9.539
19362SOL    HW159983   2.446   4.330   9.629
19362SOL    HW259984   2.420   4.248   9.504
19363SOL     OW59985   3.405   7.929  12.298
19363SOL    HW159986   3.481   7.964  12.343
19363SOL    HW259987   3.391   7.988  12.224
19364SOL     OW59988   2.108   6.570   4.696
19364SOL    HW159989   2.066   6.489   4.667
19364SOL    HW259990   2.199   6.562   4.666
19365SOL     OW59991  13.583  12.448   4.113
19365SOL    HW159992  13.641  12.373   4.105
19365SOL    HW259993  13.530  12.446   4.033
19366SOL     OW59994   2.830  12.138  13.126
19366SOL    HW159995   2.829  12.164  13.034
19366SOL    HW259996   2.906  12.081  13.134
19367SOL     OW59997  11.454   7.398   3.997
19367SOL    HW159998  11.521   7.459   4.028
19367SOL    HW259999  11.380   7.453   3.972
19368SOL     OW60000   2.599  11.225   5.790
19368SOL    HW160001   2.545  11.284   5.842
19368SOL    HW260002   2.568  11.137   5.813
19369SOL     OW60003   0.093   1.283  10.399
19369SOL    HW160004   0.181   1.247  10.384
19369SOL    HW260005   0.087   1.293  10.494
19370SOL     OW60006   3.755  13.925   5.653
19370SOL    HW160007   3.850  13.909   5.655
19370SOL    HW260008   3.743  13.994   5.589
19371SOL     OW60009   6.292   8.108  13.535
19371SOL    HW160010   6.303   8.122  13.441
19371SOL    HW260011   6.247   8.023  13.541
19372SOL     OW60012   7.385   8.463   4.913
19372SOL    HW160013   7.308   8.518   4.929
19372SOL    HW260014   7.377   8.436   4.822
19373SOL     OW60015   5.805   2.627   1.515
19373SOL    HW160016   5.887   2.578   1.528
19373SOL    HW260017   5.754   2.573   1.455
19374SOL     OW60018   0.381   5.944  12.012
19374SOL    HW160019   0.432   5.877  12.059
19374SOL    HW260020   0.322   5.980  12.079
19375SOL     OW60021  10.593   7.622   6.877
19375SOL    HW160022  10.541   7.593   6.952
19375SOL    HW260023  10.542   7.693   6.838
19376SOL     OW60024   2.558   5.130   6.524
19376SOL    HW160025   2.488   5.115   6.588
19376SOL    HW260026   2.636   5.093   6.565
19377SOL     OW60027  12.657  12.783  13.858
19377SOL    HW160028  12.657  12.687  13.860
19377SOL    HW260029  12.749  12.807  13.875
19378SOL     OW60030   5.837  14.246   3.547
19378SOL    HW160031   5.907  14.184   3.525
19378SOL    HW260032   5.766  14.224   3.486
19379SOL     OW60033   5.174   7.400   5.077
19379SOL    HW160034   5.250   7.341   5.074
19379SOL    HW260035   5.118   7.368   5.006
19380SOL     OW60036   6.602  12.572  13.904
19380SOL    HW160037   6.605  12.664  13.929
19380SOL    HW260038   6.693  12.542  13.910
19381SOL     OW60039   5.079   6.163  12.677
19381SOL    HW160040   5.053   6.084  12.723
19381SOL    HW260041   5.114   6.221  12.745
19382SOL     OW60042   8.486   8.207  10.718
19382SOL    HW160043   8.401   8.179  10.752
19382SOL    HW260044   8.549   8.181  10.785
19383SOL     OW60045   3.163  14.371   8.599
19383SOL    HW160046   3.256  14.395   8.598
19383SOL    HW260047   3.120  14.444   8.645
19384SOL     OW60048   4.988  13.336  11.347
19384SOL    HW160049   4.915  13.276  11.358
19384SOL    HW260050   5.002  13.340  11.253
19385SOL     OW60051  13.091   6.378  11.153
19385SOL    HW160052  13.090   6.285  11.132
19385SOL    HW260053  13.034   6.418  11.088
19386SOL     OW60054   8.593   3.389   3.485
19386SOL    HW160055   8.595   3.423   3.574
19386SOL    HW260056   8.680   3.350   3.472
19387SOL     OW60057   1.792   9.810   6.996
19387SOL    HW160058   1.862   9.766   6.948
19387SOL    HW260059   1.831   9.892   7.025
19388SOL     OW60060  10.125   2.808   7.004
19388SOL    HW160061  10.089   2.862   7.074
19388SOL    HW260062  10.103   2.718   7.029
19389SOL     OW60063   5.062   0.401   8.997
19389SOL    HW160064   5.088   0.477   9.049
19389SOL    HW260065   5.142   0.372   8.953
19390SOL     OW60066   7.725  12.094   9.514
19390SOL    HW160067   7.750  12.112   9.605
19390SOL    HW260068   7.629  12.086   9.517
19391SOL     OW60069  13.212   5.896   2.541
19391SOL    HW160070  13.306   5.902   2.557
19391SOL    HW260071  13.203   5.910   2.446
19392SOL     OW60072   9.279   0.304  13.917
19392SOL    HW160073   9.290   0.223  13.966
19392SOL    HW260074   9.308   0.373  13.977
19393SOL     OW60075   9.086   9.350   9.415
19393SOL    HW160076   9.046   9.263   9.420
19393SOL    HW260077   9.043   9.392   9.341
19394SOL     OW60078   3.613   9.139  11.732
19394SOL    HW160079   3.594   9.220  11.778
19394SOL    HW260080   3.532   9.088  11.739
19395SOL     OW60081   6.252   8.708   6.035
19395SOL    HW160082   6.171   8.738   5.994
19395SOL    HW260083   6.307   8.787   6.039
19396SOL     OW60084  11.768   6.553   7.200
19396SOL    HW160085  11.765   6.476   7.144
19396SOL    HW260086  11.680   6.559   7.238
19397SOL     OW60087   7.492   1.416  13.230
19397SOL    HW160088   7.437   1.459  13.296
19397SOL    HW260089   7.429   1.377  13.168
19398SOL     OW60090   3.330  11.587   4.435
19398SOL    HW160091   3.342  11.576   4.530
19398SOL    HW260092   3.261  11.524   4.413
19399SOL     OW60093   9.052   4.664   1.347
19399SOL    HW160094   9.052   4.652   1.442
19399SOL    HW260095   8.960   4.651   1.321
19400SOL     OW60096   1.626   4.630   7.428
19400SOL    HW160097   1.694   4.656   7.366
19400SOL    HW260098   1.574   4.709   7.443
19401SOL     OW60099   5.655  10.386   3.150
19401SOL    HW160100   5.634  10.340   3.231
19401SOL    HW260101   5.599  10.464   3.150
19402SOL     OW60102   5.038  10.872   1.745
19402SOL    HW160103   5.049  10.779   1.725
19402SOL    HW260104   5.056  10.916   1.662
19403SOL     OW60105   2.637  12.065   8.122
19403SOL    HW160106   2.656  12.088   8.213
19403SOL    HW260107   2.593  12.142   8.087
19404SOL     OW60108   5.170   4.943   1.455
19404SOL    HW160109   5.256   4.960   1.415
19404SOL    HW260110   5.143   5.028   1.489
19405SOL     OW60111   0.616  10.458   6.810
19405SOL    HW160112   0.550  10.521   6.785
19405SOL    HW260113   0.570  10.395   6.865
19406SOL     OW60114   6.903  14.332   5.119
19406SOL    HW160115   6.934  14.305   5.033
19406SOL    HW260116   6.809  14.314   5.116
19407SOL     OW60117  14.764   8.411  11.308
19407SOL    HW160118  14.774   8.321  11.336
19407SOL    HW260119  14.839   8.429  11.252
19408SOL     OW60120   2.632   9.654  13.241
19408SOL    HW160121   2.596   9.571  13.210
19408SOL    HW260122   2.672   9.632  13.325
19409SOL     OW60123   7.549  11.210   8.253
19409SOL    HW160124   7.531  11.205   8.347
19409SOL    HW260125   7.496  11.283   8.222
19410SOL     OW60126   7.765   6.271   5.269
19410SOL    HW160127   7.801   6.358   5.250
19410SOL    HW260128   7.678   6.288   5.307
19411SOL     OW60129   5.433   7.793   3.088
19411SOL    HW160130   5.522   7.758   3.091
19411SOL    HW260131   5.443   7.881   3.052
19412SOL     OW60132   7.567   6.856   0.596
19412SOL    HW160133   7.569   6.864   0.501
19412SOL    HW260134   7.618   6.931   0.627
19413SOL     OW60135   3.090  14.048   9.612
19413SOL    HW160136   3.130  14.117   9.558
19413SOL    HW260137   3.147  14.043   9.689
19414SOL     OW60138   8.091  11.100  11.832
19414SOL    HW160139   8.050  11.150  11.762
19414SOL    HW260140   8.175  11.144  11.847
19415SOL     OW60141   6.495   6.230  10.602
19415SOL    HW160142   6.556   6.302  10.586
19415SOL    HW260143   6.513   6.168  10.532
19416SOL     OW60144   3.467   2.866   9.050
19416SOL    HW160145   3.536   2.807   9.081
19416SOL    HW260146   3.443   2.917   9.128
19417SOL     OW60147  13.637   5.731   5.627
19417SOL    HW160148  13.576   5.723   5.553
19417SOL    HW260149  13.658   5.824   5.630
19418SOL     OW60150  10.366   6.147  13.940
19418SOL    HW160151  10.383   6.061  13.979
19418SOL    HW260152  10.401   6.140  13.851
19419SOL     OW60153  12.143  13.191   9.774
19419SOL    HW160154  12.137  13.136   9.695
19419SOL    HW260155  12.055  13.226   9.785
19420SOL     OW60156   4.401   3.118   9.199
19420SOL    HW160157   4.462   3.048   9.179
19420SOL    HW260158   4.388   3.163   9.115
19421SOL     OW60159   4.156   9.382  12.040
19421SOL    HW160160   4.061   9.390  12.028
19421SOL    HW260161   4.172   9.287  12.039
19422SOL     OW60162   6.134   4.554   8.653
19422SOL    HW160163   6.108   4.490   8.588
19422SOL    HW260164   6.194   4.507   8.711
19423SOL     OW60165   8.559  13.219   7.177
19423SOL    HW160166   8.500  13.145   7.189
19423SOL    HW260167   8.569  13.227   7.082
19424SOL     OW60168   8.534   9.576   7.526
19424SOL    HW160169   8.559   9.486   7.505
19424SOL    HW260170   8.467   9.567   7.594
19425SOL     OW60171  11.613   1.647   8.557
19425SOL    HW160172  11.601   1.573   8.616
19425SOL    HW260173  11.629   1.722   8.614
19426SOL     OW60174  12.309   7.174   4.464
19426SOL    HW160175  12.249   7.148   4.394
19426SOL    HW260176  12.357   7.093   4.484
19427SOL     OW60177   5.415  11.864   7.787
19427SOL    HW160178   5.486  11.809   7.756
19427SOL    HW260179   5.341  11.841   7.731
19428SOL     OW60180   0.651  13.247  13.361
19428SOL    HW160181   0.738  13.265  13.395
19428SOL    HW260182   0.663  13.235  13.267
19429SOL     OW60183   9.801   5.002   3.947
19429SOL    HW160184   9.720   5.044   3.918
19429SOL    HW260185   9.852   4.991   3.867
19430SOL     OW60186   7.461  12.167   4.053
19430SOL    HW160187   7.539  12.127   4.014
19430SOL    HW260188   7.447  12.119   4.135
19431SOL     OW60189   3.830  11.801   0.421
19431SOL    HW160190   3.891  11.869   0.392
19431SOL    HW260191   3.748  11.848   0.435
19432SOL     OW60192   2.760  12.805   6.610
19432SOL    HW160193   2.775  12.826   6.702
19432SOL    HW260194   2.703  12.874   6.578
19433SOL     OW60195  14.817   6.801  12.324
19433SOL    HW160196   0.029   6.768  12.320
19433SOL    HW260197  14.776   6.768  12.244
19434SOL     OW60198  13.644   3.750   4.606
19434SOL    HW160199  13.713   3.805   4.643
19434SOL    HW260200  13.570   3.810   4.593
19435SOL     OW60201   0.503  12.153  12.164
19435SOL    HW160202   0.447  12.091  12.211
19435SOL    HW260203   0.585  12.155  12.214
19436SOL     OW60204   3.645   3.297   7.965
19436SOL    HW160205   3.565   3.344   7.939
19436SOL    HW260206   3.699   3.365   8.005
19437SOL     OW60207  14.612   0.762  10.513
19437SOL    HW160208  14.668   0.686  10.531
19437SOL    HW260209  14.562   0.737  10.435
19438SOL     OW60210   5.898   0.657   7.157
19438SOL    HW160211   5.929   0.701   7.236
19438SOL    HW260212   5.901   0.724   7.089
19439SOL     OW60213  13.041  12.248  12.923
19439SOL    HW160214  12.993  12.292  12.993
19439SOL    HW260215  13.120  12.215  12.966
19440SOL     OW60216  11.162  13.682   8.304
19440SOL    HW160217  11.225  13.655   8.371
19440SOL    HW260218  11.088  13.623   8.315
19441SOL     OW60219   7.005   0.949   4.454
19441SOL    HW160220   7.047   0.933   4.369
19441SOL    HW260221   6.918   0.983   4.431
19442SOL     OW60222  11.097   0.387   3.382
19442SOL    HW160223  11.120   0.473   3.346
19442SOL    HW260224  11.094   0.330   3.305
19443SOL     OW60225   2.133  13.887   1.976
19443SOL    HW160226   2.171  13.815   2.026
19443SOL    HW260227   2.060  13.847   1.928
19444SOL     OW60228   3.027   5.507   4.486
19444SOL    HW160229   3.030   5.521   4.391
19444SOL    HW260230   2.975   5.428   4.497
19445SOL     OW60231   4.622  14.183  14.295
19445SOL    HW160232   4.685  14.133  14.346
19445SOL    HW260233   4.551  14.121  14.277
19446SOL     OW60234   7.736   0.166  13.218
19446SOL    HW160235   7.751   0.125  13.132
19446SOL    HW260236   7.758   0.098  13.281
19447SOL     OW60237  10.406   2.388  12.442
19447SOL    HW160238  10.370   2.439  12.515
19447SOL    HW260239  10.416   2.299  12.477
19448SOL     OW60240  14.646   0.106   2.309
19448SOL    HW160241  14.730   0.118   2.354
19448SOL    HW260242  14.653   0.019   2.269
19449SOL     OW60243   4.400   1.345  13.139
19449SOL    HW160244   4.347   1.404  13.086
19449SOL    HW260245   4.368   1.257  13.116
19450SOL     OW60246   1.976   9.482  12.970
19450SOL    HW160247   2.059   9.450  13.005
19450SOL    HW260248   1.913   9.468  13.041
19451SOL     OW60249   5.057   4.246   1.231
19451SOL    HW160250   5.144   4.248   1.190
19451SOL    HW260251   5.071   4.201   1.315
19452SOL     OW60252  11.425   2.199   5.044
19452SOL    HW160253  11.412   2.232   4.955
19452SOL    HW260254  11.358   2.132   5.055
19453SOL     OW60255   1.852   3.340   4.974
19453SOL    HW160256   1.861   3.349   4.879
19453SOL    HW260257   1.804   3.258   4.986
19454SOL     OW60258   0.894   9.878   8.609
19454SOL    HW160259   0.972   9.928   8.633
19454SOL    HW260260   0.921   9.827   8.533
19455SOL     OW60261  10.177   8.751   6.702
19455SOL    HW160262  10.212   8.814   6.639
19455SOL    HW260263  10.141   8.805   6.773
19456SOL     OW60264   9.133   4.177   7.792
19456SOL    HW160265   9.201   4.219   7.740
19456SOL    HW260266   9.147   4.209   7.881
19457SOL     OW60267  14.145  11.412  10.241
19457SOL    HW160268  14.170  11.321  10.226
19457SOL    HW260269  14.150  11.453  10.155
19458SOL     OW60270  14.792   5.060  12.987
19458SOL    HW160271  14.762   5.142  12.948
19458SOL    HW260272  14.720   4.999  12.971
19459SOL     OW60273   0.937   8.359   6.721
19459SOL    HW160274   1.000   8.379   6.652
19459SOL    HW260275   0.969   8.407   6.797
19460SOL     OW60276   5.864   6.783   2.835
19460SOL    HW160277   5.821   6.859   2.797
19460SOL    HW260278   5.924   6.752   2.767
19461SOL     OW60279  14.669   7.761  12.473
19461SOL    HW160280  14.759   7.774  12.503
19461SOL    HW260281  14.617   7.817  12.530
19462SOL     OW60282   7.015   9.757  11.249
19462SOL    HW160283   6.955   9.779  11.178
19462SOL    HW260284   7.035   9.664  11.236
19463SOL     OW60285   8.954   1.271   7.727
19463SOL    HW160286   8.989   1.335   7.789
19463SOL    HW260287   8.947   1.190   7.777
19464SOL     OW60288  13.760   3.847  12.101
19464SOL    HW160289  13.815   3.891  12.165
19464SOL    HW260290  13.783   3.754  12.110
19465SOL     OW60291   9.668   7.619   0.929
19465SOL    HW160292   9.587   7.615   0.877
19465SOL    HW260293   9.719   7.690   0.889
19466SOL     OW60294   0.225   0.304   4.361
19466SOL    HW160295   0.217   0.261   4.276
19466SOL    HW260296   0.194   0.239   4.424
19467SOL     OW60297   2.272   4.886  13.765
19467SOL    HW160298   2.192   4.886  13.713
19467SOL    HW260299   2.327   4.818  13.727
19468SOL     OW60300   3.315   1.871   6.212
19468SOL    HW160301   3.282   1.924   6.284
19468SOL    HW260302   3.295   1.781   6.237
19469SOL     OW60303   4.035   1.668   9.884
19469SOL    HW160304   4.118   1.670   9.932
19469SOL    HW260305   4.059   1.677   9.792
19470SOL     OW60306   2.539  13.658  12.779
19470SOL    HW160307   2.524  13.601  12.854
19470SOL    HW260308   2.494  13.740  12.802
19471SOL     OW60309  11.519  14.027   4.616
19471SOL    HW160310  11.459  14.037   4.690
19471SOL    HW260311  11.588  14.091   4.632
19472SOL     OW60312   8.035   5.888   3.781
19472SOL    HW160313   7.959   5.896   3.724
19472SOL    HW260314   8.047   5.794   3.793
19473SOL     OW60315   9.120  14.644  10.228
19473SOL    HW160316   9.166  14.654  10.311
19473SOL    HW260317   9.043  14.592  10.249
19474SOL     OW60318  12.525   6.923   5.270
19474SOL    HW160319  12.574   6.846   5.299
19474SOL    HW260320  12.534   6.985   5.343
19475SOL     OW60321   7.552   0.897  14.453
19475SOL    HW160322   7.575   0.830  14.390
19475SOL    HW260323   7.535   0.975  14.400
19476SOL     OW60324   4.261   5.596   6.715
19476SOL    HW160325   4.244   5.623   6.625
19476SOL    HW260326   4.297   5.508   6.707
19477SOL     OW60327   0.309  13.257   6.043
19477SOL    HW160328   0.366  13.307   5.985
19477SOL    HW260329   0.345  13.270   6.130
19478SOL     OW60330   5.013   4.415   2.106
19478SOL    HW160331   4.989   4.505   2.087
19478SOL    HW260332   4.990   4.366   2.027
19479SOL     OW60333   0.873   8.874   7.899
19479SOL    HW160334   0.833   8.823   7.970
19479SOL    HW260335   0.954   8.907   7.937
19480SOL     OW60336   6.383   2.308   7.046
19480SOL    HW160337   6.323   2.282   6.976
19480SOL    HW260338   6.462   2.337   7.000
19481SOL     OW60339   9.316  11.636  13.704
19481SOL    HW160340   9.295  11.620  13.796
19481SOL    HW260341   9.326  11.549  13.666
19482SOL     OW60342   9.369   7.378   4.720
19482SOL    HW160343   9.416   7.315   4.665
19482SOL    HW260344   9.332   7.441   4.659
19483SOL     OW60345   3.802   7.879   0.790
19483SOL    HW160346   3.742   7.934   0.839
19483SOL    HW260347   3.831   7.812   0.853
19484SOL     OW60348   8.446  10.201   9.857
19484SOL    HW160349   8.390  10.261   9.807
19484SOL    HW260350   8.516  10.178   9.796
19485SOL     OW60351   8.482   7.036   5.854
19485SOL    HW160352   8.559   7.006   5.806
19485SOL    HW260353   8.411   6.981   5.820
19486SOL     OW60354   8.888  10.010   7.696
19486SOL    HW160355   8.866   9.995   7.604
19486SOL    HW260356   8.819  10.067   7.728
19487SOL     OW60357   8.470  14.298   3.471
19487SOL    HW160358   8.442  14.226   3.414
19487SOL    HW260359   8.514  14.359   3.412
19488SOL     OW60360   8.535   4.897   1.665
19488SOL    HW160361   8.587   4.950   1.604
19488SOL    HW260362   8.460   4.869   1.613
19489SOL     OW60363  10.319   9.743   5.769
19489SOL    HW160364  10.336   9.830   5.733
19489SOL    HW260365  10.377   9.685   5.721
19490SOL     OW60366   5.108   8.078   0.113
19490SOL    HW160367   5.084   8.133   0.039
19490SOL    HW260368   5.187   8.119   0.149
19491SOL     OW60369   5.642   9.997   0.136
19491SOL    HW160370   5.707  10.004   0.207
19491SOL    HW260371   5.644  10.082   0.093
19492SOL     OW60372  11.832   7.570   7.596
19492SOL    HW160373  11.927   7.566   7.590
19492SOL    HW260374  11.809   7.500   7.658
19493SOL     OW60375   3.934   1.443   3.765
19493SOL    HW160376   3.957   1.490   3.845
19493SOL    HW260377   3.968   1.498   3.694
19494SOL     OW60378   2.120   8.623   4.216
19494SOL    HW160379   2.112   8.542   4.165
19494SOL    HW260380   2.062   8.685   4.172
19495SOL     OW60381  10.292   8.022   4.264
19495SOL    HW160382  10.273   7.999   4.355
19495SOL    HW260383  10.228   8.090   4.243
19496SOL     OW60384   6.045  13.896   0.502
19496SOL    HW160385   6.132  13.910   0.537
19496SOL    HW260386   6.056  13.901   0.407
19497SOL     OW60387  10.763   1.240   5.692
19497SOL    HW160388  10.695   1.202   5.748
19497SOL    HW260389  10.808   1.164   5.655
19498SOL     OW60390   6.068  11.896   9.270
19498SOL    HW160391   6.007  11.823   9.259
19498SOL    HW260392   6.071  11.938   9.184
19499SOL     OW60393  13.219  13.312   3.343
19499SOL    HW160394  13.212  13.277   3.433
19499SOL    HW260395  13.302  13.277   3.310
19500SOL     OW60396   1.644   3.936   3.481
19500SOL    HW160397   1.624   3.853   3.439
19500SOL    HW260398   1.589   4.000   3.435
19501SOL     OW60399   0.182  11.179   2.029
19501SOL    HW160400   0.272  11.191   1.999
19501SOL    HW260401   0.133  11.250   1.986
19502SOL     OW60402  10.373  10.963   9.720
19502SOL    HW160403  10.328  11.047   9.729
19502SOL    HW260404  10.422  10.954   9.801
19503SOL     OW60405   5.765   7.604  10.712
19503SOL    HW160406   5.786   7.521  10.754
19503SOL    HW260407   5.758   7.582  10.619
19504SOL     OW60408   1.074   9.787   1.714
19504SOL    HW160409   1.146   9.729   1.740
19504SOL    HW260410   1.115   9.850   1.655
19505SOL     OW60411  11.767   9.992   9.400
19505SOL    HW160412  11.721   9.910   9.383
19505SOL    HW260413  11.807  10.015   9.317
19506SOL     OW60414   0.446   1.620   0.942
19506SOL    HW160415   0.424   1.543   0.888
19506SOL    HW260416   0.470   1.583   1.026
19507SOL     OW60417  13.837   7.523   1.662
19507SOL    HW160418  13.889   7.602   1.641
19507SOL    HW260419  13.762   7.528   1.603
19508SOL     OW60420   6.635  10.959   0.689
19508SOL    HW160421   6.686  10.878   0.686
19508SOL    HW260422   6.589  10.961   0.604
19509SOL     OW60423   6.104  13.372   8.246
19509SOL    HW160424   6.198  13.362   8.258
19509SOL    HW260425   6.089  13.349   8.154
19510SOL     OW60426   3.073  10.459   8.105
19510SOL    HW160427   3.062  10.454   8.200
19510SOL    HW260428   3.164  10.486   8.093
19511SOL     OW60429   6.735  10.660   5.178
19511SOL    HW160430   6.728  10.613   5.095
19511SOL    HW260431   6.796  10.607   5.230
19512SOL     OW60432  14.121   7.139  12.192
19512SOL    HW160433  14.055   7.071  12.205
19512SOL    HW260434  14.074   7.209  12.146
19513SOL     OW60435  12.873  11.828  10.424
19513SOL    HW160436  12.854  11.901  10.483
19513SOL    HW260437  12.859  11.750  10.477
19514SOL     OW60438   0.483   8.190   7.632
19514SOL    HW160439   0.483   8.161   7.541
19514SOL    HW260440   0.555   8.143   7.672
19515SOL     OW60441   7.342  13.715   6.580
19515SOL    HW160442   7.349  13.622   6.599
19515SOL    HW260443   7.251  13.728   6.553
19516SOL     OW60444   4.862   2.762   2.165
19516SOL    HW160445   4.908   2.805   2.093
19516SOL    HW260446   4.923   2.695   2.195
19517SOL     OW60447  11.996   2.204  11.089
19517SOL    HW160448  12.051   2.126  11.092
19517SOL    HW260449  11.934   2.187  11.018
19518SOL     OW60450  13.065  12.216  10.703
19518SOL    HW160451  13.085  12.198  10.795
19518SOL    HW260452  13.149  12.245  10.665
19519SOL     OW60453  11.496   0.001   1.575
19519SOL    HW160454  11.407  14.851   1.597
19519SOL    HW260455  11.522  14.821   1.503
19520SOL     OW60456   4.449  13.868   4.482
19520SOL    HW160457   4.541  13.846   4.497
19520SOL    HW260458   4.433  13.842   4.391
19521SOL     OW60459   2.647   5.302   0.695
19521SOL    HW160460   2.666   5.323   0.603
19521SOL    HW260461   2.561   5.341   0.711
19522SOL     OW60462  14.805   6.935   3.426
19522SOL    HW160463   0.001   6.937   3.364
19522SOL    HW260464  14.808   7.021   3.468
19523SOL     OW60465   8.060   0.300   7.724
19523SOL    HW160466   7.965   0.314   7.724
19523SOL    HW260467   8.078   0.262   7.639
19524SOL     OW60468   7.527  12.637   1.064
19524SOL    HW160469   7.596  12.641   1.131
19524SOL    HW260470   7.570  12.669   0.984
19525SOL     OW60471  11.010   6.963  12.660
19525SOL    HW160472  11.032   6.951  12.752
19525SOL    HW260473  11.094   6.960  12.614
19526SOL     OW60474  10.967   6.817   3.406
19526SOL    HW160475  11.051   6.846   3.373
19526SOL    HW260476  10.975   6.824   3.502
19527SOL     OW60477   9.589   7.418   3.225
19527SOL    HW160478   9.672   7.423   3.271
19527SOL    HW260479   9.572   7.324   3.215
19528SOL     OW60480  14.294   1.004   2.007
19528SOL    HW160481  14.232   0.933   1.993
19528SOL    HW260482  14.287   1.057   1.927
19529SOL     OW60483   5.293  10.225   8.191
19529SOL    HW160484   5.268  10.255   8.278
19529SOL    HW260485   5.212  10.195   8.151
19530SOL     OW60486   1.268   2.102  14.043
19530SOL    HW160487   1.227   2.171  13.991
19530SOL    HW260488   1.216   2.024  14.023
19531SOL     OW60489   6.121   9.919  13.445
19531SOL    HW160490   6.132   9.912  13.350
19531SOL    HW260491   6.170   9.844  13.480
19532SOL     OW60492  10.807   1.657  10.699
19532SOL    HW160493  10.818   1.745  10.663
19532SOL    HW260494  10.716   1.656  10.730
19533SOL     OW60495   2.022   0.853   1.224
19533SOL    HW160496   2.058   0.939   1.202
19533SOL    HW260497   1.961   0.834   1.153
19534SOL     OW60498  13.046   4.767   7.978
19534SOL    HW160499  13.012   4.727   7.898
19534SOL    HW260500  13.094   4.697   8.021
19535SOL     OW60501   0.838   4.096  13.874
19535SOL    HW160502   0.852   4.132  13.961
19535SOL    HW260503   0.861   4.167  13.814
19536SOL     OW60504   0.484   1.743   8.370
19536SOL    HW160505   0.496   1.776   8.459
19536SOL    HW260506   0.410   1.683   8.376
19537SOL     OW60507   0.627   9.558   1.155
19537SOL    HW160508   0.588   9.555   1.242
19537SOL    HW260509   0.553   9.544   1.095
19538SOL     OW60510   8.079   0.435  12.776
19538SOL    HW160511   8.020   0.363  12.752
19538SOL    HW260512   8.127   0.453  12.695
19539SOL     OW60513   5.447   1.279   2.906
19539SOL    HW160514   5.521   1.236   2.865
19539SOL    HW260515   5.470   1.371   2.908
19540SOL     OW60516  13.947   5.224  14.652
19540SOL    HW160517  14.039   5.248  14.640
19540SOL    HW260518  13.899   5.284  14.595
19541SOL     OW60519   8.950   5.795  10.576
19541SOL    HW160520   9.000   5.876  10.571
19541SOL    HW260521   8.898   5.793  10.496
19542SOL     OW60522   8.346  12.024   9.998
19542SOL    HW160523   8.424  12.051  10.047
19542SOL    HW260524   8.290  11.984  10.065
19543SOL     OW60525   7.542   7.364   5.345
19543SOL    HW160526   7.500   7.299   5.401
19543SOL    HW260527   7.474   7.430   5.330
19544SOL     OW60528  11.112   9.311  14.667
19544SOL    HW160529  11.203   9.281  14.662
19544SOL    HW260530  11.080   9.305  14.577
19545SOL     OW60531  11.200  14.698  14.638
19545SOL    HW160532  11.261  14.750  14.690
19545SOL    HW260533  11.213  14.608  14.667
19546SOL     OW60534   3.803   1.487  12.150
19546SOL    HW160535   3.731   1.428  12.126
19546SOL    HW260536   3.766   1.575  12.140
19547SOL     OW60537  10.041   4.773   3.301
19547SOL    HW160538   9.954   4.769   3.262
19547SOL    HW260539  10.095   4.718   3.243
19548SOL     OW60540  14.425   3.813  14.570
19548SOL    HW160541  14.491   3.807  14.639
19548SOL    HW260542  14.342   3.824  14.617
19549SOL     OW60543   4.442   8.749   5.368
19549SOL    HW160544   4.478   8.705   5.446
19549SOL    HW260545   4.514   8.748   5.305
19550SOL     OW60546   1.099  12.572   9.143
19550SOL    HW160547   1.036  12.566   9.072
19550SOL    HW260548   1.071  12.648   9.194
19551SOL     OW60549   4.142   7.211   3.994
19551SOL    HW160550   4.136   7.167   4.079
19551SOL    HW260551   4.220   7.267   4.001
19552SOL     OW60552   9.478  12.150   3.378
19552SOL    HW160553   9.495  12.244   3.384
19552SOL    HW260554   9.454  12.136   3.287
19553SOL     OW60555   8.788   2.776   2.827
19553SOL    HW160556   8.833   2.858   2.806
19553SOL    HW260557   8.767   2.738   2.742
19554SOL     OW60558   9.062   8.728  10.789
19554SOL    HW160559   9.136   8.684  10.830
19554SOL    HW260560   9.077   8.821  10.807
19555SOL     OW60561  10.216   8.268   5.735
19555SOL    HW160562  10.199   8.272   5.829
19555SOL    HW260563  10.159   8.336   5.698
19556SOL     OW60564   6.226   3.532   7.180
19556SOL    HW160565   6.321   3.532   7.165
19556SOL    HW260566   6.188   3.534   7.093
19557SOL     OW60567   0.442   9.572   4.850
19557SOL    HW160568   0.353   9.592   4.823
19557SOL    HW260569   0.439   9.574   4.946
19558SOL     OW60570  12.534   9.638   6.694
19558SOL    HW160571  12.531   9.611   6.602
19558SOL    HW260572  12.443   9.635   6.723
19559SOL     OW60573   2.997  12.470  14.425
19559SOL    HW160574   3.041  12.554  14.416
19559SOL    HW260575   2.911  12.483  14.386
19560SOL     OW60576   8.884   0.104   7.841
19560SOL    HW160577   8.848   0.120   7.754
19560SOL    HW260578   8.807   0.098   7.898
19561SOL     OW60579   5.122   2.419   1.534
19561SOL    HW160580   5.139   2.410   1.627
19561SOL    HW260581   5.048   2.359   1.517
19562SOL     OW60582   8.878   2.866   5.648
19562SOL    HW160583   8.940   2.894   5.715
19562SOL    HW260584   8.889   2.771   5.643
19563SOL     OW60585   3.106  11.371  12.327
19563SOL    HW160586   3.193  11.365  12.287
19563SOL    HW260587   3.084  11.464  12.324
19564SOL     OW60588   1.746   0.419   8.039
19564SOL    HW160589   1.751   0.436   8.133
19564SOL    HW260590   1.833   0.387   8.015
19565SOL     OW60591   5.727   8.002   7.890
19565SOL    HW160592   5.646   8.033   7.852
19565SOL    HW260593   5.740   8.058   7.967
19566SOL     OW60594   6.246  10.051  10.425
19566SOL    HW160595   6.332  10.012  10.440
19566SOL    HW260596   6.196   9.982  10.383
19567SOL     OW60597   3.833   2.677   5.491
19567SOL    HW160598   3.921   2.687   5.528
19567SOL    HW260599   3.830   2.587   5.459
19568SOL     OW60600   5.506  12.198   1.439
19568SOL    HW160601   5.460  12.250   1.373
19568SOL    HW260602   5.597  12.199   1.412
19569SOL     OW60603  11.840   4.303   2.318
19569SOL    HW160604  11.753   4.341   2.307
19569SOL    HW260605  11.831   4.245   2.393
19570SOL     OW60606  13.181   0.861   8.124
19570SOL    HW160607  13.115   0.793   8.136
19570SOL    HW260608  13.219   0.844   8.038
19571SOL     OW60609   7.675   8.392   8.026
19571SOL    HW160610   7.607   8.438   7.977
19571SOL    HW260611   7.640   8.382   8.114
19572SOL     OW60612   7.780  10.332   1.397
19572SOL    HW160613   7.869  10.336   1.432
19572SOL    HW260614   7.725  10.356   1.472
19573SOL     OW60615  14.226   8.928  14.338
19573SOL    HW160616  14.260   8.838  14.331
19573SOL    HW260617  14.237   8.964  14.250
19574SOL     OW60618   6.437   5.161   0.617
19574SOL    HW160619   6.410   5.218   0.546
19574SOL    HW260620   6.530   5.181   0.631
19575SOL     OW60621   5.054   6.924   6.943
19575SOL    HW160622   5.133   6.962   6.905
19575SOL    HW260623   5.074   6.914   7.036
19576SOL     OW60624   1.822  14.250   3.457
19576SOL    HW160625   1.764  14.325   3.471
19576SOL    HW260626   1.828  14.242   3.362
19577SOL     OW60627  13.414  11.925   4.151
19577SOL    HW160628  13.329  11.918   4.195
19577SOL    HW260629  13.476  11.940   4.222
19578SOL     OW60630   0.308   7.071   2.249
19578SOL    HW160631   0.264   6.986   2.250
19578SOL    HW260632   0.381   7.058   2.187
19579SOL     OW60633   8.414   3.469   6.603
19579SOL    HW160634   8.329   3.487   6.563
19579SOL    HW260635   8.441   3.552   6.642
19580SOL     OW60636   8.616   8.291  11.511
19580SOL    HW160637   8.642   8.381  11.490
19580SOL    HW260638   8.655   8.274  11.597
19581SOL     OW60639   7.339   7.782   6.172
19581SOL    HW160640   7.407   7.849   6.158
19581SOL    HW260641   7.378   7.721   6.234
19582SOL     OW60642   7.828  10.471   3.141
19582SOL    HW160643   7.797  10.389   3.178
19582SOL    HW260644   7.790  10.539   3.197
19583SOL     OW60645  13.645  10.643   7.057
19583SOL    HW160646  13.737  10.663   7.071
19583SOL    HW260647  13.637  10.549   7.075
19584SOL     OW60648  12.357   7.022  12.271
19584SOL    HW160649  12.409   7.092  12.231
19584SOL    HW260650  12.316   6.977  12.197
19585SOL     OW60651   3.295   0.164   3.404
19585SOL    HW160652   3.221   0.172   3.464
19585SOL    HW260653   3.304   0.069   3.390
19586SOL     OW60654   3.257   5.500   3.261
19586SOL    HW160655   3.224   5.438   3.196
19586SOL    HW260656   3.191   5.500   3.330
19587SOL     OW60657  13.101   1.871  13.183
19587SOL    HW160658  13.010   1.895  13.169
19587SOL    HW260659  13.151   1.940  13.139
19588SOL     OW60660  11.054  13.861   7.755
19588SOL    HW160661  11.044  13.775   7.796
19588SOL    HW260662  10.973  13.908   7.777
19589SOL     OW60663  10.807  11.326   2.464
19589SOL    HW160664  10.731  11.384   2.457
19589SOL    HW260665  10.770  11.238   2.462
19590SOL     OW60666  12.575   0.101   1.853
19590SOL    HW160667  12.615   0.141   1.931
19590SOL    HW260668  12.640   0.038   1.822
19591SOL     OW60669   4.230   1.898   5.124
19591SOL    HW160670   4.259   1.830   5.184
19591SOL    HW260671   4.215   1.853   5.041
19592SOL     OW60672  10.141  13.144   3.334
19592SOL    HW160673  10.073  13.096   3.286
19592SOL    HW260674  10.201  13.076   3.365
19593SOL     OW60675   1.446   7.495  14.801
19593SOL    HW160676   1.483   7.577  14.832
19593SOL    HW260677   1.521   7.447  14.765
19594SOL     OW60678   3.884  12.600  11.145
19594SOL    HW160679   3.929  12.520  11.173
19594SOL    HW260680   3.938  12.634  11.073
19595SOL     OW60681   6.140   0.262   8.559
19595SOL    HW160682   6.158   0.294   8.470
19595SOL    HW260683   6.142   0.167   8.551
19596SOL     OW60684   4.723  12.489   7.921
19596SOL    HW160685   4.739  12.563   7.979
19596SOL    HW260686   4.780  12.503   7.846
19597SOL     OW60687  11.182   7.901   2.915
19597SOL    HW160688  11.215   7.859   2.995
19597SOL    HW260689  11.087   7.903   2.926
19598SOL     OW60690   7.884  13.952   6.425
19598SOL    HW160691   7.854  13.987   6.509
19598SOL    HW260692   7.877  14.026   6.365
19599SOL     OW60693   1.034   5.758   5.524
19599SOL    HW160694   1.126   5.778   5.510
19599SOL    HW260695   1.034   5.677   5.574
19600SOL     OW60696   1.415   6.115   2.973
19600SOL    HW160697   1.386   6.202   2.948
19600SOL    HW260698   1.345   6.082   3.030
19601SOL     OW60699  11.867   2.086  13.147
19601SOL    HW160700  11.847   2.006  13.197
19601SOL    HW260701  11.782   2.120  13.120
19602SOL     OW60702   5.773   7.304  10.720
19602SOL    HW160703   5.827   7.249  10.777
19602SOL    HW260704   5.831   7.326  10.647
19603SOL     OW60705  11.763   8.907  13.275
19603SOL    HW160706  11.757   8.839  13.342
19603SOL    HW260707  11.845   8.889  13.230
19604SOL     OW60708   4.741   1.963  10.646
19604SOL    HW160709   4.694   1.883  10.672
19604SOL    HW260710   4.795   1.936  10.571
19605SOL     OW60711   1.573   0.044   1.984
19605SOL    HW160712   1.539  14.846   1.936
19605SOL    HW260713   1.517   0.049   2.062
19606SOL     OW60714   7.690   9.260   4.506
19606SOL    HW160715   7.662   9.193   4.568
19606SOL    HW260716   7.642   9.339   4.532
19607SOL     OW60717   7.673   9.316  13.781
19607SOL    HW160718   7.659   9.267  13.862
19607SOL    HW260719   7.752   9.277  13.743
19608SOL     OW60720  10.073  10.970   7.401
19608SOL    HW160721  10.115  10.989   7.486
19608SOL    HW260722  10.073  11.054   7.356
19609SOL     OW60723  11.255  14.332  13.722
19609SOL    HW160724  11.179  14.330  13.781
19609SOL    HW260725  11.308  14.406  13.753
19610SOL     OW60726  10.055   3.464   5.364
19610SOL    HW160727  10.121   3.403   5.397
19610SOL    HW260728  10.006   3.413   5.299
19611SOL     OW60729   8.950  14.346  10.770
19611SOL    HW160730   8.862  14.360  10.737
19611SOL    HW260731   8.938  14.301  10.853
19612SOL     OW60732   2.225   2.457   8.348
19612SOL    HW160733   2.213   2.546   8.382
19612SOL    HW260734   2.317   2.454   8.321
19613SOL     OW60735   6.348  10.297   8.759
19613SOL    HW160736   6.332  10.216   8.808
19613SOL    HW260737   6.386  10.269   8.676
19614SOL     OW60738  13.382  14.502  10.708
19614SOL    HW160739  13.338  14.569  10.656
19614SOL    HW260740  13.312  14.445  10.739
19615SOL     OW60741   6.004   8.195   3.689
19615SOL    HW160742   6.053   8.157   3.761
19615SOL    HW260743   5.966   8.120   3.643
19616SOL     OW60744   5.915   9.044   8.476
19616SOL    HW160745   5.904   9.117   8.537
19616SOL    HW260746   5.826   9.027   8.444
19617SOL     OW60747   2.887   1.971   6.622
19617SOL    HW160748   2.822   1.943   6.557
19617SOL    HW260749   2.839   2.033   6.677
19618SOL     OW60750   3.914   9.267   9.926
19618SOL    HW160751   3.945   9.198   9.985
19618SOL    HW260752   3.834   9.300   9.967
19619SOL     OW60753   2.581  11.482   2.954
19619SOL    HW160754   2.664  11.530   2.950
19619SOL    HW260755   2.521  11.541   2.998
19620SOL     OW60756   9.157   2.720  11.881
19620SOL    HW160757   9.250   2.696  11.879
19620SOL    HW260758   9.111   2.637  11.894
19621SOL     OW60759   8.859   7.041   1.544
19621SOL    HW160760   8.931   7.102   1.529
19621SOL    HW260761   8.861   6.982   1.469
19622SOL     OW60762   1.024   3.090   0.388
19622SOL    HW160763   1.059   3.107   0.476
19622SOL    HW260764   1.022   3.177   0.347
19623SOL     OW60765   9.750  13.936  12.554
19623SOL    HW160766   9.701  14.003  12.507
19623SOL    HW260767   9.836  13.936  12.513
19624SOL     OW60768   3.261   2.775  10.176
19624SOL    HW160769   3.257   2.869  10.156
19624SOL    HW260770   3.232   2.769  10.267
19625SOL     OW60771   6.178   1.744   4.372
19625SOL    HW160772   6.224   1.661   4.384
19625SOL    HW260773   6.086   1.723   4.384
19626SOL     OW60774  11.328   2.298  10.780
19626SOL    HW160775  11.361   2.256  10.859
19626SOL    HW260776  11.372   2.383  10.778
19627SOL     OW60777   6.197  10.530   3.044
19627SOL    HW160778   6.149  10.449   3.029
19627SOL    HW260779   6.154  10.570   3.120
19628SOL     OW60780   6.261   8.861   1.411
19628SOL    HW160781   6.254   8.767   1.397
19628SOL    HW260782   6.261   8.898   1.322
19629SOL     OW60783  10.271   2.157   7.343
19629SOL    HW160784  10.298   2.235   7.295
19629SOL    HW260785  10.349   2.101   7.343
19630SOL     OW60786   2.518  10.894   9.491
19630SOL    HW160787   2.444  10.946   9.523
19630SOL    HW260788   2.536  10.831   9.561
19631SOL     OW60789  13.754  13.983   6.946
19631SOL    HW160790  13.797  13.934   6.876
19631SOL    HW260791  13.732  14.068   6.906
19632SOL     OW60792   1.312   4.512  10.336
19632SOL    HW160793   1.236   4.551  10.294
19632SOL    HW260794   1.281   4.486  10.423
19633SOL     OW60795  10.290   6.253   8.851
19633SOL    HW160796  10.338   6.214   8.778
19633SOL    HW260797  10.351   6.314   8.891
19634SOL     OW60798  14.016  10.257   4.770
19634SOL    HW160799  13.935  10.308   4.778
19634SOL    HW260800  14.031  10.222   4.858
19635SOL     OW60801   7.915   1.822   1.586
19635SOL    HW160802   7.977   1.756   1.556
19635SOL    HW260803   7.881   1.786   1.669
19636SOL     OW60804   5.160  11.949   5.605
19636SOL    HW160805   5.255  11.958   5.602
19636SOL    HW260806   5.131  12.015   5.668
19637SOL     OW60807   2.598   1.464  12.909
19637SOL    HW160808   2.594   1.549  12.865
19637SOL    HW260809   2.690   1.438  12.903
19638SOL     OW60810  11.330   6.010  13.926
19638SOL    HW160811  11.310   6.011  14.020
19638SOL    HW260812  11.246   5.991  13.884
19639SOL     OW60813  11.576   9.630  14.560
19639SOL    HW160814  11.576   9.725  14.549
19639SOL    HW260815  11.549   9.596  14.475
19640SOL     OW60816   9.710   0.108  10.313
19640SOL    HW160817   9.654   0.149  10.247
19640SOL    HW260818   9.797   0.146  10.299
19641SOL     OW60819  12.888   9.475   7.889
19641SOL    HW160820  12.887   9.434   7.802
19641SOL    HW260821  12.969   9.526   7.890
19642SOL     OW60822   3.870   4.439   8.165
19642SOL    HW160823   3.901   4.493   8.238
19642SOL    HW260824   3.891   4.491   8.087
19643SOL     OW60825  10.949   6.491   9.845
19643SOL    HW160826  10.906   6.547   9.910
19643SOL    HW260827  10.939   6.402   9.879
19644SOL     OW60828   3.683  14.802   5.706
19644SOL    HW160829   3.644  14.716   5.716
19644SOL    HW260830   3.712  14.806   5.615
19645SOL     OW60831   3.833   7.063  13.331
19645SOL    HW160832   3.827   7.152  13.367
19645SOL    HW260833   3.882   7.073  13.250
19646SOL     OW60834   5.804  10.958  12.858
19646SOL    HW160835   5.883  10.963  12.911
19646SOL    HW260836   5.744  10.905  12.910
19647SOL     OW60837   3.244   3.115  12.050
19647SOL    HW160838   3.294   3.117  11.969
19647SOL    HW260839   3.274   3.192  12.099
19648SOL     OW60840   1.619  13.478  11.091
19648SOL    HW160841   1.585  13.449  11.006
19648SOL    HW260842   1.689  13.416  11.111
19649SOL     OW60843   7.790   9.608   1.277
19649SOL    HW160844   7.767   9.639   1.189
19649SOL    HW260845   7.706   9.604   1.323
19650SOL     OW60846   7.669   4.387   0.697
19650SOL    HW160847   7.606   4.458   0.688
19650SOL    HW260848   7.645   4.344   0.780
19651SOL     OW60849  12.968   0.932  10.138
19651SOL    HW160850  12.929   0.948  10.052
19651SOL    HW260851  13.001   1.018  10.166
19652SOL     OW60852   6.811  14.263   4.386
19652SOL    HW160853   6.799  14.250   4.480
19652SOL    HW260854   6.741  14.322   4.360
19653SOL     OW60855  13.512   0.062   6.864
19653SOL    HW160856  13.487   0.155   6.864
19653SOL    HW260857  13.444   0.020   6.916
19654SOL     OW60858   6.911   4.825  12.442
19654SOL    HW160859   6.881   4.740  12.471
19654SOL    HW260860   6.831   4.873  12.419
19655SOL     OW60861   6.540  14.304  11.717
19655SOL    HW160862   6.576  14.247  11.785
19655SOL    HW260863   6.502  14.377  11.766
19656SOL     OW60864   4.441  13.022  10.984
19656SOL    HW160865   4.458  12.948  10.926
19656SOL    HW260866   4.382  13.079  10.935
19657SOL     OW60867  13.088   4.218   3.787
19657SOL    HW160868  13.029   4.271   3.840
19657SOL    HW260869  13.047   4.216   3.700
19658SOL     OW60870  12.564  11.614  11.754
19658SOL    HW160871  12.504  11.541  11.764
19658SOL    HW260872  12.633  11.580  11.696
19659SOL     OW60873   0.890   2.592  14.614
19659SOL    HW160874   0.819   2.635  14.565
19659SOL    HW260875   0.954   2.661  14.630
19660SOL     OW60876  10.770   6.410   0.344
19660SOL    HW160877  10.765   6.414   0.439
19660SOL    HW260878  10.841   6.470   0.321
19661SOL     OW60879   3.377  14.308   8.290
19661SOL    HW160880   3.459  14.353   8.269
19661SOL    HW260881   3.344  14.352   8.368
19662SOL     OW60882   0.583   4.738   3.032
19662SOL    HW160883   0.508   4.738   3.091
19662SOL    HW260884   0.553   4.690   2.955
19663SOL     OW60885   4.057   5.968   5.293
19663SOL    HW160886   4.076   5.874   5.297
19663SOL    HW260887   4.048   5.987   5.200
19664SOL     OW60888   4.423  11.135   5.624
19664SOL    HW160889   4.467  11.051   5.635
19664SOL    HW260890   4.473  11.179   5.556
19665SOL     OW60891  11.846   3.353  10.520
19665SOL    HW160892  11.855   3.292  10.593
19665SOL    HW260893  11.767   3.403  10.540
19666SOL     OW60894   0.758  13.384  12.165
19666SOL    HW160895   0.774  13.304  12.116
19666SOL    HW260896   0.668  13.377  12.196
19667SOL     OW60897   8.972   7.500   4.333
19667SOL    HW160898   9.035   7.429   4.349
19667SOL    HW260899   9.002   7.571   4.390
19668SOL     OW60900  13.413  10.748  13.305
19668SOL    HW160901  13.339  10.723  13.360
19668SOL    HW260902  13.373  10.770  13.220
19669SOL     OW60903   2.645   5.651   7.890
19669SOL    HW160904   2.621   5.713   7.959
19669SOL    HW260905   2.738   5.667   7.875
19670SOL     OW60906   5.095   6.046  14.522
19670SOL    HW160907   5.175   6.039  14.575
19670SOL    HW260908   5.126   6.060  14.433
19671SOL     OW60909  12.767   9.129  12.528
19671SOL    HW160910  12.766   9.156  12.436
19671SOL    HW260911  12.679   9.147  12.560
19672SOL     OW60912   8.583   7.923  10.407
19672SOL    HW160913   8.640   7.956  10.476
19672SOL    HW260914   8.640   7.868  10.353
19673SOL     OW60915   3.546   6.365  13.052
19673SOL    HW160916   3.519   6.318  13.131
19673SOL    HW260917   3.518   6.309  12.980
19674SOL     OW60918  10.517   3.397   3.298
19674SOL    HW160919  10.509   3.413   3.392
19674SOL    HW260920  10.556   3.310   3.292
19675SOL     OW60921   5.317  11.614   3.712
19675SOL    HW160922   5.223  11.628   3.725
19675SOL    HW260923   5.353  11.702   3.699
19676SOL     OW60924   2.160  14.728   9.881
19676SOL    HW160925   2.148  14.753   9.789
19676SOL    HW260926   2.106  14.650   9.892
19677SOL     OW60927   1.105  13.367  10.942
19677SOL    HW160928   1.094  13.272  10.937
19677SOL    HW260929   1.172  13.387  10.876
19678SOL     OW60930   8.060  10.106  12.586
19678SOL    HW160931   8.088  10.149  12.668
19678SOL    HW260932   8.005  10.172  12.543
19679SOL     OW60933   2.729   8.107  14.691
19679SOL    HW160934   2.803   8.047  14.683
19679SOL    HW260935   2.680   8.074  14.766
19680SOL     OW60936   6.307   0.334   7.892
19680SOL    HW160937   6.284   0.246   7.921
19680SOL    HW260938   6.268   0.341   7.804
19681SOL     OW60939   7.346   7.096   2.441
19681SOL    HW160940   7.395   7.169   2.404
19681SOL    HW260941   7.280   7.137   2.497
19682SOL     OW60942  11.288  11.095  12.199
19682SOL    HW160943  11.211  11.071  12.147
19682SOL    HW260944  11.251  11.143  12.274
19683SOL     OW60945  14.251  14.801   2.186
19683SOL    HW160946  14.182  14.770   2.243
19683SOL    HW260947  14.302  14.723   2.165
19684SOL     OW60948   4.106  10.409  10.841
19684SOL    HW160949   4.155  10.392  10.761
19684SOL    HW260950   4.172  10.408  10.910
19685SOL     OW60951   6.998  12.956   9.399
19685SOL    HW160952   6.914  12.946   9.443
19685SOL    HW260953   6.985  12.916   9.313
19686SOL     OW60954  11.888   0.510  12.821
19686SOL    HW160955  11.976   0.480  12.843
19686SOL    HW260956  11.830   0.464  12.881
19687SOL     OW60957   6.353   9.157  13.526
19687SOL    HW160958   6.384   9.082  13.576
19687SOL    HW260959   6.426   9.179  13.468
19688SOL     OW60960   2.491  13.519  14.318
19688SOL    HW160961   2.521  13.455  14.255
19688SOL    HW260962   2.398  13.499  14.331
19689SOL     OW60963  10.101   9.791   1.532
19689SOL    HW160964  10.018   9.746   1.549
19689SOL    HW260965  10.102   9.805   1.437
19690SOL     OW60966   5.319   4.903   0.474
19690SOL    HW160967   5.334   4.847   0.550
19690SOL    HW260968   5.406   4.923   0.441
19691SOL     OW60969   9.654  11.938  10.056
19691SOL    HW160970   9.606  11.926   9.974
19691SOL    HW260971   9.677  11.850  10.084
19692SOL     OW60972   6.962   5.649   3.454
19692SOL    HW160973   6.870   5.651   3.480
19692SOL    HW260974   6.985   5.556   3.452
19693SOL     OW60975   2.735   3.649   0.204
19693SOL    HW160976   2.810   3.638   0.146
19693SOL    HW260977   2.700   3.736   0.182
19694SOL     OW60978  13.837   2.103   0.370
19694SOL    HW160979  13.869   2.065   0.452
19694SOL    HW260980  13.835   2.030   0.308
19695SOL     OW60981   7.030  13.898   1.322
19695SOL    HW160982   6.952  13.861   1.279
19695SOL    HW260983   7.057  13.970   1.265
19696SOL     OW60984   1.866   8.719   5.064
19696SOL    HW160985   1.914   8.670   4.997
19696SOL    HW260986   1.928   8.727   5.137
19697SOL     OW60987   7.558  13.174  13.826
19697SOL    HW160988   7.617  13.142  13.758
19697SOL    HW260989   7.496  13.103  13.840
19698SOL     OW60990   4.724   5.940  10.066
19698SOL    HW160991   4.748   5.990  10.144
19698SOL    HW260992   4.785   5.866  10.065
19699SOL     OW60993   5.042   0.060  12.086
19699SOL    HW160994   5.123   0.015  12.110
19699SOL    HW260995   4.989   0.060  12.165
19700SOL     OW60996   0.175   5.772   0.005
19700SOL    HW160997   0.092   5.819   0.013
19700SOL    HW260998   0.177   5.714   0.081
19701SOL     OW60999   6.907   3.499  11.845
19701SOL    HW161000   6.981   3.555  11.820
19701SOL    HW261001   6.858   3.485  11.764
19702SOL     OW61002  14.536  12.281   9.072
19702SOL    HW161003  14.525  12.189   9.093
19702SOL    HW261004  14.594  12.315   9.140
19703SOL     OW61005  12.679  12.276  12.568
19703SOL    HW161006  12.744  12.345  12.550
19703SOL    HW261007  12.637  12.304  12.649
19704SOL     OW61008  11.362   0.301   0.634
19704SOL    HW161009  11.443   0.277   0.589
19704SOL    HW261010  11.307   0.224   0.626
19705SOL     OW61011   7.993   4.022   2.783
19705SOL    HW161012   8.000   4.043   2.876
19705SOL    HW261013   7.900   4.029   2.763
19706SOL     OW61014   9.511   6.348   0.747
19706SOL    HW161015   9.462   6.291   0.688
19706SOL    HW261016   9.446   6.411   0.779
19707SOL     OW61017  10.868  12.465   3.031
19707SOL    HW161018  10.872  12.407   2.955
19707SOL    HW261019  10.849  12.551   2.994
19708SOL     OW61020   6.946   7.294   5.445
19708SOL    HW161021   6.977   7.288   5.355
19708SOL    HW261022   6.974   7.380   5.475
19709SOL     OW61023   4.823   6.166  12.523
19709SOL    HW161024   4.906   6.161  12.570
19709SOL    HW261025   4.840   6.227  12.451
19710SOL     OW61026   3.642  14.390   1.995
19710SOL    HW161027   3.707  14.451   2.030
19710SOL    HW261028   3.694  14.323   1.951
19711SOL     OW61029  10.558   5.896  12.259
19711SOL    HW161030  10.502   5.971  12.237
19711SOL    HW261031  10.592   5.916  12.346
19712SOL     OW61032   2.189  11.366   4.266
19712SOL    HW161033   2.109  11.320   4.241
19712SOL    HW261034   2.235  11.381   4.184
19713SOL     OW61035   3.030   4.985  14.851
19713SOL    HW161036   2.941   4.959  14.830
19713SOL    HW261037   3.076   4.987  14.767
19714SOL     OW61038   0.238   9.784   4.467
19714SOL    HW161039   0.299   9.743   4.528
19714SOL    HW261040   0.226   9.873   4.501
19715SOL     OW61041   5.993   0.166   8.276
19715SOL    HW161042   5.995   0.213   8.193
19715SOL    HW261043   5.900   0.157   8.297
19716SOL     OW61044   5.461   3.167  11.774
19716SOL    HW161045   5.406   3.154  11.696
19716SOL    HW261046   5.550   3.175  11.740
19717SOL     OW61047   9.059  14.471   1.475
19717SOL    HW161048   9.143  14.517   1.474
19717SOL    HW261049   8.994  14.541   1.484
19718SOL     OW61050   4.811   6.934   8.194
19718SOL    HW161051   4.730   6.947   8.145
19718SOL    HW261052   4.783   6.902   8.280
19719SOL     OW61053  11.508   6.668  11.038
19719SOL    HW161054  11.515   6.620  11.121
19719SOL    HW261055  11.424   6.640  11.001
19720SOL     OW61056   2.902  12.834  10.136
19720SOL    HW161057   2.894  12.928  10.154
19720SOL    HW261058   2.873  12.792  10.217
19721SOL     OW61059   6.326   5.802   7.616
19721SOL    HW161060   6.419   5.800   7.593
19721SOL    HW261061   6.301   5.709   7.621
19722SOL     OW61062  10.034  12.869   8.968
19722SOL    HW161063  10.030  12.849   8.874
19722SOL    HW261064   9.942  12.878   8.994
19723SOL     OW61065   4.671   9.195   0.334
19723SOL    HW161066   4.752   9.221   0.376
19723SOL    HW261067   4.607   9.260   0.363
19724SOL     OW61068   3.529   4.956  10.779
19724SOL    HW161069   3.622   4.945  10.758
19724SOL    HW261070   3.490   4.871  10.757
19725SOL     OW61071   8.689   1.278   4.864
19725SOL    HW161072   8.659   1.272   4.773
19725SOL    HW261073   8.782   1.297   4.856
19726SOL     OW61074   3.991  12.469  14.193
19726SOL    HW161075   3.933  12.473  14.117
19726SOL    HW261076   4.009  12.375  14.204
19727SOL     OW61077   8.722   2.109   9.329
19727SOL    HW161078   8.707   2.067   9.414
19727SOL    HW261079   8.790   2.056   9.288
19728SOL     OW61080  11.306   6.297   8.043
19728SOL    HW161081  11.252   6.230   8.001
19728SOL    HW261082  11.378   6.311   7.982
19729SOL     OW61083   7.194   4.735   1.761
19729SOL    HW161084   7.282   4.719   1.794
19729SOL    HW261085   7.205   4.744   1.667
19730SOL     OW61086   8.045   2.282   7.749
19730SOL    HW161087   8.019   2.212   7.809
19730SOL    HW261088   7.985   2.274   7.675
19731SOL     OW61089   4.252   8.999  10.172
19731SOL    HW161090   4.290   8.911  10.180
19731SOL    HW261091   4.282   9.045  10.251
19732SOL     OW61092   3.230  12.296   5.450
19732SOL    HW161093   3.168  12.266   5.383
19732SOL    HW261094   3.304  12.235   5.443
19733SOL     OW61095  14.594   4.530   9.690
19733SOL    HW161096  14.558   4.455   9.642
19733SOL    HW261097  14.549   4.528   9.774
19734SOL     OW61098  14.079   3.137  10.633
19734SOL    HW161099  13.992   3.106  10.658
19734SOL    HW261100  14.112   3.071  10.571
19735SOL     OW61101   3.452  13.792   7.005
19735SOL    HW161102   3.491  13.721   7.056
19735SOL    HW261103   3.518  13.813   6.939
19736SOL     OW61104   9.377  12.728   5.623
19736SOL    HW161105   9.385  12.727   5.528
19736SOL    HW261106   9.301  12.672   5.641
19737SOL     OW61107  11.802   7.961   8.532
19737SOL    HW161108  11.750   7.993   8.458
19737SOL    HW261109  11.765   7.875   8.551
19738SOL     OW61110  10.613  14.480  13.072
19738SOL    HW161111  10.576  14.501  13.157
19738SOL    HW261112  10.708  14.490  13.084
19739SOL     OW61113  14.039  10.677  12.506
19739SOL    HW161114  13.952  10.698  12.471
19739SOL    HW261115  14.025  10.599  12.559
19740SOL     OW61116  11.854  14.241   6.680
19740SOL    HW161117  11.931  14.204   6.636
19740SOL    HW261118  11.839  14.184   6.755
19741SOL     OW61119   6.819   3.148  13.007
19741SOL    HW161120   6.881   3.075  13.018
19741SOL    HW261121   6.863   3.208  12.948
19742SOL     OW61122   1.999   0.024  11.980
19742SOL    HW161123   1.943  14.825  11.967
19742SOL    HW261124   2.062   0.021  11.907
19743SOL     OW61125   0.821   6.922   9.762
19743SOL    HW161126   0.871   6.993   9.721
19743SOL    HW261127   0.856   6.842   9.722
19744SOL     OW61128  11.614   4.012   8.610
19744SOL    HW161129  11.554   4.054   8.672
19744SOL    HW261130  11.701   4.036   8.641
19745SOL     OW61131   7.454  11.575   4.135
19745SOL    HW161132   7.378  11.548   4.186
19745SOL    HW261133   7.427  11.656   4.092
19746SOL     OW61134   2.434   4.596   3.232
19746SOL    HW161135   2.440   4.664   3.299
19746SOL    HW261136   2.368   4.628   3.171
19747SOL     OW61137   0.937   9.333   5.640
19747SOL    HW161138   0.951   9.398   5.571
19747SOL    HW261139   0.930   9.250   5.593
19748SOL     OW61140  10.238   2.044  13.033
19748SOL    HW161141  10.169   2.016  13.094
19748SOL    HW261142  10.310   1.983  13.050
19749SOL     OW61143  10.265  10.209   5.974
19749SOL    HW161144  10.214  10.213   5.893
19749SOL    HW261145  10.250  10.294   6.015
19750SOL     OW61146   7.806  10.377   2.627
19750SOL    HW161147   7.736  10.423   2.674
19750SOL    HW261148   7.841  10.441   2.566
19751SOL     OW61149   3.114  12.062  14.137
19751SOL    HW161150   3.097  11.986  14.194
19751SOL    HW261151   3.101  12.028  14.049
19752SOL     OW61152  11.711   0.515  13.576
19752SOL    HW161153  11.705   0.438  13.632
19752SOL    HW261154  11.723   0.588  13.636
19753SOL     OW61155  10.203   1.129   4.582
19753SOL    HW161156  10.125   1.128   4.637
19753SOL    HW261157  10.171   1.101   4.496
19754SOL     OW61158  14.524  14.862  10.370
19754SOL    HW161159  14.467  14.804  10.420
19754SOL    HW261160  14.467   0.054  10.340
19755SOL     OW61161   7.668   1.841  10.911
19755SOL    HW161162   7.594   1.822  10.969
19755SOL    HW261163   7.724   1.764  10.917
19756SOL     OW61164   4.084  12.737  14.533
19756SOL    HW161165   4.131  12.731  14.450
19756SOL    HW261166   4.134  12.802  14.584
19757SOL     OW61167   1.974   7.420  11.034
19757SOL    HW161168   1.998   7.509  11.008
19757SOL    HW261169   1.886   7.428  11.071
19758SOL     OW61170  14.489   5.039  10.130
19758SOL    HW161171  14.460   5.116  10.080
19758SOL    HW261172  14.459   4.965  10.078
19759SOL     OW61173  12.154   0.899   7.416
19759SOL    HW161174  12.204   0.976   7.387
19759SOL    HW261175  12.161   0.901   7.511
19760SOL     OW61176  13.883   7.172   5.847
19760SOL    HW161177  13.826   7.147   5.920
19760SOL    HW261178  13.945   7.234   5.886
19761SOL     OW61179   7.026  12.403   3.107
19761SOL    HW161180   6.948  12.456   3.125
19761SOL    HW261181   7.053  12.371   3.193
19762SOL     OW61182   3.424  11.764  11.853
19762SOL    HW161183   3.421  11.847  11.806
19762SOL    HW261184   3.517  11.744  11.861
19763SOL     OW61185  12.101   3.052  14.297
19763SOL    HW161186  12.111   3.022  14.388
19763SOL    HW261187  12.182   3.025  14.254
19764SOL     OW61188   1.999  12.407   4.748
19764SOL    HW161189   2.052  12.479   4.712
19764SOL    HW261190   2.061  12.355   4.799
19765SOL     OW61191   2.259   7.702   3.249
19765SOL    HW161192   2.233   7.666   3.164
19765SOL    HW261193   2.250   7.797   3.237
19766SOL     OW61194  13.089  10.475   6.970
19766SOL    HW161195  13.113  10.540   7.037
19766SOL    HW261196  13.154  10.488   6.900
19767SOL     OW61197   0.496   3.868   0.571
19767SOL    HW161198   0.537   3.949   0.603
19767SOL    HW261199   0.502   3.809   0.646
19768SOL     OW61200   3.776   6.818   7.034
19768SOL    HW161201   3.794   6.786   7.123
19768SOL    HW261202   3.819   6.903   7.030
19769SOL     OW61203   1.058   3.966  14.707
19769SOL    HW161204   1.152   3.979  14.718
19769SOL    HW261205   1.030   3.926  14.790
19770SOL     OW61206   0.209   0.919  14.113
19770SOL    HW161207   0.291   0.898  14.069
19770SOL    HW261208   0.150   0.848  14.089
19771SOL     OW61209   5.661  10.625  10.377
19771SOL    HW161210   5.654  10.531  10.361
19771SOL    HW261211   5.741  10.652  10.332
19772SOL     OW61212   6.475   1.925  11.713
19772SOL    HW161213   6.496   1.987  11.643
19772SOL    HW261214   6.435   1.851  11.668
19773SOL     OW61215   6.698   8.414  11.731
19773SOL    HW161216   6.736   8.463  11.658
19773SOL    HW261217   6.739   8.452  11.809
19774SOL     OW61218   1.354  14.076   5.136
19774SOL    HW161219   1.324  14.157   5.177
19774SOL    HW261220   1.402  14.105   5.058
19775SOL     OW61221   9.310   9.595   8.248
19775SOL    HW161222   9.228   9.554   8.221
19775SOL    HW261223   9.329   9.558   8.334
19776SOL     OW61224   6.956  13.082   9.747
19776SOL    HW161225   6.935  12.991   9.770
19776SOL    HW261226   6.885  13.133   9.785
19777SOL     OW61227  14.328   5.736   1.897
19777SOL    HW161228  14.390   5.703   1.832
19777SOL    HW261229  14.367   5.712   1.981
19778SOL     OW61230   5.447   8.186  10.248
19778SOL    HW161231   5.469   8.236  10.327
19778SOL    HW261232   5.420   8.101  10.281
19779SOL     OW61233   3.701   4.116   9.502
19779SOL    HW161234   3.683   4.120   9.409
19779SOL    HW261235   3.773   4.178   9.516
19780SOL     OW61236   6.769   4.753  13.978
19780SOL    HW161237   6.845   4.721  13.929
19780SOL    HW261238   6.729   4.675  14.014
19781SOL     OW61239   1.918   1.643  13.719
19781SOL    HW161240   1.892   1.606  13.803
19781SOL    HW261241   2.013   1.631  13.715
19782SOL     OW61242   3.537   3.893  10.996
19782SOL    HW161243   3.509   3.982  10.974
19782SOL    HW261244   3.458   3.852  11.032
19783SOL     OW61245  11.450   9.461   4.366
19783SOL    HW161246  11.472   9.444   4.457
19783SOL    HW261247  11.407   9.381   4.336
19784SOL     OW61248   2.494   7.126   5.300
19784SOL    HW161249   2.575   7.178   5.294
19784SOL    HW261250   2.456   7.152   5.384
19785SOL     OW61251  14.736  11.696   9.857
19785SOL    HW161252  14.768  11.721   9.771
19785SOL    HW261253  14.816  11.684   9.909
19786SOL     OW61254   5.084  13.438   6.977
19786SOL    HW161255   5.017  13.411   6.915
19786SOL    HW261256   5.062  13.390   7.058
19787SOL     OW61257   6.811  12.204   5.233
19787SOL    HW161258   6.897  12.193   5.192
19787SOL    HW261259   6.750  12.206   5.160
19788SOL     OW61260  12.054   7.932  12.391
19788SOL    HW161261  12.005   7.944  12.472
19788SOL    HW261262  12.033   8.009  12.338
19789SOL     OW61263   0.790   2.924   5.925
19789SOL    HW161264   0.832   2.849   5.966
19789SOL    HW261265   0.861   2.971   5.881
19790SOL     OW61266   5.364  10.551   9.527
19790SOL    HW161267   5.417  10.539   9.448
19790SOL    HW261268   5.323  10.637   9.516
19791SOL     OW61269   8.253  12.643  11.685
19791SOL    HW161270   8.209  12.581  11.744
19791SOL    HW261271   8.297  12.587  11.621
19792SOL     OW61272   2.179  11.130   1.794
19792SOL    HW161273   2.163  11.037   1.775
19792SOL    HW261274   2.137  11.177   1.722
19793SOL     OW61275  14.611   4.422   3.057
19793SOL    HW161276  14.662   4.354   3.101
19793SOL    HW261277  14.521   4.389   3.057
19794SOL     OW61278   0.486   8.945  13.702
19794SOL    HW161279   0.522   9.032  13.718
19794SOL    HW261280   0.548   8.885  13.742
19795SOL     OW61281   1.239  14.611  12.151
19795SOL    HW161282   1.155  14.591  12.192
19795SOL    HW261283   1.216  14.639  12.063
19796SOL     OW61284   0.688   9.470   0.756
19796SOL    HW161285   0.651   9.555   0.735
19796SOL    HW261286   0.749   9.487   0.828
19797SOL     OW61287  11.300  14.334  14.335
19797SOL    HW161288  11.294  14.336  14.239
19797SOL    HW261289  11.394  14.340  14.353
19798SOL     OW61290   8.716   2.669   5.949
19798SOL    HW161291   8.729   2.740   6.012
19798SOL    HW261292   8.757   2.593   5.990
19799SOL     OW61293   8.890   0.404  11.879
19799SOL    HW161294   8.902   0.484  11.827
19799SOL    HW261295   8.815   0.423  11.935
19800SOL     OW61296   1.827   1.584  14.343
19800SOL    HW161297   1.890   1.608  14.411
19800SOL    HW261298   1.881   1.565  14.266
19801SOL     OW61299  14.684  11.707   0.209
19801SOL    HW161300  14.731  11.680   0.129
19801SOL    HW261301  14.739  11.777   0.246
19802SOL     OW61302  10.459   1.111   8.803
19802SOL    HW161303  10.542   1.082   8.767
19802SOL    HW261304  10.420   1.031   8.840
19803SOL     OW61305  10.711  12.868  13.989
19803SOL    HW161306  10.634  12.828  14.030
19803SOL    HW261307  10.720  12.821  13.905
19804SOL     OW61308   4.727   5.756   3.475
19804SOL    HW161309   4.746   5.843   3.509
19804SOL    HW261310   4.754   5.760   3.383
19805SOL     OW61311   4.616  13.239   0.082
19805SOL    HW161312   4.660  13.278   0.007
19805SOL    HW261313   4.630  13.302   0.153
19806SOL     OW61314   8.337   2.599   5.327
19806SOL    HW161315   8.358   2.677   5.275
19806SOL    HW261316   8.241   2.595   5.326
19807SOL     OW61317  12.560  14.135   5.552
19807SOL    HW161318  12.478  14.102   5.590
19807SOL    HW261319  12.590  14.063   5.496
19808SOL     OW61320  12.726   6.271   1.231
19808SOL    HW161321  12.813   6.305   1.206
19808SOL    HW261322  12.686   6.247   1.148
19809SOL     OW61323   5.525  12.439   1.020
19809SOL    HW161324   5.509  12.362   1.075
19809SOL    HW261325   5.565  12.503   1.079
19810SOL     OW61326  12.618   5.552   6.307
19810SOL    HW161327  12.669   5.483   6.265
19810SOL    HW261328  12.586   5.512   6.388
19811SOL     OW61329   5.565   9.370   4.413
19811SOL    HW161330   5.588   9.353   4.504
19811SOL    HW261331   5.483   9.419   4.417
19812SOL     OW61332  10.629   0.169   7.154
19812SOL    HW161333  10.709   0.202   7.114
19812SOL    HW261334  10.559   0.217   7.111
19813SOL     OW61335   6.057   4.673  14.502
19813SOL    HW161336   6.052   4.689  14.408
19813SOL    HW261337   5.970   4.642  14.526
19814SOL     OW61338   4.939  12.520   4.358
19814SOL    HW161339   5.007  12.560   4.413
19814SOL    HW261340   4.987  12.488   4.282
19815SOL     OW61341   1.082   3.542  13.233
19815SOL    HW161342   1.080   3.446  13.234
19815SOL    HW261343   1.085   3.565  13.140
19816SOL     OW61344   9.488  12.879   7.737
19816SOL    HW161345   9.542  12.955   7.760
19816SOL    HW261346   9.538  12.804   7.769
19817SOL     OW61347  12.713   2.197   4.461
19817SOL    HW161348  12.762   2.262   4.512
19817SOL    HW261349  12.772   2.123   4.452
19818SOL     OW61350   8.298   4.236  12.231
19818SOL    HW161351   8.359   4.196  12.168
19818SOL    HW261352   8.339   4.219  12.317
19819SOL     OW61353  14.028   4.252   5.522
19819SOL    HW161354  14.058   4.309   5.593
19819SOL    HW261355  13.999   4.172   5.567
19820SOL     OW61356   0.858   4.333  14.765
19820SOL    HW161357   0.849   4.288  14.849
19820SOL    HW261358   0.888   4.266  14.705
19821SOL     OW61359   0.580   2.104   9.327
19821SOL    HW161360   0.612   2.139   9.244
19821SOL    HW261361   0.496   2.148   9.340
19822SOL     OW61362   5.340   0.473   0.067
19822SOL    HW161363   5.284   0.419   0.123
19822SOL    HW261364   5.427   0.435   0.076
19823SOL     OW61365   7.941  14.713   6.579
19823SOL    HW161366   7.860  14.664   6.566
19823SOL    HW261367   7.979  14.721   6.491
19824SOL     OW61368   3.921   8.858   0.642
19824SOL    HW161369   3.929   8.805   0.563
19824SOL    HW261370   3.862   8.930   0.616
19825SOL     OW61371   2.440   2.841   5.129
19825SOL    HW161372   2.517   2.893   5.152
19825SOL    HW261373   2.369   2.905   5.120
19826SOL     OW61374   2.570  11.153   0.755
19826SOL    HW161375   2.605  11.204   0.682
19826SOL    HW261376   2.582  11.209   0.832
19827SOL     OW61377   9.994  13.959   6.881
19827SOL    HW161378  10.019  14.012   6.805
19827SOL    HW261379  10.032  13.873   6.864
19828SOL     OW61380   0.364   0.135   9.912
19828SOL    HW161381   0.340   0.148  10.004
19828SOL    HW261382   0.459   0.132   9.912
19829SOL     OW61383  10.920  10.139  13.550
19829SOL    HW161384  10.830  10.171  13.551
19829SOL    HW261385  10.926  10.085  13.471
19830SOL     OW61386   6.762  13.308   8.662
19830SOL    HW161387   6.856  13.326   8.662
19830SOL    HW261388   6.746  13.263   8.579
19831SOL     OW61389  10.130   4.498   1.285
19831SOL    HW161390  10.182   4.543   1.219
19831SOL    HW261391  10.194   4.474   1.353
19832SOL     OW61392   7.887   6.826   7.901
19832SOL    HW161393   7.831   6.764   7.854
19832SOL    HW261394   7.873   6.807   7.993
19833SOL     OW61395   8.102   5.088   9.149
19833SOL    HW161396   8.056   5.157   9.197
19833SOL    HW261397   8.140   5.133   9.073
19834SOL     OW61398   6.591   4.942   4.972
19834SOL    HW161399   6.510   4.987   4.995
19834SOL    HW261400   6.661   5.000   5.001
19835SOL     OW61401   6.083  11.908   4.156
19835SOL    HW161402   6.157  11.937   4.103
19835SOL    HW261403   6.099  11.814   4.170
19836SOL     OW61404  13.803   7.169  11.512
19836SOL    HW161405  13.869   7.126  11.458
19836SOL    HW261406  13.837   7.257  11.526
19837SOL     OW61407  14.249  10.484   4.442
19837SOL    HW161408  14.281  10.499   4.531
19837SOL    HW261409  14.299  10.408   4.412
19838SOL     OW61410  11.106   5.474   7.820
19838SOL    HW161411  11.089   5.551   7.873
19838SOL    HW261412  11.028   5.465   7.764
19839SOL     OW61413   7.080   0.977   7.814
19839SOL    HW161414   7.126   0.976   7.897
19839SOL    HW261415   6.988   0.985   7.837
19840SOL     OW61416   1.652   3.394   9.295
19840SOL    HW161417   1.579   3.434   9.343
19840SOL    HW261418   1.678   3.319   9.349
19841SOL     OW61419  12.320   9.493   2.155
19841SOL    HW161420  12.349   9.526   2.070
19841SOL    HW261421  12.377   9.537   2.218
19842SOL     OW61422   4.457  11.909   6.113
19842SOL    HW161423   4.550  11.922   6.132
19842SOL    HW261424   4.411  11.951   6.186
19843SOL     OW61425   6.256   2.513   9.735
19843SOL    HW161426   6.334   2.507   9.790
19843SOL    HW261427   6.274   2.454   9.662
19844SOL     OW61428   8.734   9.283  13.176
19844SOL    HW161429   8.664   9.262  13.115
19844SOL    HW261430   8.807   9.227  13.149
19845SOL     OW61431   8.742   5.059   9.803
19845SOL    HW161432   8.686   5.041   9.878
19845SOL    HW261433   8.681   5.064   9.729
19846SOL     OW61434  11.291  13.403  13.222
19846SOL    HW161435  11.226  13.389  13.291
19846SOL    HW261436  11.345  13.475  13.255
19847SOL     OW61437  12.399   0.747   8.547
19847SOL    HW161438  12.356   0.825   8.514
19847SOL    HW261439  12.464   0.780   8.609
19848SOL     OW61440   4.762  13.933   5.088
19848SOL    HW161441   4.814  13.981   5.023
19848SOL    HW261442   4.740  13.850   5.045
19849SOL     OW61443   9.577   5.839   1.892
19849SOL    HW161444   9.517   5.867   1.960
19849SOL    HW261445   9.658   5.888   1.910
19850SOL     OW61446   0.031  10.120   4.999
19850SOL    HW161447  14.820  10.085   5.011
19850SOL    HW261448   0.049  10.167   5.080
19851SOL     OW61449   4.162   8.988  10.854
19851SOL    HW161450   4.231   8.927  10.882
19851SOL    HW261451   4.188   9.014  10.766
19852SOL     OW61452  14.023  14.449   4.675
19852SOL    HW161453  14.104  14.429   4.721
19852SOL    HW261454  13.987  14.364   4.652
19853SOL     OW61455   2.697   4.753   3.748
19853SOL    HW161456   2.639   4.788   3.815
19853SOL    HW261457   2.666   4.664   3.733
19854SOL     OW61458   3.707  12.559   6.492
19854SOL    HW161459   3.797  12.530   6.508
19854SOL    HW261460   3.680  12.600   6.573
19855SOL     OW61461   3.122   9.116   4.547
19855SOL    HW161462   3.080   9.031   4.559
19855SOL    HW261463   3.211   9.104   4.577
19856SOL     OW61464   1.125   6.879   1.354
19856SOL    HW161465   1.042   6.865   1.398
19856SOL    HW261466   1.184   6.816   1.394
19857SOL     OW61467  10.741  10.621   5.413
19857SOL    HW161468  10.752  10.689   5.347
19857SOL    HW261469  10.689  10.662   5.482
19858SOL     OW61470   4.380   1.245  12.146
19858SOL    HW161471   4.294   1.286  12.139
19858SOL    HW261472   4.427   1.297  12.211
19859SOL     OW61473   7.535   9.367   7.463
19859SOL    HW161474   7.453   9.412   7.486
19859SOL    HW261475   7.552   9.310   7.538
19860SOL     OW61476   5.306  10.258   7.042
19860SOL    HW161477   5.216  10.277   7.014
19860SOL    HW261478   5.361  10.304   6.978
19861SOL     OW61479  11.671   1.833   4.406
19861SOL    HW161480  11.581   1.823   4.374
19861SOL    HW261481  11.683   1.761   4.467
19862SOL     OW61482   2.830  12.159  14.121
19862SOL    HW161483   2.895  12.223  14.091
19862SOL    HW261484   2.846  12.151  14.215
19863SOL     OW61485   6.228   3.021   4.603
19863SOL    HW161486   6.265   2.934   4.586
19863SOL    HW261487   6.281   3.056   4.674
19864SOL     OW61488   8.445  13.086   5.520
19864SOL    HW161489   8.488  13.043   5.446
19864SOL    HW261490   8.365  13.123   5.482
19865SOL     OW61491   9.664   6.848   9.517
19865SOL    HW161492   9.728   6.776   9.525
19865SOL    HW261493   9.682   6.885   9.430
19866SOL     OW61494   7.491   6.024   5.076
19866SOL    HW161495   7.585   6.040   5.068
19866SOL    HW261496   7.481   5.983   5.162
19867SOL     OW61497  12.056   4.139  12.279
19867SOL    HW161498  12.108   4.091  12.344
19867SOL    HW261499  11.970   4.151  12.321
19868SOL     OW61500  10.630  10.844   6.293
19868SOL    HW161501  10.681  10.863   6.372
19868SOL    HW261502  10.680  10.777   6.247
19869SOL     OW61503   3.102   8.831   4.629
19869SOL    HW161504   3.165   8.763   4.607
19869SOL    HW261505   3.106   8.837   4.725
19870SOL     OW61506   2.349  10.848  10.730
19870SOL    HW161507   2.384  10.829  10.643
19870SOL    HW261508   2.330  10.762  10.767
19871SOL     OW61509   0.827   4.328   3.363
19871SOL    HW161510   0.809   4.406   3.310
19871SOL    HW261511   0.758   4.266   3.340
19872SOL     OW61512   4.375   9.679  13.624
19872SOL    HW161513   4.367   9.665  13.718
19872SOL    HW261514   4.366   9.774  13.613
19873SOL     OW61515   8.976   3.144   4.828
19873SOL    HW161516   8.957   3.116   4.918
19873SOL    HW261517   8.907   3.208   4.807
19874SOL     OW61518  13.137   0.272   3.606
19874SOL    HW161519  13.143   0.347   3.546
19874SOL    HW261520  13.228   0.256   3.633
19875SOL     OW61521   3.163   6.207   9.719
19875SOL    HW161522   3.183   6.138   9.657
19875SOL    HW261523   3.192   6.288   9.675
19876SOL     OW61524   0.547   8.105   9.103
19876SOL    HW161525   0.476   8.048   9.132
19876SOL    HW261526   0.533   8.114   9.009
19877SOL     OW61527   8.545   8.404   5.566
19877SOL    HW161528   8.639   8.397   5.547
19877SOL    HW261529   8.507   8.323   5.532
19878SOL     OW61530  14.511   3.746   7.696
19878SOL    HW161531  14.492   3.817   7.756
19878SOL    HW261532  14.605   3.728   7.708
19879SOL     OW61533   7.599   8.358   8.285
19879SOL    HW161534   7.560   8.313   8.360
19879SOL    HW261535   7.683   8.390   8.318
19880SOL     OW61536   0.452  12.466   0.155
19880SOL    HW161537   0.361  12.438   0.168
19880SOL    HW261538   0.504  12.397   0.196
19881SOL     OW61539   5.438   2.450   2.338
19881SOL    HW161540   5.357   2.400   2.333
19881SOL    HW261541   5.410   2.539   2.363
19882SOL     OW61542   4.387   1.405   5.992
19882SOL    HW161543   4.325   1.477   5.998
19882SOL    HW261544   4.377   1.357   6.075
19883SOL     OW61545   2.819   1.570   8.662
19883SOL    HW161546   2.814   1.563   8.757
19883SOL    HW261547   2.813   1.664   8.644
19884SOL     OW61548   7.777   2.957  13.193
19884SOL    HW161549   7.852   2.907  13.161
19884SOL    HW261550   7.816   3.032  13.238
19885SOL     OW61551   5.586   1.675  14.607
19885SOL    HW161552   5.539   1.603  14.565
19885SOL    HW261553   5.672   1.638  14.629
19886SOL     OW61554   6.494   4.208  10.036
19886SOL    HW161555   6.507   4.284  10.092
19886SOL    HW261556   6.565   4.212   9.973
19887SOL     OW61557   0.671  10.514  11.769
19887SOL    HW161558   0.616  10.559  11.704
19887SOL    HW261559   0.743  10.477  11.718
19888SOL     OW61560   4.886  11.386   4.129
19888SOL    HW161561   4.933  11.315   4.173
19888SOL    HW261562   4.835  11.429   4.198
19889SOL     OW61563  13.075   3.566   3.200
19889SOL    HW161564  13.026   3.485   3.218
19889SOL    HW261565  13.012   3.622   3.155
19890SOL     OW61566   7.572   8.851   9.084
19890SOL    HW161567   7.505   8.918   9.098
19890SOL    HW261568   7.635   8.865   9.155
19891SOL     OW61569   9.277  11.699  12.852
19891SOL    HW161570   9.197  11.738  12.816
19891SOL    HW261571   9.266  11.704  12.947
19892SOL     OW61572  13.236   4.855  14.022
19892SOL    HW161573  13.281   4.855  14.106
19892SOL    HW261574  13.197   4.943  14.016
19893SOL     OW61575  11.981  12.457   6.585
19893SOL    HW161576  12.072  12.488   6.584
19893SOL    HW261577  11.957  12.458   6.678
19894SOL     OW61578   9.472   2.790   8.841
19894SOL    HW161579   9.433   2.798   8.754
19894SOL    HW261580   9.397   2.796   8.901
19895SOL     OW61581  14.042  10.640  13.382
19895SOL    HW161582  14.042  10.566  13.321
19895SOL    HW261583  13.972  10.619  13.445
19896SOL     OW61584  11.603   9.920   1.931
19896SOL    HW161585  11.610   9.831   1.895
19896SOL    HW261586  11.524   9.956   1.890
19897SOL     OW61587   6.110  12.182   6.485
19897SOL    HW161588   6.081  12.124   6.556
19897SOL    HW261589   6.132  12.264   6.528
19898SOL     OW61590  11.470   9.124   1.083
19898SOL    HW161591  11.521   9.152   1.160
19898SOL    HW261592  11.494   9.187   1.015
19899SOL     OW61593   5.946   0.824   7.386
19899SOL    HW161594   6.039   0.817   7.362
19899SOL    HW261595   5.942   0.796   7.477
19900SOL     OW61596  14.454  14.710   4.989
19900SOL    HW161597  14.390  14.641   5.006
19900SOL    HW261598  14.536  14.676   5.025
19901SOL     OW61599   2.917   3.036   0.904
19901SOL    HW161600   2.853   3.090   0.950
19901SOL    HW261601   2.958   3.095   0.840
19902SOL     OW61602   9.812   3.825   7.760
19902SOL    HW161603   9.777   3.756   7.704
19902SOL    HW261604   9.738   3.852   7.815
19903SOL     OW61605   9.731   0.989   6.704
19903SOL    HW161606   9.825   1.007   6.709
19903SOL    HW261607   9.724   0.910   6.652
19904SOL     OW61608  11.476   9.678  10.740
19904SOL    HW161609  11.490   9.770  10.761
19904SOL    HW261610  11.555   9.633  10.770
19905SOL     OW61611  11.093   2.198  13.629
19905SOL    HW161612  11.064   2.110  13.654
19905SOL    HW261613  11.012   2.247  13.616
19906SOL     OW61614   8.724   0.171   6.268
19906SOL    HW161615   8.665   0.106   6.231
19906SOL    HW261616   8.735   0.236   6.199
19907SOL     OW61617  13.244   2.599  10.540
19907SOL    HW161618  13.163   2.622  10.585
19907SOL    HW261619  13.265   2.511  10.572
19908SOL     OW61620  13.490   2.676  12.468
19908SOL    HW161621  13.476   2.768  12.444
19908SOL    HW261622  13.565   2.677  12.528
19909SOL     OW61623   1.243  13.823   3.660
19909SOL    HW161624   1.331  13.824   3.622
19909SOL    HW261625   1.194  13.763   3.603
19910SOL     OW61626   6.937   3.501   2.820
19910SOL    HW161627   6.940   3.417   2.866
19910SOL    HW261628   7.025   3.538   2.830
19911SOL     OW61629   9.162   1.982  14.594
19911SOL    HW161630   9.121   2.050  14.648
19911SOL    HW261631   9.151   1.901  14.645
19912SOL     OW61632   5.988   9.775   9.327
19912SOL    HW161633   5.965   9.831   9.400
19912SOL    HW261634   5.940   9.694   9.343
19913SOL     OW61635   3.321   7.351   3.085
19913SOL    HW161636   3.363   7.287   3.142
19913SOL    HW261637   3.266   7.403   3.144
19914SOL     OW61638   4.288  10.600  12.514
19914SOL    HW161639   4.269  10.668  12.450
19914SOL    HW261640   4.346  10.539  12.469
19915SOL     OW61641  12.175  10.200   2.982
19915SOL    HW161642  12.265  10.175   2.961
19915SOL    HW261643  12.176  10.212   3.077
19916SOL     OW61644   3.117   3.612   8.864
19916SOL    HW161645   3.180   3.683   8.873
19916SOL    HW261646   3.155   3.539   8.913
19917SOL     OW61647   6.894   1.294  14.450
19917SOL    HW161648   6.798   1.289  14.452
19917SOL    HW261649   6.913   1.360  14.384
19918SOL     OW61650   3.581   0.322  13.087
19918SOL    HW161651   3.632   0.243  13.107
19918SOL    HW261652   3.492   0.300  13.116
19919SOL     OW61653   4.368  10.486   5.365
19919SOL    HW161654   4.321  10.547   5.422
19919SOL    HW261655   4.371  10.531   5.280
19920SOL     OW61656   3.051  13.217  10.264
19920SOL    HW161657   2.972  13.168  10.240
19920SOL    HW261658   3.093  13.163  10.330
19921SOL     OW61659  14.005  11.283  11.828
19921SOL    HW161660  14.089  11.238  11.818
19921SOL    HW261661  13.945  11.215  11.861
19922SOL     OW61662   1.717  12.219   3.683
19922SOL    HW161663   1.770  12.168   3.744
19922SOL    HW261664   1.733  12.311   3.708
19923SOL     OW61665  11.956  11.555   2.304
19923SOL    HW161666  11.939  11.500   2.381
19923SOL    HW261667  11.892  11.626   2.311
19924SOL     OW61668   8.076   2.375   9.849
19924SOL    HW161669   8.091   2.339   9.761
19924SOL    HW261670   8.132   2.322   9.906
19925SOL     OW61671   8.774   5.388   7.218
19925SOL    HW161672   8.722   5.468   7.208
19925SOL    HW261673   8.782   5.377   7.312
19926SOL     OW61674   4.234   4.682   4.376
19926SOL    HW161675   4.183   4.659   4.298
19926SOL    HW261676   4.168   4.706   4.441
19927SOL     OW61677   1.598   0.604  13.759
19927SOL    HW161678   1.666   0.537  13.756
19927SOL    HW261679   1.529   0.566  13.813
19928SOL     OW61680   6.024   6.300   3.749
19928SOL    HW161681   5.985   6.349   3.822
19928SOL    HW261682   6.059   6.368   3.691
19929SOL     OW61683   7.836   7.102   1.880
19929SOL    HW161684   7.870   7.054   1.955
19929SOL    HW261685   7.745   7.074   1.873
19930SOL     OW61686  12.059   4.958   9.263
19930SOL    HW161687  12.094   4.877   9.299
19930SOL    HW261688  12.121   5.026   9.291
19931SOL     OW61689   0.255   8.375   4.563
19931SOL    HW161690   0.247   8.443   4.496
19931SOL    HW261691   0.329   8.403   4.618
19932SOL     OW61692  13.474  12.778   7.898
19932SOL    HW161693  13.430  12.862   7.889
19932SOL    HW261694  13.528  12.787   7.976
19933SOL     OW61695   7.532   9.138  11.983
19933SOL    HW161696   7.574   9.061  11.945
19933SOL    HW261697   7.471   9.102  12.047
19934SOL     OW61698   2.044  10.266   2.844
19934SOL    HW161699   1.992  10.325   2.789
19934SOL    HW261700   2.081  10.202   2.783
19935SOL     OW61701  10.000  14.032   2.819
19935SOL    HW161702  10.074  14.069   2.771
19935SOL    HW261703  10.036  14.009   2.905
19936SOL     OW61704   2.631   0.465   1.117
19936SOL    HW161705   2.709   0.420   1.151
19936SOL    HW261706   2.576   0.479   1.194
19937SOL     OW61707  13.587  12.458   3.809
19937SOL    HW161708  13.639  12.528   3.848
19937SOL    HW261709  13.609  12.460   3.716
19938SOL     OW61710   8.401   6.298  10.435
19938SOL    HW161711   8.478   6.241  10.434
19938SOL    HW261712   8.355   6.275  10.515
19939SOL     OW61713   4.982   5.809   2.512
19939SOL    HW161714   4.888   5.815   2.501
19939SOL    HW261715   4.996   5.728   2.560
19940SOL     OW61716   0.290  10.659  10.693
19940SOL    HW161717   0.252  10.736  10.734
19940SOL    HW261718   0.229  10.588  10.714
19941SOL     OW61719   9.990  12.527  13.749
19941SOL    HW161720   9.991  12.467  13.674
19941SOL    HW261721  10.082  12.544  13.768
19942SOL     OW61722   0.153   2.594   7.542
19942SOL    HW161723   0.233   2.553   7.509
19942SOL    HW261724   0.114   2.635   7.465
19943SOL     OW61725   5.104  11.777   2.968
19943SOL    HW161726   5.100  11.707   2.902
19943SOL    HW261727   5.128  11.855   2.917
19944SOL     OW61728   8.096   4.497   3.425
19944SOL    HW161729   8.139   4.427   3.376
19944SOL    HW261730   8.155   4.572   3.415
19945SOL     OW61731   0.588  10.405   4.292
19945SOL    HW161732   0.631  10.489   4.309
19945SOL    HW261733   0.603  10.354   4.372
19946SOL     OW61734  11.982  12.768   8.794
19946SOL    HW161735  12.070  12.804   8.799
19946SOL    HW261736  11.962  12.766   8.701
19947SOL     OW61737   9.012  14.010  12.240
19947SOL    HW161738   8.976  14.056  12.164
19947SOL    HW261739   9.041  14.079  12.299
19948SOL     OW61740   5.360  11.316   7.144
19948SOL    HW161741   5.285  11.370   7.118
19948SOL    HW261742   5.326  11.258   7.212
19949SOL     OW61743   7.528   1.888   5.150
19949SOL    HW161744   7.595   1.832   5.111
19949SOL    HW261745   7.561   1.907   5.238
19950SOL     OW61746  10.035   3.019  12.806
19950SOL    HW161747  10.109   3.048  12.753
19950SOL    HW261748   9.967   3.085  12.791
19951SOL     OW61749   1.689   8.674   9.391
19951SOL    HW161750   1.735   8.704   9.470
19951SOL    HW261751   1.752   8.619   9.345
19952SOL     OW61752   2.725   8.290   8.363
19952SOL    HW161753   2.731   8.229   8.290
19952SOL    HW261754   2.653   8.348   8.340
19953SOL     OW61755  11.298  12.153  10.689
19953SOL    HW161756  11.233  12.083  10.684
19953SOL    HW261757  11.247  12.233  10.674
19954SOL     OW61758   4.978   4.888  11.524
19954SOL    HW161759   4.923   4.961  11.552
19954SOL    HW261760   4.964   4.821  11.590
19955SOL     OW61761   8.494  13.920  12.900
19955SOL    HW161762   8.525  13.899  12.812
19955SOL    HW261763   8.551  13.991  12.929
19956SOL     OW61764   9.244   3.547   3.597
19956SOL    HW161765   9.227   3.600   3.675
19956SOL    HW261766   9.246   3.610   3.526
19957SOL     OW61767   0.754  12.258  11.225
19957SOL    HW161768   0.723  12.327  11.284
19957SOL    HW261769   0.699  12.268  11.147
19958SOL     OW61770   2.729   9.275   9.075
19958SOL    HW161771   2.812   9.234   9.051
19958SOL    HW261772   2.688   9.296   8.991
19959SOL     OW61773   8.955   3.777   2.295
19959SOL    HW161774   9.005   3.729   2.228
19959SOL    HW261775   8.930   3.710   2.359
19960SOL     OW61776   7.825  11.069  13.784
19960SOL    HW161777   7.822  10.975  13.802
19960SOL    HW261778   7.766  11.081  13.709
19961SOL     OW61779   8.490  12.626  10.434
19961SOL    HW161780   8.547  12.702  10.419
19961SOL    HW261781   8.502  12.571  10.357
19962SOL     OW61782  14.544   8.846  14.300
19962SOL    HW161783  14.480   8.847  14.372
19962SOL    HW261784  14.587   8.761  14.307
19963SOL     OW61785   3.082   8.050   2.258
19963SOL    HW161786   3.127   8.057   2.342
19963SOL    HW261787   3.124   7.976   2.214
19964SOL     OW61788   7.960  11.115  14.275
19964SOL    HW161789   7.909  11.195  14.266
19964SOL    HW261790   8.028  11.122  14.208
19965SOL     OW61791   5.792   6.314   5.141
19965SOL    HW161792   5.825   6.226   5.124
19965SOL    HW261793   5.716   6.323   5.084
19966SOL     OW61794   9.252  11.853   4.012
19966SOL    HW161795   9.256  11.767   3.970
19966SOL    HW261796   9.218  11.835   4.099
19967SOL     OW61797   0.621   2.147   8.080
19967SOL    HW161798   0.581   2.172   7.996
19967SOL    HW261799   0.547   2.146   8.141
19968SOL     OW61800   0.270  11.895  11.839
19968SOL    HW161801   0.337  11.948  11.883
19968SOL    HW261802   0.266  11.929  11.750
19969SOL     OW61803  14.312   3.372   1.791
19969SOL    HW161804  14.249   3.364   1.862
19969SOL    HW261805  14.303   3.462   1.760
19970SOL     OW61806  14.325   8.423   1.526
19970SOL    HW161807  14.367   8.339   1.507
19970SOL    HW261808  14.283   8.409   1.611
19971SOL     OW61809  10.038   1.407   0.278
19971SOL    HW161810   9.978   1.341   0.246
19971SOL    HW261811  10.079   1.443   0.200
19972SOL     OW61812  10.307   6.366  10.942
19972SOL    HW161813  10.288   6.342  11.033
19972SOL    HW261814  10.242   6.433  10.921
19973SOL     OW61815   9.477   8.313   8.644
19973SOL    HW161816   9.420   8.319   8.721
19973SOL    HW261817   9.566   8.315   8.680
19974SOL     OW61818   7.943   6.184   3.684
19974SOL    HW161819   7.979   6.133   3.757
19974SOL    HW261820   7.860   6.218   3.717
19975SOL     OW61821   4.157   9.488  10.793
19975SOL    HW161822   4.184   9.472  10.883
19975SOL    HW261823   4.098   9.563  10.799
19976SOL     OW61824   3.044   4.262  10.234
19976SOL    HW161825   3.077   4.210  10.308
19976SOL    HW261826   3.041   4.352  10.268
19977SOL     OW61827   6.736   1.995   4.753
19977SOL    HW161828   6.655   2.033   4.718
19977SOL    HW261829   6.714   1.968   4.842
19978SOL     OW61830  11.698   9.395   1.514
19978SOL    HW161831  11.755   9.428   1.583
19978SOL    HW261832  11.613   9.383   1.557
19979SOL     OW61833  10.198   0.679   1.769
19979SOL    HW161834  10.245   0.669   1.852
19979SOL    HW261835  10.134   0.608   1.769
19980SOL     OW61836  11.382   1.158  12.453
19980SOL    HW161837  11.375   1.064  12.468
19980SOL    HW261838  11.395   1.196  12.540
19981SOL     OW61839  11.061  10.785  12.551
19981SOL    HW161840  10.999  10.856  12.533
19981SOL    HW261841  11.076  10.791  12.645
19982SOL     OW61842  14.135  13.808  14.156
19982SOL    HW161843  14.076  13.799  14.081
19982SOL    HW261844  14.220  13.782  14.122
19983SOL     OW61845  14.666  10.078  12.447
19983SOL    HW161846  14.709   9.994  12.466
19983SOL    HW261847  14.627  10.065  12.360
19984SOL     OW61848   3.671  12.458   5.459
19984SOL    HW161849   3.594  12.491   5.412
19984SOL    HW261850   3.742  12.463   5.395
19985SOL     OW61851   4.235   9.923   4.380
19985SOL    HW161852   4.285   9.923   4.299
19985SOL    HW261853   4.299   9.906   4.449
19986SOL     OW61854   0.587   0.809   3.580
19986SOL    HW161855   0.606   0.721   3.547
19986SOL    HW261856   0.504   0.833   3.539
19987SOL     OW61857   6.764   3.932  13.827
19987SOL    HW161858   6.789   3.840  13.820
19987SOL    HW261859   6.726   3.953  13.741
19988SOL     OW61860   5.196  10.437   9.185
19988SOL    HW161861   5.268  10.387   9.223
19988SOL    HW261862   5.218  10.528   9.201
19989SOL     OW61863   9.403  13.498  12.480
19989SOL    HW161864   9.496  13.498  12.500
19989SOL    HW261865   9.398  13.527  12.389
19990SOL     OW61866   6.046   3.726   8.145
19990SOL    HW161867   5.958   3.717   8.106
19990SOL    HW261868   6.092   3.786   8.087
19991SOL     OW61869   6.490  11.499   7.915
19991SOL    HW161870   6.497  11.511   8.009
19991SOL    HW261871   6.458  11.409   7.905
19992SOL     OW61872   2.700   6.469   6.076
19992SOL    HW161873   2.760   6.522   6.130
19992SOL    HW261874   2.666   6.531   6.011
19993SOL     OW61875   2.805  11.807   5.739
19993SOL    HW161876   2.728  11.749   5.740
19993SOL    HW261877   2.826  11.816   5.647
19994SOL     OW61878   3.542   7.813   4.500
19994SOL    HW161879   3.543   7.841   4.408
19994SOL    HW261880   3.622   7.849   4.537
19995SOL     OW61881   6.630   6.238  11.346
19995SOL    HW161882   6.704   6.219  11.289
19995SOL    HW261883   6.631   6.168  11.412
19996SOL     OW61884   4.437  10.361   9.701
19996SOL    HW161885   4.429  10.303   9.776
19996SOL    HW261886   4.375  10.326   9.636
19997SOL     OW61887  13.989   2.739  13.771
19997SOL    HW161888  13.992   2.822  13.819
19997SOL    HW261889  14.079   2.727  13.739
19998SOL     OW61890   0.319  14.664   3.981
19998SOL    HW161891   0.323  14.631   4.070
19998SOL    HW261892   0.318  14.586   3.926
19999SOL     OW61893   7.038  12.498   1.698
19999SOL    HW161894   7.119  12.509   1.649
19999SOL    HW261895   7.066  12.470   1.785
20000SOL     OW61896  14.651   9.360  12.873
20000SOL    HW161897  14.709   9.297  12.914
20000SOL    HW261898  14.635   9.426  12.941
20001SOL     OW61899   1.679   9.559  10.771
20001SOL    HW161900   1.741   9.596  10.834
20001SOL    HW261901   1.595   9.561  10.816
20002SOL     OW61902   1.690   4.136   3.185
20002SOL    HW161903   1.679   4.229   3.203
20002SOL    HW261904   1.774   4.113   3.225
20003SOL     OW61905  10.610  10.779   5.089
20003SOL    HW161906  10.518  10.790   5.064
20003SOL    HW261907  10.659  10.831   5.026
20004SOL     OW61908  13.398   3.984   7.896
20004SOL    HW161909  13.463   3.913   7.899
20004SOL    HW261910  13.341   3.968   7.971
20005SOL     OW61911   2.028  11.540  10.149
20005SOL    HW161912   1.945  11.585  10.133
20005SOL    HW261913   2.012  11.488  10.227
20006SOL     OW61914   0.073  11.289  10.700
20006SOL    HW161915  14.863  11.260  10.726
20006SOL    HW261916   0.097  11.231  10.628
20007SOL     OW61917  10.127   1.167   7.337
20007SOL    HW161918  10.208   1.140   7.294
20007SOL    HW261919  10.136   1.135   7.427
20008SOL     OW61920   0.142   1.642  11.170
20008SOL    HW161921   0.131   1.551  11.197
20008SOL    HW261922   0.164   1.688  11.251
20009SOL     OW61923   6.161   4.539   0.085
20009SOL    HW161924   6.215   4.476   0.131
20009SOL    HW261925   6.153   4.505  14.873
20010SOL     OW61926  12.247  14.505   4.590
20010SOL    HW161927  12.250  14.582   4.648
20010SOL    HW261928  12.157  14.502   4.559
20011SOL     OW61929   5.452   4.582   4.401
20011SOL    HW161930   5.506   4.507   4.425
20011SOL    HW261931   5.447   4.578   4.306
20012SOL     OW61932   6.817   2.245   2.528
20012SOL    HW161933   6.896   2.287   2.562
20012SOL    HW261934   6.766   2.223   2.605
20013SOL     OW61935   1.837  12.781   5.833
20013SOL    HW161936   1.844  12.700   5.883
20013SOL    HW261937   1.834  12.850   5.899
20014SOL     OW61938  10.523   8.623   1.177
20014SOL    HW161939  10.444   8.582   1.141
20014SOL    HW261940  10.551   8.683   1.108
20015SOL     OW61941  14.138   9.209   0.145
20015SOL    HW161942  14.132   9.281   0.207
20015SOL    HW261943  14.052   9.207   0.102
20016SOL     OW61944   3.030   6.983   9.249
20016SOL    HW161945   3.098   6.932   9.204
20016SOL    HW261946   2.956   6.983   9.190
20017SOL     OW61947   7.908  13.306   6.977
20017SOL    HW161948   7.868  13.392   6.963
20017SOL    HW261949   7.859  13.248   6.918
20018SOL     OW61950   9.896   6.656   3.060
20018SOL    HW161951   9.945   6.603   3.122
20018SOL    HW261952   9.958   6.724   3.032
20019SOL     OW61953   7.498  10.340   9.294
20019SOL    HW161954   7.508  10.346   9.199
20019SOL    HW261955   7.576  10.382   9.330
20020SOL     OW61956  14.081   1.777  11.890
20020SOL    HW161957  14.137   1.703  11.867
20020SOL    HW261958  14.135   1.854  11.874
20021SOL     OW61959   9.609  11.237   5.534
20021SOL    HW161960   9.594  11.170   5.600
20021SOL    HW261961   9.599  11.191   5.450
20022SOL     OW61962   6.248   6.960   3.805
20022SOL    HW161963   6.190   7.016   3.857
20022SOL    HW261964   6.249   7.000   3.718
20023SOL     OW61965   1.066  14.117   1.950
20023SOL    HW161966   0.987  14.080   1.989
20023SOL    HW261967   1.105  14.169   2.020
20024SOL     OW61968  11.532   1.347   7.051
20024SOL    HW161969  11.496   1.375   7.135
20024SOL    HW261970  11.512   1.254   7.046
20025SOL     OW61971   0.461   8.630   0.218
20025SOL    HW161972   0.459   8.578   0.138
20025SOL    HW261973   0.449   8.720   0.188
20026SOL     OW61974  10.218   2.856   6.378
20026SOL    HW161975  10.134   2.899   6.392
20026SOL    HW261976  10.221   2.840   6.283
20027SOL     OW61977   7.753   7.628   0.852
20027SOL    HW161978   7.748   7.543   0.808
20027SOL    HW261979   7.663   7.646   0.880
20028SOL     OW61980  13.571  14.762   6.493
20028SOL    HW161981  13.524  14.749   6.574
20028SOL    HW261982  13.602  14.853   6.498
20029SOL     OW61983  12.409  10.545   8.854
20029SOL    HW161984  12.362  10.500   8.924
20029SOL    HW261985  12.457  10.475   8.809
20030SOL     OW61986   2.649  10.465  12.944
20030SOL    HW161987   2.647  10.419  13.029
20030SOL    HW261988   2.702  10.409  12.888
20031SOL     OW61989   7.030   3.786   7.886
20031SOL    HW161990   7.057   3.812   7.798
20031SOL    HW261991   7.019   3.868   7.934
20032SOL     OW61992   6.679   9.629  14.261
20032SOL    HW161993   6.656   9.544  14.221
20032SOL    HW261994   6.680   9.611  14.355
20033SOL     OW61995  13.127   7.726   9.527
20033SOL    HW161996  13.096   7.716   9.617
20033SOL    HW261997  13.157   7.639   9.501
20034SOL     OW61998   5.612   9.477   1.559
20034SOL    HW161999   5.692   9.493   1.610
20034SOL    HW262000   5.608   9.549   1.497
20035SOL     OW62001   8.954  10.774  13.607
20035SOL    HW162002   8.911  10.760  13.523
20035SOL    HW262003   8.974  10.867  13.610
20036SOL     OW62004   2.717  12.664   8.110
20036SOL    HW162005   2.744  12.572   8.114
20036SOL    HW262006   2.798  12.711   8.092
20037SOL     OW62007   5.710   2.495  11.050
20037SOL    HW162008   5.726   2.546  11.129
20037SOL    HW262009   5.786   2.514  10.994
20038SOL     OW62010   5.745  14.528   4.171
20038SOL    HW162011   5.714  14.446   4.211
20038SOL    HW262012   5.819  14.555   4.225
20039SOL     OW62013  13.963   3.088   3.969
20039SOL    HW162014  13.924   3.000   3.968
20039SOL    HW262015  13.981   3.106   4.061
20040SOL     OW62016  11.199   9.432   5.018
20040SOL    HW162017  11.242   9.438   5.104
20040SOL    HW262018  11.108   9.413   5.038
20041SOL     OW62019   2.876   0.431   5.680
20041SOL    HW162020   2.929   0.510   5.690
20041SOL    HW262021   2.793   0.463   5.644
20042SOL     OW62022   6.874  10.851   8.397
20042SOL    HW162023   6.798  10.813   8.441
20042SOL    HW262024   6.841  10.931   8.356
20043SOL     OW62025   5.620   0.698   6.079
20043SOL    HW162026   5.532   0.704   6.044
20043SOL    HW262027   5.611   0.721   6.172
20044SOL     OW62028   7.255  11.855   6.229
20044SOL    HW162029   7.201  11.818   6.159
20044SOL    HW262030   7.204  11.929   6.261
20045SOL     OW62031   2.295   0.710   8.622
20045SOL    HW162032   2.356   0.766   8.575
20045SOL    HW262033   2.214   0.715   8.571
20046SOL     OW62034   6.202   5.057   1.633
20046SOL    HW162035   6.176   5.143   1.600
20046SOL    HW262036   6.260   5.076   1.707
20047SOL     OW62037   4.065   9.962   5.692
20047SOL    HW162038   3.972   9.938   5.687
20047SOL    HW262039   4.071  10.016   5.771
20048SOL     OW62040   3.213  13.369   1.134
20048SOL    HW162041   3.143  13.356   1.199
20048SOL    HW262042   3.260  13.286   1.133
20049SOL     OW62043   9.249   7.376  10.769
20049SOL    HW162044   9.165   7.331  10.775
20049SOL    HW262045   9.231   7.454  10.716
20050SOL     OW62046   9.753   2.101   9.101
20050SOL    HW162047   9.680   2.150   9.138
20050SOL    HW262048   9.748   2.117   9.007
20051SOL     OW62049   3.860  13.845   2.845
20051SOL    HW162050   3.804  13.922   2.840
20051SOL    HW262051   3.901  13.839   2.759
20052SOL     OW62052   2.275   1.166  10.000
20052SOL    HW162053   2.298   1.234   9.937
20052SOL    HW262054   2.272   1.212  10.085
20053SOL     OW62055   5.017   5.756   2.076
20053SOL    HW162056   5.086   5.788   2.134
20053SOL    HW262057   5.061   5.741   1.992
20054SOL     OW62058  14.873   9.965  10.537
20054SOL    HW162059   0.005   9.932  10.626
20054SOL    HW262060  14.845  10.056  10.549
20055SOL     OW62061   7.613   5.633  14.874
20055SOL    HW162062   7.686   5.596  14.824
20055SOL    HW262063   7.596   5.570   0.066
20056SOL     OW62064   8.793  10.013   7.453
20056SOL    HW162065   8.816   9.930   7.412
20056SOL    HW262066   8.700  10.003   7.477
20057SOL     OW62067   3.428   3.360  12.138
20057SOL    HW162068   3.479   3.318  12.069
20057SOL    HW262069   3.490   3.418  12.182
20058SOL     OW62070   7.361  12.984   4.454
20058SOL    HW162071   7.432  13.017   4.510
20058SOL    HW262072   7.294  12.954   4.516
20059SOL     OW62073  13.712  14.138  13.837
20059SOL    HW162074  13.748  14.227  13.839
20059SOL    HW262075  13.630  14.147  13.788
20060SOL     OW62076  14.658   2.298  14.277
20060SOL    HW162077  14.575   2.346  14.286
20060SOL    HW262078  14.718   2.360  14.236
20061SOL     OW62079  11.214  11.851   2.556
20061SOL    HW162080  11.157  11.816   2.488
20061SOL    HW262081  11.157  11.862   2.632
20062SOL     OW62082   8.570  11.078   6.145
20062SOL    HW162083   8.640  11.067   6.080
20062SOL    HW262084   8.561  11.172   6.155
20063SOL     OW62085   8.454  11.814   6.268
20063SOL    HW162086   8.420  11.888   6.318
20063SOL    HW262087   8.435  11.836   6.177
20064SOL     OW62088  13.281   6.923  10.837
20064SOL    HW162089  13.201   6.965  10.806
20064SOL    HW262090  13.270   6.831  10.816
20065SOL     OW62091  13.622  14.264  14.696
20065SOL    HW162092  13.709  14.248  14.659
20065SOL    HW262093  13.621  14.358  14.714
20066SOL     OW62094   6.576   7.234   7.577
20066SOL    HW162095   6.594   7.327   7.564
20066SOL    HW262096   6.492   7.232   7.622
20067SOL     OW62097   9.535  11.966   8.144
20067SOL    HW162098   9.500  11.913   8.072
20067SOL    HW262099   9.552  12.051   8.104
20068SOL     OW62100  13.155   5.022  11.102
20068SOL    HW162101  13.089   4.959  11.072
20068SOL    HW262102  13.225   5.016  11.036
20069SOL     OW62103  13.503   6.447  11.504
20069SOL    HW162104  13.516   6.526  11.556
20069SOL    HW262105  13.436   6.470  11.441
20070SOL     OW62106  12.018  14.340  13.131
20070SOL    HW162107  12.026  14.391  13.212
20070SOL    HW262108  12.072  14.387  13.067
20071SOL     OW62109   2.215   3.389  12.366
20071SOL    HW162110   2.232   3.352  12.453
20071SOL    HW262111   2.125   3.422  12.371
20072SOL     OW62112  13.245   8.737   8.408
20072SOL    HW162113  13.275   8.657   8.452
20072SOL    HW262114  13.321   8.795   8.408
20073SOL     OW62115   1.565   0.249  11.235
20073SOL    HW162116   1.495   0.195  11.199
20073SOL    HW262117   1.624   0.186  11.278
20074SOL     OW62118   5.495  13.658   2.158
20074SOL    HW162119   5.535  13.731   2.111
20074SOL    HW262120   5.442  13.614   2.093
20075SOL     OW62121   7.896  12.555  14.210
20075SOL    HW162122   7.938  12.469  14.221
20075SOL    HW262123   7.912  12.601  14.292
20076SOL     OW62124   3.246   9.827   3.173
20076SOL    HW162125   3.297   9.832   3.092
20076SOL    HW262126   3.156   9.842   3.145
20077SOL     OW62127   3.770   1.718   6.738
20077SOL    HW162128   3.748   1.721   6.645
20077SOL    HW262129   3.841   1.654   6.744
20078SOL     OW62130   9.622  13.857   7.411
20078SOL    HW162131   9.536  13.870   7.371
20078SOL    HW262132   9.605  13.858   7.505
20079SOL     OW62133   1.912   3.370  14.521
20079SOL    HW162134   1.908   3.436  14.452
20079SOL    HW262135   1.902   3.420  14.602
20080SOL     OW62136   4.033   6.899   5.096
20080SOL    HW162137   4.109   6.925   5.148
20080SOL    HW262138   3.978   6.849   5.156
20081SOL     OW62139   9.757   0.037  11.700
20081SOL    HW162140   9.768  14.820  11.711
20081SOL    HW262141   9.677   0.046  11.648
20082SOL     OW62142   7.522   5.004   3.837
20082SOL    HW162143   7.566   4.927   3.803
20082SOL    HW262144   7.524   4.994   3.932
20083SOL     OW62145  14.232   9.240   8.668
20083SOL    HW162146  14.139   9.257   8.648
20083SOL    HW262147  14.231   9.209   8.758
20084SOL     OW62148  11.323   7.339   9.310
20084SOL    HW162149  11.273   7.413   9.276
20084SOL    HW262150  11.283   7.262   9.271
20085SOL     OW62151   4.938   9.478   9.000
20085SOL    HW162152   4.956   9.384   9.003
20085SOL    HW262153   5.007   9.517   9.055
20086SOL     OW62154  14.616   9.375   0.543
20086SOL    HW162155  14.641   9.293   0.585
20086SOL    HW262156  14.522   9.365   0.527
20087SOL     OW62157  10.731   0.757   3.453
20087SOL    HW162158  10.639   0.734   3.440
20087SOL    HW262159  10.779   0.679   3.424
20088SOL     OW62160   6.118   5.638   6.870
20088SOL    HW162161   6.127   5.623   6.776
20088SOL    HW262162   6.202   5.677   6.896
20089SOL     OW62163  11.890   6.075   0.151
20089SOL    HW162164  11.901   6.170   0.149
20089SOL    HW262165  11.973   6.042   0.185
20090SOL     OW62166   3.766   7.673   3.532
20090SOL    HW162167   3.763   7.585   3.495
20090SOL    HW262168   3.858   7.690   3.548
20091SOL     OW62169   4.273  12.038   4.834
20091SOL    HW162170   4.285  12.030   4.929
20091SOL    HW262171   4.270  12.133   4.819
20092SOL     OW62172   2.808  10.128   9.743
20092SOL    HW162173   2.851  10.192   9.799
20092SOL    HW262174   2.757  10.181   9.681
20093SOL     OW62175   1.811  12.451  11.605
20093SOL    HW162176   1.783  12.360  11.607
20093SOL    HW262177   1.906  12.447  11.588
20094SOL     OW62178   4.912   6.707  11.428
20094SOL    HW162179   4.942   6.676  11.514
20094SOL    HW262180   4.867   6.632  11.390
20095SOL     OW62181   5.252  12.303  14.773
20095SOL    HW162182   5.186  12.297  14.842
20095SOL    HW262183   5.204  12.336  14.697
20096SOL     OW62184  10.941  13.714   2.672
20096SOL    HW162185  10.932  13.809   2.665
20096SOL    HW262186  10.998  13.700   2.748
20097SOL     OW62187   6.221   1.516  14.488
20097SOL    HW162188   6.217   1.570  14.409
20097SOL    HW262189   6.277   1.565  14.548
20098SOL     OW62190   9.769  13.027  11.712
20098SOL    HW162191   9.847  13.080  11.696
20098SOL    HW262192   9.707  13.056  11.645
20099SOL     OW62193   7.955   5.395   1.913
20099SOL    HW162194   7.929   5.362   2.000
20099SOL    HW262195   8.012   5.327   1.878
20100SOL     OW62196   6.339   6.597   5.921
20100SOL    HW162197   6.396   6.612   5.845
20100SOL    HW262198   6.251   6.613   5.888
20101SOL     OW62199  13.979  10.270  14.445
20101SOL    HW162200  13.901  10.215  14.445
20101SOL    HW262201  14.045  10.218  14.399
20102SOL     OW62202   1.053   9.768   5.432
20102SOL    HW162203   1.070   9.843   5.489
20102SOL    HW262204   1.077   9.798   5.345
20103SOL     OW62205  11.698  13.980   1.643
20103SOL    HW162206  11.704  13.914   1.712
20103SOL    HW262207  11.786  14.016   1.636
20104SOL     OW62208   1.010  14.056   1.405
20104SOL    HW162209   1.067  14.002   1.351
20104SOL    HW262210   0.924  14.050   1.365
20105SOL     OW62211   6.465   5.887   9.524
20105SOL    HW162212   6.529   5.831   9.479
20105SOL    HW262213   6.507   5.972   9.529
20106SOL     OW62214  11.392   5.170   5.879
20106SOL    HW162215  11.406   5.086   5.834
20106SOL    HW262216  11.479   5.196   5.909
20107SOL     OW62217   0.322  13.396  10.458
20107SOL    HW162218   0.305  13.329  10.392
20107SOL    HW262219   0.411  13.427  10.439
20108SOL     OW62220   7.907  11.139   0.385
20108SOL    HW162221   7.921  11.083   0.309
20108SOL    HW262222   7.844  11.091   0.439
20109SOL     OW62223   5.070  10.406  10.858
20109SOL    HW162224   5.005  10.457  10.808
20109SOL    HW262225   5.022  10.376  10.936
20110SOL     OW62226  10.949   6.767   4.000
20110SOL    HW162227  11.026   6.824   4.008
20110SOL    HW262228  10.952   6.735   3.909
20111SOL     OW62229   3.111   4.463   1.783
20111SOL    HW162230   3.022   4.481   1.815
20111SOL    HW262231   3.111   4.494   1.692
20112SOL     OW62232  13.847  10.906   8.655
20112SOL    HW162233  13.853  10.841   8.725
20112SOL    HW262234  13.767  10.883   8.608
20113SOL     OW62235  13.550   7.337  12.542
20113SOL    HW162236  13.517   7.391  12.614
20113SOL    HW262237  13.589   7.261  12.584
20114SOL     OW62238   7.486   7.364  10.372
20114SOL    HW162239   7.484   7.300  10.300
20114SOL    HW262240   7.531   7.319  10.443
20115SOL     OW62241   6.547   3.363  14.465
20115SOL    HW162242   6.505   3.288  14.424
20115SOL    HW262243   6.531   3.351  14.559
20116SOL     OW62244  13.849   1.616   1.857
20116SOL    HW162245  13.931   1.572   1.880
20116SOL    HW262246  13.848   1.616   1.761
20117SOL     OW62247   4.170   3.342   1.516
20117SOL    HW162248   4.254   3.374   1.547
20117SOL    HW262249   4.173   3.354   1.421
20118SOL     OW62250   0.521  14.436   7.600
20118SOL    HW162251   0.434  14.403   7.576
20118SOL    HW262252   0.511  14.466   7.690
20119SOL     OW62253   9.901   9.453   8.321
20119SOL    HW162254   9.961   9.391   8.363
20119SOL    HW262255   9.948   9.536   8.322
20120SOL     OW62256  10.603  11.291   8.460
20120SOL    HW162257  10.536  11.327   8.403
20120SOL    HW262258  10.640  11.367   8.505
20121SOL     OW62259  11.375   2.491   9.935
20121SOL    HW162260  11.338   2.579   9.925
20121SOL    HW262261  11.464   2.499   9.901
20122SOL     OW62262   5.266   9.725   8.407
20122SOL    HW162263   5.316   9.665   8.463
20122SOL    HW262264   5.228   9.788   8.468
20123SOL     OW62265  10.311  13.181  13.074
20123SOL    HW162266  10.228  13.165  13.118
20123SOL    HW262267  10.291  13.174  12.981
20124SOL     OW62268  14.096  13.368  12.171
20124SOL    HW162269  14.154  13.410  12.234
20124SOL    HW262270  14.111  13.416  12.089
20125SOL     OW62271  12.565  14.055  12.917
20125SOL    HW162272  12.574  14.057  12.822
20125SOL    HW262273  12.502  13.985  12.933
20126SOL     OW62274   9.263   0.484  12.129
20126SOL    HW162275   9.239   0.561  12.182
20126SOL    HW262276   9.196   0.419  12.149
20127SOL     OW62277  14.432   7.630   8.477
20127SOL    HW162278  14.357   7.689   8.472
20127SOL    HW262279  14.399   7.553   8.522
20128SOL     OW62280  12.143  12.423   2.314
20128SOL    HW162281  12.077  12.483   2.348
20128SOL    HW262282  12.223  12.475   2.309
20129SOL     OW62283   3.978   6.887   3.326
20129SOL    HW162284   3.963   6.860   3.235
20129SOL    HW262285   4.007   6.807   3.370
20130SOL     OW62286   9.500   5.492   4.044
20130SOL    HW162287   9.440   5.486   4.118
20130SOL    HW262288   9.567   5.426   4.062
20131SOL     OW62289   2.782  11.728  11.795
20131SOL    HW162290   2.851  11.687  11.743
20131SOL    HW262291   2.825  11.753  11.877
20132SOL     OW62292   9.808   5.133   1.082
20132SOL    HW162293   9.896   5.146   1.048
20132SOL    HW262294   9.766   5.074   1.019
20133SOL     OW62295  11.030   2.256   3.104
20133SOL    HW162296  10.971   2.253   3.179
20133SOL    HW262297  11.109   2.298   3.138
20134SOL     OW62298   3.668   6.254   1.848
20134SOL    HW162299   3.681   6.337   1.802
20134SOL    HW262300   3.694   6.187   1.785
20135SOL     OW62301   2.132  10.282   0.067
20135SOL    HW162302   2.227  10.269   0.070
20135SOL    HW262303   2.120  10.364   0.020
20136SOL     OW62304   1.685   8.537  11.783
20136SOL    HW162305   1.729   8.546  11.867
20136SOL    HW262306   1.649   8.449  11.784
20137SOL     OW62307   9.899   9.141  14.293
20137SOL    HW162308   9.890   9.182  14.207
20137SOL    HW262309   9.818   9.161  14.338
20138SOL     OW62310  10.797   3.674   3.421
20138SOL    HW162311  10.794   3.755   3.371
20138SOL    HW262312  10.795   3.605   3.354
20139SOL     OW62313   0.587   5.740   5.187
20139SOL    HW162314   0.682   5.727   5.199
20139SOL    HW262315   0.575   5.834   5.193
20140SOL     OW62316   0.649   3.116   7.334
20140SOL    HW162317   0.626   3.200   7.375
20140SOL    HW262318   0.744   3.109   7.348
20141SOL     OW62319  13.687  14.767   7.700
20141SOL    HW162320  13.680  14.853   7.660
20141SOL    HW262321  13.728  14.713   7.633
20142SOL     OW62322  13.804  11.828   9.533
20142SOL    HW162323  13.873  11.894   9.522
20142SOL    HW262324  13.724  11.871   9.502
20143SOL     OW62325   2.802   2.160   3.711
20143SOL    HW162326   2.788   2.160   3.616
20143SOL    HW262327   2.864   2.231   3.726
20144SOL     OW62328   5.052   5.659   8.103
20144SOL    HW162329   5.072   5.664   8.009
20144SOL    HW262330   5.073   5.746   8.137
20145SOL     OW62331   8.176   7.632   7.841
20145SOL    HW162332   8.242   7.583   7.890
20145SOL    HW262333   8.108   7.651   7.906
20146SOL     OW62334   2.293  14.221   4.125
20146SOL    HW162335   2.357  14.149   4.131
20146SOL    HW262336   2.274  14.227   4.031
20147SOL     OW62337  11.783   2.377   3.234
20147SOL    HW162338  11.705   2.366   3.179
20147SOL    HW262339  11.777   2.467   3.266
20148SOL     OW62340   9.197  11.413  11.234
20148SOL    HW162341   9.116  11.370  11.263
20148SOL    HW262342   9.254  11.340  11.210
20149SOL     OW62343   8.345  12.446   8.881
20149SOL    HW162344   8.330  12.375   8.943
20149SOL    HW262345   8.390  12.405   8.807
20150SOL     OW62346   8.099   3.697   2.746
20150SOL    HW162347   8.163   3.675   2.679
20150SOL    HW262348   8.152   3.731   2.819
20151SOL     OW62349   3.760   3.021   6.818
20151SOL    HW162350   3.831   3.003   6.757
20151SOL    HW262351   3.719   3.102   6.785
20152SOL     OW62352  12.307   4.177   9.388
20152SOL    HW162353  12.398   4.149   9.402
20152SOL    HW262354  12.313   4.273   9.380
20153SOL     OW62355   2.347  11.772   6.668
20153SOL    HW162356   2.254  11.792   6.678
20153SOL    HW262357   2.358  11.685   6.706
20154SOL     OW62358   7.235   1.799  10.155
20154SOL    HW162359   7.297   1.847  10.210
20154SOL    HW262360   7.250   1.707  10.176
20155SOL     OW62361   4.127  12.438   0.665
20155SOL    HW162362   4.214  12.454   0.700
20155SOL    HW262363   4.108  12.347   0.686
20156SOL     OW62364   2.461  12.740   4.025
20156SOL    HW162365   2.435  12.822   3.982
20156SOL    HW262366   2.528  12.767   4.088
20157SOL     OW62367  14.268  11.865   6.549
20157SOL    HW162368  14.235  11.947   6.586
20157SOL    HW262369  14.339  11.891   6.492
20158SOL     OW62370   3.414   7.698   2.087
20158SOL    HW162371   3.491   7.663   2.132
20158SOL    HW262372   3.433   7.688   1.994
20159SOL     OW62373   2.377  10.403  13.557
20159SOL    HW162374   2.347  10.494  13.548
20159SOL    HW262375   2.410  10.381  13.470
20160SOL     OW62376   9.299   6.408   1.095
20160SOL    HW162377   9.338   6.323   1.113
20160SOL    HW262378   9.268   6.402   1.005
20161SOL     OW62379  11.159   8.794   7.398
20161SOL    HW162380  11.125   8.818   7.484
20161SOL    HW262381  11.179   8.878   7.356
20162SOL     OW62382   5.397  14.493  11.397
20162SOL    HW162383   5.423  14.585  11.386
20162SOL    HW262384   5.458  14.459  11.462
20163SOL     OW62385   4.935   6.447   9.147
20163SOL    HW162386   4.890   6.524   9.181
20163SOL    HW262387   4.987   6.415   9.221
20164SOL     OW62388  13.762   2.702  12.914
20164SOL    HW162389  13.836   2.651  12.883
20164SOL    HW262390  13.762   2.689  13.009
20165SOL     OW62391  12.665  13.166  14.567
20165SOL    HW162392  12.571  13.158  14.548
20165SOL    HW262393  12.675  13.254  14.601
20166SOL     OW62394   1.881   7.448   4.803
20166SOL    HW162395   1.916   7.506   4.870
20166SOL    HW262396   1.934   7.368   4.810
20167SOL     OW62397   9.705   4.576   6.266
20167SOL    HW162398   9.692   4.646   6.331
20167SOL    HW262399   9.623   4.527   6.268
20168SOL     OW62400   3.612   9.580   4.224
20168SOL    HW162401   3.631   9.554   4.134
20168SOL    HW262402   3.697   9.603   4.262
20169SOL     OW62403   8.797   8.800   2.742
20169SOL    HW162404   8.856   8.729   2.768
20169SOL    HW262405   8.791   8.857   2.819
20170SOL     OW62406  12.807  10.292  10.667
20170SOL    HW162407  12.750  10.251  10.601
20170SOL    HW262408  12.892  10.301  10.622
20171SOL     OW62409  12.179   9.912  10.280
20171SOL    HW162410  12.226   9.989  10.248
20171SOL    HW262411  12.211   9.840  10.226
20172SOL     OW62412  14.185   1.705   0.883
20172SOL    HW162413  14.131   1.626   0.871
20172SOL    HW262414  14.123   1.772   0.913
20173SOL     OW62415   0.598   4.734   9.101
20173SOL    HW162416   0.656   4.666   9.067
20173SOL    HW262417   0.651   4.814   9.100
20174SOL     OW62418  14.031  13.920   5.199
20174SOL    HW162419  13.958  13.982   5.190
20174SOL    HW262420  13.997  13.838   5.162
20175SOL     OW62421   9.414   7.086   4.987
20175SOL    HW162422   9.410   6.990   4.987
20175SOL    HW262423   9.479   7.106   4.919
20176SOL     OW62424   7.194   4.705   1.155
20176SOL    HW162425   7.146   4.788   1.162
20176SOL    HW262426   7.286   4.731   1.159
20177SOL     OW62427   7.629   6.249   1.714
20177SOL    HW162428   7.547   6.299   1.712
20177SOL    HW262429   7.604   6.161   1.684
20178SOL     OW62430   8.119   5.183  13.266
20178SOL    HW162431   8.047   5.214  13.320
20178SOL    HW262432   8.188   5.249  13.277
20179SOL     OW62433  12.679   0.167   6.428
20179SOL    HW162434  12.719   0.142   6.511
20179SOL    HW262435  12.715   0.106   6.364
20180SOL     OW62436   9.080   1.269   0.516
20180SOL    HW162437   9.029   1.238   0.591
20180SOL    HW262438   9.061   1.206   0.447
20181SOL     OW62439   5.635  12.506   8.874
20181SOL    HW162440   5.712  12.449   8.872
20181SOL    HW262441   5.580  12.469   8.943
20182SOL     OW62442  13.642  10.200   7.974
20182SOL    HW162443  13.732  10.225   7.955
20182SOL    HW262444  13.605  10.278   8.017
20183SOL     OW62445   4.565   2.963  13.819
20183SOL    HW162446   4.513   2.922  13.888
20183SOL    HW262447   4.653   2.968  13.856
20184SOL     OW62448   0.039   0.984  11.838
20184SOL    HW162449  14.867   1.010  11.916
20184SOL    HW262450  14.851   0.975  11.769
20185SOL     OW62451   8.066   3.982   0.744
20185SOL    HW162452   7.977   3.987   0.777
20185SOL    HW262453   8.056   3.981   0.649
20186SOL     OW62454   4.612   2.267   7.791
20186SOL    HW162455   4.591   2.321   7.715
20186SOL    HW262456   4.599   2.177   7.760
20187SOL     OW62457  14.787  14.405   5.658
20187SOL    HW162458  14.722  14.359   5.711
20187SOL    HW262459  14.872  14.377   5.693
20188SOL     OW62460  12.047  14.668   0.386
20188SOL    HW162461  12.039  14.688   0.479
20188SOL    HW262462  12.142  14.666   0.371
20189SOL     OW62463   8.260  10.818   3.618
20189SOL    HW162464   8.256  10.844   3.710
20189SOL    HW262465   8.277  10.899   3.571
20190SOL     OW62466   6.715   0.499   9.671
20190SOL    HW162467   6.644   0.559   9.649
20190SOL    HW262468   6.679   0.444   9.741
20191SOL     OW62469   6.589  14.493   1.509
20191SOL    HW162470   6.608  14.476   1.416
20191SOL    HW262471   6.538  14.574   1.509
20192SOL     OW62472  10.986   0.129   9.389
20192SOL    HW162473  11.079   0.122   9.411
20192SOL    HW262474  10.985   0.161   9.299
20193SOL     OW62475   1.233   5.630  14.148
20193SOL    HW162476   1.167   5.666  14.088
20193SOL    HW262477   1.309   5.687  14.136
20194SOL     OW62478   9.309  10.179   8.644
20194SOL    HW162479   9.270  10.109   8.695
20194SOL    HW262480   9.241  10.206   8.582
20195SOL     OW62481   1.683   9.932  13.119
20195SOL    HW162482   1.593   9.961  13.102
20195SOL    HW262483   1.697   9.861  13.057
20196SOL     OW62484   6.346   3.864   5.999
20196SOL    HW162485   6.356   3.863   6.094
20196SOL    HW262486   6.425   3.820   5.966
20197SOL     OW62487  11.553  14.507  13.398
20197SOL    HW162488  11.546  14.562  13.320
20197SOL    HW262489  11.474  14.454  13.398
20198SOL     OW62490  12.739   9.929   7.810
20198SOL    HW162491  12.780  10.001   7.762
20198SOL    HW262492  12.777   9.850   7.771
20199SOL     OW62493   7.169  11.506  10.694
20199SOL    HW162494   7.243  11.523  10.635
20199SOL    HW262495   7.140  11.592  10.723
20200SOL     OW62496  14.081   2.651   3.584
20200SOL    HW162497  14.155   2.700   3.621
20200SOL    HW262498  14.005   2.681   3.635
20201SOL     OW62499   0.758   0.509   4.606
20201SOL    HW162500   0.837   0.456   4.591
20201SOL    HW262501   0.689   0.444   4.619
20202SOL     OW62502  14.858  13.183  13.227
20202SOL    HW162503  14.840  13.133  13.147
20202SOL    HW262504   0.008  13.270  13.195
20203SOL     OW62505   4.082   0.979   7.726
20203SOL    HW162506   4.023   0.926   7.674
20203SOL    HW262507   4.136   0.916   7.774
20204SOL     OW62508  13.310  11.814  13.828
20204SOL    HW162509  13.305  11.721  13.850
20204SOL    HW262510  13.348  11.816  13.740
20205SOL     OW62511  12.730  12.049   2.279
20205SOL    HW162512  12.754  11.963   2.245
20205SOL    HW262513  12.676  12.088   2.210
20206SOL     OW62514   0.686   1.993   8.424
20206SOL    HW162515   0.703   1.960   8.512
20206SOL    HW262516   0.736   1.935   8.366
20207SOL     OW62517  12.775   7.373  10.476
20207SOL    HW162518  12.681   7.379  10.460
20207SOL    HW262519  12.808   7.316  10.407
20208SOL     OW62520  13.437  14.318  11.960
20208SOL    HW162521  13.520  14.342  11.920
20208SOL    HW262522  13.403  14.247  11.905
20209SOL     OW62523  14.387   5.094   9.587
20209SOL    HW162524  14.364   5.001   9.597
20209SOL    HW262525  14.410   5.102   9.494
20210SOL     OW62526  13.953   0.346   5.990
20210SOL    HW162527  13.979   0.417   6.048
20210SOL    HW262528  14.018   0.346   5.920
20211SOL     OW62529   1.685   3.786   8.125
20211SOL    HW162530   1.738   3.828   8.192
20211SOL    HW262531   1.607   3.755   8.171
20212SOL     OW62532  12.082  12.444   9.567
20212SOL    HW162533  12.147  12.398   9.619
20212SOL    HW262534  11.998  12.407   9.596
20213SOL     OW62535   1.759  10.160   4.012
20213SOL    HW162536   1.697  10.149   4.084
20213SOL    HW262537   1.829  10.099   4.032
20214SOL     OW62538  10.491   0.181   5.684
20214SOL    HW162539  10.413   0.226   5.717
20214SOL    HW262540  10.470   0.088   5.692
20215SOL     OW62541   1.865   1.288   3.237
20215SOL    HW162542   1.783   1.253   3.269
20215SOL    HW262543   1.840   1.351   3.169
20216SOL     OW62544   1.370   3.846   3.070
20216SOL    HW162545   1.277   3.865   3.055
20216SOL    HW262546   1.374   3.751   3.079
20217SOL     OW62547   7.800   0.375   9.176
20217SOL    HW162548   7.872   0.431   9.206
20217SOL    HW262549   7.839   0.317   9.111
20218SOL     OW62550   3.632  10.508  10.109
20218SOL    HW162551   3.568  10.504  10.180
20218SOL    HW262552   3.717  10.508  10.153
20219SOL     OW62553   3.403  13.865   7.689
20219SOL    HW162554   3.414  13.815   7.770
20219SOL    HW262555   3.484  13.850   7.640
20220SOL     OW62556   0.909   0.826  14.741
20220SOL    HW162557   0.917   0.810  14.647
20220SOL    HW262558   0.816   0.844  14.755
20221SOL     OW62559   3.606   3.811   5.239
20221SOL    HW162560   3.550   3.842   5.311
20221SOL    HW262561   3.643   3.729   5.271
20222SOL     OW62562   8.870   9.658   2.924
20222SOL    HW162563   8.950   9.612   2.898
20222SOL    HW262564   8.800   9.608   2.883
20223SOL     OW62565   8.112  13.250   5.544
20223SOL    HW162566   8.166  13.213   5.474
20223SOL    HW262567   8.038  13.191   5.551
20224SOL     OW62568   9.113  14.197   9.670
20224SOL    HW162569   9.133  14.150   9.751
20224SOL    HW262570   9.144  14.286   9.687
20225SOL     OW62571  10.538   4.480   5.643
20225SOL    HW162572  10.622   4.503   5.682
20225SOL    HW262573  10.479   4.472   5.718
20226SOL     OW62574  12.255   8.224  12.946
20226SOL    HW162575  12.350   8.236  12.952
20226SOL    HW262576  12.218   8.298  12.995
20227SOL     OW62577   9.501   5.514   7.252
20227SOL    HW162578   9.506   5.516   7.348
20227SOL    HW262579   9.518   5.605   7.226
20228SOL     OW62580   9.439   1.678   8.834
20228SOL    HW162581   9.348   1.687   8.807
20228SOL    HW262582   9.482   1.635   8.760
20229SOL     OW62583   4.271  14.453  10.488
20229SOL    HW162584   4.315  14.393  10.547
20229SOL    HW262585   4.241  14.398  10.415
20230SOL     OW62586   6.358  13.398  13.622
20230SOL    HW162587   6.341  13.346  13.543
20230SOL    HW262588   6.396  13.336  13.684
20231SOL     OW62589   7.688   6.983   5.020
20231SOL    HW162590   7.751   7.026   4.962
20231SOL    HW262591   7.684   7.039   5.097
20232SOL     OW62592  12.518  12.855   1.454
20232SOL    HW162593  12.573  12.925   1.490
20232SOL    HW262594  12.453  12.838   1.522
20233SOL     OW62595  13.903  10.528  10.004
20233SOL    HW162596  13.941  10.492   9.924
20233SOL    HW262597  13.821  10.480  10.016
20234SOL     OW62598   5.566  13.042   1.483
20234SOL    HW162599   5.541  13.027   1.391
20234SOL    HW262600   5.661  13.031   1.484
20235SOL     OW62601   4.371   9.571  12.942
20235SOL    HW162602   4.326   9.488  12.934
20235SOL    HW262603   4.426   9.561  13.021
20236SOL     OW62604  10.153   0.598   9.082
20236SOL    HW162605  10.206   0.585   9.003
20236SOL    HW262606  10.135   0.510   9.114
20237SOL     OW62607   7.262  13.638  12.324
20237SOL    HW162608   7.331  13.699  12.350
20237SOL    HW262609   7.202  13.691  12.272
20238SOL     OW62610  14.024   2.629   7.184
20238SOL    HW162611  14.039   2.611   7.091
20238SOL    HW262612  14.067   2.557   7.230
20239SOL     OW62613   4.966   9.525  14.718
20239SOL    HW162614   4.975   9.591  14.650
20239SOL    HW262615   5.052   9.485  14.724
20240SOL     OW62616   2.936   2.807   6.934
20240SOL    HW162617   3.014   2.756   6.916
20240SOL    HW262618   2.884   2.753   6.994
20241SOL     OW62619   5.983  13.182  10.115
20241SOL    HW162620   6.062  13.206  10.066
20241SOL    HW262621   5.953  13.101  10.073
20242SOL     OW62622   8.398  11.272   6.024
20242SOL    HW162623   8.409  11.328   5.947
20242SOL    HW262624   8.411  11.183   5.991
20243SOL     OW62625   6.968   8.270   9.859
20243SOL    HW162626   7.058   8.254   9.888
20243SOL    HW262627   6.959   8.218   9.780
20244SOL     OW62628   9.588  12.843  13.072
20244SOL    HW162629   9.657  12.819  13.135
20244SOL    HW262630   9.524  12.771  13.079
20245SOL     OW62631   5.083   0.271  14.345
20245SOL    HW162632   5.008   0.214  14.357
20245SOL    HW262633   5.046   0.354  14.313
20246SOL     OW62634   2.957  10.748  12.237
20246SOL    HW162635   2.973  10.667  12.189
20246SOL    HW262636   2.893  10.725  12.305
20247SOL     OW62637  12.826   3.823   8.277
20247SOL    HW162638  12.906   3.771   8.282
20247SOL    HW262639  12.845   3.901   8.330
20248SOL     OW62640   4.029   2.743  10.890
20248SOL    HW162641   3.944   2.757  10.847
20248SOL    HW262642   4.012   2.673  10.954
20249SOL     OW62643   1.739   2.325   2.274
20249SOL    HW162644   1.763   2.404   2.225
20249SOL    HW262645   1.800   2.323   2.348
20250SOL     OW62646   5.939   8.409   8.907
20250SOL    HW162647   5.927   8.453   8.823
20250SOL    HW262648   5.964   8.319   8.884
20251SOL     OW62649   4.782   1.738   9.889
20251SOL    HW162650   4.752   1.812   9.836
20251SOL    HW262651   4.838   1.778   9.956
20252SOL     OW62652  11.675  14.409   3.177
20252SOL    HW162653  11.764  14.374   3.182
20252SOL    HW262654  11.685  14.503   3.195
20253SOL     OW62655   7.187  11.341  10.118
20253SOL    HW162656   7.142  11.418  10.151
20253SOL    HW262657   7.190  11.353  10.023
20254SOL     OW62658   3.833  11.494  11.269
20254SOL    HW162659   3.920  11.489  11.229
20254SOL    HW262660   3.799  11.579  11.242
20255SOL     OW62661   5.741  12.644  11.331
20255SOL    HW162662   5.755  12.612  11.420
20255SOL    HW262663   5.729  12.565  11.278
20256SOL     OW62664   8.464   1.643   1.492
20256SOL    HW162665   8.463   1.659   1.587
20256SOL    HW262666   8.463   1.731   1.454
20257SOL     OW62667  14.791  12.011  11.515
20257SOL    HW162668  14.719  11.993  11.454
20257SOL    HW262669  14.747  12.049  11.592
20258SOL     OW62670   4.433  10.552  13.134
20258SOL    HW162671   4.438  10.642  13.102
20258SOL    HW262672   4.502  10.505  13.087
20259SOL     OW62673  12.104   1.166   3.850
20259SOL    HW162674  12.010   1.151   3.840
20259SOL    HW262675  12.136   1.088   3.895
20260SOL     OW62676   5.505  10.099  10.989
20260SOL    HW162677   5.446  10.026  11.003
20260SOL    HW262678   5.588  10.059  10.965
20261SOL     OW62679  14.495   2.857   2.512
20261SOL    HW162680  14.449   2.799   2.574
20261SOL    HW262681  14.575   2.882   2.558
20262SOL     OW62682  11.439  10.539   4.521
20262SOL    HW162683  11.490  10.597   4.578
20262SOL    HW262684  11.358  10.524   4.570
20263SOL     OW62685   8.258   9.671   0.243
20263SOL    HW162686   8.304   9.588   0.229
20263SOL    HW262687   8.297   9.730   0.179
20264SOL     OW62688   1.266   1.080   8.554
20264SOL    HW162689   1.253   1.032   8.636
20264SOL    HW262690   1.342   1.038   8.513
20265SOL     OW62691  11.477   5.660   7.402
20265SOL    HW162692  11.473   5.622   7.314
20265SOL    HW262693  11.562   5.704   7.405
20266SOL     OW62694  12.927   4.150  12.566
20266SOL    HW162695  12.880   4.159  12.649
20266SOL    HW262696  12.897   4.066  12.531
20267SOL     OW62697   6.208  12.889   0.217
20267SOL    HW162698   6.238  12.817   0.273
20267SOL    HW262699   6.217  12.856   0.128
20268SOL     OW62700  12.233   6.798   9.308
20268SOL    HW162701  12.178   6.865   9.349
20268SOL    HW262702  12.319   6.810   9.347
20269SOL     OW62703   3.437  13.190   1.802
20269SOL    HW162704   3.461  13.251   1.872
20269SOL    HW262705   3.496  13.116   1.813
20270SOL     OW62706   9.908  11.745  13.821
20270SOL    HW162707   9.979  11.715  13.763
20270SOL    HW262708   9.951  11.761  13.905
20271SOL     OW62709   0.764   3.119  13.375
20271SOL    HW162710   0.818   3.179  13.426
20271SOL    HW262711   0.743   3.167  13.295
20272SOL     OW62712  11.499   1.020  11.919
20272SOL    HW162713  11.432   0.972  11.968
20272SOL    HW262714  11.504   1.105  11.963
20273SOL     OW62715   9.576  13.056   3.255
20273SOL    HW162716   9.557  13.046   3.162
20273SOL    HW262717   9.603  13.148   3.264
20274SOL     OW62718   8.258   9.196  12.896
20274SOL    HW162719   8.174   9.222  12.858
20274SOL    HW262720   8.234   9.151  12.978
20275SOL     OW62721   1.644   9.411   3.825
20275SOL    HW162722   1.558   9.393   3.863
20275SOL    HW262723   1.700   9.341   3.859
20276SOL     OW62724  12.415  13.612  10.918
20276SOL    HW162725  12.484  13.582  10.977
20276SOL    HW262726  12.348  13.649  10.975
20277SOL     OW62727  14.573  11.443  13.728
20277SOL    HW162728  14.634  11.432  13.656
20277SOL    HW262729  14.508  11.506  13.696
20278SOL     OW62730   0.471   2.737  12.186
20278SOL    HW162731   0.470   2.800  12.114
20278SOL    HW262732   0.447   2.653  12.145
20279SOL     OW62733   2.986   8.870   9.629
20279SOL    HW162734   2.899   8.906   9.611
20279SOL    HW262735   3.015   8.833   9.546
20280SOL     OW62736  12.673  14.482  13.838
20280SOL    HW162737  12.581  14.498  13.858
20280SOL    HW262738  12.688  14.526  13.754
20281SOL     OW62739   5.049   0.253   6.725
20281SOL    HW162740   5.111   0.313   6.767
20281SOL    HW262741   5.043   0.284   6.635
20282SOL     OW62742   2.638   2.155   2.834
20282SOL    HW162743   2.558   2.177   2.881
20282SOL    HW262744   2.685   2.238   2.824
20283SOL     OW62745  14.788  13.630   8.842
20283SOL    HW162746  14.746  13.578   8.773
20283SOL    HW262747  14.716  13.654   8.900
20284SOL     OW62748   7.760   7.250   8.608
20284SOL    HW162749   7.829   7.274   8.670
20284SOL    HW262750   7.712   7.181   8.653
20285SOL     OW62751   1.933  13.118   0.745
20285SOL    HW162752   1.863  13.063   0.781
20285SOL    HW262753   2.011  13.093   0.795
20286SOL     OW62754   8.177   9.915   6.649
20286SOL    HW162755   8.090   9.913   6.608
20286SOL    HW262756   8.212   9.827   6.634
20287SOL     OW62757  10.763   9.928   0.113
20287SOL    HW162758  10.760   9.851   0.055
20287SOL    HW262759  10.703   9.991   0.073
20288SOL     OW62760   8.507   1.357   9.414
20288SOL    HW162761   8.538   1.427   9.472
20288SOL    HW262762   8.471   1.291   9.473
20289SOL     OW62763   9.528   2.349   2.648
20289SOL    HW162764   9.465   2.385   2.710
20289SOL    HW262765   9.559   2.425   2.598
20290SOL     OW62766  11.690  13.497   6.648
20290SOL    HW162767  11.605  13.527   6.616
20290SOL    HW262768  11.740  13.479   6.569
20291SOL     OW62769   6.035  10.830   5.571
20291SOL    HW162770   5.944  10.846   5.545
20291SOL    HW262771   6.077  10.916   5.561
20292SOL     OW62772   2.221  10.204   3.293
20292SOL    HW162773   2.194  10.292   3.269
20292SOL    HW262774   2.140  10.159   3.317
20293SOL     OW62775   2.791  13.064  12.098
20293SOL    HW162776   2.736  13.114  12.037
20293SOL    HW262777   2.780  13.108  12.182
20294SOL     OW62778  11.098   8.339   9.651
20294SOL    HW162779  11.081   8.370   9.562
20294SOL    HW262780  11.037   8.267   9.663
20295SOL     OW62781   9.068   8.820  14.194
20295SOL    HW162782   9.029   8.877  14.261
20295SOL    HW262783   9.072   8.874  14.116
20296SOL     OW62784   9.272   2.032   2.361
20296SOL    HW162785   9.305   1.942   2.365
20296SOL    HW262786   9.349   2.087   2.380
20297SOL     OW62787   5.440   4.938   5.960
20297SOL    HW162788   5.522   4.949   5.912
20297SOL    HW262789   5.433   4.844   5.975
20298SOL     OW62790   5.231   7.859  14.833
20298SOL    HW162791   5.281   7.796   0.006
20298SOL    HW262792   5.177   7.905   0.020
20299SOL     OW62793   7.039   8.024   8.893
20299SOL    HW162794   7.016   8.080   8.819
20299SOL    HW262795   7.102   7.962   8.857
20300SOL     OW62796  14.341   9.469   8.277
20300SOL    HW162797  14.278   9.422   8.223
20300SOL    HW262798  14.360   9.410   8.350
20301SOL     OW62799  13.539  12.995  10.966
20301SOL    HW162800  13.614  13.027  10.916
20301SOL    HW262801  13.473  13.063  10.957
20302SOL     OW62802   4.789  14.663   5.661
20302SOL    HW162803   4.877  14.689   5.687
20302SOL    HW262804   4.731  14.709   5.721
20303SOL     OW62805  13.379   6.164  13.262
20303SOL    HW162806  13.319   6.226  13.304
20303SOL    HW262807  13.326   6.121  13.195
20304SOL     OW62808  13.156   8.398   2.175
20304SOL    HW162809  13.149   8.305   2.196
20304SOL    HW262810  13.169   8.401   2.080
20305SOL     OW62811  14.869  11.684   3.381
20305SOL    HW162812   0.050  11.672   3.305
20305SOL    HW262813  14.854  11.779   3.384
20306SOL     OW62814  13.863   1.864   3.765
20306SOL    HW162815  13.951   1.897   3.749
20306SOL    HW262816  13.805   1.926   3.722
20307SOL     OW62817   7.157   1.338  14.839
20307SOL    HW162818   7.251   1.322  14.830
20307SOL    HW262819   7.149   1.433  14.844
20308SOL     OW62820   0.693   9.603   3.948
20308SOL    HW162821   0.748   9.671   3.985
20308SOL    HW262822   0.611   9.608   3.997
20309SOL     OW62823  11.458   3.379   9.255
20309SOL    HW162824  11.523   3.442   9.224
20309SOL    HW262825  11.508   3.317   9.307
20310SOL     OW62826  13.257  12.100  13.019
20310SOL    HW162827  13.339  12.118  12.973
20310SOL    HW262828  13.240  12.007  13.004
20311SOL     OW62829  14.100  12.719   7.827
20311SOL    HW162830  14.149  12.673   7.895
20311SOL    HW262831  14.123  12.812   7.839
20312SOL     OW62832   2.871  11.963  12.711
20312SOL    HW162833   2.864  12.055  12.734
20312SOL    HW262834   2.953  11.934  12.751
20313SOL     OW62835   7.066  12.398   3.525
20313SOL    HW162836   7.119  12.405   3.604
20313SOL    HW262837   6.982  12.437   3.549
20314SOL     OW62838   7.078   2.699   3.391
20314SOL    HW162839   7.034   2.616   3.373
20314SOL    HW262840   7.082   2.704   3.487
20315SOL     OW62841   7.002   1.749   1.532
20315SOL    HW162842   6.998   1.827   1.587
20315SOL    HW262843   6.925   1.698   1.556
20316SOL     OW62844  12.192   0.660   4.440
20316SOL    HW162845  12.156   0.638   4.526
20316SOL    HW262846  12.128   0.627   4.377
20317SOL     OW62847   0.380   8.733   6.925
20317SOL    HW162848   0.355   8.726   6.832
20317SOL    HW262849   0.303   8.772   6.967
20318SOL     OW62850   6.519   4.935   4.389
20318SOL    HW162851   6.566   4.894   4.317
20318SOL    HW262852   6.427   4.935   4.360
20319SOL     OW62853   7.816   8.870  10.044
20319SOL    HW162854   7.907   8.844  10.057
20319SOL    HW262855   7.814   8.963  10.064
20320SOL     OW62856   4.775   7.168  12.633
20320SOL    HW162857   4.758   7.205  12.720
20320SOL    HW262858   4.723   7.088  12.631
20321SOL     OW62859   6.580   2.274  10.113
20321SOL    HW162860   6.564   2.209  10.045
20321SOL    HW262861   6.534   2.239  10.190
20322SOL     OW62862  10.433  11.913  10.770
20322SOL    HW162863  10.503  11.850  10.783
20322SOL    HW262864  10.472  11.981  10.714
20323SOL     OW62865  14.246  11.209  11.139
20323SOL    HW162866  14.209  11.298  11.146
20323SOL    HW262867  14.337  11.219  11.167
20324SOL     OW62868  12.652   7.645   4.822
20324SOL    HW162869  12.728   7.653   4.765
20324SOL    HW262870  12.662   7.560   4.865
20325SOL     OW62871  14.572   0.602   8.202
20325SOL    HW162872  14.540   0.535   8.142
20325SOL    HW262873  14.493   0.643   8.237
20326SOL     OW62874  13.599   5.695   4.735
20326SOL    HW162875  13.624   5.609   4.767
20326SOL    HW262876  13.536   5.728   4.799
20327SOL     OW62877   6.280  13.105  14.847
20327SOL    HW162878   6.357  13.156  14.873
20327SOL    HW262879   6.273  13.038   0.038
20328SOL     OW62880   7.817   6.224   1.530
20328SOL    HW162881   7.816   6.286   1.457
20328SOL    HW262882   7.736   6.242   1.578
20329SOL     OW62883  13.583   0.829   4.920
20329SOL    HW162884  13.600   0.784   4.837
20329SOL    HW262885  13.514   0.892   4.899
20330SOL     OW62886   0.878   6.319   9.342
20330SOL    HW162887   0.862   6.233   9.303
20330SOL    HW262888   0.800   6.338   9.393
20331SOL     OW62889   1.099   2.459   7.509
20331SOL    HW162890   1.156   2.382   7.510
20331SOL    HW262891   1.116   2.499   7.423
20332SOL     OW62892   4.694   7.983  12.290
20332SOL    HW162893   4.642   7.953  12.365
20332SOL    HW262894   4.678   8.077  12.286
20333SOL     OW62895   1.147   7.780  12.961
20333SOL    HW162896   1.056   7.811  12.965
20333SOL    HW262897   1.171   7.789  12.869
20334SOL     OW62898  13.209   5.894   1.634
20334SOL    HW162899  13.154   5.816   1.638
20334SOL    HW262900  13.153   5.965   1.667
20335SOL     OW62901   1.843   2.876   4.920
20335SOL    HW162902   1.805   2.815   4.984
20335SOL    HW262903   1.874   2.819   4.849
20336SOL     OW62904   9.328   8.384  11.058
20336SOL    HW162905   9.236   8.405  11.044
20336SOL    HW262906   9.326   8.301  11.106
20337SOL     OW62907  13.761   2.955   7.658
20337SOL    HW162908  13.723   2.867   7.667
20337SOL    HW262909  13.779   2.982   7.748
20338SOL     OW62910  10.854   3.610  14.614
20338SOL    HW162911  10.907   3.559  14.553
20338SOL    HW262912  10.768   3.615  14.571
20339SOL     OW62913   4.293   4.404   3.874
20339SOL    HW162914   4.266   4.494   3.893
20339SOL    HW262915   4.217   4.350   3.898
20340SOL     OW62916  10.814  12.268   1.451
20340SOL    HW162917  10.847  12.178   1.443
20340SOL    HW262918  10.893  12.322   1.444
20341SOL     OW62919   7.342   1.976   5.885
20341SOL    HW162920   7.362   1.968   5.792
20341SOL    HW262921   7.399   1.913   5.928
20342SOL     OW62922   0.297   1.470   7.017
20342SOL    HW162923   0.323   1.455   7.107
20342SOL    HW262924   0.261   1.386   6.988
20343SOL     OW62925  14.753  13.627  13.933
20343SOL    HW162926  14.758  13.531  13.926
20343SOL    HW262927  14.823  13.658  13.875
20344SOL     OW62928   4.892  13.689   1.134
20344SOL    HW162929   4.854  13.768   1.173
20344SOL    HW262930   4.984  13.691   1.161
20345SOL     OW62931  12.662  14.352  14.081
20345SOL    HW162932  12.672  14.435  14.129
20345SOL    HW262933  12.653  14.379  13.990
20346SOL     OW62934  14.016   2.333   9.132
20346SOL    HW162935  13.972   2.286   9.061
20346SOL    HW262936  13.944   2.374   9.180
20347SOL     OW62937  14.581   5.815   0.098
20347SOL    HW162938  14.666   5.773   0.111
20347SOL    HW262939  14.584   5.846   0.007
20348SOL     OW62940   1.927   5.997   7.259
20348SOL    HW162941   1.841   5.982   7.220
20348SOL    HW262942   1.914   6.072   7.317
20349SOL     OW62943   1.154   8.507   0.030
20349SOL    HW162944   1.107   8.533  14.828
20349SOL    HW262945   1.230   8.566   0.033
20350SOL     OW62946   0.529  11.702  14.832
20350SOL    HW162947   0.549  11.610  14.846
20350SOL    HW262948   0.447  11.701  14.782
20351SOL     OW62949  11.286  13.590   7.491
20351SOL    HW162950  11.346  13.664   7.494
20351SOL    HW262951  11.323  13.526   7.551
20352SOL     OW62952  14.005   1.415   8.722
20352SOL    HW162953  14.022   1.469   8.799
20352SOL    HW262954  13.967   1.334   8.757
20353SOL     OW62955  14.016   8.171   9.025
20353SOL    HW162956  13.932   8.126   9.034
20353SOL    HW262957  14.069   8.139   9.098
20354SOL     OW62958  11.583   9.156  11.226
20354SOL    HW162959  11.646   9.208  11.276
20354SOL    HW262960  11.637   9.103  11.167
20355SOL     OW62961   9.848   5.119  12.492
20355SOL    HW162962   9.833   5.038  12.539
20355SOL    HW262963   9.786   5.116  12.419
20356SOL     OW62964   9.207   6.041   1.691
20356SOL    HW162965   9.194   5.978   1.761
20356SOL    HW262966   9.181   5.994   1.611
20357SOL     OW62967  13.842   3.425   7.411
20357SOL    HW162968  13.902   3.353   7.432
20357SOL    HW262969  13.858   3.490   7.479
20358SOL     OW62970  12.605   9.004  11.841
20358SOL    HW162971  12.583   9.092  11.872
20358SOL    HW262972  12.571   9.002  11.752
20359SOL     OW62973   1.576  14.704   3.602
20359SOL    HW162974   1.610  14.777   3.551
20359SOL    HW262975   1.555  14.742   3.687
20360SOL     OW62976   8.926  14.388   3.166
20360SOL    HW162977   8.913  14.389   3.261
20360SOL    HW262978   8.968  14.472   3.147
20361SOL     OW62979   5.493   6.008   1.664
20361SOL    HW162980   5.550   6.075   1.702
20361SOL    HW262981   5.485   6.032   1.572
20362SOL     OW62982  12.926   2.471   9.394
20362SOL    HW162983  12.892   2.519   9.318
20362SOL    HW262984  12.856   2.476   9.459
20363SOL     OW62985   9.599   5.555   1.970
20363SOL    HW162986   9.542   5.588   2.038
20363SOL    HW262987   9.602   5.625   1.905
20364SOL     OW62988   3.297   0.000  10.141
20364SOL    HW162989   3.241  14.800  10.142
20364SOL    HW262990   3.279   0.043  10.225
20365SOL     OW62991   7.536   9.432   9.993
20365SOL    HW162992   7.614   9.481   9.968
20365SOL    HW262993   7.510   9.469  10.077
20366SOL     OW62994  10.009  10.755   5.498
20366SOL    HW162995  10.098  10.787   5.481
20366SOL    HW262996   9.998  10.765   5.593
20367SOL     OW62997   9.036   8.385  11.784
20367SOL    HW162998   9.023   8.350  11.696
20367SOL    HW262999   9.055   8.309  11.838
20368SOL     OW63000   1.453  14.276   3.011
20368SOL    HW163001   1.364  14.242   3.023
20368SOL    HW263002   1.495  14.215   2.951
20369SOL     OW63003   7.711  11.222   3.260
20369SOL    HW163004   7.758  11.201   3.180
20369SOL    HW263005   7.686  11.314   3.250
20370SOL     OW63006   7.131  14.779   2.282
20370SOL    HW163007   7.202  14.717   2.268
20370SOL    HW263008   7.119  14.822   2.197
20371SOL     OW63009   0.433  13.414   5.824
20371SOL    HW163010   0.518  13.435   5.863
20371SOL    HW263011   0.420  13.482   5.758
20372SOL     OW63012  11.505  14.190   6.669
20372SOL    HW163013  11.479  14.233   6.750
20372SOL    HW263014  11.480  14.252   6.600
20373SOL     OW63015  12.024   3.785   2.312
20373SOL    HW163016  11.957   3.752   2.372
20373SOL    HW263017  11.975   3.829   2.243
20374SOL     OW63018  11.498   3.217   0.400
20374SOL    HW163019  11.554   3.150   0.362
20374SOL    HW263020  11.528   3.225   0.491
20375SOL     OW63021   6.790   3.369  12.188
20375SOL    HW163022   6.723   3.382  12.255
20375SOL    HW263023   6.867   3.338  12.235
20376SOL     OW63024  10.044   4.789   4.874
20376SOL    HW163025  10.042   4.694   4.872
20376SOL    HW263026   9.957   4.816   4.844
20377SOL     OW63027   3.408   6.779   5.306
20377SOL    HW163028   3.361   6.713   5.254
20377SOL    HW263029   3.392   6.861   5.260
20378SOL     OW63030   7.843   0.220   6.520
20378SOL    HW163031   7.860   0.200   6.428
20378SOL    HW263032   7.750   0.242   6.524
20379SOL     OW63033  11.200   2.582   4.723
20379SOL    HW163034  11.129   2.567   4.661
20379SOL    HW263035  11.278   2.550   4.678
20380SOL     OW63036   3.662   1.378  14.300
20380SOL    HW163037   3.669   1.439  14.374
20380SOL    HW263038   3.729   1.312  14.317
20381SOL     OW63039   8.419   2.488   3.085
20381SOL    HW163040   8.420   2.392   3.081
20381SOL    HW263041   8.511   2.513   3.089
20382SOL     OW63042  14.454   6.114   5.210
20382SOL    HW163043  14.424   6.113   5.119
20382SOL    HW263044  14.461   6.207   5.232
20383SOL     OW63045   7.866   0.810  13.858
20383SOL    HW163046   7.844   0.896  13.823
20383SOL    HW263047   7.937   0.779  13.801
20384SOL     OW63048   7.910   4.430  12.653
20384SOL    HW163049   7.955   4.400  12.574
20384SOL    HW263050   7.978   4.429  12.721
20385SOL     OW63051  13.214   5.110  13.039
20385SOL    HW163052  13.128   5.115  13.081
20385SOL    HW263053  13.230   5.199  13.007
20386SOL     OW63054   7.970  14.733   8.919
20386SOL    HW163055   7.889  14.774   8.889
20386SOL    HW263056   8.021  14.719   8.839
20387SOL     OW63057  11.939   0.762   9.724
20387SOL    HW163058  11.977   0.849   9.738
20387SOL    HW263059  11.946   0.747   9.630
20388SOL     OW63060   4.248   2.285  13.048
20388SOL    HW163061   4.284   2.309  12.963
20388SOL    HW263062   4.291   2.344  13.110
20389SOL     OW63063  11.753   6.195   9.565
20389SOL    HW163064  11.687   6.136   9.531
20389SOL    HW263065  11.756   6.267   9.501
20390SOL     OW63066   0.789   0.449   1.612
20390SOL    HW163067   0.835   0.522   1.652
20390SOL    HW263068   0.749   0.402   1.685
20391SOL     OW63069   5.597   5.995   5.387
20391SOL    HW163070   5.600   6.090   5.397
20391SOL    HW263071   5.505   5.976   5.369
20392SOL     OW63072   0.852  11.585  12.802
20392SOL    HW163073   0.875  11.525  12.873
20392SOL    HW263074   0.836  11.668  12.845
20393SOL     OW63075  14.057   9.425   6.561
20393SOL    HW163076  14.085   9.497   6.616
20393SOL    HW263077  14.032   9.355   6.622
20394SOL     OW63078  13.487  11.221   4.086
20394SOL    HW163079  13.510  11.194   4.175
20394SOL    HW263080  13.570  11.245   4.045
20395SOL     OW63081   9.273   6.852   2.375
20395SOL    HW163082   9.198   6.910   2.389
20395SOL    HW263083   9.315   6.845   2.461
20396SOL     OW63084  13.256   4.273   9.101
20396SOL    HW163085  13.196   4.309   9.036
20396SOL    HW263086  13.255   4.179   9.085
20397SOL     OW63087  13.055   3.495  14.870
20397SOL    HW163088  13.043   3.408  14.833
20397SOL    HW263089  13.001   3.495   0.072
20398SOL     OW63090  12.379  13.196  14.540
20398SOL    HW163091  12.386  13.246  14.622
20398SOL    HW263092  12.306  13.236  14.493
20399SOL     OW63093  11.605   8.632  10.505
20399SOL    HW163094  11.634   8.600  10.420
20399SOL    HW263095  11.527   8.685  10.485
20400SOL     OW63096   1.572  11.524  13.488
20400SOL    HW163097   1.541  11.469  13.417
20400SOL    HW263098   1.629  11.589  13.446
20401SOL     OW63099   2.151   5.287   7.276
20401SOL    HW163100   2.215   5.357   7.287
20401SOL    HW263101   2.078   5.329   7.230
20402SOL     OW63102   0.823   3.515   7.979
20402SOL    HW163103   0.771   3.447   7.936
20402SOL    HW263104   0.914   3.491   7.961
20403SOL     OW63105   7.823  10.862   3.040
20403SOL    HW163106   7.857  10.813   3.114
20403SOL    HW263107   7.838  10.954   3.064
20404SOL     OW63108   9.361  14.339  11.012
20404SOL    HW163109   9.302  14.263  11.011
20404SOL    HW263110   9.416  14.328  10.935
20405SOL     OW63111   3.061  11.919   6.906
20405SOL    HW163112   3.111  11.844   6.939
20405SOL    HW263113   2.971  11.901   6.932
20406SOL     OW63114  11.392  11.500  13.001
20406SOL    HW163115  11.473  11.450  13.010
20406SOL    HW263116  11.396  11.534  12.912
20407SOL     OW63117   6.488  14.339   9.357
20407SOL    HW163118   6.468  14.258   9.404
20407SOL    HW263119   6.452  14.408   9.413
20408SOL     OW63120   2.213  13.824   5.006
20408SOL    HW163121   2.215  13.913   5.042
20408SOL    HW263122   2.151  13.778   5.063
20409SOL     OW63123   9.036  13.440  12.494
20409SOL    HW163124   9.079  13.401  12.417
20409SOL    HW263125   9.107  13.485  12.541
20410SOL     OW63126   4.448  11.406   6.921
20410SOL    HW163127   4.507  11.395   6.996
20410SOL    HW263128   4.369  11.359   6.946
20411SOL     OW63129  11.480   4.887   5.924
20411SOL    HW163130  11.532   4.900   5.845
20411SOL    HW263131  11.540   4.910   5.996
20412SOL     OW63132   8.667   1.051  12.854
20412SOL    HW163133   8.671   1.146  12.855
20412SOL    HW263134   8.612   1.029  12.778
20413SOL     OW63135  12.386  12.574   1.884
20413SOL    HW163136  12.372  12.653   1.937
20413SOL    HW263137  12.346  12.504   1.935
20414SOL     OW63138  12.012   9.407  11.801
20414SOL    HW163139  12.003   9.327  11.750
20414SOL    HW263140  11.958   9.393  11.879
20415SOL     OW63141   7.925  10.407  10.275
20415SOL    HW163142   7.907  10.372  10.362
20415SOL    HW263143   8.020  10.413  10.271
20416SOL     OW63144   4.952  12.423   4.096
20416SOL    HW163145   4.936  12.471   4.015
20416SOL    HW263146   5.034  12.376   4.081
20417SOL     OW63147  10.817  12.585  14.194
20417SOL    HW163148  10.828  12.678  14.173
20417SOL    HW263149  10.759  12.585  14.270
20418SOL     OW63150  11.707   9.733   2.750
20418SOL    HW163151  11.718   9.647   2.710
20418SOL    HW263152  11.796   9.759   2.776
20419SOL     OW63153   0.074  13.941   5.855
20419SOL    HW163154   0.106  13.962   5.943
20419SOL    HW263155   0.036  13.854   5.863
20420SOL     OW63156   2.084  11.677   2.373
20420SOL    HW163157   2.051  11.708   2.457
20420SOL    HW263158   2.138  11.750   2.340
20421SOL     OW63159   9.094   6.227  10.718
20421SOL    HW163160   9.022   6.285  10.743
20421SOL    HW263161   9.173   6.281  10.727
20422SOL     OW63162  12.631   7.377   5.788
20422SOL    HW163163  12.709   7.417   5.827
20422SOL    HW263164  12.659   7.288   5.765
20423SOL     OW63165   1.517   3.165   9.152
20423SOL    HW163166   1.554   3.152   9.065
20423SOL    HW263167   1.566   3.239   9.189
20424SOL     OW63168   3.261  13.313   7.309
20424SOL    HW163169   3.205  13.257   7.256
20424SOL    HW263170   3.226  13.307   7.397
20425SOL     OW63171  14.631   7.498  11.943
20425SOL    HW163172  14.666   7.488  12.032
20425SOL    HW263173  14.708   7.491  11.887
20426SOL     OW63174   7.833   3.610   2.121
20426SOL    HW163175   7.868   3.627   2.208
20426SOL    HW263176   7.881   3.534   2.090
20427SOL     OW63177   2.777   3.229  12.856
20427SOL    HW163178   2.826   3.202  12.934
20427SOL    HW263179   2.687   3.241  12.887
20428SOL     OW63180   1.681   2.465   9.195
20428SOL    HW163181   1.766   2.444   9.157
20428SOL    HW263182   1.699   2.536   9.256
20429SOL     OW63183   6.964   0.887  14.411
20429SOL    HW163184   6.940   0.955  14.347
20429SOL    HW263185   6.975   0.808  14.358
20430SOL     OW63186  13.821  11.777  14.764
20430SOL    HW163187  13.783  11.820  14.687
20430SOL    HW263188  13.785  11.688  14.762
20431SOL     OW63189  11.476   7.918  10.265
20431SOL    HW163190  11.494   7.964  10.347
20431SOL    HW263191  11.444   7.832  10.291
20432SOL     OW63192   2.914   0.188  10.306
20432SOL    HW163193   3.004   0.171  10.278
20432SOL    HW263194   2.922   0.219  10.396
20433SOL     OW63195   8.302   0.928   8.620
20433SOL    HW163196   8.233   0.993   8.608
20433SOL    HW263197   8.359   0.938   8.544
20434SOL     OW63198   5.721   6.146   7.943
20434SOL    HW163199   5.792   6.083   7.958
20434SOL    HW263200   5.647   6.111   7.993
20435SOL     OW63201  13.825   2.365  11.513
20435SOL    HW163202  13.738   2.325  11.507
20435SOL    HW263203  13.851   2.353  11.604
20436SOL     OW63204   1.398  11.258   6.024
20436SOL    HW163205   1.311  11.286   6.052
20436SOL    HW263206   1.409  11.296   5.937
20437SOL     OW63207   5.367   5.623   5.450
20437SOL    HW163208   5.379   5.534   5.418
20437SOL    HW263209   5.454   5.650   5.480
20438SOL     OW63210   6.103   5.992  13.268
20438SOL    HW163211   6.086   6.082  13.238
20438SOL    HW263212   6.016   5.953  13.276
20439SOL     OW63213   4.042  10.535   8.529
20439SOL    HW163214   4.073  10.625   8.539
20439SOL    HW263215   3.953  10.536   8.563
20440SOL     OW63216   0.300   2.346   6.911
20440SOL    HW163217   0.276   2.329   7.002
20440SOL    HW263218   0.222   2.324   6.861
20441SOL     OW63219   1.830   3.990  10.489
20441SOL    HW163220   1.909   3.941  10.511
20441SOL    HW263221   1.767   3.923  10.465
20442SOL     OW63222   9.716   7.190   8.848
20442SOL    HW163223   9.803   7.155   8.831
20442SOL    HW263224   9.682   7.213   8.761
20443SOL     OW63225  13.705   7.071   9.957
20443SOL    HW163226  13.640   7.015   9.999
20443SOL    HW263227  13.778   7.073  10.019
20444SOL     OW63228   9.499  11.149   5.026
20444SOL    HW163229   9.522  11.235   5.061
20444SOL    HW263230   9.510  11.158   4.931
20445SOL     OW63231   0.581   0.042   1.194
20445SOL    HW163232   0.532   0.002   1.265
20445SOL    HW263233   0.523   0.112   1.162
20446SOL     OW63234   2.836   5.378   8.440
20446SOL    HW163235   2.754   5.370   8.391
20446SOL    HW263236   2.866   5.467   8.422
20447SOL     OW63237  14.807   1.420  10.243
20447SOL    HW163238  14.719   1.394  10.270
20447SOL    HW263239  14.865   1.372  10.303
20448SOL     OW63240   9.957  11.710   3.654
20448SOL    HW163241  10.008  11.790   3.647
20448SOL    HW263242   9.868  11.736   3.628
20449SOL     OW63243  11.131  11.919   7.744
20449SOL    HW163244  11.064  11.865   7.785
20449SOL    HW263245  11.208  11.909   7.800
20450SOL     OW63246  14.567  11.811  11.383
20450SOL    HW163247  14.543  11.880  11.321
20450SOL    HW263248  14.557  11.852  11.469
20451SOL     OW63249  11.019  11.600   5.385
20451SOL    HW163250  11.106  11.585   5.347
20451SOL    HW263251  11.010  11.695   5.387
20452SOL     OW63252   5.399   1.428   4.457
20452SOL    HW163253   5.457   1.362   4.419
20452SOL    HW263254   5.412   1.421   4.551
20453SOL     OW63255   6.532   3.591  11.706
20453SOL    HW163256   6.487   3.625  11.629
20453SOL    HW263257   6.465   3.542  11.754
20454SOL     OW63258  12.115   2.844   8.342
20454SOL    HW163259  12.131   2.872   8.252
20454SOL    HW263260  12.154   2.914   8.395
20455SOL     OW63261  11.208  11.705   6.580
20455SOL    HW163262  11.206  11.660   6.664
20455SOL    HW263263  11.218  11.797   6.602
20456SOL     OW63264   1.430   8.213  14.656
20456SOL    HW163265   1.477   8.266  14.721
20456SOL    HW263266   1.390   8.143  14.707
20457SOL     OW63267   3.905  10.812   8.804
20457SOL    HW163268   3.817  10.791   8.774
20457SOL    HW263269   3.894  10.890   8.859
20458SOL     OW63270   7.042   8.941   1.149
20458SOL    HW163271   7.062   8.849   1.133
20458SOL    HW263272   6.954   8.941   1.186
20459SOL     OW63273   0.041  13.714  10.991
20459SOL    HW163274  14.849  13.677  11.046
20459SOL    HW263275   0.110  13.647  10.993
20460SOL     OW63276  12.813  13.421   4.840
20460SOL    HW163277  12.772  13.507   4.847
20460SOL    HW263278  12.898  13.438   4.801
20461SOL     OW63279   5.483   2.551   4.561
20461SOL    HW163280   5.542   2.568   4.635
20461SOL    HW263281   5.500   2.622   4.500
20462SOL     OW63282   7.745   4.615  14.173
20462SOL    HW163283   7.653   4.604  14.150
20462SOL    HW263284   7.752   4.577  14.261
20463SOL     OW63285   0.874   1.354   5.842
20463SOL    HW163286   0.900   1.377   5.931
20463SOL    HW263287   0.802   1.292   5.853
20464SOL     OW63288   3.918   4.091  10.988
20464SOL    HW163289   3.949   4.166  10.937
20464SOL    HW263290   3.971   4.018  10.958
20465SOL     OW63291   0.706   5.623  13.549
20465SOL    HW163292   0.730   5.667  13.467
20465SOL    HW263293   0.611   5.635  13.556
20466SOL     OW63294   7.739  12.083   7.162
20466SOL    HW163295   7.785  12.166   7.178
20466SOL    HW263296   7.665  12.084   7.223
20467SOL     OW63297  12.037  11.333  12.375
20467SOL    HW163298  12.084  11.261  12.418
20467SOL    HW263299  12.101  11.404  12.372
20468SOL     OW63300  13.979  12.581  11.682
20468SOL    HW163301  14.038  12.615  11.615
20468SOL    HW263302  13.919  12.523  11.635
20469SOL     OW63303   8.926  10.012   6.398
20469SOL    HW163304   8.983  10.003   6.322
20469SOL    HW263305   8.984  10.035   6.470
20470SOL     OW63306   8.538   4.983  12.513
20470SOL    HW163307   8.522   4.892  12.540
20470SOL    HW263308   8.456   5.010  12.471
20471SOL     OW63309   4.280  12.781   3.914
20471SOL    HW163310   4.225  12.835   3.970
20471SOL    HW263311   4.363  12.829   3.908
20472SOL     OW63312  14.121   4.063  14.639
20472SOL    HW163313  14.052   4.116  14.598
20472SOL    HW263314  14.139   3.994  14.576
20473SOL     OW63315   2.355   3.891  12.139
20473SOL    HW163316   2.396   3.843  12.211
20473SOL    HW263317   2.407   3.971  12.131
20474SOL     OW63318  10.241   5.937  11.450
20474SOL    HW163319  10.327   5.897  11.446
20474SOL    HW263320  10.214   5.944  11.359
20475SOL     OW63321   2.463  10.567   2.635
20475SOL    HW163322   2.418  10.533   2.558
20475SOL    HW263323   2.396  10.618   2.681
20476SOL     OW63324   4.196   6.340   1.246
20476SOL    HW163325   4.116   6.333   1.194
20476SOL    HW263326   4.198   6.259   1.297
20477SOL     OW63327  13.679   4.385   1.466
20477SOL    HW163328  13.735   4.458   1.491
20477SOL    HW263329  13.602   4.393   1.523
20478SOL     OW63330   0.928   6.183   9.939
20478SOL    HW163331   1.009   6.232   9.925
20478SOL    HW263332   0.860   6.239   9.902
20479SOL     OW63333   2.768  12.810   5.296
20479SOL    HW163334   2.831  12.833   5.227
20479SOL    HW263335   2.814  12.829   5.377
20480SOL     OW63336  13.355   9.096   0.582
20480SOL    HW163337  13.350   9.011   0.538
20480SOL    HW263338  13.273   9.139   0.559
20481SOL     OW63339   7.340   3.179  13.644
20481SOL    HW163340   7.377   3.185  13.555
20481SOL    HW263341   7.416   3.185  13.702
20482SOL     OW63342   3.895   8.339  13.095
20482SOL    HW163343   3.960   8.271  13.113
20482SOL    HW263344   3.814   8.307  13.134
20483SOL     OW63345   5.795   0.687   6.646
20483SOL    HW163346   5.859   0.753   6.619
20483SOL    HW263347   5.848   0.620   6.691
20484SOL     OW63348   3.430   3.663   2.580
20484SOL    HW163349   3.432   3.569   2.599
20484SOL    HW263350   3.522   3.689   2.574
20485SOL     OW63351   3.697   5.840  13.023
20485SOL    HW163352   3.637   5.807  12.956
20485SOL    HW263353   3.653   5.819  13.106
20486SOL     OW63354  12.758  10.083   8.865
20486SOL    HW163355  12.849  10.076   8.896
20486SOL    HW263356  12.734   9.993   8.844
20487SOL     OW63357  12.873   8.642   3.588
20487SOL    HW163358  12.916   8.571   3.540
20487SOL    HW263359  12.883   8.718   3.531
20488SOL     OW63360  10.201   2.285   5.530
20488SOL    HW163361  10.141   2.337   5.585
20488SOL    HW263362  10.243   2.225   5.592
20489SOL     OW63363   1.467  10.561   5.341
20489SOL    HW163364   1.520  10.536   5.416
20489SOL    HW263365   1.522  10.621   5.291
20490SOL     OW63366   5.587   8.761   4.969
20490SOL    HW163367   5.539   8.822   4.913
20490SOL    HW263368   5.630   8.816   5.034
20491SOL     OW63369   3.422   3.633  14.537
20491SOL    HW163370   3.379   3.563  14.587
20491SOL    HW263371   3.364   3.708  14.545
20492SOL     OW63372   0.231  12.862  14.829
20492SOL    HW163373   0.238  12.770  14.804
20492SOL    HW263374   0.307  12.877   0.007
20493SOL     OW63375   6.683   5.796  11.663
20493SOL    HW163376   6.685   5.754  11.577
20493SOL    HW263377   6.593   5.785  11.693
20494SOL     OW63378  11.863   8.511   3.293
20494SOL    HW163379  11.829   8.426   3.267
20494SOL    HW263380  11.910   8.494   3.375
20495SOL     OW63381   6.159  12.715  10.972
20495SOL    HW163382   6.089  12.759  11.020
20495SOL    HW263383   6.180  12.775  10.900
20496SOL     OW63384  14.221   8.639   8.301
20496SOL    HW163385  14.197   8.731   8.319
20496SOL    HW263386  14.311   8.643   8.270
20497SOL     OW63387  11.526   7.468   5.198
20497SOL    HW163388  11.580   7.440   5.125
20497SOL    HW263389  11.538   7.562   5.204
20498SOL     OW63390   6.864   2.898  10.570
20498SOL    HW163391   6.894   2.989  10.558
20498SOL    HW263392   6.944   2.847  10.574
20499SOL     OW63393   8.352   4.389   4.463
20499SOL    HW163394   8.342   4.483   4.444
20499SOL    HW263395   8.377   4.386   4.555
20500SOL     OW63396  12.770   0.033  10.413
20500SOL    HW163397  12.720  14.838  10.377
20500SOL    HW263398  12.805   0.078  10.336
20501SOL     OW63399   1.644   5.804   1.944
20501SOL    HW163400   1.733   5.813   1.979
20501SOL    HW263401   1.587   5.820   2.019
20502SOL     OW63402   5.934   4.505  11.820
20502SOL    HW163403   5.908   4.597  11.816
20502SOL    HW263404   6.015   4.504  11.871
20503SOL     OW63405   8.443   0.091   9.125
20503SOL    HW163406   8.362   0.040   9.122
20503SOL    HW263407   8.440   0.137   9.209
20504SOL     OW63408  10.570  13.100  11.512
20504SOL    HW163409  10.606  13.019  11.548
20504SOL    HW263410  10.642  13.162  11.516
20505SOL     OW63411   1.239   9.166   2.819
20505SOL    HW163412   1.146   9.157   2.801
20505SOL    HW263413   1.280   9.163   2.732
20506SOL     OW63414   5.511   6.597   8.869
20506SOL    HW163415   5.454   6.521   8.859
20506SOL    HW263416   5.452   6.667   8.897
20507SOL     OW63417   0.935  14.807  12.868
20507SOL    HW163418   0.991  14.804  12.946
20507SOL    HW263419   0.909   0.022  12.862
20508SOL     OW63420   9.459   6.397   8.126
20508SOL    HW163421   9.482   6.399   8.033
20508SOL    HW263422   9.380   6.451   8.133
20509SOL     OW63423   0.847   2.058   0.214
20509SOL    HW163424   0.756   2.079   0.197
20509SOL    HW263425   0.858   2.071   0.309
20510SOL     OW63426   0.015  12.321   5.811
20510SOL    HW163427  14.863  12.381   5.743
20510SOL    HW263428  14.825  12.254   5.815
20511SOL     OW63429   1.235   4.354   3.888
20511SOL    HW163430   1.265   4.375   3.799
20511SOL    HW263431   1.265   4.426   3.942
20512SOL     OW63432  10.472   4.845   8.359
20512SOL    HW163433  10.475   4.757   8.320
20512SOL    HW263434  10.538   4.895   8.310
20513SOL     OW63435  12.230  13.230  10.931
20513SOL    HW163436  12.323  13.227  10.953
20513SOL    HW263437  12.217  13.317  10.893
20514SOL     OW63438   5.654  14.542   7.958
20514SOL    HW163439   5.716  14.469   7.963
20514SOL    HW263440   5.577  14.505   7.915
20515SOL     OW63441   2.894  13.865   8.116
20515SOL    HW163442   2.831  13.923   8.074
20515SOL    HW263443   2.955  13.923   8.161
20516SOL     OW63444  12.965  13.520  10.377
20516SOL    HW163445  12.986  13.613  10.373
20516SOL    HW263446  13.047  13.476  10.356
20517SOL     OW63447   9.425   9.131   3.133
20517SOL    HW163448   9.385   9.186   3.200
20517SOL    HW263449   9.401   9.042   3.157
20518SOL     OW63450   7.911   1.994   5.019
20518SOL    HW163451   7.952   1.987   5.105
20518SOL    HW263452   7.971   2.050   4.969
20519SOL     OW63453   6.275   6.917   7.342
20519SOL    HW163454   6.194   6.882   7.379
20519SOL    HW263455   6.337   6.845   7.348
20520SOL     OW63456   5.023   9.701   8.822
20520SOL    HW163457   5.092   9.635   8.833
20520SOL    HW263458   4.957   9.678   8.887
20521SOL     OW63459   1.214   7.922   2.275
20521SOL    HW163460   1.173   7.879   2.350
20521SOL    HW263461   1.141   7.949   2.219
20522SOL     OW63462   3.898   1.944   6.628
20522SOL    HW163463   3.831   1.887   6.665
20522SOL    HW263464   3.856   1.985   6.552
20523SOL     OW63465   7.906   2.579   0.381
20523SOL    HW163466   7.937   2.507   0.436
20523SOL    HW263467   7.818   2.552   0.354
20524SOL     OW63468   6.359   1.116   5.745
20524SOL    HW163469   6.383   1.101   5.654
20524SOL    HW263470   6.283   1.060   5.760
20525SOL     OW63471   4.021  11.427  14.800
20525SOL    HW163472   4.001  11.492  14.867
20525SOL    HW263473   3.941  11.374  14.794
20526SOL     OW63474  12.494  11.963  10.480
20526SOL    HW163475  12.528  12.052  10.495
20526SOL    HW263476  12.550  11.928  10.411
20527SOL     OW63477   3.341   6.664   4.261
20527SOL    HW163478   3.357   6.715   4.182
20527SOL    HW263479   3.395   6.705   4.328
20528SOL     OW63480   2.677   1.311   9.805
20528SOL    HW163481   2.613   1.317   9.876
20528SOL    HW263482   2.724   1.229   9.822
20529SOL     OW63483   9.082   7.634  13.691
20529SOL    HW163484   8.991   7.654  13.671
20529SOL    HW263485   9.132   7.699  13.643
20530SOL     OW63486   1.290   6.037   0.948
20530SOL    HW163487   1.213   6.029   1.005
20530SOL    HW263488   1.304   6.131   0.941
20531SOL     OW63489   7.238  12.756   6.842
20531SOL    HW163490   7.198  12.697   6.906
20531SOL    HW263491   7.230  12.843   6.882
20532SOL     OW63492  14.739  11.018   6.174
20532SOL    HW163493  14.698  10.939   6.137
20532SOL    HW263494  14.779  11.062   6.099
20533SOL     OW63495   8.441   6.240  10.066
20533SOL    HW163496   8.417   6.215  10.156
20533SOL    HW263497   8.375   6.304  10.041
20534SOL     OW63498   1.442   9.909   9.380
20534SOL    HW163499   1.522   9.943   9.422
20534SOL    HW263500   1.459   9.919   9.286
20535SOL     OW63501   1.245  11.032   7.325
20535SOL    HW163502   1.296  11.107   7.295
20535SOL    HW263503   1.165  11.070   7.360
20536SOL     OW63504  14.513   3.458   3.660
20536SOL    HW163505  14.491   3.526   3.597
20536SOL    HW263506  14.581   3.496   3.715
20537SOL     OW63507   8.608   5.072  14.199
20537SOL    HW163508   8.577   5.102  14.284
20537SOL    HW263509   8.704   5.080  14.203
20538SOL     OW63510   2.391   1.986  14.534
20538SOL    HW163511   2.427   1.997  14.622
20538SOL    HW263512   2.298   1.973  14.548
20539SOL     OW63513  10.710  10.546   8.955
20539SOL    HW163514  10.800  10.540   8.986
20539SOL    HW263515  10.692  10.461   8.916
20540SOL     OW63516   1.822   8.239   3.301
20540SOL    HW163517   1.794   8.263   3.213
20540SOL    HW263518   1.762   8.286   3.359
20541SOL     OW63519  11.276  11.286  11.916
20541SOL    HW163520  11.314  11.199  11.909
20541SOL    HW263521  11.319  11.336  11.846
20542SOL     OW63522  13.794   3.430   0.822
20542SOL    HW163523  13.852   3.436   0.746
20542SOL    HW263524  13.787   3.520   0.853
20543SOL     OW63525  11.653   9.028  12.869
20543SOL    HW163526  11.665   9.044  12.962
20543SOL    HW263527  11.649   9.116  12.830
20544SOL     OW63528   8.674   0.586   4.329
20544SOL    HW163529   8.720   0.542   4.401
20544SOL    HW263530   8.676   0.523   4.257
20545SOL     OW63531   9.163  11.880   3.108
20545SOL    HW163532   9.195  11.898   3.020
20545SOL    HW263533   9.200  11.949   3.163
20546SOL     OW63534   9.461  11.428   2.663
20546SOL    HW163535   9.454  11.337   2.693
20546SOL    HW263536   9.529  11.466   2.717
20547SOL     OW63537   9.102   8.147  11.970
20547SOL    HW163538   9.078   8.107  12.053
20547SOL    HW263539   9.055   8.096  11.904
20548SOL     OW63540   6.635   7.880  12.989
20548SOL    HW163541   6.590   7.808  13.032
20548SOL    HW263542   6.666   7.844  12.905
20549SOL     OW63543   2.147  12.024  11.123
20549SOL    HW163544   2.170  12.036  11.031
20549SOL    HW263545   2.097  12.102  11.146
20550SOL     OW63546   4.904  11.018   5.072
20550SOL    HW163547   4.869  11.101   5.041
20550SOL    HW263548   4.997  11.020   5.049
20551SOL     OW63549  14.043   8.921   1.681
20551SOL    HW163550  13.984   8.962   1.618
20551SOL    HW263551  14.076   8.994   1.734
20552SOL     OW63552  11.217  12.398  12.100
20552SOL    HW163553  11.191  12.381  12.191
20552SOL    HW263554  11.153  12.351  12.048
20553SOL     OW63555  13.393  13.637   5.475
20553SOL    HW163556  13.390  13.561   5.417
20553SOL    HW263557  13.485  13.641   5.503
20554SOL     OW63558   1.615   2.821   2.159
20554SOL    HW163559   1.662   2.886   2.107
20554SOL    HW263560   1.611   2.743   2.102
20555SOL     OW63561   3.333   2.174  12.945
20555SOL    HW163562   3.255   2.123  12.923
20555SOL    HW263563   3.308   2.222  13.024
20556SOL     OW63564   9.644   0.606   0.337
20556SOL    HW163565   9.576   0.636   0.276
20556SOL    HW263566   9.706   0.558   0.282
20557SOL     OW63567   0.374  12.833   9.489
20557SOL    HW163568   0.324  12.881   9.556
20557SOL    HW263569   0.461  12.822   9.528
20558SOL     OW63570   7.560   9.115   0.961
20558SOL    HW163571   7.580   9.028   0.995
20558SOL    HW263572   7.478   9.105   0.914
20559SOL     OW63573   2.380   0.105   0.040
20559SOL    HW163574   2.423   0.156   0.109
20559SOL    HW263575   2.432   0.024   0.035
20560SOL     OW63576  13.877   3.923  12.370
20560SOL    HW163577  13.859   4.016  12.385
20560SOL    HW263578  13.842   3.880  12.448
20561SOL     OW63579  12.702  13.792   6.442
20561SOL    HW163580  12.727  13.831   6.525
20561SOL    HW263581  12.690  13.867   6.383
20562SOL     OW63582  14.456   2.552   3.322
20562SOL    HW163583  14.513   2.578   3.394
20562SOL    HW263584  14.389   2.620   3.318
20563SOL     OW63585  10.444  11.567  11.766
20563SOL    HW163586  10.480  11.508  11.832
20563SOL    HW263587  10.513  11.632  11.752
20564SOL     OW63588  10.528  12.055  12.671
20564SOL    HW163589  10.467  12.129  12.673
20564SOL    HW263590  10.473  11.979  12.656
20565SOL     OW63591  10.966   9.395   1.968
20565SOL    HW163592  10.921   9.343   1.901
20565SOL    HW263593  11.054   9.409   1.933
20566SOL     OW63594  14.542  12.750   4.186
20566SOL    HW163595  14.474  12.749   4.119
20566SOL    HW263596  14.546  12.842   4.214
20567SOL     OW63597   8.498  14.219  13.269
20567SOL    HW163598   8.450  14.286  13.317
20567SOL    HW263599   8.469  14.228  13.178
20568SOL     OW63600  12.986   4.267   5.281
20568SOL    HW163601  12.974   4.287   5.188
20568SOL    HW263602  12.932   4.189   5.295
20569SOL     OW63603  10.665   2.336   6.474
20569SOL    HW163604  10.594   2.385   6.515
20569SOL    HW263605  10.719   2.402   6.431
20570SOL     OW63606   7.473   0.118   6.443
20570SOL    HW163607   7.432   0.177   6.506
20570SOL    HW263608   7.531   0.175   6.391
20571SOL     OW63609  14.173   3.594  14.004
20571SOL    HW163610  14.086   3.635  14.003
20571SOL    HW263611  14.217   3.632  14.080
20572SOL     OW63612   8.847  12.406   9.880
20572SOL    HW163613   8.862  12.382   9.972
20572SOL    HW263614   8.771  12.464   9.882
20573SOL     OW63615  13.797   8.588   9.287
20573SOL    HW163616  13.743   8.603   9.364
20573SOL    HW263617  13.887   8.589   9.320
20574SOL     OW63618   1.680  11.441   3.225
20574SOL    HW163619   1.676  11.366   3.166
20574SOL    HW263620   1.756  11.425   3.280
20575SOL     OW63621   8.429  12.135   7.574
20575SOL    HW163622   8.381  12.195   7.631
20575SOL    HW263623   8.489  12.089   7.633
20576SOL     OW63624   1.109   0.960   0.245
20576SOL    HW163625   1.038   0.913   0.288
20576SOL    HW263626   1.128   0.908   0.167
20577SOL     OW63627   7.173   2.210   8.983
20577SOL    HW163628   7.142   2.300   8.996
20577SOL    HW263629   7.150   2.165   9.064
20578SOL     OW63630  12.253   8.014   1.997
20578SOL    HW163631  12.331   8.036   2.048
20578SOL    HW263632  12.286   7.996   1.909
20579SOL     OW63633  14.694   3.397   8.782
20579SOL    HW163634  14.757   3.367   8.717
20579SOL    HW263635  14.681   3.322   8.839
20580SOL     OW63636   6.545  11.729   2.289
20580SOL    HW163637   6.475  11.669   2.316
20580SOL    HW263638   6.616  11.712   2.350
20581SOL     OW63639   2.516   8.030   3.795
20581SOL    HW163640   2.568   7.951   3.814
20581SOL    HW263641   2.437   8.020   3.848
20582SOL     OW63642   9.696  13.938   0.655
20582SOL    HW163643   9.663  13.949   0.566
20582SOL    HW263644   9.777  13.887   0.644
20583SOL     OW63645   4.835   8.864  12.533
20583SOL    HW163646   4.920   8.821  12.541
20583SOL    HW263647   4.795   8.856  12.620
20584SOL     OW63648   2.564   0.311   4.190
20584SOL    HW163649   2.505   0.364   4.244
20584SOL    HW263650   2.636   0.287   4.249
20585SOL     OW63651   7.347  10.774   2.979
20585SOL    HW163652   7.252  10.762   2.980
20585SOL    HW263653   7.383  10.689   3.004
20586SOL     OW63654  14.644  13.908   5.832
20586SOL    HW163655  14.615  13.959   5.756
20586SOL    HW263656  14.617  13.818   5.813
20587SOL     OW63657   9.044   2.739   1.328
20587SOL    HW163658   9.092   2.807   1.375
20587SOL    HW263659   9.085   2.657   1.354
20588SOL     OW63660  10.829   8.636   0.036
20588SOL    HW163661  10.794   8.720   0.007
20588SOL    HW263662  10.758   8.595   0.085
20589SOL     OW63663  13.123   2.778   7.629
20589SOL    HW163664  13.076   2.861   7.641
20589SOL    HW263665  13.206   2.804   7.589
20590SOL     OW63666   0.426   5.690  12.182
20590SOL    HW163667   0.419   5.655  12.093
20590SOL    HW263668   0.436   5.613  12.237
20591SOL     OW63669   4.720   2.059   7.463
20591SOL    HW163670   4.692   1.987   7.406
20591SOL    HW263671   4.746   2.016   7.544
20592SOL     OW63672   7.054   4.341   4.549
20592SOL    HW163673   6.960   4.333   4.534
20592SOL    HW263674   7.092   4.264   4.507
20593SOL     OW63675   0.487  12.537  14.482
20593SOL    HW163676   0.490  12.490  14.565
20593SOL    HW263677   0.435  12.615  14.500
20594SOL     OW63678  14.669  11.480   5.063
20594SOL    HW163679  14.755  11.475   5.105
20594SOL    HW263680  14.654  11.574   5.053
20595SOL     OW63681   4.310   3.100   7.932
20595SOL    HW163682   4.386   3.046   7.911
20595SOL    HW263683   4.241   3.037   7.950
20596SOL     OW63684   8.985  13.486   9.111
20596SOL    HW163685   8.999  13.440   9.194
20596SOL    HW263686   8.891  13.482   9.096
20597SOL     OW63687   5.281   5.079  13.148
20597SOL    HW163688   5.250   5.140  13.216
20597SOL    HW263689   5.281   5.131  13.068
20598SOL     OW63690  11.885   4.480  11.440
20598SOL    HW163691  11.893   4.481  11.536
20598SOL    HW263692  11.841   4.397  11.421
20599SOL     OW63693   3.074  10.192   0.227
20599SOL    HW163694   2.988  10.168   0.263
20599SOL    HW263695   3.105  10.112   0.186
20600SOL     OW63696   0.624  12.868  10.126
20600SOL    HW163697   0.531  12.848  10.137
20600SOL    HW263698   0.669  12.786  10.147
20601SOL     OW63699   2.392   6.702   2.716
20601SOL    HW163700   2.419   6.628   2.661
20601SOL    HW263701   2.302   6.683   2.739
20602SOL     OW63702   5.657   9.039   2.848
20602SOL    HW163703   5.715   9.077   2.914
20602SOL    HW263704   5.709   8.969   2.809
20603SOL     OW63705  13.531  12.421  11.195
20603SOL    HW163706  13.479  12.347  11.166
20603SOL    HW263707  13.506  12.433  11.287
20604SOL     OW63708   6.021  13.226   3.889
20604SOL    HW163709   6.065  13.226   3.804
20604SOL    HW263710   5.985  13.314   3.897
20605SOL     OW63711   4.562   2.481   3.103
20605SOL    HW163712   4.469   2.477   3.126
20605SOL    HW263713   4.583   2.574   3.108
20606SOL     OW63714   1.472  12.754   0.491
20606SOL    HW163715   1.386  12.786   0.463
20606SOL    HW263716   1.508  12.825   0.544
20607SOL     OW63717   0.427   2.767   4.663
20607SOL    HW163718   0.432   2.831   4.735
20607SOL    HW263719   0.434   2.682   4.705
20608SOL     OW63720  12.970  12.143   8.446
20608SOL    HW163721  13.032  12.074   8.422
20608SOL    HW263722  12.958  12.132   8.540
20609SOL     OW63723   3.001   9.967  10.979
20609SOL    HW163724   3.016   9.918  10.898
20609SOL    HW263725   3.089   9.996  11.005
20610SOL     OW63726   8.227  13.818   4.891
20610SOL    HW163727   8.262  13.908   4.892
20610SOL    HW263728   8.228  13.792   4.983
20611SOL     OW63729   3.587   0.222   9.433
20611SOL    HW163730   3.672   0.179   9.429
20611SOL    HW263731   3.579   0.251   9.524
20612SOL     OW63732   4.979  11.477   7.629
20612SOL    HW163733   4.917  11.521   7.571
20612SOL    HW263734   5.065  11.500   7.594
20613SOL     OW63735   8.916  11.174   9.729
20613SOL    HW163736   8.955  11.088   9.747
20613SOL    HW263737   8.988  11.225   9.693
20614SOL     OW63738   9.406  11.806  10.360
20614SOL    HW163739   9.359  11.739  10.410
20614SOL    HW263740   9.363  11.888  10.385
20615SOL     OW63741   3.508   0.711   7.182
20615SOL    HW163742   3.487   0.633   7.233
20615SOL    HW263743   3.571   0.758   7.236
20616SOL     OW63744   6.972   7.036   5.752
20616SOL    HW163745   6.995   7.127   5.731
20616SOL    HW263746   6.991   7.028   5.845
20617SOL     OW63747   3.689   4.614  12.829
20617SOL    HW163748   3.644   4.627  12.746
20617SOL    HW263749   3.755   4.547  12.810
20618SOL     OW63750  13.796   2.026   7.298
20618SOL    HW163751  13.780   2.100   7.239
20618SOL    HW263752  13.876   2.049   7.345
20619SOL     OW63753   6.489   9.405  12.391
20619SOL    HW163754   6.561   9.407  12.454
20619SOL    HW263755   6.425   9.466  12.426
20620SOL     OW63756  13.750   0.944  12.337
20620SOL    HW163757  13.724   0.868  12.286
20620SOL    HW263758  13.716   0.927  12.425
20621SOL     OW63759   5.535  12.083   9.072
20621SOL    HW163760   5.568  12.170   9.047
20621SOL    HW263761   5.446  12.099   9.102
20622SOL     OW63762   3.446   9.445  11.243
20622SOL    HW163763   3.393   9.495  11.304
20622SOL    HW263764   3.523   9.501  11.227
20623SOL     OW63765  12.238   7.272  11.370
20623SOL    HW163766  12.195   7.194  11.404
20623SOL    HW263767  12.189   7.294  11.291
20624SOL     OW63768   8.483  14.703   7.037
20624SOL    HW163769   8.437  14.620   7.046
20624SOL    HW263770   8.439  14.762   7.097
20625SOL     OW63771   5.411   2.232   1.674
20625SOL    HW163772   5.433   2.150   1.629
20625SOL    HW263773   5.369   2.203   1.755
20626SOL     OW63774   4.996   3.784   4.185
20626SOL    HW163775   4.963   3.780   4.275
20626SOL    HW263776   4.917   3.776   4.130
20627SOL     OW63777  10.493  13.618   2.801
20627SOL    HW163778  10.480  13.584   2.890
20627SOL    HW263779  10.409  13.606   2.758
20628SOL     OW63780   8.137   5.955   7.445
20628SOL    HW163781   8.206   6.021   7.435
20628SOL    HW263782   8.076   5.994   7.507
20629SOL     OW63783  12.095   3.934   8.621
20629SOL    HW163784  12.094   3.908   8.713
20629SOL    HW263785  12.078   3.853   8.573
20630SOL     OW63786   2.479   7.175   5.571
20630SOL    HW163787   2.572   7.176   5.592
20630SOL    HW263788   2.436   7.147   5.651
20631SOL     OW63789   7.160   5.140   3.016
20631SOL    HW163790   7.200   5.153   3.102
20631SOL    HW263791   7.192   5.054   2.987
20632SOL     OW63792   1.816   8.411   8.737
20632SOL    HW163793   1.847   8.320   8.738
20632SOL    HW263794   1.896   8.463   8.735
20633SOL     OW63795   5.714   2.084   7.739
20633SOL    HW163796   5.669   2.106   7.658
20633SOL    HW263797   5.689   1.994   7.757
20634SOL     OW63798  14.069   6.895   4.292
20634SOL    HW163799  14.129   6.921   4.363
20634SOL    HW263800  14.125   6.888   4.215
20635SOL     OW63801  12.626   7.934   9.165
20635SOL    HW163802  12.556   7.879   9.130
20635SOL    HW263803  12.657   7.889   9.243
20636SOL     OW63804  10.102  14.217   1.053
20636SOL    HW163805  10.094  14.306   1.088
20636SOL    HW263806  10.059  14.162   1.119
20637SOL     OW63807   0.854  14.561   0.323
20637SOL    HW163808   0.792  14.633   0.339
20637SOL    HW263809   0.836  14.498   0.393
20638SOL     OW63810   1.393  11.243   0.286
20638SOL    HW163811   1.436  11.303   0.225
20638SOL    HW263812   1.365  11.299   0.358
20639SOL     OW63813   0.624   6.247   5.753
20639SOL    HW163814   0.719   6.260   5.745
20639SOL    HW263815   0.591   6.258   5.664
20640SOL     OW63816   0.798   7.800  14.610
20640SOL    HW163817   0.744   7.729  14.646
20640SOL    HW263818   0.810   7.860  14.684
20641SOL     OW63819  14.776   0.403  11.535
20641SOL    HW163820  14.744   0.326  11.488
20641SOL    HW263821  14.733   0.477  11.492
20642SOL     OW63822   0.321  13.495   8.823
20642SOL    HW163823   0.308  13.567   8.762
20642SOL    HW263824   0.344  13.420   8.767
20643SOL     OW63825  11.092   1.128   6.329
20643SOL    HW163826  11.156   1.128   6.400
20643SOL    HW263827  11.069   1.035   6.318
20644SOL     OW63828   1.190   1.208   7.673
20644SOL    HW163829   1.138   1.237   7.748
20644SOL    HW263830   1.169   1.115   7.664
20645SOL     OW63831   7.180  12.998  11.818
20645SOL    HW163832   7.158  13.001  11.725
20645SOL    HW263833   7.265  12.954  11.820
20646SOL     OW63834   6.834  12.896  10.789
20646SOL    HW163835   6.799  12.939  10.711
20646SOL    HW263836   6.826  12.962  10.858
20647SOL     OW63837  11.173  11.328  13.003
20647SOL    HW163838  11.099  11.377  13.039
20647SOL    HW263839  11.251  11.368  13.043
20648SOL     OW63840  11.111  12.325   9.137
20648SOL    HW163841  11.136  12.317   9.045
20648SOL    HW263842  11.193  12.347   9.182
20649SOL     OW63843   7.045   9.782   1.661
20649SOL    HW163844   7.077   9.721   1.594
20649SOL    HW263845   7.118   9.842   1.676
20650SOL     OW63846   9.683  13.519   4.127
20650SOL    HW163847   9.667  13.561   4.043
20650SOL    HW263848   9.762  13.561   4.161
20651SOL     OW63849   7.924  11.162   5.617
20651SOL    HW163850   7.866  11.236   5.635
20651SOL    HW263851   7.865  11.088   5.603
20652SOL     OW63852   2.362  11.202   9.538
20652SOL    HW163853   2.311  11.281   9.556
20652SOL    HW263854   2.336  11.140   9.606
20653SOL     OW63855   4.204   1.002  13.197
20653SOL    HW163856   4.225   0.948  13.121
20653SOL    HW263857   4.125   0.963  13.234
20654SOL     OW63858   9.685  14.664   1.953
20654SOL    HW163859   9.768  14.694   1.916
20654SOL    HW263860   9.622  14.672   1.881
20655SOL     OW63861   1.047  14.026   7.218
20655SOL    HW163862   0.967  14.052   7.173
20655SOL    HW263863   1.027  13.941   7.257
20656SOL     OW63864   1.233  14.715  14.747
20656SOL    HW163865   1.182  14.650  14.795
20656SOL    HW263866   1.224  14.689  14.655
20657SOL     OW63867   9.550  12.470  11.118
20657SOL    HW163868   9.515  12.547  11.163
20657SOL    HW263869   9.543  12.490  11.025
20658SOL     OW63870  11.201   5.766   0.236
20658SOL    HW163871  11.161   5.853   0.236
20658SOL    HW263872  11.131   5.707   0.265
20659SOL     OW63873   7.793   3.370   5.522
20659SOL    HW163874   7.837   3.306   5.466
20659SOL    HW263875   7.711   3.327   5.546
20660SOL     OW63876   4.371   1.421  14.265
20660SOL    HW163877   4.362   1.331  14.232
20660SOL    HW263878   4.321   1.421  14.346
20661SOL     OW63879  14.482   5.071   8.812
20661SOL    HW163880  14.440   5.007   8.754
20661SOL    HW263881  14.408   5.115   8.855
20662SOL     OW63882   1.523   9.192   6.641
20662SOL    HW163883   1.502   9.152   6.725
20662SOL    HW263884   1.595   9.140   6.606
20663SOL     OW63885  10.384  12.327   9.607
20663SOL    HW163886  10.415  12.248   9.562
20663SOL    HW263887  10.352  12.384   9.537
20664SOL     OW63888  14.635  12.950   3.929
20664SOL    HW163889  14.662  12.873   3.878
20664SOL    HW263890  14.541  12.958   3.911
20665SOL     OW63891  14.659   7.572  10.013
20665SOL    HW163892  14.645   7.570  10.108
20665SOL    HW263893  14.572   7.556   9.976
20666SOL     OW63894  12.394   2.759   7.216
20666SOL    HW163895  12.487   2.744   7.205
20666SOL    HW263896  12.372   2.825   7.151
20667SOL     OW63897  11.465   8.934   5.949
20667SOL    HW163898  11.461   8.920   6.044
20667SOL    HW263899  11.508   8.856   5.915
20668SOL     OW63900   4.404  11.928   3.609
20668SOL    HW163901   4.458  11.852   3.588
20668SOL    HW263902   4.408  11.936   3.704
20669SOL     OW63903   4.321   5.304  13.805
20669SOL    HW163904   4.236   5.262  13.789
20669SOL    HW263905   4.298   5.390  13.841
20670SOL     OW63906   2.994   9.005   7.054
20670SOL    HW163907   2.988   9.085   7.002
20670SOL    HW263908   3.054   9.028   7.125
20671SOL     OW63909   1.850  14.589  10.735
20671SOL    HW163910   1.929  14.584  10.789
20671SOL    HW263911   1.841  14.682  10.713
20672SOL     OW63912   1.413  10.231   7.847
20672SOL    HW163913   1.381  10.192   7.766
20672SOL    HW263914   1.505  10.205   7.852
20673SOL     OW63915   6.485  13.891   4.879
20673SOL    HW163916   6.502  13.977   4.839
20673SOL    HW263917   6.410  13.906   4.936
20674SOL     OW63918   7.656  10.606   6.036
20674SOL    HW163919   7.642  10.700   6.034
20674SOL    HW263920   7.643  10.581   6.127
20675SOL     OW63921   9.675  10.651  11.331
20675SOL    HW163922   9.594  10.636  11.378
20675SOL    HW263923   9.706  10.564  11.307
20676SOL     OW63924  14.223   7.101   8.664
20676SOL    HW163925  14.171   7.160   8.610
20676SOL    HW263926  14.306   7.092   8.617
20677SOL     OW63927   2.314   1.860  10.895
20677SOL    HW163928   2.404   1.858  10.861
20677SOL    HW263929   2.318   1.808  10.975
20678SOL     OW63930   4.462   9.176  13.938
20678SOL    HW163931   4.534   9.173  13.875
20678SOL    HW263932   4.421   9.090  13.931
20679SOL     OW63933   6.415   6.312   3.879
20679SOL    HW163934   6.406   6.406   3.893
20679SOL    HW263935   6.398   6.300   3.786
20680SOL     OW63936   8.390  12.045   8.751
20680SOL    HW163937   8.405  12.118   8.812
20680SOL    HW263938   8.423  12.077   8.667
20681SOL     OW63939   4.432   8.789  10.372
20681SOL    HW163940   4.484   8.754  10.299
20681SOL    HW263941   4.421   8.714  10.431
20682SOL     OW63942  13.958   0.003  12.811
20682SOL    HW163943  14.023  14.836  12.757
20682SOL    HW263944  13.888   0.027  12.750
20683SOL     OW63945   3.685   5.648  10.841
20683SOL    HW163946   3.661   5.661  10.933
20683SOL    HW263947   3.752   5.580  10.843
20684SOL     OW63948   9.401   8.942   7.666
20684SOL    HW163949   9.337   8.929   7.597
20684SOL    HW263950   9.426   9.034   7.659
20685SOL     OW63951  11.685   5.971  12.053
20685SOL    HW163952  11.609   5.967  11.995
20685SOL    HW263953  11.759   5.983  11.993
20686SOL     OW63954  13.547   1.214   3.042
20686SOL    HW163955  13.475   1.273   3.022
20686SOL    HW263956  13.583   1.247   3.124
20687SOL     OW63957   3.350  10.610   0.990
20687SOL    HW163958   3.428  10.660   0.965
20687SOL    HW263959   3.384  10.537   1.042
20688SOL     OW63960   3.793   6.386   2.050
20688SOL    HW163961   3.738   6.362   1.975
20688SOL    HW263962   3.867   6.325   2.045
20689SOL     OW63963   4.696  13.195   2.257
20689SOL    HW163964   4.750  13.206   2.336
20689SOL    HW263965   4.727  13.113   2.218
20690SOL     OW63966  14.193   4.361  11.488
20690SOL    HW163967  14.257   4.293  11.465
20690SOL    HW263968  14.173   4.404  11.405
20691SOL     OW63969   1.215   0.280  11.315
20691SOL    HW163970   1.239   0.343  11.247
20691SOL    HW263971   1.210   0.196  11.271
20692SOL     OW63972   3.919   3.707   8.878
20692SOL    HW163973   3.890   3.795   8.899
20692SOL    HW263974   3.896   3.696   8.786
20693SOL     OW63975   0.435   5.550  14.638
20693SOL    HW163976   0.363   5.612  14.644
20693SOL    HW263977   0.471   5.547  14.727
20694SOL     OW63978   4.287  14.347   3.113
20694SOL    HW163979   4.272  14.253   3.117
20694SOL    HW263980   4.231  14.384   3.181
20695SOL     OW63981  14.321  12.823   9.545
20695SOL    HW163982  14.307  12.900   9.599
20695SOL    HW263983  14.245  12.767   9.562
20696SOL     OW63984   4.010   3.587  12.701
20696SOL    HW163985   4.102   3.612  12.706
20696SOL    HW263986   3.966   3.645  12.763
20697SOL     OW63987   2.783   7.539   2.419
20697SOL    HW163988   2.800   7.617   2.367
20697SOL    HW263989   2.724   7.486   2.364
20698SOL     OW63990   9.119  12.415   4.311
20698SOL    HW163991   9.198  12.361   4.314
20698SOL    HW263992   9.152  12.504   4.300
20699SOL     OW63993   1.551  14.402  13.748
20699SOL    HW163994   1.467  14.446  13.730
20699SOL    HW263995   1.614  14.474  13.752
20700SOL     OW63996   3.013   2.407  12.496
20700SOL    HW163997   2.959   2.406  12.417
20700SOL    HW263998   3.031   2.499  12.512
20701SOL     OW63999   4.960  10.387   8.984
20701SOL    HW164000   5.055  10.385   8.997
20701SOL    HW264001   4.945  10.468   8.935
20702SOL     OW64002   6.648   5.477   2.347
20702SOL    HW164003   6.697   5.559   2.349
20702SOL    HW264004   6.557   5.503   2.363
20703SOL     OW64005  11.066   5.724   1.340
20703SOL    HW164006  11.074   5.790   1.409
20703SOL    HW264007  10.972   5.719   1.324
20704SOL     OW64008   0.237  11.992   7.084
20704SOL    HW164009   0.205  11.960   7.000
20704SOL    HW264010   0.158  12.020   7.131
20705SOL     OW64011   2.575   2.183   8.340
20705SOL    HW164012   2.517   2.115   8.374
20705SOL    HW264013   2.652   2.179   8.397
20706SOL     OW64014   2.173   8.547   1.918
20706SOL    HW164015   2.147   8.580   2.004
20706SOL    HW264016   2.219   8.621   1.877
20707SOL     OW64017  11.310   0.326   9.562
20707SOL    HW164018  11.244   0.366   9.618
20707SOL    HW264019  11.392   0.369   9.587
20708SOL     OW64020   5.163   6.154   5.249
20708SOL    HW164021   5.071   6.164   5.275
20708SOL    HW264022   5.209   6.223   5.297
20709SOL     OW64023  10.617   8.000   0.542
20709SOL    HW164024  10.545   7.965   0.594
20709SOL    HW264025  10.582   8.007   0.453
20710SOL     OW64026   4.744  11.572   1.651
20710SOL    HW164027   4.696  11.528   1.581
20710SOL    HW264028   4.788  11.502   1.698
20711SOL     OW64029   8.692   1.908  11.705
20711SOL    HW164030   8.784   1.927  11.725
20711SOL    HW264031   8.678   1.947  11.619
20712SOL     OW64032   9.998  14.036   1.231
20712SOL    HW164033  10.072  14.017   1.290
20712SOL    HW264034   9.930  14.069   1.289
20713SOL     OW64035  13.202  12.185  12.082
20713SOL    HW164036  13.274  12.238  12.116
20713SOL    HW264037  13.124  12.221  12.124
20714SOL     OW64038   2.960  10.623   1.284
20714SOL    HW164039   3.032  10.678   1.313
20714SOL    HW264040   2.954  10.554   1.351
20715SOL     OW64041   3.469   0.577  14.615
20715SOL    HW164042   3.467   0.641  14.544
20715SOL    HW264043   3.560   0.575  14.644
20716SOL     OW64044   7.924  13.532   5.413
20716SOL    HW164045   7.843  13.485   5.430
20716SOL    HW264046   7.992  13.478   5.453
20717SOL     OW64047   4.166   8.918   5.772
20717SOL    HW164048   4.135   9.003   5.741
20717SOL    HW264049   4.221   8.885   5.701
20718SOL     OW64050   2.213  13.040  12.238
20718SOL    HW164051   2.186  12.982  12.167
20718SOL    HW264052   2.131  13.075  12.273
20719SOL     OW64053  14.742  14.603   7.097
20719SOL    HW164054  14.704  14.614   7.184
20719SOL    HW264055  14.780  14.689   7.077
20720SOL     OW64056  12.635   8.133   2.103
20720SOL    HW164057  12.608   8.207   2.048
20720SOL    HW264058  12.688   8.078   2.045
20721SOL     OW64059   0.963  14.687   7.153
20721SOL    HW164060   0.910  14.733   7.218
20721SOL    HW264061   1.046  14.734   7.153
20722SOL     OW64062  12.830   3.344   7.027
20722SOL    HW164063  12.854   3.328   7.118
20722SOL    HW264064  12.735   3.344   7.026
20723SOL     OW64065   2.565   8.443   9.760
20723SOL    HW164066   2.656   8.414   9.769
20723SOL    HW264067   2.551   8.451   9.666
20724SOL     OW64068   0.183   6.588   5.640
20724SOL    HW164069   0.175   6.564   5.732
20724SOL    HW264070   0.108   6.646   5.624
20725SOL     OW64071   8.610   3.878   6.492
20725SOL    HW164072   8.703   3.882   6.512
20725SOL    HW264073   8.604   3.903   6.400
20726SOL     OW64074   2.897   2.163  12.479
20726SOL    HW164075   2.955   2.226  12.522
20726SOL    HW264076   2.815   2.211  12.469
20727SOL     OW64077  14.057  12.525   6.985
20727SOL    HW164078  14.095  12.589   7.045
20727SOL    HW264079  14.119  12.452   6.986
20728SOL     OW64080   6.699  11.935   6.988
20728SOL    HW164081   6.699  12.030   7.003
20728SOL    HW264082   6.661  11.924   6.901
20729SOL     OW64083   7.454  11.908   5.347
20729SOL    HW164084   7.536  11.865   5.326
20729SOL    HW264085   7.411  11.922   5.263
20730SOL     OW64086   7.861  14.256   6.021
20730SOL    HW164087   7.790  14.242   5.958
20730SOL    HW264088   7.939  14.267   5.968
20731SOL     OW64089   3.134   7.707  14.240
20731SOL    HW164090   3.073   7.666  14.302
20731SOL    HW264091   3.078   7.761  14.184
20732SOL     OW64092   5.309  10.670  12.119
20732SOL    HW164093   5.372  10.597  12.122
20732SOL    HW264094   5.308  10.704  12.208
20733SOL     OW64095   8.523  13.650   0.993
20733SOL    HW164096   8.513  13.568   1.042
20733SOL    HW264097   8.437  13.692   0.999
20734SOL     OW64098  11.122  10.218  14.659
20734SOL    HW164099  11.128  10.155  14.588
20734SOL    HW264100  11.095  10.166  14.735
20735SOL     OW64101  13.591   8.115   3.738
20735SOL    HW164102  13.520   8.078   3.686
20735SOL    HW264103  13.616   8.195   3.692
20736SOL     OW64104   7.409   9.951   7.312
20736SOL    HW164105   7.425   9.891   7.384
20736SOL    HW264106   7.416   9.898   7.233
20737SOL     OW64107   7.210  11.375  14.604
20737SOL    HW164108   7.234  11.415  14.520
20737SOL    HW264109   7.188  11.450  14.660
20738SOL     OW64110  11.756  12.637   4.178
20738SOL    HW164111  11.706  12.565   4.215
20738SOL    HW264112  11.760  12.618   4.084
20739SOL     OW64113   1.443   7.675  14.510
20739SOL    HW164114   1.366   7.683  14.566
20739SOL    HW264115   1.410   7.687  14.421
20740SOL     OW64116   3.381   7.420   9.018
20740SOL    HW164117   3.312   7.429   8.952
20740SOL    HW264118   3.359   7.488   9.083
20741SOL     OW64119   3.315   6.132   0.985
20741SOL    HW164120   3.259   6.067   1.027
20741SOL    HW264121   3.346   6.089   0.905
20742SOL     OW64122   8.809  12.769  12.137
20742SOL    HW164123   8.800  12.829  12.063
20742SOL    HW264124   8.723  12.767  12.178
20743SOL     OW64125   9.867   4.554  14.676
20743SOL    HW164126   9.829   4.477  14.717
20743SOL    HW264127   9.863   4.536  14.582
20744SOL     OW64128  10.957   0.279  12.641
20744SOL    HW164129  10.986   0.239  12.558
20744SOL    HW264130  10.889   0.220  12.673
20745SOL     OW64131   9.167   7.576   8.334
20745SOL    HW164132   9.258   7.606   8.337
20745SOL    HW264133   9.163   7.524   8.253
20746SOL     OW64134   9.903  14.348   8.763
20746SOL    HW164135   9.934  14.330   8.674
20746SOL    HW264136   9.976  14.324   8.819
20747SOL     OW64137   7.177  14.195  13.609
20747SOL    HW164138   7.261  14.232  13.580
20747SOL    HW264139   7.115  14.223  13.542
20748SOL     OW64140  10.344   7.442   6.880
20748SOL    HW164141  10.314   7.363   6.924
20748SOL    HW264142  10.412   7.412   6.820
20749SOL     OW64143   9.017  11.403   5.978
20749SOL    HW164144   8.988  11.482   6.024
20749SOL    HW264145   8.973  11.406   5.893
20750SOL     OW64146  11.660   8.893   1.821
20750SOL    HW164147  11.655   8.928   1.732
20750SOL    HW264148  11.729   8.826   1.817
20751SOL     OW64149   7.570   3.074   8.635
20751SOL    HW164150   7.606   3.131   8.567
20751SOL    HW264151   7.643   3.017   8.659
20752SOL     OW64152   6.034   0.565  12.214
20752SOL    HW164153   5.989   0.492  12.171
20752SOL    HW264154   6.067   0.619  12.142
20753SOL     OW64155   1.769  12.343  14.288
20753SOL    HW164156   1.694  12.323  14.343
20753SOL    HW264157   1.836  12.375  14.349
20754SOL     OW64158   5.221   7.941   2.560
20754SOL    HW164159   5.127   7.953   2.573
20754SOL    HW264160   5.237   7.971   2.470
20755SOL     OW64161  13.934   9.202   8.150
20755SOL    HW164162  13.913   9.195   8.243
20755SOL    HW264163  13.915   9.115   8.114
20756SOL     OW64164  11.229  11.514   6.973
20756SOL    HW164165  11.248  11.561   7.055
20756SOL    HW264166  11.205  11.583   6.911
20757SOL     OW64167   8.079   0.487  10.823
20757SOL    HW164168   8.133   0.513  10.898
20757SOL    HW264169   8.086   0.560  10.761
20758SOL     OW64170  10.388   1.182   1.625
20758SOL    HW164171  10.335   1.134   1.688
20758SOL    HW264172  10.352   1.271   1.626
20759SOL     OW64173  12.872   4.880   7.062
20759SOL    HW164174  12.912   4.922   7.138
20759SOL    HW264175  12.833   4.800   7.097
20760SOL     OW64176   8.484   6.670   1.185
20760SOL    HW164177   8.579   6.667   1.174
20760SOL    HW264178   8.470   6.725   1.262
20761SOL     OW64179   1.442  14.265  13.499
20761SOL    HW164180   1.489  14.267  13.582
20761SOL    HW264181   1.351  14.287  13.522
20762SOL     OW64182  14.309   3.942   9.124
20762SOL    HW164183  14.305   3.847   9.119
20762SOL    HW264184  14.262   3.972   9.046
20763SOL     OW64185   9.984  14.281   2.905
20763SOL    HW164186   9.928  14.221   2.855
20763SOL    HW264187   9.962  14.265   2.996
20764SOL     OW64188   2.491   8.802   4.205
20764SOL    HW164189   2.562   8.751   4.167
20764SOL    HW264190   2.434   8.737   4.246
20765SOL     OW64191   2.333   4.922   8.254
20765SOL    HW164192   2.275   4.963   8.318
20765SOL    HW264193   2.277   4.859   8.208
20766SOL     OW64194  13.215   4.363   7.208
20766SOL    HW164195  13.186   4.330   7.293
20766SOL    HW264196  13.283   4.302   7.180
20767SOL     OW64197   6.742   6.401   1.563
20767SOL    HW164198   6.744   6.477   1.506
20767SOL    HW264199   6.831   6.365   1.560
20768SOL     OW64200   6.266  13.350   2.342
20768SOL    HW164201   6.222  13.272   2.376
20768SOL    HW264202   6.318  13.382   2.416
20769SOL     OW64203   5.677   9.372   7.247
20769SOL    HW164204   5.675   9.402   7.338
20769SOL    HW264205   5.663   9.451   7.196
20770SOL     OW64206   0.882  11.981   5.279
20770SOL    HW164207   0.931  11.987   5.361
20770SOL    HW264208   0.799  12.024   5.297
20771SOL     OW64209   8.332   9.645  11.607
20771SOL    HW164210   8.392   9.597  11.664
20771SOL    HW264211   8.275   9.692  11.667
20772SOL     OW64212  11.438   1.254  12.728
20772SOL    HW164213  11.357   1.270  12.776
20772SOL    HW264214  11.482   1.185  12.778
20773SOL     OW64215  14.746  12.067   0.997
20773SOL    HW164216  14.678  12.040   0.936
20773SOL    HW264217  14.717  12.151   1.031
20774SOL     OW64218   4.043  13.962   8.277
20774SOL    HW164219   3.978  13.922   8.335
20774SOL    HW264220   4.074  13.890   8.223
20775SOL     OW64221   9.079   0.764   1.048
20775SOL    HW164222   9.115   0.675   1.044
20775SOL    HW264223   9.017   0.768   0.975
20776SOL     OW64224  11.326   4.767   2.099
20776SOL    HW164225  11.319   4.772   2.004
20776SOL    HW264226  11.237   4.775   2.131
20777SOL     OW64227   2.144   9.013  10.885
20777SOL    HW164228   2.191   9.055  10.813
20777SOL    HW264229   2.051   9.027  10.863
20778SOL     OW64230   5.633   1.855   8.069
20778SOL    HW164231   5.652   1.848   7.975
20778SOL    HW264232   5.648   1.947   8.090
20779SOL     OW64233   5.954   3.209  10.013
20779SOL    HW164234   6.043   3.186   9.987
20779SOL    HW264235   5.963   3.294  10.056
20780SOL     OW64236  11.000   7.117   5.578
20780SOL    HW164237  11.041   7.051   5.633
20780SOL    HW264238  11.036   7.200   5.610
20781SOL     OW64239   1.315   9.142  12.984
20781SOL    HW164240   1.353   9.228  13.002
20781SOL    HW264241   1.224   9.150  13.011
20782SOL     OW64242   2.423  10.077   7.298
20782SOL    HW164243   2.406  10.081   7.204
20782SOL    HW264244   2.349  10.124   7.337
20783SOL     OW64245   6.981  14.232  13.421
20783SOL    HW164246   7.017  14.277  13.344
20783SOL    HW264247   6.934  14.300  13.468
20784SOL     OW64248   6.954  14.352   6.945
20784SOL    HW164249   6.920  14.439   6.965
20784SOL    HW264250   6.879  14.293   6.959
20785SOL     OW64251   0.204  12.007   7.739
20785SOL    HW164252   0.237  11.973   7.823
20785SOL    HW264253   0.173  11.929   7.693
20786SOL     OW64254  11.013  13.454  11.258
20786SOL    HW164255  11.072  13.384  11.287
20786SOL    HW264256  11.054  13.535  11.289
20787SOL     OW64257   6.358  11.249   5.596
20787SOL    HW164258   6.419  11.195   5.546
20787SOL    HW264259   6.410  11.288   5.665
20788SOL     OW64260  12.716   0.138  14.177
20788SOL    HW164261  12.750   0.076  14.242
20788SOL    HW264262  12.626   0.109  14.161
20789SOL     OW64263   8.219   3.483   9.169
20789SOL    HW164264   8.282   3.489   9.097
20789SOL    HW264265   8.133   3.491   9.126
20790SOL     OW64266  12.973  13.924   8.488
20790SOL    HW164267  12.900  13.976   8.522
20790SOL    HW264268  12.936  13.836   8.478
20791SOL     OW64269   5.263  13.541   8.113
20791SOL    HW164270   5.199  13.500   8.172
20791SOL    HW264271   5.238  13.510   8.026
20792SOL     OW64272  13.634   9.041   8.236
20792SOL    HW164273  13.685   8.960   8.227
20792SOL    HW264274  13.574   9.040   8.162
20793SOL     OW64275   7.489  10.371   9.020
20793SOL    HW164276   7.460  10.363   8.930
20793SOL    HW264277   7.532  10.457   9.024
20794SOL     OW64278  12.271   5.874   4.193
20794SOL    HW164279  12.199   5.888   4.255
20794SOL    HW264280  12.350   5.893   4.244
20795SOL     OW64281  14.356   5.338   6.197
20795SOL    HW164282  14.377   5.389   6.119
20795SOL    HW264283  14.323   5.255   6.164
20796SOL     OW64284  11.937  12.765   2.190
20796SOL    HW164285  11.909  12.818   2.116
20796SOL    HW264286  11.932  12.675   2.159
20797SOL     OW64287   7.041  13.902  13.967
20797SOL    HW164288   6.956  13.945  13.973
20797SOL    HW264289   7.089  13.953  13.901
20798SOL     OW64290   4.991   2.256  14.712
20798SOL    HW164291   4.949   2.182  14.754
20798SOL    HW264292   4.956   2.257  14.623
20799SOL     OW64293   3.574  11.548   3.071
20799SOL    HW164294   3.531  11.625   3.034
20799SOL    HW264295   3.631  11.517   3.001
20800SOL     OW64296   2.481   5.130   8.643
20800SOL    HW164297   2.478   5.036   8.661
20800SOL    HW264298   2.528   5.137   8.560
20801SOL     OW64299  14.459   2.401   7.397
20801SOL    HW164300  14.499   2.485   7.421
20801SOL    HW264301  14.446   2.407   7.302
20802SOL     OW64302  14.484  14.403  13.409
20802SOL    HW164303  14.464  14.312  13.431
20802SOL    HW264304  14.436  14.454  13.475
20803SOL     OW64305  12.093   3.387   3.889
20803SOL    HW164306  12.116   3.471   3.850
20803SOL    HW264307  12.010   3.362   3.848
20804SOL     OW64308   5.581  12.831  10.438
20804SOL    HW164309   5.632  12.836  10.519
20804SOL    HW264310   5.527  12.910  10.439
20805SOL     OW64311   6.830  10.581   4.489
20805SOL    HW164312   6.779  10.648   4.443
20805SOL    HW264313   6.776  10.502   4.484
20806SOL     OW64314   7.434   1.646   9.836
20806SOL    HW164315   7.512   1.680   9.794
20806SOL    HW264316   7.420   1.702   9.912
20807SOL     OW64317   4.429  12.554  13.490
20807SOL    HW164318   4.396  12.476  13.447
20807SOL    HW264319   4.357  12.617  13.484
20808SOL     OW64320   6.512   6.698   4.203
20808SOL    HW164321   6.552   6.656   4.279
20808SOL    HW264322   6.425   6.723   4.232
20809SOL     OW64323  10.677  12.355   8.836
20809SOL    HW164324  10.598  12.309   8.809
20809SOL    HW264325  10.716  12.298   8.903
20810SOL     OW64326  10.050  14.702   0.736
20810SOL    HW164327  10.032  14.614   0.703
20810SOL    HW264328  10.021  14.700   0.828
20811SOL     OW64329   5.635  10.636   3.878
20811SOL    HW164330   5.629  10.678   3.964
20811SOL    HW264331   5.721  10.664   3.844
20812SOL     OW64332  12.537  13.810   4.645
20812SOL    HW164333  12.468  13.824   4.709
20812SOL    HW264334  12.509  13.860   4.569
20813SOL     OW64335   4.205   8.149  10.026
20813SOL    HW164336   4.127   8.094  10.017
20813SOL    HW264337   4.209   8.172  10.119
20814SOL     OW64338   2.373   0.129   3.643
20814SOL    HW164339   2.324   0.211   3.648
20814SOL    HW264340   2.346   0.090   3.559
20815SOL     OW64341   1.818  12.665   7.152
20815SOL    HW164342   1.786  12.575   7.155
20815SOL    HW264343   1.907  12.659   7.187
20816SOL     OW64344   6.672  14.114   3.630
20816SOL    HW164345   6.612  14.115   3.705
20816SOL    HW264346   6.642  14.040   3.577
20817SOL     OW64347   1.008  13.318  13.203
20817SOL    HW164348   0.994  13.407  13.170
20817SOL    HW264349   0.966  13.318  13.290
20818SOL     OW64350   1.572   3.749   6.776
20818SOL    HW164351   1.643   3.686   6.787
20818SOL    HW264352   1.617   3.830   6.750
20819SOL     OW64353   2.957   8.347  13.368
20819SOL    HW164354   2.863   8.341  13.385
20819SOL    HW264355   2.997   8.353  13.455
20820SOL     OW64356   9.143  11.898   3.703
20820SOL    HW164357   9.157  11.909   3.797
20820SOL    HW264358   9.051  11.870   3.696
20821SOL     OW64359   0.438  14.524   6.627
20821SOL    HW164360   0.474  14.453   6.573
20821SOL    HW264361   0.357  14.488   6.663
20822SOL     OW64362  11.938  11.521   4.861
20822SOL    HW164363  11.896  11.439   4.887
20822SOL    HW264364  11.904  11.586   4.923
20823SOL     OW64365   8.236  13.462   0.018
20823SOL    HW164366   8.214  13.518  14.822
20823SOL    HW264367   8.260  13.378  14.855
20824SOL     OW64368  11.548  11.485   0.404
20824SOL    HW164369  11.554  11.430   0.482
20824SOL    HW264370  11.481  11.550   0.426
20825SOL     OW64371   2.757   9.026   7.200
20825SOL    HW164372   2.693   8.966   7.239
20825SOL    HW264373   2.815   8.969   7.149
20826SOL     OW64374  10.188   3.012  12.572
20826SOL    HW164375  10.187   2.927  12.529
20826SOL    HW264376  10.273   3.050  12.550
20827SOL     OW64377  14.615  11.720   4.956
20827SOL    HW164378  14.610  11.704   4.862
20827SOL    HW264379  14.547  11.785   4.973
20828SOL     OW64380  10.161  14.688   3.868
20828SOL    HW164381  10.169  14.643   3.783
20828SOL    HW264382  10.077  14.657   3.903
20829SOL     OW64383   3.447   7.326  12.056
20829SOL    HW164384   3.391   7.261  12.013
20829SOL    HW264385   3.517   7.274  12.096
20830SOL     OW64386  11.021  10.765  13.511
20830SOL    HW164387  11.056  10.855  13.517
20830SOL    HW264388  10.982  10.750  13.597
20831SOL     OW64389   5.946   1.833   5.263
20831SOL    HW164390   5.908   1.798   5.183
20831SOL    HW264391   5.890   1.800   5.333
20832SOL     OW64392   6.653  12.931   9.921
20832SOL    HW164393   6.608  12.877   9.985
20832SOL    HW264394   6.742  12.897   9.918
20833SOL     OW64395   0.213   4.800  11.840
20833SOL    HW164396   0.284   4.858  11.868
20833SOL    HW264397   0.195   4.745  11.916
20834SOL     OW64398  12.060   7.901   2.368
20834SOL    HW164399  12.120   7.913   2.441
20834SOL    HW264400  11.975   7.930   2.401
20835SOL     OW64401  12.064   7.742   5.219
20835SOL    HW164402  12.139   7.789   5.182
20835SOL    HW264403  12.094   7.714   5.306
20836SOL     OW64404   7.398   8.607   2.721
20836SOL    HW164405   7.489   8.615   2.751
20836SOL    HW264406   7.406   8.570   2.633
20837SOL     OW64407   1.543   8.291   9.789
20837SOL    HW164408   1.586   8.349   9.852
20837SOL    HW264409   1.458   8.273   9.828
20838SOL     OW64410   0.949   7.916  12.771
20838SOL    HW164411   0.921   7.914  12.863
20838SOL    HW264412   0.979   8.006  12.758
20839SOL     OW64413   8.764   6.817  10.338
20839SOL    HW164414   8.734   6.893  10.287
20839SOL    HW264415   8.740   6.838  10.428
20840SOL     OW64416   4.404   5.848   5.273
20840SOL    HW164417   4.373   5.921   5.220
20840SOL    HW264418   4.415   5.885   5.360
20841SOL     OW64419   3.121  11.800   4.853
20841SOL    HW164420   3.191  11.865   4.850
20841SOL    HW264421   3.149  11.737   4.919
20842SOL     OW64422   1.182   8.524   7.154
20842SOL    HW164423   1.189   8.576   7.234
20842SOL    HW264424   1.113   8.460   7.172
20843SOL     OW64425   6.113   2.030   9.090
20843SOL    HW164426   6.127   1.935   9.093
20843SOL    HW264427   6.068   2.045   9.007
20844SOL     OW64428   2.783  13.154   8.948
20844SOL    HW164429   2.721  13.122   9.013
20844SOL    HW264430   2.868  13.149   8.991
20845SOL     OW64431  13.819   2.041   2.244
20845SOL    HW164432  13.846   1.968   2.188
20845SOL    HW264433  13.900   2.087   2.265
20846SOL     OW64434   5.187  10.206  11.177
20846SOL    HW164435   5.227  10.186  11.262
20846SOL    HW264436   5.255  10.188  11.113
20847SOL     OW64437  10.598  10.165  11.681
20847SOL    HW164438  10.504  10.174  11.696
20847SOL    HW264439  10.629  10.254  11.665
20848SOL     OW64440   6.584   3.637   4.299
20848SOL    HW164441   6.533   3.556   4.305
20848SOL    HW264442   6.536   3.691   4.236
20849SOL     OW64443   1.909   3.719   0.318
20849SOL    HW164444   1.840   3.716   0.384
20849SOL    HW264445   1.904   3.634   0.274
20850SOL     OW64446   0.927   7.148   1.862
20850SOL    HW164447   0.955   7.128   1.951
20850SOL    HW264448   0.972   7.230   1.841
20851SOL     OW64449   5.827   3.474   0.911
20851SOL    HW164450   5.917   3.493   0.939
20851SOL    HW264451   5.834   3.389   0.866
20852SOL     OW64452  13.468   3.317   3.376
20852SOL    HW164453  13.525   3.359   3.312
20852SOL    HW264454  13.527   3.276   3.439
20853SOL     OW64455  13.838  12.630  12.414
20853SOL    HW164456  13.747  12.617  12.385
20853SOL    HW264457  13.869  12.704  12.362
20854SOL     OW64458  12.246  10.229   6.613
20854SOL    HW164459  12.196  10.281   6.551
20854SOL    HW264460  12.333  10.270   6.615
20855SOL     OW64461  13.674   7.790   1.531
20855SOL    HW164462  13.635   7.876   1.547
20855SOL    HW264463  13.614   7.729   1.573
20856SOL     OW64464  11.673   3.227   0.058
20856SOL    HW164465  11.717   3.306   0.028
20856SOL    HW264466  11.591   3.257   0.096
20857SOL     OW64467   9.157   0.625  12.896
20857SOL    HW164468   9.103   0.605  12.973
20857SOL    HW264469   9.142   0.718  12.879
20858SOL     OW64470  14.676  12.879  13.583
20858SOL    HW164471  14.627  12.799  13.562
20858SOL    HW264472  14.669  12.886  13.679
20859SOL     OW64473   6.277   6.196   1.903
20859SOL    HW164474   6.263   6.128   1.969
20859SOL    HW264475   6.331   6.261   1.947
20860SOL     OW64476  12.193   5.557   0.499
20860SOL    HW164477  12.100   5.536   0.509
20860SOL    HW264478  12.239   5.487   0.544
20861SOL     OW64479   9.259   1.558   9.855
20861SOL    HW164480   9.235   1.649   9.873
20861SOL    HW264481   9.256   1.515   9.940
20862SOL     OW64482   5.352   0.144  10.820
20862SOL    HW164483   5.447   0.152  10.834
20862SOL    HW264484   5.316   0.226  10.855
20863SOL     OW64485  14.517   4.317   5.669
20863SOL    HW164486  14.492   4.235   5.627
20863SOL    HW264487  14.455   4.381   5.636
20864SOL     OW64488   3.034   2.963   3.045
20864SOL    HW164489   3.056   2.904   2.972
20864SOL    HW264490   3.028   3.050   3.005
20865SOL     OW64491   9.450  10.621   0.456
20865SOL    HW164492   9.432  10.532   0.489
20865SOL    HW264493   9.545  10.622   0.440
20866SOL     OW64494  14.845   1.007  10.289
20866SOL    HW164495  14.770   1.044  10.243
20866SOL    HW264496   0.010   1.083  10.330
20867SOL     OW64497   4.040  13.076   9.464
20867SOL    HW164498   4.111  13.043   9.520
20867SOL    HW264499   4.033  13.169   9.485
20868SOL     OW64500   1.020   0.776  11.146
20868SOL    HW164501   0.940   0.823  11.122
20868SOL    HW264502   1.017   0.770  11.242
20869SOL     OW64503   6.223   6.290  13.495
20869SOL    HW164504   6.298   6.268  13.440
20869SOL    HW264505   6.239   6.245  13.578
20870SOL     OW64506   8.021   6.470   1.882
20870SOL    HW164507   8.013   6.513   1.967
20870SOL    HW264508   8.050   6.381   1.902
20871SOL     OW64509  11.698   7.222   0.668
20871SOL    HW164510  11.686   7.308   0.627
20871SOL    HW264511  11.628   7.169   0.632
20872SOL     OW64512   8.341  13.205   7.764
20872SOL    HW164513   8.377  13.119   7.787
20872SOL    HW264514   8.418  13.256   7.737
20873SOL     OW64515   0.000   9.300   0.151
20873SOL    HW164516  14.830   9.320   0.071
20873SOL    HW264517  14.818   9.245   0.202
20874SOL     OW64518   8.617   4.357  14.287
20874SOL    HW164519   8.643   4.391  14.202
20874SOL    HW264520   8.698   4.357  14.339
20875SOL     OW64521   0.957   9.146   7.022
20875SOL    HW164522   0.920   9.143   7.111
20875SOL    HW264523   0.951   9.238   6.997
20876SOL     OW64524   7.375   5.967   9.363
20876SOL    HW164525   7.365   5.932   9.274
20876SOL    HW264526   7.310   6.037   9.369
20877SOL     OW64527   9.793  13.318  12.055
20877SOL    HW164528   9.800  13.262  12.133
20877SOL    HW264529   9.714  13.286  12.010
20878SOL     OW64530   3.384   2.275   9.884
20878SOL    HW164531   3.395   2.228   9.802
20878SOL    HW264532   3.290   2.287   9.893
20879SOL     OW64533  14.769  14.553   3.371
20879SOL    HW164534  14.676  14.549   3.348
20879SOL    HW264535  14.788  14.646   3.378
20880SOL     OW64536   1.789  11.932   6.050
20880SOL    HW164537   1.833  11.979   5.979
20880SOL    HW264538   1.851  11.864   6.075
20881SOL     OW64539   0.644   4.700   9.898
20881SOL    HW164540   0.651   4.629   9.834
20881SOL    HW264541   0.554   4.695   9.929
20882SOL     OW64542   4.269   5.097  13.387
20882SOL    HW164543   4.187   5.066  13.426
20882SOL    HW264544   4.275   5.188  13.415
20883SOL     OW64545  13.700   0.787   3.917
20883SOL    HW164546  13.778   0.743   3.953
20883SOL    HW264547  13.635   0.781   3.986
20884SOL     OW64548   4.123   4.985   7.288
20884SOL    HW164549   4.142   4.933   7.210
20884SOL    HW264550   4.028   4.998   7.285
20885SOL     OW64551  11.980   4.343   0.558
20885SOL    HW164552  12.021   4.366   0.641
20885SOL    HW264553  11.982   4.247   0.556
20886SOL     OW64554  10.932  14.092   3.068
20886SOL    HW164555  10.998  14.114   3.003
20886SOL    HW264556  10.885  14.018   3.031
20887SOL     OW64557   1.369   8.802   5.922
20887SOL    HW164558   1.362   8.894   5.898
20887SOL    HW264559   1.396   8.758   5.841
20888SOL     OW64560   4.971   4.033   2.779
20888SOL    HW164561   4.969   3.982   2.860
20888SOL    HW264562   5.034   3.987   2.723
20889SOL     OW64563   6.546  13.119   2.365
20889SOL    HW164564   6.592  13.048   2.321
20889SOL    HW264565   6.537  13.187   2.297
20890SOL     OW64566  12.476  13.100  12.436
20890SOL    HW164567  12.512  13.186  12.457
20890SOL    HW264568  12.393  13.120  12.392
20891SOL     OW64569   7.621   2.773   2.562
20891SOL    HW164570   7.560   2.707   2.530
20891SOL    HW264571   7.578   2.811   2.638
20892SOL     OW64572   8.401   2.027   5.920
20892SOL    HW164573   8.463   2.098   5.905
20892SOL    HW264574   8.325   2.050   5.866
20893SOL     OW64575   1.329   1.992   8.832
20893SOL    HW164576   1.309   1.967   8.922
20893SOL    HW264577   1.356   2.083   8.838
20894SOL     OW64578   1.519   6.209   8.588
20894SOL    HW164579   1.488   6.199   8.678
20894SOL    HW264580   1.530   6.119   8.556
20895SOL     OW64581  10.166  13.281   8.931
20895SOL    HW164582  10.246  13.229   8.924
20895SOL    HW264583  10.095  13.219   8.916
20896SOL     OW64584   5.644   6.551  13.571
20896SOL    HW164585   5.587   6.475  13.559
20896SOL    HW264586   5.696   6.530  13.648
20897SOL     OW64587   8.890  14.640   1.568
20897SOL    HW164588   8.797  14.624   1.554
20897SOL    HW264589   8.893  14.706   1.638
20898SOL     OW64590   9.562   3.331   3.007
20898SOL    HW164591   9.647   3.298   3.037
20898SOL    HW264592   9.574   3.347   2.913
20899SOL     OW64593  12.983   8.247  13.512
20899SOL    HW164594  13.006   8.328  13.558
20899SOL    HW264595  12.898   8.265  13.472
20900SOL     OW64596   8.592  10.413   6.047
20900SOL    HW164597   8.614  10.437   5.957
20900SOL    HW264598   8.544  10.330   6.038
20901SOL     OW64599  13.812   7.095   5.088
20901SOL    HW164600  13.783   7.087   5.179
20901SOL    HW264601  13.742   7.056   5.037
20902SOL     OW64602  13.236   8.226  11.272
20902SOL    HW164603  13.195   8.212  11.187
20902SOL    HW264604  13.316   8.275  11.253
20903SOL     OW64605   5.747  12.329   8.154
20903SOL    HW164606   5.699  12.412   8.157
20903SOL    HW264607   5.680  12.262   8.161
20904SOL     OW64608   2.023   8.318   1.999
20904SOL    HW164609   1.949   8.349   2.051
20904SOL    HW264610   2.054   8.395   1.952
20905SOL     OW64611   0.740  14.710   7.561
20905SOL    HW164612   0.734  14.784   7.621
20905SOL    HW264613   0.815  14.659   7.593
20906SOL     OW64614  10.523   5.903  13.706
20906SOL    HW164615  10.487   5.983  13.744
20906SOL    HW264616  10.604   5.930  13.664
20907SOL     OW64617   0.990   3.696  12.226
20907SOL    HW164618   0.902   3.688  12.262
20907SOL    HW264619   1.043   3.634  12.278
20908SOL     OW64620   8.381   3.162   1.694
20908SOL    HW164621   8.328   3.135   1.619
20908SOL    HW264622   8.317   3.179   1.763
20909SOL     OW64623   2.037  11.492   4.937
20909SOL    HW164624   2.051  11.513   4.844
20909SOL    HW264625   2.048  11.397   4.942
20910SOL     OW64626  13.108  11.273  11.107
20910SOL    HW164627  13.152  11.287  11.191
20910SOL    HW264628  13.019  11.246  11.130
20911SOL     OW64629   0.812   0.793  10.718
20911SOL    HW164630   0.769   0.738  10.652
20911SOL    HW264631   0.771   0.879  10.709
20912SOL     OW64632  13.799   3.317   9.836
20912SOL    HW164633  13.882   3.273   9.856
20912SOL    HW264634  13.752   3.255   9.781
20913SOL     OW64635  13.320  12.399   0.481
20913SOL    HW164636  13.412  12.415   0.499
20913SOL    HW264637  13.320  12.325   0.420
20914SOL     OW64638   8.086   0.137   8.540
20914SOL    HW164639   8.168   0.144   8.590
20914SOL    HW264640   8.028   0.203   8.578
20915SOL     OW64641   5.582  11.115   7.369
20915SOL    HW164642   5.512  11.150   7.423
20915SOL    HW264643   5.577  11.020   7.382
20916SOL     OW64644   0.456   5.560   9.497
20916SOL    HW164645   0.519   5.591   9.432
20916SOL    HW264646   0.502   5.491   9.544
20917SOL     OW64647  14.361  13.744   1.053
20917SOL    HW164648  14.431  13.684   1.080
20917SOL    HW264649  14.403  13.801   0.988
20918SOL     OW64650   6.301   7.304   7.714
20918SOL    HW164651   6.254   7.246   7.654
20918SOL    HW264652   6.252   7.300   7.796
20919SOL     OW64653   9.490   1.992   4.039
20919SOL    HW164654   9.550   1.945   4.097
20919SOL    HW264655   9.461   1.925   3.976
20920SOL     OW64656   7.345   3.581   5.299
20920SOL    HW164657   7.275   3.645   5.288
20920SOL    HW264658   7.425   3.633   5.303
20921SOL     OW64659  13.608   5.210   6.291
20921SOL    HW164660  13.634   5.289   6.339
20921SOL    HW264661  13.572   5.244   6.209
20922SOL     OW64662   4.321   4.911  13.610
20922SOL    HW164663   4.377   4.841  13.577
20922SOL    HW264664   4.336   4.985  13.551
20923SOL     OW64665   7.000   7.280   7.274
20923SOL    HW164666   7.072   7.283   7.337
20923SOL    HW264667   7.023   7.208   7.215
20924SOL     OW64668   7.303  13.873   1.161
20924SOL    HW164669   7.299  13.823   1.242
20924SOL    HW264670   7.240  13.944   1.174
20925SOL     OW64671   0.591   1.181  10.947
20925SOL    HW164672   0.529   1.233  10.998
20925SOL    HW264673   0.541   1.106  10.916
20926SOL     OW64674  10.054  14.365  14.515
20926SOL    HW164675  10.032  14.418  14.439
20926SOL    HW264676  10.150  14.359  14.513
20927SOL     OW64677   8.752   6.572  10.539
20927SOL    HW164678   8.843   6.562  10.567
20927SOL    HW264679   8.715   6.637  10.598
20928SOL     OW64680   4.497   0.246   7.419
20928SOL    HW164681   4.452   0.328   7.400
20928SOL    HW264682   4.569   0.271   7.477
20929SOL     OW64683   6.068  11.979   6.094
20929SOL    HW164684   6.139  11.915   6.091
20929SOL    HW264685   6.039  11.979   6.185
20930SOL     OW64686   5.438  10.108  13.655
20930SOL    HW164687   5.533  10.101  13.654
20930SOL    HW264688   5.409  10.052  13.583
20931SOL     OW64689   4.174   9.055   6.675
20931SOL    HW164690   4.143   8.991   6.610
20931SOL    HW264691   4.213   9.125   6.623
20932SOL     OW64692   3.977   8.172  14.345
20932SOL    HW164693   4.040   8.196  14.276
20932SOL    HW264694   4.019   8.101  14.392
20933SOL     OW64695   9.404   0.484   2.706
20933SOL    HW164696   9.362   0.563   2.738
20933SOL    HW264697   9.387   0.484   2.611
20934SOL     OW64698   8.990  13.702   4.238
20934SOL    HW164699   9.036  13.620   4.218
20934SOL    HW264700   9.058  13.760   4.271
20935SOL     OW64701   0.140   9.042   8.720
20935SOL    HW164702   0.095   9.084   8.647
20935SOL    HW264703   0.228   9.024   8.688
20936SOL     OW64704  11.002   7.363   6.894
20936SOL    HW164705  10.970   7.446   6.859
20936SOL    HW264706  11.096   7.364   6.877
20937SOL     OW64707   3.636  13.663  14.752
20937SOL    HW164708   3.691  13.684  14.828
20937SOL    HW264709   3.698  13.633  14.685
20938SOL     OW64710  13.758   8.087   7.010
20938SOL    HW164711  13.806   8.038   7.076
20938SOL    HW264712  13.814   8.162   6.990
20939SOL     OW64713  14.490   1.196   3.974
20939SOL    HW164714  14.421   1.196   3.908
20939SOL    HW264715  14.453   1.149   4.048
20940SOL     OW64716   2.556   9.696   2.746
20940SOL    HW164717   2.636   9.711   2.796
20940SOL    HW264718   2.583   9.710   2.655
20941SOL     OW64719   0.817   4.000   3.986
20941SOL    HW164720   0.830   4.064   3.916
20941SOL    HW264721   0.891   4.014   4.045
20942SOL     OW64722   6.952   6.387   3.045
20942SOL    HW164723   6.865   6.404   3.008
20942SOL    HW264724   6.936   6.326   3.118
20943SOL     OW64725   2.718   7.975   8.262
20943SOL    HW164726   2.792   7.936   8.216
20943SOL    HW264727   2.689   8.046   8.204
20944SOL     OW64728   7.641  11.718   8.277
20944SOL    HW164729   7.710  11.777   8.247
20944SOL    HW264730   7.680  11.670   8.350
20945SOL     OW64731  14.714   1.693  13.991
20945SOL    HW164732  14.646   1.633  14.024
20945SOL    HW264733  14.739   1.745  14.068
20946SOL     OW64734  10.137   1.045  12.113
20946SOL    HW164735  10.211   1.027  12.171
20946SOL    HW264736  10.061   1.008  12.158
20947SOL     OW64737   8.696  11.816   8.523
20947SOL    HW164738   8.692  11.833   8.618
20947SOL    HW264739   8.764  11.750   8.514
20948SOL     OW64740  14.388   5.490   8.608
20948SOL    HW164741  14.342   5.491   8.524
20948SOL    HW264742  14.427   5.577   8.614
20949SOL     OW64743   5.038   1.267   6.300
20949SOL    HW164744   4.951   1.230   6.292
20949SOL    HW264745   5.024   1.350   6.346
20950SOL     OW64746   6.529  14.348  12.987
20950SOL    HW164747   6.554  14.292  13.060
20950SOL    HW264748   6.482  14.421  13.027
20951SOL     OW64749   3.704  12.461   9.727
20951SOL    HW164750   3.748  12.466   9.812
20951SOL    HW264751   3.651  12.382   9.732
20952SOL     OW64752   1.590   8.891   1.413
20952SOL    HW164753   1.508   8.901   1.364
20952SOL    HW264754   1.658   8.902   1.348
20953SOL     OW64755   1.070  14.527  14.847
20953SOL    HW164756   1.072  14.500  14.755
20953SOL    HW264757   0.987  14.494   0.003
20954SOL     OW64758   0.946  14.410   8.820
20954SOL    HW164759   0.981  14.407   8.731
20954SOL    HW264760   0.970  14.496   8.853
20955SOL     OW64761   1.072   5.913  12.447
20955SOL    HW164762   0.983   5.878  12.442
20955SOL    HW264763   1.097   5.929  12.355
20956SOL     OW64764  14.199   5.230   6.686
20956SOL    HW164765  14.186   5.148   6.734
20956SOL    HW264766  14.122   5.235   6.629
20957SOL     OW64767   1.069   7.821   0.689
20957SOL    HW164768   1.025   7.752   0.640
20957SOL    HW264769   1.132   7.775   0.745
20958SOL     OW64770   0.791   5.937   4.974
20958SOL    HW164771   0.702   5.952   5.006
20958SOL    HW264772   0.779   5.914   4.882
20959SOL     OW64773   7.067   6.870   7.301
20959SOL    HW164774   7.023   6.846   7.383
20959SOL    HW264775   7.134   6.801   7.290
20960SOL     OW64776  10.366   7.176   2.935
20960SOL    HW164777  10.406   7.251   2.981
20960SOL    HW264778  10.303   7.141   2.998
20961SOL     OW64779   2.134   4.211  11.915
20961SOL    HW164780   2.171   4.127  11.889
20961SOL    HW264781   2.178   4.233  11.997
20962SOL     OW64782  10.661  10.591  14.301
20962SOL    HW164783  10.598  10.628  14.362
20962SOL    HW264784  10.747  10.605  14.342
20963SOL     OW64785   7.217   3.303   9.552
20963SOL    HW164786   7.239   3.391   9.582
20963SOL    HW264787   7.140   3.315   9.497
20964SOL     OW64788  10.476   0.309   6.991
20964SOL    HW164789  10.486   0.388   6.937
20964SOL    HW264790  10.468   0.238   6.928
20965SOL     OW64791   1.508   5.213   1.882
20965SOL    HW164792   1.515   5.148   1.812
20965SOL    HW264793   1.424   5.256   1.865
20966SOL     OW64794   1.154   0.225  11.572
20966SOL    HW164795   1.061   0.247  11.579
20966SOL    HW264796   1.184   0.273  11.495
20967SOL     OW64797   6.868   1.312   2.102
20967SOL    HW164798   6.944   1.323   2.045
20967SOL    HW264799   6.821   1.395   2.097
20968SOL     OW64800  13.660   4.961  11.068
20968SOL    HW164801  13.737   4.963  11.126
20968SOL    HW264802  13.622   5.049  11.077
20969SOL     OW64803  14.838   8.126   5.626
20969SOL    HW164804  14.869   8.084   5.545
20969SOL    HW264805  14.841   8.220   5.608
20970SOL     OW64806   7.455   3.543  12.495
20970SOL    HW164807   7.363   3.540  12.523
20970SOL    HW264808   7.478   3.636  12.499
20971SOL     OW64809   1.307  10.116   2.551
20971SOL    HW164810   1.314  10.024   2.576
20971SOL    HW264811   1.394  10.152   2.572
20972SOL     OW64812   7.719  12.602   7.715
20972SOL    HW164813   7.661  12.606   7.640
20972SOL    HW264814   7.806  12.587   7.678
20973SOL     OW64815   1.739  11.754   7.976
20973SOL    HW164816   1.763  11.815   8.046
20973SOL    HW264817   1.820  11.709   7.953
20974SOL     OW64818   8.302   1.142  13.140
20974SOL    HW164819   8.294   1.060  13.188
20974SOL    HW264820   8.213   1.178  13.139
20975SOL     OW64821   3.008   0.883   0.901
20975SOL    HW164822   3.004   0.855   0.992
20975SOL    HW264823   2.920   0.914   0.881
20976SOL     OW64824   5.705  11.099  12.239
20976SOL    HW164825   5.676  11.010  12.260
20976SOL    HW264826   5.720  11.140  12.324
20977SOL     OW64827   3.945   0.075   1.532
20977SOL    HW164828   3.866   0.086   1.479
20977SOL    HW264829   4.008   0.035   1.473
20978SOL     OW64830  14.609   5.149  12.114
20978SOL    HW164831  14.619   5.219  12.179
20978SOL    HW264832  14.638   5.188  12.032
20979SOL     OW64833  10.898   1.291   4.060
20979SOL    HW164834  10.873   1.378   4.029
20979SOL    HW264835  10.905   1.238   3.980
20980SOL     OW64836   3.763   0.767   9.482
20980SOL    HW164837   3.731   0.717   9.557
20980SOL    HW264838   3.858   0.757   9.485
20981SOL     OW64839  11.983  13.094   9.546
20981SOL    HW164840  11.923  13.159   9.584
20981SOL    HW264841  11.933  13.056   9.474
20982SOL     OW64842  13.639   6.292  13.161
20982SOL    HW164843  13.607   6.202  13.169
20982SOL    HW264844  13.731   6.283  13.134
20983SOL     OW64845   4.856  13.321   5.643
20983SOL    HW164846   4.778  13.346   5.593
20983SOL    HW264847   4.893  13.404   5.672
20984SOL     OW64848  11.791  11.204   3.322
20984SOL    HW164849  11.760  11.123   3.281
20984SOL    HW264850  11.830  11.254   3.250
20985SOL     OW64851   3.270   3.040   4.880
20985SOL    HW164852   3.353   3.015   4.922
20985SOL    HW264853   3.204   2.987   4.924
20986SOL     OW64854   1.222   3.943   0.406
20986SOL    HW164855   1.257   3.935   0.317
20986SOL    HW264856   1.278   3.885   0.458
20987SOL     OW64857  11.414   4.853  10.095
20987SOL    HW164858  11.427   4.945  10.074
20987SOL    HW264859  11.352   4.853  10.168
20988SOL     OW64860   4.693   5.029   0.193
20988SOL    HW164861   4.654   4.969   0.129
20988SOL    HW264862   4.628   5.099   0.203
20989SOL     OW64863   1.974   3.460  12.428
20989SOL    HW164864   1.909   3.420  12.370
20989SOL    HW264865   1.931   3.462  12.513
20990SOL     OW64866   4.696   6.786  13.334
20990SOL    HW164867   4.605   6.762  13.348
20990SOL    HW264868   4.719   6.746  13.250
20991SOL     OW64869   3.776   0.335  11.050
20991SOL    HW164870   3.724   0.260  11.020
20991SOL    HW264871   3.849   0.339  10.988
20992SOL     OW64872   9.113  10.798   6.221
20992SOL    HW164873   9.081  10.786   6.131
20992SOL    HW264874   9.038  10.833   6.269
20993SOL     OW64875  10.289   5.250   8.397
20993SOL    HW164876  10.283   5.283   8.487
20993SOL    HW264877  10.383   5.248   8.380
20994SOL     OW64878   0.641  10.883   6.924
20994SOL    HW164879   0.636  10.903   6.830
20994SOL    HW264880   0.706  10.945   6.957
20995SOL     OW64881   9.224   4.845  10.811
20995SOL    HW164882   9.162   4.912  10.840
20995SOL    HW264883   9.268   4.818  10.891
20996SOL     OW64884   3.122  14.301   9.480
20996SOL    HW164885   3.158  14.304   9.391
20996SOL    HW264886   3.031  14.274   9.468
20997SOL     OW64887  13.565   0.094   1.168
20997SOL    HW164888  13.659   0.077   1.170
20997SOL    HW264889  13.558   0.186   1.143
20998SOL     OW64890   5.407  14.430   7.822
20998SOL    HW164891   5.359  14.510   7.804
20998SOL    HW264892   5.341  14.369   7.855
20999SOL     OW64893   0.864  14.757   2.135
20999SOL    HW164894   0.940  14.707   2.105
20999SOL    HW264895   0.859  14.831   2.075
21000SOL     OW64896  11.645   1.798  11.651
21000SOL    HW164897  11.571   1.750  11.614
21000SOL    HW264898  11.639   1.781  11.746
21001SOL     OW64899  13.637   3.663   6.370
21001SOL    HW164900  13.559   3.715   6.389
21001SOL    HW264901  13.604   3.587   6.321
21002SOL     OW64902   6.180  11.602   5.116
21002SOL    HW164903   6.204  11.562   5.199
21002SOL    HW264904   6.115  11.669   5.139
21003SOL     OW64905   1.821   3.848   8.614
21003SOL    HW164906   1.806   3.754   8.612
21003SOL    HW264907   1.915   3.858   8.628
21004SOL     OW64908  13.978   7.112  14.818
21004SOL    HW164909  13.937   7.092   0.024
21004SOL    HW264910  13.910   7.158  14.768
21005SOL     OW64911  11.018   9.188  14.014
21005SOL    HW164912  11.052   9.278  14.009
21005SOL    HW264913  11.095   9.133  14.022
21006SOL     OW64914   8.002   2.424   5.102
21006SOL    HW164915   7.993   2.519   5.111
21006SOL    HW264916   8.047   2.397   5.183
21007SOL     OW64917   7.144   3.762   2.448
21007SOL    HW164918   7.066   3.763   2.392
21007SOL    HW264919   7.135   3.681   2.499
21008SOL     OW64920  10.594  11.171   1.801
21008SOL    HW164921  10.681  11.174   1.838
21008SOL    HW264922  10.563  11.262   1.805
21009SOL     OW64923   7.345  13.677   5.472
21009SOL    HW164924   7.433  13.639   5.476
21009SOL    HW264925   7.328  13.706   5.562
21010SOL     OW64926   5.942   9.840  14.747
21010SOL    HW164927   5.938   9.934  14.763
21010SOL    HW264928   6.027   9.827  14.704
21011SOL     OW64929  11.571  13.702  11.695
21011SOL    HW164930  11.555  13.787  11.737
21011SOL    HW264931  11.541  13.639  11.760
21012SOL     OW64932   1.068  10.128   1.153
21012SOL    HW164933   1.015  10.051   1.172
21012SOL    HW264934   1.142  10.094   1.101
21013SOL     OW64935   1.296  14.056   6.967
21013SOL    HW164936   1.226  14.066   7.031
21013SOL    HW264937   1.260  13.997   6.901
21014SOL     OW64938   5.966  14.732   1.676
21014SOL    HW164939   5.944  14.652   1.629
21014SOL    HW264940   5.883  14.764   1.711
21015SOL     OW64941   3.907  13.975   7.629
21015SOL    HW164942   3.850  13.964   7.553
21015SOL    HW264943   3.849  14.008   7.698
21016SOL     OW64944  12.413   0.448   3.639
21016SOL    HW164945  12.490   0.401   3.607
21016SOL    HW264946  12.425   0.453   3.734
21017SOL     OW64947   6.965  11.781  14.209
21017SOL    HW164948   6.890  11.764  14.151
21017SOL    HW264949   6.948  11.869  14.243
21018SOL     OW64950   2.526   1.754   6.140
21018SOL    HW164951   2.543   1.825   6.079
21018SOL    HW264952   2.441   1.719   6.114
21019SOL     OW64953   6.386   9.170   5.354
21019SOL    HW164954   6.300   9.136   5.329
21019SOL    HW264955   6.367   9.254   5.396
21020SOL     OW64956   6.992  13.409   7.310
21020SOL    HW164957   7.072  13.462   7.305
21020SOL    HW264958   6.965  13.416   7.402
21021SOL     OW64959   5.317   7.861   1.508
21021SOL    HW164960   5.397   7.825   1.546
21021SOL    HW264961   5.313   7.823   1.420
21022SOL     OW64962   6.063   6.010  11.057
21022SOL    HW164963   5.987   5.957  11.034
21022SOL    HW264964   6.130   5.947  11.082
21023SOL     OW64965   6.315  12.519   7.218
21023SOL    HW164966   6.364  12.553   7.143
21023SOL    HW264967   6.376  12.459   7.262
21024SOL     OW64968   2.352  10.648   3.054
21024SOL    HW164969   2.284  10.592   3.019
21024SOL    HW264970   2.316  10.737   3.049
21025SOL     OW64971  10.178   5.099   7.707
21025SOL    HW164972  10.103   5.085   7.649
21025SOL    HW264973  10.238   5.027   7.687
21026SOL     OW64974   7.184   0.031   4.256
21026SOL    HW164975   7.275   0.047   4.279
21026SOL    HW264976   7.143  14.876   4.336
21027SOL     OW64977   1.930   6.717   8.577
21027SOL    HW164978   1.899   6.806   8.558
21027SOL    HW264979   2.001   6.702   8.515
21028SOL     OW64980   4.817  13.653   5.322
21028SOL    HW164981   4.883  13.611   5.267
21028SOL    HW264982   4.865  13.717   5.374
21029SOL     OW64983  10.668  13.765  13.594
21029SOL    HW164984  10.688  13.676  13.565
21029SOL    HW264985  10.619  13.803  13.521
21030SOL     OW64986  12.568   8.074   2.847
21030SOL    HW164987  12.641   8.116   2.893
21030SOL    HW264988  12.531   8.013   2.910
21031SOL     OW64989   2.949   1.140   3.154
21031SOL    HW164990   2.950   1.079   3.228
21031SOL    HW264991   2.992   1.093   3.083
21032SOL     OW64992   1.664  14.513   8.368
21032SOL    HW164993   1.595  14.456   8.335
21032SOL    HW264994   1.620  14.595   8.389
21033SOL     OW64995   3.279   3.404  14.589
21033SOL    HW164996   3.355   3.369  14.541
21033SOL    HW264997   3.278   3.354  14.670
21034SOL     OW64998   5.568  13.241   3.086
21034SOL    HW164999   5.502  13.188   3.131
21034SOL    HW265000   5.548  13.230   2.993
21035SOL     OW65001   5.806  11.734   9.287
21035SOL    HW165002   5.735  11.744   9.350
21035SOL    HW265003   5.771  11.770   9.205
21036SOL     OW65004   8.900   7.751   8.656
21036SOL    HW165005   8.834   7.800   8.606
21036SOL    HW265006   8.929   7.682   8.596
21037SOL     OW65007   3.223  11.977   1.498
21037SOL    HW165008   3.314  11.954   1.514
21037SOL    HW265009   3.175  11.936   1.571
21038SOL     OW65010   6.234   4.329   7.855
21038SOL    HW165011   6.182   4.407   7.876
21038SOL    HW265012   6.277   4.351   7.771
21039SOL     OW65013  11.562   4.332  11.194
21039SOL    HW165014  11.520   4.248  11.215
21039SOL    HW265015  11.626   4.310  11.127
21040SOL     OW65016   9.695  11.589   9.836
21040SOL    HW165017   9.754  11.658   9.866
21040SOL    HW265018   9.728  11.566   9.749
21041SOL     OW65019  10.828   0.773  14.796
21041SOL    HW165020  10.778   0.832  14.852
21041SOL    HW265021  10.792   0.787  14.708
21042SOL     OW65022   3.008  11.001  10.566
21042SOL    HW165023   2.951  10.956  10.629
21042SOL    HW265024   2.986  10.962  10.482
21043SOL     OW65025   0.828   9.332  11.464
21043SOL    HW165026   0.906   9.319  11.411
21043SOL    HW265027   0.774   9.255  11.446
21044SOL     OW65028   9.407   4.339   0.511
21044SOL    HW165029   9.479   4.382   0.556
21044SOL    HW265030   9.359   4.410   0.468
21045SOL     OW65031   4.101  11.862   3.399
21045SOL    HW165032   4.030  11.798   3.401
21045SOL    HW265033   4.118  11.882   3.491
21046SOL     OW65034   4.876   8.395   9.516
21046SOL    HW165035   4.890   8.342   9.437
21046SOL    HW265036   4.951   8.375   9.571
21047SOL     OW65037  11.228  14.134  12.808
21047SOL    HW165038  11.297  14.192  12.777
21047SOL    HW265039  11.157  14.144  12.744
21048SOL     OW65040   5.319   1.475   3.857
21048SOL    HW165041   5.356   1.420   3.788
21048SOL    HW265042   5.228   1.445   3.865
21049SOL     OW65043   6.137  12.358  14.481
21049SOL    HW165044   6.164  12.442  14.520
21049SOL    HW265045   6.209  12.298  14.501
21050SOL     OW65046  11.419  11.393   2.003
21050SOL    HW165047  11.409  11.376   1.910
21050SOL    HW265048  11.513  11.385   2.019
21051SOL     OW65049   0.036   2.121   0.091
21051SOL    HW165050  14.874   2.058   0.030
21051SOL    HW265051   0.068   2.192   0.035
21052SOL     OW65052   5.320  11.448   8.737
21052SOL    HW165053   5.343  11.402   8.657
21052SOL    HW265054   5.323  11.381   8.805
21053SOL     OW65055   7.247  14.756   1.061
21053SOL    HW165056   7.250  14.785   0.970
21053SOL    HW265057   7.250  14.660   1.055
21054SOL     OW65058   0.219  10.256   3.534
21054SOL    HW165059   0.213  10.352   3.533
21054SOL    HW265060   0.152  10.229   3.597
21055SOL     OW65061   4.361   4.545   2.869
21055SOL    HW165062   4.277   4.553   2.914
21055SOL    HW265063   4.355   4.463   2.821
21056SOL     OW65064   8.261   2.078   0.747
21056SOL    HW165065   8.281   1.998   0.699
21056SOL    HW265066   8.203   2.049   0.818
21057SOL     OW65067   8.644  13.767   5.584
21057SOL    HW165068   8.598  13.847   5.557
21057SOL    HW265069   8.577  13.699   5.584
21058SOL     OW65070   3.896   2.916   1.531
21058SOL    HW165071   3.847   2.868   1.464
21058SOL    HW265072   3.958   2.851   1.566
21059SOL     OW65073  13.040   5.064   9.638
21059SOL    HW165074  13.112   5.008   9.668
21059SOL    HW265075  13.055   5.073   9.543
21060SOL     OW65076  10.938   8.982   3.118
21060SOL    HW165077  10.923   8.986   3.213
21060SOL    HW265078  11.029   9.007   3.107
21061SOL     OW65079   8.680   7.150   1.742
21061SOL    HW165080   8.595   7.152   1.698
21061SOL    HW265081   8.741   7.122   1.673
21062SOL     OW65082   3.182   2.647   5.161
21062SOL    HW165083   3.203   2.564   5.118
21062SOL    HW265084   3.265   2.695   5.162
21063SOL     OW65085   7.409   9.879   8.679
21063SOL    HW165086   7.410   9.791   8.717
21063SOL    HW265087   7.436   9.936   8.751
21064SOL     OW65088  12.256  11.577   9.883
21064SOL    HW165089  12.243  11.499   9.937
21064SOL    HW265090  12.219  11.648   9.935
21065SOL     OW65091   6.637   2.882   7.934
21065SOL    HW165092   6.614   2.958   7.986
21065SOL    HW265093   6.726   2.859   7.962
21066SOL     OW65094   7.151   1.093   9.690
21066SOL    HW165095   7.147   1.000   9.714
21066SOL    HW265096   7.202   1.095   9.609
21067SOL     OW65097  12.864   2.853   5.375
21067SOL    HW165098  12.904   2.927   5.329
21067SOL    HW265099  12.876   2.779   5.316
21068SOL     OW65100  14.194   3.022   7.015
21068SOL    HW165101  14.181   3.112   7.044
21068SOL    HW265102  14.134   2.970   7.068
21069SOL     OW65103   7.208  12.433  14.059
21069SOL    HW165104   7.265  12.399  13.991
21069SOL    HW265105   7.215  12.369  14.130
21070SOL     OW65106   7.751   7.998   3.454
21070SOL    HW165107   7.693   7.934   3.411
21070SOL    HW265108   7.742   8.077   3.401
21071SOL     OW65109  10.622  11.317   0.049
21071SOL    HW165110  10.577  11.388   0.096
21071SOL    HW265111  10.672  11.361  14.859
21072SOL     OW65112  11.912   7.502  12.388
21072SOL    HW165113  11.980   7.555  12.345
21072SOL    HW265114  11.836   7.560  12.393
21073SOL     OW65115  11.164   6.874   4.667
21073SOL    HW165116  11.219   6.937   4.620
21073SOL    HW265117  11.158   6.909   4.756
21074SOL     OW65118   8.305   1.028   2.004
21074SOL    HW165119   8.335   1.060   1.919
21074SOL    HW265120   8.243   0.958   1.984
21075SOL     OW65121   7.736   6.592   5.951
21075SOL    HW165122   7.759   6.657   5.885
21075SOL    HW265123   7.795   6.611   6.025
21076SOL     OW65124   5.891  10.411  11.650
21076SOL    HW165125   5.985  10.422  11.661
21076SOL    HW265126   5.866  10.345  11.714
21077SOL     OW65127   4.854   9.249   2.125
21077SOL    HW165128   4.834   9.274   2.035
21077SOL    HW265129   4.933   9.299   2.146
21078SOL     OW65130   7.327  13.775   7.377
21078SOL    HW165131   7.420  13.796   7.366
21078SOL    HW265132   7.317  13.759   7.471
21079SOL     OW65133   7.395  11.696   9.970
21079SOL    HW165134   7.304  11.713   9.946
21079SOL    HW265135   7.390  11.646  10.051
21080SOL     OW65136   2.415   0.672   0.009
21080SOL    HW165137   2.326   0.644  14.865
21080SOL    HW265138   2.455   0.692  14.802
21081SOL     OW65139   9.033  11.976  14.524
21081SOL    HW165140   9.124  11.949  14.538
21081SOL    HW265141   9.035  12.027  14.443
21082SOL     OW65142   5.407   7.074  13.917
21082SOL    HW165143   5.437   6.989  13.884
21082SOL    HW265144   5.359   7.113  13.845
21083SOL     OW65145   1.285   6.435  11.083
21083SOL    HW165146   1.233   6.439  11.003
21083SOL    HW265147   1.222   6.453  11.153
21084SOL     OW65148  12.188   3.424   7.075
21084SOL    HW165149  12.243   3.497   7.103
21084SOL    HW265150  12.108   3.433   7.127
21085SOL     OW65151   4.445   3.439   3.051
21085SOL    HW165152   4.359   3.478   3.040
21085SOL    HW265153   4.504   3.514   3.063
21086SOL     OW65154   0.786   7.411  13.458
21086SOL    HW165155   0.729   7.472  13.505
21086SOL    HW265156   0.850   7.383  13.523
21087SOL     OW65157   0.603   4.033  10.440
21087SOL    HW165158   0.598   3.941  10.466
21087SOL    HW265159   0.539   4.042  10.369
21088SOL     OW65160   2.438  13.507  10.977
21088SOL    HW165161   2.514  13.454  11.002
21088SOL    HW265162   2.433  13.575  11.044
21089SOL     OW65163   0.121  10.164   0.894
21089SOL    HW165164   0.049  10.227   0.899
21089SOL    HW265165   0.193  10.207   0.940
21090SOL     OW65166  10.705   8.278   8.422
21090SOL    HW165167  10.703   8.341   8.350
21090SOL    HW265168  10.620   8.287   8.464
21091SOL     OW65169   7.791   4.448  12.089
21091SOL    HW165170   7.775   4.354  12.079
21091SOL    HW265171   7.754   4.488  12.011
21092SOL     OW65172  10.916   0.529  13.356
21092SOL    HW165173  10.856   0.598  13.327
21092SOL    HW265174  10.881   0.450  13.314
21093SOL     OW65175  11.335  10.732   3.831
21093SOL    HW165176  11.367  10.674   3.763
21093SOL    HW265177  11.257  10.688   3.866
21094SOL     OW65178  12.512   9.577  14.322
21094SOL    HW165179  12.474   9.619  14.399
21094SOL    HW265180  12.491   9.636  14.249
21095SOL     OW65181   3.624  14.645   6.560
21095SOL    HW165182   3.701  14.633   6.505
21095SOL    HW265183   3.657  14.689   6.638
21096SOL     OW65184   1.164  13.590   8.479
21096SOL    HW165185   1.083  13.564   8.434
21096SOL    HW265186   1.227  13.521   8.457
21097SOL     OW65187   7.457   9.841  12.495
21097SOL    HW165188   7.544   9.812  12.468
21097SOL    HW265189   7.473   9.892  12.575
21098SOL     OW65190   8.462  14.086  13.937
21098SOL    HW165191   8.426  14.072  13.850
21098SOL    HW265192   8.532  14.020  13.945
21099SOL     OW65193   0.237  10.922  14.828
21099SOL    HW165194   0.263  10.852   0.011
21099SOL    HW265195   0.262  11.002  14.873
21100SOL     OW65196   9.962   3.619   3.478
21100SOL    HW165197   9.989   3.528   3.463
21100SOL    HW265198   9.870   3.613   3.502
21101SOL     OW65199  10.192   2.994   4.359
21101SOL    HW165200  10.202   3.026   4.448
21101SOL    HW265201  10.097   2.982   4.348
21102SOL     OW65202   2.502   6.578   7.856
21102SOL    HW165203   2.412   6.547   7.867
21102SOL    HW265204   2.553   6.524   7.916
21103SOL     OW65205   9.429   7.789  13.491
21103SOL    HW165206   9.446   7.730  13.564
21103SOL    HW265207   9.507   7.781  13.435
21104SOL     OW65208  14.864   9.936   3.535
21104SOL    HW165209   0.068   9.968   3.495
21104SOL    HW265210  14.870   9.841   3.529
21105SOL     OW65211   0.689  12.964  10.477
21105SOL    HW165212   0.649  12.931  10.396
21105SOL    HW265213   0.763  12.905  10.492
21106SOL     OW65214   9.517   3.849  12.697
21106SOL    HW165215   9.519   3.904  12.776
21106SOL    HW265216   9.473   3.903  12.631
21107SOL     OW65217   3.051  13.293   8.655
21107SOL    HW165218   3.053  13.354   8.729
21107SOL    HW265219   2.968  13.310   8.612
21108SOL     OW65220   9.708   3.712   9.065
21108SOL    HW165221   9.672   3.626   9.087
21108SOL    HW265222   9.781   3.693   9.006
21109SOL     OW65223   1.375  11.311   9.309
21109SOL    HW165224   1.412  11.386   9.264
21109SOL    HW265225   1.286  11.339   9.332
21110SOL     OW65226  14.813  11.400   5.732
21110SOL    HW165227  14.760  11.339   5.680
21110SOL    HW265228  14.754  11.473   5.751
21111SOL     OW65229   3.227  11.170  12.725
21111SOL    HW165230   3.262  11.167  12.814
21111SOL    HW265231   3.186  11.085  12.712
21112SOL     OW65232   5.578  11.022   3.080
21112SOL    HW165233   5.550  11.098   3.132
21112SOL    HW265234   5.673  11.029   3.077
21113SOL     OW65235   5.882   7.726  12.555
21113SOL    HW165236   5.833   7.696  12.631
21113SOL    HW265237   5.973   7.726  12.583
21114SOL     OW65238   9.393  13.191   2.129
21114SOL    HW165239   9.387  13.278   2.089
21114SOL    HW265240   9.380  13.130   2.055
21115SOL     OW65241   2.519   3.966   3.716
21115SOL    HW165242   2.457   3.896   3.693
21115SOL    HW265243   2.604   3.931   3.690
21116SOL     OW65244   0.178  13.483   5.566
21116SOL    HW165245   0.160  13.440   5.650
21116SOL    HW265246   0.137  13.426   5.501
21117SOL     OW65247   7.116   4.701  14.760
21117SOL    HW165248   7.105   4.741  14.846
21117SOL    HW265249   7.033   4.718  14.715
21118SOL     OW65250   8.477   9.922  14.598
21118SOL    HW165251   8.481   9.831  14.571
21118SOL    HW265252   8.564   9.957  14.578
21119SOL     OW65253  11.640  13.292   9.634
21119SOL    HW165254  11.600  13.359   9.690
21119SOL    HW265255  11.567  13.236   9.607
21120SOL     OW65256   0.815   5.417   6.718
21120SOL    HW165257   0.777   5.449   6.799
21120SOL    HW265258   0.881   5.482   6.694
21121SOL     OW65259   2.080   1.879   5.474
21121SOL    HW165260   2.066   1.807   5.412
21121SOL    HW265261   1.999   1.930   5.469
21122SOL     OW65262   4.300  10.581   3.024
21122SOL    HW165263   4.354  10.527   2.965
21122SOL    HW265264   4.354  10.594   3.101
21123SOL     OW65265   9.461   4.611   0.959
21123SOL    HW165266   9.372   4.646   0.960
21123SOL    HW265267   9.482   4.594   1.050
21124SOL     OW65268  11.484   0.985  11.030
21124SOL    HW165269  11.541   1.010  10.957
21124SOL    HW265270  11.510   1.043  11.102
21125SOL     OW65271  12.700  11.707  14.127
21125SOL    HW165272  12.724  11.641  14.061
21125SOL    HW265273  12.650  11.658  14.192
21126SOL     OW65274  11.457  10.388   5.762
21126SOL    HW165275  11.419  10.377   5.849
21126SOL    HW265276  11.551  10.377   5.776
21127SOL     OW65277   7.328   4.087   4.100
21127SOL    HW165278   7.342   4.179   4.079
21127SOL    HW265279   7.282   4.051   4.024
21128SOL     OW65280   2.025  14.854  10.224
21128SOL    HW165281   1.994   0.058  10.263
21128SOL    HW265282   2.011  14.788  10.292
21129SOL     OW65283   7.626   0.877   7.865
21129SOL    HW165284   7.590   0.916   7.945
21129SOL    HW265285   7.703   0.829   7.895
21130SOL     OW65286  14.603  13.686   9.025
21130SOL    HW165287  14.535  13.727   8.973
21130SOL    HW265288  14.560  13.664   9.108
21131SOL     OW65289  10.759   6.134  12.866
21131SOL    HW165290  10.715   6.057  12.830
21131SOL    HW265291  10.773   6.112  12.959
21132SOL     OW65292   1.287   0.910  11.043
21132SOL    HW165293   1.364   0.884  10.992
21132SOL    HW265294   1.268   0.834  11.098
21133SOL     OW65295   4.934   7.791   0.987
21133SOL    HW165296   5.006   7.846   0.955
21133SOL    HW265297   4.950   7.705   0.947
21134SOL     OW65298   2.439   9.496   0.801
21134SOL    HW165299   2.452   9.559   0.730
21134SOL    HW265300   2.354   9.458   0.784
21135SOL     OW65301   2.492   8.036   3.266
21135SOL    HW165302   2.544   8.116   3.260
21135SOL    HW265303   2.539   7.982   3.330
21136SOL     OW65304   8.616   2.319   3.661
21136SOL    HW165305   8.605   2.412   3.644
21136SOL    HW265306   8.541   2.278   3.618
21137SOL     OW65307   6.904   1.676   5.217
21137SOL    HW165308   6.842   1.622   5.168
21137SOL    HW265309   6.928   1.746   5.157
21138SOL     OW65310   4.077   6.635  14.339
21138SOL    HW165311   4.170   6.655  14.344
21138SOL    HW265312   4.034   6.720  14.324
21139SOL     OW65313   2.956   9.966   2.124
21139SOL    HW165314   2.911   9.899   2.073
21139SOL    HW265315   2.888  10.029   2.146
21140SOL     OW65316   8.670   9.480   7.059
21140SOL    HW165317   8.668   9.534   7.138
21140SOL    HW265318   8.580   9.484   7.025
21141SOL     OW65319   8.059   2.532   5.558
21141SOL    HW165320   7.978   2.499   5.598
21141SOL    HW265321   8.050   2.627   5.563
21142SOL     OW65322  10.368   9.186   8.475
21142SOL    HW165323  10.372   9.160   8.567
21142SOL    HW265324  10.375   9.281   8.477
21143SOL     OW65325  14.113  11.619   5.518
21143SOL    HW165326  14.066  11.541   5.548
21143SOL    HW265327  14.072  11.641   5.434
21144SOL     OW65328   5.466  14.446   3.419
21144SOL    HW165329   5.481  14.522   3.362
21144SOL    HW265330   5.376  14.419   3.399
21145SOL     OW65331   6.385   6.957   0.113
21145SOL    HW165332   6.357   7.027   0.054
21145SOL    HW265333   6.316   6.891   0.106
21146SOL     OW65334   5.388  12.002  14.055
21146SOL    HW165335   5.320  11.962  14.002
21146SOL    HW265336   5.402  11.940  14.127
21147SOL     OW65337   1.145   8.674   7.946
21147SOL    HW165338   1.221   8.661   7.889
21147SOL    HW265339   1.071   8.649   7.891
21148SOL     OW65340  10.329   0.497   9.429
21148SOL    HW165341  10.356   0.440   9.501
21148SOL    HW265342  10.346   0.446   9.350
21149SOL     OW65343   6.893  11.713   4.168
21149SOL    HW165344   6.829  11.642   4.167
21149SOL    HW265345   6.864  11.771   4.238
21150SOL     OW65346  13.020   7.982   9.483
21150SOL    HW165347  13.098   8.038   9.481
21150SOL    HW265348  13.051   7.900   9.520
21151SOL     OW65349   1.110  10.754   3.439
21151SOL    HW165350   1.198  10.791   3.431
21151SOL    HW265351   1.103  10.727   3.530
21152SOL     OW65352   7.392  12.009  13.619
21152SOL    HW165353   7.457  12.053  13.564
21152SOL    HW265354   7.439  11.987  13.699
21153SOL     OW65355   4.470   5.462  11.752
21153SOL    HW165356   4.439   5.404  11.821
21153SOL    HW265357   4.559   5.487  11.778
21154SOL     OW65358   3.606  14.317   6.452
21154SOL    HW165359   3.603  14.293   6.359
21154SOL    HW265360   3.530  14.374   6.465
21155SOL     OW65361  12.031   5.537  12.283
21155SOL    HW165362  12.069   5.603  12.341
21155SOL    HW265363  12.091   5.463  12.287
21156SOL     OW65364   9.693   0.077  13.252
21156SOL    HW165365   9.719  14.872  13.292
21156SOL    HW265366   9.713   0.067  13.159
21157SOL     OW65367  10.149   9.035   6.645
21157SOL    HW165368  10.210   9.008   6.576
21157SOL    HW265369  10.094   9.101   6.603
21158SOL     OW65370   8.662   7.518   4.613
21158SOL    HW165371   8.722   7.516   4.688
21158SOL    HW265372   8.677   7.435   4.568
21159SOL     OW65373  11.122  11.344   5.700
21159SOL    HW165374  11.080  11.344   5.614
21159SOL    HW265375  11.082  11.270   5.746
21160SOL     OW65376   4.281   1.661   5.305
21160SOL    HW165377   4.342   1.590   5.325
21160SOL    HW265378   4.323   1.739   5.342
21161SOL     OW65379  12.308  10.529   0.594
21161SOL    HW165380  12.368  10.518   0.520
21161SOL    HW265381  12.256  10.449   0.594
21162SOL     OW65382  12.720  11.305   0.866
21162SOL    HW165383  12.630  11.273   0.878
21162SOL    HW265384  12.770  11.226   0.844
21163SOL     OW65385   5.469   1.673  12.488
21163SOL    HW165386   5.439   1.603  12.546
21163SOL    HW265387   5.522   1.729  12.546
21164SOL     OW65388   0.976  14.044  10.821
21164SOL    HW165389   0.965  13.951  10.800
21164SOL    HW265390   0.897  14.067  10.869
21165SOL     OW65391   9.941   5.993   1.018
21165SOL    HW165392   9.859   5.995   1.067
21165SOL    HW265393   9.993   5.925   1.061
21166SOL     OW65394   4.529  11.744  12.162
21166SOL    HW165395   4.501  11.768  12.250
21166SOL    HW265396   4.622  11.723  12.172
21167SOL     OW65397   7.166   2.565  10.298
21167SOL    HW165398   7.239   2.510  10.328
21167SOL    HW265399   7.107   2.503  10.255
21168SOL     OW65400   0.259   1.455  14.236
21168SOL    HW165401   0.260   1.377  14.181
21168SOL    HW265402   0.233   1.423  14.322
21169SOL     OW65403  11.433  13.581   7.097
21169SOL    HW165404  11.519  13.585   7.056
21169SOL    HW265405  11.405  13.672   7.102
21170SOL     OW65406   2.946  11.487   9.023
21170SOL    HW165407   3.008  11.437   9.076
21170SOL    HW265408   2.866  11.488   9.076
21171SOL     OW65409  12.247   0.241  14.654
21171SOL    HW165410  12.244   0.155  14.613
21171SOL    HW265411  12.155   0.263  14.671
21172SOL     OW65412   6.804  13.379  11.424
21172SOL    HW165413   6.863  13.430  11.368
21172SOL    HW265414   6.859  13.307  11.456
21173SOL     OW65415  11.741  10.908   1.405
21173SOL    HW165416  11.799  10.929   1.332
21173SOL    HW265417  11.655  10.895   1.364
21174SOL     OW65418   1.413   2.182   6.201
21174SOL    HW165419   1.350   2.114   6.223
21174SOL    HW265420   1.494   2.155   6.245
21175SOL     OW65421   5.979  12.759  13.561
21175SOL    HW165422   6.000  12.667  13.548
21175SOL    HW265423   5.900  12.773  13.510
21176SOL     OW65424   2.955   5.685   4.699
21176SOL    HW165425   2.994   5.639   4.625
21176SOL    HW265426   2.948   5.618   4.768
21177SOL     OW65427   0.687  13.074   5.728
21177SOL    HW165428   0.765  13.037   5.768
21177SOL    HW265429   0.720  13.138   5.665
21178SOL     OW65430   7.017   7.732   7.568
21178SOL    HW165431   6.931   7.759   7.599
21178SOL    HW265432   7.079   7.777   7.626
21179SOL     OW65433  11.638   3.439   5.156
21179SOL    HW165434  11.575   3.433   5.084
21179SOL    HW265435  11.593   3.400   5.231
21180SOL     OW65436   9.858   2.044   5.969
21180SOL    HW165437   9.831   1.969   5.916
21180SOL    HW265438   9.890   2.004   6.050
21181SOL     OW65439  11.203  13.129   5.380
21181SOL    HW165440  11.226  13.058   5.440
21181SOL    HW265441  11.115  13.155   5.408
21182SOL     OW65442   0.697  13.983   2.323
21182SOL    HW165443   0.616  14.003   2.276
21182SOL    HW265444   0.721  14.066   2.364
21183SOL     OW65445   3.542  13.081   6.765
21183SOL    HW165446   3.495  13.159   6.794
21183SOL    HW265447   3.488  13.044   6.696
21184SOL     OW65448   2.176   0.196   3.934
21184SOL    HW165449   2.181   0.152   3.849
21184SOL    HW265450   2.244   0.263   3.930
21185SOL     OW65451   1.768  13.607   1.633
21185SOL    HW165452   1.708  13.629   1.704
21185SOL    HW265453   1.762  13.681   1.573
21186SOL     OW65454   5.167   4.380   0.291
21186SOL    HW165455   5.253   4.418   0.308
21186SOL    HW265456   5.124   4.444   0.234
21187SOL     OW65457   6.138   2.401   3.035
21187SOL    HW165458   6.065   2.348   3.002
21187SOL    HW265459   6.161   2.360   3.119
21188SOL     OW65460   3.722  12.832   0.064
21188SOL    HW165461   3.638  12.840   0.018
21188SOL    HW265462   3.704  12.866   0.152
21189SOL     OW65463   6.630  13.030  13.339
21189SOL    HW165464   6.590  13.104  13.385
21189SOL    HW265465   6.662  13.067  13.257
21190SOL     OW65466   9.220   9.810   2.643
21190SOL    HW165467   9.285   9.773   2.703
21190SOL    HW265468   9.271   9.853   2.575
21191SOL     OW65469   3.303  12.522   4.982
21191SOL    HW165470   3.348  12.527   4.898
21191SOL    HW265471   3.216  12.488   4.961
21192SOL     OW65472   7.416   0.551  13.826
21192SOL    HW165473   7.328   0.568  13.792
21192SOL    HW265474   7.434   0.625  13.884
21193SOL     OW65475   6.727   2.196   2.210
21193SOL    HW165476   6.713   2.267   2.147
21193SOL    HW265477   6.820   2.175   2.203
21194SOL     OW65478   5.016   5.676  13.886
21194SOL    HW165479   5.025   5.609  13.818
21194SOL    HW265480   4.990   5.755  13.839
21195SOL     OW65481  12.570  14.488  13.194
21195SOL    HW165482  12.625  14.489  13.272
21195SOL    HW265483  12.558  14.395  13.175
21196SOL     OW65484   6.735  11.126   5.040
21196SOL    HW165485   6.746  11.041   5.082
21196SOL    HW265486   6.641  11.143   5.044
21197SOL     OW65487  10.473   5.075   3.689
21197SOL    HW165488  10.526   5.086   3.768
21197SOL    HW265489  10.399   5.022   3.717
21198SOL     OW65490   8.942   3.987   7.806
21198SOL    HW165491   8.892   3.966   7.727
21198SOL    HW265492   8.962   4.080   7.797
21199SOL     OW65493   5.271   2.436   6.979
21199SOL    HW165494   5.194   2.420   7.033
21199SOL    HW265495   5.268   2.530   6.960
21200SOL     OW65496   7.264  12.838   2.094
21200SOL    HW165497   7.209  12.787   2.034
21200SOL    HW265498   7.326  12.883   2.036
21201SOL     OW65499   6.205   8.337   1.596
21201SOL    HW165500   6.243   8.364   1.680
21201SOL    HW265501   6.180   8.246   1.610
21202SOL     OW65502   8.966   7.094  13.815
21202SOL    HW165503   8.960   7.190  13.813
21202SOL    HW265504   8.961   7.072  13.908
21203SOL     OW65505  14.683   0.169   0.094
21203SOL    HW165506  14.622   0.196   0.025
21203SOL    HW265507  14.640   0.196   0.175
21204SOL     OW65508   1.971  14.662  11.509
21204SOL    HW165509   2.027  14.681  11.434
21204SOL    HW265510   1.989  14.570  11.529
21205SOL     OW65511   8.478  11.098  10.313
21205SOL    HW165512   8.570  11.074  10.301
21205SOL    HW265513   8.437  11.076  10.229
21206SOL     OW65514  12.256  12.153   6.807
21206SOL    HW165515  12.291  12.237   6.777
21206SOL    HW265516  12.199  12.124   6.735
21207SOL     OW65517   3.299   7.455   6.283
21207SOL    HW165518   3.252   7.535   6.262
21207SOL    HW265519   3.391   7.477   6.267
21208SOL     OW65520   3.649   6.553   2.893
21208SOL    HW165521   3.597   6.513   2.962
21208SOL    HW265522   3.609   6.640   2.880
21209SOL     OW65523   9.867   4.667  13.152
21209SOL    HW165524   9.811   4.592  13.173
21209SOL    HW265525   9.887   4.656  13.059
21210SOL     OW65526   4.757  14.448   3.050
21210SOL    HW165527   4.819  14.417   2.985
21210SOL    HW265528   4.701  14.372   3.068
21211SOL     OW65529   6.727  10.158   6.653
21211SOL    HW165530   6.692  10.142   6.740
21211SOL    HW265531   6.801  10.216   6.667
21212SOL     OW65532   4.873   6.561   2.444
21212SOL    HW165533   4.861   6.472   2.409
21212SOL    HW265534   4.784   6.595   2.451
21213SOL     OW65535   2.413  10.659   8.799
21213SOL    HW165536   2.422  10.692   8.888
21213SOL    HW265537   2.502  10.653   8.766
21214SOL     OW65538   8.162   3.517   6.829
21214SOL    HW165539   8.198   3.461   6.760
21214SOL    HW265540   8.219   3.500   6.905
21215SOL     OW65541   8.664   7.863   8.473
21215SOL    HW165542   8.646   7.941   8.421
21215SOL    HW265543   8.654   7.790   8.412
21216SOL     OW65544  14.501  11.788  12.590
21216SOL    HW165545  14.476  11.851  12.522
21216SOL    HW265546  14.513  11.706  12.543
21217SOL     OW65547   4.561   5.476   8.361
21217SOL    HW165548   4.509   5.556   8.362
21217SOL    HW265549   4.646   5.502   8.327
21218SOL     OW65550   4.975  14.375   2.310
21218SOL    HW165551   4.943  14.426   2.235
21218SOL    HW265552   4.900  14.320   2.335
21219SOL     OW65553   5.792   1.094   8.831
21219SOL    HW165554   5.754   1.155   8.767
21219SOL    HW265555   5.878   1.130   8.850
21220SOL     OW65556  12.505   3.562   0.018
21220SOL    HW165557  12.564   3.638   0.014
21220SOL    HW265558  12.469   3.555  14.807
21221SOL     OW65559   3.239  14.436  10.117
21221SOL    HW165560   3.269  14.518  10.076
21221SOL    HW265561   3.248  14.453  10.211
21222SOL     OW65562   7.616  13.067   6.476
21222SOL    HW165563   7.640  13.112   6.558
21222SOL    HW265564   7.521  13.060   6.479
21223SOL     OW65565   3.556   5.651  13.222
21223SOL    HW165566   3.632   5.605  13.256
21223SOL    HW265567   3.490   5.582  13.210
21224SOL     OW65568   0.645   1.850   1.951
21224SOL    HW165569   0.730   1.833   1.910
21224SOL    HW265570   0.654   1.815   2.040
21225SOL     OW65571  12.413   7.170  10.548
21225SOL    HW165572  12.362   7.176  10.467
21225SOL    HW265573  12.502   7.147  10.519
21226SOL     OW65574  11.452   1.678  11.291
21226SOL    HW165575  11.441   1.652  11.383
21226SOL    HW265576  11.410   1.763  11.285
21227SOL     OW65577  11.874   9.918   1.859
21227SOL    HW165578  11.906  10.008   1.866
21227SOL    HW265579  11.779   9.925   1.872
21228SOL     OW65580   6.332   4.131   2.492
21228SOL    HW165581   6.299   4.169   2.574
21228SOL    HW265582   6.272   4.059   2.474
21229SOL     OW65583   0.509   3.991  12.864
21229SOL    HW165584   0.560   3.925  12.911
21229SOL    HW265585   0.436   4.011  12.923
21230SOL     OW65586   3.624   3.355   2.955
21230SOL    HW165587   3.534   3.369   2.924
21230SOL    HW265588   3.648   3.268   2.922
21231SOL     OW65589   9.781   4.677   9.089
21231SOL    HW165590   9.733   4.597   9.069
21231SOL    HW265591   9.761   4.694   9.181
21232SOL     OW65592   2.765   2.912   1.490
21232SOL    HW165593   2.685   2.946   1.530
21232SOL    HW265594   2.797   2.847   1.553
21233SOL     OW65595   4.921  10.551   5.167
21233SOL    HW165596   4.967  10.473   5.199
21233SOL    HW265597   4.912  10.537   5.073
21234SOL     OW65598  10.579   2.277  14.399
21234SOL    HW165599  10.672   2.277  14.421
21234SOL    HW265600  10.571   2.209  14.331
21235SOL     OW65601   9.350  14.085   7.996
21235SOL    HW165602   9.303  14.123   8.071
21235SOL    HW265603   9.305  14.121   7.919
21236SOL     OW65604   6.172   9.052   8.326
21236SOL    HW165605   6.104   9.041   8.393
21236SOL    HW265606   6.254   9.036   8.373
21237SOL     OW65607  10.955   7.919   3.628
21237SOL    HW165608  11.017   7.975   3.582
21237SOL    HW265609  10.869   7.953   3.603
21238SOL     OW65610  14.564   1.960  13.496
21238SOL    HW165611  14.581   1.910  13.576
21238SOL    HW265612  14.636   2.022  13.490
21239SOL     OW65613   8.504  11.657   5.652
21239SOL    HW165614   8.534  11.634   5.563
21239SOL    HW265615   8.570  11.720   5.683
21240SOL     OW65616   5.365   7.362  13.263
21240SOL    HW165617   5.403   7.294  13.319
21240SOL    HW265618   5.420   7.439  13.278
21241SOL     OW65619   6.999   2.668  12.811
21241SOL    HW165620   6.970   2.577  12.802
21241SOL    HW265621   6.935   2.708  12.868
21242SOL     OW65622   2.447  10.927   5.437
21242SOL    HW165623   2.353  10.908   5.449
21242SOL    HW265624   2.482  10.849   5.395
21243SOL     OW65625  10.799  13.079   6.645
21243SOL    HW165626  10.794  13.175   6.646
21243SOL    HW265627  10.780  13.054   6.736
21244SOL     OW65628  11.794   3.645   5.123
21244SOL    HW165629  11.732   3.574   5.137
21244SOL    HW265630  11.759   3.718   5.173
21245SOL     OW65631  14.092  10.247   6.498
21245SOL    HW165632  14.158  10.239   6.566
21245SOL    HW265633  14.043  10.327   6.520
21246SOL     OW65634  13.667   3.297   3.562
21246SOL    HW165635  13.711   3.372   3.523
21246SOL    HW265636  13.734   3.256   3.617
21247SOL     OW65637  12.185  14.533  11.517
21247SOL    HW165638  12.192  14.459  11.457
21247SOL    HW265639  12.216  14.608  11.466
21248SOL     OW65640  13.041   4.295   6.360
21248SOL    HW165641  13.018   4.262   6.447
21248SOL    HW265642  13.137   4.291   6.358
21249SOL     OW65643  13.449  14.817   8.991
21249SOL    HW165644  13.441  14.724   9.013
21249SOL    HW265645  13.515  14.819   8.922
21250SOL     OW65646   4.157   7.752  12.458
21250SOL    HW165647   4.154   7.810  12.381
21250SOL    HW265648   4.096   7.681  12.437
21251SOL     OW65649   8.712  12.014   5.568
21251SOL    HW165650   8.636  12.013   5.626
21251SOL    HW265651   8.690  11.953   5.498
21252SOL     OW65652   2.983  13.475   7.001
21252SOL    HW165653   3.048  13.543   6.988
21252SOL    HW265654   2.982  13.426   6.919
21253SOL     OW65655  12.491   1.290   9.023
21253SOL    HW165656  12.427   1.339   9.075
21253SOL    HW265657  12.437   1.243   8.959
21254SOL     OW65658   7.873  13.856   7.121
21254SOL    HW165659   7.824  13.918   7.067
21254SOL    HW265660   7.950  13.835   7.068
21255SOL     OW65661   4.072  12.489  10.479
21255SOL    HW165662   4.162  12.462  10.460
21255SOL    HW265663   4.068  12.580  10.450
21256SOL     OW65664   8.840  12.640   6.183
21256SOL    HW165665   8.749  12.652   6.210
21256SOL    HW265666   8.855  12.708   6.117
21257SOL     OW65667  14.126   3.336   8.934
21257SOL    HW165668  14.144   3.334   8.840
21257SOL    HW265669  14.046   3.387   8.942
21258SOL     OW65670   8.791  11.607  10.314
21258SOL    HW165671   8.883  11.629  10.300
21258SOL    HW265672   8.743  11.659  10.250
21259SOL     OW65673   0.516  12.227   8.785
21259SOL    HW165674   0.477  12.171   8.851
21259SOL    HW265675   0.595  12.181   8.756
21260SOL     OW65676   8.619  12.352  13.792
21260SOL    HW165677   8.589  12.323  13.878
21260SOL    HW265678   8.643  12.444  13.805
21261SOL     OW65679   9.358   3.008  13.358
21261SOL    HW165680   9.279   3.009  13.304
21261SOL    HW265681   9.375   3.101  13.377
21262SOL     OW65682  10.876  12.064   5.288
21262SOL    HW165683  10.810  11.996   5.271
21262SOL    HW265684  10.915  12.039   5.372
21263SOL     OW65685  10.445   4.646  10.407
21263SOL    HW165686  10.356   4.661  10.440
21263SOL    HW265687  10.479   4.734  10.391
21264SOL     OW65688   1.262  11.247   8.260
21264SOL    HW165689   1.218  11.189   8.323
21264SOL    HW265690   1.323  11.189   8.214
21265SOL     OW65691   6.116   1.476  10.857
21265SOL    HW165692   6.168   1.396  10.863
21265SOL    HW265693   6.143   1.516  10.775
21266SOL     OW65694   7.082  10.846  12.785
21266SOL    HW165695   7.174  10.826  12.767
21266SOL    HW265696   7.084  10.916  12.850
21267SOL     OW65697   9.564  11.466   6.008
21267SOL    HW165698   9.601  11.483   5.921
21267SOL    HW265699   9.612  11.390   6.040
21268SOL     OW65700  10.731  14.558   6.353
21268SOL    HW165701  10.787  14.480   6.350
21268SOL    HW265702  10.792  14.631   6.364
21269SOL     OW65703   2.921   9.130  13.265
21269SOL    HW165704   2.987   9.085  13.317
21269SOL    HW265705   2.936   9.223  13.283
21270SOL     OW65706   0.428   6.810   4.314
21270SOL    HW165707   0.339   6.777   4.329
21270SOL    HW265708   0.483   6.732   4.319
21271SOL     OW65709   5.055  14.570   8.763
21271SOL    HW165710   5.084  14.573   8.854
21271SOL    HW265711   5.125  14.613   8.714
21272SOL     OW65712   2.501   7.236  10.745
21272SOL    HW165713   2.523   7.156  10.792
21272SOL    HW265714   2.558   7.303  10.785
21273SOL     OW65715   1.710   7.550   9.908
21273SOL    HW165716   1.778   7.512   9.963
21273SOL    HW265717   1.758   7.596   9.839
21274SOL     OW65718  10.231  14.581   9.375
21274SOL    HW165719  10.247  14.538   9.292
21274SOL    HW265720  10.158  14.640   9.358
21275SOL     OW65721  10.572  14.640   0.856
21275SOL    HW165722  10.554  14.685   0.939
21275SOL    HW265723  10.487  14.636   0.812
21276SOL     OW65724  14.102   7.067   5.601
21276SOL    HW165725  14.126   7.066   5.694
21276SOL    HW265726  14.041   7.140   5.593
21277SOL     OW65727  14.470  14.743   4.412
21277SOL    HW165728  14.436  14.758   4.501
21277SOL    HW265729  14.537  14.810   4.401
21278SOL     OW65730   6.444  10.417   9.395
21278SOL    HW165731   6.391  10.343   9.425
21278SOL    HW265732   6.529  10.378   9.373
21279SOL     OW65733  14.840   2.342   8.075
21279SOL    HW165734  14.746   2.324   8.085
21279SOL    HW265735  14.844   2.419   8.019
21280SOL     OW65736   7.590  12.541   1.661
21280SOL    HW165737   7.626  12.629   1.673
21280SOL    HW265738   7.548  12.543   1.575
21281SOL     OW65739   2.994   2.574   2.332
21281SOL    HW165740   3.028   2.584   2.243
21281SOL    HW265741   3.020   2.654   2.377
21282SOL     OW65742   5.982   9.546  10.958
21282SOL    HW165743   6.003   9.457  10.929
21282SOL    HW265744   5.898   9.537  11.002
21283SOL     OW65745  10.402   6.828   1.081
21283SOL    HW165746  10.411   6.868   0.995
21283SOL    HW265747  10.332   6.878   1.124
21284SOL     OW65748   1.374   2.766  11.823
21284SOL    HW165749   1.371   2.672  11.809
21284SOL    HW265750   1.395   2.776  11.916
21285SOL     OW65751  14.803   5.152  11.155
21285SOL    HW165752  14.725   5.202  11.179
21285SOL    HW265753  14.834   5.193  11.074
21286SOL     OW65754   3.762  13.547   5.369
21286SOL    HW165755   3.842  13.533   5.319
21286SOL    HW265756   3.732  13.635   5.344
21287SOL     OW65757  13.080  13.171   5.190
21287SOL    HW165758  13.148  13.106   5.174
21287SOL    HW265759  13.033  13.138   5.266
21288SOL     OW65760   7.444   9.835  14.145
21288SOL    HW165761   7.465   9.927  14.161
21288SOL    HW265762   7.395   9.808  14.223
21289SOL     OW65763   8.269  11.802   7.588
21289SOL    HW165764   8.362  11.783   7.593
21289SOL    HW265765   8.231  11.725   7.544
21290SOL     OW65766  12.996   2.179   2.898
21290SOL    HW165767  13.087   2.175   2.927
21290SOL    HW265768  12.945   2.170   2.978
21291SOL     OW65769   4.068   0.739   3.170
21291SOL    HW165770   4.075   0.790   3.251
21291SOL    HW265771   4.061   0.805   3.101
21292SOL     OW65772   7.505  10.848   1.041
21292SOL    HW165773   7.448  10.832   1.116
21292SOL    HW265774   7.446  10.849   0.965
21293SOL     OW65775  12.124   5.449  13.929
21293SOL    HW165776  12.057   5.506  13.965
21293SOL    HW265777  12.133   5.476  13.838
21294SOL     OW65778   8.499   2.304  13.217
21294SOL    HW165779   8.457   2.285  13.301
21294SOL    HW265780   8.471   2.393  13.196
21295SOL     OW65781   6.453   7.231   9.208
21295SOL    HW165782   6.480   7.309   9.160
21295SOL    HW265783   6.535   7.188   9.232
21296SOL     OW65784   6.025  12.856  14.092
21296SOL    HW165785   6.078  12.785  14.055
21296SOL    HW265786   5.939  12.845  14.051
21297SOL     OW65787   2.789   6.312  12.937
21297SOL    HW165788   2.848   6.261  12.882
21297SOL    HW265789   2.843   6.343  13.010
21298SOL     OW65790   4.837   2.313   0.834
21298SOL    HW165791   4.896   2.331   0.908
21298SOL    HW265792   4.751   2.304   0.874
21299SOL     OW65793   4.605  11.955   5.787
21299SOL    HW165794   4.607  11.913   5.873
21299SOL    HW265795   4.685  11.925   5.744
21300SOL     OW65796  10.448   7.261   6.397
21300SOL    HW165797  10.490   7.177   6.376
21300SOL    HW265798  10.481   7.321   6.331
21301SOL     OW65799  12.913  14.039   4.581
21301SOL    HW165800  12.929  14.129   4.609
21301SOL    HW265801  12.858  14.047   4.504
21302SOL     OW65802  14.818   8.762   7.369
21302SOL    HW165803  14.734   8.797   7.341
21302SOL    HW265804  14.844   8.816   7.444
21303SOL     OW65805  11.366  11.282  10.431
21303SOL    HW165806  11.411  11.251  10.510
21303SOL    HW265807  11.276  11.251  10.440
21304SOL     OW65808   2.927  13.369   6.542
21304SOL    HW165809   2.867  13.414   6.483
21304SOL    HW265810   2.880  13.289   6.567
21305SOL     OW65811   9.178   8.405   5.214
21305SOL    HW165812   9.156   8.407   5.121
21305SOL    HW265813   9.150   8.318   5.243
21306SOL     OW65814   4.025   0.543   0.454
21306SOL    HW165815   4.098   0.538   0.515
21306SOL    HW265816   4.064   0.574   0.372
21307SOL     OW65817   1.880   1.472   5.510
21307SOL    HW165818   1.900   1.558   5.547
21307SOL    HW265819   1.959   1.446   5.465
21308SOL     OW65820   5.675  13.495  10.487
21308SOL    HW165821   5.682  13.406  10.452
21308SOL    HW265822   5.588  13.524  10.459
21309SOL     OW65823   6.965  11.428   2.889
21309SOL    HW165824   7.030  11.379   2.839
21309SOL    HW265825   6.995  11.519   2.884
21310SOL     OW65826   2.084   6.464   3.003
21310SOL    HW165827   2.038   6.531   3.053
21310SOL    HW265828   2.151   6.431   3.064
21311SOL     OW65829  10.933   1.247  12.774
21311SOL    HW165830  10.926   1.189  12.850
21311SOL    HW265831  10.905   1.193  12.700
21312SOL     OW65832   5.150  14.219   3.593
21312SOL    HW165833   5.200  14.241   3.672
21312SOL    HW265834   5.139  14.124   3.597
21313SOL     OW65835  10.866  13.221   1.402
21313SOL    HW165836  10.834  13.149   1.455
21313SOL    HW265837  10.939  13.257   1.451
21314SOL     OW65838  11.664   0.544   5.429
21314SOL    HW165839  11.751   0.511   5.453
21314SOL    HW265840  11.678   0.638   5.415
21315SOL     OW65841   5.546   3.596  10.894
21315SOL    HW165842   5.641   3.607  10.893
21315SOL    HW265843   5.521   3.591  10.801
21316SOL     OW65844   0.661   8.533   8.553
21316SOL    HW165845   0.638   8.625   8.564
21316SOL    HW265846   0.732   8.518   8.615
21317SOL     OW65847   6.763   1.508   3.118
21317SOL    HW165848   6.808   1.469   3.043
21317SOL    HW265849   6.790   1.454   3.192
21318SOL     OW65850   4.362   0.551   9.073
21318SOL    HW165851   4.310   0.487   9.025
21318SOL    HW265852   4.428   0.498   9.119
21319SOL     OW65853   5.132  12.790   6.077
21319SOL    HW165854   5.218  12.752   6.056
21319SOL    HW265855   5.134  12.877   6.036
21320SOL     OW65856   5.113   8.385   3.590
21320SOL    HW165857   5.057   8.375   3.513
21320SOL    HW265858   5.202   8.376   3.555
21321SOL     OW65859  10.894   4.604   3.838
21321SOL    HW165860  10.849   4.675   3.793
21321SOL    HW265861  10.845   4.526   3.814
21322SOL     OW65862  11.903   1.711   2.952
21322SOL    HW165863  11.931   1.622   2.975
21322SOL    HW265864  11.984   1.761   2.950
21323SOL     OW65865   2.394  12.322   1.639
21323SOL    HW165866   2.320  12.334   1.698
21323SOL    HW265867   2.468  12.365   1.682
21324SOL     OW65868  12.023   4.789  12.694
21324SOL    HW165869  11.942   4.823  12.730
21324SOL    HW265870  12.080   4.866  12.687
21325SOL     OW65871   0.234   6.702  12.242
21325SOL    HW165872   0.268   6.747  12.319
21325SOL    HW265873   0.202   6.618  12.276
21326SOL     OW65874  13.840   1.867  11.798
21326SOL    HW165875  13.922   1.848  11.844
21326SOL    HW265876  13.773   1.867  11.866
21327SOL     OW65877   4.654   9.085   3.578
21327SOL    HW165878   4.670   9.088   3.484
21327SOL    HW265879   4.689   9.001   3.606
21328SOL     OW65880   8.160   3.241   1.077
21328SOL    HW165881   8.095   3.201   1.135
21328SOL    HW265882   8.111   3.258   0.996
21329SOL     OW65883   3.854  12.608   0.723
21329SOL    HW165884   3.878  12.584   0.812
21329SOL    HW265885   3.822  12.527   0.683
21330SOL     OW65886  14.593   6.404  12.638
21330SOL    HW165887  14.685   6.381  12.627
21330SOL    HW265888  14.546   6.339  12.588
21331SOL     OW65889   0.501   8.673  13.939
21331SOL    HW165890   0.409   8.688  13.914
21331SOL    HW265891   0.529   8.600  13.884
21332SOL     OW65892  14.199   3.350   4.239
21332SOL    HW165893  14.269   3.292   4.269
21332SOL    HW265894  14.225   3.375   4.150
21333SOL     OW65895  11.997   2.679   9.694
21333SOL    HW165896  11.958   2.764   9.711
21333SOL    HW265897  11.951   2.619   9.752
21334SOL     OW65898  13.726  13.146   2.820
21334SOL    HW165899  13.780  13.154   2.742
21334SOL    HW265900  13.754  13.218   2.877
21335SOL     OW65901   9.795  10.578   2.291
21335SOL    HW165902   9.838  10.540   2.215
21335SOL    HW265903   9.704  10.590   2.264
21336SOL     OW65904  11.631  13.244   2.242
21336SOL    HW165905  11.566  13.264   2.174
21336SOL    HW265906  11.605  13.297   2.317
21337SOL     OW65907   3.551   7.433   8.347
21337SOL    HW165908   3.549   7.345   8.309
21337SOL    HW265909   3.644   7.457   8.346
21338SOL     OW65910   1.038   8.236  12.416
21338SOL    HW165911   1.054   8.144  12.400
21338SOL    HW265912   1.035   8.243  12.512
21339SOL     OW65913   5.911  12.299   6.332
21339SOL    HW165914   5.836  12.242   6.351
21339SOL    HW265915   5.980  12.266   6.389
21340SOL     OW65916  12.991   8.176   6.142
21340SOL    HW165917  12.975   8.227   6.063
21340SOL    HW265918  13.047   8.232   6.196
21341SOL     OW65919   6.266  12.139   4.708
21341SOL    HW165920   6.196  12.122   4.646
21341SOL    HW265921   6.233  12.107   4.792
21342SOL     OW65922   1.026  14.011   4.895
21342SOL    HW165923   1.109  13.965   4.896
21342SOL    HW265924   1.046  14.099   4.928
21343SOL     OW65925   0.481   9.740   9.194
21343SOL    HW165926   0.475   9.822   9.243
21343SOL    HW265927   0.570   9.739   9.159
21344SOL     OW65928   0.167   5.842   2.549
21344SOL    HW165929   0.221   5.847   2.470
21344SOL    HW265930   0.181   5.753   2.581
21345SOL     OW65931  12.603  12.559   0.381
21345SOL    HW165932  12.672  12.496   0.401
21345SOL    HW265933  12.527  12.527   0.429
21346SOL     OW65934  11.841   8.585  10.646
21346SOL    HW165935  11.851   8.490  10.650
21346SOL    HW265936  11.750   8.599  10.622
21347SOL     OW65937   5.144  10.319   2.933
21347SOL    HW165938   5.063  10.296   2.887
21347SOL    HW265939   5.144  10.263   3.011
21348SOL     OW65940  12.008   6.022  12.291
21348SOL    HW165941  11.967   5.940  12.265
21348SOL    HW265942  11.988   6.030  12.385
21349SOL     OW65943   6.833   3.288   1.409
21349SOL    HW165944   6.802   3.378   1.397
21349SOL    HW265945   6.771   3.250   1.472
21350SOL     OW65946  10.001   9.869  10.242
21350SOL    HW165947   9.925   9.922  10.266
21350SOL    HW265948  10.052   9.864  10.322
21351SOL     OW65949   2.826   2.039   3.118
21351SOL    HW165950   2.762   1.993   3.063
21351SOL    HW265951   2.832   1.986   3.197
21352SOL     OW65952   6.201  14.666   1.263
21352SOL    HW165953   6.225  14.574   1.259
21352SOL    HW265954   6.217  14.699   1.174
21353SOL     OW65955  10.580   9.926  12.663
21353SOL    HW165956  10.573   9.847  12.717
21353SOL    HW265957  10.518   9.987  12.702
21354SOL     OW65958   5.441   2.610   2.010
21354SOL    HW165959   5.498   2.565   2.073
21354SOL    HW265960   5.489   2.605   1.927
21355SOL     OW65961   7.042  13.273   8.610
21355SOL    HW165962   7.108  13.320   8.559
21355SOL    HW265963   7.083  13.190   8.632
21356SOL     OW65964   4.798   2.718   0.740
21356SOL    HW165965   4.879   2.674   0.766
21356SOL    HW265966   4.827   2.795   0.692
21357SOL     OW65967   5.526   0.398  13.252
21357SOL    HW165968   5.460   0.347  13.299
21357SOL    HW265969   5.539   0.476  13.306
21358SOL     OW65970   3.934  14.488   4.331
21358SOL    HW165971   3.971  14.559   4.385
21358SOL    HW265972   3.950  14.409   4.383
21359SOL     OW65973   8.983  14.816   3.602
21359SOL    HW165974   8.924  14.820   3.527
21359SOL    HW265975   8.926  14.803   3.677
21360SOL     OW65976  13.285   8.322  13.646
21360SOL    HW165977  13.279   8.229  13.625
21360SOL    HW265978  13.271   8.367  13.563
21361SOL     OW65979   6.378   5.763  11.628
21361SOL    HW165980   6.290   5.799  11.614
21361SOL    HW265981   6.431   5.800  11.558
21362SOL     OW65982   2.748  11.345   2.289
21362SOL    HW165983   2.655  11.363   2.305
21362SOL    HW265984   2.794  11.397   2.355
21363SOL     OW65985   2.408   9.920   4.175
21363SOL    HW165986   2.498   9.902   4.148
21363SOL    HW265987   2.355   9.860   4.123
21364SOL     OW65988  13.679   3.150   5.941
21364SOL    HW165989  13.762   3.189   5.968
21364SOL    HW265990  13.613   3.194   5.993
21365SOL     OW65991   9.335   7.528  14.236
21365SOL    HW165992   9.319   7.434  14.238
21365SOL    HW265993   9.248   7.567  14.239
21366SOL     OW65994  13.741  12.876   6.571
21366SOL    HW165995  13.765  12.810   6.507
21366SOL    HW265996  13.659  12.913   6.538
21367SOL     OW65997   6.529   4.877  11.055
21367SOL    HW165998   6.519   4.858  11.149
21367SOL    HW265999   6.490   4.964  11.044
21368SOL     OW66000   6.745  12.514   9.573
21368SOL    HW166001   6.657  12.503   9.607
21368SOL    HW266002   6.735  12.566   9.494
21369SOL     OW66003   7.735   0.964   6.002
21369SOL    HW166004   7.683   0.954   6.081
21369SOL    HW266005   7.798   1.033   6.024
21370SOL     OW66006  14.290   5.235  11.309
21370SOL    HW166007  14.292   5.142  11.332
21370SOL    HW266008  14.273   5.280  11.391
21371SOL     OW66009   3.318   1.613   2.430
21371SOL    HW166010   3.322   1.530   2.478
21371SOL    HW266011   3.394   1.612   2.373
21372SOL     OW66012  10.817   9.667  10.830
21372SOL    HW166013  10.740   9.637  10.878
21372SOL    HW266014  10.875   9.703  10.898
21373SOL     OW66015   5.522   4.728   0.609
21373SOL    HW166016   5.544   4.792   0.541
21373SOL    HW266017   5.579   4.751   0.682
21374SOL     OW66018   2.326   6.419   4.018
21374SOL    HW166019   2.332   6.487   4.084
21374SOL    HW266020   2.405   6.429   3.965
21375SOL     OW66021   7.928   9.672   3.646
21375SOL    HW166022   7.887   9.586   3.656
21375SOL    HW266023   7.979   9.683   3.726
21376SOL     OW66024  14.262   8.275  11.729
21376SOL    HW166025  14.296   8.356  11.766
21376SOL    HW266026  14.306   8.266  11.644
21377SOL     OW66027   2.689   4.957  10.863
21377SOL    HW166028   2.748   4.899  10.912
21377SOL    HW266029   2.748   5.022  10.823
21378SOL     OW66030   8.920   8.352   0.532
21378SOL    HW166031   8.900   8.444   0.519
21378SOL    HW266032   8.835   8.310   0.546
21379SOL     OW66033   0.122   0.665   6.026
21379SOL    HW166034   0.071   0.598   6.071
21379SOL    HW266035   0.068   0.744   6.030
21380SOL     OW66036  10.715  14.376   1.566
21380SOL    HW166037  10.810  14.387   1.553
21380SOL    HW266038  10.690  14.310   1.500
21381SOL     OW66039   5.273   2.712   6.894
21381SOL    HW166040   5.194   2.758   6.924
21381SOL    HW266041   5.274   2.726   6.799
21382SOL     OW66042   1.675  12.920  13.341
21382SOL    HW166043   1.719  12.865  13.276
21382SOL    HW266044   1.584  12.924  13.311
21383SOL     OW66045   7.630   2.209   0.250
21383SOL    HW166046   7.597   2.130   0.207
21383SOL    HW266047   7.716   2.183   0.285
21384SOL     OW66048  14.338  10.274   1.077
21384SOL    HW166049  14.311  10.318   0.997
21384SOL    HW266050  14.397  10.204   1.048
21385SOL     OW66051   2.019   4.873   7.673
21385SOL    HW166052   1.979   4.910   7.752
21385SOL    HW266053   1.990   4.931   7.603
21386SOL     OW66054  13.641  11.984  10.825
21386SOL    HW166055  13.555  11.978  10.866
21386SOL    HW266056  13.670  12.074  10.841
21387SOL     OW66057   4.518   3.906  10.637
21387SOL    HW166058   4.431   3.882  10.668
21387SOL    HW266059   4.513   3.897  10.542
21388SOL     OW66060   7.787   4.072  10.181
21388SOL    HW166061   7.718   4.135  10.163
21388SOL    HW266062   7.743   4.000  10.226
21389SOL     OW66063   7.162   8.900  13.542
21389SOL    HW166064   7.243   8.894  13.491
21389SOL    HW266065   7.137   8.809  13.558
21390SOL     OW66066   4.559   8.425  13.619
21390SOL    HW166067   4.540   8.518  13.611
21390SOL    HW266068   4.484   8.382  13.577
21391SOL     OW66069  11.025   5.561  10.331
21391SOL    HW166070  11.027   5.559  10.427
21391SOL    HW266071  10.932   5.549  10.309
21392SOL     OW66072  11.322   8.815  12.100
21392SOL    HW166073  11.270   8.894  12.112
21392SOL    HW266074  11.262   8.751  12.062
21393SOL     OW66075  10.793   0.208   0.453
21393SOL    HW166076  10.870   0.155   0.430
21393SOL    HW266077  10.754   0.161   0.527
21394SOL     OW66078   5.733   2.305   7.876
21394SOL    HW166079   5.746   2.373   7.809
21394SOL    HW266080   5.742   2.223   7.828
21395SOL     OW66081  10.870   8.634   6.486
21395SOL    HW166082  10.877   8.593   6.572
21395SOL    HW266083  10.875   8.560   6.425
21396SOL     OW66084  10.177  13.638   0.624
21396SOL    HW166085  10.188  13.637   0.529
21396SOL    HW266086  10.209  13.553   0.654
21397SOL     OW66087   0.040  11.875   1.386
21397SOL    HW166088  14.860  11.799   1.382
21397SOL    HW266089   0.113  11.847   1.441
21398SOL     OW66090   6.718  14.408   0.896
21398SOL    HW166091   6.683  14.322   0.919
21398SOL    HW266092   6.649  14.470   0.922
21399SOL     OW66093   5.423   6.541   6.741
21399SOL    HW166094   5.394   6.625   6.777
21399SOL    HW266095   5.410   6.479   6.813
21400SOL     OW66096   1.866  14.785   0.385
21400SOL    HW166097   1.889  14.765   0.294
21400SOL    HW266098   1.789  14.842   0.378
21401SOL     OW66099  11.163   2.236   6.205
21401SOL    HW166100  11.142   2.329   6.196
21401SOL    HW266101  11.213   2.215   6.126
21402SOL     OW66102   4.369   2.580  14.713
21402SOL    HW166103   4.339   2.669  14.732
21402SOL    HW266104   4.434   2.592  14.643
21403SOL     OW66105   1.126   7.327   5.382
21403SOL    HW166106   1.160   7.293   5.465
21403SOL    HW266107   1.092   7.250   5.336
21404SOL     OW66108   9.918  14.283   4.744
21404SOL    HW166109   9.903  14.189   4.756
21404SOL    HW266110   9.850  14.325   4.797
21405SOL     OW66111   3.001   9.134   1.974
21405SOL    HW166112   2.979   9.131   1.881
21405SOL    HW266113   3.037   9.222   1.987
21406SOL     OW66114   5.778   6.481   1.556
21406SOL    HW166115   5.803   6.574   1.554
21406SOL    HW266116   5.798   6.453   1.645
21407SOL     OW66117   1.124   6.939   3.605
21407SOL    HW166118   1.174   6.896   3.537
21407SOL    HW266119   1.073   6.869   3.645
21408SOL     OW66120  13.085   1.091   9.802
21408SOL    HW166121  13.031   1.144   9.861
21408SOL    HW266122  13.173   1.094   9.840
21409SOL     OW66123   2.192   9.047  11.327
21409SOL    HW166124   2.243   9.089  11.257
21409SOL    HW266125   2.230   8.960  11.335
21410SOL     OW66126   9.176   9.996   7.880
21410SOL    HW166127   9.224   9.936   7.937
21410SOL    HW266128   9.218   9.987   7.795
21411SOL     OW66129   3.597  14.005   9.232
21411SOL    HW166130   3.507  14.021   9.203
21411SOL    HW266131   3.590  13.992   9.326
21412SOL     OW66132   0.234  10.778   4.485
21412SOL    HW166133   0.296  10.743   4.420
21412SOL    HW266134   0.278  10.853   4.523
21413SOL     OW66135  10.340   5.788   0.208
21413SOL    HW166136  10.255   5.749   0.229
21413SOL    HW266137  10.335   5.877   0.242
21414SOL     OW66138   4.017   1.689   0.547
21414SOL    HW166139   4.061   1.650   0.623
21414SOL    HW266140   3.998   1.779   0.575
21415SOL     OW66141   3.649   7.965   2.921
21415SOL    HW166142   3.589   7.956   2.995
21415SOL    HW266143   3.733   7.933   2.954
21416SOL     OW66144  10.023   9.533  11.736
21416SOL    HW166145   9.930   9.533  11.760
21416SOL    HW266146  10.041   9.443  11.709
21417SOL     OW66147   1.179   2.245  12.963
21417SOL    HW166148   1.262   2.288  12.983
21417SOL    HW266149   1.170   2.251  12.868
21418SOL     OW66150  13.837   9.161   9.609
21418SOL    HW166151  13.891   9.237   9.589
21418SOL    HW266152  13.777   9.191   9.676
21419SOL     OW66153   2.078  12.656   7.275
21419SOL    HW166154   2.066  12.700   7.359
21419SOL    HW266155   2.139  12.585   7.293
21420SOL     OW66156  12.553  10.675   8.444
21420SOL    HW166157  12.533  10.590   8.484
21420SOL    HW266158  12.565  10.655   8.351
21421SOL     OW66159  13.540  10.906  13.486
21421SOL    HW166160  13.627  10.872  13.505
21421SOL    HW266161  13.518  10.869  13.400
21422SOL     OW66162  10.771   5.204   7.701
21422SOL    HW166163  10.726   5.191   7.617
21422SOL    HW266164  10.700   5.218   7.764
21423SOL     OW66165   9.239   2.677  11.316
21423SOL    HW166166   9.331   2.693  11.338
21423SOL    HW266167   9.194   2.678  11.400
21424SOL     OW66168   3.118  12.109   9.104
21424SOL    HW166169   3.055  12.092   9.173
21424SOL    HW266170   3.180  12.171   9.142
21425SOL     OW66171   5.543   4.192   5.602
21425SOL    HW166172   5.534   4.170   5.509
21425SOL    HW266173   5.456   4.177   5.639
21426SOL     OW66174  12.923   4.746  13.170
21426SOL    HW166175  12.894   4.794  13.247
21426SOL    HW266176  12.844   4.707  13.134
21427SOL     OW66177   8.368   1.652  12.801
21427SOL    HW166178   8.282   1.687  12.776
21427SOL    HW266179   8.351   1.561  12.824
21428SOL     OW66180  12.988  11.909   2.672
21428SOL    HW166181  13.072  11.955   2.665
21428SOL    HW266182  12.925  11.971   2.635
21429SOL     OW66183   7.222   3.576   6.204
21429SOL    HW166184   7.228   3.633   6.280
21429SOL    HW266185   7.311   3.543   6.192
21430SOL     OW66186   3.210   2.936   8.345
21430SOL    HW166187   3.136   2.927   8.284
21430SOL    HW266188   3.254   3.017   8.317
21431SOL     OW66189   2.769   3.749   7.402
21431SOL    HW166190   2.683   3.790   7.413
21431SOL    HW266191   2.752   3.673   7.347
21432SOL     OW66192   3.825   5.509   2.837
21432SOL    HW166193   3.848   5.510   2.929
21432SOL    HW266194   3.884   5.445   2.797
21433SOL     OW66195   1.712   3.123   5.977
21433SOL    HW166196   1.673   3.126   5.890
21433SOL    HW266197   1.720   3.030   5.997
21434SOL     OW66198  13.013   0.119  13.662
21434SOL    HW166199  13.016   0.085  13.752
21434SOL    HW266200  12.950   0.191  13.666
21435SOL     OW66201   8.647   1.440  12.160
21435SOL    HW166202   8.723   1.494  12.141
21435SOL    HW266203   8.607   1.482  12.237
21436SOL     OW66204   9.185  11.981  10.089
21436SOL    HW166205   9.187  12.041  10.014
21436SOL    HW266206   9.156  12.036  10.162
21437SOL     OW66207  14.769   6.313  10.516
21437SOL    HW166208  14.791   6.253  10.445
21437SOL    HW266209  14.783   6.400  10.478
21438SOL     OW66210   7.628  13.218  13.043
21438SOL    HW166211   7.538  13.250  13.042
21438SOL    HW266212   7.657  13.228  12.952
21439SOL     OW66213  14.739   5.935  12.551
21439SOL    HW166214  14.713   5.979  12.632
21439SOL    HW266215  14.657   5.902  12.514
21440SOL     OW66216   8.860   3.030   9.557
21440SOL    HW166217   8.852   3.049   9.464
21440SOL    HW266218   8.780   3.067   9.596
21441SOL     OW66219   4.878   7.056   0.281
21441SOL    HW166220   4.911   7.070   0.192
21441SOL    HW266221   4.957   7.036   0.333
21442SOL     OW66222   0.657   0.588  13.725
21442SOL    HW166223   0.722   0.620  13.663
21442SOL    HW266224   0.671   0.493  13.728
21443SOL     OW66225   5.349   5.512   2.433
21443SOL    HW166226   5.307   5.447   2.377
21443SOL    HW266227   5.337   5.595   2.387
21444SOL     OW66228   1.748   8.304   9.607
21444SOL    HW166229   1.671   8.302   9.665
21444SOL    HW266230   1.734   8.380   9.551
21445SOL     OW66231   7.619   5.384   3.474
21445SOL    HW166232   7.664   5.326   3.535
21445SOL    HW266233   7.602   5.464   3.524
21446SOL     OW66234   0.523  12.197   0.496
21446SOL    HW166235   0.440  12.177   0.455
21446SOL    HW266236   0.574  12.241   0.428
21447SOL     OW66237   5.913  12.439   7.059
21447SOL    HW166238   5.894  12.445   7.152
21447SOL    HW266239   5.826  12.434   7.017
21448SOL     OW66240   4.080  11.373  10.887
21448SOL    HW166241   4.067  11.332  10.801
21448SOL    HW266242   4.049  11.463  10.875
21449SOL     OW66243   9.891  12.641   7.126
21449SOL    HW166244   9.929  12.697   7.193
21449SOL    HW266245   9.799  12.668   7.121
21450SOL     OW66246   2.888   7.197   7.652
21450SOL    HW166247   2.802   7.195   7.609
21450SOL    HW266248   2.929   7.115   7.626
21451SOL     OW66249  13.994   5.120   9.682
21451SOL    HW166250  13.929   5.051   9.695
21451SOL    HW266251  14.078   5.078   9.697
21452SOL     OW66252   9.860  10.577   8.947
21452SOL    HW166253   9.787  10.636   8.926
21452SOL    HW266254   9.876  10.591   9.041
21453SOL     OW66255  14.177   3.744   2.135
21453SOL    HW166256  14.165   3.816   2.197
21453SOL    HW266257  14.092   3.699   2.134
21454SOL     OW66258   1.708   2.803   5.727
21454SOL    HW166259   1.659   2.827   5.648
21454SOL    HW266260   1.641   2.781   5.791
21455SOL     OW66261   8.851   1.103   9.811
21455SOL    HW166262   8.884   1.080   9.724
21455SOL    HW266263   8.907   1.054   9.871
21456SOL     OW66264  11.186  11.237   1.375
21456SOL    HW166265  11.191  11.313   1.433
21456SOL    HW266266  11.183  11.275   1.287
21457SOL     OW66267   2.288   2.207   5.634
21457SOL    HW166268   2.299   2.113   5.618
21457SOL    HW266269   2.347   2.249   5.572
21458SOL     OW66270  13.593  12.809   1.725
21458SOL    HW166271  13.594  12.715   1.745
21458SOL    HW266272  13.575  12.813   1.631
21459SOL     OW66273  11.643   5.494   0.190
21459SOL    HW166274  11.711   5.541   0.239
21459SOL    HW266275  11.649   5.404   0.221
21460SOL     OW66276  10.915  10.843   1.998
21460SOL    HW166277  10.979  10.897   2.044
21460SOL    HW266278  10.962  10.763   1.975
21461SOL     OW66279   2.616   8.638  12.182
21461SOL    HW166280   2.569   8.625  12.099
21461SOL    HW266281   2.563   8.702  12.230
21462SOL     OW66282   5.624  10.570   1.288
21462SOL    HW166283   5.635  10.620   1.370
21462SOL    HW266284   5.543  10.604   1.251
21463SOL     OW66285   9.189  13.597  10.484
21463SOL    HW166286   9.183  13.623  10.392
21463SOL    HW266287   9.199  13.679  10.532
21464SOL     OW66288  13.098   6.684  14.189
21464SOL    HW166289  13.139   6.652  14.108
21464SOL    HW266290  13.171   6.717  14.241
21465SOL     OW66291   5.857  11.310  12.998
21465SOL    HW166292   5.793  11.286  13.065
21465SOL    HW266293   5.941  11.285  13.037
21466SOL     OW66294   5.404   7.346   4.542
21466SOL    HW166295   5.436   7.260   4.568
21466SOL    HW266296   5.461   7.371   4.469
21467SOL     OW66297   5.360  13.624  12.142
21467SOL    HW166298   5.348  13.716  12.167
21467SOL    HW266299   5.274  13.584  12.154
21468SOL     OW66300   6.737  12.272   3.219
21468SOL    HW166301   6.824  12.275   3.180
21468SOL    HW266302   6.696  12.194   3.181
21469SOL     OW66303   8.033   4.641   3.137
21469SOL    HW166304   8.000   4.626   3.048
21469SOL    HW266305   8.067   4.730   3.136
21470SOL     OW66306   4.175   9.741   0.734
21470SOL    HW166307   4.088   9.781   0.728
21470SOL    HW266308   4.236   9.813   0.718
21471SOL     OW66309   6.214   9.307   8.417
21471SOL    HW166310   6.299   9.265   8.403
21471SOL    HW266311   6.177   9.315   8.328
21472SOL     OW66312   6.942   2.971   2.575
21472SOL    HW166313   6.961   2.986   2.668
21472SOL    HW266314   6.936   2.875   2.567
21473SOL     OW66315   4.971   1.848   0.564
21473SOL    HW166316   5.066   1.839   0.562
21473SOL    HW266317   4.955   1.936   0.528
21474SOL     OW66318  13.548   6.871   3.379
21474SOL    HW166319  13.586   6.950   3.417
21474SOL    HW266320  13.621   6.829   3.334
21475SOL     OW66321  12.087  10.591  12.699
21475SOL    HW166322  12.121  10.637  12.622
21475SOL    HW266323  12.078  10.500  12.670
21476SOL     OW66324   6.221   4.394  10.593
21476SOL    HW166325   6.274   4.326  10.551
21476SOL    HW266326   6.178   4.440  10.521
21477SOL     OW66327  10.300   6.997  13.124
21477SOL    HW166328  10.322   7.050  13.201
21477SOL    HW266329  10.215   7.029  13.096
21478SOL     OW66330  11.605   7.254   6.141
21478SOL    HW166331  11.601   7.166   6.177
21478SOL    HW266332  11.514   7.274   6.117
21479SOL     OW66333   2.391  13.403   8.321
21479SOL    HW166334   2.378  13.341   8.393
21479SOL    HW266335   2.357  13.358   8.244
21480SOL     OW66336  13.449   8.890  13.866
21480SOL    HW166337  13.532   8.842  13.859
21480SOL    HW266338  13.382   8.827  13.841
21481SOL     OW66339  12.786   5.199   9.421
21481SOL    HW166340  12.790   5.234   9.332
21481SOL    HW266341  12.863   5.236   9.465
21482SOL     OW66342   8.923   3.876   6.143
21482SOL    HW166343   8.973   3.916   6.072
21482SOL    HW266344   8.927   3.782   6.125
21483SOL     OW66345   8.545  13.311   2.887
21483SOL    HW166346   8.613  13.334   2.950
21483SOL    HW266347   8.464  13.313   2.938
21484SOL     OW66348   3.275   0.844  10.800
21484SOL    HW166349   3.333   0.768  10.799
21484SOL    HW266350   3.278   0.879  10.711
21485SOL     OW66351   9.485   0.534   1.436
21485SOL    HW166352   9.405   0.571   1.473
21485SOL    HW266353   9.522   0.605   1.383
21486SOL     OW66354  14.083   7.144  11.004
21486SOL    HW166355  14.064   7.134  10.911
21486SOL    HW266356  14.121   7.060  11.031
21487SOL     OW66357   8.901   6.203   4.814
21487SOL    HW166358   8.901   6.273   4.748
21487SOL    HW266359   8.877   6.124   4.765
21488SOL     OW66360  10.827   2.243  13.898
21488SOL    HW166361  10.775   2.204  13.827
21488SOL    HW266362  10.917   2.216  13.879
21489SOL     OW66363  10.605   8.926   6.502
21489SOL    HW166364  10.636   8.864   6.437
21489SOL    HW266365  10.643   9.010   6.476
21490SOL     OW66366   0.705   9.315   4.955
21490SOL    HW166367   0.622   9.357   4.980
21490SOL    HW266368   0.721   9.346   4.866
21491SOL     OW66369   3.416   8.405   9.390
21491SOL    HW166370   3.475   8.357   9.331
21491SOL    HW266371   3.426   8.361   9.475
21492SOL     OW66372   8.791   5.766  14.369
21492SOL    HW166373   8.746   5.844  14.336
21492SOL    HW266374   8.740   5.739  14.444
21493SOL     OW66375  10.361  12.856   5.999
21493SOL    HW166376  10.453  12.837   5.983
21493SOL    HW266377  10.328  12.776   6.042
21494SOL     OW66378  11.943   9.845  11.356
21494SOL    HW166379  11.965   9.767  11.408
21494SOL    HW266380  11.883   9.813  11.288
21495SOL     OW66381   6.005   3.208  11.543
21495SOL    HW166382   6.073   3.140  11.542
21495SOL    HW266383   6.007   3.242  11.633
21496SOL     OW66384   2.664   0.329   8.442
21496SOL    HW166385   2.630   0.352   8.528
21496SOL    HW266386   2.749   0.374   8.437
21497SOL     OW66387   1.277  11.483   6.562
21497SOL    HW166388   1.225  11.540   6.506
21497SOL    HW266389   1.216  11.455   6.630
21498SOL     OW66390  11.927   8.022  14.820
21498SOL    HW166391  11.902   7.981   0.025
21498SOL    HW266392  12.015   7.990  14.804
21499SOL     OW66393   4.285  12.710   0.807
21499SOL    HW166394   4.262  12.733   0.897
21499SOL    HW266395   4.209  12.738   0.755
21500SOL     OW66396   4.341  10.750   9.325
21500SOL    HW166397   4.342  10.768   9.419
21500SOL    HW266398   4.430  10.773   9.296
21501SOL     OW66399  13.229   5.419   1.953
21501SOL    HW166400  13.267   5.445   1.870
21501SOL    HW266401  13.218   5.324   1.946
21502SOL     OW66402  11.188   6.114   0.129
21502SOL    HW166403  11.154   6.163   0.204
21502SOL    HW266404  11.126   6.133   0.058
21503SOL     OW66405   9.032  12.647   3.022
21503SOL    HW166406   8.992  12.732   3.008
21503SOL    HW266407   9.000  12.592   2.950
21504SOL     OW66408  10.487   2.459  12.024
21504SOL    HW166409  10.474   2.521  11.952
21504SOL    HW266410  10.466   2.509  12.103
21505SOL     OW66411   5.070   7.330   3.838
21505SOL    HW166412   5.071   7.318   3.743
21505SOL    HW266413   4.993   7.384   3.855
21506SOL     OW66414  14.399   4.727   9.410
21506SOL    HW166415  14.473   4.774   9.371
21506SOL    HW266416  14.379   4.658   9.347
21507SOL     OW66417   4.739   3.716   7.662
21507SOL    HW166418   4.683   3.689   7.590
21507SOL    HW266419   4.759   3.635   7.709
21508SOL     OW66420   3.450   7.855   0.836
21508SOL    HW166421   3.419   7.883   0.922
21508SOL    HW266422   3.488   7.934   0.798
21509SOL     OW66423   1.388   1.621   5.303
21509SOL    HW166424   1.352   1.544   5.347
21509SOL    HW266425   1.446   1.660   5.369
21510SOL     OW66426  13.803   4.062   8.119
21510SOL    HW166427  13.831   3.971   8.117
21510SOL    HW266428  13.748   4.072   8.042
21511SOL     OW66429  12.276   9.487  12.281
21511SOL    HW166430  12.325   9.405  12.282
21511SOL    HW266431  12.208   9.476  12.347
21512SOL     OW66432   9.289   3.952   8.543
21512SOL    HW166433   9.351   3.888   8.577
21512SOL    HW266434   9.307   4.032   8.593
21513SOL     OW66435   5.008   6.591  14.346
21513SOL    HW166436   4.963   6.579  14.430
21513SOL    HW266437   4.956   6.657  14.300
21514SOL     OW66438  10.515  11.639   7.134
21514SOL    HW166439  10.575  11.580   7.090
21514SOL    HW266440  10.554  11.655   7.220
21515SOL     OW66441  10.895   7.203   0.878
21515SOL    HW166442  10.942   7.148   0.816
21515SOL    HW266443  10.898   7.291   0.839
21516SOL     OW66444   3.188  14.038   2.136
21516SOL    HW166445   3.170  13.955   2.092
21516SOL    HW266446   3.131  14.036   2.214
21517SOL     OW66447   0.648  13.844   6.251
21517SOL    HW166448   0.666  13.808   6.338
21517SOL    HW266449   0.619  13.769   6.199
21518SOL     OW66450   1.302   7.080   2.245
21518SOL    HW166451   1.356   7.056   2.321
21518SOL    HW266452   1.308   7.175   2.240
21519SOL     OW66453  12.882   9.656  14.482
21519SOL    HW166454  12.927   9.678  14.564
21519SOL    HW266455  12.953   9.631  14.422
21520SOL     OW66456   3.962   0.285  14.123
21520SOL    HW166457   3.978   0.240  14.040
21520SOL    HW266458   3.912   0.223  14.176
21521SOL     OW66459   6.636   9.662   2.817
21521SOL    HW166460   6.639   9.650   2.722
21521SOL    HW266461   6.549   9.696   2.834
21522SOL     OW66462   9.613   8.267  13.065
21522SOL    HW166463   9.689   8.296  13.115
21522SOL    HW266464   9.538   8.300  13.115
21523SOL     OW66465  11.232   3.151   2.067
21523SOL    HW166466  11.204   3.239   2.090
21523SOL    HW266467  11.190   3.095   2.133
21524SOL     OW66468   2.605   1.736   7.956
21524SOL    HW166469   2.680   1.702   8.005
21524SOL    HW266470   2.641   1.762   7.871
21525SOL     OW66471   9.690  10.551  13.473
21525SOL    HW166472   9.712  10.503  13.553
21525SOL    HW266473   9.655  10.485  13.414
21526SOL     OW66474   9.456   8.858   9.563
21526SOL    HW166475   9.443   8.791   9.497
21526SOL    HW266476   9.532   8.829   9.612
21527SOL     OW66477   1.660  12.748  11.222
21527SOL    HW166478   1.717  12.823  11.240
21527SOL    HW266479   1.649  12.706  11.307
21528SOL     OW66480   2.264  10.428   2.415
21528SOL    HW166481   2.177  10.387   2.416
21528SOL    HW266482   2.247  10.520   2.394
21529SOL     OW66483   6.373  13.113   1.917
21529SOL    HW166484   6.419  13.191   1.950
21529SOL    HW266485   6.429  13.080   1.847
21530SOL     OW66486   8.346   7.918  10.489
21530SOL    HW166487   8.438   7.905  10.465
21530SOL    HW266488   8.348   7.993  10.549
21531SOL     OW66489   7.581   8.117   2.621
21531SOL    HW166490   7.600   8.161   2.703
21531SOL    HW266491   7.589   8.024   2.641
21532SOL     OW66492   8.010  13.387  10.564
21532SOL    HW166493   8.081  13.333  10.598
21532SOL    HW266494   8.032  13.399  10.472
21533SOL     OW66495  10.930   4.025   3.786
21533SOL    HW166496  10.942   3.937   3.821
21533SOL    HW266497  10.908   4.079   3.863
21534SOL     OW66498  12.346   1.782   0.379
21534SOL    HW166499  12.401   1.861   0.371
21534SOL    HW266500  12.344   1.764   0.472
21535SOL     OW66501  13.729   6.722  14.084
21535SOL    HW166502  13.662   6.749  14.021
21535SOL    HW266503  13.695   6.750  14.169
21536SOL     OW66504   2.734   8.260   7.538
21536SOL    HW166505   2.752   8.325   7.471
21536SOL    HW266506   2.638   8.249   7.536
21537SOL     OW66507   7.946   7.959   6.548
21537SOL    HW166508   7.931   8.029   6.611
21537SOL    HW266509   8.032   7.924   6.571
21538SOL     OW66510   9.352   6.884   1.383
21538SOL    HW166511   9.362   6.821   1.311
21538SOL    HW266512   9.342   6.969   1.339
21539SOL     OW66513   8.365  13.489  10.201
21539SOL    HW166514   8.400  13.401  10.188
21539SOL    HW266515   8.304  13.500  10.128
21540SOL     OW66516   6.176   2.493   5.792
21540SOL    HW166517   6.179   2.413   5.844
21540SOL    HW266518   6.215   2.468   5.708
21541SOL     OW66519  12.557   5.295  12.968
21541SOL    HW166520  12.590   5.383  12.956
21541SOL    HW266521  12.603   5.242  12.903
21542SOL     OW66522   3.440   4.735  12.888
21542SOL    HW166523   3.517   4.686  12.858
21542SOL    HW266524   3.365   4.682  12.857
21543SOL     OW66525   2.401   1.689  13.122
21543SOL    HW166526   2.404   1.662  13.030
21543SOL    HW266527   2.436   1.778  13.121
21544SOL     OW66528   3.244   8.786  11.944
21544SOL    HW166529   3.199   8.732  11.879
21544SOL    HW266530   3.221   8.876  11.920
21545SOL     OW66531   5.723  14.262   4.618
21545SOL    HW166532   5.747  14.263   4.711
21545SOL    HW266533   5.736  14.171   4.591
21546SOL     OW66534   8.165   7.166   4.266
21546SOL    HW166535   8.210   7.126   4.341
21546SOL    HW266536   8.152   7.257   4.291
21547SOL     OW66537   1.153   0.231   2.022
21547SOL    HW166538   1.216   0.171   1.982
21547SOL    HW266539   1.156   0.209   2.115
21548SOL     OW66540   0.327   8.040  12.743
21548SOL    HW166541   0.341   8.110  12.679
21548SOL    HW266542   0.292   7.967  12.691
21549SOL     OW66543  12.180  11.171   7.073
21549SOL    HW166544  12.147  11.094   7.028
21549SOL    HW266545  12.269  11.183   7.038
21550SOL     OW66546   0.658   1.901   3.053
21550SOL    HW166547   0.586   1.839   3.061
21550SOL    HW266548   0.650   1.937   2.965
21551SOL     OW66549   8.811  13.389   4.932
21551SOL    HW166550   8.773  13.426   4.853
21551SOL    HW266551   8.898  13.429   4.937
21552SOL     OW66552  10.362   0.263   4.535
21552SOL    HW166553  10.376   0.344   4.585
21552SOL    HW266554  10.341   0.197   4.601
21553SOL     OW66555   1.702  14.146  11.002
21553SOL    HW166556   1.793  14.151  10.972
21553SOL    HW266557   1.708  14.109  11.090
21554SOL     OW66558   3.092   9.762   4.260
21554SOL    HW166559   3.114   9.695   4.195
21554SOL    HW266560   3.090   9.844   4.210
21555SOL     OW66561   1.856  13.297  12.091
21555SOL    HW166562   1.770  13.333  12.113
21555SOL    HW266563   1.850  13.277  11.998
21556SOL     OW66564  12.421   5.939   4.583
21556SOL    HW166565  12.448   5.927   4.492
21556SOL    HW266566  12.378   5.857   4.606
21557SOL     OW66567   2.495  13.223   4.574
21557SOL    HW166568   2.462  13.273   4.649
21557SOL    HW266569   2.583  13.259   4.558
21558SOL     OW66570   3.754   1.521   1.418
21558SOL    HW166571   3.770   1.596   1.474
21558SOL    HW266572   3.668   1.488   1.445
21559SOL     OW66573  10.270  11.283   7.399
21559SOL    HW166574  10.282  11.188   7.392
21559SOL    HW266575  10.247  11.298   7.491
21560SOL     OW66576  12.103   5.625   0.065
21560SOL    HW166577  12.129   5.715   0.082
21560SOL    HW266578  12.018   5.632   0.022
21561SOL     OW66579   3.118   6.057   2.126
21561SOL    HW166580   3.210   6.079   2.138
21561SOL    HW266581   3.105   5.977   2.178
21562SOL     OW66582  13.205   6.670   8.310
21562SOL    HW166583  13.226   6.759   8.282
21562SOL    HW266584  13.110   6.671   8.323
21563SOL     OW66585   3.978  14.377  13.078
21563SOL    HW166586   3.905  14.399  13.021
21563SOL    HW266587   3.944  14.309  13.136
21564SOL     OW66588  11.833   5.886   9.481
21564SOL    HW166589  11.885   5.846   9.411
21564SOL    HW266590  11.760   5.928   9.436
21565SOL     OW66591  12.124  13.881  10.185
21565SOL    HW166592  12.032  13.900  10.169
21565SOL    HW266593  12.129  13.868  10.280
21566SOL     OW66594  10.627   6.817  11.664
21566SOL    HW166595  10.723   6.813  11.666
21566SOL    HW266596  10.599   6.727  11.679
21567SOL     OW66597  12.884   0.801   9.211
21567SOL    HW166598  12.940   0.828   9.285
21567SOL    HW266599  12.852   0.884   9.174
21568SOL     OW66600  12.462   0.544   4.433
21568SOL    HW166601  12.448   0.499   4.349
21568SOL    HW266602  12.377   0.583   4.454
21569SOL     OW66603   9.947   8.875   0.179
21569SOL    HW166604   9.982   8.871   0.268
21569SOL    HW266605   9.855   8.896   0.191
21570SOL     OW66606   6.123   6.149  10.350
21570SOL    HW166607   6.079   6.178  10.270
21570SOL    HW266608   6.139   6.056  10.337
21571SOL     OW66609   6.062   3.707   5.123
21571SOL    HW166610   6.062   3.803   5.125
21571SOL    HW266611   6.017   3.685   5.042
21572SOL     OW66612   6.371   6.666  10.916
21572SOL    HW166613   6.371   6.577  10.952
21572SOL    HW266614   6.463   6.685  10.897
21573SOL     OW66615  11.432   3.499   7.475
21573SOL    HW166616  11.512   3.512   7.424
21573SOL    HW266617  11.434   3.407   7.499
21574SOL     OW66618  14.301   6.876   6.304
21574SOL    HW166619  14.391   6.878   6.270
21574SOL    HW266620  14.269   6.789   6.282
21575SOL     OW66621   5.182  11.884  13.891
21575SOL    HW166622   5.157  11.800  13.929
21575SOL    HW266623   5.262  11.865  13.841
21576SOL     OW66624  11.532   9.956   4.389
21576SOL    HW166625  11.470   9.884   4.406
21576SOL    HW266626  11.488  10.009   4.323
21577SOL     OW66627   5.812  13.992   5.050
21577SOL    HW166628   5.789  13.905   5.016
21577SOL    HW266629   5.797  13.985   5.144
21578SOL     OW66630   3.601  10.455   4.676
21578SOL    HW166631   3.509  10.436   4.655
21578SOL    HW266632   3.598  10.484   4.767
21579SOL     OW66633   1.483  13.442   4.264
21579SOL    HW166634   1.406  13.495   4.245
21579SOL    HW266635   1.526  13.430   4.180
21580SOL     OW66636  13.788   9.333  14.116
21580SOL    HW166637  13.743   9.249  14.118
21580SOL    HW266638  13.879   9.311  14.096
21581SOL     OW66639  11.271  10.690  10.034
21581SOL    HW166640  11.332  10.616  10.036
21581SOL    HW266641  11.184  10.648  10.028
21582SOL     OW66642   9.907   3.742   7.037
21582SOL    HW166643  10.001   3.738   7.058
21582SOL    HW266644   9.890   3.834   7.019
21583SOL     OW66645   0.881   6.306   4.019
21583SOL    HW166646   0.867   6.249   4.094
21583SOL    HW266647   0.974   6.329   4.023
21584SOL     OW66648   8.683  14.225   9.515
21584SOL    HW166649   8.616  14.186   9.571
21584SOL    HW266650   8.710  14.305   9.561
21585SOL     OW66651   6.293   1.200  10.476
21585SOL    HW166652   6.300   1.120  10.527
21585SOL    HW266653   6.204   1.232  10.493
21586SOL     OW66654  10.289   5.001   6.417
21586SOL    HW166655  10.293   4.913   6.453
21586SOL    HW266656  10.372   5.011   6.369
21587SOL     OW66657   5.525  14.319   9.817
21587SOL    HW166658   5.492  14.292   9.903
21587SOL    HW266659   5.503  14.412   9.811
21588SOL     OW66660   8.635   0.335  13.414
21588SOL    HW166661   8.660   0.409  13.359
21588SOL    HW266662   8.630   0.371  13.503
21589SOL     OW66663   4.449   5.768   8.363
21589SOL    HW166664   4.454   5.851   8.410
21589SOL    HW266665   4.534   5.760   8.319
21590SOL     OW66666  10.068   7.061  14.090
21590SOL    HW166667  10.156   7.076  14.125
21590SOL    HW266668  10.071   7.097  14.001
21591SOL     OW66669  14.493  10.599   6.323
21591SOL    HW166670  14.563  10.610   6.259
21591SOL    HW266671  14.524  10.530   6.382
21592SOL     OW66672   1.670   7.194   9.039
21592SOL    HW166673   1.665   7.122   9.101
21592SOL    HW266674   1.712   7.265   9.088
21593SOL     OW66675   7.797   8.983   3.275
21593SOL    HW166676   7.799   9.062   3.220
21593SOL    HW266677   7.844   9.008   3.354
21594SOL     OW66678   3.370  13.438  12.237
21594SOL    HW166679   3.303  13.468  12.298
21594SOL    HW266680   3.409  13.362  12.281
21595SOL     OW66681  10.442   3.166  13.854
21595SOL    HW166682  10.463   3.241  13.910
21595SOL    HW266683  10.467   3.090  13.906
21596SOL     OW66684   2.506  14.392   5.559
21596SOL    HW166685   2.417  14.388   5.523
21596SOL    HW266686   2.496  14.364   5.650
21597SOL     OW66687   9.104   5.231  14.659
21597SOL    HW166688   9.017   5.196  14.677
21597SOL    HW266689   9.100   5.322  14.688
21598SOL     OW66690   5.110   6.037  13.288
21598SOL    HW166691   5.044   6.034  13.218
21598SOL    HW266692   5.167   5.963  13.270
21599SOL     OW66693  13.000  13.417  11.974
21599SOL    HW166694  13.014  13.322  11.965
21599SOL    HW266695  12.910  13.431  11.945
21600SOL     OW66696  12.824  10.518   7.164
21600SOL    HW166697  12.904  10.518   7.112
21600SOL    HW266698  12.817  10.607   7.197
21601SOL     OW66699   0.750   7.585   5.894
21601SOL    HW166700   0.805   7.662   5.906
21601SOL    HW266701   0.701   7.602   5.813
21602SOL     OW66702  13.504  13.138  13.879
21602SOL    HW166703  13.459  13.218  13.905
21602SOL    HW266704  13.461  13.111  13.798
21603SOL     OW66705   1.966   0.401  14.275
21603SOL    HW166706   1.911   0.433  14.204
21603SOL    HW266707   1.993   0.313  14.248
21604SOL     OW66708  14.431   4.161  12.862
21604SOL    HW166709  14.338   4.173  12.884
21604SOL    HW266710  14.437   4.069  12.835
21605SOL     OW66711   8.463   0.467  13.195
21605SOL    HW166712   8.478   0.554  13.230
21605SOL    HW266713   8.390   0.432  13.247
21606SOL     OW66714   7.548   4.809   9.131
21606SOL    HW166715   7.584   4.892   9.162
21606SOL    HW266716   7.625   4.753   9.119
21607SOL     OW66717  12.493  11.692   2.390
21607SOL    HW166718  12.507  11.753   2.463
21607SOL    HW266719  12.403  11.662   2.401
21608SOL     OW66720   8.448  10.761  14.060
21608SOL    HW166721   8.369  10.732  14.014
21608SOL    HW266722   8.441  10.857  14.062
21609SOL     OW66723  14.398  11.037   4.126
21609SOL    HW166724  14.324  11.031   4.186
21609SOL    HW266725  14.457  10.968   4.154
21610SOL     OW66726  13.589  11.024  11.760
21610SOL    HW166727  13.619  11.071  11.682
21610SOL    HW266728  13.585  10.932  11.733
21611SOL     OW66729   4.567  12.657   3.944
21611SOL    HW166730   4.565  12.604   4.024
21611SOL    HW266731   4.528  12.600   3.877
21612SOL     OW66732   7.057   8.044   7.021
21612SOL    HW166733   7.090   7.960   6.990
21612SOL    HW266734   7.120   8.070   7.089
21613SOL     OW66735  14.862   1.354   8.766
21613SOL    HW166736   0.021   1.396   8.688
21613SOL    HW266737  14.834   1.426   8.822
21614SOL     OW66738  12.485   3.458  13.503
21614SOL    HW166739  12.506   3.365  13.492
21614SOL    HW266740  12.517   3.499  13.423
21615SOL     OW66741   2.192  12.919   4.256
21615SOL    HW166742   2.154  12.958   4.335
21615SOL    HW266743   2.221  12.994   4.204
21616SOL     OW66744   1.942   0.506   2.858
21616SOL    HW166745   2.011   0.567   2.884
21616SOL    HW266746   1.980   0.458   2.785
21617SOL     OW66747   0.255  12.501  13.900
21617SOL    HW166748   0.281  12.419  13.943
21617SOL    HW266749   0.336  12.551  13.892
21618SOL     OW66750   2.052   6.324  10.620
21618SOL    HW166751   2.004   6.267  10.560
21618SOL    HW266752   2.091   6.391  10.565
21619SOL     OW66753   3.696   6.519   7.072
21619SOL    HW166754   3.763   6.541   7.007
21619SOL    HW266755   3.664   6.433   7.046
21620SOL     OW66756  10.612   9.268  12.919
21620SOL    HW166757  10.664   9.262  12.839
21620SOL    HW266758  10.617   9.180  12.957
21621SOL     OW66759  13.639   1.130  14.629
21621SOL    HW166760  13.721   1.174  14.649
21621SOL    HW266761  13.665   1.043  14.600
21622SOL     OW66762  14.859   6.402   5.732
21622SOL    HW166763  14.866   6.307   5.717
21622SOL    HW266764  14.856   6.440   5.645
21623SOL     OW66765   7.895   6.781  13.724
21623SOL    HW166766   7.807   6.803  13.755
21623SOL    HW266767   7.948   6.857  13.748
21624SOL     OW66768   0.718   3.231   0.881
21624SOL    HW166769   0.700   3.194   0.967
21624SOL    HW266770   0.751   3.158   0.830
21625SOL     OW66771   8.303   5.417   9.527
21625SOL    HW166772   8.373   5.377   9.475
21625SOL    HW266773   8.310   5.511   9.508
21626SOL     OW66774   8.322  13.412   8.378
21626SOL    HW166775   8.368  13.453   8.305
21626SOL    HW266776   8.230  13.430   8.361
21627SOL     OW66777  14.333   2.238  14.604
21627SOL    HW166778  14.250   2.284  14.592
21627SOL    HW266779  14.400   2.306  14.595
21628SOL     OW66780   5.686   5.498  14.344
21628SOL    HW166781   5.593   5.512  14.362
21628SOL    HW266782   5.704   5.411  14.381
21629SOL     OW66783  14.177   2.155  14.242
21629SOL    HW166784  14.139   2.204  14.314
21629SOL    HW266785  14.101   2.120  14.194
21630SOL     OW66786   1.959   0.086   4.800
21630SOL    HW166787   1.880   0.139   4.814
21630SOL    HW266788   2.014   0.139   4.743
21631SOL     OW66789   1.275  12.602  14.557
21631SOL    HW166790   1.231  12.664  14.499
21631SOL    HW266791   1.230  12.612  14.641
21632SOL     OW66792  11.218   4.177  13.646
21632SOL    HW166793  11.251   4.212  13.563
21632SOL    HW266794  11.284   4.201  13.711
21633SOL     OW66795   5.528   9.233  12.151
21633SOL    HW166796   5.517   9.181  12.071
21633SOL    HW266797   5.620   9.220  12.175
21634SOL     OW66798  11.045   2.607   3.220
21634SOL    HW166799  11.103   2.641   3.289
21634SOL    HW266800  11.048   2.512   3.231
21635SOL     OW66801   6.037  10.731   4.919
21635SOL    HW166802   6.123  10.707   4.884
21635SOL    HW266803   6.032  10.685   5.003
21636SOL     OW66804   9.582   2.586   9.927
21636SOL    HW166805   9.593   2.662   9.985
21636SOL    HW266806   9.508   2.609   9.872
21637SOL     OW66807   2.231  14.678  12.255
21637SOL    HW166808   2.136  14.683  12.251
21637SOL    HW266809   2.261  14.712  12.171
21638SOL     OW66810  13.625   1.389  10.645
21638SOL    HW166811  13.597   1.446  10.716
21638SOL    HW266812  13.716   1.415  10.628
21639SOL     OW66813   3.107   0.846   5.093
21639SOL    HW166814   3.095   0.908   5.021
21639SOL    HW266815   3.022   0.802   5.102
21640SOL     OW66816   0.009   7.809  10.149
21640SOL    HW166817  14.829   7.813  10.226
21640SOL    HW266818   0.047   7.721  10.153
21641SOL     OW66819  10.266  14.570   8.383
21641SOL    HW166820  10.273  14.503   8.450
21641SOL    HW266821  10.172  14.577   8.365
21642SOL     OW66822   6.557   3.492   0.424
21642SOL    HW166823   6.505   3.415   0.446
21642SOL    HW266824   6.647   3.467   0.445
21643SOL     OW66825   8.585   8.321   6.400
21643SOL    HW166826   8.518   8.253   6.403
21643SOL    HW266827   8.667   8.273   6.412
21644SOL     OW66828   9.418   2.811   7.197
21644SOL    HW166829   9.416   2.904   7.217
21644SOL    HW266830   9.428   2.807   7.102
21645SOL     OW66831  12.649   5.851  12.897
21645SOL    HW166832  12.640   5.801  12.815
21645SOL    HW266833  12.569   5.905  12.900
21646SOL     OW66834   7.381  14.322   4.479
21646SOL    HW166835   7.328  14.383   4.529
21646SOL    HW266836   7.470  14.333   4.514
21647SOL     OW66837  13.159   6.886   8.631
21647SOL    HW166838  13.255   6.893   8.627
21647SOL    HW266839  13.130   6.970   8.666
21648SOL     OW66840   6.181   7.773   8.311
21648SOL    HW166841   6.127   7.761   8.390
21648SOL    HW266842   6.264   7.731   8.332
21649SOL     OW66843   6.381   8.072   9.674
21649SOL    HW166844   6.374   8.010   9.601
21649SOL    HW266845   6.392   8.017   9.752
21650SOL     OW66846   9.097   1.930   1.369
21650SOL    HW166847   9.075   2.023   1.376
21650SOL    HW266848   9.042   1.897   1.298
21651SOL     OW66849  13.544   7.468   9.475
21651SOL    HW166850  13.527   7.477   9.568
21651SOL    HW266851  13.560   7.558   9.444
21652SOL     OW66852  10.747  10.878   2.481
21652SOL    HW166853  10.807  10.952   2.485
21652SOL    HW266854  10.720  10.864   2.572
21653SOL     OW66855   7.955   6.170  11.697
21653SOL    HW166856   7.901   6.093  11.712
21653SOL    HW266857   7.893   6.241  11.685
21654SOL     OW66858  14.829   4.409  14.312
21654SOL    HW166859  14.750   4.456  14.286
21654SOL    HW266860   0.015   4.478  14.334
21655SOL     OW66861   5.580  11.741  12.791
21655SOL    HW166862   5.542  11.678  12.730
21655SOL    HW266863   5.615  11.687  12.862
21656SOL     OW66864   7.502   4.590   7.719
21656SOL    HW166865   7.469   4.514   7.672
21656SOL    HW266866   7.557   4.637   7.656
21657SOL     OW66867   4.417   9.472  11.407
21657SOL    HW166868   4.457   9.386  11.423
21657SOL    HW266869   4.327   9.463  11.441
21658SOL     OW66870   5.133   8.673   0.519
21658SOL    HW166871   5.094   8.597   0.475
21658SOL    HW266872   5.204   8.700   0.462
21659SOL     OW66873   5.757   0.578  11.007
21659SOL    HW166874   5.799   0.662  11.025
21659SOL    HW266875   5.720   0.551  11.091
21660SOL     OW66876  12.107  14.313   8.425
21660SOL    HW166877  12.200  14.306   8.448
21660SOL    HW266878  12.100  14.269   8.341
21661SOL     OW66879   9.639   6.323   3.116
21661SOL    HW166880   9.592   6.293   3.194
21661SOL    HW266881   9.729   6.336   3.146
21662SOL     OW66882  12.122   3.909  12.501
21662SOL    HW166883  12.078   3.829  12.471
21662SOL    HW266884  12.087   3.925  12.588
21663SOL     OW66885   1.211  14.165   7.908
21663SOL    HW166886   1.185  14.254   7.885
21663SOL    HW266887   1.301  14.173   7.938
21664SOL     OW66888  10.064   4.656  10.963
21664SOL    HW166889  10.025   4.680  11.047
21664SOL    HW266890  10.156   4.642  10.982
21665SOL     OW66891   0.493   6.205   8.758
21665SOL    HW166892   0.434   6.275   8.782
21665SOL    HW266893   0.457   6.127   8.801
21666SOL     OW66894  11.187   9.542   5.538
21666SOL    HW166895  11.217   9.479   5.604
21666SOL    HW266896  11.267   9.586   5.509
21667SOL     OW66897   6.469   7.227  12.321
21667SOL    HW166898   6.438   7.284  12.391
21667SOL    HW266899   6.393   7.217  12.263
21668SOL     OW66900  10.474  10.696   3.435
21668SOL    HW166901  10.505  10.765   3.377
21668SOL    HW266902  10.552  10.646   3.457
21669SOL     OW66903  10.163  14.701   5.173
21669SOL    HW166904  10.155  14.618   5.220
21669SOL    HW266905  10.209  14.678   5.092
21670SOL     OW66906   5.234   1.112   2.486
21670SOL    HW166907   5.160   1.086   2.432
21670SOL    HW266908   5.288   1.167   2.429
21671SOL     OW66909  11.124  14.865   0.748
21671SOL    HW166910  11.209  14.823   0.762
21671SOL    HW266911  11.133   0.074   0.787
21672SOL     OW66912   2.233   9.734   4.383
21672SOL    HW166913   2.321   9.746   4.419
21672SOL    HW266914   2.228   9.641   4.363
21673SOL     OW66915   7.753   8.405   8.614
21673SOL    HW166916   7.790   8.482   8.569
21673SOL    HW266917   7.797   8.330   8.573
21674SOL     OW66918   8.886   5.973  10.341
21674SOL    HW166919   8.945   5.941  10.272
21674SOL    HW266920   8.817   5.907  10.347
21675SOL     OW66921   0.464   9.974   4.989
21675SOL    HW166922   0.481   9.989   4.896
21675SOL    HW266923   0.549   9.953   5.026
21676SOL     OW66924   0.200   8.435   2.513
21676SOL    HW166925   0.131   8.448   2.577
21676SOL    HW266926   0.166   8.475   2.433
21677SOL     OW66927  13.686   5.159   1.886
21677SOL    HW166928  13.623   5.146   1.815
21677SOL    HW266929  13.685   5.076   1.934
21678SOL     OW66930   4.120  14.504  10.859
21678SOL    HW166931   4.062  14.459  10.799
21678SOL    HW266932   4.186  14.439  10.883
21679SOL     OW66933  14.114   2.396  14.578
21679SOL    HW166934  14.032   2.382  14.530
21679SOL    HW266935  14.086   2.423  14.665
21680SOL     OW66936  12.050   7.805   5.838
21680SOL    HW166937  12.020   7.783   5.926
21680SOL    HW266938  12.126   7.749   5.823
21681SOL     OW66939   7.992   3.810   7.137
21681SOL    HW166940   7.949   3.794   7.053
21681SOL    HW266941   7.962   3.897   7.163
21682SOL     OW66942   8.366  11.367  12.334
21682SOL    HW166943   8.420  11.345  12.258
21682SOL    HW266944   8.302  11.429  12.301
21683SOL     OW66945  11.351  12.476  14.653
21683SOL    HW166946  11.435  12.454  14.613
21683SOL    HW266947  11.288  12.417  14.611
21684SOL     OW66948  10.569   2.613   0.992
21684SOL    HW166949  10.605   2.577   1.073
21684SOL    HW266950  10.633   2.590   0.925
21685SOL     OW66951   2.721   1.035   3.759
21685SOL    HW166952   2.633   1.030   3.723
21685SOL    HW266953   2.772   1.080   3.692
21686SOL     OW66954   5.340  12.234  11.197
21686SOL    HW166955   5.343  12.227  11.292
21686SOL    HW266956   5.249  12.255  11.177
21687SOL     OW66957  14.356  12.771  11.766
21687SOL    HW166958  14.414  12.729  11.703
21687SOL    HW266959  14.346  12.861  11.733
21688SOL     OW66960   8.250   9.988   7.576
21688SOL    HW166961   8.209   9.962   7.659
21688SOL    HW266962   8.233   9.914   7.517
21689SOL     OW66963   7.669   4.952  13.975
21689SOL    HW166964   7.737   4.887  13.959
21689SOL    HW266965   7.603   4.905  14.026
21690SOL     OW66966   3.467   3.113   4.118
21690SOL    HW166967   3.456   3.112   4.213
21690SOL    HW266968   3.397   3.169   4.086
21691SOL     OW66969   1.242   9.741  10.042
21691SOL    HW166970   1.338   9.742  10.042
21691SOL    HW266971   1.217   9.831  10.021
21692SOL     OW66972   9.962  13.245  11.086
21692SOL    HW166973  10.034  13.205  11.135
21692SOL    HW266974   9.960  13.198  11.003
21693SOL     OW66975   5.673   5.018  11.513
21693SOL    HW166976   5.744   4.993  11.454
21693SOL    HW266977   5.714   5.018  11.600
21694SOL     OW66978   0.620   5.786  14.101
21694SOL    HW166979   0.691   5.723  14.115
21694SOL    HW266980   0.665   5.864  14.068
21695SOL     OW66981   7.585   3.080  12.734
21695SOL    HW166982   7.615   3.148  12.674
21695SOL    HW266983   7.514   3.036  12.686
21696SOL     OW66984   7.044   4.558  11.956
21696SOL    HW166985   6.991   4.518  12.024
21696SOL    HW266986   7.002   4.641  11.937
21697SOL     OW66987   5.149   1.541  13.166
21697SOL    HW166988   5.233   1.499  13.183
21697SOL    HW266989   5.085   1.469  13.165
21698SOL     OW66990   5.316   3.705  14.400
21698SOL    HW166991   5.300   3.617  14.436
21698SOL    HW266992   5.272   3.704  14.315
21699SOL     OW66993  14.602  14.287   5.826
21699SOL    HW166994  14.601  14.214   5.888
21699SOL    HW266995  14.519  14.281   5.779
21700SOL     OW66996  12.796   6.427   7.217
21700SOL    HW166997  12.706   6.402   7.239
21700SOL    HW266998  12.792   6.522   7.207
21701SOL     OW66999   0.181  14.262  10.111
21701SOL    HW167000   0.271  14.247  10.140
21701SOL    HW267001   0.181  14.352  10.077
21702SOL     OW67002   3.844  12.003  12.532
21702SOL    HW167003   3.750  11.993  12.547
21702SOL    HW267004   3.884  11.937  12.589
21703SOL     OW67005   4.686   1.868  14.782
21703SOL    HW167006   4.607   1.897  14.736
21703SOL    HW267007   4.757   1.920  14.743
21704SOL     OW67008   1.690   4.855   7.109
21704SOL    HW167009   1.691   4.950   7.101
21704SOL    HW267010   1.717   4.824   7.023
21705SOL     OW67011  12.156   8.475   2.478
21705SOL    HW167012  12.174   8.385   2.506
21705SOL    HW267013  12.121   8.466   2.390
21706SOL     OW67014  10.024   0.363   2.332
21706SOL    HW167015  10.044   0.435   2.393
21706SOL    HW267016   9.989   0.294   2.388
21707SOL     OW67017  12.509   3.966   1.900
21707SOL    HW167018  12.597   3.967   1.938
21707SOL    HW267019  12.523   3.989   1.808
21708SOL     OW67020  10.170   9.148   5.281
21708SOL    HW167021  10.181   9.053   5.285
21708SOL    HW267022  10.258   9.182   5.298
21709SOL     OW67023   8.530   4.865   9.257
21709SOL    HW167024   8.448   4.894   9.296
21709SOL    HW267025   8.598   4.903   9.313
21710SOL     OW67026   4.788  12.072  12.141
21710SOL    HW167027   4.866  12.127  12.155
21710SOL    HW267028   4.756  12.053  12.229
21711SOL     OW67029   6.120   5.575   4.678
21711SOL    HW167030   6.060   5.649   4.672
21711SOL    HW267031   6.206   5.613   4.657
21712SOL     OW67032   5.983  10.962   4.798
21712SOL    HW167033   6.013  10.883   4.842
21712SOL    HW267034   5.891  10.970   4.824
21713SOL     OW67035   2.657   6.476   4.729
21713SOL    HW167036   2.735   6.525   4.705
21713SOL    HW267037   2.613   6.531   4.794
21714SOL     OW67038  11.754   3.026   6.093
21714SOL    HW167039  11.819   3.078   6.140
21714SOL    HW267040  11.803   2.984   6.023
21715SOL     OW67041  11.519   7.799  12.446
21715SOL    HW167042  11.463   7.776  12.520
21715SOL    HW267043  11.493   7.888  12.422
21716SOL     OW67044  13.364  13.051  13.674
21716SOL    HW167045  13.417  13.087  13.603
21716SOL    HW267046  13.282  13.025  13.632
21717SOL     OW67047   4.131   2.066  11.374
21717SOL    HW167048   4.182   2.059  11.454
21717SOL    HW267049   4.173   2.137  11.324
21718SOL     OW67050   9.202   4.473   1.247
21718SOL    HW167051   9.152   4.555   1.255
21718SOL    HW267052   9.147   4.418   1.190
21719SOL     OW67053   5.724  14.292   9.631
21719SOL    HW167054   5.670  14.284   9.709
21719SOL    HW267055   5.674  14.347   9.572
21720SOL     OW67056  12.417   4.533  10.991
21720SOL    HW167057  12.507   4.540  10.958
21720SOL    HW267058  12.395   4.622  11.019
21721SOL     OW67059  11.050   2.213   4.067
21721SOL    HW167060  11.131   2.254   4.035
21721SOL    HW267061  11.063   2.119   4.052
21722SOL     OW67062   5.112   3.553   9.190
21722SOL    HW167063   5.155   3.474   9.223
21722SOL    HW267064   5.089   3.533   9.100
21723SOL     OW67065   4.355   4.814   0.769
21723SOL    HW167066   4.306   4.758   0.828
21723SOL    HW267067   4.446   4.804   0.796
21724SOL     OW67068  10.564   1.429   1.788
21724SOL    HW167069  10.637   1.379   1.824
21724SOL    HW267070  10.488   1.401   1.839
21725SOL     OW67071  14.306   0.274   3.937
21725SOL    HW167072  14.391   0.314   3.959
21725SOL    HW267073  14.291   0.210   4.006
21726SOL     OW67074  12.099   6.566  11.003
21726SOL    HW167075  12.195   6.572  10.995
21726SOL    HW267076  12.066   6.609  10.924
21727SOL     OW67077  14.391  11.697   0.306
21727SOL    HW167078  14.483  11.681   0.285
21727SOL    HW267079  14.368  11.776   0.256
21728SOL     OW67080  10.945  14.240   2.100
21728SOL    HW167081  10.887  14.270   2.170
21728SOL    HW267082  10.903  14.160   2.067
21729SOL     OW67083   9.432   8.091   0.717
21729SOL    HW167084   9.353   8.059   0.674
21729SOL    HW267085   9.400   8.142   0.791
21730SOL     OW67086   7.433  10.976  10.546
21730SOL    HW167087   7.448  10.945  10.456
21730SOL    HW267088   7.398  11.064  10.535
21731SOL     OW67089  11.245   7.437   5.845
21731SOL    HW167090  11.237   7.342   5.858
21731SOL    HW267091  11.339   7.454   5.847
21732SOL     OW67092   7.666   6.529   7.320
21732SOL    HW167093   7.593   6.580   7.355
21732SOL    HW267094   7.641   6.508   7.230
21733SOL     OW67095   4.530  14.013   3.080
21733SOL    HW167096   4.473  13.964   3.140
21733SOL    HW267097   4.519  13.968   2.996
21734SOL     OW67098   6.653  12.995   0.222
21734SOL    HW167099   6.723  13.023   0.281
21734SOL    HW267100   6.611  12.921   0.267
21735SOL     OW67101   3.731   4.000   2.032
21735SOL    HW167102   3.813   4.011   1.983
21735SOL    HW267103   3.740   3.915   2.075
21736SOL     OW67104   3.057   3.839  13.751
21736SOL    HW167105   3.140   3.873  13.718
21736SOL    HW267106   3.066   3.743  13.746
21737SOL     OW67107   7.244   0.380   6.132
21737SOL    HW167108   7.247   0.473   6.154
21737SOL    HW267109   7.333   0.359   6.103
21738SOL     OW67110   4.025   2.574   8.135
21738SOL    HW167111   3.949   2.621   8.170
21738SOL    HW267112   4.092   2.583   8.202
21739SOL     OW67113   1.017   7.918   3.706
21739SOL    HW167114   1.105   7.956   3.711
21739SOL    HW267115   0.996   7.892   3.796
21740SOL     OW67116  10.089   3.449  10.745
21740SOL    HW167117  10.163   3.434  10.803
21740SOL    HW267118  10.015   3.464  10.805
21741SOL     OW67119  13.934  12.366  11.109
21741SOL    HW167120  13.857  12.422  11.111
21741SOL    HW267121  13.933  12.326  11.023
21742SOL     OW67122   7.907   4.254   2.176
21742SOL    HW167123   7.907   4.349   2.183
21742SOL    HW267124   7.881   4.223   2.263
21743SOL     OW67125  13.328   9.507   4.216
21743SOL    HW167126  13.382   9.429   4.223
21743SOL    HW267127  13.282   9.498   4.133
21744SOL     OW67128  11.963   3.227  11.977
21744SOL    HW167129  12.014   3.158  12.019
21744SOL    HW267130  11.967   3.207  11.884
21745SOL     OW67131   0.953  10.479   7.052
21745SOL    HW167132   0.992  10.496   6.967
21745SOL    HW267133   0.886  10.546   7.062
21746SOL     OW67134   1.824  13.206   2.250
21746SOL    HW167135   1.811  13.177   2.340
21746SOL    HW267136   1.749  13.262   2.232
21747SOL     OW67137  12.386   5.782   9.218
21747SOL    HW167138  12.389   5.809   9.310
21747SOL    HW267139  12.351   5.858   9.171
21748SOL     OW67140   1.556   4.662  12.279
21748SOL    HW167141   1.526   4.590  12.224
21748SOL    HW267142   1.564   4.736  12.219
21749SOL     OW67143  10.851   6.983   6.742
21749SOL    HW167144  10.769   7.027   6.763
21749SOL    HW267145  10.913   7.015   6.809
21750SOL     OW67146  12.688   3.175  11.352
21750SOL    HW167147  12.597   3.202  11.339
21750SOL    HW267148  12.710   3.208  11.439
21751SOL     OW67149   9.438   4.571   5.114
21751SOL    HW167150   9.448   4.517   5.192
21751SOL    HW267151   9.407   4.656   5.146
21752SOL     OW67152   3.482   4.016   0.544
21752SOL    HW167153   3.467   3.922   0.537
21752SOL    HW267154   3.513   4.042   0.458
21753SOL     OW67155   2.446   2.934   2.935
21753SOL    HW167156   2.418   3.025   2.928
21753SOL    HW267157   2.456   2.905   2.844
21754SOL     OW67158  12.015   0.130   3.339
21754SOL    HW167159  12.097   0.176   3.320
21754SOL    HW267160  12.002   0.073   3.263
21755SOL     OW67161   8.813   0.668   4.104
21755SOL    HW167162   8.908   0.675   4.119
21755SOL    HW267163   8.777   0.748   4.141
21756SOL     OW67164  12.804  13.061  13.949
21756SOL    HW167165  12.796  13.105  13.864
21756SOL    HW267166  12.890  13.020  13.947
21757SOL     OW67167   0.605   1.234   5.859
21757SOL    HW167168   0.645   1.148   5.846
21757SOL    HW267169   0.528   1.233   5.802
21758SOL     OW67170  14.302   3.982  14.404
21758SOL    HW167171  14.346   3.915  14.457
21758SOL    HW267172  14.373   4.024  14.355
21759SOL     OW67173   9.822   9.987   9.730
21759SOL    HW167174   9.820   9.900   9.692
21759SOL    HW267175   9.768  10.040   9.671
21760SOL     OW67176  12.953  10.862   6.940
21760SOL    HW167177  12.950  10.951   6.906
21760SOL    HW267178  13.046  10.841   6.944
21761SOL     OW67179   5.972  12.647   8.103
21761SOL    HW167180   5.973  12.565   8.152
21761SOL    HW267181   6.026  12.629   8.026
21762SOL     OW67182   9.894   7.519   5.257
21762SOL    HW167183   9.818   7.478   5.215
21762SOL    HW267184   9.930   7.451   5.314
21763SOL     OW67185  14.093   7.799   8.258
21763SOL    HW167186  14.027   7.760   8.201
21763SOL    HW267187  14.154   7.842   8.198
21764SOL     OW67188   3.587   2.133   6.002
21764SOL    HW167189   3.590   2.112   6.096
21764SOL    HW267190   3.494   2.140   5.982
21765SOL     OW67191   3.332   5.702  13.557
21765SOL    HW167192   3.264   5.768  13.569
21765SOL    HW267193   3.414   5.748  13.576
21766SOL     OW67194   7.565   9.653   4.425
21766SOL    HW167195   7.635   9.652   4.360
21766SOL    HW267196   7.600   9.606   4.500
21767SOL     OW67197   8.532   2.422   5.426
21767SOL    HW167198   8.479   2.490   5.384
21767SOL    HW267199   8.538   2.449   5.517
21768SOL     OW67200   7.216  10.458  11.099
21768SOL    HW167201   7.229  10.375  11.052
21768SOL    HW267202   7.162  10.434  11.175
21769SOL     OW67203   7.837  14.808   8.169
21769SOL    HW167204   7.827  14.806   8.074
21769SOL    HW267205   7.906  14.873   8.183
21770SOL     OW67206   7.870  12.408   6.726
21770SOL    HW167207   7.965  12.404   6.714
21770SOL    HW267208   7.834  12.405   6.638
21771SOL     OW67209   3.486   6.286   4.443
21771SOL    HW167210   3.416   6.337   4.483
21771SOL    HW267211   3.559   6.348   4.434
21772SOL     OW67212   5.681  13.469   1.589
21772SOL    HW167213   5.656  13.524   1.515
21772SOL    HW267214   5.741  13.404   1.552
21773SOL     OW67215   1.999  11.244   5.896
21773SOL    HW167216   2.051  11.219   5.820
21773SOL    HW267217   2.000  11.340   5.896
21774SOL     OW67218  10.883   6.920   3.661
21774SOL    HW167219  10.826   6.965   3.598
21774SOL    HW267220  10.824   6.889   3.730
21775SOL     OW67221  10.012   8.942   1.703
21775SOL    HW167222  10.029   8.852   1.678
21775SOL    HW267223  10.057   8.953   1.787
21776SOL     OW67224   4.312   6.739   7.056
21776SOL    HW167225   4.402   6.770   7.066
21776SOL    HW267226   4.268   6.768   7.136
21777SOL     OW67227   2.723   4.998  14.470
21777SOL    HW167228   2.800   5.053  14.480
21777SOL    HW267229   2.667   5.021  14.543
21778SOL     OW67230   7.257  13.126   9.856
21778SOL    HW167231   7.262  13.064   9.784
21778SOL    HW267232   7.236  13.210   9.815
21779SOL     OW67233  14.242   1.766  13.708
21779SOL    HW167234  14.282   1.788  13.792
21779SOL    HW267235  14.314   1.733  13.654
21780SOL     OW67236  10.040   5.253  13.568
21780SOL    HW167237   9.994   5.205  13.499
21780SOL    HW267238  10.083   5.184  13.619
21781SOL     OW67239  12.935   2.291  11.815
21781SOL    HW167240  12.994   2.276  11.888
21781SOL    HW267241  12.973   2.240  11.743
21782SOL     OW67242   9.190   8.433  12.597
21782SOL    HW167243   9.171   8.441  12.691
21782SOL    HW267244   9.127   8.369  12.565
21783SOL     OW67245  11.952  11.530   8.542
21783SOL    HW167246  11.940  11.520   8.636
21783SOL    HW267247  11.863  11.533   8.507
21784SOL     OW67248   8.379   8.874   6.680
21784SOL    HW167249   8.302   8.925   6.705
21784SOL    HW267250   8.445   8.939   6.658
21785SOL     OW67251  12.968  12.264   6.775
21785SOL    HW167252  13.058  12.233   6.765
21785SOL    HW267253  12.915  12.184   6.774
21786SOL     OW67254   4.977   9.303  10.618
21786SOL    HW167255   4.905   9.318  10.557
21786SOL    HW267256   5.051   9.279  10.562
21787SOL     OW67257  12.176   6.834   4.735
21787SOL    HW167258  12.128   6.889   4.797
21787SOL    HW267259  12.108   6.796   4.679
21788SOL     OW67260   9.342  10.096   8.996
21788SOL    HW167261   9.382  10.183   8.996
21788SOL    HW267262   9.378  10.052   9.072
21789SOL     OW67263   0.043   2.351  11.756
21789SOL    HW167264  14.853   2.335  11.690
21789SOL    HW267265   0.034   2.444  11.777
21790SOL     OW67266  13.417  11.772   8.891
21790SOL    HW167267  13.408  11.866   8.906
21790SOL    HW267268  13.411  11.733   8.978
21791SOL     OW67269   0.300   8.152  13.810
21791SOL    HW167270   0.265   8.206  13.739
21791SOL    HW267271   0.395   8.163  13.804
21792SOL     OW67272  10.336   8.867   9.629
21792SOL    HW167273  10.295   8.844   9.712
21792SOL    HW267274  10.420   8.821   9.630
21793SOL     OW67275   5.589  14.124  14.250
21793SOL    HW167276   5.499  14.147  14.271
21793SOL    HW267277   5.587  14.030  14.232
21794SOL     OW67278   2.582  12.056   2.319
21794SOL    HW167279   2.572  12.085   2.410
21794SOL    HW267280   2.565  11.962   2.322
21795SOL     OW67281  12.975   2.037   8.312
21795SOL    HW167282  13.056   1.986   8.304
21795SOL    HW267283  12.909   1.985   8.268
21796SOL     OW67284   4.107   0.102  14.365
21796SOL    HW167285   4.031   0.087  14.309
21796SOL    HW267286   4.176   0.129  14.305
21797SOL     OW67287   5.801   7.414   2.496
21797SOL    HW167288   5.794   7.341   2.558
21797SOL    HW267289   5.804   7.373   2.410
21798SOL     OW67290  12.117  14.682   1.694
21798SOL    HW167291  12.140  14.769   1.728
21798SOL    HW267292  12.194  14.656   1.643
21799SOL     OW67293  10.435   4.585  11.782
21799SOL    HW167294  10.383   4.578  11.862
21799SOL    HW267295  10.510   4.638  11.807
21800SOL     OW67296  10.101   8.437   0.040
21800SOL    HW167297  10.087   8.374  14.846
21800SOL    HW267298  10.041   8.509   0.021
21801SOL     OW67299   3.543  12.436  12.875
21801SOL    HW167300   3.533  12.490  12.796
21801SOL    HW267301   3.459  12.390  12.883
21802SOL     OW67302   5.109   8.864   1.246
21802SOL    HW167303   5.187   8.907   1.212
21802SOL    HW267304   5.142   8.788   1.294
21803SOL     OW67305  10.130   6.393  10.655
21803SOL    HW167306  10.138   6.451  10.730
21803SOL    HW267307  10.103   6.449  10.583
21804SOL     OW67308   1.176   1.200   1.200
21804SOL    HW167309   1.206   1.120   1.158
21804SOL    HW267310   1.162   1.175   1.292
21805SOL     OW67311   1.515   6.437   5.413
21805SOL    HW167312   1.456   6.398   5.478
21805SOL    HW267313   1.602   6.417   5.445
21806SOL     OW67314  11.640   0.496  10.156
21806SOL    HW167315  11.703   0.432  10.188
21806SOL    HW267316  11.682   0.581  10.171
21807SOL     OW67317   9.687   8.873  14.050
21807SOL    HW167318   9.646   8.929  14.116
21807SOL    HW267319   9.621   8.805  14.034
21808SOL     OW67320  10.635   8.161  11.014
21808SOL    HW167321  10.677   8.247  11.018
21808SOL    HW267322  10.680   8.116  10.941
21809SOL     OW67323   0.838  14.230   8.243
21809SOL    HW167324   0.805  14.320   8.234
21809SOL    HW267325   0.904  14.236   8.313
21810SOL     OW67326   0.012   8.007   0.372
21810SOL    HW167327   0.098   8.029   0.407
21810SOL    HW267328   0.004   7.912   0.384
21811SOL     OW67329   7.134   1.212   3.632
21811SOL    HW167330   7.076   1.249   3.566
21811SOL    HW267331   7.192   1.153   3.583
21812SOL     OW67332   5.365   2.752  12.737
21812SOL    HW167333   5.294   2.813  12.721
21812SOL    HW267334   5.321   2.671  12.764
21813SOL     OW67335  12.828  11.400  12.071
21813SOL    HW167336  12.736  11.387  12.096
21813SOL    HW267337  12.830  11.490  12.038
21814SOL     OW67338   7.752  11.704   8.964
21814SOL    HW167339   7.842  11.677   8.945
21814SOL    HW267340   7.710  11.710   8.878
21815SOL     OW67341  11.327  10.870   2.215
21815SOL    HW167342  11.420  10.893   2.217
21815SOL    HW267343  11.302  10.878   2.123
21816SOL     OW67344  14.367   8.112   5.219
21816SOL    HW167345  14.351   8.021   5.243
21816SOL    HW267346  14.289   8.159   5.251
21817SOL     OW67347   7.468   4.124   7.775
21817SOL    HW167348   7.455   4.142   7.682
21817SOL    HW267349   7.381   4.135   7.815
21818SOL     OW67350   7.019   0.661  14.221
21818SOL    HW167351   7.114   0.652  14.211
21818SOL    HW267352   6.993   0.585  14.273
21819SOL     OW67353  10.325  12.350   7.699
21819SOL    HW167354  10.311  12.444   7.685
21819SOL    HW267355  10.410  12.332   7.660
21820SOL     OW67356   7.630  13.999   9.331
21820SOL    HW167357   7.661  13.910   9.318
21820SOL    HW267358   7.542  13.989   9.367
21821SOL     OW67359  13.902   5.918  11.629
21821SOL    HW167360  13.978   5.957  11.672
21821SOL    HW267361  13.830   5.929  11.692
21822SOL     OW67362   9.058   2.492  10.681
21822SOL    HW167363   8.969   2.505  10.712
21822SOL    HW267364   9.053   2.508  10.587
21823SOL     OW67365   3.586  10.967  12.249
21823SOL    HW167366   3.528  10.963  12.173
21823SOL    HW267367   3.617  10.877  12.261
21824SOL     OW67368  14.101   6.652   1.470
21824SOL    HW167369  14.151   6.658   1.551
21824SOL    HW267370  14.103   6.559   1.447
21825SOL     OW67371   7.559   2.983   9.735
21825SOL    HW167372   7.651   2.958   9.723
21825SOL    HW267373   7.534   2.943   9.819
21826SOL     OW67374   2.848  11.237  10.696
21826SOL    HW167375   2.795  11.173  10.744
21826SOL    HW267376   2.937  11.204  10.702
21827SOL     OW67377   8.914  10.254   9.651
21827SOL    HW167378   8.892  10.228   9.740
21827SOL    HW267379   8.852  10.208   9.595
21828SOL     OW67380   5.555   4.218  12.398
21828SOL    HW167381   5.623   4.283  12.412
21828SOL    HW267382   5.572   4.185  12.309
21829SOL     OW67383  14.150   3.747   0.925
21829SOL    HW167384  14.186   3.815   0.868
21829SOL    HW267385  14.225   3.692   0.946
21830SOL     OW67386  11.942  12.928   0.266
21830SOL    HW167387  11.850  12.903   0.275
21830SOL    HW267388  11.955  12.996   0.332
21831SOL     OW67389   3.048   7.530   2.489
21831SOL    HW167390   2.955   7.536   2.467
21831SOL    HW267391   3.091   7.589   2.428
21832SOL     OW67392   8.765   6.399   4.009
21832SOL    HW167393   8.817   6.365   3.936
21832SOL    HW267394   8.687   6.343   4.011
21833SOL     OW67395   9.296   7.289   0.064
21833SOL    HW167396   9.229   7.334   0.115
21833SOL    HW267397   9.247   7.244  14.872
21834SOL     OW67398   0.712   4.420   7.045
21834SOL    HW167399   0.639   4.358   7.046
21834SOL    HW267400   0.670   4.505   7.033
21835SOL     OW67401  11.192   2.639  10.786
21835SOL    HW167402  11.269   2.604  10.831
21835SOL    HW267403  11.225   2.712  10.734
21836SOL     OW67404   4.383  12.271   8.417
21836SOL    HW167405   4.364  12.289   8.509
21836SOL    HW267406   4.456  12.329   8.397
21837SOL     OW67407  13.223  14.037  12.454
21837SOL    HW167408  13.264  14.054  12.539
21837SOL    HW267409  13.267  14.096  12.394
21838SOL     OW67410   7.007   9.778  11.909
21838SOL    HW167411   7.079   9.737  11.862
21838SOL    HW267412   7.003   9.733  11.993
21839SOL     OW67413  11.717   4.205   4.733
21839SOL    HW167414  11.761   4.200   4.818
21839SOL    HW267415  11.718   4.116   4.699
21840SOL     OW67416  11.880   0.952  12.705
21840SOL    HW167417  11.954   0.920  12.652
21840SOL    HW267418  11.819   0.988  12.641
21841SOL     OW67419   2.657  13.278   5.039
21841SOL    HW167420   2.697  13.258   5.123
21841SOL    HW267421   2.598  13.351   5.057
21842SOL     OW67422  10.472   9.997   0.292
21842SOL    HW167423  10.382   9.966   0.292
21842SOL    HW267424  10.484  10.036   0.206
21843SOL     OW67425   7.729   5.850   3.766
21843SOL    HW167426   7.730   5.926   3.824
21843SOL    HW267427   7.777   5.782   3.814
21844SOL     OW67428  13.988   2.034  12.438
21844SOL    HW167429  13.945   1.985  12.508
21844SOL    HW267430  13.921   2.045  12.371
21845SOL     OW67431  10.739   4.640  11.967
21845SOL    HW167432  10.828   4.637  12.003
21845SOL    HW267433  10.682   4.615  12.040
21846SOL     OW67434   3.928   1.609  11.621
21846SOL    HW167435   3.976   1.557  11.556
21846SOL    HW267436   3.849   1.637  11.575
21847SOL     OW67437   2.653   8.880   3.368
21847SOL    HW167438   2.580   8.835   3.325
21847SOL    HW267439   2.727   8.866   3.309
21848SOL     OW67440  10.165  12.747   8.188
21848SOL    HW167441  10.090  12.806   8.198
21848SOL    HW267442  10.237  12.805   8.165
21849SOL     OW67443  13.511  11.271  10.226
21849SOL    HW167444  13.529  11.304  10.139
21849SOL    HW267445  13.587  11.216  10.247
21850SOL     OW67446   2.551   4.097   0.782
21850SOL    HW167447   2.607   4.161   0.826
21850SOL    HW267448   2.610   4.047   0.726
21851SOL     OW67449   6.877   7.830   7.917
21851SOL    HW167450   6.862   7.888   7.992
21851SOL    HW267451   6.926   7.885   7.856
21852SOL     OW67452  13.903   5.741   1.322
21852SOL    HW167453  13.923   5.808   1.257
21852SOL    HW267454  13.987   5.723   1.364
21853SOL     OW67455  14.319   5.212   2.072
21853SOL    HW167456  14.277   5.127   2.077
21853SOL    HW267457  14.288   5.250   1.989
21854SOL     OW67458  12.729  12.499   6.336
21854SOL    HW167459  12.735  12.537   6.424
21854SOL    HW267460  12.754  12.571   6.277
21855SOL     OW67461   7.862   7.205  12.729
21855SOL    HW167462   7.768   7.212  12.741
21855SOL    HW267463   7.891   7.294  12.710
21856SOL     OW67464   5.995  13.213   9.429
21856SOL    HW167465   6.081  13.173   9.437
21856SOL    HW267466   5.967  13.228   9.519
21857SOL     OW67467  12.551   3.328   9.760
21857SOL    HW167468  12.521   3.253   9.812
21857SOL    HW267469  12.619   3.292   9.703
21858SOL     OW67470   0.420  13.368   9.146
21858SOL    HW167471   0.512  13.383   9.122
21858SOL    HW267472   0.382  13.455   9.150
21859SOL     OW67473   5.591  11.203   1.459
21859SOL    HW167474   5.646  11.186   1.536
21859SOL    HW267475   5.604  11.296   1.440
21860SOL     OW67476   3.222   9.525   2.864
21860SOL    HW167477   3.247   9.466   2.935
21860SOL    HW267478   3.275   9.496   2.790
21861SOL     OW67479   2.287   1.629  10.079
21861SOL    HW167480   2.280   1.654   9.987
21861SOL    HW267481   2.236   1.695  10.126
21862SOL     OW67482   6.275   9.273   7.829
21862SOL    HW167483   6.237   9.361   7.828
21862SOL    HW267484   6.213   9.219   7.780
21863SOL     OW67485  10.935  14.805  11.373
21863SOL    HW167486  10.894  14.728  11.412
21863SOL    HW267487  11.028  14.794  11.391
21864SOL     OW67488   6.957  12.374   8.288
21864SOL    HW167489   6.906  12.333   8.218
21864SOL    HW267490   6.895  12.433   8.332
21865SOL     OW67491   9.542   6.106   4.878
21865SOL    HW167492   9.559   6.200   4.886
21865SOL    HW267493   9.452   6.096   4.909
21866SOL     OW67494   1.740   2.753  13.446
21866SOL    HW167495   1.683   2.681  13.418
21866SOL    HW267496   1.784   2.720  13.524
21867SOL     OW67497   9.825  14.539   9.078
21867SOL    HW167498   9.890  14.471   9.066
21867SOL    HW267499   9.748  14.493   9.111
21868SOL     OW67500  12.512  14.388  12.741
21868SOL    HW167501  12.558  14.306  12.724
21868SOL    HW267502  12.452  14.399  12.667
21869SOL     OW67503   0.292   0.009   5.450
21869SOL    HW167504   0.251  14.803   5.429
21869SOL    HW267505   0.385  14.873   5.430
21870SOL     OW67506   2.080   2.300   9.858
21870SOL    HW167507   2.061   2.320   9.766
21870SOL    HW267508   2.099   2.385   9.898
21871SOL     OW67509  13.236  12.975   9.898
21871SOL    HW167510  13.291  12.899   9.916
21871SOL    HW267511  13.230  12.978   9.802
21872SOL     OW67512  13.646   4.123   7.886
21872SOL    HW167513  13.580   4.061   7.856
21872SOL    HW267514  13.673   4.169   7.807
21873SOL     OW67515   6.024  11.566   6.377
21873SOL    HW167516   6.049  11.607   6.294
21873SOL    HW267517   6.011  11.474   6.355
21874SOL     OW67518  11.407   8.874   1.201
21874SOL    HW167519  11.426   8.949   1.145
21874SOL    HW267520  11.411   8.908   1.290
21875SOL     OW67521   8.152   0.107  14.396
21875SOL    HW167522   8.216   0.076  14.459
21875SOL    HW267523   8.092   0.033  14.384
21876SOL     OW67524   8.097   3.615   5.507
21876SOL    HW167525   8.150   3.693   5.487
21876SOL    HW267526   8.126   3.550   5.443
21877SOL     OW67527  13.874   3.316   5.185
21877SOL    HW167528  13.932   3.307   5.261
21877SOL    HW267529  13.897   3.400   5.146
21878SOL     OW67530   4.204   1.044  13.542
21878SOL    HW167531   4.282   1.006  13.502
21878SOL    HW267532   4.192   1.127  13.497
21879SOL     OW67533   6.211   0.818   0.321
21879SOL    HW167534   6.126   0.811   0.364
21879SOL    HW267535   6.273   0.837   0.392
21880SOL     OW67536   4.287   9.431   3.316
21880SOL    HW167537   4.374   9.420   3.353
21880SOL    HW267538   4.274   9.526   3.313
21881SOL     OW67539   8.108   9.084   4.790
21881SOL    HW167540   8.146   9.168   4.766
21881SOL    HW267541   8.167   9.019   4.753
21882SOL     OW67542   0.827  13.545   7.283
21882SOL    HW167543   0.871  13.475   7.235
21882SOL    HW267544   0.740  13.550   7.245
21883SOL     OW67545   0.796   0.187   4.772
21883SOL    HW167546   0.729   0.255   4.778
21883SOL    HW267547   0.747   0.105   4.765
21884SOL     OW67548   7.249   4.485   4.276
21884SOL    HW167549   7.317   4.517   4.335
21884SOL    HW267550   7.228   4.398   4.309
21885SOL     OW67551   2.647   5.039  11.140
21885SOL    HW167552   2.666   5.132  11.151
21885SOL    HW267553   2.640   5.027  11.046
21886SOL     OW67554   6.123  11.186  12.978
21886SOL    HW167555   6.201  11.241  12.980
21886SOL    HW267556   6.133  11.132  12.899
21887SOL     OW67557   9.702  14.334   7.564
21887SOL    HW167558   9.612  14.356   7.587
21887SOL    HW267559   9.700  14.321   7.469
21888SOL     OW67560   4.211   3.702   3.969
21888SOL    HW167561   4.125   3.699   3.928
21888SOL    HW267562   4.211   3.783   4.019
21889SOL     OW67563   8.369  14.277   2.929
21889SOL    HW167564   8.401  14.206   2.986
21889SOL    HW267565   8.388  14.357   2.978
21890SOL     OW67566   9.056   9.439   0.511
21890SOL    HW167567   9.078   9.391   0.432
21890SOL    HW267568   9.078   9.530   0.491
21891SOL     OW67569   3.172  13.355   6.214
21891SOL    HW167570   3.243  13.317   6.162
21891SOL    HW267571   3.099  13.295   6.204
21892SOL     OW67572   8.305   3.971  10.123
21892SOL    HW167573   8.238   4.039  10.118
21892SOL    HW267574   8.259   3.895  10.159
21893SOL     OW67575  14.092   9.972   7.321
21893SOL    HW167576  14.085   9.984   7.416
21893SOL    HW267577  14.020   9.913   7.299
21894SOL     OW67578  14.243   0.086  14.280
21894SOL    HW167579  14.314   0.026  14.305
21894SOL    HW267580  14.192   0.038  14.215
21895SOL     OW67581   3.406   9.981  14.564
21895SOL    HW167582   3.439   9.986  14.654
21895SOL    HW267583   3.471   9.929  14.517
21896SOL     OW67584  11.921   6.995  14.077
21896SOL    HW167585  11.915   6.933  14.150
21896SOL    HW267586  12.011   6.988  14.046
21897SOL     OW67587   2.123  10.667  11.429
21897SOL    HW167588   2.212  10.664  11.393
21897SOL    HW267589   2.068  10.631  11.359
21898SOL     OW67590  10.634  10.621   7.054
21898SOL    HW167591  10.718  10.617   7.008
21898SOL    HW267592  10.636  10.547   7.115
21899SOL     OW67593   0.608   7.578   2.641
21899SOL    HW167594   0.577   7.507   2.585
21899SOL    HW267595   0.529   7.625   2.667
21900SOL     OW67596   0.169  10.859  13.638
21900SOL    HW167597   0.173  10.954  13.638
21900SOL    HW267598   0.093  10.838  13.583
21901SOL     OW67599   6.750  10.059  12.374
21901SOL    HW167600   6.788   9.997  12.312
21901SOL    HW267601   6.815  10.128  12.382
21902SOL     OW67602  13.348   2.679  10.090
21902SOL    HW167603  13.327   2.625  10.166
21902SOL    HW267604  13.306   2.763  10.108
21903SOL     OW67605   4.910   7.820   5.457
21903SOL    HW167606   4.927   7.865   5.375
21903SOL    HW267607   4.954   7.735   5.448
21904SOL     OW67608   0.809   8.359   1.142
21904SOL    HW167609   0.731   8.348   1.197
21904SOL    HW267610   0.883   8.339   1.200
21905SOL     OW67611   6.392  10.862  12.088
21905SOL    HW167612   6.478  10.822  12.076
21905SOL    HW267613   6.405  10.926  12.158
21906SOL     OW67614   3.180   8.161   3.154
21906SOL    HW167615   3.199   8.141   3.063
21906SOL    HW267616   3.256   8.211   3.184
21907SOL     OW67617   4.966   0.941  13.520
21907SOL    HW167618   5.045   0.958  13.469
21907SOL    HW267619   4.904   0.903  13.458
21908SOL     OW67620   6.335  13.561  13.080
21908SOL    HW167621   6.417  13.590  13.120
21908SOL    HW267622   6.359  13.533  12.992
21909SOL     OW67623   1.587   7.135   1.499
21909SOL    HW167624   1.510   7.187   1.521
21909SOL    HW267625   1.633   7.187   1.433
21910SOL     OW67626  12.224   4.992  12.631
21910SOL    HW167627  12.213   5.057  12.701
21910SOL    HW267628  12.315   5.004  12.602
21911SOL     OW67629   7.327   9.583   6.826
21911SOL    HW167630   7.235   9.556   6.831
21911SOL    HW267631   7.377   9.503   6.839
21912SOL     OW67632  12.456   0.566   5.593
21912SOL    HW167633  12.546   0.536   5.606
21912SOL    HW267634  12.423   0.585   5.681
21913SOL     OW67635  13.956  12.133  10.758
21913SOL    HW167636  13.965  12.052  10.809
21913SOL    HW267637  14.012  12.120  10.682
21914SOL     OW67638  14.121   6.823  13.893
21914SOL    HW167639  14.215   6.836  13.883
21914SOL    HW267640  14.083   6.863  13.814
21915SOL     OW67641   2.470   2.479   7.327
21915SOL    HW167642   2.453   2.388   7.304
21915SOL    HW267643   2.519   2.515   7.253
21916SOL     OW67644  14.246   4.289   8.263
21916SOL    HW167645  14.278   4.325   8.180
21916SOL    HW267646  14.153   4.312   8.265
21917SOL     OW67647   9.265   4.073   3.317
21917SOL    HW167648   9.194   4.025   3.358
21917SOL    HW267649   9.337   4.068   3.379
21918SOL     OW67650   8.709   7.032  12.610
21918SOL    HW167651   8.709   7.064  12.520
21918SOL    HW267652   8.618   7.035  12.637
21919SOL     OW67653   7.732   5.946   2.848
21919SOL    HW167654   7.741   6.036   2.879
21919SOL    HW267655   7.655   5.948   2.791
21920SOL     OW67656   6.235   1.449   6.024
21920SOL    HW167657   6.280   1.373   6.061
21920SOL    HW267658   6.254   1.445   5.930
21921SOL     OW67659  12.482   0.968  11.622
21921SOL    HW167660  12.485   0.920  11.704
21921SOL    HW267661  12.515   0.906  11.556
21922SOL     OW67662   1.510   6.246   0.668
21922SOL    HW167663   1.451   6.176   0.640
21922SOL    HW267664   1.561   6.207   0.740
21923SOL     OW67665   2.426   7.968   0.932
21923SOL    HW167666   2.483   7.944   1.005
21923SOL    HW267667   2.470   7.934   0.854
21924SOL     OW67668   3.164  10.133   7.978
21924SOL    HW167669   3.228  10.205   7.976
21924SOL    HW267670   3.178  10.087   7.895
21925SOL     OW67671  14.151  12.813   7.178
21925SOL    HW167672  14.199  12.731   7.190
21925SOL    HW267673  14.179  12.868   7.252
21926SOL     OW67674   6.438   6.677   2.887
21926SOL    HW167675   6.510   6.646   2.833
21926SOL    HW267676   6.409   6.600   2.936
21927SOL     OW67677   2.164   5.526   7.680
21927SOL    HW167678   2.092   5.497   7.735
21927SOL    HW267679   2.231   5.459   7.690
21928SOL     OW67680   9.194   4.709   4.692
21928SOL    HW167681   9.108   4.678   4.665
21928SOL    HW267682   9.187   4.718   4.787
21929SOL     OW67683  13.556  10.101  14.604
21929SOL    HW167684  13.464  10.088  14.580
21929SOL    HW267685  13.565  10.195  14.615
21930SOL     OW67686   5.987  13.953   0.938
21930SOL    HW167687   5.907  14.004   0.942
21930SOL    HW267688   5.982  13.893   1.013
21931SOL     OW67689  12.178   5.347   3.036
21931SOL    HW167690  12.234   5.419   3.007
21931SOL    HW267691  12.221   5.313   3.114
21932SOL     OW67692   1.995   6.729  12.573
21932SOL    HW167693   1.945   6.805  12.602
21932SOL    HW267694   2.064   6.719  12.639
21933SOL     OW67695   2.887   5.078   4.854
21933SOL    HW167696   2.840   5.159   4.837
21933SOL    HW267697   2.819   5.011   4.862
21934SOL     OW67698   6.696  14.003   2.626
21934SOL    HW167699   6.630  13.993   2.695
21934SOL    HW267700   6.779  13.982   2.669
21935SOL     OW67701   5.397   0.335  14.247
21935SOL    HW167702   5.326   0.316  14.307
21935SOL    HW267703   5.432   0.419  14.276
21936SOL     OW67704   4.652   8.233   2.319
21936SOL    HW167705   4.639   8.296   2.390
21936SOL    HW267706   4.729   8.183   2.345
21937SOL     OW67707  13.897   3.485   8.981
21937SOL    HW167708  13.845   3.452   8.908
21937SOL    HW267709  13.835   3.493   9.053
21938SOL     OW67710   3.488   4.697   1.595
21938SOL    HW167711   3.397   4.719   1.618
21938SOL    HW267712   3.539   4.725   1.672
21939SOL     OW67713  13.433   5.208   1.274
21939SOL    HW167714  13.351   5.202   1.225
21939SOL    HW267715  13.500   5.220   1.207
21940SOL     OW67716   0.271   3.145   5.250
21940SOL    HW167717   0.209   3.095   5.197
21940SOL    HW267718   0.218   3.184   5.319
21941SOL     OW67719  12.901   0.220   3.500
21941SOL    HW167720  12.940   0.138   3.469
21941SOL    HW267721  12.972   0.263   3.548
21942SOL     OW67722  14.006  13.705   8.241
21942SOL    HW167723  14.074  13.718   8.175
21942SOL    HW267724  13.924  13.709   8.192
21943SOL     OW67725   4.183  12.196   7.605
21943SOL    HW167726   4.102  12.163   7.643
21943SOL    HW267727   4.216  12.259   7.670
21944SOL     OW67728  11.069   6.300  13.057
21944SOL    HW167729  11.139   6.299  13.123
21944SOL    HW267730  11.111   6.267  12.978
21945SOL     OW67731   8.425  13.272   3.317
21945SOL    HW167732   8.340  13.293   3.357
21945SOL    HW267733   8.414  13.182   3.284
21946SOL     OW67734   5.921   5.858   8.947
21946SOL    HW167735   5.908   5.786   9.008
21946SOL    HW267736   5.975   5.921   8.996
21947SOL     OW67737   6.762   1.586   1.695
21947SOL    HW167738   6.787   1.627   1.778
21947SOL    HW267739   6.703   1.649   1.654
21948SOL     OW67740   7.850   3.944   8.484
21948SOL    HW167741   7.911   3.930   8.412
21948SOL    HW267742   7.800   4.022   8.457
21949SOL     OW67743   9.699   6.750   6.263
21949SOL    HW167744   9.712   6.723   6.172
21949SOL    HW267745   9.713   6.845   6.262
21950SOL     OW67746   8.779   9.895   9.525
21950SOL    HW167747   8.704   9.934   9.480
21950SOL    HW267748   8.798   9.954   9.597
21951SOL     OW67749   2.451  14.139  10.755
21951SOL    HW167750   2.483  14.049  10.748
21951SOL    HW267751   2.482  14.182  10.676
21952SOL     OW67752   7.220  11.214   5.812
21952SOL    HW167753   7.275  11.252   5.742
21952SOL    HW267754   7.170  11.145   5.768
21953SOL     OW67755  12.470   5.061   1.105
21953SOL    HW167756  12.493   5.154   1.102
21953SOL    HW267757  12.397   5.057   1.168
21954SOL     OW67758   5.694  14.449  11.965
21954SOL    HW167759   5.749  14.397  11.906
21954SOL    HW267760   5.744  14.454  12.046
21955SOL     OW67761   2.930   5.188  14.504
21955SOL    HW167762   2.953   5.244  14.577
21955SOL    HW267763   3.010   5.182  14.451
21956SOL     OW67764   9.297   3.180  14.635
21956SOL    HW167765   9.376   3.232  14.649
21956SOL    HW267766   9.264   3.162  14.723
21957SOL     OW67767   0.461  11.550  10.935
21957SOL    HW167768   0.520  11.475  10.936
21957SOL    HW267769   0.382  11.519  10.891
21958SOL     OW67770   5.741   4.895   1.464
21958SOL    HW167771   5.748   4.801   1.452
21958SOL    HW267772   5.752   4.908   1.559
21959SOL     OW67773   4.053  14.873   7.516
21959SOL    HW167774   4.040   0.087   7.541
21959SOL    HW267775   4.025  14.823   7.592
21960SOL     OW67776   5.824   3.272   1.268
21960SOL    HW167777   5.741   3.229   1.246
21960SOL    HW267778   5.799   3.342   1.329
21961SOL     OW67779   9.097   7.208   9.793
21961SOL    HW167780   9.093   7.301   9.768
21961SOL    HW267781   9.188   7.184   9.780
21962SOL     OW67782   2.517   6.719   0.345
21962SOL    HW167783   2.508   6.752   0.434
21962SOL    HW267784   2.435   6.745   0.302
21963SOL     OW67785   7.486  11.772  10.711
21963SOL    HW167786   7.581  11.786  10.714
21963SOL    HW267787   7.468  11.718  10.788
21964SOL     OW67788   1.720   3.014   4.252
21964SOL    HW167789   1.673   3.047   4.175
21964SOL    HW267790   1.705   2.920   4.250
21965SOL     OW67791   5.879  10.118   4.131
21965SOL    HW167792   5.837  10.063   4.198
21965SOL    HW267793   5.806  10.151   4.079
21966SOL     OW67794   9.621  12.117  13.116
21966SOL    HW167795   9.636  12.135  13.023
21966SOL    HW267796   9.533  12.079  13.119
21967SOL     OW67797   6.235   9.500   3.048
21967SOL    HW167798   6.290   9.424   3.067
21967SOL    HW267799   6.218   9.539   3.133
21968SOL     OW67800   4.921  10.354   0.222
21968SOL    HW167801   4.951  10.409   0.295
21968SOL    HW267802   4.872  10.283   0.264
21969SOL     OW67803  11.323  12.592   0.836
21969SOL    HW167804  11.392  12.656   0.854
21969SOL    HW267805  11.336  12.524   0.902
21970SOL     OW67806   6.886   3.075  14.670
21970SOL    HW167807   6.867   3.079  14.576
21970SOL    HW267808   6.980   3.060  14.674
21971SOL     OW67809  13.475   0.861   8.223
21971SOL    HW167810  13.420   0.904   8.288
21971SOL    HW267811  13.444   0.770   8.222
21972SOL     OW67812  11.602   0.098   1.167
21972SOL    HW167813  11.577   0.010   1.195
21972SOL    HW267814  11.647   0.135   1.243
21973SOL     OW67815   1.165  10.586  12.208
21973SOL    HW167816   1.193  10.501  12.241
21973SOL    HW267817   1.070  10.586  12.218
21974SOL     OW67818  13.545  12.569   4.535
21974SOL    HW167819  13.520  12.511   4.607
21974SOL    HW267820  13.485  12.546   4.464
21975SOL     OW67821   3.340   2.164   4.217
21975SOL    HW167822   3.390   2.082   4.225
21975SOL    HW267823   3.269   2.155   4.280
21976SOL     OW67824   6.485  10.022   7.316
21976SOL    HW167825   6.523  10.018   7.228
21976SOL    HW267826   6.561  10.024   7.374
21977SOL     OW67827   1.078   8.107   9.358
21977SOL    HW167828   1.150   8.106   9.421
21977SOL    HW267829   1.110   8.055   9.284
21978SOL     OW67830   1.053  11.067  12.030
21978SOL    HW167831   1.114  11.140  12.027
21978SOL    HW267832   1.086  11.006  11.964
21979SOL     OW67833   3.847  13.879   9.165
21979SOL    HW167834   3.841  13.814   9.096
21979SOL    HW267835   3.762  13.922   9.166
21980SOL     OW67836   9.192   9.407  11.844
21980SOL    HW167837   9.239   9.447  11.771
21980SOL    HW267838   9.255   9.405  11.915
21981SOL     OW67839  10.029  13.182   2.580
21981SOL    HW167840  10.114  13.137   2.579
21981SOL    HW267841  10.051  13.275   2.583
21982SOL     OW67842   0.496   1.074   7.747
21982SOL    HW167843   0.410   1.059   7.707
21982SOL    HW267844   0.484   1.151   7.802
21983SOL     OW67845   1.136   6.984   6.396
21983SOL    HW167846   1.100   7.026   6.474
21983SOL    HW267847   1.063   6.983   6.333
21984SOL     OW67848   2.513   2.870   9.735
21984SOL    HW167849   2.585   2.820   9.695
21984SOL    HW267850   2.543   2.887   9.824
21985SOL     OW67851   5.314   9.902  11.005
21985SOL    HW167852   5.222   9.929  10.997
21985SOL    HW267853   5.323   9.830  10.943
21986SOL     OW67854   5.810  11.596  14.388
21986SOL    HW167855   5.742  11.532  14.407
21986SOL    HW267856   5.838  11.576  14.299
21987SOL     OW67857   2.535  11.506   8.557
21987SOL    HW167858   2.585  11.478   8.480
21987SOL    HW267859   2.464  11.442   8.563
21988SOL     OW67860   4.821   4.693   5.537
21988SOL    HW167861   4.904   4.733   5.565
21988SOL    HW267862   4.755   4.735   5.592
21989SOL     OW67863   7.724   9.591   5.368
21989SOL    HW167864   7.645   9.559   5.413
21989SOL    HW267865   7.797   9.557   5.421
21990SOL     OW67866  10.407   1.545  13.155
21990SOL    HW167867  10.395   1.615  13.219
21990SOL    HW267868  10.339   1.559  13.089
21991SOL     OW67869   2.940   1.042   9.496
21991SOL    HW167870   2.916   0.985   9.423
21991SOL    HW267871   2.863   1.097   9.510
21992SOL     OW67872   0.776   3.862  14.631
21992SOL    HW167873   0.870   3.877  14.640
21992SOL    HW267874   0.745   3.934  14.576
21993SOL     OW67875   9.520   1.723   2.607
21993SOL    HW167876   9.570   1.805   2.608
21993SOL    HW267877   9.511   1.701   2.700
21994SOL     OW67878   0.398  10.361   8.407
21994SOL    HW167879   0.355  10.307   8.473
21994SOL    HW267880   0.469  10.405   8.454
21995SOL     OW67881   6.519   2.422   5.237
21995SOL    HW167882   6.466   2.428   5.157
21995SOL    HW267883   6.608   2.439   5.207
21996SOL     OW67884   6.612  10.002   9.123
21996SOL    HW167885   6.675   9.949   9.074
21996SOL    HW267886   6.597  10.078   9.067
21997SOL     OW67887   0.624   8.250  12.386
21997SOL    HW167888   0.540   8.263  12.429
21997SOL    HW267889   0.638   8.155  12.389
21998SOL     OW67890   0.499   3.016  14.676
21998SOL    HW167891   0.576   3.008  14.732
21998SOL    HW267892   0.434   3.059  14.731
21999SOL     OW67893   0.622   7.435   2.221
21999SOL    HW167894   0.543   7.395   2.259
21999SOL    HW267895   0.673   7.463   2.297
22000SOL     OW67896   4.079   7.368  13.136
22000SOL    HW167897   4.057   7.459  13.118
22000SOL    HW267898   4.130   7.371  13.217
22001SOL     OW67899  10.399   5.518  13.634
22001SOL    HW167900  10.310   5.542  13.610
22001SOL    HW267901  10.402   5.422  13.627
22002SOL     OW67902   1.614  11.910  14.864
22002SOL    HW167903   1.669  11.859  14.804
22002SOL    HW267904   1.581  11.982  14.810
22003SOL     OW67905   7.036   8.709  12.602
22003SOL    HW167906   6.946   8.727  12.573
22003SOL    HW267907   7.084   8.691  12.522
22004SOL     OW67908   1.201  10.338  11.310
22004SOL    HW167909   1.208  10.324  11.216
22004SOL    HW267910   1.122  10.391  11.321
22005SOL     OW67911   1.576  12.324  10.089
22005SOL    HW167912   1.629  12.250  10.118
22005SOL    HW267913   1.560  12.308   9.996
22006SOL     OW67914   9.538   0.071  11.285
22006SOL    HW167915   9.463   0.127  11.268
22006SOL    HW267916   9.557   0.029  11.202
22007SOL     OW67917  12.488   2.258   3.475
22007SOL    HW167918  12.515   2.349   3.463
22007SOL    HW267919  12.425   2.260   3.547
22008SOL     OW67920   7.009   1.166   0.941
22008SOL    HW167921   7.031   1.105   0.872
22008SOL    HW267922   7.061   1.244   0.923
22009SOL     OW67923   9.085  14.433   3.938
22009SOL    HW167924   9.074  14.412   4.031
22009SOL    HW267925   8.999  14.466   3.911
22010SOL     OW67926   4.157  11.619   9.706
22010SOL    HW167927   4.212  11.684   9.663
22010SOL    HW267928   4.210  11.586   9.778
22011SOL     OW67929  12.370   3.759   4.718
22011SOL    HW167930  12.380   3.728   4.628
22011SOL    HW267931  12.308   3.699   4.758
22012SOL     OW67932   0.368   1.589   4.130
22012SOL    HW167933   0.445   1.628   4.171
22012SOL    HW267934   0.400   1.508   4.091
22013SOL     OW67935   6.209   0.533   9.154
22013SOL    HW167936   6.171   0.447   9.173
22013SOL    HW267937   6.155   0.567   9.083
22014SOL     OW67938   0.249   3.518   5.588
22014SOL    HW167939   0.255   3.467   5.669
22014SOL    HW267940   0.325   3.576   5.591
22015SOL     OW67941   5.207   5.690   7.811
22015SOL    HW167942   5.266   5.646   7.872
22015SOL    HW267943   5.124   5.643   7.818
22016SOL     OW67944  11.942   0.939   8.912
22016SOL    HW167945  11.960   1.017   8.964
22016SOL    HW267946  11.884   0.887   8.966
22017SOL     OW67947  13.388   1.560   3.383
22017SOL    HW167948  13.418   1.499   3.450
22017SOL    HW267949  13.467   1.605   3.354
22018SOL     OW67950  12.278   4.673   8.148
22018SOL    HW167951  12.371   4.678   8.127
22018SOL    HW267952  12.233   4.705   8.069
22019SOL     OW67953  13.999   9.295  11.231
22019SOL    HW167954  13.905   9.287  11.245
22019SOL    HW267955  14.035   9.312  11.319
22020SOL     OW67956   0.437   5.295  14.602
22020SOL    HW167957   0.381   5.281  14.525
22020SOL    HW267958   0.448   5.390  14.607
22021SOL     OW67959   3.523   7.922   3.741
22021SOL    HW167960   3.436   7.906   3.704
22021SOL    HW267961   3.550   7.837   3.775
22022SOL     OW67962  14.749   2.946   8.992
22022SOL    HW167963  14.670   2.943   9.047
22022SOL    HW267964  14.799   2.869   9.018
22023SOL     OW67965   2.774   5.206  14.782
22023SOL    HW167966   2.849   5.220  14.724
22023SOL    HW267967   2.699   5.235  14.732
22024SOL     OW67968   4.358  11.131   5.130
22024SOL    HW167969   4.288  11.193   5.147
22024SOL    HW267970   4.314  11.046   5.124
22025SOL     OW67971   6.523   8.940   0.157
22025SOL    HW167972   6.606   8.954   0.202
22025SOL    HW267973   6.517   8.846   0.145
22026SOL     OW67974   3.208   8.260  12.385
22026SOL    HW167975   3.198   8.340  12.334
22026SOL    HW267976   3.141   8.201  12.351
22027SOL     OW67977   6.356   7.836   5.226
22027SOL    HW167978   6.446   7.863   5.244
22027SOL    HW267979   6.330   7.889   5.151
22028SOL     OW67980   6.051   2.026   3.703
22028SOL    HW167981   6.050   1.930   3.700
22028SOL    HW267982   6.093   2.052   3.620
22029SOL     OW67983   7.578  13.685   8.849
22029SOL    HW167984   7.614  13.688   8.938
22029SOL    HW267985   7.651  13.653   8.795
22030SOL     OW67986   4.393   5.940   3.960
22030SOL    HW167987   4.487   5.933   3.972
22030SOL    HW267988   4.367   5.858   3.917
22031SOL     OW67989  10.458  13.670   5.255
22031SOL    HW167990  10.492  13.581   5.264
22031SOL    HW267991  10.450  13.702   5.345
22032SOL     OW67992   6.133   7.886   8.075
22032SOL    HW167993   6.055   7.941   8.066
22032SOL    HW267994   6.141   7.871   8.169
22033SOL     OW67995  10.563   0.169   2.673
22033SOL    HW167996  10.486   0.182   2.729
22033SOL    HW267997  10.633   0.218   2.717
22034SOL     OW67998  11.665   7.022   5.201
22034SOL    HW167999  11.616   7.052   5.124
22034SOL    HW268000  11.726   6.957   5.167
22035SOL     OW68001   1.113   0.263  13.564
22035SOL    HW168002   1.110   0.173  13.595
22035SOL    HW268003   1.100   0.256  13.469
22036SOL     OW68004  11.301  14.577   1.028
22036SOL    HW168005  11.208  14.569   1.050
22036SOL    HW268006  11.330  14.487   1.013
22037SOL     OW68007  14.847   5.537  10.625
22037SOL    HW168008   0.061   5.520  10.599
22037SOL    HW268009  14.809   5.450  10.636
22038SOL     OW68010   8.762   6.332   6.572
22038SOL    HW168011   8.798   6.251   6.536
22038SOL    HW268012   8.700   6.303   6.639
22039SOL     OW68013   9.963   8.765   0.930
22039SOL    HW168014  10.012   8.716   0.996
22039SOL    HW268015   9.916   8.698   0.880
22040SOL     OW68016   2.905  14.730   0.745
22040SOL    HW168017   2.942  14.792   0.683
22040SOL    HW268018   2.858  14.784   0.808
22041SOL     OW68019   1.901  14.675  10.397
22041SOL    HW168020   1.893  14.580  10.397
22041SOL    HW268021   1.873  14.702  10.485
22042SOL     OW68022   0.231  11.823   7.957
22042SOL    HW168023   0.300  11.757   7.949
22042SOL    HW268024   0.163  11.781   8.009
22043SOL     OW68025   3.217  10.578   3.786
22043SOL    HW168026   3.261  10.494   3.801
22043SOL    HW268027   3.201  10.612   3.874
22044SOL     OW68028   7.090  10.800   2.432
22044SOL    HW168029   7.025  10.858   2.391
22044SOL    HW268030   7.160  10.792   2.368
22045SOL     OW68031  10.022   6.622  11.518
22045SOL    HW168032   9.945   6.619  11.574
22045SOL    HW268033  10.030   6.714  11.492
22046SOL     OW68034  11.384  10.639   5.161
22046SOL    HW168035  11.316  10.700   5.191
22046SOL    HW268036  11.385  10.651   5.066
22047SOL     OW68037   3.692   9.843   0.200
22047SOL    HW168038   3.623   9.798   0.250
22047SOL    HW268039   3.687   9.805   0.113
22048SOL     OW68040   4.514   4.206  10.701
22048SOL    HW168041   4.506   4.117  10.667
22048SOL    HW268042   4.567   4.198  10.780
22049SOL     OW68043   1.954  12.023   6.878
22049SOL    HW168044   1.991  12.016   6.966
22049SOL    HW268045   1.897  12.100   6.883
22050SOL     OW68046  13.167   6.396  10.710
22050SOL    HW168047  13.125   6.373  10.627
22050SOL    HW268048  13.246   6.342  10.711
22051SOL     OW68049   9.544   3.346   4.413
22051SOL    HW168050   9.523   3.391   4.332
22051SOL    HW268051   9.537   3.253   4.392
22052SOL     OW68052   1.597   4.297   4.847
22052SOL    HW168053   1.672   4.355   4.858
22052SOL    HW268054   1.618   4.221   4.901
22053SOL     OW68055   0.720   7.709  12.100
22053SOL    HW168056   0.726   7.668  12.014
22053SOL    HW268057   0.763   7.646  12.159
22054SOL     OW68058   0.393   0.461  13.077
22054SOL    HW168059   0.397   0.367  13.095
22054SOL    HW268060   0.303   0.485  13.100
22055SOL     OW68061   1.038   8.824  12.509
22055SOL    HW168062   1.090   8.824  12.429
22055SOL    HW268063   1.036   8.732  12.536
22056SOL     OW68064   9.295  13.177  12.690
22056SOL    HW168065   9.233  13.232  12.737
22056SOL    HW268066   9.380  13.222  12.700
22057SOL     OW68067   4.197   1.395   5.561
22057SOL    HW168068   4.257   1.339   5.511
22057SOL    HW268069   4.112   1.351   5.554
22058SOL     OW68070   6.198  13.570   7.390
22058SOL    HW168071   6.242  13.500   7.342
22058SOL    HW268072   6.234  13.566   7.478
22059SOL     OW68073   1.191   9.528  11.428
22059SOL    HW168074   1.233   9.444  11.446
22059SOL    HW268075   1.260   9.593  11.442
22060SOL     OW68076  12.396   1.511  11.940
22060SOL    HW168077  12.426   1.597  11.912
22060SOL    HW268078  12.398   1.458  11.860
22061SOL     OW68079  14.735  11.434  10.560
22061SOL    HW168080  14.786  11.390  10.628
22061SOL    HW268081  14.712  11.364  10.499
22062SOL     OW68082   3.634  12.889  13.852
22062SOL    HW168083   3.647  12.794  13.852
22062SOL    HW268084   3.650  12.915  13.943
22063SOL     OW68085   0.579   1.909   6.398
22063SOL    HW168086   0.654   1.876   6.446
22063SOL    HW268087   0.606   1.995   6.367
22064SOL     OW68088   6.389  13.885   6.815
22064SOL    HW168089   6.483  13.884   6.796
22064SOL    HW268090   6.364  13.977   6.807
22065SOL     OW68091   7.481  14.819  12.287
22065SOL    HW168092   7.438  14.735  12.305
22065SOL    HW268093   7.458  14.875  12.361
22066SOL     OW68094   8.272   7.592   0.785
22066SOL    HW168095   8.215   7.519   0.761
22066SOL    HW268096   8.358   7.552   0.799
22067SOL     OW68097  11.755   8.771   2.366
22067SOL    HW168098  11.777   8.680   2.387
22067SOL    HW268099  11.707   8.765   2.283
22068SOL     OW68100   3.277   3.379   5.720
22068SOL    HW168101   3.259   3.301   5.773
22068SOL    HW268102   3.192   3.419   5.707
22069SOL     OW68103   1.981   4.512   7.994
22069SOL    HW168104   2.044   4.466   7.938
22069SOL    HW268105   1.905   4.525   7.938
22070SOL     OW68106  10.015  13.606   5.019
22070SOL    HW168107  10.010  13.565   5.106
22070SOL    HW268108  10.045  13.536   4.961
22071SOL     OW68109  14.672  14.668  13.651
22071SOL    HW168110  14.739  14.736  13.649
22071SOL    HW268111  14.708  14.601  13.709
22072SOL     OW68112   9.622   5.745   6.526
22072SOL    HW168113   9.582   5.777   6.445
22072SOL    HW268114   9.595   5.654   6.532
22073SOL     OW68115  12.361  10.344  10.367
22073SOL    HW168116  12.274  10.382  10.377
22073SOL    HW268117  12.394  10.334  10.456
22074SOL     OW68118  10.953  11.766   8.151
22074SOL    HW168119  11.041  11.732   8.166
22074SOL    HW268120  10.896  11.712   8.206
22075SOL     OW68121  11.895  10.160  13.821
22075SOL    HW168122  11.876  10.071  13.790
22075SOL    HW268123  11.811  10.192  13.855
22076SOL     OW68124   4.339  11.791  13.039
22076SOL    HW168125   4.401  11.725  13.072
22076SOL    HW268126   4.381  11.828  12.962
22077SOL     OW68127   3.408  13.773  11.666
22077SOL    HW168128   3.366  13.691  11.688
22077SOL    HW268129   3.502  13.752  11.663
22078SOL     OW68130   2.790   2.572   4.612
22078SOL    HW168131   2.814   2.480   4.615
22078SOL    HW268132   2.869   2.619   4.639
22079SOL     OW68133  12.061  12.110   0.674
22079SOL    HW168134  12.050  12.048   0.746
22079SOL    HW268135  12.150  12.095   0.644
22080SOL     OW68136   0.312   8.250  12.042
22080SOL    HW168137   0.231   8.248  11.990
22080SOL    HW268138   0.379   8.215  11.984
22081SOL     OW68139  13.157  13.210  14.283
22081SOL    HW168140  13.081  13.159  14.314
22081SOL    HW268141  13.182  13.264  14.358
22082SOL     OW68142  14.196   7.927   0.432
22082SOL    HW168143  14.263   7.995   0.437
22082SOL    HW268144  14.226   7.858   0.492
22083SOL     OW68145  13.628   8.204   8.288
22083SOL    HW168146  13.671   8.118   8.298
22083SOL    HW268147  13.591   8.202   8.200
22084SOL     OW68148   9.312   4.521   9.421
22084SOL    HW168149   9.222   4.519   9.453
22084SOL    HW268150   9.366   4.513   9.499
22085SOL     OW68151  12.120   0.232   5.495
22085SOL    HW168152  12.162   0.150   5.523
22085SOL    HW268153  12.056   0.204   5.430
22086SOL     OW68154   4.625   4.241   9.698
22086SOL    HW168155   4.677   4.165   9.726
22086SOL    HW268156   4.683   4.316   9.711
22087SOL     OW68157  10.858  10.073   9.409
22087SOL    HW168158  10.881  10.062   9.502
22087SOL    HW268159  10.789  10.009   9.393
22088SOL     OW68160  11.728   7.026   2.799
22088SOL    HW168161  11.803   7.085   2.798
22088SOL    HW268162  11.661   7.073   2.849
22089SOL     OW68163   1.367   3.599   1.586
22089SOL    HW168164   1.291   3.653   1.611
22089SOL    HW268165   1.347   3.570   1.497
22090SOL     OW68166  12.713   7.436   7.250
22090SOL    HW168167  12.659   7.438   7.171
22090SOL    HW268168  12.686   7.514   7.299
22091SOL     OW68169   5.779  12.803   1.814
22091SOL    HW168170   5.853  12.750   1.843
22091SOL    HW268171   5.819  12.884   1.780
22092SOL     OW68172   2.817  13.651   2.096
22092SOL    HW168173   2.791  13.608   2.178
22092SOL    HW268174   2.834  13.742   2.121
22093SOL     OW68175  13.829   9.221   5.187
22093SOL    HW168176  13.767   9.275   5.138
22093SOL    HW268177  13.859   9.156   5.124
22094SOL     OW68178   1.842  11.997  10.613
22094SOL    HW168179   1.848  11.961  10.702
22094SOL    HW268180   1.837  12.091  10.625
22095SOL     OW68181   0.882   3.230  10.874
22095SOL    HW168182   0.906   3.280  10.796
22095SOL    HW268183   0.836   3.293  10.929
22096SOL     OW68184   6.580  12.241   0.029
22096SOL    HW168185   6.524  12.201  14.840
22096SOL    HW268186   6.634  12.304  14.858
22097SOL     OW68187   1.669   5.074  11.176
22097SOL    HW168188   1.631   5.113  11.097
22097SOL    HW268189   1.732   5.139  11.207
22098SOL     OW68190  11.695   5.423   5.512
22098SOL    HW168191  11.602   5.406   5.495
22098SOL    HW268192  11.697   5.510   5.553
22099SOL     OW68193  13.277   4.598   2.169
22099SOL    HW168194  13.216   4.669   2.192
22099SOL    HW268195  13.351   4.643   2.128
22100SOL     OW68196   3.616  10.408   9.177
22100SOL    HW168197   3.699  10.455   9.163
22100SOL    HW268198   3.591  10.429   9.267
22101SOL     OW68199   2.919  13.342  13.229
22101SOL    HW168200   2.909  13.253  13.262
22101SOL    HW268201   2.999  13.339  13.177
22102SOL     OW68202   3.434   2.333  14.688
22102SOL    HW168203   3.523   2.298  14.691
22102SOL    HW268204   3.379   2.263  14.723
22103SOL     OW68205   0.665  14.282   8.597
22103SOL    HW168206   0.743  14.256   8.548
22103SOL    HW268207   0.606  14.206   8.589
22104SOL     OW68208  11.978   0.413   8.282
22104SOL    HW168209  11.942   0.352   8.218
22104SOL    HW268210  11.962   0.499   8.244
22105SOL     OW68211   8.930   3.940   3.881
22105SOL    HW168212   8.893   3.981   3.959
22105SOL    HW268213   8.961   4.013   3.827
22106SOL     OW68214  12.313   8.089  13.930
22106SOL    HW168215  12.266   8.046  14.002
22106SOL    HW268216  12.401   8.101  13.963
22107SOL     OW68217  14.864  11.975   3.376
22107SOL    HW168218   0.052  11.961   3.307
22107SOL    HW268219   0.038  11.978   3.456
22108SOL     OW68220  14.667  12.312   0.313
22108SOL    HW168221  14.665  12.406   0.292
22108SOL    HW268222  14.747  12.280   0.272
22109SOL     OW68223  11.977   1.040   6.534
22109SOL    HW168224  11.901   1.023   6.590
22109SOL    HW268225  12.040   1.084   6.590
22110SOL     OW68226   0.286   6.575  13.607
22110SOL    HW168227   0.205   6.617  13.578
22110SOL    HW268228   0.280   6.575  13.702
22111SOL     OW68229   3.432   2.426   3.784
22111SOL    HW168230   3.440   2.506   3.732
22111SOL    HW268231   3.452   2.453   3.873
22112SOL     OW68232   8.487   3.327   4.933
22112SOL    HW168233   8.407   3.318   4.985
22112SOL    HW268234   8.458   3.369   4.853
22113SOL     OW68235  11.133   9.423   5.938
22113SOL    HW168236  11.165   9.376   5.861
22113SOL    HW268237  11.208   9.472   5.969
22114SOL     OW68238   5.083   1.759   1.854
22114SOL    HW168239   5.165   1.775   1.902
22114SOL    HW268240   5.111   1.717   1.773
22115SOL     OW68241   3.848   4.501   6.564
22115SOL    HW168242   3.788   4.571   6.536
22115SOL    HW268243   3.935   4.539   6.554
22116SOL     OW68244   0.302   9.195   7.456
22116SOL    HW168245   0.237   9.257   7.424
22116SOL    HW268246   0.291   9.196   7.551
22117SOL     OW68247   1.007  12.918  12.895
22117SOL    HW168248   1.080  12.979  12.912
22117SOL    HW268249   0.941  12.972  12.851
22118SOL     OW68250   6.504   8.434  13.280
22118SOL    HW168251   6.560   8.457  13.355
22118SOL    HW268252   6.528   8.344  13.259
22119SOL     OW68253   7.278   3.702   6.432
22119SOL    HW168254   7.326   3.636   6.482
22119SOL    HW268255   7.318   3.785   6.457
22120SOL     OW68256  11.581  11.755   3.065
22120SOL    HW168257  11.487  11.734   3.065
22120SOL    HW268258  11.623  11.673   3.091
22121SOL     OW68259  11.015   7.329  12.177
22121SOL    HW168260  11.043   7.419  12.190
22121SOL    HW268261  11.053   7.303  12.094
22122SOL     OW68262   8.916   3.135   5.121
22122SOL    HW168263   8.986   3.179   5.074
22122SOL    HW268264   8.848   3.202   5.130
22123SOL     OW68265   5.258   3.199   5.712
22123SOL    HW168266   5.346   3.211   5.749
22123SOL    HW268267   5.271   3.139   5.638
22124SOL     OW68268   2.596   3.462  12.546
22124SOL    HW168269   2.554   3.507  12.619
22124SOL    HW268270   2.667   3.519  12.520
22125SOL     OW68271   3.840   4.263   0.765
22125SOL    HW168272   3.892   4.183   0.768
22125SOL    HW268273   3.775   4.246   0.696
22126SOL     OW68274  10.006   1.719   2.302
22126SOL    HW168275  10.067   1.779   2.258
22126SOL    HW268276  10.008   1.640   2.248
22127SOL     OW68277   4.489   8.209   7.075
22127SOL    HW168278   4.550   8.277   7.046
22127SOL    HW268279   4.403   8.238   7.043
22128SOL     OW68280   2.703  12.493  12.020
22128SOL    HW168281   2.785  12.478  12.066
22128SOL    HW268282   2.689  12.587  12.025
22129SOL     OW68283   8.326   0.146   1.609
22129SOL    HW168284   8.397   0.104   1.561
22129SOL    HW268285   8.321   0.234   1.574
22130SOL     OW68286   6.931  10.034   0.178
22130SOL    HW168287   6.932  10.086   0.098
22130SOL    HW268288   6.841  10.002   0.186
22131SOL     OW68289   8.401  12.869  10.942
22131SOL    HW168290   8.474  12.839  10.996
22131SOL    HW268291   8.442  12.916  10.869
22132SOL     OW68292   1.328  10.404   8.231
22132SOL    HW168293   1.286  10.489   8.244
22132SOL    HW268294   1.415  10.425   8.198
22133SOL     OW68295   9.024   3.826   2.010
22133SOL    HW168296   9.058   3.907   2.048
22133SOL    HW268297   9.102   3.776   1.987
22134SOL     OW68298   8.969   2.838   4.895
22134SOL    HW168299   8.876   2.845   4.916
22134SOL    HW268300   8.982   2.746   4.872
22135SOL     OW68301  12.521   1.481   0.485
22135SOL    HW168302  12.448   1.517   0.537
22135SOL    HW268303  12.540   1.550   0.421
22136SOL     OW68304   4.939   9.204   7.373
22136SOL    HW168305   4.909   9.292   7.348
22136SOL    HW268306   4.926   9.201   7.468
22137SOL     OW68307  13.296   9.307  11.563
22137SOL    HW168308  13.378   9.293  11.517
22137SOL    HW268309  13.246   9.365  11.506
22138SOL     OW68310   0.870  10.401  12.670
22138SOL    HW168311   0.880  10.316  12.628
22138SOL    HW268312   0.806  10.447  12.615
22139SOL     OW68313   5.472   3.655   5.735
22139SOL    HW168314   5.537   3.679   5.801
22139SOL    HW268315   5.408   3.601   5.782
22140SOL     OW68316   8.315  12.447   2.332
22140SOL    HW168317   8.347  12.381   2.393
22140SOL    HW268318   8.354  12.529   2.361
22141SOL     OW68319   3.364   9.721   4.615
22141SOL    HW168320   3.379   9.811   4.644
22141SOL    HW268321   3.451   9.682   4.611
22142SOL     OW68322   2.051  13.783   7.209
22142SOL    HW168323   2.065  13.722   7.137
22142SOL    HW268324   2.109  13.857   7.189
22143SOL     OW68325  11.589   2.230   3.987
22143SOL    HW168326  11.665   2.268   4.031
22143SOL    HW268327  11.582   2.277   3.904
22144SOL     OW68328  12.457   8.658   8.689
22144SOL    HW168329  12.539   8.610   8.672
22144SOL    HW268330  12.471   8.743   8.648
22145SOL     OW68331  13.253   7.953  11.956
22145SOL    HW168332  13.296   8.035  11.979
22145SOL    HW268333  13.197   7.934  12.031
22146SOL     OW68334   1.626   1.780  14.239
22146SOL    HW168335   1.672   1.707  14.280
22146SOL    HW268336   1.552   1.741  14.194
22147SOL     OW68337   8.633   8.899   7.460
22147SOL    HW168338   8.544   8.863   7.469
22147SOL    HW268339   8.652   8.938   7.545
22148SOL     OW68340  12.873   7.998  14.231
22148SOL    HW168341  12.899   8.011  14.139
22148SOL    HW268342  12.885   8.084  14.271
22149SOL     OW68343   3.806   8.782  10.547
22149SOL    HW168344   3.837   8.726  10.618
22149SOL    HW268345   3.883   8.832  10.520
22150SOL     OW68346   1.428  14.561  10.171
22150SOL    HW168347   1.490  14.488  10.169
22150SOL    HW268348   1.482  14.639  10.153
22151SOL     OW68349   2.617   7.060   1.951
22151SOL    HW168350   2.593   7.108   1.872
22151SOL    HW268351   2.539   7.063   2.006
22152SOL     OW68352   7.160  10.441   9.677
22152SOL    HW168353   7.169  10.518   9.621
22152SOL    HW268354   7.176  10.367   9.618
22153SOL     OW68355   0.195   0.854   8.812
22153SOL    HW168356   0.202   0.797   8.736
22153SOL    HW268357   0.137   0.925   8.784
22154SOL     OW68358  11.785   8.626  13.033
22154SOL    HW168359  11.841   8.624  13.111
22154SOL    HW268360  11.825   8.692  12.977
22155SOL     OW68361   3.726   8.586   5.201
22155SOL    HW168362   3.710   8.513   5.261
22155SOL    HW268363   3.795   8.554   5.142
22156SOL     OW68364   6.467  12.928   8.388
22156SOL    HW168365   6.454  12.963   8.300
22156SOL    HW268366   6.532  12.859   8.378
22157SOL     OW68367  12.150   7.743   8.914
22157SOL    HW168368  12.057   7.742   8.937
22157SOL    HW268369  12.161   7.670   8.854
22158SOL     OW68370   7.737  12.616   5.358
22158SOL    HW168371   7.813  12.559   5.346
22158SOL    HW268372   7.666  12.557   5.382
22159SOL     OW68373  10.490   3.155   4.005
22159SOL    HW168374  10.506   3.074   3.956
22159SOL    HW268375  10.496   3.224   3.940
22160SOL     OW68376   7.823   4.264  13.841
22160SOL    HW168377   7.761   4.241  13.772
22160SOL    HW268378   7.794   4.211  13.916
22161SOL     OW68379   3.892   7.476  14.757
22161SOL    HW168380   3.959   7.451  14.820
22161SOL    HW268381   3.809   7.454  14.801
22162SOL     OW68382   7.207   2.957   7.961
22162SOL    HW168383   7.233   2.865   7.951
22162SOL    HW268384   7.262   2.990   8.031
22163SOL     OW68385   9.593   5.757   2.952
22163SOL    HW168386   9.551   5.836   2.919
22163SOL    HW268387   9.679   5.786   2.982
22164SOL     OW68388   2.017   0.319   7.097
22164SOL    HW168389   2.062   0.365   7.169
22164SOL    HW268390   1.928   0.306   7.130
22165SOL     OW68391  13.746   3.480   1.213
22165SOL    HW168392  13.697   3.512   1.289
22165SOL    HW268393  13.682   3.429   1.163
22166SOL     OW68394  14.100   0.674  14.430
22166SOL    HW168395  14.139   0.695  14.345
22166SOL    HW268396  14.090   0.579  14.429
22167SOL     OW68397   7.256   5.589   2.867
22167SOL    HW168398   7.348   5.596   2.845
22167SOL    HW268399   7.254   5.581   2.962
22168SOL     OW68400   8.514  10.646   6.930
22168SOL    HW168401   8.554  10.729   6.906
22168SOL    HW268402   8.434  10.641   6.878
22169SOL     OW68403   1.630   9.796   2.379
22169SOL    HW168404   1.642   9.887   2.351
22169SOL    HW268405   1.659   9.744   2.303
22170SOL     OW68406  13.357  11.457   6.090
22170SOL    HW168407  13.432  11.456   6.150
22170SOL    HW268408  13.287  11.413   6.138
22171SOL     OW68409   9.255   5.829   8.473
22171SOL    HW168410   9.221   5.822   8.563
22171SOL    HW268411   9.190   5.782   8.420
22172SOL     OW68412   7.027  12.629  10.519
22172SOL    HW168413   7.099  12.566  10.511
22172SOL    HW268414   6.949  12.574  10.528
22173SOL     OW68415   8.065  10.170   7.193
22173SOL    HW168416   7.982  10.132   7.223
22173SOL    HW268417   8.071  10.145   7.101
22174SOL     OW68418   3.875   4.399  12.780
22174SOL    HW168419   3.914   4.316  12.809
22174SOL    HW268420   3.950   4.457  12.766
22175SOL     OW68421   5.735  14.610  13.642
22175SOL    HW168422   5.769  14.662  13.715
22175SOL    HW268423   5.789  14.636  13.567
22176SOL     OW68424  12.986   4.760   9.507
22176SOL    HW168425  12.934   4.835   9.480
22176SOL    HW268426  13.063   4.763   9.450
22177SOL     OW68427  10.742   5.338  14.124
22177SOL    HW168428  10.667   5.288  14.155
22177SOL    HW268429  10.767   5.295  14.043
22178SOL     OW68430  13.208   6.263  14.203
22178SOL    HW168431  13.161   6.312  14.136
22178SOL    HW268432  13.259   6.330  14.250
22179SOL     OW68433   0.534   9.044   2.392
22179SOL    HW168434   0.471   9.008   2.453
22179SOL    HW268435   0.480   9.085   2.323
22180SOL     OW68436   9.895   9.578   1.524
22180SOL    HW168437   9.872   9.551   1.435
22180SOL    HW268438   9.904   9.496   1.572
22181SOL     OW68439   4.168   8.624   5.417
22181SOL    HW168440   4.169   8.712   5.378
22181SOL    HW268441   4.250   8.584   5.390
22182SOL     OW68442   2.246   6.559   0.110
22182SOL    HW168443   2.272   6.624   0.175
22182SOL    HW268444   2.174   6.601   0.062
22183SOL     OW68445   3.761   9.112   0.787
22183SOL    HW168446   3.746   9.093   0.694
22183SOL    HW268447   3.833   9.174   0.787
22184SOL     OW68448   7.501   0.320   5.625
22184SOL    HW168449   7.453   0.373   5.562
22184SOL    HW268450   7.589   0.357   5.626
22185SOL     OW68451   0.055   0.278   7.853
22185SOL    HW168452   0.032   0.324   7.933
22185SOL    HW268453  14.853   0.280   7.800
22186SOL     OW68454   0.153   8.955   6.356
22186SOL    HW168455   0.143   8.872   6.401
22186SOL    HW268456   0.093   9.015   6.401
22187SOL     OW68457  11.477   4.058  10.146
22187SOL    HW168458  11.525   4.095  10.220
22187SOL    HW268459  11.527   4.084  10.069
22188SOL     OW68460  12.250   2.528   1.227
22188SOL    HW168461  12.268   2.511   1.134
22188SOL    HW268462  12.190   2.459   1.253
22189SOL     OW68463  13.354   1.108   7.464
22189SOL    HW168464  13.331   1.037   7.524
22189SOL    HW268465  13.287   1.105   7.396
22190SOL     OW68466   7.186  14.303   7.630
22190SOL    HW168467   7.226  14.270   7.711
22190SOL    HW268468   7.238  14.380   7.608
22191SOL     OW68469   1.821  13.381  10.531
22191SOL    HW168470   1.900  13.357  10.482
22191SOL    HW268471   1.851  13.391  10.621
22192SOL     OW68472  14.476  14.781  10.864
22192SOL    HW168473  14.490  14.871  10.892
22192SOL    HW268474  14.429  14.739  10.937
22193SOL     OW68475  14.255  11.243   5.521
22193SOL    HW168476  14.298  11.280   5.597
22193SOL    HW268477  14.306  11.164   5.501
22194SOL     OW68478  13.621   9.073   5.381
22194SOL    HW168479  13.687   9.105   5.319
22194SOL    HW268480  13.538   9.081   5.335
22195SOL     OW68481  13.673   2.697  12.664
22195SOL    HW168482  13.680   2.691  12.759
22195SOL    HW268483  13.708   2.613  12.633
22196SOL     OW68484   6.768   2.681  13.633
22196SOL    HW168485   6.733   2.629  13.705
22196SOL    HW268486   6.742   2.771  13.652
22197SOL     OW68487  10.163  10.384   0.881
22197SOL    HW168488  10.088  10.438   0.857
22197SOL    HW268489  10.168  10.390   0.976
22198SOL     OW68490   8.860   2.341   4.840
22198SOL    HW168491   8.770   2.325   4.812
22198SOL    HW268492   8.912   2.330   4.761
22199SOL     OW68493   0.761  14.066  11.410
22199SOL    HW168494   0.808  14.146  11.383
22199SOL    HW268495   0.691  14.057  11.345
22200SOL     OW68496   9.707  13.595  10.368
22200SOL    HW168497   9.777  13.536  10.397
22200SOL    HW268498   9.701  13.579  10.273
22201SOL     OW68499   5.724   2.703   7.057
22201SOL    HW168500   5.801   2.750   7.088
22201SOL    HW268501   5.725   2.716   6.962
22202SOL     OW68502   8.184   9.027   7.294
22202SOL    HW168503   8.267   8.992   7.262
22202SOL    HW268504   8.208   9.110   7.335
22203SOL     OW68505   2.828  10.482   1.992
22203SOL    HW168506   2.880  10.511   2.067
22203SOL    HW268507   2.867  10.397   1.969
22204SOL     OW68508   0.940  13.298  13.456
22204SOL    HW168509   1.024  13.252  13.458
22204SOL    HW268510   0.934  13.339  13.543
22205SOL     OW68511   9.942   8.598   5.440
22205SOL    HW168512  10.011   8.553   5.488
22205SOL    HW268513   9.914   8.536   5.373
22206SOL     OW68514   6.219   9.014   7.084
22206SOL    HW168515   6.300   8.987   7.127
22206SOL    HW268516   6.189   9.090   7.133
22207SOL     OW68517  14.231   7.720  10.304
22207SOL    HW168518  14.185   7.693  10.383
22207SOL    HW268519  14.162   7.740  10.241
22208SOL     OW68520   2.822  10.145  10.925
22208SOL    HW168521   2.852  10.154  10.834
22208SOL    HW268522   2.878  10.077  10.961
22209SOL     OW68523   3.770   7.663   3.114
22209SOL    HW168524   3.736   7.663   3.025
22209SOL    HW268525   3.822   7.743   3.120
22210SOL     OW68526   8.825   0.723  13.671
22210SOL    HW168527   8.871   0.806  13.679
22210SOL    HW268528   8.752   0.730  13.732
22211SOL     OW68529  11.026   1.969   3.066
22211SOL    HW168530  10.939   1.944   3.096
22211SOL    HW268531  11.039   2.057   3.103
22212SOL     OW68532  12.435  13.925   1.810
22212SOL    HW168533  12.374  13.854   1.790
22212SOL    HW268534  12.518  13.898   1.769
22213SOL     OW68535   1.455   9.114   6.003
22213SOL    HW168536   1.407   9.100   5.922
22213SOL    HW268537   1.522   9.045   6.004
22214SOL     OW68538  10.550   3.550  13.937
22214SOL    HW168539  10.569   3.635  13.976
22214SOL    HW268540  10.608   3.489  13.983
22215SOL     OW68541  12.811  11.969   8.098
22215SOL    HW168542  12.894  12.015   8.084
22215SOL    HW268543  12.824  11.883   8.059
22216SOL     OW68544  14.657   8.116  12.587
22216SOL    HW168545  14.685   8.207  12.580
22216SOL    HW268546  14.733   8.065  12.557
22217SOL     OW68547   4.804   3.108   8.771
22217SOL    HW168548   4.776   3.193   8.737
22217SOL    HW268549   4.722   3.063   8.794
22218SOL     OW68550   2.684  10.688   1.376
22218SOL    HW168551   2.765  10.674   1.327
22218SOL    HW268552   2.674  10.783   1.379
22219SOL     OW68553  13.668   8.244  11.930
22219SOL    HW168554  13.694   8.155  11.955
22219SOL    HW268555  13.745   8.280  11.887
22220SOL     OW68556  13.230   9.060   2.745
22220SOL    HW168557  13.234   8.964   2.749
22220SOL    HW268558  13.315   9.088   2.778
22221SOL     OW68559  13.331   3.492   8.133
22221SOL    HW168560  13.393   3.543   8.186
22221SOL    HW268561  13.339   3.403   8.166
22222SOL     OW68562  12.032   2.551  11.556
22222SOL    HW168563  12.035   2.487  11.485
22222SOL    HW268564  12.026   2.498  11.635
22223SOL     OW68565  13.921  14.543   4.262
22223SOL    HW168566  13.951  14.632   4.242
22223SOL    HW268567  13.835  14.537   4.219
22224SOL     OW68568   5.731   4.664   9.342
22224SOL    HW168569   5.817   4.705   9.333
22224SOL    HW268570   5.740   4.606   9.417
22225SOL     OW68571   4.797  14.090   1.531
22225SOL    HW168572   4.748  14.141   1.596
22225SOL    HW268573   4.878  14.066   1.575
22226SOL     OW68574  11.032   5.768   9.665
22226SOL    HW168575  11.035   5.679   9.630
22226SOL    HW268576  11.088   5.765   9.742
22227SOL     OW68577   7.333   2.944  12.950
22227SOL    HW168578   7.369   3.032  12.955
22227SOL    HW268579   7.344   2.908  13.039
22228SOL     OW68580   1.816  10.027   8.159
22228SOL    HW168581   1.895   9.976   8.138
22228SOL    HW268582   1.776   9.980   8.232
22229SOL     OW68583  10.491   7.646   7.754
22229SOL    HW168584  10.507   7.726   7.804
22229SOL    HW268585  10.469   7.580   7.821
22230SOL     OW68586  12.787   2.313   7.372
22230SOL    HW168587  12.694   2.319   7.354
22230SOL    HW268588  12.814   2.403   7.392
22231SOL     OW68589   0.940   2.643   3.603
22231SOL    HW168590   0.928   2.577   3.672
22231SOL    HW268591   0.936   2.593   3.522
22232SOL     OW68592  11.362   7.883   3.532
22232SOL    HW168593  11.412   7.963   3.550
22232SOL    HW268594  11.379   7.826   3.607
22233SOL     OW68595   4.155   8.775   1.553
22233SOL    HW168596   4.168   8.735   1.640
22233SOL    HW268597   4.128   8.702   1.498
22234SOL     OW68598   6.505  11.187   7.182
22234SOL    HW168599   6.524  11.105   7.229
22234SOL    HW268600   6.554  11.179   7.100
22235SOL     OW68601   3.306   2.921   5.239
22235SOL    HW168602   3.268   2.947   5.323
22235SOL    HW268603   3.394   2.891   5.262
22236SOL     OW68604  13.354   5.163   6.400
22236SOL    HW168605  13.294   5.238   6.400
22236SOL    HW268606  13.437   5.199   6.369
22237SOL     OW68607  10.199   3.635   4.355
22237SOL    HW168608  10.145   3.682   4.292
22237SOL    HW268609  10.283   3.681   4.354
22238SOL     OW68610   1.641   8.576  14.093
22238SOL    HW168611   1.616   8.494  14.051
22238SOL    HW268612   1.714   8.553  14.150
22239SOL     OW68613  12.140   4.776   9.452
22239SOL    HW168614  12.224   4.752   9.412
22239SOL    HW268615  12.129   4.713   9.524
22240SOL     OW68616   0.580   1.612   4.321
22240SOL    HW168617   0.601   1.704   4.306
22240SOL    HW268618   0.519   1.613   4.395
22241SOL     OW68619  11.541   5.705   2.500
22241SOL    HW168620  11.490   5.635   2.542
22241SOL    HW268621  11.505   5.786   2.537
22242SOL     OW68622   3.724   3.106   2.856
22242SOL    HW168623   3.695   3.053   2.782
22242SOL    HW268624   3.810   3.140   2.829
22243SOL     OW68625   5.898  12.475   4.807
22243SOL    HW168626   5.935  12.534   4.872
22243SOL    HW268627   5.946  12.393   4.818
22244SOL     OW68628  14.330   7.941   3.092
22244SOL    HW168629  14.306   7.928   3.184
22244SOL    HW268630  14.261   7.896   3.043
22245SOL     OW68631  11.171   8.718  11.110
22245SOL    HW168632  11.109   8.746  11.177
22245SOL    HW268633  11.256   8.744  11.144
22246SOL     OW68634   5.688  13.704  11.045
22246SOL    HW168635   5.701  13.689  11.138
22246SOL    HW268636   5.775  13.703  11.007
22247SOL     OW68637   2.593   4.899   9.311
22247SOL    HW168638   2.564   4.815   9.275
22247SOL    HW268639   2.634   4.945   9.238
22248SOL     OW68640   1.999   6.707   5.530
22248SOL    HW168641   2.026   6.750   5.611
22248SOL    HW268642   2.070   6.646   5.511
22249SOL     OW68643   5.977   8.096   5.011
22249SOL    HW168644   6.038   8.113   4.939
22249SOL    HW268645   5.993   8.005   5.036
22250SOL     OW68646  13.255  13.003  11.801
22250SOL    HW168647  13.314  13.072  11.770
22250SOL    HW268648  13.305  12.922  11.790
22251SOL     OW68649   3.749   1.649   2.828
22251SOL    HW168650   3.790   1.669   2.743
22251SOL    HW268651   3.696   1.726   2.847
22252SOL     OW68652  10.361  10.746   3.705
22252SOL    HW168653  10.398  10.721   3.620
22252SOL    HW268654  10.393  10.679   3.766
22253SOL     OW68655  14.422  10.956   5.882
22253SOL    HW168656  14.393  11.021   5.945
22253SOL    HW268657  14.387  10.873   5.916
22254SOL     OW68658   9.141   3.724  10.646
22254SOL    HW168659   9.051   3.733  10.678
22254SOL    HW268660   9.132   3.702  10.553
22255SOL     OW68661  12.202  11.092  11.941
22255SOL    HW168662  12.191  11.161  11.876
22255SOL    HW268663  12.254  11.133  12.011
22256SOL     OW68664  11.625  12.064   9.413
22256SOL    HW168665  11.564  12.067   9.339
22256SOL    HW268666  11.658  12.154   9.420
22257SOL     OW68667   4.478   3.684  14.117
22257SOL    HW168668   4.431   3.601  14.114
22257SOL    HW268669   4.517   3.687  14.204
22258SOL     OW68670  12.469   3.671  12.989
22258SOL    HW168671  12.412   3.746  13.003
22258SOL    HW268672  12.447   3.611  13.060
22259SOL     OW68673   2.178  10.787   5.432
22259SOL    HW168674   2.172  10.802   5.526
22259SOL    HW268675   2.137  10.864   5.392
22260SOL     OW68676  14.508  14.764  12.757
22260SOL    HW168677  14.521  14.854  12.787
22260SOL    HW268678  14.434  14.769  12.697
22261SOL     OW68679   2.416   3.039   9.111
22261SOL    HW168680   2.504   3.015   9.141
22261SOL    HW268681   2.428   3.064   9.020
22262SOL     OW68682   5.133   3.540   6.759
22262SOL    HW168683   5.219   3.580   6.769
22262SOL    HW268684   5.083   3.603   6.706
22263SOL     OW68685   2.975   3.186  10.839
22263SOL    HW168686   3.041   3.255  10.841
22263SOL    HW268687   2.925   3.197  10.920
22264SOL     OW68688   2.418   7.788   0.288
22264SOL    HW168689   2.385   7.871   0.254
22264SOL    HW268690   2.482   7.814   0.355
22265SOL     OW68691  10.725   9.337   4.396
22265SOL    HW168692  10.653   9.378   4.443
22265SOL    HW268693  10.727   9.247   4.428
22266SOL     OW68694  10.768   4.428   6.555
22266SOL    HW168695  10.687   4.415   6.605
22266SOL    HW268696  10.770   4.522   6.538
22267SOL     OW68697   1.252   4.924   4.418
22267SOL    HW168698   1.323   4.933   4.482
22267SOL    HW268699   1.280   4.853   4.361
22268SOL     OW68700   7.292   9.282   8.671
22268SOL    HW168701   7.353   9.210   8.685
22268SOL    HW268702   7.345   9.361   8.685
22269SOL     OW68703   4.792   7.917  12.035
22269SOL    HW168704   4.742   7.910  12.117
22269SOL    HW268705   4.792   8.010  12.015
22270SOL     OW68706   4.738  11.481   5.664
22270SOL    HW168707   4.803  11.441   5.723
22270SOL    HW268708   4.785  11.492   5.581
22271SOL     OW68709  10.766  12.849  12.309
22271SOL    HW168710  10.770  12.884  12.398
22271SOL    HW268711  10.838  12.786  12.305
22272SOL     OW68712  10.425  14.300   1.684
22272SOL    HW168713  10.373  14.219   1.680
22272SOL    HW268714  10.516  14.270   1.688
22273SOL     OW68715  13.143   5.870   7.134
22273SOL    HW168716  13.216   5.848   7.192
22273SOL    HW268717  13.108   5.785   7.107
22274SOL     OW68718  12.461  14.873   5.441
22274SOL    HW168719  12.557  14.874   5.440
22274SOL    HW268720  12.437   0.088   5.436
22275SOL     OW68721   5.204   4.188   7.697
22275SOL    HW168722   5.291   4.150   7.706
22275SOL    HW268723   5.220   4.274   7.657
22276SOL     OW68724   5.564  12.733  11.586
22276SOL    HW168725   5.622  12.808  11.601
22276SOL    HW268726   5.536  12.742  11.495
22277SOL     OW68727   3.613   7.209   2.688
22277SOL    HW168728   3.564   7.216   2.607
22277SOL    HW268729   3.548   7.190   2.755
22278SOL     OW68730   5.957  13.846   2.812
22278SOL    HW168731   5.952  13.761   2.768
22278SOL    HW268732   6.047  13.875   2.798
22279SOL     OW68733  11.842  13.728   0.195
22279SOL    HW168734  11.786  13.798   0.164
22279SOL    HW268735  11.922  13.772   0.225
22280SOL     OW68736  11.506   7.973  11.987
22280SOL    HW168737  11.532   8.064  12.002
22280SOL    HW268738  11.587   7.922  12.002
22281SOL     OW68739   3.498  10.343   6.080
22281SOL    HW168740   3.459  10.264   6.118
22281SOL    HW268741   3.574  10.361   6.136
22282SOL     OW68742   1.833  10.585   9.323
22282SOL    HW168743   1.779  10.545   9.391
22282SOL    HW268744   1.923  10.571   9.352
22283SOL     OW68745   1.551  12.541   4.757
22283SOL    HW168746   1.478  12.551   4.818
22283SOL    HW268747   1.591  12.628   4.752
22284SOL     OW68748   1.688  10.058   4.414
22284SOL    HW168749   1.779  10.071   4.387
22284SOL    HW268750   1.637  10.085   4.338
22285SOL     OW68751   6.400   2.043  13.525
22285SOL    HW168752   6.458   1.986  13.575
22285SOL    HW268753   6.418   2.131  13.557
22286SOL     OW68754   6.775  11.073   9.810
22286SOL    HW168755   6.789  10.998   9.753
22286SOL    HW268756   6.713  11.042   9.876
22287SOL     OW68757   5.957   1.354   7.837
22287SOL    HW168758   5.902   1.317   7.905
22287SOL    HW268759   6.045   1.319   7.856
22288SOL     OW68760   3.041   7.474  11.621
22288SOL    HW168761   3.136   7.481  11.610
22288SOL    HW268762   3.009   7.442  11.536
22289SOL     OW68763   5.594   0.596   6.511
22289SOL    HW168764   5.560   0.531   6.572
22289SOL    HW268765   5.667   0.637   6.557
22290SOL     OW68766   8.428  11.718   8.602
22290SOL    HW168767   8.347  11.755   8.635
22290SOL    HW268768   8.485  11.711   8.679
22291SOL     OW68769   2.260   8.338   7.619
22291SOL    HW168770   2.202   8.271   7.656
22291SOL    HW268771   2.205   8.417   7.616
22292SOL     OW68772  11.833  13.334   6.084
22292SOL    HW168773  11.908  13.276   6.073
22292SOL    HW268774  11.857  13.414   6.037
22293SOL     OW68775   1.025  14.432   2.208
22293SOL    HW168776   1.084  14.506   2.224
22293SOL    HW268777   0.952  14.469   2.158
22294SOL     OW68778   4.768  10.416  10.144
22294SOL    HW168779   4.796  10.327  10.124
22294SOL    HW268780   4.726  10.446  10.064
22295SOL     OW68781  10.372   2.792   3.921
22295SOL    HW168782  10.381   2.886   3.908
22295SOL    HW268783  10.371   2.780   4.016
22296SOL     OW68784  10.170   4.301  10.569
22296SOL    HW168785  10.217   4.245  10.507
22296SOL    HW268786  10.141   4.242  10.638
22297SOL     OW68787  13.743   5.591   0.664
22297SOL    HW168788  13.712   5.503   0.644
22297SOL    HW268789  13.669   5.648   0.643
22298SOL     OW68790  14.008  12.644  14.065
22298SOL    HW168791  13.993  12.551  14.082
22298SOL    HW268792  14.098  12.648  14.034
22299SOL     OW68793  12.932   7.500   6.786
22299SOL    HW168794  13.012   7.448   6.797
22299SOL    HW268795  12.861   7.439   6.807
22300SOL     OW68796  13.502   7.839   4.376
22300SOL    HW168797  13.451   7.840   4.457
22300SOL    HW268798  13.590   7.812   4.403
22301SOL     OW68799  10.745  13.884   1.330
22301SOL    HW168800  10.795  13.852   1.255
22301SOL    HW268801  10.655  13.894   1.297
22302SOL     OW68802  11.731   9.100  11.620
22302SOL    HW168803  11.701   9.191  11.624
22302SOL    HW268804  11.658   9.049  11.656
22303SOL     OW68805  14.830   9.168   5.213
22303SOL    HW168806  14.816   9.246   5.267
22303SOL    HW268807  14.874   9.201   5.134
22304SOL     OW68808  10.983  10.647   0.929
22304SOL    HW168809  10.945  10.702   0.997
22304SOL    HW268810  10.914  10.641   0.862
22305SOL     OW68811  11.238  10.878   2.481
22305SOL    HW168812  11.261  10.791   2.514
22305SOL    HW268813  11.280  10.883   2.395
22306SOL     OW68814   7.807   9.565  13.835
22306SOL    HW168815   7.754   9.592  13.911
22306SOL    HW268816   7.749   9.507  13.785
22307SOL     OW68817  12.231   9.287   9.135
22307SOL    HW168818  12.275   9.369   9.111
22307SOL    HW268819  12.243   9.230   9.059
22308SOL     OW68820   0.900   0.320   6.115
22308SOL    HW168821   0.887   0.277   6.199
22308SOL    HW268822   0.958   0.261   6.067
22309SOL     OW68823   4.030   7.768   0.611
22309SOL    HW168824   4.058   7.814   0.690
22309SOL    HW268825   3.935   7.761   0.619
22310SOL     OW68826   0.546   1.788  13.929
22310SOL    HW168827   0.514   1.702  13.957
22310SOL    HW268828   0.637   1.791  13.960
22311SOL     OW68829  13.165  14.181   5.966
22311SOL    HW168830  13.122  14.122   5.904
22311SOL    HW268831  13.201  14.251   5.913
22312SOL     OW68832   1.317  12.908   5.275
22312SOL    HW168833   1.401  12.875   5.244
22312SOL    HW268834   1.282  12.837   5.329
22313SOL     OW68835   2.965   6.681   4.076
22313SOL    HW168836   2.870   6.686   4.091
22313SOL    HW268837   2.981   6.744   4.006
22314SOL     OW68838   6.405   1.103  14.850
22314SOL    HW168839   6.343   1.163  14.808
22314SOL    HW268840   6.351   1.051   0.032
22315SOL     OW68841   1.649   2.882   9.851
22315SOL    HW168842   1.702   2.804   9.867
22315SOL    HW268843   1.576   2.852   9.797
22316SOL     OW68844   9.810  11.438  10.919
22316SOL    HW168845   9.834  11.472  11.005
22316SOL    HW268846   9.891  11.400  10.885
22317SOL     OW68847  13.514   0.774  14.094
22317SOL    HW168848  13.451   0.739  14.030
22317SOL    HW268849  13.475   0.752  14.179
22318SOL     OW68850  13.551  13.269   8.508
22318SOL    HW168851  13.633  13.221   8.505
22318SOL    HW268852  13.576  13.361   8.495
22319SOL     OW68853   8.805   5.425   9.220
22319SOL    HW168854   8.739   5.431   9.289
22319SOL    HW268855   8.887   5.447   9.264
22320SOL     OW68856   9.219  11.762   0.470
22320SOL    HW168857   9.250  11.763   0.560
22320SOL    HW268858   9.172  11.679   0.462
22321SOL     OW68859   5.958   7.730   0.367
22321SOL    HW168860   5.877   7.692   0.333
22321SOL    HW268861   5.940   7.750   0.458
22322SOL     OW68862   7.697   4.016  10.741
22322SOL    HW168863   7.752   4.018  10.819
22322SOL    HW268864   7.728   3.940  10.692
22323SOL     OW68865   9.494  12.829   3.928
22323SOL    HW168866   9.482  12.902   3.868
22323SOL    HW268867   9.469  12.864   4.013
22324SOL     OW68868   8.338   1.101   3.409
22324SOL    HW168869   8.281   1.176   3.389
22324SOL    HW268870   8.423   1.141   3.429
22325SOL     OW68871  10.447   3.081  11.403
22325SOL    HW168872  10.486   3.042  11.325
22325SOL    HW268873  10.436   3.008  11.464
22326SOL     OW68874   5.356   3.102  12.621
22326SOL    HW168875   5.385   3.095  12.711
22326SOL    HW268876   5.430   3.141  12.574
22327SOL     OW68877  14.754  10.788  13.538
22327SOL    HW168878  14.687  10.740  13.490
22327SOL    HW268879  14.724  10.879  13.536
22328SOL     OW68880   8.267  13.924   5.626
22328SOL    HW168881   8.351  13.909   5.582
22328SOL    HW268882   8.290  13.975   5.704
22329SOL     OW68883  11.246  11.541  12.336
22329SOL    HW168884  11.192  11.618  12.322
22329SOL    HW268885  11.326  11.575  12.377
22330SOL     OW68886   5.939   9.618   2.699
22330SOL    HW168887   5.933   9.708   2.734
22330SOL    HW268888   5.910   9.625   2.609
22331SOL     OW68889  10.334   6.782  12.901
22331SOL    HW168890  10.424   6.755  12.918
22331SOL    HW268891  10.304   6.819  12.985
22332SOL     OW68892  13.815  11.836  13.271
22332SOL    HW168893  13.744  11.776  13.294
22332SOL    HW268894  13.882  11.821  13.337
22333SOL     OW68895   4.344   5.655   9.632
22333SOL    HW168896   4.416   5.676   9.572
22333SOL    HW268897   4.329   5.561   9.618
22334SOL     OW68898   6.852   5.454   0.746
22334SOL    HW168899   6.830   5.486   0.834
22334SOL    HW268900   6.771   5.413   0.715
22335SOL     OW68901  14.378  11.081   5.123
22335SOL    HW168902  14.395  11.172   5.149
22335SOL    HW268903  14.464  11.040   5.122
22336SOL     OW68904   2.838   6.982  10.621
22336SOL    HW168905   2.791   7.025  10.692
22336SOL    HW268906   2.788   7.002  10.542
22337SOL     OW68907   5.193   1.724   7.208
22337SOL    HW168908   5.199   1.640   7.162
22337SOL    HW268909   5.274   1.730   7.259
22338SOL     OW68910   1.016  13.208  10.585
22338SOL    HW168911   0.950  13.220  10.654
22338SOL    HW268912   1.025  13.113  10.577
22339SOL     OW68913   2.624  11.646   1.747
22339SOL    HW168914   2.582  11.662   1.663
22339SOL    HW268915   2.714  11.623   1.725
22340SOL     OW68916  13.782   6.176   7.583
22340SOL    HW168917  13.788   6.131   7.667
22340SOL    HW268918  13.720   6.248   7.598
22341SOL     OW68919   1.763   8.936  14.280
22341SOL    HW168920   1.773   9.030  14.292
22341SOL    HW268921   1.835   8.898  14.330
22342SOL     OW68922   2.789  10.500   8.974
22342SOL    HW168923   2.769  10.494   9.068
22342SOL    HW268924   2.735  10.431   8.934
22343SOL     OW68925   2.941   0.168  12.194
22343SOL    HW168926   2.867   0.117  12.226
22343SOL    HW268927   3.005   0.103  12.165
22344SOL     OW68928   0.013   5.317   4.174
22344SOL    HW168929  14.847   5.400   4.190
22344SOL    HW268930  14.835   5.273   4.110
22345SOL     OW68931  14.178  14.733  10.693
22345SOL    HW168932  14.182  14.656  10.750
22345SOL    HW268933  14.197  14.807  10.751
22346SOL     OW68934   5.548  10.118   7.963
22346SOL    HW168935   5.513  10.067   8.037
22346SOL    HW268936   5.502  10.083   7.887
22347SOL     OW68937  11.398   5.172  10.085
22347SOL    HW168938  11.420   5.265  10.091
22347SOL    HW268939  11.444   5.141  10.006
22348SOL     OW68940   6.861   2.087   3.350
22348SOL    HW168941   6.861   2.150   3.278
22348SOL    HW268942   6.831   2.005   3.309
22349SOL     OW68943  14.388   1.682   0.714
22349SOL    HW168944  14.306   1.690   0.763
22349SOL    HW268945  14.376   1.739   0.638
22350SOL     OW68946   7.689   7.043   7.881
22350SOL    HW168947   7.690   6.970   7.943
22350SOL    HW268948   7.711   7.004   7.796
22351SOL     OW68949   6.812   9.366  11.184
22351SOL    HW168950   6.765   9.449  11.177
22351SOL    HW268951   6.766   9.319  11.254
22352SOL     OW68952   4.539   8.667   6.758
22352SOL    HW168953   4.494   8.751   6.760
22352SOL    HW268954   4.491   8.615   6.693
22353SOL     OW68955   3.275  13.738   5.797
22353SOL    HW168956   3.319  13.744   5.712
22353SOL    HW268957   3.346  13.744   5.861
22354SOL     OW68958   2.817   9.462   3.956
22354SOL    HW168959   2.849   9.509   3.879
22354SOL    HW268960   2.732   9.501   3.974
22355SOL     OW68961   9.117  13.269  10.420
22355SOL    HW168962   9.157  13.306  10.498
22355SOL    HW268963   9.050  13.332  10.395
22356SOL     OW68964   3.385   5.914  12.082
22356SOL    HW168965   3.380   5.847  12.150
22356SOL    HW268966   3.331   5.986  12.115
22357SOL     OW68967   1.631   8.053  11.653
22357SOL    HW168968   1.615   8.116  11.582
22357SOL    HW268969   1.726   8.049  11.660
22358SOL     OW68970   3.205   4.347   6.588
22358SOL    HW168971   3.291   4.333   6.550
22358SOL    HW268972   3.212   4.431   6.634
22359SOL     OW68973   0.334  11.053   4.095
22359SOL    HW168974   0.373  10.982   4.146
22359SOL    HW268975   0.392  11.063   4.020
22360SOL     OW68976   0.091  12.431   1.730
22360SOL    HW168977  14.877  12.417   1.705
22360SOL    HW268978   0.141  12.370   1.676
22361SOL     OW68979   2.636   2.983  11.639
22361SOL    HW168980   2.696   2.945  11.574
22361SOL    HW268981   2.611   2.910  11.695
22362SOL     OW68982   8.421  13.272   7.402
22362SOL    HW168983   8.448  13.195   7.452
22362SOL    HW268984   8.458  13.257   7.315
22363SOL     OW68985  13.190  14.818  12.852
22363SOL    HW168986  13.266  14.865  12.886
22363SOL    HW268987  13.117  14.877  12.867
22364SOL     OW68988   9.929   6.949   2.299
22364SOL    HW168989  10.022   6.969   2.309
22364SOL    HW268990   9.906   6.988   2.215
22365SOL     OW68991   5.486   8.480  11.520
22365SOL    HW168992   5.501   8.395  11.479
22365SOL    HW268993   5.499   8.543  11.448
22366SOL     OW68994  11.178   1.119  10.259
22366SOL    HW168995  11.139   1.165  10.334
22366SOL    HW268996  11.103   1.084  10.211
22367SOL     OW68997   5.118  12.955   5.240
22367SOL    HW168998   5.053  12.980   5.173
22367SOL    HW268999   5.198  12.938   5.190
22368SOL     OW69000   5.634   7.420   4.306
22368SOL    HW169001   5.571   7.452   4.241
22368SOL    HW269002   5.673   7.343   4.265
22369SOL     OW69003  14.527  10.895   0.158
22369SOL    HW169004  14.569  10.981   0.151
22369SOL    HW269005  14.588  10.844   0.212
22370SOL     OW69006   5.663   4.973   8.657
22370SOL    HW169007   5.648   4.960   8.564
22370SOL    HW269008   5.756   4.994   8.663
22371SOL     OW69009   9.366   0.474   0.660
22371SOL    HW169010   9.387   0.419   0.585
22371SOL    HW269011   9.415   0.555   0.644
22372SOL     OW69012   0.947  14.475   9.700
22372SOL    HW169013   0.856  14.483   9.673
22372SOL    HW269014   0.963  14.554   9.753
22373SOL     OW69015   1.294   8.684  13.168
22373SOL    HW169016   1.360   8.622  13.197
22373SOL    HW269017   1.256   8.644  13.089
22374SOL     OW69018   4.534   0.259   2.852
22374SOL    HW169019   4.547   0.354   2.865
22374SOL    HW269020   4.465   0.236   2.913
22375SOL     OW69021  11.504  14.011  13.996
22375SOL    HW169022  11.581  13.979  13.947
22375SOL    HW269023  11.541  14.069  14.063
22376SOL     OW69024  13.109  14.605   5.594
22376SOL    HW169025  13.084  14.522   5.553
22376SOL    HW269026  13.203  14.597   5.609
22377SOL     OW69027  10.277   8.440   4.192
22377SOL    HW169028  10.310   8.518   4.235
22377SOL    HW269029  10.305   8.449   4.100
22378SOL     OW69030  12.574  14.153   9.457
22378SOL    HW169031  12.601  14.109   9.538
22378SOL    HW269032  12.534  14.084   9.404
22379SOL     OW69033   6.212   9.712  11.395
22379SOL    HW169034   6.137   9.679  11.445
22379SOL    HW269035   6.188   9.697  11.303
22380SOL     OW69036   0.282  12.111  10.772
22380SOL    HW169037   0.377  12.099  10.773
22380SOL    HW269038   0.261  12.144  10.859
22381SOL     OW69039   0.781   6.380   8.190
22381SOL    HW169040   0.771   6.471   8.216
22381SOL    HW269041   0.861   6.378   8.138
22382SOL     OW69042  11.037   5.415   7.432
22382SOL    HW169043  10.981   5.340   7.410
22382SOL    HW269044  11.014   5.437   7.522
22383SOL     OW69045  12.002  12.326  14.150
22383SOL    HW169046  12.076  12.266  14.160
22383SOL    HW269047  11.925  12.271  14.155
22384SOL     OW69048   8.888  14.763  10.449
22384SOL    HW169049   8.930  14.678  10.465
22384SOL    HW269050   8.826  14.773  10.520
22385SOL     OW69051   3.571  12.597   7.706
22385SOL    HW169052   3.598  12.679   7.664
22385SOL    HW269053   3.564  12.620   7.799
22386SOL     OW69054  14.438   4.040   0.021
22386SOL    HW169055  14.400   4.093  14.829
22386SOL    HW269056  14.429   4.093   0.100
22387SOL     OW69057   1.201   6.367   2.115
22387SOL    HW169058   1.223   6.390   2.025
22387SOL    HW269059   1.160   6.281   2.109
22388SOL     OW69060  11.866  12.591  12.075
22388SOL    HW169061  11.847  12.671  12.027
22388SOL    HW269062  11.815  12.599  12.156
22389SOL     OW69063   8.834   9.900   2.780
22389SOL    HW169064   8.866   9.823   2.827
22389SOL    HW269065   8.740   9.902   2.800
22390SOL     OW69066   2.282   5.265   8.806
22390SOL    HW169067   2.250   5.335   8.750
22390SOL    HW269068   2.350   5.222   8.754
22391SOL     OW69069   1.597   3.475   6.537
22391SOL    HW169070   1.678   3.511   6.571
22391SOL    HW269071   1.561   3.544   6.481
22392SOL     OW69072   7.215   3.291   4.859
22392SOL    HW169073   7.224   3.221   4.794
22392SOL    HW269074   7.301   3.295   4.901
22393SOL     OW69075  13.003   1.794   0.349
22393SOL    HW169076  13.041   1.710   0.324
22393SOL    HW269077  13.024   1.804   0.442
22394SOL     OW69078   6.429   5.651  12.350
22394SOL    HW169079   6.400   5.576  12.403
22394SOL    HW269080   6.434   5.723  12.412
22395SOL     OW69081   3.399  13.009   8.963
22395SOL    HW169082   3.328  12.971   8.913
22395SOL    HW269083   3.407  12.954   9.041
22396SOL     OW69084   6.602  11.566  10.920
22396SOL    HW169085   6.544  11.492  10.939
22396SOL    HW269086   6.688  11.526  10.903
22397SOL     OW69087   9.748   5.956   8.395
22397SOL    HW169088   9.774   6.048   8.383
22397SOL    HW269089   9.671   5.961   8.452
22398SOL     OW69090   1.066   2.633   6.557
22398SOL    HW169091   1.110   2.616   6.640
22398SOL    HW269092   1.097   2.563   6.499
22399SOL     OW69093   2.798   2.600   6.361
22399SOL    HW169094   2.785   2.520   6.412
22399SOL    HW269095   2.711   2.639   6.355
22400SOL     OW69096   1.843   7.203   4.090
22400SOL    HW169097   1.913   7.267   4.094
22400SOL    HW269098   1.872   7.131   4.146
22401SOL     OW69099  12.836   8.539   7.744
22401SOL    HW169100  12.845   8.565   7.652
22401SOL    HW269101  12.830   8.622   7.791
22402SOL     OW69102  14.178   4.310   6.983
22402SOL    HW169103  14.174   4.396   7.025
22402SOL    HW269104  14.165   4.328   6.890
22403SOL     OW69105   1.509   4.469   5.513
22403SOL    HW169106   1.586   4.465   5.457
22403SOL    HW269107   1.484   4.561   5.514
22404SOL     OW69108  14.709   8.333   0.130
22404SOL    HW169109  14.750   8.314   0.046
22404SOL    HW269110  14.647   8.403   0.110
22405SOL     OW69111   4.025  10.593  14.825
22405SOL    HW169112   4.074  10.657   0.000
22405SOL    HW269113   3.972  10.647  14.767
22406SOL     OW69114   9.611  13.114   7.522
22406SOL    HW169115   9.667  13.183   7.556
22406SOL    HW269116   9.671  13.042   7.503
22407SOL     OW69117   8.937   1.284  13.960
22407SOL    HW169118   8.857   1.268  14.011
22407SOL    HW269119   8.926   1.231  13.881
22408SOL     OW69120   2.817  14.520   4.325
22408SOL    HW169121   2.815  14.435   4.282
22408SOL    HW269122   2.816  14.584   4.253
22409SOL     OW69123   2.123  13.619   9.082
22409SOL    HW169124   2.209  13.654   9.107
22409SOL    HW269125   2.076  13.611   9.165
22410SOL     OW69126   4.277   4.324  10.650
22410SOL    HW169127   4.302   4.355  10.563
22410SOL    HW269128   4.360   4.302  10.693
22411SOL     OW69129  13.291   0.783   5.425
22411SOL    HW169130  13.203   0.801   5.456
22411SOL    HW269131  13.290   0.810   5.333
22412SOL     OW69132   4.146   4.186   8.204
22412SOL    HW169133   4.169   4.146   8.120
22412SOL    HW269134   4.147   4.113   8.266
22413SOL     OW69135   6.511  13.806  12.859
22413SOL    HW169136   6.596  13.810  12.903
22413SOL    HW269137   6.497  13.713  12.842
22414SOL     OW69138  14.139   8.097   3.923
22414SOL    HW169139  14.100   8.019   3.963
22414SOL    HW269140  14.064   8.152   3.900
22415SOL     OW69141   4.581   4.459   4.162
22415SOL    HW169142   4.536   4.481   4.243
22415SOL    HW269143   4.583   4.540   4.112
22416SOL     OW69144  12.115  13.004   0.768
22416SOL    HW169145  12.044  13.065   0.788
22416SOL    HW269146  12.168  13.002   0.847
22417SOL     OW69147   0.927  12.988   0.994
22417SOL    HW169148   0.958  13.061   0.941
22417SOL    HW269149   0.989  12.982   1.067
22418SOL     OW69150   7.582   7.357  12.679
22418SOL    HW169151   7.524   7.375  12.753
22418SOL    HW269152   7.638   7.434  12.673
22419SOL     OW69153   1.409   4.000   6.186
22419SOL    HW169154   1.359   3.922   6.212
22419SOL    HW269155   1.483   4.002   6.247
22420SOL     OW69156  13.477   6.847   2.491
22420SOL    HW169157  13.560   6.809   2.464
22420SOL    HW269158  13.425   6.773   2.523
22421SOL     OW69159   1.514  11.031   7.671
22421SOL    HW169160   1.444  11.052   7.734
22421SOL    HW269161   1.585  11.092   7.694
22422SOL     OW69162   7.366   8.821   9.665
22422SOL    HW169163   7.341   8.731   9.684
22422SOL    HW269164   7.301   8.874   9.712
22423SOL     OW69165  14.411   2.937   1.574
22423SOL    HW169166  14.331   2.989   1.575
22423SOL    HW269167  14.476   2.993   1.531
22424SOL     OW69168  13.973   6.146   7.226
22424SOL    HW169169  14.011   6.231   7.203
22424SOL    HW269170  14.001   6.131   7.316
22425SOL     OW69171   2.128  13.393   6.736
22425SOL    HW169172   2.200  13.442   6.776
22425SOL    HW269173   2.171  13.334   6.674
22426SOL     OW69174   6.967   4.910  11.513
22426SOL    HW169175   6.899   4.885  11.575
22426SOL    HW269176   7.003   4.991  11.549
22427SOL     OW69177   7.798   2.885   8.691
22427SOL    HW169178   7.827   2.826   8.621
22427SOL    HW269179   7.872   2.944   8.704
22428SOL     OW69180   2.583  10.202   3.943
22428SOL    HW169181   2.645  10.160   3.883
22428SOL    HW269182   2.605  10.166   4.029
22429SOL     OW69183   6.688  12.667   0.576
22429SOL    HW169184   6.595  12.677   0.599
22429SOL    HW269185   6.728  12.749   0.604
22430SOL     OW69186   4.407  10.697  14.361
22430SOL    HW169187   4.441  10.639  14.293
22430SOL    HW269188   4.329  10.736  14.321
22431SOL     OW69189   5.657   9.713   1.421
22431SOL    HW169190   5.613   9.751   1.345
22431SOL    HW269191   5.747   9.701   1.393
22432SOL     OW69192   3.459   1.290   0.003
22432SOL    HW169193   3.516   1.231  14.831
22432SOL    HW269194   3.377   1.241   0.013
22433SOL     OW69195   0.428   0.165  12.966
22433SOL    HW169196   0.405   0.108  12.893
22433SOL    HW269197   0.502   0.216  12.936
22434SOL     OW69198  11.417  11.042  12.888
22434SOL    HW169199  11.379  11.000  12.965
22434SOL    HW269200  11.487  10.983  12.861
22435SOL     OW69201   3.850  11.968  11.393
22435SOL    HW169202   3.793  11.946  11.466
22435SOL    HW269203   3.922  11.906  11.399
22436SOL     OW69204   1.651   0.749   1.109
22436SOL    HW169205   1.559   0.738   1.085
22436SOL    HW269206   1.677   0.831   1.068
22437SOL     OW69207  13.452   2.442   8.642
22437SOL    HW169208  13.394   2.510   8.608
22437SOL    HW269209  13.537   2.485   8.651
22438SOL     OW69210  11.035   8.257   3.718
22438SOL    HW169211  11.103   8.249   3.651
22438SOL    HW269212  11.082   8.253   3.801
22439SOL     OW69213   0.166  10.711   9.618
22439SOL    HW169214   0.082  10.756   9.610
22439SOL    HW269215   0.202  10.711   9.529
22440SOL     OW69216  11.989   3.705   8.175
22440SOL    HW169217  11.938   3.769   8.125
22440SOL    HW269218  11.950   3.621   8.152
22441SOL     OW69219   7.947   1.284   2.497
22441SOL    HW169220   7.988   1.337   2.428
22441SOL    HW269221   7.856   1.274   2.469
22442SOL     OW69222   2.151   8.998   4.627
22442SOL    HW169223   2.191   8.911   4.630
22442SOL    HW269224   2.122   9.013   4.717
22443SOL     OW69225  13.635   1.016   8.601
22443SOL    HW169226  13.691   0.986   8.672
22443SOL    HW269227  13.546   1.000   8.633
22444SOL     OW69228  10.349   9.494   6.837
22444SOL    HW169229  10.263   9.458   6.818
22444SOL    HW269230  10.342   9.588   6.816
22445SOL     OW69231  13.717   4.299   9.117
22445SOL    HW169232  13.705   4.381   9.069
22445SOL    HW269233  13.679   4.315   9.203
22446SOL     OW69234   8.045  13.655   6.093
22446SOL    HW169235   8.000  13.674   6.175
22446SOL    HW269236   8.031  13.732   6.039
22447SOL     OW69237   6.185   9.780   5.240
22447SOL    HW169238   6.149   9.822   5.318
22447SOL    HW269239   6.131   9.702   5.228
22448SOL     OW69240  14.714   8.946   7.957
22448SOL    HW169241  14.751   8.916   8.041
22448SOL    HW269242  14.787   8.991   7.914
22449SOL     OW69243   9.641  14.782  12.099
22449SOL    HW169244   9.723  14.801  12.052
22449SOL    HW269245   9.574  14.829  12.051
22450SOL     OW69246   8.416   4.397  13.324
22450SOL    HW169247   8.341   4.351  13.361
22450SOL    HW269248   8.468   4.423  13.400
22451SOL     OW69249   7.576   5.526   0.872
22451SOL    HW169250   7.632   5.507   0.796
22451SOL    HW269251   7.617   5.603   0.912
22452SOL     OW69252   4.398  13.020  12.379
22452SOL    HW169253   4.339  13.096  12.383
22452SOL    HW269254   4.420  13.011  12.287
22453SOL     OW69255   7.421   6.376   6.959
22453SOL    HW169256   7.341   6.371   6.906
22453SOL    HW269257   7.492   6.364   6.896
22454SOL     OW69258   9.587   5.119   3.799
22454SOL    HW169259   9.569   5.194   3.742
22454SOL    HW269260   9.541   5.138   3.880
22455SOL     OW69261  12.415   8.991   2.230
22455SOL    HW169262  12.403   8.953   2.317
22455SOL    HW269263  12.380   9.080   2.237
22456SOL     OW69264   5.727   1.984   8.974
22456SOL    HW169265   5.739   1.906   9.028
22456SOL    HW269266   5.689   1.951   8.892
22457SOL     OW69267   5.928   1.167   9.515
22457SOL    HW169268   5.895   1.083   9.547
22457SOL    HW269269   5.988   1.197   9.583
22458SOL     OW69270   3.232   9.458   1.707
22458SOL    HW169271   3.206   9.392   1.771
22458SOL    HW269272   3.307   9.420   1.661
22459SOL     OW69273   6.724  11.776   0.295
22459SOL    HW169274   6.702  11.712   0.362
22459SOL    HW269275   6.819  11.787   0.303
22460SOL     OW69276   7.207   1.830  10.552
22460SOL    HW169277   7.273   1.842  10.619
22460SOL    HW269278   7.226   1.744  10.515
22461SOL     OW69279   4.645  12.534  11.898
22461SOL    HW169280   4.706  12.569  11.963
22461SOL    HW269281   4.696  12.527  11.818
22462SOL     OW69282  11.540   7.757   5.256
22462SOL    HW169283  11.544   7.771   5.161
22462SOL    HW269284  11.631   7.754   5.284
22463SOL     OW69285  12.204   0.364   8.401
22463SOL    HW169286  12.205   0.403   8.489
22463SOL    HW269287  12.119   0.391   8.365
22464SOL     OW69288   4.256  10.833   5.081
22464SOL    HW169289   4.320  10.836   5.151
22464SOL    HW269290   4.177  10.797   5.121
22465SOL     OW69291   3.494   5.213   7.702
22465SOL    HW169292   3.517   5.205   7.795
22465SOL    HW269293   3.549   5.286   7.671
22466SOL     OW69294   0.197   4.673   7.002
22466SOL    HW169295   0.119   4.727   7.011
22466SOL    HW269296   0.255   4.702   7.072
22467SOL     OW69297   0.056  13.294  11.407
22467SOL    HW169298   0.147  13.287  11.381
22467SOL    HW269299   0.040  13.216  11.460
22468SOL     OW69300   3.194   6.628  14.366
22468SOL    HW169301   3.214   6.535  14.352
22468SOL    HW269302   3.156   6.631  14.454
22469SOL     OW69303  12.568   7.977  11.670
22469SOL    HW169304  12.567   7.965  11.765
22469SOL    HW269305  12.660   7.967  11.645
22470SOL     OW69306   2.611   4.857  12.695
22470SOL    HW169307   2.524   4.849  12.656
22470SOL    HW269308   2.596   4.866  12.789
22471SOL     OW69309   6.703  13.832   6.751
22471SOL    HW169310   6.692  13.817   6.657
22471SOL    HW269311   6.723  13.746   6.787
22472SOL     OW69312  11.233  13.340  12.238
22472SOL    HW169313  11.157  13.370  12.288
22472SOL    HW269314  11.228  13.245  12.242
22473SOL     OW69315   1.021  11.071   2.243
22473SOL    HW169316   1.087  11.002   2.241
22473SOL    HW269317   0.937  11.024   2.241
22474SOL     OW69318   4.656  13.844  14.170
22474SOL    HW169319   4.747  13.860  14.145
22474SOL    HW269320   4.609  13.921  14.138
22475SOL     OW69321   0.208  12.250   8.436
22475SOL    HW169322   0.190  12.156   8.429
22475SOL    HW269323   0.180  12.286   8.353
22476SOL     OW69324   1.205   8.694   6.097
22476SOL    HW169325   1.196   8.782   6.135
22476SOL    HW269326   1.266   8.705   6.025
22477SOL     OW69327   8.160   2.133  13.215
22477SOL    HW169328   8.165   2.078  13.137
22477SOL    HW269329   8.173   2.222  13.183
22478SOL     OW69330   9.892   6.975  12.429
22478SOL    HW169331   9.869   7.066  12.444
22478SOL    HW269332   9.822   6.925  12.471
22479SOL     OW69333  14.392   5.082  12.769
22479SOL    HW169334  14.361   5.033  12.693
22479SOL    HW269335  14.324   5.146  12.786
22480SOL     OW69336   0.822  11.220   8.401
22480SOL    HW169337   0.782  11.200   8.316
22480SOL    HW269338   0.835  11.314   8.400
22481SOL     OW69339  10.940   3.643   7.973
22481SOL    HW169340  10.888   3.675   7.900
22481SOL    HW269341  10.922   3.549   7.976
22482SOL     OW69342   9.970  12.445  12.888
22482SOL    HW169343   9.909  12.444  12.815
22482SOL    HW269344  10.054  12.471  12.850
22483SOL     OW69345   1.189   9.915   3.225
22483SOL    HW169346   1.198  10.009   3.242
22483SOL    HW269347   1.279   9.884   3.213
22484SOL     OW69348   8.672   7.697   0.155
22484SOL    HW169349   8.690   7.618   0.104
22484SOL    HW269350   8.640   7.761   0.091
22485SOL     OW69351   4.608   7.788   6.173
22485SOL    HW169352   4.693   7.803   6.215
22485SOL    HW269353   4.563   7.872   6.178
22486SOL     OW69354   7.294   1.234   5.257
22486SOL    HW169355   7.200   1.241   5.271
22486SOL    HW269356   7.311   1.285   5.178
22487SOL     OW69357  13.880   0.438   5.136
22487SOL    HW169358  13.806   0.384   5.164
22487SOL    HW269359  13.899   0.493   5.212
22488SOL     OW69360   1.559   6.943   1.771
22488SOL    HW169361   1.497   6.890   1.721
22488SOL    HW269362   1.513   6.962   1.853
22489SOL     OW69363  10.347   6.809   2.780
22489SOL    HW169364  10.371   6.772   2.865
22489SOL    HW269365  10.423   6.792   2.724
22490SOL     OW69366  13.868   1.914   1.865
22490SOL    HW169367  13.895   1.885   1.952
22490SOL    HW269368  13.875   1.836   1.810
22491SOL     OW69369   7.928  13.713   3.455
22491SOL    HW169370   7.887  13.728   3.370
22491SOL    HW269371   7.856  13.721   3.518
22492SOL     OW69372   5.045   8.978   0.935
22492SOL    HW169373   5.096   8.916   0.987
22492SOL    HW269374   5.050   8.945   0.846
22493SOL     OW69375  13.626  12.037  12.480
22493SOL    HW169376  13.627  12.118  12.530
22493SOL    HW269377  13.651  11.969  12.543
22494SOL     OW69378   2.794   9.473   9.820
22494SOL    HW169379   2.778   9.379   9.814
22494SOL    HW269380   2.841   9.484   9.903
22495SOL     OW69381   9.323  11.701   7.764
22495SOL    HW169382   9.297  11.616   7.730
22495SOL    HW269383   9.269  11.713   7.842
22496SOL     OW69384  13.197   2.809  12.375
22496SOL    HW169385  13.219   2.902  12.371
22496SOL    HW269386  13.164   2.796  12.464
22497SOL     OW69387   2.178   7.925  11.898
22497SOL    HW169388   2.125   7.845  11.892
22497SOL    HW269389   2.118   7.995  11.872
22498SOL     OW69390  11.190   7.299   9.905
22498SOL    HW169391  11.247   7.376   9.895
22498SOL    HW269392  11.229   7.232   9.850
22499SOL     OW69393   2.996   8.412   2.515
22499SOL    HW169394   2.909   8.416   2.554
22499SOL    HW269395   3.054   8.388   2.587
22500SOL     OW69396   5.664  14.089   8.910
22500SOL    HW169397   5.703  14.175   8.896
22500SOL    HW269398   5.738  14.031   8.926
22501SOL     OW69399   3.723   2.693  11.372
22501SOL    HW169400   3.670   2.719  11.297
22501SOL    HW269401   3.708   2.599  11.381
22502SOL     OW69402   3.939   3.769  13.157
22502SOL    HW169403   3.877   3.766  13.230
22502SOL    HW269404   4.016   3.721  13.189
22503SOL     OW69405  14.703   6.008   7.150
22503SOL    HW169406  14.626   5.964   7.116
22503SOL    HW269407  14.766   6.007   7.078
22504SOL     OW69408  10.771  13.957   6.848
22504SOL    HW169409  10.858  13.921   6.868
22504SOL    HW269410  10.720  13.942   6.927
22505SOL     OW69411   8.952   4.332   6.570
22505SOL    HW169412   9.027   4.349   6.513
22505SOL    HW269413   8.989   4.284   6.644
22506SOL     OW69414  14.510   6.844   5.034
22506SOL    HW169415  14.442   6.911   5.026
22506SOL    HW269416  14.592   6.894   5.035
22507SOL     OW69417  13.929  11.259  12.968
22507SOL    HW169418  13.868  11.226  12.901
22507SOL    HW269419  14.015  11.237  12.934
22508SOL     OW69420  11.271   9.691  13.330
22508SOL    HW169421  11.180   9.698  13.300
22508SOL    HW269422  11.270   9.730  13.417
22509SOL     OW69423  13.524   8.854  12.112
22509SOL    HW169424  13.471   8.780  12.144
22509SOL    HW269425  13.601   8.855  12.168
22510SOL     OW69426   0.646  12.886   8.441
22510SOL    HW169427   0.551  12.879   8.446
22510SOL    HW269428   0.670  12.940   8.516
22511SOL     OW69429   9.296   6.424   7.232
22511SOL    HW169430   9.383   6.427   7.192
22511SOL    HW269431   9.276   6.515   7.254
22512SOL     OW69432   0.028  12.921   7.107
22512SOL    HW169433  14.875  13.006   7.077
22512SOL    HW269434  14.837  12.859   7.081
22513SOL     OW69435   5.082   5.552  11.840
22513SOL    HW169436   5.082   5.639  11.880
22513SOL    HW269437   5.158   5.553  11.780
22514SOL     OW69438   3.131   8.655   7.807
22514SOL    HW169439   3.153   8.736   7.761
22514SOL    HW269440   3.185   8.588   7.764
22515SOL     OW69441   6.359   9.742   1.853
22515SOL    HW169442   6.345   9.664   1.907
22515SOL    HW269443   6.339   9.713   1.764
22516SOL     OW69444   3.656  13.921   4.626
22516SOL    HW169445   3.736  13.942   4.674
22516SOL    HW269446   3.624  14.005   4.594
22517SOL     OW69447   9.427   2.698   4.304
22517SOL    HW169448   9.340   2.735   4.291
22517SOL    HW269449   9.428   2.669   4.396
22518SOL     OW69450   6.942   1.591   7.367
22518SOL    HW169451   6.925   1.548   7.451
22518SOL    HW269452   6.878   1.662   7.362
22519SOL     OW69453   4.661   9.998   0.643
22519SOL    HW169454   4.596   9.994   0.572
22519SOL    HW269455   4.719   9.923   0.627
22520SOL     OW69456  10.282   6.574   3.234
22520SOL    HW169457  10.374   6.571   3.260
22520SOL    HW269458  10.284   6.564   3.138
22521SOL     OW69459   9.156   2.648  14.489
22521SOL    HW169460   9.246   2.637  14.456
22521SOL    HW269461   9.109   2.690  14.417
22522SOL     OW69462   6.785  13.425   3.990
22522SOL    HW169463   6.833  13.342   3.993
22522SOL    HW269464   6.817  13.474   4.065
22523SOL     OW69465   2.517   6.746  14.547
22523SOL    HW169466   2.599   6.699  14.557
22523SOL    HW269467   2.459   6.710  14.614
22524SOL     OW69468  12.448  11.602   2.106
22524SOL    HW169469  12.477  11.611   2.197
22524SOL    HW269470  12.456  11.690   2.069
22525SOL     OW69471  13.146   4.250  13.102
22525SOL    HW169472  13.083   4.258  13.031
22525SOL    HW269473  13.130   4.327  13.157
22526SOL     OW69474   2.818   7.826   3.412
22526SOL    HW169475   2.791   7.737   3.431
22526SOL    HW269476   2.737   7.878   3.416
22527SOL     OW69477   5.794   1.476   6.795
22527SOL    HW169478   5.773   1.401   6.850
22527SOL    HW269479   5.776   1.552   6.850
22528SOL     OW69480   2.363  11.883   5.466
22528SOL    HW169481   2.453  11.907   5.442
22528SOL    HW269482   2.362  11.787   5.461
22529SOL     OW69483   9.263  12.121   3.966
22529SOL    HW169484   9.229  12.032   3.973
22529SOL    HW269485   9.298  12.141   4.053
22530SOL     OW69486   9.823  11.537   9.602
22530SOL    HW169487   9.901  11.567   9.648
22530SOL    HW269488   9.854  11.466   9.546
22531SOL     OW69489   1.747   0.476   2.546
22531SOL    HW169490   1.838   0.479   2.577
22531SOL    HW269491   1.755   0.453   2.453
22532SOL     OW69492   1.217  13.736  14.013
22532SOL    HW169493   1.168  13.816  13.994
22532SOL    HW269494   1.203  13.681  13.935
22533SOL     OW69495  11.019   0.440  14.606
22533SOL    HW169496  10.972   0.388  14.540
22533SOL    HW269497  10.978   0.415  14.689
22534SOL     OW69498   2.036   3.256   6.821
22534SOL    HW169499   1.976   3.201   6.872
22534SOL    HW269500   2.071   3.318   6.884
22535SOL     OW69501   0.719   8.632   5.215
22535SOL    HW169502   0.722   8.556   5.273
22535SOL    HW269503   0.635   8.623   5.169
22536SOL     OW69504   5.165  13.431   3.148
22536SOL    HW169505   5.100  13.361   3.141
22536SOL    HW269506   5.208  13.415   3.231
22537SOL     OW69507   4.572   3.301  13.995
22537SOL    HW169508   4.529   3.270  13.915
22537SOL    HW269509   4.500   3.317  14.056
22538SOL     OW69510  10.876  13.887   6.456
22538SOL    HW169511  10.815  13.813   6.467
22538SOL    HW269512  10.819  13.962   6.440
22539SOL     OW69513   1.168  13.090  12.085
22539SOL    HW169514   1.225  13.025  12.043
22539SOL    HW269515   1.083  13.078  12.042
22540SOL     OW69516  13.310   1.017  11.968
22540SOL    HW169517  13.227   1.065  11.962
22540SOL    HW269518  13.302   0.967  12.050
22541SOL     OW69519   9.144  11.880   7.906
22541SOL    HW169520   9.072  11.917   7.855
22541SOL    HW269521   9.142  11.929   7.988
22542SOL     OW69522   8.787  11.324   7.600
22542SOL    HW169523   8.772  11.244   7.650
22542SOL    HW269524   8.831  11.294   7.520
22543SOL     OW69525   0.905   6.925  12.689
22543SOL    HW169526   0.872   7.015  12.682
22543SOL    HW269527   0.908   6.908  12.783
22544SOL     OW69528   1.818   6.896  14.450
22544SOL    HW169529   1.800   6.899  14.356
22544SOL    HW269530   1.786   6.810  14.477
22545SOL     OW69531   0.518  10.932  14.675
22545SOL    HW169532   0.462  11.007  14.695
22545SOL    HW269533   0.486  10.863  14.732
22546SOL     OW69534  11.701   0.379   3.530
22546SOL    HW169535  11.753   0.371   3.450
22546SOL    HW269536  11.636   0.309   3.522
22547SOL     OW69537   8.262   4.232  11.864
22547SOL    HW169538   8.184   4.282  11.841
22547SOL    HW269539   8.332   4.297  11.871
22548SOL     OW69540   6.174   3.103   6.488
22548SOL    HW169541   6.230   3.097   6.565
22548SOL    HW269542   6.103   3.041   6.505
22549SOL     OW69543  11.992  11.255   3.575
22549SOL    HW169544  11.927  11.261   3.505
22549SOL    HW269545  11.953  11.303   3.648
22550SOL     OW69546   3.203   3.514   7.468
22550SOL    HW169547   3.115   3.544   7.489
22550SOL    HW269548   3.193   3.467   7.385
22551SOL     OW69549   9.823   2.757   5.558
22551SOL    HW169550   9.896   2.807   5.523
22551SOL    HW269551   9.843   2.666   5.537
22552SOL     OW69552   9.398   5.071   2.662
22552SOL    HW169553   9.456   5.011   2.710
22552SOL    HW269554   9.424   5.061   2.570
22553SOL     OW69555   0.789  10.938  13.208
22553SOL    HW169556   0.817  10.889  13.132
22553SOL    HW269557   0.710  10.892  13.239
22554SOL     OW69558   0.724  14.504  14.792
22554SOL    HW169559   0.718  14.430  14.852
22554SOL    HW269560   0.698  14.580  14.845
22555SOL     OW69561  13.489   2.429  14.583
22555SOL    HW169562  13.437   2.482  14.522
22555SOL    HW269563  13.427   2.400  14.649
22556SOL     OW69564   4.328   4.840  12.205
22556SOL    HW169565   4.405   4.884  12.242
22556SOL    HW269566   4.334   4.856  12.111
22557SOL     OW69567  14.578   5.292   9.110
22557SOL    HW169568  14.528   5.211   9.111
22557SOL    HW269569  14.541   5.345   9.181
22558SOL     OW69570   6.048   8.881   8.667
22558SOL    HW169571   5.968   8.837   8.695
22558SOL    HW269572   6.020   8.969   8.642
22559SOL     OW69573  13.829   3.258   3.776
22559SOL    HW169574  13.850   3.183   3.831
22559SOL    HW269575  13.823   3.332   3.836
22560SOL     OW69576   1.206   7.438   3.508
22560SOL    HW169577   1.117   7.416   3.535
22560SOL    HW269578   1.259   7.365   3.540
22561SOL     OW69579  11.366  13.474  10.517
22561SOL    HW169580  11.284  13.480  10.467
22561SOL    HW269581  11.377  13.562  10.554
22562SOL     OW69582   5.971   3.053   1.005
22562SOL    HW169583   5.948   3.053   1.098
22562SOL    HW269584   6.056   3.097   1.001
22563SOL     OW69585  14.191   5.620   2.784
22563SOL    HW169586  14.152   5.562   2.849
22563SOL    HW269587  14.202   5.703   2.831
22564SOL     OW69588   5.399   6.996   9.123
22564SOL    HW169589   5.326   6.970   9.179
22564SOL    HW269590   5.379   7.087   9.099
22565SOL     OW69591   1.454   1.609  11.385
22565SOL    HW169592   1.485   1.521  11.365
22565SOL    HW269593   1.380   1.597  11.444
22566SOL     OW69594   7.134  13.533  11.901
22566SOL    HW169595   7.105  13.542  11.992
22566SOL    HW269596   7.131  13.439  11.884
22567SOL     OW69597   6.531  12.644   3.040
22567SOL    HW169598   6.459  12.689   3.084
22567SOL    HW269599   6.490  12.598   2.967
22568SOL     OW69600   4.389  14.615   4.964
22568SOL    HW169601   4.320  14.609   4.898
22568SOL    HW269602   4.453  14.676   4.927
22569SOL     OW69603   2.782   2.286   8.148
22569SOL    HW169604   2.873   2.305   8.124
22569SOL    HW269605   2.786   2.267   8.242
22570SOL     OW69606  13.206  12.157   4.766
22570SOL    HW169607  13.161  12.073   4.769
22570SOL    HW269608  13.213  12.185   4.857
22571SOL     OW69609   0.307   0.100   6.331
22571SOL    HW169610   0.265   0.145   6.404
22571SOL    HW269611   0.326   0.012   6.365
22572SOL     OW69612   8.588   4.753   0.390
22572SOL    HW169613   8.568   4.820   0.326
22572SOL    HW269614   8.576   4.670   0.343
22573SOL     OW69615  14.502   9.773   1.992
22573SOL    HW169616  14.520   9.689   1.949
22573SOL    HW269617  14.410   9.765   2.020
22574SOL     OW69618   1.794   6.759   9.641
22574SOL    HW169619   1.860   6.789   9.704
22574SOL    HW269620   1.844   6.710   9.575
22575SOL     OW69621  10.644   3.702   9.697
22575SOL    HW169622  10.606   3.788   9.715
22575SOL    HW269623  10.736   3.712   9.720
22576SOL     OW69624  10.468   8.079  12.944
22576SOL    HW169625  10.432   8.000  12.903
22576SOL    HW269626  10.528   8.047  13.011
22577SOL     OW69627  12.199  11.541  12.410
22577SOL    HW169628  12.175  11.595  12.335
22577SOL    HW269629  12.279  11.581  12.444
22578SOL     OW69630  10.673  13.169   5.874
22578SOL    HW169631  10.581  13.179   5.851
22578SOL    HW269632  10.672  13.127   5.960
22579SOL     OW69633  10.526  12.072  11.858
22579SOL    HW169634  10.549  12.161  11.885
22579SOL    HW269635  10.437  12.059  11.891
22580SOL     OW69636   8.586  12.092  14.861
22580SOL    HW169637   8.613  12.084   0.075
22580SOL    HW269638   8.492  12.072  14.862
22581SOL     OW69639   1.710   8.292  13.667
22581SOL    HW169640   1.651   8.218  13.652
22581SOL    HW269641   1.790   8.269  13.620
22582SOL     OW69642  13.623   1.690   1.650
22582SOL    HW169643  13.575   1.720   1.573
22582SOL    HW269644  13.701   1.647   1.615
22583SOL     OW69645  10.305   2.877   1.105
22583SOL    HW169646  10.375   2.920   1.154
22583SOL    HW269647  10.249   2.949   1.075
22584SOL     OW69648   4.796   8.391   0.954
22584SOL    HW169649   4.814   8.477   0.992
22584SOL    HW269650   4.867   8.335   0.986
22585SOL     OW69651  14.741   3.654   4.034
22585SOL    HW169652  14.795   3.580   4.060
22585SOL    HW269653  14.759   3.721   4.100
22586SOL     OW69654   7.695   7.275   7.754
22586SOL    HW169655   7.699   7.209   7.824
22586SOL    HW269656   7.660   7.227   7.679
22587SOL     OW69657   3.889  13.354   0.683
22587SOL    HW169658   3.819  13.324   0.741
22587SOL    HW269659   3.849  13.425   0.633
22588SOL     OW69660  11.496  10.396  10.470
22588SOL    HW169661  11.523  10.325  10.528
22588SOL    HW269662  11.516  10.364  10.382
22589SOL     OW69663  14.708   6.050   2.799
22589SOL    HW169664  14.794   6.081   2.828
22589SOL    HW269665  14.655   6.130   2.795
22590SOL     OW69666   5.380   9.481   9.626
22590SOL    HW169667   5.461   9.478   9.576
22590SOL    HW269668   5.362   9.574   9.637
22591SOL     OW69669  10.703   4.090  12.453
22591SOL    HW169670  10.788   4.102  12.410
22591SOL    HW269671  10.723   4.089  12.547
22592SOL     OW69672   7.509  10.455   0.843
22592SOL    HW169673   7.473  10.457   0.932
22592SOL    HW269674   7.465  10.382   0.800
22593SOL     OW69675   6.953   1.332   8.697
22593SOL    HW169676   6.934   1.357   8.787
22593SOL    HW269677   7.012   1.257   8.705
22594SOL     OW69678   6.911   2.080  11.399
22594SOL    HW169679   6.982   2.052  11.458
22594SOL    HW269680   6.956   2.133  11.333
22595SOL     OW69681  13.771  10.892  13.939
22595SOL    HW169682  13.748  10.910  14.030
22595SOL    HW269683  13.695  10.920  13.888
22596SOL     OW69684   6.503   6.019   2.720
22596SOL    HW169685   6.516   6.071   2.799
22596SOL    HW269686   6.590   6.014   2.680
22597SOL     OW69687   2.478  12.103   2.570
22597SOL    HW169688   2.498  12.194   2.547
22597SOL    HW269689   2.539  12.083   2.641
22598SOL     OW69690   5.490   0.665   1.415
22598SOL    HW169691   5.474   0.760   1.411
22598SOL    HW269692   5.405   0.625   1.397
22599SOL     OW69693   9.566   3.765  10.797
22599SOL    HW169694   9.636   3.791  10.858
22599SOL    HW269695   9.578   3.671  10.785
22600SOL     OW69696   8.980   0.909  11.101
22600SOL    HW169697   8.979   0.823  11.142
22600SOL    HW269698   9.046   0.959  11.149
22601SOL     OW69699   2.339   0.599   0.993
22601SOL    HW169700   2.284   0.677   0.983
22601SOL    HW269701   2.428   0.632   0.987
22602SOL     OW69702   6.022   9.880   2.710
22602SOL    HW169703   6.068   9.911   2.632
22602SOL    HW269704   6.090   9.874   2.777
22603SOL     OW69705   5.757   4.393  13.666
22603SOL    HW169706   5.809   4.430  13.594
22603SOL    HW269707   5.678   4.447  13.670
22604SOL     OW69708   7.709  12.364   6.446
22604SOL    HW169709   7.652  12.440   6.437
22604SOL    HW269710   7.702  12.319   6.362
22605SOL     OW69711   2.876   9.290  12.565
22605SOL    HW169712   2.835   9.205  12.547
22605SOL    HW269713   2.803   9.352  12.570
22606SOL     OW69714  11.297   1.886   2.397
22606SOL    HW169715  11.259   1.842   2.321
22606SOL    HW269716  11.279   1.979   2.383
22607SOL     OW69717   0.971   2.488   8.782
22607SOL    HW169718   0.983   2.580   8.804
22607SOL    HW269719   0.884   2.466   8.817
22608SOL     OW69720   1.833   2.529  11.437
22608SOL    HW169721   1.807   2.520  11.529
22608SOL    HW269722   1.751   2.552  11.392
22609SOL     OW69723   9.813   2.716   3.911
22609SOL    HW169724   9.872   2.790   3.896
22609SOL    HW269725   9.729   2.756   3.931
22610SOL     OW69726   2.439  10.451   9.378
22610SOL    HW169727   2.424  10.367   9.335
22610SOL    HW269728   2.421  10.434   9.471
22611SOL     OW69729   3.894   3.366   7.029
22611SOL    HW169730   3.845   3.448   7.037
22611SOL    HW269731   3.916   3.342   7.118
22612SOL     OW69732  11.350   3.127   3.849
22612SOL    HW169733  11.324   3.141   3.758
22612SOL    HW269734  11.312   3.043   3.872
22613SOL     OW69735  10.783  13.308  13.590
22613SOL    HW169736  10.714  13.257  13.547
22613SOL    HW269737  10.782  13.279  13.681
22614SOL     OW69738   0.411  12.907   2.169
22614SOL    HW169739   0.395  12.918   2.075
22614SOL    HW269740   0.466  12.829   2.175
22615SOL     OW69741   6.504   2.989   4.392
22615SOL    HW169742   6.579   2.981   4.451
22615SOL    HW269743   6.514   3.075   4.352
22616SOL     OW69744   4.371   0.052   7.269
22616SOL    HW169745   4.413   0.112   7.330
22616SOL    HW269746   4.379   0.094   7.183
22617SOL     OW69747   5.978   1.410   4.382
22617SOL    HW169748   6.014   1.363   4.457
22617SOL    HW269749   5.960   1.498   4.414
22618SOL     OW69750   1.293  13.081   0.961
22618SOL    HW169751   1.318  12.989   0.965
22618SOL    HW269752   1.266  13.094   0.870
22619SOL     OW69753  13.211  14.560   7.111
22619SOL    HW169754  13.164  14.488   7.069
22619SOL    HW269755  13.245  14.522   7.192
22620SOL     OW69756  11.348   1.797  10.669
22620SOL    HW169757  11.403   1.871  10.694
22620SOL    HW269758  11.327   1.754  10.752
22621SOL     OW69759  13.242  12.380   0.133
22621SOL    HW169760  13.178  12.354   0.066
22621SOL    HW269761  13.219  12.327   0.209
22622SOL     OW69762   6.972   3.930  14.294
22622SOL    HW169763   7.057   3.974  14.302
22622SOL    HW269764   6.932   3.969  14.217
22623SOL     OW69765   5.455   3.961   8.997
22623SOL    HW169766   5.541   3.919   8.990
22623SOL    HW269767   5.472   4.052   8.971
22624SOL     OW69768  11.268   1.569   6.034
22624SOL    HW169769  11.289   1.566   6.128
22624SOL    HW269770  11.181   1.609   6.031
22625SOL     OW69771  14.780  13.207   1.193
22625SOL    HW169772  14.775  13.266   1.268
22625SOL    HW269773  14.691  13.201   1.160
22626SOL     OW69774   3.645  13.365   3.282
22626SOL    HW169775   3.580  13.305   3.245
22626SOL    HW269776   3.616  13.451   3.253
22627SOL     OW69777  11.423   6.511   9.544
22627SOL    HW169778  11.403   6.426   9.504
22627SOL    HW269779  11.368   6.513   9.623
22628SOL     OW69780   3.194   8.612  12.358
22628SOL    HW169781   3.178   8.609  12.452
22628SOL    HW269782   3.289   8.610  12.349
22629SOL     OW69783   9.202  11.075   5.322
22629SOL    HW169784   9.279  11.130   5.335
22629SOL    HW269785   9.180  11.085   5.230
22630SOL     OW69786  11.563  12.566  12.766
22630SOL    HW169787  11.648  12.550  12.806
22630SOL    HW269788  11.504  12.580  12.840
22631SOL     OW69789   2.932  13.712  12.877
22631SOL    HW169790   3.000  13.769  12.841
22631SOL    HW269791   2.886  13.678  12.800
22632SOL     OW69792  10.117   1.499   9.377
22632SOL    HW169793  10.095   1.591   9.393
22632SOL    HW269794  10.189   1.480   9.437
22633SOL     OW69795   3.742  10.946   0.979
22633SOL    HW169796   3.718  11.014   1.042
22633SOL    HW269797   3.812  10.985   0.927
22634SOL     OW69798  11.846   9.382   5.287
22634SOL    HW169799  11.756   9.413   5.294
22634SOL    HW269800  11.881   9.389   5.375
22635SOL     OW69801  12.978  11.984   1.657
22635SOL    HW169802  12.981  11.892   1.631
22635SOL    HW269803  12.909  12.022   1.603
22636SOL     OW69804   9.731   5.903  12.308
22636SOL    HW169805   9.665   5.963  12.274
22636SOL    HW269806   9.685   5.820  12.319
22637SOL     OW69807   0.458   9.646   5.350
22637SOL    HW169808   0.391   9.628   5.416
22637SOL    HW269809   0.512   9.715   5.388
22638SOL     OW69810   2.769  12.634   4.868
22638SOL    HW169811   2.703  12.674   4.924
22638SOL    HW269812   2.719  12.591   4.798
22639SOL     OW69813   8.482   0.498  12.496
22639SOL    HW169814   8.549   0.563  12.474
22639SOL    HW269815   8.441   0.533  12.576
22640SOL     OW69816   8.624   9.790   1.255
22640SOL    HW169817   8.677   9.737   1.196
22640SOL    HW269818   8.636   9.750   1.341
22641SOL     OW69819   9.754   7.522   0.539
22641SOL    HW169820   9.753   7.449   0.477
22641SOL    HW269821   9.701   7.493   0.613
22642SOL     OW69822  10.707   9.156   8.128
22642SOL    HW169823  10.686   9.239   8.170
22642SOL    HW269824  10.692   9.171   8.035
22643SOL     OW69825   0.721  11.516   5.167
22643SOL    HW169826   0.651  11.570   5.204
22643SOL    HW269827   0.798  11.572   5.171
22644SOL     OW69828   1.598   9.019  11.524
22644SOL    HW169829   1.668   9.007  11.459
22644SOL    HW269830   1.605   8.942  11.581
22645SOL     OW69831  14.091   3.611   6.946
22645SOL    HW169832  14.014   3.555   6.942
22645SOL    HW269833  14.165   3.551   6.942
22646SOL     OW69834   9.436   2.133   3.165
22646SOL    HW169835   9.349   2.164   3.193
22646SOL    HW269836   9.432   2.038   3.174
22647SOL     OW69837   6.876   4.560   7.332
22647SOL    HW169838   6.971   4.544   7.329
22647SOL    HW269839   6.838   4.492   7.277
22648SOL     OW69840  12.978   0.428   9.249
22648SOL    HW169841  12.950   0.422   9.340
22648SOL    HW269842  12.926   0.362   9.203
22649SOL     OW69843  12.147   2.731  14.861
22649SOL    HW169844  12.147   2.750   0.077
22649SOL    HW269845  12.224   2.675  14.848
22650SOL     OW69846   2.494   1.799   3.570
22650SOL    HW169847   2.503   1.873   3.511
22650SOL    HW269848   2.578   1.753   3.564
22651SOL     OW69849   3.135  11.814  12.501
22651SOL    HW169850   3.111  11.863  12.423
22651SOL    HW269851   3.230  11.825  12.507
22652SOL     OW69852   9.296   2.658   3.964
22652SOL    HW169853   9.227   2.691   4.021
22652SOL    HW269854   9.256   2.654   3.877
22653SOL     OW69855   2.111   5.653   6.009
22653SOL    HW169856   2.152   5.600   6.078
22653SOL    HW269857   2.030   5.608   5.989
22654SOL     OW69858   6.613  13.455   4.807
22654SOL    HW169859   6.678  13.471   4.876
22654SOL    HW269860   6.591  13.542   4.774
22655SOL     OW69861  12.420   2.971  13.011
22655SOL    HW169862  12.454   2.970  13.100
22655SOL    HW269863  12.325   2.970  13.021
22656SOL     OW69864  11.571   4.661   9.887
22656SOL    HW169865  11.634   4.621   9.946
22656SOL    HW269866  11.490   4.668   9.938
22657SOL     OW69867   1.625  13.231   3.256
22657SOL    HW169868   1.660  13.153   3.298
22657SOL    HW269869   1.626  13.298   3.325
22658SOL     OW69870   3.024   7.858  14.038
22658SOL    HW169871   2.981   7.849  13.953
22658SOL    HW269872   3.088   7.928  14.026
22659SOL     OW69873  11.598   6.199   0.357
22659SOL    HW169874  11.686   6.233   0.372
22659SOL    HW269875  11.613   6.111   0.321
22660SOL     OW69876   1.961   2.912   0.285
22660SOL    HW169877   1.891   2.886   0.225
22660SOL    HW269878   1.994   2.830   0.322
22661SOL     OW69879   2.646   5.549   0.944
22661SOL    HW169880   2.572   5.609   0.943
22661SOL    HW269881   2.662   5.533   1.037
22662SOL     OW69882  14.438  14.225   3.502
22662SOL    HW169883  14.438  14.141   3.455
22662SOL    HW269884  14.345  14.251   3.504
22663SOL     OW69885  10.386   9.979   4.663
22663SOL    HW169886  10.398   9.927   4.743
22663SOL    HW269887  10.308  10.032   4.680
22664SOL     OW69888   9.628   7.369   0.115
22664SOL    HW169889   9.604   7.442   0.172
22664SOL    HW269890   9.544   7.333   0.086
22665SOL     OW69891  10.622  11.886  13.882
22665SOL    HW169892  10.609  11.897  13.787
22665SOL    HW269893  10.560  11.947  13.922
22666SOL     OW69894   6.446  13.371   0.711
22666SOL    HW169895   6.502  13.424   0.654
22666SOL    HW269896   6.426  13.427   0.786
22667SOL     OW69897   0.948   8.200   5.517
22667SOL    HW169898   1.015   8.211   5.451
22667SOL    HW269899   0.949   8.281   5.567
22668SOL     OW69900   3.897  12.450   5.250
22668SOL    HW169901   3.924  12.476   5.162
22668SOL    HW269902   3.977  12.418   5.291
22669SOL     OW69903  10.036  14.139  12.197
22669SOL    HW169904  10.055  14.206  12.262
22669SOL    HW269905   9.941  14.128  12.201
22670SOL     OW69906   4.799   8.342   2.696
22670SOL    HW169907   4.855   8.408   2.737
22670SOL    HW269908   4.715   8.385   2.683
22671SOL     OW69909   8.260  13.052  12.432
22671SOL    HW169910   8.304  13.106  12.499
22671SOL    HW269911   8.173  13.090  12.425
22672SOL     OW69912   6.469  10.071   0.967
22672SOL    HW169913   6.377  10.098   0.966
22672SOL    HW269914   6.480  10.021   0.886
22673SOL     OW69915   9.486   8.872  10.879
22673SOL    HW169916   9.449   8.950  10.919
22673SOL    HW269917   9.532   8.828  10.950
22674SOL     OW69918  11.140  11.421   7.834
22674SOL    HW169919  11.081  11.434   7.759
22674SOL    HW269920  11.228  11.429   7.797
22675SOL     OW69921   1.669   6.138  13.615
22675SOL    HW169922   1.673   6.063  13.556
22675SOL    HW269923   1.660   6.099  13.702
22676SOL     OW69924   1.160   9.433  13.221
22676SOL    HW169925   1.077   9.428  13.268
22676SOL    HW269926   1.163   9.354  13.168
22677SOL     OW69927  14.346  13.215   4.334
22677SOL    HW169928  14.276  13.199   4.271
22677SOL    HW269929  14.363  13.130   4.374
22678SOL     OW69930   3.929   3.328   8.344
22678SOL    HW169931   3.869   3.382   8.292
22678SOL    HW269932   3.911   3.238   8.317
22679SOL     OW69933  10.075   9.636   9.143
22679SOL    HW169934  10.014   9.650   9.215
22679SOL    HW269935  10.068   9.715   9.089
22680SOL     OW69936  14.743  14.309  12.784
22680SOL    HW169937  14.735  14.361  12.865
22680SOL    HW269938  14.716  14.369  12.715
22681SOL     OW69939   9.559   1.135   9.948
22681SOL    HW169940   9.581   1.116  10.039
22681SOL    HW269941   9.468   1.109   9.940
22682SOL     OW69942  13.779   3.166   8.629
22682SOL    HW169943  13.829   3.125   8.699
22682SOL    HW269944  13.822   3.139   8.548
22683SOL     OW69945   8.814  14.412   9.686
22683SOL    HW169946   8.879  14.453   9.629
22683SOL    HW269947   8.861  14.393   9.767
22684SOL     OW69948  13.902   9.100   3.672
22684SOL    HW169949  13.956   9.177   3.657
22684SOL    HW269950  13.935   9.035   3.611
22685SOL     OW69951  14.440   1.001  11.590
22685SOL    HW169952  14.367   0.994  11.652
22685SOL    HW269953  14.400   0.987  11.504
22686SOL     OW69954  14.546   6.460  10.908
22686SOL    HW169955  14.508   6.411  10.835
22686SOL    HW269956  14.470   6.494  10.956
22687SOL     OW69957   7.124   9.302   5.414
22687SOL    HW169958   7.193   9.369   5.410
22687SOL    HW269959   7.156   9.231   5.359
22688SOL     OW69960   6.186   4.801   3.261
22688SOL    HW169961   6.108   4.746   3.264
22688SOL    HW269962   6.187   4.836   3.171
22689SOL     OW69963   4.785  13.147  11.376
22689SOL    HW169964   4.735  13.083  11.324
22689SOL    HW269965   4.829  13.094  11.443
22690SOL     OW69966   4.530   4.973  12.308
22690SOL    HW169967   4.571   5.005  12.389
22690SOL    HW269968   4.603   4.967  12.246
22691SOL     OW69969  10.558  13.969  12.417
22691SOL    HW169970  10.486  14.027  12.444
22691SOL    HW269971  10.545  13.956  12.323
22692SOL     OW69972   2.370   1.469   3.819
22692SOL    HW169973   2.408   1.411   3.885
22692SOL    HW269974   2.369   1.416   3.739
22693SOL     OW69975  13.918  14.247  14.649
22693SOL    HW169976  13.990  14.256  14.712
22693SOL    HW269977  13.892  14.337  14.629
22694SOL     OW69978  11.150   5.056  10.047
22694SOL    HW169979  11.151   5.102   9.963
22694SOL    HW269980  11.234   5.079  10.088
22695SOL     OW69981   6.998   8.084   5.099
22695SOL    HW169982   6.961   8.168   5.070
22695SOL    HW269983   6.993   8.028   5.021
22696SOL     OW69984   0.817   3.204   9.007
22696SOL    HW169985   0.821   3.111   9.031
22696SOL    HW269986   0.886   3.215   8.941
22697SOL     OW69987   5.843   6.037   0.371
22697SOL    HW169988   5.885   5.993   0.445
22697SOL    HW269989   5.882   6.124   0.370
22698SOL     OW69990   5.619   0.421   6.291
22698SOL    HW169991   5.530   0.457   6.288
22698SOL    HW269992   5.663   0.471   6.360
22699SOL     OW69993   1.741  11.197   7.653
22699SOL    HW169994   1.776  11.182   7.741
22699SOL    HW269995   1.800  11.147   7.596
22700SOL     OW69996   1.364   8.695   0.044
22700SOL    HW169997   1.404   8.757  14.861
22700SOL    HW269998   1.402   8.610   0.020
22701SOL     OW69999  10.276   5.917   9.919
22701SOL    HW170000  10.285   5.837   9.867
22701SOL    HW270001  10.184   5.941   9.909
22702SOL     OW70002   8.102   2.441  14.381
22702SOL    HW170003   8.072   2.502  14.314
22702SOL    HW270004   8.024   2.392  14.406
22703SOL     OW70005  13.977   5.424   8.877
22703SOL    HW170006  14.057   5.384   8.842
22703SOL    HW270007  13.909   5.405   8.813
22704SOL     OW70008   3.831   1.041   3.073
22704SOL    HW170009   3.770   1.091   3.127
22704SOL    HW270010   3.824   1.080   2.986
22705SOL     OW70011   6.564   2.797   0.777
22705SOL    HW170012   6.593   2.711   0.805
22705SOL    HW270013   6.531   2.783   0.688
22706SOL     OW70014   0.460   0.424  10.679
22706SOL    HW170015   0.506   0.421  10.763
22706SOL    HW270016   0.465   0.515  10.652
22707SOL     OW70017  14.362  14.690  11.104
22707SOL    HW170018  14.341  14.780  11.129
22707SOL    HW270019  14.363  14.642  11.186
22708SOL     OW70020   2.948   0.310  10.580
22708SOL    HW170021   2.876   0.330  10.641
22708SOL    HW270022   3.023   0.357  10.616
22709SOL     OW70023  12.869   3.705   1.668
22709SOL    HW170024  12.789   3.670   1.629
22709SOL    HW270025  12.924   3.628   1.683
22710SOL     OW70026  13.099   6.447   0.619
22710SOL    HW170027  13.025   6.507   0.633
22710SOL    HW270028  13.098   6.429   0.525
22711SOL     OW70029   0.117   0.367  12.633
22711SOL    HW170030   0.138   0.282  12.593
22711SOL    HW270031   0.190   0.423  12.610
22712SOL     OW70032  11.600   7.243  10.311
22712SOL    HW170033  11.605   7.159  10.264
22712SOL    HW270034  11.509   7.270  10.304
22713SOL     OW70035  12.294   3.274  13.999
22713SOL    HW170036  12.241   3.333  14.052
22713SOL    HW270037  12.339   3.331  13.937
22714SOL     OW70038  10.443  11.541  10.437
22714SOL    HW170039  10.351  11.541  10.409
22714SOL    HW270040  10.486  11.483  10.375
22715SOL     OW70041   3.660  10.935  11.621
22715SOL    HW170042   3.615  10.927  11.705
22715SOL    HW270043   3.652  10.848  11.581
22716SOL     OW70044   1.306  13.725   4.609
22716SOL    HW170045   1.341  13.798   4.558
22716SOL    HW270046   1.357  13.649   4.581
22717SOL     OW70047   6.243  14.244   0.758
22717SOL    HW170048   6.247  14.328   0.714
22717SOL    HW270049   6.176  14.255   0.825
22718SOL     OW70050   5.028   2.440   3.360
22718SOL    HW170051   5.065   2.402   3.280
22718SOL    HW270052   4.940   2.467   3.335
22719SOL     OW70053  12.455   2.023   5.221
22719SOL    HW170054  12.448   2.118   5.231
22719SOL    HW270055  12.364   1.992   5.215
22720SOL     OW70056  12.501  11.459   2.988
22720SOL    HW170057  12.456  11.386   3.031
22720SOL    HW270058  12.580  11.473   3.040
22721SOL     OW70059   3.190   2.103   8.033
22721SOL    HW170060   3.223   2.076   8.119
22721SOL    HW270061   3.264   2.148   7.992
22722SOL     OW70062  14.351  10.636   2.172
22722SOL    HW170063  14.320  10.677   2.253
22722SOL    HW270064  14.387  10.709   2.121
22723SOL     OW70065  11.298   3.624   1.615
22723SOL    HW170066  11.291   3.672   1.697
22723SOL    HW270067  11.330   3.689   1.552
22724SOL     OW70068   0.604   4.725   4.300
22724SOL    HW170069   0.593   4.702   4.208
22724SOL    HW270070   0.624   4.819   4.300
22725SOL     OW70071   1.318   4.459   2.230
22725SOL    HW170072   1.250   4.406   2.270
22725SOL    HW270073   1.326   4.425   2.141
22726SOL     OW70074   9.205   8.987  12.544
22726SOL    HW170075   9.224   9.003  12.637
22726SOL    HW270076   9.233   8.897  12.529
22727SOL     OW70077  10.303  12.625   8.917
22727SOL    HW170078  10.312  12.699   8.976
22727SOL    HW270079  10.264  12.556   8.971
22728SOL     OW70080  14.569  10.254   5.736
22728SOL    HW170081  14.552  10.170   5.780
22728SOL    HW270082  14.656  10.244   5.699
22729SOL     OW70083   0.680   3.182   9.671
22729SOL    HW170084   0.596   3.212   9.637
22729SOL    HW270085   0.662   3.099   9.714
22730SOL     OW70086   9.810  13.469  11.677
22730SOL    HW170087   9.863  13.520  11.616
22730SOL    HW270088   9.835  13.500  11.764
22731SOL     OW70089   6.122   8.029   0.487
22731SOL    HW170090   6.191   7.985   0.437
22731SOL    HW270091   6.041   8.011   0.438
22732SOL     OW70092  10.417   1.212  11.125
22732SOL    HW170093  10.411   1.150  11.197
22732SOL    HW270094  10.356   1.179  11.059
22733SOL     OW70095   8.181  11.589   7.348
22733SOL    HW170096   8.111  11.534   7.311
22733SOL    HW270097   8.257  11.572   7.292
22734SOL     OW70098   2.914   5.486   5.943
22734SOL    HW170099   2.937   5.566   5.991
22734SOL    HW270100   2.996   5.437   5.940
22735SOL     OW70101   1.400  14.611  12.367
22735SOL    HW170102   1.387  14.549  12.438
22735SOL    HW270103   1.328  14.593  12.306
22736SOL     OW70104   2.213  13.078  11.574
22736SOL    HW170105   2.197  13.037  11.659
22736SOL    HW270106   2.276  13.148  11.593
22737SOL     OW70107  14.204  12.108  10.300
22737SOL    HW170108  14.154  12.105  10.219
22737SOL    HW270109  14.294  12.129  10.272
22738SOL     OW70110   0.412   6.745   9.764
22738SOL    HW170111   0.458   6.809   9.709
22738SOL    HW270112   0.388   6.675   9.703
22739SOL     OW70113   8.926   3.966   0.979
22739SOL    HW170114   8.912   3.908   1.054
22739SOL    HW270115   8.864   3.935   0.913
22740SOL     OW70116   5.599   0.536   4.652
22740SOL    HW170117   5.641   0.475   4.591
22740SOL    HW270118   5.653   0.615   4.646
22741SOL     OW70119   5.040   8.841  13.242
22741SOL    HW170120   5.111   8.902  13.258
22741SOL    HW270121   5.045   8.822  13.148
22742SOL     OW70122   4.504   4.131   4.368
22742SOL    HW170123   4.428   4.073   4.364
22742SOL    HW270124   4.483   4.202   4.307
22743SOL     OW70125  13.583   0.688   3.132
22743SOL    HW170126  13.678   0.687   3.121
22743SOL    HW270127  13.562   0.779   3.152
22744SOL     OW70128  13.488   4.248   9.692
22744SOL    HW170129  13.472   4.339   9.714
22744SOL    HW270130  13.545   4.215   9.762
22745SOL     OW70131   5.701   2.968  12.815
22745SOL    HW170132   5.705   2.874  12.829
22745SOL    HW270133   5.661   2.977  12.728
22746SOL     OW70134   7.804  11.112   8.144
22746SOL    HW170135   7.759  11.028   8.136
22746SOL    HW270136   7.734  11.177   8.136
22747SOL     OW70137   0.046   9.521   1.059
22747SOL    HW170138   0.088   9.566   1.132
22747SOL    HW270139   0.114   9.462   1.026
22748SOL     OW70140   0.124  13.617   5.140
22748SOL    HW170141   0.166  13.536   5.110
22748SOL    HW270142   0.169  13.638   5.222
22749SOL     OW70143  13.748   7.017   3.908
22749SOL    HW170144  13.708   7.103   3.925
22749SOL    HW270145  13.791   6.995   3.991
22750SOL     OW70146  12.142   7.464   9.492
22750SOL    HW170147  12.228   7.434   9.462
22750SOL    HW270148  12.080   7.428   9.429
22751SOL     OW70149  12.180   8.106   5.855
22751SOL    HW170150  12.195   8.165   5.781
22751SOL    HW270151  12.203   8.020   5.822
22752SOL     OW70152   4.714   8.688   2.678
22752SOL    HW170153   4.771   8.648   2.744
22752SOL    HW270154   4.768   8.757   2.639
22753SOL     OW70155   9.667  10.087   8.995
22753SOL    HW170156   9.687  10.088   9.089
22753SOL    HW270157   9.693  10.174   8.964
22754SOL     OW70158   5.994   1.651   4.709
22754SOL    HW170159   5.959   1.709   4.642
22754SOL    HW270160   6.046   1.708   4.765
22755SOL     OW70161   2.073   3.815   5.420
22755SOL    HW170162   2.138   3.783   5.357
22755SOL    HW270163   1.993   3.826   5.369
22756SOL     OW70164   1.957   0.996   8.599
22756SOL    HW170165   1.946   0.920   8.656
22756SOL    HW270166   1.931   1.071   8.654
22757SOL     OW70167   7.909   5.085  12.252
22757SOL    HW170168   7.927   5.148  12.321
22757SOL    HW270169   7.868   5.010  12.297
22758SOL     OW70170   9.566  14.174   4.298
22758SOL    HW170171   9.477  14.207   4.283
22758SOL    HW270172   9.562  14.134   4.385
22759SOL     OW70173  11.869  11.912   9.476
22759SOL    HW170174  11.929  11.950   9.412
22759SOL    HW270175  11.787  11.959   9.463
22760SOL     OW70176   3.388   1.340   2.478
22760SOL    HW170177   3.477   1.305   2.472
22760SOL    HW270178   3.332   1.263   2.480
22761SOL     OW70179   2.130   5.698  13.672
22761SOL    HW170180   2.141   5.626  13.734
22761SOL    HW270181   2.219   5.730  13.656
22762SOL     OW70182  13.361   6.995   4.074
22762SOL    HW170183  13.385   6.962   3.988
22762SOL    HW270184  13.337   7.087   4.059
22763SOL     OW70185   7.852   7.562   3.405
22763SOL    HW170186   7.839   7.543   3.498
22763SOL    HW270187   7.941   7.534   3.387
22764SOL     OW70188   1.011   0.668   8.521
22764SOL    HW170189   1.107   0.664   8.515
22764SOL    HW270190   0.981   0.655   8.432
22765SOL     OW70191  11.118   0.639   7.538
22765SOL    HW170192  11.195   0.582   7.536
22765SOL    HW270193  11.097   0.654   7.445
22766SOL     OW70194   2.744   2.690   9.665
22766SOL    HW170195   2.743   2.595   9.683
22766SOL    HW270196   2.792   2.727   9.738
22767SOL     OW70197   1.976   0.192  10.370
22767SOL    HW170198   1.923   0.184  10.449
22767SOL    HW270199   1.992   0.285  10.360
22768SOL     OW70200   6.703   9.591   7.333
22768SOL    HW170201   6.664   9.655   7.273
22768SOL    HW270202   6.668   9.615   7.419
22769SOL     OW70203   6.270   6.820  14.656
22769SOL    HW170204   6.224   6.883  14.712
22769SOL    HW270205   6.354   6.862  14.637
22770SOL     OW70206  10.321  12.950   3.413
22770SOL    HW170207  10.332  12.920   3.323
22770SOL    HW270208  10.383  12.898   3.463
22771SOL     OW70209   0.716   4.360  11.681
22771SOL    HW170210   0.671   4.318  11.755
22771SOL    HW270211   0.737   4.288  11.622
22772SOL     OW70212   0.037  10.185   8.337
22772SOL    HW170213   0.070  10.227   8.258
22772SOL    HW270214   0.104  10.204   8.403
22773SOL     OW70215   8.962  14.096   0.042
22773SOL    HW170216   8.904  14.069   0.113
22773SOL    HW270217   8.908  14.089  14.841
22774SOL     OW70218  13.099   1.631  13.081
22774SOL    HW170219  13.078   1.696  13.148
22774SOL    HW270220  13.194   1.636  13.070
22775SOL     OW70221  10.334  13.799   6.664
22775SOL    HW170222  10.262  13.861   6.660
22775SOL    HW270223  10.413  13.854   6.665
22776SOL     OW70224   3.066   9.991  13.393
22776SOL    HW170225   3.143   9.992  13.335
22776SOL    HW270226   2.997  10.033  13.343
22777SOL     OW70227  10.460   0.812  11.041
22777SOL    HW170228  10.502   0.752  11.103
22777SOL    HW270229  10.527   0.878  11.023
22778SOL     OW70230   3.334   5.599   9.816
22778SOL    HW170231   3.300   5.528   9.761
22778SOL    HW270232   3.363   5.665   9.754
22779SOL     OW70233   8.570  13.089   8.057
22779SOL    HW170234   8.642  13.133   8.012
22779SOL    HW270235   8.591  12.995   8.049
22780SOL     OW70236  11.418   2.010   4.566
22780SOL    HW170237  11.324   2.005   4.580
22780SOL    HW270238  11.436   1.945   4.497
22781SOL     OW70239  13.476   5.191   9.381
22781SOL    HW170240  13.444   5.220   9.466
22781SOL    HW270241  13.449   5.100   9.374
22782SOL     OW70242  14.224  11.594   1.328
22782SOL    HW170243  14.272  11.519   1.363
22782SOL    HW270244  14.162  11.617   1.398
22783SOL     OW70245  12.249  12.958   5.906
22783SOL    HW170246  12.285  12.957   5.995
22783SOL    HW270247  12.159  12.988   5.916
22784SOL     OW70248  14.423   0.465  11.623
22784SOL    HW170249  14.466   0.518  11.557
22784SOL    HW270250  14.421   0.520  11.701
22785SOL     OW70251   2.365  12.201   4.174
22785SOL    HW170252   2.327  12.167   4.255
22785SOL    HW270253   2.412  12.280   4.201
22786SOL     OW70254   9.468   0.569  10.430
22786SOL    HW170255   9.420   0.510  10.488
22786SOL    HW270256   9.399   0.614  10.381
22787SOL     OW70257   0.359  10.605   8.697
22787SOL    HW170258   0.389  10.514   8.700
22787SOL    HW270259   0.439  10.656   8.684
22788SOL     OW70260   0.387   4.125   3.344
22788SOL    HW170261   0.409   4.121   3.251
22788SOL    HW270262   0.388   4.034   3.373
22789SOL     OW70263   6.598   2.180   7.215
22789SOL    HW170264   6.506   2.169   7.189
22789SOL    HW270265   6.611   2.275   7.215
22790SOL     OW70266  13.294   5.425   4.533
22790SOL    HW170267  13.381   5.391   4.554
22790SOL    HW270268  13.277   5.393   4.444
22791SOL     OW70269   3.674  13.919   6.519
22791SOL    HW170270   3.747  13.858   6.501
22791SOL    HW270271   3.638  13.939   6.433
22792SOL     OW70272   3.675   4.286   1.382
22792SOL    HW170273   3.680   4.362   1.440
22792SOL    HW270274   3.610   4.310   1.317
22793SOL     OW70275   9.875  13.238  10.632
22793SOL    HW170276   9.913  13.313  10.587
22793SOL    HW270277   9.895  13.163  10.575
22794SOL     OW70278  12.374  12.459  10.398
22794SOL    HW170279  12.344  12.547  10.418
22794SOL    HW270280  12.469  12.462  10.415
22795SOL     OW70281   7.313   2.449  13.861
22795SOL    HW170282   7.399   2.476  13.830
22795SOL    HW270283   7.253   2.514  13.825
22796SOL     OW70284   9.318   0.019  13.098
22796SOL    HW170285   9.366  14.821  13.063
22796SOL    HW270286   9.265  14.860  13.169
22797SOL     OW70287  12.379   7.095   0.119
22797SOL    HW170288  12.359   7.185   0.092
22797SOL    HW270289  12.467   7.100   0.157
22798SOL     OW70290   2.786   4.118   2.467
22798SOL    HW170291   2.812   4.107   2.559
22798SOL    HW270292   2.750   4.207   2.463
22799SOL     OW70293  13.247   6.635   3.089
22799SOL    HW170294  13.252   6.729   3.106
22799SOL    HW270295  13.303   6.621   3.012
22800SOL     OW70296  11.226   6.778   9.366
22800SOL    HW170297  11.185   6.692   9.357
22800SOL    HW270298  11.162   6.829   9.415
22801SOL     OW70299   4.322   0.315   2.517
22801SOL    HW170300   4.280   0.397   2.545
22801SOL    HW270301   4.411   0.340   2.494
22802SOL     OW70302  13.203   3.681   7.805
22802SOL    HW170303  13.195   3.774   7.784
22802SOL    HW270304  13.116   3.656   7.835
22803SOL     OW70305   7.380  14.382   6.639
22803SOL    HW170306   7.398  14.413   6.550
22803SOL    HW270307   7.466  14.372   6.679
22804SOL     OW70308   8.001  12.840  11.645
22804SOL    HW170309   8.029  12.841  11.737
22804SOL    HW270310   8.053  12.770  11.606
22805SOL     OW70311   3.735  11.409  13.921
22805SOL    HW170312   3.650  11.376  13.950
22805SOL    HW270313   3.723  11.503  13.913
22806SOL     OW70314  14.755   9.576   0.439
22806SOL    HW170315  14.706   9.502   0.474
22806SOL    HW270316  14.827   9.536   0.390
22807SOL     OW70317   8.725  10.225   2.029
22807SOL    HW170318   8.704  10.317   2.044
22807SOL    HW270319   8.676  10.178   2.097
22808SOL     OW70320   6.171  10.019  12.895
22808SOL    HW170321   6.239   9.963  12.856
22808SOL    HW270322   6.160   9.985  12.984
22809SOL     OW70323  12.472   5.975  11.242
22809SOL    HW170324  12.541   5.919  11.279
22809SOL    HW270325  12.394   5.952  11.292
22810SOL     OW70326   1.301   9.415   9.459
22810SOL    HW170327   1.230   9.395   9.399
22810SOL    HW270328   1.274   9.378   9.543
22811SOL     OW70329   9.109   2.223  10.364
22811SOL    HW170330   9.205   2.221  10.362
22811SOL    HW270331   9.087   2.197  10.454
22812SOL     OW70332  13.267   9.465   9.276
22812SOL    HW170333  13.205   9.392   9.287
22812SOL    HW270334  13.269   9.479   9.182
22813SOL     OW70335   5.357  12.621   2.549
22813SOL    HW170336   5.353  12.642   2.456
22813SOL    HW270337   5.322  12.532   2.555
22814SOL     OW70338   3.991   5.151   4.109
22814SOL    HW170339   3.997   5.245   4.094
22814SOL    HW270340   4.079   5.118   4.091
22815SOL     OW70341  14.682  12.898   2.851
22815SOL    HW170342  14.631  12.970   2.888
22815SOL    HW270343  14.762  12.939   2.819
22816SOL     OW70344   3.321   1.470   7.809
22816SOL    HW170345   3.310   1.525   7.731
22816SOL    HW270346   3.384   1.518   7.863
22817SOL     OW70347   0.798   6.331   2.230
22817SOL    HW170348   0.889   6.309   2.212
22817SOL    HW270349   0.748   6.258   2.192
22818SOL     OW70350  12.044   0.003   4.313
22818SOL    HW170351  12.101   0.062   4.265
22818SOL    HW270352  12.064  14.794   4.277
22819SOL     OW70353  12.972   8.975   1.557
22819SOL    HW170354  13.001   9.065   1.575
22819SOL    HW270355  12.926   8.981   1.473
22820SOL     OW70356   6.249   2.306   5.987
22820SOL    HW170357   6.331   2.311   6.038
22820SOL    HW270358   6.216   2.218   6.005
22821SOL     OW70359   7.359   9.473   0.803
22821SOL    HW170360   7.419   9.407   0.836
22821SOL    HW270361   7.274   9.451   0.843
22822SOL     OW70362  10.096   3.775   4.136
22822SOL    HW170363  10.092   3.870   4.127
22822SOL    HW270364  10.101   3.743   4.046
22823SOL     OW70365  13.809  11.819   8.077
22823SOL    HW170366  13.868  11.748   8.050
22823SOL    HW270367  13.785  11.796   8.167
22824SOL     OW70368   0.376  14.532  12.076
22824SOL    HW170369   0.355  14.620  12.044
22824SOL    HW270370   0.453  14.544  12.131
22825SOL     OW70371   8.571   8.585   1.380
22825SOL    HW170372   8.557   8.576   1.286
22825SOL    HW270373   8.486   8.567   1.419
22826SOL     OW70374   2.727   7.232  13.168
22826SOL    HW170375   2.720   7.165  13.099
22826SOL    HW270376   2.684   7.193  13.244
22827SOL     OW70377   4.758   0.838   7.499
22827SOL    HW170378   4.823   0.840   7.429
22827SOL    HW270379   4.701   0.913   7.480
22828SOL     OW70380  13.916   2.900   1.672
22828SOL    HW170381  13.942   2.956   1.599
22828SOL    HW270382  13.999   2.869   1.710
22829SOL     OW70383   2.756  14.584   9.659
22829SOL    HW170384   2.696  14.536   9.602
22829SOL    HW270385   2.781  14.660   9.608
22830SOL     OW70386  14.239   0.164   4.181
22830SOL    HW170387  14.210   0.092   4.236
22830SOL    HW270388  14.315   0.200   4.227
22831SOL     OW70389  10.931   1.898  11.926
22831SOL    HW170390  10.836   1.896  11.922
22831SOL    HW270391  10.955   1.984  11.893
22832SOL     OW70392   0.003   7.873   6.375
22832SOL    HW170393  14.859   7.965   6.355
22832SOL    HW270394   0.024   7.834   6.290
22833SOL     OW70395   0.510   6.841   3.881
22833SOL    HW170396   0.458   6.807   3.953
22833SOL    HW270397   0.455   6.909   3.841
22834SOL     OW70398  11.899   0.167   6.402
22834SOL    HW170399  11.840   0.175   6.477
22834SOL    HW270400  11.913   0.072   6.393
22835SOL     OW70401  12.199   5.539  13.673
22835SOL    HW170402  12.256   5.516  13.599
22835SOL    HW270403  12.248   5.606  13.721
22836SOL     OW70404  12.378   0.974   1.229
22836SOL    HW170405  12.332   0.903   1.185
22836SOL    HW270406  12.348   1.054   1.184
22837SOL     OW70407   8.278  12.321  10.559
22837SOL    HW170408   8.185  12.305  10.572
22837SOL    HW270409   8.286  12.342  10.466
22838SOL     OW70410  14.015   1.965  14.809
22838SOL    HW170411  14.105   1.984  14.784
22838SOL    HW270412  13.962   1.995  14.735
22839SOL     OW70413   8.951   7.489   0.202
22839SOL    HW170414   8.976   7.507   0.112
22839SOL    HW270415   8.860   7.459   0.195
22840SOL     OW70416  10.605   8.302   9.252
22840SOL    HW170417  10.643   8.224   9.210
22840SOL    HW270418  10.647   8.306   9.338
22841SOL     OW70419   3.043   6.476  13.822
22841SOL    HW170420   3.080   6.457  13.908
22841SOL    HW270421   2.974   6.541  13.839
22842SOL     OW70422   7.151   9.402  11.660
22842SOL    HW170423   7.061   9.371  11.647
22842SOL    HW270424   7.202   9.322  11.674
22843SOL     OW70425   0.637   0.729  11.241
22843SOL    HW170426   0.626   0.798  11.176
22843SOL    HW270427   0.677   0.773  11.316
22844SOL     OW70428  11.266   1.419   0.201
22844SOL    HW170429  11.269   1.510   0.231
22844SOL    HW270430  11.352   1.384   0.223
22845SOL     OW70431   0.507   6.689  14.868
22845SOL    HW170432   0.426   6.665   0.035
22845SOL    HW270433   0.515   6.626  14.796
22846SOL     OW70434   0.310   9.783   9.582
22846SOL    HW170435   0.362   9.857   9.614
22846SOL    HW270436   0.329   9.712   9.642
22847SOL     OW70437  12.864   4.010   3.647
22847SOL    HW170438  12.788   4.055   3.683
22847SOL    HW270439  12.854   4.019   3.553
22848SOL     OW70440  11.124   1.866   0.284
22848SOL    HW170441  11.109   1.892   0.375
22848SOL    HW270442  11.173   1.783   0.291
22849SOL     OW70443  13.720   7.813   8.069
22849SOL    HW170444  13.642   7.771   8.104
22849SOL    HW270445  13.762   7.746   8.015
22850SOL     OW70446  10.479   5.425  11.274
22850SOL    HW170447  10.554   5.367  11.288
22850SOL    HW270448  10.514   5.513  11.288
22851SOL     OW70449   0.854  11.292  12.190
22851SOL    HW170450   0.810  11.331  12.115
22851SOL    HW270451   0.804  11.322  12.266
22852SOL     OW70452  12.451  14.583   9.344
22852SOL    HW170453  12.489  14.584   9.432
22852SOL    HW270454  12.358  14.597   9.358
22853SOL     OW70455   7.669   5.012  14.491
22853SOL    HW170456   7.668   4.974  14.403
22853SOL    HW270457   7.581   5.047  14.503
22854SOL     OW70458   6.715   9.047  10.116
22854SOL    HW170459   6.769   8.985  10.068
22854SOL    HW270460   6.776   9.116  10.143
22855SOL     OW70461   4.640  12.899  11.969
22855SOL    HW170462   4.572  12.952  12.010
22855SOL    HW270463   4.696  12.872  12.042
22856SOL     OW70464   5.521   4.319  11.174
22856SOL    HW170465   5.483   4.379  11.110
22856SOL    HW270466   5.448   4.295  11.231
22857SOL     OW70467   3.668   3.533   4.637
22857SOL    HW170468   3.752   3.495   4.612
22857SOL    HW270469   3.690   3.617   4.676
22858SOL     OW70470  11.700   5.776   4.012
22858SOL    HW170471  11.610   5.760   3.984
22858SOL    HW270472  11.753   5.758   3.934
22859SOL     OW70473  13.819   0.257   3.538
22859SOL    HW170474  13.807   0.197   3.465
22859SOL    HW270475  13.823   0.344   3.497
22860SOL     OW70476  10.343   2.190   6.303
22860SOL    HW170477  10.356   2.142   6.385
22860SOL    HW270478  10.256   2.228   6.311
22861SOL     OW70479   1.093   1.410  12.539
22861SOL    HW170480   1.032   1.399  12.466
22861SOL    HW270481   1.144   1.329  12.540
22862SOL     OW70482  11.394  13.260  12.593
22862SOL    HW170483  11.442  13.338  12.566
22862SOL    HW270484  11.397  13.203  12.516
22863SOL     OW70485   1.727   0.849  10.243
22863SOL    HW170486   1.649   0.895  10.211
22863SOL    HW270487   1.730   0.870  10.336
22864SOL     OW70488   0.986   1.958   7.000
22864SOL    HW170489   0.983   2.052   7.016
22864SOL    HW270490   0.938   1.946   6.918
22865SOL     OW70491   2.411   8.794  13.888
22865SOL    HW170492   2.403   8.807  13.793
22865SOL    HW270493   2.349   8.724  13.908
22866SOL     OW70494   7.731  11.754   9.974
22866SOL    HW170495   7.811  11.803   9.956
22866SOL    HW270496   7.686  11.803  10.043
22867SOL     OW70497  13.731  10.503   5.661
22867SOL    HW170498  13.796  10.539   5.721
22867SOL    HW270499  13.692  10.580   5.620
22868SOL     OW70500   9.387   4.556   9.127
22868SOL    HW170501   9.315   4.611   9.098
22868SOL    HW270502   9.348   4.496   9.191
22869SOL     OW70503   8.839  13.053   9.836
22869SOL    HW170504   8.819  12.975   9.888
22869SOL    HW270505   8.921  13.033   9.792
22870SOL     OW70506   5.683   3.444   1.810
22870SOL    HW170507   5.767   3.426   1.768
22870SOL    HW270508   5.672   3.539   1.802
22871SOL     OW70509   2.518  11.913   8.586
22871SOL    HW170510   2.569  11.981   8.629
22871SOL    HW270511   2.473  11.959   8.514
22872SOL     OW70512   8.077  10.742   7.726
22872SOL    HW170513   8.034  10.726   7.642
22872SOL    HW270514   8.031  10.817   7.763
22873SOL     OW70515   5.881   4.639   0.148
22873SOL    HW170516   5.970   4.621   0.116
22873SOL    HW270517   5.861   4.563   0.204
22874SOL     OW70518   2.170   7.112   9.727
22874SOL    HW170519   2.117   7.051   9.675
22874SOL    HW270520   2.251   7.064   9.744
22875SOL     OW70521   0.232   1.995   6.550
22875SOL    HW170522   0.231   1.934   6.476
22875SOL    HW270523   0.140   2.013   6.567
22876SOL     OW70524   4.211   7.479   3.841
22876SOL    HW170525   4.233   7.471   3.748
22876SOL    HW270526   4.116   7.465   3.844
22877SOL     OW70527  11.479   5.971   8.974
22877SOL    HW170528  11.433   6.054   8.962
22877SOL    HW270529  11.426   5.907   8.928
22878SOL     OW70530  13.650   4.960   6.195
22878SOL    HW170531  13.597   5.035   6.223
22878SOL    HW270532  13.624   4.890   6.254
22879SOL     OW70533   0.172   6.492   5.907
22879SOL    HW170534   0.085   6.474   5.869
22879SOL    HW270535   0.207   6.405   5.927
22880SOL     OW70536   7.228   3.963   8.694
22880SOL    HW170537   7.311   3.916   8.696
22880SOL    HW270538   7.207   3.972   8.601
22881SOL     OW70539   1.739   3.671   3.626
22881SOL    HW170540   1.754   3.617   3.703
22881SOL    HW270541   1.650   3.649   3.598
22882SOL     OW70542  13.892   1.946   2.503
22882SOL    HW170543  13.837   1.969   2.428
22882SOL    HW270544  13.923   2.030   2.537
22883SOL     OW70545   0.489   6.501   1.809
22883SOL    HW170546   0.493   6.572   1.746
22883SOL    HW270547   0.410   6.519   1.860
22884SOL     OW70548  11.395   7.083   0.545
22884SOL    HW170549  11.394   6.988   0.533
22884SOL    HW270550  11.414   7.095   0.638
22885SOL     OW70551   6.655   1.727   3.466
22885SOL    HW170552   6.614   1.666   3.527
22885SOL    HW270553   6.605   1.808   3.475
22886SOL     OW70554  10.160   5.616  13.811
22886SOL    HW170555  10.163   5.521  13.818
22886SOL    HW270556  10.092   5.633  13.745
22887SOL     OW70557  10.015   7.322   9.583
22887SOL    HW170558   9.926   7.314   9.551
22887SOL    HW270559  10.047   7.232   9.590
22888SOL     OW70560   5.601  10.220   6.877
22888SOL    HW170561   5.566  10.201   6.790
22888SOL    HW270562   5.564  10.305   6.900
22889SOL     OW70563   9.995   1.071   6.063
22889SOL    HW170564  10.038   1.130   6.125
22889SOL    HW270565  10.067   1.030   6.015
22890SOL     OW70566   1.022   8.393   9.684
22890SOL    HW170567   1.001   8.372   9.593
22890SOL    HW270568   1.039   8.308   9.725
22891SOL     OW70569  14.697   3.954   8.049
22891SOL    HW170570  14.780   3.991   8.017
22891SOL    HW270571  14.676   3.885   7.986
22892SOL     OW70572   0.538   4.418   9.650
22892SOL    HW170573   0.482   4.472   9.594
22892SOL    HW270574   0.484   4.399   9.727
22893SOL     OW70575   8.508   0.135  12.239
22893SOL    HW170576   8.481   0.047  12.267
22893SOL    HW270577   8.428   0.187  12.244
22894SOL     OW70578  13.862   1.595   1.557
22894SOL    HW170579  13.920   1.652   1.506
22894SOL    HW270580  13.828   1.532   1.493
22895SOL     OW70581   9.958  11.160  10.568
22895SOL    HW170582   9.914  11.150  10.483
22895SOL    HW270583  10.049  11.177  10.546
22896SOL     OW70584  14.206  10.433   9.422
22896SOL    HW170585  14.163  10.439   9.337
22896SOL    HW270586  14.220  10.339   9.435
22897SOL     OW70587  11.389   4.691   6.861
22897SOL    HW170588  11.310   4.729   6.897
22897SOL    HW270589  11.360   4.614   6.813
22898SOL     OW70590   1.525   9.277   0.439
22898SOL    HW170591   1.465   9.208   0.468
22898SOL    HW270592   1.611   9.248   0.469
22899SOL     OW70593   0.963   6.116   2.367
22899SOL    HW170594   1.050   6.119   2.328
22899SOL    HW270595   0.975   6.149   2.456
22900SOL     OW70596  12.188   3.401   4.333
22900SOL    HW170597  12.228   3.328   4.286
22900SOL    HW270598  12.119   3.432   4.274
22901SOL     OW70599  12.443  13.456  12.291
22901SOL    HW170600  12.358  13.433  12.328
22901SOL    HW270601  12.432  13.544  12.256
22902SOL     OW70602   8.177  10.196   3.894
22902SOL    HW170603   8.081  10.200   3.896
22902SOL    HW270604   8.197  10.155   3.809
22903SOL     OW70605  14.804   9.928   7.903
22903SOL    HW170606   0.003   9.983   7.886
22903SOL    HW270607  14.738   9.958   7.839
22904SOL     OW70608  11.787   9.383   6.273
22904SOL    HW170609  11.875   9.347   6.263
22904SOL    HW270610  11.767   9.423   6.188
22905SOL     OW70611   1.739   6.743   5.519
22905SOL    HW170612   1.832   6.723   5.509
22905SOL    HW270613   1.704   6.673   5.574
22906SOL     OW70614   9.937   9.126   4.514
22906SOL    HW170615  10.010   9.160   4.461
22906SOL    HW270616   9.905   9.202   4.562
22907SOL     OW70617  12.990   0.821  10.864
22907SOL    HW170618  12.954   0.845  10.950
22907SOL    HW270619  12.938   0.747  10.836
22908SOL     OW70620   2.477   2.395   2.753
22908SOL    HW170621   2.521   2.383   2.669
22908SOL    HW270622   2.417   2.321   2.760
22909SOL     OW70623   5.371   9.713  11.213
22909SOL    HW170624   5.307   9.650  11.182
22909SOL    HW270625   5.366   9.786  11.150
22910SOL     OW70626  14.798   0.565   9.360
22910SOL    HW170627  14.861   0.588   9.292
22910SOL    HW270628  14.831   0.606   9.439
22911SOL     OW70629   4.205   5.734   4.269
22911SOL    HW170630   4.125   5.782   4.246
22911SOL    HW270631   4.227   5.685   4.190
22912SOL     OW70632   2.849   2.504   1.057
22912SOL    HW170633   2.898   2.514   0.975
22912SOL    HW270634   2.758   2.499   1.030
22913SOL     OW70635   5.059   0.343   2.743
22913SOL    HW170636   5.124   0.280   2.773
22913SOL    HW270637   4.978   0.293   2.736
22914SOL     OW70638   0.150  10.862  12.645
22914SOL    HW170639   0.195  10.833  12.566
22914SOL    HW270640   0.079  10.800  12.657
22915SOL     OW70641   1.893   1.668  12.319
22915SOL    HW170642   1.919   1.580  12.289
22915SOL    HW270643   1.798   1.668  12.312
22916SOL     OW70644   7.634   2.718  14.600
22916SOL    HW170645   7.567   2.661  14.563
22916SOL    HW270646   7.603   2.807  14.580
22917SOL     OW70647  12.363   3.101   1.209
22917SOL    HW170648  12.333   3.110   1.119
22917SOL    HW270649  12.437   3.041   1.204
22918SOL     OW70650   1.107   6.399  13.510
22918SOL    HW170651   1.085   6.306  13.519
22918SOL    HW270652   1.056   6.428  13.435
22919SOL     OW70653   3.118   0.098  13.473
22919SOL    HW170654   3.108   0.028  13.537
22919SOL    HW270655   3.170   0.164  13.518
22920SOL     OW70656   4.200   8.233   7.627
22920SOL    HW170657   4.237   8.317   7.597
22920SOL    HW270658   4.237   8.168   7.568
22921SOL     OW70659   9.535   5.269   2.261
22921SOL    HW170660   9.594   5.279   2.186
22921SOL    HW270661   9.574   5.323   2.329
22922SOL     OW70662   1.493   8.123   0.102
22922SOL    HW170663   1.523   8.040   0.140
22922SOL    HW270664   1.398   8.110   0.091
22923SOL     OW70665   0.464   5.960   4.270
22923SOL    HW170666   0.410   5.904   4.215
22923SOL    HW270667   0.492   5.904   4.343
22924SOL     OW70668  12.264  14.715   1.999
22924SOL    HW170669  12.324  14.671   2.061
22924SOL    HW270670  12.321  14.750   1.931
22925SOL     OW70671   6.347   1.596   3.054
22925SOL    HW170672   6.273   1.633   3.102
22925SOL    HW270673   6.424   1.626   3.102
22926SOL     OW70674   2.933   4.080  12.481
22926SOL    HW170675   2.949   4.113  12.569
22926SOL    HW270676   2.952   3.987  12.486
22927SOL     OW70677   6.993   5.594  12.866
22927SOL    HW170678   7.074   5.566  12.908
22927SOL    HW270679   6.946   5.642  12.935
22928SOL     OW70680   2.792  11.557   1.559
22928SOL    HW170681   2.842  11.475   1.552
22928SOL    HW270682   2.842  11.620   1.507
22929SOL     OW70683   7.037  12.415   4.425
22929SOL    HW170684   7.128  12.437   4.444
22929SOL    HW270685   7.043  12.339   4.367
22930SOL     OW70686  11.709   9.674   3.512
22930SOL    HW170687  11.759   9.620   3.450
22930SOL    HW270688  11.736   9.642   3.598
22931SOL     OW70689   7.231  13.876   2.635
22931SOL    HW170690   7.234  13.968   2.609
22931SOL    HW270691   7.297  13.868   2.704
22932SOL     OW70692   8.832   4.957   7.476
22932SOL    HW170693   8.912   4.954   7.528
22932SOL    HW270694   8.849   5.024   7.409
22933SOL     OW70695   9.830   8.377   7.964
22933SOL    HW170696   9.770   8.440   7.925
22933SOL    HW270697   9.872   8.333   7.890
22934SOL     OW70698   6.300   1.325   0.521
22934SOL    HW170699   6.254   1.301   0.440
22934SOL    HW270700   6.351   1.248   0.543
22935SOL     OW70701   2.473   8.964  11.081
22935SOL    HW170702   2.411   9.036  11.093
22935SOL    HW270703   2.554   8.996  11.120
22936SOL     OW70704   5.203   2.359   9.755
22936SOL    HW170705   5.283   2.344   9.705
22936SOL    HW270706   5.175   2.447   9.731
22937SOL     OW70707  14.671   1.368   3.014
22937SOL    HW170708  14.583   1.382   3.051
22937SOL    HW270709  14.681   1.439   2.950
22938SOL     OW70710   6.604   7.971  11.883
22938SOL    HW170711   6.514   7.967  11.916
22938SOL    HW270712   6.657   7.992  11.959
22939SOL     OW70713   1.055   1.175   5.164
22939SOL    HW170714   1.016   1.179   5.076
22939SOL    HW270715   1.128   1.236   5.161
22940SOL     OW70716   2.218  10.317  14.620
22940SOL    HW170717   2.259  10.257  14.682
22940SOL    HW270718   2.148  10.359  14.669
22941SOL     OW70719   8.177   1.763  14.196
22941SOL    HW170720   8.185   1.765  14.291
22941SOL    HW270721   8.109   1.828  14.176
22942SOL     OW70722   4.501   1.487   1.806
22942SOL    HW170723   4.487   1.480   1.900
22942SOL    HW270724   4.437   1.552   1.777
22943SOL     OW70725  11.740   1.699   0.824
22943SOL    HW170726  11.825   1.657   0.838
22943SOL    HW270727  11.737   1.768   0.891
22944SOL     OW70728   9.140  10.227   8.408
22944SOL    HW170729   9.105  10.187   8.328
22944SOL    HW270730   9.063  10.246   8.461
22945SOL     OW70731   6.287   6.506   8.132
22945SOL    HW170732   6.358   6.460   8.088
22945SOL    HW270733   6.311   6.503   8.225
22946SOL     OW70734   8.074   5.483   9.700
22946SOL    HW170735   8.063   5.423   9.773
22946SOL    HW270736   8.135   5.438   9.641
22947SOL     OW70737   0.603   0.058  12.437
22947SOL    HW170738   0.544   0.130  12.457
22947SOL    HW270739   0.658   0.090  12.365
22948SOL     OW70740  12.631  12.013   3.292
22948SOL    HW170741  12.681  11.945   3.247
22948SOL    HW270742  12.560  12.035   3.231
22949SOL     OW70743   2.491   4.862   7.690
22949SOL    HW170744   2.568   4.898   7.647
22949SOL    HW270745   2.418   4.888   7.634
22950SOL     OW70746   3.501   5.932  13.984
22950SOL    HW170747   3.421   5.977  13.957
22950SOL    HW270748   3.471   5.847  14.015
22951SOL     OW70749   2.970   2.930   4.554
22951SOL    HW170750   2.978   2.885   4.638
22951SOL    HW270751   3.008   3.017   4.569
22952SOL     OW70752  13.986   8.309   1.170
22952SOL    HW170753  14.064   8.339   1.217
22952SOL    HW270754  13.979   8.216   1.193
22953SOL     OW70755   5.020  12.972   7.839
22953SOL    HW170756   5.043  13.063   7.816
22953SOL    HW270757   4.945  12.981   7.898
22954SOL     OW70758   9.131   5.347   0.047
22954SOL    HW170759   9.050   5.397   0.060
22954SOL    HW270760   9.193   5.412   0.014
22955SOL     OW70761   6.851   6.439   6.142
22955SOL    HW170762   6.836   6.493   6.064
22955SOL    HW270763   6.785   6.370   6.137
22956SOL     OW70764   8.654   6.632  10.084
22956SOL    HW170765   8.665   6.538  10.065
22956SOL    HW270766   8.575   6.657  10.035
22957SOL     OW70767   3.069   7.587   1.749
22957SOL    HW170768   3.125   7.558   1.677
22957SOL    HW270769   3.126   7.584   1.826
22958SOL     OW70770   0.193  11.533  13.703
22958SOL    HW170771   0.189  11.474  13.778
22958SOL    HW270772   0.109  11.579  13.704
22959SOL     OW70773   0.719   1.203  11.840
22959SOL    HW170774   0.691   1.161  11.920
22959SOL    HW270775   0.730   1.295  11.864
22960SOL     OW70776   0.829   3.703   4.468
22960SOL    HW170777   0.798   3.716   4.557
22960SOL    HW270778   0.897   3.636   4.476
22961SOL     OW70779   5.762   6.580   2.208
22961SOL    HW170780   5.826   6.650   2.211
22961SOL    HW270781   5.808   6.503   2.240
22962SOL     OW70782  13.656   4.250   0.321
22962SOL    HW170783  13.700   4.188   0.264
22962SOL    HW270784  13.601   4.303   0.262
22963SOL     OW70785  11.647   2.413  10.176
22963SOL    HW170786  11.567   2.362  10.185
22963SOL    HW270787  11.619   2.496  10.137
22964SOL     OW70788   1.636   1.192   8.292
22964SOL    HW170789   1.580   1.269   8.299
22964SOL    HW270790   1.602   1.144   8.217
22965SOL     OW70791   4.292  10.789  12.330
22965SOL    HW170792   4.277  10.880  12.306
22965SOL    HW270793   4.343  10.752  12.258
22966SOL     OW70794   9.191   4.727   3.500
22966SOL    HW170795   9.246   4.756   3.428
22966SOL    HW270796   9.115   4.786   3.499
22967SOL     OW70797   6.188  13.474  12.412
22967SOL    HW170798   6.237  13.453  12.332
22967SOL    HW270799   6.100  13.442  12.394
22968SOL     OW70800   8.351   2.648   4.727
22968SOL    HW170801   8.430   2.593   4.724
22968SOL    HW270802   8.282   2.588   4.755
22969SOL     OW70803   0.887   7.247   7.829
22969SOL    HW170804   0.975   7.257   7.867
22969SOL    HW270805   0.831   7.301   7.885
22970SOL     OW70806  11.769   5.445  11.233
22970SOL    HW170807  11.797   5.463  11.143
22970SOL    HW270808  11.804   5.517  11.284
22971SOL     OW70809  13.963   4.422   2.614
22971SOL    HW170810  13.923   4.357   2.672
22971SOL    HW270811  14.024   4.470   2.670
22972SOL     OW70812  13.503   1.410   3.588
22972SOL    HW170813  13.478   1.408   3.681
22972SOL    HW270814  13.468   1.328   3.552
22973SOL     OW70815   6.579   2.896   1.050
22973SOL    HW170816   6.503   2.860   1.095
22973SOL    HW270817   6.586   2.844   0.969
22974SOL     OW70818   3.587   0.286   9.734
22974SOL    HW170819   3.563   0.371   9.697
22974SOL    HW270820   3.612   0.306   9.825
22975SOL     OW70821  13.064  11.547   0.314
22975SOL    HW170822  12.989  11.501   0.351
22975SOL    HW270823  13.138  11.521   0.369
22976SOL     OW70824   3.700  10.472  12.838
22976SOL    HW170825   3.734  10.560  12.855
22976SOL    HW270826   3.605  10.481  12.840
22977SOL     OW70827   2.726  12.939   1.426
22977SOL    HW170828   2.681  13.018   1.457
22977SOL    HW270829   2.815  12.948   1.458
22978SOL     OW70830   0.570   9.199   6.959
22978SOL    HW170831   0.513   9.258   6.910
22978SOL    HW270832   0.608   9.254   7.028
22979SOL     OW70833  12.835   6.989   2.145
22979SOL    HW170834  12.831   6.923   2.075
22979SOL    HW270835  12.764   6.966   2.204
22980SOL     OW70836   5.617   4.800   6.449
22980SOL    HW170837   5.577   4.717   6.422
22980SOL    HW270838   5.587   4.863   6.383
22981SOL     OW70839   7.616  13.795   4.261
22981SOL    HW170840   7.578  13.738   4.328
22981SOL    HW270841   7.541  13.845   4.228
22982SOL     OW70842   8.374   9.495   5.855
22982SOL    HW170843   8.439   9.542   5.803
22982SOL    HW270844   8.381   9.404   5.826
22983SOL     OW70845   1.025  13.547   3.728
22983SOL    HW170846   1.051  13.599   3.652
22983SOL    HW270847   1.051  13.457   3.706
22984SOL     OW70848  14.418   2.250   2.869
22984SOL    HW170849  14.415   2.305   2.791
22984SOL    HW270850  14.326   2.237   2.892
22985SOL     OW70851  11.159   5.286   5.374
22985SOL    HW170852  11.167   5.199   5.335
22985SOL    HW270853  11.142   5.344   5.299
22986SOL     OW70854  10.238   1.874   8.592
22986SOL    HW170855  10.148   1.886   8.562
22986SOL    HW270856  10.261   1.786   8.563
22987SOL     OW70857   1.977   7.111  13.822
22987SOL    HW170858   1.897   7.114  13.876
22987SOL    HW270859   1.956   7.048  13.753
22988SOL     OW70860  10.768  12.311  10.304
22988SOL    HW170861  10.715  12.309  10.225
22988SOL    HW270862  10.827  12.385  10.292
22989SOL     OW70863   1.062  13.537   8.180
22989SOL    HW170864   1.065  13.591   8.101
22989SOL    HW270865   1.150  13.500   8.186
22990SOL     OW70866  12.490  12.990   0.677
22990SOL    HW170867  12.570  12.946   0.705
22990SOL    HW270868  12.497  13.079   0.711
22991SOL     OW70869   6.231  11.485   3.599
22991SOL    HW170870   6.231  11.479   3.694
22991SOL    HW270871   6.153  11.537   3.578
22992SOL     OW70872  14.338  10.193   8.816
22992SOL    HW170873  14.403  10.173   8.883
22992SOL    HW270874  14.266  10.132   8.832
22993SOL     OW70875   8.224   8.014   0.192
22993SOL    HW170876   8.249   8.072   0.263
22993SOL    HW270877   8.271   8.049   0.116
22994SOL     OW70878   1.731   3.774   2.558
22994SOL    HW170879   1.666   3.722   2.511
22994SOL    HW270880   1.698   3.776   2.648
22995SOL     OW70881  13.767   5.246   3.167
22995SOL    HW170882  13.681   5.207   3.154
22995SOL    HW270883  13.768   5.323   3.110
22996SOL     OW70884   3.723   8.383   5.730
22996SOL    HW170885   3.699   8.467   5.691
22996SOL    HW270886   3.659   8.369   5.800
22997SOL     OW70887   6.192  13.109   9.091
22997SOL    HW170888   6.231  13.170   9.153
22997SOL    HW270889   6.182  13.160   9.011
22998SOL     OW70890   7.015   3.738   5.532
22998SOL    HW170891   6.935   3.791   5.528
22998SOL    HW270892   6.995   3.670   5.597
22999SOL     OW70893  14.012  10.524  14.492
22999SOL    HW170894  14.021  10.521  14.587
22999SOL    HW270895  14.004  10.432  14.466
23000SOL     OW70896   9.968   8.319  11.663
23000SOL    HW170897   9.920   8.401  11.680
23000SOL    HW270898   9.945   8.263  11.737
23001SOL     OW70899   2.165   9.970   9.699
23001SOL    HW170900   2.104   9.986   9.627
23001SOL    HW270901   2.139   9.885   9.735
23002SOL     OW70902   2.296  10.133  14.240
23002SOL    HW170903   2.375  10.133  14.185
23002SOL    HW270904   2.231  10.181  14.188
23003SOL     OW70905   4.543   2.139  12.121
23003SOL    HW170906   4.576   2.215  12.073
23003SOL    HW270907   4.599   2.133  12.198
23004SOL     OW70908   1.282   5.193  12.583
23004SOL    HW170909   1.215   5.125  12.590
23004SOL    HW270910   1.313   5.188  12.493
23005SOL     OW70911   2.377   1.952  10.440
23005SOL    HW170912   2.380   1.996  10.525
23005SOL    HW270913   2.311   2.001  10.390
23006SOL     OW70914   7.903   6.136  13.576
23006SOL    HW170915   7.843   6.069  13.607
23006SOL    HW270916   7.990   6.098  13.587
23007SOL     OW70917  13.625   7.855  14.755
23007SOL    HW170918  13.568   7.864  14.679
23007SOL    HW270919  13.689   7.926  14.746
23008SOL     OW70920   5.815   3.522   1.416
23008SOL    HW170921   5.882   3.565   1.363
23008SOL    HW270922   5.744   3.585   1.419
23009SOL     OW70923   2.737  10.115   3.250
23009SOL    HW170924   2.794  10.053   3.204
23009SOL    HW270925   2.773  10.201   3.229
23010SOL     OW70926   8.014   6.133   0.508
23010SOL    HW170927   8.054   6.081   0.438
23010SOL    HW270928   7.939   6.175   0.466
23011SOL     OW70929   6.789   4.389   5.759
23011SOL    HW170930   6.837   4.460   5.715
23011SOL    HW270931   6.836   4.376   5.841
23012SOL     OW70932  14.263   3.859   6.839
23012SOL    HW170933  14.235   3.774   6.873
23012SOL    HW270934  14.185   3.915   6.845
23013SOL     OW70935   7.692   7.336   3.916
23013SOL    HW170936   7.678   7.265   3.978
23013SOL    HW270937   7.729   7.407   3.968
23014SOL     OW70938  10.127  11.894   4.379
23014SOL    HW170939  10.083  11.810   4.395
23014SOL    HW270940  10.206  11.871   4.330
23015SOL     OW70941  14.007  11.885   2.805
23015SOL    HW170942  14.019  11.979   2.790
23015SOL    HW270943  14.030  11.844   2.722
23016SOL     OW70944  11.973  10.463   5.552
23016SOL    HW170945  11.988  10.530   5.618
23016SOL    HW270946  11.886  10.482   5.517
23017SOL     OW70947   7.955  12.595  10.534
23017SOL    HW170948   8.038  12.574  10.491
23017SOL    HW270949   7.934  12.684  10.504
23018SOL     OW70950   2.161   0.519  14.848
23018SOL    HW170951   2.090   0.579  14.827
23018SOL    HW270952   2.123   0.432  14.839
23019SOL     OW70953  13.102  13.614   4.096
23019SOL    HW170954  13.037  13.552   4.061
23019SOL    HW270955  13.143  13.568   4.169
23020SOL     OW70956   1.544  12.934   0.152
23020SOL    HW170957   1.469  12.914   0.097
23020SOL    HW270958   1.597  12.995   0.100
23021SOL     OW70959  14.329   6.469   1.654
23021SOL    HW170960  14.320   6.379   1.624
23021SOL    HW270961  14.405   6.467   1.713
23022SOL     OW70962  14.412  13.548  11.914
23022SOL    HW170963  14.434  13.633  11.875
23022SOL    HW270964  14.494  13.520  11.956
23023SOL     OW70965   9.536   8.707   0.436
23023SOL    HW170966   9.522   8.700   0.341
23023SOL    HW270967   9.448   8.722   0.471
23024SOL     OW70968   0.730   7.003   4.229
23024SOL    HW170969   0.777   6.946   4.289
23024SOL    HW270970   0.791   7.075   4.211
23025SOL     OW70971  14.727   1.569   4.161
23025SOL    HW170972  14.709   1.571   4.067
23025SOL    HW270973  14.646   1.598   4.201
23026SOL     OW70974   1.788   0.777   0.693
23026SOL    HW170975   1.849   0.827   0.639
23026SOL    HW270976   1.717   0.752   0.633
23027SOL     OW70977  11.264   2.355   0.973
23027SOL    HW170978  11.295   2.407   1.047
23027SOL    HW270979  11.249   2.267   1.009
23028SOL     OW70980   1.760   8.640  10.415
23028SOL    HW170981   1.765   8.546  10.400
23028SOL    HW270982   1.762   8.649  10.510
23029SOL     OW70983   6.216   6.857  10.788
23029SOL    HW170984   6.272   6.797  10.838
23029SOL    HW270985   6.268   6.936  10.778
23030SOL     OW70986   5.238   0.696   7.585
23030SOL    HW170987   5.197   0.643   7.518
23030SOL    HW270988   5.181   0.772   7.594
23031SOL     OW70989   6.071   8.501  12.185
23031SOL    HW170990   5.987   8.531  12.220
23031SOL    HW270991   6.114   8.457  12.259
23032SOL     OW70992   4.921   7.385  12.876
23032SOL    HW170993   4.953   7.295  12.882
23032SOL    HW270994   4.963   7.421  12.798
23033SOL     OW70995   8.558   6.350   3.238
23033SOL    HW170996   8.651   6.358   3.259
23033SOL    HW270997   8.536   6.433   3.195
23034SOL     OW70998  12.290   9.474   1.699
23034SOL    HW170999  12.259   9.526   1.625
23034SOL    HW271000  12.244   9.510   1.775
23035SOL     OW71001   0.620  11.462   0.042
23035SOL    HW171002   0.571  11.401   0.096
23035SOL    HW271003   0.630  11.418  14.836
23036SOL     OW71004  10.891   6.902  12.949
23036SOL    HW171005  10.980   6.868  12.936
23036SOL    HW271006  10.834   6.836  12.907
23037SOL     OW71007  11.452  13.001   2.455
23037SOL    HW171008  11.389  13.038   2.517
23037SOL    HW271009  11.537  13.033   2.485
23038SOL     OW71010   4.006   1.309   8.778
23038SOL    HW171011   4.036   1.398   8.757
23038SOL    HW271012   4.086   1.256   8.773
23039SOL     OW71013  11.573   4.311   4.516
23039SOL    HW171014  11.553   4.396   4.555
23039SOL    HW271015  11.601   4.257   4.589
23040SOL     OW71016  11.549  12.515   1.246
23040SOL    HW171017  11.629  12.467   1.270
23040SOL    HW271018  11.533  12.491   1.154
23041SOL     OW71019   3.567  10.649  13.697
23041SOL    HW171020   3.559  10.717  13.765
23041SOL    HW271021   3.581  10.698  13.616
23042SOL     OW71022   5.617   7.062  14.643
23042SOL    HW171023   5.693   7.024  14.688
23042SOL    HW271024   5.649   7.146  14.610
23043SOL     OW71025  10.183   5.827  10.480
23043SOL    HW171026  10.146   5.794  10.399
23043SOL    HW271027  10.119   5.891  10.511
23044SOL     OW71028   4.865   2.257   1.420
23044SOL    HW171029   4.818   2.311   1.357
23044SOL    HW271030   4.819   2.173   1.418
23045SOL     OW71031   4.988  14.209   8.168
23045SOL    HW171032   4.916  14.271   8.165
23045SOL    HW271033   5.033  14.228   8.250
23046SOL     OW71034   7.030  10.593  14.551
23046SOL    HW171035   7.028  10.563  14.460
23046SOL    HW271036   7.109  10.646  14.557
23047SOL     OW71037   9.636   5.881  11.960
23047SOL    HW171038   9.567   5.919  11.906
23047SOL    HW271039   9.629   5.928  12.044
23048SOL     OW71040  13.184   1.880   9.503
23048SOL    HW171041  13.189   1.941   9.430
23048SOL    HW271042  13.249   1.813   9.483
23049SOL     OW71043  12.481  13.434   1.384
23049SOL    HW171044  12.561  13.416   1.335
23049SOL    HW271045  12.411  13.397   1.330
23050SOL     OW71046   5.224   2.144  14.205
23050SOL    HW171047   5.204   2.069  14.261
23050SOL    HW271048   5.269   2.105  14.130
23051SOL     OW71049   5.821   3.686   8.576
23051SOL    HW171050   5.737   3.732   8.578
23051SOL    HW271051   5.843   3.680   8.483
23052SOL     OW71052  14.721  13.229   3.824
23052SOL    HW171053  14.642  13.241   3.771
23052SOL    HW271054  14.715  13.139   3.856
23053SOL     OW71055   2.226   3.130   8.281
23053SOL    HW171056   2.186   3.088   8.357
23053SOL    HW271057   2.163   3.117   8.210
23054SOL     OW71058   6.115  10.109   7.821
23054SOL    HW171059   6.139  10.135   7.732
23054SOL    HW271060   6.179  10.042   7.845
23055SOL     OW71061   5.766   4.445   0.297
23055SOL    HW171062   5.777   4.427   0.391
23055SOL    HW271063   5.675   4.424   0.279
23056SOL     OW71064   3.888   4.789  13.876
23056SOL    HW171065   3.944   4.824  13.946
23056SOL    HW271066   3.887   4.694  13.893
23057SOL     OW71067  11.229   5.140  10.739
23057SOL    HW171068  11.183   5.221  10.718
23057SOL    HW271069  11.247   5.146  10.832
23058SOL     OW71070   3.207   3.893   4.211
23058SOL    HW171071   3.132   3.904   4.153
23058SOL    HW271072   3.174   3.838   4.283
23059SOL     OW71073   0.249  11.808  12.582
23059SOL    HW171074   0.310  11.741  12.552
23059SOL    HW271075   0.305  11.874  12.624
23060SOL     OW71076  10.980   5.389   6.985
23060SOL    HW171077  10.969   5.443   6.907
23060SOL    HW271078  10.994   5.452   7.056
23061SOL     OW71079  12.091  12.946  10.417
23061SOL    HW171080  12.116  13.029  10.457
23061SOL    HW271081  12.111  12.880  10.484
23062SOL     OW71082   2.247   1.403   1.388
23062SOL    HW171083   2.250   1.479   1.446
23062SOL    HW271084   2.188   1.342   1.432
23063SOL     OW71085   4.801   4.250   2.769
23063SOL    HW171086   4.846   4.178   2.814
23063SOL    HW271087   4.723   4.267   2.823
23064SOL     OW71088   0.399   4.349   6.402
23064SOL    HW171089   0.410   4.260   6.435
23064SOL    HW271090   0.367   4.398   6.478
23065SOL     OW71091   1.854   2.872   6.152
23065SOL    HW171092   1.828   2.923   6.229
23065SOL    HW271093   1.948   2.859   6.162
23066SOL     OW71094   9.428   7.142  12.917
23066SOL    HW171095   9.409   7.069  12.858
23066SOL    HW271096   9.342   7.178  12.939
23067SOL     OW71097   5.500   2.125  10.615
23067SOL    HW171098   5.571   2.069  10.647
23067SOL    HW271099   5.491   2.103  10.522
23068SOL     OW71100  14.168   3.807   7.880
23068SOL    HW171101  14.162   3.759   7.962
23068SOL    HW271102  14.237   3.871   7.895
23069SOL     OW71103   5.415   8.279   4.473
23069SOL    HW171104   5.352   8.327   4.420
23069SOL    HW271105   5.498   8.288   4.426
23070SOL     OW71106   8.954   1.577  14.128
23070SOL    HW171107   9.002   1.545  14.052
23070SOL    HW271108   9.014   1.640  14.169
23071SOL     OW71109  12.215   6.003  13.194
23071SOL    HW171110  12.279   6.013  13.264
23071SOL    HW271111  12.132   6.028  13.234
23072SOL     OW71112  13.519   9.363   4.523
23072SOL    HW171113  13.585   9.421   4.485
23072SOL    HW271114  13.570   9.299   4.572
23073SOL     OW71115  13.897  11.055  10.123
23073SOL    HW171116  13.941  10.978  10.159
23073SOL    HW271117  13.911  11.124  10.187
23074SOL     OW71118  14.072  11.910   5.450
23074SOL    HW171119  14.119  11.920   5.533
23074SOL    HW271120  13.993  11.861   5.473
23075SOL     OW71121  10.425  14.743  14.795
23075SOL    HW171122  10.496  14.792  14.753
23075SOL    HW271123  10.348  14.799  14.787
23076SOL     OW71124   8.149  11.259   1.207
23076SOL    HW171125   8.201  11.179   1.207
23076SOL    HW271126   8.213  11.330   1.207
23077SOL     OW71127  10.526   7.645   0.613
23077SOL    HW171128  10.507   7.715   0.550
23077SOL    HW271129  10.444   7.632   0.660
23078SOL     OW71130   6.650   9.770  13.900
23078SOL    HW171131   6.664   9.677  13.882
23078SOL    HW271132   6.720   9.793  13.962
23079SOL     OW71133   3.110  10.244   9.014
23079SOL    HW171134   3.186  10.217   9.065
23079SOL    HW271135   3.115  10.194   8.933
23080SOL     OW71136   7.490   9.064  14.758
23080SOL    HW171137   7.539   9.119  14.696
23080SOL    HW271138   7.523   9.090  14.844
23081SOL     OW71139  13.209   4.811   2.547
23081SOL    HW171140  13.185   4.904   2.548
23081SOL    HW271141  13.175   4.778   2.463
23082SOL     OW71142   6.822   0.174   6.382
23082SOL    HW171143   6.870   0.243   6.334
23082SOL    HW271144   6.891   0.123   6.424
23083SOL     OW71145   6.208   2.378   7.752
23083SOL    HW171146   6.199   2.308   7.817
23083SOL    HW271147   6.303   2.390   7.742
23084SOL     OW71148  13.331  13.030   5.237
23084SOL    HW171149  13.293  12.942   5.241
23084SOL    HW271150  13.410  13.025   5.290
23085SOL     OW71151  11.248  14.561  12.908
23085SOL    HW171152  11.157  14.584  12.931
23085SOL    HW271153  11.267  14.614  12.831
23086SOL     OW71154   7.991   2.672   7.587
23086SOL    HW171155   7.905   2.630   7.592
23086SOL    HW271156   8.049   2.604   7.554
23087SOL     OW71157   8.889  13.790   3.392
23087SOL    HW171158   8.944  13.832   3.326
23087SOL    HW271159   8.939  13.795   3.473
23088SOL     OW71160   2.145   7.764   2.219
23088SOL    HW171161   2.220   7.706   2.208
23088SOL    HW271162   2.121   7.754   2.311
23089SOL     OW71163  12.795   0.998  13.876
23089SOL    HW171164  12.770   1.076  13.826
23089SOL    HW271165  12.712   0.960  13.905
23090SOL     OW71166   6.259   8.562   0.102
23090SOL    HW171167   6.196   8.523   0.042
23090SOL    HW271168   6.269   8.497   0.171
23091SOL     OW71169   5.084  10.290   2.585
23091SOL    HW171170   5.070  10.304   2.492
23091SOL    HW271171   5.159  10.345   2.607
23092SOL     OW71172  12.739   4.348   0.012
23092SOL    HW171173  12.751   4.266   0.059
23092SOL    HW271174  12.815   4.400   0.035
23093SOL     OW71175   9.495   6.317   7.646
23093SOL    HW171176   9.407   6.355   7.645
23093SOL    HW271177   9.503   6.271   7.563
23094SOL     OW71178   3.272  11.477   8.559
23094SOL    HW171179   3.223  11.429   8.625
23094SOL    HW271180   3.207  11.535   8.518
23095SOL     OW71181   6.576   0.406   4.610
23095SOL    HW171182   6.554   0.369   4.695
23095SOL    HW271183   6.506   0.377   4.552
23096SOL     OW71184  13.580   3.783  13.123
23096SOL    HW171185  13.593   3.691  13.097
23096SOL    HW271186  13.563   3.779  13.217
23097SOL     OW71187   3.892  11.220  11.593
23097SOL    HW171188   3.844  11.302  11.576
23097SOL    HW271189   3.823  11.155  11.608
23098SOL     OW71190   7.801  13.329  11.369
23098SOL    HW171191   7.712  13.351  11.397
23098SOL    HW271192   7.789  13.254  11.310
23099SOL     OW71193   6.290   1.219  10.853
23099SOL    HW171194   6.263   1.129  10.871
23099SOL    HW271195   6.361   1.235  10.916
23100SOL     OW71196   6.671  12.933   2.117
23100SOL    HW171197   6.736  12.881   2.164
23100SOL    HW271198   6.589  12.883   2.125
23101SOL     OW71199   9.919   5.344   4.872
23101SOL    HW171200   9.962   5.371   4.953
23101SOL    HW271201   9.968   5.267   4.844
23102SOL     OW71202  10.420   8.363  10.003
23102SOL    HW171203  10.512   8.363  10.026
23102SOL    HW271204  10.415   8.417   9.924
23103SOL     OW71205   6.310   5.473   5.511
23103SOL    HW171206   6.374   5.484   5.441
23103SOL    HW271207   6.355   5.418   5.576
23104SOL     OW71208   3.051   5.045  13.295
23104SOL    HW171209   3.016   5.012  13.378
23104SOL    HW271210   2.993   5.007  13.228
23105SOL     OW71211  12.776  10.040  13.132
23105SOL    HW171212  12.847   9.991  13.090
23105SOL    HW271213  12.708  10.046  13.064
23106SOL     OW71214  13.282  11.978  11.829
23106SOL    HW171215  13.292  11.939  11.916
23106SOL    HW271216  13.238  12.062  11.845
23107SOL     OW71217  12.896   7.697   1.983
23107SOL    HW171218  12.841   7.672   2.057
23107SOL    HW271219  12.960   7.625   1.975
23108SOL     OW71220   4.133   6.326   7.285
23108SOL    HW171221   4.090   6.395   7.235
23108SOL    HW271222   4.225   6.330   7.258
23109SOL     OW71223  12.170   2.155  11.499
23109SOL    HW171224  12.265   2.168  11.498
23109SOL    HW271225  12.136   2.229  11.449
23110SOL     OW71226  10.261   1.507  14.190
23110SOL    HW171227  10.355   1.505  14.172
23110SOL    HW271228  10.238   1.600  14.185
23111SOL     OW71229  11.003   7.674   6.598
23111SOL    HW171230  10.921   7.626   6.611
23111SOL    HW271231  11.035   7.690   6.687
23112SOL     OW71232   3.383   9.195   3.254
23112SOL    HW171233   3.416   9.148   3.177
23112SOL    HW271234   3.335   9.269   3.218
23113SOL     OW71235   9.670  11.753  11.356
23113SOL    HW171236   9.637  11.701  11.429
23113SOL    HW271237   9.765  11.752  11.366
23114SOL     OW71238   0.695   7.390  12.437
23114SOL    HW171239   0.692   7.317  12.375
23114SOL    HW271240   0.783   7.386  12.475
23115SOL     OW71241   8.158  11.425  10.909
23115SOL    HW171242   8.236  11.473  10.882
23115SOL    HW271243   8.153  11.351  10.848
23116SOL     OW71244  11.668  11.206   2.382
23116SOL    HW171245  11.646  11.299   2.393
23116SOL    HW271246  11.739  11.206   2.318
23117SOL     OW71247  14.607   7.989   5.695
23117SOL    HW171248  14.633   7.920   5.633
23117SOL    HW271249  14.672   8.058   5.683
23118SOL     OW71250  10.000   2.268   5.950
23118SOL    HW171251   9.968   2.182   5.976
23118SOL    HW271252   9.974   2.277   5.858
23119SOL     OW71253  10.107   4.811   1.060
23119SOL    HW171254  10.038   4.839   1.120
23119SOL    HW271255  10.084   4.851   0.976
23120SOL     OW71256   2.202   1.777  13.709
23120SOL    HW171257   2.246   1.862  13.703
23120SOL    HW271258   2.205   1.755  13.802
23121SOL     OW71259   0.604  12.228  11.010
23121SOL    HW171260   0.601  12.193  10.922
23121SOL    HW271261   0.560  12.163  11.064
23122SOL     OW71262   2.569  13.874   6.887
23122SOL    HW171263   2.598  13.896   6.798
23122SOL    HW271264   2.637  13.910   6.944
23123SOL     OW71265   3.806   0.446   0.902
23123SOL    HW171266   3.819   0.526   0.951
23123SOL    HW271267   3.815   0.472   0.810
23124SOL     OW71268  10.304  14.698  13.959
23124SOL    HW171269  10.285  14.747  14.039
23124SOL    HW271270  10.227  14.712  13.903
23125SOL     OW71271   5.845   8.467   5.195
23125SOL    HW171272   5.828   8.500   5.284
23125SOL    HW271273   5.761   8.432   5.166
23126SOL     OW71274  14.103   5.950  13.220
23126SOL    HW171275  14.032   5.896  13.185
23126SOL    HW271276  14.064   5.997  13.294
23127SOL     OW71277   4.798   4.974  13.358
23127SOL    HW171278   4.879   4.983  13.307
23127SOL    HW271279   4.728   4.992  13.296
23128SOL     OW71280   7.350  13.910  11.310
23128SOL    HW171281   7.333  13.999  11.340
23128SOL    HW271282   7.309  13.905  11.224
23129SOL     OW71283  12.594   7.511  11.842
23129SOL    HW171284  12.600   7.428  11.797
23129SOL    HW271285  12.530   7.562  11.791
23130SOL     OW71286   5.584  11.769   1.297
23130SOL    HW171287   5.539  11.688   1.322
23130SOL    HW271288   5.614  11.807   1.379
23131SOL     OW71289   2.489  10.246  14.433
23131SOL    HW171290   2.417  10.286  14.482
23131SOL    HW271291   2.454  10.234  14.344
23132SOL     OW71292   6.222   7.403   0.405
23132SOL    HW171293   6.164   7.454   0.349
23132SOL    HW271294   6.230   7.318   0.362
23133SOL     OW71295   5.915  11.888   4.630
23133SOL    HW171296   5.827  11.920   4.608
23133SOL    HW271297   5.909  11.793   4.617
23134SOL     OW71298   1.758   3.651  11.330
23134SOL    HW171299   1.717   3.730  11.365
23134SOL    HW271300   1.738   3.652  11.237
23135SOL     OW71301  11.483  13.230   0.570
23135SOL    HW171302  11.543  13.255   0.499
23135SOL    HW271303  11.455  13.142   0.548
23136SOL     OW71304  13.992  11.179   2.007
23136SOL    HW171305  14.039  11.129   2.073
23136SOL    HW271306  14.011  11.271   2.028
23137SOL     OW71307   3.332   5.045  11.134
23137SOL    HW171308   3.256   5.035  11.191
23137SOL    HW271309   3.342   4.959  11.093
23138SOL     OW71310  12.657   1.130   7.138
23138SOL    HW171311  12.667   1.146   7.044
23138SOL    HW271312  12.565   1.150   7.155
23139SOL     OW71313   0.076   5.920   7.681
23139SOL    HW171314   0.086   6.000   7.628
23139SOL    HW271315   0.163   5.906   7.720
23140SOL     OW71316   1.476   5.048  14.582
23140SOL    HW171317   1.438   4.999  14.655
23140SOL    HW271318   1.431   5.133  14.585
23141SOL     OW71319  12.928   4.875  11.048
23141SOL    HW171320  12.834   4.858  11.058
23141SOL    HW271321  12.967   4.788  11.039
23142SOL     OW71322  14.201   9.610   2.921
23142SOL    HW171323  14.153   9.532   2.893
23142SOL    HW271324  14.266   9.624   2.852
23143SOL     OW71325  11.368  11.285   3.762
23143SOL    HW171326  11.407  11.226   3.826
23143SOL    HW271327  11.330  11.226   3.696
23144SOL     OW71328   8.846   5.036  11.481
23144SOL    HW171329   8.771   5.009  11.533
23144SOL    HW271330   8.842   4.981  11.402
23145SOL     OW71331   0.738   1.688   7.135
23145SOL    HW171332   0.832   1.693   7.117
23145SOL    HW271333   0.729   1.617   7.198
23146SOL     OW71334  13.855   5.199   4.582
23146SOL    HW171335  13.799   5.152   4.643
23146SOL    HW271336  13.933   5.221   4.633
23147SOL     OW71337   1.370   2.027  12.210
23147SOL    HW171338   1.279   2.047  12.192
23147SOL    HW271339   1.368   1.939  12.250
23148SOL     OW71340   8.078  12.650   3.253
23148SOL    HW171341   7.985  12.638   3.236
23148SOL    HW271342   8.103  12.572   3.302
23149SOL     OW71343   2.440  13.856   2.775
23149SOL    HW171344   2.351  13.849   2.810
23149SOL    HW271345   2.429  13.904   2.692
23150SOL     OW71346  11.115   4.479   4.209
23150SOL    HW171347  11.125   4.403   4.151
23150SOL    HW271348  11.178   4.463   4.280
23151SOL     OW71349   4.120  12.673   6.476
23151SOL    HW171350   4.047  12.725   6.444
23151SOL    HW271351   4.195  12.733   6.476
23152SOL     OW71352   3.408  11.185   1.077
23152SOL    HW171353   3.442  11.096   1.069
23152SOL    HW271354   3.332  11.177   1.134
23153SOL     OW71355   6.996   6.049  13.678
23153SOL    HW171356   6.988   6.108  13.603
23153SOL    HW271357   7.065   5.988  13.653
23154SOL     OW71358   9.966   7.823  10.370
23154SOL    HW171359   9.961   7.910  10.330
23154SOL    HW271360   9.875   7.800  10.387
23155SOL     OW71361   4.253  13.570   0.226
23155SOL    HW171362   4.297  13.485   0.216
23155SOL    HW271363   4.218  13.568   0.315
23156SOL     OW71364  12.383   8.613   8.255
23156SOL    HW171365  12.347   8.699   8.277
23156SOL    HW271366  12.477   8.623   8.267
23157SOL     OW71367   1.768   4.715   6.888
23157SOL    HW171368   1.721   4.632   6.886
23157SOL    HW271369   1.851   4.695   6.930
23158SOL     OW71370   7.294   8.555   9.680
23158SOL    HW171371   7.244   8.531   9.601
23158SOL    HW271372   7.355   8.482   9.692
23159SOL     OW71373   0.368   6.858   6.957
23159SOL    HW171374   0.413   6.779   6.988
23159SOL    HW271375   0.347   6.840   6.866
23160SOL     OW71376  10.845   9.630  14.370
23160SOL    HW171377  10.868   9.686  14.444
23160SOL    HW271378  10.759   9.662  14.343
23161SOL     OW71379  11.620  13.781   8.603
23161SOL    HW171380  11.662  13.783   8.517
23161SOL    HW271381  11.664  13.850   8.652
23162SOL     OW71382  10.087   9.421   6.772
23162SOL    HW171383  10.002   9.465   6.770
23162SOL    HW271384  10.084   9.360   6.698
23163SOL     OW71385   6.818   5.516  10.372
23163SOL    HW171386   6.773   5.537  10.289
23163SOL    HW271387   6.747   5.505  10.435
23164SOL     OW71388   5.513  10.060  14.260
23164SOL    HW171389   5.580  10.121  14.290
23164SOL    HW271390   5.532  10.046  14.168
23165SOL     OW71391  13.603  12.365   1.029
23165SOL    HW171392  13.615  12.279   1.068
23165SOL    HW271393  13.629  12.354   0.937
23166SOL     OW71394   2.848   1.628   4.010
23166SOL    HW171395   2.807   1.668   3.933
23166SOL    HW271396   2.780   1.631   4.078
23167SOL     OW71397   9.760   9.411   9.038
23167SOL    HW171398   9.825   9.410   8.968
23167SOL    HW271399   9.801   9.364   9.110
23168SOL     OW71400  11.006   1.209   3.567
23168SOL    HW171401  11.088   1.235   3.523
23168SOL    HW271402  10.938   1.225   3.501
23169SOL     OW71403   9.192   1.348  14.818
23169SOL    HW171404   9.167   1.401   0.016
23169SOL    HW271405   9.278   1.382  14.792
23170SOL     OW71406  10.617  14.725  11.905
23170SOL    HW171407  10.621  14.629  11.902
23170SOL    HW271408  10.524  14.745  11.896
23171SOL     OW71409   2.913   0.037   8.800
23171SOL    HW171410   2.921  14.821   8.814
23171SOL    HW271411   2.960   0.053   8.718
23172SOL     OW71412  12.432   5.242  10.568
23172SOL    HW171413  12.337   5.235  10.558
23172SOL    HW271414  12.452   5.332  10.544
23173SOL     OW71415   7.565   6.061   1.257
23173SOL    HW171416   7.552   6.156   1.257
23173SOL    HW271417   7.587   6.040   1.166
23174SOL     OW71418   4.631  13.241  13.764
23174SOL    HW171419   4.537  13.242  13.743
23174SOL    HW271420   4.644  13.318  13.819
23175SOL     OW71421   1.009   4.502  14.520
23175SOL    HW171422   0.965   4.493  14.604
23175SOL    HW271423   1.018   4.413  14.487
23176SOL     OW71424   3.773  10.811   4.731
23176SOL    HW171425   3.855  10.835   4.775
23176SOL    HW271426   3.796  10.734   4.679
23177SOL     OW71427   4.916   5.282   6.777
23177SOL    HW171428   4.917   5.354   6.714
23177SOL    HW271429   4.863   5.214   6.735
23178SOL     OW71430  11.926   3.194  10.718
23178SOL    HW171431  11.916   3.099  10.705
23178SOL    HW271432  11.885   3.211  10.802
23179SOL     OW71433   1.989   6.576   6.798
23179SOL    HW171434   2.006   6.534   6.714
23179SOL    HW271435   1.921   6.640   6.779
23180SOL     OW71436   0.891   2.603   1.429
23180SOL    HW171437   0.883   2.692   1.396
23180SOL    HW271438   0.833   2.551   1.372
23181SOL     OW71439   0.437  11.736  12.884
23181SOL    HW171440   0.361  11.788  12.913
23181SOL    HW271441   0.399  11.664  12.834
23182SOL     OW71442   9.331   6.707  12.044
23182SOL    HW171443   9.255   6.658  12.075
23182SOL    HW271444   9.335   6.686  11.951
23183SOL     OW71445   8.942  12.808  12.550
23183SOL    HW171446   8.978  12.886  12.592
23183SOL    HW271447   8.848  12.824  12.546
23184SOL     OW71448   4.498   3.957   7.121
23184SOL    HW171449   4.569   3.967   7.184
23184SOL    HW271450   4.485   4.044   7.085
23185SOL     OW71451   4.740   3.974  11.609
23185SOL    HW171452   4.685   4.039  11.653
23185SOL    HW271453   4.682   3.936  11.542
23186SOL     OW71454   1.249   0.641  11.049
23186SOL    HW171455   1.157   0.626  11.070
23186SOL    HW271456   1.289   0.664  11.133
23187SOL     OW71457   0.290  13.114   6.603
23187SOL    HW171458   0.324  13.203   6.600
23187SOL    HW271459   0.360  13.060   6.567
23188SOL     OW71460   7.114  10.827   9.703
23188SOL    HW171461   7.155  10.750   9.743
23188SOL    HW271462   7.185  10.869   9.654
23189SOL     OW71463   1.729  10.771   1.356
23189SOL    HW171464   1.810  10.820   1.370
23189SOL    HW271465   1.666  10.810   1.416
23190SOL     OW71466   6.078   6.240   0.854
23190SOL    HW171467   5.991   6.257   0.818
23190SOL    HW271468   6.063   6.228   0.948
23191SOL     OW71469   3.663   5.593   5.564
23191SOL    HW171470   3.744   5.549   5.539
23191SOL    HW271471   3.681   5.631   5.650
23192SOL     OW71472   7.212   3.972   3.865
23192SOL    HW171473   7.265   3.976   3.785
23192SOL    HW271474   7.137   4.028   3.846
23193SOL     OW71475   3.477   6.944   2.649
23193SOL    HW171476   3.415   6.878   2.619
23193SOL    HW271477   3.432   6.991   2.719
23194SOL     OW71478   7.717  11.883  13.477
23194SOL    HW171479   7.644  11.902  13.418
23194SOL    HW271480   7.785  11.847  13.420
23195SOL     OW71481   3.113   4.142  10.823
23195SOL    HW171482   3.109   4.189  10.907
23195SOL    HW271483   3.171   4.068  10.840
23196SOL     OW71484   5.532  10.739   3.140
23196SOL    HW171485   5.534  10.832   3.118
23196SOL    HW271486   5.549  10.735   3.234
23197SOL     OW71487   5.779   6.475   1.819
23197SOL    HW171488   5.691   6.490   1.853
23197SOL    HW271489   5.837   6.521   1.879
23198SOL     OW71490   8.793   9.625   9.596
23198SOL    HW171491   8.875   9.576   9.605
23198SOL    HW271492   8.820   9.716   9.584
23199SOL     OW71493   8.738  14.257  12.036
23199SOL    HW171494   8.759  14.339  12.080
23199SOL    HW271495   8.643  14.251  12.041
23200SOL     OW71496   0.349   8.425   3.785
23200SOL    HW171497   0.378   8.334   3.780
23200SOL    HW271498   0.305   8.441   3.702
23201SOL     OW71499   5.893   2.448   1.921
23201SOL    HW171500   5.876   2.416   1.833
23201SOL    HW271501   5.872   2.375   1.978
23202SOL     OW71502   4.750   0.127   0.546
23202SOL    HW171503   4.777   0.080   0.467
23202SOL    HW271504   4.661   0.096   0.563
23203SOL     OW71505  11.257  14.373   0.809
23203SOL    HW171506  11.165  14.370   0.836
23203SOL    HW271507  11.283  14.281   0.802
23204SOL     OW71508  14.230   5.832  14.573
23204SOL    HW171509  14.234   5.748  14.529
23204SOL    HW271510  14.313   5.875  14.551
23205SOL     OW71511   6.671   7.019   9.495
23205SOL    HW171512   6.659   7.043   9.403
23205SOL    HW271513   6.764   7.032   9.511
23206SOL     OW71514   0.811  13.367  14.310
23206SOL    HW171515   0.818  13.341  14.402
23206SOL    HW271516   0.716  13.376  14.296
23207SOL     OW71517   0.575  10.823   8.695
23207SOL    HW171518   0.590  10.874   8.774
23207SOL    HW271519   0.634  10.861   8.630
23208SOL     OW71520   1.739   6.907   8.125
23208SOL    HW171521   1.830   6.894   8.097
23208SOL    HW271522   1.737   6.997   8.159
23209SOL     OW71523   2.136  12.236   5.683
23209SOL    HW171524   2.132  12.330   5.664
23209SOL    HW271525   2.219  12.208   5.645
23210SOL     OW71526  11.920   5.900  10.855
23210SOL    HW171527  12.003   5.940  10.877
23210SOL    HW271528  11.938   5.848  10.777
23211SOL     OW71529  12.884   7.436   0.615
23211SOL    HW171530  12.902   7.517   0.569
23211SOL    HW271531  12.791   7.441   0.637
23212SOL     OW71532  13.526  11.437   2.784
23212SOL    HW171533  13.489  11.369   2.727
23212SOL    HW271534  13.529  11.515   2.728
23213SOL     OW71535   6.850   0.225  14.654
23213SOL    HW171536   6.873   0.264  14.570
23213SOL    HW271537   6.758   0.248  14.667
23214SOL     OW71538   9.181   6.000  11.773
23214SOL    HW171539   9.120   5.952  11.716
23214SOL    HW271540   9.130   6.075  11.804
23215SOL     OW71541   3.452   9.972  14.816
23215SOL    HW171542   3.361   9.977  14.844
23215SOL    HW271543   3.502  10.008   0.012
23216SOL     OW71544   1.289  13.449   2.963
23216SOL    HW171545   1.271  13.378   3.026
23216SOL    HW271546   1.380  13.437   2.939
23217SOL     OW71547   6.117   9.550   6.695
23217SOL    HW171548   6.025   9.543   6.671
23217SOL    HW271549   6.133   9.476   6.753
23218SOL     OW71550  13.427  10.588   9.250
23218SOL    HW171551  13.341  10.591   9.208
23218SOL    HW271552  13.463  10.502   9.226
23219SOL     OW71553   2.841  10.324   3.687
23219SOL    HW171554   2.748  10.318   3.665
23219SOL    HW271555   2.885  10.329   3.602
23220SOL     OW71556  13.971   7.426  10.188
23220SOL    HW171557  14.014   7.512  10.185
23220SOL    HW271558  13.978   7.400  10.280
23221SOL     OW71559   7.125   2.396   2.055
23221SOL    HW171560   7.109   2.488   2.032
23221SOL    HW271561   7.217   2.381   2.033
23222SOL     OW71562   4.516   4.230  13.210
23222SOL    HW171563   4.469   4.149  13.192
23222SOL    HW271564   4.561   4.250  13.128
23223SOL     OW71565  10.732  12.200   0.405
23223SOL    HW171566  10.804  12.172   0.462
23223SOL    HW271567  10.689  12.119   0.379
23224SOL     OW71568   2.878   3.036   4.164
23224SOL    HW171569   2.802   3.046   4.222
23224SOL    HW271570   2.911   2.948   4.182
23225SOL     OW71571   0.194   7.642   8.234
23225SOL    HW171572   0.184   7.671   8.325
23225SOL    HW271573   0.227   7.552   8.242
23226SOL     OW71574  14.759  10.843  14.810
23226SOL    HW171575  14.726  10.784  14.742
23226SOL    HW271576  14.821  10.791  14.860
23227SOL     OW71577   0.472   3.425   0.800
23227SOL    HW171578   0.427   3.432   0.884
23227SOL    HW271579   0.565   3.430   0.822
23228SOL     OW71580   0.880   3.949   4.377
23228SOL    HW171581   0.863   3.855   4.379
23228SOL    HW271582   0.803   3.988   4.418
23229SOL     OW71583   0.587   3.881  11.431
23229SOL    HW171584   0.503   3.905  11.391
23229SOL    HW271585   0.569   3.800  11.478
23230SOL     OW71586   4.477  13.702  10.070
23230SOL    HW171587   4.469  13.731   9.980
23230SOL    HW271588   4.483  13.607  10.064
23231SOL     OW71589   8.789   8.753   8.225
23231SOL    HW171590   8.718   8.754   8.290
23231SOL    HW271591   8.745   8.772   8.142
23232SOL     OW71592   1.841   5.941   2.728
23232SOL    HW171593   1.789   6.009   2.771
23232SOL    HW271594   1.781   5.867   2.718
23233SOL     OW71595   6.281  11.213   7.493
23233SOL    HW171596   6.351  11.150   7.476
23233SOL    HW271597   6.221  11.167   7.552
23234SOL     OW71598   1.696   1.821   8.228
23234SOL    HW171599   1.640   1.811   8.151
23234SOL    HW271600   1.776   1.773   8.206
23235SOL     OW71601   3.486   9.802  10.688
23235SOL    HW171602   3.448   9.732  10.634
23235SOL    HW271603   3.505   9.872  10.626
23236SOL     OW71604  10.290   7.280   1.259
23236SOL    HW171605  10.377   7.320   1.265
23236SOL    HW271606  10.248   7.326   1.186
23237SOL     OW71607   8.272   4.903  14.042
23237SOL    HW171608   8.216   4.925  14.117
23237SOL    HW271609   8.325   4.829  14.073
23238SOL     OW71610   7.789   6.062  11.322
23238SOL    HW171611   7.766   5.997  11.256
23238SOL    HW271612   7.765   6.146  11.283
23239SOL     OW71613   4.291   3.079   1.834
23239SOL    HW171614   4.210   3.042   1.799
23239SOL    HW271615   4.326   3.131   1.762
23240SOL     OW71616  10.892  10.618   0.214
23240SOL    HW171617  10.860  10.665   0.138
23240SOL    HW271618  10.826  10.551   0.232
23241SOL     OW71619  12.594  14.637   0.124
23241SOL    HW171620  12.571  14.640   0.031
23241SOL    HW271621  12.624  14.548   0.139
23242SOL     OW71622   6.846  14.322   3.497
23242SOL    HW171623   6.906  14.374   3.551
23242SOL    HW271624   6.784  14.283   3.559
23243SOL     OW71625  14.079   6.967   4.663
23243SOL    HW171626  14.106   6.918   4.741
23243SOL    HW271627  14.153   6.958   4.603
23244SOL     OW71628  10.851   6.269   4.356
23244SOL    HW171629  10.942   6.280   4.380
23244SOL    HW271630  10.807   6.347   4.389
23245SOL     OW71631  11.106   3.932  13.555
23245SOL    HW171632  11.060   3.885  13.624
23245SOL    HW271633  11.120   4.020  13.590
23246SOL     OW71634   5.349   5.467   8.862
23246SOL    HW171635   5.380   5.377   8.852
23246SOL    HW271636   5.417   5.511   8.914
23247SOL     OW71637   9.771   2.905  10.344
23247SOL    HW171638   9.716   2.835  10.380
23247SOL    HW271639   9.852   2.900  10.394
23248SOL     OW71640  12.557  10.187   9.496
23248SOL    HW171641  12.555  10.137   9.578
23248SOL    HW271642  12.545  10.278   9.523
23249SOL     OW71643   5.813   0.830   1.919
23249SOL    HW171644   5.870   0.880   1.861
23249SOL    HW271645   5.847   0.847   2.007
23250SOL     OW71646   2.925   8.174   9.490
23250SOL    HW171647   2.934   8.215   9.404
23250SOL    HW271648   2.840   8.131   9.488
23251SOL     OW71649  11.313   7.366   0.494
23251SOL    HW171650  11.339   7.277   0.471
23251SOL    HW271651  11.319   7.369   0.590
23252SOL     OW71652  14.453  13.940  11.003
23252SOL    HW171653  14.446  13.852  11.041
23252SOL    HW271654  14.537  13.973  11.035
23253SOL     OW71655   4.074  14.485   9.862
23253SOL    HW171656   4.137  14.514   9.797
23253SOL    HW271657   4.124  14.476   9.943
23254SOL     OW71658   8.878   3.879  10.282
23254SOL    HW171659   8.827   3.907  10.358
23254SOL    HW271660   8.949   3.943  10.275
23255SOL     OW71661   6.030   4.217  14.428
23255SOL    HW171662   5.958   4.203  14.490
23255SOL    HW271663   6.101   4.162  14.460
23256SOL     OW71664  11.352  10.102   0.082
23256SOL    HW171665  11.382  10.016   0.052
23256SOL    HW271666  11.276  10.083   0.138
23257SOL     OW71667   9.933  13.108   0.647
23257SOL    HW171668   9.940  13.015   0.626
23257SOL    HW271669   9.988  13.119   0.725
23258SOL     OW71670   2.717   1.239  11.326
23258SOL    HW171671   2.799   1.194  11.344
23258SOL    HW271672   2.737   1.332  11.336
23259SOL     OW71673   7.612   9.931   6.160
23259SOL    HW171674   7.593   9.948   6.253
23259SOL    HW271675   7.673  10.000   6.135
23260SOL     OW71676   8.244   6.938  13.540
23260SOL    HW171677   8.240   7.027  13.576
23260SOL    HW271678   8.153   6.914  13.525
23261SOL     OW71679   1.511  13.091  13.634
23261SOL    HW171680   1.509  13.003  13.596
23261SOL    HW271681   1.564  13.142  13.573
23262SOL     OW71682   7.286   8.720   7.628
23262SOL    HW171683   7.243   8.639   7.655
23262SOL    HW271684   7.363   8.691   7.579
23263SOL     OW71685  13.628   3.801   9.721
23263SOL    HW171686  13.712   3.835   9.690
23263SOL    HW271687  13.563   3.845   9.666
23264SOL     OW71688  12.646   1.908  12.888
23264SOL    HW171689  12.669   1.852  12.813
23264SOL    HW271690  12.649   1.997  12.853
23265SOL     OW71691   2.266   0.021   2.324
23265SOL    HW171692   2.298   0.085   2.388
23265SOL    HW271693   2.181   0.054   2.297
23266SOL     OW71694   1.313  10.107  11.548
23266SOL    HW171695   1.327  10.012  11.556
23266SOL    HW271696   1.399  10.146  11.566
23267SOL     OW71697   6.175   5.869  13.545
23267SOL    HW171698   6.265   5.896  13.526
23267SOL    HW271699   6.123   5.949  13.536
23268SOL     OW71700   8.046   1.835   6.598
23268SOL    HW171701   8.063   1.817   6.505
23268SOL    HW271702   7.976   1.901   6.597
23269SOL     OW71703  12.104   1.002  13.109
23269SOL    HW171704  12.124   0.913  13.137
23269SOL    HW271705  12.008   1.007  13.109
23270SOL     OW71706  11.868   9.917   7.122
23270SOL    HW171707  11.926   9.993   7.118
23270SOL    HW271708  11.864   9.885   7.032
23271SOL     OW71709   7.523  10.147  14.226
23271SOL    HW171710   7.446  10.192  14.260
23271SOL    HW271711   7.529  10.175  14.135
23272SOL     OW71712  10.478   7.191   4.278
23272SOL    HW171713  10.432   7.200   4.362
23272SOL    HW271714  10.411   7.210   4.212
23273SOL     OW71715  13.316  11.816  12.981
23273SOL    HW171716  13.358  11.731  12.964
23273SOL    HW271717  13.378  11.863  13.036
23274SOL     OW71718   8.190  14.003  12.707
23274SOL    HW171719   8.246  14.061  12.657
23274SOL    HW271720   8.180  13.925  12.652
23275SOL     OW71721   9.793   4.002  13.314
23275SOL    HW171722   9.852   4.022  13.241
23275SOL    HW271723   9.745   4.083  13.329
23276SOL     OW71724   3.741   3.135  13.881
23276SOL    HW171725   3.758   3.223  13.914
23276SOL    HW271726   3.649   3.117  13.904
23277SOL     OW71727  11.068   4.604   2.641
23277SOL    HW171728  11.152   4.562   2.621
23277SOL    HW271729  11.004   4.533   2.636
23278SOL     OW71730   1.169   6.240   6.501
23278SOL    HW171731   1.080   6.257   6.471
23278SOL    HW271732   1.160   6.169   6.564
23279SOL     OW71733  11.264   5.139   4.619
23279SOL    HW171734  11.293   5.213   4.672
23279SOL    HW271735  11.315   5.065   4.651
23280SOL     OW71736   8.232  11.574   9.455
23280SOL    HW171737   8.182  11.493   9.442
23280SOL    HW271738   8.311  11.546   9.500
23281SOL     OW71739  12.289   5.418   8.103
23281SOL    HW171740  12.279   5.359   8.029
23281SOL    HW271741  12.351   5.484   8.073
23282SOL     OW71742   7.128   6.563   1.251
23282SOL    HW171743   7.094   6.652   1.242
23282SOL    HW271744   7.105   6.519   1.168
23283SOL     OW71745   7.510   2.498  14.469
23283SOL    HW171746   7.567   2.422  14.482
23283SOL    HW271747   7.421   2.464  14.480
23284SOL     OW71748   8.180  12.561   0.063
23284SOL    HW171749   8.100  12.573   0.114
23284SOL    HW271750   8.154  12.582  14.850
23285SOL     OW71751  11.134  10.240   2.773
23285SOL    HW171752  11.111  10.290   2.695
23285SOL    HW271753  11.227  10.258   2.788
23286SOL     OW71754   9.760   3.736  14.022
23286SOL    HW171755   9.746   3.754  14.115
23286SOL    HW271756   9.776   3.642  14.017
23287SOL     OW71757  14.736  14.251   9.613
23287SOL    HW171758  14.663  14.300   9.576
23287SOL    HW271759  14.793  14.233   9.538
23288SOL     OW71760   3.674   7.179   9.443
23288SOL    HW171761   3.603   7.206   9.500
23288SOL    HW271762   3.630   7.144   9.365
23289SOL     OW71763  11.113   3.074   1.313
23289SOL    HW171764  11.061   3.002   1.276
23289SOL    HW271765  11.163   3.033   1.384
23290SOL     OW71766  13.737   8.417   0.662
23290SOL    HW171767  13.820   8.421   0.710
23290SOL    HW271768  13.682   8.484   0.703
23291SOL     OW71769   9.383  14.761   6.700
23291SOL    HW171770   9.449  14.809   6.751
23291SOL    HW271771   9.301  14.806   6.718
23292SOL     OW71772  11.900   0.865   4.232
23292SOL    HW171773  11.931   0.783   4.271
23292SOL    HW271774  11.815   0.842   4.193
23293SOL     OW71775   3.760   1.966  14.381
23293SOL    HW171776   3.759   1.905  14.308
23293SOL    HW271777   3.675   1.953  14.424
23294SOL     OW71778   4.114  12.099   4.561
23294SOL    HW171779   4.080  12.129   4.645
23294SOL    HW271780   4.198  12.143   4.552
23295SOL     OW71781  10.897   7.524   3.968
23295SOL    HW171782  10.956   7.475   4.025
23295SOL    HW271783  10.811   7.515   4.009
23296SOL     OW71784   0.285   5.965   0.209
23296SOL    HW171785   0.314   5.922   0.129
23296SOL    HW271786   0.339   6.044   0.214
23297SOL     OW71787   5.788   0.925  12.718
23297SOL    HW171788   5.694   0.910  12.724
23297SOL    HW271789   5.819   0.860  12.655
23298SOL     OW71790  14.672  11.513   4.057
23298SOL    HW171791  14.595  11.569   4.069
23298SOL    HW271792  14.643  11.426   4.085
23299SOL     OW71793   4.609   4.388  11.837
23299SOL    HW171794   4.521   4.359  11.859
23299SOL    HW271795   4.600   4.482  11.818
23300SOL     OW71796  14.670   1.779   0.780
23300SOL    HW171797  14.614   1.708   0.747
23300SOL    HW271798  14.658   1.776   0.875
23301SOL     OW71799   8.198   0.642   3.158
23301SOL    HW171800   8.224   0.658   3.067
23301SOL    HW271801   8.187   0.729   3.196
23302SOL     OW71802  11.930   3.821  14.365
23302SOL    HW171803  11.887   3.815  14.450
23302SOL    HW271804  11.860   3.808  14.301
23303SOL     OW71805   8.547   8.637   1.120
23303SOL    HW171806   8.481   8.690   1.077
23303SOL    HW271807   8.535   8.549   1.084
23304SOL     OW71808   3.636   5.140   1.263
23304SOL    HW171809   3.678   5.080   1.325
23304SOL    HW271810   3.675   5.225   1.282
23305SOL     OW71811  14.744   9.686   1.397
23305SOL    HW171812  14.723   9.776   1.371
23305SOL    HW271813  14.830   9.693   1.438
23306SOL     OW71814  10.973   8.597   4.219
23306SOL    HW171815  11.026   8.578   4.297
23306SOL    HW271816  10.893   8.546   4.232
23307SOL     OW71817   5.207   1.542   3.424
23307SOL    HW171818   5.263   1.515   3.351
23307SOL    HW271819   5.191   1.462   3.473
23308SOL     OW71820   5.882  11.554  14.799
23308SOL    HW171821   5.960  11.522  14.845
23308SOL    HW271822   5.916  11.600  14.723
23309SOL     OW71823   2.194   8.231   5.601
23309SOL    HW171824   2.134   8.272   5.662
23309SOL    HW271825   2.207   8.296   5.531
23310SOL     OW71826   8.968   0.811  14.027
23310SOL    HW171827   8.878   0.779  14.013
23310SOL    HW271828   9.024   0.740  13.997
23311SOL     OW71829   6.117   5.413  12.667
23311SOL    HW171830   6.176   5.404  12.592
23311SOL    HW271831   6.043   5.355  12.647
23312SOL     OW71832  12.322   6.713   4.389
23312SOL    HW171833  12.252   6.772   4.417
23312SOL    HW271834  12.308   6.702   4.295
23313SOL     OW71835   1.375  12.027  13.974
23313SOL    HW171836   1.402  11.949  13.924
23313SOL    HW271837   1.437  12.032  14.046
23314SOL     OW71838  12.498  10.935   6.805
23314SOL    HW171839  12.441  10.989   6.750
23314SOL    HW271840  12.442  10.863   6.834
23315SOL     OW71841   5.737   6.691  14.830
23315SOL    HW171842   5.793   6.615  14.819
23315SOL    HW271843   5.790   6.765  14.800
23316SOL     OW71844   6.607  13.808   6.504
23316SOL    HW171845   6.521  13.839   6.478
23316SOL    HW271846   6.633  13.746   6.436
23317SOL     OW71847  11.167  13.936   4.472
23317SOL    HW171848  11.254  13.972   4.453
23317SOL    HW271849  11.106  13.999   4.435
23318SOL     OW71850   5.102   9.029   1.662
23318SOL    HW171851   5.101   9.030   1.567
23318SOL    HW271852   5.088   8.937   1.686
23319SOL     OW71853  11.607  10.671   2.840
23319SOL    HW171854  11.663  10.611   2.790
23319SOL    HW271855  11.663  10.704   2.910
23320SOL     OW71856   6.995   3.121   9.907
23320SOL    HW171857   7.080   3.076   9.910
23320SOL    HW271858   7.015   3.212   9.928
23321SOL     OW71859   1.061  10.664   3.718
23321SOL    HW171860   0.971  10.632   3.720
23321SOL    HW271861   1.056  10.752   3.756
23322SOL     OW71862   5.250   1.170   4.580
23322SOL    HW171863   5.275   1.186   4.671
23322SOL    HW271864   5.186   1.239   4.560
23323SOL     OW71865  12.832   9.994   9.611
23323SOL    HW171866  12.908  10.050   9.601
23323SOL    HW271867  12.797  10.015   9.698
23324SOL     OW71868  12.612   1.689  13.653
23324SOL    HW171869  12.566   1.653  13.577
23324SOL    HW271870  12.674   1.620  13.678
23325SOL     OW71871  12.694  14.470   6.396
23325SOL    HW171872  12.737  14.391   6.361
23325SOL    HW271873  12.766  14.524   6.428
23326SOL     OW71874   9.386   1.629  11.863
23326SOL    HW171875   9.398   1.543  11.903
23326SOL    HW271876   9.406   1.616  11.770
23327SOL     OW71877   0.305  10.074   6.816
23327SOL    HW171878   0.321   9.990   6.858
23327SOL    HW271879   0.333  10.060   6.725
23328SOL     OW71880  11.901  14.396   5.278
23328SOL    HW171881  11.887  14.409   5.184
23328SOL    HW271882  11.982  14.442   5.297
23329SOL     OW71883   4.680   4.655  13.148
23329SOL    HW171884   4.735   4.576  13.143
23329SOL    HW271885   4.693   4.688  13.237
23330SOL     OW71886   6.306   5.440   4.013
23330SOL    HW171887   6.366   5.468   4.082
23330SOL    HW271888   6.362   5.400   3.947
23331SOL     OW71889   2.354   0.153  11.944
23331SOL    HW171890   2.298   0.208  11.999
23331SOL    HW271891   2.322   0.168  11.855
23332SOL     OW71892  12.512  13.304   8.329
23332SOL    HW171893  12.526  13.255   8.249
23332SOL    HW271894  12.421  13.285   8.354
23333SOL     OW71895   7.463   3.740   2.588
23333SOL    HW171896   7.439   3.744   2.496
23333SOL    HW271897   7.499   3.652   2.600
23334SOL     OW71898  10.010   4.633   2.869
23334SOL    HW171899   9.952   4.563   2.839
23334SOL    HW271900   9.959   4.713   2.857
23335SOL     OW71901  10.762   8.408   9.716
23335SOL    HW171902  10.793   8.323   9.748
23335SOL    HW271903  10.668   8.407   9.736
23336SOL     OW71904  11.023   1.691   7.250
23336SOL    HW171905  11.006   1.689   7.156
23336SOL    HW271906  11.049   1.782   7.268
23337SOL     OW71907   6.567   6.254   5.323
23337SOL    HW171908   6.597   6.340   5.296
23337SOL    HW271909   6.615   6.193   5.267
23338SOL     OW71910   8.409   8.408   7.812
23338SOL    HW171911   8.413   8.322   7.853
23338SOL    HW271912   8.363   8.463   7.875
23339SOL     OW71913  11.583   0.053   6.832
23339SOL    HW171914  11.633  14.867   6.883
23339SOL    HW271915  11.518   0.001   6.785
23340SOL     OW71916   1.030   8.138   3.901
23340SOL    HW171917   1.032   8.084   3.980
23340SOL    HW271918   1.095   8.099   3.843
23341SOL     OW71919  13.446  10.118   9.436
23341SOL    HW171920  13.379  10.057   9.467
23341SOL    HW271921  13.528  10.068   9.442
23342SOL     OW71922   4.985   7.400   0.451
23342SOL    HW171923   4.952   7.395   0.361
23342SOL    HW271924   4.909   7.428   0.502
23343SOL     OW71925   2.294  10.131  13.410
23343SOL    HW171926   2.292  10.046  13.365
23343SOL    HW271927   2.346  10.115  13.488
23344SOL     OW71928  11.932  10.732   7.904
23344SOL    HW171929  11.980  10.666   7.855
23344SOL    HW271930  11.990  10.755   7.976
23345SOL     OW71931   0.495   0.579   7.638
23345SOL    HW171932   0.513   0.663   7.596
23345SOL    HW271933   0.555   0.518   7.595
23346SOL     OW71934  14.481  11.959   0.854
23346SOL    HW171935  14.412  11.897   0.877
23346SOL    HW271936  14.482  12.022   0.926
23347SOL     OW71937   8.435  14.278   5.252
23347SOL    HW171938   8.430  14.262   5.347
23347SOL    HW271939   8.529  14.275   5.233
23348SOL     OW71940  14.531   9.492   4.854
23348SOL    HW171941  14.504   9.409   4.893
23348SOL    HW271942  14.500   9.558   4.916
23349SOL     OW71943   5.623   5.599   5.813
23349SOL    HW171944   5.539   5.555   5.801
23349SOL    HW271945   5.605   5.669   5.876
23350SOL     OW71946   2.628   7.707  11.681
23350SOL    HW171947   2.562   7.644  11.711
23350SOL    HW271948   2.606   7.788  11.727
23351SOL     OW71949  12.384   5.098   9.907
23351SOL    HW171950  12.356   5.121   9.819
23351SOL    HW271951  12.408   5.181   9.947
23352SOL     OW71952   2.505   0.324   9.337
23352SOL    HW171953   2.596   0.327   9.307
23352SOL    HW271954   2.505   0.256   9.405
23353SOL     OW71955   6.091   0.301   6.652
23353SOL    HW171956   6.174   0.294   6.605
23353SOL    HW271957   6.046   0.219   6.632
23354SOL     OW71958   2.456   6.565   3.033
23354SOL    HW171959   2.479   6.501   2.965
23354SOL    HW271960   2.393   6.519   3.089
23355SOL     OW71961  14.509   5.822   0.743
23355SOL    HW171962  14.451   5.834   0.818
23355SOL    HW271963  14.589   5.871   0.766
23356SOL     OW71964  12.893   7.566  14.078
23356SOL    HW171965  12.835   7.531  14.011
23356SOL    HW271966  12.960   7.615  14.029
23357SOL     OW71967   6.124   4.267   5.449
23357SOL    HW171968   6.148   4.176   5.431
23357SOL    HW271969   6.045   4.262   5.502
23358SOL     OW71970   8.805   6.715  11.854
23358SOL    HW171971   8.739   6.647  11.838
23358SOL    HW271972   8.760   6.780  11.908
23359SOL     OW71973   0.305   0.849   3.486
23359SOL    HW171974   0.224   0.888   3.519
23359SOL    HW271975   0.304   0.760   3.522
23360SOL     OW71976   6.244   7.000  13.607
23360SOL    HW171977   6.157   7.037  13.590
23360SOL    HW271978   6.276   6.973  13.521
23361SOL     OW71979   2.887   1.183  10.542
23361SOL    HW171980   2.840   1.255  10.501
23361SOL    HW271981   2.921   1.220  10.624
23362SOL     OW71982   2.410  11.029  12.605
23362SOL    HW171983   2.393  11.053  12.515
23362SOL    HW271984   2.324  11.012  12.643
23363SOL     OW71985   3.703   4.498   1.552
23363SOL    HW171986   3.637   4.456   1.607
23363SOL    HW271987   3.655   4.567   1.506
23364SOL     OW71988   1.526  13.562  12.774
23364SOL    HW171989   1.485  13.604  12.698
23364SOL    HW271990   1.569  13.634  12.820
23365SOL     OW71991   5.440  13.000   7.940
23365SOL    HW171992   5.473  13.088   7.960
23365SOL    HW271993   5.397  13.010   7.855
23366SOL     OW71994  14.578  14.258   7.472
23366SOL    HW171995  14.563  14.163   7.475
23366SOL    HW271996  14.532  14.292   7.548
23367SOL     OW71997   2.783   0.148  14.209
23367SOL    HW171998   2.701   0.173  14.252
23367SOL    HW271999   2.771   0.057  14.184
23368SOL     OW72000   0.823   7.993   7.192
23368SOL    HW172001   0.783   8.079   7.201
23368SOL    HW272002   0.803   7.965   7.103
23369SOL     OW72003   1.465   0.892   3.922
23369SOL    HW172004   1.501   0.893   4.011
23369SOL    HW272005   1.373   0.870   3.935
23370SOL     OW72006  10.473   6.326   4.196
23370SOL    HW172007  10.519   6.246   4.172
23370SOL    HW272008  10.433   6.308   4.281
23371SOL     OW72009   5.268   3.873   2.935
23371SOL    HW172010   5.242   3.828   2.855
23371SOL    HW272011   5.222   3.826   3.005
23372SOL     OW72012   7.909  12.802   7.582
23372SOL    HW172013   7.819  12.833   7.581
23372SOL    HW272014   7.913  12.733   7.517
23373SOL     OW72015  14.518  10.046   1.947
23373SOL    HW172016  14.608  10.070   1.923
23373SOL    HW272017  14.527   9.959   1.986
23374SOL     OW72018   9.014  11.428  13.881
23374SOL    HW172019   9.087  11.490  13.881
23374SOL    HW272020   8.941  11.478  13.918
23375SOL     OW72021  12.609   4.863   1.233
23375SOL    HW172022  12.669   4.840   1.162
23375SOL    HW272023  12.573   4.948   1.206
23376SOL     OW72024  14.401   3.963  10.303
23376SOL    HW172025  14.315   3.960  10.262
23376SOL    HW272026  14.455   3.904  10.251
23377SOL     OW72027   3.026   0.272  13.783
23377SOL    HW172028   2.964   0.252  13.853
23377SOL    HW272029   3.103   0.218  13.802
23378SOL     OW72030   2.185   9.552  10.733
23378SOL    HW172031   2.268   9.589  10.702
23378SOL    HW272032   2.132   9.544  10.654
23379SOL     OW72033  11.510   8.276   5.726
23379SOL    HW172034  11.415   8.268   5.720
23379SOL    HW272035  11.540   8.273   5.635
23380SOL     OW72036   1.224  11.843  14.180
23380SOL    HW172037   1.170  11.795  14.243
23380SOL    HW272038   1.162  11.901  14.135
23381SOL     OW72039   9.582   5.222   3.284
23381SOL    HW172040   9.522   5.294   3.264
23381SOL    HW272041   9.527   5.144   3.288
23382SOL     OW72042  11.647  10.349   9.265
23382SOL    HW172043  11.618  10.431   9.227
23382SOL    HW272044  11.612  10.281   9.207
23383SOL     OW72045  11.067   7.829   4.609
23383SOL    HW172046  11.036   7.902   4.556
23383SOL    HW272047  11.016   7.834   4.690
23384SOL     OW72048   9.098  10.464   6.956
23384SOL    HW172049   9.115  10.539   7.012
23384SOL    HW272050   9.046  10.499   6.884
23385SOL     OW72051   2.655   5.030   4.282
23385SOL    HW172052   2.712   5.027   4.358
23385SOL    HW272053   2.568   5.043   4.318
23386SOL     OW72054  11.311   6.447  14.474
23386SOL    HW172055  11.310   6.384  14.547
23386SOL    HW272056  11.245   6.413  14.414
23387SOL     OW72057   7.357   0.867   5.645
23387SOL    HW172058   7.448   0.874   5.675
23387SOL    HW272059   7.343   0.946   5.593
23388SOL     OW72060  11.391   1.545  14.187
23388SOL    HW172061  11.386   1.590  14.271
23388SOL    HW272062  11.407   1.615  14.123
23389SOL     OW72063  11.644   6.625   1.600
23389SOL    HW172064  11.633   6.662   1.688
23389SOL    HW272065  11.692   6.693   1.552
23390SOL     OW72066   9.734   1.943   5.751
23390SOL    HW172067   9.642   1.956   5.728
23390SOL    HW272068   9.778   2.023   5.723
23391SOL     OW72069  14.831   0.166   2.816
23391SOL    HW172070  14.747   0.199   2.845
23391SOL    HW272071  14.865   0.116   2.890
23392SOL     OW72072   5.667   0.778   4.941
23392SOL    HW172073   5.584   0.797   4.897
23392SOL    HW272074   5.643   0.722   5.015
23393SOL     OW72075   5.137  13.215  10.832
23393SOL    HW172076   5.104  13.148  10.772
23393SOL    HW272077   5.164  13.167  10.910
23394SOL     OW72078  10.064  11.626   9.443
23394SOL    HW172079   9.989  11.685   9.452
23394SOL    HW272080  10.129  11.661   9.505
23395SOL     OW72081   9.175  13.657  10.203
23395SOL    HW172082   9.220  13.608  10.134
23395SOL    HW272083   9.144  13.737  10.158
23396SOL     OW72084   7.656  13.999   4.550
23396SOL    HW172085   7.679  13.952   4.630
23396SOL    HW272086   7.564  13.975   4.535
23397SOL     OW72087  12.404  12.149   1.771
23397SOL    HW172088  12.483  12.200   1.788
23397SOL    HW272089  12.436  12.069   1.729
23398SOL     OW72090  10.243   7.989  12.479
23398SOL    HW172091  10.247   8.051  12.552
23398SOL    HW272092  10.323   7.937  12.487
23399SOL     OW72093  14.478   0.855  12.947
23399SOL    HW172094  14.419   0.780  12.949
23399SOL    HW272095  14.520   0.851  12.862
23400SOL     OW72096  11.349  11.271   6.961
23400SOL    HW172097  11.422  11.278   7.023
23400SOL    HW272098  11.307  11.357   6.965
23401SOL     OW72099   5.555  12.299  12.445
23401SOL    HW172100   5.472  12.252  12.454
23401SOL    HW272101   5.612  12.261  12.512
23402SOL     OW72102   0.055   4.768   1.111
23402SOL    HW172103   0.091   4.689   1.152
23402SOL    HW272104   0.128   4.804   1.061
23403SOL     OW72105  11.866   6.806   2.872
23403SOL    HW172106  11.820   6.880   2.831
23403SOL    HW272107  11.829   6.729   2.831
23404SOL     OW72108   5.019   5.653  12.638
23404SOL    HW172109   5.016   5.734  12.588
23404SOL    HW272110   5.111   5.643  12.663
23405SOL     OW72111   1.028   4.549   5.030
23405SOL    HW172112   1.091   4.611   4.995
23405SOL    HW272113   1.080   4.488   5.082
23406SOL     OW72114  10.945  14.238   2.592
23406SOL    HW172115  10.891  14.316   2.607
23406SOL    HW272116  11.006  14.264   2.522
23407SOL     OW72117   5.561  13.175  14.411
23407SOL    HW172118   5.571  13.106  14.477
23407SOL    HW272119   5.627  13.154  14.345
23408SOL     OW72120   4.015   2.555  13.089
23408SOL    HW172121   4.038   2.536  13.180
23408SOL    HW272122   3.989   2.471  13.052
23409SOL     OW72123   3.491   5.701   4.446
23409SOL    HW172124   3.583   5.691   4.468
23409SOL    HW272125   3.444   5.656   4.516
23410SOL     OW72126  11.580   6.636  11.571
23410SOL    HW172127  11.490   6.646  11.602
23410SOL    HW272128  11.572   6.640  11.476
23411SOL     OW72129   1.372   6.273   5.589
23411SOL    HW172130   1.282   6.271   5.621
23411SOL    HW272131   1.426   6.276   5.668
23412SOL     OW72132   0.433   7.081   0.591
23412SOL    HW172133   0.340   7.085   0.614
23412SOL    HW272134   0.466   7.169   0.608
23413SOL     OW72135   0.535  13.191   3.363
23413SOL    HW172136   0.606  13.239   3.404
23413SOL    HW272137   0.521  13.235   3.279
23414SOL     OW72138   4.111   5.155   7.516
23414SOL    HW172139   4.180   5.132   7.579
23414SOL    HW272140   4.129   5.100   7.440
23415SOL     OW72141   6.907   2.278   9.651
23415SOL    HW172142   6.998   2.280   9.680
23415SOL    HW272143   6.904   2.210   9.585
23416SOL     OW72144  12.679   7.146   0.214
23416SOL    HW172145  12.681   7.076   0.280
23416SOL    HW272146  12.685   7.227   0.265
23417SOL     OW72147   4.024   1.984   9.499
23417SOL    HW172148   3.935   1.947   9.500
23417SOL    HW272149   4.067   1.946   9.575
23418SOL     OW72150   8.209  12.328   4.994
23418SOL    HW172151   8.236  12.419   4.982
23418SOL    HW272152   8.263  12.296   5.065
23419SOL     OW72153  13.723   1.963   0.712
23419SOL    HW172154  13.799   2.002   0.667
23419SOL    HW272155  13.697   2.029   0.776
23420SOL     OW72156  14.404  11.394   1.393
23420SOL    HW172157  14.478  11.339   1.414
23420SOL    HW272158  14.394  11.387   1.298
23421SOL     OW72159   4.831   9.950  14.188
23421SOL    HW172160   4.769   9.878  14.180
23421SOL    HW272161   4.913   9.915  14.152
23422SOL     OW72162   5.407   2.192   4.531
23422SOL    HW172163   5.453   2.248   4.468
23422SOL    HW272164   5.376   2.118   4.479
23423SOL     OW72165   7.529  10.755  12.485
23423SOL    HW172166   7.548  10.835  12.436
23423SOL    HW272167   7.434  10.746  12.481
23424SOL     OW72168  11.058  14.556   4.786
23424SOL    HW172169  11.087  14.541   4.695
23424SOL    HW272170  11.138  14.550   4.838
23425SOL     OW72171  13.990  14.555   8.308
23425SOL    HW172172  14.046  14.517   8.241
23425SOL    HW272173  13.982  14.486   8.375
23426SOL     OW72174  13.787   2.263  14.165
23426SOL    HW172175  13.794   2.176  14.128
23426SOL    HW272176  13.698   2.291  14.143
23427SOL     OW72177   3.939   2.400   7.072
23427SOL    HW172178   3.913   2.488   7.099
23427SOL    HW272179   4.014   2.379   7.127
23428SOL     OW72180   8.531   5.202  11.760
23428SOL    HW172181   8.502   5.292  11.743
23428SOL    HW272182   8.464   5.166  11.819
23429SOL     OW72183   6.352  13.058  10.127
23429SOL    HW172184   6.327  13.075  10.218
23429SOL    HW272185   6.401  12.976  10.131
23430SOL     OW72186  13.699   6.340  12.444
23430SOL    HW172187  13.739   6.394  12.376
23430SOL    HW272188  13.644   6.278  12.396
23431SOL     OW72189   6.926   1.731   6.874
23431SOL    HW172190   6.918   1.784   6.794
23431SOL    HW272191   6.935   1.796   6.944
23432SOL     OW72192   5.366   8.210   9.995
23432SOL    HW172193   5.340   8.301   9.980
23432SOL    HW272194   5.397   8.208  10.086
23433SOL     OW72195   9.970   0.854   7.764
23433SOL    HW172196   9.885   0.895   7.750
23433SOL    HW272197  10.025   0.888   7.693
23434SOL     OW72198   4.307   3.397   6.102
23434SOL    HW172199   4.274   3.345   6.176
23434SOL    HW272200   4.252   3.475   6.102
23435SOL     OW72201   1.385   8.311  13.745
23435SOL    HW172202   1.423   8.226  13.723
23435SOL    HW272203   1.441   8.345  13.815
23436SOL     OW72204   1.705  13.899  14.617
23436SOL    HW172205   1.777  13.901  14.680
23436SOL    HW272206   1.627  13.881  14.670
23437SOL     OW72207   9.138   6.440   5.352
23437SOL    HW172208   9.118   6.475   5.439
23437SOL    HW272209   9.057   6.453   5.302
23438SOL     OW72210   1.934  11.798   9.128
23438SOL    HW172211   1.966  11.745   9.055
23438SOL    HW272212   1.872  11.742   9.174
23439SOL     OW72213   4.677   0.504   3.741
23439SOL    HW172214   4.730   0.444   3.794
23439SOL    HW272215   4.729   0.516   3.661
23440SOL     OW72216   0.472   1.484   3.497
23440SOL    HW172217   0.497   1.522   3.582
23440SOL    HW272218   0.515   1.399   3.495
23441SOL     OW72219   0.577   6.971  10.332
23441SOL    HW172220   0.556   7.052  10.286
23441SOL    HW272221   0.554   6.988  10.423
23442SOL     OW72222   7.687   0.532   7.826
23442SOL    HW172223   7.605   0.570   7.858
23442SOL    HW272224   7.754   0.594   7.853
23443SOL     OW72225   3.217  12.757   9.013
23443SOL    HW172226   3.136  12.706   9.006
23443SOL    HW272227   3.260  12.745   8.929
23444SOL     OW72228   2.148   5.065   9.251
23444SOL    HW172229   2.126   4.992   9.309
23444SOL    HW272230   2.070   5.075   9.195
23445SOL     OW72231  12.544   3.146   7.469
23445SOL    HW172232  12.560   3.109   7.556
23445SOL    HW272233  12.469   3.097   7.436
23446SOL     OW72234   9.399  12.203   9.191
23446SOL    HW172235   9.446  12.207   9.108
23446SOL    HW272236   9.423  12.283   9.237
23447SOL     OW72237   3.297  10.004  11.853
23447SOL    HW172238   3.340  10.065  11.793
23447SOL    HW272239   3.213   9.984  11.812
23448SOL     OW72240   5.554   5.562   9.062
23448SOL    HW172241   5.600   5.478   9.054
23448SOL    HW272242   5.515   5.559   9.149
23449SOL     OW72243   8.309   4.354   6.947
23449SOL    HW172244   8.272   4.330   7.032
23449SOL    HW272245   8.234   4.385   6.896
23450SOL     OW72246   2.331   1.931   5.089
23450SOL    HW172247   2.330   2.009   5.033
23450SOL    HW272248   2.310   1.963   5.176
23451SOL     OW72249   1.956   1.713   5.635
23451SOL    HW172250   1.880   1.768   5.655
23451SOL    HW272251   2.020   1.774   5.597
23452SOL     OW72252  12.726   8.226  11.811
23452SOL    HW172253  12.708   8.320  11.818
23452SOL    HW272254  12.759   8.202  11.898
23453SOL     OW72255   9.734   1.270  13.882
23453SOL    HW172256   9.810   1.276  13.825
23453SOL    HW272257   9.769   1.240  13.966
23454SOL     OW72258   3.617  13.520  13.797
23454SOL    HW172259   3.706  13.547  13.773
23454SOL    HW272260   3.566  13.529  13.717
23455SOL     OW72261   9.981  12.510   5.656
23455SOL    HW172262   9.927  12.487   5.732
23455SOL    HW272263  10.070  12.509   5.690
23456SOL     OW72264   9.672   7.090   7.918
23456SOL    HW172265   9.651   7.173   7.960
23456SOL    HW272266   9.653   7.105   7.825
23457SOL     OW72267   5.670   2.216   0.362
23457SOL    HW172268   5.665   2.142   0.422
23457SOL    HW272269   5.733   2.276   0.403
23458SOL     OW72270  13.526  13.003  12.701
23458SOL    HW172271  13.436  12.979  12.681
23458SOL    HW272272  13.564  13.025  12.616
23459SOL     OW72273   6.993   5.919   7.701
23459SOL    HW172274   6.988   5.937   7.795
23459SOL    HW272275   7.086   5.923   7.681
23460SOL     OW72276  13.754   8.083  13.215
23460SOL    HW172277  13.790   8.168  13.242
23460SOL    HW272278  13.821   8.020  13.240
23461SOL     OW72279  13.310  12.895  12.539
23461SOL    HW172280  13.345  12.806  12.547
23461SOL    HW272281  13.290  12.904  12.446
23462SOL     OW72282  13.826   8.760   7.180
23462SOL    HW172283  13.752   8.733   7.234
23462SOL    HW272284  13.899   8.706   7.210
23463SOL     OW72285  12.090  14.302  13.507
23463SOL    HW172286  12.166  14.342  13.464
23463SOL    HW272287  12.068  14.362  13.578
23464SOL     OW72288  12.149  13.355   7.857
23464SOL    HW172289  12.135  13.284   7.920
23464SOL    HW272290  12.101  13.328   7.778
23465SOL     OW72291   1.273   7.520  12.178
23465SOL    HW172292   1.247   7.499  12.268
23465SOL    HW272293   1.316   7.605  12.185
23466SOL     OW72294  14.325   8.965  10.905
23466SOL    HW172295  14.282   9.021  10.970
23466SOL    HW272296  14.404   9.013  10.881
23467SOL     OW72297   2.240  10.434   6.334
23467SOL    HW172298   2.326  10.393   6.336
23467SOL    HW272299   2.211  10.435   6.425
23468SOL     OW72300   1.093  12.083   3.202
23468SOL    HW172301   1.177  12.126   3.183
23468SOL    HW272302   1.027  12.145   3.170
23469SOL     OW72303   3.476   1.437  12.347
23469SOL    HW172304   3.564   1.437  12.383
23469SOL    HW272305   3.462   1.528  12.318
23470SOL     OW72306   0.247   4.862   8.436
23470SOL    HW172307   0.232   4.781   8.483
23470SOL    HW272308   0.298   4.916   8.496
23471SOL     OW72309   1.622   4.235   9.713
23471SOL    HW172310   1.661   4.319   9.736
23471SOL    HW272311   1.626   4.232   9.617
23472SOL     OW72312  11.843  12.594  10.192
23472SOL    HW172313  11.915  12.642  10.231
23472SOL    HW272314  11.873  12.503  10.189
23473SOL     OW72315   2.045   4.022   8.821
23473SOL    HW172316   2.001   3.984   8.897
23473SOL    HW272317   1.999   4.105   8.805
23474SOL     OW72318   5.537   5.921   7.310
23474SOL    HW172319   5.521   5.847   7.368
23474SOL    HW272320   5.630   5.940   7.321
23475SOL     OW72321   8.251   1.977   0.316
23475SOL    HW172322   8.173   2.012   0.271
23475SOL    HW272323   8.225   1.889   0.342
23476SOL     OW72324   2.749  14.247  12.497
23476SOL    HW172325   2.714  14.285  12.577
23476SOL    HW272326   2.734  14.313  12.430
23477SOL     OW72327   3.847  12.315   3.305
23477SOL    HW172328   3.936  12.304   3.337
23477SOL    HW272329   3.795  12.252   3.354
23478SOL     OW72330  11.256   8.624   1.820
23478SOL    HW172331  11.216   8.545   1.784
23478SOL    HW272332  11.290   8.671   1.744
23479SOL     OW72333  10.215   4.989  14.674
23479SOL    HW172334  10.247   4.951  14.592
23479SOL    HW272335  10.153   4.925  14.708
23480SOL     OW72336   4.373   5.602   1.855
23480SOL    HW172337   4.403   5.681   1.810
23480SOL    HW272338   4.438   5.536   1.833
23481SOL     OW72339  11.771   1.152  13.343
23481SOL    HW172340  11.771   1.096  13.265
23481SOL    HW272341  11.710   1.109  13.403
23482SOL     OW72342   5.449  10.330   9.298
23482SOL    HW172343   5.529  10.369   9.261
23482SOL    HW272344   5.470  10.237   9.306
23483SOL     OW72345   8.786   3.285   7.286
23483SOL    HW172346   8.841   3.341   7.232
23483SOL    HW272347   8.846   3.220   7.322
23484SOL     OW72348  13.383   4.830   8.537
23484SOL    HW172349  13.375   4.914   8.584
23484SOL    HW272350  13.326   4.840   8.461
23485SOL     OW72351  11.179   1.525  13.208
23485SOL    HW172352  11.246   1.495  13.147
23485SOL    HW272353  11.104   1.548  13.152
23486SOL     OW72354  11.928   9.134  12.673
23486SOL    HW172355  11.920   9.228  12.688
23486SOL    HW272356  12.002   9.107  12.727
23487SOL     OW72357   5.440   9.268   5.585
23487SOL    HW172358   5.375   9.223   5.531
23487SOL    HW272359   5.409   9.359   5.587
23488SOL     OW72360   5.033  14.021   1.031
23488SOL    HW172361   5.070  14.093   1.081
23488SOL    HW272362   4.941  14.044   1.019
23489SOL     OW72363  10.624   8.739   3.561
23489SOL    HW172364  10.613   8.803   3.491
23489SOL    HW272365  10.715   8.713   3.556
23490SOL     OW72366   7.402  14.475   6.390
23490SOL    HW172367   7.449  14.556   6.408
23490SOL    HW272368   7.436  14.446   6.305
23491SOL     OW72369   1.423  11.962   7.323
23491SOL    HW172370   1.459  11.893   7.378
23491SOL    HW272371   1.492  11.980   7.260
23492SOL     OW72372   3.838   8.262   3.297
23492SOL    HW172373   3.902   8.272   3.226
23492SOL    HW272374   3.871   8.189   3.349
23493SOL     OW72375   4.819   4.411   3.503
23493SOL    HW172376   4.809   4.318   3.484
23493SOL    HW272377   4.743   4.453   3.462
23494SOL     OW72378  14.749   9.417   2.288
23494SOL    HW172379  14.806   9.492   2.276
23494SOL    HW272380  14.660   9.450   2.273
23495SOL     OW72381  14.812   1.318  11.976
23495SOL    HW172382  14.738   1.377  11.960
23495SOL    HW272383  14.772   1.236  12.003
23496SOL     OW72384   3.804   6.432   0.907
23496SOL    HW172385   3.829   6.473   0.824
23496SOL    HW272386   3.712   6.456   0.919
23497SOL     OW72387   8.371  10.578   3.436
23497SOL    HW172388   8.339  10.645   3.496
23497SOL    HW272389   8.420  10.517   3.491
23498SOL     OW72390   6.014  12.681   5.138
23498SOL    HW172391   5.924  12.712   5.151
23498SOL    HW272392   6.047  12.732   5.065
23499SOL     OW72393   7.258   8.490   9.411
23499SOL    HW172394   7.304   8.407   9.398
23499SOL    HW272395   7.312   8.554   9.365
23500SOL     OW72396   5.202   7.742   8.529
23500SOL    HW172397   5.222   7.691   8.607
23500SOL    HW272398   5.107   7.733   8.518
23501SOL     OW72399   9.297   8.336   8.072
23501SOL    HW172400   9.385   8.336   8.111
23501SOL    HW272401   9.256   8.415   8.107
23502SOL     OW72402   8.076   8.678   5.119
23502SOL    HW172403   7.997   8.649   5.074
23502SOL    HW272404   8.141   8.609   5.101
23503SOL     OW72405   1.854   0.278   0.355
23503SOL    HW172406   1.781   0.233   0.400
23503SOL    HW272407   1.813   0.355   0.316
23504SOL     OW72408   2.383   2.961   4.640
23504SOL    HW172409   2.453   3.022   4.615
23504SOL    HW272410   2.426   2.876   4.642
23505SOL     OW72411   5.216  11.354   1.835
23505SOL    HW172412   5.285  11.329   1.774
23505SOL    HW272413   5.260  11.361   1.919
23506SOL     OW72414   6.772   9.495  13.016
23506SOL    HW172415   6.754   9.408  13.050
23506SOL    HW272416   6.694   9.546  13.038
23507SOL     OW72417  12.507   5.503   9.484
23507SOL    HW172418  12.552   5.438   9.537
23507SOL    HW272419  12.551   5.585   9.504
23508SOL     OW72420   4.470  14.842   0.248
23508SOL    HW172421   4.476  14.826   0.154
23508SOL    HW272422   4.466   0.060   0.256
23509SOL     OW72423   6.634   7.037   9.817
23509SOL    HW172424   6.638   7.131   9.799
23509SOL    HW272425   6.562   7.005   9.764
23510SOL     OW72426   7.702  13.759   8.340
23510SOL    HW172427   7.765  13.724   8.403
23510SOL    HW272428   7.735  13.731   8.255
23511SOL     OW72429   5.782   0.067   6.342
23511SOL    HW172430   5.784   0.085   6.248
23511SOL    HW272431   5.703   0.015   6.355
23512SOL     OW72432   6.247   5.048   6.026
23512SOL    HW172433   6.270   4.958   6.050
23512SOL    HW272434   6.310   5.071   5.958
23513SOL     OW72435   6.124   8.674  10.263
23513SOL    HW172436   6.207   8.633  10.286
23513SOL    HW272437   6.074   8.605  10.219
23514SOL     OW72438   5.454   4.466   2.812
23514SOL    HW172439   5.533   4.411   2.810
23514SOL    HW272440   5.383   4.406   2.792
23515SOL     OW72441   4.700   5.432   2.736
23515SOL    HW172442   4.685   5.473   2.822
23515SOL    HW272443   4.699   5.338   2.755
23516SOL     OW72444   1.562  10.334  10.256
23516SOL    HW172445   1.530  10.256  10.301
23516SOL    HW272446   1.483  10.377  10.224
23517SOL     OW72447   7.237   2.290   7.691
23517SOL    HW172448   7.312   2.343   7.663
23517SOL    HW272449   7.173   2.354   7.722
23518SOL     OW72450  10.477  11.519   7.687
23518SOL    HW172451  10.508  11.497   7.599
23518SOL    HW272452  10.439  11.437   7.720
23519SOL     OW72453   2.029  13.186   8.628
23519SOL    HW172454   1.959  13.186   8.693
23519SOL    HW272455   2.040  13.278   8.604
23520SOL     OW72456  14.134   0.816   1.238
23520SOL    HW172457  14.073   0.760   1.191
23520SOL    HW272458  14.138   0.897   1.186
23521SOL     OW72459  12.699   7.155  12.418
23521SOL    HW172460  12.715   7.195  12.332
23521SOL    HW272461  12.774   7.097  12.431
23522SOL     OW72462   5.284  13.188   0.673
23522SOL    HW172463   5.311  13.280   0.663
23522SOL    HW272464   5.335  13.156   0.747
23523SOL     OW72465  14.583   3.784   6.078
23523SOL    HW172466  14.535   3.728   6.138
23523SOL    HW272467  14.552   3.758   5.991
23524SOL     OW72468   4.048   2.741   5.113
23524SOL    HW172469   4.024   2.773   5.200
23524SOL    HW272470   3.980   2.678   5.091
23525SOL     OW72471   0.822   7.726  13.461
23525SOL    HW172472   0.906   7.690  13.490
23525SOL    HW272473   0.757   7.672  13.505
23526SOL     OW72474   8.857   5.616  11.043
23526SOL    HW172475   8.868   5.690  10.984
23526SOL    HW272476   8.921   5.551  11.014
23527SOL     OW72477   6.524   5.984  10.308
23527SOL    HW172478   6.609   5.942  10.319
23527SOL    HW272479   6.537   6.048  10.238
23528SOL     OW72480  10.522  12.238   7.888
23528SOL    HW172481  10.430  12.239   7.863
23528SOL    HW272482  10.567  12.286   7.818
23529SOL     OW72483  10.194   4.802   7.645
23529SOL    HW172484  10.118   4.824   7.699
23529SOL    HW272485  10.192   4.707   7.639
23530SOL     OW72486   3.251   5.855   4.405
23530SOL    HW172487   3.342   5.846   4.434
23530SOL    HW272488   3.236   5.779   4.350
23531SOL     OW72489   8.285  11.088   0.807
23531SOL    HW172490   8.303  11.161   0.748
23531SOL    HW272491   8.289  11.010   0.751
23532SOL     OW72492   7.490   6.899   8.982
23532SOL    HW172493   7.547   6.837   8.935
23532SOL    HW272494   7.405   6.891   8.939
23533SOL     OW72495  10.767   6.880   5.876
23533SOL    HW172496  10.725   6.885   5.962
23533SOL    HW272497  10.694   6.882   5.814
23534SOL     OW72498   7.548   8.482  12.319
23534SOL    HW172499   7.529   8.417  12.386
23534SOL    HW272500   7.581   8.558  12.367
23535SOL     OW72501   1.295   7.329   5.817
23535SOL    HW172502   1.308   7.416   5.780
23535SOL    HW272503   1.373   7.313   5.870
23536SOL     OW72504  12.933   6.740   4.916
23536SOL    HW172505  12.876   6.712   4.844
23536SOL    HW272506  12.960   6.829   4.891
23537SOL     OW72507   1.593  13.694  14.792
23537SOL    HW172508   1.533  13.767  14.805
23537SOL    HW272509   1.545  13.633  14.736
23538SOL     OW72510   8.050   4.436  11.607
23538SOL    HW172511   7.964   4.475  11.618
23538SOL    HW272512   8.046   4.390  11.523
23539SOL     OW72513   3.115   2.287   0.882
23539SOL    HW172514   3.133   2.200   0.845
23539SOL    HW272515   3.165   2.289   0.964
23540SOL     OW72516   5.781   0.353  10.137
23540SOL    HW172517   5.747   0.270  10.103
23540SOL    HW272518   5.714   0.417  10.114
23541SOL     OW72519   3.013  13.377  11.086
23541SOL    HW172520   3.045  13.419  11.166
23541SOL    HW272521   3.008  13.284  11.108
23542SOL     OW72522   9.353  14.709   9.502
23542SOL    HW172523   9.297  14.664   9.565
23542SOL    HW272524   9.352  14.653   9.424
23543SOL     OW72525   4.951  11.923   0.339
23543SOL    HW172526   4.974  11.985   0.408
23543SOL    HW272527   4.998  11.843   0.363
23544SOL     OW72528   9.178  13.106   6.223
23544SOL    HW172529   9.162  13.030   6.279
23544SOL    HW272530   9.096  13.116   6.174
23545SOL     OW72531   2.467   6.506   8.635
23545SOL    HW172532   2.432   6.537   8.718
23545SOL    HW272533   2.439   6.572   8.571
23546SOL     OW72534  13.234   4.805   4.528
23546SOL    HW172535  13.146   4.767   4.533
23546SOL    HW272536  13.261   4.790   4.437
23547SOL     OW72537   8.402  14.430   7.064
23547SOL    HW172538   8.317  14.410   7.104
23547SOL    HW272539   8.452  14.349   7.072
23548SOL     OW72540   8.323  13.037  11.151
23548SOL    HW172541   8.230  13.019  11.163
23548SOL    HW272542   8.350  12.976  11.083
23549SOL     OW72543   1.876   2.735   6.967
23549SOL    HW172544   1.781   2.722   6.972
23549SOL    HW272545   1.895   2.743   6.874
23550SOL     OW72546   6.402   7.832   0.501
23550SOL    HW172547   6.427   7.847   0.592
23550SOL    HW272548   6.336   7.763   0.504
23551SOL     OW72549  14.098   7.042  13.160
23551SOL    HW172550  14.046   7.122  13.156
23551SOL    HW272551  14.189   7.073  13.155
23552SOL     OW72552   2.579   6.766   2.915
23552SOL    HW172553   2.562   6.693   2.975
23552SOL    HW272554   2.510   6.759   2.849
23553SOL     OW72555  14.058  13.083   7.848
23553SOL    HW172556  14.089  13.174   7.849
23553SOL    HW272557  14.136  13.031   7.863
23554SOL     OW72558   2.155  14.177  10.460
23554SOL    HW172559   2.221  14.179  10.390
23554SOL    HW272560   2.098  14.252  10.441
23555SOL     OW72561   2.613   6.089   3.712
23555SOL    HW172562   2.672   6.073   3.785
23555SOL    HW272563   2.624   6.182   3.691
23556SOL     OW72564   2.299   1.639   7.323
23556SOL    HW172565   2.351   1.710   7.287
23556SOL    HW272566   2.343   1.616   7.405
23557SOL     OW72567   7.145  13.706   8.332
23557SOL    HW172568   7.240  13.696   8.339
23557SOL    HW272569   7.131  13.801   8.339
23558SOL     OW72570   0.794   3.109   2.750
23558SOL    HW172571   0.857   3.076   2.687
23558SOL    HW272572   0.726   3.149   2.697
23559SOL     OW72573   5.569  14.550   1.897
23559SOL    HW172574   5.632  14.602   1.947
23559SOL    HW272575   5.622  14.504   1.832
23560SOL     OW72576   1.680   8.310  14.463
23560SOL    HW172577   1.720   8.232  14.424
23560SOL    HW272578   1.636   8.278  14.542
23561SOL     OW72579   9.845  14.247  10.901
23561SOL    HW172580   9.783  14.319  10.910
23561SOL    HW272581   9.803  14.186  10.840
23562SOL     OW72582  13.245   7.456   7.898
23562SOL    HW172583  13.323   7.431   7.848
23562SOL    HW272584  13.175   7.457   7.833
23563SOL     OW72585  13.853   8.829  10.277
23563SOL    HW172586  13.941   8.856  10.300
23563SOL    HW272587  13.835   8.755  10.335
23564SOL     OW72588   2.421   0.487  12.484
23564SOL    HW172589   2.486   0.491  12.555
23564SOL    HW272590   2.406   0.393  12.471
23565SOL     OW72591  14.486   3.433  12.579
23565SOL    HW172592  14.465   3.526  12.583
23565SOL    HW272593  14.575   3.430  12.542
23566SOL     OW72594   7.645  10.659   6.306
23566SOL    HW172595   7.667  10.572   6.340
23566SOL    HW272596   7.569  10.686   6.357
23567SOL     OW72597   6.375   5.202  13.337
23567SOL    HW172598   6.394   5.292  13.310
23567SOL    HW272599   6.301   5.210  13.397
23568SOL     OW72600  12.710  12.756  11.069
23568SOL    HW172601  12.749  12.821  11.128
23568SOL    HW272602  12.628  12.732  11.111
23569SOL     OW72603  13.812   9.591   3.756
23569SOL    HW172604  13.771   9.513   3.794
23569SOL    HW272605  13.792   9.661   3.818
23570SOL     OW72606  14.528  13.083  13.754
23570SOL    HW172607  14.613  13.058  13.717
23570SOL    HW272608  14.497  13.003  13.797
23571SOL     OW72609   4.993  10.898   2.686
23571SOL    HW172610   5.085  10.873   2.702
23571SOL    HW272611   4.988  10.989   2.716
23572SOL     OW72612   6.262   2.330   7.290
23572SOL    HW172613   6.280   2.324   7.196
23572SOL    HW272614   6.290   2.419   7.313
23573SOL     OW72615   0.770   9.790   9.150
23573SOL    HW172616   0.782   9.870   9.099
23573SOL    HW272617   0.817   9.723   9.100
23574SOL     OW72618   4.055  14.538  11.634
23574SOL    HW172619   4.072  14.602  11.565
23574SOL    HW272620   4.135  14.486  11.640
23575SOL     OW72621  11.725  14.231   5.775
23575SOL    HW172622  11.792  14.246   5.709
23575SOL    HW272623  11.774  14.217   5.856
23576SOL     OW72624   7.416   9.716   0.627
23576SOL    HW172625   7.413   9.669   0.710
23576SOL    HW272626   7.466   9.796   0.646
23577SOL     OW72627   4.487   3.846   3.726
23577SOL    HW172628   4.498   3.859   3.821
23577SOL    HW272629   4.509   3.931   3.688
23578SOL     OW72630  12.177   9.282   6.995
23578SOL    HW172631  12.219   9.196   6.990
23578SOL    HW272632  12.108   9.278   6.929
23579SOL     OW72633   6.569   6.110   8.617
23579SOL    HW172634   6.563   6.198   8.652
23579SOL    HW272635   6.487   6.097   8.569
23580SOL     OW72636   3.812  10.305   1.622
23580SOL    HW172637   3.730  10.256   1.623
23580SOL    HW272638   3.879  10.239   1.639
23581SOL     OW72639   0.728  14.363   3.991
23581SOL    HW172640   0.688  14.397   3.911
23581SOL    HW272641   0.822  14.361   3.972
23582SOL     OW72642   6.454   7.937  12.522
23582SOL    HW172643   6.475   7.929  12.429
23582SOL    HW272644   6.508   7.871  12.565
23583SOL     OW72645   5.392   2.222   6.487
23583SOL    HW172646   5.357   2.293   6.433
23583SOL    HW272647   5.483   2.248   6.506
23584SOL     OW72648   8.132  12.105   8.436
23584SOL    HW172649   8.040  12.078   8.441
23584SOL    HW272650   8.146  12.156   8.516
23585SOL     OW72651   9.386   9.968   6.619
23585SOL    HW172652   9.395   9.951   6.712
23585SOL    HW272653   9.458   9.920   6.578
23586SOL     OW72654  10.443   6.836   3.733
23586SOL    HW172655  10.414   6.758   3.781
23586SOL    HW272656  10.365   6.891   3.727
23587SOL     OW72657  11.273  14.708   6.598
23587SOL    HW172658  11.228  14.789   6.574
23587SOL    HW272659  11.210  14.660   6.651
23588SOL     OW72660   5.712   0.029   3.881
23588SOL    HW172661   5.697  14.816   3.909
23588SOL    HW272662   5.773   0.063   3.946
23589SOL     OW72663   9.086  13.750   9.141
23589SOL    HW172664   9.015  13.810   9.119
23589SOL    HW272665   9.053  13.663   9.119
23590SOL     OW72666   9.649   0.018   3.698
23590SOL    HW172667   9.675   0.040   3.788
23590SOL    HW272668   9.721   0.052   3.644
23591SOL     OW72669   4.680   3.305  13.106
23591SOL    HW172670   4.672   3.269  13.193
23591SOL    HW272671   4.641   3.393  13.113
23592SOL     OW72672   3.991   3.571   4.597
23592SOL    HW172673   4.072   3.523   4.578
23592SOL    HW272674   3.961   3.536   4.680
23593SOL     OW72675   7.256  10.069   0.436
23593SOL    HW172676   7.246  10.126   0.360
23593SOL    HW272677   7.169  10.032   0.449
23594SOL     OW72678   3.357  12.760   1.169
23594SOL    HW172679   3.291  12.697   1.195
23594SOL    HW272680   3.431  12.743   1.227
23595SOL     OW72681   9.025   6.477  14.311
23595SOL    HW172682   8.995   6.543  14.248
23595SOL    HW272683   9.117   6.462  14.287
23596SOL     OW72684  10.894   6.422   0.966
23596SOL    HW172685  10.869   6.445   0.877
23596SOL    HW272686  10.870   6.498   1.019
23597SOL     OW72687   2.707  11.844  14.788
23597SOL    HW172688   2.710  11.807  14.699
23597SOL    HW272689   2.752  11.780  14.842
23598SOL     OW72690   4.574  10.229  10.486
23598SOL    HW172691   4.621  10.306  10.454
23598SOL    HW272692   4.511  10.210  10.416
23599SOL     OW72693   1.144  14.447  11.687
23599SOL    HW172694   1.198  14.457  11.608
23599SOL    HW272695   1.068  14.398  11.657
23600SOL     OW72696   1.471   0.991  11.463
23600SOL    HW172697   1.396   0.941  11.431
23600SOL    HW272698   1.539   0.978  11.397
23601SOL     OW72699   7.816  14.477   7.979
23601SOL    HW172700   7.792  14.386   7.959
23601SOL    HW272701   7.737  14.527   7.960
23602SOL     OW72702  14.318   3.380   2.586
23602SOL    HW172703  14.358   3.424   2.511
23602SOL    HW272704  14.360   3.294   2.588
23603SOL     OW72705   2.806  10.840   0.671
23603SOL    HW172706   2.892  10.843   0.627
23603SOL    HW272707   2.822  10.790   0.751
23604SOL     OW72708   3.965   6.663  13.212
23604SOL    HW172709   3.939   6.666  13.304
23604SOL    HW272710   3.990   6.571  13.198
23605SOL     OW72711   7.569   1.449  10.045
23605SOL    HW172712   7.575   1.354  10.046
23605SOL    HW272713   7.485   1.468  10.087
23606SOL     OW72714   4.457   3.762   6.509
23606SOL    HW172715   4.415   3.848   6.506
23606SOL    HW272716   4.386   3.702   6.534
23607SOL     OW72717   5.415  12.556   4.062
23607SOL    HW172718   5.494  12.502   4.066
23607SOL    HW272719   5.421  12.613   4.138
23608SOL     OW72720  13.640   3.784   8.835
23608SOL    HW172721  13.689   3.778   8.917
23608SOL    HW272722  13.650   3.875   8.808
23609SOL     OW72723  12.367   3.490  11.080
23609SOL    HW172724  12.322   3.543  11.146
23609SOL    HW272725  12.347   3.400  11.104
23610SOL     OW72726   9.591   4.228   8.480
23610SOL    HW172727   9.497   4.240   8.470
23610SOL    HW272728   9.629   4.275   8.406
23611SOL     OW72729   0.194   4.917  12.381
23611SOL    HW172730   0.158   5.004  12.400
23611SOL    HW272731   0.131   4.856  12.421
23612SOL     OW72732   8.162   5.928   0.378
23612SOL    HW172733   8.136   5.867   0.448
23612SOL    HW272734   8.257   5.920   0.373
23613SOL     OW72735   8.675  13.407  11.530
23613SOL    HW172736   8.623  13.371  11.601
23613SOL    HW272737   8.664  13.502  11.538
23614SOL     OW72738   8.251  11.025   2.116
23614SOL    HW172739   8.155  11.034   2.116
23614SOL    HW272740   8.283  11.115   2.105
23615SOL     OW72741  13.853   5.014   2.667
23615SOL    HW172742  13.803   5.025   2.748
23615SOL    HW272743  13.944   5.028   2.694
23616SOL     OW72744   7.802   2.444   4.907
23616SOL    HW172745   7.862   2.429   4.980
23616SOL    HW272746   7.857   2.481   4.838
23617SOL     OW72747   1.803   6.068   0.299
23617SOL    HW172748   1.884   6.071   0.248
23617SOL    HW272749   1.752   5.997   0.259
23618SOL     OW72750   4.726   7.270   8.294
23618SOL    HW172751   4.715   7.357   8.256
23618SOL    HW272752   4.741   7.212   8.219
23619SOL     OW72753  10.006   8.829   8.310
23619SOL    HW172754   9.924   8.872   8.335
23619SOL    HW272755  10.066   8.901   8.290
23620SOL     OW72756   6.878  10.406   7.782
23620SOL    HW172757   6.936  10.348   7.830
23620SOL    HW272758   6.933  10.481   7.759
23621SOL     OW72759  14.415   3.117   4.873
23621SOL    HW172760  14.475   3.048   4.842
23621SOL    HW272761  14.441   3.132   4.964
23622SOL     OW72762  11.380   9.282   7.347
23622SOL    HW172763  11.333   9.332   7.280
23622SOL    HW272764  11.446   9.342   7.380
23623SOL     OW72765  13.374   5.727   7.570
23623SOL    HW172766  13.366   5.717   7.475
23623SOL    HW272767  13.466   5.712   7.588
23624SOL     OW72768   8.820  11.242   8.397
23624SOL    HW172769   8.868  11.234   8.479
23624SOL    HW272770   8.729  11.222   8.419
23625SOL     OW72771   8.467  10.866  12.564
23625SOL    HW172772   8.462  10.923  12.641
23625SOL    HW272773   8.390  10.889  12.512
23626SOL     OW72774  13.756   7.086   1.169
23626SOL    HW172775  13.730   7.130   1.250
23626SOL    HW272776  13.831   7.032   1.195
23627SOL     OW72777   1.750  11.133  10.155
23627SOL    HW172778   1.841  11.149  10.129
23627SOL    HW272779   1.699  11.196  10.105
23628SOL     OW72780   4.322  10.416   2.330
23628SOL    HW172781   4.401  10.411   2.275
23628SOL    HW272782   4.351  10.460   2.410
23629SOL     OW72783   4.347   2.133   2.704
23629SOL    HW172784   4.342   2.043   2.672
23629SOL    HW272785   4.436   2.141   2.739
23630SOL     OW72786   6.131  12.468   7.616
23630SOL    HW172787   6.036  12.470   7.611
23630SOL    HW272788   6.153  12.535   7.681
23631SOL     OW72789   4.366   4.526   9.729
23631SOL    HW172790   4.359   4.445   9.680
23631SOL    HW272791   4.279   4.539   9.767
23632SOL     OW72792   2.186  14.682   1.276
23632SOL    HW172793   2.213  14.594   1.303
23632SOL    HW272794   2.166  14.727   1.358
23633SOL     OW72795   4.113   8.095  13.430
23633SOL    HW172796   4.112   8.184  13.465
23633SOL    HW272797   4.039   8.051  13.471
23634SOL     OW72798   5.868   9.132  11.467
23634SOL    HW172799   5.919   9.117  11.547
23634SOL    HW272800   5.934   9.141  11.398
23635SOL     OW72801  12.364   4.982   2.082
23635SOL    HW172802  12.328   5.062   2.120
23635SOL    HW272803  12.457   5.001   2.071
23636SOL     OW72804   6.792   4.552  14.755
23636SOL    HW172805   6.831   4.571  14.670
23636SOL    HW272806   6.774   4.458  14.752
23637SOL     OW72807   4.788  11.318   1.738
23637SOL    HW172808   4.721  11.285   1.677
23637SOL    HW272809   4.871  11.289   1.700
23638SOL     OW72810   3.536  13.041   6.121
23638SOL    HW172811   3.564  12.964   6.171
23638SOL    HW272812   3.443  13.051   6.141
23639SOL     OW72813   2.218  12.445   4.436
23639SOL    HW172814   2.258  12.519   4.481
23639SOL    HW272815   2.193  12.480   4.350
23640SOL     OW72816  11.010  12.347   9.599
23640SOL    HW172817  10.962  12.399   9.534
23640SOL    HW272818  11.074  12.407   9.636
23641SOL     OW72819   5.003   5.663   6.722
23641SOL    HW172820   4.977   5.592   6.662
23641SOL    HW272821   5.092   5.685   6.695
23642SOL     OW72822   5.551  13.870   2.022
23642SOL    HW172823   5.550  13.873   1.926
23642SOL    HW272824   5.489  13.938   2.049
23643SOL     OW72825  13.279  10.470  11.918
23643SOL    HW172826  13.184  10.480  11.907
23643SOL    HW272827  13.316  10.549  11.879
23644SOL     OW72828  14.424   8.766  14.553
23644SOL    HW172829  14.366   8.828  14.596
23644SOL    HW272830  14.493   8.750  14.618
23645SOL     OW72831  12.805   2.441  12.128
23645SOL    HW172832  12.805   2.489  12.211
23645SOL    HW272833  12.756   2.497  12.068
23646SOL     OW72834   8.708  10.718  13.960
23646SOL    HW172835   8.624  10.734  14.004
23646SOL    HW272836   8.701  10.766  13.877
23647SOL     OW72837   7.969   9.159   7.913
23647SOL    HW172838   8.023   9.193   7.984
23647SOL    HW272839   8.031   9.112   7.857
23648SOL     OW72840   2.613   0.343   2.765
23648SOL    HW172841   2.705   0.368   2.756
23648SOL    HW272842   2.595   0.290   2.688
23649SOL     OW72843   4.422  10.610   6.325
23649SOL    HW172844   4.406  10.704   6.336
23649SOL    HW272845   4.518  10.601   6.330
23650SOL     OW72846   3.678   1.735  12.225
23650SOL    HW172847   3.742   1.708  12.290
23650SOL    HW272848   3.599   1.754  12.275
23651SOL     OW72849   3.840   1.269  10.728
23651SOL    HW172850   3.898   1.197  10.705
23651SOL    HW272851   3.888   1.319  10.794
23652SOL     OW72852   7.830  12.845   3.852
23652SOL    HW172853   7.901  12.828   3.789
23652SOL    HW272854   7.780  12.917   3.814
23653SOL     OW72855   9.244   9.110   4.438
23653SOL    HW172856   9.260   9.119   4.532
23653SOL    HW272857   9.327   9.076   4.403
23654SOL     OW72858   6.659  12.964   4.238
23654SOL    HW172859   6.567  12.989   4.228
23654SOL    HW272860   6.670  12.953   4.333
23655SOL     OW72861  14.479   0.097   2.558
23655SOL    HW172862  14.397   0.117   2.512
23655SOL    HW272863  14.546   0.098   2.490
23656SOL     OW72864   8.799   7.285   1.946
23656SOL    HW172865   8.884   7.296   1.904
23656SOL    HW272866   8.742   7.252   1.876
23657SOL     OW72867   7.490   4.207   2.222
23657SOL    HW172868   7.505   4.302   2.222
23657SOL    HW272869   7.486   4.183   2.129
23658SOL     OW72870  14.338  12.488   9.948
23658SOL    HW172871  14.260  12.463   9.998
23658SOL    HW272872  14.339  12.426   9.875
23659SOL     OW72873   2.239   4.692   7.730
23659SOL    HW172874   2.155   4.735   7.711
23659SOL    HW272875   2.290   4.704   7.650
23660SOL     OW72876   7.654   1.060   0.046
23660SOL    HW172877   7.653   1.014  14.840
23660SOL    HW272878   7.626   0.994   0.110
23661SOL     OW72879  12.854  13.203   6.448
23661SOL    HW172880  12.812  13.129   6.493
23661SOL    HW272881  12.912  13.240   6.514
23662SOL     OW72882   0.164   8.397   5.794
23662SOL    HW172883   0.111   8.348   5.858
23662SOL    HW272884   0.107   8.404   5.717
23663SOL     OW72885   5.553   8.785  12.360
23663SOL    HW172886   5.540   8.706  12.307
23663SOL    HW272887   5.580   8.753  12.446
23664SOL     OW72888  14.444   9.779   9.132
23664SOL    HW172889  14.517   9.789   9.071
23664SOL    HW272890  14.366   9.778   9.076
23665SOL     OW72891   0.460  12.646   3.496
23665SOL    HW172892   0.428  12.718   3.442
23665SOL    HW272893   0.467  12.683   3.584
23666SOL     OW72894   2.291   7.092   4.271
23666SOL    HW172895   2.354   7.028   4.238
23666SOL    HW272896   2.270   7.061   4.359
23667SOL     OW72897   3.718   0.786   7.373
23667SOL    HW172898   3.812   0.790   7.356
23667SOL    HW272899   3.700   0.693   7.388
23668SOL     OW72900   6.776   4.330   6.244
23668SOL    HW172901   6.763   4.416   6.283
23668SOL    HW272902   6.689   4.291   6.243
23669SOL     OW72903   1.053   3.669   2.859
23669SOL    HW172904   0.996   3.727   2.809
23669SOL    HW272905   1.089   3.609   2.794
23670SOL     OW72906   6.432   5.954   6.898
23670SOL    HW172907   6.420   6.013   6.973
23670SOL    HW272908   6.479   6.007   6.834
23671SOL     OW72909  14.213   3.162  13.687
23671SOL    HW172910  14.188   3.107  13.761
23671SOL    HW272911  14.258   3.237  13.726
23672SOL     OW72912   6.993  11.192   5.477
23672SOL    HW172913   7.005  11.110   5.429
23672SOL    HW272914   7.067  11.247   5.449
23673SOL     OW72915  10.319   2.574   6.156
23673SOL    HW172916  10.301   2.514   6.084
23673SOL    HW272917  10.233   2.606   6.183
23674SOL     OW72918   1.606  11.206   8.590
23674SOL    HW172919   1.574  11.281   8.540
23674SOL    HW272920   1.633  11.143   8.523
23675SOL     OW72921   2.946  12.394   4.262
23675SOL    HW172922   2.940  12.399   4.357
23675SOL    HW272923   2.963  12.302   4.244
23676SOL     OW72924   4.872  10.818   5.271
23676SOL    HW172925   4.880  10.731   5.231
23676SOL    HW272926   4.877  10.879   5.197
23677SOL     OW72927  10.998  10.838  11.834
23677SOL    HW172928  10.988  10.839  11.929
23677SOL    HW272929  11.044  10.756  11.815
23678SOL     OW72930  12.939   4.404  11.328
23678SOL    HW172931  12.859   4.453  11.310
23678SOL    HW272932  12.981   4.394  11.243
23679SOL     OW72933   6.353   6.485   8.848
23679SOL    HW172934   6.436   6.488   8.895
23679SOL    HW272935   6.377   6.497   8.756
23680SOL     OW72936   7.806   8.980   1.985
23680SOL    HW172937   7.739   8.925   2.024
23680SOL    HW272938   7.852   8.923   1.924
23681SOL     OW72939   1.100   0.429   0.640
23681SOL    HW172940   1.127   0.431   0.732
23681SOL    HW272941   1.147   0.354   0.604
23682SOL     OW72942   8.584  12.516   1.533
23682SOL    HW172943   8.621  12.448   1.477
23682SOL    HW272944   8.632  12.595   1.510
23683SOL     OW72945  13.926   5.571   2.676
23683SOL    HW172946  13.962   5.660   2.680
23683SOL    HW272947  14.002   5.516   2.656
23684SOL     OW72948   8.876   9.890   8.222
23684SOL    HW172949   8.880   9.986   8.218
23684SOL    HW272950   8.950   9.866   8.277
23685SOL     OW72951   7.079   1.426   0.901
23685SOL    HW172952   7.011   1.494   0.900
23685SOL    HW272953   7.139   1.454   0.969
23686SOL     OW72954   3.341   0.105   1.182
23686SOL    HW172955   3.416   0.159   1.205
23686SOL    HW272956   3.313   0.066   1.265
23687SOL     OW72957   6.286   3.785  14.001
23687SOL    HW172958   6.330   3.705  13.973
23687SOL    HW272959   6.343   3.855  13.971
23688SOL     OW72960   5.862   5.843  14.253
23688SOL    HW172961   5.821   5.797  14.326
23688SOL    HW272962   5.877   5.775  14.187
23689SOL     OW72963  12.704  14.767   0.377
23689SOL    HW172964  12.638  14.761   0.446
23689SOL    HW272965  12.659  14.736   0.298
23690SOL     OW72966   2.670   1.162   7.212
23690SOL    HW172967   2.729   1.124   7.278
23690SOL    HW272968   2.612   1.219   7.261
23691SOL     OW72969   2.368   5.532   5.872
23691SOL    HW172970   2.400   5.556   5.785
23691SOL    HW272971   2.285   5.579   5.881
23692SOL     OW72972  12.147   6.548   6.217
23692SOL    HW172973  12.174   6.578   6.304
23692SOL    HW272974  12.052   6.540   6.223
23693SOL     OW72975   6.671   9.360   8.508
23693SOL    HW172976   6.671   9.378   8.602
23693SOL    HW272977   6.617   9.429   8.471
23694SOL     OW72978   3.036   3.605   9.693
23694SOL    HW172979   3.016   3.515   9.720
23694SOL    HW272980   2.952   3.651   9.702
23695SOL     OW72981  12.805   8.283  13.805
23695SOL    HW172982  12.877   8.222  13.823
23695SOL    HW272983  12.761   8.247  13.728
23696SOL     OW72984   2.689  10.294  11.380
23696SOL    HW172985   2.631  10.237  11.330
23696SOL    HW272986   2.634  10.367  11.409
23697SOL     OW72987   1.094   1.344   7.452
23697SOL    HW172988   1.095   1.276   7.385
23697SOL    HW272989   1.140   1.305   7.527
23698SOL     OW72990   2.436   1.909   2.529
23698SOL    HW172991   2.371   1.973   2.498
23698SOL    HW272992   2.515   1.960   2.543
23699SOL     OW72993   1.497  11.666   6.700
23699SOL    HW172994   1.417  11.707   6.730
23699SOL    HW272995   1.473  11.622   6.618
23700SOL     OW72996   2.588  13.200  13.340
23700SOL    HW172997   2.673  13.158  13.351
23700SOL    HW272998   2.540  13.143  13.280
23701SOL     OW72999  10.636  11.623   7.927
23701SOL    HW173000  10.645  11.717   7.913
23701SOL    HW273001  10.566  11.597   7.867
23702SOL     OW73002   0.216   2.945   0.588
23702SOL    HW173003   0.174   2.864   0.558
23702SOL    HW273004   0.255   2.983   0.510
23703SOL     OW73005   2.069   8.587   2.178
23703SOL    HW173006   2.016   8.588   2.258
23703SOL    HW273007   2.159   8.594   2.209
23704SOL     OW73008  10.984  12.776   7.354
23704SOL    HW173009  11.054  12.712   7.369
23704SOL    HW273010  10.916  12.753   7.417
23705SOL     OW73011   2.022  10.674   6.473
23705SOL    HW173012   2.001  10.657   6.565
23705SOL    HW273013   1.964  10.746   6.449
23706SOL     OW73014   3.329   2.534   3.307
23706SOL    HW173015   3.249   2.538   3.359
23706SOL    HW273016   3.333   2.443   3.277
23707SOL     OW73017   0.885   6.892   0.452
23707SOL    HW173018   0.972   6.894   0.491
23707SOL    HW273019   0.834   6.955   0.503
23708SOL     OW73020   4.783   1.251  14.813
23708SOL    HW173021   4.842   1.176  14.800
23708SOL    HW273022   4.772   1.289  14.726
23709SOL     OW73023   2.497   9.556  11.465
23709SOL    HW173024   2.472   9.506  11.543
23709SOL    HW273025   2.574   9.509  11.431
23710SOL     OW73026   0.392  10.485   6.294
23710SOL    HW173027   0.373  10.484   6.200
23710SOL    HW273028   0.382  10.577   6.319
23711SOL     OW73029  12.931   9.579  10.843
23711SOL    HW173030  12.945   9.642  10.914
23711SOL    HW273031  12.921   9.495  10.886
23712SOL     OW73032   2.809  12.044  11.823
23712SOL    HW173033   2.786  12.135  11.840
23712SOL    HW273034   2.787  12.030  11.731
23713SOL     OW73035   4.557   0.050   5.483
23713SOL    HW173036   4.512   0.133   5.468
23713SOL    HW273037   4.553   0.005   5.398
23714SOL     OW73038   1.969   9.708   5.399
23714SOL    HW173039   1.966   9.670   5.486
23714SOL    HW273040   2.061   9.701   5.372
23715SOL     OW73041   4.008  12.419   1.972
23715SOL    HW173042   4.017  12.358   2.045
23715SOL    HW273043   4.097  12.450   1.955
23716SOL     OW73044   3.929  14.395   8.399
23716SOL    HW173045   3.849  14.427   8.358
23716SOL    HW273046   3.974  14.347   8.329
23717SOL     OW73047   8.786  10.551  14.461
23717SOL    HW173048   8.799  10.603  14.541
23717SOL    HW273049   8.858  10.576  14.404
23718SOL     OW73050  11.760   6.485   3.201
23718SOL    HW173051  11.700   6.412   3.184
23718SOL    HW273052  11.833   6.446   3.249
23719SOL     OW73053   9.604   3.261   9.990
23719SOL    HW173054   9.641   3.174   9.998
23719SOL    HW273055   9.611   3.282   9.897
23720SOL     OW73056   9.521   0.020   4.249
23720SOL    HW173057   9.521   0.103   4.201
23720SOL    HW273058   9.445  14.851   4.214
23721SOL     OW73059   8.513   6.091   0.223
23721SOL    HW173060   8.514   6.007   0.268
23721SOL    HW273061   8.605   6.111   0.205
23722SOL     OW73062   6.885  10.421   6.618
23722SOL    HW173063   6.824  10.487   6.651
23722SOL    HW273064   6.924  10.382   6.696
23723SOL     OW73065   3.259   6.596   5.170
23723SOL    HW173066   3.207   6.516   5.173
23723SOL    HW273067   3.251   6.626   5.079
23724SOL     OW73068   6.437   6.485  14.526
23724SOL    HW173069   6.373   6.419  14.499
23724SOL    HW273070   6.521   6.438  14.526
23725SOL     OW73071   4.448   3.656   9.561
23725SOL    HW173072   4.529   3.607   9.572
23725SOL    HW273073   4.461   3.706   9.480
23726SOL     OW73074   8.023  14.758  14.349
23726SOL    HW173075   8.060  14.682  14.393
23726SOL    HW273076   7.935  14.767  14.386
23727SOL     OW73077   8.426  10.093   4.992
23727SOL    HW173078   8.435  10.123   4.902
23727SOL    HW273079   8.410   9.999   4.985
23728SOL     OW73080   2.884   0.696  14.761
23728SOL    HW173081   2.839   0.612  14.756
23728SOL    HW273082   2.905   0.706  14.854
23729SOL     OW73083   0.622   1.177  10.151
23729SOL    HW173084   0.623   1.195  10.057
23729SOL    HW273085   0.554   1.111  10.162
23730SOL     OW73086   5.155  14.720   0.290
23730SOL    HW173087   5.250  14.715   0.280
23730SOL    HW273088   5.132  14.639   0.335
23731SOL     OW73089   4.719  12.705   1.658
23731SOL    HW173090   4.779  12.688   1.586
23731SOL    HW273091   4.634  12.718   1.617
23732SOL     OW73092   0.256  14.103   9.287
23732SOL    HW173093   0.330  14.102   9.348
23732SOL    HW273094   0.242  14.011   9.265
23733SOL     OW73095   0.491   1.000   5.544
23733SOL    HW173096   0.445   0.917   5.531
23733SOL    HW273097   0.482   1.019   5.637
23734SOL     OW73098   8.055   8.146   9.096
23734SOL    HW173099   8.074   8.221   9.039
23734SOL    HW273100   8.004   8.184   9.168
23735SOL     OW73101  14.343  12.295   5.315
23735SOL    HW173102  14.391  12.358   5.368
23735SOL    HW273103  14.382  12.210   5.337
23736SOL     OW73104   1.773  11.503   9.831
23736SOL    HW173105   1.828  11.544   9.764
23736SOL    HW273106   1.778  11.562   9.906
23737SOL     OW73107  11.044   5.855   6.925
23737SOL    HW173108  11.134   5.844   6.892
23737SOL    HW273109  11.035   5.949   6.939
23738SOL     OW73110   5.858  11.570   6.585
23738SOL    HW173111   5.902  11.636   6.639
23738SOL    HW273112   5.886  11.590   6.496
23739SOL     OW73113  11.590   5.802   4.392
23739SOL    HW173114  11.521   5.868   4.379
23739SOL    HW273115  11.552   5.721   4.357
23740SOL     OW73116   3.360   5.132   1.789
23740SOL    HW173117   3.454   5.120   1.785
23740SOL    HW273118   3.348   5.227   1.802
23741SOL     OW73119   6.495  13.932   0.481
23741SOL    HW173120   6.424  13.910   0.421
23741SOL    HW273121   6.575  13.913   0.431
23742SOL     OW73122  10.048   9.677   9.599
23742SOL    HW173123  10.093   9.741   9.653
23742SOL    HW273124  10.001   9.622   9.662
23743SOL     OW73125   3.132   6.825   7.779
23743SOL    HW173126   3.175   6.910   7.779
23743SOL    HW273127   3.051   6.839   7.828
23744SOL     OW73128  10.946   4.235   7.731
23744SOL    HW173129  10.994   4.175   7.788
23744SOL    HW273130  10.920   4.181   7.656
23745SOL     OW73131   4.308   2.913  12.315
23745SOL    HW173132   4.392   2.871  12.332
23745SOL    HW273133   4.243   2.843  12.322
23746SOL     OW73134   7.022   7.710   0.085
23746SOL    HW173135   7.086   7.726   0.016
23746SOL    HW273136   6.957   7.653   0.045
23747SOL     OW73137  10.081  13.454   5.811
23747SOL    HW173138  10.064  13.466   5.717
23747SOL    HW273139  10.015  13.390   5.839
23748SOL     OW73140   5.824   8.091   2.733
23748SOL    HW173141   5.822   8.020   2.797
23748SOL    HW273142   5.790   8.052   2.653
23749SOL     OW73143   1.889  10.584   8.951
23749SOL    HW173144   1.878  10.490   8.935
23749SOL    HW273145   1.977  10.591   8.989
23750SOL     OW73146   3.806  13.906   1.704
23750SOL    HW173147   3.878  13.843   1.709
23750SOL    HW273148   3.811  13.941   1.615
23751SOL     OW73149  10.221  11.855   8.339
23751SOL    HW173150  10.314  11.835   8.330
23751SOL    HW273151  10.189  11.857   8.249
23752SOL     OW73152  12.286   7.882  14.122
23752SOL    HW173153  12.210   7.826  14.107
23752SOL    HW273154  12.361   7.823  14.117
23753SOL     OW73155   9.767  12.213  10.442
23753SOL    HW173156   9.810  12.153  10.504
23753SOL    HW273157   9.708  12.156  10.392
23754SOL     OW73158   8.905   1.849   9.929
23754SOL    HW173159   8.842   1.885   9.992
23754SOL    HW273160   8.893   1.902   9.850
23755SOL     OW73161   9.296   6.506  13.473
23755SOL    HW173162   9.299   6.420  13.430
23755SOL    HW273163   9.388   6.528  13.487
23756SOL     OW73164   1.268   8.124   1.861
23756SOL    HW173165   1.306   8.115   1.774
23756SOL    HW273166   1.276   8.037   1.900
23757SOL     OW73167  12.111   1.530   9.699
23757SOL    HW173168  12.165   1.573   9.633
23757SOL    HW273169  12.026   1.575   9.694
23758SOL     OW73170   0.978  11.469   4.557
23758SOL    HW173171   1.033  11.547   4.571
23758SOL    HW273172   0.932  11.457   4.640
23759SOL     OW73173   1.073   1.518   9.082
23759SOL    HW173174   1.141   1.457   9.110
23759SOL    HW273175   1.062   1.577   9.157
23760SOL     OW73176  12.296   6.902  14.344
23760SOL    HW173177  12.270   6.986  14.382
23760SOL    HW273178  12.390   6.898  14.357
23761SOL     OW73179  13.845   9.903   1.797
23761SOL    HW173180  13.802   9.836   1.744
23761SOL    HW273181  13.842   9.869   1.886
23762SOL     OW73182  14.302   8.402   7.356
23762SOL    HW173183  14.262   8.407   7.442
23762SOL    HW273184  14.376   8.341   7.368
23763SOL     OW73185   1.781   8.417   7.418
23763SOL    HW173186   1.750   8.499   7.455
23763SOL    HW273187   1.714   8.393   7.353
23764SOL     OW73188   5.005   4.191   5.937
23764SOL    HW173189   5.017   4.105   5.895
23764SOL    HW273190   5.092   4.211   5.973
23765SOL     OW73191  14.508  11.506  10.258
23765SOL    HW173192  14.527  11.598  10.277
23765SOL    HW273193  14.449  11.509  10.182
23766SOL     OW73194   6.765  12.569  11.827
23766SOL    HW173195   6.816  12.633  11.777
23766SOL    HW273196   6.680  12.611  11.841
23767SOL     OW73197  13.520  13.924   9.062
23767SOL    HW173198  13.516  13.831   9.039
23767SOL    HW273199  13.433  13.957   9.044
23768SOL     OW73200   7.502   5.876   6.193
23768SOL    HW173201   7.536   5.817   6.261
23768SOL    HW273202   7.580   5.909   6.149
23769SOL     OW73203   2.147   3.398   4.705
23769SOL    HW173204   2.132   3.469   4.643
23769SOL    HW273205   2.147   3.319   4.652
23770SOL     OW73206   2.419  11.722   2.400
23770SOL    HW173207   2.411  11.667   2.322
23770SOL    HW273208   2.511  11.745   2.403
23771SOL     OW73209   4.281   6.616   2.527
23771SOL    HW173210   4.352   6.553   2.541
23771SOL    HW273211   4.232   6.581   2.453
23772SOL     OW73212  13.068   6.108   3.894
23772SOL    HW173213  13.054   6.163   3.971
23772SOL    HW273214  12.980   6.090   3.861
23773SOL     OW73215   6.366  10.378  12.750
23773SOL    HW173216   6.353  10.472  12.738
23773SOL    HW273217   6.291  10.350  12.802
23774SOL     OW73218   1.014   5.118  10.873
23774SOL    HW173219   1.015   5.105  10.968
23774SOL    HW273220   0.978   5.206  10.862
23775SOL     OW73221   6.708  14.682   2.359
23775SOL    HW173222   6.651  14.636   2.421
23775SOL    HW273223   6.670  14.770   2.352
23776SOL     OW73224  13.843   3.670  14.750
23776SOL    HW173225  13.803   3.602  14.804
23776SOL    HW273226  13.920   3.628  14.712
23777SOL     OW73227  10.498   4.497   9.021
23777SOL    HW173228  10.584   4.457   9.011
23777SOL    HW273229  10.503   4.544   9.104
23778SOL     OW73230   0.515   6.775   2.885
23778SOL    HW173231   0.453   6.712   2.923
23778SOL    HW273232   0.508   6.763   2.791
23779SOL     OW73233   9.683  14.367   6.919
23779SOL    HW173234   9.627  14.419   6.862
23779SOL    HW273235   9.686  14.416   7.001
23780SOL     OW73236   7.987   2.323  11.222
23780SOL    HW173237   7.986   2.247  11.163
23780SOL    HW273238   8.079   2.349  11.226
23781SOL     OW73239   6.825   1.195   7.685
23781SOL    HW173240   6.837   1.101   7.698
23781SOL    HW273241   6.731   1.210   7.700
23782SOL     OW73242  10.525   1.933  12.448
23782SOL    HW173243  10.619   1.927  12.467
23782SOL    HW273244  10.518   1.921  12.354
23783SOL     OW73245   3.693   2.544  14.754
23783SOL    HW173246   3.781   2.582  14.763
23783SOL    HW273247   3.689   2.511  14.664
23784SOL     OW73248   7.039   0.731   8.803
23784SOL    HW173249   7.002   0.810   8.843
23784SOL    HW273250   7.001   0.728   8.716
23785SOL     OW73251  13.285   8.097   9.435
23785SOL    HW173252  13.272   8.133   9.523
23785SOL    HW273253  13.378   8.076   9.432
23786SOL     OW73254  13.217   7.680   2.707
23786SOL    HW173255  13.144   7.642   2.755
23786SOL    HW273256  13.295   7.654   2.757
23787SOL     OW73257  12.932  12.035   9.297
23787SOL    HW173258  12.963  11.959   9.347
23787SOL    HW273259  12.839  12.042   9.319
23788SOL     OW73260   7.343   6.822  12.297
23788SOL    HW173261   7.248   6.811  12.292
23788SOL    HW273262   7.355   6.917  12.308
23789SOL     OW73263  13.062   8.617   8.263
23789SOL    HW173264  13.138   8.668   8.291
23789SOL    HW273265  13.046   8.646   8.173
23790SOL     OW73266  13.400   3.853  12.052
23790SOL    HW173267  13.373   3.940  12.082
23790SOL    HW273268  13.325   3.797  12.072
23791SOL     OW73269  13.660   7.463   1.205
23791SOL    HW173270  13.672   7.416   1.288
23791SOL    HW273271  13.706   7.546   1.218
23792SOL     OW73272  10.699   1.942  14.580
23792SOL    HW173273  10.610   1.949  14.545
23792SOL    HW273274  10.708   2.019  14.637
23793SOL     OW73275  12.585   2.106   6.390
23793SOL    HW173276  12.527   2.099   6.466
23793SOL    HW273277  12.658   2.048   6.410
23794SOL     OW73278  12.258   7.231   4.191
23794SOL    HW173279  12.175   7.269   4.163
23794SOL    HW273280  12.314   7.306   4.208
23795SOL     OW73281  12.236   4.884   3.323
23795SOL    HW173282  12.243   4.790   3.305
23795SOL    HW273283  12.214   4.922   3.238
23796SOL     OW73284   7.107  12.357   8.618
23796SOL    HW173285   7.129  12.376   8.709
23796SOL    HW273286   7.167  12.286   8.593
23797SOL     OW73287   2.976  13.858   4.720
23797SOL    HW173288   3.011  13.891   4.802
23797SOL    HW273289   2.895  13.812   4.745
23798SOL     OW73290   2.978   3.864   8.201
23798SOL    HW173291   3.026   3.946   8.186
23798SOL    HW273292   2.920   3.884   8.274
23799SOL     OW73293  14.409   1.088   8.216
23799SOL    HW173294  14.421   1.154   8.284
23799SOL    HW273295  14.405   1.005   8.263
23800SOL     OW73296   3.778  10.875   1.505
23800SOL    HW173297   3.717  10.896   1.434
23800SOL    HW273298   3.795  10.782   1.495
23801SOL     OW73299   4.586   2.449   2.832
23801SOL    HW173300   4.534   2.523   2.800
23801SOL    HW273301   4.579   2.453   2.927
23802SOL     OW73302  14.594   7.638   6.063
23802SOL    HW173303  14.507   7.603   6.085
23802SOL    HW273304  14.595   7.639   5.968
23803SOL     OW73305  11.600   8.666  10.767
23803SOL    HW173306  11.513   8.679  10.806
23803SOL    HW273307  11.582   8.634  10.679
23804SOL     OW73308   9.151   2.969  13.225
23804SOL    HW173309   9.108   2.884  13.234
23804SOL    HW273310   9.127   2.999  13.138
23805SOL     OW73311   1.887   2.005   9.380
23805SOL    HW173312   1.948   1.993   9.307
23805SOL    HW273313   1.935   1.975   9.457
23806SOL     OW73314   5.575   7.286  13.810
23806SOL    HW173315   5.488   7.303  13.848
23806SOL    HW273316   5.632   7.350  13.852
23807SOL     OW73317  14.874   2.436   3.134
23807SOL    HW173318   0.001   2.513   3.191
23807SOL    HW273319   0.087   2.409   3.122
23808SOL     OW73320   5.969   5.499   4.910
23808SOL    HW173321   6.026   5.422   4.911
23808SOL    HW273322   5.997   5.548   4.833
23809SOL     OW73323   4.791   3.033  12.150
23809SOL    HW173324   4.698   3.053  12.145
23809SOL    HW273325   4.832   3.094  12.089
23810SOL     OW73326   4.634  14.169   9.265
23810SOL    HW173327   4.661  14.132   9.349
23810SOL    HW273328   4.715  14.206   9.229
23811SOL     OW73329   1.601   3.372   0.060
23811SOL    HW173330   1.576   3.337  14.852
23811SOL    HW273331   1.689   3.337   0.075
23812SOL     OW73332   4.545   7.809  14.229
23812SOL    HW173333   4.540   7.749  14.154
23812SOL    HW273334   4.464   7.859  14.224
23813SOL     OW73335  13.293  14.745   3.825
23813SOL    HW173336  13.284  14.797   3.745
23813SOL    HW273337  13.210  14.698   3.834
23814SOL     OW73338  14.297   5.390   7.660
23814SOL    HW173339  14.352   5.443   7.602
23814SOL    HW273340  14.227   5.449   7.688
23815SOL     OW73341   1.059  10.234  11.566
23815SOL    HW173342   1.003  10.190  11.630
23815SOL    HW273343   1.139  10.183  11.565
23816SOL     OW73344   4.903   1.291   5.413
23816SOL    HW173345   4.865   1.363   5.464
23816SOL    HW273346   4.887   1.316   5.322
23817SOL     OW73347  10.015  13.823   8.081
23817SOL    HW173348   9.972  13.904   8.052
23817SOL    HW273349  10.107  13.848   8.090
23818SOL     OW73350  10.786   3.216   7.247
23818SOL    HW173351  10.801   3.301   7.206
23818SOL    HW273352  10.867   3.197   7.294
23819SOL     OW73353   6.191   9.298   4.181
23819SOL    HW173354   6.245   9.223   4.205
23819SOL    HW273355   6.250   9.358   4.136
23820SOL     OW73356   4.023   2.633   8.498
23820SOL    HW173357   4.091   2.566   8.508
23820SOL    HW273358   4.070   2.716   8.502
23821SOL     OW73359  10.865   0.902   1.254
23821SOL    HW173360  10.849   0.954   1.176
23821SOL    HW273361  10.937   0.947   1.299
23822SOL     OW73362   5.477  11.071   5.703
23822SOL    HW173363   5.412  11.002   5.696
23822SOL    HW273364   5.426  11.150   5.722
23823SOL     OW73365   2.072  12.487  12.199
23823SOL    HW173366   2.003  12.429  12.232
23823SOL    HW273367   2.148  12.466  12.253
23824SOL     OW73368  10.692   2.146   4.828
23824SOL    HW173369  10.673   2.176   4.739
23824SOL    HW273370  10.782   2.173   4.844
23825SOL     OW73371  12.830   6.624  11.629
23825SOL    HW173372  12.840   6.600  11.536
23825SOL    HW273373  12.779   6.553  11.667
23826SOL     OW73374   7.715  11.926   5.872
23826SOL    HW173375   7.683  11.839   5.897
23826SOL    HW273376   7.734  11.918   5.779
23827SOL     OW73377  13.445   8.119   8.962
23827SOL    HW173378  13.410   8.045   8.913
23827SOL    HW273379  13.537   8.124   8.935
23828SOL     OW73380   3.753   3.554   5.295
23828SOL    HW173381   3.723   3.464   5.297
23828SOL    HW273382   3.846   3.549   5.271
23829SOL     OW73383  10.512  11.975   2.790
23829SOL    HW173384  10.417  11.967   2.786
23829SOL    HW273385  10.532  12.056   2.743
23830SOL     OW73386   0.179   4.154   2.316
23830SOL    HW173387   0.122   4.149   2.239
23830SOL    HW273388   0.207   4.064   2.329
23831SOL     OW73389   3.041  13.597   3.922
23831SOL    HW173390   3.100  13.607   3.847
23831SOL    HW273391   2.954  13.609   3.885
23832SOL     OW73392   4.064   8.942  14.683
23832SOL    HW173393   4.125   8.959  14.755
23832SOL    HW273394   4.076   8.849  14.664
23833SOL     OW73395  13.055   9.905   1.508
23833SOL    HW173396  12.983   9.854   1.545
23833SOL    HW273397  13.017   9.946   1.430
23834SOL     OW73398  10.261   3.095   9.743
23834SOL    HW173399  10.293   3.010   9.774
23834SOL    HW273400  10.300   3.104   9.656
23835SOL     OW73401   0.814  12.107   4.390
23835SOL    HW173402   0.805  12.086   4.483
23835SOL    HW273403   0.726  12.130   4.362
23836SOL     OW73404   8.860   2.847   9.877
23836SOL    HW173405   8.827   2.862   9.965
23836SOL    HW273406   8.782   2.829   9.824
23837SOL     OW73407  14.778  13.237  14.862
23837SOL    HW173408  14.863  13.223  14.818
23837SOL    HW273409  14.772  13.332  14.873
23838SOL     OW73410  14.098  12.585   0.247
23838SOL    HW173411  14.048  12.627   0.317
23838SOL    HW273412  14.187  12.576   0.283
23839SOL     OW73413  13.831   0.736   8.094
23839SOL    HW173414  13.898   0.742   8.026
23839SOL    HW273415  13.814   0.827   8.119
23840SOL     OW73416   8.596   9.607  11.701
23840SOL    HW173417   8.686   9.579  11.682
23840SOL    HW273418   8.605   9.693  11.740
23841SOL     OW73419   4.189  11.467   2.707
23841SOL    HW173420   4.203  11.398   2.642
23841SOL    HW273421   4.274  11.509   2.717
23842SOL     OW73422   0.120   3.822  14.650
23842SOL    HW173423   0.206   3.791  14.624
23842SOL    HW273424   0.062   3.747  14.638
23843SOL     OW73425   3.427   9.116  12.710
23843SOL    HW173426   3.359   9.154  12.765
23843SOL    HW273427   3.382   9.092  12.629
23844SOL     OW73428   5.619  12.804  11.887
23844SOL    HW173429   5.579  12.827  11.803
23844SOL    HW273430   5.614  12.884  11.939
23845SOL     OW73431   4.067   6.089   9.346
23845SOL    HW173432   4.156   6.088   9.381
23845SOL    HW273433   4.062   6.008   9.294
23846SOL     OW73434  14.059   8.148  14.591
23846SOL    HW173435  14.147   8.149  14.628
23846SOL    HW273436  14.049   8.061  14.553
23847SOL     OW73437   8.100   1.755  12.764
23847SOL    HW173438   8.136   1.784  12.680
23847SOL    HW273439   8.026   1.813  12.779
23848SOL     OW73440   6.763   2.351  12.602
23848SOL    HW173441   6.698   2.421  12.589
23848SOL    HW273442   6.772   2.311  12.515
23849SOL     OW73443  12.181   2.133   0.645
23849SOL    HW173444  12.270   2.137   0.681
23849SOL    HW273445  12.194   2.143   0.551
23850SOL     OW73446   2.561  12.375   1.993
23850SOL    HW173447   2.629  12.328   2.041
23850SOL    HW273448   2.528  12.440   2.054
23851SOL     OW73449   6.349   2.488   3.984
23851SOL    HW173450   6.265   2.528   4.006
23851SOL    HW273451   6.333   2.394   3.993
23852SOL     OW73452  10.098   5.906   8.732
23852SOL    HW173453  10.082   5.818   8.696
23852SOL    HW273454  10.107   5.961   8.654
23853SOL     OW73455  13.137  11.266   0.190
23853SOL    HW173456  13.088  11.343   0.163
23853SOL    HW273457  13.227  11.298   0.203
23854SOL     OW73458  12.456   0.996  13.226
23854SOL    HW173459  12.433   0.983  13.134
23854SOL    HW273460  12.460   1.091  13.236
23855SOL     OW73461   6.383  11.341   4.188
23855SOL    HW173462   6.387  11.364   4.095
23855SOL    HW273463   6.454  11.279   4.200
23856SOL     OW73464  11.873  13.964  10.137
23856SOL    HW173465  11.856  14.009  10.054
23856SOL    HW273466  11.827  13.880  10.129
23857SOL     OW73467   1.510  10.834   2.751
23857SOL    HW173468   1.446  10.894   2.789
23857SOL    HW273469   1.487  10.748   2.785
23858SOL     OW73470   5.862   9.118  13.517
23858SOL    HW173471   5.817   9.150  13.595
23858SOL    HW273472   5.936   9.178  13.506
23859SOL     OW73473  12.014  14.325   0.827
23859SOL    HW173474  11.995  14.351   0.917
23859SOL    HW273475  11.971  14.240   0.817
23860SOL     OW73476   8.442   5.825  12.357
23860SOL    HW173477   8.363   5.840  12.410
23860SOL    HW273478   8.490   5.758  12.405
23861SOL     OW73479   6.852  10.359  14.119
23861SOL    HW173480   6.833  10.319  14.034
23861SOL    HW273481   6.787  10.322  14.178
23862SOL     OW73482  13.073   6.971   6.960
23862SOL    HW173483  13.017   6.894   6.966
23862SOL    HW273484  13.159   6.937   6.934
23863SOL     OW73485   8.196   7.842   0.579
23863SOL    HW173486   8.226   7.760   0.541
23863SOL    HW273487   8.123   7.869   0.523
23864SOL     OW73488   9.855  12.429   6.620
23864SOL    HW173489   9.908  12.354   6.648
23864SOL    HW273490   9.920  12.495   6.594
23865SOL     OW73491   5.038   2.818   1.955
23865SOL    HW173492   5.046   2.770   1.873
23865SOL    HW273493   5.115   2.875   1.957
23866SOL     OW73494   5.403   6.177  14.524
23866SOL    HW173495   5.393   6.101  14.581
23866SOL    HW273496   5.369   6.250  14.576
23867SOL     OW73497   7.227   6.363   0.295
23867SOL    HW173498   7.303   6.416   0.272
23867SOL    HW273499   7.158   6.391   0.235
23868SOL     OW73500  13.445  12.628  13.296
23868SOL    HW173501  13.418  12.538  13.315
23868SOL    HW273502  13.440  12.635  13.201
23869SOL     OW73503   4.209   4.696   3.595
23869SOL    HW173504   4.125   4.703   3.641
23869SOL    HW273505   4.203   4.615   3.545
23870SOL     OW73506  12.293  11.913   5.759
23870SOL    HW173507  12.211  11.962   5.757
23870SOL    HW273508  12.323  11.914   5.668
23871SOL     OW73509   4.998   2.923   3.771
23871SOL    HW173510   4.912   2.953   3.800
23871SOL    HW273511   4.979   2.867   3.696
23872SOL     OW73512   0.662  14.287   5.405
23872SOL    HW173513   0.596  14.271   5.473
23872SOL    HW273514   0.743  14.303   5.453
23873SOL     OW73515   6.235   9.231   5.713
23873SOL    HW173516   6.315   9.189   5.742
23873SOL    HW273517   6.166   9.195   5.769
23874SOL     OW73518   2.968   4.685  14.255
23874SOL    HW173519   2.934   4.737  14.183
23874SOL    HW273520   2.893   4.670  14.313
23875SOL     OW73521   3.073   1.669   4.683
23875SOL    HW173522   3.117   1.698   4.603
23875SOL    HW273523   3.047   1.579   4.665
23876SOL     OW73524  10.166  14.482   5.344
23876SOL    HW173525  10.169  14.439   5.430
23876SOL    HW273526  10.222  14.427   5.288
23877SOL     OW73527   8.417   1.444   2.409
23877SOL    HW173528   8.414   1.526   2.361
23877SOL    HW273529   8.373   1.381   2.352
23878SOL     OW73530  10.104  14.406  12.779
23878SOL    HW173531  10.117  14.478  12.841
23878SOL    HW273532  10.021  14.425  12.736
23879SOL     OW73533   7.533  12.276   5.963
23879SOL    HW173534   7.511  12.187   5.991
23879SOL    HW273535   7.453  12.309   5.921
23880SOL     OW73536   0.405   7.598  12.223
23880SOL    HW173537   0.445   7.672  12.178
23880SOL    HW273538   0.395   7.531  12.155
23881SOL     OW73539   2.728   9.484   7.866
23881SOL    HW173540   2.738   9.475   7.771
23881SOL    HW273541   2.807   9.530   7.894
23882SOL     OW73542  10.948  10.732   7.349
23882SOL    HW173543  11.039  10.758   7.334
23882SOL    HW273544  10.896  10.800   7.307
23883SOL     OW73545  11.183  13.736   3.183
23883SOL    HW173546  11.152  13.725   3.273
23883SOL    HW273547  11.107  13.715   3.129
23884SOL     OW73548   5.674  13.763   5.620
23884SOL    HW173549   5.728  13.685   5.632
23884SOL    HW273550   5.585  13.733   5.640
23885SOL     OW73551   9.350   9.875   4.768
23885SOL    HW173552   9.406   9.902   4.695
23885SOL    HW273553   9.303   9.799   4.735
23886SOL     OW73554   1.091  10.905   9.063
23886SOL    HW173555   1.122  10.993   9.084
23886SOL    HW273556   1.090  10.859   9.147
23887SOL     OW73557  10.113  10.211   7.847
23887SOL    HW173558  10.058  10.289   7.853
23887SOL    HW273559  10.202  10.244   7.861
23888SOL     OW73560   2.305   0.771  13.059
23888SOL    HW173561   2.249   0.834  13.014
23888SOL    HW273562   2.245   0.723  13.117
23889SOL     OW73563  12.513   0.927   7.361
23889SOL    HW173564  12.422   0.901   7.376
23889SOL    HW273565  12.538   0.882   7.281
23890SOL     OW73566   4.696   0.344   6.498
23890SOL    HW173567   4.700   0.394   6.417
23890SOL    HW273568   4.672   0.409   6.565
23891SOL     OW73569   7.513   4.373   5.105
23891SOL    HW173570   7.475   4.393   5.020
23891SOL    HW273571   7.441   4.337   5.156
23892SOL     OW73572   2.636  10.093   1.636
23892SOL    HW173573   2.591  10.055   1.560
23892SOL    HW273574   2.727  10.068   1.625
23893SOL     OW73575   1.973   4.168   3.514
23893SOL    HW173576   2.032   4.233   3.553
23893SOL    HW273577   1.907   4.219   3.468
23894SOL     OW73578   8.566   4.400   0.003
23894SOL    HW173579   8.477   4.366   0.004
23894SOL    HW273580   8.566   4.465  14.811
23895SOL     OW73581  10.564   2.805   5.557
23895SOL    HW173582  10.571   2.776   5.466
23895SOL    HW273583  10.543   2.725   5.606
23896SOL     OW73584  12.386   6.268   0.653
23896SOL    HW173585  12.456   6.276   0.717
23896SOL    HW273586  12.311   6.313   0.692
23897SOL     OW73587   7.719  11.772   1.046
23897SOL    HW173588   7.786  11.704   1.046
23897SOL    HW273589   7.690  11.778   0.955
23898SOL     OW73590   8.195  11.611   2.269
23898SOL    HW173591   8.125  11.579   2.212
23898SOL    HW273592   8.195  11.706   2.257
23899SOL     OW73593   5.302  11.275   5.772
23899SOL    HW173594   5.327  11.301   5.861
23899SOL    HW273595   5.223  11.326   5.753
23900SOL     OW73596   3.555  12.901  10.225
23900SOL    HW173597   3.572  12.817  10.267
23900SOL    HW273598   3.577  12.966  10.292
23901SOL     OW73599   1.024   0.955   2.313
23901SOL    HW173600   1.024   1.033   2.369
23901SOL    HW273601   1.038   0.882   2.374
23902SOL     OW73602   4.089   4.793   7.081
23902SOL    HW173603   4.077   4.720   7.021
23902SOL    HW273604   4.001   4.814   7.112
23903SOL     OW73605  13.367   3.629   9.169
23903SOL    HW173606  13.317   3.648   9.249
23903SOL    HW273607  13.301   3.629   9.099
23904SOL     OW73608  12.224   7.086   7.377
23904SOL    HW173609  12.130   7.088   7.396
23904SOL    HW273610  12.246   7.176   7.354
23905SOL     OW73611   6.863   8.640  13.445
23905SOL    HW173612   6.784   8.645  13.499
23905SOL    HW273613   6.933   8.621  13.507
23906SOL     OW73614   2.265  14.523   2.572
23906SOL    HW173615   2.246  14.616   2.582
23906SOL    HW273616   2.247  14.485   2.658
23907SOL     OW73617   5.285  12.975  11.396
23907SOL    HW173618   5.267  12.940  11.483
23907SOL    HW273619   5.365  12.929  11.368
23908SOL     OW73620  13.301   2.370   9.913
23908SOL    HW173621  13.365   2.366   9.984
23908SOL    HW273622  13.328   2.444   9.860
23909SOL     OW73623   8.737   6.034   5.595
23909SOL    HW173624   8.780   6.065   5.675
23909SOL    HW273625   8.785   6.077   5.524
23910SOL     OW73626  11.333   6.128   0.894
23910SOL    HW173627  11.303   6.101   0.807
23910SOL    HW273628  11.288   6.210   0.910
23911SOL     OW73629   6.934  13.504  13.560
23911SOL    HW173630   6.903  13.414  13.558
23911SOL    HW273631   6.917  13.533  13.650
23912SOL     OW73632   6.543   6.866  13.900
23912SOL    HW173633   6.565   6.872  13.807
23912SOL    HW273634   6.462   6.816  13.903
23913SOL     OW73635  13.581   6.924   8.415
23913SOL    HW173636  13.625   6.848   8.454
23913SOL    HW273637  13.619   6.930   8.327
23914SOL     OW73638   4.070   3.639  10.426
23914SOL    HW173639   4.149   3.586  10.442
23914SOL    HW273640   4.090   3.724  10.467
23915SOL     OW73641   9.865   0.086  12.037
23915SOL    HW173642   9.891  14.874  12.017
23915SOL    HW273643   9.930   0.117  12.099
23916SOL     OW73644   9.655   2.944   2.521
23916SOL    HW173645   9.562   2.924   2.528
23916SOL    HW273646   9.667   2.970   2.430
23917SOL     OW73647   8.404   1.745   9.991
23917SOL    HW173648   8.469   1.698   9.940
23917SOL    HW273649   8.364   1.807   9.929
23918SOL     OW73650  12.139  12.761   2.603
23918SOL    HW173651  12.108  12.821   2.671
23918SOL    HW273652  12.211  12.714   2.645
23919SOL     OW73653   7.486  13.910   5.428
23919SOL    HW173654   7.436  13.960   5.492
23919SOL    HW273655   7.464  13.819   5.448
23920SOL     OW73656   1.777   9.883   5.284
23920SOL    HW173657   1.726   9.876   5.365
23920SOL    HW273658   1.854   9.828   5.299
23921SOL     OW73659   0.029  10.722  14.109
23921SOL    HW173660  14.833  10.661  14.110
23921SOL    HW273661   0.100  10.672  14.068
23922SOL     OW73662   8.390  11.763  14.787
23922SOL    HW173663   8.323  11.831  14.786
23922SOL    HW273664   8.461  11.798  14.732
23923SOL     OW73665   6.352   3.667  11.511
23923SOL    HW173666   6.284   3.720  11.471
23923SOL    HW273667   6.387   3.615  11.438
23924SOL     OW73668   7.898  14.296   9.227
23924SOL    HW173669   7.817  14.262   9.188
23924SOL    HW273670   7.910  14.381   9.184
23925SOL     OW73671   8.064   3.175   3.865
23925SOL    HW173672   8.047   3.214   3.779
23925SOL    HW273673   8.146   3.217   3.894
23926SOL     OW73674   4.241  14.290  10.969
23926SOL    HW173675   4.259  14.284  11.063
23926SOL    HW273676   4.269  14.205  10.934
23927SOL     OW73677   9.356   2.998  14.235
23927SOL    HW173678   9.429   2.941  14.257
23927SOL    HW273679   9.369   3.018  14.142
23928SOL     OW73680   3.034   8.794   4.939
23928SOL    HW173681   2.994   8.734   4.875
23928SOL    HW273682   3.020   8.751   5.023
23929SOL     OW73683   9.002   6.046   9.958
23929SOL    HW173684   9.030   6.026   9.869
23929SOL    HW273685   9.009   5.963  10.005
23930SOL     OW73686  13.050   5.677   1.666
23930SOL    HW173687  12.980   5.613   1.673
23930SOL    HW273688  13.130   5.625   1.666
23931SOL     OW73689  10.549  10.776   3.995
23931SOL    HW173690  10.584  10.862   3.973
23931SOL    HW273691  10.475  10.793   4.051
23932SOL     OW73692   2.283   0.369  13.094
23932SOL    HW173693   2.217   0.374  13.163
23932SOL    HW273694   2.308   0.277  13.092
23933SOL     OW73695  14.246  12.553   5.555
23933SOL    HW173696  14.333  12.550   5.515
23933SOL    HW273697  14.204  12.472   5.527
23934SOL     OW73698  11.012  13.673   7.118
23934SOL    HW173699  11.010  13.625   7.201
23934SOL    HW273700  11.104  13.701   7.109
23935SOL     OW73701   6.930   7.750   2.819
23935SOL    HW173702   6.864   7.815   2.843
23935SOL    HW273703   7.011   7.801   2.810
23936SOL     OW73704   6.081   0.574   1.766
23936SOL    HW173705   5.998   0.615   1.740
23936SOL    HW273706   6.108   0.622   1.845
23937SOL     OW73707   0.423  13.697  11.003
23937SOL    HW173708   0.461  13.651  11.078
23937SOL    HW273709   0.340  13.653  10.987
23938SOL     OW73710   7.365   5.517   4.700
23938SOL    HW173711   7.323   5.591   4.743
23938SOL    HW273712   7.335   5.440   4.750
23939SOL     OW73713   1.862  12.392   9.340
23939SOL    HW173714   1.946  12.399   9.296
23939SOL    HW273715   1.874  12.442   9.421
23940SOL     OW73716  13.139   2.533   2.781
23940SOL    HW173717  13.152   2.509   2.689
23940SOL    HW273718  13.201   2.604   2.796
23941SOL     OW73719  14.698  12.228   1.925
23941SOL    HW173720  14.692  12.136   1.900
23941SOL    HW273721  14.718  12.274   1.844
23942SOL     OW73722  12.488   4.294   5.628
23942SOL    HW173723  12.559   4.341   5.673
23942SOL    HW273724  12.462   4.226   5.689
23943SOL     OW73725   9.433  13.433   5.279
23943SOL    HW173726   9.347  13.474   5.290
23943SOL    HW273727   9.470  13.475   5.201
23944SOL     OW73728   4.332   9.081   7.794
23944SOL    HW173729   4.354   9.016   7.860
23944SOL    HW273730   4.399   9.149   7.803
23945SOL     OW73731  10.375  11.871   4.227
23945SOL    HW173732  10.417  11.805   4.172
23945SOL    HW273733  10.411  11.954   4.196
23946SOL     OW73734  14.000   6.953   1.222
23946SOL    HW173735  14.068   6.989   1.280
23946SOL    HW273736  14.035   6.868   1.194
23947SOL     OW73737  10.432  10.365   0.838
23947SOL    HW173738  10.460  10.382   0.928
23947SOL    HW273739  10.337  10.371   0.841
23948SOL     OW73740   7.139   1.507   7.798
23948SOL    HW173741   7.112   1.599   7.800
23948SOL    HW273742   7.077   1.465   7.738
23949SOL     OW73743   5.547   8.295  13.120
23949SOL    HW173744   5.464   8.329  13.155
23949SOL    HW273745   5.546   8.202  13.142
23950SOL     OW73746  11.108  14.111   9.914
23950SOL    HW173747  11.094  14.180   9.849
23950SOL    HW273748  11.203  14.100   9.918
23951SOL     OW73749  14.677   5.701  10.346
23951SOL    HW173750  14.747   5.739  10.401
23951SOL    HW273751  14.681   5.607  10.364
23952SOL     OW73752  11.046  13.857   8.914
23952SOL    HW173753  11.026  13.778   8.963
23952SOL    HW273754  11.003  13.927   8.963
23953SOL     OW73755  13.196  12.959   4.399
23953SOL    HW173756  13.285  12.988   4.419
23953SOL    HW273757  13.203  12.864   4.391
23954SOL     OW73758   9.884  13.600   7.477
23954SOL    HW173759   9.891  13.659   7.402
23954SOL    HW273760   9.960  13.620   7.531
23955SOL     OW73761   0.687  10.496  12.486
23955SOL    HW173762   0.599  10.462  12.469
23955SOL    HW273763   0.730  10.495  12.400
23956SOL     OW73764   8.722  12.207   3.469
23956SOL    HW173765   8.770  12.281   3.433
23956SOL    HW273766   8.632  12.221   3.442
23957SOL     OW73767  10.320   4.696  13.736
23957SOL    HW173768  10.393   4.643  13.767
23957SOL    HW273769  10.331   4.701  13.641
23958SOL     OW73770   7.495  11.243  12.292
23958SOL    HW173771   7.422  11.262  12.352
23958SOL    HW273772   7.562  11.307  12.316
23959SOL     OW73773  10.637   1.340  11.434
23959SOL    HW173774  10.731   1.332  11.414
23959SOL    HW273775  10.609   1.419  11.387
23960SOL     OW73776   4.333  11.647  14.748
23960SOL    HW173777   4.286  11.616  14.670
23960SOL    HW273778   4.367  11.733  14.722
23961SOL     OW73779  10.561   1.229  10.666
23961SOL    HW173780  10.491   1.280  10.707
23961SOL    HW273781  10.535   1.137  10.680
23962SOL     OW73782  13.092   0.480   5.224
23962SOL    HW173783  13.041   0.558   5.241
23962SOL    HW273784  13.027   0.411   5.211
23963SOL     OW73785  14.584  11.874   3.341
23963SOL    HW173786  14.644  11.910   3.276
23963SOL    HW273787  14.555  11.949   3.392
23964SOL     OW73788   6.838   0.787   3.889
23964SOL    HW173789   6.833   0.868   3.838
23964SOL    HW273790   6.875   0.814   3.973
23965SOL     OW73791   3.582   7.014   4.151
23965SOL    HW173792   3.538   6.946   4.101
23965SOL    HW273793   3.537   7.014   4.236
23966SOL     OW73794   7.801   3.756  11.942
23966SOL    HW173795   7.764   3.699  11.874
23966SOL    HW273796   7.784   3.845  11.911
23967SOL     OW73797   8.353   8.136  14.828
23967SOL    HW173798   8.419   8.201  14.855
23967SOL    HW273799   8.271   8.185  14.825
23968SOL     OW73800   0.454  10.560  14.168
23968SOL    HW173801   0.424  10.613  14.094
23968SOL    HW273802   0.533  10.604  14.198
23969SOL     OW73803   3.422   8.770   9.031
23969SOL    HW173804   3.415   8.678   9.057
23969SOL    HW273805   3.377   8.775   8.947
23970SOL     OW73806   7.739  10.088   0.326
23970SOL    HW173807   7.803  10.035   0.279
23970SOL    HW273808   7.702  10.029   0.391
23971SOL     OW73809  12.725  11.869  10.109
23971SOL    HW173810  12.648  11.867  10.052
23971SOL    HW273811  12.714  11.793  10.167
23972SOL     OW73812  12.619   0.220  13.585
23972SOL    HW173813  12.694   0.278  13.573
23972SOL    HW273814  12.569   0.259  13.657
23973SOL     OW73815  12.794   3.420   4.473
23973SOL    HW173816  12.786   3.503   4.519
23973SOL    HW273817  12.850   3.367   4.530
23974SOL     OW73818   0.648   7.929   0.053
23974SOL    HW173819   0.567   7.948   0.006
23974SOL    HW273820   0.664   8.007   0.105
23975SOL     OW73821  11.633   7.628  11.740
23975SOL    HW173822  11.657   7.686  11.812
23975SOL    HW273823  11.624   7.542  11.781
23976SOL     OW73824   7.710  13.024  12.589
23976SOL    HW173825   7.723  13.095  12.525
23976SOL    HW273826   7.702  13.069  12.673
23977SOL     OW73827   5.419  14.559   5.494
23977SOL    HW173828   5.415  14.648   5.460
23977SOL    HW273829   5.391  14.567   5.586
23978SOL     OW73830  14.170  12.339   8.870
23978SOL    HW173831  14.100  12.374   8.815
23978SOL    HW273832  14.207  12.416   8.914
23979SOL     OW73833  11.108   6.821   9.713
23979SOL    HW173834  11.046   6.869   9.767
23979SOL    HW273835  11.077   6.730   9.717
23980SOL     OW73836   1.337   2.794   9.226
23980SOL    HW173837   1.325   2.702   9.249
23980SOL    HW273838   1.326   2.841   9.309
23981SOL     OW73839   6.406  12.507   5.292
23981SOL    HW173840   6.442  12.420   5.272
23981SOL    HW273841   6.312  12.497   5.280
23982SOL     OW73842   2.327  10.321   5.980
23982SOL    HW173843   2.243  10.335   5.938
23982SOL    HW273844   2.317  10.236   6.025
23983SOL     OW73845   2.952  10.543   3.813
23983SOL    HW173846   2.921  10.460   3.777
23983SOL    HW273847   3.041  10.552   3.779
23984SOL     OW73848   0.474   9.292   3.006
23984SOL    HW173849   0.564   9.277   2.977
23984SOL    HW273850   0.457   9.385   2.985
23985SOL     OW73851  12.394   7.656   4.926
23985SOL    HW173852  12.428   7.684   5.011
23985SOL    HW273853  12.445   7.705   4.862
23986SOL     OW73854   3.781   6.654   3.285
23986SOL    HW173855   3.696   6.696   3.293
23986SOL    HW273856   3.818   6.689   3.204
23987SOL     OW73857   8.732   1.142   8.922
23987SOL    HW173858   8.759   1.082   8.853
23987SOL    HW273859   8.808   1.199   8.934
23988SOL     OW73860  12.909  12.276   7.204
23988SOL    HW173861  12.828  12.296   7.156
23988SOL    HW273862  12.888  12.197   7.253
23989SOL     OW73863   0.915  14.455   3.287
23989SOL    HW173864   0.861  14.534   3.283
23989SOL    HW273865   0.996  14.478   3.242
23990SOL     OW73866  10.069  13.758  11.412
23990SOL    HW173867  10.138  13.772  11.346
23990SOL    HW273868  10.023  13.842  11.416
23991SOL     OW73869   3.717   3.752   7.943
23991SOL    HW173870   3.668   3.831   7.965
23991SOL    HW273871   3.681   3.723   7.859
23992SOL     OW73872   1.293   1.651   8.504
23992SOL    HW173873   1.286   1.555   8.501
23992SOL    HW273874   1.210   1.679   8.541
23993SOL     OW73875   9.263  13.901  11.473
23993SOL    HW173876   9.245  13.907  11.567
23993SOL    HW273877   9.318  13.823  11.464
23994SOL     OW73878   5.682  12.149   5.108
23994SOL    HW173879   5.708  12.062   5.078
23994SOL    HW273880   5.599  12.165   5.063
23995SOL     OW73881  11.737  11.242   5.300
23995SOL    HW173882  11.701  11.318   5.253
23995SOL    HW273883  11.662  11.204   5.346
23996SOL     OW73884   6.653   8.685   0.949
23996SOL    HW173885   6.649   8.666   1.042
23996SOL    HW273886   6.646   8.600   0.906
23997SOL     OW73887   3.317   7.825  14.049
23997SOL    HW173888   3.340   7.901  14.103
23997SOL    HW273889   3.279   7.762  14.111
23998SOL     OW73890   3.187   9.676   8.059
23998SOL    HW173891   3.204   9.583   8.075
23998SOL    HW273892   3.273   9.718   8.067
23999SOL     OW73893  10.803   9.759   9.544
23999SOL    HW173894  10.782   9.809   9.622
23999SOL    HW273895  10.754   9.802   9.474
24000SOL     OW73896  13.307   1.204  10.728
24000SOL    HW173897  13.400   1.182  10.740
24000SOL    HW273898  13.262   1.143  10.787
24001SOL     OW73899  10.798   4.325  12.966
24001SOL    HW173900  10.876   4.368  13.002
24001SOL    HW273901  10.803   4.235  12.998
24002SOL     OW73902   3.467   5.096  12.131
24002SOL    HW173903   3.494   5.160  12.066
24002SOL    HW273904   3.443   5.148  12.207
24003SOL     OW73905  14.099   2.981   4.212
24003SOL    HW173906  14.106   3.045   4.283
24003SOL    HW273907  14.092   2.897   4.255
24004SOL     OW73908   5.859   7.373   4.000
24004SOL    HW173909   5.786   7.327   4.041
24004SOL    HW273910   5.826   7.399   3.914
24005SOL     OW73911   7.912   8.868   4.843
24005SOL    HW173912   7.987   8.926   4.854
24005SOL    HW273913   7.865   8.872   4.926
24006SOL     OW73914   5.788  13.309  13.434
24006SOL    HW173915   5.733  13.347  13.366
24006SOL    HW273916   5.757  13.350  13.515
24007SOL     OW73917   5.477   7.553  11.364
24007SOL    HW173918   5.405   7.493  11.380
24007SOL    HW273919   5.552   7.514  11.408
24008SOL     OW73920  14.112  10.416   6.074
24008SOL    HW173921  14.153  10.498   6.101
24008SOL    HW273922  14.037  10.406   6.133
24009SOL     OW73923   5.075   0.903   0.281
24009SOL    HW173924   5.149   0.963   0.291
24009SOL    HW273925   5.104   0.822   0.324
24010SOL     OW73926   6.038   5.461   6.384
24010SOL    HW173927   5.959   5.409   6.398
24010SOL    HW273928   6.102   5.400   6.347
24011SOL     OW73929  13.228   1.364   7.532
24011SOL    HW173930  13.203   1.372   7.624
24011SOL    HW273931  13.283   1.286   7.528
24012SOL     OW73932   5.862   5.841  10.978
24012SOL    HW173933   5.827   5.908  10.921
24012SOL    HW273934   5.785   5.801  11.019
24013SOL     OW73935   9.925   1.903  13.658
24013SOL    HW173936   9.968   1.980  13.695
24013SOL    HW273937   9.994   1.837  13.651
24014SOL     OW73938   4.568  13.256  12.222
24014SOL    HW173939   4.486  13.275  12.175
24014SOL    HW273940   4.586  13.336  12.271
24015SOL     OW73941  12.578   7.644   1.593
24015SOL    HW173942  12.663   7.609   1.569
24015SOL    HW273943  12.552   7.593   1.671
24016SOL     OW73944   4.503   9.977   3.475
24016SOL    HW173945   4.461  10.053   3.515
24016SOL    HW273946   4.430   9.929   3.435
24017SOL     OW73947   9.982  10.018   7.710
24017SOL    HW173948  10.008  10.078   7.780
24017SOL    HW273949   9.992  10.070   7.629
24018SOL     OW73950  12.540   8.246   7.623
24018SOL    HW173951  12.477   8.240   7.695
24018SOL    HW273952  12.623   8.269   7.666
24019SOL     OW73953  13.379   7.337  13.800
24019SOL    HW173954  13.317   7.275  13.762
24019SOL    HW273955  13.333   7.373  13.877
24020SOL     OW73956  13.434   1.946   1.041
24020SOL    HW173957  13.433   1.871   0.982
24020SOL    HW273958  13.407   1.911   1.126
24021SOL     OW73959  11.059   4.752   5.246
24021SOL    HW173960  10.995   4.717   5.184
24021SOL    HW273961  11.048   4.698   5.325
24022SOL     OW73962  14.445   5.362  11.687
24022SOL    HW173963  14.367   5.315  11.717
24022SOL    HW273964  14.516   5.330  11.743
24023SOL     OW73965  13.265   0.638   1.139
24023SOL    HW173966  13.338   0.576   1.146
24023SOL    HW273967  13.217   0.610   1.062
24024SOL     OW73968   1.373   5.524  12.020
24024SOL    HW173969   1.401   5.577  11.946
24024SOL    HW273970   1.357   5.587  12.090
24025SOL     OW73971   6.217   6.744   6.415
24025SOL    HW173972   6.177   6.706   6.493
24025SOL    HW273973   6.310   6.726   6.424
24026SOL     OW73974   4.210   8.109   5.143
24026SOL    HW173975   4.280   8.163   5.107
24026SOL    HW273976   4.246   8.021   5.144
24027SOL     OW73977   1.731   1.344  14.208
24027SOL    HW173978   1.792   1.413  14.184
24027SOL    HW273979   1.664   1.388  14.261
24028SOL     OW73980   5.381  13.800  10.965
24028SOL    HW173981   5.305  13.744  10.950
24028SOL    HW273982   5.418  13.814  10.878
24029SOL     OW73983   5.111   3.237  13.980
24029SOL    HW173984   5.089   3.146  13.958
24029SOL    HW273985   5.061   3.290  13.918
24030SOL     OW73986  11.079   1.273   8.214
24030SOL    HW173987  11.163   1.284   8.258
24030SOL    HW273988  11.084   1.186   8.175
24031SOL     OW73989  10.575  14.158  12.068
24031SOL    HW173990  10.624  14.199  12.139
24031SOL    HW273991  10.568  14.066  12.094
24032SOL     OW73992  10.229  13.379   9.666
24032SOL    HW173993  10.201  13.425   9.587
24032SOL    HW273994  10.206  13.439   9.737
24033SOL     OW73995   9.185   7.636   9.262
24033SOL    HW173996   9.163   7.564   9.320
24033SOL    HW273997   9.106   7.689   9.257
24034SOL     OW73998  10.043   6.584   0.011
24034SOL    HW173999  10.051   6.672   0.046
24034SOL    HW274000  10.063   6.527   0.085
24035SOL     OW74001   9.049   4.285  10.670
24035SOL    HW174002   9.131   4.287  10.621
24035SOL    HW274003   8.982   4.307  10.605
24036SOL     OW74004  12.244   2.280   1.787
24036SOL    HW174005  12.174   2.345   1.774
24036SOL    HW274006  12.251   2.270   1.882
24037SOL     OW74007   1.849   0.942  12.430
24037SOL    HW174008   1.755   0.961  12.423
24037SOL    HW274009   1.888   1.023  12.461
24038SOL     OW74010   8.111   1.008  13.267
24038SOL    HW174011   8.077   0.925  13.235
24038SOL    HW274012   8.056   1.075  13.226
24039SOL     OW74013   8.754   8.883   9.283
24039SOL    HW174014   8.789   8.872   9.195
24039SOL    HW274015   8.725   8.796   9.308
24040SOL     OW74016   1.337   8.951   1.221
24040SOL    HW174017   1.338   9.019   1.154
24040SOL    HW274018   1.255   8.966   1.268
24041SOL     OW74019   7.527  14.167  12.915
24041SOL    HW174020   7.444  14.214  12.911
24041SOL    HW274021   7.509  14.091  12.970
24042SOL     OW74022   0.432   3.928   1.228
24042SOL    HW174023   0.451   3.975   1.147
24042SOL    HW274024   0.338   3.938   1.241
24043SOL     OW74025   9.714  11.543   5.781
24043SOL    HW174026   9.756  11.462   5.751
24043SOL    HW274027   9.758  11.612   5.733
24044SOL     OW74028   9.404   0.533   5.066
24044SOL    HW174029   9.347   0.532   4.990
24044SOL    HW274030   9.347   0.556   5.139
24045SOL     OW74031   1.727  11.440  13.146
24045SOL    HW174032   1.643  11.485  13.154
24045SOL    HW274033   1.792  11.507  13.165
24046SOL     OW74034   8.225   7.900   8.135
24046SOL    HW174035   8.193   7.981   8.173
24046SOL    HW274036   8.260   7.850   8.209
24047SOL     OW74037   7.964   7.509  10.490
24047SOL    HW174038   7.900   7.567  10.532
24047SOL    HW274039   8.048   7.551  10.505
24048SOL     OW74040  11.912   5.242   5.546
24048SOL    HW174041  11.967   5.258   5.469
24048SOL    HW274042  11.837   5.299   5.533
24049SOL     OW74043   2.809  10.594  12.451
24049SOL    HW174044   2.829  10.501  12.442
24049SOL    HW274045   2.736  10.596  12.513
24050SOL     OW74046   2.431  12.679   0.232
24050SOL    HW174047   2.346  12.645   0.259
24050SOL    HW274048   2.418  12.712   0.143
24051SOL     OW74049  10.224   8.683   5.801
24051SOL    HW174050  10.317   8.698   5.782
24051SOL    HW274051  10.221   8.666   5.895
24052SOL     OW74052   6.789   1.332   0.061
24052SOL    HW174053   6.869   1.301   0.018
24052SOL    HW274054   6.723   1.334  14.869
24053SOL     OW74055   4.302  14.033   1.004
24053SOL    HW174056   4.322  14.069   0.918
24053SOL    HW274057   4.240  13.962   0.987
24054SOL     OW74058   6.195  13.066   9.921
24054SOL    HW174059   6.243  13.091   9.843
24054SOL    HW274060   6.261  13.060   9.990
24055SOL     OW74061   6.394  11.087   5.931
24055SOL    HW174062   6.336  11.037   5.873
24055SOL    HW274063   6.354  11.174   5.935
24056SOL     OW74064   2.659  11.974   7.709
24056SOL    HW174065   2.719  11.963   7.635
24056SOL    HW274066   2.694  11.917   7.777
24057SOL     OW74067  10.881   7.463   3.706
24057SOL    HW174068  10.895   7.368   3.698
24057SOL    HW274069  10.896   7.482   3.798
24058SOL     OW74070   1.565   4.643   3.673
24058SOL    HW174071   1.635   4.612   3.615
24058SOL    HW274072   1.517   4.563   3.696
24059SOL     OW74073   9.966   8.132  10.372
24059SOL    HW174074   9.959   8.123  10.467
24059SOL    HW274075   9.900   8.197  10.349
24060SOL     OW74076   5.583   1.707   5.991
24060SOL    HW174077   5.506   1.719   6.046
24060SOL    HW274078   5.584   1.613   5.972
24061SOL     OW74079   9.496   3.893   1.936
24061SOL    HW174080   9.536   3.976   1.908
24061SOL    HW274081   9.425   3.919   1.995
24062SOL     OW74082   4.303   7.059  13.303
24062SOL    HW174083   4.239   7.019  13.245
24062SOL    HW274084   4.374   7.087  13.246
24063SOL     OW74085  12.427  13.491   3.700
24063SOL    HW174086  12.496  13.556   3.713
24063SOL    HW274087  12.385  13.482   3.785
24064SOL     OW74088   3.227   7.967   0.002
24064SOL    HW174089   3.305   8.016   0.028
24064SOL    HW274090   3.248   7.930  14.794
24065SOL     OW74091   5.821   8.454  11.435
24065SOL    HW174092   5.900   8.495  11.401
24065SOL    HW274093   5.804   8.381  11.376
24066SOL     OW74094  11.021   8.589   8.239
24066SOL    HW174095  10.965   8.513   8.253
24066SOL    HW274096  11.101   8.553   8.201
24067SOL     OW74097   4.261   3.886   9.051
24067SOL    HW174098   4.243   3.825   9.123
24067SOL    HW274099   4.224   3.969   9.080
24068SOL     OW74100   9.241   8.966   5.524
24068SOL    HW174101   9.288   9.031   5.470
24068SOL    HW274102   9.270   8.984   5.613
24069SOL     OW74103   7.983  10.540   6.554
24069SOL    HW174104   7.969  10.588   6.635
24069SOL    HW274105   8.067  10.496   6.565
24070SOL     OW74106   6.760   2.693   8.463
24070SOL    HW174107   6.849   2.666   8.438
24070SOL    HW274108   6.741   2.641   8.541
24071SOL     OW74109   0.129   2.466   1.685
24071SOL    HW174110   0.125   2.549   1.731
24071SOL    HW274111   0.055   2.415   1.721
24072SOL     OW74112   5.828   0.134   0.700
24072SOL    HW174113   5.805   0.131   0.607
24072SOL    HW274114   5.773   0.203   0.736
24073SOL     OW74115   3.075  13.372   5.559
24073SOL    HW174116   3.081  13.437   5.630
24073SOL    HW274117   3.164  13.340   5.548
24074SOL     OW74118  14.614  10.033   3.574
24074SOL    HW174119  14.707  10.012   3.584
24074SOL    HW274120  14.590   9.996   3.488
24075SOL     OW74121   5.227  12.698  11.618
24075SOL    HW174122   5.311  12.728  11.654
24075SOL    HW274123   5.224  12.605  11.639
24076SOL     OW74124   4.078  12.159  14.205
24076SOL    HW174125   4.162  12.130  14.167
24076SOL    HW274126   4.081  12.128  14.296
24077SOL     OW74127  10.211   3.158   3.337
24077SOL    HW174128  10.282   3.104   3.372
24077SOL    HW274129  10.217   3.147   3.242
24078SOL     OW74130   6.872   7.761   1.458
24078SOL    HW174131   6.907   7.837   1.504
24078SOL    HW274132   6.948   7.707   1.438
24079SOL     OW74133  11.013   8.482  12.590
24079SOL    HW174134  11.036   8.537  12.665
24079SOL    HW274135  10.941   8.427  12.622
24080SOL     OW74136   2.048  13.461   7.519
24080SOL    HW174137   1.985  13.493   7.455
24080SOL    HW274138   2.102  13.398   7.471
24081SOL     OW74139   2.157   1.157   3.542
24081SOL    HW174140   2.087   1.208   3.584
24081SOL    HW274141   2.116   1.119   3.465
24082SOL     OW74142   3.669   3.195   4.412
24082SOL    HW174143   3.720   3.223   4.488
24082SOL    HW274144   3.701   3.106   4.394
24083SOL     OW74145   1.420   5.412  11.508
24083SOL    HW174146   1.441   5.489  11.456
24083SOL    HW274147   1.371   5.446  11.583
24084SOL     OW74148  11.005   5.962   3.895
24084SOL    HW174149  10.943   6.035   3.895
24084SOL    HW274150  11.038   5.959   3.806
24085SOL     OW74151   6.176  12.168   8.686
24085SOL    HW174152   6.201  12.182   8.595
24085SOL    HW274153   6.245  12.111   8.721
24086SOL     OW74154   0.762  14.437   0.542
24086SOL    HW174155   0.782  14.529   0.559
24086SOL    HW274156   0.720  14.406   0.623
24087SOL     OW74157  10.278  10.621   2.572
24087SOL    HW174158  10.338  10.669   2.628
24087SOL    HW274159  10.260  10.540   2.619
24088SOL     OW74160   5.218  11.843   7.390
24088SOL    HW174161   5.128  11.866   7.410
24088SOL    HW274162   5.269  11.919   7.419
24089SOL     OW74163  10.846   1.046   1.761
24089SOL    HW174164  10.878   0.971   1.710
24089SOL    HW274165  10.873   1.123   1.711
24090SOL     OW74166  12.096   0.176  13.940
24090SOL    HW174167  12.133   0.255  13.981
24090SOL    HW274168  12.159   0.153  13.871
24091SOL     OW74169   0.020   9.579  13.290
24091SOL    HW174170   0.060   9.646  13.235
24091SOL    HW274171  14.841   9.628  13.350
24092SOL     OW74172   4.744   6.728   6.674
24092SOL    HW174173   4.788   6.802   6.717
24092SOL    HW274174   4.777   6.651   6.721
24093SOL     OW74175  12.641  12.373   7.540
24093SOL    HW174176  12.715  12.319   7.568
24093SOL    HW274177  12.589  12.387   7.619
24094SOL     OW74178   8.414   3.387  12.192
24094SOL    HW174179   8.482   3.328  12.226
24094SOL    HW274180   8.371   3.421  12.270
24095SOL     OW74181   3.778  13.583   7.972
24095SOL    HW174182   3.687  13.574   7.999
24095SOL    HW274183   3.776  13.639   7.894
24096SOL     OW74184  14.065  12.241  11.702
24096SOL    HW174185  14.002  12.187  11.654
24096SOL    HW274186  14.068  12.324  11.655
24097SOL     OW74187  10.408  10.404   3.270
24097SOL    HW174188  10.324  10.357   3.265
24097SOL    HW274189  10.407  10.463   3.195
24098SOL     OW74190  10.669   8.565  14.054
24098SOL    HW174191  10.751   8.607  14.029
24098SOL    HW274192  10.667   8.571  14.149
24099SOL     OW74193  13.380   8.866   7.499
24099SOL    HW174194  13.306   8.914   7.536
24099SOL    HW274195  13.441   8.933   7.469
24100SOL     OW74196  10.231  13.824   6.284
24100SOL    HW174197  10.250  13.881   6.210
24100SOL    HW274198  10.230  13.882   6.360
24101SOL     OW74199   5.433   6.525  13.928
24101SOL    HW174200   5.413   6.576  14.006
24101SOL    HW274201   5.474   6.445  13.961
24102SOL     OW74202   9.656   4.460   4.613
24102SOL    HW174203   9.564   4.459   4.586
24102SOL    HW274204   9.653   4.468   4.709
24103SOL     OW74205   9.344   8.780   4.317
24103SOL    HW174206   9.328   8.772   4.411
24103SOL    HW274207   9.381   8.695   4.291
24104SOL     OW74208   5.606  12.895   7.011
24104SOL    HW174209   5.619  12.808   7.050
24104SOL    HW274210   5.538  12.935   7.066
24105SOL     OW74211   6.057   3.519   9.830
24105SOL    HW174212   6.124   3.575   9.869
24105SOL    HW274213   6.105   3.456   9.777
24106SOL     OW74214   6.526   4.289   0.606
24106SOL    HW174215   6.573   4.253   0.531
24106SOL    HW274216   6.539   4.384   0.599
24107SOL     OW74217  13.543   6.875   4.355
24107SOL    HW174218  13.451   6.902   4.357
24107SOL    HW274219  13.544   6.798   4.298
24108SOL     OW74220   3.859   2.049   6.364
24108SOL    HW174221   3.932   1.990   6.344
24108SOL    HW274222   3.849   2.103   6.286
24109SOL     OW74223   3.780   8.871   8.844
24109SOL    HW174224   3.748   8.928   8.774
24109SOL    HW274225   3.838   8.809   8.800
24110SOL     OW74226   3.892  13.648   1.947
24110SOL    HW174227   3.924  13.627   1.859
24110SOL    HW274228   3.833  13.575   1.969
24111SOL     OW74229  11.197  10.235   9.140
24111SOL    HW174230  11.240  10.287   9.207
24111SOL    HW274231  11.252  10.244   9.063
24112SOL     OW74232   4.070  11.775  13.012
24112SOL    HW174233   4.067  11.854  12.958
24112SOL    HW274234   4.160  11.771  13.043
24113SOL     OW74235  10.899   7.622   9.866
24113SOL    HW174236  10.906   7.632   9.960
24113SOL    HW274237  10.980   7.658   9.831
24114SOL     OW74238   0.610   3.108   6.031
24114SOL    HW174239   0.659   3.033   5.998
24114SOL    HW274240   0.522   3.097   5.995
24115SOL     OW74241   1.057   8.832   9.570
24115SOL    HW174242   1.063   8.922   9.602
24115SOL    HW274243   1.122   8.827   9.500
24116SOL     OW74244   8.455  13.617  12.005
24116SOL    HW174245   8.475  13.622  12.098
24116SOL    HW274246   8.460  13.524  11.983
24117SOL     OW74247   0.962   3.081   2.350
24117SOL    HW174248   0.943   3.007   2.292
24117SOL    HW274249   1.023   3.135   2.300
24118SOL     OW74250   4.429   4.814  10.028
24118SOL    HW174251   4.355   4.822  10.088
24118SOL    HW274252   4.390   4.819   9.940
24119SOL     OW74253   2.480   9.917   1.477
24119SOL    HW174254   2.496   9.881   1.389
24119SOL    HW274255   2.425   9.851   1.520
24120SOL     OW74256   4.865   7.781  12.441
24120SOL    HW174257   4.853   7.848  12.374
24120SOL    HW274258   4.840   7.700  12.398
24121SOL     OW74259   4.943  11.665   2.497
24121SOL    HW174260   4.926  11.625   2.412
24121SOL    HW274261   4.946  11.759   2.479
24122SOL     OW74262  14.786   7.686  13.838
24122SOL    HW174263  14.793   7.764  13.783
24122SOL    HW274264  14.743   7.621  13.781
24123SOL     OW74265   2.632   0.689   3.779
24123SOL    HW174266   2.641   0.727   3.867
24123SOL    HW274267   2.702   0.731   3.728
24124SOL     OW74268   3.578   0.202   3.809
24124SOL    HW174269   3.519   0.277   3.795
24124SOL    HW274270   3.534   0.149   3.875
24125SOL     OW74271   4.732  11.323   8.253
24125SOL    HW174272   4.794  11.253   8.232
24125SOL    HW274273   4.785  11.391   8.294
24126SOL     OW74274  11.653   3.680   5.516
24126SOL    HW174275  11.577   3.697   5.572
24126SOL    HW274276  11.671   3.587   5.528
24127SOL     OW74277   9.136  10.598   5.013
24127SOL    HW174278   9.230  10.615   5.004
24127SOL    HW274279   9.129  10.545   5.092
24128SOL     OW74280   6.337  11.966   7.011
24128SOL    HW174281   6.359  12.005   6.926
24128SOL    HW274282   6.247  11.935   7.001
24129SOL     OW74283   1.105   5.045  10.087
24129SOL    HW174284   1.124   5.022  10.177
24129SOL    HW274285   1.010   5.057  10.084
24130SOL     OW74286   8.604  10.300   3.322
24130SOL    HW174287   8.640  10.251   3.396
24130SOL    HW274288   8.525  10.252   3.299
24131SOL     OW74289   6.959   9.880   4.182
24131SOL    HW174290   6.902   9.913   4.111
24131SOL    HW274291   7.045   9.916   4.162
24132SOL     OW74292   2.462  13.808   5.719
24132SOL    HW174293   2.546  13.820   5.763
24132SOL    HW274294   2.445  13.893   5.677
24133SOL     OW74295   8.990  10.324   4.754
24133SOL    HW174296   8.927  10.281   4.697
24133SOL    HW274297   9.026  10.253   4.808
24134SOL     OW74298   6.710   7.654  13.819
24134SOL    HW174299   6.739   7.732  13.866
24134SOL    HW274300   6.659   7.605  13.883
24135SOL     OW74301  13.566   9.024   3.893
24135SOL    HW174302  13.619   8.969   3.835
24135SOL    HW274303  13.481   8.979   3.897
24136SOL     OW74304   9.425   6.772   7.761
24136SOL    HW174305   9.510   6.788   7.721
24136SOL    HW274306   9.366   6.833   7.717
24137SOL     OW74307   3.717  14.533   5.841
24137SOL    HW174308   3.702  14.498   5.753
24137SOL    HW274309   3.774  14.468   5.883
24138SOL     OW74310   0.829   2.629  12.566
24138SOL    HW174311   0.794   2.681  12.494
24138SOL    HW274312   0.917   2.604  12.537
24139SOL     OW74313   9.316   0.602   4.550
24139SOL    HW174314   9.318   0.596   4.455
24139SOL    HW274315   9.408   0.593   4.577
24140SOL     OW74316  11.528   0.500   9.464
24140SOL    HW174317  11.608   0.448   9.456
24140SOL    HW274318  11.464   0.457   9.408
24141SOL     OW74319   6.900   3.282   9.699
24141SOL    HW174320   6.884   3.231   9.619
24141SOL    HW274321   6.938   3.219   9.760
24142SOL     OW74322   2.138   6.122   5.786
24142SOL    HW174323   2.154   6.209   5.750
24142SOL    HW274324   2.082   6.079   5.721
24143SOL     OW74325   9.130   3.262   8.346
24143SOL    HW174326   9.109   3.192   8.284
24143SOL    HW274327   9.217   3.238   8.380
24144SOL     OW74328  13.676  10.358   7.069
24144SOL    HW174329  13.759  10.346   7.024
24144SOL    HW274330  13.638  10.271   7.074
24145SOL     OW74331  10.597   5.365   8.630
24145SOL    HW174332  10.550   5.340   8.709
24145SOL    HW274333  10.637   5.449   8.652
24146SOL     OW74334  10.741   8.965   0.178
24146SOL    HW174335  10.820   8.985   0.127
24146SOL    HW274336  10.675   8.943   0.112
24147SOL     OW74337  10.658  13.121   9.933
24147SOL    HW174338  10.652  13.029   9.907
24147SOL    HW274339  10.570  13.142   9.965
24148SOL     OW74340  11.426  11.334   0.185
24148SOL    HW174341  11.505  11.307   0.137
24148SOL    HW274342  11.459  11.372   0.266
24149SOL     OW74343   8.685   9.445  13.959
24149SOL    HW174344   8.747   9.392  13.908
24149SOL    HW274345   8.599   9.411  13.933
24150SOL     OW74346   7.662   9.877   6.883
24150SOL    HW174347   7.573   9.903   6.907
24150SOL    HW274348   7.680   9.801   6.939
24151SOL     OW74349   7.775   3.944   1.826
24151SOL    HW174350   7.825   3.879   1.777
24151SOL    HW274351   7.842   4.002   1.863
24152SOL     OW74352   1.096   2.704   5.238
24152SOL    HW174353   1.021   2.684   5.293
24152SOL    HW274354   1.100   2.633   5.175
24153SOL     OW74355   3.573  13.756   0.802
24153SOL    HW174356   3.493  13.715   0.832
24153SOL    HW274357   3.626  13.684   0.768
24154SOL     OW74358  13.836   8.283  10.348
24154SOL    HW174359  13.799   8.232  10.276
24154SOL    HW274360  13.876   8.358  10.305
24155SOL     OW74361   0.557   9.813   2.969
24155SOL    HW174362   0.649   9.837   2.985
24155SOL    HW274363   0.517   9.815   3.056
24156SOL     OW74364  12.257  11.787   7.462
24156SOL    HW174365  12.244  11.855   7.528
24156SOL    HW274366  12.311  11.722   7.505
24157SOL     OW74367  11.805  11.597   1.230
24157SOL    HW174368  11.766  11.535   1.292
24157SOL    HW274369  11.747  11.673   1.233
24158SOL     OW74370   4.201   1.020   5.866
24158SOL    HW174371   4.181   1.029   5.959
24158SOL    HW274372   4.136   0.958   5.833
24159SOL     OW74373   7.338   1.979   7.981
24159SOL    HW174374   7.371   1.989   8.070
24159SOL    HW274375   7.252   1.938   7.993
24160SOL     OW74376   4.571   5.743   5.564
24160SOL    HW174377   4.651   5.771   5.609
24160SOL    HW274378   4.545   5.820   5.512
24161SOL     OW74379   9.960   3.975  11.059
24161SOL    HW174380  10.003   4.057  11.085
24161SOL    HW274381   9.869   3.986  11.085
24162SOL     OW74382  12.187   1.214  11.023
24162SOL    HW174383  12.215   1.207  10.931
24162SOL    HW274384  12.266   1.196  11.073
24163SOL     OW74385  13.626   9.128  13.657
24163SOL    HW174386  13.704   9.182  13.654
24163SOL    HW274387  13.559   9.184  13.696
24164SOL     OW74388   8.288  12.330  12.180
24164SOL    HW174389   8.318  12.308  12.269
24164SOL    HW274390   8.286  12.245  12.135
24165SOL     OW74391  14.644   3.351   9.502
24165SOL    HW174392  14.575   3.414   9.522
24165SOL    HW274393  14.688   3.387   9.425
24166SOL     OW74394   3.465   5.892   0.561
24166SOL    HW174395   3.532   5.890   0.493
24166SOL    HW274396   3.510   5.930   0.637
24167SOL     OW74397   8.002  13.785   0.179
24167SOL    HW174398   8.062  13.710   0.179
24167SOL    HW274399   8.038  13.844   0.113
24168SOL     OW74400   0.974   1.496  11.363
24168SOL    HW174401   0.895   1.550  11.367
24168SOL    HW274402   0.993   1.473  11.454
24169SOL     OW74403   9.963  12.244   5.415
24169SOL    HW174404   9.972  12.151   5.433
24169SOL    HW274405   9.895  12.274   5.476
24170SOL     OW74406   0.355   0.759   5.233
24170SOL    HW174407   0.440   0.719   5.250
24170SOL    HW274408   0.373   0.853   5.234
24171SOL     OW74409   6.037   0.304  10.251
24171SOL    HW174410   5.948   0.322  10.220
24171SOL    HW274411   6.064   0.226  10.203
24172SOL     OW74412   9.598   9.025   1.810
24172SOL    HW174413   9.683   9.025   1.765
24172SOL    HW274414   9.614   9.075   1.890
24173SOL     OW74415   6.682   0.394   2.080
24173SOL    HW174416   6.714   0.482   2.061
24173SOL    HW274417   6.753   0.336   2.052
24174SOL     OW74418   6.642  14.664  10.630
24174SOL    HW174419   6.692  14.731  10.583
24174SOL    HW274420   6.575  14.636  10.567
24175SOL     OW74421   6.148   4.404   6.290
24175SOL    HW174422   6.140   4.343   6.217
24175SOL    HW274423   6.136   4.490   6.250
24176SOL     OW74424   1.336   7.889   9.759
24176SOL    HW174425   1.429   7.912   9.760
24176SOL    HW274426   1.328   7.821   9.826
24177SOL     OW74427   9.369   8.849  12.985
24177SOL    HW174428   9.281   8.872  12.956
24177SOL    HW274429   9.404   8.929  13.023
24178SOL     OW74430   9.189   6.585   3.560
24178SOL    HW174431   9.182   6.633   3.478
24178SOL    HW274432   9.230   6.647   3.621
24179SOL     OW74433  13.521   0.996   4.248
24179SOL    HW174434  13.489   0.945   4.173
24179SOL    HW274435  13.460   1.070   4.254
24180SOL     OW74436   9.060  14.191   8.046
24180SOL    HW174437   9.015  14.108   8.030
24180SOL    HW274438   9.094  14.182   8.135
24181SOL     OW74439   1.958  11.750  11.797
24181SOL    HW174440   2.053  11.758  11.784
24181SOL    HW274441   1.924  11.730  11.710
24182SOL     OW74442   5.098  10.391  13.864
24182SOL    HW174443   5.188  10.404  13.836
24182SOL    HW274444   5.097  10.418  13.956
24183SOL     OW74445   9.488  10.990   7.299
24183SOL    HW174446   9.428  11.014   7.229
24183SOL    HW274447   9.442  11.014   7.379
24184SOL     OW74448   2.994   5.553  13.919
24184SOL    HW174449   2.979   5.467  13.880
24184SOL    HW274450   3.076   5.583  13.880
24185SOL     OW74451  10.547   5.638   3.807
24185SOL    HW174452  10.468   5.592   3.834
24185SOL    HW274453  10.542   5.641   3.711
24186SOL     OW74454   6.926   1.506  14.261
24186SOL    HW174455   6.989   1.490  14.190
24186SOL    HW274456   6.957   1.587  14.302
24187SOL     OW74457  13.346   9.840   4.219
24187SOL    HW174458  13.433   9.807   4.237
24187SOL    HW274459  13.310   9.779   4.154
24188SOL     OW74460  13.560   3.344   1.061
24188SOL    HW174461  13.515   3.319   0.981
24188SOL    HW274462  13.527   3.432   1.081
24189SOL     OW74463   7.917  14.666   2.025
24189SOL    HW174464   7.883  14.580   2.050
24189SOL    HW274465   7.842  14.724   2.030
24190SOL     OW74466   4.915   9.919   4.123
24190SOL    HW174467   4.929   9.847   4.063
24190SOL    HW274468   5.002   9.944   4.153
24191SOL     OW74469   9.664  14.281  14.755
24191SOL    HW174470   9.740  14.224  14.759
24191SOL    HW274471   9.639  14.283  14.662
24192SOL     OW74472   2.569   6.588   2.222
24192SOL    HW174473   2.493   6.529   2.227
24192SOL    HW274474   2.644   6.529   2.224
24193SOL     OW74475   3.371   0.991   3.514
24193SOL    HW174476   3.462   0.965   3.530
24193SOL    HW274477   3.355   1.063   3.575
24194SOL     OW74478   8.945   5.626  12.776
24194SOL    HW174479   8.965   5.576  12.855
24194SOL    HW274480   8.905   5.707  12.808
24195SOL     OW74481  13.822   7.414   7.399
24195SOL    HW174482  13.810   7.453   7.312
24195SOL    HW274483  13.736   7.378   7.421
24196SOL     OW74484   1.982  12.756  14.464
24196SOL    HW174485   1.888  12.774  14.469
24196SOL    HW274486   1.994  12.675  14.514
24197SOL     OW74487   2.250   5.497  11.963
24197SOL    HW174488   2.166   5.487  12.008
24197SOL    HW274489   2.313   5.514  12.032
24198SOL     OW74490   7.324   4.959  14.168
24198SOL    HW174491   7.387   4.896  14.134
24198SOL    HW274492   7.244   4.943  14.118
24199SOL     OW74493   2.674   2.600  10.183
24199SOL    HW174494   2.697   2.519  10.228
24199SOL    HW274495   2.619   2.648  10.245
24200SOL     OW74496   6.683   1.643   4.172
24200SOL    HW174497   6.764   1.609   4.136
24200SOL    HW274498   6.662   1.719   4.118
24201SOL     OW74499  10.709   3.797   0.545
24201SOL    HW174500  10.773   3.727   0.562
24201SOL    HW274501  10.625   3.760   0.573
24202SOL     OW74502   7.732  12.730  10.293
24202SOL    HW174503   7.824  12.705  10.288
24202SOL    HW274504   7.718  12.747  10.386
24203SOL     OW74505  14.316   6.881  10.811
24203SOL    HW174506  14.351   6.799  10.777
24203SOL    HW274507  14.377   6.948  10.779
24204SOL     OW74508   5.248   0.823   6.689
24204SOL    HW174509   5.186   0.764   6.733
24204SOL    HW274510   5.322   0.829   6.749
24205SOL     OW74511  13.595   7.349  12.825
24205SOL    HW174512  13.655   7.340  12.899
24205SOL    HW274513  13.602   7.266  12.778
24206SOL     OW74514  11.516   1.021   1.020
24206SOL    HW174515  11.462   0.942   1.012
24206SOL    HW274516  11.469   1.077   1.082
24207SOL     OW74517   1.685  10.703  11.765
24207SOL    HW174518   1.631  10.652  11.826
24207SOL    HW274519   1.770  10.708  11.808
24208SOL     OW74520  10.245   9.392   3.490
24208SOL    HW174521  10.218   9.329   3.556
24208SOL    HW274522  10.167   9.444   3.472
24209SOL     OW74523   7.457  12.979   1.917
24209SOL    HW174524   7.441  12.940   1.831
24209SOL    HW274525   7.462  13.073   1.899
24210SOL     OW74526   4.850  13.517  12.720
24210SOL    HW174527   4.896  13.442  12.756
24210SOL    HW274528   4.819  13.487  12.634
24211SOL     OW74529   1.564  11.436   3.506
24211SOL    HW174530   1.649  11.448   3.548
24211SOL    HW274531   1.585  11.424   3.413
24212SOL     OW74532   9.491  10.943   9.344
24212SOL    HW174533   9.419  11.006   9.346
24212SOL    HW274534   9.501  10.922   9.251
24213SOL     OW74535   0.764  10.322   7.952
24213SOL    HW174536   0.721  10.397   7.994
24213SOL    HW274537   0.851  10.318   7.993
24214SOL     OW74538   1.167  10.209  14.849
24214SOL    HW174539   1.189  10.116  14.855
24214SOL    HW274540   1.136  10.232   0.059
24215SOL     OW74541   9.561   7.559   4.928
24215SOL    HW174542   9.502   7.539   4.856
24215SOL    HW274543   9.522   7.634   4.972
24216SOL     OW74544  12.770   4.437   0.502
24216SOL    HW174545  12.801   4.347   0.515
24216SOL    HW274546  12.691   4.444   0.555
24217SOL     OW74547   2.591  12.798  14.060
24217SOL    HW174548   2.628  12.834  14.141
24217SOL    HW274549   2.561  12.874  14.011
24218SOL     OW74550   3.387   2.822   3.231
24218SOL    HW174551   3.399   2.790   3.141
24218SOL    HW274552   3.381   2.742   3.284
24219SOL     OW74553   9.593   8.585   3.203
24219SOL    HW174554   9.651   8.659   3.181
24219SOL    HW274555   9.581   8.592   3.298
24220SOL     OW74556   9.452   9.717   5.122
24220SOL    HW174557   9.391   9.644   5.132
24220SOL    HW274558   9.450   9.763   5.206
24221SOL     OW74559   0.700   8.854   2.739
24221SOL    HW174560   0.725   8.764   2.760
24221SOL    HW274561   0.686   8.854   2.645
24222SOL     OW74562   8.239   5.939   9.661
24222SOL    HW174563   8.222   6.023   9.704
24222SOL    HW274564   8.236   5.959   9.567
24223SOL     OW74565  13.754   8.764   4.098
24223SOL    HW174566  13.713   8.836   4.145
24223SOL    HW274567  13.844   8.792   4.085
24224SOL     OW74568   9.332   4.405  11.207
24224SOL    HW174569   9.305   4.316  11.231
24224SOL    HW274570   9.379   4.394  11.124
24225SOL     OW74571   0.900   9.846  12.793
24225SOL    HW174572   0.842   9.777  12.824
24225SOL    HW274573   0.842   9.911  12.754
24226SOL     OW74574   3.135  10.962   6.400
24226SOL    HW174575   3.206  11.026   6.411
24226SOL    HW274576   3.096  10.985   6.315
24227SOL     OW74577   2.482  11.141  13.517
24227SOL    HW174578   2.391  11.112  13.528
24227SOL    HW274579   2.509  11.168  13.605
24228SOL     OW74580   2.794   5.031   5.267
24228SOL    HW174581   2.705   5.052   5.239
24228SOL    HW274582   2.848   5.102   5.231
24229SOL     OW74583   6.110   1.219   9.230
24229SOL    HW174584   6.193   1.239   9.188
24229SOL    HW274585   6.133   1.200   9.321
24230SOL     OW74586  12.388   8.735  11.729
24230SOL    HW174587  12.391   8.802  11.798
24230SOL    HW274588  12.407   8.653  11.775
24231SOL     OW74589   6.613  13.224   4.674
24231SOL    HW174590   6.535  13.229   4.618
24231SOL    HW274591   6.614  13.307   4.722
24232SOL     OW74592   1.844   9.520   1.823
24232SOL    HW174593   1.762   9.523   1.773
24232SOL    HW274594   1.819   9.490   1.910
24233SOL     OW74595   6.230   8.067   6.488
24233SOL    HW174596   6.261   7.983   6.523
24233SOL    HW274597   6.265   8.132   6.549
24234SOL     OW74598   2.499   4.010  13.343
24234SOL    HW174599   2.478   4.066  13.268
24234SOL    HW274600   2.577   3.961  13.316
24235SOL     OW74601   1.244  14.208   4.472
24235SOL    HW174602   1.223  14.116   4.456
24235SOL    HW274603   1.338  14.214   4.454
24236SOL     OW74604  13.882  13.783   4.084
24236SOL    HW174605  13.824  13.841   4.034
24236SOL    HW274606  13.829  13.754   4.158
24237SOL     OW74607  13.423   7.905   3.196
24237SOL    HW174608  13.392   7.815   3.211
24237SOL    HW274609  13.415   7.918   3.102
24238SOL     OW74610   1.492  10.623   6.202
24238SOL    HW174611   1.517  10.531   6.207
24238SOL    HW274612   1.566  10.665   6.157
24239SOL     OW74613   2.566   1.207   7.729
24239SOL    HW174614   2.492   1.194   7.668
24239SOL    HW274615   2.614   1.280   7.691
24240SOL     OW74616   6.518  11.064   0.947
24240SOL    HW174617   6.428  11.096   0.958
24240SOL    HW274618   6.532  11.065   0.853
24241SOL     OW74619   5.617  14.346   7.265
24241SOL    HW174620   5.547  14.280   7.260
24241SOL    HW274621   5.692  14.298   7.302
24242SOL     OW74622   7.326   4.623  12.442
24242SOL    HW174623   7.372   4.555  12.492
24242SOL    HW274624   7.388   4.695  12.436
24243SOL     OW74625   1.649   2.544   6.751
24243SOL    HW174626   1.625   2.495   6.673
24243SOL    HW274627   1.650   2.480   6.822
24244SOL     OW74628   5.113   1.954   0.320
24244SOL    HW174629   5.121   2.039   0.365
24244SOL    HW274630   5.169   1.963   0.243
24245SOL     OW74631   7.880   4.742   0.413
24245SOL    HW174632   7.946   4.736   0.482
24245SOL    HW274633   7.850   4.833   0.415
24246SOL     OW74634   0.923  12.252  10.092
24246SOL    HW174635   0.892  12.162  10.105
24246SOL    HW274636   0.956  12.254  10.003
24247SOL     OW74637   7.472   8.663   5.817
24247SOL    HW174638   7.491   8.569   5.820
24247SOL    HW274639   7.413   8.679   5.890
24248SOL     OW74640   3.534   5.205   6.955
24248SOL    HW174641   3.601   5.223   6.889
24248SOL    HW274642   3.555   5.265   7.026
24249SOL     OW74643   9.805   3.125   7.970
24249SOL    HW174644   9.733   3.188   7.960
24249SOL    HW274645   9.825   3.098   7.880
24250SOL     OW74646  11.836   8.200   5.580
24250SOL    HW174647  11.827   8.128   5.642
24250SOL    HW274648  11.928   8.200   5.556
24251SOL     OW74649   3.922  11.123   6.133
24251SOL    HW174650   3.997  11.110   6.191
24251SOL    HW274651   3.894  11.035   6.109
24252SOL     OW74652   4.813   2.356  11.552
24252SOL    HW174653   4.875   2.428  11.560
24252SOL    HW274654   4.805   2.341  11.458
24253SOL     OW74655   0.857   7.151   4.017
24253SOL    HW174656   0.804   7.096   3.960
24253SOL    HW274657   0.901   7.212   3.958
24254SOL     OW74658   7.488   8.254   5.680
24254SOL    HW174659   7.396   8.229   5.685
24254SOL    HW274660   7.506   8.296   5.764
24255SOL     OW74661   6.596   4.481   5.528
24255SOL    HW174662   6.577   4.491   5.621
24255SOL    HW274663   6.692   4.480   5.523
24256SOL     OW74664   3.055  10.635  12.598
24256SOL    HW174665   2.983  10.627  12.535
24256SOL    HW274666   3.013  10.630  12.684
24257SOL     OW74667  10.892   2.279   5.439
24257SOL    HW174668  10.808   2.325   5.444
24257SOL    HW274669  10.954   2.339   5.479
24258SOL     OW74670   4.881  14.398   9.783
24258SOL    HW174671   4.877  14.331   9.715
24258SOL    HW274672   4.966  14.440   9.770
24259SOL     OW74673  10.267   2.744  11.161
24259SOL    HW174674  10.343   2.792  11.127
24259SOL    HW274675  10.291   2.652  11.150
24260SOL     OW74676   7.693   7.592  14.068
24260SOL    HW174677   7.647   7.671  14.097
24260SOL    HW274678   7.715   7.608  13.977
24261SOL     OW74679  14.251   4.951   5.668
24261SOL    HW174680  14.222   4.900   5.743
24261SOL    HW274681  14.317   4.896   5.625
24262SOL     OW74682  13.332   9.575   1.304
24262SOL    HW174683  13.294   9.592   1.218
24262SOL    HW274684  13.355   9.482   1.303
24263SOL     OW74685   6.656   2.437  11.517
24263SOL    HW174686   6.638   2.381  11.442
24263SOL    HW274687   6.719   2.501  11.484
24264SOL     OW74688   1.733   3.998   6.023
24264SOL    HW174689   1.676   3.923   6.005
24264SOL    HW274690   1.705   4.030   6.108
24265SOL     OW74691   4.324  13.239   1.218
24265SOL    HW174692   4.305  13.305   1.151
24265SOL    HW274693   4.398  13.190   1.183
24266SOL     OW74694   8.085   6.588   8.746
24266SOL    HW174695   8.018   6.550   8.689
24266SOL    HW274696   8.045   6.588   8.833
24267SOL     OW74697  13.419  10.968   0.304
24267SOL    HW174698  13.429  10.874   0.322
24267SOL    HW274699  13.349  10.996   0.363
24268SOL     OW74700  14.464  12.878   8.873
24268SOL    HW174701  14.521  12.885   8.950
24268SOL    HW274702  14.465  12.785   8.851
24269SOL     OW74703  11.865  12.465   1.748
24269SOL    HW174704  11.957  12.436   1.746
24269SOL    HW274705  11.868  12.556   1.719
24270SOL     OW74706   1.394   7.228   4.440
24270SOL    HW174707   1.488   7.246   4.439
24270SOL    HW274708   1.379   7.187   4.526
24271SOL     OW74709   1.688   0.174  10.620
24271SOL    HW174710   1.709   0.265  10.598
24271SOL    HW274711   1.629   0.181  10.696
24272SOL     OW74712   7.753  12.729  11.478
24272SOL    HW174713   7.694  12.704  11.550
24272SOL    HW274714   7.839  12.695  11.505
24273SOL     OW74715   0.853   0.144   6.304
24273SOL    HW174716   0.759   0.132   6.288
24273SOL    HW274717   0.862   0.130   6.398
24274SOL     OW74718   6.447   6.962  10.622
24274SOL    HW174719   6.492   7.044  10.604
24274SOL    HW274720   6.445   6.917  10.538
24275SOL     OW74721  14.795  11.528   7.423
24275SOL    HW174722  14.836  11.578   7.353
24275SOL    HW274723  14.713  11.496   7.384
24276SOL     OW74724   8.576  12.815   8.010
24276SOL    HW174725   8.501  12.758   7.992
24276SOL    HW274726   8.639  12.759   8.053
24277SOL     OW74727   4.764   6.424   8.766
24277SOL    HW174728   4.849   6.436   8.808
24277SOL    HW274729   4.701   6.459   8.829
24278SOL     OW74730  13.816  10.425   0.562
24278SOL    HW174731  13.837  10.501   0.508
24278SOL    HW274732  13.770  10.462   0.637
24279SOL     OW74733  11.631  10.953  14.286
24279SOL    HW174734  11.566  10.887  14.312
24279SOL    HW274735  11.700  10.946  14.353
24280SOL     OW74736  10.206   1.057  10.981
24280SOL    HW174737  10.184   1.113  10.907
24280SOL    HW274738  10.122   1.019  11.008
24281SOL     OW74739   2.515   5.412  12.095
24281SOL    HW174740   2.468   5.329  12.094
24281SOL    HW274741   2.461   5.471  12.147
24282SOL     OW74742  10.808   2.734   7.755
24282SOL    HW174743  10.741   2.704   7.693
24282SOL    HW274744  10.885   2.751   7.701
24283SOL     OW74745   0.292  14.615   1.575
24283SOL    HW174746   0.208  14.599   1.532
24283SOL    HW274747   0.268  14.645   1.663
24284SOL     OW74748  10.492   9.955  10.862
24284SOL    HW174749  10.401   9.934  10.881
24284SOL    HW274750  10.541   9.922  10.937
24285SOL     OW74751  10.348   7.180   3.345
24285SOL    HW174752  10.271   7.199   3.291
24285SOL    HW274753  10.421   7.218   3.296
24286SOL     OW74754  14.631   8.042  10.030
24286SOL    HW174755  14.544   8.003  10.041
24286SOL    HW274756  14.614   8.135  10.018
24287SOL     OW74757   1.092   7.431  13.438
24287SOL    HW174758   1.046   7.512  13.414
24287SOL    HW274759   1.180   7.460  13.462
24288SOL     OW74760   9.626   5.391   9.620
24288SOL    HW174761   9.588   5.320   9.672
24288SOL    HW274762   9.651   5.350   9.538
24289SOL     OW74763   7.667   8.382   1.686
24289SOL    HW174764   7.678   8.319   1.757
24289SOL    HW274765   7.686   8.467   1.726
24290SOL     OW74766  12.818  11.243  10.680
24290SOL    HW174767  12.853  11.154  10.682
24290SOL    HW274768  12.790  11.261  10.770
24291SOL     OW74769   6.585   4.212   5.857
24291SOL    HW174770   6.664   4.248   5.817
24291SOL    HW274771   6.516   4.273   5.831
24292SOL     OW74772   8.168   3.142   3.376
24292SOL    HW174773   8.133   3.165   3.291
24292SOL    HW274774   8.172   3.047   3.376
24293SOL     OW74775   1.448  13.581   2.004
24293SOL    HW174776   1.403  13.571   2.088
24293SOL    HW274777   1.481  13.494   1.984
24294SOL     OW74778  13.419  13.179  11.679
24294SOL    HW174779  13.476  13.247  11.715
24294SOL    HW274780  13.469  13.140  11.609
24295SOL     OW74781   1.050   3.102   0.689
24295SOL    HW174782   0.960   3.078   0.663
24295SOL    HW274783   1.059   3.066   0.777
24296SOL     OW74784  12.915  13.047   7.456
24296SOL    HW174785  12.917  12.951   7.454
24296SOL    HW274786  12.850  13.070   7.390
24297SOL     OW74787   3.121   2.320   9.937
24297SOL    HW174788   3.093   2.398   9.984
24297SOL    HW274789   3.099   2.338   9.845
24298SOL     OW74790  12.234  13.080   8.365
24298SOL    HW174791  12.246  13.022   8.441
24298SOL    HW274792  12.243  13.168   8.401
24299SOL     OW74793   7.255  11.999   3.032
24299SOL    HW174794   7.182  11.978   2.975
24299SOL    HW274795   7.215  12.023   3.115
24300SOL     OW74796   4.338   1.382   7.115
24300SOL    HW174797   4.371   1.333   7.190
24300SOL    HW274798   4.416   1.422   7.075
24301SOL     OW74799  14.813   1.810   1.210
24301SOL    HW174800  14.841   1.794   1.300
24301SOL    HW274801  14.719   1.792   1.210
24302SOL     OW74802  10.166  10.525   7.597
24302SOL    HW174803  10.254  10.520   7.634
24302SOL    HW274804  10.139  10.434   7.584
24303SOL     OW74805  14.731   4.440  10.937
24303SOL    HW174806  14.777   4.474  11.015
24303SOL    HW274807  14.642   4.476  10.945
24304SOL     OW74808   2.713   5.223   4.105
24304SOL    HW174809   2.729   5.155   4.170
24304SOL    HW274810   2.636   5.191   4.057
24305SOL     OW74811   9.457   5.768   9.616
24305SOL    HW174812   9.535   5.765   9.671
24305SOL    HW274813   9.420   5.680   9.622
24306SOL     OW74814   5.468  14.192  13.936
24306SOL    HW174815   5.557  14.159  13.928
24306SOL    HW274816   5.415  14.113  13.947
24307SOL     OW74817   1.479   9.593   0.135
24307SOL    HW174818   1.428   9.513   0.134
24307SOL    HW274819   1.551   9.575   0.196
24308SOL     OW74820   2.405   4.797  11.587
24308SOL    HW174821   2.397   4.879  11.637
24308SOL    HW274822   2.372   4.820  11.500
24309SOL     OW74823  14.175  10.156  11.752
24309SOL    HW174824  14.143  10.121  11.835
24309SOL    HW274825  14.144  10.246  11.750
24310SOL     OW74826   6.842   0.148   0.875
24310SOL    HW174827   6.843   0.056   0.902
24310SOL    HW274828   6.935   0.173   0.871
24311SOL     OW74829  11.856   0.371   3.016
24311SOL    HW174830  11.811   0.381   2.932
24311SOL    HW274831  11.945   0.347   2.993
24312SOL     OW74832   8.651   6.375  10.252
24312SOL    HW174833   8.591   6.340  10.186
24312SOL    HW274834   8.699   6.299  10.283
24313SOL     OW74835  11.175  12.320   3.884
24313SOL    HW174836  11.125  12.382   3.832
24313SOL    HW274837  11.240  12.284   3.824
24314SOL     OW74838   4.506   8.995   9.645
24314SOL    HW174839   4.550   9.048   9.711
24314SOL    HW274840   4.479   9.058   9.578
24315SOL     OW74841   8.011   8.041   2.479
24315SOL    HW174842   7.954   8.118   2.481
24315SOL    HW274843   7.953   7.968   2.504
24316SOL     OW74844   5.812  12.936  10.070
24316SOL    HW174845   5.773  12.850  10.055
24316SOL    HW274846   5.800  12.952  10.164
24317SOL     OW74847   4.458   2.471   9.050
24317SOL    HW174848   4.403   2.481   8.973
24317SOL    HW274849   4.420   2.397   9.098
24318SOL     OW74850   4.340   5.158   5.172
24318SOL    HW174851   4.336   5.222   5.242
24318SOL    HW274852   4.409   5.190   5.113
24319SOL     OW74853  12.541   8.556   7.593
24319SOL    HW174854  12.579   8.487   7.647
24319SOL    HW274855  12.459   8.519   7.560
24320SOL     OW74856  10.189   0.046  12.930
24320SOL    HW174857  10.113   0.047  12.872
24320SOL    HW274858  10.215   0.138  12.936
24321SOL     OW74859   5.082  12.195   6.205
24321SOL    HW174860   5.098  12.242   6.287
24321SOL    HW274861   5.090  12.103   6.228
24322SOL     OW74862   0.715   9.552  13.652
24322SOL    HW174863   0.655   9.504  13.596
24322SOL    HW274864   0.659   9.590  13.720
24323SOL     OW74865  12.072  13.632   7.808
24323SOL    HW174866  12.076  13.539   7.827
24323SOL    HW274867  12.110  13.641   7.721
24324SOL     OW74868   6.220  14.128   6.531
24324SOL    HW174869   6.142  14.183   6.531
24324SOL    HW274870   6.291  14.187   6.555
24325SOL     OW74871   3.173   3.393   2.355
24325SOL    HW174872   3.209   3.305   2.346
24325SOL    HW274873   3.099   3.395   2.294
24326SOL     OW74874   9.756  11.500  13.495
24326SOL    HW174875   9.810  11.478  13.420
24326SOL    HW274876   9.799  11.576  13.534
24327SOL     OW74877   9.780  10.211  10.566
24327SOL    HW174878   9.722  10.243  10.636
24327SOL    HW274879   9.760  10.267  10.491
24328SOL     OW74880   8.819   3.314  13.547
24328SOL    HW174881   8.863   3.388  13.589
24328SOL    HW274882   8.889   3.264  13.506
24329SOL     OW74883  14.001   1.263  13.506
24329SOL    HW174884  14.018   1.169  13.510
24329SOL    HW274885  14.087   1.304  13.520
24330SOL     OW74886   6.170   1.790   4.860
24330SOL    HW174887   6.246   1.836   4.822
24330SOL    HW274888   6.202   1.754   4.943
24331SOL     OW74889  10.621   0.551   2.739
24331SOL    HW174890  10.609   0.481   2.803
24331SOL    HW274891  10.716   0.564   2.736
24332SOL     OW74892   7.879   1.348   0.028
24332SOL    HW174893   7.829   1.375   0.105
24332SOL    HW274894   7.932   1.425   0.006
24333SOL     OW74895   0.812  12.998   9.982
24333SOL    HW174896   0.765  13.073   9.947
24333SOL    HW274897   0.747  12.949  10.032
24334SOL     OW74898   4.382   1.215   9.020
24334SOL    HW174899   4.423   1.150   9.078
24334SOL    HW274900   4.297   1.233   9.060
24335SOL     OW74901   0.986  11.072  13.646
24335SOL    HW174902   1.036  11.070  13.728
24335SOL    HW274903   0.897  11.096  13.672
24336SOL     OW74904   9.266   9.434   6.243
24336SOL    HW174905   9.208   9.423   6.317
24336SOL    HW274906   9.308   9.519   6.257
24337SOL     OW74907   9.682   5.494   8.172
24337SOL    HW174908   9.664   5.464   8.261
24337SOL    HW274909   9.715   5.584   8.183
24338SOL     OW74910  11.320  13.631  14.055
24338SOL    HW174911  11.368  13.703  14.097
24338SOL    HW274912  11.387  13.583  14.006
24339SOL     OW74913   0.757  12.140  14.543
24339SOL    HW174914   0.725  12.170  14.458
24339SOL    HW274915   0.679  12.107  14.588
24340SOL     OW74916   8.721  13.349  12.179
24340SOL    HW174917   8.778  13.272  12.190
24340SOL    HW274918   8.647  13.333  12.237
24341SOL     OW74919   4.385   5.858   9.823
24341SOL    HW174920   4.358   5.795   9.756
24341SOL    HW274921   4.328   5.933   9.808
24342SOL     OW74922  12.683  12.893   8.459
24342SOL    HW174923  12.695  12.987   8.469
24342SOL    HW274924  12.753  12.854   8.510
24343SOL     OW74925   1.762   1.804  11.755
24343SOL    HW174926   1.750   1.791  11.660
24343SOL    HW274927   1.827   1.738  11.779
24344SOL     OW74928   3.873  11.881  11.668
24344SOL    HW174929   3.937  11.951  11.654
24344SOL    HW274930   3.915  11.821  11.730
24345SOL     OW74931   7.157   6.845  12.760
24345SOL    HW174932   7.192   6.756  12.752
24345SOL    HW274933   7.062   6.833  12.767
24346SOL     OW74934   2.370   4.742   5.522
24346SOL    HW174935   2.380   4.648   5.511
24346SOL    HW274936   2.276   4.757   5.516
24347SOL     OW74937   8.336  11.123   9.121
24347SOL    HW174938   8.423  11.084   9.117
24347SOL    HW274939   8.278  11.058   9.082
24348SOL     OW74940   1.148   7.521  13.033
24348SOL    HW174941   1.158   7.519  13.128
24348SOL    HW274942   1.146   7.613  13.010
24349SOL     OW74943   2.972   3.518  13.070
24349SOL    HW174944   2.958   3.470  12.989
24349SOL    HW274945   2.919   3.597  13.061
24350SOL     OW74946   1.792   3.712  11.037
24350SOL    HW174947   1.844   3.633  11.023
24350SOL    HW274948   1.820   3.771  10.967
24351SOL     OW74949   2.535  13.712  10.133
24351SOL    HW174950   2.539  13.653  10.057
24351SOL    HW274951   2.573  13.794  10.101
24352SOL     OW74952  11.018  14.679   8.669
24352SOL    HW174953  11.048  14.588   8.665
24352SOL    HW274954  11.046  14.717   8.587
24353SOL     OW74955   7.669  14.478   7.574
24353SOL    HW174956   7.630  14.519   7.651
24353SOL    HW274957   7.761  14.465   7.597
24354SOL     OW74958  10.143   4.300  14.854
24354SOL    HW174959  10.048   4.289  14.858
24354SOL    HW274960  10.157   4.394  14.871
24355SOL     OW74961  11.209   7.106   9.266
24355SOL    HW174962  11.208   7.059   9.350
24355SOL    HW274963  11.117   7.107   9.239
24356SOL     OW74964   5.266  13.865  11.567
24356SOL    HW174965   5.291  13.958  11.565
24356SOL    HW274966   5.206  13.856  11.493
24357SOL     OW74967  13.407   0.839   1.675
24357SOL    HW174968  13.394   0.933   1.669
24357SOL    HW274969  13.496   0.825   1.642
24358SOL     OW74970  13.899   0.066   8.120
24358SOL    HW174971  13.871   0.060   8.028
24358SOL    HW274972  13.867  14.862   8.160
24359SOL     OW74973  13.307   3.284   0.249
24359SOL    HW174974  13.369   3.356   0.256
24359SOL    HW274975  13.326   3.229   0.326
24360SOL     OW74976   1.933  12.970   8.147
24360SOL    HW174977   1.856  13.025   8.164
24360SOL    HW274978   1.904  12.881   8.168
24361SOL     OW74979  14.395   8.289  14.386
24361SOL    HW174980  14.384   8.366  14.443
24361SOL    HW274981  14.489   8.278  14.379
24362SOL     OW74982   6.717  12.241   1.582
24362SOL    HW174983   6.740  12.332   1.601
24362SOL    HW274984   6.654  12.246   1.511
24363SOL     OW74985   5.938   1.882   1.839
24363SOL    HW174986   6.033   1.886   1.849
24363SOL    HW274987   5.924   1.821   1.766
24364SOL     OW74988   5.282   7.212   7.444
24364SOL    HW174989   5.203   7.158   7.444
24364SOL    HW274990   5.299   7.230   7.536
24365SOL     OW74991   5.190   7.576   0.463
24365SOL    HW174992   5.220   7.537   0.545
24365SOL    HW274993   5.119   7.520   0.434
24366SOL     OW74994  13.482   1.598   5.715
24366SOL    HW174995  13.445   1.602   5.803
24366SOL    HW274996  13.576   1.608   5.728
24367SOL     OW74997   2.160   5.470  13.784
24367SOL    HW174998   2.173   5.414  13.707
24367SOL    HW274999   2.073   5.446  13.816
24368SOL     OW75000  14.335   9.536   6.259
24368SOL    HW175001  14.282   9.468   6.300
24368SOL    HW275002  14.340   9.606   6.324
24369SOL     OW75003   8.914   0.068  12.656
24369SOL    HW175004   8.974   0.064  12.582
24369SOL    HW275005   8.828   0.078  12.616
24370SOL     OW75006   2.515   2.825  13.935
24370SOL    HW175007   2.553   2.882  14.002
24370SOL    HW275008   2.540   2.866  13.852
24371SOL     OW75009   3.155   4.547   0.249
24371SOL    HW175010   3.152   4.457   0.281
24371SOL    HW275011   3.087   4.552   0.182
24372SOL     OW75012  12.245   2.085  13.995
24372SOL    HW175013  12.207   2.123  14.074
24372SOL    HW275014  12.190   2.118  13.924
24373SOL     OW75015   8.907   8.925  13.371
24373SOL    HW175016   8.919   8.834  13.397
24373SOL    HW275017   8.852   8.962  13.439
24374SOL     OW75018   2.026   6.059   9.225
24374SOL    HW175019   2.029   6.155   9.227
24374SOL    HW275020   2.072   6.035   9.145
24375SOL     OW75021  14.335   9.916   3.239
24375SOL    HW175022  14.428   9.935   3.232
24375SOL    HW275023  14.312   9.941   3.328
24376SOL     OW75024   2.563   8.177   6.075
24376SOL    HW175025   2.492   8.159   6.136
24376SOL    HW275026   2.609   8.094   6.065
24377SOL     OW75027   2.714  12.640   7.011
24377SOL    HW175028   2.674  12.661   6.926
24377SOL    HW275029   2.807  12.628   6.991
24378SOL     OW75030   8.295  13.674   2.556
24378SOL    HW175031   8.350  13.677   2.635
24378SOL    HW275032   8.357  13.652   2.486
24379SOL     OW75033   2.812  11.900   6.415
24379SOL    HW175034   2.894  11.856   6.395
24379SOL    HW275035   2.746  11.830   6.414
24380SOL     OW75036   5.712   9.226   8.985
24380SOL    HW175037   5.636   9.279   8.962
24380SOL    HW275038   5.786   9.286   8.980
24381SOL     OW75039  14.425   8.637   4.600
24381SOL    HW175040  14.430   8.549   4.565
24381SOL    HW275041  14.438   8.694   4.524
24382SOL     OW75042  10.662   4.866  14.415
24382SOL    HW175043  10.614   4.788  14.388
24382SOL    HW275044  10.596   4.935  14.418
24383SOL     OW75045   0.076   5.656   5.855
24383SOL    HW175046  14.875   5.709   5.849
24383SOL    HW275047   0.138   5.696   5.794
24384SOL     OW75048   5.324  10.813   8.128
24384SOL    HW175049   5.297  10.874   8.060
24384SOL    HW275050   5.341  10.731   8.082
24385SOL     OW75051  10.488   4.676   8.154
24385SOL    HW175052  10.513   4.737   8.085
24385SOL    HW275053  10.570   4.635   8.181
24386SOL     OW75054   8.316  14.556   9.343
24386SOL    HW175055   8.239  14.505   9.370
24386SOL    HW275056   8.337  14.611   9.418
24387SOL     OW75057   2.643  12.658  12.985
24387SOL    HW175058   2.601  12.614  12.911
24387SOL    HW275059   2.634  12.596  13.058
24388SOL     OW75060   2.557  11.619  13.202
24388SOL    HW175061   2.633  11.663  13.164
24388SOL    HW275062   2.557  11.533  13.160
24389SOL     OW75063   0.638   4.769  10.429
24389SOL    HW175064   0.680   4.688  10.457
24389SOL    HW275065   0.607   4.809  10.510
24390SOL     OW75066   6.669   1.877   4.037
24390SOL    HW175067   6.707   1.961   4.013
24390SOL    HW275068   6.617   1.895   4.115
24391SOL     OW75069  10.144   3.364  14.672
24391SOL    HW175070  10.054   3.347  14.699
24391SOL    HW275071  10.153   3.316  14.589
24392SOL     OW75072   7.460  12.661   8.482
24392SOL    HW175073   7.490  12.586   8.430
24392SOL    HW275074   7.445  12.731   8.418
24393SOL     OW75075   9.027   6.981   7.702
24393SOL    HW175076   8.958   6.915   7.714
24393SOL    HW275077   8.984   7.064   7.724
24394SOL     OW75078   8.783  13.971   6.355
24394SOL    HW175079   8.767  13.877   6.345
24394SOL    HW275080   8.876  13.981   6.332
24395SOL     OW75081   0.590   7.225   3.787
24395SOL    HW175082   0.619   7.286   3.718
24395SOL    HW275083   0.638   7.144   3.768
24396SOL     OW75084   2.961   2.170   2.031
24396SOL    HW175085   3.036   2.169   2.092
24396SOL    HW275086   2.955   2.080   2.000
24397SOL     OW75087   0.299  11.905  11.274
24397SOL    HW175088   0.301  11.946  11.361
24397SOL    HW275089   0.236  11.834  11.283
24398SOL     OW75090   7.759  10.700   0.218
24398SOL    HW175091   7.698  10.650   0.164
24398SOL    HW275092   7.760  10.655   0.302
24399SOL     OW75093   9.198   9.758  12.579
24399SOL    HW175094   9.218   9.711  12.498
24399SOL    HW275095   9.127   9.707  12.619
24400SOL     OW75096   6.453   9.804   3.281
24400SOL    HW175097   6.404   9.864   3.225
24400SOL    HW275098   6.517   9.763   3.224
24401SOL     OW75099   2.074   4.242  11.122
24401SOL    HW175100   2.090   4.298  11.198
24401SOL    HW275101   2.103   4.155  11.150
24402SOL     OW75102  11.018   0.201  13.270
24402SOL    HW175103  10.929   0.228  13.248
24402SOL    HW275104  11.021   0.206  13.366
24403SOL     OW75105   4.015   7.256  11.906
24403SOL    HW175106   4.057   7.172  11.923
24403SOL    HW275107   3.997   7.255  11.812
24404SOL     OW75108   6.474   5.998  11.859
24404SOL    HW175109   6.382   6.006  11.884
24404SOL    HW275110   6.492   5.904  11.861
24405SOL     OW75111   8.769  14.552   7.686
24405SOL    HW175112   8.747  14.622   7.625
24405SOL    HW275113   8.703  14.559   7.754
24406SOL     OW75114   8.006  11.443  11.836
24406SOL    HW175115   8.013  11.464  11.929
24406SOL    HW275116   7.916  11.468  11.812
24407SOL     OW75117   9.828  12.743  12.711
24407SOL    HW175118   9.745  12.783  12.686
24407SOL    HW275119   9.845  12.678  12.643
24408SOL     OW75120   7.563   9.377  14.634
24408SOL    HW175121   7.470   9.365  14.613
24408SOL    HW275122   7.607   9.374  14.550
24409SOL     OW75123   6.425   8.935  12.197
24409SOL    HW175124   6.411   9.030  12.200
24409SOL    HW275125   6.371   8.905  12.124
24410SOL     OW75126  11.826   1.994   6.100
24410SOL    HW175127  11.879   1.915   6.104
24410SOL    HW275128  11.737   1.962   6.084
24411SOL     OW75129   0.889  13.829   5.999
24411SOL    HW175130   0.853  13.905   6.045
24411SOL    HW275131   0.960  13.866   5.945
24412SOL     OW75132  12.725  10.823   1.849
24412SOL    HW175133  12.709  10.907   1.891
24412SOL    HW275134  12.754  10.846   1.761
24413SOL     OW75135   6.156  12.859  13.141
24413SOL    HW175136   6.241  12.901  13.156
24413SOL    HW275137   6.165  12.819  13.055
24414SOL     OW75138   9.647   1.655  11.376
24414SOL    HW175139   9.574   1.640  11.316
24414SOL    HW275140   9.691   1.570  11.382
24415SOL     OW75141  14.014   9.935  13.670
24415SOL    HW175142  14.098   9.915  13.629
24415SOL    HW275143  14.020   9.896  13.758
24416SOL     OW75144   5.640   5.436   2.299
24416SOL    HW175145   5.643   5.507   2.364
24416SOL    HW275146   5.564   5.383   2.325
24417SOL     OW75147   5.737  10.944   0.119
24417SOL    HW175148   5.670  10.957   0.186
24417SOL    HW275149   5.732  10.851   0.097
24418SOL     OW75150   5.286   2.422   0.957
24418SOL    HW175151   5.336   2.500   0.978
24418SOL    HW275152   5.352   2.354   0.940
24419SOL     OW75153   1.775   9.166   0.467
24419SOL    HW175154   1.718   9.097   0.503
24419SOL    HW275155   1.836   9.118   0.411
24420SOL     OW75156   5.589   5.270  10.893
24420SOL    HW175157   5.519   5.239  10.951
24420SOL    HW275158   5.561   5.245  10.805
24421SOL     OW75159   1.457   4.918  11.496
24421SOL    HW175160   1.470   4.900  11.403
24421SOL    HW275161   1.370   4.883  11.515
24422SOL     OW75162   8.874   4.371   7.782
24422SOL    HW175163   8.846   4.462   7.771
24422SOL    HW275164   8.962   4.368   7.742
24423SOL     OW75165  14.343   4.384  10.711
24423SOL    HW175166  14.412   4.450  10.719
24423SOL    HW275167  14.342   4.340  10.795
24424SOL     OW75168  11.139   0.484  12.707
24424SOL    HW175169  11.073   0.418  12.687
24424SOL    HW275170  11.154   0.528  12.623
24425SOL     OW75171   9.614  10.177   0.030
24425SOL    HW175172   9.581  10.124   0.102
24425SOL    HW275173   9.559  10.152  14.833
24426SOL     OW75174  13.252   5.499   5.482
24426SOL    HW175175  13.170   5.547   5.471
24426SOL    HW275176  13.234   5.412   5.447
24427SOL     OW75177  13.468   6.920   2.133
24427SOL    HW175178  13.517   6.878   2.062
24427SOL    HW275179  13.434   6.847   2.184
24428SOL     OW75180   5.267   5.622   7.440
24428SOL    HW175181   5.357   5.648   7.460
24428SOL    HW275182   5.264   5.618   7.344
24429SOL     OW75183   0.174   1.424  14.497
24429SOL    HW175184   0.256   1.376  14.511
24429SOL    HW275185   0.182   1.501  14.553
24430SOL     OW75186  10.546  12.261   1.089
24430SOL    HW175187  10.592  12.248   1.006
24430SOL    HW275188  10.472  12.318   1.068
24431SOL     OW75189   9.766   6.383  13.611
24431SOL    HW175190   9.692   6.414  13.559
24431SOL    HW275191   9.842   6.390  13.553
24432SOL     OW75192   3.483   5.698   6.459
24432SOL    HW175193   3.475   5.754   6.537
24432SOL    HW275194   3.486   5.759   6.386
24433SOL     OW75195   4.758   3.755   4.074
24433SOL    HW175196   4.765   3.743   3.979
24433SOL    HW275197   4.666   3.738   4.094
24434SOL     OW75198   1.624   1.685   2.205
24434SOL    HW175199   1.530   1.703   2.208
24434SOL    HW275200   1.631   1.601   2.159
24435SOL     OW75201   4.505   0.461  13.507
24435SOL    HW175202   4.515   0.537  13.450
24435SOL    HW275203   4.493   0.498  13.595
24436SOL     OW75204  14.738   8.314  11.616
24436SOL    HW175205  14.682   8.276  11.684
24436SOL    HW275206  14.741   8.248  11.547
24437SOL     OW75207   4.915   2.839   4.722
24437SOL    HW175208   4.871   2.867   4.802
24437SOL    HW275209   4.972   2.913   4.699
24438SOL     OW75210   3.409   7.772   4.760
24438SOL    HW175211   3.411   7.857   4.804
24438SOL    HW275212   3.436   7.791   4.670
24439SOL     OW75213  12.645  13.251   3.080
24439SOL    HW175214  12.570  13.218   3.129
24439SOL    HW275215  12.716  13.190   3.101
24440SOL     OW75216  11.014   8.029  10.952
24440SOL    HW175217  10.949   7.960  10.968
24440SOL    HW275218  11.025   8.072  11.037
24441SOL     OW75219   7.440   1.944   5.621
24441SOL    HW175220   7.403   1.999   5.552
24441SOL    HW275221   7.496   1.882   5.574
24442SOL     OW75222   8.670  14.129  10.338
24442SOL    HW175223   8.619  14.060  10.295
24442SOL    HW275224   8.680  14.197  10.271
24443SOL     OW75225   8.213   8.494   9.620
24443SOL    HW175226   8.248   8.504   9.709
24443SOL    HW275227   8.130   8.541   9.622
24444SOL     OW75228   7.189  14.274  14.644
24444SOL    HW175229   7.153  14.189  14.669
24444SOL    HW275230   7.213  14.264  14.552
24445SOL     OW75231   1.997  11.272   4.064
24445SOL    HW175232   1.940  11.206   4.024
24445SOL    HW275233   1.978  11.352   4.015
24446SOL     OW75234   1.724  12.591   0.051
24446SOL    HW175235   1.629  12.591   0.068
24446SOL    HW275236   1.764  12.585   0.138
24447SOL     OW75237   8.714   9.750   3.472
24447SOL    HW175238   8.688   9.838   3.501
24447SOL    HW275239   8.719   9.699   3.552
24448SOL     OW75240  12.926   9.547   7.169
24448SOL    HW175241  12.838   9.578   7.153
24448SOL    HW275242  12.943   9.485   7.097
24449SOL     OW75243   3.962   4.215   1.528
24449SOL    HW175244   3.882   4.178   1.566
24449SOL    HW275245   3.930   4.278   1.464
24450SOL     OW75246   9.697  14.779  10.086
24450SOL    HW175247   9.664  14.860  10.126
24450SOL    HW275248   9.752  14.740  10.153
24451SOL     OW75249   1.338   8.734   7.733
24451SOL    HW175250   1.357   8.776   7.817
24451SOL    HW275251   1.367   8.797   7.668
24452SOL     OW75252   4.954  14.333   0.720
24452SOL    HW175253   4.926  14.324   0.811
24452SOL    HW275254   4.873  14.347   0.672
24453SOL     OW75255   4.052   8.907  13.173
24453SOL    HW175256   4.093   8.910  13.260
24453SOL    HW275257   4.015   8.995  13.162
24454SOL     OW75258   8.739  14.865  13.253
24454SOL    HW175259   8.679  14.818  13.310
24454SOL    HW275260   8.776  14.798  13.196
24455SOL     OW75261  11.501   9.535  12.413
24455SOL    HW175262  11.527   9.534  12.321
24455SOL    HW275263  11.575   9.576  12.458
24456SOL     OW75264   1.203   2.545  12.106
24456SOL    HW175265   1.242   2.471  12.153
24456SOL    HW275266   1.278   2.588  12.063
24457SOL     OW75267   5.315  10.652  12.412
24457SOL    HW175268   5.263  10.620  12.485
24457SOL    HW275269   5.399  10.607  12.421
24458SOL     OW75270   4.364   6.715  10.291
24458SOL    HW175271   4.451   6.680  10.271
24458SOL    HW275272   4.347   6.779  10.221
24459SOL     OW75273   5.858   6.121   3.374
24459SOL    HW175274   5.898   6.035   3.360
24459SOL    HW275275   5.927   6.184   3.352
24460SOL     OW75276   1.873   3.806  11.625
24460SOL    HW175277   1.948   3.827  11.680
24460SOL    HW275278   1.864   3.881  11.566
24461SOL     OW75279  13.194  11.154  13.518
24461SOL    HW175280  13.289  11.146  13.514
24461SOL    HW275281  13.170  11.118  13.603
24462SOL     OW75282  14.477   9.253   4.964
24462SOL    HW175283  14.460   9.160   4.950
24462SOL    HW275284  14.427   9.275   5.043
24463SOL     OW75285   1.354   3.804   5.637
24463SOL    HW175286   1.366   3.863   5.562
24463SOL    HW275287   1.369   3.716   5.601
24464SOL     OW75288   3.496   7.650  12.789
24464SOL    HW175289   3.523   7.648  12.697
24464SOL    HW275290   3.402   7.631  12.786
24465SOL     OW75291   4.856  10.086   0.324
24465SOL    HW175292   4.851  10.024   0.252
24465SOL    HW275293   4.866  10.032   0.402
24466SOL     OW75294   2.057   0.302   4.665
24466SOL    HW175295   2.035   0.350   4.745
24466SOL    HW275296   2.031   0.361   4.594
24467SOL     OW75297   9.106  14.123   1.787
24467SOL    HW175298   9.145  14.208   1.803
24467SOL    HW275299   9.065  14.131   1.701
24468SOL     OW75300  11.732   0.323   4.223
24468SOL    HW175301  11.669   0.252   4.210
24468SOL    HW275302  11.678   0.401   4.233
24469SOL     OW75303   0.814   5.157   0.763
24469SOL    HW175304   0.795   5.194   0.850
24469SOL    HW275305   0.826   5.063   0.779
24470SOL     OW75306   6.354   2.917  14.516
24470SOL    HW175307   6.404   2.972  14.576
24470SOL    HW275308   6.265   2.952  14.520
24471SOL     OW75309   4.568  11.826   1.726
24471SOL    HW175310   4.481  11.839   1.765
24471SOL    HW275311   4.562  11.742   1.682
24472SOL     OW75312   7.678  14.050   8.842
24472SOL    HW175313   7.710  14.048   8.932
24472SOL    HW275314   7.593  14.094   8.849
24473SOL     OW75315   0.684   5.026  12.657
24473SOL    HW175316   0.599   5.017  12.702
24473SOL    HW275317   0.737   4.955  12.692
24474SOL     OW75318   4.157   3.260   9.428
24474SOL    HW175319   4.212   3.329   9.466
24474SOL    HW275320   4.169   3.268   9.334
24475SOL     OW75321  12.816   1.850   8.963
24475SOL    HW175322  12.823   1.868   8.869
24475SOL    HW275323  12.749   1.782   8.968
24476SOL     OW75324   0.608   5.642  12.518
24476SOL    HW175325   0.531   5.602  12.479
24476SOL    HW275326   0.636   5.580  12.586
24477SOL     OW75327   0.491   2.596   7.225
24477SOL    HW175328   0.542   2.517   7.209
24477SOL    HW275329   0.438   2.606   7.146
24478SOL     OW75330   8.456   0.514  14.870
24478SOL    HW175331   8.551   0.517  14.877
24478SOL    HW275332   8.436   0.422  14.856
24479SOL     OW75333   3.531   7.369   8.618
24479SOL    HW175334   3.519   7.424   8.541
24479SOL    HW275335   3.494   7.420   8.690
24480SOL     OW75336   5.781   1.182   1.603
24480SOL    HW175337   5.782   1.210   1.511
24480SOL    HW275338   5.694   1.204   1.634
24481SOL     OW75339   0.903   0.246  10.638
24481SOL    HW175340   0.939   0.202  10.715
24481SOL    HW275341   0.812   0.263  10.660
24482SOL     OW75342  12.255   2.798   8.079
24482SOL    HW175343  12.260   2.719   8.132
24482SOL    HW275344  12.333   2.848   8.101
24483SOL     OW75345   1.037   2.445  13.254
24483SOL    HW175346   1.072   2.521  13.207
24483SOL    HW275347   1.104   2.423  13.319
24484SOL     OW75348   8.240   8.943   1.771
24484SOL    HW175349   8.269   8.936   1.680
24484SOL    HW275350   8.219   8.853   1.796
24485SOL     OW75351   3.116   1.482  11.527
24485SOL    HW175352   3.200   1.440  11.546
24485SOL    HW275353   3.058   1.454  11.598
24486SOL     OW75354   6.029   7.676   8.523
24486SOL    HW175355   5.980   7.685   8.604
24486SOL    HW275356   6.045   7.582   8.515
24487SOL     OW75357   4.559   5.100  10.407
24487SOL    HW175358   4.554   5.015  10.451
24487SOL    HW275359   4.562   5.163  10.478
24488SOL     OW75360  12.807  14.105   3.438
24488SOL    HW175361  12.753  14.184   3.435
24488SOL    HW275362  12.897  14.136   3.429
24489SOL     OW75363   8.922   1.595   9.601
24489SOL    HW175364   8.855   1.632   9.658
24489SOL    HW275365   8.959   1.671   9.555
24490SOL     OW75366   9.674   7.724  14.729
24490SOL    HW175367   9.621   7.792  14.686
24490SOL    HW275368   9.649   7.728  14.821
24491SOL     OW75369   3.868   9.790  14.338
24491SOL    HW175370   3.887   9.841  14.259
24491SOL    HW275371   3.954   9.760  14.367
24492SOL     OW75372   3.487   5.858   5.500
24492SOL    HW175373   3.554   5.926   5.495
24492SOL    HW275374   3.533   5.781   5.533
24493SOL     OW75375   5.362   2.294  11.162
24493SOL    HW175376   5.410   2.364  11.118
24493SOL    HW275377   5.301   2.262  11.096
24494SOL     OW75378  12.892   4.914   6.470
24494SOL    HW175379  12.980   4.885   6.497
24494SOL    HW275380  12.875   4.867   6.389
24495SOL     OW75381  14.354   0.609  12.796
24495SOL    HW175382  14.365   0.522  12.834
24495SOL    HW275383  14.264   0.634  12.819
24496SOL     OW75384   0.502   3.720  13.768
24496SOL    HW175385   0.529   3.810  13.745
24496SOL    HW275386   0.407   3.722  13.761
24497SOL     OW75387   3.259   1.016   8.156
24497SOL    HW175388   3.299   0.961   8.088
24497SOL    HW275389   3.333   1.040   8.213
24498SOL     OW75390   1.985  11.094  14.293
24498SOL    HW175391   1.902  11.112  14.249
24498SOL    HW275392   2.032  11.177  14.290
24499SOL     OW75393   4.484  13.771  12.761
24499SOL    HW175394   4.466  13.684  12.798
24499SOL    HW275395   4.464  13.761  12.668
24500SOL     OW75396   4.796   3.007   3.924
24500SOL    HW175397   4.803   3.079   3.987
24500SOL    HW275398   4.785   2.929   3.979
24501SOL     OW75399   5.084   2.329   6.556
24501SOL    HW175400   5.120   2.416   6.573
24501SOL    HW275401   5.112   2.276   6.630
24502SOL     OW75402   2.149   6.696  14.679
24502SOL    HW175403   2.151   6.601  14.671
24502SOL    HW275404   2.127   6.727  14.591
24503SOL     OW75405  11.576   2.672   1.685
24503SOL    HW175406  11.564   2.677   1.780
24503SOL    HW275407  11.608   2.584   1.669
24504SOL     OW75408   5.874   0.834   6.918
24504SOL    HW175409   5.963   0.813   6.891
24504SOL    HW275410   5.859   0.922   6.885
24505SOL     OW75411   6.428   1.003   9.618
24505SOL    HW175412   6.387   1.001   9.532
24505SOL    HW275413   6.496   1.070   9.611
24506SOL     OW75414   4.979  12.485   3.353
24506SOL    HW175415   5.021  12.469   3.269
24506SOL    HW275416   4.910  12.548   3.334
24507SOL     OW75417  11.915   3.837  12.734
24507SOL    HW175418  11.946   3.748  12.751
24507SOL    HW275419  11.828   3.840  12.775
24508SOL     OW75420   5.234  10.673   7.030
24508SOL    HW175421   5.254  10.663   6.937
24508SOL    HW275422   5.279  10.754   7.056
24509SOL     OW75423  13.024  12.408   9.792
24509SOL    HW175424  13.048  12.499   9.812
24509SOL    HW275425  13.101  12.372   9.748
24510SOL     OW75426   1.066   7.739   5.538
24510SOL    HW175427   1.014   7.673   5.583
24510SOL    HW275428   1.151   7.697   5.524
24511SOL     OW75429  12.512   1.876   0.716
24511SOL    HW175430  12.588   1.897   0.662
24511SOL    HW275431  12.470   1.961   0.733
24512SOL     OW75432   5.527   2.599  10.396
24512SOL    HW175433   5.559   2.648  10.472
24512SOL    HW275434   5.480   2.525  10.433
24513SOL     OW75435   1.309   9.037   5.806
24513SOL    HW175436   1.339   9.071   5.722
24513SOL    HW275437   1.214   9.044   5.802
24514SOL     OW75438   4.583   0.995   0.620
24514SOL    HW175439   4.593   1.089   0.603
24514SOL    HW275440   4.623   0.953   0.544
24515SOL     OW75441   8.572   0.888   3.540
24515SOL    HW175442   8.544   0.872   3.449
24515SOL    HW275443   8.578   0.984   3.546
24516SOL     OW75444   5.663  11.631   4.686
24516SOL    HW175445   5.635  11.718   4.713
24516SOL    HW275446   5.653  11.577   4.764
24517SOL     OW75447  10.249  11.591  10.077
24517SOL    HW175448  10.339  11.568  10.054
24517SOL    HW275449  10.242  11.684  10.057
24518SOL     OW75450  12.400   6.107   6.124
24518SOL    HW175451  12.338   6.153   6.068
24518SOL    HW275452  12.344   6.058   6.186
24519SOL     OW75453   1.552   1.673   2.814
24519SOL    HW175454   1.494   1.608   2.853
24519SOL    HW275455   1.493   1.739   2.776
24520SOL     OW75456  12.075   0.352   7.336
24520SOL    HW175457  12.067   0.447   7.327
24520SOL    HW275458  11.999   0.317   7.290
24521SOL     OW75459   4.822   5.755   9.614
24521SOL    HW175460   4.913   5.786   9.619
24521SOL    HW275461   4.780   5.792   9.692
24522SOL     OW75462   5.829   6.489   9.951
24522SOL    HW175463   5.887   6.559   9.982
24522SOL    HW275464   5.741   6.526   9.958
24523SOL     OW75465  14.071   4.088  10.984
24523SOL    HW175466  14.015   4.154  11.024
24523SOL    HW275467  14.034   4.004  11.013
24524SOL     OW75468   8.863  12.355   6.083
24524SOL    HW175469   8.773  12.337   6.055
24524SOL    HW275470   8.861  12.445   6.116
24525SOL     OW75471  13.871   6.555   7.971
24525SOL    HW175472  13.872   6.521   8.060
24525SOL    HW275473  13.869   6.477   7.915
24526SOL     OW75474   2.897  13.346   7.705
24526SOL    HW175475   2.882  13.316   7.795
24526SOL    HW275476   2.869  13.273   7.651
24527SOL     OW75477  12.783  14.282  10.220
24527SOL    HW175478  12.860  14.332  10.191
24527SOL    HW275479  12.816  14.193  10.235
24528SOL     OW75480   2.974  13.214   9.291
24528SOL    HW175481   3.005  13.204   9.201
24528SOL    HW275482   2.890  13.259   9.282
24529SOL     OW75483   1.653  10.378   7.615
24529SOL    HW175484   1.665  10.285   7.638
24529SOL    HW275485   1.708  10.425   7.678
24530SOL     OW75486  14.444   2.054  12.173
24530SOL    HW175487  14.364   2.077  12.220
24530SOL    HW275488  14.504   2.126  12.188
24531SOL     OW75489   3.415  10.476  12.858
24531SOL    HW175490   3.351  10.543  12.881
24531SOL    HW275491   3.364  10.396  12.848
24532SOL     OW75492   7.671   2.896  12.092
24532SOL    HW175493   7.617   2.957  12.142
24532SOL    HW275494   7.761   2.925  12.109
24533SOL     OW75495   6.757   8.760  12.549
24533SOL    HW175496   6.707   8.703  12.489
24533SOL    HW275497   6.693   8.787  12.614
24534SOL     OW75498   4.448   4.173   5.863
24534SOL    HW175499   4.417   4.248   5.912
24534SOL    HW275500   4.413   4.097   5.910
24535SOL     OW75501   4.147  13.825   5.439
24535SOL    HW175502   4.176  13.747   5.487
24535SOL    HW275503   4.222  13.848   5.384
24536SOL     OW75504  11.493   2.758  13.118
24536SOL    HW175505  11.436   2.810  13.175
24536SOL    HW275506  11.542   2.824  13.068
24537SOL     OW75507   0.672   5.801   5.673
24537SOL    HW175508   0.603   5.866   5.689
24537SOL    HW275509   0.707   5.825   5.588
24538SOL     OW75510   6.844   4.102   4.284
24538SOL    HW175511   6.868   4.186   4.246
24538SOL    HW275512   6.899   4.038   4.240
24539SOL     OW75513   6.305   5.670   9.406
24539SOL    HW175514   6.308   5.691   9.313
24539SOL    HW275515   6.337   5.749   9.449
24540SOL     OW75516   1.467   0.205   0.049
24540SOL    HW175517   1.450   0.253   0.129
24540SOL    HW275518   1.548   0.156   0.067
24541SOL     OW75519   7.104  13.685   9.522
24541SOL    HW175520   7.079  13.602   9.481
24541SOL    HW275521   7.062  13.683   9.608
24542SOL     OW75522   0.236  12.914   0.609
24542SOL    HW175523   0.199  12.827   0.596
24542SOL    HW275524   0.161  12.973   0.600
24543SOL     OW75525   8.090   1.378   7.817
24543SOL    HW175526   8.106   1.342   7.730
24543SOL    HW275527   8.149   1.453   7.823
24544SOL     OW75528  10.543   3.498  11.545
24544SOL    HW175529  10.551   3.420  11.601
24544SOL    HW275530  10.520   3.463  11.459
24545SOL     OW75531   3.061   2.583   2.064
24545SOL    HW175532   3.118   2.650   2.026
24545SOL    HW275533   3.109   2.501   2.050
24546SOL     OW75534   7.022  11.593  12.412
24546SOL    HW175535   6.978  11.678  12.416
24546SOL    HW275536   7.017  11.560  12.501
24547SOL     OW75537  12.117  14.712   3.601
24547SOL    HW175538  12.153  14.627   3.575
24547SOL    HW275539  12.187  14.754   3.651
24548SOL     OW75540   8.531  14.788   4.646
24548SOL    HW175541   8.605  14.846   4.629
24548SOL    HW275542   8.453  14.841   4.627
24549SOL     OW75543   9.135  13.762   2.968
24549SOL    HW175544   9.062  13.701   2.957
24549SOL    HW275545   9.162  13.750   3.059
24550SOL     OW75546  14.725   0.763   3.763
24550SOL    HW175547  14.789   0.736   3.697
24550SOL    HW275548  14.750   0.853   3.785
24551SOL     OW75549   1.437  10.556   3.986
24551SOL    HW175550   1.386  10.637   3.989
24551SOL    HW275551   1.440  10.526   4.077
24552SOL     OW75552   5.172  14.739   7.836
24552SOL    HW175553   5.151  14.759   7.745
24552SOL    HW275554   5.098  14.687   7.867
24553SOL     OW75555  10.925   0.024  12.863
24553SOL    HW175556  10.893   0.043  12.951
24553SOL    HW275557  10.848  14.870  12.816
24554SOL     OW75558  10.903   8.736  13.199
24554SOL    HW175559  10.811   8.717  13.179
24554SOL    HW275560  10.900   8.772  13.288
24555SOL     OW75561   9.061  12.007   0.395
24555SOL    HW175562   9.078  11.935   0.455
24555SOL    HW275563   9.119  11.991   0.321
24556SOL     OW75564  10.596  11.861  11.683
24556SOL    HW175565  10.570  11.940  11.732
24556SOL    HW275566  10.547  11.866  11.601
24557SOL     OW75567  10.371   1.742  14.591
24557SOL    HW175568  10.318   1.667  14.619
24557SOL    HW275569  10.405   1.779  14.672
24558SOL     OW75570  11.383  10.292   3.230
24558SOL    HW175571  11.461  10.316   3.280
24558SOL    HW275572  11.386  10.347   3.152
24559SOL     OW75573   6.569   6.873   1.602
24559SOL    HW175574   6.573   6.969   1.607
24559SOL    HW275575   6.501   6.856   1.537
24560SOL     OW75576  11.548  14.305  10.526
24560SOL    HW175577  11.463  14.338  10.553
24560SOL    HW275578  11.536  14.278  10.435
24561SOL     OW75579   9.146   0.911   5.518
24561SOL    HW175580   9.111   0.984   5.467
24561SOL    HW275581   9.068   0.864   5.549
24562SOL     OW75582   6.681   4.983  12.441
24562SOL    HW175583   6.585   4.973  12.436
24562SOL    HW275584   6.693   5.063  12.492
24563SOL     OW75585   0.849   4.370   6.136
24563SOL    HW175586   0.853   4.422   6.055
24563SOL    HW275587   0.836   4.280   6.106
24564SOL     OW75588  12.548   6.600   2.237
24564SOL    HW175589  12.543   6.695   2.245
24564SOL    HW275590  12.457   6.571   2.237
24565SOL     OW75591   9.899  11.211  14.412
24565SOL    HW175592   9.828  11.261  14.371
24565SOL    HW275593   9.856  11.132  14.444
24566SOL     OW75594  12.264   1.522   8.572
24566SOL    HW175595  12.266   1.512   8.477
24566SOL    HW275596  12.246   1.615   8.585
24567SOL     OW75597   9.443   0.093   1.828
24567SOL    HW175598   9.413   0.089   1.919
24567SOL    HW275599   9.462   0.002   1.805
24568SOL     OW75600   4.788  13.896  10.909
24568SOL    HW175601   4.791  13.895  10.813
24568SOL    HW275602   4.880  13.894  10.935
24569SOL     OW75603  13.277   4.484   4.970
24569SOL    HW175604  13.200   4.530   4.936
24569SOL    HW275605  13.243   4.397   4.994
24570SOL     OW75606  11.738  10.798   4.900
24570SOL    HW175607  11.697  10.770   4.981
24570SOL    HW275608  11.741  10.893   4.905
24571SOL     OW75609   4.449   8.195   5.016
24571SOL    HW175610   4.494   8.227   5.094
24571SOL    HW275611   4.508   8.218   4.944
24572SOL     OW75612   0.638  13.180  10.213
24572SOL    HW175613   0.700  13.211  10.147
24572SOL    HW275614   0.615  13.092  10.184
24573SOL     OW75615   9.793   8.504   9.224
24573SOL    HW175616   9.868   8.462   9.182
24573SOL    HW275617   9.751   8.434   9.274
24574SOL     OW75618   1.352  11.637   1.783
24574SOL    HW175619   1.266  11.673   1.802
24574SOL    HW275620   1.348  11.547   1.815
24575SOL     OW75621  14.280   7.966  11.620
24575SOL    HW175622  14.291   8.029  11.548
24575SOL    HW275623  14.217   7.902  11.587
24576SOL     OW75624   1.463  12.627   1.343
24576SOL    HW175625   1.382  12.670   1.371
24576SOL    HW275626   1.508  12.692   1.290
24577SOL     OW75627  12.062  11.347   3.124
24577SOL    HW175628  12.083  11.319   3.035
24577SOL    HW275629  12.141  11.329   3.174
24578SOL     OW75630   5.536   7.323   5.103
24578SOL    HW175631   5.575   7.239   5.126
24578SOL    HW275632   5.573   7.344   5.017
24579SOL     OW75633   6.740  13.878   1.713
24579SOL    HW175634   6.722  13.955   1.767
24579SOL    HW275635   6.655  13.854   1.677
24580SOL     OW75636   0.717  13.485   6.324
24580SOL    HW175637   0.659  13.501   6.398
24580SOL    HW275638   0.793  13.440   6.362
24581SOL     OW75639   6.539   5.693  14.135
24581SOL    HW175640   6.462   5.675  14.190
24581SOL    HW275641   6.614   5.672  14.190
24582SOL     OW75642   8.653   9.751   4.155
24582SOL    HW175643   8.656   9.667   4.200
24582SOL    HW275644   8.572   9.792   4.185
24583SOL     OW75645  14.019   1.869   5.837
24583SOL    HW175646  13.983   1.844   5.922
24583SOL    HW275647  14.044   1.961   5.847
24584SOL     OW75648   4.878   1.176   2.152
24584SOL    HW175649   4.874   1.217   2.065
24584SOL    HW275650   4.814   1.105   2.148
24585SOL     OW75651   0.479   2.647  12.894
24585SOL    HW175652   0.408   2.652  12.830
24585SOL    HW275653   0.553   2.691  12.852
24586SOL     OW75654  11.880   2.843  13.580
24586SOL    HW175655  11.836   2.802  13.505
24586SOL    HW275656  11.971   2.816  13.573
24587SOL     OW75657  14.842   7.483   7.216
24587SOL    HW175658  14.800   7.505   7.299
24587SOL    HW275659   0.014   7.561   7.192
24588SOL     OW75660   9.772   3.254   8.387
24588SOL    HW175661   9.861   3.233   8.357
24588SOL    HW275662   9.741   3.319   8.324
24589SOL     OW75663   2.792   7.565   1.996
24589SOL    HW175664   2.778   7.496   2.061
24589SOL    HW275665   2.860   7.530   1.939
24590SOL     OW75666   4.981   1.095   1.256
24590SOL    HW175667   4.979   0.999   1.258
24590SOL    HW275668   5.065   1.116   1.215
24591SOL     OW75669   6.880   0.238   1.975
24591SOL    HW175670   6.923   0.179   2.038
24591SOL    HW275671   6.933   0.317   1.976
24592SOL     OW75672  12.757  11.788   1.962
24592SOL    HW175673  12.668  11.804   1.991
24592SOL    HW275674  12.789  11.875   1.935
24593SOL     OW75675   0.981   5.083   9.313
24593SOL    HW175676   1.036   5.034   9.374
24593SOL    HW275677   0.894   5.082   9.354
24594SOL     OW75678  12.607   9.435   4.680
24594SOL    HW175679  12.538   9.496   4.655
24594SOL    HW275680  12.679   9.490   4.711
24595SOL     OW75681  13.253  11.317   1.124
24595SOL    HW175682  13.290  11.364   1.199
24595SOL    HW275683  13.212  11.385   1.072
24596SOL     OW75684   0.475   8.175  10.655
24596SOL    HW175685   0.408   8.118  10.692
24596SOL    HW275686   0.544   8.177  10.722
24597SOL     OW75687  10.349   7.796  10.838
24597SOL    HW175688  10.360   7.719  10.782
24597SOL    HW275689  10.263   7.785  10.878
24598SOL     OW75690   3.342   3.775   0.710
24598SOL    HW175691   3.367   3.837   0.779
24598SOL    HW275692   3.350   3.689   0.751
24599SOL     OW75693   2.697   0.552   4.697
24599SOL    HW175694   2.619   0.542   4.643
24599SOL    HW275695   2.755   0.481   4.667
24600SOL     OW75696   1.091   7.214   4.190
24600SOL    HW175697   1.057   7.301   4.168
24600SOL    HW275698   1.043   7.154   4.131
24601SOL     OW75699   2.661  14.244  11.297
24601SOL    HW175700   2.644  14.190  11.219
24601SOL    HW275701   2.621  14.329  11.276
24602SOL     OW75702   5.849  14.768  10.276
24602SOL    HW175703   5.836  14.796  10.366
24602SOL    HW275704   5.796  14.689  10.267
24603SOL     OW75705   9.327   6.940   5.623
24603SOL    HW175706   9.318   7.027   5.585
24603SOL    HW275707   9.252   6.932   5.683
24604SOL     OW75708   1.688   6.109   1.820
24604SOL    HW175709   1.654   6.116   1.909
24604SOL    HW275710   1.705   6.016   1.807
24605SOL     OW75711   9.384   1.743  13.833
24605SOL    HW175712   9.463   1.713  13.878
24605SOL    HW275713   9.363   1.827  13.875
24606SOL     OW75714   9.939   3.141   0.437
24606SOL    HW175715   9.952   3.235   0.454
24606SOL    HW275716   9.844   3.130   0.439
24607SOL     OW75717   6.905   8.734  10.821
24607SOL    HW175718   6.985   8.782  10.801
24607SOL    HW275719   6.935   8.650  10.858
24608SOL     OW75720  10.581  14.002   3.686
24608SOL    HW175721  10.643  13.933   3.663
24608SOL    HW275722  10.624  14.083   3.659
24609SOL     OW75723   1.571  13.582   8.204
24609SOL    HW175724   1.594  13.660   8.254
24609SOL    HW275725   1.521  13.616   8.130
24610SOL     OW75726   7.880  12.036   8.388
24610SOL    HW175727   7.850  11.970   8.326
24610SOL    HW275728   7.806  12.094   8.399
24611SOL     OW75729   3.483  11.160   1.470
24611SOL    HW175730   3.531  11.210   1.536
24611SOL    HW275731   3.550  11.122   1.414
24612SOL     OW75732  13.609   0.751   5.265
24612SOL    HW175733  13.533   0.724   5.213
24612SOL    HW275734  13.589   0.720   5.354
24613SOL     OW75735   7.661   1.717  11.600
24613SOL    HW175736   7.699   1.631  11.613
24613SOL    HW275737   7.626   1.742  11.686
24614SOL     OW75738  11.325  14.631   4.241
24614SOL    HW175739  11.388  14.559   4.238
24614SOL    HW275740  11.348  14.679   4.321
24615SOL     OW75741   5.899   0.321   7.313
24615SOL    HW175742   5.841   0.396   7.325
24615SOL    HW275743   5.965   0.351   7.251
24616SOL     OW75744  10.384   9.057   2.906
24616SOL    HW175745  10.359   9.149   2.893
24616SOL    HW275746  10.304   9.008   2.890
24617SOL     OW75747   6.911   0.173  12.185
24617SOL    HW175748   6.935   0.139  12.099
24617SOL    HW275749   6.919   0.098  12.244
24618SOL     OW75750   4.648   7.682   4.321
24618SOL    HW175751   4.639   7.630   4.241
24618SOL    HW275752   4.646   7.618   4.392
24619SOL     OW75753  10.873   3.077   3.666
24619SOL    HW175754  10.933   3.143   3.701
24619SOL    HW275755  10.912   2.993   3.691
24620SOL     OW75756  10.251   9.348  13.809
24620SOL    HW175757  10.219   9.265  13.847
24620SOL    HW275758  10.179   9.379  13.755
24621SOL     OW75759   3.833  14.052   1.463
24621SOL    HW175760   3.742  14.034   1.442
24621SOL    HW275761   3.852  14.136   1.420
24622SOL     OW75762  10.862   2.795   1.402
24622SOL    HW175763  10.856   2.882   1.442
24622SOL    HW275764  10.922   2.747   1.459
24623SOL     OW75765   9.048   2.234   8.891
24623SOL    HW175766   9.071   2.298   8.823
24623SOL    HW275767   9.131   2.216   8.936
24624SOL     OW75768   2.104   5.436  13.320
24624SOL    HW175769   2.030   5.453  13.262
24624SOL    HW275770   2.165   5.384  13.267
24625SOL     OW75771   8.674  12.619   5.306
24625SOL    HW175772   8.628  12.702   5.320
24625SOL    HW275773   8.629  12.556   5.361
24626SOL     OW75774   4.404   6.684   3.471
24626SOL    HW175775   4.464   6.664   3.542
24626SOL    HW275776   4.337   6.616   3.475
24627SOL     OW75777   2.688   6.697  10.481
24627SOL    HW175778   2.624   6.753  10.525
24627SOL    HW275779   2.654   6.688  10.392
24628SOL     OW75780   5.486  14.427  13.034
24628SOL    HW175781   5.491  14.368  12.958
24628SOL    HW275782   5.537  14.504  13.008
24629SOL     OW75783   2.538   1.565   1.432
24629SOL    HW175784   2.445   1.584   1.420
24629SOL    HW275785   2.575   1.571   1.344
24630SOL     OW75786  11.628   6.349   1.521
24630SOL    HW175787  11.608   6.427   1.573
24630SOL    HW275788  11.614   6.377   1.430
24631SOL     OW75789   0.324  11.848   3.375
24631SOL    HW175790   0.415  11.831   3.349
24631SOL    HW275791   0.282  11.878   3.294
24632SOL     OW75792   9.757   4.300   5.264
24632SOL    HW175793   9.744   4.258   5.349
24632SOL    HW275794   9.736   4.392   5.279
24633SOL     OW75795  13.214   4.594   9.124
24633SOL    HW175796  13.132   4.550   9.146
24633SOL    HW275797  13.264   4.529   9.075
24634SOL     OW75798   9.569   4.742   8.793
24634SOL    HW175799   9.656   4.701   8.793
24634SOL    HW275800   9.512   4.678   8.750
24635SOL     OW75801  13.361   5.347   1.494
24635SOL    HW175802  13.397   5.289   1.427
24635SOL    HW275803  13.350   5.431   1.449
24636SOL     OW75804   5.636   0.223   5.005
24636SOL    HW175805   5.723   0.183   5.007
24636SOL    HW275806   5.611   0.231   5.097
24637SOL     OW75807   8.976  14.497   5.226
24637SOL    HW175808   8.980  14.415   5.176
24637SOL    HW275809   8.941  14.561   5.164
24638SOL     OW75810   6.325   5.104  10.689
24638SOL    HW175811   6.245   5.109  10.740
24638SOL    HW275812   6.394   5.136  10.748
24639SOL     OW75813  14.029   3.610   4.130
24639SOL    HW175814  14.098   3.634   4.192
24639SOL    HW275815  14.028   3.681   4.066
24640SOL     OW75816  10.177   8.556  11.250
24640SOL    HW175817  10.156   8.624  11.186
24640SOL    HW275818  10.126   8.580  11.328
24641SOL     OW75819   7.850   1.609   5.264
24641SOL    HW175820   7.922   1.570   5.214
24641SOL    HW275821   7.886   1.621   5.352
24642SOL     OW75822   3.719   6.916  12.287
24642SOL    HW175823   3.644   6.924  12.347
24642SOL    HW275824   3.766   6.839  12.318
24643SOL     OW75825   9.489  12.403   7.232
24643SOL    HW175826   9.479  12.390   7.327
24643SOL    HW275827   9.581  12.428   7.221
24644SOL     OW75828  14.496   4.751  14.016
24644SOL    HW175829  14.476   4.658  14.026
24644SOL    HW275830  14.484   4.767  13.922
24645SOL     OW75831   2.909   6.238  10.675
24645SOL    HW175832   2.966   6.198  10.609
24645SOL    HW275833   2.826   6.253  10.630
24646SOL     OW75834   1.959   4.219   2.588
24646SOL    HW175835   1.877   4.249   2.627
24646SOL    HW275836   1.940   4.132   2.555
24647SOL     OW75837   1.637   4.627   2.777
24647SOL    HW175838   1.637   4.680   2.857
24647SOL    HW275839   1.595   4.682   2.711
24648SOL     OW75840   2.095  10.041  13.813
24648SOL    HW175841   2.138  10.121  13.782
24648SOL    HW275842   2.136   9.971  13.762
24649SOL     OW75843   2.141  11.987   9.504
24649SOL    HW175844   2.054  12.021   9.485
24649SOL    HW275845   2.133  11.892   9.493
24650SOL     OW75846   4.992   6.555   4.939
24650SOL    HW175847   5.080   6.577   4.968
24650SOL    HW275848   4.949   6.520   5.017
24651SOL     OW75849   9.891   2.401   4.611
24651SOL    HW175850   9.982   2.423   4.593
24651SOL    HW275851   9.841   2.457   4.551
24652SOL     OW75852   0.327  13.123   1.605
24652SOL    HW175853   0.410  13.152   1.567
24652SOL    HW275854   0.329  13.028   1.595
24653SOL     OW75855   2.590   7.148   4.951
24653SOL    HW175856   2.659   7.083   4.944
24653SOL    HW275857   2.580   7.163   5.045
24654SOL     OW75858   9.549   8.713   2.171
24654SOL    HW175859   9.566   8.727   2.078
24654SOL    HW275860   9.573   8.795   2.213
24655SOL     OW75861  11.919   2.350  13.510
24655SOL    HW175862  11.971   2.302  13.446
24655SOL    HW275863  11.887   2.427  13.463
24656SOL     OW75864  11.804   7.364   7.774
24656SOL    HW175865  11.737   7.392   7.836
24656SOL    HW275866  11.828   7.275   7.803
24657SOL     OW75867  12.868   0.312   9.789
24657SOL    HW175868  12.873   0.218   9.803
24657SOL    HW275869  12.930   0.349   9.851
24658SOL     OW75870  12.097   2.254  12.400
24658SOL    HW175871  12.166   2.308  12.361
24658SOL    HW275872  12.035   2.238  12.329
24659SOL     OW75873   4.698   5.724   0.263
24659SOL    HW175874   4.726   5.702   0.174
24659SOL    HW275875   4.660   5.812   0.256
24660SOL     OW75876   1.853   3.198   4.405
24660SOL    HW175877   1.776   3.142   4.415
24660SOL    HW275878   1.913   3.147   4.351
24661SOL     OW75879   9.297   3.845  13.755
24661SOL    HW175880   9.349   3.870  13.679
24661SOL    HW275881   9.276   3.929  13.797
24662SOL     OW75882   6.226   6.849   8.093
24662SOL    HW175883   6.217   6.767   8.142
24662SOL    HW275884   6.286   6.827   8.021
24663SOL     OW75885   5.534  11.987   2.996
24663SOL    HW175886   5.552  11.918   2.932
24663SOL    HW275887   5.458  11.956   3.045
24664SOL     OW75888   1.682   3.295   7.243
24664SOL    HW175889   1.648   3.384   7.235
24664SOL    HW275890   1.636   3.246   7.174
24665SOL     OW75891   0.560  12.668   1.306
24665SOL    HW175892   0.583  12.753   1.343
24665SOL    HW275893   0.621  12.656   1.233
24666SOL     OW75894   5.904  11.576   8.846
24666SOL    HW175895   5.914  11.482   8.858
24666SOL    HW275896   5.876  11.585   8.755
24667SOL     OW75897   4.304  14.124   1.985
24667SOL    HW175898   4.225  14.090   1.943
24667SOL    HW275899   4.272  14.174   2.060
24668SOL     OW75900   3.339  11.072   5.247
24668SOL    HW175901   3.400  11.029   5.187
24668SOL    HW275902   3.255  11.068   5.203
24669SOL     OW75903   2.870   1.315   7.879
24669SOL    HW175904   2.825   1.367   7.813
24669SOL    HW275905   2.955   1.357   7.889
24670SOL     OW75906   3.124   9.226   5.878
24670SOL    HW175907   3.042   9.235   5.830
24670SOL    HW275908   3.103   9.256   5.966
24671SOL     OW75909   4.560   6.216  13.148
24671SOL    HW175910   4.471   6.230  13.182
24671SOL    HW275911   4.595   6.304  13.133
24672SOL     OW75912   3.023  13.307   2.489
24672SOL    HW175913   2.999  13.219   2.517
24672SOL    HW275914   2.980  13.366   2.551
24673SOL     OW75915  12.397   5.811   6.011
24673SOL    HW175916  12.416   5.875   5.943
24673SOL    HW275917  12.307   5.832   6.039
24674SOL     OW75918   2.160  10.014  14.573
24674SOL    HW175919   2.224  10.006  14.503
24674SOL    HW275920   2.211  10.039  14.650
24675SOL     OW75921   3.025  11.005  13.149
24675SOL    HW175922   2.953  11.064  13.124
24675SOL    HW275923   3.104  11.048  13.117
24676SOL     OW75924  13.421   2.144   7.405
24676SOL    HW175925  13.482   2.218   7.394
24676SOL    HW275926  13.339   2.176   7.367
24677SOL     OW75927   0.952   2.571   4.808
24677SOL    HW175928   0.912   2.658   4.804
24677SOL    HW275929   0.982   2.553   4.719
24678SOL     OW75930  11.800   7.333  14.443
24678SOL    HW175931  11.799   7.238  14.455
24678SOL    HW275932  11.708   7.357  14.433
24679SOL     OW75933   2.034   1.461  11.192
24679SOL    HW175934   1.939   1.461  11.202
24679SOL    HW275935   2.058   1.553  11.187
24680SOL     OW75936  14.323  14.866   8.539
24680SOL    HW175937  14.298  14.779   8.569
24680SOL    HW275938  14.352   0.033   8.619
24681SOL     OW75939  13.585   0.317   1.424
24681SOL    HW175940  13.528   0.246   1.451
24681SOL    HW275941  13.673   0.285   1.441
24682SOL     OW75942  12.192  12.987   5.559
24682SOL    HW175943  12.124  12.960   5.622
24682SOL    HW275944  12.162  12.952   5.475
24683SOL     OW75945   0.148   1.208  14.805
24683SOL    HW175946   0.133   1.144  14.736
24683SOL    HW275947   0.232   1.248  14.784
24684SOL     OW75948  14.278  14.261   3.129
24684SOL    HW175949  14.243  14.224   3.210
24684SOL    HW275950  14.218  14.232   3.061
24685SOL     OW75951  14.705   3.315   2.332
24685SOL    HW175952  14.777   3.301   2.270
24685SOL    HW275953  14.658   3.232   2.333
24686SOL     OW75954   5.478   6.727   2.091
24686SOL    HW175955   5.541   6.733   2.019
24686SOL    HW275956   5.416   6.798   2.075
24687SOL     OW75957   7.994   2.517   0.912
24687SOL    HW175958   7.918   2.463   0.932
24687SOL    HW275959   7.992   2.586   0.978
24688SOL     OW75960   5.694  13.932   0.700
24688SOL    HW175961   5.734  13.847   0.682
24688SOL    HW275962   5.769  13.989   0.721
24689SOL     OW75963   8.746  14.140   8.668
24689SOL    HW175964   8.757  14.072   8.736
24689SOL    HW275965   8.811  14.206   8.689
24690SOL     OW75966   3.850  10.281   4.316
24690SOL    HW175967   3.813  10.197   4.342
24690SOL    HW275968   3.943  10.265   4.306
24691SOL     OW75969   9.603   8.997   9.382
24691SOL    HW175970   9.666   8.936   9.346
24691SOL    HW275971   9.540   8.942   9.429
24692SOL     OW75972   1.999   0.276   0.964
24692SOL    HW175973   2.045   0.221   0.900
24692SOL    HW275974   2.011   0.365   0.932
24693SOL     OW75975  13.771   2.636   2.645
24693SOL    HW175976  13.866   2.631   2.632
24693SOL    HW275977  13.759   2.612   2.737
24694SOL     OW75978  14.547   5.379   3.302
24694SOL    HW175979  14.514   5.311   3.360
24694SOL    HW275980  14.629   5.408   3.343
24695SOL     OW75981   9.880   3.136  10.949
24695SOL    HW175982   9.971   3.120  10.925
24695SOL    HW275983   9.877   3.118  11.043
24696SOL     OW75984  14.187   7.345  12.374
24696SOL    HW175985  14.254   7.338  12.442
24696SOL    HW275986  14.184   7.258  12.334
24697SOL     OW75987   5.264  14.624  14.102
24697SOL    HW175988   5.189  14.589  14.150
24697SOL    HW275989   5.276  14.713  14.137
24698SOL     OW75990  11.313  14.014   4.013
24698SOL    HW175991  11.239  14.013   4.073
24698SOL    HW275992  11.346  13.924   4.013
24699SOL     OW75993   4.696   9.657   7.763
24699SOL    HW175994   4.787   9.663   7.732
24699SOL    HW275995   4.684   9.564   7.783
24700SOL     OW75996  10.778   7.472  12.281
24700SOL    HW175997  10.732   7.452  12.199
24700SOL    HW275998  10.868   7.446  12.266
24701SOL     OW75999  11.450   6.560  13.174
24701SOL    HW176000  11.522   6.511  13.214
24701SOL    HW276001  11.376   6.500  13.178
24702SOL     OW76002   5.128   9.450  14.171
24702SOL    HW176003   5.122   9.453  14.076
24702SOL    HW276004   5.053   9.398  14.198
24703SOL     OW76005   1.652  13.861   7.731
24703SOL    HW176006   1.710  13.831   7.800
24703SOL    HW276007   1.619  13.781   7.690
24704SOL     OW76008   9.404  12.048   7.331
24704SOL    HW176009   9.460  12.036   7.408
24704SOL    HW276010   9.436  12.129   7.291
24705SOL     OW76011   0.677   5.017  14.400
24705SOL    HW176012   0.658   5.055  14.314
24705SOL    HW276013   0.645   4.927  14.393
24706SOL     OW76014   9.939   5.636  11.364
24706SOL    HW176015   9.907   5.641  11.274
24706SOL    HW276016   9.995   5.559  11.366
24707SOL     OW76017   9.657  10.401  12.289
24707SOL    HW176018   9.679  10.391  12.382
24707SOL    HW276019   9.666  10.495  12.272
24708SOL     OW76020   1.849   6.493  12.250
24708SOL    HW176021   1.836   6.583  12.280
24708SOL    HW276022   1.764   6.451  12.263
24709SOL     OW76023  11.798   3.107  12.565
24709SOL    HW176024  11.866   3.171  12.586
24709SOL    HW276025  11.724   3.161  12.535
24710SOL     OW76026  11.885   9.162   1.259
24710SOL    HW176027  11.920   9.136   1.175
24710SOL    HW276028  11.923   9.248   1.276
24711SOL     OW76029   2.519  11.840   8.016
24711SOL    HW176030   2.557  11.917   8.058
24711SOL    HW276031   2.581  11.769   8.034
24712SOL     OW76032  14.239   8.044   7.523
24712SOL    HW176033  14.169   8.110   7.521
24712SOL    HW276034  14.257   8.026   7.431
24713SOL     OW76035  11.334  10.369   9.367
24713SOL    HW176036  11.304  10.399   9.452
24713SOL    HW276037  11.406  10.310   9.387
24714SOL     OW76038  11.376  13.960  12.022
24714SOL    HW176039  11.343  13.877  12.057
24714SOL    HW276040  11.447  13.985  12.080
24715SOL     OW76041  12.595  13.055   4.951
24715SOL    HW176042  12.664  13.088   4.895
24715SOL    HW276043  12.580  12.965   4.921
24716SOL     OW76044   2.830   6.435   2.661
24716SOL    HW176045   2.887   6.380   2.714
24716SOL    HW276046   2.881   6.513   2.643
24717SOL     OW76047   7.860   9.792  10.200
24717SOL    HW176048   7.776   9.766  10.238
24717SOL    HW276049   7.925   9.739  10.246
24718SOL     OW76050  10.458   4.693  14.354
24718SOL    HW176051  10.484   4.671  14.265
24718SOL    HW276052  10.370   4.655  14.363
24719SOL     OW76053  10.204  11.749   6.848
24719SOL    HW176054  10.236  11.721   6.934
24719SOL    HW276055  10.113  11.719   6.845
24720SOL     OW76056   7.200   5.616   1.513
24720SOL    HW176057   7.263   5.622   1.441
24720SOL    HW276058   7.119   5.589   1.471
24721SOL     OW76059  10.627  10.628  14.869
24721SOL    HW176060  10.687  10.640  14.795
24721SOL    HW276061  10.634  10.709   0.042
24722SOL     OW76062   5.109  10.842  10.918
24722SOL    HW176063   5.027  10.813  10.958
24722SOL    HW276064   5.173  10.840  10.990
24723SOL     OW76065  13.390   1.402   2.883
24723SOL    HW176066  13.382   1.324   2.828
24723SOL    HW276067  13.320   1.394   2.947
24724SOL     OW76068   0.912  13.956   1.032
24724SOL    HW176069   1.007  13.955   1.044
24724SOL    HW276070   0.899  14.005   0.950
24725SOL     OW76071   4.261   7.417   3.591
24725SOL    HW176072   4.289   7.335   3.632
24725SOL    HW276073   4.210   7.389   3.514
24726SOL     OW76074  10.322   7.761   2.823
24726SOL    HW176075  10.402   7.807   2.848
24726SOL    HW276076  10.251   7.816   2.855
24727SOL     OW76077   9.256  10.470  12.036
24727SOL    HW176078   9.229  10.468  12.128
24727SOL    HW276079   9.237  10.559  12.008
24728SOL     OW76080  12.920   4.995  10.087
24728SOL    HW176081  12.904   4.931  10.017
24728SOL    HW276082  12.894   4.950  10.167
24729SOL     OW76083   9.211   2.106   7.611
24729SOL    HW176084   9.192   2.199   7.623
24729SOL    HW276085   9.184   2.088   7.521
24730SOL     OW76086   6.356  10.687   8.411
24730SOL    HW176087   6.393  10.689   8.499
24730SOL    HW276088   6.270  10.728   8.420
24731SOL     OW76089  11.778   6.472   6.590
24731SOL    HW176090  11.805   6.511   6.673
24731SOL    HW276091  11.707   6.529   6.559
24732SOL     OW76092   9.233  14.161   8.262
24732SOL    HW176093   9.297  14.232   8.268
24732SOL    HW276094   9.243  14.113   8.344
24733SOL     OW76095  14.529   7.511   3.828
24733SOL    HW176096  14.452   7.569   3.825
24733SOL    HW276097  14.597   7.565   3.869
24734SOL     OW76098   9.826   1.718   7.417
24734SOL    HW176099   9.813   1.742   7.325
24734SOL    HW276100   9.850   1.800   7.460
24735SOL     OW76101  10.331   6.011   4.827
24735SOL    HW176102  10.297   5.970   4.747
24735SOL    HW276103  10.276   5.975   4.897
24736SOL     OW76104   2.698   8.304  11.718
24736SOL    HW176105   2.761   8.365  11.755
24736SOL    HW276106   2.665   8.347  11.639
24737SOL     OW76107   9.808   6.836   8.738
24737SOL    HW176108   9.717   6.812   8.756
24737SOL    HW276109   9.802   6.900   8.668
24738SOL     OW76110   8.844   2.211   6.776
24738SOL    HW176111   8.770   2.245   6.726
24738SOL    HW276112   8.804   2.158   6.845
24739SOL     OW76113  11.088   8.348  13.491
24739SOL    HW176114  11.166   8.404  13.490
24739SOL    HW276115  11.117   8.265  13.452
24740SOL     OW76116   3.339   3.528   5.303
24740SOL    HW176117   3.359   3.445   5.345
24740SOL    HW276118   3.349   3.511   5.209
24741SOL     OW76119   7.375   4.420   9.556
24741SOL    HW176120   7.368   4.336   9.511
24741SOL    HW276121   7.303   4.472   9.521
24742SOL     OW76122   1.012  12.717  11.810
24742SOL    HW176123   0.922  12.692  11.791
24742SOL    HW276124   1.042  12.652  11.873
24743SOL     OW76125   5.540  11.650  13.444
24743SOL    HW176126   5.450  11.641  13.411
24743SOL    HW276127   5.574  11.728  13.401
24744SOL     OW76128   4.229  11.767   6.045
24744SOL    HW176129   4.226  11.688   6.099
24744SOL    HW276130   4.284  11.828   6.094
24745SOL     OW76131   4.322   7.720   6.291
24745SOL    HW176132   4.375   7.678   6.359
24745SOL    HW276133   4.232   7.701   6.315
24746SOL     OW76134   5.709   3.409  13.909
24746SOL    HW176135   5.667   3.356  13.976
24746SOL    HW276136   5.770   3.465  13.957
24747SOL     OW76137   3.314  10.155   1.195
24747SOL    HW176138   3.367  10.084   1.159
24747SOL    HW276139   3.364  10.234   1.177
24748SOL     OW76140   8.338   7.573   4.846
24748SOL    HW176141   8.401   7.643   4.860
24748SOL    HW276142   8.391   7.494   4.834
24749SOL     OW76143   2.436   7.544   3.811
24749SOL    HW176144   2.346   7.553   3.841
24749SOL    HW276145   2.445   7.451   3.790
24750SOL     OW76146   6.917   1.158   4.094
24750SOL    HW176147   6.855   1.151   4.021
24750SOL    HW276148   6.969   1.078   4.090
24751SOL     OW76149   9.212  11.327   0.994
24751SOL    HW176150   9.159  11.270   0.939
24751SOL    HW276151   9.267  11.267   1.045
24752SOL     OW76152   8.490  12.469   0.434
24752SOL    HW176153   8.407  12.517   0.426
24752SOL    HW276154   8.550  12.532   0.474
24753SOL     OW76155   0.356   7.395   6.783
24753SOL    HW176156   0.375   7.411   6.876
24753SOL    HW276157   0.401   7.466   6.737
24754SOL     OW76158  10.956   7.215   3.661
24754SOL    HW176159  10.926   7.188   3.574
24754SOL    HW276160  10.998   7.137   3.698
24755SOL     OW76161   5.739   4.906   6.872
24755SOL    HW176162   5.815   4.921   6.928
24755SOL    HW276163   5.763   4.831   6.818
24756SOL     OW76164  14.023   5.091   3.187
24756SOL    HW176165  13.991   5.002   3.204
24756SOL    HW276166  13.944   5.143   3.173
24757SOL     OW76167   2.751  11.334   6.137
24757SOL    HW176168   2.715  11.259   6.183
24757SOL    HW276169   2.807  11.296   6.069
24758SOL     OW76170   1.154  11.338  13.803
24758SOL    HW176171   1.208  11.415  13.823
24758SOL    HW276172   1.153  11.288  13.884
24759SOL     OW76173  11.813  10.350  14.046
24759SOL    HW176174  11.877  10.418  14.027
24759SOL    HW276175  11.769  10.334  13.963
24760SOL     OW76176  10.121  14.101   5.022
24760SOL    HW176177  10.112  14.182   4.973
24760SOL    HW276178  10.103  14.032   4.958
24761SOL     OW76179  10.678  14.300   3.010
24761SOL    HW176180  10.592  14.263   3.032
24761SOL    HW276181  10.691  14.276   2.918
24762SOL     OW76182  14.415   1.317   3.122
24762SOL    HW176183  14.342   1.276   3.169
24762SOL    HW276184  14.383   1.404   3.099
24763SOL     OW76185   6.443   6.119   0.941
24763SOL    HW176186   6.357   6.079   0.929
24763SOL    HW276187   6.429   6.189   1.005
24764SOL     OW76188  11.531  13.282  11.444
24764SOL    HW176189  11.560  13.373  11.434
24764SOL    HW276190  11.490  13.280  11.531
24765SOL     OW76191  12.024   0.437   6.458
24765SOL    HW176192  11.950   0.477   6.504
24765SOL    HW276193  12.009   0.343   6.467
24766SOL     OW76194   6.471  11.527   0.876
24766SOL    HW176195   6.432  11.458   0.930
24766SOL    HW276196   6.556  11.492   0.850
24767SOL     OW76197   1.145  14.233  13.196
24767SOL    HW176198   1.052  14.215  13.209
24767SOL    HW276199   1.171  14.283  13.273
24768SOL     OW76200   7.866   7.576   2.371
24768SOL    HW176201   7.891   7.504   2.429
24768SOL    HW276202   7.775   7.595   2.394
24769SOL     OW76203  14.259   2.637   8.763
24769SOL    HW176204  14.288   2.705   8.824
24769SOL    HW276205  14.275   2.555   8.811
24770SOL     OW76206   5.377   5.704   8.688
24770SOL    HW176207   5.360   5.610   8.696
24770SOL    HW276208   5.469   5.713   8.713
24771SOL     OW76209   8.698  13.336   4.004
24771SOL    HW176210   8.735  13.390   3.934
24771SOL    HW276211   8.773  13.287   4.038
24772SOL     OW76212   7.346   3.667   7.700
24772SOL    HW176213   7.291   3.700   7.629
24772SOL    HW276214   7.436   3.675   7.667
24773SOL     OW76215  12.529   6.465  12.887
24773SOL    HW176216  12.519   6.464  12.982
24773SOL    HW276217  12.617   6.429  12.872
24774SOL     OW76218   9.759   6.271  10.150
24774SOL    HW176219   9.788   6.274  10.241
24774SOL    HW276220   9.766   6.179  10.125
24775SOL     OW76221   3.861   2.737   0.098
24775SOL    HW176222   3.902   2.700   0.176
24775SOL    HW276223   3.907   2.819   0.082
24776SOL     OW76224   8.523   3.300   7.378
24776SOL    HW176225   8.604   3.284   7.328
24776SOL    HW276226   8.510   3.394   7.373
24777SOL     OW76227  14.236  14.034   5.066
24777SOL    HW176228  14.174  13.991   5.124
24777SOL    HW276229  14.230  14.127   5.088
24778SOL     OW76230  14.470   1.867   4.842
24778SOL    HW176231  14.381   1.878   4.876
24778SOL    HW276232  14.459   1.864   4.747
24779SOL     OW76233   4.038  13.397  11.670
24779SOL    HW176234   4.082  13.332  11.616
24779SOL    HW276235   3.962  13.351  11.706
24780SOL     OW76236   0.231  11.045   5.148
24780SOL    HW176237   0.293  11.103   5.193
24780SOL    HW276238   0.237  11.071   5.056
24781SOL     OW76239  11.660  11.906  10.873
24781SOL    HW176240  11.569  11.897  10.900
24781SOL    HW276241  11.659  11.892  10.778
24782SOL     OW76242   2.959  12.048  12.424
24782SOL    HW176243   2.903  11.971  12.415
24782SOL    HW276244   2.987  12.046  12.516
24783SOL     OW76245  10.414   8.450  11.172
24783SOL    HW176246  10.333   8.493  11.199
24783SOL    HW276247  10.470   8.522  11.141
24784SOL     OW76248   6.139  12.833  10.346
24784SOL    HW176249   6.145  12.788  10.430
24784SOL    HW276250   6.212  12.797  10.295
24785SOL     OW76251   4.647   1.050   7.341
24785SOL    HW176252   4.552   1.041   7.346
24785SOL    HW276253   4.661   1.112   7.270
24786SOL     OW76254  11.009   3.912   0.814
24786SOL    HW176255  11.090   3.962   0.808
24786SOL    HW276256  11.020   3.857   0.892
24787SOL     OW76257  12.571   6.247   2.340
24787SOL    HW176258  12.648   6.300   2.319
24787SOL    HW276259  12.504   6.280   2.280
24788SOL     OW76260  10.686   0.466   0.410
24788SOL    HW176261  10.691   0.375   0.437
24788SOL    HW276262  10.660   0.513   0.490
24789SOL     OW76263   0.662  12.516   4.095
24789SOL    HW176264   0.610  12.492   4.019
24789SOL    HW276265   0.599  12.522   4.167
24790SOL     OW76266   9.510   7.830   3.023
24790SOL    HW176267   9.456   7.908   3.010
24790SOL    HW276268   9.453   7.767   3.066
24791SOL     OW76269   7.207   4.474   6.014
24791SOL    HW176270   7.247   4.440   6.093
24791SOL    HW276271   7.243   4.563   6.005
24792SOL     OW76272   2.672   8.554   8.705
24792SOL    HW176273   2.767   8.558   8.718
24792SOL    HW276274   2.653   8.460   8.695
24793SOL     OW76275   2.942   3.373   3.306
24793SOL    HW176276   2.852   3.372   3.337
24793SOL    HW276277   2.959   3.465   3.286
24794SOL     OW76278   8.351  14.278   9.031
24794SOL    HW176279   8.398  14.202   8.998
24794SOL    HW276280   8.417  14.329   9.078
24795SOL     OW76281  11.846   0.904   6.229
24795SOL    HW176282  11.774   0.925   6.169
24795SOL    HW276283  11.919   0.883   6.171
24796SOL     OW76284  14.420   2.165   4.931
24796SOL    HW176285  14.461   2.241   4.890
24796SOL    HW276286  14.487   2.097   4.928
24797SOL     OW76287   2.404   5.587   7.315
24797SOL    HW176288   2.461   5.561   7.387
24797SOL    HW276289   2.323   5.615   7.357
24798SOL     OW76290   3.003   0.178   2.059
24798SOL    HW176291   3.056   0.257   2.064
24798SOL    HW276292   2.979   0.171   1.966
24799SOL     OW76293   3.323   9.094   0.241
24799SOL    HW176294   3.286   9.112   0.327
24799SOL    HW276295   3.256   9.121   0.179
24800SOL     OW76296   2.998  11.282  14.317
24800SOL    HW176297   2.914  11.303  14.277
24800SOL    HW276298   3.054  11.358  14.296
24801SOL     OW76299   0.707  12.176   6.444
24801SOL    HW176300   0.654  12.111   6.490
24801SOL    HW276301   0.659  12.258   6.455
24802SOL     OW76302  14.431   1.127   2.900
24802SOL    HW176303  14.424   1.184   2.976
24802SOL    HW276304  14.355   1.148   2.846
24803SOL     OW76305  11.055   3.091  11.816
24803SOL    HW176306  11.068   3.108  11.723
24803SOL    HW276307  11.083   3.001  11.828
24804SOL     OW76308  11.679   9.050   5.685
24804SOL    HW176309  11.762   9.014   5.654
24804SOL    HW276310  11.639   8.978   5.735
24805SOL     OW76311   2.069   1.315   4.284
24805SOL    HW176312   2.088   1.386   4.223
24805SOL    HW276313   2.030   1.247   4.230
24806SOL     OW76314   9.112   4.349   6.326
24806SOL    HW176315   9.136   4.396   6.246
24806SOL    HW276316   9.077   4.266   6.297
24807SOL     OW76317   5.654   0.873   1.061
24807SOL    HW176318   5.562   0.886   1.083
24807SOL    HW276319   5.703   0.906   1.137
24808SOL     OW76320   4.180   0.393   8.951
24808SOL    HW176321   4.163   0.330   8.881
24808SOL    HW276322   4.094   0.406   8.992
24809SOL     OW76323   7.024  13.192  10.030
24809SOL    HW176324   6.988  13.103  10.027
24809SOL    HW276325   7.060  13.206   9.942
24810SOL     OW76326   5.356   1.427   6.069
24810SOL    HW176327   5.340   1.332   6.072
24810SOL    HW276328   5.276   1.466   6.104
24811SOL     OW76329  14.188  11.516   9.083
24811SOL    HW176330  14.210  11.592   9.029
24811SOL    HW276331  14.174  11.445   9.020
24812SOL     OW76332   8.050   5.397  12.863
24812SOL    HW176333   7.975   5.368  12.811
24812SOL    HW276334   8.126   5.382  12.806
24813SOL     OW76335   4.594  13.117   1.161
24813SOL    HW176336   4.686  13.144   1.168
24813SOL    HW276337   4.579  13.110   1.067
24814SOL     OW76338   1.930   7.187   4.704
24814SOL    HW176339   1.941   7.263   4.647
24814SOL    HW276340   1.872   7.129   4.655
24815SOL     OW76341   3.724   3.153   1.668
24815SOL    HW176342   3.734   3.059   1.682
24815SOL    HW276343   3.645   3.177   1.717
24816SOL     OW76344  13.434   2.226   1.739
24816SOL    HW176345  13.437   2.131   1.730
24816SOL    HW276346  13.524   2.251   1.760
24817SOL     OW76347   0.832  11.505   3.810
24817SOL    HW176348   0.756  11.447   3.813
24817SOL    HW276349   0.846  11.531   3.901
24818SOL     OW76350  14.845   6.453   3.340
24818SOL    HW176351   0.010   6.371   3.366
24818SOL    HW276352  14.753   6.428   3.325
24819SOL     OW76353  12.627   7.248  11.605
24819SOL    HW176354  12.662   7.227  11.518
24819SOL    HW276355  12.677   7.193  11.665
24820SOL     OW76356  10.748   2.004   9.586
24820SOL    HW176357  10.666   2.027   9.631
24820SOL    HW276358  10.736   1.912   9.561
24821SOL     OW76359   6.114   2.328   3.752
24821SOL    HW176360   6.044   2.338   3.816
24821SOL    HW276361   6.145   2.239   3.764
24822SOL     OW76362   1.970   6.424   5.190
24822SOL    HW176363   2.021   6.442   5.269
24822SOL    HW276364   2.004   6.486   5.126
24823SOL     OW76365   3.273  12.312   0.776
24823SOL    HW176366   3.256  12.219   0.794
24823SOL    HW276367   3.356  12.312   0.728
24824SOL     OW76368   8.145   8.955   1.086
24824SOL    HW176369   8.118   9.005   1.009
24824SOL    HW276370   8.076   8.891   1.098
24825SOL     OW76371   6.824  12.083   0.003
24825SOL    HW176372   6.836  11.993  14.850
24825SOL    HW276373   6.738  12.084   0.044
24826SOL     OW76374   9.963   1.627   0.410
24826SOL    HW176375   9.952   1.552   0.352
24826SOL    HW276376  10.049   1.663   0.386
24827SOL     OW76377  13.963  11.932   5.746
24827SOL    HW176378  13.979  11.861   5.809
24827SOL    HW276379  13.890  11.900   5.693
24828SOL     OW76380   2.648   9.122   0.455
24828SOL    HW176381   2.562   9.150   0.421
24828SOL    HW276382   2.630   9.094   0.544
24829SOL     OW76383   0.897  14.422  10.173
24829SOL    HW176384   0.956  14.481  10.126
24829SOL    HW276385   0.816  14.423  10.122
24830SOL     OW76386   0.462   3.331   6.565
24830SOL    HW176387   0.505   3.260   6.612
24830SOL    HW276388   0.412   3.378   6.631
24831SOL     OW76389   4.170  12.757   6.131
24831SOL    HW176390   4.100  12.779   6.193
24831SOL    HW276391   4.249  12.755   6.185
24832SOL     OW76392   5.124  10.748   2.100
24832SOL    HW176393   5.057  10.815   2.089
24832SOL    HW276394   5.186  10.764   2.029
24833SOL     OW76395   0.568   7.384  14.336
24833SOL    HW176396   0.651   7.343  14.313
24833SOL    HW276397   0.502   7.328  14.296
24834SOL     OW76398  13.165   4.515   6.600
24834SOL    HW176399  13.152   4.609   6.594
24834SOL    HW276400  13.227   4.494   6.530
24835SOL     OW76401   4.087   6.321   2.381
24835SOL    HW176402   4.111   6.303   2.472
24835SOL    HW276403   4.107   6.240   2.334
24836SOL     OW76404   6.825   5.103  13.391
24836SOL    HW176405   6.867   5.187  13.370
24836SOL    HW276406   6.822   5.055  13.309
24837SOL     OW76407   9.610   1.967   9.309
24837SOL    HW176408   9.672   1.979   9.237
24837SOL    HW276409   9.635   1.883   9.348
24838SOL     OW76410   9.077   5.609  14.558
24838SOL    HW176411   9.031   5.558  14.491
24838SOL    HW276412   9.131   5.671  14.508
24839SOL     OW76413   2.060  12.334   7.657
24839SOL    HW176414   2.010  12.293   7.727
24839SOL    HW276415   2.151  12.324   7.684
24840SOL     OW76416   8.327  11.937  11.361
24840SOL    HW176417   8.414  11.936  11.320
24840SOL    HW276418   8.337  11.995  11.436
24841SOL     OW76419   7.120   7.563   5.030
24841SOL    HW176420   7.152   7.627   5.093
24841SOL    HW276421   7.189   7.559   4.964
24842SOL     OW76422  12.426   6.076   4.051
24842SOL    HW176423  12.471   6.083   3.966
24842SOL    HW276424  12.389   5.988   4.051
24843SOL     OW76425   2.363   9.040   0.808
24843SOL    HW176426   2.361   9.014   0.900
24843SOL    HW276427   2.271   9.052   0.785
24844SOL     OW76428   5.253  11.291   8.979
24844SOL    HW176429   5.226  11.202   8.959
24844SOL    HW276430   5.206  11.313   9.059
24845SOL     OW76431  10.073   8.586   3.922
24845SOL    HW176432  10.059   8.648   3.851
24845SOL    HW276433  10.108   8.508   3.879
24846SOL     OW76434   9.450   2.781  12.576
24846SOL    HW176435   9.423   2.752  12.489
24846SOL    HW276436   9.444   2.876  12.572
24847SOL     OW76437  10.855   0.584   0.937
24847SOL    HW176438  10.824   0.590   1.027
24847SOL    HW276439  10.858   0.675   0.907
24848SOL     OW76440  12.276  10.121   1.409
24848SOL    HW176441  12.280  10.207   1.450
24848SOL    HW276442  12.194  10.121   1.360
24849SOL     OW76443   1.145   6.367   4.035
24849SOL    HW176444   1.154   6.374   4.130
24849SOL    HW276445   1.209   6.429   4.000
24850SOL     OW76446   3.188   0.779   8.357
24850SOL    HW176447   3.148   0.767   8.443
24850SOL    HW276448   3.140   0.852   8.318
24851SOL     OW76449   1.444   1.760   8.727
24851SOL    HW176450   1.403   1.729   8.646
24851SOL    HW276451   1.396   1.840   8.748
24852SOL     OW76452   7.368   1.984  11.439
24852SOL    HW176453   7.410   2.044  11.500
24852SOL    HW276454   7.274   1.991  11.458
24853SOL     OW76455   7.446   7.656   4.996
24853SOL    HW176456   7.420   7.587   4.936
24853SOL    HW276457   7.388   7.644   5.072
24854SOL     OW76458   8.914  11.674   8.595
24854SOL    HW176459   8.959  11.597   8.630
24854SOL    HW276460   8.903  11.732   8.670
24855SOL     OW76461   0.117  11.949   9.188
24855SOL    HW176462   0.082  11.965   9.101
24855SOL    HW276463   0.212  11.945   9.176
24856SOL     OW76464  11.343  10.866   0.533
24856SOL    HW176465  11.279  10.828   0.593
24856SOL    HW276466  11.352  10.801   0.463
24857SOL     OW76467   4.147  12.087  12.507
24857SOL    HW176468   4.098  12.014  12.467
24857SOL    HW276469   4.127  12.081  12.600
24858SOL     OW76470   9.157   7.454   8.078
24858SOL    HW176471   9.089   7.461   8.012
24858SOL    HW276472   9.144   7.368   8.118
24859SOL     OW76473   5.511   5.278  13.787
24859SOL    HW176474   5.568   5.313  13.719
24859SOL    HW276475   5.512   5.346  13.855
24860SOL     OW76476  12.061  10.939  10.580
24860SOL    HW176477  12.140  10.987  10.557
24860SOL    HW276478  11.991  11.004  10.577
24861SOL     OW76479  13.222   5.145   7.755
24861SOL    HW176480  13.163   5.105   7.819
24861SOL    HW276481  13.303   5.163   7.804
24862SOL     OW76482   3.954   5.723   5.537
24862SOL    HW176483   3.920   5.711   5.449
24862SOL    HW276484   3.905   5.798   5.571
24863SOL     OW76485   4.542   5.437   0.625
24863SOL    HW176486   4.494   5.355   0.617
24863SOL    HW276487   4.565   5.461   0.536
24864SOL     OW76488   1.496   8.953  13.423
24864SOL    HW176489   1.435   8.974  13.494
24864SOL    HW276490   1.564   8.900  13.466
24865SOL     OW76491   0.982   0.899   3.190
24865SOL    HW176492   1.043   0.852   3.248
24865SOL    HW276493   0.996   0.859   3.104
24866SOL     OW76494   1.048   4.632   0.041
24866SOL    HW176495   0.996   4.658  14.843
24866SOL    HW276496   1.108   4.565   0.009
24867SOL     OW76497  12.871  12.178   1.073
24867SOL    HW176498  12.893  12.267   1.100
24867SOL    HW276499  12.852  12.133   1.155
24868SOL     OW76500   9.546  14.354  13.492
24868SOL    HW176501   9.545  14.355  13.587
24868SOL    HW276502   9.619  14.411  13.468
24869SOL     OW76503   9.725  10.963  11.107
24869SOL    HW176504   9.643  10.918  11.122
24869SOL    HW276505   9.781  10.938  11.181
24870SOL     OW76506  10.487  10.035  14.403
24870SOL    HW176507  10.541  10.078  14.470
24870SOL    HW276508  10.542  10.037  14.325
24871SOL     OW76509   8.526   5.701   8.534
24871SOL    HW176510   8.577   5.777   8.563
24871SOL    HW276511   8.567   5.675   8.451
24872SOL     OW76512  13.015   2.209   2.632
24872SOL    HW176513  12.924   2.186   2.614
24872SOL    HW276514  13.021   2.207   2.728
24873SOL     OW76515   4.272  11.280   3.640
24873SOL    HW176516   4.217  11.203   3.625
24873SOL    HW276517   4.214  11.354   3.621
24874SOL     OW76518  13.213   5.935   6.438
24874SOL    HW176519  13.129   5.949   6.483
24874SOL    HW276520  13.189   5.905   6.350
24875SOL     OW76521   7.884   8.275   6.931
24875SOL    HW176522   7.957   8.337   6.928
24875SOL    HW276523   7.890   8.227   6.848
24876SOL     OW76524  10.846  13.066   1.640
24876SOL    HW176525  10.859  12.971   1.633
24876SOL    HW276526  10.793  13.076   1.719
24877SOL     OW76527   2.155  11.984   5.320
24877SOL    HW176528   2.179  12.071   5.288
24877SOL    HW276529   2.216  11.967   5.391
24878SOL     OW76530   3.603  11.956  10.003
24878SOL    HW176531   3.553  11.999  10.072
24878SOL    HW276532   3.652  11.887  10.047
24879SOL     OW76533  10.482   5.885  14.034
24879SOL    HW176534  10.468   5.805  13.983
24879SOL    HW276535  10.577   5.892  14.043
24880SOL     OW76536   9.193   6.651  12.871
24880SOL    HW176537   9.289   6.658  12.871
24880SOL    HW276538   9.172   6.615  12.957
24881SOL     OW76539   1.784  11.426   0.424
24881SOL    HW176540   1.878  11.423   0.438
24881SOL    HW276541   1.751  11.344   0.461
24882SOL     OW76542   4.306   4.437  13.255
24882SOL    HW176543   4.285   4.461  13.165
24882SOL    HW276544   4.379   4.375  13.247
24883SOL     OW76545   8.930  10.693  10.062
24883SOL    HW176546   9.005  10.735  10.104
24883SOL    HW276547   8.920  10.739   9.979
24884SOL     OW76548   6.230   2.672   7.263
24884SOL    HW176549   6.317   2.711   7.261
24884SOL    HW276550   6.205   2.666   7.171
24885SOL     OW76551   2.280   8.399  14.642
24885SOL    HW176552   2.190   8.372  14.622
24885SOL    HW276553   2.277   8.494  14.644
24886SOL     OW76554   3.271   1.839  14.620
24886SOL    HW176555   3.231   1.893  14.552
24886SOL    HW276556   3.203   1.827  14.685
24887SOL     OW76557   8.583   9.067  11.756
24887SOL    HW176558   8.603   9.026  11.840
24887SOL    HW276559   8.491   9.045  11.740
24888SOL     OW76560  14.415  10.876   9.559
24888SOL    HW176561  14.369  10.802   9.599
24888SOL    HW276562  14.469  10.911   9.630
24889SOL     OW76563   4.406   6.754   0.694
24889SOL    HW176564   4.392   6.662   0.671
24889SOL    HW276565   4.449   6.751   0.780
24890SOL     OW76566  14.161  13.877   6.090
24890SOL    HW176567  14.220  13.847   6.020
24890SOL    HW276568  14.152  13.801   6.147
24891SOL     OW76569   9.472  13.984  10.416
24891SOL    HW176570   9.441  14.046  10.482
24891SOL    HW276571   9.565  14.003  10.407
24892SOL     OW76572  14.297  12.252   1.339
24892SOL    HW176573  14.223  12.309   1.317
24892SOL    HW276574  14.257  12.179   1.386
24893SOL     OW76575   6.116   1.982   0.225
24893SOL    HW176576   6.049   1.940   0.280
24893SOL    HW276577   6.165   2.037   0.286
24894SOL     OW76578  10.315   4.095  11.028
24894SOL    HW176579  10.306   4.018  11.085
24894SOL    HW276580  10.232   4.141  11.036
24895SOL     OW76581   8.771   9.023  13.563
24895SOL    HW176582   8.761   9.088  13.632
24895SOL    HW276583   8.693   8.968  13.569
24896SOL     OW76584   3.962   0.491  12.513
24896SOL    HW176585   3.908   0.514  12.437
24896SOL    HW276586   3.986   0.400  12.499
24897SOL     OW76587   1.488   7.189   6.045
24897SOL    HW176588   1.468   7.121   5.980
24897SOL    HW276589   1.439   7.163   6.123
24898SOL     OW76590   3.172   9.701   5.102
24898SOL    HW176591   3.235   9.678   5.034
24898SOL    HW276592   3.091   9.719   5.054
24899SOL     OW76593  13.272  14.527   5.962
24899SOL    HW176594  13.296  14.523   5.869
24899SOL    HW276595  13.346  14.571   6.004
24900SOL     OW76596   1.348  12.263   6.203
24900SOL    HW176597   1.330  12.178   6.164
24900SOL    HW276598   1.262  12.300   6.223
24901SOL     OW76599   7.571  11.594   4.598
24901SOL    HW176600   7.578  11.577   4.504
24901SOL    HW276601   7.627  11.528   4.638
24902SOL     OW76602   7.203   5.505   8.169
24902SOL    HW176603   7.145   5.579   8.182
24902SOL    HW276604   7.290   5.539   8.189
24903SOL     OW76605   7.768   8.923   2.829
24903SOL    HW176606   7.842   8.928   2.769
24903SOL    HW276607   7.714   8.999   2.807
24904SOL     OW76608   1.434  10.606   9.051
24904SOL    HW176609   1.445  10.546   8.977
24904SOL    HW276610   1.520  10.646   9.063
24905SOL     OW76611  14.847   5.243   1.284
24905SOL    HW176612   0.042   5.238   1.346
24905SOL    HW276613  14.797   5.320   1.310
24906SOL     OW76614  11.121  11.825   5.806
24906SOL    HW176615  11.082  11.745   5.841
24906SOL    HW276616  11.216  11.809   5.810
24907SOL     OW76617   8.619   9.611   2.519
24907SOL    HW176618   8.647   9.573   2.602
24907SOL    HW276619   8.670   9.691   2.510
24908SOL     OW76620  11.759   0.885  11.927
24908SOL    HW176621  11.666   0.908  11.929
24908SOL    HW276622  11.780   0.874  11.834
24909SOL     OW76623  10.048   2.933   4.051
24909SOL    HW176624  10.084   2.899   3.970
24909SOL    HW276625  10.095   3.015   4.067
24910SOL     OW76626   0.950  14.357   5.488
24910SOL    HW176627   0.956  14.349   5.583
24910SOL    HW276628   0.999  14.282   5.454
24911SOL     OW76629   7.307   6.020   1.261
24911SOL    HW176630   7.269   6.077   1.328
24911SOL    HW276631   7.401   6.026   1.276
24912SOL     OW76632   9.024   5.517   6.191
24912SOL    HW176633   9.029   5.421   6.182
24912SOL    HW276634   9.074   5.550   6.116
24913SOL     OW76635  12.341   7.249   6.826
24913SOL    HW176636  12.265   7.302   6.851
24913SOL    HW276637  12.375   7.291   6.747
24914SOL     OW76638   9.166   8.750   4.060
24914SOL    HW176639   9.125   8.819   4.113
24914SOL    HW276640   9.260   8.771   4.062
24915SOL     OW76641  12.268  12.258  10.592
24915SOL    HW176642  12.225  12.335  10.630
24915SOL    HW276643  12.214  12.184  10.622
24916SOL     OW76644  11.242  10.882  13.089
24916SOL    HW176645  11.264  10.821  13.018
24916SOL    HW276646  11.212  10.825  13.160
24917SOL     OW76647  11.758  12.977   9.437
24917SOL    HW176648  11.793  12.917   9.503
24917SOL    HW276649  11.705  12.921   9.380
24918SOL     OW76650  13.189  13.560  14.687
24918SOL    HW176651  13.095  13.572  14.704
24918SOL    HW276652  13.205  13.468  14.707
24919SOL     OW76653   4.059   0.076   9.961
24919SOL    HW176654   4.060   0.055  10.055
24919SOL    HW276655   3.980   0.034   9.928
24920SOL     OW76656   9.488   8.494  11.246
24920SOL    HW176657   9.460   8.460  11.331
24920SOL    HW276658   9.433   8.448  11.183
24921SOL     OW76659   5.875  10.499   4.217
24921SOL    HW176660   5.833  10.585   4.214
24921SOL    HW276661   5.832  10.454   4.290
24922SOL     OW76662   2.967   1.101   5.601
24922SOL    HW176663   2.879   1.074   5.625
24922SOL    HW276664   2.994   1.160   5.671
24923SOL     OW76665   6.130   4.253  11.877
24923SOL    HW176666   6.071   4.207  11.936
24923SOL    HW276667   6.179   4.312  11.934
24924SOL     OW76668   9.345  14.059  12.292
24924SOL    HW176669   9.317  13.983  12.242
24924SOL    HW276670   9.308  14.046  12.379
24925SOL     OW76671  12.721   4.130   4.050
24925SOL    HW176672  12.647   4.142   4.110
24925SOL    HW276673  12.749   4.039   4.065
24926SOL     OW76674   2.402   1.715   0.092
24926SOL    HW176675   2.410   1.679   0.180
24926SOL    HW276676   2.310   1.743   0.085
24927SOL     OW76677   8.994  13.336   8.486
24927SOL    HW176678   8.941  13.335   8.566
24927SOL    HW276679   8.969  13.256   8.440
24928SOL     OW76680   5.610   1.710   8.425
24928SOL    HW176681   5.700   1.741   8.435
24928SOL    HW276682   5.556   1.788   8.436
24929SOL     OW76683  12.159   1.337   5.883
24929SOL    HW176684  12.141   1.360   5.792
24929SOL    HW276685  12.247   1.299   5.881
24930SOL     OW76686  13.446   2.851   0.753
24930SOL    HW176687  13.496   2.892   0.823
24930SOL    HW276688  13.408   2.773   0.793
24931SOL     OW76689   6.145   2.727  11.847
24931SOL    HW176690   6.077   2.665  11.874
24931SOL    HW276691   6.200   2.738  11.924
24932SOL     OW76692   4.275  14.089   9.570
24932SOL    HW176693   4.332  14.022   9.533
24932SOL    HW276694   4.206  14.101   9.505
24933SOL     OW76695   1.439  11.682   8.377
24933SOL    HW176696   1.379  11.730   8.435
24933SOL    HW276697   1.424  11.719   8.290
24934SOL     OW76698   5.153   7.387  11.048
24934SOL    HW176699   5.147   7.477  11.017
24934SOL    HW276700   5.099   7.386  11.128
24935SOL     OW76701  14.074   4.747  13.388
24935SOL    HW176702  14.002   4.731  13.326
24935SOL    HW276703  14.150   4.705  13.347
24936SOL     OW76704  13.348   4.092  13.273
24936SOL    HW176705  13.297   4.115  13.195
24936SOL    HW276706  13.394   4.173  13.295
24937SOL     OW76707   1.756   6.843   6.386
24937SOL    HW176708   1.843   6.804   6.386
24937SOL    HW276709   1.771   6.933   6.357
24938SOL     OW76710  10.192  10.503  13.234
24938SOL    HW176711  10.099  10.501  13.257
24938SOL    HW276712  10.217  10.410  13.228
24939SOL     OW76713   9.041  10.879  10.255
24939SOL    HW176714   8.978  10.817  10.294
24939SOL    HW276715   9.123  10.830  10.252
24940SOL     OW76716  10.260   3.766   5.789
24940SOL    HW176717  10.309   3.849   5.785
24940SOL    HW276718  10.311   3.706   5.735
24941SOL     OW76719   2.450  11.471  10.201
24941SOL    HW176720   2.544  11.468  10.222
24941SOL    HW276721   2.409  11.416  10.267
24942SOL     OW76722   4.033   1.092   5.277
24942SOL    HW176723   3.966   1.150   5.240
24942SOL    HW276724   4.035   1.017   5.218
24943SOL     OW76725   7.323   1.533   6.352
24943SOL    HW176726   7.308   1.534   6.447
24943SOL    HW276727   7.245   1.575   6.315
24944SOL     OW76728  13.539   1.052   0.009
24944SOL    HW176729  13.575   1.102  14.812
24944SOL    HW276730  13.597   0.976   0.016
24945SOL     OW76731   8.545   7.639   0.709
24945SOL    HW176732   8.528   7.587   0.787
24945SOL    HW276733   8.482   7.606   0.644
24946SOL     OW76734   9.083   1.319  12.953
24946SOL    HW176735   9.004   1.370  12.973
24946SOL    HW276736   9.064   1.232  12.988
24947SOL     OW76737   3.473   2.662   9.376
24947SOL    HW176738   3.457   2.714   9.454
24947SOL    HW276739   3.387   2.649   9.336
24948SOL     OW76740   9.104   3.221   2.793
24948SOL    HW176741   9.189   3.225   2.836
24948SOL    HW276742   9.121   3.237   2.701
24949SOL     OW76743   8.328  11.287   2.070
24949SOL    HW176744   8.277  11.344   2.013
24949SOL    HW276745   8.419  11.311   2.053
24950SOL     OW76746  12.455  13.194   3.252
24950SOL    HW176747  12.385  13.251   3.283
24950SOL    HW276748  12.464  13.128   3.320
24951SOL     OW76749   4.910  12.456   0.594
24951SOL    HW176750   4.937  12.537   0.551
24951SOL    HW276751   4.887  12.397   0.522
24952SOL     OW76752   0.530   5.035   7.960
24952SOL    HW176753   0.549   4.944   7.937
24952SOL    HW276754   0.452   5.030   8.015
24953SOL     OW76755  12.979   9.382   6.423
24953SOL    HW176756  12.946   9.369   6.334
24953SOL    HW276757  12.965   9.297   6.466
24954SOL     OW76758   8.575   7.313   7.178
24954SOL    HW176759   8.656   7.361   7.161
24954SOL    HW276760   8.510   7.356   7.123
24955SOL     OW76761  14.635   5.132   4.454
24955SOL    HW176762  14.624   5.189   4.378
24955SOL    HW276763  14.729   5.123   4.465
24956SOL     OW76764  13.764   6.814  11.608
24956SOL    HW176765  13.799   6.882  11.666
24956SOL    HW276766  13.735   6.862  11.530
24957SOL     OW76767   2.609  14.656   5.018
24957SOL    HW176768   2.632  14.639   4.926
24957SOL    HW276769   2.691  14.687   5.057
24958SOL     OW76770   0.591   8.617   1.294
24958SOL    HW176771   0.548   8.635   1.210
24958SOL    HW276772   0.599   8.522   1.297
24959SOL     OW76773  12.035   4.761   1.907
24959SOL    HW176774  11.999   4.684   1.863
24959SOL    HW276775  12.089   4.726   1.977
24960SOL     OW76776  11.703   2.585  14.579
24960SOL    HW176777  11.623   2.540  14.603
24960SOL    HW276778  11.748   2.601  14.662
24961SOL     OW76779  12.305   3.021  14.105
24961SOL    HW176780  12.265   2.965  14.038
24961SOL    HW276781  12.281   3.110  14.079
24962SOL     OW76782   5.213  14.687   8.988
24962SOL    HW176783   5.296  14.705   8.943
24962SOL    HW276784   5.236  14.686   9.081
24963SOL     OW76785  14.461   5.163   3.467
24963SOL    HW176786  14.389   5.109   3.434
24963SOL    HW276787  14.426   5.206   3.545
24964SOL     OW76788  10.523   0.508   1.075
24964SOL    HW176789  10.431   0.496   1.098
24964SOL    HW276790  10.571   0.470   1.148
24965SOL     OW76791   3.864   4.194   8.493
24965SOL    HW176792   3.895   4.157   8.576
24965SOL    HW276793   3.893   4.132   8.426
24966SOL     OW76794  10.178   7.643   3.199
24966SOL    HW176795  10.113   7.638   3.128
24966SOL    HW276796  10.232   7.565   3.186
24967SOL     OW76797   0.179   7.594   9.212
24967SOL    HW176798   0.125   7.607   9.290
24967SOL    HW276799   0.180   7.679   9.168
24968SOL     OW76800   5.717  11.739   6.863
24968SOL    HW176801   5.683  11.682   6.931
24968SOL    HW276802   5.812  11.726   6.866
24969SOL     OW76803   7.209  12.110  14.515
24969SOL    HW176804   7.148  12.037  14.504
24969SOL    HW276805   7.159  12.176  14.563
24970SOL     OW76806   7.393   3.867   1.928
24970SOL    HW176807   7.438   3.811   1.991
24970SOL    HW276808   7.318   3.815   1.900
24971SOL     OW76809   1.362   3.355   8.531
24971SOL    HW176810   1.403   3.401   8.604
24971SOL    HW276811   1.428   3.293   8.501
24972SOL     OW76812   1.259  13.858   6.772
24972SOL    HW176813   1.197  13.919   6.732
24972SOL    HW276814   1.330  13.851   6.708
24973SOL     OW76815  11.963   5.224   1.512
24973SOL    HW176816  11.923   5.194   1.594
24973SOL    HW276817  11.999   5.145   1.472
24974SOL     OW76818   7.461   0.604   5.492
24974SOL    HW176819   7.424   0.671   5.549
24974SOL    HW276820   7.533   0.647   5.447
24975SOL     OW76821   1.978   4.020   0.452
24975SOL    HW176822   2.025   3.937   0.458
24975SOL    HW276823   1.969   4.049   0.543
24976SOL     OW76824   6.640   9.191  12.032
24976SOL    HW176825   6.677   9.124  12.090
24976SOL    HW276826   6.577   9.144  11.979
24977SOL     OW76827   7.744  14.807   2.746
24977SOL    HW176828   7.745   0.025   2.751
24977SOL    HW276829   7.654  14.783   2.769
24978SOL     OW76830   4.432  10.883   0.549
24978SOL    HW176831   4.523  10.869   0.523
24978SOL    HW276832   4.437  10.940   0.626
24979SOL     OW76833  12.381   8.286  12.179
24979SOL    HW176834  12.460   8.327  12.144
24979SOL    HW276835  12.309   8.329  12.133
24980SOL     OW76836   5.700   0.326   8.134
24980SOL    HW176837   5.708   0.238   8.098
24980SOL    HW276838   5.712   0.315   8.229
24981SOL     OW76839  12.250   7.254  13.626
24981SOL    HW176840  12.329   7.307  13.624
24981SOL    HW276841  12.196   7.288  13.554
24982SOL     OW76842  12.928  11.417   2.597
24982SOL    HW176843  13.000  11.368   2.557
24982SOL    HW276844  12.936  11.505   2.561
24983SOL     OW76845   4.479   0.770  14.721
24983SOL    HW176846   4.459   0.846  14.777
24983SOL    HW276847   4.439   0.792  14.637
24984SOL     OW76848   3.313  14.249   4.333
24984SOL    HW176849   3.357  14.244   4.418
24984SOL    HW276850   3.223  14.275   4.355
24985SOL     OW76851  13.156   0.087   0.385
24985SOL    HW176852  13.063   0.103   0.371
24985SOL    HW276853  13.175   0.127   0.470
24986SOL     OW76854   6.426  11.024  11.862
24986SOL    HW176855   6.519  11.002  11.874
24986SOL    HW276856   6.383  10.987  11.940
24987SOL     OW76857  13.161   0.872   2.858
24987SOL    HW176858  13.244   0.833   2.831
24987SOL    HW276859  13.165   0.875   2.953
24988SOL     OW76860   7.569  14.043   7.347
24988SOL    HW176861   7.595  14.133   7.325
24988SOL    HW276862   7.485  14.053   7.393
24989SOL     OW76863   8.204  10.749   3.074
24989SOL    HW176864   8.130  10.748   3.134
24989SOL    HW276865   8.173  10.799   2.999
24990SOL     OW76866   7.050  13.112  13.288
24990SOL    HW176867   7.145  13.101  13.292
24990SOL    HW276868   7.016  13.024  13.305
24991SOL     OW76869   6.166  10.864  11.906
24991SOL    HW176870   6.154  10.827  11.818
24991SOL    HW276871   6.252  10.833  11.934
24992SOL     OW76872  12.297   4.809  12.398
24992SOL    HW176873  12.257   4.862  12.467
24992SOL    HW276874  12.307   4.870  12.324
24993SOL     OW76875   5.493  14.539   4.399
24993SOL    HW176876   5.398  14.553   4.406
24993SOL    HW276877   5.522  14.605   4.336
24994SOL     OW76878   6.945  10.739   9.187
24994SOL    HW176879   6.996  10.796   9.129
24994SOL    HW276880   6.962  10.773   9.275
24995SOL     OW76881   3.140   5.973   9.092
24995SOL    HW176882   3.059   6.000   9.137
24995SOL    HW276883   3.125   5.997   9.000
24996SOL     OW76884   8.681   9.847   4.446
24996SOL    HW176885   8.687   9.873   4.353
24996SOL    HW276886   8.639   9.761   4.444
24997SOL     OW76887   4.262   0.102   1.642
24997SOL    HW176888   4.242   0.187   1.682
24997SOL    HW276889   4.179   0.074   1.602
24998SOL     OW76890   2.523   9.416  12.820
24998SOL    HW176891   2.473   9.488  12.782
24998SOL    HW276892   2.519   9.346  12.755
24999SOL     OW76893   1.801  14.480   6.344
24999SOL    HW176894   1.859  14.547   6.308
24999SOL    HW276895   1.725  14.480   6.285
25000SOL     OW76896  10.256  12.211  11.736
25000SOL    HW176897  10.226  12.274  11.670
25000SOL    HW276898  10.339  12.248  11.768
25001SOL     OW76899   1.622  11.767  12.426
25001SOL    HW176900   1.689  11.707  12.460
25001SOL    HW276901   1.539  11.723  12.445
25002SOL     OW76902  13.128   0.157   2.825
25002SOL    HW176903  13.078   0.184   2.748
25002SOL    HW276904  13.100   0.216   2.894
25003SOL     OW76905   3.374   0.397   3.725
25003SOL    HW176906   3.346   0.441   3.644
25003SOL    HW276907   3.293   0.383   3.774
25004SOL     OW76908  12.705  10.778   6.242
25004SOL    HW176909  12.737  10.687   6.241
25004SOL    HW276910  12.778  10.828   6.281
25005SOL     OW76911   9.960  10.593   0.800
25005SOL    HW176912   9.897  10.580   0.729
25005SOL    HW276913   9.907  10.607   0.877
25006SOL     OW76914   0.694   2.224   8.775
25006SOL    HW176915   0.631   2.243   8.705
25006SOL    HW276916   0.744   2.305   8.785
25007SOL     OW76917   1.078   1.226   9.759
25007SOL    HW176918   1.014   1.161   9.788
25007SOL    HW276919   1.163   1.184   9.774
25008SOL     OW76920   1.749   5.512   9.279
25008SOL    HW176921   1.698   5.557   9.347
25008SOL    HW276922   1.828   5.565   9.269
25009SOL     OW76923   1.101   0.875   5.403
25009SOL    HW176924   1.015   0.878   5.362
25009SOL    HW276925   1.124   0.966   5.417
25010SOL     OW76926   6.591   1.535  14.829
25010SOL    HW176927   6.589   1.442  14.805
25010SOL    HW276928   6.585   1.535   0.047
25011SOL     OW76929  13.494   9.675   0.608
25011SOL    HW176930  13.487   9.606   0.673
25011SOL    HW276931  13.449   9.641   0.531
25012SOL     OW76932   1.105   3.892  10.641
25012SOL    HW176933   1.133   3.813  10.687
25012SOL    HW276934   1.010   3.890  10.646
25013SOL     OW76935  14.529  13.532   7.348
25013SOL    HW176936  14.569  13.524   7.261
25013SOL    HW276937  14.595  13.496   7.408
25014SOL     OW76938  10.653   6.646   5.603
25014SOL    HW176939  10.610   6.681   5.681
25014SOL    HW276940  10.662   6.553   5.620
25015SOL     OW76941  12.974   7.645  13.049
25015SOL    HW176942  12.918   7.713  13.012
25015SOL    HW276943  13.053   7.692  13.078
25016SOL     OW76944   0.414   8.646   5.825
25016SOL    HW176945   0.417   8.550   5.820
25016SOL    HW276946   0.344   8.671   5.765
25017SOL     OW76947  13.396   0.267   6.015
25017SOL    HW176948  13.485   0.284   6.046
25017SOL    HW276949  13.401   0.180   5.976
25018SOL     OW76950  14.431   1.312   5.215
25018SOL    HW176951  14.507   1.350   5.260
25018SOL    HW276952  14.408   1.377   5.148
25019SOL     OW76953   7.753  12.009   1.693
25019SOL    HW176954   7.730  11.947   1.623
25019SOL    HW276955   7.761  12.093   1.649
25020SOL     OW76956  10.084   6.771   2.745
25020SOL    HW176957  10.051   6.812   2.824
25020SOL    HW276958  10.179   6.785   2.749
25021SOL     OW76959   0.845   2.978  13.111
25021SOL    HW176960   0.842   2.883  13.099
25021SOL    HW276961   0.864   2.990  13.204
25022SOL     OW76962   3.246   2.681   6.898
25022SOL    HW176963   3.340   2.671   6.915
25022SOL    HW276964   3.207   2.601   6.933
25023SOL     OW76965  13.004   0.080   8.785
25023SOL    HW176966  12.990  14.875   8.830
25023SOL    HW276967  13.091   0.108   8.812
25024SOL     OW76968   6.769  13.739  12.897
25024SOL    HW176969   6.743  13.668  12.839
25024SOL    HW276970   6.852  13.770  12.861
25025SOL     OW76971  14.875   9.238   8.885
25025SOL    HW176972  14.780   9.236   8.873
25025SOL    HW276973   0.030   9.162   8.837
25026SOL     OW76974   0.387   1.837  12.382
25026SOL    HW176975   0.410   1.874  12.467
25026SOL    HW276976   0.354   1.912  12.332
25027SOL     OW76977   6.103   7.279   8.289
25027SOL    HW176978   6.096   7.323   8.374
25027SOL    HW276979   6.084   7.348   8.225
25028SOL     OW76980  12.384   8.268   2.797
25028SOL    HW176981  12.433   8.348   2.819
25028SOL    HW276982  12.447   8.197   2.812
25029SOL     OW76983   0.032  11.779  14.032
25029SOL    HW176984   0.073  11.786  13.946
25029SOL    HW276985   0.047  11.688  14.059
25030SOL     OW76986   8.400   2.629  13.769
25030SOL    HW176987   8.468   2.621  13.836
25030SOL    HW276988   8.321   2.597  13.812
25031SOL     OW76989   9.829   6.092   4.098
25031SOL    HW176990   9.890   6.160   4.127
25031SOL    HW276991   9.825   6.030   4.170
25032SOL     OW76992  12.372   4.168   5.890
25032SOL    HW176993  12.372   4.131   5.979
25032SOL    HW276994  12.375   4.262   5.904
25033SOL     OW76995   3.048   1.179   0.735
25033SOL    HW176996   2.973   1.239   0.730
25033SOL    HW276997   3.040   1.125   0.657
25034SOL     OW76998   6.784   9.396  10.274
25034SOL    HW176999   6.857   9.349  10.234
25034SOL    HW277000   6.783   9.366  10.364
25035SOL     OW77001   9.858   3.330   4.168
25035SOL    HW177002   9.832   3.422   4.173
25035SOL    HW277003   9.891   3.310   4.256
25036SOL     OW77004   1.011   6.078   3.703
25036SOL    HW177005   1.065   6.132   3.646
25036SOL    HW277006   1.049   6.087   3.790
25037SOL     OW77007  12.331   2.438   0.680
25037SOL    HW177008  12.382   2.374   0.730
25037SOL    HW277009  12.328   2.401   0.591
25038SOL     OW77010   2.716   8.639   7.159
25038SOL    HW177011   2.660   8.712   7.131
25038SOL    HW277012   2.786   8.637   7.094
25039SOL     OW77013  10.477  10.375   2.942
25039SOL    HW177014  10.527  10.296   2.965
25039SOL    HW277015  10.425  10.349   2.866
25040SOL     OW77016   7.647   7.805  10.130
25040SOL    HW177017   7.646   7.744  10.204
25040SOL    HW277018   7.605   7.757  10.059
25041SOL     OW77019   0.177   4.540  13.280
25041SOL    HW177020   0.245   4.489  13.236
25041SOL    HW277021   0.111   4.556  13.212
25042SOL     OW77022  10.330   1.528   6.527
25042SOL    HW177023  10.247   1.531   6.574
25042SOL    HW277024  10.311   1.566   6.441
25043SOL     OW77025   1.738   0.834   4.554
25043SOL    HW177026   1.710   0.754   4.599
25043SOL    HW277027   1.787   0.802   4.478
25044SOL     OW77028  13.586   0.038  11.570
25044SOL    HW177029  13.592  14.865  11.651
25044SOL    HW277030  13.509   0.094  11.582
25045SOL     OW77031   3.516   6.000   8.266
25045SOL    HW177032   3.485   6.007   8.356
25045SOL    HW277033   3.457   6.057   8.216
25046SOL     OW77034  10.574   0.473   6.418
25046SOL    HW177035  10.655   0.425   6.437
25046SOL    HW277036  10.524   0.468   6.499
25047SOL     OW77037  11.992  14.162  12.856
25047SOL    HW177038  11.966  14.254  12.850
25047SOL    HW277039  11.978  14.139  12.947
25048SOL     OW77040  11.180   6.979   8.940
25048SOL    HW177041  11.192   6.929   8.859
25048SOL    HW277042  11.211   6.920   9.009
25049SOL     OW77043  11.082   4.749   9.196
25049SOL    HW177044  11.064   4.724   9.286
25049SOL    HW277045  11.177   4.763   9.193
25050SOL     OW77046   5.701   8.915   9.539
25050SOL    HW177047   5.634   8.846   9.546
25050SOL    HW277048   5.746   8.896   9.456
25051SOL     OW77049  14.247  12.178   3.837
25051SOL    HW177050  14.199  12.201   3.917
25051SOL    HW277051  14.334  12.153   3.868
25052SOL     OW77052   3.315  12.569   6.944
25052SOL    HW177053   3.355  12.494   6.901
25052SOL    HW277054   3.376  12.592   7.014
25053SOL     OW77055   6.919   2.855  14.122
25053SOL    HW177056   6.883   2.849  14.033
25053SOL    HW277057   6.851   2.898  14.173
25054SOL     OW77058   6.355   6.790   9.896
25054SOL    HW177059   6.317   6.748   9.818
25054SOL    HW277060   6.447   6.766   9.893
25055SOL     OW77061   4.195  10.347   3.434
25055SOL    HW177062   4.147  10.323   3.355
25055SOL    HW277063   4.148  10.424   3.467
25056SOL     OW77064   9.675   9.684   9.648
25056SOL    HW177065   9.626   9.715   9.572
25056SOL    HW277066   9.648   9.593   9.659
25057SOL     OW77067  11.157   0.105  12.037
25057SOL    HW177068  11.143   0.010  12.026
25057SOL    HW277069  11.146   0.141  11.949
25058SOL     OW77070   1.140   9.796   7.374
25058SOL    HW177071   1.220   9.766   7.331
25058SOL    HW277072   1.070   9.771   7.314
25059SOL     OW77073  14.124   8.473   2.129
25059SOL    HW177074  14.044   8.526   2.130
25059SOL    HW277075  14.193   8.534   2.103
25060SOL     OW77076   1.130  13.583   5.383
25060SOL    HW177077   1.138  13.604   5.476
25060SOL    HW277078   1.095  13.494   5.380
25061SOL     OW77079  11.955   9.129  13.060
25061SOL    HW177080  11.993   9.099  12.977
25061SOL    HW277081  12.011   9.089  13.127
25062SOL     OW77082  12.758   3.273   0.467
25062SOL    HW177083  12.766   3.367   0.455
25062SOL    HW277084  12.839   3.246   0.510
25063SOL     OW77085  10.102   8.981  12.663
25063SOL    HW177086  10.104   9.034  12.584
25063SOL    HW277087  10.184   9.001  12.708
25064SOL     OW77088   9.382   8.606   7.734
25064SOL    HW177089   9.332   8.525   7.743
25064SOL    HW277090   9.323   8.674   7.767
25065SOL     OW77091   9.647   0.547   8.243
25065SOL    HW177092   9.592   0.534   8.320
25065SOL    HW277093   9.589   0.530   8.169
25066SOL     OW77094  13.470  10.729   5.038
25066SOL    HW177095  13.393  10.727   5.096
25066SOL    HW277096  13.536  10.776   5.089
25067SOL     OW77097   9.686  14.073  11.863
25067SOL    HW177098   9.682  13.980  11.840
25067SOL    HW277099   9.768  14.104  11.826
25068SOL     OW77100  11.982   8.249   5.040
25068SOL    HW177101  11.922   8.315   5.077
25068SOL    HW277102  12.067   8.271   5.078
25069SOL     OW77103  10.618   5.958   1.573
25069SOL    HW177104  10.543   6.009   1.541
25069SOL    HW277105  10.581   5.872   1.593
25070SOL     OW77106   8.459   5.406   2.531
25070SOL    HW177107   8.489   5.443   2.448
25070SOL    HW277108   8.430   5.482   2.582
25071SOL     OW77109   9.206   6.968  13.718
25071SOL    HW177110   9.130   7.024  13.703
25071SOL    HW277111   9.251   6.967  13.634
25072SOL     OW77112   1.834   5.724   8.041
25072SOL    HW177113   1.805   5.811   8.013
25072SOL    HW277114   1.898   5.698   7.974
25073SOL     OW77115   7.819  13.304   2.165
25073SOL    HW177116   7.804  13.212   2.142
25073SOL    HW277117   7.785  13.312   2.254
25074SOL     OW77118   2.487   5.931  11.039
25074SOL    HW177119   2.573   5.919  10.999
25074SOL    HW277120   2.496   6.011  11.091
25075SOL     OW77121   8.466   7.854   9.293
25075SOL    HW177122   8.496   7.859   9.202
25075SOL    HW277123   8.465   7.945   9.323
25076SOL     OW77124   3.651   4.537  11.388
25076SOL    HW177125   3.728   4.547  11.444
25076SOL    HW277126   3.661   4.450  11.349
25077SOL     OW77127   8.379  12.747  11.288
25077SOL    HW177128   8.353  12.820  11.344
25077SOL    HW277129   8.440  12.785  11.225
25078SOL     OW77130   6.440  13.667   6.196
25078SOL    HW177131   6.483  13.733   6.142
25078SOL    HW277132   6.392  13.612   6.133
25079SOL     OW77133   3.107   5.111   7.883
25079SOL    HW177134   3.034   5.051   7.874
25079SOL    HW277135   3.167   5.087   7.812
25080SOL     OW77136  11.094  12.592   1.841
25080SOL    HW177137  11.020  12.606   1.783
25080SOL    HW277138  11.150  12.669   1.827
25081SOL     OW77139   1.698   7.298  13.450
25081SOL    HW177140   1.789   7.282  13.474
25081SOL    HW277141   1.684   7.246  13.371
25082SOL     OW77142   6.128   5.248  10.119
25082SOL    HW177143   6.171   5.331  10.098
25082SOL    HW277144   6.138   5.239  10.214
25083SOL     OW77145   5.788   7.443   5.202
25083SOL    HW177146   5.849   7.493   5.257
25083SOL    HW277147   5.702   7.466   5.236
25084SOL     OW77148   3.574   8.846   1.182
25084SOL    HW177149   3.646   8.850   1.245
25084SOL    HW277150   3.593   8.915   1.119
25085SOL     OW77151   2.083   2.041   6.177
25085SOL    HW177152   2.087   2.123   6.227
25085SOL    HW277153   2.005   1.996   6.211
25086SOL     OW77154  11.186   2.407  12.022
25086SOL    HW177155  11.174   2.410  12.117
25086SOL    HW277156  11.281   2.408  12.011
25087SOL     OW77157   5.948   6.108  11.551
25087SOL    HW177158   5.922   6.033  11.497
25087SOL    HW277159   6.021   6.148  11.504
25088SOL     OW77160  11.761   5.333   0.767
25088SOL    HW177161  11.714   5.325   0.850
25088SOL    HW277162  11.764   5.244   0.733
25089SOL     OW77163  14.289   7.564   7.520
25089SOL    HW177164  14.250   7.651   7.529
25089SOL    HW277165  14.340   7.569   7.439
25090SOL     OW77166  10.237   5.620   8.015
25090SOL    HW177167  10.222   5.579   7.930
25090SOL    HW277168  10.299   5.562   8.059
25091SOL     OW77169   4.026  14.530  14.809
25091SOL    HW177170   3.969  14.474  14.861
25091SOL    HW277171   4.013  14.618  14.844
25092SOL     OW77172   8.062   3.402   4.137
25092SOL    HW177173   8.135   3.341   4.123
25092SOL    HW277174   8.053   3.447   4.053
25093SOL     OW77175  10.804   2.141   3.862
25093SOL    HW177176  10.714   2.161   3.834
25093SOL    HW277177  10.848   2.225   3.863
25094SOL     OW77178   9.274   1.340   7.512
25094SOL    HW177179   9.318   1.321   7.429
25094SOL    HW277180   9.211   1.409   7.491
25095SOL     OW77181   2.382   1.723  14.165
25095SOL    HW177182   2.396   1.798  14.106
25095SOL    HW277183   2.441   1.740  14.239
25096SOL     OW77184   6.023   9.441   9.494
25096SOL    HW177185   5.959   9.376   9.523
25096SOL    HW277186   5.987   9.475   9.412
25097SOL     OW77187   3.323   7.525   1.257
25097SOL    HW177188   3.299   7.433   1.242
25097SOL    HW277189   3.418   7.523   1.266
25098SOL     OW77190   1.544  10.054  13.996
25098SOL    HW177191   1.495   9.976  14.021
25098SOL    HW277192   1.588  10.081  14.076
25099SOL     OW77193   5.486   7.509  12.805
25099SOL    HW177194   5.573   7.490  12.770
25099SOL    HW277195   5.431   7.439  12.771
25100SOL     OW77196  13.603   4.630   5.318
25100SOL    HW177197  13.656   4.706   5.342
25100SOL    HW277198  13.615   4.622   5.223
25101SOL     OW77199   8.852   9.852   0.385
25101SOL    HW177200   8.940   9.880   0.410
25101SOL    HW277201   8.827   9.912   0.315
25102SOL     OW77202  11.150   7.601  10.366
25102SOL    HW177203  11.109   7.554  10.294
25102SOL    HW277204  11.102   7.684  10.372
25103SOL     OW77205  12.440   4.510  11.872
25103SOL    HW177206  12.368   4.464  11.828
25103SOL    HW277207  12.502   4.530  11.802
25104SOL     OW77208   6.316  10.027   8.913
25104SOL    HW177209   6.318  10.018   9.009
25104SOL    HW277210   6.362   9.949   8.882
25105SOL     OW77211   9.375  11.994   5.214
25105SOL    HW177212   9.442  12.059   5.232
25105SOL    HW277213   9.298  12.024   5.263
25106SOL     OW77214   2.088   1.476   7.258
25106SOL    HW177215   2.154   1.535   7.294
25106SOL    HW277216   2.019   1.535   7.226
25107SOL     OW77217   9.915   8.825  10.399
25107SOL    HW177218   9.948   8.809  10.487
25107SOL    HW277219   9.979   8.782  10.341
25108SOL     OW77220   1.343  11.894   4.776
25108SOL    HW177221   1.403  11.922   4.845
25108SOL    HW277222   1.384  11.925   4.695
25109SOL     OW77223  14.144  10.421   8.078
25109SOL    HW177224  14.128  10.433   8.172
25109SOL    HW277225  14.229  10.463   8.063
25110SOL     OW77226  12.757  10.922  12.015
25110SOL    HW177227  12.789  10.970  12.091
25110SOL    HW277228  12.731  10.990  11.953
25111SOL     OW77229  14.366   9.442   9.179
25111SOL    HW177230  14.405   9.434   9.092
25111SOL    HW277231  14.440   9.428   9.239
25112SOL     OW77232  12.811   9.577  10.461
25112SOL    HW177233  12.878   9.627  10.508
25112SOL    HW277234  12.830   9.486  10.483
25113SOL     OW77235  10.910  14.287   5.053
25113SOL    HW177236  10.876  14.375   5.067
25113SOL    HW277237  10.848  14.248   4.991
25114SOL     OW77238  14.554   4.600   6.126
25114SOL    HW177239  14.513   4.686   6.111
25114SOL    HW277240  14.485   4.537   6.104
25115SOL     OW77241   1.116   9.135   0.261
25115SOL    HW177242   1.149   9.220   0.232
25115SOL    HW277243   1.036   9.155   0.310
25116SOL     OW77244  11.308   1.318   5.535
25116SOL    HW177245  11.318   1.359   5.620
25116SOL    HW277246  11.397   1.294   5.510
25117SOL     OW77247   8.693  12.597   8.186
25117SOL    HW177248   8.758  12.586   8.256
25117SOL    HW277249   8.623  12.536   8.210
25118SOL     OW77250  12.959   3.981   2.839
25118SOL    HW177251  12.896   3.911   2.822
25118SOL    HW277252  13.011   3.987   2.759
25119SOL     OW77253   9.674   5.819   7.221
25119SOL    HW177254   9.764   5.854   7.220
25119SOL    HW277255   9.663   5.784   7.309
25120SOL     OW77256  12.587   5.278  12.196
25120SOL    HW177257  12.609   5.372  12.194
25120SOL    HW277258  12.616   5.245  12.111
25121SOL     OW77259  14.535   0.527   5.215
25121SOL    HW177260  14.535   0.601   5.154
25121SOL    HW277261  14.474   0.553   5.284
25122SOL     OW77262   1.653   0.479   7.529
25122SOL    HW177263   1.730   0.447   7.483
25122SOL    HW277264   1.686   0.509   7.613
25123SOL     OW77265   6.700   7.120   9.247
25123SOL    HW177266   6.787   7.160   9.253
25123SOL    HW277267   6.711   7.050   9.183
25124SOL     OW77268   7.787  13.378  13.872
25124SOL    HW177269   7.710  13.323  13.889
25124SOL    HW277270   7.789  13.389  13.777
25125SOL     OW77271   2.281  11.174   9.001
25125SOL    HW177272   2.313  11.246   8.945
25125SOL    HW277273   2.342  11.172   9.074
25126SOL     OW77274   6.802  14.584   7.323
25126SOL    HW177275   6.726  14.574   7.267
25126SOL    HW277276   6.792  14.516   7.390
25127SOL     OW77277   9.151   0.272  14.770
25127SOL    HW177278   9.224   0.214  14.746
25127SOL    HW277279   9.084   0.213  14.805
25128SOL     OW77280   6.473   1.967   9.143
25128SOL    HW177281   6.398   1.913   9.166
25128SOL    HW277282   6.543   1.904   9.124
25129SOL     OW77283   8.274   2.621  14.728
25129SOL    HW177284   8.325   2.695  14.761
25129SOL    HW277285   8.318   2.543  14.762
25130SOL     OW77286   2.692   3.859   5.274
25130SOL    HW177287   2.626   3.880   5.209
25130SOL    HW277288   2.734   3.943   5.294
25131SOL     OW77289   7.140   6.871   7.827
25131SOL    HW177290   7.176   6.783   7.812
25131SOL    HW277291   7.115   6.902   7.740
25132SOL     OW77292  12.738   9.433   8.111
25132SOL    HW177293  12.778   9.422   8.025
25132SOL    HW277294  12.645   9.417   8.096
25133SOL     OW77295   1.588   9.949   8.680
25133SOL    HW177296   1.653  10.019   8.677
25133SOL    HW277297   1.634   9.875   8.718
25134SOL     OW77298  14.676   0.933  11.671
25134SOL    HW177299  14.697   1.026  11.674
25134SOL    HW277300  14.587   0.930  11.636
25135SOL     OW77301   3.455   2.055   0.122
25135SOL    HW177302   3.394   2.128   0.124
25135SOL    HW277303   3.445   2.013   0.207
25136SOL     OW77304  13.044  10.751   7.424
25136SOL    HW177305  12.998  10.786   7.348
25136SOL    HW277306  13.034  10.818   7.491
25137SOL     OW77307   2.075   2.837   5.259
25137SOL    HW177308   2.046   2.764   5.203
25137SOL    HW277309   2.140   2.883   5.206
25138SOL     OW77310   2.726   4.916   8.170
25138SOL    HW177311   2.655   4.935   8.109
25138SOL    HW277312   2.720   4.822   8.187
25139SOL     OW77313   8.054  10.721  14.119
25139SOL    HW177314   7.970  10.765  14.134
25139SOL    HW277315   8.063  10.662  14.193
25140SOL     OW77316   3.063   8.207  14.820
25140SOL    HW177317   3.133   8.159  14.865
25140SOL    HW277318   3.005   8.138  14.787
25141SOL     OW77319  11.466  13.333   2.749
25141SOL    HW177320  11.513  13.408   2.713
25141SOL    HW277321  11.400  13.371   2.807
25142SOL     OW77322   2.830   0.745   9.023
25142SOL    HW177323   2.837   0.822   8.965
25142SOL    HW277324   2.742   0.711   9.006
25143SOL     OW77325  11.117  10.056   9.332
25143SOL    HW177326  11.145  10.120   9.268
25143SOL    HW277327  11.037  10.093   9.370
25144SOL     OW77328   1.975  12.122   8.605
25144SOL    HW177329   2.003  12.112   8.514
25144SOL    HW277330   1.960  12.215   8.616
25145SOL     OW77331  13.020   9.324   8.235
25145SOL    HW177332  13.092   9.267   8.209
25145SOL    HW277333  12.973   9.343   8.154
25146SOL     OW77334   5.186   6.911  14.668
25146SOL    HW177335   5.244   6.975  14.708
25146SOL    HW277336   5.190   6.930  14.574
25147SOL     OW77337   9.253   5.650  14.814
25147SOL    HW177338   9.321   5.715  14.799
25147SOL    HW277339   9.176   5.686  14.770
25148SOL     OW77340  13.697   4.874  10.369
25148SOL    HW177341  13.703   4.824  10.451
25148SOL    HW277342  13.707   4.809  10.300
25149SOL     OW77343   2.713  11.791   8.357
25149SOL    HW177344   2.663  11.858   8.403
25149SOL    HW277345   2.751  11.737   8.426
25150SOL     OW77346   4.339   9.614   6.663
25150SOL    HW177347   4.313   9.522   6.661
25150SOL    HW277348   4.396   9.624   6.586
25151SOL     OW77349   8.520  14.076   3.004
25151SOL    HW177350   8.599  14.127   2.987
25151SOL    HW277351   8.516  14.069   3.099
25152SOL     OW77352  12.920   3.403   8.284
25152SOL    HW177353  12.905   3.336   8.217
25152SOL    HW277354  12.964   3.474   8.238
25153SOL     OW77355   5.391   2.897  10.372
25153SOL    HW177356   5.418   2.807  10.354
25153SOL    HW277357   5.471   2.941  10.402
25154SOL     OW77358  12.243  10.635   4.139
25154SOL    HW177359  12.288  10.639   4.224
25154SOL    HW277360  12.313  10.624   4.075
25155SOL     OW77361   6.737  11.819   3.805
25155SOL    HW177362   6.684  11.835   3.884
25155SOL    HW277363   6.786  11.900   3.793
25156SOL     OW77364   8.887  12.509   4.006
25156SOL    HW177365   8.956  12.543   3.949
25156SOL    HW277366   8.915  12.420   4.029
25157SOL     OW77367  12.016   5.906   0.861
25157SOL    HW177368  11.962   5.982   0.879
25157SOL    HW277369  12.076   5.934   0.792
25158SOL     OW77370   7.930   6.967   4.408
25158SOL    HW177371   7.931   7.007   4.321
25158SOL    HW277372   7.838   6.969   4.435
25159SOL     OW77373  13.311   2.015   8.209
25159SOL    HW177374  13.386   1.974   8.167
25159SOL    HW277375  13.304   2.101   8.168
25160SOL     OW77376   1.512   0.576   8.956
25160SOL    HW177377   1.483   0.659   8.920
25160SOL    HW277378   1.551   0.598   9.041
25161SOL     OW77379   0.853  10.291   3.528
25161SOL    HW177380   0.901  10.214   3.557
25161SOL    HW277381   0.918  10.343   3.481
25162SOL     OW77382   0.613   5.367   6.240
25162SOL    HW177383   0.637   5.302   6.175
25162SOL    HW277384   0.696   5.396   6.277
25163SOL     OW77385  11.420   2.544   1.188
25163SOL    HW177386  11.376   2.629   1.200
25163SOL    HW277387  11.502   2.553   1.236
25164SOL     OW77388   6.883  11.627   5.288
25164SOL    HW177389   6.833  11.587   5.360
25164SOL    HW277390   6.876  11.563   5.217
25165SOL     OW77391   7.627   0.053  14.488
25165SOL    HW177392   7.586   0.084  14.569
25165SOL    HW277393   7.555   0.051  14.424
25166SOL     OW77394   2.157   7.677  11.049
25166SOL    HW177395   2.152   7.721  11.133
25166SOL    HW277396   2.202   7.594  11.068
25167SOL     OW77397   6.361   4.885   4.663
25167SOL    HW177398   6.417   4.943   4.612
25167SOL    HW277399   6.353   4.806   4.610
25168SOL     OW77400  11.353   5.713   8.809
25168SOL    HW177401  11.386   5.635   8.855
25168SOL    HW277402  11.269   5.732   8.849
25169SOL     OW77403   8.122   0.182   0.355
25169SOL    HW177404   8.083   0.108   0.307
25169SOL    HW277405   8.216   0.174   0.338
25170SOL     OW77406   7.098  14.187   6.775
25170SOL    HW177407   7.084  14.208   6.683
25170SOL    HW277408   7.043  14.250   6.822
25171SOL     OW77409   7.570   9.557   8.456
25171SOL    HW177410   7.477   9.577   8.473
25171SOL    HW277411   7.614   9.642   8.459
25172SOL     OW77412  14.160   5.625  10.156
25172SOL    HW177413  14.202   5.614  10.071
25172SOL    HW277414  14.162   5.720  10.171
25173SOL     OW77415   9.785   5.071  14.629
25173SOL    HW177416   9.841   5.064  14.706
25173SOL    HW277417   9.711   5.014  14.649
25174SOL     OW77418  14.366   1.430   4.256
25174SOL    HW177419  14.374   1.493   4.328
25174SOL    HW277420  14.390   1.481   4.178
25175SOL     OW77421   1.044   9.090  14.112
25175SOL    HW177422   1.080   9.153  14.176
25175SOL    HW277423   1.115   9.026  14.100
25176SOL     OW77424   7.104   5.681   1.774
25176SOL    HW177425   7.139   5.673   1.685
25176SOL    HW277426   7.083   5.591   1.799
25177SOL     OW77427  10.582  14.006  10.976
25177SOL    HW177428  10.585  14.032  11.068
25177SOL    HW277429  10.569  14.088  10.928
25178SOL     OW77430   0.219  14.055  11.268
25178SOL    HW177431   0.128  14.028  11.253
25178SOL    HW277432   0.251  14.078  11.181
25179SOL     OW77433   4.607   9.858   4.513
25179SOL    HW177434   4.681   9.895   4.562
25179SOL    HW277435   4.644   9.837   4.427
25180SOL     OW77436   1.492   2.293  13.801
25180SOL    HW177437   1.560   2.306  13.868
25180SOL    HW277438   1.539   2.300  13.718
25181SOL     OW77439   3.954  11.059  11.351
25181SOL    HW177440   3.969  11.115  11.427
25181SOL    HW277441   3.881  11.101  11.304
25182SOL     OW77442   8.629  11.766   7.478
25182SOL    HW177443   8.685  11.695   7.447
25182SOL    HW277444   8.676  11.846   7.456
25183SOL     OW77445   7.135  10.050   7.076
25183SOL    HW177446   7.054  10.030   7.029
25183SOL    HW277447   7.155   9.970   7.124
25184SOL     OW77448   0.024  12.391   5.062
25184SOL    HW177449  14.871  12.424   4.977
25184SOL    HW277450   0.119  12.404   5.059
25185SOL     OW77451   9.379  12.943   2.321
25185SOL    HW177452   9.463  12.900   2.301
25185SOL    HW277453   9.351  12.981   2.237
25186SOL     OW77454   2.102   2.597  11.392
25186SOL    HW177455   2.119   2.569  11.302
25186SOL    HW277456   2.009   2.577  11.406
25187SOL     OW77457   5.932   9.284   4.448
25187SOL    HW177458   5.841   9.294   4.418
25187SOL    HW277459   5.939   9.342   4.523
25188SOL     OW77460   4.682  11.096   0.907
25188SOL    HW177461   4.682  11.097   0.812
25188SOL    HW277462   4.594  11.066   0.930
25189SOL     OW77463   5.637  14.271   7.766
25189SOL    HW177464   5.559  14.325   7.773
25189SOL    HW277465   5.695  14.319   7.707
25190SOL     OW77466   2.460   2.399   5.509
25190SOL    HW177467   2.498   2.339   5.444
25190SOL    HW277468   2.536   2.439   5.551
25191SOL     OW77469   4.551   0.260   8.982
25191SOL    HW177470   4.632   0.289   8.942
25191SOL    HW277471   4.501   0.220   8.910
25192SOL     OW77472   5.992  13.896   3.891
25192SOL    HW177473   5.949  13.917   3.974
25192SOL    HW277474   5.956  13.958   3.828
25193SOL     OW77475   7.131  10.978   6.963
25193SOL    HW177476   7.074  10.995   6.888
25193SOL    HW277477   7.088  10.908   7.011
25194SOL     OW77478   6.676   0.824   9.818
25194SOL    HW177479   6.603   0.769   9.848
25194SOL    HW277480   6.738   0.824   9.891
25195SOL     OW77481   0.731   9.837  12.083
25195SOL    HW177482   0.806   9.839  12.024
25195SOL    HW277483   0.663   9.886  12.037
25196SOL     OW77484  11.994  11.976  11.159
25196SOL    HW177485  12.057  11.996  11.089
25196SOL    HW277486  12.014  12.040  11.228
25197SOL     OW77487   5.162   2.400   4.066
25197SOL    HW177488   5.155   2.313   4.106
25197SOL    HW277489   5.232   2.392   4.001
25198SOL     OW77490   7.047   0.799  11.224
25198SOL    HW177491   6.984   0.870  11.209
25198SOL    HW277492   7.129   0.830  11.187
25199SOL     OW77493   2.802  10.864   4.295
25199SOL    HW177494   2.715  10.886   4.329
25199SOL    HW277495   2.815  10.925   4.222
25200SOL     OW77496   9.419   5.602   3.501
25200SOL    HW177497   9.477   5.617   3.576
25200SOL    HW277498   9.356   5.537   3.532
25201SOL     OW77499  11.199  10.521   9.597
25201SOL    HW177500  11.173  10.491   9.684
25201SOL    HW277501  11.258  10.595   9.614
25202SOL     OW77502   3.122  11.108   4.756
25202SOL    HW177503   3.181  11.178   4.729
25202SOL    HW277504   3.143  11.035   4.697
25203SOL     OW77505   9.507   5.226  13.441
25203SOL    HW177506   9.482   5.280  13.517
25203SOL    HW277507   9.598   5.250  13.423
25204SOL     OW77508   8.329   4.561   0.176
25204SOL    HW177509   8.367   4.591   0.094
25204SOL    HW277510   8.242   4.529   0.153
25205SOL     OW77511  14.475   8.195   8.459
25205SOL    HW177512  14.530   8.210   8.382
25205SOL    HW277513  14.495   8.267   8.518
25206SOL     OW77514  11.209   0.627   5.240
25206SOL    HW177515  11.121   0.591   5.250
25206SOL    HW277516  11.204   0.682   5.162
25207SOL     OW77517  13.298  11.795  11.619
25207SOL    HW177518  13.273  11.853  11.691
25207SOL    HW277519  13.215  11.761  11.586
25208SOL     OW77520   7.276   1.430   9.241
25208SOL    HW177521   7.314   1.356   9.194
25208SOL    HW277522   7.308   1.507   9.195
25209SOL     OW77523   3.137   5.844  12.538
25209SOL    HW177524   3.203   5.829  12.469
25209SOL    HW277525   3.072   5.901  12.497
25210SOL     OW77526   4.232  11.046  11.303
25210SOL    HW177527   4.139  11.059  11.319
25210SOL    HW277528   4.261  11.126  11.259
25211SOL     OW77529  13.131  12.266  10.267
25211SOL    HW177530  13.051  12.277  10.318
25211SOL    HW277531  13.101  12.240  10.180
25212SOL     OW77532  11.961   8.382  14.448
25212SOL    HW177533  11.977   8.459  14.393
25212SOL    HW277534  11.884   8.340  14.410
25213SOL     OW77535   5.845  14.395  10.450
25213SOL    HW177536   5.887  14.309  10.450
25213SOL    HW277537   5.752  14.377  10.436
25214SOL     OW77538  14.808   5.375   0.838
25214SOL    HW177539  14.818   5.378   0.743
25214SOL    HW277540  14.760   5.455   0.860
25215SOL     OW77541   5.971   8.641   1.421
25215SOL    HW177542   5.892   8.610   1.377
25215SOL    HW277543   5.945   8.723   1.462
25216SOL     OW77544   5.115   1.690   4.773
25216SOL    HW177545   5.154   1.698   4.686
25216SOL    HW277546   5.121   1.779   4.810
25217SOL     OW77547   7.073  11.059   9.886
25217SOL    HW177548   6.982  11.071   9.915
25217SOL    HW277549   7.068  10.993   9.817
25218SOL     OW77550   5.663   1.574  10.201
25218SOL    HW177551   5.694   1.644  10.143
25218SOL    HW277552   5.742   1.523  10.222
25219SOL     OW77553   7.717  13.674  11.033
25219SOL    HW177554   7.678  13.761  11.043
25219SOL    HW277555   7.642  13.615  11.024
25220SOL     OW77556   6.721   4.730   5.920
25220SOL    HW177557   6.781   4.683   5.978
25220SOL    HW277558   6.777   4.772   5.856
25221SOL     OW77559   8.468   7.906   7.069
25221SOL    HW177560   8.413   7.978   7.101
25221SOL    HW277561   8.532   7.949   7.010
25222SOL     OW77562   8.672  10.082   1.206
25222SOL    HW177563   8.686  10.115   1.295
25222SOL    HW277564   8.658   9.988   1.218
25223SOL     OW77565   8.885  13.949  11.639
25223SOL    HW177566   8.909  13.859  11.660
25223SOL    HW277567   8.814  13.969  11.701
25224SOL     OW77568   9.233  12.381  12.404
25224SOL    HW177569   9.204  12.363  12.494
25224SOL    HW277570   9.198  12.468  12.385
25225SOL     OW77571   7.516  14.456  11.249
25225SOL    HW177572   7.435  14.498  11.220
25225SOL    HW277573   7.552  14.515  11.315
25226SOL     OW77574   5.704   5.860  12.675
25226SOL    HW177575   5.778   5.821  12.629
25226SOL    HW277576   5.627   5.820  12.634
25227SOL     OW77577   6.863   6.977   0.392
25227SOL    HW177578   6.794   7.012   0.335
25227SOL    HW277579   6.856   6.882   0.383
25228SOL     OW77580  11.119  11.247   6.497
25228SOL    HW177581  11.083  11.294   6.572
25228SOL    HW277582  11.093  11.297   6.421
25229SOL     OW77583  10.812  12.183   4.042
25229SOL    HW177584  10.899  12.169   4.004
25229SOL    HW277585  10.805  12.277   4.052
25230SOL     OW77586   1.419  10.736   6.618
25230SOL    HW177587   1.415  10.723   6.713
25230SOL    HW277588   1.347  10.797   6.599
25231SOL     OW77589  12.980   6.432   8.025
25231SOL    HW177590  12.945   6.343   8.037
25231SOL    HW277591  12.983   6.443   7.930
25232SOL     OW77592   0.923   7.477   4.203
25232SOL    HW177593   0.850   7.459   4.144
25232SOL    HW277594   0.908   7.566   4.235
25233SOL     OW77595   0.447   3.431  12.447
25233SOL    HW177596   0.399   3.357  12.483
25233SOL    HW277597   0.378   3.492  12.418
25234SOL     OW77598   8.839  10.385   9.167
25234SOL    HW177599   8.864  10.307   9.117
25234SOL    HW277600   8.768  10.355   9.225
25235SOL     OW77601   9.955   4.331  11.302
25235SOL    HW177602   9.928   4.253  11.350
25235SOL    HW277603  10.026   4.368  11.353
25236SOL     OW77604  10.912   0.369   6.059
25236SOL    HW177605  10.824   0.342   6.088
25236SOL    HW277606  10.900   0.395   5.968
25237SOL     OW77607   4.156   7.955   9.259
25237SOL    HW177608   4.133   8.047   9.273
25237SOL    HW277609   4.197   7.954   9.172
25238SOL     OW77610  13.570   8.785   4.414
25238SOL    HW177611  13.517   8.860   4.386
25238SOL    HW277612  13.661   8.811   4.396
25239SOL     OW77613  14.748   3.694   7.346
25239SOL    HW177614  14.661   3.688   7.307
25239SOL    HW277615  14.777   3.603   7.354
25240SOL     OW77616   2.915   9.505   1.839
25240SOL    HW177617   2.862   9.434   1.804
25240SOL    HW277618   2.955   9.546   1.763
25241SOL     OW77619   4.311   6.517   4.641
25241SOL    HW177620   4.333   6.591   4.698
25241SOL    HW277621   4.381   6.515   4.576
25242SOL     OW77622   3.175  14.272   3.155
25242SOL    HW177623   3.092  14.231   3.177
25242SOL    HW277624   3.203  14.228   3.074
25243SOL     OW77625   9.404   2.601  14.788
25243SOL    HW177626   9.413   2.521  14.737
25243SOL    HW277627   9.388   2.571  14.877
25244SOL     OW77628   0.894  10.761   4.412
25244SOL    HW177629   0.956  10.754   4.340
25244SOL    HW277630   0.946  10.799   4.484
25245SOL     OW77631   7.886  10.726   4.072
25245SOL    HW177632   7.879  10.665   4.146
25245SOL    HW277633   7.905  10.811   4.113
25246SOL     OW77634  11.072   2.503   7.206
25246SOL    HW177635  10.982   2.525   7.228
25246SOL    HW277636  11.065   2.444   7.131
25247SOL     OW77637  13.515   2.858   3.500
25247SOL    HW177638  13.509   2.763   3.489
25247SOL    HW277639  13.600   2.871   3.541
25248SOL     OW77640  11.455  12.001  11.152
25248SOL    HW177641  11.549  12.020  11.154
25248SOL    HW277642  11.449  11.908  11.172
25249SOL     OW77643   0.660  13.662  14.411
25249SOL    HW177644   0.630  13.753  14.410
25249SOL    HW277645   0.613  13.620  14.338
25250SOL     OW77646   0.905  12.250   3.660
25250SOL    HW177647   0.844  12.183   3.691
25250SOL    HW277648   0.891  12.254   3.566
25251SOL     OW77649   3.144   9.203   0.933
25251SOL    HW177650   3.208   9.188   1.003
25251SOL    HW277651   3.161   9.293   0.905
25252SOL     OW77652  14.112   2.932  13.504
25252SOL    HW177653  14.070   2.864  13.452
25252SOL    HW277654  14.064   3.012  13.481
25253SOL     OW77655   2.963  12.278  13.672
25253SOL    HW177656   2.881  12.286  13.722
25253SOL    HW277657   2.968  12.359  13.622
25254SOL     OW77658   3.774  14.827   7.314
25254SOL    HW177659   3.721  14.828   7.234
25254SOL    HW277660   3.798   0.041   7.328
25255SOL     OW77661  11.613   9.286   8.606
25255SOL    HW177662  11.567   9.367   8.626
25255SOL    HW277663  11.556   9.217   8.640
25256SOL     OW77664   9.760   6.113   1.728
25256SOL    HW177665   9.763   6.196   1.681
25256SOL    HW277666   9.667   6.094   1.740
25257SOL     OW77667  11.182  14.117   8.834
25257SOL    HW177668  11.121  14.162   8.893
25257SOL    HW277669  11.174  14.025   8.858
25258SOL     OW77670   0.251  12.215   4.675
25258SOL    HW177671   0.321  12.151   4.667
25258SOL    HW277672   0.255  12.246   4.766
25259SOL     OW77673   8.946  14.134  12.517
25259SOL    HW177674   8.873  14.191  12.539
25259SOL    HW277675   8.918  14.047  12.545
25260SOL     OW77676   2.472   1.000   9.457
25260SOL    HW177677   2.439   1.082   9.494
25260SOL    HW277678   2.418   0.986   9.379
25261SOL     OW77679   5.135   8.756  14.714
25261SOL    HW177680   5.212   8.805  14.740
25261SOL    HW277681   5.068   8.780  14.778
25262SOL     OW77682   1.440   3.089   7.589
25262SOL    HW177683   1.532   3.065   7.584
25262SOL    HW277684   1.427   3.148   7.514
25263SOL     OW77685   5.091   3.128   5.263
25263SOL    HW177686   5.040   3.120   5.344
25263SOL    HW277687   5.154   3.198   5.282
25264SOL     OW77688   8.290  11.080  13.383
25264SOL    HW177689   8.230  11.089  13.458
25264SOL    HW277690   8.261  11.148  13.322
25265SOL     OW77691  11.886  10.513   8.156
25265SOL    HW177692  11.906  10.424   8.127
25265SOL    HW277693  11.965  10.564   8.136
25266SOL     OW77694   4.272   4.598  13.959
25266SOL    HW177695   4.293   4.687  13.987
25266SOL    HW277696   4.340   4.576  13.896
25267SOL     OW77697   6.417   2.924  12.677
25267SOL    HW177698   6.384   2.958  12.760
25267SOL    HW277699   6.367   2.970  12.610
25268SOL     OW77700  14.573   2.308  13.237
25268SOL    HW177701  14.494   2.283  13.284
25268SOL    HW277702  14.546   2.380  13.181
25269SOL     OW77703   6.935   2.940   9.073
25269SOL    HW177704   6.900   2.901   9.153
25269SOL    HW277705   6.994   3.009   9.104
25270SOL     OW77706   2.721  13.254  13.915
25270SOL    HW177707   2.801  13.204  13.933
25270SOL    HW277708   2.724  13.270  13.821
25271SOL     OW77709  10.224  11.618   0.526
25271SOL    HW177710  10.204  11.530   0.495
25271SOL    HW277711  10.272  11.659   0.455
25272SOL     OW77712  10.478   0.368   1.453
25272SOL    HW177713  10.490   0.436   1.520
25272SOL    HW277714  10.559   0.317   1.455
25273SOL     OW77715   8.641   8.564   2.961
25273SOL    HW177716   8.720   8.536   2.915
25273SOL    HW277717   8.653   8.658   2.974
25274SOL     OW77718  12.724  11.312   3.263
25274SOL    HW177719  12.784  11.266   3.322
25274SOL    HW277720  12.661  11.245   3.236
25275SOL     OW77721   6.090   1.117   3.027
25275SOL    HW177722   6.131   1.201   3.004
25275SOL    HW277723   6.070   1.076   2.943
25276SOL     OW77724   0.148   0.866  13.360
25276SOL    HW177725   0.114   0.779  13.379
25276SOL    HW277726   0.116   0.885  13.272
25277SOL     OW77727  13.095   1.382  14.535
25277SOL    HW177728  13.185   1.404  14.512
25277SOL    HW277729  13.049   1.466  14.536
25278SOL     OW77730   5.512  11.568   2.049
25278SOL    HW177731   5.591  11.534   2.007
25278SOL    HW277732   5.542  11.606   2.131
25279SOL     OW77733  13.958   4.331   1.773
25279SOL    HW177734  13.917   4.407   1.733
25279SOL    HW277735  14.048   4.359   1.792
25280SOL     OW77736  13.729  12.890   4.373
25280SOL    HW177737  13.796  12.832   4.336
25280SOL    HW277738  13.697  12.844   4.450
25281SOL     OW77739   1.316  12.178   2.021
25281SOL    HW177740   1.400  12.190   2.067
25281SOL    HW277741   1.341  12.146   1.934
25282SOL     OW77742   3.227   8.559   3.875
25282SOL    HW177743   3.285   8.590   3.805
25282SOL    HW277744   3.253   8.468   3.888
25283SOL     OW77745  10.425   4.321  13.705
25283SOL    HW177746  10.389   4.245  13.751
25283SOL    HW277747  10.462   4.285  13.624
25284SOL     OW77748   9.120   4.008   7.552
25284SOL    HW177749   9.207   4.004   7.512
25284SOL    HW277750   9.137   4.011   7.646
25285SOL     OW77751   5.652   6.682   0.206
25285SOL    HW177752   5.690   6.689   0.119
25285SOL    HW277753   5.564   6.648   0.191
25286SOL     OW77754   0.882  13.240   0.526
25286SOL    HW177755   0.834  13.310   0.481
25286SOL    HW277756   0.847  13.160   0.488
25287SOL     OW77757   1.633  13.949   9.988
25287SOL    HW177758   1.677  13.898   9.920
25287SOL    HW277759   1.630  13.890  10.063
25288SOL     OW77760  14.471   1.981   2.944
25288SOL    HW177761  14.498   1.996   3.034
25288SOL    HW277762  14.432   2.064   2.916
25289SOL     OW77763  13.585   2.031  14.353
25289SOL    HW177764  13.661   1.973  14.346
25289SOL    HW277765  13.621   2.118  14.337
25290SOL     OW77766   1.684  13.695   9.623
25290SOL    HW177767   1.757  13.633   9.633
25290SOL    HW277768   1.726  13.781   9.619
25291SOL     OW77769   5.308   3.170   7.458
25291SOL    HW177770   5.402   3.150   7.449
25291SOL    HW277771   5.301   3.209   7.545
25292SOL     OW77772   3.681  12.288   9.372
25292SOL    HW177773   3.660  12.281   9.278
25292SOL    HW277774   3.663  12.380   9.393
25293SOL     OW77775   6.207  10.976  10.047
25293SOL    HW177776   6.273  11.035  10.083
25293SOL    HW277777   6.178  11.020   9.967
25294SOL     OW77778   9.120   4.716  13.772
25294SOL    HW177779   9.096   4.806  13.748
25294SOL    HW277780   9.043   4.665  13.749
25295SOL     OW77781   7.614  13.979   8.524
25295SOL    HW177782   7.585  13.925   8.597
25295SOL    HW277783   7.650  13.917   8.461
25296SOL     OW77784   9.826  12.691   2.204
25296SOL    HW177785   9.873  12.709   2.285
25296SOL    HW277786   9.746  12.743   2.210
25297SOL     OW77787   3.852  12.000   0.107
25297SOL    HW177788   3.782  12.044   0.155
25297SOL    HW277789   3.826  12.007   0.015
25298SOL     OW77790  11.718   2.527  11.400
25298SOL    HW177791  11.763   2.445  11.380
25298SOL    HW277792  11.626   2.510  11.381
25299SOL     OW77793   7.479  10.770   6.483
25299SOL    HW177794   7.483  10.781   6.578
25299SOL    HW277795   7.387  10.750   6.465
25300SOL     OW77796   4.093   7.241   9.166
25300SOL    HW177797   4.072   7.170   9.227
25300SOL    HW277798   4.093   7.199   9.080
25301SOL     OW77799   4.795  11.409   3.651
25301SOL    HW177800   4.834  11.380   3.734
25301SOL    HW277801   4.850  11.482   3.624
25302SOL     OW77802   5.421  10.721  10.232
25302SOL    HW177803   5.347  10.692  10.285
25302SOL    HW277804   5.498  10.680  10.272
25303SOL     OW77805  12.618   1.615   9.804
25303SOL    HW177806  12.594   1.708   9.812
25303SOL    HW277807  12.560   1.571   9.866
25304SOL     OW77808  11.627   6.291  14.184
25304SOL    HW177809  11.621   6.285  14.088
25304SOL    HW277810  11.703   6.346  14.200
25305SOL     OW77811   0.135  13.710   0.087
25305SOL    HW177812   0.061  13.756   0.126
25305SOL    HW277813   0.166  13.650   0.155
25306SOL     OW77814   4.841   6.732   9.174
25306SOL    HW177815   4.922   6.769   9.138
25306SOL    HW277816   4.862   6.714   9.265
25307SOL     OW77817   8.744   1.601   5.156
25307SOL    HW177818   8.749   1.684   5.204
25307SOL    HW277819   8.828   1.593   5.113
25308SOL     OW77820   8.069   9.570   6.264
25308SOL    HW177821   8.145   9.518   6.238
25308SOL    HW277822   8.048   9.540   6.352
25309SOL     OW77823  11.602  10.639  13.461
25309SOL    HW177824  11.507  10.644  13.466
25309SOL    HW277825  11.620  10.620  13.369
25310SOL     OW77826   0.616   9.930   9.608
25310SOL    HW177827   0.660   9.845   9.610
25310SOL    HW277828   0.681   9.989   9.569
25311SOL     OW77829  12.111   5.941  14.071
25311SOL    HW177830  12.142   5.864  14.119
25311SOL    HW277831  12.190   5.980  14.034
25312SOL     OW77832   9.451   8.049   8.174
25312SOL    HW177833   9.364   8.020   8.200
25312SOL    HW277834   9.475   8.115   8.239
25313SOL     OW77835   2.926   5.732   0.713
25313SOL    HW177836   2.912   5.642   0.744
25313SOL    HW277837   2.965   5.721   0.626
25314SOL     OW77838  11.508   1.304  13.326
25314SOL    HW177839  11.537   1.334  13.413
25314SOL    HW277840  11.573   1.342  13.266
25315SOL     OW77841  13.175   6.594   2.711
25315SOL    HW177842  13.252   6.593   2.767
25315SOL    HW277843  13.136   6.681   2.724
25316SOL     OW77844  11.799  12.402   1.293
25316SOL    HW177845  11.830  12.361   1.374
25316SOL    HW277846  11.865  12.380   1.228
25317SOL     OW77847   8.928   7.761   9.227
25317SOL    HW177848   8.914   7.782   9.134
25317SOL    HW277849   8.971   7.838   9.263
25318SOL     OW77850   0.602  10.734   2.855
25318SOL    HW177851   0.633  10.790   2.783
25318SOL    HW277852   0.547  10.669   2.811
25319SOL     OW77853   8.783  11.064   2.265
25319SOL    HW177854   8.848  11.128   2.296
25319SOL    HW277855   8.701  11.093   2.304
25320SOL     OW77856   7.931   8.344   1.479
25320SOL    HW177857   7.945   8.263   1.528
25320SOL    HW277858   8.002   8.401   1.508
25321SOL     OW77859  13.674   8.281  13.491
25321SOL    HW177860  13.609   8.214  13.514
25321SOL    HW277861  13.647   8.359  13.540
25322SOL     OW77862   1.540   5.519   6.808
25322SOL    HW177863   1.487   5.577   6.862
25322SOL    HW277864   1.505   5.432   6.825
25323SOL     OW77865   0.796  10.346   5.478
25323SOL    HW177866   0.717  10.301   5.508
25323SOL    HW277867   0.809  10.314   5.389
25324SOL     OW77868  11.660   9.108   7.459
25324SOL    HW177869  11.613   9.165   7.521
25324SOL    HW277870  11.708   9.168   7.402
25325SOL     OW77871  10.825  14.831   0.267
25325SOL    HW177872  10.854  14.747   0.232
25325SOL    HW277873  10.885   0.017   0.229
25326SOL     OW77874   9.737   8.031   5.158
25326SOL    HW177875   9.820   8.003   5.197
25326SOL    HW277876   9.675   7.962   5.178
25327SOL     OW77877  14.579  11.705   5.597
25327SOL    HW177878  14.629  11.677   5.520
25327SOL    HW277879  14.487  11.695   5.571
25328SOL     OW77880  10.291   3.734   1.091
25328SOL    HW177881  10.255   3.815   1.057
25328SOL    HW277882  10.381   3.757   1.117
25329SOL     OW77883   8.348   5.050   0.860
25329SOL    HW177884   8.277   4.987   0.872
25329SOL    HW277885   8.423   5.010   0.903
25330SOL     OW77886  12.940   2.157   0.841
25330SOL    HW177887  12.899   2.218   0.780
25330SOL    HW277888  13.028   2.145   0.807
25331SOL     OW77889   8.818  12.441   3.371
25331SOL    HW177890   8.913  12.436   3.374
25331SOL    HW277891   8.799  12.484   3.288
25332SOL     OW77892   1.496   3.134   9.574
25332SOL    HW177893   1.463   3.224   9.573
25332SOL    HW277894   1.418   3.079   9.562
25333SOL     OW77895   1.516  11.761   5.899
25333SOL    HW177896   1.494  11.723   5.814
25333SOL    HW277897   1.574  11.697   5.940
25334SOL     OW77898  14.358  10.566   8.041
25334SOL    HW177899  14.398  10.618   8.111
25334SOL    HW277900  14.432  10.536   7.988
25335SOL     OW77901   5.146   2.495   5.827
25335SOL    HW177902   5.203   2.526   5.757
25335SOL    HW277903   5.134   2.571   5.884
25336SOL     OW77904  13.499   6.245  12.856
25336SOL    HW177905  13.481   6.320  12.913
25336SOL    HW277906  13.500   6.170  12.915
25337SOL     OW77907  14.432  11.768   2.021
25337SOL    HW177908  14.452  11.786   1.929
25337SOL    HW277909  14.425  11.855   2.061
25338SOL     OW77910   6.923  10.783   8.777
25338SOL    HW177911   6.960  10.870   8.764
25338SOL    HW277912   6.877  10.789   8.861
25339SOL     OW77913   2.247   7.194  13.438
25339SOL    HW177914   2.267   7.106  13.405
25339SOL    HW277915   2.258   7.186  13.533
25340SOL     OW77916   9.137   2.034   7.357
25340SOL    HW177917   9.124   2.119   7.315
25340SOL    HW277918   9.179   1.980   7.290
25341SOL     OW77919   9.242   5.113   3.621
25341SOL    HW177920   9.303   5.071   3.560
25341SOL    HW277921   9.270   5.083   3.707
25342SOL     OW77922   7.175   1.130  12.425
25342SOL    HW177923   7.156   1.115  12.517
25342SOL    HW277924   7.271   1.134  12.420
25343SOL     OW77925  12.086   1.802   4.671
25343SOL    HW177926  12.178   1.776   4.671
25343SOL    HW277927  12.038   1.722   4.689
25344SOL     OW77928   2.905   7.779   9.015
25344SOL    HW177929   2.835   7.827   8.970
25344SOL    HW277930   2.862   7.742   9.092
25345SOL     OW77931   3.310  11.179   6.464
25345SOL    HW177932   3.335  11.195   6.373
25345SOL    HW277933   3.251  11.251   6.486
25346SOL     OW77934   2.165   3.910   6.537
25346SOL    HW177935   2.121   3.930   6.620
25346SOL    HW277936   2.100   3.860   6.487
25347SOL     OW77937   5.782   5.324   5.002
25347SOL    HW177938   5.709   5.378   4.974
25347SOL    HW277939   5.859   5.380   4.992
25348SOL     OW77940   1.326   6.687   1.420
25348SOL    HW177941   1.293   6.669   1.332
25348SOL    HW277942   1.420   6.702   1.408
25349SOL     OW77943  14.360   8.018   9.660
25349SOL    HW177944  14.375   8.081   9.589
25349SOL    HW277945  14.343   8.072   9.737
25350SOL     OW77946   5.336   7.329   3.080
25350SOL    HW177947   5.298   7.416   3.089
25350SOL    HW277948   5.274   7.271   3.123
25351SOL     OW77949  14.773   7.226   2.988
25351SOL    HW177950  14.781   7.234   3.083
25351SOL    HW277951  14.684   7.255   2.969
25352SOL     OW77952  10.697   1.873   7.338
25352SOL    HW177953  10.786   1.867   7.305
25352SOL    HW277954  10.642   1.842   7.266
25353SOL     OW77955   3.414  12.858   7.820
25353SOL    HW177956   3.428  12.944   7.781
25353SOL    HW277957   3.476  12.854   7.893
25354SOL     OW77958  12.542   0.173  12.942
25354SOL    HW177959  12.529   0.132  12.857
25354SOL    HW277960  12.582   0.105  12.996
25355SOL     OW77961   0.934  13.644  11.042
25355SOL    HW177962   1.013  13.683  11.004
25355SOL    HW277963   0.882  13.719  11.071
25356SOL     OW77964  13.110  11.497   4.341
25356SOL    HW177965  13.155  11.510   4.425
25356SOL    HW277966  13.082  11.405   4.343
25357SOL     OW77967  14.623  11.263  12.053
25357SOL    HW177968  14.716  11.243  12.060
25357SOL    HW277969  14.583  11.215  12.127
25358SOL     OW77970   7.146  10.602   7.443
25358SOL    HW177971   7.194  10.587   7.524
25358SOL    HW277972   7.215  10.618   7.378
25359SOL     OW77973   0.969   3.986   8.452
25359SOL    HW177974   1.026   3.985   8.376
25359SOL    HW277975   0.976   4.075   8.487
25360SOL     OW77976   1.723   7.688   8.531
25360SOL    HW177977   1.686   7.750   8.593
25360SOL    HW277978   1.677   7.606   8.548
25361SOL     OW77979   2.274  14.286   6.572
25361SOL    HW177980   2.345  14.329   6.620
25361SOL    HW277981   2.204  14.351   6.569
25362SOL     OW77982   0.694   8.677   5.792
25362SOL    HW177983   0.730   8.711   5.710
25362SOL    HW277984   0.600   8.671   5.776
25363SOL     OW77985  13.010  14.527  12.821
25363SOL    HW177986  12.959  14.566  12.750
25363SOL    HW277987  13.098  14.517  12.785
25364SOL     OW77988   5.829   1.432   0.789
25364SOL    HW177989   5.888   1.451   0.863
25364SOL    HW277990   5.857   1.493   0.720
25365SOL     OW77991  11.973   5.426   4.133
25365SOL    HW177992  11.965   5.521   4.126
25365SOL    HW277993  11.942   5.405   4.221
25366SOL     OW77994   9.219   3.146   0.002
25366SOL    HW177995   9.132   3.109  14.869
25366SOL    HW277996   9.245   3.124   0.091
25367SOL     OW77997   1.323   9.278   6.880
25367SOL    HW177998   1.363   9.192   6.873
25367SOL    HW277999   1.303   9.303   6.790
25368SOL     OW78000   2.560   9.755   1.767
25368SOL    HW178001   2.506   9.678   1.785
25368SOL    HW278002   2.579   9.749   1.673
25369SOL     OW78003   7.456  11.982   9.002
25369SOL    HW178004   7.427  11.985   8.911
25369SOL    HW278005   7.530  12.043   9.006
25370SOL     OW78006  10.138   1.015   7.633
25370SOL    HW178007  10.202   0.985   7.698
25370SOL    HW278008  10.118   1.104   7.659
25371SOL     OW78009   7.475   9.577  12.673
25371SOL    HW178010   7.407   9.577  12.740
25371SOL    HW278011   7.443   9.636  12.605
25372SOL     OW78012   1.168  12.650  14.786
25372SOL    HW178013   1.100  12.584  14.802
25372SOL    HW278014   1.128  12.732  14.813
25373SOL     OW78015   7.423   7.440   1.584
25373SOL    HW178016   7.422   7.530   1.617
25373SOL    HW278017   7.331   7.413   1.587
25374SOL     OW78018   5.596   6.045  13.015
25374SOL    HW178019   5.656   5.972  13.031
25374SOL    HW278020   5.609   6.067  12.923
25375SOL     OW78021   0.994   2.180   1.263
25375SOL    HW178022   1.029   2.260   1.301
25375SOL    HW278023   1.053   2.160   1.190
25376SOL     OW78024  10.172  13.131  14.656
25376SOL    HW178025  10.197  13.071  14.726
25376SOL    HW278026  10.132  13.076  14.589
25377SOL     OW78027  10.513   3.931  14.287
25377SOL    HW178028  10.466   3.864  14.337
25377SOL    HW278029  10.602   3.927  14.320
25378SOL     OW78030   5.936  12.964   0.280
25378SOL    HW178031   5.933  13.041   0.337
25378SOL    HW278032   6.030  12.947   0.268
25379SOL     OW78033   4.481   8.695  11.530
25379SOL    HW178034   4.408   8.755  11.546
25379SOL    HW278035   4.560   8.747  11.548
25380SOL     OW78036   0.141   5.156  13.865
25380SOL    HW178037   0.172   5.087  13.924
25380SOL    HW278038   0.140   5.115  13.779
25381SOL     OW78039   8.193   4.122   0.921
25381SOL    HW178040   8.224   4.176   0.847
25381SOL    HW278041   8.152   4.046   0.879
25382SOL     OW78042  12.496   5.978  10.170
25382SOL    HW178043  12.427   6.044  10.162
25382SOL    HW278044  12.527   5.987  10.260
25383SOL     OW78045  14.015   3.277   2.493
25383SOL    HW178046  14.038   3.198   2.541
25383SOL    HW278047  14.087   3.338   2.510
25384SOL     OW78048   5.178  12.560   3.524
25384SOL    HW178049   5.109  12.513   3.478
25384SOL    HW278050   5.190  12.641   3.475
25385SOL     OW78051   6.702  13.311  11.892
25385SOL    HW178052   6.614  13.297  11.857
25385SOL    HW278053   6.707  13.255  11.969
25386SOL     OW78054  10.365  12.899   0.400
25386SOL    HW178055  10.444  12.847   0.416
25386SOL    HW278056  10.296  12.834   0.387
25387SOL     OW78057  10.301   7.804  12.044
25387SOL    HW178058  10.270   7.792  11.954
25387SOL    HW278059  10.290   7.718  12.085
25388SOL     OW78060   3.477   1.137   4.255
25388SOL    HW178061   3.385   1.112   4.259
25388SOL    HW278062   3.481   1.205   4.187
25389SOL     OW78063   7.234   0.394  14.260
25389SOL    HW178064   7.177   0.406  14.184
25389SOL    HW278065   7.311   0.350  14.225
25390SOL     OW78066   8.331  10.486   5.643
25390SOL    HW178067   8.256  10.448   5.689
25390SOL    HW278068   8.381  10.411   5.612
25391SOL     OW78069  13.178  10.079   6.477
25391SOL    HW178070  13.245  10.128   6.429
25391SOL    HW278071  13.134  10.027   6.411
25392SOL     OW78072   4.811   1.392   2.370
25392SOL    HW178073   4.843   1.321   2.427
25392SOL    HW278074   4.797   1.350   2.286
25393SOL     OW78075   2.101  12.603   8.637
25393SOL    HW178076   2.006  12.606   8.644
25393SOL    HW278077   2.131  12.667   8.702
25394SOL     OW78078  12.733  13.135   7.241
25394SOL    HW178079  12.747  13.229   7.252
25394SOL    HW278080  12.646  13.127   7.204
25395SOL     OW78081  11.504   5.649   6.019
25395SOL    HW178082  11.476   5.724   6.071
25395SOL    HW278083  11.590   5.627   6.055
25396SOL     OW78084   0.500   6.420   7.929
25396SOL    HW178085   0.412   6.449   7.907
25396SOL    HW278086   0.492   6.386   8.019
25397SOL     OW78087   0.677  14.118   1.868
25397SOL    HW178088   0.703  14.151   1.954
25397SOL    HW278089   0.677  14.022   1.878
25398SOL     OW78090   6.692  13.334  13.332
25398SOL    HW178091   6.705  13.286  13.250
25398SOL    HW278092   6.747  13.288  13.396
25399SOL     OW78093   0.731   1.588   9.269
25399SOL    HW178094   0.755   1.580   9.177
25399SOL    HW278095   0.668   1.660   9.272
25400SOL     OW78096   0.517   4.178   7.288
25400SOL    HW178097   0.507   4.268   7.322
25400SOL    HW278098   0.490   4.184   7.196
25401SOL     OW78099  12.275   4.241   5.264
25401SOL    HW178100  12.212   4.178   5.230
25401SOL    HW278101  12.222   4.317   5.288
25402SOL     OW78102   0.763  10.358   6.249
25402SOL    HW178103   0.812  10.421   6.301
25402SOL    HW278104   0.678  10.399   6.236
25403SOL     OW78105   5.912  14.213  11.544
25403SOL    HW178106   5.899  14.163  11.464
25403SOL    HW278107   5.911  14.147  11.614
25404SOL     OW78108   6.981   7.748   1.825
25404SOL    HW178109   6.995   7.814   1.893
25404SOL    HW278110   7.004   7.793   1.743
25405SOL     OW78111   5.995   3.684   1.305
25405SOL    HW178112   5.989   3.756   1.241
25405SOL    HW278113   6.073   3.636   1.280
25406SOL     OW78114   9.216   1.872   7.123
25406SOL    HW178115   9.223   1.779   7.142
25406SOL    HW278116   9.131   1.882   7.079
25407SOL     OW78117   1.516   2.254   2.122
25407SOL    HW178118   1.593   2.263   2.179
25407SOL    HW278119   1.463   2.330   2.142
25408SOL     OW78120   9.596   4.725   6.476
25408SOL    HW178121   9.517   4.768   6.445
25408SOL    HW278122   9.572   4.688   6.561
25409SOL     OW78123   2.063   6.661  14.352
25409SOL    HW178124   2.078   6.625  14.265
25409SOL    HW278125   1.983   6.618  14.382
25410SOL     OW78126  11.815   0.993   8.397
25410SOL    HW178127  11.865   0.934   8.339
25410SOL    HW278128  11.750   1.033   8.339
25411SOL     OW78129   9.222   1.024   1.037
25411SOL    HW178130   9.182   0.938   1.038
25411SOL    HW278131   9.227   1.048   0.944
25412SOL     OW78132   4.860   9.916   5.365
25412SOL    HW178133   4.799   9.876   5.427
25412SOL    HW278134   4.834   9.880   5.280
25413SOL     OW78135   5.913   4.784  13.608
25413SOL    HW178136   5.908   4.801  13.703
25413SOL    HW278137   5.848   4.843  13.570
25414SOL     OW78138  11.037   6.472   0.125
25414SOL    HW178139  11.046   6.403   0.060
25414SOL    HW278140  11.118   6.522   0.119
25415SOL     OW78141  10.716   4.671   2.566
25415SOL    HW178142  10.762   4.695   2.647
25415SOL    HW278143  10.786   4.647   2.505
25416SOL     OW78144   1.162   8.212   5.323
25416SOL    HW178145   1.135   8.139   5.268
25416SOL    HW278146   1.249   8.187   5.355
25417SOL     OW78147   5.144   8.493   2.498
25417SOL    HW178148   5.187   8.478   2.582
25417SOL    HW278149   5.189   8.435   2.437
25418SOL     OW78150   2.143   1.160   8.221
25418SOL    HW178151   2.051   1.184   8.206
25418SOL    HW278152   2.186   1.177   8.137
25419SOL     OW78153  13.865   5.199   6.966
25419SOL    HW178154  13.894   5.191   7.056
25419SOL    HW278155  13.776   5.233   6.972
25420SOL     OW78156  14.005  11.738  14.058
25420SOL    HW178157  14.055  11.775  13.985
25420SOL    HW278158  13.983  11.813  14.113
25421SOL     OW78159   5.459   6.513   6.452
25421SOL    HW178160   5.451   6.494   6.545
25421SOL    HW278161   5.375   6.554   6.428
25422SOL     OW78162   2.760  12.323   1.716
25422SOL    HW178163   2.741  12.251   1.656
25422SOL    HW278164   2.806  12.282   1.789
25423SOL     OW78165   4.398   9.627   0.137
25423SOL    HW178166   4.373   9.627   0.044
25423SOL    HW278167   4.482   9.581   0.139
25424SOL     OW78168   4.231   8.963   2.654
25424SOL    HW178169   4.234   8.886   2.710
25424SOL    HW278170   4.247   9.036   2.713
25425SOL     OW78171   7.438   3.737   6.746
25425SOL    HW178172   7.473   3.648   6.735
25425SOL    HW278173   7.443   3.775   6.658
25426SOL     OW78174   6.969  10.301   5.752
25426SOL    HW178175   6.921  10.243   5.693
25426SOL    HW278176   7.060  10.293   5.724
25427SOL     OW78177  13.135   3.060   0.215
25427SOL    HW178178  13.140   2.980   0.268
25427SOL    HW278179  13.206   3.115   0.249
25428SOL     OW78180   3.036   6.211   3.227
25428SOL    HW178181   2.966   6.155   3.261
25428SOL    HW278182   3.090   6.152   3.174
25429SOL     OW78183  14.481  11.299  10.687
25429SOL    HW178184  14.445  11.326  10.603
25429SOL    HW278185  14.424  11.227  10.715
25430SOL     OW78186   4.417  10.874  11.164
25430SOL    HW178187   4.340  10.915  11.203
25430SOL    HW278188   4.450  10.816  11.232
25431SOL     OW78189  13.465  11.128  13.621
25431SOL    HW178190  13.473  11.112  13.715
25431SOL    HW278191  13.511  11.055  13.580
25432SOL     OW78192  13.653   8.675   9.513
25432SOL    HW178193  13.583   8.611   9.525
25432SOL    HW278194  13.630   8.747   9.571
25433SOL     OW78195   3.911   9.081   1.205
25433SOL    HW178196   3.996   9.038   1.194
25433SOL    HW278197   3.910   9.107   1.297
25434SOL     OW78198  13.351  10.492   1.593
25434SOL    HW178199  13.291  10.556   1.630
25434SOL    HW278200  13.396  10.455   1.669
25435SOL     OW78201   8.325   8.353   9.248
25435SOL    HW178202   8.282   8.377   9.166
25435SOL    HW278203   8.333   8.435   9.296
25436SOL     OW78204  14.272  11.873  12.756
25436SOL    HW178205  14.241  11.949  12.708
25436SOL    HW278206  14.356  11.851  12.716
25437SOL     OW78207   1.984   3.873   4.537
25437SOL    HW178208   1.976   3.891   4.631
25437SOL    HW278209   1.987   3.960   4.496
25438SOL     OW78210   2.418  13.082   8.332
25438SOL    HW178211   2.328  13.059   8.310
25438SOL    HW278212   2.456  13.113   8.249
25439SOL     OW78213   2.493   1.691   5.152
25439SOL    HW178214   2.477   1.613   5.099
25439SOL    HW278215   2.423   1.751   5.129
25440SOL     OW78216   2.836  14.214  12.081
25440SOL    HW178217   2.767  14.212  12.016
25440SOL    HW278218   2.846  14.123  12.110
25441SOL     OW78219   3.954  11.427   9.722
25441SOL    HW178220   4.004  11.506   9.744
25441SOL    HW278221   3.869  11.440   9.764
25442SOL     OW78222   8.912   0.457  14.612
25442SOL    HW178223   8.987   0.398  14.622
25442SOL    HW278224   8.862   0.446  14.692
25443SOL     OW78225   8.952   8.363   2.191
25443SOL    HW178226   8.941   8.458   2.189
25443SOL    HW278227   9.046   8.349   2.177
25444SOL     OW78228   2.547   3.169  14.424
25444SOL    HW178229   2.484   3.232  14.459
25444SOL    HW278230   2.629   3.219  14.418
25445SOL     OW78231   6.449   9.910  14.023
25445SOL    HW178232   6.361   9.879  14.003
25445SOL    HW278233   6.507   9.841  13.989
25446SOL     OW78234  10.432   2.342   4.832
25446SOL    HW178235  10.464   2.431   4.847
25446SOL    HW278236  10.510   2.287   4.840
25447SOL     OW78237   8.762   1.006  10.333
25447SOL    HW178238   8.711   1.012  10.414
25447SOL    HW278239   8.698   0.985  10.266
25448SOL     OW78240  11.933   1.243   4.422
25448SOL    HW178241  11.862   1.305   4.407
25448SOL    HW278242  11.980   1.239   4.338
25449SOL     OW78243   6.571   3.888  12.706
25449SOL    HW178244   6.524   3.851  12.632
25449SOL    HW278245   6.529   3.849  12.783
25450SOL     OW78246  11.039   0.353   5.468
25450SOL    HW178247  11.072   0.382   5.383
25450SOL    HW278248  10.977   0.283   5.447
25451SOL     OW78249  10.155  13.606   2.806
25451SOL    HW178250  10.187  13.518   2.826
25451SOL    HW278251  10.105  13.631   2.883
25452SOL     OW78252   0.570  11.428   3.651
25452SOL    HW178253   0.530  11.501   3.604
25452SOL    HW278254   0.497  11.372   3.676
25453SOL     OW78255  11.384  12.895  13.206
25453SOL    HW178256  11.309  12.835  13.203
25453SOL    HW278257  11.348  12.977  13.238
25454SOL     OW78258   3.002  12.549  13.753
25454SOL    HW178259   3.002  12.473  13.811
25454SOL    HW278260   3.070  12.606  13.788
25455SOL     OW78261   0.426   3.677   2.834
25455SOL    HW178262   0.454   3.668   2.742
25455SOL    HW278263   0.493   3.630   2.884
25456SOL     OW78264  13.920   0.480   6.285
25456SOL    HW178265  13.990   0.485   6.350
25456SOL    HW278266  13.907   0.571   6.256
25457SOL     OW78267  14.556  10.195   3.778
25457SOL    HW178268  14.564  10.147   3.695
25457SOL    HW278269  14.602  10.140   3.842
25458SOL     OW78270  14.411   1.083   4.205
25458SOL    HW178271  14.394   1.000   4.249
25458SOL    HW278272  14.384   1.149   4.268
25459SOL     OW78273   3.261   4.299   4.239
25459SOL    HW178274   3.285   4.286   4.331
25459SOL    HW278275   3.300   4.383   4.216
25460SOL     OW78276   2.011   5.138   4.946
25460SOL    HW178277   1.968   5.161   5.028
25460SOL    HW278278   1.967   5.058   4.917
25461SOL     OW78279   9.345   5.898  12.154
25461SOL    HW178280   9.372   5.817  12.198
25461SOL    HW278281   9.303   5.950  12.223
25462SOL     OW78282   1.192   6.681  12.609
25462SOL    HW178283   1.232   6.597  12.586
25462SOL    HW278284   1.248   6.715  12.679
25463SOL     OW78285   7.615  12.319  10.898
25463SOL    HW178286   7.558  12.266  10.955
25463SOL    HW278287   7.556  12.359  10.835
25464SOL     OW78288   6.409  13.357  11.178
25464SOL    HW178289   6.354  13.365  11.100
25464SOL    HW278290   6.395  13.439  11.225
25465SOL     OW78291   3.432  13.117  12.107
25465SOL    HW178292   3.457  13.194  12.056
25465SOL    HW278293   3.417  13.049  12.041
25466SOL     OW78294   8.883   9.820   7.965
25466SOL    HW178295   8.951   9.877   7.931
25466SOL    HW278296   8.877   9.843   8.058
25467SOL     OW78297   1.590  13.005   2.279
25467SOL    HW178298   1.608  13.058   2.356
25467SOL    HW278299   1.646  13.043   2.211
25468SOL     OW78300   8.857   0.043  11.389
25468SOL    HW178301   8.948   0.058  11.415
25468SOL    HW278302   8.820   0.130  11.377
25469SOL     OW78303  13.760   9.795  13.288
25469SOL    HW178304  13.708   9.850  13.229
25469SOL    HW278305  13.786   9.720  13.235
25470SOL     OW78306   6.849  13.746   5.564
25470SOL    HW178307   6.822  13.689   5.636
25470SOL    HW278308   6.934  13.781   5.592
25471SOL     OW78309   7.833   0.111   4.048
25471SOL    HW178310   7.802   0.079   4.132
25471SOL    HW278311   7.770   0.078   3.984
25472SOL     OW78312   5.932   8.063  14.867
25472SOL    HW178313   5.942   8.024   0.077
25472SOL    HW278314   5.874   8.138   0.003
25473SOL     OW78315  11.116   1.715   6.258
25473SOL    HW178316  11.117   1.624   6.288
25473SOL    HW278317  11.042   1.754   6.305
25474SOL     OW78318  11.033   8.973   9.092
25474SOL    HW178319  11.116   8.968   9.139
25474SOL    HW278320  11.030   9.061   9.056
25475SOL     OW78321  10.997  11.984   7.385
25475SOL    HW178322  10.953  12.051   7.438
25475SOL    HW278323  10.960  11.901   7.415
25476SOL     OW78324   5.993   7.443   7.281
25476SOL    HW178325   5.941   7.381   7.231
25476SOL    HW278326   5.929   7.507   7.314
25477SOL     OW78327   2.390   6.433  11.615
25477SOL    HW178328   2.338   6.373  11.562
25477SOL    HW278329   2.464   6.380  11.646
25478SOL     OW78330   0.575   3.011  14.101
25478SOL    HW178331   0.667   3.023  14.127
25478SOL    HW278332   0.578   2.950  14.028
25479SOL     OW78333   5.320   6.065   2.252
25479SOL    HW178334   5.269   6.126   2.198
25479SOL    HW278335   5.314   6.100   2.341
25480SOL     OW78336  13.067   6.729   1.780
25480SOL    HW178337  13.138   6.771   1.731
25480SOL    HW278338  13.028   6.667   1.719
25481SOL     OW78339  13.828   9.551   9.068
25481SOL    HW178340  13.777   9.517   9.142
25481SOL    HW278341  13.883   9.619   9.106
25482SOL     OW78342   2.617   9.683   2.478
25482SOL    HW178343   2.633   9.775   2.459
25482SOL    HW278344   2.697   9.639   2.450
25483SOL     OW78345  14.589   1.729   8.407
25483SOL    HW178346  14.589   1.635   8.428
25483SOL    HW278347  14.661   1.739   8.344
25484SOL     OW78348  13.893  10.329   6.746
25484SOL    HW178349  13.871  10.272   6.819
25484SOL    HW278350  13.831  10.305   6.677
25485SOL     OW78351   1.442  14.134   9.641
25485SOL    HW178352   1.378  14.187   9.594
25485SOL    HW278353   1.525  14.180   9.632
25486SOL     OW78354   4.573  10.762  11.410
25486SOL    HW178355   4.597  10.676  11.447
25486SOL    HW278356   4.574  10.821  11.486
25487SOL     OW78357   1.693  11.729   1.660
25487SOL    HW178358   1.634  11.682   1.720
25487SOL    HW278359   1.765  11.759   1.716
25488SOL     OW78360  11.592   1.030   2.158
25488SOL    HW178361  11.664   1.073   2.111
25488SOL    HW278362  11.631   1.003   2.241
25489SOL     OW78363   0.884   2.140   4.077
25489SOL    HW178364   0.879   2.227   4.117
25489SOL    HW278365   0.869   2.079   4.150
25490SOL     OW78366  10.720  12.221   1.702
25490SOL    HW178367  10.718  12.258   1.614
25490SOL    HW278368  10.806  12.180   1.709
25491SOL     OW78369   0.491   9.210  13.819
25491SOL    HW178370   0.430   9.157  13.869
25491SOL    HW278371   0.437   9.274  13.774
25492SOL     OW78372  14.531   7.569  14.431
25492SOL    HW178373  14.571   7.530  14.353
25492SOL    HW278374  14.449   7.607  14.398
25493SOL     OW78375   5.314  13.760   9.889
25493SOL    HW178376   5.323  13.665   9.886
25493SOL    HW278377   5.263  13.782   9.811
25494SOL     OW78378  14.869   8.354   8.873
25494SOL    HW178379   0.036   8.380   8.792
25494SOL    HW278380   0.031   8.269   8.895
25495SOL     OW78381   6.803   0.647   3.089
25495SOL    HW178382   6.821   0.696   3.169
25495SOL    HW278383   6.856   0.690   3.022
25496SOL     OW78384   4.263   7.521   3.261
25496SOL    HW178385   4.294   7.571   3.185
25496SOL    HW278386   4.281   7.577   3.336
25497SOL     OW78387  10.064   9.000   0.842
25497SOL    HW178388   9.996   9.031   0.782
25497SOL    HW278389  10.036   8.911   0.866
25498SOL     OW78390   9.685   1.714   5.990
25498SOL    HW178391   9.634   1.650   6.039
25498SOL    HW278392   9.641   1.720   5.905
25499SOL     OW78393   6.450   9.572   6.511
25499SOL    HW178394   6.528   9.620   6.483
25499SOL    HW278395   6.400   9.557   6.431
25500SOL     OW78396   5.084  13.577  11.431
25500SOL    HW178397   5.052  13.494  11.396
25500SOL    HW278398   5.170  13.588  11.392
25501SOL     OW78399   1.665   5.436   9.977
25501SOL    HW178400   1.647   5.374   9.906
25501SOL    HW278401   1.603   5.411  10.046
25502SOL     OW78402   0.394   7.670   7.412
25502SOL    HW178403   0.442   7.589   7.395
25502SOL    HW278404   0.305   7.642   7.432
25503SOL     OW78405   8.806   8.892   5.390
25503SOL    HW178406   8.758   8.853   5.316
25503SOL    HW278407   8.897   8.894   5.361
25504SOL     OW78408   7.998  14.017  12.980
25504SOL    HW178409   8.064  13.972  13.032
25504SOL    HW278410   8.043  14.037  12.898
25505SOL     OW78411   4.889   7.615   2.004
25505SOL    HW178412   4.837   7.652   1.933
25505SOL    HW278413   4.825   7.574   2.062
25506SOL     OW78414  10.846   4.557  13.784
25506SOL    HW178415  10.890   4.488  13.835
25506SOL    HW278416  10.889   4.553  13.698
25507SOL     OW78417  10.720   9.403  11.183
25507SOL    HW178418  10.761   9.316  11.177
25507SOL    HW278419  10.647   9.391  11.244
25508SOL     OW78420   1.265   8.057   5.571
25508SOL    HW178421   1.267   7.964   5.596
25508SOL    HW278422   1.325   8.063   5.497
25509SOL     OW78423   8.077   1.790   1.073
25509SOL    HW178424   7.993   1.749   1.053
25509SOL    HW278425   8.088   1.857   1.005
25510SOL     OW78426   8.655   9.499   5.946
25510SOL    HW178427   8.581   9.545   5.984
25510SOL    HW278428   8.699   9.565   5.893
25511SOL     OW78429   6.117  14.787  12.728
25511SOL    HW178430   6.162  14.707  12.752
25511SOL    HW278431   6.187  14.848  12.705
25512SOL     OW78432   9.730   1.238   6.537
25512SOL    HW178433   9.736   1.165   6.599
25512SOL    HW278434   9.660   1.214   6.477
25513SOL     OW78435   1.060  14.673   6.186
25513SOL    HW178436   1.059  14.655   6.092
25513SOL    HW278437   1.152  14.664   6.211
25514SOL     OW78438  13.694  14.451   9.706
25514SOL    HW178439  13.628  14.383   9.695
25514SOL    HW278440  13.775  14.404   9.723
25515SOL     OW78441   0.593   5.578   6.632
25515SOL    HW178442   0.632   5.639   6.695
25515SOL    HW278443   0.643   5.497   6.644
25516SOL     OW78444   0.793   4.568  12.086
25516SOL    HW178445   0.808   4.648  12.135
25516SOL    HW278446   0.879   4.542  12.053
25517SOL     OW78447   9.537  10.798   1.152
25517SOL    HW178448   9.526  10.772   1.243
25517SOL    HW278449   9.449  10.821   1.122
25518SOL     OW78450   9.766   3.477   4.485
25518SOL    HW178451   9.825   3.402   4.477
25518SOL    HW278452   9.681   3.443   4.458
25519SOL     OW78453   5.809   8.471   6.689
25519SOL    HW178454   5.868   8.523   6.743
25519SOL    HW278455   5.864   8.400   6.656
25520SOL     OW78456   8.776   9.741  10.094
25520SOL    HW178457   8.753   9.653  10.123
25520SOL    HW278458   8.710   9.763  10.028
25521SOL     OW78459   5.947   1.699   1.597
25521SOL    HW178460   6.009   1.639   1.640
25521SOL    HW278461   6.002   1.767   1.560
25522SOL     OW78462   6.090   9.486   0.427
25522SOL    HW178463   6.094   9.392   0.410
25522SOL    HW278464   6.085   9.526   0.340
25523SOL     OW78465  13.393   9.518   4.743
25523SOL    HW178466  13.374   9.554   4.656
25523SOL    HW278467  13.441   9.437   4.726
25524SOL     OW78468   7.049   4.541   6.358
25524SOL    HW178469   6.997   4.560   6.279
25524SOL    HW278470   7.132   4.508   6.324
25525SOL     OW78471   2.014  14.494   9.836
25525SOL    HW178472   1.945  14.542   9.883
25525SOL    HW278473   1.970  14.416   9.802
25526SOL     OW78474   6.813   3.331   4.373
25526SOL    HW178475   6.822   3.409   4.428
25526SOL    HW278476   6.724   3.301   4.390
25527SOL     OW78477  10.331  14.599  10.156
25527SOL    HW178478  10.361  14.513  10.125
25527SOL    HW278479  10.296  14.642  10.077
25528SOL     OW78480   9.930   2.681  13.917
25528SOL    HW178481   9.871   2.746  13.954
25528SOL    HW278482   9.872   2.614  13.880
25529SOL     OW78483   7.906  14.652  14.096
25529SOL    HW178484   7.855  14.592  14.150
25529SOL    HW278485   7.961  14.699  14.158
25530SOL     OW78486   0.835   3.245   2.071
25530SOL    HW178487   0.826   3.218   1.980
25530SOL    HW278488   0.928   3.232   2.090
25531SOL     OW78489   4.766  12.900   4.016
25531SOL    HW178490   4.779  12.831   4.081
25531SOL    HW278491   4.809  12.977   4.053
25532SOL     OW78492   5.512   8.302  11.841
25532SOL    HW178493   5.496   8.312  11.747
25532SOL    HW278494   5.428   8.273  11.876
25533SOL     OW78495   7.392   1.383   0.330
25533SOL    HW178496   7.381   1.402   0.237
25533SOL    HW278497   7.468   1.325   0.334
25534SOL     OW78498   8.256   8.607   2.510
25534SOL    HW178499   8.333   8.551   2.525
25534SOL    HW278500   8.281   8.691   2.547
25535SOL     OW78501   0.217   1.214   6.911
25535SOL    HW178502   0.298   1.172   6.882
25535SOL    HW278503   0.153   1.144   6.915
25536SOL     OW78504   3.573   6.608  13.160
25536SOL    HW178505   3.569   6.604  13.255
25536SOL    HW278506   3.573   6.517  13.132
25537SOL     OW78507  11.964  11.954  14.826
25537SOL    HW178508  11.985  11.917   0.034
25537SOL    HW278509  11.992  12.046  14.832
25538SOL     OW78510  12.501   3.279   2.229
25538SOL    HW178511  12.522   3.249   2.141
25538SOL    HW278512  12.568   3.345   2.249
25539SOL     OW78513  14.726   3.791  11.238
25539SOL    HW178514  14.804   3.835  11.203
25539SOL    HW278515  14.694   3.738  11.165
25540SOL     OW78516   8.728   8.211   8.910
25540SOL    HW178517   8.745   8.157   8.832
25540SOL    HW278518   8.633   8.209   8.920
25541SOL     OW78519   8.047   3.844   8.059
25541SOL    HW178520   7.973   3.818   8.004
25541SOL    HW278521   8.109   3.772   8.051
25542SOL     OW78522  14.039   4.632   9.609
25542SOL    HW178523  13.966   4.687   9.578
25542SOL    HW278524  14.059   4.575   9.534
25543SOL     OW78525   3.843   0.695   8.577
25543SOL    HW178526   3.807   0.620   8.624
25543SOL    HW278527   3.809   0.687   8.488
25544SOL     OW78528  12.161  10.765   9.442
25544SOL    HW178529  12.094  10.728   9.385
25544SOL    HW278530  12.244  10.736   9.404
25545SOL     OW78531   4.087  12.748   8.802
25545SOL    HW178532   4.155  12.809   8.831
25545SOL    HW278533   4.100  12.671   8.857
25546SOL     OW78534   0.553  11.637  14.048
25546SOL    HW178535   0.633  11.685  14.070
25546SOL    HW278536   0.563  11.614  13.956
25547SOL     OW78537  12.973   2.948  12.753
25547SOL    HW178538  12.930   2.908  12.677
25547SOL    HW278539  13.036   3.008  12.715
25548SOL     OW78540   6.874   3.794   2.803
25548SOL    HW178541   6.779   3.788   2.794
25548SOL    HW278542   6.903   3.704   2.815
25549SOL     OW78543   5.569   7.352   6.210
25549SOL    HW178544   5.609   7.400   6.283
25549SOL    HW278545   5.606   7.393   6.132
25550SOL     OW78546   6.643  12.160  13.784
25550SOL    HW178547   6.687  12.189  13.704
25550SOL    HW278548   6.625  12.240  13.832
25551SOL     OW78549   7.129   2.257   0.351
25551SOL    HW178550   7.187   2.334   0.354
25551SOL    HW278551   7.050   2.285   0.396
25552SOL     OW78552   7.739   0.796  12.186
25552SOL    HW178553   7.745   0.761  12.097
25552SOL    HW278554   7.789   0.877  12.184
25553SOL     OW78555   1.691   1.546   1.516
25553SOL    HW178556   1.658   1.460   1.487
25553SOL    HW278557   1.782   1.548   1.486
25554SOL     OW78558  10.773   1.983   4.330
25554SOL    HW178559  10.728   1.905   4.361
25554SOL    HW278560  10.753   1.988   4.237
25555SOL     OW78561   7.294   7.738   8.178
25555SOL    HW178562   7.216   7.792   8.194
25555SOL    HW278563   7.348   7.791   8.119
25556SOL     OW78564  14.367   3.249  10.603
25556SOL    HW178565  14.336   3.338  10.588
25556SOL    HW278566  14.291   3.203  10.639
25557SOL     OW78567   0.906   8.641  11.418
25557SOL    HW178568   0.918   8.634  11.512
25557SOL    HW278569   0.820   8.602  11.401
25558SOL     OW78570   7.914   9.755   8.377
25558SOL    HW178571   7.820   9.764   8.364
25558SOL    HW278572   7.951   9.765   8.290
25559SOL     OW78573   3.683   2.621   3.638
25559SOL    HW178574   3.650   2.577   3.560
25559SOL    HW278575   3.627   2.699   3.647
25560SOL     OW78576   2.064  13.525   4.897
25560SOL    HW178577   2.099  13.440   4.872
25560SOL    HW278578   2.115  13.551   4.973
25561SOL     OW78579  10.223   4.490  10.107
25561SOL    HW178580  10.182   4.432  10.172
25561SOL    HW278581  10.155   4.554  10.086
25562SOL     OW78582   9.080   8.209  13.554
25562SOL    HW178583   9.155   8.162  13.592
25562SOL    HW278584   9.016   8.140  13.536
25563SOL     OW78585  12.289   9.882   2.599
25563SOL    HW178586  12.225   9.952   2.590
25563SOL    HW278587  12.359   9.905   2.538
25564SOL     OW78588   0.045  13.336   2.628
25564SOL    HW178589   0.060  13.325   2.534
25564SOL    HW278590   0.119  13.389   2.658
25565SOL     OW78591   2.057  14.507   5.015
25565SOL    HW178592   2.049  14.601   5.000
25565SOL    HW278593   2.091  14.472   4.932
25566SOL     OW78594  12.118   6.537  11.621
25566SOL    HW178595  12.214   6.538  11.624
25566SOL    HW278596  12.091   6.577  11.703
25567SOL     OW78597   3.265   7.078  11.055
25567SOL    HW178598   3.359   7.072  11.068
25567SOL    HW278599   3.243   7.004  10.998
25568SOL     OW78600  12.667  13.501   2.966
25568SOL    HW178601  12.635  13.413   2.985
25568SOL    HW278602  12.668  13.546   3.050
25569SOL     OW78603   0.120  11.413   9.055
25569SOL    HW178604   0.072  11.371   8.984
25569SOL    HW278605   0.057  11.416   9.127
25570SOL     OW78606  12.225  11.645   2.422
25570SOL    HW178607  12.152  11.585   2.406
25570SOL    HW278608  12.189  11.732   2.406
25571SOL     OW78609  14.630  10.057  12.142
25571SOL    HW178610  14.548  10.008  12.151
25571SOL    HW278611  14.607  10.130  12.086
25572SOL     OW78612   9.827   6.538   1.973
25572SOL    HW178613   9.913   6.497   1.980
25572SOL    HW278614   9.820   6.592   2.052
25573SOL     OW78615  12.435   8.485  11.819
25573SOL    HW178616  12.420   8.392  11.834
25573SOL    HW278617  12.437   8.524  11.907
25574SOL     OW78618   5.164   7.273   1.720
25574SOL    HW178619   5.179   7.179   1.708
25574SOL    HW278620   5.204   7.292   1.805
25575SOL     OW78621   1.267   4.610  12.145
25575SOL    HW178622   1.347   4.578  12.103
25575SOL    HW278623   1.273   4.705  12.138
25576SOL     OW78624   7.459   1.590  12.259
25576SOL    HW178625   7.410   1.673  12.265
25576SOL    HW278626   7.501   1.594  12.173
25577SOL     OW78627  13.428  11.467  13.311
25577SOL    HW178628  13.356  11.404  13.308
25577SOL    HW278629  13.485  11.436  13.381
25578SOL     OW78630  10.543   6.665   9.076
25578SOL    HW178631  10.562   6.752   9.040
25578SOL    HW278632  10.546   6.678   9.171
25579SOL     OW78633   4.267   1.024  13.988
25579SOL    HW178634   4.246   0.973  14.067
25579SOL    HW278635   4.362   1.034  13.990
25580SOL     OW78636  14.671   6.810  13.635
25580SOL    HW178637  14.604   6.748  13.607
25580SOL    HW278638  14.675   6.800  13.730
25581SOL     OW78639   9.138   4.075   0.879
25581SOL    HW178640   9.202   4.019   0.922
25581SOL    HW278641   9.053   4.040   0.907
25582SOL     OW78642   0.552   5.926  10.051
25582SOL    HW178643   0.586   5.986   9.984
25582SOL    HW278644   0.586   5.960  10.134
25583SOL     OW78645  11.058  14.355   3.553
25583SOL    HW178646  11.086  14.327   3.466
25583SOL    HW278647  11.084  14.283   3.611
25584SOL     OW78648   7.044   9.043  12.213
25584SOL    HW178649   7.027   9.136  12.225
25584SOL    HW278650   7.127   9.040  12.166
25585SOL     OW78651   4.571   9.342   1.481
25585SOL    HW178652   4.565   9.379   1.393
25585SOL    HW278653   4.524   9.404   1.537
25586SOL     OW78654  11.082   6.619   2.663
25586SOL    HW178655  11.081   6.714   2.654
25586SOL    HW278656  11.082   6.587   2.572
25587SOL     OW78657  13.527  13.935  10.692
25587SOL    HW178658  13.620  13.911  10.699
25587SOL    HW278659  13.482  13.875  10.752
25588SOL     OW78660   8.676   7.511   9.880
25588SOL    HW178661   8.720   7.485   9.799
25588SOL    HW278662   8.586   7.479   9.870
25589SOL     OW78663   8.109   2.549   9.052
25589SOL    HW178664   8.113   2.467   9.003
25589SOL    HW278665   8.055   2.607   8.998
25590SOL     OW78666   3.507   1.623   4.114
25590SOL    HW178667   3.499   1.579   4.030
25590SOL    HW278668   3.539   1.554   4.174
25591SOL     OW78669   7.261  11.272   4.885
25591SOL    HW178670   7.276  11.229   4.801
25591SOL    HW278671   7.296  11.360   4.875
25592SOL     OW78672  11.645   8.023   7.393
25592SOL    HW178673  11.694   7.969   7.456
25592SOL    HW278674  11.698   8.101   7.381
25593SOL     OW78675   5.848  10.555   1.117
25593SOL    HW178676   5.900  10.504   1.180
25593SOL    HW278677   5.785  10.602   1.172
25594SOL     OW78678  10.196   0.031   1.875
25594SOL    HW178679  10.153   0.109   1.839
25594SOL    HW278680  10.222  14.859   1.797
25595SOL     OW78681   6.530  11.897  10.111
25595SOL    HW178682   6.539  11.943  10.028
25595SOL    HW278683   6.505  11.965  10.174
25596SOL     OW78684  12.431   1.208   3.782
25596SOL    HW178685  12.358   1.201   3.720
25596SOL    HW278686  12.408   1.147   3.853
25597SOL     OW78687   6.285   1.777   9.172
25597SOL    HW178688   6.298   1.713   9.243
25597SOL    HW278689   6.267   1.723   9.095
25598SOL     OW78690   3.569  11.698   6.187
25598SOL    HW178691   3.622  11.693   6.107
25598SOL    HW278692   3.600  11.626   6.241
25599SOL     OW78693  11.477  11.937  12.381
25599SOL    HW178694  11.417  11.895  12.320
25599SOL    HW278695  11.486  12.026  12.347
25600SOL     OW78696  14.700   4.821   7.769
25600SOL    HW178697  14.699   4.913   7.796
25600SOL    HW278698  14.774   4.784   7.817
25601SOL     OW78699  10.031   1.506   1.804
25601SOL    HW178700  10.055   1.459   1.724
25601SOL    HW278701  10.007   1.593   1.774
25602SOL     OW78702  12.707   9.190  13.732
25602SOL    HW178703  12.757   9.191  13.651
25602SOL    HW278704  12.712   9.280  13.764
25603SOL     OW78705   3.381   2.183   8.930
25603SOL    HW178706   3.428   2.151   9.007
25603SOL    HW278707   3.428   2.262   8.904
25604SOL     OW78708   6.646   6.751   9.496
25604SOL    HW178709   6.588   6.746   9.420
25604SOL    HW278710   6.663   6.845   9.507
25605SOL     OW78711  10.535  12.788   2.113
25605SOL    HW178712  10.593  12.862   2.096
25605SOL    HW278713  10.539  12.735   2.034
25606SOL     OW78714  12.901   5.712  10.049
25606SOL    HW178715  12.830   5.683   9.991
25606SOL    HW278716  12.928   5.797  10.012
25607SOL     OW78717   1.970   4.680   7.054
25607SOL    HW178718   2.019   4.693   7.135
25607SOL    HW278719   2.031   4.634   6.997
25608SOL     OW78720   1.368   2.564   0.564
25608SOL    HW178721   1.317   2.538   0.641
25608SOL    HW278722   1.428   2.492   0.549
25609SOL     OW78723  11.817   3.628   0.234
25609SOL    HW178724  11.817   3.685   0.311
25609SOL    HW278725  11.892   3.571   0.246
25610SOL     OW78726   9.476   2.473  13.684
25610SOL    HW178727   9.426   2.392  13.677
25610SOL    HW278728   9.478   2.509  13.596
25611SOL     OW78729   3.209   9.986  12.435
25611SOL    HW178730   3.297   9.957  12.413
25611SOL    HW278731   3.196   9.959  12.526
25612SOL     OW78732   8.212  12.214   3.800
25612SOL    HW178733   8.238  12.247   3.886
25612SOL    HW278734   8.119  12.193   3.809
25613SOL     OW78735   3.819   0.057  12.328
25613SOL    HW178736   3.780  14.852  12.300
25613SOL    HW278737   3.745   0.114  12.347
25614SOL     OW78738  13.498   3.487  10.672
25614SOL    HW178739  13.458   3.402  10.690
25614SOL    HW278740  13.427   3.551  10.682
25615SOL     OW78741  14.185   2.452   2.191
25615SOL    HW178742  14.139   2.434   2.273
25615SOL    HW278743  14.120   2.438   2.123
25616SOL     OW78744   0.675  14.019   6.032
25616SOL    HW178745   0.606  13.970   5.986
25616SOL    HW278746   0.677  13.981   6.119
25617SOL     OW78747   1.171   3.599  11.818
25617SOL    HW178748   1.261   3.616  11.844
25617SOL    HW278749   1.169   3.506  11.797
25618SOL     OW78750   7.465   4.376  12.819
25618SOL    HW178751   7.459   4.284  12.793
25618SOL    HW278752   7.457   4.425  12.737
25619SOL     OW78753   6.605   2.522   4.902
25619SOL    HW178754   6.513   2.513   4.929
25619SOL    HW278755   6.604   2.594   4.839
25620SOL     OW78756   3.486   9.008   7.220
25620SOL    HW178757   3.540   9.065   7.274
25620SOL    HW278758   3.474   8.929   7.273
25621SOL     OW78759   6.777   2.709   5.090
25621SOL    HW178760   6.745   2.769   5.023
25621SOL    HW278761   6.739   2.624   5.066
25622SOL     OW78762  12.849   4.254   9.255
25622SOL    HW178763  12.838   4.233   9.347
25622SOL    HW278764  12.860   4.169   9.212
25623SOL     OW78765  13.612   6.707   7.955
25623SOL    HW178766  13.632   6.781   8.012
25623SOL    HW278767  13.688   6.649   7.963
25624SOL     OW78768   0.144   1.633   5.250
25624SOL    HW178769   0.072   1.690   5.224
25624SOL    HW278770   0.222   1.677   5.217
25625SOL     OW78771   0.056  14.160   8.168
25625SOL    HW178772   0.025  14.082   8.215
25625SOL    HW278773   0.102  14.124   8.092
25626SOL     OW78774  13.973   8.415   1.828
25626SOL    HW178775  13.920   8.420   1.908
25626SOL    HW278776  13.941   8.486   1.773
25627SOL     OW78777  14.143   5.415   3.765
25627SOL    HW178778  14.114   5.459   3.685
25627SOL    HW278779  14.151   5.485   3.829
25628SOL     OW78780   8.302   9.973   4.028
25628SOL    HW178781   8.282  10.058   3.987
25628SOL    HW278782   8.220   9.945   4.068
25629SOL     OW78783  12.203   6.578  13.071
25629SOL    HW178784  12.232   6.627  12.994
25629SOL    HW278785  12.153   6.641  13.122
25630SOL     OW78786   4.278   0.819   3.794
25630SOL    HW178787   4.283   0.778   3.708
25630SOL    HW278788   4.196   0.787   3.832
25631SOL     OW78789  10.087  14.833   7.881
25631SOL    HW178790  10.115  14.751   7.841
25631SOL    HW278791  10.165   0.010   7.880
25632SOL     OW78792  13.670   2.808   1.410
25632SOL    HW178793  13.704   2.888   1.449
25632SOL    HW278794  13.702   2.809   1.320
25633SOL     OW78795   4.256   7.399   8.369
25633SOL    HW178796   4.309   7.467   8.329
25633SOL    HW278797   4.198   7.369   8.300
25634SOL     OW78798  13.819   1.503   2.626
25634SOL    HW178799  13.733   1.542   2.641
25634SOL    HW278800  13.854   1.548   2.550
25635SOL     OW78801   0.133  11.229   7.476
25635SOL    HW178802   0.169  11.155   7.427
25635SOL    HW278803   0.039  11.225   7.460
25636SOL     OW78804   8.952   5.948   4.480
25636SOL    HW178805   9.046   5.966   4.488
25636SOL    HW278806   8.918   5.964   4.568
25637SOL     OW78807   4.960  14.689   8.481
25637SOL    HW178808   4.981  14.667   8.390
25637SOL    HW278809   4.995  14.778   8.492
25638SOL     OW78810   6.817   0.976   9.638
25638SOL    HW178811   6.750   0.924   9.684
25638SOL    HW278812   6.896   0.964   9.691
25639SOL     OW78813  10.412   0.283   4.258
25639SOL    HW178814  10.351   0.356   4.247
25639SOL    HW278815  10.414   0.267   4.353
25640SOL     OW78816  14.078   7.314  12.941
25640SOL    HW178817  14.107   7.370  12.869
25640SOL    HW278818  14.058   7.230  12.899
25641SOL     OW78819  13.552   3.292   7.012
25641SOL    HW178820  13.543   3.266   6.921
25641SOL    HW278821  13.502   3.373   7.020
25642SOL     OW78822  11.225   5.896   4.570
25642SOL    HW178823  11.216   5.932   4.658
25642SOL    HW278824  11.168   5.819   4.569
25643SOL     OW78825   6.683   4.419   2.902
25643SOL    HW178826   6.668   4.357   2.973
25643SOL    HW278827   6.729   4.368   2.835
25644SOL     OW78828   8.752   0.873   8.414
25644SOL    HW178829   8.843   0.903   8.420
25644SOL    HW278830   8.725   0.895   8.325
25645SOL     OW78831  14.493   0.294  14.810
25645SOL    HW178832  14.402   0.317  14.788
25645SOL    HW278833  14.538   0.378  14.816
25646SOL     OW78834   1.038   5.471   7.042
25646SOL    HW178835   1.085   5.424   7.111
25646SOL    HW278836   0.946   5.447   7.056
25647SOL     OW78837  10.829   1.112   7.578
25647SOL    HW178838  10.769   1.090   7.506
25647SOL    HW278839  10.869   1.195   7.551
25648SOL     OW78840  10.995   0.129  12.422
25648SOL    HW178841  11.054   0.184  12.370
25648SOL    HW278842  10.938   0.087  12.357
25649SOL     OW78843   5.687   6.577   4.058
25649SOL    HW178844   5.745   6.504   4.080
25649SOL    HW278845   5.732   6.654   4.091
25650SOL     OW78846  12.493   0.888  12.953
25650SOL    HW178847  12.455   0.800  12.948
25650SOL    HW278848  12.466   0.931  12.872
25651SOL     OW78849  14.039  11.337   4.808
25651SOL    HW178850  14.100  11.361   4.739
25651SOL    HW278851  14.071  11.383   4.886
25652SOL     OW78852   9.330   7.522   4.503
25652SOL    HW178853   9.400   7.565   4.452
25652SOL    HW278854   9.269   7.593   4.524
25653SOL     OW78855   0.669  14.451   8.292
25653SOL    HW178856   0.578  14.423   8.305
25653SOL    HW278857   0.687  14.510   8.364
25654SOL     OW78858  10.405   7.821   3.695
25654SOL    HW178859  10.331   7.881   3.703
25654SOL    HW278860  10.474   7.861   3.748
25655SOL     OW78861  10.217   4.479   5.444
25655SOL    HW178862  10.274   4.491   5.368
25655SOL    HW278863  10.193   4.567   5.471
25656SOL     OW78864   6.155   7.164  10.334
25656SOL    HW178865   6.063   7.158  10.309
25656SOL    HW278866   6.176   7.079  10.371
25657SOL     OW78867   1.874   9.193   6.018
25657SOL    HW178868   1.852   9.134   5.945
25657SOL    HW278869   1.900   9.275   5.975
25658SOL     OW78870  14.597   0.144  12.832
25658SOL    HW178871  14.626   0.230  12.802
25658SOL    HW278872  14.652   0.126  12.908
25659SOL     OW78873   3.833   8.005   7.871
25659SOL    HW178874   3.889   8.037   7.801
25659SOL    HW278875   3.795   7.924   7.837
25660SOL     OW78876   2.663   6.243   5.085
25660SOL    HW178877   2.732   6.221   5.147
25660SOL    HW278878   2.672   6.337   5.073
25661SOL     OW78879   3.443  13.403  12.901
25661SOL    HW178880   3.361  13.447  12.877
25661SOL    HW278881   3.492  13.468  12.952
25662SOL     OW78882   2.332  10.316   3.564
25662SOL    HW178883   2.302  10.258   3.494
25662SOL    HW278884   2.272  10.391   3.560
25663SOL     OW78885   3.718  14.714  11.431
25663SOL    HW178886   3.745  14.624  11.451
25663SOL    HW278887   3.636  14.704  11.383
25664SOL     OW78888   5.567   3.579  13.161
25664SOL    HW178889   5.633   3.645  13.184
25664SOL    HW278890   5.614   3.518  13.103
25665SOL     OW78891  14.283   8.335   3.538
25665SOL    HW178892  14.356   8.362   3.592
25665SOL    HW278893  14.210   8.324   3.600
25666SOL     OW78894   7.857   7.387   4.378
25666SOL    HW178895   7.875   7.327   4.306
25666SOL    HW278896   7.925   7.454   4.372
25667SOL     OW78897   1.480  13.593  11.701
25667SOL    HW178898   1.491  13.665  11.762
25667SOL    HW278899   1.393  13.607  11.662
25668SOL     OW78900   0.632  11.982  14.842
25668SOL    HW178901   0.583  12.005  14.762
25668SOL    HW278902   0.597  11.896  14.867
25669SOL     OW78903  14.784  10.092   4.429
25669SOL    HW178904  14.786  10.021   4.365
25669SOL    HW278905  14.749  10.052   4.508
25670SOL     OW78906   5.590  13.764   2.788
25670SOL    HW178907   5.556  13.832   2.846
25670SOL    HW278908   5.610  13.691   2.847
25671SOL     OW78909   7.813   3.569   3.129
25671SOL    HW178910   7.728   3.588   3.091
25671SOL    HW278911   7.846   3.653   3.159
25672SOL     OW78912  10.780  14.234   0.283
25672SOL    HW178913  10.825  14.215   0.201
25672SOL    HW278914  10.740  14.150   0.308
25673SOL     OW78915   2.560   7.328   2.004
25673SOL    HW178916   2.561   7.311   1.910
25673SOL    HW278917   2.652   7.324   2.030
25674SOL     OW78918  11.515  10.911  13.281
25674SOL    HW178919  11.481  10.912  13.192
25674SOL    HW278920  11.439  10.895  13.336
25675SOL     OW78921   7.086   7.990   4.841
25675SOL    HW178922   7.140   7.917   4.810
25675SOL    HW278923   7.150   8.055   4.871
25676SOL     OW78924   4.880   8.978   5.161
25676SOL    HW178925   4.957   9.033   5.144
25676SOL    HW278926   4.908   8.890   5.137
25677SOL     OW78927   6.650   7.534   2.209
25677SOL    HW178928   6.639   7.572   2.122
25677SOL    HW278929   6.735   7.491   2.206
25678SOL     OW78930  14.584   4.459   2.461
25678SOL    HW178931  14.506   4.456   2.405
25678SOL    HW278932  14.656   4.470   2.400
25679SOL     OW78933  11.538   4.429   3.498
25679SOL    HW178934  11.458   4.408   3.450
25679SOL    HW278935  11.535   4.524   3.511
25680SOL     OW78936   4.069   3.747   6.520
25680SOL    HW178937   4.073   3.744   6.425
25680SOL    HW278938   4.160   3.751   6.548
25681SOL     OW78939   3.267   0.106   7.673
25681SOL    HW178940   3.361   0.103   7.687
25681SOL    HW278941   3.241   0.015   7.657
25682SOL     OW78942  12.054   3.887  14.816
25682SOL    HW178943  12.060   3.974  14.777
25682SOL    HW278944  11.984   3.894   0.003
25683SOL     OW78945  12.912  11.568   3.573
25683SOL    HW178946  12.866  11.562   3.489
25683SOL    HW278947  12.933  11.478   3.595
25684SOL     OW78948   7.416   2.602  11.145
25684SOL    HW178949   7.472   2.677  11.164
25684SOL    HW278950   7.353   2.635  11.081
25685SOL     OW78951   1.308  10.885   3.745
25685SOL    HW178952   1.301  10.890   3.650
25685SOL    HW278953   1.314  10.976   3.774
25686SOL     OW78954   2.946  12.350  11.153
25686SOL    HW178955   2.888  12.391  11.217
25686SOL    HW278956   2.888  12.298  11.097
25687SOL     OW78957   4.841   0.829   1.198
25687SOL    HW178958   4.765   0.850   1.252
25687SOL    HW278959   4.826   0.739   1.169
25688SOL     OW78960  10.254  10.671   7.362
25688SOL    HW178961  10.284  10.586   7.394
25688SOL    HW278962  10.208  10.709   7.437
25689SOL     OW78963   4.895   9.618   7.507
25689SOL    HW178964   4.897   9.577   7.421
25689SOL    HW278965   4.889   9.712   7.490
25690SOL     OW78966   6.717   9.484   3.798
25690SOL    HW178967   6.707   9.458   3.890
25690SOL    HW278968   6.651   9.552   3.786
25691SOL     OW78969   4.170   3.899   0.983
25691SOL    HW178970   4.172   3.895   1.079
25691SOL    HW278971   4.262   3.901   0.957
25692SOL     OW78972   3.362   7.780  10.707
25692SOL    HW178973   3.286   7.831  10.680
25692SOL    HW278974   3.335   7.689  10.696
25693SOL     OW78975   2.528   2.608   2.971
25693SOL    HW178976   2.573   2.674   2.919
25693SOL    HW278977   2.498   2.544   2.907
25694SOL     OW78978   6.521   8.837   6.396
25694SOL    HW178979   6.523   8.742   6.405
25694SOL    HW278980   6.597   8.857   6.341
25695SOL     OW78981   1.016   9.947   8.871
25695SOL    HW178982   0.923   9.955   8.892
25695SOL    HW278983   1.056  10.025   8.908
25696SOL     OW78984  14.221   9.823  10.072
25696SOL    HW178985  14.258   9.738  10.097
25696SOL    HW278986  14.140   9.800  10.026
25697SOL     OW78987   6.423   5.104  11.529
25697SOL    HW178988   6.485   5.124  11.599
25697SOL    HW278989   6.349   5.162  11.544
25698SOL     OW78990   1.387   1.818  11.056
25698SOL    HW178991   1.440   1.794  10.980
25698SOL    HW278992   1.439   1.885  11.101
25699SOL     OW78993   9.830   4.348  10.306
25699SOL    HW178994   9.771   4.287  10.263
25699SOL    HW278995   9.825   4.326  10.399
25700SOL     OW78996   7.963   6.490   4.537
25700SOL    HW178997   8.056   6.480   4.515
25700SOL    HW278998   7.953   6.443   4.620
25701SOL     OW78999   7.912   5.212  10.197
25701SOL    HW179000   7.923   5.187  10.288
25701SOL    HW279001   7.924   5.307  10.196
25702SOL     OW79002   2.673   7.491   1.661
25702SOL    HW179003   2.655   7.417   1.719
25702SOL    HW279004   2.589   7.537   1.655
25703SOL     OW79005   6.839   2.753   2.242
25703SOL    HW179006   6.930   2.764   2.216
25703SOL    HW279007   6.840   2.678   2.302
25704SOL     OW79008   8.473   7.358   1.734
25704SOL    HW179009   8.562   7.374   1.703
25704SOL    HW279010   8.452   7.434   1.789
25705SOL     OW79011   5.896   7.931   1.233
25705SOL    HW179012   5.877   7.915   1.325
25705SOL    HW279013   5.929   8.021   1.230
25706SOL     OW79014   4.464   8.325   3.929
25706SOL    HW179015   4.552   8.360   3.916
25706SOL    HW279016   4.406   8.386   3.884
25707SOL     OW79017  13.972   9.294   8.677
25707SOL    HW179018  13.907   9.361   8.654
25707SOL    HW279019  13.996   9.314   8.767
25708SOL     OW79020  14.217   9.383  10.665
25708SOL    HW179021  14.194   9.306  10.716
25708SOL    HW279022  14.146   9.445  10.681
25709SOL     OW79023  13.124   4.441  12.102
25709SOL    HW179024  13.042   4.490  12.111
25709SOL    HW279025  13.098   4.360  12.058
25710SOL     OW79026  13.546   3.875  10.656
25710SOL    HW179027  13.608   3.871  10.583
25710SOL    HW279028  13.487   3.947  10.634
25711SOL     OW79029   7.713  13.755   1.286
25711SOL    HW179030   7.701  13.671   1.240
25711SOL    HW279031   7.639  13.759   1.347
25712SOL     OW79032   3.380   0.888   8.666
25712SOL    HW179033   3.382   0.975   8.706
25712SOL    HW279034   3.377   0.827   8.740
25713SOL     OW79035   4.190  11.351   8.166
25713SOL    HW179036   4.196  11.412   8.239
25713SOL    HW279037   4.280  11.340   8.136
25714SOL     OW79038  12.992   5.772   3.476
25714SOL    HW179039  12.933   5.698   3.468
25714SOL    HW279040  12.970   5.811   3.561
25715SOL     OW79041   1.062   9.935  10.393
25715SOL    HW179042   1.127   9.866  10.402
25715SOL    HW279043   0.981   9.890  10.373
25716SOL     OW79044   2.306  14.235  14.610
25716SOL    HW179045   2.272  14.153  14.645
25716SOL    HW279046   2.303  14.224  14.515
25717SOL     OW79047  12.890   4.819  14.181
25717SOL    HW179048  12.909   4.751  14.117
25717SOL    HW279049  12.966   4.819  14.239
25718SOL     OW79050   0.403   7.929  10.806
25718SOL    HW179051   0.449   7.954  10.886
25718SOL    HW279052   0.344   7.858  10.834
25719SOL     OW79053   3.261  13.399   8.980
25719SOL    HW179054   3.274  13.480   9.029
25719SOL    HW279055   3.264  13.330   9.046
25720SOL     OW79056  10.949   5.710   4.508
25720SOL    HW179057  10.877   5.771   4.524
25720SOL    HW279058  10.909   5.624   4.507
25721SOL     OW79059   5.630  14.604   7.118
25721SOL    HW179060   5.725  14.599   7.111
25721SOL    HW279061   5.604  14.517   7.151
25722SOL     OW79062  11.371   0.994   9.454
25722SOL    HW179063  11.313   0.984   9.378
25722SOL    HW279064  11.432   0.920   9.448
25723SOL     OW79065   9.563   6.657   4.553
25723SOL    HW179066   9.515   6.617   4.480
25723SOL    HW279067   9.590   6.742   4.521
25724SOL     OW79068   8.625  10.349   5.123
25724SOL    HW179069   8.658  10.430   5.083
25724SOL    HW279070   8.659  10.279   5.067
25725SOL     OW79071   4.231   2.906   1.595
25725SOL    HW179072   4.200   2.960   1.523
25725SOL    HW279073   4.316   2.873   1.566
25726SOL     OW79074   4.098  13.114  11.545
25726SOL    HW179075   4.067  13.033  11.503
25726SOL    HW279076   4.092  13.179  11.475
25727SOL     OW79077  11.896   0.671  13.398
25727SOL    HW179078  11.855   0.628  13.473
25727SOL    HW279079  11.823   0.703  13.346
25728SOL     OW79080   4.490   0.837   8.989
25728SOL    HW179081   4.570   0.791   8.964
25728SOL    HW279082   4.422   0.771   8.984
25729SOL     OW79083   2.632  11.686  10.480
25729SOL    HW179084   2.716  11.732  10.479
25729SOL    HW279085   2.652  11.599  10.512
25730SOL     OW79086   1.154  13.122  13.444
25730SOL    HW179087   1.229  13.164  13.403
25730SOL    HW279088   1.186  13.091  13.528
25731SOL     OW79089   6.229   6.029   8.266
25731SOL    HW179090   6.205   6.096   8.202
25731SOL    HW279091   6.147   5.985   8.287
25732SOL     OW79092   1.573  11.926   1.175
25732SOL    HW179093   1.501  11.873   1.142
25732SOL    HW279094   1.618  11.869   1.238
25733SOL     OW79095  13.703  12.953  13.523
25733SOL    HW179096  13.755  13.031  13.540
25733SOL    HW279097  13.763  12.893  13.479
25734SOL     OW79098   5.068  13.398   0.210
25734SOL    HW179099   5.128  13.433   0.277
25734SOL    HW279100   5.121  13.338   0.159
25735SOL     OW79101   8.510   6.198  11.242
25735SOL    HW179102   8.574   6.268  11.252
25735SOL    HW279103   8.556   6.131  11.192
25736SOL     OW79104  13.103   7.411   6.414
25736SOL    HW179105  13.156   7.350   6.363
25736SOL    HW279106  13.069   7.473   6.349
25737SOL     OW79107   9.182  10.848   5.502
25737SOL    HW179108   9.145  10.923   5.455
25737SOL    HW279109   9.114  10.825   5.566
25738SOL     OW79110  11.224   5.123  13.655
25738SOL    HW179111  11.193   5.193  13.598
25738SOL    HW279112  11.310   5.100  13.620
25739SOL     OW79113  12.367   1.964   6.211
25739SOL    HW179114  12.456   1.962   6.246
25739SOL    HW279115  12.363   1.889   6.152
25740SOL     OW79116  12.561  10.773  12.628
25740SOL    HW179117  12.531  10.682  12.633
25740SOL    HW279118  12.590  10.794  12.717
25741SOL     OW79119  10.893   9.541   8.449
25741SOL    HW179120  10.824   9.477   8.432
25741SOL    HW279121  10.848   9.625   8.449
25742SOL     OW79122   5.359  13.320   9.753
25742SOL    HW179123   5.296  13.348   9.687
25742SOL    HW279124   5.426  13.272   9.704
25743SOL     OW79125  10.167  10.848   0.111
25743SOL    HW179126  10.173  10.782   0.180
25743SOL    HW279127  10.101  10.814   0.051
25744SOL     OW79128   6.831   9.452   9.405
25744SOL    HW179129   6.850   9.487   9.492
25744SOL    HW279130   6.865   9.363   9.406
25745SOL     OW79131   9.442   3.370   2.401
25745SOL    HW179132   9.465   3.343   2.490
25745SOL    HW279133   9.472   3.461   2.395
25746SOL     OW79134   1.233   1.682   8.897
25746SOL    HW179135   1.313   1.689   8.949
25746SOL    HW279136   1.171   1.638   8.955
25747SOL     OW79137   4.315   7.660   8.933
25747SOL    HW179138   4.304   7.643   8.839
25747SOL    HW279139   4.374   7.591   8.963
25748SOL     OW79140   9.943   2.807   2.836
25748SOL    HW179141   9.948   2.800   2.741
25748SOL    HW279142   9.943   2.901   2.853
25749SOL     OW79143   3.903   3.051  14.208
25749SOL    HW179144   3.873   3.139  14.185
25749SOL    HW279145   3.861   2.994  14.144
25750SOL     OW79146   7.052  10.095   6.781
25750SOL    HW179147   7.083  10.005   6.775
25750SOL    HW279148   7.069  10.132   6.695
25751SOL     OW79149   3.562   2.147   9.508
25751SOL    HW179150   3.594   2.237   9.518
25751SOL    HW279151   3.611   2.113   9.434
25752SOL     OW79152   4.532  13.452  11.872
25752SOL    HW179153   4.614  13.498  11.888
25752SOL    HW279154   4.464  13.519  11.882
25753SOL     OW79155   0.339   9.807  10.374
25753SOL    HW179156   0.251   9.770  10.369
25753SOL    HW279157   0.387   9.747  10.430
25754SOL     OW79158   8.522  12.951   3.253
25754SOL    HW179159   8.572  12.917   3.328
25754SOL    HW279160   8.437  12.908   3.260
25755SOL     OW79161   5.694   6.694  11.156
25755SOL    HW179162   5.636   6.643  11.100
25755SOL    HW279163   5.685   6.784  11.124
25756SOL     OW79164   3.651  12.864   3.305
25756SOL    HW179165   3.591  12.930   3.340
25756SOL    HW279166   3.697  12.831   3.382
25757SOL     OW79167   4.095  11.403  13.156
25757SOL    HW179168   4.166  11.448  13.201
25757SOL    HW279169   4.034  11.379  13.226
25758SOL     OW79170   4.429   7.272   4.115
25758SOL    HW179171   4.357   7.234   4.164
25758SOL    HW279172   4.492   7.200   4.106
25759SOL     OW79173   1.940   1.685   8.152
25759SOL    HW179174   1.994   1.716   8.080
25759SOL    HW279175   1.994   1.697   8.230
25760SOL     OW79176  11.663   9.443   6.022
25760SOL    HW179177  11.571   9.467   6.036
25760SOL    HW279178  11.711   9.525   6.028
25761SOL     OW79179   5.603   2.808  14.829
25761SOL    HW179180   5.607   2.736  14.766
25761SOL    HW279181   5.580   2.766   0.034
25762SOL     OW79182   6.018   3.490  14.830
25762SOL    HW179183   6.025   3.435  14.752
25762SOL    HW279184   5.946   3.452   0.003
25763SOL     OW79185   7.822  10.921   1.634
25763SOL    HW179186   7.761  10.936   1.707
25763SOL    HW279187   7.765  10.895   1.561
25764SOL     OW79188  10.506  10.953  10.558
25764SOL    HW179189  10.552  10.971  10.640
25764SOL    HW279190  10.439  10.888  10.581
25765SOL     OW79191  14.701   8.566  10.871
25765SOL    HW179192  14.676   8.632  10.936
25765SOL    HW279193  14.640   8.578  10.799
25766SOL     OW79194   6.701   1.755  10.754
25766SOL    HW179195   6.734   1.839  10.787
25766SOL    HW279196   6.721   1.692  10.823
25767SOL     OW79197   5.583   8.686   0.890
25767SOL    HW179198   5.541   8.633   0.957
25767SOL    HW279199   5.627   8.623   0.833
25768SOL     OW79200   1.085   3.275   6.927
25768SOL    HW179201   1.131   3.266   7.010
25768SOL    HW279202   1.121   3.205   6.872
25769SOL     OW79203   2.838   9.631   6.473
25769SOL    HW179204   2.778   9.704   6.485
25769SOL    HW279205   2.789   9.568   6.419
25770SOL     OW79206  12.141   2.446   9.160
25770SOL    HW179207  12.062   2.400   9.132
25770SOL    HW279208  12.112   2.503   9.231
25771SOL     OW79209  11.523   1.474  14.732
25771SOL    HW179210  11.538   1.383  14.708
25771SOL    HW279211  11.583   1.524  14.676
25772SOL     OW79212  11.568   5.355   2.488
25772SOL    HW179213  11.484   5.344   2.444
25772SOL    HW279214  11.633   5.334   2.421
25773SOL     OW79215  12.319   1.186   2.436
25773SOL    HW179216  12.382   1.233   2.382
25773SOL    HW279217  12.241   1.177   2.380
25774SOL     OW79218   8.813  14.365   5.732
25774SOL    HW179219   8.843  14.295   5.673
25774SOL    HW279220   8.856  14.444   5.699
25775SOL     OW79221  11.418   2.604   6.365
25775SOL    HW179222  11.460   2.518   6.364
25775SOL    HW279223  11.354   2.599   6.436
25776SOL     OW79224  11.480   2.905  14.556
25776SOL    HW179225  11.532   2.963  14.612
25776SOL    HW279226  11.487   2.944  14.469
25777SOL     OW79227  13.935   2.240   1.401
25777SOL    HW179228  13.863   2.266   1.459
25777SOL    HW279229  13.973   2.323   1.372
25778SOL     OW79230  12.683   8.132   5.513
25778SOL    HW179231  12.643   8.219   5.518
25778SOL    HW279232  12.760   8.144   5.457
25779SOL     OW79233   3.172   8.246  10.392
25779SOL    HW179234   3.119   8.265  10.314
25779SOL    HW279235   3.149   8.314  10.455
25780SOL     OW79236   5.346  12.700   9.486
25780SOL    HW179237   5.441  12.712   9.486
25780SOL    HW279238   5.329  12.639   9.557
25781SOL     OW79239   6.863   2.671   1.016
25781SOL    HW179240   6.848   2.638   0.927
25781SOL    HW279241   6.906   2.755   1.004
25782SOL     OW79242  14.080  13.781   1.699
25782SOL    HW179243  13.991  13.750   1.716
25782SOL    HW279244  14.113  13.720   1.633
25783SOL     OW79245   6.818   5.174   3.583
25783SOL    HW179246   6.857   5.151   3.499
25783SOL    HW279247   6.888   5.221   3.629
25784SOL     OW79248  12.484   3.068  12.091
25784SOL    HW179249  12.448   3.124  12.159
25784SOL    HW279250  12.557   3.023  12.133
25785SOL     OW79251   2.827   0.382   5.199
25785SOL    HW179252   2.781   0.406   5.279
25785SOL    HW279253   2.797   0.445   5.134
25786SOL     OW79254   5.587   8.214  13.466
25786SOL    HW179255   5.568   8.183  13.377
25786SOL    HW279256   5.571   8.308  13.462
25787SOL     OW79257   8.842   6.090  11.125
25787SOL    HW179258   8.923   6.057  11.088
25787SOL    HW279259   8.774   6.032  11.090
25788SOL     OW79260   9.222   8.131  11.179
25788SOL    HW179261   9.175   8.143  11.262
25788SOL    HW279262   9.153   8.121  11.113
25789SOL     OW79263  12.207   0.872   9.590
25789SOL    HW179264  12.284   0.816   9.590
25789SOL    HW279265  12.188   0.887   9.497
25790SOL     OW79266   5.627   3.009  10.492
25790SOL    HW179267   5.637   2.930  10.544
25790SOL    HW279268   5.590   3.073  10.553
25791SOL     OW79269   7.613  12.083   1.059
25791SOL    HW179270   7.637  12.174   1.042
25791SOL    HW279271   7.687  12.047   1.107
25792SOL     OW79272   8.412   4.053   5.637
25792SOL    HW179273   8.361   3.979   5.668
25792SOL    HW279274   8.350   4.104   5.584
25793SOL     OW79275  14.222   5.095  13.118
25793SOL    HW179276  14.226   5.037  13.195
25793SOL    HW279277  14.221   5.035  13.044
25794SOL     OW79278  10.442   3.682   7.617
25794SOL    HW179279  10.358   3.661   7.657
25794SOL    HW279280  10.444   3.777   7.612
25795SOL     OW79281   3.620   8.419   7.280
25795SOL    HW179282   3.644   8.330   7.307
25795SOL    HW279283   3.593   8.409   7.189
25796SOL     OW79284  10.567  10.645   1.020
25796SOL    HW179285  10.631  10.633   0.950
25796SOL    HW279286  10.522  10.561   1.026
25797SOL     OW79287  11.020   6.849   7.922
25797SOL    HW179288  11.033   6.876   7.832
25797SOL    HW279289  10.945   6.900   7.953
25798SOL     OW79290  12.565   1.502   8.535
25798SOL    HW179291  12.486   1.462   8.573
25798SOL    HW279292  12.586   1.575   8.594
25799SOL     OW79293  14.543   3.563   6.247
25799SOL    HW179294  14.452   3.533   6.245
25799SOL    HW279295  14.555   3.597   6.335
25800SOL     OW79296   5.891  14.377  13.967
25800SOL    HW179297   5.885  14.471  13.983
25800SOL    HW279298   5.835  14.362  13.891
25801SOL     OW79299  12.860   8.903  14.797
25801SOL    HW179300  12.906   8.876  14.717
25801SOL    HW279301  12.768   8.912  14.770
25802SOL     OW79302   6.937  12.360   6.912
25802SOL    HW179303   7.032  12.350   6.907
25802SOL    HW279304   6.902  12.286   6.863
25803SOL     OW79305   7.446   0.515   0.038
25803SOL    HW179306   7.520   0.538  14.859
25803SOL    HW279307   7.479   0.447   0.096
25804SOL     OW79308   7.765   0.001   7.069
25804SOL    HW179309   7.734  14.852   7.156
25804SOL    HW279310   7.806  14.801   7.033
25805SOL     OW79311   4.906   9.307   0.005
25805SOL    HW179312   4.922   9.381  14.823
25805SOL    HW279313   4.927   9.230  14.829
25806SOL     OW79314   8.676  10.225   5.378
25806SOL    HW179315   8.647  10.152   5.324
25806SOL    HW279316   8.694  10.296   5.317
25807SOL     OW79317  11.118  12.184   0.999
25807SOL    HW179318  11.128  12.167   1.093
25807SOL    HW279319  11.026  12.165   0.981
25808SOL     OW79320   3.497   9.111   3.032
25808SOL    HW179321   3.549   9.033   3.048
25808SOL    HW279322   3.560   9.176   3.001
25809SOL     OW79323   3.264   7.263  12.523
25809SOL    HW179324   3.244   7.355  12.543
25809SOL    HW279325   3.225   7.249  12.437
25810SOL     OW79326   6.246  14.215   0.347
25810SOL    HW179327   6.267  14.128   0.380
25810SOL    HW279328   6.152  14.224   0.359
25811SOL     OW79329  10.650  12.000   7.559
25811SOL    HW179330  10.653  12.047   7.642
25811SOL    HW279331  10.717  11.933   7.567
25812SOL     OW79332   9.213   3.894   5.481
25812SOL    HW179333   9.295   3.845   5.471
25812SOL    HW279334   9.153   3.832   5.522
25813SOL     OW79335   7.737   6.546  14.549
25813SOL    HW179336   7.707   6.631  14.581
25813SOL    HW279337   7.771   6.564  14.461
25814SOL     OW79338  14.447   0.330   5.784
25814SOL    HW179339  14.363   0.288   5.804
25814SOL    HW279340  14.501   0.259   5.750
25815SOL     OW79341   6.876  10.054   3.578
25815SOL    HW179342   6.859   9.964   3.605
25815SOL    HW279343   6.837  10.060   3.490
25816SOL     OW79344   2.169  14.036   6.052
25816SOL    HW179345   2.096  14.041   5.990
25816SOL    HW279346   2.152  14.104   6.116
25817SOL     OW79347   5.403  11.805  14.255
25817SOL    HW179348   5.429  11.747  14.183
25817SOL    HW279349   5.332  11.759  14.299
25818SOL     OW79350  13.186   2.200  14.103
25818SOL    HW179351  13.166   2.131  14.166
25818SOL    HW279352  13.203   2.154  14.021
25819SOL     OW79353   0.314   0.520   7.366
25819SOL    HW179354   0.233   0.566   7.342
25819SOL    HW279355   0.378   0.589   7.380
25820SOL     OW79356  12.280   2.906   3.912
25820SOL    HW179357  12.210   2.959   3.951
25820SOL    HW279358  12.234   2.845   3.854
25821SOL     OW79359   1.526   8.801   6.169
25821SOL    HW179360   1.591   8.742   6.208
25821SOL    HW279361   1.484   8.749   6.101
25822SOL     OW79362   7.038   0.136  10.448
25822SOL    HW179363   7.129   0.112  10.428
25822SOL    HW279364   7.040   0.167  10.538
25823SOL     OW79365   1.487  13.783  10.623
25823SOL    HW179366   1.414  13.788  10.684
25823SOL    HW279367   1.448  13.804  10.538
25824SOL     OW79368   7.565  11.760   6.166
25824SOL    HW179369   7.552  11.728   6.076
25824SOL    HW279370   7.655  11.736   6.186
25825SOL     OW79371   7.161   7.348   0.615
25825SOL    HW179372   7.186   7.275   0.672
25825SOL    HW279373   7.206   7.331   0.532
25826SOL     OW79374   0.924   1.158   2.848
25826SOL    HW179375   0.924   1.177   2.942
25826SOL    HW279376   0.950   1.067   2.841
25827SOL     OW79377   7.145  12.847   8.544
25827SOL    HW179378   7.232  12.849   8.505
25827SOL    HW279379   7.085  12.847   8.470
25828SOL     OW79380   6.954   3.835   0.911
25828SOL    HW179381   6.942   3.929   0.901
25828SOL    HW279382   6.886   3.796   0.855
25829SOL     OW79383   4.585  10.491   4.991
25829SOL    HW179384   4.586  10.539   5.074
25829SOL    HW279385   4.661  10.433   4.996
25830SOL     OW79386  14.759   8.345  12.458
25830SOL    HW179387  14.685   8.399  12.484
25830SOL    HW279388  14.797   8.390  12.382
25831SOL     OW79389   5.880  10.353   6.919
25831SOL    HW179390   5.865  10.437   6.962
25831SOL    HW279391   5.825  10.357   6.840
25832SOL     OW79392   6.232   1.194   7.803
25832SOL    HW179393   6.251   1.288   7.809
25832SOL    HW279394   6.271   1.157   7.882
25833SOL     OW79395   8.248  11.895   2.324
25833SOL    HW179396   8.280  11.981   2.298
25833SOL    HW279397   8.159  11.891   2.290
25834SOL     OW79398   9.767   1.281   9.842
25834SOL    HW179399   9.707   1.215   9.877
25834SOL    HW279400   9.854   1.242   9.851
25835SOL     OW79401  14.705   3.195   4.023
25835SOL    HW179402  14.622   3.169   3.983
25835SOL    HW279403  14.762   3.217   3.949
25836SOL     OW79404   3.818  12.053   5.148
25836SOL    HW179405   3.756  12.120   5.176
25836SOL    HW279406   3.851  12.015   5.229
25837SOL     OW79407   7.238   8.521   1.862
25837SOL    HW179408   7.317   8.513   1.916
25837SOL    HW279409   7.268   8.502   1.773
25838SOL     OW79410   8.374  13.791  14.663
25838SOL    HW179411   8.374  13.840  14.581
25838SOL    HW279412   8.458  13.810  14.703
25839SOL     OW79413   0.177   9.213  11.986
25839SOL    HW179414   0.123   9.196  11.909
25839SOL    HW279415   0.126   9.180  12.059
25840SOL     OW79416   8.638   1.461   7.850
25840SOL    HW179417   8.648   1.369   7.826
25840SOL    HW279418   8.722   1.485   7.891
25841SOL     OW79419  12.691  12.972   5.649
25841SOL    HW179420  12.662  13.063   5.651
25841SOL    HW279421  12.610  12.921   5.653
25842SOL     OW79422   0.553  10.826  13.284
25842SOL    HW179423   0.519  10.776  13.209
25842SOL    HW279424   0.533  10.772  13.360
25843SOL     OW79425   7.339   9.793   9.716
25843SOL    HW179426   7.370   9.796   9.807
25843SOL    HW279427   7.346   9.883   9.685
25844SOL     OW79428  12.896   7.586   6.300
25844SOL    HW179429  12.881   7.633   6.383
25844SOL    HW279430  12.840   7.631   6.237
25845SOL     OW79431   6.961   2.688  13.446
25845SOL    HW179432   6.887   2.700  13.505
25845SOL    HW279433   6.974   2.593  13.443
25846SOL     OW79434   1.596   8.673   6.793
25846SOL    HW179435   1.614   8.592   6.744
25846SOL    HW279436   1.507   8.662   6.826
25847SOL     OW79437   5.525   0.623   7.521
25847SOL    HW179438   5.492   0.690   7.462
25847SOL    HW279439   5.498   0.651   7.608
25848SOL     OW79440  11.145   6.671   8.522
25848SOL    HW179441  11.089   6.638   8.452
25848SOL    HW279442  11.151   6.599   8.584
25849SOL     OW79443   3.850  13.894  14.556
25849SOL    HW179444   3.763  13.897  14.595
25849SOL    HW279445   3.836  13.854  14.470
25850SOL     OW79446  11.472   9.462   9.734
25850SOL    HW179447  11.479   9.489   9.642
25850SOL    HW279448  11.409   9.523   9.772
25851SOL     OW79449  12.692  13.034  13.641
25851SOL    HW179450  12.614  13.012  13.692
25851SOL    HW279451  12.704  13.128  13.653
25852SOL     OW79452   8.840  14.506  13.734
25852SOL    HW179453   8.862  14.559  13.657
25852SOL    HW279454   8.901  14.432  13.730
25853SOL     OW79455   6.366  10.653  12.845
25853SOL    HW179456   6.365  10.747  12.863
25853SOL    HW279457   6.412  10.614  12.919
25854SOL     OW79458   8.506   4.333   0.858
25854SOL    HW179459   8.433   4.324   0.797
25854SOL    HW279460   8.534   4.424   0.849
25855SOL     OW79461  12.010   7.844   0.904
25855SOL    HW179462  11.974   7.909   0.965
25855SOL    HW279463  11.970   7.761   0.933
25856SOL     OW79464   7.144  10.973  10.238
25856SOL    HW179465   7.086  11.022  10.180
25856SOL    HW279466   7.157  11.031  10.313
25857SOL     OW79467   3.629   7.380   4.546
25857SOL    HW179468   3.674   7.452   4.591
25857SOL    HW279469   3.582   7.422   4.474
25858SOL     OW79470   0.025   3.683   3.012
25858SOL    HW179471  14.837   3.659   3.078
25858SOL    HW279472   0.054   3.599   2.976
25859SOL     OW79473   2.116   5.337   1.603
25859SOL    HW179474   2.202   5.353   1.641
25859SOL    HW279475   2.111   5.398   1.529
25860SOL     OW79476   1.351   9.287  12.193
25860SOL    HW179477   1.284   9.336  12.241
25860SOL    HW279478   1.412   9.354  12.163
25861SOL     OW79479  12.149  12.474   7.727
25861SOL    HW179480  12.067  12.519   7.747
25861SOL    HW279481  12.217  12.534   7.759
25862SOL     OW79482   3.180   9.976   0.084
25862SOL    HW179483   3.200   9.889   0.118
25862SOL    HW279484   3.144   9.960  14.874
25863SOL     OW79485   3.794   3.277  14.130
25863SOL    HW179486   3.812   3.371  14.124
25863SOL    HW279487   3.698   3.271  14.133
25864SOL     OW79488  13.145   5.290  12.474
25864SOL    HW179489  13.071   5.289  12.535
25864SOL    HW279490  13.116   5.237  12.400
25865SOL     OW79491   6.397  14.060  10.910
25865SOL    HW179492   6.426  14.145  10.876
25865SOL    HW279493   6.405  14.000  10.836
25866SOL     OW79494   6.784   2.005   9.053
25866SOL    HW179495   6.860   1.956   9.023
25866SOL    HW279496   6.738   1.945   9.111
25867SOL     OW79497   8.914   2.624   2.107
25867SOL    HW179498   8.999   2.580   2.111
25867SOL    HW279499   8.850   2.555   2.123
25868SOL     OW79500   5.443   1.484   6.421
25868SOL    HW179501   5.389   1.405   6.423
25868SOL    HW279502   5.504   1.471   6.349
25869SOL     OW79503   0.884  12.824   1.850
25869SOL    HW179504   0.896  12.755   1.915
25869SOL    HW279505   0.800  12.864   1.873
25870SOL     OW79506   9.343   1.697   9.201
25870SOL    HW179507   9.423   1.743   9.229
25870SOL    HW279508   9.364   1.604   9.211
25871SOL     OW79509   2.613   9.775   6.516
25871SOL    HW179510   2.635   9.803   6.427
25871SOL    HW279511   2.531   9.820   6.536
25872SOL     OW79512   3.233   8.861   7.667
25872SOL    HW179513   3.187   8.855   7.584
25872SOL    HW279514   3.286   8.940   7.659
25873SOL     OW79515   1.099   7.974  10.298
25873SOL    HW179516   1.098   8.034  10.373
25873SOL    HW279517   1.157   7.903  10.325
25874SOL     OW79518   0.576  14.221  14.581
25874SOL    HW179519   0.524  14.223  14.661
25874SOL    HW279520   0.594  14.313  14.561
25875SOL     OW79521  13.717   3.857   8.445
25875SOL    HW179522  13.698   3.929   8.385
25875SOL    HW279523  13.631   3.826   8.474
25876SOL     OW79524  12.128   9.900  14.793
25876SOL    HW179525  12.096   9.831  14.852
25876SOL    HW279526  12.078   9.888  14.713
25877SOL     OW79527   5.436  11.211   1.721
25877SOL    HW179528   5.445  11.259   1.639
25877SOL    HW279529   5.525  11.186   1.745
25878SOL     OW79530   4.789   0.486   3.028
25878SOL    HW179531   4.816   0.394   3.032
25878SOL    HW279532   4.750   0.503   3.114
25879SOL     OW79533  11.268   6.792   7.480
25879SOL    HW179534  11.349   6.745   7.499
25879SOL    HW279535  11.265   6.862   7.546
25880SOL     OW79536  10.078   7.303  12.618
25880SOL    HW179537   9.989   7.268  12.612
25880SOL    HW279538  10.108   7.308  12.528
25881SOL     OW79539   8.964  10.320  10.867
25881SOL    HW179540   8.927  10.294  10.951
25881SOL    HW279541   9.057  10.303  10.875
25882SOL     OW79542   4.940   6.703  11.693
25882SOL    HW179543   5.000   6.765  11.735
25882SOL    HW279544   4.943   6.626  11.749
25883SOL     OW79545  14.864   2.278   3.976
25883SOL    HW179546   0.024   2.319   4.053
25883SOL    HW279547   0.061   2.264   3.917
25884SOL     OW79548   9.189   1.867  10.587
25884SOL    HW179549   9.217   1.928  10.518
25884SOL    HW279550   9.238   1.787  10.568
25885SOL     OW79551  11.737   2.551   1.296
25885SOL    HW179552  11.720   2.558   1.203
25885SOL    HW279553  11.698   2.468   1.322
25886SOL     OW79554   5.747  10.237  14.634
25886SOL    HW179555   5.815  10.304  14.631
25886SOL    HW279556   5.749  10.206  14.725
25887SOL     OW79557   2.739   1.702   2.517
25887SOL    HW179558   2.807   1.638   2.537
25887SOL    HW279559   2.762   1.780   2.568
25888SOL     OW79560   6.386   0.325   4.436
25888SOL    HW179561   6.448   0.330   4.364
25888SOL    HW279562   6.303   0.353   4.398
25889SOL     OW79563   8.406  13.491  10.645
25889SOL    HW179564   8.452  13.560  10.597
25889SOL    HW279565   8.314  13.500  10.619
25890SOL     OW79566   9.386  11.936   8.992
25890SOL    HW179567   9.389  11.849   8.953
25890SOL    HW279568   9.387  11.996   8.918
25891SOL     OW79569  13.165  11.015   9.995
25891SOL    HW179570  13.106  11.062   9.937
25891SOL    HW279571  13.248  11.062   9.987
25892SOL     OW79572   2.532   5.345  13.413
25892SOL    HW179573   2.603   5.374  13.355
25892SOL    HW279574   2.478   5.423  13.424
25893SOL     OW79575   4.260   4.575  12.122
25893SOL    HW179576   4.328   4.511  12.143
25893SOL    HW279577   4.282   4.652  12.174
25894SOL     OW79578   0.696   8.959  11.498
25894SOL    HW179579   0.631   8.902  11.456
25894SOL    HW279580   0.763   8.970  11.431
25895SOL     OW79581   4.267   1.376  11.691
25895SOL    HW179582   4.196   1.320  11.723
25895SOL    HW279583   4.337   1.364  11.754
25896SOL     OW79584   7.262   7.159  11.992
25896SOL    HW179585   7.266   7.239  11.940
25896SOL    HW279586   7.345   7.157  12.040
25897SOL     OW79587   3.190   1.151   1.301
25897SOL    HW179588   3.185   1.068   1.255
25897SOL    HW279589   3.243   1.207   1.244
25898SOL     OW79590   1.491   6.118   9.241
25898SOL    HW179591   1.510   6.027   9.219
25898SOL    HW279592   1.492   6.120   9.337
25899SOL     OW79593   2.897  11.642  12.032
25899SOL    HW179594   2.985  11.669  12.006
25899SOL    HW279595   2.864  11.717  12.082
25900SOL     OW79596   7.542   1.691   4.312
25900SOL    HW179597   7.539   1.609   4.361
25900SOL    HW279598   7.466   1.741   4.344
25901SOL     OW79599   7.113   5.041   9.150
25901SOL    HW179600   7.088   5.105   9.083
25901SOL    HW279601   7.131   5.095   9.228
25902SOL     OW79602  14.170  14.635   1.360
25902SOL    HW179603  14.075  14.643   1.367
25902SOL    HW279604  14.194  14.569   1.425
25903SOL     OW79605  10.341   7.107   7.416
25903SOL    HW179606  10.399   7.125   7.342
25903SOL    HW279607  10.383   7.149   7.491
25904SOL     OW79608   5.402   5.433  14.450
25904SOL    HW179609   5.364   5.435  14.537
25904SOL    HW279610   5.360   5.504  14.403
25905SOL     OW79611   5.510   5.766  13.063
25905SOL    HW179612   5.590   5.734  13.105
25905SOL    HW279613   5.540   5.802  12.980
25906SOL     OW79614   6.010   5.956   4.899
25906SOL    HW179615   5.948   5.891   4.929
25906SOL    HW279616   6.016   6.020   4.970
25907SOL     OW79617   2.147   9.588   3.296
25907SOL    HW179618   2.215   9.652   3.275
25907SOL    HW279619   2.143   9.532   3.219
25908SOL     OW79620   2.623   2.617   1.778
25908SOL    HW179621   2.672   2.613   1.860
25908SOL    HW279622   2.688   2.635   1.711
25909SOL     OW79623  13.259   8.215   4.387
25909SOL    HW179624  13.241   8.225   4.294
25909SOL    HW279625  13.174   8.197   4.427
25910SOL     OW79626   1.688   0.051   4.554
25910SOL    HW179627   1.708   0.071   4.463
25910SOL    HW279628   1.635   0.124   4.585
25911SOL     OW79629   6.289   9.532   6.261
25911SOL    HW179630   6.342   9.467   6.214
25911SOL    HW279631   6.213   9.483   6.292
25912SOL     OW79632  11.663  12.340  13.892
25912SOL    HW179633  11.698  12.426  13.871
25912SOL    HW279634  11.569  12.347  13.873
25913SOL     OW79635   0.697  13.135   7.729
25913SOL    HW179636   0.660  13.173   7.649
25913SOL    HW279637   0.792  13.143   7.717
25914SOL     OW79638   0.427  11.167  14.322
25914SOL    HW179639   0.407  11.074  14.336
25914SOL    HW279640   0.390  11.187  14.236
25915SOL     OW79641   8.879  13.392   6.015
25915SOL    HW179642   8.850  13.481   6.032
25915SOL    HW279643   8.830  13.366   5.937
25916SOL     OW79644  12.584  13.307  12.564
25916SOL    HW179645  12.618  13.396  12.561
25916SOL    HW279646  12.638  13.263  12.630
25917SOL     OW79647  14.011   4.924   2.903
25917SOL    HW179648  14.074   4.896   2.969
25917SOL    HW279649  13.998   5.018   2.921
25918SOL     OW79650   2.877   2.392  11.555
25918SOL    HW179651   2.901   2.300  11.542
25918SOL    HW279652   2.845   2.420  11.469
25919SOL     OW79653  12.324  14.275   0.780
25919SOL    HW179654  12.243  14.310   0.817
25919SOL    HW279655  12.318  14.180   0.796
25920SOL     OW79656   5.367   5.422   1.441
25920SOL    HW179657   5.386   5.466   1.524
25920SOL    HW279658   5.451   5.418   1.396
25921SOL     OW79659   0.574   3.775  10.524
25921SOL    HW179660   0.487   3.772  10.484
25921SOL    HW279661   0.597   3.684  10.538
25922SOL     OW79662   9.040   4.703   6.393
25922SOL    HW179663   9.099   4.713   6.319
25922SOL    HW279664   8.953   4.697   6.353
25923SOL     OW79665   2.148   4.510   6.904
25923SOL    HW179666   2.234   4.548   6.919
25923SOL    HW279667   2.166   4.421   6.873
25924SOL     OW79668  11.566  11.753  13.664
25924SOL    HW179669  11.492  11.760  13.603
25924SOL    HW279670  11.598  11.843  13.673
25925SOL     OW79671   4.978   4.555   4.313
25925SOL    HW179672   5.013   4.588   4.230
25925SOL    HW279673   5.040   4.585   4.379
25926SOL     OW79674  13.512  12.769   1.462
25926SOL    HW179675  13.521  12.677   1.438
25926SOL    HW279676  13.419  12.788   1.449
25927SOL     OW79677   6.202   2.742   4.407
25927SOL    HW179678   6.133   2.677   4.392
25927SOL    HW279679   6.200   2.797   4.328
25928SOL     OW79680   5.408   9.409   6.603
25928SOL    HW179681   5.445   9.321   6.610
25928SOL    HW279682   5.313   9.395   6.602
25929SOL     OW79683   9.436  13.688  11.741
25929SOL    HW179684   9.468  13.677  11.651
25929SOL    HW279685   9.354  13.736  11.731
25930SOL     OW79686  14.557  12.941   9.777
25930SOL    HW179687  14.612  13.018   9.790
25930SOL    HW279688  14.471  12.977   9.754
25931SOL     OW79689   7.848   9.818  11.386
25931SOL    HW179690   7.787   9.801  11.314
25931SOL    HW279691   7.842   9.740  11.441
25932SOL     OW79692   5.145   7.295   8.022
25932SOL    HW179693   5.110   7.208   8.042
25932SOL    HW279694   5.222   7.303   8.078
25933SOL     OW79695   1.158   0.199   9.255
25933SOL    HW179696   1.112   0.234   9.331
25933SOL    HW279697   1.130   0.107   9.250
25934SOL     OW79698   6.724  11.736   9.792
25934SOL    HW179699   6.723  11.771   9.703
25934SOL    HW279700   6.653  11.672   9.793
25935SOL     OW79701   6.223   4.718   7.030
25935SOL    HW179702   6.174   4.709   6.948
25935SOL    HW279703   6.312   4.739   7.003
25936SOL     OW79704   8.496   7.799   4.945
25936SOL    HW179705   8.483   7.755   5.029
25936SOL    HW279706   8.534   7.884   4.968
25937SOL     OW79707   8.111   9.973   9.410
25937SOL    HW179708   8.163  10.033   9.357
25937SOL    HW279709   8.081  10.026   9.483
25938SOL     OW79710  13.677   5.602  13.888
25938SOL    HW179711  13.608   5.654  13.930
25938SOL    HW279712  13.631   5.549  13.823
25939SOL     OW79713   7.717   8.216   5.988
25939SOL    HW179714   7.781   8.233   6.057
25939SOL    HW279715   7.766   8.165   5.923
25940SOL     OW79716   0.033   5.913  14.569
25940SOL    HW179717   0.038   5.817  14.564
25940SOL    HW279718   0.097   5.943  14.505
25941SOL     OW79719   0.056   8.998   3.316
25941SOL    HW179720   0.130   8.939   3.298
25941SOL    HW279721   0.097   9.083   3.329
25942SOL     OW79722  12.407   7.276  13.313
25942SOL    HW179723  12.446   7.314  13.392
25942SOL    HW279724  12.472   7.292  13.244
25943SOL     OW79725   6.659   8.990   8.131
25943SOL    HW179726   6.669   8.896   8.148
25943SOL    HW279727   6.717   9.032   8.194
25944SOL     OW79728  10.163  13.578  12.969
25944SOL    HW179729  10.185  13.631  12.892
25944SOL    HW279730  10.148  13.490  12.935
25945SOL     OW79731   5.444  12.738  10.914
25945SOL    HW179732   5.374  12.743  10.849
25945SOL    HW279733   5.518  12.700  10.867
25946SOL     OW79734   0.415  11.078   8.626
25946SOL    HW179735   0.382  11.011   8.685
25946SOL    HW279736   0.468  11.031   8.562
25947SOL     OW79737  10.418   7.088  14.437
25947SOL    HW179738  10.441   7.160  14.496
25947SOL    HW279739  10.358   7.033  14.488
25948SOL     OW79740   5.947   9.453   3.185
25948SOL    HW179741   5.966   9.524   3.247
25948SOL    HW279742   6.019   9.391   3.196
25949SOL     OW79743   3.147  12.007  13.446
25949SOL    HW179744   3.119  11.957  13.369
25949SOL    HW279745   3.233  11.971  13.468
25950SOL     OW79746   2.796  13.992   0.881
25950SOL    HW179747   2.875  14.035   0.848
25950SOL    HW279748   2.828  13.916   0.929
25951SOL     OW79749   1.237   2.326   7.930
25951SOL    HW179750   1.172   2.381   7.885
25951SOL    HW279751   1.282   2.387   7.989
25952SOL     OW79752  14.869   5.454   1.481
25952SOL    HW179753  14.790   5.486   1.524
25952SOL    HW279754   0.060   5.463   1.547
25953SOL     OW79755   9.183   1.431  14.381
25953SOL    HW179756   9.159   1.463  14.294
25953SOL    HW279757   9.217   1.343  14.366
25954SOL     OW79758   4.878   9.290   4.170
25954SOL    HW179759   4.908   9.267   4.258
25954SOL    HW279760   4.783   9.278   4.173
25955SOL     OW79761   3.497   6.702   3.424
25955SOL    HW179762   3.560   6.726   3.492
25955SOL    HW279763   3.470   6.613   3.447
25956SOL     OW79764   3.715   3.764   1.204
25956SOL    HW179765   3.747   3.842   1.249
25956SOL    HW279766   3.674   3.712   1.273
25957SOL     OW79767   6.657  14.193   5.073
25957SOL    HW179768   6.697  14.139   5.005
25957SOL    HW279769   6.645  14.134   5.147
25958SOL     OW79770  12.725   7.923   6.555
25958SOL    HW179771  12.644   7.948   6.601
25958SOL    HW279772  12.729   7.982   6.480
25959SOL     OW79773   7.462   9.854  10.916
25959SOL    HW179774   7.468   9.768  10.958
25959SOL    HW279775   7.476   9.836  10.823
25960SOL     OW79776   0.182   4.133   7.889
25960SOL    HW179777   0.190   4.075   7.965
25960SOL    HW279778   0.261   4.186   7.890
25961SOL     OW79779  12.526   9.351  14.817
25961SOL    HW179780  12.540   9.409  14.742
25961SOL    HW279781  12.433   9.362  14.839
25962SOL     OW79782   5.229   0.061   0.418
25962SOL    HW179783   5.179   0.050   0.499
25962SOL    HW279784   5.194  14.873   0.358
25963SOL     OW79785   1.037   7.160   6.629
25963SOL    HW179786   1.051   7.244   6.584
25963SOL    HW279787   0.953   7.171   6.674
25964SOL     OW79788   8.785   8.085  11.979
25964SOL    HW179789   8.727   8.013  12.005
25964SOL    HW279790   8.765   8.155  12.042
25965SOL     OW79791   6.623   4.133  10.451
25965SOL    HW179792   6.688   4.099  10.513
25965SOL    HW279793   6.664   4.120  10.365
25966SOL     OW79794   5.139   1.427   4.426
25966SOL    HW179795   5.113   1.438   4.518
25966SOL    HW279796   5.235   1.432   4.428
25967SOL     OW79797   3.578   8.088   4.330
25967SOL    HW179798   3.664   8.047   4.338
25967SOL    HW279799   3.531   8.032   4.268
25968SOL     OW79800   6.673  13.092   4.901
25968SOL    HW179801   6.627  13.125   4.978
25968SOL    HW279802   6.635  13.140   4.828
25969SOL     OW79803  11.143  12.074  12.345
25969SOL    HW179804  11.213  12.024  12.302
25969SOL    HW279805  11.180  12.162  12.355
25970SOL     OW79806   0.768   2.136   3.828
25970SOL    HW179807   0.822   2.140   3.907
25970SOL    HW279808   0.783   2.049   3.792
25971SOL     OW79809  12.574  11.092  12.833
25971SOL    HW179810  12.480  11.106  12.841
25971SOL    HW279811  12.587  11.002  12.863
25972SOL     OW79812   0.153   2.063   2.298
25972SOL    HW179813   0.237   2.104   2.322
25972SOL    HW279814   0.096   2.081   2.372
25973SOL     OW79815  13.696   0.419   2.382
25973SOL    HW179816  13.740   0.408   2.466
25973SOL    HW279817  13.739   0.494   2.342
25974SOL     OW79818  11.654   0.398   2.818
25974SOL    HW179819  11.590   0.329   2.830
25974SOL    HW279820  11.687   0.385   2.729
25975SOL     OW79821   4.983   4.880   8.544
25975SOL    HW179822   4.906   4.925   8.579
25975SOL    HW279823   4.948   4.804   8.498
25976SOL     OW79824   8.223  12.019   6.885
25976SOL    HW179825   8.128  12.012   6.877
25976SOL    HW279826   8.242  11.985   6.973
25977SOL     OW79827  13.610   6.781   3.905
25977SOL    HW179828  13.679   6.843   3.882
25977SOL    HW279829  13.529   6.825   3.879
25978SOL     OW79830   8.987   8.030   6.802
25978SOL    HW179831   8.927   7.960   6.778
25978SOL    HW279832   9.043   7.992   6.870
25979SOL     OW79833   2.101   4.415   9.916
25979SOL    HW179834   2.053   4.463   9.984
25979SOL    HW279835   2.186   4.460   9.911
25980SOL     OW79836  11.457   3.014   2.043
25980SOL    HW179837  11.366   3.046   2.045
25980SOL    HW279838  11.490   3.046   1.959
25981SOL     OW79839   0.629  13.257  11.384
25981SOL    HW179840   0.628  13.331  11.445
25981SOL    HW279841   0.722  13.243  11.366
25982SOL     OW79842  11.191   5.435   0.828
25982SOL    HW179843  11.258   5.482   0.778
25982SOL    HW279844  11.214   5.343   0.819
25983SOL     OW79845  11.647  13.733   0.704
25983SOL    HW179846  11.639  13.817   0.749
25983SOL    HW279847  11.563  13.689   0.721
25984SOL     OW79848   2.847   4.237  10.729
25984SOL    HW179849   2.937   4.214  10.751
25984SOL    HW279850   2.815   4.286  10.804
25985SOL     OW79851  11.162   3.139   1.769
25985SOL    HW179852  11.162   3.099   1.855
25985SOL    HW279853  11.182   3.231   1.785
25986SOL     OW79854  11.535   1.202  14.686
25986SOL    HW179855  11.556   1.114  14.654
25986SOL    HW279856  11.441   1.211  14.672
25987SOL     OW79857   6.632  13.874   3.504
25987SOL    HW179858   6.699  13.861   3.437
25987SOL    HW279859   6.636  13.795   3.558
25988SOL     OW79860   7.889   1.926  10.438
25988SOL    HW179861   7.913   1.945  10.347
25988SOL    HW279862   7.901   2.009  10.484
25989SOL     OW79863   5.691   7.566   5.490
25989SOL    HW179864   5.780   7.563   5.455
25989SOL    HW279865   5.699   7.612   5.573
25990SOL     OW79866   7.208  13.129   7.651
25990SOL    HW179867   7.152  13.138   7.574
25990SOL    HW279868   7.232  13.219   7.673
25991SOL     OW79869   2.415   8.098   7.781
25991SOL    HW179870   2.389   8.052   7.701
25991SOL    HW279871   2.454   8.030   7.836
25992SOL     OW79872   1.187  12.543  12.519
25992SOL    HW179873   1.147  12.629  12.532
25992SOL    HW279874   1.210  12.514  12.607
25993SOL     OW79875   2.235   5.020  10.238
25993SOL    HW179876   2.139   5.013  10.233
25993SOL    HW279877   2.260   4.962  10.309
25994SOL     OW79878  13.067   9.077   4.619
25994SOL    HW179879  13.067   9.079   4.715
25994SOL    HW279880  13.146   9.125   4.594
25995SOL     OW79881   1.306  10.185   2.822
25995SOL    HW179882   1.338  10.256   2.879
25995SOL    HW279883   1.382  10.164   2.768
25996SOL     OW79884   9.527  10.533   4.828
25996SOL    HW179885   9.498  10.589   4.756
25996SOL    HW279886   9.451  10.529   4.887
25997SOL     OW79887  14.546   4.906   4.944
25997SOL    HW179888  14.622   4.961   4.926
25997SOL    HW279889  14.578   4.816   4.935
25998SOL     OW79890  13.859  11.202   5.064
25998SOL    HW179891  13.842  11.174   4.973
25998SOL    HW279892  13.954  11.196   5.074
25999SOL     OW79893  13.129   2.546   7.038
25999SOL    HW179894  13.085   2.566   6.955
25999SOL    HW279895  13.216   2.584   7.029
26000SOL     OW79896  13.580  11.397   9.233
26000SOL    HW179897  13.660  11.443   9.205
26000SOL    HW279898  13.512  11.428   9.173
26001SOL     OW79899   7.740   2.829  12.789
26001SOL    HW179900   7.685   2.907  12.789
26001SOL    HW279901   7.686   2.763  12.745
26002SOL     OW79902   1.215  14.292   0.833
26002SOL    HW179903   1.184  14.249   0.913
26002SOL    HW279904   1.166  14.374   0.829
26003SOL     OW79905   0.740  13.234   1.887
26003SOL    HW179906   0.685  13.289   1.830
26003SOL    HW279907   0.780  13.296   1.948
26004SOL     OW79908   3.343  12.432   9.468
26004SOL    HW179909   3.311  12.461   9.553
26004SOL    HW279910   3.408  12.498   9.443
26005SOL     OW79911   3.659  14.302   8.247
26005SOL    HW179912   3.676  14.255   8.329
26005SOL    HW279913   3.680  14.393   8.268
26006SOL     OW79914   3.708   1.501   6.539
26006SOL    HW179915   3.744   1.419   6.504
26006SOL    HW279916   3.629   1.517   6.488
26007SOL     OW79917   1.584   5.488  13.010
26007SOL    HW179918   1.602   5.514  12.919
26007SOL    HW279919   1.670   5.488  13.052
26008SOL     OW79920   7.000   1.818   0.124
26008SOL    HW179921   7.017   1.906   0.091
26008SOL    HW279922   6.955   1.774   0.052
26009SOL     OW79923   5.316   2.616   8.841
26009SOL    HW179924   5.229   2.646   8.816
26009SOL    HW279925   5.370   2.635   8.765
26010SOL     OW79926  10.522   1.389  11.680
26010SOL    HW179927  10.566   1.372  11.597
26010SOL    HW279928  10.540   1.312  11.733
26011SOL     OW79929   0.624   0.808   9.645
26011SOL    HW179930   0.589   0.720   9.635
26011SOL    HW279931   0.704   0.808   9.593
26012SOL     OW79932  13.458   4.374   4.360
26012SOL    HW179933  13.438   4.362   4.453
26012SOL    HW279934  13.522   4.446   4.359
26013SOL     OW79935  14.409  12.887   1.059
26013SOL    HW179936  14.324  12.930   1.071
26013SOL    HW279937  14.470  12.940   1.109
26014SOL     OW79938   6.277   4.900   1.973
26014SOL    HW179939   6.288   4.995   1.979
26014SOL    HW279940   6.350   4.870   1.918
26015SOL     OW79941   8.517   1.238   4.664
26015SOL    HW179942   8.475   1.321   4.643
26015SOL    HW279943   8.446   1.181   4.693
26016SOL     OW79944  12.684   4.718   0.048
26016SOL    HW179945  12.725   4.786  14.872
26016SOL    HW279946  12.685   4.755   0.137
26017SOL     OW79947  14.111   8.590  11.765
26017SOL    HW179948  14.125   8.557  11.676
26017SOL    HW279949  14.196   8.580  11.808
26018SOL     OW79950   6.426   3.780   8.066
26018SOL    HW179951   6.448   3.698   8.020
26018SOL    HW279952   6.370   3.827   8.005
26019SOL     OW79953   5.179   2.593   0.486
26019SOL    HW179954   5.172   2.525   0.553
26019SOL    HW279955   5.265   2.632   0.500
26020SOL     OW79956   3.305   9.712   5.634
26020SOL    HW179957   3.383   9.657   5.638
26020SOL    HW279958   3.240   9.664   5.686
26021SOL     OW79959  11.702   9.565   9.801
26021SOL    HW179960  11.739   9.482   9.770
26021SOL    HW279961  11.608   9.558   9.783
26022SOL     OW79962   4.124  13.499   7.031
26022SOL    HW179963   4.132  13.498   7.127
26022SOL    HW279964   4.059  13.566   7.013
26023SOL     OW79965   8.937  10.595  13.826
26023SOL    HW179966   8.955  10.657  13.755
26023SOL    HW279967   8.870  10.637  13.880
26024SOL     OW79968  12.668   5.370   3.414
26024SOL    HW179969  12.629   5.294   3.372
26024SOL    HW279970  12.754   5.340   3.443
26025SOL     OW79971  11.947   9.405   5.564
26025SOL    HW179972  11.864   9.375   5.600
26025SOL    HW279973  11.999   9.432   5.640
26026SOL     OW79974  11.293   7.762   6.058
26026SOL    HW179975  11.339   7.835   6.100
26026SOL    HW279976  11.356   7.690   6.058
26027SOL     OW79977   3.200   1.571   5.585
26027SOL    HW179978   3.195   1.477   5.599
26027SOL    HW279979   3.280   1.583   5.533
26028SOL     OW79980   3.375   3.544   3.283
26028SOL    HW179981   3.425   3.598   3.223
26028SOL    HW279982   3.430   3.539   3.362
26029SOL     OW79983  13.545   8.914   2.900
26029SOL    HW179984  13.493   8.984   2.940
26029SOL    HW279985  13.636   8.936   2.922
26030SOL     OW79986  13.774   9.050  12.694
26030SOL    HW179987  13.680   9.057  12.677
26030SOL    HW279988  13.799   8.968  12.652
26031SOL     OW79989  11.006   4.228   1.520
26031SOL    HW179990  10.994   4.308   1.468
26031SOL    HW279991  11.057   4.170   1.463
26032SOL     OW79992   3.991   9.071  10.108
26032SOL    HW179993   3.918   9.066  10.171
26032SOL    HW279994   4.067   9.041  10.157
26033SOL     OW79995   9.448   3.397   0.407
26033SOL    HW179996   9.435   3.402   0.313
26033SOL    HW279997   9.403   3.473   0.442
26034SOL     OW79998   8.442   3.106  11.040
26034SOL    HW179999   8.520   3.131  10.990
26034SOL    HW280000   8.471   3.107  11.131
26035SOL     OW80001   2.519   6.396  12.269
26035SOL    HW180002   2.466   6.331  12.221
26035SOL    HW280003   2.588   6.345  12.310
26036SOL     OW80004   0.835   2.399   3.195
26036SOL    HW180005   0.834   2.304   3.187
26036SOL    HW280006   0.784   2.430   3.120
26037SOL     OW80007   3.739   7.146   3.167
26037SOL    HW180008   3.745   7.064   3.119
26037SOL    HW280009   3.798   7.206   3.120
26038SOL     OW80010   5.892   0.278   1.497
26038SOL    HW180011   5.932   0.355   1.536
26038SOL    HW280012   5.948   0.205   1.523
26039SOL     OW80013   3.358   7.443  11.322
26039SOL    HW180014   3.262   7.446  11.328
26039SOL    HW280015   3.386   7.524  11.366
26040SOL     OW80016   6.838   8.819   0.111
26040SOL    HW180017   6.831   8.844   0.203
26040SOL    HW280018   6.836   8.724   0.111
26041SOL     OW80019  10.288  14.674   9.888
26041SOL    HW180020  10.377  14.689   9.855
26041SOL    HW280021  10.236  14.653   9.811
26042SOL     OW80022  13.309   0.052   5.465
26042SOL    HW180023  13.302   0.115   5.537
26042SOL    HW280024  13.229  14.877   5.472
26043SOL     OW80025  14.566   1.240   9.276
26043SOL    HW180026  14.492   1.214   9.221
26043SOL    HW280027  14.605   1.158   9.303
26044SOL     OW80028   0.289   6.546   4.599
26044SOL    HW180029   0.345   6.512   4.669
26044SOL    HW280030   0.334   6.626   4.570
26045SOL     OW80031   4.702  14.556   8.392
26045SOL    HW180032   4.727  14.640   8.429
26045SOL    HW280033   4.607  14.552   8.401
26046SOL     OW80034   1.612   7.045  14.594
26046SOL    HW180035   1.678   6.989  14.553
26046SOL    HW280036   1.611   7.019  14.686
26047SOL     OW80037  12.504   6.730   3.060
26047SOL    HW180038  12.560   6.665   3.101
26047SOL    HW280039  12.456   6.769   3.133
26048SOL     OW80040   9.413   4.259   5.335
26048SOL    HW180041   9.332   4.228   5.375
26048SOL    HW280042   9.467   4.181   5.324
26049SOL     OW80043   5.069  14.090   0.332
26049SOL    HW180044   5.006  14.157   0.357
26049SOL    HW280045   5.094  14.112   0.242
26050SOL     OW80046   2.865   2.395  13.781
26050SOL    HW180047   2.846   2.302  13.767
26050SOL    HW280048   2.780   2.438  13.776
26051SOL     OW80049   3.183   8.064   4.250
26051SOL    HW180050   3.198   8.114   4.170
26051SOL    HW280051   3.088   8.052   4.254
26052SOL     OW80052   3.358   7.833   2.354
26052SOL    HW180053   3.387   7.761   2.409
26052SOL    HW280054   3.438   7.863   2.310
26053SOL     OW80055   2.216  14.115  12.911
26053SOL    HW180056   2.281  14.182  12.889
26053SOL    HW280057   2.230  14.099  13.004
26054SOL     OW80058   8.263   1.163   1.720
26054SOL    HW180059   8.241   1.070   1.715
26054SOL    HW280060   8.218   1.202   1.645
26055SOL     OW80061   3.010   1.553   8.470
26055SOL    HW180062   3.046   1.640   8.450
26055SOL    HW280063   2.939   1.570   8.531
26056SOL     OW80064   8.221   1.880  12.521
26056SOL    HW180065   8.163   1.955  12.535
26056SOL    HW280066   8.246   1.886  12.428
26057SOL     OW80067   4.645   1.467   5.918
26057SOL    HW180068   4.552   1.458   5.939
26057SOL    HW280069   4.648   1.465   5.822
26058SOL     OW80070  10.486   7.662   6.165
26058SOL    HW180071  10.489   7.668   6.260
26058SOL    HW280072  10.393   7.654   6.143
26059SOL     OW80073   1.405   1.716   1.814
26059SOL    HW180074   1.429   1.626   1.835
26059SOL    HW280075   1.321   1.729   1.858
26060SOL     OW80076   5.949  10.597   3.371
26060SOL    HW180077   5.912  10.510   3.382
26060SOL    HW280078   6.044  10.583   3.371
26061SOL     OW80079  10.187   6.709  13.675
26061SOL    HW180080  10.194   6.613  13.680
26061SOL    HW280081  10.148   6.735  13.759
26062SOL     OW80082  12.548   7.267   4.628
26062SOL    HW180083  12.478   7.222   4.579
26062SOL    HW280084  12.582   7.332   4.566
26063SOL     OW80085  10.649  13.875   1.841
26063SOL    HW180086  10.565  13.841   1.811
26063SOL    HW280087  10.673  13.817   1.913
26064SOL     OW80088   0.972   2.832   2.245
26064SOL    HW180089   1.049   2.823   2.301
26064SOL    HW280090   0.992   2.779   2.168
26065SOL     OW80091  13.887   7.582   3.296
26065SOL    HW180092  13.914   7.503   3.342
26065SOL    HW280093  13.794   7.571   3.281
26066SOL     OW80094   0.468   7.157  13.692
26066SOL    HW180095   0.452   7.088  13.627
26066SOL    HW280096   0.431   7.123  13.773
26067SOL     OW80097  13.597   5.759   0.402
26067SOL    HW180098  13.573   5.782   0.312
26067SOL    HW280099  13.619   5.843   0.443
26068SOL     OW80100   1.966   0.279   9.070
26068SOL    HW180101   1.991   0.190   9.093
26068SOL    HW280102   1.986   0.330   9.149
26069SOL     OW80103   8.326   8.714  13.511
26069SOL    HW180104   8.287   8.748  13.591
26069SOL    HW280105   8.342   8.621  13.530
26070SOL     OW80106   2.708   7.929   8.899
26070SOL    HW180107   2.673   8.013   8.870
26070SOL    HW280108   2.726   7.881   8.817
26071SOL     OW80109   2.005   6.781   7.817
26071SOL    HW180110   2.021   6.718   7.746
26071SOL    HW280111   1.988   6.864   7.772
26072SOL     OW80112   9.359   5.358   9.231
26072SOL    HW180113   9.403   5.336   9.313
26072SOL    HW280114   9.329   5.275   9.196
26073SOL     OW80115  12.767  14.155   0.141
26073SOL    HW180116  12.689  14.101   0.155
26073SOL    HW280117  12.834  14.114   0.196
26074SOL     OW80118  14.661   5.647   6.062
26074SOL    HW180119  14.753   5.634   6.039
26074SOL    HW280120  14.649   5.597   6.143
26075SOL     OW80121  14.543   9.614   5.306
26075SOL    HW180122  14.507   9.602   5.393
26075SOL    HW280123  14.560   9.525   5.275
26076SOL     OW80124   7.816   9.220   1.410
26076SOL    HW180125   7.836   9.174   1.491
26076SOL    HW280126   7.879   9.291   1.406
26077SOL     OW80127   7.224   8.949   5.581
26077SOL    HW180128   7.148   8.902   5.548
26077SOL    HW280129   7.299   8.898   5.549
26078SOL     OW80130   4.595   7.713  10.502
26078SOL    HW180131   4.549   7.676  10.577
26078SOL    HW280132   4.620   7.638  10.449
26079SOL     OW80133  12.322   6.266   5.726
26079SOL    HW180134  12.330   6.359   5.743
26079SOL    HW280135  12.234   6.244   5.758
26080SOL     OW80136  10.972   6.909   2.515
26080SOL    HW180137  10.943   6.836   2.461
26080SOL    HW280138  10.908   6.978   2.497
26081SOL     OW80139   0.054  11.428  11.964
26081SOL    HW180140   0.035  11.490  12.034
26081SOL    HW280141   0.143  11.396  11.983
26082SOL     OW80142  10.596   6.629   4.882
26082SOL    HW180143  10.676   6.681   4.882
26082SOL    HW280144  10.611   6.562   4.814
26083SOL     OW80145   9.702  14.531   4.295
26083SOL    HW180146   9.711  14.565   4.206
26083SOL    HW280147   9.700  14.436   4.285
26084SOL     OW80148   1.349   0.551   2.779
26084SOL    HW180149   1.376   0.517   2.694
26084SOL    HW280150   1.429   0.591   2.815
26085SOL     OW80151   8.695  13.759  11.918
26085SOL    HW180152   8.607  13.724  11.931
26085SOL    HW280153   8.680  13.852  11.898
26086SOL     OW80154   6.524   6.100  11.595
26086SOL    HW180155   6.511   6.029  11.532
26086SOL    HW280156   6.503   6.062  11.680
26087SOL     OW80157   4.328   2.152   4.075
26087SOL    HW180158   4.292   2.241   4.074
26087SOL    HW280159   4.360   2.139   3.986
26088SOL     OW80160   7.229  14.325  13.228
26088SOL    HW180161   7.310  14.374  13.223
26088SOL    HW280162   7.171  14.366  13.164
26089SOL     OW80163   3.763   4.110  13.463
26089SOL    HW180164   3.743   4.103  13.370
26089SOL    HW280165   3.780   4.203  13.478
26090SOL     OW80166   7.457   3.327  11.371
26090SOL    HW180167   7.431   3.279  11.449
26090SOL    HW280168   7.435   3.418  11.390
26091SOL     OW80169   8.512  13.053  10.425
26091SOL    HW180170   8.573  13.117  10.386
26091SOL    HW280171   8.453  13.030  10.353
26092SOL     OW80172  12.776   4.857   3.330
26092SOL    HW180173  12.720   4.919   3.377
26092SOL    HW280174  12.850   4.842   3.390
26093SOL     OW80175  13.376   2.189  11.695
26093SOL    HW180176  13.296   2.239  11.677
26093SOL    HW280177  13.361   2.105  11.651
26094SOL     OW80178  10.903   0.430  14.045
26094SOL    HW180179  10.899   0.384  14.128
26094SOL    HW280180  10.953   0.371  13.987
26095SOL     OW80181   6.886   0.608   4.422
26095SOL    HW180182   6.803   0.643   4.389
26095SOL    HW280183   6.945   0.613   4.347
26096SOL     OW80184  14.634   2.530  14.869
26096SOL    HW180185  14.555   2.495  14.826
26096SOL    HW280186  14.707   2.497  14.816
26097SOL     OW80187   9.589   0.287   2.584
26097SOL    HW180188   9.513   0.245   2.625
26097SOL    HW280189   9.552   0.362   2.537
26098SOL     OW80190   3.089   5.756   2.258
26098SOL    HW180191   3.120   5.675   2.219
26098SOL    HW280192   3.124   5.756   2.347
26099SOL     OW80193   6.530   8.426   7.918
26099SOL    HW180194   6.538   8.448   7.825
26099SOL    HW280195   6.609   8.461   7.958
26100SOL     OW80196  11.993   9.216   6.520
26100SOL    HW180197  11.915   9.160   6.513
26100SOL    HW280198  12.066   9.154   6.527
26101SOL     OW80199   0.343   2.504   4.323
26101SOL    HW180200   0.433   2.531   4.302
26101SOL    HW280201   0.352   2.446   4.398
26102SOL     OW80202   8.606   0.835   4.599
26102SOL    HW180203   8.672   0.830   4.668
26102SOL    HW280204   8.635   0.771   4.533
26103SOL     OW80205  11.466  10.385  11.997
26103SOL    HW180206  11.426  10.300  11.977
26103SOL    HW280207  11.559  10.373  11.976
26104SOL     OW80208   5.333   9.828   2.983
26104SOL    HW180209   5.325   9.794   2.894
26104SOL    HW280210   5.373   9.914   2.973
26105SOL     OW80211   5.573   2.037  11.129
26105SOL    HW180212   5.496   2.076  11.087
26105SOL    HW280213   5.642   2.103  11.118
26106SOL     OW80214  12.745   5.663   2.287
26106SOL    HW180215  12.830   5.683   2.327
26106SOL    HW280216  12.686   5.730   2.321
26107SOL     OW80217   5.358  12.114   6.257
26107SOL    HW180218   5.348  12.021   6.276
26107SOL    HW280219   5.293  12.157   6.312
26108SOL     OW80220   1.234   8.257   2.089
26108SOL    HW180221   1.251   8.209   2.008
26108SOL    HW280222   1.142   8.242   2.107
26109SOL     OW80223  11.752  11.838  11.116
26109SOL    HW180224  11.831  11.893  11.112
26109SOL    HW280225  11.720  11.836  11.026
26110SOL     OW80226   6.826   4.973  13.126
26110SOL    HW180227   6.778   4.990  13.046
26110SOL    HW280228   6.916   4.958  13.097
26111SOL     OW80229   2.810  10.723  13.933
26111SOL    HW180230   2.822  10.672  13.852
26111SOL    HW280231   2.880  10.692  13.990
26112SOL     OW80232  10.461   5.541   5.519
26112SOL    HW180233  10.475   5.631   5.546
26112SOL    HW280234  10.540   5.518   5.470
26113SOL     OW80235   3.659  13.988   8.389
26113SOL    HW180236   3.590  14.003   8.454
26113SOL    HW280237   3.617  14.004   8.305
26114SOL     OW80238  13.121  12.312  14.221
26114SOL    HW180239  13.109  12.407  14.217
26114SOL    HW280240  13.114  12.291  14.314
26115SOL     OW80241   4.378   6.330   8.376
26115SOL    HW180242   4.316   6.324   8.448
26115SOL    HW280243   4.353   6.410   8.330
26116SOL     OW80244   8.810  12.145  12.932
26116SOL    HW180245   8.888  12.173  12.885
26116SOL    HW280246   8.754  12.107  12.865
26117SOL     OW80247   6.549   5.028   8.444
26117SOL    HW180248   6.490   4.962   8.408
26117SOL    HW280249   6.634   4.984   8.449
26118SOL     OW80250  11.604   1.050   3.389
26118SOL    HW180251  11.526   1.039   3.335
26118SOL    HW280252  11.677   1.039   3.329
26119SOL     OW80253   4.450  10.196   2.560
26119SOL    HW180254   4.433  10.116   2.610
26119SOL    HW280255   4.365  10.240   2.556
26120SOL     OW80256   5.567  12.916  12.370
26120SOL    HW180257   5.539  12.833  12.332
26120SOL    HW280258   5.524  12.920  12.455
26121SOL     OW80259   6.172  14.480   4.994
26121SOL    HW180260   6.192  14.387   4.980
26121SOL    HW280261   6.077  14.484   4.995
26122SOL     OW80262  10.556   3.802  14.050
26122SOL    HW180263  10.488   3.820  13.985
26122SOL    HW280264  10.518   3.833  14.133
26123SOL     OW80265  13.111   7.326  14.573
26123SOL    HW180266  13.039   7.363  14.623
26123SOL    HW280267  13.076   7.319  14.484
26124SOL     OW80268   8.944   7.660   5.776
26124SOL    HW180269   8.907   7.594   5.718
26124SOL    HW280270   8.990   7.610   5.843
26125SOL     OW80271   8.253  10.869   6.947
26125SOL    HW180272   8.242  10.851   7.040
26125SOL    HW280273   8.251  10.783   6.906
26126SOL     OW80274   9.802  11.129   6.860
26126SOL    HW180275   9.732  11.111   6.798
26126SOL    HW280276   9.782  11.073   6.936
26127SOL     OW80277  11.349   6.045   3.147
26127SOL    HW180278  11.281   5.989   3.109
26127SOL    HW280279  11.423   6.037   3.087
26128SOL     OW80280   5.998   1.932  13.755
26128SOL    HW180281   5.916   1.884  13.747
26128SOL    HW280282   6.035   1.903  13.838
26129SOL     OW80283  10.240   5.683   5.626
26129SOL    HW180284  10.266   5.609   5.571
26129SOL    HW280285  10.144   5.677   5.630
26130SOL     OW80286  12.147   5.609   5.728
26130SOL    HW180287  12.197   5.598   5.809
26130SOL    HW280288  12.182   5.542   5.669
26131SOL     OW80289  10.750   6.153  12.172
26131SOL    HW180290  10.807   6.191  12.238
26131SOL    HW280291  10.780   6.062  12.163
26132SOL     OW80292  11.845   1.992   9.170
26132SOL    HW180293  11.911   1.940   9.216
26132SOL    HW280294  11.765   1.940   9.175
26133SOL     OW80295  12.266   9.261  10.348
26133SOL    HW180296  12.320   9.330  10.386
26133SOL    HW280297  12.270   9.277  10.254
26134SOL     OW80298   2.032  14.666   8.249
26134SOL    HW180299   1.961  14.720   8.215
26134SOL    HW280300   2.066  14.619   8.172
26135SOL     OW80301  13.898  10.678   4.911
26135SOL    HW180302  13.944  10.621   4.848
26135SOL    HW280303  13.807  10.678   4.880
26136SOL     OW80304   7.214   3.917   8.415
26136SOL    HW180305   7.199   3.825   8.391
26136SOL    HW280306   7.184   3.966   8.338
26137SOL     OW80307   5.303  12.540  11.965
26137SOL    HW180308   5.331  12.507  11.879
26137SOL    HW280309   5.234  12.479  11.992
26138SOL     OW80310   0.579  10.774   0.049
26138SOL    HW180311   0.614  10.861   0.072
26138SOL    HW280312   0.656  10.725   0.019
26139SOL     OW80313  12.661  11.925   7.490
26139SOL    HW180314  12.581  11.978   7.489
26139SOL    HW280315  12.717  11.966   7.424
26140SOL     OW80316   3.016   1.812  10.529
26140SOL    HW180317   3.095   1.760  10.511
26140SOL    HW280318   2.954   1.785  10.461
26141SOL     OW80319  13.482   0.550   8.826
26141SOL    HW180320  13.495   0.588   8.740
26141SOL    HW280321  13.397   0.506   8.821
26142SOL     OW80322   2.741  11.477   9.842
26142SOL    HW180323   2.816  11.468   9.783
26142SOL    HW280324   2.704  11.563   9.820
26143SOL     OW80325   3.992   8.389   3.922
26143SOL    HW180326   3.968   8.310   3.874
26143SOL    HW280327   4.055   8.359   3.988
26144SOL     OW80328   3.899   0.366  14.624
26144SOL    HW180329   3.957   0.429  14.581
26144SOL    HW280330   3.953   0.287  14.632
26145SOL     OW80331   5.703  11.513   5.780
26145SOL    HW180332   5.768  11.465   5.832
26145SOL    HW280333   5.680  11.454   5.709
26146SOL     OW80334   1.873   0.700  13.014
26146SOL    HW180335   1.929   0.746  13.075
26146SOL    HW280336   1.795   0.677  13.065
26147SOL     OW80337   5.878   5.446  13.475
26147SOL    HW180338   5.937   5.428  13.549
26147SOL    HW280339   5.879   5.541  13.465
26148SOL     OW80340   2.338   6.253   6.508
26148SOL    HW180341   2.387   6.310   6.568
26148SOL    HW280342   2.298   6.187   6.564
26149SOL     OW80343   0.736   9.965   5.067
26149SOL    HW180344   0.795   9.908   5.019
26149SOL    HW280345   0.779   9.979   5.151
26150SOL     OW80346   0.154   4.472   4.816
26150SOL    HW180347   0.150   4.377   4.805
26150SOL    HW280348   0.193   4.484   4.902
26151SOL     OW80349  12.427   0.532  14.301
26151SOL    HW180350  12.494   0.491  14.247
26151SOL    HW280351  12.405   0.466  14.366
26152SOL     OW80352  12.764   4.530   7.898
26152SOL    HW180353  12.821   4.553   7.971
26152SOL    HW280354  12.795   4.584   7.825
26153SOL     OW80355  10.503  11.478   3.393
26153SOL    HW180356  10.478  11.565   3.362
26153SOL    HW280357  10.508  11.424   3.314
26154SOL     OW80358  10.135   8.508   2.235
26154SOL    HW180359  10.196   8.558   2.182
26154SOL    HW280360  10.180   8.497   2.319
26155SOL     OW80361  12.192   1.425   2.914
26155SOL    HW180362  12.285   1.444   2.900
26155SOL    HW280363  12.157   1.414   2.825
26156SOL     OW80364   6.919   8.107   0.361
26156SOL    HW180365   6.979   8.082   0.432
26156SOL    HW280366   6.945   8.050   0.288
26157SOL     OW80367  13.724   1.433  11.063
26157SOL    HW180368  13.637   1.452  11.027
26157SOL    HW280369  13.769   1.518  11.064
26158SOL     OW80370   6.750   2.158   7.746
26158SOL    HW180371   6.736   2.157   7.651
26158SOL    HW280372   6.777   2.248   7.765
26159SOL     OW80373   6.840   6.201   3.283
26159SOL    HW180374   6.832   6.147   3.362
26159SOL    HW280375   6.892   6.147   3.222
26160SOL     OW80376  12.810   1.266   5.815
26160SOL    HW180377  12.783   1.199   5.878
26160SOL    HW280378  12.731   1.316   5.797
26161SOL     OW80379  12.566  13.397   3.478
26161SOL    HW180380  12.560  13.323   3.539
26161SOL    HW280381  12.520  13.468   3.522
26162SOL     OW80382   7.045   1.379   0.632
26162SOL    HW180383   7.098   1.310   0.592
26162SOL    HW280384   7.075   1.383   0.723
26163SOL     OW80385  14.303   6.665   5.534
26163SOL    HW180386  14.352   6.597   5.579
26163SOL    HW280387  14.271   6.623   5.455
26164SOL     OW80388   1.701   0.762   2.349
26164SOL    HW180389   1.770   0.712   2.392
26164SOL    HW280390   1.704   0.734   2.257
26165SOL     OW80391   0.472  10.623  14.487
26165SOL    HW180392   0.380  10.619  14.463
26165SOL    HW280393   0.506  10.701  14.442
26166SOL     OW80394  14.035   0.288   2.322
26166SOL    HW180395  14.062   0.296   2.231
26166SOL    HW280396  14.111   0.248   2.366
26167SOL     OW80397   1.060  13.934   8.146
26167SOL    HW180398   1.068  14.003   8.081
26167SOL    HW280399   1.136  13.945   8.202
26168SOL     OW80400   9.435  14.664  12.724
26168SOL    HW180401   9.443  14.569  12.716
26168SOL    HW280402   9.394  14.678  12.809
26169SOL     OW80403   8.968   0.580   9.480
26169SOL    HW180404   9.016   0.633   9.543
26169SOL    HW280405   9.036   0.539   9.426
26170SOL     OW80406   8.705  13.721   7.643
26170SOL    HW180407   8.740  13.782   7.708
26170SOL    HW280408   8.780  13.667   7.618
26171SOL     OW80409   0.543   2.666  11.403
26171SOL    HW180410   0.463   2.716  11.422
26171SOL    HW280411   0.582   2.650  11.489
26172SOL     OW80412  13.504  11.884   9.457
26172SOL    HW180413  13.428  11.865   9.512
26172SOL    HW280414  13.467  11.907   9.372
26173SOL     OW80415   0.544   8.421   4.170
26173SOL    HW180416   0.631   8.451   4.195
26173SOL    HW280417   0.549   8.326   4.176
26174SOL     OW80418   2.235   9.484  10.193
26174SOL    HW180419   2.166   9.420  10.212
26174SOL    HW280420   2.245   9.482  10.098
26175SOL     OW80421   9.785   4.754   3.527
26175SOL    HW180422   9.790   4.715   3.615
26175SOL    HW280423   9.850   4.706   3.476
26176SOL     OW80424  11.995   1.515   8.218
26176SOL    HW180425  11.949   1.590   8.181
26176SOL    HW280426  12.061   1.492   8.153
26177SOL     OW80427   8.983  13.936   3.173
26177SOL    HW180428   9.051  13.986   3.127
26177SOL    HW280429   8.933  13.893   3.103
26178SOL     OW80430   6.698   2.417   9.779
26178SOL    HW180431   6.662   2.331   9.803
26178SOL    HW280432   6.776   2.396   9.727
26179SOL     OW80433   5.038   8.563  11.300
26179SOL    HW180434   5.105   8.552  11.368
26179SOL    HW280435   5.059   8.496  11.235
26180SOL     OW80436  11.112  12.155  12.786
26180SOL    HW180437  11.039  12.094  12.770
26180SOL    HW280438  11.114  12.164  12.881
26181SOL     OW80439   8.960   3.540   7.906
26181SOL    HW180440   9.039   3.495   7.936
26181SOL    HW280441   8.986   3.579   7.822
26182SOL     OW80442  13.655  10.017   1.250
26182SOL    HW180443  13.597  10.075   1.200
26182SOL    HW280444  13.713   9.979   1.184
26183SOL     OW80445  10.780   4.228   5.601
26183SOL    HW180446  10.694   4.248   5.563
26183SOL    HW280447  10.771   4.251   5.693
26184SOL     OW80448   0.921  11.050   4.599
26184SOL    HW180449   0.961  10.972   4.636
26184SOL    HW280450   0.971  11.123   4.636
26185SOL     OW80451  13.967  14.339  13.805
26185SOL    HW180452  14.018  14.406  13.759
26185SOL    HW280453  14.031  14.298  13.864
26186SOL     OW80454   1.388  10.600   7.987
26186SOL    HW180455   1.479  10.593   8.017
26186SOL    HW280456   1.361  10.509   7.972
26187SOL     OW80457   4.279   3.210  14.696
26187SOL    HW180458   4.308   3.134  14.644
26187SOL    HW280459   4.300   3.186  14.786
26188SOL     OW80460   9.310   1.507  12.824
26188SOL    HW180461   9.271   1.420  12.815
26188SOL    HW280462   9.282   1.538  12.910
26189SOL     OW80463   5.711   8.344   6.948
26189SOL    HW180464   5.678   8.357   6.859
26189SOL    HW280465   5.633   8.317   6.998
26190SOL     OW80466  12.341   0.214   7.317
26190SOL    HW180467  12.347   0.212   7.413
26190SOL    HW280468  12.263   0.265   7.298
26191SOL     OW80469   8.053   3.720  12.051
26191SOL    HW180470   8.075   3.639  12.004
26191SOL    HW280471   7.980   3.758  12.002
26192SOL     OW80472   6.668   6.373  13.531
26192SOL    HW180473   6.615   6.449  13.555
26192SOL    HW280474   6.724   6.358  13.608
26193SOL     OW80475  12.529  14.530   2.646
26193SOL    HW180476  12.479  14.453   2.673
26193SOL    HW280477  12.495  14.551   2.559
26194SOL     OW80478   5.117  10.493   3.799
26194SOL    HW180479   5.160  10.411   3.777
26194SOL    HW280480   5.025  10.478   3.777
26195SOL     OW80481  12.987  10.416   5.400
26195SOL    HW180482  12.932  10.476   5.349
26195SOL    HW280483  13.045  10.376   5.335
26196SOL     OW80484   5.747   2.395   3.251
26196SOL    HW180485   5.738   2.301   3.262
26196SOL    HW280486   5.753   2.408   3.157
26197SOL     OW80487   7.338   8.753   6.052
26197SOL    HW180488   7.402   8.745   6.123
26197SOL    HW280489   7.325   8.847   6.042
26198SOL     OW80490   9.319   1.115  11.843
26198SOL    HW180491   9.308   1.031  11.889
26198SOL    HW280492   9.247   1.117  11.780
26199SOL     OW80493   5.358   5.802   7.020
26199SOL    HW180494   5.426   5.783   6.955
26199SOL    HW280495   5.342   5.718   7.063
26200SOL     OW80496   2.065  12.156   3.923
26200SOL    HW180497   2.039  12.246   3.901
26200SOL    HW280498   2.160  12.155   3.912
26201SOL     OW80499  14.756   9.460  14.389
26201SOL    HW180500  14.673   9.444  14.434
26201SOL    HW280501  14.798   9.529  14.440
26202SOL     OW80502   5.490   2.891   3.672
26202SOL    HW180503   5.424   2.912   3.606
26202SOL    HW280504   5.461   2.938   3.750
26203SOL     OW80505   5.941   0.461  14.506
26203SOL    HW180506   5.904   0.523  14.569
26203SOL    HW280507   6.011   0.509  14.463
26204SOL     OW80508   1.275   3.085  13.072
26204SOL    HW180509   1.350   3.090  13.130
26204SOL    HW280510   1.276   2.995  13.039
26205SOL     OW80511   9.889  14.676   3.616
26205SOL    HW180512   9.882  14.702   3.525
26205SOL    HW280513   9.827  14.603   3.626
26206SOL     OW80514  12.526   4.531  12.924
26206SOL    HW180515  12.529   4.470  12.851
26206SOL    HW280516  12.484   4.482  12.995
26207SOL     OW80517   9.149  13.699   0.984
26207SOL    HW180518   9.095  13.623   1.006
26207SOL    HW280519   9.179  13.682   0.895
26208SOL     OW80520   1.070   3.372   0.257
26208SOL    HW180521   1.079   3.459   0.296
26208SOL    HW280522   1.142   3.367   0.193
26209SOL     OW80523  10.822   0.122   8.438
26209SOL    HW180524  10.744   0.105   8.491
26209SOL    HW280525  10.868   0.038   8.435
26210SOL     OW80526   9.430   8.143  11.518
26210SOL    HW180527   9.507   8.129  11.462
26210SOL    HW280528   9.427   8.066  11.575
26211SOL     OW80529  11.388   9.522   4.842
26211SOL    HW180530  11.326   9.484   4.903
26211SOL    HW280531  11.396   9.614   4.868
26212SOL     OW80532  12.123   1.424   8.989
26212SOL    HW180533  12.055   1.490   8.997
26212SOL    HW280534  12.203   1.473   8.970
26213SOL     OW80535   6.697   6.369  10.494
26213SOL    HW180536   6.653   6.427  10.431
26213SOL    HW280537   6.725   6.427  10.565
26214SOL     OW80538  11.556   7.738   4.981
26214SOL    HW180539  11.532   7.655   4.941
26214SOL    HW280540  11.647   7.752   4.953
26215SOL     OW80541   5.374  11.140   2.214
26215SOL    HW180542   5.450  11.083   2.225
26215SOL    HW280543   5.326  11.132   2.296
26216SOL     OW80544   9.144   4.494   7.049
26216SOL    HW180545   9.058   4.461   7.023
26216SOL    HW280546   9.152   4.469   7.141
26217SOL     OW80547   7.595   5.375  13.836
26217SOL    HW180548   7.623   5.361  13.927
26217SOL    HW280549   7.622   5.295  13.790
26218SOL     OW80550  13.752  11.554   0.466
26218SOL    HW180551  13.806  11.629   0.490
26218SOL    HW280552  13.807  11.478   0.483
26219SOL     OW80553   4.031   4.366  14.482
26219SOL    HW180554   4.109   4.409  14.448
26219SOL    HW280555   3.966   4.436  14.489
26220SOL     OW80556   7.334   4.816  13.795
26220SOL    HW180557   7.279   4.883  13.837
26220SOL    HW280558   7.272   4.762  13.746
26221SOL     OW80559   5.187  12.456   4.813
26221SOL    HW180560   5.093  12.441   4.807
26221SOL    HW280561   5.213  12.410   4.893
26222SOL     OW80562   5.507   6.176  13.220
26222SOL    HW180563   5.543   6.128  13.146
26222SOL    HW280564   5.499   6.110  13.289
26223SOL     OW80565   8.455  11.924   2.079
26223SOL    HW180566   8.379  11.891   2.031
26223SOL    HW280567   8.514  11.848   2.084
26224SOL     OW80568   7.957   4.490  13.771
26224SOL    HW180569   7.975   4.546  13.846
26224SOL    HW280570   7.903   4.420  13.806
26225SOL     OW80571   5.806   3.145   3.290
26225SOL    HW180572   5.771   3.162   3.378
26225SOL    HW280573   5.795   3.051   3.278
26226SOL     OW80574   0.428   0.367   1.293
26226SOL    HW180575   0.367   0.298   1.267
26226SOL    HW280576   0.372   0.436   1.329
26227SOL     OW80577   3.466   4.884   2.747
26227SOL    HW180578   3.440   4.952   2.810
26227SOL    HW280579   3.462   4.802   2.797
26228SOL     OW80580   8.533  12.789   4.592
26228SOL    HW180581   8.449  12.793   4.636
26228SOL    HW280582   8.526  12.854   4.521
26229SOL     OW80583  12.735   3.164  14.860
26229SOL    HW180584  12.737   3.125   0.070
26229SOL    HW280585  12.773   3.098  14.803
26230SOL     OW80586  13.812   1.794  13.857
26230SOL    HW180587  13.867   1.723  13.822
26230SOL    HW280588  13.864   1.873  13.846
26231SOL     OW80589   9.896   1.189  11.607
26231SOL    HW180590   9.893   1.140  11.525
26231SOL    HW280591   9.913   1.123  11.674
26232SOL     OW80592  12.867   7.098   8.633
26232SOL    HW180593  12.830   7.026   8.683
26232SOL    HW280594  12.955   7.109   8.669
26233SOL     OW80595   8.387   1.713   5.862
26233SOL    HW180596   8.445   1.695   5.937
26233SOL    HW280597   8.383   1.808   5.858
26234SOL     OW80598   1.304  13.797   1.818
26234SOL    HW180599   1.381  13.788   1.762
26234SOL    HW280600   1.235  13.828   1.759
26235SOL     OW80601   7.801   6.526   3.439
26235SOL    HW180602   7.895   6.506   3.436
26235SOL    HW280603   7.760   6.441   3.454
26236SOL     OW80604   7.795   5.471  10.406
26236SOL    HW180605   7.759   5.473  10.317
26236SOL    HW280606   7.752   5.544  10.451
26237SOL     OW80607  11.680  12.032   3.825
26237SOL    HW180608  11.593  12.023   3.865
26237SOL    HW280609  11.726  12.094   3.882
26238SOL     OW80610   2.652  13.178  10.434
26238SOL    HW180611   2.715  13.250  10.434
26238SOL    HW280612   2.566  13.221  10.432
26239SOL     OW80613   8.510   1.303   8.913
26239SOL    HW180614   8.579   1.237   8.920
26239SOL    HW280615   8.486   1.323   9.003
26240SOL     OW80616  12.674   1.187  12.835
26240SOL    HW180617  12.720   1.113  12.797
26240SOL    HW280618  12.591   1.192  12.788
26241SOL     OW80619   6.787  13.312   7.019
26241SOL    HW180620   6.795  13.217   7.029
26241SOL    HW280621   6.877  13.343   7.018
26242SOL     OW80622   4.556   2.715   4.847
26242SOL    HW180623   4.645   2.723   4.881
26242SOL    HW280624   4.567   2.710   4.752
26243SOL     OW80625  11.977   9.178   8.438
26243SOL    HW180626  11.910   9.121   8.476
26243SOL    HW280627  12.004   9.234   8.511
26244SOL     OW80628   5.731   0.320   9.081
26244SOL    HW180629   5.675   0.266   9.026
26244SOL    HW280630   5.743   0.401   9.031
26245SOL     OW80631   3.659  12.483   8.851
26245SOL    HW180632   3.624  12.537   8.780
26245SOL    HW280633   3.745  12.519   8.870
26246SOL     OW80634  11.231   5.105  14.383
26246SOL    HW180635  11.146   5.112  14.339
26246SOL    HW280636  11.291   5.076  14.314
26247SOL     OW80637   6.394   2.443  12.113
26247SOL    HW180638   6.448   2.414  12.040
26247SOL    HW280639   6.437   2.407  12.191
26248SOL     OW80640  14.757   4.864  10.474
26248SOL    HW180641  14.683   4.819  10.433
26248SOL    HW280642  14.784   4.806  10.545
26249SOL     OW80643   4.210   8.395   1.651
26249SOL    HW180644   4.197   8.472   1.706
26249SOL    HW280645   4.238   8.431   1.566
26250SOL     OW80646   8.513  12.878   0.868
26250SOL    HW180647   8.584  12.865   0.805
26250SOL    HW280648   8.556  12.872   0.954
26251SOL     OW80649   0.827   0.099   3.447
26251SOL    HW180650   0.862   0.057   3.368
26251SOL    HW280651   0.737   0.123   3.424
26252SOL     OW80652   5.614   3.635   6.190
26252SOL    HW180653   5.590   3.563   6.132
26252SOL    HW280654   5.586   3.714   6.145
26253SOL     OW80655   5.960  11.008   0.944
26253SOL    HW180656   5.888  11.015   0.882
26253SOL    HW280657   5.984  10.915   0.943
26254SOL     OW80658   5.950   2.182   4.752
26254SOL    HW180659   5.967   2.273   4.730
26254SOL    HW280660   5.892   2.186   4.828
26255SOL     OW80661   7.835   3.376  10.229
26255SOL    HW180662   7.754   3.403  10.274
26255SOL    HW280663   7.859   3.451  10.175
26256SOL     OW80664  10.467   2.788  12.889
26256SOL    HW180665  10.462   2.775  12.794
26256SOL    HW280666  10.471   2.699  12.925
26257SOL     OW80667   1.296   5.207   1.081
26257SOL    HW180668   1.235   5.279   1.068
26257SOL    HW280669   1.247   5.144   1.135
26258SOL     OW80670   9.422   4.681   4.184
26258SOL    HW180671   9.463   4.692   4.270
26258SOL    HW280672   9.332   4.712   4.197
26259SOL     OW80673   5.879   1.785   0.707
26259SOL    HW180674   5.866   1.732   0.628
26259SOL    HW280675   5.948   1.740   0.756
26260SOL     OW80676  13.024   9.508  11.947
26260SOL    HW180677  13.072   9.484  11.868
26260SOL    HW280678  13.053   9.598  11.966
26261SOL     OW80679  10.163  14.638   3.611
26261SOL    HW180680  10.175  14.577   3.539
26261SOL    HW280681  10.068  14.651   3.615
26262SOL     OW80682   8.449   8.143   5.515
26262SOL    HW180683   8.456   8.085   5.439
26262SOL    HW280684   8.523   8.119   5.571
26263SOL     OW80685   7.518   6.572  13.673
26263SOL    HW180686   7.562   6.625  13.607
26263SOL    HW280687   7.572   6.582  13.751
26264SOL     OW80688  10.466   2.481   9.010
26264SOL    HW180689  10.428   2.464   8.924
26264SOL    HW280690  10.435   2.409   9.065
26265SOL     OW80691   5.688   5.644   2.484
26265SOL    HW180692   5.647   5.729   2.473
26265SOL    HW280693   5.644   5.605   2.560
26266SOL     OW80694   1.189   9.804   5.841
26266SOL    HW180695   1.186   9.896   5.868
26266SOL    HW280696   1.220   9.807   5.750
26267SOL     OW80697  12.827   7.010   9.909
26267SOL    HW180698  12.901   6.958   9.941
26267SOL    HW280699  12.752   6.979   9.960
26268SOL     OW80700   6.322   2.090  10.141
26268SOL    HW180701   6.364   2.094  10.228
26268SOL    HW280702   6.253   2.155  10.144
26269SOL     OW80703   9.624   0.329   3.907
26269SOL    HW180704   9.692   0.392   3.932
26269SOL    HW280705   9.640   0.313   3.814
26270SOL     OW80706  11.001  13.231  12.553
26270SOL    HW180707  11.056  13.239  12.631
26270SOL    HW280708  10.993  13.320  12.520
26271SOL     OW80709   9.273   1.562  11.389
26271SOL    HW180710   9.220   1.608  11.455
26271SOL    HW280711   9.232   1.586  11.305
26272SOL     OW80712   8.157  11.305   9.189
26272SOL    HW180713   8.223  11.238   9.167
26272SOL    HW280714   8.169  11.320   9.283
26273SOL     OW80715   6.632   2.190   3.685
26273SOL    HW180716   6.686   2.114   3.662
26273SOL    HW280717   6.691   2.246   3.736
26274SOL     OW80718   5.430   8.404   6.674
26274SOL    HW180719   5.418   8.490   6.715
26274SOL    HW280720   5.381   8.344   6.730
26275SOL     OW80721  14.808   0.165   4.234
26275SOL    HW180722  14.762   0.099   4.286
26275SOL    HW280723  14.766   0.247   4.259
26276SOL     OW80724   5.734   7.708  11.574
26276SOL    HW180725   5.784   7.736  11.651
26276SOL    HW280726   5.788   7.735  11.500
26277SOL     OW80727   6.313   4.662  10.187
26277SOL    HW180728   6.271   4.666  10.273
26277SOL    HW280729   6.373   4.737  10.185
26278SOL     OW80730  12.516   2.562   8.540
26278SOL    HW180731  12.466   2.483   8.563
26278SOL    HW280732  12.449   2.629   8.524
26279SOL     OW80733   0.289   4.068  13.029
26279SOL    HW180734   0.354   4.097  13.093
26279SOL    HW280735   0.270   3.977  13.054
26280SOL     OW80736  11.222  12.749   4.901
26280SOL    HW180737  11.212  12.775   4.993
26280SOL    HW280738  11.220  12.832   4.853
26281SOL     OW80739   4.684   0.569  10.483
26281SOL    HW180740   4.773   0.579  10.449
26281SOL    HW280741   4.635   0.640  10.440
26282SOL     OW80742  12.513   6.958   4.969
26282SOL    HW180743  12.594   6.991   4.930
26282SOL    HW280744  12.527   6.964   5.063
26283SOL     OW80745  12.489   9.550   2.387
26283SOL    HW180746  12.424   9.532   2.455
26283SOL    HW280747  12.572   9.554   2.434
26284SOL     OW80748   3.624   9.141   6.033
26284SOL    HW180749   3.588   9.176   6.115
26284SOL    HW280750   3.559   9.164   5.966
26285SOL     OW80751   0.636  11.923   2.551
26285SOL    HW180752   0.629  11.992   2.616
26285SOL    HW280753   0.600  11.845   2.593
26286SOL     OW80754   9.925   4.294  13.843
26286SOL    HW180755   9.858   4.362  13.837
26286SOL    HW280756   9.979   4.306  13.765
26287SOL     OW80757   4.079  14.838   0.243
26287SOL    HW180758   4.153  14.778   0.245
26287SOL    HW280759   4.019  14.800   0.179
26288SOL     OW80760  14.771  12.149   1.501
26288SOL    HW180761  14.807  12.065   1.531
26288SOL    HW280762  14.793  12.152   1.408
26289SOL     OW80763   2.640  12.053   7.333
26289SOL    HW180764   2.602  12.135   7.363
26289SOL    HW280765   2.689  12.077   7.254
26290SOL     OW80766   7.609  14.262  13.291
26290SOL    HW180767   7.560  14.188  13.253
26290SOL    HW280768   7.697  14.254  13.252
26291SOL     OW80769   4.152   4.147  11.869
26291SOL    HW180770   4.112   4.133  11.783
26291SOL    HW280771   4.088   4.199  11.916
26292SOL     OW80772  11.190   3.051   3.067
26292SOL    HW180773  11.130   3.001   3.121
26292SOL    HW280774  11.174   3.020   2.978
26293SOL     OW80775  11.385   6.830   0.068
26293SOL    HW180776  11.392   6.735   0.071
26293SOL    HW280777  11.301   6.849   0.110
26294SOL     OW80778   3.053  10.601   5.247
26294SOL    HW180779   3.089  10.589   5.335
26294SOL    HW280780   3.084  10.688   5.221
26295SOL     OW80781  14.020   7.761   5.270
26295SOL    HW180782  14.086   7.825   5.243
26295SOL    HW280783  14.046   7.680   5.227
26296SOL     OW80784   0.456   0.214   5.196
26296SOL    HW180785   0.463   0.164   5.277
26296SOL    HW280786   0.483   0.303   5.219
26297SOL     OW80787   7.255   7.614   5.733
26297SOL    HW180788   7.197   7.690   5.725
26297SOL    HW280789   7.312   7.620   5.656
26298SOL     OW80790  11.384   5.120  12.625
26298SOL    HW180791  11.400   5.037  12.580
26298SOL    HW280792  11.364   5.182  12.554
26299SOL     OW80793  10.972  12.045   5.809
26299SOL    HW180794  11.016  12.118   5.767
26299SOL    HW280795  11.034  11.973   5.803
26300SOL     OW80796   3.100   0.673   8.980
26300SOL    HW180797   3.081   0.625   9.060
26300SOL    HW280798   3.016   0.713   8.956
26301SOL     OW80799   7.978   8.499  10.151
26301SOL    HW180800   7.926   8.565  10.196
26301SOL    HW280801   8.068   8.523  10.169
26302SOL     OW80802  14.498   9.593   7.610
26302SOL    HW180803  14.425   9.547   7.653
26302SOL    HW280804  14.563   9.603   7.679
26303SOL     OW80805   7.106  12.079  11.549
26303SOL    HW180806   7.156  12.142  11.497
26303SOL    HW280807   7.116  12.110  11.639
26304SOL     OW80808   7.520   2.708   7.787
26304SOL    HW180809   7.521   2.804   7.787
26304SOL    HW280810   7.457   2.685   7.855
26305SOL     OW80811   8.407   2.896   8.168
26305SOL    HW180812   8.496   2.914   8.137
26305SOL    HW280813   8.359   2.977   8.154
26306SOL     OW80814   3.864   2.321   8.776
26306SOL    HW180815   3.921   2.349   8.847
26306SOL    HW280816   3.843   2.402   8.729
26307SOL     OW80817   3.732   6.035   4.548
26307SOL    HW180818   3.717   6.079   4.631
26307SOL    HW280819   3.812   5.984   4.561
26308SOL     OW80820   8.878  12.469   2.794
26308SOL    HW180821   8.798  12.423   2.819
26308SOL    HW280822   8.942  12.399   2.779
26309SOL     OW80823  10.579   6.606  13.800
26309SOL    HW180824  10.495   6.639  13.830
26309SOL    HW280825  10.588   6.640  13.710
26310SOL     OW80826  14.083   0.417  14.493
26310SOL    HW180827  14.019   0.422  14.564
26310SOL    HW280828  14.106   0.324  14.488
26311SOL     OW80829  11.841   9.628   3.049
26311SOL    HW180830  11.811   9.578   3.125
26311SOL    HW280831  11.808   9.579   2.974
26312SOL     OW80832   0.415  12.721  10.235
26312SOL    HW180833   0.345  12.689  10.292
26312SOL    HW280834   0.375  12.722  10.148
26313SOL     OW80835   6.853  11.089   0.674
26313SOL    HW180836   6.919  11.025   0.701
26313SOL    HW280837   6.770  11.049   0.701
26314SOL     OW80838   8.776   4.016  13.187
26314SOL    HW180839   8.852   4.034  13.242
26314SOL    HW280840   8.750   4.103  13.155
26315SOL     OW80841   5.918   2.045   8.753
26315SOL    HW180842   5.879   2.132   8.747
26315SOL    HW280843   6.011   2.059   8.735
26316SOL     OW80844  11.272   3.908   1.490
26316SOL    HW180845  11.223   3.986   1.465
26316SOL    HW280846  11.362   3.939   1.502
26317SOL     OW80847  13.187  12.762   8.649
26317SOL    HW180848  13.199  12.847   8.692
26317SOL    HW280849  13.235  12.770   8.567
26318SOL     OW80850   1.625   6.177   9.792
26318SOL    HW180851   1.580   6.258   9.767
26318SOL    HW280852   1.558   6.124   9.835
26319SOL     OW80853   2.314  13.540  10.623
26319SOL    HW180854   2.376  13.467  10.620
26319SOL    HW280855   2.338  13.594  10.547
26320SOL     OW80856   9.094   0.918   7.054
26320SOL    HW180857   9.093   0.999   7.107
26320SOL    HW280858   9.037   0.938   6.980
26321SOL     OW80859   0.943   6.709   4.102
26321SOL    HW180860   0.867   6.745   4.057
26321SOL    HW280861   0.978   6.781   4.154
26322SOL     OW80862   1.194  12.688   1.151
26322SOL    HW180863   1.111  12.650   1.181
26322SOL    HW280864   1.183  12.782   1.169
26323SOL     OW80865   7.524   6.345   5.393
26323SOL    HW180866   7.458   6.413   5.383
26323SOL    HW280867   7.563   6.362   5.479
26324SOL     OW80868  14.832   8.026   4.706
26324SOL    HW180869  14.841   7.979   4.789
26324SOL    HW280870  14.876   8.109   4.721
26325SOL     OW80871  12.428   4.010  10.817
26325SOL    HW180872  12.353   3.951  10.822
26325SOL    HW280873  12.430   4.053  10.902
26326SOL     OW80874  14.044  12.410   4.388
26326SOL    HW180875  14.068  12.318   4.396
26326SOL    HW280876  13.948  12.410   4.384
26327SOL     OW80877   9.651  12.272   6.115
26327SOL    HW180878   9.717  12.259   6.183
26327SOL    HW280879   9.568  12.272   6.163
26328SOL     OW80880   1.737   5.473   8.061
26328SOL    HW180881   1.742   5.568   8.057
26328SOL    HW280882   1.644   5.454   8.069
26329SOL     OW80883   7.768   1.012   8.164
26329SOL    HW180884   7.826   1.061   8.106
26329SOL    HW280885   7.826   0.971   8.228
26330SOL     OW80886   0.511   0.512   5.801
26330SOL    HW180887   0.485   0.469   5.720
26330SOL    HW280888   0.603   0.536   5.788
26331SOL     OW80889   7.399  12.094  10.562
26331SOL    HW180890   7.372  12.026  10.501
26331SOL    HW280891   7.476  12.134  10.523
26332SOL     OW80892   6.657  10.011   4.786
26332SOL    HW180893   6.577   9.959   4.789
26332SOL    HW280894   6.674  10.026   4.693
26333SOL     OW80895  11.430   5.607  14.704
26333SOL    HW180896  11.493   5.535  14.711
26333SOL    HW280897  11.403   5.624  14.794
26334SOL     OW80898  13.251  11.758   4.480
26334SOL    HW180899  13.265  11.851   4.465
26334SOL    HW280900  13.197  11.730   4.406
26335SOL     OW80901   6.503  12.383   8.905
26335SOL    HW180902   6.432  12.441   8.930
26335SOL    HW280903   6.517  12.400   8.812
26336SOL     OW80904   7.520  12.929   5.689
26336SOL    HW180905   7.604  12.884   5.691
26336SOL    HW280906   7.494  12.927   5.596
26337SOL     OW80907   3.471   7.334  13.890
26337SOL    HW180908   3.424   7.290  13.961
26337SOL    HW280909   3.497   7.264  13.831
26338SOL     OW80910   7.528   8.864   4.443
26338SOL    HW180911   7.581   8.876   4.521
26338SOL    HW280912   7.440   8.845   4.476
26339SOL     OW80913   4.615   7.595   1.226
26339SOL    HW180914   4.704   7.626   1.211
26339SOL    HW280915   4.561   7.674   1.220
26340SOL     OW80916   3.505  14.799   7.649
26340SOL    HW180917   3.453  14.726   7.616
26340SOL    HW280918   3.595  14.780   7.621
26341SOL     OW80919   7.997   3.354  12.232
26341SOL    HW180920   7.987   3.433  12.285
26341SOL    HW280921   7.952   3.375  12.150
26342SOL     OW80922   7.997   2.900   8.104
26342SOL    HW180923   7.956   2.831   8.156
26342SOL    HW280924   8.044   2.853   8.035
26343SOL     OW80925   2.647   9.251  13.877
26343SOL    HW180926   2.714   9.188  13.902
26343SOL    HW280927   2.565   9.215  13.911
26344SOL     OW80928   3.775   8.450   6.340
26344SOL    HW180929   3.764   8.455   6.245
26344SOL    HW280930   3.706   8.391   6.370
26345SOL     OW80931   2.917   0.004  11.110
26345SOL    HW180932   3.010   0.015  11.129
26345SOL    HW280933   2.873   0.013  11.194
26346SOL     OW80934   6.057  12.212   1.153
26346SOL    HW180935   6.072  12.129   1.106
26346SOL    HW280936   6.114  12.275   1.110
26347SOL     OW80937   3.105   3.384   3.823
26347SOL    HW180938   3.057   3.305   3.796
26347SOL    HW280939   3.143   3.362   3.908
26348SOL     OW80940   4.537   0.121   4.120
26348SOL    HW180941   4.460   0.081   4.162
26348SOL    HW280942   4.501   0.178   4.053
26349SOL     OW80943   5.271   8.180   4.204
26349SOL    HW180944   5.312   8.136   4.129
26349SOL    HW280945   5.232   8.109   4.254
26350SOL     OW80946  13.666  10.018  12.710
26350SOL    HW180947  13.739  10.036  12.769
26350SOL    HW280948  13.636   9.931  12.736
26351SOL     OW80949   4.547   1.541   7.004
26351SOL    HW180950   4.634   1.567   6.973
26351SOL    HW280951   4.541   1.577   7.092
26352SOL     OW80952   1.071   7.535  11.985
26352SOL    HW180953   1.141   7.531  12.051
26352SOL    HW280954   1.108   7.590  11.916
26353SOL     OW80955   6.523   8.167   0.779
26353SOL    HW180956   6.463   8.241   0.775
26353SOL    HW280957   6.592   8.188   0.716
26354SOL     OW80958   5.365  13.711  11.781
26354SOL    HW180959   5.349  13.751  11.696
26354SOL    HW280960   5.372  13.785  11.841
26355SOL     OW80961  11.584   6.822  13.994
26355SOL    HW180962  11.604   6.896  13.937
26355SOL    HW280963  11.493   6.800  13.973
26356SOL     OW80964   1.968  10.013   6.424
26356SOL    HW180965   1.899   9.957   6.391
26356SOL    HW280966   1.958  10.010   6.519
26357SOL     OW80967  11.758   3.522   2.127
26357SOL    HW180968  11.839   3.472   2.135
26357SOL    HW280969  11.689   3.460   2.152
26358SOL     OW80970   3.337   5.400   6.802
26358SOL    HW180971   3.380   5.486   6.798
26358SOL    HW280972   3.398   5.345   6.851
26359SOL     OW80973   5.092   8.038   5.621
26359SOL    HW180974   5.124   7.948   5.611
26359SOL    HW280975   5.028   8.032   5.692
26360SOL     OW80976  11.932   0.204   4.022
26360SOL    HW180977  11.898   0.257   3.950
26360SOL    HW280978  11.863   0.207   4.088
26361SOL     OW80979  10.947  14.751   8.418
26361SOL    HW180980  10.890  14.680   8.446
26361SOL    HW280981  10.942  14.749   8.322
26362SOL     OW80982  14.671  11.632  12.364
26362SOL    HW180983  14.736  11.567  12.391
26362SOL    HW280984  14.598  11.581  12.330
26363SOL     OW80985   5.880   2.355   2.442
26363SOL    HW180986   5.897   2.364   2.348
26363SOL    HW280987   5.816   2.423   2.461
26364SOL     OW80988   4.777   7.769   8.322
26364SOL    HW180989   4.714   7.840   8.337
26364SOL    HW280990   4.814   7.787   8.236
26365SOL     OW80991   4.860   6.818   2.691
26365SOL    HW180992   4.857   6.753   2.761
26365SOL    HW280993   4.788   6.878   2.711
26366SOL     OW80994  11.039  14.607   7.696
26366SOL    HW180995  11.018  14.514   7.680
26366SOL    HW280996  10.953  14.648   7.709
26367SOL     OW80997   4.064  12.161   0.770
26367SOL    HW180998   4.091  12.070   0.756
26367SOL    HW280999   4.002  12.156   0.843
26368SOL     OW81000   8.538  12.495   8.662
26368SOL    HW181001   8.469  12.527   8.603
26368SOL    HW281002   8.607  12.465   8.603
26369SOL     OW81003   5.957  13.576  10.543
26369SOL    HW181004   5.886  13.529  10.500
26369SOL    HW281005   5.969  13.655  10.491
26370SOL     OW81006  12.882   1.608   6.111
26370SOL    HW181007  12.829   1.626   6.188
26370SOL    HW281008  12.956   1.669   6.118
26371SOL     OW81009   9.967   1.183   4.673
26371SOL    HW181010   9.959   1.246   4.744
26371SOL    HW281011   9.918   1.223   4.600
26372SOL     OW81012   7.490   3.340   4.699
26372SOL    HW181013   7.485   3.247   4.676
26372SOL    HW281014   7.479   3.342   4.794
26373SOL     OW81015  10.870   1.738   6.750
26373SOL    HW181016  10.912   1.822   6.733
26373SOL    HW281017  10.809   1.726   6.678
26374SOL     OW81018  13.095  13.628  12.649
26374SOL    HW181019  13.187  13.651  12.668
26374SOL    HW281020  13.100  13.569  12.574
26375SOL     OW81021   5.814   9.870   7.075
26375SOL    HW181022   5.851   9.958   7.066
26375SOL    HW281023   5.792   9.845   6.986
26376SOL     OW81024  10.107   0.941   8.267
26376SOL    HW181025  10.198   0.913   8.254
26376SOL    HW281026  10.068   0.937   8.180
26377SOL     OW81027   9.338  13.597   5.598
26377SOL    HW181028   9.384  13.596   5.682
26377SOL    HW281029   9.252  13.632   5.619
26378SOL     OW81030   6.012  10.915   7.960
26378SOL    HW181031   5.937  10.947   7.909
26378SOL    HW281032   6.086  10.919   7.899
26379SOL     OW81033   4.812   1.215   9.278
26379SOL    HW181034   4.788   1.159   9.204
26379SOL    HW281035   4.849   1.156   9.342
26380SOL     OW81036   5.172   2.137   9.410
26380SOL    HW181037   5.228   2.102   9.479
26380SOL    HW281038   5.098   2.175   9.456
26381SOL     OW81039   3.726  10.444   7.481
26381SOL    HW181040   3.687  10.487   7.404
26381SOL    HW281041   3.805  10.402   7.447
26382SOL     OW81042  11.938  13.196   4.217
26382SOL    HW181043  11.964  13.153   4.298
26382SOL    HW281044  11.951  13.129   4.149
26383SOL     OW81045   2.676   6.174  14.748
26383SOL    HW181046   2.648   6.196  14.659
26383SOL    HW281047   2.727   6.093  14.738
26384SOL     OW81048   9.673   9.577   1.851
26384SOL    HW181049   9.651   9.623   1.932
26384SOL    HW281050   9.651   9.485   1.869
26385SOL     OW81051   0.730   3.493   8.370
26385SOL    HW181052   0.731   3.470   8.277
26385SOL    HW281053   0.822   3.511   8.391
26386SOL     OW81054   7.586  14.327   7.343
26386SOL    HW181055   7.499  14.349   7.310
26386SOL    HW281056   7.600  14.386   7.417
26387SOL     OW81057  10.385  11.340   7.081
26387SOL    HW181058  10.294  11.347   7.108
26387SOL    HW281059  10.391  11.394   7.002
26388SOL     OW81060  11.265   2.637  11.597
26388SOL    HW181061  11.197   2.584  11.639
26388SOL    HW281062  11.220   2.717  11.570
26389SOL     OW81063   4.935  13.973   9.812
26389SOL    HW181064   5.008  14.018   9.769
26389SOL    HW281065   4.941  13.883   9.782
26390SOL     OW81066   4.201   2.113  12.596
26390SOL    HW181067   4.152   2.140  12.518
26390SOL    HW281068   4.221   2.195  12.641
26391SOL     OW81069   0.880  12.619   3.960
26391SOL    HW181070   0.817  12.589   4.026
26391SOL    HW281071   0.836  12.694   3.918
26392SOL     OW81072  13.057   3.388   3.866
26392SOL    HW181073  13.045   3.369   3.959
26392SOL    HW281074  13.007   3.320   3.820
26393SOL     OW81075   5.802   9.203  12.240
26393SOL    HW181076   5.823   9.139  12.308
26393SOL    HW281077   5.875   9.197  12.179
26394SOL     OW81078   8.044   2.464  11.671
26394SOL    HW181079   7.952   2.448  11.695
26394SOL    HW281080   8.069   2.388  11.620
26395SOL     OW81081  12.866   2.777  10.800
26395SOL    HW181082  12.915   2.845  10.846
26395SOL    HW281083  12.779   2.815  10.786
26396SOL     OW81084  11.606  14.059  10.710
26396SOL    HW181085  11.577  14.081  10.798
26396SOL    HW281086  11.560  14.121  10.653
26397SOL     OW81087   2.217   0.017   8.206
26397SOL    HW181088   2.198   0.046   8.116
26397SOL    HW281089   2.150  14.829   8.225
26398SOL     OW81090  12.656   7.283   8.433
26398SOL    HW181091  12.745   7.319   8.440
26398SOL    HW281092  12.660   7.201   8.482
26399SOL     OW81093   5.457  14.874   1.686
26399SOL    HW181094   5.488   0.075   1.642
26399SOL    HW281095   5.457  14.807   1.618
26400SOL     OW81096   4.487   1.429  12.307
26400SOL    HW181097   4.519   1.401  12.393
26400SOL    HW281098   4.506   1.523  12.304
26401SOL     OW81099   3.829   1.996   0.465
26401SOL    HW181100   3.923   1.984   0.452
26401SOL    HW281101   3.794   2.010   0.377
26402SOL     OW81102  12.256   0.066  11.472
26402SOL    HW181103  12.338   0.031  11.505
26402SOL    HW281104  12.224   0.123  11.542
26403SOL     OW81105   4.729  12.281   3.814
26403SOL    HW181106   4.634  12.288   3.825
26403SOL    HW281107   4.757  12.226   3.888
26404SOL     OW81108   5.457   2.385  10.543
26404SOL    HW181109   5.372   2.408  10.582
26404SOL    HW281110   5.467   2.292  10.562
26405SOL     OW81111   6.357   5.847   5.935
26405SOL    HW181112   6.306   5.929   5.933
26405SOL    HW281113   6.446   5.875   5.958
26406SOL     OW81114   8.657   9.176   8.142
26406SOL    HW181115   8.697   9.253   8.184
26406SOL    HW281116   8.731   9.125   8.109
26407SOL     OW81117  10.564   1.772   9.506
26407SOL    HW181118  10.478   1.792   9.544
26407SOL    HW281119  10.569   1.828   9.429
26408SOL     OW81120   7.314   4.466  10.019
26408SOL    HW181121   7.310   4.455  10.114
26408SOL    HW281122   7.376   4.399   9.990
26409SOL     OW81123   8.946  13.381  11.511
26409SOL    HW181124   8.858  13.343  11.520
26409SOL    HW281125   8.946  13.455  11.572
26410SOL     OW81126   8.772   5.558   5.402
26410SOL    HW181127   8.746   5.645   5.431
26410SOL    HW281128   8.710   5.499   5.445
26411SOL     OW81129   0.601   5.484   5.067
26411SOL    HW181130   0.588   5.523   4.981
26411SOL    HW281131   0.626   5.557   5.123
26412SOL     OW81132   1.730  10.875   2.009
26412SOL    HW181133   1.811  10.897   1.962
26412SOL    HW281134   1.731  10.780   2.013
26413SOL     OW81135   0.896  12.750  10.527
26413SOL    HW181136   0.863  12.683  10.468
26413SOL    HW281137   0.894  12.709  10.614
26414SOL     OW81138   5.941   9.518   6.217
26414SOL    HW181139   5.997   9.442   6.231
26414SOL    HW281140   5.865   9.504   6.273
26415SOL     OW81141  11.682   4.686   7.461
26415SOL    HW181142  11.588   4.691   7.479
26415SOL    HW281143  11.687   4.670   7.367
26416SOL     OW81144  14.475   5.879  10.370
26416SOL    HW181145  14.406   5.824  10.407
26416SOL    HW281146  14.554   5.826  10.377
26417SOL     OW81147   8.987   9.924  13.727
26417SOL    HW181148   8.986   9.994  13.792
26417SOL    HW281149   9.064   9.872  13.749
26418SOL     OW81150   2.327   0.970   6.038
26418SOL    HW181151   2.410   0.931   6.067
26418SOL    HW281152   2.345   1.002   5.950
26419SOL     OW81153   2.255   5.976   0.095
26419SOL    HW181154   2.250   5.888   0.133
26419SOL    HW281155   2.279   6.032   0.169
26420SOL     OW81156   9.026   9.183   9.913
26420SOL    HW181157   8.999   9.268   9.877
26420SOL    HW281158   9.003   9.120   9.844
26421SOL     OW81159   1.501  14.509   3.179
26421SOL    HW181160   1.494  14.440   3.113
26421SOL    HW281161   1.578  14.559   3.153
26422SOL     OW81162   3.998  13.696   8.091
26422SOL    HW181163   4.038  13.739   8.016
26422SOL    HW281164   3.910  13.674   8.062
26423SOL     OW81165   9.985  13.030   2.960
26423SOL    HW181166   9.906  13.079   2.934
26423SOL    HW281167   9.952  12.964   3.021
26424SOL     OW81168   4.948   7.932   9.838
26424SOL    HW181169   4.942   8.012   9.786
26424SOL    HW281170   4.933   7.861   9.775
26425SOL     OW81171   0.537   7.379  11.632
26425SOL    HW181172   0.453   7.354  11.593
26425SOL    HW281173   0.597   7.386  11.557
26426SOL     OW81174   4.755   8.927   0.452
26426SOL    HW181175   4.704   9.006   0.434
26426SOL    HW281176   4.737   8.908   0.544
26427SOL     OW81177   0.425   5.643   3.784
26427SOL    HW181178   0.369   5.716   3.757
26427SOL    HW281179   0.363   5.576   3.813
26428SOL     OW81180  11.049   3.925  12.669
26428SOL    HW181181  11.081   3.989  12.732
26428SOL    HW281182  11.104   3.938  12.592
26429SOL     OW81183   7.384  10.092   8.525
26429SOL    HW181184   7.395  10.002   8.555
26429SOL    HW281185   7.466  10.136   8.548
26430SOL     OW81186  10.655   7.170   5.967
26430SOL    HW181187  10.695   7.204   5.887
26430SOL    HW281188  10.726   7.173   6.031
26431SOL     OW81189  11.800   1.877  14.557
26431SOL    HW181190  11.894   1.879  14.576
26431SOL    HW281191  11.793   1.911  14.468
26432SOL     OW81192   2.794  12.368   8.136
26432SOL    HW181193   2.887  12.366   8.159
26432SOL    HW281194   2.749  12.350   8.218
26433SOL     OW81195   6.299  12.474  12.133
26433SOL    HW181196   6.318  12.507  12.045
26433SOL    HW281197   6.260  12.387  12.118
26434SOL     OW81198   8.098  11.987  10.632
26434SOL    HW181199   8.067  11.926  10.698
26434SOL    HW281200   8.115  11.932  10.555
26435SOL     OW81201   9.200   1.468   3.271
26435SOL    HW181202   9.119   1.486   3.224
26435SOL    HW281203   9.219   1.376   3.252
26436SOL     OW81204   4.363   1.955   1.804
26436SOL    HW181205   4.271   1.936   1.788
26436SOL    HW281206   4.364   2.047   1.831
26437SOL     OW81207   1.099  10.737   0.596
26437SOL    HW181208   1.137  10.672   0.656
26437SOL    HW281209   1.169  10.754   0.533
26438SOL     OW81210   6.699   6.075   4.270
26438SOL    HW181211   6.764   6.145   4.265
26438SOL    HW281212   6.685   6.050   4.179
26439SOL     OW81213   1.313  12.632   2.101
26439SOL    HW181214   1.237  12.684   2.128
26439SOL    HW281215   1.373  12.695   2.062
26440SOL     OW81216   4.834   4.971   0.737
26440SOL    HW181217   4.781   5.008   0.667
26440SOL    HW281218   4.858   5.047   0.791
26441SOL     OW81219  12.758   1.727  12.670
26441SOL    HW181220  12.724   1.637  12.675
26441SOL    HW281221  12.853   1.717  12.674
26442SOL     OW81222  11.044  13.189   9.678
26442SOL    HW181223  10.949  13.198   9.675
26442SOL    HW281224  11.075  13.228   9.596
26443SOL     OW81225   5.612   8.583   9.896
26443SOL    HW181226   5.536   8.626   9.936
26443SOL    HW281227   5.667   8.655   9.866
26444SOL     OW81228  11.383   1.395   5.190
26444SOL    HW181229  11.399   1.448   5.268
26444SOL    HW281230  11.457   1.413   5.133
26445SOL     OW81231   0.366   1.607   4.522
26445SOL    HW181232   0.270   1.598   4.525
26445SOL    HW281233   0.391   1.633   4.611
26446SOL     OW81234   7.429  11.600   1.109
26446SOL    HW181235   7.489  11.556   1.048
26446SOL    HW281236   7.358  11.537   1.123
26447SOL     OW81237  10.672  14.418  11.662
26447SOL    HW181238  10.760  14.407  11.698
26447SOL    HW281239  10.613  14.397  11.734
26448SOL     OW81240   7.274  14.216  10.221
26448SOL    HW181241   7.283  14.303  10.260
26448SOL    HW281242   7.360  14.175  10.233
26449SOL     OW81243   7.657   4.467   9.612
26449SOL    HW181244   7.683   4.450   9.703
26449SOL    HW281245   7.562   4.453   9.612
26450SOL     OW81246   9.970   5.648   3.140
26450SOL    HW181247   9.928   5.658   3.055
26450SOL    HW281248   9.920   5.704   3.199
26451SOL     OW81249  14.007  11.031   8.450
26451SOL    HW181250  13.925  11.021   8.403
26451SOL    HW281251  14.003  10.963   8.518
26452SOL     OW81252  12.202   3.501  12.277
26452SOL    HW181253  12.243   3.424  12.237
26452SOL    HW281254  12.258   3.520  12.353
26453SOL     OW81255   2.086   1.073   7.556
26453SOL    HW181256   2.039   1.001   7.512
26453SOL    HW281257   2.051   1.152   7.515
26454SOL     OW81258   7.510   0.317   9.750
26454SOL    HW181259   7.470   0.247   9.698
26454SOL    HW281260   7.575   0.356   9.691
26455SOL     OW81261   5.911   4.021   9.536
26455SOL    HW181262   5.842   4.081   9.565
26455SOL    HW281263   5.895   4.011   9.442
26456SOL     OW81264   4.368   8.071   3.841
26456SOL    HW181265   4.349   8.082   3.748
26456SOL    HW281266   4.397   8.157   3.870
26457SOL     OW81267  10.409  12.576  10.782
26457SOL    HW181268  10.504  12.565  10.774
26457SOL    HW281269  10.387  12.530  10.863
26458SOL     OW81270  13.555   1.600  10.098
26458SOL    HW181271  13.465   1.568  10.094
26458SOL    HW281272  13.597   1.546  10.165
26459SOL     OW81273   7.568   2.297   8.191
26459SOL    HW181274   7.514   2.299   8.112
26459SOL    HW281275   7.532   2.367   8.246
26460SOL     OW81276   7.705   2.211   6.296
26460SOL    HW181277   7.706   2.247   6.207
26460SOL    HW281278   7.612   2.201   6.317
26461SOL     OW81279   0.070   8.499   6.921
26461SOL    HW181280   0.155   8.514   6.879
26461SOL    HW281281   0.086   8.517   7.014
26462SOL     OW81282   2.226   1.044   8.439
26462SOL    HW181283   2.200   1.081   8.354
26462SOL    HW281284   2.147   1.046   8.491
26463SOL     OW81285   7.583   0.357   7.369
26463SOL    HW181286   7.593   0.352   7.464
26463SOL    HW281287   7.507   0.301   7.350
26464SOL     OW81288   4.484   4.389  10.144
26464SOL    HW181289   4.535   4.469  10.154
26464SOL    HW281290   4.477   4.377  10.049
26465SOL     OW81291   0.844   8.082   1.110
26465SOL    HW181292   0.899   8.160   1.103
26465SOL    HW281293   0.768   8.101   1.054
26466SOL     OW81294   5.615   0.206  11.722
26466SOL    HW181295   5.569   0.123  11.737
26466SOL    HW281296   5.546   0.268  11.698
26467SOL     OW81297   8.330   2.506  13.506
26467SOL    HW181298   8.371   2.433  13.460
26467SOL    HW281299   8.383   2.519  13.584
26468SOL     OW81300   7.362  13.546  10.142
26468SOL    HW181301   7.343  13.639  10.145
26468SOL    HW281302   7.451  13.538  10.176
26469SOL     OW81303   7.992   0.438   3.178
26469SOL    HW181304   8.073   0.488   3.190
26469SOL    HW281305   7.928   0.482   3.234
26470SOL     OW81306   1.551  12.855  14.750
26470SOL    HW181307   1.633  12.805  14.760
26470SOL    HW281308   1.488  12.809  14.804
26471SOL     OW81309   7.335   2.755  11.429
26471SOL    HW181310   7.398   2.711  11.485
26471SOL    HW281311   7.386   2.783  11.352
26472SOL     OW81312  11.338  13.294  11.658
26472SOL    HW181313  11.287  13.316  11.735
26472SOL    HW281314  11.343  13.376  11.608
26473SOL     OW81315  13.051   8.605  13.948
26473SOL    HW181316  12.974   8.661  13.954
26473SOL    HW281317  13.086   8.602  14.037
26474SOL     OW81318  11.628  11.252   3.543
26474SOL    HW181319  11.666  11.242   3.455
26474SOL    HW281320  11.609  11.163   3.572
26475SOL     OW81321   7.625   6.922   2.241
26475SOL    HW181322   7.546   6.941   2.191
26475SOL    HW281323   7.644   7.004   2.286
26476SOL     OW81324  10.692   9.211   7.858
26476SOL    HW181325  10.683   9.271   7.785
26476SOL    HW281326  10.681   9.124   7.819
26477SOL     OW81327  10.519   5.583   9.009
26477SOL    HW181328  10.424   5.589   9.018
26477SOL    HW281329  10.546   5.526   9.082
26478SOL     OW81330   4.135  10.405   0.344
26478SOL    HW181331   4.130  10.390   0.249
26478SOL    HW281332   4.174  10.492   0.352
26479SOL     OW81333  10.652   1.016  10.130
26479SOL    HW181334  10.700   1.044  10.052
26479SOL    HW281335  10.714   1.031  10.202
26480SOL     OW81336   8.268   6.502   4.092
26480SOL    HW181337   8.231   6.442   4.028
26480SOL    HW281338   8.351   6.530   4.054
26481SOL     OW81339   3.410   1.118  10.003
26481SOL    HW181340   3.387   1.194  10.056
26481SOL    HW281341   3.497   1.139   9.967
26482SOL     OW81342  13.123   5.431   6.821
26482SOL    HW181343  13.033   5.452   6.845
26482SOL    HW281344  13.135   5.340   6.850
26483SOL     OW81345   2.864  10.530   1.036
26483SOL    HW181346   2.922  10.564   1.105
26483SOL    HW281347   2.880  10.436   1.036
26484SOL     OW81348   6.009  11.358   1.691
26484SOL    HW181349   5.986  11.438   1.643
26484SOL    HW281350   6.097  11.337   1.660
26485SOL     OW81351   6.668  10.392   4.354
26485SOL    HW181352   6.622  10.475   4.342
26485SOL    HW281353   6.604  10.325   4.331
26486SOL     OW81354   1.330   6.027  13.881
26486SOL    HW181355   1.329   6.115  13.843
26486SOL    HW281356   1.306   6.041  13.973
26487SOL     OW81357   2.123  13.855  11.369
26487SOL    HW181358   2.216  13.832  11.374
26487SOL    HW281359   2.078  13.774  11.394
26488SOL     OW81360   1.273   2.667  12.361
26488SOL    HW181361   1.250   2.645  12.271
26488SOL    HW281362   1.221   2.745  12.381
26489SOL     OW81363   3.754   1.611   1.169
26489SOL    HW181364   3.754   1.522   1.134
26489SOL    HW281365   3.751   1.600   1.264
26490SOL     OW81366  11.400   0.696   6.356
26490SOL    HW181367  11.307   0.708   6.376
26490SOL    HW281368  11.421   0.767   6.295
26491SOL     OW81369   5.151   5.181   4.450
26491SOL    HW181370   5.200   5.136   4.381
26491SOL    HW281371   5.064   5.195   4.411
26492SOL     OW81372   6.490  12.598   4.636
26492SOL    HW181373   6.559  12.664   4.648
26492SOL    HW281374   6.536  12.515   4.647
26493SOL     OW81375   6.730   2.107   2.965
26493SOL    HW181376   6.666   2.161   3.012
26493SOL    HW281377   6.759   2.042   3.029
26494SOL     OW81378   2.466  11.356   5.986
26494SOL    HW181379   2.389  11.413   5.987
26494SOL    HW281380   2.516  11.382   6.063
26495SOL     OW81381   0.650   2.907   7.087
26495SOL    HW181382   0.743   2.900   7.066
26495SOL    HW281383   0.648   2.919   7.182
26496SOL     OW81384   1.045   6.410   9.548
26496SOL    HW181385   1.115   6.471   9.526
26496SOL    HW281386   1.011   6.380   9.464
26497SOL     OW81387   6.869   9.684   2.065
26497SOL    HW181388   6.964   9.684   2.050
26497SOL    HW281389   6.847   9.777   2.073
26498SOL     OW81390   1.826   7.902   0.427
26498SOL    HW181391   1.778   7.840   0.482
26498SOL    HW281392   1.874   7.957   0.488
26499SOL     OW81393  12.392  10.876   4.652
26499SOL    HW181394  12.456  10.854   4.584
26499SOL    HW281395  12.307  10.855   4.613
26500SOL     OW81396   6.671  12.414  14.684
26500SOL    HW181397   6.578  12.430  14.672
26500SOL    HW281398   6.690  12.337  14.630
26501SOL     OW81399   2.922   5.755   3.199
26501SOL    HW181400   2.985   5.759   3.127
26501SOL    HW281401   2.943   5.673   3.244
26502SOL     OW81402   4.529   4.400   9.470
26502SOL    HW181403   4.516   4.339   9.542
26502SOL    HW281404   4.623   4.395   9.450
26503SOL     OW81405  13.199  11.582   5.058
26503SOL    HW181406  13.153  11.590   4.974
26503SOL    HW281407  13.171  11.659   5.108
26504SOL     OW81408   1.320  11.621   7.047
26504SOL    HW181409   1.318  11.697   6.989
26504SOL    HW281410   1.353  11.550   6.991
26505SOL     OW81411  10.470   3.019   3.454
26505SOL    HW181412  10.533   3.049   3.388
26505SOL    HW281413  10.457   2.926   3.435
26506SOL     OW81414   4.354   1.189   3.483
26506SOL    HW181415   4.393   1.265   3.440
26506SOL    HW281416   4.260   1.202   3.474
26507SOL     OW81417   0.566   7.673   8.373
26507SOL    HW181418   0.644   7.671   8.429
26507SOL    HW281419   0.521   7.754   8.398
26508SOL     OW81420  12.377  11.864   5.337
26508SOL    HW181421  12.332  11.848   5.254
26508SOL    HW281422  12.462  11.823   5.326
26509SOL     OW81423  12.898   5.286   9.172
26509SOL    HW181424  12.857   5.282   9.085
26509SOL    HW281425  12.904   5.380   9.191
26510SOL     OW81426   3.302   9.570   1.450
26510SOL    HW181427   3.280   9.564   1.543
26510SOL    HW281428   3.311   9.664   1.433
26511SOL     OW81429   9.337  11.533   0.890
26511SOL    HW181430   9.269  11.470   0.914
26511SOL    HW281431   9.413  11.508   0.943
26512SOL     OW81432  13.580   4.352   1.139
26512SOL    HW181433  13.557   4.394   1.056
26512SOL    HW281434  13.639   4.413   1.182
26513SOL     OW81435   6.824   0.043   9.941
26513SOL    HW181436   6.883   0.103   9.894
26513SOL    HW281437   6.767   0.101   9.992
26514SOL     OW81438   5.984  11.299   6.359
26514SOL    HW181439   5.909  11.259   6.316
26514SOL    HW281440   5.982  11.264   6.448
26515SOL     OW81441   5.926   6.750  12.697
26515SOL    HW181442   5.999   6.688  12.707
26515SOL    HW281443   5.870   6.731  12.772
26516SOL     OW81444  14.546   6.315  14.257
26516SOL    HW181445  14.628   6.316  14.306
26516SOL    HW281446  14.485   6.265  14.312
26517SOL     OW81447  12.380   7.925   5.381
26517SOL    HW181448  12.377   7.864   5.455
26517SOL    HW281449  12.472   7.928   5.355
26518SOL     OW81450  12.009   2.597   4.465
26518SOL    HW181451  12.077   2.577   4.400
26518SOL    HW281452  11.985   2.512   4.501
26519SOL     OW81453   5.620  11.525   7.880
26519SOL    HW181454   5.655  11.454   7.826
26519SOL    HW281455   5.688  11.540   7.946
26520SOL     OW81456  13.286  12.533  11.375
26520SOL    HW181457  13.262  12.596  11.307
26520SOL    HW281458  13.216  12.467  11.372
26521SOL     OW81459   0.024  11.600  12.155
26521SOL    HW181460   0.064  11.682  12.124
26521SOL    HW281461  14.818  11.628  12.193
26522SOL     OW81462   7.293  11.572   4.909
26522SOL    HW181463   7.383  11.583   4.938
26522SOL    HW281464   7.241  11.605   4.982
26523SOL     OW81465   9.910   3.611   6.321
26523SOL    HW181466   9.907   3.530   6.372
26523SOL    HW281467   9.949   3.586   6.237
26524SOL     OW81468   4.292   1.768   1.507
26524SOL    HW181469   4.274   1.713   1.583
26524SOL    HW281470   4.388   1.776   1.505
26525SOL     OW81471   4.868   3.664  14.165
26525SOL    HW181472   4.842   3.578  14.132
26525SOL    HW281473   4.796   3.691  14.222
26526SOL     OW81474   0.642  14.574  11.369
26526SOL    HW181475   0.672  14.630  11.440
26526SOL    HW281476   0.584  14.630  11.317
26527SOL     OW81477  10.733  14.229   5.524
26527SOL    HW181478  10.661  14.217   5.462
26527SOL    HW281479  10.706  14.180   5.601
26528SOL     OW81480   1.799   2.816   0.725
26528SOL    HW181481   1.801   2.726   0.693
26528SOL    HW281482   1.717   2.852   0.692
26529SOL     OW81483  13.412   8.456  14.752
26529SOL    HW181484  13.428   8.457  14.657
26529SOL    HW281485  13.494   8.424  14.789
26530SOL     OW81486  10.012   2.217   4.970
26530SOL    HW181487   9.967   2.294   5.005
26530SOL    HW281488  10.057   2.249   4.892
26531SOL     OW81489  12.809   1.895   4.754
26531SOL    HW181490  12.826   1.855   4.669
26531SOL    HW281491  12.855   1.837   4.816
26532SOL     OW81492  10.288   9.650   2.915
26532SOL    HW181493  10.282   9.644   2.819
26532SOL    HW281494  10.376   9.685   2.930
26533SOL     OW81495   5.197   2.575   9.192
26533SOL    HW181496   5.250   2.504   9.228
26533SOL    HW281497   5.141   2.533   9.127
26534SOL     OW81498   4.588   8.781  14.796
26534SOL    HW181499   4.514   8.727  14.823
26534SOL    HW281500   4.632   8.803   0.001
26535SOL     OW81501  12.365   5.194   1.760
26535SOL    HW181502  12.305   5.269   1.759
26535SOL    HW281503  12.328   5.133   1.822
26536SOL     OW81504   4.307   6.384   3.594
26536SOL    HW181505   4.327   6.376   3.687
26536SOL    HW281506   4.220   6.346   3.584
26537SOL     OW81507   0.426   1.497  12.776
26537SOL    HW181508   0.514   1.467  12.798
26537SOL    HW281509   0.368   1.449  12.836
26538SOL     OW81510   6.337   4.850   9.763
26538SOL    HW181511   6.330   4.908   9.687
26538SOL    HW281512   6.310   4.903   9.837
26539SOL     OW81513   2.100   4.417   9.385
26539SOL    HW181514   2.190   4.410   9.417
26539SOL    HW281515   2.047   4.374   9.451
26540SOL     OW81516   6.382   7.126   8.957
26540SOL    HW181517   6.398   7.034   8.973
26540SOL    HW281518   6.371   7.165   9.044
26541SOL     OW81519   3.441   3.850   4.092
26541SOL    HW181520   3.496   3.913   4.137
26541SOL    HW281521   3.351   3.877   4.113
26542SOL     OW81522   1.247   6.647   9.581
26542SOL    HW181523   1.277   6.729   9.542
26542SOL    HW281524   1.321   6.617   9.634
26543SOL     OW81525  10.628  13.054   3.660
26543SOL    HW181526  10.648  13.135   3.613
26543SOL    HW281527  10.644  12.984   3.597
26544SOL     OW81528   3.261   0.418  13.515
26544SOL    HW181529   3.291   0.476  13.445
26544SOL    HW281530   3.323   0.432  13.586
26545SOL     OW81531  10.974   5.943   9.437
26545SOL    HW181532  11.004   5.907   9.521
26545SOL    HW281533  10.887   5.978   9.455
26546SOL     OW81534  10.940  12.692   5.341
26546SOL    HW181535  10.904  12.725   5.259
26546SOL    HW281536  10.901  12.604   5.350
26547SOL     OW81537   2.085   4.240   0.311
26547SOL    HW181538   2.064   4.166   0.369
26547SOL    HW281539   2.066   4.207   0.223
26548SOL     OW81540   2.901   9.971   8.490
26548SOL    HW181541   2.985   9.927   8.502
26548SOL    HW281542   2.900   9.997   8.397
26549SOL     OW81543  14.026   8.197   7.454
26549SOL    HW181544  13.931   8.192   7.451
26549SOL    HW281545  14.055   8.162   7.370
26550SOL     OW81546   3.196   8.857   4.200
26550SOL    HW181547   3.228   8.943   4.227
26550SOL    HW281548   3.103   8.859   4.221
26551SOL     OW81549   0.763   3.723   9.103
26551SOL    HW181550   0.790   3.814   9.093
26551SOL    HW281551   0.733   3.717   9.194
26552SOL     OW81552   8.629   2.359   1.045
26552SOL    HW181553   8.719   2.360   1.014
26552SOL    HW281554   8.579   2.323   0.972
26553SOL     OW81555   9.447  10.085   5.960
26553SOL    HW181556   9.421   9.994   5.954
26553SOL    HW281557   9.540  10.082   5.982
26554SOL     OW81558   8.857   4.746   9.487
26554SOL    HW181559   8.933   4.700   9.521
26554SOL    HW281560   8.787   4.681   9.486
26555SOL     OW81561   7.462  11.270   0.185
26555SOL    HW181562   7.455  11.281   0.279
26555SOL    HW281563   7.380  11.305   0.150
26556SOL     OW81564   5.631   4.667  11.308
26556SOL    HW181565   5.680   4.619  11.241
26556SOL    HW281566   5.540   4.664  11.278
26557SOL     OW81567   5.001   7.383  10.108
26557SOL    HW181568   5.093   7.380  10.135
26557SOL    HW281569   4.989   7.472  10.076
26558SOL     OW81570   1.776  14.456   6.610
26558SOL    HW181571   1.687  14.490   6.620
26558SOL    HW281572   1.786  14.441   6.516
26559SOL     OW81573   5.061  11.015   1.482
26559SOL    HW181574   5.061  11.053   1.395
26559SOL    HW281575   5.016  10.931   1.472
26560SOL     OW81576   7.564  12.886   8.831
26560SOL    HW181577   7.526  12.803   8.863
26560SOL    HW281578   7.490  12.931   8.789
26561SOL     OW81579   4.803  14.519  14.699
26561SOL    HW181580   4.819  14.514  14.605
26561SOL    HW281581   4.857  14.592  14.729
26562SOL     OW81582   2.177  14.554   6.306
26562SOL    HW181583   2.190  14.581   6.397
26562SOL    HW281584   2.091  14.590   6.283
26563SOL     OW81585  10.798  13.217  13.854
26563SOL    HW181586  10.724  13.207  13.915
26563SOL    HW281587  10.831  13.128  13.841
26564SOL     OW81588   6.664  12.888  13.602
26564SOL    HW181589   6.594  12.824  13.615
26564SOL    HW281590   6.624  12.958  13.550
26565SOL     OW81591  10.383  14.337  10.009
26565SOL    HW181592  10.398  14.257  10.058
26565SOL    HW281593  10.309  14.318   9.952
26566SOL     OW81594   7.009  12.995   3.515
26566SOL    HW181595   7.053  12.996   3.600
26566SOL    HW281596   7.037  12.913   3.474
26567SOL     OW81597   5.164  10.301   0.752
26567SOL    HW181598   5.188  10.310   0.660
26567SOL    HW281599   5.106  10.225   0.755
26568SOL     OW81600   5.626  14.473   0.281
26568SOL    HW181601   5.571  14.546   0.307
26568SOL    HW281602   5.711  14.492   0.319
26569SOL     OW81603  14.665   7.417  12.591
26569SOL    HW181604  14.745   7.392  12.544
26569SOL    HW281605  14.644   7.340  12.644
26570SOL     OW81606   2.108   0.956  10.873
26570SOL    HW181607   2.084   0.927  10.961
26570SOL    HW281608   2.038   1.018  10.849
26571SOL     OW81609   2.044   7.685   5.884
26571SOL    HW181610   1.980   7.617   5.905
26571SOL    HW281611   2.025   7.709   5.793
26572SOL     OW81612  14.574  12.098  12.861
26572SOL    HW181613  14.555  12.005  12.850
26572SOL    HW281614  14.638  12.101  12.932
26573SOL     OW81615  14.700   2.653   2.882
26573SOL    HW181616  14.651   2.574   2.903
26573SOL    HW281617  14.644   2.725   2.911
26574SOL     OW81618  10.407   3.957   3.737
26574SOL    HW181619  10.405   4.019   3.664
26574SOL    HW281620  10.398   3.871   3.696
26575SOL     OW81621   2.142   8.071   9.580
26575SOL    HW181622   2.177   8.144   9.528
26575SOL    HW281623   2.157   7.994   9.525
26576SOL     OW81624   8.723  10.863   9.835
26576SOL    HW181625   8.706  10.891   9.746
26576SOL    HW281626   8.808  10.900   9.857
26577SOL     OW81627   3.078   7.996   4.962
26577SOL    HW181628   3.118   8.082   4.970
26577SOL    HW281629   3.007   7.996   5.027
26578SOL     OW81630   9.007  13.623  11.094
26578SOL    HW181631   8.918  13.590  11.108
26578SOL    HW281632   9.042  13.568  11.024
26579SOL     OW81633  11.490   0.312  14.342
26579SOL    HW181634  11.411   0.258  14.329
26579SOL    HW281635  11.471   0.364  14.420
26580SOL     OW81636   5.726   5.847  13.526
26580SOL    HW181637   5.739   5.925  13.580
26580SOL    HW281638   5.665   5.793  13.577
26581SOL     OW81639   2.937   6.338  11.257
26581SOL    HW181640   2.865   6.301  11.205
26581SOL    HW281641   2.990   6.385  11.193
26582SOL     OW81642   4.649   0.029   3.847
26582SOL    HW181643   4.588  14.860   3.905
26582SOL    HW281644   4.718  14.843   3.828
26583SOL     OW81645   1.311   2.333   0.956
26583SOL    HW181646   1.241   2.268   0.958
26583SOL    HW281647   1.386   2.288   0.917
26584SOL     OW81648  10.816   4.596  14.472
26584SOL    HW181649  10.877   4.614  14.543
26584SOL    HW281650  10.788   4.683  14.443
26585SOL     OW81651   2.500  14.648   8.028
26585SOL    HW181652   2.579  14.699   8.043
26585SOL    HW281653   2.437  14.681   8.092
26586SOL     OW81654   6.594   0.895   1.955
26586SOL    HW181655   6.619   0.963   2.017
26586SOL    HW281656   6.640   0.817   1.985
26587SOL     OW81657   7.106   8.876   0.237
26587SOL    HW181658   7.115   8.808   0.171
26587SOL    HW281659   7.058   8.946   0.194
26588SOL     OW81660   1.646   6.913  11.754
26588SOL    HW181661   1.634   6.921  11.848
26588SOL    HW281662   1.726   6.962  11.736
26589SOL     OW81663   8.304   2.851   1.500
26589SOL    HW181664   8.379   2.848   1.441
26589SOL    HW281665   8.274   2.942   1.496
26590SOL     OW81666   8.441   8.880  12.822
26590SOL    HW181667   8.349   8.903  12.821
26590SOL    HW281668   8.455   8.835  12.905
26591SOL     OW81669   5.011  11.336  12.795
26591SOL    HW181670   5.082  11.345  12.732
26591SOL    HW281671   5.054  11.315  12.877
26592SOL     OW81672  14.034   0.418   5.595
26592SOL    HW181673  14.078   0.371   5.525
26592SOL    HW281674  14.102   0.433   5.661
26593SOL     OW81675   1.082   0.120   0.223
26593SOL    HW181676   1.087   0.039   0.274
26593SOL    HW281677   1.140   0.106   0.148
26594SOL     OW81678   6.330   5.080  12.452
26594SOL    HW181679   6.312   5.002  12.400
26594SOL    HW281680   6.260   5.084  12.516
26595SOL     OW81681   3.041   1.888  12.218
26595SOL    HW181682   2.964   1.943  12.211
26595SOL    HW281683   3.112   1.939  12.178
26596SOL     OW81684   2.342  12.494   7.678
26596SOL    HW181685   2.269  12.544   7.642
26596SOL    HW281686   2.317  12.476   7.769
26597SOL     OW81687   7.458   5.436  12.719
26597SOL    HW181688   7.434   5.430  12.811
26597SOL    HW281689   7.416   5.517  12.689
26598SOL     OW81690   9.980   8.253   4.939
26598SOL    HW181691  10.016   8.342   4.941
26598SOL    HW281692  10.044   8.201   4.989
26599SOL     OW81693  13.443   1.997   6.010
26599SOL    HW181694  13.364   1.948   5.990
26599SOL    HW281695  13.412   2.081   6.044
26600SOL     OW81696   6.138   0.831   6.443
26600SOL    HW181697   6.153   0.812   6.536
26600SOL    HW281698   6.219   0.872   6.413
26601SOL     OW81699   2.566  14.056  12.645
26601SOL    HW181700   2.531  13.992  12.706
26601SOL    HW281701   2.496  14.121  12.634
26602SOL     OW81702   9.017   6.276  12.311
26602SOL    HW181703   8.932   6.289  12.268
26602SOL    HW281704   9.075   6.245  12.242
26603SOL     OW81705   8.786   6.006  11.885
26603SOL    HW181706   8.799   6.020  11.979
26603SOL    HW281707   8.838   5.928  11.865
26604SOL     OW81708   1.779  13.404   3.770
26604SOL    HW181709   1.815  13.491   3.790
26604SOL    HW281710   1.719  13.420   3.697
26605SOL     OW81711  11.490  11.652   1.352
26605SOL    HW181712  11.552  11.579   1.344
26605SOL    HW281713  11.474  11.659   1.447
26606SOL     OW81714   3.851  13.223   2.796
26606SOL    HW181715   3.882  13.137   2.823
26606SOL    HW281716   3.930  13.269   2.768
26607SOL     OW81717  13.626   1.709   2.009
26607SOL    HW181718  13.679   1.704   1.930
26607SOL    HW281719  13.539   1.734   1.977
26608SOL     OW81720  13.982  13.718   9.014
26608SOL    HW181721  13.968  13.784   9.082
26608SOL    HW281722  13.960  13.763   8.933
26609SOL     OW81723   6.487   7.910  10.866
26609SOL    HW181724   6.570   7.958  10.861
26609SOL    HW281725   6.460   7.920  10.958
26610SOL     OW81726   9.891  13.102   1.147
26610SOL    HW181727   9.811  13.114   1.095
26610SOL    HW281728   9.952  13.166   1.112
26611SOL     OW81729   5.500   5.299  11.764
26611SOL    HW181730   5.471   5.347  11.841
26611SOL    HW281731   5.556   5.360  11.717
26612SOL     OW81732   5.213   6.983  13.451
26612SOL    HW181733   5.135   6.941  13.414
26612SOL    HW281734   5.180   7.033  13.526
26613SOL     OW81735   8.177  13.442   9.977
26613SOL    HW181736   8.217  13.441   9.890
26613SOL    HW281737   8.121  13.520   9.977
26614SOL     OW81738  12.539   5.715   1.552
26614SOL    HW181739  12.624   5.758   1.542
26614SOL    HW281740  12.479   5.786   1.575
26615SOL     OW81741   0.893   4.777   8.740
26615SOL    HW181742   0.967   4.834   8.722
26615SOL    HW281743   0.930   4.689   8.739
26616SOL     OW81744   5.508  10.385   7.959
26616SOL    HW181745   5.572  10.339   7.905
26616SOL    HW281746   5.474  10.318   8.018
26617SOL     OW81747   7.329   3.791  13.583
26617SOL    HW181748   7.323   3.788  13.679
26617SOL    HW281749   7.420   3.812  13.565
26618SOL     OW81750   2.315   5.616  14.248
26618SOL    HW181751   2.338   5.663  14.328
26618SOL    HW281752   2.219   5.622  14.243
26619SOL     OW81753  10.675   8.471   8.239
26619SOL    HW181754  10.751   8.443   8.189
26619SOL    HW281755  10.626   8.528   8.180
26620SOL     OW81756   0.474   7.677   6.897
26620SOL    HW181757   0.476   7.691   6.802
26620SOL    HW281758   0.474   7.765   6.934
26621SOL     OW81759  14.522   2.557   4.982
26621SOL    HW181760  14.578   2.480   4.998
26621SOL    HW281761  14.583   2.627   4.961
26622SOL     OW81762  11.952   1.266   8.769
26622SOL    HW181763  11.918   1.336   8.825
26622SOL    HW281764  11.874   1.224   8.732
26623SOL     OW81765  14.013   3.524  14.587
26623SOL    HW181766  13.982   3.466  14.518
26623SOL    HW281767  14.095   3.485  14.617
26624SOL     OW81768  11.589  12.167   2.756
26624SOL    HW181769  11.589  12.093   2.696
26624SOL    HW281770  11.593  12.128   2.844
26625SOL     OW81771  12.118   8.777   5.831
26625SOL    HW181772  12.154   8.839   5.894
26625SOL    HW281773  12.191   8.717   5.812
26626SOL     OW81774  10.688   2.948   7.309
26626SOL    HW181775  10.710   2.887   7.239
26626SOL    HW281776  10.715   3.034   7.275
26627SOL     OW81777  14.591   9.193   6.216
26627SOL    HW181778  14.617   9.281   6.190
26627SOL    HW281779  14.650   9.135   6.167
26628SOL     OW81780  13.051  13.757   5.406
26628SOL    HW181781  13.010  13.705   5.337
26628SOL    HW281782  13.090  13.693   5.466
26629SOL     OW81783   4.555  10.346  12.961
26629SOL    HW181784   4.649  10.324  12.955
26629SOL    HW281785   4.535  10.386  12.876
26630SOL     OW81786  13.203  10.546   8.976
26630SOL    HW181787  13.170  10.636   8.982
26630SOL    HW281788  13.295  10.555   8.951
26631SOL     OW81789   6.401  10.874   4.404
26631SOL    HW181790   6.357  10.824   4.473
26631SOL    HW281791   6.452  10.940   4.452
26632SOL     OW81792   8.220   3.967  10.498
26632SOL    HW181793   8.172   3.914  10.435
26632SOL    HW281794   8.222   3.913  10.578
26633SOL     OW81795   3.134   6.932  10.795
26633SOL    HW181796   3.121   6.973  10.709
26633SOL    HW281797   3.050   6.943  10.839
26634SOL     OW81798  11.300   3.741   9.212
26634SOL    HW181799  11.353   3.716   9.137
26634SOL    HW281800  11.232   3.799   9.177
26635SOL     OW81801  13.481   8.239   0.885
26635SOL    HW181802  13.534   8.242   0.806
26635SOL    HW281803  13.535   8.283   0.951
26636SOL     OW81804   6.136   4.621   2.577
26636SOL    HW181805   6.201   4.574   2.628
26636SOL    HW281806   6.131   4.574   2.494
26637SOL     OW81807   8.322  13.697  14.004
26637SOL    HW181808   8.352  13.606  14.009
26637SOL    HW281809   8.341  13.733  14.090
26638SOL     OW81810   1.508  12.986  14.092
26638SOL    HW181811   1.573  12.936  14.141
26638SOL    HW281812   1.524  13.077  14.116
26639SOL     OW81813   9.696  10.413   7.247
26639SOL    HW181814   9.616  10.453   7.281
26639SOL    HW281815   9.766  10.452   7.299
26640SOL     OW81816   0.735  13.945   1.620
26640SOL    HW181817   0.722  14.040   1.625
26640SOL    HW281818   0.669  13.909   1.679
26641SOL     OW81819  13.220  11.562   5.422
26641SOL    HW181820  13.139  11.582   5.375
26641SOL    HW281821  13.284  11.543   5.353
26642SOL     OW81822   3.824   2.043   3.768
26642SOL    HW181823   3.739   2.061   3.807
26642SOL    HW281824   3.880   2.017   3.841
26643SOL     OW81825   1.723   4.705   8.085
26643SOL    HW181826   1.733   4.650   8.007
26643SOL    HW281827   1.644   4.672   8.128
26644SOL     OW81828   1.809   6.694   0.896
26644SOL    HW181829   1.765   6.673   0.978
26644SOL    HW281830   1.737   6.702   0.832
26645SOL     OW81831  13.493   2.879   4.929
26645SOL    HW181832  13.500   2.784   4.918
26645SOL    HW281833  13.532   2.915   4.849
26646SOL     OW81834   7.035   9.502   8.321
26646SOL    HW181835   6.991   9.441   8.263
26646SOL    HW281836   7.125   9.507   8.287
26647SOL     OW81837   1.702  11.235   8.169
26647SOL    HW181838   1.683  11.176   8.242
26647SOL    HW281839   1.711  11.321   8.210
26648SOL     OW81840   5.395  14.333  14.523
26648SOL    HW181841   5.381  14.267  14.456
26648SOL    HW281842   5.490  14.342  14.530
26649SOL     OW81843   3.751   6.119   9.947
26649SOL    HW181844   3.762   6.076  10.032
26649SOL    HW281845   3.699   6.197   9.967
26650SOL     OW81846   8.732   0.806   0.379
26650SOL    HW181847   8.674   0.782   0.307
26650SOL    HW281848   8.805   0.852   0.337
26651SOL     OW81849   4.432   1.238   6.228
26651SOL    HW181850   4.463   1.224   6.317
26651SOL    HW281851   4.342   1.205   6.228
26652SOL     OW81852   1.716  13.945   7.216
26652SOL    HW181853   1.672  14.012   7.164
26652SOL    HW281854   1.719  13.980   7.304
26653SOL     OW81855  12.415   3.090   7.917
26653SOL    HW181856  12.368   3.042   7.849
26653SOL    HW281857  12.399   3.183   7.896
26654SOL     OW81858   6.475  10.320   3.107
26654SOL    HW181859   6.435  10.400   3.072
26654SOL    HW281860   6.567  10.344   3.119
26655SOL     OW81861   1.831  12.633   6.876
26655SOL    HW181862   1.803  12.657   6.964
26655SOL    HW281863   1.918  12.673   6.866
26656SOL     OW81864   1.611   1.664   8.911
26656SOL    HW181865   1.555   1.667   8.833
26656SOL    HW281866   1.557   1.702   8.980
26657SOL     OW81867  10.819   9.502   8.884
26657SOL    HW181868  10.875   9.514   8.807
26657SOL    HW281869  10.839   9.576   8.941
26658SOL     OW81870  13.589   5.824   7.288
26658SOL    HW181871  13.643   5.808   7.211
26658SOL    HW281872  13.616   5.911   7.319
26659SOL     OW81873   2.877   1.973   1.626
26659SOL    HW181874   2.965   2.011   1.635
26659SOL    HW281875   2.845   1.966   1.716
26660SOL     OW81876   4.243   7.857  13.413
26660SOL    HW181877   4.211   7.946  13.398
26660SOL    HW281878   4.191   7.825  13.487
26661SOL     OW81879   6.021  10.779   9.271
26661SOL    HW181880   6.004  10.689   9.300
26661SOL    HW281881   6.054  10.768   9.181
26662SOL     OW81882  12.640  12.060   5.754
26662SOL    HW181883  12.552  12.087   5.781
26662SOL    HW281884  12.699  12.117   5.802
26663SOL     OW81885   6.778   5.349   4.503
26663SOL    HW181886   6.749   5.402   4.429
26663SOL    HW281887   6.772   5.259   4.472
26664SOL     OW81888  11.580   8.576  11.689
26664SOL    HW181889  11.549   8.540  11.772
26664SOL    HW281890  11.535   8.524  11.623
26665SOL     OW81891  14.162   7.566   7.133
26665SOL    HW181892  14.166   7.498   7.066
26665SOL    HW281893  14.251   7.569   7.170
26666SOL     OW81894  12.937   5.592  13.432
26666SOL    HW181895  12.952   5.502  13.405
26666SOL    HW281896  12.987   5.602  13.513
26667SOL     OW81897   8.895   2.412   0.982
26667SOL    HW181898   8.931   2.491   1.022
26667SOL    HW281899   8.971   2.366   0.945
26668SOL     OW81900   8.458  14.756  11.915
26668SOL    HW181901   8.405  14.832  11.890
26668SOL    HW281902   8.491  14.779  12.002
26669SOL     OW81903  13.185   5.303  10.494
26669SOL    HW181904  13.277   5.328  10.509
26669SOL    HW281905  13.153   5.369  10.432
26670SOL     OW81906   6.750   2.805   3.930
26670SOL    HW181907   6.723   2.877   3.873
26670SOL    HW281908   6.676   2.745   3.930
26671SOL     OW81909   9.735   0.458  12.049
26671SOL    HW181910   9.734   0.374  12.004
26671SOL    HW281911   9.808   0.505  12.011
26672SOL     OW81912  10.980   3.176  11.087
26672SOL    HW181913  11.056   3.196  11.032
26672SOL    HW281914  10.949   3.262  11.116
26673SOL     OW81915   4.945   2.241   7.413
26673SOL    HW181916   4.889   2.164   7.424
26673SOL    HW281917   4.935   2.264   7.320
26674SOL     OW81918  11.521   5.660  12.861
26674SOL    HW181919  11.512   5.581  12.808
26674SOL    HW281920  11.602   5.700  12.831
26675SOL     OW81921   9.544   4.225   2.520
26675SOL    HW181922   9.579   4.304   2.479
26675SOL    HW281923   9.484   4.258   2.587
26676SOL     OW81924   5.017   5.420   5.386
26676SOL    HW181925   4.972   5.341   5.417
26676SOL    HW281926   4.948   5.485   5.378
26677SOL     OW81927   6.466  10.456   8.266
26677SOL    HW181928   6.413  10.422   8.194
26677SOL    HW281929   6.416  10.530   8.301
26678SOL     OW81930   0.663   0.018   1.721
26678SOL    HW181931   0.620  14.862   1.799
26678SOL    HW281932   0.693  14.817   1.675
26679SOL     OW81933   3.155   8.852   3.651
26679SOL    HW181934   3.069   8.811   3.649
26679SOL    HW281935   3.182   8.849   3.742
26680SOL     OW81936   7.868  12.967  10.014
26680SOL    HW181937   7.919  12.916  10.077
26680SOL    HW281938   7.913  13.052  10.010
26681SOL     OW81939   0.959   4.789  13.663
26681SOL    HW181940   1.030   4.736  13.628
26681SOL    HW281941   0.965   4.872  13.616
26682SOL     OW81942   4.803   4.681   8.413
26682SOL    HW181943   4.804   4.619   8.486
26682SOL    HW281944   4.725   4.658   8.362
26683SOL     OW81945  11.451   9.134  14.049
26683SOL    HW181946  11.521   9.086  14.094
26683SOL    HW281947  11.371   9.086  14.070
26684SOL     OW81948   1.351   1.431  11.719
26684SOL    HW181949   1.404   1.503  11.753
26684SOL    HW281950   1.413   1.377  11.671
26685SOL     OW81951  14.684   6.136  13.733
26685SOL    HW181952  14.744   6.071  13.695
26685SOL    HW281953  14.597   6.106  13.705
26686SOL     OW81954   3.963   5.376  10.489
26686SOL    HW181955   3.897   5.411  10.429
26686SOL    HW281956   4.021   5.324  10.434
26687SOL     OW81957  10.430   0.389   9.151
26687SOL    HW181958  10.522   0.363   9.145
26687SOL    HW281959  10.384   0.310   9.177
26688SOL     OW81960  13.023   0.786   8.452
26688SOL    HW181961  13.078   0.792   8.530
26688SOL    HW281962  13.016   0.692   8.434
26689SOL     OW81963  12.490  11.479   1.636
26689SOL    HW181964  12.545  11.436   1.571
26689SOL    HW281965  12.466  11.409   1.697
26690SOL     OW81966   6.204  12.595   4.214
26690SOL    HW181967   6.191  12.690   4.209
26690SOL    HW281968   6.169  12.562   4.131
26691SOL     OW81969   0.512   8.216   7.971
26691SOL    HW181970   0.551   8.193   8.055
26691SOL    HW281971   0.537   8.145   7.912
26692SOL     OW81972   9.467   7.625  13.711
26692SOL    HW181973   9.471   7.579  13.794
26692SOL    HW281974   9.474   7.556  13.645
26693SOL     OW81975   1.728   3.341   2.698
26693SOL    HW181976   1.764   3.258   2.664
26693SOL    HW281977   1.788   3.408   2.664
26694SOL     OW81978   1.173  12.363   4.839
26694SOL    HW181979   1.097  12.340   4.787
26694SOL    HW281980   1.202  12.448   4.804
26695SOL     OW81981   7.984   4.075  13.718
26695SOL    HW181982   7.923   4.128  13.770
26695SOL    HW281983   8.057   4.134  13.700
26696SOL     OW81984   9.758  13.313   1.655
26696SOL    HW181985   9.777  13.318   1.562
26696SOL    HW281986   9.822  13.250   1.689
26697SOL     OW81987   0.700  13.525   5.374
26697SOL    HW181988   0.615  13.485   5.354
26697SOL    HW281989   0.735  13.551   5.290
26698SOL     OW81990   5.026   6.495  13.146
26698SOL    HW181991   5.121   6.503  13.133
26698SOL    HW281992   5.011   6.400  13.150
26699SOL     OW81993   3.281   9.041  11.409
26699SOL    HW181994   3.314   8.966  11.359
26699SOL    HW281995   3.348   9.109  11.397
26700SOL     OW81996  10.347   6.446   0.316
26700SOL    HW181997  10.369   6.539   0.318
26700SOL    HW281998  10.397   6.411   0.242
26701SOL     OW81999   2.407  13.853   2.126
26701SOL    HW182000   2.445  13.866   2.213
26701SOL    HW282001   2.330  13.909   2.124
26702SOL     OW82002  14.193   0.084  10.891
26702SOL    HW182003  14.156   0.046  10.971
26702SOL    HW282004  14.125   0.144  10.860
26703SOL     OW82005   9.775  10.266   3.861
26703SOL    HW182006   9.797  10.197   3.924
26703SOL    HW282007   9.805  10.347   3.902
26704SOL     OW82008  13.736  11.021   0.440
26704SOL    HW182009  13.799  11.062   0.382
26704SOL    HW282010  13.656  11.014   0.388
26705SOL     OW82011   1.378   7.001   1.284
26705SOL    HW182012   1.451   7.019   1.343
26705SOL    HW282013   1.301   7.002   1.342
26706SOL     OW82014   2.699  10.410   0.582
26706SOL    HW182015   2.793  10.416   0.565
26706SOL    HW282016   2.692  10.422   0.677
26707SOL     OW82017   3.791   5.678   6.853
26707SOL    HW182018   3.760   5.664   6.942
26707SOL    HW282019   3.855   5.748   6.860
26708SOL     OW82020  12.062  14.302   9.554
26708SOL    HW182021  12.131  14.299   9.487
26708SOL    HW282022  11.996  14.239   9.524
26709SOL     OW82023   6.178   4.378   3.331
26709SOL    HW182024   6.175   4.424   3.247
26709SOL    HW282025   6.162   4.446   3.396
26710SOL     OW82026   7.842  12.829   9.774
26710SOL    HW182027   7.843  12.889   9.849
26710SOL    HW282028   7.892  12.874   9.706
26711SOL     OW82029   6.261   1.079  12.143
26711SOL    HW182030   6.327   1.020  12.107
26711SOL    HW282031   6.308   1.133  12.206
26712SOL     OW82032  12.711   1.668   7.744
26712SOL    HW182033  12.650   1.717   7.689
26712SOL    HW282034  12.764   1.736   7.787
26713SOL     OW82035  14.760   2.679  12.401
26713SOL    HW182036  14.818   2.675  12.477
26713SOL    HW282037  14.699   2.750  12.420
26714SOL     OW82038   1.770   1.926   3.838
26714SOL    HW182039   1.700   1.924   3.903
26714SOL    HW282040   1.775   1.836   3.805
26715SOL     OW82041   7.199  11.578   8.870
26715SOL    HW182042   7.216  11.527   8.790
26715SOL    HW282043   7.161  11.660   8.838
26716SOL     OW82044   7.058  10.739   4.961
26716SOL    HW182045   6.984  10.697   4.918
26716SOL    HW282046   7.100  10.791   4.893
26717SOL     OW82047   4.280  12.461   6.877
26717SOL    HW182048   4.274  12.556   6.879
26717SOL    HW282049   4.233  12.435   6.798
26718SOL     OW82050   1.732   7.331  12.855
26718SOL    HW182051   1.644   7.350  12.822
26718SOL    HW282052   1.783   7.409  12.831
26719SOL     OW82053   4.574  11.079   9.741
26719SOL    HW182054   4.625  11.003   9.711
26719SOL    HW282055   4.624  11.155   9.711
26720SOL     OW82056  11.974   5.507   2.259
26720SOL    HW182057  11.997   5.513   2.352
26720SOL    HW282058  11.923   5.586   2.242
26721SOL     OW82059   6.796   2.326   1.173
26721SOL    HW182060   6.752   2.247   1.142
26721SOL    HW282061   6.728   2.393   1.174
26722SOL     OW82062  12.322   3.511  10.309
26722SOL    HW182063  12.381   3.532  10.382
26722SOL    HW282064  12.348   3.423  10.282
26723SOL     OW82065   6.321   9.618   2.292
26723SOL    HW182066   6.230   9.641   2.276
26723SOL    HW282067   6.318   9.548   2.357
26724SOL     OW82068   7.818   5.134   1.544
26724SOL    HW182069   7.799   5.221   1.579
26724SOL    HW282070   7.856   5.086   1.617
26725SOL     OW82071  14.462  12.928   5.496
26725SOL    HW182072  14.423  12.997   5.443
26725SOL    HW282073  14.502  12.868   5.432
26726SOL     OW82074   4.993  11.935   6.269
26726SOL    HW182075   4.951  11.960   6.187
26726SOL    HW282076   4.929  11.879   6.313
26727SOL     OW82077   8.509   1.860   2.453
26727SOL    HW182078   8.432   1.803   2.454
26727SOL    HW282079   8.504   1.909   2.535
26728SOL     OW82080   2.181   4.709   3.160
26728SOL    HW182081   2.090   4.721   3.185
26728SOL    HW282082   2.177   4.658   3.078
26729SOL     OW82083  14.622   4.225   4.569
26729SOL    HW182084  14.574   4.249   4.648
26729SOL    HW282085  14.577   4.271   4.499
26730SOL     OW82086  13.853   5.245   3.815
26730SOL    HW182087  13.805   5.163   3.821
26730SOL    HW282088  13.791   5.306   3.775
26731SOL     OW82089   4.708   2.920  11.796
26731SOL    HW182090   4.729   2.883  11.882
26731SOL    HW282091   4.671   3.006  11.816
26732SOL     OW82092   5.750   3.106   4.207
26732SOL    HW182093   5.696   3.076   4.280
26732SOL    HW282094   5.695   3.093   4.130
26733SOL     OW82095  14.710   7.439   3.630
26733SOL    HW182096  14.667   7.475   3.552
26733SOL    HW282097  14.642   7.436   3.697
26734SOL     OW82098   5.674  12.219   6.447
26734SOL    HW182099   5.632  12.147   6.495
26734SOL    HW282100   5.603  12.263   6.402
26735SOL     OW82101   5.957   8.159  12.227
26735SOL    HW182102   5.936   8.069  12.254
26735SOL    HW282103   5.879   8.189  12.181
26736SOL     OW82104   6.630   4.509  12.261
26736SOL    HW182105   6.604   4.447  12.329
26736SOL    HW282106   6.591   4.592  12.288
26737SOL     OW82107  14.162   4.064  13.115
26737SOL    HW182108  14.211   3.995  13.069
26737SOL    HW282109  14.142   4.128  13.046
26738SOL     OW82110  13.431  13.844   7.587
26738SOL    HW182111  13.392  13.796   7.513
26738SOL    HW282112  13.489  13.780   7.629
26739SOL     OW82113  13.766   5.491   6.729
26739SOL    HW182114  13.679   5.523   6.750
26739SOL    HW282115  13.817   5.569   6.710
26740SOL     OW82116   1.391   6.856   9.472
26740SOL    HW182117   1.480   6.886   9.451
26740SOL    HW282118   1.335   6.928   9.444
26741SOL     OW82119  11.418  14.373   4.472
26741SOL    HW182120  11.504  14.406   4.447
26741SOL    HW282121  11.377  14.346   4.390
26742SOL     OW82122   5.788   4.394  12.801
26742SOL    HW182123   5.836   4.359  12.726
26742SOL    HW282124   5.706   4.426  12.764
26743SOL     OW82125   1.862   5.549   3.187
26743SOL    HW182126   1.836   5.462   3.218
26743SOL    HW282127   1.904   5.590   3.263
26744SOL     OW82128   1.827   0.911   2.614
26744SOL    HW182129   1.745   0.959   2.603
26744SOL    HW282130   1.889   0.957   2.557
26745SOL     OW82131  13.795  12.789  13.847
26745SOL    HW182132  13.795  12.697  13.820
26745SOL    HW282133  13.704  12.817  13.840
26746SOL     OW82134   1.010  11.866   1.701
26746SOL    HW182135   1.077  11.840   1.638
26746SOL    HW282136   0.947  11.794   1.698
26747SOL     OW82137   1.958   6.413   2.474
26747SOL    HW182138   1.958   6.338   2.533
26747SOL    HW282139   1.866   6.440   2.469
26748SOL     OW82140   4.130  13.138  13.553
26748SOL    HW182141   4.187  13.094  13.617
26748SOL    HW282142   4.148  13.231  13.565
26749SOL     OW82143  13.177   1.715   6.245
26749SOL    HW182144  13.147   1.670   6.324
26749SOL    HW282145  13.265   1.745   6.266
26750SOL     OW82146   6.412   0.836   7.575
26750SOL    HW182147   6.394   0.924   7.541
26750SOL    HW282148   6.423   0.850   7.669
26751SOL     OW82149   6.870   9.712  13.359
26751SOL    HW182150   6.888   9.744  13.447
26751SOL    HW282151   6.945   9.740  13.306
26752SOL     OW82152   0.224   6.060  11.022
26752SOL    HW182153   0.208   6.063  11.116
26752SOL    HW282154   0.291   5.992  11.012
26753SOL     OW82155   8.100   2.269   1.938
26753SOL    HW182156   8.179   2.322   1.950
26753SOL    HW282157   8.039   2.328   1.894
26754SOL     OW82158  13.393   6.614   2.854
26754SOL    HW182159  13.399   6.709   2.851
26754SOL    HW282160  13.482   6.584   2.837
26755SOL     OW82161   2.088   2.368   0.376
26755SOL    HW182162   2.170   2.343   0.420
26755SOL    HW282163   2.059   2.287   0.333
26756SOL     OW82164   7.880  13.981  10.198
26756SOL    HW182165   7.938  13.905  10.205
26756SOL    HW282166   7.867  13.992  10.103
26757SOL     OW82167   3.685   5.769   3.645
26757SOL    HW182168   3.668   5.849   3.594
26757SOL    HW282169   3.711   5.802   3.731
26758SOL     OW82170  11.702  11.852   1.273
26758SOL    HW182171  11.779  11.891   1.313
26758SOL    HW282172  11.634  11.856   1.341
26759SOL     OW82173   0.773   8.384  13.045
26759SOL    HW182174   0.685   8.413  13.022
26759SOL    HW282175   0.764   8.291  13.064
26760SOL     OW82176  13.719   9.365   6.465
26760SOL    HW182177  13.778   9.439   6.476
26760SOL    HW282178  13.777   9.289   6.461
26761SOL     OW82179  13.900   4.214   1.113
26761SOL    HW182180  13.908   4.129   1.156
26761SOL    HW282181  13.862   4.271   1.181
26762SOL     OW82182   0.147   5.612   2.643
26762SOL    HW182183   0.068   5.653   2.679
26762SOL    HW282184   0.157   5.532   2.693
26763SOL     OW82185   8.336   2.346  10.940
26763SOL    HW182186   8.422   2.320  10.907
26763SOL    HW282187   8.282   2.358  10.861
26764SOL     OW82188  11.411   6.205   8.446
26764SOL    HW182189  11.468   6.185   8.520
26764SOL    HW282190  11.441   6.147   8.376
26765SOL     OW82191   9.573   7.036   3.004
26765SOL    HW182192   9.534   7.076   2.926
26765SOL    HW282193   9.564   6.942   2.990
26766SOL     OW82194   3.968   5.385  14.027
26766SOL    HW182195   4.019   5.323  13.975
26766SOL    HW282196   3.882   5.344  14.035
26767SOL     OW82197   4.183   3.434   2.746
26767SOL    HW182198   4.205   3.452   2.838
26767SOL    HW282199   4.249   3.370   2.718
26768SOL     OW82200  10.397   3.583   3.137
26768SOL    HW182201  10.319   3.607   3.186
26768SOL    HW282202  10.440   3.516   3.191
26769SOL     OW82203   1.669   4.417   2.950
26769SOL    HW182204   1.753   4.422   2.997
26769SOL    HW282205   1.674   4.487   2.885
26770SOL     OW82206   7.451   2.536   2.539
26770SOL    HW182207   7.494   2.452   2.523
26770SOL    HW282208   7.364   2.525   2.500
26771SOL     OW82209   7.383   4.807   0.220
26771SOL    HW182210   7.314   4.764   0.271
26771SOL    HW282211   7.383   4.898   0.250
26772SOL     OW82212   2.731   0.799  13.559
26772SOL    HW182213   2.760   0.814  13.649
26772SOL    HW282214   2.689   0.713  13.560
26773SOL     OW82215   1.238  11.207   8.683
26773SOL    HW182216   1.282  11.127   8.710
26773SOL    HW282217   1.307  11.259   8.641
26774SOL     OW82218   3.802   8.539   4.025
26774SOL    HW182219   3.876   8.488   3.992
26774SOL    HW282220   3.765   8.484   4.095
26775SOL     OW82221   8.019   1.521   3.186
26775SOL    HW182222   7.970   1.588   3.233
26775SOL    HW282223   8.007   1.542   3.093
26776SOL     OW82224  11.867  14.163   4.932
26776SOL    HW182225  11.806  14.234   4.950
26776SOL    HW282226  11.850  14.099   5.001
26777SOL     OW82227  14.046   3.422   5.780
26777SOL    HW182228  13.997   3.459   5.853
26777SOL    HW282229  13.999   3.341   5.758
26778SOL     OW82230   9.943  11.786   8.757
26778SOL    HW182231   9.943  11.803   8.663
26778SOL    HW282232   9.963  11.693   8.764
26779SOL     OW82233   8.867   4.254   5.096
26779SOL    HW182234   8.860   4.316   5.169
26779SOL    HW282235   8.936   4.290   5.040
26780SOL     OW82236   2.121   2.188   8.013
26780SOL    HW182237   2.086   2.130   8.079
26780SOL    HW282238   2.143   2.269   8.060
26781SOL     OW82239   3.561  13.800   1.474
26781SOL    HW182240   3.476  13.765   1.450
26781SOL    HW282241   3.544  13.856   1.549
26782SOL     OW82242   1.920   7.583   1.399
26782SOL    HW182243   1.940   7.531   1.321
26782SOL    HW282244   1.838   7.546   1.431
26783SOL     OW82245   8.497  13.078   2.065
26783SOL    HW182246   8.506  13.169   2.038
26783SOL    HW282247   8.456  13.082   2.152
26784SOL     OW82248  12.107  12.681  10.300
26784SOL    HW182249  12.153  12.692  10.383
26784SOL    HW282250  12.159  12.616  10.253
26785SOL     OW82251   8.182  12.999   1.353
26785SOL    HW182252   8.155  12.913   1.384
26785SOL    HW282253   8.227  13.039   1.428
26786SOL     OW82254  10.584  12.966   7.900
26786SOL    HW182255  10.655  12.988   7.840
26786SOL    HW282256  10.614  12.889   7.947
26787SOL     OW82257   6.310   8.345   0.774
26787SOL    HW182258   6.330   8.355   0.680
26787SOL    HW282259   6.257   8.266   0.779
26788SOL     OW82260   6.196   9.025   6.139
26788SOL    HW182261   6.192   8.954   6.203
26788SOL    HW282262   6.285   9.059   6.147
26789SOL     OW82263   0.813   5.948   4.515
26789SOL    HW182264   0.808   6.042   4.499
26789SOL    HW282265   0.846   5.910   4.434
26790SOL     OW82266  10.415   7.871   5.576
26790SOL    HW182267  10.420   7.966   5.560
26790SOL    HW282268  10.467   7.832   5.506
26791SOL     OW82269  14.056   5.517   1.191
26791SOL    HW182270  14.117   5.588   1.209
26791SOL    HW282271  13.969   5.556   1.206
26792SOL     OW82272  10.506   0.557   1.623
26792SOL    HW182273  10.476   0.626   1.563
26792SOL    HW282274  10.525   0.603   1.704
26793SOL     OW82275   1.967  14.224  14.762
26793SOL    HW182276   1.927  14.138  14.780
26793SOL    HW282277   1.985  14.222  14.668
26794SOL     OW82278   2.449   8.187   0.466
26794SOL    HW182279   2.386   8.181   0.395
26794SOL    HW282280   2.444   8.278   0.496
26795SOL     OW82281   9.429   7.214   8.177
26795SOL    HW182282   9.352   7.221   8.120
26795SOL    HW282283   9.480   7.293   8.159
26796SOL     OW82284   3.760   1.451   2.301
26796SOL    HW182285   3.846   1.462   2.261
26796SOL    HW282286   3.715   1.387   2.245
26797SOL     OW82287   3.726  11.154   1.132
26797SOL    HW182288   3.677  11.221   1.085
26797SOL    HW282289   3.815  11.188   1.138
26798SOL     OW82290   0.047   4.242   4.629
26798SOL    HW182291   0.009   4.319   4.586
26798SOL    HW282292  14.849   4.200   4.671
26799SOL     OW82293   8.600   1.537   4.513
26799SOL    HW182294   8.652   1.617   4.522
26799SOL    HW282295   8.664   1.468   4.496
26800SOL     OW82296   1.318   8.752   0.380
26800SOL    HW182297   1.285   8.813   0.313
26800SOL    HW282298   1.404   8.788   0.404
26801SOL     OW82299   8.718  14.809   2.488
26801SOL    HW182300   8.804  14.793   2.448
26801SOL    HW282301   8.655  14.779   2.423
26802SOL     OW82302   0.701  13.828  13.039
26802SOL    HW182303   0.694  13.832  13.134
26802SOL    HW282304   0.659  13.745  13.015
26803SOL     OW82305   2.092  11.144  12.865
26803SOL    HW182306   2.066  11.196  12.941
26803SOL    HW282307   2.138  11.206  12.809
26804SOL     OW82308  13.235   4.848   8.294
26804SOL    HW182309  13.194   4.931   8.270
26804SOL    HW282310  13.325   4.855   8.262
26805SOL     OW82311   5.024   7.565   8.286
26805SOL    HW182312   4.978   7.537   8.366
26805SOL    HW282313   5.116   7.548   8.304
26806SOL     OW82314  10.891  14.572  14.310
26806SOL    HW182315  10.931  14.518  14.378
26806SOL    HW282316  10.964  14.598  14.253
26807SOL     OW82317   8.784   3.678   5.407
26807SOL    HW182318   8.874   3.704   5.426
26807SOL    HW282319   8.731   3.738   5.459
26808SOL     OW82320  11.899  12.732   7.103
26808SOL    HW182321  11.887  12.781   7.184
26808SOL    HW282322  11.823  12.675   7.098
26809SOL     OW82323   6.255  14.637   3.495
26809SOL    HW182324   6.277  14.730   3.488
26809SOL    HW282325   6.165  14.631   3.463
26810SOL     OW82326   3.399   5.655   6.796
26810SOL    HW182327   3.314   5.662   6.754
26810SOL    HW282328   3.451   5.726   6.759
26811SOL     OW82329   7.701   1.283   7.870
26811SOL    HW182330   7.736   1.352   7.814
26811SOL    HW282331   7.775   1.256   7.923
26812SOL     OW82332   6.650   4.653   0.595
26812SOL    HW182333   6.743   4.674   0.583
26812SOL    HW282334   6.607   4.738   0.601
26813SOL     OW82335  10.968  12.254  11.464
26813SOL    HW182336  10.970  12.335  11.412
26813SOL    HW282337  10.909  12.196  11.416
26814SOL     OW82338  11.953  10.494  12.159
26814SOL    HW182339  11.932  10.402  12.147
26814SOL    HW282340  11.887  10.525  12.222
26815SOL     OW82341  14.092   5.055   6.233
26815SOL    HW182342  14.022   5.114   6.206
26815SOL    HW282343  14.138   5.034   6.151
26816SOL     OW82344  13.047   4.198  14.122
26816SOL    HW182345  13.079   4.155  14.043
26816SOL    HW282346  13.121   4.194  14.183
26817SOL     OW82347   3.871  13.574   5.702
26817SOL    HW182348   3.933  13.526   5.646
26817SOL    HW282349   3.825  13.506   5.751
26818SOL     OW82350   2.460  12.466   2.735
26818SOL    HW182351   2.527  12.422   2.788
26818SOL    HW282352   2.481  12.441   2.645
26819SOL     OW82353   3.761  10.996   9.993
26819SOL    HW182354   3.766  11.090   9.981
26819SOL    HW282355   3.826  10.976  10.060
26820SOL     OW82356  13.481  12.308  11.899
26820SOL    HW182357  13.440  12.380  11.947
26820SOL    HW282358  13.489  12.237  11.963
26821SOL     OW82359  13.425  12.638   5.131
26821SOL    HW182360  13.348  12.696   5.133
26821SOL    HW282361  13.437  12.613   5.223
26822SOL     OW82362   6.606  12.413   3.714
26822SOL    HW182363   6.649  12.393   3.797
26822SOL    HW282364   6.626  12.505   3.698
26823SOL     OW82365   0.554   7.140   7.640
26823SOL    HW182366   0.622   7.205   7.619
26823SOL    HW282367   0.592   7.089   7.712
26824SOL     OW82368   2.244  12.363  13.985
26824SOL    HW182369   2.328  12.332  13.951
26824SOL    HW282370   2.228  12.309  14.062
26825SOL     OW82371   5.444   9.881   6.767
26825SOL    HW182372   5.364   9.904   6.815
26825SOL    HW282373   5.473   9.799   6.808
26826SOL     OW82374   8.517  13.909   4.677
26826SOL    HW182375   8.558  13.985   4.637
26826SOL    HW282376   8.428  13.906   4.641
26827SOL     OW82377   2.266   3.581   8.626
26827SOL    HW182378   2.214   3.570   8.546
26827SOL    HW282379   2.241   3.667   8.659
26828SOL     OW82380   4.672  14.874   3.339
26828SOL    HW182381   4.586  14.832   3.341
26828SOL    HW282382   4.709  14.849   3.254
26829SOL     OW82383  10.489   4.893   0.095
26829SOL    HW182384  10.450   4.958   0.036
26829SOL    HW282385  10.576   4.928   0.114
26830SOL     OW82386   9.173   4.612  11.276
26830SOL    HW182387   9.244   4.549  11.287
26830SOL    HW282388   9.141   4.597  11.187
26831SOL     OW82389  10.462   5.215   4.597
26831SOL    HW182390  10.473   5.129   4.638
26831SOL    HW282391  10.459   5.277   4.670
26832SOL     OW82392   6.752  10.114   0.510
26832SOL    HW182393   6.716  10.043   0.457
26832SOL    HW282394   6.677  10.170   0.528
26833SOL     OW82395  12.552   1.742   6.379
26833SOL    HW182396  12.635   1.771   6.342
26833SOL    HW282397  12.558   1.646   6.380
26834SOL     OW82398   8.652   1.928   3.612
26834SOL    HW182399   8.659   1.998   3.677
26834SOL    HW282400   8.729   1.873   3.630
26835SOL     OW82401  12.693  13.683   3.523
26835SOL    HW182402  12.690  13.680   3.618
26835SOL    HW282403  12.766  13.626   3.499
26836SOL     OW82404   2.308   2.651   3.425
26836SOL    HW182405   2.353   2.598   3.491
26836SOL    HW282406   2.352   2.629   3.343
26837SOL     OW82407   7.908   6.234   9.781
26837SOL    HW182408   7.831   6.264   9.732
26837SOL    HW282409   7.899   6.275   9.867
26838SOL     OW82410  11.386   1.197   6.100
26838SOL    HW182411  11.430   1.212   6.184
26838SOL    HW282412  11.450   1.224   6.034
26839SOL     OW82413   7.805   2.049   6.830
26839SOL    HW182414   7.750   2.080   6.757
26839SOL    HW282415   7.808   1.954   6.819
26840SOL     OW82416  11.616   4.961   9.272
26840SOL    HW182417  11.594   4.871   9.293
26840SOL    HW282418  11.554   5.014   9.322
26841SOL     OW82419   3.462   3.545  13.531
26841SOL    HW182420   3.375   3.537  13.493
26841SOL    HW282421   3.485   3.637  13.519
26842SOL     OW82422   8.085  10.995   9.113
26842SOL    HW182423   7.993  11.010   9.138
26842SOL    HW282424   8.088  11.018   9.020
26843SOL     OW82425   7.198   6.687   0.631
26843SOL    HW182426   7.121   6.630   0.632
26843SOL    HW282427   7.214   6.705   0.538
26844SOL     OW82428   0.531  14.501   3.115
26844SOL    HW182429   0.569  14.501   3.203
26844SOL    HW282430   0.559  14.585   3.078
26845SOL     OW82431  14.546   3.388   6.567
26845SOL    HW182432  14.604   3.461   6.548
26845SOL    HW282433  14.460   3.417   6.534
26846SOL     OW82434  11.758   0.632   8.360
26846SOL    HW182435  11.688   0.683   8.402
26846SOL    HW282436  11.805   0.591   8.432
26847SOL     OW82437  12.041   9.587   2.244
26847SOL    HW182438  11.993   9.602   2.163
26847SOL    HW282439  12.129   9.562   2.216
26848SOL     OW82440   8.296   5.516  12.170
26848SOL    HW182441   8.350   5.498  12.093
26848SOL    HW282442   8.216   5.555  12.135
26849SOL     OW82443  10.816   1.527   1.127
26849SOL    HW182444  10.768   1.468   1.069
26849SOL    HW282445  10.825   1.608   1.077
26850SOL     OW82446   3.389  13.462   0.802
26850SOL    HW182447   3.448  13.420   0.739
26850SOL    HW282448   3.438  13.461   0.885
26851SOL     OW82449   1.474   4.329  13.447
26851SOL    HW182450   1.544   4.346  13.385
26851SOL    HW282451   1.463   4.411  13.495
26852SOL     OW82452  13.599   0.050   2.163
26852SOL    HW182453  13.533   0.119   2.176
26852SOL    HW282454  13.561  14.850   2.205
26853SOL     OW82455   2.880   0.218  13.399
26853SOL    HW182456   2.916   0.299  13.434
26853SOL    HW282457   2.942   0.151  13.426
26854SOL     OW82458   3.043  14.714  10.069
26854SOL    HW182459   3.032  14.663   9.989
26854SOL    HW282460   3.030  14.805  10.041
26855SOL     OW82461   4.198   3.074  13.211
26855SOL    HW182462   4.254   3.111  13.280
26855SOL    HW282463   4.159   2.997  13.252
26856SOL     OW82464   6.226   2.767  10.896
26856SOL    HW182465   6.267   2.804  10.975
26856SOL    HW282466   6.135   2.797  10.900
26857SOL     OW82467   2.603   9.930  13.238
26857SOL    HW182468   2.515   9.945  13.273
26857SOL    HW282469   2.619   9.837  13.251
26858SOL     OW82470   1.500   2.848   3.842
26858SOL    HW182471   1.425   2.906   3.830
26858SOL    HW282472   1.470   2.782   3.905
26859SOL     OW82473   4.193   0.766   7.870
26859SOL    HW182474   4.170   0.675   7.851
26859SOL    HW282475   4.286   0.773   7.846
26860SOL     OW82476   6.866   9.800  11.010
26860SOL    HW182477   6.839   9.883  10.970
26860SOL    HW282478   6.868   9.737  10.938
26861SOL     OW82479   2.606   1.802  11.188
26861SOL    HW182480   2.520   1.764  11.168
26861SOL    HW282481   2.669   1.739  11.152
26862SOL     OW82482   2.011   5.651  11.392
26862SOL    HW182483   1.958   5.672  11.314
26862SOL    HW282484   2.086   5.710  11.386
26863SOL     OW82485  13.948  11.891  11.482
26863SOL    HW182486  14.042  11.878  11.471
26863SOL    HW282487  13.937  11.910  11.575
26864SOL     OW82488   1.040   7.844  11.556
26864SOL    HW182489   0.979   7.916  11.574
26864SOL    HW282490   1.030   7.827  11.462
26865SOL     OW82491  12.205   1.289   4.471
26865SOL    HW182492  12.118   1.252   4.455
26865SOL    HW282493  12.212   1.361   4.409
26866SOL     OW82494   1.783   8.999  13.984
26866SOL    HW182495   1.721   9.029  13.917
26866SOL    HW282496   1.729   8.950  14.046
26867SOL     OW82497   8.322  10.732   0.901
26867SOL    HW182498   8.354  10.795   0.966
26867SOL    HW282499   8.287  10.660   0.953
26868SOL     OW82500   5.013   1.587  13.735
26868SOL    HW182501   4.932   1.633  13.760
26868SOL    HW282502   5.015   1.511  13.794
26869SOL     OW82503   6.039  13.360   3.220
26869SOL    HW182504   6.069  13.288   3.165
26869SOL    HW282505   5.988  13.319   3.289
26870SOL     OW82506  10.421  14.067   9.698
26870SOL    HW182507  10.353  14.072   9.631
26870SOL    HW282508  10.490  14.013   9.659
26871SOL     OW82509   9.418   6.094  12.691
26871SOL    HW182510   9.512   6.092  12.677
26871SOL    HW282511   9.387   6.171  12.644
26872SOL     OW82512   7.857   4.121  12.622
26872SOL    HW182513   7.940   4.151  12.659
26872SOL    HW282514   7.881   4.071  12.544
26873SOL     OW82515   0.415   6.844  10.018
26873SOL    HW182516   0.371   6.811   9.939
26873SOL    HW282517   0.407   6.939  10.011
26874SOL     OW82518   9.685   5.392   1.488
26874SOL    HW182519   9.746   5.418   1.557
26874SOL    HW282520   9.741   5.372   1.412
26875SOL     OW82521   8.602   5.410   9.402
26875SOL    HW182522   8.548   5.334   9.378
26875SOL    HW282523   8.561   5.483   9.356
26876SOL     OW82524   3.256   2.027  12.520
26876SOL    HW182525   3.292   2.022  12.432
26876SOL    HW282526   3.326   2.068  12.572
26877SOL     OW82527  13.889   4.211  11.103
26877SOL    HW182528  13.832   4.186  11.030
26877SOL    HW282529  13.894   4.306  11.098
26878SOL     OW82530  11.449   3.219   7.483
26878SOL    HW182531  11.437   3.150   7.417
26878SOL    HW282532  11.384   3.200   7.550
26879SOL     OW82533  11.002  12.910   6.549
26879SOL    HW182534  10.941  12.981   6.570
26879SOL    HW282535  10.963  12.867   6.472
26880SOL     OW82536   3.684   0.420   7.198
26880SOL    HW182537   3.614   0.429   7.263
26880SOL    HW282538   3.638   0.409   7.114
26881SOL     OW82539   2.010   6.128  12.698
26881SOL    HW182540   1.965   6.193  12.645
26881SOL    HW282541   2.096   6.167  12.716
26882SOL     OW82542  12.171   8.742  11.313
26882SOL    HW182543  12.167   8.838  11.314
26882SOL    HW282544  12.113   8.717  11.241
26883SOL     OW82545   4.091   3.090   8.894
26883SOL    HW182546   4.008   3.124   8.925
26883SOL    HW282547   4.117   3.150   8.824
26884SOL     OW82548   5.735  10.675   0.008
26884SOL    HW182549   5.665  10.730  14.849
26884SOL    HW282550   5.695  10.589   0.018
26885SOL     OW82551   7.920   7.205   6.596
26885SOL    HW182552   7.909   7.141   6.526
26885SOL    HW282553   7.988   7.168   6.652
26886SOL     OW82554   7.351   5.795  12.426
26886SOL    HW182555   7.406   5.731  12.382
26886SOL    HW282556   7.361   5.875  12.375
26887SOL     OW82557   7.317   5.805  14.071
26887SOL    HW182558   7.373   5.729  14.087
26887SOL    HW282559   7.243   5.769  14.021
26888SOL     OW82560  12.473   8.345   5.405
26888SOL    HW182561  12.538   8.409   5.376
26888SOL    HW282562  12.470   8.281   5.334
26889SOL     OW82563  11.852   4.878  14.396
26889SOL    HW182564  11.907   4.841  14.327
26889SOL    HW282565  11.885   4.838  14.477
26890SOL     OW82566   1.064   8.059   0.217
26890SOL    HW182567   1.142   8.112   0.209
26890SOL    HW282568   1.090   7.987   0.274
26891SOL     OW82569   0.068   8.273   9.895
26891SOL    HW182570   0.072   8.206   9.962
26891SOL    HW282571   0.144   8.255   9.839
26892SOL     OW82572  13.195   7.181   8.632
26892SOL    HW182573  13.252   7.229   8.693
26892SOL    HW282574  13.252   7.159   8.559
26893SOL     OW82575  10.102  13.897  10.064
26893SOL    HW182576  10.100  13.991  10.082
26893SOL    HW282577  10.195  13.874  10.062
26894SOL     OW82578   1.811   0.443   0.114
26894SOL    HW182579   1.887   0.388   0.096
26894SOL    HW282580   1.769   0.455   0.028
26895SOL     OW82581  10.850   1.219  11.838
26895SOL    HW182582  10.776   1.159  11.829
26895SOL    HW282583  10.912   1.190  11.772
26896SOL     OW82584  13.372  14.209  12.305
26896SOL    HW182585  13.329  14.288  12.339
26896SOL    HW282586  13.322  14.186  12.227
26897SOL     OW82587   0.715  12.121   3.130
26897SOL    HW182588   0.784  12.158   3.075
26897SOL    HW282589   0.759  12.102   3.213
26898SOL     OW82590   2.956  11.128   6.270
26898SOL    HW182591   2.969  11.169   6.184
26898SOL    HW282592   2.986  11.195   6.332
26899SOL     OW82593  13.666  13.717   4.907
26899SOL    HW182594  13.729  13.713   4.834
26899SOL    HW282595  13.587  13.755   4.868
26900SOL     OW82596   3.077  11.824   2.971
26900SOL    HW182597   3.090  11.740   3.016
26900SOL    HW282598   2.989  11.852   2.998
26901SOL     OW82599  12.124   5.215   4.039
26901SOL    HW182600  12.084   5.300   4.055
26901SOL    HW282601  12.115   5.200   3.945
26902SOL     OW82602  12.442  13.759   2.535
26902SOL    HW182603  12.386  13.815   2.482
26902SOL    HW282604  12.471  13.690   2.474
26903SOL     OW82605   2.015  14.120   3.029
26903SOL    HW182606   1.985  14.029   3.032
26903SOL    HW282607   2.028  14.138   2.936
26904SOL     OW82608  13.902   3.947  14.860
26904SOL    HW182609  13.853   3.871  14.829
26904SOL    HW282610  13.968   3.962  14.793
26905SOL     OW82611   1.203  13.022   9.417
26905SOL    HW182612   1.232  13.034   9.327
26905SOL    HW282613   1.241  13.095   9.465
26906SOL     OW82614  10.377  11.350  12.740
26906SOL    HW182615  10.469  11.374  12.749
26906SOL    HW282616  10.363  11.283  12.807
26907SOL     OW82617   3.765  11.518   9.071
26907SOL    HW182618   3.825  11.444   9.062
26907SOL    HW282619   3.809  11.589   9.024
26908SOL     OW82620   2.836  14.079  10.610
26908SOL    HW182621   2.855  14.173  10.611
26908SOL    HW282622   2.847  14.052  10.519
26909SOL     OW82623   6.537   0.226   0.947
26909SOL    HW182624   6.632   0.212   0.943
26909SOL    HW282625   6.528   0.314   0.985
26910SOL     OW82626   1.313   4.562   0.224
26910SOL    HW182627   1.254   4.488   0.238
26910SOL    HW282628   1.279   4.631   0.281
26911SOL     OW82629   9.180   0.016  13.547
26911SOL    HW182630   9.114  14.855  13.488
26911SOL    HW282631   9.264  14.872  13.506
26912SOL     OW82632   9.583   8.182   0.291
26912SOL    HW182633   9.522   8.240   0.246
26912SOL    HW282634   9.670   8.211   0.263
26913SOL     OW82635   9.558   1.126  12.175
26913SOL    HW182636   9.483   1.067  12.162
26913SOL    HW282637   9.593   1.101  12.261
26914SOL     OW82638   7.862   9.844   2.088
26914SOL    HW182639   7.944   9.887   2.112
26914SOL    HW282640   7.854   9.771   2.149
26915SOL     OW82641   7.316   9.187  13.194
26915SOL    HW182642   7.347   9.168  13.105
26915SOL    HW282643   7.254   9.116  13.214
26916SOL     OW82644   2.431   6.675  14.136
26916SOL    HW182645   2.457   6.763  14.110
26916SOL    HW282646   2.346   6.687  14.179
26917SOL     OW82647   7.542  10.695  13.226
26917SOL    HW182648   7.546  10.602  13.249
26917SOL    HW282649   7.627  10.730  13.250
26918SOL     OW82650   5.276  12.775   2.784
26918SOL    HW182651   5.223  12.842   2.740
26918SOL    HW282652   5.299  12.714   2.714
26919SOL     OW82653   2.983   6.931  14.684
26919SOL    HW182654   2.933   6.966  14.610
26919SOL    HW282655   2.921   6.933  14.757
26920SOL     OW82656  12.603   2.724   0.583
26920SOL    HW182657  12.553   2.685   0.512
26920SOL    HW282658  12.668   2.780   0.539
26921SOL     OW82659  14.008   1.907   0.992
26921SOL    HW182660  13.974   1.992   0.965
26921SOL    HW282661  13.952   1.881   1.066
26922SOL     OW82662  14.459  13.775   8.258
26922SOL    HW182663  14.370  13.761   8.290
26922SOL    HW282664  14.511  13.789   8.337
26923SOL     OW82665   8.393   4.559   2.204
26923SOL    HW182666   8.362   4.480   2.161
26923SOL    HW282667   8.438   4.608   2.136
26924SOL     OW82668  10.287  12.876   3.134
26924SOL    HW182669  10.291  12.905   3.043
26924SOL    HW282670  10.212  12.816   3.136
26925SOL     OW82671   5.020   6.110   0.800
26925SOL    HW182672   4.982   6.061   0.873
26925SOL    HW282673   4.944   6.142   0.751
26926SOL     OW82674   4.828  12.231   5.704
26926SOL    HW182675   4.904  12.280   5.673
26926SOL    HW282676   4.769  12.297   5.740
26927SOL     OW82677  10.434   6.713   5.447
26927SOL    HW182678  10.410   6.787   5.503
26927SOL    HW282679  10.528   6.703   5.458
26928SOL     OW82680   0.096  13.430  13.146
26928SOL    HW182681   0.035  13.497  13.113
26928SOL    HW282682   0.183  13.467  13.129
26929SOL     OW82683   6.698   9.136  11.317
26929SOL    HW182684   6.744   9.056  11.341
26929SOL    HW282685   6.720   9.198  11.387
26930SOL     OW82686   4.161  13.569  12.383
26930SOL    HW182687   4.159  13.580  12.478
26930SOL    HW282688   4.223  13.634  12.352
26931SOL     OW82689  10.127   3.639  14.637
26931SOL    HW182690  10.150   3.547  14.651
26931SOL    HW282691  10.209   3.680  14.609
26932SOL     OW82692   5.634  13.457   9.851
26932SOL    HW182693   5.654  13.387   9.914
26932SOL    HW282694   5.552  13.494   9.884
26933SOL     OW82695  12.045   5.261   1.147
26933SOL    HW182696  12.087   5.320   1.085
26933SOL    HW282697  12.103   5.185   1.151
26934SOL     OW82698   7.781   9.351   1.081
26934SOL    HW182699   7.848   9.354   1.149
26934SOL    HW282700   7.752   9.260   1.080
26935SOL     OW82701   8.783   0.132   2.240
26935SOL    HW182702   8.733   0.057   2.272
26935SOL    HW282703   8.720   0.203   2.235
26936SOL     OW82704   1.309  11.578   9.399
26936SOL    HW182705   1.322  11.583   9.494
26936SOL    HW282706   1.367  11.645   9.363
26937SOL     OW82707  12.389  12.594  12.028
26937SOL    HW182708  12.297  12.568  12.028
26937SOL    HW282709  12.436  12.515  12.055
26938SOL     OW82710   0.117   6.330   4.616
26938SOL    HW182711   0.110   6.321   4.711
26938SOL    HW282712   0.184   6.397   4.603
26939SOL     OW82713  12.498  10.057   7.079
26939SOL    HW182714  12.577  10.009   7.106
26939SOL    HW282715  12.462  10.005   7.008
26940SOL     OW82716   0.412   4.551   1.647
26940SOL    HW182717   0.328   4.504   1.649
26940SOL    HW282718   0.426   4.572   1.555
26941SOL     OW82719   1.049   2.270   2.511
26941SOL    HW182720   1.042   2.177   2.532
26941SOL    HW282721   0.963   2.293   2.475
26942SOL     OW82722   7.714   1.925   5.371
26942SOL    HW182723   7.801   1.924   5.331
26942SOL    HW282724   7.678   2.011   5.347
26943SOL     OW82725   7.699   0.769  10.703
26943SOL    HW182726   7.783   0.785  10.661
26943SOL    HW282727   7.695   0.674  10.714
26944SOL     OW82728  10.511   6.772   1.539
26944SOL    HW182729  10.506   6.854   1.590
26944SOL    HW282730  10.556   6.711   1.597
26945SOL     OW82731   9.880   6.589   8.323
26945SOL    HW182732   9.827   6.567   8.399
26945SOL    HW282733   9.818   6.590   8.250
26946SOL     OW82734   2.294   4.699   4.063
26946SOL    HW182735   2.270   4.646   3.987
26946SOL    HW282736   2.246   4.781   4.051
26947SOL     OW82737   6.216  11.976   0.073
26947SOL    HW182738   6.247  11.912   0.138
26947SOL    HW282739   6.136  11.937   0.038
26948SOL     OW82740   8.028  13.907  11.263
26948SOL    HW182741   8.119  13.927  11.241
26948SOL    HW282742   8.034  13.831  11.321
26949SOL     OW82743   9.244  13.141   8.073
26949SOL    HW182744   9.154  13.168   8.091
26949SOL    HW282745   9.298  13.212   8.109
26950SOL     OW82746   8.804   9.451   5.714
26950SOL    HW182747   8.735   9.429   5.651
26950SOL    HW282748   8.859   9.373   5.718
26951SOL     OW82749   1.188   6.261  11.875
26951SOL    HW182750   1.241   6.195  11.829
26951SOL    HW282751   1.202   6.341  11.825
26952SOL     OW82752   6.928   6.755  11.925
26952SOL    HW182753   7.003   6.785  11.977
26952SOL    HW282754   6.866   6.721  11.990
26953SOL     OW82755   5.790   4.397   8.608
26953SOL    HW182756   5.743   4.473   8.642
26953SOL    HW282757   5.815   4.347   8.686
26954SOL     OW82758   1.612   2.025   6.795
26954SOL    HW182759   1.677   1.955   6.807
26954SOL    HW282760   1.528   1.979   6.793
26955SOL     OW82761  13.331   9.820   0.255
26955SOL    HW182762  13.307   9.911   0.274
26955SOL    HW282763  13.399   9.827   0.187
26956SOL     OW82764   4.172   9.347  12.926
26956SOL    HW182765   4.100   9.316  12.871
26956SOL    HW282766   4.218   9.268  12.954
26957SOL     OW82767  11.526   5.300  11.466
26957SOL    HW182768  11.471   5.359  11.414
26957SOL    HW282769  11.564   5.355  11.534
26958SOL     OW82770  11.079  13.531   6.319
26958SOL    HW182771  11.158  13.516   6.370
26958SOL    HW282772  11.008  13.497   6.374
26959SOL     OW82773   0.788   8.537  14.755
26959SOL    HW182774   0.814   8.510  14.843
26959SOL    HW282775   0.801   8.458  14.702
26960SOL     OW82776  12.596   8.991  14.383
26960SOL    HW182777  12.649   9.045  14.441
26960SOL    HW282778  12.567   9.051  14.314
26961SOL     OW82779   1.635  12.122   9.167
26961SOL    HW182780   1.602  12.033   9.151
26961SOL    HW282781   1.719  12.125   9.122
26962SOL     OW82782   8.426   3.910  14.034
26962SOL    HW182783   8.417   3.870  13.947
26962SOL    HW282784   8.336   3.921  14.065
26963SOL     OW82785   8.587  11.996  12.234
26963SOL    HW182786   8.576  12.086  12.265
26963SOL    HW282787   8.630  12.006  12.149
26964SOL     OW82788   2.702   6.299  12.463
26964SOL    HW182789   2.740   6.374  12.509
26964SOL    HW282790   2.644   6.258  12.527
26965SOL     OW82791   0.308  11.366  11.985
26965SOL    HW182792   0.300  11.333  11.895
26965SOL    HW282793   0.402  11.364  12.003
26966SOL     OW82794  13.850   1.137   2.145
26966SOL    HW182795  13.793   1.139   2.222
26966SOL    HW282796  13.854   1.045   2.120
26967SOL     OW82797  11.837   3.124  14.290
26967SOL    HW182798  11.927   3.098  14.312
26967SOL    HW282799  11.787   3.043  14.295
26968SOL     OW82800  13.652   7.347   8.500
26968SOL    HW182801  13.594   7.404   8.551
26968SOL    HW282802  13.659   7.268   8.553
26969SOL     OW82803  12.644   9.709  13.013
26969SOL    HW182804  12.635   9.710  13.108
26969SOL    HW282805  12.632   9.801  12.987
26970SOL     OW82806   5.770  10.817  14.023
26970SOL    HW182807   5.734  10.862  14.099
26970SOL    HW282808   5.840  10.762  14.059
26971SOL     OW82809   1.423  14.108   1.283
26971SOL    HW182810   1.402  14.097   1.376
26971SOL    HW282811   1.471  14.191   1.279
26972SOL     OW82812   2.634  13.306  10.122
26972SOL    HW182813   2.656  13.374  10.059
26972SOL    HW282814   2.683  13.329  10.201
26973SOL     OW82815   7.685  11.862   9.169
26973SOL    HW182816   7.591  11.861   9.155
26973SOL    HW282817   7.722  11.816   9.093
26974SOL     OW82818   3.515   2.259  14.244
26974SOL    HW182819   3.462   2.212  14.309
26974SOL    HW282820   3.596   2.282  14.291
26975SOL     OW82821   1.021  10.975  10.083
26975SOL    HW182822   1.021  11.020  10.167
26975SOL    HW282823   1.073  11.031  10.025
26976SOL     OW82824   3.325   3.075   2.072
26976SOL    HW182825   3.380   2.997   2.066
26976SOL    HW282826   3.298   3.092   1.981
26977SOL     OW82827   8.697   1.639  13.480
26977SOL    HW182828   8.699   1.636  13.385
26977SOL    HW282829   8.764   1.577  13.508
26978SOL     OW82830   1.941   4.286   8.769
26978SOL    HW182831   1.911   4.326   8.688
26978SOL    HW282832   1.894   4.333   8.838
26979SOL     OW82833  11.349   4.189   7.023
26979SOL    HW182834  11.343   4.262   7.084
26979SOL    HW282835  11.269   4.194   6.971
26980SOL     OW82836   8.477   6.420   1.049
26980SOL    HW182837   8.431   6.358   1.105
26980SOL    HW282838   8.482   6.501   1.101
26981SOL     OW82839   0.893   5.345  10.147
26981SOL    HW182840   0.836   5.282  10.103
26981SOL    HW282841   0.937   5.392  10.076
26982SOL     OW82842   0.074   0.372   8.310
26982SOL    HW182843   0.037   0.287   8.332
26982SOL    HW282844   0.032   0.433   8.371
26983SOL     OW82845  12.496  13.199   3.685
26983SOL    HW182846  12.490  13.165   3.775
26983SOL    HW282847  12.432  13.270   3.682
26984SOL     OW82848   6.015   1.464   5.780
26984SOL    HW182849   6.010   1.385   5.726
26984SOL    HW282850   6.069   1.524   5.728
26985SOL     OW82851   4.156  13.256   6.934
26985SOL    HW182852   4.145  13.347   6.962
26985SOL    HW282853   4.203  13.262   6.851
26986SOL     OW82854   1.970   0.296  13.533
26986SOL    HW182855   1.965   0.343  13.450
26986SOL    HW282856   2.033   0.226  13.518
26987SOL     OW82857  11.067   7.726   1.830
26987SOL    HW182858  11.158   7.722   1.861
26987SOL    HW282859  11.015   7.717   1.909
26988SOL     OW82860   7.334   6.131  10.735
26988SOL    HW182861   7.304   6.169  10.817
26988SOL    HW282862   7.367   6.206  10.685
26989SOL     OW82863  14.567   2.318  12.159
26989SOL    HW182864  14.580   2.401  12.112
26989SOL    HW282865  14.511   2.341  12.232
26990SOL     OW82866   1.097  12.125   0.274
26990SOL    HW182867   1.115  12.171   0.355
26990SOL    HW282868   1.178  12.133   0.223
26991SOL     OW82869   3.679  13.003  13.328
26991SOL    HW182870   3.710  13.057  13.400
26991SOL    HW282871   3.651  12.921  13.369
26992SOL     OW82872   9.961   1.355   9.014
26992SOL    HW182873  10.044   1.308   9.024
26992SOL    HW282874   9.898   1.288   8.986
26993SOL     OW82875  12.926  14.648   0.880
26993SOL    HW182876  12.991  14.678   0.943
26993SOL    HW282877  12.851  14.706   0.893
26994SOL     OW82878   5.294   2.057   7.299
26994SOL    HW182879   5.326   2.106   7.224
26994SOL    HW282880   5.200   2.047   7.283
26995SOL     OW82881   6.432  12.672  10.624
26995SOL    HW182882   6.489  12.709  10.557
26995SOL    HW282883   6.466  12.708  10.706
26996SOL     OW82884   1.823  10.184   6.622
26996SOL    HW182885   1.770  10.261   6.605
26996SOL    HW282886   1.773  10.111   6.584
26997SOL     OW82887   3.014   0.637   7.057
26997SOL    HW182888   3.101   0.670   7.033
26997SOL    HW282889   3.027   0.598   7.143
26998SOL     OW82890   3.697   2.545   0.950
26998SOL    HW182891   3.792   2.541   0.959
26998SOL    HW282892   3.681   2.524   0.858
26999SOL     OW82893   5.302   0.954   2.211
26999SOL    HW182894   5.218   0.961   2.258
26999SOL    HW282895   5.303   0.864   2.178
27000SOL     OW82896  10.939  10.667   2.511
27000SOL    HW182897  10.883  10.740   2.535
27000SOL    HW282898  10.899  10.633   2.430
27001SOL     OW82899   1.024   5.212   4.142
27001SOL    HW182900   1.109   5.256   4.141
27001SOL    HW282901   1.018   5.172   4.229
27002SOL     OW82902  11.669   1.430  11.502
27002SOL    HW182903  11.584   1.400  11.469
27002SOL    HW282904  11.717   1.456  11.423
27003SOL     OW82905   8.315   1.295   2.163
27003SOL    HW182906   8.364   1.216   2.144
27003SOL    HW282907   8.366   1.365   2.122
27004SOL     OW82908   2.072  14.475   0.927
27004SOL    HW182909   2.163  14.504   0.923
27004SOL    HW282910   2.077  14.382   0.949
27005SOL     OW82911   7.295   4.599   5.318
27005SOL    HW182912   7.278   4.534   5.249
27005SOL    HW282913   7.240   4.571   5.391
27006SOL     OW82914   1.999   6.917  11.337
27006SOL    HW182915   2.010   6.823  11.327
27006SOL    HW282916   2.084   6.955  11.313
27007SOL     OW82917   9.369   0.001   4.546
27007SOL    HW182918   9.396   0.077   4.494
27007SOL    HW282919   9.418  14.806   4.510
27008SOL     OW82920   7.184   2.203   4.456
27008SOL    HW182921   7.190   2.216   4.551
27008SOL    HW282922   7.095   2.168   4.442
27009SOL     OW82923   8.180   0.910   3.213
27009SOL    HW182924   8.126   0.952   3.147
27009SOL    HW282925   8.209   0.982   3.269
27010SOL     OW82926  10.179   4.673   5.106
27010SOL    HW182927  10.123   4.611   5.154
27010SOL    HW282928  10.118   4.737   5.070
27011SOL     OW82929  10.410   5.099   5.894
27011SOL    HW182930  10.505   5.090   5.887
27011SOL    HW282931  10.381   5.117   5.804
27012SOL     OW82932  13.790   5.646  14.220
27012SOL    HW182933  13.705   5.607  14.199
27012SOL    HW282934  13.850   5.572  14.224
27013SOL     OW82935  11.736   2.843  12.544
27013SOL    HW182936  11.722   2.804  12.629
27013SOL    HW282937  11.771   2.930  12.563
27014SOL     OW82938   5.796   0.988   8.265
27014SOL    HW182939   5.724   1.032   8.308
27014SOL    HW282940   5.755   0.927   8.204
27015SOL     OW82941   8.103   2.929  10.053
27015SOL    HW182942   8.144   2.962  10.133
27015SOL    HW282943   8.077   3.007  10.005
27016SOL     OW82944   5.376  12.961   1.728
27016SOL    HW182945   5.305  13.019   1.701
27016SOL    HW282946   5.444  12.973   1.662
27017SOL     OW82947   5.678  10.548  11.597
27017SOL    HW182948   5.641  10.485  11.534
27017SOL    HW282949   5.747  10.499  11.641
27018SOL     OW82950   4.110   6.343  12.331
27018SOL    HW182951   4.125   6.260  12.286
27018SOL    HW282952   4.032   6.328  12.384
27019SOL     OW82953   2.074   2.345  12.094
27019SOL    HW182954   2.042   2.377  12.010
27019SOL    HW282955   2.137   2.411  12.123
27020SOL     OW82956   8.870  13.013   9.522
27020SOL    HW182957   8.947  12.980   9.568
27020SOL    HW282958   8.854  13.099   9.560
27021SOL     OW82959   7.343   7.026  12.864
27021SOL    HW182960   7.306   7.029  12.952
27021SOL    HW282961   7.272   6.994  12.809
27022SOL     OW82962   8.588   4.870  14.544
27022SOL    HW182963   8.588   4.954  14.591
27022SOL    HW282964   8.679   4.842  14.546
27023SOL     OW82965   4.467   5.351   2.383
27023SOL    HW182966   4.427   5.264   2.384
27023SOL    HW282967   4.414   5.402   2.322
27024SOL     OW82968   2.399  11.718   3.763
27024SOL    HW182969   2.344  11.717   3.841
27024SOL    HW282970   2.472  11.659   3.783
27025SOL     OW82971   9.076  14.453  11.262
27025SOL    HW182972   9.101  14.366  11.231
27025SOL    HW282973   8.986  14.442  11.293
27026SOL     OW82974  13.103  12.038   3.421
27026SOL    HW182975  13.084  12.122   3.380
27026SOL    HW282976  13.172  12.000   3.367
27027SOL     OW82977  13.098  10.545  13.228
27027SOL    HW182978  13.125  10.598  13.153
27027SOL    HW282979  13.144  10.583  13.302
27028SOL     OW82980   0.004   7.119  12.380
27028SOL    HW182981   0.082   7.090  12.334
27028SOL    HW282982  14.834   7.038  12.402
27029SOL     OW82983   9.842   0.103   1.557
27029SOL    HW182984   9.899   0.155   1.500
27029SOL    HW282985   9.754   0.135   1.539
27030SOL     OW82986   0.606   6.516   9.621
27030SOL    HW182987   0.511   6.516   9.632
27030SOL    HW282988   0.622   6.581   9.553
27031SOL     OW82989   0.492  12.594   4.603
27031SOL    HW182990   0.399  12.620   4.599
27031SOL    HW282991   0.508  12.576   4.696
27032SOL     OW82992   2.259   3.926  14.598
27032SOL    HW182993   2.168   3.909  14.623
27032SOL    HW282994   2.306   3.848  14.626
27033SOL     OW82995   4.697  12.057   6.425
27033SOL    HW182996   4.719  11.982   6.480
27033SOL    HW282997   4.781  12.101   6.410
27034SOL     OW82998  12.862  13.351   6.200
27034SOL    HW182999  12.845  13.440   6.234
27034SOL    HW283000  12.882  13.299   6.278
27035SOL     OW83001   7.147  13.523  14.804
27035SOL    HW183002   7.235  13.552  14.780
27035SOL    HW283003   7.142  13.432  14.774
27036SOL     OW83004   4.504  11.950   1.088
27036SOL    HW183005   4.494  11.892   1.163
27036SOL    HW283006   4.509  12.038   1.126
27037SOL     OW83007   6.546   7.942   6.391
27037SOL    HW183008   6.489   7.886   6.443
27037SOL    HW283009   6.536   7.910   6.301
27038SOL     OW83010   8.392  10.149   6.745
27038SOL    HW183011   8.480  10.154   6.783
27038SOL    HW283012   8.345  10.087   6.801
27039SOL     OW83013  13.931  10.883  12.746
27039SOL    HW183014  13.958  10.838  12.666
27039SOL    HW283015  13.885  10.961  12.716
27040SOL     OW83016  11.810  12.704  14.198
27040SOL    HW183017  11.821  12.733  14.108
27040SOL    HW283018  11.775  12.780  14.244
27041SOL     OW83019  13.303   8.965  14.625
27041SOL    HW183020  13.334   8.946  14.536
27041SOL    HW283021  13.217   9.004  14.613
27042SOL     OW83022  10.484  14.225  11.431
27042SOL    HW183023  10.432  14.240  11.510
27042SOL    HW283024  10.444  14.148  11.390
27043SOL     OW83025  12.879  10.678   0.816
27043SOL    HW183026  12.833  10.653   0.736
27043SOL    HW283027  12.818  10.657   0.886
27044SOL     OW83028   3.964   0.999   7.437
27044SOL    HW183029   3.916   1.039   7.510
27044SOL    HW283030   3.934   0.908   7.437
27045SOL     OW83031   5.547   6.095   2.022
27045SOL    HW183032   5.500   6.159   2.075
27045SOL    HW283033   5.543   6.014   2.072
27046SOL     OW83034   8.114   4.171  14.199
27046SOL    HW183035   8.050   4.234  14.165
27046SOL    HW283036   8.158   4.136  14.121
27047SOL     OW83037  11.287   6.584  11.282
27047SOL    HW183038  11.232   6.509  11.259
27047SOL    HW283039  11.259   6.606  11.371
27048SOL     OW83040   4.017  14.690   6.768
27048SOL    HW183041   4.070  14.755   6.722
27048SOL    HW283042   4.076  14.617   6.785
27049SOL     OW83043   5.118   7.993   4.335
27049SOL    HW183044   5.047   7.951   4.287
27049SOL    HW283045   5.137   7.934   4.407
27050SOL     OW83046   5.782   7.947   4.134
27050SOL    HW183047   5.750   7.997   4.058
27050SOL    HW283048   5.703   7.928   4.184
27051SOL     OW83049  13.940  14.060   7.963
27051SOL    HW183050  13.872  13.996   7.944
27051SOL    HW283051  13.892  14.138   7.993
27052SOL     OW83052   0.199  12.098  12.324
27052SOL    HW183053   0.247  12.021  12.296
27052SOL    HW283054   0.138  12.065  12.391
27053SOL     OW83055   2.015  10.875  11.924
27053SOL    HW183056   1.984  10.788  11.952
27053SOL    HW283057   2.049  10.860  11.836
27054SOL     OW83058  14.152   0.035   3.497
27054SOL    HW183059  14.141  14.850   3.568
27054SOL    HW283060  14.127   0.119   3.535
27055SOL     OW83061  14.628   8.190  11.824
27055SOL    HW183062  14.611   8.100  11.799
27055SOL    HW283063  14.561   8.211  11.889
27056SOL     OW83064  11.491  13.073   9.814
27056SOL    HW183065  11.438  13.127   9.755
27056SOL    HW283066  11.481  13.115   9.900
27057SOL     OW83067  12.916   1.311   6.571
27057SOL    HW183068  12.943   1.264   6.492
27057SOL    HW283069  12.905   1.242   6.637
27058SOL     OW83070  10.497   9.111   3.983
27058SOL    HW183071  10.572   9.117   4.042
27058SOL    HW283072  10.535   9.079   3.901
27059SOL     OW83073   7.280  10.236   4.634
27059SOL    HW183074   7.198  10.208   4.594
27059SOL    HW283075   7.294  10.325   4.600
27060SOL     OW83076  14.182   7.333   9.376
27060SOL    HW183077  14.172   7.390   9.299
27060SOL    HW283078  14.264   7.287   9.361
27061SOL     OW83079   7.909  12.750   8.521
27061SOL    HW183080   7.871  12.838   8.514
27061SOL    HW283081   7.986  12.761   8.577
27062SOL     OW83082   3.057   0.483   9.167
27062SOL    HW183083   3.037   0.429   9.091
27062SOL    HW283084   3.098   0.423   9.229
27063SOL     OW83085   3.913   7.411   4.431
27063SOL    HW183086   3.910   7.318   4.408
27063SOL    HW283087   3.966   7.414   4.511
27064SOL     OW83088   6.684   1.943   5.922
27064SOL    HW183089   6.650   2.001   5.853
27064SOL    HW283090   6.743   1.999   5.973
27065SOL     OW83091   2.108  11.957   7.103
27065SOL    HW183092   2.170  12.019   7.065
27065SOL    HW283093   2.154  11.918   7.177
27066SOL     OW83094   0.435  14.232   3.612
27066SOL    HW183095   0.395  14.227   3.699
27066SOL    HW283096   0.432  14.142   3.580
27067SOL     OW83097  14.749  12.381   9.218
27067SOL    HW183098  14.728  12.472   9.199
27067SOL    HW283099  14.835  12.368   9.178
27068SOL     OW83100   1.682  11.203  14.635
27068SOL    HW183101   1.615  11.183  14.700
27068SOL    HW283102   1.634  11.226  14.556
27069SOL     OW83103   5.839   1.584  10.476
27069SOL    HW183104   5.880   1.643  10.540
27069SOL    HW283105   5.763   1.547  10.522
27070SOL     OW83106   3.701   5.786  13.838
27070SOL    HW183107   3.774   5.835  13.876
27070SOL    HW283108   3.626   5.810  13.893
27071SOL     OW83109   2.238   6.481   7.507
27071SOL    HW183110   2.268   6.390   7.504
27071SOL    HW283111   2.193   6.494   7.423
27072SOL     OW83112  11.067   1.163   7.774
27072SOL    HW183113  11.160   1.147   7.789
27072SOL    HW283114  11.028   1.076   7.768
27073SOL     OW83115   9.338  13.759  13.706
27073SOL    HW183116   9.246  13.735  13.703
27073SOL    HW283117   9.382  13.693  13.653
27074SOL     OW83118   1.805   6.192   4.836
27074SOL    HW183119   1.740   6.122   4.835
27074SOL    HW283120   1.772   6.254   4.901
27075SOL     OW83121   2.815  11.961  14.492
27075SOL    HW183122   2.850  12.032  14.439
27075SOL    HW283123   2.726  11.988  14.514
27076SOL     OW83124   7.277   4.807  10.068
27076SOL    HW183125   7.285   4.883  10.126
27076SOL    HW283126   7.246   4.737  10.125
27077SOL     OW83127  11.040  12.805   6.809
27077SOL    HW183128  10.998  12.827   6.726
27077SOL    HW283129  11.038  12.887   6.859
27078SOL     OW83130  12.979  11.683   2.129
27078SOL    HW183131  13.019  11.665   2.044
27078SOL    HW283132  12.895  11.724   2.108
27079SOL     OW83133   3.021   4.395   0.772
27079SOL    HW183134   3.019   4.336   0.697
27079SOL    HW283135   2.940   4.445   0.766
27080SOL     OW83136   1.120  12.252  10.268
27080SOL    HW183137   1.073  12.249  10.185
27080SOL    HW283138   1.102  12.340  10.302
27081SOL     OW83139  13.357   5.713   2.915
27081SOL    HW183140  13.360   5.782   2.980
27081SOL    HW283141  13.265   5.706   2.890
27082SOL     OW83142   8.146   0.705   6.012
27082SOL    HW183143   8.060   0.707   5.969
27082SOL    HW283144   8.200   0.765   5.960
27083SOL     OW83145   3.749   5.211   2.944
27083SOL    HW183146   3.694   5.234   2.869
27083SOL    HW283147   3.728   5.276   3.011
27084SOL     OW83148   4.684   2.691   4.000
27084SOL    HW183149   4.631   2.665   3.924
27084SOL    HW283150   4.754   2.626   4.004
27085SOL     OW83151  13.115   9.402   7.548
27085SOL    HW183152  13.209   9.407   7.566
27085SOL    HW283153  13.078   9.475   7.597
27086SOL     OW83154  12.816   7.128  13.607
27086SOL    HW183155  12.780   7.163  13.525
27086SOL    HW283156  12.837   7.037  13.587
27087SOL     OW83157   9.850  12.649   6.819
27087SOL    HW183158   9.819  12.568   6.780
27087SOL    HW283159   9.823  12.644   6.910
27088SOL     OW83160   1.602   8.807   6.459
27088SOL    HW183161   1.675   8.835   6.515
27088SOL    HW283162   1.578   8.886   6.411
27089SOL     OW83163   1.307   6.635  13.091
27089SOL    HW183164   1.366   6.626  13.166
27089SOL    HW283165   1.312   6.550  13.047
27090SOL     OW83166  10.372   5.003   8.696
27090SOL    HW183167  10.383   5.083   8.646
27090SOL    HW283168  10.278   4.993   8.708
27091SOL     OW83169   7.760  14.166   0.439
27091SOL    HW183170   7.669  14.189   0.422
27091SOL    HW283171   7.767  14.164   0.534
27092SOL     OW83172   9.938   6.086  14.126
27092SOL    HW183173   9.853   6.118  14.154
27092SOL    HW283174   9.937   5.993  14.147
27093SOL     OW83175   0.356  11.093   5.518
27093SOL    HW183176   0.337  11.141   5.438
27093SOL    HW283177   0.452  11.085   5.519
27094SOL     OW83178  14.338  14.063   6.207
27094SOL    HW183179  14.419  14.018   6.183
27094SOL    HW283180  14.270  14.016   6.157
27095SOL     OW83181   3.756   9.844   6.418
27095SOL    HW183182   3.811   9.796   6.479
27095SOL    HW283183   3.707   9.776   6.372
27096SOL     OW83184   7.127   1.290  10.233
27096SOL    HW183185   7.161   1.270  10.145
27096SOL    HW283186   7.055   1.229  10.246
27097SOL     OW83187   4.865  13.161   1.239
27097SOL    HW183188   4.875  13.178   1.145
27097SOL    HW283189   4.917  13.083   1.255
27098SOL     OW83190   0.947   6.877  14.294
27098SOL    HW183191   1.017   6.889  14.359
27098SOL    HW283192   0.866   6.881  14.345
27099SOL     OW83193   6.343   9.517   8.176
27099SOL    HW183194   6.250   9.494   8.174
27099SOL    HW283195   6.348   9.597   8.125
27100SOL     OW83196  12.692   4.739   0.916
27100SOL    HW183197  12.663   4.653   0.945
27100SOL    HW283198  12.777   4.723   0.874
27101SOL     OW83199   0.086  12.326  12.181
27101SOL    HW183200   0.084  12.243  12.228
27101SOL    HW283201   0.179  12.346  12.171
27102SOL     OW83202   8.204   3.367   7.687
27102SOL    HW183203   8.132   3.390   7.629
27102SOL    HW283204   8.247   3.293   7.645
27103SOL     OW83205   3.220  10.775  14.217
27103SOL    HW183206   3.192  10.866  14.209
27103SOL    HW283207   3.272  10.759  14.138
27104SOL     OW83208   0.716  11.489   6.559
27104SOL    HW183209   0.648  11.544   6.598
27104SOL    HW283210   0.786  11.550   6.535
27105SOL     OW83211  13.553  12.975   4.168
27105SOL    HW183212  13.599  13.040   4.114
27105SOL    HW283213  13.613  12.957   4.239
27106SOL     OW83214   5.300   5.531   8.002
27106SOL    HW183215   5.255   5.466   8.056
27106SOL    HW283216   5.336   5.594   8.065
27107SOL     OW83217   7.215   9.941  11.626
27107SOL    HW183218   7.175   9.934  11.540
27107SOL    HW283219   7.142   9.963  11.685
27108SOL     OW83220   2.227   9.568   8.381
27108SOL    HW183221   2.245   9.475   8.387
27108SOL    HW283222   2.313   9.610   8.374
27109SOL     OW83223   7.518   4.878  14.868
27109SOL    HW183224   7.477   4.890  14.782
27109SOL    HW283225   7.448   4.840   0.044
27110SOL     OW83226  11.590   8.572   9.980
27110SOL    HW183227  11.679   8.552   9.950
27110SOL    HW283228  11.541   8.492   9.961
27111SOL     OW83229  14.431   2.448   4.532
27111SOL    HW183230  14.493   2.434   4.460
27111SOL    HW283231  14.346   2.458   4.489
27112SOL     OW83232  12.336   3.556   6.291
27112SOL    HW183233  12.309   3.567   6.382
27112SOL    HW283234  12.401   3.624   6.277
27113SOL     OW83235  13.944   0.551   0.652
27113SOL    HW183236  13.861   0.543   0.700
27113SOL    HW283237  13.972   0.461   0.636
27114SOL     OW83238  14.810   7.728   4.350
27114SOL    HW183239  14.799   7.801   4.410
27114SOL    HW283240  14.810   7.650   4.406
27115SOL     OW83241  14.163   5.651   4.956
27115SOL    HW183242  14.193   5.710   4.886
27115SOL    HW283243  14.156   5.707   5.033
27116SOL     OW83244   4.684   8.133  10.812
27116SOL    HW183245   4.704   8.101  10.900
27116SOL    HW283246   4.761   8.183  10.787
27117SOL     OW83247   3.427   0.476  10.119
27117SOL    HW183248   3.459   0.560  10.085
27117SOL    HW283249   3.343   0.497  10.160
27118SOL     OW83250   8.266   5.800  14.681
27118SOL    HW183251   8.218   5.843  14.610
27118SOL    HW283252   8.274   5.868  14.748
27119SOL     OW83253   6.291   0.576   4.834
27119SOL    HW183254   6.313   0.489   4.801
27119SOL    HW283255   6.206   0.596   4.794
27120SOL     OW83256   5.807  11.003  10.298
27120SOL    HW183257   5.841  10.937  10.359
27120SOL    HW283258   5.846  11.085  10.328
27121SOL     OW83259   5.903   9.505  12.565
27121SOL    HW183260   5.963   9.569  12.604
27121SOL    HW283261   5.851   9.556  12.503
27122SOL     OW83262   1.194  14.243   2.158
27122SOL    HW183263   1.246  14.225   2.237
27122SOL    HW283264   1.142  14.320   2.182
27123SOL     OW83265  10.416   1.357   0.048
27123SOL    HW183266  10.486   1.379  14.864
27123SOL    HW283267  10.446   1.394   0.131
27124SOL     OW83268   0.226   6.155   1.804
27124SOL    HW183269   0.209   6.215   1.730
27124SOL    HW283270   0.307   6.110   1.780
27125SOL     OW83271   0.902   1.168   4.929
27125SOL    HW183272   0.831   1.225   4.899
27125SOL    HW283273   0.919   1.110   4.855
27126SOL     OW83274   0.014   5.258   3.497
27126SOL    HW183275   0.057   5.173   3.506
27126SOL    HW283276  14.829   5.247   3.426
27127SOL     OW83277   0.494   3.148  12.074
27127SOL    HW183278   0.500   3.151  11.979
27127SOL    HW283279   0.576   3.186  12.105
27128SOL     OW83280   0.569  12.410   6.446
27128SOL    HW183281   0.597  12.489   6.493
27128SOL    HW283282   0.550  12.441   6.357
27129SOL     OW83283   9.904   7.997   7.028
27129SOL    HW183284   9.814   8.029   7.025
27129SOL    HW283285   9.949   8.059   7.086
27130SOL     OW83286   9.205   2.155   9.923
27130SOL    HW183287   9.267   2.217   9.883
27130SOL    HW283288   9.214   2.075   9.871
27131SOL     OW83289   4.342  13.159   4.855
27131SOL    HW183290   4.255  13.140   4.890
27131SOL    HW283291   4.402  13.107   4.908
27132SOL     OW83292   0.493  11.055  11.296
27132SOL    HW183293   0.449  11.068  11.212
27132SOL    HW283294   0.586  11.052  11.274
27133SOL     OW83295   0.094  11.263   6.753
27133SOL    HW183296   0.088  11.265   6.849
27133SOL    HW283297   0.036  11.192   6.727
27134SOL     OW83298  12.817  13.398  10.552
27134SOL    HW183299  12.769  13.479  10.573
27134SOL    HW283300  12.879  13.425  10.484
27135SOL     OW83301   8.453   6.572  10.339
27135SOL    HW183302   8.435   6.493  10.389
27135SOL    HW283303   8.415   6.556  10.253
27136SOL     OW83304   3.899   3.776   2.752
27136SOL    HW183305   3.927   3.686   2.740
27136SOL    HW283306   3.979   3.828   2.740
27137SOL     OW83307  12.750  12.190   9.658
27137SOL    HW183308  12.747  12.243   9.578
27137SOL    HW283309  12.784  12.105   9.630
27138SOL     OW83310   6.615   2.618   7.985
27138SOL    HW183311   6.556   2.587   7.917
27138SOL    HW283312   6.605   2.713   7.983
27139SOL     OW83313  12.764   2.433   3.713
27139SOL    HW183314  12.683   2.426   3.663
27139SOL    HW283315  12.744   2.496   3.782
27140SOL     OW83316   0.457   1.049   3.395
27140SOL    HW183317   0.468   1.042   3.300
27140SOL    HW283318   0.391   0.983   3.416
27141SOL     OW83319  13.199   7.887   6.860
27141SOL    HW183320  13.230   7.930   6.781
27141SOL    HW283321  13.274   7.835   6.890
27142SOL     OW83322   7.337   4.188   8.295
27142SOL    HW183323   7.302   4.258   8.351
27142SOL    HW283324   7.393   4.137   8.354
27143SOL     OW83325   3.035   2.978   3.322
27143SOL    HW183326   3.052   2.965   3.229
27143SOL    HW283327   3.090   3.052   3.347
27144SOL     OW83328   6.671   1.143  14.526
27144SOL    HW183329   6.714   1.067  14.565
27144SOL    HW283330   6.602   1.105  14.471
27145SOL     OW83331   5.461   0.600  12.231
27145SOL    HW183332   5.501   0.598  12.318
27145SOL    HW283333   5.472   0.511  12.197
27146SOL     OW83334   6.093   4.443   1.912
27146SOL    HW183335   6.011   4.394   1.911
27146SOL    HW283336   6.075   4.520   1.859
27147SOL     OW83337   7.941   6.356   0.778
27147SOL    HW183338   7.968   6.420   0.844
27147SOL    HW283339   7.938   6.406   0.696
27148SOL     OW83340   1.504   3.314  12.016
27148SOL    HW183341   1.478   3.242  11.959
27148SOL    HW283342   1.561   3.369  11.961
27149SOL     OW83343  11.235   8.862   0.165
27149SOL    HW183344  11.196   8.781   0.198
27149SOL    HW283345  11.235   8.921   0.240
27150SOL     OW83346   0.148   9.661   3.203
27150SOL    HW183347   0.170   9.569   3.218
27150SOL    HW283348   0.145   9.700   3.290
27151SOL     OW83349   5.049   6.481   1.810
27151SOL    HW183350   5.033   6.388   1.800
27151SOL    HW283351   5.144   6.490   1.803
27152SOL     OW83352   3.727   3.806   9.901
27152SOL    HW183353   3.645   3.843   9.867
27152SOL    HW283354   3.698   3.743   9.967
27153SOL     OW83355   7.518  10.426  10.305
27153SOL    HW183356   7.451  10.357  10.297
27153SOL    HW283357   7.484  10.483  10.373
27154SOL     OW83358   4.834  11.004  12.653
27154SOL    HW183359   4.838  10.987  12.747
27154SOL    HW283360   4.907  10.954  12.617
27155SOL     OW83361  12.112   0.682  12.343
27155SOL    HW183362  12.084   0.702  12.253
27155SOL    HW283363  12.198   0.641  12.332
27156SOL     OW83364   8.915  10.384   0.336
27156SOL    HW183365   8.859  10.391   0.413
27156SOL    HW283366   8.860  10.344   0.269
27157SOL     OW83367  13.441  11.159   9.050
27157SOL    HW183368  13.473  11.226   8.990
27157SOL    HW283369  13.470  11.188   9.137
27158SOL     OW83370  13.815   3.885  13.127
27158SOL    HW183371  13.853   3.827  13.192
27158SOL    HW283372  13.732   3.844  13.103
27159SOL     OW83373   4.751   3.551   5.516
27159SOL    HW183374   4.812   3.625   5.515
27159SOL    HW283375   4.754   3.518   5.606
27160SOL     OW83376   1.360  14.430  14.586
27160SOL    HW183377   1.404  14.346  14.568
27160SOL    HW283378   1.422  14.496  14.557
27161SOL     OW83379   7.960   2.218   1.114
27161SOL    HW183380   7.900   2.273   1.063
27161SOL    HW283381   7.924   2.218   1.202
27162SOL     OW83382   0.819   3.590   5.267
27162SOL    HW183383   0.827   3.567   5.174
27162SOL    HW283384   0.908   3.617   5.292
27163SOL     OW83385  11.083   0.851   7.289
27163SOL    HW183386  11.069   0.790   7.216
27163SOL    HW283387  11.013   0.915   7.279
27164SOL     OW83388   3.037   0.757  10.882
27164SOL    HW183389   3.110   0.798  10.836
27164SOL    HW283390   3.078   0.716  10.959
27165SOL     OW83391   2.383  13.066   5.782
27165SOL    HW183392   2.467  13.078   5.826
27165SOL    HW283393   2.370  12.971   5.781
27166SOL     OW83394   1.614   2.768   6.920
27166SOL    HW183395   1.612   2.687   6.869
27166SOL    HW283396   1.600   2.837   6.855
27167SOL     OW83397   7.519  12.254   3.132
27167SOL    HW183398   7.433  12.211   3.136
27167SOL    HW283399   7.544  12.249   3.040
27168SOL     OW83400   4.390   2.032   4.610
27168SOL    HW183401   4.434   2.095   4.667
27168SOL    HW283402   4.459   1.972   4.583
27169SOL     OW83403  10.670  14.728   2.778
27169SOL    HW183404  10.715  14.660   2.829
27169SOL    HW283405  10.582  14.694   2.766
27170SOL     OW83406  12.617   5.567  13.351
27170SOL    HW183407  12.556   5.511  13.303
27170SOL    HW283408  12.636   5.639  13.291
27171SOL     OW83409  11.145   7.679   6.841
27171SOL    HW183410  11.225   7.732   6.842
27171SOL    HW283411  11.134   7.651   6.932
27172SOL     OW83412  12.440  11.603   6.841
27172SOL    HW183413  12.435  11.590   6.936
27172SOL    HW283414  12.411  11.519   6.804
27173SOL     OW83415   5.562   3.591   7.998
27173SOL    HW183416   5.571   3.608   8.092
27173SOL    HW283417   5.577   3.496   7.990
27174SOL     OW83418  13.055   5.973  13.934
27174SOL    HW183419  13.081   5.971  13.842
27174SOL    HW283420  13.138   5.978  13.982
27175SOL     OW83421   8.804   6.036   5.015
27175SOL    HW183422   8.749   5.979   4.960
27175SOL    HW283423   8.838   6.102   4.954
27176SOL     OW83424  13.698   4.660   2.269
27176SOL    HW183425  13.691   4.622   2.181
27176SOL    HW283426  13.751   4.597   2.318
27177SOL     OW83427   6.896   4.458  12.178
27177SOL    HW183428   6.804   4.476  12.197
27177SOL    HW283429   6.941   4.475  12.261
27178SOL     OW83430   4.107   0.117  13.384
27178SOL    HW183431   4.115   0.033  13.339
27178SOL    HW283432   4.124   0.097  13.476
27179SOL     OW83433   3.674   7.204  10.634
27179SOL    HW183434   3.649   7.284  10.681
27179SOL    HW283435   3.764   7.221  10.605
27180SOL     OW83436   7.561   2.289   5.029
27180SOL    HW183437   7.644   2.284   4.981
27180SOL    HW283438   7.517   2.366   4.993
27181SOL     OW83439   2.014  11.295   3.168
27181SOL    HW183440   1.984  11.345   3.244
27181SOL    HW283441   2.107  11.318   3.160
27182SOL     OW83442   1.841   3.956   4.824
27182SOL    HW183443   1.811   4.019   4.890
27182SOL    HW283444   1.783   3.881   4.834
27183SOL     OW83445  14.022  10.604  10.259
27183SOL    HW183446  13.988  10.583  10.172
27183SOL    HW283447  14.114  10.628  10.244
27184SOL     OW83448  12.376   7.428   7.703
27184SOL    HW183449  12.376   7.335   7.724
27184SOL    HW283450  12.352   7.471   7.785
27185SOL     OW83451  13.168  10.758  10.925
27185SOL    HW183452  13.188  10.676  10.879
27185SOL    HW283453  13.220  10.824  10.878
27186SOL     OW83454  12.636  11.457   8.966
27186SOL    HW183455  12.709  11.466   8.903
27186SOL    HW283456  12.578  11.393   8.924
27187SOL     OW83457   2.535   1.798  11.461
27187SOL    HW183458   2.458   1.854  11.448
27187SOL    HW283459   2.565   1.779  11.372
27188SOL     OW83460   6.652  14.487   9.200
27188SOL    HW183461   6.712  14.523   9.265
27188SOL    HW283462   6.595  14.428   9.249
27189SOL     OW83463  10.383   2.140  11.052
27189SOL    HW183464  10.317   2.204  11.076
27189SOL    HW283465  10.334   2.058  11.044
27190SOL     OW83466  14.407   5.419  13.987
27190SOL    HW183467  14.414   5.348  14.051
27190SOL    HW283468  14.399   5.499  14.040
27191SOL     OW83469   5.322  11.631  13.308
27191SOL    HW183470   5.345  11.663  13.221
27191SOL    HW283471   5.230  11.654  13.319
27192SOL     OW83472   2.184   8.832  10.059
27192SOL    HW183473   2.277   8.819  10.040
27192SOL    HW283474   2.142   8.831   9.974
27193SOL     OW83475   7.355   1.280  12.800
27193SOL    HW183476   7.403   1.339  12.858
27193SOL    HW283477   7.284   1.334  12.764
27194SOL     OW83478  13.479   6.953   7.318
27194SOL    HW183479  13.460   6.890   7.388
27194SOL    HW283480  13.414   6.934   7.250
27195SOL     OW83481   0.199  10.382   4.078
27195SOL    HW183482   0.181  10.433   4.157
27195SOL    HW283483   0.269  10.322   4.103
27196SOL     OW83484   3.360  12.063   0.548
27196SOL    HW183485   3.309  12.043   0.626
27196SOL    HW283486   3.410  12.142   0.572
27197SOL     OW83487   0.984  14.157   9.234
27197SOL    HW183488   1.043  14.208   9.178
27197SOL    HW283489   1.023  14.069   9.235
27198SOL     OW83490  11.718   4.576  11.219
27198SOL    HW183491  11.775   4.547  11.291
27198SOL    HW283492  11.655   4.504  11.209
27199SOL     OW83493   4.229  14.276  10.257
27199SOL    HW183494   4.283  14.225  10.317
27199SOL    HW283495   4.212  14.217  10.184
27200SOL     OW83496  10.997   6.405   6.749
27200SOL    HW183497  10.914   6.432   6.712
27200SOL    HW283498  11.058   6.476   6.726
27201SOL     OW83499   7.164   4.942  12.578
27201SOL    HW183500   7.220   4.961  12.503
27201SOL    HW283501   7.094   4.887  12.544
27202SOL     OW83502  12.556   2.566  14.016
27202SOL    HW183503  12.509   2.598  13.940
27202SOL    HW283504  12.488   2.538  14.077
27203SOL     OW83505   0.820   4.885   1.368
27203SOL    HW183506   0.878   4.836   1.309
27203SOL    HW283507   0.840   4.850   1.455
27204SOL     OW83508  12.114   3.580   5.677
27204SOL    HW183509  12.186   3.578   5.614
27204SOL    HW283510  12.147   3.632   5.750
27205SOL     OW83511   1.740   0.152  12.573
27205SOL    HW183512   1.830   0.154  12.540
27205SOL    HW283513   1.749   0.130  12.665
27206SOL     OW83514   9.902   2.778  14.452
27206SOL    HW183515   9.993   2.806  14.462
27206SOL    HW283516   9.884   2.725  14.530
27207SOL     OW83517  14.295   4.204   1.010
27207SOL    HW183518  14.221   4.248   0.970
27207SOL    HW283519  14.257   4.148   1.077
27208SOL     OW83520   9.436  14.124   1.897
27208SOL    HW183521   9.516  14.117   1.949
27208SOL    HW283522   9.457  14.081   1.814
27209SOL     OW83523   0.978   1.032  12.432
27209SOL    HW183524   1.023   0.949  12.415
27209SOL    HW283525   0.958   1.029  12.526
27210SOL     OW83526   5.896  10.647   3.940
27210SOL    HW183527   5.871  10.592   4.015
27210SOL    HW283528   5.923  10.584   3.873
27211SOL     OW83529   3.641   4.914   0.740
27211SOL    HW183530   3.623   4.964   0.819
27211SOL    HW283531   3.569   4.852   0.733
27212SOL     OW83532   2.473   0.442  10.275
27212SOL    HW183533   2.501   0.372  10.217
27212SOL    HW283534   2.537   0.441  10.347
27213SOL     OW83535   9.222  14.333   5.021
27213SOL    HW183536   9.145  14.306   5.071
27213SOL    HW283537   9.266  14.250   4.999
27214SOL     OW83538  10.310   4.208   2.347
27214SOL    HW183539  10.307   4.237   2.438
27214SOL    HW283540  10.329   4.288   2.297
27215SOL     OW83541   2.818   2.844   5.903
27215SOL    HW183542   2.813   2.851   5.998
27215SOL    HW283543   2.796   2.931   5.870
27216SOL     OW83544   1.409   7.862   0.923
27216SOL    HW183545   1.326   7.906   0.943
27216SOL    HW283546   1.473   7.904   0.980
27217SOL     OW83547   1.606  10.039   7.636
27217SOL    HW183548   1.598   9.956   7.589
27217SOL    HW283549   1.687  10.030   7.686
27218SOL     OW83550   1.875   1.074  13.047
27218SOL    HW183551   1.944   1.098  12.985
27218SOL    HW283552   1.882   1.138  13.117
27219SOL     OW83553   2.182  12.299  10.024
27219SOL    HW183554   2.240  12.292   9.948
27219SOL    HW283555   2.101  12.335   9.988
27220SOL     OW83556   3.057   4.273   5.022
27220SOL    HW183557   3.143   4.284   4.982
27220SOL    HW283558   3.032   4.361   5.050
27221SOL     OW83559   0.013  11.669   5.947
27221SOL    HW183560  14.803  11.672   5.908
27221SOL    HW283561   0.047  11.583   5.923
27222SOL     OW83562   4.823   9.137  10.096
27222SOL    HW183563   4.737   9.177  10.110
27222SOL    HW283564   4.807   9.043  10.103
27223SOL     OW83565   7.371   1.272  12.018
27223SOL    HW183566   7.292   1.234  12.056
27223SOL    HW283567   7.346   1.294  11.928
27224SOL     OW83568  11.255   8.814   8.856
27224SOL    HW183569  11.164   8.831   8.832
27224SOL    HW283570  11.299   8.792   8.774
27225SOL     OW83571  10.459  13.427   5.618
27225SOL    HW183572  10.406  13.487   5.566
27225SOL    HW283573  10.401  13.397   5.688
27226SOL     OW83574  10.864   6.063   3.241
27226SOL    HW183575  10.852   5.968   3.249
27226SOL    HW283576  10.776   6.096   3.220
27227SOL     OW83577  10.883   7.595   4.967
27227SOL    HW183578  10.952   7.543   4.925
27227SOL    HW283579  10.805   7.540   4.962
27228SOL     OW83580  14.779  10.487  14.327
27228SOL    HW183581  14.705  10.498  14.387
27228SOL    HW283582  14.743  10.509  14.241
27229SOL     OW83583   5.319   4.097   7.175
27229SOL    HW183584   5.315   4.036   7.248
27229SOL    HW283585   5.411   4.122   7.169
27230SOL     OW83586   0.525  12.718  14.722
27230SOL    HW183587   0.435  12.689  14.705
27230SOL    HW283588   0.520  12.813  14.723
27231SOL     OW83589  11.922  10.962   6.011
27231SOL    HW183590  11.963  10.972   5.925
27231SOL    HW283591  11.868  10.883   6.003
27232SOL     OW83592   8.467   5.729   5.402
27232SOL    HW183593   8.475   5.732   5.307
27232SOL    HW283594   8.393   5.670   5.418
27233SOL     OW83595   6.717  14.417  13.878
27233SOL    HW183596   6.788  14.457  13.828
27233SOL    HW283597   6.761  14.356  13.938
27234SOL     OW83598  11.810   9.975  10.696
27234SOL    HW183599  11.833   9.882  10.694
27234SOL    HW283600  11.881  10.018  10.646
27235SOL     OW83601  14.299   3.454   5.859
27235SOL    HW183602  14.335   3.365   5.852
27235SOL    HW283603  14.210   3.446   5.825
27236SOL     OW83604   7.803   5.522  13.206
27236SOL    HW183605   7.867   5.471  13.254
27236SOL    HW283606   7.778   5.593  13.266
27237SOL     OW83607  11.453   2.073  14.729
27237SOL    HW183608  11.534   2.125  14.725
27237SOL    HW283609  11.395   2.123  14.786
27238SOL     OW83610   4.987   5.592   9.440
27238SOL    HW183611   5.016   5.596   9.532
27238SOL    HW283612   5.052   5.537   9.397
27239SOL     OW83613  13.116  10.629  14.694
27239SOL    HW183614  13.203  10.666  14.702
27239SOL    HW283615  13.126  10.556  14.633
27240SOL     OW83616  12.195   7.858   9.961
27240SOL    HW183617  12.275   7.908   9.948
27240SOL    HW283618  12.153   7.855   9.875
27241SOL     OW83619   3.307  13.426   7.081
27241SOL    HW183620   3.220  13.464   7.068
27241SOL    HW283621   3.301  13.380   7.165
27242SOL     OW83622   1.893   3.464   1.030
27242SOL    HW183623   1.839   3.394   0.993
27242SOL    HW283624   1.847   3.545   1.006
27243SOL     OW83625  14.003  13.200   7.112
27243SOL    HW183626  13.921  13.173   7.154
27243SOL    HW283627  13.991  13.176   7.020
27244SOL     OW83628   8.320   3.012   2.638
27244SOL    HW183629   8.322   2.993   2.732
27244SOL    HW283630   8.278   2.935   2.599
27245SOL     OW83631   9.436  11.051   1.970
27245SOL    HW183632   9.450  10.971   1.919
27245SOL    HW283633   9.347  11.042   2.004
27246SOL     OW83634   5.319  14.092   4.177
27246SOL    HW183635   5.250  14.043   4.133
27246SOL    HW283636   5.347  14.036   4.249
27247SOL     OW83637   2.921   3.312   0.458
27247SOL    HW183638   2.936   3.402   0.486
27247SOL    HW283639   2.826   3.307   0.445
27248SOL     OW83640   9.210   4.546   8.288
27248SOL    HW183641   9.300   4.523   8.262
27248SOL    HW283642   9.167   4.461   8.300
27249SOL     OW83643   1.310   1.024   1.950
27249SOL    HW183644   1.246   0.964   1.986
27249SOL    HW283645   1.341   0.982   1.870
27250SOL     OW83646   8.557  10.878   5.352
27250SOL    HW183647   8.651  10.876   5.338
27250SOL    HW283648   8.523  10.801   5.306
27251SOL     OW83649   5.952   4.278  12.609
27251SOL    HW183650   6.015   4.349  12.598
27251SOL    HW283651   6.005   4.202  12.634
27252SOL     OW83652   2.050   1.176   5.653
27252SOL    HW183653   2.006   1.140   5.575
27252SOL    HW283654   1.985   1.169   5.723
27253SOL     OW83655   4.918   7.997   5.846
27253SOL    HW183656   4.856   8.067   5.825
27253SOL    HW283657   4.862   7.923   5.869
27254SOL     OW83658   1.284   8.035  11.540
27254SOL    HW183659   1.361   8.090  11.554
27254SOL    HW283660   1.306   7.952  11.583
27255SOL     OW83661   3.671   4.305   1.875
27255SOL    HW183662   3.735   4.361   1.920
27255SOL    HW283663   3.599   4.364   1.854
27256SOL     OW83664  14.403  11.744   1.216
27256SOL    HW183665  14.350  11.676   1.258
27256SOL    HW283666  14.472  11.695   1.170
27257SOL     OW83667   4.089   9.523   0.066
27257SOL    HW183668   4.007   9.475   0.064
27257SOL    HW283669   4.126   9.503   0.152
27258SOL     OW83670   3.850  11.299  12.675
27258SOL    HW183671   3.836  11.212  12.715
27258SOL    HW283672   3.769  11.347  12.694
27259SOL     OW83673   5.718   1.774   4.545
27259SOL    HW183674   5.639   1.737   4.506
27259SOL    HW283675   5.692   1.795   4.635
27260SOL     OW83676   9.086   0.538   5.570
27260SOL    HW183677   9.179   0.561   5.569
27260SOL    HW283678   9.080   0.465   5.633
27261SOL     OW83679   2.697  10.682   8.805
27261SOL    HW183680   2.725  10.617   8.869
27261SOL    HW283681   2.715  10.766   8.848
27262SOL     OW83682   6.327   5.371  10.501
27262SOL    HW183683   6.283   5.417  10.573
27262SOL    HW283684   6.255   5.334  10.449
27263SOL     OW83685  14.752   8.204   3.150
27263SOL    HW183686  14.678   8.154   3.115
27263SOL    HW283687  14.826   8.144   3.142
27264SOL     OW83688   2.054  10.798   9.154
27264SOL    HW183689   2.124  10.772   9.214
27264SOL    HW283690   1.975  10.796   9.207
27265SOL     OW83691   2.065   8.627  13.152
27265SOL    HW183692   2.154   8.591  13.143
27265SOL    HW283693   2.042   8.656  13.064
27266SOL     OW83694   1.819  12.779  14.733
27266SOL    HW183695   1.876  12.838  14.783
27266SOL    HW283696   1.802  12.706  14.792
27267SOL     OW83697   7.404   6.831   1.195
27267SOL    HW183698   7.474   6.832   1.261
27267SOL    HW283699   7.449   6.838   1.111
27268SOL     OW83700   6.163   2.272   8.974
27268SOL    HW183701   6.180   2.219   9.052
27268SOL    HW283702   6.240   2.259   8.919
27269SOL     OW83703  14.040  11.874  11.914
27269SOL    HW183704  13.970  11.904  11.972
27269SOL    HW283705  13.996  11.819  11.849
27270SOL     OW83706   9.833   4.361   2.094
27270SOL    HW183707   9.849   4.403   2.009
27270SOL    HW283708   9.895   4.404   2.153
27271SOL     OW83709  11.465   7.560   7.340
27271SOL    HW183710  11.534   7.514   7.293
27271SOL    HW283711  11.486   7.548   7.432
27272SOL     OW83712   9.152  12.420  10.942
27272SOL    HW183713   9.099  12.459  11.011
27272SOL    HW283714   9.220  12.485  10.924
27273SOL     OW83715  13.840   0.665   3.065
27273SOL    HW183716  13.862   0.674   2.973
27273SOL    HW283717  13.923   0.673   3.111
27274SOL     OW83718   6.918   7.492   7.722
27274SOL    HW183719   6.835   7.499   7.676
27274SOL    HW283720   6.985   7.504   7.655
27275SOL     OW83721   1.884  11.357  14.719
27275SOL    HW183722   1.818  11.302  14.679
27275SOL    HW283723   1.836  11.410  14.783
27276SOL     OW83724  13.341  14.563   7.757
27276SOL    HW183725  13.257  14.524   7.781
27276SOL    HW283726  13.334  14.654   7.785
27277SOL     OW83727   0.066   4.386   0.161
27277SOL    HW183728   0.093   4.427   0.079
27277SOL    HW283729   0.130   4.415   0.225
27278SOL     OW83730   4.692   7.010   8.848
27278SOL    HW183731   4.694   6.926   8.893
27278SOL    HW283732   4.640   6.994   8.768
27279SOL     OW83733   0.535   9.410   8.203
27279SOL    HW183734   0.456   9.460   8.226
27279SOL    HW283735   0.534   9.335   8.263
27280SOL     OW83736   6.569   3.914   6.520
27280SOL    HW183737   6.560   3.963   6.438
27280SOL    HW283738   6.640   3.957   6.567
27281SOL     OW83739   2.483   3.482   4.634
27281SOL    HW183740   2.547   3.533   4.684
27281SOL    HW283741   2.419   3.547   4.605
27282SOL     OW83742  13.755  10.731   1.632
27282SOL    HW183743  13.767  10.772   1.546
27282SOL    HW283744  13.705  10.651   1.613
27283SOL     OW83745   0.169   3.129   8.666
27283SOL    HW183746   0.225   3.161   8.736
27283SOL    HW283747   0.129   3.050   8.702
27284SOL     OW83748  11.796   2.612   0.313
27284SOL    HW183749  11.801   2.517   0.299
27284SOL    HW283750  11.730   2.642   0.250
27285SOL     OW83751   7.256  14.540   8.475
27285SOL    HW183752   7.343  14.573   8.450
27285SOL    HW283753   7.196  14.611   8.453
27286SOL     OW83754  12.073   8.911   3.807
27286SOL    HW183755  12.072   9.004   3.830
27286SOL    HW283756  12.076   8.866   3.891
27287SOL     OW83757   9.364   6.026   5.840
27287SOL    HW183758   9.433   6.077   5.798
27287SOL    HW283759   9.284   6.056   5.798
27288SOL     OW83760   4.714   0.086   4.922
27288SOL    HW183761   4.784   0.107   4.861
27288SOL    HW283762   4.723   0.150   4.992
27289SOL     OW83763   1.424  12.591   7.712
27289SOL    HW183764   1.429  12.496   7.711
27289SOL    HW283765   1.381  12.614   7.630
27290SOL     OW83766  11.267   7.088  14.244
27290SOL    HW183767  11.288   6.997  14.262
27290SOL    HW283768  11.322   7.138  14.304
27291SOL     OW83769  10.338   1.867   5.369
27291SOL    HW183770  10.431   1.843   5.367
27291SOL    HW283771  10.321   1.901   5.281
27292SOL     OW83772   3.979   9.394   8.088
27292SOL    HW183773   4.030   9.460   8.135
27292SOL    HW283774   3.980   9.317   8.145
27293SOL     OW83775   1.193   7.343   9.949
27293SOL    HW183776   1.116   7.398   9.932
27293SOL    HW283777   1.195   7.283   9.874
27294SOL     OW83778   1.636  13.227   9.064
27294SOL    HW183779   1.548  13.193   9.081
27294SOL    HW283780   1.624  13.321   9.054
27295SOL     OW83781   6.096  10.341  13.320
27295SOL    HW183782   6.030  10.286  13.364
27295SOL    HW283783   6.179  10.315  13.359
27296SOL     OW83784   3.296   3.961  12.617
27296SOL    HW183785   3.367   3.899  12.628
27296SOL    HW283786   3.337   4.038  12.577
27297SOL     OW83787   1.591   6.338   3.784
27297SOL    HW183788   1.538   6.343   3.864
27297SOL    HW283789   1.609   6.245   3.773
27298SOL     OW83790   6.719   2.569   0.396
27298SOL    HW183791   6.624   2.558   0.385
27298SOL    HW283792   6.731   2.664   0.402
27299SOL     OW83793  12.276   6.157   4.792
27299SOL    HW183794  12.206   6.147   4.857
27299SOL    HW283795  12.355   6.173   4.843
27300SOL     OW83796   0.252   0.239   0.718
27300SOL    HW183797   0.225   0.327   0.691
27300SOL    HW283798   0.342   0.231   0.688
27301SOL     OW83799   2.063  14.455   6.586
27301SOL    HW183800   2.083  14.547   6.573
27301SOL    HW283801   1.968  14.451   6.591
27302SOL     OW83802   1.666   9.799   8.320
27302SOL    HW183803   1.708   9.715   8.338
27302SOL    HW283804   1.617   9.784   8.239
27303SOL     OW83805   5.444  10.539   9.953
27303SOL    HW183806   5.527  10.505   9.987
27303SOL    HW283807   5.405  10.586  10.027
27304SOL     OW83808   1.507   8.913   0.437
27304SOL    HW183809   1.547   8.971   0.502
27304SOL    HW283810   1.546   8.940   0.354
27305SOL     OW83811   6.521   7.535   4.785
27305SOL    HW183812   6.565   7.529   4.700
27305SOL    HW283813   6.533   7.626   4.812
27306SOL     OW83814  14.216   8.671   0.823
27306SOL    HW183815  14.203   8.724   0.902
27306SOL    HW283816  14.274   8.600   0.851
27307SOL     OW83817   7.131  12.835   5.871
27307SOL    HW183818   7.125  12.742   5.893
27307SOL    HW283819   7.220  12.860   5.895
27308SOL     OW83820  14.602   6.031  12.768
27308SOL    HW183821  14.587   5.945  12.808
27308SOL    HW283822  14.514   6.064  12.751
27309SOL     OW83823   5.994  11.616   6.865
27309SOL    HW183824   6.015  11.540   6.812
27309SOL    HW283825   6.079  11.653   6.888
27310SOL     OW83826  12.016   1.156   6.255
27310SOL    HW183827  11.991   1.225   6.316
27310SOL    HW283828  11.990   1.075   6.299
27311SOL     OW83829  10.728  12.217   7.394
27311SOL    HW183830  10.699  12.133   7.428
27311SOL    HW283831  10.652  12.274   7.403
27312SOL     OW83832   5.170   7.646   2.346
27312SOL    HW183833   5.089   7.599   2.368
27312SOL    HW283834   5.211   7.592   2.279
27313SOL     OW83835  13.225   8.481   9.824
27313SOL    HW183836  13.203   8.455   9.913
27313SOL    HW283837  13.200   8.573   9.819
27314SOL     OW83838  12.970   3.520   9.109
27314SOL    HW183839  12.975   3.562   9.195
27314SOL    HW283840  12.884   3.478   9.109
27315SOL     OW83841  12.709  10.520  11.565
27315SOL    HW183842  12.682  10.438  11.605
27315SOL    HW283843  12.655  10.587  11.607
27316SOL     OW83844   5.217   5.240   5.463
27316SOL    HW183845   5.306   5.276   5.470
27316SOL    HW283846   5.163   5.315   5.440
27317SOL     OW83847   6.835   7.844   6.960
27317SOL    HW183848   6.787   7.786   6.901
27317SOL    HW283849   6.923   7.806   6.965
27318SOL     OW83850   2.893   9.762  10.588
27318SOL    HW183851   2.899   9.685  10.531
27318SOL    HW283852   2.961   9.749  10.653
27319SOL     OW83853   3.158   7.401   8.382
27319SOL    HW183854   3.096   7.470   8.357
27319SOL    HW283855   3.204   7.378   8.301
27320SOL     OW83856   3.923  14.859  13.744
27320SOL    HW183857   3.891   0.068  13.769
27320SOL    HW283858   3.854  14.824  13.687
27321SOL     OW83859   9.004   6.936   6.575
27321SOL    HW183860   8.942   6.917   6.645
27321SOL    HW283861   8.962   7.005   6.523
27322SOL     OW83862  12.370   8.151   9.955
27322SOL    HW183863  12.435   8.216   9.931
27322SOL    HW283864  12.287   8.199   9.956
27323SOL     OW83865   0.516   3.456   3.409
27323SOL    HW183866   0.552   3.544   3.397
27323SOL    HW283867   0.431   3.470   3.451
27324SOL     OW83868   9.721   3.037   7.204
27324SOL    HW183869   9.625   3.040   7.205
27324SOL    HW283870   9.742   2.964   7.146
27325SOL     OW83871   5.097   8.621   9.396
27325SOL    HW183872   5.145   8.539   9.403
27325SOL    HW283873   5.099   8.658   9.484
27326SOL     OW83874  11.195   5.969   8.350
27326SOL    HW183875  11.279   5.932   8.321
27326SOL    HW283876  11.213   6.000   8.439
27327SOL     OW83877   9.974   4.748  14.280
27327SOL    HW183878   9.975   4.844  14.278
27327SOL    HW283879   9.881   4.725  14.283
27328SOL     OW83880   7.975   2.307   1.644
27328SOL    HW183881   7.887   2.295   1.681
27328SOL    HW283882   7.989   2.229   1.591
27329SOL     OW83883  11.775  11.532   5.649
27329SOL    HW183884  11.687  11.504   5.673
27329SOL    HW283885  11.830  11.509   5.724
27330SOL     OW83886  10.119  11.538   5.579
27330SOL    HW183887  10.057  11.528   5.507
27330SOL    HW283888  10.066  11.568   5.653
27331SOL     OW83889  14.317  11.028  11.579
27331SOL    HW183890  14.405  11.021  11.542
27331SOL    HW283891  14.262  10.977  11.521
27332SOL     OW83892  10.842  11.756   6.050
27332SOL    HW183893  10.903  11.823   6.082
27332SOL    HW283894  10.851  11.683   6.111
27333SOL     OW83895   7.984   0.298  10.481
27333SOL    HW183896   7.932   0.283  10.560
27333SOL    HW283897   8.054   0.234  10.486
27334SOL     OW83898  13.570  14.694   4.645
27334SOL    HW183899  13.653  14.652   4.669
27334SOL    HW283900  13.533  14.636   4.578
27335SOL     OW83901  11.141   5.443   4.491
27335SOL    HW183902  11.229   5.481   4.481
27335SOL    HW283903  11.117   5.417   4.402
27336SOL     OW83904   2.226  11.086   7.692
27336SOL    HW183905   2.297  11.149   7.686
27336SOL    HW283906   2.245  11.035   7.771
27337SOL     OW83907  12.522  14.701   3.621
27337SOL    HW183908  12.447  14.688   3.563
27337SOL    HW283909  12.593  14.652   3.580
27338SOL     OW83910   5.580   1.808   0.105
27338SOL    HW183911   5.658   1.859   0.084
27338SOL    HW283912   5.507   1.866   0.083
27339SOL     OW83913   6.131   1.099   6.069
27339SOL    HW183914   6.061   1.035   6.081
27339SOL    HW283915   6.085   1.178   6.039
27340SOL     OW83916   8.953  12.520   6.581
27340SOL    HW183917   8.863  12.489   6.577
27340SOL    HW283918   8.982  12.523   6.490
27341SOL     OW83919  13.044   5.685   5.112
27341SOL    HW183920  13.001   5.770   5.118
27341SOL    HW283921  12.985   5.625   5.156
27342SOL     OW83922   7.215   4.774  11.975
27342SOL    HW183923   7.175   4.822  12.048
27342SOL    HW283924   7.167   4.692  11.971
27343SOL     OW83925   3.432   7.256  10.860
27343SOL    HW183926   3.398   7.179  10.815
27343SOL    HW283927   3.419   7.328  10.798
27344SOL     OW83928   5.792  13.629   2.201
27344SOL    HW183929   5.806  13.646   2.107
27344SOL    HW283930   5.698  13.620   2.210
27345SOL     OW83931   4.572   1.711  11.412
27345SOL    HW183932   4.522   1.631  11.431
27345SOL    HW283933   4.664   1.684  11.419
27346SOL     OW83934  14.715   4.902  14.048
27346SOL    HW183935  14.724   4.964  13.976
27346SOL    HW283936  14.648   4.840  14.018
27347SOL     OW83937   3.169   7.817  12.499
27347SOL    HW183938   3.216   7.899  12.491
27347SOL    HW283939   3.129   7.803  12.413
27348SOL     OW83940   6.170   8.326   3.066
27348SOL    HW183941   6.134   8.249   3.109
27348SOL    HW283942   6.261   8.303   3.049
27349SOL     OW83943  10.915   0.036   1.619
27349SOL    HW183944  10.912   0.016   1.712
27349SOL    HW283945  10.951   0.125   1.615
27350SOL     OW83946   0.733   0.563   4.006
27350SOL    HW183947   0.719   0.503   4.080
27350SOL    HW283948   0.813   0.531   3.964
27351SOL     OW83949   2.856   7.148   6.929
27351SOL    HW183950   2.792   7.129   6.861
27351SOL    HW283951   2.939   7.115   6.895
27352SOL     OW83952   0.737  11.452   4.320
27352SOL    HW183953   0.780  11.369   4.338
27352SOL    HW283954   0.806  11.518   4.331
27353SOL     OW83955  14.475   5.636   7.210
27353SOL    HW183956  14.429   5.571   7.157
27353SOL    HW283957  14.475   5.601   7.299
27354SOL     OW83958   9.824   9.243  14.034
27354SOL    HW183959   9.877   9.322  14.026
27354SOL    HW283960   9.747   9.261  13.980
27355SOL     OW83961  10.630  14.822   2.093
27355SOL    HW183962  10.605   0.034   2.118
27355SOL    HW283963  10.547  14.782   2.065
27356SOL     OW83964   3.740   1.914   8.839
27356SOL    HW183965   3.682   1.860   8.893
27356SOL    HW283966   3.757   1.861   8.762
27357SOL     OW83967   4.242  14.315   8.599
27357SOL    HW183968   4.184  14.261   8.545
27357SOL    HW283969   4.322  14.322   8.548
27358SOL     OW83970   8.834   1.209  10.157
27358SOL    HW183971   8.821   1.159  10.237
27358SOL    HW283972   8.890   1.154  10.102
27359SOL     OW83973  14.438   2.132   8.567
27359SOL    HW183974  14.444   2.036   8.560
27359SOL    HW283975  14.421   2.147   8.660
27360SOL     OW83976   5.780  14.225  11.089
27360SOL    HW183977   5.803  14.150  11.034
27360SOL    HW283978   5.834  14.296  11.056
27361SOL     OW83979   3.691   3.970   5.042
27361SOL    HW183980   3.665   3.901   5.103
27361SOL    HW283981   3.761   4.017   5.088
27362SOL     OW83982   4.587   6.966   2.403
27362SOL    HW183983   4.498   6.972   2.437
27362SOL    HW283984   4.643   6.978   2.480
27363SOL     OW83985   5.850   2.608  12.159
27363SOL    HW183986   5.801   2.557  12.223
27363SOL    HW283987   5.783   2.642  12.099
27364SOL     OW83988   2.721   2.780  11.082
27364SOL    HW183989   2.691   2.863  11.045
27364SOL    HW283990   2.724   2.720  11.008
27365SOL     OW83991   0.928   7.100   3.515
27365SOL    HW183992   0.868   7.028   3.532
27365SOL    HW283993   1.013   7.068   3.546
27366SOL     OW83994   1.386   4.858   0.441
27366SOL    HW183995   1.421   4.867   0.353
27366SOL    HW283996   1.309   4.915   0.443
27367SOL     OW83997  14.852   6.184  13.979
27367SOL    HW183998  14.772   6.162  13.930
27367SOL    HW283999  14.848   6.130  14.058
27368SOL     OW84000   7.178   1.899   6.187
27368SOL    HW184001   7.178   1.950   6.106
27368SOL    HW284002   7.141   1.958   6.253
27369SOL     OW84003   3.612  10.737   5.689
27369SOL    HW184004   3.561  10.675   5.741
27369SOL    HW284005   3.550  10.774   5.626
27370SOL     OW84006   0.084  13.694  11.748
27370SOL    HW184007   0.159  13.753  11.759
27370SOL    HW284008   0.115  13.626  11.688
27371SOL     OW84009  10.959  12.649  12.285
27371SOL    HW184010  10.968  12.654  12.190
27371SOL    HW284011  10.980  12.559  12.307
27372SOL     OW84012  14.311   0.512   7.724
27372SOL    HW184013  14.316   0.451   7.798
27372SOL    HW284014  14.393   0.560   7.725
27373SOL     OW84015  10.556   4.905   6.579
27373SOL    HW184016  10.643   4.866   6.585
27373SOL    HW284017  10.534   4.928   6.669
27374SOL     OW84018   1.400   2.974   1.398
27374SOL    HW184019   1.427   2.891   1.358
27374SOL    HW284020   1.417   3.039   1.329
27375SOL     OW84021   8.371  14.497  10.784
27375SOL    HW184022   8.302  14.479  10.848
27375SOL    HW284023   8.348  14.583  10.747
27376SOL     OW84024  10.741   4.759  13.926
27376SOL    HW184025  10.648   4.738  13.939
27376SOL    HW284026  10.773   4.689  13.870
27377SOL     OW84027  14.534   7.547  11.120
27377SOL    HW184028  14.483   7.549  11.040
27377SOL    HW284029  14.550   7.453  11.135
27378SOL     OW84030   1.867   5.768  12.319
27378SOL    HW184031   1.809   5.711  12.269
27378SOL    HW284032   1.818   5.788  12.399
27379SOL     OW84033   6.366   1.628   9.404
27379SOL    HW184034   6.403   1.698   9.458
27379SOL    HW284035   6.428   1.555   9.413
27380SOL     OW84036   9.506   4.238   4.238
27380SOL    HW184037   9.561   4.316   4.233
27380SOL    HW284038   9.417   4.270   4.220
27381SOL     OW84039   2.900   6.640   5.180
27381SOL    HW184040   2.973   6.580   5.162
27381SOL    HW284041   2.940   6.710   5.232
27382SOL     OW84042   6.204   4.382  13.764
27382SOL    HW184043   6.226   4.475  13.758
27382SOL    HW284044   6.165   4.360  13.679
27383SOL     OW84045   9.615  11.627  11.583
27383SOL    HW184046   9.579  11.643  11.670
27383SOL    HW284047   9.693  11.574  11.599
27384SOL     OW84048   7.119  11.373   7.675
27384SOL    HW184049   7.091  11.464   7.687
27384SOL    HW284050   7.166  11.352   7.756
27385SOL     OW84051   3.043   1.370   7.367
27385SOL    HW184052   3.028   1.436   7.434
27385SOL    HW284053   3.059   1.289   7.416
27386SOL     OW84054  10.942   6.186   9.751
27386SOL    HW184055  11.035   6.202   9.735
27386SOL    HW284056  10.938   6.158   9.843
27387SOL     OW84057   6.461   1.940   0.016
27387SOL    HW184058   6.480   1.982   0.100
27387SOL    HW284059   6.470   1.846   0.034
27388SOL     OW84060   3.818  12.009  10.311
27388SOL    HW184061   3.752  11.962  10.362
27388SOL    HW284062   3.767  12.072  10.260
27389SOL     OW84063  10.256   0.627   4.972
27389SOL    HW184064  10.276   0.544   5.013
27389SOL    HW284065  10.161   0.636   4.978
27390SOL     OW84066   0.289  11.853  10.155
27390SOL    HW184067   0.275  11.941  10.190
27390SOL    HW284068   0.315  11.801  10.232
27391SOL     OW84069   5.992   5.009   6.156
27391SOL    HW184070   6.050   5.040   6.086
27391SOL    HW284071   5.920   5.072   6.157
27392SOL     OW84072   2.291   0.434   5.641
27392SOL    HW184073   2.242   0.501   5.689
27392SOL    HW284074   2.259   0.351   5.677
27393SOL     OW84075  11.765   3.097   7.361
27393SOL    HW184076  11.811   3.061   7.437
27393SOL    HW284077  11.818   3.072   7.286
27394SOL     OW84078   2.451   2.865   2.681
27394SOL    HW184079   2.469   2.941   2.626
27394SOL    HW284080   2.500   2.794   2.639
27395SOL     OW84081   6.975   8.709  12.974
27395SOL    HW184082   7.049   8.757  13.011
27395SOL    HW284083   6.988   8.715  12.879
27396SOL     OW84084  10.791  14.473   3.391
27396SOL    HW184085  10.731  14.441   3.325
27396SOL    HW284086  10.878  14.458   3.354
27397SOL     OW84087   5.449   6.662   2.636
27397SOL    HW184088   5.395   6.741   2.627
27397SOL    HW284089   5.493   6.654   2.552
27398SOL     OW84090  12.812  13.345   8.103
27398SOL    HW184091  12.797  13.330   8.196
27398SOL    HW284092  12.818  13.258   8.064
27399SOL     OW84093   4.321   4.107   2.028
27399SOL    HW184094   4.330   4.055   1.948
27399SOL    HW284095   4.397   4.085   2.080
27400SOL     OW84096   3.450  14.752   2.330
27400SOL    HW184097   3.474  14.765   2.239
27400SOL    HW284098   3.452  14.657   2.342
27401SOL     OW84099   9.055  11.438  13.545
27401SOL    HW184100   9.103  11.362  13.578
27401SOL    HW284101   9.121  11.489  13.497
27402SOL     OW84102   8.472  11.158   2.806
27402SOL    HW184103   8.534  11.087   2.787
27402SOL    HW284104   8.402  11.146   2.741
27403SOL     OW84105  11.568   1.696  13.221
27403SOL    HW184106  11.481   1.720  13.253
27403SOL    HW284107  11.558   1.691  13.126
27404SOL     OW84108   8.281   0.744   9.324
27404SOL    HW184109   8.277   0.714   9.233
27404SOL    HW284110   8.348   0.812   9.324
27405SOL     OW84111   4.883   3.384  11.206
27405SOL    HW184112   4.871   3.410  11.298
27405SOL    HW284113   4.974   3.356  11.201
27406SOL     OW84114   7.560   2.067   9.686
27406SOL    HW184115   7.498   2.069   9.758
27406SOL    HW284116   7.569   2.158   9.659
27407SOL     OW84117  12.973  11.428   1.452
27407SOL    HW184118  12.930  11.408   1.535
27407SOL    HW284119  12.910  11.401   1.385
27408SOL     OW84120   4.142   4.745   1.674
27408SOL    HW184121   4.229   4.727   1.711
27408SOL    HW284122   4.096   4.661   1.679
27409SOL     OW84123   8.952   1.898  12.508
27409SOL    HW184124   8.914   1.949  12.436
27409SOL    HW284125   9.011   1.958  12.552
27410SOL     OW84126   3.751  14.718   7.571
27410SOL    HW184127   3.774  14.781   7.503
27410SOL    HW284128   3.816  14.732   7.639
27411SOL     OW84129  14.718  10.017  12.778
27411SOL    HW184130  14.622  10.016  12.779
27411SOL    HW284131  14.743   9.945  12.719
27412SOL     OW84132   2.645   8.217   3.102
27412SOL    HW184133   2.609   8.278   3.038
27412SOL    HW284134   2.628   8.130   3.066
27413SOL     OW84135   0.468   7.023   8.886
27413SOL    HW184136   0.475   7.113   8.919
27413SOL    HW284137   0.375   7.002   8.897
27414SOL     OW84138   0.067   7.349   6.892
27414SOL    HW184139   0.107   7.297   6.822
27414SOL    HW284140   0.050   7.286   6.962
27415SOL     OW84141   2.797  14.793   9.469
27415SOL    HW184142   2.746  14.756   9.397
27415SOL    HW284143   2.888  14.790   9.437
27416SOL     OW84144  13.235   6.118   5.225
27416SOL    HW184145  13.185   6.190   5.188
27416SOL    HW284146  13.234   6.135   5.320
27417SOL     OW84147   5.448  14.696   6.953
27417SOL    HW184148   5.505  14.655   7.019
27417SOL    HW284149   5.494  14.684   6.870
27418SOL     OW84150  14.101   4.556   1.630
27418SOL    HW184151  14.126   4.582   1.541
27418SOL    HW284152  14.180   4.516   1.666
27419SOL     OW84153  12.435   0.609   9.955
27419SOL    HW184154  12.341   0.595   9.943
27419SOL    HW284155  12.476   0.560   9.884
27420SOL     OW84156   1.984   5.067  14.573
27420SOL    HW184157   1.986   5.139  14.510
27420SOL    HW284158   1.896   5.030  14.565
27421SOL     OW84159   5.206   3.131   3.757
27421SOL    HW184160   5.284   3.098   3.799
27421SOL    HW284161   5.142   3.060   3.766
27422SOL     OW84162  13.300   3.005  11.130
27422SOL    HW184163  13.395   3.002  11.117
27422SOL    HW284164  13.282   2.931  11.188
27423SOL     OW84165   7.075   9.387   4.500
27423SOL    HW184166   7.067   9.364   4.407
27423SOL    HW284167   7.155   9.440   4.505
27424SOL     OW84168  11.072   5.505   0.544
27424SOL    HW184169  11.117   5.424   0.569
27424SOL    HW284170  11.140   5.559   0.503
27425SOL     OW84171   7.658   0.220   8.151
27425SOL    HW184172   7.604   0.276   8.096
27425SOL    HW284173   7.668   0.139   8.101
27426SOL     OW84174  10.829  10.827   5.255
27426SOL    HW184175  10.794  10.816   5.167
27426SOL    HW284176  10.924  10.828   5.242
27427SOL     OW84177   1.612   8.395   4.118
27427SOL    HW184178   1.540   8.439   4.074
27427SOL    HW284179   1.627   8.315   4.067
27428SOL     OW84180   3.304   3.771   1.573
27428SOL    HW184181   3.234   3.736   1.517
27428SOL    HW284182   3.284   3.865   1.578
27429SOL     OW84183   0.157  10.216   7.418
27429SOL    HW184184   0.129  10.301   7.383
27429SOL    HW284185   0.078  10.180   7.458
27430SOL     OW84186   8.024   4.555   4.411
27430SOL    HW184187   7.981   4.502   4.478
27430SOL    HW284188   7.953   4.602   4.368
27431SOL     OW84189  12.707  12.938   2.925
27431SOL    HW184190  12.730  12.899   3.010
27431SOL    HW284191  12.792  12.955   2.884
27432SOL     OW84192  12.365  14.282  13.689
27432SOL    HW184193  12.420  14.245  13.620
27432SOL    HW284194  12.379  14.377  13.683
27433SOL     OW84195  10.979   1.062   5.667
27433SOL    HW184196  11.027   1.139   5.697
27433SOL    HW284197  11.046   1.004   5.630
27434SOL     OW84198   5.280   6.457   2.429
27434SOL    HW184199   5.355   6.516   2.440
27434SOL    HW284200   5.246   6.476   2.342
27435SOL     OW84201  14.549  11.638  10.540
27435SOL    HW184202  14.613  11.571  10.516
27435SOL    HW284203  14.594  11.721  10.520
27436SOL     OW84204   9.957   4.501   2.473
27436SOL    HW184205   9.980   4.414   2.507
27436SOL    HW284206   9.992   4.502   2.384
27437SOL     OW84207   6.297   5.477   0.837
27437SOL    HW184208   6.357   5.447   0.905
27437SOL    HW284209   6.316   5.570   0.827
27438SOL     OW84210   0.229  12.844  13.056
27438SOL    HW184211   0.184  12.852  12.972
27438SOL    HW284212   0.187  12.770  13.099
27439SOL     OW84213  10.498   2.939  11.158
27439SOL    HW184214  10.514   2.955  11.066
27439SOL    HW284215  10.554   2.865  11.181
27440SOL     OW84216   8.313  10.657   2.153
27440SOL    HW184217   8.248  10.587   2.149
27440SOL    HW284218   8.396  10.611   2.164
27441SOL     OW84219   8.099   9.172  12.240
27441SOL    HW184220   8.019   9.127  12.213
27441SOL    HW284221   8.073   9.263  12.251
27442SOL     OW84222   9.350  13.151   1.559
27442SOL    HW184223   9.311  13.083   1.614
27442SOL    HW284224   9.302  13.146   1.477
27443SOL     OW84225   4.708   9.794   4.252
27443SOL    HW184226   4.760   9.715   4.269
27443SOL    HW284227   4.772   9.858   4.221
27444SOL     OW84228  13.846   6.211  10.062
27444SOL    HW184229  13.862   6.304  10.044
27444SOL    HW284230  13.841   6.206  10.157
27445SOL     OW84231   1.566  12.835   4.510
27445SOL    HW184232   1.514  12.912   4.533
27445SOL    HW284233   1.604  12.806   4.593
27446SOL     OW84234  12.840   8.211  10.946
27446SOL    HW184235  12.803   8.130  10.913
27446SOL    HW284236  12.765   8.269  10.960
27447SOL     OW84237   7.713   5.586   9.209
27447SOL    HW184238   7.714   5.669   9.161
27447SOL    HW284239   7.803   5.552   9.200
27448SOL     OW84240   1.513   5.606   8.888
27448SOL    HW184241   1.513   5.551   8.810
27448SOL    HW284242   1.430   5.654   8.883
27449SOL     OW84243   3.805   0.458   9.602
27449SOL    HW184244   3.828   0.442   9.693
27449SOL    HW284245   3.740   0.391   9.581
27450SOL     OW84246   3.008   6.779  11.175
27450SOL    HW184247   3.035   6.689  11.160
27450SOL    HW284248   3.046   6.802  11.260
27451SOL     OW84249  13.131  11.198   9.550
27451SOL    HW184250  13.225  11.215   9.553
27451SOL    HW284251  13.118  11.147   9.470
27452SOL     OW84252   4.824   8.082   6.819
27452SOL    HW184253   4.871   8.164   6.835
27452SOL    HW284254   4.786   8.059   6.903
27453SOL     OW84255   8.157   0.762   1.469
27453SOL    HW184256   8.133   0.679   1.509
27453SOL    HW284257   8.193   0.738   1.383
27454SOL     OW84258   2.796   4.810   8.776
27454SOL    HW184259   2.843   4.726   8.775
27454SOL    HW284260   2.859   4.872   8.812
27455SOL     OW84261   5.451   4.500   9.170
27455SOL    HW184262   5.459   4.487   9.264
27455SOL    HW284263   5.526   4.553   9.146
27456SOL     OW84264   3.641   7.468  10.731
27456SOL    HW184265   3.709   7.522  10.690
27456SOL    HW284266   3.559   7.505  10.701
27457SOL     OW84267   3.989   4.859   8.160
27457SOL    HW184268   3.969   4.774   8.121
27457SOL    HW284269   4.068   4.844   8.212
27458SOL     OW84270   8.788   0.857  11.880
27458SOL    HW184271   8.722   0.835  11.946
27458SOL    HW284272   8.740   0.861  11.798
27459SOL     OW84273   4.333   9.673   8.514
27459SOL    HW184274   4.258   9.721   8.551
27459SOL    HW284275   4.373   9.629   8.589
27460SOL     OW84276   0.411   7.081   9.850
27460SOL    HW184277   0.466   7.055   9.776
27460SOL    HW284278   0.353   7.148   9.815
27461SOL     OW84279   2.469   5.353   3.391
27461SOL    HW184280   2.397   5.345   3.328
27461SOL    HW284281   2.428   5.392   3.469
27462SOL     OW84282   2.820   9.620  10.198
27462SOL    HW184283   2.763   9.572  10.257
27462SOL    HW284284   2.882   9.555  10.164
27463SOL     OW84285  14.436   6.337   7.573
27463SOL    HW184286  14.368   6.358   7.637
27463SOL    HW284287  14.512   6.389   7.601
27464SOL     OW84288  12.767   5.088  13.387
27464SOL    HW184289  12.813   5.009  13.415
27464SOL    HW284290  12.684   5.057  13.352
27465SOL     OW84291  11.510  12.951  13.543
27465SOL    HW184292  11.550  12.938  13.629
27465SOL    HW284293  11.571  13.008  13.496
27466SOL     OW84294   4.639   8.369  10.163
27466SOL    HW184295   4.567   8.334  10.216
27466SOL    HW284296   4.603   8.448  10.123
27467SOL     OW84297   6.235   0.082   9.000
27467SOL    HW184298   6.173   0.012   8.980
27467SOL    HW284299   6.192   0.161   8.969
27468SOL     OW84300   6.587   0.097   1.972
27468SOL    HW184301   6.678   0.108   1.945
27468SOL    HW284302   6.560   0.184   2.003
27469SOL     OW84303   3.148  10.591   5.992
27469SOL    HW184304   3.208  10.520   5.969
27469SOL    HW284305   3.063  10.548   6.001
27470SOL     OW84306  11.758   4.210   3.541
27470SOL    HW184307  11.707   4.162   3.607
27470SOL    HW284308  11.700   4.281   3.514
27471SOL     OW84309   0.245  11.499  13.225
27471SOL    HW184310   0.276  11.410  13.242
27471SOL    HW284311   0.221  11.498  13.132
27472SOL     OW84312   6.972  14.648   0.446
27472SOL    HW184313   6.940  14.577   0.390
27472SOL    HW284314   7.007  14.712   0.385
27473SOL     OW84315   7.484   0.126   8.758
27473SOL    HW184316   7.497   0.192   8.690
27473SOL    HW284317   7.455   0.048   8.710
27474SOL     OW84318  11.834   7.148   4.006
27474SOL    HW184319  11.840   7.188   4.092
27474SOL    HW284320  11.794   7.063   4.021
27475SOL     OW84321   4.461   8.270  11.979
27475SOL    HW184322   4.458   8.341  12.044
27475SOL    HW284323   4.401   8.204  12.012
27476SOL     OW84324   6.696   8.389   0.501
27476SOL    HW184325   6.696   8.293   0.503
27476SOL    HW284326   6.608   8.412   0.471
27477SOL     OW84327   4.748   4.384   7.460
27477SOL    HW184328   4.792   4.322   7.517
27477SOL    HW284329   4.807   4.460   7.457
27478SOL     OW84330   7.096  12.198  11.810
27478SOL    HW184331   7.014  12.178  11.855
27478SOL    HW284332   7.092  12.292  11.793
27479SOL     OW84333  14.788   1.791  13.378
27479SOL    HW184334  14.739   1.718  13.339
27479SOL    HW284335  14.725   1.862  13.385
27480SOL     OW84336   7.693   2.310   8.514
27480SOL    HW184337   7.685   2.238   8.577
27480SOL    HW284338   7.625   2.372   8.539
27481SOL     OW84339   9.116   7.640  14.365
27481SOL    HW184340   9.085   7.706  14.427
27481SOL    HW284341   9.037   7.608  14.322
27482SOL     OW84342   8.495  10.298   0.026
27482SOL    HW184343   8.471  10.263  14.818
27482SOL    HW284344   8.459  10.234   0.088
27483SOL     OW84345  10.268   1.933   0.815
27483SOL    HW184346  10.322   1.855   0.804
27483SOL    HW284347  10.266   1.974   0.728
27484SOL     OW84348   1.516   0.185   8.052
27484SOL    HW184349   1.593   0.229   8.089
27484SOL    HW284350   1.443   0.216   8.106
27485SOL     OW84351  14.232   1.188   2.732
27485SOL    HW184352  14.219   1.281   2.715
27485SOL    HW284353  14.148   1.147   2.709
27486SOL     OW84354  14.355   7.035  11.563
27486SOL    HW184355  14.400   7.054  11.645
27486SOL    HW284356  14.368   7.114  11.510
27487SOL     OW84357   9.113   1.472  13.904
27487SOL    HW184358   9.034   1.419  13.919
27487SOL    HW284359   9.181   1.427  13.954
27488SOL     OW84360   2.252   6.857   9.004
27488SOL    HW184361   2.175   6.913   8.995
27488SOL    HW284362   2.268   6.824   8.915
27489SOL     OW84363  14.855  12.479   8.532
27489SOL    HW184364  14.807  12.528   8.598
27489SOL    HW284365  14.802  12.402   8.515
27490SOL     OW84366   4.172   2.514   0.025
27490SOL    HW184367   4.259   2.514  14.861
27490SOL    HW284368   4.141   2.604   0.017
27491SOL     OW84369   4.580   5.754   4.940
27491SOL    HW184370   4.487   5.732   4.947
27491SOL    HW284371   4.584   5.847   4.962
27492SOL     OW84372   3.124   1.718  13.848
27492SOL    HW184373   3.212   1.756  13.849
27492SOL    HW284374   3.121   1.662  13.926
27493SOL     OW84375  13.016  10.518  13.608
27493SOL    HW184376  12.973  10.454  13.551
27493SOL    HW284377  12.990  10.492  13.697
27494SOL     OW84378   2.071   7.262   3.811
27494SOL    HW184379   2.134   7.311   3.758
27494SOL    HW284380   2.115   7.250   3.896
27495SOL     OW84381   5.775  10.318   6.328
27495SOL    HW184382   5.750  10.263   6.402
27495SOL    HW284383   5.818  10.394   6.368
27496SOL     OW84384  11.732   4.732   9.673
27496SOL    HW184385  11.768   4.651   9.638
27496SOL    HW284386  11.663   4.704   9.733
27497SOL     OW84387   2.621   4.710  14.663
27497SOL    HW184388   2.670   4.782  14.703
27497SOL    HW284389   2.539   4.708  14.712
27498SOL     OW84390  10.639   9.960  10.180
27498SOL    HW184391  10.601  10.034  10.228
27498SOL    HW284392  10.688   9.911  10.245
27499SOL     OW84393  14.095   9.501   0.208
27499SOL    HW184394  14.019   9.557   0.193
27499SOL    HW284395  14.151   9.552   0.267
27500SOL     OW84396   1.359   0.064   3.024
27500SOL    HW184397   1.383   0.151   2.992
27500SOL    HW284398   1.333   0.079   3.115
27501SOL     OW84399   3.723  14.084   4.345
27501SOL    HW184400   3.656  14.015   4.346
27501SOL    HW284401   3.737  14.103   4.252
27502SOL     OW84402   6.617  14.859  11.733
27502SOL    HW184403   6.578  14.806  11.663
27502SOL    HW284404   6.697   0.018  11.693
27503SOL     OW84405  12.559   3.151   6.084
27503SOL    HW184406  12.556   3.246   6.068
27503SOL    HW284407  12.489   3.115   6.030
27504SOL     OW84408  13.110  11.420  12.494
27504SOL    HW184409  13.070  11.495  12.539
27504SOL    HW284410  13.116  11.447  12.402
27505SOL     OW84411   5.036  14.149   6.070
27505SOL    HW184412   4.982  14.157   6.149
27505SOL    HW284413   4.975  14.118   6.003
27506SOL     OW84414   1.919  14.764   4.630
27506SOL    HW184415   1.839  14.816   4.624
27506SOL    HW284416   1.977  14.817   4.684
27507SOL     OW84417  12.982   5.069   3.602
27507SOL    HW184418  13.072   5.052   3.631
27507SOL    HW284419  12.929   5.056   3.681
27508SOL     OW84420   3.734   9.895  10.783
27508SOL    HW184421   3.702   9.922  10.869
27508SOL    HW284422   3.661   9.845  10.746
27509SOL     OW84423  13.621   1.545   4.291
27509SOL    HW184424  13.616   1.478   4.359
27509SOL    HW284425  13.571   1.618   4.325
27510SOL     OW84426  11.877  12.594   4.879
27510SOL    HW184427  11.953  12.652   4.871
27510SOL    HW284428  11.826  12.632   4.951
27511SOL     OW84429  13.014   2.552  10.697
27511SOL    HW184430  12.969   2.629  10.731
27511SOL    HW284431  12.944   2.495  10.666
27512SOL     OW84432   1.318   0.404   9.180
27512SOL    HW184433   1.291   0.428   9.092
27512SOL    HW284434   1.264   0.328   9.202
27513SOL     OW84435  12.282   1.146   6.195
27513SOL    HW184436  12.191   1.153   6.224
27513SOL    HW284437  12.276   1.122   6.103
27514SOL     OW84438   4.642   4.176   7.289
27514SOL    HW184439   4.696   4.108   7.330
27514SOL    HW284440   4.679   4.258   7.321
27515SOL     OW84441   7.668   4.477   2.015
27515SOL    HW184442   7.581   4.476   2.055
27515SOL    HW284443   7.729   4.474   2.089
27516SOL     OW84444   9.264  14.446   9.647
27516SOL    HW184445   9.354  14.425   9.672
27516SOL    HW284446   9.239  14.519   9.705
27517SOL     OW84447  14.682   4.954   9.248
27517SOL    HW184448  14.771   4.989   9.256
27517SOL    HW284449  14.668   4.946   9.153
27518SOL     OW84450  11.169   9.059   8.500
27518SOL    HW184451  11.116   9.118   8.447
27518SOL    HW284452  11.258   9.074   8.471
27519SOL     OW84453   2.530   9.596  14.599
27519SOL    HW184454   2.625   9.609  14.603
27519SOL    HW284455   2.518   9.533  14.527
27520SOL     OW84456   5.694   6.505  12.286
27520SOL    HW184457   5.744   6.534  12.362
27520SOL    HW284458   5.666   6.586  12.243
27521SOL     OW84459   2.239  12.112   4.990
27521SOL    HW184460   2.188  12.035   5.017
27521SOL    HW284461   2.272  12.148   5.072
27522SOL     OW84462  14.291  10.300   7.086
27522SOL    HW184463  14.247  10.329   7.166
27522SOL    HW284464  14.245  10.346   7.015
27523SOL     OW84465  13.828   2.244  14.840
27523SOL    HW184466  13.778   2.164  14.850
27523SOL    HW284467  13.840   2.254  14.746
27524SOL     OW84468   1.099   6.644   6.039
27524SOL    HW184469   1.105   6.645   5.944
27524SOL    HW284470   1.136   6.728   6.066
27525SOL     OW84471   9.542  10.905   9.085
27525SOL    HW184472   9.471  10.842   9.075
27525SOL    HW284473   9.520  10.977   9.026
27526SOL     OW84474   0.848   1.470   6.659
27526SOL    HW184475   0.799   1.493   6.579
27526SOL    HW284476   0.806   1.522   6.728
27527SOL     OW84477   8.549   0.924  10.900
27527SOL    HW184478   8.476   0.978  10.928
27527SOL    HW284479   8.626   0.978  10.917
27528SOL     OW84480   9.872  14.328   8.188
27528SOL    HW184481   9.821  14.386   8.245
27528SOL    HW284482   9.807  14.269   8.149
27529SOL     OW84483   8.564   5.060   9.582
27529SOL    HW184484   8.489   5.109   9.618
27529SOL    HW284485   8.551   5.063   9.487
27530SOL     OW84486  13.693   7.932   7.394
27530SOL    HW184487  13.780   7.965   7.371
27530SOL    HW284488  13.658   7.997   7.455
27531SOL     OW84489  10.543   0.330   8.828
27531SOL    HW184490  10.486   0.368   8.895
27531SOL    HW284491  10.628   0.370   8.843
27532SOL     OW84492  10.792   2.992  11.090
27532SOL    HW184493  10.860   3.059  11.092
27532SOL    HW284494  10.791   2.955  11.179
27533SOL     OW84495   6.251   4.484  12.229
27533SOL    HW184496   6.168   4.469  12.184
27533SOL    HW284497   6.297   4.548  12.175
27534SOL     OW84498   6.083   5.470   9.053
27534SOL    HW184499   6.124   5.468   9.139
27534SOL    HW284500   6.018   5.539   9.058
27535SOL     OW84501   8.782   1.310   3.009
27535SOL    HW184502   8.734   1.258   3.074
27535SOL    HW284503   8.716   1.370   2.974
27536SOL     OW84504  12.381  13.196  13.172
27536SOL    HW184505  12.449  13.255  13.138
27536SOL    HW284506  12.299  13.231  13.138
27537SOL     OW84507   3.662  11.691   5.036
27537SOL    HW184508   3.611  11.742   4.973
27537SOL    HW284509   3.656  11.601   5.005
27538SOL     OW84510   6.639   0.701   7.116
27538SOL    HW184511   6.594   0.756   7.052
27538SOL    HW284512   6.653   0.618   7.071
27539SOL     OW84513  10.262   8.935   4.478
27539SOL    HW184514  10.310   8.918   4.397
27539SOL    HW284515  10.328   8.935   4.546
27540SOL     OW84516   5.418   6.029   6.783
27540SOL    HW184517   5.507   6.035   6.748
27540SOL    HW284518   5.371   6.100   6.740
27541SOL     OW84519  12.275  11.877   6.557
27541SOL    HW184520  12.275  11.781   6.552
27541SOL    HW284521  12.344  11.904   6.497
27542SOL     OW84522   6.348   0.922   6.215
27542SOL    HW184523   6.280   0.939   6.150
27542SOL    HW284524   6.427   0.904   6.164
27543SOL     OW84525  13.813   5.363   2.824
27543SOL    HW184526  13.730   5.412   2.818
27543SOL    HW284527  13.878   5.422   2.786
27544SOL     OW84528   6.324   7.429  10.273
27544SOL    HW184529   6.292   7.340  10.291
27544SOL    HW284530   6.414   7.418  10.243
27545SOL     OW84531  11.047   6.312   1.793
27545SOL    HW184532  11.066   6.246   1.859
27545SOL    HW284533  10.985   6.372   1.835
27546SOL     OW84534  12.855   3.948  12.819
27546SOL    HW184535  12.852   3.859  12.854
27546SOL    HW284536  12.768   3.962  12.782
27547SOL     OW84537   2.831   3.081  11.366
27547SOL    HW184538   2.905   3.133  11.398
27547SOL    HW284539   2.850   2.992  11.395
27548SOL     OW84540  13.465   9.930   5.409
27548SOL    HW184541  13.522   9.856   5.391
27548SOL    HW284542  13.480   9.950   5.501
27549SOL     OW84543   5.159  13.098   9.894
27549SOL    HW184544   5.184  13.160   9.826
27549SOL    HW284545   5.194  13.014   9.864
27550SOL     OW84546   8.588   7.653   5.665
27550SOL    HW184547   8.671   7.627   5.626
27550SOL    HW284548   8.577   7.595   5.740
27551SOL     OW84549   8.988  10.038   0.609
27551SOL    HW184550   8.895  10.055   0.621
27551SOL    HW284551   9.024  10.041   0.697
27552SOL     OW84552   5.023  14.048   7.922
27552SOL    HW184553   4.964  14.029   7.849
27552SOL    HW284554   4.975  14.110   7.976
27553SOL     OW84555  12.926   3.672   5.195
27553SOL    HW184556  12.888   3.635   5.115
27553SOL    HW284557  12.851   3.706   5.244
27554SOL     OW84558   3.673   8.010   5.363
27554SOL    HW184559   3.630   7.928   5.386
27554SOL    HW284560   3.630   8.076   5.417
27555SOL     OW84561   3.965   4.996   2.317
27555SOL    HW184562   3.936   4.947   2.394
27555SOL    HW284563   3.903   4.970   2.248
27556SOL     OW84564   0.430   2.748   0.305
27556SOL    HW184565   0.477   2.719   0.226
27556SOL    HW284566   0.369   2.677   0.324
27557SOL     OW84567   3.754  10.007   6.088
27557SOL    HW184568   3.675  10.044   6.128
27557SOL    HW284569   3.728   9.920   6.059
27558SOL     OW84570  14.737   1.492  11.540
27558SOL    HW184571  14.737   1.498  11.444
27558SOL    HW284572  14.647   1.514  11.564
27559SOL     OW84573  11.275   1.641   0.334
27559SOL    HW184574  11.253   1.610   0.422
27559SOL    HW284575  11.367   1.667   0.340
27560SOL     OW84576  12.266  11.152  11.654
27560SOL    HW184577  12.346  11.112  11.619
27560SOL    HW284578  12.198  11.085  11.642
27561SOL     OW84579   1.334   4.584   7.014
27561SOL    HW184580   1.311   4.568   6.922
27561SOL    HW284581   1.318   4.677   7.027
27562SOL     OW84582   1.285   8.911  11.427
27562SOL    HW184583   1.296   8.960  11.508
27562SOL    HW284584   1.327   8.827  11.443
27563SOL     OW84585   8.885  13.145  12.226
27563SOL    HW184586   8.965  13.141  12.175
27563SOL    HW284587   8.912  13.123  12.315
27564SOL     OW84588   0.833  14.875   5.266
27564SOL    HW184589   0.855  14.857   5.174
27564SOL    HW284590   0.838  14.790   5.309
27565SOL     OW84591   3.302   5.718   1.904
27565SOL    HW184592   3.369   5.770   1.861
27565SOL    HW284593   3.275   5.771   1.979
27566SOL     OW84594   2.885   1.124   6.536
27566SOL    HW184595   2.896   1.035   6.502
27566SOL    HW284596   2.872   1.112   6.630
27567SOL     OW84597   6.039   5.531  10.031
27567SOL    HW184598   5.979   5.464   9.998
27567SOL    HW284599   6.045   5.595   9.961
27568SOL     OW84600   5.617   4.961   4.659
27568SOL    HW184601   5.626   4.888   4.721
27568SOL    HW284602   5.528   4.954   4.626
27569SOL     OW84603   7.853   8.035   1.946
27569SOL    HW184604   7.839   7.951   1.988
27569SOL    HW284605   7.849   8.017   1.852
27570SOL     OW84606   4.181   8.357   4.117
27570SOL    HW184607   4.233   8.412   4.177
27570SOL    HW284608   4.239   8.284   4.096
27571SOL     OW84609   2.368   0.153   0.629
27571SOL    HW184610   2.376   0.065   0.592
27571SOL    HW284611   2.282   0.154   0.671
27572SOL     OW84612  11.174  13.082  11.505
27572SOL    HW184613  11.097  13.097  11.451
27572SOL    HW284614  11.166  13.144  11.577
27573SOL     OW84615  10.083   3.813   6.338
27573SOL    HW184616  10.019   3.742   6.342
27573SOL    HW284617  10.030   3.893   6.339
27574SOL     OW84618  13.811   8.311   6.514
27574SOL    HW184619  13.776   8.336   6.600
27574SOL    HW284620  13.745   8.252   6.479
27575SOL     OW84621   0.835  10.424   3.978
27575SOL    HW184622   0.782  10.503   3.990
27575SOL    HW284623   0.850  10.419   3.883
27576SOL     OW84624  14.195   7.166   6.711
27576SOL    HW184625  14.170   7.195   6.624
27576SOL    HW284626  14.118   7.120   6.744
27577SOL     OW84627   2.222  14.795   0.982
27577SOL    HW184628   2.199  14.798   1.075
27577SOL    HW284629   2.268  14.711   0.971
27578SOL     OW84630   8.502   9.938  12.682
27578SOL    HW184631   8.419   9.985  12.693
27578SOL    HW284632   8.534   9.967  12.597
27579SOL     OW84633  12.471   2.153   1.373
27579SOL    HW184634  12.452   2.179   1.283
27579SOL    HW284635  12.385   2.143   1.414
27580SOL     OW84636   8.590   3.854   0.455
27580SOL    HW184637   8.622   3.775   0.412
27580SOL    HW284638   8.576   3.829   0.546
27581SOL     OW84639   6.010   2.661   9.153
27581SOL    HW184640   5.987   2.575   9.119
27581SOL    HW284641   6.063   2.643   9.231
27582SOL     OW84642   8.111  12.057   7.575
27582SOL    HW184643   8.093  12.042   7.668
27582SOL    HW284644   8.192  12.008   7.558
27583SOL     OW84645   8.620  11.874  13.582
27583SOL    HW184646   8.577  11.842  13.661
27583SOL    HW284647   8.704  11.828  13.579
27584SOL     OW84648   0.323  12.386   5.436
27584SOL    HW184649   0.418  12.384   5.432
27584SOL    HW284650   0.301  12.336   5.515
27585SOL     OW84651  11.957   0.458  12.406
27585SOL    HW184652  11.981   0.545  12.440
27585SOL    HW284653  11.904   0.476  12.328
27586SOL     OW84654   5.188  13.998   2.562
27586SOL    HW184655   5.177  14.083   2.518
27586SOL    HW284656   5.279  13.999   2.593
27587SOL     OW84657   5.421   6.938   9.837
27587SOL    HW184658   5.379   7.024   9.837
27587SOL    HW284659   5.506   6.953   9.795
27588SOL     OW84660   7.340   2.823  13.218
27588SOL    HW184661   7.306   2.750  13.270
27588SOL    HW284662   7.416   2.854  13.267
27589SOL     OW84663   5.112   2.124   1.377
27589SOL    HW184664   5.029   2.171   1.388
27589SOL    HW284665   5.161   2.177   1.314
27590SOL     OW84666   4.836  14.653   4.447
27590SOL    HW184667   4.765  14.683   4.391
27590SOL    HW284668   4.865  14.732   4.493
27591SOL     OW84669   5.001   1.664   2.717
27591SOL    HW184670   5.033   1.588   2.766
27591SOL    HW284671   5.067   1.679   2.650
27592SOL     OW84672  11.687   0.438   2.115
27592SOL    HW184673  11.600   0.463   2.086
27592SOL    HW284674  11.673   0.390   2.197
27593SOL     OW84675   6.509  12.388   7.346
27593SOL    HW184676   6.497  12.351   7.434
27593SOL    HW284677   6.572  12.329   7.303
27594SOL     OW84678   6.801   0.273   1.215
27594SOL    HW184679   6.831   0.314   1.296
27594SOL    HW284680   6.851   0.317   1.146
27595SOL     OW84681   5.876   0.352   5.220
27595SOL    HW184682   5.908   0.329   5.133
27595SOL    HW284683   5.877   0.448   5.221
27596SOL     OW84684   9.434   4.295  11.957
27596SOL    HW184685   9.368   4.276  11.890
27596SOL    HW284686   9.386   4.347  12.022
27597SOL     OW84687   4.395   8.460   0.709
27597SOL    HW184688   4.441   8.467   0.626
27597SOL    HW284689   4.307   8.494   0.691
27598SOL     OW84690   3.721   4.325   4.797
27598SOL    HW184691   3.703   4.380   4.720
27598SOL    HW284692   3.660   4.357   4.864
27599SOL     OW84693  12.595   3.078   6.805
27599SOL    HW184694  12.610   3.171   6.823
27599SOL    HW284695  12.620   3.034   6.886
27600SOL     OW84696  13.913   3.222   0.002
27600SOL    HW184697  13.881   3.202  14.791
27600SOL    HW284698  14.008   3.218  14.872
27601SOL     OW84699  12.916   5.993  10.353
27601SOL    HW184700  12.893   6.044  10.275
27601SOL    HW284701  12.855   6.024  10.421
27602SOL     OW84702   7.354   5.130  11.850
27602SOL    HW184703   7.372   5.185  11.774
27602SOL    HW284704   7.366   5.188  11.925
27603SOL     OW84705  13.638  10.367  10.314
27603SOL    HW184706  13.691  10.327  10.245
27603SOL    HW284707  13.556  10.389  10.271
27604SOL     OW84708   8.413   7.750  10.774
27604SOL    HW184709   8.357   7.680  10.741
27604SOL    HW284710   8.373   7.775  10.858
27605SOL     OW84711   2.533  14.405   9.848
27605SOL    HW184712   2.558  14.420   9.758
27605SOL    HW284713   2.489  14.486   9.875
27606SOL     OW84714   3.926   7.413   3.425
27606SOL    HW184715   3.843   7.382   3.388
27606SOL    HW284716   3.984   7.337   3.420
27607SOL     OW84717  13.707  11.021  12.670
27607SOL    HW184718  13.714  11.102  12.722
27607SOL    HW284719  13.662  10.959  12.727
27608SOL     OW84720   1.189   0.436   9.580
27608SOL    HW184721   1.152   0.437   9.668
27608SOL    HW284722   1.118   0.465   9.523
27609SOL     OW84723   7.382  10.841   1.286
27609SOL    HW184724   7.349  10.845   1.376
27609SOL    HW284725   7.471  10.806   1.294
27610SOL     OW84726  11.874   7.666   2.668
27610SOL    HW184727  11.877   7.745   2.723
27610SOL    HW284728  11.966   7.643   2.656
27611SOL     OW84729  10.563  10.542   2.527
27611SOL    HW184730  10.585  10.463   2.577
27611SOL    HW284731  10.470  10.556   2.543
27612SOL     OW84732   5.717  10.212   0.692
27612SOL    HW184733   5.676  10.127   0.681
27612SOL    HW284734   5.644  10.275   0.692
27613SOL     OW84735   7.664   5.308  13.390
27613SOL    HW184736   7.715   5.274  13.316
27613SOL    HW284737   7.730   5.340  13.452
27614SOL     OW84738   0.773  13.770   9.177
27614SOL    HW184739   0.800  13.783   9.268
27614SOL    HW284740   0.782  13.857   9.137
27615SOL     OW84741   8.300   4.121   3.587
27615SOL    HW184742   8.304   4.037   3.633
27615SOL    HW284743   8.363   4.176   3.633
27616SOL     OW84744   4.544  11.126  13.138
27616SOL    HW184745   4.608  11.056  13.129
27616SOL    HW284746   4.499  11.129  13.054
27617SOL     OW84747  13.916   5.412   1.505
27617SOL    HW184748  13.864   5.438   1.582
27617SOL    HW284749  14.001   5.455   1.519
27618SOL     OW84750   9.814   0.333  10.840
27618SOL    HW184751   9.803   0.243  10.810
27618SOL    HW284752   9.732   0.376  10.818
27619SOL     OW84753   8.442   1.059  12.424
27619SOL    HW184754   8.388   0.988  12.458
27619SOL    HW284755   8.532   1.030  12.441
27620SOL     OW84756   2.197  11.201   5.412
27620SOL    HW184757   2.152  11.126   5.373
27620SOL    HW284758   2.260  11.229   5.346
27621SOL     OW84759   1.874  12.678   1.164
27621SOL    HW184760   1.961  12.714   1.182
27621SOL    HW284761   1.888  12.583   1.162
27622SOL     OW84762   7.800   4.738  13.398
27622SOL    HW184763   7.786   4.701  13.311
27622SOL    HW284764   7.835   4.666  13.450
27623SOL     OW84765  12.209  14.824   6.020
27623SOL    HW184766  12.267  14.756   6.056
27623SOL    HW284767  12.133  14.775   5.987
27624SOL     OW84768  13.795   4.010   5.466
27624SOL    HW184769  13.811   4.086   5.409
27624SOL    HW284770  13.743   3.951   5.413
27625SOL     OW84771  13.176  14.411   2.517
27625SOL    HW184772  13.224  14.353   2.576
27625SOL    HW284773  13.085  14.402   2.543
27626SOL     OW84774  12.687   0.867   1.897
27626SOL    HW184775  12.765   0.911   1.928
27626SOL    HW284776  12.684   0.785   1.947
27627SOL     OW84777  12.730  12.299   5.591
27627SOL    HW184778  12.755  12.259   5.674
27627SOL    HW284779  12.751  12.233   5.525
27628SOL     OW84780   0.633   2.191   1.863
27628SOL    HW184781   0.703   2.181   1.797
27628SOL    HW284782   0.621   2.286   1.870
27629SOL     OW84783   3.706   4.859   9.992
27629SOL    HW184784   3.781   4.905  10.030
27629SOL    HW284785   3.635   4.875  10.055
27630SOL     OW84786   6.919   8.446  12.952
27630SOL    HW184787   6.935   8.430  12.859
27630SOL    HW284788   6.943   8.538  12.965
27631SOL     OW84789  13.926   1.056  11.592
27631SOL    HW184790  13.985   1.132  11.591
27631SOL    HW284791  13.905   1.044  11.685
27632SOL     OW84792  14.748  13.646  12.062
27632SOL    HW184793  14.697  13.713  12.106
27632SOL    HW284794  14.722  13.651  11.971
27633SOL     OW84795   5.224   5.288  11.570
27633SOL    HW184796   5.317   5.306  11.556
27633SOL    HW284797   5.219   5.260  11.661
27634SOL     OW84798   0.316   3.245   1.945
27634SOL    HW184799   0.370   3.317   1.978
27634SOL    HW284800   0.372   3.197   1.884
27635SOL     OW84801  14.791   7.011  12.096
27635SOL    HW184802  14.761   6.921  12.108
27635SOL    HW284803   0.008   7.006  12.109
27636SOL     OW84804   6.478   3.114   0.686
27636SOL    HW184805   6.504   3.052   0.617
27636SOL    HW284806   6.469   3.197   0.640
27637SOL     OW84807   9.429  11.170  12.158
27637SOL    HW184808   9.500  11.107  12.166
27637SOL    HW284809   9.374  11.136  12.087
27638SOL     OW84810  11.719   9.966   3.940
27638SOL    HW184811  11.627   9.992   3.935
27638SOL    HW284812  11.742   9.981   4.032
27639SOL     OW84813   5.516   2.952   4.721
27639SOL    HW184814   5.526   3.040   4.758
27639SOL    HW284815   5.427   2.952   4.684
27640SOL     OW84816   7.342  11.383   7.428
27640SOL    HW184817   7.293  11.439   7.489
27640SOL    HW284818   7.326  11.422   7.342
27641SOL     OW84819   2.216   5.362   4.294
27641SOL    HW184820   2.241   5.442   4.247
27641SOL    HW284821   2.147   5.323   4.240
27642SOL     OW84822   1.511  12.627  11.039
27642SOL    HW184823   1.473  12.546  11.075
27642SOL    HW284824   1.561  12.664  11.112
27643SOL     OW84825   4.415   9.833  10.247
27643SOL    HW184826   4.391   9.879  10.166
27643SOL    HW284827   4.483   9.888  10.287
27644SOL     OW84828   9.193   1.084  10.882
27644SOL    HW184829   9.159   1.093  10.971
27644SOL    HW284830   9.140   1.144  10.830
27645SOL     OW84831  10.209   7.136   1.485
27645SOL    HW184832  10.231   7.189   1.408
27645SOL    HW284833  10.200   7.047   1.451
27646SOL     OW84834  12.685   9.712  10.767
27646SOL    HW184835  12.633   9.634  10.750
27646SOL    HW284836  12.776   9.680  10.770
27647SOL     OW84837   3.756   6.480   3.650
27647SOL    HW184838   3.836   6.525   3.622
27647SOL    HW284839   3.786   6.419   3.717
27648SOL     OW84840   3.512  12.569   3.117
27648SOL    HW184841   3.520  12.494   3.059
27648SOL    HW284842   3.591  12.621   3.100
27649SOL     OW84843   2.606   5.374   9.859
27649SOL    HW184844   2.517   5.394   9.831
27649SOL    HW284845   2.648   5.339   9.781
27650SOL     OW84846   3.978  10.459   9.968
27650SOL    HW184847   3.898  10.416   9.997
27650SOL    HW284848   4.046  10.424  10.027
27651SOL     OW84849   4.619   1.024  13.599
27651SOL    HW184850   4.545   1.075  13.631
27651SOL    HW284851   4.672   1.088  13.550
27652SOL     OW84852   4.728  10.461  11.291
27652SOL    HW184853   4.653  10.505  11.251
27652SOL    HW284854   4.711  10.466  11.385
27653SOL     OW84855   1.970   8.329   2.494
27653SOL    HW184856   1.919   8.328   2.575
27653SOL    HW284857   2.005   8.419   2.489
27654SOL     OW84858   2.309   9.602   9.001
27654SOL    HW184859   2.322   9.689   8.963
27654SOL    HW284860   2.382   9.591   9.062
27655SOL     OW84861   5.188  11.477  10.413
27655SOL    HW184862   5.192  11.419  10.337
27655SOL    HW284863   5.163  11.419  10.485
27656SOL     OW84864  12.799  14.035  13.055
27656SOL    HW184865  12.763  14.004  13.138
27656SOL    HW284866  12.722  14.059  13.004
27657SOL     OW84867   3.301   5.328   1.051
27657SOL    HW184868   3.323   5.255   1.108
27657SOL    HW284869   3.350   5.402   1.086
27658SOL     OW84870   2.427   2.321   5.855
27658SOL    HW184871   2.425   2.416   5.854
27658SOL    HW284872   2.382   2.295   5.775
27659SOL     OW84873  12.248  11.825  14.010
27659SOL    HW184874  12.194  11.758  14.051
27659SOL    HW284875  12.184  11.886  13.971
27660SOL     OW84876  13.400  11.988  10.959
27660SOL    HW184877  13.369  12.065  11.007
27660SOL    HW284878  13.377  11.914  11.014
27661SOL     OW84879   9.314   1.321  14.017
27661SOL    HW184880   9.280   1.252  14.074
27661SOL    HW284881   9.376   1.369  14.071
27662SOL     OW84882  14.161  10.797   1.722
27662SOL    HW184883  14.247  10.840   1.719
27662SOL    HW284884  14.102  10.866   1.753
27663SOL     OW84885   6.003  12.985   2.205
27663SOL    HW184886   5.915  13.016   2.188
27663SOL    HW284887   6.012  12.988   2.300
27664SOL     OW84888   6.846   8.339   8.138
27664SOL    HW184889   6.897   8.393   8.199
27664SOL    HW284890   6.796   8.402   8.086
27665SOL     OW84891   6.315   0.908   2.219
27665SOL    HW184892   6.406   0.883   2.234
27665SOL    HW284893   6.281   0.928   2.307
27666SOL     OW84894  13.194  13.668  12.234
27666SOL    HW184895  13.184  13.583  12.278
27666SOL    HW284896  13.206  13.646  12.141
27667SOL     OW84897   0.768  12.169   8.368
27667SOL    HW184898   0.686  12.179   8.321
27667SOL    HW284899   0.823  12.240   8.336
27668SOL     OW84900   0.237   0.213   4.942
27668SOL    HW184901   0.218   0.216   5.036
27668SOL    HW284902   0.264   0.303   4.921
27669SOL     OW84903  11.090   6.322   4.480
27669SOL    HW184904  11.112   6.289   4.567
27669SOL    HW284905  11.092   6.417   4.490
27670SOL     OW84906   9.316   2.639   6.362
27670SOL    HW184907   9.287   2.635   6.271
27670SOL    HW284908   9.252   2.588   6.410
27671SOL     OW84909   0.241  11.387  13.941
27671SOL    HW184910   0.322  11.413  13.985
27671SOL    HW284911   0.257  11.297  13.912
27672SOL     OW84912   5.244   1.137   1.183
27672SOL    HW184913   5.308   1.140   1.254
27672SOL    HW284914   5.291   1.097   1.109
27673SOL     OW84915   2.247   2.215   6.821
27673SOL    HW184916   2.236   2.121   6.803
27673SOL    HW284917   2.275   2.218   6.913
27674SOL     OW84918   6.143   6.339   2.206
27674SOL    HW184919   6.166   6.253   2.244
27674SOL    HW284920   6.056   6.358   2.240
27675SOL     OW84921   4.945   1.762   1.069
27675SOL    HW184922   4.933   1.667   1.065
27675SOL    HW284923   4.976   1.786   0.982
27676SOL     OW84924  13.438   9.976  11.367
27676SOL    HW184925  13.349  10.013  11.368
27676SOL    HW284926  13.427   9.887  11.401
27677SOL     OW84927   1.440   3.129   8.366
27677SOL    HW184928   1.387   3.063   8.322
27677SOL    HW284929   1.497   3.164   8.297
27678SOL     OW84930  14.481   8.271   4.974
27678SOL    HW184931  14.449   8.201   5.030
27678SOL    HW284932  14.547   8.230   4.919
27679SOL     OW84933   0.685   5.919   6.436
27679SOL    HW184934   0.625   5.950   6.369
27679SOL    HW284935   0.650   5.834   6.462
27680SOL     OW84936  11.901  10.679  10.860
27680SOL    HW184937  11.981  10.725  10.832
27680SOL    HW284938  11.930  10.623  10.932
27681SOL     OW84939  12.460   3.391   8.752
27681SOL    HW184940  12.381   3.338   8.768
27681SOL    HW284941  12.453   3.418   8.661
27682SOL     OW84942  11.638  10.922   9.700
27682SOL    HW184943  11.633  10.860   9.773
27682SOL    HW284944  11.650  11.008   9.741
27683SOL     OW84945   7.363   2.113  10.724
27683SOL    HW184946   7.306   2.139  10.796
27683SOL    HW284947   7.393   2.025  10.747
27684SOL     OW84948   0.862   3.776   0.953
27684SOL    HW184949   0.886   3.784   0.860
27684SOL    HW284950   0.866   3.866   0.986
27685SOL     OW84951   5.456   1.131   9.157
27685SOL    HW184952   5.415   1.200   9.210
27685SOL    HW284953   5.537   1.171   9.125
27686SOL     OW84954   2.301  13.759   9.653
27686SOL    HW184955   2.250  13.760   9.572
27686SOL    HW284956   2.385  13.799   9.628
27687SOL     OW84957  11.350  11.634   0.515
27687SOL    HW184958  11.308  11.575   0.578
27687SOL    HW284959  11.343  11.721   0.556
27688SOL     OW84960   4.095  12.602  14.837
27688SOL    HW184961   4.099  12.527  14.779
27688SOL    HW284962   4.029  12.579   0.025
27689SOL     OW84963   2.896   9.261   9.539
27689SOL    HW184964   2.903   9.262   9.634
27689SOL    HW284965   2.987   9.250   9.509
27690SOL     OW84966   2.573  12.030   0.459
27690SOL    HW184967   2.621  12.096   0.409
27690SOL    HW284968   2.518  11.986   0.394
27691SOL     OW84969   4.769   1.470  13.064
27691SOL    HW184970   4.844   1.412  13.078
27691SOL    HW284971   4.775   1.534  13.136
27692SOL     OW84972   0.459   7.581   9.267
27692SOL    HW184973   0.366   7.577   9.244
27692SOL    HW284974   0.462   7.546   9.356
27693SOL     OW84975  10.102  11.077   0.523
27693SOL    HW184976  10.127  11.027   0.601
27693SOL    HW284977  10.182  11.078   0.469
27694SOL     OW84978  12.093   9.666  10.447
27694SOL    HW184979  12.114   9.736  10.386
27694SOL    HW284980  12.105   9.706  10.534
27695SOL     OW84981  14.181  13.464   0.956
27695SOL    HW184982  14.202  13.557   0.948
27695SOL    HW284983  14.089  13.458   0.931
27696SOL     OW84984   1.768  10.201   0.658
27696SOL    HW184985   1.834  10.238   0.716
27696SOL    HW284986   1.818  10.162   0.586
27697SOL     OW84987   1.965   3.265   2.358
27697SOL    HW184988   1.954   3.198   2.425
27697SOL    HW284989   1.901   3.240   2.290
27698SOL     OW84990  12.599   6.264   3.732
27698SOL    HW184991  12.504   6.258   3.744
27698SOL    HW284992  12.617   6.358   3.731
27699SOL     OW84993   2.142   4.877   7.196
27699SOL    HW184994   2.222   4.837   7.229
27699SOL    HW284995   2.138   4.851   7.104
27700SOL     OW84996   1.483  11.773   8.080
27700SOL    HW184997   1.412  11.818   8.034
27700SOL    HW284998   1.561  11.791   8.028
27701SOL     OW84999  12.591  13.861   2.179
27701SOL    HW185000  12.626  13.834   2.263
27701SOL    HW285001  12.624  13.796   2.117
27702SOL     OW85002   0.977  10.081   2.491
27702SOL    HW185003   0.946  10.009   2.436
27702SOL    HW285004   0.921  10.077   2.569
27703SOL     OW85005  14.796   6.908   1.520
27703SOL    HW185006  14.838   6.895   1.435
27703SOL    HW285007  14.835   6.989   1.554
27704SOL     OW85008   9.909  10.406  14.206
27704SOL    HW185009   9.840  10.346  14.176
27704SOL    HW285010   9.872  10.447  14.285
27705SOL     OW85011   3.168   8.472   9.386
27705SOL    HW185012   3.157   8.431   9.472
27705SOL    HW285013   3.258   8.450   9.360
27706SOL     OW85014   4.628   2.127   6.134
27706SOL    HW185015   4.626   2.195   6.202
27706SOL    HW285016   4.540   2.129   6.095
27707SOL     OW85017  13.239   0.705   3.215
27707SOL    HW185018  13.286   0.673   3.137
27707SOL    HW285019  13.308   0.720   3.280
27708SOL     OW85020  10.406   6.652   8.617
27708SOL    HW185021  10.395   6.710   8.541
27708SOL    HW285022  10.317   6.644   8.653
27709SOL     OW85023   0.523   7.045   2.072
27709SOL    HW185024   0.519   6.955   2.040
27709SOL    HW285025   0.579   7.091   2.009
27710SOL     OW85026  14.387   6.147   6.852
27710SOL    HW185027  14.349   6.069   6.812
27710SOL    HW285028  14.319   6.180   6.909
27711SOL     OW85029   2.502   4.007  14.427
27711SOL    HW185030   2.447   4.059  14.369
27711SOL    HW285031   2.445   3.985  14.501
27712SOL     OW85032  13.493   0.614   2.529
27712SOL    HW185033  13.487   0.658   2.614
27712SOL    HW285034  13.556   0.666   2.480
27713SOL     OW85035   7.635   9.524   0.917
27713SOL    HW185036   7.680   9.513   0.833
27713SOL    HW285037   7.678   9.463   0.976
27714SOL     OW85038   8.509   9.318  12.436
27714SOL    HW185039   8.439   9.325  12.500
27714SOL    HW285040   8.494   9.391  12.376
27715SOL     OW85041  13.419   1.927   1.332
27715SOL    HW185042  13.382   2.011   1.359
27715SOL    HW285043  13.513   1.941   1.331
27716SOL     OW85044  10.042   5.202   0.965
27716SOL    HW185045  10.004   5.243   0.887
27716SOL    HW285046  10.088   5.125   0.931
27717SOL     OW85047   6.692   9.276   3.621
27717SOL    HW185048   6.688   9.363   3.663
27717SOL    HW285049   6.704   9.215   3.694
27718SOL     OW85050   5.822   5.961   5.504
27718SOL    HW185051   5.875   5.893   5.463
27718SOL    HW285052   5.740   5.961   5.454
27719SOL     OW85053   9.767  14.628  13.691
27719SOL    HW185054   9.703  14.698  13.678
27719SOL    HW285055   9.739  14.584  13.771
27720SOL     OW85056   0.984  12.671   7.690
27720SOL    HW185057   1.038  12.670   7.768
27720SOL    HW285058   0.904  12.624   7.715
27721SOL     OW85059   7.877  13.861  12.422
27721SOL    HW185060   7.853  13.863  12.515
27721SOL    HW285061   7.795  13.877  12.376
27722SOL     OW85062  10.257   1.369  12.442
27722SOL    HW185063  10.300   1.453  12.428
27722SOL    HW285064  10.281   1.345  12.532
27723SOL     OW85065  14.646   7.465   2.438
27723SOL    HW185066  14.614   7.419   2.360
27723SOL    HW285067  14.613   7.413   2.511
27724SOL     OW85068  13.927   0.034  10.672
27724SOL    HW185069  14.002   0.047  10.615
27724SOL    HW285070  13.934   0.103  10.737
27725SOL     OW85071   3.418   2.050  10.976
27725SOL    HW185072   3.380   1.984  11.033
27725SOL    HW285073   3.404   2.133  11.023
27726SOL     OW85074   7.175  13.992  14.226
27726SOL    HW185075   7.130  13.936  14.163
27726SOL    HW285076   7.225  13.931  14.280
27727SOL     OW85077   7.176   4.498   2.349
27727SOL    HW185078   7.153   4.420   2.400
27727SOL    HW285079   7.179   4.467   2.258
27728SOL     OW85080   9.025   4.191   5.798
27728SOL    HW185081   8.948   4.236   5.763
27728SOL    HW285082   9.091   4.197   5.728
27729SOL     OW85083   2.151   9.391   0.830
27729SOL    HW185084   2.132   9.306   0.788
27729SOL    HW285085   2.172   9.368   0.921
27730SOL     OW85086  12.276  11.072   0.692
27730SOL    HW185087  12.323  10.988   0.687
27730SOL    HW285088  12.192  11.055   0.651
27731SOL     OW85089  10.699   4.458   4.793
27731SOL    HW185090  10.742   4.531   4.748
27731SOL    HW285091  10.765   4.426   4.856
27732SOL     OW85092   2.130   6.876   7.066
27732SOL    HW185093   2.060   6.839   7.121
27732SOL    HW285094   2.083   6.928   7.001
27733SOL     OW85095  12.905   4.013  13.321
27733SOL    HW185096  12.945   4.086  13.273
27733SOL    HW285097  12.978   3.952  13.335
27734SOL     OW85098  12.556  13.498   9.922
27734SOL    HW185099  12.488  13.440   9.956
27734SOL    HW285100  12.513  13.547   9.852
27735SOL     OW85101   3.124  11.286   2.947
27735SOL    HW185102   3.195  11.341   2.911
27735SOL    HW285103   3.049  11.305   2.892
27736SOL     OW85104   9.474   6.699   7.218
27736SOL    HW185105   9.412   6.739   7.158
27736SOL    HW285106   9.487   6.610   7.184
27737SOL     OW85107   8.093  11.339  13.421
27737SOL    HW185108   8.111  11.260  13.472
27737SOL    HW285109   8.070  11.307  13.334
27738SOL     OW85110   3.276   7.350  14.474
27738SOL    HW185111   3.291   7.329  14.382
27738SOL    HW285112   3.181   7.350  14.484
27739SOL     OW85113   2.533   3.201   0.132
27739SOL    HW185114   2.514   3.293   0.151
27739SOL    HW285115   2.626   3.200   0.107
27740SOL     OW85116   7.812  10.600   0.441
27740SOL    HW185117   7.818  10.522   0.496
27740SOL    HW285118   7.786  10.670   0.501
27741SOL     OW85119  11.160   2.653   0.178
27741SOL    HW185120  11.199   2.633   0.093
27741SOL    HW285121  11.092   2.718   0.160
27742SOL     OW85122   6.053   9.151   1.916
27742SOL    HW185123   6.100   9.211   1.974
27742SOL    HW285124   6.083   9.174   1.828
27743SOL     OW85125  13.838   3.150   4.958
27743SOL    HW185126  13.843   3.212   5.031
27743SOL    HW285127  13.924   3.154   4.917
27744SOL     OW85128   2.440  12.641   6.170
27744SOL    HW185129   2.497  12.564   6.164
27744SOL    HW285130   2.497  12.711   6.200
27745SOL     OW85131   8.441  13.079   5.824
27745SOL    HW185132   8.503  13.091   5.895
27745SOL    HW285133   8.495  13.080   5.745
27746SOL     OW85134   0.979   6.401  10.414
27746SOL    HW185135   0.904   6.367  10.366
27746SOL    HW285136   1.046   6.333  10.407
27747SOL     OW85137  12.895   7.402  14.693
27747SOL    HW185138  12.822   7.458  14.719
27747SOL    HW285139  12.855   7.329  14.647
27748SOL     OW85140  12.352  12.012   0.214
27748SOL    HW185141  12.394  12.069   0.149
27748SOL    HW285142  12.406  11.933   0.216
27749SOL     OW85143  13.542   9.741   8.600
27749SOL    HW185144  13.604   9.681   8.641
27749SOL    HW285145  13.524   9.808   8.666
27750SOL     OW85146  14.773   5.851   6.713
27750SOL    HW185147  14.706   5.919   6.719
27750SOL    HW285148  14.726   5.773   6.683
27751SOL     OW85149   2.854   4.427   1.361
27751SOL    HW185150   2.780   4.380   1.321
27751SOL    HW285151   2.873   4.499   1.301
27752SOL     OW85152   3.254   9.968   5.200
27752SOL    HW185153   3.239   9.893   5.143
27752SOL    HW285154   3.249  10.044   5.141
27753SOL     OW85155   7.685   5.448   3.062
27753SOL    HW185156   7.610   5.436   3.121
27753SOL    HW285157   7.694   5.543   3.055
27754SOL     OW85158   7.379   8.763   7.951
27754SOL    HW185159   7.317   8.794   7.884
27754SOL    HW285160   7.442   8.834   7.960
27755SOL     OW85161   7.233   8.173   5.718
27755SOL    HW185162   7.139   8.175   5.698
27755SOL    HW285163   7.237   8.170   5.813
27756SOL     OW85164   4.256  11.530   7.781
27756SOL    HW185165   4.289  11.443   7.804
27756SOL    HW285166   4.334  11.583   7.768
27757SOL     OW85167   3.911   7.807   5.608
27757SOL    HW185168   3.981   7.779   5.667
27757SOL    HW285169   3.873   7.884   5.650
27758SOL     OW85170   7.323   9.580   3.354
27758SOL    HW185171   7.253   9.526   3.319
27758SOL    HW285172   7.284   9.624   3.430
27759SOL     OW85173  12.645  10.748   0.087
27759SOL    HW185174  12.654  10.671   0.031
27759SOL    HW285175  12.731  10.790   0.085
27760SOL     OW85176   2.903   7.668  14.368
27760SOL    HW185177   2.859   7.632  14.291
27760SOL    HW285178   2.833   7.684  14.431
27761SOL     OW85179   6.061  12.705   4.842
27761SOL    HW185180   6.043  12.670   4.755
27761SOL    HW285181   6.155  12.721   4.843
27762SOL     OW85182  12.719   3.251  10.309
27762SOL    HW185183  12.645   3.234  10.367
27762SOL    HW285184  12.790   3.277  10.368
27763SOL     OW85185  13.170  13.441  12.438
27763SOL    HW185186  13.239  13.402  12.493
27763SOL    HW285187  13.177  13.395  12.355
27764SOL     OW85188   2.711   2.323   6.890
27764SOL    HW185189   2.703   2.362   6.803
27764SOL    HW285190   2.783   2.260   6.882
27765SOL     OW85191   1.569   9.121   7.179
27765SOL    HW185192   1.634   9.190   7.187
27765SOL    HW285193   1.604   9.063   7.111
27766SOL     OW85194  12.331   3.769   3.627
27766SOL    HW185195  12.410   3.728   3.661
27766SOL    HW285196  12.334   3.859   3.661
27767SOL     OW85197   9.198   5.031  10.351
27767SOL    HW185198   9.229   5.108  10.398
27767SOL    HW285199   9.183   4.965  10.419
27768SOL     OW85200   9.980  11.789   1.930
27768SOL    HW185201   9.928  11.722   1.884
27768SOL    HW285202  10.042  11.738   1.983
27769SOL     OW85203   7.049   9.747   3.893
27769SOL    HW185204   7.092   9.669   3.929
27769SOL    HW285205   7.114   9.816   3.903
27770SOL     OW85206   2.897   6.550   9.995
27770SOL    HW185207   2.913   6.471   9.943
27770SOL    HW285208   2.954   6.541  10.071
27771SOL     OW85209   7.805   0.947   5.064
27771SOL    HW185210   7.735   0.884   5.050
27771SOL    HW285211   7.776   1.000   5.138
27772SOL     OW85212   2.288  10.121   0.653
27772SOL    HW185213   2.292  10.102   0.559
27772SOL    HW285214   2.304  10.216   0.659
27773SOL     OW85215   2.103   8.191   4.086
27773SOL    HW185216   2.167   8.201   4.156
27773SOL    HW285217   2.114   8.270   4.032
27774SOL     OW85218  12.825  11.218   0.507
27774SOL    HW185219  12.807  11.215   0.413
27774SOL    HW285220  12.834  11.126   0.533
27775SOL     OW85221   4.447   0.206  13.627
27775SOL    HW185222   4.436   0.290  13.583
27775SOL    HW285223   4.391   0.213  13.704
27776SOL     OW85224  14.403  13.633   5.484
27776SOL    HW185225  14.352  13.591   5.415
27776SOL    HW285226  14.394  13.726   5.467
27777SOL     OW85227   7.561   0.338  13.757
27777SOL    HW185228   7.503   0.395  13.807
27777SOL    HW285229   7.602   0.396  13.693
27778SOL     OW85230   7.180   1.611  14.805
27778SOL    HW185231   7.107   1.673  14.800
27778SOL    HW285232   7.217   1.610  14.717
27779SOL     OW85233  12.940   7.013  12.437
27779SOL    HW185234  12.903   6.957  12.505
27779SOL    HW285235  12.983   6.953  12.376
27780SOL     OW85236  10.498  10.061   0.007
27780SOL    HW185237  10.524  10.125  14.818
27780SOL    HW285238  10.461   9.988  14.834
27781SOL     OW85239  11.346  12.192   0.776
27781SOL    HW185240  11.403  12.207   0.700
27781SOL    HW285241  11.262  12.229   0.750
27782SOL     OW85242   6.886   7.587   9.087
27782SOL    HW185243   6.895   7.537   9.006
27782SOL    HW285244   6.860   7.674   9.059
27783SOL     OW85245  11.967   6.246   1.368
27783SOL    HW185246  11.912   6.192   1.311
27783SOL    HW285247  11.949   6.336   1.340
27784SOL     OW85248   6.549  12.293   1.365
27784SOL    HW185249   6.513  12.380   1.352
27784SOL    HW285250   6.520  12.243   1.289
27785SOL     OW85251   2.744   6.864  12.276
27785SOL    HW185252   2.710   6.861  12.187
27785SOL    HW285253   2.669   6.887  12.331
27786SOL     OW85254   1.671   7.394   0.620
27786SOL    HW185255   1.719   7.372   0.700
27786SOL    HW285256   1.580   7.374   0.641
27787SOL     OW85257   0.313   2.186   9.235
27787SOL    HW185258   0.296   2.263   9.289
27787SOL    HW285259   0.259   2.117   9.273
27788SOL     OW85260  10.218   4.492   6.644
27788SOL    HW185261  10.171   4.569   6.675
27788SOL    HW285262  10.176   4.469   6.561
27789SOL     OW85263   5.401  12.987  13.247
27789SOL    HW185264   5.477  13.006  13.192
27789SOL    HW285265   5.333  13.048  13.216
27790SOL     OW85266  10.178   2.495  11.589
27790SOL    HW185267  10.123   2.440  11.644
27790SOL    HW285268  10.244   2.530  11.649
27791SOL     OW85269   4.210   2.709  14.271
27791SOL    HW185270   4.257   2.692  14.353
27791SOL    HW285271   4.245   2.644  14.210
27792SOL     OW85272   6.407   8.766   0.769
27792SOL    HW185273   6.476   8.745   0.832
27792SOL    HW285274   6.325   8.754   0.818
27793SOL     OW85275   5.451  14.381  11.984
27793SOL    HW185276   5.451  14.357  12.076
27793SOL    HW285277   5.542  14.402  11.965
27794SOL     OW85278  13.485  11.291  14.459
27794SOL    HW185279  13.556  11.349  14.430
27794SOL    HW285280  13.408  11.348  14.462
27795SOL     OW85281   4.286  14.671  14.327
27795SOL    HW185282   4.297  14.580  14.299
27795SOL    HW285283   4.191  14.682  14.334
27796SOL     OW85284   4.949  10.305   7.443
27796SOL    HW185285   4.868  10.311   7.392
27796SOL    HW285286   5.012  10.262   7.385
27797SOL     OW85287   4.088   3.894   3.598
27797SOL    HW185288   4.181   3.870   3.598
27797SOL    HW285289   4.046   3.828   3.543
27798SOL     OW85290   0.699   1.502   1.442
27798SOL    HW185291   0.721   1.423   1.393
27798SOL    HW285292   0.636   1.473   1.508
27799SOL     OW85293   1.100  12.692  11.520
27799SOL    HW185294   1.162  12.623  11.541
27799SOL    HW285295   1.015  12.657  11.547
27800SOL     OW85296   3.727   9.016   5.162
27800SOL    HW185297   3.763   8.958   5.095
27800SOL    HW285298   3.714   8.960   5.239
27801SOL     OW85299   2.283  14.729   7.768
27801SOL    HW185300   2.308  14.669   7.697
27801SOL    HW285301   2.343  14.803   7.759
27802SOL     OW85302  12.994   5.497   8.909
27802SOL    HW185303  13.003   5.557   8.834
27802SOL    HW285304  12.936   5.542   8.969
27803SOL     OW85305   2.157   4.348   2.454
27803SOL    HW185306   2.099   4.414   2.416
27803SOL    HW285307   2.097   4.286   2.497
27804SOL     OW85308   4.738  11.242   5.157
27804SOL    HW185309   4.781  11.197   5.230
27804SOL    HW285310   4.749  11.335   5.177
27805SOL     OW85311  13.442   0.221   9.791
27805SOL    HW185312  13.408   0.132   9.796
27805SOL    HW285313  13.527   0.212   9.749
27806SOL     OW85314   0.012   1.715  10.917
27806SOL    HW185315   0.053   1.705  11.002
27806SOL    HW285316   0.004   1.810  10.905
27807SOL     OW85317  14.540   8.856   0.062
27807SOL    HW185318  14.454   8.878   0.097
27807SOL    HW285319  14.590   8.828   0.139
27808SOL     OW85320   9.850   7.962   3.176
27808SOL    HW185321   9.789   8.004   3.237
27808SOL    HW285322   9.861   7.874   3.210
27809SOL     OW85323   7.925  12.459   1.637
27809SOL    HW185324   7.877  12.515   1.698
27809SOL    HW285325   7.860  12.394   1.610
27810SOL     OW85326  12.219   2.922  13.869
27810SOL    HW185327  12.258   2.985  13.809
27810SOL    HW285328  12.265   2.839  13.851
27811SOL     OW85329   1.226   4.647  10.646
27811SOL    HW185330   1.205   4.619  10.735
27811SOL    HW285331   1.156   4.708  10.623
27812SOL     OW85332   2.260   5.879   5.856
27812SOL    HW185333   2.208   5.956   5.834
27812SOL    HW285334   2.200   5.823   5.906
27813SOL     OW85335   2.450   0.241   3.284
27813SOL    HW185336   2.408   0.156   3.299
27813SOL    HW285337   2.406   0.277   3.207
27814SOL     OW85338   1.354   5.245  14.426
27814SOL    HW185339   1.290   5.288  14.483
27814SOL    HW285340   1.326   5.267  14.338
27815SOL     OW85341  10.435   6.223   9.818
27815SOL    HW185342  10.480   6.140   9.805
27815SOL    HW285343  10.342   6.200   9.821
27816SOL     OW85344   0.384   3.379   2.805
27816SOL    HW185345   0.384   3.378   2.709
27816SOL    HW285346   0.311   3.437   2.828
27817SOL     OW85347   8.813   3.881   8.612
27817SOL    HW185348   8.805   3.939   8.535
27817SOL    HW285349   8.799   3.793   8.577
27818SOL     OW85350  10.031   9.799  12.323
27818SOL    HW185351   9.965   9.868  12.332
27818SOL    HW285352   9.983   9.717  12.334
27819SOL     OW85353   3.465   4.728  10.656
27819SOL    HW185354   3.495   4.669  10.726
27819SOL    HW285355   3.381   4.690  10.627
27820SOL     OW85356  10.123   9.501   0.375
27820SOL    HW185357  10.055   9.552   0.332
27820SOL    HW285358  10.135   9.544   0.460
27821SOL     OW85359  14.698   5.021  12.638
27821SOL    HW185360  14.649   5.094  12.600
27821SOL    HW285361  14.645   4.993  12.713
27822SOL     OW85362   7.360   3.189   1.698
27822SOL    HW185363   7.312   3.271   1.712
27822SOL    HW285364   7.385   3.192   1.605
27823SOL     OW85365   4.369   0.008   9.337
27823SOL    HW185366   4.452  14.838   9.335
27823SOL    HW285367   4.360   0.045   9.249
27824SOL     OW85368   6.763   7.507   5.819
27824SOL    HW185369   6.763   7.438   5.753
27824SOL    HW285370   6.802   7.466   5.896
27825SOL     OW85371   4.210   2.833   3.415
27825SOL    HW185372   4.194   2.740   3.398
27825SOL    HW285373   4.170   2.878   3.340
27826SOL     OW85374   1.332  12.910  14.289
27826SOL    HW185375   1.381  12.928  14.209
27826SOL    HW285376   1.329  12.994  14.335
27827SOL     OW85377   8.071  14.538  10.751
27827SOL    HW185378   8.078  14.594  10.674
27827SOL    HW285379   8.012  14.467  10.725
27828SOL     OW85380   2.453   8.462  10.565
27828SOL    HW185381   2.388   8.480  10.498
27828SOL    HW285382   2.537   8.475  10.522
27829SOL     OW85383  14.026   5.930  11.144
27829SOL    HW185384  13.966   5.932  11.219
27829SOL    HW285385  14.067   5.844  11.149
27830SOL     OW85386   3.774   0.663   2.463
27830SOL    HW185387   3.710   0.675   2.533
27830SOL    HW285388   3.772   0.569   2.445
27831SOL     OW85389   3.215  14.376  14.802
27831SOL    HW185390   3.180  14.301  14.754
27831SOL    HW285391   3.206  14.352   0.016
27832SOL     OW85392   2.364   7.610   2.251
27832SOL    HW185393   2.392   7.666   2.322
27832SOL    HW285394   2.437   7.549   2.238
27833SOL     OW85395   8.300   1.967  10.330
27833SOL    HW185396   8.263   1.891  10.285
27833SOL    HW285397   8.370   1.996  10.272
27834SOL     OW85398   9.460   4.021  12.509
27834SOL    HW185399   9.459   4.098  12.452
27834SOL    HW285400   9.550   3.988  12.503
27835SOL     OW85401   1.490   6.984   8.704
27835SOL    HW185402   1.506   6.903   8.752
27835SOL    HW285403   1.549   6.980   8.628
27836SOL     OW85404  10.254   7.257  10.576
27836SOL    HW185405  10.223   7.168  10.593
27836SOL    HW285406  10.199   7.288  10.504
27837SOL     OW85407  14.123   0.857  14.833
27837SOL    HW185408  14.163   0.938  14.864
27837SOL    HW285409  14.198   0.801  14.809
27838SOL     OW85410   7.395   2.409   2.113
27838SOL    HW185411   7.423   2.370   2.196
27838SOL    HW285412   7.406   2.504   2.127
27839SOL     OW85413   2.141  11.287  13.103
27839SOL    HW185414   2.227  11.322  13.077
27839SOL    HW285415   2.161  11.213  13.160
27840SOL     OW85416   6.219   1.308   2.751
27840SOL    HW185417   6.124   1.295   2.742
27840SOL    HW285418   6.253   1.298   2.662
27841SOL     OW85419  11.914  12.902  14.651
27841SOL    HW185420  11.977  12.962  14.691
27841SOL    HW285421  11.964  12.821  14.636
27842SOL     OW85422  13.672   6.548   3.799
27842SOL    HW185423  13.582   6.528   3.824
27842SOL    HW285424  13.682   6.641   3.820
27843SOL     OW85425   0.625  10.238   0.568
27843SOL    HW185426   0.571  10.184   0.626
27843SOL    HW285427   0.609  10.204   0.480
27844SOL     OW85428   3.411   4.695   8.638
27844SOL    HW185429   3.490   4.686   8.691
27844SOL    HW285430   3.350   4.744   8.693
27845SOL     OW85431   6.645   4.974   6.308
27845SOL    HW185432   6.726   4.953   6.260
27845SOL    HW285433   6.667   5.051   6.360
27846SOL     OW85434  14.181   6.116   4.892
27846SOL    HW185435  14.238   6.176   4.844
27846SOL    HW285436  14.213   6.029   4.869
27847SOL     OW85437  12.840  13.301  11.328
27847SOL    HW185438  12.765  13.351  11.297
27847SOL    HW285439  12.804  13.242  11.395
27848SOL     OW85440   1.150   9.778   0.761
27848SOL    HW185441   1.143   9.762   0.855
27848SOL    HW285442   1.230   9.829   0.751
27849SOL     OW85443   6.674   8.063   7.348
27849SOL    HW185444   6.684   8.047   7.442
27849SOL    HW285445   6.651   7.978   7.312
27850SOL     OW85446  13.394  13.099  11.293
27850SOL    HW185447  13.439  13.052  11.363
27850SOL    HW285448  13.350  13.031  11.243
27851SOL     OW85449   2.033   8.128  10.108
27851SOL    HW185450   2.074   8.104  10.024
27851SOL    HW285451   2.097   8.184  10.150
27852SOL     OW85452   0.348   2.173   7.416
27852SOL    HW185453   0.299   2.093   7.395
27852SOL    HW285454   0.439   2.150   7.401
27853SOL     OW85455   5.091  13.933   4.408
27853SOL    HW185456   5.097  13.953   4.315
27853SOL    HW285457   5.011  13.977   4.436
27854SOL     OW85458   5.860   0.947   9.688
27854SOL    HW185459   5.785   1.005   9.703
27854SOL    HW285460   5.828   0.884   9.623
27855SOL     OW85461   7.548   1.185  10.117
27855SOL    HW185462   7.473   1.156  10.168
27855SOL    HW285463   7.623   1.174  10.175
27856SOL     OW85464   0.685   9.253  14.018
27856SOL    HW185465   0.646   9.248  14.105
27856SOL    HW285466   0.612   9.239  13.958
27857SOL     OW85467  10.517  13.731   8.787
27857SOL    HW185468  10.522  13.700   8.697
27857SOL    HW285469  10.559  13.817   8.785
27858SOL     OW85470  14.725  14.410   1.039
27858SOL    HW185471  14.713  14.370   1.125
27858SOL    HW285472  14.743  14.502   1.057
27859SOL     OW85473   9.957   3.335  11.790
27859SOL    HW185474   9.929   3.396  11.857
27859SOL    HW285475  10.040   3.370  11.758
27860SOL     OW85476  11.113  11.792   3.181
27860SOL    HW185477  11.185  11.804   3.243
27860SOL    HW285478  11.117  11.699   3.157
27861SOL     OW85479   5.441   7.454   5.545
27861SOL    HW185480   5.402   7.463   5.457
27861SOL    HW285481   5.525   7.498   5.538
27862SOL     OW85482  13.829   3.752   9.145
27862SOL    HW185483  13.876   3.813   9.088
27862SOL    HW285484  13.794   3.807   9.215
27863SOL     OW85485   2.149   7.405   2.284
27863SOL    HW185486   2.178   7.468   2.350
27863SOL    HW285487   2.149   7.454   2.202
27864SOL     OW85488   9.431  13.198   9.350
27864SOL    HW185489   9.387  13.269   9.304
27864SOL    HW285490   9.449  13.233   9.437
27865SOL     OW85491   2.376   5.861   2.390
27865SOL    HW185492   2.281   5.852   2.383
27865SOL    HW285493   2.397   5.937   2.335
27866SOL     OW85494  14.509   1.655   5.488
27866SOL    HW185495  14.467   1.739   5.470
27866SOL    HW285496  14.437   1.593   5.498
27867SOL     OW85497   7.458  13.262  14.799
27867SOL    HW185498   7.385  13.219  14.755
27867SOL    HW285499   7.467  13.214   0.004
27868SOL     OW85500   7.158  10.144   5.489
27868SOL    HW185501   7.216  10.219   5.500
27868SOL    HW285502   7.162  10.098   5.573
27869SOL     OW85503   4.222  14.091   3.208
27869SOL    HW185504   4.168  14.102   3.286
27869SOL    HW285505   4.265  14.006   3.219
27870SOL     OW85506  11.023   9.403  10.055
27870SOL    HW185507  10.929   9.398  10.072
27870SOL    HW285508  11.063   9.421  10.140
27871SOL     OW85509   7.742  10.228   6.325
27871SOL    HW185510   7.814  10.248   6.384
27871SOL    HW285511   7.718  10.138   6.346
27872SOL     OW85512  11.381  12.201   3.746
27872SOL    HW185513  11.385  12.115   3.787
27872SOL    HW285514  11.418  12.187   3.658
27873SOL     OW85515  12.773   2.769   3.273
27873SOL    HW185516  12.690   2.780   3.227
27873SOL    HW285517  12.836   2.749   3.205
27874SOL     OW85518  10.278  10.873   5.473
27874SOL    HW185519  10.247  10.961   5.494
27874SOL    HW285520  10.351  10.887   5.413
27875SOL     OW85521  12.766  10.361   0.234
27875SOL    HW185522  12.773  10.266   0.226
27875SOL    HW285523  12.741  10.391   0.147
27876SOL     OW85524   2.036   9.367   3.543
27876SOL    HW185525   2.026   9.440   3.604
27876SOL    HW285526   1.948   9.355   3.506
27877SOL     OW85527  10.238  13.241  12.820
27877SOL    HW185528  10.303  13.266  12.754
27877SOL    HW285529  10.158  13.225  12.769
27878SOL     OW85530   9.309   9.859  14.751
27878SOL    HW185531   9.334   9.770  14.775
27878SOL    HW285532   9.216   9.865  14.773
27879SOL     OW85533   8.797   6.746   1.131
27879SOL    HW185534   8.767   6.746   1.040
27879SOL    HW285535   8.893   6.739   1.124
27880SOL     OW85536   0.149  11.979   9.779
27880SOL    HW185537   0.131  12.026   9.698
27880SOL    HW285538   0.217  11.916   9.755
27881SOL     OW85539  13.687   0.156   9.355
27881SOL    HW185540  13.620   0.109   9.305
27881SOL    HW285541  13.650   0.164   9.443
27882SOL     OW85542   8.161   2.607   1.899
27882SOL    HW185543   8.078   2.605   1.948
27882SOL    HW285544   8.221   2.557   1.953
27883SOL     OW85545   5.178   6.610  10.272
27883SOL    HW185546   5.250   6.625  10.210
27883SOL    HW285547   5.200   6.525  10.312
27884SOL     OW85548   0.999   7.874   8.738
27884SOL    HW185549   0.939   7.851   8.810
27884SOL    HW285550   0.960   7.832   8.661
27885SOL     OW85551  10.934   2.999  10.798
27885SOL    HW185552  10.962   3.022  10.887
27885SOL    HW285553  11.003   3.036  10.742
27886SOL     OW85554  13.594  14.633   4.203
27886SOL    HW185555  13.642  14.591   4.132
27886SOL    HW285556  13.507  14.649   4.167
27887SOL     OW85557  11.385   5.569   4.579
27887SOL    HW185558  11.408   5.595   4.668
27887SOL    HW285559  11.371   5.651   4.532
27888SOL     OW85560  12.164   0.591   2.467
27888SOL    HW185561  12.217   0.581   2.546
27888SOL    HW285562  12.077   0.561   2.493
27889SOL     OW85563   6.233   6.867   2.869
27889SOL    HW185564   6.304   6.804   2.875
27889SOL    HW285565   6.162   6.829   2.920
27890SOL     OW85566   7.041   9.459  12.510
27890SOL    HW185567   7.000   9.378  12.541
27890SOL    HW285568   6.969   9.521  12.505
27891SOL     OW85569   7.309   4.431   6.253
27891SOL    HW185570   7.390   4.469   6.287
27891SOL    HW285571   7.311   4.340   6.282
27892SOL     OW85572  13.801   1.142   3.380
27892SOL    HW185573  13.751   1.061   3.373
27892SOL    HW285574  13.784   1.174   3.468
27893SOL     OW85575  14.161   8.617   3.952
27893SOL    HW185576  14.148   8.652   3.864
27893SOL    HW285577  14.109   8.537   3.954
27894SOL     OW85578   8.943   9.376  10.134
27894SOL    HW185579   8.881   9.422  10.190
27894SOL    HW285580   8.901   9.375  10.048
27895SOL     OW85581  12.380   0.853   9.220
27895SOL    HW185582  12.392   0.817   9.132
27895SOL    HW285583  12.430   0.935   9.219
27896SOL     OW85584  14.361   6.388   7.309
27896SOL    HW185585  14.328   6.476   7.292
27896SOL    HW285586  14.377   6.386   7.403
27897SOL     OW85587   2.138   6.151   3.703
27897SOL    HW185588   2.202   6.091   3.741
27897SOL    HW285589   2.117   6.211   3.775
27898SOL     OW85590   1.160  10.413  13.964
27898SOL    HW185591   1.213  10.338  13.936
27898SOL    HW285592   1.117  10.383  14.044
27899SOL     OW85593   3.398  12.002  11.739
27899SOL    HW185594   3.489  12.031  11.748
27899SOL    HW285595   3.357  12.069  11.684
27900SOL     OW85596   3.324   3.596   7.022
27900SOL    HW185597   3.372   3.677   7.003
27900SOL    HW285598   3.383   3.548   7.080
27901SOL     OW85599   0.954   9.989   4.233
27901SOL    HW185600   0.877  10.014   4.284
27901SOL    HW285601   1.022   9.974   4.298
27902SOL     OW85602   5.982   2.139   6.564
27902SOL    HW185603   6.030   2.066   6.524
27902SOL    HW285604   5.943   2.101   6.643
27903SOL     OW85605   8.181  10.898  11.437
27903SOL    HW185606   8.199  10.989  11.414
27903SOL    HW285607   8.092  10.882  11.404
27904SOL     OW85608   4.433   9.811   6.013
27904SOL    HW185609   4.339   9.828   6.005
27904SOL    HW285610   4.467   9.888   6.059
27905SOL     OW85611   8.364   0.231  13.328
27905SOL    HW185612   8.376   0.273  13.413
27905SOL    HW285613   8.451   0.197  13.306
27906SOL     OW85614   3.538   9.408   8.167
27906SOL    HW185615   3.607   9.467   8.136
27906SOL    HW285616   3.557   9.396   8.260
27907SOL     OW85617   9.579   3.623   2.562
27907SOL    HW185618   9.582   3.656   2.652
27907SOL    HW285619   9.493   3.650   2.530
27908SOL     OW85620  11.832   3.852   8.019
27908SOL    HW185621  11.744   3.881   8.044
27908SOL    HW285622  11.818   3.801   7.939
27909SOL     OW85623   0.086  14.597   1.296
27909SOL    HW185624   0.050  14.685   1.286
27909SOL    HW285625   0.018  14.539   1.262
27910SOL     OW85626   8.899   4.003  11.182
27910SOL    HW185627   8.804   3.995  11.191
27910SOL    HW285628   8.934   3.971  11.265
27911SOL     OW85629   1.547   8.972  13.052
27911SOL    HW185630   1.564   9.041  13.115
27911SOL    HW285631   1.464   8.996  13.011
27912SOL     OW85632   8.147   4.676  13.432
27912SOL    HW185633   8.122   4.747  13.373
27912SOL    HW285634   8.072   4.616  13.429
27913SOL     OW85635   8.817   4.048   8.392
27913SOL    HW185636   8.807   4.143   8.400
27913SOL    HW285637   8.792   4.029   8.301
27914SOL     OW85638  12.201  11.748   6.810
27914SOL    HW185639  12.218  11.799   6.731
27914SOL    HW285640  12.283  11.703   6.828
27915SOL     OW85641  10.713  10.949   9.828
27915SOL    HW185642  10.708  11.034   9.785
27915SOL    HW285643  10.799  10.948   9.870
27916SOL     OW85644  13.663   7.684   7.613
27916SOL    HW185645  13.719   7.662   7.687
27916SOL    HW285646  13.722   7.723   7.549
27917SOL     OW85647   7.475   1.485   8.436
27917SOL    HW185648   7.512   1.403   8.468
27917SOL    HW285649   7.438   1.527   8.514
27918SOL     OW85650   2.454   6.819  10.631
27918SOL    HW185651   2.407   6.744  10.669
27918SOL    HW285652   2.386   6.870  10.587
27919SOL     OW85653   0.554   2.066  12.969
27919SOL    HW185654   0.534   2.153  12.934
27919SOL    HW285655   0.483   2.047  13.030
27920SOL     OW85656   7.003  14.010   0.901
27920SOL    HW185657   7.034  13.921   0.881
27920SOL    HW285658   7.010  14.057   0.818
27921SOL     OW85659  11.190   6.778  14.209
27921SOL    HW185660  11.159   6.763  14.298
27921SOL    HW285661  11.277   6.817  14.221
27922SOL     OW85662   6.716   4.564  13.369
27922SOL    HW185663   6.715   4.528  13.280
27922SOL    HW285664   6.798   4.532  13.407
27923SOL     OW85665   0.609   2.926   0.037
27923SOL    HW185666   0.672   2.950   0.105
27923SOL    HW285667   0.638   2.840   0.006
27924SOL     OW85668   7.437   7.931   5.121
27924SOL    HW185669   7.478   7.892   5.044
27924SOL    HW285670   7.480   8.017   5.130
27925SOL     OW85671  13.651  12.678  12.992
27925SOL    HW185672  13.614  12.604  12.943
27925SOL    HW285673  13.576  12.717  13.037
27926SOL     OW85674   9.355   2.446  11.172
27926SOL    HW185675   9.310   2.488  11.245
27926SOL    HW285676   9.296   2.457  11.098
27927SOL     OW85677  14.706  10.619   1.370
27927SOL    HW185678  14.757  10.700   1.370
27927SOL    HW285679  14.768  10.551   1.345
27928SOL     OW85680  11.033  13.507  14.122
27928SOL    HW185681  11.027  13.555  14.205
27928SOL    HW285682  11.108  13.544  14.078
27929SOL     OW85683   4.597  11.072   3.117
27929SOL    HW185684   4.665  11.047   3.179
27929SOL    HW285685   4.645  11.109   3.043
27930SOL     OW85686  14.509  10.898  10.575
27930SOL    HW185687  14.542  10.820  10.621
27930SOL    HW285688  14.425  10.869  10.538
27931SOL     OW85689   8.789   0.116  12.406
27931SOL    HW185690   8.825   0.064  12.335
27931SOL    HW285691   8.798   0.207  12.376
27932SOL     OW85692   3.361   8.849  11.242
27932SOL    HW185693   3.321   8.908  11.178
27932SOL    HW285694   3.444   8.823  11.202
27933SOL     OW85695  14.261   7.310   2.508
27933SOL    HW185696  14.349   7.322   2.543
27933SOL    HW285697  14.228   7.399   2.495
27934SOL     OW85698   9.915  13.452   0.556
27934SOL    HW185699   9.927  13.455   0.651
27934SOL    HW285700   9.852  13.522   0.538
27935SOL     OW85701  13.295   5.733  13.516
27935SOL    HW185702  13.338   5.772  13.593
27935SOL    HW285703  13.360   5.739  13.446
27936SOL     OW85704   4.577   0.146   1.607
27936SOL    HW185705   4.484   0.124   1.618
27936SOL    HW285706   4.621   0.062   1.597
27937SOL     OW85707  13.879  11.133   6.707
27937SOL    HW185708  13.796  11.098   6.737
27937SOL    HW285709  13.915  11.064   6.652
27938SOL     OW85710  12.707   9.598  11.932
27938SOL    HW185711  12.802   9.603  11.937
27938SOL    HW285712  12.685   9.631  11.845
27939SOL     OW85713  14.144   4.414  11.746
27939SOL    HW185714  14.184   4.368  11.672
27939SOL    HW285715  14.102   4.345  11.797
27940SOL     OW85716  10.522   8.540   9.415
27940SOL    HW185717  10.490   8.455   9.444
27940SOL    HW285718  10.615   8.542   9.441
27941SOL     OW85719   1.740  13.722  12.507
27941SOL    HW185720   1.728  13.700  12.415
27941SOL    HW285721   1.732  13.638  12.553
27942SOL     OW85722  13.031   3.946   6.460
27942SOL    HW185723  13.029   3.971   6.552
27942SOL    HW285724  13.077   3.861   6.459
27943SOL     OW85725   2.640   4.648  11.549
27943SOL    HW185726   2.566   4.705  11.569
27943SOL    HW285727   2.702   4.664  11.620
27944SOL     OW85728   7.854   6.467   3.161
27944SOL    HW185729   7.769   6.432   3.135
27944SOL    HW285730   7.834   6.531   3.229
27945SOL     OW85731  11.842   2.027   7.189
27945SOL    HW185732  11.781   2.038   7.116
27945SOL    HW285733  11.921   2.075   7.160
27946SOL     OW85734   7.813   1.417   5.819
27946SOL    HW185735   7.719   1.433   5.820
27946SOL    HW285736   7.831   1.380   5.733
27947SOL     OW85737   0.276  10.267   9.508
27947SOL    HW185738   0.347  10.221   9.552
27947SOL    HW285739   0.319  10.342   9.465
27948SOL     OW85740  14.057  11.444  13.518
27948SOL    HW185741  14.004  11.458  13.440
27948SOL    HW285742  14.098  11.359  13.504
27949SOL     OW85743  11.048   9.446  13.266
27949SOL    HW185744  10.996   9.398  13.202
27949SOL    HW285745  11.015   9.536  13.263
27950SOL     OW85746  14.103   1.434  11.122
27950SOL    HW185747  14.165   1.362  11.108
27950SOL    HW285748  14.072   1.456  11.035
27951SOL     OW85749   9.416   0.506   1.113
27951SOL    HW185750   9.332   0.499   1.068
27951SOL    HW285751   9.414   0.591   1.156
27952SOL     OW85752  13.285  12.767  12.282
27952SOL    HW185753  13.253  12.685  12.320
27952SOL    HW285754  13.341  12.740  12.209
27953SOL     OW85755   9.187   1.390  10.496
27953SOL    HW185756   9.263   1.343  10.528
27953SOL    HW285757   9.218   1.479  10.481
27954SOL     OW85758   0.182  14.755  14.338
27954SOL    HW185759   0.134  14.783  14.416
27954SOL    HW285760   0.213  14.837  14.299
27955SOL     OW85761  10.055   3.641   0.149
27955SOL    HW185762  10.070   3.724   0.194
27955SOL    HW285763  10.122   3.582   0.183
27956SOL     OW85764   5.183   6.414   9.314
27956SOL    HW185765   5.171   6.351   9.385
27956SOL    HW285766   5.275   6.407   9.291
27957SOL     OW85767   5.611   8.383  14.251
27957SOL    HW185768   5.558   8.348  14.322
27957SOL    HW285769   5.701   8.365  14.278
27958SOL     OW85770  14.835   3.721  10.545
27958SOL    HW185771  14.763   3.711  10.607
27958SOL    HW285772   0.027   3.764  10.595
27959SOL     OW85773  14.380   9.092   6.678
27959SOL    HW185774  14.389   9.169   6.734
27959SOL    HW285775  14.317   9.118   6.611
27960SOL     OW85776   7.657  11.887   2.324
27960SOL    HW185777   7.651  11.982   2.323
27960SOL    HW285778   7.744  11.868   2.360
27961SOL     OW85779   6.049   0.318  13.857
27961SOL    HW185780   5.972   0.344  13.808
27961SOL    HW285781   6.121   0.326  13.795
27962SOL     OW85782   2.417   1.017   1.057
27962SOL    HW185783   2.478   0.950   1.087
27962SOL    HW285784   2.395   1.066   1.136
27963SOL     OW85785   7.214   0.511   6.928
27963SOL    HW185786   7.250   0.424   6.948
27963SOL    HW285787   7.246   0.567   6.999
27964SOL     OW85788   3.905   0.419  11.589
27964SOL    HW185789   3.975   0.361  11.558
27964SOL    HW285790   3.933   0.446  11.677
27965SOL     OW85791   7.597   3.941  11.410
27965SOL    HW185792   7.543   3.913  11.336
27965SOL    HW285793   7.537   3.986  11.469
27966SOL     OW85794  12.329   4.256   8.080
27966SOL    HW185795  12.306   4.170   8.115
27966SOL    HW285796  12.421   4.248   8.053
27967SOL     OW85797   0.151  13.635  14.697
27967SOL    HW185798   0.175  13.640  14.790
27967SOL    HW285799   0.205  13.563  14.663
27968SOL     OW85800  12.872   0.317   8.834
27968SOL    HW185801  12.844   0.345   8.747
27968SOL    HW285802  12.906   0.229   8.821
27969SOL     OW85803   3.875   9.332   6.681
27969SOL    HW185804   3.808   9.397   6.659
27969SOL    HW285805   3.910   9.305   6.596
27970SOL     OW85806  11.545  12.669  12.505
27970SOL    HW185807  11.555  12.662  12.600
27970SOL    HW285808  11.466  12.720  12.492
27971SOL     OW85809   3.687   8.896   5.930
27971SOL    HW185810   3.761   8.875   5.987
27971SOL    HW285811   3.679   8.991   5.937
27972SOL     OW85812   5.925   2.767   7.643
27972SOL    HW185813   5.957   2.801   7.726
27972SOL    HW285814   5.940   2.839   7.580
27973SOL     OW85815   1.949  14.410   9.169
27973SOL    HW185816   1.931  14.353   9.094
27973SOL    HW285817   1.891  14.485   9.156
27974SOL     OW85818   8.386   0.258  14.809
27974SOL    HW185819   8.445   0.193  14.770
27974SOL    HW285820   8.320   0.275  14.742
27975SOL     OW85821  13.309  13.178  12.549
27975SOL    HW185822  13.237  13.176  12.612
27975SOL    HW285823  13.336  13.086  12.542
27976SOL     OW85824  13.868  11.544   1.625
27976SOL    HW185825  13.820  11.478   1.576
27976SOL    HW285826  13.810  11.568   1.697
27977SOL     OW85827  10.422   8.253   7.612
27977SOL    HW185828  10.496   8.230   7.555
27977SOL    HW285829  10.421   8.184   7.678
27978SOL     OW85830   6.606   4.245   8.757
27978SOL    HW185831   6.629   4.270   8.847
27978SOL    HW285832   6.540   4.310   8.730
27979SOL     OW85833  13.639   1.859  11.984
27979SOL    HW185834  13.620   1.933  12.042
27979SOL    HW285835  13.595   1.784  12.025
27980SOL     OW85836   0.161  14.102   2.508
27980SOL    HW185837   0.186  14.192   2.488
27980SOL    HW285838   0.132  14.105   2.600
27981SOL     OW85839  12.832   6.025   5.252
27981SOL    HW185840  12.831   6.118   5.274
27981SOL    HW285841  12.883   5.985   5.322
27982SOL     OW85842   9.680  11.444   2.110
27982SOL    HW185843   9.730  11.391   2.048
27982SOL    HW285844   9.610  11.483   2.057
27983SOL     OW85845   3.303   8.801   6.696
27983SOL    HW185846   3.317   8.709   6.677
27983SOL    HW285847   3.227   8.802   6.754
27984SOL     OW85848  13.809  12.546   7.156
27984SOL    HW185849  13.786  12.456   7.178
27984SOL    HW285850  13.897  12.540   7.120
27985SOL     OW85851   3.833  11.360   6.012
27985SOL    HW185852   3.856  11.273   6.046
27985SOL    HW285853   3.879  11.366   5.929
27986SOL     OW85854   3.232  10.369   2.131
27986SOL    HW185855   3.158  10.350   2.073
27986SOL    HW285856   3.308  10.330   2.088
27987SOL     OW85857   9.790  11.474   6.395
27987SOL    HW185858   9.804  11.449   6.303
27987SOL    HW285859   9.718  11.536   6.392
27988SOL     OW85860   0.644  10.367   0.047
27988SOL    HW185861   0.621  10.388   0.137
27988SOL    HW285862   0.680  10.278   0.052
27989SOL     OW85863  11.456  13.294   2.035
27989SOL    HW185864  11.396  13.356   2.076
27989SOL    HW285865  11.505  13.347   1.972
27990SOL     OW85866   9.909   1.780   4.258
27990SOL    HW185867   9.938   1.841   4.325
27990SOL    HW285868   9.971   1.792   4.186
27991SOL     OW85869  13.784   5.041   8.618
27991SOL    HW185870  13.776   5.131   8.651
27991SOL    HW285871  13.791   4.987   8.696
27992SOL     OW85872   3.727   9.293   4.406
27992SOL    HW185873   3.800   9.279   4.346
27992SOL    HW285874   3.752   9.246   4.486
27993SOL     OW85875  11.161   0.408   8.984
27993SOL    HW185876  11.122   0.493   9.005
27993SOL    HW285877  11.189   0.416   8.893
27994SOL     OW85878   0.117  11.871   6.089
27994SOL    HW185879   0.069  11.819   6.024
27994SOL    HW285880   0.136  11.809   6.159
27995SOL     OW85881   9.418   9.467   2.766
27995SOL    HW185882   9.364   9.476   2.687
27995SOL    HW285883   9.415   9.554   2.806
27996SOL     OW85884   8.268   7.853  13.207
27996SOL    HW185885   8.229   7.785  13.261
27996SOL    HW285886   8.275   7.929  13.265
27997SOL     OW85887   4.898  10.056   6.218
27997SOL    HW185888   4.869   9.985   6.161
27997SOL    HW285889   4.895  10.020   6.306
27998SOL     OW85890  10.659   1.290   9.458
27998SOL    HW185891  10.716   1.257   9.388
27998SOL    HW285892  10.657   1.385   9.444
27999SOL     OW85893   5.675   8.668   8.989
27999SOL    HW185894   5.671   8.756   9.028
27999SOL    HW285895   5.603   8.667   8.926
28000SOL     OW85896   6.023   2.460   8.832
28000SOL    HW185897   6.058   2.390   8.886
28000SOL    HW285898   6.092   2.526   8.829
28001SOL     OW85899   7.196  10.885  10.748
28001SOL    HW185900   7.265  10.915  10.689
28001SOL    HW285901   7.186  10.792  10.726
28002SOL     OW85902   8.391  13.860  11.011
28002SOL    HW185903   8.357  13.842  11.098
28002SOL    HW285904   8.361  13.786  10.958
28003SOL     OW85905  10.707   1.261   8.714
28003SOL    HW185906  10.705   1.185   8.656
28003SOL    HW285907  10.709   1.336   8.654
28004SOL     OW85908  13.926   6.763   4.481
28004SOL    HW185909  13.970   6.822   4.419
28004SOL    HW285910  13.997   6.713   4.521
28005SOL     OW85911   8.629   9.389   5.528
28005SOL    HW185912   8.612   9.295   5.532
28005SOL    HW285913   8.552   9.425   5.484
28006SOL     OW85914   4.624  10.030   2.390
28006SOL    HW185915   4.573  10.089   2.446
28006SOL    HW285916   4.582  10.037   2.304
28007SOL     OW85917   9.675   5.366   2.651
28007SOL    HW185918   9.723   5.402   2.725
28007SOL    HW285919   9.587   5.404   2.658
28008SOL     OW85920   2.457  10.873   7.490
28008SOL    HW185921   2.478  10.865   7.583
28008SOL    HW285922   2.426  10.963   7.479
28009SOL     OW85923  12.050   4.795   3.709
28009SOL    HW185924  12.103   4.777   3.786
28009SOL    HW285925  12.052   4.714   3.658
28010SOL     OW85926   8.583   7.359   4.000
28010SOL    HW185927   8.614   7.268   3.992
28010SOL    HW285928   8.523   7.358   4.075
28011SOL     OW85929   2.827   1.090  11.811
28011SOL    HW185930   2.790   1.126  11.891
28011SOL    HW285931   2.758   1.100  11.745
28012SOL     OW85932   6.282  12.657  10.193
28012SOL    HW185933   6.328  12.576  10.216
28012SOL    HW285934   6.208  12.628  10.140
28013SOL     OW85935   6.922   0.519  11.698
28013SOL    HW185936   6.980   0.471  11.756
28013SOL    HW285937   6.837   0.476  11.707
28014SOL     OW85938  14.714   5.404   5.158
28014SOL    HW185939  14.731   5.476   5.219
28014SOL    HW285940  14.741   5.437   5.073
28015SOL     OW85941   8.204   1.434  12.741
28015SOL    HW185942   8.144   1.362  12.720
28015SOL    HW285943   8.280   1.392  12.780
28016SOL     OW85944   6.174   9.971   9.293
28016SOL    HW185945   6.262   9.951   9.261
28016SOL    HW285946   6.126   9.889   9.284
28017SOL     OW85947   1.288   2.112   6.983
28017SOL    HW185948   1.194   2.115   6.996
28017SOL    HW285949   1.305   2.178   6.916
28018SOL     OW85950   9.816   2.151   8.472
28018SOL    HW185951   9.799   2.224   8.532
28018SOL    HW285952   9.744   2.154   8.409
28019SOL     OW85953  13.987   1.114   6.542
28019SOL    HW185954  13.989   1.033   6.594
28019SOL    HW285955  14.058   1.167   6.579
28020SOL     OW85956  14.414   2.717   7.690
28020SOL    HW185957  14.380   2.706   7.601
28020SOL    HW285958  14.507   2.739   7.678
28021SOL     OW85959   9.439   6.009   0.371
28021SOL    HW185960   9.438   6.044   0.460
28021SOL    HW285961   9.491   6.072   0.321
28022SOL     OW85962  14.152   3.087   9.060
28022SOL    HW185963  14.204   3.107   9.138
28022SOL    HW285964  14.133   3.172   9.022
28023SOL     OW85965   3.033  13.726   3.236
28023SOL    HW185966   2.957  13.678   3.202
28023SOL    HW285967   3.094  13.729   3.162
28024SOL     OW85968   8.083   6.391   5.489
28024SOL    HW185969   8.087   6.296   5.489
28024SOL    HW285970   8.007   6.413   5.542
28025SOL     OW85971   3.576  11.017   4.717
28025SOL    HW185972   3.547  11.013   4.626
28025SOL    HW285973   3.619  10.932   4.733
28026SOL     OW85974  11.739   6.171   7.090
28026SOL    HW185975  11.750   6.260   7.057
28026SOL    HW285976  11.755   6.114   7.014
28027SOL     OW85977   4.238   9.496   6.350
28027SOL    HW185978   4.218   9.590   6.349
28027SOL    HW285979   4.267   9.478   6.260
28028SOL     OW85980  14.572   4.287   8.624
28028SOL    HW185981  14.622   4.352   8.673
28028SOL    HW285982  14.590   4.204   8.667
28029SOL     OW85983   9.725   4.959  12.936
28029SOL    HW185984   9.710   4.948  13.030
28029SOL    HW285985   9.821   4.961  12.927
28030SOL     OW85986   9.440  14.236   7.230
28030SOL    HW185987   9.376  14.295   7.191
28030SOL    HW285988   9.401  14.209   7.313
28031SOL     OW85989   6.451   1.819   4.661
28031SOL    HW185990   6.495   1.765   4.595
28031SOL    HW285991   6.474   1.909   4.638
28032SOL     OW85992   3.666   5.291   5.838
28032SOL    HW185993   3.729   5.257   5.902
28032SOL    HW285994   3.589   5.314   5.890
28033SOL     OW85995  10.262   9.380   5.875
28033SOL    HW185996  10.263   9.299   5.824
28033SOL    HW285997  10.347   9.382   5.919
28034SOL     OW85998   4.858   7.479   0.221
28034SOL    HW185999   4.803   7.491   0.143
28034SOL    HW286000   4.858   7.565   0.263
28035SOL     OW86001   9.101   8.296   4.931
28035SOL    HW186002   9.019   8.335   4.898
28035SOL    HW286003   9.169   8.332   4.874
28036SOL     OW86004   0.776   4.017   3.314
28036SOL    HW186005   0.726   4.025   3.395
28036SOL    HW286006   0.867   4.014   3.342
28037SOL     OW86007   3.439   9.615  14.546
28037SOL    HW186008   3.377   9.636  14.477
28037SOL    HW286009   3.508   9.564  14.503
28038SOL     OW86010   9.759   3.041   4.342
28038SOL    HW186011   9.665   3.039   4.362
28038SOL    HW286012   9.765   3.097   4.264
28039SOL     OW86013   8.227   3.984   2.991
28039SOL    HW186014   8.304   4.000   3.046
28039SOL    HW286015   8.247   3.902   2.946
28040SOL     OW86016   5.832   6.115   8.532
28040SOL    HW186017   5.868   6.080   8.614
28040SOL    HW286018   5.884   6.193   8.514
28041SOL     OW86019   1.131  12.535   5.107
28041SOL    HW186020   1.047  12.527   5.062
28041SOL    HW286021   1.177  12.454   5.087
28042SOL     OW86022  13.083   2.232   1.913
28042SOL    HW186023  13.048   2.243   1.825
28042SOL    HW286024  13.099   2.138   1.921
28043SOL     OW86025  14.489   9.973   2.374
28043SOL    HW186026  14.511   9.931   2.457
28043SOL    HW286027  14.428  10.043   2.399
28044SOL     OW86028  14.131   3.490   0.118
28044SOL    HW186029  14.156   3.407   0.077
28044SOL    HW286030  14.121   3.469   0.211
28045SOL     OW86031  13.566   2.043   2.360
28045SOL    HW186032  13.501   2.065   2.294
28045SOL    HW286033  13.650   2.052   2.316
28046SOL     OW86034  11.951   5.761   1.524
28046SOL    HW186035  11.938   5.856   1.517
28046SOL    HW286036  11.956   5.731   1.433
28047SOL     OW86037  14.554   4.346  13.011
28047SOL    HW186038  14.644   4.354  12.980
28047SOL    HW286039  14.518   4.272  12.961
28048SOL     OW86040  11.341   7.272   5.273
28048SOL    HW186041  11.400   7.341   5.243
28048SOL    HW286042  11.399   7.200   5.298
28049SOL     OW86043  10.204  11.027   7.645
28049SOL    HW186044  10.189  11.015   7.739
28049SOL    HW286045  10.296  11.051   7.638
28050SOL     OW86046   8.081   6.104   3.458
28050SOL    HW186047   8.033   6.121   3.538
28050SOL    HW286048   8.082   6.009   3.450
28051SOL     OW86049   6.723  11.219   1.061
28051SOL    HW186050   6.680  11.293   1.105
28051SOL    HW286051   6.651  11.158   1.043
28052SOL     OW86052   4.869   9.333   1.144
28052SOL    HW186053   4.848   9.253   1.095
28052SOL    HW286054   4.929   9.303   1.212
28053SOL     OW86055   2.764  13.078   9.861
28053SOL    HW186056   2.717  13.016   9.917
28053SOL    HW286057   2.853  13.042   9.857
28054SOL     OW86058   4.182  12.384  13.782
28054SOL    HW186059   4.197  12.291  13.794
28054SOL    HW286060   4.269  12.420  13.764
28055SOL     OW86061  12.324  11.533  12.838
28055SOL    HW186062  12.327  11.456  12.781
28055SOL    HW286063  12.399  11.522  12.896
28056SOL     OW86064   3.924   8.679   6.400
28056SOL    HW186065   3.876   8.599   6.379
28056SOL    HW286066   3.874   8.719   6.471
28057SOL     OW86067  12.013   9.402   1.239
28057SOL    HW186068  12.050   9.459   1.307
28057SOL    HW286069  12.089   9.377   1.186
28058SOL     OW86070   4.161   6.427   4.359
28058SOL    HW186071   4.222   6.488   4.402
28058SOL    HW286072   4.079   6.476   4.352
28059SOL     OW86073  13.280  11.318   3.324
28059SOL    HW186074  13.262  11.341   3.233
28059SOL    HW286075  13.317  11.230   3.320
28060SOL     OW86076   6.899   8.531   0.055
28060SOL    HW186077   6.865   8.467   0.118
28060SOL    HW286078   6.928   8.478  14.859
28061SOL     OW86079  14.108   4.917   1.125
28061SOL    HW186080  14.170   4.927   1.052
28061SOL    HW286081  14.038   4.863   1.089
28062SOL     OW86082   3.906  12.942  13.684
28062SOL    HW186083   3.907  12.851  13.652
28062SOL    HW286084   3.941  12.993  13.611
28063SOL     OW86085  10.801   7.215   6.224
28063SOL    HW186086  10.866   7.284   6.216
28063SOL    HW286087  10.852   7.135   6.241
28064SOL     OW86088   4.525   6.958  10.705
28064SOL    HW186089   4.556   7.042  10.737
28064SOL    HW286090   4.603   6.903  10.702
28065SOL     OW86091   5.048   2.178  11.056
28065SOL    HW186092   5.122   2.199  11.000
28065SOL    HW286093   4.990   2.125  11.002
28066SOL     OW86094  11.881   4.661   4.100
28066SOL    HW186095  11.831   4.739   4.125
28066SOL    HW286096  11.845   4.634   4.016
28067SOL     OW86097   8.910  10.489   4.035
28067SOL    HW186098   8.919  10.405   3.991
28067SOL    HW286099   8.886  10.550   3.966
28068SOL     OW86100   9.437  11.456   7.984
28068SOL    HW186101   9.413  11.462   8.077
28068SOL    HW286102   9.484  11.373   7.977
28069SOL     OW86103   8.844  12.620   5.749
28069SOL    HW186104   8.845  12.580   5.836
28069SOL    HW286105   8.841  12.714   5.765
28070SOL     OW86106  13.491   1.333  14.405
28070SOL    HW186107  13.532   1.276  14.340
28070SOL    HW286108  13.397   1.326  14.389
28071SOL     OW86109   2.397   3.563   3.347
28071SOL    HW186110   2.452   3.570   3.269
28071SOL    HW286111   2.443   3.614   3.414
28072SOL     OW86112   5.580   8.362  13.991
28072SOL    HW186113   5.674   8.349  13.985
28072SOL    HW286114   5.564   8.388  14.082
28073SOL     OW86115   5.206   2.404  11.366
28073SOL    HW186116   5.277   2.341  11.358
28073SOL    HW286117   5.180   2.423  11.276
28074SOL     OW86118   3.873   6.728   4.871
28074SOL    HW186119   3.884   6.668   4.797
28074SOL    HW286120   3.893   6.814   4.835
28075SOL     OW86121   2.420   1.178   1.278
28075SOL    HW186122   2.383   1.264   1.301
28075SOL    HW286123   2.514   1.193   1.272
28076SOL     OW86124   5.488   9.816   1.604
28076SOL    HW186125   5.544   9.782   1.534
28076SOL    HW286126   5.541   9.810   1.683
28077SOL     OW86127  11.351   6.889   5.544
28077SOL    HW186128  11.407   6.827   5.591
28077SOL    HW286129  11.407   6.964   5.526
28078SOL     OW86130  12.016  12.446   8.352
28078SOL    HW186131  12.003  12.354   8.327
28078SOL    HW286132  11.957  12.494   8.294
28079SOL     OW86133  10.447   6.562  12.703
28079SOL    HW186134  10.527   6.596  12.743
28079SOL    HW286135  10.469   6.473  12.675
28080SOL     OW86136   8.084   9.434  12.326
28080SOL    HW186137   8.069   9.513  12.275
28080SOL    HW286138   8.044   9.452  12.411
28081SOL     OW86139   6.152   3.475   1.659
28081SOL    HW186140   6.153   3.545   1.724
28081SOL    HW286141   6.182   3.517   1.579
28082SOL     OW86142  11.638   7.557  12.511
28082SOL    HW186143  11.559   7.610  12.508
28082SOL    HW286144  11.696   7.603  12.572
28083SOL     OW86145   0.591   7.946   5.363
28083SOL    HW186146   0.637   8.002   5.300
28083SOL    HW286147   0.660   7.901   5.410
28084SOL     OW86148  13.288  10.766   9.648
28084SOL    HW186149  13.199  10.800   9.647
28084SOL    HW286150  13.321  10.787   9.736
28085SOL     OW86151   1.087   3.502   4.146
28085SOL    HW186152   1.176   3.472   4.165
28085SOL    HW286153   1.068   3.565   4.215
28086SOL     OW86154  13.598  10.828   8.207
28086SOL    HW186155  13.654  10.753   8.189
28086SOL    HW286156  13.528  10.822   8.142
28087SOL     OW86157   0.665  12.571  12.088
28087SOL    HW186158   0.678  12.555  12.181
28087SOL    HW286159   0.717  12.504  12.044
28088SOL     OW86160  13.995   6.583  10.370
28088SOL    HW186161  14.047   6.505  10.391
28088SOL    HW286162  14.058   6.646  10.336
28089SOL     OW86163  10.703   0.207   9.444
28089SOL    HW186164  10.695   0.125   9.396
28089SOL    HW286165  10.792   0.207   9.479
28090SOL     OW86166   5.067   2.727   2.435
28090SOL    HW186167   5.132   2.770   2.379
28090SOL    HW286168   5.047   2.645   2.389
28091SOL     OW86169  14.818   1.879  14.187
28091SOL    HW186170  14.829   1.821  14.262
28091SOL    HW286171  14.793   1.963  14.226
28092SOL     OW86172   8.766   8.358   1.720
28092SOL    HW186173   8.797   8.268   1.710
28092SOL    HW286174   8.672   8.349   1.736
28093SOL     OW86175  12.592   2.426   2.918
28093SOL    HW186176  12.535   2.502   2.910
28093SOL    HW286177  12.566   2.368   2.846
28094SOL     OW86178   5.682   5.130   1.291
28094SOL    HW186179   5.652   5.083   1.213
28094SOL    HW286180   5.728   5.063   1.342
28095SOL     OW86181   5.887  13.678   3.690
28095SOL    HW186182   5.875  13.588   3.661
28095SOL    HW286183   5.918  13.725   3.613
28096SOL     OW86184   6.249  14.333  13.940
28096SOL    HW186185   6.212  14.270  14.002
28096SOL    HW286186   6.337  14.351  13.974
28097SOL     OW86187  10.554   7.265   0.817
28097SOL    HW186188  10.471   7.241   0.859
28097SOL    HW286189  10.620   7.253   0.885
28098SOL     OW86190   3.402   6.851  12.860
28098SOL    HW186191   3.472   6.901  12.902
28098SOL    HW286192   3.437   6.763  12.851
28099SOL     OW86193   5.549   2.166  13.382
28099SOL    HW186194   5.512   2.204  13.302
28099SOL    HW286195   5.537   2.071  13.370
28100SOL     OW86196   1.212   8.536  12.920
28100SOL    HW186197   1.212   8.620  12.874
28100SOL    HW286198   1.122   8.504  12.912
28101SOL     OW86199   1.627   1.930   4.063
28101SOL    HW186200   1.560   1.878   4.108
28101SOL    HW286201   1.650   1.998   4.127
28102SOL     OW86202   7.806   4.853   7.783
28102SOL    HW186203   7.776   4.943   7.781
28102SOL    HW286204   7.900   4.859   7.803
28103SOL     OW86205  10.365   1.263   7.761
28103SOL    HW186206  10.349   1.301   7.675
28103SOL    HW286207  10.455   1.286   7.781
28104SOL     OW86208   4.023   4.775  14.701
28104SOL    HW186209   4.093   4.732  14.652
28104SOL    HW286210   4.062   4.796  14.786
28105SOL     OW86211   6.872  12.765  12.376
28105SOL    HW186212   6.874  12.670  12.367
28105SOL    HW286213   6.898  12.781  12.467
28106SOL     OW86214  10.787   5.911  14.096
28106SOL    HW186215  10.804   5.964  14.174
28106SOL    HW286216  10.804   5.969  14.022
28107SOL     OW86217  10.934   0.597   2.219
28107SOL    HW186218  10.951   0.573   2.128
28107SOL    HW286219  10.865   0.537   2.248
28108SOL     OW86220   6.455  10.243   5.863
28108SOL    HW186221   6.442  10.255   5.769
28108SOL    HW286222   6.550  10.238   5.874
28109SOL     OW86223   0.101   0.516   9.153
28109SOL    HW186224   0.028   0.518   9.091
28109SOL    HW286225   0.132   0.426   9.150
28110SOL     OW86226   1.853   6.696   4.214
28110SOL    HW186227   1.918   6.626   4.217
28110SOL    HW286228   1.811   6.693   4.300
28111SOL     OW86229  11.571   0.307   9.677
28111SOL    HW186230  11.584   0.391   9.722
28111SOL    HW286231  11.624   0.314   9.597
28112SOL     OW86232   5.081   4.729  11.729
28112SOL    HW186233   5.082   4.642  11.687
28112SOL    HW286234   5.169   4.739  11.764
28113SOL     OW86235   1.944   6.224   9.989
28113SOL    HW186236   1.995   6.288   9.940
28113SOL    HW286237   1.886   6.277  10.044
28114SOL     OW86238   9.171   0.032   1.783
28114SOL    HW186239   9.262   0.061   1.780
28114SOL    HW286240   9.177  14.815   1.798
28115SOL     OW86241  14.270   8.868  12.383
28115SOL    HW186242  14.272   8.798  12.448
28115SOL    HW286243  14.310   8.943  12.428
28116SOL     OW86244   9.511   1.495   0.905
28116SOL    HW186245   9.473   1.425   0.958
28116SOL    HW286246   9.478   1.480   0.817
28117SOL     OW86247   6.010   3.234   2.939
28117SOL    HW186248   6.076   3.230   2.870
28117SOL    HW286249   5.951   3.304   2.912
28118SOL     OW86250  10.310  11.440  13.347
28118SOL    HW186251  10.369  11.386  13.294
28118SOL    HW286252  10.225  11.399  13.339
28119SOL     OW86253  11.316   3.529   1.152
28119SOL    HW186254  11.225   3.529   1.182
28119SOL    HW286255  11.339   3.437   1.145
28120SOL     OW86256  10.844  13.133  10.114
28120SOL    HW186257  10.792  13.132  10.033
28120SOL    HW286258  10.800  13.197  10.170
28121SOL     OW86259  11.969   4.242   3.278
28121SOL    HW186260  11.880   4.207   3.274
28121SOL    HW286261  12.015   4.182   3.338
28122SOL     OW86262  13.802   9.981  13.491
28122SOL    HW186263  13.801   9.903  13.436
28122SOL    HW286264  13.882   9.972  13.544
28123SOL     OW86265   2.353  10.480   0.964
28123SOL    HW186266   2.438  10.469   1.007
28123SOL    HW286267   2.372  10.534   0.887
28124SOL     OW86268   0.925   0.182   7.136
28124SOL    HW186269   0.884   0.154   7.217
28124SOL    HW286270   1.001   0.125   7.126
28125SOL     OW86271  11.265   1.102   5.781
28125SOL    HW186272  11.266   1.197   5.788
28125SOL    HW286273  11.209   1.073   5.853
28126SOL     OW86274   9.178   7.540   3.751
28126SOL    HW186275   9.148   7.528   3.661
28126SOL    HW286276   9.121   7.483   3.804
28127SOL     OW86277   8.937   6.546   5.626
28127SOL    HW186278   8.982   6.511   5.703
28127SOL    HW286279   8.899   6.628   5.656
28128SOL     OW86280  10.701  11.163   5.992
28128SOL    HW186281  10.732  11.251   5.972
28128SOL    HW286282  10.709  11.155   6.087
28129SOL     OW86283   4.101   1.802  10.566
28129SOL    HW186284   4.045   1.814  10.490
28129SOL    HW286285   4.122   1.709  10.566
28130SOL     OW86286  14.272  11.583  10.697
28130SOL    HW186287  14.243  11.643  10.629
28130SOL    HW286288  14.318  11.514  10.650
28131SOL     OW86289  11.140  13.842   6.329
28131SOL    HW186290  11.090  13.837   6.411
28131SOL    HW286291  11.138  13.753   6.295
28132SOL     OW86292   5.107  11.862   0.688
28132SOL    HW186293   5.033  11.913   0.655
28132SOL    HW286294   5.124  11.897   0.775
28133SOL     OW86295   2.261   4.488  12.601
28133SOL    HW186296   2.345   4.528  12.576
28133SOL    HW286297   2.198   4.526  12.540
28134SOL     OW86298  13.537  11.918   6.911
28134SOL    HW186299  13.579  11.955   6.989
28134SOL    HW286300  13.604  11.863   6.870
28135SOL     OW86301   2.717   6.520   4.459
28135SOL    HW186302   2.690   6.603   4.418
28135SOL    HW286303   2.637   6.487   4.500
28136SOL     OW86304   3.149   4.221   2.737
28136SOL    HW186305   3.191   4.230   2.822
28136SOL    HW286306   3.218   4.185   2.680
28137SOL     OW86307  12.597  14.332   1.321
28137SOL    HW186308  12.573  14.278   1.396
28137SOL    HW286309  12.657  14.398   1.357
28138SOL     OW86310   8.433   6.795  12.956
28138SOL    HW186311   8.346   6.835  12.947
28138SOL    HW286312   8.478   6.850  13.020
28139SOL     OW86313  13.161  11.801   0.189
28139SOL    HW186314  13.126  11.732   0.247
28139SOL    HW286315  13.254  11.780   0.181
28140SOL     OW86316   8.312   2.741   7.010
28140SOL    HW186317   8.362   2.743   6.928
28140SOL    HW286318   8.260   2.822   7.008
28141SOL     OW86319   6.777   7.600   5.341
28141SOL    HW186320   6.753   7.650   5.263
28141SOL    HW286321   6.720   7.524   5.339
28142SOL     OW86322   5.105   3.784   8.649
28142SOL    HW186323   5.157   3.860   8.675
28142SOL    HW286324   5.068   3.808   8.564
28143SOL     OW86325   9.301   7.103   2.567
28143SOL    HW186326   9.318   7.136   2.479
28143SOL    HW286327   9.221   7.147   2.595
28144SOL     OW86328  12.147  13.047   2.175
28144SOL    HW186329  12.060  13.009   2.167
28144SOL    HW286330  12.179  13.018   2.260
28145SOL     OW86331   3.500   8.428   2.400
28145SOL    HW186332   3.487   8.522   2.414
28145SOL    HW286333   3.454   8.409   2.318
28146SOL     OW86334   5.106   5.291   6.265
28146SOL    HW186335   5.110   5.375   6.220
28146SOL    HW286336   5.196   5.259   6.265
28147SOL     OW86337   1.161   4.919   1.994
28147SOL    HW186338   1.125   4.950   1.911
28147SOL    HW286339   1.255   4.932   1.986
28148SOL     OW86340   5.986   1.622  14.844
28148SOL    HW186341   6.008   1.620  14.751
28148SOL    HW286342   5.899   1.661  14.848
28149SOL     OW86343  12.223   4.708   9.874
28149SOL    HW186344  12.215   4.612   9.873
28149SOL    HW286345  12.135   4.739   9.850
28150SOL     OW86346   8.997   5.730  14.176
28150SOL    HW186347   8.913   5.744  14.220
28150SOL    HW286348   9.010   5.810  14.125
28151SOL     OW86349   3.278   0.628   5.106
28151SOL    HW186350   3.239   0.597   5.024
28151SOL    HW286351   3.230   0.708   5.126
28152SOL     OW86352   5.862  11.142  10.013
28152SOL    HW186353   5.936  11.120   9.955
28152SOL    HW286354   5.865  11.076  10.082
28153SOL     OW86355   7.203  13.078   7.911
28153SOL    HW186356   7.260  13.001   7.913
28153SOL    HW286357   7.192  13.097   7.818
28154SOL     OW86358   5.983   7.230  12.156
28154SOL    HW186359   5.929   7.168  12.205
28154SOL    HW286360   5.986   7.308  12.212
28155SOL     OW86361  10.442   5.394   9.470
28155SOL    HW186362  10.395   5.477   9.474
28155SOL    HW286363  10.475   5.389   9.380
28156SOL     OW86364  14.141  11.926  13.206
28156SOL    HW186365  14.194  11.959  13.133
28156SOL    HW286366  14.097  11.849  13.171
28157SOL     OW86367   0.874   9.921   7.023
28157SOL    HW186368   0.964   9.901   6.998
28157SOL    HW286369   0.880   9.950   7.114
28158SOL     OW86370  10.520   7.376  11.177
28158SOL    HW186371  10.550   7.383  11.087
28158SOL    HW286372  10.446   7.315  11.173
28159SOL     OW86373   0.328   8.281   1.673
28159SOL    HW186374   0.349   8.289   1.580
28159SOL    HW286375   0.282   8.198   1.680
28160SOL     OW86376   2.667   1.224   5.887
28160SOL    HW186377   2.750   1.260   5.918
28160SOL    HW286378   2.600   1.283   5.922
28161SOL     OW86379  13.427   5.778  14.745
28161SOL    HW186380  13.340   5.809  14.771
28161SOL    HW286381  13.458   5.844  14.682
28162SOL     OW86382   4.910   2.123  10.820
28162SOL    HW186383   4.841   2.060  10.841
28162SOL    HW286384   4.925   2.112  10.726
28163SOL     OW86385   6.181   5.926   1.780
28163SOL    HW186386   6.204   5.856   1.719
28163SOL    HW286387   6.237   6.000   1.755
28164SOL     OW86388  11.322  12.494   2.357
28164SOL    HW186389  11.334  12.589   2.353
28164SOL    HW286390  11.409  12.460   2.378
28165SOL     OW86391   7.496   9.618  10.263
28165SOL    HW186392   7.538   9.688  10.312
28165SOL    HW286393   7.462   9.558  10.329
28166SOL     OW86394   9.084  13.037   0.528
28166SOL    HW186395   9.116  13.127   0.520
28166SOL    HW286396   9.163  12.983   0.529
28167SOL     OW86397   7.862   8.175   2.979
28167SOL    HW186398   7.895   8.139   3.062
28167SOL    HW286399   7.935   8.225   2.943
28168SOL     OW86400  14.859   0.427   8.047
28168SOL    HW186401  14.770   0.390   8.053
28168SOL    HW286402   0.002   0.456   8.136
28169SOL     OW86403   2.394   4.306   2.607
28169SOL    HW186404   2.407   4.211   2.599
28169SOL    HW286405   2.316   4.324   2.554
28170SOL     OW86406   7.772   7.292   5.659
28170SOL    HW186407   7.823   7.259   5.585
28170SOL    HW286408   7.790   7.386   5.661
28171SOL     OW86409   0.401   4.747   7.519
28171SOL    HW186410   0.375   4.797   7.596
28171SOL    HW286411   0.331   4.684   7.506
28172SOL     OW86412  10.062   8.610   8.012
28172SOL    HW186413  10.044   8.696   8.052
28172SOL    HW286414   9.986   8.593   7.957
28173SOL     OW86415   4.998   3.411   5.372
28173SOL    HW186416   4.976   3.340   5.431
28173SOL    HW286417   4.994   3.490   5.426
28174SOL     OW86418   1.212   5.501  10.485
28174SOL    HW186419   1.162   5.443  10.542
28174SOL    HW286420   1.255   5.563  10.545
28175SOL     OW86421   9.046   9.232   2.079
28175SOL    HW186422   9.065   9.278   1.997
28175SOL    HW286423   9.005   9.299   2.135
28176SOL     OW86424  14.486   6.439   5.579
28176SOL    HW186425  14.578   6.434   5.555
28176SOL    HW286426  14.487   6.459   5.673
28177SOL     OW86427   3.753   9.174   8.863
28177SOL    HW186428   3.689   9.238   8.895
28177SOL    HW286429   3.707   9.127   8.794
28178SOL     OW86430   6.926   9.691   6.236
28178SOL    HW186431   6.961   9.620   6.182
28178SOL    HW286432   6.942   9.770   6.184
28179SOL     OW86433   7.679   8.826   8.613
28179SOL    HW186434   7.717   8.770   8.545
28179SOL    HW286435   7.588   8.796   8.619
28180SOL     OW86436  12.024   1.427   0.222
28180SOL    HW186437  12.101   1.457   0.270
28180SOL    HW286438  11.959   1.496   0.234
28181SOL     OW86439   6.325   8.486  10.345
28181SOL    HW186440   6.412   8.502  10.383
28181SOL    HW286441   6.321   8.391  10.334
28182SOL     OW86442   6.503  13.456  14.834
28182SOL    HW186443   6.503  13.376   0.009
28182SOL    HW286444   6.565  13.438  14.764
28183SOL     OW86445  11.961   0.577   4.280
28183SOL    HW186446  11.876   0.605   4.245
28183SOL    HW286447  11.981   0.496   4.233
28184SOL     OW86448  13.623   5.307   7.042
28184SOL    HW186449  13.577   5.305   6.958
28184SOL    HW286450  13.606   5.221   7.080
28185SOL     OW86451   3.283   6.595   0.595
28185SOL    HW186452   3.283   6.645   0.514
28185SOL    HW286453   3.210   6.631   0.645
28186SOL     OW86454  10.728  13.303   1.184
28186SOL    HW186455  10.765  13.255   1.259
28186SOL    HW286456  10.637  13.319   1.209
28187SOL     OW86457  12.358   9.559   6.900
28187SOL    HW186458  12.367   9.484   6.841
28187SOL    HW286459  12.317   9.523   6.979
28188SOL     OW86460   9.880   8.378   1.138
28188SOL    HW186461   9.795   8.421   1.132
28188SOL    HW286462   9.879   8.334   1.224
28189SOL     OW86463   6.425   1.644  11.653
28189SOL    HW186464   6.503   1.588  11.648
28189SOL    HW286465   6.355   1.585  11.682
28190SOL     OW86466  11.552   1.594   5.118
28190SOL    HW186467  11.646   1.605   5.106
28190SOL    HW286468  11.518   1.572   5.032
28191SOL     OW86469   9.989   8.759  14.411
28191SOL    HW186470   9.921   8.749  14.344
28191SOL    HW286471  10.020   8.669  14.426
28192SOL     OW86472   3.926   4.246   6.850
28192SOL    HW186473   3.871   4.323   6.835
28192SOL    HW286474   3.890   4.206   6.929
28193SOL     OW86475   0.030   6.911   4.549
28193SOL    HW186476   0.068   6.861   4.622
28193SOL    HW286477  14.815   6.888   4.549
28194SOL     OW86478   2.137  11.079   6.530
28194SOL    HW186479   2.228  11.107   6.525
28194SOL    HW286480   2.089  11.148   6.484
28195SOL     OW86481   3.634  10.195   3.663
28195SOL    HW186482   3.542  10.198   3.690
28195SOL    HW286483   3.659  10.287   3.655
28196SOL     OW86484  11.875   0.066   2.110
28196SOL    HW186485  11.782   0.062   2.131
28196SOL    HW286486  11.877   0.068   2.015
28197SOL     OW86487  10.792   9.829  10.386
28197SOL    HW186488  10.732   9.807  10.458
28197SOL    HW286489  10.877   9.793  10.414
28198SOL     OW86490   6.918  12.582  12.066
28198SOL    HW186491   6.960  12.668  12.071
28198SOL    HW286492   6.878  12.580  11.979
28199SOL     OW86493   8.566   0.818   4.245
28199SOL    HW186494   8.578   0.733   4.288
28199SOL    HW286495   8.481   0.812   4.201
28200SOL     OW86496  13.249   6.404  13.339
28200SOL    HW186497  13.198   6.349  13.398
28200SOL    HW286498  13.187   6.470  13.308
28201SOL     OW86499  12.783   2.769   7.399
28201SOL    HW186500  12.774   2.861   7.372
28201SOL    HW286501  12.722   2.721   7.343
28202SOL     OW86502   7.184   0.011  13.162
28202SOL    HW186503   7.244  14.832  13.210
28202SOL    HW286504   7.104  14.835  13.153
28203SOL     OW86505   1.819  12.362  13.069
28203SOL    HW186506   1.770  12.286  13.039
28203SOL    HW286507   1.868  12.391  12.993
28204SOL     OW86508  11.175   8.916   5.957
28204SOL    HW186509  11.135   8.873   5.881
28204SOL    HW286510  11.269   8.911   5.941
28205SOL     OW86511   4.798   1.786  13.141
28205SOL    HW186512   4.794   1.717  13.206
28205SOL    HW286513   4.746   1.754  13.067
28206SOL     OW86514   3.586  10.927  13.808
28206SOL    HW186515   3.622  11.008  13.771
28206SOL    HW286516   3.556  10.952  13.896
28207SOL     OW86517   5.999   6.859  12.456
28207SOL    HW186518   6.052   6.781  12.441
28207SOL    HW286519   5.956   6.843  12.540
28208SOL     OW86520   2.579   7.143   6.023
28208SOL    HW186521   2.487   7.150   6.048
28208SOL    HW286522   2.605   7.233   6.003
28209SOL     OW86523   7.236  10.325   5.685
28209SOL    HW186524   7.331  10.314   5.690
28209SOL    HW286525   7.222  10.418   5.698
28210SOL     OW86526   7.148   0.355  13.988
28210SOL    HW186527   7.154   0.415  13.914
28210SOL    HW286528   7.173   0.270  13.951
28211SOL     OW86529  10.726   3.802   0.243
28211SOL    HW186530  10.654   3.741   0.228
28211SOL    HW286531  10.732   3.810   0.338
28212SOL     OW86532  13.588   2.257   5.920
28212SOL    HW186533  13.559   2.170   5.950
28212SOL    HW286534  13.517   2.286   5.862
28213SOL     OW86535   3.117   9.189   2.989
28213SOL    HW186536   3.145   9.267   3.036
28213SOL    HW286537   3.076   9.134   3.055
28214SOL     OW86538  10.461   9.837   4.120
28214SOL    HW186539  10.517   9.882   4.057
28214SOL    HW286540  10.393   9.901   4.142
28215SOL     OW86541   7.106  11.055  13.714
28215SOL    HW186542   7.120  11.035  13.807
28215SOL    HW286543   7.191  11.083  13.682
28216SOL     OW86544   5.874   0.256   5.483
28216SOL    HW186545   5.888   0.339   5.528
28216SOL    HW286546   5.864   0.279   5.391
28217SOL     OW86547  13.551   0.492   3.596
28217SOL    HW186548  13.488   0.437   3.643
28217SOL    HW286549  13.622   0.432   3.573
28218SOL     OW86550   5.615   7.287  10.464
28218SOL    HW186551   5.569   7.240  10.394
28218SOL    HW286552   5.586   7.244  10.544
28219SOL     OW86553  13.662   1.032   5.113
28219SOL    HW186554  13.674   0.946   5.072
28219SOL    HW286555  13.567   1.046   5.111
28220SOL     OW86556  11.754  10.044   0.465
28220SOL    HW186557  11.778   9.954   0.488
28220SOL    HW286558  11.661  10.049   0.484
28221SOL     OW86559   5.991  13.691   0.011
28221SOL    HW186560   6.086  13.689   0.008
28221SOL    HW286561   5.964  13.666  14.800
28222SOL     OW86562   9.958   9.052   2.912
28222SOL    HW186563  10.018   9.027   2.842
28222SOL    HW286564   9.989   9.003   2.989
28223SOL     OW86565   9.882   3.356  13.736
28223SOL    HW186566   9.976   3.338  13.734
28223SOL    HW286567   9.873   3.441  13.692
28224SOL     OW86568   7.681   0.465   3.199
28224SOL    HW186569   7.605   0.507   3.238
28224SOL    HW286570   7.710   0.401   3.263
28225SOL     OW86571   3.390   6.008   9.870
28225SOL    HW186572   3.312   6.023   9.923
28225SOL    HW286573   3.411   6.095   9.834
28226SOL     OW86574   6.857   7.939   3.663
28226SOL    HW186575   6.797   8.010   3.641
28226SOL    HW286576   6.904   7.921   3.582
28227SOL     OW86577  10.996   3.407   3.375
28227SOL    HW186578  10.939   3.453   3.313
28227SOL    HW286579  10.968   3.316   3.370
28228SOL     OW86580  13.955  11.089   2.377
28228SOL    HW186581  14.047  11.095   2.352
28228SOL    HW286582  13.940  10.996   2.395
28229SOL     OW86583  10.244  11.109  10.004
28229SOL    HW186584  10.327  11.063   9.992
28229SOL    HW286585  10.266  11.185  10.058
28230SOL     OW86586  10.047   8.776   3.701
28230SOL    HW186587  10.125   8.763   3.648
28230SOL    HW286588   9.975   8.751   3.644
28231SOL     OW86589   2.427   1.686   9.562
28231SOL    HW186590   2.413   1.613   9.502
28231SOL    HW286591   2.496   1.657   9.621
28232SOL     OW86592   4.598   3.522  10.438
28232SOL    HW186593   4.657   3.498  10.510
28232SOL    HW286594   4.591   3.618  10.444
28233SOL     OW86595  13.676   5.929  10.019
28233SOL    HW186596  13.618   5.907   9.946
28233SOL    HW286597  13.727   6.003   9.988
28234SOL     OW86598  11.329   3.016  10.066
28234SOL    HW186599  11.242   3.055  10.060
28234SOL    HW286600  11.360   3.041  10.154
28235SOL     OW86601   1.423  13.462   7.943
28235SOL    HW186602   1.381  13.411   7.874
28235SOL    HW286603   1.457  13.397   8.005
28236SOL     OW86604  12.513   5.266  14.843
28236SOL    HW186605  12.462   5.186  14.825
28236SOL    HW286606  12.594   5.254  14.793
28237SOL     OW86607   2.070  10.355  10.088
28237SOL    HW186608   1.988  10.389  10.124
28237SOL    HW286609   2.044  10.301  10.014
28238SOL     OW86610   8.924   4.318   6.053
28238SOL    HW186611   8.921   4.274   5.968
28238SOL    HW286612   8.860   4.271   6.106
28239SOL     OW86613  10.247   7.818   8.038
28239SOL    HW186614  10.208   7.789   8.120
28239SOL    HW286615  10.177   7.867   7.994
28240SOL     OW86616   6.311  11.131   8.856
28240SOL    HW186617   6.300  11.043   8.892
28240SOL    HW286618   6.238  11.141   8.795
28241SOL     OW86619  10.331   8.931   5.517
28241SOL    HW186620  10.407   8.903   5.467
28241SOL    HW286621  10.257   8.914   5.459
28242SOL     OW86622   5.292   1.910   8.009
28242SOL    HW186623   5.219   1.883   8.064
28242SOL    HW286624   5.359   1.843   8.022
28243SOL     OW86625   8.988   0.635   0.218
28243SOL    HW186626   9.073   0.615   0.257
28243SOL    HW286627   8.959   0.551   0.181
28244SOL     OW86628   6.599  11.148   6.568
28244SOL    HW186629   6.686  11.139   6.531
28244SOL    HW286630   6.586  11.242   6.578
28245SOL     OW86631   1.254  10.482   5.780
28245SOL    HW186632   1.281  10.570   5.753
28245SOL    HW286633   1.159  10.489   5.793
28246SOL     OW86634   0.230   8.731   8.114
28246SOL    HW186635   0.222   8.674   8.038
28246SOL    HW286636   0.303   8.790   8.092
28247SOL     OW86637   7.189   7.912   7.717
28247SOL    HW186638   7.137   7.992   7.709
28247SOL    HW286639   7.271   7.940   7.757
28248SOL     OW86640  10.089   9.814   0.946
28248SOL    HW186641  10.160   9.770   0.992
28248SOL    HW286642  10.128   9.843   0.863
28249SOL     OW86643   0.399   9.579   1.016
28249SOL    HW186644   0.339   9.518   1.058
28249SOL    HW286645   0.342   9.637   0.964
28250SOL     OW86646   5.592   7.896   1.327
28250SOL    HW186647   5.624   7.891   1.417
28250SOL    HW286648   5.633   7.821   1.283
28251SOL     OW86649   7.205   6.292   0.838
28251SOL    HW186650   7.252   6.375   0.825
28251SOL    HW286651   7.248   6.252   0.914
28252SOL     OW86652   5.546   8.291   8.441
28252SOL    HW186653   5.602   8.223   8.403
28252SOL    HW286654   5.525   8.349   8.367
28253SOL     OW86655   8.383   3.797  13.777
28253SOL    HW186656   8.464   3.765  13.737
28253SOL    HW286657   8.313   3.758  13.725
28254SOL     OW86658  13.263   2.981   6.104
28254SOL    HW186659  13.342   2.937   6.136
28254SOL    HW286660  13.193   2.944   6.158
28255SOL     OW86661  14.201   4.014   3.646
28255SOL    HW186662  14.264   4.003   3.575
28255SOL    HW286663  14.167   3.926   3.661
28256SOL     OW86664   6.835  10.423  12.075
28256SOL    HW186665   6.839  10.435  12.170
28256SOL    HW286666   6.926  10.412  12.048
28257SOL     OW86667   5.849   5.220   9.546
28257SOL    HW186668   5.778   5.268   9.588
28257SOL    HW286669   5.843   5.132   9.582
28258SOL     OW86670  13.464   0.043   4.302
28258SOL    HW186671  13.535   0.106   4.289
28258SOL    HW286672  13.462  14.870   4.221
28259SOL     OW86673   7.034   6.214  14.429
28259SOL    HW186674   7.118   6.233  14.385
28259SOL    HW286675   7.021   6.289  14.487
28260SOL     OW86676   1.824   2.265   1.199
28260SOL    HW186677   1.747   2.259   1.256
28260SOL    HW286678   1.854   2.355   1.208
28261SOL     OW86679   5.129   9.210   4.073
28261SOL    HW186680   5.046   9.254   4.089
28261SOL    HW286681   5.122   9.128   4.120
28262SOL     OW86682  14.244  11.920   5.225
28262SOL    HW186683  14.198  11.899   5.144
28262SOL    HW286684  14.178  11.907   5.294
28263SOL     OW86685  13.032   6.179   7.602
28263SOL    HW186686  13.003   6.088   7.610
28263SOL    HW286687  13.127   6.172   7.593
28264SOL     OW86688  13.115   2.714   9.074
28264SOL    HW186689  13.099   2.802   9.109
28264SOL    HW286690  13.150   2.730   8.986
28265SOL     OW86691   2.114  13.097   4.460
28265SOL    HW186692   2.160  13.153   4.522
28265SOL    HW286693   2.021  13.115   4.475
28266SOL     OW86694   2.395   2.902   8.220
28266SOL    HW186695   2.349   2.985   8.235
28266SOL    HW286696   2.487   2.926   8.215
28267SOL     OW86697   8.291   6.836  14.621
28267SOL    HW186698   8.349   6.910  14.604
28267SOL    HW286699   8.343   6.759  14.597
28268SOL     OW86700   6.818   5.279  11.820
28268SOL    HW186701   6.886   5.291  11.886
28268SOL    HW286702   6.853   5.320  11.741
28269SOL     OW86703   1.762   5.674   8.612
28269SOL    HW186704   1.732   5.754   8.570
28269SOL    HW286705   1.819   5.704   8.683
28270SOL     OW86706  11.878  10.094   3.525
28270SOL    HW186707  11.827  10.033   3.578
28270SOL    HW286708  11.969  10.065   3.534
28271SOL     OW86709  11.723   6.028  13.501
28271SOL    HW186710  11.812   6.003  13.477
28271SOL    HW286711  11.669   5.954  13.472
28272SOL     OW86712   6.394  10.605  10.683
28272SOL    HW186713   6.429  10.637  10.766
28272SOL    HW286714   6.319  10.662  10.665
28273SOL     OW86715  13.709  12.906   2.110
28273SOL    HW186716  13.734  12.817   2.085
28273SOL    HW286717  13.619  12.915   2.078
28274SOL     OW86718   5.887   0.830  13.235
28274SOL    HW186719   5.889   0.799  13.145
28274SOL    HW286720   5.903   0.924  13.229
28275SOL     OW86721   2.591   1.821   9.904
28275SOL    HW186722   2.575   1.913   9.924
28275SOL    HW286723   2.534   1.803   9.828
28276SOL     OW86724  14.180   4.711   3.652
28276SOL    HW186725  14.269   4.675   3.653
28276SOL    HW286726  14.159   4.725   3.744
28277SOL     OW86727   8.670   1.201   7.724
28277SOL    HW186728   8.742   1.252   7.686
28277SOL    HW286729   8.640   1.145   7.652
28278SOL     OW86730   7.766   1.437  12.571
28278SOL    HW186731   7.740   1.459  12.481
28278SOL    HW286732   7.697   1.378  12.602
28279SOL     OW86733   5.987   6.415  12.908
28279SOL    HW186734   6.040   6.457  12.841
28279SOL    HW286735   6.015   6.455  12.991
28280SOL     OW86736   5.775   1.873   3.636
28280SOL    HW186737   5.753   1.962   3.665
28280SOL    HW286738   5.844   1.845   3.696
28281SOL     OW86739   4.718   1.642  13.610
28281SOL    HW186740   4.643   1.621  13.665
28281SOL    HW286741   4.710   1.736  13.593
28282SOL     OW86742  10.592   5.413   7.340
28282SOL    HW186743  10.673   5.437   7.295
28282SOL    HW286744  10.525   5.415   7.272
28283SOL     OW86745  10.911   6.496   1.309
28283SOL    HW186746  10.819   6.511   1.284
28283SOL    HW286747  10.908   6.421   1.367
28284SOL     OW86748  10.217   5.099   1.810
28284SOL    HW186749  10.154   5.048   1.862
28284SOL    HW286750  10.299   5.052   1.819
28285SOL     OW86751  11.490  10.365  12.920
28285SOL    HW186752  11.453  10.402  13.000
28285SOL    HW286753  11.414  10.337  12.868
28286SOL     OW86754   9.931  13.737   1.334
28286SOL    HW186755  10.026  13.741   1.318
28286SOL    HW286756   9.895  13.699   1.254
28287SOL     OW86757  14.745  12.215  11.720
28287SOL    HW186758  14.768  12.167  11.799
28287SOL    HW286759  14.649  12.215  11.719
28288SOL     OW86760  11.085   1.870  11.677
28288SOL    HW186761  11.031   1.852  11.754
28288SOL    HW286762  11.053   1.808  11.611
28289SOL     OW86763  12.873   5.480   3.780
28289SOL    HW186764  12.925   5.535   3.839
28289SOL    HW286765  12.796   5.456   3.831
28290SOL     OW86766   4.707   3.985   6.148
28290SOL    HW186767   4.655   3.982   6.228
28290SOL    HW286768   4.721   4.078   6.132
28291SOL     OW86769   3.829   7.582   9.534
28291SOL    HW186770   3.850   7.566   9.441
28291SOL    HW286771   3.850   7.674   9.547
28292SOL     OW86772   0.661  11.530   4.900
28292SOL    HW186773   0.612  11.612   4.903
28292SOL    HW286774   0.676  11.507   4.991
28293SOL     OW86775   5.659  10.598  13.906
28293SOL    HW186776   5.698  10.612  13.819
28293SOL    HW286777   5.695  10.668  13.960
28294SOL     OW86778   8.547  11.104  13.591
28294SOL    HW186779   8.466  11.098  13.541
28294SOL    HW286780   8.616  11.105  13.526
28295SOL     OW86781  10.031   9.875  11.226
28295SOL    HW186782  10.071   9.861  11.312
28295SOL    HW286783  10.104   9.878  11.165
28296SOL     OW86784  13.410  11.954  14.391
28296SOL    HW186785  13.411  11.958  14.295
28296SOL    HW286786  13.320  11.930  14.413
28297SOL     OW86787   0.534   4.182   2.346
28297SOL    HW186788   0.492   4.144   2.424
28297SOL    HW286789   0.477   4.255   2.322
28298SOL     OW86790   6.478   8.733   3.159
28298SOL    HW186791   6.548   8.667   3.154
28298SOL    HW286792   6.513   8.808   3.112
28299SOL     OW86793   9.879   8.822   2.037
28299SOL    HW186794   9.789   8.793   2.022
28299SOL    HW286795   9.878   8.915   2.016
28300SOL     OW86796   7.397  12.687  12.562
28300SOL    HW186797   7.487  12.704  12.533
28300SOL    HW286798   7.407  12.660  12.653
28301SOL     OW86799  11.653   4.963  10.377
28301SOL    HW186800  11.649   5.058  10.388
28301SOL    HW286801  11.562   4.934  10.380
28302SOL     OW86802   0.234  12.032   2.630
28302SOL    HW186803   0.146  12.031   2.593
28302SOL    HW286804   0.220  12.034   2.725
28303SOL     OW86805   2.915   1.856  13.763
28303SOL    HW186806   2.979   1.788  13.786
28303SOL    HW286807   2.966   1.937  13.761
28304SOL     OW86808  12.352  13.908  14.518
28304SOL    HW186809  12.421  13.844  14.502
28304SOL    HW286810  12.361  13.931  14.610
28305SOL     OW86811   7.633   4.243   3.261
28305SOL    HW186812   7.650   4.308   3.193
28305SOL    HW286813   7.604   4.165   3.213
28306SOL     OW86814  10.005   6.865   0.070
28306SOL    HW186815  10.069   6.936   0.067
28306SOL    HW286816   9.921   6.907   0.054
28307SOL     OW86817  11.993   9.989  12.006
28307SOL    HW186818  11.965  10.075  12.036
28307SOL    HW286819  12.089   9.991  12.012
28308SOL     OW86820   0.228   6.090   4.508
28308SOL    HW186821   0.281   6.145   4.450
28308SOL    HW286822   0.157   6.148   4.536
28309SOL     OW86823   3.974  14.511   4.062
28309SOL    HW186824   3.962  14.504   4.157
28309SOL    HW286825   4.057  14.467   4.045
28310SOL     OW86826   6.147  12.006  10.093
28310SOL    HW186827   6.132  11.912  10.105
28310SOL    HW286828   6.179  12.036  10.178
28311SOL     OW86829   3.561   6.908  11.982
28311SOL    HW186830   3.533   6.817  11.979
28311SOL    HW286831   3.650   6.908  11.949
28312SOL     OW86832   0.117   4.458   4.366
28312SOL    HW186833   0.194   4.509   4.340
28312SOL    HW286834   0.043   4.516   4.347
28313SOL     OW86835   0.732   7.367  14.790
28313SOL    HW186836   0.745   7.423  14.866
28313SOL    HW286837   0.637   7.359  14.782
28314SOL     OW86838   6.183   6.192  14.669
28314SOL    HW186839   6.221   6.228  14.588
28314SOL    HW286840   6.092   6.174  14.646
28315SOL     OW86841   4.979   8.496   1.408
28315SOL    HW186842   5.061   8.447   1.411
28315SOL    HW286843   4.998   8.577   1.454
28316SOL     OW86844   3.677   9.381  13.928
28316SOL    HW186845   3.637   9.467  13.943
28316SOL    HW286846   3.767   9.391  13.960
28317SOL     OW86847   1.169   1.953   5.753
28317SOL    HW186848   1.093   1.907   5.717
28317SOL    HW286849   1.187   1.908   5.836
28318SOL     OW86850   1.048   8.155  11.412
28318SOL    HW186851   0.979   8.147  11.478
28318SOL    HW286852   1.128   8.127  11.457
28319SOL     OW86853  13.107   3.336  11.955
28319SOL    HW186854  13.193   3.298  11.972
28319SOL    HW286855  13.045   3.272  11.989
28320SOL     OW86856   7.337   9.437  14.030
28320SOL    HW186857   7.395   9.378  14.078
28320SOL    HW286858   7.252   9.392  14.029
28321SOL     OW86859   8.139  12.590   7.845
28321SOL    HW186860   8.197  12.624   7.777
28321SOL    HW286861   8.109  12.668   7.892
28322SOL     OW86862   1.043   0.761   2.496
28322SOL    HW186863   1.015   0.678   2.458
28322SOL    HW286864   1.086   0.737   2.578
28323SOL     OW86865   6.790   0.812   6.797
28323SOL    HW186866   6.824   0.835   6.884
28323SOL    HW286867   6.706   0.857   6.791
28324SOL     OW86868  14.150  12.211  11.997
28324SOL    HW186869  14.239  12.237  11.975
28324SOL    HW286870  14.101  12.218  11.914
28325SOL     OW86871  12.207   0.198  11.233
28325SOL    HW186872  12.257   0.215  11.313
28325SOL    HW286873  12.136   0.140  11.261
28326SOL     OW86874   8.404   4.596   7.155
28326SOL    HW186875   8.437   4.509   7.132
28326SOL    HW286876   8.392   4.593   7.250
28327SOL     OW86877   6.593   4.874  13.685
28327SOL    HW186878   6.533   4.878  13.611
28327SOL    HW286879   6.541   4.900  13.760
28328SOL     OW86880  11.211   1.065   0.888
28328SOL    HW186881  11.251   0.998   0.832
28328SOL    HW286882  11.246   1.046   0.976
28329SOL     OW86883  11.318  13.345   1.682
28329SOL    HW186884  11.224  13.347   1.660
28329SOL    HW286885  11.335  13.430   1.723
28330SOL     OW86886  10.027   5.095   2.628
28330SOL    HW186887   9.932   5.096   2.623
28330SOL    HW286888  10.056   5.143   2.551
28331SOL     OW86889   2.388   6.072  10.414
28331SOL    HW186890   2.425   6.132  10.478
28331SOL    HW286891   2.392   5.986  10.457
28332SOL     OW86892   3.030  12.588  12.027
28332SOL    HW186893   2.997  12.677  12.042
28332SOL    HW286894   3.040  12.582  11.932
28333SOL     OW86895   4.126   8.489   0.053
28333SOL    HW186896   4.067   8.539  14.875
28333SOL    HW286897   4.158   8.552   0.118
28334SOL     OW86898   9.196   0.938   3.661
28334SOL    HW186899   9.125   0.949   3.597
28334SOL    HW286900   9.191   0.845   3.686
28335SOL     OW86901  14.833   1.219   3.701
28335SOL    HW186902  14.763   1.156   3.686
28335SOL    HW286903  14.832   1.234   3.796
28336SOL     OW86904   4.505   7.515   6.859
28336SOL    HW186905   4.596   7.498   6.837
28336SOL    HW286906   4.509   7.556   6.945
28337SOL     OW86907  10.805   5.768  11.035
28337SOL    HW186908  10.834   5.846  11.083
28337SOL    HW286909  10.720   5.793  10.998
28338SOL     OW86910   8.606   9.438   6.299
28338SOL    HW186911   8.654   9.385   6.235
28338SOL    HW286912   8.657   9.518   6.307
28339SOL     OW86913  14.392  11.659   5.166
28339SOL    HW186914  14.369  11.614   5.247
28339SOL    HW286915  14.345  11.742   5.171
28340SOL     OW86916  14.622  13.187   5.031
28340SOL    HW186917  14.573  13.249   5.084
28340SOL    HW286918  14.710  13.186   5.070
28341SOL     OW86919   9.018  11.221  11.017
28341SOL    HW186920   9.060  11.165  11.083
28341SOL    HW286921   9.073  11.210  10.939
28342SOL     OW86922   6.119   3.502  10.175
28342SOL    HW186923   6.151   3.538  10.092
28342SOL    HW286924   6.188   3.442  10.204
28343SOL     OW86925   6.634   6.654   4.436
28343SOL    HW186926   6.620   6.748   4.443
28343SOL    HW286927   6.720   6.638   4.474
28344SOL     OW86928   6.574   6.458  11.101
28344SOL    HW186929   6.624   6.518  11.157
28344SOL    HW286930   6.625   6.452  11.021
28345SOL     OW86931  10.985   6.101   7.141
28345SOL    HW186932  10.998   6.138   7.053
28345SOL    HW286933  10.895   6.127   7.163
28346SOL     OW86934  12.465   7.034  11.924
28346SOL    HW186935  12.548   6.988  11.931
28346SOL    HW286936  12.468   7.101  11.993
28347SOL     OW86937  14.129  14.877   5.424
28347SOL    HW186938  14.163  14.794   5.391
28347SOL    HW286939  14.167   0.008   5.511
28348SOL     OW86940   2.602   9.215   6.229
28348SOL    HW186941   2.517   9.215   6.184
28348SOL    HW286942   2.666   9.218   6.158
28349SOL     OW86943  12.424   6.941   1.449
28349SOL    HW186944  12.336   6.974   1.467
28349SOL    HW286945  12.431   6.940   1.353
28350SOL     OW86946   7.419  14.404   5.727
28350SOL    HW186947   7.425  14.324   5.779
28350SOL    HW286948   7.502  14.408   5.679
28351SOL     OW86949  12.208   2.684   0.428
28351SOL    HW186950  12.144   2.702   0.358
28351SOL    HW286951  12.277   2.634   0.385
28352SOL     OW86952   7.967   0.528  14.160
28352SOL    HW186953   7.904   0.527  14.088
28352SOL    HW286954   8.005   0.616  14.156
28353SOL     OW86955   7.121   9.999   1.847
28353SOL    HW186956   7.029   9.983   1.867
28353SOL    HW286957   7.161  10.018   1.932
28354SOL     OW86958  12.396  10.252   4.101
28354SOL    HW186959  12.313  10.290   4.132
28354SOL    HW286960  12.410  10.293   4.016
28355SOL     OW86961  14.398  13.535   1.656
28355SOL    HW186962  14.430  13.473   1.722
28355SOL    HW286963  14.368  13.481   1.584
28356SOL     OW86964   5.763  10.508   0.465
28356SOL    HW186965   5.729  10.424   0.495
28356SOL    HW286966   5.770  10.498   0.370
28357SOL     OW86967   3.813  12.442   8.027
28357SOL    HW186968   3.899  12.429   7.987
28357SOL    HW286969   3.774  12.514   7.977
28358SOL     OW86970   2.074  11.104  10.524
28358SOL    HW186971   2.092  11.018  10.486
28358SOL    HW286972   2.009  11.086  10.592
28359SOL     OW86973   9.698   9.005  10.485
28359SOL    HW186974   9.750   8.933  10.449
28359SOL    HW286975   9.638   9.029  10.414
28360SOL     OW86976   8.259   2.748   7.976
28360SOL    HW186977   8.302   2.809   8.035
28360SOL    HW286978   8.327   2.685   7.953
28361SOL     OW86979   3.139   5.989   8.803
28361SOL    HW186980   3.111   5.948   8.721
28361SOL    HW286981   3.234   5.983   8.801
28362SOL     OW86982  11.108   4.244   5.479
28362SOL    HW186983  11.083   4.221   5.568
28362SOL    HW286984  11.035   4.215   5.425
28363SOL     OW86985   2.598   6.041  13.091
28363SOL    HW186986   2.529   6.063  13.153
28363SOL    HW286987   2.566   5.962  13.047
28364SOL     OW86988   0.039   9.083   2.681
28364SOL    HW186989  14.830   9.041   2.680
28364SOL    HW286990   0.037   9.140   2.759
28365SOL     OW86991   7.220  11.399   1.203
28365SOL    HW186992   7.287  11.340   1.239
28365SOL    HW286993   7.151  11.341   1.172
28366SOL     OW86994   9.839   4.051   1.129
28366SOL    HW186995   9.906   4.116   1.112
28366SOL    HW286996   9.758   4.090   1.096
28367SOL     OW86997  10.403   7.106   6.020
28367SOL    HW186998  10.374   7.186   5.977
28367SOL    HW286999  10.498   7.116   6.028
28368SOL     OW87000   9.103   8.984  10.898
28368SOL    HW187001   9.155   8.971  10.977
28368SOL    HW287002   9.151   9.051  10.849
28369SOL     OW87003   1.196   1.099   9.048
28369SOL    HW187004   1.263   1.152   9.092
28369SOL    HW287005   1.217   1.009   9.073
28370SOL     OW87006   4.919  13.980   2.330
28370SOL    HW187007   5.010  13.952   2.319
28370SOL    HW287008   4.881  13.917   2.391
28371SOL     OW87009   0.714   0.394   8.182
28371SOL    HW187010   0.683   0.482   8.165
28371SOL    HW287011   0.648   0.337   8.142
28372SOL     OW87012  10.148  14.448   2.605
28372SOL    HW187013  10.138  14.353   2.603
28372SOL    HW287014  10.192  14.469   2.523
28373SOL     OW87015   4.374   8.416   8.100
28373SOL    HW187016   4.351   8.332   8.059
28373SOL    HW287017   4.469   8.412   8.110
28374SOL     OW87018   0.644   2.684   5.557
28374SOL    HW187019   0.613   2.768   5.524
28374SOL    HW287020   0.633   2.690   5.651
28375SOL     OW87021   7.812   9.974   1.181
28375SOL    HW187022   7.734   9.957   1.127
28375SOL    HW287023   7.876   9.910   1.152
28376SOL     OW87024   9.449  14.734   3.590
28376SOL    HW187025   9.360  14.755   3.620
28376SOL    HW287026   9.503  14.804   3.624
28377SOL     OW87027  14.501  14.167  12.573
28377SOL    HW187028  14.532  14.080  12.548
28377SOL    HW287029  14.470  14.156  12.663
28378SOL     OW87030   8.500   0.268  10.651
28378SOL    HW187031   8.419   0.274  10.702
28378SOL    HW287032   8.521   0.358  10.627
28379SOL     OW87033   0.372   5.910  14.233
28379SOL    HW187034   0.444   5.847  14.225
28379SOL    HW287035   0.294   5.862  14.208
28380SOL     OW87036  12.909  11.906   4.666
28380SOL    HW187037  12.869  11.962   4.600
28380SOL    HW287038  12.885  11.817   4.640
28381SOL     OW87039  12.293   4.109   8.536
28381SOL    HW187040  12.316   4.171   8.606
28381SOL    HW287041  12.218   4.061   8.571
28382SOL     OW87042  14.246   1.318  12.778
28382SOL    HW187043  14.221   1.333  12.687
28382SOL    HW287044  14.243   1.404  12.819
28383SOL     OW87045  14.762   8.470   8.005
28383SOL    HW187046  14.691   8.519   7.962
28383SOL    HW287047  14.716   8.405   8.058
28384SOL     OW87048   6.481   7.983   3.960
28384SOL    HW187049   6.471   8.009   4.051
28384SOL    HW287050   6.394   7.952   3.933
28385SOL     OW87051   4.538  11.989   6.934
28385SOL    HW187052   4.620  11.941   6.949
28385SOL    HW287053   4.470  11.923   6.947
28386SOL     OW87054   3.458   8.979   0.848
28386SOL    HW187055   3.434   9.006   0.760
28386SOL    HW287056   3.530   9.038   0.873
28387SOL     OW87057  13.008   8.876  14.564
28387SOL    HW187058  12.947   8.804  14.545
28387SOL    HW287059  13.006   8.930  14.486
28388SOL     OW87060   8.486  11.310   0.374
28388SOL    HW187061   8.424  11.259   0.323
28388SOL    HW287062   8.553  11.337   0.311
28389SOL     OW87063  14.695  10.730   0.324
28389SOL    HW187064  14.788  10.710   0.337
28389SOL    HW287065  14.650  10.649   0.349
28390SOL     OW87066  11.190   4.632   8.541
28390SOL    HW187067  11.215   4.543   8.568
28390SOL    HW287068  11.229   4.642   8.454
28391SOL     OW87069  11.360   3.521  14.117
28391SOL    HW187070  11.312   3.516  14.199
28391SOL    HW287071  11.332   3.444  14.068
28392SOL     OW87072  14.869  13.385   1.498
28392SOL    HW187073  14.794  13.374   1.439
28392SOL    HW287074   0.011  13.296   1.528
28393SOL     OW87075   3.020   6.684  11.941
28393SOL    HW187076   2.982   6.645  11.862
28393SOL    HW287077   2.968   6.763  11.956
28394SOL     OW87078  11.316  10.896   8.862
28394SOL    HW187079  11.332  10.981   8.822
28394SOL    HW287080  11.237  10.908   8.914
28395SOL     OW87081   6.802  14.033   4.914
28395SOL    HW187082   6.871  14.009   4.852
28395SOL    HW287083   6.777  13.949   4.953
28396SOL     OW87084  12.161   8.540   5.295
28396SOL    HW187085  12.157   8.600   5.221
28396SOL    HW287086  12.198   8.460   5.260
28397SOL     OW87087   4.952   9.381  13.064
28397SOL    HW187088   4.899   9.415  13.136
28397SOL    HW287089   4.917   9.294  13.048
28398SOL     OW87090   6.535   5.174   2.919
28398SOL    HW187091   6.496   5.247   2.968
28398SOL    HW287092   6.531   5.202   2.827
28399SOL     OW87093   6.519   5.683   1.706
28399SOL    HW187094   6.519   5.671   1.801
28399SOL    HW287095   6.569   5.763   1.692
28400SOL     OW87096   0.079   4.796  11.589
28400SOL    HW187097   0.107   4.809  11.680
28400SOL    HW287098  14.872   4.752  11.596
28401SOL     OW87099  10.237  10.011  10.086
28401SOL    HW187100  10.146   9.996  10.059
28401SOL    HW287101  10.229  10.073  10.159
28402SOL     OW87102  10.318   9.196   9.725
28402SOL    HW187103  10.335   9.275   9.675
28402SOL    HW287104  10.404   9.155   9.736
28403SOL     OW87105   3.114   7.561   4.203
28403SOL    HW187106   3.033   7.554   4.254
28403SOL    HW287107   3.133   7.655   4.200
28404SOL     OW87108  13.014   8.142   4.519
28404SOL    HW187109  13.040   8.158   4.610
28404SOL    HW287110  12.963   8.219   4.496
28405SOL     OW87111   4.651  10.590   1.973
28405SOL    HW187112   4.561  10.572   2.000
28405SOL    HW287113   4.695  10.621   2.053
28406SOL     OW87114   1.186   5.403   4.759
28406SOL    HW187115   1.128   5.371   4.828
28406SOL    HW287116   1.241   5.327   4.737
28407SOL     OW87117   8.991   0.837   2.475
28407SOL    HW187118   8.945   0.908   2.520
28407SOL    HW287119   8.939   0.821   2.397
28408SOL     OW87120  14.871   6.085   6.391
28408SOL    HW187121   0.031   6.090   6.479
28408SOL    HW287122  14.831   5.998   6.387
28409SOL     OW87123   1.002  13.196  14.759
28409SOL    HW187124   1.082  13.239  14.729
28409SOL    HW287125   1.024  13.163  14.846
28410SOL     OW87126   6.270  14.703   5.866
28410SOL    HW187127   6.312  14.618   5.854
28410SOL    HW287128   6.317  14.762   5.808
28411SOL     OW87129   0.173   4.768   6.134
28411SOL    HW187130   0.189   4.751   6.227
28411SOL    HW287131   0.259   4.758   6.093
28412SOL     OW87132   3.296   1.153   1.014
28412SOL    HW187133   3.205   1.185   1.012
28412SOL    HW287134   3.314   1.127   0.924
28413SOL     OW87135   4.898   8.278  14.370
28413SOL    HW187136   4.992   8.276  14.386
28413SOL    HW287137   4.882   8.209  14.306
28414SOL     OW87138  11.854   6.718   3.863
28414SOL    HW187139  11.837   6.637   3.911
28414SOL    HW287140  11.882   6.689   3.776
28415SOL     OW87141  10.492   5.094   3.191
28415SOL    HW187142  10.495   5.061   3.101
28415SOL    HW287143  10.531   5.024   3.244
28416SOL     OW87144  13.046   2.457  10.103
28416SOL    HW187145  13.063   2.461  10.009
28416SOL    HW287146  12.983   2.386  10.113
28417SOL     OW87147   4.304  11.500  13.325
28417SOL    HW187148   4.330  11.425  13.378
28417SOL    HW287149   4.236  11.544  13.377
28418SOL     OW87150   3.049   6.819   1.301
28418SOL    HW187151   3.127   6.852   1.256
28418SOL    HW287152   3.000   6.773   1.233
28419SOL     OW87153   0.340  10.516   7.866
28419SOL    HW187154   0.255  10.496   7.827
28419SOL    HW287155   0.378  10.430   7.885
28420SOL     OW87156  13.194   5.885   0.230
28420SOL    HW187157  13.272   5.836   0.204
28420SOL    HW287158  13.198   5.886   0.326
28421SOL     OW87159   8.476   3.901   1.128
28421SOL    HW187160   8.516   3.906   1.041
28421SOL    HW287161   8.544   3.862   1.183
28422SOL     OW87162  12.204   3.736   8.318
28422SOL    HW187163  12.235   3.646   8.332
28422SOL    HW287164  12.127   3.726   8.263
28423SOL     OW87165   3.466   2.752   4.391
28423SOL    HW187166   3.405   2.812   4.433
28423SOL    HW287167   3.553   2.785   4.416
28424SOL     OW87168   2.672  12.219   0.297
28424SOL    HW187169   2.684  12.177   0.211
28424SOL    HW287170   2.761  12.236   0.327
28425SOL     OW87171   1.872   2.189   4.106
28425SOL    HW187172   1.833   2.146   4.182
28425SOL    HW287173   1.937   2.126   4.074
28426SOL     OW87174  14.118  10.238   0.752
28426SOL    HW187175  14.090  10.148   0.769
28426SOL    HW287176  14.208  10.230   0.722
28427SOL     OW87177  14.310   3.701   9.908
28427SOL    HW187178  14.323   3.731   9.818
28427SOL    HW287179  14.355   3.766   9.962
28428SOL     OW87180   2.810   4.814  13.654
28428SOL    HW187181   2.730   4.811  13.707
28428SOL    HW287182   2.864   4.743  13.688
28429SOL     OW87183   6.917  11.722   6.185
28429SOL    HW187184   6.940  11.631   6.170
28429SOL    HW287185   6.854  11.742   6.116
28430SOL     OW87186   2.830   6.469   8.253
28430SOL    HW187187   2.796   6.389   8.293
28430SOL    HW287188   2.925   6.461   8.259
28431SOL     OW87189   0.620  10.801   8.386
28431SOL    HW187190   0.572  10.875   8.347
28431SOL    HW287191   0.697  10.840   8.425
28432SOL     OW87192   2.581   7.362   4.040
28432SOL    HW187193   2.621   7.449   4.031
28432SOL    HW287194   2.487   7.379   4.035
28433SOL     OW87195   7.784   0.127  10.899
28433SOL    HW187196   7.748   0.046  10.863
28433SOL    HW287197   7.837   0.098  10.973
28434SOL     OW87198   6.040   4.708  12.347
28434SOL    HW187199   5.986   4.653  12.404
28434SOL    HW287200   5.987   4.719  12.268
28435SOL     OW87201  12.490   9.619   1.260
28435SOL    HW187202  12.528   9.628   1.173
28435SOL    HW287203  12.447   9.703   1.276
28436SOL     OW87204   5.246  11.520   4.036
28436SOL    HW187205   5.332  11.559   4.017
28436SOL    HW287206   5.246  11.438   3.986
28437SOL     OW87207  14.071   0.187   2.607
28437SOL    HW187208  14.137   0.236   2.557
28437SOL    HW287209  14.121   0.135   2.669
28438SOL     OW87210   6.142   6.620  12.409
28438SOL    HW187211   6.078   6.575  12.354
28438SOL    HW287212   6.209   6.554  12.427
28439SOL     OW87213   5.109   5.692  10.305
28439SOL    HW187214   5.184   5.751  10.306
28439SOL    HW287215   5.145   5.605  10.323
28440SOL     OW87216   6.113   5.435  12.251
28440SOL    HW187217   6.164   5.380  12.191
28440SOL    HW287218   6.179   5.476  12.307
28441SOL     OW87219   3.175   2.920   5.706
28441SOL    HW187220   3.237   2.851   5.729
28441SOL    HW287221   3.103   2.874   5.663
28442SOL     OW87222  14.190  11.383   1.710
28442SOL    HW187223  14.173  11.299   1.668
28442SOL    HW287224  14.103  11.417   1.731
28443SOL     OW87225   9.592   6.150   2.912
28443SOL    HW187226   9.599   6.209   2.986
28443SOL    HW287227   9.683   6.131   2.887
28444SOL     OW87228   2.407   4.545   2.726
28444SOL    HW187229   2.418   4.472   2.664
28444SOL    HW287230   2.321   4.581   2.704
28445SOL     OW87231   2.896   6.565   4.870
28445SOL    HW187232   2.827   6.519   4.918
28445SOL    HW287233   2.947   6.494   4.829
28446SOL     OW87234   0.587   9.282  14.291
28446SOL    HW187235   0.613   9.343  14.361
28446SOL    HW287236   0.584   9.197  14.333
28447SOL     OW87237  11.508  13.898   3.483
28447SOL    HW187238  11.424  13.922   3.444
28447SOL    HW287239  11.490  13.895   3.577
28448SOL     OW87240   0.039  14.770  13.581
28448SOL    HW187241   0.058  14.736  13.493
28448SOL    HW287242   0.113  14.740  13.634
28449SOL     OW87243   6.454  12.422  10.120
28449SOL    HW187244   6.494  12.434  10.034
28449SOL    HW287245   6.524  12.446  10.182
28450SOL     OW87246   8.360   2.375  14.499
28450SOL    HW187247   8.411   2.441  14.453
28450SOL    HW287248   8.269   2.403  14.489
28451SOL     OW87249   5.726   3.276  10.718
28451SOL    HW187250   5.646   3.252  10.672
28451SOL    HW287251   5.706   3.262  10.810
28452SOL     OW87252   4.647   0.672   5.105
28452SOL    HW187253   4.590   0.613   5.055
28452SOL    HW287254   4.733   0.663   5.065
28453SOL     OW87255   6.078   6.588  14.674
28453SOL    HW187256   6.129   6.666  14.652
28453SOL    HW287257   6.069   6.541  14.590
28454SOL     OW87258   7.907  11.554  14.151
28454SOL    HW187259   7.911  11.557  14.056
28454SOL    HW287260   7.958  11.477  14.176
28455SOL     OW87261  13.255   8.385   5.764
28455SOL    HW187262  13.252   8.296   5.800
28455SOL    HW287263  13.164   8.407   5.746
28456SOL     OW87264  12.004   2.498   6.263
28456SOL    HW187265  12.095   2.493   6.235
28456SOL    HW287266  11.980   2.407   6.284
28457SOL     OW87267   2.309   1.585   4.172
28457SOL    HW187268   2.257   1.665   4.165
28457SOL    HW287269   2.301   1.559   4.263
28458SOL     OW87270   6.301   2.319   9.567
28458SOL    HW187271   6.302   2.313   9.471
28458SOL    HW287272   6.287   2.230   9.597
28459SOL     OW87273   9.299   9.323   3.563
28459SOL    HW187274   9.376   9.299   3.511
28459SOL    HW287275   9.246   9.244   3.564
28460SOL     OW87276   7.136   8.185   6.733
28460SOL    HW187277   7.189   8.121   6.781
28460SOL    HW287278   7.062   8.134   6.700
28461SOL     OW87279  11.796  12.835   1.934
28461SOL    HW187280  11.739  12.813   1.860
28461SOL    HW287281  11.744  12.895   1.987
28462SOL     OW87282   2.512   0.787   9.226
28462SOL    HW187283   2.443   0.741   9.274
28462SOL    HW287284   2.585   0.725   9.224
28463SOL     OW87285   6.396   3.104   4.808
28463SOL    HW187286   6.466   3.041   4.789
28463SOL    HW287287   6.441   3.183   4.836
28464SOL     OW87288  12.417   0.004  13.240
28464SOL    HW187289  12.377  14.795  13.246
28464SOL    HW287290  12.497  14.868  13.190
28465SOL     OW87291  14.605   9.669  11.863
28465SOL    HW187292  14.657   9.749  11.855
28465SOL    HW287293  14.514   9.699  11.865
28466SOL     OW87294   2.997   8.828  10.066
28466SOL    HW187295   2.998   8.776   9.985
28466SOL    HW287296   3.086   8.818  10.101
28467SOL     OW87297   3.960  10.358   2.836
28467SOL    HW187298   3.944  10.452   2.845
28467SOL    HW287299   3.928  10.320   2.918
28468SOL     OW87300   1.716   0.517   1.610
28468SOL    HW187301   1.779   0.527   1.539
28468SOL    HW287302   1.761   0.465   1.676
28469SOL     OW87303  10.231  12.155  14.607
28469SOL    HW187304  10.180  12.208  14.546
28469SOL    HW287305  10.180  12.154  14.688
28470SOL     OW87306   5.486   9.859   9.550
28470SOL    HW187307   5.477   9.791   9.483
28470SOL    HW287308   5.412   9.844   9.609
28471SOL     OW87309  10.567   7.671   4.937
28471SOL    HW187310  10.547   7.588   4.892
28471SOL    HW287311  10.590   7.731   4.866
28472SOL     OW87312  14.607   4.524  13.238
28472SOL    HW187313  14.568   4.470  13.169
28472SOL    HW287314  14.682   4.566  13.197
28473SOL     OW87315   1.793   1.239  11.493
28473SOL    HW187316   1.750   1.297  11.556
28473SOL    HW287317   1.791   1.287  11.410
28474SOL     OW87318  10.430   3.997   5.760
28474SOL    HW187319  10.379   4.075   5.738
28474SOL    HW287320  10.496   3.992   5.690
28475SOL     OW87321   1.594  10.535   8.433
28475SOL    HW187322   1.564  10.450   8.465
28475SOL    HW287323   1.651  10.568   8.502
28476SOL     OW87324  12.378   2.846   2.443
28476SOL    HW187325  12.293   2.870   2.479
28476SOL    HW287326  12.429   2.926   2.444
28477SOL     OW87327   4.715   9.165   1.633
28477SOL    HW187328   4.645   9.216   1.592
28477SOL    HW287329   4.796   9.209   1.606
28478SOL     OW87330   9.738   8.235   8.782
28478SOL    HW187331   9.738   8.163   8.719
28478SOL    HW287332   9.731   8.192   8.867
28479SOL     OW87333   3.729   3.363  14.788
28479SOL    HW187334   3.705   3.335  14.876
28479SOL    HW287335   3.824   3.361  14.787
28480SOL     OW87336   1.685   0.683  14.375
28480SOL    HW187337   1.602   0.639  14.357
28480SOL    HW287338   1.693   0.748  14.305
28481SOL     OW87339  12.263  11.871   3.621
28481SOL    HW187340  12.281  11.965   3.624
28481SOL    HW287341  12.172  11.865   3.593
28482SOL     OW87342   7.936  12.412   5.376
28482SOL    HW187343   7.867  12.398   5.440
28482SOL    HW287344   8.012  12.366   5.413
28483SOL     OW87345  10.657   2.509  11.336
28483SOL    HW187346  10.614   2.434  11.295
28483SOL    HW287347  10.689   2.562  11.263
28484SOL     OW87348   7.888  12.634   0.454
28484SOL    HW187349   7.954  12.701   0.468
28484SOL    HW287350   7.804  12.681   0.454
28485SOL     OW87351  14.441   9.082  14.448
28485SOL    HW187352  14.473   9.053  14.534
28485SOL    HW287353  14.370   9.022  14.428
28486SOL     OW87354  10.285   2.972  12.994
28486SOL    HW187355  10.194   2.941  12.992
28486SOL    HW287356  10.334   2.903  12.950
28487SOL     OW87357   3.084   8.806   1.942
28487SOL    HW187358   3.058   8.718   1.970
28487SOL    HW287359   3.013   8.863   1.971
28488SOL     OW87360   7.345   6.205   3.042
28488SOL    HW187361   7.280   6.153   3.089
28488SOL    HW287362   7.328   6.295   3.069
28489SOL     OW87363  12.676   0.958  14.695
28489SOL    HW187364  12.712   0.901  14.627
28489SOL    HW287365  12.581   0.949  14.686
28490SOL     OW87366  11.908  10.605   4.217
28490SOL    HW187367  11.831  10.643   4.260
28490SOL    HW287368  11.977  10.670   4.231
28491SOL     OW87369   1.399   0.019  12.439
28491SOL    HW187370   1.450  14.823  12.406
28491SOL    HW287371   1.414   0.017  12.534
28492SOL     OW87372   4.423   4.088   4.875
28492SOL    HW187373   4.339   4.134   4.873
28492SOL    HW287374   4.474   4.126   4.803
28493SOL     OW87375   6.363   0.003   6.751
28493SOL    HW187376   6.290   0.046   6.707
28493SOL    HW287377   6.441   0.034   6.705
28494SOL     OW87378  12.375   9.049   9.632
28494SOL    HW187379  12.415   9.002   9.559
28494SOL    HW287380  12.340   9.129   9.592
28495SOL     OW87381   4.836   6.235  12.993
28495SOL    HW187382   4.784   6.289  12.933
28495SOL    HW287383   4.823   6.146  12.963
28496SOL     OW87384   2.358   3.158   9.946
28496SOL    HW187385   2.396   3.142   9.859
28496SOL    HW287386   2.336   3.071   9.979
28497SOL     OW87387  13.864  10.766  11.231
28497SOL    HW187388  13.811  10.753  11.153
28497SOL    HW287389  13.830  10.846  11.270
28498SOL     OW87390  10.997   2.436   9.400
28498SOL    HW187391  10.949   2.517   9.381
28498SOL    HW287392  10.930   2.368   9.396
28499SOL     OW87393   2.702   1.518   2.305
28499SOL    HW187394   2.692   1.586   2.372
28499SOL    HW287395   2.613   1.506   2.270
28500SOL     OW87396   1.838   8.558  13.503
28500SOL    HW187397   1.746   8.537  13.489
28500SOL    HW287398   1.853   8.545  13.597
28501SOL     OW87399   5.188   0.939   3.826
28501SOL    HW187400   5.160   0.994   3.899
28501SOL    HW287401   5.124   0.868   3.824
28502SOL     OW87402   0.428   5.629  13.988
28502SOL    HW187403   0.499   5.577  13.950
28502SOL    HW287404   0.470   5.679  14.058
28503SOL     OW87405   2.186  10.433  11.121
28503SOL    HW187406   2.200  10.346  11.084
28503SOL    HW287407   2.183  10.419  11.216
28504SOL     OW87408   1.373   3.526  14.066
28504SOL    HW187409   1.402   3.605  14.021
28504SOL    HW287410   1.278   3.531  14.063
28505SOL     OW87411  14.754   3.673  12.721
28505SOL    HW187412  14.799   3.605  12.772
28505SOL    HW287413  14.666   3.677  12.759
28506SOL     OW87414   4.086  10.818  14.526
28506SOL    HW187415   4.080  10.727  14.556
28506SOL    HW287416   4.071  10.813  14.431
28507SOL     OW87417   5.555   6.784   5.563
28507SOL    HW187418   5.476   6.730   5.573
28507SOL    HW287419   5.538   6.837   5.485
28508SOL     OW87420   3.499   8.520   1.446
28508SOL    HW187421   3.515   8.599   1.497
28508SOL    HW287422   3.561   8.525   1.373
28509SOL     OW87423   3.252   7.646   3.753
28509SOL    HW187424   3.346   7.644   3.736
28509SOL    HW287425   3.224   7.732   3.723
28510SOL     OW87426   6.236   4.144  10.387
28510SOL    HW187427   6.143   4.156  10.408
28510SOL    HW287428   6.246   4.050  10.375
28511SOL     OW87429   4.819   8.632   4.893
28511SOL    HW187430   4.895   8.612   4.947
28511SOL    HW287431   4.750   8.576   4.927
28512SOL     OW87432   3.710  14.848   9.064
28512SOL    HW187433   3.743   0.048   9.109
28512SOL    HW287434   3.760  14.843   8.983
28513SOL     OW87435  11.681   4.995   2.461
28513SOL    HW187436  11.775   5.013   2.459
28513SOL    HW287437  11.675   4.900   2.448
28514SOL     OW87438   7.260  10.811  14.562
28514SOL    HW187439   7.255  10.904  14.580
28514SOL    HW287440   7.276  10.805  14.468
28515SOL     OW87441   9.926   6.225   1.174
28515SOL    HW187442   9.962   6.145   1.135
28515SOL    HW287443   9.832   6.209   1.178
28516SOL     OW87444  13.278   8.250  10.131
28516SOL    HW187445  13.366   8.223  10.105
28516SOL    HW287446  13.262   8.205  10.214
28517SOL     OW87447   1.639   1.383  12.497
28517SOL    HW187448   1.658   1.441  12.571
28517SOL    HW287449   1.720   1.382  12.447
28518SOL     OW87450   4.065  12.026   7.998
28518SOL    HW187451   4.080  11.944   8.047
28518SOL    HW287452   4.136  12.029   7.934
28519SOL     OW87453   8.683   9.114   8.830
28519SOL    HW187454   8.663   9.054   8.758
28519SOL    HW287455   8.736   9.183   8.790
28520SOL     OW87456  12.767   3.196   0.994
28520SOL    HW187457  12.729   3.186   0.906
28520SOL    HW287458  12.820   3.275   0.989
28521SOL     OW87459  11.270  11.170   8.876
28521SOL    HW187460  11.278  11.225   8.954
28521SOL    HW287461  11.197  11.209   8.827
28522SOL     OW87462   1.338  11.790  11.655
28522SOL    HW187463   1.398  11.782  11.581
28522SOL    HW287464   1.340  11.705  11.698
28523SOL     OW87465  11.705  14.529   0.056
28523SOL    HW187466  11.779  14.589   0.068
28523SOL    HW287467  11.658  14.565  14.858
28524SOL     OW87468   8.785   0.626   8.536
28524SOL    HW187469   8.735   0.708   8.534
28524SOL    HW287470   8.826   0.621   8.450
28525SOL     OW87471   4.464   8.036   0.884
28525SOL    HW187472   4.544   8.068   0.842
28525SOL    HW287473   4.488   7.950   0.918
28526SOL     OW87474   2.352   5.889   7.135
28526SOL    HW187475   2.331   5.844   7.217
28526SOL    HW287476   2.446   5.876   7.124
28527SOL     OW87477  13.985  11.602   5.255
28527SOL    HW187478  13.940  11.676   5.213
28527SOL    HW287479  13.914  11.543   5.281
28528SOL     OW87480   9.083  12.045  11.233
28528SOL    HW187481   9.056  12.049  11.142
28528SOL    HW287482   9.055  12.129  11.270
28529SOL     OW87483   8.595   1.386   0.964
28529SOL    HW187484   8.637   1.349   0.887
28529SOL    HW287485   8.588   1.313   1.026
28530SOL     OW87486   1.841   2.020   5.489
28530SOL    HW187487   1.801   2.001   5.404
28530SOL    HW287488   1.830   2.115   5.500
28531SOL     OW87489  11.405  13.741  13.157
28531SOL    HW187490  11.332  13.715  13.214
28531SOL    HW287491  11.393  13.835  13.145
28532SOL     OW87492   4.970  11.883   7.552
28532SOL    HW187493   4.953  11.973   7.524
28532SOL    HW287494   4.892  11.834   7.525
28533SOL     OW87495   1.917   3.350   1.343
28533SOL    HW187496   1.920   3.438   1.306
28533SOL    HW287497   1.996   3.344   1.396
28534SOL     OW87498  12.612  13.201   4.436
28534SOL    HW187499  12.659  13.282   4.416
28534SOL    HW287500  12.639  13.140   4.367
28535SOL     OW87501  12.912  10.362  14.629
28535SOL    HW187502  12.851  10.290  14.611
28535SOL    HW287503  12.906  10.375  14.724
28536SOL     OW87504   4.541  13.032   4.979
28536SOL    HW187505   4.512  12.942   4.966
28536SOL    HW287506   4.561  13.038   5.072
28537SOL     OW87507  11.680   9.680  11.128
28537SOL    HW187508  11.655   9.608  11.069
28537SOL    HW287509  11.715   9.748  11.070
28538SOL     OW87510  11.478   9.028   8.622
28538SOL    HW187511  11.479   9.036   8.527
28538SOL    HW287512  11.521   8.944   8.640
28539SOL     OW87513  12.744   8.135   0.985
28539SOL    HW187514  12.720   8.141   0.892
28539SOL    HW287515  12.736   8.042   1.006
28540SOL     OW87516   4.850  10.727  10.982
28540SOL    HW187517   4.788  10.782  10.935
28540SOL    HW287518   4.827  10.637  10.957
28541SOL     OW87519   7.129   4.315  13.218
28541SOL    HW187520   7.166   4.390  13.172
28541SOL    HW287521   7.192   4.245  13.204
28542SOL     OW87522   8.049  10.342  12.394
28542SOL    HW187523   7.988  10.381  12.331
28542SOL    HW287524   8.123  10.313  12.340
28543SOL     OW87525  12.749   8.407   0.675
28543SOL    HW187526  12.659   8.436   0.659
28543SOL    HW287527  12.803   8.466   0.622
28544SOL     OW87528   2.129   9.097   8.300
28544SOL    HW187529   2.154   9.181   8.262
28544SOL    HW287530   2.048   9.074   8.254
28545SOL     OW87531   6.135   0.096   2.975
28545SOL    HW187532   6.182   0.150   3.038
28545SOL    HW287533   6.149   0.139   2.891
28546SOL     OW87534   2.872  14.246   5.353
28546SOL    HW187535   2.946  14.200   5.392
28546SOL    HW287536   2.823  14.178   5.307
28547SOL     OW87537   9.018   5.019  10.859
28547SOL    HW187538   8.943   5.043  10.913
28547SOL    HW287539   8.998   5.058  10.773
28548SOL     OW87540   9.494  12.648   0.515
28548SOL    HW187541   9.475  12.736   0.485
28548SOL    HW287542   9.522  12.660   0.606
28549SOL     OW87543   6.360   4.438  14.628
28549SOL    HW187544   6.435   4.494  14.647
28549SOL    HW287545   6.385   4.352  14.662
28550SOL     OW87546  10.979   9.210   5.973
28550SOL    HW187547  11.062   9.257   5.968
28550SOL    HW287548  10.946   9.212   5.883
28551SOL     OW87549  10.245   6.830   6.479
28551SOL    HW187550  10.271   6.899   6.540
28551SOL    HW287551  10.194   6.874   6.412
28552SOL     OW87552   9.505  10.297   3.735
28552SOL    HW187553   9.555  10.257   3.805
28552SOL    HW287554   9.418  10.310   3.772
28553SOL     OW87555   5.975   4.653   9.481
28553SOL    HW187556   6.012   4.663   9.569
28553SOL    HW287557   5.995   4.562   9.458
28554SOL     OW87558   8.206  11.868   8.669
28554SOL    HW187559   8.257  11.937   8.711
28554SOL    HW287560   8.208  11.890   8.576
28555SOL     OW87561   2.582   1.098  12.257
28555SOL    HW187562   2.670   1.060  12.258
28555SOL    HW287563   2.570   1.131  12.168
28556SOL     OW87564   7.490  12.521   5.563
28556SOL    HW187565   7.455  12.569   5.638
28556SOL    HW287566   7.413  12.490   5.516
28557SOL     OW87567   4.309  14.207   7.832
28557SOL    HW187568   4.214  14.209   7.819
28557SOL    HW287569   4.343  14.156   7.759
28558SOL     OW87570   4.209   4.873   3.041
28558SOL    HW187571   4.158   4.814   3.096
28558SOL    HW287572   4.276   4.909   3.100
28559SOL     OW87573   6.942   9.633  14.161
28559SOL    HW187574   6.856   9.602  14.189
28559SOL    HW287575   7.004   9.586  14.218
28560SOL     OW87576  11.700   0.242   7.422
28560SOL    HW187577  11.770   0.218   7.361
28560SOL    HW287578  11.706   0.337   7.429
28561SOL     OW87579   1.732  10.510   6.624
28561SOL    HW187580   1.709  10.588   6.574
28561SOL    HW287581   1.807  10.537   6.678
28562SOL     OW87582   7.538  11.219   5.944
28562SOL    HW187583   7.578  11.205   5.858
28562SOL    HW287584   7.604  11.191   6.007
28563SOL     OW87585   4.879   4.054   4.007
28563SOL    HW187586   4.865   3.969   3.965
28563SOL    HW287587   4.802   4.066   4.063
28564SOL     OW87588   0.316   1.335   2.836
28564SOL    HW187589   0.397   1.285   2.827
28564SOL    HW287590   0.249   1.279   2.797
28565SOL     OW87591  11.282   0.405   9.962
28565SOL    HW187592  11.299   0.322  10.008
28565SOL    HW287593  11.236   0.378   9.883
28566SOL     OW87594   8.052  14.696   4.337
28566SOL    HW187595   8.103  14.773   4.360
28566SOL    HW287596   8.058  14.639   4.414
28567SOL     OW87597   2.358   6.151   0.344
28567SOL    HW187598   2.414   6.088   0.389
28567SOL    HW287599   2.410   6.231   0.340
28568SOL     OW87600   7.679   1.893   7.095
28568SOL    HW187601   7.625   1.938   7.031
28568SOL    HW287602   7.752   1.857   7.045
28569SOL     OW87603   9.141  12.681   9.537
28569SOL    HW187604   9.087  12.615   9.582
28569SOL    HW287605   9.107  12.680   9.447
28570SOL     OW87606  13.764  12.617   2.048
28570SOL    HW187607  13.744  12.549   2.112
28570SOL    HW287608  13.858  12.631   2.058
28571SOL     OW87609   5.366   4.077   4.201
28571SOL    HW187610   5.275   4.095   4.225
28571SOL    HW287611   5.372   4.105   4.109
28572SOL     OW87612  11.428  11.095  13.766
28572SOL    HW187613  11.420  11.005  13.796
28572SOL    HW287614  11.348  11.138  13.799
28573SOL     OW87615   4.799   2.275  12.634
28573SOL    HW187616   4.843   2.314  12.711
28573SOL    HW287617   4.766   2.350  12.585
28574SOL     OW87618   8.973   4.488   1.543
28574SOL    HW187619   9.012   4.409   1.508
28574SOL    HW287620   8.939   4.462   1.629
28575SOL     OW87621   0.836   5.982   9.510
28575SOL    HW187622   0.905   6.032   9.554
28575SOL    HW287623   0.837   6.015   9.420
28576SOL     OW87624   1.723   1.099   0.287
28576SOL    HW187625   1.636   1.058   0.289
28576SOL    HW287626   1.733   1.131   0.198
28577SOL     OW87627  14.837   6.019   3.101
28577SOL    HW187628  14.779   6.091   3.122
28577SOL    HW287629   0.024   6.056   3.041
28578SOL     OW87630   5.221  12.924   5.479
28578SOL    HW187631   5.280  12.864   5.433
28578SOL    HW287632   5.159  12.952   5.412
28579SOL     OW87633  12.956   1.311   4.640
28579SOL    HW187634  12.924   1.246   4.577
28579SOL    HW287635  12.971   1.261   4.721
28580SOL     OW87636   1.349   2.918   8.212
28580SOL    HW187637   1.432   2.870   8.215
28580SOL    HW287638   1.282   2.851   8.226
28581SOL     OW87639   5.106  14.059   3.847
28581SOL    HW187640   5.187  14.105   3.870
28581SOL    HW287641   5.037  14.124   3.856
28582SOL     OW87642   5.669  14.187  11.702
28582SOL    HW187643   5.746  14.135  11.722
28582SOL    HW287644   5.611  14.174  11.777
28583SOL     OW87645   8.501   7.545   8.577
28583SOL    HW187646   8.519   7.575   8.488
28583SOL    HW287647   8.411   7.512   8.574
28584SOL     OW87648   1.926   3.051   3.790
28584SOL    HW187649   1.867   3.124   3.773
28584SOL    HW287650   1.934   3.006   3.706
28585SOL     OW87651   8.911   6.858  11.568
28585SOL    HW187652   8.863   6.870  11.649
28585SOL    HW287653   8.938   6.947  11.543
28586SOL     OW87654  14.196   0.487  11.804
28586SOL    HW187655  14.187   0.421  11.736
28586SOL    HW287656  14.265   0.454  11.861
28587SOL     OW87657   2.286   9.426   3.482
28587SOL    HW187658   2.283   9.504   3.428
28587SOL    HW287659   2.196   9.394   3.483
28588SOL     OW87660  14.690   2.119   3.871
28588SOL    HW187661  14.751   2.058   3.830
28588SOL    HW287662  14.746   2.183   3.915
28589SOL     OW87663   0.902   6.331   4.821
28589SOL    HW187664   0.955   6.259   4.786
28589SOL    HW287665   0.946   6.410   4.790
28590SOL     OW87666   7.691   1.131   7.629
28590SOL    HW187667   7.668   1.176   7.710
28590SOL    HW287668   7.770   1.081   7.650
28591SOL     OW87669  12.546  12.095  10.856
28591SOL    HW187670  12.493  12.164  10.896
28591SOL    HW287671  12.579  12.135  10.775
28592SOL     OW87672   2.943   0.367   8.106
28592SOL    HW187673   2.988   0.445   8.139
28592SOL    HW287674   2.997   0.294   8.136
28593SOL     OW87675  12.634   6.691   7.921
28593SOL    HW187676  12.653   6.726   8.008
28593SOL    HW287677  12.584   6.611   7.938
28594SOL     OW87678   2.271   5.007   3.476
28594SOL    HW187679   2.256   5.098   3.503
28594SOL    HW287680   2.259   4.956   3.557
28595SOL     OW87681   9.374   8.782   7.028
28595SOL    HW187682   9.364   8.741   6.942
28595SOL    HW287683   9.285   8.794   7.060
28596SOL     OW87684  11.903  11.900   5.935
28596SOL    HW187685  11.959  11.970   5.902
28596SOL    HW287686  11.873  11.932   6.021
28597SOL     OW87687   3.558   5.266   5.562
28597SOL    HW187688   3.626   5.276   5.628
28597SOL    HW287689   3.492   5.211   5.604
28598SOL     OW87690   9.789   7.654   9.379
28598SOL    HW187691   9.811   7.630   9.289
28598SOL    HW287692   9.707   7.607   9.397
28599SOL     OW87693  10.733   7.084   4.493
28599SOL    HW187694  10.713   7.128   4.410
28599SOL    HW287695  10.749   7.155   4.555
28600SOL     OW87696  11.095   8.545   7.303
28600SOL    HW187697  11.116   8.632   7.337
28600SOL    HW287698  11.128   8.546   7.213
28601SOL     OW87699   7.356  13.144   0.864
28601SOL    HW187700   7.299  13.102   0.928
28601SOL    HW287701   7.347  13.237   0.881
28602SOL     OW87702  11.413  14.649  14.126
28602SOL    HW187703  11.384  14.714  14.191
28602SOL    HW287704  11.490  14.608  14.166
28603SOL     OW87705   7.156   0.031   1.766
28603SOL    HW187706   7.074  14.875   1.800
28603SOL    HW287707   7.130   0.089   1.694
28604SOL     OW87708   0.743   4.991   6.414
28604SOL    HW187709   0.798   5.023   6.343
28604SOL    HW287710   0.704   4.910   6.378
28605SOL     OW87711   7.533   4.437  10.467
28605SOL    HW187712   7.555   4.345  10.477
28605SOL    HW287713   7.608   4.475  10.421
28606SOL     OW87714   4.960   3.219   2.426
28606SOL    HW187715   4.985   3.238   2.336
28606SOL    HW287716   5.042   3.213   2.474
28607SOL     OW87717   0.344   0.814   6.965
28607SOL    HW187718   0.283   0.869   7.012
28607SOL    HW287719   0.414   0.874   6.938
28608SOL     OW87720  14.196  11.091  10.184
28608SOL    HW187721  14.188  11.092  10.089
28608SOL    HW287722  14.156  11.008  10.210
28609SOL     OW87723   4.249   7.542   6.635
28609SOL    HW187724   4.204   7.623   6.657
28609SOL    HW287725   4.336   7.569   6.606
28610SOL     OW87726  13.153   2.101   3.704
28610SOL    HW187727  13.131   2.015   3.669
28610SOL    HW287728  13.071   2.136   3.738
28611SOL     OW87729   3.281   7.744  11.037
28611SOL    HW187730   3.284   7.814  11.103
28611SOL    HW287731   3.355   7.687  11.060
28612SOL     OW87732  14.027  12.663   0.620
28612SOL    HW187733  13.960  12.670   0.553
28612SOL    HW287734  14.003  12.585   0.670
28613SOL     OW87735   8.943   9.350   5.084
28613SOL    HW187736   8.879   9.281   5.066
28613SOL    HW287737   9.000   9.311   5.151
28614SOL     OW87738   3.453  12.183   9.518
28614SOL    HW187739   3.398  12.260   9.500
28614SOL    HW287740   3.536  12.202   9.474
28615SOL     OW87741  13.959   7.898  10.398
28615SOL    HW187742  14.040   7.920  10.445
28615SOL    HW287743  13.889   7.933  10.454
28616SOL     OW87744   7.173  14.679   8.182
28616SOL    HW187745   7.237  14.611   8.161
28616SOL    HW287746   7.135  14.652   8.266
28617SOL     OW87747   1.662   7.342   6.269
28617SOL    HW187748   1.635   7.386   6.188
28617SOL    HW287749   1.729   7.400   6.306
28618SOL     OW87750   1.329   4.506   7.273
28618SOL    HW187751   1.327   4.530   7.180
28618SOL    HW287752   1.375   4.578   7.316
28619SOL     OW87753   4.493   4.946  10.680
28619SOL    HW187754   4.456   5.031  10.706
28619SOL    HW287755   4.506   4.900  10.763
28620SOL     OW87756  10.914  10.518   9.166
28620SOL    HW187757  10.969  10.556   9.235
28620SOL    HW287758  10.862  10.451   9.210
28621SOL     OW87759   8.668   8.341  13.532
28621SOL    HW187760   8.748   8.328  13.582
28621SOL    HW287761   8.633   8.252  13.521
28622SOL     OW87762   2.315   6.611   5.538
28622SOL    HW187763   2.346   6.586   5.625
28622SOL    HW287764   2.359   6.694   5.521
28623SOL     OW87765   0.477   8.500  10.250
28623SOL    HW187766   0.418   8.495  10.175
28623SOL    HW287767   0.464   8.417  10.297
28624SOL     OW87768  10.642   8.043  12.657
28624SOL    HW187769  10.637   8.018  12.565
28624SOL    HW287770  10.586   7.979  12.702
28625SOL     OW87771  10.496  12.011   9.794
28625SOL    HW187772  10.587  12.010   9.823
28625SOL    HW287773  10.497  11.972   9.707
28626SOL     OW87774   5.221   2.576   6.615
28626SOL    HW187775   5.174   2.627   6.550
28626SOL    HW287776   5.313   2.599   6.602
28627SOL     OW87777   7.621  13.737   6.897
28627SOL    HW187778   7.594  13.755   6.988
28627SOL    HW287779   7.598  13.816   6.849
28628SOL     OW87780   8.446   0.816   3.258
28628SOL    HW187781   8.514   0.883   3.262
28628SOL    HW287782   8.366   0.864   3.239
28629SOL     OW87783  14.207   1.231   3.293
28629SOL    HW187784  14.160   1.148   3.295
28629SOL    HW287785  14.202   1.264   3.382
28630SOL     OW87786   9.190  10.225   7.054
28630SOL    HW187787   9.154  10.305   7.018
28630SOL    HW287788   9.268  10.207   7.001
28631SOL     OW87789   4.655  11.512   5.317
28631SOL    HW187790   4.734  11.566   5.331
28631SOL    HW287791   4.584  11.575   5.311
28632SOL     OW87792   7.113   3.078   0.326
28632SOL    HW187793   7.075   3.127   0.253
28632SOL    HW287794   7.188   3.132   0.354
28633SOL     OW87795   1.205  11.510   4.122
28633SOL    HW187796   1.263  11.576   4.161
28633SOL    HW287797   1.157  11.473   4.196
28634SOL     OW87798   6.981  14.463  14.155
28634SOL    HW187799   6.912  14.522  14.185
28634SOL    HW287800   6.936  14.403  14.096
28635SOL     OW87801   9.466   9.321   0.270
28635SOL    HW187802   9.410   9.320   0.192
28635SOL    HW287803   9.433   9.395   0.322
28636SOL     OW87804   6.444   0.271   6.092
28636SOL    HW187805   6.456   0.261   5.998
28636SOL    HW287806   6.394   0.351   6.102
28637SOL     OW87807   5.343  10.652  13.901
28637SOL    HW187808   5.423  10.674  13.852
28637SOL    HW287809   5.363  10.570  13.946
28638SOL     OW87810  10.055  11.633   9.772
28638SOL    HW187811  10.062  11.564   9.838
28638SOL    HW287812   9.994  11.697   9.809
28639SOL     OW87813   7.703   2.077   4.357
28639SOL    HW187814   7.686   2.110   4.268
28639SOL    HW287815   7.680   2.151   4.414
28640SOL     OW87816   5.884   1.773   6.366
28640SOL    HW187817   5.792   1.771   6.342
28640SOL    HW287818   5.926   1.713   6.304
28641SOL     OW87819   5.811   6.803   0.514
28641SOL    HW187820   5.767   6.875   0.468
28641SOL    HW287821   5.808   6.828   0.606
28642SOL     OW87822   5.598   0.666  12.494
28642SOL    HW187823   5.536   0.664  12.566
28642SOL    HW287824   5.671   0.719  12.527
28643SOL     OW87825   9.948   1.527   2.084
28643SOL    HW187826   9.864   1.481   2.076
28643SOL    HW287827   9.985   1.523   1.996
28644SOL     OW87828   6.758   9.510   3.335
28644SOL    HW187829   6.802   9.489   3.417
28644SOL    HW287830   6.737   9.604   3.342
28645SOL     OW87831  11.101   5.238   6.019
28645SOL    HW187832  11.176   5.276   6.064
28645SOL    HW287833  11.033   5.305   6.025
28646SOL     OW87834  11.727   8.446   4.804
28646SOL    HW187835  11.807   8.441   4.751
28646SOL    HW287836  11.703   8.539   4.803
28647SOL     OW87837   7.244   3.948  11.281
28647SOL    HW187838   7.185   3.906  11.219
28647SOL    HW287839   7.239   4.041  11.259
28648SOL     OW87840   4.156   2.873  11.464
28648SOL    HW187841   4.199   2.906  11.543
28648SOL    HW287842   4.062   2.882  11.482
28649SOL     OW87843   7.105   4.276   2.475
28649SOL    HW187844   7.047   4.321   2.537
28649SOL    HW287845   7.047   4.226   2.418
28650SOL     OW87846   2.522   6.549   1.504
28650SOL    HW187847   2.590   6.610   1.474
28650SOL    HW287848   2.515   6.566   1.598
28651SOL     OW87849  13.131   8.371   6.279
28651SOL    HW187850  13.129   8.408   6.368
28651SOL    HW287851  13.191   8.428   6.231
28652SOL     OW87852   3.524   7.555   4.367
28652SOL    HW187853   3.609   7.568   4.326
28652SOL    HW287854   3.516   7.627   4.429
28653SOL     OW87855  11.866   2.902   6.591
28653SOL    HW187856  11.899   2.816   6.565
28653SOL    HW287857  11.944   2.954   6.606
28654SOL     OW87858   4.475   3.045   0.180
28654SOL    HW187859   4.508   3.096   0.107
28654SOL    HW287860   4.406   3.099   0.219
28655SOL     OW87861  11.799  10.994   0.877
28655SOL    HW187862  11.798  11.082   0.841
28655SOL    HW287863  11.709  10.962   0.866
28656SOL     OW87864  13.912   2.574   6.483
28656SOL    HW187865  13.959   2.600   6.403
28656SOL    HW287866  13.925   2.479   6.488
28657SOL     OW87867   5.379   7.027   1.177
28657SOL    HW187868   5.471   7.053   1.189
28657SOL    HW287869   5.335   7.054   1.257
28658SOL     OW87870  11.386   0.535   0.449
28658SOL    HW187871  11.349   0.584   0.522
28658SOL    HW287872  11.357   0.445   0.463
28659SOL     OW87873   9.579   9.983   0.838
28659SOL    HW187874   9.610   9.952   0.923
28659SOL    HW287875   9.651   9.965   0.778
28660SOL     OW87876   9.295  12.504  11.325
28660SOL    HW187877   9.369  12.477  11.379
28660SOL    HW287878   9.228  12.530  11.387
28661SOL     OW87879  14.191  14.209   2.853
28661SOL    HW187880  14.175  14.303   2.841
28661SOL    HW287881  14.279  14.195   2.820
28662SOL     OW87882  13.394   0.759  14.345
28662SOL    HW187883  13.437   0.710  14.415
28662SOL    HW287884  13.332   0.697  14.307
28663SOL     OW87885  13.680   0.564   1.457
28663SOL    HW187886  13.629   0.485   1.440
28663SOL    HW287887  13.770   0.540   1.434
28664SOL     OW87888  10.851  14.511  10.511
28664SOL    HW187889  10.795  14.459  10.453
28664SOL    HW287890  10.886  14.448  10.573
28665SOL     OW87891   4.168   5.073  14.100
28665SOL    HW187892   4.096   5.074  14.163
28665SOL    HW287893   4.128   5.095  14.016
28666SOL     OW87894  10.769   6.759   8.342
28666SOL    HW187895  10.831   6.831   8.345
28666SOL    HW287896  10.686   6.798   8.316
28667SOL     OW87897   5.462   3.687   7.053
28667SOL    HW187898   5.466   3.593   7.073
28667SOL    HW287899   5.401   3.722   7.118
28668SOL     OW87900  13.527  14.634   5.128
28668SOL    HW187901  13.620  14.655   5.123
28668SOL    HW287902  13.494  14.652   5.040
28669SOL     OW87903  10.532  10.887   2.320
28669SOL    HW187904  10.593  10.846   2.382
28669SOL    HW287905  10.573  10.874   2.235
28670SOL     OW87906  10.760   9.277  14.594
28670SOL    HW187907  10.814   9.206  14.560
28670SOL    HW287908  10.675   9.265  14.553
28671SOL     OW87909   7.550   4.944   4.131
28671SOL    HW187910   7.476   4.899   4.171
28671SOL    HW287911   7.562   5.023   4.184
28672SOL     OW87912   0.624   7.941   6.200
28672SOL    HW187913   0.711   7.938   6.241
28672SOL    HW287914   0.602   7.850   6.182
28673SOL     OW87915   4.567  13.892   2.839
28673SOL    HW187916   4.647  13.840   2.833
28673SOL    HW287917   4.570  13.951   2.764
28674SOL     OW87918   2.311   6.796   5.144
28674SOL    HW187919   2.323   6.871   5.086
28674SOL    HW287920   2.359   6.819   5.224
28675SOL     OW87921  12.586   4.964  10.547
28675SOL    HW187922  12.554   5.025  10.480
28675SOL    HW287923  12.638   5.019  10.606
28676SOL     OW87924  11.219   8.459  14.519
28676SOL    HW187925  11.155   8.480  14.587
28676SOL    HW287926  11.244   8.368  14.536
28677SOL     OW87927   6.840   3.426   3.934
28677SOL    HW187928   6.835   3.360   3.866
28677SOL    HW287929   6.932   3.428   3.960
28678SOL     OW87930   0.049   4.675   6.571
28678SOL    HW187931  14.859   4.743   6.565
28678SOL    HW287932   0.001   4.595   6.588
28679SOL     OW87933   8.770   9.198  10.453
28679SOL    HW187934   8.780   9.129  10.387
28679SOL    HW287935   8.686   9.239  10.433
28680SOL     OW87936   5.322  12.102   9.319
28680SOL    HW187937   5.353  12.072   9.405
28680SOL    HW287938   5.299  12.022   9.272
28681SOL     OW87939   0.060   4.389   8.425
28681SOL    HW187940  14.863   4.438   8.391
28681SOL    HW287941   0.099   4.348   8.348
28682SOL     OW87942   0.134   2.011   4.120
28682SOL    HW187943   0.099   2.096   4.149
28682SOL    HW287944   0.199   1.988   4.185
28683SOL     OW87945   3.652   1.872   4.988
28683SOL    HW187946   3.661   1.847   4.896
28683SOL    HW287947   3.690   1.798   5.036
28684SOL     OW87948  11.208   9.013  14.346
28684SOL    HW187949  11.157   8.937  14.375
28684SOL    HW287950  11.284   9.014  14.404
28685SOL     OW87951   3.220   8.073  10.724
28685SOL    HW187952   3.247   8.158  10.689
28685SOL    HW287953   3.236   8.080  10.818
28686SOL     OW87954  11.566  12.258   8.409
28686SOL    HW187955  11.470  12.258   8.408
28686SOL    HW287956  11.591  12.333   8.356
28687SOL     OW87957   2.138  10.640   6.172
28687SOL    HW187958   2.169  10.722   6.212
28687SOL    HW287959   2.155  10.573   6.238
28688SOL     OW87960   7.113   3.624   9.223
28688SOL    HW187961   7.125   3.529   9.218
28688SOL    HW287962   7.197   3.660   9.195
28689SOL     OW87963  11.802  11.174  11.721
28689SOL    HW187964  11.714  11.154  11.752
28689SOL    HW287965  11.859  11.152  11.794
28690SOL     OW87966  11.949  10.233  13.007
28690SOL    HW187967  11.873  10.179  13.030
28690SOL    HW287968  12.019  10.170  12.992
28691SOL     OW87969   5.162   6.939   3.690
28691SOL    HW187970   5.214   6.935   3.610
28691SOL    HW287971   5.080   6.980   3.663
28692SOL     OW87972   1.878  10.327   8.917
28692SOL    HW187973   1.807  10.283   8.963
28692SOL    HW287974   1.934  10.256   8.886
28693SOL     OW87975  13.584   0.470  10.033
28693SOL    HW187976  13.490   0.448  10.028
28693SOL    HW287977  13.628   0.390  10.005
28694SOL     OW87978   3.940   7.777   9.223
28694SOL    HW187979   4.015   7.835   9.234
28694SOL    HW287980   3.973   7.690   9.246
28695SOL     OW87981   7.674  10.177  11.698
28695SOL    HW187982   7.644  10.093  11.731
28695SOL    HW287983   7.754  10.195  11.749
28696SOL     OW87984   8.298   3.291  14.082
28696SOL    HW187985   8.285   3.233  14.007
28696SOL    HW287986   8.372   3.347  14.056
28697SOL     OW87987   9.374   0.595   8.901
28697SOL    HW187988   9.411   0.683   8.903
28697SOL    HW287989   9.286   0.605   8.936
28698SOL     OW87990   3.444   0.439   2.041
28698SOL    HW187991   3.452   0.531   2.017
28698SOL    HW287992   3.534   0.407   2.044
28699SOL     OW87993   9.426   3.651   5.778
28699SOL    HW187994   9.472   3.596   5.842
28699SOL    HW287995   9.472   3.734   5.780
28700SOL     OW87996   0.854   5.670   5.222
28700SOL    HW187997   0.934   5.657   5.172
28700SOL    HW287998   0.857   5.603   5.291
28701SOL     OW87999   3.470   0.830   4.271
28701SOL    HW188000   3.492   0.740   4.292
28701SOL    HW288001   3.541   0.859   4.214
28702SOL     OW88002  13.303  12.184   0.326
28702SOL    HW188003  13.369  12.129   0.283
28702SOL    HW288004  13.232  12.123   0.348
28703SOL     OW88005   3.008   8.014  11.625
28703SOL    HW188006   2.975   8.034  11.713
28703SOL    HW288007   3.027   7.920  11.627
28704SOL     OW88008  13.697   6.899   4.567
28704SOL    HW188009  13.769   6.839   4.550
28704SOL    HW288010  13.645   6.898   4.487
28705SOL     OW88011  13.097   7.220   0.146
28705SOL    HW188012  13.162   7.207   0.077
28705SOL    HW288013  13.121   7.159   0.215
28706SOL     OW88014   6.156   3.962  12.035
28706SOL    HW188015   6.177   3.940  11.945
28706SOL    HW288016   6.071   4.006  12.030
28707SOL     OW88017   2.611  14.012   0.352
28707SOL    HW188018   2.685  14.018   0.292
28707SOL    HW288019   2.567  13.930   0.328
28708SOL     OW88020   9.202   7.096  11.741
28708SOL    HW188021   9.197   7.176  11.794
28708SOL    HW288022   9.209   7.127  11.651
28709SOL     OW88023   4.374  11.356  13.915
28709SOL    HW188024   4.455  11.307  13.932
28709SOL    HW288025   4.310  11.318  13.975
28710SOL     OW88026   1.542   0.930   2.081
28710SOL    HW188027   1.467   0.976   2.043
28710SOL    HW288028   1.550   0.966   2.169
28711SOL     OW88029  11.981  14.516  10.990
28711SOL    HW188030  12.025  14.473  10.916
28711SOL    HW288031  11.975  14.447  11.056
28712SOL     OW88032   5.937   6.975  12.935
28712SOL    HW188033   5.885   6.943  13.009
28712SOL    HW288034   6.016   6.921  12.936
28713SOL     OW88035   0.209   1.428  10.921
28713SOL    HW188036   0.273   1.459  10.856
28713SOL    HW288037   0.192   1.505  10.975
28714SOL     OW88038   0.987  11.298   0.125
28714SOL    HW188039   1.046  11.330   0.056
28714SOL    HW288040   1.037  11.229   0.169
28715SOL     OW88041  13.670   2.686   6.470
28715SOL    HW188042  13.737   2.618   6.459
28715SOL    HW288043  13.673   2.708   6.563
28716SOL     OW88044   7.849   4.023  14.491
28716SOL    HW188045   7.865   3.961  14.561
28716SOL    HW288046   7.897   4.102  14.517
28717SOL     OW88047   0.667  12.979   1.910
28717SOL    HW188048   0.676  13.074   1.898
28717SOL    HW288049   0.616  12.950   1.834
28718SOL     OW88050   0.583   3.282   9.131
28718SOL    HW188051   0.656   3.236   9.091
28718SOL    HW288052   0.509   3.222   9.122
28719SOL     OW88053  10.223  10.865   1.264
28719SOL    HW188054  10.269  10.849   1.181
28719SOL    HW288055  10.145  10.914   1.238
28720SOL     OW88056  11.410   2.637   7.761
28720SOL    HW188057  11.364   2.689   7.827
28720SOL    HW288058  11.485   2.600   7.808
28721SOL     OW88059   1.404  12.980  11.654
28721SOL    HW188060   1.408  12.905  11.595
28721SOL    HW288061   1.393  13.055  11.595
28722SOL     OW88062   9.122   1.142   7.224
28722SOL    HW188063   9.066   1.216   7.249
28722SOL    HW288064   9.204   1.183   7.195
28723SOL     OW88065   2.924   2.454   7.846
28723SOL    HW188066   2.966   2.388   7.791
28723SOL    HW288067   2.951   2.538   7.807
28724SOL     OW88068   6.339   3.506  10.581
28724SOL    HW188069   6.276   3.441  10.551
28724SOL    HW288070   6.297   3.591  10.566
28725SOL     OW88071   3.081   3.818   7.777
28725SOL    HW188072   3.002   3.868   7.797
28725SOL    HW288073   3.055   3.758   7.707
28726SOL     OW88074   5.590   9.585  14.777
28726SOL    HW188075   5.535   9.506  14.773
28726SOL    HW288076   5.533   9.655  14.747
28727SOL     OW88077  10.907  11.934  10.319
28727SOL    HW188078  10.965  11.953  10.393
28727SOL    HW288079  10.819  11.950  10.352
28728SOL     OW88080   2.650   3.196   0.521
28728SOL    HW188081   2.635   3.131   0.589
28728SOL    HW288082   2.579   3.182   0.458
28729SOL     OW88083   2.022  13.666   2.713
28729SOL    HW188084   2.036  13.581   2.671
28729SOL    HW288085   1.933  13.660   2.750
28730SOL     OW88086  13.977   9.747   9.969
28730SOL    HW188087  13.958   9.660   9.934
28730SOL    HW288088  13.892   9.789   9.978
28731SOL     OW88089   7.865   9.055   0.562
28731SOL    HW188090   7.851   9.112   0.637
28731SOL    HW288091   7.784   9.005   0.554
28732SOL     OW88092   2.184  11.328   2.083
28732SOL    HW188093   2.184  11.236   2.110
28732SOL    HW288094   2.246  11.332   2.010
28733SOL     OW88095  13.944   1.309   1.724
28733SOL    HW188096  13.975   1.318   1.634
28733SOL    HW288097  13.994   1.373   1.774
28734SOL     OW88098   8.405   2.522   9.060
28734SOL    HW188099   8.312   2.547   9.057
28734SOL    HW288100   8.443   2.562   8.981
28735SOL     OW88101  14.284   4.808  14.853
28735SOL    HW188102  14.324   4.881  14.804
28735SOL    HW288103  14.358   4.765   0.018
28736SOL     OW88104  10.842   2.743   2.806
28736SOL    HW188105  10.802   2.672   2.756
28736SOL    HW288106  10.779   2.815   2.799
28737SOL     OW88107   8.375   5.853  12.062
28737SOL    HW188108   8.401   5.943  12.082
28737SOL    HW288109   8.406   5.802  12.136
28738SOL     OW88110   0.689   7.991   6.937
28738SOL    HW188111   0.670   8.054   6.867
28738SOL    HW288112   0.721   7.913   6.892
28739SOL     OW88113   8.294  13.685   5.332
28739SOL    HW188114   8.291  13.621   5.404
28739SOL    HW288115   8.372  13.738   5.351
28740SOL     OW88116  13.800   2.768   5.553
28740SOL    HW188117  13.769   2.854   5.526
28740SOL    HW288118  13.722   2.712   5.548
28741SOL     OW88119   6.213  10.705   4.031
28741SOL    HW188120   6.257  10.706   3.946
28741SOL    HW288121   6.144  10.772   4.023
28742SOL     OW88122   2.692  10.307  13.485
28742SOL    HW188123   2.761  10.255  13.525
28742SOL    HW288124   2.653  10.356  13.557
28743SOL     OW88125   1.039  11.549   9.390
28743SOL    HW188126   1.047  11.455   9.408
28743SOL    HW288127   1.128  11.583   9.401
28744SOL     OW88128   3.283   5.768   5.181
28744SOL    HW188129   3.322   5.855   5.174
28744SOL    HW288130   3.198   5.776   5.138
28745SOL     OW88131   2.201   7.847   6.630
28745SOL    HW188132   2.246   7.766   6.652
28745SOL    HW288133   2.163   7.830   6.544
28746SOL     OW88134   6.388  13.221   5.381
28746SOL    HW188135   6.434  13.170   5.448
28746SOL    HW288136   6.440  13.210   5.302
28747SOL     OW88137   3.662   6.093  10.399
28747SOL    HW188138   3.722   6.069  10.470
28747SOL    HW288139   3.684   6.032  10.328
28748SOL     OW88140   4.964  11.996   8.800
28748SOL    HW188141   5.059  11.985   8.793
28748SOL    HW288142   4.937  11.931   8.865
28749SOL     OW88143   2.911  14.322  11.395
28749SOL    HW188144   2.913  14.418  11.394
28749SOL    HW288145   2.835  14.299  11.342
28750SOL     OW88146   7.661  13.392   6.482
28750SOL    HW188147   7.720  13.467   6.492
28750SOL    HW288148   7.610  13.391   6.563
28751SOL     OW88149   0.605  13.134   5.406
28751SOL    HW188150   0.522  13.154   5.448
28751SOL    HW288151   0.671  13.176   5.460
28752SOL     OW88152  11.251   7.526   4.999
28752SOL    HW188153  11.340   7.561   5.005
28752SOL    HW288154  11.197   7.593   5.041
28753SOL     OW88155   1.147   0.173   4.784
28753SOL    HW188156   1.113   0.135   4.865
28753SOL    HW288157   1.109   0.119   4.715
28754SOL     OW88158   5.729  12.777  10.676
28754SOL    HW188159   5.685  12.693  10.665
28754SOL    HW288160   5.749  12.782  10.769
28755SOL     OW88161   5.208   5.194   9.068
28755SOL    HW188162   5.168   5.154   9.145
28755SOL    HW288163   5.293   5.226   9.098
28756SOL     OW88164  14.779   6.570  10.464
28756SOL    HW188165  14.786   6.607  10.376
28756SOL    HW288166  14.851   6.611  10.513
28757SOL     OW88167   9.581   9.268   6.564
28757SOL    HW188168   9.658   9.250   6.617
28757SOL    HW288169   9.612   9.327   6.495
28758SOL     OW88170  13.382  10.157   5.261
28758SOL    HW188171  13.402  10.083   5.317
28758SOL    HW288172  13.467  10.201   5.249
28759SOL     OW88173  12.366   7.286   1.585
28759SOL    HW188174  12.315   7.365   1.607
28759SOL    HW288175  12.301   7.221   1.560
28760SOL     OW88176   9.410   1.556   4.485
28760SOL    HW188177   9.352   1.550   4.561
28760SOL    HW288178   9.445   1.645   4.489
28761SOL     OW88179  14.270   9.080   0.440
28761SOL    HW188180  14.223   9.085   0.357
28761SOL    HW288181  14.222   9.015   0.491
28762SOL     OW88182   8.825   2.892   7.705
28762SOL    HW188183   8.774   2.812   7.713
28762SOL    HW288184   8.759   2.962   7.702
28763SOL     OW88185   9.505   4.422  11.468
28763SOL    HW188186   9.552   4.341  11.446
28763SOL    HW288187   9.465   4.449  11.385
28764SOL     OW88188   0.703  14.215   1.605
28764SOL    HW188189   0.764  14.289   1.600
28764SOL    HW288190   0.668  14.219   1.695
28765SOL     OW88191  12.201  14.597   9.728
28765SOL    HW188192  12.120  14.570   9.771
28765SOL    HW288193  12.265  14.531   9.756
28766SOL     OW88194  14.375   7.234  10.108
28766SOL    HW188195  14.310   7.171  10.076
28766SOL    HW288196  14.431   7.251  10.032
28767SOL     OW88197   7.821   7.960   4.572
28767SOL    HW188198   7.908   7.987   4.543
28767SOL    HW288199   7.800   8.020   4.644
28768SOL     OW88200   4.668   7.988   7.862
28768SOL    HW188201   4.649   7.916   7.803
28768SOL    HW288202   4.733   8.041   7.815
28769SOL     OW88203   5.043   2.689   9.416
28769SOL    HW188204   5.053   2.702   9.510
28769SOL    HW288205   5.122   2.642   9.390
28770SOL     OW88206  11.234  13.308  10.064
28770SOL    HW188207  11.326  13.281  10.068
28770SOL    HW288208  11.226  13.373  10.134
28771SOL     OW88209   7.912  13.256   7.364
28771SOL    HW188210   7.985  13.287   7.309
28771SOL    HW288211   7.868  13.337   7.391
28772SOL     OW88212  10.210   0.066   2.259
28772SOL    HW188213  10.144  14.876   2.270
28772SOL    HW288214  10.238   0.057   2.168
28773SOL     OW88215   8.739   2.140   4.373
28773SOL    HW188216   8.834   2.146   4.374
28773SOL    HW288217   8.720   2.050   4.344
28774SOL     OW88218   0.663   4.876   7.693
28774SOL    HW188219   0.611   4.842   7.766
28774SOL    HW288220   0.619   4.844   7.615
28775SOL     OW88221   5.108  14.404   1.572
28775SOL    HW188222   5.175  14.336   1.575
28775SOL    HW288223   5.115  14.448   1.657
28776SOL     OW88224   3.558   9.628  13.759
28776SOL    HW188225   3.563   9.695  13.690
28776SOL    HW288226   3.466   9.603  13.762
28777SOL     OW88227   6.232   1.763   0.607
28777SOL    HW188228   6.207   1.729   0.692
28777SOL    HW288229   6.180   1.713   0.544
28778SOL     OW88230  10.903  13.489   0.660
28778SOL    HW188231  10.846  13.425   0.616
28778SOL    HW288232  10.962  13.436   0.714
28779SOL     OW88233   1.289   7.752   7.929
28779SOL    HW188234   1.301   7.783   7.839
28779SOL    HW288235   1.199   7.719   7.931
28780SOL     OW88236   5.569   8.647   8.479
28780SOL    HW188237   5.553   8.586   8.551
28780SOL    HW288238   5.627   8.599   8.420
28781SOL     OW88239   9.359   0.522   5.489
28781SOL    HW188240   9.348   0.441   5.440
28781SOL    HW288241   9.450   0.521   5.519
28782SOL     OW88242   7.935   8.766   8.027
28782SOL    HW188243   7.906   8.857   8.018
28782SOL    HW288244   8.029   8.769   8.010
28783SOL     OW88245   2.666  13.590  11.733
28783SOL    HW188246   2.648  13.585  11.639
28783SOL    HW288247   2.719  13.669  11.743
28784SOL     OW88248   2.494   4.396  11.505
28784SOL    HW188249   2.505   4.419  11.413
28784SOL    HW288250   2.399   4.397  11.518
28785SOL     OW88251   9.572   6.307  10.863
28785SOL    HW188252   9.593   6.259  10.943
28785SOL    HW288253   9.536   6.390  10.893
28786SOL     OW88254  14.121  11.933  14.312
28786SOL    HW188255  14.202  11.886  14.331
28786SOL    HW288256  14.134  12.019  14.352
28787SOL     OW88257  12.579  13.390   2.698
28787SOL    HW188258  12.629  13.454   2.748
28787SOL    HW288259  12.488  13.411   2.716
28788SOL     OW88260   9.678   7.483  10.706
28788SOL    HW188261   9.651   7.422  10.774
28788SOL    HW288262   9.596   7.519  10.671
28789SOL     OW88263  12.145  10.249   3.276
28789SOL    HW188264  12.210  10.179   3.284
28789SOL    HW288265  12.171  10.313   3.342
28790SOL     OW88266   6.362   2.864   3.963
28790SOL    HW188267   6.448   2.831   3.939
28790SOL    HW288268   6.348   2.940   3.907
28791SOL     OW88269   8.511   3.071  10.638
28791SOL    HW188270   8.438   3.022  10.678
28791SOL    HW288271   8.530   3.141  10.701
28792SOL     OW88272  14.780   2.753   2.019
28792SOL    HW188273  14.694   2.711   2.013
28792SOL    HW288274  14.767   2.828   2.076
28793SOL     OW88275  11.011   8.413   9.391
28793SOL    HW188276  10.939   8.449   9.339
28793SOL    HW288277  11.082   8.475   9.379
28794SOL     OW88278   3.925   8.833   2.219
28794SOL    HW188279   3.960   8.896   2.281
28794SOL    HW288280   3.953   8.748   2.252
28795SOL     OW88281   9.368  12.178  14.674
28795SOL    HW188282   9.422  12.131  14.611
28795SOL    HW288283   9.311  12.111  14.712
28796SOL     OW88284   4.633  11.720  14.473
28796SOL    HW188285   4.630  11.626  14.494
28796SOL    HW288286   4.714  11.751  14.513
28797SOL     OW88287   2.271   2.520   6.998
28797SOL    HW188288   2.210   2.455   7.033
28797SOL    HW288289   2.232   2.547   6.915
28798SOL     OW88290   8.421  11.149  11.038
28798SOL    HW188291   8.488  11.141  11.106
28798SOL    HW288292   8.398  11.058  11.017
28799SOL     OW88293   2.516   2.643  10.459
28799SOL    HW188294   2.504   2.566  10.514
28799SOL    HW288295   2.442   2.700  10.481
28800SOL     OW88296  13.233  12.557   7.616
28800SOL    HW188297  13.259  12.562   7.708
28800SOL    HW288298  13.264  12.639   7.578
28801SOL     OW88299   6.191   4.070  10.852
28801SOL    HW188300   6.112   4.083  10.905
28801SOL    HW288301   6.202   3.975  10.847
28802SOL     OW88302   1.314  12.852   4.745
28802SOL    HW188303   1.270  12.772   4.717
28802SOL    HW288304   1.378  12.823   4.810
28803SOL     OW88305   8.875   2.791  14.334
28803SOL    HW188306   8.818   2.776  14.259
28803SOL    HW288307   8.963   2.797  14.297
28804SOL     OW88308   4.326   1.155  10.285
28804SOL    HW188309   4.255   1.195  10.335
28804SOL    HW288310   4.283   1.117  10.208
28805SOL     OW88311   2.646   8.111   2.313
28805SOL    HW188312   2.702   8.085   2.386
28805SOL    HW288313   2.707   8.143   2.247
28806SOL     OW88314   5.590   4.387  10.494
28806SOL    HW188315   5.595   4.339  10.411
28806SOL    HW288316   5.643   4.465  10.480
28807SOL     OW88317   4.177   7.791   2.555
28807SOL    HW188318   4.266   7.822   2.574
28807SOL    HW288319   4.179   7.698   2.577
28808SOL     OW88320   5.460   2.869   0.417
28808SOL    HW188321   5.424   2.951   0.385
28808SOL    HW288322   5.526   2.895   0.482
28809SOL     OW88323   8.447   0.609   8.660
28809SOL    HW188324   8.398   0.650   8.588
28809SOL    HW288325   8.516   0.559   8.617
28810SOL     OW88326  11.385   6.716  10.488
28810SOL    HW188327  11.377   6.736  10.582
28810SOL    HW288328  11.296   6.696  10.460
28811SOL     OW88329   4.741   8.778  10.390
28811SOL    HW188330   4.781   8.701  10.431
28811SOL    HW288331   4.757   8.848  10.453
28812SOL     OW88332   9.717  10.477  11.893
28812SOL    HW188333   9.707  10.393  11.850
28812SOL    HW288334   9.629  10.499  11.924
28813SOL     OW88335   5.852   3.759   3.953
28813SOL    HW188336   5.830   3.851   3.965
28813SOL    HW288337   5.843   3.720   4.040
28814SOL     OW88338   1.348   5.096   6.558
28814SOL    HW188339   1.275   5.122   6.503
28814SOL    HW288340   1.426   5.125   6.510
28815SOL     OW88341  12.884   6.920   2.626
28815SOL    HW188342  12.831   6.856   2.674
28815SOL    HW288343  12.931   6.869   2.561
28816SOL     OW88344   5.514   3.337  13.308
28816SOL    HW188345   5.473   3.422  13.296
28816SOL    HW288346   5.607   3.356  13.319
28817SOL     OW88347   5.912   4.884   4.750
28817SOL    HW188348   5.906   4.979   4.765
28817SOL    HW288349   5.963   4.852   4.824
28818SOL     OW88350   1.968   0.868   7.762
28818SOL    HW188351   1.979   0.954   7.803
28818SOL    HW288352   1.877   0.867   7.733
28819SOL     OW88353   8.710  13.130   4.658
28819SOL    HW188354   8.713  13.138   4.563
28819SOL    HW288355   8.637  13.186   4.684
28820SOL     OW88356   5.596   6.147   4.564
28820SOL    HW188357   5.543   6.224   4.584
28820SOL    HW288358   5.684   6.170   4.594
28821SOL     OW88359   7.307  10.491  11.934
28821SOL    HW188360   7.249  10.448  11.997
28821SOL    HW288361   7.392  10.450  11.948
28822SOL     OW88362   2.310   9.022  13.219
28822SOL    HW188363   2.295   9.054  13.130
28822SOL    HW288364   2.225   9.031  13.263
28823SOL     OW88365  12.925   6.783   8.113
28823SOL    HW188366  12.920   6.711   8.175
28823SOL    HW288367  12.869   6.851   8.150
28824SOL     OW88368  10.604   0.361   9.736
28824SOL    HW188369  10.692   0.364   9.699
28824SOL    HW288370  10.547   0.342   9.662
28825SOL     OW88371  14.744   2.426  13.701
28825SOL    HW188372  14.671   2.437  13.762
28825SOL    HW288373  14.807   2.372  13.749
28826SOL     OW88374   7.607  12.983   9.579
28826SOL    HW188375   7.541  12.953   9.516
28826SOL    HW288376   7.587  12.935   9.659
28827SOL     OW88377  14.436  14.677   1.299
28827SOL    HW188378  14.341  14.686   1.305
28827SOL    HW288379  14.455  14.674   1.205
28828SOL     OW88380   4.911  12.654   6.113
28828SOL    HW188381   4.898  12.601   6.034
28828SOL    HW288382   4.980  12.716   6.089
28829SOL     OW88383  10.551   2.684   5.318
28829SOL    HW188384  10.609   2.636   5.259
28829SOL    HW288385  10.521   2.759   5.267
28830SOL     OW88386   1.305   3.574   3.069
28830SOL    HW188387   1.344   3.496   3.030
28830SOL    HW288388   1.216   3.578   3.034
28831SOL     OW88389  14.428   2.854   1.058
28831SOL    HW188390  14.510   2.885   1.020
28831SOL    HW288391  14.416   2.908   1.136
28832SOL     OW88392  12.689   4.602  10.912
28832SOL    HW188393  12.778   4.619  10.879
28832SOL    HW288394  12.664   4.684  10.955
28833SOL     OW88395   0.442  10.884  11.494
28833SOL    HW188396   0.375  10.938  11.536
28833SOL    HW288397   0.469  10.935  11.417
28834SOL     OW88398   2.525  12.036   5.089
28834SOL    HW188399   2.589  12.105   5.074
28834SOL    HW288400   2.534  12.015   5.182
28835SOL     OW88401  10.346   9.585  12.636
28835SOL    HW188402  10.308   9.656  12.585
28835SOL    HW288403  10.438   9.584  12.611
28836SOL     OW88404   5.847  13.037   1.503
28836SOL    HW188405   5.894  13.041   1.586
28836SOL    HW288406   5.842  12.943   1.483
28837SOL     OW88407   0.850   1.678   7.457
28837SOL    HW188408   0.915   1.697   7.390
28837SOL    HW288409   0.901   1.647   7.532
28838SOL     OW88410   4.169   8.386   3.424
28838SOL    HW188411   4.081   8.418   3.444
28838SOL    HW288412   4.226   8.461   3.442
28839SOL     OW88413   9.635  12.234   1.207
28839SOL    HW188414   9.685  12.275   1.136
28839SOL    HW288415   9.587  12.163   1.165
28840SOL     OW88416   3.029   9.717   7.578
28840SOL    HW188417   2.947   9.694   7.621
28840SOL    HW288418   3.097   9.694   7.642
28841SOL     OW88419   3.669   9.941  13.112
28841SOL    HW188420   3.698   9.968  13.025
28841SOL    HW288421   3.620   9.860  13.097
28842SOL     OW88422   7.001   6.887   6.760
28842SOL    HW188423   7.066   6.933   6.814
28842SOL    HW288424   6.976   6.951   6.693
28843SOL     OW88425   8.441   8.741   7.172
28843SOL    HW188426   8.445   8.678   7.244
28843SOL    HW288427   8.470   8.691   7.095
28844SOL     OW88428   5.982   3.112   4.531
28844SOL    HW188429   5.949   3.062   4.456
28844SOL    HW288430   6.068   3.075   4.549
28845SOL     OW88431   3.029   9.165   8.065
28845SOL    HW188432   2.965   9.094   8.053
28845SOL    HW288433   3.045   9.167   8.159
28846SOL     OW88434  11.327   0.023   6.295
28846SOL    HW188435  11.273  14.827   6.268
28846SOL    HW288436  11.325   0.083   6.220
28847SOL     OW88437  11.253  11.469   9.743
28847SOL    HW188438  11.318  11.430   9.802
28847SOL    HW288439  11.288  11.455   9.655
28848SOL     OW88440   9.714  11.470  10.093
28848SOL    HW188441   9.653  11.533  10.130
28848SOL    HW288442   9.719  11.492  10.000
28849SOL     OW88443  11.282   5.576  13.390
28849SOL    HW188444  11.376   5.593  13.393
28849SOL    HW288445  11.256   5.598  13.300
28850SOL     OW88446  11.482   1.015  13.295
28850SOL    HW188447  11.471   1.110  13.307
28850SOL    HW288448  11.393   0.983  13.282
28851SOL     OW88449   4.608   8.793  11.240
28851SOL    HW188450   4.694   8.771  11.276
28851SOL    HW288451   4.561   8.709  11.238
28852SOL     OW88452   0.238   2.309   9.635
28852SOL    HW188453   0.164   2.261   9.670
28852SOL    HW288454   0.207   2.399   9.625
28853SOL     OW88455  12.965  10.532  11.975
28853SOL    HW188456  12.874  10.505  11.984
28853SOL    HW288457  12.963  10.627  11.989
28854SOL     OW88458   2.655  12.997   7.138
28854SOL    HW188459   2.651  13.061   7.209
28854SOL    HW288460   2.583  13.022   7.079
28855SOL     OW88461   7.141  13.955   8.458
28855SOL    HW188462   7.176  14.027   8.405
28855SOL    HW288463   7.136  13.992   8.546
28856SOL     OW88464   8.287   1.467   8.266
28856SOL    HW188465   8.355   1.419   8.313
28856SOL    HW288466   8.313   1.462   8.174
28857SOL     OW88467   9.620   8.171  10.683
28857SOL    HW188468   9.583   8.207  10.764
28857SOL    HW288469   9.715   8.180  10.694
28858SOL     OW88470  11.560   9.368  13.972
28858SOL    HW188471  11.533   9.385  13.882
28858SOL    HW288472  11.506   9.294  14.000
28859SOL     OW88473   0.221   8.473  13.204
28859SOL    HW188474   0.211   8.387  13.163
28859SOL    HW288475   0.255   8.529  13.134
28860SOL     OW88476  13.786  14.476   9.232
28860SOL    HW188477  13.832  14.400   9.197
28860SOL    HW288478  13.705  14.481   9.181
28861SOL     OW88479   4.817  10.540   3.709
28861SOL    HW188480   4.802  10.468   3.648
28861SOL    HW288481   4.751  10.605   3.686
28862SOL     OW88482  12.590   2.382   7.658
28862SOL    HW188483  12.644   2.303   7.659
28862SOL    HW288484  12.602   2.420   7.744
28863SOL     OW88485   1.470   0.587   5.906
28863SOL    HW188486   1.534   0.608   5.973
28863SOL    HW288487   1.427   0.671   5.886
28864SOL     OW88488  13.856   9.857   9.663
28864SOL    HW188489  13.950   9.859   9.642
28864SOL    HW288490  13.827   9.770   9.634
28865SOL     OW88491   9.479   4.735   9.354
28865SOL    HW188492   9.419   4.680   9.404
28865SOL    HW288493   9.517   4.676   9.290
28866SOL     OW88494   1.429   1.085   6.941
28866SOL    HW188495   1.490   1.111   7.010
28866SOL    HW288496   1.409   1.167   6.895
28867SOL     OW88497   4.795   4.799  11.029
28867SOL    HW188498   4.861   4.749  10.982
28867SOL    HW288499   4.822   4.796  11.120
28868SOL     OW88500  13.504  12.045   9.205
28868SOL    HW188501  13.419  12.019   9.239
28868SOL    HW288502  13.487  12.073   9.115
28869SOL     OW88503  14.185   3.810  12.977
28869SOL    HW188504  14.101   3.797  12.934
28869SOL    HW288505  14.165   3.808  13.071
28870SOL     OW88506   9.289   9.484   5.424
28870SOL    HW188507   9.289   9.551   5.493
28870SOL    HW288508   9.381   9.466   5.408
28871SOL     OW88509  12.877   6.582   6.799
28871SOL    HW188510  12.971   6.568   6.797
28871SOL    HW288511  12.841   6.511   6.746
28872SOL     OW88512  12.850   2.251  10.179
28872SOL    HW188513  12.818   2.200  10.105
28872SOL    HW288514  12.934   2.212  10.202
28873SOL     OW88515  10.301   7.268   2.578
28873SOL    HW188516  10.249   7.345   2.603
28873SOL    HW288517  10.248   7.193   2.605
28874SOL     OW88518  13.330   1.259  12.564
28874SOL    HW188519  13.281   1.268  12.483
28874SOL    HW288520  13.289   1.186  12.610
28875SOL     OW88521   8.909   4.573  13.656
28875SOL    HW188522   8.954   4.571  13.571
28875SOL    HW288523   8.820   4.599  13.636
28876SOL     OW88524   9.853   9.284   0.838
28876SOL    HW188525   9.929   9.342   0.829
28876SOL    HW288526   9.873   9.210   0.781
28877SOL     OW88527   5.697   1.227   6.101
28877SOL    HW188528   5.781   1.230   6.054
28877SOL    HW288529   5.656   1.146   6.071
28878SOL     OW88530   4.529   6.190  10.454
28878SOL    HW188531   4.565   6.135  10.523
28878SOL    HW288532   4.555   6.147  10.373
28879SOL     OW88533   0.604   9.085   4.348
28879SOL    HW188534   0.608   8.989   4.353
28879SOL    HW288535   0.677   9.110   4.292
28880SOL     OW88536  12.596   7.988   2.351
28880SOL    HW188537  12.680   8.026   2.377
28880SOL    HW288538  12.587   8.010   2.259
28881SOL     OW88539  11.493   7.465   3.214
28881SOL    HW188540  11.475   7.508   3.298
28881SOL    HW288541  11.406   7.450   3.176
28882SOL     OW88542   7.499  14.808  11.721
28882SOL    HW188543   7.483  14.807  11.815
28882SOL    HW288544   7.565  14.876  11.708
28883SOL     OW88545   2.934   2.739  10.816
28883SOL    HW188546   2.854   2.700  10.849
28883SOL    HW288547   2.997   2.730  10.888
28884SOL     OW88548   2.015   1.185  11.156
28884SOL    HW188549   2.080   1.151  11.217
28884SOL    HW288550   2.008   1.278  11.178
28885SOL     OW88551   1.353  14.811   5.697
28885SOL    HW188552   1.386  14.755   5.767
28885SOL    HW288553   1.431  14.844   5.653
28886SOL     OW88554   8.175   8.699   5.847
28886SOL    HW188555   8.258   8.744   5.855
28886SOL    HW288556   8.135   8.704   5.934
28887SOL     OW88557   9.709  10.410   1.753
28887SOL    HW188558   9.787  10.464   1.744
28887SOL    HW288559   9.724  10.335   1.695
28888SOL     OW88560   1.294  14.537  13.783
28888SOL    HW188561   1.266  14.605  13.844
28888SOL    HW288562   1.280  14.455  13.831
28889SOL     OW88563   4.512  12.616  14.545
28889SOL    HW188564   4.457  12.640  14.619
28889SOL    HW288565   4.553  12.698  14.517
28890SOL     OW88566   1.412   6.509   8.071
28890SOL    HW188567   1.437   6.419   8.050
28890SOL    HW288568   1.494   6.554   8.089
28891SOL     OW88569   3.550   8.360   1.687
28891SOL    HW188570   3.567   8.380   1.595
28891SOL    HW288571   3.567   8.441   1.733
28892SOL     OW88572   1.365  13.912  13.625
28892SOL    HW188573   1.290  13.883  13.572
28892SOL    HW288574   1.440  13.867  13.587
28893SOL     OW88575   3.933   9.043  10.983
28893SOL    HW188576   4.003   9.033  10.919
28893SOL    HW288577   3.977   9.035  11.068
28894SOL     OW88578   9.220   4.226   8.695
28894SOL    HW188579   9.252   4.264   8.777
28894SOL    HW288580   9.132   4.195   8.715
28895SOL     OW88581  12.448   5.787   7.226
28895SOL    HW188582  12.427   5.728   7.154
28895SOL    HW288583  12.495   5.733   7.290
28896SOL     OW88584   1.153   9.186  10.745
28896SOL    HW188585   1.149   9.282  10.744
28896SOL    HW288586   1.212   9.166  10.817
28897SOL     OW88587  12.238  10.824   2.856
28897SOL    HW188588  12.328  10.850   2.834
28897SOL    HW288589  12.227  10.739   2.813
28898SOL     OW88590   0.634  11.001   2.049
28898SOL    HW188591   0.643  10.938   2.121
28898SOL    HW288592   0.635  11.086   2.091
28899SOL     OW88593  12.862   9.814  12.116
28899SOL    HW188594  12.777   9.807  12.074
28899SOL    HW288595  12.924   9.822  12.044
28900SOL     OW88596  11.753  12.898   5.446
28900SOL    HW188597  11.734  12.972   5.503
28900SOL    HW288598  11.754  12.935   5.358
28901SOL     OW88599   6.656  11.439   1.180
28901SOL    HW188600   6.562  11.458   1.179
28901SOL    HW288601   6.697  11.522   1.206
28902SOL     OW88602  13.085   1.969  11.944
28902SOL    HW188603  13.179   1.955  11.949
28902SOL    HW288604  13.063   1.950  11.852
28903SOL     OW88605  10.982   5.522  10.613
28903SOL    HW188606  11.077   5.533  10.615
28903SOL    HW288607  10.952   5.555  10.698
28904SOL     OW88608   7.571   2.257  11.291
28904SOL    HW188609   7.646   2.317  11.294
28904SOL    HW288610   7.594   2.192  11.225
28905SOL     OW88611  13.913   3.873  12.887
28905SOL    HW188612  13.909   3.961  12.849
28905SOL    HW288613  13.864   3.879  12.969
28906SOL     OW88614   1.944   8.048   8.249
28906SOL    HW188615   1.959   7.997   8.329
28906SOL    HW288616   1.993   8.129   8.263
28907SOL     OW88617  12.317  12.520  14.058
28907SOL    HW188618  12.377  12.451  14.030
28907SOL    HW288619  12.356  12.554  14.139
28908SOL     OW88620   2.141  14.743   5.971
28908SOL    HW188621   2.184  14.734   6.056
28908SOL    HW288622   2.212  14.731   5.907
28909SOL     OW88623   5.750   9.453   6.404
28909SOL    HW188624   5.737   9.358   6.406
28909SOL    HW288625   5.661   9.489   6.396
28910SOL     OW88626  14.521   3.102   6.590
28910SOL    HW188627  14.531   3.197   6.592
28910SOL    HW288628  14.607   3.068   6.611
28911SOL     OW88629   0.868  10.879  14.088
28911SOL    HW188630   0.875  10.826  14.009
28911SOL    HW288631   0.959  10.888  14.119
28912SOL     OW88632   5.592   9.201   1.484
28912SOL    HW188633   5.608   9.291   1.513
28912SOL    HW288634   5.525   9.168   1.544
28913SOL     OW88635  12.907  11.720   1.611
28913SOL    HW188636  12.854  11.671   1.674
28913SOL    HW288637  12.934  11.655   1.546
28914SOL     OW88638   1.659   5.696   3.109
28914SOL    HW188639   1.722   5.638   3.153
28914SOL    HW288640   1.692   5.784   3.124
28915SOL     OW88641   4.211  10.055  11.471
28915SOL    HW188642   4.306  10.063  11.472
28915SOL    HW288643   4.195   9.964  11.499
28916SOL     OW88644   3.694  10.158   1.944
28916SOL    HW188645   3.709  10.234   2.001
28916SOL    HW288646   3.747  10.089   1.983
28917SOL     OW88647  13.436  14.754  14.068
28917SOL    HW188648  13.521  14.792  14.049
28917SOL    HW288649  13.450  14.699  14.145
28918SOL     OW88650   7.406  14.552   6.937
28918SOL    HW188651   7.374  14.610   7.007
28918SOL    HW288652   7.329  14.537   6.882
28919SOL     OW88653   9.081   8.466  11.305
28919SOL    HW188654   9.139   8.541  11.320
28919SOL    HW288655   9.072   8.461  11.210
28920SOL     OW88656   0.291   7.830  12.578
28920SOL    HW188657   0.257   7.751  12.537
28920SOL    HW288658   0.377   7.843  12.538
28921SOL     OW88659  14.502  14.395   9.042
28921SOL    HW188660  14.477  14.361   9.128
28921SOL    HW288661  14.460  14.335   8.980
28922SOL     OW88662  11.176   0.017   4.181
28922SOL    HW188663  11.240  14.824   4.193
28922SOL    HW288664  11.214   0.092   4.227
28923SOL     OW88665  12.047   4.114   3.982
28923SOL    HW188666  11.965   4.069   4.004
28923SOL    HW288667  12.024   4.207   3.981
28924SOL     OW88668   8.914  11.215  14.148
28924SOL    HW188669   9.005  11.241  14.167
28924SOL    HW288670   8.901  11.136  14.200
28925SOL     OW88671   0.140   2.470  14.571
28925SOL    HW188672   0.179   2.465  14.484
28925SOL    HW288673   0.112   2.561  14.580
28926SOL     OW88674   3.490   4.510   6.820
28926SOL    HW188675   3.458   4.421   6.837
28926SOL    HW288676   3.414   4.557   6.787
28927SOL     OW88677   3.351   5.488  14.393
28927SOL    HW188678   3.260   5.515  14.381
28927SOL    HW288679   3.395   5.566  14.428
28928SOL     OW88680  12.189   7.977  14.765
28928SOL    HW188681  12.240   7.905  14.728
28928SOL    HW288682  12.152   8.022  14.690
28929SOL     OW88683   9.128   2.430   9.397
28929SOL    HW188684   9.125   2.469   9.309
28929SOL    HW288685   9.049   2.462   9.440
28930SOL     OW88686   9.391   3.782  14.783
28930SOL    HW188687   9.406   3.743  14.869
28930SOL    HW288688   9.435   3.867  14.787
28931SOL     OW88689   6.838   5.300   5.425
28931SOL    HW188690   6.882   5.355   5.490
28931SOL    HW288691   6.907   5.242   5.392
28932SOL     OW88692  14.124   3.184   4.491
28932SOL    HW188693  14.199   3.209   4.545
28932SOL    HW288694  14.074   3.265   4.481
28933SOL     OW88695   3.884   2.350  11.960
28933SOL    HW188696   3.821   2.398  11.906
28933SOL    HW288697   3.839   2.336  12.043
28934SOL     OW88698   2.895  12.438   0.129
28934SOL    HW188699   2.987  12.462   0.133
28934SOL    HW288700   2.883  12.378   0.203
28935SOL     OW88701   4.627  10.571   5.239
28935SOL    HW188702   4.605  10.602   5.327
28935SOL    HW288703   4.721  10.551   5.244
28936SOL     OW88704   7.087   3.461   6.807
28936SOL    HW188705   7.004   3.506   6.819
28936SOL    HW288706   7.148   3.508   6.863
28937SOL     OW88707   7.913  12.689   4.366
28937SOL    HW188708   7.849  12.741   4.316
28937SOL    HW288709   7.997  12.709   4.325
28938SOL     OW88710   9.567   1.794   4.752
28938SOL    HW188711   9.545   1.799   4.845
28938SOL    HW288712   9.660   1.817   4.748
28939SOL     OW88713  13.469   0.019  10.537
28939SOL    HW188714  13.456  14.844  10.459
28939SOL    HW288715  13.526   0.091  10.509
28940SOL     OW88716  10.873   8.686   3.485
28940SOL    HW188717  10.909   8.716   3.402
28940SOL    HW288718  10.947   8.648   3.532
28941SOL     OW88719   2.849   2.118  11.074
28941SOL    HW188720   2.792   2.092  11.145
28941SOL    HW288721   2.800   2.186  11.027
28942SOL     OW88722   3.033  12.834   2.724
28942SOL    HW188723   3.115  12.841   2.675
28942SOL    HW288724   3.012  12.924   2.749
28943SOL     OW88725  13.542   7.347   1.917
28943SOL    HW188726  13.610   7.405   1.950
28943SOL    HW288727  13.512   7.299   1.994
28944SOL     OW88728   0.130   2.795   5.988
28944SOL    HW188729   0.043   2.771   6.019
28944SOL    HW288730   0.159   2.720   5.936
28945SOL     OW88731   2.753   3.665   2.351
28945SOL    HW188732   2.694   3.734   2.324
28945SOL    HW288733   2.840   3.705   2.347
28946SOL     OW88734  12.353   4.975   4.504
28946SOL    HW188735  12.322   4.900   4.554
28946SOL    HW288736  12.394   4.937   4.426
28947SOL     OW88737  13.610   8.622  10.846
28947SOL    HW188738  13.692   8.609  10.894
28947SOL    HW288739  13.631   8.686  10.779
28948SOL     OW88740   6.876   4.641  14.528
28948SOL    HW188741   6.919   4.629  14.443
28948SOL    HW288742   6.820   4.718  14.516
28949SOL     OW88743   4.996   2.960  14.210
28949SOL    HW188744   4.977   3.054  14.199
28949SOL    HW288745   4.996   2.925  14.121
28950SOL     OW88746   9.715  13.654  13.698
28950SOL    HW188747   9.806  13.684  13.708
28950SOL    HW288748   9.670  13.689  13.774
28951SOL     OW88749   9.882   5.133   7.365
28951SOL    HW188750   9.929   5.216   7.364
28951SOL    HW288751   9.796   5.155   7.402
28952SOL     OW88752   6.748   4.737  10.462
28952SOL    HW188753   6.690   4.668  10.495
28952SOL    HW288754   6.736   4.809  10.524
28953SOL     OW88755   2.324   6.083   1.904
28953SOL    HW188756   2.340   5.991   1.924
28953SOL    HW288757   2.274   6.082   1.822
28954SOL     OW88758   2.164  11.589   1.152
28954SOL    HW188759   2.183  11.677   1.121
28954SOL    HW288760   2.123  11.545   1.078
28955SOL     OW88761   5.315   2.931  14.704
28955SOL    HW188762   5.351   2.865  14.762
28955SOL    HW288763   5.368   2.925  14.624
28956SOL     OW88764   6.999  13.752   5.811
28956SOL    HW188765   7.043  13.832   5.842
28956SOL    HW288766   7.052  13.681   5.847
28957SOL     OW88767  10.179   3.902   6.801
28957SOL    HW188768  10.126   3.967   6.756
28957SOL    HW288769  10.172   3.823   6.746
28958SOL     OW88770  11.183   6.910   4.072
28958SOL    HW188771  11.265   6.915   4.122
28958SOL    HW288772  11.173   6.998   4.036
28959SOL     OW88773  13.150   3.061   8.895
28959SOL    HW188774  13.200   3.029   8.970
28959SOL    HW288775  13.122   3.149   8.921
28960SOL     OW88776  11.249   4.687  10.930
28960SOL    HW188777  11.250   4.618  10.864
28960SOL    HW288778  11.257   4.640  11.013
28961SOL     OW88779   0.795  10.223   4.991
28961SOL    HW188780   0.732  10.293   5.005
28961SOL    HW288781   0.749  10.143   5.015
28962SOL     OW88782   0.652   7.274   0.775
28962SOL    HW188783   0.699   7.243   0.698
28962SOL    HW288784   0.704   7.246   0.849
28963SOL     OW88785   2.345   6.961  11.679
28963SOL    HW188786   2.330   6.898  11.609
28963SOL    HW288787   2.302   6.923  11.755
28964SOL     OW88788   3.843   0.553   0.093
28964SOL    HW188789   3.774   0.491   0.067
28964SOL    HW288790   3.800   0.613   0.154
28965SOL     OW88791  14.285  13.963   1.751
28965SOL    HW188792  14.216  13.898   1.734
28965SOL    HW288793  14.327  13.933   1.832
28966SOL     OW88794   1.805   8.849   5.759
28966SOL    HW188795   1.741   8.839   5.688
28966SOL    HW288796   1.802   8.766   5.806
28967SOL     OW88797  12.992   0.741  14.490
28967SOL    HW188798  13.058   0.675  14.467
28967SOL    HW288799  13.043   0.814  14.525
28968SOL     OW88800  14.804   7.909  13.687
28968SOL    HW188801  14.792   7.909  13.592
28968SOL    HW288802  14.767   7.993  13.716
28969SOL     OW88803   8.932   5.825   5.333
28969SOL    HW188804   8.884   5.799   5.254
28969SOL    HW288805   8.863   5.844   5.397
28970SOL     OW88806   5.434   3.047   7.915
28970SOL    HW188807   5.497   3.069   7.984
28970SOL    HW288808   5.382   2.975   7.951
28971SOL     OW88809   6.004   0.109  12.240
28971SOL    HW188810   5.992   0.015  12.249
28971SOL    HW288811   5.972   0.146  12.322
28972SOL     OW88812   4.438   3.066   2.074
28972SOL    HW188813   4.526   3.065   2.037
28972SOL    HW288814   4.380   3.064   1.998
28973SOL     OW88815   5.572   1.564   5.389
28973SOL    HW188816   5.639   1.628   5.415
28973SOL    HW288817   5.490   1.601   5.422
28974SOL     OW88818   6.806  10.435   1.633
28974SOL    HW188819   6.749  10.409   1.705
28974SOL    HW288820   6.827  10.352   1.589
28975SOL     OW88821  13.506   5.179   3.871
28975SOL    HW188822  13.569   5.107   3.874
28975SOL    HW288823  13.532   5.231   3.795
28976SOL     OW88824  12.513  14.343   6.592
28976SOL    HW188825  12.585  14.395   6.626
28976SOL    HW288826  12.501  14.373   6.502
28977SOL     OW88827   5.430   2.858   6.327
28977SOL    HW188828   5.345   2.847   6.284
28977SOL    HW288829   5.494   2.839   6.258
28978SOL     OW88830   4.644  11.281  14.730
28978SOL    HW188831   4.690  11.268  14.813
28978SOL    HW288832   4.565  11.227  14.739
28979SOL     OW88833  10.951  13.932  10.832
28979SOL    HW188834  10.868  13.932  10.784
28979SOL    HW288835  10.934  13.881  10.911
28980SOL     OW88836  13.980  13.934   9.207
28980SOL    HW188837  13.914  13.999   9.185
28980SOL    HW288838  14.011  13.959   9.294
28981SOL     OW88839   5.924   2.046   0.580
28981SOL    HW188840   5.909   2.129   0.625
28981SOL    HW288841   5.902   1.979   0.646
28982SOL     OW88842  10.089   2.818  12.004
28982SOL    HW188843  10.047   2.901  11.986
28982SOL    HW288844  10.021   2.764  12.045
28983SOL     OW88845   2.110  14.440  13.360
28983SOL    HW188846   2.040  14.502  13.338
28983SOL    HW288847   2.175  14.452  13.292
28984SOL     OW88848   0.970   5.783  11.383
28984SOL    HW188849   1.058   5.817  11.365
28984SOL    HW288850   0.980   5.688  11.378
28985SOL     OW88851   6.138   1.262  12.886
28985SOL    HW188852   6.227   1.231  12.897
28985SOL    HW288853   6.141   1.317  12.808
28986SOL     OW88854  11.934   8.428  11.253
28986SOL    HW188855  11.872   8.500  11.267
28986SOL    HW288856  11.993   8.432  11.328
28987SOL     OW88857  11.892  13.117  10.783
28987SOL    HW188858  11.830  13.085  10.717
28987SOL    HW288859  11.896  13.211  10.768
28988SOL     OW88860   4.627   6.343   7.600
28988SOL    HW188861   4.692   6.357   7.531
28988SOL    HW288862   4.592   6.431   7.618
28989SOL     OW88863   7.571  14.389   9.283
28989SOL    HW188864   7.621  14.471   9.278
28989SOL    HW288865   7.569  14.369   9.377
28990SOL     OW88866  13.726  10.796   2.366
28990SOL    HW188867  13.659  10.854   2.401
28990SOL    HW288868  13.719  10.805   2.271
28991SOL     OW88869   9.465  11.406   5.202
28991SOL    HW188870   9.371  11.393   5.191
28991SOL    HW288871   9.479  11.408   5.296
28992SOL     OW88872  13.803   5.022  12.676
28992SOL    HW188873  13.777   5.070  12.598
28992SOL    HW288874  13.724   4.977  12.705
28993SOL     OW88875   1.152   1.111  14.841
28993SOL    HW188876   1.134   1.017  14.836
28993SOL    HW288877   1.163   1.128   0.057
28994SOL     OW88878   8.418   4.472   8.655
28994SOL    HW188879   8.406   4.562   8.683
28994SOL    HW288880   8.382   4.419   8.726
28995SOL     OW88881  11.333   4.282   2.989
28995SOL    HW188882  11.340   4.247   3.077
28995SOL    HW288883  11.410   4.339   2.980
28996SOL     OW88884   4.007  10.874   4.847
28996SOL    HW188885   4.090  10.871   4.799
28996SOL    HW288886   4.001  10.789   4.890
28997SOL     OW88887  14.221  13.711   4.174
28997SOL    HW188888  14.161  13.641   4.197
28997SOL    HW288889  14.187  13.745   4.090
28998SOL     OW88890  12.950   0.824   3.629
28998SOL    HW188891  12.877   0.882   3.609
28998SOL    HW288892  13.027   0.872   3.599
28999SOL     OW88893  11.880   7.013   4.524
28999SOL    HW188894  11.912   6.923   4.521
28999SOL    HW288895  11.859   7.034   4.433
29000SOL     OW88896  12.036  12.333   2.705
29000SOL    HW188897  11.984  12.360   2.630
29000SOL    HW288898  11.996  12.251   2.734
29001SOL     OW88899   2.068   1.688   6.259
29001SOL    HW188900   2.002   1.621   6.239
29001SOL    HW288901   2.020   1.770   6.257
29002SOL     OW88902   9.595   9.255   0.703
29002SOL    HW188903   9.651   9.304   0.642
29002SOL    HW288904   9.645   9.253   0.785
29003SOL     OW88905   5.226  10.335   8.440
29003SOL    HW188906   5.161  10.326   8.510
29003SOL    HW288907   5.307  10.359   8.486
29004SOL     OW88908   2.830  12.830  11.830
29004SOL    HW188909   2.863  12.919  11.844
29004SOL    HW288910   2.759  12.821  11.893
29005SOL     OW88911   3.226  10.667   4.066
29005SOL    HW188912   3.256  10.588   4.111
29005SOL    HW288913   3.137  10.681   4.098
29006SOL     OW88914  13.709   3.388   4.489
29006SOL    HW188915  13.730   3.438   4.410
29006SOL    HW288916  13.634   3.334   4.464
29007SOL     OW88917  12.616  14.041   4.888
29007SOL    HW188918  12.701  13.999   4.883
29007SOL    HW288919  12.589  14.051   4.796
29008SOL     OW88920  10.825   0.331   7.072
29008SOL    HW188921  10.905   0.363   7.115
29008SOL    HW288922  10.760   0.398   7.092
29009SOL     OW88923  13.525   9.543   3.906
29009SOL    HW188924  13.497   9.544   3.997
29009SOL    HW288925  13.528   9.450   3.883
29010SOL     OW88926   1.010  14.865   2.568
29010SOL    HW188927   0.952   0.039   2.511
29010SOL    HW288928   0.980  14.775   2.557
29011SOL     OW88929   3.902  12.477  13.924
29011SOL    HW188930   3.876  12.385  13.927
29011SOL    HW288931   3.991  12.476  13.890
29012SOL     OW88932  11.073   5.234  10.448
29012SOL    HW188933  11.093   5.328  10.452
29012SOL    HW288934  11.158   5.191  10.457
29013SOL     OW88935  11.533  14.117   9.202
29013SOL    HW188936  11.485  14.200   9.202
29013SOL    HW288937  11.482  14.060   9.145
29014SOL     OW88938   7.336  11.396   3.738
29014SOL    HW188939   7.333  11.323   3.800
29014SOL    HW288940   7.371  11.470   3.788
29015SOL     OW88941  13.094  10.768   9.380
29015SOL    HW188942  13.068  10.782   9.471
29015SOL    HW288943  13.073  10.676   9.363
29016SOL     OW88944   4.489   1.008  12.099
29016SOL    HW188945   4.576   0.989  12.132
29016SOL    HW288946   4.474   1.100  12.120
29017SOL     OW88947   8.317   6.709   0.248
29017SOL    HW188948   8.279   6.633   0.293
29017SOL    HW288949   8.260   6.722   0.172
29018SOL     OW88950   5.436  14.256   2.706
29018SOL    HW188951   5.427  14.348   2.731
29018SOL    HW288952   5.476  14.260   2.618
29019SOL     OW88953   3.485   4.047   1.883
29019SOL    HW188954   3.478   4.100   1.804
29019SOL    HW288955   3.571   4.067   1.919
29020SOL     OW88956  12.736   3.347   9.074
29020SOL    HW188957  12.728   3.310   8.986
29020SOL    HW288958  12.758   3.272   9.129
29021SOL     OW88959   2.692   2.478   5.625
29021SOL    HW188960   2.672   2.569   5.602
29021SOL    HW288961   2.787   2.474   5.629
29022SOL     OW88962   5.031   0.582   3.591
29022SOL    HW188963   4.997   0.647   3.529
29022SOL    HW288964   5.110   0.549   3.549
29023SOL     OW88965  10.488   9.726   9.743
29023SOL    HW188966  10.458   9.728   9.652
29023SOL    HW288967  10.427   9.667   9.787
29024SOL     OW88968  14.188   4.390  11.181
29024SOL    HW188969  14.233   4.348  11.107
29024SOL    HW288970  14.124   4.448  11.140
29025SOL     OW88971   2.986  11.819   9.118
29025SOL    HW188972   2.999  11.762   9.042
29025SOL    HW288973   3.064  11.876   9.118
29026SOL     OW88974   7.537   6.864  12.078
29026SOL    HW188975   7.535   6.783  12.026
29026SOL    HW288976   7.482   6.844  12.154
29027SOL     OW88977   1.401   5.719  10.564
29027SOL    HW188978   1.383   5.785  10.632
29027SOL    HW288979   1.483   5.746  10.525
29028SOL     OW88980   2.647   0.881   3.348
29028SOL    HW188981   2.611   0.957   3.394
29028SOL    HW288982   2.600   0.880   3.265
29029SOL     OW88983  12.918  12.958   9.875
29029SOL    HW188984  12.840  13.006   9.906
29029SOL    HW288985  12.956  12.920   9.954
29030SOL     OW88986   6.312   2.596  10.111
29030SOL    HW188987   6.374   2.574  10.181
29030SOL    HW288988   6.358   2.572  10.031
29031SOL     OW88989  14.838  13.074  12.689
29031SOL    HW188990  14.791  13.043  12.611
29031SOL    HW288991  14.868  13.161  12.665
29032SOL     OW88992  12.972  10.951   0.164
29032SOL    HW188993  12.959  10.908   0.249
29032SOL    HW288994  13.066  10.965   0.158
29033SOL     OW88995   8.627  14.507  10.690
29033SOL    HW188996   8.642  14.425  10.644
29033SOL    HW288997   8.542  14.495  10.734
29034SOL     OW88998   0.854   2.805  10.991
29034SOL    HW188999   0.797   2.880  11.009
29034SOL    HW289000   0.837   2.744  11.062
29035SOL     OW89001   6.548  11.495  12.434
29035SOL    HW189002   6.473  11.440  12.415
29035SOL    HW289003   6.516  11.585  12.426
29036SOL     OW89004   9.739  14.225   7.872
29036SOL    HW189005   9.770  14.254   7.786
29036SOL    HW289006   9.686  14.298   7.904
29037SOL     OW89007  11.387   0.840   9.859
29037SOL    HW189008  11.481   0.837   9.846
29037SOL    HW289009  11.371   0.781   9.933
29038SOL     OW89010  11.844  12.169   7.794
29038SOL    HW189011  11.873  12.178   7.885
29038SOL    HW289012  11.767  12.224   7.788
29039SOL     OW89013   9.276   7.903  14.185
29039SOL    HW189014   9.183   7.881  14.183
29039SOL    HW289015   9.320   7.826  14.148
29040SOL     OW89016  11.341   6.831   0.530
29040SOL    HW189017  11.305   6.781   0.604
29040SOL    HW289018  11.396   6.768   0.484
29041SOL     OW89019   2.966   8.102   6.618
29041SOL    HW189020   2.907   8.135   6.550
29041SOL    HW289021   2.949   8.008   6.620
29042SOL     OW89022   4.760   0.724   2.625
29042SOL    HW189023   4.757   0.754   2.716
29042SOL    HW289024   4.671   0.693   2.607
29043SOL     OW89025  14.521   0.808   9.362
29043SOL    HW189026  14.515   0.721   9.401
29043SOL    HW289027  14.453   0.859   9.405
29044SOL     OW89028  13.568  14.032   6.340
29044SOL    HW189029  13.540  13.946   6.309
29044SOL    HW289030  13.492  14.088   6.326
29045SOL     OW89031   4.343   1.635   1.065
29045SOL    HW189032   4.258   1.600   1.091
29045SOL    HW289033   4.346   1.623   0.970
29046SOL     OW89034   1.115   6.877  14.528
29046SOL    HW189035   1.098   6.805  14.589
29046SOL    HW289036   1.189   6.924  14.567
29047SOL     OW89037   9.928   9.455  13.861
29047SOL    HW189038   9.982   9.480  13.787
29047SOL    HW289039   9.845   9.501  13.847
29048SOL     OW89040  14.107   0.058   0.380
29048SOL    HW189041  14.197   0.046   0.349
29048SOL    HW289042  14.053   0.022   0.310
29049SOL     OW89043  12.225   2.185  10.247
29049SOL    HW189044  12.149   2.130  10.232
29049SOL    HW289045  12.300   2.128  10.231
29050SOL     OW89046   8.845   8.092   1.667
29050SOL    HW189047   8.900   8.047   1.731
29050SOL    HW289048   8.759   8.053   1.678
29051SOL     OW89049  12.251  11.993  10.718
29051SOL    HW189050  12.225  11.905  10.746
29051SOL    HW289051  12.320  11.978  10.653
29052SOL     OW89052  10.521   2.113   9.658
29052SOL    HW189053  10.557   2.201   9.667
29052SOL    HW289054  10.464   2.102   9.734
29053SOL     OW89055  14.057  12.581   7.609
29053SOL    HW189056  14.053  12.638   7.685
29053SOL    HW289057  13.966  12.554   7.594
29054SOL     OW89058   9.589  13.471  10.647
29054SOL    HW189059   9.647  13.466  10.724
29054SOL    HW289060   9.608  13.557  10.609
29055SOL     OW89061   8.642   2.835   5.509
29055SOL    HW189062   8.726   2.827   5.555
29055SOL    HW289063   8.586   2.885   5.569
29056SOL     OW89064   3.172  12.509   6.173
29056SOL    HW189065   3.167  12.460   6.092
29056SOL    HW289066   3.111  12.464   6.232
29057SOL     OW89067  14.229   3.433   7.932
29057SOL    HW189068  14.173   3.361   7.903
29057SOL    HW289069  14.316   3.411   7.898
29058SOL     OW89070   2.885   5.154   2.354
29058SOL    HW189071   2.960   5.099   2.333
29058SOL    HW289072   2.864   5.134   2.445
29059SOL     OW89073   8.884   7.710  13.964
29059SOL    HW189074   8.901   7.745  13.876
29059SOL    HW289075   8.808   7.652  13.953
29060SOL     OW89076   5.396   0.347  11.596
29060SOL    HW189077   5.448   0.388  11.527
29060SOL    HW289078   5.376   0.260  11.563
29061SOL     OW89079  13.808  12.341   2.911
29061SOL    HW189080  13.853  12.312   2.990
29061SOL    HW289081  13.740  12.401   2.943
29062SOL     OW89082   8.895   6.995   3.775
29062SOL    HW189083   8.908   6.902   3.790
29062SOL    HW289084   8.979   7.026   3.742
29063SOL     OW89085   0.818  14.705   3.245
29063SOL    HW189086   0.888  14.768   3.230
29063SOL    HW289087   0.747  14.734   3.188
29064SOL     OW89088   2.120  11.386   3.571
29064SOL    HW189089   2.157  11.300   3.548
29064SOL    HW289090   2.143  11.397   3.663
29065SOL     OW89091   8.784   9.265  12.445
29065SOL    HW189092   8.693   9.293  12.431
29065SOL    HW289093   8.777   9.172  12.468
29066SOL     OW89094   5.920   8.572   4.907
29066SOL    HW189095   5.828   8.585   4.932
29066SOL    HW289096   5.955   8.515   4.975
29067SOL     OW89097  13.089  11.192   2.496
29067SOL    HW189098  13.056  11.187   2.406
29067SOL    HW289099  13.044  11.121   2.542
29068SOL     OW89100  10.977  11.259   6.036
29068SOL    HW189101  10.943  11.200   5.969
29068SOL    HW289102  11.028  11.202   6.094
29069SOL     OW89103   0.109  12.462  13.685
29069SOL    HW189104   0.175  12.464  13.755
29069SOL    HW289105   0.107  12.552  13.652
29070SOL     OW89106   7.011  12.361   0.640
29070SOL    HW189107   7.081  12.409   0.685
29070SOL    HW289108   6.965  12.427   0.589
29071SOL     OW89109   8.514   4.555   9.296
29071SOL    HW189110   8.551   4.580   9.380
29071SOL    HW289111   8.521   4.634   9.243
29072SOL     OW89112   6.185   0.389  14.199
29072SOL    HW189113   6.161   0.443  14.275
29072SOL    HW289114   6.234   0.449  14.143
29073SOL     OW89115   1.922  12.368  14.044
29073SOL    HW189116   1.872  12.375  14.126
29073SOL    HW289117   2.004  12.414  14.063
29074SOL     OW89118   3.291   6.234   7.457
29074SOL    HW189119   3.341   6.214   7.378
29074SOL    HW289120   3.241   6.155   7.475
29075SOL     OW89121  12.699   3.808   8.729
29075SOL    HW189122  12.660   3.821   8.643
29075SOL    HW289123  12.716   3.714   8.735
29076SOL     OW89124   4.019  11.286   4.924
29076SOL    HW189125   4.072  11.287   5.004
29076SOL    HW289126   4.078  11.317   4.856
29077SOL     OW89127  12.294  12.582   5.631
29077SOL    HW189128  12.304  12.502   5.682
29077SOL    HW289129  12.257  12.554   5.548
29078SOL     OW89130   5.667   1.629  14.016
29078SOL    HW189131   5.748   1.675  13.992
29078SOL    HW289132   5.632   1.597  13.933
29079SOL     OW89133   0.098   3.584   0.179
29079SOL    HW189134   0.077   3.675   0.198
29079SOL    HW289135   0.016   3.536   0.197
29080SOL     OW89136   8.408   4.188   6.090
29080SOL    HW189137   8.364   4.232   6.018
29080SOL    HW289138   8.342   4.183   6.159
29081SOL     OW89139   3.459   2.024   1.178
29081SOL    HW189140   3.378   1.976   1.162
29081SOL    HW289141   3.495   1.984   1.257
29082SOL     OW89142   9.930   4.794   8.221
29082SOL    HW189143   9.909   4.865   8.160
29082SOL    HW289144  10.016   4.819   8.257
29083SOL     OW89145   3.145   3.129  14.504
29083SOL    HW189146   3.188   3.045  14.519
29083SOL    HW289147   3.104   3.150  14.588
29084SOL     OW89148   8.262   2.706  10.277
29084SOL    HW189149   8.238   2.798  10.262
29084SOL    HW289150   8.222   2.659  10.204
29085SOL     OW89151  13.346  12.725  11.722
29085SOL    HW189152  13.256  12.697  11.707
29085SOL    HW289153  13.377  12.756  11.637
29086SOL     OW89154   5.691  10.409   0.977
29086SOL    HW189155   5.761  10.352   0.947
29086SOL    HW289156   5.735  10.480   1.024
29087SOL     OW89157   8.354   3.329   6.984
29087SOL    HW189158   8.444   3.298   6.995
29087SOL    HW289159   8.308   3.297   7.062
29088SOL     OW89160   7.176   5.116   6.970
29088SOL    HW189161   7.198   5.101   6.879
29088SOL    HW289162   7.082   5.133   6.970
29089SOL     OW89163   9.937   2.722   5.155
29089SOL    HW189164   9.968   2.802   5.112
29089SOL    HW289165  10.007   2.699   5.215
29090SOL     OW89166  10.760   1.642   9.676
29090SOL    HW189167  10.789   1.711   9.736
29090SOL    HW289168  10.707   1.687   9.610
29091SOL     OW89169   8.192   8.756   6.128
29091SOL    HW189170   8.230   8.670   6.109
29091SOL    HW289171   8.102   8.736   6.154
29092SOL     OW89172   9.387   2.116   2.034
29092SOL    HW189173   9.433   2.109   2.118
29092SOL    HW289174   9.318   2.181   2.049
29093SOL     OW89175   6.902   3.816   2.330
29093SOL    HW189176   6.809   3.804   2.312
29093SOL    HW289177   6.922   3.903   2.296
29094SOL     OW89178  13.156  10.105  13.846
29094SOL    HW189179  13.152  10.112  13.751
29094SOL    HW289180  13.245  10.074  13.864
29095SOL     OW89181   4.260   8.344   6.649
29095SOL    HW189182   4.306   8.261   6.649
29095SOL    HW289183   4.179   8.327   6.601
29096SOL     OW89184   4.641  11.498  10.564
29096SOL    HW189185   4.710  11.485  10.629
29096SOL    HW289186   4.647  11.421  10.507
29097SOL     OW89187   7.314   5.441   0.301
29097SOL    HW189188   7.355   5.424   0.385
29097SOL    HW289189   7.370   5.397   0.237
29098SOL     OW89190   8.688  12.121   2.635
29098SOL    HW189191   8.640  12.185   2.582
29098SOL    HW289192   8.724  12.059   2.571
29099SOL     OW89193  10.807  12.264   3.494
29099SOL    HW189194  10.737  12.251   3.557
29099SOL    HW289195  10.772  12.228   3.412
29100SOL     OW89196   9.691   6.861   0.112
29100SOL    HW189197   9.735   6.939   0.077
29100SOL    HW289198   9.662   6.813   0.035
29101SOL     OW89199  11.911   2.510  11.076
29101SOL    HW189200  11.991   2.561  11.090
29101SOL    HW289201  11.921   2.434  11.133
29102SOL     OW89202  11.675   2.657   3.363
29102SOL    HW189203  11.662   2.738   3.413
29102SOL    HW289204  11.720   2.685   3.284
29103SOL     OW89205  10.725   8.830  11.190
29103SOL    HW189206  10.794   8.866  11.245
29103SOL    HW289207  10.771   8.790  11.116
29104SOL     OW89208   2.563   0.285   0.492
29104SOL    HW189209   2.624   0.276   0.565
29104SOL    HW289210   2.479   0.254   0.526
29105SOL     OW89211   3.795   9.596   8.457
29105SOL    HW189212   3.828   9.542   8.529
29105SOL    HW289213   3.825   9.685   8.477
29106SOL     OW89214   4.363   8.125   1.647
29106SOL    HW189215   4.411   8.179   1.584
29106SOL    HW289216   4.292   8.181   1.677
29107SOL     OW89217   2.098   4.635   1.387
29107SOL    HW189218   2.091   4.560   1.445
29107SOL    HW289219   2.159   4.607   1.318
29108SOL     OW89220   9.764   4.907   2.395
29108SOL    HW189221   9.792   4.981   2.449
29108SOL    HW289222   9.716   4.947   2.322
29109SOL     OW89223   5.092   7.038   8.124
29109SOL    HW189224   5.095   7.065   8.216
29109SOL    HW289225   5.000   7.017   8.108
29110SOL     OW89226  14.246  12.989   2.484
29110SOL    HW189227  14.194  12.946   2.416
29110SOL    HW289228  14.182  13.010   2.552
29111SOL     OW89229   6.104   7.780   0.051
29111SOL    HW189230   6.171   7.823  14.876
29111SOL    HW289231   6.029   7.771  14.869
29112SOL     OW89232   7.483   3.271   4.971
29112SOL    HW189233   7.543   3.197   4.963
29112SOL    HW289234   7.508   3.314   5.053
29113SOL     OW89235   6.744   3.012  14.281
29113SOL    HW189236   6.768   3.070  14.352
29113SOL    HW289237   6.688   3.065  14.224
29114SOL     OW89238   4.843   0.565   4.660
29114SOL    HW189239   4.827   0.638   4.720
29114SOL    HW289240   4.923   0.524   4.693
29115SOL     OW89241   1.240   1.350   8.443
29115SOL    HW189242   1.329   1.350   8.408
29115SOL    HW289243   1.231   1.263   8.483
29116SOL     OW89244  12.098   3.542  12.709
29116SOL    HW189245  12.143   3.563  12.791
29116SOL    HW289246  12.007   3.530  12.734
29117SOL     OW89247   9.097  14.211  14.533
29117SOL    HW189248   9.143  14.131  14.559
29117SOL    HW289249   9.009  14.202  14.570
29118SOL     OW89250  12.562   3.211  12.923
29118SOL    HW189251  12.635   3.155  12.899
29118SOL    HW289252  12.498   3.152  12.962
29119SOL     OW89253   5.508  13.209   8.919
29119SOL    HW189254   5.532  13.295   8.951
29119SOL    HW289255   5.573  13.188   8.852
29120SOL     OW89256  11.049   5.517   9.588
29120SOL    HW189257  10.988   5.453   9.625
29120SOL    HW289258  11.135   5.479   9.602
29121SOL     OW89259   2.180  13.262   3.230
29121SOL    HW189260   2.239  13.250   3.155
29121SOL    HW289261   2.200  13.189   3.288
29122SOL     OW89262   1.625   8.476   9.958
29122SOL    HW189263   1.613   8.420  10.035
29122SOL    HW289264   1.573   8.554   9.977
29123SOL     OW89265   2.431   7.612   8.517
29123SOL    HW189266   2.419   7.605   8.612
29123SOL    HW289267   2.447   7.523   8.488
29124SOL     OW89268  12.241   1.555   8.306
29124SOL    HW189269  12.147   1.554   8.286
29124SOL    HW289270  12.278   1.616   8.242
29125SOL     OW89271   8.119   7.290   7.921
29125SOL    HW189272   8.031   7.266   7.949
29125SOL    HW289273   8.108   7.371   7.871
29126SOL     OW89274  10.317   7.907   6.929
29126SOL    HW189275  10.333   7.943   7.017
29126SOL    HW289276  10.287   7.818   6.946
29127SOL     OW89277   2.205   1.032  12.970
29127SOL    HW189278   2.252   1.090  12.909
29127SOL    HW289279   2.126   1.007  12.922
29128SOL     OW89280   2.998  11.044   1.317
29128SOL    HW189281   2.988  11.115   1.254
29128SOL    HW289282   2.943  11.070   1.391
29129SOL     OW89283  10.680  12.763   8.598
29129SOL    HW189284  10.709  12.731   8.683
29129SOL    HW289285  10.651  12.684   8.551
29130SOL     OW89286   6.546   9.433  12.118
29130SOL    HW189287   6.573   9.346  12.090
29130SOL    HW289288   6.526   9.423  12.212
29131SOL     OW89289   6.388   0.232   2.688
29131SOL    HW189290   6.454   0.276   2.634
29131SOL    HW289291   6.435   0.205   2.766
29132SOL     OW89292   7.025  10.989  14.302
29132SOL    HW189293   6.961  10.928  14.264
29132SOL    HW289294   7.108  10.962  14.263
29133SOL     OW89295   1.086   8.854  14.610
29133SOL    HW189296   1.156   8.919  14.608
29133SOL    HW289297   1.123   8.780  14.658
29134SOL     OW89298   6.299  11.515  11.380
29134SOL    HW189299   6.287  11.503  11.285
29134SOL    HW289300   6.383  11.561  11.387
29135SOL     OW89301  12.843  11.392   6.101
29135SOL    HW189302  12.836  11.372   6.194
29135SOL    HW289303  12.829  11.308   6.058
29136SOL     OW89304   2.110   9.421   5.613
29136SOL    HW189305   2.159   9.490   5.568
29136SOL    HW289306   2.063   9.375   5.543
29137SOL     OW89307   8.941   8.642  13.416
29137SOL    HW189308   8.853   8.609  13.399
29137SOL    HW289309   8.995   8.563  13.420
29138SOL     OW89310  10.448   3.946   2.938
29138SOL    HW189311  10.488   3.899   3.011
29138SOL    HW289312  10.460   3.889   2.862
29139SOL     OW89313  14.212   6.035   7.643
29139SOL    HW189314  14.271   6.017   7.716
29139SOL    HW289315  14.231   5.965   7.580
29140SOL     OW89316   5.346   2.880   4.193
29140SOL    HW189317   5.265   2.830   4.180
29140SOL    HW289318   5.318   2.971   4.197
29141SOL     OW89319   5.125   3.487  10.216
29141SOL    HW189320   5.089   3.526  10.136
29141SOL    HW289321   5.063   3.512  10.284
29142SOL     OW89322  10.407  11.428   3.142
29142SOL    HW189323  10.479  11.484   3.114
29142SOL    HW289324  10.345  11.429   3.069
29143SOL     OW89325  10.006   8.471  10.498
29143SOL    HW189326  10.081   8.414  10.519
29143SOL    HW289327  10.012   8.542  10.561
29144SOL     OW89328  12.790  14.806   8.037
29144SOL    HW189329  12.778  14.857   7.957
29144SOL    HW289330  12.813  14.872   8.104
29145SOL     OW89331   1.325   4.950   3.592
29145SOL    HW189332   1.311   5.011   3.665
29145SOL    HW289333   1.237   4.936   3.556
29146SOL     OW89334  14.354  11.963  14.747
29146SOL    HW189335  14.351  11.986  14.839
29146SOL    HW289336  14.296  12.025  14.704
29147SOL     OW89337  12.271   1.280   1.272
29147SOL    HW189338  12.187   1.313   1.304
29147SOL    HW289339  12.331   1.290   1.346
29148SOL     OW89340   0.404  13.776  11.555
29148SOL    HW189341   0.388  13.827  11.634
29148SOL    HW289342   0.489  13.808  11.523
29149SOL     OW89343   5.791   3.758   8.045
29149SOL    HW189344   5.805   3.852   8.035
29149SOL    HW289345   5.739   3.732   7.969
29150SOL     OW89346  14.807   1.756   6.791
29150SOL    HW189347  14.740   1.688   6.802
29150SOL    HW289348  14.871   1.739   6.860
29151SOL     OW89349  11.889  11.196   5.781
29151SOL    HW189350  11.892  11.235   5.868
29151SOL    HW289351  11.973  11.150   5.773
29152SOL     OW89352   5.387   0.998  13.210
29152SOL    HW189353   5.381   0.964  13.121
29152SOL    HW289354   5.465   0.957  13.246
29153SOL     OW89355   0.665  12.610   8.697
29153SOL    HW189356   0.699  12.601   8.608
29153SOL    HW289357   0.734  12.573   8.752
29154SOL     OW89358  12.880   0.644   4.471
29154SOL    HW189359  12.818   0.704   4.430
29154SOL    HW289360  12.964   0.689   4.465
29155SOL     OW89361   4.530  11.357   7.163
29155SOL    HW189362   4.502  11.269   7.185
29155SOL    HW289363   4.563  11.393   7.245
29156SOL     OW89364   2.022   5.925   0.527
29156SOL    HW189365   1.930   5.942   0.550
29156SOL    HW289366   2.057   6.012   0.505
29157SOL     OW89367   5.931   8.315   4.219
29157SOL    HW189368   5.887   8.261   4.284
29157SOL    HW289369   5.889   8.292   4.136
29158SOL     OW89370   6.690   2.072  14.764
29158SOL    HW189371   6.680   2.167  14.764
29158SOL    HW289372   6.609   2.040  14.805
29159SOL     OW89373  11.665  12.988  11.657
29159SOL    HW189374  11.665  13.067  11.711
29159SOL    HW289375  11.573  12.973  11.635
29160SOL     OW89376  13.161   9.925   8.484
29160SOL    HW189377  13.198   9.898   8.569
29160SOL    HW289378  13.071   9.893   8.487
29161SOL     OW89379   9.145  13.895   0.108
29161SOL    HW189380   9.187  13.862   0.029
29161SOL    HW289381   9.075  13.952   0.077
29162SOL     OW89382  13.896  10.504   7.297
29162SOL    HW189383  13.809  10.468   7.279
29162SOL    HW289384  13.884  10.558   7.375
29163SOL     OW89385   9.834  10.968  12.764
29163SOL    HW189386   9.748  10.951  12.804
29163SOL    HW289387   9.817  10.969  12.670
29164SOL     OW89388   3.021  10.556  14.740
29164SOL    HW189389   3.078  10.500  14.688
29164SOL    HW289390   2.934  10.544  14.702
29165SOL     OW89391   5.677  14.611   3.901
29165SOL    HW189392   5.699  14.551   3.830
29165SOL    HW289393   5.706  14.567   3.981
29166SOL     OW89394   1.277   6.222  14.478
29166SOL    HW189395   1.263   6.165  14.553
29166SOL    HW289396   1.339   6.288  14.509
29167SOL     OW89397  13.057  11.080  10.264
29167SOL    HW189398  13.115  11.154  10.280
29167SOL    HW289399  13.094  11.036  10.187
29168SOL     OW89400  10.942  14.757   3.182
29168SOL    HW189401  10.993  14.687   3.222
29168SOL    HW289402  10.863  14.764   3.236
29169SOL     OW89403   9.118   3.723   2.692
29169SOL    HW189404   9.188   3.659   2.703
29169SOL    HW289405   9.050   3.677   2.642
29170SOL     OW89406   0.121  12.567   5.464
29170SOL    HW189407   0.034  12.540   5.492
29170SOL    HW289408   0.172  12.486   5.464
29171SOL     OW89409   6.930   8.808   7.568
29171SOL    HW189410   6.967   8.720   7.576
29171SOL    HW289411   7.002   8.862   7.535
29172SOL     OW89412  14.290   0.838   4.036
29172SOL    HW189413  14.216   0.897   4.050
29172SOL    HW289414  14.318   0.812   4.124
29173SOL     OW89415   1.253   8.093   6.841
29173SOL    HW189416   1.272   7.999   6.841
29173SOL    HW289417   1.158   8.098   6.843
29174SOL     OW89418   2.267  11.541   2.934
29174SOL    HW189419   2.299  11.498   2.855
29174SOL    HW289420   2.191  11.592   2.905
29175SOL     OW89421  12.502  10.962  10.134
29175SOL    HW189422  12.495  10.981  10.228
29175SOL    HW289423  12.564  11.026  10.101
29176SOL     OW89424  10.622   8.508  13.756
29176SOL    HW189425  10.677   8.496  13.678
29176SOL    HW289426  10.681   8.490  13.829
29177SOL     OW89427   9.760   0.167   8.505
29177SOL    HW189428   9.795   0.228   8.570
29177SOL    HW289429   9.677   0.205   8.478
29178SOL     OW89430   3.347   3.197   5.221
29178SOL    HW189431   3.369   3.104   5.213
29178SOL    HW289432   3.254   3.202   5.200
29179SOL     OW89433  10.343   5.331   1.105
29179SOL    HW189434  10.438   5.323   1.100
29179SOL    HW289435  10.315   5.256   1.157
29180SOL     OW89436   8.734   0.921   3.254
29180SOL    HW189437   8.818   0.877   3.266
29180SOL    HW289438   8.749   1.010   3.286
29181SOL     OW89439  11.858   6.799   6.365
29181SOL    HW189440  11.856   6.710   6.331
29181SOL    HW289441  11.922   6.798   6.435
29182SOL     OW89442  11.788   5.475   5.273
29182SOL    HW189443  11.754   5.450   5.358
29182SOL    HW289444  11.714   5.518   5.228
29183SOL     OW89445   0.436   5.128   9.946
29183SOL    HW189446   0.448   5.221   9.964
29183SOL    HW289447   0.385   5.095  10.020
29184SOL     OW89448  10.452   8.320   6.614
29184SOL    HW189449  10.537   8.300   6.576
29184SOL    HW289450  10.446   8.264   6.691
29185SOL     OW89451   0.197   3.800   9.918
29185SOL    HW189452   0.194   3.704   9.915
29185SOL    HW289453   0.157   3.828   9.836
29186SOL     OW89454   9.327  10.259  10.416
29186SOL    HW189455   9.366  10.329  10.469
29186SOL    HW289456   9.248  10.298  10.379
29187SOL     OW89457  13.034  10.200  11.934
29187SOL    HW189458  13.045  10.270  11.870
29187SOL    HW289459  13.037  10.245  12.019
29188SOL     OW89460   5.023  12.997   7.101
29188SOL    HW189461   5.103  13.041   7.072
29188SOL    HW289462   5.053  12.931   7.164
29189SOL     OW89463   5.485   8.285  11.179
29189SOL    HW189464   5.474   8.245  11.266
29189SOL    HW289465   5.579   8.290  11.166
29190SOL     OW89466   5.893  10.788  13.221
29190SOL    HW189467   5.807  10.816  13.254
29190SOL    HW289468   5.897  10.695  13.240
29191SOL     OW89469  13.941   0.755  11.561
29191SOL    HW189470  13.944   0.850  11.560
29191SOL    HW289471  13.951   0.729  11.470
29192SOL     OW89472   9.526  11.244  13.346
29192SOL    HW189473   9.498  11.328  13.383
29192SOL    HW289474   9.524  11.183  13.420
29193SOL     OW89475   6.353   6.029   9.140
29193SOL    HW189476   6.353   6.094   9.210
29193SOL    HW289477   6.395   6.073   9.066
29194SOL     OW89478   8.936  14.082  12.000
29194SOL    HW189479   8.988  14.116  11.927
29194SOL    HW289480   8.862  14.142  12.007
29195SOL     OW89481   3.304  14.231  13.673
29195SOL    HW189482   3.323  14.318  13.708
29195SOL    HW289483   3.251  14.248  13.594
29196SOL     OW89484  11.863  10.353   3.448
29196SOL    HW189485  11.872  10.258   3.458
29196SOL    HW289486  11.940  10.379   3.397
29197SOL     OW89487  13.294  10.392  12.899
29197SOL    HW189488  13.274  10.472  12.948
29197SOL    HW289489  13.209  10.356  12.876
29198SOL     OW89490   6.815   9.827  10.685
29198SOL    HW189491   6.784   9.754  10.632
29198SOL    HW289492   6.748   9.894  10.676
29199SOL     OW89493   2.482   6.352   8.052
29199SOL    HW189494   2.435   6.427   8.088
29199SOL    HW289495   2.481   6.287   8.122
29200SOL     OW89496   8.206  13.070  10.047
29200SOL    HW189497   8.139  13.108   9.990
29200SOL    HW289498   8.289  13.089  10.003
29201SOL     OW89499   5.547  12.642   6.376
29201SOL    HW189500   5.487  12.653   6.450
29201SOL    HW289501   5.634  12.648   6.415
29202SOL     OW89502   3.275   1.845   0.598
29202SOL    HW189503   3.186   1.815   0.618
29202SOL    HW289504   3.328   1.766   0.596
29203SOL     OW89505   0.164  14.377   8.276
29203SOL    HW189506   0.119  14.312   8.222
29203SOL    HW289507   0.128  14.461   8.249
29204SOL     OW89508   2.189  13.624   6.446
29204SOL    HW189509   2.141  13.670   6.377
29204SOL    HW289510   2.124  13.612   6.516
29205SOL     OW89511   6.472   6.844   0.943
29205SOL    HW189512   6.522   6.766   0.923
29205SOL    HW289513   6.387   6.829   0.901
29206SOL     OW89514  14.259  10.789   3.375
29206SOL    HW189515  14.294  10.786   3.286
29206SOL    HW289516  14.229  10.879   3.385
29207SOL     OW89517   3.442  12.804  11.380
29207SOL    HW189518   3.526  12.760  11.373
29207SOL    HW289519   3.394  12.778  11.301
29208SOL     OW89520   2.405   5.649   8.913
29208SOL    HW189521   2.370   5.737   8.901
29208SOL    HW289522   2.395   5.608   8.827
29209SOL     OW89523  11.811   8.046   9.618
29209SOL    HW189524  11.873   7.992   9.571
29209SOL    HW289525  11.738   8.058   9.557
29210SOL     OW89526  11.755   1.850  14.819
29210SOL    HW189527  11.665   1.840  14.850
29210SOL    HW289528  11.746   1.876  14.727
29211SOL     OW89529   8.042   2.294   2.607
29211SOL    HW189530   8.036   2.201   2.628
29211SOL    HW289531   8.048   2.338   2.692
29212SOL     OW89532   7.047  14.796   0.677
29212SOL    HW189533   7.018  14.775   0.588
29212SOL    HW289534   7.011  14.726   0.731
29213SOL     OW89535   9.190   2.785   8.918
29213SOL    HW189536   9.161   2.694   8.931
29213SOL    HW289537   9.114   2.830   8.883
29214SOL     OW89538   7.692  13.006   8.438
29214SOL    HW189539   7.624  13.029   8.374
29214SOL    HW289540   7.772  13.000   8.387
29215SOL     OW89541   9.430  11.370   0.677
29215SOL    HW189542   9.398  11.438   0.737
29215SOL    HW289543   9.371  11.375   0.602
29216SOL     OW89544  12.613   3.379   9.308
29216SOL    HW189545  12.532   3.428   9.293
29216SOL    HW289546  12.654   3.372   9.221
29217SOL     OW89547   8.815   6.093   2.607
29217SOL    HW189548   8.774   6.119   2.525
29217SOL    HW289549   8.814   5.997   2.605
29218SOL     OW89550  12.453   5.724   2.730
29218SOL    HW189551  12.448   5.816   2.707
29218SOL    HW289552  12.543   5.699   2.710
29219SOL     OW89553   7.492  11.768   1.671
29219SOL    HW189554   7.485  11.859   1.702
29219SOL    HW289555   7.515  11.776   1.579
29220SOL     OW89556   4.129   7.180  12.224
29220SOL    HW189557   4.061   7.134  12.175
29220SOL    HW289558   4.134   7.134  12.308
29221SOL     OW89559  10.268  12.329  14.215
29221SOL    HW189560  10.343  12.326  14.275
29221SOL    HW289561  10.242  12.237  14.205
29222SOL     OW89562   0.545   1.547   8.627
29222SOL    HW189563   0.603   1.528   8.554
29222SOL    HW289564   0.498   1.465   8.643
29223SOL     OW89565   5.131  11.040  10.378
29223SOL    HW189566   5.221  11.012  10.395
29223SOL    HW289567   5.130  11.132  10.404
29224SOL     OW89568  14.065  11.105   1.696
29224SOL    HW189569  14.060  11.094   1.791
29224SOL    HW289570  13.974  11.120   1.669
29225SOL     OW89571   5.616   6.057   4.201
29225SOL    HW189572   5.538   6.019   4.163
29225SOL    HW289573   5.641   5.996   4.271
29226SOL     OW89574   2.987  10.091   5.247
29226SOL    HW189575   2.991  10.167   5.306
29226SOL    HW289576   3.077  10.058   5.245
29227SOL     OW89577  11.029   8.855   2.217
29227SOL    HW189578  11.029   8.926   2.154
29227SOL    HW289579  10.940   8.820   2.214
29228SOL     OW89580  12.434  12.832   5.646
29228SOL    HW189581  12.371  12.901   5.627
29228SOL    HW289582  12.381  12.752   5.650
29229SOL     OW89583   8.606   1.848   1.208
29229SOL    HW189584   8.586   1.806   1.124
29229SOL    HW289585   8.541   1.918   1.215
29230SOL     OW89586   8.067   3.841  10.246
29230SOL    HW189587   7.978   3.839  10.213
29230SOL    HW289588   8.087   3.751  10.269
29231SOL     OW89589  12.634   7.797   3.579
29231SOL    HW189590  12.688   7.818   3.504
29231SOL    HW289591  12.560   7.747   3.543
29232SOL     OW89592   5.872   1.465   8.270
29232SOL    HW189593   5.873   1.406   8.346
29232SOL    HW289594   5.923   1.540   8.297
29233SOL     OW89595   9.472   5.089  14.744
29233SOL    HW189596   9.498   5.172  14.783
29233SOL    HW289597   9.524   5.023  14.789
29234SOL     OW89598   1.214  12.897  11.879
29234SOL    HW189599   1.128  12.862  11.856
29234SOL    HW289600   1.253  12.922  11.795
29235SOL     OW89601   4.560   6.563   5.318
29235SOL    HW189602   4.472   6.599   5.327
29235SOL    HW289603   4.572   6.510   5.397
29236SOL     OW89604   2.847   2.285  13.316
29236SOL    HW189605   2.920   2.223  13.308
29236SOL    HW289606   2.801   2.257  13.395
29237SOL     OW89607   1.654   3.512   7.645
29237SOL    HW189608   1.740   3.490   7.611
29237SOL    HW289609   1.658   3.489   7.738
29238SOL     OW89610   1.232   0.766   4.865
29238SOL    HW189611   1.146   0.726   4.853
29238SOL    HW289612   1.253   0.750   4.957
29239SOL     OW89613   3.014   7.323  12.029
29239SOL    HW189614   3.050   7.279  11.953
29239SOL    HW289615   2.951   7.386  11.993
29240SOL     OW89616  10.394  12.004  10.150
29240SOL    HW189617  10.327  11.980  10.214
29240SOL    HW289618  10.461  11.936  10.160
29241SOL     OW89619   6.480  13.979   9.002
29241SOL    HW189620   6.404  13.986   9.059
29241SOL    HW289621   6.510  13.888   9.013
29242SOL     OW89622   4.268   7.374   5.998
29242SOL    HW189623   4.222   7.312   6.055
29242SOL    HW289624   4.331   7.418   6.055
29243SOL     OW89625   8.880   3.675   8.425
29243SOL    HW189626   8.900   3.587   8.391
29243SOL    HW289627   8.943   3.732   8.381
29244SOL     OW89628   3.453   5.016   7.121
29244SOL    HW189629   3.472   5.077   7.051
29244SOL    HW289630   3.474   5.064   7.201
29245SOL     OW89631   5.984  11.688  14.558
29245SOL    HW189632   6.062  11.713  14.508
29245SOL    HW289633   5.930  11.640  14.496
29246SOL     OW89634   9.003   3.887  13.023
29246SOL    HW189635   9.056   3.917  12.949
29246SOL    HW289636   8.913   3.894  12.992
29247SOL     OW89637   1.514   4.303  12.985
29247SOL    HW189638   1.429   4.338  12.958
29247SOL    HW289639   1.530   4.343  13.071
29248SOL     OW89640   8.160  11.416  13.948
29248SOL    HW189641   8.112  11.440  13.868
29248SOL    HW289642   8.135  11.325  13.963
29249SOL     OW89643   0.252   2.884  10.832
29249SOL    HW189644   0.208   2.869  10.915
29249SOL    HW289645   0.345   2.866  10.850
29250SOL     OW89646   0.543   1.105   9.291
29250SOL    HW189647   0.599   1.050   9.346
29250SOL    HW289648   0.597   1.124   9.214
29251SOL     OW89649  13.303   2.351   2.069
29251SOL    HW189650  13.327   2.443   2.061
29251SOL    HW289651  13.240   2.336   1.998
29252SOL     OW89652   6.994   6.633   5.159
29252SOL    HW189653   7.016   6.573   5.230
29252SOL    HW289654   7.022   6.719   5.189
29253SOL     OW89655   4.536   6.546  12.788
29253SOL    HW189656   4.493   6.556  12.703
29253SOL    HW289657   4.532   6.633  12.828
29254SOL     OW89658   7.314  13.732   7.675
29254SOL    HW189659   7.287  13.819   7.704
29254SOL    HW289660   7.368  13.698   7.747
29255SOL     OW89661   6.501   3.042  14.737
29255SOL    HW189662   6.593   3.066  14.750
29255SOL    HW289663   6.455   3.126  14.735
29256SOL     OW89664   3.880  12.839   2.302
29256SOL    HW189665   3.933  12.829   2.380
29256SOL    HW289666   3.834  12.755   2.294
29257SOL     OW89667   1.390   1.439  13.306
29257SOL    HW189668   1.301   1.473  13.321
29257SOL    HW289669   1.434   1.508  13.257
29258SOL     OW89670   4.519   0.671   1.950
29258SOL    HW189671   4.585   0.737   1.928
29258SOL    HW289672   4.527   0.662   2.045
29259SOL     OW89673   3.212   4.356   2.469
29259SOL    HW189674   3.182   4.370   2.379
29259SOL    HW289675   3.131   4.350   2.520
29260SOL     OW89676  14.815   7.156  13.268
29260SOL    HW189677  14.722   7.147  13.247
29260SOL    HW289678  14.857   7.171  13.184
29261SOL     OW89679   3.420   8.829  12.929
29261SOL    HW189680   3.476   8.825  13.007
29261SOL    HW289681   3.469   8.882  12.867
29262SOL     OW89682  14.234   3.644   0.666
29262SOL    HW189683  14.159   3.660   0.724
29262SOL    HW289684  14.305   3.621   0.726
29263SOL     OW89685  10.862   6.549   7.535
29263SOL    HW189686  10.856   6.565   7.440
29263SOL    HW289687  10.833   6.631   7.574
29264SOL     OW89688   7.421  13.288   7.974
29264SOL    HW189689   7.331  13.280   7.941
29264SOL    HW289690   7.421  13.371   8.022
29265SOL     OW89691   7.615   3.401  13.101
29265SOL    HW189692   7.671   3.382  13.025
29265SOL    HW289693   7.638   3.333  13.165
29266SOL     OW89694   7.888   5.075   4.528
29266SOL    HW189695   7.871   5.120   4.445
29266SOL    HW289696   7.858   5.136   4.595
29267SOL     OW89697   9.696   1.262   1.161
29267SOL    HW189698   9.711   1.323   1.089
29267SOL    HW289699   9.688   1.317   1.238
29268SOL     OW89700  10.557   1.377   2.387
29268SOL    HW189701  10.474   1.422   2.369
29268SOL    HW289702  10.538   1.321   2.462
29269SOL     OW89703   7.926   4.572  14.393
29269SOL    HW189704   7.902   4.596  14.482
29269SOL    HW289705   8.022   4.581  14.391
29270SOL     OW89706   9.298  14.387   4.718
29270SOL    HW189707   9.241  14.317   4.686
29270SOL    HW289708   9.386  14.358   4.696
29271SOL     OW89709   4.893   3.995   6.888
29271SOL    HW189710   4.839   3.932   6.935
29271SOL    HW289711   4.945   4.037   6.956
29272SOL     OW89712   9.627  14.665   1.075
29272SOL    HW189713   9.544  14.665   1.027
29272SOL    HW289714   9.651  14.758   1.081
29273SOL     OW89715  14.079   8.205  14.308
29273SOL    HW189716  14.048   8.160  14.387
29273SOL    HW289717  14.146   8.265  14.339
29274SOL     OW89718   0.563   8.867   2.041
29274SOL    HW189719   0.526   8.793   1.993
29274SOL    HW289720   0.613   8.827   2.113
29275SOL     OW89721   2.568  12.622   6.770
29275SOL    HW189722   2.475  12.606   6.755
29275SOL    HW289723   2.597  12.667   6.690
29276SOL     OW89724  10.717  10.177  12.206
29276SOL    HW189725  10.680  10.237  12.270
29276SOL    HW289726  10.777  10.122  12.257
29277SOL     OW89727  10.694   0.598  13.688
29277SOL    HW189728  10.682   0.532  13.620
29277SOL    HW289729  10.672   0.552  13.769
29278SOL     OW89730  12.652   2.184   8.406
29278SOL    HW189731  12.713   2.232   8.350
29278SOL    HW289732  12.684   2.198   8.495
29279SOL     OW89733  10.072   8.007   9.843
29279SOL    HW189734  10.060   8.038   9.932
29279SOL    HW289735  10.144   8.060   9.809
29280SOL     OW89736   6.136   2.995   8.821
29280SOL    HW189737   6.060   3.040   8.856
29280SOL    HW289738   6.197   2.990   8.895
29281SOL     OW89739   9.547   1.906   9.835
29281SOL    HW189740   9.504   1.821   9.828
29281SOL    HW289741   9.549   1.939   9.745
29282SOL     OW89742   5.418   2.566  11.073
29282SOL    HW189743   5.324   2.568  11.054
29282SOL    HW289744   5.431   2.633  11.140
29283SOL     OW89745   6.609   9.618   3.085
29283SOL    HW189746   6.628   9.609   2.992
29283SOL    HW289747   6.590   9.529   3.114
29284SOL     OW89748   7.558   4.300   8.099
29284SOL    HW189749   7.545   4.392   8.076
29284SOL    HW289750   7.479   4.276   8.147
29285SOL     OW89751   6.854   3.551   3.541
29285SOL    HW189752   6.790   3.621   3.553
29285SOL    HW289753   6.909   3.555   3.619
29286SOL     OW89754   0.461   4.717   3.760
29286SOL    HW189755   0.410   4.667   3.824
29286SOL    HW289756   0.469   4.804   3.799
29287SOL     OW89757   8.104   7.336   9.586
29287SOL    HW189758   8.078   7.403   9.523
29287SOL    HW289759   8.060   7.361   9.667
29288SOL     OW89760  10.552   1.525  13.417
29288SOL    HW189761  10.477   1.471  13.443
29288SOL    HW289762  10.541   1.537  13.323
29289SOL     OW89763  12.496   7.532   1.846
29289SOL    HW189764  12.407   7.547   1.878
29289SOL    HW289765  12.540   7.616   1.857
29290SOL     OW89766   4.355  12.719  13.995
29290SOL    HW189767   4.290  12.768  14.045
29290SOL    HW289768   4.317  12.708  13.908
29291SOL     OW89769  13.286   5.011  14.525
29291SOL    HW189770  13.245   5.070  14.589
29291SOL    HW289771  13.296   4.928  14.572
29292SOL     OW89772   2.832   4.073  10.515
29292SOL    HW189773   2.809   4.108  10.601
29292SOL    HW289774   2.926   4.091  10.507
29293SOL     OW89775   5.527   0.914   2.742
29293SOL    HW189776   5.475   0.929   2.662
29293SOL    HW289777   5.559   0.824   2.733
29294SOL     OW89778   1.954  10.285   7.429
29294SOL    HW189779   2.016  10.225   7.471
29294SOL    HW289780   1.934  10.243   7.345
29295SOL     OW89781  12.504   6.104   9.105
29295SOL    HW189782  12.482   6.039   9.038
29295SOL    HW289783  12.592   6.133   9.083
29296SOL     OW89784   4.715   9.874   9.190
29296SOL    HW189785   4.719   9.824   9.108
29296SOL    HW289786   4.621   9.890   9.203
29297SOL     OW89787  12.635  12.628   4.788
29297SOL    HW189788  12.567  12.602   4.726
29297SOL    HW289789  12.603  12.710   4.826
29298SOL     OW89790   2.831  13.714  10.957
29298SOL    HW189791   2.815  13.774  10.884
29298SOL    HW289792   2.835  13.628  10.916
29299SOL     OW89793   6.709   5.811   1.340
29299SOL    HW189794   6.730   5.905   1.345
29299SOL    HW289795   6.776   5.775   1.282
29300SOL     OW89796   6.765   4.361  11.019
29300SOL    HW189797   6.835   4.418  11.050
29300SOL    HW289798   6.690   4.420  11.005
29301SOL     OW89799  11.016   5.342  12.139
29301SOL    HW189800  10.926   5.355  12.169
29301SOL    HW289801  11.040   5.256  12.174
29302SOL     OW89802   2.203   7.850  13.551
29302SOL    HW189803   2.276   7.846  13.613
29302SOL    HW289804   2.182   7.759  13.533
29303SOL     OW89805  14.689   4.819   2.369
29303SOL    HW189806  14.680   4.851   2.279
29303SOL    HW289807  14.620   4.753   2.377
29304SOL     OW89808  11.744   6.160   1.902
29304SOL    HW189809  11.796   6.086   1.870
29304SOL    HW289810  11.680   6.176   1.832
29305SOL     OW89811   7.104   1.188   0.248
29305SOL    HW189812   7.139   1.174   0.159
29305SOL    HW289813   7.011   1.168   0.240
29306SOL     OW89814   6.280   2.901   0.806
29306SOL    HW189815   6.311   2.992   0.807
29306SOL    HW289816   6.350   2.851   0.846
29307SOL     OW89817   0.354   1.225  10.401
29307SOL    HW189818   0.358   1.221  10.496
29307SOL    HW289819   0.424   1.286  10.376
29308SOL     OW89820   6.759  13.130   3.440
29308SOL    HW189821   6.735  13.124   3.533
29308SOL    HW289822   6.849  13.098   3.436
29309SOL     OW89823  13.264  11.706  10.054
29309SOL    HW189824  13.235  11.794  10.077
29309SOL    HW289825  13.352  11.699  10.092
29310SOL     OW89826   6.110   2.166   4.232
29310SOL    HW189827   6.083   2.115   4.156
29310SOL    HW289828   6.161   2.106   4.286
29311SOL     OW89829   8.591   2.975   9.101
29311SOL    HW189830   8.529   3.044   9.075
29311SOL    HW289831   8.567   2.954   9.191
29312SOL     OW89832   1.134  13.909   8.846
29312SOL    HW189833   1.096  13.985   8.802
29312SOL    HW289834   1.196  13.947   8.909
29313SOL     OW89835   0.704   5.130   3.655
29313SOL    HW189836   0.741   5.181   3.728
29313SOL    HW289837   0.661   5.195   3.599
29314SOL     OW89838  14.717   4.025  11.041
29314SOL    HW189839  14.808   4.026  11.068
29314SOL    HW289840  14.670   4.070  11.111
29315SOL     OW89841  10.701  12.542   5.264
29315SOL    HW189842  10.722  12.625   5.221
29315SOL    HW289843  10.649  12.495   5.199
29316SOL     OW89844  12.025  11.305   6.245
29316SOL    HW189845  12.057  11.391   6.218
29316SOL    HW289846  11.979  11.272   6.168
29317SOL     OW89847  14.778  12.662   6.069
29317SOL    HW189848  14.780  12.702   5.982
29317SOL    HW289849  14.686  12.641   6.084
29318SOL     OW89850   2.996   0.291  11.968
29318SOL    HW189851   2.974   0.267  12.058
29318SOL    HW289852   2.925   0.349  11.941
29319SOL     OW89853  12.416  11.080  12.568
29319SOL    HW189854  12.432  11.173  12.577
29319SOL    HW289855  12.392  11.050  12.656
29320SOL     OW89856  10.050   5.910   5.337
29320SOL    HW189857  10.122   5.917   5.400
29320SOL    HW289858  10.061   5.985   5.280
29321SOL     OW89859   0.508   9.166  13.478
29321SOL    HW189860   0.583   9.106  13.485
29321SOL    HW289861   0.432   9.111  13.493
29322SOL     OW89862   8.097  10.545   3.563
29322SOL    HW189863   8.190  10.556   3.583
29322SOL    HW289864   8.094  10.472   3.502
29323SOL     OW89865   1.173   9.381  14.014
29323SOL    HW189866   1.181   9.312  14.079
29323SOL    HW289867   1.088   9.365  13.973
29324SOL     OW89868   1.026   1.886   7.820
29324SOL    HW189869   0.937   1.919   7.836
29324SOL    HW289870   1.082   1.938   7.877
29325SOL     OW89871  12.304   5.298   3.296
29325SOL    HW189872  12.272   5.228   3.353
29325SOL    HW289873  12.382   5.332   3.341
29326SOL     OW89874  11.661  10.889   7.565
29326SOL    HW189875  11.675  10.943   7.644
29326SOL    HW289876  11.661  10.799   7.598
29327SOL     OW89877   6.314   5.039   5.558
29327SOL    HW189878   6.383   5.104   5.544
29327SOL    HW289879   6.361   4.960   5.585
29328SOL     OW89880   9.306   1.765  12.383
29328SOL    HW189881   9.375   1.832  12.377
29328SOL    HW289882   9.301   1.745  12.476
29329SOL     OW89883  14.323   5.658   0.556
29329SOL    HW189884  14.325   5.689   0.647
29329SOL    HW289885  14.295   5.733   0.505
29330SOL     OW89886  12.389  13.031  10.403
29330SOL    HW189887  12.307  13.074  10.379
29330SOL    HW289888  12.437  13.097  10.452
29331SOL     OW89889   1.192   2.904  14.396
29331SOL    HW189890   1.204   2.973  14.330
29331SOL    HW289891   1.115   2.856  14.367
29332SOL     OW89892   2.705   0.418   9.647
29332SOL    HW189893   2.725   0.337   9.693
29332SOL    HW289894   2.688   0.481   9.717
29333SOL     OW89895  10.488   5.447   6.180
29333SOL    HW189896  10.448   5.415   6.261
29333SOL    HW289897  10.551   5.380   6.156
29334SOL     OW89898  14.833   8.697  10.075
29334SOL    HW189899  14.840   8.607  10.105
29334SOL    HW289900   0.022   8.745  10.126
29335SOL     OW89901  14.333  12.073   8.050
29335SOL    HW189902  14.373  12.039   8.130
29335SOL    HW289903  14.253  12.116   8.079
29336SOL     OW89904   3.006   7.361  10.508
29336SOL    HW189905   3.053   7.438  10.479
29336SOL    HW289906   3.044   7.289  10.458
29337SOL     OW89907   9.449   1.193  11.561
29337SOL    HW189908   9.434   1.116  11.506
29337SOL    HW289909   9.437   1.161  11.650
29338SOL     OW89910  11.068   8.241  13.909
29338SOL    HW189911  11.133   8.172  13.920
29338SOL    HW289912  10.993   8.197  13.869
29339SOL     OW89913   7.329   6.154   5.352
29339SOL    HW189914   7.397   6.218   5.372
29339SOL    HW289915   7.373   6.070   5.355
29340SOL     OW89916   7.221   9.565  12.953
29340SOL    HW189917   7.272   9.585  13.031
29340SOL    HW289918   7.214   9.469  12.952
29341SOL     OW89919  14.755  14.757   5.058
29341SOL    HW189920  14.806  14.783   5.134
29341SOL    HW289921  14.714  14.837   5.026
29342SOL     OW89922   6.705   3.818   6.839
29342SOL    HW189923   6.615   3.801   6.813
29342SOL    HW289924   6.736   3.884   6.777
29343SOL     OW89925   8.071   5.544   2.350
29343SOL    HW189926   7.995   5.570   2.298
29343SOL    HW289927   8.137   5.610   2.331
29344SOL     OW89928  11.334   1.706  10.382
29344SOL    HW189929  11.306   1.722  10.472
29344SOL    HW289930  11.308   1.616  10.364
29345SOL     OW89931   4.087   9.173   4.361
29345SOL    HW189932   4.011   9.173   4.303
29345SOL    HW289933   4.091   9.264   4.393
29346SOL     OW89934  11.137  10.020  14.061
29346SOL    HW189935  11.090  10.071  13.996
29346SOL    HW289936  11.220   9.997  14.018
29347SOL     OW89937  10.411   7.082   2.219
29347SOL    HW189938  10.475   7.044   2.280
29347SOL    HW289939  10.462   7.104   2.141
29348SOL     OW89940   0.171   9.705   8.755
29348SOL    HW189941   0.190   9.623   8.800
29348SOL    HW289942   0.167   9.682   8.662
29349SOL     OW89943   6.687   2.317   3.457
29349SOL    HW189944   6.707   2.230   3.423
29349SOL    HW289945   6.655   2.302   3.546
29350SOL     OW89946   1.710  10.073   5.893
29350SOL    HW189947   1.725  10.086   5.987
29350SOL    HW289948   1.721   9.978   5.881
29351SOL     OW89949  12.057  14.683   0.904
29351SOL    HW189950  12.033  14.681   0.811
29351SOL    HW289951  12.151  14.666   0.905
29352SOL     OW89952   4.653   6.091   1.531
29352SOL    HW189953   4.588   6.118   1.465
29352SOL    HW289954   4.726   6.151   1.517
29353SOL     OW89955   8.404  11.611  11.706
29353SOL    HW189956   8.354  11.650  11.635
29353SOL    HW289957   8.495  11.630  11.685
29354SOL     OW89958   9.562   4.768   5.338
29354SOL    HW189959   9.505   4.796   5.267
29354SOL    HW289960   9.522   4.804   5.417
29355SOL     OW89961   0.597  14.736  12.633
29355SOL    HW189962   0.589  14.805  12.567
29355SOL    HW289963   0.531  14.671  12.608
29356SOL     OW89964  11.897  10.581   8.487
29356SOL    HW189965  11.899  10.572   8.392
29356SOL    HW289966  11.975  10.534   8.517
29357SOL     OW89967   6.027   9.456  11.541
29357SOL    HW189968   6.024   9.389  11.609
29357SOL    HW289969   6.072   9.414  11.468
29358SOL     OW89970  11.575   0.918  14.628
29358SOL    HW189971  11.526   0.901  14.709
29358SOL    HW289972  11.518   0.887  14.559
29359SOL     OW89973  12.458   5.268   7.806
29359SOL    HW189974  12.495   5.194   7.759
29359SOL    HW289975  12.481   5.253   7.898
29360SOL     OW89976  12.659  11.190  10.074
29360SOL    HW189977  12.611  11.220  10.150
29360SOL    HW289978  12.750  11.215  10.091
29361SOL     OW89979   3.053   9.976   3.441
29361SOL    HW189980   2.996   9.936   3.376
29361SOL    HW289981   3.070  10.064   3.407
29362SOL     OW89982  10.085  10.669   7.856
29362SOL    HW189983  10.120  10.625   7.778
29362SOL    HW289984  10.068  10.598   7.918
29363SOL     OW89985   6.595  14.547   8.568
29363SOL    HW189986   6.633  14.528   8.482
29363SOL    HW289987   6.536  14.620   8.552
29364SOL     OW89988  12.420   3.436   9.046
29364SOL    HW189989  12.387   3.487   8.972
29364SOL    HW289990  12.503   3.399   9.014
29365SOL     OW89991   8.497   6.567   3.114
29365SOL    HW189992   8.418   6.601   3.156
29365SOL    HW289993   8.520   6.634   3.050
29366SOL     OW89994  11.690   8.826  13.519
29366SOL    HW189995  11.703   8.887  13.592
29366SOL    HW289996  11.603   8.849  13.484
29367SOL     OW89997   1.373   8.022   5.095
29367SOL    HW189998   1.404   8.047   5.008
29367SOL    HW289999   1.279   8.008   5.084
29368SOL     OW90000  11.224   6.692   2.273
29368SOL    HW190001  11.187   6.623   2.218
29368SOL    HW290002  11.275   6.645   2.339
29369SOL     OW90003   9.029  14.682   9.243
29369SOL    HW190004   9.085  14.636   9.180
29369SOL    HW290005   9.082  14.757   9.271
29370SOL     OW90006  14.823   3.114   7.013
29370SOL    HW190007  14.816   3.077   7.102
29370SOL    HW290008   0.036   3.097   6.988
29371SOL     OW90009  11.077   0.688   1.177
29371SOL    HW190010  11.082   0.671   1.083
29371SOL    HW290011  11.000   0.744   1.188
29372SOL     OW90012  12.923   0.469  14.255
29372SOL    HW190013  12.901   0.401  14.318
29372SOL    HW290014  12.924   0.424  14.171
29373SOL     OW90015  14.423  10.974   9.295
29373SOL    HW190016  14.427  10.996   9.388
29373SOL    HW290017  14.410  10.879   9.293
29374SOL     OW90018  11.088  14.198  13.316
29374SOL    HW190019  11.086  14.151  13.399
29374SOL    HW290020  11.181  14.214  13.300
29375SOL     OW90021   2.035   6.089  14.085
29375SOL    HW190022   2.086   6.163  14.051
29375SOL    HW290023   2.002   6.045  14.007
29376SOL     OW90024   5.073  11.663   4.640
29376SOL    HW190025   5.119  11.741   4.611
29376SOL    HW290026   5.114  11.641   4.724
29377SOL     OW90027   2.297   2.719   8.417
29377SOL    HW190028   2.362   2.653   8.441
29377SOL    HW290029   2.342   2.776   8.355
29378SOL     OW90030  10.909   1.268   1.532
29378SOL    HW190031  11.003   1.281   1.546
29378SOL    HW290032  10.878   1.354   1.504
29379SOL     OW90033  10.521   0.528   9.949
29379SOL    HW190034  10.551   0.454   9.896
29379SOL    HW290035  10.589   0.540  10.015
29380SOL     OW90036  11.319   0.308   5.917
29380SOL    HW190037  11.391   0.246   5.925
29380SOL    HW290038  11.299   0.310   5.823
29381SOL     OW90039   6.146  14.470   1.712
29381SOL    HW190040   6.164  14.536   1.779
29381SOL    HW290041   6.124  14.391   1.761
29382SOL     OW90042   4.011  11.853   9.766
29382SOL    HW190043   4.061  11.771   9.762
29382SOL    HW290044   4.022  11.884   9.856
29383SOL     OW90045   5.744   1.539   3.338
29383SOL    HW190046   5.815   1.488   3.300
29383SOL    HW290047   5.789   1.602   3.395
29384SOL     OW90048   5.846   9.361  12.788
29384SOL    HW190049   5.864   9.411  12.709
29384SOL    HW290050   5.852   9.270  12.761
29385SOL     OW90051  10.254   2.199   0.965
29385SOL    HW190052  10.165   2.178   0.992
29385SOL    HW290053  10.278   2.129   0.905
29386SOL     OW90054   5.456  13.764   7.753
29386SOL    HW190055   5.399  13.840   7.760
29386SOL    HW290056   5.467  13.734   7.843
29387SOL     OW90057   2.824   5.680   1.841
29387SOL    HW190058   2.864   5.602   1.803
29387SOL    HW290059   2.743   5.649   1.881
29388SOL     OW90060   3.035   7.651   8.358
29388SOL    HW190061   3.111   7.705   8.335
29388SOL    HW290062   3.006   7.687   8.442
29389SOL     OW90063  12.209  13.892   6.755
29389SOL    HW190064  12.149  13.948   6.706
29389SOL    HW290065  12.295  13.910   6.718
29390SOL     OW90066  11.556   5.203   4.030
29390SOL    HW190067  11.652   5.204   4.035
29390SOL    HW290068  11.535   5.112   4.007
29391SOL     OW90069   4.872   1.598   6.330
29391SOL    HW190070   4.813   1.523   6.340
29391SOL    HW290071   4.894   1.623   6.420
29392SOL     OW90072   3.838   5.263   0.643
29392SOL    HW190073   3.928   5.281   0.615
29392SOL    HW290074   3.847   5.230   0.732
29393SOL     OW90075  10.320  13.390   6.779
29393SOL    HW190076  10.242  13.418   6.732
29393SOL    HW290077  10.299  13.301   6.809
29394SOL     OW90078   2.611   5.657   4.383
29394SOL    HW190079   2.671   5.723   4.417
29394SOL    HW290080   2.668   5.590   4.344
29395SOL     OW90081   9.938   3.830   0.972
29395SOL    HW190082  10.017   3.884   0.980
29395SOL    HW290083   9.866   3.892   0.985
29396SOL     OW90084   8.312   3.293  10.231
29396SOL    HW190085   8.382   3.257  10.286
29396SOL    HW290086   8.292   3.378  10.271
29397SOL     OW90087  11.665   4.342   8.669
29397SOL    HW190088  11.745   4.365   8.716
29397SOL    HW290089  11.612   4.294   8.732
29398SOL     OW90090   9.588   0.669   4.550
29398SOL    HW190091   9.660   0.668   4.612
29398SOL    HW290092   9.621   0.619   4.475
29399SOL     OW90093   5.814  10.078   9.383
29399SOL    HW190094   5.727  10.045   9.360
29399SOL    HW290095   5.816  10.073   9.479
29400SOL     OW90096  14.389  11.506   5.444
29400SOL    HW190097  14.406  11.434   5.383
29400SOL    HW290098  14.307  11.482   5.487
29401SOL     OW90099   0.017  11.542   4.210
29401SOL    HW190100  14.826  11.503   4.156
29401SOL    HW290101   0.058  11.468   4.254
29402SOL     OW90102   4.602  12.332   7.641
29402SOL    HW190103   4.697  12.337   7.639
29402SOL    HW290104   4.581  12.293   7.726
29403SOL     OW90105   3.938   0.147   4.209
29403SOL    HW190106   3.952   0.066   4.160
29403SOL    HW290107   3.846   0.169   4.192
29404SOL     OW90108   0.131  10.174   2.539
29404SOL    HW190109   0.161  10.107   2.477
29404SOL    HW290110   0.143  10.134   2.625
29405SOL     OW90111  11.758   2.853   4.983
29405SOL    HW190112  11.842   2.835   4.941
29405SOL    HW290113  11.755   2.948   4.993
29406SOL     OW90114   1.299   0.724  10.299
29406SOL    HW190115   1.333   0.806  10.334
29406SOL    HW290116   1.248   0.687  10.372
29407SOL     OW90117  11.723  13.252   8.350
29407SOL    HW190118  11.681  13.207   8.276
29407SOL    HW290119  11.816  13.249   8.330
29408SOL     OW90120   8.325  10.031   8.942
29408SOL    HW190121   8.351  10.078   8.863
29408SOL    HW290122   8.244   9.987   8.918
29409SOL     OW90123   6.486   4.620   3.213
29409SOL    HW190124   6.448   4.676   3.280
29409SOL    HW290125   6.525   4.547   3.261
29410SOL     OW90126  10.155   0.812   3.316
29410SOL    HW190127  10.175   0.862   3.236
29410SOL    HW290128  10.139   0.879   3.383
29411SOL     OW90129  14.151   8.371   6.681
29411SOL    HW190130  14.237   8.365   6.723
29411SOL    HW290131  14.124   8.280   6.670
29412SOL     OW90132   6.158   4.002   3.812
29412SOL    HW190133   6.227   3.936   3.799
29412SOL    HW290134   6.189   4.079   3.764
29413SOL     OW90135   0.901   3.784  14.073
29413SOL    HW190136   0.807   3.789  14.092
29413SOL    HW290137   0.941   3.844  14.136
29414SOL     OW90138   6.505  13.282   1.474
29414SOL    HW190139   6.570  13.271   1.544
29414SOL    HW290140   6.428  13.317   1.518
29415SOL     OW90141  10.187  12.541  10.966
29415SOL    HW190142  10.109  12.569  11.013
29415SOL    HW290143  10.178  12.580  10.879
29416SOL     OW90144  14.396   4.699   4.002
29416SOL    HW190145  14.336   4.769   4.025
29416SOL    HW290146  14.443   4.731   3.926
29417SOL     OW90147  12.482   4.176   6.202
29417SOL    HW190148  12.414   4.237   6.231
29417SOL    HW290149  12.556   4.233   6.181
29418SOL     OW90150   3.300  14.354   0.758
29418SOL    HW190151   3.260  14.289   0.699
29418SOL    HW290152   3.239  14.428   0.756
29419SOL     OW90153   1.788   1.904  12.049
29419SOL    HW190154   1.839   1.893  12.130
29419SOL    HW290155   1.771   1.815  12.019
29420SOL     OW90156  14.261   3.986  11.979
29420SOL    HW190157  14.247   3.948  11.892
29420SOL    HW290158  14.267   3.911  12.037
29421SOL     OW90159   0.351  11.388   9.847
29421SOL    HW190160   0.345  11.334   9.926
29421SOL    HW290161   0.443  11.382   9.821
29422SOL     OW90162  11.319   0.970   2.988
29422SOL    HW190163  11.304   0.882   3.022
29422SOL    HW290164  11.311   1.027   3.064
29423SOL     OW90165  10.733   1.684   4.572
29423SOL    HW190166  10.672   1.635   4.516
29423SOL    HW290167  10.791   1.617   4.608
29424SOL     OW90168   6.966  11.177  10.134
29424SOL    HW190169   7.038  11.238  10.120
29424SOL    HW290170   6.923  11.209  10.213
29425SOL     OW90171   2.808   7.484  14.184
29425SOL    HW190172   2.803   7.395  14.220
29425SOL    HW290173   2.869   7.476  14.110
29426SOL     OW90174  12.816   7.290   2.610
29426SOL    HW190175  12.857   7.289   2.696
29426SOL    HW290176  12.884   7.325   2.552
29427SOL     OW90177   7.425  10.485  12.357
29427SOL    HW190178   7.458  10.473  12.267
29427SOL    HW290179   7.454  10.573  12.381
29428SOL     OW90180   9.294   7.074  10.531
29428SOL    HW190181   9.243   6.994  10.546
29428SOL    HW290182   9.327   7.064  10.442
29429SOL     OW90183  11.028   3.699  10.038
29429SOL    HW190184  11.011   3.643  10.113
29429SOL    HW290185  11.077   3.773  10.074
29430SOL     OW90186  14.070   5.395   5.060
29430SOL    HW190187  14.047   5.333   4.990
29430SOL    HW290188  14.095   5.475   5.014
29431SOL     OW90189   2.534  12.575  11.768
29431SOL    HW190190   2.539  12.616  11.682
29431SOL    HW290191   2.554  12.646  11.829
29432SOL     OW90192   1.833   7.302   0.175
29432SOL    HW190193   1.876   7.232   0.126
29432SOL    HW290194   1.901   7.335   0.233
29433SOL     OW90195   3.510   3.914  11.506
29433SOL    HW190196   3.450   3.841  11.491
29433SOL    HW290197   3.588   3.891  11.456
29434SOL     OW90198   5.903  12.065   9.974
29434SOL    HW190199   5.939  12.006   9.908
29434SOL    HW290200   5.975  12.078  10.035
29435SOL     OW90201  14.285   4.845   9.631
29435SOL    HW190202  14.348   4.800   9.574
29435SOL    HW290203  14.201   4.804   9.611
29436SOL     OW90204   2.558  13.001  11.277
29436SOL    HW190205   2.530  12.976  11.366
29436SOL    HW290206   2.491  12.964  11.220
29437SOL     OW90207   4.784  13.599  10.023
29437SOL    HW190208   4.746  13.684  10.001
29437SOL    HW290209   4.776  13.593  10.118
29438SOL     OW90210   6.464   4.900   3.925
29438SOL    HW190211   6.535   4.952   3.887
29438SOL    HW290212   6.508   4.827   3.969
29439SOL     OW90213   3.708   8.758   7.675
29439SOL    HW190214   3.708   8.831   7.737
29439SOL    HW290215   3.655   8.790   7.601
29440SOL     OW90216   9.764   5.756   8.196
29440SOL    HW190217   9.857   5.732   8.192
29440SOL    HW290218   9.758   5.818   8.268
29441SOL     OW90219   9.663   3.430   9.115
29441SOL    HW190220   9.628   3.384   9.038
29441SOL    HW290221   9.753   3.399   9.122
29442SOL     OW90222   8.285  11.094   2.564
29442SOL    HW190223   8.203  11.121   2.523
29442SOL    HW290224   8.270  11.002   2.588
29443SOL     OW90225   1.978   0.400   4.926
29443SOL    HW190226   1.893   0.358   4.908
29443SOL    HW290227   2.002   0.367   5.013
29444SOL     OW90228  12.868   2.718   3.530
29444SOL    HW190229  12.888   2.796   3.581
29444SOL    HW290230  12.844   2.751   3.444
29445SOL     OW90231   5.383  12.341  13.848
29445SOL    HW190232   5.415  12.263  13.804
29445SOL    HW290233   5.374  12.406  13.778
29446SOL     OW90234  10.210   5.886  12.223
29446SOL    HW190235  10.221   5.837  12.305
29446SOL    HW290236  10.120   5.869  12.197
29447SOL     OW90237   1.433   0.987  11.866
29447SOL    HW190238   1.391   0.913  11.911
29447SOL    HW290239   1.525   0.980  11.888
29448SOL     OW90240  10.970   8.603   5.169
29448SOL    HW190241  10.979   8.696   5.150
29448SOL    HW290242  10.882   8.594   5.205
29449SOL     OW90243   9.367   7.823   9.348
29449SOL    HW190244   9.327   7.822   9.434
29449SOL    HW290245   9.323   7.754   9.299
29450SOL     OW90246   5.623   7.038   3.022
29450SOL    HW190247   5.704   7.011   2.978
29450SOL    HW290248   5.563   7.059   2.950
29451SOL     OW90249  12.489   0.104   9.479
29451SOL    HW190250  12.507   0.174   9.542
29451SOL    HW290251  12.482   0.025   9.533
29452SOL     OW90252   9.412   2.037   5.684
29452SOL    HW190253   9.381   2.095   5.614
29452SOL    HW290254   9.333   2.007   5.728
29453SOL     OW90255   4.816   0.246   5.828
29453SOL    HW190256   4.761   0.325   5.825
29453SOL    HW290257   4.839   0.230   5.737
29454SOL     OW90258   6.758   2.418  10.561
29454SOL    HW190259   6.699   2.343  10.565
29454SOL    HW290260   6.845   2.380  10.559
29455SOL     OW90261   6.954  11.587   9.246
29455SOL    HW190262   6.885  11.652   9.232
29455SOL    HW290263   6.971  11.551   9.159
29456SOL     OW90264   4.714   0.558   3.286
29456SOL    HW190265   4.729   0.626   3.351
29456SOL    HW290266   4.764   0.483   3.318
29457SOL     OW90267   6.120   9.157  12.721
29457SOL    HW190268   6.027   9.144  12.738
29457SOL    HW290269   6.135   9.117  12.635
29458SOL     OW90270   3.210  13.447   5.842
29458SOL    HW190271   3.272  13.497   5.894
29458SOL    HW290272   3.140  13.508   5.822
29459SOL     OW90273  13.519   6.868   1.127
29459SOL    HW190274  13.599   6.858   1.076
29459SOL    HW290275  13.548   6.874   1.218
29460SOL     OW90276  11.177  14.718   9.318
29460SOL    HW190277  11.153  14.786   9.381
29460SOL    HW290278  11.191  14.766   9.236
29461SOL     OW90279   8.459  12.793   1.237
29461SOL    HW190280   8.519  12.857   1.199
29461SOL    HW290281   8.376  12.808   1.190
29462SOL     OW90282  12.196  14.679   8.114
29462SOL    HW190283  12.266  14.615   8.126
29462SOL    HW290284  12.116  14.628   8.125
29463SOL     OW90285   5.828   7.893   6.868
29463SOL    HW190286   5.881   7.826   6.911
29463SOL    HW290287   5.813   7.859   6.780
29464SOL     OW90288  11.118   2.810  10.517
29464SOL    HW190289  11.087   2.720  10.512
29464SOL    HW290290  11.039   2.861  10.537
29465SOL     OW90291   0.436   7.332  11.989
29465SOL    HW190292   0.450   7.242  12.017
29465SOL    HW290293   0.482   7.340  11.906
29466SOL     OW90294   9.290   4.676   0.193
29466SOL    HW190295   9.365   4.624   0.164
29466SOL    HW290296   9.260   4.633   0.273
29467SOL     OW90297   0.589   4.839  13.087
29467SOL    HW190298   0.542   4.819  13.006
29467SOL    HW290299   0.669   4.788  13.081
29468SOL     OW90300   8.538   7.660   6.193
29468SOL    HW190301   8.512   7.614   6.272
29468SOL    HW290302   8.456   7.690   6.155
29469SOL     OW90303   1.139   8.547  14.197
29469SOL    HW190304   1.217   8.601  14.190
29469SOL    HW290305   1.087   8.590  14.265
29470SOL     OW90306   8.604   2.156   9.795
29470SOL    HW190307   8.609   2.165   9.700
29470SOL    HW290308   8.624   2.244   9.828
29471SOL     OW90309  12.193   3.118   2.419
29471SOL    HW190310  12.177   3.035   2.464
29471SOL    HW290311  12.105   3.156   2.408
29472SOL     OW90312   1.289  12.159   8.672
29472SOL    HW190313   1.351  12.184   8.603
29472SOL    HW290314   1.323  12.076   8.705
29473SOL     OW90315   6.204   2.207  13.738
29473SOL    HW190316   6.177   2.142  13.673
29473SOL    HW290317   6.123   2.228  13.786
29474SOL     OW90318  14.372   2.830   4.325
29474SOL    HW190319  14.294   2.859   4.277
29474SOL    HW290320  14.398   2.749   4.280
29475SOL     OW90321   8.044   0.089  12.991
29475SOL    HW190322   8.129   0.087  12.946
29475SOL    HW290323   8.065   0.063  13.081
29476SOL     OW90324   6.122   7.470   8.801
29476SOL    HW190325   6.054   7.424   8.850
29476SOL    HW290326   6.201   7.417   8.813
29477SOL     OW90327  10.202   6.689   2.299
29477SOL    HW190328  10.182   6.741   2.222
29477SOL    HW290329  10.288   6.719   2.327
29478SOL     OW90330   4.800  12.640   9.874
29478SOL    HW190331   4.823  12.721   9.828
29478SOL    HW290332   4.723  12.607   9.829
29479SOL     OW90333  12.681  14.082   5.794
29479SOL    HW190334  12.721  14.169   5.787
29479SOL    HW290335  12.658  14.059   5.704
29480SOL     OW90336   7.120  10.114   1.163
29480SOL    HW190337   7.055  10.149   1.101
29480SOL    HW290338   7.091  10.146   1.248
29481SOL     OW90339   3.981  11.150  10.405
29481SOL    HW190340   3.898  11.107  10.388
29481SOL    HW290341   4.025  11.152  10.320
29482SOL     OW90342  14.676   7.124   6.086
29482SOL    HW190343  14.754   7.145   6.137
29482SOL    HW290344  14.669   7.196   6.023
29483SOL     OW90345   3.192   1.667  12.262
29483SOL    HW190346   3.150   1.750  12.240
29483SOL    HW290347   3.189   1.616  12.181
29484SOL     OW90348   9.761   1.352   8.677
29484SOL    HW190349   9.748   1.317   8.589
29484SOL    HW290350   9.685   1.321   8.726
29485SOL     OW90351   2.470   2.408   8.250
29485SOL    HW190352   2.540   2.464   8.218
29485SOL    HW290353   2.512   2.324   8.267
29486SOL     OW90354   7.805   4.308   9.404
29486SOL    HW190355   7.715   4.342   9.413
29486SOL    HW290356   7.843   4.319   9.491
29487SOL     OW90357   2.526  10.212   5.807
29487SOL    HW190358   2.580  10.287   5.783
29487SOL    HW290359   2.478  10.241   5.884
29488SOL     OW90360   4.448   9.274   0.050
29488SOL    HW190361   4.367   9.256   0.098
29488SOL    HW290362   4.425   9.345  14.868
29489SOL     OW90363   0.105   6.926   9.816
29489SOL    HW190364   0.184   6.971   9.844
29489SOL    HW290365   0.085   6.864   9.886
29490SOL     OW90366   9.981   0.349  12.215
29490SOL    HW190367   9.985   0.416  12.147
29490SOL    HW290368   9.887   0.331  12.225
29491SOL     OW90369  12.526   3.449   8.286
29491SOL    HW190370  12.544   3.522   8.227
29491SOL    HW290371  12.526   3.372   8.229
29492SOL     OW90372   9.756   9.727   8.172
29492SOL    HW190373   9.681   9.667   8.170
29492SOL    HW290374   9.717   9.814   8.166
29493SOL     OW90375   4.295   5.839  13.929
29493SOL    HW190376   4.247   5.827  14.011
29493SOL    HW290377   4.381   5.871  13.956
29494SOL     OW90378   3.120   4.228  12.343
29494SOL    HW190379   3.167   4.155  12.302
29494SOL    HW290380   3.053   4.187  12.397
29495SOL     OW90381  14.366   7.051   9.806
29495SOL    HW190382  14.389   7.125   9.750
29495SOL    HW290383  14.382   6.974   9.752
29496SOL     OW90384   4.987   6.742  14.774
29496SOL    HW190385   5.079   6.762  14.755
29496SOL    HW290386   4.941   6.823  14.756
29497SOL     OW90387   3.180   3.308   9.986
29497SOL    HW190388   3.252   3.334   9.929
29497SOL    HW290389   3.101   3.333   9.938
29498SOL     OW90390   2.304  13.290   2.328
29498SOL    HW190391   2.253  13.216   2.361
29498SOL    HW290392   2.238  13.351   2.294
29499SOL     OW90393   0.733   5.792  11.255
29499SOL    HW190394   0.814   5.794  11.307
29499SOL    HW290395   0.665   5.768  11.318
29500SOL     OW90396   6.188  10.927   0.457
29500SOL    HW190397   6.192  11.010   0.410
29500SOL    HW290398   6.272  10.921   0.504
29501SOL     OW90399  13.208  11.465   6.476
29501SOL    HW190400  13.239  11.551   6.446
29501SOL    HW290401  13.286  11.422   6.510
29502SOL     OW90402   6.172  11.818   1.232
29502SOL    HW190403   6.173  11.723   1.230
29502SOL    HW290404   6.094  11.843   1.183
29503SOL     OW90405   8.902   8.431  14.141
29503SOL    HW190406   8.824   8.480  14.118
29503SOL    HW290407   8.869   8.348  14.176
29504SOL     OW90408  11.774   2.492  12.983
29504SOL    HW190409  11.831   2.432  12.935
29504SOL    HW290410  11.750   2.559  12.919
29505SOL     OW90411   4.905   7.504  12.278
29505SOL    HW190412   4.994   7.486  12.307
29505SOL    HW290413   4.850   7.448  12.333
29506SOL     OW90414   7.072  11.786  13.354
29506SOL    HW190415   6.990  11.741  13.332
29506SOL    HW290416   7.118  11.725  13.411
29507SOL     OW90417  13.456  14.514  10.983
29507SOL    HW190418  13.550  14.509  10.964
29507SOL    HW290419  13.415  14.525  10.897
29508SOL     OW90420   9.272  13.081   0.785
29508SOL    HW190421   9.264  13.030   0.704
29508SOL    HW290422   9.220  13.032   0.849
29509SOL     OW90423   3.330   1.174   3.705
29509SOL    HW190424   3.357   1.266   3.703
29509SOL    HW290425   3.244   1.175   3.746
29510SOL     OW90426   6.545   0.203   9.547
29510SOL    HW190427   6.524   0.183   9.638
29510SOL    HW290428   6.492   0.141   9.496
29511SOL     OW90429  13.256  14.813   3.530
29511SOL    HW190430  13.224  14.869   3.460
29511SOL    HW290431  13.321  14.757   3.488
29512SOL     OW90432   3.094   4.850  12.373
29512SOL    HW190433   3.101   4.842  12.278
29512SOL    HW290434   3.092   4.944  12.389
29513SOL     OW90435   4.653  14.354  11.431
29513SOL    HW190436   4.736  14.357  11.382
29513SOL    HW290437   4.588  14.387  11.369
29514SOL     OW90438  12.265  12.626   8.349
29514SOL    HW190439  12.204  12.581   8.406
29514SOL    HW290440  12.282  12.565   8.277
29515SOL     OW90441  12.605   1.183   3.570
29515SOL    HW190442  12.557   1.151   3.493
29515SOL    HW290443  12.538   1.190   3.639
29516SOL     OW90444   0.311  10.462   6.027
29516SOL    HW190445   0.360  10.500   5.955
29516SOL    HW290446   0.228  10.435   5.988
29517SOL     OW90447  12.886   6.610  12.425
29517SOL    HW190448  12.977   6.584  12.437
29517SOL    HW290449  12.852   6.549  12.359
29518SOL     OW90450   4.379   4.768   5.003
29518SOL    HW190451   4.436   4.691   5.005
29518SOL    HW290452   4.439   4.843   5.005
29519SOL     OW90453  13.311   2.069  12.694
29519SOL    HW190454  13.236   2.087  12.751
29519SOL    HW290455  13.295   2.123  12.617
29520SOL     OW90456   7.585  12.906   1.348
29520SOL    HW190457   7.505  12.934   1.394
29520SOL    HW290458   7.632  12.988   1.331
29521SOL     OW90459   5.488  13.281   2.505
29521SOL    HW190460   5.550  13.208   2.515
29521SOL    HW290461   5.484  13.296   2.411
29522SOL     OW90462   3.267  10.623  14.458
29522SOL    HW190463   3.197  10.560  14.443
29522SOL    HW290464   3.274  10.671  14.375
29523SOL     OW90465   9.158  14.520   8.512
29523SOL    HW190466   9.090  14.550   8.572
29523SOL    HW290467   9.230  14.583   8.523
29524SOL     OW90468   7.864   5.307   0.288
29524SOL    HW190469   7.956   5.288   0.269
29524SOL    HW290470   7.847   5.392   0.247
29525SOL     OW90471   5.794  10.036   1.973
29525SOL    HW190472   5.766   9.949   1.943
29525SOL    HW290473   5.729  10.096   1.938
29526SOL     OW90474   4.597   2.608  14.125
29526SOL    HW190475   4.603   2.540  14.192
29526SOL    HW290476   4.687   2.640  14.115
29527SOL     OW90477  14.381   8.207   8.185
29527SOL    HW190478  14.317   8.188   8.117
29527SOL    HW290479  14.330   8.207   8.266
29528SOL     OW90480  10.172   5.068   1.512
29528SOL    HW190481  10.103   5.007   1.540
29528SOL    HW290482  10.242   5.056   1.575
29529SOL     OW90483   7.039   8.536   7.664
29529SOL    HW190484   7.028   8.562   7.756
29529SOL    HW290485   6.966   8.476   7.648
29530SOL     OW90486   7.278   3.591   9.551
29530SOL    HW190487   7.283   3.553   9.464
29530SOL    HW290488   7.279   3.686   9.536
29531SOL     OW90489  14.351   8.663   2.392
29531SOL    HW190490  14.339   8.686   2.300
29531SOL    HW290491  14.427   8.715   2.420
29532SOL     OW90492  11.799  14.348  11.396
29532SOL    HW190493  11.844  14.302  11.467
29532SOL    HW290494  11.734  14.402  11.441
29533SOL     OW90495   5.184  12.084   7.202
29533SOL    HW190496   5.111  12.030   7.171
29533SOL    HW290497   5.157  12.112   7.290
29534SOL     OW90498   4.910  12.108  12.637
29534SOL    HW190499   4.895  12.053  12.714
29534SOL    HW290500   4.962  12.054  12.578
29535SOL     OW90501   8.935  10.817   5.661
29535SOL    HW190502   8.904  10.736   5.620
29535SOL    HW290503   8.873  10.884   5.632
29536SOL     OW90504   6.414   6.102   4.070
29536SOL    HW190505   6.506   6.075   4.063
29536SOL    HW290506   6.397   6.149   3.988
29537SOL     OW90507  13.022  13.509  11.452
29537SOL    HW190508  13.102  13.456  11.451
29537SOL    HW290509  12.953  13.447  11.427
29538SOL     OW90510   8.179  10.693   2.610
29538SOL    HW190511   8.122  10.658   2.679
29538SOL    HW290512   8.133  10.772   2.580
29539SOL     OW90513   8.316   0.543   5.648
29539SOL    HW190514   8.357   0.557   5.733
29539SOL    HW290515   8.389   0.517   5.591
29540SOL     OW90516   4.916   8.041   2.043
29540SOL    HW190517   4.880   7.990   1.971
29540SOL    HW290518   4.957   7.976   2.100
29541SOL     OW90519   1.905  12.985  12.078
29541SOL    HW190520   1.887  12.911  12.019
29541SOL    HW290521   1.823  12.999  12.125
29542SOL     OW90522   0.429  13.550   4.394
29542SOL    HW190523   0.522  13.551   4.368
29542SOL    HW290524   0.421  13.472   4.450
29543SOL     OW90525   0.723   7.766   6.769
29543SOL    HW190526   0.776   7.692   6.739
29543SOL    HW290527   0.652   7.772   6.705
29544SOL     OW90528   1.748  14.129  11.529
29544SOL    HW190529   1.676  14.094  11.582
29544SOL    HW290530   1.800  14.180  11.590
29545SOL     OW90531   1.949   7.732  12.306
29545SOL    HW190532   1.941   7.804  12.242
29545SOL    HW290533   2.041   7.705  12.300
29546SOL     OW90534   5.637   5.503   8.720
29546SOL    HW190535   5.696   5.437   8.757
29546SOL    HW290536   5.644   5.578   8.779
29547SOL     OW90537   5.953   5.097   9.990
29547SOL    HW190538   5.873   5.131  10.029
29547SOL    HW290539   6.022   5.156  10.023
29548SOL     OW90540  11.930  11.228   8.026
29548SOL    HW190541  11.836  11.216   8.015
29548SOL    HW290542  11.941  11.240   8.121
29549SOL     OW90543  13.235  10.442  13.890
29549SOL    HW190544  13.145  10.456  13.918
29549SOL    HW290545  13.236  10.351  13.858
29550SOL     OW90546   8.441  14.477   4.022
29550SOL    HW190547   8.402  14.427   3.951
29550SOL    HW290548   8.512  14.422   4.055
29551SOL     OW90549  11.638  10.366   9.546
29551SOL    HW190550  11.596  10.283   9.569
29551SOL    HW290551  11.646  10.363   9.451
29552SOL     OW90552   0.618   9.904   2.036
29552SOL    HW190553   0.605   9.812   2.058
29552SOL    HW290554   0.700   9.906   1.987
29553SOL     OW90555  11.384  14.739  10.883
29553SOL    HW190556  11.376  14.829  10.851
29553SOL    HW290557  11.295  14.716  10.910
29554SOL     OW90558   4.316  11.750  10.918
29554SOL    HW190559   4.360  11.669  10.892
29554SOL    HW290560   4.259  11.771  10.844
29555SOL     OW90561  12.687   3.734   5.364
29555SOL    HW190562  12.604   3.781   5.353
29555SOL    HW290563  12.664   3.642   5.347
29556SOL     OW90564   6.410  14.665   7.920
29556SOL    HW190565   6.464  14.614   7.980
29556SOL    HW290566   6.455  14.749   7.913
29557SOL     OW90567   8.798   3.066  13.115
29557SOL    HW190568   8.861   3.138  13.118
29557SOL    HW290569   8.836   3.002  13.055
29558SOL     OW90570  10.558  10.874   8.136
29558SOL    HW190571  10.533  10.945   8.195
29558SOL    HW290572  10.630  10.830   8.181
29559SOL     OW90573  12.140  10.381  13.561
29559SOL    HW190574  12.136  10.286  13.566
29559SOL    HW290575  12.181  10.399  13.476
29560SOL     OW90576   3.698   4.565   4.225
29560SOL    HW190577   3.688   4.476   4.259
29560SOL    HW290578   3.668   4.622   4.295
29561SOL     OW90579   2.499   6.274   5.408
29561SOL    HW190580   2.469   6.277   5.499
29561SOL    HW290581   2.450   6.202   5.369
29562SOL     OW90582  11.350  10.001   1.894
29562SOL    HW190583  11.268   9.952   1.897
29562SOL    HW290584  11.341  10.058   1.818
29563SOL     OW90585   6.661   5.676  13.700
29563SOL    HW190586   6.647   5.767  13.724
29563SOL    HW290587   6.588   5.628  13.741
29564SOL     OW90588   7.044   2.957   2.165
29564SOL    HW190589   7.069   2.989   2.251
29564SOL    HW290590   7.095   3.010   2.104
29565SOL     OW90591   3.721   4.069  12.928
29565SOL    HW190592   3.810   4.096  12.908
29565SOL    HW290593   3.666   4.129  12.878
29566SOL     OW90594   0.363  13.845  14.810
29566SOL    HW190595   0.316  13.914  14.763
29566SOL    HW290596   0.302  13.818   0.001
29567SOL     OW90597  12.448   7.345   6.572
29567SOL    HW190598  12.489   7.431   6.575
29567SOL    HW290599  12.519   7.284   6.589
29568SOL     OW90600   7.239  13.293  13.533
29568SOL    HW190601   7.250  13.312  13.626
29568SOL    HW290602   7.147  13.313  13.516
29569SOL     OW90603   7.003   6.299   1.782
29569SOL    HW190604   6.997   6.280   1.876
29569SOL    HW290605   6.973   6.390   1.774
29570SOL     OW90606   7.337   6.469   1.411
29570SOL    HW190607   7.373   6.531   1.475
29570SOL    HW290608   7.278   6.522   1.357
29571SOL     OW90609   6.218  14.852   1.029
29571SOL    HW190610   6.222   0.054   1.082
29571SOL    HW290611   6.296  14.857   0.973
29572SOL     OW90612  14.120   3.584  13.285
29572SOL    HW190613  14.120   3.680  13.289
29572SOL    HW290614  14.115   3.556  13.376
29573SOL     OW90615   2.209   0.811   3.347
29573SOL    HW190616   2.293   0.785   3.384
29573SOL    HW290617   2.215   0.906   3.337
29574SOL     OW90618   8.983  12.219   8.613
29574SOL    HW190619   8.944  12.172   8.686
29574SOL    HW290620   9.056  12.268   8.651
29575SOL     OW90621  11.607  14.188   1.818
29575SOL    HW190622  11.605  14.117   1.754
29575SOL    HW290623  11.697  14.191   1.849
29576SOL     OW90624   0.443   1.446   5.206
29576SOL    HW190625   0.473   1.488   5.286
29576SOL    HW290626   0.360   1.405   5.229
29577SOL     OW90627   0.446   2.500   3.095
29577SOL    HW190628   0.527   2.537   3.059
29577SOL    HW290629   0.433   2.548   3.177
29578SOL     OW90630  14.021   5.546   7.897
29578SOL    HW190631  14.102   5.596   7.909
29578SOL    HW290632  13.956   5.611   7.869
29579SOL     OW90633   7.533   4.375  14.303
29579SOL    HW190634   7.553   4.395  14.395
29579SOL    HW290635   7.504   4.284  14.304
29580SOL     OW90636  11.096   3.118   4.301
29580SOL    HW190637  11.117   3.211   4.295
29580SOL    HW290638  11.136   3.090   4.383
29581SOL     OW90639   9.273  12.033   6.141
29581SOL    HW190640   9.194  12.067   6.100
29581SOL    HW290641   9.295  11.955   6.090
29582SOL     OW90642   7.877   4.764   9.876
29582SOL    HW190643   7.815   4.820   9.922
29582SOL    HW290644   7.846   4.761   9.786
29583SOL     OW90645   1.083   6.346   8.621
29583SOL    HW190646   1.130   6.430   8.618
29583SOL    HW290647   0.991   6.371   8.610
29584SOL     OW90648  13.055  11.774   3.681
29584SOL    HW190649  13.030  11.684   3.661
29584SOL    HW290650  12.973  11.823   3.683
29585SOL     OW90651   4.855   8.128   7.731
29585SOL    HW190652   4.861   8.223   7.742
29585SOL    HW290653   4.944   8.097   7.749
29586SOL     OW90654  14.512  13.642   0.131
29586SOL    HW190655  14.565  13.574   0.090
29586SOL    HW290656  14.425  13.631   0.093
29587SOL     OW90657   9.323   3.859  10.825
29587SOL    HW190658   9.411   3.820  10.825
29587SOL    HW290659   9.275   3.810  10.758
29588SOL     OW90660   7.926   8.580  11.702
29588SOL    HW190661   7.932   8.532  11.620
29588SOL    HW290662   7.941   8.513  11.769
29589SOL     OW90663   2.776   1.401   5.210
29589SOL    HW190664   2.760   1.486   5.169
29589SOL    HW290665   2.689   1.366   5.227
29590SOL     OW90666   3.425   5.255   6.019
29590SOL    HW190667   3.430   5.159   6.026
29590SOL    HW290668   3.429   5.286   6.110
29591SOL     OW90669   9.502  13.539   0.632
29591SOL    HW190670   9.570  13.599   0.600
29591SOL    HW290671   9.550  13.467   0.671
29592SOL     OW90672   6.320   0.552   8.118
29592SOL    HW190673   6.260   0.608   8.069
29592SOL    HW290674   6.327   0.472   8.066
29593SOL     OW90675   8.926   1.999   4.744
29593SOL    HW190676   8.896   1.934   4.682
29593SOL    HW290677   8.938   2.079   4.692
29594SOL     OW90678   3.972   8.493   8.702
29594SOL    HW190679   3.927   8.409   8.693
29594SOL    HW290680   4.022   8.485   8.783
29595SOL     OW90681  14.532  14.837  14.367
29595SOL    HW190682  14.586  14.822  14.289
29595SOL    HW290683  14.575   0.033  14.412
29596SOL     OW90684  10.847   1.054  10.301
29596SOL    HW190685  10.859   0.991  10.372
29596SOL    HW290686  10.794   1.124  10.339
29597SOL     OW90687   5.317   2.360   3.843
29597SOL    HW190688   5.342   2.289   3.784
29597SOL    HW290689   5.375   2.433   3.818
29598SOL     OW90690  12.761   3.601   4.996
29598SOL    HW190691  12.732   3.554   4.917
29598SOL    HW290692  12.706   3.679   4.999
29599SOL     OW90693  14.115   6.369  14.625
29599SOL    HW190694  14.058   6.350  14.551
29599SOL    HW290695  14.201   6.336  14.599
29600SOL     OW90696   4.906  13.822   7.729
29600SOL    HW190697   4.984  13.780   7.691
29600SOL    HW290698   4.833  13.768   7.700
29601SOL     OW90699   3.317   2.330   2.397
29601SOL    HW190700   3.244   2.391   2.401
29601SOL    HW290701   3.313   2.282   2.480
29602SOL     OW90702  13.000   7.430   0.302
29602SOL    HW190703  13.051   7.499   0.258
29602SOL    HW290704  13.018   7.351   0.251
29603SOL     OW90705  12.382  12.759  12.266
29603SOL    HW190706  12.295  12.800  12.262
29603SOL    HW290707  12.388  12.706  12.186
29604SOL     OW90708   9.170  13.228   5.069
29604SOL    HW190709   9.149  13.263   5.155
29604SOL    HW290710   9.264  13.210   5.073
29605SOL     OW90711   8.631   8.442   7.528
29605SOL    HW190712   8.675   8.527   7.539
29605SOL    HW290713   8.676   8.384   7.590
29606SOL     OW90714  11.150  11.505  10.751
29606SOL    HW190715  11.172  11.437  10.815
29606SOL    HW290716  11.233  11.525  10.708
29607SOL     OW90717   6.023   9.967  10.949
29607SOL    HW190718   6.054   9.901  11.010
29607SOL    HW290719   6.102   9.998  10.905
29608SOL     OW90720   4.249  14.335  12.949
29608SOL    HW190721   4.320  14.314  13.010
29608SOL    HW290722   4.171  14.343  13.004
29609SOL     OW90723   4.971   5.717   5.865
29609SOL    HW190724   4.993   5.727   5.957
29609SOL    HW290725   4.911   5.643   5.861
29610SOL     OW90726   1.685   2.531   8.447
29610SOL    HW190727   1.751   2.469   8.478
29610SOL    HW290728   1.688   2.603   8.510
29611SOL     OW90729   3.313  14.423   1.064
29611SOL    HW190730   3.380  14.361   1.093
29611SOL    HW290731   3.318  14.495   1.128
29612SOL     OW90732  14.151   4.410   2.904
29612SOL    HW190733  14.223   4.412   2.967
29612SOL    HW290734  14.184   4.461   2.830
29613SOL     OW90735   3.304   3.891   9.419
29613SOL    HW190736   3.344   3.900   9.505
29613SOL    HW290737   3.277   3.799   9.415
29614SOL     OW90738   5.708   7.720  10.149
29614SOL    HW190739   5.789   7.731  10.100
29614SOL    HW290740   5.642   7.764  10.097
29615SOL     OW90741  11.058  12.757   2.991
29615SOL    HW190742  11.040  12.705   2.912
29615SOL    HW290743  11.152  12.774   2.987
29616SOL     OW90744   8.754   1.142   6.039
29616SOL    HW190745   8.744   1.187   6.123
29616SOL    HW290746   8.690   1.183   5.981
29617SOL     OW90747  13.128  10.585  10.238
29617SOL    HW190748  13.196  10.627  10.290
29617SOL    HW290749  13.152  10.604  10.147
29618SOL     OW90750  12.489  12.869   6.718
29618SOL    HW190751  12.484  12.787   6.767
29618SOL    HW290752  12.408  12.871   6.667
29619SOL     OW90753   3.276   7.787   3.113
29619SOL    HW190754   3.355   7.841   3.119
29619SOL    HW290755   3.213   7.830   3.170
29620SOL     OW90756  11.828  11.758   7.704
29620SOL    HW190757  11.861  11.672   7.676
29620SOL    HW290758  11.887  11.821   7.663
29621SOL     OW90759  13.267   0.359   4.145
29621SOL    HW190760  13.240   0.296   4.212
29621SOL    HW290761  13.239   0.444   4.178
29622SOL     OW90762  13.066   1.522   7.120
29622SOL    HW190763  13.006   1.571   7.064
29622SOL    HW290764  13.013   1.496   7.195
29623SOL     OW90765  11.865   4.067   7.440
29623SOL    HW190766  11.773   4.090   7.428
29623SOL    HW290767  11.899   4.131   7.503
29624SOL     OW90768   6.838  11.610   7.383
29624SOL    HW190769   6.855  11.660   7.303
29624SOL    HW290770   6.813  11.523   7.353
29625SOL     OW90771   1.718  10.949   9.066
29625SOL    HW190772   1.702  10.855   9.076
29625SOL    HW290773   1.651  10.991   9.119
29626SOL     OW90774   5.338   6.372  14.215
29626SOL    HW190775   5.281   6.360  14.140
29626SOL    HW290776   5.426   6.355  14.181
29627SOL     OW90777   4.073   1.329   9.921
29627SOL    HW190778   4.146   1.390   9.917
29627SOL    HW290779   4.052   1.323  10.015
29628SOL     OW90780   2.208  10.954   3.322
29628SOL    HW190781   2.243  11.008   3.393
29628SOL    HW290782   2.235  10.865   3.345
29629SOL     OW90783   3.130   1.372  11.275
29629SOL    HW190784   3.118   1.414  11.360
29629SOL    HW290785   3.088   1.286  11.284
29630SOL     OW90786  14.643  14.551  11.095
29630SOL    HW190787  14.562  14.595  11.070
29630SOL    HW290788  14.622  14.458  11.091
29631SOL     OW90789   3.947   3.837  14.260
29631SOL    HW190790   3.915   3.855  14.349
29631SOL    HW290791   4.021   3.778  14.273
29632SOL     OW90792  10.102   0.343   4.441
29632SOL    HW190793  10.059   0.282   4.501
29632SOL    HW290794  10.195   0.337   4.462
29633SOL     OW90795   7.026  10.694   4.314
29633SOL    HW190796   6.974  10.698   4.394
29633SOL    HW290797   7.106  10.648   4.340
29634SOL     OW90798  11.860   2.636  10.539
29634SOL    HW190799  11.867   2.725  10.503
29634SOL    HW290800  11.868   2.579  10.463
29635SOL     OW90801   9.513   2.619   5.870
29635SOL    HW190802   9.479   2.558   5.805
29635SOL    HW290803   9.541   2.695   5.820
29636SOL     OW90804  12.824   4.351  12.169
29636SOL    HW190805  12.834   4.314  12.257
29636SOL    HW290806  12.732   4.378  12.165
29637SOL     OW90807   9.970   4.128  13.115
29637SOL    HW190808   9.922   4.161  13.039
29637SOL    HW290809  10.056   4.168  13.108
29638SOL     OW90810   2.599   6.221  13.759
29638SOL    HW190811   2.673   6.219  13.819
29638SOL    HW290812   2.629   6.275  13.686
29639SOL     OW90813   1.929   2.313   2.473
29639SOL    HW190814   1.922   2.218   2.484
29639SOL    HW290815   2.022   2.331   2.474
29640SOL     OW90816  13.957   6.605   3.776
29640SOL    HW190817  13.972   6.631   3.867
29640SOL    HW290818  13.862   6.588   3.772
29641SOL     OW90819  12.631   5.227  11.900
29641SOL    HW190820  12.689   5.228  11.823
29641SOL    HW290821  12.580   5.147  11.890
29642SOL     OW90822   0.528  14.598   1.910
29642SOL    HW190823   0.603  14.556   1.868
29642SOL    HW290824   0.516  14.550   1.992
29643SOL     OW90825   8.400   3.148  12.029
29643SOL    HW190826   8.462   3.167  11.958
29643SOL    HW290827   8.380   3.233  12.067
29644SOL     OW90828   1.534  13.632   6.999
29644SOL    HW190829   1.494  13.708   7.040
29644SOL    HW290830   1.514  13.642   6.905
29645SOL     OW90831   2.281  12.035  13.780
29645SOL    HW190832   2.222  12.111  13.780
29645SOL    HW290833   2.283  12.007  13.688
29646SOL     OW90834   5.523   5.680   7.535
29646SOL    HW190835   5.585   5.741   7.572
29646SOL    HW290836   5.575   5.603   7.510
29647SOL     OW90837   0.548  14.152   4.814
29647SOL    HW190838   0.641  14.134   4.796
29647SOL    HW290839   0.500  14.086   4.765
29648SOL     OW90840   1.333   3.345  11.417
29648SOL    HW190841   1.270   3.417  11.421
29648SOL    HW290842   1.414   3.382  11.452
29649SOL     OW90843   3.921   4.426   3.589
29649SOL    HW190844   3.917   4.337   3.625
29649SOL    HW290845   4.015   4.441   3.575
29650SOL     OW90846  11.349  10.615   7.198
29650SOL    HW190847  11.289  10.678   7.238
29650SOL    HW290848  11.307  10.530   7.210
29651SOL     OW90849   6.924   3.343   9.343
29651SOL    HW190850   6.926   3.259   9.389
29651SOL    HW290851   6.834   3.375   9.355
29652SOL     OW90852   9.805  12.786   3.490
29652SOL    HW190853   9.875  12.792   3.555
29652SOL    HW290854   9.774  12.696   3.497
29653SOL     OW90855  10.878   7.791  14.381
29653SOL    HW190856  10.942   7.861  14.369
29653SOL    HW290857  10.922   7.713  14.349
29654SOL     OW90858   0.632   9.339  10.848
29654SOL    HW190859   0.706   9.370  10.900
29654SOL    HW290860   0.600   9.262  10.895
29655SOL     OW90861   6.973   1.231   6.004
29655SOL    HW190862   6.914   1.156   6.010
29655SOL    HW290863   6.936   1.284   5.933
29656SOL     OW90864   8.508   0.081  10.435
29656SOL    HW190865   8.453   0.154  10.463
29656SOL    HW290866   8.581   0.080  10.497
29657SOL     OW90867   4.237   5.716   9.232
29657SOL    HW190868   4.217   5.624   9.247
29657SOL    HW290869   4.213   5.759   9.315
29658SOL     OW90870   2.092   8.159   8.598
29658SOL    HW190871   2.076   8.079   8.547
29658SOL    HW290872   2.165   8.201   8.553
29659SOL     OW90873  11.394  11.933   8.690
29659SOL    HW190874  11.477  11.899   8.721
29659SOL    HW290875  11.390  11.909   8.598
29660SOL     OW90876  14.000  10.858   1.314
29660SOL    HW190877  14.038  10.927   1.368
29660SOL    HW290878  14.070  10.794   1.304
29661SOL     OW90879  11.923   2.749   2.481
29661SOL    HW190880  11.863   2.682   2.514
29661SOL    HW290881  11.974   2.704   2.413
29662SOL     OW90882   5.435   2.699   8.616
29662SOL    HW190883   5.384   2.639   8.561
29662SOL    HW290884   5.523   2.696   8.580
29663SOL     OW90885   5.924   2.910   6.182
29663SOL    HW190886   5.968   2.843   6.235
29663SOL    HW290887   5.845   2.867   6.149
29664SOL     OW90888   3.184  13.496  12.451
29664SOL    HW190889   3.254  13.552  12.486
29664SOL    HW290890   3.118  13.557  12.420
29665SOL     OW90891   2.937  10.562   4.822
29665SOL    HW190892   2.935  10.573   4.727
29665SOL    HW290893   2.850  10.529   4.844
29666SOL     OW90894   4.423  11.828   5.404
29666SOL    HW190895   4.417  11.916   5.441
29666SOL    HW290896   4.466  11.777   5.472
29667SOL     OW90897   9.048   1.400   6.516
29667SOL    HW190898   9.003   1.355   6.444
29667SOL    HW290899   8.996   1.378   6.593
29668SOL     OW90900   7.753   3.015   2.453
29668SOL    HW190901   7.745   3.079   2.524
29668SOL    HW290902   7.733   2.931   2.494
29669SOL     OW90903  14.556   7.009   0.873
29669SOL    HW190904  14.540   6.962   0.955
29669SOL    HW290905  14.482   6.987   0.817
29670SOL     OW90906   2.580   0.025   8.421
29670SOL    HW190907   2.592   0.120   8.415
29670SOL    HW290908   2.486   0.014   8.437
29671SOL     OW90909   9.926   8.087   4.630
29671SOL    HW190910   9.903   8.057   4.718
29671SOL    HW290911   9.893   8.177   4.626
29672SOL     OW90912   2.496  12.070   6.323
29672SOL    HW190913   2.549  12.085   6.246
29672SOL    HW290914   2.473  11.977   6.319
29673SOL     OW90915   3.573  10.394  13.853
29673SOL    HW190916   3.560  10.416  13.945
29673SOL    HW290917   3.578  10.479  13.809
29674SOL     OW90918  11.702   4.675   2.616
29674SOL    HW190919  11.664   4.633   2.539
29674SOL    HW290920  11.795   4.653   2.612
29675SOL     OW90921  13.163   7.052   8.187
29675SOL    HW190922  13.227   7.072   8.255
29675SOL    HW290923  13.081   7.038   8.235
29676SOL     OW90924  10.799   6.612   6.637
29676SOL    HW190925  10.860   6.684   6.619
29676SOL    HW290926  10.727   6.625   6.575
29677SOL     OW90927   5.763   1.203   5.498
29677SOL    HW190928   5.846   1.215   5.546
29677SOL    HW290929   5.698   1.249   5.551
29678SOL     OW90930   9.692   5.427  14.227
29678SOL    HW190931   9.758   5.388  14.284
29678SOL    HW290932   9.732   5.430  14.141
29679SOL     OW90933  14.424   8.424   5.587
29679SOL    HW190934  14.481   8.464   5.522
29679SOL    HW290935  14.351   8.387   5.536
29680SOL     OW90936   9.607  14.654   3.238
29680SOL    HW190937   9.690  14.696   3.263
29680SOL    HW290938   9.628  14.605   3.159
29681SOL     OW90939   8.734   9.195   4.544
29681SOL    HW190940   8.764   9.262   4.606
29681SOL    HW290941   8.646   9.224   4.519
29682SOL     OW90942  10.203  12.945   0.753
29682SOL    HW190943  10.197  12.968   0.846
29682SOL    HW290944  10.236  12.855   0.753
29683SOL     OW90945  13.645  11.285  12.814
29683SOL    HW190946  13.587  11.245  12.879
29683SOL    HW290947  13.638  11.379  12.830
29684SOL     OW90948   2.827   9.676   8.830
29684SOL    HW190949   2.837   9.602   8.890
29684SOL    HW290950   2.812   9.751   8.886
29685SOL     OW90951   0.048   4.701   0.822
29685SOL    HW190952   0.007   4.723   0.906
29685SOL    HW290953   0.122   4.761   0.815
29686SOL     OW90954  12.966   4.599   0.049
29686SOL    HW190955  13.040   4.660   0.043
29686SOL    HW290956  12.889   4.655   0.052
29687SOL     OW90957  13.937   0.398   9.922
29687SOL    HW190958  13.880   0.388   9.846
29687SOL    HW290959  13.957   0.491   9.925
29688SOL     OW90960   8.946   1.899   9.186
29688SOL    HW190961   8.907   1.980   9.154
29688SOL    HW290962   8.872   1.846   9.214
29689SOL     OW90963   0.476  11.170   9.089
29689SOL    HW190964   0.404  11.171   9.025
29689SOL    HW290965   0.537  11.105   9.054
29690SOL     OW90966  13.071   2.865   7.913
29690SOL    HW190967  13.141   2.897   7.969
29690SOL    HW290968  13.115   2.807   7.851
29691SOL     OW90969   4.903   0.034   8.772
29691SOL    HW190970   4.848  14.833   8.765
29691SOL    HW290971   4.955   0.033   8.692
29692SOL     OW90972  12.526   5.294   4.425
29692SOL    HW190973  12.546   5.266   4.514
29692SOL    HW290974  12.597   5.258   4.372
29693SOL     OW90975  12.824  14.393   6.038
29693SOL    HW190976  12.907  14.419   5.997
29693SOL    HW290977  12.840  14.304   6.069
29694SOL     OW90978   2.735  14.591   3.206
29694SOL    HW190979   2.742  14.565   3.114
29694SOL    HW290980   2.689  14.518   3.248
29695SOL     OW90981   8.748   7.740   9.470
29695SOL    HW190982   8.786   7.735   9.382
29695SOL    HW290983   8.664   7.696   9.463
29696SOL     OW90984   4.507   8.926  13.614
29696SOL    HW190985   4.465   8.886  13.690
29696SOL    HW290986   4.439   8.927  13.547
29697SOL     OW90987   8.705   1.809   9.273
29697SOL    HW190988   8.696   1.738   9.337
29697SOL    HW290989   8.615   1.841   9.261
29698SOL     OW90990   2.459   0.921   1.427
29698SOL    HW190991   2.444   0.918   1.521
29698SOL    HW290992   2.461   1.014   1.406
29699SOL     OW90993   0.532   4.313   1.571
29699SOL    HW190994   0.590   4.285   1.642
29699SOL    HW290995   0.480   4.384   1.609
29700SOL     OW90996  10.431   0.666   5.254
29700SOL    HW190997  10.400   0.576   5.262
29700SOL    HW290998  10.352   0.719   5.264
29701SOL     OW90999   7.421   0.569   3.235
29701SOL    HW191000   7.407   0.576   3.141
29701SOL    HW291001   7.342   0.606   3.275
29702SOL     OW91002   3.002   3.951  10.021
29702SOL    HW191003   2.924   3.934  10.074
29702SOL    HW291004   3.075   3.934  10.081
29703SOL     OW91005   5.128   7.493   2.103
29703SOL    HW191006   5.211   7.533   2.076
29703SOL    HW291007   5.064   7.527   2.040
29704SOL     OW91008   6.399  12.588  13.140
29704SOL    HW191009   6.467  12.533  13.102
29704SOL    HW291010   6.444  12.668  13.166
29705SOL     OW91011  12.069   8.135  11.746
29705SOL    HW191012  12.027   8.074  11.806
29705SOL    HW291013  12.011   8.211  11.744
29706SOL     OW91014  13.967   6.258   3.292
29706SOL    HW191015  13.873   6.275   3.292
29706SOL    HW291016  14.007   6.345   3.299
29707SOL     OW91017   8.546  12.213   6.550
29707SOL    HW191018   8.609  12.205   6.621
29707SOL    HW291019   8.463  12.233   6.593
29708SOL     OW91020   7.012  10.765   2.692
29708SOL    HW191021   7.051  10.834   2.745
29708SOL    HW291022   7.028  10.791   2.601
29709SOL     OW91023   1.117   9.767  13.566
29709SOL    HW191024   1.070   9.684  13.574
29709SOL    HW291025   1.172   9.771  13.644
29710SOL     OW91026   4.030   7.101   2.085
29710SOL    HW191027   3.974   7.082   2.161
29710SOL    HW291028   4.101   7.038   2.092
29711SOL     OW91029   2.463   3.570  10.583
29711SOL    HW191030   2.486   3.663  10.582
29711SOL    HW291031   2.390   3.565  10.644
29712SOL     OW91032   8.335   3.697  13.050
29712SOL    HW191033   8.345   3.609  13.013
29712SOL    HW291034   8.383   3.754  12.989
29713SOL     OW91035   1.281   2.176   9.551
29713SOL    HW191036   1.337   2.100   9.533
29713SOL    HW291037   1.254   2.164   9.642
29714SOL     OW91038   3.778   7.414   7.374
29714SOL    HW191039   3.848   7.351   7.355
29714SOL    HW291040   3.711   7.363   7.420
29715SOL     OW91041   9.871  12.577  13.986
29715SOL    HW191042   9.886  12.550  13.896
29715SOL    HW291043   9.889  12.671  13.987
29716SOL     OW91044   7.936   2.894   0.094
29716SOL    HW191045   7.970   2.837   0.026
29716SOL    HW291046   7.885   2.960   0.048
29717SOL     OW91047   6.031  12.955   6.126
29717SOL    HW191048   6.033  13.004   6.207
29717SOL    HW291049   6.016  13.020   6.058
29718SOL     OW91050   1.731  13.907   4.360
29718SOL    HW191051   1.736  13.975   4.427
29718SOL    HW291052   1.822  13.885   4.341
29719SOL     OW91053  13.964   2.853   0.151
29719SOL    HW191054  14.030   2.907   0.107
29719SOL    HW291055  13.901   2.915   0.186
29720SOL     OW91056  13.767   4.467   3.405
29720SOL    HW191057  13.757   4.505   3.493
29720SOL    HW291058  13.701   4.398   3.401
29721SOL     OW91059  13.123   2.216   7.315
29721SOL    HW191060  13.097   2.196   7.225
29721SOL    HW291061  13.126   2.130   7.358
29722SOL     OW91062   5.492   4.759   7.197
29722SOL    HW191063   5.482   4.749   7.103
29722SOL    HW291064   5.569   4.815   7.208
29723SOL     OW91065   0.862   2.234   2.201
29723SOL    HW191066   0.786   2.202   2.154
29723SOL    HW291067   0.833   2.240   2.292
29724SOL     OW91068   3.946   6.005   1.526
29724SOL    HW191069   3.889   5.949   1.474
29724SOL    HW291070   3.890   6.039   1.596
29725SOL     OW91071   4.379  12.629   1.701
29725SOL    HW191072   4.391  12.704   1.760
29725SOL    HW291073   4.406  12.553   1.753
29726SOL     OW91074  11.539  13.385   4.609
29726SOL    HW191075  11.527  13.453   4.674
29726SOL    HW291076  11.582  13.429   4.535
29727SOL     OW91077  11.381   3.710  13.660
29727SOL    HW191078  11.422   3.796  13.673
29727SOL    HW291079  11.287   3.726  13.667
29728SOL     OW91080   0.571   2.229  11.046
29728SOL    HW191081   0.626   2.159  11.082
29728SOL    HW291082   0.627   2.271  10.980
29729SOL     OW91083  12.153   3.498   6.800
29729SOL    HW191084  12.097   3.421   6.787
29729SOL    HW291085  12.205   3.476   6.877
29730SOL     OW91086   1.727   7.086   4.527
29730SOL    HW191087   1.680   7.165   4.552
29730SOL    HW291088   1.660   7.018   4.523
29731SOL     OW91089   7.652   3.333  12.432
29731SOL    HW191090   7.717   3.400  12.414
29731SOL    HW291091   7.606   3.363  12.511
29732SOL     OW91092  11.734  14.724   9.633
29732SOL    HW191093  11.818  14.768   9.647
29732SOL    HW291094  11.672  14.795   9.617
29733SOL     OW91095   8.431  10.183   6.000
29733SOL    HW191096   8.401  10.140   6.080
29733SOL    HW291097   8.353  10.185   5.944
29734SOL     OW91098  12.382   1.478  13.922
29734SOL    HW191099  12.364   1.568  13.951
29734SOL    HW291100  12.453   1.449  13.980
29735SOL     OW91101  12.267   7.806  10.406
29735SOL    HW191102  12.222   7.875  10.453
29735SOL    HW291103  12.222   7.800  10.321
29736SOL     OW91104  14.379  11.471  14.095
29736SOL    HW191105  14.339  11.431  14.018
29736SOL    HW291106  14.470  11.485  14.070
29737SOL     OW91107   5.321   8.088   0.292
29737SOL    HW191108   5.318   7.992   0.295
29737SOL    HW291109   5.328   8.115   0.383
29738SOL     OW91110   4.058   2.777  10.092
29738SOL    HW191111   4.105   2.860  10.099
29738SOL    HW291112   3.995   2.778  10.163
29739SOL     OW91113   8.738   7.633   4.202
29739SOL    HW191114   8.805   7.573   4.235
29739SOL    HW291115   8.736   7.617   4.107
29740SOL     OW91116   0.518   6.202   8.465
29740SOL    HW191117   0.606   6.179   8.437
29740SOL    HW291118   0.520   6.196   8.560
29741SOL     OW91119   2.698   9.281  10.515
29741SOL    HW191120   2.649   9.316  10.589
29741SOL    HW291121   2.679   9.341  10.443
29742SOL     OW91122   4.932   7.608   6.003
29742SOL    HW191123   4.951   7.658   6.082
29742SOL    HW291124   5.018   7.592   5.963
29743SOL     OW91125  12.467   3.314  10.751
29743SOL    HW191126  12.498   3.262  10.825
29743SOL    HW291127  12.372   3.312  10.758
29744SOL     OW91128   4.931   5.350  10.100
29744SOL    HW191129   4.920   5.303  10.017
29744SOL    HW291130   4.844   5.347  10.141
29745SOL     OW91131  14.334   6.615   4.404
29745SOL    HW191132  14.390   6.634   4.479
29745SOL    HW291133  14.371   6.536   4.365
29746SOL     OW91134  11.486   8.497   5.068
29746SOL    HW191135  11.516   8.426   5.010
29746SOL    HW291136  11.395   8.475   5.088
29747SOL     OW91137   3.829   0.183   9.208
29747SOL    HW191138   3.886   0.254   9.179
29747SOL    HW291139   3.865   0.156   9.293
29748SOL     OW91140  14.436   2.925   8.153
29748SOL    HW191141  14.387   2.939   8.234
29748SOL    HW291142  14.416   2.834   8.129
29749SOL     OW91143   9.206   8.809   6.076
29749SOL    HW191144   9.112   8.813   6.097
29749SOL    HW291145   9.218   8.721   6.040
29750SOL     OW91146   5.668   9.530  10.529
29750SOL    HW191147   5.690   9.551  10.620
29750SOL    HW291148   5.743   9.480  10.497
29751SOL     OW91149   9.304  11.697  11.591
29751SOL    HW191150   9.238  11.744  11.540
29751SOL    HW291151   9.382  11.753  11.586
29752SOL     OW91152  11.140  13.129   1.234
29752SOL    HW191153  11.059  13.080   1.218
29752SOL    HW291154  11.172  13.095   1.318
29753SOL     OW91155   1.268  12.907  13.938
29753SOL    HW191156   1.359  12.923  13.962
29753SOL    HW291157   1.263  12.813  13.923
29754SOL     OW91158   6.836   3.960  13.390
29754SOL    HW191159   6.870   3.987  13.305
29754SOL    HW291160   6.762   4.019  13.406
29755SOL     OW91161   3.063  12.898   4.409
29755SOL    HW191162   2.989  12.939   4.453
29755SOL    HW291163   3.134  12.904   4.473
29756SOL     OW91164   4.514   6.556   7.965
29756SOL    HW191165   4.420   6.540   7.975
29756SOL    HW291166   4.543   6.582   8.052
29757SOL     OW91167   2.765   1.627   4.371
29757SOL    HW191168   2.836   1.684   4.339
29757SOL    HW291169   2.695   1.638   4.308
29758SOL     OW91170   3.683  13.706   9.402
29758SOL    HW191171   3.698  13.634   9.341
29758SOL    HW291172   3.771  13.731   9.431
29759SOL     OW91173   3.397   2.440   8.845
29759SOL    HW191174   3.321   2.453   8.902
29759SOL    HW291175   3.362   2.444   8.756
29760SOL     OW91176  13.864   8.902  14.449
29760SOL    HW191177  13.814   8.855  14.382
29760SOL    HW291178  13.826   8.873  14.532
29761SOL     OW91179   5.635   0.634   2.987
29761SOL    HW191180   5.654   0.724   2.960
29761SOL    HW291181   5.647   0.634   3.082
29762SOL     OW91182   6.439  14.646   4.562
29762SOL    HW191183   6.363  14.696   4.533
29762SOL    HW291184   6.415  14.613   4.648
29763SOL     OW91185   5.287  13.586   4.339
29763SOL    HW191186   5.292  13.653   4.408
29763SOL    HW291187   5.193  13.576   4.322
29764SOL     OW91188   7.532   2.594  14.068
29764SOL    HW191189   7.550   2.656  13.997
29764SOL    HW291190   7.447   2.557  14.046
29765SOL     OW91191   6.440   7.312   1.293
29765SOL    HW191192   6.513   7.344   1.347
29765SOL    HW291193   6.480   7.296   1.207
29766SOL     OW91194   7.993  13.477   3.335
29766SOL    HW191195   7.965  13.563   3.366
29766SOL    HW291196   7.958  13.416   3.400
29767SOL     OW91197  11.838   2.580  14.003
29767SOL    HW191198  11.843   2.486  13.985
29767SOL    HW291199  11.864   2.621  13.920
29768SOL     OW91200  10.529   2.651   6.289
29768SOL    HW191201  10.449   2.630   6.240
29768SOL    HW291202  10.498   2.677   6.375
29769SOL     OW91203   2.543   1.990   0.498
29769SOL    HW191204   2.588   2.048   0.560
29769SOL    HW291205   2.611   1.964   0.436
29770SOL     OW91206   1.528   4.717   9.233
29770SOL    HW191207   1.621   4.702   9.216
29770SOL    HW291208   1.520   4.813   9.240
29771SOL     OW91209  10.279   3.301   9.926
29771SOL    HW191210  10.242   3.218   9.895
29771SOL    HW291211  10.285   3.356   9.848
29772SOL     OW91212   6.621   2.982   1.397
29772SOL    HW191213   6.624   2.980   1.302
29772SOL    HW291214   6.699   2.933   1.425
29773SOL     OW91215  14.621   1.789   3.720
29773SOL    HW191216  14.705   1.834   3.709
29773SOL    HW291217  14.574   1.804   3.638
29774SOL     OW91218   2.497   6.028   6.892
29774SOL    HW191219   2.525   6.055   6.979
29774SOL    HW291220   2.527   6.099   6.834
29775SOL     OW91221  11.603   7.031  13.776
29775SOL    HW191222  11.686   7.072  13.801
29775SOL    HW291223  11.542   7.056  13.845
29776SOL     OW91224   9.954   4.351  13.405
29776SOL    HW191225   9.977   4.436  13.442
29776SOL    HW291226   9.858   4.352  13.402
29777SOL     OW91227   1.836   8.532   0.391
29777SOL    HW191228   1.813   8.487   0.310
29777SOL    HW291229   1.792   8.617   0.385
29778SOL     OW91230   8.762  10.150  14.272
29778SOL    HW191231   8.768  10.121  14.181
29778SOL    HW291232   8.852  10.159  14.300
29779SOL     OW91233   1.659   2.841  14.359
29779SOL    HW191234   1.730   2.783  14.387
29779SOL    HW291235   1.701   2.904  14.301
29780SOL     OW91236   2.191   0.670   0.246
29780SOL    HW191237   2.221   0.594   0.197
29780SOL    HW291238   2.271   0.708   0.283
29781SOL     OW91239  14.080   3.321  12.840
29781SOL    HW191240  14.114   3.394  12.788
29781SOL    HW291241  13.988   3.342  12.854
29782SOL     OW91242   3.029   9.718   2.793
29782SOL    HW191243   3.047   9.653   2.862
29782SOL    HW291244   3.043   9.670   2.711
29783SOL     OW91245  14.011   0.976   9.430
29783SOL    HW191246  13.987   0.950   9.519
29783SOL    HW291247  13.967   1.060   9.418
29784SOL     OW91248   1.838   4.860   9.262
29784SOL    HW191249   1.933   4.851   9.265
29784SOL    HW291250   1.814   4.840   9.172
29785SOL     OW91251   9.648   2.193  10.673
29785SOL    HW191252   9.618   2.239  10.595
29785SOL    HW291253   9.683   2.110  10.639
29786SOL     OW91254   2.016   4.148   4.722
29786SOL    HW191255   1.953   4.080   4.748
29786SOL    HW291256   2.100   4.116   4.754
29787SOL     OW91257   2.141   5.061  12.103
29787SOL    HW191258   2.063   5.008  12.121
29787SOL    HW291259   2.128   5.092  12.013
29788SOL     OW91260  11.482   2.403  11.330
29788SOL    HW191261  11.491   2.312  11.301
29788SOL    HW291262  11.432   2.445  11.259
29789SOL     OW91263   0.703   0.442   7.298
29789SOL    HW191264   0.628   0.479   7.251
29789SOL    HW291265   0.778   0.459   7.241
29790SOL     OW91266   2.821   3.475  12.259
29790SOL    HW191267   2.744   3.445  12.211
29790SOL    HW291268   2.855   3.396  12.302
29791SOL     OW91269   6.514  10.721   2.235
29791SOL    HW191270   6.523  10.812   2.204
29791SOL    HW291271   6.457  10.727   2.311
29792SOL     OW91272   1.511   0.388  12.083
29792SOL    HW191273   1.596   0.402  12.042
29792SOL    HW291274   1.474   0.476  12.092
29793SOL     OW91275   9.006  13.417   3.941
29793SOL    HW191276   9.073  13.437   4.006
29793SOL    HW291277   8.979  13.327   3.961
29794SOL     OW91278  12.460   5.991   0.940
29794SOL    HW191279  12.391   6.002   0.873
29794SOL    HW291280  12.487   5.900   0.932
29795SOL     OW91281   2.988   2.054   4.615
29795SOL    HW191282   2.941   2.005   4.682
29795SOL    HW291283   2.920   2.080   4.553
29796SOL     OW91284   1.513   7.766   2.189
29796SOL    HW191285   1.441   7.767   2.252
29796SOL    HW291286   1.570   7.838   2.217
29797SOL     OW91287   6.989   9.782   8.985
29797SOL    HW191288   7.003   9.709   8.924
29797SOL    HW291289   6.970   9.741   9.069
29798SOL     OW91290   9.609  13.748   2.392
29798SOL    HW191291   9.633  13.717   2.304
29798SOL    HW291292   9.672  13.818   2.410
29799SOL     OW91293   8.265   2.321  14.089
29799SOL    HW191294   8.301   2.234  14.074
29799SOL    HW291295   8.222   2.316  14.174
29800SOL     OW91296  12.012  10.056   4.789
29800SOL    HW191297  12.005  10.149   4.811
29800SOL    HW291298  12.024  10.054   4.694
29801SOL     OW91299   3.539  14.328  11.754
29801SOL    HW191300   3.580  14.389  11.814
29801SOL    HW291301   3.610  14.271  11.725
29802SOL     OW91302  13.272   2.497   6.465
29802SOL    HW191303  13.281   2.578   6.514
29802SOL    HW291304  13.352   2.490   6.414
29803SOL     OW91305   9.932  11.681  11.695
29803SOL    HW191306   9.930  11.707  11.603
29803SOL    HW291307  10.024  11.690  11.720
29804SOL     OW91308   6.812   7.849  10.688
29804SOL    HW191309   6.773   7.906  10.754
29804SOL    HW291310   6.884   7.805  10.733
29805SOL     OW91311   5.007  12.368  12.631
29805SOL    HW191312   5.037  12.398  12.717
29805SOL    HW291313   4.995  12.274  12.641
29806SOL     OW91314  11.812   6.199  11.783
29806SOL    HW191315  11.860   6.203  11.866
29806SOL    HW291316  11.773   6.286  11.774
29807SOL     OW91317   4.721   7.779   3.722
29807SOL    HW191318   4.750   7.776   3.814
29807SOL    HW291319   4.787   7.833   3.678
29808SOL     OW91320   5.867   2.344  11.759
29808SOL    HW191321   5.772   2.333  11.764
29808SOL    HW291322   5.901   2.255  11.763
29809SOL     OW91323   1.274   6.332   5.289
29809SOL    HW191324   1.281   6.240   5.264
29809SOL    HW291325   1.355   6.350   5.336
29810SOL     OW91326  13.643  10.376  12.349
29810SOL    HW191327  13.589  10.339  12.280
29810SOL    HW291328  13.593  10.360  12.429
29811SOL     OW91329   2.387  12.500   8.424
29811SOL    HW191330   2.408  12.593   8.421
29811SOL    HW291331   2.291  12.497   8.418
29812SOL     OW91332  14.146   7.718  11.701
29812SOL    HW191333  14.184   7.659  11.766
29812SOL    HW291334  14.066   7.751  11.742
29813SOL     OW91335   7.450   9.833   4.023
29813SOL    HW191336   7.425   9.776   4.095
29813SOL    HW291337   7.521   9.787   3.979
29814SOL     OW91338   9.286  10.585   3.081
29814SOL    HW191339   9.331  10.580   2.996
29814SOL    HW291340   9.228  10.509   3.082
29815SOL     OW91341   5.507  12.916   2.582
29815SOL    HW191342   5.417  12.907   2.615
29815SOL    HW291343   5.549  12.833   2.604
29816SOL     OW91344  11.969  13.380   3.285
29816SOL    HW191345  11.877  13.404   3.273
29816SOL    HW291346  11.994  13.423   3.367
29817SOL     OW91347  14.708   5.479  12.594
29817SOL    HW191348  14.754   5.519  12.520
29817SOL    HW291349  14.701   5.549  12.658
29818SOL     OW91350   6.417   1.066   0.417
29818SOL    HW191351   6.467   0.987   0.438
29818SOL    HW291352   6.462   1.102   0.340
29819SOL     OW91353  13.051  12.557   1.374
29819SOL    HW191354  13.006  12.486   1.419
29819SOL    HW291355  12.997  12.575   1.297
29820SOL     OW91356   9.857  10.606   1.134
29820SOL    HW191357   9.785  10.645   1.085
29820SOL    HW291358   9.815  10.547   1.197
29821SOL     OW91359   2.499   0.031   7.794
29821SOL    HW191360   2.539   0.110   7.758
29821SOL    HW291361   2.502   0.044   7.889
29822SOL     OW91362   2.384   0.817   3.814
29822SOL    HW191363   2.398   0.904   3.776
29822SOL    HW291364   2.449   0.762   3.770
29823SOL     OW91365  14.603  11.657   4.683
29823SOL    HW191366  14.555  11.597   4.626
29823SOL    HW291367  14.654  11.711   4.623
29824SOL     OW91368   6.889  14.268  12.502
29824SOL    HW191369   6.929  14.353  12.484
29824SOL    HW291370   6.948  14.204  12.463
29825SOL     OW91371  14.181   2.953  10.414
29825SOL    HW191372  14.204   2.866  10.382
29825SOL    HW291373  14.132   2.993  10.343
29826SOL     OW91374  13.058  12.643   0.963
29826SOL    HW191375  13.043  12.554   0.930
29826SOL    HW291376  13.149  12.662   0.940
29827SOL     OW91377  11.880  14.004   7.689
29827SOL    HW191378  11.827  13.928   7.715
29827SOL    HW291379  11.817  14.075   7.679
29828SOL     OW91380   0.756   0.206  12.231
29828SOL    HW191381   0.845   0.202  12.197
29828SOL    HW291382   0.752   0.289  12.278
29829SOL     OW91383  11.601   1.799   6.408
29829SOL    HW191384  11.628   1.890   6.421
29829SOL    HW291385  11.508   1.799   6.430
29830SOL     OW91386   3.958  10.684   7.151
29830SOL    HW191387   3.972  10.589   7.151
29830SOL    HW291388   3.926  10.703   7.239
29831SOL     OW91389   6.271   4.412   7.401
29831SOL    HW191390   6.312   4.364   7.328
29831SOL    HW291391   6.191   4.362   7.420
29832SOL     OW91392   8.428  13.470   2.402
29832SOL    HW191393   8.504  13.475   2.344
29832SOL    HW291394   8.356  13.507   2.351
29833SOL     OW91395   8.084  13.600  12.690
29833SOL    HW191396   8.079  13.546  12.769
29833SOL    HW291397   7.995  13.633  12.678
29834SOL     OW91398   7.317   2.075   3.743
29834SOL    HW191399   7.391   2.119   3.784
29834SOL    HW291400   7.259   2.147   3.716
29835SOL     OW91401  11.774   5.303   4.630
29835SOL    HW191402  11.863   5.334   4.615
29835SOL    HW291403  11.718   5.368   4.588
29836SOL     OW91404  11.940  12.323   0.556
29836SOL    HW191405  12.010  12.273   0.598
29836SOL    HW291406  11.984  12.372   0.487
29837SOL     OW91407  10.002  11.611   7.983
29837SOL    HW191408  10.080  11.582   8.031
29837SOL    HW291409  10.036  11.638   7.897
29838SOL     OW91410   0.214   7.033  12.263
29838SOL    HW191411   0.240   6.997  12.178
29838SOL    HW291412   0.259   6.979  12.328
29839SOL     OW91413   6.715  11.440  12.208
29839SOL    HW191414   6.801  11.405  12.230
29839SOL    HW291415   6.677  11.466  12.292
29840SOL     OW91416   9.382   5.272   3.909
29840SOL    HW191417   9.292   5.254   3.936
29840SOL    HW291418   9.399   5.362   3.940
29841SOL     OW91419   1.540   4.509   7.646
29841SOL    HW191420   1.570   4.537   7.559
29841SOL    HW291421   1.473   4.442   7.627
29842SOL     OW91422   4.908   2.535   4.004
29842SOL    HW191423   4.959   2.462   4.041
29842SOL    HW291424   4.973   2.588   3.958
29843SOL     OW91425  14.590   2.331   8.159
29843SOL    HW191426  14.604   2.262   8.223
29843SOL    HW291427  14.600   2.412   8.208
29844SOL     OW91428  13.811  11.412   5.339
29844SOL    HW191429  13.763  11.407   5.257
29844SOL    HW291430  13.845  11.324   5.353
29845SOL     OW91431   1.396   0.399   2.126
29845SOL    HW191432   1.331   0.333   2.102
29845SOL    HW291433   1.388   0.407   2.221
29846SOL     OW91434   8.399   2.565   0.772
29846SOL    HW191435   8.362   2.478   0.781
29846SOL    HW291436   8.390   2.586   0.679
29847SOL     OW91437   3.466  11.609  11.369
29847SOL    HW191438   3.371  11.617  11.368
29847SOL    HW291439   3.485  11.545  11.300
29848SOL     OW91440   3.540  13.723  13.313
29848SOL    HW191441   3.478  13.666  13.267
29848SOL    HW291442   3.527  13.809  13.273
29849SOL     OW91443   4.562   6.527   8.966
29849SOL    HW191444   4.549   6.480   9.049
29849SOL    HW291445   4.491   6.496   8.910
29850SOL     OW91446   3.578  14.401   9.095
29850SOL    HW191447   3.665  14.443   9.095
29850SOL    HW291448   3.581  14.340   9.169
29851SOL     OW91449   4.375  10.614   0.552
29851SOL    HW191450   4.352  10.599   0.461
29851SOL    HW291451   4.381  10.709   0.560
29852SOL     OW91452   6.740   6.563  13.892
29852SOL    HW191453   6.776   6.552  13.980
29852SOL    HW291454   6.715   6.655  13.887
29853SOL     OW91455   1.488   1.810  14.554
29853SOL    HW191456   1.468   1.816  14.461
29853SOL    HW291457   1.438   1.882  14.594
29854SOL     OW91458   4.817   4.982   6.201
29854SOL    HW191459   4.800   5.050   6.135
29854SOL    HW291460   4.757   4.911   6.178
29855SOL     OW91461  12.236   0.549   8.613
29855SOL    HW191462  12.158   0.604   8.608
29855SOL    HW291463  12.305   0.603   8.575
29856SOL     OW91464   5.236   5.744   0.320
29856SOL    HW191465   5.298   5.733   0.392
29856SOL    HW291466   5.194   5.828   0.337
29857SOL     OW91467  12.750   6.750   5.293
29857SOL    HW191468  12.807   6.679   5.264
29857SOL    HW291469  12.798   6.793   5.364
29858SOL     OW91470   2.180   9.924   7.674
29858SOL    HW191471   2.195   9.843   7.722
29858SOL    HW291472   2.233   9.989   7.720
29859SOL     OW91473   1.131  12.619   2.868
29859SOL    HW191474   1.052  12.674   2.868
29859SOL    HW291475   1.098  12.529   2.869
29860SOL     OW91476   7.483  12.468   1.425
29860SOL    HW191477   7.436  12.438   1.347
29860SOL    HW291478   7.432  12.432   1.498
29861SOL     OW91479   5.686   3.499   6.915
29861SOL    HW191480   5.619   3.437   6.885
29861SOL    HW291481   5.636   3.573   6.949
29862SOL     OW91482   2.559   8.931   7.357
29862SOL    HW191483   2.557   8.869   7.430
29862SOL    HW291484   2.530   9.014   7.394
29863SOL     OW91485   9.293   2.391  10.774
29863SOL    HW191486   9.203   2.418  10.791
29863SOL    HW291487   9.321   2.443  10.699
29864SOL     OW91488  12.731   8.535   1.519
29864SOL    HW191489  12.727   8.513   1.612
29864SOL    HW291490  12.691   8.459   1.475
29865SOL     OW91491   7.404   4.002   2.695
29865SOL    HW191492   7.434   3.929   2.641
29865SOL    HW291493   7.380   4.071   2.632
29866SOL     OW91494   3.891  11.488   3.856
29866SOL    HW191495   3.906  11.434   3.778
29866SOL    HW291496   3.927  11.437   3.928
29867SOL     OW91497   2.094   5.449   6.200
29867SOL    HW191498   2.171   5.404   6.234
29867SOL    HW291499   2.020   5.398   6.231
29868SOL     OW91500   2.490   6.607   3.837
29868SOL    HW191501   2.535   6.575   3.759
29868SOL    HW291502   2.401   6.626   3.806
29869SOL     OW91503  10.954   9.831  13.823
29869SOL    HW191504  11.014   9.824  13.898
29869SOL    HW291505  10.878   9.779  13.849
29870SOL     OW91506  10.231  10.676  10.770
29870SOL    HW191507  10.151  10.629  10.745
29870SOL    HW291508  10.256  10.723  10.691
29871SOL     OW91509  11.079   6.088  10.366
29871SOL    HW191510  11.017   6.029  10.409
29871SOL    HW291511  11.111   6.039  10.290
29872SOL     OW91512   5.355   8.005  13.419
29872SOL    HW191513   5.383   8.058  13.495
29872SOL    HW291514   5.433   8.002  13.363
29873SOL     OW91515  11.419  14.346   6.941
29873SOL    HW191516  11.494  14.391   6.978
29873SOL    HW291517  11.343  14.391   6.978
29874SOL     OW91518  14.519  12.657  11.547
29874SOL    HW191519  14.571  12.605  11.608
29874SOL    HW291520  14.575  12.668  11.470
29875SOL     OW91521   2.607   5.589   2.693
29875SOL    HW191522   2.556   5.561   2.617
29875SOL    HW291523   2.543   5.630   2.751
29876SOL     OW91524  10.236   7.324  11.347
29876SOL    HW191525  10.320   7.340  11.390
29876SOL    HW291526  10.253   7.251  11.287
29877SOL     OW91527   9.765   2.592   4.474
29877SOL    HW191528   9.764   2.637   4.390
29877SOL    HW291529   9.809   2.652   4.533
29878SOL     OW91530  13.063   6.849  12.224
29878SOL    HW191531  13.137   6.858  12.164
29878SOL    HW291532  13.032   6.760  12.211
29879SOL     OW91533   7.046   0.387  11.476
29879SOL    HW191534   6.973   0.387  11.414
29879SOL    HW291535   7.010   0.425  11.556
29880SOL     OW91536  10.322   9.151  11.370
29880SOL    HW191537  10.236   9.142  11.411
29880SOL    HW291538  10.368   9.071  11.394
29881SOL     OW91539   1.827   1.653   3.745
29881SOL    HW191540   1.916   1.662   3.711
29881SOL    HW291541   1.839   1.635   3.838
29882SOL     OW91542   3.570   7.415   0.430
29882SOL    HW191543   3.515   7.365   0.370
29882SOL    HW291544   3.641   7.448   0.376
29883SOL     OW91545  12.807   5.349  12.412
29883SOL    HW191546  12.724   5.333  12.457
29883SOL    HW291547  12.805   5.290  12.336
29884SOL     OW91548   3.130   4.054  11.548
29884SOL    HW191549   3.146   3.961  11.566
29884SOL    HW291550   3.076   4.055  11.469
29885SOL     OW91551   4.068   4.677  11.932
29885SOL    HW191552   4.117   4.622  11.993
29885SOL    HW291553   4.003   4.619  11.893
29886SOL     OW91554   9.038  11.949   2.091
29886SOL    HW191555   9.019  11.907   2.175
29886SOL    HW291556   9.132  11.937   2.079
29887SOL     OW91557   1.641   1.405   7.272
29887SOL    HW191558   1.631   1.485   7.324
29887SOL    HW291559   1.555   1.392   7.231
29888SOL     OW91560  10.926  11.315  13.631
29888SOL    HW191561  10.893  11.405  13.631
29888SOL    HW291562  10.918  11.286  13.540
29889SOL     OW91563  13.666  10.675   5.977
29889SOL    HW191564  13.592  10.651   6.033
29889SOL    HW291565  13.715  10.593   5.965
29890SOL     OW91566   0.334   6.758  11.977
29890SOL    HW191567   0.303   6.713  12.055
29890SOL    HW291568   0.285   6.840  11.975
29891SOL     OW91569   6.793  10.375  11.140
29891SOL    HW191570   6.740  10.411  11.211
29891SOL    HW291571   6.882  10.374  11.175
29892SOL     OW91572   4.127   4.542  12.723
29892SOL    HW191573   4.120   4.632  12.690
29892SOL    HW291574   4.179   4.496  12.657
29893SOL     OW91575   8.265  12.576  12.899
29893SOL    HW191576   8.227  12.660  12.873
29893SOL    HW291577   8.192  12.514  12.896
29894SOL     OW91578  12.860   7.339   2.977
29894SOL    HW191579  12.952   7.314   2.982
29894SOL    HW291580  12.829   7.335   3.067
29895SOL     OW91581   7.834   2.387   5.667
29895SOL    HW191582   7.767   2.452   5.691
29895SOL    HW291583   7.899   2.394   5.737
29896SOL     OW91584  11.568   8.338   3.829
29896SOL    HW191585  11.564   8.271   3.898
29896SOL    HW291586  11.540   8.293   3.750
29897SOL     OW91587   8.137  10.980   9.369
29897SOL    HW191588   8.129  11.013   9.279
29897SOL    HW291589   8.230  10.958   9.378
29898SOL     OW91590   2.550   2.710   6.320
29898SOL    HW191591   2.481   2.658   6.360
29898SOL    HW291592   2.524   2.718   6.229
29899SOL     OW91593  10.413   7.314   5.435
29899SOL    HW191594  10.474   7.314   5.509
29899SOL    HW291595  10.342   7.371   5.463
29900SOL     OW91596   0.552   2.069   3.619
29900SOL    HW191597   0.593   2.057   3.534
29900SOL    HW291598   0.543   2.164   3.628
29901SOL     OW91599  11.956  14.317  11.186
29901SOL    HW191600  12.041  14.346  11.218
29901SOL    HW291601  11.895  14.334  11.258
29902SOL     OW91602   3.100   7.630   7.765
29902SOL    HW191603   3.009   7.640   7.739
29902SOL    HW291604   3.135   7.563   7.706
29903SOL     OW91605  10.940  12.454   6.422
29903SOL    HW191606  10.959  12.439   6.515
29903SOL    HW291607  10.868  12.394   6.403
29904SOL     OW91608  12.604   9.190   8.936
29904SOL    HW191609  12.525   9.241   8.921
29904SOL    HW291610  12.580   9.127   9.004
29905SOL     OW91611   1.130   4.328   2.384
29905SOL    HW191612   1.037   4.310   2.392
29905SOL    HW291613   1.173   4.248   2.416
29906SOL     OW91614  13.064   8.195   5.489
29906SOL    HW191615  13.004   8.237   5.550
29906SOL    HW291616  13.026   8.108   5.474
29907SOL     OW91617  14.066  12.983   1.706
29907SOL    HW191618  14.041  12.914   1.645
29907SOL    HW291619  13.993  13.046   1.702
29908SOL     OW91620  12.513  14.172   6.892
29908SOL    HW191621  12.480  14.088   6.862
29908SOL    HW291622  12.438  14.232   6.885
29909SOL     OW91623   3.213   4.372   8.433
29909SOL    HW191624   3.165   4.422   8.498
29909SOL    HW291625   3.156   4.369   8.357
29910SOL     OW91626  14.485  13.761   3.072
29910SOL    HW191627  14.415  13.717   3.024
29910SOL    HW291628  14.440  13.827   3.125
29911SOL     OW91629   5.199  14.695   2.594
29911SOL    HW191630   5.220  14.734   2.510
29911SOL    HW291631   5.139  14.623   2.573
29912SOL     OW91632   9.105   5.041   6.940
29912SOL    HW191633   9.090   4.949   6.958
29912SOL    HW291634   9.160   5.071   7.013
29913SOL     OW91635   2.046  10.054   8.768
29913SOL    HW191636   2.046   9.961   8.746
29913SOL    HW291637   2.121  10.066   8.826
29914SOL     OW91638   7.846   7.066   7.516
29914SOL    HW191639   7.762   7.029   7.545
29914SOL    HW291640   7.898   7.073   7.596
29915SOL     OW91641   6.960   9.698   5.033
29915SOL    HW191642   7.041   9.730   5.072
29915SOL    HW291643   6.959   9.735   4.945
29916SOL     OW91644  10.689  14.266   1.897
29916SOL    HW191645  10.710  14.254   1.804
29916SOL    HW291646  10.715  14.184   1.939
29917SOL     OW91647  13.583   5.312  14.722
29917SOL    HW191648  13.617   5.402  14.722
29917SOL    HW291649  13.494   5.321  14.687
29918SOL     OW91650   6.773  11.920  10.416
29918SOL    HW191651   6.866  11.941  10.405
29918SOL    HW291652   6.755  11.856  10.347
29919SOL     OW91653  10.806   7.906   4.032
29919SOL    HW191654  10.794   7.818   3.998
29919SOL    HW291655  10.784   7.900   4.124
29920SOL     OW91656   8.503   0.841  12.703
29920SOL    HW191657   8.550   0.766  12.739
29920SOL    HW291658   8.416   0.836  12.742
29921SOL     OW91659   7.663   2.674   4.906
29921SOL    HW191660   7.710   2.590   4.914
29921SOL    HW291661   7.708   2.732   4.967
29922SOL     OW91662   0.094   3.813  14.288
29922SOL    HW191663   0.035   3.858  14.348
29922SOL    HW291664   0.057   3.828  14.201
29923SOL     OW91665   2.480   3.573  12.745
29923SOL    HW191666   2.392   3.551  12.776
29923SOL    HW291667   2.513   3.635  12.809
29924SOL     OW91668  11.399  13.596  11.896
29924SOL    HW191669  11.322  13.542  11.875
29924SOL    HW291670  11.420  13.573  11.986
29925SOL     OW91671   4.610   0.028   7.980
29925SOL    HW191672   4.701   0.057   7.985
29925SOL    HW291673   4.586   0.007   8.071
29926SOL     OW91674  10.469  13.763   5.519
29926SOL    HW191675  10.565  13.752   5.519
29926SOL    HW291676  10.454  13.844   5.567
29927SOL     OW91677   0.737   6.517   1.702
29927SOL    HW191678   0.762   6.598   1.746
29927SOL    HW291679   0.661   6.485   1.750
29928SOL     OW91680   7.516   9.608  11.049
29928SOL    HW191681   7.479   9.532  11.005
29928SOL    HW291682   7.524   9.581  11.141
29929SOL     OW91683   9.461   7.286   7.296
29929SOL    HW191684   9.474   7.200   7.258
29929SOL    HW291685   9.457   7.271   7.391
29930SOL     OW91686   7.794  14.718   4.578
29930SOL    HW191687   7.794  14.630   4.541
29930SOL    HW291688   7.885  14.746   4.572
29931SOL     OW91689  11.194   8.884   4.246
29931SOL    HW191690  11.237   8.961   4.209
29931SOL    HW291691  11.265   8.822   4.262
29932SOL     OW91692   6.911   2.671   6.512
29932SOL    HW191693   6.851   2.740   6.483
29932SOL    HW291694   6.998   2.705   6.492
29933SOL     OW91695   4.941   4.025  12.208
29933SOL    HW191696   4.955   3.975  12.288
29933SOL    HW291697   4.989   3.977  12.140
29934SOL     OW91698  13.271   1.135   5.983
29934SOL    HW191699  13.353   1.172   5.950
29934SOL    HW291700  13.269   1.157   6.076
29935SOL     OW91701   3.697   9.281   2.939
29935SOL    HW191702   3.784   9.252   2.966
29935SOL    HW291703   3.685   9.245   2.851
29936SOL     OW91704   7.083   2.251   3.705
29936SOL    HW191705   7.150   2.317   3.687
29936SOL    HW291706   7.025   2.293   3.768
29937SOL     OW91707  11.333   6.348  10.998
29937SOL    HW191708  11.366   6.293  11.069
29937SOL    HW291709  11.378   6.316  10.920
29938SOL     OW91710  13.312  10.195   4.323
29938SOL    HW191711  13.277  10.153   4.402
29938SOL    HW291712  13.234  10.225   4.275
29939SOL     OW91713   5.042  14.560   5.916
29939SOL    HW191714   5.062  14.468   5.897
29939SOL    HW291715   4.953  14.557   5.952
29940SOL     OW91716   1.162  11.095   0.132
29940SOL    HW191717   1.250  11.129   0.148
29940SOL    HW291718   1.170  11.044   0.052
29941SOL     OW91719   1.023   6.309  13.931
29941SOL    HW191720   0.944   6.292  13.983
29941SOL    HW291721   0.993   6.363  13.858
29942SOL     OW91722   9.952   6.969  12.153
29942SOL    HW191723   9.919   7.003  12.237
29942SOL    HW291724   9.949   6.874  12.163
29943SOL     OW91725  12.436   6.610  10.946
29943SOL    HW191726  12.478   6.542  10.998
29943SOL    HW291727  12.468   6.596  10.857
29944SOL     OW91728   1.567  14.297  11.367
29944SOL    HW191729   1.622  14.265  11.439
29944SOL    HW291730   1.524  14.218  11.334
29945SOL     OW91731  14.515   7.053  14.482
29945SOL    HW191732  14.573   6.978  14.489
29945SOL    HW291733  14.520   7.095  14.568
29946SOL     OW91734   3.870   4.407   1.034
29946SOL    HW191735   3.833   4.492   1.060
29946SOL    HW291736   3.805   4.371   0.973
29947SOL     OW91737   0.362   8.695   9.289
29947SOL    HW191738   0.376   8.601   9.282
29947SOL    HW291739   0.336   8.722   9.200
29948SOL     OW91740  10.178   6.630   1.889
29948SOL    HW191741  10.168   6.709   1.941
29948SOL    HW291742  10.263   6.595   1.915
29949SOL     OW91743  13.608   5.357   0.451
29949SOL    HW191744  13.518   5.380   0.429
29949SOL    HW291745  13.662   5.409   0.392
29950SOL     OW91746  14.312   9.207  12.082
29950SOL    HW191747  14.225   9.177  12.056
29950SOL    HW291748  14.348   9.247  12.003
29951SOL     OW91749   4.567   6.259   5.617
29951SOL    HW191750   4.623   6.331   5.586
29951SOL    HW291751   4.531   6.292   5.700
29952SOL     OW91752  10.491   5.322   2.424
29952SOL    HW191753  10.483   5.253   2.490
29952SOL    HW291754  10.578   5.360   2.439
29953SOL     OW91755   7.531   5.122  10.104
29953SOL    HW191756   7.515   5.169  10.186
29953SOL    HW291757   7.453   5.068  10.092
29954SOL     OW91758   1.152   1.644   7.779
29954SOL    HW191759   1.082   1.613   7.721
29954SOL    HW291760   1.117   1.724   7.817
29955SOL     OW91761   9.297   6.573   5.650
29955SOL    HW191762   9.369   6.615   5.605
29955SOL    HW291763   9.318   6.479   5.648
29956SOL     OW91764   8.619   7.987   3.780
29956SOL    HW191765   8.611   8.068   3.730
29956SOL    HW291766   8.580   7.920   3.725
29957SOL     OW91767   1.105   2.689  13.135
29957SOL    HW191768   1.166   2.746  13.088
29957SOL    HW291769   1.023   2.696  13.085
29958SOL     OW91770  12.141   0.861   7.688
29958SOL    HW191771  12.096   0.916   7.751
29958SOL    HW291772  12.153   0.777   7.733
29959SOL     OW91773   8.505   7.124  13.876
29959SOL    HW191774   8.528   7.141  13.785
29959SOL    HW291775   8.533   7.202  13.923
29960SOL     OW91776   8.145   2.535   9.593
29960SOL    HW191777   8.109   2.509   9.509
29960SOL    HW291778   8.079   2.508   9.657
29961SOL     OW91779   0.183   5.456   1.661
29961SOL    HW191780   0.152   5.388   1.721
29961SOL    HW291781   0.213   5.527   1.718
29962SOL     OW91782   5.653   9.009   1.310
29962SOL    HW191783   5.623   9.045   1.393
29962SOL    HW291784   5.642   9.080   1.246
29963SOL     OW91785   8.786   5.552   1.636
29963SOL    HW191786   8.830   5.557   1.720
29963SOL    HW291787   8.857   5.543   1.572
29964SOL     OW91788  12.491   0.300   6.113
29964SOL    HW191789  12.538   0.347   6.045
29964SOL    HW291790  12.419   0.258   6.068
29965SOL     OW91791   0.874   7.392  13.769
29965SOL    HW191792   0.904   7.311  13.728
29965SOL    HW291793   0.793   7.368  13.814
29966SOL     OW91794   4.791  10.711   9.147
29966SOL    HW191795   4.823  10.636   9.196
29966SOL    HW291796   4.868  10.766   9.134
29967SOL     OW91797   9.385   3.236   9.651
29967SOL    HW191798   9.393   3.265   9.741
29967SOL    HW291799   9.296   3.202   9.644
29968SOL     OW91800   2.505   4.355   1.547
29968SOL    HW191801   2.599   4.359   1.563
29968SOL    HW291802   2.489   4.422   1.481
29969SOL     OW91803   9.897   4.993   3.677
29969SOL    HW191804   9.857   5.038   3.603
29969SOL    HW291805   9.850   4.910   3.683
29970SOL     OW91806   8.979   7.690   6.543
29970SOL    HW191807   9.023   7.627   6.485
29970SOL    HW291808   8.938   7.635   6.610
29971SOL     OW91809   6.825   1.912   2.497
29971SOL    HW191810   6.768   1.980   2.462
29971SOL    HW291811   6.827   1.929   2.591
29972SOL     OW91812   0.802   4.906   2.975
29972SOL    HW191813   0.875   4.869   3.024
29972SOL    HW291814   0.724   4.864   3.012
29973SOL     OW91815   2.530   1.975   3.899
29973SOL    HW191816   2.536   1.879   3.899
29973SOL    HW291817   2.517   1.998   3.990
29974SOL     OW91818   7.101   7.547   8.455
29974SOL    HW191819   7.166   7.544   8.384
29974SOL    HW291820   7.018   7.524   8.412
29975SOL     OW91821   0.532   0.762   7.431
29975SOL    HW191822   0.607   0.787   7.377
29975SOL    HW291823   0.463   0.823   7.406
29976SOL     OW91824  10.265   5.084   9.920
29976SOL    HW191825  10.170   5.081   9.909
29976SOL    HW291826  10.291   5.173   9.894
29977SOL     OW91827   8.789   0.720   6.841
29977SOL    HW191828   8.828   0.803   6.866
29977SOL    HW291829   8.863   0.664   6.818
29978SOL     OW91830  11.330  10.521   8.414
29978SOL    HW191831  11.415  10.563   8.417
29978SOL    HW291832  11.273  10.578   8.466
29979SOL     OW91833  13.452   7.403   7.276
29979SOL    HW191834  13.410   7.352   7.345
29979SOL    HW291835  13.395   7.478   7.262
29980SOL     OW91836  11.517  12.058   7.760
29980SOL    HW191837  11.587  12.016   7.710
29980SOL    HW291838  11.554  12.073   7.846
29981SOL     OW91839   6.389   4.149   2.199
29981SOL    HW191840   6.351   4.183   2.279
29981SOL    HW291841   6.442   4.221   2.164
29982SOL     OW91842   6.338  13.393   7.209
29982SOL    HW191843   6.305  13.382   7.120
29982SOL    HW291844   6.411  13.454   7.200
29983SOL     OW91845  11.633   6.473   6.160
29983SOL    HW191846  11.542   6.478   6.131
29983SOL    HW291847  11.646   6.381   6.182
29984SOL     OW91848   0.579   1.632   4.755
29984SOL    HW191849   0.674   1.619   4.754
29984SOL    HW291850   0.548   1.576   4.826
29985SOL     OW91851   9.476   7.754   0.070
29985SOL    HW191852   9.380   7.749   0.074
29985SOL    HW291853   9.506   7.688   0.132
29986SOL     OW91854  10.584  12.991  13.659
29986SOL    HW191855  10.670  13.026  13.683
29986SOL    HW291856  10.562  13.033  13.577
29987SOL     OW91857   2.367   3.382   9.543
29987SOL    HW191858   2.368   3.478   9.545
29987SOL    HW291859   2.383   3.360   9.451
29988SOL     OW91860   8.411   1.847   0.041
29988SOL    HW191861   8.488   1.885   0.084
29988SOL    HW291862   8.397   1.902  14.842
29989SOL     OW91863   4.927   7.149   7.882
29989SOL    HW191864   5.021   7.161   7.870
29989SOL    HW291865   4.911   7.057   7.861
29990SOL     OW91866   7.443   3.362  11.810
29990SOL    HW191867   7.364   3.358  11.863
29990SOL    HW291868   7.411   3.375  11.720
29991SOL     OW91869  11.160   9.922  12.702
29991SOL    HW191870  11.171   9.837  12.743
29991SOL    HW291871  11.092   9.965  12.753
29992SOL     OW91872   8.990   8.078   2.898
29992SOL    HW191873   9.030   8.039   2.976
29992SOL    HW291874   8.968   8.004   2.842
29993SOL     OW91875   4.056  13.508   9.712
29993SOL    HW191876   3.960  13.510   9.718
29993SOL    HW291877   4.084  13.582   9.766
29994SOL     OW91878   5.122   5.318   0.076
29994SOL    HW191879   5.077   5.383   0.130
29994SOL    HW291880   5.153   5.367  14.877
29995SOL     OW91881  11.533   0.250  13.178
29995SOL    HW191882  11.490   0.202  13.248
29995SOL    HW291883  11.462   0.291  13.129
29996SOL     OW91884   3.879  11.967   5.689
29996SOL    HW191885   3.897  11.999   5.777
29996SOL    HW291886   3.959  11.920   5.663
29997SOL     OW91887   8.699  10.123   6.549
29997SOL    HW191888   8.775  10.077   6.515
29997SOL    HW291889   8.701  10.209   6.507
29998SOL     OW91890   7.541   1.113  14.310
29998SOL    HW191891   7.614   1.152  14.262
29998SOL    HW291892   7.463   1.154  14.272
29999SOL     OW91893  10.131   7.354   4.497
29999SOL    HW191894  10.054   7.298   4.486
29999SOL    HW291895  10.118   7.398   4.581
30000SOL     OW91896   9.469   8.688   2.977
30000SOL    HW191897   9.531   8.657   2.910
30000SOL    HW291898   9.500   8.649   3.058
30001SOL     OW91899   5.057   2.639   0.735
30001SOL    HW191900   5.124   2.705   0.755
30001SOL    HW291901   5.051   2.639   0.639
30002SOL     OW91902   0.420  13.955   4.663
30002SOL    HW191903   0.465  13.880   4.624
30002SOL    HW291904   0.329  13.928   4.670
30003SOL     OW91905  13.322   2.976   9.093
30003SOL    HW191906  13.406   2.935   9.114
30003SOL    HW291907  13.308   3.037   9.165
30004SOL     OW91908   4.362   7.598   4.583
30004SOL    HW191909   4.438   7.652   4.606
30004SOL    HW291910   4.333   7.561   4.666
30005SOL     OW91911   5.112   6.814   8.441
30005SOL    HW191912   5.060   6.882   8.399
30005SOL    HW291913   5.153   6.858   8.516
30006SOL     OW91914  11.923  13.334   1.476
30006SOL    HW191915  12.012  13.368   1.490
30006SOL    HW291916  11.898  13.298   1.561
30007SOL     OW91917   4.130   0.776   0.059
30007SOL    HW191918   4.120   0.758  14.842
30007SOL    HW291919   4.041   0.797   0.088
30008SOL     OW91920  13.791   3.213   1.696
30008SOL    HW191921  13.756   3.268   1.766
30008SOL    HW291922  13.742   3.131   1.702
30009SOL     OW91923   3.408   0.031   7.980
30009SOL    HW191924   3.488   0.073   8.013
30009SOL    HW291925   3.393   0.072   7.895
30010SOL     OW91926  11.514   4.088   6.832
30010SOL    HW191927  11.463   4.136   6.897
30010SOL    HW291928  11.523   4.000   6.869
30011SOL     OW91929   2.912   4.148  14.058
30011SOL    HW191930   2.994   4.183  14.020
30011SOL    HW291931   2.868   4.106  13.984
30012SOL     OW91932   3.448   4.509   8.420
30012SOL    HW191933   3.479   4.554   8.499
30012SOL    HW291934   3.384   4.445   8.452
30013SOL     OW91935   7.580   6.455  12.805
30013SOL    HW191936   7.563   6.549  12.800
30013SOL    HW291937   7.554   6.422  12.719
30014SOL     OW91938   3.861   4.204   6.346
30014SOL    HW191939   3.804   4.257   6.291
30014SOL    HW291940   3.817   4.202   6.432
30015SOL     OW91941   4.399  12.601   5.313
30015SOL    HW191942   4.359  12.687   5.324
30015SOL    HW291943   4.368  12.570   5.228
30016SOL     OW91944   7.967  11.157  10.451
30016SOL    HW191945   8.031  11.226  10.435
30016SOL    HW291946   7.992  11.086  10.392
30017SOL     OW91947   0.930   7.362   4.465
30017SOL    HW191948   0.836   7.363   4.448
30017SOL    HW291949   0.969   7.401   4.387
30018SOL     OW91950  12.417   0.030   6.394
30018SOL    HW191951  12.344   0.059   6.448
30018SOL    HW291952  12.464   0.110   6.370
30019SOL     OW91953  10.923   5.923  10.528
30019SOL    HW191954  10.858   5.860  10.499
30019SOL    HW291955  10.880   5.972  10.598
30020SOL     OW91956  13.012  12.898  10.832
30020SOL    HW191957  12.919  12.877  10.828
30020SOL    HW291958  13.015  12.993  10.844
30021SOL     OW91959   7.098   6.499  12.851
30021SOL    HW191960   7.007   6.476  12.831
30021SOL    HW291961   7.132   6.423  12.898
30022SOL     OW91962  14.047   7.715   1.120
30022SOL    HW191963  14.086   7.632   1.149
30022SOL    HW291964  14.058   7.714   1.024
30023SOL     OW91965  14.432  12.300  13.931
30023SOL    HW191966  14.400  12.270  14.016
30023SOL    HW291967  14.357  12.290  13.873
30024SOL     OW91968   6.748   8.974  14.278
30024SOL    HW191969   6.750   8.898  14.335
30024SOL    HW291970   6.729   8.938  14.191
30025SOL     OW91971  11.831   7.523   4.016
30025SOL    HW191972  11.747   7.547   4.056
30025SOL    HW291973  11.885   7.495   4.091
30026SOL     OW91974   8.805   6.239   9.957
30026SOL    HW191975   8.869   6.309   9.974
30026SOL    HW291976   8.857   6.159   9.956
30027SOL     OW91977   7.091   2.960  10.979
30027SOL    HW191978   7.147   2.883  10.970
30027SOL    HW291979   7.050   2.950  11.065
30028SOL     OW91980   9.996   5.890   8.456
30028SOL    HW191981   9.903   5.912   8.456
30028SOL    HW291982  10.034   5.944   8.387
30029SOL     OW91983  13.970   9.624   2.010
30029SOL    HW191984  13.953   9.549   2.066
30029SOL    HW291985  13.906   9.690   2.037
30030SOL     OW91986   6.774  11.768  10.202
30030SOL    HW191987   6.817  11.718  10.134
30030SOL    HW291988   6.694  11.800  10.161
30031SOL     OW91989  10.209   0.699  11.397
30031SOL    HW191990  10.248   0.642  11.463
30031SOL    HW291991  10.216   0.648  11.316
30032SOL     OW91992   0.151   6.339   0.267
30032SOL    HW191993   0.073   6.374   0.310
30032SOL    HW291994   0.117   6.293   0.190
30033SOL     OW91995  12.171  10.100   6.009
30033SOL    HW191996  12.084  10.100   6.049
30033SOL    HW291997  12.221  10.165   6.060
30034SOL     OW91998   2.040   4.778  12.775
30034SOL    HW191999   1.985   4.700  12.784
30034SOL    HW292000   1.979   4.848  12.752
30035SOL     OW92001   5.939   3.413   2.104
30035SOL    HW192002   5.996   3.386   2.032
30035SOL    HW292003   5.990   3.394   2.183
30036SOL     OW92004  13.161   1.614   4.825
30036SOL    HW192005  13.161   1.552   4.898
30036SOL    HW292006  13.088   1.586   4.770
30037SOL     OW92007  13.813   6.139   1.998
30037SOL    HW192008  13.815   6.164   2.091
30037SOL    HW292009  13.732   6.177   1.965
30038SOL     OW92010  14.570   5.799   4.870
30038SOL    HW192011  14.566   5.754   4.955
30038SOL    HW292012  14.614   5.736   4.812
30039SOL     OW92013   1.411   0.301  10.396
30039SOL    HW192014   1.490   0.249  10.414
30039SOL    HW292015   1.423   0.380  10.449
30040SOL     OW92016   6.656   2.051   5.416
30040SOL    HW192017   6.687   2.006   5.338
30040SOL    HW292018   6.726   2.112   5.438
30041SOL     OW92019  13.660   0.788  13.156
30041SOL    HW192020  13.755   0.777  13.145
30041SOL    HW292021  13.633   0.711  13.206
30042SOL     OW92022   9.216   1.019   0.774
30042SOL    HW192023   9.143   1.065   0.734
30042SOL    HW292024   9.275   0.998   0.701
30043SOL     OW92025  10.534   2.579   4.584
30043SOL    HW192026  10.473   2.506   4.584
30043SOL    HW292027  10.486   2.650   4.540
30044SOL     OW92028  13.178   1.079  11.086
30044SOL    HW192029  13.121   1.112  11.156
30044SOL    HW292030  13.264   1.117  11.105
30045SOL     OW92031  11.360   9.576   4.126
30045SOL    HW192032  11.366   9.671   4.117
30045SOL    HW292033  11.424   9.553   4.194
30046SOL     OW92034   7.774   6.311  12.012
30046SOL    HW192035   7.698   6.368  12.018
30046SOL    HW292036   7.788   6.298  11.918
30047SOL     OW92037  13.891   2.772  14.464
30047SOL    HW192038  13.976   2.807  14.491
30047SOL    HW292039  13.847   2.749  14.546
30048SOL     OW92040  10.946  12.618   8.293
30048SOL    HW192041  10.940  12.712   8.273
30048SOL    HW292042  10.941  12.614   8.389
30049SOL     OW92043  11.019  12.406  13.142
30049SOL    HW192044  11.015  12.492  13.100
30049SOL    HW292045  10.963  12.350  13.087
30050SOL     OW92046   2.564   7.695  11.264
30050SOL    HW192047   2.521   7.752  11.202
30050SOL    HW292048   2.493   7.660  11.318
30051SOL     OW92049   7.919   2.001  14.455
30051SOL    HW192050   7.917   2.093  14.430
30051SOL    HW292051   7.862   1.995  14.531
30052SOL     OW92052   8.423  14.804   5.116
30052SOL    HW192053   8.519  14.802   5.110
30052SOL    HW292054   8.401  14.725   5.166
30053SOL     OW92055   7.451   4.762   1.236
30053SOL    HW192056   7.508   4.803   1.172
30053SOL    HW292057   7.509   4.707   1.289
30054SOL     OW92058   7.406  11.313  10.327
30054SOL    HW192059   7.348  11.317  10.250
30054SOL    HW292060   7.494  11.309  10.290
30055SOL     OW92061  13.248   7.378   3.327
30055SOL    HW192062  13.291   7.306   3.372
30055SOL    HW292063  13.181   7.408   3.387
30056SOL     OW92064  10.789  12.364   1.182
30056SOL    HW192065  10.780  12.273   1.153
30056SOL    HW292066  10.877  12.389   1.156
30057SOL     OW92067   3.389  10.621  11.827
30057SOL    HW192068   3.401  10.638  11.733
30057SOL    HW292069   3.296  10.639  11.842
30058SOL     OW92070  13.860   1.733  10.443
30058SOL    HW192071  13.919   1.806  10.427
30058SOL    HW292072  13.781   1.756  10.394
30059SOL     OW92073   0.754   3.332   4.430
30059SOL    HW192074   0.718   3.387   4.500
30059SOL    HW292075   0.751   3.243   4.466
30060SOL     OW92076  13.051   1.551   6.500
30060SOL    HW192077  13.006   1.468   6.515
30060SOL    HW292078  13.142   1.527   6.481
30061SOL     OW92079   7.630   8.127   4.097
30061SOL    HW192080   7.613   8.043   4.139
30061SOL    HW292081   7.575   8.127   4.018
30062SOL     OW92082   6.064  10.396  11.179
30062SOL    HW192083   6.099  10.482  11.156
30062SOL    HW292084   5.982  10.415  11.225
30063SOL     OW92085   4.994   9.337   4.791
30063SOL    HW192086   4.939   9.384   4.854
30063SOL    HW292087   5.083   9.352   4.823
30064SOL     OW92088   9.948   4.036   1.388
30064SOL    HW192089  10.003   3.960   1.367
30064SOL    HW292090   9.906   4.059   1.305
30065SOL     OW92091  14.109   6.651   8.456
30065SOL    HW192092  14.019   6.666   8.483
30065SOL    HW292093  14.109   6.564   8.416
30066SOL     OW92094   1.608   9.332   9.668
30066SOL    HW192095   1.622   9.384   9.589
30066SOL    HW292096   1.548   9.263   9.640
30067SOL     OW92097   5.930  13.328   6.996
30067SOL    HW192098   5.874  13.387   6.945
30067SOL    HW292099   5.933  13.367   7.083
30068SOL     OW92100  13.814   4.077   8.651
30068SOL    HW192101  13.805   3.986   8.623
30068SOL    HW292102  13.776   4.078   8.739
30069SOL     OW92103   1.090  14.300   7.439
30069SOL    HW192104   1.072  14.393   7.449
30069SOL    HW292105   1.016  14.267   7.387
30070SOL     OW92106  11.363   9.987   8.186
30070SOL    HW192107  11.405   9.906   8.159
30070SOL    HW292108  11.435  10.045   8.211
30071SOL     OW92109   8.364   5.240  13.041
30071SOL    HW192110   8.440   5.216  13.094
30071SOL    HW292111   8.341   5.329  13.071
30072SOL     OW92112  11.547   7.110   4.973
30072SOL    HW192113  11.611   7.098   4.903
30072SOL    HW292114  11.479   7.165   4.934
30073SOL     OW92115  14.520   8.876   6.902
30073SOL    HW192116  14.466   8.801   6.874
30073SOL    HW292117  14.531   8.928   6.822
30074SOL     OW92118   7.136  12.154   5.708
30074SOL    HW192119   7.126  12.117   5.795
30074SOL    HW292120   7.187  12.088   5.660
30075SOL     OW92121  12.606  12.198  13.620
30075SOL    HW192122  12.531  12.255  13.636
30075SOL    HW292123  12.572  12.130  13.561
30076SOL     OW92124  13.066  10.866  11.487
30076SOL    HW192125  13.125  10.791  11.485
30076SOL    HW292126  13.123  10.942  11.490
30077SOL     OW92127  10.094  11.652   6.195
30077SOL    HW192128  10.046  11.596   6.134
30077SOL    HW292129  10.175  11.603   6.213
30078SOL     OW92130   5.017  10.018   1.601
30078SOL    HW192131   4.930  10.044   1.569
30078SOL    HW292132   5.008   9.926   1.625
30079SOL     OW92133  13.692   2.326   0.378
30079SOL    HW192134  13.741   2.245   0.362
30079SOL    HW292135  13.675   2.326   0.472
30080SOL     OW92136   9.621   3.284  14.049
30080SOL    HW192137   9.603   3.201  14.004
30080SOL    HW292138   9.534   3.324  14.060
30081SOL     OW92139  12.448  10.996   9.571
30081SOL    HW192140  12.378  10.964   9.627
30081SOL    HW292141  12.404  11.052   9.506
30082SOL     OW92142   1.817   1.657   0.460
30082SOL    HW192143   1.779   1.596   0.523
30082SOL    HW292144   1.807   1.612   0.375
30083SOL     OW92145  10.137   9.150   8.041
30083SOL    HW192146  10.109   9.071   7.994
30083SOL    HW292147  10.064   9.212   8.030
30084SOL     OW92148   2.157   8.841   0.214
30084SOL    HW192149   2.175   8.788   0.137
30084SOL    HW292150   2.174   8.783   0.288
30085SOL     OW92151  10.232   3.607   7.359
30085SOL    HW192152  10.324   3.581   7.350
30085SOL    HW292153  10.202   3.560   7.437
30086SOL     OW92154  13.037   5.308   2.193
30086SOL    HW192155  13.003   5.309   2.282
30086SOL    HW292156  13.057   5.399   2.174
30087SOL     OW92157  12.031   3.166   5.821
30087SOL    HW192158  12.038   3.229   5.749
30087SOL    HW292159  12.019   3.220   5.899
30088SOL     OW92160   1.636  10.374   6.863
30088SOL    HW192161   1.652  10.422   6.782
30088SOL    HW292162   1.703  10.406   6.924
30089SOL     OW92163   4.817   8.469   2.021
30089SOL    HW192164   4.804   8.520   2.101
30089SOL    HW292165   4.829   8.379   2.052
30090SOL     OW92166   4.566  14.707  14.321
30090SOL    HW192167   4.472  14.722  14.328
30090SOL    HW292168   4.581  14.689  14.229
30091SOL     OW92169   2.373   1.676  11.117
30091SOL    HW192170   2.393   1.584  11.099
30091SOL    HW292171   2.284   1.675  11.153
30092SOL     OW92172   9.443  11.907   9.712
30092SOL    HW192173   9.477  11.828   9.753
30092SOL    HW292174   9.357  11.920   9.752
30093SOL     OW92175   0.437  14.349   5.773
30093SOL    HW192176   0.459  14.360   5.866
30093SOL    HW292177   0.407  14.436   5.745
30094SOL     OW92178   9.233  14.405  14.721
30094SOL    HW192179   9.231  14.346  14.797
30094SOL    HW292180   9.200  14.352  14.649
30095SOL     OW92181   8.748   6.049  10.842
30095SOL    HW192182   8.777   6.135  10.871
30095SOL    HW292183   8.742   6.055  10.747
30096SOL     OW92184  12.437   7.876   3.890
30096SOL    HW192185  12.355   7.827   3.882
30096SOL    HW292186  12.505   7.814   3.862
30097SOL     OW92187  14.178   4.071   7.379
30097SOL    HW192188  14.235   4.143   7.409
30097SOL    HW292189  14.173   4.083   7.284
30098SOL     OW92190   8.680   0.262  12.833
30098SOL    HW192191   8.764   0.308  12.841
30098SOL    HW292192   8.690   0.185  12.888
30099SOL     OW92193   0.819   2.405  12.771
30099SOL    HW192194   0.849   2.493  12.750
30099SOL    HW292195   0.869   2.380  12.849
30100SOL     OW92196   5.294   0.633   0.690
30100SOL    HW192197   5.219   0.670   0.736
30100SOL    HW292198   5.273   0.541   0.678
30101SOL     OW92199  10.344   5.384   5.260
30101SOL    HW192200  10.395   5.420   5.187
30101SOL    HW292201  10.409   5.359   5.326
30102SOL     OW92202   1.651   3.755   4.836
30102SOL    HW192203   1.687   3.667   4.825
30102SOL    HW292204   1.595   3.749   4.913
30103SOL     OW92205   8.136   2.503   2.759
30103SOL    HW192206   8.224   2.475   2.786
30103SOL    HW292207   8.152   2.572   2.694
30104SOL     OW92208  10.556   6.953   6.603
30104SOL    HW192209  10.646   6.980   6.624
30104SOL    HW292210  10.557   6.937   6.509
30105SOL     OW92211  11.668  11.247  12.540
30105SOL    HW192212  11.709  11.182  12.597
30105SOL    HW292213  11.638  11.197  12.464
30106SOL     OW92214  13.800   6.795  13.045
30106SOL    HW192215  13.713   6.829  13.024
30106SOL    HW292216  13.829   6.848  13.119
30107SOL     OW92217   5.774   1.931  10.503
30107SOL    HW192218   5.707   1.959  10.441
30107SOL    HW292219   5.725   1.895  10.577
30108SOL     OW92220  11.543  14.691   0.236
30108SOL    HW192221  11.610  14.641   0.189
30108SOL    HW292222  11.573  14.782   0.230
30109SOL     OW92223   9.698  13.264   0.704
30109SOL    HW192224   9.625  13.211   0.672
30109SOL    HW292225   9.776  13.214   0.679
30110SOL     OW92226   5.801   9.850   3.775
30110SOL    HW192227   5.773   9.827   3.687
30110SOL    HW292228   5.837   9.769   3.811
30111SOL     OW92229   6.951   8.210   5.745
30111SOL    HW192230   6.885   8.194   5.678
30111SOL    HW292231   6.970   8.304   5.738
30112SOL     OW92232   3.631   8.500  13.695
30112SOL    HW192233   3.679   8.465  13.619
30112SOL    HW292234   3.607   8.589  13.669
30113SOL     OW92235   0.601   0.204  11.404
30113SOL    HW192236   0.690   0.183  11.373
30113SOL    HW292237   0.551   0.220  11.324
30114SOL     OW92238   4.294  11.551   5.133
30114SOL    HW192239   4.276  11.468   5.089
30114SOL    HW292240   4.383  11.574   5.106
30115SOL     OW92241   4.043   9.613  12.401
30115SOL    HW192242   4.109   9.571  12.346
30115SOL    HW292243   4.028   9.698  12.360
30116SOL     OW92244   6.354   5.641  10.379
30116SOL    HW192245   6.435   5.663  10.331
30116SOL    HW292246   6.368   5.552  10.411
30117SOL     OW92247   0.486   1.955  14.499
30117SOL    HW192248   0.420   2.022  14.485
30117SOL    HW292249   0.500   1.952  14.593
30118SOL     OW92250   5.289  14.822  14.609
30118SOL    HW192251   5.244   0.028  14.623
30118SOL    HW292252   5.301  14.816  14.514
30119SOL     OW92253   3.658   4.767  10.464
30119SOL    HW192254   3.704   4.684  10.472
30119SOL    HW292255   3.585   4.760  10.526
30120SOL     OW92256   3.216   7.896   8.767
30120SOL    HW192257   3.168   7.951   8.829
30120SOL    HW292258   3.272   7.958   8.719
30121SOL     OW92259   9.518   4.860  10.638
30121SOL    HW192260   9.455   4.790  10.622
30121SOL    HW292261   9.469   4.940  10.620
30122SOL     OW92262   9.225   7.782   6.608
30122SOL    HW192263   9.288   7.772   6.536
30122SOL    HW292264   9.143   7.748   6.573
30123SOL     OW92265  13.266   0.564   2.741
30123SOL    HW192266  13.203   0.510   2.694
30123SOL    HW292267  13.273   0.644   2.689
30124SOL     OW92268   6.419   0.596   6.064
30124SOL    HW192269   6.389   0.582   6.154
30124SOL    HW292270   6.339   0.591   6.011
30125SOL     OW92271   5.834   9.347   1.911
30125SOL    HW192272   5.769   9.282   1.886
30125SOL    HW292273   5.784   9.429   1.919
30126SOL     OW92274  12.543  11.489   6.106
30126SOL    HW192275  12.507  11.418   6.054
30126SOL    HW292276  12.637  11.468   6.114
30127SOL     OW92277   2.400  12.787   8.470
30127SOL    HW192278   2.393  12.855   8.403
30127SOL    HW292279   2.345  12.818   8.542
30128SOL     OW92280   5.275   3.071   1.701
30128SOL    HW192281   5.275   3.107   1.789
30128SOL    HW292282   5.362   3.031   1.691
30129SOL     OW92283  10.939   7.330  10.537
30129SOL    HW192284  11.031   7.320  10.512
30129SOL    HW292285  10.941   7.383  10.616
30130SOL     OW92286  11.193   2.621  12.850
30130SOL    HW192287  11.165   2.535  12.817
30130SOL    HW292288  11.215   2.606  12.942
30131SOL     OW92289   9.413   1.916   0.780
30131SOL    HW192290   9.440   1.958   0.698
30131SOL    HW292291   9.404   1.823   0.758
30132SOL     OW92292  13.182  12.728   4.704
30132SOL    HW192293  13.088  12.738   4.718
30132SOL    HW292294  13.191  12.725   4.609
30133SOL     OW92295   2.723  13.078  14.354
30133SOL    HW192296   2.751  13.125  14.276
30133SOL    HW292297   2.751  13.134  14.427
30134SOL     OW92298  12.245   7.931   8.149
30134SOL    HW192299  12.318   7.988   8.174
30134SOL    HW292300  12.198   7.915   8.230
30135SOL     OW92301   8.480   3.877  10.607
30135SOL    HW192302   8.438   3.932  10.541
30135SOL    HW292303   8.436   3.792  10.600
30136SOL     OW92304   0.602   7.446   7.350
30136SOL    HW192305   0.643   7.425   7.434
30136SOL    HW292306   0.582   7.361   7.311
30137SOL     OW92307   3.779   7.465  14.002
30137SOL    HW192308   3.694   7.425  14.020
30137SOL    HW292309   3.761   7.533  13.937
30138SOL     OW92310  14.313   8.541   8.561
30138SOL    HW192311  14.280   8.586   8.484
30138SOL    HW292312  14.234   8.518   8.610
30139SOL     OW92313   8.340   8.936   1.267
30139SOL    HW192314   8.399   8.997   1.224
30139SOL    HW292315   8.270   8.920   1.203
30140SOL     OW92316  13.158   1.361  13.409
30140SOL    HW192317  13.212   1.284  13.427
30140SOL    HW292318  13.216   1.421  13.361
30141SOL     OW92319   9.727  12.533   2.798
30141SOL    HW192320   9.685  12.569   2.876
30141SOL    HW292321   9.716  12.438   2.807
30142SOL     OW92322   5.082   4.748   3.410
30142SOL    HW192323   5.033   4.817   3.455
30142SOL    HW292324   5.160   4.735   3.463
30143SOL     OW92325   3.249  13.785   6.716
30143SOL    HW192326   3.288  13.871   6.700
30143SOL    HW292327   3.173  13.781   6.658
30144SOL     OW92328   8.000   3.714   5.085
30144SOL    HW192329   7.933   3.777   5.110
30144SOL    HW292330   8.071   3.730   5.147
30145SOL     OW92331   8.051  10.616   0.198
30145SOL    HW192332   7.962  10.587   0.177
30145SOL    HW292333   8.039  10.680   0.269
30146SOL     OW92334  11.008   0.170  11.797
30146SOL    HW192335  11.071   0.140  11.732
30146SOL    HW292336  10.926   0.128  11.772
30147SOL     OW92337  11.695  11.361   9.538
30147SOL    HW192338  11.640  11.418   9.485
30147SOL    HW292339  11.727  11.417   9.609
30148SOL     OW92340  12.635   8.443  12.185
30148SOL    HW192341  12.721   8.469  12.152
30148SOL    HW292342  12.576   8.514  12.157
30149SOL     OW92343   2.517   2.664  13.167
30149SOL    HW192344   2.536   2.578  13.130
30149SOL    HW292345   2.602   2.696  13.198
30150SOL     OW92346   1.095   8.433  11.077
30150SOL    HW192347   1.134   8.359  11.123
30150SOL    HW292348   1.004   8.434  11.106
30151SOL     OW92349   6.661  11.381   0.006
30151SOL    HW192350   6.611  11.299   0.006
30151SOL    HW292351   6.709  11.380   0.089
30152SOL     OW92352   3.736   8.944   1.987
30152SOL    HW192353   3.699   8.986   1.910
30152SOL    HW292354   3.771   8.861   1.955
30153SOL     OW92355   8.721   1.774  10.546
30153SOL    HW192356   8.795   1.833  10.560
30153SOL    HW292357   8.743   1.696  10.596
30154SOL     OW92358  13.367  12.512   8.591
30154SOL    HW192359  13.330  12.516   8.679
30154SOL    HW292360  13.364  12.602   8.559
30155SOL     OW92361   5.627  12.927   0.634
30155SOL    HW192362   5.644  12.836   0.611
30155SOL    HW292363   5.559  12.955   0.572
30156SOL     OW92364   7.543   6.591   4.455
30156SOL    HW192365   7.577   6.509   4.421
30156SOL    HW292366   7.473   6.565   4.515
30157SOL     OW92367  11.297   8.852   0.616
30157SOL    HW192368  11.226   8.916   0.619
30157SOL    HW292369  11.277   8.790   0.686
30158SOL     OW92370   8.290  11.200   8.267
30158SOL    HW192371   8.201  11.173   8.245
30158SOL    HW292372   8.341  11.183   8.188
30159SOL     OW92373   5.620   1.433  10.592
30159SOL    HW192374   5.687   1.427  10.661
30159SOL    HW292375   5.615   1.344  10.557
30160SOL     OW92376   6.249   0.798   9.273
30160SOL    HW192377   6.202   0.718   9.250
30160SOL    HW292378   6.196   0.869   9.237
30161SOL     OW92379   2.735  14.832   7.436
30161SOL    HW192380   2.778  14.754   7.471
30161SOL    HW292381   2.772   0.026   7.487
30162SOL     OW92382  13.719  14.265   5.412
30162SOL    HW192383  13.803  14.268   5.458
30162SOL    HW292384  13.729  14.195   5.347
30163SOL     OW92385  14.698   8.290   6.024
30163SOL    HW192386  14.712   8.374   6.067
30163SOL    HW292387  14.638   8.310   5.952
30164SOL     OW92388   2.618   5.193  10.569
30164SOL    HW192389   2.695   5.248  10.556
30164SOL    HW292390   2.572   5.231  10.643
30165SOL     OW92391  11.723   7.097   3.462
30165SOL    HW192392  11.752   7.172   3.412
30165SOL    HW292393  11.738   7.022   3.405
30166SOL     OW92394   1.825   7.506   3.776
30166SOL    HW192395   1.755   7.450   3.810
30166SOL    HW292396   1.901   7.448   3.770
30167SOL     OW92397  11.300   2.138   2.093
30167SOL    HW192398  11.365   2.070   2.113
30167SOL    HW292399  11.273   2.170   2.179
30168SOL     OW92400   3.446  10.187  11.724
30168SOL    HW192401   3.530  10.220  11.756
30168SOL    HW292402   3.429  10.239  11.646
30169SOL     OW92403   2.684   8.797   0.823
30169SOL    HW192404   2.657   8.867   0.763
30169SOL    HW292405   2.707   8.724   0.766
30170SOL     OW92406   9.897  10.076   0.966
30170SOL    HW192407   9.836  10.053   0.896
30170SOL    HW292408   9.974  10.020   0.950
30171SOL     OW92409   7.526   5.968  11.108
30171SOL    HW192410   7.611   5.934  11.082
30171SOL    HW292411   7.478   5.978  11.025
30172SOL     OW92412   6.921   6.152   8.663
30172SOL    HW192413   6.889   6.138   8.752
30172SOL    HW292414   7.006   6.108   8.661
30173SOL     OW92415   6.047  10.345  14.835
30173SOL    HW192416   5.984  10.403  14.792
30173SOL    HW292417   6.113  10.329  14.768
30174SOL     OW92418   9.322  12.054  11.072
30174SOL    HW192419   9.379  11.979  11.090
30174SOL    HW292420   9.257  12.051  11.142
30175SOL     OW92421  13.917   0.766   4.941
30175SOL    HW192422  13.908   0.772   5.036
30175SOL    HW292423  13.990   0.825   4.920
30176SOL     OW92424   6.400   7.657   8.441
30176SOL    HW192425   6.480   7.608   8.424
30176SOL    HW292426   6.382   7.642   8.534
30177SOL     OW92427   3.934   3.820   4.534
30177SOL    HW192428   3.956   3.735   4.572
30177SOL    HW292429   4.004   3.878   4.563
30178SOL     OW92430  13.723  11.990  10.550
30178SOL    HW192431  13.705  11.985  10.644
30178SOL    HW292432  13.807  11.946  10.539
30179SOL     OW92433  10.119   3.749   2.084
30179SOL    HW192434  10.203   3.782   2.054
30179SOL    HW292435  10.061   3.757   2.008
30180SOL     OW92436   3.673   7.896  13.772
30180SOL    HW192437   3.643   7.976  13.729
30180SOL    HW292438   3.623   7.891  13.853
30181SOL     OW92439  10.726   5.061  10.398
30181SOL    HW192440  10.782   4.999  10.446
30181SOL    HW292441  10.775   5.079  10.317
30182SOL     OW92442   4.446  11.636  13.958
30182SOL    HW192443   4.540  11.619  13.968
30182SOL    HW292444   4.409  11.551  13.932
30183SOL     OW92445  12.389   7.094   7.045
30183SOL    HW192446  12.361   7.134   6.963
30183SOL    HW292447  12.482   7.114   7.052
30184SOL     OW92448   9.827   5.873   3.224
30184SOL    HW192449   9.758   5.822   3.267
30184SOL    HW292450   9.816   5.962   3.258
30185SOL     OW92451  14.498   6.744  14.232
30185SOL    HW192452  14.429   6.720  14.170
30185SOL    HW292453  14.468   6.826  14.272
30186SOL     OW92454   8.030   7.063   2.978
30186SOL    HW192455   7.951   7.116   2.971
30186SOL    HW292456   8.054   7.044   2.887
30187SOL     OW92457   7.366   3.132   0.435
30187SOL    HW192458   7.381   3.193   0.362
30187SOL    HW292459   7.403   3.049   0.403
30188SOL     OW92460   6.813   4.701   6.987
30188SOL    HW192461   6.743   4.747   7.032
30188SOL    HW292462   6.893   4.729   7.031
30189SOL     OW92463   2.714  12.303  13.807
30189SOL    HW192464   2.668  12.381  13.777
30189SOL    HW292465   2.647  12.252  13.853
30190SOL     OW92466   4.113  13.585  13.971
30190SOL    HW192467   4.067  13.595  14.054
30190SOL    HW292468   4.057  13.525  13.921
30191SOL     OW92469   8.716   4.275  12.307
30191SOL    HW192470   8.734   4.305  12.218
30191SOL    HW292471   8.629   4.235  12.303
30192SOL     OW92472   4.631   9.781  10.502
30192SOL    HW192473   4.536   9.771  10.496
30192SOL    HW292474   4.656   9.825  10.421
30193SOL     OW92475   2.176  11.785   3.255
30193SOL    HW192476   2.081  11.784   3.262
30193SOL    HW292477   2.199  11.700   3.218
30194SOL     OW92478   4.772   5.304   2.188
30194SOL    HW192479   4.794   5.395   2.205
30194SOL    HW292480   4.743   5.270   2.273
30195SOL     OW92481  11.381  14.076  12.313
30195SOL    HW192482  11.319  14.012  12.347
30195SOL    HW292483  11.467  14.046  12.343
30196SOL     OW92484   1.613   8.345   0.192
30196SOL    HW192485   1.554   8.275   0.165
30196SOL    HW292486   1.696   8.300   0.209
30197SOL     OW92487   3.330  10.602   5.675
30197SOL    HW192488   3.405  10.543   5.684
30197SOL    HW292489   3.294  10.609   5.763
30198SOL     OW92490   1.753   5.170   7.252
30198SOL    HW192491   1.840   5.146   7.285
30198SOL    HW292492   1.719   5.233   7.315
30199SOL     OW92493   7.296   9.325   9.191
30199SOL    HW192494   7.385   9.349   9.216
30199SOL    HW292495   7.247   9.407   9.191
30200SOL     OW92496   0.595   0.366  12.840
30200SOL    HW192497   0.657   0.293  12.836
30200SOL    HW292498   0.649   0.444  12.848
30201SOL     OW92499  11.107   9.705  14.014
30201SOL    HW192500  11.129   9.724  14.105
30201SOL    HW292501  11.026   9.655  14.019
30202SOL     OW92502   0.266   8.408   6.526
30202SOL    HW192503   0.175   8.381   6.513
30202SOL    HW292504   0.315   8.326   6.525
30203SOL     OW92505   9.619  11.281  14.745
30203SOL    HW192506   9.577  11.279  14.831
30203SOL    HW292507   9.700  11.331  14.759
30204SOL     OW92508  12.531   2.332   1.771
30204SOL    HW192509  12.441   2.324   1.742
30204SOL    HW292510  12.525   2.360   1.862
30205SOL     OW92511  13.408   8.615  12.197
30205SOL    HW192512  13.349   8.574  12.133
30205SOL    HW292513  13.495   8.586  12.169
30206SOL     OW92514   6.093  11.437   0.070
30206SOL    HW192515   6.176  11.415   0.111
30206SOL    HW292516   6.074  11.361   0.014
30207SOL     OW92517   1.271   2.206   5.754
30207SOL    HW192518   1.250   2.112   5.757
30207SOL    HW292519   1.237   2.236   5.670
30208SOL     OW92520   4.636  10.926   4.820
30208SOL    HW192521   4.674  10.922   4.732
30208SOL    HW292522   4.710  10.946   4.877
30209SOL     OW92523  14.639   3.432  12.984
30209SOL    HW192524  14.593   3.488  13.047
30209SOL    HW292525  14.725   3.418  13.023
30210SOL     OW92526   2.054   8.664   5.281
30210SOL    HW192527   2.022   8.580   5.246
30210SOL    HW292528   2.038   8.659   5.375
30211SOL     OW92529   5.903  11.933   0.567
30211SOL    HW192530   5.923  12.021   0.597
30211SOL    HW292531   5.897  11.940   0.472
30212SOL     OW92532   1.458   3.091   4.911
30212SOL    HW192533   1.392   3.055   4.852
30212SOL    HW292534   1.421   3.082   4.998
30213SOL     OW92535   3.410   1.726  13.853
30213SOL    HW192536   3.385   1.636  13.875
30213SOL    HW292537   3.505   1.727  13.864
30214SOL     OW92538   5.540   1.575  12.219
30214SOL    HW192539   5.472   1.587  12.152
30214SOL    HW292540   5.509   1.626  12.294
30215SOL     OW92541   8.165  12.948   7.810
30215SOL    HW192542   8.110  13.008   7.761
30215SOL    HW292543   8.176  12.872   7.752
30216SOL     OW92544   4.818   0.916   3.105
30216SOL    HW192545   4.816   0.998   3.056
30216SOL    HW292546   4.734   0.913   3.151
30217SOL     OW92547   3.753  13.672   6.347
30217SOL    HW192548   3.692  13.604   6.374
30217SOL    HW292549   3.813  13.681   6.420
30218SOL     OW92550   1.438   6.968  12.293
30218SOL    HW192551   1.346   6.982  12.316
30218SOL    HW292552   1.450   6.873  12.302
30219SOL     OW92553  12.086  13.911   1.818
30219SOL    HW192554  12.135  13.845   1.867
30219SOL    HW292555  12.032  13.955   1.884
30220SOL     OW92556  13.304   4.930   1.666
30220SOL    HW192557  13.237   4.942   1.600
30220SOL    HW292558  13.265   4.872   1.731
30221SOL     OW92559   4.942   1.336  11.340
30221SOL    HW192560   4.994   1.272  11.389
30221SOL    HW292561   4.982   1.420  11.361
30222SOL     OW92562  14.234   1.246   0.079
30222SOL    HW192563  14.198   1.238  14.868
30222SOL    HW292564  14.275   1.161   0.096
30223SOL     OW92565   1.366   6.461   0.568
30223SOL    HW192566   1.422   6.539   0.576
30223SOL    HW292567   1.413   6.393   0.616
30224SOL     OW92568   7.401  13.142   5.041
30224SOL    HW192569   7.418  13.138   5.135
30224SOL    HW292570   7.483  13.172   5.002
30225SOL     OW92571  12.196   5.001   1.886
30225SOL    HW192572  12.142   4.923   1.877
30225SOL    HW292573  12.269   4.973   1.941
30226SOL     OW92574  14.508   7.793   2.637
30226SOL    HW192575  14.421   7.802   2.600
30226SOL    HW292576  14.551   7.877   2.618
30227SOL     OW92577  10.150   3.034   5.541
30227SOL    HW192578  10.190   3.114   5.506
30227SOL    HW292579  10.218   2.994   5.594
30228SOL     OW92580   1.458   8.151   9.399
30228SOL    HW192581   1.397   8.112   9.461
30228SOL    HW292582   1.473   8.240   9.431
30229SOL     OW92583   6.805   1.182   9.121
30229SOL    HW192584   6.749   1.174   9.198
30229SOL    HW292585   6.770   1.118   9.059
30230SOL     OW92586   2.158  12.085   2.720
30230SOL    HW192587   2.207  12.023   2.665
30230SOL    HW292588   2.224  12.148   2.749
30231SOL     OW92589  12.333   4.345   0.963
30231SOL    HW192590  12.301   4.388   0.883
30231SOL    HW292591  12.281   4.384   1.033
30232SOL     OW92592   8.767  10.174   3.056
30232SOL    HW192593   8.772  10.196   2.963
30232SOL    HW292594   8.743  10.257   3.098
30233SOL     OW92595   9.045  14.317  14.277
30233SOL    HW192596   9.033  14.412  14.281
30233SOL    HW292597   9.064  14.292  14.368
30234SOL     OW92598   8.845   6.144   8.293
30234SOL    HW192599   8.830   6.086   8.219
30234SOL    HW292600   8.781   6.215   8.281
30235SOL     OW92601   5.730  12.551   7.271
30235SOL    HW192602   5.658  12.606   7.301
30235SOL    HW292603   5.692  12.462   7.270
30236SOL     OW92604   3.707   5.631   7.131
30236SOL    HW192605   3.780   5.614   7.191
30236SOL    HW292606   3.660   5.548   7.126
30237SOL     OW92607   1.565  13.397   8.761
30237SOL    HW192608   1.563  13.429   8.851
30237SOL    HW292609   1.653  13.419   8.730
30238SOL     OW92610   5.421   5.078  13.953
30238SOL    HW192611   5.469   5.129  13.887
30238SOL    HW292612   5.341   5.128  13.969
30239SOL     OW92613   7.430   8.401   2.169
30239SOL    HW192614   7.442   8.335   2.237
30239SOL    HW292615   7.339   8.390   2.141
30240SOL     OW92616   4.862   9.831   6.070
30240SOL    HW192617   4.787   9.809   6.015
30240SOL    HW292618   4.935   9.780   6.033
30241SOL     OW92619   3.719   6.533   7.827
30241SOL    HW192620   3.800   6.492   7.859
30241SOL    HW292621   3.649   6.493   7.879
30242SOL     OW92622   8.840   7.907   4.507
30242SOL    HW192623   8.885   7.990   4.515
30242SOL    HW292624   8.828   7.876   4.596
30243SOL     OW92625   3.047   5.215   0.252
30243SOL    HW192626   3.135   5.203   0.289
30243SOL    HW292627   3.050   5.301   0.210
30244SOL     OW92628  13.783  13.112  12.315
30244SOL    HW192629  13.733  13.193  12.325
30244SOL    HW292630  13.765  13.084  12.226
30245SOL     OW92631  11.365   2.979   2.615
30245SOL    HW192632  11.290   2.922   2.598
30245SOL    HW292633  11.427   2.959   2.544
30246SOL     OW92634   0.381   6.367   2.995
30246SOL    HW192635   0.421   6.357   3.081
30246SOL    HW292636   0.344   6.455   2.996
30247SOL     OW92637   1.040   6.713  14.096
30247SOL    HW192638   0.969   6.716  14.033
30247SOL    HW292639   1.011   6.768  14.169
30248SOL     OW92640   5.253   2.268  10.870
30248SOL    HW192641   5.220   2.314  10.793
30248SOL    HW292642   5.347   2.286  10.870
30249SOL     OW92643  13.530   0.316  11.974
30249SOL    HW192644  13.543   0.265  12.054
30249SOL    HW292645  13.435   0.331  11.971
30250SOL     OW92646  11.027  13.608   1.533
30250SOL    HW192647  11.036  13.585   1.626
30250SOL    HW292648  10.942  13.651   1.527
30251SOL     OW92649   7.043   2.086   8.165
30251SOL    HW192650   7.123   2.138   8.167
30251SOL    HW292651   7.040   2.042   8.250
30252SOL     OW92652   3.846  14.202   2.648
30252SOL    HW192653   3.780  14.183   2.714
30252SOL    HW292654   3.928  14.208   2.697
30253SOL     OW92655  11.318  10.847  14.638
30253SOL    HW192656  11.394  10.847  14.697
30253SOL    HW292657  11.295  10.939  14.629
30254SOL     OW92658   0.049   5.701   7.455
30254SOL    HW192659  14.861   5.734   7.394
30254SOL    HW292660   0.025   5.737   7.539
30255SOL     OW92661   5.907  11.290   6.674
30255SOL    HW192662   5.974  11.291   6.742
30255SOL    HW292663   5.890  11.383   6.656
30256SOL     OW92664  13.514   4.690   3.490
30256SOL    HW192665  13.586   4.642   3.531
30256SOL    HW292666  13.452   4.622   3.465
30257SOL     OW92667   7.092  10.190   2.655
30257SOL    HW192668   7.152  10.152   2.721
30257SOL    HW292669   7.050  10.114   2.615
30258SOL     OW92670   4.261   9.524   2.986
30258SOL    HW192671   4.256   9.432   3.013
30258SOL    HW292672   4.219   9.525   2.899
30259SOL     OW92673   1.572   9.264   2.805
30259SOL    HW192674   1.643   9.306   2.757
30259SOL    HW292675   1.546   9.329   2.871
30260SOL     OW92676   5.308  13.243   8.701
30260SOL    HW192677   5.311  13.150   8.677
30260SOL    HW292678   5.383  13.255   8.760
30261SOL     OW92679   2.586   8.004   4.591
30261SOL    HW192680   2.605   8.042   4.505
30261SOL    HW292681   2.613   8.071   4.654
30262SOL     OW92682   2.101   5.327   4.586
30262SOL    HW192683   2.048   5.359   4.513
30262SOL    HW292684   2.071   5.377   4.662
30263SOL     OW92685  13.107  13.486   9.966
30263SOL    HW192686  13.131  13.394   9.975
30263SOL    HW292687  13.187  13.528   9.933
30264SOL     OW92688  12.545   2.653   2.170
30264SOL    HW192689  12.603   2.710   2.222
30264SOL    HW292690  12.538   2.697   2.086
30265SOL     OW92691   7.198   4.149   7.834
30265SOL    HW192692   7.110   4.144   7.796
30265SOL    HW292693   7.183   4.156   7.929
30266SOL     OW92694   4.968   8.775   1.538
30266SOL    HW192695   4.962   8.792   1.444
30266SOL    HW292696   4.893   8.821   1.575
30267SOL     OW92697   4.870   6.670  12.815
30267SOL    HW192698   4.840   6.599  12.759
30267SOL    HW292699   4.953   6.698  12.776
30268SOL     OW92700   2.045  13.892   9.615
30268SOL    HW192701   2.093  13.870   9.694
30268SOL    HW292702   2.013  13.808   9.582
30269SOL     OW92703  11.521  13.392   5.132
30269SOL    HW192704  11.597  13.424   5.084
30269SOL    HW292705  11.474  13.339   5.068
30270SOL     OW92706  14.158   7.798   2.946
30270SOL    HW192707  14.172   7.707   2.919
30270SOL    HW292708  14.081   7.794   3.003
30271SOL     OW92709  11.712   3.861  14.106
30271SOL    HW192710  11.716   3.770  14.135
30271SOL    HW292711  11.618   3.879  14.099
30272SOL     OW92712   8.108   4.887   3.010
30272SOL    HW192713   8.025   4.916   3.048
30272SOL    HW292714   8.174   4.943   3.052
30273SOL     OW92715   0.722   0.543   8.715
30273SOL    HW192716   0.752   0.500   8.636
30273SOL    HW292717   0.627   0.528   8.716
30274SOL     OW92718   4.132   9.602   2.252
30274SOL    HW192719   4.083   9.549   2.189
30274SOL    HW292720   4.223   9.599   2.220
30275SOL     OW92721   3.535  14.078   1.407
30275SOL    HW192722   3.475  14.043   1.341
30275SOL    HW292723   3.492  14.158   1.437
30276SOL     OW92724  12.157   3.042   9.849
30276SOL    HW192725  12.076   3.011   9.808
30276SOL    HW292726  12.144   3.136   9.858
30277SOL     OW92727   7.187  12.563   5.930
30277SOL    HW192728   7.123  12.496   5.907
30277SOL    HW292729   7.245  12.521   5.993
30278SOL     OW92730  14.111  10.904   8.902
30278SOL    HW192731  14.037  10.844   8.890
30278SOL    HW292732  14.188  10.848   8.892
30279SOL     OW92733   7.770  11.043  10.240
30279SOL    HW192734   7.744  10.998  10.159
30279SOL    HW292735   7.852  11.001  10.266
30280SOL     OW92736  14.574   6.757   2.873
30280SOL    HW192737  14.666   6.739   2.892
30280SOL    HW292738  14.565   6.743   2.779
30281SOL     OW92739   1.155  13.596  14.228
30281SOL    HW192740   1.202  13.624  14.149
30281SOL    HW292741   1.077  13.651  14.230
30282SOL     OW92742  14.734   5.369  11.484
30282SOL    HW192743  14.679   5.432  11.531
30282SOL    HW292744  14.762   5.415  11.405
30283SOL     OW92745  14.248  13.158   7.228
30283SOL    HW192746  14.255  13.243   7.270
30283SOL    HW292747  14.169  13.163   7.175
30284SOL     OW92748   3.070   3.053   9.970
30284SOL    HW192749   3.112   2.992   9.909
30284SOL    HW292750   3.118   3.135   9.957
30285SOL     OW92751  11.595  12.517   9.828
30285SOL    HW192752  11.665  12.580   9.845
30285SOL    HW292753  11.547  12.511   9.910
30286SOL     OW92754  13.862   9.355  12.236
30286SOL    HW192755  13.834   9.364  12.145
30286SOL    HW292756  13.810   9.419  12.284
30287SOL     OW92757  13.987   8.800  11.625
30287SOL    HW192758  14.040   8.733  11.669
30287SOL    HW292759  13.986   8.772  11.533
30288SOL     OW92760   1.800   5.828   4.123
30288SOL    HW192761   1.824   5.876   4.202
30288SOL    HW292762   1.870   5.849   4.060
30289SOL     OW92763   9.820  10.540   6.002
30289SOL    HW192764   9.752  10.510   5.942
30289SOL    HW292765   9.784  10.522   6.089
30290SOL     OW92766  13.256   5.537  12.585
30290SOL    HW192767  13.237   5.470  12.519
30290SOL    HW292768  13.184   5.600  12.577
30291SOL     OW92769   0.433   1.664  11.137
30291SOL    HW192770   0.338   1.655  11.144
30291SOL    HW292771   0.462   1.679  11.226
30292SOL     OW92772  13.091   5.497  12.153
30292SOL    HW192773  13.036   5.423  12.128
30292SOL    HW292774  13.090   5.554  12.076
30293SOL     OW92775   8.601  10.720   1.535
30293SOL    HW192776   8.585  10.813   1.515
30293SOL    HW292777   8.597  10.676   1.450
30294SOL     OW92778   0.008   0.040   1.254
30294SOL    HW192779  14.804   0.089   1.261
30294SOL    HW292780   0.031   0.044   1.161
30295SOL     OW92781   8.066  10.509  11.213
30295SOL    HW192782   8.019  10.445  11.266
30295SOL    HW292783   8.103  10.458  11.141
30296SOL     OW92784  10.357   7.302   7.152
30296SOL    HW192785  10.443   7.272   7.182
30296SOL    HW292786  10.346   7.387   7.193
30297SOL     OW92787   9.940  11.363   4.443
30297SOL    HW192788   9.891  11.319   4.373
30297SOL    HW292789   9.920  11.312   4.521
30298SOL     OW92790  10.051  14.073  13.802
30298SOL    HW192791  10.145  14.083  13.788
30298SOL    HW292792  10.044  14.007  13.871
30299SOL     OW92793   6.197   4.040  14.521
30299SOL    HW192794   6.221   3.950  14.499
30299SOL    HW292795   6.223   4.050  14.613
30300SOL     OW92796  12.348   2.428   6.802
30300SOL    HW192797  12.264   2.450   6.842
30300SOL    HW292798  12.328   2.413   6.710
30301SOL     OW92799  11.408   6.387   0.340
30301SOL    HW192800  11.481   6.327   0.357
30301SOL    HW292801  11.335   6.330   0.317
30302SOL     OW92802   5.346   2.293   3.223
30302SOL    HW192803   5.300   2.235   3.284
30302SOL    HW292804   5.278   2.325   3.164
30303SOL     OW92805  11.189  14.055   6.170
30303SOL    HW192806  11.254  14.042   6.100
30303SOL    HW292807  11.179  13.969   6.210
30304SOL     OW92808   0.707   3.625  13.487
30304SOL    HW192809   0.644   3.636  13.558
30304SOL    HW292810   0.777   3.688  13.507
30305SOL     OW92811   4.800   8.378  11.063
30305SOL    HW192812   4.761   8.462  11.040
30305SOL    HW292813   4.878   8.372  11.009
30306SOL     OW92814  10.471   0.887   4.380
30306SOL    HW192815  10.537   0.834   4.334
30306SOL    HW292816  10.478   0.974   4.339
30307SOL     OW92817   6.801  14.061  13.884
30307SOL    HW192818   6.711  14.044  13.859
30307SOL    HW292819   6.852  14.048  13.804
30308SOL     OW92820   7.933   5.962  14.433
30308SOL    HW192821   7.902   6.022  14.500
30308SOL    HW292822   7.955   6.019  14.358
30309SOL     OW92823   8.240  12.935   9.550
30309SOL    HW192824   8.301  13.007   9.531
30309SOL    HW292825   8.220  12.898   9.464
30310SOL     OW92826  10.066  11.566   3.376
30310SOL    HW192827  10.091  11.483   3.336
30310SOL    HW292828  10.096  11.560   3.467
30311SOL     OW92829   0.180   2.044  13.759
30311SOL    HW192830   0.269   2.058  13.729
30311SOL    HW292831   0.190   2.004  13.846
30312SOL     OW92832   9.806   8.548  11.696
30312SOL    HW192833   9.786   8.629  11.744
30312SOL    HW292834   9.732   8.535  11.638
30313SOL     OW92835   0.095  14.247   5.101
30313SOL    HW192836   0.044  14.257   5.181
30313SOL    HW292837   0.080  14.328   5.052
30314SOL     OW92838  12.495   2.497   9.467
30314SOL    HW192839  12.474   2.578   9.421
30314SOL    HW292840  12.536   2.441   9.401
30315SOL     OW92841   0.422   5.004   6.675
30315SOL    HW192842   0.420   5.025   6.582
30315SOL    HW292843   0.352   4.940   6.687
30316SOL     OW92844   9.477  10.160  13.330
30316SOL    HW192845   9.463  10.147  13.423
30316SOL    HW292846   9.388  10.165  13.293
30317SOL     OW92847   3.808   9.987   3.256
30317SOL    HW192848   3.830  10.063   3.202
30317SOL    HW292849   3.793  10.023   3.344
30318SOL     OW92850   4.669   4.028  12.189
30318SOL    HW192851   4.649   4.119  12.169
30318SOL    HW292852   4.764   4.021  12.178
30319SOL     OW92853   0.918   8.654   4.712
30319SOL    HW192854   0.863   8.664   4.634
30319SOL    HW292855   0.998   8.613   4.679
30320SOL     OW92856  14.306  14.277  12.429
30320SOL    HW192857  14.268  14.345  12.484
30320SOL    HW292858  14.375  14.239  12.483
30321SOL     OW92859  12.196   2.098   0.355
30321SOL    HW192860  12.260   2.070   0.289
30321SOL    HW292861  12.219   2.190   0.373
30322SOL     OW92862  14.049   4.219  10.332
30322SOL    HW192863  14.094   4.186  10.254
30322SOL    HW292864  14.110   4.202  10.404
30323SOL     OW92865   9.672   2.639  13.189
30323SOL    HW192866   9.734   2.650  13.116
30323SOL    HW292867   9.586   2.634  13.147
30324SOL     OW92868   7.404  11.660   9.543
30324SOL    HW192869   7.462  11.651   9.618
30324SOL    HW292870   7.431  11.590   9.483
30325SOL     OW92871   0.432   0.068  10.873
30325SOL    HW192872   0.523   0.094  10.881
30325SOL    HW292873   0.418   0.006  10.945
30326SOL     OW92874  13.349   4.952   0.413
30326SOL    HW192875  13.430   5.002   0.420
30326SOL    HW292876  13.322   4.961   0.322
30327SOL     OW92877  12.453   6.660   8.152
30327SOL    HW192878  12.494   6.590   8.102
30327SOL    HW292879  12.368   6.673   8.111
30328SOL     OW92880   4.822  12.623   6.395
30328SOL    HW192881   4.898  12.671   6.427
30328SOL    HW292882   4.823  12.637   6.300
30329SOL     OW92883   3.244   9.311  13.342
30329SOL    HW192884   3.318   9.323  13.283
30329SOL    HW292885   3.171   9.355  13.298
30330SOL     OW92886   2.522  12.872   9.633
30330SOL    HW192887   2.594  12.816   9.662
30330SOL    HW292888   2.443  12.820   9.651
30331SOL     OW92889  12.938  10.701  12.842
30331SOL    HW192890  12.912  10.787  12.809
30331SOL    HW292891  13.031  10.711  12.863
30332SOL     OW92892   7.640  11.722  13.105
30332SOL    HW192893   7.654  11.810  13.141
30332SOL    HW292894   7.682  11.724  13.019
30333SOL     OW92895  11.526  11.030   0.399
30333SOL    HW192896  11.496  10.955   0.451
30333SOL    HW292897  11.605  11.060   0.444
30334SOL     OW92898  12.155   5.499  14.247
30334SOL    HW192899  12.184   5.493  14.338
30334SOL    HW292900  12.227   5.460  14.197
30335SOL     OW92901   7.172  13.306  11.150
30335SOL    HW192902   7.226  13.232  11.121
30335SOL    HW292903   7.082  13.275  11.142
30336SOL     OW92904  12.382  10.918   2.021
30336SOL    HW192905  12.404  10.922   2.114
30336SOL    HW292906  12.457  10.956   1.976
30337SOL     OW92907   7.009   9.975  11.441
30337SOL    HW192908   6.945   9.905  11.450
30337SOL    HW292909   6.964  10.052  11.476
30338SOL     OW92910   8.082  11.933   5.183
30338SOL    HW192911   7.988  11.940   5.164
30338SOL    HW292912   8.125  11.965   5.103
30339SOL     OW92913  12.407   8.887   7.490
30339SOL    HW192914  12.418   8.792   7.486
30339SOL    HW292915  12.361   8.909   7.409
30340SOL     OW92916   9.250  11.281   2.172
30340SOL    HW192917   9.161  11.292   2.208
30340SOL    HW292918   9.247  11.196   2.129
30341SOL     OW92919  13.125   6.316   5.105
30341SOL    HW192920  13.034   6.337   5.085
30341SOL    HW292921  13.175   6.360   5.036
30342SOL     OW92922   5.817  13.992  10.931
30342SOL    HW192923   5.740  13.936  10.947
30342SOL    HW292924   5.883  13.932  10.897
30343SOL     OW92925   2.666   3.687   6.560
30343SOL    HW192926   2.742   3.691   6.619
30343SOL    HW292927   2.641   3.595   6.560
30344SOL     OW92928   1.385   7.609   8.209
30344SOL    HW192929   1.306   7.663   8.203
30344SOL    HW292930   1.409   7.593   8.117
30345SOL     OW92931   9.709   1.015   2.983
30345SOL    HW192932   9.703   1.103   2.946
30345SOL    HW292933   9.675   1.024   3.072
30346SOL     OW92934  10.628   2.976  12.416
30346SOL    HW192935  10.607   3.045  12.353
30346SOL    HW292936  10.642   3.023  12.499
30347SOL     OW92937   3.322   3.382   0.500
30347SOL    HW192938   3.261   3.452   0.524
30347SOL    HW292939   3.277   3.335   0.429
30348SOL     OW92940   6.963   9.792   6.494
30348SOL    HW192941   6.943   9.738   6.418
30348SOL    HW292942   6.930   9.742   6.568
30349SOL     OW92943   0.507  11.702   5.263
30349SOL    HW192944   0.429  11.740   5.302
30349SOL    HW292945   0.482  11.683   5.173
30350SOL     OW92946  10.242   5.540  14.859
30350SOL    HW192947  10.174   5.533  14.791
30350SOL    HW292948  10.202   5.595   0.049
30351SOL     OW92949   1.781  14.072  12.856
30351SOL    HW192950   1.801  14.037  12.769
30351SOL    HW292951   1.864  14.105  12.889
30352SOL     OW92952   3.821  13.334   5.830
30352SOL    HW192953   3.863  13.250   5.808
30352SOL    HW292954   3.826  13.338   5.925
30353SOL     OW92955   1.039  14.009   7.760
30353SOL    HW192956   1.111  14.066   7.789
30353SOL    HW292957   1.083  13.939   7.712
30354SOL     OW92958   5.095  11.920   8.469
30354SOL    HW192959   5.050  11.944   8.388
30354SOL    HW292960   5.030  11.873   8.520
30355SOL     OW92961  12.639   7.880   1.286
30355SOL    HW192962  12.718   7.860   1.337
30355SOL    HW292963  12.640   7.816   1.215
30356SOL     OW92964   8.078   8.169   4.729
30356SOL    HW192965   8.148   8.200   4.672
30356SOL    HW292966   8.107   8.082   4.758
30357SOL     OW92967  10.917   4.047  10.493
30357SOL    HW192968  10.928   3.957  10.523
30357SOL    HW292969  10.827   4.070  10.518
30358SOL     OW92970  14.252   3.716   9.639
30358SOL    HW192971  14.244   3.809   9.660
30358SOL    HW292972  14.167   3.693   9.601
30359SOL     OW92973   8.165  12.219   0.819
30359SOL    HW192974   8.221  12.254   0.888
30359SOL    HW292975   8.107  12.292   0.795
30360SOL     OW92976   1.282  14.842   8.166
30360SOL    HW192977   1.245   0.031   8.109
30360SOL    HW292978   1.254  14.759   8.127
30361SOL     OW92979  13.033   9.832   9.691
30361SOL    HW192980  13.082   9.836   9.773
30361SOL    HW292981  12.946   9.864   9.713
30362SOL     OW92982   8.356  12.713   6.670
30362SOL    HW192983   8.438  12.673   6.700
30362SOL    HW292984   8.313  12.744   6.749
30363SOL     OW92985   0.763   4.487   2.548
30363SOL    HW192986   0.782   4.550   2.479
30363SOL    HW292987   0.823   4.511   2.619
30364SOL     OW92988   5.186  14.650   4.002
30364SOL    HW192989   5.269  14.678   3.964
30364SOL    HW292990   5.151  14.588   3.938
30365SOL     OW92991   2.350   1.091   4.053
30365SOL    HW192992   2.337   1.125   4.142
30365SOL    HW292993   2.399   1.160   4.008
30366SOL     OW92994   1.789   5.926   6.443
30366SOL    HW192995   1.728   5.906   6.373
30366SOL    HW292996   1.876   5.917   6.404
30367SOL     OW92997   1.097   1.648   1.137
30367SOL    HW192998   1.193   1.644   1.145
30367SOL    HW292999   1.072   1.559   1.113
30368SOL     OW93000  10.599   1.793   6.038
30368SOL    HW193001  10.544   1.817   6.113
30368SOL    HW293002  10.537   1.761   5.972
30369SOL     OW93003   1.344  10.922   9.356
30369SOL    HW193004   1.374  10.994   9.301
30369SOL    HW293005   1.412  10.855   9.347
30370SOL     OW93006   9.180   6.513   6.227
30370SOL    HW193007   9.235   6.443   6.192
30370SOL    HW293008   9.099   6.470   6.252
30371SOL     OW93009  13.607   0.481   7.024
30371SOL    HW193010  13.604   0.564   6.975
30371SOL    HW293011  13.701   0.462   7.032
30372SOL     OW93012  10.979   2.592   2.192
30372SOL    HW193013  10.901   2.553   2.231
30372SOL    HW293014  10.974   2.571   2.099
30373SOL     OW93015  10.008   2.566   7.061
30373SOL    HW193016   9.914   2.561   7.044
30373SOL    HW293017  10.021   2.514   7.140
30374SOL     OW93018   5.484   4.051  12.589
30374SOL    HW193019   5.506   4.130  12.541
30374SOL    HW293020   5.524   3.980  12.538
30375SOL     OW93021   3.471  13.884   8.605
30375SOL    HW193022   3.395  13.831   8.578
30375SOL    HW293023   3.542  13.821   8.615
30376SOL     OW93024  10.315  10.087   9.574
30376SOL    HW193025  10.277  10.051   9.495
30376SOL    HW293026  10.278  10.034   9.645
30377SOL     OW93027   9.954   7.197   7.183
30377SOL    HW193028   9.918   7.137   7.117
30377SOL    HW293029   9.958   7.281   7.138
30378SOL     OW93030   0.739   1.868  13.235
30378SOL    HW193031   0.705   1.809  13.303
30378SOL    HW293032   0.809   1.818  13.194
30379SOL     OW93033   1.023  12.959   7.927
30379SOL    HW193034   0.968  12.901   7.980
30379SOL    HW293035   1.104  12.910   7.915
30380SOL     OW93036  14.436  13.054   4.704
30380SOL    HW193037  14.387  13.122   4.658
30380SOL    HW293038  14.401  13.055   4.793
30381SOL     OW93039   0.343  10.813   1.104
30381SOL    HW193040   0.352  10.907   1.091
30381SOL    HW293041   0.366  10.799   1.196
30382SOL     OW93042   6.869   2.091   6.076
30382SOL    HW193043   6.873   2.179   6.113
30382SOL    HW293044   6.945   2.085   6.019
30383SOL     OW93045   7.145   3.152   8.661
30383SOL    HW193046   7.186   3.197   8.735
30383SOL    HW293047   7.069   3.109   8.699
30384SOL     OW93048  12.522   8.040   3.563
30384SOL    HW193049  12.558   7.957   3.594
30384SOL    HW293050  12.570   8.107   3.611
30385SOL     OW93051   3.781   0.399  11.951
30385SOL    HW193052   3.731   0.458  11.894
30385SOL    HW293053   3.871   0.432  11.947
30386SOL     OW93054   6.163  10.697  11.283
30386SOL    HW193055   6.076  10.716  11.247
30386SOL    HW293056   6.224  10.741  11.224
30387SOL     OW93057  11.009   9.880  10.723
30387SOL    HW193058  10.970   9.966  10.704
30387SOL    HW293059  10.975   9.856  10.809
30388SOL     OW93060   6.695   6.022  10.646
30388SOL    HW193061   6.623   6.080  10.671
30388SOL    HW293062   6.772   6.061  10.688
30389SOL     OW93063   3.713  14.206   8.647
30389SOL    HW193064   3.730  14.141   8.715
30389SOL    HW293065   3.766  14.282   8.672
30390SOL     OW93066   1.248   4.600   5.784
30390SOL    HW193067   1.193   4.545   5.840
30390SOL    HW293068   1.223   4.578   5.695
30391SOL     OW93069  14.216   6.497  13.591
30391SOL    HW193070  14.142   6.556  13.601
30391SOL    HW293071  14.220   6.478  13.498
30392SOL     OW93072   5.566   1.874   5.062
30392SOL    HW193073   5.640   1.814   5.061
30392SOL    HW293074   5.570   1.916   5.148
30393SOL     OW93075   5.304   0.502  10.268
30393SOL    HW193076   5.302   0.570  10.335
30393SOL    HW293077   5.248   0.432  10.302
30394SOL     OW93078  13.003  12.332   1.541
30394SOL    HW193079  12.921  12.357   1.584
30394SOL    HW293080  12.988  12.242   1.511
30395SOL     OW93081   4.448   3.891   0.968
30395SOL    HW193082   4.488   3.853   0.890
30395SOL    HW293083   4.460   3.826   1.037
30396SOL     OW93084   6.096   8.730   3.993
30396SOL    HW193085   6.002   8.717   4.004
30396SOL    HW293086   6.119   8.672   3.920
30397SOL     OW93087   4.283  10.395   6.753
30397SOL    HW193088   4.245  10.318   6.795
30397SOL    HW293089   4.250  10.469   6.804
30398SOL     OW93090  13.739   3.916   0.312
30398SOL    HW193091  13.735   3.990   0.252
30398SOL    HW293092  13.830   3.887   0.307
30399SOL     OW93093   5.101  11.370  13.334
30399SOL    HW193094   5.136  11.434  13.395
30399SOL    HW293095   5.038  11.419  13.281
30400SOL     OW93096  14.781  12.455   3.152
30400SOL    HW193097  14.764  12.366   3.122
30400SOL    HW293098  14.725  12.510   3.098
30401SOL     OW93099   6.921  13.651   8.044
30401SOL    HW193100   6.880  13.672   8.128
30401SOL    HW293101   7.015  13.662   8.060
30402SOL     OW93102   2.373   2.969   0.026
30402SOL    HW193103   2.438   2.933  14.844
30402SOL    HW293104   2.415   3.048   0.062
30403SOL     OW93105   9.651   6.938  12.034
30403SOL    HW193106   9.706   6.873  12.078
30403SOL    HW293107   9.692   7.022  12.057
30404SOL     OW93108  12.186   9.605   1.362
30404SOL    HW193109  12.263   9.572   1.316
30404SOL    HW293110  12.221   9.648   1.440
30405SOL     OW93111   0.034  10.631   4.854
30405SOL    HW193112   0.025  10.547   4.809
30405SOL    HW293113   0.123  10.630   4.890
30406SOL     OW93114   2.177   4.969   9.635
30406SOL    HW193115   2.270   4.945   9.642
30406SOL    HW293116   2.162   5.028   9.709
30407SOL     OW93117   1.691  10.425  14.082
30407SOL    HW193118   1.613  10.480  14.075
30407SOL    HW293119   1.710  10.401  13.991
30408SOL     OW93120  11.763  12.988   6.083
30408SOL    HW193121  11.739  13.079   6.096
30408SOL    HW293122  11.686  12.948   6.043
30409SOL     OW93123  12.414   4.721  10.183
30409SOL    HW193124  12.484   4.701  10.245
30409SOL    HW293125  12.347   4.654  10.200
30410SOL     OW93126  11.827  11.669   8.829
30410SOL    HW193127  11.890  11.713   8.887
30410SOL    HW293128  11.853  11.577   8.832
30411SOL     OW93129  14.493   2.161   0.420
30411SOL    HW193130  14.529   2.238   0.464
30411SOL    HW293131  14.469   2.192   0.332
30412SOL     OW93132  14.252  10.664   7.224
30412SOL    HW193133  14.232  10.571   7.218
30412SOL    HW293134  14.189  10.698   7.288
30413SOL     OW93135   4.420  12.237   0.098
30413SOL    HW193136   4.333  12.225   0.060
30413SOL    HW293137   4.455  12.315   0.055
30414SOL     OW93138   2.794   1.628   8.152
30414SOL    HW193139   2.877   1.582   8.141
30414SOL    HW293140   2.816   1.705   8.204
30415SOL     OW93141   3.528   0.276   0.877
30415SOL    HW193142   3.450   0.318   0.912
30415SOL    HW293143   3.598   0.340   0.892
30416SOL     OW93144  14.849  12.717   4.802
30416SOL    HW193145   0.064  12.693   4.798
30416SOL    HW293146  14.847  12.797   4.854
30417SOL     OW93147   8.150  10.676   1.420
30417SOL    HW193148   8.170  10.586   1.447
30417SOL    HW293149   8.150  10.726   1.502
30418SOL     OW93150   5.747  13.348   3.300
30418SOL    HW193151   5.679  13.371   3.237
30418SOL    HW293152   5.741  13.253   3.308
30419SOL     OW93153   2.837  10.073   0.607
30419SOL    HW193154   2.777   9.999   0.599
30419SOL    HW293155   2.789  10.136   0.661
30420SOL     OW93156  13.394  13.367   5.398
30420SOL    HW193157  13.418  13.343   5.309
30420SOL    HW293158  13.461  13.325   5.453
30421SOL     OW93159   7.517   8.953   5.072
30421SOL    HW193160   7.531   8.917   4.985
30421SOL    HW293161   7.426   8.929   5.093
30422SOL     OW93162   1.696  12.740  13.928
30422SOL    HW193163   1.671  12.747  14.021
30422SOL    HW293164   1.702  12.830  13.898
30423SOL     OW93165  11.156  10.328   6.825
30423SOL    HW193166  11.180  10.418   6.849
30423SOL    HW293167  11.230  10.296   6.774
30424SOL     OW93168  10.172   9.848   7.833
30424SOL    HW193169  10.115   9.919   7.803
30424SOL    HW293170  10.134   9.821   7.916
30425SOL     OW93171   6.457   9.358   1.487
30425SOL    HW193172   6.526   9.404   1.440
30425SOL    HW293173   6.376   9.401   1.460
30426SOL     OW93174   7.158  11.879   4.807
30426SOL    HW193175   7.122  11.949   4.753
30426SOL    HW293176   7.186  11.812   4.744
30427SOL     OW93177   8.341  13.794   9.954
30427SOL    HW193178   8.302  13.776   9.868
30427SOL    HW293179   8.267  13.801  10.014
30428SOL     OW93180   0.503   3.636  11.973
30428SOL    HW193181   0.440   3.601  12.035
30428SOL    HW293182   0.530   3.720  12.011
30429SOL     OW93183  10.395   1.342   4.579
30429SOL    HW193184  10.343   1.262   4.585
30429SOL    HW293185  10.342   1.409   4.621
30430SOL     OW93186  14.780  10.345   9.101
30430SOL    HW193187  14.814  10.379   9.019
30430SOL    HW293188  14.797  10.251   9.098
30431SOL     OW93189   9.493   4.421   5.843
30431SOL    HW193190   9.505   4.421   5.938
30431SOL    HW293191   9.428   4.489   5.827
30432SOL     OW93192  11.676   1.535  10.754
30432SOL    HW193193  11.614   1.605  10.776
30432SOL    HW293194  11.626   1.454  10.762
30433SOL     OW93195   1.501   3.212   4.597
30433SOL    HW193196   1.423   3.158   4.607
30433SOL    HW293197   1.519   3.244   4.686
30434SOL     OW93198   1.376   9.497   3.591
30434SOL    HW193199   1.358   9.477   3.683
30434SOL    HW293200   1.405   9.588   3.591
30435SOL     OW93201   6.903   3.467   1.679
30435SOL    HW193202   6.985   3.450   1.725
30435SOL    HW293203   6.861   3.381   1.672
30436SOL     OW93204   4.934  10.924  11.960
30436SOL    HW193205   4.934  10.916  12.056
30436SOL    HW293206   4.875  10.856  11.930
30437SOL     OW93207   0.496   1.455   4.950
30437SOL    HW193208   0.482   1.441   5.044
30437SOL    HW293209   0.411   1.438   4.911
30438SOL     OW93210   0.735   8.370   5.886
30438SOL    HW193211   0.667   8.312   5.919
30438SOL    HW293212   0.687   8.448   5.858
30439SOL     OW93213  12.925   5.877   3.032
30439SOL    HW193214  12.843   5.925   3.018
30439SOL    HW293215  12.964   5.870   2.945
30440SOL     OW93216   2.398  11.349   6.598
30440SOL    HW193217   2.491  11.358   6.619
30440SOL    HW293218   2.373  11.265   6.637
30441SOL     OW93219   7.074   5.430  11.301
30441SOL    HW193220   7.021   5.510  11.301
30441SOL    HW293221   7.137   5.443  11.230
30442SOL     OW93222   5.482   1.934   5.359
30442SOL    HW193223   5.438   1.849   5.350
30442SOL    HW293224   5.446   1.972   5.439
30443SOL     OW93225   2.519  12.498   4.236
30443SOL    HW193226   2.560  12.440   4.300
30443SOL    HW293227   2.514  12.583   4.280
30444SOL     OW93228  14.568  12.204   4.431
30444SOL    HW193229  14.642  12.265   4.434
30444SOL    HW293230  14.582  12.146   4.506
30445SOL     OW93231  10.330   3.626  10.139
30445SOL    HW193232  10.279   3.549  10.115
30445SOL    HW293233  10.401   3.628  10.075
30446SOL     OW93234   0.378   5.986   2.823
30446SOL    HW193235   0.401   5.960   2.734
30446SOL    HW293236   0.302   6.044   2.813
30447SOL     OW93237   3.255   5.959   9.539
30447SOL    HW193238   3.205   5.936   9.461
30447SOL    HW293239   3.282   5.874   9.576
30448SOL     OW93240   2.248  13.460   5.115
30448SOL    HW193241   2.269  13.518   5.188
30448SOL    HW293242   2.264  13.372   5.150
30449SOL     OW93243  11.989   7.081  10.985
30449SOL    HW193244  11.930   7.120  10.920
30449SOL    HW293245  11.943   7.002  11.014
30450SOL     OW93246  14.311  12.835   6.146
30450SOL    HW193247  14.397  12.852   6.107
30450SOL    HW293248  14.277  12.759   6.100
30451SOL     OW93249  14.673   1.623   7.014
30451SOL    HW193250  14.733   1.559   7.052
30451SOL    HW293251  14.686   1.702   7.066
30452SOL     OW93252   8.425   7.592  13.588
30452SOL    HW193253   8.436   7.504  13.624
30452SOL    HW293254   8.455   7.585  13.497
30453SOL     OW93255   3.699   2.302   7.620
30453SOL    HW193256   3.687   2.317   7.714
30453SOL    HW293257   3.782   2.345   7.600
30454SOL     OW93258  10.116   0.678  12.375
30454SOL    HW193259  10.098   0.588  12.404
30454SOL    HW293260  10.181   0.668  12.305
30455SOL     OW93261   4.784  13.139   6.803
30455SOL    HW193262   4.851  13.077   6.775
30455SOL    HW293263   4.794  13.214   6.743
30456SOL     OW93264  10.850   2.712   3.528
30456SOL    HW193265  10.784   2.646   3.551
30456SOL    HW293266  10.802   2.776   3.476
30457SOL     OW93267   7.949   4.828   1.253
30457SOL    HW193268   8.009   4.892   1.213
30457SOL    HW293269   7.872   4.880   1.277
30458SOL     OW93270   6.432   3.182   0.240
30458SOL    HW193271   6.388   3.203   0.322
30458SOL    HW293272   6.361   3.173   0.176
30459SOL     OW93273  11.045   5.756   4.789
30459SOL    HW193274  10.968   5.813   4.788
30459SOL    HW293275  11.038   5.705   4.708
30460SOL     OW93276  14.480   6.280   2.486
30460SOL    HW193277  14.431   6.315   2.561
30460SOL    HW293278  14.421   6.215   2.447
30461SOL     OW93279   9.798  12.845   3.068
30461SOL    HW193280   9.779  12.896   2.988
30461SOL    HW293281   9.711  12.828   3.105
30462SOL     OW93282   1.649   9.850   3.391
30462SOL    HW193283   1.626   9.767   3.349
30462SOL    HW293284   1.744   9.855   3.385
30463SOL     OW93285  13.161   0.127   3.183
30463SOL    HW193286  13.144   0.189   3.112
30463SOL    HW293287  13.246   0.155   3.219
30464SOL     OW93288   3.177  10.737  10.505
30464SOL    HW193289   3.204  10.741  10.596
30464SOL    HW293290   3.089  10.773  10.504
30465SOL     OW93291   6.839   8.472  11.950
30465SOL    HW193292   6.830   8.412  12.023
30465SOL    HW293293   6.931   8.497  11.950
30466SOL     OW93294  11.327   8.037   0.784
30466SOL    HW193295  11.266   8.042   0.858
30466SOL    HW293296  11.408   8.002   0.821
30467SOL     OW93297   7.568   9.770  13.023
30467SOL    HW193298   7.565   9.843  13.085
30467SOL    HW293299   7.515   9.702  13.063
30468SOL     OW93300  10.140  13.397   4.858
30468SOL    HW193301  10.164  13.407   4.766
30468SOL    HW293302  10.223  13.385   4.903
30469SOL     OW93303  12.827   5.544   5.234
30469SOL    HW193304  12.829   5.549   5.329
30469SOL    HW293305  12.770   5.616   5.207
30470SOL     OW93306   3.928   4.304   9.556
30470SOL    HW193307   3.917   4.388   9.601
30470SOL    HW293308   3.983   4.324   9.480
30471SOL     OW93309   6.713   6.167  14.671
30471SOL    HW193310   6.648   6.229  14.703
30471SOL    HW293311   6.797   6.203  14.699
30472SOL     OW93312   1.777   4.899   0.757
30472SOL    HW193313   1.780   4.914   0.852
30472SOL    HW293314   1.761   4.986   0.720
30473SOL     OW93315  13.412  14.565   5.719
30473SOL    HW193316  13.468  14.497   5.681
30473SOL    HW293317  13.459  14.647   5.701
30474SOL     OW93318  12.746  11.627   9.620
30474SOL    HW193319  12.788  11.541   9.614
30474SOL    HW293320  12.653  11.607   9.633
30475SOL     OW93321  14.651   6.509   4.402
30475SOL    HW193322  14.605   6.445   4.347
30475SOL    HW293323  14.684   6.574   4.340
30476SOL     OW93324  10.774   9.577   8.099
30476SOL    HW193325  10.715   9.501   8.105
30476SOL    HW293326  10.827   9.560   8.022
30477SOL     OW93327  14.576   7.393   8.975
30477SOL    HW193328  14.549   7.485   8.971
30477SOL    HW293329  14.507   7.345   8.930
30478SOL     OW93330   8.362  13.754  11.642
30478SOL    HW193331   8.312  13.684  11.683
30478SOL    HW293332   8.431  13.710  11.593
30479SOL     OW93333   3.107   5.095   7.179
30479SOL    HW193334   3.197   5.063   7.180
30479SOL    HW293335   3.106   5.166   7.243
30480SOL     OW93336  10.582  14.329  12.523
30480SOL    HW193337  10.582  14.251  12.579
30480SOL    HW293338  10.513  14.384  12.560
30481SOL     OW93339   2.143  14.116   7.491
30481SOL    HW193340   2.070  14.093   7.548
30481SOL    HW293341   2.103  14.155   7.414
30482SOL     OW93342  10.610   5.186   7.503
30482SOL    HW193343  10.527   5.140   7.492
30482SOL    HW293344  10.605   5.260   7.442
30483SOL     OW93345   4.708  14.079   8.605
30483SOL    HW193346   4.729  14.162   8.646
30483SOL    HW293347   4.793  14.039   8.585
30484SOL     OW93348  13.280   3.258   9.653
30484SOL    HW193349  13.213   3.201   9.691
30484SOL    HW293350  13.272   3.340   9.702
30485SOL     OW93351   6.356   4.486   6.533
30485SOL    HW193352   6.320   4.401   6.509
30485SOL    HW293353   6.367   4.481   6.628
30486SOL     OW93354  14.159  13.645  12.822
30486SOL    HW193355  14.163  13.557  12.784
30486SOL    HW293356  14.066  13.660  12.838
30487SOL     OW93357   7.391  13.449   1.770
30487SOL    HW193358   7.375  13.378   1.707
30487SOL    HW293359   7.316  13.508   1.759
30488SOL     OW93360   0.719  10.331   7.688
30488SOL    HW193361   0.735  10.333   7.782
30488SOL    HW293362   0.781  10.267   7.654
30489SOL     OW93363  13.744   6.205   6.422
30489SOL    HW193364  13.732   6.111   6.436
30489SOL    HW293365  13.787   6.212   6.337
30490SOL     OW93366   6.853  14.771   5.672
30490SOL    HW193367   6.900  14.747   5.592
30490SOL    HW293368   6.922  14.780   5.738
30491SOL     OW93369   3.271  12.642   4.405
30491SOL    HW193370   3.201  12.654   4.341
30491SOL    HW293371   3.232  12.670   4.488
30492SOL     OW93372   5.793  11.945   3.902
30492SOL    HW193373   5.878  11.987   3.912
30492SOL    HW293374   5.739  12.009   3.857
30493SOL     OW93375  14.466  12.225  11.690
30493SOL    HW193376  14.429  12.291  11.632
30493SOL    HW293377  14.439  12.252  11.778
30494SOL     OW93378   1.073  12.216   1.724
30494SOL    HW193379   1.107  12.150   1.663
30494SOL    HW293380   1.110  12.299   1.692
30495SOL     OW93381  14.695   9.281  10.075
30495SOL    HW193382  14.665   9.372  10.080
30495SOL    HW293383  14.774   9.279  10.129
30496SOL     OW93384  13.445   7.860  12.996
30496SOL    HW193385  13.373   7.821  12.946
30496SOL    HW293386  13.518   7.799  12.985
30497SOL     OW93387   5.365  13.090   3.222
30497SOL    HW193388   5.283  13.110   3.267
30497SOL    HW293389   5.339  13.067   3.133
30498SOL     OW93390   0.167   6.603   6.434
30498SOL    HW193391   0.146   6.585   6.342
30498SOL    HW293392   0.171   6.699   6.439
30499SOL     OW93393   1.906   6.935  11.613
30499SOL    HW193394   1.919   6.942  11.518
30499SOL    HW293395   1.853   6.856  11.624
30500SOL     OW93396   9.568   7.599   6.033
30500SOL    HW193397   9.487   7.638   6.065
30500SOL    HW293398   9.635   7.666   6.048
30501SOL     OW93399   8.449  12.531  10.711
30501SOL    HW193400   8.463  12.578  10.629
30501SOL    HW293401   8.367  12.483  10.697
30502SOL     OW93402  14.073   0.769   1.508
30502SOL    HW193403  14.109   0.765   1.419
30502SOL    HW293404  14.010   0.698   1.511
30503SOL     OW93405  14.765   9.358  10.690
30503SOL    HW193406  14.794   9.268  10.701
30503SOL    HW293407  14.701   9.372  10.760
30504SOL     OW93408   9.658   2.571   8.399
30504SOL    HW193409   9.686   2.661   8.415
30504SOL    HW293410   9.720   2.537   8.335
30505SOL     OW93411   4.090   7.200   3.447
30505SOL    HW193412   4.047   7.125   3.406
30505SOL    HW293413   4.113   7.169   3.535
30506SOL     OW93414   4.977   2.927  14.486
30506SOL    HW193415   4.965   2.925  14.391
30506SOL    HW293416   5.024   3.009  14.502
30507SOL     OW93417   4.733   6.327   1.133
30507SOL    HW193418   4.762   6.403   1.081
30507SOL    HW293419   4.639   6.340   1.145
30508SOL     OW93420  10.176  12.404   2.186
30508SOL    HW193421  10.122  12.334   2.151
30508SOL    HW293422  10.231  12.431   2.113
30509SOL     OW93423  10.012   5.626   8.154
30509SOL    HW193424  10.101   5.653   8.129
30509SOL    HW293425  10.025   5.568   8.229
30510SOL     OW93426  11.818   2.346   0.248
30510SOL    HW193427  11.849   2.355   0.158
30510SOL    HW293428  11.788   2.255   0.254
30511SOL     OW93429   7.179  13.182  11.559
30511SOL    HW193430   7.107  13.245  11.563
30511SOL    HW293431   7.256  13.231  11.589
30512SOL     OW93432  10.764   8.797  13.445
30512SOL    HW193433  10.724   8.869  13.494
30512SOL    HW293434  10.857   8.801  13.470
30513SOL     OW93435   8.947  11.700   1.240
30513SOL    HW193436   9.018  11.657   1.192
30513SOL    HW293437   8.943  11.656   1.324
30514SOL     OW93438  10.840   1.693   8.450
30514SOL    HW193439  10.903   1.642   8.400
30514SOL    HW293440  10.764   1.635   8.459
30515SOL     OW93441   6.698   7.870   4.412
30515SOL    HW193442   6.723   7.882   4.503
30515SOL    HW293443   6.768   7.817   4.374
30516SOL     OW93444   8.977  13.278  14.198
30516SOL    HW193445   8.977  13.318  14.112
30516SOL    HW293446   9.024  13.195  14.186
30517SOL     OW93447   1.039   6.928   1.041
30517SOL    HW193448   1.100   6.999   1.023
30517SOL    HW293449   1.074   6.886   1.119
30518SOL     OW93450   8.738  11.393   9.590
30518SOL    HW193451   8.724  11.321   9.528
30518SOL    HW293452   8.733  11.472   9.537
30519SOL     OW93453   8.478   3.809   2.310
30519SOL    HW193454   8.541   3.847   2.249
30519SOL    HW293455   8.469   3.874   2.379
30520SOL     OW93456   7.008   7.815  11.733
30520SOL    HW193457   6.971   7.810  11.822
30520SOL    HW293458   7.029   7.908  11.721
30521SOL     OW93459   6.502   0.977  14.163
30521SOL    HW193460   6.597   0.978  14.154
30521SOL    HW293461   6.486   0.973  14.257
30522SOL     OW93462   6.915  14.489   8.977
30522SOL    HW193463   6.841  14.472   9.034
30522SOL    HW293464   6.877  14.529   8.899
30523SOL     OW93465   1.500   7.765   5.980
30523SOL    HW193466   1.487   7.727   6.067
30523SOL    HW293467   1.452   7.848   5.983
30524SOL     OW93468  14.031   2.420   5.800
30524SOL    HW193469  13.985   2.348   5.842
30524SOL    HW293470  13.968   2.492   5.801
30525SOL     OW93471  10.760   6.434   2.905
30525SOL    HW193472  10.831   6.487   2.941
30525SOL    HW293473  10.796   6.395   2.826
30526SOL     OW93474   5.314   5.669   2.686
30526SOL    HW193475   5.288   5.579   2.664
30526SOL    HW293476   5.306   5.673   2.781
30527SOL     OW93477   5.130  13.264  10.354
30527SOL    HW193478   5.157  13.193  10.296
30527SOL    HW293479   5.176  13.246  10.436
30528SOL     OW93480   4.143   4.798   9.548
30528SOL    HW193481   4.108   4.710   9.533
30528SOL    HW293482   4.191   4.818   9.467
30529SOL     OW93483   2.585   4.640   1.668
30529SOL    HW193484   2.543   4.702   1.728
30529SOL    HW293485   2.537   4.650   1.586
30530SOL     OW93486   8.911  14.242   4.576
30530SOL    HW193487   8.980  14.291   4.532
30530SOL    HW293488   8.920  14.152   4.544
30531SOL     OW93489  11.328   4.239  13.388
30531SOL    HW193490  11.322   4.246  13.293
30531SOL    HW293491  11.348   4.147  13.404
30532SOL     OW93492  14.738   9.434   7.013
30532SOL    HW193493  14.818   9.420   7.063
30532SOL    HW293494  14.768   9.446   6.923
30533SOL     OW93495   2.635  14.479   8.996
30533SOL    HW193496   2.648  14.396   8.950
30533SOL    HW293497   2.545  14.473   9.030
30534SOL     OW93498  11.335   8.122  11.769
30534SOL    HW193499  11.255   8.110  11.821
30534SOL    HW293500  11.406   8.111  11.832
30535SOL     OW93501   7.028   0.208   7.565
30535SOL    HW193502   7.067   0.120   7.563
30535SOL    HW293503   6.945   0.196   7.613
30536SOL     OW93504   1.798  13.028   6.178
30536SOL    HW193505   1.891  13.006   6.179
30536SOL    HW293506   1.773  13.031   6.270
30537SOL     OW93507   8.264   3.990   6.803
30537SOL    HW193508   8.195   4.033   6.853
30537SOL    HW293509   8.330   3.967   6.869
30538SOL     OW93510  14.168   8.819   2.969
30538SOL    HW193511  14.257   8.814   3.005
30538SOL    HW293512  14.179   8.802   2.875
30539SOL     OW93513  12.899   9.544  12.716
30539SOL    HW193514  12.931   9.454  12.706
30539SOL    HW293515  12.933   9.590  12.639
30540SOL     OW93516   6.345  10.251   6.236
30540SOL    HW193517   6.273  10.307   6.265
30540SOL    HW293518   6.405  10.311   6.191
30541SOL     OW93519   4.612  11.968   1.500
30541SOL    HW193520   4.705  11.972   1.480
30541SOL    HW293521   4.607  11.935   1.590
30542SOL     OW93522   3.765   1.514   4.333
30542SOL    HW193523   3.822   1.505   4.409
30542SOL    HW293524   3.683   1.471   4.359
30543SOL     OW93525   9.402   4.954   0.904
30543SOL    HW193526   9.350   4.880   0.934
30543SOL    HW293527   9.349   5.031   0.927
30544SOL     OW93528  10.504  11.040   9.421
30544SOL    HW193529  10.473  11.032   9.511
30544SOL    HW293530  10.461  10.968   9.375
30545SOL     OW93531   7.919   5.905   0.795
30545SOL    HW193532   7.988   5.851   0.756
30545SOL    HW293533   7.957   5.993   0.800
30546SOL     OW93534  12.459   8.302   9.322
30546SOL    HW193535  12.445   8.209   9.303
30546SOL    HW293536  12.389   8.347   9.274
30547SOL     OW93537  10.221   7.414  13.252
30547SOL    HW193538  10.266   7.439  13.171
30547SOL    HW293539  10.183   7.496  13.285
30548SOL     OW93540   2.130   8.187  10.444
30548SOL    HW193541   2.118   8.234  10.362
30548SOL    HW293542   2.211   8.137  10.432
30549SOL     OW93543  12.098   7.665  12.273
30549SOL    HW193544  12.101   7.660  12.178
30549SOL    HW293545  12.082   7.758  12.292
30550SOL     OW93546   0.646   0.858   2.474
30550SOL    HW193547   0.677   0.859   2.384
30550SOL    HW293548   0.676   0.773   2.509
30551SOL     OW93549   2.647   6.807  10.840
30551SOL    HW193550   2.568   6.832  10.792
30551SOL    HW293551   2.662   6.716  10.816
30552SOL     OW93552   2.594   8.299   4.493
30552SOL    HW193553   2.652   8.375   4.479
30552SOL    HW293554   2.581   8.262   4.405
30553SOL     OW93555  14.217   8.229   9.845
30553SOL    HW193556  14.257   8.283   9.914
30553SOL    HW293557  14.241   8.272   9.763
30554SOL     OW93558  10.567   1.478  14.128
30554SOL    HW193559  10.629   1.478  14.201
30554SOL    HW293560  10.556   1.571  14.106
30555SOL     OW93561   4.212   4.651   6.275
30555SOL    HW193562   4.182   4.721   6.217
30555SOL    HW293563   4.154   4.657   6.351
30556SOL     OW93564   3.578   5.139   3.225
30556SOL    HW193565   3.639   5.210   3.203
30556SOL    HW293566   3.584   5.130   3.320
30557SOL     OW93567   1.059  11.069  13.035
30557SOL    HW193568   1.136  11.039  13.083
30557SOL    HW293569   1.060  11.164  13.045
30558SOL     OW93570  10.356   2.827   4.520
30558SOL    HW193571  10.385   2.905   4.472
30558SOL    HW293572  10.273   2.804   4.479
30559SOL     OW93573   1.719   2.177  12.015
30559SOL    HW193574   1.628   2.149  12.011
30559SOL    HW293575   1.769   2.096  12.025
30560SOL     OW93576   1.206  12.631  11.002
30560SOL    HW193577   1.119  12.610  11.038
30560SOL    HW293578   1.262  12.559  11.032
30561SOL     OW93579   2.858   5.829  13.806
30561SOL    HW193580   2.878   5.796  13.719
30561SOL    HW293581   2.792   5.768  13.840
30562SOL     OW93582   7.201  11.562   1.417
30562SOL    HW193583   7.234  11.645   1.385
30562SOL    HW293584   7.225  11.498   1.350
30563SOL     OW93585   5.285  10.505   8.919
30563SOL    HW193586   5.378  10.526   8.928
30563SOL    HW293587   5.263  10.457   8.999
30564SOL     OW93588   7.518   9.420   8.768
30564SOL    HW193589   7.552   9.381   8.687
30564SOL    HW293590   7.548   9.361   8.837
30565SOL     OW93591  12.647  12.413   1.377
30565SOL    HW193592  12.693  12.406   1.460
30565SOL    HW293593  12.597  12.331   1.370
30566SOL     OW93594   8.339   2.050  14.135
30566SOL    HW193595   8.293   2.022  14.056
30566SOL    HW293596   8.269   2.076  14.195
30567SOL     OW93597  13.753   5.098   2.896
30567SOL    HW193598  13.695   5.125   2.967
30567SOL    HW293599  13.795   5.179   2.866
30568SOL     OW93600   1.654  12.101  13.451
30568SOL    HW193601   1.744  12.080  13.474
30568SOL    HW293602   1.612  12.120  13.534
30569SOL     OW93603   5.043   4.341  10.463
30569SOL    HW193604   5.124   4.375  10.501
30569SOL    HW293605   4.979   4.346  10.534
30570SOL     OW93606   6.521  10.949   1.453
30570SOL    HW193607   6.562  10.895   1.385
30570SOL    HW293608   6.552  11.038   1.435
30571SOL     OW93609   0.715   6.734   0.298
30571SOL    HW193610   0.783   6.680   0.257
30571SOL    HW293611   0.763   6.793   0.357
30572SOL     OW93612  13.132   4.345   8.871
30572SOL    HW193613  13.111   4.429   8.830
30572SOL    HW293614  13.087   4.280   8.818
30573SOL     OW93615   1.275  13.271   9.526
30573SOL    HW193616   1.358  13.292   9.484
30573SOL    HW293617   1.299  13.221   9.604
30574SOL     OW93618   2.339  10.969  13.825
30574SOL    HW193619   2.427  10.933  13.834
30574SOL    HW293620   2.302  10.964  13.914
30575SOL     OW93621   2.994  12.354   9.984
30575SOL    HW193622   3.065  12.413  10.007
30575SOL    HW293623   3.003  12.341   9.890
30576SOL     OW93624   4.313   8.430   5.674
30576SOL    HW193625   4.301   8.498   5.741
30576SOL    HW293626   4.329   8.351   5.725
30577SOL     OW93627   5.765   1.068   0.891
30577SOL    HW193628   5.719   0.994   0.930
30577SOL    HW293629   5.727   1.077   0.804
30578SOL     OW93630   0.224  11.999   3.575
30578SOL    HW193631   0.287  11.973   3.508
30578SOL    HW293632   0.238  11.938   3.647
30579SOL     OW93633  12.011   2.824  10.426
30579SOL    HW193634  12.106   2.810  10.432
30579SOL    HW293635  12.002   2.918  10.410
30580SOL     OW93636   1.794   7.623   7.546
30580SOL    HW193637   1.876   7.670   7.557
30580SOL    HW293638   1.804   7.577   7.462
30581SOL     OW93639   0.850   4.601   3.516
30581SOL    HW193640   0.771   4.547   3.525
30581SOL    HW293641   0.842   4.667   3.585
30582SOL     OW93642   1.526  12.724   5.188
30582SOL    HW193643   1.519  12.653   5.252
30582SOL    HW293644   1.619  12.728   5.167
30583SOL     OW93645   5.473   0.077   6.678
30583SOL    HW193646   5.420   0.155   6.695
30583SOL    HW293647   5.548   0.086   6.736
30584SOL     OW93648   0.974  10.513   5.750
30584SOL    HW193649   0.894  10.496   5.800
30584SOL    HW293650   0.977  10.609   5.743
30585SOL     OW93651  14.063   3.518   3.824
30585SOL    HW193652  14.112   3.490   3.902
30585SOL    HW293653  13.972   3.498   3.845
30586SOL     OW93654  12.371  10.844   9.138
30586SOL    HW193655  12.396  10.931   9.107
30586SOL    HW293656  12.454  10.796   9.144
30587SOL     OW93657   4.565  12.067  11.141
30587SOL    HW193658   4.633  12.100  11.081
30587SOL    HW293659   4.601  12.081  11.228
30588SOL     OW93660  12.593  10.669   6.665
30588SOL    HW193661  12.610  10.743   6.723
30588SOL    HW293662  12.637  10.595   6.707
30589SOL     OW93663   7.289  11.244  10.555
30589SOL    HW193664   7.334  11.265  10.473
30589SOL    HW293665   7.336  11.295  10.622
30590SOL     OW93666   9.226  14.290   3.771
30590SOL    HW193667   9.160  14.345   3.814
30590SOL    HW293668   9.217  14.310   3.678
30591SOL     OW93669   5.380   7.975   6.348
30591SOL    HW193670   5.294   7.933   6.340
30591SOL    HW293671   5.360   8.068   6.354
30592SOL     OW93672   6.475   3.377   6.078
30592SOL    HW193673   6.539   3.340   6.139
30592SOL    HW293674   6.512   3.461   6.052
30593SOL     OW93675   4.629   4.496   5.657
30593SOL    HW193676   4.687   4.498   5.734
30593SOL    HW293677   4.689   4.489   5.583
30594SOL     OW93678  12.310   1.420   3.353
30594SOL    HW193679  12.316   1.372   3.270
30594SOL    HW293680  12.280   1.354   3.416
30595SOL     OW93681  12.131   9.159   0.172
30595SOL    HW193682  12.218   9.140   0.208
30595SOL    HW293683  12.108   9.245   0.206
30596SOL     OW93684   1.102   0.591   7.560
30596SOL    HW193685   1.104   0.656   7.631
30596SOL    HW293686   1.186   0.600   7.516
30597SOL     OW93687   0.520   2.594   9.985
30597SOL    HW193688   0.564   2.614   9.903
30597SOL    HW293689   0.566   2.646  10.051
30598SOL     OW93690   6.114   4.364   5.173
30598SOL    HW193691   6.030   4.407   5.155
30598SOL    HW293692   6.108   4.335   5.264
30599SOL     OW93693   0.910   2.629   9.701
30599SOL    HW193694   0.918   2.553   9.644
30599SOL    HW293695   0.931   2.595   9.789
30600SOL     OW93696   0.157  14.276   1.168
30600SOL    HW193697   0.206  14.199   1.141
30600SOL    HW293698   0.119  14.309   1.086
30601SOL     OW93699   0.379   1.911   8.188
30601SOL    HW193700   0.378   2.002   8.215
30601SOL    HW293701   0.429   1.866   8.256
30602SOL     OW93702   3.633  13.238   1.140
30602SOL    HW193703   3.632  13.144   1.118
30602SOL    HW293704   3.590  13.243   1.225
30603SOL     OW93705  11.671   8.064  13.387
30603SOL    HW193706  11.690   8.146  13.433
30603SOL    HW293707  11.698   8.079  13.297
30604SOL     OW93708  14.239   5.009   0.890
30604SOL    HW193709  14.190   5.083   0.855
30604SOL    HW293710  14.238   4.944   0.820
30605SOL     OW93711   1.830   0.998  12.126
30605SOL    HW193712   1.877   1.079  12.104
30605SOL    HW293713   1.863   0.975  12.213
30606SOL     OW93714  14.729   8.553   6.098
30606SOL    HW193715  14.706   8.574   6.188
30606SOL    HW293716  14.825   8.558   6.096
30607SOL     OW93717  14.807   3.918   8.604
30607SOL    HW193718  14.785   3.990   8.663
30607SOL    HW293719  14.860   3.859   8.657
30608SOL     OW93720   9.073   8.565   6.723
30608SOL    HW193721   9.141   8.516   6.769
30608SOL    HW293722   8.991   8.540   6.766
30609SOL     OW93723   4.203   1.834   8.004
30609SOL    HW193724   4.144   1.865   8.072
30609SOL    HW293725   4.208   1.739   8.017
30610SOL     OW93726   6.082  11.423   0.987
30610SOL    HW193727   6.011  11.377   0.942
30610SOL    HW293728   6.085  11.509   0.943
30611SOL     OW93729   9.513  12.939   8.770
30611SOL    HW193730   9.512  12.869   8.705
30611SOL    HW293731   9.482  13.016   8.724
30612SOL     OW93732   4.961   7.208   9.436
30612SOL    HW193733   5.052   7.179   9.437
30612SOL    HW293734   4.967   7.303   9.424
30613SOL     OW93735   3.686   9.889   6.971
30613SOL    HW193736   3.774   9.888   7.009
30613SOL    HW293737   3.667   9.981   6.957
30614SOL     OW93738   9.738   2.429   4.183
30614SOL    HW193739   9.726   2.520   4.210
30614SOL    HW293740   9.658   2.408   4.134
30615SOL     OW93741   5.878   6.386   8.903
30615SOL    HW193742   5.837   6.317   8.850
30615SOL    HW293743   5.970   6.384   8.876
30616SOL     OW93744   9.231   7.413   2.171
30616SOL    HW193745   9.214   7.426   2.265
30616SOL    HW293746   9.166   7.349   2.144
30617SOL     OW93747  10.162   9.843  12.746
30617SOL    HW193748  10.159   9.936  12.766
30617SOL    HW293749  10.176   9.839  12.651
30618SOL     OW93750  10.387   3.719   3.584
30618SOL    HW193751  10.319   3.694   3.646
30618SOL    HW293752  10.379   3.655   3.513
30619SOL     OW93753   8.320  14.446   9.665
30619SOL    HW193754   8.338  14.352   9.670
30619SOL    HW293755   8.239  14.453   9.615
30620SOL     OW93756   1.327   9.128   8.040
30620SOL    HW193757   1.245   9.176   8.026
30620SOL    HW293758   1.379   9.184   8.097
30621SOL     OW93759   7.228   8.764   8.837
30621SOL    HW193760   7.239   8.700   8.767
30621SOL    HW293761   7.255   8.847   8.799
30622SOL     OW93762  10.621   3.257  10.691
30622SOL    HW193763  10.593   3.204  10.765
30622SOL    HW293764  10.571   3.338  10.700
30623SOL     OW93765   0.488   0.697  10.666
30623SOL    HW193766   0.399   0.732  10.667
30623SOL    HW293767   0.535   0.752  10.604
30624SOL     OW93768  11.048   1.254   7.231
30624SOL    HW193769  11.009   1.334   7.196
30624SOL    HW293770  11.039   1.263   7.326
30625SOL     OW93771   9.457  13.739   9.922
30625SOL    HW193772   9.504  13.799   9.980
30625SOL    HW293773   9.469  13.776   9.835
30626SOL     OW93774  12.716   9.782   8.775
30626SOL    HW193775  12.727   9.750   8.865
30626SOL    HW293776  12.804   9.778   8.737
30627SOL     OW93777   8.881   6.718  12.176
30627SOL    HW193778   8.936   6.687  12.104
30627SOL    HW293779   8.831   6.790  12.138
30628SOL     OW93780   8.334  10.424   7.111
30628SOL    HW193781   8.418  10.382   7.094
30628SOL    HW293782   8.332  10.439   7.205
30629SOL     OW93783   6.147  12.319   2.145
30629SOL    HW193784   6.186  12.399   2.110
30629SOL    HW293785   6.130  12.340   2.237
30630SOL     OW93786  13.707  13.179   9.544
30630SOL    HW193787  13.722  13.185   9.449
30630SOL    HW293788  13.685  13.087   9.559
30631SOL     OW93789  10.131  13.717   1.968
30631SOL    HW193790  10.134  13.790   1.906
30631SOL    HW293791  10.121  13.639   1.913
30632SOL     OW93792   1.734   4.951  14.549
30632SOL    HW193793   1.751   4.869  14.595
30632SOL    HW293794   1.654   4.985  14.590
30633SOL     OW93795   5.081   8.303  12.531
30633SOL    HW193796   5.150   8.259  12.480
30633SOL    HW293797   5.096   8.274  12.621
30634SOL     OW93798   7.522  13.532  13.004
30634SOL    HW193799   7.591  13.552  13.067
30634SOL    HW293800   7.541  13.588  12.928
30635SOL     OW93801   6.109   9.194   0.420
30635SOL    HW193802   6.174   9.170   0.354
30635SOL    HW293803   6.043   9.125   0.415
30636SOL     OW93804   0.134   7.682  12.349
30636SOL    HW193805   0.058   7.631  12.321
30636SOL    HW293806   0.208   7.623  12.336
30637SOL     OW93807   9.189  14.414   5.886
30637SOL    HW193808   9.175  14.425   5.792
30637SOL    HW293809   9.102  14.423   5.925
30638SOL     OW93810   7.171   7.191   8.893
30638SOL    HW193811   7.265   7.207   8.906
30638SOL    HW293812   7.128   7.262   8.941
30639SOL     OW93813   0.241   7.365   6.021
30639SOL    HW193814   0.247   7.379   6.115
30639SOL    HW293815   0.321   7.403   5.986
30640SOL     OW93816   3.049   9.831  11.774
30640SOL    HW193817   3.012   9.856  11.690
30640SOL    HW293818   3.084   9.743  11.760
30641SOL     OW93819   3.713   4.175   2.459
30641SOL    HW193820   3.635   4.229   2.471
30641SOL    HW293821   3.745   4.197   2.372
30642SOL     OW93822   6.867   0.323  12.710
30642SOL    HW193823   6.920   0.331  12.630
30642SOL    HW293824   6.877   0.407  12.754
30643SOL     OW93825   8.679  14.206  14.131
30643SOL    HW193826   8.605  14.168  14.082
30643SOL    HW293827   8.756  14.160  14.097
30644SOL     OW93828  11.581   7.597  13.492
30644SOL    HW193829  11.575   7.502  13.478
30644SOL    HW293830  11.590   7.634  13.404
30645SOL     OW93831   7.486   5.414   1.369
30645SOL    HW193832   7.429   5.488   1.352
30645SOL    HW293833   7.573   5.444   1.343
30646SOL     OW93834   5.387   9.589   7.044
30646SOL    HW193835   5.432   9.585   6.960
30646SOL    HW293836   5.455   9.572   7.109
30647SOL     OW93837   2.670  14.317   3.299
30647SOL    HW193838   2.751  14.302   3.349
30647SOL    HW293839   2.644  14.230   3.268
30648SOL     OW93840   6.649   3.007  13.351
30648SOL    HW193841   6.736   2.968  13.352
30648SOL    HW293842   6.626   3.018  13.443
30649SOL     OW93843  14.565  10.042   5.407
30649SOL    HW193844  14.478  10.081   5.421
30649SOL    HW293845  14.584   9.997   5.489
30650SOL     OW93846  11.780   3.047  11.426
30650SOL    HW193847  11.690   3.076  11.411
30650SOL    HW293848  11.779   2.954  11.402
30651SOL     OW93849   0.702   9.211   1.503
30651SOL    HW193850   0.769   9.162   1.551
30651SOL    HW293851   0.694   9.165   1.420
30652SOL     OW93852   3.892   2.408   6.327
30652SOL    HW193853   3.875   2.326   6.280
30652SOL    HW293854   3.818   2.464   6.306
30653SOL     OW93855   8.839  11.241   9.017
30653SOL    HW193856   8.773  11.246   8.947
30653SOL    HW293857   8.902  11.309   8.995
30654SOL     OW93858  14.051  14.877   4.576
30654SOL    HW193859  14.056  14.806   4.640
30654SOL    HW293860  13.958   0.007   4.555
30655SOL     OW93861  14.500   5.323   7.890
30655SOL    HW193862  14.447   5.328   7.810
30655SOL    HW293863  14.475   5.400   7.940
30656SOL     OW93864  13.598  13.328   0.805
30656SOL    HW193865  13.634  13.265   0.742
30656SOL    HW293866  13.630  13.413   0.776
30657SOL     OW93867   5.932   8.179  14.599
30657SOL    HW193868   5.933   8.132  14.683
30657SOL    HW293869   6.024   8.198  14.582
30658SOL     OW93870   4.982  12.508  10.418
30658SOL    HW193871   4.931  12.530  10.340
30658SOL    HW293872   4.977  12.587  10.473
30659SOL     OW93873   6.242   2.858   0.347
30659SOL    HW193874   6.184   2.856   0.272
30659SOL    HW293875   6.257   2.766   0.368
30660SOL     OW93876  12.619   4.711  12.245
30660SOL    HW193877  12.597   4.623  12.214
30660SOL    HW293878  12.630   4.702  12.339
30661SOL     OW93879   7.383   7.248   8.155
30661SOL    HW193880   7.361   7.341   8.147
30661SOL    HW293881   7.350   7.223   8.241
30662SOL     OW93882   3.190   0.885   7.279
30662SOL    HW193883   3.279   0.911   7.301
30662SOL    HW293884   3.182   0.796   7.311
30663SOL     OW93885  12.270   8.972   4.514
30663SOL    HW193886  12.234   9.051   4.554
30663SOL    HW293887  12.203   8.945   4.451
30664SOL     OW93888   7.659   2.915   0.503
30664SOL    HW193889   7.626   2.839   0.551
30664SOL    HW293890   7.749   2.893   0.481
30665SOL     OW93891  14.450   5.712   2.332
30665SOL    HW193892  14.489   5.796   2.356
30665SOL    HW293893  14.409   5.680   2.412
30666SOL     OW93894   3.163   1.644   4.970
30666SOL    HW193895   3.153   1.654   4.875
30666SOL    HW293896   3.226   1.711   4.995
30667SOL     OW93897   8.479   0.242   9.353
30667SOL    HW193898   8.475   0.323   9.302
30667SOL    HW293899   8.427   0.261   9.431
30668SOL     OW93900  11.367   8.171  13.484
30668SOL    HW193901  11.319   8.173  13.401
30668SOL    HW293902  11.458   8.152  13.459
30669SOL     OW93903   2.075   8.435   5.800
30669SOL    HW193904   2.053   8.444   5.892
30669SOL    HW293905   2.153   8.491   5.789
30670SOL     OW93906   3.427   6.190  10.240
30670SOL    HW193907   3.476   6.166  10.318
30670SOL    HW293908   3.351   6.131  10.240
30671SOL     OW93909   8.686   7.431  12.446
30671SOL    HW193910   8.618   7.365  12.432
30671SOL    HW293911   8.731   7.436  12.362
30672SOL     OW93912  10.819  11.681   5.741
30672SOL    HW193913  10.797  11.589   5.729
30672SOL    HW293914  10.903  11.680   5.786
30673SOL     OW93915  13.052  13.640   0.664
30673SOL    HW193916  13.144  13.612   0.671
30673SOL    HW293917  13.010  13.604   0.742
30674SOL     OW93918   6.813   8.872   3.326
30674SOL    HW193919   6.717   8.867   3.325
30674SOL    HW293920   6.835   8.885   3.418
30675SOL     OW93921   0.601   8.013   4.424
30675SOL    HW193922   0.600   7.917   4.416
30675SOL    HW293923   0.590   8.044   4.334
30676SOL     OW93924  10.859   5.776  12.428
30676SOL    HW193925  10.852   5.758  12.522
30676SOL    HW293926  10.787   5.727  12.389
30677SOL     OW93927   3.020   2.162  10.196
30677SOL    HW193928   3.030   2.254  10.222
30677SOL    HW293929   3.101   2.120  10.225
30678SOL     OW93930   7.915   9.498   3.239
30678SOL    HW193931   7.855   9.473   3.309
30678SOL    HW293932   8.001   9.502   3.280
30679SOL     OW93933   1.241  12.945   4.024
30679SOL    HW193934   1.316  12.965   3.968
30679SOL    HW293935   1.247  13.010   4.095
30680SOL     OW93936  14.288   8.222   7.735
30680SOL    HW193937  14.308   8.140   7.690
30680SOL    HW293938  14.239   8.195   7.813
30681SOL     OW93939   7.340   2.547  13.358
30681SOL    HW193940   7.377   2.519  13.275
30681SOL    HW293941   7.249   2.516  13.356
30682SOL     OW93942  14.596  10.656  11.700
30682SOL    HW193943  14.646  10.602  11.762
30682SOL    HW293944  14.629  10.631  11.614
30683SOL     OW93945   6.759   4.343   3.514
30683SOL    HW193946   6.741   4.258   3.555
30683SOL    HW293947   6.692   4.401   3.549
30684SOL     OW93948  13.655  11.395   5.109
30684SOL    HW193949  13.595  11.417   5.038
30684SOL    HW293950  13.714  11.330   5.070
30685SOL     OW93951  11.778   8.632   9.076
30685SOL    HW193952  11.812   8.683   9.003
30685SOL    HW293953  11.786   8.689   9.152
30686SOL     OW93954   2.741   1.003  12.849
30686SOL    HW193955   2.738   1.032  12.940
30686SOL    HW293956   2.655   0.964  12.833
30687SOL     OW93957   9.368   1.765   2.387
30687SOL    HW193958   9.401   1.740   2.473
30687SOL    HW293959   9.317   1.689   2.358
30688SOL     OW93960  12.850   6.313   0.788
30688SOL    HW193961  12.886   6.314   0.876
30688SOL    HW293962  12.925   6.292   0.731
30689SOL     OW93963  11.405   2.102  14.050
30689SOL    HW193964  11.381   2.184  14.094
30689SOL    HW293965  11.401   2.036  14.119
30690SOL     OW93966  10.912   4.842   1.048
30690SOL    HW193967  10.852   4.834   0.973
30690SOL    HW293968  10.962   4.921   1.030
30691SOL     OW93969  10.838   5.231   0.828
30691SOL    HW193970  10.871   5.153   0.783
30691SOL    HW293971  10.808   5.198   0.913
30692SOL     OW93972   9.874  14.112  13.099
30692SOL    HW193973   9.909  14.086  13.185
30692SOL    HW293974   9.791  14.065  13.093
30693SOL     OW93975  11.655   5.693   7.106
30693SOL    HW193976  11.726   5.648   7.061
30693SOL    HW293977  11.583   5.629   7.107
30694SOL     OW93978   6.670  12.942   0.661
30694SOL    HW193979   6.586  12.939   0.615
30694SOL    HW293980   6.677  13.033   0.691
30695SOL     OW93981   4.646   0.855   4.544
30695SOL    HW193982   4.626   0.774   4.497
30695SOL    HW293983   4.725   0.889   4.502
30696SOL     OW93984   4.033   5.329  11.192
30696SOL    HW193985   4.001   5.273  11.122
30696SOL    HW293986   4.046   5.414  11.151
30697SOL     OW93987   0.528   2.881   1.958
30697SOL    HW193988   0.496   2.821   2.026
30697SOL    HW293989   0.617   2.852   1.940
30698SOL     OW93990   7.731   9.421   5.968
30698SOL    HW193991   7.785   9.487   6.012
30698SOL    HW293992   7.774   9.338   5.989
30699SOL     OW93993  13.143   5.102  13.968
30699SOL    HW193994  13.101   5.154  14.036
30699SOL    HW293995  13.076   5.094  13.900
30700SOL     OW93996   3.512   5.500  12.779
30700SOL    HW193997   3.523   5.559  12.854
30700SOL    HW293998   3.545   5.416  12.810
30701SOL     OW93999   7.744   6.855  14.601
30701SOL    HW194000   7.668   6.903  14.632
30701SOL    HW294001   7.776   6.906  14.527
30702SOL     OW94002  12.924  14.546   2.239
30702SOL    HW194003  12.961  14.459   2.248
30702SOL    HW294004  12.949  14.575   2.151
30703SOL     OW94005   2.062   7.223  13.186
30703SOL    HW194006   1.982   7.183  13.154
30703SOL    HW294007   2.083   7.290  13.121
30704SOL     OW94008   4.777   5.302   3.688
30704SOL    HW194009   4.795   5.395   3.677
30704SOL    HW294010   4.692   5.299   3.731
30705SOL     OW94011  14.001   5.484  13.616
30705SOL    HW194012  13.971   5.394  13.627
30705SOL    HW294013  14.017   5.516  13.705
30706SOL     OW94014  13.052   2.224   0.041
30706SOL    HW194015  13.065   2.137   0.079
30706SOL    HW294016  12.960   2.243   0.056
30707SOL     OW94017   3.134  12.171   8.454
30707SOL    HW194018   3.044  12.141   8.462
30707SOL    HW294019   3.187  12.095   8.481
30708SOL     OW94020   1.319  11.084  12.421
30708SOL    HW194021   1.239  11.124  12.388
30708SOL    HW294022   1.335  11.010  12.362
30709SOL     OW94023   8.847   0.799  10.779
30709SOL    HW194024   8.822   0.857  10.850
30709SOL    HW294025   8.772   0.741  10.768
30710SOL     OW94026   5.694   1.417  11.585
30710SOL    HW194027   5.769   1.374  11.627
30710SOL    HW294028   5.734   1.480  11.524
30711SOL     OW94029  12.890   7.133   0.011
30711SOL    HW194030  12.823   7.165   0.070
30711SOL    HW294031  12.972   7.168   0.046
30712SOL     OW94032   0.861  13.185   9.397
30712SOL    HW194033   0.866  13.133   9.316
30712SOL    HW294034   0.771  13.175   9.426
30713SOL     OW94035   5.448   3.431  11.494
30713SOL    HW194036   5.468   3.476  11.576
30713SOL    HW294037   5.405   3.498  11.440
30714SOL     OW94038   9.881   2.653   2.574
30714SOL    HW194039   9.794   2.614   2.570
30714SOL    HW294040   9.924   2.622   2.493
30715SOL     OW94041   5.228  13.478  14.110
30715SOL    HW194042   5.205  13.452  14.021
30715SOL    HW294043   5.321  13.457  14.117
30716SOL     OW94044   0.138   5.675  11.037
30716SOL    HW194045   0.178   5.597  11.077
30716SOL    HW294046   0.054   5.644  11.004
30717SOL     OW94047  10.237  11.558   1.382
30717SOL    HW194048  10.221  11.477   1.429
30717SOL    HW294049  10.152  11.601   1.378
30718SOL     OW94050  14.330   0.492   7.045
30718SOL    HW194051  14.414   0.504   7.091
30718SOL    HW294052  14.266   0.482   7.115
30719SOL     OW94053  13.648   5.716  11.476
30719SOL    HW194054  13.668   5.765  11.556
30719SOL    HW294055  13.658   5.625  11.501
30720SOL     OW94056   2.427  13.292  11.567
30720SOL    HW194057   2.519  13.318  11.563
30720SOL    HW294058   2.390  13.345  11.637
30721SOL     OW94059  10.045  14.216   3.491
30721SOL    HW194060  10.034  14.157   3.566
30721SOL    HW294061   9.995  14.175   3.421
30722SOL     OW94062   4.369   6.417   7.177
30722SOL    HW194063   4.383   6.491   7.236
30722SOL    HW294064   4.455   6.374   7.171
30723SOL     OW94065   5.572  14.218   3.505
30723SOL    HW194066   5.510  14.147   3.520
30723SOL    HW294067   5.522  14.285   3.459
30724SOL     OW94068  12.712   6.262  12.766
30724SOL    HW194069  12.749   6.307  12.690
30724SOL    HW294070  12.652   6.198  12.730
30725SOL     OW94071   9.962  13.315   8.361
30725SOL    HW194072   9.920  13.363   8.434
30725SOL    HW294073   9.907  13.336   8.285
30726SOL     OW94074   8.981  12.737  10.463
30726SOL    HW194075   9.033  12.683  10.522
30726SOL    HW294076   9.009  12.827  10.482
30727SOL     OW94077   6.897  14.112   5.786
30727SOL    HW194078   6.847  14.192   5.772
30727SOL    HW294079   6.879  14.088   5.877
30728SOL     OW94080  11.468   2.064  10.663
30728SOL    HW194081  11.406   2.121  10.617
30728SOL    HW294082  11.482   2.107  10.747
30729SOL     OW94083   8.600   9.337   6.579
30729SOL    HW194084   8.584   9.350   6.485
30729SOL    HW294085   8.524   9.376   6.622
30730SOL     OW94086  10.716   1.539   7.253
30730SOL    HW194087  10.667   1.611   7.214
30730SOL    HW294088  10.655   1.465   7.252
30731SOL     OW94089   8.487  14.158   3.908
30731SOL    HW194090   8.566  14.134   3.955
30731SOL    HW294091   8.511  14.153   3.816
30732SOL     OW94092   6.189  11.295   2.294
30732SOL    HW194093   6.173  11.291   2.389
30732SOL    HW294094   6.120  11.240   2.256
30733SOL     OW94095  13.482  11.131   4.358
30733SOL    HW194096  13.453  11.041   4.346
30733SOL    HW294097  13.405  11.177   4.390
30734SOL     OW94098  11.026  10.659  11.310
30734SOL    HW194099  11.032  10.694  11.399
30734SOL    HW294100  10.995  10.569  11.322
30735SOL     OW94101  12.851   6.697   8.982
30735SOL    HW194102  12.934   6.684   8.936
30735SOL    HW294103  12.791   6.729   8.915
30736SOL     OW94104  11.912   6.962  10.160
30736SOL    HW194105  11.953   7.049  10.154
30736SOL    HW294106  11.905   6.945  10.254
30737SOL     OW94107  12.090   5.244   0.677
30737SOL    HW194108  12.122   5.218   0.591
30737SOL    HW294109  12.137   5.325   0.697
30738SOL     OW94110   1.640  11.154   1.015
30738SOL    HW194111   1.704  11.163   1.085
30738SOL    HW294112   1.687  11.176   0.935
30739SOL     OW94113  10.497  12.674  14.057
30739SOL    HW194114  10.468  12.593  14.015
30739SOL    HW294115  10.504  12.652  14.150
30740SOL     OW94116   1.381  11.575   7.355
30740SOL    HW194117   1.355  11.593   7.265
30740SOL    HW294118   1.397  11.481   7.357
30741SOL     OW94119   1.203  14.687  14.469
30741SOL    HW194120   1.209  14.613  14.409
30741SOL    HW294121   1.229  14.763  14.417
30742SOL     OW94122   2.078   9.833   1.500
30742SOL    HW194123   2.075   9.785   1.583
30742SOL    HW294124   2.095   9.923   1.525
30743SOL     OW94125  14.672   5.642   6.964
30743SOL    HW194126  14.615   5.643   7.041
30743SOL    HW294127  14.637   5.709   6.906
30744SOL     OW94128   1.754   5.118   0.599
30744SOL    HW194129   1.674   5.158   0.564
30744SOL    HW294130   1.805   5.094   0.521
30745SOL     OW94131  12.335  14.249  11.990
30745SOL    HW194132  12.283  14.330  11.982
30745SOL    HW294133  12.297  14.190  11.924
30746SOL     OW94134  10.859  10.271   0.030
30746SOL    HW194135  10.893  10.191  14.868
30746SOL    HW294136  10.936  10.328   0.038
30747SOL     OW94137   5.320  12.747  10.519
30747SOL    HW194138   5.297  12.710  10.434
30747SOL    HW294139   5.413  12.724  10.531
30748SOL     OW94140  13.496   1.445   5.206
30748SOL    HW194141  13.405   1.462   5.230
30748SOL    HW294142  13.531   1.531   5.184
30749SOL     OW94143   2.824   2.092  10.001
30749SOL    HW194144   2.862   2.095   9.914
30749SOL    HW294145   2.897   2.110  10.060
30750SOL     OW94146  13.421   4.786   3.999
30750SOL    HW194147  13.361   4.826   3.936
30750SOL    HW294148  13.503   4.836   3.990
30751SOL     OW94149   1.641  10.635   3.397
30751SOL    HW194150   1.583  10.559   3.386
30751SOL    HW294151   1.607  10.701   3.337
30752SOL     OW94152   7.852   2.337   9.068
30752SOL    HW194153   7.907   2.332   8.990
30752SOL    HW294154   7.870   2.423   9.105
30753SOL     OW94155  14.245   3.063   1.850
30753SOL    HW194156  14.172   3.084   1.908
30753SOL    HW294157  14.205   3.048   1.765
30754SOL     OW94158   5.841   9.247   9.570
30754SOL    HW194159   5.848   9.168   9.623
30754SOL    HW294160   5.767   9.231   9.512
30755SOL     OW94161  13.005   6.416   4.652
30755SOL    HW194162  13.065   6.351   4.615
30755SOL    HW294163  12.924   6.405   4.603
30756SOL     OW94164  10.077   6.042   6.553
30756SOL    HW194165  10.143   6.061   6.620
30756SOL    HW294166  10.125   5.997   6.484
30757SOL     OW94167  14.400  14.427   3.762
30757SOL    HW194168  14.341  14.352   3.763
30757SOL    HW294169  14.399  14.460   3.852
30758SOL     OW94170   2.947   0.964  12.408
30758SOL    HW194171   2.872   0.948  12.350
30758SOL    HW294172   2.911   1.016  12.480
30759SOL     OW94173   2.136   5.576   1.897
30759SOL    HW194174   2.159   5.580   1.804
30759SOL    HW294175   2.060   5.518   1.901
30760SOL     OW94176   1.288   5.417  14.675
30760SOL    HW194177   1.211   5.468  14.703
30760SOL    HW294178   1.282   5.335  14.724
30761SOL     OW94179   5.181   5.936   5.001
30761SOL    HW194180   5.089   5.921   5.025
30761SOL    HW294181   5.198   6.027   5.026
30762SOL     OW94182   6.603   7.767  14.141
30762SOL    HW194183   6.606   7.827  14.067
30762SOL    HW294184   6.667   7.801  14.203
30763SOL     OW94185   8.826   0.607   8.938
30763SOL    HW194186   8.808   0.547   9.010
30763SOL    HW294187   8.740   0.642   8.913
30764SOL     OW94188   2.622  14.766   1.985
30764SOL    HW194189   2.622  14.797   2.076
30764SOL    HW294190   2.532  14.735   1.970
30765SOL     OW94191   7.681  11.070  11.268
30765SOL    HW194192   7.686  11.002  11.201
30765SOL    HW294193   7.701  11.151  11.221
30766SOL     OW94194  11.839   9.514   7.002
30766SOL    HW194195  11.773   9.570   6.961
30766SOL    HW294196  11.816   9.426   6.972
30767SOL     OW94197   3.073   6.890   5.680
30767SOL    HW194198   2.979   6.890   5.664
30767SOL    HW294199   3.113   6.893   5.593
30768SOL     OW94200   6.327  11.346  13.586
30768SOL    HW194201   6.342  11.433  13.548
30768SOL    HW294202   6.407  11.327  13.635
30769SOL     OW94203   2.305  10.732  11.864
30769SOL    HW194204   2.339  10.812  11.904
30769SOL    HW294205   2.250  10.763  11.793
30770SOL     OW94206  11.192   1.731  12.006
30770SOL    HW194207  11.126   1.662  12.008
30770SOL    HW294208  11.143   1.811  12.028
30771SOL     OW94209   3.365   2.813  12.736
30771SOL    HW194210   3.437   2.876  12.727
30771SOL    HW294211   3.383   2.767  12.818
30772SOL     OW94212  13.906  10.280   7.625
30772SOL    HW194213  13.992  10.278   7.583
30772SOL    HW294214  13.877  10.188   7.623
30773SOL     OW94215   6.116   4.077   9.741
30773SOL    HW194216   6.034   4.059   9.693
30773SOL    HW294217   6.171   4.001   9.722
30774SOL     OW94218   8.527   2.935   7.129
30774SOL    HW194219   8.596   2.872   7.109
30774SOL    HW294220   8.450   2.900   7.084
30775SOL     OW94221  13.015  13.009   9.490
30775SOL    HW194222  13.001  12.937   9.551
30775SOL    HW294223  13.101  13.044   9.514
30776SOL     OW94224   0.284   3.471   2.449
30776SOL    HW194225   0.245   3.484   2.362
30776SOL    HW294226   0.313   3.379   2.449
30777SOL     OW94227  13.618   4.184   5.180
30777SOL    HW194228  13.678   4.198   5.253
30777SOL    HW294229  13.660   4.229   5.106
30778SOL     OW94230  13.267  13.724   5.135
30778SOL    HW194231  13.339  13.758   5.190
30778SOL    HW294232  13.205  13.797   5.130
30779SOL     OW94233   6.634   5.513   7.468
30779SOL    HW194234   6.664   5.559   7.389
30779SOL    HW294235   6.713   5.482   7.510
30780SOL     OW94236   9.370   7.631   8.060
30780SOL    HW194237   9.378   7.658   8.151
30780SOL    HW294238   9.287   7.583   8.056
30781SOL     OW94239  12.937  14.222  11.829
30781SOL    HW194240  12.997  14.202  11.757
30781SOL    HW294241  12.852  14.236  11.787
30782SOL     OW94242  11.604  13.460   9.275
30782SOL    HW194243  11.665  13.414   9.332
30782SOL    HW294244  11.613  13.417   9.190
30783SOL     OW94245  12.182   1.963  11.883
30783SOL    HW194246  12.224   2.043  11.853
30783SOL    HW294247  12.245   1.923  11.943
30784SOL     OW94248   8.575   8.370   0.273
30784SOL    HW194249   8.558   8.462   0.294
30784SOL    HW294250   8.627   8.339   0.347
30785SOL     OW94251   7.940   3.487  11.341
30785SOL    HW194252   8.015   3.483  11.401
30785SOL    HW294253   7.908   3.576  11.349
30786SOL     OW94254   7.056   6.488   4.867
30786SOL    HW194255   7.125   6.472   4.932
30786SOL    HW294256   6.998   6.552   4.907
30787SOL     OW94257   8.229   5.441  14.567
30787SOL    HW194258   8.207   5.349  14.584
30787SOL    HW294259   8.145   5.485  14.560
30788SOL     OW94260  12.176   1.612  14.587
30788SOL    HW194261  12.168   1.543  14.654
30788SOL    HW294262  12.267   1.642  14.594
30789SOL     OW94263  13.448   8.270  13.085
30789SOL    HW194264  13.376   8.330  13.064
30789SOL    HW294265  13.441   8.201  13.019
30790SOL     OW94266   9.510   3.464   7.312
30790SOL    HW194267   9.485   3.460   7.220
30790SOL    HW294268   9.584   3.403   7.319
30791SOL     OW94269   6.992   8.748   4.988
30791SOL    HW194270   7.039   8.684   5.041
30791SOL    HW294271   6.905   8.752   5.028
30792SOL     OW94272   8.790   9.636   1.097
30792SOL    HW194273   8.859   9.702   1.095
30792SOL    HW294274   8.826   9.563   1.046
30793SOL     OW94275  13.397   9.378   7.804
30793SOL    HW194276  13.420   9.468   7.829
30793SOL    HW294277  13.481   9.333   7.798
30794SOL     OW94278  12.559   6.568   5.309
30794SOL    HW194279  12.486   6.596   5.255
30794SOL    HW294280  12.628   6.632   5.290
30795SOL     OW94281   9.896  12.689   9.180
30795SOL    HW194282   9.908  12.716   9.271
30795SOL    HW294283   9.978  12.715   9.137
30796SOL     OW94284   2.157   3.467   6.965
30796SOL    HW194285   2.192   3.431   7.046
30796SOL    HW294286   2.115   3.549   6.991
30797SOL     OW94287   7.500   2.087   2.109
30797SOL    HW194288   7.595   2.096   2.119
30797SOL    HW294289   7.483   2.113   2.018
30798SOL     OW94290   7.918  12.839   6.996
30798SOL    HW194291   7.858  12.907   6.964
30798SOL    HW294292   7.876  12.805   7.075
30799SOL     OW94293  13.938   8.389   3.950
30799SOL    HW194294  13.958   8.372   4.042
30799SOL    HW294295  13.854   8.434   3.952
30800SOL     OW94296   0.666   8.513  10.743
30800SOL    HW194297   0.744   8.511  10.687
30800SOL    HW294298   0.671   8.432  10.794
30801SOL     OW94299   1.216   9.084  10.472
30801SOL    HW194300   1.260   9.169  10.486
30801SOL    HW294301   1.148   9.081  10.539
30802SOL     OW94302   3.995   6.459   0.468
30802SOL    HW194303   4.067   6.413   0.512
30802SOL    HW294304   4.010   6.444   0.375
30803SOL     OW94305  11.888   3.297   8.770
30803SOL    HW194306  11.832   3.220   8.761
30803SOL    HW294307  11.963   3.280   8.712
30804SOL     OW94308   5.177   1.179   6.718
30804SOL    HW194309   5.270   1.189   6.699
30804SOL    HW294310   5.148   1.109   6.659
30805SOL     OW94311   8.641   8.909   5.117
30805SOL    HW194312   8.708   8.930   5.050
30805SOL    HW294313   8.567   8.965   5.094
30806SOL     OW94314   8.356   8.707   0.925
30806SOL    HW194315   8.361   8.745   0.838
30806SOL    HW294316   8.276   8.654   0.923
30807SOL     OW94317  12.048  12.628  14.023
30807SOL    HW194318  12.026  12.543  13.985
30807SOL    HW294319  12.131  12.614  14.068
30808SOL     OW94320   0.999   3.864   6.941
30808SOL    HW194321   1.075   3.855   6.999
30808SOL    HW294322   0.949   3.937   6.978
30809SOL     OW94323  10.776   1.292   3.112
30809SOL    HW194324  10.709   1.225   3.098
30809SOL    HW294325  10.793   1.328   3.024
30810SOL     OW94326  12.912   4.193  12.938
30810SOL    HW194327  12.894   4.102  12.915
30810SOL    HW294328  12.827   4.228  12.964
30811SOL     OW94329   0.548   2.471   1.902
30811SOL    HW194330   0.463   2.478   1.946
30811SOL    HW294331   0.603   2.535   1.946
30812SOL     OW94332  13.990   7.851  11.275
30812SOL    HW194333  14.023   7.786  11.212
30812SOL    HW294334  14.018   7.818  11.360
30813SOL     OW94335   5.869   2.660   1.127
30813SOL    HW194336   5.853   2.753   1.110
30813SOL    HW294337   5.798   2.634   1.186
30814SOL     OW94338  11.812   1.045   1.125
30814SOL    HW194339  11.744   1.076   1.184
30814SOL    HW294340  11.888   1.030   1.181
30815SOL     OW94341   2.358   7.752  14.162
30815SOL    HW194342   2.440   7.798  14.147
30815SOL    HW294343   2.309   7.762  14.080
30816SOL     OW94344  12.126   3.937  12.122
30816SOL    HW194345  12.077   3.987  12.187
30816SOL    HW294346  12.105   3.846  12.139
30817SOL     OW94347  11.300   6.674  14.608
30817SOL    HW194348  11.384   6.704  14.643
30817SOL    HW294349  11.323   6.604  14.547
30818SOL     OW94350   0.531   3.393   8.711
30818SOL    HW194351   0.516   3.299   8.712
30818SOL    HW294352   0.587   3.408   8.788
30819SOL     OW94353   2.871  14.330  10.583
30819SOL    HW194354   2.851  14.334  10.490
30819SOL    HW294355   2.963  14.357  10.589
30820SOL     OW94356   0.781   4.778  14.074
30820SOL    HW194357   0.861   4.810  14.117
30820SOL    HW294358   0.814   4.718  14.006
30821SOL     OW94359   3.030   1.794   6.474
30821SOL    HW194360   3.016   1.807   6.380
30821SOL    HW294361   2.977   1.863   6.516
30822SOL     OW94362  12.195   1.615   4.964
30822SOL    HW194363  12.277   1.660   4.944
30822SOL    HW294364  12.213   1.564   5.043
30823SOL     OW94365   2.290  13.816  10.800
30823SOL    HW194366   2.241  13.817  10.718
30823SOL    HW294367   2.324  13.727  10.807
30824SOL     OW94368   2.523   3.660   0.604
30824SOL    HW194369   2.614   3.687   0.619
30824SOL    HW294370   2.472   3.740   0.614
30825SOL     OW94371  11.874   3.004   7.612
30825SOL    HW194372  11.932   3.080   7.618
30825SOL    HW294373  11.926   2.931   7.647
30826SOL     OW94374   8.387   3.559  11.591
30826SOL    HW194375   8.413   3.468  11.581
30826SOL    HW294376   8.467   3.609  11.575
30827SOL     OW94377  12.739   6.372   5.858
30827SOL    HW194378  12.693   6.304   5.810
30827SOL    HW294379  12.804   6.325   5.911
30828SOL     OW94380   3.294  13.610   4.274
30828SOL    HW194381   3.305  13.661   4.354
30828SOL    HW294382   3.200  13.588   4.272
30829SOL     OW94383   4.749  12.910  13.774
30829SOL    HW194384   4.736  12.862  13.856
30829SOL    HW294385   4.665  12.903  13.728
30830SOL     OW94386  14.534   7.944   5.095
30830SOL    HW194387  14.516   8.026   5.141
30830SOL    HW294388  14.593   7.895   5.153
30831SOL     OW94389   8.107   4.740  11.959
30831SOL    HW194390   8.164   4.817  11.955
30831SOL    HW294391   8.026   4.772  11.998
30832SOL     OW94392  12.283   3.500   0.176
30832SOL    HW194393  12.214   3.562   0.153
30832SOL    HW294394  12.359   3.529   0.125
30833SOL     OW94395  13.353  13.545   7.826
30833SOL    HW194396  13.443  13.576   7.819
30833SOL    HW294397  13.332  13.510   7.740
30834SOL     OW94398   3.180   1.141   9.578
30834SOL    HW194399   3.096   1.115   9.540
30834SOL    HW294400   3.236   1.065   9.564
30835SOL     OW94401  13.022   4.198  11.641
30835SOL    HW194402  12.998   4.162  11.727
30835SOL    HW294403  13.118   4.192  11.639
30836SOL     OW94404   2.431   2.368   3.565
30836SOL    HW194405   2.435   2.422   3.644
30836SOL    HW294406   2.403   2.282   3.596
30837SOL     OW94407   5.179   6.060  12.243
30837SOL    HW194408   5.167   6.152  12.267
30837SOL    HW294409   5.124   6.048  12.166
30838SOL     OW94410   4.084   2.053   5.487
30838SOL    HW194411   4.002   2.011   5.514
30838SOL    HW294412   4.076   2.060   5.391
30839SOL     OW94413  13.269  11.371  11.321
30839SOL    HW194414  13.282  11.466  11.330
30839SOL    HW294415  13.221  11.346  11.400
30840SOL     OW94416   6.932   6.569   9.815
30840SOL    HW194417   6.853   6.576   9.761
30840SOL    HW294418   6.899   6.569   9.905
30841SOL     OW94419   8.771  12.575   7.451
30841SOL    HW194420   8.825  12.654   7.442
30841SOL    HW294421   8.738  12.579   7.541
30842SOL     OW94422   3.178   5.992   4.050
30842SOL    HW194423   3.227   5.921   4.092
30842SOL    HW294424   3.192   6.068   4.108
30843SOL     OW94425  11.493   4.402  12.707
30843SOL    HW194426  11.516   4.443  12.791
30843SOL    HW294427  11.568   4.417  12.651
30844SOL     OW94428   5.650  13.403   0.802
30844SOL    HW194429   5.635  13.308   0.804
30844SOL    HW294430   5.642  13.426   0.710
30845SOL     OW94431  13.058   9.502   4.537
30845SOL    HW194432  13.139   9.533   4.497
30845SOL    HW294433  12.997   9.574   4.527
30846SOL     OW94434   6.347  14.435  11.272
30846SOL    HW194435   6.370  14.367  11.335
30846SOL    HW294436   6.423  14.492  11.269
30847SOL     OW94437   6.946   2.126   5.048
30847SOL    HW194438   6.863   2.108   5.004
30847SOL    HW294439   6.920   2.153   5.136
30848SOL     OW94440   4.220   0.859  11.571
30848SOL    HW194441   4.249   0.815  11.491
30848SOL    HW294442   4.156   0.924  11.540
30849SOL     OW94443   8.608   6.126  13.384
30849SOL    HW194444   8.589   6.049  13.331
30849SOL    HW294445   8.677   6.097  13.444
30850SOL     OW94446   5.225   1.680   9.734
30850SOL    HW194447   5.293   1.621   9.698
30850SOL    HW294448   5.253   1.695   9.824
30851SOL     OW94449  12.303  13.326   6.532
30851SOL    HW194450  12.372  13.383   6.497
30851SOL    HW294451  12.223  13.376   6.517
30852SOL     OW94452   7.483  10.189   5.672
30852SOL    HW194453   7.476  10.163   5.580
30852SOL    HW294454   7.555  10.136   5.706
30853SOL     OW94455  12.065  13.263  11.852
30853SOL    HW194456  12.005  13.283  11.923
30853SOL    HW294457  12.106  13.347  11.831
30854SOL     OW94458   0.511   7.012   4.479
30854SOL    HW194459   0.449   7.080   4.453
30854SOL    HW294460   0.500   6.943   4.413
30855SOL     OW94461   8.561  11.240   8.849
30855SOL    HW194462   8.489  11.292   8.886
30855SOL    HW294463   8.518  11.162   8.813
30856SOL     OW94464   8.162   3.222  10.014
30856SOL    HW194465   8.183   3.249   9.925
30856SOL    HW294466   8.239   3.245  10.066
30857SOL     OW94467   5.019   5.197  11.314
30857SOL    HW194468   5.076   5.193  11.390
30857SOL    HW294469   4.932   5.219  11.349
30858SOL     OW94470   7.968   0.386   4.292
30858SOL    HW194471   7.891   0.404   4.239
30858SOL    HW294472   7.933   0.368   4.380
30859SOL     OW94473   0.429   4.712   1.019
30859SOL    HW194474   0.368   4.640   1.000
30859SOL    HW294475   0.515   4.670   1.019
30860SOL     OW94476   4.639   8.569   4.581
30860SOL    HW194477   4.700   8.497   4.593
30860SOL    HW294478   4.560   8.528   4.546
30861SOL     OW94479  13.147   0.507   8.092
30861SOL    HW194480  13.165   0.489   8.184
30861SOL    HW294481  13.233   0.516   8.052
30862SOL     OW94482   3.555   3.729   5.707
30862SOL    HW194483   3.615   3.696   5.774
30862SOL    HW294484   3.559   3.664   5.637
30863SOL     OW94485   6.906   2.571   5.858
30863SOL    HW194486   6.911   2.667   5.852
30863SOL    HW294487   6.845   2.546   5.789
30864SOL     OW94488  13.080   6.885   5.641
30864SOL    HW194489  13.092   6.816   5.576
30864SOL    HW294490  13.083   6.840   5.725
30865SOL     OW94491   4.933   5.280   2.865
30865SOL    HW194492   4.879   5.241   2.797
30865SOL    HW294493   4.987   5.208   2.898
30866SOL     OW94494   0.905   6.257   8.962
30866SOL    HW194495   0.823   6.228   9.001
30866SOL    HW294496   0.901   6.225   8.872
30867SOL     OW94497   5.306   7.429   0.706
30867SOL    HW194498   5.289   7.389   0.791
30867SOL    HW294499   5.384   7.384   0.673
30868SOL     OW94500  13.442   5.502   5.009
30868SOL    HW194501  13.411   5.439   5.074
30868SOL    HW294502  13.362   5.547   4.979
30869SOL     OW94503  13.359  13.544   8.428
30869SOL    HW194504  13.381  13.526   8.336
30869SOL    HW294505  13.423  13.609   8.456
30870SOL     OW94506   3.058   0.214   7.800
30870SOL    HW194507   3.093   0.291   7.847
30870SOL    HW294508   3.136   0.173   7.762
30871SOL     OW94509   0.523   5.686   7.991
30871SOL    HW194510   0.563   5.772   7.980
30871SOL    HW294511   0.538   5.664   8.083
30872SOL     OW94512  11.187  12.261   2.450
30872SOL    HW194513  11.195  12.346   2.405
30872SOL    HW294514  11.276  12.240   2.478
30873SOL     OW94515  14.367   1.537  11.280
30873SOL    HW194516  14.348   1.509  11.190
30873SOL    HW294517  14.429   1.609  11.270
30874SOL     OW94518  10.161   7.001   6.030
30874SOL    HW194519  10.255   7.016   6.043
30874SOL    HW294520  10.143   7.038   5.943
30875SOL     OW94521  11.935   4.224   4.995
30875SOL    HW194522  11.899   4.312   4.988
30875SOL    HW294523  11.978   4.222   5.080
30876SOL     OW94524   0.584   9.152   9.832
30876SOL    HW194525   0.558   9.163   9.741
30876SOL    HW294526   0.592   9.057   9.843
30877SOL     OW94527   8.635   3.100  14.738
30877SOL    HW194528   8.649   3.165  14.669
30877SOL    HW294529   8.622   3.018  14.690
30878SOL     OW94530   5.988  13.281   7.526
30878SOL    HW194531   5.986  13.218   7.597
30878SOL    HW294532   6.043  13.241   7.459
30879SOL     OW94533   4.381   3.628   4.635
30879SOL    HW194534   4.377   3.638   4.730
30879SOL    HW294535   4.472   3.647   4.612
30880SOL     OW94536  13.532  10.890  10.225
30880SOL    HW194537  13.611  10.912  10.273
30880SOL    HW294538  13.541  10.935  10.141
30881SOL     OW94539   7.069   9.495   6.106
30881SOL    HW194540   7.015   9.481   6.027
30881SOL    HW294541   7.104   9.408   6.126
30882SOL     OW94542  12.221   3.885   5.819
30882SOL    HW194543  12.194   3.882   5.910
30882SOL    HW294544  12.182   3.965   5.784
30883SOL     OW94545   8.902   1.405  14.514
30883SOL    HW194546   8.921   1.349  14.590
30883SOL    HW294547   8.988   1.435  14.485
30884SOL     OW94548  10.458   5.911  13.249
30884SOL    HW194549  10.548   5.919  13.219
30884SOL    HW294550  10.461   5.840  13.314
30885SOL     OW94551  12.891   7.034   5.312
30885SOL    HW194552  12.955   6.963   5.319
30885SOL    HW294553  12.944   7.112   5.295
30886SOL     OW94554  11.049   6.632  14.735
30886SOL    HW194555  11.058   6.701  14.800
30886SOL    HW294556  11.139   6.606  14.714
30887SOL     OW94557   3.338  10.489  13.629
30887SOL    HW194558   3.412  10.550  13.635
30887SOL    HW294559   3.335  10.446  13.714
30888SOL     OW94560   5.467   7.579   9.506
30888SOL    HW194561   5.403   7.591   9.436
30888SOL    HW294562   5.520   7.505   9.478
30889SOL     OW94563  10.927   7.201   4.858
30889SOL    HW194564  10.879   7.210   4.940
30889SOL    HW294565  10.983   7.278   4.853
30890SOL     OW94566  11.945   6.925   8.858
30890SOL    HW194567  11.928   6.997   8.919
30890SOL    HW294568  12.019   6.878   8.897
30891SOL     OW94569   9.553   4.062   9.924
30891SOL    HW194570   9.543   3.975   9.886
30891SOL    HW294571   9.465   4.086   9.952
30892SOL     OW94572   4.961   4.691  12.704
30892SOL    HW194573   4.952   4.646  12.788
30892SOL    HW294574   4.960   4.784  12.727
30893SOL     OW94575   5.182   6.570  13.468
30893SOL    HW194576   5.157   6.489  13.423
30893SOL    HW294577   5.229   6.539  13.546
30894SOL     OW94578   0.105   0.815   6.515
30894SOL    HW194579   0.047   0.739   6.512
30894SOL    HW294580   0.046   0.890   6.522
30895SOL     OW94581  13.722   6.414   1.270
30895SOL    HW194582  13.652   6.460   1.317
30895SOL    HW294583  13.679   6.375   1.195
30896SOL     OW94584   1.588   4.309   3.993
30896SOL    HW194585   1.604   4.295   3.899
30896SOL    HW294586   1.572   4.221   4.027
30897SOL     OW94587   6.729   0.963  10.788
30897SOL    HW194588   6.725   1.024  10.715
30897SOL    HW294589   6.818   0.928  10.785
30898SOL     OW94590   8.634  10.881  10.552
30898SOL    HW194591   8.565  10.920  10.606
30898SOL    HW294592   8.695  10.954  10.536
30899SOL     OW94593   6.101   3.090  11.083
30899SOL    HW194594   6.176   3.031  11.086
30899SOL    HW294595   6.092   3.113  10.991
30900SOL     OW94596  14.124   6.282  11.149
30900SOL    HW194597  14.043   6.307  11.195
30900SOL    HW294598  14.160   6.210  11.201
30901SOL     OW94599   3.980   4.493   9.733
30901SOL    HW194600   4.012   4.579   9.762
30901SOL    HW294601   3.974   4.442   9.814
30902SOL     OW94602   7.689   4.313   7.839
30902SOL    HW194603   7.625   4.245   7.861
30902SOL    HW294604   7.640   4.395   7.847
30903SOL     OW94605   6.807  11.553  14.714
30903SOL    HW194606   6.739  11.495  14.749
30903SOL    HW294607   6.786  11.558  14.620
30904SOL     OW94608   9.454  13.689  11.210
30904SOL    HW194609   9.531  13.746  11.214
30904SOL    HW294610   9.491  13.600  11.208
30905SOL     OW94611   1.243   1.371  11.312
30905SOL    HW194612   1.249   1.384  11.217
30905SOL    HW294613   1.200   1.286  11.322
30906SOL     OW94614  10.778  14.286   7.497
30906SOL    HW194615  10.719  14.329   7.559
30906SOL    HW294616  10.860  14.275   7.545
30907SOL     OW94617   6.463   7.809   2.524
30907SOL    HW194618   6.412   7.879   2.563
30907SOL    HW294619   6.522   7.854   2.462
30908SOL     OW94620   4.675  12.608   0.254
30908SOL    HW194621   4.742  12.667   0.288
30908SOL    HW294622   4.720  12.525   0.242
30909SOL     OW94623  11.547   9.974  11.595
30909SOL    HW194624  11.590  10.059  11.594
30909SOL    HW294625  11.479   9.980  11.528
30910SOL     OW94626   1.522   4.772  12.024
30910SOL    HW194627   1.536   4.706  11.956
30910SOL    HW294628   1.435   4.808  12.005
30911SOL     OW94629   2.954   5.371   9.033
30911SOL    HW194630   2.949   5.446   9.092
30911SOL    HW294631   2.979   5.297   9.089
30912SOL     OW94632   1.332   2.542   4.747
30912SOL    HW194633   1.288   2.598   4.683
30912SOL    HW294634   1.419   2.580   4.757
30913SOL     OW94635   4.215   7.970  10.266
30913SOL    HW194636   4.148   7.912  10.230
30913SOL    HW294637   4.264   7.915  10.328
30914SOL     OW94638   8.060   0.197   4.732
30914SOL    HW194639   7.997   0.127   4.748
30914SOL    HW294640   8.027   0.271   4.783
30915SOL     OW94641   0.420   8.919  13.141
30915SOL    HW194642   0.379   8.922  13.228
30915SOL    HW294643   0.414   9.009  13.109
30916SOL     OW94644  12.369  14.635   5.838
30916SOL    HW194645  12.341  14.656   5.749
30916SOL    HW294646  12.305  14.570   5.869
30917SOL     OW94647   8.195   4.534   8.533
30917SOL    HW194648   8.268   4.509   8.588
30917SOL    HW294649   8.182   4.459   8.475
30918SOL     OW94650   0.830   0.171  11.226
30918SOL    HW194651   0.856   0.253  11.267
30918SOL    HW294652   0.909   0.142  11.180
30919SOL     OW94653  14.060   2.187  13.389
30919SOL    HW194654  14.010   2.268  13.374
30919SOL    HW294655  13.999   2.130  13.436
30920SOL     OW94656   6.783   9.424  13.358
30920SOL    HW194657   6.840   9.402  13.285
30920SOL    HW294658   6.790   9.519  13.365
30921SOL     OW94659   7.953  11.670   1.873
30921SOL    HW194660   7.888  11.733   1.906
30921SOL    HW294661   7.958  11.689   1.779
30922SOL     OW94662  13.511  14.389  13.995
30922SOL    HW194663  13.577  14.392  13.925
30922SOL    HW294664  13.537  14.459  14.055
30923SOL     OW94665   4.992   7.078   9.195
30923SOL    HW194666   4.914   7.133   9.185
30923SOL    HW294667   5.050   7.130   9.251
30924SOL     OW94668  12.580  10.644   2.634
30924SOL    HW194669  12.565  10.550   2.626
30924SOL    HW294670  12.586  10.675   2.543
30925SOL     OW94671   2.566   0.695  10.065
30925SOL    HW194672   2.619   0.711  10.143
30925SOL    HW294673   2.532   0.781  10.041
30926SOL     OW94674   4.717   3.891  13.155
30926SOL    HW194675   4.679   3.876  13.241
30926SOL    HW294676   4.787   3.955  13.170
30927SOL     OW94677   6.737   3.732   9.194
30927SOL    HW194678   6.662   3.675   9.209
30927SOL    HW294679   6.748   3.733   9.098
30928SOL     OW94680   2.519   9.415  11.163
30928SOL    HW194681   2.598   9.379  11.204
30928SOL    HW294682   2.534   9.404  11.069
30929SOL     OW94683   9.432   1.822   4.511
30929SOL    HW194684   9.470   1.812   4.598
30929SOL    HW294685   9.418   1.916   4.501
30930SOL     OW94686  14.847   7.497  10.435
30930SOL    HW194687   0.050   7.467  10.476
30930SOL    HW294688  14.849   7.592  10.445
30931SOL     OW94689   2.813   7.098   7.197
30931SOL    HW194690   2.809   7.129   7.107
30931SOL    HW294691   2.826   7.004   7.190
30932SOL     OW94692   7.874   2.821   2.165
30932SOL    HW194693   7.803   2.757   2.168
30932SOL    HW294694   7.954   2.767   2.160
30933SOL     OW94695   2.528  11.477   9.515
30933SOL    HW194696   2.618  11.447   9.514
30933SOL    HW294697   2.513  11.510   9.426
30934SOL     OW94698  14.115   8.520   3.252
30934SOL    HW194699  14.186   8.483   3.199
30934SOL    HW294700  14.071   8.444   3.290
30935SOL     OW94701   0.778  10.675   5.556
30935SOL    HW194702   0.854  10.708   5.508
30935SOL    HW294703   0.789  10.580   5.558
30936SOL     OW94704  11.081  13.229   6.184
30936SOL    HW194705  11.043  13.183   6.258
30936SOL    HW294706  11.062  13.172   6.108
30937SOL     OW94707   0.620   8.021  10.347
30937SOL    HW194708   0.679   8.044  10.419
30937SOL    HW294709   0.675   7.974  10.285
30938SOL     OW94710   3.213   9.419   0.329
30938SOL    HW194711   3.197   9.364   0.253
30938SOL    HW294712   3.245   9.359   0.396
30939SOL     OW94713  11.218   1.857  14.385
30939SOL    HW194714  11.288   1.800  14.352
30939SOL    HW294715  11.216   1.840  14.480
30940SOL     OW94716  12.741   4.320  11.009
30940SOL    HW194717  12.655   4.284  11.031
30940SOL    HW294718  12.722   4.408  10.976
30941SOL     OW94719   1.442   4.988   8.602
30941SOL    HW194720   1.472   4.897   8.600
30941SOL    HW294721   1.366   4.988   8.660
30942SOL     OW94722   5.610   7.198   1.757
30942SOL    HW194723   5.684   7.147   1.723
30942SOL    HW294724   5.562   7.224   1.678
30943SOL     OW94725   8.351   0.567   1.338
30943SOL    HW194726   8.376   0.501   1.273
30943SOL    HW294727   8.328   0.516   1.416
30944SOL     OW94728   9.164   0.237   4.867
30944SOL    HW194729   9.212   0.237   4.950
30944SOL    HW294730   9.149   0.144   4.849
30945SOL     OW94731   3.573  13.939  14.109
30945SOL    HW194732   3.614  13.931  14.023
30945SOL    HW294733   3.529  13.855  14.124
30946SOL     OW94734   9.161   1.235   8.469
30946SOL    HW194735   9.108   1.307   8.435
30946SOL    HW294736   9.241   1.237   8.417
30947SOL     OW94737   0.575  14.204  12.665
30947SOL    HW194738   0.500  14.160  12.703
30947SOL    HW294739   0.580  14.288  12.712
30948SOL     OW94740  10.357   7.596  11.702
30948SOL    HW194741  10.359   7.684  11.739
30948SOL    HW294742  10.269   7.587  11.665
30949SOL     OW94743   9.327  12.208  10.829
30949SOL    HW194744   9.278  12.285  10.860
30949SOL    HW294745   9.324  12.146  10.901
30950SOL     OW94746   8.125  12.985   4.486
30950SOL    HW194747   8.197  13.039   4.455
30950SOL    HW294748   8.057  12.995   4.418
30951SOL     OW94749   1.696  14.821  12.254
30951SOL    HW194750   1.637   0.004  12.209
30951SOL    HW294751   1.650  14.737  12.254
30952SOL     OW94752  10.041   0.103   9.394
30952SOL    HW194753   9.958   0.148   9.378
30952SOL    HW294754  10.033   0.021   9.345
30953SOL     OW94755   0.966  10.969   3.052
30953SOL    HW194756   0.995  10.979   3.142
30953SOL    HW294757   1.045  10.982   3.000
30954SOL     OW94758  14.340   6.420   2.032
30954SOL    HW194759  14.408   6.360   2.000
30954SOL    HW294760  14.283   6.366   2.086
30955SOL     OW94761  14.713   7.028   5.024
30955SOL    HW194762  14.761   7.079   4.959
30955SOL    HW294763  14.673   7.094   5.081
30956SOL     OW94764  11.108   5.621   6.058
30956SOL    HW194765  11.164   5.685   6.015
30956SOL    HW294766  11.065   5.670   6.129
30957SOL     OW94767  10.714  13.465   5.705
30957SOL    HW194768  10.675  13.420   5.780
30957SOL    HW294769  10.644  13.471   5.641
30958SOL     OW94770  13.492   2.394  12.826
30958SOL    HW194771  13.477   2.489  12.829
30958SOL    HW294772  13.427   2.362  12.763
30959SOL     OW94773   4.936   6.629   9.420
30959SOL    HW194774   4.921   6.583   9.502
30959SOL    HW294775   4.993   6.702   9.443
30960SOL     OW94776  13.540  13.248   8.952
30960SOL    HW194777  13.485  13.230   8.876
30960SOL    HW294778  13.528  13.172   9.009
30961SOL     OW94779   3.603   7.564   8.818
30961SOL    HW194780   3.648   7.506   8.879
30961SOL    HW294781   3.673   7.596   8.760
30962SOL     OW94782   8.026  11.861   4.745
30962SOL    HW194783   7.970  11.804   4.798
30962SOL    HW294784   7.969  11.894   4.676
30963SOL     OW94785   7.918  13.550   9.896
30963SOL    HW194786   7.906  13.560   9.801
30963SOL    HW294787   7.836  13.511   9.926
30964SOL     OW94788   9.514   8.552  12.072
30964SOL    HW194789   9.553   8.503  12.000
30964SOL    HW294790   9.423   8.522  12.075
30965SOL     OW94791   6.180   2.966   9.337
30965SOL    HW194792   6.243   2.934   9.401
30965SOL    HW294793   6.096   2.931   9.366
30966SOL     OW94794  10.106   9.625  10.129
30966SOL    HW194795  10.117   9.720  10.126
30966SOL    HW294796  10.035   9.611  10.191
30967SOL     OW94797  10.725   4.794   1.899
30967SOL    HW194798  10.742   4.861   1.833
30967SOL    HW294799  10.727   4.841   1.983
30968SOL     OW94800   8.212   5.511   1.012
30968SOL    HW194801   8.281   5.496   1.076
30968SOL    HW294802   8.158   5.432   1.015
30969SOL     OW94803   3.558   2.469  12.477
30969SOL    HW194804   3.471   2.470  12.437
30969SOL    HW294805   3.611   2.418  12.417
30970SOL     OW94806   0.344  10.997  12.809
30970SOL    HW194807   0.296  10.921  12.776
30970SOL    HW294808   0.435  10.968  12.816
30971SOL     OW94809   9.219   3.223   7.557
30971SOL    HW194810   9.284   3.264   7.500
30971SOL    HW294811   9.168   3.296   7.592
30972SOL     OW94812   0.402   2.236   2.772
30972SOL    HW194813   0.328   2.180   2.748
30972SOL    HW294814   0.439   2.196   2.850
30973SOL     OW94815   9.712   3.409  13.452
30973SOL    HW194816   9.785   3.397  13.391
30973SOL    HW294817   9.679   3.320  13.467
30974SOL     OW94818  14.084   0.603   3.154
30974SOL    HW194819  14.094   0.531   3.217
30974SOL    HW294820  14.154   0.589   3.090
30975SOL     OW94821  10.686   8.388   0.868
30975SOL    HW194822  10.629   8.365   0.941
30975SOL    HW294823  10.653   8.336   0.794
30976SOL     OW94824   2.604   6.410  10.255
30976SOL    HW194825   2.693   6.438  10.276
30976SOL    HW294826   2.554   6.491  10.250
30977SOL     OW94827   4.959  13.954   9.225
30977SOL    HW194828   4.981  13.933   9.134
30977SOL    HW294829   4.876  13.907   9.240
30978SOL     OW94830  10.579   8.148   7.913
30978SOL    HW194831  10.522   8.173   7.985
30978SOL    HW294832  10.525   8.091   7.859
30979SOL     OW94833  12.761   6.070   9.769
30979SOL    HW194834  12.845   6.036   9.802
30979SOL    HW294835  12.695   6.027   9.824
30980SOL     OW94836   3.459  11.427  14.862
30980SOL    HW194837   3.406  11.494   0.028
30980SOL    HW294838   3.459  11.353   0.045
30981SOL     OW94839  14.139  14.304   5.140
30981SOL    HW194840  14.170  14.303   5.231
30981SOL    HW294841  14.173  14.386   5.104
30982SOL     OW94842  10.838   7.135  12.277
30982SOL    HW194843  10.818   7.155  12.369
30982SOL    HW294844  10.907   7.197  12.254
30983SOL     OW94845   7.341   3.990   8.991
30983SOL    HW194846   7.370   3.965   8.903
30983SOL    HW294847   7.279   4.061   8.976
30984SOL     OW94848   3.754   8.314   8.634
30984SOL    HW194849   3.836   8.266   8.641
30984SOL    HW294850   3.708   8.273   8.561
30985SOL     OW94851   6.481   0.160  13.940
30985SOL    HW194852   6.495   0.117  13.855
30985SOL    HW294853   6.431   0.096  13.991
30986SOL     OW94854   6.877   3.120   9.493
30986SOL    HW194855   6.946   3.063   9.526
30986SOL    HW294856   6.802   3.063   9.482
30987SOL     OW94857   1.349   8.373  10.965
30987SOL    HW194858   1.280   8.408  11.021
30987SOL    HW294859   1.388   8.450  10.923
30988SOL     OW94860   9.708   1.208   8.428
30988SOL    HW194861   9.802   1.196   8.416
30988SOL    HW294862   9.670   1.178   8.346
30989SOL     OW94863  13.048   8.856   9.735
30989SOL    HW194864  13.128   8.825   9.777
30989SOL    HW294865  13.045   8.949   9.755
30990SOL     OW94866   9.986  13.982   5.889
30990SOL    HW194867   9.910  13.930   5.915
30990SOL    HW294868   9.996  13.966   5.796
30991SOL     OW94869   2.269   3.929   4.390
30991SOL    HW194870   2.180   3.899   4.410
30991SOL    HW294871   2.270   4.021   4.416
30992SOL     OW94872   0.488   9.053  10.867
30992SOL    HW194873   0.425   9.122  10.847
30992SOL    HW294874   0.506   9.011  10.783
30993SOL     OW94875   5.784   8.683   4.401
30993SOL    HW194876   5.860   8.625   4.391
30993SOL    HW294877   5.809   8.762   4.353
30994SOL     OW94878   3.690  14.093   2.867
30994SOL    HW194879   3.714  14.181   2.895
30994SOL    HW294880   3.619  14.068   2.925
30995SOL     OW94881   5.557  11.129  10.680
30995SOL    HW194882   5.650  11.149  10.688
30995SOL    HW294883   5.513  11.202  10.723
30996SOL     OW94884   4.442  13.272  10.722
30996SOL    HW194885   4.357  13.230  10.710
30996SOL    HW294886   4.477  13.279  10.633
30997SOL     OW94887   0.954  10.459   7.415
30997SOL    HW194888   1.029  10.407   7.445
30997SOL    HW294889   0.993  10.526   7.357
30998SOL     OW94890  10.594   6.412   4.734
30998SOL    HW194891  10.502   6.388   4.739
30998SOL    HW294892  10.640   6.344   4.783
30999SOL     OW94893  10.269  13.656   8.385
30999SOL    HW194894  10.316  13.581   8.421
30999SOL    HW294895  10.313  13.673   8.301
31000SOL     OW94896  12.828   5.279  10.029
31000SOL    HW194897  12.849   5.222   9.955
31000SOL    HW294898  12.844   5.226  10.106
31001SOL     OW94899   0.091  14.815   3.871
31001SOL    HW194900   0.166  14.766   3.903
31001SOL    HW294901   0.042  14.751   3.818
31002SOL     OW94902  11.579  12.661   0.250
31002SOL    HW194903  11.596  12.614   0.332
31002SOL    HW294904  11.490  12.636   0.226
31003SOL     OW94905  11.011   7.533   4.559
31003SOL    HW194906  11.044   7.613   4.518
31003SOL    HW294907  10.917   7.533   4.541
31004SOL     OW94908   1.983   4.729   8.476
31004SOL    HW194909   2.078   4.722   8.481
31004SOL    HW294910   1.958   4.669   8.406
31005SOL     OW94911   0.749  11.678  10.580
31005SOL    HW194912   0.761  11.680  10.675
31005SOL    HW294913   0.669  11.729  10.565
31006SOL     OW94914  12.214   8.410  14.223
31006SOL    HW194915  12.284   8.443  14.166
31006SOL    HW294916  12.259   8.387  14.304
31007SOL     OW94917   1.637   3.280  12.912
31007SOL    HW194918   1.685   3.363  12.919
31007SOL    HW294919   1.553   3.298  12.954
31008SOL     OW94920  11.706   6.001   6.856
31008SOL    HW194921  11.735   5.922   6.810
31008SOL    HW294922  11.701   6.068   6.787
31009SOL     OW94923  12.866   3.184   8.082
31009SOL    HW194924  12.780   3.221   8.059
31009SOL    HW294925  12.855   3.090   8.068
31010SOL     OW94926   5.273   4.057   3.388
31010SOL    HW194927   5.240   4.142   3.361
31010SOL    HW294928   5.214   3.994   3.346
31011SOL     OW94929   8.831  14.006   9.743
31011SOL    HW194930   8.840  14.035   9.652
31011SOL    HW294931   8.916  14.024   9.782
31012SOL     OW94932  11.470  10.472  13.888
31012SOL    HW194933  11.410  10.456  13.961
31012SOL    HW294934  11.413  10.501  13.817
31013SOL     OW94935   6.283   5.595   3.274
31013SOL    HW194936   6.343   5.523   3.293
31013SOL    HW294937   6.340   5.671   3.259
31014SOL     OW94938  12.068  10.102   9.487
31014SOL    HW194939  12.129  10.029   9.476
31014SOL    HW294940  11.983  10.065   9.462
31015SOL     OW94941   5.670  14.528   9.400
31015SOL    HW194942   5.710  14.507   9.315
31015SOL    HW294943   5.676  14.624   9.406
31016SOL     OW94944   2.034   7.956   3.510
31016SOL    HW194945   2.043   7.892   3.580
31016SOL    HW294946   2.123   7.975   3.482
31017SOL     OW94947   4.544   3.680   9.295
31017SOL    HW194948   4.504   3.595   9.281
31017SOL    HW294949   4.638   3.662   9.294
31018SOL     OW94950   4.505   3.202   8.662
31018SOL    HW194951   4.469   3.114   8.646
31018SOL    HW294952   4.436   3.262   8.633
31019SOL     OW94953   1.481   4.045   2.548
31019SOL    HW194954   1.393   4.078   2.527
31019SOL    HW294955   1.526   4.041   2.464
31020SOL     OW94956   1.214  10.745  10.436
31020SOL    HW194957   1.148  10.766  10.502
31020SOL    HW294958   1.164  10.736  10.355
31021SOL     OW94959  10.840  10.353   3.247
31021SOL    HW194960  10.911  10.334   3.309
31021SOL    HW294961  10.855  10.293   3.174
31022SOL     OW94962   5.046   0.874  13.774
31022SOL    HW194963   5.016   0.892  13.685
31022SOL    HW294964   5.116   0.810  13.763
31023SOL     OW94965  12.626   3.232   0.764
31023SOL    HW194966  12.676   3.206   0.687
31023SOL    HW294967  12.544   3.183   0.757
31024SOL     OW94968  11.003   7.706  14.664
31024SOL    HW194969  10.912   7.683  14.682
31024SOL    HW294970  11.009   7.798  14.686
31025SOL     OW94971   0.445   8.887  14.092
31025SOL    HW194972   0.537   8.915  14.082
31025SOL    HW294973   0.445   8.795  14.067
31026SOL     OW94974   3.628  12.369  11.346
31026SOL    HW194975   3.575  12.402  11.273
31026SOL    HW294976   3.684  12.302  11.307
31027SOL     OW94977   0.041   0.539   8.840
31027SOL    HW194978  14.830   0.544   8.876
31027SOL    HW294979   0.081   0.464   8.883
31028SOL     OW94980   7.501   6.569   1.956
31028SOL    HW194981   7.583   6.618   1.949
31028SOL    HW294982   7.437   6.634   1.987
31029SOL     OW94983  13.753  10.341  11.749
31029SOL    HW194984  13.724  10.364  11.661
31029SOL    HW294985  13.731  10.417  11.803
31030SOL     OW94986   8.233  14.814   7.841
31030SOL    HW194987   8.235  14.865   7.922
31030SOL    HW294988   8.317  14.768   7.840
31031SOL     OW94989   7.660  12.953   7.550
31031SOL    HW194990   7.627  12.978   7.636
31031SOL    HW294991   7.582  12.932   7.499
31032SOL     OW94992   3.914   6.592   6.895
31032SOL    HW194993   3.862   6.671   6.901
31032SOL    HW294994   3.953   6.596   6.807
31033SOL     OW94995   0.373   3.810  13.365
31033SOL    HW194996   0.348   3.718  13.380
31033SOL    HW294997   0.465   3.806  13.340
31034SOL     OW94998   3.570  12.243   1.344
31034SOL    HW194999   3.526  12.310   1.291
31034SOL    HW295000   3.508  12.225   1.415
31035SOL     OW95001   7.164   0.513  11.217
31035SOL    HW195002   7.166   0.464  11.298
31035SOL    HW295003   7.217   0.591  11.235
31036SOL     OW95004   5.118   3.069   2.635
31036SOL    HW195005   5.129   2.976   2.619
31036SOL    HW295006   5.033   3.076   2.679
31037SOL     OW95007   2.484   3.736   2.575
31037SOL    HW195008   2.389   3.729   2.569
31037SOL    HW295009   2.510   3.788   2.499
31038SOL     OW95010  14.544   5.206  13.357
31038SOL    HW195011  14.637   5.223  13.367
31038SOL    HW295012  14.510   5.282  13.309
31039SOL     OW95013  14.841  10.634  12.670
31039SOL    HW195014  14.843  10.554  12.617
31039SOL    HW295015  14.747  10.650  12.685
31040SOL     OW95016  13.312   8.662   7.692
31040SOL    HW195017  13.257   8.591   7.660
31040SOL    HW295018  13.318   8.722   7.617
31041SOL     OW95019  10.778  14.339  14.042
31041SOL    HW195020  10.731  14.256  14.037
31041SOL    HW295021  10.741  14.384  14.117
31042SOL     OW95022   4.317   0.326   4.395
31042SOL    HW195023   4.270   0.247   4.422
31042SOL    HW295024   4.404   0.317   4.434
31043SOL     OW95025  12.366   6.305  11.067
31043SOL    HW195026  12.342   6.222  11.026
31043SOL    HW295027  12.308   6.312  11.143
31044SOL     OW95028  13.678   1.251   0.452
31044SOL    HW195029  13.726   1.171   0.431
31044SOL    HW295030  13.587   1.230   0.432
31045SOL     OW95031   6.239  13.888   5.966
31045SOL    HW195032   6.220  13.895   5.872
31045SOL    HW295033   6.237  13.794   5.984
31046SOL     OW95034   9.963  12.154   3.299
31046SOL    HW195035  10.009  12.225   3.344
31046SOL    HW295036   9.975  12.174   3.206
31047SOL     OW95037   2.869   0.862   6.126
31047SOL    HW195038   2.906   0.797   6.185
31047SOL    HW295039   2.942   0.889   6.071
31048SOL     OW95040  13.834   7.429   9.758
31048SOL    HW195041  13.839   7.334   9.754
31048SOL    HW295042  13.742   7.447   9.780
31049SOL     OW95043  11.627   4.649  14.573
31049SOL    HW195044  11.700   4.692  14.616
31049SOL    HW295045  11.570   4.620  14.644
31050SOL     OW95046   6.388   2.062  10.615
31050SOL    HW195047   6.421   2.119  10.685
31050SOL    HW295048   6.310   2.021  10.652
31051SOL     OW95049   3.230  11.704   3.603
31051SOL    HW195050   3.301  11.764   3.581
31051SOL    HW295051   3.199  11.732   3.689
31052SOL     OW95052   3.399   8.711   8.033
31052SOL    HW195053   3.341   8.639   8.008
31052SOL    HW295054   3.341   8.774   8.077
31053SOL     OW95055  11.179   1.539  11.169
31053SOL    HW195056  11.165   1.634  11.164
31053SOL    HW295057  11.256   1.529  11.226
31054SOL     OW95058  14.367   4.806  10.024
31054SOL    HW195059  14.371   4.790  10.118
31054SOL    HW295060  14.409   4.729   9.985
31055SOL     OW95061   4.336   2.386   7.064
31055SOL    HW195062   4.387   2.454   7.109
31055SOL    HW295063   4.367   2.304   7.102
31056SOL     OW95064  14.221   9.130   2.233
31056SOL    HW195065  14.217   9.157   2.325
31056SOL    HW295066  14.181   9.203   2.185
31057SOL     OW95067  12.312  14.419  13.379
31057SOL    HW195068  12.356  14.442  13.461
31057SOL    HW295069  12.367  14.351  13.340
31058SOL     OW95070   3.354  14.021   6.591
31058SOL    HW195071   3.428  14.067   6.630
31058SOL    HW295072   3.379  14.008   6.500
31059SOL     OW95073   1.436   4.423  14.029
31059SOL    HW195074   1.509   4.452  14.085
31059SOL    HW295075   1.375   4.382  14.090
31060SOL     OW95076   4.743  10.073   7.320
31060SOL    HW195077   4.768  10.163   7.297
31060SOL    HW295078   4.649  10.070   7.303
31061SOL     OW95079  12.344  14.621   0.858
31061SOL    HW195080  12.381  14.707   0.877
31061SOL    HW295081  12.418  14.569   0.827
31062SOL     OW95082   0.882  11.920  12.689
31062SOL    HW195083   0.904  11.884  12.775
31062SOL    HW295084   0.787  11.930  12.691
31063SOL     OW95085  13.999   7.278   7.540
31063SOL    HW195086  13.939   7.333   7.490
31063SOL    HW295087  13.971   7.288   7.631
31064SOL     OW95088   5.605  14.467   1.559
31064SOL    HW195089   5.696  14.497   1.552
31064SOL    HW295090   5.612  14.387   1.612
31065SOL     OW95091   1.330   3.768   3.476
31065SOL    HW195092   1.248   3.815   3.461
31065SOL    HW295093   1.332   3.700   3.409
31066SOL     OW95094  12.669   2.059   3.073
31066SOL    HW195095  12.742   2.116   3.097
31066SOL    HW295096  12.709   1.992   3.018
31067SOL     OW95097   0.936   8.294   2.228
31067SOL    HW195098   1.007   8.328   2.283
31067SOL    HW295099   0.891   8.372   2.196
31068SOL     OW95100   9.379   9.732   2.887
31068SOL    HW195101   9.286   9.713   2.903
31068SOL    HW295102   9.403   9.791   2.959
31069SOL     OW95103   6.027   5.330  10.977
31069SOL    HW195104   6.044   5.263  10.911
31069SOL    HW295105   6.085   5.403  10.952
31070SOL     OW95106   0.826   8.174  10.487
31070SOL    HW195107   0.833   8.228  10.409
31070SOL    HW295108   0.916   8.145  10.504
31071SOL     OW95109  14.525   0.513   9.881
31071SOL    HW195110  14.516   0.605   9.905
31071SOL    HW295111  14.451   0.497   9.822
31072SOL     OW95112  10.019   5.201   2.337
31072SOL    HW195113  10.102   5.207   2.289
31072SOL    HW295114   9.977   5.123   2.300
31073SOL     OW95115  14.375   1.927  13.311
31073SOL    HW195116  14.451   1.924  13.368
31073SOL    HW295117  14.322   1.851  13.337
31074SOL     OW95118   8.632   8.331   3.536
31074SOL    HW195119   8.668   8.242   3.531
31074SOL    HW295120   8.703   8.383   3.573
31075SOL     OW95121   8.857   1.266   6.991
31075SOL    HW195122   8.893   1.329   6.928
31075SOL    HW295123   8.835   1.190   6.938
31076SOL     OW95124   5.132   3.099   7.736
31076SOL    HW195125   5.090   3.035   7.793
31076SOL    HW295126   5.157   3.171   7.794
31077SOL     OW95127  14.001   7.307   7.823
31077SOL    HW195128  14.082   7.256   7.833
31077SOL    HW295129  14.031   7.395   7.802
31078SOL     OW95130   4.255   2.807   2.273
31078SOL    HW195131   4.345   2.802   2.305
31078SOL    HW295132   4.236   2.718   2.242
31079SOL     OW95133   8.301   9.527  11.337
31079SOL    HW195134   8.263   9.439  11.337
31079SOL    HW295135   8.309   9.549  11.430
31080SOL     OW95136  11.508   4.668   8.746
31080SOL    HW195137  11.557   4.705   8.819
31080SOL    HW295138  11.501   4.740   8.683
31081SOL     OW95139  11.232   4.545  13.710
31081SOL    HW195140  11.245   4.549  13.804
31081SOL    HW295141  11.138   4.558  13.698
31082SOL     OW95142  14.846   7.640   8.762
31082SOL    HW195143  14.768   7.682   8.724
31082SOL    HW295144   0.042   7.685   8.721
31083SOL     OW95145   1.966   9.710   0.629
31083SOL    HW195146   2.034   9.769   0.660
31083SOL    HW295147   1.888   9.765   0.623
31084SOL     OW95148  14.718  10.389  10.141
31084SOL    HW195149  14.675  10.325  10.085
31084SOL    HW295150  14.798  10.413  10.094
31085SOL     OW95151   6.157   6.008   2.857
31085SOL    HW195152   6.142   5.952   2.780
31085SOL    HW295153   6.206   6.082   2.823
31086SOL     OW95154   6.814  10.131   5.583
31086SOL    HW195155   6.729  10.147   5.542
31086SOL    HW295156   6.852  10.059   5.533
31087SOL     OW95157  13.567  12.651  12.430
31087SOL    HW195158  13.488  12.664  12.482
31087SOL    HW295159  13.613  12.735  12.433
31088SOL     OW95160   1.471  13.829   5.676
31088SOL    HW195161   1.435  13.846   5.763
31088SOL    HW295162   1.422  13.753   5.644
31089SOL     OW95163  13.113  13.209   3.970
31089SOL    HW195164  13.133  13.128   4.016
31089SOL    HW295165  13.112  13.184   3.877
31090SOL     OW95166   8.858  13.983   8.853
31090SOL    HW195167   8.864  14.035   8.933
31090SOL    HW295168   8.825  13.898   8.882
31091SOL     OW95169   8.692   8.772  14.863
31091SOL    HW195170   8.685   8.867  14.873
31091SOL    HW295171   8.719   8.759  14.772
31092SOL     OW95172   7.126  10.372   4.229
31092SOL    HW195173   7.206  10.410   4.191
31092SOL    HW295174   7.064  10.369   4.157
31093SOL     OW95175   6.654   8.150   7.987
31093SOL    HW195176   6.598   8.227   7.974
31093SOL    HW295177   6.595   8.076   7.975
31094SOL     OW95178   6.086   4.952  14.729
31094SOL    HW195179   5.996   4.929  14.708
31094SOL    HW295180   6.111   5.017  14.663
31095SOL     OW95181   9.347   6.498   0.477
31095SOL    HW195182   9.333   6.539   0.391
31095SOL    HW295183   9.441   6.508   0.493
31096SOL     OW95184  14.523  10.739  13.359
31096SOL    HW195185  14.504  10.722  13.267
31096SOL    HW295186  14.472  10.672  13.406
31097SOL     OW95187   5.543   4.578   1.818
31097SOL    HW195188   5.458   4.534   1.817
31097SOL    HW295189   5.527   4.661   1.771
31098SOL     OW95190   7.392  14.253  12.230
31098SOL    HW195191   7.466  14.305  12.201
31098SOL    HW295192   7.320  14.279  12.172
31099SOL     OW95193   3.922   1.277   6.499
31099SOL    HW195194   3.948   1.189   6.525
31099SOL    HW295195   3.937   1.331   6.577
31100SOL     OW95196  10.426  10.672   6.185
31100SOL    HW195197  10.506  10.652   6.233
31100SOL    HW295198  10.420  10.767   6.187
31101SOL     OW95199   2.180  12.823  12.039
31101SOL    HW195200   2.273  12.815  12.064
31101SOL    HW295201   2.157  12.736  12.007
31102SOL     OW95202   7.636   9.580   9.325
31102SOL    HW195203   7.548   9.614   9.339
31102SOL    HW295204   7.624   9.505   9.267
31103SOL     OW95205  12.580   3.031   0.417
31103SOL    HW195206  12.578   3.102   0.353
31103SOL    HW295207  12.488   3.015   0.438
31104SOL     OW95208  10.062   5.429   1.201
31104SOL    HW195209  10.097   5.369   1.135
31104SOL    HW295210  10.105   5.403   1.282
31105SOL     OW95211   4.632   2.074   4.368
31105SOL    HW195212   4.648   2.054   4.460
31105SOL    HW295213   4.545   2.038   4.351
31106SOL     OW95214   4.153   4.138   9.128
31106SOL    HW195215   4.230   4.191   9.150
31106SOL    HW295216   4.102   4.193   9.068
31107SOL     OW95217   0.237   2.533   0.329
31107SOL    HW195218   0.248   2.441   0.353
31107SOL    HW295219   0.194   2.531   0.243
31108SOL     OW95220   9.699   5.610  11.878
31108SOL    HW195221   9.682   5.699  11.906
31108SOL    HW295222   9.754   5.619  11.800
31109SOL     OW95223   5.586   7.239   1.070
31109SOL    HW195224   5.665   7.293   1.062
31109SOL    HW295225   5.616   7.160   1.115
31110SOL     OW95226  13.213   1.629  14.433
31110SOL    HW195227  13.275   1.574  14.385
31110SOL    HW295228  13.267   1.684  14.489
31111SOL     OW95229  12.465  10.907   2.303
31111SOL    HW195230  12.470  11.001   2.323
31111SOL    HW295231  12.539  10.868   2.349
31112SOL     OW95232  11.592   7.848   4.300
31112SOL    HW195233  11.536   7.904   4.354
31112SOL    HW295234  11.663   7.906   4.270
31113SOL     OW95235   8.654   5.393   8.800
31113SOL    HW195236   8.580   5.351   8.843
31113SOL    HW295237   8.622   5.414   8.712
31114SOL     OW95238  10.851  11.219   8.831
31114SOL    HW195239  10.923  11.276   8.805
31114SOL    HW295240  10.840  11.234   8.925
31115SOL     OW95241   5.541   3.902   2.865
31115SOL    HW195242   5.616   3.921   2.921
31115SOL    HW295243   5.465   3.906   2.924
31116SOL     OW95244   2.446   9.814  13.497
31116SOL    HW195245   2.456   9.887  13.558
31116SOL    HW295246   2.529   9.768  13.501
31117SOL     OW95247  13.086   0.795   4.364
31117SOL    HW195248  13.045   0.838   4.289
31117SOL    HW295249  13.173   0.770   4.334
31118SOL     OW95250  14.483  13.374   7.910
31118SOL    HW195251  14.567  13.339   7.882
31118SOL    HW295252  14.504  13.462   7.941
31119SOL     OW95253   2.383   3.257   6.568
31119SOL    HW195254   2.443   3.224   6.635
31119SOL    HW295255   2.334   3.327   6.612
31120SOL     OW95256  13.512   9.120  13.979
31120SOL    HW195257  13.489   9.039  13.934
31120SOL    HW295258  13.500   9.188  13.913
31121SOL     OW95259  12.408   0.272   5.399
31121SOL    HW195260  12.451   0.355   5.420
31121SOL    HW295261  12.314   0.291   5.409
31122SOL     OW95262  11.328  10.785   8.595
31122SOL    HW195263  11.386  10.754   8.664
31122SOL    HW295264  11.240  10.773   8.629
31123SOL     OW95265   7.054  12.756   5.523
31123SOL    HW195266   7.002  12.772   5.602
31123SOL    HW295267   7.061  12.843   5.482
31124SOL     OW95268   0.116   9.868  10.806
31124SOL    HW195269   0.129   9.961  10.821
31124SOL    HW295270   0.115   9.829  10.893
31125SOL     OW95271   0.928   6.520  13.756
31125SOL    HW195272   0.996   6.588  13.751
31125SOL    HW295273   0.917   6.490  13.665
31126SOL     OW95274   0.987  13.759   4.416
31126SOL    HW195275   0.915  13.748   4.354
31126SOL    HW295276   0.961  13.834   4.469
31127SOL     OW95277   7.704   0.282   0.977
31127SOL    HW195278   7.619   0.242   0.996
31127SOL    HW295279   7.688   0.377   0.985
31128SOL     OW95280  13.028   2.827   1.363
31128SOL    HW195281  13.087   2.845   1.437
31128SOL    HW295282  13.086   2.791   1.295
31129SOL     OW95283   2.248   6.652   8.019
31129SOL    HW195284   2.223   6.604   7.940
31129SOL    HW295285   2.186   6.724   8.023
31130SOL     OW95286   2.621  11.971   5.362
31130SOL    HW195287   2.630  11.875   5.364
31130SOL    HW295288   2.700  12.002   5.406
31131SOL     OW95289  11.512   3.131   8.612
31131SOL    HW195290  11.453   3.057   8.625
31131SOL    HW295291  11.591   3.107   8.661
31132SOL     OW95292  12.606  14.680  11.035
31132SOL    HW195293  12.669  14.738  10.992
31132SOL    HW295294  12.609  14.599  10.984
31133SOL     OW95295   3.888  11.241  14.082
31133SOL    HW195296   3.845  11.310  14.031
31133SOL    HW295297   3.832  11.231  14.160
31134SOL     OW95298  12.575  12.513  13.273
31134SOL    HW195299  12.665  12.484  13.282
31134SOL    HW295300  12.569  12.593  13.325
31135SOL     OW95301  10.626   9.783   5.347
31135SOL    HW195302  10.653   9.856   5.404
31135SOL    HW295303  10.579   9.825   5.276
31136SOL     OW95304   7.626  11.917  11.546
31136SOL    HW195305   7.542  11.911  11.501
31136SOL    HW295306   7.654  12.007  11.533
31137SOL     OW95307   8.128  11.614  13.457
31137SOL    HW195308   8.164  11.627  13.545
31137SOL    HW295309   8.112  11.520  13.452
31138SOL     OW95310   4.798   6.325   6.837
31138SOL    HW195311   4.753   6.266   6.776
31138SOL    HW295312   4.832   6.268   6.905
31139SOL     OW95313  12.964  12.690   6.005
31139SOL    HW195314  12.929  12.689   6.093
31139SOL    HW295315  13.050  12.732   6.013
31140SOL     OW95316   7.424   6.810   7.716
31140SOL    HW195317   7.369   6.747   7.762
31140SOL    HW295318   7.424   6.781   7.625
31141SOL     OW95319  13.457  13.015   4.937
31141SOL    HW195320  13.531  13.068   4.907
31141SOL    HW295321  13.441  13.046   5.026
31142SOL     OW95322   9.379   4.496  14.737
31142SOL    HW195323   9.432   4.569  14.705
31142SOL    HW295324   9.404   4.486  14.829
31143SOL     OW95325  12.268  10.242  13.814
31143SOL    HW195326  12.311  10.326  13.803
31143SOL    HW295327  12.206  10.236  13.741
31144SOL     OW95328  14.238   0.620   8.465
31144SOL    HW195329  14.246   0.611   8.370
31144SOL    HW295330  14.194   0.539   8.493
31145SOL     OW95331   5.041  13.979   4.105
31145SOL    HW195332   4.979  13.906   4.108
31145SOL    HW295333   5.061  13.989   4.012
31146SOL     OW95334   5.640  13.960   3.994
31146SOL    HW195335   5.622  13.911   3.914
31146SOL    HW295336   5.554  13.971   4.035
31147SOL     OW95337   7.127   0.570   2.212
31147SOL    HW195338   7.117   0.665   2.217
31147SOL    HW295339   7.107   0.540   2.301
31148SOL     OW95340  10.773   4.888   7.844
31148SOL    HW195341  10.755   4.827   7.773
31148SOL    HW295342  10.816   4.962   7.802
31149SOL     OW95343  14.252  12.589  10.644
31149SOL    HW195344  14.222  12.554  10.560
31149SOL    HW295345  14.265  12.682  10.628
31150SOL     OW95346   6.857  10.816   6.473
31150SOL    HW195347   6.937  10.840   6.427
31150SOL    HW295348   6.849  10.880   6.543
31151SOL     OW95349  14.325   7.962  11.102
31151SOL    HW195350  14.341   8.045  11.056
31151SOL    HW295351  14.232   7.944  11.088
31152SOL     OW95352  11.327  12.562   4.166
31152SOL    HW195353  11.397  12.625   4.154
31152SOL    HW295354  11.259  12.589   4.103
31153SOL     OW95355   9.394   2.894   2.550
31153SOL    HW195356   9.338   2.820   2.526
31153SOL    HW295357   9.335   2.969   2.548
31154SOL     OW95358  13.394  13.210   0.578
31154SOL    HW195359  13.332  13.142   0.553
31154SOL    HW295360  13.480  13.173   0.559
31155SOL     OW95361   6.442   1.717   0.223
31155SOL    HW195362   6.351   1.721   0.195
31155SOL    HW295363   6.459   1.624   0.237
31156SOL     OW95364   1.149   6.214  13.171
31156SOL    HW195365   1.122   6.131  13.211
31156SOL    HW295366   1.088   6.279  13.206
31157SOL     OW95367  11.283   1.767   2.635
31157SOL    HW195368  11.265   1.675   2.652
31157SOL    HW295369  11.287   1.774   2.540
31158SOL     OW95370  13.051  10.356   8.865
31158SOL    HW195371  13.111  10.414   8.913
31158SOL    HW295372  13.044  10.395   8.778
31159SOL     OW95373  12.386   2.309   4.093
31159SOL    HW195374  12.465   2.266   4.126
31159SOL    HW295375  12.418   2.366   4.023
31160SOL     OW95376   1.717  11.772   7.225
31160SOL    HW195377   1.749  11.810   7.306
31160SOL    HW295378   1.659  11.839   7.188
31161SOL     OW95379   9.196  10.090   9.541
31161SOL    HW195380   9.226  10.000   9.552
31161SOL    HW295381   9.119  10.097   9.598
31162SOL     OW95382   4.088  11.860   0.813
31162SOL    HW195383   3.996  11.864   0.840
31162SOL    HW295384   4.095  11.780   0.762
31163SOL     OW95385  11.042   2.056   9.252
31163SOL    HW195386  10.982   1.987   9.224
31163SOL    HW295387  11.029   2.127   9.189
31164SOL     OW95388   3.910   4.072   5.156
31164SOL    HW195389   3.983   4.115   5.112
31164SOL    HW295390   3.943   3.985   5.179
31165SOL     OW95391  13.676   7.716   8.763
31165SOL    HW195392  13.676   7.637   8.816
31165SOL    HW295393  13.758   7.760   8.784
31166SOL     OW95394  13.645   9.511  12.311
31166SOL    HW195395  13.566   9.457  12.304
31166SOL    HW295396  13.613   9.601  12.298
31167SOL     OW95397   9.209   6.806  10.488
31167SOL    HW195398   9.162   6.788  10.570
31167SOL    HW295399   9.268   6.731  10.478
31168SOL     OW95400   2.106   8.146   5.881
31168SOL    HW195401   2.095   8.214   5.946
31168SOL    HW295402   2.025   8.095   5.885
31169SOL     OW95403   3.571   2.954   6.268
31169SOL    HW195404   3.628   2.946   6.191
31169SOL    HW295405   3.527   2.869   6.274
31170SOL     OW95406   6.326  11.896   9.381
31170SOL    HW195407   6.247  11.914   9.330
31170SOL    HW295408   6.340  11.802   9.373
31171SOL     OW95409   4.586   7.434   3.546
31171SOL    HW195410   4.582   7.355   3.491
31171SOL    HW295411   4.511   7.425   3.606
31172SOL     OW95412   5.689   2.558   2.399
31172SOL    HW195413   5.662   2.621   2.466
31172SOL    HW295414   5.607   2.526   2.361
31173SOL     OW95415   2.783   5.885   8.878
31173SOL    HW195416   2.832   5.966   8.889
31173SOL    HW295417   2.846   5.824   8.839
31174SOL     OW95418   9.014   0.175   7.501
31174SOL    HW195419   8.932   0.194   7.546
31174SOL    HW295420   8.987   0.154   7.411
31175SOL     OW95421   0.892  11.041   5.614
31175SOL    HW195422   0.912  11.024   5.522
31175SOL    HW295423   0.942  11.120   5.635
31176SOL     OW95424   7.405   9.142   7.314
31176SOL    HW195425   7.488   9.186   7.295
31176SOL    HW295426   7.376   9.110   7.229
31177SOL     OW95427   0.840   3.809   7.244
31177SOL    HW195428   0.791   3.890   7.228
31177SOL    HW295429   0.774   3.743   7.262
31178SOL     OW95430  13.373  14.530   1.141
31178SOL    HW195431  13.366  14.460   1.076
31178SOL    HW295432  13.346  14.609   1.095
31179SOL     OW95433   5.900   1.226   6.330
31179SOL    HW195434   5.863   1.210   6.244
31179SOL    HW295435   5.945   1.310   6.321
31180SOL     OW95436  14.458  10.729   4.291
31180SOL    HW195437  14.527  10.714   4.356
31180SOL    HW295438  14.491  10.686   4.212
31181SOL     OW95439   0.369   4.106   8.924
31181SOL    HW195440   0.398   4.196   8.941
31181SOL    HW295441   0.352   4.104   8.830
31182SOL     OW95442   4.151   2.198   3.537
31182SOL    HW195443   4.174   2.118   3.490
31182SOL    HW295444   4.147   2.172   3.629
31183SOL     OW95445  10.749   9.325   1.248
31183SOL    HW195446  10.724   9.232   1.243
31183SOL    HW295447  10.710   9.356   1.329
31184SOL     OW95448  10.168   4.619   3.116
31184SOL    HW195449  10.109   4.608   3.041
31184SOL    HW295450  10.254   4.594   3.082
31185SOL     OW95451   9.547   7.464   2.613
31185SOL    HW195452   9.616   7.461   2.547
31185SOL    HW295453   9.522   7.556   2.617
31186SOL     OW95454   0.022   8.166   2.239
31186SOL    HW195455   0.077   8.094   2.267
31186SOL    HW295456   0.083   8.232   2.206
31187SOL     OW95457   3.512  12.309  11.092
31187SOL    HW195458   3.565  12.230  11.078
31187SOL    HW295459   3.421  12.279  11.081
31188SOL     OW95460   3.249   7.945  13.777
31188SOL    HW195461   3.279   7.890  13.849
31188SOL    HW295462   3.205   8.019  13.819
31189SOL     OW95463  13.270   0.187   9.312
31189SOL    HW195464  13.310   0.227   9.390
31189SOL    HW295465  13.185   0.155   9.343
31190SOL     OW95466   6.087  11.789   7.647
31190SOL    HW195467   6.015  11.796   7.709
31190SOL    HW295468   6.156  11.742   7.694
31191SOL     OW95469   1.619   7.294   4.285
31191SOL    HW195470   1.668   7.269   4.206
31191SOL    HW295471   1.656   7.379   4.310
31192SOL     OW95472   9.225   9.217  10.686
31192SOL    HW195473   9.289   9.168  10.634
31192SOL    HW295474   9.162   9.250  10.622
31193SOL     OW95475   2.117  13.134   1.766
31193SOL    HW195476   2.081  13.070   1.705
31193SOL    HW295477   2.162  13.197   1.711
31194SOL     OW95478   3.321   1.242   1.554
31194SOL    HW195479   3.265   1.209   1.483
31194SOL    HW295480   3.272   1.315   1.592
31195SOL     OW95481   6.009  10.441   7.751
31195SOL    HW195482   5.964  10.484   7.824
31195SOL    HW295483   6.102  10.447   7.773
31196SOL     OW95484  13.423   9.982   6.220
31196SOL    HW195485  13.450   9.932   6.296
31196SOL    HW295486  13.387  10.063   6.257
31197SOL     OW95487   9.111   7.573   1.457
31197SOL    HW195488   9.148   7.620   1.382
31197SOL    HW295489   9.146   7.619   1.534
31198SOL     OW95490   2.603   6.825  12.025
31198SOL    HW195491   2.515   6.860  12.041
31198SOL    HW295492   2.588   6.733  12.001
31199SOL     OW95493  11.947  10.885   5.505
31199SOL    HW195494  11.954  10.981   5.505
31199SOL    HW295495  12.017  10.856   5.446
31200SOL     OW95496   4.525   4.101   2.516
31200SOL    HW195497   4.494   4.106   2.607
31200SOL    HW295498   4.505   4.012   2.489
31201SOL     OW95499   9.595  10.683  13.208
31201SOL    HW195500   9.609  10.671  13.302
31201SOL    HW295501   9.514  10.635  13.190
31202SOL     OW95502   9.515  10.471   1.568
31202SOL    HW195503   9.446  10.405   1.577
31202SOL    HW295504   9.570  10.459   1.645
31203SOL     OW95505  14.536   8.100   3.044
31203SOL    HW195506  14.459   8.048   3.065
31203SOL    HW295507  14.507   8.191   3.047
31204SOL     OW95508   1.352   0.476  10.177
31204SOL    HW195509   1.357   0.558  10.225
31204SOL    HW295510   1.345   0.409  10.244
31205SOL     OW95511  10.921   4.595   4.352
31205SOL    HW195512  10.972   4.541   4.292
31205SOL    HW295513  10.971   4.676   4.360
31206SOL     OW95514   3.859  14.226   8.973
31206SOL    HW195515   3.934  14.269   8.932
31206SOL    HW295516   3.829  14.289   9.039
31207SOL     OW95517   1.970  11.804   0.926
31207SOL    HW195518   1.954  11.780   1.017
31207SOL    HW295519   1.939  11.729   0.875
31208SOL     OW95520   7.171   1.904  13.854
31208SOL    HW195521   7.134   1.954  13.927
31208SOL    HW295522   7.098   1.854  13.820
31209SOL     OW95523   8.639  10.493  11.217
31209SOL    HW195524   8.706  10.508  11.149
31209SOL    HW295525   8.596  10.577  11.227
31210SOL     OW95526   9.111   7.792   0.166
31210SOL    HW195527   9.177   7.816   0.231
31210SOL    HW295528   9.055   7.869   0.160
31211SOL     OW95529   3.082  13.560   7.623
31211SOL    HW195530   3.002  13.509   7.615
31211SOL    HW295531   3.054  13.651   7.612
31212SOL     OW95532   9.228   7.137  14.475
31212SOL    HW195533   9.295   7.194  14.512
31212SOL    HW295534   9.277   7.061  14.442
31213SOL     OW95535  10.621   6.777   1.268
31213SOL    HW195536  10.576   6.766   1.352
31213SOL    HW295537  10.559   6.825   1.214
31214SOL     OW95538   1.637   4.246   8.462
31214SOL    HW195539   1.690   4.170   8.440
31214SOL    HW295540   1.551   4.227   8.424
31215SOL     OW95541   7.303   3.455   7.868
31215SOL    HW195542   7.246   3.478   7.941
31215SOL    HW295543   7.329   3.539   7.830
31216SOL     OW95544  10.251   8.773   9.888
31216SOL    HW195545  10.290   8.753   9.974
31216SOL    HW295546  10.170   8.819   9.909
31217SOL     OW95547   7.445   0.050  14.266
31217SOL    HW195548   7.491   0.002  14.198
31217SOL    HW295549   7.357   0.011  14.268
31218SOL     OW95550   1.790   9.175  14.705
31218SOL    HW195551   1.833   9.101  14.663
31218SOL    HW295552   1.792   9.245  14.641
31219SOL     OW95553   0.941   3.633   8.876
31219SOL    HW195554   0.978   3.545   8.867
31219SOL    HW295555   0.911   3.637   8.967
31220SOL     OW95556  14.135   0.426   4.361
31220SOL    HW195557  14.111   0.517   4.380
31220SOL    HW295558  14.223   0.416   4.397
31221SOL     OW95559   4.394   9.779  10.873
31221SOL    HW195560   4.442   9.698  10.857
31221SOL    HW295561   4.460   9.839  10.908
31222SOL     OW95562   2.699   7.038  13.739
31222SOL    HW195563   2.704   6.965  13.801
31222SOL    HW295564   2.787   7.043  13.701
31223SOL     OW95565   2.380   6.815   8.746
31223SOL    HW195566   2.348   6.844   8.661
31223SOL    HW295567   2.430   6.890   8.779
31224SOL     OW95568  12.047   3.255   6.750
31224SOL    HW195569  12.041   3.298   6.664
31224SOL    HW295570  12.130   3.209   6.748
31225SOL     OW95571  12.780  14.803   4.778
31225SOL    HW195572  12.859  14.826   4.827
31225SOL    HW295573  12.744   0.009   4.749
31226SOL     OW95574  11.247   8.668   7.011
31226SOL    HW195575  11.208   8.755   7.017
31226SOL    HW295576  11.177   8.612   6.978
31227SOL     OW95577  14.778   1.126  12.899
31227SOL    HW195578  14.763   1.066  12.826
31227SOL    HW295579  14.718   1.198  12.883
31228SOL     OW95580   8.677   1.207   0.746
31228SOL    HW195581   8.627   1.251   0.677
31228SOL    HW295582   8.617   1.141   0.781
31229SOL     OW95583   9.937   5.470  10.024
31229SOL    HW195584   9.980   5.392   9.987
31229SOL    HW295585   9.856   5.436  10.062
31230SOL     OW95586   0.387   0.654   4.531
31230SOL    HW195587   0.442   0.677   4.606
31230SOL    HW295588   0.440   0.677   4.455
31231SOL     OW95589  13.975   8.231  14.058
31231SOL    HW195590  13.888   8.197  14.077
31231SOL    HW295591  14.030   8.198  14.129
31232SOL     OW95592   7.621  14.231   1.608
31232SOL    HW195593   7.557  14.244   1.538
31232SOL    HW295594   7.625  14.136   1.620
31233SOL     OW95595   4.133  13.375   2.347
31233SOL    HW195596   4.181  13.399   2.268
31233SOL    HW295597   4.121  13.458   2.394
31234SOL     OW95598   5.686   5.784  11.713
31234SOL    HW195599   5.767   5.740  11.685
31234SOL    HW295600   5.650   5.822  11.633
31235SOL     OW95601   9.055   8.315   2.731
31235SOL    HW195602   9.079   8.277   2.816
31235SOL    HW295603   9.080   8.249   2.667
31236SOL     OW95604   4.391  10.018   4.971
31236SOL    HW195605   4.426  10.017   4.882
31236SOL    HW295606   4.467  10.041   5.026
31237SOL     OW95607  11.440  13.453   9.752
31237SOL    HW195608  11.491  13.508   9.811
31237SOL    HW295609  11.371  13.417   9.806
31238SOL     OW95610   5.459   7.599  13.535
31238SOL    HW195611   5.494   7.510  13.539
31238SOL    HW295612   5.532   7.652  13.505
31239SOL     OW95613   4.865   2.162  11.318
31239SOL    HW195614   4.933   2.180  11.254
31239SOL    HW295615   4.783   2.178  11.271
31240SOL     OW95616  14.618   8.524  10.304
31240SOL    HW195617  14.705   8.504  10.269
31240SOL    HW295618  14.558   8.506  10.232
31241SOL     OW95619  13.122   0.815  12.467
31241SOL    HW195620  13.132   0.752  12.539
31241SOL    HW295621  13.028   0.821  12.453
31242SOL     OW95622   0.904  11.905   8.370
31242SOL    HW195623   0.854  11.987   8.372
31242SOL    HW295624   0.931  11.891   8.460
31243SOL     OW95625  12.639  10.123   7.494
31243SOL    HW195626  12.699  10.079   7.434
31243SOL    HW295627  12.629  10.211   7.458
31244SOL     OW95628   3.125   8.762   2.822
31244SOL    HW195629   3.139   8.698   2.891
31244SOL    HW295630   3.177   8.837   2.848
31245SOL     OW95631   7.105   9.971  13.257
31245SOL    HW195632   7.188   9.956  13.301
31245SOL    HW295633   7.129  10.009  13.173
31246SOL     OW95634  10.057   1.119  12.840
31246SOL    HW195635  10.124   1.069  12.794
31246SOL    HW295636   9.976   1.101  12.792
31247SOL     OW95637  12.287   2.121   2.838
31247SOL    HW195638  12.337   2.089   2.914
31247SOL    HW295639  12.208   2.067   2.839
31248SOL     OW95640   4.622   1.047  14.609
31248SOL    HW195641   4.687   0.977  14.618
31248SOL    HW295642   4.674   1.127  14.598
31249SOL     OW95643  11.382   9.797   5.771
31249SOL    HW195644  11.293   9.818   5.743
31249SOL    HW295645  11.439   9.843   5.710
31250SOL     OW95646  14.333   4.677   0.889
31250SOL    HW195647  14.339   4.766   0.853
31250SOL    HW295648  14.401   4.628   0.844
31251SOL     OW95649   4.747  13.605  10.330
31251SOL    HW195650   4.694  13.596  10.409
31251SOL    HW295651   4.811  13.535  10.335
31252SOL     OW95652   7.779  12.811   2.050
31252SOL    HW195653   7.865  12.821   2.090
31252SOL    HW295654   7.722  12.868   2.101
31253SOL     OW95655   1.508   8.812  12.617
31253SOL    HW195656   1.443   8.795  12.549
31253SOL    HW295657   1.459   8.852  12.688
31254SOL     OW95658  14.318   1.617   9.109
31254SOL    HW195659  14.255   1.652   9.172
31254SOL    HW295660  14.373   1.557   9.160
31255SOL     OW95661   3.699   5.029  14.279
31255SOL    HW195662   3.624   5.006  14.223
31255SOL    HW295663   3.661   5.040  14.366
31256SOL     OW95664   0.043  13.816  14.404
31256SOL    HW195665  14.867  13.781  14.333
31256SOL    HW295666  14.864  13.880  14.447
31257SOL     OW95667   8.908   5.223   9.006
31257SOL    HW195668   8.958   5.194   9.082
31257SOL    HW295669   8.931   5.160   8.937
31258SOL     OW95670  13.807   7.595   0.459
31258SOL    HW195671  13.789   7.502   0.471
31258SOL    HW295672  13.790   7.611   0.366
31259SOL     OW95673   7.779   0.496   0.580
31259SOL    HW195674   7.731   0.568   0.622
31259SOL    HW295675   7.848   0.540   0.529
31260SOL     OW95676  13.268  13.974   5.393
31260SOL    HW195677  13.336  13.907   5.385
31260SOL    HW295678  13.204  13.952   5.325
31261SOL     OW95679   5.070   1.810   8.163
31261SOL    HW195680   4.987   1.835   8.204
31261SOL    HW295681   5.117   1.761   8.231
31262SOL     OW95682   3.779   0.854  14.404
31262SOL    HW195683   3.832   0.878  14.480
31262SOL    HW295684   3.798   0.761  14.390
31263SOL     OW95685   9.297  10.760  12.007
31263SOL    HW195686   9.221  10.751  12.065
31263SOL    HW295687   9.294  10.850  11.976
31264SOL     OW95688  10.300  13.438  13.470
31264SOL    HW195689  10.322  13.520  13.426
31264SOL    HW295690  10.221  13.458  13.520
31265SOL     OW95691   0.189   9.935  11.898
31265SOL    HW195692   0.098   9.913  11.921
31265SOL    HW295693   0.185   9.953  11.804
31266SOL     OW95694   8.779  12.016  13.362
31266SOL    HW195695   8.756  12.025  13.455
31266SOL    HW295696   8.763  11.924  13.342
31267SOL     OW95697   6.274   5.754  14.262
31267SOL    HW195698   6.215   5.710  14.201
31267SOL    HW295699   6.262   5.707  14.345
31268SOL     OW95700   8.582   5.436  10.746
31268SOL    HW195701   8.561   5.460  10.836
31268SOL    HW295702   8.528   5.358  10.729
31269SOL     OW95703   3.310  12.375   4.437
31269SOL    HW195704   3.399  12.363   4.469
31269SOL    HW295705   3.313  12.458   4.389
31270SOL     OW95706  10.145   4.589  14.533
31270SOL    HW195707  10.129   4.646  14.458
31270SOL    HW295708  10.077   4.522  14.527
31271SOL     OW95709  13.460   3.462   8.602
31271SOL    HW195710  13.474   3.515   8.681
31271SOL    HW295711  13.394   3.398   8.627
31272SOL     OW95712   6.704   1.375  13.709
31272SOL    HW195713   6.662   1.460  13.693
31272SOL    HW295714   6.712   1.371  13.804
31273SOL     OW95715   1.654   9.485   5.940
31273SOL    HW195716   1.608   9.561   5.906
31273SOL    HW295717   1.612   9.410   5.897
31274SOL     OW95718   0.148   4.066   5.589
31274SOL    HW195719   0.082   4.062   5.658
31274SOL    HW295720   0.192   3.981   5.592
31275SOL     OW95721  11.036   8.110   2.299
31275SOL    HW195722  11.101   8.108   2.229
31275SOL    HW295723  10.952   8.103   2.253
31276SOL     OW95724  14.236  10.148   6.730
31276SOL    HW195725  14.327  10.139   6.759
31276SOL    HW295726  14.186  10.092   6.790
31277SOL     OW95727   6.085   7.697  14.509
31277SOL    HW195728   6.041   7.755  14.571
31277SOL    HW295729   6.163   7.745  14.481
31278SOL     OW95730   5.782  10.225  11.822
31278SOL    HW195731   5.831  10.143  11.833
31278SOL    HW295732   5.692  10.198  11.809
31279SOL     OW95733   3.683  14.849   7.051
31279SOL    HW195734   3.745   0.043   7.062
31279SOL    HW295735   3.612   0.009   6.999
31280SOL     OW95736  12.921  10.864  11.000
31280SOL    HW195737  13.010  10.839  10.976
31280SOL    HW295738  12.927  10.886  11.093
31281SOL     OW95739  11.567   8.533   0.007
31281SOL    HW195740  11.650   8.486   0.018
31281SOL    HW295741  11.544   8.521  14.793
31282SOL     OW95742   8.032  13.829   2.874
31282SOL    HW195743   8.011  13.825   2.967
31282SOL    HW295744   8.125  13.851   2.871
31283SOL     OW95745   9.391  13.222  13.259
31283SOL    HW195746   9.354  13.190  13.177
31283SOL    HW295747   9.350  13.169  13.327
31284SOL     OW95748   7.801   0.219   6.901
31284SOL    HW195749   7.791   0.150   6.966
31284SOL    HW295750   7.867   0.185   6.840
31285SOL     OW95751  10.327  12.032  12.062
31285SOL    HW195752  10.321  12.126  12.079
31285SOL    HW295753  10.348  11.993  12.146
31286SOL     OW95754  12.236   5.628   8.693
31286SOL    HW195755  12.178   5.621   8.617
31286SOL    HW295756  12.178   5.621   8.769
31287SOL     OW95757   8.860  13.208   1.917
31287SOL    HW195758   8.846  13.303   1.922
31287SOL    HW295759   8.947  13.194   1.955
31288SOL     OW95760  11.919   0.596   4.561
31288SOL    HW195761  11.921   0.598   4.465
31288SOL    HW295762  11.835   0.554   4.582
31289SOL     OW95763  12.000   3.220  12.303
31289SOL    HW195764  12.029   3.290  12.245
31289SOL    HW295765  11.992   3.262  12.389
31290SOL     OW95766   7.913  13.168   8.818
31290SOL    HW195767   7.854  13.237   8.847
31290SOL    HW295768   7.951  13.201   8.737
31291SOL     OW95769   9.911  14.581   3.938
31291SOL    HW195770   9.838  14.610   3.993
31291SOL    HW295771   9.871  14.550   3.857
31292SOL     OW95772  10.739   3.637   2.108
31292SOL    HW195773  10.696   3.721   2.095
31292SOL    HW295774  10.668   3.576   2.130
31293SOL     OW95775   4.127   1.450   1.895
31293SOL    HW195776   4.132   1.357   1.916
31293SOL    HW295777   4.039   1.476   1.924
31294SOL     OW95778   9.701   3.585   3.537
31294SOL    HW195779   9.674   3.667   3.496
31294SOL    HW295780   9.619   3.541   3.559
31295SOL     OW95781   4.269  14.707  11.729
31295SOL    HW195782   4.308  14.632  11.684
31295SOL    HW295783   4.211  14.668  11.795
31296SOL     OW95784   0.397  13.312  14.036
31296SOL    HW195785   0.444  13.237  14.071
31296SOL    HW295786   0.367  13.284  13.949
31297SOL     OW95787   5.003  14.459   3.205
31297SOL    HW195788   5.038  14.483   3.119
31297SOL    HW295789   5.078  14.467   3.265
31298SOL     OW95790   6.981   2.540  11.223
31298SOL    HW195791   6.947   2.630  11.219
31298SOL    HW295792   6.933   2.493  11.154
31299SOL     OW95793  10.362   6.060   1.480
31299SOL    HW195794  10.339   6.149   1.454
31299SOL    HW295795  10.301   6.004   1.431
31300SOL     OW95796   7.694  11.655   6.887
31300SOL    HW195797   7.648  11.648   6.803
31300SOL    HW295798   7.786  11.665   6.864
31301SOL     OW95799   1.726   4.286   3.485
31301SOL    HW195800   1.656   4.244   3.534
31301SOL    HW295801   1.681   4.334   3.415
31302SOL     OW95802   0.471   3.924  12.020
31302SOL    HW195803   0.419   3.877  11.955
31302SOL    HW295804   0.438   4.014  12.018
31303SOL     OW95805   2.237   1.433   7.661
31303SOL    HW195806   2.186   1.509   7.632
31303SOL    HW295807   2.246   1.446   7.756
31304SOL     OW95808   5.439   4.027   3.634
31304SOL    HW195809   5.402   3.973   3.704
31304SOL    HW295810   5.372   4.028   3.566
31305SOL     OW95811   2.039  10.571   7.993
31305SOL    HW195812   1.976  10.502   7.974
31305SOL    HW295813   2.104  10.529   8.049
31306SOL     OW95814  11.354  13.688   2.262
31306SOL    HW195815  11.341  13.700   2.356
31306SOL    HW295816  11.325  13.771   2.224
31307SOL     OW95817   9.049  14.056   6.317
31307SOL    HW195818   9.135  14.021   6.293
31307SOL    HW295819   9.051  14.147   6.288
31308SOL     OW95820   4.000   6.818   4.020
31308SOL    HW195821   3.979   6.849   3.931
31308SOL    HW295822   3.958   6.732   4.025
31309SOL     OW95823   3.746   3.577   7.135
31309SOL    HW195824   3.673   3.568   7.197
31309SOL    HW295825   3.781   3.664   7.152
31310SOL     OW95826   9.885   0.879   2.797
31310SOL    HW195827   9.816   0.915   2.852
31310SOL    HW295828   9.946   0.839   2.860
31311SOL     OW95829   9.682  12.197   4.370
31311SOL    HW195830   9.774  12.174   4.354
31311SOL    HW295831   9.645  12.206   4.282
31312SOL     OW95832   3.305   6.971   6.606
31312SOL    HW195833   3.389   7.015   6.620
31312SOL    HW295834   3.315   6.926   6.522
31313SOL     OW95835  14.248   9.515   1.110
31313SOL    HW195836  14.323   9.556   1.153
31313SOL    HW295837  14.269   9.520   1.017
31314SOL     OW95838   3.815   8.069   7.145
31314SOL    HW195839   3.786   8.084   7.235
31314SOL    HW295840   3.898   8.023   7.154
31315SOL     OW95841   0.388  10.847   2.202
31315SOL    HW195842   0.414  10.918   2.261
31315SOL    HW295843   0.411  10.767   2.249
31316SOL     OW95844   9.673  11.003   0.638
31316SOL    HW195845   9.674  10.917   0.597
31316SOL    HW295846   9.582  11.034   0.627
31317SOL     OW95847   7.944   4.049   0.210
31317SOL    HW195848   7.893   3.968   0.202
31317SOL    HW295849   7.909   4.106   0.142
31318SOL     OW95850  14.865   7.032  10.811
31318SOL    HW195851  14.829   7.090  10.879
31318SOL    HW295852  14.789   7.007  10.759
31319SOL     OW95853  10.369   2.554  11.775
31319SOL    HW195854  10.426   2.596  11.712
31319SOL    HW295855  10.348   2.622  11.838
31320SOL     OW95856   4.617   2.346   6.298
31320SOL    HW195857   4.698   2.397   6.298
31320SOL    HW295858   4.548   2.412   6.295
31321SOL     OW95859   7.658   7.032   0.953
31321SOL    HW195860   7.691   6.979   1.026
31321SOL    HW295861   7.732   7.084   0.925
31322SOL     OW95862   6.763  14.664   7.973
31322SOL    HW195863   6.748  14.642   8.065
31322SOL    HW295864   6.754  14.760   7.969
31323SOL     OW95865   5.886   5.168  11.132
31323SOL    HW195866   5.845   5.124  11.058
31323SOL    HW295867   5.940   5.236  11.093
31324SOL     OW95868  11.715  10.605  13.719
31324SOL    HW195869  11.782  10.554  13.674
31324SOL    HW295870  11.659  10.638  13.649
31325SOL     OW95871  10.290   3.406   0.028
31325SOL    HW195872  10.356   3.471   0.007
31325SOL    HW295873  10.235   3.401  14.827
31326SOL     OW95874   7.975   1.579   7.468
31326SOL    HW195875   7.948   1.643   7.535
31326SOL    HW295876   8.062   1.607   7.441
31327SOL     OW95877   0.575   8.990   8.883
31327SOL    HW195878   0.650   9.045   8.862
31327SOL    HW295879   0.499   9.046   8.868
31328SOL     OW95880   9.954   8.110  13.232
31328SOL    HW195881   9.907   8.137  13.311
31328SOL    HW295882   9.937   8.016  13.226
31329SOL     OW95883   5.340   1.033   4.290
31329SOL    HW195884   5.318   1.060   4.380
31329SOL    HW295885   5.261   1.053   4.240
31330SOL     OW95886  10.429   6.411  10.673
31330SOL    HW195887  10.373   6.427  10.597
31330SOL    HW295888  10.369   6.382  10.741
31331SOL     OW95889   1.958   6.096   5.580
31331SOL    HW195890   1.970   6.031   5.511
31331SOL    HW295891   1.914   6.169   5.537
31332SOL     OW95892   8.234   7.720   1.540
31332SOL    HW195893   8.295   7.701   1.468
31332SOL    HW295894   8.289   7.759   1.607
31333SOL     OW95895   8.161   9.038   8.575
31333SOL    HW195896   8.110   9.013   8.652
31333SOL    HW295897   8.227   9.099   8.608
31334SOL     OW95898   0.627  12.224   7.172
31334SOL    HW195899   0.547  12.221   7.223
31334SOL    HW295900   0.693  12.182   7.228
31335SOL     OW95901  11.985  14.861   9.649
31335SOL    HW195902  12.026   0.006   9.565
31335SOL    HW295903  11.981   0.066   9.696
31336SOL     OW95904  10.344  14.755   1.646
31336SOL    HW195905  10.436  14.729   1.646
31336SOL    HW295906  10.297  14.680   1.609
31337SOL     OW95907   2.443   6.844   1.695
31337SOL    HW195908   2.517   6.891   1.657
31337SOL    HW295909   2.366   6.889   1.660
31338SOL     OW95910  11.217   5.646   5.408
31338SOL    HW195911  11.207   5.659   5.503
31338SOL    HW295912  11.277   5.572   5.400
31339SOL     OW95913  13.783   3.470   1.846
31339SOL    HW195914  13.706   3.468   1.789
31339SOL    HW295915  13.746   3.470   1.934
31340SOL     OW95916   2.606  12.752  12.005
31340SOL    HW195917   2.618  12.764  12.099
31340SOL    HW295918   2.550  12.825  11.979
31341SOL     OW95919   1.423  10.472   7.144
31341SOL    HW195920   1.471  10.445   7.222
31341SOL    HW295921   1.337  10.431   7.154
31342SOL     OW95922  14.311  13.243  12.933
31342SOL    HW195923  14.271  13.222  13.018
31342SOL    HW295924  14.237  13.264  12.877
31343SOL     OW95925  10.880   6.165   5.563
31343SOL    HW195926  10.925   6.083   5.543
31343SOL    HW295927  10.877   6.211   5.479
31344SOL     OW95928   0.359  14.477  11.288
31344SOL    HW195929   0.416  14.536  11.238
31344SOL    HW295930   0.316  14.423  11.221
31345SOL     OW95931   5.185   4.902   0.821
31345SOL    HW195932   5.232   4.823   0.793
31345SOL    HW295933   5.200   4.907   0.915
31346SOL     OW95934  13.115   0.217  11.685
31346SOL    HW195935  13.209   0.228  11.700
31346SOL    HW295936  13.106   0.215  11.590
31347SOL     OW95937   2.201  12.014  12.814
31347SOL    HW195938   2.220  12.099  12.775
31347SOL    HW295939   2.286  11.969  12.815
31348SOL     OW95940   4.256   2.131   9.459
31348SOL    HW195941   4.245   2.218   9.420
31348SOL    HW295942   4.166   2.097   9.465
31349SOL     OW95943   3.509  11.910   1.463
31349SOL    HW195944   3.458  11.847   1.411
31349SOL    HW295945   3.562  11.956   1.399
31350SOL     OW95946   7.034   3.773   0.309
31350SOL    HW195947   6.966   3.791   0.374
31350SOL    HW295948   7.003   3.695   0.263
31351SOL     OW95949   8.803  13.540   9.658
31351SOL    HW195950   8.842  13.622   9.688
31351SOL    HW295951   8.794  13.551   9.563
31352SOL     OW95952  14.369   1.636   6.966
31352SOL    HW195953  14.376   1.725   7.001
31352SOL    HW295954  14.281   1.630   6.929
31353SOL     OW95955  12.345  14.553   4.128
31353SOL    HW195956  12.414  14.567   4.193
31353SOL    HW295957  12.375  14.602   4.051
31354SOL     OW95958   6.936  12.354   9.683
31354SOL    HW195959   6.869  12.406   9.640
31354SOL    HW295960   6.974  12.300   9.614
31355SOL     OW95961  13.762   0.538   8.308
31355SOL    HW195962  13.792   0.592   8.235
31355SOL    HW295963  13.797   0.451   8.288
31356SOL     OW95964   6.934   3.343  12.788
31356SOL    HW195965   6.988   3.378  12.859
31356SOL    HW295966   6.996   3.295  12.732
31357SOL     OW95967   3.021   7.336   7.337
31357SOL    HW195968   2.995   7.398   7.269
31357SOL    HW295969   2.986   7.252   7.307
31358SOL     OW95970  12.872   2.749   6.988
31358SOL    HW195971  12.896   2.756   6.895
31358SOL    HW295972  12.869   2.655   7.004
31359SOL     OW95973   7.078   2.700   6.267
31359SOL    HW195974   7.169   2.679   6.287
31359SOL    HW295975   7.080   2.792   6.240
31360SOL     OW95976  13.509  13.702   2.404
31360SOL    HW195977  13.540  13.693   2.314
31360SOL    HW295978  13.584  13.675   2.457
31361SOL     OW95979   0.367  11.755  14.201
31361SOL    HW195980   0.378  11.845  14.232
31361SOL    HW295981   0.442  11.742  14.142
31362SOL     OW95982   3.270   2.310   1.741
31362SOL    HW195983   3.207   2.243   1.715
31362SOL    HW295984   3.324   2.325   1.664
31363SOL     OW95985  12.217  10.310   2.414
31363SOL    HW195986  12.293  10.282   2.363
31363SOL    HW295987  12.177  10.229   2.444
31364SOL     OW95988   3.067  12.920   1.143
31364SOL    HW195989   3.107  12.923   1.230
31364SOL    HW295990   3.095  12.837   1.106
31365SOL     OW95991  11.306  12.046   4.495
31365SOL    HW195992  11.261  12.051   4.411
31365SOL    HW295993  11.385  11.995   4.478
31366SOL     OW95994  11.439  11.947  13.347
31366SOL    HW195995  11.532  11.944  13.322
31366SOL    HW295996  11.426  11.870  13.402
31367SOL     OW95997  14.636  13.337   3.111
31367SOL    HW195998  14.713  13.298   3.152
31367SOL    HW295999  14.665  13.359   3.023
31368SOL     OW96000   7.943  11.892   9.839
31368SOL    HW196001   7.954  11.865   9.747
31368SOL    HW296002   7.889  11.971   9.835
31369SOL     OW96003  13.341  13.514   5.853
31369SOL    HW196004  13.312  13.573   5.784
31369SOL    HW296005  13.307  13.428   5.827
31370SOL     OW96006   6.935   4.572   2.159
31370SOL    HW196007   6.947   4.477   2.163
31370SOL    HW296008   6.869   4.585   2.090
31371SOL     OW96009   7.095   8.706  11.648
31371SOL    HW196010   7.191   8.700  11.650
31371SOL    HW296011   7.072   8.754  11.727
31372SOL     OW96012  12.536   7.452   7.026
31372SOL    HW196013  12.476   7.378   7.012
31372SOL    HW296014  12.479   7.529   7.025
31373SOL     OW96015   1.129   1.368  12.150
31373SOL    HW196016   1.090   1.323  12.075
31373SOL    HW296017   1.104   1.460  12.139
31374SOL     OW96018   3.507   3.783  10.535
31374SOL    HW196019   3.593   3.789  10.493
31374SOL    HW296020   3.445   3.777  10.463
31375SOL     OW96021  12.754   6.246   1.709
31375SOL    HW196022  12.726   6.321   1.657
31375SOL    HW296023  12.695   6.245   1.784
31376SOL     OW96024   1.337  13.847   0.213
31376SOL    HW196025   1.317  13.780   0.147
31376SOL    HW296026   1.371  13.921   0.162
31377SOL     OW96027   8.226   8.373  13.114
31377SOL    HW196028   8.199   8.460  13.085
31377SOL    HW296029   8.160   8.314  13.078
31378SOL     OW96030  12.092   6.750   5.133
31378SOL    HW196031  12.111   6.669   5.085
31378SOL    HW296032  12.158   6.753   5.202
31379SOL     OW96033   4.056  13.141   7.336
31379SOL    HW196034   4.014  13.165   7.419
31379SOL    HW296035   4.041  13.216   7.279
31380SOL     OW96036   1.833  14.405  14.021
31380SOL    HW196037   1.865  14.335  14.078
31380SOL    HW296038   1.855  14.485  14.068
31381SOL     OW96039   5.027  12.212  12.217
31381SOL    HW196040   5.060  12.208  12.127
31381SOL    HW296041   5.049  12.127  12.255
31382SOL     OW96042   9.302  10.053  13.827
31382SOL    HW196043   9.249  10.109  13.770
31382SOL    HW296044   9.282   9.964  13.799
31383SOL     OW96045   6.983  13.714   1.767
31383SOL    HW196046   6.950  13.767   1.694
31383SOL    HW296047   6.912  13.714   1.831
31384SOL     OW96048   9.706  12.738   5.925
31384SOL    HW196049   9.771  12.805   5.943
31384SOL    HW296050   9.721  12.671   5.992
31385SOL     OW96051   2.813   9.116   2.631
31385SOL    HW196052   2.878   9.184   2.621
31385SOL    HW296053   2.765   9.115   2.549
31386SOL     OW96054   1.430   2.523   5.375
31386SOL    HW196055   1.387   2.444   5.345
31386SOL    HW296056   1.358   2.582   5.398
31387SOL     OW96057  14.876  12.995   1.027
31387SOL    HW196058  14.856  13.070   1.083
31387SOL    HW296059   0.082  12.961   1.060
31388SOL     OW96060  11.091  10.541   3.566
31388SOL    HW196061  11.113  10.482   3.494
31388SOL    HW296062  11.176  10.571   3.599
31389SOL     OW96063  14.113  14.413  10.463
31389SOL    HW196064  14.046  14.372  10.519
31389SOL    HW296065  14.188  14.425  10.521
31390SOL     OW96066   0.450   3.603   4.011
31390SOL    HW196067   0.366   3.633   3.977
31390SOL    HW296068   0.438   3.599   4.106
31391SOL     OW96069   2.359   2.557   9.956
31391SOL    HW196070   2.358   2.626  10.023
31391SOL    HW296071   2.272   2.562   9.916
31392SOL     OW96072   2.556   6.745  13.603
31392SOL    HW196073   2.557   6.693  13.683
31392SOL    HW296074   2.649   6.751  13.577
31393SOL     OW96075  10.793   1.422  10.276
31393SOL    HW196076  10.878   1.402  10.316
31393SOL    HW296077  10.733   1.358  10.313
31394SOL     OW96078   2.952   7.242  11.779
31394SOL    HW196079   2.873   7.203  11.815
31394SOL    HW296080   2.920   7.313  11.723
31395SOL     OW96081  10.971   9.805   1.449
31395SOL    HW196082  10.919   9.817   1.370
31395SOL    HW296083  11.015   9.721   1.436
31396SOL     OW96084   0.549  12.265   3.767
31396SOL    HW196085   0.490  12.263   3.692
31396SOL    HW296086   0.616  12.199   3.747
31397SOL     OW96087  13.494   9.178   1.596
31397SOL    HW196088  13.522   9.229   1.520
31397SOL    HW296089  13.532   9.225   1.671
31398SOL     OW96090  14.293   3.110  13.387
31398SOL    HW196091  14.307   3.198  13.421
31398SOL    HW296092  14.282   3.056  13.465
31399SOL     OW96093  14.693   0.220  11.330
31399SOL    HW196094  14.619   0.257  11.281
31399SOL    HW296095  14.700   0.130  11.299
31400SOL     OW96096   9.396   9.612  14.208
31400SOL    HW196097   9.477   9.663  14.217
31400SOL    HW296098   9.425   9.527  14.175
31401SOL     OW96099  12.996   9.631  14.070
31401SOL    HW196100  12.903   9.634  14.093
31401SOL    HW296101  13.034   9.705  14.117
31402SOL     OW96102  14.019  13.109   6.514
31402SOL    HW196103  14.020  13.060   6.432
31402SOL    HW296104  13.934  13.089   6.553
31403SOL     OW96105  12.484   7.700  11.024
31403SOL    HW196106  12.435   7.704  11.106
31403SOL    HW296107  12.434   7.754  10.963
31404SOL     OW96108   2.154   4.085   8.264
31404SOL    HW196109   2.170   4.097   8.170
31404SOL    HW296110   2.179   4.169   8.303
31405SOL     OW96111  13.737  10.109   8.602
31405SOL    HW196112  13.743  10.074   8.513
31405SOL    HW296113  13.816  10.079   8.646
31406SOL     OW96114  10.085  12.823   1.059
31406SOL    HW196115  10.109  12.916   1.050
31406SOL    HW296116  10.151  12.787   1.119
31407SOL     OW96117  10.207   8.112  13.004
31407SOL    HW196118  10.301   8.098  12.988
31407SOL    HW296119  10.181   8.036  13.057
31408SOL     OW96120  14.349   7.003   0.640
31408SOL    HW196121  14.367   7.008   0.546
31408SOL    HW296122  14.260   7.035   0.649
31409SOL     OW96123   3.836   0.545  13.275
31409SOL    HW196124   3.818   0.452  13.261
31409SOL    HW296125   3.890   0.547  13.354
31410SOL     OW96126   0.196   4.092  12.178
31410SOL    HW196127   0.183   4.024  12.243
31410SOL    HW296128   0.119   4.149  12.186
31411SOL     OW96129  11.930   7.364   9.352
31411SOL    HW196130  11.908   7.278   9.390
31411SOL    HW296131  11.848   7.395   9.314
31412SOL     OW96132   6.098  14.427  12.327
31412SOL    HW196133   6.189  14.426  12.298
31412SOL    HW296134   6.089  14.510  12.374
31413SOL     OW96135   3.318   5.922   3.500
31413SOL    HW196136   3.278   5.958   3.579
31413SOL    HW296137   3.294   5.829   3.501
31414SOL     OW96138   4.789   8.294   9.941
31414SOL    HW196139   4.765   8.306  10.033
31414SOL    HW296140   4.821   8.379   9.913
31415SOL     OW96141  10.742   1.524  14.334
31415SOL    HW196142  10.764   1.606  14.378
31415SOL    HW296143  10.754   1.457  14.401
31416SOL     OW96144  10.928   9.303  14.853
31416SOL    HW196145  10.848   9.294  14.802
31416SOL    HW296146  10.999   9.291  14.790
31417SOL     OW96147   6.892   8.438   5.224
31417SOL    HW196148   6.870   8.516   5.173
31417SOL    HW296149   6.947   8.386   5.166
31418SOL     OW96150   7.946   2.507  12.643
31418SOL    HW196151   7.976   2.597  12.629
31418SOL    HW296152   7.945   2.468  12.556
31419SOL     OW96153   1.980  12.531  10.571
31419SOL    HW196154   2.052  12.517  10.633
31419SOL    HW296155   2.024  12.562  10.491
31420SOL     OW96156   2.643  12.921   0.917
31420SOL    HW196157   2.689  12.855   0.968
31420SOL    HW296158   2.688  13.003   0.939
31421SOL     OW96159  12.493   9.306  14.462
31421SOL    HW196160  12.455   9.393  14.448
31421SOL    HW296161  12.564   9.321  14.525
31422SOL     OW96162   7.758   0.973   9.720
31422SOL    HW196163   7.684   1.013   9.767
31422SOL    HW296164   7.729   0.884   9.702
31423SOL     OW96165   1.082   2.515   7.765
31423SOL    HW196166   1.001   2.564   7.778
31423SOL    HW296167   1.081   2.489   7.673
31424SOL     OW96168   0.191   3.865   5.064
31424SOL    HW196169   0.142   3.931   5.113
31424SOL    HW296170   0.161   3.781   5.100
31425SOL     OW96171   1.376   2.829  14.085
31425SOL    HW196172   1.310   2.784  14.032
31425SOL    HW296173   1.377   2.781  14.168
31426SOL     OW96174   8.069  13.105   7.087
31426SOL    HW196175   7.999  13.043   7.108
31426SOL    HW296176   8.025  13.177   7.041
31427SOL     OW96177  10.703   3.027  14.287
31427SOL    HW196178  10.762   3.061  14.354
31427SOL    HW296179  10.760   3.002  14.214
31428SOL     OW96180  13.995  14.178  11.749
31428SOL    HW196181  14.055  14.106  11.730
31428SOL    HW296182  14.017  14.246  11.686
31429SOL     OW96183   2.347   2.358   1.379
31429SOL    HW196184   2.334   2.266   1.399
31429SOL    HW296185   2.435   2.377   1.411
31430SOL     OW96186   7.376   6.668   6.758
31430SOL    HW196187   7.423   6.685   6.676
31430SOL    HW296188   7.346   6.578   6.751
31431SOL     OW96189  12.943   6.090  11.620
31431SOL    HW196190  13.016   6.028  11.615
31431SOL    HW296191  12.979   6.173  11.588
31432SOL     OW96192   1.213  11.324   1.578
31432SOL    HW196193   1.132  11.295   1.621
31432SOL    HW296194   1.230  11.410   1.616
31433SOL     OW96195  13.235   5.874   2.237
31433SOL    HW196196  13.308   5.927   2.206
31433SOL    HW296197  13.266   5.784   2.232
31434SOL     OW96198   7.482   5.351  11.177
31434SOL    HW196199   7.461   5.441  11.152
31434SOL    HW296200   7.548   5.323  11.114
31435SOL     OW96201   5.654   4.777  10.067
31435SOL    HW196202   5.674   4.788   9.974
31435SOL    HW296203   5.572   4.826  10.080
31436SOL     OW96204   6.882   0.278   0.206
31436SOL    HW196205   6.927   0.322   0.278
31436SOL    HW296206   6.931   0.304   0.128
31437SOL     OW96207  14.021   4.594  11.545
31437SOL    HW196208  14.069   4.626  11.468
31437SOL    HW296209  14.058   4.507  11.561
31438SOL     OW96210  14.755   9.042   5.602
31438SOL    HW196211  14.766   9.108   5.670
31438SOL    HW296212  14.663   9.017   5.607
31439SOL     OW96213   9.741   1.342   5.230
31439SOL    HW196214   9.813   1.396   5.197
31439SOL    HW296215   9.682   1.332   5.155
31440SOL     OW96216  12.235   2.645   2.318
31440SOL    HW196217  12.318   2.691   2.333
31440SOL    HW296218  12.222   2.593   2.398
31441SOL     OW96219  13.186   3.075   6.847
31441SOL    HW196220  13.132   3.139   6.800
31441SOL    HW296221  13.142   3.065   6.932
31442SOL     OW96222   4.818   5.042   1.564
31442SOL    HW196223   4.724   5.056   1.577
31442SOL    HW296224   4.823   4.969   1.502
31443SOL     OW96225   9.256   4.830   9.707
31443SOL    HW196226   9.348   4.805   9.714
31443SOL    HW296227   9.239   4.883   9.785
31444SOL     OW96228   8.250   9.239   0.986
31444SOL    HW196229   8.338   9.211   1.010
31444SOL    HW296230   8.218   9.285   1.063
31445SOL     OW96231  13.836   1.754  14.573
31445SOL    HW196232  13.793   1.677  14.537
31445SOL    HW296233  13.914   1.721  14.616
31446SOL     OW96234  11.150   0.794   8.022
31446SOL    HW196235  11.154   0.753   7.935
31446SOL    HW296236  11.081   0.747   8.068
31447SOL     OW96237   5.973   9.669  14.259
31447SOL    HW196238   5.951   9.621  14.339
31447SOL    HW296239   6.025   9.606  14.208
31448SOL     OW96240   9.661   2.177   5.211
31448SOL    HW196241   9.615   2.207   5.290
31448SOL    HW296242   9.642   2.245   5.146
31449SOL     OW96243   0.020  13.493   6.979
31449SOL    HW196244   0.013  13.577   6.933
31449SOL    HW296245  14.877  13.428   6.913
31450SOL     OW96246   2.816   8.990   8.422
31450SOL    HW196247   2.870   8.915   8.396
31450SOL    HW296248   2.854   9.064   8.374
31451SOL     OW96249   7.277  14.715   7.137
31451SOL    HW196250   7.198  14.669   7.166
31451SOL    HW296251   7.282  14.793   7.193
31452SOL     OW96252   9.870   9.133   5.752
31452SOL    HW196253   9.796   9.194   5.756
31452SOL    HW296254   9.854   9.082   5.672
31453SOL     OW96255   0.301   2.058   3.166
31453SOL    HW196256   0.259   2.132   3.123
31453SOL    HW296257   0.235   1.989   3.165
31454SOL     OW96258   0.439   6.010   1.736
31454SOL    HW196259   0.429   6.038   1.645
31454SOL    HW296260   0.517   5.955   1.736
31455SOL     OW96261   4.543   2.720  11.704
31455SOL    HW196262   4.555   2.717  11.609
31455SOL    HW296263   4.618   2.771  11.736
31456SOL     OW96264   3.144  13.616  14.092
31456SOL    HW196265   3.224  13.625  14.039
31456SOL    HW296266   3.109  13.705  14.098
31457SOL     OW96267   9.895  13.446   8.590
31457SOL    HW196268   9.987  13.446   8.617
31457SOL    HW296269   9.853  13.512   8.645
31458SOL     OW96270   6.888   0.488  13.117
31458SOL    HW196271   6.860   0.499  13.026
31458SOL    HW296272   6.933   0.404  13.119
31459SOL     OW96273   2.740   3.885  10.061
31459SOL    HW196274   2.676   3.830  10.016
31459SOL    HW296275   2.721   3.974  10.031
31460SOL     OW96276   3.111   6.808   8.689
31460SOL    HW196277   3.056   6.868   8.740
31460SOL    HW296278   3.184   6.863   8.659
31461SOL     OW96279   2.853  13.176  14.607
31461SOL    HW196280   2.815  13.205  14.690
31461SOL    HW296281   2.921  13.114  14.633
31462SOL     OW96282   7.372   3.892   4.485
31462SOL    HW196283   7.283   3.876   4.516
31462SOL    HW296284   7.394   3.978   4.520
31463SOL     OW96285   4.669   6.717   9.909
31463SOL    HW196286   4.694   6.643   9.965
31463SOL    HW296287   4.740   6.723   9.845
31464SOL     OW96288  14.819  14.133  13.622
31464SOL    HW196289  14.850  14.148  13.711
31464SOL    HW296290  14.740  14.081  13.632
31465SOL     OW96291   5.797   7.073  12.712
31465SOL    HW196292   5.833   7.017  12.781
31465SOL    HW296293   5.873   7.100  12.661
31466SOL     OW96294   9.673  10.800   0.474
31466SOL    HW196295   9.766  10.799   0.452
31466SOL    HW296296   9.628  10.811   0.390
31467SOL     OW96297   0.296  11.449   0.499
31467SOL    HW196298   0.380  11.423   0.537
31467SOL    HW296299   0.237  11.456   0.574
31468SOL     OW96300   0.648  12.147   9.286
31468SOL    HW196301   0.729  12.138   9.336
31468SOL    HW296302   0.678  12.167   9.197
31469SOL     OW96303   7.894  10.946   0.163
31469SOL    HW196304   7.872  10.856   0.188
31469SOL    HW296305   7.989  10.945   0.152
31470SOL     OW96306  14.348   1.129   9.593
31470SOL    HW196307  14.310   1.216   9.599
31470SOL    HW296308  14.426   1.133   9.648
31471SOL     OW96309   5.006   5.612   7.536
31471SOL    HW196310   5.087   5.623   7.485
31471SOL    HW296311   4.943   5.577   7.473
31472SOL     OW96312  12.281  11.340   1.062
31472SOL    HW196313  12.339  11.266   1.042
31472SOL    HW296314  12.284  11.394   0.983
31473SOL     OW96315   9.471   0.360   8.105
31473SOL    HW196316   9.448   0.340   8.014
31473SOL    HW296317   9.414   0.303   8.157
31474SOL     OW96318   6.604   1.305   6.440
31474SOL    HW196319   6.559   1.222   6.428
31474SOL    HW296320   6.628   1.333   6.352
31475SOL     OW96321   1.618   4.879  11.729
31475SOL    HW196322   1.611   4.789  11.760
31475SOL    HW296323   1.584   4.876  11.640
31476SOL     OW96324   0.967  14.802  14.175
31476SOL    HW196325   0.884  14.756  14.184
31476SOL    HW296326   1.010  14.792  14.260
31477SOL     OW96327   8.467   9.538   0.509
31477SOL    HW196328   8.525   9.467   0.538
31477SOL    HW296329   8.522   9.616   0.513
31478SOL     OW96330  14.332   7.121   5.298
31478SOL    HW196331  14.335   7.078   5.383
31478SOL    HW296332  14.245   7.099   5.264
31479SOL     OW96333   8.533   3.364   2.255
31479SOL    HW196334   8.524   3.398   2.166
31479SOL    HW296335   8.574   3.436   2.303
31480SOL     OW96336   3.865  12.926   2.606
31480SOL    HW196337   3.807  12.928   2.682
31480SOL    HW296338   3.913  12.843   2.615
31481SOL     OW96339   4.469   0.594  13.762
31481SOL    HW196340   4.542   0.656  13.764
31481SOL    HW296341   4.398   0.639  13.808
31482SOL     OW96342  12.391  14.028  13.354
31482SOL    HW196343  12.360  14.030  13.445
31482SOL    HW296344  12.434  14.112  13.342
31483SOL     OW96345  13.525   0.184  12.544
31483SOL    HW196346  13.489   0.096  12.556
31483SOL    HW296347  13.520   0.200  12.450
31484SOL     OW96348   9.817   7.795   0.427
31484SOL    HW196349   9.862   7.711   0.429
31484SOL    HW296350   9.810   7.820   0.520
31485SOL     OW96351   8.298  14.770   2.579
31485SOL    HW196352   8.205  14.751   2.596
31485SOL    HW296353   8.344  14.728   2.651
31486SOL     OW96354  14.391  10.035   0.932
31486SOL    HW196355  14.322   9.982   0.971
31486SOL    HW296356  14.443   9.974   0.881
31487SOL     OW96357   8.237   3.917   1.725
31487SOL    HW196358   8.195   4.003   1.727
31487SOL    HW296359   8.164   3.855   1.715
31488SOL     OW96360   6.594   5.855   8.820
31488SOL    HW196361   6.586   5.948   8.797
31488SOL    HW296362   6.566   5.851   8.911
31489SOL     OW96363  14.462   1.236   3.522
31489SOL    HW196364  14.501   1.287   3.592
31489SOL    HW296365  14.505   1.151   3.528
31490SOL     OW96366  10.039   4.790   3.895
31490SOL    HW196367  10.092   4.808   3.972
31490SOL    HW296368  10.073   4.707   3.861
31491SOL     OW96369   0.376   9.325   5.264
31491SOL    HW196370   0.381   9.420   5.252
31491SOL    HW296371   0.396   9.289   5.178
31492SOL     OW96372  10.646   6.123   1.269
31492SOL    HW196373  10.623   6.042   1.313
31492SOL    HW296374  10.637   6.104   1.176
31493SOL     OW96375   6.754   3.236  14.073
31493SOL    HW196376   6.801   3.299  14.128
31493SOL    HW296377   6.736   3.283  13.991
31494SOL     OW96378  11.853   9.365   4.465
31494SOL    HW196379  11.811   9.374   4.550
31494SOL    HW296380  11.830   9.276   4.436
31495SOL     OW96381  13.645   0.195   9.627
31495SOL    HW196382  13.680   0.281   9.649
31495SOL    HW296383  13.718   0.135   9.641
31496SOL     OW96384   3.051  12.262   2.513
31496SOL    HW196385   3.012  12.215   2.587
31496SOL    HW296386   3.131  12.300   2.550
31497SOL     OW96387  14.711   0.894   4.701
31497SOL    HW196388  14.804   0.869   4.698
31497SOL    HW296389  14.710   0.972   4.755
31498SOL     OW96390   0.880  13.414  13.703
31498SOL    HW196391   0.963  13.380  13.735
31498SOL    HW296392   0.885  13.508  13.721
31499SOL     OW96393   1.850   0.817   6.115
31499SOL    HW196394   1.944   0.800   6.120
31499SOL    HW296395   1.843   0.912   6.124
31500SOL     OW96396  14.817   3.105  10.641
31500SOL    HW196397  14.755   3.157  10.590
31500SOL    HW296398  14.780   3.102  10.729
31501SOL     OW96399   8.178   1.090   7.418
31501SOL    HW196400   8.238   1.130   7.355
31501SOL    HW296401   8.174   0.998   7.392
31502SOL     OW96402   2.809   6.356   3.439
31502SOL    HW196403   2.731   6.305   3.416
31502SOL    HW296404   2.878   6.324   3.382
31503SOL     OW96405   4.467  12.733  13.253
31503SOL    HW196406   4.394  12.690  13.298
31503SOL    HW296407   4.526  12.662  13.228
31504SOL     OW96408  13.368  13.951   5.878
31504SOL    HW196409  13.297  13.949   5.813
31504SOL    HW296410  13.388  14.045   5.887
31505SOL     OW96411   5.543   0.127   2.411
31505SOL    HW196412   5.463   0.115   2.462
31505SOL    HW296413   5.541   0.056   2.347
31506SOL     OW96414   7.901   0.538   6.179
31506SOL    HW196415   7.879   0.611   6.121
31506SOL    HW296416   7.893   0.574   6.267
31507SOL     OW96417  13.045  12.266   5.144
31507SOL    HW196418  13.000  12.325   5.084
31507SOL    HW296419  13.098  12.210   5.088
31508SOL     OW96420   6.210   0.601   4.341
31508SOL    HW196421   6.248   0.605   4.253
31508SOL    HW296422   6.276   0.639   4.398
31509SOL     OW96423   9.307   4.774  14.787
31509SOL    HW196424   9.214   4.780  14.765
31509SOL    HW296425   9.307   4.761   0.005
31510SOL     OW96426  12.669   8.421  10.594
31510SOL    HW196427  12.753   8.431  10.639
31510SOL    HW296428  12.611   8.483  10.638
31511SOL     OW96429   0.012   3.104   7.546
31511SOL    HW196430  14.810   3.148   7.575
31511SOL    HW296431   0.073   3.114   7.619
31512SOL     OW96432  10.488   5.426   1.424
31512SOL    HW196433  10.455   5.487   1.358
31512SOL    HW296434  10.489   5.476   1.505
31513SOL     OW96435   7.342  10.414   4.873
31513SOL    HW196436   7.304  10.381   4.792
31513SOL    HW296437   7.433  10.430   4.852
31514SOL     OW96438   5.096   6.713  13.685
31514SOL    HW196439   5.083   6.807  13.699
31514SOL    HW296440   5.121   6.706  13.592
31515SOL     OW96441   9.129   4.876  10.549
31515SOL    HW196442   9.176   4.801  10.512
31515SOL    HW296443   9.159   4.881  10.639
31516SOL     OW96444  14.288  13.949   6.699
31516SOL    HW196445  14.347  13.960   6.625
31516SOL    HW296446  14.321  14.009   6.766
31517SOL     OW96447  13.408   3.349  11.277
31517SOL    HW196448  13.469   3.343  11.204
31517SOL    HW296449  13.408   3.442  11.301
31518SOL     OW96450   6.416   8.730  10.768
31518SOL    HW196451   6.431   8.697  10.856
31518SOL    HW296452   6.474   8.806  10.760
31519SOL     OW96453  11.237   8.172   0.168
31519SOL    HW196454  11.289   8.194   0.245
31519SOL    HW296455  11.274   8.225   0.098
31520SOL     OW96456   8.797   3.787   5.843
31520SOL    HW196457   8.734   3.850   5.808
31520SOL    HW296458   8.863   3.841   5.888
31521SOL     OW96459  10.441  13.004   1.849
31521SOL    HW196460  10.402  13.021   1.934
31521SOL    HW296461  10.409  13.074   1.793
31522SOL     OW96462   5.122   4.377   9.415
31522SOL    HW196463   5.128   4.389   9.320
31522SOL    HW296464   5.151   4.460   9.452
31523SOL     OW96465   5.575  12.488   2.328
31523SOL    HW196466   5.554  12.579   2.305
31523SOL    HW296467   5.662  12.493   2.367
31524SOL     OW96468   5.440   0.280   5.481
31524SOL    HW196469   5.423   0.278   5.575
31524SOL    HW296470   5.452   0.373   5.461
31525SOL     OW96471  13.083  12.674  11.679
31525SOL    HW196472  13.010  12.656  11.620
31525SOL    HW296473  13.047  12.734  11.745
31526SOL     OW96474   7.436   4.157   6.714
31526SOL    HW196475   7.409   4.249   6.722
31526SOL    HW296476   7.468   4.134   6.801
31527SOL     OW96477   7.216   0.634   0.253
31527SOL    HW196478   7.223   0.555   0.199
31527SOL    HW296479   7.219   0.706   0.190
31528SOL     OW96480   8.313   6.288   1.224
31528SOL    HW196481   8.270   6.216   1.177
31528SOL    HW296482   8.272   6.287   1.311
31529SOL     OW96483   4.244   4.475  14.312
31529SOL    HW196484   4.274   4.385  14.323
31529SOL    HW296485   4.295   4.508  14.237
31530SOL     OW96486  12.963   4.496   6.178
31530SOL    HW196487  12.998   4.433   6.241
31530SOL    HW296488  12.993   4.465   6.093
31531SOL     OW96489   7.676  10.612   1.587
31531SOL    HW196490   7.636  10.678   1.645
31531SOL    HW296491   7.647  10.528   1.623
31532SOL     OW96492   1.543  14.316   0.278
31532SOL    HW196493   1.534  14.330   0.372
31532SOL    HW296494   1.637  14.313   0.263
31533SOL     OW96495   0.800  14.444   7.704
31533SOL    HW196496   0.721  14.440   7.650
31533SOL    HW296497   0.835  14.355   7.703
31534SOL     OW96498  12.068   3.345   2.664
31534SOL    HW196499  12.147   3.314   2.708
31534SOL    HW296500  12.100   3.408   2.599
31535SOL     OW96501  10.179   1.030   2.256
31535SOL    HW196502  10.224   1.020   2.172
31535SOL    HW296503  10.167   0.941   2.287
31536SOL     OW96504   4.039  10.019   4.732
31536SOL    HW196505   3.971   9.990   4.793
31536SOL    HW296506   4.115   9.964   4.754
31537SOL     OW96507   4.069   0.861  10.531
31537SOL    HW196508   4.073   0.783  10.586
31537SOL    HW296509   4.149   0.858  10.479
31538SOL     OW96510   8.163   4.998  14.528
31538SOL    HW196511   8.110   5.077  14.518
31538SOL    HW296512   8.224   5.018  14.599
31539SOL     OW96513   0.938   0.384  10.373
31539SOL    HW196514   0.969   0.428  10.453
31539SOL    HW296515   0.991   0.422  10.303
31540SOL     OW96516   0.861   4.092   5.372
31540SOL    HW196517   0.787   4.124   5.321
31540SOL    HW296518   0.823   4.061   5.455
31541SOL     OW96519   7.311  12.587  11.450
31541SOL    HW196520   7.354  12.642  11.384
31541SOL    HW296521   7.238  12.545  11.403
31542SOL     OW96522   1.746  14.852   2.480
31542SOL    HW196523   1.731   0.058   2.437
31542SOL    HW296524   1.689  14.854   2.557
31543SOL     OW96525   2.246  14.735  10.567
31543SOL    HW196526   2.171  14.683  10.539
31543SOL    HW296527   2.323  14.684  10.538
31544SOL     OW96528  12.431  11.013  10.778
31544SOL    HW196529  12.415  10.942  10.839
31544SOL    HW296530  12.504  10.983  10.724
31545SOL     OW96531  13.074   4.938   6.883
31545SOL    HW196532  13.132   4.968   6.953
31545SOL    HW296533  13.001   4.897   6.929
31546SOL     OW96534   0.469   8.058   2.381
31546SOL    HW196535   0.557   8.060   2.420
31546SOL    HW296536   0.414   8.105   2.443
31547SOL     OW96537   7.546   2.540   6.971
31547SOL    HW196538   7.502   2.624   6.984
31547SOL    HW296539   7.615   2.539   7.037
31548SOL     OW96540  12.610   5.985  13.383
31548SOL    HW196541  12.597   5.947  13.296
31548SOL    HW296542  12.649   5.915  13.435
31549SOL     OW96543   6.777   6.865   7.734
31549SOL    HW196544   6.756   6.908   7.817
31549SOL    HW296545   6.811   6.779   7.760
31550SOL     OW96546   3.472  14.782   2.717
31550SOL    HW196547   3.525  14.760   2.793
31550SOL    HW296548   3.398  14.831   2.752
31551SOL     OW96549   6.851   6.739   3.795
31551SOL    HW196550   6.930   6.699   3.761
31551SOL    HW296551   6.858   6.831   3.772
31552SOL     OW96552  11.965   6.138  13.221
31552SOL    HW196553  11.937   6.086  13.297
31552SOL    HW296554  11.982   6.225  13.256
31553SOL     OW96555  11.143   7.009   1.090
31553SOL    HW196556  11.143   7.087   1.145
31553SOL    HW296557  11.233   7.002   1.059
31554SOL     OW96558   0.148   7.330   2.570
31554SOL    HW196559   0.232   7.284   2.563
31554SOL    HW296560   0.136   7.344   2.664
31555SOL     OW96561  10.081   5.340   7.389
31555SOL    HW196562  10.169   5.309   7.366
31555SOL    HW296563  10.065   5.413   7.330
31556SOL     OW96564   6.959   8.480   0.493
31556SOL    HW196565   7.016   8.426   0.548
31556SOL    HW296566   6.871   8.454   0.518
31557SOL     OW96567   9.701  10.454   1.330
31557SOL    HW196568   9.720  10.364   1.304
31557SOL    HW296569   9.666  10.448   1.419
31558SOL     OW96570  14.000   7.016   7.459
31558SOL    HW196571  14.012   7.110   7.475
31558SOL    HW296572  14.054   6.973   7.525
31559SOL     OW96573   6.468   8.209   7.254
31559SOL    HW196574   6.547   8.170   7.290
31559SOL    HW296575   6.480   8.303   7.265
31560SOL     OW96576   2.271   4.396   5.370
31560SOL    HW196577   2.266   4.301   5.359
31560SOL    HW296578   2.236   4.412   5.457
31561SOL     OW96579   3.817  11.301   9.337
31561SOL    HW196580   3.909  11.309   9.310
31561SOL    HW296581   3.804  11.373   9.399
31562SOL     OW96582   0.704  13.487   5.853
31562SOL    HW196583   0.765  13.434   5.904
31562SOL    HW296584   0.748  13.500   5.769
31563SOL     OW96585  11.754   1.127  14.874
31563SOL    HW196586  11.757   1.215   0.033
31563SOL    HW296587  11.679   1.128  14.814
31564SOL     OW96588   7.795   4.289   7.580
31564SOL    HW196589   7.810   4.325   7.667
31564SOL    HW296590   7.779   4.365   7.524
31565SOL     OW96591  12.686  13.169  10.940
31565SOL    HW196592  12.635  13.237  10.985
31565SOL    HW296593  12.639  13.088  10.958
31566SOL     OW96594   9.172   4.252   2.340
31566SOL    HW196595   9.121   4.247   2.259
31566SOL    HW296596   9.155   4.169   2.385
31567SOL     OW96597   3.288   2.306  10.198
31567SOL    HW196598   3.316   2.343  10.114
31567SOL    HW296599   3.311   2.214  10.193
31568SOL     OW96600   1.175   5.933  11.303
31568SOL    HW196601   1.119   5.998  11.260
31568SOL    HW296602   1.263   5.954  11.273
31569SOL     OW96603   9.712   0.257  12.315
31569SOL    HW196604   9.631   0.301  12.340
31569SOL    HW296605   9.691   0.164  12.315
31570SOL     OW96606  12.920   9.184   9.843
31570SOL    HW196607  12.927   9.279   9.833
31570SOL    HW296608  12.850   9.159   9.783
31571SOL     OW96609  10.683  13.389   1.907
31571SOL    HW196610  10.720  13.459   1.961
31571SOL    HW296611  10.705  13.413   1.817
31572SOL     OW96612  13.972   4.453   9.826
31572SOL    HW196613  14.021   4.490   9.752
31572SOL    HW296614  13.898   4.408   9.785
31573SOL     OW96615   6.931   5.504   3.123
31573SOL    HW196616   6.962   5.494   3.033
31573SOL    HW296617   7.001   5.555   3.166
31574SOL     OW96618   6.737  14.325  10.824
31574SOL    HW196619   6.754  14.354  10.734
31574SOL    HW296620   6.776  14.393  10.879
31575SOL     OW96621   3.611   7.065  12.664
31575SOL    HW196622   3.705   7.064  12.645
31575SOL    HW296623   3.575   6.994  12.611
31576SOL     OW96624   5.695   5.333   9.026
31576SOL    HW196625   5.646   5.258   8.991
31576SOL    HW296626   5.775   5.337   8.974
31577SOL     OW96627   3.881   5.465  12.416
31577SOL    HW196628   3.886   5.545  12.467
31577SOL    HW296629   3.970   5.450  12.385
31578SOL     OW96630   4.826   4.706   5.249
31578SOL    HW196631   4.834   4.694   5.343
31578SOL    HW296632   4.873   4.631   5.211
31579SOL     OW96633   2.348  13.558   1.255
31579SOL    HW196634   2.347  13.502   1.177
31579SOL    HW296635   2.310  13.503   1.324
31580SOL     OW96636   4.157  14.276   1.543
31580SOL    HW196637   4.130  14.367   1.533
31580SOL    HW296638   4.203  14.255   1.462
31581SOL     OW96639   9.477   3.434   7.632
31581SOL    HW196640   9.425   3.429   7.551
31581SOL    HW296641   9.420   3.400   7.700
31582SOL     OW96642   8.904   0.961  12.706
31582SOL    HW196643   8.913   1.056  12.703
31582SOL    HW296644   8.840   0.946  12.776
31583SOL     OW96645   1.113  10.736  12.468
31583SOL    HW196646   1.160  10.746  12.385
31583SOL    HW296647   1.163  10.670  12.516
31584SOL     OW96648   6.418  14.207   1.313
31584SOL    HW196649   6.510  14.194   1.336
31584SOL    HW296650   6.420  14.256   1.231
31585SOL     OW96651  13.333   3.060   5.630
31585SOL    HW196652  13.268   2.993   5.649
31585SOL    HW296653  13.344   3.057   5.535
31586SOL     OW96654  12.866   0.791  12.488
31586SOL    HW196655  12.798   0.727  12.465
31586SOL    HW296656  12.819   0.858  12.538
31587SOL     OW96657  13.909   5.291  12.199
31587SOL    HW196658  13.907   5.232  12.124
31587SOL    HW296659  13.954   5.369  12.168
31588SOL     OW96660   0.576   6.945   6.476
31588SOL    HW196661   0.544   7.023   6.521
31588SOL    HW296662   0.584   6.972   6.384
31589SOL     OW96663   1.295  13.229   7.118
31589SOL    HW196664   1.237  13.213   7.043
31589SOL    HW296665   1.309  13.142   7.156
31590SOL     OW96666  10.320   2.993   9.458
31590SOL    HW196667  10.237   2.947   9.445
31590SOL    HW296668  10.304   3.081   9.423
31591SOL     OW96669  12.503  10.829   4.178
31591SOL    HW196670  12.466  10.890   4.242
31591SOL    HW296671  12.590  10.808   4.212
31592SOL     OW96672  11.468  13.365   7.580
31592SOL    HW196673  11.518  13.433   7.626
31592SOL    HW296674  11.482  13.384   7.487
31593SOL     OW96675   3.266   5.622   7.078
31593SOL    HW196676   3.319   5.623   6.998
31593SOL    HW296677   3.186   5.575   7.053
31594SOL     OW96678  12.497   4.407  10.441
31594SOL    HW196679  12.511   4.314  10.455
31594SOL    HW296680  12.414   4.427  10.484
31595SOL     OW96681   8.987   1.518  10.263
31595SOL    HW196682   8.943   1.473  10.191
31595SOL    HW296683   9.008   1.449  10.326
31596SOL     OW96684   7.569   0.061   9.057
31596SOL    HW196685   7.575  14.859   9.004
31596SOL    HW296686   7.490   0.104   9.026
31597SOL     OW96687   2.872   0.148  12.618
31597SOL    HW196688   2.965   0.170  12.631
31597SOL    HW296689   2.834   0.229  12.583
31598SOL     OW96690   5.942   1.457   2.244
31598SOL    HW196691   5.931   1.363   2.258
31598SOL    HW296692   6.032   1.475   2.274
31599SOL     OW96693   2.698   0.047  10.235
31599SOL    HW196694   2.775   0.071  10.286
31599SOL    HW296695   2.690  14.830  10.247
31600SOL     OW96696  12.639   1.641   8.912
31600SOL    HW196697  12.623   1.660   8.820
31600SOL    HW296698  12.690   1.560   8.912
31601SOL     OW96699   2.198  11.642   3.540
31601SOL    HW196700   2.292  11.658   3.527
31601SOL    HW296701   2.184  11.552   3.511
31602SOL     OW96702   7.951   5.299  14.816
31602SOL    HW196703   7.920   5.373  14.869
31602SOL    HW296704   7.898   5.303  14.736
31603SOL     OW96705   8.926   0.172   6.852
31603SOL    HW196706   8.839   0.211   6.843
31603SOL    HW296707   8.918   0.085   6.814
31604SOL     OW96708   1.875   8.171   7.504
31604SOL    HW196709   1.786   8.148   7.529
31604SOL    HW296710   1.868   8.260   7.468
31605SOL     OW96711   5.306   1.629   5.080
31605SOL    HW196712   5.348   1.564   5.137
31605SOL    HW296713   5.378   1.663   5.027
31606SOL     OW96714   5.315   2.697   3.084
31606SOL    HW196715   5.381   2.692   3.153
31606SOL    HW296716   5.251   2.761   3.117
31607SOL     OW96717  12.887   0.914   8.249
31607SOL    HW196718  12.934   0.874   8.321
31607SOL    HW296719  12.942   0.898   8.172
31608SOL     OW96720   3.096   5.818  10.135
31608SOL    HW196721   3.144   5.736  10.140
31608SOL    HW296722   3.042   5.810  10.056
31609SOL     OW96723   5.089   6.188   1.799
31609SOL    HW196724   5.072   6.100   1.768
31609SOL    HW296725   5.181   6.204   1.779
31610SOL     OW96726   3.729   5.582   8.935
31610SOL    HW196727   3.654   5.637   8.914
31610SOL    HW296728   3.805   5.636   8.916
31611SOL     OW96729   7.294   5.321  10.565
31611SOL    HW196730   7.242   5.260  10.616
31611SOL    HW296731   7.257   5.317  10.477
31612SOL     OW96732  12.122  10.446   8.591
31612SOL    HW196733  12.171  10.527   8.594
31612SOL    HW296734  12.127  10.411   8.679
31613SOL     OW96735   1.862   2.533   1.249
31613SOL    HW196736   1.869   2.544   1.154
31613SOL    HW296737   1.898   2.614   1.285
31614SOL     OW96738   6.189  10.469   0.612
31614SOL    HW196739   6.131  10.395   0.594
31614SOL    HW296740   6.217  10.456   0.703
31615SOL     OW96741   6.200   0.954  14.124
31615SOL    HW196742   6.172   0.863  14.133
31615SOL    HW296743   6.296   0.951  14.133
31616SOL     OW96744  14.155  12.324   6.618
31616SOL    HW196745  14.211  12.348   6.692
31616SOL    HW296746  14.100  12.253   6.652
31617SOL     OW96747  11.012   5.798   3.077
31617SOL    HW196748  11.080   5.819   3.141
31617SOL    HW296749  10.989   5.707   3.094
31618SOL     OW96750  11.292   3.256   2.649
31618SOL    HW196751  11.320   3.257   2.557
31618SOL    HW296752  11.310   3.167   2.679
31619SOL     OW96753  10.632  11.482   1.994
31619SOL    HW196754  10.658  11.561   1.947
31619SOL    HW296755  10.567  11.440   1.938
31620SOL     OW96756   1.067   3.247  10.539
31620SOL    HW196757   1.044   3.225  10.449
31620SOL    HW296758   1.134   3.184  10.564
31621SOL     OW96759   0.634   8.307  13.553
31621SOL    HW196760   0.720   8.329  13.589
31621SOL    HW296761   0.633   8.349  13.467
31622SOL     OW96762  12.271  11.074   9.345
31622SOL    HW196763  12.176  11.086   9.335
31622SOL    HW296764  12.297  11.028   9.265
31623SOL     OW96765   3.269   0.020   2.824
31623SOL    HW196766   3.224   0.102   2.841
31623SOL    HW296767   3.216  14.831   2.869
31624SOL     OW96768   3.453   4.199  10.727
31624SOL    HW196769   3.416   4.148  10.655
31624SOL    HW296770   3.535   4.233  10.692
31625SOL     OW96771   8.255   4.507   3.088
31625SOL    HW196772   8.224   4.432   3.037
31625SOL    HW296773   8.176   4.548   3.121
31626SOL     OW96774  14.346   8.375  10.168
31626SOL    HW196775  14.276   8.331  10.216
31626SOL    HW296776  14.319   8.466  10.162
31627SOL     OW96777  10.653  13.919   2.413
31627SOL    HW196778  10.645  13.833   2.455
31627SOL    HW296779  10.741  13.918   2.375
31628SOL     OW96780  12.951  13.225  12.434
31628SOL    HW196781  12.925  13.159  12.371
31628SOL    HW296782  12.934  13.308  12.391
31629SOL     OW96783   3.104   9.755   3.573
31629SOL    HW196784   3.081   9.824   3.511
31629SOL    HW296785   3.103   9.799   3.659
31630SOL     OW96786   7.747  14.875  10.442
31630SOL    HW196787   7.707   0.078  10.475
31630SOL    HW296788   7.822  14.861  10.500
31631SOL     OW96789   3.815   0.224  13.731
31631SOL    HW196790   3.811   0.260  13.643
31631SOL    HW296791   3.829   0.300  13.787
31632SOL     OW96792   8.009   8.840   7.393
31632SOL    HW196793   7.945   8.882   7.450
31632SOL    HW296794   8.059   8.912   7.355
31633SOL     OW96795   9.953   3.797   0.528
31633SOL    HW196796   9.988   3.804   0.616
31633SOL    HW296797   9.939   3.704   0.514
31634SOL     OW96798   5.753   4.227   3.674
31634SOL    HW196799   5.659   4.225   3.691
31634SOL    HW296800   5.761   4.202   3.582
31635SOL     OW96801   3.920   9.811   2.852
31635SOL    HW196802   3.842   9.859   2.883
31635SOL    HW296803   3.972   9.797   2.931
31636SOL     OW96804   2.013   4.060   0.901
31636SOL    HW196805   1.967   3.978   0.920
31636SOL    HW296806   2.080   4.066   0.969
31637SOL     OW96807   6.480   2.305  13.516
31637SOL    HW196808   6.496   2.399  13.519
31637SOL    HW296809   6.413   2.294  13.449
31638SOL     OW96810   7.552  14.591  10.028
31638SOL    HW196811   7.572  14.557  10.115
31638SOL    HW296812   7.468  14.636  10.038
31639SOL     OW96813   8.974  11.262   7.420
31639SOL    HW196814   8.994  11.253   7.327
31639SOL    HW296815   9.051  11.304   7.458
31640SOL     OW96816   3.406   4.407  10.520
31640SOL    HW196817   3.501   4.404  10.528
31640SOL    HW296818   3.390   4.408  10.425
31641SOL     OW96819  11.112   5.058  12.981
31641SOL    HW196820  11.199   5.099  12.974
31641SOL    HW296821  11.051   5.131  12.986
31642SOL     OW96822  14.134   2.864  12.755
31642SOL    HW196823  14.215   2.885  12.708
31642SOL    HW296824  14.113   2.775  12.727
31643SOL     OW96825   8.543  10.649   5.851
31643SOL    HW196826   8.507  10.696   5.776
31643SOL    HW296827   8.572  10.565   5.816
31644SOL     OW96828   8.391   1.255   5.141
31644SOL    HW196829   8.486   1.270   5.135
31644SOL    HW296830   8.381   1.189   5.209
31645SOL     OW96831  11.108  13.130   3.965
31645SOL    HW196832  11.055  13.181   3.903
31645SOL    HW296833  11.167  13.194   4.004
31646SOL     OW96834   1.508   0.898   5.987
31646SOL    HW196835   1.516   0.855   6.072
31646SOL    HW296836   1.522   0.991   6.005
31647SOL     OW96837   5.826   1.465  12.592
31647SOL    HW196838   5.827   1.374  12.620
31647SOL    HW296839   5.793   1.462  12.502
31648SOL     OW96840  11.442   5.669   0.113
31648SOL    HW196841  11.374   5.721   0.155
31648SOL    HW296842  11.475   5.611   0.181
31649SOL     OW96843  11.954   5.389  14.511
31649SOL    HW196844  11.872   5.425  14.544
31649SOL    HW296845  11.928   5.331  14.439
31650SOL     OW96846   6.783   4.090   1.258
31650SOL    HW196847   6.718   4.024   1.234
31650SOL    HW296848   6.867   4.049   1.240
31651SOL     OW96849   4.790  13.888   6.217
31651SOL    HW196850   4.834  13.884   6.132
31651SOL    HW296851   4.849  13.939   6.272
31652SOL     OW96852   5.282  13.892   8.138
31652SOL    HW196853   5.256  13.975   8.177
31652SOL    HW296854   5.205  13.861   8.091
31653SOL     OW96855   6.980  14.784   1.207
31653SOL    HW196856   6.973  14.812   1.298
31653SOL    HW296857   7.067  14.810   1.180
31654SOL     OW96858   3.600   9.969   0.915
31654SOL    HW196859   3.526   9.937   0.967
31654SOL    HW296860   3.564   9.981   0.827
31655SOL     OW96861   9.292   2.582   9.584
31655SOL    HW196862   9.295   2.651   9.517
31655SOL    HW296863   9.250   2.508   9.540
31656SOL     OW96864   2.237  12.475   7.941
31656SOL    HW196865   2.154  12.509   7.974
31656SOL    HW296866   2.302  12.537   7.974
31657SOL     OW96867   9.252  11.987   0.217
31657SOL    HW196868   9.309  12.057   0.184
31657SOL    HW296869   9.311  11.930   0.267
31658SOL     OW96870   8.003   2.027   4.179
31658SOL    HW196871   7.939   1.958   4.191
31658SOL    HW296872   8.064   2.016   4.252
31659SOL     OW96873   7.117  13.643   4.444
31659SOL    HW196874   7.152  13.560   4.413
31659SOL    HW296875   7.044  13.619   4.500
31660SOL     OW96876   7.119   0.503   1.165
31660SOL    HW196877   7.180   0.431   1.185
31660SOL    HW296878   7.085   0.529   1.250
31661SOL     OW96879   7.873   6.293   0.308
31661SOL    HW196880   7.788   6.252   0.319
31661SOL    HW296881   7.880   6.310   0.214
31662SOL     OW96882   1.897  12.928   6.625
31662SOL    HW196883   1.939  12.955   6.707
31662SOL    HW296884   1.961  12.868   6.585
31663SOL     OW96885   7.108   2.104   5.967
31663SOL    HW196886   7.186   2.066   5.925
31663SOL    HW296887   7.092   2.185   5.919
31664SOL     OW96888   7.289   0.682  14.142
31664SOL    HW196889   7.348   0.662  14.216
31664SOL    HW296890   7.340   0.740  14.086
31665SOL     OW96891  11.843   5.865   4.488
31665SOL    HW196892  11.773   5.815   4.446
31665SOL    HW296893  11.799   5.938   4.531
31666SOL     OW96894  11.376  14.296   3.182
31666SOL    HW196895  11.462  14.328   3.210
31666SOL    HW296896  11.389  14.267   3.092
31667SOL     OW96897  14.138   5.427   6.321
31667SOL    HW196898  14.218   5.380   6.298
31667SOL    HW296899  14.072   5.358   6.332
31668SOL     OW96900  12.780   4.042  14.571
31668SOL    HW196901  12.778   4.135  14.594
31668SOL    HW296902  12.873   4.018  14.573
31669SOL     OW96903   4.146   9.273   2.606
31669SOL    HW196904   4.082   9.204   2.624
31669SOL    HW296905   4.220   9.254   2.664
31670SOL     OW96906   0.238  12.587   2.213
31670SOL    HW196907   0.313  12.632   2.252
31670SOL    HW296908   0.258  12.584   2.119
31671SOL     OW96909  14.750   4.440   6.697
31671SOL    HW196910  14.783   4.458   6.785
31671SOL    HW296911  14.655   4.435   6.707
31672SOL     OW96912   7.968  10.486   1.661
31672SOL    HW196913   7.874  10.475   1.675
31672SOL    HW296914   7.979  10.580   1.647
31673SOL     OW96915   0.586   7.279   5.506
31673SOL    HW196916   0.626   7.201   5.543
31673SOL    HW296917   0.492   7.268   5.523
31674SOL     OW96918   7.408  13.291  10.884
31674SOL    HW196919   7.352  13.348  10.831
31674SOL    HW296920   7.354  13.214  10.902
31675SOL     OW96921   2.792   5.273   8.021
31675SOL    HW196922   2.712   5.299   7.976
31675SOL    HW296923   2.779   5.179   8.039
31676SOL     OW96924   9.395  10.021   8.164
31676SOL    HW196925   9.335  10.089   8.133
31676SOL    HW296926   9.362   9.940   8.123
31677SOL     OW96927  13.323   4.080  12.856
31677SOL    HW196928  13.329   4.157  12.800
31677SOL    HW296929  13.240   4.039  12.832
31678SOL     OW96930   8.985  10.850   5.099
31678SOL    HW196931   9.038  10.774   5.077
31678SOL    HW296932   9.048  10.915   5.130
31679SOL     OW96933   1.580  10.301   1.348
31679SOL    HW196934   1.600  10.207   1.353
31679SOL    HW296935   1.511  10.315   1.412
31680SOL     OW96936   0.327   5.263   2.568
31680SOL    HW196937   0.322   5.168   2.563
31680SOL    HW296938   0.305   5.283   2.659
31681SOL     OW96939  13.289  12.782   5.405
31681SOL    HW196940  13.332  12.698   5.419
31681SOL    HW296941  13.196  12.762   5.399
31682SOL     OW96942   5.016   1.747   2.124
31682SOL    HW196943   5.013   1.770   2.031
31682SOL    HW296944   5.068   1.666   2.127
31683SOL     OW96945   0.543   6.551   4.316
31683SOL    HW196946   0.619   6.508   4.278
31683SOL    HW296947   0.503   6.484   4.373
31684SOL     OW96948   6.500   8.505   7.614
31684SOL    HW196949   6.445   8.558   7.672
31684SOL    HW296950   6.563   8.568   7.577
31685SOL     OW96951   2.992   8.502   5.365
31685SOL    HW196952   3.066   8.447   5.337
31685SOL    HW296953   2.987   8.490   5.459
31686SOL     OW96954   8.309  10.405  13.004
31686SOL    HW196955   8.222  10.442  12.990
31686SOL    HW296956   8.328  10.424  13.096
31687SOL     OW96957  14.329   6.939   5.499
31687SOL    HW196958  14.244   6.972   5.528
31687SOL    HW296959  14.329   6.847   5.526
31688SOL     OW96960   0.552  14.386  11.895
31688SOL    HW196961   0.533  14.434  11.815
31688SOL    HW296962   0.510  14.438  11.964
31689SOL     OW96963  12.390   9.212   5.901
31689SOL    HW196964  12.294   9.211   5.897
31689SOL    HW296965  12.414   9.298   5.865
31690SOL     OW96966  12.999   8.218  12.283
31690SOL    HW196967  13.075   8.249  12.331
31690SOL    HW296968  12.924   8.249  12.333
31691SOL     OW96969  14.470  12.494   2.052
31691SOL    HW196970  14.437  12.434   2.119
31691SOL    HW296971  14.436  12.459   1.970
31692SOL     OW96972  10.333   2.022   9.844
31692SOL    HW196973  10.371   1.999   9.929
31692SOL    HW296974  10.239   2.021   9.859
31693SOL     OW96975  14.204  10.857  12.840
31693SOL    HW196976  14.233  10.934  12.890
31693SOL    HW296977  14.118  10.880  12.806
31694SOL     OW96978  11.384   7.053   7.882
31694SOL    HW196979  11.463   7.017   7.922
31694SOL    HW296980  11.315   7.038   7.946
31695SOL     OW96981   5.758   1.793  13.737
31695SOL    HW196982   5.721   1.705  13.728
31695SOL    HW296983   5.689   1.850  13.703
31696SOL     OW96984   4.749   0.766   8.911
31696SOL    HW196985   4.736   0.757   8.816
31696SOL    HW296986   4.825   0.823   8.920
31697SOL     OW96987  13.136  14.612   5.212
31697SOL    HW196988  13.069  14.652   5.266
31697SOL    HW296989  13.219  14.641   5.250
31698SOL     OW96990   7.708  11.998  12.705
31698SOL    HW196991   7.660  12.064  12.654
31698SOL    HW296992   7.794  12.037  12.720
31699SOL     OW96993   4.486  10.444  12.736
31699SOL    HW196994   4.462  10.396  12.657
31699SOL    HW296995   4.403  10.473  12.773
31700SOL     OW96996   2.064   7.702   3.625
31700SOL    HW196997   2.125   7.686   3.696
31700SOL    HW296998   2.093   7.644   3.554
31701SOL     OW96999   3.424   0.032   6.987
31701SOL    HW197000   3.410  14.850   7.061
31701SOL    HW297001   3.385   0.115   7.016
31702SOL     OW97002  14.232   8.442  12.189
31702SOL    HW197003  14.156   8.482  12.148
31702SOL    HW297004  14.232   8.352  12.158
31703SOL     OW97005   1.178  14.192  12.533
31703SOL    HW197006   1.171  14.202  12.628
31703SOL    HW297007   1.269  14.165  12.519
31704SOL     OW97008  10.926   4.384   6.823
31704SOL    HW197009  10.855   4.329   6.857
31704SOL    HW297010  10.884   4.468   6.805
31705SOL     OW97011  11.108  10.491   1.650
31705SOL    HW197012  11.062  10.573   1.634
31705SOL    HW297013  11.075  10.462   1.735
31706SOL     OW97014   3.636   8.117  10.452
31706SOL    HW197015   3.631   8.021  10.448
31706SOL    HW297016   3.569   8.147  10.391
31707SOL     OW97017   6.172  11.154   9.430
31707SOL    HW197018   6.111  11.166   9.357
31707SOL    HW297019   6.187  11.059   9.434
31708SOL     OW97020   4.644  14.452   5.018
31708SOL    HW197021   4.580  14.517   5.044
31708SOL    HW297022   4.691  14.491   4.945
31709SOL     OW97023   9.376  13.795   9.175
31709SOL    HW197024   9.288  13.763   9.198
31709SOL    HW297025   9.360  13.858   9.104
31710SOL     OW97026   8.151   5.136   7.890
31710SOL    HW197027   8.125   5.132   7.797
31710SOL    HW297028   8.094   5.202   7.928
31711SOL     OW97029   5.060   2.962  13.916
31711SOL    HW197030   5.154   2.974  13.902
31711SOL    HW297031   5.040   2.879  13.874
31712SOL     OW97032   6.310   3.521   6.615
31712SOL    HW197033   6.301   3.513   6.520
31712SOL    HW297034   6.292   3.434   6.649
31713SOL     OW97035   3.455   7.289   0.218
31713SOL    HW197036   3.391   7.218   0.208
31713SOL    HW297037   3.427   7.356   0.155
31714SOL     OW97038   1.831   3.695  14.050
31714SOL    HW197039   1.757   3.707  13.991
31714SOL    HW297040   1.878   3.778  14.048
31715SOL     OW97041   1.914  12.317  10.055
31715SOL    HW197042   1.881  12.262  10.126
31715SOL    HW297043   1.914  12.406  10.090
31716SOL     OW97044  11.026   6.266   3.180
31716SOL    HW197045  10.979   6.186   3.204
31716SOL    HW297046  11.084   6.283   3.255
31717SOL     OW97047  13.636   9.701   2.278
31717SOL    HW197048  13.557   9.702   2.333
31717SOL    HW297049  13.696   9.642   2.323
31718SOL     OW97050  11.299   7.243   1.930
31718SOL    HW197051  11.267   7.161   1.968
31718SOL    HW297052  11.392   7.227   1.913
31719SOL     OW97053   9.049   8.730  12.323
31719SOL    HW197054   8.991   8.801  12.350
31719SOL    HW297055   9.119   8.730  12.389
31720SOL     OW97056   2.565   2.826   1.288
31720SOL    HW197057   2.612   2.870   1.218
31720SOL    HW297058   2.600   2.865   1.369
31721SOL     OW97059   0.330   7.068   7.116
31721SOL    HW197060   0.321   6.988   7.065
31721SOL    HW297061   0.353   7.038   7.204
31722SOL     OW97062   8.538  11.306  13.168
31722SOL    HW197063   8.539  11.384  13.224
31722SOL    HW297064   8.607  11.251  13.203
31723SOL     OW97065   0.469   9.433  11.359
31723SOL    HW197066   0.511   9.424  11.444
31723SOL    HW297067   0.460   9.344  11.326
31724SOL     OW97068  11.288   9.293   6.203
31724SOL    HW197069  11.366   9.337   6.237
31724SOL    HW297070  11.312   9.269   6.113
31725SOL     OW97071   6.197   0.161  10.083
31725SOL    HW197072   6.138   0.119  10.020
31725SOL    HW297073   6.262   0.094  10.104
31726SOL     OW97074  11.131  10.006   0.196
31726SOL    HW197075  11.174   9.921   0.193
31726SOL    HW297076  11.123  10.025   0.290
31727SOL     OW97077  11.308   7.388  14.857
31727SOL    HW197078  11.395   7.399  14.820
31727SOL    HW297079  11.276   7.477  14.871
31728SOL     OW97080  13.229   7.329   8.151
31728SOL    HW197081  13.191   7.242   8.146
31728SOL    HW297082  13.246   7.354   8.060
31729SOL     OW97083   7.453   7.498   7.679
31729SOL    HW197084   7.489   7.442   7.610
31729SOL    HW297085   7.423   7.437   7.747
31730SOL     OW97086   1.678  11.910   5.543
31730SOL    HW197087   1.598  11.861   5.557
31730SOL    HW297088   1.739  11.877   5.609
31731SOL     OW97089  11.006   1.911   4.158
31731SOL    HW197090  10.977   1.928   4.248
31731SOL    HW297091  10.925   1.902   4.108
31732SOL     OW97092   9.195   7.606   8.991
31732SOL    HW197093   9.171   7.513   8.986
31732SOL    HW297094   9.214   7.620   9.084
31733SOL     OW97095   4.596   5.831  13.411
31733SOL    HW197096   4.601   5.923  13.384
31733SOL    HW297097   4.507   5.804  13.386
31734SOL     OW97098   3.286  10.706   7.383
31734SOL    HW197099   3.224  10.637   7.409
31734SOL    HW297100   3.243  10.750   7.309
31735SOL     OW97101  14.521   6.617   4.602
31735SOL    HW197102  14.562   6.704   4.597
31735SOL    HW297103  14.580   6.561   4.552
31736SOL     OW97104   1.308   2.815   8.652
31736SOL    HW197105   1.353   2.735   8.678
31736SOL    HW297106   1.327   2.877   8.723
31737SOL     OW97107  14.445   9.067   8.627
31737SOL    HW197108  14.375   9.132   8.618
31737SOL    HW297109  14.411   9.005   8.692
31738SOL     OW97110  14.800   8.914   7.601
31738SOL    HW197111   0.002   8.875   7.637
31738SOL    HW297112  14.801   9.004   7.635
31739SOL     OW97113   1.398   6.900  10.278
31739SOL    HW197114   1.381   6.811  10.309
31739SOL    HW297115   1.403   6.891  10.182
31740SOL     OW97116   5.871   5.828   3.942
31740SOL    HW197117   5.919   5.908   3.921
31740SOL    HW297118   5.896   5.808   4.032
31741SOL     OW97119   4.981   7.061  12.879
31741SOL    HW197120   4.997   7.013  12.798
31741SOL    HW297121   5.019   7.007  12.947
31742SOL     OW97122   4.220   1.609   4.542
31742SOL    HW197123   4.192   1.681   4.598
31742SOL    HW297124   4.303   1.580   4.579
31743SOL     OW97125   3.705   9.579   1.327
31743SOL    HW197126   3.706   9.635   1.405
31743SOL    HW297127   3.645   9.508   1.350
31744SOL     OW97128  10.026   6.257   2.923
31744SOL    HW197129  10.049   6.339   2.880
31744SOL    HW297130   9.964   6.215   2.863
31745SOL     OW97131  10.644  14.875   1.086
31745SOL    HW197132  10.574   0.050   1.124
31745SOL    HW297133  10.677   0.049   1.012
31746SOL     OW97134   7.880  10.456   7.745
31746SOL    HW197135   7.844  10.544   7.739
31746SOL    HW297136   7.949  10.455   7.679
31747SOL     OW97137  12.571  10.827   8.908
31747SOL    HW197138  12.580  10.751   8.966
31747SOL    HW297139  12.508  10.800   8.842
31748SOL     OW97140  13.935  14.032  10.937
31748SOL    HW197141  13.864  14.000  10.881
31748SOL    HW297142  14.009  14.043  10.878
31749SOL     OW97143   1.081   1.575   0.842
31749SOL    HW197144   1.154   1.554   0.783
31749SOL    HW297145   1.104   1.533   0.925
31750SOL     OW97146   6.070   1.734   7.141
31750SOL    HW197147   6.080   1.808   7.201
31750SOL    HW297148   6.021   1.668   7.191
31751SOL     OW97149   0.093   7.074   6.209
31751SOL    HW197150   0.058   6.986   6.228
31751SOL    HW297151   0.054   7.130   6.275
31752SOL     OW97152   7.749  14.475  10.782
31752SOL    HW197153   7.781  14.405  10.724
31752SOL    HW297154   7.684  14.432  10.837
31753SOL     OW97155  10.489   1.958   2.992
31753SOL    HW197156  10.446   2.009   2.924
31753SOL    HW297157  10.418   1.921   3.044
31754SOL     OW97158  12.093   0.512   0.212
31754SOL    HW197159  12.172   0.566   0.213
31754SOL    HW297160  12.030   0.564   0.162
31755SOL     OW97161   3.503  12.540   3.392
31755SOL    HW197162   3.520  12.577   3.305
31755SOL    HW297163   3.433  12.595   3.428
31756SOL     OW97164  14.489   1.737  11.036
31756SOL    HW197165  14.559   1.671  11.031
31756SOL    HW297166  14.415   1.696  10.992
31757SOL     OW97167  12.037   7.077  13.764
31757SOL    HW197168  11.973   7.121  13.822
31757SOL    HW297169  12.051   7.139  13.693
31758SOL     OW97170   7.952   8.952   2.625
31758SOL    HW197171   8.041   8.934   2.656
31758SOL    HW297172   7.964   9.016   2.554
31759SOL     OW97173   0.504  14.620  13.475
31759SOL    HW197174   0.476  14.563  13.546
31759SOL    HW297175   0.549  14.562  13.414
31760SOL     OW97176  14.396  13.837   8.936
31760SOL    HW197177  14.329  13.903   8.955
31760SOL    HW297178  14.363  13.790   8.861
31761SOL     OW97179   6.745  10.108  10.088
31761SOL    HW197180   6.838  10.088  10.098
31761SOL    HW297181   6.701  10.024  10.094
31762SOL     OW97182   4.952   2.825  12.109
31762SOL    HW197183   4.889   2.895  12.125
31762SOL    HW297184   5.011   2.862  12.043
31763SOL     OW97185   8.454  13.248   4.720
31763SOL    HW197186   8.449  13.301   4.799
31763SOL    HW297187   8.469  13.311   4.650
31764SOL     OW97188   8.278   3.732   8.783
31764SOL    HW197189   8.279   3.723   8.688
31764SOL    HW297190   8.193   3.770   8.803
31765SOL     OW97191  10.821   4.774  11.451
31765SOL    HW197192  10.803   4.789  11.359
31765SOL    HW297193  10.843   4.681  11.457
31766SOL     OW97194   9.246   5.866   4.185
31766SOL    HW197195   9.162   5.908   4.202
31766SOL    HW297196   9.308   5.911   4.243
31767SOL     OW97197  12.391  11.491   7.966
31767SOL    HW197198  12.429  11.425   7.907
31767SOL    HW297199  12.298  11.491   7.945
31768SOL     OW97200   8.649   8.655   9.321
31768SOL    HW197201   8.661   8.586   9.256
31768SOL    HW297202   8.555   8.675   9.318
31769SOL     OW97203   1.143  11.933  12.614
31769SOL    HW197204   1.160  11.934  12.519
31769SOL    HW297205   1.049  11.944  12.621
31770SOL     OW97206   6.188   2.032   8.680
31770SOL    HW197207   6.259   2.045   8.743
31770SOL    HW297208   6.218   1.959   8.625
31771SOL     OW97209   1.937  14.681   6.199
31771SOL    HW197210   1.931  14.676   6.103
31771SOL    HW297211   1.924  14.773   6.219
31772SOL     OW97212  13.004   3.424   7.870
31772SOL    HW197213  13.020   3.445   7.779
31772SOL    HW297214  12.910   3.437   7.882
31773SOL     OW97215  12.109   6.920   2.567
31773SOL    HW197216  12.097   6.948   2.658
31773SOL    HW297217  12.079   6.830   2.565
31774SOL     OW97218   3.299  14.189  11.522
31774SOL    HW197219   3.328  14.116  11.577
31774SOL    HW297220   3.253  14.247  11.582
31775SOL     OW97221   5.175   7.858   7.923
31775SOL    HW197222   5.247   7.824   7.870
31775SOL    HW297223   5.101   7.801   7.903
31776SOL     OW97224   1.191   6.009   9.458
31776SOL    HW197225   1.153   5.994   9.544
31776SOL    HW297226   1.268   6.064   9.474
31777SOL     OW97227  11.228   0.739   4.999
31777SOL    HW197228  11.303   0.797   4.985
31777SOL    HW297229  11.156   0.782   4.953
31778SOL     OW97230   4.440   0.336   3.157
31778SOL    HW197231   4.444   0.278   3.233
31778SOL    HW297232   4.456   0.423   3.192
31779SOL     OW97233   2.682  12.904   3.708
31779SOL    HW197234   2.734  12.909   3.628
31779SOL    HW297235   2.724  12.835   3.759
31780SOL     OW97236   8.833   4.032   8.993
31780SOL    HW197237   8.794   4.111   9.029
31780SOL    HW297238   8.908   4.014   9.049
31781SOL     OW97239  11.802  14.329  10.635
31781SOL    HW197240  11.851  14.250  10.613
31781SOL    HW297241  11.713  14.312  10.604
31782SOL     OW97242   5.428   0.157   3.773
31782SOL    HW197243   5.439   0.221   3.703
31782SOL    HW297244   5.515   0.121   3.788
31783SOL     OW97245  10.623   3.361   6.984
31783SOL    HW197246  10.542   3.309   6.988
31783SOL    HW297247  10.693   3.296   6.991
31784SOL     OW97248   7.483   4.573  13.561
31784SOL    HW197249   7.488   4.661  13.524
31784SOL    HW297250   7.391   4.547  13.550
31785SOL     OW97251   4.485  11.571  10.854
31785SOL    HW197252   4.531  11.599  10.775
31785SOL    HW297253   4.456  11.482  10.834
31786SOL     OW97254   2.676   8.420  12.713
31786SOL    HW197255   2.643   8.332  12.732
31786SOL    HW297256   2.616   8.454  12.647
31787SOL     OW97257   2.357   7.662  12.728
31787SOL    HW197258   2.323   7.641  12.641
31787SOL    HW297259   2.439   7.614  12.735
31788SOL     OW97260   0.801  11.917   7.923
31788SOL    HW197261   0.837  11.830   7.904
31788SOL    HW297262   0.865  11.957   7.982
31789SOL     OW97263  13.687  12.707   9.889
31789SOL    HW197264  13.674  12.802   9.882
31789SOL    HW297265  13.733  12.695   9.972
31790SOL     OW97266   1.874   1.639   5.067
31790SOL    HW197267   1.826   1.643   4.984
31790SOL    HW297268   1.965   1.650   5.042
31791SOL     OW97269  11.693   5.848   5.219
31791SOL    HW197270  11.725   5.857   5.129
31791SOL    HW297271  11.658   5.759   5.224
31792SOL     OW97272  13.242   4.687  12.853
31792SOL    HW197273  13.217   4.601  12.887
31792SOL    HW297274  13.302   4.667  12.781
31793SOL     OW97275   7.275  14.006  11.635
31793SOL    HW197276   7.346  13.959  11.592
31793SOL    HW297277   7.215  14.029  11.563
31794SOL     OW97278   7.965  12.719  14.430
31794SOL    HW197279   8.032  12.786  14.421
31794SOL    HW297280   7.882  12.768  14.429
31795SOL     OW97281   5.974   5.843  13.843
31795SOL    HW197282   5.937   5.917  13.795
31795SOL    HW297283   5.898   5.794  13.874
31796SOL     OW97284   0.677   7.670   1.450
31796SOL    HW197285   0.606   7.615   1.483
31796SOL    HW297286   0.741   7.672   1.522
31797SOL     OW97287   5.051   7.550   5.607
31797SOL    HW197288   4.963   7.533   5.642
31797SOL    HW297289   5.047   7.516   5.517
31798SOL     OW97290   4.937   9.076   8.781
31798SOL    HW197291   4.886   9.072   8.862
31798SOL    HW297292   4.920   8.992   8.738
31799SOL     OW97293   9.307   9.331  14.388
31799SOL    HW197294   9.316   9.275  14.465
31799SOL    HW297295   9.213   9.337  14.373
31800SOL     OW97296  11.445   9.522   6.560
31800SOL    HW197297  11.418   9.454   6.499
31800SOL    HW297298  11.365   9.549   6.604
31801SOL     OW97299   3.563  12.300   8.086
31801SOL    HW197300   3.654  12.330   8.076
31801SOL    HW297301   3.513  12.358   8.028
31802SOL     OW97302   0.296   9.412   6.612
31802SOL    HW197303   0.253   9.392   6.528
31802SOL    HW297304   0.336   9.330   6.640
31803SOL     OW97305   7.350   0.681   0.663
31803SOL    HW197306   7.340   0.759   0.609
31803SOL    HW297307   7.441   0.681   0.690
31804SOL     OW97308   2.642   0.688   6.733
31804SOL    HW197309   2.621   0.618   6.670
31804SOL    HW297310   2.701   0.647   6.796
31805SOL     OW97311   7.713   8.489   0.698
31805SOL    HW197312   7.771   8.473   0.623
31805SOL    HW297313   7.630   8.448   0.673
31806SOL     OW97314   9.836  14.759   8.478
31806SOL    HW197315   9.815  14.850   8.499
31806SOL    HW297316   9.839  14.715   8.563
31807SOL     OW97317  11.562   4.442   8.158
31807SOL    HW197318  11.621   4.387   8.210
31807SOL    HW297319  11.614   4.467   8.082
31808SOL     OW97320   8.236   8.637   2.047
31808SOL    HW197321   8.203   8.719   2.084
31808SOL    HW297322   8.331   8.641   2.060
31809SOL     OW97323   9.672  13.161   1.003
31809SOL    HW197324   9.631  13.235   1.048
31809SOL    HW297325   9.665  13.183   0.910
31810SOL     OW97326   7.819   5.300   4.723
31810SOL    HW197327   7.745   5.328   4.668
31810SOL    HW297328   7.792   5.322   4.812
31811SOL     OW97329  11.389   0.826  13.079
31811SOL    HW197330  11.475   0.833  13.039
31811SOL    HW297331  11.354   0.742  13.048
31812SOL     OW97332   3.891   9.197   4.174
31812SOL    HW197333   3.806   9.223   4.139
31812SOL    HW297334   3.907   9.111   4.135
31813SOL     OW97335   8.973  13.020  14.105
31813SOL    HW197336   8.900  13.059  14.057
31813SOL    HW297337   8.934  12.943  14.148
31814SOL     OW97338   1.475  11.189   5.528
31814SOL    HW197339   1.461  11.214   5.437
31814SOL    HW297340   1.568  11.205   5.544
31815SOL     OW97341   5.522   7.160   8.609
31815SOL    HW197342   5.443   7.107   8.599
31815SOL    HW297343   5.593   7.105   8.577
31816SOL     OW97344   6.847   1.556  11.561
31816SOL    HW197345   6.807   1.606  11.491
31816SOL    HW297346   6.779   1.547  11.627
31817SOL     OW97347  11.632   8.075  12.637
31817SOL    HW197348  11.636   8.171  12.640
31817SOL    HW297349  11.566   8.056  12.571
31818SOL     OW97350   5.896  11.295   2.963
31818SOL    HW197351   5.899  11.227   3.031
31818SOL    HW297352   5.846  11.366   3.002
31819SOL     OW97353   1.711  14.368   6.072
31819SOL    HW197354   1.756  14.373   5.988
31819SOL    HW297355   1.638  14.307   6.058
31820SOL     OW97356   3.491   2.034   2.027
31820SOL    HW197357   3.494   2.086   2.108
31820SOL    HW297358   3.410   1.983   2.035
31821SOL     OW97359  12.048   2.664  13.119
31821SOL    HW197360  11.980   2.598  13.109
31821SOL    HW297361  12.071   2.661  13.211
31822SOL     OW97362  11.332   4.836   9.750
31822SOL    HW197363  11.360   4.748   9.725
31822SOL    HW297364  11.245   4.825   9.789
31823SOL     OW97365   2.809  13.250   2.909
31823SOL    HW197366   2.831  13.341   2.889
31823SOL    HW297367   2.793  13.249   3.003
31824SOL     OW97368   4.690   8.891  14.168
31824SOL    HW197369   4.775   8.887  14.212
31824SOL    HW297370   4.644   8.963  14.211
31825SOL     OW97371   5.350  11.586   2.833
31825SOL    HW197372   5.279  11.606   2.771
31825SOL    HW297373   5.390  11.671   2.851
31826SOL     OW97374   6.775  14.671  10.868
31826SOL    HW197375   6.753  14.749  10.919
31826SOL    HW297376   6.716  14.674  10.793
31827SOL     OW97377  13.390   5.325   9.879
31827SOL    HW197378  13.431   5.248   9.920
31827SOL    HW297379  13.307   5.335   9.924
31828SOL     OW97380   5.248  13.245   0.078
31828SOL    HW197381   5.338  13.257   0.106
31828SOL    HW297382   5.254  13.219  14.864
31829SOL     OW97383  13.819   9.995   7.550
31829SOL    HW197384  13.817   9.918   7.493
31829SOL    HW297385  13.834   9.960   7.638
31830SOL     OW97386  10.556   2.421  10.373
31830SOL    HW197387  10.462   2.406  10.361
31830SOL    HW297388  10.588   2.443  10.286
31831SOL     OW97389  14.491   9.441  14.849
31831SOL    HW197390  14.479   9.464   0.064
31831SOL    HW297391  14.457   9.352  14.843
31832SOL     OW97392  10.958  10.203   2.395
31832SOL    HW197393  11.039  10.152   2.395
31832SOL    HW297394  10.902  10.161   2.330
31833SOL     OW97395  13.036  13.704   3.195
31833SOL    HW197396  13.108  13.640   3.189
31833SOL    HW297397  12.983  13.688   3.117
31834SOL     OW97398   2.758   4.066   9.116
31834SOL    HW197399   2.718   4.004   9.055
31834SOL    HW297400   2.761   4.149   9.067
31835SOL     OW97401  14.579   2.886  12.419
31835SOL    HW197402  14.522   2.877  12.343
31835SOL    HW297403  14.589   2.980  12.431
31836SOL     OW97404  11.488   5.296   0.587
31836SOL    HW197405  11.566   5.269   0.636
31836SOL    HW297406  11.450   5.213   0.557
31837SOL     OW97407   3.618  11.121   3.637
31837SOL    HW197408   3.660  11.184   3.578
31837SOL    HW297409   3.637  11.154   3.725
31838SOL     OW97410   8.996  12.122  14.813
31838SOL    HW197411   9.031  12.053  14.758
31838SOL    HW297412   8.941  12.076  14.877
31839SOL     OW97413   4.870   3.258   4.485
31839SOL    HW197414   4.904   3.314   4.415
31839SOL    HW297415   4.813   3.195   4.440
31840SOL     OW97416  12.723  14.820   4.251
31840SOL    HW197417  12.813  14.850   4.267
31840SOL    HW297418  12.701  14.857   4.165
31841SOL     OW97419  14.433   3.587   0.425
31841SOL    HW197420  14.355   3.639   0.445
31841SOL    HW297421  14.475   3.573   0.509
31842SOL     OW97422  13.655   3.502   9.998
31842SOL    HW197423  13.664   3.454   9.915
31842SOL    HW297424  13.654   3.434  10.065
31843SOL     OW97425   3.122  11.918   0.015
31843SOL    HW197426   3.163  12.001   0.037
31843SOL    HW297427   3.065  11.937  14.818
31844SOL     OW97428   0.555   8.961  11.115
31844SOL    HW197429   0.593   9.049  11.113
31844SOL    HW297430   0.488   8.963  11.047
31845SOL     OW97431   4.880   3.642   9.301
31845SOL    HW197432   4.851   3.682   9.218
31845SOL    HW297433   4.960   3.596   9.279
31846SOL     OW97434  10.668   5.497   4.216
31846SOL    HW197435  10.678   5.529   4.306
31846SOL    HW297436  10.716   5.560   4.163
31847SOL     OW97437  13.564   7.819  11.471
31847SOL    HW197438  13.629   7.866  11.419
31847SOL    HW297439  13.549   7.737  11.423
31848SOL     OW97440   3.904   3.903  13.544
31848SOL    HW197441   3.824   3.948  13.520
31848SOL    HW297442   3.969   3.934  13.481
31849SOL     OW97443   3.978   2.088   3.017
31849SOL    HW197444   4.011   2.089   2.927
31849SOL    HW297445   4.028   2.157   3.061
31850SOL     OW97446   9.951  12.910   8.197
31850SOL    HW197447   9.871  12.928   8.148
31850SOL    HW297448   9.938  12.953   8.282
31851SOL     OW97449   2.058  13.624   6.986
31851SOL    HW197450   1.967  13.640   7.009
31851SOL    HW297451   2.076  13.535   7.019
31852SOL     OW97452   0.632   2.725   3.322
31852SOL    HW197453   0.538   2.709   3.319
31852SOL    HW297454   0.645   2.804   3.269
31853SOL     OW97455  14.550   2.721   7.952
31853SOL    HW197456  14.629   2.716   7.899
31853SOL    HW297457  14.478   2.706   7.889
31854SOL     OW97458   7.785   2.108  10.875
31854SOL    HW197459   7.721   2.053  10.831
31854SOL    HW297460   7.733   2.171  10.925
31855SOL     OW97461  12.086   1.524  12.736
31855SOL    HW197462  12.042   1.510  12.820
31855SOL    HW297463  12.071   1.617  12.717
31856SOL     OW97464   1.036   8.230  12.031
31856SOL    HW197465   0.989   8.192  11.957
31856SOL    HW297466   0.968   8.257  12.092
31857SOL     OW97467  10.560   7.989   2.613
31857SOL    HW197468  10.652   7.987   2.640
31857SOL    HW297469  10.511   7.983   2.694
31858SOL     OW97470  12.195  13.474   0.107
31858SOL    HW197471  12.259  13.458   0.177
31858SOL    HW297472  12.113  13.440   0.143
31859SOL     OW97473  11.521   3.519  12.437
31859SOL    HW197474  11.473   3.601  12.453
31859SOL    HW297475  11.509   3.502  12.344
31860SOL     OW97476   0.811   9.681   5.343
31860SOL    HW197477   0.887   9.720   5.387
31860SOL    HW297478   0.763   9.637   5.413
31861SOL     OW97479  10.176  10.823   8.548
31861SOL    HW197480  10.155  10.785   8.633
31861SOL    HW297481  10.139  10.911   8.552
31862SOL     OW97482   4.902  12.396   9.572
31862SOL    HW197483   4.903  12.329   9.640
31862SOL    HW297484   4.974  12.372   9.513
31863SOL     OW97485   1.561  11.168  10.882
31863SOL    HW197486   1.567  11.182  10.787
31863SOL    HW297487   1.489  11.106  10.892
31864SOL     OW97488  14.214  10.308  11.041
31864SOL    HW197489  14.307  10.288  11.043
31864SOL    HW297490  14.210  10.404  11.038
31865SOL     OW97491   5.285  11.143  13.837
31865SOL    HW197492   5.312  11.081  13.904
31865SOL    HW297493   5.320  11.108  13.755
31866SOL     OW97494   2.119   5.899  14.314
31866SOL    HW197495   2.158   5.845  14.245
31866SOL    HW297496   2.064   5.962  14.267
31867SOL     OW97497  12.836   4.954   4.139
31867SOL    HW197498  12.824   4.859   4.147
31867SOL    HW297499  12.929   4.967   4.158
31868SOL     OW97500   7.357  10.101  10.935
31868SOL    HW197501   7.415  10.025  10.928
31868SOL    HW297502   7.364  10.129  11.027
31869SOL     OW97503  12.807   1.073   5.001
31869SOL    HW197504  12.809   1.076   4.905
31869SOL    HW297505  12.893   1.040   5.026
31870SOL     OW97506  10.938  11.556  14.018
31870SOL    HW197507  10.873  11.565  14.087
31870SOL    HW297508  10.888  11.529  13.941
31871SOL     OW97509   9.100   8.725  13.189
31871SOL    HW197510   9.109   8.820  13.187
31871SOL    HW297511   9.053   8.706  13.270
31872SOL     OW97512   3.990  11.375   4.093
31872SOL    HW197513   4.081  11.386   4.121
31872SOL    HW297514   3.973  11.281   4.104
31873SOL     OW97515   3.509  10.307  10.991
31873SOL    HW197516   3.483  10.226  11.036
31873SOL    HW297517   3.603  10.315  11.007
31874SOL     OW97518   4.572   3.172   5.514
31874SOL    HW197519   4.633   3.160   5.587
31874SOL    HW297520   4.600   3.109   5.448
31875SOL     OW97521   1.290   1.696   1.542
31875SOL    HW197522   1.382   1.696   1.516
31875SOL    HW297523   1.291   1.686   1.637
31876SOL     OW97524   8.179   6.787   2.560
31876SOL    HW197525   8.113   6.728   2.598
31876SOL    HW297526   8.149   6.875   2.586
31877SOL     OW97527   9.691   6.854  11.764
31877SOL    HW197528   9.601   6.868  11.737
31877SOL    HW297529   9.695   6.885  11.854
31878SOL     OW97530  14.262  12.007   5.994
31878SOL    HW197531  14.227  12.060   5.922
31878SOL    HW297532  14.344  11.971   5.960
31879SOL     OW97533   9.839  14.759  10.935
31879SOL    HW197534   9.785  14.793  10.863
31879SOL    HW297535   9.915  14.720  10.892
31880SOL     OW97536   4.464   3.350   6.386
31880SOL    HW197537   4.512   3.321   6.463
31880SOL    HW297538   4.378   3.377   6.420
31881SOL     OW97539   4.691  10.525   8.240
31881SOL    HW197540   4.674  10.600   8.297
31881SOL    HW297541   4.785  10.527   8.225
31882SOL     OW97542   2.231   7.042   3.533
31882SOL    HW197543   2.301   7.061   3.595
31882SOL    HW297544   2.174   6.980   3.578
31883SOL     OW97545  14.264   7.189   0.968
31883SOL    HW197546  14.172   7.179   0.944
31883SOL    HW297547  14.287   7.107   1.012
31884SOL     OW97548   5.340   1.734  14.292
31884SOL    HW197549   5.310   1.647  14.265
31884SOL    HW297550   5.435   1.726  14.298
31885SOL     OW97551   3.833   3.133  11.692
31885SOL    HW197552   3.906   3.187  11.723
31885SOL    HW297553   3.838   3.053  11.745
31886SOL     OW97554   0.361  12.526   1.523
31886SOL    HW197555   0.363  12.431   1.508
31886SOL    HW297556   0.372  12.564   1.436
31887SOL     OW97557   8.740   6.736   2.075
31887SOL    HW197558   8.813   6.684   2.109
31887SOL    HW297559   8.782   6.811   2.032
31888SOL     OW97560  13.643  11.817   2.938
31888SOL    HW197561  13.556  11.784   2.960
31888SOL    HW297562  13.629  11.910   2.918
31889SOL     OW97563  14.677   5.459  14.174
31889SOL    HW197564  14.644   5.429  14.259
31889SOL    HW297565  14.742   5.393  14.150
31890SOL     OW97566   9.852   3.036   6.038
31890SOL    HW197567   9.847   2.958   5.982
31890SOL    HW297568   9.885   3.105   5.980
31891SOL     OW97569   0.623  13.344   6.083
31891SOL    HW197570   0.569  13.351   6.161
31891SOL    HW297571   0.712  13.362   6.114
31892SOL     OW97572  13.379  12.509   4.327
31892SOL    HW197573  13.326  12.430   4.340
31892SOL    HW297574  13.451  12.480   4.271
31893SOL     OW97575  10.461  12.541  11.760
31893SOL    HW197576  10.422  12.527  11.674
31893SOL    HW297577  10.539  12.486  11.761
31894SOL     OW97578  10.066   1.932  13.250
31894SOL    HW197579  10.077   1.997  13.319
31894SOL    HW297580  10.011   1.864  13.290
31895SOL     OW97581   8.203  10.464  13.781
31895SOL    HW197582   8.195  10.453  13.686
31895SOL    HW297583   8.199  10.375  13.816
31896SOL     OW97584   1.813   7.525   6.408
31896SOL    HW197585   1.738   7.578   6.436
31896SOL    HW297586   1.871   7.523   6.485
31897SOL     OW97587  10.706  14.803  13.834
31897SOL    HW197588  10.673   0.015  13.845
31897SOL    HW297589  10.650  14.750  13.891
31898SOL     OW97590   4.381  13.252  11.998
31898SOL    HW197591   4.363  13.199  11.920
31898SOL    HW297592   4.409  13.337  11.963
31899SOL     OW97593  14.648   0.485   4.704
31899SOL    HW197594  14.582   0.553   4.711
31899SOL    HW297595  14.673   0.466   4.795
31900SOL     OW97596   7.422   2.516  13.023
31900SOL    HW197597   7.516   2.532  13.025
31900SOL    HW297598   7.384   2.598  12.990
31901SOL     OW97599  13.120   5.886  14.844
31901SOL    HW197600  13.155   5.966  14.804
31901SOL    HW297601  13.156   5.886   0.055
31902SOL     OW97602  14.826  14.489   5.032
31902SOL    HW197603  14.778  14.572   5.032
31902SOL    HW297604  14.759  14.423   5.014
31903SOL     OW97605   1.005   3.992  13.204
31903SOL    HW197606   1.082   3.990  13.262
31903SOL    HW297607   0.931   3.976  13.263
31904SOL     OW97608  11.627   6.440   5.622
31904SOL    HW197609  11.578   6.398   5.551
31904SOL    HW297610  11.606   6.533   5.614
31905SOL     OW97611   4.898  10.781   1.445
31905SOL    HW197612   4.855  10.741   1.521
31905SOL    HW297613   4.939  10.707   1.399
31906SOL     OW97614   1.246   4.957   2.265
31906SOL    HW197615   1.221   4.955   2.173
31906SOL    HW297616   1.203   4.881   2.304
31907SOL     OW97617  12.489   4.905   9.301
31907SOL    HW197618  12.501   4.974   9.236
31907SOL    HW297619  12.420   4.849   9.263
31908SOL     OW97620   1.788  10.248  12.896
31908SOL    HW197621   1.862  10.308  12.892
31908SOL    HW297622   1.711  10.305  12.901
31909SOL     OW97623   5.764   7.680   2.310
31909SOL    HW197624   5.753   7.604   2.366
31909SOL    HW297625   5.689   7.736   2.329
31910SOL     OW97626   3.421   4.553   9.997
31910SOL    HW197627   3.499   4.600   9.969
31910SOL    HW297628   3.398   4.498   9.922
31911SOL     OW97629   6.344   3.226   6.325
31911SOL    HW197630   6.370   3.149   6.274
31911SOL    HW297631   6.275   3.194   6.382
31912SOL     OW97632   1.647   6.248  12.279
31912SOL    HW197633   1.591   6.295  12.218
31912SOL    HW297634   1.649   6.302  12.358
31913SOL     OW97635   6.532   3.309  11.511
31913SOL    HW197636   6.563   3.332  11.423
31913SOL    HW297637   6.436   3.316  11.505
31914SOL     OW97638   7.398   9.815   7.023
31914SOL    HW197639   7.345   9.764   6.962
31914SOL    HW297640   7.403   9.902   6.984
31915SOL     OW97641   6.904   9.721   1.344
31915SOL    HW197642   6.911   9.634   1.385
31915SOL    HW297643   6.990   9.735   1.304
31916SOL     OW97644  11.761   9.492  10.502
31916SOL    HW197645  11.808   9.493  10.418
31916SOL    HW297646  11.725   9.404  10.508
31917SOL     OW97647   9.072   9.045   2.363
31917SOL    HW197648   9.123   8.973   2.326
31917SOL    HW297649   8.981   9.018   2.352
31918SOL     OW97650   4.680   2.376  12.001
31918SOL    HW197651   4.726   2.449  11.958
31918SOL    HW297652   4.599   2.366  11.950
31919SOL     OW97653   2.608   1.578   7.210
31919SOL    HW197654   2.699   1.575   7.239
31919SOL    HW297655   2.572   1.492   7.234
31920SOL     OW97656   0.388  13.248  14.363
31920SOL    HW197657   0.303  13.207  14.378
31920SOL    HW297658   0.372  13.342  14.377
31921SOL     OW97659  11.467   1.721   5.903
31921SOL    HW197660  11.424   1.686   5.981
31921SOL    HW297661  11.395   1.751   5.848
31922SOL     OW97662  14.616   3.808   6.754
31922SOL    HW197663  14.571   3.891   6.770
31922SOL    HW297664  14.709   3.832   6.750
31923SOL     OW97665   4.584  13.416   5.052
31923SOL    HW197666   4.519  13.362   5.097
31923SOL    HW297667   4.552  13.505   5.061
31924SOL     OW97668   4.719   9.163  14.632
31924SOL    HW197669   4.637   9.119  14.610
31924SOL    HW297670   4.733   9.143  14.725
31925SOL     OW97671   9.628   8.624   8.259
31925SOL    HW197672   9.603   8.716   8.263
31925SOL    HW297673   9.605   8.590   8.346
31926SOL     OW97674   0.960  14.675   8.921
31926SOL    HW197675   0.996  14.745   8.867
31926SOL    HW297676   0.916  14.720   8.993
31927SOL     OW97677   6.453   0.150  10.585
31927SOL    HW197678   6.372   0.110  10.555
31927SOL    HW297679   6.489   0.194  10.508
31928SOL     OW97680   9.120   9.258   1.814
31928SOL    HW197681   9.182   9.211   1.758
31928SOL    HW297682   9.035   9.242   1.775
31929SOL     OW97683  10.762   2.584   5.571
31929SOL    HW197684  10.851   2.554   5.590
31929SOL    HW297685  10.773   2.675   5.543
31930SOL     OW97686   2.533  13.832   5.220
31930SOL    HW197687   2.492  13.872   5.297
31930SOL    HW297688   2.491  13.746   5.213
31931SOL     OW97689  12.048   1.944   0.042
31931SOL    HW197690  12.076   1.868   0.092
31931SOL    HW297691  11.958   1.959   0.069
31932SOL     OW97692   7.344   7.238   0.430
31932SOL    HW197693   7.342   7.145   0.408
31932SOL    HW297694   7.427   7.251   0.475
31933SOL     OW97695   5.010   9.909  13.515
31933SOL    HW197696   4.989   9.994  13.475
31933SOL    HW297697   4.967   9.912  13.601
31934SOL     OW97698   5.635   5.644  11.355
31934SOL    HW197699   5.629   5.727  11.401
31934SOL    HW297700   5.617   5.665  11.264
31935SOL     OW97701   0.905  14.281   1.253
31935SOL    HW197702   0.834  14.340   1.227
31935SOL    HW297703   0.862  14.212   1.302
31936SOL     OW97704   0.804  12.176   0.483
31936SOL    HW197705   0.785  12.191   0.391
31936SOL    HW297706   0.806  12.264   0.522
31937SOL     OW97707  13.522   3.026   1.604
31937SOL    HW197708  13.455   3.068   1.551
31937SOL    HW297709  13.487   2.939   1.623
31938SOL     OW97710   6.769   2.086  12.143
31938SOL    HW197711   6.740   1.995  12.147
31938SOL    HW297712   6.762   2.117  12.233
31939SOL     OW97713   9.766   3.231   8.637
31939SOL    HW197714   9.716   3.149   8.646
31939SOL    HW297715   9.754   3.255   8.545
31940SOL     OW97716   1.768  14.347   5.171
31940SOL    HW197717   1.846  14.302   5.140
31940SOL    HW297718   1.800  14.426   5.214
31941SOL     OW97719   2.213  13.879   7.962
31941SOL    HW197720   2.171  13.937   8.025
31941SOL    HW297721   2.172  13.793   7.977
31942SOL     OW97722   2.643   7.929   5.994
31942SOL    HW197723   2.669   7.838   6.006
31942SOL    HW297724   2.591   7.929   5.913
31943SOL     OW97725  13.706   5.620  13.132
31943SOL    HW197726  13.748   5.536  13.115
31943SOL    HW297727  13.777   5.684  13.130
31944SOL     OW97728   7.421   1.975  12.858
31944SOL    HW197729   7.356   2.040  12.883
31944SOL    HW297730   7.505   2.022  12.861
31945SOL     OW97731   9.447  11.657  12.491
31945SOL    HW197732   9.425  11.579  12.441
31945SOL    HW297733   9.373  11.716  12.478
31946SOL     OW97734   5.332  11.362   2.062
31946SOL    HW197735   5.356  11.287   2.115
31946SOL    HW297736   5.413  11.412   2.051
31947SOL     OW97737  14.687   2.321  10.721
31947SOL    HW197738  14.697   2.400  10.668
31947SOL    HW297739  14.774   2.282  10.721
31948SOL     OW97740   7.483  13.438   8.221
31948SOL    HW197741   7.466  13.504   8.289
31948SOL    HW297742   7.574  13.452   8.196
31949SOL     OW97743  10.505   4.787  10.854
31949SOL    HW197744  10.425   4.839  10.857
31949SOL    HW297745  10.512   4.760  10.762
31950SOL     OW97746   0.862   0.885   8.482
31950SOL    HW197747   0.932   0.822   8.496
31950SOL    HW297748   0.796   0.838   8.431
31951SOL     OW97749   7.529  13.338   9.272
31951SOL    HW197750   7.524  13.334   9.176
31951SOL    HW297751   7.612  13.296   9.293
31952SOL     OW97752  14.606  13.455   5.551
31952SOL    HW197753  14.531  13.505   5.520
31952SOL    HW297754  14.678  13.481   5.493
31953SOL     OW97755   5.422   8.892   8.410
31953SOL    HW197756   5.468   8.917   8.330
31953SOL    HW297757   5.465   8.813   8.440
31954SOL     OW97758  13.593   5.174  11.882
31954SOL    HW197759  13.578   5.268  11.880
31954SOL    HW297760  13.541   5.140  11.808
31955SOL     OW97761   2.712  10.695  11.186
31955SOL    HW197762   2.649  10.730  11.123
31955SOL    HW297763   2.793  10.688  11.137
31956SOL     OW97764  14.633   7.864  10.979
31956SOL    HW197765  14.592   7.854  11.065
31956SOL    HW297766  14.559   7.870  10.918
31957SOL     OW97767   5.820   5.525   8.507
31957SOL    HW197768   5.906   5.494   8.536
31957SOL    HW297769   5.762   5.510   8.581
31958SOL     OW97770   9.910   5.057   0.022
31958SOL    HW197771   9.816   5.040   0.023
31958SOL    HW297772   9.949   4.982   0.067
31959SOL     OW97773   3.859   1.504   5.605
31959SOL    HW197774   3.916   1.574   5.573
31959SOL    HW297775   3.855   1.441   5.533
31960SOL     OW97776   6.481  14.103   3.814
31960SOL    HW197777   6.455  14.047   3.888
31960SOL    HW297778   6.398  14.129   3.774
31961SOL     OW97779   9.065   0.204   9.111
31961SOL    HW197780   9.149   0.190   9.068
31961SOL    HW297781   9.001   0.163   9.053
31962SOL     OW97782  14.435   4.070   5.267
31962SOL    HW197783  14.385   4.083   5.186
31962SOL    HW297784  14.522   4.042   5.237
31963SOL     OW97785   3.781   7.593   2.371
31963SOL    HW197786   3.695   7.570   2.337
31963SOL    HW297787   3.841   7.534   2.326
31964SOL     OW97788  14.592   6.089   4.947
31964SOL    HW197789  14.604   6.000   4.915
31964SOL    HW297790  14.531   6.129   4.885
31965SOL     OW97791   5.075  11.924   8.119
31965SOL    HW197792   5.045  11.937   8.028
31965SOL    HW297793   5.010  11.971   8.172
31966SOL     OW97794   7.490   2.934   3.152
31966SOL    HW197795   7.554   3.005   3.155
31966SOL    HW297796   7.452   2.941   3.064
31967SOL     OW97797   3.155  11.836   7.252
31967SOL    HW197798   3.158  11.776   7.327
31967SOL    HW297799   3.152  11.923   7.291
31968SOL     OW97800  11.070  10.066  11.104
31968SOL    HW197801  11.139  10.124  11.136
31968SOL    HW297802  11.020  10.119  11.042
31969SOL     OW97803   5.010   7.843  13.012
31969SOL    HW197804   5.031   7.763  12.963
31969SOL    HW297805   5.051   7.830  13.097
31970SOL     OW97806   1.696  13.781  10.444
31970SOL    HW197807   1.648  13.795  10.525
31970SOL    HW297808   1.786  13.806  10.465
31971SOL     OW97809  11.552  13.986   5.577
31971SOL    HW197810  11.613  14.020   5.512
31971SOL    HW297811  11.551  14.053   5.646
31972SOL     OW97812  14.411   6.588   8.400
31972SOL    HW197813  14.375   6.514   8.450
31972SOL    HW297814  14.417   6.555   8.311
31973SOL     OW97815   5.516   4.921   2.981
31973SOL    HW197816   5.431   4.934   3.023
31973SOL    HW297817   5.519   4.989   2.913
31974SOL     OW97818   3.847   5.061   3.592
31974SOL    HW197819   3.805   5.058   3.678
31974SOL    HW297820   3.941   5.060   3.611
31975SOL     OW97821  11.235   5.459  10.158
31975SOL    HW197822  11.164   5.504  10.203
31975SOL    HW297823  11.192   5.409  10.089
31976SOL     OW97824   5.745  12.549   4.570
31976SOL    HW197825   5.803  12.506   4.634
31976SOL    HW297826   5.798  12.556   4.491
31977SOL     OW97827   9.427   7.301  10.525
31977SOL    HW197828   9.389   7.347  10.600
31977SOL    HW297829   9.405   7.209  10.540
31978SOL     OW97830   2.553   1.876  10.261
31978SOL    HW197831   2.543   1.940  10.190
31978SOL    HW297832   2.481   1.896  10.321
31979SOL     OW97833   3.863   3.137   9.470
31979SOL    HW197834   3.833   3.115   9.383
31979SOL    HW297835   3.948   3.180   9.456
31980SOL     OW97836  11.031   8.489  10.739
31980SOL    HW197837  11.051   8.553  10.671
31980SOL    HW297838  11.109   8.486  10.794
31981SOL     OW97839  11.211   7.064   8.356
31981SOL    HW197840  11.217   7.042   8.264
31981SOL    HW297841  11.293   7.111   8.375
31982SOL     OW97842  14.281  11.076   4.576
31982SOL    HW197843  14.223  11.000   4.577
31982SOL    HW297844  14.330  11.069   4.658
31983SOL     OW97845   4.117   0.965  14.531
31983SOL    HW197846   4.186   0.992  14.592
31983SOL    HW297847   4.036   0.979  14.580
31984SOL     OW97848   6.465   9.390   6.121
31984SOL    HW197849   6.515   9.461   6.161
31984SOL    HW297850   6.508   9.374   6.037
31985SOL     OW97851   7.213   2.114  12.940
31985SOL    HW197852   7.187   2.168  13.015
31985SOL    HW297853   7.137   2.118  12.881
31986SOL     OW97854  11.352   5.261   1.136
31986SOL    HW197855  11.264   5.277   1.102
31986SOL    HW297856  11.356   5.312   1.217
31987SOL     OW97857  13.482   0.015  11.893
31987SOL    HW197858  13.418  14.850  11.837
31987SOL    HW297859  13.556  14.831  11.896
31988SOL     OW97860   3.291   6.615  11.116
31988SOL    HW197861   3.285   6.626  11.021
31988SOL    HW297862   3.282   6.521  11.130
31989SOL     OW97863   2.713   4.856   6.381
31989SOL    HW197864   2.753   4.867   6.467
31989SOL    HW297865   2.667   4.939   6.365
31990SOL     OW97866   7.828  11.464   3.956
31990SOL    HW197867   7.770  11.531   3.920
31990SOL    HW297868   7.916  11.495   3.934
31991SOL     OW97869  12.062   2.789   5.198
31991SOL    HW197870  11.983   2.775   5.250
31991SOL    HW297871  12.096   2.701   5.183
31992SOL     OW97872   9.554  12.055   2.269
31992SOL    HW197873   9.631  12.025   2.220
31992SOL    HW297874   9.554  12.150   2.258
31993SOL     OW97875  11.755   1.164   7.516
31993SOL    HW197876  11.784   1.081   7.554
31993SOL    HW297877  11.664   1.148   7.490
31994SOL     OW97878   0.527   1.909   9.901
31994SOL    HW197879   0.544   1.890   9.993
31994SOL    HW297880   0.480   1.992   9.901
31995SOL     OW97881   5.584   3.611  12.258
31995SOL    HW197882   5.606   3.536  12.312
31995SOL    HW297883   5.640   3.603  12.181
31996SOL     OW97884   4.230   6.019   8.284
31996SOL    HW197885   4.285   6.014   8.362
31996SOL    HW297886   4.179   5.938   8.285
31997SOL     OW97887  13.169   1.234   0.465
31997SOL    HW197888  13.239   1.283   0.506
31997SOL    HW297889  13.139   1.173   0.533
31998SOL     OW97890   6.694   0.063   8.769
31998SOL    HW197891   6.619   0.033   8.821
31998SOL    HW297892   6.721   0.145   8.810
31999SOL     OW97893  11.409   5.050  10.566
31999SOL    HW197894  11.483   5.103  10.595
31999SOL    HW297895  11.342   5.064  10.632
32000SOL     OW97896   5.803  11.188  12.694
32000SOL    HW197897   5.806  11.104  12.740
32000SOL    HW297898   5.878  11.237  12.729
32001SOL     OW97899  13.660   0.818   7.711
32001SOL    HW197900  13.734   0.820   7.771
32001SOL    HW297901  13.583   0.820   7.767
32002SOL     OW97902   6.289  11.317  10.816
32002SOL    HW197903   6.255  11.267  10.890
32002SOL    HW297904   6.214  11.370  10.787
32003SOL     OW97905   6.837   8.637   6.339
32003SOL    HW197906   6.790   8.554   6.349
32003SOL    HW297907   6.904   8.634   6.408
32004SOL     OW97908  11.617  14.755  10.711
32004SOL    HW197909  11.621  14.851  10.704
32004SOL    HW297910  11.549  14.740  10.777
32005SOL     OW97911   1.010  11.699   6.873
32005SOL    HW197912   0.942  11.632   6.866
32005SOL    HW297913   0.987  11.749   6.952
32006SOL     OW97914   2.698   2.355   6.459
32006SOL    HW197915   2.697   2.294   6.385
32006SOL    HW297916   2.630   2.322   6.518
32007SOL     OW97917   2.683   0.566   1.867
32007SOL    HW197918   2.596   0.527   1.867
32007SOL    HW297919   2.735   0.508   1.811
32008SOL     OW97920  12.312  12.389   8.203
32008SOL    HW197921  12.248  12.329   8.165
32008SOL    HW297922  12.392  12.336   8.212
32009SOL     OW97923   6.260  12.740   1.945
32009SOL    HW197924   6.330  12.787   1.991
32009SOL    HW297925   6.286  12.648   1.951
32010SOL     OW97926  11.050   3.192  14.260
32010SOL    HW197927  11.008   3.182  14.346
32010SOL    HW297928  11.017   3.118  14.209
32011SOL     OW97929  10.253   4.585  10.663
32011SOL    HW197930  10.296   4.581  10.748
32011SOL    HW297931  10.182   4.520  10.668
32012SOL     OW97932   4.064   1.370  12.119
32012SOL    HW197933   4.112   1.447  12.087
32012SOL    HW297934   3.973   1.399  12.123
32013SOL     OW97935   2.752  10.748   0.037
32013SOL    HW197936   2.845  10.754   0.014
32013SOL    HW297937   2.734  10.829   0.084
32014SOL     OW97938   5.858   2.310  10.209
32014SOL    HW197939   5.909   2.323  10.129
32014SOL    HW297940   5.786   2.372  10.203
32015SOL     OW97941   9.300   4.754   3.193
32015SOL    HW197942   9.371   4.694   3.174
32015SOL    HW297943   9.221   4.699   3.192
32016SOL     OW97944   0.140   9.138   6.738
32016SOL    HW197945   0.172   9.134   6.829
32016SOL    HW297946   0.212   9.103   6.686
32017SOL     OW97947   0.113  14.162  12.732
32017SOL    HW197948   0.061  14.202  12.801
32017SOL    HW297949   0.154  14.086  12.773
32018SOL     OW97950   0.504   3.275  10.755
32018SOL    HW197951   0.534   3.250  10.668
32018SOL    HW297952   0.453   3.200  10.786
32019SOL     OW97953   6.412   1.067   5.458
32019SOL    HW197954   6.421   1.002   5.388
32019SOL    HW297955   6.502   1.089   5.481
32020SOL     OW97956  10.505   2.098   4.124
32020SOL    HW197957  10.590   2.056   4.109
32020SOL    HW297958  10.443   2.047   4.073
32021SOL     OW97959   6.456  13.044  11.612
32021SOL    HW197960   6.444  13.138  11.623
32021SOL    HW297961   6.397  13.004  11.675
32022SOL     OW97962   8.638  14.297   1.022
32022SOL    HW197963   8.630  14.377   1.074
32022SOL    HW297964   8.591  14.316   0.941
32023SOL     OW97965   0.879  12.166  10.427
32023SOL    HW197966   0.965  12.185  10.389
32023SOL    HW297967   0.834  12.250  10.427
32024SOL     OW97968  12.886   1.293  14.032
32024SOL    HW197969  12.859   1.336  14.114
32024SOL    HW297970  12.957   1.348  13.999
32025SOL     OW97971   7.014   6.739  12.997
32025SOL    HW197972   7.022   6.647  13.022
32025SOL    HW297973   6.970   6.736  12.912
32026SOL     OW97974  14.739  13.592   9.742
32026SOL    HW197975  14.803  13.523   9.755
32026SOL    HW297976  14.790  13.667   9.713
32027SOL     OW97977   3.351   4.960   8.126
32027SOL    HW197978   3.272   5.012   8.110
32027SOL    HW297979   3.334   4.916   8.209
32028SOL     OW97980  13.855  11.052  11.138
32028SOL    HW197981  13.778  11.009  11.178
32028SOL    HW297982  13.818  11.115  11.077
32029SOL     OW97983  11.772  13.711   5.058
32029SOL    HW197984  11.744  13.626   5.024
32029SOL    HW297985  11.691  13.762   5.063
32030SOL     OW97986  14.604  11.573   0.457
32030SOL    HW197987  14.535  11.510   0.477
32030SOL    HW297988  14.624  11.558   0.365
32031SOL     OW97989   6.876  14.588   0.753
32031SOL    HW197990   6.887  14.545   0.668
32031SOL    HW297991   6.795  14.552   0.788
32032SOL     OW97992   8.109   6.425  14.144
32032SOL    HW197993   8.055   6.504  14.137
32032SOL    HW297994   8.126   6.400  14.053
32033SOL     OW97995   5.236   4.895   7.634
32033SOL    HW197996   5.159   4.902   7.577
32033SOL    HW297997   5.308   4.930   7.581
32034SOL     OW97998   8.434   9.290   8.043
32034SOL    HW197999   8.508   9.248   8.087
32034SOL    HW298000   8.450   9.384   8.053
32035SOL     OW98001  11.756   5.355  12.788
32035SOL    HW198002  11.813   5.371  12.713
32035SOL    HW298003  11.807   5.382  12.864
32036SOL     OW98004   5.337   1.517   9.066
32036SOL    HW198005   5.328   1.444   9.127
32036SOL    HW298006   5.248   1.553   9.058
32037SOL     OW98007   1.032   1.549   0.408
32037SOL    HW198008   1.027   1.600   0.327
32037SOL    HW298009   1.026   1.614   0.478
32038SOL     OW98010   3.261  12.848   8.727
32038SOL    HW198011   3.207  12.921   8.696
32038SOL    HW298012   3.294  12.807   8.647
32039SOL     OW98013   7.501   4.130   2.950
32039SOL    HW198014   7.580   4.082   2.974
32039SOL    HW298015   7.455   4.071   2.889
32040SOL     OW98016   0.599  14.410  12.329
32040SOL    HW198017   0.546  14.335  12.300
32040SOL    HW298018   0.689  14.376  12.330
32041SOL     OW98019   7.648   4.071   5.814
32041SOL    HW198020   7.674   4.161   5.796
32041SOL    HW298021   7.567   4.059   5.765
32042SOL     OW98022   0.576   9.778   5.846
32042SOL    HW198023   0.533   9.820   5.920
32042SOL    HW298024   0.662   9.819   5.841
32043SOL     OW98025   1.727   4.557   1.168
32043SOL    HW198026   1.822   4.564   1.178
32043SOL    HW298027   1.693   4.639   1.203
32044SOL     OW98028   8.338  12.729   3.853
32044SOL    HW198029   8.255  12.739   3.808
32044SOL    HW298030   8.325  12.771   3.938
32045SOL     OW98031  12.683  11.425   8.660
32045SOL    HW198032  12.595  11.463   8.658
32045SOL    HW298033  12.738  11.491   8.617
32046SOL     OW98034   5.619   0.028   4.575
32046SOL    HW198035   5.685   0.021   4.644
32046SOL    HW298036   5.538   0.002   4.617
32047SOL     OW98037   8.117  10.570  12.869
32047SOL    HW198038   8.057  10.644  12.880
32047SOL    HW298039   8.112  10.549  12.776
32048SOL     OW98040   2.551   2.156   8.687
32048SOL    HW198041   2.546   2.246   8.718
32048SOL    HW298042   2.479   2.148   8.624
32049SOL     OW98043  14.518   5.745   8.626
32049SOL    HW198044  14.533   5.782   8.539
32049SOL    HW298045  14.594   5.771   8.677
32050SOL     OW98046   5.210   8.328   6.451
32050SOL    HW198047   5.271   8.371   6.511
32050SOL    HW298048   5.252   8.336   6.365
32051SOL     OW98049   6.776  10.740  10.672
32051SOL    HW198050   6.792  10.811  10.610
32051SOL    HW298051   6.858  10.730  10.719
32052SOL     OW98052  11.457  12.226  12.215
32052SOL    HW198053  11.447  12.166  12.141
32052SOL    HW298054  11.534  12.278  12.194
32053SOL     OW98055   8.602   0.895   8.144
32053SOL    HW198056   8.606   0.973   8.089
32053SOL    HW298057   8.609   0.822   8.083
32054SOL     OW98058  11.204  14.739  11.467
32054SOL    HW198059  11.220  14.653  11.507
32054SOL    HW298060  11.289  14.764  11.431
32055SOL     OW98061   2.624   9.360  13.630
32055SOL    HW198062   2.555   9.423  13.609
32055SOL    HW298063   2.612   9.342  13.723
32056SOL     OW98064   0.650   9.349   9.393
32056SOL    HW198065   0.609   9.436   9.397
32056SOL    HW298066   0.666   9.327   9.485
32057SOL     OW98067   8.629   8.058  13.751
32057SOL    HW198068   8.601   7.968  13.764
32057SOL    HW298069   8.626   8.070  13.656
32058SOL     OW98070   4.993  12.505  14.818
32058SOL    HW198071   4.943  12.465   0.011
32058SOL    HW298072   4.927  12.527  14.752
32059SOL     OW98073  13.351   8.219   8.514
32059SOL    HW198074  13.318   8.266   8.590
32059SOL    HW298075  13.399   8.145   8.550
32060SOL     OW98076   3.419   8.398  13.442
32060SOL    HW198077   3.500   8.348  13.448
32060SOL    HW298078   3.388   8.385  13.352
32061SOL     OW98079  10.368   0.527   4.020
32061SOL    HW198080  10.345   0.458   3.957
32061SOL    HW298081  10.309   0.513   4.093
32062SOL     OW98082   5.702   3.074   0.286
32062SOL    HW198083   5.636   3.099   0.350
32062SOL    HW298084   5.785   3.088   0.331
32063SOL     OW98085  11.305  13.360   6.120
32063SOL    HW198086  11.302  13.453   6.141
32063SOL    HW298087  11.217  13.327   6.139
32064SOL     OW98088   3.102  11.593   9.881
32064SOL    HW198089   3.104  11.615   9.974
32064SOL    HW298090   3.194  11.583   9.856
32065SOL     OW98091   8.868  13.977  13.353
32065SOL    HW198092   8.957  13.949  13.331
32065SOL    HW298093   8.826  13.897  13.385
32066SOL     OW98094   5.771   9.974   2.643
32066SOL    HW198095   5.856   9.933   2.629
32066SOL    HW298096   5.788  10.041   2.709
32067SOL     OW98097  12.950  13.200  11.763
32067SOL    HW198098  12.854  13.196  11.760
32067SOL    HW298099  12.973  13.160  11.847
32068SOL     OW98100  10.925  11.515   2.217
32068SOL    HW198101  10.831  11.495   2.221
32068SOL    HW298102  10.938  11.554   2.131
32069SOL     OW98103  12.651  13.107  12.878
32069SOL    HW198104  12.566  13.109  12.834
32069SOL    HW298105  12.640  13.164  12.954
32070SOL     OW98106  10.500   6.448   6.701
32070SOL    HW198107  10.509   6.538   6.731
32070SOL    HW298108  10.419   6.448   6.650
32071SOL     OW98109  11.940  10.403  11.308
32071SOL    HW198110  11.989  10.321  11.310
32071SOL    HW298111  11.849  10.377  11.296
32072SOL     OW98112   8.780   4.251   4.273
32072SOL    HW198113   8.699   4.229   4.321
32072SOL    HW298114   8.783   4.347   4.274
32073SOL     OW98115  14.410  12.315  11.980
32073SOL    HW198116  14.488  12.273  12.017
32073SOL    HW298117  14.410  12.403  12.016
32074SOL     OW98118   2.447   1.493   2.994
32074SOL    HW198119   2.497   1.488   2.913
32074SOL    HW298120   2.512   1.484   3.063
32075SOL     OW98121  10.089  13.199   5.644
32075SOL    HW198122  10.024  13.129   5.637
32075SOL    HW298123  10.042  13.278   5.617
32076SOL     OW98124   3.035  12.157   7.469
32076SOL    HW198125   3.036  12.249   7.444
32076SOL    HW298126   3.114  12.120   7.427
32077SOL     OW98127  11.475   1.343   3.544
32077SOL    HW198128  11.525   1.423   3.561
32077SOL    HW298129  11.527   1.274   3.585
32078SOL     OW98130   9.536   4.671   4.422
32078SOL    HW198131   9.476   4.630   4.485
32078SOL    HW298132   9.621   4.669   4.465
32079SOL     OW98133   6.961  11.870   5.240
32079SOL    HW198134   6.916  11.792   5.273
32079SOL    HW298135   6.963  11.930   5.314
32080SOL     OW98136  14.420   9.102   8.188
32080SOL    HW198137  14.352   9.165   8.165
32080SOL    HW298138  14.418   9.037   8.117
32081SOL     OW98139   5.018  14.508  14.149
32081SOL    HW198140   4.993  14.569  14.080
32081SOL    HW298141   4.985  14.548  14.229
32082SOL     OW98142   8.291  14.319   6.797
32082SOL    HW198143   8.339  14.276   6.868
32082SOL    HW298144   8.338  14.401   6.783
32083SOL     OW98145  11.566  13.472   4.331
32083SOL    HW198146  11.626  13.546   4.330
32083SOL    HW298147  11.591  13.421   4.254
32084SOL     OW98148   8.571   0.778  14.586
32084SOL    HW198149   8.616   0.701  14.551
32084SOL    HW298150   8.486   0.777  14.544
32085SOL     OW98151   1.820   0.219  12.099
32085SOL    HW198152   1.744   0.174  12.135
32085SOL    HW298153   1.871   0.150  12.056
32086SOL     OW98154  12.911   3.332   5.128
32086SOL    HW198155  12.860   3.320   5.049
32086SOL    HW298156  12.992   3.374   5.099
32087SOL     OW98157   4.348   6.293   3.858
32087SOL    HW198158   4.304   6.208   3.856
32087SOL    HW298159   4.301   6.342   3.926
32088SOL     OW98160   7.487   9.820   9.182
32088SOL    HW198161   7.546   9.895   9.178
32088SOL    HW298162   7.410   9.852   9.228
32089SOL     OW98163   3.238   8.110   6.111
32089SOL    HW198164   3.209   8.079   6.197
32089SOL    HW298165   3.231   8.032   6.055
32090SOL     OW98166   4.667   8.798   8.540
32090SOL    HW198167   4.594   8.748   8.575
32090SOL    HW298168   4.630   8.882   8.516
32091SOL     OW98169   7.714   3.971   4.997
32091SOL    HW198170   7.764   3.924   4.930
32091SOL    HW298171   7.773   3.979   5.071
32092SOL     OW98172   8.911   0.434   9.926
32092SOL    HW198173   8.838   0.442   9.987
32092SOL    HW298174   8.910   0.516   9.876
32093SOL     OW98175   5.877   0.936   5.791
32093SOL    HW198176   5.821   0.999   5.838
32093SOL    HW298177   5.843   0.850   5.817
32094SOL     OW98178   9.007   7.774   7.195
32094SOL    HW198179   8.913   7.781   7.213
32094SOL    HW298180   9.023   7.680   7.191
32095SOL     OW98181  11.266  10.053   0.854
32095SOL    HW198182  11.244   9.964   0.881
32095SOL    HW298183  11.204  10.109   0.900
32096SOL     OW98184  10.775   4.281   5.855
32096SOL    HW198185  10.824   4.342   5.911
32096SOL    HW298186  10.700   4.255   5.909
32097SOL     OW98187   8.328   3.536   9.603
32097SOL    HW198188   8.353   3.598   9.672
32097SOL    HW298189   8.250   3.575   9.563
32098SOL     OW98190   2.334   0.041   9.985
32098SOL    HW198191   2.265  14.854   9.969
32098SOL    HW298192   2.318   0.071  10.075
32099SOL     OW98193   8.274   6.083   8.698
32099SOL    HW198194   8.300   6.086   8.790
32099SOL    HW298195   8.246   6.173   8.678
32100SOL     OW98196   9.888   1.261   3.917
32100SOL    HW198197   9.974   1.290   3.946
32100SOL    HW298198   9.826   1.320   3.962
32101SOL     OW98199   2.162   7.960   0.577
32101SOL    HW198200   2.124   7.905   0.645
32101SOL    HW298201   2.257   7.956   0.593
32102SOL     OW98202   3.247   4.930   3.201
32102SOL    HW198203   3.321   4.978   3.165
32102SOL    HW298204   3.239   4.963   3.290
32103SOL     OW98205   7.827   9.668   7.545
32103SOL    HW198206   7.744   9.710   7.526
32103SOL    HW298207   7.868   9.724   7.611
32104SOL     OW98208  11.213  14.246   9.213
32104SOL    HW198209  11.232  14.153   9.222
32104SOL    HW298210  11.256  14.287   9.288
32105SOL     OW98211   8.444   8.554   7.354
32105SOL    HW198212   8.491   8.527   7.432
32105SOL    HW298213   8.369   8.494   7.349
32106SOL     OW98214   9.343   6.423   3.136
32106SOL    HW198215   9.414   6.404   3.197
32106SOL    HW298216   9.346   6.518   3.125
32107SOL     OW98217  13.195  14.618   6.595
32107SOL    HW198218  13.206  14.635   6.502
32107SOL    HW298219  13.277  14.650   6.635
32108SOL     OW98220  11.917   9.870   0.897
32108SOL    HW198221  11.858   9.795   0.892
32108SOL    HW298222  11.907   9.901   0.987
32109SOL     OW98223   5.227   2.491   1.817
32109SOL    HW198224   5.291   2.561   1.804
32109SOL    HW298225   5.240   2.462   1.907
32110SOL     OW98226   4.076   7.388  12.732
32110SOL    HW198227   3.993   7.347  12.706
32110SOL    HW298228   4.107   7.334  12.804
32111SOL     OW98229  12.336  13.944   2.093
32111SOL    HW198230  12.412  13.905   2.137
32111SOL    HW298231  12.371  13.978   2.011
32112SOL     OW98232  12.579   7.007  10.034
32112SOL    HW198233  12.581   6.968  10.121
32112SOL    HW298234  12.488   7.035  10.022
32113SOL     OW98235  12.735   6.151  13.769
32113SOL    HW198236  12.781   6.138  13.686
32113SOL    HW298237  12.750   6.243  13.792
32114SOL     OW98238  14.000  11.680   4.805
32114SOL    HW198239  14.074  11.661   4.747
32114SOL    HW298240  13.947  11.601   4.802
32115SOL     OW98241   4.013   9.147   5.746
32115SOL    HW198242   3.999   9.132   5.839
32115SOL    HW298243   3.929   9.123   5.705
32116SOL     OW98244  10.822  11.125   6.938
32116SOL    HW198245  10.747  11.144   6.994
32116SOL    HW298246  10.892  11.181   6.972
32117SOL     OW98247   0.929  13.622   6.183
32117SOL    HW198248   0.897  13.697   6.133
32117SOL    HW298249   0.859  13.603   6.245
32118SOL     OW98250   8.081   5.491  10.344
32118SOL    HW198251   8.107   5.552  10.275
32118SOL    HW298252   7.988   5.511  10.359
32119SOL     OW98253  11.983   4.031   0.925
32119SOL    HW198254  11.920   3.983   0.980
32119SOL    HW298255  12.066   3.986   0.939
32120SOL     OW98256   4.510  12.647  11.441
32120SOL    HW198257   4.452  12.688  11.506
32120SOL    HW298258   4.528  12.561  11.478
32121SOL     OW98259   4.885   4.173   7.603
32121SOL    HW198260   4.963   4.124   7.627
32121SOL    HW298261   4.812   4.120   7.634
32122SOL     OW98262   2.932   4.919   7.972
32122SOL    HW198263   2.956   4.827   7.959
32122SOL    HW298264   2.850   4.916   8.022
32123SOL     OW98265   5.903   3.041   5.166
32123SOL    HW198266   5.985   3.089   5.159
32123SOL    HW298267   5.913   2.990   5.247
32124SOL     OW98268   1.980   5.220   5.405
32124SOL    HW198269   2.057   5.166   5.422
32124SOL    HW298270   1.958   5.258   5.490
32125SOL     OW98271   8.304  13.137   3.811
32125SOL    HW198272   8.389  13.121   3.852
32125SOL    HW298273   8.291  13.232   3.817
32126SOL     OW98274   2.887   5.725   6.109
32126SOL    HW198275   2.929   5.771   6.036
32126SOL    HW298276   2.862   5.795   6.169
32127SOL     OW98277   3.427   4.774   7.251
32127SOL    HW198278   3.334   4.768   7.274
32127SOL    HW298279   3.428   4.823   7.168
32128SOL     OW98280   1.956   8.988   2.290
32128SOL    HW198281   2.041   8.945   2.302
32128SOL    HW298282   1.935   9.024   2.376
32129SOL     OW98283  14.361  11.637   4.819
32129SOL    HW198284  14.366  11.717   4.872
32129SOL    HW298285  14.440  11.638   4.766
32130SOL     OW98286  14.682   5.495   4.110
32130SOL    HW198287  14.648   5.573   4.155
32130SOL    HW298288  14.692   5.522   4.019
32131SOL     OW98289   3.018  13.601   5.775
32131SOL    HW198290   3.089  13.664   5.781
32131SOL    HW298291   2.946  13.649   5.734
32132SOL     OW98292  13.444   1.603   5.967
32132SOL    HW198293  13.505   1.587   6.039
32132SOL    HW298294  13.358   1.580   6.003
32133SOL     OW98295   2.895  10.595   1.749
32133SOL    HW198296   2.877  10.561   1.837
32133SOL    HW298297   2.835  10.547   1.692
32134SOL     OW98298   1.051   7.877  12.147
32134SOL    HW198299   1.107   7.946  12.111
32134SOL    HW298300   0.967   7.889  12.103
32135SOL     OW98301  12.305   5.675  11.136
32135SOL    HW198302  12.251   5.637  11.066
32135SOL    HW298303  12.389   5.632  11.128
32136SOL     OW98304   4.045   7.952   7.117
32136SOL    HW198305   4.071   7.877   7.170
32136SOL    HW298306   4.123   7.974   7.066
32137SOL     OW98307   9.695  10.343   4.468
32137SOL    HW198308   9.717  10.388   4.386
32137SOL    HW298309   9.611  10.301   4.451
32138SOL     OW98310  13.758  13.054   7.210
32138SOL    HW198311  13.765  13.034   7.304
32138SOL    HW298312  13.777  12.971   7.167
32139SOL     OW98313  11.707   5.684   3.091
32139SOL    HW198314  11.798   5.673   3.116
32139SOL    HW298315  11.700   5.640   3.006
32140SOL     OW98316   1.628  14.036   5.617
32140SOL    HW198317   1.583  13.952   5.627
32140SOL    HW298318   1.624  14.054   5.523
32141SOL     OW98319  14.730  11.857  14.503
32141SOL    HW198320  14.790  11.805  14.450
32141SOL    HW298321  14.682  11.793  14.556
32142SOL     OW98322  10.078   4.777  11.261
32142SOL    HW198323  10.146   4.845  11.253
32142SOL    HW298324  10.032   4.800  11.342
32143SOL     OW98325  13.144  14.870  14.643
32143SOL    HW198326  13.206   0.026  14.708
32143SOL    HW298327  13.065  14.848  14.693
32144SOL     OW98328   4.131   3.715  12.415
32144SOL    HW198329   4.171   3.656  12.479
32144SOL    HW298330   4.052   3.670  12.386
32145SOL     OW98331  10.145  11.805  14.474
32145SOL    HW198332  10.166  11.771  14.562
32145SOL    HW298333  10.230  11.826  14.435
32146SOL     OW98334  10.399   8.805   6.191
32146SOL    HW198335  10.462   8.838   6.126
32146SOL    HW298336  10.453   8.763   6.257
32147SOL     OW98337  12.640   8.641   8.329
32147SOL    HW198338  12.674   8.601   8.409
32147SOL    HW298339  12.712   8.695   8.296
32148SOL     OW98340  12.375  13.926  10.989
32148SOL    HW198341  12.337  13.843  11.017
32148SOL    HW298342  12.303  13.988  10.994
32149SOL     OW98343   3.738   0.335   3.565
32149SOL    HW198344   3.718   0.309   3.654
32149SOL    HW298345   3.702   0.423   3.556
32150SOL     OW98346   3.637   4.844   5.844
32150SOL    HW198347   3.670   4.793   5.918
32150SOL    HW298348   3.715   4.861   5.791
32151SOL     OW98349  13.578   3.407   6.234
32151SOL    HW198350  13.532   3.327   6.210
32151SOL    HW298351  13.661   3.377   6.271
32152SOL     OW98352   9.695  12.385   8.769
32152SOL    HW198353   9.705  12.461   8.826
32152SOL    HW298354   9.785  12.358   8.749
32153SOL     OW98355   0.265   6.742   8.407
32153SOL    HW198356   0.225   6.822   8.441
32153SOL    HW298357   0.322   6.711   8.477
32154SOL     OW98358  13.838  12.035  11.682
32154SOL    HW198359  13.862  12.069  11.768
32154SOL    HW298360  13.755  11.990  11.697
32155SOL     OW98361   0.342  11.066  10.679
32155SOL    HW198362   0.282  11.015  10.733
32155SOL    HW298363   0.316  11.046  10.589
32156SOL     OW98364   4.119  13.479   7.311
32156SOL    HW198365   4.145  13.548   7.371
32156SOL    HW298366   4.038  13.444   7.348
32157SOL     OW98367   4.017  14.711  11.016
32157SOL    HW198368   4.065  14.762  10.950
32157SOL    HW298369   4.001  14.627  10.974
32158SOL     OW98370   0.534   8.699  13.319
32158SOL    HW198371   0.591   8.711  13.394
32158SOL    HW298372   0.583   8.734  13.245
32159SOL     OW98373   5.085   2.456  10.261
32159SOL    HW198374   5.024   2.386  10.238
32159SOL    HW298375   5.167   2.411  10.279
32160SOL     OW98376  11.089  11.099   7.276
32160SOL    HW198377  11.143  11.070   7.202
32160SOL    HW298378  11.005  11.053   7.263
32161SOL     OW98379   1.651   3.158   3.335
32161SOL    HW198380   1.646   3.079   3.388
32161SOL    HW298381   1.739   3.192   3.350
32162SOL     OW98382  11.002   3.653  12.724
32162SOL    HW198383  11.019   3.741  12.690
32162SOL    HW298384  11.079   3.602  12.700
32163SOL     OW98385   1.107  13.894   1.639
32163SOL    HW198386   1.034  13.956   1.642
32163SOL    HW298387   1.069  13.814   1.604
32164SOL     OW98388   8.650   5.732   6.502
32164SOL    HW198389   8.720   5.721   6.438
32164SOL    HW298390   8.592   5.657   6.488
32165SOL     OW98391   0.582   5.714  10.730
32165SOL    HW198392   0.657   5.674  10.686
32165SOL    HW298393   0.553   5.649  10.794
32166SOL     OW98394   2.834  10.941  14.095
32166SOL    HW198395   2.837  10.872  14.029
32166SOL    HW298396   2.870  10.900  14.174
32167SOL     OW98397  12.037   0.365  10.746
32167SOL    HW198398  12.023   0.280  10.704
32167SOL    HW298399  12.094   0.346  10.820
32168SOL     OW98400  11.086   3.885   3.169
32168SOL    HW198401  11.061   3.842   3.087
32168SOL    HW298402  11.005   3.892   3.219
32169SOL     OW98403   6.720  12.339   3.947
32169SOL    HW198404   6.729  12.411   4.010
32169SOL    HW298405   6.708  12.261   4.001
32170SOL     OW98406  11.376  11.949   1.927
32170SOL    HW198407  11.424  11.868   1.912
32170SOL    HW298408  11.405  11.978   2.014
32171SOL     OW98409   4.479   4.381   7.939
32171SOL    HW198410   4.568   4.415   7.951
32171SOL    HW298411   4.448   4.364   8.028
32172SOL     OW98412   1.845   7.150   2.211
32172SOL    HW198413   1.888   7.185   2.134
32172SOL    HW298414   1.908   7.089   2.250
32173SOL     OW98415  12.063   5.033  12.385
32173SOL    HW198416  12.067   5.097  12.314
32173SOL    HW298417  12.110   5.075  12.457
32174SOL     OW98418  11.129   9.274  14.388
32174SOL    HW198419  11.091   9.319  14.313
32174SOL    HW298420  11.152   9.188  14.354
32175SOL     OW98421   1.859   4.043  11.499
32175SOL    HW198422   1.788   4.105  11.485
32175SOL    HW298423   1.925   4.093  11.547
32176SOL     OW98424   4.185  10.760  13.641
32176SOL    HW198425   4.251  10.692  13.638
32176SOL    HW298426   4.127  10.741  13.567
32177SOL     OW98427   2.053  13.026  14.591
32177SOL    HW198428   2.046  12.990  14.679
32177SOL    HW298429   2.010  12.961  14.535
32178SOL     OW98430  10.812  12.855  10.770
32178SOL    HW198431  10.779  12.846  10.860
32178SOL    HW298432  10.776  12.939  10.741
32179SOL     OW98433   5.437   5.481   3.434
32179SOL    HW198434   5.466   5.547   3.497
32179SOL    HW298435   5.497   5.408   3.447
32180SOL     OW98436   3.667   8.123  14.315
32180SOL    HW198437   3.735   8.157  14.374
32180SOL    HW298438   3.617   8.201  14.289
32181SOL     OW98439   9.293   3.311  13.702
32181SOL    HW198440   9.285   3.398  13.740
32181SOL    HW298441   9.294   3.326  13.608
32182SOL     OW98442   4.196   1.136   6.383
32182SOL    HW198443   4.202   1.103   6.472
32182SOL    HW298444   4.113   1.183   6.380
32183SOL     OW98445   7.960  14.712   0.832
32183SOL    HW198446   7.995  14.681   0.915
32183SOL    HW298447   8.037  14.737   0.781
32184SOL     OW98448   6.015   4.464   1.148
32184SOL    HW198449   5.946   4.447   1.212
32184SOL    HW298450   6.095   4.465   1.199
32185SOL     OW98451   2.449   9.723   0.628
32185SOL    HW198452   2.532   9.730   0.582
32185SOL    HW298453   2.382   9.738   0.561
32186SOL     OW98454   5.569   1.900   6.734
32186SOL    HW198455   5.619   1.841   6.678
32186SOL    HW298456   5.515   1.842   6.788
32187SOL     OW98457  14.448   2.163   9.138
32187SOL    HW198458  14.494   2.079   9.135
32187SOL    HW298459  14.479   2.210   9.060
32188SOL     OW98460   5.200   3.635   4.727
32188SOL    HW198461   5.258   3.598   4.794
32188SOL    HW298462   5.220   3.585   4.648
32189SOL     OW98463  12.346   4.842  10.699
32189SOL    HW198464  12.348   4.746  10.699
32189SOL    HW298465  12.432   4.867  10.664
32190SOL     OW98466  12.324  14.431   8.107
32190SOL    HW198467  12.345  14.414   8.198
32190SOL    HW298468  12.392  14.385   8.058
32191SOL     OW98469   2.750   6.236  10.388
32191SOL    HW198470   2.793   6.202  10.310
32191SOL    HW298471   2.667   6.273  10.356
32192SOL     OW98472  13.363   5.151  13.661
32192SOL    HW198473  13.448   5.174  13.699
32192SOL    HW298474  13.345   5.063  13.693
32193SOL     OW98475  11.325   8.661  10.849
32193SOL    HW198476  11.293   8.651  10.939
32193SOL    HW298477  11.340   8.571  10.820
32194SOL     OW98478  10.327   8.513   4.900
32194SOL    HW198479  10.295   8.446   4.840
32194SOL    HW298480  10.418   8.528   4.873
32195SOL     OW98481  12.991   4.330   6.659
32195SOL    HW198482  13.003   4.315   6.753
32195SOL    HW298483  13.051   4.401   6.639
32196SOL     OW98484   3.905  14.529   0.505
32196SOL    HW198485   3.847  14.503   0.576
32196SOL    HW298486   3.970  14.586   0.546
32197SOL     OW98487   6.290  12.094   5.526
32197SOL    HW198488   6.366  12.115   5.473
32197SOL    HW298489   6.230  12.050   5.466
32198SOL     OW98490   3.978   1.248   9.667
32198SOL    HW198491   3.898   1.291   9.635
32198SOL    HW298492   3.999   1.296   9.748
32199SOL     OW98493  10.717   6.261   2.652
32199SOL    HW198494  10.663   6.191   2.614
32199SOL    HW298495  10.765   6.297   2.578
32200SOL     OW98496   9.060  12.224   1.528
32200SOL    HW198497   9.104  12.182   1.603
32200SOL    HW298498   9.046  12.153   1.466
32201SOL     OW98499   1.489  13.677   0.845
32201SOL    HW198500   1.550  13.653   0.775
32201SOL    HW298501   1.544  13.722   0.910
32202SOL     OW98502  13.148  13.803  14.017
32202SOL    HW198503  13.175  13.848  13.937
32202SOL    HW298504  13.055  13.824  14.027
32203SOL     OW98505  10.070   6.576  10.475
32203SOL    HW198506  10.156   6.610  10.450
32203SOL    HW298507  10.030   6.550  10.391
32204SOL     OW98508   8.533   3.081   5.979
32204SOL    HW198509   8.453   3.132   5.994
32204SOL    HW298510   8.594   3.144   5.941
32205SOL     OW98511  11.256   2.005   2.935
32205SOL    HW198512  11.239   2.096   2.911
32205SOL    HW298513  11.172   1.972   2.966
32206SOL     OW98514   2.075   2.139   7.635
32206SOL    HW198515   2.016   2.155   7.561
32206SOL    HW298516   2.093   2.226   7.670
32207SOL     OW98517   0.567  13.823   5.347
32207SOL    HW198518   0.611  13.766   5.410
32207SOL    HW298519   0.480  13.785   5.337
32208SOL     OW98520   4.128   8.555   2.764
32208SOL    HW198521   4.151   8.571   2.672
32208SOL    HW298522   4.033   8.549   2.764
32209SOL     OW98523   6.829   7.026   4.855
32209SOL    HW198524   6.736   7.011   4.870
32209SOL    HW298525   6.854   6.962   4.789
32210SOL     OW98526  10.951   5.986   7.544
32210SOL    HW198527  10.861   6.009   7.521
32210SOL    HW298528  10.993   5.964   7.461
32211SOL     OW98529   0.234   2.907   1.768
32211SOL    HW198530   0.154   2.856   1.755
32211SOL    HW298531   0.303   2.855   1.726
32212SOL     OW98532   6.684   9.259  13.076
32212SOL    HW198533   6.719   9.173  13.054
32212SOL    HW298534   6.608   9.241  13.131
32213SOL     OW98535   4.579   9.112   8.070
32213SOL    HW198536   4.517   9.042   8.050
32213SOL    HW298537   4.605   9.096   8.161
32214SOL     OW98538   1.878  10.277  13.373
32214SOL    HW198539   1.888  10.219  13.298
32214SOL    HW298540   1.967  10.302  13.397
32215SOL     OW98541   7.972   8.059   9.798
32215SOL    HW198542   8.064   8.062   9.772
32215SOL    HW298543   7.969   7.997   9.870
32216SOL     OW98544   4.485   0.323   6.771
32216SOL    HW198545   4.548   0.395   6.761
32216SOL    HW298546   4.536   0.251   6.806
32217SOL     OW98547   6.174  13.198   4.120
32217SOL    HW198548   6.100  13.212   4.179
32217SOL    HW298549   6.138  13.210   4.033
32218SOL     OW98550   3.492   8.233   9.618
32218SOL    HW198551   3.422   8.188   9.572
32218SOL    HW298552   3.475   8.217   9.711
32219SOL     OW98553  14.298   2.363  10.910
32219SOL    HW198554  14.270   2.360  11.002
32219SOL    HW298555  14.391   2.388  10.915
32220SOL     OW98556   2.384  11.353  11.076
32220SOL    HW198557   2.328  11.425  11.105
32220SOL    HW298558   2.389  11.363  10.981
32221SOL     OW98559  12.130   7.587  12.600
32221SOL    HW198560  12.064   7.574  12.533
32221SOL    HW298561  12.084   7.570  12.683
32222SOL     OW98562   5.128   2.342   0.222
32222SOL    HW198563   5.038   2.368   0.240
32222SOL    HW298564   5.155   2.292   0.299
32223SOL     OW98565   4.832   1.951   7.082
32223SOL    HW198566   4.811   2.042   7.062
32223SOL    HW298567   4.905   1.930   7.024
32224SOL     OW98568   4.837   9.455   7.263
32224SOL    HW198569   4.812   9.547   7.259
32224SOL    HW298570   4.854   9.431   7.172
32225SOL     OW98571  10.271   0.664  10.879
32225SOL    HW198572  10.193   0.718  10.874
32225SOL    HW298573  10.339   0.722  10.913
32226SOL     OW98574  14.263   2.356   7.858
32226SOL    HW198575  14.200   2.299   7.814
32226SOL    HW298576  14.309   2.298   7.919
32227SOL     OW98577  10.567   7.082   2.708
32227SOL    HW198578  10.491   7.136   2.732
32227SOL    HW298579  10.575   7.018   2.778
32228SOL     OW98580   5.312   9.553   0.127
32228SOL    HW198581   5.334   9.510   0.209
32228SOL    HW298582   5.341   9.492   0.059
32229SOL     OW98583   1.252   7.405  10.673
32229SOL    HW198584   1.333   7.353  10.674
32229SOL    HW298585   1.224   7.402  10.582
32230SOL     OW98586   6.090   0.715   2.006
32230SOL    HW198587   6.132   0.649   2.062
32230SOL    HW298588   6.036   0.766   2.067
32231SOL     OW98589   5.962  11.146  14.059
32231SOL    HW198590   5.982  11.228  14.104
32231SOL    HW298591   5.906  11.171  13.986
32232SOL     OW98592   5.345   6.993   2.076
32232SOL    HW198593   5.304   7.072   2.041
32232SOL    HW298594   5.304   6.981   2.161
32233SOL     OW98595   8.686  12.469   6.535
32233SOL    HW198596   8.631  12.442   6.609
32233SOL    HW298597   8.624  12.481   6.463
32234SOL     OW98598   9.693   2.698   4.223
32234SOL    HW198599   9.613   2.714   4.273
32234SOL    HW298600   9.680   2.746   4.141
32235SOL     OW98601  13.407  12.756   9.852
32235SOL    HW198602  13.418  12.700   9.929
32235SOL    HW298603  13.422  12.697   9.778
32236SOL     OW98604   6.162  13.604  13.712
32236SOL    HW198605   6.237  13.557  13.676
32236SOL    HW298606   6.200  13.675  13.764
32237SOL     OW98607   2.310   4.184   4.895
32237SOL    HW198608   2.290   4.126   4.822
32237SOL    HW298609   2.262   4.147   4.969
32238SOL     OW98610  12.621  12.456   2.522
32238SOL    HW198611  12.689  12.441   2.455
32238SOL    HW298612  12.596  12.547   2.510
32239SOL     OW98613   2.301   8.176  11.940
32239SOL    HW198614   2.257   8.233  12.003
32239SOL    HW298615   2.256   8.092  11.947
32240SOL     OW98616   8.895  13.656  13.611
32240SOL    HW198617   8.974  13.605  13.592
32240SOL    HW298618   8.850  13.662  13.527
32241SOL     OW98619   4.410  12.470  12.022
32241SOL    HW198620   4.414  12.399  12.087
32241SOL    HW298621   4.501  12.497  12.012
32242SOL     OW98622  12.010   3.413  14.057
32242SOL    HW198623  12.052   3.377  14.135
32242SOL    HW298624  12.071   3.481  14.027
32243SOL     OW98625   9.180   2.785   2.207
32243SOL    HW198626   9.107   2.838   2.176
32243SOL    HW298627   9.258   2.835   2.180
32244SOL     OW98628   3.077  13.772  12.359
32244SOL    HW198629   3.161  13.785  12.314
32244SOL    HW298630   3.070  13.847  12.418
32245SOL     OW98631   7.693  12.313   0.883
32245SOL    HW198632   7.728  12.380   0.824
32245SOL    HW298633   7.771  12.268   0.917
32246SOL     OW98634   5.488   2.665  11.336
32246SOL    HW198635   5.511   2.572  11.337
32246SOL    HW298636   5.563   2.708  11.378
32247SOL     OW98637  13.120  14.743  11.501
32247SOL    HW198638  13.076  14.663  11.528
32247SOL    HW298639  13.105  14.747  11.406
32248SOL     OW98640   3.623  12.411   0.967
32248SOL    HW198641   3.594  12.476   0.903
32248SOL    HW298642   3.544  12.388   1.016
32249SOL     OW98643   4.170   6.435   0.921
32249SOL    HW198644   4.258   6.407   0.896
32249SOL    HW298645   4.122   6.353   0.934
32250SOL     OW98646   9.664   8.950   0.210
32250SOL    HW198647   9.650   9.038   0.176
32250SOL    HW298648   9.635   8.954   0.301
32251SOL     OW98649   9.524   4.592  13.976
32251SOL    HW198650   9.567   4.651  14.037
32251SOL    HW298651   9.442   4.567  14.019
32252SOL     OW98652   6.564  14.688  11.501
32252SOL    HW198653   6.485  14.737  11.523
32252SOL    HW298654   6.612  14.745  11.441
32253SOL     OW98655  11.761  12.150   0.249
32253SOL    HW198656  11.780  12.234   0.208
32253SOL    HW298657  11.670  12.156   0.277
32254SOL     OW98658   3.461  12.478  11.845
32254SOL    HW198659   3.472  12.509  11.755
32254SOL    HW298660   3.543  12.433  11.865
32255SOL     OW98661   4.439   8.127   0.232
32255SOL    HW198662   4.437   8.063   0.303
32255SOL    HW298663   4.384   8.199   0.264
32256SOL     OW98664   8.968   1.347   4.884
32256SOL    HW198665   9.029   1.330   4.813
32256SOL    HW298666   9.011   1.311   4.962
32257SOL     OW98667   2.375   2.265   1.835
32257SOL    HW198668   2.419   2.329   1.779
32257SOL    HW298669   2.336   2.318   1.905
32258SOL     OW98670  13.059   2.889   3.751
32258SOL    HW198671  13.065   2.928   3.664
32258SOL    HW298672  13.040   2.797   3.734
32259SOL     OW98673   8.324   3.647  12.321
32259SOL    HW198674   8.293   3.730  12.283
32259SOL    HW298675   8.416   3.664  12.343
32260SOL     OW98676   2.410   4.369   2.305
32260SOL    HW198677   2.398   4.355   2.211
32260SOL    HW298678   2.322   4.387   2.338
32261SOL     OW98679   2.870   1.917   1.368
32261SOL    HW198680   2.859   1.986   1.303
32261SOL    HW298681   2.875   1.964   1.452
32262SOL     OW98682   6.254   9.143  12.976
32262SOL    HW198683   6.207   9.171  12.897
32262SOL    HW298684   6.187   9.107  13.033
32263SOL     OW98685   3.385   5.453   4.550
32263SOL    HW198686   3.327   5.457   4.626
32263SOL    HW298687   3.401   5.359   4.538
32264SOL     OW98688   5.506  10.331   5.144
32264SOL    HW198689   5.435  10.295   5.091
32264SOL    HW298690   5.466  10.405   5.189
32265SOL     OW98691   3.427   8.063  10.974
32265SOL    HW198692   3.448   7.970  10.977
32265SOL    HW298693   3.475   8.095  10.898
32266SOL     OW98694   4.371   7.019  12.133
32266SOL    HW198695   4.320   7.053  12.206
32266SOL    HW298696   4.314   7.029  12.057
32267SOL     OW98697   5.302   8.669  12.992
32267SOL    HW198698   5.364   8.705  13.055
32267SOL    HW298699   5.327   8.577  12.983
32268SOL     OW98700  10.131   9.218   9.934
32268SOL    HW198701  10.154   9.158  10.005
32268SOL    HW298702  10.202   9.209   9.871
32269SOL     OW98703   0.692   1.373  13.765
32269SOL    HW198704   0.639   1.409  13.694
32269SOL    HW298705   0.727   1.291  13.730
32270SOL     OW98706  10.138   6.292   5.328
32270SOL    HW198707  10.046   6.314   5.311
32270SOL    HW298708  10.184   6.376   5.319
32271SOL     OW98709   6.487   5.877  13.931
32271SOL    HW198710   6.408   5.835  13.895
32271SOL    HW298711   6.511   5.821  14.005
32272SOL     OW98712   1.588   4.989   9.325
32272SOL    HW198713   1.602   5.021   9.236
32272SOL    HW298714   1.604   5.065   9.381
32273SOL     OW98715  12.873   3.489   2.000
32273SOL    HW198716  12.846   3.451   2.084
32273SOL    HW298717  12.816   3.565   1.989
32274SOL     OW98718  11.387  13.269   8.342
32274SOL    HW198719  11.383  13.256   8.247
32274SOL    HW298720  11.403  13.363   8.352
32275SOL     OW98721   1.895   6.672   3.371
32275SOL    HW198722   1.834   6.685   3.444
32275SOL    HW298723   1.974   6.638   3.413
32276SOL     OW98724   6.026   5.222  10.712
32276SOL    HW198725   6.066   5.170  10.641
32276SOL    HW298726   5.945   5.175  10.733
32277SOL     OW98727   7.527   0.543  13.107
32277SOL    HW198728   7.481   0.460  13.113
32277SOL    HW298729   7.619   0.520  13.114
32278SOL     OW98730  10.193  14.162   0.780
32278SOL    HW198731  10.144  14.147   0.861
32278SOL    HW298732  10.223  14.252   0.786
32279SOL     OW98733   3.326   5.045   8.505
32279SOL    HW198734   3.289   4.962   8.477
32279SOL    HW298735   3.419   5.039   8.482
32280SOL     OW98736  14.540   3.559   0.661
32280SOL    HW198737  14.603   3.494   0.688
32280SOL    HW298738  14.512   3.602   0.742
32281SOL     OW98739   5.534  12.117   7.800
32281SOL    HW198740   5.598  12.047   7.805
32281SOL    HW298741   5.467  12.084   7.740
32282SOL     OW98742   7.819   2.459  11.434
32282SOL    HW198743   7.839   2.421  11.519
32282SOL    HW298744   7.885   2.423  11.375
32283SOL     OW98745  12.366  10.503   5.903
32283SOL    HW198746  12.285  10.520   5.853
32283SOL    HW298747  12.354  10.550   5.985
32284SOL     OW98748   4.945   1.502  14.211
32284SOL    HW198749   4.951   1.595  14.189
32284SOL    HW298750   4.853   1.480  14.199
32285SOL     OW98751  13.514   6.157   0.270
32285SOL    HW198752  13.439   6.209   0.299
32285SOL    HW298753  13.548   6.118   0.350
32286SOL     OW98754   0.995  10.784   0.921
32286SOL    HW198755   0.922  10.821   0.871
32286SOL    HW298756   1.072  10.803   0.868
32287SOL     OW98757   3.073   0.911  10.347
32287SOL    HW198758   3.105   0.958  10.424
32287SOL    HW298759   3.139   0.928  10.280
32288SOL     OW98760   6.311  12.250   0.768
32288SOL    HW198761   6.404  12.272   0.774
32288SOL    HW298762   6.307  12.182   0.701
32289SOL     OW98763   8.856  13.459   2.117
32289SOL    HW198764   8.931  13.501   2.159
32289SOL    HW298765   8.812  13.412   2.188
32290SOL     OW98766   6.375   3.727   4.896
32290SOL    HW198767   6.293   3.699   4.858
32290SOL    HW298768   6.365   3.822   4.909
32291SOL     OW98769   6.780   0.594   4.670
32291SOL    HW198770   6.698   0.545   4.668
32291SOL    HW298771   6.816   0.583   4.582
32292SOL     OW98772  11.880  10.878   3.505
32292SOL    HW198773  11.918  10.906   3.589
32292SOL    HW298774  11.792  10.916   3.505
32293SOL     OW98775   6.855   9.191   6.532
32293SOL    HW198776   6.897   9.236   6.459
32293SOL    HW298777   6.767   9.228   6.536
32294SOL     OW98778   6.102   0.230   5.055
32294SOL    HW198779   6.070   0.305   5.005
32294SOL    HW298780   6.197   0.237   5.051
32295SOL     OW98781   2.540   4.686   8.119
32295SOL    HW198782   2.561   4.650   8.033
32295SOL    HW298783   2.466   4.745   8.103
32296SOL     OW98784  12.785   4.313   4.279
32296SOL    HW198785  12.692   4.302   4.257
32296SOL    HW298786  12.795   4.407   4.295
32297SOL     OW98787  14.472   9.974   5.826
32297SOL    HW198788  14.385   9.935   5.821
32297SOL    HW298789  14.522   9.914   5.881
32298SOL     OW98790   4.951   9.551  12.115
32298SOL    HW198791   4.924   9.491  12.045
32298SOL    HW298792   4.925   9.638  12.084
32299SOL     OW98793   1.544   1.563  11.870
32299SOL    HW198794   1.507   1.648  11.892
32299SOL    HW298795   1.614   1.549  11.934
32300SOL     OW98796   4.877   0.133   8.011
32300SOL    HW198797   4.882   0.124   8.106
32300SOL    HW298798   4.967   0.121   7.980
32301SOL     OW98799   6.112   7.780  12.730
32301SOL    HW198800   6.062   7.856  12.761
32301SOL    HW298801   6.201   7.796  12.761
32302SOL     OW98802  10.793  11.745   1.242
32302SOL    HW198803  10.734  11.793   1.184
32302SOL    HW298804  10.881  11.776   1.218
32303SOL     OW98805   9.896   0.914  11.429
32303SOL    HW198806   9.807   0.931  11.400
32303SOL    HW298807   9.910   0.821  11.410
32304SOL     OW98808   3.604   4.727   6.138
32304SOL    HW198809   3.549   4.663   6.092
32304SOL    HW298810   3.693   4.695   6.125
32305SOL     OW98811   4.898   9.871   0.510
32305SOL    HW198812   4.988   9.847   0.533
32305SOL    HW298813   4.865   9.797   0.460
32306SOL     OW98814  14.670   4.390   0.193
32306SOL    HW198815  14.760   4.360   0.183
32306SOL    HW298816  14.675   4.461   0.256
32307SOL     OW98817   3.481   9.446  12.362
32307SOL    HW198818   3.478   9.428  12.268
32307SOL    HW298819   3.427   9.524  12.373
32308SOL     OW98820  14.019   0.867   6.681
32308SOL    HW198821  13.943   0.855   6.739
32308SOL    HW298822  13.999   0.813   6.605
32309SOL     OW98823   1.509   5.660   9.554
32309SOL    HW198824   1.546   5.714   9.623
32309SOL    HW298825   1.522   5.712   9.474
32310SOL     OW98826  10.408   2.273  13.093
32310SOL    HW198827  10.351   2.223  13.034
32310SOL    HW298828  10.357   2.286  13.172
32311SOL     OW98829   3.184  12.096  13.713
32311SOL    HW198830   3.169  12.191  13.719
32311SOL    HW298831   3.156  12.073  13.625
32312SOL     OW98832  14.493   7.286   2.991
32312SOL    HW198833  14.425   7.325   3.047
32312SOL    HW298834  14.459   7.200   2.967
32313SOL     OW98835  10.479   6.737   6.759
32313SOL    HW198836  10.514   6.810   6.708
32313SOL    HW298837  10.391   6.766   6.785
32314SOL     OW98838   3.757   8.182   1.772
32314SOL    HW198839   3.710   8.108   1.734
32314SOL    HW298840   3.704   8.258   1.749
32315SOL     OW98841   9.196   7.634   1.702
32315SOL    HW198842   9.289   7.612   1.715
32315SOL    HW298843   9.159   7.637   1.790
32316SOL     OW98844   2.358  14.702   5.499
32316SOL    HW198845   2.383  14.656   5.419
32316SOL    HW298846   2.359  14.635   5.567
32317SOL     OW98847  13.310  13.515   1.404
32317SOL    HW198848  13.273  13.563   1.478
32317SOL    HW298849  13.248  13.444   1.388
32318SOL     OW98850   3.589   1.658   7.446
32318SOL    HW198851   3.646   1.703   7.509
32318SOL    HW298852   3.601   1.708   7.365
32319SOL     OW98853   9.366   3.838  11.301
32319SOL    HW198854   9.336   3.778  11.369
32319SOL    HW298855   9.393   3.781  11.229
32320SOL     OW98856  11.545   1.208  10.481
32320SOL    HW198857  11.477   1.154  10.440
32320SOL    HW298858  11.520   1.298  10.461
32321SOL     OW98859  11.198   9.776  11.568
32321SOL    HW198860  11.152   9.860  11.566
32321SOL    HW298861  11.129   9.711  11.578
32322SOL     OW98862   4.596  11.086   1.949
32322SOL    HW198863   4.565  11.026   2.016
32322SOL    HW298864   4.680  11.049   1.920
32323SOL     OW98865  11.773   4.145  13.298
32323SOL    HW198866  11.750   4.238  13.304
32323SOL    HW298867  11.776   4.127  13.204
32324SOL     OW98868   6.098   0.296   8.908
32324SOL    HW198869   6.005   0.318   8.901
32324SOL    HW298870   6.142   0.355   8.848
32325SOL     OW98871   5.280   9.098  11.074
32325SOL    HW198872   5.356   9.106  11.132
32325SOL    HW298873   5.280   9.006  11.048
32326SOL     OW98874   1.738  13.038  12.340
32326SOL    HW198875   1.727  12.964  12.281
32326SOL    HW298876   1.832  13.038  12.361
32327SOL     OW98877   8.113   0.629   6.560
32327SOL    HW198878   8.119   0.647   6.466
32327SOL    HW298879   8.112   0.534   6.567
32328SOL     OW98880   0.119   4.922   1.475
32328SOL    HW198881   0.033   4.919   1.433
32328SOL    HW298882   0.180   4.897   1.406
32329SOL     OW98883   8.800   4.845  11.851
32329SOL    HW198884   8.828   4.936  11.857
32329SOL    HW298885   8.835   4.803  11.929
32330SOL     OW98886   0.989   8.049   4.807
32330SOL    HW198887   0.894   8.056   4.793
32330SOL    HW298888   1.021   8.007   4.727
32331SOL     OW98889   1.910   4.265  14.701
32331SOL    HW198890   1.844   4.233  14.639
32331SOL    HW298891   1.992   4.266  14.652
32332SOL     OW98892  11.840   4.479   9.587
32332SOL    HW198893  11.825   4.432   9.669
32332SOL    HW298894  11.780   4.438   9.525
32333SOL     OW98895   8.036  11.111   1.822
32333SOL    HW198896   7.959  11.111   1.764
32333SOL    HW298897   8.000  11.093   1.909
32334SOL     OW98898  11.578   5.750  11.759
32334SOL    HW198899  11.537   5.676  11.804
32334SOL    HW298900  11.667   5.721  11.742
32335SOL     OW98901   8.759   6.597   4.533
32335SOL    HW198902   8.783   6.669   4.591
32335SOL    HW298903   8.665   6.607   4.519
32336SOL     OW98904   8.425   5.029   1.418
32336SOL    HW198905   8.347   5.076   1.447
32336SOL    HW298906   8.498   5.075   1.460
32337SOL     OW98907   7.783   7.979   6.296
32337SOL    HW198908   7.735   8.060   6.315
32337SOL    HW298909   7.833   7.961   6.376
32338SOL     OW98910   7.443  12.968   5.438
32338SOL    HW198911   7.368  13.005   5.392
32338SOL    HW298912   7.448  12.877   5.408
32339SOL     OW98913   2.774   3.463   2.587
32339SOL    HW198914   2.782   3.524   2.660
32339SOL    HW298915   2.757   3.519   2.511
32340SOL     OW98916   9.836   1.738   6.544
32340SOL    HW198917   9.755   1.704   6.584
32340SOL    HW298918   9.808   1.766   6.456
32341SOL     OW98919   7.286  14.033   3.957
32341SOL    HW198920   7.252  13.977   4.026
32341SOL    HW298921   7.217  14.097   3.941
32342SOL     OW98922  14.566   8.844  12.092
32342SOL    HW198923  14.515   8.783  12.145
32342SOL    HW298924  14.653   8.843  12.132
32343SOL     OW98925   9.813  11.502   8.613
32343SOL    HW198926   9.857  11.481   8.696
32343SOL    HW298927   9.721  11.482   8.628
32344SOL     OW98928   5.828   3.123   8.068
32344SOL    HW198929   5.908   3.122   8.121
32344SOL    HW298930   5.850   3.177   7.993
32345SOL     OW98931   4.939   5.693  10.705
32345SOL    HW198932   4.881   5.655  10.771
32345SOL    HW298933   5.002   5.623  10.685
32346SOL     OW98934  10.010   6.281   3.638
32346SOL    HW198935   9.981   6.193   3.613
32346SOL    HW298936  10.062   6.311   3.564
32347SOL     OW98937   6.288   1.989   4.345
32347SOL    HW198938   6.268   1.896   4.349
32347SOL    HW298939   6.276   2.020   4.435
32348SOL     OW98940   1.664   7.708  14.215
32348SOL    HW198941   1.702   7.662  14.290
32348SOL    HW298942   1.679   7.649  14.141
32349SOL     OW98943   3.762   2.572   2.154
32349SOL    HW198944   3.766   2.667   2.163
32349SOL    HW298945   3.671   2.554   2.131
32350SOL     OW98946  14.704  11.993   9.496
32350SOL    HW198947  14.772  12.060   9.506
32350SOL    HW298948  14.743  11.927   9.440
32351SOL     OW98949   7.275   3.815   5.594
32351SOL    HW198950   7.307   3.725   5.603
32351SOL    HW298951   7.181   3.805   5.580
32352SOL     OW98952   0.326   6.657   7.471
32352SOL    HW198953   0.391   6.672   7.403
32352SOL    HW298954   0.242   6.674   7.428
32353SOL     OW98955  14.430  11.988  11.566
32353SOL    HW198956  14.436  12.079  11.595
32353SOL    HW298957  14.407  11.939  11.644
32354SOL     OW98958   4.839  14.265  13.003
32354SOL    HW198959   4.796  14.232  13.082
32354SOL    HW298960   4.898  14.194  12.977
32355SOL     OW98961  14.810   8.819  10.351
32355SOL    HW198962   0.022   8.807  10.322
32355SOL    HW298963  14.784   8.905  10.316
32356SOL     OW98964  12.957   9.507  13.461
32356SOL    HW198965  12.993   9.428  13.422
32356SOL    HW298966  13.028   9.541  13.516
32357SOL     OW98967   3.349  10.709  13.987
32357SOL    HW198968   3.426  10.765  13.997
32357SOL    HW298969   3.382  10.620  13.996
32358SOL     OW98970   5.426   9.060  10.506
32358SOL    HW198971   5.484   9.007  10.560
32358SOL    HW298972   5.481   9.092  10.435
32359SOL     OW98973  12.031   8.999  10.450
32359SOL    HW198974  12.054   9.087  10.478
32359SOL    HW298975  11.945   8.984  10.490
32360SOL     OW98976   6.525  13.244  12.705
32360SOL    HW198977   6.608  13.220  12.665
32360SOL    HW298978   6.547  13.272  12.793
32361SOL     OW98979  10.909  11.975  12.782
32361SOL    HW198980  10.835  12.014  12.829
32361SOL    HW298981  10.876  11.890  12.752
32362SOL     OW98982   1.006   7.514   8.981
32362SOL    HW198983   0.979   7.441   9.038
32362SOL    HW298984   1.052   7.574   9.040
32363SOL     OW98985   6.181   4.097   4.439
32363SOL    HW198986   6.177   4.152   4.517
32363SOL    HW298987   6.240   4.143   4.379
32364SOL     OW98988   9.601   6.316   5.343
32364SOL    HW198989   9.506   6.303   5.335
32364SOL    HW298990   9.611   6.371   5.420
32365SOL     OW98991   6.855  11.413   8.118
32365SOL    HW198992   6.819  11.501   8.120
32365SOL    HW298993   6.811  11.370   8.044
32366SOL     OW98994  11.543   3.351  10.308
32366SOL    HW198995  11.500   3.265  10.306
32366SOL    HW298996  11.619   3.340  10.251
32367SOL     OW98997  12.641   8.360  11.012
32367SOL    HW198998  12.639   8.355  11.107
32367SOL    HW298999  12.555   8.329  10.985
32368SOL     OW99000   4.957   5.284   2.549
32368SOL    HW199001   4.876   5.238   2.525
32368SOL    HW299002   5.027   5.230   2.513
32369SOL     OW99003   1.602   7.069   8.453
32369SOL    HW199004   1.587   7.118   8.372
32369SOL    HW299005   1.602   6.977   8.427
32370SOL     OW99006  11.352   7.493   9.784
32370SOL    HW199007  11.445   7.494   9.763
32370SOL    HW299008  11.309   7.526   9.704
32371SOL     OW99009   1.067   4.521   6.970
32371SOL    HW199010   1.037   4.441   7.015
32371SOL    HW299011   0.996   4.542   6.909
32372SOL     OW99012   0.994   6.671   0.130
32372SOL    HW199013   0.962   6.589   0.166
32372SOL    HW299014   1.065   6.697   0.189
32373SOL     OW99015  13.804   5.903   3.629
32373SOL    HW199016  13.827   5.928   3.719
32373SOL    HW299017  13.887   5.892   3.585
32374SOL     OW99018  14.332   8.110  14.673
32374SOL    HW199019  14.315   8.067  14.757
32374SOL    HW299020  14.421   8.145  14.683
32375SOL     OW99021   3.854   6.565   9.433
32375SOL    HW199022   3.875   6.481   9.393
32375SOL    HW299023   3.779   6.597   9.384
32376SOL     OW99024  10.986   3.810   4.360
32376SOL    HW199025  10.993   3.900   4.391
32376SOL    HW299026  11.032   3.810   4.276
32377SOL     OW99027   5.378   0.351  13.653
32377SOL    HW199028   5.341   0.322  13.736
32377SOL    HW299029   5.354   0.283  13.591
32378SOL     OW99030   5.264   9.090   6.227
32378SOL    HW199031   5.323   9.015   6.230
32378SOL    HW299032   5.322   9.165   6.210
32379SOL     OW99033   1.643   7.497   5.590
32379SOL    HW199034   1.636   7.551   5.669
32379SOL    HW299035   1.698   7.549   5.531
32380SOL     OW99036   3.437   8.219   9.872
32380SOL    HW199037   3.405   8.128   9.876
32380SOL    HW299038   3.496   8.227   9.947
32381SOL     OW99039  14.224   6.951   2.394
32381SOL    HW199040  14.183   6.900   2.324
32381SOL    HW299041  14.151   6.994   2.439
32382SOL     OW99042   0.706  14.601   5.042
32382SOL    HW199043   0.617  14.595   5.076
32382SOL    HW299044   0.729  14.512   5.017
32383SOL     OW99045   5.694   0.187  12.016
32383SOL    HW199046   5.717   0.093  12.018
32383SOL    HW299047   5.713   0.213  11.926
32384SOL     OW99048   5.786  13.615  12.985
32384SOL    HW199049   5.872  13.613  13.026
32384SOL    HW299050   5.738  13.682  13.033
32385SOL     OW99051   7.403   8.914  14.110
32385SOL    HW199052   7.390   8.829  14.152
32385SOL    HW299053   7.417   8.975  14.182
32386SOL     OW99054   2.855  14.626   7.006
32386SOL    HW199055   2.820  14.676   7.080
32386SOL    HW299056   2.911  14.560   7.046
32387SOL     OW99057   1.728  10.633   8.722
32387SOL    HW199058   1.794  10.617   8.656
32387SOL    HW299059   1.777  10.656   8.801
32388SOL     OW99060   2.912   3.908   6.562
32388SOL    HW199061   2.971   3.969   6.605
32388SOL    HW299062   2.917   3.828   6.614
32389SOL     OW99063  12.255  12.251   8.638
32389SOL    HW199064  12.228  12.170   8.681
32389SOL    HW299065  12.212  12.320   8.689
32390SOL     OW99066   6.602   0.842   2.302
32390SOL    HW199067   6.672   0.875   2.359
32390SOL    HW299068   6.585   0.753   2.335
32391SOL     OW99069   2.280  13.001   3.297
32391SOL    HW199070   2.368  12.997   3.334
32391SOL    HW299071   2.276  12.929   3.235
32392SOL     OW99072   1.355   7.138  10.398
32392SOL    HW199073   1.343   7.208  10.334
32392SOL    HW299074   1.381   7.062  10.346
32393SOL     OW99075  12.253   4.740   2.794
32393SOL    HW199076  12.257   4.726   2.700
32393SOL    HW299077  12.277   4.656   2.832
32394SOL     OW99078   6.558  11.893   4.015
32394SOL    HW199079   6.492  11.961   4.034
32394SOL    HW299080   6.506  11.814   3.998
32395SOL     OW99081  12.299   0.945   2.123
32395SOL    HW199082  12.212   0.972   2.092
32395SOL    HW299083  12.283   0.907   2.210
32396SOL     OW99084   0.003  14.836  11.637
32396SOL    HW199085  14.792  14.870  11.654
32396SOL    HW299086   0.009  14.757  11.690
32397SOL     OW99087  12.425   5.161  13.467
32397SOL    HW199088  12.405   5.108  13.389
32397SOL    HW299089  12.426   5.251  13.435
32398SOL     OW99090   3.711  10.814   0.001
32398SOL    HW199091   3.680  10.758  14.807
32398SOL    HW299092   3.790  10.856  14.844
32399SOL     OW99093   7.193  11.623   4.638
32399SOL    HW199094   7.230  11.619   4.726
32399SOL    HW299095   7.184  11.532   4.611
32400SOL     OW99096   2.977  11.816   4.625
32400SOL    HW199097   3.016  11.801   4.711
32400SOL    HW299098   2.883  11.800   4.638
32401SOL     OW99099   6.454  11.093  13.031
32401SOL    HW199100   6.532  11.038  13.037
32401SOL    HW299101   6.462  11.135  12.945
32402SOL     OW99102   3.859   0.553   4.108
32402SOL    HW199103   3.937   0.501   4.128
32402SOL    HW299104   3.879   0.640   4.142
32403SOL     OW99105   4.035  13.379   4.221
32403SOL    HW199106   3.989  13.438   4.279
32403SOL    HW299107   3.999  13.397   4.134
32404SOL     OW99108   6.649   2.631  11.834
32404SOL    HW199109   6.586   2.681  11.782
32404SOL    HW299110   6.625   2.648  11.925
32405SOL     OW99111   3.052  14.017  10.841
32405SOL    HW199112   3.000  14.016  10.761
32405SOL    HW299113   3.142  14.002  10.812
32406SOL     OW99114   3.846   7.150   4.390
32406SOL    HW199115   3.797   7.195   4.322
32406SOL    HW299116   3.861   7.062   4.355
32407SOL     OW99117  12.289   9.362   6.689
32407SOL    HW199118  12.265   9.292   6.750
32407SOL    HW299119  12.208   9.380   6.641
32408SOL     OW99120   4.765   5.444   6.301
32408SOL    HW199121   4.697   5.484   6.355
32408SOL    HW299122   4.738   5.352   6.293
32409SOL     OW99123   8.548   3.643   6.169
32409SOL    HW199124   8.610   3.571   6.184
32409SOL    HW299125   8.588   3.718   6.213
32410SOL     OW99126  10.031  14.545  14.297
32410SOL    HW199127  10.012  14.580  14.210
32410SOL    HW299128  10.014  14.619  14.357
32411SOL     OW99129   3.994   6.512   7.504
32411SOL    HW199130   4.031   6.451   7.568
32411SOL    HW299131   3.950   6.456   7.440
32412SOL     OW99132   5.783   3.227   3.798
32412SOL    HW199133   5.717   3.162   3.822
32412SOL    HW299134   5.758   3.305   3.847
32413SOL     OW99135   5.310  13.639   5.408
32413SOL    HW199136   5.253  13.565   5.383
32413SOL    HW299137   5.393  13.622   5.363
32414SOL     OW99138   6.322  11.735  14.623
32414SOL    HW199139   6.376  11.657  14.636
32414SOL    HW299140   6.353  11.772  14.540
32415SOL     OW99141   5.690  14.067   5.298
32415SOL    HW199142   5.698  14.154   5.258
32415SOL    HW299143   5.597  14.046   5.290
32416SOL     OW99144   4.924  14.649   7.501
32416SOL    HW199145   4.956  14.571   7.456
32416SOL    HW299146   4.841  14.670   7.459
32417SOL     OW99147   4.718  12.982  10.678
32417SOL    HW199148   4.630  12.945  10.690
32417SOL    HW299149   4.731  12.981  10.583
32418SOL     OW99150   8.455   4.269   6.505
32418SOL    HW199151   8.433   4.296   6.416
32418SOL    HW299152   8.407   4.329   6.562
32419SOL     OW99153   9.121   4.548  14.679
32419SOL    HW199154   9.072   4.523  14.758
32419SOL    HW299155   9.213   4.536  14.704
32420SOL     OW99156   7.215   1.986  14.832
32420SOL    HW199157   7.258   2.003   0.038
32420SOL    HW299158   7.133   2.036  14.836
32421SOL     OW99159   0.561   6.706   1.293
32421SOL    HW199160   0.471   6.738   1.285
32421SOL    HW299161   0.599   6.758   1.365
32422SOL     OW99162   3.219  11.477   3.468
32422SOL    HW199163   3.221  11.561   3.514
32422SOL    HW299164   3.299  11.476   3.415
32423SOL     OW99165  11.959   6.073   8.993
32423SOL    HW199166  11.934   6.136   9.061
32423SOL    HW299167  11.955   6.123   8.911
32424SOL     OW99168   1.165   4.259   6.132
32424SOL    HW199169   1.107   4.226   6.200
32424SOL    HW299170   1.150   4.201   6.057
32425SOL     OW99171   6.605   3.665   6.220
32425SOL    HW199172   6.628   3.671   6.128
32425SOL    HW299173   6.689   3.667   6.266
32426SOL     OW99174   8.788   7.014  13.602
32426SOL    HW199175   8.718   7.074  13.628
32426SOL    HW299176   8.858   7.029  13.666
32427SOL     OW99177   2.764  13.962   7.089
32427SOL    HW199178   2.749  13.920   7.174
32427SOL    HW299179   2.762  14.056   7.108
32428SOL     OW99180   1.432   0.939  10.400
32428SOL    HW199181   1.472   0.982  10.324
32428SOL    HW299182   1.506   0.906  10.450
32429SOL     OW99183   8.799   3.638   2.765
32429SOL    HW199184   8.852   3.574   2.812
32429SOL    HW299185   8.769   3.699   2.833
32430SOL     OW99186   8.949   0.992  14.529
32430SOL    HW199187   8.972   0.989  14.436
32430SOL    HW299188   8.868   1.043  14.532
32431SOL     OW99189   1.829  10.413   7.954
32431SOL    HW199190   1.854  10.358   7.879
32431SOL    HW299191   1.771  10.480   7.918
32432SOL     OW99192  11.815   0.668   7.193
32432SOL    HW199193  11.793   0.640   7.105
32432SOL    HW299194  11.904   0.703   7.186
32433SOL     OW99195   7.530  14.136  11.164
32433SOL    HW199196   7.593  14.181  11.220
32433SOL    HW299197   7.545  14.172  11.077
32434SOL     OW99198  13.312   4.228  11.577
32434SOL    HW199199  13.395   4.214  11.623
32434SOL    HW299200  13.306   4.155  11.515
32435SOL     OW99201   0.930   6.906   6.209
32435SOL    HW199202   0.891   6.968   6.270
32435SOL    HW299203   0.911   6.941   6.122
32436SOL     OW99204   7.398  11.892  14.305
32436SOL    HW199205   7.403  11.910  14.398
32436SOL    HW299206   7.374  11.800  14.299
32437SOL     OW99207  11.521   8.948   7.952
32437SOL    HW199208  11.611   8.961   7.982
32437SOL    HW299209  11.473   8.920   8.029
32438SOL     OW99210   8.395   3.858   8.992
32438SOL    HW199211   8.342   3.799   8.939
32438SOL    HW299212   8.476   3.869   8.942
32439SOL     OW99213   3.007   5.718  13.212
32439SOL    HW199214   3.065   5.675  13.150
32439SOL    HW299215   2.926   5.734  13.163
32440SOL     OW99216   1.620   2.110  14.400
32440SOL    HW199217   1.647   2.022  14.428
32440SOL    HW299218   1.573   2.096  14.318
32441SOL     OW99219   8.458   9.125   1.137
32441SOL    HW199220   8.547   9.097   1.116
32441SOL    HW299221   8.470   9.204   1.190
32442SOL     OW99222   5.703  11.074   6.689
32442SOL    HW199223   5.777  11.125   6.658
32442SOL    HW299224   5.692  11.100   6.780
32443SOL     OW99225   7.685   3.925   7.734
32443SOL    HW199226   7.711   3.986   7.803
32443SOL    HW299227   7.672   3.980   7.656
32444SOL     OW99228  13.652   7.171  13.041
32444SOL    HW199229  13.738   7.176  13.083
32444SOL    HW299230  13.636   7.078  13.030
32445SOL     OW99231   2.908   1.198  14.243
32445SOL    HW199232   2.870   1.286  14.239
32445SOL    HW299233   2.834   1.139  14.233
32446SOL     OW99234   6.578  13.493   3.224
32446SOL    HW199235   6.656  13.454   3.185
32446SOL    HW299236   6.592  13.587   3.216
32447SOL     OW99237   6.174   2.680   8.919
32447SOL    HW199238   6.247   2.740   8.932
32447SOL    HW299239   6.109   2.708   8.983
32448SOL     OW99240  14.562  13.561   8.111
32448SOL    HW199241  14.656  13.572   8.095
32448SOL    HW299242  14.540  13.634   8.169
32449SOL     OW99243   6.110  13.450   9.840
32449SOL    HW199244   6.176  13.414   9.781
32449SOL    HW299245   6.034  13.394   9.828
32450SOL     OW99246   0.084   8.038   1.107
32450SOL    HW199247   0.149   8.007   1.170
32450SOL    HW299248   0.130   8.103   1.054
32451SOL     OW99249   8.660   0.124   0.202
32451SOL    HW199250   8.729   0.067   0.238
32451SOL    HW299251   8.605   0.065   0.151
32452SOL     OW99252   7.241   5.793   8.408
32452SOL    HW199253   7.333   5.789   8.433
32452SOL    HW299254   7.195   5.750   8.479
32453SOL     OW99255   2.243   6.511  13.454
32453SOL    HW199256   2.334   6.540  13.447
32453SOL    HW299257   2.243   6.452  13.530
32454SOL     OW99258   5.282   4.753  13.822
32454SOL    HW199259   5.367   4.793  13.840
32454SOL    HW299260   5.302   4.684  13.759
32455SOL     OW99261   1.801   1.670   3.439
32455SOL    HW199262   1.733   1.653   3.374
32455SOL    HW299263   1.755   1.664   3.523
32456SOL     OW99264   5.736   8.818   6.793
32456SOL    HW199265   5.688   8.736   6.785
32456SOL    HW299266   5.788   8.809   6.872
32457SOL     OW99267  14.672  10.702   9.003
32457SOL    HW199268  14.699  10.766   8.937
32457SOL    HW299269  14.585  10.732   9.030
32458SOL     OW99270   5.524   6.344   7.238
32458SOL    HW199271   5.615   6.332   7.264
32458SOL    HW299272   5.473   6.320   7.315
32459SOL     OW99273   3.456   3.056   0.790
32459SOL    HW199274   3.406   3.132   0.760
32459SOL    HW299275   3.539   3.062   0.743
32460SOL     OW99276   6.257   0.073   5.554
32460SOL    HW199277   6.313   0.131   5.502
32460SOL    HW299278   6.306  14.869   5.560
32461SOL     OW99279   5.287   6.676   5.845
32461SOL    HW199280   5.338   6.741   5.893
32461SOL    HW299281   5.196   6.694   5.868
32462SOL     OW99282   1.529   5.655   3.589
32462SOL    HW199283   1.584   5.725   3.554
32462SOL    HW299284   1.492   5.691   3.669
32463SOL     OW99285  11.251  12.310  11.218
32463SOL    HW199286  11.274  12.264  11.299
32463SOL    HW299287  11.260  12.243  11.149
32464SOL     OW99288  14.536  10.489  10.973
32464SOL    HW199289  14.630  10.483  10.984
32464SOL    HW299290  14.501  10.420  11.029
32465SOL     OW99291   6.607   0.217   2.493
32465SOL    HW199292   6.612   0.147   2.558
32465SOL    HW299293   6.693   0.258   2.496
32466SOL     OW99294   6.636   4.880   2.643
32466SOL    HW199295   6.710   4.825   2.616
32466SOL    HW299296   6.614   4.931   2.565
32467SOL     OW99297   0.785   2.092  14.607
32467SOL    HW199298   0.714   2.109  14.546
32467SOL    HW299299   0.864   2.091  14.553
32468SOL     OW99300   2.815   4.244   8.900
32468SOL    HW199301   2.813   4.205   8.813
32468SOL    HW299302   2.731   4.290   8.907
32469SOL     OW99303   1.516   8.686   1.860
32469SOL    HW199304   1.557   8.683   1.946
32469SOL    HW299305   1.515   8.595   1.830
32470SOL     OW99306  11.192  14.620   5.788
32470SOL    HW199307  11.158  14.554   5.849
32470SOL    HW299308  11.286  14.601   5.783
32471SOL     OW99309   8.098  12.369  13.671
32471SOL    HW199310   8.135  12.354  13.584
32471SOL    HW299311   8.004  12.355  13.660
32472SOL     OW99312   7.007  13.495   6.771
32472SOL    HW199313   7.057  13.474   6.850
32472SOL    HW299314   6.930  13.542   6.803
32473SOL     OW99315   3.323  14.325  12.731
32473SOL    HW199316   3.377  14.384  12.679
32473SOL    HW299317   3.241  14.373  12.743
32474SOL     OW99318   2.620   1.112   2.816
32474SOL    HW199319   2.644   1.020   2.809
32474SOL    HW299320   2.592   1.123   2.907
32475SOL     OW99321  10.173   1.169   9.044
32475SOL    HW199322  10.236   1.109   9.005
32475SOL    HW299323  10.106   1.112   9.083
32476SOL     OW99324  10.613  12.547   1.342
32476SOL    HW199325  10.531  12.533   1.295
32476SOL    HW299326  10.669  12.473   1.316
32477SOL     OW99327   9.122   3.368   8.821
32477SOL    HW199328   9.190   3.434   8.835
32477SOL    HW299329   9.064   3.407   8.756
32478SOL     OW99330   1.998   1.305  12.708
32478SOL    HW199331   2.030   1.290  12.797
32478SOL    HW299332   2.036   1.389  12.683
32479SOL     OW99333   7.854   9.904  14.573
32479SOL    HW199334   7.812   9.966  14.512
32479SOL    HW299335   7.941   9.890  14.536
32480SOL     OW99336  11.217   5.319  11.715
32480SOL    HW199337  11.152   5.304  11.784
32480SOL    HW299338  11.176   5.288  11.635
32481SOL     OW99339   2.086   8.655   7.519
32481SOL    HW199340   2.103   8.741   7.481
32481SOL    HW299341   1.990   8.650   7.525
32482SOL     OW99342   1.488   2.971  10.214
32482SOL    HW199343   1.432   2.894  10.220
32482SOL    HW299344   1.451   3.033  10.278
32483SOL     OW99345   1.979   9.425   9.862
32483SOL    HW199346   1.892   9.385   9.867
32483SOL    HW299347   1.974   9.500   9.922
32484SOL     OW99348   9.722  10.744  11.611
32484SOL    HW199349   9.671  10.679  11.563
32484SOL    HW299350   9.813  10.720  11.594
32485SOL     OW99351  14.534   3.286   1.586
32485SOL    HW199352  14.452   3.315   1.625
32485SOL    HW299353  14.598   3.292   1.656
32486SOL     OW99354   7.430   7.054   7.319
32486SOL    HW199355   7.374   7.131   7.333
32486SOL    HW299356   7.467   7.036   7.405
32487SOL     OW99357   3.823  14.549   8.975
32487SOL    HW199358   3.762  14.623   8.973
32487SOL    HW299359   3.906  14.589   9.001
32488SOL     OW99360   9.477   4.237   2.804
32488SOL    HW199361   9.459   4.237   2.898
32488SOL    HW299362   9.432   4.159   2.771
32489SOL     OW99363   6.845  10.062  12.848
32489SOL    HW199364   6.814   9.984  12.803
32489SOL    HW299365   6.815  10.051  12.939
32490SOL     OW99366   5.413   8.855   0.613
32490SOL    HW199367   5.374   8.851   0.525
32490SOL    HW299368   5.494   8.905   0.601
32491SOL     OW99369   3.448  13.610   9.484
32491SOL    HW199370   3.543  13.621   9.476
32491SOL    HW299371   3.412  13.693   9.454
32492SOL     OW99372   3.683   2.204   9.010
32492SOL    HW199373   3.752   2.217   8.944
32492SOL    HW299374   3.655   2.292   9.032
32493SOL     OW99375   1.043  14.644   9.448
32493SOL    HW199376   1.002  14.557   9.449
32493SOL    HW299377   1.039  14.673   9.539
32494SOL     OW99378   1.689   8.813  13.587
32494SOL    HW199379   1.746   8.739  13.566
32494SOL    HW299380   1.661   8.797  13.677
32495SOL     OW99381  13.980   2.657  11.726
32495SOL    HW199382  13.985   2.635  11.820
32495SOL    HW299383  14.038   2.732  11.716
32496SOL     OW99384   9.094   3.215   6.535
32496SOL    HW199385   9.071   3.223   6.442
32496SOL    HW299386   9.113   3.304   6.563
32497SOL     OW99387  14.248  12.251   1.679
32497SOL    HW199388  14.167  12.224   1.722
32497SOL    HW299389  14.281  12.171   1.638
32498SOL     OW99390  14.397   2.285   1.536
32498SOL    HW199391  14.444   2.289   1.453
32498SOL    HW299392  14.456   2.239   1.595
32499SOL     OW99393  11.843   4.769   4.942
32499SOL    HW199394  11.805   4.804   4.861
32499SOL    HW299395  11.858   4.677   4.923
32500SOL     OW99396   6.306  13.997  12.216
32500SOL    HW199397   6.308  13.948  12.133
32500SOL    HW299398   6.213  14.002  12.239
32501SOL     OW99399   9.237   3.219  11.804
32501SOL    HW199400   9.144   3.209  11.781
32501SOL    HW299401   9.266   3.130  11.822
32502SOL     OW99402  10.219   1.275   6.053
32502SOL    HW199403  10.301   1.235   6.022
32502SOL    HW299404  10.170   1.294   5.973
32503SOL     OW99405   7.532   1.202   6.727
32503SOL    HW199406   7.467   1.254   6.774
32503SOL    HW299407   7.613   1.213   6.778
32504SOL     OW99408   7.752  11.345  10.456
32504SOL    HW199409   7.808  11.268  10.444
32504SOL    HW299410   7.755  11.389  10.371
32505SOL     OW99411   1.173   1.293   0.426
32505SOL    HW199412   1.119   1.372   0.418
32505SOL    HW299413   1.118   1.229   0.470
32506SOL     OW99414  12.393   2.626   2.819
32506SOL    HW199415  12.301   2.614   2.843
32506SOL    HW299416  12.392   2.635   2.724
32507SOL     OW99417  13.889   8.563   1.625
32507SOL    HW199418  13.806   8.519   1.606
32507SOL    HW299419  13.924   8.586   1.539
32508SOL     OW99420  13.018  13.018   4.192
32508SOL    HW199421  12.937  13.031   4.242
32508SOL    HW299422  13.082  12.988   4.257
32509SOL     OW99423  10.343   9.538   9.871
32509SOL    HW199424  10.347   9.499   9.958
32509SOL    HW299425  10.341   9.463   9.811
32510SOL     OW99426   7.057   8.159   7.695
32510SOL    HW199427   7.017   8.208   7.767
32510SOL    HW299428   6.982   8.123   7.647
32511SOL     OW99429   3.349   9.958   2.654
32511SOL    HW199430   3.379  10.048   2.667
32511SOL    HW299431   3.355   9.918   2.741
32512SOL     OW99432  11.836  12.088  13.078
32512SOL    HW199433  11.877  12.156  13.133
32512SOL    HW299434  11.781  12.137  13.017
32513SOL     OW99435   4.599   6.124   7.767
32513SOL    HW199436   4.630   6.173   7.691
32513SOL    HW299437   4.600   6.187   7.839
32514SOL     OW99438  14.779   2.285  11.307
32514SOL    HW199439  14.808   2.362  11.259
32514SOL    HW299440  14.695   2.262  11.266
32515SOL     OW99441   5.022  10.681  14.191
32515SOL    HW199442   4.927  10.695  14.188
32515SOL    HW299443   5.049  10.682  14.099
32516SOL     OW99444  14.830   2.079   1.217
32516SOL    HW199445  14.850   1.986   1.204
32516SOL    HW299446  14.875   2.103   1.298
32517SOL     OW99447   9.187   2.652  11.043
32517SOL    HW199448   9.227   2.730  11.004
32517SOL    HW299449   9.204   2.660  11.137
32518SOL     OW99450   3.195   6.400  13.200
32518SOL    HW199451   3.189   6.322  13.256
32518SOL    HW299452   3.261   6.455  13.242
32519SOL     OW99453  14.113   8.974  10.666
32519SOL    HW199454  14.198   8.961  10.624
32519SOL    HW299455  14.134   9.020  10.747
32520SOL     OW99456   9.647   5.495   1.025
32520SOL    HW199457   9.709   5.548   1.076
32520SOL    HW299458   9.590   5.455   1.091
32521SOL     OW99459   6.340   2.019   2.389
32521SOL    HW199460   6.292   2.050   2.312
32521SOL    HW299461   6.414   2.080   2.396
32522SOL     OW99462   1.731   3.443   9.821
32522SOL    HW199463   1.719   3.537   9.810
32522SOL    HW299464   1.733   3.408   9.732
32523SOL     OW99465   1.664   7.187   2.897
32523SOL    HW199466   1.702   7.258   2.949
32523SOL    HW299467   1.739   7.143   2.857
32524SOL     OW99468   8.858  14.814  13.888
32524SOL    HW199469   8.848  14.851  13.800
32524SOL    HW299470   8.776  14.833  13.932
32525SOL     OW99471   5.375   3.927   5.731
32525SOL    HW199472   5.406   3.839   5.749
32525SOL    HW299473   5.359   3.928   5.637
32526SOL     OW99474   1.598   0.273  12.377
32526SOL    HW199475   1.522   0.217  12.361
32526SOL    HW299476   1.659   0.218  12.425
32527SOL     OW99477   0.959  12.050   1.935
32527SOL    HW199478   1.011  12.126   1.906
32527SOL    HW299479   0.965  11.988   1.862
32528SOL     OW99480   4.519  10.224   3.084
32528SOL    HW199481   4.604  10.199   3.121
32528SOL    HW299482   4.455  10.183   3.142
32529SOL     OW99483   4.314   4.953   4.624
32529SOL    HW199484   4.305   4.892   4.551
32529SOL    HW299485   4.278   4.907   4.699
32530SOL     OW99486  11.321   1.914   1.229
32530SOL    HW199487  11.294   1.863   1.152
32530SOL    HW299488  11.255   1.894   1.295
32531SOL     OW99489   4.480   4.719   0.124
32531SOL    HW199490   4.575   4.707   0.128
32531SOL    HW299491   4.462   4.792   0.183
32532SOL     OW99492   5.885   9.424   2.255
32532SOL    HW199493   5.922   9.383   2.176
32532SOL    HW299494   5.872   9.351   2.316
32533SOL     OW99495   4.561   4.940   8.560
32533SOL    HW199496   4.519   4.857   8.535
32533SOL    HW299497   4.560   4.992   8.480
32534SOL     OW99498   9.332   5.433  10.667
32534SOL    HW199499   9.274   5.509  10.672
32534SOL    HW299500   9.348   5.408  10.758
32535SOL     OW99501   6.328   9.497   5.693
32535SOL    HW199502   6.294   9.407   5.692
32535SOL    HW299503   6.417   9.489   5.658
32536SOL     OW99504   8.878  12.711  11.685
32536SOL    HW199505   8.945  12.650  11.653
32536SOL    HW299506   8.816  12.719  11.613
32537SOL     OW99507   4.826   6.676  13.106
32537SOL    HW199508   4.851   6.684  13.014
32537SOL    HW299509   4.901   6.633  13.147
32538SOL     OW99510   3.620  10.848   2.622
32538SOL    HW199511   3.675  10.926   2.627
32538SOL    HW299512   3.535  10.875   2.656
32539SOL     OW99513  11.631   4.391   2.992
32539SOL    HW199514  11.618   4.307   3.036
32539SOL    HW299515  11.672   4.447   3.058
32540SOL     OW99516  11.909  11.927  13.525
32540SOL    HW199517  11.907  11.900  13.433
32540SOL    HW299518  11.825  11.898  13.561
32541SOL     OW99519   3.480   5.361   8.083
32541SOL    HW199520   3.536   5.283   8.088
32541SOL    HW299521   3.532   5.424   8.032
32542SOL     OW99522   6.281  13.408   1.848
32542SOL    HW199523   6.257  13.363   1.929
32542SOL    HW299524   6.265  13.343   1.779
32543SOL     OW99525  13.050  11.275   7.906
32543SOL    HW199526  13.120  11.334   7.878
32543SOL    HW299527  13.002  11.324   7.974
32544SOL     OW99528  14.389  10.132   4.716
32544SOL    HW199529  14.365  10.169   4.631
32544SOL    HW299530  14.485  10.135   4.717
32545SOL     OW99531   2.058  10.396   4.650
32545SOL    HW199532   2.026  10.364   4.734
32545SOL    HW299533   1.981  10.398   4.594
32546SOL     OW99534   9.071   6.948   5.085
32546SOL    HW199535   9.075   6.852   5.082
32546SOL    HW299536   9.081   6.975   4.994
32547SOL     OW99537   1.222  14.691  11.898
32547SOL    HW199538   1.144  14.746  11.912
32547SOL    HW299539   1.206  14.649  11.813
32548SOL     OW99540   5.622   7.778   7.966
32548SOL    HW199541   5.696   7.721   7.985
32548SOL    HW299542   5.662   7.860   7.936
32549SOL     OW99543  11.240   7.322   2.868
32549SOL    HW199544  11.188   7.347   2.791
32549SOL    HW299545  11.298   7.396   2.883
32550SOL     OW99546  10.895   3.200  10.386
32550SOL    HW199547  10.886   3.263  10.315
32550SOL    HW299548  10.942   3.126  10.347
32551SOL     OW99549   5.763   0.717  13.476
32551SOL    HW199550   5.826   0.730  13.405
32551SOL    HW299551   5.750   0.622  13.480
32552SOL     OW99552   9.220   6.314   3.549
32552SOL    HW199553   9.201   6.264   3.469
32552SOL    HW299554   9.187   6.402   3.531
32553SOL     OW99555   5.470  14.383  10.397
32553SOL    HW199556   5.386  14.424  10.417
32553SOL    HW299557   5.466  14.299  10.442
32554SOL     OW99558   0.822  13.145   3.543
32554SOL    HW199559   0.907  13.175   3.512
32554SOL    HW299560   0.820  13.051   3.523
32555SOL     OW99561   3.778   4.274  12.560
32555SOL    HW199562   3.839   4.218  12.513
32555SOL    HW299563   3.830   4.313  12.630
32556SOL     OW99564  12.293  13.311   8.498
32556SOL    HW199565  12.348  13.369   8.551
32556SOL    HW299566  12.213  13.361   8.483
32557SOL     OW99567   4.077   4.871   1.446
32557SOL    HW199568   4.040   4.802   1.390
32557SOL    HW299569   4.095   4.827   1.529
32558SOL     OW99570  10.428   4.703   6.925
32558SOL    HW199571  10.485   4.643   6.877
32558SOL    HW299572  10.458   4.790   6.900
32559SOL     OW99573  10.187  13.071  10.226
32559SOL    HW199574  10.270  13.035  10.197
32559SOL    HW299575  10.128  12.995  10.228
32560SOL     OW99576  13.800   7.531   8.345
32560SOL    HW199577  13.752   7.458   8.384
32560SOL    HW299578  13.771   7.531   8.253
32561SOL     OW99579   0.614  12.502   7.241
32561SOL    HW199580   0.595  12.410   7.220
32561SOL    HW299581   0.600  12.508   7.336
32562SOL     OW99582  14.731  13.193   8.121
32562SOL    HW199583  14.656  13.152   8.164
32562SOL    HW299584  14.692  13.244   8.049
32563SOL     OW99585   2.619   6.988   1.086
32563SOL    HW199586   2.691   6.947   1.038
32563SOL    HW299587   2.540   6.960   1.040
32564SOL     OW99588   7.175  14.448   9.003
32564SOL    HW199589   7.183  14.415   8.914
32564SOL    HW299590   7.080  14.449   9.020
32565SOL     OW99591   6.671  14.117  10.263
32565SOL    HW199592   6.751  14.087  10.308
32565SOL    HW299593   6.630  14.037  10.231
32566SOL     OW99594  12.819   2.452   4.058
32566SOL    HW199595  12.754   2.394   4.097
32566SOL    HW299596  12.768   2.520   4.013
32567SOL     OW99597  10.355  10.335   9.695
32567SOL    HW199598  10.368  10.246   9.661
32567SOL    HW299599  10.259  10.345   9.696
32568SOL     OW99600  11.647   4.775   4.422
32568SOL    HW199601  11.559   4.775   4.383
32568SOL    HW299602  11.697   4.837   4.369
32569SOL     OW99603   4.720   7.680  11.127
32569SOL    HW199604   4.809   7.644  11.116
32569SOL    HW299605   4.734   7.768  11.163
32570SOL     OW99606   1.729   0.118   8.433
32570SOL    HW199607   1.782   0.078   8.364
32570SOL    HW299608   1.788   0.182   8.474
32571SOL     OW99609  14.813  12.603  10.301
32571SOL    HW199610  14.767  12.522  10.278
32571SOL    HW299611  14.805  12.609  10.396
32572SOL     OW99612  14.092   9.551   9.191
32572SOL    HW199613  14.177   9.509   9.199
32572SOL    HW299614  14.029   9.479   9.197
32573SOL     OW99615   1.872   1.579   1.207
32573SOL    HW199616   1.919   1.599   1.288
32573SOL    HW299617   1.893   1.487   1.190
32574SOL     OW99618  13.141   6.370  10.363
32574SOL    HW199619  13.112   6.361  10.272
32574SOL    HW299620  13.228   6.329  10.364
32575SOL     OW99621  11.913   9.297  14.846
32575SOL    HW199622  11.870   9.367  14.798
32575SOL    HW299623  11.972   9.342   0.029
32576SOL     OW99624  12.727  14.223   0.952
32576SOL    HW199625  12.678  14.155   0.999
32576SOL    HW299626  12.735  14.190   0.862
32577SOL     OW99627   5.795   6.211   3.617
32577SOL    HW199628   5.828   6.163   3.541
32577SOL    HW299629   5.872   6.252   3.655
32578SOL     OW99630   2.596  11.705  13.910
32578SOL    HW199631   2.652  11.782  13.917
32578SOL    HW299632   2.511  11.734  13.942
32579SOL     OW99633   0.764  12.905   7.323
32579SOL    HW199634   0.720  12.830   7.363
32579SOL    HW299635   0.841  12.920   7.379
32580SOL     OW99636  12.732  12.844   4.009
32580SOL    HW199637  12.753  12.752   4.026
32580SOL    HW299638  12.641  12.853   4.038
32581SOL     OW99639   2.813   9.084  10.085
32581SOL    HW199640   2.893   9.063  10.038
32581SOL    HW299641   2.745   9.035  10.041
32582SOL     OW99642   1.358   7.190   3.897
32582SOL    HW199643   1.425   7.126   3.872
32582SOL    HW299644   1.396   7.235   3.973
32583SOL     OW99645   1.314   6.717  11.174
32583SOL    HW199646   1.273   6.646  11.224
32583SOL    HW299647   1.255   6.733  11.102
32584SOL     OW99648   5.656  14.106  12.182
32584SOL    HW199649   5.630  14.176  12.242
32584SOL    HW299650   5.665  14.029  12.237
32585SOL     OW99651  14.062   4.300   8.747
32585SOL    HW199652  14.094   4.379   8.791
32585SOL    HW299653  13.975   4.285   8.783
32586SOL     OW99654   8.446   7.144   9.119
32586SOL    HW199655   8.505   7.199   9.170
32586SOL    HW299656   8.358   7.178   9.139
32587SOL     OW99657  11.112   8.083   0.950
32587SOL    HW199658  11.093   8.154   1.012
32587SOL    HW299659  11.105   8.003   1.001
32588SOL     OW99660  11.125  12.967   8.915
32588SOL    HW199661  11.134  13.062   8.907
32588SOL    HW299662  11.040  12.954   8.956
32589SOL     OW99663   1.670   7.712   1.964
32589SOL    HW199664   1.736   7.781   1.974
32589SOL    HW299665   1.612   7.724   2.039
32590SOL     OW99666   6.686   7.285   0.285
32590SOL    HW199667   6.701   7.297   0.379
32590SOL    HW299668   6.596   7.316   0.271
32591SOL     OW99669   2.154   4.159   6.455
32591SOL    HW199670   2.201   4.077   6.474
32591SOL    HW299671   2.169   4.175   6.362
32592SOL     OW99672  11.309   1.822   8.898
32592SOL    HW199673  11.313   1.754   8.965
32592SOL    HW299674  11.400   1.851   8.889
32593SOL     OW99675  13.514  10.029  13.086
32593SOL    HW199676  13.524  10.112  13.040
32593SOL    HW299677  13.511  10.052  13.179
32594SOL     OW99678   4.469   3.493   5.541
32594SOL    HW199679   4.562   3.510   5.529
32594SOL    HW299680   4.454   3.506   5.635
32595SOL     OW99681  14.442  13.688   3.599
32595SOL    HW199682  14.417  13.764   3.547
32595SOL    HW299683  14.525  13.659   3.561
32596SOL     OW99684   0.182   1.746  11.438
32596SOL    HW199685   0.156   1.715  11.524
32596SOL    HW299686   0.174   1.841  11.443
32597SOL     OW99687  10.687  13.835   0.996
32597SOL    HW199688  10.759  13.772   0.986
32597SOL    HW299689  10.677  13.873   0.909
32598SOL     OW99690   0.170   1.054   4.183
32598SOL    HW199691   0.152   0.981   4.243
32598SOL    HW299692   0.206   1.013   4.105
32599SOL     OW99693   6.887  14.162  12.173
32599SOL    HW199694   6.793  14.169  12.190
32599SOL    HW299695   6.919  14.100  12.239
32600SOL     OW99696   7.914  13.638   3.802
32600SOL    HW199697   7.850  13.597   3.860
32600SOL    HW299698   7.967  13.693   3.859
32601SOL     OW99699   0.142   1.498   1.197
32601SOL    HW199700   0.145   1.424   1.136
32601SOL    HW299701   0.062   1.545   1.173
32602SOL     OW99702   2.120   7.395  12.962
32602SOL    HW199703   2.100   7.476  12.915
32602SOL    HW299704   2.213   7.402  12.985
32603SOL     OW99705  13.754   9.794  10.247
32603SOL    HW199706  13.734   9.883  10.278
32603SOL    HW299707  13.844   9.799  10.216
32604SOL     OW99708   0.137   6.653   9.241
32604SOL    HW199709   0.094   6.603   9.311
32604SOL    HW299710   0.104   6.742   9.251
32605SOL     OW99711  14.768   0.405  13.418
32605SOL    HW199712  14.806   0.321  13.393
32605SOL    HW299713  14.694   0.416  13.358
32606SOL     OW99714   5.557   5.287  11.287
32606SOL    HW199715   5.584   5.283  11.196
32606SOL    HW299716   5.639   5.284  11.337
32607SOL     OW99717   5.247   5.374   4.593
32607SOL    HW199718   5.314   5.393   4.527
32607SOL    HW299719   5.199   5.300   4.557
32608SOL     OW99720   6.258   6.982   9.444
32608SOL    HW199721   6.172   7.019   9.464
32608SOL    HW299722   6.319   7.055   9.456
32609SOL     OW99723   1.044   8.776   6.386
32609SOL    HW199724   1.134   8.807   6.392
32609SOL    HW299725   0.995   8.851   6.352
32610SOL     OW99726   0.211   6.235  14.374
32610SOL    HW199727   0.215   6.159  14.432
32610SOL    HW299728   0.288   6.226  14.317
32611SOL     OW99729  12.294  11.089  14.187
32611SOL    HW199730  12.388  11.070  14.187
32611SOL    HW299731  12.252  11.004  14.184
32612SOL     OW99732   2.763  12.829  14.399
32612SOL    HW199733   2.743  12.922  14.387
32612SOL    HW299734   2.855  12.827  14.427
32613SOL     OW99735   8.672  14.307   6.165
32613SOL    HW199736   8.743  14.278   6.222
32613SOL    HW299737   8.659  14.399   6.188
32614SOL     OW99738   8.210   5.557   2.837
32614SOL    HW199739   8.238   5.466   2.835
32614SOL    HW299740   8.290   5.607   2.818
32615SOL     OW99741  11.458   8.080  12.418
32615SOL    HW199742  11.493   8.166  12.396
32615SOL    HW299743  11.405   8.056  12.342
32616SOL     OW99744   6.338   2.262  12.700
32616SOL    HW199745   6.245   2.241  12.699
32616SOL    HW299746   6.341   2.357  12.708
32617SOL     OW99747   0.779   6.072   8.474
32617SOL    HW199748   0.773   6.129   8.550
32617SOL    HW299749   0.870   6.081   8.444
32618SOL     OW99750   3.336  13.699  12.864
32618SOL    HW199751   3.312  13.653  12.944
32618SOL    HW299752   3.301  13.787  12.876
32619SOL     OW99753  13.872   3.231   9.351
32619SOL    HW199754  13.842   3.227   9.260
32619SOL    HW299755  13.914   3.316   9.360
32620SOL     OW99756   7.933   3.209   1.697
32620SOL    HW199757   7.924   3.118   1.669
32620SOL    HW299758   7.899   3.209   1.787
32621SOL     OW99759  10.421   2.638   1.875
32621SOL    HW199760  10.516   2.636   1.884
32621SOL    HW299761  10.389   2.608   1.960
32622SOL     OW99762   3.660   2.279   3.285
32622SOL    HW199763   3.602   2.273   3.208
32622SOL    HW299764   3.725   2.210   3.271
32623SOL     OW99765   9.524  11.748   4.188
32623SOL    HW199766   9.586  11.693   4.236
32623SOL    HW299767   9.445  11.695   4.181
32624SOL     OW99768   5.571  13.847  14.238
32624SOL    HW199769   5.648  13.807  14.279
32624SOL    HW299770   5.563  13.802  14.154
32625SOL     OW99771   9.242   6.354  12.680
32625SOL    HW199772   9.259   6.440  12.641
32625SOL    HW299773   9.238   6.371  12.774
32626SOL     OW99774  14.699   5.768   8.963
32626SOL    HW199775  14.724   5.680   8.991
32626SOL    HW299776  14.723   5.772   8.870
32627SOL     OW99777   5.930   4.028   7.003
32627SOL    HW199778   5.867   4.027   6.931
32627SOL    HW299779   5.986   4.103   6.985
32628SOL     OW99780   8.290  12.554   1.527
32628SOL    HW199781   8.381  12.563   1.497
32628SOL    HW299782   8.287  12.466   1.565
32629SOL     OW99783   9.950   5.510   4.076
32629SOL    HW199784  10.002   5.431   4.058
32629SOL    HW299785   9.859   5.481   4.067
32630SOL     OW99786  10.132   8.242   3.550
32630SOL    HW199787  10.120   8.297   3.473
32630SOL    HW299788  10.104   8.155   3.522
32631SOL     OW99789   8.884   5.070  14.231
32631SOL    HW199790   8.863   5.126  14.306
32631SOL    HW299791   8.970   5.034  14.251
32632SOL     OW99792   8.787   8.953   7.700
32632SOL    HW199793   8.872   8.908   7.695
32632SOL    HW299794   8.803   9.038   7.658
32633SOL     OW99795   9.358   9.896  11.256
32633SOL    HW199796   9.350   9.807  11.222
32633SOL    HW299797   9.396   9.885  11.344
32634SOL     OW99798   6.185  14.237   9.791
32634SOL    HW199799   6.157  14.298   9.723
32634SOL    HW299800   6.121  14.248   9.862
32635SOL     OW99801  10.153   2.305  12.798
32635SOL    HW199802  10.072   2.325  12.751
32635SOL    HW299803  10.175   2.216  12.771
32636SOL     OW99804   9.228   6.816   0.463
32636SOL    HW199805   9.259   6.747   0.404
32636SOL    HW299806   9.169   6.869   0.409
32637SOL     OW99807   0.945   2.926   2.584
32637SOL    HW199808   0.973   2.961   2.500
32637SOL    HW299809   0.966   2.832   2.579
32638SOL     OW99810   7.810   0.327   3.882
32638SOL    HW199811   7.856   0.262   3.935
32638SOL    HW299812   7.765   0.383   3.945
32639SOL     OW99813   2.601  13.899   9.894
32639SOL    HW199814   2.677  13.919   9.840
32639SOL    HW299815   2.538  13.969   9.874
32640SOL     OW99816   3.332   6.787   5.788
32640SOL    HW199817   3.241   6.814   5.799
32640SOL    HW299818   3.383   6.856   5.829
32641SOL     OW99819   5.696   3.993   9.780
32641SOL    HW199820   5.676   3.955   9.694
32641SOL    HW299821   5.744   3.924   9.826
32642SOL     OW99822  14.585  13.817   4.308
32642SOL    HW199823  14.598  13.798   4.215
32642SOL    HW299824  14.665  13.862   4.335
32643SOL     OW99825  13.916   6.362   4.896
32643SOL    HW199826  13.863   6.290   4.863
32643SOL    HW299827  14.006   6.336   4.879
32644SOL     OW99828   2.210  13.630   4.457
32644SOL    HW199829   2.304  13.648   4.453
32644SOL    HW299830   2.176  13.693   4.520
32645SOL     OW99831   6.236  10.053  14.784
32645SOL    HW199832   6.169  10.073  14.719
32645SOL    HW299833   6.268   9.967  14.759
32646SOL     OW99834  12.509   0.078   1.605
32646SOL    HW199835  12.530   0.086   1.698
32646SOL    HW299836  12.450   0.003   1.601
32647SOL     OW99837  13.038   0.455  11.875
32647SOL    HW199838  13.086   0.445  11.958
32647SOL    HW299839  13.078   0.390  11.817
32648SOL     OW99840   4.652  11.392   2.376
32648SOL    HW199841   4.632  11.479   2.342
32648SOL    HW299842   4.623  11.332   2.307
32649SOL     OW99843   7.100  11.059  12.184
32649SOL    HW199844   7.174  11.086  12.128
32649SOL    HW299845   7.026  11.110  12.151
32650SOL     OW99846  12.968   6.748   7.357
32650SOL    HW199847  12.986   6.781   7.445
32650SOL    HW299848  13.030   6.794   7.301
32651SOL     OW99849   1.517  12.004   6.116
32651SOL    HW199850   1.583  12.007   6.046
32651SOL    HW299851   1.568  12.005   6.197
32652SOL     OW99852  13.931   3.849   3.371
32652SOL    HW199853  13.861   3.784   3.361
32652SOL    HW299854  13.968   3.831   3.458
32653SOL     OW99855   0.652  14.654  13.944
32653SOL    HW199856   0.666  14.570  13.986
32653SOL    HW299857   0.711  14.654  13.869
32654SOL     OW99858   9.300   5.069   2.093
32654SOL    HW199859   9.289   5.157   2.057
32654SOL    HW299860   9.222   5.056   2.148
32655SOL     OW99861   0.923   9.407   6.338
32655SOL    HW199862   0.968   9.404   6.253
32655SOL    HW299863   0.992   9.427   6.401
32656SOL     OW99864   9.251   0.223   3.753
32656SOL    HW199865   9.325   0.267   3.711
32656SOL    HW299866   9.209   0.175   3.681
32657SOL     OW99867  14.106  14.117  10.723
32657SOL    HW199868  14.182  14.135  10.779
32657SOL    HW299869  14.144  14.087  10.640
32658SOL     OW99870   5.299   1.746  10.605
32658SOL    HW199871   5.276   1.835  10.632
32658SOL    HW299872   5.245   1.730  10.528
32659SOL     OW99873   5.233   2.394   0.656
32659SOL    HW199874   5.190   2.312   0.678
32659SOL    HW299875   5.227   2.447   0.735
32660SOL     OW99876  11.814   5.942  11.589
32660SOL    HW199877  11.839   5.873  11.651
32660SOL    HW299878  11.798   6.019  11.644
32661SOL     OW99879  10.679   0.688   7.451
32661SOL    HW199880  10.744   0.741   7.496
32661SOL    HW299881  10.604   0.686   7.511
32662SOL     OW99882  14.052   6.011   1.899
32662SOL    HW199883  13.983   6.050   1.952
32662SOL    HW299884  14.084   5.938   1.951
32663SOL     OW99885   1.150   3.427  10.048
32663SOL    HW199886   1.078   3.410   9.987
32663SOL    HW299887   1.110   3.418  10.135
32664SOL     OW99888  14.039   2.764   7.545
32664SOL    HW199889  14.006   2.675   7.561
32664SOL    HW299890  14.036   2.806   7.631
32665SOL     OW99891   5.992   8.070  13.417
32665SOL    HW199892   5.983   8.058  13.322
32665SOL    HW299893   5.956   8.157  13.434
32666SOL     OW99894   2.865  10.457  11.763
32666SOL    HW199895   2.781  10.435  11.723
32666SOL    HW299896   2.910  10.373  11.773
32667SOL     OW99897   8.450  13.171   6.890
32667SOL    HW199898   8.539  13.154   6.859
32667SOL    HW299899   8.393  13.134   6.823
32668SOL     OW99900   0.970  11.366   2.931
32668SOL    HW199901   1.063  11.381   2.915
32668SOL    HW299902   0.962  11.362   3.027
32669SOL     OW99903  11.493  13.621   6.484
32669SOL    HW199904  11.504  13.671   6.404
32669SOL    HW299905  11.438  13.677   6.540
32670SOL     OW99906   2.133  14.149  10.747
32670SOL    HW199907   2.144  14.114  10.659
32670SOL    HW299908   2.220  14.142  10.787
32671SOL     OW99909   6.702   6.349   4.099
32671SOL    HW199910   6.655   6.341   4.016
32671SOL    HW299911   6.775   6.407   4.079
32672SOL     OW99912   0.934   7.536  11.266
32672SOL    HW199913   1.029   7.534  11.277
32672SOL    HW299914   0.899   7.513  11.352
32673SOL     OW99915  14.535  10.357   4.409
32673SOL    HW199916  14.578  10.272   4.399
32673SOL    HW299917  14.550  10.402   4.325
32674SOL     OW99918   6.228   8.712  12.085
32674SOL    HW199919   6.165   8.644  12.109
32674SOL    HW299920   6.260   8.686  11.998
32675SOL     OW99921  13.709  11.179   8.126
32675SOL    HW199922  13.627  11.210   8.163
32675SOL    HW299923  13.689  11.157   8.035
32676SOL     OW99924  13.629  10.639   2.866
32676SOL    HW199925  13.699  10.587   2.828
32676SOL    HW299926  13.664  10.728   2.869
32677SOL     OW99927  13.144  11.384  11.921
32677SOL    HW199928  13.131  11.476  11.897
32677SOL    HW299929  13.079  11.337  11.869
32678SOL     OW99930  11.051   7.487   0.907
32678SOL    HW199931  11.109   7.553   0.869
32678SOL    HW299932  10.977   7.482   0.846
32679SOL     OW99933   0.958  13.370  11.649
32679SOL    HW199934   0.988  13.288  11.610
32679SOL    HW299935   0.972  13.436  11.582
32680SOL     OW99936   4.570   2.108   2.501
32680SOL    HW199937   4.601   2.125   2.590
32680SOL    HW299938   4.547   2.194   2.467
32681SOL     OW99939  13.685  10.788  10.720
32681SOL    HW199940  13.606  10.755  10.677
32681SOL    HW299941  13.676  10.758  10.811
32682SOL     OW99942   0.122  12.764  13.484
32682SOL    HW199943   0.123  12.854  13.451
32682SOL    HW299944   0.040  12.727  13.450
32683SOL     OW99945   4.133  14.781   7.264
32683SOL    HW199946   4.097  14.821   7.342
32683SOL    HW299947   4.220  14.821   7.254
32684SOL     OW99948   7.480   5.072  13.495
32684SOL    HW199949   7.523   5.147  13.456
32684SOL    HW299950   7.411   5.109  13.550
32685SOL     OW99951  13.484   3.926   9.978
32685SOL    HW199952  13.499   3.909  10.071
32685SOL    HW299953  13.517   3.848   9.933
32686SOL     OW99954   1.038   3.709   5.635
32686SOL    HW199955   1.110   3.755   5.677
32686SOL    HW299956   1.070   3.620   5.622
32687SOL     OW99957  10.401   0.418   0.392
32687SOL    HW199958  10.493   0.431   0.369
32687SOL    HW299959  10.400   0.414   0.487
32688SOL     OW99960  13.805   5.770  12.166
32688SOL    HW199961  13.744   5.718  12.217
32688SOL    HW299962  13.770   5.859  12.171
32689SOL     OW99963   2.829  13.941   3.798
32689SOL    HW199964   2.750  13.991   3.779
32689SOL    HW299965   2.865  13.919   3.711
32690SOL     OW99966   4.230   7.875  10.700
32690SOL    HW199967   4.302   7.920  10.657
32690SOL    HW299968   4.267   7.842  10.782
32691SOL     OW99969  12.781   6.437  13.998
32691SOL    HW199970  12.777   6.436  13.902
32691SOL    HW299971  12.689   6.445  14.025
32692SOL     OW99972   1.912   1.659  10.291
32692SOL    HW199973   1.903   1.588  10.354
32692SOL    HW299974   1.859   1.731  10.327
32693SOL     OW99975   2.599   3.971   6.123
32693SOL    HW199976   2.677   3.951   6.072
32693SOL    HW299977   2.591   4.066   6.118
32694SOL     OW99978   4.276  10.933  12.627
32694SOL    HW199979   4.367  10.959  12.610
32694SOL    HW299980   4.257  10.868  12.559
32695SOL     OW99981   8.082   2.358   5.350
32695SOL    HW199982   8.098   2.405   5.432
32695SOL    HW299983   8.163   2.311   5.333
32696SOL     OW99984  12.557   4.702   9.501
32696SOL    HW199985  12.566   4.768   9.433
32696SOL    HW299986  12.490   4.737   9.561
32697SOL     OW99987   2.790   2.657  11.302
32697SOL    HW199988   2.732   2.712  11.248
32697SOL    HW299989   2.738   2.636  11.379
32698SOL     OW99990   7.498   0.078   7.591
32698SOL    HW199991   7.449   0.090   7.672
32698SOL    HW299992   7.588   0.061   7.619
32699SOL     OW99993  12.123  14.542   5.345
32699SOL    HW199994  12.174  14.492   5.409
32699SOL    HW299995  12.147  14.633   5.360
32700SOL     OW99996  13.658   7.169   5.692
32700SOL    HW199997  13.735   7.184   5.747
32700SOL    HW299998  13.642   7.075   5.699
32701SOL     OW99999  10.115   0.287  10.837
32701SOL    HW1    0  10.029   0.323  10.863
32701SOL    HW2    1  10.098   0.244  10.753
32702SOL     OW    2  11.019  11.745   0.017
32702SOL    HW1    3  11.064  11.690  14.830
32702SOL    HW2    4  11.052  11.715   0.101
32703SOL     OW    5   6.361   1.411  11.894
32703SOL    HW1    6   6.382   1.399  11.987
32703SOL    HW2    7   6.353   1.322  11.860
32704SOL     OW    8   4.197   0.602  10.240
32704SOL    HW1    9   4.118   0.655  10.251
32704SOL    HW2   10   4.237   0.599  10.327
32705SOL     OW   11   2.515   8.653   3.222
32705SOL    HW1   12   2.489   8.570   3.262
32705SOL    HW2   13   2.480   8.649   3.134
32706SOL     OW   14   9.315   0.987   3.912
32706SOL    HW1   15   9.279   0.985   3.823
32706SOL    HW2   16   9.316   0.896   3.940
32707SOL     OW   17   6.924  14.624  13.797
32707SOL    HW1   18   6.880  14.676  13.729
32707SOL    HW2   19   7.003  14.591  13.754
32708SOL     OW   20   0.287  12.617   6.502
32708SOL    HW1   21   0.359  12.604   6.564
32708SOL    HW2   22   0.330  12.632   6.418
32709SOL     OW   23  10.232   2.492   9.301
32709SOL    HW1   24  10.202   2.497   9.210
32709SOL    HW2   25  10.201   2.407   9.332
32710SOL     OW   26   9.521  12.812   8.053
32710SOL    HW1   27   9.430  12.805   8.022
32710SOL    HW2   28   9.573  12.768   7.986
32711SOL     OW   29  11.395  13.613  14.446
32711SOL    HW1   30  11.426  13.578  14.363
32711SOL    HW2   31  11.309  13.649  14.426
32712SOL     OW   32   3.476   1.530   8.252
32712SOL    HW1   33   3.566   1.563   8.254
32712SOL    HW2   34   3.485   1.436   8.236
32713SOL     OW   35   9.823  12.383   8.260
32713SOL    HW1   36   9.792  12.451   8.319
32713SOL    HW2   37   9.860  12.430   8.186
32714SOL     OW   38   2.036  10.816   3.586
32714SOL    HW1   39   2.082  10.839   3.667
32714SOL    HW2   40   1.945  10.803   3.612
32715SOL     OW   41   0.269   1.177  13.535
32715SOL    HW1   42   0.190   1.127  13.553
32715SOL    HW2   43   0.335   1.141  13.594
32716SOL     OW   44   0.877  14.487  13.503
32716SOL    HW1   45   0.829  14.493  13.421
32716SOL    HW2   46   0.956  14.437  13.480
32717SOL     OW   47   4.966   5.175   9.876
32717SOL    HW1   48   4.881   5.192   9.836
32717SOL    HW2   49   5.024   5.156   9.803
32718SOL     OW   50  11.459  14.644   9.384
32718SOL    HW1   51  11.483  14.658   9.476
32718SOL    HW2   52  11.367  14.669   9.379
32719SOL     OW   53  11.661   8.384   3.004
32719SOL    HW1   54  11.702   8.466   3.029
32719SOL    HW2   55  11.696   8.319   3.065
32720SOL     OW   56   7.988  12.722  11.129
32720SOL    HW1   57   7.982  12.717  11.034
32720SOL    HW2   58   8.050  12.654  11.153
32721SOL     OW   59  12.642  10.218  10.865
32721SOL    HW1   60  12.642  10.122  10.866
32721SOL    HW2   61  12.697  10.242  10.791
32722SOL     OW   62   2.934   0.517   9.989
32722SOL    HW1   63   2.841   0.541   9.985
32722SOL    HW2   64   2.935   0.433  10.036
32723SOL     OW   65   6.877  13.827   0.628
32723SOL    HW1   66   6.882  13.922   0.620
32723SOL    HW2   67   6.815  13.812   0.699
32724SOL     OW   68   5.313   8.527   4.899
32724SOL    HW1   69   5.369   8.523   4.976
32724SOL    HW2   70   5.317   8.618   4.870
32725SOL     OW   71   3.004   7.117  13.655
32725SOL    HW1   72   3.097   7.095  13.669
32725SOL    HW2   73   3.005   7.171  13.577
32726SOL     OW   74   9.034  14.032   9.954
32726SOL    HW1   75   8.973  14.098   9.986
32726SOL    HW2   76   9.119  14.059   9.988
32727SOL     OW   77   9.689   8.057  10.228
32727SOL    HW1   78   9.643   8.001  10.165
32727SOL    HW2   79   9.661   8.024  10.314
32728SOL     OW   80   5.617  13.977   1.467
32728SOL    HW1   81   5.647  13.926   1.392
32728SOL    HW2   82   5.534  14.016   1.438
32729SOL     OW   83   6.465  10.359   4.831
32729SOL    HW1   84   6.443  10.291   4.768
32729SOL    HW2   85   6.529  10.319   4.889
32730SOL     OW   86   1.285  10.171   8.095
32730SOL    HW1   87   1.318  10.192   8.008
32730SOL    HW2   88   1.312  10.245   8.150
32731SOL     OW   89  13.576  12.610   3.291
32731SOL    HW1   90  13.654  12.664   3.302
32731SOL    HW2   91  13.521  12.658   3.229
32732SOL     OW   92  12.423   1.674   3.235
32732SOL    HW1   93  12.397   1.584   3.251
32732SOL    HW2   94  12.497   1.689   3.293
32733SOL     OW   95   7.053   2.762  13.845
32733SOL    HW1   96   7.102   2.838  13.875
32733SOL    HW2   97   6.963   2.795  13.834
32734SOL     OW   98  12.003   8.430  12.367
32734SOL    HW1   99  11.936   8.444  12.434
32734SOL    HW2  100  12.058   8.360  12.402
32735SOL     OW  101   4.519  11.486   4.995
32735SOL    HW1  102   4.545  11.398   4.969
32735SOL    HW2  103   4.601  11.536   4.994
32736SOL     OW  104   6.027  13.938   6.690
32736SOL    HW1  105   6.063  13.852   6.666
32736SOL    HW2  106   6.085  14.001   6.647
32737SOL     OW  107  10.145   5.656   1.510
32737SOL    HW1  108  10.166   5.564   1.524
32737SOL    HW2  109  10.133   5.691   1.598
32738SOL     OW  110  13.654   7.883   2.520
32738SOL    HW1  111  13.569   7.845   2.544
32738SOL    HW2  112  13.649   7.973   2.551
32739SOL     OW  113   6.308   4.733   3.724
32739SOL    HW1  114   6.393   4.764   3.756
32739SOL    HW2  115   6.246   4.800   3.751
32740SOL     OW  116   6.576   7.891   1.796
32740SOL    HW1  117   6.648   7.947   1.769
32740SOL    HW2  118   6.520   7.883   1.719
32741SOL     OW  119   5.918   4.017  14.203
32741SOL    HW1  120   5.833   4.001  14.163
32741SOL    HW2  121   5.971   3.941  14.178
32742SOL     OW  122  10.803   4.215  11.537
32742SOL    HW1  123  10.762   4.229  11.623
32742SOL    HW2  124  10.769   4.130  11.508
32743SOL     OW  125   4.378   6.825   3.845
32743SOL    HW1  126   4.423   6.831   3.929
32743SOL    HW2  127   4.425   6.756   3.797
32744SOL     OW  128   4.386   3.544  13.737
32744SOL    HW1  129   4.449   3.499  13.793
32744SOL    HW2  130   4.408   3.637  13.748
32745SOL     OW  131  12.999   0.873   2.020
32745SOL    HW1  132  12.960   0.942   2.074
32745SOL    HW2  133  13.050   0.921   1.954
32746SOL     OW  134   5.664  12.349   0.154
32746SOL    HW1  135   5.678  12.284   0.086
32746SOL    HW2  136   5.632  12.299   0.230
32747SOL     OW  137   2.706  12.384   7.872
32747SOL    HW1  138   2.735  12.362   7.961
32747SOL    HW2  139   2.784  12.371   7.818
32748SOL     OW  140   1.122   2.750   9.549
32748SOL    HW1  141   1.048   2.757   9.609
32748SOL    HW2  142   1.123   2.659   9.521
32749SOL     OW  143   8.289   2.631   6.140
32749SOL    HW1  144   8.274   2.673   6.056
32749SOL    HW2  145   8.344   2.555   6.120
32750SOL     OW  146   0.736   0.491  11.122
32750SOL    HW1  147   0.777   0.461  11.204
32750SOL    HW2  148   0.717   0.584  11.138
32751SOL     OW  149  14.625   6.434   8.192
32751SOL    HW1  150  14.693   6.428   8.260
32751SOL    HW2  151  14.672   6.418   8.110
32752SOL     OW  152   1.001  14.419  13.887
32752SOL    HW1  153   1.089  14.388  13.864
32752SOL    HW2  154   1.011  14.458  13.974
32753SOL     OW  155   1.108  12.694   8.400
32753SOL    HW1  156   1.129  12.623   8.340
32753SOL    HW2  157   1.037  12.742   8.356
32754SOL     OW  158   7.597  12.192  14.052
32754SOL    HW1  159   7.680  12.144  14.062
32754SOL    HW2  160   7.588  12.240  14.135
32755SOL     OW  161  11.491   1.458   2.108
32755SOL    HW1  162  11.435   1.389   2.144
32755SOL    HW2  163  11.524   1.504   2.184
32756SOL     OW  164   5.354   7.410   7.767
32756SOL    HW1  165   5.440   7.443   7.744
32756SOL    HW2  166   5.344   7.434   7.860
32757SOL     OW  167   3.506   5.882   6.273
32757SOL    HW1  168   3.591   5.889   6.229
32757SOL    HW2  169   3.494   5.967   6.315
32758SOL     OW  170  14.453  11.239   7.387
32758SOL    HW1  171  14.546  11.229   7.368
32758SOL    HW2  172  14.418  11.288   7.312
32759SOL     OW  173   5.681   6.048   0.889
32759SOL    HW1  174   5.588   6.049   0.866
32759SOL    HW2  175   5.682   6.053   0.984
32760SOL     OW  176  14.169   3.118  11.815
32760SOL    HW1  177  14.209   3.169  11.886
32760SOL    HW2  178  14.085   3.161  11.798
32761SOL     OW  179   9.573   2.196   6.775
32761SOL    HW1  180   9.609   2.166   6.858
32761SOL    HW2  181   9.478   2.200   6.790
32762SOL     OW  182   6.683   1.865   7.973
32762SOL    HW1  183   6.726   1.834   8.053
32762SOL    HW2  184   6.741   1.933   7.939
32763SOL     OW  185  14.283  14.020   9.333
32763SOL    HW1  186  14.332  13.948   9.372
32763SOL    HW2  187  14.224  14.050   9.403
32764SOL     OW  188   8.635  14.358   8.528
32764SOL    HW1  189   8.562  14.372   8.589
32764SOL    HW2  190   8.681  14.282   8.563
32765SOL     OW  191  10.749  13.764   5.532
32765SOL    HW1  192  10.773  13.671   5.532
32765SOL    HW2  193  10.824  13.809   5.494
32766SOL     OW  194   7.401  10.998   7.022
32766SOL    HW1  195   7.310  10.985   6.993
32766SOL    HW2  196   7.443  10.914   7.004
32767SOL     OW  197   7.002   0.640  14.832
32767SOL    HW1  198   6.991   0.703   0.026
32767SOL    HW2  199   7.026   0.693  14.757
32768SOL     OW  200  10.849   0.174   5.338
32768SOL    HW1  201  10.897   0.177   5.256
32768SOL    HW2  202  10.815   0.084   5.343
32769SOL     OW  203  10.551  10.764   4.652
32769SOL    HW1  204  10.523  10.673   4.640
32769SOL    HW2  205  10.550  10.801   4.563
32770SOL     OW  206  12.864   9.306  11.207
32770SOL    HW1  207  12.843   9.296  11.300
32770SOL    HW2  208  12.959   9.311  11.204
32771SOL     OW  209  13.144  10.006   2.302
32771SOL    HW1  210  13.128  10.063   2.377
32771SOL    HW2  211  13.094  10.046   2.231
32772SOL     OW  212   5.695  10.793  11.538
32772SOL    HW1  213   5.686  10.858  11.608
32772SOL    HW2  214   5.672  10.710  11.579
32773SOL     OW  215   4.957   1.367   3.065
32773SOL    HW1  216   4.882   1.423   3.085
32773SOL    HW2  217   5.016   1.379   3.140
32774SOL     OW  218   3.182   9.326  12.293
32774SOL    HW1  219   3.103   9.275  12.274
32774SOL    HW2  220   3.172   9.352  12.385
32775SOL     OW  221   9.839  13.564  11.927
32775SOL    HW1  222   9.839  13.483  11.978
32775SOL    HW2  223   9.919  13.609  11.953
32776SOL     OW  224   5.378   3.270   5.117
32776SOL    HW1  225   5.416   3.331   5.181
32776SOL    HW2  226   5.315   3.323   5.068
32777SOL     OW  227  11.464   1.183   8.626
32777SOL    HW1  228  11.458   1.109   8.565
32777SOL    HW2  229  11.388   1.171   8.684
32778SOL     OW  230   9.575   2.479   9.643
32778SOL    HW1  231   9.492   2.526   9.654
32778SOL    HW2  232   9.557   2.416   9.573
32779SOL     OW  233   9.242   7.263   7.082
32779SOL    HW1  234   9.308   7.302   7.139
32779SOL    HW2  235   9.262   7.169   7.083
32780SOL     OW  236   2.868  12.712  13.569
32780SOL    HW1  237   2.862  12.803  13.598
32780SOL    HW2  238   2.918  12.668  13.638
32781SOL     OW  239   7.254   0.809   1.801
32781SOL    HW1  240   7.322   0.873   1.822
32781SOL    HW2  241   7.174   0.861   1.794
32782SOL     OW  242   2.120   2.516   5.359
32782SOL    HW1  243   2.081   2.551   5.279
32782SOL    HW2  244   2.204   2.562   5.366
32783SOL     OW  245  11.416   5.777   4.050
32783SOL    HW1  246  11.326   5.774   4.017
32783SOL    HW2  247  11.407   5.777   4.145
32784SOL     OW  248   6.379   6.402   4.983
32784SOL    HW1  249   6.432   6.331   5.019
32784SOL    HW2  250   6.291   6.387   5.019
32785SOL     OW  251  14.724  10.620  11.412
32785SOL    HW1  252  14.742  10.695  11.355
32785SOL    HW2  253  14.644  10.581  11.376
32786SOL     OW  254  11.044  10.782   6.310
32786SOL    HW1  255  11.048  10.690   6.336
32786SOL    HW2  256  11.016  10.828   6.389
32787SOL     OW  257   3.863   9.813   3.598
32787SOL    HW1  258   3.781   9.854   3.572
32787SOL    HW2  259   3.873   9.836   3.691
32788SOL     OW  260   9.588   2.518  10.230
32788SOL    HW1  261   9.546   2.558  10.153
32788SOL    HW2  262   9.680   2.542  10.222
32789SOL     OW  263   5.300   3.943   9.954
32789SOL    HW1  264   5.308   3.948   9.858
32789SOL    HW2  265   5.293   4.034   9.982
32790SOL     OW  266  13.014   6.805   6.616
32790SOL    HW1  267  13.056   6.739   6.671
32790SOL    HW2  268  13.003   6.761   6.531
32791SOL     OW  269  11.704  12.163  11.134
32791SOL    HW1  270  11.710  12.143  11.228
32791SOL    HW2  271  11.743  12.250  11.126
32792SOL     OW  272   5.958   0.850   0.407
32792SOL    HW1  273   5.879   0.797   0.409
32792SOL    HW2  274   5.928   0.938   0.385
32793SOL     OW  275   8.107  12.293  14.744
32793SOL    HW1  276   8.177  12.326  14.688
32793SOL    HW2  277   8.026  12.321  14.700
32794SOL     OW  278  10.815  11.013  13.310
32794SOL    HW1  279  10.863  10.967  13.241
32794SOL    HW2  280  10.806  10.947  13.380
32795SOL     OW  281   3.294  10.111  11.367
32795SOL    HW1  282   3.328  10.026  11.397
32795SOL    HW2  283   3.355  10.175  11.404
32796SOL     OW  284   9.603  13.982   5.308
32796SOL    HW1  285   9.579  14.074   5.305
32796SOL    HW2  286   9.581  13.949   5.221
32797SOL     OW  287   1.948   6.514   6.280
32797SOL    HW1  288   1.982   6.462   6.353
32797SOL    HW2  289   1.863   6.473   6.260
32798SOL     OW  290   1.510  12.785   1.932
32798SOL    HW1  291   1.466  12.854   1.882
32798SOL    HW2  292   1.595  12.823   1.956
32799SOL     OW  293   0.745   7.120   6.670
32799SOL    HW1  294   0.655   7.152   6.665
32799SOL    HW2  295   0.745   7.060   6.745
32800SOL     OW  296   2.117   7.449   7.042
32800SOL    HW1  297   2.211   7.434   7.052
32800SOL    HW2  298   2.077   7.367   7.070
32801SOL     OW  299   6.858   9.224  10.939
32801SOL    HW1  300   6.833   9.135  10.965
32801SOL    HW2  301   6.834   9.278  11.014
32802SOL     OW  302  12.015   2.195  13.324
32802SOL    HW1  303  12.094   2.140  13.322
32802SOL    HW2  304  11.967   2.170  13.245
32803SOL     OW  305   3.136   9.363  12.612
32803SOL    HW1  306   3.182   9.294  12.660
32803SOL    HW2  307   3.050   9.326  12.594
32804SOL     OW  308   7.761   6.110   5.034
32804SOL    HW1  309   7.762   6.195   5.079
32804SOL    HW2  310   7.853   6.083   5.032
32805SOL     OW  311   0.234  11.360   3.294
32805SOL    HW1  312   0.294  11.414   3.345
32805SOL    HW2  313   0.262  11.374   3.203
32806SOL     OW  314  12.755   2.653   5.995
32806SOL    HW1  315  12.695   2.603   5.940
32806SOL    HW2  316  12.760   2.739   5.952
32807SOL     OW  317   6.876   2.394  12.009
32807SOL    HW1  318   6.786   2.378  12.037
32807SOL    HW2  319   6.913   2.449  12.078
32808SOL     OW  320   7.090  14.570  14.519
32808SOL    HW1  321   7.152  14.564  14.446
32808SOL    HW2  322   7.145  14.576  14.597
32809SOL     OW  323   1.916   6.969   4.236
32809SOL    HW1  324   1.882   6.886   4.202
32809SOL    HW2  325   1.918   6.957   4.331
32810SOL     OW  326  13.392   3.609   9.956
32810SOL    HW1  327  13.455   3.596  10.027
32810SOL    HW2  328  13.446   3.619   9.877
32811SOL     OW  329  14.596  13.602   2.193
32811SOL    HW1  330  14.664  13.581   2.257
32811SOL    HW2  331  14.539  13.525   2.193
32812SOL     OW  332   6.009   2.253  11.232
32812SOL    HW1  333   6.052   2.170  11.253
32812SOL    HW2  334   6.072   2.299  11.176
32813SOL     OW  335   0.958   0.192   2.785
32813SOL    HW1  336   0.999   0.152   2.862
32813SOL    HW2  337   0.944   0.120   2.725
32814SOL     OW  338   6.236  10.955   5.739
32814SOL    HW1  339   6.241  10.866   5.773
32814SOL    HW2  340   6.309  10.961   5.678
32815SOL     OW  341   4.227  14.469  11.959
32815SOL    HW1  342   4.291  14.499  12.025
32815SOL    HW2  343   4.268  14.391  11.921
32816SOL     OW  344   4.696  13.219  14.377
32816SOL    HW1  345   4.772  13.195  14.429
32816SOL    HW2  346   4.722  13.201  14.287
32817SOL     OW  347   1.576   2.394   4.347
32817SOL    HW1  348   1.523   2.327   4.304
32817SOL    HW2  349   1.631   2.429   4.277
32818SOL     OW  350  11.084   1.706  13.426
32818SOL    HW1  351  11.013   1.669  13.374
32818SOL    HW2  352  11.131   1.629  13.460
32819SOL     OW  353   1.059  12.461  14.099
32819SOL    HW1  354   1.012  12.526  14.047
32819SOL    HW2  355   1.036  12.482  14.190
32820SOL     OW  356   0.117  11.631  12.757
32820SOL    HW1  357   0.036  11.669  12.792
32820SOL    HW2  358   0.154  11.700  12.702
32821SOL     OW  359   4.174   7.678  12.169
32821SOL    HW1  360   4.262   7.686  12.134
32821SOL    HW2  361   4.162   7.583  12.181
32822SOL     OW  362  11.389  14.238   3.453
32822SOL    HW1  363  11.361  14.293   3.379
32822SOL    HW2  364  11.326  14.166   3.454
32823SOL     OW  365   3.093   9.838   9.181
32823SOL    HW1  366   3.148   9.851   9.258
32823SOL    HW2  367   3.008   9.873   9.206
32824SOL     OW  368   8.160  10.951   0.092
32824SOL    HW1  369   8.248  10.913   0.085
32824SOL    HW2  370   8.171  11.040   0.058
32825SOL     OW  371   6.195   2.672   5.990
32825SOL    HW1  372   6.227   2.613   6.058
32825SOL    HW2  373   6.191   2.618   5.911
32826SOL     OW  374   8.378   5.443   3.485
32826SOL    HW1  375   8.295   5.460   3.440
32826SOL    HW2  376   8.415   5.530   3.500
32827SOL     OW  377  13.565   1.508  10.358
32827SOL    HW1  378  13.523   1.594  10.368
32827SOL    HW2  379  13.586   1.481  10.448
32828SOL     OW  380  12.981   2.763  11.683
32828SOL    HW1  381  13.054   2.811  11.644
32828SOL    HW2  382  12.909   2.826  11.685
32829SOL     OW  383  10.281   8.165   0.187
32829SOL    HW1  384  10.254   8.190   0.275
32829SOL    HW2  385  10.205   8.122   0.149
32830SOL     OW  386  11.464   6.877  14.229
32830SOL    HW1  387  11.527   6.906  14.294
32830SOL    HW2  388  11.516   6.866  14.149
32831SOL     OW  389   3.037  13.207   4.803
32831SOL    HW1  390   3.005  13.190   4.714
32831SOL    HW2  391   3.034  13.302   4.812
32832SOL     OW  392   3.957   6.310   2.691
32832SOL    HW1  393   3.934   6.245   2.758
32832SOL    HW2  394   4.051   6.300   2.679
32833SOL     OW  395   7.589   3.869   4.329
32833SOL    HW1  396   7.648   3.799   4.356
32833SOL    HW2  397   7.515   3.863   4.390
32834SOL     OW  398  11.591  12.148  12.841
32834SOL    HW1  399  11.677  12.175  12.808
32834SOL    HW2  400  11.580  12.197  12.922
32835SOL     OW  401   5.874  12.512   4.336
32835SOL    HW1  402   5.859  12.417   4.341
32835SOL    HW2  403   5.955  12.521   4.286
32836SOL     OW  404   4.847   7.705   9.290
32836SOL    HW1  405   4.796   7.673   9.216
32836SOL    HW2  406   4.803   7.785   9.318
32837SOL     OW  407  10.024  11.198   3.628
32837SOL    HW1  408  10.045  11.252   3.552
32837SOL    HW2  409   9.929  11.211   3.641
32838SOL     OW  410   9.755   2.071   8.827
32838SOL    HW1  411   9.673   2.111   8.857
32838SOL    HW2  412   9.728   2.009   8.759
32839SOL     OW  413   7.799   0.223   2.962
32839SOL    HW1  414   7.706   0.230   2.943
32839SOL    HW2  415   7.804   0.215   3.058
32840SOL     OW  416   7.684   0.385   5.168
32840SOL    HW1  417   7.741   0.335   5.226
32840SOL    HW2  418   7.607   0.328   5.155
32841SOL     OW  419   4.740   2.314   3.557
32841SOL    HW1  420   4.652   2.334   3.588
32841SOL    HW2  421   4.730   2.299   3.463
32842SOL     OW  422   0.434  11.017   2.651
32842SOL    HW1  423   0.508  10.985   2.704
32842SOL    HW2  424   0.430  11.111   2.670
32843SOL     OW  425   5.253   2.189  10.428
32843SOL    HW1  426   5.273   2.269  10.378
32843SOL    HW2  427   5.220   2.128  10.362
32844SOL     OW  428   2.395   7.587  11.462
32844SOL    HW1  429   2.366   7.586  11.553
32844SOL    HW2  430   2.413   7.495  11.442
32845SOL     OW  431   0.064   2.424   4.658
32845SOL    HW1  432   0.050   2.370   4.580
32845SOL    HW2  433  14.855   2.458   4.680
32846SOL     OW  434   5.266   5.296   0.309
32846SOL    HW1  435   5.202   5.258   0.370
32846SOL    HW2  436   5.231   5.278   0.222
32847SOL     OW  437   1.577  10.556  14.778
32847SOL    HW1  438   1.574  10.484  14.715
32847SOL    HW2  439   1.660  10.546  14.824
32848SOL     OW  440  14.549   5.933  11.962
32848SOL    HW1  441  14.520   6.017  11.996
32848SOL    HW2  442  14.541   5.941  11.867
32849SOL     OW  443   0.863   0.830   0.369
32849SOL    HW1  444   0.903   0.769   0.431
32849SOL    HW2  445   0.827   0.774   0.301
32850SOL     OW  446  12.309  10.312  11.640
32850SOL    HW1  447  12.330  10.256  11.715
32850SOL    HW2  448  12.216  10.331  11.650
32851SOL     OW  449   0.455   4.156  12.538
32851SOL    HW1  450   0.378   4.137  12.592
32851SOL    HW2  451   0.419   4.179  12.453
32852SOL     OW  452   2.670   1.729  14.606
32852SOL    HW1  453   2.638   1.643  14.631
32852SOL    HW2  454   2.766   1.720  14.607
32853SOL     OW  455   7.036   6.788   2.278
32853SOL    HW1  456   7.127   6.780   2.306
32853SOL    HW2  457   7.034   6.870   2.229
32854SOL     OW  458   4.552   2.946  14.725
32854SOL    HW1  459   4.577   3.012  14.790
32854SOL    HW2  460   4.623   2.883  14.726
32855SOL     OW  461  14.682   6.579   4.039
32855SOL    HW1  462  14.702   6.642   3.970
32855SOL    HW2  463  14.753   6.515   4.034
32856SOL     OW  464   4.542   8.653   0.835
32856SOL    HW1  465   4.546   8.616   0.923
32856SOL    HW2  466   4.482   8.596   0.787
32857SOL     OW  467  12.806   3.760   6.991
32857SOL    HW1  468  12.793   3.854   7.004
32857SOL    HW2  469  12.789   3.721   7.077
32858SOL     OW  470   8.653   3.400   6.209
32858SOL    HW1  471   8.692   3.342   6.144
32858SOL    HW2  472   8.560   3.379   6.206
32859SOL     OW  473   6.756   3.210   6.976
32859SOL    HW1  474   6.769   3.241   6.886
32859SOL    HW2  475   6.749   3.290   7.028
32860SOL     OW  476  11.524   7.105  10.946
32860SOL    HW1  477  11.517   7.185  10.998
32860SOL    HW2  478  11.491   7.036  11.004
32861SOL     OW  479   3.153   8.143  14.035
32861SOL    HW1  480   3.184   8.131  14.124
32861SOL    HW2  481   3.185   8.230  14.009
32862SOL     OW  482   5.505   2.426   3.382
32862SOL    HW1  483   5.459   2.369   3.320
32862SOL    HW2  484   5.597   2.422   3.356
32863SOL     OW  485  14.027   4.157  12.075
32863SOL    HW1  486  13.939   4.172  12.108
32863SOL    HW2  487  14.016   4.096  12.002
32864SOL     OW  488   6.481   1.909   6.415
32864SOL    HW1  489   6.555   1.959   6.380
32864SOL    HW2  490   6.515   1.821   6.426
32865SOL     OW  491   1.225  14.048   9.062
32865SOL    HW1  492   1.175  14.128   9.054
32865SOL    HW2  493   1.316  14.075   9.049
32866SOL     OW  494   1.871  14.859  10.929
32866SOL    HW1  495   1.896  14.870  10.837
32866SOL    HW2  496   1.947   0.012  10.978
32867SOL     OW  497   9.620  13.661   3.877
32867SOL    HW1  498   9.606  13.642   3.784
32867SOL    HW2  499   9.611  13.756   3.884
32868SOL     OW  500   3.837   1.088  13.659
32868SOL    HW1  501   3.819   1.024  13.727
32868SOL    HW2  502   3.886   1.040  13.592
32869SOL     OW  503   2.987   4.760   7.093
32869SOL    HW1  504   2.975   4.799   7.007
32869SOL    HW2  505   2.900   4.760   7.133
32870SOL     OW  506  11.131   4.522   1.852
32870SOL    HW1  507  11.057   4.539   1.911
32870SOL    HW2  508  11.173   4.607   1.841
32871SOL     OW  509   1.971   4.625   1.050
32871SOL    HW1  510   2.011   4.710   1.032
32871SOL    HW2  511   1.904   4.615   0.982
32872SOL     OW  512   6.712   9.641   1.158
32872SOL    HW1  513   6.747   9.675   1.076
32872SOL    HW2  514   6.757   9.691   1.226
32873SOL     OW  515   1.138  12.735  14.358
32873SOL    HW1  516   1.052  12.764  14.328
32873SOL    HW2  517   1.199  12.798  14.320
32874SOL     OW  518  12.220  10.899  11.103
32874SOL    HW1  519  12.243  10.819  11.150
32874SOL    HW2  520  12.218  10.874  11.011
32875SOL     OW  521   8.396  12.866   7.423
32875SOL    HW1  522   8.351  12.917   7.356
32875SOL    HW2  523   8.460  12.814   7.375
32876SOL     OW  524  11.164   4.342  11.161
32876SOL    HW1  525  11.106   4.303  11.227
32876SOL    HW2  526  11.129   4.310  11.078
32877SOL     OW  527   5.058  10.894   6.336
32877SOL    HW1  528   5.115  10.918   6.409
32877SOL    HW2  529   5.111  10.835   6.283
32878SOL     OW  530   2.002   6.858   8.076
32878SOL    HW1  531   2.003   6.948   8.043
32878SOL    HW2  532   1.984   6.804   7.998
32879SOL     OW  533   4.763  10.641   7.087
32879SOL    HW1  534   4.731  10.711   7.031
32879SOL    HW2  535   4.698  10.571   7.078
32880SOL     OW  536   8.384   2.732  11.165
32880SOL    HW1  537   8.305   2.686  11.195
32880SOL    HW2  538   8.353   2.789  11.094
32881SOL     OW  539  13.866   7.101   4.581
32881SOL    HW1  540  13.950   7.069   4.615
32881SOL    HW2  541  13.804   7.032   4.602
32882SOL     OW  542   2.181   2.405   3.073
32882SOL    HW1  543   2.120   2.465   3.030
32882SOL    HW2  544   2.163   2.320   3.035
32883SOL     OW  545  14.456  12.679  11.149
32883SOL    HW1  546  14.459  12.671  11.054
32883SOL    HW2  547  14.392  12.614  11.176
32884SOL     OW  548   9.152   5.370   2.660
32884SOL    HW1  549   9.150   5.277   2.681
32884SOL    HW2  550   9.073   5.406   2.700
32885SOL     OW  551   1.472  11.389   6.995
32885SOL    HW1  552   1.562  11.389   7.028
32885SOL    HW2  553   1.481  11.368   6.902
32886SOL     OW  554  14.279   7.428   8.577
32886SOL    HW1  555  14.277   7.333   8.570
32886SOL    HW2  556  14.211   7.458   8.517
32887SOL     OW  557   2.321  14.220  12.619
32887SOL    HW1  558   2.269  14.172  12.554
32887SOL    HW2  559   2.341  14.304  12.576
32888SOL     OW  560   7.393  12.598  13.019
32888SOL    HW1  561   7.371  12.505  13.014
32888SOL    HW2  562   7.471  12.606  12.963
32889SOL     OW  563   2.543   0.469   6.579
32889SOL    HW1  564   2.560   0.397   6.519
32889SOL    HW2  565   2.538   0.428   6.665
32890SOL     OW  566   6.142   6.699   5.174
32890SOL    HW1  567   6.094   6.628   5.132
32890SOL    HW2  568   6.226   6.702   5.126
32891SOL     OW  569   2.969   6.518  11.466
32891SOL    HW1  570   3.062   6.529  11.487
32891SOL    HW2  571   2.968   6.464  11.387
32892SOL     OW  572   9.225   4.273   3.907
32892SOL    HW1  573   9.315   4.240   3.910
32892SOL    HW2  574   9.227   4.353   3.959
32893SOL     OW  575   3.742  12.103   3.427
32893SOL    HW1  576   3.815  12.070   3.375
32893SOL    HW2  577   3.730  12.037   3.496
32894SOL     OW  578   1.666   3.726   9.810
32894SOL    HW1  579   1.692   3.689   9.726
32894SOL    HW2  580   1.669   3.821   9.797
32895SOL     OW  581   3.438   4.855   9.149
32895SOL    HW1  582   3.490   4.787   9.106
32895SOL    HW2  583   3.481   4.937   9.123
32896SOL     OW  584   8.401  14.129   4.275
32896SOL    HW1  585   8.385  14.209   4.226
32896SOL    HW2  586   8.316  14.087   4.282
32897SOL     OW  587   1.965  12.902   8.479
32897SOL    HW1  588   1.933  12.991   8.491
32897SOL    HW2  589   1.957  12.861   8.565
32898SOL     OW  590   0.120  12.155   6.373
32898SOL    HW1  591   0.156  12.125   6.290
32898SOL    HW2  592   0.120  12.251   6.366
32899SOL     OW  593  14.841  12.769   6.419
32899SOL    HW1  594   0.006  12.849   6.451
32899SOL    HW2  595  14.849  12.707   6.491
32900SOL     OW  596  13.856  14.785  11.252
32900SOL    HW1  597  13.762  14.796  11.260
32900SOL    HW2  598  13.867  14.722  11.181
32901SOL     OW  599   8.070  12.393  12.816
32901SOL    HW1  600   7.997  12.367  12.872
32901SOL    HW2  601   8.129  12.318  12.817
32902SOL     OW  602   3.607   1.314  10.571
32902SOL    HW1  603   3.674   1.283  10.631
32902SOL    HW2  604   3.647   1.306  10.484
32903SOL     OW  605  10.290   1.456   3.697
32903SOL    HW1  606  10.215   1.397   3.683
32903SOL    HW2  607  10.364   1.409   3.660
32904SOL     OW  608   0.403  10.601   3.128
32904SOL    HW1  609   0.342  10.604   3.202
32904SOL    HW2  610   0.415  10.693   3.104
32905SOL     OW  611  11.169   0.797   9.401
32905SOL    HW1  612  11.233   0.836   9.341
32905SOL    HW2  613  11.196   0.828   9.488
32906SOL     OW  614   2.197  11.660  13.948
32906SOL    HW1  615   2.236  11.575  13.926
32906SOL    HW2  616   2.147  11.643  14.028
32907SOL     OW  617   6.747   6.700   8.477
32907SOL    HW1  618   6.838   6.727   8.463
32907SOL    HW2  619   6.698   6.745   8.408
32908SOL     OW  620   3.226   0.373   8.899
32908SOL    HW1  621   3.144   0.327   8.915
32908SOL    HW2  622   3.206   0.465   8.915
32909SOL     OW  623   7.276   4.272   0.630
32909SOL    HW1  624   7.331   4.197   0.649
32909SOL    HW2  625   7.303   4.301   0.543
32910SOL     OW  626   3.876   2.671   7.128
32910SOL    HW1  627   3.797   2.683   7.181
32910SOL    HW2  628   3.845   2.664   7.038
32911SOL     OW  629   0.318   4.934   1.249
32911SOL    HW1  630   0.413   4.933   1.240
32911SOL    HW2  631   0.286   4.929   1.158
32912SOL     OW  632   6.655   6.601   9.739
32912SOL    HW1  633   6.654   6.663   9.666
32912SOL    HW2  634   6.566   6.565   9.741
32913SOL     OW  635  11.253   6.324  11.527
32913SOL    HW1  636  11.263   6.407  11.574
32913SOL    HW2  637  11.338   6.280  11.539
32914SOL     OW  638  14.285   9.201  13.695
32914SOL    HW1  639  14.331   9.204  13.611
32914SOL    HW2  640  14.233   9.121  13.690
32915SOL     OW  641   2.718   6.014   5.566
32915SOL    HW1  642   2.776   6.085   5.595
32915SOL    HW2  643   2.670   5.990   5.645
32916SOL     OW  644   9.096   5.552  12.324
32916SOL    HW1  645   9.097   5.625  12.262
32916SOL    HW2  646   9.127   5.477  12.273
32917SOL     OW  647  11.393  12.024   7.179
32917SOL    HW1  648  11.462  12.047   7.241
32917SOL    HW2  649  11.321  12.084   7.200
32918SOL     OW  650   0.006   8.995   1.829
32918SOL    HW1  651  14.836   8.951   1.899
32918SOL    HW2  652   0.000   8.935   1.754
32919SOL     OW  653  14.726   1.025   4.303
32919SOL    HW1  654  14.659   1.071   4.254
32919SOL    HW2  655  14.808   1.066   4.276
32920SOL     OW  656   7.689   2.616   5.679
32920SOL    HW1  657   7.734   2.679   5.736
32920SOL    HW2  658   7.644   2.671   5.614
32921SOL     OW  659   0.046   2.025  13.151
32921SOL    HW1  660   0.013   2.031  13.241
32921SOL    HW2  661   0.015   1.940  13.121
32922SOL     OW  662   7.749   2.771   5.902
32922SOL    HW1  663   7.816   2.819   5.950
32922SOL    HW2  664   7.669   2.823   5.915
32923SOL     OW  665   5.587  11.764   2.497
32923SOL    HW1  666   5.529  11.698   2.458
32923SOL    HW2  667   5.630  11.806   2.422
32924SOL     OW  668  14.356   8.590  13.812
32924SOL    HW1  669  14.396   8.546  13.737
32924SOL    HW2  670  14.269   8.551  13.819
32925SOL     OW  671   0.304   6.439  10.737
32925SOL    HW1  672   0.366   6.367  10.746
32925SOL    HW2  673   0.223   6.406  10.775
32926SOL     OW  674  14.619   3.063   2.298
32926SOL    HW1  675  14.671   3.067   2.218
32926SOL    HW2  676  14.582   2.975   2.298
32927SOL     OW  677  14.803   4.643  11.956
32927SOL    HW1  678  14.767   4.683  12.035
32927SOL    HW2  679   0.020   4.659  11.962
32928SOL     OW  680   4.828   6.585  13.962
32928SOL    HW1  681   4.855   6.639  14.035
32928SOL    HW2  682   4.779   6.644  13.904
32929SOL     OW  683  10.457  11.785   3.362
32929SOL    HW1  684  10.440  11.756   3.452
32929SOL    HW2  685  10.511  11.864   3.372
32930SOL     OW  686   1.226  13.923  11.736
32930SOL    HW1  687   1.219  13.844  11.683
32930SOL    HW2  688   1.151  13.976  11.710
32931SOL     OW  689   4.898   9.178  10.345
32931SOL    HW1  690   4.992   9.163  10.349
32931SOL    HW2  691   4.879   9.187  10.252
32932SOL     OW  692   8.382   4.657  10.134
32932SOL    HW1  693   8.366   4.625  10.046
32932SOL    HW2  694   8.372   4.580  10.190
32933SOL     OW  695  10.408   0.126   0.795
32933SOL    HW1  696  10.355   0.087   0.865
32933SOL    HW2  697  10.477   0.174   0.840
32934SOL     OW  698   0.814   4.197   1.412
32934SOL    HW1  699   0.853   4.284   1.404
32934SOL    HW2  700   0.883   4.144   1.453
32935SOL     OW  701  13.965  10.041   9.861
32935SOL    HW1  702  13.966   9.958   9.812
32935SOL    HW2  703  14.058  10.062   9.873
32936SOL     OW  704   4.956   9.041   8.150
32936SOL    HW1  705   4.962   9.075   8.240
32936SOL    HW2  706   5.017   8.968   8.149
32937SOL     OW  707   5.162   4.986   3.610
32937SOL    HW1  708   5.203   5.051   3.553
32937SOL    HW2  709   5.101   5.037   3.664
32938SOL     OW  710   8.397   7.331   5.795
32938SOL    HW1  711   8.413   7.248   5.839
32938SOL    HW2  712   8.455   7.393   5.839
32939SOL     OW  713   5.121   2.883  12.711
32939SOL    HW1  714   5.113   2.974  12.739
32939SOL    HW2  715   5.038   2.842  12.738
32940SOL     OW  716  12.149   4.794   7.937
32940SOL    HW1  717  12.229   4.846   7.928
32940SOL    HW2  718  12.082   4.857   7.962
32941SOL     OW  719   3.105   0.491   4.894
32941SOL    HW1  720   3.062   0.428   4.835
32941SOL    HW2  721   3.149   0.552   4.835
32942SOL     OW  722   8.926  13.996  10.365
32942SOL    HW1  723   8.844  14.031  10.331
32942SOL    HW2  724   8.965  13.948  10.292
32943SOL     OW  725  10.922   0.042   3.769
32943SOL    HW1  726  10.961   0.122   3.803
32943SOL    HW2  727  10.917  14.861   3.844
32944SOL     OW  728  12.124   0.341  12.603
32944SOL    HW1  729  12.072   0.269  12.637
32944SOL    HW2  730  12.080   0.367  12.522
32945SOL     OW  731  13.728   4.234  10.858
32945SOL    HW1  732  13.758   4.268  10.774
32945SOL    HW2  733  13.638   4.264  10.866
32946SOL     OW  734   1.792  14.078  11.250
32946SOL    HW1  735   1.760  14.103  11.336
32946SOL    HW2  736   1.882  14.111  11.247
32947SOL     OW  737   3.523   8.429   5.933
32947SOL    HW1  738   3.499   8.504   5.987
32947SOL    HW2  739   3.532   8.356   5.994
32948SOL     OW  740   2.945  14.268  14.023
32948SOL    HW1  741   2.947  14.314  13.939
32948SOL    HW2  742   2.893  14.189  14.006
32949SOL     OW  743  11.320   4.146   6.385
32949SOL    HW1  744  11.307   4.052   6.374
32949SOL    HW2  745  11.318   4.182   6.297
32950SOL     OW  746  13.978   6.195   6.751
32950SOL    HW1  747  13.902   6.231   6.705
32950SOL    HW2  748  13.942   6.146   6.824
32951SOL     OW  749   3.604   3.670   3.917
32951SOL    HW1  750   3.510   3.661   3.902
32951SOL    HW2  751   3.611   3.696   4.008
32952SOL     OW  752   4.549   0.803   3.186
32952SOL    HW1  753   4.485   0.750   3.139
32952SOL    HW2  754   4.574   0.749   3.261
32953SOL     OW  755   0.100  13.355  13.636
32953SOL    HW1  756   0.072  13.395  13.719
32953SOL    HW2  757   0.147  13.425  13.590
32954SOL     OW  758  13.969   1.096   2.547
32954SOL    HW1  759  13.953   1.002   2.547
32954SOL    HW2  760  14.025   1.111   2.471
32955SOL     OW  761   2.096  11.497   4.657
32955SOL    HW1  762   2.191  11.485   4.661
32955SOL    HW2  763   2.071  11.462   4.571
32956SOL     OW  764   2.241   3.571   5.940
32956SOL    HW1  765   2.282   3.656   5.926
32956SOL    HW2  766   2.148   3.586   5.924
32957SOL     OW  767  12.029  12.876  11.101
32957SOL    HW1  768  12.022  12.967  11.074
32957SOL    HW2  769  12.085  12.878  11.179
32958SOL     OW  770   0.728   9.997   6.108
32958SOL    HW1  771   0.799  10.013   6.170
32958SOL    HW2  772   0.750  10.052   6.032
32959SOL     OW  773   2.058   4.680   5.239
32959SOL    HW1  774   2.100   4.755   5.199
32959SOL    HW2  775   2.069   4.693   5.333
32960SOL     OW  776   4.388   9.498   0.942
32960SOL    HW1  777   4.404   9.592   0.951
32960SOL    HW2  778   4.463   9.466   0.892
32961SOL     OW  779  10.701   5.052   2.353
32961SOL    HW1  780  10.655   4.995   2.292
32961SOL    HW2  781  10.715   5.133   2.305
32962SOL     OW  782   1.342   8.025   8.281
32962SOL    HW1  783   1.324   8.069   8.364
32962SOL    HW2  784   1.364   7.935   8.305
32963SOL     OW  785  13.510   8.722   9.910
32963SOL    HW1  786  13.543   8.736   9.998
32963SOL    HW2  787  13.552   8.641   9.880
32964SOL     OW  788   6.653   6.015   3.991
32964SOL    HW1  789   6.738   6.045   3.959
32964SOL    HW2  790   6.629   5.943   3.933
32965SOL     OW  791  11.440   4.855   5.380
32965SOL    HW1  792  11.509   4.846   5.445
32965SOL    HW2  793  11.436   4.769   5.338
32966SOL     OW  794   8.532   3.624   3.409
32966SOL    HW1  795   8.546   3.531   3.427
32966SOL    HW2  796   8.446   3.627   3.366
32967SOL     OW  797  13.134  12.730   5.762
32967SOL    HW1  798  13.135  12.635   5.766
32967SOL    HW2  799  13.065  12.752   5.700
32968SOL     OW  800  11.659   1.673  12.964
32968SOL    HW1  801  11.752   1.656  12.948
32968SOL    HW2  802  11.638   1.747  12.907
32969SOL     OW  803   2.107  11.372   9.325
32969SOL    HW1  804   2.021  11.373   9.284
32969SOL    HW2  805   2.158  11.436   9.276
32970SOL     OW  806   5.332  11.508  12.986
32970SOL    HW1  807   5.374  11.517  12.900
32970SOL    HW2  808   5.365  11.583  13.036
32971SOL     OW  809   1.355   6.243  13.751
32971SOL    HW1  810   1.448   6.249  13.774
32971SOL    HW2  811   1.320   6.330  13.771
32972SOL     OW  812   9.501   9.483   9.728
32972SOL    HW1  813   9.435   9.447   9.669
32972SOL    HW2  814   9.451   9.514   9.804
32973SOL     OW  815   8.552   2.999   7.638
32973SOL    HW1  816   8.485   2.988   7.706
32973SOL    HW2  817   8.522   2.944   7.566
32974SOL     OW  818   3.729   0.895   9.840
32974SOL    HW1  819   3.736   0.911   9.934
32974SOL    HW2  820   3.797   0.951   9.801
32975SOL     OW  821  13.916   6.818   0.159
32975SOL    HW1  822  13.914   6.912   0.178
32975SOL    HW2  823  13.982   6.782   0.218
32976SOL     OW  824  10.425   9.207   1.218
32976SOL    HW1  825  10.457   9.125   1.256
32976SOL    HW2  826  10.331   9.206   1.237
32977SOL     OW  827   3.640   6.610   6.670
32977SOL    HW1  828   3.685   6.695   6.675
32977SOL    HW2  829   3.550   6.632   6.645
32978SOL     OW  830   0.319   0.220   7.776
32978SOL    HW1  831   0.224   0.220   7.789
32978SOL    HW2  832   0.344   0.311   7.792
32979SOL     OW  833   0.254  12.596   1.941
32979SOL    HW1  834   0.298  12.532   1.884
32979SOL    HW2  835   0.220  12.662   1.880
32980SOL     OW  836   0.729   4.963   4.186
32980SOL    HW1  837   0.719   5.053   4.155
32980SOL    HW2  838   0.794   4.925   4.127
32981SOL     OW  839   1.071   4.451   7.371
32981SOL    HW1  840   1.072   4.377   7.432
32981SOL    HW2  841   1.162   4.465   7.348
32982SOL     OW  842   5.661  12.602  10.322
32982SOL    HW1  843   5.757  12.608  10.326
32982SOL    HW2  844   5.631  12.685  10.359
32983SOL     OW  845   5.138   3.844   2.670
32983SOL    HW1  846   5.153   3.760   2.712
32983SOL    HW2  847   5.224   3.885   2.667
32984SOL     OW  848  10.211   3.871  11.497
32984SOL    HW1  849  10.282   3.869  11.562
32984SOL    HW2  850  10.140   3.822  11.538
32985SOL     OW  851  13.701   7.083   0.521
32985SOL    HW1  852  13.670   7.045   0.603
32985SOL    HW2  853  13.622   7.098   0.469
32986SOL     OW  854   5.177   5.889   9.327
32986SOL    HW1  855   5.200   5.799   9.301
32986SOL    HW2  856   5.260   5.927   9.355
32987SOL     OW  857   8.592   5.269   3.622
32987SOL    HW1  858   8.519   5.327   3.601
32987SOL    HW2  859   8.562   5.182   3.594
32988SOL     OW  860   2.258   8.267   3.793
32988SOL    HW1  861   2.301   8.272   3.708
32988SOL    HW2  862   2.325   8.293   3.856
32989SOL     OW  863   6.718   5.763  12.091
32989SOL    HW1  864   6.781   5.712  12.040
32989SOL    HW2  865   6.680   5.700  12.152
32990SOL     OW  866  11.367  12.030  12.947
32990SOL    HW1  867  11.323  11.988  12.873
32990SOL    HW2  868  11.453  12.055  12.913
32991SOL     OW  869   1.521  14.327   7.709
32991SOL    HW1  870   1.570  14.345   7.629
32991SOL    HW2  871   1.437  14.293   7.680
32992SOL     OW  872   0.137   5.582  11.411
32992SOL    HW1  873   0.176   5.504  11.452
32992SOL    HW2  874   0.120   5.556  11.321
32993SOL     OW  875   3.680   4.924   6.959
32993SOL    HW1  876   3.640   5.010   6.971
32993SOL    HW2  877   3.654   4.898   6.870
32994SOL     OW  878   3.686  14.761  13.612
32994SOL    HW1  879   3.702  14.708  13.534
32994SOL    HW2  880   3.590  14.769  13.616
32995SOL     OW  881   5.583   4.220   9.676
32995SOL    HW1  882   5.504   4.174   9.647
32995SOL    HW2  883   5.629   4.157   9.731
32996SOL     OW  884   9.370  14.159   5.738
32996SOL    HW1  885   9.373  14.238   5.684
32996SOL    HW2  886   9.413  14.184   5.820
32997SOL     OW  887  13.469  11.987   5.503
32997SOL    HW1  888  13.395  11.931   5.528
32997SOL    HW2  889  13.429  12.064   5.463
32998SOL     OW  890   7.759  10.039  13.470
32998SOL    HW1  891   7.758  10.130  13.442
32998SOL    HW2  892   7.837  10.002  13.427
32999SOL     OW  893  14.542   1.386   0.960
32999SOL    HW1  894  14.615   1.429   0.916
32999SOL    HW2  895  14.541   1.297   0.926
33000SOL     OW  896   2.603  14.051  12.994
33000SOL    HW1  897   2.593  14.144  13.013
33000SOL    HW2  898   2.698  14.038  12.992
33001SOL     OW  899   6.860   5.836  13.845
33001SOL    HW1  900   6.845   5.894  13.919
33001SOL    HW2  901   6.836   5.888  13.768
33002SOL     OW  902   5.539   1.981  14.201
33002SOL    HW1  903   5.474   2.019  14.143
33002SOL    HW2  904   5.581   2.057  14.242
33003SOL     OW  905   8.327  11.345   7.476
33003SOL    HW1  906   8.245  11.393   7.489
33003SOL    HW2  907   8.330  11.327   7.382
33004SOL     OW  908  10.876   5.607  12.650
33004SOL    HW1  909  10.813   5.600  12.722
33004SOL    HW2  910  10.918   5.521  12.646
33005SOL     OW  911  14.591   5.590   2.914
33005SOL    HW1  912  14.600   5.572   2.821
33005SOL    HW2  913  14.636   5.517   2.957
33006SOL     OW  914  14.120   9.111   5.760
33006SOL    HW1  915  14.117   9.015   5.762
33006SOL    HW2  916  14.176   9.132   5.685
33007SOL     OW  917   8.586   2.768  10.571
33007SOL    HW1  918   8.604   2.851  10.615
33007SOL    HW2  919   8.669   2.744  10.530
33008SOL     OW  920   8.179   6.870   3.709
33008SOL    HW1  921   8.120   6.867   3.634
33008SOL    HW2  922   8.219   6.957   3.706
33009SOL     OW  923   5.026   2.090   3.903
33009SOL    HW1  924   4.984   2.034   3.967
33009SOL    HW2  925   4.991   2.061   3.819
33010SOL     OW  926  12.971   7.833  10.720
33010SOL    HW1  927  13.038   7.867  10.779
33010SOL    HW2  928  12.941   7.752  10.761
33011SOL     OW  929   9.777  14.094  12.275
33011SOL    HW1  930   9.708  14.097  12.341
33011SOL    HW2  931   9.739  14.136  12.198
33012SOL     OW  932   7.762  13.845  13.018
33012SOL    HW1  933   7.678  13.881  13.047
33012SOL    HW2  934   7.815  13.922  12.999
33013SOL     OW  935  12.465  12.841   4.844
33013SOL    HW1  936  12.394  12.837   4.909
33013SOL    HW2  937  12.420  12.849   4.760
33014SOL     OW  938  14.597   4.301   6.982
33014SOL    HW1  939  14.644   4.382   6.998
33014SOL    HW2  940  14.543   4.319   6.905
33015SOL     OW  941   6.849   7.395   1.294
33015SOL    HW1  942   6.913   7.334   1.331
33015SOL    HW2  943   6.902   7.457   1.244
33016SOL     OW  944   6.225   5.354  11.786
33016SOL    HW1  945   6.201   5.271  11.745
33016SOL    HW2  946   6.232   5.333  11.879
33017SOL     OW  947  10.788   3.305  10.003
33017SOL    HW1  948  10.875   3.310  10.042
33017SOL    HW2  949  10.730   3.340  10.070
33018SOL     OW  950   1.144  14.298   5.986
33018SOL    HW1  951   1.179  14.215   5.955
33018SOL    HW2  952   1.134  14.286   6.081
33019SOL     OW  953  11.422  14.323   5.606
33019SOL    HW1  954  11.338  14.370   5.598
33019SOL    HW2  955  11.401  14.245   5.657
33020SOL     OW  956  12.652  13.908   3.849
33020SOL    HW1  957  12.744  13.933   3.859
33020SOL    HW2  958  12.631  13.930   3.758
33021SOL     OW  959   0.060   5.849  13.913
33021SOL    HW1  960   0.136   5.817  13.864
33021SOL    HW2  961   0.087   5.841  14.005
33022SOL     OW  962  14.288   0.851   2.633
33022SOL    HW1  963  14.362   0.911   2.643
33022SOL    HW2  964  14.245   0.852   2.718
33023SOL     OW  965  14.044   2.741   4.377
33023SOL    HW1  966  14.074   2.782   4.458
33023SOL    HW2  967  13.948   2.745   4.382
33024SOL     OW  968   2.800  13.805   0.630
33024SOL    HW1  969   2.748  13.884   0.612
33024SOL    HW2  970   2.889  13.836   0.639
33025SOL     OW  971   5.590   9.483   7.719
33025SOL    HW1  972   5.629   9.565   7.750
33025SOL    HW2  973   5.503   9.481   7.758
33026SOL     OW  974   0.157   7.675   0.816
33026SOL    HW1  975   0.170   7.582   0.795
33026SOL    HW2  976   0.245   7.708   0.835
33027SOL     OW  977   8.612  11.925   3.542
33027SOL    HW1  978   8.570  11.839   3.539
33027SOL    HW2  979   8.553  11.979   3.595
33028SOL     OW  980   7.409   2.476   8.328
33028SOL    HW1  981   7.447   2.448   8.411
33028SOL    HW2  982   7.351   2.548   8.351
33029SOL     OW  983  13.000  13.176  10.215
33029SOL    HW1  984  12.921  13.230  10.216
33029SOL    HW2  985  13.012  13.150  10.306
33030SOL     OW  986   6.867  12.578   9.986
33030SOL    HW1  987   6.907  12.628  10.057
33030SOL    HW2  988   6.871  12.487  10.017
33031SOL     OW  989  14.469   1.652   5.914
33031SOL    HW1  990  14.557   1.690   5.925
33031SOL    HW2  991  14.411   1.717   5.953
33032SOL     OW  992   7.654  10.077   3.468
33032SOL    HW1  993   7.568  10.034   3.459
33032SOL    HW2  994   7.715  10.006   3.485
33033SOL     OW  995   8.752  12.352  13.484
33033SOL    HW1  996   8.759  12.298  13.563
33033SOL    HW2  997   8.661  12.341  13.455
33034SOL     OW  998  13.911   5.310   4.251
33034SOL    HW1  999  13.942   5.355   4.172
33034SOL    HW2 1000  13.825   5.348   4.268
33035SOL     OW 1001  12.778   0.506  12.119
33035SOL    HW1 1002  12.834   0.469  12.051
33035SOL    HW2 1003  12.775   0.600  12.098
33036SOL     OW 1004  12.956  11.461   5.548
33036SOL    HW1 1005  12.992  11.473   5.636
33036SOL    HW2 1006  12.958  11.549   5.510
33037SOL     OW 1007  14.455  10.170  11.694
33037SOL    HW1 1008  14.490  10.093  11.650
33037SOL    HW2 1009  14.361  10.152  11.703
33038SOL     OW 1010  14.796   4.227   7.616
33038SOL    HW1 1011  14.727   4.255   7.677
33038SOL    HW2 1012  14.752   4.224   7.531
33039SOL     OW 1013  13.174   3.417  11.535
33039SOL    HW1 1014  13.142   3.473  11.465
33039SOL    HW2 1015  13.269   3.429  11.535
33040SOL     OW 1016  10.975   4.304  13.742
33040SOL    HW1 1017  10.954   4.261  13.825
33040SOL    HW2 1018  11.048   4.253  13.707
33041SOL     OW 1019   2.474   2.606   7.563
33041SOL    HW1 1020   2.486   2.561   7.479
33041SOL    HW2 1021   2.390   2.574   7.595
33042SOL     OW 1022  11.854  11.840   2.065
33042SOL    HW1 1023  11.826  11.752   2.089
33042SOL    HW2 1024  11.830  11.847   1.972
33043SOL     OW 1025   9.803   7.759   5.970
33043SOL    HW1 1026   9.850   7.676   5.983
33043SOL    HW2 1027   9.872   7.823   5.952
33044SOL     OW 1028   2.456   0.899  11.574
33044SOL    HW1 1029   2.365   0.919  11.593
33044SOL    HW2 1030   2.453   0.838  11.500
33045SOL     OW 1031   3.769   2.333   4.674
33045SOL    HW1 1032   3.833   2.404   4.672
33045SOL    HW2 1033   3.688   2.372   4.641
33046SOL     OW 1034   3.831  12.430  12.989
33046SOL    HW1 1035   3.836  12.524  13.004
33046SOL    HW2 1036   3.754  12.418  12.934
33047SOL     OW 1037  13.145   5.353  10.006
33047SOL    HW1 1038  13.151   5.333  10.099
33047SOL    HW2 1039  13.069   5.302   9.976
33048SOL     OW 1040  14.814  10.215   8.807
33048SOL    HW1 1041  14.798  10.297   8.853
33048SOL    HW2 1042  14.782  10.230   8.718
33049SOL     OW 1043   5.294  11.724   2.007
33049SOL    HW1 1044   5.375  11.674   2.007
33049SOL    HW2 1045   5.237  11.679   1.945
33050SOL     OW 1046  11.090   7.722   5.857
33050SOL    HW1 1047  11.106   7.629   5.842
33050SOL    HW2 1048  11.117   7.737   5.947
33051SOL     OW 1049   4.386   6.207   7.556
33051SOL    HW1 1050   4.433   6.139   7.604
33051SOL    HW2 1051   4.454   6.271   7.534
33052SOL     OW 1052   1.650   4.591   0.048
33052SOL    HW1 1053   1.617   4.543   0.124
33052SOL    HW2 1054   1.574   4.640   0.016
33053SOL     OW 1055   7.346   4.028   1.130
33053SOL    HW1 1056   7.410   3.973   1.084
33053SOL    HW2 1057   7.382   4.040   1.218
33054SOL     OW 1058  12.974  11.234   4.671
33054SOL    HW1 1059  13.013  11.169   4.613
33054SOL    HW2 1060  12.883  11.240   4.643
33055SOL     OW 1061   4.672  12.957   0.121
33055SOL    HW1 1062   4.767  12.963   0.130
33055SOL    HW2 1063   4.645  13.044   0.091
33056SOL     OW 1064   6.293   3.943   7.431
33056SOL    HW1 1065   6.201   3.968   7.441
33056SOL    HW2 1066   6.314   3.896   7.511
33057SOL     OW 1067   5.265   9.365   4.846
33057SOL    HW1 1068   5.272   9.451   4.807
33057SOL    HW2 1069   5.355   9.341   4.868
33058SOL     OW 1070   4.410  11.293   7.798
33058SOL    HW1 1071   4.481  11.299   7.735
33058SOL    HW2 1072   4.423  11.210   7.842
33059SOL     OW 1073  11.399  11.116   9.728
33059SOL    HW1 1074  11.473  11.177   9.723
33059SOL    HW2 1075  11.436  11.036   9.764
33060SOL     OW 1076   1.014   2.848  13.358
33060SOL    HW1 1077   1.083   2.835  13.424
33060SOL    HW2 1078   1.039   2.789  13.286
33061SOL     OW 1079   0.136   0.537  13.101
33061SOL    HW1 1080   0.111   0.616  13.052
33061SOL    HW2 1081   0.121   0.466  13.039
33062SOL     OW 1082   2.524   3.301  10.547
33062SOL    HW1 1083   2.541   3.283  10.455
33062SOL    HW2 1084   2.524   3.396  10.554
33063SOL     OW 1085   1.715  12.132   7.492
33063SOL    HW1 1086   1.761  12.205   7.453
33063SOL    HW2 1087   1.782  12.066   7.507
33064SOL     OW 1088   8.365  13.355   6.033
33064SOL    HW1 1089   8.365  13.323   6.123
33064SOL    HW2 1090   8.455  13.386   6.019
33065SOL     OW 1091  11.570  13.219  10.852
33065SOL    HW1 1092  11.590  13.313  10.856
33065SOL    HW2 1093  11.625  13.180  10.920
33066SOL     OW 1094  11.234   1.178  11.792
33066SOL    HW1 1095  11.192   1.257  11.759
33066SOL    HW2 1096  11.274   1.138  11.715
33067SOL     OW 1097  12.376  11.492   1.276
33067SOL    HW1 1098  12.283  11.489   1.296
33067SOL    HW2 1099  12.385  11.447   1.193
33068SOL     OW 1100   0.215   9.376   0.502
33068SOL    HW1 1101   0.137   9.320   0.505
33068SOL    HW2 1102   0.215   9.412   0.413
33069SOL     OW 1103   2.669   2.259   5.266
33069SOL    HW1 1104   2.623   2.184   5.304
33069SOL    HW2 1105   2.733   2.219   5.206
33070SOL     OW 1106   5.063  14.575  13.053
33070SOL    HW1 1107   5.124  14.507  13.081
33070SOL    HW2 1108   4.988  14.566  13.112
33071SOL     OW 1109  14.042   3.168  13.163
33071SOL    HW1 1110  14.050   3.155  13.258
33071SOL    HW2 1111  14.071   3.086  13.125
33072SOL     OW 1112   0.311  14.014   8.434
33072SOL    HW1 1113   0.370  14.043   8.365
33072SOL    HW2 1114   0.275  13.931   8.402
33073SOL     OW 1115  11.234   7.172   5.879
33073SOL    HW1 1116  11.182   7.119   5.819
33073SOL    HW2 1117  11.200   7.150   5.966
33074SOL     OW 1118   0.910   2.152   4.671
33074SOL    HW1 1119   0.859   2.203   4.734
33074SOL    HW2 1120   0.851   2.140   4.597
33075SOL     OW 1121  12.330   3.610   5.912
33075SOL    HW1 1122  12.372   3.678   5.963
33075SOL    HW2 1123  12.386   3.598   5.835
33076SOL     OW 1124   8.880   4.082   6.347
33076SOL    HW1 1125   8.809   4.145   6.354
33076SOL    HW2 1126   8.860   4.033   6.267
33077SOL     OW 1127  14.062   4.730   4.992
33077SOL    HW1 1128  14.135   4.676   5.023
33077SOL    HW2 1129  13.994   4.666   4.968
33078SOL     OW 1130   0.293   8.869   2.452
33078SOL    HW1 1131   0.339   8.795   2.413
33078SOL    HW2 1132   0.307   8.859   2.547
33079SOL     OW 1133   9.007   0.572   6.720
33079SOL    HW1 1134   9.002   0.579   6.625
33079SOL    HW2 1135   9.071   0.639   6.746
33080SOL     OW 1136   4.004   4.051  11.318
33080SOL    HW1 1137   4.062   4.017  11.249
33080SOL    HW2 1138   3.925   4.079  11.271
33081SOL     OW 1139  10.593   2.619  14.636
33081SOL    HW1 1140  10.665   2.562  14.609
33081SOL    HW2 1141  10.631   2.707  14.640
33082SOL     OW 1142  12.852   6.137   1.458
33082SOL    HW1 1143  12.794   6.187   1.401
33082SOL    HW2 1144  12.808   6.137   1.543
33083SOL     OW 1145   7.251  12.363  14.703
33083SOL    HW1 1146   7.225  12.423  14.634
33083SOL    HW2 1147   7.169  12.331  14.741
33084SOL     OW 1148   6.421   1.736   9.674
33084SOL    HW1 1149   6.370   1.782   9.741
33084SOL    HW2 1150   6.490   1.691   9.722
33085SOL     OW 1151   6.814  13.589   5.350
33085SOL    HW1 1152   6.845  13.630   5.431
33085SOL    HW2 1153   6.760  13.657   5.309
33086SOL     OW 1154   1.373   2.400  12.489
33086SOL    HW1 1155   1.379   2.491  12.459
33086SOL    HW2 1156   1.451   2.387  12.542
33087SOL     OW 1157  14.181   8.545  11.503
33087SOL    HW1 1158  14.244   8.474  11.495
33087SOL    HW2 1159  14.217   8.616  11.449
33088SOL     OW 1160   5.073  11.758   1.110
33088SOL    HW1 1161   4.983  11.785   1.129
33088SOL    HW2 1162   5.103  11.819   1.044
33089SOL     OW 1163   6.927  12.803   1.575
33089SOL    HW1 1164   6.996  12.745   1.543
33089SOL    HW2 1165   6.937  12.802   1.670
33090SOL     OW 1166   8.639  13.305   5.304
33090SOL    HW1 1167   8.670  13.377   5.248
33090SOL    HW2 1168   8.544  13.314   5.305
33091SOL     OW 1169   5.961   9.961  13.663
33091SOL    HW1 1170   6.000   9.939  13.578
33091SOL    HW2 1171   5.869   9.978  13.643
33092SOL     OW 1172   6.525  10.163   4.212
33092SOL    HW1 1173   6.441  10.175   4.257
33092SOL    HW2 1174   6.522  10.074   4.178
33093SOL     OW 1175   7.640  12.388  11.793
33093SOL    HW1 1176   7.655  12.317  11.731
33093SOL    HW2 1177   7.662  12.351  11.879
33094SOL     OW 1178   2.541   1.265  10.719
33094SOL    HW1 1179   2.550   1.196  10.785
33094SOL    HW2 1180   2.532   1.218  10.636
33095SOL     OW 1181   4.409   4.177   3.365
33095SOL    HW1 1182   4.408   4.206   3.456
33095SOL    HW2 1183   4.362   4.246   3.318
33096SOL     OW 1184  11.240  14.852   1.692
33096SOL    HW1 1185  11.162   0.029   1.680
33096SOL    HW2 1186  11.209  14.777   1.742
33097SOL     OW 1187   6.453  14.534  11.837
33097SOL    HW1 1188   6.370  14.559  11.878
33097SOL    HW2 1189   6.511  14.608  11.853
33098SOL     OW 1190   1.797   0.125  12.835
33098SOL    HW1 1191   1.785   0.202  12.890
33098SOL    HW2 1192   1.892   0.118  12.825
33099SOL     OW 1193   9.605   3.244   0.741
33099SOL    HW1 1194   9.544   3.182   0.701
33099SOL    HW2 1195   9.573   3.330   0.713
33100SOL     OW 1196   6.467   0.410   6.841
33100SOL    HW1 1197   6.543   0.463   6.866
33100SOL    HW2 1198   6.500   0.354   6.770
33101SOL     OW 1199  11.850  14.593   2.331
33101SOL    HW1 1200  11.914  14.650   2.289
33101SOL    HW2 1201  11.785  14.574   2.263
33102SOL     OW 1202  13.056   1.958   1.942
33102SOL    HW1 1203  13.084   1.882   1.891
33102SOL    HW2 1204  13.061   1.929   2.033
33103SOL     OW 1205   4.119  14.336  12.511
33103SOL    HW1 1206   4.028  14.351  12.485
33103SOL    HW2 1207   4.162  14.420  12.497
33104SOL     OW 1208  14.628  10.979   4.330
33104SOL    HW1 1209  14.599  10.934   4.409
33104SOL    HW2 1210  14.723  10.977   4.334
33105SOL     OW 1211  11.855  13.505  12.349
33105SOL    HW1 1212  11.759  13.509  12.352
33105SOL    HW2 1213  11.884  13.574  12.409
33106SOL     OW 1214   3.792  12.817   1.174
33106SOL    HW1 1215   3.881  12.841   1.146
33106SOL    HW2 1216   3.785  12.853   1.262
33107SOL     OW 1217  11.915  14.513   5.610
33107SOL    HW1 1218  11.998  14.509   5.656
33107SOL    HW2 1219  11.897  14.423   5.584
33108SOL     OW 1220  14.199   4.210  13.583
33108SOL    HW1 1221  14.128   4.244  13.528
33108SOL    HW2 1222  14.249   4.288  13.609
33109SOL     OW 1223  10.926   7.145  10.007
33109SOL    HW1 1224  10.989   7.183   9.945
33109SOL    HW2 1225  10.859   7.213  10.017
33110SOL     OW 1226  12.901  11.214   5.362
33110SOL    HW1 1227  12.925  11.278   5.428
33110SOL    HW2 1228  12.966  11.226   5.292
33111SOL     OW 1229   6.977   4.165   6.217
33111SOL    HW1 1230   6.903   4.221   6.243
33111SOL    HW2 1231   7.038   4.170   6.291
33112SOL     OW 1232  11.817   1.718   3.296
33112SOL    HW1 1233  11.843   1.670   3.375
33112SOL    HW2 1234  11.900   1.741   3.254
33113SOL     OW 1235   2.432   8.858   0.400
33113SOL    HW1 1236   2.427   8.846   0.495
33113SOL    HW2 1237   2.399   8.947   0.386
33114SOL     OW 1238   9.726   3.304  12.448
33114SOL    HW1 1239   9.805   3.254  12.429
33114SOL    HW2 1240   9.758   3.389  12.478
33115SOL     OW 1241   3.843   4.193  14.078
33115SOL    HW1 1242   3.922   4.163  14.123
33115SOL    HW2 1243   3.834   4.284  14.106
33116SOL     OW 1244  12.081   9.677   2.490
33116SOL    HW1 1245  12.057   9.645   2.403
33116SOL    HW2 1246  12.155   9.621   2.516
33117SOL     OW 1247  13.645   9.124  14.226
33117SOL    HW1 1248  13.690   9.041  14.239
33117SOL    HW2 1249  13.591   9.111  14.148
33118SOL     OW 1250  10.753   8.781   8.871
33118SOL    HW1 1251  10.782   8.745   8.787
33118SOL    HW2 1252  10.672   8.827   8.850
33119SOL     OW 1253  11.223   2.581  13.769
33119SOL    HW1 1254  11.264   2.500  13.740
33119SOL    HW2 1255  11.190   2.562  13.857
33120SOL     OW 1256   6.001   3.683  13.010
33120SOL    HW1 1257   6.045   3.767  13.015
33120SOL    HW2 1258   5.970   3.677  12.920
33121SOL     OW 1259   5.775  12.528   9.205
33121SOL    HW1 1260   5.756  12.442   9.167
33121SOL    HW2 1261   5.688  12.565   9.225
33122SOL     OW 1262  12.461   7.676  14.151
33122SOL    HW1 1263  12.547   7.704  14.184
33122SOL    HW2 1264  12.461   7.581  14.161
33123SOL     OW 1265  13.401   7.003  11.754
33123SOL    HW1 1266  13.325   7.050  11.786
33123SOL    HW2 1267  13.367   6.947  11.684
33124SOL     OW 1268   1.159   4.534   8.435
33124SOL    HW1 1269   1.075   4.546   8.480
33124SOL    HW2 1270   1.220   4.587   8.486
33125SOL     OW 1271   7.660   2.385  14.856
33125SOL    HW1 1272   7.626   2.296  14.848
33125SOL    HW2 1273   7.583   2.441  14.845
33126SOL     OW 1274  12.751   8.521  11.705
33126SOL    HW1 1275  12.757   8.557  11.616
33126SOL    HW2 1276  12.657   8.517  11.723
33127SOL     OW 1277   4.543   6.933   3.298
33127SOL    HW1 1278   4.532   6.838   3.310
33127SOL    HW2 1279   4.565   6.943   3.205
33128SOL     OW 1280   7.446   1.845   2.177
33128SOL    HW1 1281   7.459   1.931   2.137
33128SOL    HW2 1282   7.433   1.786   2.103
33129SOL     OW 1283   5.321  13.858  14.338
33129SOL    HW1 1284   5.408  13.865  14.300
33129SOL    HW2 1285   5.336  13.833  14.429
33130SOL     OW 1286   6.830   5.421  14.853
33130SOL    HW1 1287   6.872   5.500  14.820
33130SOL    HW2 1288   6.748   5.452   0.014
33131SOL     OW 1289   9.458   5.617   5.373
33131SOL    HW1 1290   9.505   5.674   5.313
33131SOL    HW2 1291   9.388   5.579   5.320
33132SOL     OW 1292  10.643  12.057   0.115
33132SOL    HW1 1293  10.711  12.016   0.061
33132SOL    HW2 1294  10.658  12.022   0.203
33133SOL     OW 1295   6.825  14.722   6.683
33133SOL    HW1 1296   6.910  14.739   6.724
33133SOL    HW2 1297   6.847  14.675   6.603
33134SOL     OW 1298  12.405   8.484  14.055
33134SOL    HW1 1299  12.472   8.478  13.987
33134SOL    HW2 1300  12.420   8.570  14.095
33135SOL     OW 1301   8.763   3.348   4.859
33135SOL    HW1 1302   8.688   3.329   4.915
33135SOL    HW2 1303   8.828   3.388   4.917
33136SOL     OW 1304   6.893   6.235   1.239
33136SOL    HW1 1305   6.946   6.277   1.306
33136SOL    HW2 1306   6.928   6.146   1.233
33137SOL     OW 1307  10.061   3.378   5.825
33137SOL    HW1 1308  10.005   3.301   5.833
33137SOL    HW2 1309  10.117   3.375   5.903
33138SOL     OW 1310   9.302   9.482   5.040
33138SOL    HW1 1311   9.274   9.541   4.970
33138SOL    HW2 1312   9.229   9.421   5.051
33139SOL     OW 1313  14.481   1.386   4.856
33139SOL    HW1 1314  14.404   1.410   4.908
33139SOL    HW2 1315  14.538   1.464   4.860
33140SOL     OW 1316  12.192   3.668  14.214
33140SOL    HW1 1317  12.230   3.663  14.127
33140SOL    HW2 1318  12.144   3.750  14.215
33141SOL     OW 1319   9.014   0.852   8.065
33141SOL    HW1 1320   9.105   0.883   8.068
33141SOL    HW2 1321   9.021   0.757   8.070
33142SOL     OW 1322   6.602   6.271   6.882
33142SOL    HW1 1323   6.610   6.332   6.956
33142SOL    HW2 1324   6.659   6.197   6.907
33143SOL     OW 1325  12.589   9.877   8.052
33143SOL    HW1 1326  12.531   9.935   8.002
33143SOL    HW2 1327  12.654   9.848   7.989
33144SOL     OW 1328  13.155   1.426   3.036
33144SOL    HW1 1329  13.149   1.480   2.957
33144SOL    HW2 1330  13.070   1.434   3.078
33145SOL     OW 1331   6.437   8.442   8.839
33145SOL    HW1 1332   6.398   8.404   8.760
33145SOL    HW2 1333   6.505   8.379   8.864
33146SOL     OW 1334   8.593  11.122   1.744
33146SOL    HW1 1335   8.633  11.061   1.805
33146SOL    HW2 1336   8.509  11.144   1.784
33147SOL     OW 1337   3.224   2.756   9.054
33147SOL    HW1 1338   3.229   2.720   8.965
33147SOL    HW2 1339   3.315   2.765   9.080
33148SOL     OW 1340   5.580  11.663   5.326
33148SOL    HW1 1341   5.525  11.588   5.347
33148SOL    HW2 1342   5.568  11.723   5.399
33149SOL     OW 1343   0.894  13.777   0.297
33149SOL    HW1 1344   0.961  13.716   0.265
33149SOL    HW2 1345   0.842  13.798   0.219
33150SOL     OW 1346  12.610  11.384   2.724
33150SOL    HW1 1347  12.589  11.397   2.817
33150SOL    HW2 1348  12.641  11.469   2.694
33151SOL     OW 1349   4.971   3.521   1.337
33151SOL    HW1 1350   5.061   3.490   1.352
33151SOL    HW2 1351   4.923   3.491   1.414
33152SOL     OW 1352  12.281   9.974   5.266
33152SOL    HW1 1353  12.204  10.019   5.302
33152SOL    HW2 1354  12.355  10.025   5.298
33153SOL     OW 1355  12.653   3.382   3.101
33153SOL    HW1 1356  12.664   3.289   3.082
33153SOL    HW2 1357  12.581   3.385   3.164
33154SOL     OW 1358   0.424   1.017  10.220
33154SOL    HW1 1359   0.390   1.075  10.288
33154SOL    HW2 1360   0.395   0.930  10.246
33155SOL     OW 1361  13.652   6.637   6.198
33155SOL    HW1 1362  13.661   6.560   6.254
33155SOL    HW2 1363  13.680   6.608   6.112
33156SOL     OW 1364   3.318   3.161   7.014
33156SOL    HW1 1365   3.314   3.118   6.929
33156SOL    HW2 1366   3.241   3.217   7.017
33157SOL     OW 1367   0.915   2.844   1.257
33157SOL    HW1 1368   1.002   2.806   1.266
33157SOL    HW2 1369   0.929   2.938   1.263
33158SOL     OW 1370   0.277   8.229   6.106
33158SOL    HW1 1371   0.365   8.190   6.114
33158SOL    HW2 1372   0.288   8.320   6.133
33159SOL     OW 1373  14.220  14.274   6.048
33159SOL    HW1 1374  14.187  14.203   6.104
33159SOL    HW2 1375  14.153  14.342   6.055
33160SOL     OW 1376   0.482   7.039  10.579
33160SOL    HW1 1377   0.527   7.021  10.662
33160SOL    HW2 1378   0.391   7.056  10.606
33161SOL     OW 1379   6.583   7.408   5.372
33161SOL    HW1 1380   6.554   7.337   5.430
33161SOL    HW2 1381   6.501   7.448   5.343
33162SOL     OW 1382   2.515   2.204  10.996
33162SOL    HW1 1383   2.534   2.135  11.060
33162SOL    HW2 1384   2.527   2.163  10.911
33163SOL     OW 1385  10.263   3.185  10.782
33163SOL    HW1 1386  10.324   3.115  10.760
33163SOL    HW2 1387  10.255   3.236  10.702
33164SOL     OW 1388   1.138   0.226   1.259
33164SOL    HW1 1389   1.176   0.281   1.328
33164SOL    HW2 1390   1.058   0.191   1.297
33165SOL     OW 1391   3.942   5.694  13.029
33165SOL    HW1 1392   3.893   5.649  12.960
33165SOL    HW2 1393   3.879   5.755  13.068
33166SOL     OW 1394  13.081   7.268   2.696
33166SOL    HW1 1395  13.119   7.320   2.767
33166SOL    HW2 1396  13.156   7.245   2.641
33167SOL     OW 1397  12.541   8.259  12.947
33167SOL    HW1 1398  12.558   8.294  13.034
33167SOL    HW2 1399  12.622   8.214  12.923
33168SOL     OW 1400   5.375  13.628   2.666
33168SOL    HW1 1401   5.451  13.674   2.702
33168SOL    HW2 1402   5.346  13.569   2.735
33169SOL     OW 1403   1.515   2.887  13.344
33169SOL    HW1 1404   1.592   2.850  13.387
33169SOL    HW2 1405   1.503   2.835  13.265
33170SOL     OW 1406   4.120   3.616  13.645
33170SOL    HW1 1407   4.214   3.607  13.662
33170SOL    HW2 1408   4.112   3.703  13.605
33171SOL     OW 1409  12.646   6.396   1.995
33171SOL    HW1 1410  12.635   6.474   2.049
33171SOL    HW2 1411  12.584   6.333   2.031
33172SOL     OW 1412   9.583   7.683   4.595
33172SOL    HW1 1413   9.496   7.698   4.630
33172SOL    HW2 1414   9.569   7.665   4.502
33173SOL     OW 1415   2.322  12.188  13.385
33173SOL    HW1 1416   2.383  12.259  13.407
33173SOL    HW2 1417   2.372  12.131  13.327
33174SOL     OW 1418  13.123  14.667   4.795
33174SOL    HW1 1419  13.040  14.622   4.781
33174SOL    HW2 1420  13.186  14.598   4.811
33175SOL     OW 1421   1.286   4.442   1.962
33175SOL    HW1 1422   1.313   4.364   1.913
33175SOL    HW2 1423   1.300   4.515   1.901
33176SOL     OW 1424  11.934   6.512   1.265
33176SOL    HW1 1425  11.899   6.592   1.304
33176SOL    HW2 1426  11.896   6.510   1.177
33177SOL     OW 1427   5.099   1.911   6.156
33177SOL    HW1 1428   5.102   2.007   6.156
33177SOL    HW2 1429   5.083   1.888   6.247
33178SOL     OW 1430  14.226   9.302   9.385
33178SOL    HW1 1431  14.285   9.355   9.331
33178SOL    HW2 1432  14.143   9.303   9.337
33179SOL     OW 1433  12.719  10.329   6.530
33179SOL    HW1 1434  12.736  10.252   6.477
33179SOL    HW2 1435  12.805  10.355   6.563
33180SOL     OW 1436  14.627   3.310  10.515
33180SOL    HW1 1437  14.606   3.356  10.433
33180SOL    HW2 1438  14.546   3.264  10.539
33181SOL     OW 1439  12.198  14.675   9.041
33181SOL    HW1 1440  12.209  14.581   9.024
33181SOL    HW2 1441  12.186  14.714   8.954
33182SOL     OW 1442   7.110  13.134   1.611
33182SOL    HW1 1443   7.071  13.221   1.601
33182SOL    HW2 1444   7.051  13.075   1.564
33183SOL     OW 1445  11.554  12.951   2.991
33183SOL    HW1 1446  11.586  13.036   3.020
33183SOL    HW2 1447  11.603  12.934   2.910
33184SOL     OW 1448   1.215   4.299   3.144
33184SOL    HW1 1449   1.295   4.281   3.095
33184SOL    HW2 1450   1.172   4.369   3.094
33185SOL     OW 1451   9.611   3.634   1.983
33185SOL    HW1 1452   9.622   3.728   1.968
33185SOL    HW2 1453   9.538   3.628   2.044
33186SOL     OW 1454  14.146  13.607   1.497
33186SOL    HW1 1455  14.138  13.526   1.547
33186SOL    HW2 1456  14.101  13.589   1.415
33187SOL     OW 1457   7.135   9.470   3.187
33187SOL    HW1 1458   7.122   9.387   3.232
33187SOL    HW2 1459   7.176   9.446   3.103
33188SOL     OW 1460   4.167  10.686   1.771
33188SOL    HW1 1461   4.105  10.660   1.702
33188SOL    HW2 1462   4.112  10.720   1.841
33189SOL     OW 1463  11.497   9.163   3.900
33189SOL    HW1 1464  11.485   9.153   3.806
33189SOL    HW2 1465  11.577   9.114   3.919
33190SOL     OW 1466  12.406   4.958  12.178
33190SOL    HW1 1467  12.416   4.939  12.085
33190SOL    HW2 1468  12.493   4.945  12.215
33191SOL     OW 1469   6.213  13.585   3.190
33191SOL    HW1 1470   6.229  13.577   3.096
33191SOL    HW2 1471   6.158  13.509   3.212
33192SOL     OW 1472   0.247  12.853   1.048
33192SOL    HW1 1473   0.219  12.791   0.980
33192SOL    HW2 1474   0.269  12.798   1.123
33193SOL     OW 1475   0.810   7.964   3.290
33193SOL    HW1 1476   0.889   8.018   3.277
33193SOL    HW2 1477   0.826   7.919   3.373
33194SOL     OW 1478  14.640   9.802   2.986
33194SOL    HW1 1479  14.717   9.796   2.928
33194SOL    HW2 1480  14.581   9.734   2.954
33195SOL     OW 1481   1.765   6.401  10.179
33195SOL    HW1 1482   1.688   6.376  10.130
33195SOL    HW2 1483   1.749   6.493  10.203
33196SOL     OW 1484  12.213   7.833  13.254
33196SOL    HW1 1485  12.126   7.874  13.256
33196SOL    HW2 1486  12.196   7.740  13.269
33197SOL     OW 1487   7.666  10.780  14.444
33197SOL    HW1 1488   7.732  10.803  14.378
33197SOL    HW2 1489   7.643  10.863  14.485
33198SOL     OW 1490   6.031   7.509   8.146
33198SOL    HW1 1491   6.107   7.552   8.106
33198SOL    HW2 1492   5.990   7.578   8.199
33199SOL     OW 1493  12.503  13.966  11.772
33199SOL    HW1 1494  12.472  13.876  11.776
33199SOL    HW2 1495  12.423  14.019  11.779
33200SOL     OW 1496   6.009   8.687   5.255
33200SOL    HW1 1497   6.060   8.659   5.332
33200SOL    HW2 1498   5.988   8.605   5.210
33201SOL     OW 1499   6.415  11.137   2.442
33201SOL    HW1 1500   6.356  11.129   2.516
33201SOL    HW2 1501   6.384  11.213   2.394
33202SOL     OW 1502  12.247   2.706   5.991
33202SOL    HW1 1503  12.284   2.672   6.072
33202SOL    HW2 1504  12.164   2.745   6.018
33203SOL     OW 1505   2.730  10.238  12.133
33203SOL    HW1 1506   2.823  10.218  12.121
33203SOL    HW2 1507   2.685  10.187  12.066
33204SOL     OW 1508   8.689   5.527   6.764
33204SOL    HW1 1509   8.630   5.602   6.768
33204SOL    HW2 1510   8.639   5.456   6.805
33205SOL     OW 1511  12.945   9.358   6.924
33205SOL    HW1 1512  12.896   9.423   6.874
33205SOL    HW2 1513  12.896   9.276   6.912
33206SOL     OW 1514  11.174   2.973   8.819
33206SOL    HW1 1515  11.116   2.933   8.754
33206SOL    HW2 1516  11.259   2.980   8.775
33207SOL     OW 1517   6.173  12.449  11.025
33207SOL    HW1 1518   6.204  12.422  10.939
33207SOL    HW2 1519   6.164  12.544  11.018
33208SOL     OW 1520  10.447   8.862  10.239
33208SOL    HW1 1521  10.513   8.875  10.307
33208SOL    HW2 1522  10.406   8.779  10.261
33209SOL     OW 1523  10.714   3.885   4.294
33209SOL    HW1 1524  10.808   3.865   4.292
33209SOL    HW2 1525  10.707   3.960   4.353
33210SOL     OW 1526  10.156  14.375   6.973
33210SOL    HW1 1527  10.075  14.378   6.921
33210SOL    HW2 1528  10.130  14.404   7.060
33211SOL     OW 1529  12.161   8.954   9.130
33211SOL    HW1 1530  12.093   9.004   9.086
33211SOL    HW2 1531  12.114   8.900   9.194
33212SOL     OW 1532   9.443   3.747   6.088
33212SOL    HW1 1533   9.510   3.810   6.061
33212SOL    HW2 1534   9.492   3.667   6.105
33213SOL     OW 1535   9.254  10.594   5.763
33213SOL    HW1 1536   9.269  10.568   5.854
33213SOL    HW2 1537   9.277  10.687   5.760
33214SOL     OW 1538  11.770   1.009   0.596
33214SOL    HW1 1539  11.757   0.983   0.687
33214SOL    HW2 1540  11.861   0.987   0.577
33215SOL     OW 1541  12.795  14.764  13.840
33215SOL    HW1 1542  12.795  14.698  13.909
33215SOL    HW2 1543  12.886  14.796  13.838
33216SOL     OW 1544  11.257   4.294   9.748
33216SOL    HW1 1545  11.211   4.373   9.774
33216SOL    HW2 1546  11.246   4.289   9.654
33217SOL     OW 1547  13.017   2.584   6.790
33217SOL    HW1 1548  13.087   2.620   6.736
33217SOL    HW2 1549  12.959   2.539   6.728
33218SOL     OW 1550  11.356   5.158   6.455
33218SOL    HW1 1551  11.369   5.249   6.428
33218SOL    HW2 1552  11.312   5.117   6.381
33219SOL     OW 1553  11.785   1.082  10.504
33219SOL    HW1 1554  11.838   1.160  10.517
33219SOL    HW2 1555  11.695   1.113  10.502
33220SOL     OW 1556   1.231   2.031  10.176
33220SOL    HW1 1557   1.211   2.121  10.201
33220SOL    HW2 1558   1.325   2.032  10.157
33221SOL     OW 1559   9.741   3.652   0.932
33221SOL    HW1 1560   9.813   3.712   0.949
33221SOL    HW2 1561   9.756   3.622   0.842
33222SOL     OW 1562   8.041   9.527   5.440
33222SOL    HW1 1563   8.076   9.616   5.441
33222SOL    HW2 1564   8.047   9.498   5.531
33223SOL     OW 1565   0.873  10.177  12.940
33223SOL    HW1 1566   0.946  10.208  12.887
33223SOL    HW2 1567   0.800  10.169  12.879
33224SOL     OW 1568  12.840  11.744  14.419
33224SOL    HW1 1569  12.888  11.793  14.353
33224SOL    HW2 1570  12.749  11.770  14.407
33225SOL     OW 1571  14.675   0.267  11.911
33225SOL    HW1 1572  14.694   0.213  11.987
33225SOL    HW2 1573  14.724   0.347  11.926
33226SOL     OW 1574   6.575  12.245   5.804
33226SOL    HW1 1575   6.487  12.251   5.767
33226SOL    HW2 1576   6.566  12.188   5.880
33227SOL     OW 1577   9.892   0.115   3.544
33227SOL    HW1 1578   9.912   0.205   3.519
33227SOL    HW2 1579   9.955   0.095   3.613
33228SOL     OW 1580   9.966   9.963  13.742
33228SOL    HW1 1581   9.943  10.049  13.776
33228SOL    HW2 1582  10.031   9.981  13.673
33229SOL     OW 1583   0.348   5.509   6.480
33229SOL    HW1 1584   0.419   5.529   6.540
33229SOL    HW2 1585   0.325   5.418   6.499
33230SOL     OW 1586   3.215   6.917   1.706
33230SOL    HW1 1587   3.250   6.921   1.617
33230SOL    HW2 1588   3.257   6.990   1.752
33231SOL     OW 1589   3.548   5.193   2.032
33231SOL    HW1 1590   3.504   5.179   1.948
33231SOL    HW2 1591   3.635   5.227   2.008
33232SOL     OW 1592   7.044   6.465  13.240
33232SOL    HW1 1593   7.005   6.413  13.170
33232SOL    HW2 1594   7.110   6.408  13.280
33233SOL     OW 1595   9.012   2.133   4.382
33233SOL    HW1 1596   9.067   2.070   4.335
33233SOL    HW2 1597   9.024   2.111   4.474
33234SOL     OW 1598  10.184   8.709  12.611
33234SOL    HW1 1599  10.160   8.795  12.644
33234SOL    HW2 1600  10.149   8.707  12.522
33235SOL     OW 1601   7.740  10.216   5.115
33235SOL    HW1 1602   7.673  10.265   5.068
33235SOL    HW2 1603   7.823  10.253   5.086
33236SOL     OW 1604   9.000   8.276   8.085
33236SOL    HW1 1605   8.956   8.360   8.099
33236SOL    HW2 1606   9.091   8.300   8.069
33237SOL     OW 1607   8.122  12.620   4.953
33237SOL    HW1 1608   8.104  12.581   4.868
33237SOL    HW2 1609   8.037  12.648   4.986
33238SOL     OW 1610   1.015  13.202  10.290
33238SOL    HW1 1611   1.085  13.137  10.283
33238SOL    HW2 1612   1.017  13.230  10.381
33239SOL     OW 1613   2.479   1.172  14.304
33239SOL    HW1 1614   2.486   1.246  14.364
33239SOL    HW2 1615   2.425   1.205  14.232
33240SOL     OW 1616   7.311  11.204   2.405
33240SOL    HW1 1617   7.313  11.257   2.485
33240SOL    HW2 1618   7.305  11.268   2.334
33241SOL     OW 1619   6.531   2.742   4.221
33241SOL    HW1 1620   6.516   2.824   4.269
33241SOL    HW2 1621   6.489   2.758   4.136
33242SOL     OW 1622   6.490  10.028   6.157
33242SOL    HW1 1623   6.448   9.955   6.201
33242SOL    HW2 1624   6.450  10.106   6.196
33243SOL     OW 1625   1.528   1.358  11.345
33243SOL    HW1 1626   1.462   1.314  11.292
33243SOL    HW2 1627   1.517   1.323  11.433
33244SOL     OW 1628  12.631   1.205   0.017
33244SOL    HW1 1629  12.636   1.256  14.814
33244SOL    HW2 1630  12.618   1.115  14.866
33245SOL     OW 1631   8.903   3.981   9.535
33245SOL    HW1 1632   8.868   4.069   9.546
33245SOL    HW2 1633   8.837   3.924   9.577
33246SOL     OW 1634  12.761  12.422  10.139
33246SOL    HW1 1635  12.792  12.511  10.161
33246SOL    HW2 1636  12.756  12.421  10.044
33247SOL     OW 1637   1.065   9.595   6.808
33247SOL    HW1 1638   1.045   9.657   6.737
33247SOL    HW2 1639   1.151   9.622   6.840
33248SOL     OW 1640  10.229   8.416   8.092
33248SOL    HW1 1641  10.164   8.483   8.071
33248SOL    HW2 1642  10.177   8.336   8.103
33249SOL     OW 1643   6.590  10.118   3.879
33249SOL    HW1 1644   6.630  10.197   3.845
33249SOL    HW2 1645   6.585  10.059   3.804
33250SOL     OW 1646   6.781   2.607  10.746
33250SOL    HW1 1647   6.769   2.551  10.670
33250SOL    HW2 1648   6.762   2.696  10.713
33251SOL     OW 1649   4.709   0.042   1.291
33251SOL    HW1 1650   4.752   0.083   1.367
33251SOL    HW2 1651   4.726  14.826   1.302
33252SOL     OW 1652  13.815  12.117   7.947
33252SOL    HW1 1653  13.869  12.063   8.005
33252SOL    HW2 1654  13.786  12.057   7.878
33253SOL     OW 1655  11.631   2.120  13.015
33253SOL    HW1 1656  11.669   2.041  12.975
33253SOL    HW2 1657  11.567   2.086  13.078
33254SOL     OW 1658   2.287   9.831  12.879
33254SOL    HW1 1659   2.381   9.832  12.863
33254SOL    HW2 1660   2.278   9.789  12.965
33255SOL     OW 1661   7.487   7.682   1.731
33255SOL    HW1 1662   7.491   7.777   1.728
33255SOL    HW2 1663   7.579   7.655   1.740
33256SOL     OW 1664   3.841  10.022  13.854
33256SOL    HW1 1665   3.771  10.087  13.850
33256SOL    HW2 1666   3.796   9.937  13.845
33257SOL     OW 1667  12.339  13.800   7.904
33257SOL    HW1 1668  12.357  13.744   7.980
33257SOL    HW2 1669  12.291  13.744   7.843
33258SOL     OW 1670   1.462   8.785   7.409
33258SOL    HW1 1671   1.408   8.864   7.409
33258SOL    HW2 1672   1.539   8.809   7.460
33259SOL     OW 1673   2.296   4.813   7.469
33259SOL    HW1 1674   2.343   4.778   7.394
33259SOL    HW2 1675   2.287   4.907   7.451
33260SOL     OW 1676   0.855   3.727   6.200
33260SOL    HW1 1677   0.793   3.706   6.131
33260SOL    HW2 1678   0.825   3.677   6.276
33261SOL     OW 1679  14.395   3.502   9.308
33261SOL    HW1 1680  14.443   3.435   9.258
33261SOL    HW2 1681  14.455   3.524   9.380
33262SOL     OW 1682   3.943   1.591   4.565
33262SOL    HW1 1683   3.929   1.684   4.580
33262SOL    HW2 1684   4.037   1.582   4.549
33263SOL     OW 1685  13.486  10.549  11.303
33263SOL    HW1 1686  13.399  10.523  11.272
33263SOL    HW2 1687  13.513  10.618  11.243
33264SOL     OW 1688   6.807  12.719   6.269
33264SOL    HW1 1689   6.770  12.656   6.330
33264SOL    HW2 1690   6.737  12.782   6.253
33265SOL     OW 1691   7.254   4.455  10.953
33265SOL    HW1 1692   7.264   4.474  10.859
33265SOL    HW2 1693   7.285   4.535  10.996
33266SOL     OW 1694   7.770   8.643  11.158
33266SOL    HW1 1695   7.739   8.595  11.081
33266SOL    HW2 1696   7.785   8.576  11.224
33267SOL     OW 1697   8.445  14.492  12.784
33267SOL    HW1 1698   8.364  14.541  12.796
33267SOL    HW2 1699   8.438  14.419  12.844
33268SOL     OW 1700   3.737   0.902   8.830
33268SOL    HW1 1701   3.804   0.876   8.892
33268SOL    HW2 1702   3.699   0.981   8.867
33269SOL     OW 1703  13.568   6.908  12.226
33269SOL    HW1 1704  13.568   6.900  12.321
33269SOL    HW2 1705  13.502   6.975  12.207
33270SOL     OW 1706  13.904   3.494   6.032
33270SOL    HW1 1707  13.916   3.575   6.082
33270SOL    HW2 1708  13.811   3.493   6.010
33271SOL     OW 1709   2.743   8.993   9.556
33271SOL    HW1 1710   2.749   9.044   9.475
33271SOL    HW2 1711   2.649   8.981   9.570
33272SOL     OW 1712   1.170   2.840  13.583
33272SOL    HW1 1713   1.242   2.818  13.643
33272SOL    HW2 1714   1.091   2.834  13.637
33273SOL     OW 1715   9.796   3.944   0.391
33273SOL    HW1 1716   9.734   3.976   0.457
33273SOL    HW2 1717   9.860   3.894   0.440
33274SOL     OW 1718   6.567  10.857   5.015
33274SOL    HW1 1719   6.486  10.812   4.992
33274SOL    HW2 1720   6.601  10.808   5.090
33275SOL     OW 1721  14.011   5.738   0.230
33275SOL    HW1 1722  14.090   5.689   0.254
33275SOL    HW2 1723  13.985   5.783   0.311
33276SOL     OW 1724   6.404   7.276   8.371
33276SOL    HW1 1725   6.454   7.195   8.362
33276SOL    HW2 1726   6.318   7.255   8.335
33277SOL     OW 1727   9.564   8.350   6.438
33277SOL    HW1 1728   9.624   8.424   6.443
33277SOL    HW2 1729   9.513   8.366   6.359
33278SOL     OW 1730   8.644  10.665   7.926
33278SOL    HW1 1731   8.586  10.732   7.963
33278SOL    HW2 1732   8.706  10.714   7.871
33279SOL     OW 1733   4.165   3.911   5.808
33279SOL    HW1 1734   4.229   3.918   5.879
33279SOL    HW2 1735   4.166   3.997   5.766
33280SOL     OW 1736   1.914  11.845   3.235
33280SOL    HW1 1737   1.887  11.813   3.321
33280SOL    HW2 1738   1.913  11.941   3.244
33281SOL     OW 1739   1.435   4.598  11.583
33281SOL    HW1 1740   1.470   4.577  11.497
33281SOL    HW2 1741   1.374   4.670  11.569
33282SOL     OW 1742   6.534   0.569  14.193
33282SOL    HW1 1743   6.589   0.636  14.152
33282SOL    HW2 1744   6.562   0.487  14.153
33283SOL     OW 1745  14.702   3.361   2.988
33283SOL    HW1 1746  14.635   3.428   3.000
33283SOL    HW2 1747  14.682   3.323   2.902
33284SOL     OW 1748   6.389  13.174   8.747
33284SOL    HW1 1749   6.435  13.250   8.783
33284SOL    HW2 1750   6.297  13.187   8.773
33285SOL     OW 1751  10.198   9.670   2.398
33285SOL    HW1 1752  10.261   9.741   2.386
33285SOL    HW2 1753  10.145   9.671   2.319
33286SOL     OW 1754  13.735  11.181  12.413
33286SOL    HW1 1755  13.676  11.194  12.339
33286SOL    HW2 1756  13.679  11.149  12.484
33287SOL     OW 1757  12.648   4.221  12.940
33287SOL    HW1 1758  12.580   4.275  12.980
33287SOL    HW2 1759  12.604   4.139  12.919
33288SOL     OW 1760   9.929   7.007   7.949
33288SOL    HW1 1761   9.889   6.923   7.971
33288SOL    HW2 1762   9.856   7.060   7.917
33289SOL     OW 1763   1.464  10.841  13.607
33289SOL    HW1 1764   1.539  10.855  13.549
33289SOL    HW2 1765   1.398  10.902  13.574
33290SOL     OW 1766  13.983   6.620  13.602
33290SOL    HW1 1767  13.949   6.654  13.519
33290SOL    HW2 1768  13.917   6.556  13.630
33291SOL     OW 1769  10.212   3.358   4.320
33291SOL    HW1 1770  10.285   3.322   4.371
33291SOL    HW2 1771  10.208   3.450   4.346
33292SOL     OW 1772  12.379   3.832  12.617
33292SOL    HW1 1773  12.341   3.816  12.531
33292SOL    HW2 1774  12.305   3.856  12.672
33293SOL     OW 1775   8.441  10.332  10.109
33293SOL    HW1 1776   8.535  10.320  10.121
33293SOL    HW2 1777   8.419  10.274  10.036
33294SOL     OW 1778   8.004   2.084  11.050
33294SOL    HW1 1779   7.935   2.088  10.985
33294SOL    HW2 1780   8.085   2.089  10.999
33295SOL     OW 1781   5.027  12.455   0.862
33295SOL    HW1 1782   4.988  12.463   0.775
33295SOL    HW2 1783   4.975  12.511   0.918
33296SOL     OW 1784   0.265  10.885   6.703
33296SOL    HW1 1785   0.228  10.908   6.789
33296SOL    HW2 1786   0.296  10.969   6.668
33297SOL     OW 1787   3.621   4.035   8.994
33297SOL    HW1 1788   3.582   3.990   9.069
33297SOL    HW2 1789   3.574   4.001   8.918
33298SOL     OW 1790  13.682   4.002   2.386
33298SOL    HW1 1791  13.651   4.014   2.475
33298SOL    HW2 1792  13.751   3.936   2.393
33299SOL     OW 1793   1.375  10.561   3.105
33299SOL    HW1 1794   1.417  10.488   3.150
33299SOL    HW2 1795   1.418  10.639   3.140
33300SOL     OW 1796  14.140  10.866   4.011
33300SOL    HW1 1797  14.209  10.813   3.970
33300SOL    HW2 1798  14.126  10.824   4.096
33301SOL     OW 1799   8.882   5.910   6.883
33301SOL    HW1 1800   8.886   6.005   6.886
33301SOL    HW2 1801   8.895   5.882   6.974
33302SOL     OW 1802   0.529   4.389  10.056
33302SOL    HW1 1803   0.605   4.331  10.062
33302SOL    HW2 1804   0.553   4.464  10.110
33303SOL     OW 1805   4.759   6.282   6.014
33303SOL    HW1 1806   4.847   6.270   5.978
33303SOL    HW2 1807   4.774   6.319   6.101
33304SOL     OW 1808   3.026   3.817  12.432
33304SOL    HW1 1809   3.021   3.742  12.373
33304SOL    HW2 1810   3.092   3.875  12.394
33305SOL     OW 1811   4.013   5.367   6.131
33305SOL    HW1 1812   3.993   5.440   6.189
33305SOL    HW2 1813   4.018   5.406   6.044
33306SOL     OW 1814   0.619   7.568   9.035
33306SOL    HW1 1815   0.539   7.565   9.088
33306SOL    HW2 1816   0.689   7.579   9.099
33307SOL     OW 1817  10.167   1.955   9.357
33307SOL    HW1 1818  10.152   1.882   9.417
33307SOL    HW2 1819  10.095   2.016   9.375
33308SOL     OW 1820   5.992   2.977   2.102
33308SOL    HW1 1821   5.920   2.982   2.163
33308SOL    HW2 1822   5.965   2.911   2.038
33309SOL     OW 1823  14.108   8.648  10.708
33309SOL    HW1 1824  14.170   8.603  10.766
33309SOL    HW2 1825  14.119   8.741  10.728
33310SOL     OW 1826   6.300   1.912   3.870
33310SOL    HW1 1827   6.224   1.927   3.926
33310SOL    HW2 1828   6.326   1.999   3.840
33311SOL     OW 1829  10.028  12.947   7.579
33311SOL    HW1 1830  10.060  12.966   7.668
33311SOL    HW2 1831  10.103  12.966   7.522
33312SOL     OW 1832  11.067   4.939   1.707
33312SOL    HW1 1833  11.081   5.031   1.729
33312SOL    HW2 1834  10.975   4.922   1.728
33313SOL     OW 1835   6.977  13.957  12.017
33313SOL    HW1 1836   6.973  14.039  12.066
33313SOL    HW2 1837   6.890  13.948  11.978
33314SOL     OW 1838   0.539  12.764   6.079
33314SOL    HW1 1839   0.622  12.768   6.031
33314SOL    HW2 1840   0.478  12.816   6.027
33315SOL     OW 1841   2.960   8.560   0.281
33315SOL    HW1 1842   2.875   8.540   0.320
33315SOL    HW2 1843   2.950   8.650   0.247
33316SOL     OW 1844   8.546   9.486   4.267
33316SOL    HW1 1845   8.500   9.498   4.350
33316SOL    HW2 1846   8.513   9.403   4.234
33317SOL     OW 1847   9.323   2.093   4.222
33317SOL    HW1 1848   9.350   2.051   4.141
33317SOL    HW2 1849   9.404   2.124   4.261
33318SOL     OW 1850   5.278   7.318   7.016
33318SOL    HW1 1851   5.201   7.373   7.005
33318SOL    HW2 1852   5.311   7.339   7.103
33319SOL     OW 1853  13.651   9.225   5.839
33319SOL    HW1 1854  13.699   9.228   5.757
33319SOL    HW2 1855  13.711   9.184   5.901
33320SOL     OW 1856  14.370  10.984   4.833
33320SOL    HW1 1857  14.343  11.014   4.920
33320SOL    HW2 1858  14.361  10.889   4.838
33321SOL     OW 1859  14.298   2.674   8.150
33321SOL    HW1 1860  14.333   2.618   8.219
33321SOL    HW2 1861  14.317   2.627   8.069
33322SOL     OW 1862   7.717  10.479   6.523
33322SOL    HW1 1863   7.694  10.493   6.614
33322SOL    HW2 1864   7.812  10.494   6.519
33323SOL     OW 1865  12.824   8.054  10.087
33323SOL    HW1 1866  12.898   8.066  10.147
33323SOL    HW2 1867  12.764   8.125  10.110
33324SOL     OW 1868   4.334   9.559   0.569
33324SOL    HW1 1869   4.267   9.495   0.542
33324SOL    HW2 1870   4.293   9.606   0.641
33325SOL     OW 1871   9.199   1.767   8.751
33325SOL    HW1 1872   9.158   1.773   8.837
33325SOL    HW2 1873   9.175   1.848   8.707
33326SOL     OW 1874  10.528   4.254   5.514
33326SOL    HW1 1875  10.506   4.340   5.549
33326SOL    HW2 1876  10.445   4.208   5.509
33327SOL     OW 1877   5.712   3.717   1.826
33327SOL    HW1 1878   5.757   3.762   1.754
33327SOL    HW2 1879   5.670   3.788   1.876
33328SOL     OW 1880   3.070  10.287   6.884
33328SOL    HW1 1881   3.145  10.310   6.939
33328SOL    HW2 1882   3.107  10.232   6.815
33329SOL     OW 1883   3.549   8.473  10.429
33329SOL    HW1 1884   3.531   8.566  10.415
33329SOL    HW2 1885   3.538   8.461  10.524
33330SOL     OW 1886   5.196   1.394   1.735
33330SOL    HW1 1887   5.250   1.440   1.671
33330SOL    HW2 1888   5.172   1.313   1.692
33331SOL     OW 1889   4.551   0.901   2.439
33331SOL    HW1 1890   4.511   0.944   2.363
33331SOL    HW2 1891   4.555   0.969   2.506
33332SOL     OW 1892   2.210   7.485  13.503
33332SOL    HW1 1893   2.237   7.405  13.458
33332SOL    HW2 1894   2.286   7.509  13.556
33333SOL     OW 1895   9.099   6.882   1.479
33333SOL    HW1 1896   9.050   6.917   1.405
33333SOL    HW2 1897   9.188   6.871   1.447
33334SOL     OW 1898  14.572  13.975   2.807
33334SOL    HW1 1899  14.513  13.906   2.778
33334SOL    HW2 1900  14.557  13.983   2.901
33335SOL     OW 1901  11.139   2.538   9.602
33335SOL    HW1 1902  11.080   2.522   9.528
33335SOL    HW2 1903  11.080   2.567   9.672
33336SOL     OW 1904  14.289   7.956   4.961
33336SOL    HW1 1905  14.377   7.954   4.999
33336SOL    HW2 1906  14.271   7.865   4.939
33337SOL     OW 1907   4.965   5.794   5.131
33337SOL    HW1 1908   5.030   5.761   5.193
33337SOL    HW2 1909   4.881   5.783   5.175
33338SOL     OW 1910   8.886   2.155  11.922
33338SOL    HW1 1911   8.896   2.117  11.835
33338SOL    HW2 1912   8.885   2.079  11.981
33339SOL     OW 1913   1.165  10.807   5.987
33339SOL    HW1 1914   1.114  10.726   5.997
33339SOL    HW2 1915   1.208  10.819   6.072
33340SOL     OW 1916   7.311   9.094   7.033
33340SOL    HW1 1917   7.357   9.019   6.996
33340SOL    HW2 1918   7.219   9.076   7.016
33341SOL     OW 1919   3.553   9.353   6.962
33341SOL    HW1 1920   3.627   9.296   6.946
33341SOL    HW2 1921   3.592   9.439   6.980
33342SOL     OW 1922   1.962   3.387   8.865
33342SOL    HW1 1923   2.002   3.311   8.824
33342SOL    HW2 1924   2.019   3.408   8.939
33343SOL     OW 1925   0.981   4.341  10.698
33343SOL    HW1 1926   0.968   4.332  10.604
33343SOL    HW2 1927   0.904   4.302  10.738
33344SOL     OW 1928   0.677   7.078  14.117
33344SOL    HW1 1929   0.605   7.045  14.171
33344SOL    HW2 1930   0.706   7.157  14.163
33345SOL     OW 1931   1.784   8.700   6.225
33345SOL    HW1 1932   1.824   8.759   6.289
33345SOL    HW2 1933   1.831   8.717   6.144
33346SOL     OW 1934   2.481   7.657   5.395
33346SOL    HW1 1935   2.534   7.638   5.318
33346SOL    HW2 1936   2.535   7.631   5.469
33347SOL     OW 1937  10.128   7.828  13.076
33347SOL    HW1 1938  10.135   7.783  12.991
33347SOL    HW2 1939  10.035   7.850  13.083
33348SOL     OW 1940   2.198  13.454   9.407
33348SOL    HW1 1941   2.285  13.451   9.369
33348SOL    HW2 1942   2.166  13.542   9.388
33349SOL     OW 1943   7.308  13.780   2.998
33349SOL    HW1 1944   7.369  13.711   3.024
33349SOL    HW2 1945   7.228  13.734   2.975
33350SOL     OW 1946  11.093   4.447  12.862
33350SOL    HW1 1947  11.156   4.398  12.810
33350SOL    HW2 1948  11.010   4.439  12.815
33351SOL     OW 1949   2.332   4.955   3.204
33351SOL    HW1 1950   2.319   4.861   3.216
33351SOL    HW2 1951   2.297   4.994   3.284
33352SOL     OW 1952   9.649  12.984   0.060
33352SOL    HW1 1953   9.688  13.071   0.063
33352SOL    HW2 1954   9.652  12.953   0.151
33353SOL     OW 1955  13.040  13.872   6.411
33353SOL    HW1 1956  13.033  13.798   6.471
33353SOL    HW2 1957  12.984  13.849   6.337
33354SOL     OW 1958   0.334   2.744  12.610
33354SOL    HW1 1959   0.396   2.672  12.602
33354SOL    HW2 1960   0.296   2.753  12.523
33355SOL     OW 1961   3.207  10.791   1.920
33355SOL    HW1 1962   3.141  10.758   1.859
33355SOL    HW2 1963   3.280  10.818   1.864
33356SOL     OW 1964  13.743   1.067   5.613
33356SOL    HW1 1965  13.704   1.057   5.700
33356SOL    HW2 1966  13.675   1.036   5.552
33357SOL     OW 1967  14.004   2.214   2.342
33357SOL    HW1 1968  13.972   2.301   2.365
33357SOL    HW2 1969  14.087   2.205   2.388
33358SOL     OW 1970  13.994  12.724   2.631
33358SOL    HW1 1971  13.922  12.720   2.694
33358SOL    HW2 1972  14.000  12.816   2.607
33359SOL     OW 1973  13.259  12.266   4.312
33359SOL    HW1 1974  13.172  12.244   4.347
33359SOL    HW2 1975  13.253  12.244   4.219
33360SOL     OW 1976   1.811   0.946   1.739
33360SOL    HW1 1977   1.892   0.912   1.700
33360SOL    HW2 1978   1.824   1.041   1.742
33361SOL     OW 1979   1.713  13.633  14.507
33361SOL    HW1 1980   1.625  13.644  14.542
33361SOL    HW2 1981   1.756  13.717  14.522
33362SOL     OW 1982   4.345   5.687   6.953
33362SOL    HW1 1983   4.305   5.653   6.872
33362SOL    HW2 1984   4.271   5.700   7.012
33363SOL     OW 1985  14.676   4.935   3.602
33363SOL    HW1 1986  14.630   5.016   3.625
33363SOL    HW2 1987  14.722   4.956   3.521
33364SOL     OW 1988   5.188   4.501   3.778
33364SOL    HW1 1989   5.169   4.408   3.788
33364SOL    HW2 1990   5.259   4.504   3.714
33365SOL     OW 1991  12.442  13.630  13.494
33365SOL    HW1 1992  12.474  13.682  13.421
33365SOL    HW2 1993  12.433  13.541  13.459
33366SOL     OW 1994   1.394   7.261   8.390
33366SOL    HW1 1995   1.349   7.314   8.456
33366SOL    HW2 1996   1.402   7.175   8.429
33367SOL     OW 1997   0.927  12.452   0.943
33367SOL    HW1 1998   0.970  12.373   0.909
33367SOL    HW2 1999   0.967  12.466   1.028
33368SOL     OW 2000  12.089   0.911   6.060
33368SOL    HW1 2001  12.153   0.963   6.012
33368SOL    HW2 2002  12.136   0.832   6.085
33369SOL     OW 2003   7.446  12.173   9.834
33369SOL    HW1 2004   7.356  12.205   9.835
33369SOL    HW2 2005   7.443  12.097   9.775
33370SOL     OW 2006   4.565  11.175  13.876
33370SOL    HW1 2007   4.567  11.083  13.849
33370SOL    HW2 2008   4.595  11.223  13.799
33371SOL     OW 2009  11.623   8.261   8.570
33371SOL    HW1 2010  11.631   8.215   8.487
33371SOL    HW2 2011  11.637   8.353   8.548
33372SOL     OW 2012   2.408   3.811  13.658
33372SOL    HW1 2013   2.356   3.734  13.681
33372SOL    HW2 2014   2.457   3.784  13.580
33373SOL     OW 2015   2.157   7.604   9.009
33373SOL    HW1 2016   2.228   7.657   8.973
33373SOL    HW2 2017   2.086   7.667   9.026
33374SOL     OW 2018  14.767  12.205   2.225
33374SOL    HW1 2019  14.814  12.287   2.212
33374SOL    HW2 2020  14.707  12.200   2.150
33375SOL     OW 2021   3.704   0.688   6.049
33375SOL    HW1 2022   3.722   0.747   5.975
33375SOL    HW2 2023   3.615   0.711   6.076
33376SOL     OW 2024   9.372  13.066  12.156
33376SOL    HW1 2025   9.302  13.005  12.133
33376SOL    HW2 2026   9.355  13.091  12.246
33377SOL     OW 2027  14.219   0.325   0.387
33377SOL    HW1 2028  14.294   0.318   0.446
33377SOL    HW2 2029  14.173   0.241   0.397
33378SOL     OW 2030   6.576   9.360   2.412
33378SOL    HW1 2031   6.645   9.418   2.444
33378SOL    HW2 2032   6.495   9.411   2.422
33379SOL     OW 2033   7.286  13.543   5.828
33379SOL    HW1 2034   7.366  13.501   5.860
33379SOL    HW2 2035   7.218  13.511   5.888
33380SOL     OW 2036   4.435   7.817   3.673
33380SOL    HW1 2037   4.386   7.863   3.742
33380SOL    HW2 2038   4.517   7.793   3.715
33381SOL     OW 2039  13.407   9.045  11.089
33381SOL    HW1 2040  13.360   8.963  11.095
33381SOL    HW2 2041  13.498   9.020  11.076
33382SOL     OW 2042  13.160   3.578   2.309
33382SOL    HW1 2043  13.204   3.499   2.342
33382SOL    HW2 2044  13.192   3.649   2.364
33383SOL     OW 2045   6.125   2.760   3.738
33383SOL    HW1 2046   6.220   2.771   3.750
33383SOL    HW2 2047   6.117   2.687   3.678
33384SOL     OW 2048   8.683   2.448   4.424
33384SOL    HW1 2049   8.638   2.374   4.384
33384SOL    HW2 2050   8.623   2.522   4.413
33385SOL     OW 2051   5.497  13.220   0.199
33385SOL    HW1 2052   5.540  13.134   0.201
33385SOL    HW2 2053   5.503  13.252   0.289
33386SOL     OW 2054   1.844   5.396   5.570
33386SOL    HW1 2055   1.912   5.442   5.521
33386SOL    HW2 2056   1.769   5.394   5.510
33387SOL     OW 2057  13.324   4.082   1.469
33387SOL    HW1 2058  13.310   4.066   1.562
33387SOL    HW2 2059  13.256   4.145   1.444
33388SOL     OW 2060   6.250   9.848  13.779
33388SOL    HW1 2061   6.301   9.861  13.699
33388SOL    HW2 2062   6.242   9.936  13.816
33389SOL     OW 2063  14.135   3.770  14.617
33389SOL    HW1 2064  14.132   3.771  14.712
33389SOL    HW2 2065  14.084   3.692  14.592
33390SOL     OW 2066   5.127   5.706   3.441
33390SOL    HW1 2067   5.188   5.775   3.414
33390SOL    HW2 2068   5.118   5.719   3.536
33391SOL     OW 2069   9.850  14.653  10.286
33391SOL    HW1 2070   9.901  14.732  10.306
33391SOL    HW2 2071   9.796  14.639  10.364
33392SOL     OW 2072   0.474  13.184  14.782
33392SOL    HW1 2073   0.523  13.265  14.768
33392SOL    HW2 2074   0.533  13.129  14.834
33393SOL     OW 2075  14.272   3.397  14.590
33393SOL    HW1 2076  14.331   3.342  14.539
33393SOL    HW2 2077  14.329   3.444  14.651
33394SOL     OW 2078   0.579   6.617   7.086
33394SOL    HW1 2079   0.650   6.582   7.140
33394SOL    HW2 2080   0.618   6.630   7.000
33395SOL     OW 2081   0.972   5.670  12.114
33395SOL    HW1 2082   1.020   5.615  12.052
33395SOL    HW2 2083   0.895   5.620  12.137
33396SOL     OW 2084   1.973   3.597   1.287
33396SOL    HW1 2085   1.902   3.628   1.231
33396SOL    HW2 2086   2.031   3.672   1.296
33397SOL     OW 2087   0.763   5.136   7.636
33397SOL    HW1 2088   0.714   5.054   7.633
33397SOL    HW2 2089   0.832   5.125   7.571
33398SOL     OW 2090   1.514   5.372   1.112
33398SOL    HW1 2091   1.525   5.439   1.044
33398SOL    HW2 2092   1.422   5.347   1.107
33399SOL     OW 2093   8.759   8.018  10.648
33399SOL    HW1 2094   8.795   8.082  10.710
33399SOL    HW2 2095   8.750   7.938  10.699
33400SOL     OW 2096   9.200   4.588  10.736
33400SOL    HW1 2097   9.245   4.672  10.749
33400SOL    HW2 2098   9.270   4.528  10.710
33401SOL     OW 2099   2.631   0.643   0.895
33401SOL    HW1 2100   2.705   0.610   0.845
33401SOL    HW2 2101   2.643   0.605   0.982
33402SOL     OW 2102   8.210  14.678  13.926
33402SOL    HW1 2103   8.191  14.772  13.918
33402SOL    HW2 2104   8.254  14.670  14.010
33403SOL     OW 2105   8.012   9.494   8.129
33403SOL    HW1 2106   7.970   9.425   8.180
33403SOL    HW2 2107   7.941   9.535   8.079
33404SOL     OW 2108   9.203   4.343   8.010
33404SOL    HW1 2109   9.126   4.400   8.007
33404SOL    HW2 2110   9.257   4.382   8.079
33405SOL     OW 2111   1.394   6.690  14.454
33405SOL    HW1 2112   1.403   6.765  14.396
33405SOL    HW2 2113   1.328   6.635  14.412
33406SOL     OW 2114   7.742  11.237   2.875
33406SOL    HW1 2115   7.658  11.209   2.838
33406SOL    HW2 2116   7.746  11.331   2.854
33407SOL     OW 2117  10.637   9.881   9.341
33407SOL    HW1 2118  10.570   9.929   9.292
33407SOL    HW2 2119  10.612   9.789   9.330
33408SOL     OW 2120  11.705   9.641   5.006
33408SOL    HW1 2121  11.633   9.703   5.009
33408SOL    HW2 2122  11.781   9.694   4.982
33409SOL     OW 2123   4.688   2.614  14.584
33409SOL    HW1 2124   4.739   2.690  14.612
33409SOL    HW2 2125   4.732   2.539  14.625
33410SOL     OW 2126   0.122   7.316   5.743
33410SOL    HW1 2127   0.137   7.221   5.736
33410SOL    HW2 2128   0.171   7.341   5.821
33411SOL     OW 2129   3.731   4.510   0.379
33411SOL    HW1 2130   3.748   4.600   0.351
33411SOL    HW2 2131   3.810   4.462   0.355
33412SOL     OW 2132   6.727   7.667   9.282
33412SOL    HW1 2133   6.766   7.625   9.205
33412SOL    HW2 2134   6.758   7.758   9.277
33413SOL     OW 2135   5.291  10.153  11.432
33413SOL    HW1 2136   5.318  10.224  11.489
33413SOL    HW2 2137   5.289  10.075  11.488
33414SOL     OW 2138   5.100   9.926   9.206
33414SOL    HW1 2139   5.030   9.991   9.195
33414SOL    HW2 2140   5.146   9.954   9.285
33415SOL     OW 2141   9.497   1.085   4.188
33415SOL    HW1 2142   9.430   1.016   4.186
33415SOL    HW2 2143   9.564   1.051   4.249
33416SOL     OW 2144   0.046  10.855   0.500
33416SOL    HW1 2145   0.015  10.934   0.456
33416SOL    HW2 2146   0.085  10.802   0.431
33417SOL     OW 2147   5.993  10.019  11.843
33417SOL    HW1 2148   5.949   9.938  11.871
33417SOL    HW2 2149   6.000  10.010  11.748
33418SOL     OW 2150  13.462   5.796   6.972
33418SOL    HW1 2151  13.553   5.825   6.969
33418SOL    HW2 2152  13.464   5.716   7.026
33419SOL     OW 2153  13.467   8.736   2.713
33419SOL    HW1 2154  13.377   8.762   2.692
33419SOL    HW2 2155  13.498   8.804   2.773
33420SOL     OW 2156   7.296   7.317   8.648
33420SOL    HW1 2157   7.341   7.281   8.725
33420SOL    HW2 2158   7.334   7.269   8.574
33421SOL     OW 2159   9.437  13.201   6.190
33421SOL    HW1 2160   9.354  13.169   6.224
33421SOL    HW2 2161   9.416  13.285   6.150
33422SOL     OW 2162  12.867  14.677  13.252
33422SOL    HW1 2163  12.958  14.656  13.271
33422SOL    HW2 2164  12.836  14.606  13.197
33423SOL     OW 2165  13.407  11.579   2.483
33423SOL    HW1 2166  13.500  11.594   2.468
33423SOL    HW2 2167  13.398  11.483   2.480
33424SOL     OW 2168  11.367   5.878   5.111
33424SOL    HW1 2169  11.373   5.881   5.206
33424SOL    HW2 2170  11.273   5.880   5.092
33425SOL     OW 2171  11.789   3.761   7.498
33425SOL    HW1 2172  11.848   3.835   7.486
33425SOL    HW2 2173  11.771   3.759   7.592
33426SOL     OW 2174  14.052  11.649  13.132
33426SOL    HW1 2175  14.010  11.566  13.155
33426SOL    HW2 2176  14.083  11.684  13.216
33427SOL     OW 2177  12.864  11.958   3.566
33427SOL    HW1 2178  12.944  11.993   3.526
33427SOL    HW2 2179  12.807  11.937   3.492
33428SOL     OW 2180   8.715  12.323  10.664
33428SOL    HW1 2181   8.621  12.313  10.650
33428SOL    HW2 2182   8.734  12.267  10.738
33429SOL     OW 2183   2.467   0.647  14.307
33429SOL    HW1 2184   2.374   0.630  14.320
33429SOL    HW2 2185   2.480   0.736  14.340
33430SOL     OW 2186   0.988   5.104   4.387
33430SOL    HW1 2187   1.065   5.048   4.379
33430SOL    HW2 2188   0.924   5.050   4.433
33431SOL     OW 2189   1.572   9.153  10.906
33431SOL    HW1 2190   1.590   9.222  10.970
33431SOL    HW2 2191   1.616   9.182  10.826
33432SOL     OW 2192   4.198   6.552  10.700
33432SOL    HW1 2193   4.247   6.552  10.617
33432SOL    HW2 2194   4.254   6.600  10.761
33433SOL     OW 2195   3.654   2.628   6.647
33433SOL    HW1 2196   3.704   2.692   6.595
33433SOL    HW2 2197   3.597   2.586   6.583
33434SOL     OW 2198   3.316   8.415   6.227
33434SOL    HW1 2199   3.258   8.402   6.152
33434SOL    HW2 2200   3.350   8.504   6.216
33435SOL     OW 2201   4.349  13.291  13.737
33435SOL    HW1 2202   4.297  13.356  13.690
33435SOL    HW2 2203   4.377  13.336  13.817
33436SOL     OW 2204  14.613   1.382  13.055
33436SOL    HW1 2205  14.564   1.334  12.988
33436SOL    HW2 2206  14.656   1.314  13.107
33437SOL     OW 2207   3.848  14.544  11.794
33437SOL    HW1 2208   3.937  14.555  11.761
33437SOL    HW2 2209   3.860  14.507  11.882
33438SOL     OW 2210  11.288   6.019  14.486
33438SOL    HW1 2211  11.245   6.084  14.541
33438SOL    HW2 2212  11.350   6.068  14.433
33439SOL     OW 2213   9.820   5.460  13.981
33439SOL    HW1 2214   9.904   5.506  13.980
33439SOL    HW2 2215   9.839   5.375  13.941
33440SOL     OW 2216  13.442   6.469  10.008
33440SOL    HW1 2217  13.456   6.387   9.960
33440SOL    HW2 2218  13.402   6.441  10.091
33441SOL     OW 2219   2.001   4.856   0.113
33441SOL    HW1 2220   2.060   4.872   0.039
33441SOL    HW2 2221   2.034   4.911   0.183
33442SOL     OW 2222   2.917   1.904   7.528
33442SOL    HW1 2223   2.991   1.880   7.473
33442SOL    HW2 2224   2.948   1.893   7.617
33443SOL     OW 2225   6.838   3.131   0.251
33443SOL    HW1 2226   6.917   3.078   0.252
33443SOL    HW2 2227   6.819   3.148   0.344
33444SOL     OW 2228  13.196  14.708  10.537
33444SOL    HW1 2229  13.106  14.676  10.543
33444SOL    HW2 2230  13.213  14.713  10.443
33445SOL     OW 2231   2.444   9.635  10.316
33445SOL    HW1 2232   2.486   9.690  10.250
33445SOL    HW2 2233   2.361   9.610  10.276
33446SOL     OW 2234  10.468   5.611  11.831
33446SOL    HW1 2235  10.485   5.686  11.888
33446SOL    HW2 2236  10.376   5.591  11.845
33447SOL     OW 2237  12.529   1.736   8.685
33447SOL    HW1 2238  12.490   1.764   8.602
33447SOL    HW2 2239  12.532   1.816   8.739
33448SOL     OW 2240  10.293   6.064   4.299
33448SOL    HW1 2241  10.246   5.992   4.256
33448SOL    HW2 2242  10.377   6.026   4.324
33449SOL     OW 2243   7.908  13.428   9.654
33449SOL    HW1 2244   7.911  13.334   9.672
33449SOL    HW2 2245   7.968  13.440   9.581
33450SOL     OW 2246   0.433   6.514  10.442
33450SOL    HW1 2247   0.406   6.577  10.508
33450SOL    HW2 2248   0.462   6.568  10.368
33451SOL     OW 2249  12.710  12.074  11.987
33451SOL    HW1 2250  12.796  12.051  11.953
33451SOL    HW2 2251  12.687  12.001  12.045
33452SOL     OW 2252  14.644   8.739  11.077
33452SOL    HW1 2253  14.620   8.701  11.162
33452SOL    HW2 2254  14.689   8.821  11.100
33453SOL     OW 2255   9.329  10.470   7.164
33453SOL    HW1 2256   9.317  10.455   7.258
33453SOL    HW2 2257   9.328  10.383   7.125
33454SOL     OW 2258   8.301   6.073   1.525
33454SOL    HW1 2259   8.234   6.130   1.487
33454SOL    HW2 2260   8.331   6.020   1.452
33455SOL     OW 2261  14.293   0.468   9.749
33455SOL    HW1 2262  14.226   0.535   9.738
33455SOL    HW2 2263  14.315   0.441   9.660
33456SOL     OW 2264   8.213   7.773   9.384
33456SOL    HW1 2265   8.307   7.779   9.369
33456SOL    HW2 2266   8.176   7.842   9.328
33457SOL     OW 2267   9.025   4.064   0.382
33457SOL    HW1 2268   9.057   4.129   0.444
33457SOL    HW2 2269   8.981   4.114   0.314
33458SOL     OW 2270  12.436   1.154   4.578
33458SOL    HW1 2271  12.389   1.090   4.632
33458SOL    HW2 2272  12.368   1.202   4.532
33459SOL     OW 2273   9.096   7.997   9.294
33459SOL    HW1 2274   9.172   8.001   9.353
33459SOL    HW2 2275   9.127   8.037   9.213
33460SOL     OW 2276   3.875   4.881   8.595
33460SOL    HW1 2277   3.936   4.941   8.553
33460SOL    HW2 2278   3.810   4.861   8.527
33461SOL     OW 2279   9.499   3.354  11.314
33461SOL    HW1 2280   9.407   3.371  11.335
33461SOL    HW2 2281   9.504   3.364  11.219
33462SOL     OW 2282  12.915   0.475   6.677
33462SOL    HW1 2283  12.826   0.446   6.659
33462SOL    HW2 2284  12.921   0.474   6.773
33463SOL     OW 2285   8.894  10.577  12.513
33463SOL    HW1 2286   8.955  10.528  12.457
33463SOL    HW2 2287   8.893  10.529  12.596
33464SOL     OW 2288   7.986   2.450   2.412
33464SOL    HW1 2289   7.988   2.372   2.468
33464SOL    HW2 2290   7.951   2.519   2.468
33465SOL     OW 2291   9.188   5.817   2.160
33465SOL    HW1 2292   9.215   5.849   2.247
33465SOL    HW2 2293   9.239   5.870   2.099
33466SOL     OW 2294  13.181   4.154   0.238
33466SOL    HW1 2295  13.245   4.125   0.173
33466SOL    HW2 2296  13.122   4.212   0.189
33467SOL     OW 2297   9.558  11.392   0.109
33467SOL    HW1 2298   9.617  11.382   0.183
33467SOL    HW2 2299   9.576  11.479   0.075
33468SOL     OW 2300   0.632   6.707   8.482
33468SOL    HW1 2301   0.686   6.680   8.407
33468SOL    HW2 2302   0.561   6.643   8.485
33469SOL     OW 2303  10.992   2.976   0.300
33469SOL    HW1 2304  11.077   3.021   0.298
33469SOL    HW2 2305  10.929   3.046   0.318
33470SOL     OW 2306   5.313   6.788  11.256
33470SOL    HW1 2307   5.225   6.814  11.281
33470SOL    HW2 2308   5.366   6.802  11.334
33471SOL     OW 2309  12.052   4.905   2.914
33471SOL    HW1 2310  11.961   4.881   2.899
33471SOL    HW2 2311  12.102   4.827   2.889
33472SOL     OW 2312   1.070  10.465  14.479
33472SOL    HW1 2313   1.000  10.470  14.544
33472SOL    HW2 2314   1.143  10.423  14.525
33473SOL     OW 2315   4.523   0.934  10.674
33473SOL    HW1 2316   4.453   0.911  10.613
33473SOL    HW2 2317   4.566   1.010  10.633
33474SOL     OW 2318   0.597   0.393  10.912
33474SOL    HW1 2319   0.651   0.428  10.983
33474SOL    HW2 2320   0.634   0.306  10.896
33475SOL     OW 2321   6.246   0.602  12.770
33475SOL    HW1 2322   6.152   0.583  12.778
33475SOL    HW2 2323   6.278   0.602  12.860
33476SOL     OW 2324   9.112   2.421  13.485
33476SOL    HW1 2325   9.162   2.472  13.422
33476SOL    HW2 2326   9.163   2.341  13.497
33477SOL     OW 2327   1.904   2.547   6.425
33477SOL    HW1 2328   1.943   2.543   6.337
33477SOL    HW2 2329   1.853   2.628   6.424
33478SOL     OW 2330  11.662   0.749   1.245
33478SOL    HW1 2331  11.709   0.707   1.173
33478SOL    HW2 2332  11.594   0.801   1.202
33479SOL     OW 2333   6.542  11.424   8.923
33479SOL    HW1 2334   6.584  11.341   8.900
33479SOL    HW2 2335   6.614  11.486   8.934
33480SOL     OW 2336   2.301   2.572   4.406
33480SOL    HW1 2337   2.234   2.505   4.396
33480SOL    HW2 2338   2.254   2.649   4.438
33481SOL     OW 2339  11.716   1.614  10.068
33481SOL    HW1 2340  11.768   1.694  10.080
33481SOL    HW2 2341  11.670   1.627   9.985
33482SOL     OW 2342  14.707  11.872   8.980
33482SOL    HW1 2343  14.764  11.946   9.000
33482SOL    HW2 2344  14.619  11.908   8.983
33483SOL     OW 2345   4.217  10.674   0.298
33483SOL    HW1 2346   4.229  10.769   0.309
33483SOL    HW2 2347   4.234  10.659   0.205
33484SOL     OW 2348   4.257  10.525   6.126
33484SOL    HW1 2349   4.329  10.563   6.176
33484SOL    HW2 2350   4.189  10.592   6.127
33485SOL     OW 2351  11.771   8.775   6.152
33485SOL    HW1 2352  11.761   8.737   6.065
33485SOL    HW2 2353  11.801   8.703   6.207
33486SOL     OW 2354  13.379  12.735   0.949
33486SOL    HW1 2355  13.356  12.642   0.957
33486SOL    HW2 2356  13.464  12.742   0.993
33487SOL     OW 2357   9.500  11.655  11.826
33487SOL    HW1 2358   9.501  11.587  11.894
33487SOL    HW2 2359   9.416  11.643  11.781
33488SOL     OW 2360   2.940  13.026  14.830
33488SOL    HW1 2361   2.899  12.977   0.023
33488SOL    HW2 2362   3.015  12.972  14.804
33489SOL     OW 2363   8.637   7.634   7.037
33489SOL    HW1 2364   8.690   7.555   7.025
33489SOL    HW2 2365   8.620   7.665   6.948
33490SOL     OW 2366   0.165   6.103  11.855
33490SOL    HW1 2367   0.157   6.035  11.788
33490SOL    HW2 2368   0.121   6.066  11.932
33491SOL     OW 2369  12.029   6.625  11.296
33491SOL    HW1 2370  12.117   6.638  11.332
33491SOL    HW2 2371  12.043   6.610  11.202
33492SOL     OW 2372   0.859   9.735   4.143
33492SOL    HW1 2373   0.893   9.807   4.197
33492SOL    HW2 2374   0.787   9.699   4.195
33493SOL     OW 2375   1.717   5.477   2.662
33493SOL    HW1 2376   1.684   5.457   2.750
33493SOL    HW2 2377   1.659   5.427   2.604
33494SOL     OW 2378  10.496   9.493   0.036
33494SOL    HW1 2379  10.537   9.446   0.109
33494SOL    HW2 2380  10.521   9.585   0.051
33495SOL     OW 2381  13.510   9.079  12.634
33495SOL    HW1 2382  13.520   9.088  12.539
33495SOL    HW2 2383  13.455   9.001  12.644
33496SOL     OW 2384   0.816   2.472  10.139
33496SOL    HW1 2385   0.797   2.413  10.066
33496SOL    HW2 2386   0.813   2.416  10.217
33497SOL     OW 2387   5.420  10.396  13.289
33497SOL    HW1 2388   5.389  10.383  13.379
33497SOL    HW2 2389   5.515  10.386  13.295
33498SOL     OW 2390   1.825   5.031  11.845
33498SOL    HW1 2391   1.752   4.973  11.825
33498SOL    HW2 2392   1.793   5.119  11.822
33499SOL     OW 2393   0.473   0.907  13.096
33499SOL    HW1 2394   0.490   0.837  13.033
33499SOL    HW2 2395   0.483   0.865  13.182
33500SOL     OW 2396   9.892  10.243   5.596
33500SOL    HW1 2397   9.834  10.179   5.555
33500SOL    HW2 2398   9.972  10.240   5.545
33501SOL     OW 2399   5.544   0.260  14.523
33501SOL    HW1 2400   5.464   0.208  14.515
33501SOL    HW2 2401   5.520   0.334  14.579
33502SOL     OW 2402   2.137   0.343   0.483
33502SOL    HW1 2403   2.143   0.255   0.521
33502SOL    HW2 2404   2.066   0.337   0.420
33503SOL     OW 2405   7.178   4.897  11.009
33503SOL    HW1 2406   7.201   4.900  10.916
33503SOL    HW2 2407   7.087   4.869  11.010
33504SOL     OW 2408   4.643   1.967   2.104
33504SOL    HW1 2409   4.548   1.966   2.114
33504SOL    HW2 2410   4.658   2.023   2.028
33505SOL     OW 2411   4.228  11.199  12.076
33505SOL    HW1 2412   4.271  11.284  12.083
33505SOL    HW2 2413   4.135  11.217  12.094
33506SOL     OW 2414  13.441   4.195   7.105
33506SOL    HW1 2415  13.531   4.176   7.076
33506SOL    HW2 2416  13.394   4.113   7.093
33507SOL     OW 2417  14.801   2.490   9.922
33507SOL    HW1 2418  14.856   2.418   9.954
33507SOL    HW2 2419  14.747   2.450   9.854
33508SOL     OW 2420   2.211   3.751   5.094
33508SOL    HW1 2421   2.211   3.678   5.156
33508SOL    HW2 2422   2.220   3.709   5.008
33509SOL     OW 2423   2.539   8.043   0.017
33509SOL    HW1 2424   2.537   8.138   0.008
33509SOL    HW2 2425   2.457   8.021   0.062
33510SOL     OW 2426  12.761   9.297   6.650
33510SOL    HW1 2427  12.773   9.392   6.658
33510SOL    HW2 2428  12.673   9.287   6.612
33511SOL     OW 2429  14.688   1.502   2.799
33511SOL    HW1 2430  14.728   1.432   2.749
33511SOL    HW2 2431  14.599   1.508   2.765
33512SOL     OW 2432   8.693   0.763   7.436
33512SOL    HW1 2433   8.786   0.762   7.417
33512SOL    HW2 2434   8.684   0.819   7.513
33513SOL     OW 2435  11.491  10.024   0.528
33513SOL    HW1 2436  11.407  10.037   0.571
33513SOL    HW2 2437  11.522   9.940   0.561
33514SOL     OW 2438   0.583   9.096  10.472
33514SOL    HW1 2439   0.536   9.034  10.528
33514SOL    HW2 2440   0.588   9.053  10.387
33515SOL     OW 2441   0.646  14.472  13.003
33515SOL    HW1 2442   0.712  14.438  12.943
33515SOL    HW2 2443   0.613  14.551  12.961
33516SOL     OW 2444   3.036   7.453   1.142
33516SOL    HW1 2445   3.096   7.477   1.072
33516SOL    HW2 2446   2.961   7.414   1.098
33517SOL     OW 2447  13.210   8.912   8.927
33517SOL    HW1 2448  13.305   8.925   8.915
33517SOL    HW2 2449  13.176   9.001   8.939
33518SOL     OW 2450   4.934   5.834   0.494
33518SOL    HW1 2451   4.992   5.847   0.569
33518SOL    HW2 2452   4.986   5.862   0.418
33519SOL     OW 2453   9.561  10.201   9.897
33519SOL    HW1 2454   9.612  10.126   9.929
33519SOL    HW2 2455   9.605  10.278   9.932
33520SOL     OW 2456   9.975   9.359   8.894
33520SOL    HW1 2457   9.965   9.319   8.808
33520SOL    HW2 2458  10.010   9.290   8.949
33521SOL     OW 2459   2.300  13.367   4.226
33521SOL    HW1 2460   2.239  13.441   4.228
33521SOL    HW2 2461   2.298  13.332   4.315
33522SOL     OW 2462   7.762  10.179  10.829
33522SOL    HW1 2463   7.802  10.106  10.877
33522SOL    HW2 2464   7.707  10.222  10.893
33523SOL     OW 2465   1.595   8.352   1.459
33523SOL    HW1 2466   1.622   8.358   1.367
33523SOL    HW2 2467   1.671   8.313   1.503
33524SOL     OW 2468   0.814   2.347   6.408
33524SOL    HW1 2469   0.822   2.416   6.474
33524SOL    HW2 2470   0.816   2.393   6.324
33525SOL     OW 2471  12.411  12.595   7.549
33525SOL    HW1 2472  12.501  12.596   7.517
33525SOL    HW2 2473  12.379  12.508   7.525
33526SOL     OW 2474  11.377   8.542   4.623
33526SOL    HW1 2475  11.388   8.448   4.610
33526SOL    HW2 2476  11.333   8.550   4.708
33527SOL     OW 2477   9.295   8.267   8.858
33527SOL    HW1 2478   9.356   8.290   8.927
33527SOL    HW2 2479   9.208   8.283   8.896
33528SOL     OW 2480  11.852  10.306   4.359
33528SOL    HW1 2481  11.787  10.376   4.354
33528SOL    HW2 2482  11.921  10.342   4.415
33529SOL     OW 2483  13.020   7.579   2.519
33529SOL    HW1 2484  13.027   7.484   2.508
33529SOL    HW2 2485  13.111   7.610   2.511
33530SOL     OW 2486  14.562  14.436  12.587
33530SOL    HW1 2487  14.547  14.345  12.565
33530SOL    HW2 2488  14.571  14.481  12.503
33531SOL     OW 2489  13.025  12.575   5.195
33531SOL    HW1 2490  12.978  12.516   5.136
33531SOL    HW2 2491  12.962  12.594   5.265
33532SOL     OW 2492   8.578   2.892   1.817
33532SOL    HW1 2493   8.525   2.909   1.740
33532SOL    HW2 2494   8.666   2.876   1.783
33533SOL     OW 2495   8.966  12.878   6.314
33533SOL    HW1 2496   9.058  12.884   6.339
33533SOL    HW2 2497   8.961  12.801   6.258
33534SOL     OW 2498   7.537   9.619   7.734
33534SOL    HW1 2499   7.460   9.563   7.733
33534SOL    HW2 2500   7.593   9.582   7.802
33535SOL     OW 2501   6.268   5.775  10.748
33535SOL    HW1 2502   6.264   5.863  10.785
33535SOL    HW2 2503   6.342   5.778  10.688
33536SOL     OW 2504   6.602  14.663   6.382
33536SOL    HW1 2505   6.682  14.650   6.434
33536SOL    HW2 2506   6.532  14.670   6.447
33537SOL     OW 2507  11.915  11.929  14.309
33537SOL    HW1 2508  11.853  11.995  14.278
33537SOL    HW2 2509  11.981  11.978  14.358
33538SOL     OW 2510  10.341  14.516   4.948
33538SOL    HW1 2511  10.409  14.456   4.919
33538SOL    HW2 2512  10.348  14.516   5.044
33539SOL     OW 2513  14.202   3.219  10.157
33539SOL    HW1 2514  14.272   3.158  10.181
33539SOL    HW2 2515  14.153   3.173  10.089
33540SOL     OW 2516   2.446   0.148   8.884
33540SOL    HW1 2517   2.514   0.111   8.827
33540SOL    HW2 2518   2.364   0.131   8.837
33541SOL     OW 2519  10.170   3.268   7.782
33541SOL    HW1 2520  10.217   3.186   7.798
33541SOL    HW2 2521  10.102   3.270   7.849
33542SOL     OW 2522   5.588  11.874  13.296
33542SOL    HW1 2523   5.586  11.920  13.212
33542SOL    HW2 2524   5.540  11.930  13.356
33543SOL     OW 2525   8.226   8.419   5.469
33543SOL    HW1 2526   8.224   8.407   5.564
33543SOL    HW2 2527   8.192   8.508   5.455
33544SOL     OW 2528  10.987   4.552  12.463
33544SOL    HW1 2529  11.019   4.571  12.375
33544SOL    HW2 2530  10.989   4.636  12.508
33545SOL     OW 2531   4.984   2.702  11.237
33545SOL    HW1 2532   4.936   2.621  11.249
33545SOL    HW2 2533   5.041   2.708  11.313
33546SOL     OW 2534   2.635   4.920  10.280
33546SOL    HW1 2535   2.571   4.853  10.257
33546SOL    HW2 2536   2.687   4.933  10.201
33547SOL     OW 2537  11.453  13.552   7.805
33547SOL    HW1 2538  11.485  13.542   7.895
33547SOL    HW2 2539  11.363  13.580   7.815
33548SOL     OW 2540   9.941   6.785   7.669
33548SOL    HW1 2541   9.902   6.773   7.755
33548SOL    HW2 2542  10.029   6.818   7.687
33549SOL     OW 2543  10.983   5.736  14.352
33549SOL    HW1 2544  10.970   5.831  14.349
33549SOL    HW2 2545  10.938   5.708  14.432
33550SOL     OW 2546   4.075   2.010   7.028
33550SOL    HW1 2547   4.094   2.073   6.958
33550SOL    HW2 2548   4.033   2.063   7.096
33551SOL     OW 2549   3.736   3.516  13.853
33551SOL    HW1 2550   3.699   3.586  13.799
33551SOL    HW2 2551   3.716   3.541  13.943
33552SOL     OW 2552   7.333   6.353  12.955
33552SOL    HW1 2553   7.410   6.368  12.900
33552SOL    HW2 2554   7.335   6.424  13.020
33553SOL     OW 2555  12.223  13.742  12.927
33553SOL    HW1 2556  12.267  13.795  12.994
33553SOL    HW2 2557  12.153  13.697  12.975
33554SOL     OW 2558  14.251   1.060  14.403
33554SOL    HW1 2559  14.287   1.110  14.330
33554SOL    HW2 2560  14.163   1.095  14.415
33555SOL     OW 2561  11.075   1.856  10.573
33555SOL    HW1 2562  11.073   1.946  10.606
33555SOL    HW2 2563  11.167   1.838  10.557
33556SOL     OW 2564   2.721  12.708  11.134
33556SOL    HW1 2565   2.810  12.688  11.107
33556SOL    HW2 2566   2.703  12.794  11.096
33557SOL     OW 2567   4.335   5.975  12.500
33557SOL    HW1 2568   4.278   6.044  12.536
33557SOL    HW2 2569   4.331   5.905  12.565
33558SOL     OW 2570  13.397  11.817   6.141
33558SOL    HW1 2571  13.485  11.854   6.129
33558SOL    HW2 2572  13.347  11.854   6.068
33559SOL     OW 2573   4.834   2.707  10.684
33559SOL    HW1 2574   4.750   2.664  10.668
33559SOL    HW2 2575   4.875   2.712  10.598
33560SOL     OW 2576   2.431  12.007   4.803
33560SOL    HW1 2577   2.479  11.982   4.882
33560SOL    HW2 2578   2.355  12.056   4.836
33561SOL     OW 2579  13.778  10.252  13.078
33561SOL    HW1 2580  13.831  10.177  13.053
33561SOL    HW2 2581  13.694  10.238  13.034
33562SOL     OW 2582   0.780   9.244   6.740
33562SOL    HW1 2583   0.753   9.178   6.804
33562SOL    HW2 2584   0.842   9.300   6.788
33563SOL     OW 2585   5.991   1.398   6.625
33563SOL    HW1 2586   6.063   1.424   6.683
33563SOL    HW2 2587   5.912   1.423   6.673
33564SOL     OW 2588   4.159   0.493  10.937
33564SOL    HW1 2589   4.119   0.434  11.001
33564SOL    HW2 2590   4.222   0.438  10.890
33565SOL     OW 2591   6.789   3.303   7.655
33565SOL    HW1 2592   6.827   3.373   7.710
33565SOL    HW2 2593   6.763   3.348   7.575
33566SOL     OW 2594   5.928   6.484   4.595
33566SOL    HW1 2595   5.838   6.481   4.626
33566SOL    HW2 2596   5.921   6.516   4.505
33567SOL     OW 2597   3.388   6.607   3.201
33567SOL    HW1 2598   3.302   6.571   3.221
33567SOL    HW2 2599   3.416   6.648   3.284
33568SOL     OW 2600   3.537   7.829   2.682
33568SOL    HW1 2601   3.452   7.796   2.711
33568SOL    HW2 2602   3.565   7.888   2.752
33569SOL     OW 2603  11.163  11.130   3.973
33569SOL    HW1 2604  11.135  11.106   3.884
33569SOL    HW2 2605  11.142  11.223   3.980
33570SOL     OW 2606  13.612   5.352   3.674
33570SOL    HW1 2607  13.589   5.445   3.669
33570SOL    HW2 2608  13.638   5.329   3.584
33571SOL     OW 2609  12.620   3.830  14.430
33571SOL    HW1 2610  12.661   3.887  14.495
33571SOL    HW2 2611  12.584   3.889  14.365
33572SOL     OW 2612  12.678   5.750   5.184
33572SOL    HW1 2613  12.677   5.841   5.212
33572SOL    HW2 2614  12.613   5.745   5.113
33573SOL     OW 2615  12.895   7.266  10.920
33573SOL    HW1 2616  12.887   7.184  10.968
33573SOL    HW2 2617  12.812   7.310  10.933
33574SOL     OW 2618  10.933   9.794   0.794
33574SOL    HW1 2619  10.856   9.737   0.794
33574SOL    HW2 2620  10.957   9.802   0.702
33575SOL     OW 2621  12.549   8.936  12.210
33575SOL    HW1 2622  12.500   8.983  12.278
33575SOL    HW2 2623  12.624   8.993  12.191
33576SOL     OW 2624   2.640   1.780   3.178
33576SOL    HW1 2625   2.719   1.750   3.223
33576SOL    HW2 2626   2.568   1.754   3.235
33577SOL     OW 2627   3.280   2.257   4.635
33577SOL    HW1 2628   3.303   2.164   4.628
33577SOL    HW2 2629   3.203   2.267   4.580
33578SOL     OW 2630  12.459   9.556   2.978
33578SOL    HW1 2631  12.465   9.506   2.897
33578SOL    HW2 2632  12.490   9.497   3.046
33579SOL     OW 2633  13.485   9.984   6.916
33579SOL    HW1 2634  13.574   9.975   6.884
33579SOL    HW2 2635  13.438   9.910   6.879
33580SOL     OW 2636   2.408   0.909   1.708
33580SOL    HW1 2637   2.320   0.872   1.699
33580SOL    HW2 2638   2.398   0.980   1.771
33581SOL     OW 2639   7.945   1.084   2.854
33581SOL    HW1 2640   8.038   1.102   2.867
33581SOL    HW2 2641   7.940   1.045   2.767
33582SOL     OW 2642   5.241   6.647   9.437
33582SOL    HW1 2643   5.231   6.634   9.531
33582SOL    HW2 2644   5.187   6.579   9.398
33583SOL     OW 2645  13.420  12.739   4.080
33583SOL    HW1 2646  13.449  12.825   4.113
33583SOL    HW2 2647  13.431  12.680   4.155
33584SOL     OW 2648  11.920   4.669   6.503
33584SOL    HW1 2649  11.919   4.615   6.582
33584SOL    HW2 2650  12.004   4.715   6.506
33585SOL     OW 2651   8.539   0.145   2.556
33585SOL    HW1 2652   8.618   0.113   2.512
33585SOL    HW2 2653   8.504   0.068   2.601
33586SOL     OW 2654  14.284  10.345   4.869
33586SOL    HW1 2655  14.302  10.252   4.857
33586SOL    HW2 2656  14.322  10.387   4.792
33587SOL     OW 2657   1.292  13.610   1.208
33587SOL    HW1 2658   1.246  13.582   1.288
33587SOL    HW2 2659   1.225  13.653   1.155
33588SOL     OW 2660   3.786   4.547   3.381
33588SOL    HW1 2661   3.770   4.480   3.314
33588SOL    HW2 2662   3.833   4.501   3.450
33589SOL     OW 2663   6.637   8.883  13.104
33589SOL    HW1 2664   6.668   8.933  13.029
33589SOL    HW2 2665   6.717   8.844  13.141
33590SOL     OW 2666   0.290   9.630  14.186
33590SOL    HW1 2667   0.330   9.664  14.266
33590SOL    HW2 2668   0.353   9.567  14.152
33591SOL     OW 2669   8.371   2.918   2.088
33591SOL    HW1 2670   8.328   2.939   2.005
33591SOL    HW2 2671   8.423   2.996   2.108
33592SOL     OW 2672   9.321   0.982   6.429
33592SOL    HW1 2673   9.322   0.886   6.422
33592SOL    HW2 2674   9.243   1.009   6.380
33593SOL     OW 2675   3.770   8.532  12.118
33593SOL    HW1 2676   3.752   8.622  12.144
33593SOL    HW2 2677   3.778   8.485  12.201
33594SOL     OW 2678   8.209   3.386   2.060
33594SOL    HW1 2679   8.256   3.367   2.142
33594SOL    HW2 2680   8.144   3.316   2.053
33595SOL     OW 2681   8.300  14.466   8.476
33595SOL    HW1 2682   8.293  14.427   8.389
33595SOL    HW2 2683   8.288  14.394   8.537
33596SOL     OW 2684   5.717  11.141   9.129
33596SOL    HW1 2685   5.810  11.162   9.132
33596SOL    HW2 2686   5.674  11.220   9.160
33597SOL     OW 2687   6.577   8.265  11.956
33597SOL    HW1 2688   6.658   8.245  12.004
33597SOL    HW2 2689   6.607   8.294  11.870
33598SOL     OW 2690  12.508   1.145   5.811
33598SOL    HW1 2691  12.544   1.232   5.828
33598SOL    HW2 2692  12.575   1.085   5.840
33599SOL     OW 2693  12.481   6.290  13.790
33599SOL    HW1 2694  12.506   6.219  13.849
33599SOL    HW2 2695  12.400   6.326  13.828
33600SOL     OW 2696   4.673   0.593  13.076
33600SOL    HW1 2697   4.678   0.498  13.069
33600SOL    HW2 2698   4.764   0.621  13.087
33601SOL     OW 2699  11.569   6.728   5.592
33601SOL    HW1 2700  11.636   6.736   5.524
33601SOL    HW2 2701  11.609   6.766   5.670
33602SOL     OW 2702  13.781   6.521  12.269
33602SOL    HW1 2703  13.825   6.580  12.330
33602SOL    HW2 2704  13.739   6.580  12.206
33603SOL     OW 2705   6.422   7.047   4.931
33603SOL    HW1 2706   6.346   6.989   4.924
33603SOL    HW2 2707   6.495   6.996   4.896
33604SOL     OW 2708   7.644   2.531   0.809
33604SOL    HW1 2709   7.574   2.575   0.760
33604SOL    HW2 2710   7.720   2.588   0.800
33605SOL     OW 2711   9.263   8.332   4.118
33605SOL    HW1 2712   9.238   8.396   4.052
33605SOL    HW2 2713   9.215   8.253   4.095
33606SOL     OW 2714   4.019   0.252   5.017
33606SOL    HW1 2715   4.028   0.177   4.958
33606SOL    HW2 2716   3.993   0.214   5.101
33607SOL     OW 2717  10.598  13.188   5.446
33607SOL    HW1 2718  10.568  13.141   5.368
33607SOL    HW2 2719  10.517  13.207   5.494
33608SOL     OW 2720   8.218   7.290   6.850
33608SOL    HW1 2721   8.307   7.267   6.823
33608SOL    HW2 2722   8.161   7.236   6.795
33609SOL     OW 2723  12.531  14.073   7.628
33609SOL    HW1 2724  12.527  13.980   7.654
33609SOL    HW2 2725  12.551  14.071   7.535
33610SOL     OW 2726   4.792   1.740  13.885
33610SOL    HW1 2727   4.759   1.759  13.973
33610SOL    HW2 2728   4.729   1.784  13.827
33611SOL     OW 2729   2.647   3.069   5.124
33611SOL    HW1 2730   2.616   3.156   5.098
33611SOL    HW2 2731   2.676   3.029   5.043
33612SOL     OW 2732  13.334   4.019   6.770
33612SOL    HW1 2733  13.310   4.026   6.862
33612SOL    HW2 2734  13.343   3.925   6.755
33613SOL     OW 2735   5.230   9.124   8.653
33613SOL    HW1 2736   5.201   9.196   8.710
33613SOL    HW2 2737   5.261   9.167   8.574
33614SOL     OW 2738   2.928   5.458  12.946
33614SOL    HW1 2739   3.003   5.513  12.968
33614SOL    HW2 2740   2.908   5.481  12.855
33615SOL     OW 2741  13.864   6.928   3.643
33615SOL    HW1 2742  13.833   6.971   3.723
33615SOL    HW2 2743  13.839   6.988   3.573
33616SOL     OW 2744  11.655  11.502   6.845
33616SOL    HW1 2745  11.659  11.491   6.940
33616SOL    HW2 2746  11.739  11.468   6.813
33617SOL     OW 2747   1.470   8.098   4.858
33617SOL    HW1 2748   1.548   8.154   4.854
33617SOL    HW2 2749   1.472   8.048   4.777
33618SOL     OW 2750   5.001  14.868   9.028
33618SOL    HW1 2751   5.065  14.800   9.011
33618SOL    HW2 2752   4.954   0.001   8.946
33619SOL     OW 2753  13.512   8.152  10.678
33619SOL    HW1 2754  13.422   8.120  10.686
33619SOL    HW2 2755  13.523   8.210  10.753
33620SOL     OW 2756   2.446  14.233   6.097
33620SOL    HW1 2757   2.485  14.147   6.117
33620SOL    HW2 2758   2.413  14.264   6.182
33621SOL     OW 2759   2.483   0.999   8.843
33621SOL    HW1 2760   2.483   1.075   8.786
33621SOL    HW2 2761   2.539   0.936   8.798
33622SOL     OW 2762   9.926   4.883   2.013
33622SOL    HW1 2763   9.857   4.932   1.967
33622SOL    HW2 2764   9.920   4.794   1.978
33623SOL     OW 2765  10.585   7.414   4.760
33623SOL    HW1 2766  10.525   7.380   4.693
33623SOL    HW2 2767  10.669   7.423   4.715
33624SOL     OW 2768   9.490   9.478  13.015
33624SOL    HW1 2769   9.531   9.513  13.095
33624SOL    HW2 2770   9.520   9.536  12.945
33625SOL     OW 2771  12.291   8.183   0.063
33625SOL    HW1 2772  12.279   8.104   0.011
33625SOL    HW2 2773  12.386   8.200   0.058
33626SOL     OW 2774   0.724   0.525  14.019
33626SOL    HW1 2775   0.706   0.583  13.945
33626SOL    HW2 2776   0.791   0.571  14.070
33627SOL     OW 2777  14.031   8.790   8.027
33627SOL    HW1 2778  13.974   8.863   8.004
33627SOL    HW2 2779  13.985   8.745   8.099
33628SOL     OW 2780   4.617  12.536   1.882
33628SOL    HW1 2781   4.591  12.627   1.900
33628SOL    HW2 2782   4.704  12.544   1.843
33629SOL     OW 2783  13.381   1.032   4.848
33629SOL    HW1 2784  13.415   1.112   4.806
33629SOL    HW2 2785  13.318   0.997   4.785
33630SOL     OW 2786   1.016   7.060   9.929
33630SOL    HW1 2787   1.026   7.028  10.018
33630SOL    HW2 2788   0.927   7.096   9.926
33631SOL     OW 2789   8.125  14.365   0.011
33631SOL    HW1 2790   8.093  14.320  14.810
33631SOL    HW2 2791   8.116  14.300   0.081
33632SOL     OW 2792  10.359  14.875   6.413
33632SOL    HW1 2793  10.450   0.029   6.415
33632SOL    HW2 2794  10.326   0.014   6.501
33633SOL     OW 2795  14.135   9.664   5.682
33633SOL    HW1 2796  14.145   9.584   5.735
33633SOL    HW2 2797  14.062   9.710   5.722
33634SOL     OW 2798  14.001  10.759   6.840
33634SOL    HW1 2799  14.008  10.828   6.906
33634SOL    HW2 2800  13.974  10.682   6.889
33635SOL     OW 2801  12.354   0.559  12.320
33635SOL    HW1 2802  12.445   0.545  12.296
33635SOL    HW2 2803  12.357   0.583  12.413
33636SOL     OW 2804   3.717   0.031   7.806
33636SOL    HW1 2805   3.634   0.011   7.762
33636SOL    HW2 2806   3.691   0.073   7.888
33637SOL     OW 2807   5.118   3.498   0.809
33637SOL    HW1 2808   5.077   3.420   0.847
33637SOL    HW2 2809   5.056   3.528   0.743
33638SOL     OW 2810  14.187   0.286   3.685
33638SOL    HW1 2811  14.213   0.268   3.775
33638SOL    HW2 2812  14.268   0.280   3.635
33639SOL     OW 2813   6.328   6.332  10.270
33639SOL    HW1 2814   6.284   6.381  10.339
33639SOL    HW2 2815   6.301   6.241  10.284
33640SOL     OW 2816  14.479  12.240  14.429
33640SOL    HW1 2817  14.563  12.219  14.388
33640SOL    HW2 2818  14.502  12.280  14.513
33641SOL     OW 2819  12.755  13.260   1.026
33641SOL    HW1 2820  12.834  13.223   0.988
33641SOL    HW2 2821  12.693  13.186   1.029
33642SOL     OW 2822  14.467   8.483   2.825
33642SOL    HW1 2823  14.481   8.564   2.775
33642SOL    HW2 2824  14.403   8.434   2.774
33643SOL     OW 2825   9.279   3.280   3.888
33643SOL    HW1 2826   9.294   3.359   3.940
33643SOL    HW2 2827   9.366   3.242   3.877
33644SOL     OW 2828  10.885   3.506   5.480
33644SOL    HW1 2829  10.801   3.494   5.434
33644SOL    HW2 2830  10.861   3.547   5.563
33645SOL     OW 2831   8.160   6.287   2.804
33645SOL    HW1 2832   8.250   6.300   2.834
33645SOL    HW2 2833   8.106   6.322   2.875
33646SOL     OW 2834   2.071   7.139  12.767
33646SOL    HW1 2835   2.080   7.093  12.850
33646SOL    HW2 2836   2.034   7.224  12.792
33647SOL     OW 2837  12.505   5.248  10.971
33647SOL    HW1 2838  12.453   5.189  10.916
33647SOL    HW2 2839  12.451   5.327  10.979
33648SOL     OW 2840  14.143  12.719  11.928
33648SOL    HW1 2841  14.216  12.716  11.867
33648SOL    HW2 2842  14.076  12.664  11.887
33649SOL     OW 2843  10.643   8.537   7.879
33649SOL    HW1 2844  10.656   8.631   7.864
33649SOL    HW2 2845  10.558   8.531   7.921
33650SOL     OW 2846   2.310   2.317   0.571
33650SOL    HW1 2847   2.279   2.239   0.617
33650SOL    HW2 2848   2.358   2.367   0.636
33651SOL     OW 2849  12.695   4.312   9.524
33651SOL    HW1 2850  12.643   4.389   9.502
33651SOL    HW2 2851  12.784   4.346   9.535
33652SOL     OW 2852   5.357   8.957   1.206
33652SOL    HW1 2853   5.355   8.961   1.110
33652SOL    HW2 2854   5.450   8.959   1.228
33653SOL     OW 2855   3.433   8.754  10.427
33653SOL    HW1 2856   3.389   8.795  10.352
33653SOL    HW2 2857   3.469   8.828  10.476
33654SOL     OW 2858  10.837   1.996   1.742
33654SOL    HW1 2859  10.851   1.945   1.663
33654SOL    HW2 2860  10.779   1.942   1.796
33655SOL     OW 2861   0.064   0.626  13.357
33655SOL    HW1 2862   0.071   0.582  13.273
33655SOL    HW2 2863   0.018   0.563  13.413
33656SOL     OW 2864   4.807  14.224  12.700
33656SOL    HW1 2865   4.749  14.148  12.702
33656SOL    HW2 2866   4.803  14.259  12.789
33657SOL     OW 2867   5.233   8.501  14.686
33657SOL    HW1 2868   5.204   8.592  14.695
33657SOL    HW2 2869   5.155   8.449  14.703
33658SOL     OW 2870   3.011   8.113  12.280
33658SOL    HW1 2871   2.958   8.165  12.220
33658SOL    HW2 2872   2.948   8.078  12.343
33659SOL     OW 2873  12.581   2.282  10.836
33659SOL    HW1 2874  12.497   2.328  10.836
33659SOL    HW2 2875  12.625   2.313  10.756
33660SOL     OW 2876   1.366  10.619   2.489
33660SOL    HW1 2877   1.361  10.590   2.581
33660SOL    HW2 2878   1.296  10.684   2.481
33661SOL     OW 2879  14.005   4.970   8.799
33661SOL    HW1 2880  14.051   5.023   8.735
33661SOL    HW2 2881  13.996   5.027   8.875
33662SOL     OW 2882   9.643   8.650   3.962
33662SOL    HW1 2883   9.632   8.582   3.896
33662SOL    HW2 2884   9.706   8.613   4.024
33663SOL     OW 2885   9.220   5.255  12.671
33663SOL    HW1 2886   9.255   5.343  12.686
33663SOL    HW2 2887   9.157   5.242  12.742
33664SOL     OW 2888   9.507  12.760  11.538
33664SOL    HW1 2889   9.542  12.844  11.569
33664SOL    HW2 2890   9.435  12.740  11.598
33665SOL     OW 2891   5.268  12.235  11.454
33665SOL    HW1 2892   5.174  12.239  11.473
33665SOL    HW2 2893   5.292  12.144  11.470
33666SOL     OW 2894   2.302   5.061   7.364
33666SOL    HW1 2895   2.344   5.028   7.285
33666SOL    HW2 2896   2.260   5.142   7.337
33667SOL     OW 2897   7.930  10.934   6.892
33667SOL    HW1 2898   7.901  10.910   6.804
33667SOL    HW2 2899   7.958  11.025   6.884
33668SOL     OW 2900   4.833   8.315  13.640
33668SOL    HW1 2901   4.738   8.324  13.633
33668SOL    HW2 2902   4.858   8.378  13.708
33669SOL     OW 2903   1.056   0.534  10.165
33669SOL    HW1 2904   1.132   0.592  10.169
33669SOL    HW2 2905   0.993   0.581  10.110
33670SOL     OW 2906  11.180   8.207  11.233
33670SOL    HW1 2907  11.226   8.154  11.298
33670SOL    HW2 2908  11.087   8.190  11.250
33671SOL     OW 2909   6.016   6.893   2.123
33671SOL    HW1 2910   6.093   6.869   2.071
33671SOL    HW2 2911   6.035   6.861   2.211
33672SOL     OW 2912  14.072  10.827  13.658
33672SOL    HW1 2913  14.054  10.777  13.738
33672SOL    HW2 2914  14.081  10.917  13.688
33673SOL     OW 2915   5.439   6.812  13.835
33673SOL    HW1 2916   5.458   6.825  13.742
33673SOL    HW2 2917   5.465   6.721  13.852
33674SOL     OW 2918   5.705  10.828   1.052
33674SOL    HW1 2919   5.672  10.839   1.142
33674SOL    HW2 2920   5.797  10.804   1.063
33675SOL     OW 2921   3.883   0.207  13.213
33675SOL    HW1 2922   3.957   0.159  13.251
33675SOL    HW2 2923   3.808   0.148  13.224
33676SOL     OW 2924  10.547  11.925   7.186
33676SOL    HW1 2925  10.640  11.945   7.181
33676SOL    HW2 2926  10.534  11.856   7.121
33677SOL     OW 2927   7.916   3.598   9.675
33677SOL    HW1 2928   7.921   3.514   9.721
33677SOL    HW2 2929   7.867   3.579   9.595
33678SOL     OW 2930   0.239   5.379  13.718
33678SOL    HW1 2931   0.246   5.438  13.793
33678SOL    HW2 2932   0.202   5.298  13.754
33679SOL     OW 2933   7.968   4.881  13.197
33679SOL    HW1 2934   8.000   4.799  13.158
33679SOL    HW2 2935   7.924   4.854  13.278
33680SOL     OW 2936   4.669   0.155  14.695
33680SOL    HW1 2937   4.741   0.144  14.757
33680SOL    HW2 2938   4.629   0.238  14.719
33681SOL     OW 2939   3.608   6.773   7.876
33681SOL    HW1 2940   3.598   6.757   7.970
33681SOL    HW2 2941   3.629   6.687   7.840
33682SOL     OW 2942   5.021  12.429  11.866
33682SOL    HW1 2943   4.958  12.399  11.801
33682SOL    HW2 2944   5.022  12.524  11.858
33683SOL     OW 2945  14.035  13.978   0.118
33683SOL    HW1 2946  13.995  13.892   0.110
33683SOL    HW2 2947  14.128  13.960   0.131
33684SOL     OW 2948   8.193  13.558  14.637
33684SOL    HW1 2949   8.266  13.617  14.653
33684SOL    HW2 2950   8.118  13.617  14.624
33685SOL     OW 2951  11.986  10.484   5.873
33685SOL    HW1 2952  12.050  10.546   5.838
33685SOL    HW2 2953  12.032  10.439   5.944
33686SOL     OW 2954   1.678   0.603   4.699
33686SOL    HW1 2955   1.616   0.563   4.760
33686SOL    HW2 2956   1.734   0.531   4.670
33687SOL     OW 2957   7.229   2.829   7.658
33687SOL    HW1 2958   7.290   2.890   7.699
33687SOL    HW2 2959   7.143   2.859   7.685
33688SOL     OW 2960   2.876   0.286   3.689
33688SOL    HW1 2961   2.831   0.311   3.608
33688SOL    HW2 2962   2.890   0.369   3.735
33689SOL     OW 2963   3.886   7.900   3.041
33689SOL    HW1 2964   3.944   7.876   2.969
33689SOL    HW2 2965   3.927   7.978   3.080
33690SOL     OW 2966   6.091  12.421   3.611
33690SOL    HW1 2967   6.163  12.371   3.648
33690SOL    HW2 2968   6.017  12.402   3.669
33691SOL     OW 2969  14.151   9.877   1.460
33691SOL    HW1 2970  14.117   9.885   1.549
33691SOL    HW2 2971  14.244   9.858   1.471
33692SOL     OW 2972   0.517   1.780   2.764
33692SOL    HW1 2973   0.472   1.765   2.847
33692SOL    HW2 2974   0.532   1.693   2.729
33693SOL     OW 2975   7.218   1.676   4.952
33693SOL    HW1 2976   7.189   1.763   4.977
33693SOL    HW2 2977   7.147   1.641   4.898
33694SOL     OW 2978   3.350   5.176   8.754
33694SOL    HW1 2979   3.444   5.169   8.767
33694SOL    HW2 2980   3.329   5.107   8.691
33695SOL     OW 2981  10.318  13.955   3.710
33695SOL    HW1 2982  10.312  13.893   3.782
33695SOL    HW2 2983  10.412  13.965   3.695
33696SOL     OW 2984  13.119  14.582  14.273
33696SOL    HW1 2985  13.079  14.562  14.358
33696SOL    HW2 2986  13.197  14.526  14.269
33697SOL     OW 2987  11.979  14.847   1.122
33697SOL    HW1 2988  11.901  14.793   1.112
33697SOL    HW2 2989  12.029  14.833   1.041
33698SOL     OW 2990   4.963   6.495   0.455
33698SOL    HW1 2991   4.904   6.549   0.403
33698SOL    HW2 2992   4.912   6.472   0.533
33699SOL     OW 2993   5.341   8.959  12.321
33699SOL    HW1 2994   5.381   9.037  12.359
33699SOL    HW2 2995   5.399   8.887  12.347
33700SOL     OW 2996   3.814  11.608   7.072
33700SOL    HW1 2997   3.861  11.686   7.041
33700SOL    HW2 2998   3.818  11.614   7.168
33701SOL     OW 2999   9.255   1.537   8.293
33701SOL    HW1 3000   9.269   1.539   8.388
33701SOL    HW2 3001   9.180   1.595   8.279
33702SOL     OW 3002  11.439   7.084  12.536
33702SOL    HW1 3003  11.415   7.049  12.622
33702SOL    HW2 3004  11.532   7.064  12.528
33703SOL     OW 3005   6.827   2.495   7.425
33703SOL    HW1 3006   6.899   2.556   7.438
33703SOL    HW2 3007   6.769   2.509   7.500
33704SOL     OW 3008   4.211   4.022   7.487
33704SOL    HW1 3009   4.221   3.941   7.537
33704SOL    HW2 3010   4.239   3.998   7.398
33705SOL     OW 3011   1.515  11.632   3.043
33705SOL    HW1 3012   1.500  11.568   3.113
33705SOL    HW2 3013   1.525  11.716   3.088
33706SOL     OW 3014   0.411   5.739   4.791
33706SOL    HW1 3015   0.359   5.707   4.865
33706SOL    HW2 3016   0.492   5.688   4.795
33707SOL     OW 3017   1.764   3.730   6.276
33707SOL    HW1 3018   1.769   3.769   6.189
33707SOL    HW2 3019   1.845   3.758   6.320
33708SOL     OW 3020   9.092  14.570   3.476
33708SOL    HW1 3021   9.169  14.587   3.421
33708SOL    HW2 3022   9.019  14.605   3.425
33709SOL     OW 3023   0.747   5.299   5.572
33709SOL    HW1 3024   0.668   5.330   5.616
33709SOL    HW2 3025   0.743   5.204   5.578
33710SOL     OW 3026   2.935   4.583  12.486
33710SOL    HW1 3027   2.947   4.627  12.402
33710SOL    HW2 3028   2.849   4.541  12.480
33711SOL     OW 3029  11.928  10.498   6.548
33711SOL    HW1 3030  11.943  10.590   6.571
33711SOL    HW2 3031  11.863  10.468   6.611
33712SOL     OW 3032   7.167  10.624   6.991
33712SOL    HW1 3033   7.239  10.675   6.953
33712SOL    HW2 3034   7.160  10.547   6.935
33713SOL     OW 3035  12.218  11.440   7.596
33713SOL    HW1 3036  12.169  11.471   7.520
33713SOL    HW2 3037  12.296  11.496   7.598
33714SOL     OW 3038   0.188   0.724   8.561
33714SOL    HW1 3039   0.216   0.738   8.471
33714SOL    HW2 3040   0.097   0.696   8.554
33715SOL     OW 3041   0.580   6.156  13.345
33715SOL    HW1 3042   0.630   6.238  13.343
33715SOL    HW2 3043   0.599   6.114  13.261
33716SOL     OW 3044   1.608   9.596   9.112
33716SOL    HW1 3045   1.566   9.524   9.159
33716SOL    HW2 3046   1.554   9.608   9.034
33717SOL     OW 3047   0.334   5.026  10.662
33717SOL    HW1 3048   0.330   5.105  10.609
33717SOL    HW2 3049   0.246   5.018  10.700
33718SOL     OW 3050  14.040   7.173   4.998
33718SOL    HW1 3051  14.025   7.241   4.932
33718SOL    HW2 3052  13.952   7.144   5.023
33719SOL     OW 3053   7.939   8.740   4.563
33719SOL    HW1 3054   8.001   8.795   4.610
33719SOL    HW2 3055   7.979   8.654   4.560
33720SOL     OW 3056   2.077  11.221  10.859
33720SOL    HW1 3057   1.991  11.231  10.818
33720SOL    HW2 3058   2.064  11.250  10.949
33721SOL     OW 3059   8.088   2.673   1.435
33721SOL    HW1 3060   8.151   2.743   1.456
33721SOL    HW2 3061   8.055   2.644   1.520
33722SOL     OW 3062  11.851   3.345  10.258
33722SOL    HW1 3063  11.847   3.436  10.231
33722SOL    HW2 3064  11.850   3.348  10.354
33723SOL     OW 3065   7.660  14.725  11.094
33723SOL    HW1 3066   7.713  14.666  11.147
33723SOL    HW2 3067   7.575  14.682  11.087
33724SOL     OW 3068   7.867  14.259   5.671
33724SOL    HW1 3069   7.868  14.164   5.683
33724SOL    HW2 3070   7.960  14.284   5.667
33725SOL     OW 3071   1.863   8.452  12.461
33725SOL    HW1 3072   1.880   8.390  12.531
33725SOL    HW2 3073   1.791   8.507  12.494
33726SOL     OW 3074  11.558   1.179  11.240
33726SOL    HW1 3075  11.499   1.239  11.286
33726SOL    HW2 3076  11.613   1.141  11.309
33727SOL     OW 3077   0.996   2.781  13.794
33727SOL    HW1 3078   0.925   2.722  13.770
33727SOL    HW2 3079   0.952   2.855  13.837
33728SOL     OW 3080   2.177   6.229   8.189
33728SOL    HW1 3081   2.250   6.211   8.130
33728SOL    HW2 3082   2.189   6.320   8.214
33729SOL     OW 3083  12.424  13.369  13.422
33729SOL    HW1 3084  12.378  13.346  13.502
33729SOL    HW2 3085  12.390  13.309  13.356
33730SOL     OW 3086   4.812   5.101   8.133
33730SOL    HW1 3087   4.758   5.179   8.125
33730SOL    HW2 3088   4.901   5.135   8.143
33731SOL     OW 3089   3.293   3.546   1.210
33731SOL    HW1 3090   3.285   3.480   1.278
33731SOL    HW2 3091   3.319   3.496   1.132
33732SOL     OW 3092   8.071   1.335   3.995
33732SOL    HW1 3093   8.006   1.281   4.039
33732SOL    HW2 3094   8.074   1.416   4.045
33733SOL     OW 3095  11.765   9.430   2.865
33733SOL    HW1 3096  11.678   9.399   2.842
33733SOL    HW2 3097  11.813   9.431   2.781
33734SOL     OW 3098   4.060   9.064   6.040
33734SOL    HW1 3099   3.997   9.050   6.111
33734SOL    HW2 3100   4.084   8.976   6.011
33735SOL     OW 3101   9.758   3.579  11.675
33735SOL    HW1 3102   9.781   3.488  11.694
33735SOL    HW2 3103   9.720   3.576  11.588
33736SOL     OW 3104   6.725   3.698   1.716
33736SOL    HW1 3105   6.640   3.676   1.677
33736SOL    HW2 3106   6.771   3.614   1.722
33737SOL     OW 3107  10.934   7.000   6.281
33737SOL    HW1 3108  10.995   6.973   6.350
33737SOL    HW2 3109  10.880   6.922   6.266
33738SOL     OW 3110   2.984   4.196   7.604
33738SOL    HW1 3111   3.019   4.119   7.559
33738SOL    HW2 3112   2.939   4.161   7.681
33739SOL     OW 3113  14.698   1.812   4.988
33739SOL    HW1 3114  14.613   1.813   4.944
33739SOL    HW2 3115  14.761   1.834   4.919
33740SOL     OW 3116   9.122  11.856   7.585
33740SOL    HW1 3117   9.162  11.815   7.662
33740SOL    HW2 3118   9.113  11.785   7.522
33741SOL     OW 3119   6.123   8.422  12.805
33741SOL    HW1 3120   6.133   8.332  12.838
33741SOL    HW2 3121   6.075   8.467  12.874
33742SOL     OW 3122   6.120   6.286   1.339
33742SOL    HW1 3123   6.152   6.376   1.345
33742SOL    HW2 3124   6.101   6.261   1.430
33743SOL     OW 3125   2.188  10.519   3.599
33743SOL    HW1 3126   2.232  10.545   3.680
33743SOL    HW2 3127   2.177  10.601   3.551
33744SOL     OW 3128  11.824   2.785  14.187
33744SOL    HW1 3129  11.835   2.700  14.143
33744SOL    HW2 3130  11.885   2.843  14.142
33745SOL     OW 3131   0.948  10.897   7.194
33745SOL    HW1 3132   1.026  10.842   7.190
33745SOL    HW2 3133   0.964  10.956   7.268
33746SOL     OW 3134  13.897   3.248   3.350
33746SOL    HW1 3135  13.889   3.334   3.392
33746SOL    HW2 3136  13.966   3.204   3.399
33747SOL     OW 3137   3.334   4.308  13.497
33747SOL    HW1 3138   3.264   4.360  13.456
33747SOL    HW2 3139   3.413   4.359  13.482
33748SOL     OW 3140   4.134   4.529   1.384
33748SOL    HW1 3141   4.131   4.480   1.302
33748SOL    HW2 3142   4.228   4.544   1.400
33749SOL     OW 3143   8.380   6.356  11.511
33749SOL    HW1 3144   8.307   6.294  11.510
33749SOL    HW2 3145   8.340   6.441  11.496
33750SOL     OW 3146   2.162  14.514   0.431
33750SOL    HW1 3147   2.205  14.440   0.475
33750SOL    HW2 3148   2.100  14.547   0.495
33751SOL     OW 3149   0.038   9.668  10.065
33751SOL    HW1 3150   0.044   9.698  10.156
33751SOL    HW2 3151  14.822   9.655  10.050
33752SOL     OW 3152   5.113  12.663   5.248
33752SOL    HW1 3153   5.090  12.754   5.264
33752SOL    HW2 3154   5.170  12.640   5.321
33753SOL     OW 3155   3.108   6.424   0.389
33753SOL    HW1 3156   3.082   6.512   0.417
33753SOL    HW2 3157   3.079   6.367   0.460
33754SOL     OW 3158   7.405   3.147   2.600
33754SOL    HW1 3159   7.391   3.052   2.600
33754SOL    HW2 3160   7.489   3.158   2.645
33755SOL     OW 3161   9.841   2.631  10.187
33755SOL    HW1 3162   9.869   2.722  10.191
33755SOL    HW2 3163   9.875   2.592  10.268
33756SOL     OW 3164   4.335   0.315   1.277
33756SOL    HW1 3165   4.374   0.234   1.244
33756SOL    HW2 3166   4.242   0.307   1.258
33757SOL     OW 3167   9.766  10.565   0.256
33757SOL    HW1 3168   9.797  10.655   0.245
33757SOL    HW2 3169   9.727  10.542   0.172
33758SOL     OW 3170   4.890   7.222   8.503
33758SOL    HW1 3171   4.899   7.310   8.540
33758SOL    HW2 3172   4.818   7.229   8.441
33759SOL     OW 3173   1.477   0.957   0.012
33759SOL    HW1 3174   1.548   0.982   0.071
33759SOL    HW2 3175   1.413   1.027   0.020
33760SOL     OW 3176   1.400   8.982  13.689
33760SOL    HW1 3177   1.455   8.959  13.764
33760SOL    HW2 3178   1.324   9.026  13.727
33761SOL     OW 3179   5.864  12.782   1.430
33761SOL    HW1 3180   5.835  12.704   1.478
33761SOL    HW2 3181   5.840  12.764   1.339
33762SOL     OW 3182   9.252   4.251   5.099
33762SOL    HW1 3183   9.214   4.192   5.165
33762SOL    HW2 3184   9.334   4.282   5.139
33763SOL     OW 3185   8.887  13.816   6.632
33763SOL    HW1 3186   8.900  13.911   6.640
33763SOL    HW2 3187   8.792  13.806   6.632
33764SOL     OW 3188   1.282   5.410   7.640
33764SOL    HW1 3189   1.282   5.353   7.717
33764SOL    HW2 3190   1.209   5.379   7.587
33765SOL     OW 3191   9.744   3.318   0.200
33765SOL    HW1 3192   9.726   3.306   0.293
33765SOL    HW2 3193   9.701   3.243   0.158
33766SOL     OW 3194   9.740  14.518  10.499
33766SOL    HW1 3195   9.775  14.433  10.524
33766SOL    HW2 3196   9.652  14.500  10.467
33767SOL     OW 3197   0.413   7.769   8.126
33767SOL    HW1 3198   0.453   7.776   8.212
33767SOL    HW2 3199   0.329   7.726   8.141
33768SOL     OW 3200   5.095   5.146   8.076
33768SOL    HW1 3201   5.089   5.076   8.141
33768SOL    HW2 3202   5.114   5.102   7.993
33769SOL     OW 3203  12.628  10.925  10.624
33769SOL    HW1 3204  12.645  10.834  10.599
33769SOL    HW2 3205  12.715  10.961  10.640
33770SOL     OW 3206   5.460   3.137   8.563
33770SOL    HW1 3207   5.538   3.098   8.524
33770SOL    HW2 3208   5.425   3.068   8.620
33771SOL     OW 3209   8.622  11.505   2.748
33771SOL    HW1 3210   8.697  11.465   2.705
33771SOL    HW2 3211   8.546  11.476   2.697
33772SOL     OW 3212   3.770  12.791   3.529
33772SOL    HW1 3213   3.780  12.829   3.616
33772SOL    HW2 3214   3.858  12.791   3.492
33773SOL     OW 3215  10.379  14.833  12.185
33773SOL    HW1 3216  10.413  14.832  12.275
33773SOL    HW2 3217  10.307   0.018  12.188
33774SOL     OW 3218   7.890   7.562  12.867
33774SOL    HW1 3219   7.806   7.602  12.841
33774SOL    HW2 3220   7.883   7.553  12.962
33775SOL     OW 3221   1.213  13.104   6.491
33775SOL    HW1 3222   1.267  13.029   6.465
33775SOL    HW2 3223   1.127  13.066   6.510
33776SOL     OW 3224   4.630   5.987  12.593
33776SOL    HW1 3225   4.564   6.006  12.526
33776SOL    HW2 3226   4.702   6.047  12.573
33777SOL     OW 3227  12.856  13.258  12.830
33777SOL    HW1 3228  12.792  13.190  12.853
33777SOL    HW2 3229  12.837  13.329  12.891
33778SOL     OW 3230   5.110   4.620   9.564
33778SOL    HW1 3231   5.063   4.662   9.636
33778SOL    HW2 3232   5.199   4.654   9.570
33779SOL     OW 3233  14.706   1.518   2.416
33779SOL    HW1 3234  14.617   1.498   2.446
33779SOL    HW2 3235  14.707   1.491   2.324
33780SOL     OW 3236  13.843   6.215   1.621
33780SOL    HW1 3237  13.844   6.245   1.712
33780SOL    HW2 3238  13.750   6.207   1.599
33781SOL     OW 3239  13.553   1.159  10.486
33781SOL    HW1 3240  13.473   1.200  10.455
33781SOL    HW2 3241  13.582   1.214  10.558
33782SOL     OW 3242   4.083   5.306   8.039
33782SOL    HW1 3243   4.099   5.297   8.133
33782SOL    HW2 3244   4.127   5.231   7.999
33783SOL     OW 3245   8.825   1.892   7.889
33783SOL    HW1 3246   8.765   1.861   7.821
33783SOL    HW2 3247   8.816   1.828   7.960
33784SOL     OW 3248  10.172   7.311  12.877
33784SOL    HW1 3249  10.201   7.221  12.891
33784SOL    HW2 3250  10.136   7.311  12.788
33785SOL     OW 3251  10.525  10.596   8.213
33785SOL    HW1 3252  10.611  10.609   8.172
33785SOL    HW2 3253  10.467  10.657   8.167
33786SOL     OW 3254  12.108   9.018  12.475
33786SOL    HW1 3255  12.134   9.096  12.524
33786SOL    HW2 3256  12.023   8.993  12.512
33787SOL     OW 3257  10.511   7.649   7.497
33787SOL    HW1 3258  10.430   7.613   7.461
33787SOL    HW2 3259  10.505   7.634   7.591
33788SOL     OW 3260  14.588   7.167   0.565
33788SOL    HW1 3261  14.636   7.116   0.499
33788SOL    HW2 3262  14.510   7.114   0.584
33789SOL     OW 3263  11.133   9.720  10.139
33789SOL    HW1 3264  11.042   9.724  10.111
33789SOL    HW2 3265  11.161   9.812  10.143
33790SOL     OW 3266  14.170   4.017  10.158
33790SOL    HW1 3267  14.142   3.948  10.097
33790SOL    HW2 3268  14.205   4.086  10.101
33791SOL     OW 3269   7.524  14.309   9.782
33791SOL    HW1 3270   7.496  14.395   9.816
33791SOL    HW2 3271   7.467  14.294   9.706
33792SOL     OW 3272  14.829   5.916   5.465
33792SOL    HW1 3273   0.002   5.876   5.395
33792SOL    HW2 3274  14.783   5.842   5.506
33793SOL     OW 3275   7.944   5.145   3.852
33793SOL    HW1 3276   7.946   5.050   3.842
33793SOL    HW2 3277   7.960   5.178   3.764
33794SOL     OW 3278   5.135   4.087  11.695
33794SOL    HW1 3279   5.160   4.117  11.782
33794SOL    HW2 3280   5.180   4.147  11.635
33795SOL     OW 3281   8.190   1.782   9.562
33795SOL    HW1 3282   8.215   1.798   9.653
33795SOL    HW2 3283   8.136   1.703   9.565
33796SOL     OW 3284   7.794   9.264  13.267
33796SOL    HW1 3285   7.871   9.294  13.316
33796SOL    HW2 3286   7.822   9.181  13.228
33797SOL     OW 3287  11.204   3.392   2.168
33797SOL    HW1 3288  11.248   3.458   2.115
33797SOL    HW2 3289  11.125   3.435   2.199
33798SOL     OW 3290   7.529   8.205  10.512
33798SOL    HW1 3291   7.447   8.161  10.489
33798SOL    HW2 3292   7.597   8.141  10.491
33799SOL     OW 3293  11.226   7.884   8.677
33799SOL    HW1 3294  11.269   7.969   8.685
33799SOL    HW2 3295  11.137   7.900   8.709
33800SOL     OW 3296   8.266   7.070   7.827
33800SOL    HW1 3297   8.215   7.148   7.851
33800SOL    HW2 3298   8.335   7.103   7.770
33801SOL     OW 3299  13.720  12.675   3.937
33801SOL    HW1 3300  13.808  12.653   3.965
33801SOL    HW2 3301  13.674  12.700   4.017
33802SOL     OW 3302   1.113   6.881   1.803
33802SOL    HW1 3303   1.092   6.788   1.808
33802SOL    HW2 3304   1.103   6.913   1.893
33803SOL     OW 3305   4.739   0.583  14.405
33803SOL    HW1 3306   4.692   0.655  14.363
33803SOL    HW2 3307   4.750   0.611  14.495
33804SOL     OW 3308  14.031   6.315   0.025
33804SOL    HW1 3309  13.984   6.394   0.053
33804SOL    HW2 3310  14.045   6.327  14.809
33805SOL     OW 3311   2.744  14.061   6.769
33805SOL    HW1 3312   2.741  14.139   6.824
33805SOL    HW2 3313   2.821  14.013   6.800
33806SOL     OW 3314   9.484   9.202  12.926
33806SOL    HW1 3315   9.496   9.147  13.003
33806SOL    HW2 3316   9.519   9.287  12.951
33807SOL     OW 3317  11.917  13.452  13.412
33807SOL    HW1 3318  12.008  13.476  13.394
33807SOL    HW2 3319  11.867  13.495  13.343
33808SOL     OW 3320   8.797   1.763   1.715
33808SOL    HW1 3321   8.837   1.720   1.640
33808SOL    HW2 3322   8.822   1.710   1.790
33809SOL     OW 3323   8.030   8.452  13.944
33809SOL    HW1 3324   8.046   8.526  14.003
33809SOL    HW2 3325   7.937   8.459  13.922
33810SOL     OW 3326  12.011   5.855   8.472
33810SOL    HW1 3327  12.047   5.767   8.462
33810SOL    HW2 3328  11.920   5.841   8.498
33811SOL     OW 3329   1.396   0.369   2.390
33811SOL    HW1 3330   1.375   0.457   2.422
33811SOL    HW2 3331   1.442   0.328   2.463
33812SOL     OW 3332  12.164   0.471   7.997
33812SOL    HW1 3333  12.246   0.443   8.039
33812SOL    HW2 3334  12.119   0.389   7.976
33813SOL     OW 3335   1.941   0.198  11.263
33813SOL    HW1 3336   1.863   0.143  11.254
33813SOL    HW2 3337   1.986   0.189  11.178
33814SOL     OW 3338   8.986   2.508   3.241
33814SOL    HW1 3339   9.026   2.474   3.161
33814SOL    HW2 3340   8.979   2.602   3.227
33815SOL     OW 3341   8.933   2.801   8.763
33815SOL    HW1 3342   8.875   2.870   8.796
33815SOL    HW2 3343   8.884   2.761   8.691
33816SOL     OW 3344   1.161   8.895   4.749
33816SOL    HW1 3345   1.217   8.820   4.769
33816SOL    HW2 3346   1.139   8.885   4.656
33817SOL     OW 3347   6.962   9.233   9.854
33817SOL    HW1 3348   6.889   9.269   9.905
33817SOL    HW2 3349   6.921   9.167   9.797
33818SOL     OW 3350   3.792   4.101   7.241
33818SOL    HW1 3351   3.765   4.123   7.152
33818SOL    HW2 3352   3.846   4.176   7.268
33819SOL     OW 3353   5.214   6.418   8.229
33819SOL    HW1 3354   5.148   6.389   8.291
33819SOL    HW2 3355   5.252   6.496   8.270
33820SOL     OW 3356  10.514   6.920   8.330
33820SOL    HW1 3357  10.436   6.880   8.291
33820SOL    HW2 3358  10.518   7.007   8.291
33821SOL     OW 3359   8.402   7.594   1.847
33821SOL    HW1 3360   8.381   7.596   1.940
33821SOL    HW2 3361   8.390   7.684   1.818
33822SOL     OW 3362  13.714  11.391   6.941
33822SOL    HW1 3363  13.676  11.441   6.868
33822SOL    HW2 3364  13.808  11.390   6.923
33823SOL     OW 3365   3.281   5.410  12.280
33823SOL    HW1 3366   3.302   5.330  12.329
33823SOL    HW2 3367   3.191   5.431  12.306
33824SOL     OW 3368   2.988  10.824   8.613
33824SOL    HW1 3369   2.907  10.857   8.653
33824SOL    HW2 3370   2.996  10.873   8.532
33825SOL     OW 3371   1.506   1.034   1.095
33825SOL    HW1 3372   1.561   1.105   1.130
33825SOL    HW2 3373   1.548   1.011   1.012
33826SOL     OW 3374   6.740  12.512   2.482
33826SOL    HW1 3375   6.674  12.542   2.419
33826SOL    HW2 3376   6.819  12.561   2.459
33827SOL     OW 3377   7.844   3.825   4.810
33827SOL    HW1 3378   7.860   3.867   4.726
33827SOL    HW2 3379   7.783   3.754   4.789
33828SOL     OW 3380  14.542  10.975   1.542
33828SOL    HW1 3381  14.626  11.015   1.519
33828SOL    HW2 3382  14.563  10.914   1.613
33829SOL     OW 3383  12.619   5.020   5.843
33829SOL    HW1 3384  12.535   5.067   5.848
33829SOL    HW2 3385  12.599   4.933   5.877
33830SOL     OW 3386   1.845  11.212   4.758
33830SOL    HW1 3387   1.909  11.186   4.692
33830SOL    HW2 3388   1.822  11.302   4.734
33831SOL     OW 3389  14.765   4.133  14.778
33831SOL    HW1 3390  14.683   4.150  14.731
33831SOL    HW2 3391  14.805   4.220  14.787
33832SOL     OW 3392   0.111   3.979   4.502
33832SOL    HW1 3393   0.074   4.065   4.520
33832SOL    HW2 3394   0.152   3.988   4.415
33833SOL     OW 3395   3.933   9.176   9.448
33833SOL    HW1 3396   3.910   9.257   9.494
33833SOL    HW2 3397   4.007   9.141   9.496
33834SOL     OW 3398  14.771   2.003   6.630
33834SOL    HW1 3399  14.715   2.003   6.552
33834SOL    HW2 3400  14.734   1.934   6.685
33835SOL     OW 3401   3.324  12.261   2.604
33835SOL    HW1 3402   3.315  12.184   2.660
33835SOL    HW2 3403   3.326  12.335   2.666
33836SOL     OW 3404   6.052   3.695   3.355
33836SOL    HW1 3405   6.020   3.613   3.319
33836SOL    HW2 3406   6.112   3.669   3.426
33837SOL     OW 3407   8.581   6.413   9.864
33837SOL    HW1 3408   8.632   6.348   9.913
33837SOL    HW2 3409   8.551   6.366   9.786
33838SOL     OW 3410   9.590   0.494  14.812
33838SOL    HW1 3411   9.525   0.493  14.742
33838SOL    HW2 3412   9.641   0.574  14.795
33839SOL     OW 3413   7.516   8.276   8.719
33839SOL    HW1 3414   7.592   8.331   8.701
33839SOL    HW2 3415   7.531   8.243   8.808
33840SOL     OW 3416   9.747   0.801  12.141
33840SOL    HW1 3417   9.838   0.780  12.119
33840SOL    HW2 3418   9.709   0.834  12.060
33841SOL     OW 3419  10.609   7.208   9.781
33841SOL    HW1 3420  10.698   7.242   9.771
33841SOL    HW2 3421  10.567   7.269   9.842
33842SOL     OW 3422  13.105   6.649  11.705
33842SOL    HW1 3423  13.013   6.632  11.682
33842SOL    HW2 3424  13.117   6.743  11.689
33843SOL     OW 3425   1.685   2.335  12.424
33843SOL    HW1 3426   1.709   2.425  12.446
33843SOL    HW2 3427   1.721   2.321  12.336
33844SOL     OW 3428  13.700   6.162  13.938
33844SOL    HW1 3429  13.638   6.225  13.902
33844SOL    HW2 3430  13.759   6.142  13.865
33845SOL     OW 3431   6.702   1.758   0.278
33845SOL    HW1 3432   6.689   1.853   0.274
33845SOL    HW2 3433   6.618   1.721   0.252
33846SOL     OW 3434   3.361  12.772   6.524
33846SOL    HW1 3435   3.359  12.831   6.599
33846SOL    HW2 3436   3.385  12.687   6.561
33847SOL     OW 3437   7.109  12.854   2.381
33847SOL    HW1 3438   7.152  12.781   2.337
33847SOL    HW2 3439   7.169  12.879   2.451
33848SOL     OW 3440   9.444   1.036   3.565
33848SOL    HW1 3441   9.355   1.008   3.586
33848SOL    HW2 3442   9.435   1.128   3.540
33849SOL     OW 3443   2.005   9.783   9.482
33849SOL    HW1 3444   1.971   9.872   9.473
33849SOL    HW2 3445   1.973   9.753   9.567
33850SOL     OW 3446   9.228   5.538   5.261
33850SOL    HW1 3447   9.195   5.448   5.252
33850SOL    HW2 3448   9.202   5.564   5.349
33851SOL     OW 3449   5.190   4.519  14.241
33851SOL    HW1 3450   5.127   4.576  14.284
33851SOL    HW2 3451   5.181   4.539  14.148
33852SOL     OW 3452   2.778   8.001   9.207
33852SOL    HW1 3453   2.819   7.981   9.123
33852SOL    HW2 3454   2.761   7.915   9.246
33853SOL     OW 3455   0.950   8.565   2.126
33853SOL    HW1 3456   1.043   8.563   2.101
33853SOL    HW2 3457   0.928   8.658   2.129
33854SOL     OW 3458  14.593   9.558  10.153
33854SOL    HW1 3459  14.595   9.540  10.247
33854SOL    HW2 3460  14.501   9.549  10.128
33855SOL     OW 3461   3.332   4.457   2.707
33855SOL    HW1 3462   3.298   4.421   2.625
33855SOL    HW2 3463   3.407   4.401   2.729
33856SOL     OW 3464   9.282   6.953   8.249
33856SOL    HW1 3465   9.323   6.959   8.336
33856SOL    HW2 3466   9.228   6.874   8.253
33857SOL     OW 3467   0.488  14.501   8.956
33857SOL    HW1 3468   0.460  14.463   9.039
33857SOL    HW2 3469   0.442  14.450   8.889
33858SOL     OW 3470   2.187  14.143   2.051
33858SOL    HW1 3471   2.163  14.053   2.030
33858SOL    HW2 3472   2.181  14.189   1.967
33859SOL     OW 3473  10.691   5.603   5.936
33859SOL    HW1 3474  10.639   5.523   5.942
33859SOL    HW2 3475  10.638   5.661   5.881
33860SOL     OW 3476   2.361   2.695   6.105
33860SOL    HW1 3477   2.295   2.761   6.085
33860SOL    HW2 3478   2.313   2.613   6.107
33861SOL     OW 3479   3.858   7.324   3.003
33861SOL    HW1 3480   3.888   7.288   2.920
33861SOL    HW2 3481   3.903   7.407   3.012
33862SOL     OW 3482   5.846   8.312   2.905
33862SOL    HW1 3483   5.808   8.261   2.832
33862SOL    HW2 3484   5.928   8.346   2.870
33863SOL     OW 3485  10.136   8.267   1.710
33863SOL    HW1 3486  10.221   8.310   1.713
33863SOL    HW2 3487  10.102   8.275   1.799
33864SOL     OW 3488  11.372   4.658  12.226
33864SOL    HW1 3489  11.339   4.579  12.183
33864SOL    HW2 3490  11.421   4.627  12.302
33865SOL     OW 3491  10.791   6.036   4.236
33865SOL    HW1 3492  10.733   6.039   4.160
33865SOL    HW2 3493  10.817   6.127   4.251
33866SOL     OW 3494   3.858   9.759   5.441
33866SOL    HW1 3495   3.868   9.831   5.378
33866SOL    HW2 3496   3.843   9.682   5.387
33867SOL     OW 3497  11.429   9.437   1.096
33867SOL    HW1 3498  11.467   9.390   1.170
33867SOL    HW2 3499  11.335   9.425   1.106
33868SOL     OW 3500   8.070  10.447   7.567
33868SOL    HW1 3501   8.127  10.521   7.544
33868SOL    HW2 3502   8.114  10.371   7.528
33869SOL     OW 3503   7.968  14.829   9.804
33869SOL    HW1 3504   8.037  14.771   9.836
33869SOL    HW2 3505   7.948  14.796   9.716
33870SOL     OW 3506   6.880   2.131  10.138
33870SOL    HW1 3507   6.911   2.043  10.115
33870SOL    HW2 3508   6.787   2.129  10.116
33871SOL     OW 3509   3.403   2.200  10.590
33871SOL    HW1 3510   3.428   2.270  10.531
33871SOL    HW2 3511   3.426   2.119  10.543
33872SOL     OW 3512   1.602  11.957  11.686
33872SOL    HW1 3513   1.668  11.995  11.745
33872SOL    HW2 3514   1.519  11.987  11.723
33873SOL     OW 3515  12.064   5.388   5.228
33873SOL    HW1 3516  11.970   5.404   5.240
33873SOL    HW2 3517  12.069   5.294   5.207
33874SOL     OW 3518   6.233   1.702   9.874
33874SOL    HW1 3519   6.164   1.685   9.938
33874SOL    HW2 3520   6.242   1.620   9.825
33875SOL     OW 3521  12.665   0.419   8.124
33875SOL    HW1 3522  12.722   0.494   8.140
33875SOL    HW2 3523  12.580   0.446   8.159
33876SOL     OW 3524  11.512   2.816   1.229
33876SOL    HW1 3525  11.456   2.804   1.305
33876SOL    HW2 3526  11.598   2.784   1.257
33877SOL     OW 3527  11.422  12.866   8.010
33877SOL    HW1 3528  11.466  12.951   7.997
33877SOL    HW2 3529  11.452  12.837   8.095
33878SOL     OW 3530   7.631  14.371   2.650
33878SOL    HW1 3531   7.636  14.424   2.570
33878SOL    HW2 3532   7.709  14.314   2.645
33879SOL     OW 3533   6.339  10.160   6.909
33879SOL    HW1 3534   6.321  10.141   7.001
33879SOL    HW2 3535   6.254  10.155   6.866
33880SOL     OW 3536   3.226   9.044   7.281
33880SOL    HW1 3537   3.320   9.029   7.270
33880SOL    HW2 3538   3.220   9.131   7.320
33881SOL     OW 3539   5.192  13.393   4.660
33881SOL    HW1 3540   5.150  13.437   4.734
33881SOL    HW2 3541   5.285  13.395   4.680
33882SOL     OW 3542  11.041   6.610  12.461
33882SOL    HW1 3543  11.012   6.570  12.380
33882SOL    HW2 3544  11.001   6.697  12.461
33883SOL     OW 3545   7.304   4.393   7.765
33883SOL    HW1 3546   7.260   4.377   7.681
33883SOL    HW2 3547   7.302   4.309   7.809
33884SOL     OW 3548   0.023  14.071  10.071
33884SOL    HW1 3549  14.846  14.082   9.993
33884SOL    HW2 3550   0.068  14.155  10.081
33885SOL     OW 3551   2.673   5.484   8.947
33885SOL    HW1 3552   2.743   5.418   8.946
33885SOL    HW2 3553   2.594   5.434   8.969
33886SOL     OW 3554   1.942   0.848  13.231
33886SOL    HW1 3555   1.915   0.870  13.320
33886SOL    HW2 3556   1.903   0.918  13.177
33887SOL     OW 3557  12.395   2.350   9.962
33887SOL    HW1 3558  12.452   2.375  10.034
33887SOL    HW2 3559  12.320   2.409   9.969
33888SOL     OW 3560  13.996  13.455   2.301
33888SOL    HW1 3561  14.024  13.385   2.242
33888SOL    HW2 3562  13.968  13.526   2.242
33889SOL     OW 3563   1.623   6.397   3.043
33889SOL    HW1 3564   1.607   6.474   3.097
33889SOL    HW2 3565   1.653   6.432   2.959
33890SOL     OW 3566  10.799   5.399   5.164
33890SOL    HW1 3567  10.717   5.403   5.115
33890SOL    HW2 3568  10.836   5.487   5.156
33891SOL     OW 3569  13.422   5.114  13.955
33891SOL    HW1 3570  13.331   5.099  13.929
33891SOL    HW2 3571  13.429   5.210  13.960
33892SOL     OW 3572   0.166   2.513   5.823
33892SOL    HW1 3573   0.204   2.553   5.745
33892SOL    HW2 3574   0.193   2.421   5.818
33893SOL     OW 3575   8.770  13.179   9.060
33893SOL    HW1 3576   8.806  13.247   9.118
33893SOL    HW2 3577   8.819  13.100   9.083
33894SOL     OW 3578  11.421   0.798   5.276
33894SOL    HW1 3579  11.390   0.867   5.217
33894SOL    HW2 3580  11.347   0.738   5.284
33895SOL     OW 3581   0.936   4.781   7.680
33895SOL    HW1 3582   0.923   4.754   7.589
33895SOL    HW2 3583   0.853   4.822   7.705
33896SOL     OW 3584   5.550  10.136  11.755
33896SOL    HW1 3585   5.565  10.058  11.701
33896SOL    HW2 3586   5.500  10.195  11.699
33897SOL     OW 3587   0.669   7.372   7.073
33897SOL    HW1 3588   0.587   7.359   7.026
33897SOL    HW2 3589   0.675   7.297   7.132
33898SOL     OW 3590  14.430   2.284   3.320
33898SOL    HW1 3591  14.426   2.379   3.325
33898SOL    HW2 3592  14.353   2.254   3.369
33899SOL     OW 3593   4.818   2.008   6.312
33899SOL    HW1 3594   4.753   2.035   6.247
33899SOL    HW2 3595   4.900   2.046   6.281
33900SOL     OW 3596   9.908  10.092  12.551
33900SOL    HW1 3597   9.910  10.166  12.612
33900SOL    HW2 3598   9.878  10.018  12.605
33901SOL     OW 3599   7.635   5.035  12.920
33901SOL    HW1 3600   7.584   4.970  12.873
33901SOL    HW2 3601   7.595   5.038  13.007
33902SOL     OW 3602   3.437   6.219  13.294
33902SOL    HW1 3603   3.438   6.123  13.292
33902SOL    HW2 3604   3.359   6.242  13.345
33903SOL     OW 3605   1.434   5.392  10.351
33903SOL    HW1 3606   1.378   5.419  10.424
33903SOL    HW2 3607   1.492   5.326  10.389
33904SOL     OW 3608   3.185   1.189  14.598
33904SOL    HW1 3609   3.220   1.160  14.683
33904SOL    HW2 3610   3.204   1.283  14.596
33905SOL     OW 3611  10.968  11.602   1.964
33905SOL    HW1 3612  10.972  11.534   1.897
33905SOL    HW2 3613  10.906  11.666   1.928
33906SOL     OW 3614   2.619   8.150   2.622
33906SOL    HW1 3615   2.691   8.088   2.636
33906SOL    HW2 3616   2.558   8.103   2.565
33907SOL     OW 3617   0.279   3.559  13.463
33907SOL    HW1 3618   0.328   3.479  13.486
33907SOL    HW2 3619   0.198   3.527  13.423
33908SOL     OW 3620   3.231  10.261  12.686
33908SOL    HW1 3621   3.200  10.173  12.666
33908SOL    HW2 3622   3.176  10.290  12.760
33909SOL     OW 3623   6.719   7.245   8.573
33909SOL    HW1 3624   6.655   7.179   8.600
33909SOL    HW2 3625   6.801   7.217   8.614
33910SOL     OW 3626  12.608   6.962   3.777
33910SOL    HW1 3627  12.674   6.970   3.846
33910SOL    HW2 3628  12.551   7.038   3.790
33911SOL     OW 3629  13.438   4.612   4.615
33911SOL    HW1 3630  13.355   4.608   4.567
33911SOL    HW2 3631  13.449   4.525   4.651
33912SOL     OW 3632   7.549   1.174   0.255
33912SOL    HW1 3633   7.482   1.107   0.241
33912SOL    HW2 3634   7.613   1.158   0.186
33913SOL     OW 3635   0.064   5.395   0.601
33913SOL    HW1 3636   0.148   5.421   0.642
33913SOL    HW2 3637   0.073   5.302   0.585
33914SOL     OW 3638   8.932  13.582   2.908
33914SOL    HW1 3639   8.838  13.592   2.893
33914SOL    HW2 3640   8.955  13.500   2.863
33915SOL     OW 3641  14.354  14.837   7.603
33915SOL    HW1 3642  14.273  14.846   7.553
33915SOL    HW2 3643  14.328  14.788   7.682
33916SOL     OW 3644   4.506   0.374  13.955
33916SOL    HW1 3645   4.581   0.384  14.014
33916SOL    HW2 3646   4.503   0.456  13.906
33917SOL     OW 3647  12.189   9.591  11.369
33917SOL    HW1 3648  12.123   9.566  11.304
33917SOL    HW2 3649  12.237   9.510  11.387
33918SOL     OW 3650   7.418   8.561   2.405
33918SOL    HW1 3651   7.442   8.522   2.321
33918SOL    HW2 3652   7.412   8.655   2.387
33919SOL     OW 3653   4.236   9.286   7.062
33919SOL    HW1 3654   4.199   9.341   7.130
33919SOL    HW2 3655   4.160   9.244   7.021
33920SOL     OW 3656   8.167   1.660  12.020
33920SOL    HW1 3657   8.259   1.636  12.014
33920SOL    HW2 3658   8.159   1.706  12.103
33921SOL     OW 3659   2.064   2.382   6.569
33921SOL    HW1 3660   2.014   2.440   6.512
33921SOL    HW2 3661   2.010   2.303   6.577
33922SOL     OW 3662   5.915   1.316   7.111
33922SOL    HW1 3663   5.968   1.338   7.035
33922SOL    HW2 3664   5.964   1.245   7.154
33923SOL     OW 3665   7.750   9.323  11.524
33923SOL    HW1 3666   7.736   9.345  11.616
33923SOL    HW2 3667   7.730   9.230  11.518
33924SOL     OW 3668  14.324  13.783   4.969
33924SOL    HW1 3669  14.292  13.730   5.042
33924SOL    HW2 3670  14.291  13.871   4.987
33925SOL     OW 3671   1.080  13.012   8.624
33925SOL    HW1 3672   1.101  13.102   8.648
33925SOL    HW2 3673   1.164  12.966   8.626
33926SOL     OW 3674  10.648  12.986   7.199
33926SOL    HW1 3675  10.592  12.989   7.277
33926SOL    HW2 3676  10.627  13.067   7.152
33927SOL     OW 3677   4.584  13.951   1.038
33927SOL    HW1 3678   4.552  13.877   0.987
33927SOL    HW2 3679   4.505  14.002   1.057
33928SOL     OW 3680   3.676   5.698   5.820
33928SOL    HW1 3681   3.725   5.779   5.836
33928SOL    HW2 3682   3.703   5.640   5.891
33929SOL     OW 3683   0.586   1.782  11.994
33929SOL    HW1 3684   0.643   1.728  12.050
33929SOL    HW2 3685   0.633   1.787  11.911
33930SOL     OW 3686   4.779   0.647   0.445
33930SOL    HW1 3687   4.705   0.642   0.506
33930SOL    HW2 3688   4.740   0.667   0.360
33931SOL     OW 3689   6.972  11.905   3.112
33931SOL    HW1 3690   6.931  11.962   3.046
33931SOL    HW2 3691   6.931  11.931   3.194
33932SOL     OW 3692   8.089  13.225  11.021
33932SOL    HW1 3693   8.041  13.191  10.946
33932SOL    HW2 3694   8.095  13.150  11.081
33933SOL     OW 3695  13.960   3.095  12.021
33933SOL    HW1 3696  13.885   3.054  11.978
33933SOL    HW2 3697  14.020   3.023  12.038
33934SOL     OW 3698   9.645  12.724   5.661
33934SOL    HW1 3699   9.550  12.733   5.658
33934SOL    HW2 3700   9.666  12.726   5.755
33935SOL     OW 3701   2.821  14.726   5.192
33935SOL    HW1 3702   2.909  14.735   5.156
33935SOL    HW2 3703   2.829  14.658   5.259
33936SOL     OW 3704   2.030   5.676   4.545
33936SOL    HW1 3705   2.046   5.748   4.484
33936SOL    HW2 3706   2.009   5.601   4.490
33937SOL     OW 3707  11.703   9.006   2.493
33937SOL    HW1 3708  11.725   8.989   2.584
33937SOL    HW2 3709  11.714   8.922   2.449
33938SOL     OW 3710  10.662  12.944  13.366
33938SOL    HW1 3711  10.743  12.992  13.348
33938SOL    HW2 3712  10.601  12.973  13.298
33939SOL     OW 3713  11.677   6.925   9.788
33939SOL    HW1 3714  11.650   6.960   9.873
33939SOL    HW2 3715  11.638   6.985   9.725
33940SOL     OW 3716   8.370  13.913   7.008
33940SOL    HW1 3717   8.460  13.933   7.035
33940SOL    HW2 3718   8.380  13.855   6.933
33941SOL     OW 3719   6.373   5.145   5.236
33941SOL    HW1 3720   6.407   5.153   5.147
33941SOL    HW2 3721   6.451   5.147   5.291
33942SOL     OW 3722   5.535   7.114   7.737
33942SOL    HW1 3723   5.530   7.155   7.824
33942SOL    HW2 3724   5.611   7.155   7.695
33943SOL     OW 3725  12.152   7.583  13.753
33943SOL    HW1 3726  12.145   7.578  13.658
33943SOL    HW2 3727  12.108   7.665  13.776
33944SOL     OW 3728   4.516  11.290   5.423
33944SOL    HW1 3729   4.591  11.348   5.410
33944SOL    HW2 3730   4.468  11.294   5.341
33945SOL     OW 3731  13.630  12.859   8.521
33945SOL    HW1 3732  13.686  12.807   8.464
33945SOL    HW2 3733  13.679  12.940   8.534
33946SOL     OW 3734  10.242   7.231   4.151
33946SOL    HW1 3735  10.151   7.222   4.181
33946SOL    HW2 3736  10.237   7.294   4.079
33947SOL     OW 3737   2.800  13.654   7.591
33947SOL    HW1 3738   2.802  13.625   7.683
33947SOL    HW2 3739   2.833  13.743   7.594
33948SOL     OW 3740  13.932  11.738  12.628
33948SOL    HW1 3741  13.980  11.765  12.549
33948SOL    HW2 3742  13.998  11.696  12.683
33949SOL     OW 3743  10.822   9.623  13.985
33949SOL    HW1 3744  10.783   9.611  13.898
33949SOL    HW2 3745  10.748   9.647  14.041
33950SOL     OW 3746  11.477   5.608   3.255
33950SOL    HW1 3747  11.507   5.637   3.341
33950SOL    HW2 3748  11.540   5.646   3.194
33951SOL     OW 3749   9.073   4.244   2.102
33951SOL    HW1 3750   9.103   4.292   2.025
33951SOL    HW2 3751   8.978   4.259   2.103
33952SOL     OW 3752   2.550   5.693   0.014
33952SOL    HW1 3753   2.501   5.615   0.037
33952SOL    HW2 3754   2.503   5.730  14.816
33953SOL     OW 3755   2.212  12.105  10.868
33953SOL    HW1 3756   2.232  12.094  10.775
33953SOL    HW2 3757   2.262  12.183  10.894
33954SOL     OW 3758  13.959   8.911  13.070
33954SOL    HW1 3759  13.941   8.928  13.163
33954SOL    HW2 3760  13.882   8.864  13.039
33955SOL     OW 3761  14.408   1.021   6.970
33955SOL    HW1 3762  14.330   0.965   6.969
33955SOL    HW2 3763  14.384   1.097   6.918
33956SOL     OW 3764   6.113   5.227   8.950
33956SOL    HW1 3765   6.104   5.169   9.025
33956SOL    HW2 3766   6.097   5.314   8.985
33957SOL     OW 3767   0.435  10.250   7.968
33957SOL    HW1 3768   0.502  10.287   8.026
33957SOL    HW2 3769   0.485  10.205   7.900
33958SOL     OW 3770   6.825   2.907  13.862
33958SOL    HW1 3771   6.732   2.888  13.873
33958SOL    HW2 3772   6.828   2.996  13.828
33959SOL     OW 3773  10.309   2.323   8.443
33959SOL    HW1 3774  10.384   2.285   8.489
33959SOL    HW2 3775  10.252   2.247   8.425
33960SOL     OW 3776   3.422  12.404   1.689
33960SOL    HW1 3777   3.398  12.335   1.627
33960SOL    HW2 3778   3.497  12.447   1.649
33961SOL     OW 3779   3.715   6.052   5.848
33961SOL    HW1 3780   3.811   6.044   5.847
33961SOL    HW2 3781   3.696   6.108   5.923
33962SOL     OW 3782  11.965   4.785   7.075
33962SOL    HW1 3783  11.963   4.876   7.103
33962SOL    HW2 3784  11.949   4.735   7.155
33963SOL     OW 3785   0.289  13.580  13.009
33963SOL    HW1 3786   0.279  13.675  13.013
33963SOL    HW2 3787   0.316  13.562  12.920
33964SOL     OW 3788  10.664  11.967   3.391
33964SOL    HW1 3789  10.668  12.046   3.337
33964SOL    HW2 3790  10.736  11.913   3.360
33965SOL     OW 3791   1.205   9.493   0.028
33965SOL    HW1 3792   1.123   9.496   0.078
33965SOL    HW2 3793   1.270   9.460   0.090
33966SOL     OW 3794   2.831   2.758  10.532
33966SOL    HW1 3795   2.737   2.751  10.547
33966SOL    HW2 3796   2.868   2.778  10.618
33967SOL     OW 3797   2.834   4.050   9.542
33967SOL    HW1 3798   2.886   4.106   9.486
33967SOL    HW2 3799   2.899   4.008   9.600
33968SOL     OW 3800   1.731   0.786   9.852
33968SOL    HW1 3801   1.747   0.751   9.764
33968SOL    HW2 3802   1.685   0.715   9.897
33969SOL     OW 3803  14.327  11.870   9.265
33969SOL    HW1 3804  14.235  11.851   9.245
33969SOL    HW2 3805  14.373  11.861   9.182
33970SOL     OW 3806  14.656   7.007   4.064
33970SOL    HW1 3807  14.631   6.919   4.092
33970SOL    HW2 3808  14.686   7.050   4.144
33971SOL     OW 3809   1.587   8.949   7.714
33971SOL    HW1 3810   1.538   8.923   7.792
33971SOL    HW2 3811   1.674   8.972   7.747
33972SOL     OW 3812   4.276  11.988   7.256
33972SOL    HW1 3813   4.233  11.991   7.170
33972SOL    HW2 3814   4.208  11.957   7.316
33973SOL     OW 3815   4.052   4.456   5.262
33973SOL    HW1 3816   3.968   4.495   5.286
33973SOL    HW2 3817   4.104   4.530   5.229
33974SOL     OW 3818   0.728  14.239   0.043
33974SOL    HW1 3819   0.797  14.253   0.108
33974SOL    HW2 3820   0.651  14.214   0.096
33975SOL     OW 3821   4.670   4.800   7.461
33975SOL    HW1 3822   4.701   4.848   7.384
33975SOL    HW2 3823   4.744   4.803   7.522
33976SOL     OW 3824   0.236   3.409   8.834
33976SOL    HW1 3825   0.311   3.388   8.777
33976SOL    HW2 3826   0.203   3.492   8.799
33977SOL     OW 3827   8.961   9.134   1.160
33977SOL    HW1 3828   9.036   9.135   1.219
33977SOL    HW2 3829   8.998   9.114   1.074
33978SOL     OW 3830   9.372   6.805   4.948
33978SOL    HW1 3831   9.294   6.790   5.001
33978SOL    HW2 3832   9.364   6.743   4.875
33979SOL     OW 3833   1.315   6.063  11.720
33979SOL    HW1 3834   1.286   5.973  11.732
33979SOL    HW2 3835   1.410   6.059  11.726
33980SOL     OW 3836   9.128   9.708   4.191
33980SOL    HW1 3837   9.093   9.790   4.227
33980SOL    HW2 3838   9.202   9.687   4.249
33981SOL     OW 3839  13.610  10.264   5.595
33981SOL    HW1 3840  13.519  10.280   5.570
33981SOL    HW2 3841  13.642  10.350   5.623
33982SOL     OW 3842   0.192   3.381   5.844
33982SOL    HW1 3843   0.104   3.416   5.835
33982SOL    HW2 3844   0.213   3.392   5.936
33983SOL     OW 3845   4.012  10.857   2.642
33983SOL    HW1 3846   4.013  10.940   2.595
33983SOL    HW2 3847   4.100  10.850   2.680
33984SOL     OW 3848  10.510  14.391   8.160
33984SOL    HW1 3849  10.494  14.461   8.097
33984SOL    HW2 3850  10.566  14.431   8.227
33985SOL     OW 3851  14.187   1.619   6.145
33985SOL    HW1 3852  14.198   1.562   6.069
33985SOL    HW2 3853  14.210   1.707   6.113
33986SOL     OW 3854  12.368   8.975   9.359
33986SOL    HW1 3855  12.275   8.971   9.336
33986SOL    HW2 3856  12.407   8.899   9.316
33987SOL     OW 3857   9.150  13.590   1.884
33987SOL    HW1 3858   9.131  13.684   1.888
33987SOL    HW2 3859   9.119  13.555   1.968
33988SOL     OW 3860   6.387   8.607  11.278
33988SOL    HW1 3861   6.466   8.560  11.306
33988SOL    HW2 3862   6.419   8.690  11.244
33989SOL     OW 3863  12.120   1.101  12.414
33989SOL    HW1 3864  12.085   1.023  12.457
33989SOL    HW2 3865  12.109   1.084  12.321
33990SOL     OW 3866   3.383   5.406  13.504
33990SOL    HW1 3867   3.391   5.499  13.483
33990SOL    HW2 3868   3.421   5.362  13.428
33991SOL     OW 3869   6.891  13.135   6.192
33991SOL    HW1 3870   6.899  13.053   6.242
33991SOL    HW2 3871   6.817  13.180   6.233
33992SOL     OW 3872  12.763   1.981  12.531
33992SOL    HW1 3873  12.769   2.023  12.616
33992SOL    HW2 3874  12.753   1.888  12.550
33993SOL     OW 3875   2.125   5.325   9.031
33993SOL    HW1 3876   2.075   5.254   9.071
33993SOL    HW2 3877   2.171   5.284   8.958
33994SOL     OW 3878   6.431  14.779  11.138
33994SOL    HW1 3879   6.425  14.767  11.044
33994SOL    HW2 3880   6.346  14.751  11.172
33995SOL     OW 3881  12.986   2.042   7.745
33995SOL    HW1 3882  13.001   2.105   7.815
33995SOL    HW2 3883  13.073   2.025   7.708
33996SOL     OW 3884   0.277   5.052   8.665
33996SOL    HW1 3885   0.185   5.062   8.690
33996SOL    HW2 3886   0.289   5.114   8.593
33997SOL     OW 3887   0.239  14.081  14.744
33997SOL    HW1 3888   0.261  14.093  14.652
33997SOL    HW2 3889   0.247  14.169  14.782
33998SOL     OW 3890   9.241   7.482   9.472
33998SOL    HW1 3891   9.266   7.397   9.436
33998SOL    HW2 3892   9.322   7.517   9.509
33999SOL     OW 3893  13.825   6.962   4.171
33999SOL    HW1 3894  13.909   6.951   4.215
33999SOL    HW2 3895  13.778   6.881   4.188
34000SOL     OW 3896   0.547  12.281  14.360
34000SOL    HW1 3897   0.531  12.371  14.387
34000SOL    HW2 3898   0.460  12.241  14.355
34001SOL     OW 3899  10.337   9.855  11.691
34001SOL    HW1 3900  10.359   9.774  11.738
34001SOL    HW2 3901  10.418   9.906  11.693
34002SOL     OW 3902  12.065   4.628  11.778
34002SOL    HW1 3903  11.970   4.615  11.786
34002SOL    HW2 3904  12.075   4.684  11.701
34003SOL     OW 3905   9.615   8.762   4.668
34003SOL    HW1 3906   9.610   8.672   4.635
34003SOL    HW2 3907   9.651   8.752   4.757
34004SOL     OW 3908   8.721  10.111   0.616
34004SOL    HW1 3909   8.741  10.184   0.675
34004SOL    HW2 3910   8.630  10.127   0.590
34005SOL     OW 3911  13.104   9.371  10.069
34005SOL    HW1 3912  13.190   9.412  10.059
34005SOL    HW2 3913  13.066   9.373   9.981
34006SOL     OW 3914   2.562   8.678   2.909
34006SOL    HW1 3915   2.490   8.653   2.852
34006SOL    HW2 3916   2.613   8.598   2.921
34007SOL     OW 3917  14.501  11.985   1.837
34007SOL    HW1 3918  14.590  11.952   1.850
34007SOL    HW2 3919  14.504  12.027   1.750
34008SOL     OW 3920   4.994  13.404  12.926
34008SOL    HW1 3921   4.953  13.399  13.012
34008SOL    HW2 3922   5.072  13.348  12.932
34009SOL     OW 3923  14.540   5.985   6.675
34009SOL    HW1 3924  14.479   6.009   6.605
34009SOL    HW2 3925  14.536   6.059   6.737
34010SOL     OW 3926  12.790   6.092   0.527
34010SOL    HW1 3927  12.753   6.006   0.509
34010SOL    HW2 3928  12.717   6.153   0.511
34011SOL     OW 3929   5.915   1.675   4.375
34011SOL    HW1 3930   5.859   1.725   4.434
34011SOL    HW2 3931   5.857   1.649   4.303
34012SOL     OW 3932  12.893   5.236   8.224
34012SOL    HW1 3933  12.877   5.306   8.161
34012SOL    HW2 3934  12.818   5.239   8.284
34013SOL     OW 3935   6.115  10.705  12.567
34013SOL    HW1 3936   6.191  10.680  12.515
34013SOL    HW2 3937   6.135  10.674  12.656
34014SOL     OW 3938   5.765   5.045  13.857
34014SOL    HW1 3939   5.826   5.080  13.792
34014SOL    HW2 3940   5.797   4.956  13.873
34015SOL     OW 3941  11.964  10.763   2.173
34015SOL    HW1 3942  12.055  10.767   2.202
34015SOL    HW2 3943  11.965  10.807   2.088
34016SOL     OW 3944   2.265   7.920   6.092
34016SOL    HW1 3945   2.246   7.829   6.070
34016SOL    HW2 3946   2.336   7.945   6.033
34017SOL     OW 3947   4.741  10.249   4.483
34017SOL    HW1 3948   4.656  10.206   4.481
34017SOL    HW2 3949   4.722  10.341   4.470
34018SOL     OW 3950  10.501   6.998  10.338
34018SOL    HW1 3951  10.458   7.083  10.328
34018SOL    HW2 3952  10.577   7.016  10.393
34019SOL     OW 3953  12.126   0.361  14.281
34019SOL    HW1 3954  12.120   0.438  14.337
34019SOL    HW2 3955  12.064   0.377  14.210
34020SOL     OW 3956  10.499   3.518   7.371
34020SOL    HW1 3957  10.516   3.561   7.455
34020SOL    HW2 3958  10.498   3.425   7.391
34021SOL     OW 3959   2.423   1.977   6.883
34021SOL    HW1 3960   2.438   1.905   6.944
34021SOL    HW2 3961   2.427   1.935   6.797
34022SOL     OW 3962  13.062  12.374  11.245
34022SOL    HW1 3963  12.976  12.412  11.265
34022SOL    HW2 3964  13.076  12.310  11.315
34023SOL     OW 3965  13.992  10.589   8.330
34023SOL    HW1 3966  13.966  10.600   8.238
34023SOL    HW2 3967  13.929  10.641   8.379
34024SOL     OW 3968   4.658   2.010   3.044
34024SOL    HW1 3969   4.637   1.920   3.017
34024SOL    HW2 3970   4.721   2.041   2.978
34025SOL     OW 3971  14.366   9.548   1.428
34025SOL    HW1 3972  14.397   9.534   1.339
34025SOL    HW2 3973  14.403   9.632   1.453
34026SOL     OW 3974  13.700  12.102  14.348
34026SOL    HW1 3975  13.684  12.099  14.254
34026SOL    HW2 3976  13.632  12.160  14.382
34027SOL     OW 3977  11.303  12.988   3.866
34027SOL    HW1 3978  11.257  12.926   3.809
34027SOL    HW2 3979  11.235  13.047   3.897
34028SOL     OW 3980   4.683   7.404  11.213
34028SOL    HW1 3981   4.645   7.404  11.301
34028SOL    HW2 3982   4.680   7.495  11.186
34029SOL     OW 3983  11.762  13.093   5.665
34029SOL    HW1 3984  11.814  13.148   5.724
34029SOL    HW2 3985  11.671  13.111   5.689
34030SOL     OW 3986   3.445  13.469   3.888
34030SOL    HW1 3987   3.385  13.478   3.813
34030SOL    HW2 3988   3.528  13.441   3.849
34031SOL     OW 3989   7.820   8.524   2.169
34031SOL    HW1 3990   7.842   8.459   2.103
34031SOL    HW2 3991   7.892   8.521   2.231
34032SOL     OW 3992  10.741   1.420   6.633
34032SOL    HW1 3993  10.803   1.373   6.576
34032SOL    HW2 3994  10.757   1.385   6.720
34033SOL     OW 3995   8.798   3.134  14.204
34033SOL    HW1 3996   8.731   3.070  14.228
34033SOL    HW2 3997   8.859   3.085  14.149
34034SOL     OW 3998   3.284   5.517  11.292
34034SOL    HW1 3999   3.327   5.601  11.277
34034SOL    HW2 4000   3.216   5.536  11.357
34035SOL     OW 4001   6.325   7.130  13.838
34035SOL    HW1 4002   6.311   7.110  13.746
34035SOL    HW2 4003   6.405   7.183  13.840
34036SOL     OW 4004   4.372   8.713  13.746
34036SOL    HW1 4005   4.290   8.700  13.794
34036SOL    HW2 4006   4.359   8.666  13.663
34037SOL     OW 4007  12.532   4.079   3.087
34037SOL    HW1 4008  12.507   4.007   3.145
34037SOL    HW2 4009  12.469   4.075   3.015
34038SOL     OW 4010   7.551  10.754  10.661
34038SOL    HW1 4011   7.527  10.846  10.652
34038SOL    HW2 4012   7.530  10.733  10.752
34039SOL     OW 4013  13.998   3.551   9.551
34039SOL    HW1 4014  14.005   3.608   9.474
34039SOL    HW2 4015  14.024   3.465   9.519
34040SOL     OW 4016   0.599   0.241   2.713
34040SOL    HW1 4017   0.628   0.303   2.780
34040SOL    HW2 4018   0.598   0.291   2.632
34041SOL     OW 4019   6.727  14.859   1.139
34041SOL    HW1 4020   6.755   0.072   1.132
34041SOL    HW2 4021   6.806  14.811   1.163
34042SOL     OW 4022   0.667   2.452   3.408
34042SOL    HW1 4023   0.728   2.432   3.337
34042SOL    HW2 4024   0.664   2.548   3.409
34043SOL     OW 4025   8.696  11.668   1.076
34043SOL    HW1 4026   8.763  11.699   1.137
34043SOL    HW2 4027   8.648  11.747   1.052
34044SOL     OW 4028   5.695   3.104  13.460
34044SOL    HW1 4029   5.714   3.136  13.372
34044SOL    HW2 4030   5.776   3.063  13.489
34045SOL     OW 4031   0.487  12.898   6.815
34045SOL    HW1 4032   0.408  12.948   6.835
34045SOL    HW2 4033   0.458  12.807   6.808
34046SOL     OW 4034   4.846  13.777   1.441
34046SOL    HW1 4035   4.813  13.843   1.381
34046SOL    HW2 4036   4.829  13.812   1.528
34047SOL     OW 4037   4.230  13.958   9.064
34047SOL    HW1 4038   4.211  13.897   9.136
34047SOL    HW2 4039   4.177  14.036   9.085
34048SOL     OW 4040   3.737  10.662   5.241
34048SOL    HW1 4041   3.720  10.656   5.147
34048SOL    HW2 4042   3.711  10.750   5.265
34049SOL     OW 4043   5.530   8.054   1.760
34049SOL    HW1 4044   5.439   8.080   1.774
34049SOL    HW2 4045   5.576   8.086   1.837
34050SOL     OW 4046   0.979   3.436   9.829
34050SOL    HW1 4047   1.021   3.435   9.742
34050SOL    HW2 4048   0.948   3.346   9.841
34051SOL     OW 4049  13.891   0.307   4.406
34051SOL    HW1 4050  13.969   0.359   4.387
34051SOL    HW2 4051  13.924   0.230   4.452
34052SOL     OW 4052   3.807   7.062   3.426
34052SOL    HW1 4053   3.866   6.992   3.399
34052SOL    HW2 4054   3.775   7.099   3.344
34053SOL     OW 4055   3.158   0.675  13.925
34053SOL    HW1 4056   3.163   0.754  13.979
34053SOL    HW2 4057   3.189   0.605  13.982
34054SOL     OW 4058   5.970  14.517  13.451
34054SOL    HW1 4059   6.053  14.502  13.497
34054SOL    HW2 4060   5.917  14.440  13.471
34055SOL     OW 4061   2.640   8.572  10.411
34055SOL    HW1 4062   2.658   8.622  10.490
34055SOL    HW2 4063   2.718   8.518  10.397
34056SOL     OW 4064  10.571   3.761  12.013
34056SOL    HW1 4065  10.586   3.689  11.952
34056SOL    HW2 4066  10.497   3.732  12.067
34057SOL     OW 4067  13.798   0.005   4.500
34057SOL    HW1 4068  13.809  14.865   4.407
34057SOL    HW2 4069  13.709  14.855   4.519
34058SOL     OW 4070   4.349  11.056   8.284
34058SOL    HW1 4071   4.277  10.996   8.264
34058SOL    HW2 4072   4.427  11.012   8.249
34059SOL     OW 4073   5.867   9.439   8.927
34059SOL    HW1 4074   5.925   9.479   8.991
34059SOL    HW2 4075   5.837   9.513   8.873
34060SOL     OW 4076   7.611   8.909   7.961
34060SOL    HW1 4077   7.641   8.998   7.981
34060SOL    HW2 4078   7.615   8.863   8.045
34061SOL     OW 4079   8.854   6.676   0.507
34061SOL    HW1 4080   8.792   6.615   0.549
34061SOL    HW2 4081   8.813   6.697   0.423
34062SOL     OW 4082   3.670  10.429  14.225
34062SOL    HW1 4083   3.726  10.351  14.223
34062SOL    HW2 4084   3.661  10.449  14.318
34063SOL     OW 4085   6.380  11.569   0.101
34063SOL    HW1 4086   6.390  11.651   0.149
34063SOL    HW2 4087   6.446  11.511   0.138
34064SOL     OW 4088   6.984   4.360   5.948
34064SOL    HW1 4089   7.072   4.396   5.952
34064SOL    HW2 4090   6.994   4.268   5.973
34065SOL     OW 4091  10.263  12.089  10.505
34065SOL    HW1 4092  10.297  12.177  10.490
34065SOL    HW2 4093  10.212  12.096  10.586
34066SOL     OW 4094   8.824   4.944   6.118
34066SOL    HW1 4095   8.899   4.938   6.059
34066SOL    HW2 4096   8.776   4.862   6.103
34067SOL     OW 4097   3.687  14.024   7.832
34067SOL    HW1 4098   3.710  14.090   7.898
34067SOL    HW2 4099   3.635  14.072   7.768
34068SOL     OW 4100   6.883   9.738   3.010
34068SOL    HW1 4101   6.796   9.738   3.050
34068SOL    HW2 4102   6.866   9.749   2.916
34069SOL     OW 4103   6.228   1.956   7.664
34069SOL    HW1 4104   6.270   1.980   7.581
34069SOL    HW2 4105   6.145   2.003   7.664
34070SOL     OW 4106  11.145   9.974  14.307
34070SOL    HW1 4107  11.238   9.987  14.325
34070SOL    HW2 4108  11.136   9.994  14.213
34071SOL     OW 4109   0.736  14.010   3.086
34071SOL    HW1 4110   0.763  13.942   3.024
34071SOL    HW2 4111   0.789  14.086   3.063
34072SOL     OW 4112   9.337  12.266   6.862
34072SOL    HW1 4113   9.388  12.303   6.790
34072SOL    HW2 4114   9.247  12.265   6.829
34073SOL     OW 4115  10.216  11.989  13.811
34073SOL    HW1 4116  10.139  12.045  13.816
34073SOL    HW2 4117  10.181  11.900  13.799
34074SOL     OW 4118   7.568   1.032  11.356
34074SOL    HW1 4119   7.648   1.084  11.357
34074SOL    HW2 4120   7.593   0.950  11.313
34075SOL     OW 4121  13.007   8.899   6.297
34075SOL    HW1 4122  13.031   8.808   6.286
34075SOL    HW2 4123  13.054   8.946   6.228
34076SOL     OW 4124   4.504  14.614   7.115
34076SOL    HW1 4125   4.488  14.686   7.053
34076SOL    HW2 4126   4.572  14.561   7.074
34077SOL     OW 4127  12.175   4.914   0.537
34077SOL    HW1 4128  12.234   4.955   0.600
34077SOL    HW2 4129  12.141   4.986   0.485
34078SOL     OW 4130   2.161   9.979  12.467
34078SOL    HW1 4131   2.090  10.028  12.428
34078SOL    HW2 4132   2.137   9.969  12.559
34079SOL     OW 4133  12.956   4.945   2.744
34079SOL    HW1 4134  12.907   4.963   2.824
34079SOL    HW2 4135  12.907   4.990   2.675
34080SOL     OW 4136   4.779   7.931  11.291
34080SOL    HW1 4137   4.733   7.936  11.374
34080SOL    HW2 4138   4.871   7.918  11.315
34081SOL     OW 4139   6.561  13.849  10.102
34081SOL    HW1 4140   6.552  13.932  10.054
34081SOL    HW2 4141   6.489  13.795  10.070
34082SOL     OW 4142  14.012  12.014   6.131
34082SOL    HW1 4143  13.948  12.079   6.103
34082SOL    HW2 4144  14.095  12.045   6.095
34083SOL     OW 4145  13.358  11.163   1.406
34083SOL    HW1 4146  13.301  11.233   1.373
34083SOL    HW2 4147  13.322  11.083   1.368
34084SOL     OW 4148  10.987  13.890   5.476
34084SOL    HW1 4149  11.070  13.845   5.491
34084SOL    HW2 4150  10.972  13.940   5.556
34085SOL     OW 4151   6.260   9.544   4.880
34085SOL    HW1 4152   6.343   9.521   4.923
34085SOL    HW2 4153   6.276   9.527   4.787
34086SOL     OW 4154  11.077   5.318  11.454
34086SOL    HW1 4155  11.025   5.398  11.465
34086SOL    HW2 4156  11.082   5.306  11.359
34087SOL     OW 4157   4.020  10.609   4.945
34087SOL    HW1 4158   4.099  10.585   4.897
34087SOL    HW2 4159   3.968  10.528   4.948
34088SOL     OW 4160   3.985  13.456  11.312
34088SOL    HW1 4161   4.057  13.393  11.307
34088SOL    HW2 4162   4.024  13.540  11.290
34089SOL     OW 4163  12.581  10.395   9.636
34089SOL    HW1 4164  12.579  10.487   9.610
34089SOL    HW2 4165  12.637  10.394   9.714
34090SOL     OW 4166   5.442   7.567  11.010
34090SOL    HW1 4167   5.408   7.481  11.033
34090SOL    HW2 4168   5.397   7.627  11.070
34091SOL     OW 4169   1.495  14.077   4.167
34091SOL    HW1 4170   1.490  14.056   4.074
34091SOL    HW2 4171   1.586  14.102   4.182
34092SOL     OW 4172   7.306  10.913   2.594
34092SOL    HW1 4173   7.243  10.844   2.572
34092SOL    HW2 4174   7.269  10.955   2.672
34093SOL     OW 4175   6.739   1.681   5.855
34093SOL    HW1 4176   6.706   1.766   5.883
34093SOL    HW2 4177   6.736   1.684   5.759
34094SOL     OW 4178   9.621  11.030  10.133
34094SOL    HW1 4179   9.668  11.085  10.071
34094SOL    HW2 4180   9.529  11.054  10.122
34095SOL     OW 4181  13.766   1.249   0.103
34095SOL    HW1 4182  13.797   1.172   0.150
34095SOL    HW2 4183  13.672   1.252   0.121
34096SOL     OW 4184  10.442   7.255   3.793
34096SOL    HW1 4185  10.515   7.256   3.854
34096SOL    HW2 4186  10.405   7.343   3.797
34097SOL     OW 4187   1.908  14.652  13.325
34097SOL    HW1 4188   1.818  14.681  13.344
34097SOL    HW2 4189   1.938  14.711  13.256
34098SOL     OW 4190   0.587   6.236   9.395
34098SOL    HW1 4191   0.532   6.159   9.412
34098SOL    HW2 4192   0.555   6.302   9.458
34099SOL     OW 4193  14.680   5.255   6.156
34099SOL    HW1 4194  14.617   5.200   6.201
34099SOL    HW2 4195  14.641   5.343   6.158
34100SOL     OW 4196  12.679   4.140   8.453
34100SOL    HW1 4197  12.774   4.150   8.453
34100SOL    HW2 4198  12.653   4.164   8.364
34101SOL     OW 4199  13.140   2.559   3.726
34101SOL    HW1 4200  13.210   2.494   3.713
34101SOL    HW2 4201  13.061   2.515   3.695
34102SOL     OW 4202   9.907   0.855   8.419
34102SOL    HW1 4203   9.971   0.840   8.488
34102SOL    HW2 4204   9.958   0.893   8.347
34103SOL     OW 4205   0.188   3.536   1.492
34103SOL    HW1 4206   0.193   3.499   1.581
34103SOL    HW2 4207   0.245   3.480   1.440
34104SOL     OW 4208   6.076   0.513  13.510
34104SOL    HW1 4209   6.123   0.432  13.532
34104SOL    HW2 4210   5.991   0.484  13.478
34105SOL     OW 4211   3.539   1.274   9.511
34105SOL    HW1 4212   3.520   1.200   9.569
34105SOL    HW2 4213   3.632   1.291   9.524
34106SOL     OW 4214  11.613   5.082   1.662
34106SOL    HW1 4215  11.637   5.142   1.591
34106SOL    HW2 4216  11.684   5.090   1.726
34107SOL     OW 4217   3.951   7.845   9.545
34107SOL    HW1 4218   3.904   7.928   9.549
34107SOL    HW2 4219   4.038   7.865   9.582
34108SOL     OW 4220  13.064   0.630   1.336
34108SOL    HW1 4221  13.067   0.717   1.375
34108SOL    HW2 4222  13.146   0.622   1.288
34109SOL     OW 4223   4.399   6.280  10.882
34109SOL    HW1 4224   4.448   6.354  10.847
34109SOL    HW2 4225   4.371   6.308  10.969
34110SOL     OW 4226  11.227   2.052   9.487
34110SOL    HW1 4227  11.189   2.123   9.538
34110SOL    HW2 4228  11.188   2.061   9.400
34111SOL     OW 4229  11.870  13.576   5.981
34111SOL    HW1 4230  11.784  13.595   5.943
34111SOL    HW2 4231  11.871  13.624   6.064
34112SOL     OW 4232  11.334   4.896  10.357
34112SOL    HW1 4233  11.242   4.907  10.336
34112SOL    HW2 4234  11.350   4.959  10.427
34113SOL     OW 4235   3.751  10.941   6.577
34113SOL    HW1 4236   3.692  10.945   6.502
34113SOL    HW2 4237   3.810  10.868   6.558
34114SOL     OW 4238  14.000   3.663   3.141
34114SOL    HW1 4239  13.987   3.748   3.183
34114SOL    HW2 4240  13.931   3.658   3.074
34115SOL     OW 4241  10.740   0.879   3.825
34115SOL    HW1 4242  10.770   0.788   3.821
34115SOL    HW2 4243  10.754   0.905   3.917
34116SOL     OW 4244   7.718   9.042  11.553
34116SOL    HW1 4245   7.761   8.969  11.508
34116SOL    HW2 4246   7.730   9.023  11.646
34117SOL     OW 4247   3.743   7.752   7.679
34117SOL    HW1 4248   3.796   7.674   7.694
34117SOL    HW2 4249   3.778   7.789   7.598
34118SOL     OW 4250   5.080  12.884   3.480
34118SOL    HW1 4251   5.063  12.959   3.424
34118SOL    HW2 4252   5.171  12.895   3.509
34119SOL     OW 4253  12.892   1.714  14.048
34119SOL    HW1 4254  12.798   1.727  14.047
34119SOL    HW2 4255  12.926   1.773  13.980
34120SOL     OW 4256   2.217  10.627  10.525
34120SOL    HW1 4257   2.159  10.595  10.455
34120SOL    HW2 4258   2.284  10.559  10.533
34121SOL     OW 4259   4.507   5.473   7.089
34121SOL    HW1 4260   4.592   5.472   7.045
34121SOL    HW2 4261   4.455   5.535   7.038
34122SOL     OW 4262   0.450   1.964  12.609
34122SOL    HW1 4263   0.514   2.024  12.570
34122SOL    HW2 4264   0.502   1.908  12.666
34123SOL     OW 4265   7.757   3.547   0.061
34123SOL    HW1 4266   7.702   3.568  14.864
34123SOL    HW2 4267   7.845   3.536   0.025
34124SOL     OW 4268   1.803   6.291   8.900
34124SOL    HW1 4269   1.815   6.217   8.959
34124SOL    HW2 4270   1.734   6.344   8.941
34125SOL     OW 4271  11.284  12.124  13.179
34125SOL    HW1 4272  11.318  12.076  13.255
34125SOL    HW2 4273  11.323  12.080  13.104
34126SOL     OW 4274  11.805   4.391   1.172
34126SOL    HW1 4275  11.842   4.360   1.089
34126SOL    HW2 4276  11.852   4.342   1.239
34127SOL     OW 4277   3.730  10.197   9.316
34127SOL    HW1 4278   3.672  10.239   9.253
34127SOL    HW2 4279   3.782  10.135   9.264
34128SOL     OW 4280  12.136  11.771  13.104
34128SOL    HW1 4281  12.153  11.677  13.108
34128SOL    HW2 4282  12.206  11.806  13.048
34129SOL     OW 4283   7.167  13.350   9.751
34129SOL    HW1 4284   7.116  13.429   9.768
34129SOL    HW2 4285   7.148  13.330   9.659
34130SOL     OW 4286   4.368   7.474   8.684
34130SOL    HW1 4287   4.303   7.541   8.661
34130SOL    HW2 4288   4.419   7.462   8.604
34131SOL     OW 4289  10.074  13.833  10.769
34131SOL    HW1 4290   9.994  13.884  10.770
34131SOL    HW2 4291  10.046  13.743  10.752
34132SOL     OW 4292   2.949   6.291  12.306
34132SOL    HW1 4293   2.856   6.307  12.322
34132SOL    HW2 4294   2.976   6.359  12.245
34133SOL     OW 4295   7.751  10.548  12.402
34133SOL    HW1 4296   7.678  10.609  12.411
34133SOL    HW2 4297   7.711  10.462  12.417
34134SOL     OW 4298   4.376  12.412   5.947
34134SOL    HW1 4299   4.319  12.360   6.004
34134SOL    HW2 4300   4.454  12.358   5.936
34135SOL     OW 4301  11.560   5.692  10.413
34135SOL    HW1 4302  11.647   5.669  10.447
34135SOL    HW2 4303  11.578   5.756  10.345
34136SOL     OW 4304   3.779   2.081   4.109
34136SOL    HW1 4305   3.763   2.036   4.192
34136SOL    HW2 4306   3.696   2.123   4.088
34137SOL     OW 4307   4.858   8.486  12.508
34137SOL    HW1 4308   4.901   8.532  12.579
34137SOL    HW2 4309   4.926   8.428  12.473
34138SOL     OW 4310  14.216   6.852   6.572
34138SOL    HW1 4311  14.258   6.869   6.488
34138SOL    HW2 4312  14.281   6.876   6.637
34139SOL     OW 4313   6.975   7.648   4.680
34139SOL    HW1 4314   6.950   7.607   4.763
34139SOL    HW2 4315   7.066   7.676   4.693
34140SOL     OW 4316   7.412   5.300   9.411
34140SOL    HW1 4317   7.471   5.262   9.476
34140SOL    HW2 4318   7.452   5.383   9.388
34141SOL     OW 4319  13.942  14.606  11.011
34141SOL    HW1 4320  13.891  14.672  10.965
34141SOL    HW2 4321  13.878  14.537  11.033
34142SOL     OW 4322   3.246   5.604  13.800
34142SOL    HW1 4323   3.268   5.663  13.729
34142SOL    HW2 4324   3.306   5.530  13.790
34143SOL     OW 4325  13.363   6.658   6.320
34143SOL    HW1 4326  13.335   6.743   6.286
34143SOL    HW2 4327  13.454   6.650   6.293
34144SOL     OW 4328  10.217   7.382   0.490
34144SOL    HW1 4329  10.299   7.399   0.535
34144SOL    HW2 4330  10.160   7.344   0.557
34145SOL     OW 4331   7.664  14.437   5.569
34145SOL    HW1 4332   7.701  14.424   5.482
34145SOL    HW2 4333   7.728  14.395   5.628
34146SOL     OW 4334   0.379   9.011   8.583
34146SOL    HW1 4335   0.461   8.961   8.576
34146SOL    HW2 4336   0.323   8.975   8.514
34147SOL     OW 4337   4.095  13.620  10.332
34147SOL    HW1 4338   4.042  13.547  10.300
34147SOL    HW2 4339   4.088  13.686  10.263
34148SOL     OW 4340  11.688  11.917  13.233
34148SOL    HW1 4341  11.735  11.963  13.164
34148SOL    HW2 4342  11.632  11.854  13.187
34149SOL     OW 4343   4.591   0.133  11.406
34149SOL    HW1 4344   4.510   0.183  11.396
34149SOL    HW2 4345   4.629   0.165  11.488
34150SOL     OW 4346  13.760  10.283  10.078
34150SOL    HW1 4347  13.828  10.217  10.063
34150SOL    HW2 4348  13.685  10.253  10.028
34151SOL     OW 4349  14.364  10.011   7.255
34151SOL    HW1 4350  14.414   9.933   7.230
34151SOL    HW2 4351  14.274   9.979   7.265
34152SOL     OW 4352   6.039   0.012  11.908
34152SOL    HW1 4353   6.006   0.092  11.865
34152SOL    HW2 4354   6.072   0.043  11.992
34153SOL     OW 4355   5.624   6.259   4.929
34153SOL    HW1 4356   5.685   6.202   4.882
34153SOL    HW2 4357   5.571   6.200   4.981
34154SOL     OW 4358   3.923   7.447   5.141
34154SOL    HW1 4359   3.959   7.532   5.119
34154SOL    HW2 4360   3.829   7.456   5.125
34155SOL     OW 4361   3.325   4.399  10.236
34155SOL    HW1 4362   3.360   4.458  10.169
34155SOL    HW2 4363   3.230   4.410  10.229
34156SOL     OW 4364   3.370  12.653   5.519
34156SOL    HW1 4365   3.414  12.658   5.604
34156SOL    HW2 4366   3.431  12.695   5.458
34157SOL     OW 4367  13.960   7.574  13.626
34157SOL    HW1 4368  13.942   7.667  13.617
34157SOL    HW2 4369  14.009   7.567  13.708
34158SOL     OW 4370   3.854   5.950  10.520
34158SOL    HW1 4371   3.926   5.888  10.508
34158SOL    HW2 4372   3.801   5.912  10.590
34159SOL     OW 4373  14.663   7.439   4.809
34159SOL    HW1 4374  14.570   7.454   4.793
34159SOL    HW2 4375  14.696   7.525   4.838
34160SOL     OW 4376   4.667  10.446  12.328
34160SOL    HW1 4377   4.740  10.507  12.335
34160SOL    HW2 4378   4.663  10.404  12.415
34161SOL     OW 4379   9.362   5.145  11.713
34161SOL    HW1 4380   9.413   5.086  11.767
34161SOL    HW2 4381   9.371   5.112  11.624
34162SOL     OW 4382   2.106  10.450  13.364
34162SOL    HW1 4383   2.106  10.460  13.269
34162SOL    HW2 4384   2.080  10.536  13.398
34163SOL     OW 4385  11.370   5.155   1.424
34163SOL    HW1 4386  11.401   5.161   1.334
34163SOL    HW2 4387  11.341   5.064   1.434
34164SOL     OW 4388  12.822   5.983   8.370
34164SOL    HW1 4389  12.734   6.019   8.381
34164SOL    HW2 4390  12.825   5.955   8.279
34165SOL     OW 4391   3.049  10.558   9.848
34165SOL    HW1 4392   3.004  10.623   9.793
34165SOL    HW2 4393   3.140  10.562   9.821
34166SOL     OW 4394   7.370  13.296   4.612
34166SOL    HW1 4395   7.456  13.264   4.639
34166SOL    HW2 4396   7.314  13.283   4.689
34167SOL     OW 4397  10.423   7.783   8.353
34167SOL    HW1 4398  10.332   7.759   8.335
34167SOL    HW2 4399  10.472   7.744   8.281
34168SOL     OW 4400   2.655   8.578  11.155
34168SOL    HW1 4401   2.583   8.544  11.209
34168SOL    HW2 4402   2.709   8.629  11.216
34169SOL     OW 4403   6.508   4.988  13.129
34169SOL    HW1 4404   6.555   4.923  13.181
34169SOL    HW2 4405   6.487   5.058  13.191
34170SOL     OW 4406   5.968  12.725   7.246
34170SOL    HW1 4407   6.021  12.691   7.318
34170SOL    HW2 4408   5.883  12.681   7.255
34171SOL     OW 4409   6.965  11.569   1.133
34171SOL    HW1 4410   6.907  11.601   1.202
34171SOL    HW2 4411   7.039  11.531   1.180
34172SOL     OW 4412   6.800   2.337   2.781
34172SOL    HW1 4413   6.776   2.250   2.812
34172SOL    HW2 4414   6.878   2.359   2.831
34173SOL     OW 4415   7.792   7.440   7.160
34173SOL    HW1 4416   7.781   7.424   7.253
34173SOL    HW2 4417   7.790   7.535   7.151
34174SOL     OW 4418   4.534   8.737  13.200
34174SOL    HW1 4419   4.597   8.673  13.233
34174SOL    HW2 4420   4.524   8.715  13.107
34175SOL     OW 4421   0.109   2.227   1.437
34175SOL    HW1 4422   0.132   2.288   1.507
34175SOL    HW2 4423   0.163   2.150   1.454
34176SOL     OW 4424   7.118   4.906  13.034
34176SOL    HW1 4425   7.070   4.842  12.983
34176SOL    HW2 4426   7.170   4.955  12.970
34177SOL     OW 4427   6.626   9.406   5.626
34177SOL    HW1 4428   6.671   9.323   5.607
34177SOL    HW2 4429   6.591   9.435   5.542
34178SOL     OW 4430  13.093   5.034   3.345
34178SOL    HW1 4431  13.065   5.039   3.437
34178SOL    HW2 4432  13.157   4.963   3.343
34179SOL     OW 4433   7.242  13.114   5.357
34179SOL    HW1 4434   7.209  13.201   5.334
34179SOL    HW2 4435   7.221  13.059   5.281
34180SOL     OW 4436   7.417   8.714  14.491
34180SOL    HW1 4437   7.491   8.715  14.552
34180SOL    HW2 4438   7.454   8.684  14.408
34181SOL     OW 4439   8.191   2.678   2.572
34181SOL    HW1 4440   8.280   2.702   2.597
34181SOL    HW2 4441   8.192   2.675   2.476
34182SOL     OW 4442  13.625   4.483   6.237
34182SOL    HW1 4443  13.599   4.397   6.270
34182SOL    HW2 4444  13.719   4.489   6.257
34183SOL     OW 4445  14.277  11.777   0.916
34183SOL    HW1 4446  14.314  11.691   0.897
34183SOL    HW2 4447  14.288  11.788   1.011
34184SOL     OW 4448  13.233  14.083  11.742
34184SOL    HW1 4449  13.270  14.021  11.805
34184SOL    HW2 4450  13.309  14.119  11.697
34185SOL     OW 4451   1.177  11.409  14.378
34185SOL    HW1 4452   1.240  11.397  14.449
34185SOL    HW2 4453   1.225  11.386  14.299
34186SOL     OW 4454   6.423  14.041  12.774
34186SOL    HW1 4455   6.415  14.001  12.687
34186SOL    HW2 4456   6.437  13.968  12.833
34187SOL     OW 4457   6.273  10.399   4.521
34187SOL    HW1 4458   6.194  10.403   4.576
34187SOL    HW2 4459   6.244  10.432   4.436
34188SOL     OW 4460  12.743  13.696   4.828
34188SOL    HW1 4461  12.678  13.720   4.763
34188SOL    HW2 4462  12.792  13.776   4.845
34189SOL     OW 4463   9.747   4.047   0.805
34189SOL    HW1 4464   9.837   4.060   0.775
34189SOL    HW2 4465   9.724   4.129   0.847
34190SOL     OW 4466   7.132  12.853  13.188
34190SOL    HW1 4467   7.133  12.904  13.106
34190SOL    HW2 4468   7.039  12.836  13.204
34191SOL     OW 4469   0.661   6.101  13.618
34191SOL    HW1 4470   0.631   6.031  13.560
34191SOL    HW2 4471   0.611   6.178  13.591
34192SOL     OW 4472   0.485  11.027   1.817
34192SOL    HW1 4473   0.548  11.036   1.888
34192SOL    HW2 4474   0.403  11.004   1.860
34193SOL     OW 4475   3.472  11.886  13.920
34193SOL    HW1 4476   3.405  11.833  13.876
34193SOL    HW2 4477   3.548  11.829  13.925
34194SOL     OW 4478   2.653   2.880   4.925
34194SOL    HW1 4479   2.577   2.823   4.936
34194SOL    HW2 4480   2.669   2.881   4.831
34195SOL     OW 4481   5.784  11.121  14.780
34195SOL    HW1 4482   5.703  11.166  14.806
34195SOL    HW2 4483   5.797  11.054  14.847
34196SOL     OW 4484  10.535  12.664   2.362
34196SOL    HW1 4485  10.545  12.715   2.282
34196SOL    HW2 4486  10.625  12.640   2.387
34197SOL     OW 4487   8.718   7.120  13.057
34197SOL    HW1 4488   8.639   7.069  13.076
34197SOL    HW2 4489   8.700   7.207  13.094
34198SOL     OW 4490   2.918  11.844   0.731
34198SOL    HW1 4491   2.875  11.899   0.796
34198SOL    HW2 4492   2.868  11.861   0.650
34199SOL     OW 4493  11.661   4.717  10.918
34199SOL    HW1 4494  11.581   4.753  10.879
34199SOL    HW2 4495  11.633   4.635  10.957
34200SOL     OW 4496  14.627   1.747   7.567
34200SOL    HW1 4497  14.577   1.747   7.485
34200SOL    HW2 4498  14.578   1.690   7.625
34201SOL     OW 4499  12.142  10.590   8.241
34201SOL    HW1 4500  12.226  10.615   8.202
34201SOL    HW2 4501  12.140  10.636   8.325
34202SOL     OW 4502  10.266   6.919   5.610
34202SOL    HW1 4503  10.206   6.870   5.554
34202SOL    HW2 4504  10.211   6.984   5.653
34203SOL     OW 4505   0.769  12.657  11.456
34203SOL    HW1 4506   0.781  12.644  11.550
34203SOL    HW2 4507   0.675  12.672  11.446
34204SOL     OW 4508  12.628   3.377  14.510
34204SOL    HW1 4509  12.591   3.354  14.595
34204SOL    HW2 4510  12.664   3.295  14.477
34205SOL     OW 4511   1.070  10.258   5.337
34205SOL    HW1 4512   1.076  10.314   5.260
34205SOL    HW2 4513   1.067  10.319   5.411
34206SOL     OW 4514   5.958   0.429   3.423
34206SOL    HW1 4515   5.990   0.460   3.507
34206SOL    HW2 4516   5.952   0.334   3.433
34207SOL     OW 4517  10.437  12.162   9.393
34207SOL    HW1 4518  10.447  12.179   9.299
34207SOL    HW2 4519  10.431  12.067   9.399
34208SOL     OW 4520   6.766   9.240   6.984
34208SOL    HW1 4521   6.674   9.269   6.983
34208SOL    HW2 4522   6.761   9.148   7.010
34209SOL     OW 4523  14.290  10.361   2.690
34209SOL    HW1 4524  14.361  10.406   2.735
34209SOL    HW2 4525  14.225  10.345   2.758
34210SOL     OW 4526  14.255  14.131   4.806
34210SOL    HW1 4527  14.237  14.089   4.890
34210SOL    HW2 4528  14.234  14.064   4.740
34211SOL     OW 4529   3.595   3.136  12.930
34211SOL    HW1 4530   3.662   3.097  12.986
34211SOL    HW2 4531   3.604   3.230  12.944
34212SOL     OW 4532   8.471   5.925  11.267
34212SOL    HW1 4533   8.397   5.973  11.229
34212SOL    HW2 4534   8.497   5.977  11.343
34213SOL     OW 4535   7.824   0.322  13.572
34213SOL    HW1 4536   7.830   0.231  13.600
34213SOL    HW2 4537   7.915   0.348  13.557
34214SOL     OW 4538   5.047  13.617  14.507
34214SOL    HW1 4539   5.058  13.524  14.488
34214SOL    HW2 4540   5.055  13.660  14.422
34215SOL     OW 4541   2.546   9.567   4.053
34215SOL    HW1 4542   2.487   9.514   3.999
34215SOL    HW2 4543   2.513   9.556   4.142
34216SOL     OW 4544  11.031  11.874   2.108
34216SOL    HW1 4545  11.015  11.808   2.175
34216SOL    HW2 4546  11.036  11.957   2.157
34217SOL     OW 4547  14.370  13.069   4.966
34217SOL    HW1 4548  14.453  13.086   5.011
34217SOL    HW2 4549  14.316  13.144   4.989
34218SOL     OW 4550   2.208   0.592   2.306
34218SOL    HW1 4551   2.190   0.624   2.395
34218SOL    HW2 4552   2.290   0.543   2.315
34219SOL     OW 4553   2.861  14.059   9.294
34219SOL    HW1 4554   2.935  14.093   9.242
34219SOL    HW2 4555   2.901  14.026   9.374
34220SOL     OW 4556   3.175   8.417  14.707
34220SOL    HW1 4557   3.156   8.469  14.785
34220SOL    HW2 4558   3.139   8.330  14.727
34221SOL     OW 4559   0.286   2.764  10.582
34221SOL    HW1 4560   0.259   2.749  10.673
34221SOL    HW2 4561   0.287   2.677  10.542
34222SOL     OW 4562   5.108   0.916   1.671
34222SOL    HW1 4563   5.183   0.891   1.726
34222SOL    HW2 4564   5.077   0.833   1.634
34223SOL     OW 4565   3.742  12.410   4.951
34223SOL    HW1 4566   3.706  12.403   4.863
34223SOL    HW2 4567   3.837  12.405   4.939
34224SOL     OW 4568  11.750   9.198   9.179
34224SOL    HW1 4569  11.766   9.278   9.128
34224SOL    HW2 4570  11.655   9.185   9.173
34225SOL     OW 4571  10.469   0.742   0.803
34225SOL    HW1 4572  10.452   0.818   0.748
34225SOL    HW2 4573  10.439   0.768   0.890
34226SOL     OW 4574   9.855   2.592   0.869
34226SOL    HW1 4575   9.939   2.595   0.915
34226SOL    HW2 4576   9.831   2.684   0.859
34227SOL     OW 4577   4.742  12.037  13.032
34227SOL    HW1 4578   4.753  12.086  13.113
34227SOL    HW2 4579   4.666  12.076  12.990
34228SOL     OW 4580  11.304   2.305   7.806
34228SOL    HW1 4581  11.276   2.394   7.783
34228SOL    HW2 4582  11.381   2.317   7.861
34229SOL     OW 4583   1.055  13.473   4.976
34229SOL    HW1 4584   1.047  13.545   4.913
34229SOL    HW2 4585   0.966  13.437   4.982
34230SOL     OW 4586   3.770   9.423   5.746
34230SOL    HW1 4587   3.750   9.330   5.735
34230SOL    HW2 4588   3.816   9.448   5.666
34231SOL     OW 4589   0.726   4.673   0.954
34231SOL    HW1 4590   0.749   4.611   0.885
34231SOL    HW2 4591   0.751   4.630   1.036
34232SOL     OW 4592  11.110  14.248   6.872
34232SOL    HW1 4593  11.149  14.268   6.787
34232SOL    HW2 4594  11.040  14.313   6.882
34233SOL     OW 4595   7.123   5.593   3.779
34233SOL    HW1 4596   7.115   5.681   3.816
34233SOL    HW2 4597   7.171   5.606   3.697
34234SOL     OW 4598   9.430   4.287   7.207
34234SOL    HW1 4599   9.343   4.313   7.238
34234SOL    HW2 4600   9.473   4.369   7.183
34235SOL     OW 4601  12.268   6.540  10.155
34235SOL    HW1 4602  12.225   6.533  10.069
34235SOL    HW2 4603  12.217   6.482  10.211
34236SOL     OW 4604  13.244   5.781   9.311
34236SOL    HW1 4605  13.213   5.806   9.398
34236SOL    HW2 4606  13.317   5.840   9.293
34237SOL     OW 4607  10.884   5.024  13.499
34237SOL    HW1 4608  10.868   5.035  13.593
34237SOL    HW2 4609  10.824   4.956  13.472
34238SOL     OW 4610  11.819   8.971   3.061
34238SOL    HW1 4611  11.829   9.047   3.118
34238SOL    HW2 4612  11.736   8.931   3.088
34239SOL     OW 4613   9.999   8.653   6.242
34239SOL    HW1 4614   9.908   8.633   6.220
34239SOL    HW2 4615  10.024   8.585   6.304
34240SOL     OW 4616   3.814   9.961  12.067
34240SOL    HW1 4617   3.788  10.042  12.110
34240SOL    HW2 4618   3.907   9.974  12.046
34241SOL     OW 4619   9.666  14.679   0.522
34241SOL    HW1 4620   9.707  14.763   0.539
34241SOL    HW2 4621   9.580  14.685   0.564
34242SOL     OW 4622  14.001   1.136   0.285
34242SOL    HW1 4623  14.026   1.180   0.366
34242SOL    HW2 4624  14.067   1.163   0.221
34243SOL     OW 4625   0.727   4.158  11.501
34243SOL    HW1 4626   0.711   4.065  11.484
34243SOL    HW2 4627   0.811   4.176  11.458
34244SOL     OW 4628  14.089   1.482   1.870
34244SOL    HW1 4629  14.134   1.410   1.915
34244SOL    HW2 4630  14.159   1.536   1.834
34245SOL     OW 4631  11.695   1.477  10.308
34245SOL    HW1 4632  11.635   1.419  10.262
34245SOL    HW2 4633  11.713   1.547  10.246
34246SOL     OW 4634   9.153   8.853  14.581
34246SOL    HW1 4635   9.234   8.804  14.571
34246SOL    HW2 4636   9.093   8.793  14.625
34247SOL     OW 4637   6.407  12.412   8.517
34247SOL    HW1 4638   6.327  12.442   8.473
34247SOL    HW2 4639   6.430  12.331   8.471
34248SOL     OW 4640  10.534  14.294   5.882
34248SOL    HW1 4641  10.610  14.319   5.934
34248SOL    HW2 4642  10.502  14.214   5.924
34249SOL     OW 4643  13.814   5.576   5.785
34249SOL    HW1 4644  13.865   5.534   5.716
34249SOL    HW2 4645  13.757   5.638   5.739
34250SOL     OW 4646   2.864   6.565   8.618
34250SOL    HW1 4647   2.900   6.622   8.550
34250SOL    HW2 4648   2.789   6.614   8.653
34251SOL     OW 4649   3.150   5.496   1.280
34251SOL    HW1 4650   3.224   5.436   1.293
34251SOL    HW2 4651   3.132   5.491   1.186
34252SOL     OW 4652   9.633   1.145   3.794
34252SOL    HW1 4653   9.676   1.181   3.717
34252SOL    HW2 4654   9.665   1.198   3.867
34253SOL     OW 4655  13.648  10.131   0.665
34253SOL    HW1 4656  13.601  10.208   0.696
34253SOL    HW2 4657  13.710  10.110   0.734
34254SOL     OW 4658   9.734  12.310   0.167
34254SOL    HW1 4659   9.644  12.340   0.159
34254SOL    HW2 4660   9.787  12.390   0.171
34255SOL     OW 4661   2.689   9.112   4.963
34255SOL    HW1 4662   2.593   9.109   4.968
34255SOL    HW2 4663   2.711   9.047   4.897
34256SOL     OW 4664   5.751  10.859  11.262
34256SOL    HW1 4665   5.736  10.803  11.339
34256SOL    HW2 4666   5.710  10.942  11.285
34257SOL     OW 4667   9.893   2.038   4.027
34257SOL    HW1 4668   9.817   2.095   4.023
34257SOL    HW2 4669   9.877   1.982   4.103
34258SOL     OW 4670  13.916   7.561   9.391
34258SOL    HW1 4671  13.943   7.597   9.476
34258SOL    HW2 4672  13.999   7.545   9.345
34259SOL     OW 4673   8.202   9.059   6.814
34259SOL    HW1 4674   8.165   9.096   6.894
34259SOL    HW2 4675   8.278   9.114   6.795
34260SOL     OW 4676  10.044   2.792  10.970
34260SOL    HW1 4677  10.078   2.754  11.051
34260SOL    HW2 4678  10.059   2.886  10.979
34261SOL     OW 4679   4.605   7.414  13.333
34261SOL    HW1 4680   4.688   7.374  13.305
34261SOL    HW2 4681   4.612   7.505  13.304
34262SOL     OW 4682   5.092   7.537   5.319
34262SOL    HW1 4683   5.141   7.491   5.251
34262SOL    HW2 4684   5.150   7.608   5.346
34263SOL     OW 4685   4.289  12.007  14.810
34263SOL    HW1 4686   4.343  12.011  14.732
34263SOL    HW2 4687   4.236  12.087  14.807
34264SOL     OW 4688   0.451   8.376   2.518
34264SOL    HW1 4689   0.492   8.412   2.596
34264SOL    HW2 4690   0.357   8.389   2.533
34265SOL     OW 4691   8.319   1.840   6.684
34265SOL    HW1 4692   8.226   1.820   6.678
34265SOL    HW2 4693   8.342   1.875   6.598
34266SOL     OW 4694  10.347  10.648   0.020
34266SOL    HW1 4695  10.316  10.737   0.006
34266SOL    HW2 4696  10.437  10.649  14.866
34267SOL     OW 4697  11.958   2.296   8.047
34267SOL    HW1 4698  11.891   2.274   8.111
34267SOL    HW2 4699  12.040   2.267   8.087
34268SOL     OW 4700   3.835   5.677   0.401
34268SOL    HW1 4701   3.852   5.590   0.366
34268SOL    HW2 4702   3.898   5.688   0.472
34269SOL     OW 4703   9.900  11.862   1.467
34269SOL    HW1 4704   9.898  11.957   1.464
34269SOL    HW2 4705   9.967  11.841   1.532
34270SOL     OW 4706   3.197   4.462  12.560
34270SOL    HW1 4707   3.102   4.470  12.552
34270SOL    HW2 4708   3.232   4.528  12.500
34271SOL     OW 4709   1.803  10.517   2.295
34271SOL    HW1 4710   1.875  10.456   2.281
34271SOL    HW2 4711   1.839  10.583   2.354
34272SOL     OW 4712   0.400   7.997  14.777
34272SOL    HW1 4713   0.373   8.079  14.819
34272SOL    HW2 4714   0.448   8.025  14.699
34273SOL     OW 4715  13.194   2.863  14.734
34273SOL    HW1 4716  13.280   2.906  14.738
34273SOL    HW2 4717  13.144   2.915  14.670
34274SOL     OW 4718   8.109   9.452   0.658
34274SOL    HW1 4719   8.193   9.481   0.694
34274SOL    HW2 4720   8.077   9.388   0.722
34275SOL     OW 4721  12.779   8.163   9.173
34275SOL    HW1 4722  12.737   8.077   9.173
34275SOL    HW2 4723  12.796   8.181   9.265
34276SOL     OW 4724   4.127   7.161  13.515
34276SOL    HW1 4725   4.127   7.255  13.498
34276SOL    HW2 4726   4.212   7.131  13.484
34277SOL     OW 4727   0.815   2.960   7.584
34277SOL    HW1 4728   0.729   3.001   7.570
34277SOL    HW2 4729   0.870   3.031   7.617
34278SOL     OW 4730   6.105   9.931   5.734
34278SOL    HW1 4731   6.171   9.983   5.780
34278SOL    HW2 4732   6.124   9.841   5.759
34279SOL     OW 4733   0.437   4.947   4.609
34279SOL    HW1 4734   0.384   5.001   4.667
34279SOL    HW2 4735   0.416   4.857   4.634
34280SOL     OW 4736  10.840   1.519   6.301
34280SOL    HW1 4737  10.759   1.481   6.336
34280SOL    HW2 4738  10.840   1.610   6.332
34281SOL     OW 4739  14.400  10.280   5.219
34281SOL    HW1 4740  14.343  10.352   5.192
34281SOL    HW2 4741  14.487  10.321   5.227
34282SOL     OW 4742  14.130   7.501   6.446
34282SOL    HW1 4743  14.218   7.476   6.418
34282SOL    HW2 4744  14.083   7.418   6.455
34283SOL     OW 4745  12.581   8.729   6.033
34283SOL    HW1 4746  12.505   8.746   6.089
34283SOL    HW2 4747  12.613   8.816   6.008
34284SOL     OW 4748   6.659   0.126   0.182
34284SOL    HW1 4749   6.747   0.161   0.198
34284SOL    HW2 4750   6.601   0.200   0.202
34285SOL     OW 4751   8.887   2.144  11.644
34285SOL    HW1 4752   8.808   2.196  11.658
34285SOL    HW2 4753   8.940   2.196  11.583
34286SOL     OW 4754   6.011  14.018   6.241
34286SOL    HW1 4755   6.053  14.055   6.164
34286SOL    HW2 4756   5.959  14.090   6.278
34287SOL     OW 4757   6.122   0.082   4.042
34287SOL    HW1 4758   6.036   0.048   4.065
34287SOL    HW2 4759   6.131   0.161   4.095
34288SOL     OW 4760   3.933  13.380   7.802
34288SOL    HW1 4761   3.923  13.471   7.777
34288SOL    HW2 4762   4.020  13.374   7.841
34289SOL     OW 4763  13.885   7.806  13.326
34289SOL    HW1 4764  13.807   7.794  13.379
34289SOL    HW2 4765  13.957   7.807  13.389
34290SOL     OW 4766  13.653  13.177   4.846
34290SOL    HW1 4767  13.733  13.182   4.898
34290SOL    HW2 4768  13.679  13.136   4.764
34291SOL     OW 4769  12.233  10.404   1.037
34291SOL    HW1 4770  12.160  10.346   1.013
34291SOL    HW2 4771  12.250  10.455   0.958
34292SOL     OW 4772   0.964   5.185  14.697
34292SOL    HW1 4773   0.972   5.235  14.778
34292SOL    HW2 4774   0.876   5.205  14.666
34293SOL     OW 4775   9.825   1.424   5.702
34293SOL    HW1 4776   9.891   1.363   5.671
34293SOL    HW2 4777   9.779   1.452   5.622
34294SOL     OW 4778   7.052  11.971  10.374
34294SOL    HW1 4779   7.106  11.901  10.409
34294SOL    HW2 4780   7.112  12.045  10.364
34295SOL     OW 4781   4.373  11.308  10.750
34295SOL    HW1 4782   4.401  11.298  10.659
34295SOL    HW2 4783   4.289  11.262  10.754
34296SOL     OW 4784   7.769   4.773   6.054
34296SOL    HW1 4785   7.821   4.725   6.119
34296SOL    HW2 4786   7.729   4.705   6.000
34297SOL     OW 4787  13.451  12.584   6.295
34297SOL    HW1 4788  13.427  12.663   6.344
34297SOL    HW2 4789  13.454  12.515   6.361
34298SOL     OW 4790   2.677  14.628   5.537
34298SOL    HW1 4791   2.626  14.549   5.550
34298SOL    HW2 4792   2.729  14.610   5.459
34299SOL     OW 4793   6.487   6.677   7.111
34299SOL    HW1 4794   6.478   6.702   7.203
34299SOL    HW2 4795   6.582   6.673   7.097
34300SOL     OW 4796   8.530   2.389   3.925
34300SOL    HW1 4797   8.553   2.314   3.870
34300SOL    HW2 4798   8.510   2.459   3.864
34301SOL     OW 4799   7.769  11.701   4.926
34301SOL    HW1 4800   7.807  11.637   4.987
34301SOL    HW2 4801   7.773  11.658   4.841
34302SOL     OW 4802  12.150  13.913   3.475
34302SOL    HW1 4803  12.155  13.863   3.393
34302SOL    HW2 4804  12.058  13.908   3.501
34303SOL     OW 4805   2.655   9.282   9.422
34303SOL    HW1 4806   2.676   9.364   9.377
34303SOL    HW2 4807   2.731   9.264   9.477
34304SOL     OW 4808   3.745   4.117  12.061
34304SOL    HW1 4809   3.666   4.171  12.061
34304SOL    HW2 4810   3.718   4.034  12.100
34305SOL     OW 4811   9.783   1.996  12.223
34305SOL    HW1 4812   9.771   2.075  12.275
34305SOL    HW2 4813   9.748   1.926  12.278
34306SOL     OW 4814   1.152  13.028  12.432
34306SOL    HW1 4815   1.214  13.047  12.502
34306SOL    HW2 4816   1.185  13.077  12.356
34307SOL     OW 4817   5.694  10.971   1.801
34307SOL    HW1 4818   5.644  10.945   1.724
34307SOL    HW2 4819   5.631  10.969   1.873
34308SOL     OW 4820   4.415   5.015   1.925
34308SOL    HW1 4821   4.483   5.066   1.970
34308SOL    HW2 4822   4.464   4.963   1.861
34309SOL     OW 4823  10.890  14.435   4.173
34309SOL    HW1 4824  10.953  14.497   4.209
34309SOL    HW2 4825  10.805  14.473   4.193
34310SOL     OW 4826   1.877  13.977  14.838
34310SOL    HW1 4827   1.845  13.962   0.049
34310SOL    HW2 4828   1.959  13.927  14.834
34311SOL     OW 4829  14.257  11.205  11.764
34311SOL    HW1 4830  14.340  11.251  11.767
34311SOL    HW2 4831  14.276  11.122  11.720
34312SOL     OW 4832   7.100  12.681   5.008
34312SOL    HW1 4833   7.078  12.616   5.074
34312SOL    HW2 4834   7.194  12.697   5.020
34313SOL     OW 4835   6.770  14.629   4.039
34313SOL    HW1 4836   6.833  14.621   3.967
34313SOL    HW2 4837   6.739  14.540   4.053
34314SOL     OW 4838   3.551   6.971  13.349
34314SOL    HW1 4839   3.521   6.964  13.440
34314SOL    HW2 4840   3.645   6.992  13.357
34315SOL     OW 4841  10.837  11.101  11.612
34315SOL    HW1 4842  10.901  11.097  11.683
34315SOL    HW2 4843  10.835  11.193  11.586
34316SOL     OW 4844  12.345  13.881   9.561
34316SOL    HW1 4845  12.314  13.905   9.648
34316SOL    HW2 4846  12.276  13.911   9.502
34317SOL     OW 4847  14.631  10.607   4.796
34317SOL    HW1 4848  14.573  10.643   4.864
34317SOL    HW2 4849  14.719  10.616   4.833
34318SOL     OW 4850   6.691  10.243   9.784
34318SOL    HW1 4851   6.759  10.307   9.805
34318SOL    HW2 4852   6.609  10.292   9.788
34319SOL     OW 4853  10.388  11.138   8.053
34319SOL    HW1 4854  10.450  11.148   8.126
34319SOL    HW2 4855  10.305  11.119   8.095
34320SOL     OW 4856   5.104  10.963   2.385
34320SOL    HW1 4857   5.090  10.934   2.294
34320SOL    HW2 4858   5.095  10.883   2.437
34321SOL     OW 4859  10.441   2.523   7.513
34321SOL    HW1 4860  10.424   2.431   7.496
34321SOL    HW2 4861  10.382   2.570   7.454
34322SOL     OW 4862   0.916   2.860   3.176
34322SOL    HW1 4863   0.841   2.900   3.219
34322SOL    HW2 4864   0.887   2.842   3.086
34323SOL     OW 4865   5.532   3.886  11.593
34323SOL    HW1 4866   5.472   3.957  11.570
34323SOL    HW2 4867   5.594   3.883  11.520
34324SOL     OW 4868   2.567   8.761   0.183
34324SOL    HW1 4869   2.495   8.733   0.128
34324SOL    HW2 4870   2.526   8.790   0.265
34325SOL     OW 4871   0.933   7.669   0.392
34325SOL    HW1 4872   0.917   7.643   0.301
34325SOL    HW2 4873   0.862   7.729   0.413
34326SOL     OW 4874   2.886  14.149   7.767
34326SOL    HW1 4875   2.820  14.173   7.833
34326SOL    HW2 4876   2.967  14.187   7.799
34327SOL     OW 4877   7.034   2.960  13.090
34327SOL    HW1 4878   7.097   3.032  13.095
34327SOL    HW2 4879   7.087   2.881  13.090
34328SOL     OW 4880  13.761   4.566   1.248
34328SOL    HW1 4881  13.685   4.609   1.287
34328SOL    HW2 4882  13.805   4.523   1.321
34329SOL     OW 4883   3.753  12.787  11.959
34329SOL    HW1 4884   3.794  12.835  12.030
34329SOL    HW2 4885   3.742  12.853  11.889
34330SOL     OW 4886   7.684   9.960  12.059
34330SOL    HW1 4887   7.652   9.987  11.972
34330SOL    HW2 4888   7.689  10.042  12.109
34331SOL     OW 4889   0.460   6.098   1.225
34331SOL    HW1 4890   0.525   6.107   1.156
34331SOL    HW2 4891   0.399   6.171   1.211
34332SOL     OW 4892  12.611  10.718   7.287
34332SOL    HW1 4893  12.586  10.737   7.377
34332SOL    HW2 4894  12.553  10.647   7.260
34333SOL     OW 4895  10.905  13.433   6.096
34333SOL    HW1 4896  10.823  13.451   6.144
34333SOL    HW2 4897  10.962  13.391   6.161
34334SOL     OW 4898   2.346  14.234   3.856
34334SOL    HW1 4899   2.287  14.210   3.784
34334SOL    HW2 4900   2.359  14.329   3.845
34335SOL     OW 4901   6.567   3.398  12.343
34335SOL    HW1 4902   6.560   3.449  12.424
34335SOL    HW2 4903   6.511   3.445  12.281
34336SOL     OW 4904  10.344   1.057   9.370
34336SOL    HW1 4905  10.370   1.140   9.330
34336SOL    HW2 4906  10.386   0.991   9.316
34337SOL     OW 4907   5.832   3.615   4.166
34337SOL    HW1 4908   5.750   3.576   4.195
34337SOL    HW2 4909   5.848   3.686   4.228
34338SOL     OW 4910   8.625  13.792  14.796
34338SOL    HW1 4911   8.598  13.793   0.011
34338SOL    HW2 4912   8.701  13.733  14.794
34339SOL     OW 4913   2.370  13.824   3.812
34339SOL    HW1 4914   2.276  13.804   3.808
34339SOL    HW2 4915   2.404  13.764   3.879
34340SOL     OW 4916   5.964  12.624  14.414
34340SOL    HW1 4917   5.960  12.531  14.389
34340SOL    HW2 4918   5.933  12.671  14.337
34341SOL     OW 4919  13.156   4.385   3.111
34341SOL    HW1 4920  13.098   4.413   3.041
34341SOL    HW2 4921  13.169   4.291   3.095
34342SOL     OW 4922   6.471   4.852   6.502
34342SOL    HW1 4923   6.505   4.902   6.429
34342SOL    HW2 4924   6.547   4.803   6.535
34343SOL     OW 4925   1.726   5.834   1.677
34343SOL    HW1 4926   1.697   5.790   1.756
34343SOL    HW2 4927   1.679   5.790   1.606
34344SOL     OW 4928   1.943   7.025   9.888
34344SOL    HW1 4929   2.024   7.061   9.853
34344SOL    HW2 4930   1.971   6.967   9.959
34345SOL     OW 4931   4.683   7.828   5.617
34345SOL    HW1 4932   4.699   7.787   5.701
34345SOL    HW2 4933   4.770   7.848   5.582
34346SOL     OW 4934  10.153   6.833  14.490
34346SOL    HW1 4935  10.062   6.853  14.509
34346SOL    HW2 4936  10.202   6.868  14.565
34347SOL     OW 4937   8.684   6.316  10.608
34347SOL    HW1 4938   8.689   6.359  10.693
34347SOL    HW2 4939   8.681   6.387  10.545
34348SOL     OW 4940   4.598   4.024   0.090
34348SOL    HW1 4941   4.665   3.989   0.032
34348SOL    HW2 4942   4.643   4.090   0.142
34349SOL     OW 4943   5.689   0.653  14.639
34349SOL    HW1 4944   5.676   0.729  14.582
34349SOL    HW2 4945   5.605   0.608  14.640
34350SOL     OW 4946  14.566   0.639  12.187
34350SOL    HW1 4947  14.630   0.639  12.116
34350SOL    HW2 4948  14.617   0.658  12.266
34351SOL     OW 4949   7.928   6.380  14.661
34351SOL    HW1 4950   7.977   6.463  14.663
34351SOL    HW2 4951   7.858   6.395  14.597
34352SOL     OW 4952   1.516   2.751  13.111
34352SOL    HW1 4953   1.590   2.812  13.108
34352SOL    HW2 4954   1.530   2.693  13.036
34353SOL     OW 4955   2.529  12.353   2.467
34353SOL    HW1 4956   2.486  12.413   2.405
34353SOL    HW2 4957   2.615  12.337   2.429
34354SOL     OW 4958  13.437   5.419  10.571
34354SOL    HW1 4959  13.480   5.346  10.616
34354SOL    HW2 4960  13.467   5.496  10.618
34355SOL     OW 4961   1.067   6.733   5.730
34355SOL    HW1 4962   1.157   6.707   5.708
34355SOL    HW2 4963   1.056   6.819   5.688
34356SOL     OW 4964  12.097   1.652   4.365
34356SOL    HW1 4965  12.110   1.745   4.383
34356SOL    HW2 4966  12.093   1.646   4.270
34357SOL     OW 4967   6.988  14.696  13.116
34357SOL    HW1 4968   6.929  14.624  13.135
34357SOL    HW2 4969   7.039  14.668  13.040
34358SOL     OW 4970  14.279   2.915  14.237
34358SOL    HW1 4971  14.199   2.864  14.224
34358SOL    HW2 4972  14.248   2.999  14.269
34359SOL     OW 4973  12.811   5.790   1.516
34359SOL    HW1 4974  12.882   5.772   1.578
34359SOL    HW2 4975  12.838   5.870   1.472
34360SOL     OW 4976   1.414  10.898  14.526
34360SOL    HW1 4977   1.327  10.884  14.565
34360SOL    HW2 4978   1.475  10.866  14.592
34361SOL     OW 4979   1.145  11.202   3.551
34361SOL    HW1 4980   1.183  11.166   3.631
34361SOL    HW2 4981   1.208  11.267   3.521
34362SOL     OW 4982   3.224  12.218  13.271
34362SOL    HW1 4983   3.215  12.147  13.334
34362SOL    HW2 4984   3.138  12.261  13.271
34363SOL     OW 4985   7.516   4.044   4.737
34363SOL    HW1 4986   7.591   4.100   4.714
34363SOL    HW2 4987   7.511   4.049   4.832
34364SOL     OW 4988   1.946  14.838   8.583
34364SOL    HW1 4989   1.975   0.039   8.537
34364SOL    HW2 4990   1.962  14.766   8.522
34365SOL     OW 4991   2.368   6.472   0.898
34365SOL    HW1 4992   2.390   6.429   0.981
34365SOL    HW2 4993   2.275   6.494   0.907
34366SOL     OW 4994   8.993   5.601   7.554
34366SOL    HW1 4995   8.898   5.606   7.552
34366SOL    HW2 4996   9.018   5.652   7.632
34367SOL     OW 4997  10.678   7.738  11.799
34367SOL    HW1 4998  10.705   7.772  11.714
34367SOL    HW2 4999  10.640   7.814  11.844
34368SOL     OW 5000   3.136  12.823  13.700
34368SOL    HW1 5001   3.117  12.883  13.628
34368SOL    HW2 5002   3.065  12.838  13.763
34369SOL     OW 5003   8.423  10.399   2.186
34369SOL    HW1 5004   8.444  10.379   2.094
34369SOL    HW2 5005   8.330  10.376   2.194
34370SOL     OW 5006   4.699   0.088  13.346
34370SOL    HW1 5007   4.774   0.033  13.324
34370SOL    HW2 5008   4.625   0.027  13.350
34371SOL     OW 5009   1.705   0.152  13.249
34371SOL    HW1 5010   1.764   0.227  13.253
34371SOL    HW2 5011   1.621   0.188  13.222
34372SOL     OW 5012  10.282   0.263   1.321
34372SOL    HW1 5013  10.343   0.319   1.370
34372SOL    HW2 5014  10.280   0.302   1.234
34373SOL     OW 5015   0.873   7.042   7.641
34373SOL    HW1 5016   0.874   7.106   7.712
34373SOL    HW2 5017   0.956   6.994   7.651
34374SOL     OW 5018  12.392   4.958  13.656
34374SOL    HW1 5019  12.406   5.027  13.591
34374SOL    HW2 5020  12.457   4.891  13.634
34375SOL     OW 5021   6.777  13.853   3.861
34375SOL    HW1 5022   6.764  13.841   3.955
34375SOL    HW2 5023   6.737  13.775   3.822
34376SOL     OW 5024  11.764  12.938  13.713
34376SOL    HW1 5025  11.777  12.907  13.803
34376SOL    HW2 5026  11.746  13.032  13.723
34377SOL     OW 5027   9.815   4.941   5.386
34377SOL    HW1 5028   9.783   5.005   5.449
34377SOL    HW2 5029   9.745   4.876   5.379
34378SOL     OW 5030   5.069   6.391   6.016
34378SOL    HW1 5031   5.109   6.377   6.102
34378SOL    HW2 5032   5.120   6.336   5.957
34379SOL     OW 5033   3.631  11.978   3.143
34379SOL    HW1 5034   3.603  12.052   3.196
34379SOL    HW2 5035   3.697  12.014   3.084
34380SOL     OW 5036   4.216   7.395  12.485
34380SOL    HW1 5037   4.182   7.414  12.572
34380SOL    HW2 5038   4.137   7.377  12.433
34381SOL     OW 5039   1.877   8.410  12.940
34381SOL    HW1 5040   1.969   8.413  12.913
34381SOL    HW2 5041   1.828   8.404  12.858
34382SOL     OW 5042  14.403   5.426   9.896
34382SOL    HW1 5043  14.316   5.461   9.878
34382SOL    HW2 5044  14.393   5.380   9.980
34383SOL     OW 5045  13.227   3.995   0.764
34383SOL    HW1 5046  13.217   4.041   0.680
34383SOL    HW2 5047  13.288   4.049   0.814
34384SOL     OW 5048   2.311   4.813  12.740
34384SOL    HW1 5049   2.325   4.862  12.659
34384SOL    HW2 5050   2.216   4.800  12.745
34385SOL     OW 5051   7.029   4.002   0.611
34385SOL    HW1 5052   7.105   4.016   0.667
34385SOL    HW2 5053   6.957   3.988   0.672
34386SOL     OW 5054  14.116   4.010   0.448
34386SOL    HW1 5055  14.095   3.971   0.363
34386SOL    HW2 5056  14.207   3.987   0.464
34387SOL     OW 5057   2.430  14.724  14.560
34387SOL    HW1 5058   2.497  14.792  14.552
34387SOL    HW2 5059   2.413  14.719  14.654
34388SOL     OW 5060  13.137   2.654   3.377
34388SOL    HW1 5061  13.081   2.688   3.447
34388SOL    HW2 5062  13.222   2.641   3.419
34389SOL     OW 5063   8.366   3.651  10.556
34389SOL    HW1 5064   8.393   3.649  10.464
34389SOL    HW2 5065   8.327   3.565  10.572
34390SOL     OW 5066   0.541   4.938   8.850
34390SOL    HW1 5067   0.487   4.906   8.923
34390SOL    HW2 5068   0.590   4.861   8.822
34391SOL     OW 5069   6.060   4.964   1.205
34391SOL    HW1 5070   6.017   4.897   1.258
34391SOL    HW2 5071   6.134   4.994   1.259
34392SOL     OW 5072   8.142   6.784   4.885
34392SOL    HW1 5073   8.047   6.784   4.870
34392SOL    HW2 5074   8.151   6.782   4.980
34393SOL     OW 5075  14.065   4.264   0.870
34393SOL    HW1 5076  14.027   4.337   0.821
34393SOL    HW2 5077  14.011   4.257   0.948
34394SOL     OW 5078  14.826  14.873   7.947
34394SOL    HW1 5079  14.853  14.787   7.917
34394SOL    HW2 5080   0.017   0.055   7.918
34395SOL     OW 5081  14.434  12.177   0.298
34395SOL    HW1 5082  14.513  12.222   0.330
34395SOL    HW2 5083  14.367  12.245   0.298
34396SOL     OW 5084   6.284   1.901  10.880
34396SOL    HW1 5085   6.347   1.828  10.879
34396SOL    HW2 5086   6.333   1.975  10.916
34397SOL     OW 5087   2.112   5.618   4.993
34397SOL    HW1 5088   2.072   5.544   4.948
34397SOL    HW2 5089   2.097   5.693   4.935
34398SOL     OW 5090   8.763   5.960   7.673
34398SOL    HW1 5091   8.686   5.983   7.725
34398SOL    HW2 5092   8.771   6.032   7.609
34399SOL     OW 5093   1.289   0.025  14.311
34399SOL    HW1 5094   1.236   0.103  14.296
34399SOL    HW2 5095   1.366   0.038  14.256
34400SOL     OW 5096  14.255   0.617   0.316
34400SOL    HW1 5097  14.251   0.523   0.331
34400SOL    HW2 5098  14.272   0.627   0.223
34401SOL     OW 5099   7.878   5.005  10.538
34401SOL    HW1 5100   7.802   5.064  10.545
34401SOL    HW2 5101   7.949   5.062  10.509
34402SOL     OW 5102   5.424  14.293   4.696
34402SOL    HW1 5103   5.501  14.259   4.650
34402SOL    HW2 5104   5.370  14.332   4.627
34403SOL     OW 5105  11.691   3.432   0.805
34403SOL    HW1 5106  11.756   3.403   0.869
34403SOL    HW2 5107  11.614   3.454   0.857
34404SOL     OW 5108   8.558   7.326  14.297
34404SOL    HW1 5109   8.621   7.381  14.345
34404SOL    HW2 5110   8.539   7.375  14.218
34405SOL     OW 5111   2.906   3.142   8.657
34405SOL    HW1 5112   2.914   3.212   8.721
34405SOL    HW2 5113   2.948   3.066   8.698
34406SOL     OW 5114   0.307   4.167  13.807
34406SOL    HW1 5115   0.214   4.145  13.802
34406SOL    HW2 5116   0.318   4.206  13.894
34407SOL     OW 5117   2.227   0.289   1.345
34407SOL    HW1 5118   2.143   0.315   1.308
34407SOL    HW2 5119   2.283   0.273   1.269
34408SOL     OW 5120  14.382  14.212  11.432
34408SOL    HW1 5121  14.366  14.119  11.447
34408SOL    HW2 5122  14.477  14.222  11.445
34409SOL     OW 5123   7.866   4.948   3.675
34409SOL    HW1 5124   7.899   4.935   3.586
34409SOL    HW2 5125   7.811   4.872   3.691
34410SOL     OW 5126   5.606  10.879  10.534
34410SOL    HW1 5127   5.640  10.792  10.514
34410SOL    HW2 5128   5.684  10.931  10.553
34411SOL     OW 5129   4.378  12.566   1.419
34411SOL    HW1 5130   4.436  12.642   1.419
34411SOL    HW2 5131   4.387  12.529   1.506
34412SOL     OW 5132   8.150   3.181  11.877
34412SOL    HW1 5133   8.119   3.158  11.789
34412SOL    HW2 5134   8.154   3.276  11.877
34413SOL     OW 5135   8.831  14.642  11.128
34413SOL    HW1 5136   8.845  14.609  11.039
34413SOL    HW2 5137   8.900  14.599  11.179
34414SOL     OW 5138   0.364  10.340   8.825
34414SOL    HW1 5139   0.459  10.351   8.830
34414SOL    HW2 5140   0.343  10.287   8.902
34415SOL     OW 5141   8.506  11.136   6.764
34415SOL    HW1 5142   8.419  11.155   6.730
34415SOL    HW2 5143   8.538  11.220   6.795
34416SOL     OW 5144  11.087   4.880   2.589
34416SOL    HW1 5145  11.071   4.788   2.567
34416SOL    HW2 5146  11.174   4.881   2.628
34417SOL     OW 5147   4.665   9.098  13.777
34417SOL    HW1 5148   4.707   9.024  13.821
34417SOL    HW2 5149   4.603   9.057  13.717
34418SOL     OW 5150  11.698   2.186   2.873
34418SOL    HW1 5151  11.724   2.108   2.823
34418SOL    HW2 5152  11.671   2.152   2.958
34419SOL     OW 5153   4.377  12.303   1.752
34419SOL    HW1 5154   4.438  12.286   1.824
34419SOL    HW2 5155   4.429  12.291   1.673
34420SOL     OW 5156  12.926  14.353  13.941
34420SOL    HW1 5157  12.963  14.440  13.929
34420SOL    HW2 5158  12.832  14.367  13.947
34421SOL     OW 5159  12.781   1.512  13.745
34421SOL    HW1 5160  12.779   1.519  13.841
34421SOL    HW2 5161  12.846   1.445  13.727
34422SOL     OW 5162   5.865  10.248   2.228
34422SOL    HW1 5163   5.847  10.165   2.271
34422SOL    HW2 5164   5.842  10.233   2.136
34423SOL     OW 5165  11.954   9.941   8.926
34423SOL    HW1 5166  12.007   9.982   8.858
34423SOL    HW2 5167  11.882   9.900   8.878
34424SOL     OW 5168  12.723   4.635   2.070
34424SOL    HW1 5169  12.658   4.565   2.061
34424SOL    HW2 5170  12.802   4.589   2.099
34425SOL     OW 5171  11.155   3.745  14.492
34425SOL    HW1 5172  11.076   3.751  14.545
34425SOL    HW2 5173  11.224   3.721  14.553
34426SOL     OW 5174  12.358  13.408  10.123
34426SOL    HW1 5175  12.287  13.463  10.090
34426SOL    HW2 5176  12.377  13.443  10.210
34427SOL     OW 5177  11.992  10.557   1.310
34427SOL    HW1 5178  11.965  10.647   1.292
34427SOL    HW2 5179  11.926  10.525   1.371
34428SOL     OW 5180  13.816   6.014   5.859
34428SOL    HW1 5181  13.752   6.027   5.929
34428SOL    HW2 5182  13.892   5.978   5.903
34429SOL     OW 5183   9.142   3.796  11.019
34429SOL    HW1 5184   9.095   3.874  11.050
34429SOL    HW2 5185   9.214   3.830  10.967
34430SOL     OW 5186   1.822   3.849   7.062
34430SOL    HW1 5187   1.780   3.765   7.045
34430SOL    HW2 5188   1.793   3.874   7.149
34431SOL     OW 5189  14.109   6.942   9.115
34431SOL    HW1 5190  14.065   6.924   9.032
34431SOL    HW2 5191  14.083   7.031   9.137
34432SOL     OW 5192   8.374  11.291  14.646
34432SOL    HW1 5193   8.347  11.361  14.587
34432SOL    HW2 5194   8.470  11.297  14.646
34433SOL     OW 5195   6.887   3.934   3.938
34433SOL    HW1 5196   6.871   4.028   3.933
34433SOL    HW2 5197   6.981   3.927   3.957
34434SOL     OW 5198  14.582   4.042   3.229
34434SOL    HW1 5199  14.491   4.053   3.254
34434SOL    HW2 5200  14.632   4.084   3.299
34435SOL     OW 5201   3.575   6.449  11.390
34435SOL    HW1 5202   3.589   6.542  11.404
34435SOL    HW2 5203   3.538   6.417  11.472
34436SOL     OW 5204   9.439   5.493  14.676
34436SOL    HW1 5205   9.356   5.536  14.699
34436SOL    HW2 5206   9.424   5.459  14.587
34437SOL     OW 5207   5.328   7.631  14.043
34437SOL    HW1 5208   5.318   7.636  13.948
34437SOL    HW2 5209   5.238   7.621  14.075
34438SOL     OW 5210  14.651   4.608  14.837
34438SOL    HW1 5211  14.669   4.571  14.751
34438SOL    HW2 5212  14.623   4.534   0.013
34439SOL     OW 5213   2.804   5.994   4.734
34439SOL    HW1 5214   2.806   6.086   4.759
34439SOL    HW2 5215   2.854   5.949   4.802
34440SOL     OW 5216   3.419   2.304   7.706
34440SOL    HW1 5217   3.471   2.288   7.628
34440SOL    HW2 5218   3.328   2.296   7.677
34441SOL     OW 5219   3.252  14.821   3.178
34441SOL    HW1 5220   3.318  14.841   3.244
34441SOL    HW2 5221   3.225  14.731   3.198
34442SOL     OW 5222   5.261   8.923  12.669
34442SOL    HW1 5223   5.263   8.937  12.763
34442SOL    HW2 5224   5.258   9.012  12.632
34443SOL     OW 5225   5.417   2.970   1.079
34443SOL    HW1 5226   5.376   3.039   1.026
34443SOL    HW2 5227   5.374   2.977   1.164
34444SOL     OW 5228   7.305   6.565   5.337
34444SOL    HW1 5229   7.266   6.578   5.423
34444SOL    HW2 5230   7.294   6.649   5.293
34445SOL     OW 5231   2.765   1.354  13.401
34445SOL    HW1 5232   2.759   1.433  13.347
34445SOL    HW2 5233   2.842   1.308  13.367
34446SOL     OW 5234   1.951  10.011  10.007
34446SOL    HW1 5235   2.042  10.035   9.992
34446SOL    HW2 5236   1.952   9.965  10.091
34447SOL     OW 5237   4.053  12.995   7.034
34447SOL    HW1 5238   4.081  13.065   6.975
34447SOL    HW2 5239   4.134  12.948   7.056
34448SOL     OW 5240  13.610  12.092   3.012
34448SOL    HW1 5241  13.591  12.186   3.011
34448SOL    HW2 5242  13.698  12.085   3.048
34449SOL     OW 5243   9.006   6.495   0.340
34449SOL    HW1 5244   9.027   6.527   0.253
34449SOL    HW2 5245   8.985   6.573   0.391
34450SOL     OW 5246   5.721   0.877   3.333
34450SOL    HW1 5247   5.656   0.900   3.267
34450SOL    HW2 5248   5.746   0.787   3.311
34451SOL     OW 5249  13.723  14.488  14.817
34451SOL    HW1 5250  13.815  14.508  14.801
34451SOL    HW2 5251  13.691  14.560  14.871
34452SOL     OW 5252   9.690   9.755   5.703
34452SOL    HW1 5253   9.674   9.730   5.794
34452SOL    HW2 5254   9.602   9.770   5.666
34453SOL     OW 5255  12.082   4.594   6.149
34453SOL    HW1 5256  12.152   4.658   6.159
34453SOL    HW2 5257  12.002   4.646   6.144
34454SOL     OW 5258   4.074   7.717   6.404
34454SOL    HW1 5259   4.023   7.683   6.331
34454SOL    HW2 5260   4.008   7.746   6.468
34455SOL     OW 5261   0.513  14.479   2.139
34455SOL    HW1 5262   0.444  14.413   2.142
34455SOL    HW2 5263   0.473  14.557   2.179
34456SOL     OW 5264   2.689  10.877   2.484
34456SOL    HW1 5265   2.721  10.944   2.424
34456SOL    HW2 5266   2.611  10.915   2.523
34457SOL     OW 5267   3.882  13.242  12.741
34457SOL    HW1 5268   3.927  13.279  12.818
34457SOL    HW2 5269   3.797  13.213  12.774
34458SOL     OW 5270   1.805  11.390   1.357
34458SOL    HW1 5271   1.884  11.344   1.327
34458SOL    HW2 5272   1.837  11.471   1.395
34459SOL     OW 5273  10.827  10.977   7.251
34459SOL    HW1 5274  10.764  11.000   7.319
34459SOL    HW2 5275  10.773  10.954   7.175
34460SOL     OW 5276   4.683   5.500   2.471
34460SOL    HW1 5277   4.628   5.429   2.438
34460SOL    HW2 5278   4.711   5.471   2.558
34461SOL     OW 5279  14.328   9.708  11.857
34461SOL    HW1 5280  14.291   9.625  11.886
34461SOL    HW2 5281  14.362   9.690  11.770
34462SOL     OW 5282  13.415  11.125  11.346
34462SOL    HW1 5283  13.354  11.190  11.311
34462SOL    HW2 5284  13.455  11.168  11.421
34463SOL     OW 5285  13.545   8.610   0.784
34463SOL    HW1 5286  13.469   8.653   0.745
34463SOL    HW2 5287  13.614   8.677   0.783
34464SOL     OW 5288  13.099  11.234   4.352
34464SOL    HW1 5289  13.182  11.224   4.399
34464SOL    HW2 5290  13.095  11.159   4.293
34465SOL     OW 5291   3.669   2.318  11.708
34465SOL    HW1 5292   3.676   2.251  11.776
34465SOL    HW2 5293   3.753   2.315  11.663
34466SOL     OW 5294  14.078  10.145   5.967
34466SOL    HW1 5295  13.989  10.159   5.937
34466SOL    HW2 5296  14.110  10.233   5.989
34467SOL     OW 5297  12.987  14.549  14.812
34467SOL    HW1 5298  12.927  14.489  14.856
34467SOL    HW2 5299  12.952  14.636  14.829
34468SOL     OW 5300  10.210   3.454   4.037
34468SOL    HW1 5301  10.249   3.497   4.113
34468SOL    HW2 5302  10.121   3.490   4.032
34469SOL     OW 5303  13.819   7.402   0.855
34469SOL    HW1 5304  13.755   7.362   0.913
34469SOL    HW2 5305  13.797   7.495   0.855
34470SOL     OW 5306   1.819   8.959  12.186
34470SOL    HW1 5307   1.819   8.888  12.249
34470SOL    HW2 5308   1.794   8.918  12.103
34471SOL     OW 5309  14.877  12.317  10.994
34471SOL    HW1 5310   0.082  12.270  10.996
34471SOL    HW2 5311  14.859  12.340  11.085
34472SOL     OW 5312  13.441  13.127   5.837
34472SOL    HW1 5313  13.352  13.162   5.845
34472SOL    HW2 5314  13.429  13.043   5.793
34473SOL     OW 5315   7.031  13.770  13.515
34473SOL    HW1 5316   7.084  13.759  13.436
34473SOL    HW2 5317   7.011  13.681  13.543
34474SOL     OW 5318   7.939   6.894   0.294
34474SOL    HW1 5319   7.932   6.851   0.209
34474SOL    HW2 5320   7.895   6.834   0.355
34475SOL     OW 5321   1.937   4.876   1.228
34475SOL    HW1 5322   2.001   4.914   1.288
34475SOL    HW2 5323   1.975   4.794   1.199
34476SOL     OW 5324   0.121   1.212  12.166
34476SOL    HW1 5325   0.114   1.166  12.082
34476SOL    HW2 5326   0.059   1.284  12.159
34477SOL     OW 5327  14.618   6.512   8.689
34477SOL    HW1 5328  14.595   6.557   8.771
34477SOL    HW2 5329  14.550   6.540   8.627
34478SOL     OW 5330   8.574   4.950   3.025
34478SOL    HW1 5331   8.661   4.970   3.058
34478SOL    HW2 5332   8.568   4.855   3.025
34479SOL     OW 5333  13.080  11.685  11.519
34479SOL    HW1 5334  13.067  11.655  11.429
34479SOL    HW2 5335  13.019  11.634  11.571
34480SOL     OW 5336  12.406   3.444  13.756
34480SOL    HW1 5337  12.448   3.457  13.671
34480SOL    HW2 5338  12.315   3.470  13.742
34481SOL     OW 5339   6.077   0.290  10.735
34481SOL    HW1 5340   5.996   0.263  10.694
34481SOL    HW2 5341   6.125   0.335  10.666
34482SOL     OW 5342   4.635   1.499   9.240
34482SOL    HW1 5343   4.649   1.450   9.158
34482SOL    HW2 5344   4.695   1.459   9.302
34483SOL     OW 5345   0.906  11.642   6.446
34483SOL    HW1 5346   0.881  11.632   6.354
34483SOL    HW2 5347   1.001  11.638   6.446
34484SOL     OW 5348  12.167   8.367   8.054
34484SOL    HW1 5349  12.133   8.280   8.074
34484SOL    HW2 5350  12.230   8.385   8.124
34485SOL     OW 5351   7.433   8.169   8.133
34485SOL    HW1 5352   7.468   8.201   8.216
34485SOL    HW2 5353   7.478   8.086   8.119
34486SOL     OW 5354   0.606   6.087   9.826
34486SOL    HW1 5355   0.661   6.126   9.758
34486SOL    HW2 5356   0.550   6.025   9.779
34487SOL     OW 5357  14.433  11.982   6.348
34487SOL    HW1 5358  14.370  11.927   6.302
34487SOL    HW2 5359  14.428  12.067   6.305
34488SOL     OW 5360   0.537   6.323   3.695
34488SOL    HW1 5361   0.502   6.410   3.675
34488SOL    HW2 5362   0.612   6.314   3.636
34489SOL     OW 5363  10.497   2.517  12.984
34489SOL    HW1 5364  10.447   2.442  13.018
34489SOL    HW2 5365  10.564   2.533  13.050
34490SOL     OW 5366  11.930   6.503   8.913
34490SOL    HW1 5367  11.988   6.542   8.848
34490SOL    HW2 5368  11.860   6.568   8.925
34491SOL     OW 5369   9.518  10.819  11.173
34491SOL    HW1 5370   9.427  10.815  11.202
34491SOL    HW2 5371   9.565  10.765  11.237
34492SOL     OW 5372   6.472   8.677   8.332
34492SOL    HW1 5373   6.508   8.591   8.312
34492SOL    HW2 5374   6.426   8.665   8.415
34493SOL     OW 5375   0.148   0.523   0.686
34493SOL    HW1 5376   0.066   0.533   0.734
34493SOL    HW2 5377   0.206   0.589   0.725
34494SOL     OW 5378   2.164   7.375   7.946
34494SOL    HW1 5379   2.148   7.418   7.863
34494SOL    HW2 5380   2.095   7.407   8.004
34495SOL     OW 5381   5.061   6.380   7.356
34495SOL    HW1 5382   5.056   6.466   7.399
34495SOL    HW2 5383   5.111   6.397   7.276
34496SOL     OW 5384   4.068   5.986  10.132
34496SOL    HW1 5385   4.069   5.935  10.213
34496SOL    HW2 5386   4.049   5.922  10.064
34497SOL     OW 5387   5.829  10.523  11.303
34497SOL    HW1 5388   5.777  10.549  11.379
34497SOL    HW2 5389   5.790  10.441  11.273
34498SOL     OW 5390  12.837  14.387   6.653
34498SOL    HW1 5391  12.840  14.306   6.704
34498SOL    HW2 5392  12.885  14.366   6.573
34499SOL     OW 5393   1.289  11.203  12.077
34499SOL    HW1 5394   1.347  11.252  12.136
34499SOL    HW2 5395   1.336  11.122  12.060
34500SOL     OW 5396   9.144  11.128  11.472
34500SOL    HW1 5397   9.072  11.176  11.430
34500SOL    HW2 5398   9.105  11.094  11.553
34501SOL     OW 5399  14.776   1.957   9.077
34501SOL    HW1 5400  14.687   1.960   9.113
34501SOL    HW2 5401  14.769   1.998   8.991
34502SOL     OW 5402  11.287   4.854   7.709
34502SOL    HW1 5403  11.212   4.907   7.685
34502SOL    HW2 5404  11.250   4.773   7.743
34503SOL     OW 5405   7.756  13.630   8.640
34503SOL    HW1 5406   7.832  13.619   8.584
34503SOL    HW2 5407   7.707  13.548   8.632
34504SOL     OW 5408   6.877   9.624   0.115
34504SOL    HW1 5409   6.919   9.547   0.078
34504SOL    HW2 5410   6.875   9.607   0.210
34505SOL     OW 5411  13.684   5.891   7.740
34505SOL    HW1 5412  13.681   5.840   7.659
34505SOL    HW2 5413  13.592   5.908   7.761
34506SOL     OW 5414   5.405   9.961   1.117
34506SOL    HW1 5415   5.383   9.955   1.024
34506SOL    HW2 5416   5.321   9.958   1.161
34507SOL     OW 5417  11.971   9.975   1.410
34507SOL    HW1 5418  12.009  10.034   1.346
34507SOL    HW2 5419  12.024   9.988   1.489
34508SOL     OW 5420  11.526   3.108  12.740
34508SOL    HW1 5421  11.510   3.142  12.653
34508SOL    HW2 5422  11.476   3.165  12.798
34509SOL     OW 5423  10.576   8.530   3.781
34509SOL    HW1 5424  10.602   8.608   3.732
34509SOL    HW2 5425  10.656   8.504   3.827
34510SOL     OW 5426  12.353   4.906   5.833
34510SOL    HW1 5427  12.300   4.931   5.909
34510SOL    HW2 5428  12.390   4.821   5.857
34511SOL     OW 5429  13.157  13.935  10.417
34511SOL    HW1 5430  13.166  13.886  10.336
34511SOL    HW2 5431  13.236  13.988  10.423
34512SOL     OW 5432  13.725  11.546   5.559
34512SOL    HW1 5433  13.750  11.498   5.479
34512SOL    HW2 5434  13.653  11.495   5.596
34513SOL     OW 5435   3.607   5.665   2.734
34513SOL    HW1 5436   3.652   5.683   2.651
34513SOL    HW2 5437   3.669   5.614   2.785
34514SOL     OW 5438   9.260   6.462  10.778
34514SOL    HW1 5439   9.339   6.515  10.765
34514SOL    HW2 5440   9.214   6.506  10.849
34515SOL     OW 5441   7.704   4.419   1.155
34515SOL    HW1 5442   7.712   4.425   1.251
34515SOL    HW2 5443   7.677   4.328   1.140
34516SOL     OW 5444  13.845  10.671   7.515
34516SOL    HW1 5445  13.841  10.757   7.558
34516SOL    HW2 5446  13.770  10.623   7.549
34517SOL     OW 5447  10.836  13.092   4.774
34517SOL    HW1 5448  10.826  13.014   4.830
34517SOL    HW2 5449  10.902  13.067   4.710
34518SOL     OW 5450   5.266   9.688   1.722
34518SOL    HW1 5451   5.322   9.760   1.694
34518SOL    HW2 5452   5.274   9.687   1.818
34519SOL     OW 5453   4.653   1.554   3.230
34519SOL    HW1 5454   4.607   1.622   3.280
34519SOL    HW2 5455   4.730   1.532   3.283
34520SOL     OW 5456   7.022   6.939  12.313
34520SOL    HW1 5457   7.058   6.964  12.398
34520SOL    HW2 5458   6.949   6.881  12.334
34521SOL     OW 5459   2.166   3.004   7.841
34521SOL    HW1 5460   2.224   2.945   7.793
34521SOL    HW2 5461   2.154   3.079   7.784
34522SOL     OW 5462  11.472  10.723   1.497
34522SOL    HW1 5463  11.377  10.720   1.489
34522SOL    HW2 5464  11.498  10.632   1.514
34523SOL     OW 5465   2.785   4.439   6.151
34523SOL    HW1 5466   2.744   4.515   6.191
34523SOL    HW2 5467   2.837   4.475   6.079
34524SOL     OW 5468   2.681   8.965   6.327
34524SOL    HW1 5469   2.653   9.055   6.309
34524SOL    HW2 5470   2.688   8.960   6.422
34525SOL     OW 5471   0.638   4.615  10.161
34525SOL    HW1 5472   0.653   4.668  10.239
34525SOL    HW2 5473   0.668   4.669  10.088
34526SOL     OW 5474   2.594   9.446   7.060
34526SOL    HW1 5475   2.586   9.383   7.132
34526SOL    HW2 5476   2.677   9.490   7.077
34527SOL     OW 5477   1.448   9.056   2.988
34527SOL    HW1 5478   1.418   9.131   2.936
34527SOL    HW2 5479   1.407   8.980   2.946
34528SOL     OW 5480  13.321  11.602   2.157
34528SOL    HW1 5481  13.284  11.666   2.218
34528SOL    HW2 5482  13.244  11.564   2.113
34529SOL     OW 5483   1.999  12.229  11.223
34529SOL    HW1 5484   1.906  12.244  11.211
34529SOL    HW2 5485   2.033  12.310  11.260
34530SOL     OW 5486   8.882   3.780  11.991
34530SOL    HW1 5487   8.856   3.822  12.073
34530SOL    HW2 5488   8.832   3.827  11.924
34531SOL     OW 5489   0.568   7.063  12.007
34531SOL    HW1 5490   0.660   7.077  11.987
34531SOL    HW2 5491   0.565   6.979  12.052
34532SOL     OW 5492   2.489  10.108   9.951
34532SOL    HW1 5493   2.536  10.061   9.882
34532SOL    HW2 5494   2.554  10.169   9.987
34533SOL     OW 5495   8.843   0.331  13.970
34533SOL    HW1 5496   8.763   0.306  13.923
34533SOL    HW2 5497   8.885   0.248  13.991
34534SOL     OW 5498   3.862   8.232  10.851
34534SOL    HW1 5499   3.855   8.138  10.868
34534SOL    HW2 5500   3.941   8.241  10.799
34535SOL     OW 5501  10.690  14.679   5.765
34535SOL    HW1 5502  10.611  14.731   5.749
34535SOL    HW2 5503  10.747  14.696   5.691
34536SOL     OW 5504   5.998   8.585  12.979
34536SOL    HW1 5505   5.949   8.548  13.053
34536SOL    HW2 5506   6.060   8.645  13.019
34537SOL     OW 5507   4.345  14.733   7.884
34537SOL    HW1 5508   4.307  14.647   7.901
34537SOL    HW2 5509   4.395  14.754   7.963
34538SOL     OW 5510   1.096  10.060  12.211
34538SOL    HW1 5511   1.052  10.008  12.278
34538SOL    HW2 5512   1.043  10.048  12.132
34539SOL     OW 5513   2.633  13.826  12.194
34539SOL    HW1 5514   2.649  13.919  12.210
34539SOL    HW2 5515   2.544  13.811  12.223
34540SOL     OW 5516   8.820   5.714  13.377
34540SOL    HW1 5517   8.831   5.619  13.375
34540SOL    HW2 5518   8.890   5.748  13.321
34541SOL     OW 5519  11.684   3.011   6.757
34541SOL    HW1 5520  11.750   2.969   6.702
34541SOL    HW2 5521  11.668   3.096   6.716
34542SOL     OW 5522   0.622   2.998   2.447
34542SOL    HW1 5523   0.615   2.957   2.533
34542SOL    HW2 5524   0.637   2.926   2.387
34543SOL     OW 5525  11.667   0.413  13.842
34543SOL    HW1 5526  11.693   0.504  13.834
34543SOL    HW2 5527  11.673   0.394  13.936
34544SOL     OW 5528  13.106   1.270   8.469
34544SOL    HW1 5529  13.065   1.355   8.484
34544SOL    HW2 5530  13.124   1.235   8.556
34545SOL     OW 5531  12.345   6.910   2.928
34545SOL    HW1 5532  12.403   6.850   2.976
34545SOL    HW2 5533  12.351   6.992   2.976
34546SOL     OW 5534   7.060   5.897   5.955
34546SOL    HW1 5535   6.985   5.839   5.936
34546SOL    HW2 5536   7.036   5.981   5.916
34547SOL     OW 5537   9.815   3.463   4.931
34547SOL    HW1 5538   9.739   3.511   4.967
34547SOL    HW2 5539   9.854   3.420   5.006
34548SOL     OW 5540  14.412   7.631   7.209
34548SOL    HW1 5541  14.418   7.711   7.158
34548SOL    HW2 5542  14.467   7.568   7.162
34549SOL     OW 5543  12.815   7.005  10.951
34549SOL    HW1 5544  12.735   6.963  10.921
34549SOL    HW2 5545  12.875   6.932  10.970
34550SOL     OW 5546  13.096   0.439   7.473
34550SOL    HW1 5547  13.022   0.488   7.437
34550SOL    HW2 5548  13.065   0.407   7.558
34551SOL     OW 5549   4.729   7.379   9.701
34551SOL    HW1 5550   4.760   7.342   9.784
34551SOL    HW2 5551   4.704   7.304   9.648
34552SOL     OW 5552   0.002   9.140   6.474
34552SOL    HW1 5553   0.057   9.141   6.552
34552SOL    HW2 5554  14.804   9.194   6.497
34553SOL     OW 5555   1.964   6.044   1.144
34553SOL    HW1 5556   1.952   6.085   1.058
34553SOL    HW2 5557   1.982   5.952   1.125
34554SOL     OW 5558   9.534   0.219  14.872
34554SOL    HW1 5559   9.534   0.175   0.079
34554SOL    HW2 5560   9.550   0.311   0.016
34555SOL     OW 5561   7.355  13.812   3.356
34555SOL    HW1 5562   7.276  13.865   3.344
34555SOL    HW2 5563   7.352  13.748   3.284
34556SOL     OW 5564  13.612   5.244  11.474
34556SOL    HW1 5565  13.571   5.180  11.532
34556SOL    HW2 5566  13.602   5.328  11.520
34557SOL     OW 5567   5.907   6.957   7.834
34557SOL    HW1 5568   5.872   7.019   7.770
34557SOL    HW2 5569   5.871   6.986   7.918
34558SOL     OW 5570  11.943  12.693   7.435
34558SOL    HW1 5571  12.017  12.753   7.436
34558SOL    HW2 5572  11.872  12.743   7.395
34559SOL     OW 5573  12.811   9.076   4.732
34559SOL    HW1 5574  12.861   9.059   4.652
34559SOL    HW2 5575  12.719   9.072   4.704
34560SOL     OW 5576   5.868   9.032  11.040
34560SOL    HW1 5577   5.823   9.104  11.084
34560SOL    HW2 5578   5.867   8.961  11.104
34561SOL     OW 5579   6.879   4.242   8.741
34561SOL    HW1 5580   6.896   4.332   8.712
34561SOL    HW2 5581   6.785   4.240   8.757
34562SOL     OW 5582   3.586   5.725   1.007
34562SOL    HW1 5583   3.629   5.810   0.992
34562SOL    HW2 5584   3.540   5.706   0.926
34563SOL     OW 5585   5.876  10.929  14.441
34563SOL    HW1 5586   5.853  10.849  14.489
34563SOL    HW2 5587   5.960  10.955  14.477
34564SOL     OW 5588   9.813   9.748   5.041
34564SOL    HW1 5589   9.829   9.670   4.987
34564SOL    HW2 5590   9.722   9.771   5.024
34565SOL     OW 5591   1.147   5.362   5.970
34565SOL    HW1 5592   1.073   5.307   5.994
34565SOL    HW2 5593   1.128   5.447   6.009
34566SOL     OW 5594  11.457   8.428  11.488
34566SOL    HW1 5595  11.381   8.374  11.510
34566SOL    HW2 5596  11.505   8.376  11.423
34567SOL     OW 5597   4.633   0.286   2.412
34567SOL    HW1 5598   4.674   0.341   2.479
34567SOL    HW2 5599   4.660   0.324   2.329
34568SOL     OW 5600  12.757  11.192   7.711
34568SOL    HW1 5601  12.820  11.254   7.674
34568SOL    HW2 5602  12.795  11.168   7.796
34569SOL     OW 5603   7.103   1.371   2.643
34569SOL    HW1 5604   7.101   1.373   2.738
34569SOL    HW2 5605   7.159   1.445   2.618
34570SOL     OW 5606  11.460   2.799   0.156
34570SOL    HW1 5607  11.512   2.864   0.204
34570SOL    HW2 5608  11.430   2.738   0.224
34571SOL     OW 5609  13.255   1.473   8.824
34571SOL    HW1 5610  13.256   1.400   8.886
34571SOL    HW2 5611  13.326   1.452   8.763
34572SOL     OW 5612  14.430  12.245   6.234
34572SOL    HW1 5613  14.358  12.288   6.188
34572SOL    HW2 5614  14.505  12.252   6.174
34573SOL     OW 5615   8.965   9.888  12.074
34573SOL    HW1 5616   8.890   9.853  12.027
34573SOL    HW2 5617   8.985   9.821  12.140
34574SOL     OW 5618   9.891  14.568   2.642
34574SOL    HW1 5619   9.963  14.508   2.661
34574SOL    HW2 5620   9.931  14.655   2.643
34575SOL     OW 5621   0.850   0.628  11.527
34575SOL    HW1 5622   0.805   0.592  11.604
34575SOL    HW2 5623   0.810   0.714  11.513
34576SOL     OW 5624  11.380  11.304   6.176
34576SOL    HW1 5625  11.449  11.357   6.138
34576SOL    HW2 5626  11.320  11.367   6.215
34577SOL     OW 5627  11.127   8.356   7.829
34577SOL    HW1 5628  11.086   8.363   7.742
34577SOL    HW2 5629  11.104   8.268   7.859
34578SOL     OW 5630   1.031  12.871   9.851
34578SOL    HW1 5631   1.056  12.962   9.833
34578SOL    HW2 5632   0.955  12.877   9.909
34579SOL     OW 5633   2.189   4.185  14.527
34579SOL    HW1 5634   2.271   4.227  14.500
34579SOL    HW2 5635   2.215   4.096  14.550
34580SOL     OW 5636   9.040   5.041   8.136
34580SOL    HW1 5637   8.953   5.001   8.144
34580SOL    HW2 5638   9.100   4.976   8.173
34581SOL     OW 5639   0.107  11.073   0.168
34581SOL    HW1 5640   0.171  11.141   0.189
34581SOL    HW2 5641   0.068  11.049   0.252
34582SOL     OW 5642  13.029  13.275   7.399
34582SOL    HW1 5643  12.955  13.325   7.433
34582SOL    HW2 5644  12.998  13.185   7.397
34583SOL     OW 5645  12.321   7.189   5.912
34583SOL    HW1 5646  12.260   7.238   5.857
34583SOL    HW2 5647  12.305   7.097   5.890
34584SOL     OW 5648   6.272  13.067  10.371
34584SOL    HW1 5649   6.229  13.150  10.393
34584SOL    HW2 5650   6.218  13.000  10.414
34585SOL     OW 5651   4.919   4.465  13.214
34585SOL    HW1 5652   4.959   4.527  13.275
34585SOL    HW2 5653   4.907   4.385  13.264
34586SOL     OW 5654  13.507  14.063   7.420
34586SOL    HW1 5655  13.505  13.997   7.490
34586SOL    HW2 5656  13.533  14.015   7.342
34587SOL     OW 5657   8.795   5.806   7.448
34587SOL    HW1 5658   8.753   5.723   7.470
34587SOL    HW2 5659   8.785   5.861   7.526
34588SOL     OW 5660   3.336   3.778   3.860
34588SOL    HW1 5661   3.278   3.846   3.828
34588SOL    HW2 5662   3.376   3.816   3.938
34589SOL     OW 5663  11.611   4.112  12.713
34589SOL    HW1 5664  11.588   4.081  12.625
34589SOL    HW2 5665  11.696   4.155  12.702
34590SOL     OW 5666  12.522  12.121   3.048
34590SOL    HW1 5667  12.591  12.123   2.981
34590SOL    HW2 5668  12.442  12.099   3.000
34591SOL     OW 5669   3.694   2.241   7.163
34591SOL    HW1 5670   3.687   2.224   7.257
34591SOL    HW2 5671   3.783   2.274   7.151
34592SOL     OW 5672   5.117  14.562  11.690
34592SOL    HW1 5673   5.039  14.513  11.663
34592SOL    HW2 5674   5.123  14.549  11.784
34593SOL     OW 5675   0.351   9.832   6.926
34593SOL    HW1 5676   0.290   9.826   7.000
34593SOL    HW2 5677   0.334   9.753   6.874
34594SOL     OW 5678  14.057   2.711  14.777
34594SOL    HW1 5679  14.125   2.729  14.842
34594SOL    HW2 5680  14.082   2.762  14.701
34595SOL     OW 5681   3.470   2.792   3.688
34595SOL    HW1 5682   3.472   2.796   3.784
34595SOL    HW2 5683   3.379   2.808   3.665
34596SOL     OW 5684   3.472  13.584   3.253
34596SOL    HW1 5685   3.430  13.669   3.264
34596SOL    HW2 5686   3.416  13.537   3.192
34597SOL     OW 5687  12.437   9.802   8.782
34597SOL    HW1 5688  12.523   9.813   8.741
34597SOL    HW2 5689  12.375   9.811   8.709
34598SOL     OW 5690  13.474   4.152   9.458
34598SOL    HW1 5691  13.445   4.220   9.398
34598SOL    HW2 5692  13.479   4.195   9.544
34599SOL     OW 5693   1.403  10.022   1.260
34599SOL    HW1 5694   1.498  10.010   1.269
34599SOL    HW2 5695   1.365   9.941   1.295
34600SOL     OW 5696  13.205   6.473  11.903
34600SOL    HW1 5697  13.168   6.533  11.838
34600SOL    HW2 5698  13.231   6.396  11.852
34601SOL     OW 5699   2.568   5.576   4.988
34601SOL    HW1 5700   2.632   5.606   5.052
34601SOL    HW2 5701   2.614   5.578   4.904
34602SOL     OW 5702   5.001   8.499  13.310
34602SOL    HW1 5703   4.959   8.459  13.233
34602SOL    HW2 5704   5.093   8.472  13.302
34603SOL     OW 5705  13.865  13.204   1.053
34603SOL    HW1 5706  13.926  13.179   1.122
34603SOL    HW2 5707  13.821  13.123   1.030
34604SOL     OW 5708   2.400  14.554   2.280
34604SOL    HW1 5709   2.308  14.526   2.282
34604SOL    HW2 5710   2.423  14.569   2.371
34605SOL     OW 5711   9.656  11.190  14.272
34605SOL    HW1 5712   9.647  11.284  14.261
34605SOL    HW2 5713   9.709  11.162  14.196
34606SOL     OW 5714   3.305   5.437   1.794
34606SOL    HW1 5715   3.312   5.473   1.705
34606SOL    HW2 5716   3.301   5.514   1.850
34607SOL     OW 5717   6.417   9.535   4.611
34607SOL    HW1 5718   6.393   9.442   4.610
34607SOL    HW2 5719   6.476   9.546   4.536
34608SOL     OW 5720   6.323  14.592  12.727
34608SOL    HW1 5721   6.402  14.640  12.703
34608SOL    HW2 5722   6.346  14.500  12.715
34609SOL     OW 5723  14.150   1.240  11.988
34609SOL    HW1 5724  14.097   1.185  12.044
34609SOL    HW2 5725  14.125   1.330  12.011
34610SOL     OW 5726  10.844   2.221   9.432
34610SOL    HW1 5727  10.908   2.152   9.418
34610SOL    HW2 5728  10.790   2.190   9.505
34611SOL     OW 5729  10.282   6.487  12.261
34611SOL    HW1 5730  10.286   6.560  12.323
34611SOL    HW2 5731  10.359   6.499  12.205
34612SOL     OW 5732   5.791  14.051   0.274
34612SOL    HW1 5733   5.752  14.093   0.198
34612SOL    HW2 5734   5.716  14.028   0.329
34613SOL     OW 5735   1.156  11.188   6.532
34613SOL    HW1 5736   1.150  11.237   6.614
34613SOL    HW2 5737   1.150  11.255   6.463
34614SOL     OW 5738   6.155   7.186   8.817
34614SOL    HW1 5739   6.095   7.164   8.888
34614SOL    HW2 5740   6.242   7.180   8.856
34615SOL     OW 5741   5.190  13.209   1.373
34615SOL    HW1 5742   5.096  13.204   1.359
34615SOL    HW2 5743   5.209  13.142   1.439
34616SOL     OW 5744   2.652  11.096   4.970
34616SOL    HW1 5745   2.609  11.124   5.051
34616SOL    HW2 5746   2.695  11.014   4.993
34617SOL     OW 5747   5.208   1.093  11.202
34617SOL    HW1 5748   5.124   1.129  11.174
34617SOL    HW2 5749   5.201   1.088  11.298
34618SOL     OW 5750   5.568   9.703   4.223
34618SOL    HW1 5751   5.614   9.637   4.171
34618SOL    HW2 5752   5.595   9.685   4.313
34619SOL     OW 5753  14.513  12.818  12.084
34619SOL    HW1 5754  14.478  12.832  11.996
34619SOL    HW2 5755  14.437  12.791  12.136
34620SOL     OW 5756   4.661   6.595   1.712
34620SOL    HW1 5757   4.735   6.575   1.769
34620SOL    HW2 5758   4.682   6.680   1.674
34621SOL     OW 5759   7.288  10.031  12.409
34621SOL    HW1 5760   7.219  10.022  12.474
34621SOL    HW2 5761   7.344   9.955  12.423
34622SOL     OW 5762  10.412   6.883  11.098
34622SOL    HW1 5763  10.426   6.809  11.038
34622SOL    HW2 5764  10.395   6.843  11.183
34623SOL     OW 5765   2.420  14.779  10.811
34623SOL    HW1 5766   2.485  14.711  10.796
34623SOL    HW2 5767   2.344  14.753  10.760
34624SOL     OW 5768   4.935   9.132   4.412
34624SOL    HW1 5769   4.870   9.062   4.423
34624SOL    HW2 5770   5.003   9.092   4.357
34625SOL     OW 5771   0.660   8.163   3.047
34625SOL    HW1 5772   0.698   8.113   3.119
34625SOL    HW2 5773   0.607   8.098   2.999
34626SOL     OW 5774  10.407  11.314   8.735
34626SOL    HW1 5775  10.465  11.338   8.663
34626SOL    HW2 5776  10.466  11.293   8.807
34627SOL     OW 5777   0.969  10.367  14.737
34627SOL    HW1 5778   1.030  10.302  14.772
34627SOL    HW2 5779   0.908  10.317  14.683
34628SOL     OW 5780   9.284  12.427   5.509
34628SOL    HW1 5781   9.222  12.493   5.479
34628SOL    HW2 5782   9.370  12.469   5.501
34629SOL     OW 5783   6.103   7.181   3.960
34629SOL    HW1 5784   6.036   7.248   3.971
34629SOL    HW2 5785   6.166   7.199   4.030
34630SOL     OW 5786   2.250   1.111   4.356
34630SOL    HW1 5787   2.167   1.157   4.347
34630SOL    HW2 5788   2.284   1.138   4.441
34631SOL     OW 5789   7.557  12.738   3.331
34631SOL    HW1 5790   7.500  12.789   3.275
34631SOL    HW2 5791   7.577  12.796   3.405
34632SOL     OW 5792   0.761   0.736   0.742
34632SOL    HW1 5793   0.685   0.781   0.781
34632SOL    HW2 5794   0.800   0.688   0.815
34633SOL     OW 5795   5.238   3.562   8.452
34633SOL    HW1 5796   5.175   3.622   8.491
34633SOL    HW2 5797   5.260   3.601   8.367
34634SOL     OW 5798  10.499   2.334   0.492
34634SOL    HW1 5799  10.508   2.277   0.568
34634SOL    HW2 5800  10.481   2.274   0.419
34635SOL     OW 5801  10.076  10.656   7.167
34635SOL    HW1 5802  10.033  10.571   7.162
34635SOL    HW2 5803  10.141  10.645   7.236
34636SOL     OW 5804   7.786   3.805  13.278
34636SOL    HW1 5805   7.775   3.871  13.346
34636SOL    HW2 5806   7.879   3.810  13.255
34637SOL     OW 5807   7.905   1.268   1.658
34637SOL    HW1 5808   7.843   1.224   1.600
34637SOL    HW2 5809   7.920   1.353   1.616
34638SOL     OW 5810   5.291   7.550   9.277
34638SOL    HW1 5811   5.223   7.614   9.300
34638SOL    HW2 5812   5.252   7.499   9.205
34639SOL     OW 5813   3.633   5.567   1.807
34639SOL    HW1 5814   3.627   5.562   1.902
34639SOL    HW2 5815   3.700   5.634   1.791
34640SOL     OW 5816   8.847   4.659   7.750
34640SOL    HW1 5817   8.802   4.732   7.707
34640SOL    HW2 5818   8.937   4.691   7.764
34641SOL     OW 5819  13.963   6.067   6.243
34641SOL    HW1 5820  13.906   6.021   6.305
34641SOL    HW2 5821  13.972   6.006   6.170
34642SOL     OW 5822   3.328  10.717   9.889
34642SOL    HW1 5823   3.337  10.751   9.800
34642SOL    HW2 5824   3.399  10.759   9.938
34643SOL     OW 5825  12.558   7.107   4.299
34643SOL    HW1 5826  12.502   7.062   4.237
34643SOL    HW2 5827  12.549   7.056   4.380
34644SOL     OW 5828   0.636   8.310  14.405
34644SOL    HW1 5829   0.545   8.297  14.378
34644SOL    HW2 5830   0.685   8.315  14.323
34645SOL     OW 5831   3.615   0.787   2.236
34645SOL    HW1 5832   3.653   0.737   2.308
34645SOL    HW2 5833   3.614   0.878   2.267
34646SOL     OW 5834   6.602  14.509   6.730
34646SOL    HW1 5835   6.679  14.559   6.703
34646SOL    HW2 5836   6.566  14.558   6.805
34647SOL     OW 5837  10.466  10.894  14.751
34647SOL    HW1 5838  10.494  10.923  14.665
34647SOL    HW2 5839  10.537  10.921  14.810
34648SOL     OW 5840   8.078  11.700  11.729
34648SOL    HW1 5841   8.117  11.655  11.654
34648SOL    HW2 5842   8.070  11.633  11.797
34649SOL     OW 5843   2.051   4.550   6.124
34649SOL    HW1 5844   2.043   4.575   6.216
34649SOL    HW2 5845   1.966   4.512   6.102
34650SOL     OW 5846   3.831   8.669  13.895
34650SOL    HW1 5847   3.813   8.598  13.956
34650SOL    HW2 5848   3.784   8.744  13.931
34651SOL     OW 5849  14.526  14.295   2.380
34651SOL    HW1 5850  14.573  14.336   2.308
34651SOL    HW2 5851  14.592  14.240   2.423
34652SOL     OW 5852  13.875  11.905  10.923
34652SOL    HW1 5853  13.883  11.925  11.016
34652SOL    HW2 5854  13.783  11.925  10.903
34653SOL     OW 5855   2.119   8.616   8.586
34653SOL    HW1 5856   2.177   8.545   8.560
34653SOL    HW2 5857   2.148   8.691   8.533
34654SOL     OW 5858   2.599   2.080  11.228
34654SOL    HW1 5859   2.527   2.098  11.288
34654SOL    HW2 5860   2.600   1.984  11.220
34655SOL     OW 5861   6.097   1.840  13.988
34655SOL    HW1 5862   6.063   1.880  14.068
34655SOL    HW2 5863   6.080   1.746  13.998
34656SOL     OW 5864  11.907   6.130   9.273
34656SOL    HW1 5865  11.931   6.189   9.345
34656SOL    HW2 5866  11.811   6.129   9.274
34657SOL     OW 5867   2.227   0.330  13.364
34657SOL    HW1 5868   2.218   0.258  13.427
34657SOL    HW2 5869   2.288   0.298  13.299
34658SOL     OW 5870   3.372  10.147   7.752
34658SOL    HW1 5871   3.389  10.096   7.672
34658SOL    HW2 5872   3.349  10.235   7.720
34659SOL     OW 5873   5.131   3.745  13.859
34659SOL    HW1 5874   5.140   3.744  13.763
34659SOL    HW2 5875   5.036   3.741  13.873
34660SOL     OW 5876   8.864  13.135   0.898
34660SOL    HW1 5877   8.862  13.098   0.986
34660SOL    HW2 5878   8.823  13.221   0.907
34661SOL     OW 5879   3.024   6.653   2.337
34661SOL    HW1 5880   3.020   6.602   2.256
34661SOL    HW2 5881   3.040   6.588   2.405
34662SOL     OW 5882  14.062  12.732  10.426
34662SOL    HW1 5883  14.124  12.660  10.434
34662SOL    HW2 5884  14.060  12.752  10.333
34663SOL     OW 5885   8.858   5.357   7.476
34663SOL    HW1 5886   8.793   5.412   7.519
34663SOL    HW2 5887   8.941   5.402   7.493
34664SOL     OW 5888  13.512  14.159   8.115
34664SOL    HW1 5889  13.419  14.159   8.135
34664SOL    HW2 5890  13.520  14.105   8.037
34665SOL     OW 5891  11.830   4.682   3.107
34665SOL    HW1 5892  11.770   4.710   3.176
34665SOL    HW2 5893  11.815   4.744   3.036
34666SOL     OW 5894   7.351  11.651   2.523
34666SOL    HW1 5895   7.402  11.620   2.448
34666SOL    HW2 5896   7.382  11.740   2.537
34667SOL     OW 5897  10.722  12.048   9.298
34667SOL    HW1 5898  10.810  12.067   9.266
34667SOL    HW2 5899  10.665  12.101   9.241
34668SOL     OW 5900   0.694   9.733  13.179
34668SOL    HW1 5901   0.720   9.758  13.267
34668SOL    HW2 5902   0.630   9.800  13.154
34669SOL     OW 5903   3.420   7.965   4.964
34669SOL    HW1 5904   3.492   8.025   4.946
34669SOL    HW2 5905   3.370   8.007   5.033
34670SOL     OW 5906   9.499  12.662   7.535
34670SOL    HW1 5907   9.491  12.732   7.600
34670SOL    HW2 5908   9.471  12.583   7.581
34671SOL     OW 5909  12.801  13.018   2.014
34671SOL    HW1 5910  12.831  12.941   2.063
34671SOL    HW2 5911  12.859  13.022   1.938
34672SOL     OW 5912   4.726   4.856   7.047
34672SOL    HW1 5913   4.706   4.763   7.059
34672SOL    HW2 5914   4.641   4.897   7.029
34673SOL     OW 5915  11.662   1.784   8.795
34673SOL    HW1 5916  11.724   1.733   8.847
34673SOL    HW2 5917  11.621   1.843   8.857
34674SOL     OW 5918   9.983   8.612  12.996
34674SOL    HW1 5919  10.071   8.578  12.978
34674SOL    HW2 5920   9.930   8.584  12.922
34675SOL     OW 5921  10.160   3.728   9.709
34675SOL    HW1 5922  10.125   3.767   9.629
34675SOL    HW2 5923  10.189   3.802   9.761
34676SOL     OW 5924   1.476   0.386  10.957
34676SOL    HW1 5925   1.562   0.345  10.963
34676SOL    HW2 5926   1.436   0.349  10.879
34677SOL     OW 5927  14.313   2.976   0.476
34677SOL    HW1 5928  14.378   3.045   0.491
34677SOL    HW2 5929  14.357   2.914   0.418
34678SOL     OW 5930   0.201  11.191  12.902
34678SOL    HW1 5931   0.159  11.138  12.970
34678SOL    HW2 5932   0.256  11.130  12.854
34679SOL     OW 5933   1.863  10.395  14.295
34679SOL    HW1 5934   1.892  10.304  14.287
34679SOL    HW2 5935   1.818  10.413  14.212
34680SOL     OW 5936   8.140  14.005  14.610
34680SOL    HW1 5937   8.224  13.985  14.569
34680SOL    HW2 5938   8.156  13.998  14.704
34681SOL     OW 5939   9.964   1.246  13.722
34681SOL    HW1 5940   9.968   1.338  13.696
34681SOL    HW2 5941   9.961   1.198  13.640
34682SOL     OW 5942   6.608   3.640   1.441
34682SOL    HW1 5943   6.579   3.551   1.422
34682SOL    HW2 5944   6.702   3.632   1.458
34683SOL     OW 5945  11.560  11.795   6.826
34683SOL    HW1 5946  11.488  11.787   6.888
34683SOL    HW2 5947  11.572  11.706   6.792
34684SOL     OW 5948   9.826  10.551   3.939
34684SOL    HW1 5949   9.782  10.540   3.855
34684SOL    HW2 5950   9.826  10.645   3.955
34685SOL     OW 5951   2.039   9.075   8.769
34685SOL    HW1 5952   1.943   9.076   8.774
34685SOL    HW2 5953   2.064   8.996   8.816
34686SOL     OW 5954  10.269   9.808   7.082
34686SOL    HW1 5955  10.320   9.745   7.134
34686SOL    HW2 5956  10.191   9.760   7.056
34687SOL     OW 5957   1.085   9.663   3.962
34687SOL    HW1 5958   1.126   9.730   4.017
34687SOL    HW2 5959   0.991   9.678   3.973
34688SOL     OW 5960   0.666  12.543   0.023
34688SOL    HW1 5961   0.591  12.535   0.082
34688SOL    HW2 5962   0.630  12.588  14.823
34689SOL     OW 5963   7.552  10.801   3.526
34689SOL    HW1 5964   7.628  10.828   3.576
34689SOL    HW2 5965   7.489  10.770   3.591
34690SOL     OW 5966  12.811   0.022   0.694
34690SOL    HW1 5967  12.737  14.845   0.722
34690SOL    HW2 5968  12.795   0.038   0.600
34691SOL     OW 5969   6.769   6.772  14.065
34691SOL    HW1 5970   6.863   6.778  14.051
34691SOL    HW2 5971   6.741   6.862  14.080
34692SOL     OW 5972   5.968   5.727  10.562
34692SOL    HW1 5973   6.024   5.795  10.600
34692SOL    HW2 5974   5.913   5.774  10.499
34693SOL     OW 5975  13.446  11.403  10.662
34693SOL    HW1 5976  13.462  11.473  10.726
34693SOL    HW2 5977  13.499  11.428  10.586
34694SOL     OW 5978   7.672  11.459  12.357
34694SOL    HW1 5979   7.609  11.469  12.429
34694SOL    HW2 5980   7.725  11.538  12.361
34695SOL     OW 5981  11.948   1.180  12.896
34695SOL    HW1 5982  11.935   1.123  12.820
34695SOL    HW2 5983  12.006   1.130  12.953
34696SOL     OW 5984  12.605   3.546  10.723
34696SOL    HW1 5985  12.577   3.456  10.742
34696SOL    HW2 5986  12.539   3.601  10.765
34697SOL     OW 5987   5.531   7.892   0.577
34697SOL    HW1 5988   5.462   7.956   0.562
34697SOL    HW2 5989   5.495   7.833   0.643
34698SOL     OW 5990   6.745  13.155   6.787
34698SOL    HW1 5991   6.773  13.224   6.727
34698SOL    HW2 5992   6.650  13.148   6.775
34699SOL     OW 5993   6.300   0.061   9.674
34699SOL    HW1 5994   6.364   0.003   9.716
34699SOL    HW2 5995   6.233   0.076   9.740
34700SOL     OW 5996   6.708  11.100   9.198
34700SOL    HW1 5997   6.759  11.109   9.278
34700SOL    HW2 5998   6.743  11.021   9.156
34701SOL     OW 5999   4.370   1.028   5.106
34701SOL    HW1 6000   4.349   0.944   5.146
34701SOL    HW2 6001   4.305   1.038   5.036
34702SOL     OW 6002  12.459  12.274   8.460
34702SOL    HW1 6003  12.394  12.257   8.528
34702SOL    HW2 6004  12.487  12.364   8.476
34703SOL     OW 6005   9.250   5.743   1.760
34703SOL    HW1 6006   9.254   5.656   1.800
34703SOL    HW2 6007   9.244   5.726   1.666
34704SOL     OW 6008   4.899   2.883  11.599
34704SOL    HW1 6009   4.862   2.952  11.544
34704SOL    HW2 6010   4.842   2.880  11.676
34705SOL     OW 6011  12.195  12.921   7.832
34705SOL    HW1 6012  12.212  12.917   7.926
34705SOL    HW2 6013  12.248  12.851   7.795
34706SOL     OW 6014   9.467  11.087  13.679
34706SOL    HW1 6015   9.555  11.076  13.643
34706SOL    HW2 6016   9.480  11.102  13.772
34707SOL     OW 6017   9.533   3.814   1.691
34707SOL    HW1 6018   9.510   3.835   1.781
34707SOL    HW2 6019   9.629   3.817   1.689
34708SOL     OW 6020  14.573   9.527  10.433
34708SOL    HW1 6021  14.622   9.604  10.461
34708SOL    HW2 6022  14.544   9.486  10.515
34709SOL     OW 6023   4.396   7.154   7.557
34709SOL    HW1 6024   4.449   7.175   7.635
34709SOL    HW2 6025   4.461   7.141   7.487
34710SOL     OW 6026   1.192   0.208   2.311
34710SOL    HW1 6027   1.125   0.216   2.378
34710SOL    HW2 6028   1.271   0.247   2.350
34711SOL     OW 6029   6.891   4.200   7.790
34711SOL    HW1 6030   6.874   4.271   7.728
34711SOL    HW2 6031   6.827   4.213   7.859
34712SOL     OW 6032   9.878  13.097   4.471
34712SOL    HW1 6033   9.853  13.005   4.466
34712SOL    HW2 6034   9.815  13.136   4.532
34713SOL     OW 6035  10.499  14.371  11.886
34713SOL    HW1 6036  10.512  14.304  11.954
34713SOL    HW2 6037  10.417  14.414  11.910
34714SOL     OW 6038   7.138   6.366   5.959
34714SOL    HW1 6039   7.140   6.339   6.051
34714SOL    HW2 6040   7.229   6.386   5.938
34715SOL     OW 6041   6.313   2.891   9.050
34715SOL    HW1 6042   6.286   2.927   9.134
34715SOL    HW2 6043   6.409   2.886   9.056
34716SOL     OW 6044   7.531   7.063  12.660
34716SOL    HW1 6045   7.528   7.155  12.686
34716SOL    HW2 6046   7.462   7.021  12.712
34717SOL     OW 6047   6.178   2.632   2.660
34717SOL    HW1 6048   6.090   2.649   2.626
34717SOL    HW2 6049   6.165   2.568   2.729
34718SOL     OW 6050  10.813   3.975   1.862
34718SOL    HW1 6051  10.822   3.904   1.799
34718SOL    HW2 6052  10.742   3.948   1.920
34719SOL     OW 6053  11.724   7.511   3.111
34719SOL    HW1 6054  11.685   7.552   3.034
34719SOL    HW2 6055  11.650   7.494   3.169
34720SOL     OW 6056   9.451   4.930   8.138
34720SOL    HW1 6057   9.372   4.933   8.192
34720SOL    HW2 6058   9.521   4.954   8.198
34721SOL     OW 6059  11.268   8.982   3.363
34721SOL    HW1 6060  11.233   9.005   3.449
34721SOL    HW2 6061  11.353   8.944   3.380
34722SOL     OW 6062   1.337   2.626   3.963
34722SOL    HW1 6063   1.299   2.541   3.986
34722SOL    HW2 6064   1.271   2.666   3.906
34723SOL     OW 6065   9.796   6.699  12.108
34723SOL    HW1 6066   9.862   6.674  12.172
34723SOL    HW2 6067   9.713   6.672  12.148
34724SOL     OW 6068   8.156   5.154   1.499
34724SOL    HW1 6069   8.154   5.233   1.553
34724SOL    HW2 6070   8.128   5.084   1.558
34725SOL     OW 6071   3.555   6.661  13.450
34725SOL    HW1 6072   3.552   6.753  13.425
34725SOL    HW2 6073   3.592   6.661  13.539
34726SOL     OW 6074   0.948   4.318   0.555
34726SOL    HW1 6075   0.974   4.253   0.489
34726SOL    HW2 6076   1.012   4.388   0.547
34727SOL     OW 6077  13.395   0.848   2.709
34727SOL    HW1 6078  13.485   0.869   2.734
34727SOL    HW2 6079  13.373   0.911   2.640
34728SOL     OW 6080   7.525   8.990   3.055
34728SOL    HW1 6081   7.535   9.059   2.989
34728SOL    HW2 6082   7.608   8.993   3.104
34729SOL     OW 6083  12.696   1.780   3.448
34729SOL    HW1 6084  12.757   1.754   3.518
34729SOL    HW2 6085  12.640   1.845   3.489
34730SOL     OW 6086  14.778  12.657   1.802
34730SOL    HW1 6087  14.868  12.630   1.786
34730SOL    HW2 6088  14.771  12.659   1.898
34731SOL     OW 6089   5.386   1.290  13.536
34731SOL    HW1 6090   5.370   1.372  13.583
34731SOL    HW2 6091   5.304   1.241  13.547
34732SOL     OW 6092  11.461  13.414  13.501
34732SOL    HW1 6093  11.547  13.406  13.460
34732SOL    HW2 6094  11.476  13.472  13.576
34733SOL     OW 6095  10.579  11.091  11.417
34733SOL    HW1 6096  10.571  11.078  11.323
34733SOL    HW2 6097  10.528  11.020  11.456
34734SOL     OW 6098   8.031  14.446   6.739
34734SOL    HW1 6099   8.052  14.526   6.787
34734SOL    HW2 6100   8.116  14.404   6.726
34735SOL     OW 6101   2.622   3.878   8.939
34735SOL    HW1 6102   2.576   3.850   8.860
34735SOL    HW2 6103   2.672   3.801   8.967
34736SOL     OW 6104   9.687  13.212  11.213
34736SOL    HW1 6105   9.772  13.231  11.173
34736SOL    HW2 6106   9.706  13.205  11.307
34737SOL     OW 6107   4.026   6.484  11.221
34737SOL    HW1 6108   3.986   6.570  11.224
34737SOL    HW2 6109   4.040   6.467  11.128
34738SOL     OW 6110   8.555  11.439   5.852
34738SOL    HW1 6111   8.546  11.494   5.775
34738SOL    HW2 6112   8.646  11.448   5.878
34739SOL     OW 6113   4.919   9.037  13.617
34739SOL    HW1 6114   5.002   9.009  13.656
34739SOL    HW2 6115   4.891   8.963  13.563
34740SOL     OW 6116   6.766  12.852  12.126
34740SOL    HW1 6117   6.811  12.828  12.207
34740SOL    HW2 6118   6.693  12.791  12.121
34741SOL     OW 6119   3.913  13.835   9.448
34741SOL    HW1 6120   4.007  13.817   9.451
34741SOL    HW2 6121   3.893  13.842   9.355
34742SOL     OW 6122   0.224   0.592   6.897
34742SOL    HW1 6123   0.204   0.546   6.978
34742SOL    HW2 6124   0.282   0.664   6.923
34743SOL     OW 6125   4.671  10.483   8.755
34743SOL    HW1 6126   4.751  10.505   8.706
34743SOL    HW2 6127   4.600  10.506   8.696
34744SOL     OW 6128  10.562  10.620  13.021
34744SOL    HW1 6129  10.468  10.616  13.003
34744SOL    HW2 6130  10.572  10.688  13.088
34745SOL     OW 6131  10.600   5.385   1.013
34745SOL    HW1 6132  10.647   5.464   1.039
34745SOL    HW2 6133  10.669   5.322   0.991
34746SOL     OW 6134   1.832  10.818  14.239
34746SOL    HW1 6135   1.889  10.841  14.313
34746SOL    HW2 6136   1.756  10.778  14.280
34747SOL     OW 6137   1.795   6.954   1.107
34747SOL    HW1 6138   1.780   6.863   1.083
34747SOL    HW2 6139   1.879   6.953   1.153
34748SOL     OW 6140   1.029   5.731   7.446
34748SOL    HW1 6141   1.118   5.696   7.455
34748SOL    HW2 6142   0.986   5.672   7.385
34749SOL     OW 6143   4.769  10.812   2.552
34749SOL    HW1 6144   4.843  10.852   2.597
34749SOL    HW2 6145   4.808  10.743   2.498
34750SOL     OW 6146   9.697   3.906  11.194
34750SOL    HW1 6147   9.629   3.839  11.190
34750SOL    HW2 6148   9.748   3.883  11.272
34751SOL     OW 6149   8.171  13.074   5.843
34751SOL    HW1 6150   8.265  13.081   5.830
34751SOL    HW2 6151   8.145  12.998   5.790
34752SOL     OW 6152   8.837  11.353   7.911
34752SOL    HW1 6153   8.844  11.385   8.001
34752SOL    HW2 6154   8.798  11.425   7.863
34753SOL     OW 6155   3.625  10.356   0.529
34753SOL    HW1 6156   3.695  10.315   0.478
34753SOL    HW2 6157   3.545  10.314   0.498
34754SOL     OW 6158   0.791  13.109   8.584
34754SOL    HW1 6159   0.788  13.141   8.675
34754SOL    HW2 6160   0.873  13.061   8.579
34755SOL     OW 6161   0.986   4.722  14.361
34755SOL    HW1 6162   0.992   4.645  14.417
34755SOL    HW2 6163   0.990   4.796  14.421
34756SOL     OW 6164   3.097  12.017  11.798
34756SOL    HW1 6165   3.191  12.022  11.783
34756SOL    HW2 6166   3.085  11.936  11.847
34757SOL     OW 6167   1.678   8.253  10.957
34757SOL    HW1 6168   1.596   8.221  10.995
34757SOL    HW2 6169   1.735   8.176  10.955
34758SOL     OW 6170  12.675   2.984   8.944
34758SOL    HW1 6171  12.702   2.922   8.876
34758SOL    HW2 6172  12.670   3.069   8.898
34759SOL     OW 6173  12.024   4.283  13.932
34759SOL    HW1 6174  12.034   4.189  13.922
34759SOL    HW2 6175  11.979   4.295  14.015
34760SOL     OW 6176   4.807  12.136   4.004
34760SOL    HW1 6177   4.813  12.163   4.095
34760SOL    HW2 6178   4.833  12.044   4.005
34761SOL     OW 6179  10.453   5.687  11.065
34761SOL    HW1 6180  10.401   5.645  11.133
34761SOL    HW2 6181  10.472   5.774  11.099
34762SOL     OW 6182   2.901   3.595   9.414
34762SOL    HW1 6183   2.966   3.586   9.484
34762SOL    HW2 6184   2.817   3.595   9.459
34763SOL     OW 6185   2.961   4.773   3.835
34763SOL    HW1 6186   2.868   4.774   3.813
34763SOL    HW2 6187   3.005   4.751   3.753
34764SOL     OW 6188   5.535   1.556   9.396
34764SOL    HW1 6189   5.563   1.616   9.327
34764SOL    HW2 6190   5.616   1.530   9.440
34765SOL     OW 6191   4.953   1.936   2.667
34765SOL    HW1 6192   4.972   1.952   2.575
34765SOL    HW2 6193   4.948   1.841   2.674
34766SOL     OW 6194   8.936   4.715  12.894
34766SOL    HW1 6195   9.030   4.723  12.875
34766SOL    HW2 6196   8.931   4.699  12.988
34767SOL     OW 6197  10.509  13.643   3.707
34767SOL    HW1 6198  10.421  13.662   3.672
34767SOL    HW2 6199  10.492  13.603   3.792
34768SOL     OW 6200   6.587  11.424   6.589
34768SOL    HW1 6201   6.675  11.439   6.553
34768SOL    HW2 6202   6.555  11.511   6.611
34769SOL     OW 6203  14.274  12.709   4.092
34769SOL    HW1 6204  14.267  12.622   4.054
34769SOL    HW2 6205  14.241  12.699   4.181
34770SOL     OW 6206  13.672   8.738  13.234
34770SOL    HW1 6207  13.595   8.723  13.180
34770SOL    HW2 6208  13.725   8.659  13.224
34771SOL     OW 6209   9.997   2.078  10.862
34771SOL    HW1 6210   9.996   2.052  10.770
34771SOL    HW2 6211   9.927   2.142  10.870
34772SOL     OW 6212   8.813   9.341   1.926
34772SOL    HW1 6213   8.782   9.312   2.012
34772SOL    HW2 6214   8.799   9.266   1.868
34773SOL     OW 6215   1.039   1.648   2.207
34773SOL    HW1 6216   1.015   1.574   2.151
34773SOL    HW2 6217   1.101   1.611   2.270
34774SOL     OW 6218  12.697  12.893   9.696
34774SOL    HW1 6219  12.642  12.891   9.775
34774SOL    HW2 6220  12.786  12.892   9.730
34775SOL     OW 6221   3.310   2.732   7.758
34775SOL    HW1 6222   3.381   2.719   7.695
34775SOL    HW2 6223   3.283   2.643   7.782
34776SOL     OW 6224   6.630  14.865  11.300
34776SOL    HW1 6225   6.595   0.072  11.329
34776SOL    HW2 6226   6.559  14.825  11.251
34777SOL     OW 6227  10.227   2.628  14.729
34777SOL    HW1 6228  10.241   2.566  14.657
34777SOL    HW2 6229  10.228   2.714  14.688
34778SOL     OW 6230  13.495  14.194  10.792
34778SOL    HW1 6231  13.427  14.248  10.750
34778SOL    HW2 6232  13.481  14.107  10.755
34779SOL     OW 6233   3.121  13.282  10.583
34779SOL    HW1 6234   3.131  13.284  10.679
34779SOL    HW2 6235   3.106  13.190  10.563
34780SOL     OW 6236   7.364   6.266  11.944
34780SOL    HW1 6237   7.416   6.314  11.880
34780SOL    HW2 6238   7.283   6.317  11.953
34781SOL     OW 6239  11.409   3.982   2.193
34781SOL    HW1 6240  11.321   3.951   2.217
34781SOL    HW2 6241  11.463   3.902   2.193
34782SOL     OW 6242   4.289   3.071   4.331
34782SOL    HW1 6243   4.233   3.098   4.404
34782SOL    HW2 6244   4.229   3.056   4.259
34783SOL     OW 6245   5.342  10.193   3.441
34783SOL    HW1 6246   5.272  10.257   3.428
34783SOL    HW2 6247   5.299  10.108   3.430
34784SOL     OW 6248   3.029   2.184   2.435
34784SOL    HW1 6249   2.975   2.124   2.384
34784SOL    HW2 6250   3.043   2.139   2.519
34785SOL     OW 6251   2.673   2.905   8.961
34785SOL    HW1 6252   2.660   2.858   8.878
34785SOL    HW2 6253   2.761   2.881   8.989
34786SOL     OW 6254   7.818  13.100   5.007
34786SOL    HW1 6255   7.821  13.028   4.944
34786SOL    HW2 6256   7.909  13.116   5.031
34787SOL     OW 6257   4.316   0.572   6.143
34787SOL    HW1 6258   4.302   0.484   6.178
34787SOL    HW2 6259   4.324   0.559   6.049
34788SOL     OW 6260   5.423  10.726  11.348
34788SOL    HW1 6261   5.402  10.750  11.439
34788SOL    HW2 6262   5.504  10.676  11.355
34789SOL     OW 6263   6.121  10.285  12.799
34789SOL    HW1 6264   6.077  10.302  12.716
34789SOL    HW2 6265   6.131  10.190  12.802
34790SOL     OW 6266   5.738  11.160   9.444
34790SOL    HW1 6267   5.798  11.212   9.496
34790SOL    HW2 6268   5.781  11.075   9.434
34791SOL     OW 6269   8.795   9.435   4.693
34791SOL    HW1 6270   8.808   9.511   4.636
34791SOL    HW2 6271   8.882   9.397   4.703
34792SOL     OW 6272   2.237   2.582   2.740
34792SOL    HW1 6273   2.182   2.575   2.818
34792SOL    HW2 6274   2.288   2.501   2.740
34793SOL     OW 6275   1.727  11.439   7.893
34793SOL    HW1 6276   1.698  11.348   7.891
34793SOL    HW2 6277   1.802  11.439   7.953
34794SOL     OW 6278   6.875  13.744   7.403
34794SOL    HW1 6279   6.867  13.838   7.417
34794SOL    HW2 6280   6.907  13.736   7.313
34795SOL     OW 6281   5.280  10.177   7.630
34795SOL    HW1 6282   5.339  10.167   7.705
34795SOL    HW2 6283   5.321  10.244   7.576
34796SOL     OW 6284   2.438  12.706  14.647
34796SOL    HW1 6285   2.384  12.663  14.580
34796SOL    HW2 6286   2.394  12.790  14.663
34797SOL     OW 6287   1.054   7.691   6.190
34797SOL    HW1 6288   1.064   7.611   6.138
34797SOL    HW2 6289   1.113   7.679   6.264
34798SOL     OW 6290   7.962   3.799  14.799
34798SOL    HW1 6291   7.934   3.729  14.741
34798SOL    HW2 6292   8.056   3.784  14.812
34799SOL     OW 6293   8.647   4.286  11.147
34799SOL    HW1 6294   8.674   4.194  11.143
34799SOL    HW2 6295   8.564   4.284  11.194
34800SOL     OW 6296   8.106   4.658   5.614
34800SOL    HW1 6297   8.065   4.743   5.628
34800SOL    HW2 6298   8.161   4.644   5.691
34801SOL     OW 6299   0.749  13.760   2.958
34801SOL    HW1 6300   0.660  13.734   2.935
34801SOL    HW2 6301   0.805  13.701   2.907
34802SOL     OW 6302   9.962   0.218   2.993
34802SOL    HW1 6303   9.885   0.275   2.990
34802SOL    HW2 6304   9.958   0.178   3.080
34803SOL     OW 6305   6.858   1.002   3.760
34803SOL    HW1 6306   6.796   1.071   3.783
34803SOL    HW2 6307   6.851   0.995   3.665
34804SOL     OW 6308   4.483   5.528   3.997
34804SOL    HW1 6309   4.400   5.560   4.034
34804SOL    HW2 6310   4.549   5.590   4.028
34805SOL     OW 6311   1.509   4.248   5.666
34805SOL    HW1 6312   1.517   4.326   5.611
34805SOL    HW2 6313   1.499   4.282   5.755
34806SOL     OW 6314   9.207   6.098   2.855
34806SOL    HW1 6315   9.145   6.053   2.912
34806SOL    HW2 6316   9.211   6.187   2.889
34807SOL     OW 6317   1.286  12.903   7.783
34807SOL    HW1 6318   1.217  12.964   7.757
34807SOL    HW2 6319   1.349  12.905   7.711
34808SOL     OW 6320   1.359   5.416  13.612
34808SOL    HW1 6321   1.347   5.510  13.624
34808SOL    HW2 6322   1.370   5.381  13.701
34809SOL     OW 6323  13.724   9.535   4.440
34809SOL    HW1 6324  13.772   9.454   4.454
34809SOL    HW2 6325  13.741   9.588   4.518
34810SOL     OW 6326   0.378   8.447   8.052
34810SOL    HW1 6327   0.433   8.371   8.030
34810SOL    HW2 6328   0.305   8.442   7.991
34811SOL     OW 6329  12.124   5.233   4.880
34811SOL    HW1 6330  12.159   5.202   4.963
34811SOL    HW2 6331  12.052   5.174   4.860
34812SOL     OW 6332   7.378   6.199   3.612
34812SOL    HW1 6333   7.342   6.129   3.558
34812SOL    HW2 6334   7.398   6.157   3.696
34813SOL     OW 6335   2.524  14.775  11.283
34813SOL    HW1 6336   2.598  14.828  11.315
34813SOL    HW2 6337   2.446  14.822  11.312
34814SOL     OW 6338  12.916  10.954   5.998
34814SOL    HW1 6339  12.962  11.029   5.960
34814SOL    HW2 6340  12.918  10.970   6.092
34815SOL     OW 6341   0.196   5.229   1.478
34815SOL    HW1 6342   0.179   5.311   1.526
34815SOL    HW2 6343   0.234   5.171   1.544
34816SOL     OW 6344   4.540   3.806   9.066
34816SOL    HW1 6345   4.526   3.780   9.157
34816SOL    HW2 6346   4.458   3.848   9.040
34817SOL     OW 6347   5.805   6.898   7.438
34817SOL    HW1 6348   5.878   6.846   7.473
34817SOL    HW2 6349   5.800   6.872   7.346
34818SOL     OW 6350   9.836  11.979  11.658
34818SOL    HW1 6351   9.919  11.974  11.609
34818SOL    HW2 6352   9.862  11.972  11.750
34819SOL     OW 6353  10.038  12.937  11.015
34819SOL    HW1 6354   9.978  12.876  11.058
34819SOL    HW2 6355   9.980  12.996  10.966
34820SOL     OW 6356   4.507  14.594   2.216
34820SOL    HW1 6357   4.423  14.640   2.208
34820SOL    HW2 6358   4.531  14.573   2.125
34821SOL     OW 6359  13.869   1.277   7.308
34821SOL    HW1 6360  13.803   1.257   7.375
34821SOL    HW2 6361  13.945   1.225   7.331
34822SOL     OW 6362   8.747  13.140   2.517
34822SOL    HW1 6363   8.746  13.099   2.603
34822SOL    HW2 6364   8.735  13.068   2.455
34823SOL     OW 6365   9.751   4.165   6.480
34823SOL    HW1 6366   9.729   4.073   6.497
34823SOL    HW2 6367   9.667   4.211   6.488
34824SOL     OW 6368   3.577  13.134   5.153
34824SOL    HW1 6369   3.547  13.184   5.229
34824SOL    HW2 6370   3.497  13.109   5.107
34825SOL     OW 6371  11.797  14.070   8.419
34825SOL    HW1 6372  11.712  14.057   8.378
34825SOL    HW2 6373  11.857  14.083   8.346
34826SOL     OW 6374  11.774   6.160   3.358
34826SOL    HW1 6375  11.790   6.149   3.452
34826SOL    HW2 6376  11.685   6.127   3.346
34827SOL     OW 6377  12.965  11.509   2.326
34827SOL    HW1 6378  12.966  11.555   2.242
34827SOL    HW2 6379  12.989  11.576   2.390
34828SOL     OW 6380   0.443   3.714   2.521
34828SOL    HW1 6381   0.469   3.688   2.433
34828SOL    HW2 6382   0.371   3.656   2.543
34829SOL     OW 6383  11.584   6.914   7.958
34829SOL    HW1 6384  11.592   6.883   8.048
34829SOL    HW2 6385  11.670   6.899   7.919
34830SOL     OW 6386   9.815   9.694   0.943
34830SOL    HW1 6387   9.837   9.637   0.869
34830SOL    HW2 6388   9.899   9.734   0.968
34831SOL     OW 6389   6.300   9.987   1.773
34831SOL    HW1 6390   6.340  10.049   1.834
34831SOL    HW2 6391   6.305   9.903   1.819
34832SOL     OW 6392   1.406  10.260  13.879
34832SOL    HW1 6393   1.466  10.213  13.937
34832SOL    HW2 6394   1.463  10.315  13.825
34833SOL     OW 6395   7.002   5.085   8.281
34833SOL    HW1 6396   6.919   5.101   8.236
34833SOL    HW2 6397   7.056   5.038   8.217
34834SOL     OW 6398  14.248   4.597   2.328
34834SOL    HW1 6399  14.180   4.662   2.348
34834SOL    HW2 6400  14.323   4.649   2.299
34835SOL     OW 6401   6.930   4.432   6.954
34835SOL    HW1 6402   7.001   4.494   6.936
34835SOL    HW2 6403   6.852   4.487   6.967
34836SOL     OW 6404   1.765  11.943   9.881
34836SOL    HW1 6405   1.857  11.931   9.858
34836SOL    HW2 6406   1.725  11.978   9.801
34837SOL     OW 6407   5.898   3.978  14.732
34837SOL    HW1 6408   5.851   4.001  14.652
34837SOL    HW2 6409   5.902   4.060  14.782
34838SOL     OW 6410   5.069   5.448  10.676
34838SOL    HW1 6411   5.098   5.391  10.747
34838SOL    HW2 6412   5.031   5.389  10.611
34839SOL     OW 6413  11.950  12.189  13.592
34839SOL    HW1 6414  11.874  12.230  13.634
34839SOL    HW2 6415  11.919  12.103  13.565
34840SOL     OW 6416  12.631   0.400   2.312
34840SOL    HW1 6417  12.689   0.430   2.242
34840SOL    HW2 6418  12.554   0.456   2.305
34841SOL     OW 6419   0.117   4.319   7.374
34841SOL    HW1 6420   0.183   4.295   7.439
34841SOL    HW2 6421   0.135   4.263   7.299
34842SOL     OW 6422   3.891   7.108   0.845
34842SOL    HW1 6423   3.934   7.154   0.773
34842SOL    HW2 6424   3.924   7.019   0.840
34843SOL     OW 6425   5.049   6.538  11.886
34843SOL    HW1 6426   5.072   6.479  11.814
34843SOL    HW2 6427   5.132   6.573  11.917
34844SOL     OW 6428   0.241   7.686   6.488
34844SOL    HW1 6429   0.228   7.685   6.583
34844SOL    HW2 6430   0.194   7.764   6.459
34845SOL     OW 6431   8.705   4.374   3.141
34845SOL    HW1 6432   8.687   4.460   3.179
34845SOL    HW2 6433   8.793   4.381   3.106
34846SOL     OW 6434  11.901   0.105  11.461
34846SOL    HW1 6435  11.879   0.018  11.494
34846SOL    HW2 6436  11.922   0.091  11.368
34847SOL     OW 6437   5.389   3.481  12.610
34847SOL    HW1 6438   5.354   3.533  12.537
34847SOL    HW2 6439   5.316   3.474  12.671
34848SOL     OW 6440   1.615   5.032   2.107
34848SOL    HW1 6441   1.639   5.111   2.058
34848SOL    HW2 6442   1.696   4.980   2.110
34849SOL     OW 6443   2.897   7.392   5.524
34849SOL    HW1 6444   2.927   7.445   5.450
34849SOL    HW2 6445   2.977   7.361   5.565
34850SOL     OW 6446  10.430   6.495   8.370
34850SOL    HW1 6447  10.409   6.508   8.462
34850SOL    HW2 6448  10.433   6.584   8.333
34851SOL     OW 6449   8.827  14.407  11.768
34851SOL    HW1 6450   8.800  14.361  11.848
34851SOL    HW2 6451   8.770  14.484  11.763
34852SOL     OW 6452  12.271  10.691  10.316
34852SOL    HW1 6453  12.282  10.636  10.238
34852SOL    HW2 6454  12.190  10.660  10.356
34853SOL     OW 6455   3.043   1.675  14.414
34853SOL    HW1 6456   3.132   1.640  14.411
34853SOL    HW2 6457   3.012   1.653  14.503
34854SOL     OW 6458  13.828   7.243  13.812
34854SOL    HW1 6459  13.922   7.237  13.829
34854SOL    HW2 6460  13.803   7.156  13.781
34855SOL     OW 6461   5.098  10.389   8.002
34855SOL    HW1 6462   5.073  10.307   8.045
34855SOL    HW2 6463   5.093  10.370   7.909
34856SOL     OW 6464   9.624  14.078   4.861
34856SOL    HW1 6465   9.633  14.172   4.879
34856SOL    HW2 6466   9.543  14.071   4.811
34857SOL     OW 6467  14.809  11.086   4.956
34857SOL    HW1 6468  14.877  11.085   4.889
34857SOL    HW2 6469  14.743  11.146   4.922
34858SOL     OW 6470  11.998   6.496  13.732
34858SOL    HW1 6471  11.941   6.421  13.751
34858SOL    HW2 6472  11.995   6.504  13.637
34859SOL     OW 6473   7.951   1.934   3.593
34859SOL    HW1 6474   8.011   1.897   3.657
34859SOL    HW2 6475   7.877   1.965   3.645
34860SOL     OW 6476   9.408   0.790   1.648
34860SOL    HW1 6477   9.500   0.814   1.656
34860SOL    HW2 6478   9.376   0.842   1.575
34861SOL     OW 6479  10.477   3.809   2.709
34861SOL    HW1 6480  10.551   3.790   2.651
34861SOL    HW2 6481  10.400   3.777   2.661
34862SOL     OW 6482   1.668   1.434  11.664
34862SOL    HW1 6483   1.629   1.449  11.750
34862SOL    HW2 6484   1.679   1.521  11.626
34863SOL     OW 6485   5.852  11.704   8.375
34863SOL    HW1 6486   5.820  11.631   8.428
34863SOL    HW2 6487   5.775  11.738   8.331
34864SOL     OW 6488   4.824   7.427   5.699
34864SOL    HW1 6489   4.747   7.444   5.644
34864SOL    HW2 6490   4.790   7.378   5.774
34865SOL     OW 6491   7.899   9.678   9.521
34865SOL    HW1 6492   7.962   9.704   9.588
34865SOL    HW2 6493   7.816   9.715   9.551
34866SOL     OW 6494  12.815   9.591   4.867
34866SOL    HW1 6495  12.858   9.649   4.804
34866SOL    HW2 6496  12.881   9.525   4.887
34867SOL     OW 6497   4.740   5.047   9.187
34867SOL    HW1 6498   4.653   5.018   9.161
34867SOL    HW2 6499   4.792   4.967   9.192
34868SOL     OW 6500  14.402   2.527  14.719
34868SOL    HW1 6501  14.327   2.499  14.771
34868SOL    HW2 6502  14.384   2.619  14.700
34869SOL     OW 6503   3.809  14.061  14.215
34869SOL    HW1 6504   3.727  14.030  14.177
34869SOL    HW2 6505   3.856  13.982  14.240
34870SOL     OW 6506   4.636   6.474  14.340
34870SOL    HW1 6507   4.667   6.518  14.418
34870SOL    HW2 6508   4.558   6.523  14.314
34871SOL     OW 6509  10.182   4.680   6.018
34871SOL    HW1 6510  10.092   4.648   6.028
34871SOL    HW2 6511  10.190   4.701   5.925
34872SOL     OW 6512   6.391   1.147  12.903
34872SOL    HW1 6513   6.481   1.127  12.931
34872SOL    HW2 6514   6.368   1.075  12.844
34873SOL     OW 6515   8.221   2.730   2.980
34873SOL    HW1 6516   8.128   2.750   2.990
34873SOL    HW2 6517   8.224   2.643   2.941
34874SOL     OW 6518   3.103  11.584   5.783
34874SOL    HW1 6519   3.195  11.581   5.808
34874SOL    HW2 6520   3.069  11.665   5.822
34875SOL     OW 6521   9.655   7.909   6.909
34875SOL    HW1 6522   9.628   7.926   6.819
34875SOL    HW2 6523   9.655   7.814   6.917
34876SOL     OW 6524   1.859  13.660  11.165
34876SOL    HW1 6525   1.887  13.584  11.216
34876SOL    HW2 6526   1.772  13.635  11.132
34877SOL     OW 6527  12.285  13.928   1.439
34877SOL    HW1 6528  12.235  13.850   1.463
34877SOL    HW2 6529  12.359  13.894   1.388
34878SOL     OW 6530   2.748   1.515  10.708
34878SOL    HW1 6531   2.748   1.468  10.624
34878SOL    HW2 6532   2.762   1.606  10.684
34879SOL     OW 6533   9.611   3.919   5.088
34879SOL    HW1 6534   9.681   3.984   5.080
34879SOL    HW2 6535   9.531   3.971   5.087
34880SOL     OW 6536  14.182   6.644   9.037
34880SOL    HW1 6537  14.145   6.708   9.098
34880SOL    HW2 6538  14.199   6.694   8.957
34881SOL     OW 6539   4.781   0.280   3.860
34881SOL    HW1 6540   4.813   0.259   3.948
34881SOL    HW2 6541   4.714   0.214   3.843
34882SOL     OW 6542  10.997   8.193   1.590
34882SOL    HW1 6543  10.924   8.143   1.628
34882SOL    HW2 6544  11.058   8.126   1.559
34883SOL     OW 6545  13.790   6.358   6.663
34883SOL    HW1 6546  13.797   6.449   6.633
34883SOL    HW2 6547  13.777   6.307   6.583
34884SOL     OW 6548  12.505   6.888   1.142
34884SOL    HW1 6549  12.417   6.869   1.108
34884SOL    HW2 6550  12.530   6.970   1.101
34885SOL     OW 6551   2.208   8.787   6.771
34885SOL    HW1 6552   2.239   8.801   6.861
34885SOL    HW2 6553   2.185   8.694   6.768
34886SOL     OW 6554   4.092  12.906  13.891
34886SOL    HW1 6555   4.069  12.918  13.983
34886SOL    HW2 6556   4.012  12.925  13.843
34887SOL     OW 6557   4.318   9.717   3.801
34887SOL    HW1 6558   4.370   9.637   3.798
34887SOL    HW2 6559   4.237   9.695   3.754
34888SOL     OW 6560  10.256  11.029   2.823
34888SOL    HW1 6561  10.296  10.944   2.839
34888SOL    HW2 6562  10.298  11.062   2.743
34889SOL     OW 6563   6.700   5.410  14.134
34889SOL    HW1 6564   6.735   5.489  14.176
34889SOL    HW2 6565   6.628   5.383  14.190
34890SOL     OW 6566   7.987  10.147   2.492
34890SOL    HW1 6567   7.893  10.132   2.488
34890SOL    HW2 6568   7.996  10.243   2.492
34891SOL     OW 6569   3.230   4.086   0.675
34891SOL    HW1 6570   3.317   4.049   0.659
34891SOL    HW2 6571   3.248   4.178   0.698
34892SOL     OW 6572   0.082  11.930   4.751
34892SOL    HW1 6573   0.132  11.929   4.669
34892SOL    HW2 6574   0.063  11.838   4.769
34893SOL     OW 6575  10.717   2.542   5.125
34893SOL    HW1 6576  10.703   2.598   5.049
34893SOL    HW2 6577  10.654   2.471   5.115
34894SOL     OW 6578   1.735   1.187   0.017
34894SOL    HW1 6579   1.813   1.242   0.018
34894SOL    HW2 6580   1.756   1.117  14.832
34895SOL     OW 6581   3.111   8.586   3.333
34895SOL    HW1 6582   3.111   8.493   3.310
34895SOL    HW2 6583   3.045   8.593   3.402
34896SOL     OW 6584  13.633   9.664  11.162
34896SOL    HW1 6585  13.620   9.586  11.108
34896SOL    HW2 6586  13.721   9.653  11.199
34897SOL     OW 6587  14.801   6.675   5.292
34897SOL    HW1 6588  14.820   6.734   5.365
34897SOL    HW2 6589  14.877   6.682   5.235
34898SOL     OW 6590   1.420  13.300   6.173
34898SOL    HW1 6591   1.428  13.205   6.169
34898SOL    HW2 6592   1.434  13.329   6.083
34899SOL     OW 6593   6.204   3.427   3.048
34899SOL    HW1 6594   6.260   3.400   3.121
34899SOL    HW2 6595   6.137   3.359   3.043
34900SOL     OW 6596   6.536   6.667  14.197
34900SOL    HW1 6597   6.486   6.737  14.239
34900SOL    HW2 6598   6.595   6.714  14.137
34901SOL     OW 6599   3.073   5.809   9.793
34901SOL    HW1 6600   3.042   5.826   9.704
34901SOL    HW2 6601   3.167   5.827   9.789
34902SOL     OW 6602   7.568   2.001   1.855
34902SOL    HW1 6603   7.500   1.947   1.816
34902SOL    HW2 6604   7.644   1.944   1.861
34903SOL     OW 6605   9.495   9.552   3.615
34903SOL    HW1 6606   9.492   9.550   3.711
34903SOL    HW2 6607   9.563   9.489   3.592
34904SOL     OW 6608  12.117   0.175   5.090
34904SOL    HW1 6609  12.134   0.264   5.119
34904SOL    HW2 6610  12.191   0.152   5.034
34905SOL     OW 6611  13.785   3.593  12.135
34905SOL    HW1 6612  13.705   3.544  12.119
34905SOL    HW2 6613  13.854   3.538  12.097
34906SOL     OW 6614  13.450   4.706   0.462
34906SOL    HW1 6615  13.448   4.648   0.386
34906SOL    HW2 6616  13.407   4.786   0.432
34907SOL     OW 6617   8.026   6.345  12.574
34907SOL    HW1 6618   8.037   6.432  12.536
34907SOL    HW2 6619   8.044   6.285  12.501
34908SOL     OW 6620   1.254   0.422   4.887
34908SOL    HW1 6621   1.196   0.351   4.861
34908SOL    HW2 6622   1.201   0.476   4.945
34909SOL     OW 6623   1.087   0.119   6.128
34909SOL    HW1 6624   1.112   0.187   6.190
34909SOL    HW2 6625   1.038   0.055   6.179
34910SOL     OW 6626  10.232   1.943   1.607
34910SOL    HW1 6627  10.202   1.883   1.675
34910SOL    HW2 6628  10.292   2.002   1.654
34911SOL     OW 6629   2.452  12.972  11.933
34911SOL    HW1 6630   2.495  12.948  11.851
34911SOL    HW2 6631   2.419  13.060  11.917
34912SOL     OW 6632   7.926   4.151   6.125
34912SOL    HW1 6633   7.978   4.109   6.057
34912SOL    HW2 6634   7.960   4.240   6.131
34913SOL     OW 6635  11.017  14.508   1.031
34913SOL    HW1 6636  10.957  14.575   1.063
34913SOL    HW2 6637  10.998  14.431   1.085
34914SOL     OW 6638   4.880  14.280   0.452
34914SOL    HW1 6639   4.803  14.317   0.495
34914SOL    HW2 6640   4.858  14.278   0.359
34915SOL     OW 6641  14.655   6.907   9.383
34915SOL    HW1 6642  14.706   6.958   9.446
34915SOL    HW2 6643  14.578   6.961   9.365
34916SOL     OW 6644   7.781   6.762   1.786
34916SOL    HW1 6645   7.789   6.670   1.762
34916SOL    HW2 6646   7.851   6.805   1.736
34917SOL     OW 6647   8.394   1.417   7.148
34917SOL    HW1 6648   8.483   1.386   7.162
34917SOL    HW2 6649   8.346   1.338   7.121
34918SOL     OW 6650   7.639  11.898   2.646
34918SOL    HW1 6651   7.558  11.918   2.599
34918SOL    HW2 6652   7.614  11.829   2.707
34919SOL     OW 6653   6.087  12.370   9.576
34919SOL    HW1 6654   6.006  12.327   9.605
34919SOL    HW2 6655   6.140  12.376   9.656
34920SOL     OW 6656   8.884   2.211   8.281
34920SOL    HW1 6657   8.823   2.280   8.255
34920SOL    HW2 6658   8.873   2.204   8.376
34921SOL     OW 6659  12.907   6.561   5.162
34921SOL    HW1 6660  12.863   6.488   5.118
34921SOL    HW2 6661  12.927   6.622   5.091
34922SOL     OW 6662   5.553   0.494   4.312
34922SOL    HW1 6663   5.539   0.587   4.295
34922SOL    HW2 6664   5.469   0.463   4.344
34923SOL     OW 6665   5.502  12.232   6.778
34923SOL    HW1 6666   5.558  12.291   6.829
34923SOL    HW2 6667   5.461  12.175   6.843
34924SOL     OW 6668   1.264   9.254   3.523
34924SOL    HW1 6669   1.353   9.221   3.526
34924SOL    HW2 6670   1.272   9.347   3.542
34925SOL     OW 6671  13.564   0.259   5.533
34925SOL    HW1 6672  13.618   0.329   5.497
34925SOL    HW2 6673  13.558   0.280   5.627
34926SOL     OW 6674  10.424  12.915   1.441
34926SOL    HW1 6675  10.424  12.862   1.522
34926SOL    HW2 6676  10.373  12.864   1.379
34927SOL     OW 6677   4.335  14.439   7.494
34927SOL    HW1 6678   4.305  14.450   7.404
34927SOL    HW2 6679   4.265  14.476   7.548
34928SOL     OW 6680   1.085  10.442   8.941
34928SOL    HW1 6681   1.020  10.462   8.875
34928SOL    HW2 6682   1.061  10.496   9.016
34929SOL     OW 6683   2.602   4.056  13.050
34929SOL    HW1 6684   2.578   4.149  13.057
34929SOL    HW2 6685   2.683   4.049  13.101
34930SOL     OW 6686  10.960   6.168  13.932
34930SOL    HW1 6687  10.869   6.185  13.957
34930SOL    HW2 6688  10.987   6.248  13.886
34931SOL     OW 6689  11.210  11.599  11.459
34931SOL    HW1 6690  11.172  11.512  11.467
34931SOL    HW2 6691  11.276  11.589  11.390
34932SOL     OW 6692  11.361   9.451   8.705
34932SOL    HW1 6693  11.341   9.363   8.734
34932SOL    HW2 6694  11.279   9.484   8.667
34933SOL     OW 6695   9.946  11.139  12.279
34933SOL    HW1 6696   9.974  11.230  12.276
34933SOL    HW2 6697  10.017  11.090  12.238
34934SOL     OW 6698   6.335   2.214   9.317
34934SOL    HW1 6699   6.351   2.120   9.316
34934SOL    HW2 6700   6.318   2.236   9.226
34935SOL     OW 6701  13.497  12.976   5.485
34935SOL    HW1 6702  13.531  12.952   5.571
34935SOL    HW2 6703  13.452  12.898   5.454
34936SOL     OW 6704   4.293   4.643   3.263
34936SOL    HW1 6705   4.352   4.707   3.223
34936SOL    HW2 6706   4.212   4.693   3.278
34937SOL     OW 6707   7.951  12.944   9.558
34937SOL    HW1 6708   7.929  12.937   9.465
34937SOL    HW2 6709   8.042  12.915   9.564
34938SOL     OW 6710  13.715  12.205   4.057
34938SOL    HW1 6711  13.677  12.138   3.999
34938SOL    HW2 6712  13.755  12.155   4.128
34939SOL     OW 6713   5.756  10.282   7.735
34939SOL    HW1 6714   5.840  10.270   7.690
34939SOL    HW2 6715   5.758  10.218   7.806
34940SOL     OW 6716   0.612   4.116   6.801
34940SOL    HW1 6717   0.579   4.122   6.711
34940SOL    HW2 6718   0.702   4.084   6.791
34941SOL     OW 6719   0.762   1.458   7.949
34941SOL    HW1 6720   0.733   1.430   8.035
34941SOL    HW2 6721   0.741   1.552   7.945
34942SOL     OW 6722  14.823  11.246   4.229
34942SOL    HW1 6723  14.850  11.165   4.271
34942SOL    HW2 6724   0.006  11.256   4.155
34943SOL     OW 6725   9.575  13.480   1.736
34943SOL    HW1 6726   9.599  13.556   1.682
34943SOL    HW2 6727   9.635  13.411   1.708
34944SOL     OW 6728   1.390   5.907  10.756
34944SOL    HW1 6729   1.416   5.888  10.846
34944SOL    HW2 6730   1.428   5.993  10.738
34945SOL     OW 6731  13.447  11.419   7.542
34945SOL    HW1 6732  13.493  11.486   7.493
34945SOL    HW2 6733  13.358  11.453   7.552
34946SOL     OW 6734  14.452  11.444  11.442
34946SOL    HW1 6735  14.409  11.529  11.437
34946SOL    HW2 6736  14.448  11.421  11.535
34947SOL     OW 6737  13.741  11.019   4.849
34947SOL    HW1 6738  13.704  10.955   4.788
34947SOL    HW2 6739  13.834  10.996   4.854
34948SOL     OW 6740   8.617  11.320   9.830
34948SOL    HW1 6741   8.527  11.292   9.814
34948SOL    HW2 6742   8.653  11.334   9.742
34949SOL     OW 6743   2.229   7.025  13.736
34949SOL    HW1 6744   2.135   7.041  13.748
34949SOL    HW2 6745   2.271   7.109  13.754
34950SOL     OW 6746  10.767   2.081   1.247
34950SOL    HW1 6747  10.695   2.126   1.290
34950SOL    HW2 6748  10.801   2.144   1.184
34951SOL     OW 6749   7.001   1.223   6.854
34951SOL    HW1 6750   7.076   1.210   6.912
34951SOL    HW2 6751   7.013   1.310   6.818
34952SOL     OW 6752  12.425   1.256  10.540
34952SOL    HW1 6753  12.355   1.301  10.493
34952SOL    HW2 6754  12.384   1.226  10.621
34953SOL     OW 6755   4.073   0.253   1.237
34953SOL    HW1 6756   4.009   0.232   1.170
34953SOL    HW2 6757   4.104   0.167   1.268
34954SOL     OW 6758   6.045   2.130  11.803
34954SOL    HW1 6759   6.054   2.040  11.833
34954SOL    HW2 6760   6.097   2.182  11.865
34955SOL     OW 6761   3.528  14.519   7.076
34955SOL    HW1 6762   3.580  14.594   7.105
34955SOL    HW2 6763   3.531  14.524   6.981
34956SOL     OW 6764   2.385   8.806   3.897
34956SOL    HW1 6765   2.329   8.883   3.886
34956SOL    HW2 6766   2.407   8.804   3.990
34957SOL     OW 6767   2.339  12.327   0.848
34957SOL    HW1 6768   2.366  12.289   0.764
34957SOL    HW2 6769   2.321  12.419   0.828
34958SOL     OW 6770   2.810  13.443   7.400
34958SOL    HW1 6771   2.798  13.524   7.449
34958SOL    HW2 6772   2.750  13.449   7.327
34959SOL     OW 6773   9.610   8.479  14.336
34959SOL    HW1 6774   9.677   8.412  14.326
34959SOL    HW2 6775   9.597   8.485  14.431
34960SOL     OW 6776   1.654   7.339  14.627
34960SOL    HW1 6777   1.737   7.309  14.664
34960SOL    HW2 6778   1.618   7.263  14.582
34961SOL     OW 6779  11.475  10.227   5.526
34961SOL    HW1 6780  11.468  10.266   5.613
34961SOL    HW2 6781  11.446  10.296   5.466
34962SOL     OW 6782   0.110  13.070   9.366
34962SOL    HW1 6783   0.109  13.050   9.272
34962SOL    HW2 6784   0.201  13.096   9.384
34963SOL     OW 6785   6.951   6.854   5.570
34963SOL    HW1 6786   6.898   6.895   5.501
34963SOL    HW2 6787   6.943   6.912   5.645
34964SOL     OW 6788  14.145   7.484   3.433
34964SOL    HW1 6789  14.212   7.486   3.502
34964SOL    HW2 6790  14.148   7.571   3.393
34965SOL     OW 6791   0.064  11.767   3.695
34965SOL    HW1 6792   0.110  11.735   3.617
34965SOL    HW2 6793   0.092  11.708   3.765
34966SOL     OW 6794  14.156  11.469   2.228
34966SOL    HW1 6795  14.061  11.459   2.224
34966SOL    HW2 6796  14.183  11.416   2.303
34967SOL     OW 6797   2.584   4.609   7.102
34967SOL    HW1 6798   2.668   4.567   7.122
34967SOL    HW2 6799   2.518   4.546   7.130
34968SOL     OW 6800   3.039  12.654   4.216
34968SOL    HW1 6801   2.985  12.693   4.285
34968SOL    HW2 6802   3.018  12.561   4.219
34969SOL     OW 6803  13.388  11.972   2.561
34969SOL    HW1 6804  13.467  11.993   2.512
34969SOL    HW2 6805  13.412  11.987   2.653
34970SOL     OW 6806   1.292   7.344   6.808
34970SOL    HW1 6807   1.217   7.389   6.847
34970SOL    HW2 6808   1.257   7.300   6.731
34971SOL     OW 6809   2.104  13.020   2.826
34971SOL    HW1 6810   2.097  13.014   2.730
34971SOL    HW2 6811   2.167  12.951   2.849
34972SOL     OW 6812  14.513  11.328  11.788
34972SOL    HW1 6813  14.539  11.281  11.868
34972SOL    HW2 6814  14.491  11.416  11.819
34973SOL     OW 6815  14.624   5.159   5.213
34973SOL    HW1 6816  14.668   5.242   5.194
34973SOL    HW2 6817  14.691   5.107   5.258
34974SOL     OW 6818  14.054   1.174   8.371
34974SOL    HW1 6819  14.070   1.231   8.296
34974SOL    HW2 6820  14.004   1.228   8.433
34975SOL     OW 6821  13.928   6.597   5.460
34975SOL    HW1 6822  13.859   6.552   5.509
34975SOL    HW2 6823  13.999   6.606   5.523
34976SOL     OW 6824   1.269   6.858   6.124
34976SOL    HW1 6825   1.330   6.786   6.108
34976SOL    HW2 6826   1.277   6.876   6.218
34977SOL     OW 6827   4.901   5.008  10.090
34977SOL    HW1 6828   4.948   5.062  10.027
34977SOL    HW2 6829   4.810   5.014  10.063
34978SOL     OW 6830   6.349   0.584   4.082
34978SOL    HW1 6831   6.392   0.635   4.013
34978SOL    HW2 6832   6.395   0.500   4.081
34979SOL     OW 6833   6.787   1.836   0.711
34979SOL    HW1 6834   6.828   1.843   0.625
34979SOL    HW2 6835   6.817   1.915   0.757
34980SOL     OW 6836   7.285  11.186  13.202
34980SOL    HW1 6837   7.261  11.101  13.238
34980SOL    HW2 6838   7.343  11.166  13.129
34981SOL     OW 6839   2.162   4.567   2.959
34981SOL    HW1 6840   2.135   4.597   2.873
34981SOL    HW2 6841   2.156   4.471   2.954
34982SOL     OW 6842   6.465   0.755  10.194
34982SOL    HW1 6843   6.398   0.806  10.149
34982SOL    HW2 6844   6.487   0.684  10.133
34983SOL     OW 6845   9.286   0.108   5.104
34983SOL    HW1 6846   9.231   0.030   5.099
34983SOL    HW2 6847   9.375   0.074   5.117
34984SOL     OW 6848   9.985   1.499   0.787
34984SOL    HW1 6849  10.034   1.464   0.861
34984SOL    HW2 6850  10.007   1.592   0.785
34985SOL     OW 6851  13.638   8.103   0.614
34985SOL    HW1 6852  13.706   8.164   0.587
34985SOL    HW2 6853  13.677   8.053   0.686
34986SOL     OW 6854  14.389  11.111   2.826
34986SOL    HW1 6855  14.338  11.147   2.899
34986SOL    HW2 6856  14.449  11.182   2.803
34987SOL     OW 6857   3.294   8.949   2.939
34987SOL    HW1 6858   3.354   9.019   2.965
34987SOL    HW2 6859   3.336   8.911   2.861
34988SOL     OW 6860   9.466  14.593  11.080
34988SOL    HW1 6861   9.410  14.669  11.061
34988SOL    HW2 6862   9.412  14.518  11.057
34989SOL     OW 6863   9.240   4.249  11.776
34989SOL    HW1 6864   9.204   4.181  11.834
34989SOL    HW2 6865   9.227   4.214  11.688
34990SOL     OW 6866   7.921  10.138   1.772
34990SOL    HW1 6867   7.912  10.136   1.677
34990SOL    HW2 6868   7.928  10.046   1.798
34991SOL     OW 6869   0.781   7.549   8.829
34991SOL    HW1 6870   0.737   7.539   8.913
34991SOL    HW2 6871   0.873   7.527   8.847
34992SOL     OW 6872  10.465  13.186   6.486
34992SOL    HW1 6873  10.487  13.102   6.526
34992SOL    HW2 6874  10.371  13.195   6.500
34993SOL     OW 6875  12.189  13.219   8.129
34993SOL    HW1 6876  12.281  13.231   8.105
34993SOL    HW2 6877  12.190  13.150   8.195
34994SOL     OW 6878  12.663  12.916   5.955
34994SOL    HW1 6879  12.755  12.919   5.927
34994SOL    HW2 6880  12.643  13.006   5.982
34995SOL     OW 6881   7.251  14.615  11.639
34995SOL    HW1 6882   7.327  14.593  11.693
34995SOL    HW2 6883   7.215  14.530  11.614
34996SOL     OW 6884   5.934   7.805  13.173
34996SOL    HW1 6885   5.914   7.720  13.133
34996SOL    HW2 6886   6.021   7.793  13.212
34997SOL     OW 6887   4.848   7.810   8.041
34997SOL    HW1 6888   4.786   7.852   7.982
34997SOL    HW2 6889   4.899   7.751   7.985
34998SOL     OW 6890   3.208   7.471   0.900
34998SOL    HW1 6891   3.151   7.526   0.845
34998SOL    HW2 6892   3.289   7.521   0.908
34999SOL     OW 6893  13.051   2.809  12.097
34999SOL    HW1 6894  13.119   2.786  12.033
34999SOL    HW2 6895  13.098   2.826  12.178
35000SOL     OW 6896  10.368   0.310  10.972
35000SOL    HW1 6897  10.281   0.319  10.932
35000SOL    HW2 6898  10.412   0.392  10.951
35001SOL     OW 6899  10.227   3.604   8.059
35001SOL    HW1 6900  10.172   3.657   8.001
35001SOL    HW2 6901  10.225   3.651   8.143
35002SOL     OW 6902   9.432   7.611  10.030
35002SOL    HW1 6903   9.443   7.552   9.956
35002SOL    HW2 6904   9.337   7.624  10.036
35003SOL     OW 6905   7.758   3.137   2.221
35003SOL    HW1 6906   7.750   3.073   2.151
35003SOL    HW2 6907   7.760   3.085   2.301
35004SOL     OW 6908  12.864   5.104   7.551
35004SOL    HW1 6909  12.831   5.080   7.638
35004SOL    HW2 6910  12.832   5.034   7.493
35005SOL     OW 6911   4.711   0.853   5.279
35005SOL    HW1 6912   4.744   0.927   5.228
35005SOL    HW2 6913   4.675   0.793   5.214
35006SOL     OW 6914   2.253  11.385   3.163
35006SOL    HW1 6915   2.325  11.326   3.184
35006SOL    HW2 6916   2.275  11.422   3.078
35007SOL     OW 6917   1.065   1.881   7.532
35007SOL    HW1 6918   1.069   1.877   7.628
35007SOL    HW2 6919   1.140   1.828   7.503
35008SOL     OW 6920  13.361   0.843   0.692
35008SOL    HW1 6921  13.345   0.829   0.599
35008SOL    HW2 6922  13.439   0.791   0.711
35009SOL     OW 6923   2.974   1.863   7.790
35009SOL    HW1 6924   2.954   1.909   7.871
35009SOL    HW2 6925   3.053   1.813   7.809
35010SOL     OW 6926   6.001   4.939   0.933
35010SOL    HW1 6927   6.021   4.953   1.025
35010SOL    HW2 6928   5.908   4.961   0.924
35011SOL     OW 6929   1.074   4.139   0.775
35011SOL    HW1 6930   1.119   4.076   0.719
35011SOL    HW2 6931   1.078   4.221   0.726
35012SOL     OW 6932   0.778   3.550   1.600
35012SOL    HW1 6933   0.688   3.520   1.610
35012SOL    HW2 6934   0.831   3.472   1.614
35013SOL     OW 6935   1.543  13.636   6.706
35013SOL    HW1 6936   1.455  13.628   6.670
35013SOL    HW2 6937   1.583  13.551   6.692
35014SOL     OW 6938  12.027   5.164  14.684
35014SOL    HW1 6939  12.018   5.198  14.595
35014SOL    HW2 6940  12.121   5.153  14.697
35015SOL     OW 6941   2.453  12.551   3.804
35015SOL    HW1 6942   2.452  12.602   3.885
35015SOL    HW2 6943   2.361  12.546   3.779
35016SOL     OW 6944   2.402  10.272  10.360
35016SOL    HW1 6945   2.490  10.236  10.348
35016SOL    HW2 6946   2.404  10.312  10.447
35017SOL     OW 6947  13.655   5.422   5.513
35017SOL    HW1 6948  13.697   5.499   5.473
35017SOL    HW2 6949  13.726   5.375   5.555
35018SOL     OW 6950   1.242   3.674   7.556
35018SOL    HW1 6951   1.290   3.756   7.555
35018SOL    HW2 6952   1.150   3.699   7.549
35019SOL     OW 6953   4.041   8.859   1.952
35019SOL    HW1 6954   4.012   8.828   2.038
35019SOL    HW2 6955   3.991   8.939   1.938
35020SOL     OW 6956   7.063   4.056  10.585
35020SOL    HW1 6957   7.092   4.144  10.558
35020SOL    HW2 6958   7.119   3.997  10.535
35021SOL     OW 6959   9.302  14.632   1.844
35021SOL    HW1 6960   9.291  14.637   1.939
35021SOL    HW2 6961   9.296  14.539   1.823
35022SOL     OW 6962  14.354  12.336   2.232
35022SOL    HW1 6963  14.284  12.276   2.256
35022SOL    HW2 6964  14.369  12.388   2.310
35023SOL     OW 6965   6.182   9.087  14.328
35023SOL    HW1 6966   6.120   9.071  14.256
35023SOL    HW2 6967   6.202   9.000  14.362
35024SOL     OW 6968  13.386  10.422  10.168
35024SOL    HW1 6969  13.439  10.490  10.126
35024SOL    HW2 6970  13.309  10.469  10.200
35025SOL     OW 6971   6.301  13.040   7.569
35025SOL    HW1 6972   6.308  13.077   7.481
35025SOL    HW2 6973   6.385  13.059   7.610
35026SOL     OW 6974   8.458  12.309   3.418
35026SOL    HW1 6975   8.416  12.374   3.474
35026SOL    HW2 6976   8.400  12.301   3.342
35027SOL     OW 6977   3.590   3.166  11.147
35027SOL    HW1 6978   3.542   3.110  11.209
35027SOL    HW2 6979   3.678   3.174  11.185
35028SOL     OW 6980  11.516  10.901   0.833
35028SOL    HW1 6981  11.451  10.879   0.900
35028SOL    HW2 6982  11.468  10.899   0.751
35029SOL     OW 6983   0.934  13.387   2.610
35029SOL    HW1 6984   1.007  13.364   2.668
35029SOL    HW2 6985   0.916  13.307   2.561
35030SOL     OW 6986   3.836   3.490  12.507
35030SOL    HW1 6987   3.804   3.572  12.468
35030SOL    HW2 6988   3.905   3.518  12.567
35031SOL     OW 6989   0.410   7.665  13.350
35031SOL    HW1 6990   0.427   7.688  13.258
35031SOL    HW2 6991   0.371   7.743  13.388
35032SOL     OW 6992   8.029   4.335   9.240
35032SOL    HW1 6993   7.986   4.360   9.158
35032SOL    HW2 6994   7.957   4.318   9.301
35033SOL     OW 6995   7.898   2.118   2.772
35033SOL    HW1 6996   7.981   2.083   2.803
35033SOL    HW2 6997   7.853   2.042   2.733
35034SOL     OW 6998   7.497   2.925   0.305
35034SOL    HW1 6999   7.554   2.908   0.230
35034SOL    HW2 7000   7.556   2.922   0.381
35035SOL     OW 7001   7.987   2.071   1.471
35035SOL    HW1 7002   7.979   1.991   1.522
35035SOL    HW2 7003   8.058   2.053   1.409
35036SOL     OW 7004   6.423  12.214   9.098
35036SOL    HW1 7005   6.446  12.252   9.014
35036SOL    HW2 7006   6.339  12.254   9.121
35037SOL     OW 7007   1.935   8.448  13.943
35037SOL    HW1 7008   1.921   8.356  13.965
35037SOL    HW2 7009   1.928   8.494  14.027
35038SOL     OW 7010   9.234   5.155   0.945
35038SOL    HW1 7011   9.154   5.190   0.984
35038SOL    HW2 7012   9.226   5.174   0.852
35039SOL     OW 7013  13.241  11.492   9.608
35039SOL    HW1 7014  13.183  11.521   9.678
35039SOL    HW2 7015  13.182  11.453   9.543
35040SOL     OW 7016   2.441   3.129  11.059
35040SOL    HW1 7017   2.406   3.163  10.976
35040SOL    HW2 7018   2.387   3.053  11.078
35041SOL     OW 7019   6.071  13.378   0.104
35041SOL    HW1 7020   6.147  13.389   0.162
35041SOL    HW2 7021   6.102  13.408   0.018
35042SOL     OW 7022   8.956   1.492   3.132
35042SOL    HW1 7023   8.939   1.566   3.073
35042SOL    HW2 7024   8.905   1.420   3.095
35043SOL     OW 7025  14.362   9.414  11.511
35043SOL    HW1 7026  14.408   9.340  11.551
35043SOL    HW2 7027  14.381   9.407  11.418
35044SOL     OW 7028  13.765   2.868   3.924
35044SOL    HW1 7029  13.724   2.898   4.005
35044SOL    HW2 7030  13.812   2.789   3.949
35045SOL     OW 7031   4.017   2.994   7.973
35045SOL    HW1 7032   4.009   3.058   7.903
35045SOL    HW2 7033   4.071   2.923   7.936
35046SOL     OW 7034  10.079  11.996   4.849
35046SOL    HW1 7035  10.136  11.979   4.924
35046SOL    HW2 7036  10.079  11.914   4.800
35047SOL     OW 7037  13.090   0.443   4.614
35047SOL    HW1 7038  13.157   0.511   4.617
35047SOL    HW2 7039  13.007   0.491   4.608
35048SOL     OW 7040   9.085  10.424  10.384
35048SOL    HW1 7041   9.056  10.406  10.474
35048SOL    HW2 7042   9.035  10.501  10.357
35049SOL     OW 7043   2.752   6.435   3.879
35049SOL    HW1 7044   2.686   6.383   3.925
35049SOL    HW2 7045   2.829   6.432   3.936
35050SOL     OW 7046  11.762  14.288  13.770
35050SOL    HW1 7047  11.676  14.283  13.726
35050SOL    HW2 7048  11.809  14.211  13.736
35051SOL     OW 7049   7.709  12.646   5.728
35051SOL    HW1 7050   7.655  12.585   5.679
35051SOL    HW2 7051   7.712  12.609   5.817
35052SOL     OW 7052   3.022   7.181  10.046
35052SOL    HW1 7053   2.934   7.220  10.038
35052SOL    HW2 7054   3.068   7.210   9.968
35053SOL     OW 7055   3.080   2.016   4.963
35053SOL    HW1 7056   3.113   2.019   5.053
35053SOL    HW2 7057   3.026   1.937   4.960
35054SOL     OW 7058   6.435   1.514  13.328
35054SOL    HW1 7059   6.384   1.576  13.275
35054SOL    HW2 7060   6.525   1.528  13.300
35055SOL     OW 7061  12.117   6.944   7.687
35055SOL    HW1 7062  12.201   6.926   7.731
35055SOL    HW2 7063  12.095   7.033   7.715
35056SOL     OW 7064  11.028   3.438  14.768
35056SOL    HW1 7065  10.979   3.483  14.699
35056SOL    HW2 7066  11.088   3.379  14.720
35057SOL     OW 7067   4.232   6.462   1.537
35057SOL    HW1 7068   4.242   6.383   1.483
35057SOL    HW2 7069   4.205   6.530   1.475
35058SOL     OW 7070   0.896   4.034  12.910
35058SOL    HW1 7071   0.920   4.082  12.989
35058SOL    HW2 7072   0.916   4.094  12.838
35059SOL     OW 7073   9.230   8.674  12.513
35059SOL    HW1 7074   9.206   8.708  12.600
35059SOL    HW2 7075   9.213   8.580  12.518
35060SOL     OW 7076  12.263   1.165   1.041
35060SOL    HW1 7077  12.173   1.150   1.014
35060SOL    HW2 7078  12.255   1.198   1.131
35061SOL     OW 7079   6.549  14.550   7.166
35061SOL    HW1 7080   6.508  14.613   7.225
35061SOL    HW2 7081   6.525  14.579   7.078
35062SOL     OW 7082   4.858   2.374   2.937
35062SOL    HW1 7083   4.771   2.406   2.913
35062SOL    HW2 7084   4.858   2.283   2.910
35063SOL     OW 7085   1.198  14.848   5.337
35063SOL    HW1 7086   1.150   0.018   5.270
35063SOL    HW2 7087   1.183   0.021   5.417
35064SOL     OW 7088   3.174   1.604   5.983
35064SOL    HW1 7089   3.088   1.642   5.997
35064SOL    HW2 7090   3.235   1.678   5.993
35065SOL     OW 7091   6.078   3.004  12.554
35065SOL    HW1 7092   6.005   2.943  12.540
35065SOL    HW2 7093   6.070   3.030  12.646
35066SOL     OW 7094  11.537   5.788   9.977
35066SOL    HW1 7095  11.576   5.706   9.948
35066SOL    HW2 7096  11.444   5.780   9.957
35067SOL     OW 7097  13.642   1.535   8.083
35067SOL    HW1 7098  13.705   1.472   8.118
35067SOL    HW2 7099  13.566   1.483   8.057
35068SOL     OW 7100   0.414  11.297   1.275
35068SOL    HW1 7101   0.494  11.344   1.296
35068SOL    HW2 7102   0.411  11.296   1.179
35069SOL     OW 7103   8.678   5.735   2.289
35069SOL    HW1 7104   8.752   5.795   2.276
35069SOL    HW2 7105   8.618   5.783   2.346
35070SOL     OW 7106  12.316  11.366  14.284
35070SOL    HW1 7107  12.263  11.350  14.362
35070SOL    HW2 7108  12.310  11.285  14.234
35071SOL     OW 7109   9.875  14.549  12.687
35071SOL    HW1 7110   9.931  14.610  12.638
35071SOL    HW2 7111   9.793  14.547  12.638
35072SOL     OW 7112   5.008   0.183  14.015
35072SOL    HW1 7113   5.083   0.140  14.058
35072SOL    HW2 7114   4.932   0.155  14.065
35073SOL     OW 7115   6.676   6.373   4.925
35073SOL    HW1 7116   6.679   6.329   4.839
35073SOL    HW2 7117   6.731   6.317   4.981
35074SOL     OW 7118  12.199   7.423   2.081
35074SOL    HW1 7119  12.205   7.494   2.017
35074SOL    HW2 7120  12.239   7.348   2.037
35075SOL     OW 7121   7.193   8.238  13.020
35075SOL    HW1 7122   7.162   8.258  12.931
35075SOL    HW2 7123   7.287   8.225  13.011
35076SOL     OW 7124   8.218   8.202   1.851
35076SOL    HW1 7125   8.278   8.129   1.839
35076SOL    HW2 7126   8.210   8.211   1.946
35077SOL     OW 7127   8.635   7.242   8.723
35077SOL    HW1 7128   8.682   7.162   8.748
35077SOL    HW2 7129   8.607   7.280   8.807
35078SOL     OW 7130  12.012  14.392  14.440
35078SOL    HW1 7131  12.048  14.419  14.355
35078SOL    HW2 7132  12.025  14.468  14.496
35079SOL     OW 7133   2.559  12.894   3.378
35079SOL    HW1 7134   2.637  12.880   3.432
35079SOL    HW2 7135   2.493  12.835   3.414
35080SOL     OW 7136   9.904   0.628   8.277
35080SOL    HW1 7137   9.812   0.604   8.284
35080SOL    HW2 7138   9.913   0.707   8.329
35081SOL     OW 7139  11.430   4.726   7.502
35081SOL    HW1 7140  11.378   4.646   7.492
35081SOL    HW2 7141  11.378   4.781   7.561
35082SOL     OW 7142   9.463  12.344   6.334
35082SOL    HW1 7143   9.488  12.261   6.374
35082SOL    HW2 7144   9.546  12.389   6.318
35083SOL     OW 7145   7.938   4.619  12.222
35083SOL    HW1 7146   7.866   4.567  12.185
35083SOL    HW2 7147   7.983   4.559  12.281
35084SOL     OW 7148  14.332   5.512  13.451
35084SOL    HW1 7149  14.384   5.592  13.446
35084SOL    HW2 7150  14.338   5.485  13.543
35085SOL     OW 7151   3.169   8.606   3.049
35085SOL    HW1 7152   3.209   8.635   3.131
35085SOL    HW2 7153   3.095   8.552   3.077
35086SOL     OW 7154   2.541   4.184   8.217
35086SOL    HW1 7155   2.511   4.177   8.307
35086SOL    HW2 7156   2.475   4.238   8.173
35087SOL     OW 7157  11.956   7.912  14.368
35087SOL    HW1 7158  11.892   7.977  14.399
35087SOL    HW2 7159  12.037   7.961  14.356
35088SOL     OW 7160   3.944   3.096   9.875
35088SOL    HW1 7161   4.015   3.033   9.867
35088SOL    HW2 7162   3.877   3.050   9.926
35089SOL     OW 7163   7.869   1.669   9.345
35089SOL    HW1 7164   7.948   1.619   9.326
35089SOL    HW2 7165   7.879   1.750   9.295
35090SOL     OW 7166   8.127   0.831  11.968
35090SOL    HW1 7167   8.121   0.880  11.885
35090SOL    HW2 7168   8.042   0.787  11.976
35091SOL     OW 7169  12.262   0.723   4.157
35091SOL    HW1 7170  12.290   0.750   4.244
35091SOL    HW2 7171  12.323   0.766   4.097
35092SOL     OW 7172  13.597  12.118   2.147
35092SOL    HW1 7173  13.520  12.099   2.093
35092SOL    HW2 7174  13.642  12.188   2.101
35093SOL     OW 7175  11.254  12.398   2.808
35093SOL    HW1 7176  11.206  12.461   2.753
35093SOL    HW2 7177  11.342  12.436   2.815
35094SOL     OW 7178   7.850   8.903   6.516
35094SOL    HW1 7179   7.904   8.981   6.503
35094SOL    HW2 7180   7.909   8.829   6.500
35095SOL     OW 7181   5.417  12.500   8.038
35095SOL    HW1 7182   5.491  12.506   8.099
35095SOL    HW2 7183   5.414  12.586   7.995
35096SOL     OW 7184   5.832   0.488  13.778
35096SOL    HW1 7185   5.883   0.569  13.778
35096SOL    HW2 7186   5.754   0.509  13.727
35097SOL     OW 7187   2.254  14.002   4.371
35097SOL    HW1 7188   2.335  13.962   4.404
35097SOL    HW2 7189   2.255  13.985   4.277
35098SOL     OW 7190  12.912   4.068  10.648
35098SOL    HW1 7191  12.909   3.977  10.617
35098SOL    HW2 7192  12.889   4.063  10.740
35099SOL     OW 7193   3.897   3.010   7.240
35099SOL    HW1 7194   3.865   2.949   7.306
35099SOL    HW2 7195   3.819   3.049   7.202
35100SOL     OW 7196  13.628   4.581   9.677
35100SOL    HW1 7197  13.655   4.607   9.765
35100SOL    HW2 7198  13.695   4.519   9.648
35101SOL     OW 7199   0.380   4.704   4.729
35101SOL    HW1 7200   0.307   4.656   4.690
35101SOL    HW2 7201   0.449   4.639   4.740
35102SOL     OW 7202  11.847  14.828   9.026
35102SOL    HW1 7203  11.791  14.802   8.953
35102SOL    HW2 7204  11.807  14.788   9.103
35103SOL     OW 7205   3.959   8.111   8.258
35103SOL    HW1 7206   3.964   8.135   8.165
35103SOL    HW2 7207   4.019   8.172   8.301
35104SOL     OW 7208  11.246   1.732   1.041
35104SOL    HW1 7209  11.187   1.668   1.001
35104SOL    HW2 7210  11.333   1.710   1.008
35105SOL     OW 7211  12.449  10.360  11.390
35105SOL    HW1 7212  12.380  10.408  11.344
35105SOL    HW2 7213  12.408  10.329  11.471
35106SOL     OW 7214   1.757  13.891   8.152
35106SOL    HW1 7215   1.784  13.925   8.067
35106SOL    HW2 7216   1.835  13.846   8.185
35107SOL     OW 7217   0.613   3.543  10.683
35107SOL    HW1 7218   0.553   3.473  10.708
35107SOL    HW2 7219   0.700   3.503  10.689
35108SOL     OW 7220   9.825   2.223  10.374
35108SOL    HW1 7221   9.875   2.192  10.299
35108SOL    HW2 7222   9.752   2.162  10.381
35109SOL     OW 7223  14.234   5.077   7.948
35109SOL    HW1 7224  14.202   5.164   7.972
35109SOL    HW2 7225  14.271   5.042   8.028
35110SOL     OW 7226   1.341   4.337  11.316
35110SOL    HW1 7227   1.341   4.265  11.253
35110SOL    HW2 7228   1.429   4.375  11.308
35111SOL     OW 7229   0.092   1.451   6.682
35111SOL    HW1 7230   0.179   1.413   6.677
35111SOL    HW2 7231   0.040   1.387   6.731
35112SOL     OW 7232   0.723   7.348  12.119
35112SOL    HW1 7233   0.717   7.345  12.023
35112SOL    HW2 7234   0.644   7.303  12.149
35113SOL     OW 7235   5.909  14.665  13.989
35113SOL    HW1 7236   5.848  14.727  13.949
35113SOL    HW2 7237   5.993  14.682  13.945
35114SOL     OW 7238   2.088   7.762   9.812
35114SOL    HW1 7239   2.006   7.775   9.766
35114SOL    HW2 7240   2.136   7.698   9.758
35115SOL     OW 7241   4.863   8.659   5.264
35115SOL    HW1 7242   4.839   8.620   5.348
35115SOL    HW2 7243   4.780   8.669   5.218
35116SOL     OW 7244   9.606   7.694  11.033
35116SOL    HW1 7245   9.687   7.684  10.983
35116SOL    HW2 7246   9.572   7.606  11.044
35117SOL     OW 7247  13.188   9.177   5.809
35117SOL    HW1 7248  13.248   9.249   5.825
35117SOL    HW2 7249  13.239   9.098   5.831
35118SOL     OW 7250  13.995   1.961   9.391
35118SOL    HW1 7251  14.070   1.918   9.431
35118SOL    HW2 7252  14.033   2.035   9.343
35119SOL     OW 7253   4.015   3.931  10.472
35119SOL    HW1 7254   4.023   3.992  10.398
35119SOL    HW2 7255   4.073   3.968  10.539
35120SOL     OW 7256  11.579   0.711  12.865
35120SOL    HW1 7257  11.615   0.656  12.935
35120SOL    HW2 7258  11.548   0.649  12.799
35121SOL     OW 7259  12.515   1.985   3.520
35121SOL    HW1 7260  12.529   2.078   3.501
35121SOL    HW2 7261  12.441   1.983   3.581
35122SOL     OW 7262   0.863  11.933  10.093
35122SOL    HW1 7263   0.891  11.911  10.005
35122SOL    HW2 7264   0.839  11.849  10.132
35123SOL     OW 7265   7.204   9.775   4.514
35123SOL    HW1 7266   7.127   9.740   4.470
35123SOL    HW2 7267   7.240   9.701   4.562
35124SOL     OW 7268   9.595   2.200   3.561
35124SOL    HW1 7269   9.624   2.218   3.471
35124SOL    HW2 7270   9.613   2.107   3.575
35125SOL     OW 7271   8.989   2.696   6.527
35125SOL    HW1 7272   9.033   2.767   6.574
35125SOL    HW2 7273   8.896   2.717   6.536
35126SOL     OW 7274  12.457   1.494   2.918
35126SOL    HW1 7275  12.511   1.497   2.997
35126SOL    HW2 7276  12.504   1.548   2.854
35127SOL     OW 7277  13.281  14.396  12.689
35127SOL    HW1 7278  13.317  14.438  12.767
35127SOL    HW2 7279  13.339  14.322  12.672
35128SOL     OW 7280   7.931   5.251   9.291
35128SOL    HW1 7281   7.884   5.169   9.307
35128SOL    HW2 7282   7.899   5.311   9.358
35129SOL     OW 7283  10.414  12.171   0.037
35129SOL    HW1 7284  10.490  12.122   0.069
35129SOL    HW2 7285  10.414  12.251   0.090
35130SOL     OW 7286   6.503  14.479   7.498
35130SOL    HW1 7287   6.540  14.426   7.427
35130SOL    HW2 7288   6.452  14.546   7.454
35131SOL     OW 7289   3.249   9.741   0.684
35131SOL    HW1 7290   3.323   9.725   0.742
35131SOL    HW2 7291   3.268   9.826   0.644
35132SOL     OW 7292   3.631   9.737   8.292
35132SOL    HW1 7293   3.675   9.688   8.361
35132SOL    HW2 7294   3.699   9.752   8.227
35133SOL     OW 7295   4.382   6.232   5.380
35133SOL    HW1 7296   4.411   6.159   5.435
35133SOL    HW2 7297   4.371   6.305   5.441
35134SOL     OW 7298  13.886  11.148  13.850
35134SOL    HW1 7299  13.894  11.187  13.937
35134SOL    HW2 7300  13.865  11.056  13.866
35135SOL     OW 7301  13.318   1.437  10.168
35135SOL    HW1 7302  13.356   1.416  10.253
35135SOL    HW2 7303  13.262   1.513  10.184
35136SOL     OW 7304   4.625  10.197   7.912
35136SOL    HW1 7305   4.632  10.288   7.940
35136SOL    HW2 7306   4.546  10.165   7.954
35137SOL     OW 7307   4.850   7.459   3.641
35137SOL    HW1 7308   4.895   7.527   3.590
35137SOL    HW2 7309   4.757   7.468   3.617
35138SOL     OW 7310  12.965   3.555   5.448
35138SOL    HW1 7311  12.969   3.594   5.361
35138SOL    HW2 7312  12.963   3.460   5.431
35139SOL     OW 7313   8.919  11.690   0.308
35139SOL    HW1 7314   8.825  11.703   0.319
35139SOL    HW2 7315   8.949  11.655   0.392
35140SOL     OW 7316  12.786  14.481   3.056
35140SOL    HW1 7317  12.781  14.450   3.146
35140SOL    HW2 7318  12.778  14.576   3.063
35141SOL     OW 7319   5.456  14.551   7.371
35141SOL    HW1 7320   5.523  14.484   7.352
35141SOL    HW2 7321   5.378  14.519   7.327
35142SOL     OW 7322   3.329   3.840  12.992
35142SOL    HW1 7323   3.419   3.841  12.958
35142SOL    HW2 7324   3.275   3.859  12.916
35143SOL     OW 7325  14.079   8.052   5.115
35143SOL    HW1 7326  14.042   8.102   5.043
35143SOL    HW2 7327  14.156   8.009   5.077
35144SOL     OW 7328  10.994   9.969   8.435
35144SOL    HW1 7329  11.047  10.048   8.438
35144SOL    HW2 7330  11.056   9.898   8.420
35145SOL     OW 7331   3.806   4.971   0.067
35145SOL    HW1 7332   3.716   4.995   0.045
35145SOL    HW2 7333   3.859   5.021   0.005
35146SOL     OW 7334  12.825   8.535   3.214
35146SOL    HW1 7335  12.761   8.465   3.201
35146SOL    HW2 7336  12.777   8.615   3.193
35147SOL     OW 7337   5.067  12.029   0.123
35147SOL    HW1 7338   5.160  12.041   0.141
35147SOL    HW2 7339   5.032  11.989   0.202
35148SOL     OW 7340   4.751   5.046  11.554
35148SOL    HW1 7341   4.733   5.129  11.510
35148SOL    HW2 7342   4.694   5.046  11.631
35149SOL     OW 7343  10.384  14.700   5.471
35149SOL    HW1 7344  10.393  14.631   5.406
35149SOL    HW2 7345  10.289  14.707   5.486
35150SOL     OW 7346   3.391   2.251  13.854
35150SOL    HW1 7347   3.306   2.213  13.873
35150SOL    HW2 7348   3.372   2.338  13.818
35151SOL     OW 7349   1.650   2.068   8.348
35151SOL    HW1 7350   1.650   1.975   8.328
35151SOL    HW2 7351   1.692   2.109   8.272
35152SOL     OW 7352  10.182   8.672  11.715
35152SOL    HW1 7353  10.137   8.663  11.799
35152SOL    HW2 7354  10.114   8.701  11.654
35153SOL     OW 7355   6.879   1.223  12.318
35153SOL    HW1 7356   6.840   1.219  12.405
35153SOL    HW2 7357   6.951   1.285  12.328
35154SOL     OW 7358  11.832  11.779  14.532
35154SOL    HW1 7359  11.855  11.830  14.454
35154SOL    HW2 7360  11.886  11.816  14.601
35155SOL     OW 7361   2.028  10.368  12.994
35155SOL    HW1 7362   2.060  10.447  13.038
35155SOL    HW2 7363   2.104  10.333  12.948
35156SOL     OW 7364   4.611   4.278   2.982
35156SOL    HW1 7365   4.633   4.203   3.038
35156SOL    HW2 7366   4.607   4.353   3.042
35157SOL     OW 7367   8.673   7.980  11.316
35157SOL    HW1 7368   8.662   7.980  11.221
35157SOL    HW2 7369   8.694   7.890  11.338
35158SOL     OW 7370   0.125  12.342   9.898
35158SOL    HW1 7371   0.045  12.312   9.854
35158SOL    HW2 7372   0.139  12.277   9.967
35159SOL     OW 7373   1.089  12.828  10.204
35159SOL    HW1 7374   1.099  12.741  10.168
35159SOL    HW2 7375   1.013  12.865  10.159
35160SOL     OW 7376  11.179  11.137  10.706
35160SOL    HW1 7377  11.136  11.202  10.762
35160SOL    HW2 7378  11.133  11.142  10.622
35161SOL     OW 7379   2.115   8.078   2.064
35161SOL    HW1 7380   2.083   8.163   2.035
35161SOL    HW2 7381   2.208   8.078   2.041
35162SOL     OW 7382   7.764   2.855   6.347
35162SOL    HW1 7383   7.768   2.859   6.443
35162SOL    HW2 7384   7.812   2.775   6.325
35163SOL     OW 7385   1.751   5.399  10.501
35163SOL    HW1 7386   1.700   5.318  10.502
35163SOL    HW2 7387   1.838   5.372  10.474
35164SOL     OW 7388   6.862  10.779   2.942
35164SOL    HW1 7389   6.854  10.875   2.944
35164SOL    HW2 7390   6.774  10.748   2.966
35165SOL     OW 7391   4.937   1.895  12.657
35165SOL    HW1 7392   4.885   1.897  12.577
35165SOL    HW2 7393   5.005   1.961  12.643
35166SOL     OW 7394   4.908  12.625   2.381
35166SOL    HW1 7395   4.890  12.531   2.369
35166SOL    HW2 7396   4.869  12.647   2.465
35167SOL     OW 7397   6.243  10.183   7.560
35167SOL    HW1 7398   6.313  10.129   7.525
35167SOL    HW2 7399   6.195  10.213   7.483
35168SOL     OW 7400  12.770   8.664   6.356
35168SOL    HW1 7401  12.761   8.569   6.355
35168SOL    HW2 7402  12.855   8.679   6.398
35169SOL     OW 7403   5.600  12.880   8.873
35169SOL    HW1 7404   5.562  12.926   8.948
35169SOL    HW2 7405   5.684  12.848   8.906
35170SOL     OW 7406   1.411  12.630   0.055
35170SOL    HW1 7407   1.334  12.617   0.000
35170SOL    HW2 7408   1.392  12.582   0.136
35171SOL     OW 7409   7.985   2.585   1.670
35171SOL    HW1 7410   8.046   2.601   1.742
35171SOL    HW2 7411   7.969   2.491   1.672
35172SOL     OW 7412   0.818  11.708   9.391
35172SOL    HW1 7413   0.888  11.645   9.373
35172SOL    HW2 7414   0.743  11.655   9.416
35173SOL     OW 7415   9.168   9.187   8.019
35173SOL    HW1 7416   9.248   9.193   8.072
35173SOL    HW2 7417   9.101   9.228   8.073
35174SOL     OW 7418   7.804   6.933   6.785
35174SOL    HW1 7419   7.809   6.938   6.880
35174SOL    HW2 7420   7.890   6.965   6.755
35175SOL     OW 7421   7.164   1.476  14.067
35175SOL    HW1 7422   7.222   1.527  14.010
35175SOL    HW2 7423   7.148   1.395  14.018
35176SOL     OW 7424   5.773   9.752  14.101
35176SOL    HW1 7425   5.760   9.685  14.034
35176SOL    HW2 7426   5.849   9.722  14.151
35177SOL     OW 7427   7.973   3.804  13.679
35177SOL    HW1 7428   7.988   3.897  13.699
35177SOL    HW2 7429   7.892   3.783  13.726
35178SOL     OW 7430   9.676  11.040   4.534
35178SOL    HW1 7431   9.720  10.959   4.511
35178SOL    HW2 7432   9.746  11.096   4.570
35179SOL     OW 7433  10.042  13.353  13.950
35179SOL    HW1 7434  10.125  13.322  13.985
35179SOL    HW2 7435   9.988  13.369  14.028
35180SOL     OW 7436  10.189  10.583   4.185
35180SOL    HW1 7437  10.274  10.564   4.226
35180SOL    HW2 7438  10.186  10.679   4.180
35181SOL     OW 7439  10.419   5.319  12.513
35181SOL    HW1 7440  10.469   5.391  12.552
35181SOL    HW2 7441  10.400   5.347  12.424
35182SOL     OW 7442   6.696   7.748  11.734
35182SOL    HW1 7443   6.648   7.815  11.783
35182SOL    HW2 7444   6.783   7.747  11.773
35183SOL     OW 7445  10.558   1.257   8.195
35183SOL    HW1 7446  10.650   1.254   8.168
35183SOL    HW2 7447  10.530   1.346   8.174
35184SOL     OW 7448  11.579   2.378   9.766
35184SOL    HW1 7449  11.621   2.296   9.793
35184SOL    HW2 7450  11.521   2.352   9.694
35185SOL     OW 7451   5.056   5.918   3.654
35185SOL    HW1 7452   5.126   5.966   3.696
35185SOL    HW2 7453   5.009   5.983   3.601
35186SOL     OW 7454   2.689  12.079   1.635
35186SOL    HW1 7455   2.638  12.063   1.556
35186SOL    HW2 7456   2.760  12.015   1.631
35187SOL     OW 7457   6.057  14.726   8.887
35187SOL    HW1 7458   6.117  14.667   8.842
35187SOL    HW2 7459   6.039  14.684   8.971
35188SOL     OW 7460   2.040  11.658   8.225
35188SOL    HW1 7461   2.000  11.646   8.312
35188SOL    HW2 7462   2.134  11.652   8.241
35189SOL     OW 7463   8.734  14.688   9.513
35189SOL    HW1 7464   8.655  14.702   9.460
35189SOL    HW2 7465   8.753  14.774   9.550
35190SOL     OW 7466  13.448  11.755   1.679
35190SOL    HW1 7467  13.468  11.750   1.586
35190SOL    HW2 7468  13.380  11.823   1.685
35191SOL     OW 7469   0.078  12.177  13.731
35191SOL    HW1 7470   0.094  12.271  13.728
35191SOL    HW2 7471   0.157  12.140  13.770
35192SOL     OW 7472  11.592   3.108   1.233
35192SOL    HW1 7473  11.542   3.033   1.200
35192SOL    HW2 7474  11.663   3.118   1.169
35193SOL     OW 7475  14.156   6.353  10.422
35193SOL    HW1 7476  14.245   6.388  10.416
35193SOL    HW2 7477  14.153   6.314  10.510
35194SOL     OW 7478   6.138   0.750   2.560
35194SOL    HW1 7479   6.046   0.762   2.584
35194SOL    HW2 7480   6.161   0.664   2.595
35195SOL     OW 7481   4.595  14.453   3.380
35195SOL    HW1 7482   4.578  14.415   3.294
35195SOL    HW2 7483   4.561  14.388   3.441
35196SOL     OW 7484   4.408   2.068  10.377
35196SOL    HW1 7485   4.457   2.091  10.457
35196SOL    HW2 7486   4.470   2.015  10.326
35197SOL     OW 7487   6.202   2.801   7.478
35197SOL    HW1 7488   6.195   2.752   7.396
35197SOL    HW2 7489   6.147   2.878   7.464
35198SOL     OW 7490   5.527   1.090   3.929
35198SOL    HW1 7491   5.615   1.080   3.893
35198SOL    HW2 7492   5.488   1.003   3.924
35199SOL     OW 7493   2.514   7.483  13.923
35199SOL    HW1 7494   2.556   7.403  13.891
35199SOL    HW2 7495   2.448   7.453  13.985
35200SOL     OW 7496   8.543  13.365   2.026
35200SOL    HW1 7497   8.555  13.427   1.954
35200SOL    HW2 7498   8.574  13.411   2.104
35201SOL     OW 7499   3.635   6.285   9.008
35201SOL    HW1 7500   3.542   6.271   9.026
35201SOL    HW2 7501   3.662   6.205   8.962
35202SOL     OW 7502  14.557   2.826   2.183
35202SOL    HW1 7503  14.521   2.740   2.205
35202SOL    HW2 7504  14.485   2.872   2.141
35203SOL     OW 7505   1.398   5.657  11.375
35203SOL    HW1 7506   1.308   5.663  11.405
35203SOL    HW2 7507   1.393   5.607  11.293
35204SOL     OW 7508  11.186  14.126   7.828
35204SOL    HW1 7509  11.274  14.090   7.821
35204SOL    HW2 7510  11.129  14.049   7.820
35205SOL     OW 7511   1.372   4.253   8.388
35205SOL    HW1 7512   1.370   4.175   8.444
35205SOL    HW2 7513   1.284   4.257   8.351
35206SOL     OW 7514  13.319  14.490  10.417
35206SOL    HW1 7515  13.385  14.423  10.437
35206SOL    HW2 7516  13.368  14.572  10.415
35207SOL     OW 7517   5.927   7.845  14.683
35207SOL    HW1 7518   5.964   7.919  14.731
35207SOL    HW2 7519   5.844   7.878  14.648
35208SOL     OW 7520   4.716  12.246   2.253
35208SOL    HW1 7521   4.751  12.258   2.165
35208SOL    HW2 7522   4.624  12.273   2.246
35209SOL     OW 7523   5.235   9.123   9.992
35209SOL    HW1 7524   5.274   9.155   9.911
35209SOL    HW2 7525   5.291   9.158  10.061
35210SOL     OW 7526   8.287  13.050  13.830
35210SOL    HW1 7527   8.286  13.093  13.916
35210SOL    HW2 7528   8.237  13.109  13.773
35211SOL     OW 7529   7.154   8.008   2.765
35211SOL    HW1 7530   7.160   8.097   2.730
35211SOL    HW2 7531   7.197   8.012   2.850
35212SOL     OW 7532  14.175  12.446   9.682
35212SOL    HW1 7533  14.148  12.359   9.713
35212SOL    HW2 7534  14.244  12.429   9.618
35213SOL     OW 7535  12.078   7.262   4.944
35213SOL    HW1 7536  12.067   7.236   4.852
35213SOL    HW2 7537  12.144   7.203   4.979
35214SOL     OW 7538   9.049   9.072   2.635
35214SOL    HW1 7539   8.979   9.134   2.656
35214SOL    HW2 7540   9.055   9.074   2.540
35215SOL     OW 7541  12.733   9.434   0.221
35215SOL    HW1 7542  12.667   9.373   0.256
35215SOL    HW2 7543  12.744   9.407   0.130
35216SOL     OW 7544  12.588   8.421   6.566
35216SOL    HW1 7545  12.639   8.406   6.487
35216SOL    HW2 7546  12.654   8.436   6.634
35217SOL     OW 7547  14.718   9.846  10.191
35217SOL    HW1 7548  14.686   9.851  10.281
35217SOL    HW2 7549  14.660   9.783  10.148
35218SOL     OW 7550  12.618  11.704   3.067
35218SOL    HW1 7551  12.542  11.705   3.126
35218SOL    HW2 7552  12.581  11.692   2.980
35219SOL     OW 7553  11.175   3.205   9.919
35219SOL    HW1 7554  11.119   3.235   9.847
35219SOL    HW2 7555  11.264   3.208   9.884
35220SOL     OW 7556  11.642   7.624   4.475
35220SOL    HW1 7557  11.678   7.672   4.550
35220SOL    HW2 7558  11.619   7.692   4.411
35221SOL     OW 7559   4.673  11.128   6.904
35221SOL    HW1 7560   4.696  11.085   6.821
35221SOL    HW2 7561   4.631  11.060   6.956
35222SOL     OW 7562  10.042  14.071   0.555
35222SOL    HW1 7563  10.079  14.093   0.641
35222SOL    HW2 7564  10.055  14.149   0.502
35223SOL     OW 7565   0.280   6.458  12.032
35223SOL    HW1 7566   0.188   6.459  12.007
35223SOL    HW2 7567   0.315   6.541  12.000
35224SOL     OW 7568  13.793  12.715  10.160
35224SOL    HW1 7569  13.886  12.727  10.141
35224SOL    HW2 7570  13.779  12.759  10.243
35225SOL     OW 7571   3.899   9.762   6.636
35225SOL    HW1 7572   3.982   9.780   6.681
35225SOL    HW2 7573   3.833   9.776   6.704
35226SOL     OW 7574   5.283  11.891  14.830
35226SOL    HW1 7575   5.301  11.964   0.012
35226SOL    HW2 7576   5.237  11.930  14.756
35227SOL     OW 7577   5.820   5.467  10.207
35227SOL    HW1 7578   5.756   5.536  10.188
35227SOL    HW2 7579   5.898   5.492  10.157
35228SOL     OW 7580   5.432   6.857   7.332
35228SOL    HW1 7581   5.468   6.770   7.344
35228SOL    HW2 7582   5.363   6.864   7.398
35229SOL     OW 7583  11.940  10.274  12.434
35229SOL    HW1 7584  11.873  10.212  12.464
35229SOL    HW2 7585  11.893  10.333  12.375
35230SOL     OW 7586  10.663   2.193  13.047
35230SOL    HW1 7587  10.580   2.222  13.085
35230SOL    HW2 7588  10.664   2.229  12.959
35231SOL     OW 7589   2.015   5.629  12.562
35231SOL    HW1 7590   2.053   5.710  12.529
35231SOL    HW2 7591   1.981   5.585  12.484
35232SOL     OW 7592   0.688  14.423  10.688
35232SOL    HW1 7593   0.752  14.363  10.651
35232SOL    HW2 7594   0.711  14.430  10.781
35233SOL     OW 7595  12.735  14.777   1.745
35233SOL    HW1 7596  12.687  14.696   1.730
35233SOL    HW2 7597  12.771  14.800   1.659
35234SOL     OW 7598  11.901  11.494   7.670
35234SOL    HW1 7599  11.901  11.418   7.729
35234SOL    HW2 7600  11.911  11.456   7.583
35235SOL     OW 7601   3.539  11.804   1.109
35235SOL    HW1 7602   3.496  11.759   1.182
35235SOL    HW2 7603   3.578  11.881   1.149
35236SOL     OW 7604   6.502   5.205   4.163
35236SOL    HW1 7605   6.415   5.226   4.131
35236SOL    HW2 7606   6.550   5.179   4.084
35237SOL     OW 7607   0.374   2.392   4.586
35237SOL    HW1 7608   0.312   2.324   4.559
35237SOL    HW2 7609   0.426   2.351   4.655
35238SOL     OW 7610   0.751   7.150   9.962
35238SOL    HW1 7611   0.665   7.162  10.004
35238SOL    HW2 7612   0.730   7.122   9.873
35239SOL     OW 7613   4.222   7.912   8.746
35239SOL    HW1 7614   4.307   7.874   8.725
35239SOL    HW2 7615   4.229   7.939   8.837
35240SOL     OW 7616   5.120   3.640   7.915
35240SOL    HW1 7617   5.068   3.686   7.849
35240SOL    HW2 7618   5.065   3.566   7.942
35241SOL     OW 7619  12.141   8.476   3.970
35241SOL    HW1 7620  12.064   8.422   3.990
35241SOL    HW2 7621  12.215   8.415   3.974
35242SOL     OW 7622   7.871   1.741   7.683
35242SOL    HW1 7623   7.776   1.745   7.694
35242SOL    HW2 7624   7.906   1.751   7.771
35243SOL     OW 7625   6.308   2.211   0.255
35243SOL    HW1 7626   6.373   2.272   0.219
35243SOL    HW2 7627   6.329   2.127   0.216
35244SOL     OW 7628   6.639   7.008  13.258
35244SOL    HW1 7629   6.718   6.954  13.255
35244SOL    HW2 7630   6.667   7.092  13.221
35245SOL     OW 7631  11.011  11.608  11.841
35245SOL    HW1 7632  11.070  11.601  11.766
35245SOL    HW2 7633  11.037  11.690  11.883
35246SOL     OW 7634  10.440   9.568   0.725
35246SOL    HW1 7635  10.407   9.488   0.683
35246SOL    HW2 7636  10.475   9.619   0.652
35247SOL     OW 7637   3.115  10.871   5.189
35247SOL    HW1 7638   3.086  10.957   5.158
35247SOL    HW2 7639   3.203  10.885   5.222
35248SOL     OW 7640   1.371   9.835  10.378
35248SOL    HW1 7641   1.365   9.906  10.442
35248SOL    HW2 7642   1.427   9.869  10.309
35249SOL     OW 7643   5.434   5.581  13.863
35249SOL    HW1 7644   5.453   5.519  13.933
35249SOL    HW2 7645   5.392   5.655  13.907
35250SOL     OW 7646  13.934   3.262   4.223
35250SOL    HW1 7647  14.027   3.284   4.225
35250SOL    HW2 7648  13.889   3.346   4.213
35251SOL     OW 7649  10.270   6.306   1.385
35251SOL    HW1 7650  10.255   6.366   1.458
35251SOL    HW2 7651  10.341   6.345   1.335
35252SOL     OW 7652   1.062   9.246  12.968
35252SOL    HW1 7653   0.978   9.205  12.990
35252SOL    HW2 7654   1.042   9.305  12.896
35253SOL     OW 7655   7.751  11.011   0.566
35253SOL    HW1 7656   7.801  10.947   0.617
35253SOL    HW2 7657   7.666  11.015   0.609
35254SOL     OW 7658   5.025  10.339   8.624
35254SOL    HW1 7659   5.007  10.282   8.698
35254SOL    HW2 7660   4.950  10.329   8.566
35255SOL     OW 7661   0.814  12.564   5.017
35255SOL    HW1 7662   0.836  12.554   4.924
35255SOL    HW2 7663   0.760  12.643   5.020
35256SOL     OW 7664   2.051   2.350  13.295
35256SOL    HW1 7665   2.141   2.318  13.286
35256SOL    HW2 7666   2.061   2.440  13.328
35257SOL     OW 7667   1.322   8.052   7.539
35257SOL    HW1 7668   1.286   8.013   7.460
35257SOL    HW2 7669   1.290   8.142   7.539
35258SOL     OW 7670   9.244   8.371   7.715
35258SOL    HW1 7671   9.159   8.394   7.753
35258SOL    HW2 7672   9.264   8.284   7.749
35259SOL     OW 7673  10.669  12.089  13.658
35259SOL    HW1 7674  10.591  12.102  13.606
35259SOL    HW2 7675  10.714  12.173  13.656
35260SOL     OW 7676   7.048   6.340   7.525
35260SOL    HW1 7677   7.061   6.348   7.620
35260SOL    HW2 7678   6.977   6.276   7.516
35261SOL     OW 7679   0.765   1.393   5.561
35261SOL    HW1 7680   0.854   1.415   5.534
35261SOL    HW2 7681   0.776   1.338   5.638
35262SOL     OW 7682   7.537   7.154  12.090
35262SOL    HW1 7683   7.574   7.066  12.082
35262SOL    HW2 7684   7.557   7.180  12.180
35263SOL     OW 7685   6.439  12.337  13.959
35263SOL    HW1 7686   6.401  12.307  13.876
35263SOL    HW2 7687   6.471  12.426  13.940
35264SOL     OW 7688   6.291  11.203   8.000
35264SOL    HW1 7689   6.214  11.203   7.942
35264SOL    HW2 7690   6.358  11.156   7.950
35265SOL     OW 7691  10.384   5.944   2.340
35265SOL    HW1 7692  10.423   5.857   2.339
35265SOL    HW2 7693  10.291   5.928   2.354
35266SOL     OW 7694  14.614  12.888   6.309
35266SOL    HW1 7695  14.684  12.857   6.366
35266SOL    HW2 7696  14.612  12.824   6.238
35267SOL     OW 7697   8.251  12.761  13.775
35267SOL    HW1 7698   8.249  12.848  13.816
35267SOL    HW2 7699   8.313  12.771  13.703
35268SOL     OW 7700   6.152   7.705  11.277
35268SOL    HW1 7701   6.118   7.728  11.191
35268SOL    HW2 7702   6.244   7.731  11.274
35269SOL     OW 7703   5.607  12.143   5.873
35269SOL    HW1 7704   5.683  12.086   5.878
35269SOL    HW2 7705   5.593  12.172   5.963
35270SOL     OW 7706  14.159   6.216   2.780
35270SOL    HW1 7707  14.121   6.219   2.868
35270SOL    HW2 7708  14.173   6.123   2.762
35271SOL     OW 7709   7.310  13.085  13.235
35271SOL    HW1 7710   7.393  13.110  13.275
35271SOL    HW2 7711   7.314  12.990  13.226
35272SOL     OW 7712   9.216   7.033   7.357
35272SOL    HW1 7713   9.261   6.972   7.297
35272SOL    HW2 7714   9.250   7.011   7.443
35273SOL     OW 7715  10.445   1.157   2.745
35273SOL    HW1 7716  10.417   1.079   2.793
35273SOL    HW2 7717  10.375   1.173   2.682
35274SOL     OW 7718  10.069   6.439  14.498
35274SOL    HW1 7719   9.985   6.457  14.540
35274SOL    HW2 7720  10.134   6.476  14.558
35275SOL     OW 7721   7.851  13.826   8.919
35275SOL    HW1 7722   7.788  13.880   8.872
35275SOL    HW2 7723   7.861  13.870   9.004
35276SOL     OW 7724   3.658   8.461  14.337
35276SOL    HW1 7725   3.563   8.467  14.349
35276SOL    HW2 7726   3.695   8.494  14.419
35277SOL     OW 7727   2.643   0.337  11.678
35277SOL    HW1 7728   2.650   0.423  11.636
35277SOL    HW2 7729   2.550   0.329  11.701
35278SOL     OW 7730   5.330  10.743   2.312
35278SOL    HW1 7731   5.371  10.656   2.321
35278SOL    HW2 7732   5.271  10.733   2.238
35279SOL     OW 7733   4.511   6.250   6.325
35279SOL    HW1 7734   4.467   6.331   6.300
35279SOL    HW2 7735   4.604   6.266   6.306
35280SOL     OW 7736   2.821   8.786   1.291
35280SOL    HW1 7737   2.894   8.772   1.231
35280SOL    HW2 7738   2.743   8.764   1.241
35281SOL     OW 7739   5.760   9.480  12.307
35281SOL    HW1 7740   5.693   9.485  12.375
35281SOL    HW2 7741   5.762   9.387  12.282
35282SOL     OW 7742   3.772  12.092   8.031
35282SOL    HW1 7743   3.856  12.063   7.997
35282SOL    HW2 7744   3.723  12.121   7.954
35283SOL     OW 7745   3.131   0.283   9.346
35283SOL    HW1 7746   3.129   0.350   9.415
35283SOL    HW2 7747   3.061   0.222   9.370
35284SOL     OW 7748   8.253   7.823  12.690
35284SOL    HW1 7749   8.244   7.745  12.745
35284SOL    HW2 7750   8.196   7.807  12.615
35285SOL     OW 7751   9.633   6.839  10.656
35285SOL    HW1 7752   9.617   6.892  10.577
35285SOL    HW2 7753   9.702   6.778  10.629
35286SOL     OW 7754   2.332   2.669   4.937
35286SOL    HW1 7755   2.384   2.727   4.992
35286SOL    HW2 7756   2.394   2.605   4.903
35287SOL     OW 7757   4.485   3.308  10.307
35287SOL    HW1 7758   4.396   3.333  10.282
35287SOL    HW2 7759   4.521   3.387  10.348
35288SOL     OW 7760   1.406   3.096   0.028
35288SOL    HW1 7761   1.388   3.111  14.812
35288SOL    HW2 7762   1.342   3.030   0.054
35289SOL     OW 7763  13.097   5.172  13.495
35289SOL    HW1 7764  13.189   5.185  13.472
35289SOL    HW2 7765  13.055   5.143  13.414
35290SOL     OW 7766   0.306   8.270  11.459
35290SOL    HW1 7767   0.241   8.221  11.509
35290SOL    HW2 7768   0.325   8.214  11.384
35291SOL     OW 7769   7.575   3.760   5.300
35291SOL    HW1 7770   7.667   3.765   5.323
35291SOL    HW2 7771   7.540   3.846   5.324
35292SOL     OW 7772   0.612  13.921   5.115
35292SOL    HW1 7773   0.527  13.899   5.079
35292SOL    HW2 7774   0.610  13.890   5.206
35293SOL     OW 7775   3.783  14.241  13.323
35293SOL    HW1 7776   3.766  14.176  13.391
35293SOL    HW2 7777   3.699  14.250  13.277
35294SOL     OW 7778   8.781   1.047  10.959
35294SOL    HW1 7779   8.847   1.015  11.020
35294SOL    HW2 7780   8.806   1.137  10.940
35295SOL     OW 7781  12.317  13.415   0.778
35295SOL    HW1 7782  12.224  13.420   0.799
35295SOL    HW2 7783  12.324  13.449   0.689
35296SOL     OW 7784  11.834   5.426   3.398
35296SOL    HW1 7785  11.925   5.415   3.425
35296SOL    HW2 7786  11.795   5.479   3.467
35297SOL     OW 7787   3.117   2.262   2.766
35297SOL    HW1 7788   3.061   2.303   2.832
35297SOL    HW2 7789   3.073   2.179   2.747
35298SOL     OW 7790  12.952   1.341  13.223
35298SOL    HW1 7791  13.041   1.357  13.255
35298SOL    HW2 7792  12.916   1.277  13.284
35299SOL     OW 7793   7.721   2.325   4.521
35299SOL    HW1 7794   7.746   2.272   4.597
35299SOL    HW2 7795   7.803   2.337   4.472
35300SOL     OW 7796   2.826   7.246   9.372
35300SOL    HW1 7797   2.840   7.163   9.419
35300SOL    HW2 7798   2.738   7.237   9.334
35301SOL     OW 7799  11.081  10.981   4.235
35301SOL    HW1 7800  11.034  10.937   4.164
35301SOL    HW2 7801  11.152  11.028   4.190
35302SOL     OW 7802   2.527  13.349   4.082
35302SOL    HW1 7803   2.455  13.352   4.145
35302SOL    HW2 7804   2.494  13.396   4.005
35303SOL     OW 7805  12.654  11.085   1.978
35303SOL    HW1 7806  12.659  11.061   2.070
35303SOL    HW2 7807  12.597  11.162   1.975
35304SOL     OW 7808  14.630   9.119  13.301
35304SOL    HW1 7809  14.634   9.159  13.214
35304SOL    HW2 7810  14.629   9.025  13.284
35305SOL     OW 7811   8.861   3.561   6.369
35305SOL    HW1 7812   8.792   3.502   6.338
35305SOL    HW2 7813   8.829   3.590   6.455
35306SOL     OW 7814  13.819  10.062   8.159
35306SOL    HW1 7815  13.753  10.083   8.093
35306SOL    HW2 7816  13.902  10.082   8.116
35307SOL     OW 7817   8.275   2.707   5.883
35307SOL    HW1 7818   8.332   2.773   5.844
35307SOL    HW2 7819   8.295   2.627   5.834
35308SOL     OW 7820   8.879  13.564  12.281
35308SOL    HW1 7821   8.849  13.486  12.235
35308SOL    HW2 7822   8.929  13.530  12.356
35309SOL     OW 7823   7.413  14.154   1.427
35309SOL    HW1 7824   7.367  14.074   1.453
35309SOL    HW2 7825   7.345  14.221   1.425
35310SOL     OW 7826   8.622  11.580   9.408
35310SOL    HW1 7827   8.564  11.616   9.341
35310SOL    HW2 7828   8.564  11.532   9.467
35311SOL     OW 7829   1.760   0.068   3.059
35311SOL    HW1 7830   1.820   0.106   3.123
35311SOL    HW2 7831   1.672   0.084   3.095
35312SOL     OW 7832   1.541   3.427   3.430
35312SOL    HW1 7833   1.498   3.468   3.355
35312SOL    HW2 7834   1.574   3.343   3.395
35313SOL     OW 7835   4.416   0.201   8.763
35313SOL    HW1 7836   4.333   0.216   8.718
35313SOL    HW2 7837   4.441   0.112   8.738
35314SOL     OW 7838   0.942  12.283  13.190
35314SOL    HW1 7839   0.855  12.314  13.214
35314SOL    HW2 7840   1.000  12.317  13.258
35315SOL     OW 7841  13.169  10.658  12.633
35315SOL    HW1 7842  13.229  10.583  12.625
35315SOL    HW2 7843  13.083  10.622  12.610
35316SOL     OW 7844  12.758  14.141   0.707
35316SOL    HW1 7845  12.745  14.048   0.690
35316SOL    HW2 7846  12.758  14.182   0.621
35317SOL     OW 7847   2.489   0.589   9.509
35317SOL    HW1 7848   2.418   0.606   9.571
35317SOL    HW2 7849   2.475   0.498   9.482
35318SOL     OW 7850   5.023  14.761   5.467
35318SOL    HW1 7851   4.943  14.809   5.448
35318SOL    HW2 7852   5.027  14.755   5.562
35319SOL     OW 7853  14.794   0.864  12.328
35319SOL    HW1 7854  14.757   0.922  12.394
35319SOL    HW2 7855  14.795   0.778  12.370
35320SOL     OW 7856   6.151  13.208  11.623
35320SOL    HW1 7857   6.142  13.162  11.706
35320SOL    HW2 7858   6.241  13.242  11.625
35321SOL     OW 7859  13.998   9.364   3.953
35321SOL    HW1 7860  14.082   9.408   3.965
35321SOL    HW2 7861  13.976   9.379   3.861
35322SOL     OW 7862  10.493   1.538   6.725
35322SOL    HW1 7863  10.433   1.550   6.650
35322SOL    HW2 7864  10.580   1.546   6.687
35323SOL     OW 7865   0.127   1.327   9.572
35323SOL    HW1 7866   0.196   1.276   9.529
35323SOL    HW2 7867   0.133   1.302   9.664
35324SOL     OW 7868   5.366  10.251   7.350
35324SOL    HW1 7869   5.332  10.338   7.327
35324SOL    HW2 7870   5.292  10.193   7.339
35325SOL     OW 7871   5.975   9.269   0.672
35325SOL    HW1 7872   6.007   9.259   0.582
35325SOL    HW2 7873   6.047   9.311   0.719
35326SOL     OW 7874   2.252   4.407  14.835
35326SOL    HW1 7875   2.190   4.388   0.028
35326SOL    HW2 7876   2.199   4.446  14.766
35327SOL     OW 7877  12.646   2.365   0.560
35327SOL    HW1 7878  12.658   2.360   0.465
35327SOL    HW2 7879  12.713   2.427   0.590
35328SOL     OW 7880   4.184   7.046   2.997
35328SOL    HW1 7881   4.255   7.110   2.994
35328SOL    HW2 7882   4.207   6.987   3.069
35329SOL     OW 7883   6.130   3.515  14.130
35329SOL    HW1 7884   6.180   3.596  14.133
35329SOL    HW2 7885   6.086   3.517  14.046
35330SOL     OW 7886  12.641  14.091  11.399
35330SOL    HW1 7887  12.628  14.032  11.324
35330SOL    HW2 7888  12.724  14.063  11.437
35331SOL     OW 7889  10.039   7.581   0.393
35331SOL    HW1 7890   9.952   7.547   0.373
35331SOL    HW2 7891  10.094   7.503   0.402
35332SOL     OW 7892  14.846  13.910   5.490
35332SOL    HW1 7893  14.784  13.864   5.434
35332SOL    HW2 7894  14.794  13.976   5.536
35333SOL     OW 7895  10.120  11.148   1.725
35333SOL    HW1 7896  10.137  11.194   1.807
35333SOL    HW2 7897  10.083  11.064   1.753
35334SOL     OW 7898   8.156   1.398  13.571
35334SOL    HW1 7899   8.181   1.490  13.567
35334SOL    HW2 7900   8.230   1.351  13.533
35335SOL     OW 7901  10.972  11.740   7.843
35335SOL    HW1 7902  10.977  11.714   7.935
35335SOL    HW2 7903  10.927  11.668   7.800
35336SOL     OW 7904   6.544  13.938   2.864
35336SOL    HW1 7905   6.544  13.952   2.959
35336SOL    HW2 7906   6.473  13.993   2.832
35337SOL     OW 7907  12.940   6.380   2.783
35337SOL    HW1 7908  12.999   6.437   2.733
35337SOL    HW2 7909  12.988   6.360   2.863
35338SOL     OW 7910   9.351  10.335   2.838
35338SOL    HW1 7911   9.256  10.323   2.846
35338SOL    HW2 7912   9.372  10.297   2.752
35339SOL     OW 7913   9.058   5.910   7.466
35339SOL    HW1 7914   8.991   5.842   7.472
35339SOL    HW2 7915   9.092   5.902   7.377
35340SOL     OW 7916  11.870   8.341  12.027
35340SOL    HW1 7917  11.965   8.335  12.018
35340SOL    HW2 7918  11.857   8.401  12.101
35341SOL     OW 7919   0.423   1.856  13.696
35341SOL    HW1 7920   0.477   1.823  13.768
35341SOL    HW2 7921   0.338   1.815  13.709
35342SOL     OW 7922   7.932   2.121   5.616
35342SOL    HW1 7923   7.866   2.053   5.627
35342SOL    HW2 7924   7.884   2.203   5.627
35343SOL     OW 7925   0.633  13.929  10.663
35343SOL    HW1 7926   0.694  13.921  10.590
35343SOL    HW2 7927   0.627  13.841  10.699
35344SOL     OW 7928  12.462  11.991  13.818
35344SOL    HW1 7929  12.460  11.922  13.751
35344SOL    HW2 7930  12.493  12.069  13.773
35345SOL     OW 7931   6.791   2.501   3.074
35345SOL    HW1 7932   6.719   2.521   3.013
35345SOL    HW2 7933   6.758   2.528   3.159
35346SOL     OW 7934   8.986   8.053   8.676
35346SOL    HW1 7935   9.048   8.003   8.623
35346SOL    HW2 7936   9.041   8.109   8.730
35347SOL     OW 7937  14.462   8.815   4.411
35347SOL    HW1 7938  14.368   8.831   4.405
35347SOL    HW2 7939  14.500   8.900   4.432
35348SOL     OW 7940  11.915   2.250   9.347
35348SOL    HW1 7941  11.848   2.190   9.313
35348SOL    HW2 7942  11.997   2.201   9.340
35349SOL     OW 7943   9.711   6.156   3.863
35349SOL    HW1 7944   9.762   6.094   3.811
35349SOL    HW2 7945   9.724   6.128   3.954
35350SOL     OW 7946  10.536  14.866   4.290
35350SOL    HW1 7947  10.545  14.826   4.203
35350SOL    HW2 7948  10.509  14.794   4.347
35351SOL     OW 7949   8.802   6.990   5.379
35351SOL    HW1 7950   8.867   7.054   5.349
35351SOL    HW2 7951   8.816   6.914   5.323
35352SOL     OW 7952  13.454  14.473   2.311
35352SOL    HW1 7953  13.391  14.502   2.245
35352SOL    HW2 7954  13.419  14.390   2.343
35353SOL     OW 7955   4.744   4.331  11.096
35353SOL    HW1 7956   4.832   4.345  11.133
35353SOL    HW2 7957   4.701   4.416  11.106
35354SOL     OW 7958   8.258   4.570  13.713
35354SOL    HW1 7959   8.201   4.635  13.672
35354SOL    HW2 7960   8.207   4.537  13.787
35355SOL     OW 7961  14.547  14.382  14.071
35355SOL    HW1 7962  14.620  14.397  14.011
35355SOL    HW2 7963  14.582  14.324  14.138
35356SOL     OW 7964   9.519  10.285  12.092
35356SOL    HW1 7965   9.571  10.322  12.163
35356SOL    HW2 7966   9.477  10.360  12.051
35357SOL     OW 7967  13.582   1.166   6.692
35357SOL    HW1 7968  13.572   1.193   6.600
35357SOL    HW2 7969  13.514   1.100   6.705
35358SOL     OW 7970   1.996   8.846  12.503
35358SOL    HW1 7971   2.008   8.910  12.573
35358SOL    HW2 7972   2.073   8.855  12.447
35359SOL     OW 7973  13.162  10.051   1.857
35359SOL    HW1 7974  13.214  10.038   1.778
35359SOL    HW2 7975  13.223  10.085   1.922
35360SOL     OW 7976   7.789   9.697   4.257
35360SOL    HW1 7977   7.763   9.760   4.190
35360SOL    HW2 7978   7.884   9.711   4.267
35361SOL     OW 7979   9.592   6.478   9.860
35361SOL    HW1 7980   9.566   6.388   9.882
35361SOL    HW2 7981   9.654   6.502   9.929
35362SOL     OW 7982   0.518   9.850   4.295
35362SOL    HW1 7983   0.529   9.843   4.200
35362SOL    HW2 7984   0.426   9.873   4.307
35363SOL     OW 7985  10.849   4.408   2.520
35363SOL    HW1 7986  10.859   4.341   2.588
35363SOL    HW2 7987  10.778   4.374   2.465
35364SOL     OW 7988   9.191  10.694   4.088
35364SOL    HW1 7989   9.209  10.686   3.994
35364SOL    HW2 7990   9.101  10.726   4.093
35365SOL     OW 7991   4.573  12.481   3.687
35365SOL    HW1 7992   4.649  12.425   3.671
35365SOL    HW2 7993   4.499  12.431   3.652
35366SOL     OW 7994   9.920   3.338   7.436
35366SOL    HW1 7995   9.836   3.324   7.394
35366SOL    HW2 7996   9.899   3.366   7.525
35367SOL     OW 7997  10.723   6.089   5.772
35367SOL    HW1 7998  10.784   6.145   5.724
35367SOL    HW2 7999  10.722   6.124   5.861
35368SOL     OW 8000   4.389   1.207   4.514
35368SOL    HW1 8001   4.378   1.183   4.422
35368SOL    HW2 8002   4.484   1.209   4.527
35369SOL     OW 8003   3.865  12.941  13.124
35369SOL    HW1 8004   3.801  12.960  13.193
35369SOL    HW2 8005   3.900  13.027  13.100
35370SOL     OW 8006   7.458  12.814   5.975
35370SOL    HW1 8007   7.425  12.870   6.045
35370SOL    HW2 8008   7.552  12.832   5.974
35371SOL     OW 8009   0.675   1.336  12.491
35371SOL    HW1 8010   0.760   1.358  12.454
35371SOL    HW2 8011   0.665   1.242  12.476
35372SOL     OW 8012  14.705   1.007   9.342
35372SOL    HW1 8013  14.735   0.998   9.432
35372SOL    HW2 8014  14.649   0.930   9.327
35373SOL     OW 8015   9.375   0.743  13.610
35373SOL    HW1 8016   9.371   0.780  13.699
35373SOL    HW2 8017   9.315   0.669  13.612
35374SOL     OW 8018  13.449   6.828   5.211
35374SOL    HW1 8019  13.456   6.740   5.173
35374SOL    HW2 8020  13.440   6.813   5.305
35375SOL     OW 8021   3.510   3.359  14.437
35375SOL    HW1 8022   3.564   3.436  14.456
35375SOL    HW2 8023   3.486   3.369  14.345
35376SOL     OW 8024   6.593   0.260   3.087
35376SOL    HW1 8025   6.649   0.199   3.135
35376SOL    HW2 8026   6.643   0.280   3.007
35377SOL     OW 8027   7.487   3.865   8.770
35377SOL    HW1 8028   7.559   3.924   8.791
35377SOL    HW2 8029   7.519   3.778   8.794
35378SOL     OW 8030   2.116  14.180   9.858
35378SOL    HW1 8031   2.075  14.155   9.940
35378SOL    HW2 8032   2.043  14.202   9.800
35379SOL     OW 8033  11.359   4.686   2.402
35379SOL    HW1 8034  11.322   4.728   2.325
35379SOL    HW2 8035  11.327   4.596   2.399
35380SOL     OW 8036   0.439   9.430   6.938
35380SOL    HW1 8037   0.447   9.493   7.010
35380SOL    HW2 8038   0.474   9.477   6.862
35381SOL     OW 8039   0.306  10.997   0.625
35381SOL    HW1 8040   0.228  11.011   0.572
35381SOL    HW2 8041   0.350  10.923   0.584
35382SOL     OW 8042   7.684   6.736   2.047
35382SOL    HW1 8043   7.678   6.814   2.102
35382SOL    HW2 8044   7.720   6.766   1.964
35383SOL     OW 8045  14.027   3.966   9.402
35383SOL    HW1 8046  14.029   3.873   9.378
35383SOL    HW2 8047  13.934   3.989   9.402
35384SOL     OW 8048   2.162   0.604  14.313
35384SOL    HW1 8049   2.165   0.620  14.218
35384SOL    HW2 8050   2.081   0.557  14.327
35385SOL     OW 8051   2.016   8.826   6.059
35385SOL    HW1 8052   2.058   8.858   5.979
35385SOL    HW2 8053   2.088   8.786   6.108
35386SOL     OW 8054   5.986   7.209   0.930
35386SOL    HW1 8055   5.908   7.257   0.956
35386SOL    HW2 8056   6.051   7.276   0.909
35387SOL     OW 8057  14.524  11.565   7.345
35387SOL    HW1 8058  14.558  11.648   7.311
35387SOL    HW2 8059  14.500  11.585   7.436
35388SOL     OW 8060   4.930   4.371  11.534
35388SOL    HW1 8061   4.950   4.374  11.628
35388SOL    HW2 8062   4.937   4.279  11.511
35389SOL     OW 8063   3.179   9.459   3.603
35389SOL    HW1 8064   3.110   9.395   3.586
35389SOL    HW2 8065   3.143   9.542   3.575
35390SOL     OW 8066  12.479   7.374   1.350
35390SOL    HW1 8067  12.446   7.319   1.421
35390SOL    HW2 8068  12.522   7.313   1.291
35391SOL     OW 8069   6.001   2.098  10.137
35391SOL    HW1 8070   5.932   2.150  10.179
35391SOL    HW2 8071   6.033   2.041  10.207
35392SOL     OW 8072  11.649   9.748   5.460
35392SOL    HW1 8073  11.708   9.719   5.530
35392SOL    HW2 8074  11.609   9.828   5.494
35393SOL     OW 8075   2.844   6.856   0.935
35393SOL    HW1 8076   2.931   6.895   0.941
35393SOL    HW2 8077   2.845   6.787   1.002
35394SOL     OW 8078   2.786   2.570   0.722
35394SOL    HW1 8079   2.737   2.610   0.650
35394SOL    HW2 8080   2.848   2.637   0.750
35395SOL     OW 8081  14.628  14.598   0.736
35395SOL    HW1 8082  14.718  14.616   0.763
35395SOL    HW2 8083  14.610  14.510   0.769
35396SOL     OW 8084  11.815  14.709   6.951
35396SOL    HW1 8085  11.891  14.767   6.956
35396SOL    HW2 8086  11.836  14.649   6.880
35397SOL     OW 8087   5.784   2.707   3.037
35397SOL    HW1 8088   5.737   2.624   3.042
35397SOL    HW2 8089   5.870   2.684   3.001
35398SOL     OW 8090  14.066   3.693  12.001
35398SOL    HW1 8091  14.077   3.607  12.043
35398SOL    HW2 8092  14.067   3.755  12.073
35399SOL     OW 8093   5.105  14.305   5.806
35399SOL    HW1 8094   5.038  14.241   5.828
35399SOL    HW2 8095   5.133  14.281   5.718
35400SOL     OW 8096  14.431   3.069  12.152
35400SOL    HW1 8097  14.485   3.017  12.091
35400SOL    HW2 8098  14.495   3.117  12.205
35401SOL     OW 8099   7.618   1.398   5.388
35401SOL    HW1 8100   7.526   1.400   5.362
35401SOL    HW2 8101   7.663   1.451   5.323
35402SOL     OW 8102   3.310   7.665  12.282
35402SOL    HW1 8103   3.220   7.697  12.274
35402SOL    HW2 8104   3.360   7.743  12.307
35403SOL     OW 8105   6.351  11.764  12.683
35403SOL    HW1 8106   6.403  11.744  12.605
35403SOL    HW2 8107   6.413  11.800  12.746
35404SOL     OW 8108  13.074  13.184  13.602
35404SOL    HW1 8109  13.015  13.255  13.628
35404SOL    HW2 8110  13.126  13.167  13.680
35405SOL     OW 8111  13.680   5.532  12.247
35405SOL    HW1 8112  13.587   5.538  12.267
35405SOL    HW2 8113  13.717   5.479  12.318
35406SOL     OW 8114   2.049   0.462  10.375
35406SOL    HW1 8115   2.093   0.483  10.293
35406SOL    HW2 8116   2.001   0.543  10.398
35407SOL     OW 8117   0.877  13.139  12.044
35407SOL    HW1 8118   0.871  13.169  11.954
35407SOL    HW2 8119   0.810  13.070  12.050
35408SOL     OW 8120   5.331  11.869   6.632
35408SOL    HW1 8121   5.317  11.870   6.537
35408SOL    HW2 8122   5.247  11.894   6.669
35409SOL     OW 8123  11.080  14.256   5.788
35409SOL    HW1 8124  11.053  14.307   5.865
35409SOL    HW2 8125  11.064  14.315   5.715
35410SOL     OW 8126  12.185  10.003   3.917
35410SOL    HW1 8127  12.177   9.913   3.949
35410SOL    HW2 8128  12.275  10.009   3.885
35411SOL     OW 8129   1.726   1.742  11.179
35411SOL    HW1 8130   1.742   1.815  11.119
35411SOL    HW2 8131   1.653   1.771  11.234
35412SOL     OW 8132  13.400   2.297   1.135
35412SOL    HW1 8133  13.368   2.212   1.166
35412SOL    HW2 8134  13.495   2.287   1.130
35413SOL     OW 8135   0.381   6.773   6.415
35413SOL    HW1 8136   0.461   6.821   6.436
35413SOL    HW2 8137   0.410   6.705   6.354
35414SOL     OW 8138  10.341   3.320   8.070
35414SOL    HW1 8139  10.267   3.272   8.033
35414SOL    HW2 8140  10.314   3.412   8.067
35415SOL     OW 8141   2.259   2.763  11.558
35415SOL    HW1 8142   2.223   2.727  11.639
35415SOL    HW2 8143   2.224   2.706  11.490
35416SOL     OW 8144   3.262   4.561  11.551
35416SOL    HW1 8145   3.194   4.607  11.602
35416SOL    HW2 8146   3.308   4.508  11.616
35417SOL     OW 8147   5.766   9.997   8.293
35417SOL    HW1 8148   5.714  10.076   8.307
35417SOL    HW2 8149   5.710   9.925   8.322
35418SOL     OW 8150   6.173   5.087   3.647
35418SOL    HW1 8151   6.154   5.006   3.598
35418SOL    HW2 8152   6.246   5.126   3.601
35419SOL     OW 8153   0.031  10.987   7.795
35419SOL    HW1 8154  14.846  10.924   7.760
35419SOL    HW2 8155   0.112  10.937   7.807
35420SOL     OW 8156  14.155  13.613   2.641
35420SOL    HW1 8157  14.136  13.690   2.587
35420SOL    HW2 8158  14.220  13.643   2.704
35421SOL     OW 8159   5.992   8.474   0.020
35421SOL    HW1 8160   5.897   8.466   0.027
35421SOL    HW2 8161   6.005   8.561  14.858
35422SOL     OW 8162   8.246  14.755   9.110
35422SOL    HW1 8163   8.264  14.710   9.193
35422SOL    HW2 8164   8.225  14.684   9.049
35423SOL     OW 8165  14.824   7.921   8.062
35423SOL    HW1 8166  14.798   7.835   8.093
35423SOL    HW2 8167  14.742   7.969   8.051
35424SOL     OW 8168   3.309   3.696   4.806
35424SOL    HW1 8169   3.363   3.734   4.737
35424SOL    HW2 8170   3.283   3.771   4.860
35425SOL     OW 8171   5.372   6.323   1.780
35425SOL    HW1 8172   5.404   6.413   1.772
35425SOL    HW2 8173   5.449   6.271   1.799
35426SOL     OW 8174   3.720  11.159   8.930
35426SOL    HW1 8175   3.660  11.093   8.965
35426SOL    HW2 8176   3.805  11.138   8.968
35427SOL     OW 8177   9.197   0.529   0.386
35427SOL    HW1 8178   9.281   0.574   0.386
35427SOL    HW2 8179   9.158   0.551   0.471
35428SOL     OW 8180   2.656   3.379  13.658
35428SOL    HW1 8181   2.678   3.471  13.676
35428SOL    HW2 8182   2.728   3.330  13.697
35429SOL     OW 8183   4.963   3.021   9.848
35429SOL    HW1 8184   4.954   2.934   9.886
35429SOL    HW2 8185   4.939   3.081   9.918
35430SOL     OW 8186   2.124   7.953  11.034
35430SOL    HW1 8187   2.058   7.991  11.092
35430SOL    HW2 8188   2.104   7.860  11.033
35431SOL     OW 8189   2.497   1.184   1.564
35431SOL    HW1 8190   2.548   1.203   1.485
35431SOL    HW2 8191   2.560   1.193   1.636
35432SOL     OW 8192   9.233   5.947   6.687
35432SOL    HW1 8193   9.190   5.987   6.612
35432SOL    HW2 8194   9.186   5.864   6.700
35433SOL     OW 8195   5.488   5.701  12.609
35433SOL    HW1 8196   5.462   5.742  12.527
35433SOL    HW2 8197   5.468   5.767  12.676
35434SOL     OW 8198  13.987   1.086  10.951
35434SOL    HW1 8199  13.944   1.125  11.027
35434SOL    HW2 8200  13.962   1.143  10.878
35435SOL     OW 8201   7.434  13.446  14.478
35435SOL    HW1 8202   7.453  13.378  14.413
35435SOL    HW2 8203   7.338  13.449  14.481
35436SOL     OW 8204   0.996   3.130   3.418
35436SOL    HW1 8205   1.010   3.144   3.512
35436SOL    HW2 8206   0.931   3.060   3.414
35437SOL     OW 8207   0.264   7.947   2.222
35437SOL    HW1 8208   0.294   7.856   2.221
35437SOL    HW2 8209   0.342   7.998   2.247
35438SOL     OW 8210   8.360   8.691  14.210
35438SOL    HW1 8211   8.405   8.717  14.291
35438SOL    HW2 8212   8.372   8.596  14.205
35439SOL     OW 8213  11.329   0.843  11.243
35439SOL    HW1 8214  11.268   0.795  11.187
35439SOL    HW2 8215  11.403   0.862  11.185
35440SOL     OW 8216  12.971  14.349   6.377
35440SOL    HW1 8217  12.992  14.426   6.325
35440SOL    HW2 8218  13.053  14.327   6.422
35441SOL     OW 8219  10.189   5.619  11.931
35441SOL    HW1 8220  10.229   5.589  12.013
35441SOL    HW2 8221  10.095   5.622  11.949
35442SOL     OW 8222  10.476  12.259   8.403
35442SOL    HW1 8223  10.401  12.235   8.349
35442SOL    HW2 8224  10.544  12.196   8.379
35443SOL     OW 8225   9.711   7.369   7.848
35443SOL    HW1 8226   9.709   7.445   7.790
35443SOL    HW2 8227   9.804   7.344   7.852
35444SOL     OW 8228   9.346   4.433  12.830
35444SOL    HW1 8229   9.256   4.424  12.861
35444SOL    HW2 8230   9.339   4.489  12.753
35445SOL     OW 8231  13.173   9.450   3.983
35445SOL    HW1 8232  13.180   9.545   3.976
35445SOL    HW2 8233  13.092   9.429   3.938
35446SOL     OW 8234   3.635   9.863  14.492
35446SOL    HW1 8235   3.718   9.818  14.476
35446SOL    HW2 8236   3.658   9.936  14.550
35447SOL     OW 8237   9.469   0.836   9.263
35447SOL    HW1 8238   9.491   0.829   9.170
35447SOL    HW2 8239   9.381   0.799   9.269
35448SOL     OW 8240   6.694  13.545  12.711
35448SOL    HW1 8241   6.728  13.457  12.698
35448SOL    HW2 8242   6.655  13.569  12.627
35449SOL     OW 8243  11.194   6.330   4.097
35449SOL    HW1 8244  11.185   6.234   4.101
35449SOL    HW2 8245  11.125   6.358   4.037
35450SOL     OW 8246   7.021  10.598   3.276
35450SOL    HW1 8247   7.089  10.532   3.262
35450SOL    HW2 8248   6.945  10.548   3.306
35451SOL     OW 8249   6.997   9.102   3.849
35451SOL    HW1 8250   6.997   9.013   3.882
35451SOL    HW2 8251   7.050   9.099   3.770
35452SOL     OW 8252   4.071   4.170   2.089
35452SOL    HW1 8253   4.164   4.153   2.080
35452SOL    HW2 8254   4.046   4.212   2.006
35453SOL     OW 8255   4.530   3.657   7.498
35453SOL    HW1 8256   4.447   3.701   7.513
35453SOL    HW2 8257   4.508   3.564   7.498
35454SOL     OW 8258   3.717  10.446   3.017
35454SOL    HW1 8259   3.676  10.482   2.939
35454SOL    HW2 8260   3.678  10.494   3.090
35455SOL     OW 8261  12.564   9.687   3.206
35455SOL    HW1 8262  12.544   9.663   3.116
35455SOL    HW2 8263  12.634   9.751   3.199
35456SOL     OW 8264   1.671   4.110   2.360
35456SOL    HW1 8265   1.722   4.184   2.327
35456SOL    HW2 8266   1.736   4.050   2.395
35457SOL     OW 8267   2.808  12.222  10.259
35457SOL    HW1 8268   2.802  12.183  10.172
35457SOL    HW2 8269   2.795  12.316  10.244
35458SOL     OW 8270   1.961   0.748   8.958
35458SOL    HW1 8271   2.003   0.684   9.016
35458SOL    HW2 8272   2.019   0.825   8.962
35459SOL     OW 8273   4.918   4.409  14.105
35459SOL    HW1 8274   4.831   4.448  14.112
35459SOL    HW2 8275   4.977   4.477  14.136
35460SOL     OW 8276  13.141   9.121   9.080
35460SOL    HW1 8277  13.230   9.093   9.101
35460SOL    HW2 8278  13.117   9.181   9.151
35461SOL     OW 8279  10.692  13.340   4.854
35461SOL    HW1 8280  10.733  13.417   4.814
35461SOL    HW2 8281  10.762  13.275   4.859
35462SOL     OW 8282   7.859   3.194  11.343
35462SOL    HW1 8283   7.932   3.135  11.327
35462SOL    HW2 8284   7.898   3.282  11.340
35463SOL     OW 8285  14.495   4.536   1.403
35463SOL    HW1 8286  14.480   4.595   1.477
35463SOL    HW2 8287  14.433   4.464   1.416
35464SOL     OW 8288  11.987   9.586   3.377
35464SOL    HW1 8289  12.073   9.566   3.339
35464SOL    HW2 8290  11.983   9.682   3.378
35465SOL     OW 8291   0.555  10.436   0.301
35465SOL    HW1 8292   0.507  10.519   0.302
35465SOL    HW2 8293   0.596  10.431   0.388
35466SOL     OW 8294   3.308  11.208   3.163
35466SOL    HW1 8295   3.238  11.225   3.100
35466SOL    HW2 8296   3.263  11.203   3.248
35467SOL     OW 8297   0.528   7.542   7.982
35467SOL    HW1 8298   0.531   7.469   8.044
35467SOL    HW2 8299   0.455   7.596   8.012
35468SOL     OW 8300  10.518   3.289  13.637
35468SOL    HW1 8301  10.495   3.214  13.693
35468SOL    HW2 8302  10.437   3.339  13.631
35469SOL     OW 8303   4.497   5.704   3.610
35469SOL    HW1 8304   4.587   5.736   3.606
35469SOL    HW2 8305   4.483   5.661   3.526
35470SOL     OW 8306  11.862  14.240  14.618
35470SOL    HW1 8307  11.883  14.294  14.693
35470SOL    HW2 8308  11.924  14.267  14.550
35471SOL     OW 8309  12.624  10.539   1.333
35471SOL    HW1 8310  12.710  10.541   1.375
35471SOL    HW2 8311  12.564  10.579   1.396
35472SOL     OW 8312   1.656  12.161   0.366
35472SOL    HW1 8313   1.722  12.094   0.380
35472SOL    HW2 8314   1.699  12.243   0.389
35473SOL     OW 8315   9.810  10.859   1.723
35473SOL    HW1 8316   9.850  10.773   1.712
35473SOL    HW2 8317   9.734  10.844   1.778
35474SOL     OW 8318  10.363  13.604   9.978
35474SOL    HW1 8319  10.350  13.686  10.025
35474SOL    HW2 8320  10.336  13.536  10.040
35475SOL     OW 8321   5.261   7.420   9.895
35475SOL    HW1 8322   5.355   7.406   9.882
35475SOL    HW2 8323   5.253   7.515   9.908
35476SOL     OW 8324   3.363  10.230  14.450
35476SOL    HW1 8325   3.367  10.146  14.496
35476SOL    HW2 8326   3.334  10.208  14.361
35477SOL     OW 8327  14.585  11.158  14.202
35477SOL    HW1 8328  14.514  11.104  14.167
35477SOL    HW2 8329  14.541  11.236  14.237
35478SOL     OW 8330  10.969   6.420   7.991
35478SOL    HW1 8331  11.029   6.485   7.955
35478SOL    HW2 8332  10.927   6.381   7.914
35479SOL     OW 8333   9.847  11.924  12.647
35479SOL    HW1 8334   9.935  11.931  12.684
35479SOL    HW2 8335   9.858  11.865  12.572
35480SOL     OW 8336   9.866   0.447   7.175
35480SOL    HW1 8337   9.871   0.358   7.140
35480SOL    HW2 8338   9.797   0.489   7.124
35481SOL     OW 8339   4.697   6.067   8.805
35481SOL    HW1 8340   4.708   6.045   8.897
35481SOL    HW2 8341   4.786   6.085   8.774
35482SOL     OW 8342   9.603  10.638  12.954
35482SOL    HW1 8343   9.617  10.643  13.049
35482SOL    HW2 8344   9.564  10.552  12.941
35483SOL     OW 8345  14.709   1.307   9.537
35483SOL    HW1 8346  14.700   1.295   9.443
35483SOL    HW2 8347  14.803   1.317   9.552
35484SOL     OW 8348  14.226   9.665   0.378
35484SOL    HW1 8349  14.222   9.673   0.473
35484SOL    HW2 8350  14.157   9.723   0.346
35485SOL     OW 8351   5.243   4.424   2.271
35485SOL    HW1 8352   5.293   4.489   2.222
35485SOL    HW2 8353   5.172   4.398   2.212
35486SOL     OW 8354   5.062   3.269   1.860
35486SOL    HW1 8355   4.992   3.332   1.874
35486SOL    HW2 8356   5.140   3.322   1.846
35487SOL     OW 8357   9.593   6.643  13.003
35487SOL    HW1 8358   9.619   6.685  13.085
35487SOL    HW2 8359   9.663   6.580  12.984
35488SOL     OW 8360   4.042   6.961   2.773
35488SOL    HW1 8361   4.086   6.877   2.760
35488SOL    HW2 8362   4.082   6.996   2.853
35489SOL     OW 8363   0.732  13.218  10.581
35489SOL    HW1 8364   0.707  13.135  10.542
35489SOL    HW2 8365   0.754  13.197  10.672
35490SOL     OW 8366  12.202  13.018  11.821
35490SOL    HW1 8367  12.139  13.083  11.854
35490SOL    HW2 8368  12.257  12.998  11.897
35491SOL     OW 8369   2.654   9.601   3.343
35491SOL    HW1 8370   2.615   9.612   3.256
35491SOL    HW2 8371   2.663   9.506   3.352
35492SOL     OW 8372   5.448   4.870  13.184
35492SOL    HW1 8373   5.396   4.950  13.180
35492SOL    HW2 8374   5.528   4.896  13.230
35493SOL     OW 8375   0.576  10.165   2.061
35493SOL    HW1 8376   0.494  10.183   2.107
35493SOL    HW2 8377   0.575  10.071   2.046
35494SOL     OW 8378   2.838   9.752   1.988
35494SOL    HW1 8379   2.865   9.685   1.925
35494SOL    HW2 8380   2.744   9.737   2.000
35495SOL     OW 8381   0.244   0.602   0.237
35495SOL    HW1 8382   0.270   0.590   0.146
35495SOL    HW2 8383   0.313   0.559   0.288
35496SOL     OW 8384   8.822  11.493   3.958
35496SOL    HW1 8385   8.796  11.583   3.938
35496SOL    HW2 8386   8.757  11.439   3.914
35497SOL     OW 8387   1.433   1.613   4.971
35497SOL    HW1 8388   1.378   1.645   5.042
35497SOL    HW2 8389   1.450   1.521   4.993
35498SOL     OW 8390   3.347   7.198   5.389
35498SOL    HW1 8391   3.348   7.121   5.446
35498SOL    HW2 8392   3.376   7.270   5.444
35499SOL     OW 8393  10.745   7.577   6.368
35499SOL    HW1 8394  10.775   7.659   6.329
35499SOL    HW2 8395  10.662   7.599   6.410
35500SOL     OW 8396  13.866   8.139   5.497
35500SOL    HW1 8397  13.789   8.151   5.440
35500SOL    HW2 8398  13.941   8.142   5.437
35501SOL     OW 8399   9.612   8.495   6.809
35501SOL    HW1 8400   9.521   8.468   6.805
35501SOL    HW2 8401   9.633   8.524   6.720
35502SOL     OW 8402   0.515  12.099   9.620
35502SOL    HW1 8403   0.595  12.071   9.576
35502SOL    HW2 8404   0.488  12.023   9.671
35503SOL     OW 8405  12.416   7.687  11.740
35503SOL    HW1 8406  12.431   7.757  11.676
35503SOL    HW2 8407  12.339   7.717  11.790
35504SOL     OW 8408  11.841   4.428  13.751
35504SOL    HW1 8409  11.779   4.418  13.823
35504SOL    HW2 8410  11.911   4.366  13.771
35505SOL     OW 8411   2.370   2.931  11.906
35505SOL    HW1 8412   2.419   2.996  11.957
35505SOL    HW2 8413   2.309   2.982  11.853
35506SOL     OW 8414  12.118   4.303   6.476
35506SOL    HW1 8415  12.024   4.291   6.460
35506SOL    HW2 8416  12.142   4.229   6.531
35507SOL     OW 8417  10.868  11.182   3.022
35507SOL    HW1 8418  10.910  11.139   2.947
35507SOL    HW2 8419  10.811  11.248   2.982
35508SOL     OW 8420   4.205   0.079   0.703
35508SOL    HW1 8421   4.155   0.129   0.639
35508SOL    HW2 8422   4.226   0.142   0.772
35509SOL     OW 8423  13.865  10.816  11.693
35509SOL    HW1 8424  13.896  10.726  11.700
35509SOL    HW2 8425  13.890  10.856  11.776
35510SOL     OW 8426   1.395   4.903   2.932
35510SOL    HW1 8427   1.426   4.972   2.991
35510SOL    HW2 8428   1.468   4.841   2.928
35511SOL     OW 8429   2.868   2.513  13.183
35511SOL    HW1 8430   2.811   2.494  13.108
35511SOL    HW2 8431   2.875   2.429  13.229
35512SOL     OW 8432   8.312   2.912   3.311
35512SOL    HW1 8433   8.394   2.923   3.262
35512SOL    HW2 8434   8.290   2.819   3.299
35513SOL     OW 8435  10.023   2.404   8.472
35513SOL    HW1 8436   9.952   2.428   8.412
35513SOL    HW2 8437  10.102   2.410   8.418
35514SOL     OW 8438   9.426   1.777  14.333
35514SOL    HW1 8439   9.474   1.716  14.389
35514SOL    HW2 8440   9.495   1.831  14.293
35515SOL     OW 8441   2.127  10.417   8.652
35515SOL    HW1 8442   2.165  10.340   8.694
35515SOL    HW2 8443   2.042  10.388   8.619
35516SOL     OW 8444  10.306   5.602   4.311
35516SOL    HW1 8445  10.361   5.642   4.244
35516SOL    HW2 8446  10.218   5.637   4.294
35517SOL     OW 8447  11.310  13.796   8.572
35517SOL    HW1 8448  11.319  13.717   8.518
35517SOL    HW2 8449  11.386  13.794   8.629
35518SOL     OW 8450   3.973   7.435   2.264
35518SOL    HW1 8451   4.056   7.442   2.311
35518SOL    HW2 8452   3.937   7.351   2.290
35519SOL     OW 8453   1.603   0.313   5.507
35519SOL    HW1 8454   1.562   0.397   5.483
35519SOL    HW2 8455   1.628   0.274   5.423
35520SOL     OW 8456  12.720   1.010   0.688
35520SOL    HW1 8457  12.763   1.081   0.736
35520SOL    HW2 8458  12.643   1.052   0.649
35521SOL     OW 8459   8.376   9.169   9.644
35521SOL    HW1 8460   8.370   9.103   9.713
35521SOL    HW2 8461   8.317   9.239   9.673
35522SOL     OW 8462  14.219   2.295  11.179
35522SOL    HW1 8463  14.159   2.222  11.194
35522SOL    HW2 8464  14.217   2.345  11.261
35523SOL     OW 8465  12.499   0.783   7.151
35523SOL    HW1 8466  12.441   0.707   7.142
35523SOL    HW2 8467  12.533   0.797   7.063
35524SOL     OW 8468  12.980  11.816  10.180
35524SOL    HW1 8469  12.952  11.830  10.271
35524SOL    HW2 8470  12.899  11.818  10.130
35525SOL     OW 8471   6.280   3.258   4.451
35525SOL    HW1 8472   6.250   3.185   4.504
35525SOL    HW2 8473   6.259   3.232   4.361
35526SOL     OW 8474   6.782   0.554  12.870
35526SOL    HW1 8475   6.714   0.603  12.825
35526SOL    HW2 8476   6.840   0.620  12.907
35527SOL     OW 8477   2.714   8.775  14.665
35527SOL    HW1 8478   2.796   8.823  14.652
35527SOL    HW2 8479   2.699   8.731  14.581
35528SOL     OW 8480   4.080   7.566  14.155
35528SOL    HW1 8481   3.997   7.612  14.166
35528SOL    HW2 8482   4.057   7.483  14.114
35529SOL     OW 8483   9.251  10.436   0.519
35529SOL    HW1 8484   9.222  10.457   0.431
35529SOL    HW2 8485   9.172  10.441   0.573
35530SOL     OW 8486   2.552   5.540   7.085
35530SOL    HW1 8487   2.498   5.569   7.159
35530SOL    HW2 8488   2.588   5.621   7.049
35531SOL     OW 8489  14.457   4.900   5.458
35531SOL    HW1 8490  14.473   4.993   5.441
35531SOL    HW2 8491  14.538   4.869   5.500
35532SOL     OW 8492  11.370  14.311   3.961
35532SOL    HW1 8493  11.355  14.356   3.878
35532SOL    HW2 8494  11.313  14.234   3.958
35533SOL     OW 8495   3.474   4.999   6.037
35533SOL    HW1 8496   3.538   4.941   5.996
35533SOL    HW2 8497   3.390   4.957   6.020
35534SOL     OW 8498  13.956   4.697   3.505
35534SOL    HW1 8499  14.034   4.692   3.561
35534SOL    HW2 8500  13.949   4.611   3.465
35535SOL     OW 8501  10.371  13.640   6.995
35535SOL    HW1 8502  10.305  13.573   6.979
35535SOL    HW2 8503  10.349  13.710   6.932
35536SOL     OW 8504   2.266   3.216   2.546
35536SOL    HW1 8505   2.344   3.253   2.586
35536SOL    HW2 8506   2.297   3.179   2.463
35537SOL     OW 8507   8.229   5.012  10.339
35537SOL    HW1 8508   8.279   4.965  10.406
35537SOL    HW2 8509   8.189   4.943  10.286
35538SOL     OW 8510   8.931  14.696   2.343
35538SOL    HW1 8511   8.979  14.762   2.293
35538SOL    HW2 8512   8.889  14.641   2.278
35539SOL     OW 8513   2.744   7.586   0.832
35539SOL    HW1 8514   2.800   7.545   0.898
35539SOL    HW2 8515   2.799   7.589   0.754
35540SOL     OW 8516  11.368  10.295  14.322
35540SOL    HW1 8517  11.347  10.201  14.315
35540SOL    HW2 8518  11.461  10.300  14.302
35541SOL     OW 8519   7.524   2.565   6.266
35541SOL    HW1 8520   7.618   2.577   6.251
35541SOL    HW2 8521   7.511   2.588   6.358
35542SOL     OW 8522   1.538  14.522   4.814
35542SOL    HW1 8523   1.548  14.604   4.766
35542SOL    HW2 8524   1.491  14.464   4.753
35543SOL     OW 8525   7.439   6.096   5.976
35543SOL    HW1 8526   7.379   6.077   6.048
35543SOL    HW2 8527   7.491   6.016   5.965
35544SOL     OW 8528   0.957  13.549  10.532
35544SOL    HW1 8529   0.990  13.459  10.534
35544SOL    HW2 8530   0.889  13.548  10.464
35545SOL     OW 8531   6.992   1.317   3.840
35545SOL    HW1 8532   7.054   1.388   3.858
35545SOL    HW2 8533   7.036   1.263   3.774
35546SOL     OW 8534   0.583   4.385  14.703
35546SOL    HW1 8535   0.547   4.296  14.701
35546SOL    HW2 8536   0.678   4.372  14.698
35547SOL     OW 8537   3.891  12.215   4.761
35547SOL    HW1 8538   3.888  12.121   4.777
35547SOL    HW2 8539   3.822  12.231   4.696
35548SOL     OW 8540  13.109   2.590   6.243
35548SOL    HW1 8541  13.108   2.685   6.227
35548SOL    HW2 8542  13.165   2.579   6.320
35549SOL     OW 8543  13.975   5.502   9.127
35549SOL    HW1 8544  14.018   5.586   9.112
35549SOL    HW2 8545  13.966   5.464   9.040
35550SOL     OW 8546  14.214   1.627   4.005
35550SOL    HW1 8547  14.235   1.703   3.952
35550SOL    HW2 8548  14.207   1.555   3.942
35551SOL     OW 8549   5.719  12.190   7.528
35551SOL    HW1 8550   5.738  12.146   7.611
35551SOL    HW2 8551   5.782  12.152   7.466
35552SOL     OW 8552   3.529   3.519   9.369
35552SOL    HW1 8553   3.553   3.596   9.318
35552SOL    HW2 8554   3.434   3.528   9.383
35553SOL     OW 8555   1.537   5.948   8.485
35553SOL    HW1 8556   1.574   5.891   8.418
35553SOL    HW2 8557   1.589   5.931   8.563
35554SOL     OW 8558   4.505   5.032   9.772
35554SOL    HW1 8559   4.439   4.962   9.773
35554SOL    HW2 8560   4.453   5.113   9.780
35555SOL     OW 8561   3.158  13.167  12.418
35555SOL    HW1 8562   3.246  13.202  12.400
35555SOL    HW2 8563   3.140  13.194  12.508
35556SOL     OW 8564  12.869  12.045   1.898
35556SOL    HW1 8565  12.918  12.048   1.816
35556SOL    HW2 8566  12.935  12.058   1.966
35557SOL     OW 8567   8.978  11.823  13.070
35557SOL    HW1 8568   8.991  11.918  13.076
35557SOL    HW2 8569   8.910  11.804  13.135
35558SOL     OW 8570   5.821  14.698   8.137
35558SOL    HW1 8571   5.747  14.656   8.092
35558SOL    HW2 8572   5.892  14.634   8.131
35559SOL     OW 8573   5.520  13.314  12.067
35559SOL    HW1 8574   5.428  13.337  12.074
35559SOL    HW2 8575   5.565  13.378  12.123
35560SOL     OW 8576   2.366  12.673   7.382
35560SOL    HW1 8577   2.412  12.736   7.437
35560SOL    HW2 8578   2.418  12.667   7.303
35561SOL     OW 8579   8.238   3.298   8.636
35561SOL    HW1 8580   8.157   3.324   8.593
35561SOL    HW2 8581   8.308   3.338   8.584
35562SOL     OW 8582   1.737   2.073   4.327
35562SOL    HW1 8583   1.717   2.118   4.410
35562SOL    HW2 8584   1.712   1.982   4.342
35563SOL     OW 8585  12.054   0.751  10.108
35563SOL    HW1 8586  12.097   0.766  10.024
35563SOL    HW2 8587  12.008   0.833  10.126
35564SOL     OW 8588   7.621  13.909   7.713
35564SOL    HW1 8589   7.529  13.936   7.723
35564SOL    HW2 8590   7.669  13.992   7.708
35565SOL     OW 8591   9.082   0.483   3.375
35565SOL    HW1 8592   9.027   0.405   3.370
35565SOL    HW2 8593   9.147   0.471   3.305
35566SOL     OW 8594  14.435   3.137   6.857
35566SOL    HW1 8595  14.458   3.093   6.775
35566SOL    HW2 8596  14.357   3.091   6.888
35567SOL     OW 8597   2.472  11.291  10.585
35567SOL    HW1 8598   2.459  11.300  10.490
35567SOL    HW2 8599   2.390  11.255  10.617
35568SOL     OW 8600   7.486  10.218   4.956
35568SOL    HW1 8601   7.415  10.282   4.957
35568SOL    HW2 8602   7.442  10.134   4.944
35569SOL     OW 8603   4.551   9.246   4.599
35569SOL    HW1 8604   4.632   9.218   4.641
35569SOL    HW2 8605   4.485   9.237   4.667
35570SOL     OW 8606   6.897   2.172   5.727
35570SOL    HW1 8607   6.911   2.084   5.762
35570SOL    HW2 8608   6.984   2.200   5.699
35571SOL     OW 8609   1.962   4.796   6.290
35571SOL    HW1 8610   1.915   4.714   6.306
35571SOL    HW2 8611   2.053   4.776   6.310
35572SOL     OW 8612   9.821   6.628  12.488
35572SOL    HW1 8613   9.886   6.625  12.559
35572SOL    HW2 8614   9.771   6.708  12.505
35573SOL     OW 8615   2.476  12.891   7.555
35573SOL    HW1 8616   2.536  12.952   7.597
35573SOL    HW2 8617   2.443  12.837   7.627
35574SOL     OW 8618  12.524  13.182   9.114
35574SOL    HW1 8619  12.526  13.130   9.194
35574SOL    HW2 8620  12.615  13.182   9.084
35575SOL     OW 8621   0.612   6.370   5.182
35575SOL    HW1 8622   0.652   6.322   5.255
35575SOL    HW2 8623   0.529   6.325   5.167
35576SOL     OW 8624   1.172   1.515  11.544
35576SOL    HW1 8625   1.242   1.481  11.600
35576SOL    HW2 8626   1.184   1.469  11.461
35577SOL     OW 8627  10.167   4.579   3.641
35577SOL    HW1 8628  10.203   4.495   3.670
35577SOL    HW2 8629  10.240   4.622   3.597
35578SOL     OW 8630   4.290  10.811  10.708
35578SOL    HW1 8631   4.208  10.764  10.722
35578SOL    HW2 8632   4.264  10.903  10.705
35579SOL     OW 8633  14.421  10.199  12.487
35579SOL    HW1 8634  14.513  10.217  12.469
35579SOL    HW2 8635  14.391  10.150  12.410
35580SOL     OW 8636   1.757   7.152   8.218
35580SOL    HW1 8637   1.851   7.139   8.205
35580SOL    HW2 8638   1.742   7.242   8.188
35581SOL     OW 8639  12.885  14.043  11.501
35581SOL    HW1 8640  12.954  14.109  11.490
35581SOL    HW2 8641  12.927  13.973  11.552
35582SOL     OW 8642   9.511  14.400   2.326
35582SOL    HW1 8643   9.525  14.483   2.372
35582SOL    HW2 8644   9.504  14.424   2.234
35583SOL     OW 8645   5.772  11.373  10.725
35583SOL    HW1 8646   5.779  11.435  10.653
35583SOL    HW2 8647   5.688  11.393  10.766
35584SOL     OW 8648   5.687  11.713   2.194
35584SOL    HW1 8649   5.720  11.759   2.117
35584SOL    HW2 8650   5.764  11.671   2.232
35585SOL     OW 8651   5.775  14.353   6.717
35585SOL    HW1 8652   5.718  14.277   6.705
35585SOL    HW2 8653   5.731  14.423   6.668
35586SOL     OW 8654   2.229  12.665  14.397
35586SOL    HW1 8655   2.144  12.709  14.391
35586SOL    HW2 8656   2.239  12.621  14.313
35587SOL     OW 8657   1.286   1.176   0.200
35587SOL    HW1 8658   1.283   1.270   0.182
35587SOL    HW2 8659   1.239   1.166   0.282
35588SOL     OW 8660   6.369  12.112  13.249
35588SOL    HW1 8661   6.425  12.038  13.272
35588SOL    HW2 8662   6.384  12.176  13.319
35589SOL     OW 8663   5.857  10.294   5.835
35589SOL    HW1 8664   5.945  10.276   5.800
35589SOL    HW2 8665   5.874  10.345   5.914
35590SOL     OW 8666  12.268   7.280  12.596
35590SOL    HW1 8667  12.293   7.199  12.552
35590SOL    HW2 8668  12.275   7.347  12.528
35591SOL     OW 8669   6.041   5.787   0.821
35591SOL    HW1 8670   6.125   5.755   0.788
35591SOL    HW2 8671   6.010   5.719   0.881
35592SOL     OW 8672   3.741   4.017   4.561
35592SOL    HW1 8673   3.774   3.929   4.543
35592SOL    HW2 8674   3.763   4.033   4.653
35593SOL     OW 8675   3.653   0.070  13.308
35593SOL    HW1 8676   3.648   0.007  13.236
35593SOL    HW2 8677   3.571   0.120  13.302
35594SOL     OW 8678  14.688   0.429   3.693
35594SOL    HW1 8679  14.746   0.414   3.618
35594SOL    HW2 8680  14.659   0.519   3.682
35595SOL     OW 8681   5.841   0.437   7.018
35595SOL    HW1 8682   5.750   0.408   7.017
35595SOL    HW2 8683   5.840   0.517   7.070
35596SOL     OW 8684   4.518  11.115  11.106
35596SOL    HW1 8685   4.613  11.119  11.097
35596SOL    HW2 8686   4.502  11.032  11.150
35597SOL     OW 8687   4.621   6.647   5.858
35597SOL    HW1 8688   4.662   6.729   5.888
35597SOL    HW2 8689   4.555   6.628   5.924
35598SOL     OW 8690  11.085   2.236   1.460
35598SOL    HW1 8691  11.161   2.179   1.443
35598SOL    HW2 8692  11.090   2.303   1.392
35599SOL     OW 8693   5.427  10.387  14.297
35599SOL    HW1 8694   5.418  10.467  14.347
35599SOL    HW2 8695   5.459  10.322  14.359
35600SOL     OW 8696   2.389   5.135  12.411
35600SOL    HW1 8697   2.379   5.148  12.316
35600SOL    HW2 8698   2.481   5.154  12.428
35601SOL     OW 8699   6.470   7.499   1.853
35601SOL    HW1 8700   6.543   7.560   1.864
35601SOL    HW2 8701   6.392   7.550   1.875
35602SOL     OW 8702   1.373   1.646   1.150
35602SOL    HW1 8703   1.437   1.705   1.191
35602SOL    HW2 8704   1.425   1.591   1.091
35603SOL     OW 8705  14.389   8.762   9.440
35603SOL    HW1 8706  14.305   8.788   9.401
35603SOL    HW2 8707  14.435   8.844   9.457
35604SOL     OW 8708   0.384  12.728   8.233
35604SOL    HW1 8709   0.289  12.723   8.227
35604SOL    HW2 8710   0.403  12.709   8.325
35605SOL     OW 8711  10.699   4.533   9.786
35605SOL    HW1 8712  10.767   4.540   9.853
35605SOL    HW2 8713  10.617   4.531   9.835
35606SOL     OW 8714   1.078   6.748   2.413
35606SOL    HW1 8715   1.111   6.762   2.324
35606SOL    HW2 8716   1.092   6.831   2.458
35607SOL     OW 8717   0.398   8.720   7.252
35607SOL    HW1 8718   0.395   8.705   7.157
35607SOL    HW2 8719   0.458   8.794   7.263
35608SOL     OW 8720   6.907   2.886   3.615
35608SOL    HW1 8721   6.947   2.971   3.633
35608SOL    HW2 8722   6.824   2.908   3.572
35609SOL     OW 8723   4.639  13.171   4.334
35609SOL    HW1 8724   4.583  13.183   4.411
35609SOL    HW2 8725   4.695  13.097   4.357
35610SOL     OW 8726   6.429   1.988   8.420
35610SOL    HW1 8727   6.341   1.994   8.385
35610SOL    HW2 8728   6.430   1.906   8.469
35611SOL     OW 8729  14.203  13.412   7.077
35611SOL    HW1 8730  14.191  13.320   7.054
35611SOL    HW2 8731  14.114  13.448   7.081
35612SOL     OW 8732  14.712  12.212   5.429
35612SOL    HW1 8733  14.774  12.142   5.449
35612SOL    HW2 8734  14.635  12.167   5.394
35613SOL     OW 8735  10.629   7.718   2.568
35613SOL    HW1 8736  10.617   7.813   2.566
35613SOL    HW2 8737  10.642   7.694   2.476
35614SOL     OW 8738   3.130   1.174   4.693
35614SOL    HW1 8739   3.158   1.249   4.641
35614SOL    HW2 8740   3.124   1.209   4.783
35615SOL     OW 8741  10.597   9.232  11.540
35615SOL    HW1 8742  10.526   9.241  11.604
35615SOL    HW2 8743  10.574   9.294  11.471
35616SOL     OW 8744   1.059  14.845  12.381
35616SOL    HW1 8745   1.003  14.768  12.381
35616SOL    HW2 8746   1.144  14.814  12.412
35617SOL     OW 8747  11.742   1.159   8.635
35617SOL    HW1 8748  11.663   1.208   8.609
35617SOL    HW2 8749  11.784   1.137   8.552
35618SOL     OW 8750   7.030   9.613  12.146
35618SOL    HW1 8751   7.005   9.522  12.163
35618SOL    HW2 8752   7.112   9.625  12.194
35619SOL     OW 8753  12.674   9.743   5.044
35619SOL    HW1 8754  12.685   9.697   5.127
35619SOL    HW2 8755  12.700   9.679   4.977
35620SOL     OW 8756   9.512  11.948  12.182
35620SOL    HW1 8757   9.442  12.008  12.207
35620SOL    HW2 8758   9.491  11.922  12.092
35621SOL     OW 8759   3.205   7.535   2.147
35621SOL    HW1 8760   3.269   7.603   2.126
35621SOL    HW2 8761   3.257   7.464   2.186
35622SOL     OW 8762   2.651  11.452   6.625
35622SOL    HW1 8763   2.718  11.482   6.686
35622SOL    HW2 8764   2.685  11.369   6.590
35623SOL     OW 8765  13.470   3.829  14.283
35623SOL    HW1 8766  13.474   3.738  14.312
35623SOL    HW2 8767  13.553   3.867  14.313
35624SOL     OW 8768  11.295  13.389   2.937
35624SOL    HW1 8769  11.332  13.450   3.001
35624SOL    HW2 8770  11.281  13.308   2.986
35625SOL     OW 8771   7.583   1.829   9.283
35625SOL    HW1 8772   7.644   1.875   9.340
35625SOL    HW2 8773   7.505   1.816   9.336
35626SOL     OW 8774  10.112   5.664   5.038
35626SOL    HW1 8775  10.032   5.716   5.032
35626SOL    HW2 8776  10.082   5.574   5.049
35627SOL     OW 8777   1.189   6.237   5.772
35627SOL    HW1 8778   1.247   6.196   5.836
35627SOL    HW2 8779   1.102   6.205   5.794
35628SOL     OW 8780  10.684   4.391  11.063
35628SOL    HW1 8781  10.702   4.480  11.033
35628SOL    HW2 8782  10.620   4.357  11.001
35629SOL     OW 8783  11.374   7.641   7.947
35629SOL    HW1 8784  11.299   7.630   8.005
35629SOL    HW2 8785  11.383   7.557   7.902
35630SOL     OW 8786   8.709   7.086  14.833
35630SOL    HW1 8787   8.671   7.017   0.010
35630SOL    HW2 8788   8.785   7.044  14.792
35631SOL     OW 8789   1.134  13.244   5.135
35631SOL    HW1 8790   1.217  13.243   5.088
35631SOL    HW2 8791   1.080  13.308   5.087
35632SOL     OW 8792   9.410   4.894   3.701
35632SOL    HW1 8793   9.447   4.869   3.617
35632SOL    HW2 8794   9.473   4.956   3.738
35633SOL     OW 8795   8.115   8.402   2.113
35633SOL    HW1 8796   8.177   8.464   2.075
35633SOL    HW2 8797   8.113   8.424   2.206
35634SOL     OW 8798   7.739  13.554   2.468
35634SOL    HW1 8799   7.801  13.579   2.536
35634SOL    HW2 8800   7.751  13.460   2.458
35635SOL     OW 8801  11.008   4.320  13.409
35635SOL    HW1 8802  10.974   4.231  13.403
35635SOL    HW2 8803  11.094   4.316  13.368
35636SOL     OW 8804   7.597  11.523   9.160
35636SOL    HW1 8805   7.631  11.596   9.108
35636SOL    HW2 8806   7.628  11.541   9.249
35637SOL     OW 8807   9.237   8.575   5.937
35637SOL    HW1 8808   9.212   8.503   5.995
35637SOL    HW2 8809   9.157   8.593   5.886
35638SOL     OW 8810   5.526  10.638   0.892
35638SOL    HW1 8811   5.562  10.550   0.901
35638SOL    HW2 8812   5.595  10.696   0.922
35639SOL     OW 8813   9.215  12.001  12.875
35639SOL    HW1 8814   9.252  11.981  12.789
35639SOL    HW2 8815   9.158  12.076  12.860
35640SOL     OW 8816   5.927   4.723  14.205
35640SOL    HW1 8817   5.926   4.818  14.220
35640SOL    HW2 8818   5.839   4.702  14.176
35641SOL     OW 8819  11.192  12.720  13.803
35641SOL    HW1 8820  11.223  12.650  13.860
35641SOL    HW2 8821  11.098  12.721  13.815
35642SOL     OW 8822   8.451   6.084   2.367
35642SOL    HW1 8823   8.528   6.138   2.349
35642SOL    HW2 8824   8.399   6.137   2.428
35643SOL     OW 8825  11.709   7.664   0.867
35643SOL    HW1 8826  11.656   7.640   0.791
35643SOL    HW2 8827  11.665   7.621   0.941
35644SOL     OW 8828   2.029  11.508   5.868
35644SOL    HW1 8829   2.028  11.578   5.933
35644SOL    HW2 8830   2.062  11.550   5.788
35645SOL     OW 8831   8.050  12.833   4.114
35645SOL    HW1 8832   8.143  12.859   4.111
35645SOL    HW2 8833   8.048  12.749   4.067
35646SOL     OW 8834   1.680   1.212   7.510
35646SOL    HW1 8835   1.678   1.267   7.432
35646SOL    HW2 8836   1.600   1.233   7.557
35647SOL     OW 8837   2.698   1.861   0.287
35647SOL    HW1 8838   2.651   1.866   0.204
35647SOL    HW2 8839   2.678   1.774   0.321
35648SOL     OW 8840   2.951   5.983  12.367
35648SOL    HW1 8841   2.933   6.070  12.331
35648SOL    HW2 8842   2.867   5.953  12.401
35649SOL     OW 8843   3.264  11.467   2.790
35649SOL    HW1 8844   3.327  11.529   2.829
35649SOL    HW2 8845   3.195  11.522   2.754
35650SOL     OW 8846   2.903   9.119   0.777
35650SOL    HW1 8847   2.972   9.169   0.821
35650SOL    HW2 8848   2.948   9.043   0.741
35651SOL     OW 8849  10.882   5.694   5.220
35651SOL    HW1 8850  10.816   5.761   5.239
35651SOL    HW2 8851  10.891   5.645   5.302
35652SOL     OW 8852   9.311   4.129  11.264
35652SOL    HW1 8853   9.400   4.116  11.297
35652SOL    HW2 8854   9.285   4.044  11.228
35653SOL     OW 8855   5.307  12.135   5.340
35653SOL    HW1 8856   5.323  12.165   5.430
35653SOL    HW2 8857   5.393  12.141   5.298
35654SOL     OW 8858   4.164   9.079   7.281
35654SOL    HW1 8859   4.185   9.115   7.367
35654SOL    HW2 8860   4.220   9.129   7.221
35655SOL     OW 8861   4.650   1.533   7.592
35655SOL    HW1 8862   4.593   1.503   7.522
35655SOL    HW2 8863   4.726   1.571   7.547
35656SOL     OW 8864   2.266  10.474  10.248
35656SOL    HW1 8865   2.214  10.428  10.181
35656SOL    HW2 8866   2.320  10.406  10.287
35657SOL     OW 8867   9.329   9.710   1.177
35657SOL    HW1 8868   9.391   9.780   1.156
35657SOL    HW2 8869   9.381   9.630   1.172
35658SOL     OW 8870   1.921   0.688   4.369
35658SOL    HW1 8871   1.966   0.686   4.284
35658SOL    HW2 8872   1.988   0.714   4.432
35659SOL     OW 8873   1.297  13.685  14.875
35659SOL    HW1 8874   1.227  13.703  14.813
35659SOL    HW2 8875   1.339  13.605  14.842
35660SOL     OW 8876   3.695   5.604   8.275
35660SOL    HW1 8877   3.730   5.534   8.221
35660SOL    HW2 8878   3.625   5.563   8.325
35661SOL     OW 8879   1.409   8.072   5.363
35661SOL    HW1 8880   1.387   8.065   5.270
35661SOL    HW2 8881   1.493   8.027   5.372
35662SOL     OW 8882   8.484   7.586   7.475
35662SOL    HW1 8883   8.447   7.526   7.410
35662SOL    HW2 8884   8.538   7.531   7.531
35663SOL     OW 8885   4.950   2.853   6.199
35663SOL    HW1 8886   4.875   2.813   6.155
35663SOL    HW2 8887   4.914   2.927   6.247
35664SOL     OW 8888   6.506   0.746   4.825
35664SOL    HW1 8889   6.439   0.678   4.830
35664SOL    HW2 8890   6.561   0.732   4.903
35665SOL     OW 8891   0.020   2.684  12.627
35665SOL    HW1 8892  14.857   2.603  12.656
35665SOL    HW2 8893   0.110   2.680  12.659
35666SOL     OW 8894   6.708   9.396  10.715
35666SOL    HW1 8895   6.719   9.315  10.666
35666SOL    HW2 8896   6.796   9.434  10.719
35667SOL     OW 8897   1.078   0.529   2.367
35667SOL    HW1 8898   1.090   0.457   2.429
35667SOL    HW2 8899   1.057   0.486   2.284
35668SOL     OW 8900  11.247  13.130   2.249
35668SOL    HW1 8901  11.321  13.071   2.247
35668SOL    HW2 8902  11.273  13.201   2.308
35669SOL     OW 8903   1.154   3.246   7.182
35669SOL    HW1 8904   1.240   3.246   7.225
35669SOL    HW2 8905   1.100   3.190   7.237
35670SOL     OW 8906  11.682  11.772   9.780
35670SOL    HW1 8907  11.719  11.688   9.755
35670SOL    HW2 8908  11.596  11.774   9.739
35671SOL     OW 8909  10.885   5.387  14.415
35671SOL    HW1 8910  10.888   5.292  14.428
35671SOL    HW2 8911  10.828   5.398  14.339
35672SOL     OW 8912   9.624  14.008   0.903
35672SOL    HW1 8913   9.708  13.994   0.945
35672SOL    HW2 8914   9.635  13.976   0.813
35673SOL     OW 8915   3.623   0.054  12.770
35673SOL    HW1 8916   3.598   0.033  12.680
35673SOL    HW2 8917   3.687   0.124  12.761
35674SOL     OW 8918   1.353   6.353   9.206
35674SOL    HW1 8919   1.383   6.263   9.215
35674SOL    HW2 8920   1.294   6.351   9.131
35675SOL     OW 8921  13.730  12.636   6.226
35675SOL    HW1 8922  13.636  12.646   6.243
35675SOL    HW2 8923  13.768  12.721   6.249
35676SOL     OW 8924   9.978  13.421  12.723
35676SOL    HW1 8925   9.974  13.326  12.721
35676SOL    HW2 8926   9.912  13.447  12.787
35677SOL     OW 8927  14.123   7.853   4.420
35677SOL    HW1 8928  14.088   7.854   4.510
35677SOL    HW2 8929  14.217   7.840   4.431
35678SOL     OW 8930   3.317   1.982  14.071
35678SOL    HW1 8931   3.262   1.913  14.108
35678SOL    HW2 8932   3.265   2.062  14.084
35679SOL     OW 8933   1.058  13.348   9.390
35679SOL    HW1 8934   1.133  13.296   9.420
35679SOL    HW2 8935   0.981  13.296   9.415
35680SOL     OW 8936   8.461  13.534   8.148
35680SOL    HW1 8937   8.457  13.498   8.060
35680SOL    HW2 8938   8.554  13.543   8.167
35681SOL     OW 8939   6.183   4.926  13.658
35681SOL    HW1 8940   6.139   4.864  13.716
35681SOL    HW2 8941   6.259   4.878  13.624
35682SOL     OW 8942  12.457  10.833   1.302
35682SOL    HW1 8943  12.483  10.779   1.377
35682SOL    HW2 8944  12.379  10.790   1.268
35683SOL     OW 8945   5.224   4.088   5.285
35683SOL    HW1 8946   5.159   4.074   5.216
35683SOL    HW2 8947   5.259   4.175   5.268
35684SOL     OW 8948   9.675  14.131   2.018
35684SOL    HW1 8949   9.769  14.147   2.009
35684SOL    HW2 8950   9.665  14.096   2.106
35685SOL     OW 8951  13.127  11.456   2.039
35685SOL    HW1 8952  13.111  11.451   1.945
35685SOL    HW2 8953  13.053  11.409   2.079
35686SOL     OW 8954  13.259   6.915   4.319
35686SOL    HW1 8955  13.281   6.948   4.232
35686SOL    HW2 8956  13.231   6.824   4.304
35687SOL     OW 8957  14.712  11.218   7.518
35687SOL    HW1 8958  14.763  11.245   7.594
35687SOL    HW2 8959  14.625  11.256   7.533
35688SOL     OW 8960   0.160  11.742   4.230
35688SOL    HW1 8961   0.095  11.672   4.234
35688SOL    HW2 8962   0.110  11.821   4.211
35689SOL     OW 8963   9.390   4.527   4.610
35689SOL    HW1 8964   9.348   4.443   4.589
35689SOL    HW2 8965   9.317   4.586   4.631
35690SOL     OW 8966  13.613   8.874   7.712
35690SOL    HW1 8967  13.524   8.871   7.748
35690SOL    HW2 8968  13.607   8.933   7.637
35691SOL     OW 8969   0.684  11.835   4.461
35691SOL    HW1 8970   0.666  11.741   4.458
35691SOL    HW2 8971   0.675  11.863   4.370
35692SOL     OW 8972   7.608  11.016   1.816
35692SOL    HW1 8973   7.642  11.105   1.818
35692SOL    HW2 8974   7.515  11.026   1.836
35693SOL     OW 8975   8.250   7.235   1.220
35693SOL    HW1 8976   8.248   7.299   1.149
35693SOL    HW2 8977   8.321   7.175   1.195
35694SOL     OW 8978   3.635  10.199   8.709
35694SOL    HW1 8979   3.546  10.207   8.742
35694SOL    HW2 8980   3.656  10.106   8.717
35695SOL     OW 8981   5.692   7.012   4.836
35695SOL    HW1 8982   5.756   6.941   4.833
35695SOL    HW2 8983   5.741   7.088   4.867
35696SOL     OW 8984   8.100  11.522   3.927
35696SOL    HW1 8985   8.132  11.441   3.885
35696SOL    HW2 8986   8.137  11.592   3.874
35697SOL     OW 8987   0.685   4.610   4.544
35697SOL    HW1 8988   0.651   4.649   4.463
35697SOL    HW2 8989   0.753   4.671   4.572
35698SOL     OW 8990  13.678  14.344  10.912
35698SOL    HW1 8991  13.740  14.363  10.841
35698SOL    HW2 8992  13.610  14.291  10.871
35699SOL     OW 8993   7.721   4.312  13.156
35699SOL    HW1 8994   7.635   4.273  13.171
35699SOL    HW2 8995   7.748   4.280  13.070
35700SOL     OW 8996  11.402   1.173   2.778
35700SOL    HW1 8997  11.475   1.139   2.726
35700SOL    HW2 8998  11.374   1.099   2.831
35701SOL     OW 8999   1.590  10.087  11.452
35701SOL    HW1 9000   1.600   9.994  11.474
35701SOL    HW2 9001   1.660  10.105  11.390
35702SOL     OW 9002   5.826   7.801   6.039
35702SOL    HW1 9003   5.779   7.881   6.017
35702SOL    HW2 9004   5.911   7.810   5.997
35703SOL     OW 9005   3.431   8.682   5.391
35703SOL    HW1 9006   3.387   8.655   5.310
35703SOL    HW2 9007   3.359   8.697   5.453
35704SOL     OW 9008   5.381  14.822   3.001
35704SOL    HW1 9009   5.355   0.034   3.020
35704SOL    HW2 9010   5.333  14.800   2.921
35705SOL     OW 9011   3.382  10.574   0.156
35705SOL    HW1 9012   3.299  10.529   0.141
35705SOL    HW2 9013   3.448  10.505   0.152
35706SOL     OW 9014  14.829   4.889  13.325
35706SOL    HW1 9015   0.001   4.947  13.267
35706SOL    HW2 9016  14.778   4.948  13.381
35707SOL     OW 9017  10.004   8.966   3.868
35707SOL    HW1 9018  10.026   8.924   3.951
35707SOL    HW2 9019  10.025   8.900   3.802
35708SOL     OW 9020  11.738   3.012   8.280
35708SOL    HW1 9021  11.717   2.994   8.189
35708SOL    HW2 9022  11.749   2.926   8.320
35709SOL     OW 9023  11.847   8.832  12.099
35709SOL    HW1 9024  11.752   8.820  12.098
35709SOL    HW2 9025  11.861   8.905  12.038
35710SOL     OW 9026  10.136  11.609   2.073
35710SOL    HW1 9027  10.085  11.544   2.120
35710SOL    HW2 9028  10.202  11.639   2.136
35711SOL     OW 9029   3.107  11.886   2.678
35711SOL    HW1 9030   3.107  11.871   2.773
35711SOL    HW2 9031   3.197  11.911   2.657
35712SOL     OW 9032   1.478   7.458   3.955
35712SOL    HW1 9033   1.521   7.386   3.910
35712SOL    HW2 9034   1.426   7.417   4.024
35713SOL     OW 9035   8.231  11.077  14.379
35713SOL    HW1 9036   8.138  11.098  14.390
35713SOL    HW2 9037   8.233  11.015  14.306
35714SOL     OW 9038   1.795   6.329  14.629
35714SOL    HW1 9039   1.799   6.248  14.679
35714SOL    HW2 9040   1.708   6.329  14.589
35715SOL     OW 9041   0.020  13.520   2.108
35715SOL    HW1 9042   0.077  13.595   2.125
35715SOL    HW2 9043  14.847  13.545   2.031
35716SOL     OW 9044  11.899  13.968   4.717
35716SOL    HW1 9045  11.911  14.025   4.793
35716SOL    HW2 9046  11.928  14.021   4.643
35717SOL     OW 9047   5.476   5.209   7.020
35717SOL    HW1 9048   5.562   5.248   7.003
35717SOL    HW2 9049   5.496   5.117   7.038
35718SOL     OW 9050  13.779  10.924  11.459
35718SOL    HW1 9051  13.821  10.887  11.537
35718SOL    HW2 9052  13.810  11.014  11.456
35719SOL     OW 9053   7.027  11.722  11.007
35719SOL    HW1 9054   7.105  11.692  11.055
35719SOL    HW2 9055   7.001  11.802  11.052
35720SOL     OW 9056  13.862   1.703   4.580
35720SOL    HW1 9057  13.800   1.661   4.640
35720SOL    HW2 9058  13.926   1.635   4.560
35721SOL     OW 9059   8.212   6.189   9.822
35721SOL    HW1 9060   8.238   6.150   9.905
35721SOL    HW2 9061   8.122   6.217   9.836
35722SOL     OW 9062   3.218   8.962   6.507
35722SOL    HW1 9063   3.126   8.935   6.504
35722SOL    HW2 9064   3.254   8.915   6.582
35723SOL     OW 9065   9.744   5.949  10.854
35723SOL    HW1 9066   9.810   6.002  10.808
35723SOL    HW2 9067   9.784   5.927  10.938
35724SOL     OW 9068   7.398   8.515  11.391
35724SOL    HW1 9069   7.350   8.483  11.467
35724SOL    HW2 9070   7.483   8.544  11.426
35725SOL     OW 9071   5.360  14.668  12.633
35725SOL    HW1 9072   5.361  14.696  12.542
35725SOL    HW2 9073   5.276  14.622  12.643
35726SOL     OW 9074  11.681  10.354  11.277
35726SOL    HW1 9075  11.625  10.381  11.350
35726SOL    HW2 9076  11.622  10.349  11.202
35727SOL     OW 9077   5.388  13.458   3.385
35727SOL    HW1 9078   5.432  13.421   3.461
35727SOL    HW2 9079   5.444  13.531   3.358
35728SOL     OW 9080  11.485   6.654   6.826
35728SOL    HW1 9081  11.580   6.656   6.812
35728SOL    HW2 9082  11.456   6.743   6.803
35729SOL     OW 9083   2.569   2.182   9.314
35729SOL    HW1 9084   2.613   2.218   9.391
35729SOL    HW2 9085   2.588   2.088   9.319
35730SOL     OW 9086   9.746  10.878  14.392
35730SOL    HW1 9087   9.766  10.967  14.421
35730SOL    HW2 9088   9.704  10.837  14.468
35731SOL     OW 9089   3.189   6.070   4.685
35731SOL    HW1 9090   3.272   6.029   4.660
35731SOL    HW2 9091   3.197   6.160   4.653
35732SOL     OW 9092   2.467   6.407  14.605
35732SOL    HW1 9093   2.507   6.488  14.636
35732SOL    HW2 9094   2.503   6.394  14.518
35733SOL     OW 9095   3.964   2.068   7.594
35733SOL    HW1 9096   4.040   2.049   7.650
35733SOL    HW2 9097   3.898   2.102   7.655
35734SOL     OW 9098   4.470   3.213  12.775
35734SOL    HW1 9099   4.435   3.290  12.820
35734SOL    HW2 9100   4.420   3.139  12.810
35735SOL     OW 9101  14.557   8.581   7.034
35735SOL    HW1 9102  14.596   8.504   7.074
35735SOL    HW2 9103  14.504   8.620   7.104
35736SOL     OW 9104  12.006   2.722   6.437
35736SOL    HW1 9105  12.017   2.663   6.512
35736SOL    HW2 9106  11.989   2.663   6.364
35737SOL     OW 9107   4.366   0.410  14.371
35737SOL    HW1 9108   4.379   0.504  14.359
35737SOL    HW2 9109   4.299   0.386  14.306
35738SOL     OW 9110   7.877  10.320   0.177
35738SOL    HW1 9111   7.874  10.230   0.211
35738SOL    HW2 9112   7.843  10.374   0.248
35739SOL     OW 9113   4.663   9.985   8.878
35739SOL    HW1 9114   4.695  10.057   8.931
35739SOL    HW2 9115   4.713   9.991   8.797
35740SOL     OW 9116   6.335   6.132   6.672
35740SOL    HW1 9117   6.418   6.111   6.630
35740SOL    HW2 9118   6.281   6.169   6.601
35741SOL     OW 9119  13.756   4.140   4.562
35741SOL    HW1 9120  13.695   4.124   4.634
35741SOL    HW2 9121  13.744   4.066   4.503
35742SOL     OW 9122   2.987  14.719   2.401
35742SOL    HW1 9123   2.893  14.733   2.392
35742SOL    HW2 9124   3.022  14.734   2.313
35743SOL     OW 9125   6.049   5.574   5.499
35743SOL    HW1 9126   5.986   5.579   5.571
35743SOL    HW2 9127   6.133   5.555   5.541
35744SOL     OW 9128   4.249   1.446  13.671
35744SOL    HW1 9129   4.188   1.386  13.714
35744SOL    HW2 9130   4.247   1.421  13.579
35745SOL     OW 9131  14.334   4.831  14.460
35745SOL    HW1 9132  14.273   4.863  14.395
35745SOL    HW2 9133  14.391   4.905  14.479
35746SOL     OW 9134   0.064   4.689  10.935
35746SOL    HW1 9135   0.112   4.609  10.915
35746SOL    HW2 9136   0.132   4.752  10.959
35747SOL     OW 9137   7.705  10.399  11.504
35747SOL    HW1 9138   7.732  10.485  11.536
35747SOL    HW2 9139   7.701  10.345  11.583
35748SOL     OW 9140   0.641   7.157   7.237
35748SOL    HW1 9141   0.624   7.093   7.168
35748SOL    HW2 9142   0.664   7.105   7.314
35749SOL     OW 9143   2.484   0.170   2.972
35749SOL    HW1 9144   2.557   0.220   2.935
35749SOL    HW2 9145   2.415   0.235   2.985
35750SOL     OW 9146   8.413  11.654   1.226
35750SOL    HW1 9147   8.494  11.669   1.177
35750SOL    HW2 9148   8.442  11.621   1.311
35751SOL     OW 9149   5.370   1.210   9.826
35751SOL    HW1 9150   5.330   1.228   9.910
35751SOL    HW2 9151   5.463   1.228   9.839
35752SOL     OW 9152   1.728  13.837   3.281
35752SOL    HW1 9153   1.748  13.892   3.357
35752SOL    HW2 9154   1.652  13.786   3.308
35753SOL     OW 9155  10.609  10.918   5.782
35753SOL    HW1 9156  10.542  10.961   5.835
35753SOL    HW2 9157  10.682  10.904   5.843
35754SOL     OW 9158   3.330   4.179   4.516
35754SOL    HW1 9159   3.236   4.160   4.512
35754SOL    HW2 9160   3.368   4.126   4.445
35755SOL     OW 9161   4.922   4.570   6.756
35755SOL    HW1 9162   4.977   4.609   6.687
35755SOL    HW2 9163   4.964   4.487   6.776
35756SOL     OW 9164   7.508   3.542   8.086
35756SOL    HW1 9165   7.550   3.564   8.003
35756SOL    HW2 9166   7.491   3.626   8.128
35757SOL     OW 9167  12.576   1.167  10.193
35757SOL    HW1 9168  12.511   1.106  10.156
35757SOL    HW2 9169  12.548   1.180  10.283
35758SOL     OW 9170   4.207  12.079   9.339
35758SOL    HW1 9171   4.215  12.124   9.424
35758SOL    HW2 9172   4.115  12.088   9.316
35759SOL     OW 9173  14.746  12.675   8.077
35759SOL    HW1 9174  14.804  12.616   8.126
35759SOL    HW2 9175  14.735  12.750   8.135
35760SOL     OW 9176   6.062   2.494   2.224
35760SOL    HW1 9177   6.117   2.572   2.236
35760SOL    HW2 9178   5.985   2.526   2.178
35761SOL     OW 9179   4.857   2.825  12.843
35761SOL    HW1 9180   4.882   2.784  12.926
35761SOL    HW2 9181   4.806   2.901  12.869
35762SOL     OW 9182  10.451   1.519  11.315
35762SOL    HW1 9183  10.388   1.471  11.369
35762SOL    HW2 9184  10.428   1.497  11.225
35763SOL     OW 9185   8.237   9.102   2.965
35763SOL    HW1 9186   8.217   9.140   3.051
35763SOL    HW2 9187   8.172   9.033   2.954
35764SOL     OW 9188   4.297  10.145   1.360
35764SOL    HW1 9189   4.309  10.162   1.266
35764SOL    HW2 9190   4.342  10.062   1.375
35765SOL     OW 9191   6.725   2.146   7.448
35765SOL    HW1 9192   6.819   2.152   7.432
35765SOL    HW2 9193   6.685   2.163   7.363
35766SOL     OW 9194  14.443  13.831   9.500
35766SOL    HW1 9195  14.505  13.847   9.429
35766SOL    HW2 9196  14.480  13.756   9.547
35767SOL     OW 9197   8.038   1.240   1.916
35767SOL    HW1 9198   7.985   1.244   1.837
35767SOL    HW2 9199   8.129   1.238   1.885
35768SOL     OW 9200   4.785   9.548  13.556
35768SOL    HW1 9201   4.794   9.455  13.578
35768SOL    HW2 9202   4.709   9.552  13.498
35769SOL     OW 9203  14.593  10.908   5.161
35769SOL    HW1 9204  14.673  10.870   5.124
35769SOL    HW2 9205  14.524  10.847   5.135
35770SOL     OW 9206  13.748  13.148  12.036
35770SOL    HW1 9207  13.753  13.132  11.942
35770SOL    HW2 9208  13.785  13.236  12.047
35771SOL     OW 9209  13.451   9.408   0.756
35771SOL    HW1 9210  13.358   9.392   0.772
35771SOL    HW2 9211  13.463   9.384   0.664
35772SOL     OW 9212  12.227  13.203   4.411
35772SOL    HW1 9213  12.280  13.174   4.485
35772SOL    HW2 9214  12.204  13.122   4.366
35773SOL     OW 9215  10.924   2.267   1.094
35773SOL    HW1 9216  10.912   2.360   1.112
35773SOL    HW2 9217  10.919   2.260   0.999
35774SOL     OW 9218   3.089   1.981   4.081
35774SOL    HW1 9219   3.148   1.948   4.014
35774SOL    HW2 9220   3.030   2.041   4.034
35775SOL     OW 9221   0.525  13.151   1.423
35775SOL    HW1 9222   0.487  13.109   1.345
35775SOL    HW2 9223   0.531  13.243   1.400
35776SOL     OW 9224   4.631   1.505   9.891
35776SOL    HW1 9225   4.678   1.587   9.878
35776SOL    HW2 9226   4.677   1.442   9.836
35777SOL     OW 9227   5.949   1.008   5.217
35777SOL    HW1 9228   6.025   0.967   5.259
35777SOL    HW2 9229   5.967   1.102   5.223
35778SOL     OW 9230   3.417  10.967   7.666
35778SOL    HW1 9231   3.382  11.020   7.738
35778SOL    HW2 9232   3.485  10.914   7.705
35779SOL     OW 9233  10.084   6.397  14.007
35779SOL    HW1 9234   9.992   6.398  13.983
35779SOL    HW2 9235  10.096   6.475  14.062
35780SOL     OW 9236  11.386   3.547   1.984
35780SOL    HW1 9237  11.406   3.637   1.959
35780SOL    HW2 9238  11.456   3.495   1.946
35781SOL     OW 9239  13.617   1.394   9.801
35781SOL    HW1 9240  13.566   1.330   9.851
35781SOL    HW2 9241  13.606   1.476   9.849
35782SOL     OW 9242  14.223   7.118   8.263
35782SOL    HW1 9243  14.267   7.159   8.188
35782SOL    HW2 9244  14.256   7.027   8.263
35783SOL     OW 9245  11.459   8.826   7.300
35783SOL    HW1 9246  11.433   8.913   7.271
35783SOL    HW2 9247  11.449   8.828   7.395
35784SOL     OW 9248  10.112  10.231   2.900
35784SOL    HW1 9249  10.178  10.169   2.931
35784SOL    HW2 9250  10.101  10.293   2.972
35785SOL     OW 9251   7.518   2.329   0.482
35785SOL    HW1 9252   7.550   2.272   0.412
35785SOL    HW2 9253   7.547   2.416   0.458
35786SOL     OW 9254   6.583   5.680  10.221
35786SOL    HW1 9255   6.521   5.710  10.154
35786SOL    HW2 9256   6.632   5.758  10.246
35787SOL     OW 9257   8.730  11.549   3.043
35787SOL    HW1 9258   8.779  11.539   3.124
35787SOL    HW2 9259   8.788  11.513   2.975
35788SOL     OW 9260   3.762   0.311   2.121
35788SOL    HW1 9261   3.681   0.268   2.150
35788SOL    HW2 9262   3.831   0.246   2.136
35789SOL     OW 9263   4.485  11.057   7.968
35789SOL    HW1 9264   4.418  10.992   7.990
35789SOL    HW2 9265   4.560  11.005   7.938
35790SOL     OW 9266   2.755   3.168   6.554
35790SOL    HW1 9267   2.803   3.120   6.621
35790SOL    HW2 9268   2.789   3.136   6.471
35791SOL     OW 9269   8.696   2.062  10.423
35791SOL    HW1 9270   8.713   1.968  10.433
35791SOL    HW2 9271   8.782   2.103  10.424
35792SOL     OW 9272   2.885   9.956   9.433
35792SOL    HW1 9273   2.811   9.933   9.376
35792SOL    HW2 9274   2.850   9.949   9.522
35793SOL     OW 9275   2.938   2.572   2.765
35793SOL    HW1 9276   2.931   2.530   2.679
35793SOL    HW2 9277   2.943   2.498   2.827
35794SOL     OW 9278   3.369   7.676  11.472
35794SOL    HW1 9279   3.365   7.765  11.436
35794SOL    HW2 9280   3.316   7.679  11.551
35795SOL     OW 9281  11.076   3.890   9.145
35795SOL    HW1 9282  11.056   3.940   9.224
35795SOL    HW2 9283  11.039   3.803   9.161
35796SOL     OW 9284  12.656  12.417   6.073
35796SOL    HW1 9285  12.623  12.500   6.039
35796SOL    HW2 9286  12.687  12.438   6.161
35797SOL     OW 9287   9.761  11.758  11.891
35797SOL    HW1 9288   9.685  11.699  11.886
35797SOL    HW2 9289   9.818  11.730  11.820
35798SOL     OW 9290  12.939   1.517   9.222
35798SOL    HW1 9291  12.950   1.504   9.317
35798SOL    HW2 9292  12.939   1.612   9.211
35799SOL     OW 9293  10.738  10.743  11.189
35799SOL    HW1 9294  10.815  10.735  11.133
35799SOL    HW2 9295  10.753  10.680  11.260
35800SOL     OW 9296  10.543   1.740  14.080
35800SOL    HW1 9297  10.466   1.767  14.029
35800SOL    HW2 9298  10.517   1.752  14.171
35801SOL     OW 9299   5.579   4.279   6.193
35801SOL    HW1 9300   5.647   4.214   6.214
35801SOL    HW2 9301   5.589   4.294   6.099
35802SOL     OW 9302   1.850  12.644   9.102
35802SOL    HW1 9303   1.771  12.606   9.140
35802SOL    HW2 9304   1.832  12.738   9.100
35803SOL     OW 9305  13.390   5.118   4.098
35803SOL    HW1 9306  13.369   5.205   4.133
35803SOL    HW2 9307  13.426   5.135   4.011
35804SOL     OW 9308   2.905   6.879  14.364
35804SOL    HW1 9309   2.949   6.829  14.295
35804SOL    HW2 9310   2.972   6.942  14.393
35805SOL     OW 9311   6.868  11.171   2.033
35805SOL    HW1 9312   6.825  11.092   2.001
35805SOL    HW2 9313   6.912  11.207   1.955
35806SOL     OW 9314  12.014   6.212  14.002
35806SOL    HW1 9315  11.930   6.193  13.962
35806SOL    HW2 9316  12.030   6.139  14.062
35807SOL     OW 9317   9.548  11.836   3.722
35807SOL    HW1 9318   9.478  11.784   3.762
35807SOL    HW2 9319   9.599  11.773   3.672
35808SOL     OW 9320  11.930  11.957   5.458
35808SOL    HW1 9321  11.993  11.904   5.507
35808SOL    HW2 9322  11.876  11.998   5.525
35809SOL     OW 9323   1.563   0.259  14.239
35809SOL    HW1 9324   1.567   0.209  14.157
35809SOL    HW2 9325   1.566   0.193  14.308
35810SOL     OW 9326   3.394   3.032  10.289
35810SOL    HW1 9327   3.366   3.022  10.380
35810SOL    HW2 9328   3.479   3.077  10.295
35811SOL     OW 9329   8.818   0.333   1.339
35811SOL    HW1 9330   8.823   0.388   1.416
35811SOL    HW2 9331   8.763   0.382   1.277
35812SOL     OW 9332   8.940   0.346   4.734
35812SOL    HW1 9333   8.996   0.311   4.802
35812SOL    HW2 9334   8.997   0.354   4.657
35813SOL     OW 9335   4.146   1.782  11.144
35813SOL    HW1 9336   4.230   1.815  11.174
35813SOL    HW2 9337   4.159   1.766  11.050
35814SOL     OW 9338   3.980  12.489   1.001
35814SOL    HW1 9339   3.972  12.527   1.089
35814SOL    HW2 9340   4.075  12.479   0.988
35815SOL     OW 9341   0.675  14.281   9.164
35815SOL    HW1 9342   0.701  14.234   9.244
35815SOL    HW2 9343   0.622  14.218   9.115
35816SOL     OW 9344   2.744   4.068   1.340
35816SOL    HW1 9345   2.830   4.109   1.324
35816SOL    HW2 9346   2.683   4.124   1.292
35817SOL     OW 9347   5.120  13.451  11.810
35817SOL    HW1 9348   5.139  13.467  11.902
35817SOL    HW2 9349   5.032  13.486  11.797
35818SOL     OW 9350   6.526  13.206   1.054
35818SOL    HW1 9351   6.461  13.273   1.032
35818SOL    HW2 9352   6.474  13.135   1.092
35819SOL     OW 9353  13.824  10.680   9.180
35819SOL    HW1 9354  13.773  10.627   9.241
35819SOL    HW2 9355  13.889  10.724   9.235
35820SOL     OW 9356   9.872   0.766  14.497
35820SOL    HW1 9357   9.856   0.731  14.409
35820SOL    HW2 9358   9.889   0.859  14.483
35821SOL     OW 9359   0.068  12.655   6.659
35821SOL    HW1 9360   0.073  12.609   6.743
35821SOL    HW2 9361   0.154  12.640   6.619
35822SOL     OW 9362   4.628   7.074   1.600
35822SOL    HW1 9363   4.555   7.090   1.539
35822SOL    HW2 9364   4.697   7.133   1.570
35823SOL     OW 9365   9.196  12.331  13.180
35823SOL    HW1 9366   9.112  12.293  13.157
35823SOL    HW2 9367   9.236  12.356  13.097
35824SOL     OW 9368  14.674   3.371  12.066
35824SOL    HW1 9369  14.749   3.332  12.111
35824SOL    HW2 9370  14.659   3.453  12.113
35825SOL     OW 9371   1.118   0.752   4.022
35825SOL    HW1 9372   1.094   0.668   4.062
35825SOL    HW2 9373   1.116   0.814   4.095
35826SOL     OW 9374   6.015   3.972  12.431
35826SOL    HW1 9375   6.078   4.043  12.420
35826SOL    HW2 9376   5.938   4.000  12.381
35827SOL     OW 9377   4.033   8.108   4.735
35827SOL    HW1 9378   4.125   8.117   4.710
35827SOL    HW2 9379   3.987   8.171   4.681
35828SOL     OW 9380   2.395  12.634   9.266
35828SOL    HW1 9381   2.426  12.547   9.293
35828SOL    HW2 9382   2.375  12.625   9.173
35829SOL     OW 9383   7.279  14.717  13.641
35829SOL    HW1 9384   7.237  14.644  13.687
35829SOL    HW2 9385   7.262  14.793  13.696
35830SOL     OW 9386  12.951   2.329  11.053
35830SOL    HW1 9387  13.026   2.383  11.028
35830SOL    HW2 9388  12.888   2.391  11.089
35831SOL     OW 9389  10.423   0.373  11.261
35831SOL    HW1 9390  10.441   0.306  11.195
35831SOL    HW2 9391  10.366   0.436  11.217
35832SOL     OW 9392  11.048  12.451   1.417
35832SOL    HW1 9393  11.083  12.428   1.331
35832SOL    HW2 9394  11.078  12.380   1.475
35833SOL     OW 9395  12.095  11.501   6.870
35833SOL    HW1 9396  12.107  11.596   6.875
35833SOL    HW2 9397  12.114  11.470   6.959
35834SOL     OW 9398   2.242   2.476  13.042
35834SOL    HW1 9399   2.262   2.441  13.129
35834SOL    HW2 9400   2.225   2.569  13.057
35835SOL     OW 9401   5.207  14.677   6.105
35835SOL    HW1 9402   5.294  14.645   6.081
35835SOL    HW2 9403   5.151  14.653   6.031
35836SOL     OW 9404  10.790   2.720  13.725
35836SOL    HW1 9405  10.766   2.631  13.701
35836SOL    HW2 9406  10.709   2.770  13.717
35837SOL     OW 9407   8.518   4.073   4.603
35837SOL    HW1 9408   8.551   4.130   4.534
35837SOL    HW2 9409   8.426   4.057   4.579
35838SOL     OW 9410   9.206   7.760  13.955
35838SOL    HW1 9411   9.184   7.753  13.862
35838SOL    HW2 9412   9.137   7.815  13.992
35839SOL     OW 9413   3.149   6.266  12.473
35839SOL    HW1 9414   3.077   6.260  12.410
35839SOL    HW2 9415   3.111   6.239  12.556
35840SOL     OW 9416  11.888   9.084   8.174
35840SOL    HW1 9417  11.957   9.019   8.165
35840SOL    HW2 9418  11.902   9.125   8.259
35841SOL     OW 9419   0.021   8.202   8.235
35841SOL    HW1 9420   0.028   8.150   8.155
35841SOL    HW2 9421  14.819   8.255   8.222
35842SOL     OW 9422   5.403  12.989   9.679
35842SOL    HW1 9423   5.421  12.899   9.707
35842SOL    HW2 9424   5.467  13.004   9.609
35843SOL     OW 9425   1.071   6.435   7.458
35843SOL    HW1 9426   1.131   6.409   7.527
35843SOL    HW2 9427   1.046   6.525   7.480
35844SOL     OW 9428  11.096   2.127  13.952
35844SOL    HW1 9429  11.178   2.114  13.905
35844SOL    HW2 9430  11.107   2.079  14.034
35845SOL     OW 9431   7.515   8.206   5.420
35845SOL    HW1 9432   7.590   8.147   5.427
35845SOL    HW2 9433   7.500   8.236   5.510
35846SOL     OW 9434   0.870  10.836  12.961
35846SOL    HW1 9435   0.942  10.894  12.938
35846SOL    HW2 9436   0.911  10.751  12.976
35847SOL     OW 9437  11.508   4.996   3.682
35847SOL    HW1 9438  11.587   4.943   3.691
35847SOL    HW2 9439  11.538   5.077   3.641
35848SOL     OW 9440   0.547   5.673   0.225
35848SOL    HW1 9441   0.525   5.764   0.207
35848SOL    HW2 9442   0.513   5.657   0.313
35849SOL     OW 9443  12.022  12.227  14.668
35849SOL    HW1 9444  12.032  12.315  14.705
35849SOL    HW2 9445  11.946  12.234  14.610
35850SOL     OW 9446   9.183   5.457  14.230
35850SOL    HW1 9447   9.224   5.372  14.246
35850SOL    HW2 9448   9.230   5.492  14.154
35851SOL     OW 9449   2.549  11.326   1.001
35851SOL    HW1 9450   2.478  11.370   1.048
35851SOL    HW2 9451   2.588  11.266   1.065
35852SOL     OW 9452  12.433  11.038   4.875
35852SOL    HW1 9453  12.407  10.994   4.956
35852SOL    HW2 9454  12.399  10.982   4.805
35853SOL     OW 9455   6.620  10.644  14.146
35853SOL    HW1 9456   6.596  10.551  14.148
35853SOL    HW2 9457   6.715  10.644  14.134
35854SOL     OW 9458   3.621   3.832   1.639
35854SOL    HW1 9459   3.654   3.824   1.728
35854SOL    HW2 9460   3.527   3.812   1.646
35855SOL     OW 9461   7.044  10.058   8.517
35855SOL    HW1 9462   7.014  10.149   8.521
35855SOL    HW2 9463   6.978  10.009   8.566
35856SOL     OW 9464  11.992  13.718   2.295
35856SOL    HW1 9465  11.900  13.702   2.317
35856SOL    HW2 9466  12.040  13.646   2.337
35857SOL     OW 9467   2.940  12.599   5.133
35857SOL    HW1 9468   2.902  12.607   5.046
35857SOL    HW2 9469   3.019  12.654   5.131
35858SOL     OW 9470   3.359  11.868   4.568
35858SOL    HW1 9471   3.297  11.798   4.549
35858SOL    HW2 9472   3.305  11.943   4.593
35859SOL     OW 9473  10.493  12.415   1.687
35859SOL    HW1 9474  10.533  12.343   1.736
35859SOL    HW2 9475  10.404  12.385   1.670
35860SOL     OW 9476   5.384  10.119   0.364
35860SOL    HW1 9477   5.315  10.056   0.342
35860SOL    HW2 9478   5.457  10.064   0.394
35861SOL     OW 9479   1.298   5.174  14.805
35861SOL    HW1 9480   1.260   5.187   0.015
35861SOL    HW2 9481   1.313   5.080  14.799
35862SOL     OW 9482   9.277  12.178   4.240
35862SOL    HW1 9483   9.321  12.112   4.293
35862SOL    HW2 9484   9.197  12.136   4.210
35863SOL     OW 9485  10.010  12.441   2.625
35863SOL    HW1 9486   9.974  12.526   2.603
35863SOL    HW2 9487  10.101  12.458   2.648
35864SOL     OW 9488  11.448   7.050  14.796
35864SOL    HW1 9489  11.449   6.968  14.846
35864SOL    HW2 9490  11.357   7.077  14.795
35865SOL     OW 9491  13.302   5.296   8.106
35865SOL    HW1 9492  13.233   5.236   8.133
35865SOL    HW2 9493  13.349   5.248   8.037
35866SOL     OW 9494  14.431  10.908   1.060
35866SOL    HW1 9495  14.340  10.934   1.074
35866SOL    HW2 9496  14.482  10.968   1.114
35867SOL     OW 9497   9.054   2.171  14.791
35867SOL    HW1 9498   9.067   2.259  14.754
35867SOL    HW2 9499   8.961   2.153  14.780
35868SOL     OW 9500  10.770   9.086   5.017
35868SOL    HW1 9501  10.729   9.089   5.103
35868SOL    HW2 9502  10.701   9.116   4.957
35869SOL     OW 9503  12.232   7.950   6.083
35869SOL    HW1 9504  12.220   8.021   6.020
35869SOL    HW2 9505  12.143   7.929   6.114
35870SOL     OW 9506   0.792   9.302   6.044
35870SOL    HW1 9507   0.742   9.226   6.071
35870SOL    HW2 9508   0.731   9.353   5.990
35871SOL     OW 9509   9.257   9.121  14.583
35871SOL    HW1 9510   9.193   9.051  14.594
35871SOL    HW2 9511   9.214   9.200  14.616
35872SOL     OW 9512   3.361   9.638   4.909
35872SOL    HW1 9513   3.351   9.630   4.814
35872SOL    HW2 9514   3.351   9.548   4.942
35873SOL     OW 9515   1.572   5.509   7.120
35873SOL    HW1 9516   1.521   5.434   7.151
35873SOL    HW2 9517   1.506   5.570   7.086
35874SOL     OW 9518   8.002  12.444  11.856
35874SOL    HW1 9519   7.923  12.395  11.880
35874SOL    HW2 9520   7.998  12.523  11.910
35875SOL     OW 9521   7.035   2.174   9.867
35875SOL    HW1 9522   6.972   2.210   9.929
35875SOL    HW2 9523   6.988   2.104   9.822
35876SOL     OW 9524   1.154   5.938  12.709
35876SOL    HW1 9525   1.164   5.848  12.742
35876SOL    HW2 9526   1.110   5.928  12.625
35877SOL     OW 9527   8.825   8.877   2.435
35877SOL    HW1 9528   8.844   8.792   2.396
35877SOL    HW2 9529   8.843   8.866   2.528
35878SOL     OW 9530   5.803   4.935   9.572
35878SOL    HW1 9531   5.798   4.850   9.528
35878SOL    HW2 9532   5.852   4.917   9.652
35879SOL     OW 9533   8.318   9.496   6.169
35879SOL    HW1 9534   8.390   9.559   6.172
35879SOL    HW2 9535   8.340   9.437   6.097
35880SOL     OW 9536   9.577   3.525   6.234
35880SOL    HW1 9537   9.614   3.561   6.315
35880SOL    HW2 9538   9.628   3.446   6.218
35881SOL     OW 9539   8.051   6.293   2.277
35881SOL    HW1 9540   8.065   6.315   2.369
35881SOL    HW2 9541   7.956   6.285   2.269
35882SOL     OW 9542   0.077  13.628   9.286
35882SOL    HW1 9543   0.140  13.576   9.336
35882SOL    HW2 9544   0.010  13.565   9.259
35883SOL     OW 9545  13.317   6.164   7.623
35883SOL    HW1 9546  13.381   6.201   7.561
35883SOL    HW2 9547  13.325   6.219   7.701
35884SOL     OW 9548  14.513   2.431  14.500
35884SOL    HW1 9549  14.475   2.485  14.569
35884SOL    HW2 9550  14.554   2.494  14.441
35885SOL     OW 9551   3.325   8.502  13.681
35885SOL    HW1 9552   3.383   8.567  13.722
35885SOL    HW2 9553   3.357   8.495  13.591
35886SOL     OW 9554   1.183   0.647   5.708
35886SOL    HW1 9555   1.110   0.708   5.715
35886SOL    HW2 9556   1.141   0.561   5.704
35887SOL     OW 9557   4.500   6.171  12.400
35887SOL    HW1 9558   4.436   6.103  12.423
35887SOL    HW2 9559   4.484   6.240  12.465
35888SOL     OW 9560   2.516   6.582  13.345
35888SOL    HW1 9561   2.550   6.651  13.402
35888SOL    HW2 9562   2.464   6.629  13.280
35889SOL     OW 9563   0.787   2.219   4.411
35889SOL    HW1 9564   0.730   2.284   4.451
35889SOL    HW2 9565   0.843   2.269   4.351
35890SOL     OW 9566  10.145   6.159  14.764
35890SOL    HW1 9567  10.141   6.094  14.694
35890SOL    HW2 9568  10.234   6.194  14.759
35891SOL     OW 9569   0.326   2.917   9.061
35891SOL    HW1 9570   0.412   2.884   9.034
35891SOL    HW2 9571   0.268   2.898   8.987
35892SOL     OW 9572   5.665   4.335  13.282
35892SOL    HW1 9573   5.665   4.399  13.211
35892SOL    HW2 9574   5.582   4.349  13.327
35893SOL     OW 9575   4.672   2.711  13.630
35893SOL    HW1 9576   4.605   2.748  13.688
35893SOL    HW2 9577   4.622   2.668  13.561
35894SOL     OW 9578   8.473   0.259  12.663
35894SOL    HW1 9579   8.540   0.258  12.731
35894SOL    HW2 9580   8.481   0.346  12.623
35895SOL     OW 9581   9.513   9.169  11.898
35895SOL    HW1 9582   9.428   9.130  11.921
35895SOL    HW2 9583   9.510   9.176  11.802
35896SOL     OW 9584   2.610   2.154   7.586
35896SOL    HW1 9585   2.639   2.240   7.555
35896SOL    HW2 9586   2.636   2.151   7.677
35897SOL     OW 9587   9.310   2.094  12.014
35897SOL    HW1 9588   9.281   2.123  11.927
35897SOL    HW2 9589   9.265   2.153  12.075
35898SOL     OW 9590  11.804  13.506   4.485
35898SOL    HW1 9591  11.887  13.461   4.502
35898SOL    HW2 9592  11.814  13.591   4.528
35899SOL     OW 9593  13.288   1.677  10.357
35899SOL    HW1 9594  13.255   1.660  10.445
35899SOL    HW2 9595  13.325   1.765  10.362
35900SOL     OW 9596   6.643  13.406  12.231
35900SOL    HW1 9597   6.634  13.423  12.137
35900SOL    HW2 9598   6.553  13.397  12.261
35901SOL     OW 9599   7.526   0.723   8.562
35901SOL    HW1 9600   7.569   0.653   8.611
35901SOL    HW2 9601   7.593   0.791   8.554
35902SOL     OW 9602   6.585   4.472   2.553
35902SOL    HW1 9603   6.618   4.529   2.483
35902SOL    HW2 9604   6.662   4.422   2.580
35903SOL     OW 9605   1.419  11.472  10.347
35903SOL    HW1 9606   1.377  11.493  10.263
35903SOL    HW2 9607   1.488  11.538  10.356
35904SOL     OW 9608   8.774   9.691   6.370
35904SOL    HW1 9609   8.748   9.706   6.461
35904SOL    HW2 9610   8.867   9.714   6.367
35905SOL     OW 9611  13.977   2.010  14.098
35905SOL    HW1 9612  13.979   2.033  14.005
35905SOL    HW2 9613  13.892   1.967  14.110
35906SOL     OW 9614  14.186   3.519  12.719
35906SOL    HW1 9615  14.247   3.577  12.764
35906SOL    HW2 9616  14.158   3.568  12.642
35907SOL     OW 9617   3.913   4.147   0.029
35907SOL    HW1 9618   3.998   4.171  14.869
35907SOL    HW2 9619   3.855   4.220   0.006
35908SOL     OW 9620   0.400  13.773  13.253
35908SOL    HW1 9621   0.318  13.772  13.204
35908SOL    HW2 9622   0.390  13.705  13.319
35909SOL     OW 9623   1.978  12.515   8.033
35909SOL    HW1 9624   1.951  12.438   8.083
35909SOL    HW2 9625   1.930  12.587   8.072
35910SOL     OW 9626   5.128   2.322  12.362
35910SOL    HW1 9627   5.075   2.373  12.300
35910SOL    HW2 9628   5.129   2.375  12.442
35911SOL     OW 9629   9.886  14.734  10.564
35911SOL    HW1 9630   9.932  14.716  10.646
35911SOL    HW2 9631   9.817  14.667  10.560
35912SOL     OW 9632  14.761   6.739   3.837
35912SOL    HW1 9633  14.770   6.699   3.750
35912SOL    HW2 9634  14.849   6.770   3.858
35913SOL     OW 9635   9.896   7.973   1.244
35913SOL    HW1 9636   9.923   8.042   1.183
35913SOL    HW2 9637   9.930   7.892   1.204
35914SOL     OW 9638   0.352   6.244   5.241
35914SOL    HW1 9639   0.302   6.251   5.322
35914SOL    HW2 9640   0.286   6.237   5.172
35915SOL     OW 9641   5.664  14.776  13.397
35915SOL    HW1 9642   5.686  14.704  13.337
35915SOL    HW2 9643   5.643  14.732  13.479
35916SOL     OW 9644  10.469   4.896   7.689
35916SOL    HW1 9645  10.406   4.864   7.625
35916SOL    HW2 9646  10.554   4.871   7.654
35917SOL     OW 9647   7.335   9.633   1.825
35917SOL    HW1 9648   7.343   9.542   1.852
35917SOL    HW2 9649   7.288   9.630   1.742
35918SOL     OW 9650   5.700   6.067  11.316
35918SOL    HW1 9651   5.783   6.019  11.320
35918SOL    HW2 9652   5.725   6.159  11.323
35919SOL     OW 9653  13.062  14.062   7.034
35919SOL    HW1 9654  13.112  13.983   7.012
35919SOL    HW2 9655  12.991  14.065   6.969
35920SOL     OW 9656   2.549  13.905   4.418
35920SOL    HW1 9657   2.534  13.857   4.337
35920SOL    HW2 9658   2.628  13.866   4.455
35921SOL     OW 9659   9.464  10.568   8.777
35921SOL    HW1 9660   9.503  10.523   8.702
35921SOL    HW2 9661   9.534  10.624   8.810
35922SOL     OW 9662  12.361   9.813   0.947
35922SOL    HW1 9663  12.402   9.746   1.002
35922SOL    HW2 9664  12.434   9.867   0.916
35923SOL     OW 9665   8.778   5.073  12.943
35923SOL    HW1 9666   8.692   5.080  12.904
35923SOL    HW2 9667   8.830   5.025  12.879
35924SOL     OW 9668   3.656  13.342   2.932
35924SOL    HW1 9669   3.699  13.425   2.950
35924SOL    HW2 9670   3.715  13.297   2.871
35925SOL     OW 9671   1.813   2.524   5.817
35925SOL    HW1 9672   1.764   2.600   5.849
35925SOL    HW2 9673   1.885   2.561   5.767
35926SOL     OW 9674   0.146  12.215  10.136
35926SOL    HW1 9675   0.196  12.285  10.177
35926SOL    HW2 9676   0.116  12.162  10.210
35927SOL     OW 9677   1.710   1.777   9.554
35927SOL    HW1 9678   1.709   1.693   9.598
35927SOL    HW2 9679   1.709   1.756   9.461
35928SOL     OW 9680  10.876   2.442  13.634
35928SOL    HW1 9681  10.961   2.485  13.633
35928SOL    HW2 9682  10.837   2.464  13.549
35929SOL     OW 9683   1.915   7.258  14.218
35929SOL    HW1 9684   1.938   7.339  14.265
35929SOL    HW2 9685   1.998   7.221  14.191
35930SOL     OW 9686  11.625  13.564   0.276
35930SOL    HW1 9687  11.586  13.550   0.190
35930SOL    HW2 9688  11.704  13.614   0.259
35931SOL     OW 9689   0.884   9.909   1.890
35931SOL    HW1 9690   0.958   9.968   1.904
35931SOL    HW2 9691   0.914   9.849   1.821
35932SOL     OW 9692   5.032  13.918   6.733
35932SOL    HW1 9693   5.060  14.009   6.742
35932SOL    HW2 9694   5.072  13.873   6.807
35933SOL     OW 9695   3.641  12.834   6.252
35933SOL    HW1 9696   3.687  12.836   6.336
35933SOL    HW2 9697   3.573  12.767   6.265
35934SOL     OW 9698  12.107   8.449   0.198
35934SOL    HW1 9699  12.056   8.454   0.117
35934SOL    HW2 9700  12.104   8.537   0.234
35935SOL     OW 9701  12.937  14.579  10.631
35935SOL    HW1 9702  12.859  14.545  10.675
35935SOL    HW2 9703  12.930  14.674  10.640
35936SOL     OW 9704   3.479   7.155   3.227
35936SOL    HW1 9705   3.429   7.079   3.197
35936SOL    HW2 9706   3.569   7.136   3.202
35937SOL     OW 9707  12.694   2.361   5.397
35937SOL    HW1 9708  12.645   2.278   5.397
35937SOL    HW2 9709  12.785   2.335   5.387
35938SOL     OW 9710  12.609   2.517   3.468
35938SOL    HW1 9711  12.607   2.603   3.511
35938SOL    HW2 9712  12.691   2.517   3.419
35939SOL     OW 9713   6.178   6.454  11.093
35939SOL    HW1 9714   6.104   6.394  11.100
35939SOL    HW2 9715   6.177   6.482  11.001
35940SOL     OW 9716   3.896  12.068   2.363
35940SOL    HW1 9717   3.806  12.057   2.394
35940SOL    HW2 9718   3.950  12.040   2.438
35941SOL     OW 9719   4.246  11.390   4.670
35941SOL    HW1 9720   4.316  11.433   4.621
35941SOL    HW2 9721   4.269  11.297   4.666
35942SOL     OW 9722  13.698   6.063   7.339
35942SOL    HW1 9723  13.732   6.092   7.424
35942SOL    HW2 9724  13.756   6.104   7.275
35943SOL     OW 9725  10.714  14.774  13.258
35943SOL    HW1 9726  10.693  14.798  13.168
35943SOL    HW2 9727  10.768  14.695  13.250
35944SOL     OW 9728   8.508  13.100   9.555
35944SOL    HW1 9729   8.482  13.190   9.535
35944SOL    HW2 9730   8.574  13.109   9.624
35945SOL     OW 9731   5.024  13.392   7.285
35945SOL    HW1 9732   5.084  13.363   7.354
35945SOL    HW2 9733   4.966  13.454   7.329
35946SOL     OW 9734   1.452  13.065  14.584
35946SOL    HW1 9735   1.519  13.133  14.594
35946SOL    HW2 9736   1.478  12.997  14.646
35947SOL     OW 9737   2.917   7.831  11.981
35947SOL    HW1 9738   2.895   7.921  11.957
35947SOL    HW2 9739   2.954   7.793  11.902
35948SOL     OW 9740   1.735   5.288   1.624
35948SOL    HW1 9741   1.705   5.231   1.695
35948SOL    HW2 9742   1.656   5.332   1.593
35949SOL     OW 9743   3.452  11.479   7.432
35949SOL    HW1 9744   3.424  11.451   7.519
35949SOL    HW2 9745   3.492  11.564   7.446
35950SOL     OW 9746  12.153   7.751  11.444
35950SOL    HW1 9747  12.175   7.715  11.530
35950SOL    HW2 9748  12.225   7.723  11.387
35951SOL     OW 9749   2.095   6.244   9.432
35951SOL    HW1 9750   2.105   6.290   9.516
35951SOL    HW2 9751   2.175   6.265   9.384
35952SOL     OW 9752   8.116   7.648  10.256
35952SOL    HW1 9753   8.123   7.630  10.349
35952SOL    HW2 9754   8.130   7.742  10.248
35953SOL     OW 9755  12.798  13.834   7.140
35953SOL    HW1 9756  12.830  13.923   7.123
35953SOL    HW2 9757  12.869  13.777   7.110
35954SOL     OW 9758   7.702  14.024  11.651
35954SOL    HW1 9759   7.709  14.094  11.716
35954SOL    HW2 9760   7.714  14.068  11.567
35955SOL     OW 9761   8.822  13.099   4.912
35955SOL    HW1 9762   8.787  13.100   4.823
35955SOL    HW2 9763   8.848  13.189   4.929
35956SOL     OW 9764   2.181   1.009  11.869
35956SOL    HW1 9765   2.174   1.013  11.964
35956SOL    HW2 9766   2.091   1.021  11.837
35957SOL     OW 9767   7.235  14.741   3.271
35957SOL    HW1 9768   7.273  14.759   3.356
35957SOL    HW2 9769   7.257  14.650   3.253
35958SOL     OW 9770  10.763   3.265   4.589
35958SOL    HW1 9771  10.828   3.312   4.643
35958SOL    HW2 9772  10.772   3.304   4.502
35959SOL     OW 9773  11.812   7.948  10.391
35959SOL    HW1 9774  11.876   7.997  10.340
35959SOL    HW2 9775  11.737   8.006  10.399
35960SOL     OW 9776  10.727   9.167   4.132
35960SOL    HW1 9777  10.730   9.216   4.214
35960SOL    HW2 9778  10.799   9.202   4.080
35961SOL     OW 9779   3.893  11.025  12.773
35961SOL    HW1 9780   3.971  10.987  12.814
35961SOL    HW2 9781   3.864  10.958  12.711
35962SOL     OW 9782   4.025   9.929  12.331
35962SOL    HW1 9783   4.035   9.979  12.412
35962SOL    HW2 9784   4.091   9.966  12.273
35963SOL     OW 9785  14.402   1.100   4.997
35963SOL    HW1 9786  14.401   1.182   4.948
35963SOL    HW2 9787  14.396   1.126   5.089
35964SOL     OW 9788  12.860   4.893   6.075
35964SOL    HW1 9789  12.928   4.859   6.134
35964SOL    HW2 9790  12.780   4.848   6.103
35965SOL     OW 9791  10.026  11.287  10.230
35965SOL    HW1 9792  10.115  11.252  10.222
35965SOL    HW2 9793   9.973  11.212  10.257
35966SOL     OW 9794   3.225  13.970   5.218
35966SOL    HW1 9795   3.259  14.043   5.270
35966SOL    HW2 9796   3.301  13.915   5.201
35967SOL     OW 9797   2.148   7.452  10.605
35967SOL    HW1 9798   2.075   7.406  10.648
35967SOL    HW2 9799   2.200   7.488  10.677
35968SOL     OW 9800  10.462   0.671   9.560
35968SOL    HW1 9801  10.401   0.714   9.620
35968SOL    HW2 9802  10.405   0.623   9.500
35969SOL     OW 9803   7.415  10.772   3.761
35969SOL    HW1 9804   7.419  10.681   3.788
35969SOL    HW2 9805   7.393  10.820   3.842
35970SOL     OW 9806   1.134  11.700   9.684
35970SOL    HW1 9807   1.156  11.790   9.658
35970SOL    HW2 9808   1.203  11.647   9.644
35971SOL     OW 9809   3.737   3.666  10.133
35971SOL    HW1 9810   3.658   3.681  10.185
35971SOL    HW2 9811   3.733   3.574  10.109
35972SOL     OW 9812   2.421   1.308  13.042
35972SOL    HW1 9813   2.470   1.376  12.996
35972SOL    HW2 9814   2.363   1.271  12.976
35973SOL     OW 9815  14.402  14.513   4.011
35973SOL    HW1 9816  14.343  14.497   4.085
35973SOL    HW2 9817  14.488  14.483   4.043
35974SOL     OW 9818   4.062  11.840  14.689
35974SOL    HW1 9819   4.034  11.787  14.764
35974SOL    HW2 9820   4.119  11.907  14.728
35975SOL     OW 9821  10.011   6.388  13.479
35975SOL    HW1 9822  10.072   6.322  13.447
35975SOL    HW2 9823   9.993   6.444  13.404
35976SOL     OW 9824   4.422   4.604   5.318
35976SOL    HW1 9825   4.399   4.595   5.410
35976SOL    HW2 9826   4.339   4.599   5.272
35977SOL     OW 9827   3.936   1.775   3.732
35977SOL    HW1 9828   3.854   1.824   3.744
35977SOL    HW2 9829   3.948   1.728   3.814
35978SOL     OW 9830   1.186   3.404   8.065
35978SOL    HW1 9831   1.133   3.414   7.986
35978SOL    HW2 9832   1.204   3.311   8.070
35979SOL     OW 9833   6.025   0.537  12.471
35979SOL    HW1 9834   6.053   0.554  12.381
35979SOL    HW2 9835   6.070   0.455  12.495
35980SOL     OW 9836   4.369  12.882   2.607
35980SOL    HW1 9837   4.449  12.919   2.570
35980SOL    HW2 9838   4.299  12.927   2.561
35981SOL     OW 9839  12.918  12.471   1.134
35981SOL    HW1 9840  12.826  12.468   1.109
35981SOL    HW2 9841  12.959  12.528   1.069
35982SOL     OW 9842  14.000  11.312   3.746
35982SOL    HW1 9843  13.948  11.245   3.789
35982SOL    HW2 9844  13.992  11.389   3.803
35983SOL     OW 9845   0.930   8.745   6.961
35983SOL    HW1 9846   0.835   8.753   6.954
35983SOL    HW2 9847   0.960   8.734   6.870
35984SOL     OW 9848  10.596   1.115   0.200
35984SOL    HW1 9849  10.602   1.052   0.128
35984SOL    HW2 9850  10.645   1.191   0.169
35985SOL     OW 9851   6.480   2.087   1.362
35985SOL    HW1 9852   6.435   2.006   1.385
35985SOL    HW2 9853   6.528   2.111   1.442
35986SOL     OW 9854   5.242  12.521  12.734
35986SOL    HW1 9855   5.201  12.591  12.784
35986SOL    HW2 9856   5.205  12.529  12.646
35987SOL     OW 9857  10.849   0.567   6.696
35987SOL    HW1 9858  10.924   0.512   6.719
35987SOL    HW2 9859  10.773   0.520   6.730
35988SOL     OW 9860  11.111   8.153   6.839
35988SOL    HW1 9861  11.184   8.101   6.871
35988SOL    HW2 9862  11.151   8.232   6.803
35989SOL     OW 9863   2.902   7.870   8.100
35989SOL    HW1 9864   2.890   7.875   8.006
35989SOL    HW2 9865   2.996   7.879   8.114
35990SOL     OW 9866   7.406   0.654   7.548
35990SOL    HW1 9867   7.485   0.705   7.566
35990SOL    HW2 9868   7.422   0.569   7.590
35991SOL     OW 9869   4.800   0.983   0.270
35991SOL    HW1 9870   4.803   1.073   0.303
35991SOL    HW2 9871   4.889   0.949   0.285
35992SOL     OW 9872   3.675   4.839   7.225
35992SOL    HW1 9873   3.581   4.829   7.236
35992SOL    HW2 9874   3.686   4.867   7.134
35993SOL     OW 9875   8.996   2.112   0.995
35993SOL    HW1 9876   9.008   2.188   1.051
35993SOL    HW2 9877   9.083   2.072   0.990
35994SOL     OW 9878   4.861   1.497   3.906
35994SOL    HW1 9879   4.889   1.559   3.839
35994SOL    HW2 9880   4.822   1.425   3.857
35995SOL     OW 9881  12.192   3.307  13.183
35995SOL    HW1 9882  12.152   3.224  13.158
35995SOL    HW2 9883  12.129   3.347  13.243
35996SOL     OW 9884   6.628   6.703   1.849
35996SOL    HW1 9885   6.608   6.744   1.765
35996SOL    HW2 9886   6.598   6.766   1.915
35997SOL     OW 9887   1.503   9.767   3.602
35997SOL    HW1 9888   1.514   9.831   3.673
35997SOL    HW2 9889   1.560   9.800   3.532
35998SOL     OW 9890  10.418   3.309   4.531
35998SOL    HW1 9891  10.469   3.229   4.519
35998SOL    HW2 9892  10.478   3.369   4.576
35999SOL     OW 9893   0.318   4.663   9.143
35999SOL    HW1 9894   0.366   4.584   9.169
35999SOL    HW2 9895   0.381   4.734   9.155
36000SOL     OW 9896  14.095  12.818   6.880
36000SOL    HW1 9897  14.151  12.749   6.845
36000SOL    HW2 9898  14.127  12.832   6.969
36001SOL     OW 9899   0.780  13.057  11.062
36001SOL    HW1 9900   0.765  12.966  11.034
36001SOL    HW2 9901   0.874  13.061  11.081
36002SOL     OW 9902  12.725   4.556   6.368
36002SOL    HW1 9903  12.813   4.550   6.332
36002SOL    HW2 9904  12.668   4.561   6.292
36003SOL     OW 9905   4.310   1.981   9.756
36003SOL    HW1 9906   4.319   2.051   9.693
36003SOL    HW2 9907   4.232   2.003   9.807
36004SOL     OW 9908  12.548  11.444   3.626
36004SOL    HW1 9909  12.584  11.456   3.538
36004SOL    HW2 9910  12.531  11.533   3.657
36005SOL     OW 9911  11.635   4.943  14.622
36005SOL    HW1 9912  11.552   4.896  14.633
36005SOL    HW2 9913  11.639   4.961  14.528
36006SOL     OW 9914   2.991   4.191   1.324
36006SOL    HW1 9915   2.953   4.277   1.339
36006SOL    HW2 9916   3.086   4.205   1.333
36007SOL     OW 9917  14.046   8.564  12.680
36007SOL    HW1 9918  14.000   8.494  12.634
36007SOL    HW2 9919  14.043   8.539  12.772
36008SOL     OW 9920   4.542  14.658   3.955
36008SOL    HW1 9921   4.466  14.632   4.008
36008SOL    HW2 9922   4.520  14.629   3.866
36009SOL     OW 9923   7.858  10.065   3.031
36009SOL    HW1 9924   7.898  10.100   2.952
36009SOL    HW2 9925   7.900   9.980   3.044
36010SOL     OW 9926  11.684   7.457  12.967
36010SOL    HW1 9927  11.596   7.422  12.956
36010SOL    HW2 9928  11.732   7.388  13.013
36011SOL     OW 9929  11.936   8.267   8.315
36011SOL    HW1 9930  11.890   8.210   8.376
36011SOL    HW2 9931  11.967   8.340   8.369
36012SOL     OW 9932  14.491   0.324  13.253
36012SOL    HW1 9933  14.459   0.241  13.217
36012SOL    HW2 9934  14.460   0.325  13.343
36013SOL     OW 9935   7.923  10.508   1.204
36013SOL    HW1 9936   7.879  10.545   1.281
36013SOL    HW2 9937   7.918  10.413   1.218
36014SOL     OW 9938   8.525   2.618   0.496
36014SOL    HW1 9939   8.620   2.609   0.493
36014SOL    HW2 9940   8.509   2.712   0.486
36015SOL     OW 9941   3.701  11.769   4.101
36015SOL    HW1 9942   3.663  11.718   4.029
36015SOL    HW2 9943   3.711  11.706   4.172
36016SOL     OW 9944   7.785  12.076   8.765
36016SOL    HW1 9945   7.822  12.017   8.700
36016SOL    HW2 9946   7.690  12.063   8.758
36017SOL     OW 9947  10.050  11.290  11.654
36017SOL    HW1 9948  10.132  11.327  11.621
36017SOL    HW2 9949  10.078  11.229  11.723
36018SOL     OW 9950   0.851   1.490   4.101
36018SOL    HW1 9951   0.931   1.444   4.126
36018SOL    HW2 9952   0.822   1.445   4.021
36019SOL     OW 9953   0.636   7.496   6.503
36019SOL    HW1 9954   0.616   7.451   6.421
36019SOL    HW2 9955   0.731   7.500   6.506
36020SOL     OW 9956   5.930   4.235  14.820
36020SOL    HW1 9957   5.848   4.277  14.844
36020SOL    HW2 9958   5.982   4.305  14.781
36021SOL     OW 9959   2.639   4.363   2.465
36021SOL    HW1 9960   2.591   4.324   2.538
36021SOL    HW2 9961   2.571   4.386   2.401
36022SOL     OW 9962   1.461  14.726   1.111
36022SOL    HW1 9963   1.445  14.818   1.129
36022SOL    HW2 9964   1.499  14.692   1.192
36023SOL     OW 9965  11.882   2.474   9.475
36023SOL    HW1 9966  11.970   2.509   9.486
36023SOL    HW2 9967  11.894   2.393   9.426
36024SOL     OW 9968   5.566   9.871  11.436
36024SOL    HW1 9969   5.616   9.847  11.514
36024SOL    HW2 9970   5.542   9.788  11.397
36025SOL     OW 9971   4.655   9.253   6.721
36025SOL    HW1 9972   4.692   9.335   6.689
36025SOL    HW2 9973   4.593   9.280   6.789
36026SOL     OW 9974   7.961  12.782  10.873
36026SOL    HW1 9975   8.043  12.765  10.827
36026SOL    HW2 9976   7.895  12.733  10.824
36027SOL     OW 9977   4.916   2.199  10.180
36027SOL    HW1 9978   4.838   2.193  10.235
36027SOL    HW2 9979   4.883   2.219  10.093
36028SOL     OW 9980   8.652   8.887  13.118
36028SOL    HW1 9981   8.595   8.834  13.063
36028SOL    HW2 9982   8.643   8.849  13.206
36029SOL     OW 9983  12.004   5.851   9.247
36029SOL    HW1 9984  12.004   5.947   9.244
36029SOL    HW2 9985  11.948   5.825   9.174
36030SOL     OW 9986   3.877   6.118   8.055
36030SOL    HW1 9987   3.894   6.167   8.136
36030SOL    HW2 9988   3.863   6.028   8.085
36031SOL     OW 9989   2.326  12.267   5.960
36031SOL    HW1 9990   2.237  12.253   5.992
36031SOL    HW2 9991   2.328  12.359   5.934
36032SOL     OW 9992   4.900   1.684   2.416
36032SOL    HW1 9993   4.838   1.744   2.456
36032SOL    HW2 9994   4.851   1.603   2.405
36033SOL     OW 9995   5.869   1.994   0.897
36033SOL    HW1 9996   5.962   2.000   0.917
36033SOL    HW2 9997   5.859   1.910   0.851
36034SOL     OW 9998  13.987   6.711   3.522
36034SOL    HW1 9999  13.936   6.792   3.515
36034SOL    HW210000  13.987   6.691   3.616
36035SOL     OW10001   4.601   4.849   0.885
36035SOL    HW110002   4.675   4.860   0.825
36035SOL    HW210003   4.631   4.886   0.968
36036SOL     OW10004  14.795   1.049   9.082
36036SOL    HW110005  14.774   1.005   9.164
36036SOL    HW210006  14.772   0.985   9.014
36037SOL     OW10007  11.768  11.126  14.129
36037SOL    HW110008  11.706  11.059  14.159
36037SOL    HW210009  11.741  11.146  14.040
36038SOL     OW10010  11.533  11.283  14.724
36038SOL    HW110011  11.607  11.223  14.712
36038SOL    HW210012  11.569  11.357  14.772
36039SOL     OW10013   2.600   8.562   6.032
36039SOL    HW110014   2.517   8.566   5.983
36039SOL    HW210015   2.620   8.653   6.053
36040SOL     OW10016  11.791   7.509   8.503
36040SOL    HW110017  11.746   7.470   8.578
36040SOL    HW210018  11.807   7.436   8.443
36041SOL     OW10019  13.415   3.586   2.731
36041SOL    HW110020  13.367   3.666   2.712
36041SOL    HW210021  13.397   3.568   2.823
36042SOL     OW10022  14.416   5.590   0.128
36042SOL    HW110023  14.336   5.602   0.179
36042SOL    HW210024  14.444   5.678   0.106
36043SOL     OW10025  10.859   3.636   7.546
36043SOL    HW110026  10.943   3.663   7.509
36043SOL    HW210027  10.835   3.706   7.606
36044SOL     OW10028   5.622   7.295   9.583
36044SOL    HW110029   5.689   7.231   9.559
36044SOL    HW210030   5.601   7.276   9.674
36045SOL     OW10031  13.996  10.291   4.200
36045SOL    HW110032  13.934  10.277   4.271
36045SOL    HW210033  14.074  10.242   4.227
36046SOL     OW10034  12.492   8.419   6.178
36046SOL    HW110035  12.440   8.360   6.232
36046SOL    HW210036  12.435   8.494   6.162
36047SOL     OW10037   3.131   2.812  13.774
36047SOL    HW110038   3.107   2.732  13.728
36047SOL    HW210039   3.209   2.844  13.729
36048SOL     OW10040  10.183  10.718  11.428
36048SOL    HW110041  10.113  10.755  11.482
36048SOL    HW210042  10.210  10.639  11.475
36049SOL     OW10043  12.988   3.976   4.922
36049SOL    HW110044  12.957   3.982   4.832
36049SOL    HW210045  12.916   4.014   4.974
36050SOL     OW10046  13.665  12.897   3.308
36050SOL    HW110047  13.684  12.991   3.308
36050SOL    HW210048  13.728  12.860   3.370
36051SOL     OW10049   7.059   9.209   3.263
36051SOL    HW110050   7.018   9.206   3.349
36051SOL    HW210051   6.993   9.173   3.204
36052SOL     OW10052  14.161   9.981   5.295
36052SOL    HW110053  14.184   9.895   5.262
36052SOL    HW210054  14.227   9.999   5.363
36053SOL     OW10055  14.514   6.390   3.951
36053SOL    HW110056  14.542   6.454   4.017
36053SOL    HW210057  14.434   6.428   3.914
36054SOL     OW10058   8.524  14.766   0.476
36054SOL    HW110059   8.491  14.689   0.522
36054SOL    HW210060   8.541  14.829   0.546
36055SOL     OW10061   5.869   8.832  12.648
36055SOL    HW110062   5.949   8.840  12.700
36055SOL    HW210063   5.815   8.769  12.697
36056SOL     OW10064   9.061  11.771   9.761
36056SOL    HW110065   9.147  11.734   9.779
36056SOL    HW210066   9.002  11.695   9.761
36057SOL     OW10067   3.728  13.193   4.035
36057SOL    HW110068   3.780  13.126   4.080
36057SOL    HW210069   3.705  13.256   4.103
36058SOL     OW10070  10.961  11.497  10.559
36058SOL    HW110071  10.885  11.525  10.609
36058SOL    HW210072  11.036  11.525  10.611
36059SOL     OW10073   8.855   9.177   9.386
36059SOL    HW110074   8.822   9.255   9.431
36059SOL    HW210075   8.809   9.104   9.427
36060SOL     OW10076   0.896   8.172  13.426
36060SOL    HW110077   0.812   8.132  13.404
36060SOL    HW210078   0.875   8.234  13.496
36061SOL     OW10079   5.542   5.376   9.605
36061SOL    HW110080   5.595   5.335   9.673
36061SOL    HW210081   5.452   5.366   9.635
36062SOL     OW10082  12.519  10.313   5.702
36062SOL    HW110083  12.503  10.225   5.735
36062SOL    HW210084  12.499  10.371   5.776
36063SOL     OW10085   3.495   8.996   3.862
36063SOL    HW110086   3.524   8.971   3.949
36063SOL    HW210087   3.506   9.091   3.859
36064SOL     OW10088   5.563   0.523  10.220
36064SOL    HW110089   5.568   0.586  10.148
36064SOL    HW210090   5.472   0.528  10.250
36065SOL     OW10091   1.551   8.630   3.095
36065SOL    HW110092   1.469   8.584   3.080
36065SOL    HW210093   1.528   8.703   3.153
36066SOL     OW10094  13.924   0.285  11.711
36066SOL    HW110095  13.891   0.256  11.626
36066SOL    HW210096  13.854   0.339  11.747
36067SOL     OW10097   5.444   7.622  12.518
36067SOL    HW110098   5.454   7.668  12.601
36067SOL    HW210099   5.392   7.545  12.538
36068SOL     OW10100  11.670   4.669  13.815
36068SOL    HW110101  11.651   4.722  13.892
36068SOL    HW210102  11.686   4.581  13.850
36069SOL     OW10103   0.931   4.439   1.876
36069SOL    HW110104   0.962   4.509   1.818
36069SOL    HW210105   0.910   4.484   1.958
36070SOL     OW10106   8.084   7.568   7.380
36070SOL    HW110107   8.159   7.516   7.409
36070SOL    HW210108   8.089   7.566   7.285
36071SOL     OW10109  14.142  10.975   7.690
36071SOL    HW110110  14.170  10.887   7.714
36071SOL    HW210111  14.221  11.029   7.696
36072SOL     OW10112  10.241   5.231   6.733
36072SOL    HW110113  10.179   5.168   6.771
36072SOL    HW210114  10.193   5.272   6.661
36073SOL     OW10115  10.615   0.225   4.107
36073SOL    HW110116  10.531   0.254   4.143
36073SOL    HW210117  10.633   0.143   4.152
36074SOL     OW10118  14.594   5.140   7.584
36074SOL    HW110119  14.500   5.142   7.568
36074SOL    HW210120  14.624   5.061   7.539
36075SOL     OW10121  10.662  12.878   9.799
36075SOL    HW110122  10.670  12.785   9.779
36075SOL    HW210123  10.682  12.922   9.716
36076SOL     OW10124   7.025  11.439   9.633
36076SOL    HW110125   6.965  11.435   9.559
36076SOL    HW210126   7.053  11.530   9.636
36077SOL     OW10127  14.116   2.688   1.972
36077SOL    HW110128  14.069   2.611   2.003
36077SOL    HW210129  14.130   2.741   2.050
36078SOL     OW10130   1.933  10.865   4.962
36078SOL    HW110131   1.907  10.948   5.001
36078SOL    HW210132   1.852  10.824   4.934
36079SOL     OW10133   4.830   9.796   9.611
36079SOL    HW110134   4.917   9.837   9.610
36079SOL    HW210135   4.773   9.860   9.567
36080SOL     OW10136   5.243   9.961  13.788
36080SOL    HW110137   5.289  10.028  13.737
36080SOL    HW210138   5.157  10.000  13.807
36081SOL     OW10139   5.435   0.612  13.438
36081SOL    HW110140   5.355   0.560  13.438
36081SOL    HW210141   5.426   0.670  13.363
36082SOL     OW10142  11.070   6.284   9.422
36082SOL    HW110143  11.135   6.221   9.389
36082SOL    HW210144  10.987   6.236   9.418
36083SOL     OW10145  13.170   3.483  10.359
36083SOL    HW110146  13.223   3.561  10.377
36083SOL    HW210147  13.232   3.411  10.363
36084SOL     OW10148   8.888   9.484  13.208
36084SOL    HW110149   8.823   9.414  13.216
36084SOL    HW210150   8.947   9.470  13.283
36085SOL     OW10151   8.627  12.512  10.948
36085SOL    HW110152   8.702  12.479  10.899
36085SOL    HW210153   8.561  12.532  10.882
36086SOL     OW10154   2.693  12.367   6.820
36086SOL    HW110155   2.643  12.443   6.787
36086SOL    HW210156   2.628  12.297   6.826
36087SOL     OW10157   7.418   1.617   7.945
36087SOL    HW110158   7.346   1.556   7.929
36087SOL    HW210159   7.375   1.697   7.975
36088SOL     OW10160  14.454  14.207   2.721
36088SOL    HW110161  14.492  14.131   2.764
36088SOL    HW210162  14.527  14.268   2.711
36089SOL     OW10163  13.984   7.906  13.868
36089SOL    HW110164  14.039   7.828  13.856
36089SOL    HW210165  13.915   7.897  13.803
36090SOL     OW10166   1.141   2.391   3.876
36090SOL    HW110167   1.146   2.436   3.791
36090SOL    HW210168   1.133   2.299   3.853
36091SOL     OW10169  10.562   8.578   4.089
36091SOL    HW110170  10.517   8.555   4.008
36091SOL    HW210171  10.501   8.635   4.134
36092SOL     OW10172   8.550   0.939  10.567
36092SOL    HW110173   8.519   0.858  10.526
36092SOL    HW210174   8.540   0.924  10.661
36093SOL     OW10175  13.956   7.191   0.921
36093SOL    HW110176  13.941   7.196   1.015
36093SOL    HW210177  13.930   7.276   0.887
36094SOL     OW10178   3.460   8.512   9.088
36094SOL    HW110179   3.398   8.480   9.023
36094SOL    HW210180   3.515   8.435   9.107
36095SOL     OW10181  13.681   3.494   2.733
36095SOL    HW110182  13.592   3.525   2.747
36095SOL    HW210183  13.701   3.520   2.643
36096SOL     OW10184   0.371   9.508   7.446
36096SOL    HW110185   0.348   9.601   7.448
36096SOL    HW210186   0.297   9.465   7.489
36097SOL     OW10187   6.930   3.446  14.167
36097SOL    HW110188   6.977   3.386  14.225
36097SOL    HW210189   6.873   3.496  14.225
36098SOL     OW10190  11.031   5.174   9.426
36098SOL    HW110191  10.947   5.152   9.385
36098SOL    HW210192  11.072   5.236   9.366
36099SOL     OW10193   0.136   2.728   0.095
36099SOL    HW110194   0.054   2.690   0.126
36099SOL    HW210195   0.152   2.802   0.153
36100SOL     OW10196   3.822  11.841   6.701
36100SOL    HW110197   3.917  11.829   6.703
36100SOL    HW210198   3.794  11.802   6.618
36101SOL     OW10199   8.330  14.649   4.759
36101SOL    HW110200   8.405  14.691   4.717
36101SOL    HW210201   8.272  14.722   4.783
36102SOL     OW10202  11.074   5.352  13.839
36102SOL    HW110203  10.980   5.339  13.826
36102SOL    HW210204  11.085   5.349  13.934
36103SOL     OW10205   8.941   5.531  13.033
36103SOL    HW110206   8.859   5.492  13.001
36103SOL    HW210207   8.998   5.457  13.051
36104SOL     OW10208  10.154   5.717   9.778
36104SOL    HW110209  10.076   5.755   9.820
36104SOL    HW210210  10.137   5.623   9.776
36105SOL     OW10211   7.733   9.147   6.704
36105SOL    HW110212   7.772   9.084   6.765
36105SOL    HW210213   7.720   9.226   6.756
36106SOL     OW10214   4.861   6.185   4.654
36106SOL    HW110215   4.808   6.163   4.577
36106SOL    HW210216   4.866   6.104   4.704
36107SOL     OW10217   8.004   2.242  13.551
36107SOL    HW110218   7.918   2.267  13.584
36107SOL    HW210219   8.063   2.256  13.626
36108SOL     OW10220  12.401   4.800   1.678
36108SOL    HW110221  12.405   4.816   1.772
36108SOL    HW210222  12.485   4.831   1.645
36109SOL     OW10223  11.720  12.807   4.710
36109SOL    HW110224  11.666  12.776   4.783
36109SOL    HW210225  11.663  12.867   4.662
36110SOL     OW10226   2.104   9.569  14.521
36110SOL    HW110227   2.024   9.592  14.474
36110SOL    HW210228   2.154   9.516  14.460
36111SOL     OW10229   0.228   1.321   8.883
36111SOL    HW110230   0.181   1.368   8.951
36111SOL    HW210231   0.165   1.312   8.811
36112SOL     OW10232   0.415  11.636   1.190
36112SOL    HW110233   0.352  11.705   1.168
36112SOL    HW210234   0.456  11.614   1.106
36113SOL     OW10235   1.490  13.513  10.177
36113SOL    HW110236   1.399  13.507  10.206
36113SOL    HW210237   1.542  13.497  10.255
36114SOL     OW10238   3.644   6.336   6.419
36114SOL    HW110239   3.678   6.320   6.507
36114SOL    HW210240   3.722   6.346   6.365
36115SOL     OW10241   6.995   7.714  10.908
36115SOL    HW110242   7.023   7.625  10.886
36115SOL    HW210243   7.039   7.733  10.991
36116SOL     OW10244   8.200   0.655   2.528
36116SOL    HW110245   8.162   0.709   2.598
36116SOL    HW210246   8.220   0.572   2.569
36117SOL     OW10247  12.195  14.405   8.940
36117SOL    HW110248  12.146  14.406   8.857
36117SOL    HW210249  12.217  14.313   8.953
36118SOL     OW10250  11.854   0.404   5.609
36118SOL    HW110251  11.892   0.317   5.607
36118SOL    HW210252  11.879   0.439   5.694
36119SOL     OW10253   0.024  11.476  14.060
36119SOL    HW110254  14.874  11.404  14.115
36119SOL    HW210255   0.096  11.440  14.008
36120SOL     OW10256   0.299   2.694   5.675
36120SOL    HW110257   0.371   2.697   5.739
36120SOL    HW210258   0.327   2.754   5.606
36121SOL     OW10259  11.517   8.446   7.427
36121SOL    HW110260  11.607   8.416   7.416
36121SOL    HW210261  11.490   8.475   7.340
36122SOL     OW10262   6.696   5.634   0.898
36122SOL    HW110263   6.684   5.692   0.823
36122SOL    HW210264   6.746   5.687   0.961
36123SOL     OW10265  11.637   3.464   5.874
36123SOL    HW110266  11.642   3.421   5.959
36123SOL    HW210267  11.717   3.517   5.869
36124SOL     OW10268   9.450   0.247   1.167
36124SOL    HW110269   9.443   0.327   1.114
36124SOL    HW210270   9.372   0.249   1.223
36125SOL     OW10271   9.149   3.241   5.011
36125SOL    HW110272   9.141   3.257   4.917
36125SOL    HW210273   9.208   3.310   5.042
36126SOL     OW10274   2.465  13.322   9.691
36126SOL    HW110275   2.493  13.403   9.648
36126SOL    HW210276   2.518  13.254   9.651
36127SOL     OW10277   8.432  12.857   1.688
36127SOL    HW110278   8.362  12.800   1.719
36127SOL    HW210279   8.490  12.867   1.764
36128SOL     OW10280   3.880   0.557   5.652
36128SOL    HW110281   3.810   0.493   5.643
36128SOL    HW210282   3.840   0.632   5.696
36129SOL     OW10283   6.756   0.590   4.975
36129SOL    HW110284   6.773   0.503   5.010
36129SOL    HW210285   6.793   0.587   4.886
36130SOL     OW10286   9.241   3.694   8.135
36130SOL    HW110287   9.199   3.738   8.209
36130SOL    HW210288   9.241   3.760   8.065
36131SOL     OW10289   5.616  12.493   3.767
36131SOL    HW110290   5.532  12.455   3.740
36131SOL    HW210291   5.625  12.572   3.714
36132SOL     OW10292   1.218  12.046   1.554
36132SOL    HW110293   1.229  12.044   1.459
36132SOL    HW210294   1.283  11.985   1.587
36133SOL     OW10295  12.970  12.731  14.666
36133SOL    HW110296  12.922  12.698  14.742
36133SOL    HW210297  12.904  12.777  14.614
36134SOL     OW10298   2.906  10.531   7.911
36134SOL    HW110299   2.972  10.484   7.962
36134SOL    HW210300   2.926  10.623   7.925
36135SOL     OW10301   3.488   8.578   1.043
36135SOL    HW110302   3.401   8.557   1.009
36135SOL    HW210303   3.486   8.672   1.057
36136SOL     OW10304   3.479  10.933   3.484
36136SOL    HW110305   3.414  10.888   3.538
36136SOL    HW210306   3.514  11.002   3.540
36137SOL     OW10307   4.281   6.587   6.585
36137SOL    HW110308   4.368   6.547   6.576
36137SOL    HW210309   4.297   6.667   6.635
36138SOL     OW10310   3.973  14.067  11.341
36138SOL    HW110311   3.950  13.976  11.360
36138SOL    HW210312   3.895  14.117  11.365
36139SOL     OW10313   6.918  13.241  12.198
36139SOL    HW110314   6.950  13.162  12.241
36139SOL    HW210315   6.826  13.247  12.223
36140SOL     OW10316   7.924   3.097  12.325
36140SOL    HW110317   7.923   3.180  12.276
36140SOL    HW210318   7.833   3.069  12.326
36141SOL     OW10319   9.581  13.160   1.372
36141SOL    HW110320   9.622  13.075   1.355
36141SOL    HW210321   9.518  13.143   1.442
36142SOL     OW10322   3.307  12.134   7.844
36142SOL    HW110323   3.341  12.170   7.762
36142SOL    HW210324   3.212  12.132   7.831
36143SOL     OW10325  10.776  11.175   3.439
36143SOL    HW110326  10.783  11.107   3.372
36143SOL    HW210327  10.762  11.256   3.389
36144SOL     OW10328  13.537  11.481  10.411
36144SOL    HW110329  13.604  11.536  10.370
36144SOL    HW210330  13.528  11.406  10.352
36145SOL     OW10331   3.361   2.565   6.552
36145SOL    HW110332   3.429   2.525   6.497
36145SOL    HW210333   3.280   2.552   6.502
36146SOL     OW10334  14.003  10.583   3.820
36146SOL    HW110335  13.989  10.571   3.914
36146SOL    HW210336  14.079  10.641   3.814
36147SOL     OW10337   2.089   6.646   1.903
36147SOL    HW110338   2.027   6.584   1.940
36147SOL    HW210339   2.122   6.695   1.978
36148SOL     OW10340  10.031  13.363   7.667
36148SOL    HW110341  10.079  13.302   7.611
36148SOL    HW210342  10.043  13.448   7.626
36149SOL     OW10343   8.114   9.394  10.723
36149SOL    HW110344   8.100   9.486  10.745
36149SOL    HW210345   8.126   9.350  10.807
36150SOL     OW10346   5.954   1.102   7.308
36150SOL    HW110347   6.037   1.103   7.355
36150SOL    HW210348   5.938   1.010   7.290
36151SOL     OW10349   5.429   5.214   6.557
36151SOL    HW110350   5.497   5.190   6.621
36151SOL    HW210351   5.347   5.186   6.598
36152SOL     OW10352   1.391   6.176   3.324
36152SOL    HW110353   1.423   6.106   3.380
36152SOL    HW210354   1.320   6.137   3.273
36153SOL     OW10355  10.951  12.429   3.718
36153SOL    HW110356  10.891  12.500   3.695
36153SOL    HW210357  10.916  12.352   3.675
36154SOL     OW10358   3.487   6.994   4.393
36154SOL    HW110359   3.529   6.918   4.433
36154SOL    HW210360   3.468   7.053   4.467
36155SOL     OW10361   7.084   4.397   6.626
36155SOL    HW110362   7.075   4.459   6.553
36155SOL    HW210363   7.177   4.396   6.645
36156SOL     OW10364   7.234   9.947  13.713
36156SOL    HW110365   7.255   9.868  13.762
36156SOL    HW210366   7.153   9.925  13.666
36157SOL     OW10367   1.494   1.204   5.590
36157SOL    HW110368   1.515   1.224   5.499
36157SOL    HW210369   1.532   1.118   5.606
36158SOL     OW10370   9.071  10.129   0.378
36158SOL    HW110371   9.022  10.102   0.456
36158SOL    HW210372   9.015  10.195   0.337
36159SOL     OW10373   9.427  11.797   5.994
36159SOL    HW110374   9.515  11.811   5.960
36159SOL    HW210375   9.428  11.707   6.028
36160SOL     OW10376   8.994  14.171  11.742
36160SOL    HW110377   8.998  14.093  11.687
36160SOL    HW210378   8.938  14.231  11.694
36161SOL     OW10379  12.402   5.869   9.468
36161SOL    HW110380  12.341   5.864   9.542
36161SOL    HW210381  12.417   5.963   9.456
36162SOL     OW10382   5.393   1.883   2.585
36162SOL    HW110383   5.331   1.826   2.539
36162SOL    HW210384   5.340   1.929   2.650
36163SOL     OW10385  10.392   1.676   2.170
36163SOL    HW110386  10.354   1.647   2.086
36163SOL    HW210387  10.482   1.642   2.168
36164SOL     OW10388   9.653   4.265  12.430
36164SOL    HW110389   9.723   4.313  12.474
36164SOL    HW210390   9.659   4.177  12.465
36165SOL     OW10391   7.135   4.152   8.098
36165SOL    HW110392   7.209   4.151   8.158
36165SOL    HW210393   7.064   4.191   8.149
36166SOL     OW10394  12.400  11.744  13.674
36166SOL    HW110395  12.329  11.803  13.699
36166SOL    HW210396  12.357  11.675  13.623
36167SOL     OW10397   9.817   8.762  13.149
36167SOL    HW110398   9.873   8.701  13.101
36167SOL    HW210399   9.749   8.707  13.188
36168SOL     OW10400  12.805   9.229   7.373
36168SOL    HW110401  12.865   9.214   7.299
36168SOL    HW210402  12.765   9.143   7.388
36169SOL     OW10403   3.630  11.282   2.484
36169SOL    HW110404   3.624  11.239   2.399
36169SOL    HW210405   3.539  11.291   2.513
36170SOL     OW10406   2.011   1.381   6.623
36170SOL    HW110407   2.012   1.288   6.598
36170SOL    HW210408   2.068   1.424   6.559
36171SOL     OW10409   3.233  11.811   5.198
36171SOL    HW110410   3.180  11.854   5.265
36171SOL    HW210411   3.271  11.883   5.148
36172SOL     OW10412   8.559   0.229   8.420
36172SOL    HW110413   8.621   0.164   8.388
36172SOL    HW210414   8.591   0.312   8.385
36173SOL     OW10415   4.669  10.311   3.853
36173SOL    HW110416   4.678  10.286   3.761
36173SOL    HW210417   4.663  10.406   3.852
36174SOL     OW10418   8.375  13.174   9.857
36174SOL    HW110419   8.346  13.265   9.850
36174SOL    HW210420   8.452  13.170   9.799
36175SOL     OW10421   8.389  12.239   1.034
36175SOL    HW110422   8.434  12.205   1.111
36175SOL    HW210423   8.458  12.275   0.979
36176SOL     OW10424  12.651   6.157  10.464
36176SOL    HW110425  12.556   6.168  10.463
36176SOL    HW210426  12.684   6.231  10.413
36177SOL     OW10427   4.367   3.104   6.251
36177SOL    HW110428   4.408   3.132   6.169
36177SOL    HW210429   4.376   3.180   6.309
36178SOL     OW10430  13.193  12.472   4.811
36178SOL    HW110431  13.111  12.439   4.775
36178SOL    HW210432  13.169  12.552   4.857
36179SOL     OW10433   1.531  14.235  14.477
36179SOL    HW110434   1.537  14.299  14.406
36179SOL    HW210435   1.603  14.175  14.462
36180SOL     OW10436   0.070   4.386   5.471
36180SOL    HW110437   0.141   4.328   5.499
36180SOL    HW210438   0.114   4.461   5.430
36181SOL     OW10439   1.887  11.082   3.886
36181SOL    HW110440   1.880  11.001   3.935
36181SOL    HW210441   1.817  11.077   3.821
36182SOL     OW10442   1.593   7.375   1.877
36182SOL    HW110443   1.680   7.413   1.889
36182SOL    HW210444   1.607   7.281   1.887
36183SOL     OW10445  12.088  13.506   8.141
36183SOL    HW110446  12.087  13.415   8.108
36183SOL    HW210447  12.181  13.530   8.140
36184SOL     OW10448   4.138   2.547  12.829
36184SOL    HW110449   4.101   2.523  12.914
36184SOL    HW210450   4.179   2.633  12.844
36185SOL     OW10451   4.892   0.847   7.217
36185SOL    HW110452   4.986   0.829   7.212
36185SOL    HW210453   4.880   0.930   7.170
36186SOL     OW10454   2.689   8.788   6.945
36186SOL    HW110455   2.742   8.752   6.874
36186SOL    HW210456   2.735   8.869   6.970
36187SOL     OW10457  12.084   0.699   4.977
36187SOL    HW110458  12.126   0.734   5.056
36187SOL    HW210459  12.054   0.612   5.003
36188SOL     OW10460   2.603   4.539   2.129
36188SOL    HW110461   2.612   4.457   2.178
36188SOL    HW210462   2.579   4.511   2.041
36189SOL     OW10463   4.250   5.739   1.363
36189SOL    HW110464   4.208   5.727   1.448
36189SOL    HW210465   4.177   5.742   1.301
36190SOL     OW10466  11.744  13.822   6.809
36190SOL    HW110467  11.702  13.785   6.731
36190SOL    HW210468  11.837  13.828   6.785
36191SOL     OW10469   4.224   0.316   6.760
36191SOL    HW110470   4.319   0.318   6.749
36191SOL    HW210471   4.211   0.322   6.854
36192SOL     OW10472   3.249   4.277   1.304
36192SOL    HW110473   3.298   4.203   1.340
36192SOL    HW210474   3.312   4.321   1.247
36193SOL     OW10475  11.851  10.177  11.626
36193SOL    HW110476  11.802  10.159  11.546
36193SOL    HW210477  11.863  10.091  11.666
36194SOL     OW10478   3.595  14.170   6.210
36194SOL    HW110479   3.677  14.175   6.162
36194SOL    HW210480   3.576  14.076   6.216
36195SOL     OW10481   5.684  12.115   9.315
36195SOL    HW110482   5.670  12.086   9.224
36195SOL    HW210483   5.625  12.190   9.325
36196SOL     OW10484  12.460   1.113   8.166
36196SOL    HW110485  12.401   1.187   8.181
36196SOL    HW210486  12.547   1.150   8.180
36197SOL     OW10487   5.540   7.813   1.620
36197SOL    HW110488   5.533   7.895   1.669
36197SOL    HW210489   5.550   7.746   1.686
36198SOL     OW10490   1.749  13.783  10.821
36198SOL    HW110491   1.801  13.705  10.802
36198SOL    HW210492   1.768  13.803  10.913
36199SOL     OW10493   9.279  10.311   9.748
36199SOL    HW110494   9.280  10.245   9.817
36199SOL    HW210495   9.254  10.263   9.669
36200SOL     OW10496   8.486   2.148  12.785
36200SOL    HW110497   8.521   2.211  12.848
36200SOL    HW210498   8.504   2.186  12.700
36201SOL     OW10499   8.751   8.123   3.410
36201SOL    HW110500   8.839   8.091   3.432
36201SOL    HW210501   8.702   8.044   3.387
36202SOL     OW10502   1.198   3.604   0.404
36202SOL    HW110503   1.130   3.669   0.384
36202SOL    HW210504   1.279   3.654   0.404
36203SOL     OW10505   6.189   6.265   1.642
36203SOL    HW110506   6.170   6.359   1.640
36203SOL    HW210507   6.215   6.248   1.732
36204SOL     OW10508   3.880  14.015   3.118
36204SOL    HW110509   3.813  13.947   3.121
36204SOL    HW210510   3.938  13.989   3.046
36205SOL     OW10511   3.922   1.670  10.383
36205SOL    HW110512   3.888   1.620  10.309
36205SOL    HW210513   3.894   1.620  10.461
36206SOL     OW10514   4.959  11.226  12.491
36206SOL    HW110515   4.933  11.160  12.555
36206SOL    HW210516   4.920  11.198  12.409
36207SOL     OW10517   2.709   7.800   8.667
36207SOL    HW110518   2.680   7.728   8.722
36207SOL    HW210519   2.716   7.762   8.579
36208SOL     OW10520  10.500  13.895  12.163
36208SOL    HW110521  10.509  13.808  12.124
36208SOL    HW210522  10.406  13.912  12.162
36209SOL     OW10523   0.601   7.313   8.457
36209SOL    HW110524   0.674   7.254   8.438
36209SOL    HW210525   0.530   7.254   8.484
36210SOL     OW10526   2.072   6.312  12.261
36210SOL    HW110527   2.039   6.224  12.246
36210SOL    HW210528   1.995   6.368  12.258
36211SOL     OW10529   5.839   3.692   9.327
36211SOL    HW110530   5.905   3.723   9.389
36211SOL    HW210531   5.878   3.615   9.287
36212SOL     OW10532   8.078   4.420   6.405
36212SOL    HW110533   8.046   4.420   6.315
36212SOL    HW210534   8.027   4.351   6.448
36213SOL     OW10535   4.149  13.013   2.473
36213SOL    HW110536   4.053  13.014   2.470
36213SOL    HW210537   4.176  13.025   2.383
36214SOL     OW10538   6.404   3.178   7.006
36214SOL    HW110539   6.447   3.228   7.075
36214SOL    HW210540   6.386   3.243   6.937
36215SOL     OW10541   9.986   7.885  12.103
36215SOL    HW110542   9.895   7.854  12.097
36215SOL    HW210543  10.039   7.806  12.092
36216SOL     OW10544  13.797   4.831   8.434
36216SOL    HW110545  13.803   4.925   8.449
36216SOL    HW210546  13.870   4.794   8.484
36217SOL     OW10547   6.288  13.131   5.774
36217SOL    HW110548   6.194  13.131   5.760
36217SOL    HW210549   6.308  13.219   5.805
36218SOL     OW10550   0.647  13.885  10.111
36218SOL    HW110551   0.586  13.896  10.183
36218SOL    HW210552   0.682  13.972  10.095
36219SOL     OW10553  12.672  12.773   3.654
36219SOL    HW110554  12.624  12.760   3.736
36219SOL    HW210555  12.676  12.868   3.644
36220SOL     OW10556  13.497   1.429   8.389
36220SOL    HW110557  13.470   1.356   8.334
36220SOL    HW210558  13.432   1.497   8.372
36221SOL     OW10559  12.933   2.747  12.543
36221SOL    HW110560  12.923   2.722  12.451
36221SOL    HW210561  12.845   2.747  12.578
36222SOL     OW10562   3.079   5.892   4.857
36222SOL    HW110563   3.108   5.962   4.797
36222SOL    HW210564   3.056   5.819   4.799
36223SOL     OW10565   3.024   3.989   0.483
36223SOL    HW110566   3.046   3.921   0.419
36223SOL    HW210567   3.089   3.979   0.552
36224SOL     OW10568  14.099  13.334   1.567
36224SOL    HW110569  14.153  13.255   1.569
36224SOL    HW210570  14.019  13.307   1.522
36225SOL     OW10571   1.841   6.432   2.835
36225SOL    HW110572   1.874   6.361   2.780
36225SOL    HW210573   1.919   6.467   2.878
36226SOL     OW10574  14.187  11.377   0.347
36226SOL    HW110575  14.136  11.366   0.267
36226SOL    HW210576  14.155  11.310   0.406
36227SOL     OW10577   8.658   3.434   0.273
36227SOL    HW110578   8.613   3.382   0.206
36227SOL    HW210579   8.719   3.372   0.314
36228SOL     OW10580   6.807   8.060   7.720
36228SOL    HW110581   6.795   8.089   7.811
36228SOL    HW210582   6.718   8.047   7.687
36229SOL     OW10583   2.954   3.601   1.144
36229SOL    HW110584   3.035   3.613   1.192
36229SOL    HW210585   2.895   3.668   1.179
36230SOL     OW10586   2.318   8.490   6.046
36230SOL    HW110587   2.300   8.463   6.136
36230SOL    HW210588   2.332   8.408   5.998
36231SOL     OW10589   9.504  12.358  10.377
36231SOL    HW110590   9.545  12.283  10.333
36231SOL    HW210591   9.498  12.332  10.469
36232SOL     OW10592   3.670  11.596  14.835
36232SOL    HW110593   3.691  11.628   0.045
36232SOL    HW210594   3.603  11.528  14.849
36233SOL     OW10595  12.967   4.325   9.526
36233SOL    HW110596  13.014   4.399   9.486
36233SOL    HW210597  13.033   4.282   9.581
36234SOL     OW10598   8.664  11.644  11.614
36234SOL    HW110599   8.743  11.621  11.662
36234SOL    HW210600   8.662  11.581  11.541
36235SOL     OW10601   8.099   7.941  11.718
36235SOL    HW110602   8.140   7.899  11.793
36235SOL    HW210603   8.017   7.894  11.705
36236SOL     OW10604   5.153   3.622  14.169
36236SOL    HW110605   5.058   3.619  14.155
36236SOL    HW210606   5.180   3.530  14.168
36237SOL     OW10607   7.144  13.077   2.998
36237SOL    HW110608   7.119  13.049   2.909
36237SOL    HW210609   7.097  13.017   3.056
36238SOL     OW10610   1.986  10.405   9.750
36238SOL    HW110611   1.945  10.318   9.745
36238SOL    HW210612   1.916  10.463   9.779
36239SOL     OW10613   6.092   2.562   4.037
36239SOL    HW110614   6.040   2.547   3.958
36239SOL    HW210615   6.063   2.647   4.070
36240SOL     OW10616   2.821   6.312  10.947
36240SOL    HW110617   2.862   6.300  10.862
36240SOL    HW210618   2.773   6.394  10.940
36241SOL     OW10619   0.546  14.140  12.007
36241SOL    HW110620   0.545  14.220  11.954
36241SOL    HW210621   0.495  14.162  12.085
36242SOL     OW10622  10.381   5.599   8.708
36242SOL    HW110623  10.448   5.668   8.708
36242SOL    HW210624  10.345   5.602   8.797
36243SOL     OW10625  14.724  12.218   3.372
36243SOL    HW110626  14.731  12.274   3.296
36243SOL    HW210627  14.765  12.135   3.345
36244SOL     OW10628   7.511   0.422  12.051
36244SOL    HW110629   7.604   0.420  12.070
36244SOL    HW210630   7.470   0.442  12.135
36245SOL     OW10631   3.801  11.435   8.768
36245SOL    HW110632   3.732  11.437   8.702
36245SOL    HW210633   3.800  11.345   8.801
36246SOL     OW10634   0.645   5.098   7.078
36246SOL    HW110635   0.679   5.185   7.099
36246SOL    HW210636   0.708   5.062   7.016
36247SOL     OW10637   1.230  12.521   9.425
36247SOL    HW110638   1.183  12.529   9.343
36247SOL    HW210639   1.233  12.610   9.460
36248SOL     OW10640  13.263   2.290   3.197
36248SOL    HW110641  13.266   2.368   3.252
36248SOL    HW210642  13.257   2.323   3.108
36249SOL     OW10643   5.527   9.676   2.381
36249SOL    HW110644   5.487   9.590   2.388
36249SOL    HW210645   5.580   9.671   2.301
36250SOL     OW10646   1.062  12.738   4.510
36250SOL    HW110647   1.026  12.822   4.482
36250SOL    HW210648   1.149  12.735   4.473
36251SOL     OW10649   0.959   9.423   1.634
36251SOL    HW110650   0.969   9.518   1.626
36251SOL    HW210651   0.880   9.411   1.686
36252SOL     OW10652   8.548   7.463  10.504
36252SOL    HW110653   8.631   7.484  10.461
36252SOL    HW210654   8.487   7.448  10.432
36253SOL     OW10655  10.846   1.062  13.595
36253SOL    HW110656  10.921   1.017  13.556
36253SOL    HW210657  10.869   1.071  13.687
36254SOL     OW10658   0.099  10.340   0.123
36254SOL    HW110659   0.087  10.435   0.115
36254SOL    HW210660   0.170  10.330   0.187
36255SOL     OW10661   6.880  11.679   4.654
36255SOL    HW110662   6.868  11.585   4.660
36255SOL    HW210663   6.973  11.694   4.669
36256SOL     OW10664   4.525   9.501  14.319
36256SOL    HW110665   4.525   9.597  14.310
36256SOL    HW210666   4.610   9.481  14.358
36257SOL     OW10667  10.888  10.318   6.533
36257SOL    HW110668  10.960  10.355   6.584
36257SOL    HW210669  10.813  10.319   6.593
36258SOL     OW10670   3.101  13.493   0.036
36258SOL    HW110671   3.024  13.487  14.858
36258SOL    HW210672   3.163  13.430  14.875
36259SOL     OW10673   3.603   8.222  10.071
36259SOL    HW110674   3.655   8.145  10.094
36259SOL    HW210675   3.545   8.235  10.146
36260SOL     OW10676  10.186   9.086   1.282
36260SOL    HW110677  10.215   8.999   1.253
36260SOL    HW210678  10.175   9.078   1.376
36261SOL     OW10679   9.265  14.486   7.843
36261SOL    HW110680   9.191  14.544   7.859
36261SOL    HW210681   9.322  14.499   7.920
36262SOL     OW10682   2.613  10.968   7.711
36262SOL    HW110683   2.691  10.988   7.762
36262SOL    HW210684   2.554  11.042   7.728
36263SOL     OW10685  13.711   4.576   8.317
36263SOL    HW110686  13.727   4.655   8.369
36263SOL    HW210687  13.797   4.551   8.283
36264SOL     OW10688   9.450   1.793  13.546
36264SOL    HW110689   9.489   1.709  13.522
36264SOL    HW210690   9.406   1.777  13.629
36265SOL     OW10691  10.350   3.938   9.095
36265SOL    HW110692  10.337   3.843   9.096
36265SOL    HW210693  10.349   3.961   9.002
36266SOL     OW10694   3.617  10.070   5.675
36266SOL    HW110695   3.672   9.996   5.702
36266SOL    HW210696   3.565  10.036   5.602
36267SOL     OW10697   4.032  12.022   0.306
36267SOL    HW110698   3.976  12.011   0.228
36267SOL    HW210699   4.099  11.954   0.297
36268SOL     OW10700   9.745  10.405  11.251
36268SOL    HW110701   9.762  10.370  11.164
36268SOL    HW210702   9.757  10.331  11.310
36269SOL     OW10703   5.066  14.507   2.932
36269SOL    HW110704   5.032  14.470   2.850
36269SOL    HW210705   5.030  14.595   2.935
36270SOL     OW10706  10.676  12.990   9.497
36270SOL    HW110707  10.656  12.991   9.404
36270SOL    HW210708  10.705  13.079   9.517
36271SOL     OW10709   7.721  13.468   8.128
36271SOL    HW110710   7.751  13.408   8.060
36271SOL    HW210711   7.781  13.543   8.123
36272SOL     OW10712   0.431   9.568  10.522
36272SOL    HW110713   0.459   9.499  10.462
36272SOL    HW210714   0.449   9.531  10.609
36273SOL     OW10715   0.041   0.078   0.730
36273SOL    HW110716   0.124   0.124   0.718
36273SOL    HW210717  14.862   0.142   0.775
36274SOL     OW10718  12.581   8.208   1.452
36274SOL    HW110719  12.634   8.149   1.506
36274SOL    HW210720  12.538   8.266   1.515
36275SOL     OW10721   4.615   0.469  11.028
36275SOL    HW110722   4.550   0.464  10.958
36275SOL    HW210723   4.671   0.392  11.014
36276SOL     OW10724   6.382   8.055   2.631
36276SOL    HW110725   6.347   8.113   2.563
36276SOL    HW210726   6.464   8.096   2.657
36277SOL     OW10727   3.732  14.439  10.519
36277SOL    HW110728   3.790  14.459  10.445
36277SOL    HW210729   3.644  14.454  10.486
36278SOL     OW10730   9.966  13.042  12.096
36278SOL    HW110731   9.898  13.076  12.038
36278SOL    HW210732   9.975  12.950  12.071
36279SOL     OW10733  14.772  10.832   6.692
36279SOL    HW110734  14.701  10.772   6.670
36279SOL    HW210735  14.835  10.822   6.620
36280SOL     OW10736   4.223  14.420   5.638
36280SOL    HW110737   4.296  14.405   5.697
36280SOL    HW210738   4.174  14.492   5.678
36281SOL     OW10739   6.163   2.427  11.043
36281SOL    HW110740   6.170   2.498  11.107
36281SOL    HW210741   6.089   2.453  10.987
36282SOL     OW10742   3.916  10.338   4.989
36282SOL    HW110743   3.966  10.291   5.055
36282SOL    HW210744   3.829  10.297   4.990
36283SOL     OW10745   2.068   7.224   7.198
36283SOL    HW110746   1.997   7.169   7.232
36283SOL    HW210747   2.147   7.191   7.241
36284SOL     OW10748   4.892   5.294   8.411
36284SOL    HW110749   4.971   5.300   8.357
36284SOL    HW210750   4.834   5.361   8.376
36285SOL     OW10751   6.143   5.018   6.838
36285SOL    HW110752   6.237   5.019   6.819
36285SOL    HW210753   6.120   5.110   6.850
36286SOL     OW10754  13.326   1.531  11.113
36286SOL    HW110755  13.300   1.621  11.131
36286SOL    HW210756  13.289   1.481  11.186
36287SOL     OW10757  14.797   3.615  14.694
36287SOL    HW110758  14.733   3.545  14.711
36287SOL    HW210759  14.877   3.584  14.735
36288SOL     OW10760  11.559   4.485  12.955
36288SOL    HW110761  11.553   4.541  13.032
36288SOL    HW210762  11.646   4.447  12.960
36289SOL     OW10763  13.528   8.226   2.137
36289SOL    HW110764  13.504   8.254   2.225
36289SOL    HW210765  13.485   8.141   2.126
36290SOL     OW10766   1.291  10.449   6.630
36290SOL    HW110767   1.212  10.485   6.671
36290SOL    HW210768   1.335  10.525   6.591
36291SOL     OW10769  10.783  11.449   1.321
36291SOL    HW110770  10.731  11.396   1.262
36291SOL    HW210771  10.790  11.534   1.278
36292SOL     OW10772  10.166   6.999  10.590
36292SOL    HW110773  10.226   6.941  10.637
36292SOL    HW210774  10.092   7.010  10.648
36293SOL     OW10775   8.781   7.714  11.285
36293SOL    HW110776   8.850   7.728  11.220
36293SOL    HW210777   8.800   7.627  11.321
36294SOL     OW10778   1.526   9.105   1.624
36294SOL    HW110779   1.516   9.199   1.605
36294SOL    HW210780   1.541   9.065   1.538
36295SOL     OW10781   7.404  11.647  13.267
36295SOL    HW110782   7.368  11.697  13.340
36295SOL    HW210783   7.489  11.688  13.249
36296SOL     OW10784  11.722   0.681   2.334
36296SOL    HW110785  11.708   0.772   2.358
36296SOL    HW210786  11.635   0.649   2.308
36297SOL     OW10787   8.265   1.205   0.499
36297SOL    HW110788   8.173   1.230   0.486
36297SOL    HW210789   8.287   1.154   0.421
36298SOL     OW10790  14.801   9.168  13.045
36298SOL    HW110791   0.006   9.120  13.052
36298SOL    HW210792  14.748   9.116  12.984
36299SOL     OW10793   6.190   2.424   4.808
36299SOL    HW110794   6.176   2.519   4.805
36299SOL    HW210795   6.160   2.393   4.722
36300SOL     OW10796   0.415  10.329  10.161
36300SOL    HW110797   0.447  10.239  10.157
36300SOL    HW210798   0.447  10.369  10.079
36301SOL     OW10799  14.193  12.313  13.763
36301SOL    HW110800  14.184  12.245  13.696
36301SOL    HW210801  14.189  12.395  13.714
36302SOL     OW10802   5.316   9.717   7.383
36302SOL    HW110803   5.388   9.779   7.368
36302SOL    HW210804   5.278   9.744   7.467
36303SOL     OW10805   2.476   0.161  10.438
36303SOL    HW110806   2.541   0.156  10.508
36303SOL    HW210807   2.527   0.158  10.358
36304SOL     OW10808   3.843   5.185   1.573
36304SOL    HW110809   3.919   5.220   1.527
36304SOL    HW210810   3.879   5.123   1.636
36305SOL     OW10811  12.781   2.121  14.097
36305SOL    HW110812  12.708   2.112  14.159
36305SOL    HW210813  12.768   2.207  14.057
36306SOL     OW10814   6.836  12.217  11.430
36306SOL    HW110815   6.864  12.283  11.493
36306SOL    HW210816   6.807  12.267  11.354
36307SOL     OW10817   1.356  12.041   3.725
36307SOL    HW110818   1.350  12.136   3.730
36307SOL    HW210819   1.447  12.021   3.746
36308SOL     OW10820  11.770  12.284   8.801
36308SOL    HW110821  11.771  12.371   8.841
36308SOL    HW210822  11.839  12.288   8.735
36309SOL     OW10823   5.586   9.027   5.465
36309SOL    HW110824   5.515   8.964   5.464
36309SOL    HW210825   5.659   8.981   5.507
36310SOL     OW10826   8.546  10.500   3.624
36310SOL    HW110827   8.554  10.569   3.690
36310SOL    HW210828   8.586  10.423   3.665
36311SOL     OW10829  14.775   2.641   1.335
36311SOL    HW110830  14.845   2.652   1.400
36311SOL    HW210831  14.814   2.586   1.267
36312SOL     OW10832  11.309   9.502   7.944
36312SOL    HW110833  11.245   9.445   7.987
36312SOL    HW210834  11.386   9.500   8.002
36313SOL     OW10835   3.643   5.221   4.260
36313SOL    HW110836   3.578   5.198   4.193
36313SOL    HW210837   3.660   5.314   4.246
36314SOL     OW10838   2.306   2.956  13.360
36314SOL    HW110839   2.222   2.980  13.398
36314SOL    HW210840   2.319   2.865  13.386
36315SOL     OW10841   7.586   9.702   1.460
36315SOL    HW110842   7.652   9.723   1.527
36315SOL    HW210843   7.609   9.758   1.386
36316SOL     OW10844   3.977   6.893   8.221
36316SOL    HW110845   4.034   6.874   8.147
36316SOL    HW210846   3.919   6.817   8.227
36317SOL     OW10847   2.747  11.178   4.359
36317SOL    HW110848   2.736  11.273   4.366
36317SOL    HW210849   2.668  11.149   4.314
36318SOL     OW10850   2.900   3.364   4.147
36318SOL    HW110851   2.907   3.279   4.190
36318SOL    HW210852   2.865   3.345   4.060
36319SOL     OW10853   2.670  10.859   5.838
36319SOL    HW110854   2.760  10.828   5.845
36319SOL    HW210855   2.629  10.798   5.777
36320SOL     OW10856   5.118   5.250  12.198
36320SOL    HW110857   5.148   5.310  12.266
36320SOL    HW210858   5.051   5.197  12.241
36321SOL     OW10859  10.385  10.193   5.146
36321SOL    HW110860  10.302  10.196   5.098
36321SOL    HW210861  10.360  10.177   5.237
36322SOL     OW10862  13.096   3.929   7.730
36322SOL    HW110863  13.078   3.942   7.823
36322SOL    HW210864  13.174   3.982   7.713
36323SOL     OW10865   9.931   3.683   9.971
36323SOL    HW110866   9.970   3.601  10.001
36323SOL    HW210867   9.978   3.703   9.890
36324SOL     OW10868   1.268  10.033  10.026
36324SOL    HW110869   1.212  10.005   9.954
36324SOL    HW210870   1.212  10.088  10.081
36325SOL     OW10871   5.321   7.717   6.851
36325SOL    HW110872   5.399   7.663   6.838
36325SOL    HW210873   5.250   7.654   6.860
36326SOL     OW10874  11.028   1.274   7.506
36326SOL    HW110875  11.098   1.340   7.503
36326SOL    HW210876  11.052   1.218   7.580
36327SOL     OW10877   1.078   8.049  11.777
36327SOL    HW110878   1.010   8.024  11.840
36327SOL    HW210879   1.089   7.973  11.721
36328SOL     OW10880  10.418   7.896  10.444
36328SOL    HW110881  10.406   7.976  10.494
36328SOL    HW210882  10.488   7.849  10.489
36329SOL     OW10883   6.882   8.355   2.388
36329SOL    HW110884   6.819   8.427   2.382
36329SOL    HW210885   6.920   8.365   2.475
36330SOL     OW10886  10.397   8.497  11.708
36330SOL    HW110887  10.323   8.552  11.683
36330SOL    HW210888  10.452   8.553  11.763
36331SOL     OW10889  13.456   2.706   3.020
36331SOL    HW110890  13.367   2.688   3.052
36331SOL    HW210891  13.504   2.729   3.099
36332SOL     OW10892   3.550   4.760   2.077
36332SOL    HW110893   3.548   4.781   2.170
36332SOL    HW210894   3.459   4.773   2.047
36333SOL     OW10895  11.529  11.362  12.091
36333SOL    HW110896  11.465  11.432  12.080
36333SOL    HW210897  11.614  11.404  12.075
36334SOL     OW10898  14.398  10.315   3.414
36334SOL    HW110899  14.372  10.224   3.401
36334SOL    HW210900  14.494  10.312   3.414
36335SOL     OW10901  13.520  12.406  13.824
36335SOL    HW110902  13.520  12.401  13.920
36335SOL    HW210903  13.475  12.327  13.795
36336SOL     OW10904  13.602   7.485  10.075
36336SOL    HW110905  13.658   7.412  10.101
36336SOL    HW210906  13.663   7.556  10.055
36337SOL     OW10907   8.068   3.658   4.763
36337SOL    HW110908   7.989   3.604   4.772
36337SOL    HW210909   8.061   3.722   4.833
36338SOL     OW10910  13.974  13.004   8.631
36338SOL    HW110911  13.921  12.951   8.691
36338SOL    HW210912  14.057  13.016   8.678
36339SOL     OW10913   5.030  11.036  11.633
36339SOL    HW110914   5.054  10.989  11.554
36339SOL    HW210915   5.075  10.989  11.704
36340SOL     OW10916   7.427  13.776   8.660
36340SOL    HW110917   7.343  13.787   8.704
36340SOL    HW210918   7.489  13.754   8.730
36341SOL     OW10919  13.725  13.217  11.760
36341SOL    HW110920  13.700  13.233  11.669
36341SOL    HW210921  13.697  13.295  11.807
36342SOL     OW10922  14.232   3.387  13.135
36342SOL    HW110923  14.189   3.459  13.182
36342SOL    HW210924  14.161   3.326  13.114
36343SOL     OW10925  12.601   8.843  10.621
36343SOL    HW110926  12.539   8.840  10.547
36343SOL    HW210927  12.583   8.763  10.670
36344SOL     OW10928   6.111   7.756   5.298
36344SOL    HW110929   6.199   7.793   5.306
36344SOL    HW210930   6.054   7.821   5.340
36345SOL     OW10931   5.720   1.059  12.129
36345SOL    HW110932   5.767   1.023  12.054
36345SOL    HW210933   5.693   0.983  12.180
36346SOL     OW10934   6.413   6.862   0.530
36346SOL    HW110935   6.451   6.948   0.514
36346SOL    HW210936   6.329   6.881   0.572
36347SOL     OW10937   8.696   2.426   2.132
36347SOL    HW110938   8.687   2.333   2.110
36347SOL    HW210939   8.627   2.442   2.196
36348SOL     OW10940   2.485  13.925   4.931
36348SOL    HW110941   2.509  13.879   5.011
36348SOL    HW210942   2.390  13.921   4.928
36349SOL     OW10943   4.450   8.755   5.839
36349SOL    HW110944   4.526   8.782   5.892
36349SOL    HW210945   4.384   8.728   5.903
36350SOL     OW10946  14.866  11.954   0.042
36350SOL    HW110947   0.005  11.861   0.028
36350SOL    HW210948  14.781  11.969  14.876
36351SOL     OW10949  11.066  12.912  13.175
36351SOL    HW110950  11.043  12.865  13.254
36351SOL    HW210951  11.028  12.999  13.186
36352SOL     OW10952   8.718  11.274   4.665
36352SOL    HW110953   8.742  11.365   4.682
36352SOL    HW210954   8.701  11.237   4.751
36353SOL     OW10955   3.833   4.609   9.391
36353SOL    HW110956   3.768   4.663   9.436
36353SOL    HW210957   3.784   4.566   9.321
36354SOL     OW10958   1.210   5.680   1.326
36354SOL    HW110959   1.115   5.672   1.341
36354SOL    HW210960   1.217   5.707   1.234
36355SOL     OW10961  14.298  13.273   3.583
36355SOL    HW110962  14.258  13.359   3.570
36355SOL    HW210963  14.348  13.258   3.503
36356SOL     OW10964  10.152  10.856  10.962
36356SOL    HW110965  10.193  10.799  11.027
36356SOL    HW210966  10.162  10.810  10.879
36357SOL     OW10967   4.168   7.708   7.239
36357SOL    HW110968   4.190   7.627   7.286
36357SOL    HW210969   4.225   7.707   7.162
36358SOL     OW10970   9.372   5.383  10.163
36358SOL    HW110971   9.276   5.383  10.159
36358SOL    HW210972   9.394   5.459  10.215
36359SOL     OW10973   3.453   7.857   5.413
36359SOL    HW110974   3.486   7.829   5.327
36359SOL    HW210975   3.391   7.927   5.392
36360SOL     OW10976   0.577   0.363   4.810
36360SOL    HW110977   0.513   0.384   4.878
36360SOL    HW210978   0.524   0.333   4.736
36361SOL     OW10979  11.550   0.304  14.724
36361SOL    HW110980  11.491   0.330  14.794
36361SOL    HW210981  11.579   0.387  14.686
36362SOL     OW10982   1.839   4.640   4.876
36362SOL    HW110983   1.877   4.589   4.805
36362SOL    HW210984   1.877   4.603   4.956
36363SOL     OW10985   6.871   6.203   3.853
36363SOL    HW110986   6.936   6.180   3.919
36363SOL    HW210987   6.921   6.207   3.771
36364SOL     OW10988   7.843   9.480   4.836
36364SOL    HW110989   7.834   9.385   4.828
36364SOL    HW210990   7.824   9.498   4.928
36365SOL     OW10991   3.922   9.398  11.175
36365SOL    HW110992   3.868   9.326  11.205
36365SOL    HW210993   4.011   9.363  11.175
36366SOL     OW10994  13.551  10.786   7.498
36366SOL    HW110995  13.464  10.796   7.535
36366SOL    HW210996  13.539  10.798   7.404
36367SOL     OW10997   2.875   4.639   9.730
36367SOL    HW110998   2.845   4.639   9.821
36367SOL    HW210999   2.900   4.548   9.713
36368SOL     OW11000   0.681   0.905  11.817
36368SOL    HW111001   0.701   0.999  11.812
36368SOL    HW211002   0.588   0.899  11.796
36369SOL     OW11003   2.018  11.600   8.959
36369SOL    HW111004   2.069  11.615   8.879
36369SOL    HW211005   1.986  11.510   8.951
36370SOL     OW11006   6.730   1.461   1.014
36370SOL    HW111007   6.639   1.466   1.042
36370SOL    HW211008   6.776   1.420   1.088
36371SOL     OW11009  10.665  11.790  12.402
36371SOL    HW111010  10.687  11.702  12.372
36371SOL    HW211011  10.687  11.790  12.496
36372SOL     OW11012  13.682  11.907  10.208
36372SOL    HW111013  13.619  11.956  10.155
36372SOL    HW211014  13.734  11.975  10.252
36373SOL     OW11015  11.831   0.920   7.622
36373SOL    HW111016  11.825   0.845   7.682
36373SOL    HW211017  11.911   0.905   7.573
36374SOL     OW11018   8.317  11.221  10.497
36374SOL    HW111019   8.365  11.298  10.527
36374SOL    HW211020   8.380  11.172  10.445
36375SOL     OW11021  13.116   5.899   5.505
36375SOL    HW111022  13.032   5.856   5.494
36375SOL    HW211023  13.177   5.846   5.454
36376SOL     OW11024  12.675   0.892   3.694
36376SOL    HW111025  12.598   0.854   3.652
36376SOL    HW211026  12.677   0.982   3.662
36377SOL     OW11027   5.672  11.641   5.082
36377SOL    HW111028   5.689  11.724   5.037
36377SOL    HW211029   5.651  11.666   5.172
36378SOL     OW11030   1.210   1.455  14.519
36378SOL    HW111031   1.217   1.360  14.519
36378SOL    HW211032   1.269   1.483  14.589
36379SOL     OW11033   8.970   6.691   3.052
36379SOL    HW111034   9.032   6.701   3.125
36379SOL    HW211035   8.885   6.714   3.090
36380SOL     OW11036   0.014  11.383   3.939
36380SOL    HW111037  14.817  11.436   3.911
36380SOL    HW211038   0.088  11.444   3.941
36381SOL     OW11039   5.290   6.988  14.411
36381SOL    HW111040   5.375   6.961  14.443
36381SOL    HW211041   5.306   7.071  14.365
36382SOL     OW11042   8.299   5.371  13.282
36382SOL    HW111043   8.271   5.453  13.324
36382SOL    HW211044   8.394   5.368  13.296
36383SOL     OW11045   6.284   6.694   8.617
36383SOL    HW111046   6.371   6.712   8.654
36383SOL    HW211047   6.224   6.708   8.690
36384SOL     OW11048   1.772  13.106   1.856
36384SOL    HW111049   1.703  13.110   1.790
36384SOL    HW211050   1.808  13.195   1.858
36385SOL     OW11051   3.792   9.327  12.256
36385SOL    HW111052   3.715   9.290  12.298
36385SOL    HW211053   3.864   9.308  12.317
36386SOL     OW11054  11.801   5.789   8.654
36386SOL    HW111055  11.784   5.849   8.726
36386SOL    HW211056  11.714   5.770   8.617
36387SOL     OW11057   8.661   8.519   9.595
36387SOL    HW111058   8.726   8.515   9.665
36387SOL    HW211059   8.712   8.537   9.516
36388SOL     OW11060   4.898  14.632  14.347
36388SOL    HW111061   4.855  14.547  14.357
36388SOL    HW211062   4.865  14.684  14.419
36389SOL     OW11063   4.496   7.987  11.950
36389SOL    HW111064   4.525   8.077  11.961
36389SOL    HW211065   4.404   7.993  11.926
36390SOL     OW11066  10.621   5.459  11.017
36390SOL    HW111067  10.557   5.530  11.018
36390SOL    HW211068  10.576   5.385  11.059
36391SOL     OW11069   4.376   0.842   6.166
36391SOL    HW111070   4.379   0.757   6.122
36391SOL    HW211071   4.353   0.904   6.098
36392SOL     OW11072   8.886  12.056   0.190
36392SOL    HW111073   8.926  12.058   0.277
36392SOL    HW211074   8.792  12.055   0.208
36393SOL     OW11075   0.346   1.108   6.684
36393SOL    HW111076   0.330   1.198   6.657
36393SOL    HW211077   0.313   1.054   6.612
36394SOL     OW11078  12.126   8.942  13.377
36394SOL    HW111079  12.136   8.847  13.381
36394SOL    HW211080  12.031   8.956  13.387
36395SOL     OW11081   6.289  11.181   1.822
36395SOL    HW111082   6.243  11.100   1.847
36395SOL    HW211083   6.381  11.163   1.841
36396SOL     OW11084  14.065  13.389   6.404
36396SOL    HW111085  14.035  13.303   6.435
36396SOL    HW211086  14.102  13.372   6.318
36397SOL     OW11087  10.498   5.638   0.357
36397SOL    HW111088  10.460   5.697   0.292
36397SOL    HW211089  10.425   5.618   0.416
36398SOL     OW11090   9.090  12.652   0.494
36398SOL    HW111091   9.148  12.576   0.483
36398SOL    HW211092   9.060  12.672   0.405
36399SOL     OW11093   1.229  13.358   6.375
36399SOL    HW111094   1.284  13.338   6.299
36399SOL    HW211095   1.234  13.279   6.429
36400SOL     OW11096  13.479   7.595  12.895
36400SOL    HW111097  13.533   7.516  12.894
36400SOL    HW211098  13.389   7.562  12.891
36401SOL     OW11099  10.001  14.442  14.868
36401SOL    HW111100   9.962  14.527  14.847
36401SOL    HW211101   9.929  14.380  14.860
36402SOL     OW11102   5.384  13.850   5.573
36402SOL    HW111103   5.343  13.802   5.502
36402SOL    HW211104   5.392  13.786   5.644
36403SOL     OW11105  10.349  12.864  10.796
36403SOL    HW111106  10.425  12.921  10.803
36403SOL    HW211107  10.385  12.775  10.800
36404SOL     OW11108   2.016  11.217  10.090
36404SOL    HW111109   2.041  11.238  10.180
36404SOL    HW211110   1.998  11.302  10.050
36405SOL     OW11111  11.273  14.667  12.108
36405SOL    HW111112  11.252  14.645  12.199
36405SOL    HW211113  11.281  14.582  12.064
36406SOL     OW11114  12.782   7.117  13.881
36406SOL    HW111115  12.697   7.161  13.881
36406SOL    HW211116  12.803   7.106  13.788
36407SOL     OW11117   6.575   6.571   0.951
36407SOL    HW111118   6.598   6.518   0.875
36407SOL    HW211119   6.651   6.564   1.009
36408SOL     OW11120   2.953   4.355   5.311
36408SOL    HW111121   2.860   4.347   5.291
36408SOL    HW211122   2.990   4.402   5.237
36409SOL     OW11123  10.145   2.183   2.397
36409SOL    HW111124  10.100   2.156   2.477
36409SOL    HW211125  10.209   2.114   2.381
36410SOL     OW11126  14.211   1.771   7.766
36410SOL    HW111127  14.207   1.795   7.674
36410SOL    HW211128  14.194   1.852   7.813
36411SOL     OW11129   8.461   9.264  11.139
36411SOL    HW111130   8.372   9.232  11.152
36411SOL    HW211131   8.461   9.352  11.176
36412SOL     OW11132   8.361   6.680  14.281
36412SOL    HW111133   8.304   6.753  14.257
36412SOL    HW211134   8.395   6.705  14.368
36413SOL     OW11135   3.770   5.573  10.367
36413SOL    HW111136   3.791   5.617  10.284
36413SOL    HW211137   3.806   5.630  10.434
36414SOL     OW11138   9.455  12.960   1.927
36414SOL    HW111139   9.531  12.947   1.985
36414SOL    HW211140   9.492  12.959   1.839
36415SOL     OW11141  13.751   3.198  10.555
36415SOL    HW111142  13.791   3.111  10.556
36415SOL    HW211143  13.810   3.252  10.503
36416SOL     OW11144  12.659   5.641  13.920
36416SOL    HW111145  12.747   5.663  13.890
36416SOL    HW211146  12.647   5.550  13.893
36417SOL     OW11147   4.317  12.642   7.265
36417SOL    HW111148   4.263  12.626   7.343
36417SOL    HW211149   4.315  12.737   7.254
36418SOL     OW11150   4.907   9.652  11.601
36418SOL    HW111151   4.930   9.698  11.682
36418SOL    HW211152   4.960   9.573  11.603
36419SOL     OW11153   0.129  14.147   7.600
36419SOL    HW111154   0.185  14.077   7.566
36419SOL    HW211155   0.064  14.162   7.530
36420SOL     OW11156  10.450  10.902   6.873
36420SOL    HW111157  10.395  10.976   6.847
36420SOL    HW211158  10.388  10.832   6.892
36421SOL     OW11159  14.346  13.315   3.161
36421SOL    HW111160  14.427  13.343   3.118
36421SOL    HW211161  14.371  13.299   3.252
36422SOL     OW11162   7.888   7.455  12.590
36422SOL    HW111163   7.844   7.501  12.518
36422SOL    HW211164   7.906   7.523  12.654
36423SOL     OW11165   2.826  10.855   5.169
36423SOL    HW111166   2.884  10.841   5.244
36423SOL    HW211167   2.790  10.768   5.150
36424SOL     OW11168   5.791   4.016  12.295
36424SOL    HW111169   5.735   4.083  12.254
36424SOL    HW211170   5.730   3.951  12.329
36425SOL     OW11171   2.804   6.112   5.277
36425SOL    HW111172   2.750   6.096   5.354
36425SOL    HW211173   2.880   6.160   5.310
36426SOL     OW11174  10.808   4.127   2.163
36426SOL    HW111175  10.788   4.071   2.088
36426SOL    HW211176  10.890   4.170   2.140
36427SOL     OW11177   0.820   3.891  11.758
36427SOL    HW111178   0.815   3.855  11.847
36427SOL    HW211179   0.849   3.982  11.771
36428SOL     OW11180   4.725  10.757   3.225
36428SOL    HW111181   4.791  10.821   3.250
36428SOL    HW211182   4.710  10.773   3.132
36429SOL     OW11183  13.227   1.491   5.246
36429SOL    HW111184  13.170   1.492   5.323
36429SOL    HW211185  13.190   1.424   5.189
36430SOL     OW11186   5.527   1.222   3.363
36430SOL    HW111187   5.478   1.153   3.408
36430SOL    HW211188   5.462   1.290   3.345
36431SOL     OW11189   0.331   5.870   2.350
36431SOL    HW111190   0.372   5.819   2.281
36431SOL    HW211191   0.268   5.926   2.304
36432SOL     OW11192   9.147  10.118   7.312
36432SOL    HW111193   9.126  10.207   7.338
36432SOL    HW211194   9.163  10.124   7.218
36433SOL     OW11195   8.643   3.982  11.144
36433SOL    HW111196   8.656   3.887  11.144
36433SOL    HW211197   8.573   3.996  11.080
36434SOL     OW11198   8.413   5.208   3.292
36434SOL    HW111199   8.372   5.292   3.313
36434SOL    HW211200   8.505   5.229   3.279
36435SOL     OW11201   1.208  10.578   0.766
36435SOL    HW111202   1.171  10.558   0.852
36435SOL    HW211203   1.229  10.493   0.728
36436SOL     OW11204   6.569  14.133   7.051
36436SOL    HW111205   6.559  14.134   6.955
36436SOL    HW211206   6.595  14.222   7.073
36437SOL     OW11207   9.753   5.547  13.044
36437SOL    HW111208   9.810   5.542  13.120
36437SOL    HW211209   9.781   5.475  12.988
36438SOL     OW11210   7.376  13.875  12.143
36438SOL    HW111211   7.298  13.925  12.166
36438SOL    HW211212   7.413  13.922  12.068
36439SOL     OW11213  12.822  12.139   1.478
36439SOL    HW111214  12.821  12.091   1.395
36439SOL    HW211215  12.735  12.180   1.483
36440SOL     OW11216  14.774   6.778   8.659
36440SOL    HW111217  14.809   6.723   8.730
36440SOL    HW211218  14.844   6.781   8.594
36441SOL     OW11219  14.173   8.133   9.238
36441SOL    HW111220  14.226   8.204   9.201
36441SOL    HW211221  14.210   8.119   9.325
36442SOL     OW11222   3.422   8.258  10.282
36442SOL    HW111223   3.345   8.258  10.339
36442SOL    HW211224   3.478   8.326  10.317
36443SOL     OW11225   1.040  13.606   3.010
36443SOL    HW111226   1.116  13.557   2.981
36443SOL    HW211227   0.994  13.630   2.930
36444SOL     OW11228   9.529  11.618  14.815
36444SOL    HW111229   9.439  11.625  14.850
36444SOL    HW211230   9.548  11.706  14.780
36445SOL     OW11231  11.180   9.608   0.551
36445SOL    HW111232  11.140   9.694   0.541
36445SOL    HW211233  11.220   9.590   0.466
36446SOL     OW11234   1.623  13.686   6.052
36446SOL    HW111235   1.602  13.747   6.122
36446SOL    HW211236   1.538  13.660   6.016
36447SOL     OW11237   8.286   5.597   8.455
36447SOL    HW111238   8.299   5.543   8.377
36447SOL    HW211239   8.361   5.656   8.457
36448SOL     OW11240   0.616   2.984   9.877
36448SOL    HW111241   0.626   2.891   9.858
36448SOL    HW211242   0.576   2.986   9.964
36449SOL     OW11243   3.295  13.217   5.743
36449SOL    HW111244   3.388  13.234   5.750
36449SOL    HW211245   3.253  13.287   5.792
36450SOL     OW11246  10.024   2.126  12.440
36450SOL    HW111247  10.106   2.143  12.392
36450SOL    HW211248   9.995   2.041  12.407
36451SOL     OW11249   4.490   0.988  11.556
36451SOL    HW111250   4.420   0.927  11.580
36451SOL    HW211251   4.456   1.033  11.479
36452SOL     OW11252  12.272  12.668   2.805
36452SOL    HW111253  12.347  12.696   2.858
36452SOL    HW211254  12.218  12.616   2.864
36453SOL     OW11255   2.199  12.565   1.572
36453SOL    HW111256   2.217  12.472   1.584
36453SOL    HW211257   2.269  12.609   1.618
36454SOL     OW11258   4.407   1.454  10.906
36454SOL    HW111259   4.389   1.499  10.824
36454SOL    HW211260   4.441   1.522  10.963
36455SOL     OW11261  11.466  11.629  10.042
36455SOL    HW111262  11.481  11.560   9.978
36455SOL    HW211263  11.422  11.698   9.993
36456SOL     OW11264   0.032  12.588   8.962
36456SOL    HW111265  14.872  12.545   8.885
36456SOL    HW211266   0.068  12.516   9.014
36457SOL     OW11267   8.052  13.210   7.793
36457SOL    HW111268   8.146  13.220   7.774
36457SOL    HW211269   8.016  13.171   7.713
36458SOL     OW11270  10.835   3.687  11.556
36458SOL    HW111271  10.803   3.696  11.467
36458SOL    HW211272  10.858   3.594  11.564
36459SOL     OW11273   3.118  10.576   5.499
36459SOL    HW111274   3.197  10.534   5.534
36459SOL    HW211275   3.110  10.658   5.549
36460SOL     OW11276  10.323   3.197   8.319
36460SOL    HW111277  10.416   3.209   8.342
36460SOL    HW211278  10.317   3.229   8.229
36461SOL     OW11279  14.190   3.245  14.841
36461SOL    HW111280  14.276   3.231   0.002
36461SOL    HW211281  14.204   3.240  14.747
36462SOL     OW11282   9.880   6.301   0.135
36462SOL    HW111283   9.854   6.290   0.044
36462SOL    HW211284   9.975   6.291   0.135
36463SOL     OW11285   4.046  13.788   4.369
36463SOL    HW111286   4.133  13.754   4.389
36463SOL    HW211287   4.023  13.841   4.445
36464SOL     OW11288   5.416   3.588   8.678
36464SOL    HW111289   5.374   3.579   8.593
36464SOL    HW211290   5.351   3.556   8.741
36465SOL     OW11291  13.744   9.030  14.706
36465SOL    HW111292  13.673   8.974  14.674
36465SOL    HW211293  13.804   8.970  14.751
36466SOL     OW11294  14.315  13.370   4.899
36466SOL    HW111295  14.300  13.451   4.851
36466SOL    HW211296  14.314  13.302   4.831
36467SOL     OW11297   3.342  13.143  13.514
36467SOL    HW111298   3.410  13.202  13.481
36467SOL    HW211299   3.377  13.112  13.597
36468SOL     OW11300   4.310   4.362   1.769
36468SOL    HW111301   4.352   4.293   1.820
36468SOL    HW211302   4.300   4.324   1.682
36469SOL     OW11303   4.047   7.985  14.132
36469SOL    HW111304   3.986   8.037  14.080
36469SOL    HW211305   4.000   7.904  14.152
36470SOL     OW11306   0.095  14.738   3.211
36470SOL    HW111307   0.022  14.735   3.272
36470SOL    HW211308   0.173  14.742   3.267
36471SOL     OW11309  12.644   6.062   5.052
36471SOL    HW111310  12.627   5.978   5.008
36471SOL    HW211311  12.660   6.038   5.143
36472SOL     OW11312   8.618  12.694  12.330
36472SOL    HW111313   8.627  12.782  12.366
36472SOL    HW211314   8.584  12.641  12.402
36473SOL     OW11315   0.655  12.831   9.349
36473SOL    HW111316   0.665  12.864   9.260
36473SOL    HW211317   0.645  12.736   9.338
36474SOL     OW11318   4.170  13.952   0.429
36474SOL    HW111319   4.251  14.000   0.440
36474SOL    HW211320   4.102  14.008   0.466
36475SOL     OW11321   1.985  12.617   2.208
36475SOL    HW111322   1.907  12.663   2.238
36475SOL    HW211323   1.960  12.580   2.123
36476SOL     OW11324  14.612   4.368  12.440
36476SOL    HW111325  14.617   4.385  12.345
36476SOL    HW211326  14.524   4.334  12.454
36477SOL     OW11327   7.519  11.575   1.364
36477SOL    HW111328   7.501  11.600   1.273
36477SOL    HW211329   7.562  11.490   1.357
36478SOL     OW11330   7.920  14.493   9.869
36478SOL    HW111331   7.998  14.547   9.860
36478SOL    HW211332   7.861  14.524   9.801
36479SOL     OW11333  13.220   3.086   8.371
36479SOL    HW111334  13.124   3.084   8.381
36479SOL    HW211335  13.253   3.072   8.459
36480SOL     OW11336   2.539   6.839  12.752
36480SOL    HW111337   2.449   6.807  12.752
36480SOL    HW211338   2.577   6.803  12.832
36481SOL     OW11339   7.212   3.162   7.735
36481SOL    HW111340   7.288   3.197   7.780
36481SOL    HW211341   7.152   3.136   7.805
36482SOL     OW11342   2.125   4.828   9.389
36482SOL    HW111343   2.156   4.739   9.407
36482SOL    HW211344   2.143   4.875   9.471
36483SOL     OW11345  12.913   7.518   8.727
36483SOL    HW111346  12.826   7.541   8.759
36483SOL    HW211347  12.972   7.581   8.769
36484SOL     OW11348   7.016   4.747  12.841
36484SOL    HW111349   6.985   4.658  12.856
36484SOL    HW211350   6.938   4.794  12.811
36485SOL     OW11351  13.701  12.516  12.681
36485SOL    HW111352  13.689  12.481  12.770
36485SOL    HW211353  13.739  12.602  12.695
36486SOL     OW11354   4.060  10.159  13.598
36486SOL    HW111355   4.058  10.208  13.516
36486SOL    HW211356   3.997  10.203  13.655
36487SOL     OW11357  11.110   8.412   9.955
36487SOL    HW111358  11.030   8.396  10.003
36487SOL    HW211359  11.092   8.380   9.866
36488SOL     OW11360  13.254   5.631   3.528
36488SOL    HW111361  13.247   5.653   3.621
36488SOL    HW211362  13.209   5.703   3.483
36489SOL     OW11363  10.021  12.014   6.900
36489SOL    HW111364  10.104  12.059   6.886
36489SOL    HW211365  10.021  11.993   6.994
36490SOL     OW11366  14.096  12.181   9.767
36490SOL    HW111367  14.013  12.191   9.813
36490SOL    HW211368  14.156  12.146   9.832
36491SOL     OW11369   4.713   8.586  13.409
36491SOL    HW111370   4.704   8.518  13.342
36491SOL    HW211371   4.725   8.538  13.491
36492SOL     OW11372  13.716   2.875   2.522
36492SOL    HW111373  13.723   2.937   2.595
36492SOL    HW211374  13.720   2.789   2.564
36493SOL     OW11375   2.685   7.854   9.948
36493SOL    HW111376   2.689   7.758   9.956
36493SOL    HW211377   2.614   7.869   9.884
36494SOL     OW11378   3.612  10.805   7.826
36494SOL    HW111379   3.680  10.767   7.770
36494SOL    HW211380   3.563  10.730   7.859
36495SOL     OW11381   0.204   2.543  13.357
36495SOL    HW111382   0.281   2.555  13.302
36495SOL    HW211383   0.225   2.592  13.437
36496SOL     OW11384   4.265   1.585   0.794
36496SOL    HW111385   4.263   1.492   0.817
36496SOL    HW211386   4.176   1.616   0.811
36497SOL     OW11387  11.595   3.720  13.225
36497SOL    HW111388  11.557   3.804  13.251
36497SOL    HW211389  11.689   3.731  13.239
36498SOL     OW11390  11.654  12.010   6.650
36498SOL    HW111391  11.587  11.950   6.683
36498SOL    HW211392  11.734  11.957   6.645
36499SOL     OW11393   4.149   7.362   0.416
36499SOL    HW111394   4.099   7.329   0.491
36499SOL    HW211395   4.155   7.456   0.430
36500SOL     OW11396   5.615   0.174  10.747
36500SOL    HW111397   5.668   0.141  10.819
36500SOL    HW211398   5.635   0.267  10.742
36501SOL     OW11399  14.032  12.336   9.310
36501SOL    HW111400  13.959  12.285   9.345
36501SOL    HW211401  14.100  12.271   9.293
36502SOL     OW11402   1.613   1.053   3.583
36502SOL    HW111403   1.580   0.980   3.635
36502SOL    HW211404   1.693   1.020   3.542
36503SOL     OW11405  13.201  13.363   5.586
36503SOL    HW111406  13.172  13.454   5.599
36503SOL    HW211407  13.234  13.361   5.497
36504SOL     OW11408  10.232   6.257   0.747
36504SOL    HW111409  10.276   6.176   0.722
36504SOL    HW211410  10.273   6.282   0.830
36505SOL     OW11411  11.572   3.900   8.093
36505SOL    HW111412  11.569   3.954   8.173
36505SOL    HW211413  11.530   3.818   8.118
36506SOL     OW11414   6.044   1.433   8.985
36506SOL    HW111415   5.963   1.415   9.032
36506SOL    HW211416   6.060   1.353   8.935
36507SOL     OW11417   4.682   6.296   9.115
36507SOL    HW111418   4.749   6.298   9.047
36507SOL    HW211419   4.732   6.290   9.197
36508SOL     OW11420   7.499  12.985   1.664
36508SOL    HW111421   7.413  12.989   1.622
36508SOL    HW211422   7.551  13.051   1.618
36509SOL     OW11423   9.845  11.204   4.684
36509SOL    HW111424   9.871  11.129   4.738
36509SOL    HW211425   9.830  11.275   4.746
36510SOL     OW11426  13.128  14.591   9.149
36510SOL    HW111427  13.134  14.633   9.235
36510SOL    HW211428  13.044  14.545   9.151
36511SOL     OW11429   3.051  11.939   6.631
36511SOL    HW111430   3.056  11.924   6.726
36511SOL    HW211431   3.142  11.937   6.602
36512SOL     OW11432   5.983  14.514   1.999
36512SOL    HW111433   6.022  14.574   1.935
36512SOL    HW211434   6.043  14.515   2.073
36513SOL     OW11435   7.183   5.290   4.190
36513SOL    HW111436   7.184   5.353   4.262
36513SOL    HW211437   7.196   5.343   4.111
36514SOL     OW11438   8.345   3.711   4.873
36514SOL    HW111439   8.399   3.751   4.941
36514SOL    HW211440   8.264   3.763   4.873
36515SOL     OW11441  10.702  14.448   0.705
36515SOL    HW111442  10.680  14.535   0.737
36515SOL    HW211443  10.627  14.422   0.652
36516SOL     OW11444  10.878  12.086   9.940
36516SOL    HW111445  10.913  12.164   9.897
36516SOL    HW211446  10.850  12.118  10.026
36517SOL     OW11447   5.006   3.362   7.379
36517SOL    HW111448   5.053   3.407   7.449
36517SOL    HW211449   4.996   3.272   7.411
36518SOL     OW11450   7.705   6.234  11.102
36518SOL    HW111451   7.702   6.150  11.057
36518SOL    HW211452   7.614   6.263  11.106
36519SOL     OW11453  13.232  10.080   4.058
36519SOL    HW111454  13.232  10.175   4.044
36519SOL    HW211455  13.265  10.070   4.147
36520SOL     OW11456   8.350   4.401  14.041
36520SOL    HW111457   8.434   4.408  13.995
36520SOL    HW211458   8.369   4.427  14.131
36521SOL     OW11459   7.644   7.576  10.799
36521SOL    HW111460   7.699   7.506  10.763
36521SOL    HW211461   7.659   7.651  10.742
36522SOL     OW11462   6.439  10.817   1.031
36522SOL    HW111463   6.475  10.818   1.119
36522SOL    HW211464   6.476  10.895   0.989
36523SOL     OW11465   3.043  12.247   8.208
36523SOL    HW111466   3.041  12.234   8.303
36523SOL    HW211467   3.105  12.319   8.195
36524SOL     OW11468   0.698   7.977  13.354
36524SOL    HW111469   0.762   7.907  13.361
36524SOL    HW211470   0.642   7.966  13.431
36525SOL     OW11471   2.120   2.537  12.795
36525SOL    HW111472   2.148   2.541  12.887
36525SOL    HW211473   2.076   2.621  12.781
36526SOL     OW11474  14.680  13.049   2.590
36526SOL    HW111475  14.621  12.974   2.578
36526SOL    HW211476  14.627  13.115   2.634
36527SOL     OW11477   9.779  11.634  10.666
36527SOL    HW111478   9.874  11.645  10.670
36527SOL    HW211479   9.745  11.700  10.727
36528SOL     OW11480  12.277   8.065   7.256
36528SOL    HW111481  12.363   8.060   7.216
36528SOL    HW211482  12.294   8.064   7.350
36529SOL     OW11483  10.310  11.820  11.607
36529SOL    HW111484  10.287  11.734  11.573
36529SOL    HW211485  10.237  11.845  11.663
36530SOL     OW11486  11.694   6.213   6.032
36530SOL    HW111487  11.780   6.184   6.000
36530SOL    HW211488  11.642   6.224   5.953
36531SOL     OW11489   2.773   2.857   7.281
36531SOL    HW111490   2.699   2.885   7.228
36531SOL    HW211491   2.806   2.778   7.237
36532SOL     OW11492   8.069   9.472   5.176
36532SOL    HW111493   7.992   9.508   5.133
36532SOL    HW211494   8.072   9.515   5.262
36533SOL     OW11495  11.551   9.287   9.415
36533SOL    HW111496  11.567   9.206   9.463
36533SOL    HW211497  11.513   9.258   9.332
36534SOL     OW11498   6.933   4.834   5.166
36534SOL    HW111499   6.931   4.845   5.071
36534SOL    HW211500   6.956   4.921   5.199
36535SOL     OW11501  10.046   1.529   3.111
36535SOL    HW111502  10.029   1.615   3.148
36535SOL    HW211503  10.116   1.493   3.164
36536SOL     OW11504  14.804   7.926   2.121
36536SOL    HW111505  14.711   7.928   2.097
36536SOL    HW211506  14.828   8.017   2.136
36537SOL     OW11507   1.809  14.835   1.570
36537SOL    HW111508   1.810  14.810   1.478
36537SOL    HW211509   1.780   0.048   1.571
36538SOL     OW11510   8.491   6.660   8.701
36538SOL    HW111511   8.577   6.623   8.719
36538SOL    HW211512   8.437   6.584   8.676
36539SOL     OW11513  12.097   1.798   3.173
36539SOL    HW111514  12.192   1.807   3.163
36539SOL    HW211515  12.080   1.704   3.166
36540SOL     OW11516  13.396   1.683  13.329
36540SOL    HW111517  13.399   1.698  13.234
36540SOL    HW211518  13.487   1.687  13.357
36541SOL     OW11519   1.879   1.534   2.139
36541SOL    HW111520   1.792   1.497   2.153
36541SOL    HW211521   1.915   1.483   2.067
36542SOL     OW11522  14.120   8.137  12.788
36542SOL    HW111523  14.083   8.115  12.703
36542SOL    HW211524  14.085   8.223  12.808
36543SOL     OW11525   6.182  13.129   0.372
36543SOL    HW111526   6.207  13.215   0.338
36543SOL    HW211527   6.210  13.068   0.304
36544SOL     OW11528  13.084  10.995   4.559
36544SOL    HW111529  13.075  10.911   4.513
36544SOL    HW211530  13.051  10.977   4.647
36545SOL     OW11531   3.318   0.420   2.655
36545SOL    HW111532   3.370   0.463   2.723
36545SOL    HW211533   3.251   0.371   2.704
36546SOL     OW11534  12.017  13.128  11.042
36546SOL    HW111535  12.104  13.156  11.013
36546SOL    HW211536  11.963  13.134  10.963
36547SOL     OW11537  10.253   1.817   3.061
36547SOL    HW111538  10.188   1.783   2.999
36547SOL    HW211539  10.201   1.848   3.135
36548SOL     OW11540  12.125   9.271  10.796
36548SOL    HW111541  12.145   9.339  10.732
36548SOL    HW211542  12.042   9.233  10.766
36549SOL     OW11543   6.096   0.718   8.614
36549SOL    HW111544   6.190   0.728   8.601
36549SOL    HW211545   6.086   0.632   8.655
36550SOL     OW11546  14.448  11.758   3.948
36550SOL    HW111547  14.506  11.818   3.901
36550SOL    HW211548  14.382  11.733   3.884
36551SOL     OW11549  14.373   8.838   6.495
36551SOL    HW111550  14.374   8.782   6.417
36551SOL    HW211551  14.382   8.927   6.461
36552SOL     OW11552   4.936   1.764   3.006
36552SOL    HW111553   5.008   1.780   2.945
36552SOL    HW211554   4.977   1.720   3.080
36553SOL     OW11555   9.638  10.477  14.164
36553SOL    HW111556   9.673  10.564  14.146
36553SOL    HW211557   9.596  10.450  14.083
36554SOL     OW11558  10.866   4.912   6.883
36554SOL    HW111559  10.957   4.925   6.912
36554SOL    HW211560  10.832   5.001   6.872
36555SOL     OW11561   0.948   3.729  11.960
36555SOL    HW111562   0.959   3.714  12.053
36555SOL    HW211563   1.028   3.692  11.920
36556SOL     OW11564   3.527   1.900   1.396
36556SOL    HW111565   3.440   1.859   1.399
36556SOL    HW211566   3.532   1.953   1.476
36557SOL     OW11567  13.703   3.776  12.533
36557SOL    HW111568  13.634   3.831  12.571
36557SOL    HW211569  13.745   3.735  12.609
36558SOL     OW11570   1.023  10.013   3.737
36558SOL    HW111571   1.038   9.936   3.681
36558SOL    HW211572   1.061  10.086   3.688
36559SOL     OW11573   8.723   3.919  11.828
36559SOL    HW111574   8.731   3.978  11.752
36559SOL    HW211575   8.629   3.912  11.842
36560SOL     OW11576   9.903  12.073   5.873
36560SOL    HW111577   9.817  12.063   5.831
36560SOL    HW211578   9.965  12.059   5.802
36561SOL     OW11579  11.166  13.295   6.723
36561SOL    HW111580  11.209  13.300   6.638
36561SOL    HW211581  11.190  13.377   6.766
36562SOL     OW11582   0.005   1.672  12.088
36562SOL    HW111583  14.875   1.644  12.179
36562SOL    HW211584  14.793   1.694  12.062
36563SOL     OW11585   4.458  11.855   0.142
36563SOL    HW111586   4.421  11.777   0.102
36563SOL    HW211587   4.422  11.928   0.091
36564SOL     OW11588   7.686   3.140   2.680
36564SOL    HW111589   7.710   3.226   2.716
36564SOL    HW211590   7.669   3.086   2.757
36565SOL     OW11591  10.553   2.883   9.589
36565SOL    HW111592  10.591   2.970   9.600
36565SOL    HW211593  10.481   2.895   9.527
36566SOL     OW11594   5.692   5.479  11.022
36566SOL    HW111595   5.782   5.500  10.996
36566SOL    HW211596   5.663   5.414  10.958
36567SOL     OW11597  14.586   8.154   4.751
36567SOL    HW111598  14.664   8.100   4.737
36567SOL    HW211599  14.513   8.093   4.744
36568SOL     OW11600   5.946   6.861   5.970
36568SOL    HW111601   5.968   6.799   5.900
36568SOL    HW211602   5.973   6.946   5.935
36569SOL     OW11603   1.021  12.068   6.917
36569SOL    HW111604   0.985  12.084   6.830
36569SOL    HW211605   1.115  12.061   6.904
36570SOL     OW11606   2.837   3.098   7.416
36570SOL    HW111607   2.754   3.089   7.464
36570SOL    HW211608   2.844   3.017   7.365
36571SOL     OW11609   0.901   4.743   9.972
36571SOL    HW111610   0.966   4.678   9.946
36571SOL    HW211611   0.829   4.731   9.909
36572SOL     OW11612   8.747   9.929  11.472
36572SOL    HW111613   8.746   9.979  11.553
36572SOL    HW211614   8.665   9.879  11.474
36573SOL     OW11615  10.124   2.230  14.497
36573SOL    HW111616  10.205   2.275  14.473
36573SOL    HW211617  10.061   2.301  14.510
36574SOL     OW11618   9.631  10.673  12.290
36574SOL    HW111619   9.722  10.693  12.310
36574SOL    HW211620   9.586  10.758  12.295
36575SOL     OW11621   2.428   2.932  14.525
36575SOL    HW111622   2.488   3.000  14.495
36575SOL    HW211623   2.368   2.918  14.451
36576SOL     OW11624   4.161   7.335   0.799
36576SOL    HW111625   4.134   7.408   0.743
36576SOL    HW211626   4.132   7.257   0.753
36577SOL     OW11627  11.316  13.766   6.618
36577SOL    HW111628  11.299  13.857   6.643
36577SOL    HW211629  11.233  13.721   6.633
36578SOL     OW11630   4.905  14.038  12.040
36578SOL    HW111631   4.983  14.095  12.043
36578SOL    HW211632   4.934  13.961  11.991
36579SOL     OW11633   0.080   1.732   0.132
36579SOL    HW111634  14.874   1.687   0.146
36579SOL    HW211635   0.124   1.727   0.216
36580SOL     OW11636   3.410   9.894   1.120
36580SOL    HW111637   3.425   9.866   1.211
36580SOL    HW211638   3.337   9.840   1.090
36581SOL     OW11639  12.712   1.975   9.173
36581SOL    HW111640  12.787   1.951   9.227
36581SOL    HW211641  12.737   1.949   9.085
36582SOL     OW11642   4.502  12.595  12.645
36582SOL    HW111643   4.563  12.547  12.590
36582SOL    HW211644   4.435  12.628  12.585
36583SOL     OW11645   5.183   1.916  14.385
36583SOL    HW111646   5.206   1.826  14.364
36583SOL    HW211647   5.262   1.951  14.428
36584SOL     OW11648   7.913  10.271   3.892
36584SOL    HW111649   7.893  10.320   3.972
36584SOL    HW211650   7.894  10.331   3.821
36585SOL     OW11651   0.869  12.067  10.703
36585SOL    HW111652   0.880  12.079  10.609
36585SOL    HW211653   0.909  11.982  10.722
36586SOL     OW11654   9.882   9.354   4.653
36586SOL    HW111655   9.966   9.361   4.698
36586SOL    HW211656   9.828   9.300   4.712
36587SOL     OW11657  10.652  11.139   6.493
36587SOL    HW111658  10.642  11.083   6.571
36587SOL    HW211659  10.713  11.207   6.521
36588SOL     OW11660   0.074  12.322   7.067
36588SOL    HW111661   0.004  12.330   7.132
36588SOL    HW211662   0.110  12.235   7.081
36589SOL     OW11663  11.718   7.731   9.667
36589SOL    HW111664  11.733   7.794   9.596
36589SOL    HW211665  11.646   7.769   9.718
36590SOL     OW11666  11.101   2.022   0.873
36590SOL    HW111667  11.109   2.081   0.948
36590SOL    HW211668  11.057   1.945   0.908
36591SOL     OW11669  12.212  10.604   5.513
36591SOL    HW111670  12.293  10.571   5.476
36591SOL    HW211671  12.143  10.554   5.469
36592SOL     OW11672   9.942   2.321  12.625
36592SOL    HW111673   9.882   2.259  12.668
36592SOL    HW211674   9.978   2.273  12.551
36593SOL     OW11675   9.170   4.217  11.521
36593SOL    HW111676   9.217   4.154  11.468
36593SOL    HW211677   9.116   4.266  11.458
36594SOL     OW11678  12.618   0.836   8.697
36594SOL    HW111679  12.694   0.879   8.657
36594SOL    HW211680  12.583   0.901   8.757
36595SOL     OW11681   7.524   7.381   4.984
36595SOL    HW111682   7.503   7.289   4.968
36595SOL    HW211683   7.492   7.398   5.072
36596SOL     OW11684   8.781   9.736  13.930
36596SOL    HW111685   8.712   9.800  13.949
36596SOL    HW211686   8.733   9.655  13.910
36597SOL     OW11687  12.183   5.159   8.021
36597SOL    HW111688  12.146   5.187   7.937
36597SOL    HW211689  12.108   5.160   8.081
36598SOL     OW11690   1.006  13.752   7.081
36598SOL    HW111691   0.912  13.766   7.071
36598SOL    HW211692   1.023  13.766   7.174
36599SOL     OW11693  14.491  10.255   2.932
36599SOL    HW111694  14.521  10.171   2.966
36599SOL    HW211695  14.570  10.298   2.899
36600SOL     OW11696  14.349  12.658   6.912
36600SOL    HW111697  14.381  12.571   6.937
36600SOL    HW211698  14.287  12.641   6.841
36601SOL     OW11699   8.907  14.391   4.802
36601SOL    HW111700   8.888  14.331   4.874
36601SOL    HW211701   8.881  14.343   4.724
36602SOL     OW11702   7.185  10.600   5.690
36602SOL    HW111703   7.127  10.588   5.615
36602SOL    HW211704   7.126  10.619   5.763
36603SOL     OW11705   2.445   1.446  14.522
36603SOL    HW111706   2.400   1.503  14.585
36603SOL    HW211707   2.457   1.364  14.568
36604SOL     OW11708   8.047   2.111   2.329
36604SOL    HW111709   8.116   2.177   2.320
36604SOL    HW211710   8.091   2.033   2.361
36605SOL     OW11711  14.247   6.291   0.389
36605SOL    HW111712  14.275   6.266   0.477
36605SOL    HW211713  14.307   6.363   0.365
36606SOL     OW11714  13.768   3.613   8.146
36606SOL    HW111715  13.795   3.545   8.084
36606SOL    HW211716  13.798   3.695   8.107
36607SOL     OW11717   0.504   9.051   0.555
36607SOL    HW111718   0.541   8.995   0.487
36607SOL    HW211719   0.547   9.136   0.541
36608SOL     OW11720  11.281  14.702  12.662
36608SOL    HW111721  11.339  14.763  12.706
36608SOL    HW211722  11.249  14.751  12.586
36609SOL     OW11723   5.691   4.918   8.370
36609SOL    HW111724   5.686   4.948   8.279
36609SOL    HW211725   5.781   4.888   8.381
36610SOL     OW11726  13.539   6.430  13.968
36610SOL    HW111727  13.496   6.454  14.050
36610SOL    HW211728  13.633   6.443  13.985
36611SOL     OW11729  11.200   1.305  12.840
36611SOL    HW111730  11.210   1.220  12.883
36611SOL    HW211731  11.128   1.292  12.778
36612SOL     OW11732  12.711   2.352  13.970
36612SOL    HW111733  12.692   2.442  13.995
36612SOL    HW211734  12.627   2.307  13.979
36613SOL     OW11735   2.703   2.481   9.338
36613SOL    HW111736   2.687   2.462   9.245
36613SOL    HW211737   2.736   2.571   9.338
36614SOL     OW11738   1.281   1.456   6.597
36614SOL    HW111739   1.337   1.378   6.600
36614SOL    HW211740   1.261   1.474   6.689
36615SOL     OW11741   5.522  12.321   9.332
36615SOL    HW111742   5.523  12.381   9.406
36615SOL    HW211743   5.456  12.255   9.355
36616SOL     OW11744   3.112   0.360   5.491
36616SOL    HW111745   3.033   0.355   5.545
36616SOL    HW211746   3.177   0.403   5.547
36617SOL     OW11747  10.025   7.785   0.920
36617SOL    HW111748  10.062   7.868   0.892
36617SOL    HW211749  10.026   7.730   0.841
36618SOL     OW11750  12.778   3.831   7.915
36618SOL    HW111751  12.705   3.892   7.920
36618SOL    HW211752  12.843   3.867   7.975
36619SOL     OW11753   7.752  11.360   7.887
36619SOL    HW111754   7.843  11.383   7.909
36619SOL    HW211755   7.753  11.350   7.792
36620SOL     OW11756  10.784   6.519   9.144
36620SOL    HW111757  10.786   6.423   9.148
36620SOL    HW211758  10.696   6.539   9.111
36621SOL     OW11759  13.702   2.886   1.827
36621SOL    HW111760  13.641   2.825   1.787
36621SOL    HW211761  13.784   2.873   1.779
36622SOL     OW11762   5.252   7.322  10.228
36622SOL    HW111763   5.273   7.325  10.321
36622SOL    HW211764   5.311   7.385  10.188
36623SOL     OW11765   8.055  11.872  13.788
36623SOL    HW111766   7.962  11.863  13.768
36623SOL    HW211767   8.091  11.923  13.715
36624SOL     OW11768   2.616   7.865   4.928
36624SOL    HW111769   2.567   7.871   5.009
36624SOL    HW211770   2.550   7.842   4.862
36625SOL     OW11771  10.756   3.180   0.314
36625SOL    HW111772  10.780   3.273   0.316
36625SOL    HW211773  10.680   3.173   0.371
36626SOL     OW11774   3.895   3.681   0.445
36626SOL    HW111775   3.956   3.725   0.385
36626SOL    HW211776   3.919   3.713   0.532
36627SOL     OW11777   0.767   7.140   8.910
36627SOL    HW111778   0.674   7.131   8.931
36627SOL    HW211779   0.780   7.082   8.835
36628SOL     OW11780   6.050   0.882   7.757
36628SOL    HW111781   6.021   0.946   7.822
36628SOL    HW211782   6.084   0.934   7.685
36629SOL     OW11783  13.474   2.919  14.536
36629SOL    HW111784  13.506   2.838  14.574
36629SOL    HW211785  13.502   2.916  14.445
36630SOL     OW11786   6.169  14.562   0.415
36630SOL    HW111787   6.190  14.651   0.388
36630SOL    HW211788   6.204  14.506   0.345
36631SOL     OW11789   5.362   8.906  14.728
36631SOL    HW111790   5.417   8.915  14.650
36631SOL    HW211791   5.363   8.994  14.767
36632SOL     OW11792  12.173  11.403   0.380
36632SOL    HW111793  12.207  11.397   0.470
36632SOL    HW211794  12.237  11.357   0.327
36633SOL     OW11795  13.928   6.756  13.362
36633SOL    HW111796  13.979   6.751  13.282
36633SOL    HW211797  13.856   6.816  13.341
36634SOL     OW11798   9.135  12.130   9.006
36634SOL    HW111799   9.135  12.046   8.959
36634SOL    HW211800   9.227  12.147   9.024
36635SOL     OW11801   1.491   4.851   3.885
36635SOL    HW111802   1.571   4.819   3.927
36635SOL    HW211803   1.506   4.838   3.791
36636SOL     OW11804  13.857   6.094   0.211
36636SOL    HW111805  13.929   6.139   0.255
36636SOL    HW211806  13.784   6.155   0.217
36637SOL     OW11807   5.479  14.732   3.585
36637SOL    HW111808   5.553  14.791   3.571
36637SOL    HW211809   5.405  14.775   3.543
36638SOL     OW11810  13.107   5.146   5.137
36638SOL    HW111811  13.020   5.110   5.150
36638SOL    HW211812  13.146   5.092   5.069
36639SOL     OW11813   4.413   7.401   9.011
36639SOL    HW111814   4.497   7.417   8.968
36639SOL    HW211815   4.378   7.323   8.969
36640SOL     OW11816   4.658   0.763  13.646
36640SOL    HW111817   4.644   0.743  13.553
36640SOL    HW211818   4.644   0.858  13.652
36641SOL     OW11819   5.736   4.544  14.818
36641SOL    HW111820   5.766   4.585   0.021
36641SOL    HW211821   5.643   4.566  14.813
36642SOL     OW11822  13.123  10.342   0.086
36642SOL    HW111823  13.202  10.346   0.033
36642SOL    HW211824  13.084  10.257   0.067
36643SOL     OW11825   4.438   7.989   7.307
36643SOL    HW111826   4.423   8.060   7.244
36643SOL    HW211827   4.509   8.022   7.362
36644SOL     OW11828  13.537   6.232   1.037
36644SOL    HW111829  13.494   6.157   0.996
36644SOL    HW211830  13.544   6.208   1.129
36645SOL     OW11831   9.663   9.954   8.490
36645SOL    HW111832   9.649   9.998   8.574
36645SOL    HW211833   9.577   9.917   8.468
36646SOL     OW11834   2.854   3.440   2.938
36646SOL    HW111835   2.868   3.527   2.974
36646SOL    HW211836   2.877   3.448   2.845
36647SOL     OW11837   2.225   2.622   0.595
36647SOL    HW111838   2.140   2.616   0.638
36647SOL    HW211839   2.247   2.531   0.573
36648SOL     OW11840   5.093   1.422  11.053
36648SOL    HW111841   5.150   1.494  11.077
36648SOL    HW211842   5.128   1.391  10.969
36649SOL     OW11843  11.149  11.823  14.215
36649SOL    HW111844  11.241  11.838  14.238
36649SOL    HW211845  11.108  11.909  14.225
36650SOL     OW11846   2.424   5.153   9.240
36650SOL    HW111847   2.469   5.097   9.178
36650SOL    HW211848   2.331   5.142   9.221
36651SOL     OW11849  11.253   5.786   0.656
36651SOL    HW111850  11.312   5.824   0.591
36651SOL    HW211851  11.287   5.698   0.671
36652SOL     OW11852   5.766  11.479  13.252
36652SOL    HW111853   5.743  11.532  13.328
36652SOL    HW211854   5.686  11.433  13.229
36653SOL     OW11855   7.341  13.504  11.258
36653SOL    HW111856   7.299  13.429  11.215
36653SOL    HW211857   7.270  13.551  11.300
36654SOL     OW11858   2.989  14.832   7.196
36654SOL    HW111859   3.064  14.773   7.205
36654SOL    HW211860   2.974  14.865   7.285
36655SOL     OW11861   3.922  14.004  12.564
36655SOL    HW111862   3.943  14.076  12.623
36655SOL    HW211863   3.887  14.046  12.486
36656SOL     OW11864   0.327  14.341   2.992
36656SOL    HW111865   0.250  14.386   3.027
36656SOL    HW211866   0.400  14.380   3.039
36657SOL     OW11867  11.884   5.909   9.744
36657SOL    HW111868  11.852   5.912   9.654
36657SOL    HW211869  11.808   5.932   9.798
36658SOL     OW11870  11.030  11.189   0.327
36658SOL    HW111871  10.943  11.149   0.322
36658SOL    HW211872  11.089  11.116   0.344
36659SOL     OW11873  12.751   9.162  14.536
36659SOL    HW111874  12.845   9.176  14.522
36659SOL    HW211875  12.747   9.114  14.619
36660SOL     OW11876  13.144  10.982  14.729
36660SOL    HW111877  13.157  10.970  14.823
36660SOL    HW211878  13.185  10.906  14.689
36661SOL     OW11879   5.939   1.629   2.006
36661SOL    HW111880   5.888   1.565   1.956
36661SOL    HW211881   5.887   1.643   2.086
36662SOL     OW11882   2.770  10.692   3.281
36662SOL    HW111883   2.693  10.680   3.225
36662SOL    HW211884   2.844  10.691   3.219
36663SOL     OW11885  13.930   9.539   0.731
36663SOL    HW111886  13.865   9.524   0.799
36663SOL    HW211887  13.909   9.474   0.663
36664SOL     OW11888   1.152   0.043   7.123
36664SOL    HW111889   1.198   0.125   7.144
36664SOL    HW211890   1.218  14.853   7.136
36665SOL     OW11891   2.646  13.698  10.557
36665SOL    HW111892   2.610  13.610  10.573
36665SOL    HW211893   2.700  13.687  10.478
36666SOL     OW11894   2.987   8.100   8.864
36666SOL    HW111895   2.898   8.096   8.900
36666SOL    HW211896   2.978   8.152   8.784
36667SOL     OW11897  13.515   7.163  11.498
36667SOL    HW111898  13.607   7.158  11.473
36667SOL    HW211899  13.507   7.105  11.574
36668SOL     OW11900   9.475   1.206   5.161
36668SOL    HW111901   9.504   1.281   5.109
36668SOL    HW211902   9.516   1.130   5.117
36669SOL     OW11903   5.206  13.233   1.057
36669SOL    HW111904   5.160  13.300   1.007
36669SOL    HW211905   5.228  13.275   1.140
36670SOL     OW11906   1.950  12.305  14.497
36670SOL    HW111907   1.984  12.377  14.550
36670SOL    HW211908   1.899  12.252  14.559
36671SOL     OW11909   5.658  13.427   8.951
36671SOL    HW111910   5.653  13.446   8.857
36671SOL    HW211911   5.692  13.508   8.990
36672SOL     OW11912   6.908   8.038   6.713
36672SOL    HW111913   6.933   7.998   6.796
36672SOL    HW211914   6.813   8.032   6.711
36673SOL     OW11915   8.979   3.472   8.626
36673SOL    HW111916   9.041   3.540   8.601
36673SOL    HW211917   8.929   3.454   8.547
36674SOL     OW11918  14.353   1.007   7.265
36674SOL    HW111919  14.358   1.021   7.170
36674SOL    HW211920  14.309   1.085   7.298
36675SOL     OW11921   9.342   8.964   6.347
36675SOL    HW111922   9.317   8.873   6.336
36675SOL    HW211923   9.314   9.007   6.266
36676SOL     OW11924  13.081   7.507  12.233
36676SOL    HW111925  13.020   7.528  12.303
36676SOL    HW211926  13.095   7.590  12.187
36677SOL     OW11927   5.687  12.710   7.520
36677SOL    HW111928   5.598  12.705   7.555
36677SOL    HW211929   5.742  12.733   7.595
36678SOL     OW11930   1.288   4.451  12.382
36678SOL    HW111931   1.265   4.359  12.365
36678SOL    HW211932   1.267   4.497  12.301
36679SOL     OW11933  10.123   9.579  11.319
36679SOL    HW111934  10.052   9.593  11.257
36679SOL    HW211935  10.107   9.643  11.389
36680SOL     OW11936   1.246   4.041   0.992
36680SOL    HW111937   1.224   4.094   0.915
36680SOL    HW211938   1.211   3.955   0.972
36681SOL     OW11939  12.372  12.341  13.299
36681SOL    HW111940  12.457  12.381  13.282
36681SOL    HW211941  12.385  12.248  13.281
36682SOL     OW11942  11.124   0.274   9.788
36682SOL    HW111943  11.034   0.307   9.786
36682SOL    HW211944  11.116   0.181   9.770
36683SOL     OW11945   4.073   6.487   8.561
36683SOL    HW111946   4.064   6.419   8.494
36683SOL    HW211947   4.124   6.445   8.630
36684SOL     OW11948   2.527   6.908  12.433
36684SOL    HW111949   2.538   6.892  12.527
36684SOL    HW211950   2.464   6.980  12.429
36685SOL     OW11951  12.860   4.764   1.173
36685SOL    HW111952  12.911   4.722   1.103
36685SOL    HW211953  12.886   4.856   1.169
36686SOL     OW11954   1.778  14.477  12.554
36686SOL    HW111955   1.811  14.567  12.556
36686SOL    HW211956   1.738  14.468  12.467
36687SOL     OW11957   7.602  13.980  14.872
36687SOL    HW111958   7.617  14.001  14.779
36687SOL    HW211959   7.687  13.996   0.036
36688SOL     OW11960  10.573   1.056   3.009
36688SOL    HW111961  10.566   1.027   3.100
36688SOL    HW211962  10.504   1.007   2.964
36689SOL     OW11963  12.720  14.246   0.420
36689SOL    HW111964  12.723  14.245   0.324
36689SOL    HW211965  12.738  14.337   0.443
36690SOL     OW11966  12.184  14.375   7.151
36690SOL    HW111967  12.159  14.322   7.227
36690SOL    HW211968  12.260  14.424   7.181
36691SOL     OW11969  10.636   1.494   8.511
36691SOL    HW111970  10.649   1.499   8.416
36691SOL    HW211971  10.546   1.523   8.524
36692SOL     OW11972   0.486   4.661   6.073
36692SOL    HW111973   0.522   4.608   6.002
36692SOL    HW211974   0.514   4.616   6.153
36693SOL     OW11975   0.670   9.645   3.673
36693SOL    HW111976   0.683   9.625   3.765
36693SOL    HW211977   0.695   9.737   3.664
36694SOL     OW11978   9.880   4.315   7.431
36694SOL    HW111979   9.939   4.254   7.386
36694SOL    HW211980   9.930   4.345   7.507
36695SOL     OW11981  12.421   0.541   1.776
36695SOL    HW111982  12.507   0.498   1.784
36695SOL    HW211983  12.403   0.574   1.864
36696SOL     OW11984   4.035  10.689  13.361
36696SOL    HW111985   4.048  10.699  13.267
36696SOL    HW211986   3.990  10.770  13.387
36697SOL     OW11987   6.655  10.677   6.001
36697SOL    HW111988   6.682  10.695   6.091
36697SOL    HW211989   6.568  10.716   5.994
36698SOL     OW11990   0.839   2.014  10.968
36698SOL    HW111991   0.847   1.941  11.030
36698SOL    HW211992   0.902   2.079  10.999
36699SOL     OW11993  10.829   6.927   0.237
36699SOL    HW111994  10.857   6.902   0.325
36699SOL    HW211995  10.825   7.023   0.239
36700SOL     OW11996   3.033   5.510   6.998
36700SOL    HW111997   3.011   5.469   6.915
36700SOL    HW211998   2.973   5.471   7.061
36701SOL     OW11999   7.135  11.646   0.621
36701SOL    HW112000   7.098  11.561   0.647
36701SOL    HW212001   7.219  11.650   0.666
36702SOL     OW12002   9.687   5.974   1.146
36702SOL    HW112003   9.642   5.951   1.065
36702SOL    HW212004   9.618   6.001   1.206
36703SOL     OW12005   2.563  13.253  14.701
36703SOL    HW112006   2.476  13.291  14.705
36703SOL    HW212007   2.595  13.255  14.792
36704SOL     OW12008  12.496   6.458   7.953
36704SOL    HW112009  12.551   6.397   7.906
36704SOL    HW212010  12.412   6.413   7.962
36705SOL     OW12011   9.766   3.387  14.560
36705SOL    HW112012   9.771   3.355  14.470
36705SOL    HW212013   9.749   3.481  14.551
36706SOL     OW12014  12.398   8.588  12.394
36706SOL    HW112015  12.403   8.509  12.449
36706SOL    HW212016  12.328   8.640  12.434
36707SOL     OW12017   0.059   1.200   4.971
36707SOL    HW112018   0.076   1.107   4.957
36707SOL    HW212019  14.848   1.215   4.938
36708SOL     OW12020   5.463  14.132   4.463
36708SOL    HW112021   5.494  14.092   4.382
36708SOL    HW212022   5.523  14.100   4.530
36709SOL     OW12023   2.190   0.941  11.568
36709SOL    HW112024   2.113   0.995  11.588
36709SOL    HW212025   2.159   0.851  11.580
36710SOL     OW12026   2.345   7.888   5.357
36710SOL    HW112027   2.416   7.824   5.357
36710SOL    HW212028   2.328   7.905   5.450
36711SOL     OW12029  14.558   4.605   4.867
36711SOL    HW112030  14.590   4.515   4.876
36711SOL    HW212031  14.603   4.639   4.790
36712SOL     OW12032   4.339  10.724   4.038
36712SOL    HW112033   4.431  10.706   4.024
36712SOL    HW212034   4.293  10.664   3.980
36713SOL     OW12035   8.779  12.222   5.384
36713SOL    HW112036   8.756  12.240   5.293
36713SOL    HW212037   8.824  12.302   5.414
36714SOL     OW12038   9.795   4.270   1.415
36714SOL    HW112039   9.720   4.214   1.437
36714SOL    HW212040   9.870   4.211   1.418
36715SOL     OW12041  12.402   8.360  12.554
36715SOL    HW112042  12.477   8.325  12.505
36715SOL    HW212043  12.336   8.292  12.547
36716SOL     OW12044  10.547  11.087   1.193
36716SOL    HW112045  10.451  11.094   1.191
36716SOL    HW212046  10.577  11.169   1.153
36717SOL     OW12047   8.784  13.737   8.014
36717SOL    HW112048   8.699  13.743   7.972
36717SOL    HW212049   8.773  13.669   8.080
36718SOL     OW12050   7.810   6.229   5.836
36718SOL    HW112051   7.856   6.152   5.867
36718SOL    HW212052   7.871   6.302   5.851
36719SOL     OW12053  10.288   4.419   2.924
36719SOL    HW112054  10.353   4.370   2.974
36719SOL    HW212055  10.332   4.501   2.901
36720SOL     OW12056   9.978   7.762   7.192
36720SOL    HW112057   9.966   7.857   7.187
36720SOL    HW212058   9.891   7.727   7.173
36721SOL     OW12059   8.943   6.633  14.106
36721SOL    HW112060   8.990   6.714  14.084
36721SOL    HW212061   8.952   6.578  14.028
36722SOL     OW12062  14.452   0.189  11.598
36722SOL    HW112063  14.358   0.177  11.593
36722SOL    HW212064  14.466   0.279  11.568
36723SOL     OW12065   0.078   5.430   9.224
36723SOL    HW112066   0.100   5.519   9.253
36723SOL    HW212067   0.039   5.442   9.137
36724SOL     OW12068  10.607  14.390   7.720
36724SOL    HW112069  10.626  14.409   7.812
36724SOL    HW212070  10.616  14.474   7.676
36725SOL     OW12071   6.392  13.005   4.186
36725SOL    HW112072   6.318  13.062   4.164
36725SOL    HW212073   6.356  12.943   4.249
36726SOL     OW12074   6.265  10.265   4.252
36726SOL    HW112075   6.172  10.269   4.274
36726SOL    HW212076   6.285  10.351   4.216
36727SOL     OW12077  10.460  11.275   3.574
36727SOL    HW112078  10.446  11.189   3.533
36727SOL    HW212079  10.467  11.335   3.500
36728SOL     OW12080   2.059   0.733  11.695
36728SOL    HW112081   1.973   0.699  11.718
36728SOL    HW212082   2.089   0.777  11.775
36729SOL     OW12083  10.263  10.923   8.823
36729SOL    HW112084  10.212  10.888   8.895
36729SOL    HW212085  10.328  10.855   8.803
36730SOL     OW12086   8.779   2.991   0.236
36730SOL    HW112087   8.834   3.008   0.159
36730SOL    HW212088   8.689   3.003   0.203
36731SOL     OW12089   3.595   2.085  12.920
36731SOL    HW112090   3.581   2.024  12.847
36731SOL    HW212091   3.512   2.132  12.928
36732SOL     OW12092   8.719   7.733  13.407
36732SOL    HW112093   8.775   7.656  13.416
36732SOL    HW212094   8.633   7.698  13.383
36733SOL     OW12095   7.858   5.908   3.261
36733SOL    HW112096   7.793   5.838   3.254
36733SOL    HW212097   7.940   5.863   3.282
36734SOL     OW12098   2.498   3.048   0.328
36734SOL    HW112099   2.519   3.095   0.248
36734SOL    HW212100   2.407   3.071   0.347
36735SOL     OW12101   3.944   9.422   8.971
36735SOL    HW112102   3.907   9.352   8.917
36735SOL    HW212103   3.928   9.394   9.061
36736SOL     OW12104   3.919   8.648   4.836
36736SOL    HW112105   3.968   8.678   4.912
36736SOL    HW212106   3.906   8.727   4.783
36737SOL     OW12107   8.019  14.746   5.401
36737SOL    HW112108   7.928  14.721   5.387
36737SOL    HW212109   8.066  14.707   5.327
36738SOL     OW12110  12.516  13.239  10.498
36738SOL    HW112111  12.534  13.323  10.456
36738SOL    HW212112  12.602  13.208  10.527
36739SOL     OW12113   9.304  14.466   9.336
36739SOL    HW112114   9.269  14.464   9.247
36739SOL    HW212115   9.235  14.430   9.390
36740SOL     OW12116   0.191  14.874   8.934
36740SOL    HW112117   0.285  14.862   8.925
36740SOL    HW212118   0.175  14.873   9.029
36741SOL     OW12119   7.421   2.292   4.747
36741SOL    HW112120   7.332   2.257   4.739
36741SOL    HW212121   7.477   2.220   4.717
36742SOL     OW12122  13.507   0.388   1.171
36742SOL    HW112123  13.574   0.449   1.140
36742SOL    HW212124  13.536   0.362   1.258
36743SOL     OW12125   8.345  10.399   9.417
36743SOL    HW112126   8.314  10.447   9.494
36743SOL    HW212127   8.428  10.360   9.445
36744SOL     OW12128  12.849  13.591   2.072
36744SOL    HW112129  12.922  13.630   2.121
36744SOL    HW212130  12.826  13.657   2.007
36745SOL     OW12131   6.486   8.878   0.531
36745SOL    HW112132   6.490   8.839   0.619
36745SOL    HW212133   6.405   8.846   0.494
36746SOL     OW12134   3.410  13.494   2.652
36746SOL    HW112135   3.461  13.418   2.679
36746SOL    HW212136   3.475  13.558   2.625
36747SOL     OW12137   3.080  12.902  12.482
36747SOL    HW112138   3.102  12.987  12.443
36747SOL    HW212139   2.997  12.917  12.527
36748SOL     OW12140   7.312  12.908   8.333
36748SOL    HW112141   7.266  12.897   8.249
36748SOL    HW212142   7.387  12.963   8.312
36749SOL     OW12143  14.562   4.085   6.795
36749SOL    HW112144  14.587   4.147   6.863
36749SOL    HW212145  14.474   4.110   6.770
36750SOL     OW12146  14.011   7.870  11.976
36750SOL    HW112147  14.081   7.925  11.939
36750SOL    HW212148  13.931   7.918  11.956
36751SOL     OW12149   8.470  14.573  14.292
36751SOL    HW112150   8.479  14.583  14.387
36751SOL    HW212151   8.560  14.575  14.259
36752SOL     OW12152   6.339   7.758  14.208
36752SOL    HW112153   6.321   7.698  14.135
36752SOL    HW212154   6.433   7.775  14.201
36753SOL     OW12155  13.057   6.734   5.402
36753SOL    HW112156  13.091   6.724   5.313
36753SOL    HW212157  12.999   6.659   5.415
36754SOL     OW12158   8.629  12.258   4.063
36754SOL    HW112159   8.637  12.322   3.993
36754SOL    HW212160   8.645  12.308   4.143
36755SOL     OW12161   9.587  13.592   3.289
36755SOL    HW112162   9.637  13.670   3.263
36755SOL    HW212163   9.503  13.602   3.245
36756SOL     OW12164   6.046  13.694  10.025
36756SOL    HW112165   6.065  13.632   9.955
36756SOL    HW212166   5.992  13.645  10.087
36757SOL     OW12167   6.178   3.896   3.179
36757SOL    HW112168   6.152   3.832   3.246
36757SOL    HW212169   6.234   3.958   3.226
36758SOL     OW12170   2.573  10.311  12.393
36758SOL    HW112171   2.602  10.392  12.435
36758SOL    HW212172   2.629  10.302  12.316
36759SOL     OW12173  10.280  14.756   2.741
36759SOL    HW112174  10.200  14.707   2.720
36759SOL    HW212175  10.347  14.716   2.685
36760SOL     OW12176  12.887   2.983  13.572
36760SOL    HW112177  12.860   2.946  13.656
36760SOL    HW212178  12.964   2.933  13.546
36761SOL     OW12179  12.533   9.195  11.336
36761SOL    HW112180  12.515   9.127  11.271
36761SOL    HW212181  12.616   9.234  11.309
36762SOL     OW12182   2.532   3.672  10.275
36762SOL    HW112183   2.525   3.690  10.181
36762SOL    HW212184   2.568   3.752  10.313
36763SOL     OW12185  11.934   6.577  12.764
36763SOL    HW112186  11.988   6.529  12.701
36763SOL    HW212187  11.940   6.668  12.737
36764SOL     OW12188   8.861  12.596   8.966
36764SOL    HW112189   8.922  12.670   8.962
36764SOL    HW212190   8.781  12.633   9.001
36765SOL     OW12191   3.341  11.889   2.508
36765SOL    HW112192   3.432  11.916   2.499
36765SOL    HW212193   3.345  11.799   2.541
36766SOL     OW12194  13.407   4.165   5.562
36766SOL    HW112195  13.377   4.155   5.471
36766SOL    HW212196  13.404   4.076   5.598
36767SOL     OW12197   2.293   1.843   1.852
36767SOL    HW112198   2.317   1.864   1.761
36767SOL    HW212199   2.221   1.902   1.872
36768SOL     OW12200   6.215   4.606   9.333
36768SOL    HW112201   6.181   4.518   9.317
36768SOL    HW212202   6.138   4.658   9.357
36769SOL     OW12203  13.991   6.386   9.355
36769SOL    HW112204  13.994   6.291   9.372
36769SOL    HW212205  13.931   6.420   9.420
36770SOL     OW12206   0.339  13.443   9.791
36770SOL    HW112207   0.371  13.400   9.711
36770SOL    HW212208   0.400  13.515   9.806
36771SOL     OW12209   1.421   7.406  13.132
36771SOL    HW112210   1.349   7.346  13.116
36771SOL    HW212211   1.394   7.488  13.090
36772SOL     OW12212   0.854   5.196   3.136
36772SOL    HW112213   0.890   5.113   3.168
36772SOL    HW212214   0.843   5.249   3.215
36773SOL     OW12215  13.026   6.007   4.192
36773SOL    HW112216  12.984   5.974   4.271
36773SOL    HW212217  13.105   5.953   4.182
36774SOL     OW12218   0.984  13.914  14.494
36774SOL    HW112219   0.890  13.908  14.514
36774SOL    HW212220   0.989  13.906  14.399
36775SOL     OW12221  14.178  14.267   3.423
36775SOL    HW112222  14.092  14.255   3.382
36775SOL    HW212223  14.163  14.333   3.490
36776SOL     OW12224  10.219   3.793  11.821
36776SOL    HW112225  10.185   3.882  11.819
36776SOL    HW212226  10.242   3.779  11.913
36777SOL     OW12227   8.846   3.127  11.519
36777SOL    HW112228   8.809   3.071  11.450
36777SOL    HW212229   8.841   3.215  11.481
36778SOL     OW12230  14.064   5.399   0.920
36778SOL    HW112231  13.974   5.372   0.908
36778SOL    HW212232  14.071   5.420   1.014
36779SOL     OW12233   4.830   1.823  10.975
36779SOL    HW112234   4.842   1.742  11.025
36779SOL    HW212235   4.910   1.830  10.923
36780SOL     OW12236   2.106   4.105  12.302
36780SOL    HW112237   2.015   4.119  12.326
36780SOL    HW212238   2.138   4.043  12.367
36781SOL     OW12239   2.714  10.260  10.038
36781SOL    HW112240   2.720  10.317  10.115
36781SOL    HW212241   2.805  10.239  10.015
36782SOL     OW12242   8.124   5.773   9.813
36782SOL    HW112243   8.180   5.826   9.756
36782SOL    HW212244   8.109   5.692   9.764
36783SOL     OW12245   9.282  12.729  13.958
36783SOL    HW112246   9.220  12.708  14.027
36783SOL    HW212247   9.347  12.658  13.960
36784SOL     OW12248   7.213   9.655  12.562
36784SOL    HW112249   7.257   9.651  12.477
36784SOL    HW212250   7.146   9.586  12.557
36785SOL     OW12251   1.643   0.090   3.508
36785SOL    HW112252   1.697   0.077   3.586
36785SOL    HW212253   1.562   0.128   3.541
36786SOL     OW12254  10.901   4.391   6.097
36786SOL    HW112255  10.975   4.332   6.086
36786SOL    HW212256  10.871   4.376   6.186
36787SOL     OW12257   2.163  10.824   8.194
36787SOL    HW112258   2.225  10.761   8.231
36787SOL    HW212259   2.142  10.882   8.267
36788SOL     OW12260   0.452  10.744   6.346
36788SOL    HW112261   0.443  10.817   6.407
36788SOL    HW212262   0.541  10.750   6.312
36789SOL     OW12263   5.929   3.917   7.604
36789SOL    HW112264   5.955   3.899   7.514
36789SOL    HW212265   5.888   3.835   7.634
36790SOL     OW12266  13.768   7.021  10.934
36790SOL    HW112267  13.760   7.049  10.843
36790SOL    HW212268  13.736   7.096  10.985
36791SOL     OW12269  12.257   8.262   1.072
36791SOL    HW112270  12.224   8.326   1.135
36791SOL    HW212271  12.322   8.212   1.121
36792SOL     OW12272  14.475  14.685  11.802
36792SOL    HW112273  14.514  14.765  11.766
36792SOL    HW212274  14.458  14.631  11.725
36793SOL     OW12275  13.836  12.913   3.518
36793SOL    HW112276  13.902  12.982   3.515
36793SOL    HW212277  13.879  12.837   3.479
36794SOL     OW12278   7.384  12.721   5.339
36794SOL    HW112279   7.300  12.692   5.374
36794SOL    HW212280   7.449  12.667   5.384
36795SOL     OW12281   9.584   6.826   9.126
36795SOL    HW112282   9.566   6.895   9.062
36795SOL    HW212283   9.497   6.797   9.154
36796SOL     OW12284   2.025   4.499   0.367
36796SOL    HW112285   2.029   4.406   0.343
36796SOL    HW212286   1.964   4.538   0.305
36797SOL     OW12287   0.042   8.325   3.358
36797SOL    HW112288   0.056   8.278   3.441
36797SOL    HW212289   0.022   8.256   3.295
36798SOL     OW12290  11.667   0.465   7.060
36798SOL    HW112291  11.601   0.404   7.027
36798SOL    HW212292  11.749   0.415   7.057
36799SOL     OW12293  10.921  10.167  10.652
36799SOL    HW112294  10.937  10.160  10.558
36799SOL    HW212295  10.836  10.209  10.659
36800SOL     OW12296   7.580   9.580   9.031
36800SOL    HW112297   7.620   9.614   8.951
36800SOL    HW212298   7.559   9.658   9.083
36801SOL     OW12299   5.458   3.313   6.556
36801SOL    HW112300   5.423   3.224   6.549
36801SOL    HW212301   5.511   3.324   6.477
36802SOL     OW12302   5.262   2.733  12.223
36802SOL    HW112303   5.166   2.729  12.223
36802SOL    HW212304   5.283   2.809  12.277
36803SOL     OW12305   2.532  13.370   7.164
36803SOL    HW112306   2.445  13.409   7.167
36803SOL    HW212307   2.528  13.298   7.227
36804SOL     OW12308   1.370  11.906  12.770
36804SOL    HW112309   1.351  11.820  12.807
36804SOL    HW212310   1.287  11.934  12.732
36805SOL     OW12311  10.634   6.216   6.018
36805SOL    HW112312  10.666   6.140   6.067
36805SOL    HW212313  10.592   6.271   6.084
36806SOL     OW12314   8.592  11.916  11.580
36806SOL    HW112315   8.619  11.826  11.601
36806SOL    HW212316   8.575  11.914  11.486
36807SOL     OW12317   0.122   5.691   6.509
36807SOL    HW112318   0.199   5.642   6.479
36807SOL    HW212319   0.072   5.628   6.561
36808SOL     OW12320  11.712  14.418   5.054
36808SOL    HW112321  11.677  14.389   5.138
36808SOL    HW212322  11.734  14.510   5.068
36809SOL     OW12323   2.342  10.898   2.119
36809SOL    HW112324   2.263  10.936   2.157
36809SOL    HW212325   2.365  10.826   2.178
36810SOL     OW12326   6.841   7.562   4.129
36810SOL    HW112327   6.756   7.586   4.093
36810SOL    HW212328   6.866   7.636   4.184
36811SOL     OW12329   2.389   7.246  13.688
36811SOL    HW112330   2.476   7.216  13.661
36811SOL    HW212331   2.406   7.317  13.750
36812SOL     OW12332   3.285   0.728   3.144
36812SOL    HW112333   3.378   0.743   3.129
36812SOL    HW212334   3.243   0.755   3.062
36813SOL     OW12335   5.984   8.973   0.310
36813SOL    HW112336   5.913   8.971   0.245
36813SOL    HW212337   6.032   8.892   0.294
36814SOL     OW12338   1.831   4.299   2.237
36814SOL    HW112339   1.901   4.364   2.226
36814SOL    HW212340   1.825   4.257   2.151
36815SOL     OW12341  11.161  14.446   5.587
36815SOL    HW112342  11.119  14.512   5.642
36815SOL    HW212343  11.120  14.457   5.501
36816SOL     OW12344   6.234   7.734   2.824
36816SOL    HW112345   6.187   7.812   2.797
36816SOL    HW212346   6.222   7.730   2.919
36817SOL     OW12347  14.868   5.339   0.108
36817SOL    HW112348  14.799   5.361   0.045
36817SOL    HW212349  14.827   5.277   0.168
36818SOL     OW12350  13.806   7.217   0.147
36818SOL    HW112351  13.718   7.181   0.141
36818SOL    HW212352  13.795   7.298   0.198
36819SOL     OW12353   5.557   5.121   2.808
36819SOL    HW112354   5.529   5.213   2.811
36819SOL    HW212355   5.502   5.082   2.740
36820SOL     OW12356   7.077   8.084  10.220
36820SOL    HW112357   7.172   8.076  10.209
36820SOL    HW212358   7.066   8.163  10.273
36821SOL     OW12359  14.185  14.583  10.923
36821SOL    HW112360  14.252  14.602  10.988
36821SOL    HW212361  14.102  14.593  10.970
36822SOL     OW12362   8.840  11.516   1.455
36822SOL    HW112363   8.790  11.461   1.394
36822SOL    HW212364   8.877  11.455   1.518
36823SOL     OW12365  12.374   3.094   0.785
36823SOL    HW112366  12.340   3.052   0.706
36823SOL    HW212367  12.312   3.166   0.802
36824SOL     OW12368  13.492  10.240  14.053
36824SOL    HW112369  13.583  10.229  14.079
36824SOL    HW212370  13.490  10.214  13.961
36825SOL     OW12371  13.627   1.975  10.818
36825SOL    HW112372  13.554   1.927  10.859
36825SOL    HW212373  13.591   2.007  10.735
36826SOL     OW12374   6.135   0.933   5.410
36826SOL    HW112375   6.148   0.841   5.432
36826SOL    HW212376   6.127   0.977   5.495
36827SOL     OW12377   5.539   4.699   5.561
36827SOL    HW112378   5.448   4.674   5.553
36827SOL    HW212379   5.588   4.628   5.519
36828SOL     OW12380   6.589   3.332   2.519
36828SOL    HW112381   6.668   3.278   2.516
36828SOL    HW212382   6.585   3.374   2.433
36829SOL     OW12383   5.975   1.810   5.978
36829SOL    HW112384   5.932   1.770   6.054
36829SOL    HW212385   6.066   1.782   5.984
36830SOL     OW12386   2.615   4.780  13.839
36830SOL    HW112387   2.528   4.739  13.844
36830SOL    HW212388   2.601   4.869  13.873
36831SOL     OW12389   2.354   1.454   7.992
36831SOL    HW112390   2.401   1.485   8.070
36831SOL    HW212391   2.400   1.494   7.919
36832SOL     OW12392  11.971   9.033  10.156
36832SOL    HW112393  12.012   9.068  10.235
36832SOL    HW212394  12.043   9.020  10.095
36833SOL     OW12395   7.457   0.570   2.493
36833SOL    HW112396   7.506   0.579   2.575
36833SOL    HW212397   7.455   0.475   2.477
36834SOL     OW12398  13.171  13.340  11.706
36834SOL    HW112399  13.076  13.332  11.711
36834SOL    HW212400  13.203  13.250  11.715
36835SOL     OW12401   6.587   9.182   1.258
36835SOL    HW112402   6.611   9.268   1.293
36835SOL    HW212403   6.561   9.131   1.334
36836SOL     OW12404   3.243   7.922   1.415
36836SOL    HW112405   3.284   7.861   1.477
36836SOL    HW212406   3.186   7.866   1.362
36837SOL     OW12407   3.180   6.324   8.548
36837SOL    HW112408   3.097   6.280   8.563
36837SOL    HW212409   3.230   6.309   8.627
36838SOL     OW12410  14.775   0.775   4.115
36838SOL    HW112411  14.696   0.722   4.107
36838SOL    HW212412  14.759   0.852   4.060
36839SOL     OW12413   0.200  13.899   5.327
36839SOL    HW112414   0.222  13.806   5.332
36839SOL    HW212415   0.114  13.906   5.368
36840SOL     OW12416   2.579   1.480   8.165
36840SOL    HW112417   2.656   1.535   8.152
36840SOL    HW212418   2.611   1.390   8.151
36841SOL     OW12419   3.905   4.604   8.420
36841SOL    HW112420   3.864   4.690   8.420
36841SOL    HW212421   3.858   4.555   8.487
36842SOL     OW12422  13.507   4.909  12.530
36842SOL    HW112423  13.561   4.979  12.493
36842SOL    HW212424  13.551   4.884  12.611
36843SOL     OW12425  12.337   2.398  10.815
36843SOL    HW112426  12.306   2.487  10.802
36843SOL    HW212427  12.314   2.352  10.734
36844SOL     OW12428  13.987  13.377   7.352
36844SOL    HW112429  14.038  13.355   7.273
36844SOL    HW212430  13.994  13.299   7.407
36845SOL     OW12431   0.029   8.475  10.535
36845SOL    HW112432  14.855   8.545  10.496
36845SOL    HW212433   0.111   8.475  10.485
36846SOL     OW12434  11.026   0.933  10.103
36846SOL    HW112435  10.953   0.951  10.161
36846SOL    HW212436  11.022   1.001  10.036
36847SOL     OW12437  11.426  10.065   2.321
36847SOL    HW112438  11.512  10.026   2.305
36847SOL    HW212439  11.438  10.158   2.301
36848SOL     OW12440   5.221   5.566  10.049
36848SOL    HW112441   5.138   5.613  10.041
36848SOL    HW212442   5.202   5.478  10.018
36849SOL     OW12443   3.456  14.547   7.858
36849SOL    HW112444   3.435  14.454   7.867
36849SOL    HW212445   3.448  14.565   7.764
36850SOL     OW12446   1.969   8.001   1.004
36850SOL    HW112447   1.894   7.999   0.943
36850SOL    HW212448   1.941   8.057   1.075
36851SOL     OW12449  14.586  12.846   0.479
36851SOL    HW112450  14.641  12.843   0.400
36851SOL    HW212451  14.614  12.770   0.530
36852SOL     OW12452  13.765  13.053  14.358
36852SOL    HW112453  13.683  13.009  14.336
36852SOL    HW212454  13.812  13.060  14.275
36853SOL     OW12455   2.380  11.535   2.196
36853SOL    HW112456   2.437  11.528   2.119
36853SOL    HW212457   2.296  11.499   2.167
36854SOL     OW12458  10.145  10.003   6.413
36854SOL    HW112459  10.101  10.030   6.332
36854SOL    HW212460  10.209   9.939   6.384
36855SOL     OW12461   6.708  10.275   9.379
36855SOL    HW112462   6.741  10.352   9.426
36855SOL    HW212463   6.775  10.258   9.312
36856SOL     OW12464   9.854   8.773  11.859
36856SOL    HW112465   9.900   8.728  11.930
36856SOL    HW212466   9.788   8.827  11.904
36857SOL     OW12467   2.675   0.064   1.331
36857SOL    HW112468   2.611   0.061   1.259
36857SOL    HW212469   2.710  14.853   1.335
36858SOL     OW12470   3.409   6.959  12.239
36858SOL    HW112471   3.321   6.957  12.203
36858SOL    HW212472   3.465   6.928  12.168
36859SOL     OW12473   4.705  14.080   1.857
36859SOL    HW112474   4.751  14.010   1.903
36859SOL    HW212475   4.655  14.124   1.926
36860SOL     OW12476  14.872   6.980  13.729
36860SOL    HW112477  14.792   6.932  13.707
36860SOL    HW212478   0.002   6.973  13.824
36861SOL     OW12479   1.259   9.897   4.793
36861SOL    HW112480   1.234   9.816   4.748
36861SOL    HW212481   1.339   9.873   4.841
36862SOL     OW12482   5.764  11.479   1.966
36862SOL    HW112483   5.824  11.554   1.969
36862SOL    HW212484   5.737  11.475   1.874
36863SOL     OW12485  11.174  13.472   5.212
36863SOL    HW112486  11.231  13.421   5.154
36863SOL    HW212487  11.088  13.466   5.172
36864SOL     OW12488   3.736  14.505   3.146
36864SOL    HW112489   3.728  14.594   3.181
36864SOL    HW212490   3.650  14.466   3.159
36865SOL     OW12491   6.484   6.415   0.639
36865SOL    HW112492   6.573   6.444   0.659
36865SOL    HW212493   6.429   6.462   0.702
36866SOL     OW12494   7.467   1.292   8.030
36866SOL    HW112495   7.561   1.283   8.016
36866SOL    HW212496   7.428   1.289   7.943
36867SOL     OW12497   7.375   3.804   9.877
36867SOL    HW112498   7.342   3.838   9.961
36867SOL    HW212499   7.409   3.881   9.832
36868SOL     OW12500   2.214   6.973  13.175
36868SOL    HW112501   2.185   7.062  13.195
36868SOL    HW212502   2.170   6.919  13.240
36869SOL     OW12503   4.391   2.512  10.725
36869SOL    HW112504   4.350   2.557  10.651
36869SOL    HW212505   4.467   2.468  10.688
36870SOL     OW12506  11.433  12.998   6.746
36870SOL    HW112507  11.396  12.970   6.663
36870SOL    HW212508  11.520  12.957   6.749
36871SOL     OW12509  14.791   9.541  12.678
36871SOL    HW112510  14.730   9.486  12.729
36871SOL    HW212511  14.828   9.601  12.742
36872SOL     OW12512   8.432  14.547   6.779
36872SOL    HW112513   8.446  14.539   6.874
36872SOL    HW212514   8.419  14.640   6.765
36873SOL     OW12515   5.183   0.090   4.435
36873SOL    HW112516   5.181   0.132   4.349
36873SOL    HW212517   5.092   0.090   4.464
36874SOL     OW12518  14.372   0.391   3.309
36874SOL    HW112519  14.424   0.465   3.339
36874SOL    HW212520  14.353   0.341   3.388
36875SOL     OW12521  12.840  14.653   5.262
36875SOL    HW112522  12.760  14.698   5.234
36875SOL    HW212523  12.845  14.577   5.204
36876SOL     OW12524   5.182   0.976  12.023
36876SOL    HW112525   5.274   0.987  12.000
36876SOL    HW212526   5.171   0.882  12.036
36877SOL     OW12527  14.112  10.351  11.551
36877SOL    HW112528  14.193  10.400  11.531
36877SOL    HW212529  14.042  10.411  11.526
36878SOL     OW12530   9.639   4.287   9.781
36878SOL    HW112531   9.699   4.256   9.712
36878SOL    HW212532   9.620   4.208   9.833
36879SOL     OW12533   1.731  11.613  11.862
36879SOL    HW112534   1.694  11.667  11.931
36879SOL    HW212535   1.826  11.625  11.870
36880SOL     OW12536   1.507   6.902   7.988
36880SOL    HW112537   1.592   6.889   8.030
36880SOL    HW212538   1.514   6.987   7.944
36881SOL     OW12539   7.733   0.050   7.690
36881SOL    HW112540   7.812   0.000   7.711
36881SOL    HW212541   7.762   0.140   7.682
36882SOL     OW12542   4.244  13.415   2.080
36882SOL    HW112543   4.294  13.496   2.069
36882SOL    HW212544   4.310  13.346   2.085
36883SOL     OW12545   8.274   4.119   7.703
36883SOL    HW112546   8.314   4.202   7.728
36883SOL    HW212547   8.196   4.112   7.758
36884SOL     OW12548   1.745   2.757   3.752
36884SOL    HW112549   1.732   2.719   3.665
36884SOL    HW212550   1.660   2.793   3.776
36885SOL     OW12551   8.650   3.744   8.176
36885SOL    HW112552   8.592   3.819   8.162
36885SOL    HW212553   8.602   3.669   8.139
36886SOL     OW12554   5.481   8.321   1.269
36886SOL    HW112555   5.445   8.237   1.241
36886SOL    HW212556   5.412   8.360   1.323
36887SOL     OW12557   1.144   6.373   6.173
36887SOL    HW112558   1.095   6.362   6.255
36887SOL    HW212559   1.095   6.440   6.125
36888SOL     OW12560  11.519   5.243  13.422
36888SOL    HW112561  11.527   5.185  13.498
36888SOL    HW212562  11.432   5.225  13.387
36889SOL     OW12563   2.265   8.846   2.861
36889SOL    HW112564   2.189   8.880   2.815
36889SOL    HW212565   2.282   8.911   2.930
36890SOL     OW12566  11.105   6.539   9.457
36890SOL    HW112567  11.094   6.444   9.456
36890SOL    HW212568  11.134   6.559   9.546
36891SOL     OW12569   6.319   0.161   1.211
36891SOL    HW112570   6.393   0.203   1.254
36891SOL    HW212571   6.294   0.221   1.141
36892SOL     OW12572   8.763   0.828   7.695
36892SOL    HW112573   8.799   0.740   7.688
36892SOL    HW212574   8.688   0.818   7.754
36893SOL     OW12575  11.849  12.235   8.116
36893SOL    HW112576  11.938  12.269   8.103
36893SOL    HW212577  11.851  12.196   8.203
36894SOL     OW12578   8.044  14.517   6.058
36894SOL    HW112579   8.100  14.462   6.114
36894SOL    HW212580   8.000  14.455   6.000
36895SOL     OW12581   3.200  10.499   4.810
36895SOL    HW112582   3.116  10.507   4.765
36895SOL    HW212583   3.220  10.587   4.840
36896SOL     OW12584   8.913   0.147  11.727
36896SOL    HW112585   8.917   0.237  11.758
36896SOL    HW212586   8.912   0.094  11.806
36897SOL     OW12587   1.000  10.320   8.136
36897SOL    HW112588   1.032  10.410   8.130
36897SOL    HW212589   1.046  10.273   8.067
36898SOL     OW12590   9.050   5.436  10.972
36898SOL    HW112591   9.139   5.407  10.952
36898SOL    HW212592   9.009   5.449  10.886
36899SOL     OW12593  11.411   2.758  12.422
36899SOL    HW112594  11.493   2.788  12.461
36899SOL    HW212595  11.368   2.708  12.492
36900SOL     OW12596   5.569   1.012   1.823
36900SOL    HW112597   5.532   1.045   1.904
36900SOL    HW212598   5.657   0.981   1.847
36901SOL     OW12599   5.617   7.551   2.615
36901SOL    HW112600   5.686   7.494   2.582
36901SOL    HW212601   5.543   7.492   2.632
36902SOL     OW12602   4.240  12.297   7.329
36902SOL    HW112603   4.289  12.358   7.384
36902SOL    HW212604   4.299  12.223   7.315
36903SOL     OW12605   1.761  12.405  10.857
36903SOL    HW112606   1.821  12.360  10.798
36903SOL    HW212607   1.806  12.406  10.942
36904SOL     OW12608  14.864  10.409   2.603
36904SOL    HW112609  14.861  10.336   2.541
36904SOL    HW212610  14.855  10.487   2.549
36905SOL     OW12611   2.489   4.736   0.095
36905SOL    HW112612   2.529   4.801   0.152
36905SOL    HW212613   2.431   4.686   0.153
36906SOL     OW12614   4.265   5.037   4.094
36906SOL    HW112615   4.291   4.997   4.177
36906SOL    HW212616   4.292   5.129   4.102
36907SOL     OW12617  13.431   9.647   6.464
36907SOL    HW112618  13.456   9.576   6.522
36907SOL    HW212619  13.387   9.604   6.390
36908SOL     OW12620  10.132   1.638   6.769
36908SOL    HW112621  10.106   1.708   6.829
36908SOL    HW212622  10.070   1.567   6.787
36909SOL     OW12623  11.066   7.403  13.240
36909SOL    HW112624  11.087   7.490  13.273
36909SOL    HW212625  11.147   7.372  13.200
36910SOL     OW12626   9.223  11.087   8.757
36910SOL    HW112627   9.217  11.064   8.850
36910SOL    HW212628   9.249  11.005   8.714
36911SOL     OW12629   0.974   8.199   3.253
36911SOL    HW112630   0.987   8.239   3.167
36911SOL    HW212631   1.058   8.210   3.298
36912SOL     OW12632   5.713   2.829  14.092
36912SOL    HW112633   5.698   2.823  13.997
36912SOL    HW212634   5.792   2.777  14.106
36913SOL     OW12635   3.402   5.944   6.994
36913SOL    HW112636   3.447   5.896   7.063
36913SOL    HW212637   3.471   5.975   6.936
36914SOL     OW12638   4.690   0.416   1.629
36914SOL    HW112639   4.674   0.322   1.621
36914SOL    HW212640   4.776   0.429   1.588
36915SOL     OW12641   0.001   7.749   6.139
36915SOL    HW112642  14.844   7.815   6.078
36915SOL    HW212643   0.007   7.669   6.086
36916SOL     OW12644  11.967   2.723  10.792
36916SOL    HW112645  11.924   2.655  10.845
36916SOL    HW212646  11.970   2.686  10.704
36917SOL     OW12647  10.711   0.905   8.899
36917SOL    HW112648  10.795   0.938   8.866
36917SOL    HW212649  10.705   0.939   8.988
36918SOL     OW12650  13.214   0.905   3.891
36918SOL    HW112651  13.235   0.878   3.802
36918SOL    HW212652  13.250   0.994   3.899
36919SOL     OW12653   8.033  14.713   2.678
36919SOL    HW112654   8.008  14.710   2.771
36919SOL    HW212655   7.973  14.776   2.639
36920SOL     OW12656  12.037   0.393  13.153
36920SOL    HW112657  12.088   0.415  13.076
36920SOL    HW212658  11.946   0.394  13.123
36921SOL     OW12659   2.721  13.551  11.150
36921SOL    HW112660   2.789  13.485  11.138
36921SOL    HW212661   2.739  13.616  11.083
36922SOL     OW12662   2.315   5.513  10.560
36922SOL    HW112663   2.391   5.512  10.502
36922SOL    HW212664   2.270   5.431  10.542
36923SOL     OW12665   8.506  12.074   7.061
36923SOL    HW112666   8.436  12.136   7.080
36923SOL    HW212667   8.495  12.005   7.126
36924SOL     OW12668   0.463   8.366  14.695
36924SOL    HW112669   0.531   8.313  14.653
36924SOL    HW212670   0.457   8.444  14.640
36925SOL     OW12671   5.883   5.909   7.097
36925SOL    HW112672   5.797   5.945   7.118
36925SOL    HW212673   5.874   5.874   7.008
36926SOL     OW12674   2.477  10.796   7.924
36926SOL    HW112675   2.433  10.743   7.857
36926SOL    HW212676   2.553  10.833   7.878
36927SOL     OW12677   0.441   1.481   0.002
36927SOL    HW112678   0.400   1.523  14.803
36927SOL    HW212679   0.467   1.554   0.058
36928SOL     OW12680   6.928  12.924   3.122
36928SOL    HW112681   6.846  12.901   3.166
36928SOL    HW212682   6.967  12.840   3.097
36929SOL     OW12683   0.009  13.667  11.371
36929SOL    HW112684   0.018  13.617  11.452
36929SOL    HW212685   0.092  13.713  11.362
36930SOL     OW12686   9.142   0.554  12.436
36930SOL    HW112687   9.085   0.523  12.506
36930SOL    HW212688   9.231   0.539  12.469
36931SOL     OW12689  12.491  13.411  13.001
36931SOL    HW112690  12.573  13.445  12.965
36931SOL    HW212691  12.430  13.414  12.927
36932SOL     OW12692   0.512   1.666  11.406
36932SOL    HW112693   0.607   1.663  11.397
36932SOL    HW212694   0.496   1.730  11.476
36933SOL     OW12695  14.337  11.330  14.328
36933SOL    HW112696  14.277  11.267  14.287
36933SOL    HW212697  14.361  11.390  14.257
36934SOL     OW12698  11.359  14.450   8.158
36934SOL    HW112699  11.342  14.496   8.077
36934SOL    HW212700  11.314  14.366   8.148
36935SOL     OW12701   1.903   8.598   6.755
36935SOL    HW112702   1.909   8.526   6.692
36935SOL    HW212703   1.824   8.580   6.805
36936SOL     OW12704   6.159   7.377   5.406
36936SOL    HW112705   6.175   7.315   5.336
36936SOL    HW212706   6.232   7.439   5.402
36937SOL     OW12707   6.655  13.192   0.811
36937SOL    HW112708   6.610  13.189   0.895
36937SOL    HW212709   6.630  13.276   0.773
36938SOL     OW12710   6.655   0.715   4.362
36938SOL    HW112711   6.579   0.706   4.419
36938SOL    HW212712   6.634   0.788   4.304
36939SOL     OW12713   2.311   0.025   3.401
36939SOL    HW112714   2.385  14.843   3.405
36939SOL    HW212715   2.254  14.867   3.333
36940SOL     OW12716  10.193  10.378   4.754
36940SOL    HW112717  10.216  10.287   4.774
36940SOL    HW212718  10.211  10.426   4.835
36941SOL     OW12719  13.842  12.277   2.434
36941SOL    HW112720  13.849  12.339   2.507
36941SOL    HW212721  13.763  12.228   2.453
36942SOL     OW12722   8.750  13.042   6.237
36942SOL    HW112723   8.816  13.012   6.300
36942SOL    HW212724   8.711  12.962   6.203
36943SOL     OW12725   6.935   2.587   9.162
36943SOL    HW112726   7.021   2.582   9.204
36943SOL    HW212727   6.883   2.643   9.220
36944SOL     OW12728   5.223   9.517   8.893
36944SOL    HW112729   5.181   9.434   8.870
36944SOL    HW212730   5.266   9.499   8.977
36945SOL     OW12731   4.509   6.350   5.855
36945SOL    HW112732   4.455   6.420   5.893
36945SOL    HW212733   4.590   6.353   5.905
36946SOL     OW12734   8.584   4.740   8.229
36946SOL    HW112735   8.498   4.699   8.234
36946SOL    HW212736   8.603   4.743   8.135
36947SOL     OW12737   9.674   9.506  14.552
36947SOL    HW112738   9.768   9.494  14.561
36947SOL    HW212739   9.665   9.591  14.508
36948SOL     OW12740  10.234   2.163   3.535
36948SOL    HW112741  10.234   2.198   3.625
36948SOL    HW212742  10.172   2.219   3.488
36949SOL     OW12743   3.704   2.208   2.477
36949SOL    HW112744   3.744   2.295   2.466
36949SOL    HW212745   3.753   2.152   2.417
36950SOL     OW12746  10.701   5.021  11.222
36950SOL    HW112747  10.706   5.115  11.242
36950SOL    HW212748  10.643   5.016  11.146
36951SOL     OW12749  13.660   7.041  10.450
36951SOL    HW112750  13.697   6.959  10.417
36951SOL    HW212751  13.604   7.014  10.523
36952SOL     OW12752   7.321   8.141   4.914
36952SOL    HW112753   7.373   8.071   4.876
36952SOL    HW212754   7.366   8.162   4.996
36953SOL     OW12755  13.942   9.102   4.768
36953SOL    HW112756  13.879   9.105   4.840
36953SOL    HW212757  13.890   9.076   4.692
36954SOL     OW12758  11.771  11.433  12.379
36954SOL    HW112759  11.719  11.371  12.430
36954SOL    HW212760  11.860  11.397  12.382
36955SOL     OW12761   6.620   8.575   3.648
36955SOL    HW112762   6.667   8.658   3.657
36955SOL    HW212763   6.661   8.532   3.572
36956SOL     OW12764  14.645   6.620   0.909
36956SOL    HW112765  14.590   6.558   0.957
36956SOL    HW212766  14.714   6.645   0.971
36957SOL     OW12767   3.274   2.675   4.647
36957SOL    HW112768   3.262   2.757   4.600
36957SOL    HW212769   3.363   2.679   4.681
36958SOL     OW12770  10.609   3.982   4.067
36958SOL    HW112771  10.646   3.918   4.127
36958SOL    HW212772  10.519   3.952   4.052
36959SOL     OW12773   7.587   0.890   5.771
36959SOL    HW112774   7.621   0.908   5.858
36959SOL    HW212775   7.658   0.915   5.711
36960SOL     OW12776   1.179   2.305  13.527
36960SOL    HW112777   1.211   2.394  13.542
36960SOL    HW212778   1.210   2.255  13.603
36961SOL     OW12779  12.404   5.268   2.367
36961SOL    HW112780  12.352   5.346   2.388
36961SOL    HW212781  12.346   5.195   2.389
36962SOL     OW12782   6.259  10.019   1.522
36962SOL    HW112783   6.289   9.941   1.474
36962SOL    HW212784   6.288  10.005   1.612
36963SOL     OW12785   7.510   0.146  10.027
36963SOL    HW112786   7.599   0.171  10.052
36963SOL    HW212787   7.510   0.151   9.931
36964SOL     OW12788   7.062   5.182   6.638
36964SOL    HW112789   7.143   5.214   6.600
36964SOL    HW212790   7.072   5.087   6.639
36965SOL     OW12791  12.090   0.605   7.765
36965SOL    HW112792  11.997   0.581   7.768
36965SOL    HW212793  12.126   0.570   7.847
36966SOL     OW12794   0.102   2.926   2.617
36966SOL    HW112795   0.097   2.897   2.708
36966SOL    HW212796   0.036   2.873   2.571
36967SOL     OW12797   1.517  14.058  10.336
36967SOL    HW112798   1.527  13.966  10.310
36967SOL    HW212799   1.597  14.077  10.386
36968SOL     OW12800   3.897   1.196   7.784
36968SOL    HW112801   3.956   1.120   7.787
36968SOL    HW212802   3.809   1.157   7.779
36969SOL     OW12803   0.769  12.329   3.374
36969SOL    HW112804   0.676  12.335   3.398
36969SOL    HW212805   0.786  12.235   3.369
36970SOL     OW12806   6.655   9.405   0.042
36970SOL    HW112807   6.726   9.469   0.051
36970SOL    HW212808   6.699   9.320   0.042
36971SOL     OW12809   7.401   6.903   9.226
36971SOL    HW112810   7.451   6.909   9.145
36971SOL    HW212811   7.466   6.889   9.294
36972SOL     OW12812   8.517   8.228   3.278
36972SOL    HW112813   8.552   8.267   3.197
36972SOL    HW212814   8.562   8.275   3.348
36973SOL     OW12815   2.451   2.188   9.032
36973SOL    HW112816   2.512   2.145   9.092
36973SOL    HW212817   2.468   2.282   9.045
36974SOL     OW12818   8.992  10.144   5.228
36974SOL    HW112819   9.068  10.186   5.268
36974SOL    HW212820   8.977  10.066   5.282
36975SOL     OW12821   7.586  14.764   3.118
36975SOL    HW112822   7.513  14.716   3.077
36975SOL    HW212823   7.545  14.811   3.190
36976SOL     OW12824  10.514   1.948   2.101
36976SOL    HW112825  10.607   1.956   2.123
36976SOL    HW212826  10.492   1.857   2.120
36977SOL     OW12827  13.635  11.508   3.704
36977SOL    HW112828  13.590  11.513   3.788
36977SOL    HW212829  13.647  11.599   3.677
36978SOL     OW12830   7.159   7.911  10.713
36978SOL    HW112831   7.113   7.995  10.715
36978SOL    HW212832   7.157   7.881  10.804
36979SOL     OW12833  13.312   8.921   5.827
36979SOL    HW112834  13.317   8.839   5.778
36979SOL    HW212835  13.368   8.982   5.779
36980SOL     OW12836  12.169   6.257  12.388
36980SOL    HW112837  12.103   6.190  12.374
36980SOL    HW212838  12.250   6.220  12.353
36981SOL     OW12839   1.193   2.419   2.789
36981SOL    HW112840   1.202   2.389   2.880
36981SOL    HW212841   1.248   2.359   2.739
36982SOL     OW12842   4.296   5.489   2.197
36982SOL    HW112843   4.249   5.438   2.131
36982SOL    HW212844   4.280   5.580   2.174
36983SOL     OW12845  10.124   4.177  12.400
36983SOL    HW112846  10.174   4.212  12.474
36983SOL    HW212847  10.036   4.164  12.434
36984SOL     OW12848   3.750  12.795   9.930
36984SOL    HW112849   3.682  12.759   9.988
36984SOL    HW212850   3.749  12.738   9.854
36985SOL     OW12851   6.293   2.056   9.658
36985SOL    HW112852   6.294   2.041   9.752
36985SOL    HW212853   6.246   1.981   9.622
36986SOL     OW12854   7.308  14.439   1.728
36986SOL    HW112855   7.362  14.518   1.721
36986SOL    HW212856   7.265  14.447   1.814
36987SOL     OW12857  10.297  10.436  10.352
36987SOL    HW112858  10.389  10.461  10.360
36987SOL    HW212859  10.254  10.482  10.425
36988SOL     OW12860   8.206  13.383   3.926
36988SOL    HW112861   8.263  13.455   3.897
36988SOL    HW212862   8.143  13.424   3.984
36989SOL     OW12863  11.975   5.361   0.291
36989SOL    HW112864  11.968   5.364   0.196
36989SOL    HW212865  11.922   5.435   0.321
36990SOL     OW12866   4.134   5.382  11.537
36990SOL    HW112867   4.167   5.461  11.494
36990SOL    HW212868   4.141   5.401  11.631
36991SOL     OW12869  12.869   5.376   4.246
36991SOL    HW112870  12.903   5.350   4.160
36991SOL    HW212871  12.839   5.294   4.285
36992SOL     OW12872   4.290  14.156   5.985
36992SOL    HW112873   4.348  14.211   6.039
36992SOL    HW212874   4.347  14.124   5.915
36993SOL     OW12875   2.957   7.084  13.007
36993SOL    HW112876   2.874   7.079  12.959
36993SOL    HW212877   2.969   7.178  13.023
36994SOL     OW12878   5.558   3.632   9.357
36994SOL    HW112879   5.613   3.602   9.285
36994SOL    HW212880   5.559   3.560   9.420
36995SOL     OW12881  13.290   2.887   5.295
36995SOL    HW112882  13.377   2.852   5.317
36995SOL    HW212883  13.300   2.982   5.305
36996SOL     OW12884   8.193   6.633   3.294
36996SOL    HW112885   8.164   6.597   3.211
36996SOL    HW212886   8.195   6.558   3.354
36997SOL     OW12887   8.783   7.390   2.795
36997SOL    HW112888   8.806   7.310   2.842
36997SOL    HW212889   8.709   7.365   2.739
36998SOL     OW12890   1.573   9.970   0.295
36998SOL    HW112891   1.585   9.952   0.202
36998SOL    HW212892   1.571  10.066   0.301
36999SOL     OW12893   6.352  14.858  11.584
36999SOL    HW112894   6.295  14.820  11.650
36999SOL    HW212895   6.332   0.074  11.586
37000SOL     OW12896   0.734   5.510   3.643
37000SOL    HW112897   0.800   5.501   3.575
37000SOL    HW212898   0.652   5.485   3.600
37001SOL     OW12899   7.589   4.931   4.655
37001SOL    HW112900   7.559   4.951   4.744
37001SOL    HW212901   7.562   5.007   4.603
37002SOL     OW12902   3.413  14.421  14.622
37002SOL    HW112903   3.349  14.433  14.553
37002SOL    HW212904   3.361  14.404  14.701
37003SOL     OW12905   4.255  11.479  14.517
37003SOL    HW112906   4.232  11.421  14.590
37003SOL    HW212907   4.350  11.468  14.507
37004SOL     OW12908   5.314   6.761   6.145
37004SOL    HW112909   5.343   6.678   6.108
37004SOL    HW212910   5.386   6.788   6.202
37005SOL     OW12911   3.155   8.128  14.313
37005SOL    HW112912   3.123   8.216  14.336
37005SOL    HW212913   3.075   8.078  14.296
37006SOL     OW12914   2.243   2.103   1.371
37006SOL    HW112915   2.178   2.060   1.316
37006SOL    HW212916   2.327   2.072   1.339
37007SOL     OW12917   7.360   7.729   6.570
37007SOL    HW112918   7.449   7.698   6.554
37007SOL    HW212919   7.320   7.663   6.627
37008SOL     OW12920  14.866  12.950   8.190
37008SOL    HW112921  14.835  13.038   8.169
37008SOL    HW212922   0.002  12.952   8.285
37009SOL     OW12923  13.446   7.362   6.792
37009SOL    HW112924  13.503   7.293   6.826
37009SOL    HW212925  13.496   7.443   6.805
37010SOL     OW12926   5.679   4.798   2.070
37010SOL    HW112927   5.587   4.812   2.050
37010SOL    HW212928   5.682   4.712   2.112
37011SOL     OW12929   3.499   8.490   3.467
37011SOL    HW112930   3.419   8.506   3.518
37011SOL    HW212931   3.506   8.394   3.464
37012SOL     OW12932  12.680   9.943   9.158
37012SOL    HW112933  12.774   9.924   9.157
37012SOL    HW212934  12.639   9.860   9.133
37013SOL     OW12935   2.363   0.666  10.382
37013SOL    HW112936   2.378   0.589  10.327
37013SOL    HW212937   2.441   0.720  10.367
37014SOL     OW12938   9.415   9.781   5.399
37014SOL    HW112939   9.350   9.756   5.465
37014SOL    HW212940   9.487   9.719   5.411
37015SOL     OW12941   0.914   2.795   8.722
37015SOL    HW112942   0.936   2.887   8.715
37015SOL    HW212943   0.887   2.770   8.634
37016SOL     OW12944   8.234   1.392   5.326
37016SOL    HW112945   8.249   1.326   5.393
37016SOL    HW212946   8.274   1.356   5.247
37017SOL     OW12947   5.972  11.477  12.093
37017SOL    HW112948   6.032  11.434  12.154
37017SOL    HW212949   5.990  11.570  12.102
37018SOL     OW12950   1.854  12.767   8.719
37018SOL    HW112951   1.799  12.734   8.790
37018SOL    HW212952   1.799  12.833   8.676
37019SOL     OW12953   4.605   2.962   0.993
37019SOL    HW112954   4.559   2.879   1.007
37019SOL    HW212955   4.607   2.972   0.898
37020SOL     OW12956   2.044   3.755   3.471
37020SOL    HW112957   2.025   3.698   3.396
37020SOL    HW212958   1.960   3.766   3.515
37021SOL     OW12959  14.588   9.053  14.752
37021SOL    HW112960  14.504   9.089  14.779
37021SOL    HW212961  14.595   8.970  14.799
37022SOL     OW12962  12.928  11.397   9.903
37022SOL    HW112963  12.866  11.466   9.928
37022SOL    HW212964  12.914  11.328   9.968
37023SOL     OW12965  12.983   6.741   2.464
37023SOL    HW112966  13.034   6.670   2.501
37023SOL    HW212967  13.018   6.753   2.376
37024SOL     OW12968   1.084   8.464  10.341
37024SOL    HW112969   1.159   8.472  10.282
37024SOL    HW212970   1.105   8.521  10.414
37025SOL     OW12971   0.506   3.444   9.777
37025SOL    HW112972   0.594   3.478   9.770
37025SOL    HW212973   0.488   3.402   9.693
37026SOL     OW12974   3.715   8.341   6.702
37026SOL    HW112975   3.790   8.374   6.751
37026SOL    HW212976   3.667   8.287   6.766
37027SOL     OW12977   7.321   5.941   8.115
37027SOL    HW112978   7.270   5.909   8.190
37027SOL    HW212979   7.330   6.035   8.131
37028SOL     OW12980   8.233   3.787   0.025
37028SOL    HW112981   8.306   3.793   0.088
37028SOL    HW212982   8.275   3.762  14.820
37029SOL     OW12983   3.074  13.496   8.821
37029SOL    HW112984   3.070  13.587   8.850
37029SOL    HW212985   3.149  13.459   8.867
37030SOL     OW12986   5.354   6.894   2.928
37030SOL    HW112987   5.271   6.930   2.959
37030SOL    HW212988   5.347   6.800   2.945
37031SOL     OW12989   4.568  10.608   3.901
37031SOL    HW112990   4.541  10.683   3.848
37031SOL    HW212991   4.662  10.620   3.915
37032SOL     OW12992   6.643  12.671   6.530
37032SOL    HW112993   6.658  12.595   6.587
37032SOL    HW212994   6.634  12.745   6.591
37033SOL     OW12995   2.947   8.384  14.098
37033SOL    HW112996   3.036   8.386  14.061
37033SOL    HW212997   2.928   8.475  14.121
37034SOL     OW12998   2.951  10.906  12.020
37034SOL    HW112999   2.975  10.862  12.102
37034SOL    HW213000   2.980  10.847  11.951
37035SOL     OW13001   3.142   4.342  12.864
37035SOL    HW113002   3.162   4.421  12.814
37035SOL    HW213003   3.220   4.328  12.917
37036SOL     OW13004   3.506   9.167  11.256
37036SOL    HW113005   3.505   9.263  11.258
37036SOL    HW213006   3.447   9.144  11.184
37037SOL     OW13007   0.663  11.090   5.150
37037SOL    HW113008   0.750  11.097   5.112
37037SOL    HW213009   0.603  11.109   5.077
37038SOL     OW13010  14.703   6.273   7.201
37038SOL    HW113011  14.704   6.178   7.188
37038SOL    HW213012  14.636   6.305   7.141
37039SOL     OW13013   7.816   2.548  11.130
37039SOL    HW113014   7.775   2.595  11.203
37039SOL    HW213015   7.858   2.473  11.171
37040SOL     OW13016  13.112   2.124   1.127
37040SOL    HW113017  13.095   2.206   1.080
37040SOL    HW213018  13.092   2.055   1.063
37041SOL     OW13019   4.624  11.389   4.693
37041SOL    HW113020   4.615  11.338   4.774
37041SOL    HW213021   4.708  11.360   4.656
37042SOL     OW13022   1.464   4.834   2.037
37042SOL    HW113023   1.510   4.918   2.037
37042SOL    HW213024   1.526   4.773   1.996
37043SOL     OW13025   9.875  14.246   9.400
37043SOL    HW113026   9.960  14.213   9.427
37043SOL    HW213027   9.813  14.209   9.463
37044SOL     OW13028  10.261   1.850   7.386
37044SOL    HW113029  10.298   1.831   7.299
37044SOL    HW213030  10.182   1.901   7.368
37045SOL     OW13031   4.661   4.097  13.857
37045SOL    HW113032   4.588   4.065  13.804
37045SOL    HW213033   4.713   4.019  13.877
37046SOL     OW13034   5.385   1.466  11.152
37046SOL    HW113035   5.373   1.387  11.099
37046SOL    HW213036   5.426   1.434  11.232
37047SOL     OW13037   3.524   9.487   5.348
37047SOL    HW113038   3.432   9.492   5.324
37047SOL    HW213039   3.542   9.572   5.390
37048SOL     OW13040  10.913  12.479   5.911
37048SOL    HW113041  10.872  12.410   5.964
37048SOL    HW213042  10.944  12.543   5.975
37049SOL     OW13043   1.943   1.025   3.793
37049SOL    HW113044   1.955   1.101   3.736
37049SOL    HW213045   1.867   1.047   3.846
37050SOL     OW13046   8.819  11.931  10.575
37050SOL    HW113047   8.765  11.961  10.502
37050SOL    HW213048   8.906  11.918  10.538
37051SOL     OW13049  14.637   7.916   9.358
37051SOL    HW113050  14.625   7.974   9.433
37051SOL    HW213051  14.700   7.851   9.387
37052SOL     OW13052   8.978   6.641   7.100
37052SOL    HW113053   9.003   6.549   7.114
37052SOL    HW213054   8.942   6.669   7.184
37053SOL     OW13055   7.956   0.818  10.616
37053SOL    HW113056   8.033   0.762  10.619
37053SOL    HW213057   7.970   0.883  10.686
37054SOL     OW13058  11.617   1.750  10.505
37054SOL    HW113059  11.523   1.756  10.486
37054SOL    HW213060  11.639   1.658  10.489
37055SOL     OW13061  13.883   1.533   7.666
37055SOL    HW113062  13.910   1.578   7.746
37055SOL    HW213063  13.811   1.476   7.693
37056SOL     OW13064   9.645  12.284  11.901
37056SOL    HW113065   9.644  12.264  11.807
37056SOL    HW213066   9.664  12.200  11.943
37057SOL     OW13067   2.816   9.267   6.061
37057SOL    HW113068   2.776   9.333   6.004
37057SOL    HW213069   2.881   9.315   6.111
37058SOL     OW13070   0.806   8.136   1.731
37058SOL    HW113071   0.754   8.109   1.656
37058SOL    HW213072   0.818   8.056   1.782
37059SOL     OW13073   4.896   2.864   7.639
37059SOL    HW113074   4.812   2.821   7.618
37059SOL    HW213075   4.902   2.936   7.577
37060SOL     OW13076   7.485  11.159   5.153
37060SOL    HW113077   7.522  11.137   5.067
37060SOL    HW213078   7.443  11.077   5.182
37061SOL     OW13079   3.149  11.050   9.630
37061SOL    HW113080   3.139  11.144   9.646
37061SOL    HW213081   3.187  11.044   9.543
37062SOL     OW13082  11.724   0.567   9.202
37062SOL    HW113083  11.679   0.489   9.169
37062SOL    HW213084  11.666   0.600   9.270
37063SOL     OW13085  13.434  11.695   7.102
37063SOL    HW113086  13.444  11.602   7.082
37063SOL    HW213087  13.524  11.728   7.104
37064SOL     OW13088  13.107   8.820  10.900
37064SOL    HW113089  13.193   8.780  10.887
37064SOL    HW213090  13.099   8.831  10.994
37065SOL     OW13091   7.631   2.046  11.121
37065SOL    HW113092   7.674   2.005  11.046
37065SOL    HW213093   7.543   2.009  11.120
37066SOL     OW13094   4.368  11.779   6.881
37066SOL    HW113095   4.306  11.823   6.824
37066SOL    HW213096   4.314  11.727   6.941
37067SOL     OW13097   8.272   0.638  12.349
37067SOL    HW113098   8.351   0.604  12.392
37067SOL    HW213099   8.306   0.692  12.277
37068SOL     OW13100   7.448  14.520   0.424
37068SOL    HW113101   7.542  14.515   0.403
37068SOL    HW213102   7.424  14.610   0.401
37069SOL     OW13103  12.988   9.182   7.165
37069SOL    HW113104  13.048   9.117   7.202
37069SOL    HW213105  13.045   9.251   7.131
37070SOL     OW13106   1.448   9.973   3.249
37070SOL    HW113107   1.539   9.954   3.271
37070SOL    HW213108   1.440  10.068   3.259
37071SOL     OW13109  10.266   3.258  14.109
37071SOL    HW113110  10.204   3.298  14.170
37071SOL    HW213111  10.271   3.320  14.036
37072SOL     OW13112   3.844  13.756   0.558
37072SOL    HW113113   3.907  13.751   0.630
37072SOL    HW213114   3.797  13.673   0.562
37073SOL     OW13115   2.982   9.580   9.208
37073SOL    HW113116   2.950   9.545   9.291
37073SOL    HW213117   3.018   9.666   9.231
37074SOL     OW13118   8.052   6.130   0.776
37074SOL    HW113119   8.063   6.112   0.682
37074SOL    HW213120   8.002   6.212   0.779
37075SOL     OW13121   3.074   4.545   9.974
37075SOL    HW113122   3.027   4.613   9.925
37075SOL    HW213123   3.019   4.527  10.050
37076SOL     OW13124   9.059   6.870   6.939
37076SOL    HW113125   9.048   6.776   6.957
37076SOL    HW213126   8.974   6.909   6.961
37077SOL     OW13127   3.821   2.343   5.636
37077SOL    HW113128   3.830   2.253   5.664
37077SOL    HW213129   3.910   2.371   5.613
37078SOL     OW13130  10.613  13.890   0.109
37078SOL    HW113131  10.677  13.870   0.177
37078SOL    HW213132  10.622  13.818   0.046
37079SOL     OW13133   0.802   8.331  14.204
37079SOL    HW113134   0.892   8.304  14.224
37079SOL    HW213135   0.787   8.302  14.114
37080SOL     OW13136  11.439   0.922   5.896
37080SOL    HW113137  11.428   1.008   5.856
37080SOL    HW213138  11.378   0.866   5.849
37081SOL     OW13139   7.802   8.784   0.762
37081SOL    HW113140   7.764   8.696   0.752
37081SOL    HW213141   7.764   8.834   0.690
37082SOL     OW13142  10.355  13.048   9.483
37082SOL    HW113143  10.341  12.958   9.453
37082SOL    HW213144  10.448  13.050   9.507
37083SOL     OW13145  12.609  13.913  11.154
37083SOL    HW113146  12.675  13.856  11.116
37083SOL    HW213147  12.540  13.918  11.087
37084SOL     OW13148   3.782   0.686   3.855
37084SOL    HW113149   3.786   0.596   3.887
37084SOL    HW213150   3.794   0.679   3.760
37085SOL     OW13151   0.870   0.056   6.569
37085SOL    HW113152   0.778   0.042   6.591
37085SOL    HW213153   0.917  14.865   6.616
37086SOL     OW13154  13.054   3.989  14.586
37086SOL    HW113155  13.094   3.953  14.507
37086SOL    HW213156  13.091   3.937  14.658
37087SOL     OW13157  11.320   2.010   3.490
37087SOL    HW113158  11.387   2.078   3.480
37087SOL    HW213159  11.348   1.939   3.432
37088SOL     OW13160   8.209   6.298  14.572
37088SOL    HW113161   8.226   6.329  14.483
37088SOL    HW213162   8.183   6.376  14.621
37089SOL     OW13163   1.764   6.445   0.691
37089SOL    HW113164   1.708   6.402   0.756
37089SOL    HW213165   1.833   6.381   0.674
37090SOL     OW13166   1.668  14.228  13.894
37090SOL    HW113167   1.712  14.299  13.941
37090SOL    HW213168   1.614  14.273  13.828
37091SOL     OW13169   5.902   5.297   2.324
37091SOL    HW113170   5.838   5.343   2.270
37091SOL    HW213171   5.851   5.263   2.397
37092SOL     OW13172  13.028   4.282   1.219
37092SOL    HW113173  13.028   4.195   1.258
37092SOL    HW213174  13.006   4.267   1.127
37093SOL     OW13175   4.037  13.934   3.851
37093SOL    HW113176   4.095  13.934   3.927
37093SOL    HW213177   3.955  13.895   3.883
37094SOL     OW13178   0.481   6.677  10.203
37094SOL    HW113179   0.434   6.741  10.148
37094SOL    HW213180   0.545   6.730  10.251
37095SOL     OW13181   0.601   0.353   9.039
37095SOL    HW113182   0.687   0.318   9.014
37095SOL    HW213183   0.558   0.281   9.085
37096SOL     OW13184  14.408   7.585  12.116
37096SOL    HW113185  14.493   7.587  12.072
37096SOL    HW213186  14.429   7.570  12.208
37097SOL     OW13187   2.544  10.024   0.704
37097SOL    HW113188   2.557   9.984   0.617
37097SOL    HW213189   2.459   9.990   0.733
37098SOL     OW13190  13.231  13.308  11.436
37098SOL    HW113191  13.283  13.231  11.413
37098SOL    HW213192  13.228  13.307  11.532
37099SOL     OW13193   9.531  13.507   7.049
37099SOL    HW113194   9.624  13.484   7.054
37099SOL    HW213195   9.530  13.595   7.012
37100SOL     OW13196  12.552   6.389  13.200
37100SOL    HW113197  12.494   6.463  13.216
37100SOL    HW213198  12.548   6.338  13.280
37101SOL     OW13199   4.474   1.938  14.126
37101SOL    HW113200   4.438   1.881  14.194
37101SOL    HW213201   4.421   1.920  14.048
37102SOL     OW13202  12.127  12.922   3.597
37102SOL    HW113203  12.193  12.914   3.666
37102SOL    HW213204  12.045  12.933   3.644
37103SOL     OW13205   4.120   9.924   2.695
37103SOL    HW113206   4.151   9.838   2.667
37103SOL    HW213207   4.038   9.906   2.742
37104SOL     OW13208   8.892   2.468  13.119
37104SOL    HW113209   8.826   2.511  13.065
37104SOL    HW213210   8.841   2.411  13.177
37105SOL     OW13211   4.414  13.011  13.334
37105SOL    HW113212   4.326  12.982  13.309
37105SOL    HW213213   4.462  12.929  13.350
37106SOL     OW13214  13.533   4.164  11.944
37106SOL    HW113215  13.454   4.151  11.996
37106SOL    HW213216  13.539   4.085  11.890
37107SOL     OW13217  14.396   6.548   8.126
37107SOL    HW113218  14.325   6.491   8.098
37107SOL    HW213219  14.466   6.488   8.152
37108SOL     OW13220  10.543   1.315   7.340
37108SOL    HW113221  10.475   1.381   7.346
37108SOL    HW213222  10.580   1.309   7.428
37109SOL     OW13223   5.426   8.087   2.686
37109SOL    HW113224   5.346   8.034   2.677
37109SOL    HW213225   5.485   8.053   2.618
37110SOL     OW13226  10.898  12.687   1.306
37110SOL    HW113227  10.939  12.616   1.357
37110SOL    HW213228  10.842  12.641   1.243
37111SOL     OW13229  12.040  11.224   2.824
37111SOL    HW113230  12.069  11.142   2.784
37111SOL    HW213231  11.955  11.241   2.784
37112SOL     OW13232   8.955   4.292   7.074
37112SOL    HW113233   8.877   4.267   7.025
37112SOL    HW213234   8.946   4.247   7.159
37113SOL     OW13235   5.716   8.037   6.002
37113SOL    HW113236   5.622   8.028   6.013
37113SOL    HW213237   5.741   8.105   6.064
37114SOL     OW13238   6.235  11.858  14.142
37114SOL    HW113239   6.305  11.899  14.090
37114SOL    HW213240   6.189  11.931  14.182
37115SOL     OW13241  10.941   0.799  11.659
37115SOL    HW113242  10.957   0.880  11.610
37115SOL    HW213243  10.969   0.729  11.600
37116SOL     OW13244   9.114   4.457   7.667
37116SOL    HW113245   9.206   4.431   7.673
37116SOL    HW213246   9.109   4.511   7.588
37117SOL     OW13247  12.851   7.669   6.561
37117SOL    HW113248  12.893   7.661   6.647
37117SOL    HW213249  12.839   7.763   6.549
37118SOL     OW13250  10.642   7.630   2.269
37118SOL    HW113251  10.586   7.686   2.216
37118SOL    HW213252  10.589   7.552   2.286
37119SOL     OW13253   7.316   7.760   1.480
37119SOL    HW113254   7.368   7.783   1.557
37119SOL    HW213255   7.367   7.793   1.405
37120SOL     OW13256   6.884  10.766   3.475
37120SOL    HW113257   6.860  10.772   3.382
37120SOL    HW213258   6.842  10.686   3.506
37121SOL     OW13259   2.366   6.000   1.021
37121SOL    HW113260   2.419   5.925   0.993
37121SOL    HW213261   2.312   5.966   1.092
37122SOL     OW13262  13.781   4.191  13.066
37122SOL    HW113263  13.693   4.163  13.042
37122SOL    HW213264  13.831   4.110  13.071
37123SOL     OW13265  13.094  13.835   8.786
37123SOL    HW113266  13.080  13.858   8.694
37123SOL    HW213267  13.174  13.783   8.786
37124SOL     OW13268   6.624   0.472   0.330
37124SOL    HW113269   6.590   0.412   0.264
37124SOL    HW213270   6.683   0.418   0.383
37125SOL     OW13271  13.495  11.501  11.032
37125SOL    HW113272  13.547  11.464  11.103
37125SOL    HW213273  13.558  11.513  10.961
37126SOL     OW13274   5.277   8.220  13.206
37126SOL    HW113275   5.277   8.307  13.245
37126SOL    HW213276   5.304   8.161  13.277
37127SOL     OW13277   4.799   6.634   3.551
37127SOL    HW113278   4.772   6.673   3.468
37127SOL    HW213279   4.894   6.623   3.543
37128SOL     OW13280  10.333   6.037   0.660
37128SOL    HW113281  10.394   6.011   0.591
37128SOL    HW213282  10.271   5.964   0.666
37129SOL     OW13283   2.704   7.108  10.404
37129SOL    HW113284   2.658   7.110  10.321
37129SOL    HW213285   2.726   7.200  10.422
37130SOL     OW13286   6.626   5.418   9.710
37130SOL    HW113287   6.538   5.421   9.746
37130SOL    HW213288   6.647   5.509   9.689
37131SOL     OW13289   6.311  13.444   2.948
37131SOL    HW113290   6.320  13.534   2.916
37131SOL    HW213291   6.221  13.420   2.926
37132SOL     OW13292   8.648   6.633   3.679
37132SOL    HW113293   8.611   6.576   3.612
37132SOL    HW213294   8.573   6.676   3.718
37133SOL     OW13295   7.684  10.443   5.670
37133SOL    HW113296   7.773  10.408   5.666
37133SOL    HW213297   7.629  10.367   5.687
37134SOL     OW13298   1.165  11.620   9.960
37134SOL    HW113299   1.102  11.582  10.021
37134SOL    HW213300   1.135  11.592   9.874
37135SOL     OW13301  14.021   2.380  10.220
37135SOL    HW113302  13.938   2.399  10.263
37135SOL    HW213303  14.020   2.436  10.142
37136SOL     OW13304   6.775   1.561   2.149
37136SOL    HW113305   6.810   1.547   2.237
37136SOL    HW213306   6.703   1.622   2.161
37137SOL     OW13307   2.711   8.686   4.043
37137SOL    HW113308   2.717   8.680   3.948
37137SOL    HW213309   2.770   8.617   4.075
37138SOL     OW13310  12.652   5.245   8.411
37138SOL    HW113311  12.568   5.239   8.365
37138SOL    HW213312  12.662   5.338   8.430
37139SOL     OW13313   2.036  10.836   6.975
37139SOL    HW113314   2.050  10.863   6.884
37139SOL    HW213315   1.968  10.895   7.007
37140SOL     OW13316  14.834   6.358   8.651
37140SOL    HW113317  14.758   6.415   8.660
37140SOL    HW213318  14.797   6.272   8.630
37141SOL     OW13319   0.145   0.221   6.576
37141SOL    HW113320   0.184   0.304   6.602
37141SOL    HW213321   0.087   0.197   6.648
37142SOL     OW13322   4.631  11.683   2.460
37142SOL    HW113323   4.716  11.640   2.453
37142SOL    HW213324   4.646  11.772   2.426
37143SOL     OW13325   6.016   1.114  14.244
37143SOL    HW113326   6.078   1.056  14.199
37143SOL    HW213327   5.939   1.116  14.186
37144SOL     OW13328   3.741   3.405   9.265
37144SOL    HW113329   3.659   3.436   9.304
37144SOL    HW213330   3.741   3.311   9.282
37145SOL     OW13331   8.635   4.102   0.299
37145SOL    HW113332   8.557   4.144   0.262
37145SOL    HW213333   8.603   4.019   0.334
37146SOL     OW13334   2.369  13.733   8.642
37146SOL    HW113335   2.391  13.640   8.636
37146SOL    HW213336   2.412  13.763   8.722
37147SOL     OW13337  10.759   4.488   9.004
37147SOL    HW113338  10.839   4.521   8.964
37147SOL    HW213339  10.756   4.530   9.090
37148SOL     OW13340   2.301  13.474   3.446
37148SOL    HW113341   2.386  13.442   3.476
37148SOL    HW213342   2.316  13.502   3.356
37149SOL     OW13343   9.052  12.792   8.961
37149SOL    HW113344   9.064  12.847   8.884
37149SOL    HW213345   9.138  12.790   9.003
37150SOL     OW13346  14.830  11.294   6.011
37150SOL    HW113347  14.804  11.289   5.919
37150SOL    HW213348   0.041  11.257   6.012
37151SOL     OW13349  13.101  12.677   9.885
37151SOL    HW113350  13.169  12.629   9.932
37151SOL    HW213351  13.053  12.724   9.954
37152SOL     OW13352   3.411   4.348  14.857
37152SOL    HW113353   3.467   4.415   0.018
37152SOL    HW213354   3.463   4.309  14.787
37153SOL     OW13355   3.848   0.824  12.675
37153SOL    HW113356   3.845   0.785  12.587
37153SOL    HW213357   3.775   0.782  12.722
37154SOL     OW13358   9.912   2.274   2.268
37154SOL    HW113359  10.005   2.254   2.282
37154SOL    HW213360   9.880   2.302   2.353
37155SOL     OW13361   4.560   2.334  14.599
37155SOL    HW113362   4.476   2.358  14.637
37155SOL    HW213363   4.564   2.384  14.517
37156SOL     OW13364   1.424   4.536   5.189
37156SOL    HW113365   1.491   4.499   5.131
37156SOL    HW213366   1.343   4.495   5.160
37157SOL     OW13367   7.085  11.380  10.969
37157SOL    HW113368   7.097  11.286  10.959
37157SOL    HW213369   7.129  11.418  10.892
37158SOL     OW13370   1.979  10.928  14.804
37158SOL    HW113371   2.019  10.997  14.751
37158SOL    HW213372   1.948  10.864  14.741
37159SOL     OW13373  11.695   8.546   3.952
37159SOL    HW113374  11.703   8.613   3.884
37159SOL    HW213375  11.634   8.481   3.915
37160SOL     OW13376   9.812   8.253  12.264
37160SOL    HW113377   9.861   8.189  12.316
37160SOL    HW213378   9.723   8.217  12.259
37161SOL     OW13379   3.240   1.287   5.245
37161SOL    HW113380   3.243   1.381   5.230
37161SOL    HW213381   3.233   1.278   5.340
37162SOL     OW13382  13.657  14.201   0.807
37162SOL    HW113383  13.647  14.281   0.755
37162SOL    HW213384  13.745  14.170   0.786
37163SOL     OW13385  10.519   4.318   0.216
37163SOL    HW113386  10.480   4.289   0.134
37163SOL    HW213387  10.467   4.394   0.242
37164SOL     OW13388   1.477   0.510  10.558
37164SOL    HW113389   1.415   0.492  10.628
37164SOL    HW213390   1.521   0.591  10.585
37165SOL     OW13391   7.769  14.241  11.821
37165SOL    HW113392   7.677  14.265  11.826
37165SOL    HW213393   7.804  14.260  11.908
37166SOL     OW13394   7.638  11.681   3.877
37166SOL    HW113395   7.568  11.724   3.829
37166SOL    HW213396   7.718  11.716   3.839
37167SOL     OW13397  14.592   2.593  13.534
37167SOL    HW113398  14.637   2.609  13.451
37167SOL    HW213399  14.658   2.550  13.588
37168SOL     OW13400   2.736   0.952  14.245
37168SOL    HW113401   2.679   0.925  14.317
37168SOL    HW213402   2.796   0.879  14.232
37169SOL     OW13403  14.038   8.519   0.683
37169SOL    HW113404  14.089   8.577   0.739
37169SOL    HW213405  14.086   8.436   0.683
37170SOL     OW13406  13.726   6.956   2.226
37170SOL    HW113407  13.732   7.003   2.309
37170SOL    HW213408  13.641   6.912   2.229
37171SOL     OW13409   1.439   8.418   4.892
37171SOL    HW113410   1.481   8.504   4.887
37171SOL    HW213411   1.456   8.378   4.807
37172SOL     OW13412  12.510   6.593   4.555
37172SOL    HW113413  12.445   6.622   4.491
37172SOL    HW213414  12.498   6.652   4.630
37173SOL     OW13415  10.053   7.583  14.108
37173SOL    HW113416  10.005   7.534  14.041
37173SOL    HW213417  10.135   7.608  14.064
37174SOL     OW13418   7.179   6.386   7.257
37174SOL    HW113419   7.135   6.329   7.194
37174SOL    HW213420   7.167   6.343   7.342
37175SOL     OW13421   2.453  12.241   5.686
37175SOL    HW113422   2.521  12.174   5.681
37175SOL    HW213423   2.401  12.217   5.763
37176SOL     OW13424  11.027   5.090   1.453
37176SOL    HW113425  11.104   5.081   1.397
37176SOL    HW213426  11.041   5.027   1.523
37177SOL     OW13427   3.072   7.150   8.282
37177SOL    HW113428   3.047   7.122   8.194
37177SOL    HW213429   3.028   7.234   8.294
37178SOL     OW13430  11.241   7.999   2.135
37178SOL    HW113431  11.170   7.935   2.139
37178SOL    HW213432  11.320   7.947   2.144
37179SOL     OW13433   7.571   1.388   2.225
37179SOL    HW113434   7.632   1.322   2.191
37179SOL    HW213435   7.499   1.388   2.162
37180SOL     OW13436   4.856   8.235   5.311
37180SOL    HW113437   4.811   8.236   5.395
37180SOL    HW213438   4.913   8.312   5.313
37181SOL     OW13439   2.812  10.376   0.192
37181SOL    HW113440   2.873  10.357   0.121
37181SOL    HW213441   2.766  10.294   0.207
37182SOL     OW13442   4.618   2.915   8.851
37182SOL    HW113443   4.564   2.853   8.803
37182SOL    HW213444   4.593   2.902   8.943
37183SOL     OW13445   9.180   9.139   7.390
37183SOL    HW113446   9.214   9.227   7.375
37183SOL    HW213447   9.158   9.137   7.483
37184SOL     OW13448  11.364   1.220   7.941
37184SOL    HW113449  11.287   1.186   7.986
37184SOL    HW213450  11.429   1.151   7.949
37185SOL     OW13451  14.220   5.963   6.707
37185SOL    HW113452  14.214   5.891   6.644
37185SOL    HW213453  14.134   6.004   6.707
37186SOL     OW13454  11.740   5.931   0.958
37186SOL    HW113455  11.663   5.881   0.986
37186SOL    HW213456  11.710   5.979   0.881
37187SOL     OW13457  12.430   6.901   2.543
37187SOL    HW113458  12.478   6.824   2.573
37187SOL    HW213459  12.342   6.890   2.578
37188SOL     OW13460   5.595   3.844  12.437
37188SOL    HW113461   5.638   3.759  12.440
37188SOL    HW213462   5.507   3.826  12.405
37189SOL     OW13463  10.701  12.487  11.984
37189SOL    HW113464  10.688  12.440  11.901
37189SOL    HW213465  10.792  12.470  12.007
37190SOL     OW13466  12.408   5.753   0.092
37190SOL    HW113467  12.425   5.685   0.027
37190SOL    HW213468  12.390   5.831   0.040
37191SOL     OW13469  10.752   7.785   4.270
37191SOL    HW113470  10.790   7.703   4.242
37191SOL    HW213471  10.658   7.768   4.274
37192SOL     OW13472   0.462  11.656   7.018
37192SOL    HW113473   0.485  11.732   6.963
37192SOL    HW213474   0.397  11.690   7.079
37193SOL     OW13475   1.766   4.283   3.778
37193SOL    HW113476   1.758   4.262   3.685
37193SOL    HW213477   1.789   4.376   3.780
37194SOL     OW13478  11.961   3.383   6.543
37194SOL    HW113479  11.983   3.447   6.474
37194SOL    HW213480  11.911   3.315   6.497
37195SOL     OW13481   2.600   5.749  10.649
37195SOL    HW113482   2.558   5.830  10.678
37195SOL    HW213483   2.601   5.756  10.553
37196SOL     OW13484  12.702  11.604  10.206
37196SOL    HW113485  12.660  11.524  10.239
37196SOL    HW213486  12.795  11.585  10.210
37197SOL     OW13487   0.924   3.776   4.900
37197SOL    HW113488   0.837   3.814   4.895
37197SOL    HW213489   0.976   3.826   4.837
37198SOL     OW13490   3.634   7.710   6.812
37198SOL    HW113491   3.616   7.793   6.767
37198SOL    HW213492   3.613   7.728   6.903
37199SOL     OW13493   5.005   6.907   9.444
37199SOL    HW113494   4.988   6.932   9.534
37199SOL    HW213495   4.978   6.983   9.392
37200SOL     OW13496  14.249   1.721   5.161
37200SOL    HW113497  14.157   1.719   5.189
37200SOL    HW213498  14.269   1.814   5.152
37201SOL     OW13499  13.241  13.930   0.243
37201SOL    HW113500  13.307  13.861   0.237
37201SOL    HW213501  13.267  13.982   0.319
37202SOL     OW13502   6.887  11.595   0.864
37202SOL    HW113503   6.887  11.689   0.843
37202SOL    HW213504   6.918  11.591   0.955
37203SOL     OW13505   7.775   0.240   2.630
37203SOL    HW113506   7.805   0.181   2.561
37203SOL    HW213507   7.848   0.243   2.691
37204SOL     OW13508  12.659   1.486  12.728
37204SOL    HW113509  12.676   1.508  12.820
37204SOL    HW213510  12.592   1.419  12.732
37205SOL     OW13511   7.686   8.126   7.606
37205SOL    HW113512   7.774   8.148   7.578
37205SOL    HW213513   7.688   8.135   7.701
37206SOL     OW13514   5.506  10.089   7.135
37206SOL    HW113515   5.422  10.132   7.119
37206SOL    HW213516   5.570  10.146   7.093
37207SOL     OW13517   2.586   6.170   1.843
37207SOL    HW113518   2.498   6.148   1.872
37207SOL    HW213519   2.575   6.193   1.750
37208SOL     OW13520  13.103  11.973   2.281
37208SOL    HW113521  13.041  11.901   2.277
37208SOL    HW213522  13.185  11.932   2.309
37209SOL     OW13523  11.369   1.144   1.193
37209SOL    HW113524  11.335   1.232   1.206
37209SOL    HW213525  11.365   1.103   1.279
37210SOL     OW13526   2.810   7.688  12.791
37210SOL    HW113527   2.862   7.723  12.718
37210SOL    HW213528   2.738   7.750  12.801
37211SOL     OW13529  10.393   1.375   9.897
37211SOL    HW113530  10.463   1.370   9.831
37211SOL    HW213531  10.398   1.465   9.931
37212SOL     OW13532   9.005  14.653   7.878
37212SOL    HW113533   8.930  14.636   7.822
37212SOL    HW213534   9.039  14.737   7.848
37213SOL     OW13535   8.715   8.482   8.836
37213SOL    HW113536   8.642   8.482   8.774
37213SOL    HW213537   8.746   8.391   8.837
37214SOL     OW13538  12.677   2.184  10.381
37214SOL    HW113539  12.734   2.201  10.306
37214SOL    HW213540  12.680   2.089  10.393
37215SOL     OW13541   1.410   8.762   9.548
37215SOL    HW113542   1.351   8.703   9.594
37215SOL    HW213543   1.357   8.799   9.478
37216SOL     OW13544  10.118   8.344  13.886
37216SOL    HW113545  10.211   8.339  13.906
37216SOL    HW213546  10.115   8.373  13.795
37217SOL     OW13547   6.575   5.828   7.532
37217SOL    HW113548   6.582   5.832   7.436
37217SOL    HW213549   6.642   5.765   7.559
37218SOL     OW13550  10.693   2.235  10.536
37218SOL    HW113551  10.635   2.296  10.492
37218SOL    HW213552  10.780   2.254  10.500
37219SOL     OW13553   9.429   2.813   2.088
37219SOL    HW113554   9.512   2.858   2.099
37219SOL    HW213555   9.436   2.769   2.003
37220SOL     OW13556   2.535  11.629   2.631
37220SOL    HW113557   2.486  11.551   2.656
37220SOL    HW213558   2.487  11.665   2.557
37221SOL     OW13559  11.828  13.252   2.780
37221SOL    HW113560  11.753  13.298   2.817
37221SOL    HW213561  11.900  13.272   2.840
37222SOL     OW13562   8.821  11.860  12.345
37222SOL    HW113563   8.726  11.849  12.347
37222SOL    HW213564   8.847  11.835  12.256
37223SOL     OW13565  12.309  13.043  11.191
37223SOL    HW113566  12.238  13.086  11.239
37223SOL    HW213567  12.387  13.093  11.213
37224SOL     OW13568   4.349  10.554   8.880
37224SOL    HW113569   4.354  10.492   8.808
37224SOL    HW213570   4.435  10.549   8.922
37225SOL     OW13571   0.194  13.505  10.921
37225SOL    HW113572   0.242  13.524  10.840
37225SOL    HW213573   0.126  13.443  10.895
37226SOL     OW13574   9.010  10.985  14.789
37226SOL    HW113575   9.064  11.053  14.748
37226SOL    HW213576   8.971  11.028  14.865
37227SOL     OW13577  14.147   6.140  10.272
37227SOL    HW113578  14.129   6.224  10.313
37227SOL    HW213579  14.234   6.150  10.234
37228SOL     OW13580  11.769   1.268  11.022
37228SOL    HW113581  11.727   1.282  11.106
37228SOL    HW213582  11.699   1.278  10.957
37229SOL     OW13583  14.847   5.643  11.806
37229SOL    HW113584  14.841   5.733  11.838
37229SOL    HW213585  14.763   5.628  11.761
37230SOL     OW13586   1.340   1.620   6.179
37230SOL    HW113587   1.413   1.634   6.118
37230SOL    HW213588   1.286   1.555   6.135
37231SOL     OW13589   0.236   3.535  13.084
37231SOL    HW113590   0.210   3.443  13.087
37231SOL    HW213591   0.330   3.534  13.103
37232SOL     OW13592   5.043   0.683   2.543
37232SOL    HW113593   5.077   0.669   2.454
37232SOL    HW213594   4.949   0.700   2.530
37233SOL     OW13595  10.933   5.248  10.697
37233SOL    HW113596  10.952   5.226  10.606
37233SOL    HW213597  10.876   5.324  10.692
37234SOL     OW13598  14.355  12.563  14.209
37234SOL    HW113599  14.324  12.577  14.299
37234SOL    HW213600  14.445  12.533  14.220
37235SOL     OW13601   0.706   6.294   7.177
37235SOL    HW113602   0.685   6.266   7.266
37235SOL    HW213603   0.785   6.347   7.187
37236SOL     OW13604  10.106  10.375   3.508
37236SOL    HW113605  10.187  10.343   3.548
37236SOL    HW213606  10.120  10.468   3.495
37237SOL     OW13607   2.168   9.728  10.920
37237SOL    HW113608   2.094   9.717  10.980
37237SOL    HW213609   2.164   9.651  10.862
37238SOL     OW13610  10.833  12.115  10.812
37238SOL    HW113611  10.834  12.127  10.717
37238SOL    HW213612  10.907  12.057  10.830
37239SOL     OW13613   9.522  12.764   3.174
37239SOL    HW113614   9.439  12.750   3.128
37239SOL    HW213615   9.497  12.799   3.259
37240SOL     OW13616   1.461  10.230   1.979
37240SOL    HW113617   1.485  10.148   2.021
37240SOL    HW213618   1.394  10.267   2.036
37241SOL     OW13619   2.881  11.126   4.633
37241SOL    HW113620   2.950  11.086   4.686
37241SOL    HW213621   2.915  11.123   4.544
37242SOL     OW13622   4.933  14.734  13.366
37242SOL    HW113623   4.950  14.768  13.454
37242SOL    HW213624   5.017  14.702  13.336
37243SOL     OW13625   6.884   4.008   4.554
37243SOL    HW113626   6.830   4.081   4.584
37243SOL    HW213627   6.889   4.019   4.459
37244SOL     OW13628  14.703  14.851   3.661
37244SOL    HW113629  14.614   0.006   3.674
37244SOL    HW213630  14.758   0.051   3.672
37245SOL     OW13631   2.135  13.580   2.031
37245SOL    HW113632   2.061  13.525   2.005
37245SOL    HW213633   2.135  13.577   2.127
37246SOL     OW13634   7.771  10.287  14.546
37246SOL    HW113635   7.721  10.368  14.540
37246SOL    HW213636   7.860  10.312  14.520
37247SOL     OW13637   7.505   3.753   4.788
37247SOL    HW113638   7.412   3.777   4.784
37247SOL    HW213639   7.552   3.836   4.784
37248SOL     OW13640   6.620   1.984  14.001
37248SOL    HW113641   6.598   1.916  14.064
37248SOL    HW213642   6.559   2.055  14.019
37249SOL     OW13643   9.937   1.021   8.743
37249SOL    HW113644   9.937   0.935   8.701
37249SOL    HW213645  10.024   1.057   8.725
37250SOL     OW13646   2.730   7.737   9.258
37250SOL    HW113647   2.731   7.742   9.353
37250SOL    HW213648   2.642   7.706   9.236
37251SOL     OW13649  14.404   7.947  10.120
37251SOL    HW113650  14.327   7.952  10.064
37251SOL    HW213651  14.370   7.925  10.207
37252SOL     OW13652   5.063   0.667  14.033
37252SOL    HW113653   5.006   0.687  13.958
37252SOL    HW213654   5.103   0.583  14.010
37253SOL     OW13655  14.371   5.284  10.119
37253SOL    HW113656  14.360   5.347  10.190
37253SOL    HW213657  14.313   5.211  10.142
37254SOL     OW13658   6.725   8.809   5.306
37254SOL    HW113659   6.637   8.835   5.334
37254SOL    HW213660   6.782   8.840   5.377
37255SOL     OW13661   3.014  11.103   4.382
37255SOL    HW113662   3.065  11.026   4.357
37255SOL    HW213663   2.929  11.091   4.339
37256SOL     OW13664   9.049   3.174  10.706
37256SOL    HW113665   9.034   3.257  10.660
37256SOL    HW213666   8.961   3.137  10.717
37257SOL     OW13667  14.134   1.468   3.789
37257SOL    HW113668  14.180   1.419   3.720
37257SOL    HW213669  14.044   1.473   3.758
37258SOL     OW13670   7.037  14.314   1.082
37258SOL    HW113671   7.131  14.328   1.066
37258SOL    HW213672   6.999  14.402   1.073
37259SOL     OW13673  14.797  13.695  14.166
37259SOL    HW113674  14.856  13.622  14.187
37259SOL    HW213675  14.768  13.678  14.076
37260SOL     OW13676   2.733  12.980   3.086
37260SOL    HW113677   2.697  12.928   3.158
37260SOL    HW213678   2.734  13.070   3.121
37261SOL     OW13679   3.845   2.110  12.790
37261SOL    HW113680   3.808   2.151  12.711
37261SOL    HW213681   3.768   2.087  12.842
37262SOL     OW13682  12.055   8.908   5.247
37262SOL    HW113683  12.137   8.906   5.199
37262SOL    HW213684  12.080   8.929   5.337
37263SOL     OW13685   0.714   8.317  11.789
37263SOL    HW113686   0.708   8.401  11.744
37263SOL    HW213687   0.706   8.340  11.882
37264SOL     OW13688  12.861   5.801   2.757
37264SOL    HW113689  12.810   5.729   2.720
37264SOL    HW213690  12.850   5.873   2.696
37265SOL     OW13691   7.540  13.518   4.896
37265SOL    HW113692   7.560  13.425   4.890
37265SOL    HW213693   7.594  13.558   4.828
37266SOL     OW13694   5.440  10.492   4.541
37266SOL    HW113695   5.371  10.472   4.478
37266SOL    HW213696   5.393  10.518   4.620
37267SOL     OW13697   7.433   9.127  12.946
37267SOL    HW113698   7.427   9.032  12.958
37267SOL    HW213699   7.519   9.140  12.908
37268SOL     OW13700   9.071   0.153  13.046
37268SOL    HW113701   9.087   0.073  13.095
37268SOL    HW213702   9.158   0.183  13.019
37269SOL     OW13703  14.860  12.859   7.402
37269SOL    HW113704  14.871  12.896   7.489
37269SOL    HW213705   0.052  12.899   7.350
37270SOL     OW13706   8.181   5.481   3.297
37270SOL    HW113707   8.098   5.433   3.303
37270SOL    HW213708   8.165   5.548   3.231
37271SOL     OW13709   1.500  13.897   4.542
37271SOL    HW113710   1.500  13.960   4.614
37271SOL    HW213711   1.585  13.852   4.549
37272SOL     OW13712   1.076  10.571   8.103
37272SOL    HW113713   1.117  10.562   8.017
37272SOL    HW213714   1.119  10.647   8.142
37273SOL     OW13715  13.777   9.879   4.598
37273SOL    HW113716  13.825   9.805   4.634
37273SOL    HW213717  13.774   9.943   4.670
37274SOL     OW13718  10.139  11.988   8.790
37274SOL    HW113719  10.056  11.941   8.795
37274SOL    HW213720  10.151  12.008   8.698
37275SOL     OW13721  11.994   0.965  13.667
37275SOL    HW113722  12.055   0.997  13.600
37275SOL    HW213723  11.908   0.970  13.626
37276SOL     OW13724   9.178  11.497   7.953
37276SOL    HW113725   9.141  11.432   7.893
37276SOL    HW213726   9.272  11.489   7.943
37277SOL     OW13727   7.812  14.626   9.401
37277SOL    HW113728   7.875  14.656   9.466
37277SOL    HW213729   7.788  14.706   9.354
37278SOL     OW13730   5.495   2.739   5.118
37278SOL    HW113731   5.584   2.772   5.105
37278SOL    HW213732   5.443   2.783   5.051
37279SOL     OW13733  13.611   8.183   2.605
37279SOL    HW113734  13.549   8.226   2.545
37279SOL    HW213735  13.562   8.174   2.687
37280SOL     OW13736   9.134   5.848  10.166
37280SOL    HW113737   9.179   5.828  10.248
37280SOL    HW213738   9.089   5.767  10.142
37281SOL     OW13739   1.335   2.593  13.260
37281SOL    HW113740   1.390   2.644  13.200
37281SOL    HW213741   1.245   2.620  13.239
37282SOL     OW13742   8.406  13.431  12.686
37282SOL    HW113743   8.447  13.510  12.720
37282SOL    HW213744   8.356  13.460  12.609
37283SOL     OW13745   6.902   0.708   1.338
37283SOL    HW113746   6.842   0.640   1.369
37283SOL    HW213747   6.845   0.782   1.317
37284SOL     OW13748   5.157  13.566   4.876
37284SOL    HW113749   5.116  13.652   4.875
37284SOL    HW213750   5.097  13.512   4.927
37285SOL     OW13751   5.020   7.179  13.244
37285SOL    HW113752   5.035   7.089  13.272
37285SOL    HW213753   5.055   7.233  13.314
37286SOL     OW13754   7.668  13.594   9.107
37286SOL    HW113755   7.756  13.588   9.144
37286SOL    HW213756   7.610  13.572   9.180
37287SOL     OW13757   5.195   7.831   3.598
37287SOL    HW113758   5.215   7.740   3.619
37287SOL    HW213759   5.268   7.860   3.544
37288SOL     OW13760   0.661   2.433  12.229
37288SOL    HW113761   0.609   2.411  12.306
37288SOL    HW213762   0.745   2.464  12.264
37289SOL     OW13763  10.589   6.159  10.899
37289SOL    HW113764  10.583   6.166  10.994
37289SOL    HW213765  10.574   6.248  10.867
37290SOL     OW13766   5.657  12.065   5.379
37290SOL    HW113767   5.727  12.096   5.437
37290SOL    HW213768   5.683  12.096   5.292
37291SOL     OW13769   0.487  10.743   1.387
37291SOL    HW113770   0.425  10.769   1.456
37291SOL    HW213771   0.486  10.648   1.389
37292SOL     OW13772   3.197   2.520   4.869
37292SOL    HW113773   3.218   2.561   4.785
37292SOL    HW213774   3.174   2.430   4.847
37293SOL     OW13775   1.105   5.293   5.206
37293SOL    HW113776   1.126   5.304   5.299
37293SOL    HW213777   1.172   5.233   5.174
37294SOL     OW13778  13.016  13.932  12.322
37294SOL    HW113779  13.045  13.937  12.231
37294SOL    HW213780  13.094  13.954  12.374
37295SOL     OW13781   4.712  13.035   3.530
37295SOL    HW113782   4.747  12.994   3.609
37295SOL    HW213783   4.627  13.070   3.557
37296SOL     OW13784  11.076   0.459   0.710
37296SOL    HW113785  10.993   0.451   0.663
37296SOL    HW213786  11.121   0.531   0.666
37297SOL     OW13787   0.221  14.244  11.641
37297SOL    HW113788   0.300  14.277  11.598
37297SOL    HW213789   0.196  14.167  11.589
37298SOL     OW13790   1.132  12.281  11.782
37298SOL    HW113791   1.215  12.325  11.799
37298SOL    HW213792   1.069  12.325  11.839
37299SOL     OW13793  11.906   2.162   6.553
37299SOL    HW113794  11.870   2.125   6.634
37299SOL    HW213795  11.942   2.087   6.507
37300SOL     OW13796   6.180   9.337   2.101
37300SOL    HW113797   6.160   9.281   2.176
37300SOL    HW213798   6.137   9.419   2.121
37301SOL     OW13799  11.544   5.962   2.960
37301SOL    HW113800  11.589   6.039   2.926
37301SOL    HW213801  11.614   5.903   2.988
37302SOL     OW13802  13.758   8.797   8.236
37302SOL    HW113803  13.833   8.754   8.276
37302SOL    HW213804  13.706   8.725   8.199
37303SOL     OW13805   8.379   9.183  14.868
37303SOL    HW113806   8.458   9.131  14.857
37303SOL    HW213807   8.367   9.188   0.085
37304SOL     OW13808  14.061   3.660   9.275
37304SOL    HW113809  13.987   3.639   9.218
37304SOL    HW213810  14.135   3.673   9.215
37305SOL     OW13811  12.870   3.735  13.485
37305SOL    HW113812  12.827   3.710  13.403
37305SOL    HW213813  12.961   3.708  13.473
37306SOL     OW13814   2.613  12.036   3.869
37306SOL    HW113815   2.661  12.108   3.828
37306SOL    HW213816   2.636  11.959   3.816
37307SOL     OW13817   0.966   4.242  10.457
37307SOL    HW113818   0.939   4.294  10.381
37307SOL    HW213819   1.048   4.202  10.430
37308SOL     OW13820  11.850   6.404   1.935
37308SOL    HW113821  11.814   6.315   1.938
37308SOL    HW213822  11.879   6.414   1.844
37309SOL     OW13823   0.878  13.648  12.568
37309SOL    HW113824   0.786  13.623  12.575
37309SOL    HW213825   0.898  13.688  12.652
37310SOL     OW13826   6.296   0.143  10.937
37310SOL    HW113827   6.349   0.101  10.869
37310SOL    HW213828   6.242   0.206  10.891
37311SOL     OW13829   0.260   3.112   5.626
37311SOL    HW113830   0.208   3.177   5.578
37311SOL    HW213831   0.219   3.108   5.712
37312SOL     OW13832   6.786  12.760   3.766
37312SOL    HW113833   6.782  12.849   3.731
37312SOL    HW213834   6.694  12.734   3.776
37313SOL     OW13835   3.924   7.227   5.535
37313SOL    HW113836   3.942   7.211   5.443
37313SOL    HW213837   3.867   7.155   5.562
37314SOL     OW13838  11.769  14.221   2.225
37314SOL    HW113839  11.691  14.276   2.217
37314SOL    HW213840  11.768  14.190   2.315
37315SOL     OW13841   6.675  11.152  14.511
37315SOL    HW113842   6.769  11.170  14.507
37315SOL    HW213843   6.634  11.237  14.494
37316SOL     OW13844   0.262  10.076   2.766
37316SOL    HW113845   0.268   9.981   2.759
37316SOL    HW213846   0.353  10.106   2.770
37317SOL     OW13847  12.444   9.897   0.257
37317SOL    HW113848  12.414   9.850   0.179
37317SOL    HW213849  12.482   9.978   0.222
37318SOL     OW13850   4.982  12.091   4.410
37318SOL    HW113851   4.909  12.030   4.400
37318SOL    HW213852   5.020  12.098   4.323
37319SOL     OW13853   4.166   7.123   3.700
37319SOL    HW113854   4.258   7.123   3.725
37319SOL    HW213855   4.121   7.170   3.770
37320SOL     OW13856   4.354  12.018   7.927
37320SOL    HW113857   4.337  12.069   8.006
37320SOL    HW213858   4.434  11.969   7.947
37321SOL     OW13859  12.629   7.488   2.419
37321SOL    HW113860  12.647   7.401   2.382
37321SOL    HW213861  12.546   7.513   2.379
37322SOL     OW13862   5.032   9.000   3.462
37322SOL    HW113863   4.981   8.973   3.539
37322SOL    HW213864   5.108   9.045   3.498
37323SOL     OW13865   0.349   3.823  11.804
37323SOL    HW113866   0.302   3.881  11.745
37323SOL    HW213867   0.403   3.768  11.747
37324SOL     OW13868  12.796   9.972  10.539
37324SOL    HW113869  12.838   9.941  10.459
37324SOL    HW213870  12.863   9.964  10.607
37325SOL     OW13871  13.720   4.997   3.925
37325SOL    HW113872  13.740   4.988   4.018
37325SOL    HW213873  13.730   4.909   3.890
37326SOL     OW13874  10.372   2.946   4.174
37326SOL    HW113875  10.395   3.028   4.131
37326SOL    HW213876  10.318   2.971   4.249
37327SOL     OW13877  11.224  11.267   2.682
37327SOL    HW113878  11.250  11.185   2.726
37327SOL    HW213879  11.282  11.272   2.606
37328SOL     OW13880  14.209   7.879   9.146
37328SOL    HW113881  14.174   7.951   9.198
37328SOL    HW213882  14.216   7.914   9.057
37329SOL     OW13883  13.321   5.509   7.848
37329SOL    HW113884  13.280   5.524   7.934
37329SOL    HW213885  13.253   5.532   7.785
37330SOL     OW13886   2.623  14.576  10.746
37330SOL    HW113887   2.585  14.511  10.806
37330SOL    HW213888   2.709  14.595  10.783
37331SOL     OW13889   3.034  14.550   0.194
37331SOL    HW113890   3.085  14.569   0.115
37331SOL    HW213891   3.097  14.558   0.265
37332SOL     OW13892  14.053   3.439  10.221
37332SOL    HW113893  14.105   3.511  10.256
37332SOL    HW213894  14.115   3.367  10.210
37333SOL     OW13895   2.687   3.497   8.368
37333SOL    HW113896   2.615   3.434   8.376
37333SOL    HW213897   2.657   3.575   8.414
37334SOL     OW13898   7.271   5.971  13.612
37334SOL    HW113899   7.293   6.062  13.633
37334SOL    HW213900   7.340   5.942  13.553
37335SOL     OW13901  13.498   8.286   4.751
37335SOL    HW113902  13.561   8.332   4.807
37335SOL    HW213903  13.417   8.336   4.759
37336SOL     OW13904   3.494   5.499  10.445
37336SOL    HW113905   3.474   5.490  10.538
37336SOL    HW213906   3.589   5.484  10.439
37337SOL     OW13907   4.116  12.091  10.311
37337SOL    HW113908   4.023  12.078  10.328
37337SOL    HW213909   4.158  12.072  10.395
37338SOL     OW13910   6.054   6.416   7.464
37338SOL    HW113911   6.033   6.506   7.441
37338SOL    HW213912   6.048   6.368   7.382
37339SOL     OW13913   6.877   9.042   8.680
37339SOL    HW113914   6.923   9.123   8.660
37339SOL    HW213915   6.900   9.023   8.771
37340SOL     OW13916  12.429   3.274   6.528
37340SOL    HW113917  12.486   3.346   6.503
37340SOL    HW213918  12.371   3.261   6.453
37341SOL     OW13919   3.593   2.897  13.612
37341SOL    HW113920   3.582   2.990  13.593
37341SOL    HW213921   3.687   2.882  13.602
37342SOL     OW13922   6.552   7.688  10.641
37342SOL    HW113923   6.585   7.675  10.730
37342SOL    HW213924   6.501   7.769  10.646
37343SOL     OW13925   3.857   3.108   3.584
37343SOL    HW113926   3.900   3.193   3.579
37343SOL    HW213927   3.861   3.075   3.494
37344SOL     OW13928  10.803  13.214   3.503
37344SOL    HW113929  10.737  13.180   3.442
37344SOL    HW213930  10.835  13.294   3.462
37345SOL     OW13931   3.432  12.623   6.250
37345SOL    HW113932   3.344  12.594   6.227
37345SOL    HW213933   3.428  12.638   6.345
37346SOL     OW13934   1.340  12.364   5.471
37346SOL    HW113935   1.388  12.304   5.528
37346SOL    HW213936   1.249  12.334   5.476
37347SOL     OW13937   4.672   6.901   5.313
37347SOL    HW113938   4.704   6.921   5.401
37347SOL    HW213939   4.686   6.982   5.263
37348SOL     OW13940  10.850   0.282   4.582
37348SOL    HW113941  10.864   0.198   4.624
37348SOL    HW213942  10.771   0.271   4.530
37349SOL     OW13943   7.887   8.591   5.906
37349SOL    HW113944   7.810   8.617   5.957
37349SOL    HW213945   7.852   8.548   5.828
37350SOL     OW13946   7.871  13.152   6.720
37350SOL    HW113947   7.921  13.229   6.692
37350SOL    HW213948   7.916  13.078   6.679
37351SOL     OW13949  13.126   0.060   4.875
37351SOL    HW113950  13.054   0.067   4.939
37351SOL    HW213951  13.118  14.849   4.841
37352SOL     OW13952   2.074   0.068   4.289
37352SOL    HW113953   2.015   0.137   4.320
37352SOL    HW213954   2.153   0.078   4.341
37353SOL     OW13955   6.438   6.584   3.948
37353SOL    HW113956   6.477   6.614   4.029
37353SOL    HW213957   6.511   6.581   3.886
37354SOL     OW13958   7.326  12.528  13.582
37354SOL    HW113959   7.385  12.521  13.507
37354SOL    HW213960   7.313  12.437  13.611
37355SOL     OW13961  11.999   3.544   7.887
37355SOL    HW113962  12.054   3.487   7.941
37355SOL    HW213963  11.966   3.487   7.817
37356SOL     OW13964  13.367  11.005   3.301
37356SOL    HW113965  13.370  10.911   3.319
37356SOL    HW213966  13.443  11.041   3.347
37357SOL     OW13967   1.832   9.530   7.640
37357SOL    HW113968   1.754   9.503   7.689
37357SOL    HW213969   1.802   9.535   7.549
37358SOL     OW13970   5.722  11.610  11.720
37358SOL    HW113971   5.774  11.548  11.669
37358SOL    HW213972   5.775  11.690  11.722
37359SOL     OW13973   4.128   6.706   2.735
37359SOL    HW113974   4.062   6.642   2.762
37359SOL    HW213975   4.197   6.654   2.695
37360SOL     OW13976   8.098   8.146  13.031
37360SOL    HW113977   8.066   8.140  13.121
37360SOL    HW213978   8.020   8.165  12.979
37361SOL     OW13979  10.102   1.730  10.642
37361SOL    HW113980  10.075   1.647  10.602
37361SOL    HW213981  10.052   1.734  10.724
37362SOL     OW13982   6.667  10.183   6.027
37362SOL    HW113983   6.739  10.180   6.091
37362SOL    HW213984   6.593  10.142   6.073
37363SOL     OW13985   6.311   4.608  11.298
37363SOL    HW113986   6.296   4.702  11.307
37363SOL    HW213987   6.268   4.585  11.215
37364SOL     OW13988  14.873  11.383   0.447
37364SOL    HW113989   0.001  11.342   0.533
37364SOL    HW213990  14.862  11.477   0.467
37365SOL     OW13991   1.241   6.368   1.013
37365SOL    HW113992   1.187   6.356   0.935
37365SOL    HW213993   1.312   6.425   0.984
37366SOL     OW13994   1.642   7.689   1.695
37366SOL    HW113995   1.575   7.755   1.681
37366SOL    HW213996   1.650   7.681   1.790
37367SOL     OW13997  10.077   5.693   9.368
37367SOL    HW113998  10.021   5.769   9.350
37367SOL    HW213999  10.037   5.653   9.445
37368SOL     OW14000  11.988   3.303  11.031
37368SOL    HW114001  11.971   3.223  11.082
37368SOL    HW214002  12.079   3.325  11.051
37369SOL     OW14003   0.161   3.619   4.041
37369SOL    HW114004   0.127   3.689   4.096
37369SOL    HW214005   0.144   3.539   4.090
37370SOL     OW14006   3.830   8.590   7.862
37370SOL    HW114007   3.794   8.649   7.797
37370SOL    HW214008   3.921   8.619   7.873
37371SOL     OW14009   9.936   7.454  13.613
37371SOL    HW114010   9.897   7.459  13.700
37371SOL    HW214011  10.015   7.401  13.625
37372SOL     OW14012  11.878  11.317   6.020
37372SOL    HW114013  11.894  11.411   6.015
37372SOL    HW214014  11.785  11.310   6.043
37373SOL     OW14015  11.308   0.921  10.644
37373SOL    HW114016  11.216   0.896  10.630
37373SOL    HW214017  11.305   1.016  10.655
37374SOL     OW14018  14.411   2.592   2.258
37374SOL    HW114019  14.352   2.647   2.309
37374SOL    HW214020  14.356   2.519   2.229
37375SOL     OW14021   0.032   0.682   4.638
37375SOL    HW114022  14.815   0.667   4.637
37375SOL    HW214023   0.067   0.614   4.580
37376SOL     OW14024   1.965   5.994  10.561
37376SOL    HW114025   1.879   6.031  10.581
37376SOL    HW214026   1.956   5.959  10.472
37377SOL     OW14027  13.044   4.297  10.567
37377SOL    HW114028  12.987   4.349  10.510
37377SOL    HW214029  12.991   4.222  10.592
37378SOL     OW14030  10.713   4.280  10.190
37378SOL    HW114031  10.654   4.206  10.177
37378SOL    HW214032  10.656   4.356  10.197
37379SOL     OW14033   5.954   8.660   5.595
37379SOL    HW114034   5.868   8.654   5.552
37379SOL    HW214035   6.014   8.617   5.534
37380SOL     OW14036  14.750  14.682  12.636
37380SOL    HW114037  14.735  14.622  12.563
37380SOL    HW214038  14.670  14.679  12.688
37381SOL     OW14039   3.977   9.479  14.284
37381SOL    HW114040   3.961   9.417  14.355
37381SOL    HW214041   4.071   9.497  14.288
37382SOL     OW14042   6.474   0.467  14.440
37382SOL    HW114043   6.494   0.518  14.362
37382SOL    HW214044   6.542   0.400  14.443
37383SOL     OW14045   5.422  11.756  13.759
37383SOL    HW114046   5.402  11.677  13.707
37383SOL    HW214047   5.465  11.815  13.697
37384SOL     OW14048  12.400  11.302   4.766
37384SOL    HW114049  12.402  11.208   4.786
37384SOL    HW214050  12.451  11.343   4.836
37385SOL     OW14051   8.846   9.623  12.580
37385SOL    HW114052   8.783   9.552  12.587
37385SOL    HW214053   8.802   9.699  12.618
37386SOL     OW14054   0.890   5.081   0.483
37386SOL    HW114055   0.861   5.102   0.572
37386SOL    HW214056   0.815   5.099   0.428
37387SOL     OW14057  10.300   2.552   0.410
37387SOL    HW114058  10.372   2.489   0.404
37387SOL    HW214059  10.311   2.592   0.497
37388SOL     OW14060   3.559  10.130   9.062
37388SOL    HW114061   3.533  10.105   8.973
37388SOL    HW214062   3.565  10.225   9.060
37389SOL     OW14063   1.172  11.703   6.378
37389SOL    HW114064   1.203  11.793   6.391
37389SOL    HW214065   1.236  11.664   6.319
37390SOL     OW14066   6.507   1.427  12.758
37390SOL    HW114067   6.412   1.437  12.764
37390SOL    HW214068   6.539   1.450  12.846
37391SOL     OW14069   6.801  11.349   0.256
37391SOL    HW114070   6.823  11.306   0.338
37391SOL    HW214071   6.878  11.403   0.236
37392SOL     OW14072   9.905   8.080   3.777
37392SOL    HW114073   9.845   8.106   3.708
37392SOL    HW214074   9.850   8.029   3.838
37393SOL     OW14075  11.193   8.429   4.414
37393SOL    HW114076  11.169   8.341   4.442
37393SOL    HW214077  11.138   8.487   4.467
37394SOL     OW14078  11.250  11.355   9.080
37394SOL    HW114079  11.263  11.441   9.120
37394SOL    HW214080  11.177  11.317   9.128
37395SOL     OW14081   5.137   0.906   9.269
37395SOL    HW114082   5.123   0.998   9.245
37395SOL    HW214083   5.221   0.906   9.315
37396SOL     OW14084  14.161  10.122  13.956
37396SOL    HW114085  14.188  10.210  13.983
37396SOL    HW214086  14.214  10.103  13.879
37397SOL     OW14087   0.181  12.199  11.699
37397SOL    HW114088   0.121  12.199  11.625
37397SOL    HW214089   0.139  12.143  11.765
37398SOL     OW14090   7.703   2.720   3.141
37398SOL    HW114091   7.708   2.814   3.157
37398SOL    HW214092   7.610   2.700   3.140
37399SOL     OW14093  11.193   1.310  13.843
37399SOL    HW114094  11.270   1.260  13.868
37399SOL    HW214095  11.210   1.337  13.753
37400SOL     OW14096   3.720  13.629  10.587
37400SOL    HW114097   3.636  13.643  10.543
37400SOL    HW214098   3.771  13.576  10.526
37401SOL     OW14099   6.276  11.605   7.341
37401SOL    HW114100   6.188  11.642   7.345
37401SOL    HW214101   6.327  11.672   7.296
37402SOL     OW14102   8.337   7.414   6.164
37402SOL    HW114103   8.283   7.395   6.087
37402SOL    HW214104   8.309   7.350   6.229
37403SOL     OW14105   6.751  13.146  14.400
37403SOL    HW114106   6.687  13.094  14.351
37403SOL    HW214107   6.716  13.148  14.489
37404SOL     OW14108   1.705   6.411   5.648
37404SOL    HW114109   1.648   6.386   5.720
37404SOL    HW214110   1.791   6.423   5.688
37405SOL     OW14111  10.474   6.628   5.162
37405SOL    HW114112  10.482   6.629   5.066
37405SOL    HW214113  10.478   6.720   5.188
37406SOL     OW14114  13.591   5.481  11.624
37406SOL    HW114115  13.522   5.466  11.689
37406SOL    HW214116  13.657   5.531  11.670
37407SOL     OW14117   8.219   0.990   6.162
37407SOL    HW114118   8.282   0.945   6.104
37407SOL    HW214119   8.243   1.083   6.154
37408SOL     OW14120   2.327   8.176  11.662
37408SOL    HW114121   2.316   8.085  11.632
37408SOL    HW214122   2.329   8.170  11.757
37409SOL     OW14123   1.874  14.690   5.936
37409SOL    HW114124   1.968  14.696   5.923
37409SOL    HW214125   1.837  14.690   5.848
37410SOL     OW14126   3.050   1.707   1.876
37410SOL    HW114127   2.963   1.697   1.836
37410SOL    HW214128   3.032   1.720   1.969
37411SOL     OW14129   7.154  14.857   9.392
37411SOL    HW114130   7.104  14.785   9.355
37411SOL    HW214131   7.222  14.815   9.444
37412SOL     OW14132  11.343   6.620  12.414
37412SOL    HW114133  11.288   6.558  12.366
37412SOL    HW214134  11.417   6.569  12.444
37413SOL     OW14135  13.947  10.587   7.031
37413SOL    HW114136  14.037  10.555   7.020
37413SOL    HW214137  13.915  10.543   7.110
37414SOL     OW14138  11.878  10.766   1.593
37414SOL    HW114139  11.848  10.820   1.520
37414SOL    HW214140  11.801  10.716   1.620
37415SOL     OW14141   7.502   4.379   9.085
37415SOL    HW114142   7.441   4.346   9.020
37415SOL    HW214143   7.460   4.457   9.121
37416SOL     OW14144   9.984   3.790  13.895
37416SOL    HW114145   9.983   3.883  13.916
37416SOL    HW214146   9.898   3.757  13.924
37417SOL     OW14147  12.573   8.542   5.818
37417SOL    HW114148  12.584   8.576   5.907
37417SOL    HW214149  12.479   8.534   5.806
37418SOL     OW14150  13.352  10.787  14.721
37418SOL    HW114151  13.423  10.843  14.754
37418SOL    HW214152  13.381  10.760  14.634
37419SOL     OW14153   1.012   1.635  13.741
37419SOL    HW114154   0.944   1.591  13.791
37419SOL    HW214155   1.030   1.715  13.790
37420SOL     OW14156  13.115   9.558  11.667
37420SOL    HW114157  13.108   9.549  11.572
37420SOL    HW214158  13.174   9.632  11.680
37421SOL     OW14159   4.454   3.952  12.642
37421SOL    HW114160   4.482   3.921  12.556
37421SOL    HW214161   4.480   3.882  12.702
37422SOL     OW14162  13.399   8.894  14.361
37422SOL    HW114163  13.418   8.987  14.350
37422SOL    HW214164  13.370   8.865  14.275
37423SOL     OW14165   6.465  10.305  11.467
37423SOL    HW114166   6.508  10.272  11.546
37423SOL    HW214167   6.409  10.376  11.498
37424SOL     OW14168  12.523  14.745   0.576
37424SOL    HW114169  12.446  14.797   0.555
37424SOL    HW214170  12.488  14.664   0.613
37425SOL     OW14171   5.343   4.266  14.826
37425SOL    HW114172   5.305   4.348  14.856
37425SOL    HW214173   5.347   4.275  14.730
37426SOL     OW14174   1.961   0.532   3.817
37426SOL    HW114175   2.055   0.540   3.830
37426SOL    HW214176   1.933   0.620   3.790
37427SOL     OW14177   6.869   8.542  11.021
37427SOL    HW114178   6.785   8.547  11.067
37427SOL    HW214179   6.933   8.576  11.083
37428SOL     OW14180  12.498  13.868  14.205
37428SOL    HW114181  12.510  13.956  14.241
37428SOL    HW214182  12.505  13.809  14.280
37429SOL     OW14183  14.869   6.483   7.646
37429SOL    HW114184  14.817   6.470   7.567
37429SOL    HW214185   0.017   6.575   7.643
37430SOL     OW14186  14.113  14.644   0.712
37430SOL    HW114187  14.094  14.732   0.681
37430SOL    HW214188  14.208  14.640   0.716
37431SOL     OW14189   4.037   6.754  10.600
37431SOL    HW114190   4.055   6.675  10.651
37431SOL    HW214191   4.123   6.783  10.571
37432SOL     OW14192   7.353   7.328   7.858
37432SOL    HW114193   7.278   7.269   7.848
37432SOL    HW214194   7.402   7.292   7.932
37433SOL     OW14195  14.354   0.835   8.579
37433SOL    HW114196  14.300   0.914   8.574
37433SOL    HW214197  14.322   0.779   8.509
37434SOL     OW14198   8.057  10.253   1.345
37434SOL    HW114199   8.115  10.230   1.272
37434SOL    HW214200   7.997  10.180   1.353
37435SOL     OW14201   9.136   1.092  11.243
37435SOL    HW114202   9.123   1.150  11.317
37435SOL    HW214203   9.228   1.067  11.247
37436SOL     OW14204   1.446   4.681   2.305
37436SOL    HW114205   1.477   4.706   2.218
37436SOL    HW214206   1.386   4.607   2.289
37437SOL     OW14207   6.553   3.526   3.975
37437SOL    HW114208   6.645   3.544   3.953
37437SOL    HW214209   6.504   3.589   3.922
37438SOL     OW14210  12.051   3.902   7.327
37438SOL    HW114211  11.985   3.964   7.359
37438SOL    HW214212  12.043   3.905   7.232
37439SOL     OW14213   5.207   0.782   5.476
37439SOL    HW114214   5.277   0.840   5.507
37439SOL    HW214215   5.135   0.799   5.536
37440SOL     OW14216   0.536   0.466   0.001
37440SOL    HW114217   0.561   0.485  14.788
37440SOL    HW214218   0.546   0.371   0.009
37441SOL     OW14219   2.265  13.366  11.261
37441SOL    HW114220   2.295  13.301  11.325
37441SOL    HW214221   2.222  13.433  11.313
37442SOL     OW14222  14.805   8.401  13.675
37442SOL    HW114223  14.798   8.497  13.672
37442SOL    HW214224   0.008   8.381  13.629
37443SOL     OW14225   1.046   1.094   0.593
37443SOL    HW114226   1.015   1.104   0.683
37443SOL    HW214227   0.967   1.083   0.541
37444SOL     OW14228  14.248  10.074   4.155
37444SOL    HW114229  14.309  10.005   4.182
37444SOL    HW214230  14.190  10.031   4.091
37445SOL     OW14231  11.426  13.755  11.115
37445SOL    HW114232  11.447  13.816  11.185
37445SOL    HW214233  11.452  13.669  11.149
37446SOL     OW14234   6.839   8.947   0.616
37446SOL    HW114235   6.789   8.903   0.548
37446SOL    HW214236   6.906   8.884   0.643
37447SOL     OW14237   2.247   9.226   4.238
37447SOL    HW114238   2.328   9.204   4.191
37447SOL    HW214239   2.186   9.156   4.213
37448SOL     OW14240   9.797  14.842   0.053
37448SOL    HW114241   9.772  14.761   0.098
37448SOL    HW214242   9.720  14.867   0.004
37449SOL     OW14243   0.047   6.475   3.073
37449SOL    HW114244   0.027   6.460   3.166
37449SOL    HW214245   0.134   6.516   3.073
37450SOL     OW14246  10.993   2.572  10.469
37450SOL    HW114247  11.030   2.510  10.405
37450SOL    HW214248  11.029   2.544  10.553
37451SOL     OW14249  13.898   0.051   9.523
37451SOL    HW114250  13.924  14.840   9.498
37451SOL    HW214251  13.848   0.084   9.448
37452SOL     OW14252   1.271  14.684   5.047
37452SOL    HW114253   1.220  14.606   5.066
37452SOL    HW214254   1.362  14.655   5.049
37453SOL     OW14255  13.579  14.226  10.356
37453SOL    HW114256  13.662  14.179  10.359
37453SOL    HW214257  13.591  14.301  10.415
37454SOL     OW14258   6.328  11.399  12.366
37454SOL    HW114259   6.271  11.372  12.438
37454SOL    HW214260   6.272  11.390  12.288
37455SOL     OW14261   5.212   6.196  11.053
37455SOL    HW114262   5.251   6.283  11.052
37455SOL    HW214263   5.201   6.176  11.147
37456SOL     OW14264  10.555   9.680   8.707
37456SOL    HW114265  10.535   9.629   8.785
37456SOL    HW214266  10.506   9.762   8.718
37457SOL     OW14267  12.843  10.306   2.309
37457SOL    HW114268  12.861  10.344   2.395
37457SOL    HW214269  12.839  10.212   2.324
37458SOL     OW14270   6.409   0.984   8.641
37458SOL    HW114271   6.350   0.994   8.716
37458SOL    HW214272   6.446   1.072   8.629
37459SOL     OW14273   2.707  13.230   6.135
37459SOL    HW114274   2.695  13.317   6.097
37459SOL    HW214275   2.630  13.218   6.192
37460SOL     OW14276   8.459  14.804   2.811
37460SOL    HW114277   8.507  14.799   2.893
37460SOL    HW214278   8.387  14.864   2.828
37461SOL     OW14279   5.145   8.665  10.840
37461SOL    HW114280   5.210   8.711  10.787
37461SOL    HW214281   5.165   8.573  10.827
37462SOL     OW14282  12.727   7.035   6.994
37462SOL    HW114283  12.742   6.978   7.070
37462SOL    HW214284  12.795   7.008   6.932
37463SOL     OW14285   0.120  12.387   2.885
37463SOL    HW114286   0.045  12.356   2.835
37463SOL    HW214287   0.113  12.483   2.882
37464SOL     OW14288  12.908   6.145  12.073
37464SOL    HW114289  12.969   6.193  12.129
37464SOL    HW214290  12.883   6.208  12.006
37465SOL     OW14291   3.776   7.170  12.280
37465SOL    HW114292   3.689   7.202  12.307
37465SOL    HW214293   3.770   7.075  12.290
37466SOL     OW14294   1.836   8.652   7.839
37466SOL    HW114295   1.813   8.560   7.851
37466SOL    HW214296   1.782   8.699   7.903
37467SOL     OW14297   3.624   3.314   5.294
37467SOL    HW114298   3.544   3.303   5.345
37467SOL    HW214299   3.635   3.231   5.248
37468SOL     OW14300   3.518   9.532   9.490
37468SOL    HW114301   3.539   9.479   9.567
37468SOL    HW214302   3.428   9.561   9.504
37469SOL     OW14303   5.592  11.829  14.790
37469SOL    HW114304   5.613  11.818  14.697
37469SOL    HW214305   5.496  11.836  14.792
37470SOL     OW14306   4.096   8.527  13.174
37470SOL    HW114307   4.025   8.490  13.122
37470SOL    HW214308   4.055   8.549  13.258
37471SOL     OW14309   8.831  14.568   1.076
37471SOL    HW114310   8.894  14.597   1.142
37471SOL    HW214311   8.871  14.489   1.039
37472SOL     OW14312  11.466   4.137   3.600
37472SOL    HW114313  11.399   4.135   3.669
37472SOL    HW214314  11.448   4.219   3.553
37473SOL     OW14315  11.998  11.728  13.930
37473SOL    HW114316  11.973  11.820  13.920
37473SOL    HW214317  11.949  11.682  13.861
37474SOL     OW14318   4.054   0.782   1.947
37474SOL    HW114319   3.983   0.846   1.957
37474SOL    HW214320   4.124   0.830   1.904
37475SOL     OW14321  11.442   9.991   9.789
37475SOL    HW114322  11.518   9.958   9.835
37475SOL    HW214323  11.421   9.923   9.725
37476SOL     OW14324  11.658   1.642  14.516
37476SOL    HW114325  11.702   1.596  14.444
37476SOL    HW214326  11.713   1.719  14.532
37477SOL     OW14327  13.975   0.627  13.116
37477SOL    HW114328  14.018   0.550  13.154
37477SOL    HW214329  13.892   0.594  13.082
37478SOL     OW14330  12.741  13.063   4.239
37478SOL    HW114331  12.773  12.973   4.238
37478SOL    HW214332  12.661  13.060   4.187
37479SOL     OW14333   8.472  12.481   4.412
37479SOL    HW114334   8.412  12.537   4.363
37479SOL    HW214335   8.487  12.528   4.493
37480SOL     OW14336   4.772  12.595  13.601
37480SOL    HW114337   4.732  12.593  13.688
37480SOL    HW214338   4.748  12.511  13.562
37481SOL     OW14339   1.473  10.419  12.246
37481SOL    HW114340   1.390  10.378  12.270
37481SOL    HW214341   1.456  10.513  12.251
37482SOL     OW14342  10.547  13.663  12.020
37482SOL    HW114343  10.476  13.644  11.959
37482SOL    HW214344  10.576  13.578  12.051
37483SOL     OW14345   5.379  14.122  10.419
37483SOL    HW114346   5.415  14.113  10.331
37483SOL    HW214347   5.417  14.049  10.468
37484SOL     OW14348  14.428   6.310   9.254
37484SOL    HW114349  14.403   6.385   9.308
37484SOL    HW214350  14.430   6.236   9.315
37485SOL     OW14351   3.715   0.994   0.826
37485SOL    HW114352   3.638   1.004   0.770
37485SOL    HW214353   3.729   0.900   0.831
37486SOL     OW14354   2.323  10.639  10.943
37486SOL    HW114355   2.238  10.620  10.904
37486SOL    HW214356   2.332  10.577  11.015
37487SOL     OW14357  14.236   9.319   1.406
37487SOL    HW114358  14.264   9.262   1.478
37487SOL    HW214359  14.261   9.407   1.434
37488SOL     OW14360   9.024  14.607   0.386
37488SOL    HW114361   9.036  14.524   0.339
37488SOL    HW214362   8.942  14.595   0.434
37489SOL     OW14363   6.687   4.750  10.019
37489SOL    HW114364   6.607   4.799  10.037
37489SOL    HW214365   6.752   4.817   9.998
37490SOL     OW14366   1.217  11.547   0.322
37490SOL    HW114367   1.150  11.573   0.385
37490SOL    HW214368   1.292  11.604   0.342
37491SOL     OW14369  10.517   1.031   2.408
37491SOL    HW114370  10.469   1.114   2.409
37491SOL    HW214371  10.487   0.986   2.488
37492SOL     OW14372   6.360   8.625   9.329
37492SOL    HW114373   6.452   8.636   9.349
37492SOL    HW214374   6.357   8.617   9.234
37493SOL     OW14375   3.825   7.053  14.778
37493SOL    HW114376   3.786   6.966  14.784
37493SOL    HW214377   3.812   7.090  14.866
37494SOL     OW14378   6.745   5.978   9.121
37494SOL    HW114379   6.780   5.891   9.103
37494SOL    HW214380   6.712   5.973   9.211
37495SOL     OW14381   2.333   3.579   5.616
37495SOL    HW114382   2.401   3.515   5.637
37495SOL    HW214383   2.251   3.533   5.634
37496SOL     OW14384   9.268   9.381  10.400
37496SOL    HW114385   9.357   9.344  10.400
37496SOL    HW214386   9.246   9.392  10.308
37497SOL     OW14387  13.182   0.606   3.678
37497SOL    HW114388  13.160   0.582   3.587
37497SOL    HW214389  13.163   0.699   3.683
37498SOL     OW14390  12.755  14.521   4.182
37498SOL    HW114391  12.723  14.438   4.146
37498SOL    HW214392  12.685  14.584   4.164
37499SOL     OW14393   7.503   4.877  11.967
37499SOL    HW114394   7.419   4.923  11.958
37499SOL    HW214395   7.499   4.807  11.902
37500SOL     OW14396   2.432   4.038   2.550
37500SOL    HW114397   2.390   3.988   2.619
37500SOL    HW214398   2.497   3.979   2.513
37501SOL     OW14399   7.439   0.235  10.755
37501SOL    HW114400   7.385   0.156  10.754
37501SOL    HW214401   7.438   0.265  10.846
37502SOL     OW14402   6.517  13.054   5.645
37502SOL    HW114403   6.444  13.098   5.688
37502SOL    HW214404   6.573  13.025   5.717
37503SOL     OW14405   6.152   2.651   1.008
37503SOL    HW114406   6.136   2.608   0.924
37503SOL    HW214407   6.073   2.634   1.059
37504SOL     OW14408   9.827   5.764  13.411
37504SOL    HW114409   9.745   5.759  13.363
37504SOL    HW214410   9.807   5.820  13.486
37505SOL     OW14411   3.878  13.926   1.180
37505SOL    HW114412   3.914  14.010   1.208
37505SOL    HW214413   3.808  13.949   1.119
37506SOL     OW14414   1.060   1.088  14.393
37506SOL    HW114415   1.019   1.128  14.316
37506SOL    HW214416   1.027   1.140  14.467
37507SOL     OW14417   4.722   5.358   8.865
37507SOL    HW114418   4.801   5.311   8.840
37507SOL    HW214419   4.733   5.446   8.827
37508SOL     OW14420  12.134  14.162   7.364
37508SOL    HW114421  12.115  14.089   7.423
37508SOL    HW214422  12.229  14.160   7.353
37509SOL     OW14423   0.524   4.001   5.514
37509SOL    HW114424   0.498   3.930   5.455
37509SOL    HW214425   0.485   3.978   5.598
37510SOL     OW14426   6.159   5.381   3.541
37510SOL    HW114427   6.101   5.366   3.616
37510SOL    HW214428   6.112   5.344   3.467
37511SOL     OW14429  12.817   8.511   0.923
37511SOL    HW114430  12.794   8.432   0.875
37511SOL    HW214431  12.904   8.534   0.893
37512SOL     OW14432   5.602   8.330   5.065
37512SOL    HW114433   5.644   8.244   5.071
37512SOL    HW214434   5.512   8.315   5.095
37513SOL     OW14435  12.035   4.813  11.577
37513SOL    HW114436  11.944   4.821  11.605
37513SOL    HW214437  12.042   4.868  11.500
37514SOL     OW14438   1.806   4.749   4.364
37514SOL    HW114439   1.808   4.684   4.434
37514SOL    HW214440   1.726   4.730   4.316
37515SOL     OW14441   9.217   3.438  14.398
37515SOL    HW114442   9.126   3.409  14.384
37515SOL    HW214443   9.251   3.381  14.466
37516SOL     OW14444  14.509  12.653   7.947
37516SOL    HW114445  14.522  12.718   7.878
37516SOL    HW214446  14.595  12.643   7.988
37517SOL     OW14447   3.196   1.308   9.773
37517SOL    HW114448   3.181   1.253   9.849
37517SOL    HW214449   3.215   1.247   9.702
37518SOL     OW14450   4.338   6.069   2.869
37518SOL    HW114451   4.349   5.986   2.916
37518SOL    HW214452   4.327   6.043   2.777
37519SOL     OW14453   2.763   0.698  12.829
37519SOL    HW114454   2.770   0.758  12.754
37519SOL    HW214455   2.714   0.748  12.894
37520SOL     OW14456   8.443  12.501  11.966
37520SOL    HW114457   8.515  12.516  12.027
37520SOL    HW214458   8.377  12.455  12.017
37521SOL     OW14459  10.704  13.155   6.185
37521SOL    HW114460  10.772  13.186   6.245
37521SOL    HW214461  10.632  13.218   6.196
37522SOL     OW14462   3.078  11.267   7.137
37522SOL    HW114463   2.999  11.229   7.176
37522SOL    HW214464   3.045  11.329   7.071
37523SOL     OW14465  10.440   1.841   6.279
37523SOL    HW114466  10.368   1.884   6.233
37523SOL    HW214467  10.404   1.758   6.309
37524SOL     OW14468   8.686   4.839   7.664
37524SOL    HW114469   8.605   4.808   7.624
37524SOL    HW214470   8.725   4.898   7.599
37525SOL     OW14471   4.083   8.936   7.781
37525SOL    HW114472   4.124   9.016   7.814
37525SOL    HW214473   4.127   8.919   7.698
37526SOL     OW14474   8.852   9.365   1.275
37526SOL    HW114475   8.901   9.292   1.238
37526SOL    HW214476   8.894   9.443   1.239
37527SOL     OW14477  14.021   2.231   1.015
37527SOL    HW114478  13.944   2.272   0.976
37527SOL    HW214479  14.095   2.280   0.978
37528SOL     OW14480  13.114   1.909  12.532
37528SOL    HW114481  13.054   1.857  12.478
37528SOL    HW214482  13.152   1.846  12.593
37529SOL     OW14483  10.480   5.718   6.237
37529SOL    HW114484  10.473   5.637   6.187
37529SOL    HW214485  10.477   5.690   6.328
37530SOL     OW14486   6.078  10.856  12.925
37530SOL    HW114487   6.054  10.763  12.925
37530SOL    HW214488   6.158  10.860  12.977
37531SOL     OW14489   6.713   0.328  11.812
37531SOL    HW114490   6.779   0.271  11.852
37531SOL    HW214491   6.653   0.268  11.768
37532SOL     OW14492   2.267   3.947   4.728
37532SOL    HW114493   2.328   3.905   4.789
37532SOL    HW214494   2.278   3.898   4.647
37533SOL     OW14495   6.586   2.119   2.400
37533SOL    HW114496   6.634   2.152   2.475
37533SOL    HW214497   6.628   2.158   2.324
37534SOL     OW14498   9.873   1.207  14.110
37534SOL    HW114499   9.952   1.243  14.070
37534SOL    HW214500   9.898   1.119  14.138
37535SOL     OW14501   7.688   1.763  13.149
37535SOL    HW114502   7.595   1.783  13.136
37535SOL    HW214503   7.695   1.670  13.130
37536SOL     OW14504   5.882  10.541  13.301
37536SOL    HW114505   5.865  10.451  13.329
37536SOL    HW214506   5.955  10.570  13.356
37537SOL     OW14507   2.172   3.997  12.724
37537SOL    HW114508   2.264   3.976  12.714
37537SOL    HW214509   2.138   3.930  12.783
37538SOL     OW14510   8.207   4.650  10.433
37538SOL    HW114511   8.155   4.633  10.354
37538SOL    HW214512   8.189   4.576  10.491
37539SOL     OW14513  11.963   4.617   2.634
37539SOL    HW114514  11.987   4.574   2.552
37539SOL    HW214515  11.981   4.551   2.701
37540SOL     OW14516  13.122  13.380   2.578
37540SOL    HW114517  13.193  13.393   2.641
37540SOL    HW214518  13.133  13.290   2.548
37541SOL     OW14519   0.628  13.935   6.637
37541SOL    HW114520   0.699  13.881   6.672
37541SOL    HW214521   0.549  13.902   6.680
37542SOL     OW14522   7.833   8.508   0.943
37542SOL    HW114523   7.792   8.482   0.860
37542SOL    HW214524   7.761   8.509   1.006
37543SOL     OW14525  10.513   5.813  11.537
37543SOL    HW114526  10.576   5.796  11.467
37543SOL    HW214527  10.567   5.824  11.615
37544SOL     OW14528   0.401   7.257   2.904
37544SOL    HW114529   0.320   7.243   2.855
37544SOL    HW214530   0.411   7.352   2.908
37545SOL     OW14531  11.741   6.241  11.126
37545SOL    HW114532  11.813   6.177  11.124
37545SOL    HW214533  11.753   6.293  11.047
37546SOL     OW14534  10.185   6.687   0.917
37546SOL    HW114535  10.194   6.763   0.975
37546SOL    HW214536  10.205   6.612   0.972
37547SOL     OW14537   4.916  12.834  12.389
37547SOL    HW114538   4.893  12.759  12.443
37547SOL    HW214539   4.904  12.909  12.448
37548SOL     OW14540   8.774  10.146   5.059
37548SOL    HW114541   8.827  10.141   4.980
37548SOL    HW214542   8.838  10.159   5.129
37549SOL     OW14543   9.429  13.236   0.241
37549SOL    HW114544   9.404  13.314   0.192
37549SOL    HW214545   9.378  13.166   0.200
37550SOL     OW14546   3.670   6.251   3.453
37550SOL    HW114547   3.727   6.300   3.394
37550SOL    HW214548   3.581   6.275   3.427
37551SOL     OW14549   3.345   5.359   5.051
37551SOL    HW114550   3.296   5.380   5.131
37551SOL    HW214551   3.433   5.393   5.068
37552SOL     OW14552   8.756  11.348   3.439
37552SOL    HW114553   8.736  11.263   3.400
37552SOL    HW214554   8.812  11.328   3.513
37553SOL     OW14555   5.796   2.652  12.713
37553SOL    HW114556   5.765   2.565  12.685
37553SOL    HW214557   5.797   2.648  12.808
37554SOL     OW14558   2.718   3.253   3.464
37554SOL    HW114559   2.674   3.207   3.392
37554SOL    HW214560   2.778   3.188   3.500
37555SOL     OW14561   0.792   5.477   5.910
37555SOL    HW114562   0.848   5.516   5.978
37555SOL    HW214563   0.771   5.390   5.944
37556SOL     OW14564  10.287   4.235   5.770
37556SOL    HW114565  10.296   4.330   5.784
37556SOL    HW214566  10.206   4.226   5.719
37557SOL     OW14567   1.287   6.634   7.029
37557SOL    HW114568   1.329   6.685   6.960
37557SOL    HW214569   1.330   6.663   7.110
37558SOL     OW14570   7.646   3.927  12.693
37558SOL    HW114571   7.707   3.995  12.665
37558SOL    HW214572   7.701   3.851  12.710
37559SOL     OW14573   2.366   8.016  12.236
37559SOL    HW114574   2.397   8.088  12.291
37559SOL    HW214575   2.430   7.946  12.248
37560SOL     OW14576  10.394  12.116   4.979
37560SOL    HW114577  10.477  12.081   5.010
37560SOL    HW214578  10.328  12.072   5.033
37561SOL     OW14579   1.144  14.612   8.143
37561SOL    HW114580   1.063  14.657   8.165
37561SOL    HW214581   1.138  14.528   8.187
37562SOL     OW14582   4.631  11.444  14.501
37562SOL    HW114583   4.633  11.371  14.439
37562SOL    HW214584   4.626  11.403  14.587
37563SOL     OW14585   8.421   7.335   0.178
37563SOL    HW114586   8.423   7.261   0.117
37563SOL    HW214587   8.359   7.396   0.140
37564SOL     OW14588   5.156   1.110  13.320
37564SOL    HW114589   5.102   1.039  13.284
37564SOL    HW214590   5.243   1.093  13.284
37565SOL     OW14591  14.521   6.280  10.683
37565SOL    HW114592  14.615   6.283  10.666
37565SOL    HW214593  14.507   6.195  10.725
37566SOL     OW14594   6.252   0.919  10.079
37566SOL    HW114595   6.182   0.892  10.019
37566SOL    HW214596   6.302   0.984  10.029
37567SOL     OW14597   6.935   4.670   7.705
37567SOL    HW114598   6.909   4.744   7.649
37567SOL    HW214599   7.028   4.684   7.721
37568SOL     OW14600   9.993  14.398  11.313
37568SOL    HW114601  10.009  14.346  11.234
37568SOL    HW214602   9.912  14.446  11.295
37569SOL     OW14603   3.097  12.944  13.224
37569SOL    HW114604   3.086  12.852  13.247
37569SOL    HW214605   3.108  12.989  13.307
37570SOL     OW14606   1.551  10.290   5.817
37570SOL    HW114607   1.617  10.221   5.831
37570SOL    HW214608   1.596  10.370   5.843
37571SOL     OW14609  11.473   9.003   1.428
37571SOL    HW114610  11.427   9.086   1.437
37571SOL    HW214611  11.545   9.009   1.490
37572SOL     OW14612   5.184  12.896  14.460
37572SOL    HW114613   5.093  12.867  14.458
37572SOL    HW214614   5.206  12.912  14.368
37573SOL     OW14615   3.490   5.576   3.732
37573SOL    HW114616   3.489   5.496   3.679
37573SOL    HW214617   3.545   5.637   3.682
37574SOL     OW14618   7.401   7.354   3.838
37574SOL    HW114619   7.492   7.372   3.811
37574SOL    HW214620   7.407   7.273   3.889
37575SOL     OW14621   0.987  10.260   8.439
37575SOL    HW114622   1.022  10.276   8.352
37575SOL    HW214623   1.016  10.336   8.491
37576SOL     OW14624   7.044   6.392   7.781
37576SOL    HW114625   7.103   6.316   7.785
37576SOL    HW214626   7.027   6.413   7.873
37577SOL     OW14627   1.099   5.916  12.178
37577SOL    HW114628   1.045   5.837  12.184
37577SOL    HW214629   1.037   5.986  12.157
37578SOL     OW14630  11.947  13.002   6.320
37578SOL    HW114631  11.858  12.997   6.286
37578SOL    HW214632  11.974  12.910   6.330
37579SOL     OW14633  12.623  13.865   7.889
37579SOL    HW114634  12.539  13.821   7.906
37579SOL    HW214635  12.613  13.951   7.930
37580SOL     OW14636  14.715  11.019   0.686
37580SOL    HW114637  14.671  11.089   0.638
37580SOL    HW214638  14.790  10.996   0.631
37581SOL     OW14639   7.973  14.004   5.739
37581SOL    HW114640   7.987  14.015   5.833
37581SOL    HW214641   8.051  13.958   5.707
37582SOL     OW14642   4.590   6.078   6.694
37582SOL    HW114643   4.557   6.005   6.642
37582SOL    HW214644   4.528   6.086   6.766
37583SOL     OW14645   2.702   4.749   2.268
37583SOL    HW114646   2.647   4.809   2.218
37583SOL    HW214647   2.682   4.662   2.234
37584SOL     OW14648   8.087   1.168   2.207
37584SOL    HW114649   8.123   1.081   2.189
37584SOL    HW214650   8.157   1.229   2.184
37585SOL     OW14651   0.489   7.707  14.352
37585SOL    HW114652   0.416   7.754  14.390
37585SOL    HW214653   0.538   7.674  14.427
37586SOL     OW14654  11.058  12.108   2.236
37586SOL    HW114655  11.001  12.130   2.310
37586SOL    HW214656  11.145  12.134   2.265
37587SOL     OW14657   4.673   8.645   3.711
37587SOL    HW114658   4.578   8.649   3.719
37587SOL    HW214659   4.689   8.585   3.638
37588SOL     OW14660  11.608   1.876   0.614
37588SOL    HW114661  11.689   1.830   0.634
37588SOL    HW214662  11.618   1.961   0.656
37589SOL     OW14663  10.354   7.249   9.006
37589SOL    HW114664  10.432   7.204   8.972
37589SOL    HW214665  10.310   7.183   9.059
37590SOL     OW14666  14.023   1.808   5.331
37590SOL    HW114667  13.938   1.767   5.315
37590SOL    HW214668  14.042   1.789   5.423
37591SOL     OW14669  10.661   4.017  14.609
37591SOL    HW114670  10.566   4.014  14.620
37591SOL    HW214671  10.677   4.097  14.559
37592SOL     OW14672   5.524   7.769   2.431
37592SOL    HW114673   5.543   7.719   2.510
37592SOL    HW214674   5.431   7.792   2.440
37593SOL     OW14675   5.823   8.446   3.130
37593SOL    HW114676   5.809   8.388   3.054
37593SOL    HW214677   5.914   8.431   3.155
37594SOL     OW14678  13.069   6.612  13.272
37594SOL    HW114679  12.974   6.603  13.272
37594SOL    HW214680  13.089   6.647  13.185
37595SOL     OW14681  10.372   5.609   3.566
37595SOL    HW114682  10.364   5.517   3.588
37595SOL    HW214683  10.412   5.610   3.479
37596SOL     OW14684   9.102  13.771   7.449
37596SOL    HW114685   9.117  13.708   7.378
37596SOL    HW214686   9.064  13.848   7.406
37597SOL     OW14687   3.288   1.733  10.493
37597SOL    HW114688   3.330   1.654  10.527
37597SOL    HW214689   3.347   1.804  10.519
37598SOL     OW14690  13.840   0.477  11.061
37598SOL    HW114691  13.800   0.563  11.047
37598SOL    HW214692  13.929   0.496  11.090
37599SOL     OW14693   6.919   8.334   8.971
37599SOL    HW114694   6.891   8.367   9.057
37599SOL    HW214695   6.946   8.244   8.988
37600SOL     OW14696   8.631  11.386   6.118
37600SOL    HW114697   8.623  11.467   6.169
37600SOL    HW214698   8.541  11.362   6.097
37601SOL     OW14699   3.105  12.119  10.279
37601SOL    HW114700   3.140  12.106  10.191
37601SOL    HW214701   3.013  12.142  10.265
37602SOL     OW14702  10.700   2.578  14.220
37602SOL    HW114703  10.705   2.534  14.136
37602SOL    HW214704  10.626   2.638  14.212
37603SOL     OW14705   2.331   5.605  13.377
37603SOL    HW114706   2.321   5.650  13.461
37603SOL    HW214707   2.251   5.554  13.368
37604SOL     OW14708   3.826  11.050   7.304
37604SOL    HW114709   3.842  11.135   7.263
37604SOL    HW214710   3.730  11.043   7.307
37605SOL     OW14711  14.576  12.290  11.415
37605SOL    HW114712  14.540  12.367  11.459
37605SOL    HW214713  14.509  12.223  11.425
37606SOL     OW14714  11.450   2.536  10.851
37606SOL    HW114715  11.500   2.537  10.933
37606SOL    HW214716  11.512   2.568  10.786
37607SOL     OW14717  11.212   4.651   3.594
37607SOL    HW114718  11.182   4.741   3.606
37607SOL    HW214719  11.217   4.639   3.499
37608SOL     OW14720  12.232   0.964   8.048
37608SOL    HW114721  12.316   1.002   8.075
37608SOL    HW214722  12.169   1.000   8.110
37609SOL     OW14723   8.360   9.799  10.547
37609SOL    HW114724   8.390   9.888  10.570
37609SOL    HW214725   8.400   9.743  10.614
37610SOL     OW14726   4.522   1.488   5.428
37610SOL    HW114727   4.495   1.398   5.446
37610SOL    HW214728   4.608   1.496   5.469
37611SOL     OW14729  14.025   3.142   3.136
37611SOL    HW114730  14.041   3.225   3.091
37611SOL    HW214731  13.959   3.162   3.203
37612SOL     OW14732  11.569   3.713   6.433
37612SOL    HW114733  11.587   3.621   6.453
37612SOL    HW214734  11.490   3.733   6.483
37613SOL     OW14735   7.916  13.021  14.005
37613SOL    HW114736   7.948  12.933  13.984
37613SOL    HW214737   7.991  13.066  14.043
37614SOL     OW14738   8.909   3.276   9.805
37614SOL    HW114739   8.969   3.205   9.827
37614SOL    HW214740   8.826   3.233   9.785
37615SOL     OW14741   2.868  11.909   5.083
37615SOL    HW114742   2.934  11.869   5.026
37615SOL    HW214743   2.865  11.853   5.160
37616SOL     OW14744   3.992   8.183   8.655
37616SOL    HW114745   4.042   8.204   8.576
37616SOL    HW214746   4.034   8.104   8.689
37617SOL     OW14747   3.798   4.389   3.135
37617SOL    HW114748   3.851   4.361   3.061
37617SOL    HW214749   3.721   4.429   3.096
37618SOL     OW14750   5.159  14.446   0.847
37618SOL    HW114751   5.086  14.398   0.809
37618SOL    HW214752   5.237  14.411   0.804
37619SOL     OW14753   9.029   0.953  12.466
37619SOL    HW114754   9.006   0.948  12.558
37619SOL    HW214755   9.109   1.007  12.464
37620SOL     OW14756   7.704  11.295   6.865
37620SOL    HW114757   7.630  11.350   6.839
37620SOL    HW214758   7.708  11.304   6.961
37621SOL     OW14759   5.324  14.269   1.611
37621SOL    HW114760   5.414  14.303   1.608
37621SOL    HW214761   5.335  14.174   1.614
37622SOL     OW14762   1.899  10.132  14.283
37622SOL    HW114763   1.916  10.055  14.337
37622SOL    HW214764   1.907  10.101  14.193
37623SOL     OW14765   8.566  13.499   8.856
37623SOL    HW114766   8.480  13.532   8.881
37623SOL    HW214767   8.568  13.504   8.761
37624SOL     OW14768   7.971   1.261  14.299
37624SOL    HW114769   7.977   1.248  14.394
37624SOL    HW214770   7.967   1.356  14.289
37625SOL     OW14771  10.936  14.802   7.168
37625SOL    HW114772  10.895  14.720   7.143
37625SOL    HW214773  10.898  14.823   7.253
37626SOL     OW14774   1.350   8.676   6.946
37626SOL    HW114775   1.302   8.720   7.016
37626SOL    HW214776   1.376   8.592   6.983
37627SOL     OW14777  11.277  14.812  13.216
37627SOL    HW114778  11.260   0.016  13.170
37627SOL    HW214779  11.259  14.833  13.308
37628SOL     OW14780   6.513   3.521   3.403
37628SOL    HW114781   6.588   3.561   3.358
37628SOL    HW214782   6.443   3.522   3.338
37629SOL     OW14783   3.897   1.325   8.545
37629SOL    HW114784   3.804   1.341   8.562
37629SOL    HW214785   3.934   1.304   8.630
37630SOL     OW14786   6.333  12.481  12.697
37630SOL    HW114787   6.386  12.423  12.641
37630SOL    HW214788   6.247  12.440  12.699
37631SOL     OW14789  11.740   1.742   8.133
37631SOL    HW114790  11.664   1.755   8.190
37631SOL    HW214791  11.800   1.812   8.158
37632SOL     OW14792   4.273   3.442   5.834
37632SOL    HW114793   4.320   3.398   5.904
37632SOL    HW214794   4.212   3.500   5.880
37633SOL     OW14795   4.991   0.882   7.672
37633SOL    HW114796   4.985   0.888   7.767
37633SOL    HW214797   4.906   0.848   7.644
37634SOL     OW14798  12.934   9.259   4.035
37634SOL    HW114799  13.013   9.258   4.089
37634SOL    HW214800  12.862   9.259   4.098
37635SOL     OW14801   1.313   5.790  14.519
37635SOL    HW114802   1.254   5.727  14.478
37635SOL    HW214803   1.337   5.850  14.448
37636SOL     OW14804   9.572  10.012   3.653
37636SOL    HW114805   9.504  10.065   3.694
37636SOL    HW214806   9.642  10.074   3.632
37637SOL     OW14807   6.941   4.331  10.203
37637SOL    HW114808   6.873   4.304  10.265
37637SOL    HW214809   6.897   4.393  10.145
37638SOL     OW14810   3.944   5.682  10.555
37638SOL    HW114811   4.032   5.695  10.591
37638SOL    HW214812   3.921   5.592  10.579
37639SOL     OW14813  11.151  12.285   1.885
37639SOL    HW114814  11.161  12.370   1.841
37639SOL    HW214815  11.065  12.290   1.927
37640SOL     OW14816  12.568   7.002  14.670
37640SOL    HW114817  12.652   6.967  14.639
37640SOL    HW214818  12.563   6.976  14.761
37641SOL     OW14819   4.546   7.805   9.537
37641SOL    HW114820   4.592   7.819   9.619
37641SOL    HW214821   4.534   7.710   9.531
37642SOL     OW14822   3.913   9.353  11.750
37642SOL    HW114823   3.993   9.301  11.749
37642SOL    HW214824   3.887   9.355  11.842
37643SOL     OW14825   6.176   6.138  13.984
37643SOL    HW114826   6.249   6.165  14.040
37643SOL    HW214827   6.149   6.053  14.019
37644SOL     OW14828   4.931   3.775   5.429
37644SOL    HW114829   4.870   3.848   5.426
37644SOL    HW214830   5.002   3.799   5.369
37645SOL     OW14831   9.826   6.370   6.494
37645SOL    HW114832   9.745   6.318   6.487
37645SOL    HW214833   9.883   6.333   6.427
37646SOL     OW14834   1.449   6.154   6.574
37646SOL    HW114835   1.444   6.157   6.670
37646SOL    HW214836   1.431   6.063   6.552
37647SOL     OW14837  12.139   4.235  13.027
37647SOL    HW114838  12.154   4.147  13.061
37647SOL    HW214839  12.077   4.275  13.088
37648SOL     OW14840  14.463   8.876   3.077
37648SOL    HW114841  14.476   8.867   2.982
37648SOL    HW214842  14.549   8.902   3.111
37649SOL     OW14843  12.494   4.971   6.822
37649SOL    HW114844  12.570   4.915   6.839
37649SOL    HW214845  12.531   5.053   6.791
37650SOL     OW14846  13.131   9.165   0.198
37650SOL    HW114847  13.113   9.257   0.218
37650SOL    HW214848  13.227   9.159   0.197
37651SOL     OW14849  10.932   1.695  10.390
37651SOL    HW114850  10.910   1.640  10.465
37651SOL    HW214851  10.983   1.767  10.427
37652SOL     OW14852  10.282  11.191  10.271
37652SOL    HW114853  10.254  11.221  10.357
37652SOL    HW214854  10.377  11.190  10.275
37653SOL     OW14855   2.154   4.696  14.291
37653SOL    HW114856   2.237   4.688  14.244
37653SOL    HW214857   2.134   4.608  14.321
37654SOL     OW14858  10.738   1.467   9.976
37654SOL    HW114859  10.784   1.505  10.051
37654SOL    HW214860  10.660   1.523   9.965
37655SOL     OW14861  10.213   5.930  14.177
37655SOL    HW114862  10.255   5.909  14.261
37655SOL    HW214863  10.277   5.903  14.111
37656SOL     OW14864   0.236   5.183  12.625
37656SOL    HW114865   0.197   5.203  12.540
37656SOL    HW214866   0.216   5.259  12.680
37657SOL     OW14867   0.753  12.925   2.172
37657SOL    HW114868   0.801  12.853   2.132
37657SOL    HW214869   0.732  12.983   2.099
37658SOL     OW14870   6.101   1.382  13.650
37658SOL    HW114871   6.135   1.320  13.715
37658SOL    HW214872   6.119   1.468  13.687
37659SOL     OW14873   0.580   1.363  10.338
37659SOL    HW114874   0.583   1.298  10.268
37659SOL    HW214875   0.656   1.342  10.393
37660SOL     OW14876  11.685   7.227   8.037
37660SOL    HW114877  11.767   7.192   8.002
37660SOL    HW214878  11.656   7.162   8.100
37661SOL     OW14879   1.392   2.797   3.536
37661SOL    HW114880   1.306   2.758   3.553
37661SOL    HW214881   1.454   2.724   3.548
37662SOL     OW14882   0.702   7.288  11.140
37662SOL    HW114883   0.797   7.276  11.132
37662SOL    HW214884   0.666   7.204  11.112
37663SOL     OW14885  13.868  12.176   0.032
37663SOL    HW114886  13.827  12.172  14.823
37663SOL    HW214887  13.858  12.088   0.067
37664SOL     OW14888  14.743   2.706   6.059
37664SOL    HW114889  14.689   2.735   5.986
37664SOL    HW214890  14.755   2.612   6.044
37665SOL     OW14891   4.632   3.879   5.649
37665SOL    HW114892   4.650   3.792   5.614
37665SOL    HW214893   4.540   3.876   5.675
37666SOL     OW14894   8.588   9.647  14.632
37666SOL    HW114895   8.625   9.611  14.551
37666SOL    HW214896   8.505   9.600  14.642
37667SOL     OW14897   9.441  10.330  13.621
37667SOL    HW114898   9.460  10.241  13.590
37667SOL    HW214899   9.346  10.338  13.614
37668SOL     OW14900   7.170   4.143  12.321
37668SOL    HW114901   7.220   4.130  12.240
37668SOL    HW214902   7.080   4.153  12.292
37669SOL     OW14903   3.307   4.054   3.347
37669SOL    HW114904   3.341   4.036   3.435
37669SOL    HW214905   3.385   4.062   3.292
37670SOL     OW14906  13.044   8.889   0.737
37670SOL    HW114907  13.059   8.973   0.782
37670SOL    HW214908  13.057   8.910   0.644
37671SOL     OW14909   9.238  14.335  13.641
37671SOL    HW114910   9.237  14.239  13.646
37671SOL    HW214911   9.175  14.356  13.572
37672SOL     OW14912  10.337   3.887  14.865
37672SOL    HW114913  10.345   3.981   0.007
37672SOL    HW214914  10.244   3.875  14.845
37673SOL     OW14915  12.024  10.549  14.359
37673SOL    HW114916  11.955  10.603  14.319
37673SOL    HW214917  12.084  10.530  14.287
37674SOL     OW14918   4.535   3.947   3.990
37674SOL    HW114919   4.452   3.921   4.031
37674SOL    HW214920   4.570   4.015   4.047
37675SOL     OW14921   3.733  14.549   8.306
37675SOL    HW114922   3.791  14.594   8.244
37675SOL    HW214923   3.719  14.612   8.376
37676SOL     OW14924   7.902   9.717   2.438
37676SOL    HW114925   7.851   9.706   2.359
37676SOL    HW214926   7.983   9.759   2.409
37677SOL     OW14927   3.364   4.363   0.984
37677SOL    HW114928   3.347   4.377   0.891
37677SOL    HW214929   3.321   4.437   1.027
37678SOL     OW14930   0.854  14.724   3.817
37678SOL    HW114931   0.765  14.749   3.838
37678SOL    HW214932   0.849  14.689   3.728
37679SOL     OW14933   4.515  11.088   7.568
37679SOL    HW114934   4.546  11.172   7.602
37679SOL    HW214935   4.576  11.024   7.603
37680SOL     OW14936   6.158  11.079   5.403
37680SOL    HW114937   6.235  11.123   5.437
37680SOL    HW214938   6.190  10.993   5.376
37681SOL     OW14939  10.086   9.129  12.374
37681SOL    HW114940  10.002   9.130  12.327
37681SOL    HW214941  10.143   9.075  12.319
37682SOL     OW14942  13.543  13.665   7.021
37682SOL    HW114943  13.541  13.576   6.986
37682SOL    HW214944  13.600  13.713   6.961
37683SOL     OW14945  10.969   1.652  13.943
37683SOL    HW114946  10.968   1.641  14.038
37683SOL    HW214947  10.894   1.709  13.924
37684SOL     OW14948   6.660   4.552   9.201
37684SOL    HW114949   6.689   4.527   9.288
37684SOL    HW214950   6.738   4.592   9.161
37685SOL     OW14951  11.114  11.700  13.277
37685SOL    HW114952  11.045  11.682  13.213
37685SOL    HW214953  11.195  11.701  13.225
37686SOL     OW14954   5.992  14.405   4.679
37686SOL    HW114955   6.082  14.409   4.713
37686SOL    HW214956   5.980  14.490   4.637
37687SOL     OW14957  14.488  13.221   9.260
37687SOL    HW114958  14.469  13.246   9.169
37687SOL    HW214959  14.407  13.239   9.307
37688SOL     OW14960   5.296   7.284   8.533
37688SOL    HW114961   5.384   7.266   8.564
37688SOL    HW214962   5.276   7.371   8.569
37689SOL     OW14963   6.934   1.259   9.418
37689SOL    HW114964   6.921   1.333   9.477
37689SOL    HW214965   6.887   1.283   9.339
37690SOL     OW14966   3.483   4.384   1.214
37690SOL    HW114967   3.466   4.367   1.122
37690SOL    HW214968   3.487   4.479   1.221
37691SOL     OW14969  11.438   1.291   6.713
37691SOL    HW114970  11.498   1.355   6.675
37691SOL    HW214971  11.490   1.245   6.778
37692SOL     OW14972   9.910   7.886   8.805
37692SOL    HW114973   9.861   7.807   8.786
37692SOL    HW214974   9.867   7.954   8.754
37693SOL     OW14975  10.786  14.562  10.983
37693SOL    HW114976  10.808  14.500  10.914
37693SOL    HW214977  10.805  14.516  11.064
37694SOL     OW14978   7.311  13.391   7.625
37694SOL    HW114979   7.375  13.341   7.574
37694SOL    HW214980   7.273  13.452   7.562
37695SOL     OW14981   7.322   5.564  11.893
37695SOL    HW114982   7.344   5.491  11.950
37695SOL    HW214983   7.405   5.612  11.883
37696SOL     OW14984   4.258   1.987   3.861
37696SOL    HW114985   4.165   1.971   3.875
37696SOL    HW214986   4.302   1.915   3.906
37697SOL     OW14987   6.285  10.473  10.442
37697SOL    HW114988   6.313  10.559  10.474
37697SOL    HW214989   6.208  10.451  10.495
37698SOL     OW14990   7.337   7.917   9.021
37698SOL    HW114991   7.312   7.963   8.941
37698SOL    HW214992   7.355   7.988   9.084
37699SOL     OW14993  13.267   6.481   1.946
37699SOL    HW114994  13.196   6.535   1.982
37699SOL    HW214995  13.346   6.511   1.991
37700SOL     OW14996  12.486   3.976   7.202
37700SOL    HW114997  12.412   3.977   7.263
37700SOL    HW214998  12.560   3.944   7.255
37701SOL     OW14999  10.493   9.491   3.471
37701SOL    HW115000  10.406   9.451   3.474
37701SOL    HW215001  10.532   9.457   3.390
37702SOL     OW15002   3.374   0.156   9.290
37702SOL    HW115003   3.445   0.201   9.336
37702SOL    HW215004   3.295   0.198   9.322
37703SOL     OW15005   6.439   3.795   3.571
37703SOL    HW115006   6.377   3.728   3.544
37703SOL    HW215007   6.396   3.878   3.550
37704SOL     OW15008  14.504   0.666   9.090
37704SOL    HW115009  14.429   0.712   9.053
37704SOL    HW215010  14.510   0.698   9.180
37705SOL     OW15011  14.139  11.356  12.172
37705SOL    HW115012  14.057  11.329  12.215
37705SOL    HW215013  14.205  11.297  12.209
37706SOL     OW15014   9.001  13.602   6.453
37706SOL    HW115015   9.020  13.686   6.495
37706SOL    HW215016   8.922  13.618   6.401
37707SOL     OW15017   1.771   3.585   8.866
37707SOL    HW115018   1.834   3.513   8.861
37707SOL    HW215019   1.759   3.600   8.960
37708SOL     OW15020  13.358   8.065   2.747
37708SOL    HW115021  13.315   8.079   2.831
37708SOL    HW215022  13.367   7.970   2.740
37709SOL     OW15023   0.022  11.203   8.283
37709SOL    HW115024   0.096  11.200   8.343
37709SOL    HW215025   0.036  11.129   8.224
37710SOL     OW15026  11.801  12.113   7.056
37710SOL    HW115027  11.880  12.154   7.021
37710SOL    HW215028  11.809  12.021   7.031
37711SOL     OW15029   0.099  10.613  10.922
37711SOL    HW115030   0.168  10.677  10.939
37711SOL    HW215031   0.022  10.665  10.901
37712SOL     OW15032  11.326  10.642  11.215
37712SOL    HW115033  11.239  10.636  11.254
37712SOL    HW215034  11.367  10.717  11.257
37713SOL     OW15035   3.649   5.149   1.745
37713SOL    HW115036   3.696   5.147   1.662
37713SOL    HW215037   3.716   5.129   1.811
37714SOL     OW15038  14.714  10.611   1.719
37714SOL    HW115039  14.716  10.530   1.769
37714SOL    HW215040  14.799  10.651   1.735
37715SOL     OW15041   5.241   1.628   6.551
37715SOL    HW115042   5.300   1.623   6.475
37715SOL    HW215043   5.209   1.539   6.562
37716SOL     OW15044   1.724  10.928   3.139
37716SOL    HW115045   1.744  10.900   3.050
37716SOL    HW215046   1.809  10.955   3.175
37717SOL     OW15047   7.007   8.906   9.397
37717SOL    HW115048   6.946   8.840   9.430
37717SOL    HW215049   7.047   8.864   9.321
37718SOL     OW15050  10.931   6.151  10.026
37718SOL    HW115051  10.884   6.076  10.062
37718SOL    HW215052  10.897   6.227  10.074
37719SOL     OW15053   9.631   0.687   9.423
37719SOL    HW115054   9.666   0.665   9.337
37719SOL    HW215055   9.551   0.737   9.405
37720SOL     OW15056   6.607   8.290  14.816
37720SOL    HW115057   6.607   8.364  14.755
37720SOL    HW215058   6.686   8.240  14.793
37721SOL     OW15059  11.543   9.798  14.808
37721SOL    HW115060  11.507   9.716  14.775
37721SOL    HW215061  11.574   9.777   0.019
37722SOL     OW15062  10.417   1.406  10.191
37722SOL    HW115063  10.369   1.402  10.274
37722SOL    HW215064  10.444   1.316  10.175
37723SOL     OW15065   6.161  11.333  11.511
37723SOL    HW115066   6.210  11.400  11.462
37723SOL    HW215067   6.202  11.333  11.597
37724SOL     OW15068  13.986  13.089   6.060
37724SOL    HW115069  13.939  13.030   6.001
37724SOL    HW215070  13.918  13.146   6.095
37725SOL     OW15071   8.448   7.095   1.088
37725SOL    HW115072   8.511   7.069   1.155
37725SOL    HW215073   8.481   7.055   1.008
37726SOL     OW15074   9.986  13.969  14.252
37726SOL    HW115075  10.041  13.985  14.329
37726SOL    HW215076   9.978  14.054  14.210
37727SOL     OW15077  11.235   9.527  11.155
37727SOL    HW115078  11.201   9.576  11.081
37727SOL    HW215079  11.166   9.534  11.222
37728SOL     OW15080   2.827  14.722  10.916
37728SOL    HW115081   2.806  14.644  10.966
37728SOL    HW215082   2.862  14.783  10.981
37729SOL     OW15083   2.850   5.814  11.765
37729SOL    HW115084   2.945   5.810  11.773
37729SOL    HW215085   2.833   5.901  11.728
37730SOL     OW15086   6.405   2.839   9.479
37730SOL    HW115087   6.352   2.792   9.542
37730SOL    HW215088   6.413   2.779   9.404
37731SOL     OW15089  11.926   0.895   1.517
37731SOL    HW115090  11.949   0.936   1.434
37731SOL    HW215091  11.833   0.875   1.509
37732SOL     OW15092   9.016   1.438   0.213
37732SOL    HW115093   9.022   1.522   0.260
37732SOL    HW215094   8.935   1.399   0.245
37733SOL     OW15095   0.192   3.491  10.555
37733SOL    HW115096   0.116   3.513  10.609
37733SOL    HW215097   0.209   3.570  10.504
37734SOL     OW15098  11.494  13.379  14.253
37734SOL    HW115099  11.415  13.325  14.252
37734SOL    HW215100  11.566  13.317  14.243
37735SOL     OW15101  10.637   9.293  10.741
37735SOL    HW115102  10.705   9.230  10.716
37735SOL    HW215103  10.560   9.266  10.690
37736SOL     OW15104   7.174  12.716  11.126
37736SOL    HW115105   7.251  12.770  11.144
37736SOL    HW215106   7.208  12.626  11.126
37737SOL     OW15107  14.783  12.223  12.519
37737SOL    HW115108  14.813  12.136  12.494
37737SOL    HW215109  14.708  12.241  12.463
37738SOL     OW15110   3.579  14.204  13.737
37738SOL    HW115111   3.606  14.294  13.720
37738SOL    HW215112   3.484  14.208  13.746
37739SOL     OW15113  11.358  11.348   5.520
37739SOL    HW115114  11.281  11.369   5.573
37739SOL    HW215115  11.334  11.372   5.431
37740SOL     OW15116   7.306   2.962  10.444
37740SOL    HW115117   7.359   3.037  10.474
37740SOL    HW215118   7.278   2.986  10.356
37741SOL     OW15119   0.055   9.690  14.081
37741SOL    HW115120   0.001   9.610  14.074
37741SOL    HW215121   0.138   9.659  14.117
37742SOL     OW15122  11.714   6.948   0.826
37742SOL    HW115123  11.707   6.913   0.737
37742SOL    HW215124  11.803   6.983   0.832
37743SOL     OW15125   0.539   8.683   3.129
37743SOL    HW115126   0.468   8.644   3.079
37743SOL    HW215127   0.561   8.763   3.081
37744SOL     OW15128   5.906   2.533  11.575
37744SOL    HW115129   5.891   2.449  11.619
37744SOL    HW215130   5.886   2.599  11.642
37745SOL     OW15131   6.184  13.682   3.819
37745SOL    HW115132   6.219  13.670   3.908
37745SOL    HW215133   6.122  13.754   3.828
37746SOL     OW15134   8.263   3.970   8.380
37746SOL    HW115135   8.302   4.047   8.421
37746SOL    HW215136   8.177   4.000   8.351
37747SOL     OW15137   0.622   9.611   2.081
37747SOL    HW115138   0.714   9.583   2.075
37747SOL    HW215139   0.576   9.553   2.020
37748SOL     OW15140   7.569  12.884   6.854
37748SOL    HW115141   7.599  12.794   6.842
37748SOL    HW215142   7.493  12.877   6.913
37749SOL     OW15143  11.469   7.807   2.199
37749SOL    HW115144  11.446   7.721   2.163
37749SOL    HW215145  11.484   7.791   2.292
37750SOL     OW15146   9.352   8.169   5.682
37750SOL    HW115147   9.285   8.107   5.653
37750SOL    HW215148   9.370   8.145   5.773
37751SOL     OW15149  14.499   7.337   2.671
37751SOL    HW115150  14.470   7.413   2.723
37751SOL    HW215151  14.561   7.291   2.728
37752SOL     OW15152  13.479   3.480   1.327
37752SOL    HW115153  13.533   3.414   1.371
37752SOL    HW215154  13.436   3.527   1.398
37753SOL     OW15155  14.502  12.435   4.653
37753SOL    HW115156  14.568  12.441   4.584
37753SOL    HW215157  14.430  12.489   4.621
37754SOL     OW15158   6.436  13.825   3.108
37754SOL    HW115159   6.498  13.882   3.154
37754SOL    HW215160   6.351  13.867   3.121
37755SOL     OW15161   1.795   6.838   0.620
37755SOL    HW115162   1.873   6.783   0.621
37755SOL    HW215163   1.828   6.927   0.610
37756SOL     OW15164   1.489   8.092  14.386
37756SOL    HW115165   1.519   8.094  14.477
37756SOL    HW215166   1.414   8.032  14.388
37757SOL     OW15167  13.284   8.467   3.702
37757SOL    HW115168  13.338   8.521   3.760
37757SOL    HW215169  13.296   8.506   3.615
37758SOL     OW15170   6.164   2.211  12.096
37758SOL    HW115171   6.154   2.306  12.092
37758SOL    HW215172   6.245   2.194  12.047
37759SOL     OW15173   8.902   1.319   1.778
37759SOL    HW115174   8.963   1.393   1.778
37759SOL    HW215175   8.856   1.327   1.862
37760SOL     OW15176   7.836   7.804   2.123
37760SOL    HW115177   7.757   7.795   2.177
37760SOL    HW215178   7.833   7.729   2.064
37761SOL     OW15179   3.785   9.226   4.696
37761SOL    HW115180   3.700   9.245   4.735
37761SOL    HW215181   3.849   9.261   4.759
37762SOL     OW15182   4.624  12.434  11.212
37762SOL    HW115183   4.645  12.441  11.305
37762SOL    HW215184   4.707  12.455  11.168
37763SOL     OW15185  14.558  12.598   5.663
37763SOL    HW115186  14.511  12.566   5.740
37763SOL    HW215187  14.574  12.691   5.682
37764SOL     OW15188  12.552   1.868   9.821
37764SOL    HW115189  12.576   1.931   9.753
37764SOL    HW215190  12.483   1.912   9.871
37765SOL     OW15191   7.082  13.465   4.864
37765SOL    HW115192   7.104  13.372   4.871
37765SOL    HW215193   7.154  13.510   4.906
37766SOL     OW15194   1.304   7.455   7.183
37766SOL    HW115195   1.272   7.485   7.268
37766SOL    HW215196   1.260   7.512   7.120
37767SOL     OW15197   6.169   8.915  11.829
37767SOL    HW115198   6.147   8.824  11.812
37767SOL    HW215199   6.132   8.934  11.915
37768SOL     OW15200  14.467   6.996   5.930
37768SOL    HW115201  14.531   7.055   5.970
37768SOL    HW215202  14.494   6.909   5.957
37769SOL     OW15203   8.530   2.607  10.053
37769SOL    HW115204   8.496   2.528  10.011
37769SOL    HW215205   8.516   2.676   9.988
37770SOL     OW15206   7.729  14.288  11.274
37770SOL    HW115207   7.761  14.299  11.364
37770SOL    HW215208   7.665  14.358  11.263
37771SOL     OW15209  14.695  11.768   7.191
37771SOL    HW115210  14.685  11.704   7.121
37771SOL    HW215211  14.779  11.746   7.233
37772SOL     OW15212   3.132   5.539   9.416
37772SOL    HW115213   3.144   5.448   9.441
37772SOL    HW215214   3.057   5.539   9.356
37773SOL     OW15215   1.976   8.977   7.665
37773SOL    HW115216   1.944   8.976   7.575
37773SOL    HW215217   1.934   9.052   7.706
37774SOL     OW15218   7.267  11.810  13.788
37774SOL    HW115219   7.184  11.796  13.833
37774SOL    HW215220   7.248  11.876  13.722
37775SOL     OW15221  14.046   4.856  10.720
37775SOL    HW115222  14.063   4.869  10.813
37775SOL    HW215223  14.031   4.762  10.712
37776SOL     OW15224  13.123   3.943  12.755
37776SOL    HW115225  13.029   3.951  12.770
37776SOL    HW215226  13.131   3.901  12.669
37777SOL     OW15227   9.472   8.810   5.969
37777SOL    HW115228   9.457   8.905   5.974
37777SOL    HW215229   9.409   8.773   6.032
37778SOL     OW15230   0.929   9.450  11.732
37778SOL    HW115231   0.866   9.388  11.767
37778SOL    HW215232   0.919   9.443  11.637
37779SOL     OW15233   9.645   9.301   7.840
37779SOL    HW115234   9.556   9.305   7.877
37779SOL    HW215235   9.643   9.224   7.783
37780SOL     OW15236   3.471  11.478   3.698
37780SOL    HW115237   3.403  11.544   3.702
37780SOL    HW215238   3.430  11.399   3.734
37781SOL     OW15239  12.327  13.978   5.135
37781SOL    HW115240  12.333  13.903   5.075
37781SOL    HW215241  12.363  13.945   5.218
37782SOL     OW15242  11.882   4.466   4.915
37782SOL    HW115243  11.862   4.450   4.823
37782SOL    HW215244  11.976   4.481   4.917
37783SOL     OW15245   8.856   9.446   1.568
37783SOL    HW115246   8.897   9.410   1.490
37783SOL    HW215247   8.830   9.369   1.619
37784SOL     OW15248   1.857  14.856  13.694
37784SOL    HW115249   1.827  14.797  13.763
37784SOL    HW215250   1.939  14.818  13.663
37785SOL     OW15251   4.903  12.506   2.016
37785SOL    HW115252   4.850  12.542   2.087
37785SOL    HW215253   4.871  12.417   2.005
37786SOL     OW15254   0.809   6.538   7.922
37786SOL    HW115255   0.894   6.499   7.903
37786SOL    HW215256   0.757   6.466   7.960
37787SOL     OW15257   3.485  12.089  10.203
37787SOL    HW115258   3.543  12.143  10.256
37787SOL    HW215259   3.435  12.037  10.267
37788SOL     OW15260   4.063   6.096   5.001
37788SOL    HW115261   4.156   6.081   5.021
37788SOL    HW215262   4.056   6.191   4.991
37789SOL     OW15263   9.031   9.317  12.403
37789SOL    HW115264   9.027   9.309  12.308
37789SOL    HW215265   8.943   9.296  12.433
37790SOL     OW15266   9.961   7.737   6.899
37790SOL    HW115267   9.921   7.819   6.929
37790SOL    HW215268  10.037   7.725   6.956
37791SOL     OW15269   5.736  13.128  10.879
37791SOL    HW115270   5.731  13.220  10.905
37791SOL    HW215271   5.648  13.094  10.895
37792SOL     OW15272   2.363   2.076   5.974
37792SOL    HW115273   2.280   2.037   5.947
37792SOL    HW215274   2.370   2.156   5.921
37793SOL     OW15275   0.975   1.699   9.559
37793SOL    HW115276   1.030   1.646   9.617
37793SOL    HW215277   0.886   1.667   9.574
37794SOL     OW15278  11.783   3.688   7.796
37794SOL    HW115279  11.854   3.647   7.844
37794SOL    HW215280  11.712   3.624   7.799
37795SOL     OW15281  10.068   9.528   4.940
37795SOL    HW115282  10.093   9.602   4.996
37795SOL    HW215283  10.013   9.473   4.996
37796SOL     OW15284   7.534   8.184   9.706
37796SOL    HW115285   7.522   8.120   9.776
37796SOL    HW215286   7.623   8.168   9.673
37797SOL     OW15287  13.702   5.061   6.751
37797SOL    HW115288  13.720   5.038   6.660
37797SOL    HW215289  13.788   5.059   6.794
37798SOL     OW15290   5.550   0.357   3.629
37798SOL    HW115291   5.633   0.319   3.600
37798SOL    HW215292   5.569   0.392   3.716
37799SOL     OW15293   3.662   5.917  12.107
37799SOL    HW115294   3.721   5.843  12.121
37799SOL    HW215295   3.580   5.877  12.079
37800SOL     OW15296  11.157  14.710   6.200
37800SOL    HW115297  11.144  14.738   6.109
37800SOL    HW215298  11.114  14.625   6.206
37801SOL     OW15299  13.329  10.256   5.578
37801SOL    HW115300  13.277  10.332   5.553
37801SOL    HW215301  13.277  10.181   5.550
37802SOL     OW15302   2.432  14.423   3.152
37802SOL    HW115303   2.365  14.443   3.218
37802SOL    HW215304   2.498  14.372   3.199
37803SOL     OW15305   0.180  14.682  12.485
37803SOL    HW115306   0.157  14.665  12.394
37803SOL    HW215307   0.274  14.665  12.490
37804SOL     OW15308   2.305   6.259  10.707
37804SOL    HW115309   2.274   6.173  10.735
37804SOL    HW215310   2.235   6.292  10.651
37805SOL     OW15311   7.380   3.816   7.365
37805SOL    HW115312   7.343   3.831   7.452
37805SOL    HW215313   7.326   3.868   7.306
37806SOL     OW15314  13.653  11.673   7.795
37806SOL    HW115315  13.623  11.627   7.873
37806SOL    HW215316  13.576  11.676   7.738
37807SOL     OW15317   3.494   2.939  10.062
37807SOL    HW115318   3.451   2.968  10.142
37807SOL    HW215319   3.505   3.019  10.011
37808SOL     OW15320   6.014   6.455  13.518
37808SOL    HW115321   6.091   6.401  13.500
37808SOL    HW215322   5.945   6.392  13.541
37809SOL     OW15323   0.979  13.963  14.799
37809SOL    HW115324   1.018  13.901  14.737
37809SOL    HW215325   0.903  13.998  14.753
37810SOL     OW15326   8.365   9.300  13.275
37810SOL    HW115327   8.416   9.355  13.215
37810SOL    HW215328   8.417   9.297  13.355
37811SOL     OW15329   0.956  13.749   3.940
37811SOL    HW115330   0.997  13.692   3.875
37811SOL    HW215331   0.957  13.836   3.899
37812SOL     OW15332   4.143  11.039   6.278
37812SOL    HW115333   4.132  11.125   6.318
37812SOL    HW215334   4.120  10.978   6.348
37813SOL     OW15335  11.059   7.207   4.563
37813SOL    HW115336  11.041   7.127   4.514
37813SOL    HW215337  11.037   7.185   4.654
37814SOL     OW15338   0.698   4.141   2.915
37814SOL    HW115339   0.648   4.090   2.979
37814SOL    HW215340   0.648   4.130   2.833
37815SOL     OW15341   1.537   0.090  12.126
37815SOL    HW115342   1.474   0.054  12.064
37815SOL    HW215343   1.513   0.182  12.135
37816SOL     OW15344   7.044   4.740  10.523
37816SOL    HW115345   6.952   4.729  10.497
37816SOL    HW215346   7.049   4.704  10.611
37817SOL     OW15347  10.366   2.619   3.607
37817SOL    HW115348  10.305   2.602   3.679
37817SOL    HW215349  10.312   2.620   3.529
37818SOL     OW15350   6.060   8.753  13.351
37818SOL    HW115351   6.143   8.717  13.320
37818SOL    HW215352   6.070   8.848  13.339
37819SOL     OW15353   7.294   7.604   4.447
37819SOL    HW115354   7.270   7.512   4.461
37819SOL    HW215355   7.276   7.620   4.355
37820SOL     OW15356   1.812  11.466  10.414
37820SOL    HW115357   1.726  11.507  10.408
37820SOL    HW215358   1.820  11.441  10.506
37821SOL     OW15359   3.332   6.191  13.681
37821SOL    HW115360   3.283   6.274  13.679
37821SOL    HW215361   3.422   6.216  13.660
37822SOL     OW15362   6.254  11.454   1.850
37822SOL    HW115363   6.167  11.450   1.811
37822SOL    HW215364   6.291  11.367   1.833
37823SOL     OW15365   1.563  12.800   9.675
37823SOL    HW115366   1.510  12.766   9.746
37823SOL    HW215367   1.598  12.883   9.708
37824SOL     OW15368  12.900  13.307   4.508
37824SOL    HW115369  12.964  13.353   4.563
37824SOL    HW215370  12.915  13.214   4.526
37825SOL     OW15371   2.383   1.968  13.997
37825SOL    HW115372   2.361   1.987  13.906
37825SOL    HW215373   2.417   2.050  14.032
37826SOL     OW15374  10.104   4.971   7.301
37826SOL    HW115375  10.032   5.020   7.343
37826SOL    HW215376  10.067   4.942   7.217
37827SOL     OW15377  11.608  11.967   3.574
37827SOL    HW115378  11.646  11.992   3.658
37827SOL    HW215379  11.569  11.881   3.590
37828SOL     OW15380   2.834  11.789   7.931
37828SOL    HW115381   2.912  11.735   7.949
37828SOL    HW215382   2.869  11.874   7.906
37829SOL     OW15383   4.823   5.310   1.204
37829SOL    HW115384   4.807   5.283   1.295
37829SOL    HW215385   4.916   5.293   1.190
37830SOL     OW15386   5.217   6.297  12.872
37830SOL    HW115387   5.245   6.365  12.933
37830SOL    HW215388   5.268   6.220  12.899
37831SOL     OW15389  11.159  11.655   9.439
37831SOL    HW115390  11.171  11.746   9.466
37831SOL    HW215391  11.068  11.635   9.462
37832SOL     OW15392   0.979   7.989   2.098
37832SOL    HW115393   0.924   8.046   2.152
37832SOL    HW215394   0.943   7.902   2.113
37833SOL     OW15395   1.473   6.739   7.226
37833SOL    HW115396   1.415   6.815   7.224
37833SOL    HW215397   1.536   6.756   7.157
37834SOL     OW15398   4.066   8.724  10.281
37834SOL    HW115399   3.998   8.693  10.222
37834SOL    HW215400   4.148   8.692  10.242
37835SOL     OW15401   1.700   5.926   6.721
37835SOL    HW115402   1.793   5.915   6.739
37835SOL    HW215403   1.696   5.940   6.627
37836SOL     OW15404   8.977  11.549   0.536
37836SOL    HW115405   8.962  11.601   0.615
37836SOL    HW215406   8.910  11.481   0.538
37837SOL     OW15407  12.328   1.426   4.255
37837SOL    HW115408  12.255   1.412   4.194
37837SOL    HW215409  12.390   1.356   4.235
37838SOL     OW15410  12.092   6.563   6.814
37838SOL    HW115411  12.187   6.562   6.829
37838SOL    HW215412  12.068   6.656   6.817
37839SOL     OW15413   8.964  10.529   8.763
37839SOL    HW115414   9.059  10.531   8.749
37839SOL    HW215415   8.928  10.496   8.681
37840SOL     OW15416   8.760   7.309   5.302
37840SOL    HW115417   8.703   7.290   5.228
37840SOL    HW215418   8.835   7.251   5.290
37841SOL     OW15419   2.047  12.130  13.417
37841SOL    HW115420   2.015  12.220  13.423
37841SOL    HW215421   2.141  12.137  13.436
37842SOL     OW15422   6.866   4.363   9.777
37842SOL    HW115423   6.939   4.415   9.809
37842SOL    HW215424   6.788   4.408   9.809
37843SOL     OW15425   6.196   8.753   7.621
37843SOL    HW115426   6.275   8.724   7.667
37843SOL    HW215427   6.184   8.690   7.551
37844SOL     OW15428   8.678   5.919   2.025
37844SOL    HW115429   8.747   5.934   2.089
37844SOL    HW215430   8.597   5.936   2.072
37845SOL     OW15431  14.648   9.158   1.513
37845SOL    HW115432  14.632   9.236   1.460
37845SOL    HW215433  14.673   9.091   1.450
37846SOL     OW15434   2.179  10.532   8.914
37846SOL    HW115435   2.131  10.526   8.831
37846SOL    HW215436   2.260  10.577   8.892
37847SOL     OW15437   2.935  12.152   6.041
37847SOL    HW115438   2.945  12.244   6.068
37847SOL    HW215439   2.888  12.156   5.958
37848SOL     OW15440   6.732  13.862   9.463
37848SOL    HW115441   6.643  13.827   9.472
37848SOL    HW215442   6.731  13.909   9.380
37849SOL     OW15443   9.596   0.337  14.096
37849SOL    HW115444   9.684   0.304  14.111
37849SOL    HW215445   9.584   0.335  14.001
37850SOL     OW15446   4.567   4.672   6.459
37850SOL    HW115447   4.606   4.606   6.516
37850SOL    HW215448   4.633   4.741   6.454
37851SOL     OW15449  14.314   8.660  10.873
37851SOL    HW115450  14.381   8.624  10.815
37851SOL    HW215451  14.358   8.730  10.920
37852SOL     OW15452   4.338   4.216  14.297
37852SOL    HW115453   4.377   4.156  14.232
37852SOL    HW215454   4.360   4.176  14.381
37853SOL     OW15455   1.088   9.558   3.359
37853SOL    HW115456   1.087   9.552   3.455
37853SOL    HW215457   1.088   9.466   3.330
37854SOL     OW15458  11.884   7.478   6.544
37854SOL    HW115459  11.976   7.470   6.517
37854SOL    HW215460  11.849   7.548   6.489
37855SOL     OW15461   8.108   1.449  14.512
37855SOL    HW115462   8.193   1.428  14.474
37855SOL    HW215463   8.070   1.513  14.452
37856SOL     OW15464  10.092  12.033  14.876
37856SOL    HW115465  10.039  12.014   0.076
37856SOL    HW215466  10.175  12.065   0.034
37857SOL     OW15467   9.347  11.519   6.173
37857SOL    HW115468   9.384  11.475   6.249
37857SOL    HW215469   9.418  11.518   6.108
37858SOL     OW15470  10.425   8.355  14.096
37858SOL    HW115471  10.442   8.439  14.055
37858SOL    HW215472  10.448   8.368  14.188
37859SOL     OW15473   0.722   1.224   1.535
37859SOL    HW115474   0.687   1.136   1.548
37859SOL    HW215475   0.759   1.223   1.447
37860SOL     OW15476  10.549   2.662  13.514
37860SOL    HW115477  10.578   2.710  13.437
37860SOL    HW215478  10.535   2.730  13.581
37861SOL     OW15479  10.980   5.085   4.836
37861SOL    HW115480  11.075   5.097   4.833
37861SOL    HW215481  10.956   5.105   4.927
37862SOL     OW15482   8.350   6.954   6.823
37862SOL    HW115483   8.395   7.004   6.891
37862SOL    HW215484   8.396   6.870   6.820
37863SOL     OW15485  12.656   5.313  10.367
37863SOL    HW115486  12.604   5.235  10.352
37863SOL    HW215487  12.595   5.386  10.354
37864SOL     OW15488  12.075   6.967   2.843
37864SOL    HW115489  12.015   6.900   2.877
37864SOL    HW215490  12.158   6.948   2.886
37865SOL     OW15491   7.403   2.194  12.533
37865SOL    HW115492   7.428   2.263  12.595
37865SOL    HW215493   7.347   2.136  12.583
37866SOL     OW15494  11.742  13.321  12.809
37866SOL    HW115495  11.673  13.314  12.875
37866SOL    HW215496  11.808  13.377  12.849
37867SOL     OW15497   6.741   9.190  10.552
37867SOL    HW115498   6.667   9.154  10.504
37867SOL    HW215499   6.818   9.158  10.505
37868SOL     OW15500  10.676   3.286  11.718
37868SOL    HW115501  10.740   3.317  11.782
37868SOL    HW215502  10.640   3.206  11.757
37869SOL     OW15503   1.685   7.457  10.823
37869SOL    HW115504   1.727   7.542  10.838
37869SOL    HW215505   1.601   7.464  10.868
37870SOL     OW15506   4.415   9.060  12.095
37870SOL    HW115507   4.394   9.051  12.002
37870SOL    HW215508   4.470   8.984  12.115
37871SOL     OW15509  14.784   3.850  13.843
37871SOL    HW115510  14.803   3.887  13.929
37871SOL    HW215511  14.695   3.881  13.823
37872SOL     OW15512   4.501  13.166   8.590
37872SOL    HW115513   4.407  13.148   8.586
37872SOL    HW215514   4.542  13.083   8.569
37873SOL     OW15515   1.277   5.565   7.419
37873SOL    HW115516   1.315   5.511   7.488
37873SOL    HW215517   1.255   5.503   7.349
37874SOL     OW15518  10.654  12.734  13.741
37874SOL    HW115519  10.600  12.661  13.772
37874SOL    HW215520  10.591  12.796  13.703
37875SOL     OW15521  11.239  12.739  11.016
37875SOL    HW115522  11.180  12.780  10.952
37875SOL    HW215523  11.325  12.778  10.996
37876SOL     OW15524   9.147   8.454   3.367
37876SOL    HW115525   9.156   8.527   3.306
37876SOL    HW215526   9.104   8.386   3.316
37877SOL     OW15527   3.271   5.312  14.013
37877SOL    HW115528   3.298   5.335  13.924
37877SOL    HW215529   3.223   5.230  14.002
37878SOL     OW15530   9.853  10.952   5.348
37878SOL    HW115531   9.761  10.930   5.356
37878SOL    HW215532   9.898  10.886   5.401
37879SOL     OW15533  11.627   5.243  10.442
37879SOL    HW115534  11.579   5.317  10.405
37879SOL    HW215535  11.719   5.270  10.438
37880SOL     OW15536   3.643   3.826   9.471
37880SOL    HW115537   3.728   3.799   9.507
37880SOL    HW215538   3.646   3.922   9.475
37881SOL     OW15539   7.293   4.028  12.094
37881SOL    HW115540   7.203   4.010  12.064
37881SOL    HW215541   7.330   3.941  12.111
37882SOL     OW15542   6.353   3.302   5.306
37882SOL    HW115543   6.377   3.363   5.236
37882SOL    HW215544   6.340   3.359   5.382
37883SOL     OW15545   4.908   4.012   1.140
37883SOL    HW115546   4.953   4.084   1.184
37883SOL    HW215547   4.880   3.954   1.211
37884SOL     OW15548   0.141   3.654  10.148
37884SOL    HW115549   0.186   3.724  10.102
37884SOL    HW215550   0.205   3.583  10.152
37885SOL     OW15551   2.249   7.090   3.038
37885SOL    HW115552   2.266   6.997   3.021
37885SOL    HW215553   2.160   7.092   3.074
37886SOL     OW15554  12.768   1.383  10.166
37886SOL    HW115555  12.716   1.432  10.230
37886SOL    HW215556  12.725   1.298  10.159
37887SOL     OW15557  13.439   4.179   3.895
37887SOL    HW115558  13.399   4.207   3.977
37887SOL    HW215559  13.518   4.131   3.922
37888SOL     OW15560   2.842  12.694   4.403
37888SOL    HW115561   2.838  12.605   4.439
37888SOL    HW215562   2.838  12.751   4.480
37889SOL     OW15563   0.343   4.386   2.324
37889SOL    HW115564   0.297   4.302   2.312
37889SOL    HW215565   0.274   4.452   2.318
37890SOL     OW15566   0.183  10.594   6.533
37890SOL    HW115567   0.258  10.536   6.545
37890SOL    HW215568   0.207  10.674   6.581
37891SOL     OW15569  14.604   2.862   6.776
37891SOL    HW115570  14.695   2.835   6.792
37891SOL    HW215571  14.591   2.850   6.682
37892SOL     OW15572   5.141  13.500  13.485
37892SOL    HW115573   5.171  13.577  13.534
37892SOL    HW215574   5.056  13.478  13.523
37893SOL     OW15575   0.221   9.932   8.214
37893SOL    HW115576   0.155   9.975   8.269
37893SOL    HW215577   0.300   9.984   8.227
37894SOL     OW15578   0.913  12.623   4.748
37894SOL    HW115579   0.944  12.693   4.806
37894SOL    HW215580   0.916  12.662   4.660
37895SOL     OW15581   9.550   7.874  11.616
37895SOL    HW115582   9.602   7.799  11.646
37895SOL    HW215583   9.483   7.836  11.560
37896SOL     OW15584   8.140   4.877  14.289
37896SOL    HW115585   8.154   4.934  14.365
37896SOL    HW215586   8.155   4.789  14.323
37897SOL     OW15587   9.669   6.009   6.941
37897SOL    HW115588   9.608   6.028   7.011
37897SOL    HW215589   9.614   5.996   6.863
37898SOL     OW15590   3.520   0.337   6.333
37898SOL    HW115591   3.458   0.355   6.262
37898SOL    HW215592   3.531   0.242   6.332
37899SOL     OW15593  11.933  14.014   0.097
37899SOL    HW115594  11.962  14.015   0.006
37899SOL    HW215595  11.838  14.020   0.092
37900SOL     OW15596   0.711   3.395  12.395
37900SOL    HW115597   0.734   3.485  12.371
37900SOL    HW215598   0.624   3.402  12.435
37901SOL     OW15599   7.287   2.045  13.330
37901SOL    HW115600   7.235   2.010  13.258
37901SOL    HW215601   7.224   2.088  13.387
37902SOL     OW15602   4.036   2.828  12.584
37902SOL    HW115603   3.943   2.819  12.608
37902SOL    HW215604   4.035   2.843  12.490
37903SOL     OW15605   9.174   9.720   9.807
37903SOL    HW115606   9.266   9.747   9.802
37903SOL    HW215607   9.148   9.736   9.897
37904SOL     OW15608   4.644   5.825   8.200
37904SOL    HW115609   4.671   5.772   8.126
37904SOL    HW215610   4.567   5.873   8.170
37905SOL     OW15611  14.179   2.324   6.374
37905SOL    HW115612  14.120   2.263   6.419
37905SOL    HW215613  14.256   2.329   6.430
37906SOL     OW15614   1.566   8.108   4.023
37906SOL    HW115615   1.567   8.097   3.928
37906SOL    HW215616   1.657   8.094   4.050
37907SOL     OW15617   9.387   9.219   7.602
37907SOL    HW115618   9.334   9.215   7.522
37907SOL    HW215619   9.426   9.307   7.601
37908SOL     OW15620   4.808   6.109   5.592
37908SOL    HW115621   4.722   6.150   5.592
37908SOL    HW215622   4.869   6.181   5.612
37909SOL     OW15623   1.468  14.183   9.153
37909SOL    HW115624   1.550  14.232   9.158
37909SOL    HW215625   1.401  14.246   9.181
37910SOL     OW15626   0.343   3.534   3.144
37910SOL    HW115627   0.271   3.471   3.148
37910SOL    HW215628   0.419   3.481   3.121
37911SOL     OW15629  12.815  14.509  12.997
37911SOL    HW115630  12.827  14.415  13.013
37911SOL    HW215631  12.883  14.530  12.933
37912SOL     OW15632   6.009  11.375  14.476
37912SOL    HW115633   5.928  11.325  14.481
37912SOL    HW215634   6.002  11.441  14.545
37913SOL     OW15635  10.889   2.231   3.329
37913SOL    HW115636  10.800   2.248   3.359
37913SOL    HW215637  10.933   2.192   3.404
37914SOL     OW15638   7.690   4.546  10.101
37914SOL    HW115639   7.784   4.529  10.109
37914SOL    HW215640   7.683   4.641  10.109
37915SOL     OW15641   3.148  11.045  13.998
37915SOL    HW115642   3.085  11.059  14.069
37915SOL    HW215643   3.123  11.109  13.931
37916SOL     OW15644  10.344   9.053  13.087
37916SOL    HW115645  10.403   9.024  13.157
37916SOL    HW215646  10.273   8.989  13.088
37917SOL     OW15647   1.575  13.329   2.231
37917SOL    HW115648   1.574  13.407   2.286
37917SOL    HW215649   1.524  13.353   2.154
37918SOL     OW15650  12.820   4.185   7.754
37918SOL    HW115651  12.878   4.109   7.743
37918SOL    HW215652  12.799   4.185   7.848
37919SOL     OW15653   4.681   5.263   5.344
37919SOL    HW115654   4.628   5.270   5.265
37919SOL    HW215655   4.771   5.255   5.313
37920SOL     OW15656   2.538   8.131  11.343
37920SOL    HW115657   2.617   8.113  11.394
37920SOL    HW215658   2.480   8.057  11.361
37921SOL     OW15659  11.478   0.687   3.397
37921SOL    HW115660  11.571   0.682   3.420
37921SOL    HW215661  11.459   0.605   3.353
37922SOL     OW15662   1.391   7.775  10.866
37922SOL    HW115663   1.397   7.737  10.779
37922SOL    HW215664   1.466   7.834  10.872
37923SOL     OW15665   4.163   2.444   6.385
37923SOL    HW115666   4.071   2.447   6.360
37923SOL    HW215667   4.163   2.434   6.480
37924SOL     OW15668   7.328  10.447   6.780
37924SOL    HW115669   7.388  10.413   6.846
37924SOL    HW215670   7.310  10.372   6.723
37925SOL     OW15671   9.589  13.371   2.546
37925SOL    HW115672   9.572  13.418   2.464
37925SOL    HW215673   9.636  13.434   2.600
37926SOL     OW15674   5.598  11.585   8.380
37926SOL    HW115675   5.538  11.642   8.332
37926SOL    HW215676   5.572  11.496   8.354
37927SOL     OW15677   5.746   3.779  13.153
37927SOL    HW115678   5.723   3.870  13.135
37927SOL    HW215679   5.812   3.758  13.087
37928SOL     OW15680  12.544   1.083  14.187
37928SOL    HW115681  12.599   1.051  14.258
37928SOL    HW215682  12.606   1.113  14.120
37929SOL     OW15683   3.859   4.132   2.671
37929SOL    HW115684   3.939   4.099   2.631
37929SOL    HW215685   3.799   4.145   2.598
37930SOL     OW15686   2.882   2.127   5.520
37930SOL    HW115687   2.881   2.186   5.596
37930SOL    HW215688   2.802   2.076   5.529
37931SOL     OW15689   4.352  11.757  13.653
37931SOL    HW115690   4.426  11.739  13.710
37931SOL    HW215691   4.315  11.671  13.633
37932SOL     OW15692   5.660   8.920   0.522
37932SOL    HW115693   5.654   8.964   0.437
37932SOL    HW215694   5.714   8.977   0.575
37933SOL     OW15695  10.206   5.874   1.337
37933SOL    HW115696  10.127   5.857   1.286
37933SOL    HW215697  10.197   5.818   1.414
37934SOL     OW15698   2.330   3.969   2.091
37934SOL    HW115699   2.409   3.916   2.105
37934SOL    HW215700   2.292   3.979   2.178
37935SOL     OW15701  13.068  13.018  13.882
37935SOL    HW115702  13.146  13.030  13.936
37935SOL    HW215703  13.102  12.997  13.796
37936SOL     OW15704   9.942   8.807   6.519
37936SOL    HW115705   9.999   8.739   6.554
37936SOL    HW215706   9.921   8.863   6.594
37937SOL     OW15707  14.744   7.834   9.884
37937SOL    HW115708  14.718   7.769   9.949
37937SOL    HW215709  14.710   7.917   9.919
37938SOL     OW15710  14.196  10.998   8.183
37938SOL    HW115711  14.238  11.067   8.235
37938SOL    HW215712  14.128  11.043   8.134
37939SOL     OW15713   5.867   6.813   4.793
37939SOL    HW115714   5.926   6.738   4.799
37939SOL    HW215715   5.858   6.829   4.699
37940SOL     OW15716   3.433  11.871   3.577
37940SOL    HW115717   3.474  11.954   3.551
37940SOL    HW215718   3.436  11.872   3.672
37941SOL     OW15719   0.562   7.607   5.342
37941SOL    HW115720   0.636   7.614   5.281
37941SOL    HW215721   0.512   7.688   5.327
37942SOL     OW15722   8.835  13.857   4.073
37942SOL    HW115723   8.765  13.883   4.133
37942SOL    HW215724   8.894  13.804   4.127
37943SOL     OW15725   9.854  14.723   6.406
37943SOL    HW115726   9.937  14.771   6.406
37943SOL    HW215727   9.853  14.679   6.492
37944SOL     OW15728  13.790  11.708   1.955
37944SOL    HW115729  13.701  11.738   1.975
37944SOL    HW215730  13.829  11.780   1.907
37945SOL     OW15731   6.699   4.982   3.755
37945SOL    HW115732   6.779   4.929   3.752
37945SOL    HW215733   6.714   5.051   3.691
37946SOL     OW15734  11.284  13.453   2.140
37946SOL    HW115735  11.189  13.459   2.135
37946SOL    HW215736  11.311  13.534   2.183
37947SOL     OW15737   1.067   6.063   1.096
37947SOL    HW115738   1.080   6.110   1.178
37947SOL    HW215739   1.019   6.124   1.040
37948SOL     OW15740  10.795   0.937   2.868
37948SOL    HW115741  10.727   0.974   2.923
37948SOL    HW215742  10.855   1.010   2.851
37949SOL     OW15743   8.684   5.117  10.515
37949SOL    HW115744   8.639   5.180  10.460
37949SOL    HW215745   8.628   5.108  10.592
37950SOL     OW15746   9.189   5.929   2.419
37950SOL    HW115747   9.255   5.904   2.484
37950SOL    HW215748   9.198   6.024   2.412
37951SOL     OW15749   6.260   0.577   1.060
37951SOL    HW115750   6.234   0.485   1.069
37951SOL    HW215751   6.205   0.611   0.989
37952SOL     OW15752   0.921   6.904  14.869
37952SOL    HW115753   0.955   6.845   0.059
37952SOL    HW215754   0.962   6.988   0.010
37953SOL     OW15755   3.878  12.438   7.498
37953SOL    HW115756   3.967  12.460   7.468
37953SOL    HW215757   3.859  12.504   7.564
37954SOL     OW15758  11.354   9.647  14.373
37954SOL    HW115759  11.359   9.553  14.388
37954SOL    HW215760  11.274   9.660  14.323
37955SOL     OW15761  14.687   0.598   2.740
37955SOL    HW115762  14.684   0.526   2.677
37955SOL    HW215763  14.745   0.663   2.701
37956SOL     OW15764   1.544   3.359   3.160
37956SOL    HW115765   1.582   3.296   3.221
37956SOL    HW215766   1.474   3.311   3.116
37957SOL     OW15767  10.844   7.270   5.110
37957SOL    HW115768  10.807   7.342   5.162
37957SOL    HW215769  10.854   7.199   5.173
37958SOL     OW15770   0.933   6.615   5.139
37958SOL    HW115771   0.978   6.632   5.222
37958SOL    HW215772   0.930   6.519   5.133
37959SOL     OW15773  10.997   3.725   6.454
37959SOL    HW115774  11.042   3.641   6.447
37959SOL    HW215775  10.905   3.704   6.434
37960SOL     OW15776   5.906  13.136  12.932
37960SOL    HW115777   5.868  13.082  13.002
37960SOL    HW215778   5.962  13.075  12.883
37961SOL     OW15779  11.662   3.967   4.613
37961SOL    HW115780  11.653   3.900   4.680
37961SOL    HW215781  11.640   3.922   4.531
37962SOL     OW15782   4.149   8.067  10.865
37962SOL    HW115783   4.187   8.003  10.804
37962SOL    HW215784   4.114   8.015  10.937
37963SOL     OW15785   8.138   3.078  14.248
37963SOL    HW115786   8.190   3.116  14.177
37963SOL    HW215787   8.106   3.154  14.297
37964SOL     OW15788   4.370   3.437  10.604
37964SOL    HW115789   4.353   3.386  10.525
37964SOL    HW215790   4.418   3.377  10.662
37965SOL     OW15791  11.004   0.106  13.525
37965SOL    HW115792  10.928   0.049  13.538
37965SOL    HW215793  11.071   0.050  13.488
37966SOL     OW15794   1.069   9.463   4.371
37966SOL    HW115795   0.984   9.421   4.354
37966SOL    HW215796   1.125   9.392   4.401
37967SOL     OW15797  12.644   6.950   9.385
37967SOL    HW115798  12.576   6.891   9.419
37967SOL    HW215799  12.683   6.901   9.312
37968SOL     OW15800  10.028   0.844   8.025
37968SOL    HW115801  10.009   0.853   7.931
37968SOL    HW215802  10.123   0.840   8.030
37969SOL     OW15803   8.936   6.573   1.599
37969SOL    HW115804   8.921   6.623   1.520
37969SOL    HW215805   9.024   6.536   1.587
37970SOL     OW15806   4.232   2.283   2.359
37970SOL    HW115807   4.193   2.299   2.445
37970SOL    HW215808   4.196   2.199   2.332
37971SOL     OW15809   7.214  10.623   6.447
37971SOL    HW115810   7.182  10.679   6.376
37971SOL    HW215811   7.168  10.654   6.525
37972SOL     OW15812   9.396   5.063   5.440
37972SOL    HW115813   9.413   5.145   5.487
37972SOL    HW215814   9.471   5.054   5.381
37973SOL     OW15815   6.464  11.819   0.172
37973SOL    HW115816   6.550  11.806   0.212
37973SOL    HW215817   6.419  11.877   0.233
37974SOL     OW15818   7.429   4.747   4.512
37974SOL    HW115819   7.494   4.791   4.567
37974SOL    HW215820   7.362   4.813   4.495
37975SOL     OW15821  11.242   7.917   0.328
37975SOL    HW115822  11.227   8.009   0.308
37975SOL    HW215823  11.284   7.881   0.250
37976SOL     OW15824   2.825  11.904   2.998
37976SOL    HW115825   2.786  11.979   3.043
37976SOL    HW215826   2.762  11.881   2.931
37977SOL     OW15827   9.639   5.720   6.963
37977SOL    HW115828   9.550   5.745   6.938
37977SOL    HW215829   9.662   5.780   7.034
37978SOL     OW15830  10.675   4.400   2.213
37978SOL    HW115831  10.722   4.345   2.151
37978SOL    HW215832  10.734   4.474   2.230
37979SOL     OW15833   0.956   5.798   0.468
37979SOL    HW115834   1.035   5.792   0.416
37979SOL    HW215835   0.894   5.738   0.426
37980SOL     OW15836   1.290  14.617   4.420
37980SOL    HW115837   1.317  14.533   4.382
37980SOL    HW215838   1.259  14.595   4.508
37981SOL     OW15839  14.537   0.650   2.960
37981SOL    HW115840  14.590   0.640   2.881
37981SOL    HW215841  14.547   0.741   2.985
37982SOL     OW15842  13.132   1.311   4.094
37982SOL    HW115843  13.063   1.378   4.093
37982SOL    HW215844  13.111   1.256   4.170
37983SOL     OW15845  10.250   1.909   6.094
37983SOL    HW115846  10.304   1.964   6.037
37983SOL    HW215847  10.233   1.830   6.042
37984SOL     OW15848   1.288   6.523  13.913
37984SOL    HW115849   1.213   6.472  13.944
37984SOL    HW215850   1.320   6.568  13.991
37985SOL     OW15851   4.265  10.160   0.396
37985SOL    HW115852   4.222  10.241   0.368
37985SOL    HW215853   4.215  10.091   0.352
37986SOL     OW15854   5.525  13.244   5.824
37986SOL    HW115855   5.492  13.271   5.739
37986SOL    HW215856   5.603  13.297   5.838
37987SOL     OW15857  10.608  12.742   0.795
37987SOL    HW115858  10.640  12.812   0.738
37987SOL    HW215859  10.569  12.789   0.869
37988SOL     OW15860  12.497   6.861  12.942
37988SOL    HW115861  12.426   6.805  12.911
37988SOL    HW215862  12.452   6.932  12.989
37989SOL     OW15863   8.443   3.831   9.506
37989SOL    HW115864   8.453   3.777   9.428
37989SOL    HW215865   8.381   3.899   9.480
37990SOL     OW15866   8.729  11.673   1.733
37990SOL    HW115867   8.703  11.582   1.716
37990SOL    HW215868   8.815  11.665   1.774
37991SOL     OW15869  13.437  13.603  11.993
37991SOL    HW115870  13.343  13.591  11.986
37991SOL    HW215871  13.464  13.550  12.068
37992SOL     OW15872   2.437   0.515  13.929
37992SOL    HW115873   2.470   0.603  13.946
37992SOL    HW215874   2.436   0.472  14.014
37993SOL     OW15875   0.371   7.778  13.902
37993SOL    HW115876   0.354   7.692  13.941
37993SOL    HW215877   0.286   7.820  13.899
37994SOL     OW15878  10.863   3.313   1.188
37994SOL    HW115879  10.931   3.287   1.249
37994SOL    HW215880  10.910   3.343   1.110
37995SOL     OW15881   1.760  11.317  12.300
37995SOL    HW115882   1.791  11.236  12.259
37995SOL    HW215883   1.787  11.309  12.392
37996SOL     OW15884   6.485   3.390   9.595
37996SOL    HW115885   6.445   3.306   9.619
37996SOL    HW215886   6.528   3.420   9.675
37997SOL     OW15887   8.358   4.551  12.220
37997SOL    HW115888   8.426   4.569  12.154
37997SOL    HW215889   8.287   4.511  12.170
37998SOL     OW15890   9.206  10.660  13.948
37998SOL    HW115891   9.117  10.631  13.929
37998SOL    HW215892   9.220  10.735  13.890
37999SOL     OW15893   1.463  12.860  12.895
37999SOL    HW115894   1.392  12.827  12.841
37999SOL    HW215895   1.541  12.851  12.840
38000SOL     OW15896   6.487  11.778   1.446
38000SOL    HW115897   6.565  11.733   1.416
38000SOL    HW215898   6.470  11.742   1.533
38001SOL     OW15899   1.701   4.678   2.010
38001SOL    HW115900   1.796   4.671   2.019
38001SOL    HW215901   1.675   4.599   1.963
38002SOL     OW15902   4.898   4.492   1.268
38002SOL    HW115903   4.820   4.466   1.218
38002SOL    HW215904   4.952   4.413   1.272
38003SOL     OW15905  12.075  11.488   1.233
38003SOL    HW115906  12.098  11.470   1.142
38003SOL    HW215907  11.980  11.500   1.231
38004SOL     OW15908  12.044   4.502   0.322
38004SOL    HW115909  12.110   4.571   0.325
38004SOL    HW215910  12.063   4.447   0.398
38005SOL     OW15911   5.449   9.982   7.761
38005SOL    HW115912   5.442   9.916   7.829
38005SOL    HW215913   5.387   9.953   7.693
38006SOL     OW15914   2.017   4.552   4.017
38006SOL    HW115915   2.082   4.484   4.000
38006SOL    HW215916   1.957   4.512   4.080
38007SOL     OW15917   8.265   7.486   5.185
38007SOL    HW115918   8.262   7.392   5.203
38007SOL    HW215919   8.191   7.502   5.126
38008SOL     OW15920   0.035  10.109   5.848
38008SOL    HW115921   0.120  10.074   5.818
38008SOL    HW215922   0.019  10.064   5.931
38009SOL     OW15923  14.845   3.485   7.569
38009SOL    HW115924  14.830   3.457   7.478
38009SOL    HW215925  14.813   3.576   7.571
38010SOL     OW15926  10.709  14.420   8.938
38010SOL    HW115927  10.789  14.380   8.904
38010SOL    HW215928  10.731  14.512   8.949
38011SOL     OW15929   8.183   2.916   0.576
38011SOL    HW115930   8.217   2.827   0.563
38011SOL    HW215931   8.182   2.954   0.489
38012SOL     OW15932   3.510  10.956   1.809
38012SOL    HW115933   3.590  11.001   1.779
38012SOL    HW215934   3.469  11.018   1.869
38013SOL     OW15935   3.586  12.393  10.700
38013SOL    HW115936   3.576  12.448  10.778
38013SOL    HW215937   3.510  12.415  10.646
38014SOL     OW15938   4.240   0.661   3.578
38014SOL    HW115939   4.326   0.632   3.549
38014SOL    HW215940   4.184   0.584   3.572
38015SOL     OW15941  14.333   0.791   8.192
38015SOL    HW115942  14.275   0.839   8.251
38015SOL    HW215943  14.302   0.814   8.104
38016SOL     OW15944  10.858   9.747  12.235
38016SOL    HW115945  10.856   9.825  12.289
38016SOL    HW215946  10.784   9.694  12.264
38017SOL     OW15947   7.867   3.103   9.076
38017SOL    HW115948   7.803   3.100   9.004
38017SOL    HW215949   7.942   3.052   9.043
38018SOL     OW15950   0.252  12.782   6.995
38018SOL    HW115951   0.170  12.830   7.007
38018SOL    HW215952   0.296  12.789   7.080
38019SOL     OW15953  10.681   9.632   0.876
38019SOL    HW115954  10.605   9.625   0.819
38019SOL    HW215955  10.651   9.602   0.961
38020SOL     OW15956   1.593   9.529  11.701
38020SOL    HW115957   1.561   9.542  11.791
38020SOL    HW215958   1.664   9.466  11.710
38021SOL     OW15959  14.864  10.407   1.285
38021SOL    HW115960   0.056  10.455   1.330
38021SOL    HW215961   0.001  10.316   1.310
38022SOL     OW15962   0.401  13.002  12.475
38022SOL    HW115963   0.350  13.040  12.403
38022SOL    HW215964   0.482  12.971  12.433
38023SOL     OW15965   6.372   7.713  12.855
38023SOL    HW115966   6.425   7.648  12.902
38023SOL    HW215967   6.426   7.738  12.780
38024SOL     OW15968   9.148  14.371  12.648
38024SOL    HW115969   9.142  14.387  12.554
38024SOL    HW215970   9.175  14.280  12.655
38025SOL     OW15971  10.727   8.201   2.466
38025SOL    HW115972  10.691   8.168   2.548
38025SOL    HW215973  10.804   8.252   2.492
38026SOL     OW15974  11.819  11.755  14.140
38026SOL    HW115975  11.861  11.738  14.056
38026SOL    HW215976  11.880  11.812  14.186
38027SOL     OW15977   8.848   3.467  14.754
38027SOL    HW115978   8.920   3.530  14.755
38027SOL    HW215979   8.818   3.467  14.663
38028SOL     OW15980  11.038  13.547   5.607
38028SOL    HW115981  11.097  13.619   5.628
38028SOL    HW215982  11.041  13.491   5.684
38029SOL     OW15983   4.463  10.931   8.742
38029SOL    HW115984   4.388  10.955   8.797
38029SOL    HW215985   4.526  10.892   8.803
38030SOL     OW15986   8.609   3.504   1.321
38030SOL    HW115987   8.675   3.474   1.384
38030SOL    HW215988   8.525   3.481   1.362
38031SOL     OW15989   8.002   8.155   6.343
38031SOL    HW115990   8.086   8.109   6.341
38031SOL    HW215991   7.963   8.128   6.426
38032SOL     OW15992   0.936   8.791   7.260
38032SOL    HW115993   0.953   8.766   7.169
38032SOL    HW215994   1.000   8.742   7.311
38033SOL     OW15995  12.421  12.853   5.334
38033SOL    HW115996  12.431  12.937   5.289
38033SOL    HW215997  12.376  12.874   5.416
38034SOL     OW15998  14.117   1.489   1.043
38034SOL    HW115999  14.205   1.480   1.081
38034SOL    HW216000  14.090   1.399   1.024
38035SOL     OW16001   3.203   8.625  10.568
38035SOL    HW116002   3.248   8.701  10.531
38035SOL    HW216003   3.255   8.602  10.646
38036SOL     OW16004   6.711   8.649   7.488
38036SOL    HW116005   6.785   8.708   7.498
38036SOL    HW216006   6.675   8.671   7.401
38037SOL     OW16007   5.172   6.541  11.206
38037SOL    HW116008   5.218   6.624  11.214
38037SOL    HW216009   5.208   6.485  11.275
38038SOL     OW16010   9.648   0.997  14.794
38038SOL    HW116011   9.577   0.985  14.731
38038SOL    HW216012   9.621   1.073  14.846
38039SOL     OW16013   0.831  10.296   4.708
38039SOL    HW116014   0.917  10.301   4.667
38039SOL    HW216015   0.849  10.269   4.798
38040SOL     OW16016   4.710   7.289   7.998
38040SOL    HW116017   4.758   7.213   7.963
38040SOL    HW216018   4.776   7.357   8.007
38041SOL     OW16019   5.806   4.875   3.909
38041SOL    HW116020   5.774   4.808   3.969
38041SOL    HW216021   5.728   4.919   3.877
38042SOL     OW16022   7.453   4.241   3.681
38042SOL    HW116023   7.512   4.316   3.680
38042SOL    HW216024   7.502   4.172   3.726
38043SOL     OW16025   4.782   9.175   4.708
38043SOL    HW116026   4.765   9.165   4.802
38043SOL    HW216027   4.862   9.226   4.703
38044SOL     OW16028   3.756   7.507   9.061
38044SOL    HW116029   3.801   7.477   9.140
38044SOL    HW216030   3.826   7.518   8.996
38045SOL     OW16031   2.906   6.942  10.313
38045SOL    HW116032   2.838   6.999  10.347
38045SOL    HW216033   2.864   6.894  10.242
38046SOL     OW16034   9.312  14.725  11.703
38046SOL    HW116035   9.259  14.793  11.662
38046SOL    HW216036   9.310  14.652  11.641
38047SOL     OW16037  13.445   6.595  14.166
38047SOL    HW116038  13.471   6.682  14.198
38047SOL    HW216039  13.439   6.542  14.245
38048SOL     OW16040  13.435   1.091   0.461
38048SOL    HW116041  13.345   1.121   0.450
38048SOL    HW216042  13.440   1.010   0.411
38049SOL     OW16043   9.497  10.367   7.926
38049SOL    HW116044   9.554  10.294   7.903
38049SOL    HW216045   9.419  10.354   7.872
38050SOL     OW16046   0.139   9.493   0.265
38050SOL    HW116047   0.100   9.415   0.226
38050SOL    HW216048   0.171   9.544   0.191
38051SOL     OW16049   9.965  10.622   6.730
38051SOL    HW116050  10.048  10.576   6.722
38051SOL    HW216051   9.982  10.693   6.793
38052SOL     OW16052   4.425   4.910   0.285
38052SOL    HW116053   4.454   4.863   0.363
38052SOL    HW216054   4.399   4.997   0.317
38053SOL     OW16055  10.001   7.448   9.834
38053SOL    HW116056   9.912   7.482   9.833
38053SOL    HW216057  10.008   7.396   9.753
38054SOL     OW16058  13.343   0.643   7.610
38054SOL    HW116059  13.332   0.600   7.525
38054SOL    HW216060  13.426   0.610   7.643
38055SOL     OW16061   9.648   6.122   0.250
38055SOL    HW116062   9.678   6.123   0.160
38055SOL    HW216063   9.710   6.178   0.297
38056SOL     OW16064   8.547   3.052   2.509
38056SOL    HW116065   8.466   3.035   2.557
38056SOL    HW216066   8.591   3.120   2.560
38057SOL     OW16067   5.182  11.981   0.937
38057SOL    HW116068   5.168  12.070   0.970
38057SOL    HW216069   5.271  11.959   0.962
38058SOL     OW16070   3.861   1.368  11.772
38058SOL    HW116071   3.812   1.388  11.852
38058SOL    HW216072   3.883   1.453  11.735
38059SOL     OW16073   3.102   2.223  10.930
38059SOL    HW116074   3.096   2.129  10.910
38059SOL    HW216075   3.126   2.264  10.846
38060SOL     OW16076   2.403   8.374   1.884
38060SOL    HW116077   2.338   8.438   1.912
38060SOL    HW216078   2.470   8.377   1.953
38061SOL     OW16079   2.383   0.905  10.909
38061SOL    HW116080   2.298   0.933  10.876
38061SOL    HW216081   2.408   0.832  10.852
38062SOL     OW16082   7.335   7.623   7.317
38062SOL    HW116083   7.296   7.633   7.404
38062SOL    HW216084   7.372   7.709   7.298
38063SOL     OW16085   1.597   2.131  13.388
38063SOL    HW116086   1.644   2.151  13.307
38063SOL    HW216087   1.504   2.142  13.365
38064SOL     OW16088  10.644  11.080  12.761
38064SOL    HW116089  10.589  11.035  12.697
38064SOL    HW216090  10.643  11.023  12.838
38065SOL     OW16091  11.857   7.519  11.936
38065SOL    HW116092  11.862   7.431  11.898
38065SOL    HW216093  11.942   7.532  11.976
38066SOL     OW16094  11.434  11.648   0.833
38066SOL    HW116095  11.428  11.585   0.905
38066SOL    HW216096  11.349  11.643   0.790
38067SOL     OW16097   1.109  13.665  12.829
38067SOL    HW116098   1.040  13.730  12.838
38067SOL    HW216099   1.137  13.672  12.738
38068SOL     OW16100   7.619   2.983   6.892
38068SOL    HW116101   7.541   3.031   6.919
38068SOL    HW216102   7.684   3.051   6.873
38069SOL     OW16103   5.906  12.059   0.317
38069SOL    HW116104   5.969  12.124   0.348
38069SOL    HW216105   5.947  12.019   0.241
38070SOL     OW16106   2.814   7.864   1.400
38070SOL    HW116107   2.718   7.870   1.397
38070SOL    HW216108   2.831   7.779   1.442
38071SOL     OW16109  12.428  13.144  12.745
38071SOL    HW116110  12.388  13.231  12.753
38071SOL    HW216111  12.431  13.128  12.651
38072SOL     OW16112  11.355  12.454   1.700
38072SOL    HW116113  11.321  12.482   1.615
38072SOL    HW216114  11.399  12.531   1.735
38073SOL     OW16115   8.920  10.428  12.121
38073SOL    HW116116   8.943  10.376  12.044
38073SOL    HW216117   8.956  10.380  12.195
38074SOL     OW16118  11.562  10.608   3.339
38074SOL    HW116119  11.534  10.516   3.336
38074SOL    HW216120  11.611  10.615   3.421
38075SOL     OW16121  11.905  12.168   4.585
38075SOL    HW116122  11.942  12.248   4.622
38075SOL    HW216123  11.936  12.166   4.494
38076SOL     OW16124   7.372  10.507  12.811
38076SOL    HW116125   7.466  10.521  12.803
38076SOL    HW216126   7.362  10.412  12.815
38077SOL     OW16127  11.375   8.680  12.638
38077SOL    HW116128  11.391   8.772  12.661
38077SOL    HW216129  11.382   8.677  12.543
38078SOL     OW16130   6.075   5.291   6.736
38078SOL    HW116131   6.164   5.304   6.770
38078SOL    HW216132   6.058   5.367   6.681
38079SOL     OW16133   4.630   9.602   6.530
38079SOL    HW116134   4.689   9.576   6.600
38079SOL    HW216135   4.568   9.529   6.522
38080SOL     OW16136  12.155   8.603  12.205
38080SOL    HW116137  12.109   8.523  12.231
38080SOL    HW216138  12.156   8.657  12.284
38081SOL     OW16139  11.835  13.903   1.300
38081SOL    HW116140  11.863  13.944   1.382
38081SOL    HW216141  11.810  13.814   1.325
38082SOL     OW16142   3.090   0.710   9.400
38082SOL    HW116143   3.148   0.771   9.446
38082SOL    HW216144   3.096   0.629   9.451
38083SOL     OW16145  12.204   4.517  12.289
38083SOL    HW116146  12.247   4.602  12.285
38083SOL    HW216147  12.125   4.526  12.235
38084SOL     OW16148   1.115  11.555  10.436
38084SOL    HW116149   1.068  11.496  10.377
38084SOL    HW216150   1.195  11.507  10.459
38085SOL     OW16151   4.331  14.247  12.283
38085SOL    HW116152   4.359  14.215  12.369
38085SOL    HW216153   4.303  14.337  12.299
38086SOL     OW16154   1.722   2.453   8.007
38086SOL    HW116155   1.661   2.382   7.988
38086SOL    HW216156   1.791   2.444   7.941
38087SOL     OW16157   5.813  13.971   7.197
38087SOL    HW116158   5.870  13.979   7.273
38087SOL    HW216159   5.834  14.048   7.143
38088SOL     OW16160   2.337   0.619   8.268
38088SOL    HW116161   2.342   0.534   8.311
38088SOL    HW216162   2.305   0.600   8.180
38089SOL     OW16163   6.853  14.540   6.010
38089SOL    HW116164   6.930  14.597   6.012
38089SOL    HW216165   6.825  14.539   5.919
38090SOL     OW16166   2.622   6.714   9.815
38090SOL    HW116167   2.630   6.637   9.873
38090SOL    HW216168   2.712   6.734   9.791
38091SOL     OW16169   7.583   2.331   3.177
38091SOL    HW116170   7.666   2.282   3.181
38091SOL    HW216171   7.533   2.287   3.108
38092SOL     OW16172   2.354   5.231   7.620
38092SOL    HW116173   2.299   5.155   7.600
38092SOL    HW216174   2.424   5.228   7.555
38093SOL     OW16175   3.908   5.149   4.639
38093SOL    HW116176   3.819   5.164   4.607
38093SOL    HW216177   3.918   5.054   4.635
38094SOL     OW16178   4.580   6.631  12.409
38094SOL    HW116179   4.675   6.641  12.399
38094SOL    HW216180   4.551   6.713  12.448
38095SOL     OW16181   4.481   5.636  14.628
38095SOL    HW116182   4.497   5.725  14.595
38095SOL    HW216183   4.471   5.648  14.723
38096SOL     OW16184   1.162   7.214   9.189
38096SOL    HW116185   1.087   7.250   9.141
38096SOL    HW216186   1.237   7.264   9.158
38097SOL     OW16187  12.579  14.639   9.885
38097SOL    HW116188  12.485  14.655   9.884
38097SOL    HW216189  12.588  14.546   9.907
38098SOL     OW16190   2.224  14.080   8.804
38098SOL    HW116191   2.183  14.162   8.779
38098SOL    HW216192   2.175  14.013   8.757
38099SOL     OW16193   3.671   1.311   5.803
38099SOL    HW116194   3.664   1.383   5.740
38099SOL    HW216195   3.582   1.279   5.813
38100SOL     OW16196  11.812   5.719  12.221
38100SOL    HW116197  11.795   5.741  12.129
38100SOL    HW216198  11.882   5.654  12.218
38101SOL     OW16199   6.022   7.369   9.747
38101SOL    HW116200   6.083   7.333   9.811
38101SOL    HW216201   6.015   7.301   9.680
38102SOL     OW16202  11.572   0.850   4.154
38102SOL    HW116203  11.480   0.827   4.149
38102SOL    HW216204  11.573   0.945   4.158
38103SOL     OW16205   4.792   3.948  10.693
38103SOL    HW116206   4.700   3.945  10.667
38103SOL    HW216207   4.797   3.891  10.770
38104SOL     OW16208  11.477   3.047   6.056
38104SOL    HW116209  11.562   3.041   6.098
38104SOL    HW216210  11.496   3.046   5.962
38105SOL     OW16211   5.627  10.560   1.592
38105SOL    HW116212   5.593  10.480   1.553
38105SOL    HW216213   5.591  10.561   1.681
38106SOL     OW16214   1.756  11.435   1.785
38106SOL    HW116215   1.834  11.472   1.744
38106SOL    HW216216   1.695  11.420   1.712
38107SOL     OW16217  13.310   2.402   5.269
38107SOL    HW116218  13.379   2.419   5.333
38107SOL    HW216219  13.278   2.489   5.244
38108SOL     OW16220   1.937  12.837  11.388
38108SOL    HW116221   1.856  12.804  11.425
38108SOL    HW216222   1.918  12.928  11.365
38109SOL     OW16223  13.796   9.486  14.584
38109SOL    HW116224  13.824   9.511  14.496
38109SOL    HW216225  13.749   9.403  14.572
38110SOL     OW16226   8.244  12.061   7.846
38110SOL    HW116227   8.220  12.153   7.858
38110SOL    HW216228   8.309  12.044   7.914
38111SOL     OW16229   2.082   6.680  13.589
38111SOL    HW116230   2.164   6.640  13.560
38111SOL    HW216231   2.043   6.615  13.647
38112SOL     OW16232   3.665   1.967   7.041
38112SOL    HW116233   3.686   2.053   7.006
38112SOL    HW216234   3.747   1.919   7.038
38113SOL     OW16235   7.450  11.681   5.111
38113SOL    HW116236   7.522  11.687   5.173
38113SOL    HW216237   7.430  11.772   5.088
38114SOL     OW16238   3.028   4.696   1.297
38114SOL    HW116239   2.990   4.722   1.213
38114SOL    HW216240   3.024   4.776   1.350
38115SOL     OW16241   8.929   4.892   6.768
38115SOL    HW116242   8.868   4.874   6.696
38115SOL    HW216243   8.979   4.811   6.777
38116SOL     OW16244   5.909   2.684   2.592
38116SOL    HW116245   5.825   2.640   2.581
38116SOL    HW216246   5.895   2.744   2.665
38117SOL     OW16247   1.534  13.440  12.051
38117SOL    HW116248   1.471  13.487  12.105
38117SOL    HW216249   1.481  13.382  11.997
38118SOL     OW16250   6.559   4.640   5.304
38118SOL    HW116251   6.563   4.577   5.376
38118SOL    HW216252   6.487   4.608   5.248
38119SOL     OW16253   8.082  11.077   1.005
38119SOL    HW116254   8.088  11.031   1.089
38119SOL    HW216255   8.166  11.059   0.962
38120SOL     OW16256   5.554  13.818   0.945
38120SOL    HW116257   5.488  13.887   0.934
38120SOL    HW216258   5.609  13.825   0.867
38121SOL     OW16259   8.823  13.701   6.010
38121SOL    HW116260   8.876  13.775   5.979
38121SOL    HW216261   8.733  13.725   5.990
38122SOL     OW16262   3.380   0.450  11.802
38122SOL    HW116263   3.389   0.537  11.763
38122SOL    HW216264   3.449   0.398  11.760
38123SOL     OW16265   1.155   6.487  10.010
38123SOL    HW116266   1.126   6.415   9.954
38123SOL    HW216267   1.151   6.564   9.953
38124SOL     OW16268  10.404  10.976   6.260
38124SOL    HW116269  10.430  11.060   6.297
38124SOL    HW216270  10.479  10.919   6.275
38125SOL     OW16271   7.903   6.818   8.749
38125SOL    HW116272   7.837   6.794   8.814
38125SOL    HW216273   7.962   6.743   8.745
38126SOL     OW16274   1.535   5.435   0.635
38126SOL    HW116275   1.610   5.463   0.582
38126SOL    HW216276   1.519   5.507   0.695
38127SOL     OW16277   6.721   5.684   5.662
38127SOL    HW116278   6.631   5.718   5.665
38127SOL    HW216279   6.727   5.639   5.578
38128SOL     OW16280  12.480  12.244   5.959
38128SOL    HW116281  12.539  12.302   6.008
38128SOL    HW216282  12.417  12.214   6.025
38129SOL     OW16283  14.639  13.785   4.004
38129SOL    HW116284  14.545  13.773   3.991
38129SOL    HW216285  14.677  13.773   3.918
38130SOL     OW16286   7.499   4.345   5.838
38130SOL    HW116287   7.468   4.273   5.893
38130SOL    HW216288   7.436   4.349   5.766
38131SOL     OW16289   5.224   6.265   9.545
38131SOL    HW116290   5.227   6.354   9.582
38131SOL    HW216291   5.161   6.219   9.599
38132SOL     OW16292   3.408   0.729   9.746
38132SOL    HW116293   3.354   0.670   9.798
38132SOL    HW216294   3.497   0.694   9.754
38133SOL     OW16295  11.799   4.029  13.862
38133SOL    HW116296  11.803   3.958  13.925
38133SOL    HW216297  11.714   4.070  13.877
38134SOL     OW16298   3.676   7.879  14.406
38134SOL    HW116299   3.665   7.970  14.381
38134SOL    HW216300   3.727   7.882  14.487
38135SOL     OW16301   8.476   5.838   2.442
38135SOL    HW116302   8.495   5.851   2.534
38135SOL    HW216303   8.462   5.926   2.407
38136SOL     OW16304   4.084  11.741   8.009
38136SOL    HW116305   4.056  11.651   8.028
38136SOL    HW216306   4.044  11.761   7.925
38137SOL     OW16307   5.021   1.346   7.640
38137SOL    HW116308   4.939   1.304   7.616
38137SOL    HW216309   4.999   1.440   7.645
38138SOL     OW16310  12.759   3.934   9.480
38138SOL    HW116311  12.714   3.864   9.434
38138SOL    HW216312  12.849   3.930   9.448
38139SOL     OW16313   0.174   3.310   4.294
38139SOL    HW116314   0.189   3.279   4.383
38139SOL    HW216315   0.254   3.289   4.247
38140SOL     OW16316   9.829   1.732   2.527
38140SOL    HW116317   9.891   1.733   2.455
38140SOL    HW216318   9.749   1.695   2.490
38141SOL     OW16319   3.171   3.397   6.907
38141SOL    HW116320   3.151   3.434   6.821
38141SOL    HW216321   3.215   3.467   6.954
38142SOL     OW16322   4.073   2.451   7.681
38142SOL    HW116323   4.039   2.487   7.599
38142SOL    HW216324   3.999   2.456   7.742
38143SOL     OW16325   9.498   9.763   4.092
38143SOL    HW116326   9.469   9.845   4.051
38143SOL    HW216327   9.592   9.773   4.101
38144SOL     OW16328   1.448   8.623   5.728
38144SOL    HW116329   1.432   8.544   5.677
38144SOL    HW216330   1.526   8.662   5.688
38145SOL     OW16331   7.796   2.414   6.441
38145SOL    HW116332   7.778   2.327   6.406
38145SOL    HW216333   7.792   2.472   6.364
38146SOL     OW16334   4.528   5.325   0.171
38146SOL    HW116335   4.487   5.401   0.131
38146SOL    HW216336   4.455   5.273   0.205
38147SOL     OW16337   6.393   9.910   5.125
38147SOL    HW116338   6.451   9.843   5.088
38147SOL    HW216339   6.330   9.861   5.178
38148SOL     OW16340   4.682   5.973   6.332
38148SOL    HW116341   4.716   6.059   6.306
38148SOL    HW216342   4.738   5.947   6.405
38149SOL     OW16343   0.016   2.928   8.769
38149SOL    HW116344   0.013   2.833   8.779
38149SOL    HW216345  14.843   2.961   8.843
38150SOL     OW16346   1.476   9.325   3.345
38150SOL    HW116347   1.446   9.380   3.417
38150SOL    HW216348   1.558   9.287   3.376
38151SOL     OW16349   6.854   6.732   7.995
38151SOL    HW116350   6.844   6.701   8.085
38151SOL    HW216351   6.842   6.827   8.002
38152SOL     OW16352   8.321  12.473  14.230
38152SOL    HW116353   8.346  12.400  14.174
38152SOL    HW216354   8.298  12.543  14.169
38153SOL     OW16355  10.386  12.458   6.103
38153SOL    HW116356  10.374  12.436   6.195
38153SOL    HW216357  10.344  12.386   6.056
38154SOL     OW16358   5.658   4.507  10.103
38154SOL    HW116359   5.644   4.598  10.078
38154SOL    HW216360   5.582   4.461  10.069
38155SOL     OW16361   7.545  12.051   6.403
38155SOL    HW116362   7.519  12.019   6.490
38155SOL    HW216363   7.616  11.993   6.377
38156SOL     OW16364  10.678   0.621   0.679
38156SOL    HW116365  10.746   0.640   0.744
38156SOL    HW216366  10.596   0.645   0.722
38157SOL     OW16367   4.862   8.944   7.899
38157SOL    HW116368   4.885   8.974   7.986
38157SOL    HW216369   4.944   8.941   7.851
38158SOL     OW16370   6.299   6.185   4.646
38158SOL    HW116371   6.381   6.136   4.636
38158SOL    HW216372   6.322   6.274   4.619
38159SOL     OW16373   1.228   4.545  12.791
38159SOL    HW116374   1.154   4.489  12.814
38159SOL    HW216375   1.294   4.485  12.757
38160SOL     OW16376   2.580   5.457  10.144
38160SOL    HW116377   2.638   5.385  10.169
38160SOL    HW216378   2.595   5.467  10.050
38161SOL     OW16379   0.802  13.708   4.628
38161SOL    HW116380   0.838  13.791   4.597
38161SOL    HW216381   0.878  13.654   4.648
38162SOL     OW16382   2.408   6.631  12.365
38162SOL    HW116383   2.479   6.693  12.381
38162SOL    HW216384   2.451   6.552  12.333
38163SOL     OW16385   7.145  12.602   0.006
38163SOL    HW116386   7.190  12.680  14.851
38163SOL    HW216387   7.173  12.594   0.097
38164SOL     OW16388   2.837   2.925  13.724
38164SOL    HW116389   2.883   2.857  13.773
38164SOL    HW216390   2.871   2.918  13.635
38165SOL     OW16391   5.976   4.721   8.782
38165SOL    HW116392   5.928   4.642   8.807
38165SOL    HW216393   6.045   4.690   8.723
38166SOL     OW16394   1.987   9.098   1.154
38166SOL    HW116395   1.997   9.186   1.118
38166SOL    HW216396   1.945   9.111   1.239
38167SOL     OW16397  10.703  13.355   9.341
38167SOL    HW116398  10.656  13.435   9.318
38167SOL    HW216399  10.701  13.302   9.262
38168SOL     OW16400  11.528   5.576  11.528
38168SOL    HW116401  11.564   5.593  11.615
38168SOL    HW216402  11.564   5.646  11.473
38169SOL     OW16403   9.938   0.549   4.431
38169SOL    HW116404   9.995   0.473   4.421
38169SOL    HW216405   9.850   0.516   4.414
38170SOL     OW16406  14.872   7.812   8.428
38170SOL    HW116407  14.809   7.882   8.443
38170SOL    HW216408  14.859   7.787   8.336
38171SOL     OW16409   7.588   4.231   0.905
38171SOL    HW116410   7.632   4.194   0.981
38171SOL    HW216411   7.515   4.281   0.942
38172SOL     OW16412   8.696  11.572  10.966
38172SOL    HW116413   8.695  11.486  11.009
38172SOL    HW216414   8.757  11.562  10.893
38173SOL     OW16415   9.953   6.343  11.558
38173SOL    HW116416   9.988   6.432  11.568
38173SOL    HW216417  10.030   6.288  11.546
38174SOL     OW16418   8.034   5.645  14.791
38174SOL    HW116419   8.120   5.665  14.755
38174SOL    HW216420   7.976   5.712  14.755
38175SOL     OW16421   6.605  11.434   3.631
38175SOL    HW116422   6.646  11.360   3.677
38175SOL    HW216423   6.552  11.394   3.563
38176SOL     OW16424  11.143  10.276   4.958
38176SOL    HW116425  11.191  10.234   4.887
38176SOL    HW216426  11.206  10.280   5.031
38177SOL     OW16427   1.800   8.072   2.471
38177SOL    HW116428   1.815   8.123   2.551
38177SOL    HW216429   1.863   8.108   2.408
38178SOL     OW16430   1.696   1.242   1.892
38178SOL    HW116431   1.787   1.272   1.896
38178SOL    HW216432   1.656   1.277   1.973
38179SOL     OW16433   0.012   6.775   6.200
38179SOL    HW116434  14.835   6.749   6.274
38179SOL    HW216435   0.056   6.695   6.172
38180SOL     OW16436  12.547   5.735   0.962
38180SOL    HW116437  12.636   5.715   0.991
38180SOL    HW216438  12.493   5.724   1.039
38181SOL     OW16439   7.277  14.413   9.964
38181SOL    HW116440   7.292  14.326  10.000
38181SOL    HW216441   7.191  14.408   9.924
38182SOL     OW16442   6.347  14.492   3.740
38182SOL    HW116443   6.295  14.526   3.668
38182SOL    HW216444   6.311  14.535   3.818
38183SOL     OW16445  10.312   4.011   7.010
38183SOL    HW116446  10.265   3.975   6.935
38183SOL    HW216447  10.294   3.949   7.081
38184SOL     OW16448   5.818   9.647   0.020
38184SOL    HW116449   5.861   9.718  14.848
38184SOL    HW216450   5.730   9.642  14.860
38185SOL     OW16451   0.358   2.640  11.928
38185SOL    HW116452   0.434   2.688  11.896
38185SOL    HW216453   0.389   2.550  11.939
38186SOL     OW16454   7.014   2.639   5.575
38186SOL    HW116455   6.920   2.625   5.589
38186SOL    HW216456   7.023   2.733   5.559
38187SOL     OW16457   0.666   1.472   8.909
38187SOL    HW116458   0.697   1.562   8.918
38187SOL    HW216459   0.740   1.424   8.872
38188SOL     OW16460   1.389   1.665  13.902
38188SOL    HW116461   1.294   1.655  13.891
38188SOL    HW216462   1.402   1.664  13.997
38189SOL     OW16463   8.867   0.396   1.645
38189SOL    HW116464   8.866   0.316   1.698
38189SOL    HW216465   8.943   0.444   1.676
38190SOL     OW16466   6.760   4.867  11.689
38190SOL    HW116467   6.686   4.885  11.747
38190SOL    HW216468   6.815   4.807  11.738
38191SOL     OW16469  11.717   9.655   4.411
38191SOL    HW116470  11.651   9.659   4.342
38191SOL    HW216471  11.692   9.580   4.464
38192SOL     OW16472  11.604  12.288  13.073
38192SOL    HW116473  11.515  12.299  13.108
38192SOL    HW216474  11.647  12.372  13.090
38193SOL     OW16475  11.228  12.565  11.736
38193SOL    HW116476  11.225  12.488  11.679
38193SOL    HW216477  11.140  12.603  11.730
38194SOL     OW16478  12.102   3.092   4.354
38194SOL    HW116479  12.171   3.045   4.308
38194SOL    HW216480  12.028   3.093   4.293
38195SOL     OW16481  10.537  11.404   7.441
38195SOL    HW116482  10.461  11.378   7.389
38195SOL    HW216483  10.600  11.332   7.429
38196SOL     OW16484   5.341   8.285  12.251
38196SOL    HW116485   5.406   8.243  12.308
38196SOL    HW216486   5.360   8.249  12.164
38197SOL     OW16487   9.570  10.994  12.865
38197SOL    HW116488   9.496  10.934  12.856
38197SOL    HW216489   9.557  11.034  12.951
38198SOL     OW16490   2.369  10.124   7.056
38198SOL    HW116491   2.437  10.138   6.991
38198SOL    HW216492   2.299  10.078   7.010
38199SOL     OW16493  12.489   6.459   1.286
38199SOL    HW116494  12.420   6.393   1.289
38199SOL    HW216495  12.532   6.446   1.202
38200SOL     OW16496  12.050  11.460  13.783
38200SOL    HW116497  11.966  11.504  13.788
38200SOL    HW216498  12.100  11.509  13.718
38201SOL     OW16499   3.048   0.578  12.208
38201SOL    HW116500   3.103   0.579  12.130
38201SOL    HW216501   3.048   0.487  12.237
38202SOL     OW16502  10.060  10.868  11.658
38202SOL    HW116503  10.124  10.815  11.707
38202SOL    HW216504  10.015  10.919  11.724
38203SOL     OW16505   7.876   7.385  14.194
38203SOL    HW116506   7.873   7.405  14.288
38203SOL    HW216507   7.827   7.456  14.153
38204SOL     OW16508   3.139  14.585   4.344
38204SOL    HW116509   3.067  14.527   4.368
38204SOL    HW216510   3.185  14.539   4.274
38205SOL     OW16511  11.103   9.261   0.216
38205SOL    HW116512  11.075   9.352   0.221
38205SOL    HW216513  11.044   9.221   0.152
38206SOL     OW16514  12.693   2.593  10.040
38206SOL    HW116515  12.663   2.526  10.101
38206SOL    HW216516  12.620   2.654  10.033
38207SOL     OW16517   9.339  13.227   3.968
38207SOL    HW116518   9.346  13.306   3.914
38207SOL    HW216519   9.429  13.210   3.998
38208SOL     OW16520  10.028   9.328   1.422
38208SOL    HW116521  10.074   9.278   1.489
38208SOL    HW216522   9.954   9.272   1.398
38209SOL     OW16523   5.949   0.237  11.807
38209SOL    HW116524   5.907   0.189  11.735
38209SOL    HW216525   6.011   0.295  11.763
38210SOL     OW16526   4.626  14.351  10.468
38210SOL    HW116527   4.638  14.263  10.434
38210SOL    HW216528   4.541  14.349  10.510
38211SOL     OW16529   6.589   8.418   6.214
38211SOL    HW116530   6.638   8.359   6.271
38211SOL    HW216531   6.521   8.362   6.175
38212SOL     OW16532   1.342   3.481   8.933
38212SOL    HW116533   1.383   3.555   8.979
38212SOL    HW216534   1.394   3.470   8.854
38213SOL     OW16535  12.603  12.744  12.734
38213SOL    HW116536  12.520  12.720  12.692
38213SOL    HW216537  12.654  12.785  12.665
38214SOL     OW16538  14.420   5.037   4.739
38214SOL    HW116539  14.459   4.980   4.805
38214SOL    HW216540  14.426   5.125   4.777
38215SOL     OW16541   4.616   0.822  11.270
38215SOL    HW116542   4.662   0.803  11.188
38215SOL    HW216543   4.675   0.880  11.318
38216SOL     OW16544  13.900  13.463   9.465
38216SOL    HW116545  13.978  13.433   9.513
38216SOL    HW216546  13.903  13.414   9.383
38217SOL     OW16547   9.013  14.595  11.552
38217SOL    HW116548   9.091  14.540  11.545
38217SOL    HW216549   8.943  14.543  11.513
38218SOL     OW16550   1.899   9.602   5.995
38218SOL    HW116551   1.809   9.570   5.985
38218SOL    HW216552   1.912   9.610   6.089
38219SOL     OW16553   4.620  10.360   0.716
38219SOL    HW116554   4.648  10.345   0.626
38219SOL    HW216555   4.700  10.385   0.762
38220SOL     OW16556   2.365   9.267   2.457
38220SOL    HW116557   2.377   9.362   2.454
38220SOL    HW216558   2.306   9.249   2.384
38221SOL     OW16559   9.626  13.698   0.188
38221SOL    HW116560   9.640  13.785   0.150
38221SOL    HW216561   9.662  13.704   0.276
38222SOL     OW16562   0.405   6.398   0.339
38222SOL    HW116563   0.405   6.324   0.400
38222SOL    HW216564   0.319   6.393   0.297
38223SOL     OW16565   6.459   5.498   8.575
38223SOL    HW116566   6.448   5.468   8.665
38223SOL    HW216567   6.513   5.430   8.534
38224SOL     OW16568  10.655  10.342  11.042
38224SOL    HW116569  10.624  10.432  11.054
38224SOL    HW216570  10.617  10.314  10.959
38225SOL     OW16571   2.083  11.794  10.507
38225SOL    HW116572   2.028  11.820  10.580
38225SOL    HW216573   2.172  11.815  10.535
38226SOL     OW16574   3.748   9.964  12.412
38226SOL    HW116575   3.819   9.949  12.349
38226SOL    HW216576   3.785   9.939  12.496
38227SOL     OW16577   4.903   1.507  12.783
38227SOL    HW116578   4.835   1.516  12.850
38227SOL    HW216579   4.864   1.542  12.703
38228SOL     OW16580  13.203   7.136  11.026
38228SOL    HW116581  13.260   7.096  10.961
38228SOL    HW216582  13.216   7.230  11.015
38229SOL     OW16583  14.325  11.019   6.848
38229SOL    HW116584  14.395  11.043   6.909
38229SOL    HW216585  14.324  10.923   6.850
38230SOL     OW16586   1.887   3.239   0.134
38230SOL    HW116587   1.962   3.181   0.120
38230SOL    HW216588   1.812   3.180   0.144
38231SOL     OW16589   1.192  12.259  11.365
38231SOL    HW116590   1.110  12.250  11.413
38231SOL    HW216591   1.166  12.281  11.276
38232SOL     OW16592   1.429  12.743  11.503
38232SOL    HW116593   1.373  12.782  11.436
38232SOL    HW216594   1.400  12.652  11.508
38233SOL     OW16595   5.108   0.130   9.541
38233SOL    HW116596   5.102   0.138   9.446
38233SOL    HW216597   5.124   0.037   9.557
38234SOL     OW16598  12.913  10.663   1.126
38234SOL    HW116599  12.985  10.602   1.113
38234SOL    HW216600  12.834  10.611   1.111
38235SOL     OW16601  10.046  11.648  13.426
38235SOL    HW116602  10.112  11.620  13.363
38235SOL    HW216603   9.973  11.679  13.373
38236SOL     OW16604  11.921  12.957   3.141
38236SOL    HW116605  11.839  12.941   3.187
38236SOL    HW216606  11.989  12.923   3.199
38237SOL     OW16607  10.358  13.838  11.513
38237SOL    HW116608  10.311  13.912  11.552
38237SOL    HW216609  10.374  13.866  11.423
38238SOL     OW16610  14.065   1.687   0.581
38238SOL    HW116611  13.970   1.686   0.567
38238SOL    HW216612  14.081   1.614   0.641
38239SOL     OW16613   7.073   7.654   9.560
38239SOL    HW116614   7.071   7.744   9.592
38239SOL    HW216615   7.099   7.602   9.637
38240SOL     OW16616   1.123   8.793   4.463
38240SOL    HW116617   1.162   8.708   4.483
38240SOL    HW216618   1.198   8.849   4.443
38241SOL     OW16619  11.863   5.488   8.576
38241SOL    HW116620  11.824   5.517   8.494
38241SOL    HW216621  11.855   5.393   8.574
38242SOL     OW16622   4.259  12.911   3.606
38242SOL    HW116623   4.281  12.946   3.520
38242SOL    HW216624   4.335  12.859   3.631
38243SOL     OW16625   3.487   9.858  14.211
38243SOL    HW116626   3.526   9.871  14.298
38243SOL    HW216627   3.540   9.790  14.171
38244SOL     OW16628   3.132   5.843  11.839
38244SOL    HW116629   3.113   5.923  11.888
38244SOL    HW216630   3.140   5.775  11.906
38245SOL     OW16631   1.274   4.911   8.824
38245SOL    HW116632   1.260   4.866   8.907
38245SOL    HW216633   1.194   4.963   8.811
38246SOL     OW16634   0.774   9.743  13.441
38246SOL    HW116635   0.754   9.673  13.502
38246SOL    HW216636   0.730   9.820  13.477
38247SOL     OW16637   5.004   9.722  11.832
38247SOL    HW116638   5.092   9.703  11.863
38247SOL    HW216639   4.995   9.817  11.841
38248SOL     OW16640  11.594   5.959   5.740
38248SOL    HW116641  11.673   5.986   5.786
38248SOL    HW216642  11.542   6.039   5.732
38249SOL     OW16643   2.043   4.149   7.462
38249SOL    HW116644   1.976   4.136   7.529
38249SOL    HW216645   2.006   4.215   7.404
38250SOL     OW16646   4.878   4.214   1.674
38250SOL    HW116647   4.797   4.254   1.640
38250SOL    HW216648   4.911   4.162   1.600
38251SOL     OW16649  11.481   7.536   8.926
38251SOL    HW116650  11.461   7.604   8.862
38251SOL    HW216651  11.447   7.455   8.887
38252SOL     OW16652  12.916   9.207   0.492
38252SOL    HW116653  12.826   9.177   0.498
38252SOL    HW216654  12.967   9.129   0.469
38253SOL     OW16655   1.813  10.151   4.997
38253SOL    HW116656   1.884  10.088   4.981
38253SOL    HW216657   1.830  10.185   5.084
38254SOL     OW16658   9.853   1.511   4.286
38254SOL    HW116659   9.879   1.597   4.253
38254SOL    HW216660   9.934   1.474   4.322
38255SOL     OW16661   0.527   6.276   6.966
38255SOL    HW116662   0.473   6.221   7.023
38255SOL    HW216663   0.608   6.289   7.015
38256SOL     OW16664  10.385   3.942  12.249
38256SOL    HW116665  10.347   3.991  12.176
38256SOL    HW216666  10.478   3.936  12.227
38257SOL     OW16667   4.043  14.622   8.511
38257SOL    HW116668   3.992  14.545   8.484
38257SOL    HW216669   4.110  14.586   8.570
38258SOL     OW16670   1.140   9.433  12.305
38258SOL    HW116671   1.108   9.364  12.362
38258SOL    HW216672   1.157   9.507  12.363
38259SOL     OW16673   1.363   7.813   5.527
38259SOL    HW116674   1.328   7.778   5.446
38259SOL    HW216675   1.458   7.809   5.516
38260SOL     OW16676   8.966   9.489   0.948
38260SOL    HW116677   9.059   9.506   0.964
38260SOL    HW216678   8.966   9.430   0.872
38261SOL     OW16679   2.910   1.097  10.191
38261SOL    HW116680   2.947   1.054  10.268
38261SOL    HW216681   2.815   1.088  10.202
38262SOL     OW16682   6.356   6.220   8.436
38262SOL    HW116683   6.341   6.136   8.393
38262SOL    HW216684   6.434   6.256   8.393
38263SOL     OW16685   4.045   3.163   2.235
38263SOL    HW116686   4.003   3.156   2.320
38263SOL    HW216687   4.084   3.250   2.234
38264SOL     OW16688   9.039  12.703   9.272
38264SOL    HW116689   9.127  12.677   9.246
38264SOL    HW216690   8.984  12.684   9.195
38265SOL     OW16691   9.743   5.977  13.588
38265SOL    HW116692   9.743   5.994  13.682
38265SOL    HW216693   9.655   6.003  13.559
38266SOL     OW16694   4.378   8.083   8.522
38266SOL    HW116695   4.446   8.060   8.459
38266SOL    HW216696   4.351   7.999   8.560
38267SOL     OW16697   1.556   9.839  12.445
38267SOL    HW116698   1.542   9.928  12.411
38267SOL    HW216699   1.650   9.824  12.433
38268SOL     OW16700  13.570  10.642   3.689
38268SOL    HW116701  13.653  10.604   3.658
38268SOL    HW216702  13.503  10.599   3.636
38269SOL     OW16703   6.580   0.193   1.559
38269SOL    HW116704   6.586   0.230   1.470
38269SOL    HW216705   6.496   0.226   1.592
38270SOL     OW16706  13.876   1.495   9.980
38270SOL    HW116707  13.780   1.492   9.982
38270SOL    HW216708  13.898   1.585  10.005
38271SOL     OW16709  10.975   5.742   2.524
38271SOL    HW116710  10.963   5.756   2.430
38271SOL    HW216711  11.043   5.805   2.549
38272SOL     OW16712   2.431   3.574   7.608
38272SOL    HW116713   2.420   3.643   7.673
38272SOL    HW216714   2.494   3.514   7.648
38273SOL     OW16715   0.315   3.815   4.591
38273SOL    HW116716   0.263   3.890   4.561
38273SOL    HW216717   0.254   3.741   4.588
38274SOL     OW16718   5.824  12.927   0.906
38274SOL    HW116719   5.753  12.991   0.898
38274SOL    HW216720   5.843  12.901   0.816
38275SOL     OW16721  11.692  11.863  11.993
38275SOL    HW116722  11.623  11.821  12.044
38275SOL    HW216723  11.762  11.881  12.057
38276SOL     OW16724   4.897  10.289  14.837
38276SOL    HW116725   4.806  10.306  14.812
38276SOL    HW216726   4.902  10.319   0.050
38277SOL     OW16727  14.809   3.833   2.702
38277SOL    HW116728  14.755   3.884   2.763
38277SOL    HW216729  14.832   3.896   2.634
38278SOL     OW16730   5.206   1.206  10.357
38278SOL    HW116731   5.143   1.141  10.325
38278SOL    HW216732   5.153   1.281  10.381
38279SOL     OW16733   7.603  10.769   9.380
38279SOL    HW116734   7.653  10.734   9.306
38279SOL    HW216735   7.668  10.817   9.431
38280SOL     OW16736   1.653   4.022   6.297
38280SOL    HW116737   1.668   4.116   6.288
38280SOL    HW216738   1.710   3.996   6.370
38281SOL     OW16739   7.953  14.575  10.483
38281SOL    HW116740   8.004  14.550  10.406
38281SOL    HW216741   7.892  14.503  10.496
38282SOL     OW16742   4.536  14.469  11.196
38282SOL    HW116743   4.577  14.394  11.151
38282SOL    HW216744   4.474  14.504  11.132
38283SOL     OW16745   1.138  11.395  14.762
38283SOL    HW116746   1.202  11.458  14.727
38283SOL    HW216747   1.095  11.359  14.684
38284SOL     OW16748  13.059   8.654   6.227
38284SOL    HW116749  12.971   8.642   6.191
38284SOL    HW216750  13.116   8.651   6.151
38285SOL     OW16751  14.550  10.673   6.712
38285SOL    HW116752  14.459  10.670   6.742
38285SOL    HW216753  14.560  10.596   6.657
38286SOL     OW16754  12.149   1.679   7.872
38286SOL    HW116755  12.084   1.740   7.838
38286SOL    HW216756  12.206   1.659   7.798
38287SOL     OW16757  11.345  11.853  14.602
38287SOL    HW116758  11.276  11.788  14.587
38287SOL    HW216759  11.426  11.802  14.603
38288SOL     OW16760  10.509   2.981   1.230
38288SOL    HW116761  10.586   2.925   1.218
38288SOL    HW216762  10.534   3.064   1.188
38289SOL     OW16763  13.741   0.217   5.236
38289SOL    HW116764  13.741   0.156   5.162
38289SOL    HW216765  13.747   0.160   5.313
38290SOL     OW16766  10.461   0.098   5.401
38290SOL    HW116767  10.386   0.058   5.445
38290SOL    HW216768  10.494   0.163   5.463
38291SOL     OW16769   6.661   7.519   8.196
38291SOL    HW116770   6.654   7.425   8.177
38291SOL    HW216771   6.746   7.529   8.239
38292SOL     OW16772  10.029  11.567   8.972
38292SOL    HW116773   9.958  11.527   9.024
38292SOL    HW216774  10.091  11.599   9.037
38293SOL     OW16775  14.752  12.265   2.764
38293SOL    HW116776  14.664  12.238   2.736
38293SOL    HW216777  14.808  12.245   2.688
38294SOL     OW16778   6.315   6.956  11.578
38294SOL    HW116779   6.370   6.883  11.548
38294SOL    HW216780   6.226   6.922  11.575
38295SOL     OW16781  13.902   6.397   9.835
38295SOL    HW116782  13.931   6.437   9.918
38295SOL    HW216783  13.809   6.420   9.829
38296SOL     OW16784   8.147  14.626   9.827
38296SOL    HW116785   8.201  14.547   9.821
38296SOL    HW216786   8.208  14.696   9.848
38297SOL     OW16787   0.116  14.251  12.253
38297SOL    HW116788   0.027  14.217  12.261
38297SOL    HW216789   0.139  14.280  12.342
38298SOL     OW16790  12.854  12.988   8.831
38298SOL    HW116791  12.860  13.082   8.847
38298SOL    HW216792  12.813  12.953   8.910
38299SOL     OW16793   3.821   0.820  11.442
38299SOL    HW116794   3.818   0.916  11.442
38299SOL    HW216795   3.874   0.798  11.365
38300SOL     OW16796  12.534  10.977  11.368
38300SOL    HW116797  12.474  11.036  11.321
38300SOL    HW216798  12.616  11.027  11.374
38301SOL     OW16799  13.757   4.455  11.461
38301SOL    HW116800  13.698   4.503  11.519
38301SOL    HW216801  13.816   4.407  11.520
38302SOL     OW16802  13.735   1.064  13.994
38302SOL    HW116803  13.699   0.980  13.965
38302SOL    HW216804  13.721   1.123  13.920
38303SOL     OW16805   2.116   8.316   1.691
38303SOL    HW116806   2.150   8.374   1.759
38303SOL    HW216807   2.193   8.271   1.657
38304SOL     OW16808   5.179   1.953  12.067
38304SOL    HW116809   5.182   1.898  12.145
38304SOL    HW216810   5.176   2.043  12.100
38305SOL     OW16811  10.586  11.887   9.512
38305SOL    HW116812  10.510  11.851   9.467
38305SOL    HW216813  10.624  11.950   9.449
38306SOL     OW16814   1.750  12.766   2.330
38306SOL    HW116815   1.672  12.712   2.346
38306SOL    HW216816   1.718  12.840   2.279
38307SOL     OW16817   0.722   7.058   5.653
38307SOL    HW116818   0.813   7.050   5.681
38307SOL    HW216819   0.702   6.972   5.614
38308SOL     OW16820   8.815   8.531   5.253
38308SOL    HW116821   8.898   8.574   5.274
38308SOL    HW216822   8.747   8.591   5.284
38309SOL     OW16823  11.441   8.542   6.072
38309SOL    HW116824  11.354   8.515   6.043
38309SOL    HW216825  11.502   8.486   6.023
38310SOL     OW16826  13.706   0.486   0.240
38310SOL    HW116827  13.693   0.569   0.285
38310SOL    HW216828  13.775   0.442   0.290
38311SOL     OW16829   4.410  13.753   4.257
38311SOL    HW116830   4.477  13.705   4.208
38311SOL    HW216831   4.389  13.828   4.201
38312SOL     OW16832  10.875   5.647   6.866
38312SOL    HW116833  10.947   5.604   6.820
38312SOL    HW216834  10.912   5.730   6.897
38313SOL     OW16835   3.598   7.664   1.083
38313SOL    HW116836   3.681   7.710   1.094
38313SOL    HW216837   3.538   7.710   1.141
38314SOL     OW16838   2.861  10.408  14.234
38314SOL    HW116839   2.785  10.437  14.284
38314SOL    HW216840   2.909  10.488  14.216
38315SOL     OW16841  13.883   7.584   5.511
38315SOL    HW116842  13.856   7.648   5.577
38315SOL    HW216843  13.848   7.618   5.429
38316SOL     OW16844   7.032  14.059   4.316
38316SOL    HW116845   7.093  14.109   4.370
38316SOL    HW216846   7.006  14.120   4.246
38317SOL     OW16847   6.319   6.734  14.352
38317SOL    HW116848   6.349   6.702  14.437
38317SOL    HW216849   6.237   6.688  14.337
38318SOL     OW16850   4.231   6.842   5.450
38318SOL    HW116851   4.274   6.887   5.523
38318SOL    HW216852   4.245   6.749   5.468
38319SOL     OW16853   3.894  10.057  11.482
38319SOL    HW116854   3.923  10.109  11.407
38319SOL    HW216855   3.941  10.093  11.557
38320SOL     OW16856   1.723   3.227   8.706
38320SOL    HW116857   1.798   3.198   8.758
38320SOL    HW216858   1.762   3.264   8.627
38321SOL     OW16859   9.251   2.213   8.026
38321SOL    HW116860   9.290   2.174   7.947
38321SOL    HW216861   9.187   2.148   8.055
38322SOL     OW16862  11.958   0.447   9.146
38322SOL    HW116863  11.946   0.357   9.115
38322SOL    HW216864  11.869   0.481   9.155
38323SOL     OW16865   7.714   2.257  13.187
38323SOL    HW116866   7.779   2.191  13.212
38323SOL    HW216867   7.630   2.211  13.193
38324SOL     OW16868   5.138   9.059  10.809
38324SOL    HW116869   5.185   9.087  10.887
38324SOL    HW216870   5.081   8.988  10.840
38325SOL     OW16871   6.491   1.246  12.567
38325SOL    HW116872   6.412   1.196  12.586
38325SOL    HW216873   6.500   1.306  12.640
38326SOL     OW16874   9.285   3.082   4.510
38326SOL    HW116875   9.220   3.019   4.478
38326SOL    HW216876   9.276   3.080   4.605
38327SOL     OW16877  14.827  10.213   5.625
38327SOL    HW116878  14.850  10.174   5.709
38327SOL    HW216879  14.852  10.148   5.560
38328SOL     OW16880   3.682   5.822   5.116
38328SOL    HW116881   3.747   5.833   5.046
38328SOL    HW216882   3.655   5.912   5.136
38329SOL     OW16883   3.652   3.323   4.132
38329SOL    HW116884   3.600   3.259   4.082
38329SOL    HW216885   3.610   3.326   4.218
38330SOL     OW16886   6.080  12.048   9.689
38330SOL    HW116887   6.047  11.962   9.714
38330SOL    HW216888   6.034  12.068   9.607
38331SOL     OW16889   9.229   2.320  14.388
38331SOL    HW116890   9.290   2.394  14.384
38331SOL    HW216891   9.196   2.321  14.478
38332SOL     OW16892   7.214  13.003  11.381
38332SOL    HW116893   7.272  13.051  11.322
38332SOL    HW216894   7.184  13.068  11.444
38333SOL     OW16895   6.334  11.316   1.032
38333SOL    HW116896   6.337  11.319   1.128
38333SOL    HW216897   6.241  11.319   1.011
38334SOL     OW16898   4.923   7.568   7.484
38334SOL    HW116899   4.888   7.644   7.438
38334SOL    HW216900   5.016   7.589   7.498
38335SOL     OW16901   7.486  11.349  10.711
38335SOL    HW116902   7.539  11.400  10.649
38335SOL    HW216903   7.455  11.414  10.774
38336SOL     OW16904   1.883  12.701  11.971
38336SOL    HW116905   1.798  12.700  12.015
38336SOL    HW216906   1.873  12.640  11.898
38337SOL     OW16907  12.787   9.254  11.475
38337SOL    HW116908  12.874   9.237  11.509
38337SOL    HW216909  12.740   9.296  11.547
38338SOL     OW16910   6.958   2.380  12.765
38338SOL    HW116911   6.941   2.286  12.777
38338SOL    HW216912   6.927   2.398  12.676
38339SOL     OW16913   5.285   6.069   8.351
38339SOL    HW116914   5.193   6.093   8.356
38339SOL    HW216915   5.323   6.129   8.287
38340SOL     OW16916   6.238  12.162   9.868
38340SOL    HW116917   6.216  12.113   9.947
38340SOL    HW216918   6.172  12.135   9.804
38341SOL     OW16919   4.349   9.903   5.456
38341SOL    HW116920   4.286   9.831   5.453
38341SOL    HW216921   4.318   9.963   5.388
38342SOL     OW16922   7.155   1.501   7.142
38342SOL    HW116923   7.097   1.445   7.195
38342SOL    HW216924   7.192   1.562   7.205
38343SOL     OW16925  11.344   2.290   5.990
38343SOL    HW116926  11.394   2.364   6.024
38343SOL    HW216927  11.403   2.246   5.930
38344SOL     OW16928  10.754   0.839   2.498
38344SOL    HW116929  10.756   0.769   2.434
38344SOL    HW216930  10.684   0.897   2.468
38345SOL     OW16931  11.189   8.785   6.650
38345SOL    HW116932  11.238   8.705   6.633
38345SOL    HW216933  11.243   8.835   6.711
38346SOL     OW16934   5.893   5.071   7.488
38346SOL    HW116935   5.986   5.084   7.507
38346SOL    HW216936   5.888   4.985   7.448
38347SOL     OW16937  13.805   6.440   6.967
38347SOL    HW116938  13.899   6.431   6.978
38347SOL    HW216939  13.784   6.384   6.892
38348SOL     OW16940   3.450   0.797  12.047
38348SOL    HW116941   3.539   0.804  12.013
38348SOL    HW216942   3.440   0.875  12.103
38349SOL     OW16943   1.016   9.800   2.757
38349SOL    HW116944   1.044   9.720   2.802
38349SOL    HW216945   1.017   9.867   2.826
38350SOL     OW16946  13.028  12.575   7.941
38350SOL    HW116947  12.973  12.574   8.020
38350SOL    HW216948  12.973  12.536   7.874
38351SOL     OW16949   2.107  14.393   5.922
38351SOL    HW116950   2.125  14.349   6.005
38351SOL    HW216951   2.169  14.466   5.919
38352SOL     OW16952  12.947   4.948  10.737
38352SOL    HW116953  12.972   5.040  10.732
38352SOL    HW216954  13.016   4.907  10.789
38353SOL     OW16955   4.240   1.354  13.403
38353SOL    HW116956   4.217   1.424  13.341
38353SOL    HW216957   4.301   1.299  13.354
38354SOL     OW16958   4.709  11.747   8.473
38354SOL    HW116959   4.647  11.711   8.410
38354SOL    HW216960   4.655  11.798   8.534
38355SOL     OW16961  11.355  12.057   5.570
38355SOL    HW116962  11.448  12.079   5.583
38355SOL    HW216963  11.356  11.970   5.531
38356SOL     OW16964   8.211   3.393   5.355
38356SOL    HW116965   8.247   3.364   5.439
38356SOL    HW216966   8.286   3.390   5.295
38357SOL     OW16967   1.542   3.729  12.249
38357SOL    HW116968   1.531   3.674  12.171
38357SOL    HW216969   1.575   3.812  12.215
38358SOL     OW16970  11.351   0.376   7.936
38358SOL    HW116971  11.376   0.306   7.875
38358SOL    HW216972  11.299   0.437   7.883
38359SOL     OW16973   0.048  10.681   7.995
38359SOL    HW116974   0.132  10.637   7.983
38359SOL    HW216975   0.007  10.678   7.909
38360SOL     OW16976   7.891   7.648   9.646
38360SOL    HW116977   7.826   7.625   9.580
38360SOL    HW216978   7.868   7.737   9.673
38361SOL     OW16979  14.815   7.511   1.587
38361SOL    HW116980  14.808   7.603   1.612
38361SOL    HW216981  14.763   7.504   1.507
38362SOL     OW16982   1.873   9.033  11.726
38362SOL    HW116983   1.804   9.084  11.768
38362SOL    HW216984   1.942   9.096  11.708
38363SOL     OW16985  13.935   6.820  12.067
38363SOL    HW116986  13.947   6.866  11.984
38363SOL    HW216987  13.844   6.789  12.064
38364SOL     OW16988   6.632  11.976   9.626
38364SOL    HW116989   6.556  11.997   9.680
38364SOL    HW216990   6.653  12.057   9.581
38365SOL     OW16991   0.617   8.961  10.228
38365SOL    HW116992   0.602   8.881  10.178
38365SOL    HW216993   0.575   9.029  10.175
38366SOL     OW16994   4.036   3.601   6.020
38366SOL    HW116995   3.995   3.603   6.107
38366SOL    HW216996   4.007   3.682   5.978
38367SOL     OW16997  10.918   8.830   0.791
38367SOL    HW116998  10.878   8.756   0.746
38367SOL    HW216999  10.999   8.794   0.829
38368SOL     OW17000  10.189  14.417   3.412
38368SOL    HW117001  10.145  14.454   3.335
38368SOL    HW217002  10.120  14.372   3.460
38369SOL     OW17003   6.539  10.072   2.324
38369SOL    HW117004   6.458  10.022   2.328
38369SOL    HW217005   6.516  10.159   2.356
38370SOL     OW17006   2.905   6.791   6.850
38370SOL    HW117007   2.821   6.816   6.890
38370SOL    HW217008   2.946   6.733   6.913
38371SOL     OW17009   6.253   2.930   1.988
38371SOL    HW117010   6.270   3.004   2.046
38371SOL    HW217011   6.203   2.967   1.915
38372SOL     OW17012   2.584   1.565   9.743
38372SOL    HW117013   2.626   1.479   9.736
38372SOL    HW217014   2.626   1.606   9.818
38373SOL     OW17015   7.872   8.317   3.343
38373SOL    HW117016   7.945   8.265   3.310
38373SOL    HW217017   7.794   8.271   3.313
38374SOL     OW17018  11.669   4.474   5.064
38374SOL    HW117019  11.597   4.527   5.029
38374SOL    HW217020  11.746   4.503   5.014
38375SOL     OW17021   9.318   2.667   6.100
38375SOL    HW117022   9.358   2.752   6.116
38375SOL    HW217023   9.347   2.644   6.011
38376SOL     OW17024  10.883   0.006   2.761
38376SOL    HW117025  10.810  14.824   2.775
38376SOL    HW217026  10.899   0.003   2.667
38377SOL     OW17027   7.397   1.585   5.223
38377SOL    HW117028   7.367   1.522   5.157
38377SOL    HW217029   7.481   1.617   5.188
38378SOL     OW17030   0.496   4.535   7.727
38378SOL    HW117031   0.456   4.604   7.675
38378SOL    HW217032   0.589   4.537   7.703
38379SOL     OW17033   8.736   3.804   2.997
38379SOL    HW117034   8.825   3.841   2.999
38379SOL    HW217035   8.729   3.756   3.079
38380SOL     OW17036   3.505   5.817  10.677
38380SOL    HW117037   3.431   5.771  10.719
38380SOL    HW217038   3.581   5.792  10.729
38381SOL     OW17039   2.717   1.434   6.144
38381SOL    HW117040   2.752   1.513   6.186
38381SOL    HW217041   2.657   1.467   6.077
38382SOL     OW17042  13.705  12.603   2.404
38382SOL    HW117043  13.799  12.593   2.393
38382SOL    HW217044  13.667  12.557   2.329
38383SOL     OW17045  10.209   2.294  11.373
38383SOL    HW117046  10.242   2.208  11.396
38383SOL    HW217047  10.213   2.344  11.454
38384SOL     OW17048   5.606   0.836  13.822
38384SOL    HW117049   5.641   0.920  13.852
38384SOL    HW217050   5.564   0.855  13.739
38385SOL     OW17051  12.812  11.529   5.827
38385SOL    HW117052  12.872  11.553   5.897
38385SOL    HW217053  12.760  11.457   5.864
38386SOL     OW17054   2.666   6.432   4.173
38386SOL    HW117055   2.721   6.469   4.242
38386SOL    HW217056   2.658   6.339   4.195
38387SOL     OW17057   8.868  12.077  12.533
38387SOL    HW117058   8.865  11.996  12.483
38387SOL    HW217059   8.869  12.147  12.467
38388SOL     OW17060   9.452   0.785   6.623
38388SOL    HW117061   9.452   0.881   6.619
38388SOL    HW217062   9.544   0.761   6.613
38389SOL     OW17063  14.799  10.310  12.117
38389SOL    HW117064  14.711  10.318  12.153
38389SOL    HW217065  14.793  10.238  12.054
38390SOL     OW17066   6.193   5.139  14.562
38390SOL    HW117067   6.242   5.221  14.557
38390SOL    HW217068   6.181   5.111  14.471
38391SOL     OW17069   3.630  13.771  12.921
38391SOL    HW117070   3.664  13.787  12.832
38391SOL    HW217071   3.618  13.677  12.925
38392SOL     OW17072   3.553   5.645  14.681
38392SOL    HW117073   3.492   5.577  14.709
38392SOL    HW217074   3.501   5.703  14.625
38393SOL     OW17075  12.381   3.786   7.608
38393SOL    HW117076  12.447   3.851   7.583
38393SOL    HW217077  12.340   3.822   7.686
38394SOL     OW17078   9.557  14.454   8.710
38394SOL    HW117079   9.529  14.387   8.648
38394SOL    HW217080   9.649  14.432   8.729
38395SOL     OW17081   4.341   6.909   5.782
38395SOL    HW117082   4.384   6.995   5.778
38395SOL    HW217083   4.407   6.852   5.821
38396SOL     OW17084   0.069   0.061   5.937
38396SOL    HW117085   0.156   0.089   5.910
38396SOL    HW217086   0.048  14.866   5.879
38397SOL     OW17087   9.892   5.283   6.418
38397SOL    HW117088   9.944   5.289   6.338
38397SOL    HW217089   9.805   5.259   6.388
38398SOL     OW17090   5.565  10.874  12.935
38398SOL    HW117091   5.513  10.873  12.854
38398SOL    HW217092   5.596  10.784  12.945
38399SOL     OW17093   5.120   6.990  12.327
38399SOL    HW117094   5.169   6.912  12.302
38399SOL    HW217095   5.034   6.957  12.353
38400SOL     OW17096   1.211   6.305   7.638
38400SOL    HW117097   1.119   6.278   7.631
38400SOL    HW217098   1.212   6.367   7.710
38401SOL     OW17099  11.869   8.412   4.105
38401SOL    HW117100  11.815   8.453   4.038
38401SOL    HW217101  11.820   8.334   4.132
38402SOL     OW17102   3.226   3.207   7.355
38402SOL    HW117103   3.164   3.273   7.324
38402SOL    HW217104   3.228   3.142   7.285
38403SOL     OW17105   7.460  12.739   2.245
38403SOL    HW117106   7.377  12.762   2.204
38403SOL    HW217107   7.512  12.820   2.240
38404SOL     OW17108   4.718   3.717   6.605
38404SOL    HW117109   4.717   3.623   6.586
38404SOL    HW217110   4.650   3.754   6.549
38405SOL     OW17111  13.801   9.407   7.984
38405SOL    HW117112  13.843   9.340   8.037
38405SOL    HW217113  13.832   9.490   8.019
38406SOL     OW17114   0.980  12.835   1.463
38406SOL    HW117115   0.926  12.784   1.523
38406SOL    HW217116   0.973  12.788   1.380
38407SOL     OW17117  14.526   1.767  11.769
38407SOL    HW117118  14.500   1.858  11.752
38407SOL    HW217119  14.587   1.773  11.842
38408SOL     OW17120   9.009  14.127   1.146
38408SOL    HW117121   9.016  14.216   1.179
38408SOL    HW217122   8.915  14.115   1.129
38409SOL     OW17123   1.620   6.732  14.547
38409SOL    HW117124   1.605   6.693  14.634
38409SOL    HW217125   1.542   6.711  14.497
38410SOL     OW17126   4.854   8.913   6.569
38410SOL    HW117127   4.929   8.865   6.536
38410SOL    HW217128   4.888   8.963   6.644
38411SOL     OW17129   6.118   0.109   2.622
38411SOL    HW117130   6.195   0.158   2.650
38411SOL    HW217131   6.045   0.153   2.665
38412SOL     OW17132   9.243  12.428   3.173
38412SOL    HW117133   9.242  12.382   3.089
38412SOL    HW217134   9.173  12.386   3.224
38413SOL     OW17135  11.854  10.013  11.079
38413SOL    HW117136  11.941  10.047  11.058
38413SOL    HW217137  11.793  10.079  11.044
38414SOL     OW17138   3.259   8.962  11.007
38414SOL    HW117139   3.334   8.949  10.950
38414SOL    HW217140   3.251   9.057  11.015
38415SOL     OW17141   4.667   4.150  11.308
38415SOL    HW117142   4.653   4.244  11.322
38415SOL    HW217143   4.664   4.139  11.213
38416SOL     OW17144   2.926  10.138  11.322
38416SOL    HW117145   2.855  10.193  11.354
38416SOL    HW217146   2.989  10.135  11.394
38417SOL     OW17147   2.000   9.450  10.515
38417SOL    HW117148   1.962   9.419  10.597
38417SOL    HW217149   1.979   9.381  10.452
38418SOL     OW17150   8.446   0.127  13.050
38418SOL    HW117151   8.503   0.072  12.996
38418SOL    HW217152   8.506   0.184  13.099
38419SOL     OW17153   9.407   8.607   5.691
38419SOL    HW117154   9.372   8.655   5.766
38419SOL    HW217155   9.360   8.524   5.691
38420SOL     OW17156   9.307   2.387   1.729
38420SOL    HW117157   9.393   2.347   1.738
38420SOL    HW217158   9.282   2.370   1.638
38421SOL     OW17159   3.774   9.210  11.271
38421SOL    HW117160   3.697   9.153  11.266
38421SOL    HW217161   3.763   9.259  11.352
38422SOL     OW17162   6.830   1.405  10.893
38422SOL    HW117163   6.777   1.444  10.963
38422SOL    HW217164   6.843   1.314  10.921
38423SOL     OW17165   7.559  12.090   8.479
38423SOL    HW117166   7.570  12.076   8.385
38423SOL    HW217167   7.603  12.174   8.496
38424SOL     OW17168   8.714  10.137  14.010
38424SOL    HW117169   8.661  10.205  13.968
38424SOL    HW217170   8.678  10.054  13.976
38425SOL     OW17171  13.079   1.721   4.393
38425SOL    HW117172  13.116   1.740   4.480
38425SOL    HW217173  13.098   1.800   4.342
38426SOL     OW17174   2.853   3.612   0.457
38426SOL    HW117175   2.793   3.642   0.388
38426SOL    HW217176   2.806   3.631   0.539
38427SOL     OW17177   8.727  12.025   7.507
38427SOL    HW117178   8.670  12.048   7.580
38427SOL    HW217179   8.768  12.108   7.481
38428SOL     OW17180   7.410  12.249   6.259
38428SOL    HW117181   7.456  12.178   6.303
38428SOL    HW217182   7.369  12.208   6.183
38429SOL     OW17183   4.107   1.042   6.117
38429SOL    HW117184   4.090   0.949   6.127
38429SOL    HW217185   4.149   1.068   6.199
38430SOL     OW17186   9.243  14.684  10.485
38430SOL    HW117187   9.287  14.725  10.411
38430SOL    HW217188   9.237  14.754  10.551
38431SOL     OW17189   6.729   4.073   7.332
38431SOL    HW117190   6.724   4.021   7.251
38431SOL    HW217191   6.822   4.093   7.341
38432SOL     OW17192   8.041   4.614  10.977
38432SOL    HW117193   8.102   4.682  11.008
38432SOL    HW217194   8.044   4.621  10.882
38433SOL     OW17195   3.623   4.540   7.918
38433SOL    HW117196   3.603   4.574   8.005
38433SOL    HW217197   3.559   4.470   7.904
38434SOL     OW17198   1.668   7.509  10.450
38434SOL    HW117199   1.723   7.455  10.392
38434SOL    HW217200   1.715   7.592  10.457
38435SOL     OW17201  14.844   2.822   8.276
38435SOL    HW117202  14.809   2.864   8.354
38435SOL    HW217203  14.853   2.894   8.213
38436SOL     OW17204  13.560   7.474   4.910
38436SOL    HW117205  13.645   7.453   4.948
38436SOL    HW217206  13.552   7.569   4.918
38437SOL     OW17207  12.712   4.072   0.734
38437SOL    HW117208  12.749   4.087   0.647
38437SOL    HW217209  12.621   4.100   0.726
38438SOL     OW17210  14.664   8.086   7.086
38438SOL    HW117211  14.722   8.012   7.068
38438SOL    HW217212  14.715   8.163   7.062
38439SOL     OW17213   6.401  11.171  10.150
38439SOL    HW117214   6.431  11.208  10.233
38439SOL    HW217215   6.423  11.238  10.085
38440SOL     OW17216   8.265   0.127  12.845
38440SOL    HW117217   8.330   0.134  12.915
38440SOL    HW217218   8.293   0.192  12.780
38441SOL     OW17219   2.366   7.261   4.839
38441SOL    HW117220   2.295   7.198   4.851
38441SOL    HW217221   2.446   7.209   4.852
38442SOL     OW17222  14.722   7.115   9.629
38442SOL    HW117223  14.664   7.185   9.656
38442SOL    HW217224  14.782   7.103   9.703
38443SOL     OW17225   9.785   7.490   4.271
38443SOL    HW117226   9.881   7.485   4.273
38443SOL    HW217227   9.763   7.558   4.335
38444SOL     OW17228   1.639   7.140  14.305
38444SOL    HW117229   1.712   7.202  14.311
38444SOL    HW217230   1.642   7.093  14.389
38445SOL     OW17231   1.055  11.418   3.316
38445SOL    HW117232   0.995  11.392   3.386
38445SOL    HW217233   1.014  11.494   3.275
38446SOL     OW17234   6.648   7.618   3.002
38446SOL    HW117235   6.608   7.653   2.923
38446SOL    HW217236   6.691   7.537   2.974
38447SOL     OW17237   0.235   1.617   7.764
38447SOL    HW117238   0.207   1.701   7.799
38447SOL    HW217239   0.327   1.610   7.788
38448SOL     OW17240  11.138  12.958   9.783
38448SOL    HW117241  11.161  12.983   9.872
38448SOL    HW217242  11.105  13.038   9.743
38449SOL     OW17243   0.720  11.906   2.836
38449SOL    HW117244   0.794  11.862   2.795
38449SOL    HW217245   0.724  11.996   2.803
38450SOL     OW17246  14.824   5.945  11.667
38450SOL    HW117247  14.816   6.038  11.646
38450SOL    HW217248  14.827   5.902  11.581
38451SOL     OW17249   8.122   3.907   2.092
38451SOL    HW117250   8.118   3.864   2.178
38451SOL    HW217251   8.134   3.835   2.030
38452SOL     OW17252  14.643  13.909  12.183
38452SOL    HW117253  14.644  14.004  12.175
38452SOL    HW217254  14.551  13.885  12.179
38453SOL     OW17255  12.749  10.351   0.900
38453SOL    HW117256  12.674  10.319   0.850
38453SOL    HW217257  12.716  10.429   0.945
38454SOL     OW17258   0.163   1.959   7.366
38454SOL    HW117259   0.172   1.934   7.458
38454SOL    HW217260   0.075   1.995   7.360
38455SOL     OW17261   7.852   6.392  11.371
38455SOL    HW117262   7.890   6.479  11.382
38455SOL    HW217263   7.768   6.397  11.417
38456SOL     OW17264  10.306   1.786   4.270
38456SOL    HW117265  10.295   1.812   4.361
38456SOL    HW217266  10.281   1.863   4.220
38457SOL     OW17267  10.685   6.013   6.819
38457SOL    HW117268  10.676   6.105   6.842
38457SOL    HW217269  10.687   5.968   6.904
38458SOL     OW17270   7.558  11.093  10.927
38458SOL    HW117271   7.545  11.147  10.849
38458SOL    HW217272   7.477  11.043  10.935
38459SOL     OW17273   0.548  11.909   3.057
38459SOL    HW117274   0.587  11.991   3.085
38459SOL    HW217275   0.602  11.880   2.984
38460SOL     OW17276   3.585   1.012   2.344
38460SOL    HW117277   3.494   1.018   2.313
38460SOL    HW217278   3.599   1.093   2.391
38461SOL     OW17279   0.296   2.684   6.732
38461SOL    HW117280   0.362   2.732   6.783
38461SOL    HW217281   0.336   2.598   6.716
38462SOL     OW17282   4.698   5.895  14.200
38462SOL    HW117283   4.666   5.949  14.272
38462SOL    HW217284   4.699   5.806  14.235
38463SOL     OW17285   1.693  11.701   9.545
38463SOL    HW117286   1.782  11.693   9.578
38463SOL    HW217287   1.639  11.663   9.614
38464SOL     OW17288   4.764   5.260  11.404
38464SOL    HW117289   4.723   5.264  11.318
38464SOL    HW217290   4.767   5.351  11.434
38465SOL     OW17291   1.955   4.054  12.940
38465SOL    HW117292   2.008   4.042  13.018
38465SOL    HW217293   1.934   3.965  12.912
38466SOL     OW17294   6.971   2.564  12.191
38466SOL    HW117295   6.925   2.642  12.222
38466SOL    HW217296   7.024   2.536  12.266
38467SOL     OW17297  10.766   1.415  12.979
38467SOL    HW117298  10.791   1.324  12.964
38467SOL    HW217299  10.677   1.410  13.014
38468SOL     OW17300   2.704   0.149  10.660
38468SOL    HW117301   2.672   0.089  10.728
38468SOL    HW217302   2.769   0.203  10.704
38469SOL     OW17303   6.005   0.117  12.559
38469SOL    HW117304   6.077   0.059  12.584
38469SOL    HW217305   5.995   0.176  12.633
38470SOL     OW17306   8.642  12.015   9.907
38470SOL    HW117307   8.611  11.945   9.850
38470SOL    HW217308   8.698  12.068   9.851
38471SOL     OW17309   2.924  10.129  10.269
38471SOL    HW117310   2.912  10.060  10.204
38471SOL    HW217311   2.836  10.164  10.283
38472SOL     OW17312   6.763  10.776   4.814
38472SOL    HW117313   6.700  10.836   4.855
38472SOL    HW217314   6.739  10.690   4.848
38473SOL     OW17315   9.823  14.468  13.442
38473SOL    HW117316   9.829  14.477  13.537
38473SOL    HW217317   9.896  14.411  13.418
38474SOL     OW17318  12.741  14.648   5.621
38474SOL    HW117319  12.692  14.582   5.670
38474SOL    HW217320  12.785  14.599   5.552
38475SOL     OW17321  13.964   8.028   0.516
38475SOL    HW117322  14.043   7.978   0.494
38475SOL    HW217323  13.970   8.041   0.611
38476SOL     OW17324   6.516   9.923   7.679
38476SOL    HW117325   6.574   9.854   7.709
38476SOL    HW217326   6.564   9.967   7.610
38477SOL     OW17327  14.226   9.876   8.280
38477SOL    HW117328  14.317   9.846   8.279
38477SOL    HW217329  14.232   9.971   8.277
38478SOL     OW17330   3.939  10.883   0.574
38478SOL    HW117331   3.848  10.911   0.588
38478SOL    HW217332   3.937  10.842   0.487
38479SOL     OW17333  13.484  11.425   1.981
38479SOL    HW117334  13.411  11.369   2.006
38479SOL    HW217335  13.514  11.463   2.063
38480SOL     OW17336   8.145   5.736   4.094
38480SOL    HW117337   8.213   5.795   4.059
38480SOL    HW217338   8.165   5.651   4.054
38481SOL     OW17339   0.565   3.719   4.642
38481SOL    HW117340   0.473   3.744   4.632
38481SOL    HW217341   0.608   3.796   4.678
38482SOL     OW17342   3.953   2.622   0.551
38482SOL    HW117343   3.917   2.619   0.639
38482SOL    HW217344   4.036   2.575   0.557
38483SOL     OW17345   1.959  10.390   3.673
38483SOL    HW117346   1.973  10.422   3.762
38483SOL    HW217347   2.030  10.428   3.622
38484SOL     OW17348  10.906   0.384   4.310
38484SOL    HW117349  10.904   0.376   4.405
38484SOL    HW217350  10.892   0.294   4.279
38485SOL     OW17351   1.015  10.260   0.233
38485SOL    HW117352   1.012  10.188   0.297
38485SOL    HW217353   0.930  10.256   0.189
38486SOL     OW17354   2.245   0.695   1.333
38486SOL    HW117355   2.198   0.724   1.255
38486SOL    HW217356   2.311   0.763   1.347
38487SOL     OW17357  12.650   3.810  11.895
38487SOL    HW117358  12.699   3.840  11.972
38487SOL    HW217359  12.709   3.747  11.853
38488SOL     OW17360   2.623   3.883  10.763
38488SOL    HW117361   2.714   3.857  10.775
38488SOL    HW217362   2.615   3.966  10.811
38489SOL     OW17363   2.045  10.307   5.849
38489SOL    HW117364   2.029  10.400   5.839
38489SOL    HW217365   1.961  10.270   5.874
38490SOL     OW17366   6.566   7.510  13.595
38490SOL    HW117367   6.607   7.533  13.679
38490SOL    HW217368   6.624   7.444  13.558
38491SOL     OW17369   6.392  12.777   7.791
38491SOL    HW117370   6.407  12.720   7.716
38491SOL    HW217371   6.378  12.716   7.864
38492SOL     OW17372   7.181   6.684  10.022
38492SOL    HW117373   7.222   6.759  10.065
38492SOL    HW217374   7.132   6.640  10.091
38493SOL     OW17375   6.947   7.560   2.591
38493SOL    HW117376   6.879   7.598   2.535
38493SOL    HW217377   6.929   7.596   2.678
38494SOL     OW17378  11.830  13.578   1.374
38494SOL    HW117379  11.734  13.569   1.369
38494SOL    HW217380  11.860  13.495   1.410
38495SOL     OW17381   2.705   7.909   6.421
38495SOL    HW117382   2.797   7.898   6.400
38495SOL    HW217383   2.659   7.844   6.368
38496SOL     OW17384   7.368   1.700   1.953
38496SOL    HW117385   7.347   1.626   1.896
38496SOL    HW217386   7.330   1.776   1.909
38497SOL     OW17387   0.718  14.131   9.393
38497SOL    HW117388   0.785  14.132   9.461
38497SOL    HW217389   0.637  14.109   9.440
38498SOL     OW17390   2.766   2.094   8.822
38498SOL    HW117391   2.748   2.037   8.897
38498SOL    HW217392   2.680   2.110   8.783
38499SOL     OW17393   4.643   6.615  13.620
38499SOL    HW117394   4.661   6.705  13.648
38499SOL    HW217395   4.728   6.582  13.590
38500SOL     OW17396   0.659   7.010  11.186
38500SOL    HW117397   0.664   6.965  11.270
38500SOL    HW217398   0.625   6.944  11.125
38501SOL     OW17399  11.225   7.265   3.634
38501SOL    HW117400  11.133   7.244   3.617
38501SOL    HW217401  11.269   7.249   3.550
38502SOL     OW17402  11.846   9.946  11.796
38502SOL    HW117403  11.817   9.854  11.796
38502SOL    HW217404  11.911   9.950  11.866
38503SOL     OW17405  12.983   9.789  13.269
38503SOL    HW117406  13.020   9.769  13.184
38503SOL    HW217407  13.057   9.780  13.330
38504SOL     OW17408   3.195  14.048   6.146
38504SOL    HW117409   3.111  14.021   6.183
38504SOL    HW217410   3.212  13.984   6.077
38505SOL     OW17411  12.995   6.271   4.150
38505SOL    HW117412  13.071   6.321   4.182
38505SOL    HW217413  13.012   6.181   4.179
38506SOL     OW17414  10.783   2.520   6.328
38506SOL    HW117415  10.715   2.584   6.307
38506SOL    HW217416  10.860   2.550   6.279
38507SOL     OW17417   6.666   6.710  14.854
38507SOL    HW117418   6.715   6.638  14.813
38507SOL    HW217419   6.577   6.677  14.862
38508SOL     OW17420   3.554   5.247   0.157
38508SOL    HW117421   3.534   5.155   0.141
38508SOL    HW217422   3.582   5.250   0.249
38509SOL     OW17423   4.765   0.258   1.916
38509SOL    HW117424   4.769   0.164   1.932
38509SOL    HW217425   4.684   0.271   1.867
38510SOL     OW17426  10.137  14.703  12.402
38510SOL    HW117427  10.159  14.761  12.328
38510SOL    HW217428  10.079  14.638  12.364
38511SOL     OW17429   5.982   8.738   2.909
38511SOL    HW117430   5.974   8.670   2.842
38511SOL    HW217431   6.073   8.734   2.937
38512SOL     OW17432   3.142   4.497   1.504
38512SOL    HW117433   3.179   4.441   1.435
38512SOL    HW217434   3.068   4.541   1.461
38513SOL     OW17435  10.462  14.547  14.447
38513SOL    HW117436  10.411  14.468  14.434
38513SOL    HW217437  10.515  14.529  14.525
38514SOL     OW17438   1.086   2.141  11.341
38514SOL    HW117439   1.144   2.096  11.280
38514SOL    HW217440   1.144   2.174  11.410
38515SOL     OW17441   6.610   6.756   8.238
38515SOL    HW117442   6.540   6.768   8.303
38515SOL    HW217443   6.573   6.791   8.156
38516SOL     OW17444  13.299   7.168   2.570
38516SOL    HW117445  13.355   7.096   2.599
38516SOL    HW217446  13.236   7.127   2.511
38517SOL     OW17447   4.208   5.708  10.599
38517SOL    HW117448   4.247   5.772  10.658
38517SOL    HW217449   4.258   5.628  10.614
38518SOL     OW17450  12.535   9.101   1.121
38518SOL    HW117451  12.617   9.145   1.100
38518SOL    HW217452  12.552   9.008   1.104
38519SOL     OW17453   3.185   7.001   6.044
38519SOL    HW117454   3.262   6.956   6.010
38519SOL    HW217455   3.195   6.998   6.139
38520SOL     OW17456  11.546   0.554  13.255
38520SOL    HW117457  11.510   0.507  13.330
38520SOL    HW217458  11.489   0.530  13.182
38521SOL     OW17459  12.551   5.597  12.960
38521SOL    HW117460  12.588   5.684  12.946
38521SOL    HW217461  12.476   5.611  13.018
38522SOL     OW17462  14.055  10.368   1.488
38522SOL    HW117463  14.015  10.447   1.525
38522SOL    HW217464  14.113  10.402   1.419
38523SOL     OW17465   8.636   9.074  14.867
38523SOL    HW117466   8.679   9.153  14.834
38523SOL    HW217467   8.670   9.064   0.078
38524SOL     OW17468   1.438   5.721   0.224
38524SOL    HW117469   1.435   5.631   0.190
38524SOL    HW217470   1.348   5.738   0.252
38525SOL     OW17471   5.965   4.208  10.419
38525SOL    HW117472   5.996   4.298  10.415
38525SOL    HW217473   5.891   4.205  10.357
38526SOL     OW17474  10.637   1.851  14.848
38526SOL    HW117475  10.637   1.846  14.752
38526SOL    HW217476  10.546   1.869  14.872
38527SOL     OW17477   7.719   3.040   8.075
38527SOL    HW117478   7.759   3.125   8.055
38527SOL    HW217479   7.793   2.981   8.089
38528SOL     OW17480   9.452   3.860   7.182
38528SOL    HW117481   9.371   3.903   7.208
38528SOL    HW217482   9.514   3.931   7.170
38529SOL     OW17483   9.406   6.722   6.833
38529SOL    HW117484   9.416   6.632   6.805
38529SOL    HW217485   9.363   6.765   6.760
38530SOL     OW17486   0.644   3.955  12.280
38530SOL    HW117487   0.605   3.917  12.201
38530SOL    HW217488   0.718   4.007  12.247
38531SOL     OW17489  12.543  13.110  10.196
38531SOL    HW117490  12.498  13.058  10.262
38531SOL    HW217491  12.473  13.139  10.137
38532SOL     OW17492   7.541  10.894   5.762
38532SOL    HW117493   7.494  10.883   5.679
38532SOL    HW217494   7.536  10.808   5.804
38533SOL     OW17495  14.295   0.963   9.391
38533SOL    HW117496  14.200   0.967   9.386
38533SOL    HW217497  14.319   1.031   9.453
38534SOL     OW17498   4.655   0.813  14.311
38534SOL    HW117499   4.729   0.819  14.372
38534SOL    HW217500   4.684   0.861  14.234
38535SOL     OW17501   4.081   9.887  14.140
38535SOL    HW117502   4.088   9.940  14.060
38535SOL    HW217503   4.103   9.798  14.111
38536SOL     OW17504   3.259   6.928  14.335
38536SOL    HW117505   3.349   6.898  14.332
38536SOL    HW217506   3.246   6.957  14.426
38537SOL     OW17507   7.849   9.195   8.900
38537SOL    HW117508   7.825   9.103   8.891
38537SOL    HW217509   7.851   9.228   8.810
38538SOL     OW17510  12.973   6.708   6.377
38538SOL    HW117511  12.898   6.744   6.331
38538SOL    HW217512  12.960   6.613   6.373
38539SOL     OW17513  14.829   9.191   7.659
38539SOL    HW117514  14.822   9.276   7.616
38539SOL    HW217515   0.021   9.203   7.724
38540SOL     OW17516   5.458   4.811   8.333
38540SOL    HW117517   5.546   4.841   8.358
38540SOL    HW217518   5.401   4.883   8.359
38541SOL     OW17519   2.293  10.605   8.554
38541SOL    HW117520   2.341  10.623   8.634
38541SOL    HW217521   2.235  10.532   8.576
38542SOL     OW17522   2.964   0.600   2.197
38542SOL    HW117523   2.990   0.624   2.108
38542SOL    HW217524   3.044   0.611   2.249
38543SOL     OW17525   4.880  13.220   3.293
38543SOL    HW117526   4.835  13.250   3.215
38543SOL    HW217527   4.853  13.281   3.362
38544SOL     OW17528   4.643  10.345  13.483
38544SOL    HW117529   4.638  10.398  13.563
38544SOL    HW217530   4.567  10.372  13.432
38545SOL     OW17531  11.727   1.286  12.514
38545SOL    HW117532  11.814   1.320  12.535
38545SOL    HW217533  11.666   1.346  12.558
38546SOL     OW17534   1.202   8.483   5.317
38546SOL    HW117535   1.167   8.394   5.324
38546SOL    HW217536   1.129   8.535   5.284
38547SOL     OW17537   5.431   4.910   1.984
38547SOL    HW117538   5.336   4.919   1.978
38547SOL    HW217539   5.465   4.993   1.952
38548SOL     OW17540  10.035   9.613   0.116
38548SOL    HW117541   9.969   9.572   0.061
38548SOL    HW217542  10.115   9.611   0.063
38549SOL     OW17543   6.030  10.310   3.052
38549SOL    HW117544   5.960  10.265   3.005
38549SOL    HW217545   6.090  10.241   3.079
38550SOL     OW17546   0.404   3.118  14.306
38550SOL    HW117547   0.442   3.206  14.308
38550SOL    HW217548   0.450   3.073  14.236
38551SOL     OW17549  12.113   9.585   1.892
38551SOL    HW117550  12.029   9.604   1.934
38551SOL    HW217551  12.177   9.634   1.943
38552SOL     OW17552   6.096  12.377   0.604
38552SOL    HW117553   6.188  12.390   0.627
38552SOL    HW217554   6.058  12.465   0.610
38553SOL     OW17555   6.254   7.656   3.453
38553SOL    HW117556   6.245   7.653   3.358
38553SOL    HW217557   6.322   7.721   3.469
38554SOL     OW17558   7.044   0.858   0.851
38554SOL    HW117559   6.973   0.842   0.789
38554SOL    HW217560   7.109   0.909   0.802
38555SOL     OW17561   1.743   7.195  13.972
38555SOL    HW117562   1.744   7.228  14.062
38555SOL    HW217563   1.658   7.152  13.963
38556SOL     OW17564   1.976  14.727   6.472
38556SOL    HW117565   1.945  14.699   6.385
38556SOL    HW217566   2.043  14.793   6.453
38557SOL     OW17567   6.055   9.284   1.256
38557SOL    HW117568   6.068   9.215   1.322
38557SOL    HW217569   6.067   9.239   1.173
38558SOL     OW17570  11.226   9.891   6.593
38558SOL    HW117571  11.189   9.979   6.587
38558SOL    HW217572  11.236   9.863   6.502
38559SOL     OW17573   5.136  11.951  12.436
38559SOL    HW117574   5.110  11.932  12.346
38559SOL    HW217575   5.086  11.888  12.489
38560SOL     OW17576   8.992   7.841  14.500
38560SOL    HW117577   9.079   7.875  14.516
38560SOL    HW217578   8.952   7.903  14.440
38561SOL     OW17579   2.471  13.172   9.966
38561SOL    HW117580   2.527  13.170   9.888
38561SOL    HW217581   2.524  13.216  10.032
38562SOL     OW17582   7.500   3.312   4.190
38562SOL    HW117583   7.542   3.394   4.164
38562SOL    HW217584   7.414   3.338   4.222
38563SOL     OW17585   2.934   0.910   1.532
38563SOL    HW117586   2.942   0.966   1.609
38563SOL    HW217587   3.020   0.914   1.491
38564SOL     OW17588   4.084   4.821  12.581
38564SOL    HW117589   4.176   4.842  12.561
38564SOL    HW217590   4.056   4.891  12.640
38565SOL     OW17591   6.472   7.563   6.787
38565SOL    HW117592   6.467   7.474   6.752
38565SOL    HW217593   6.424   7.559   6.869
38566SOL     OW17594  13.631   4.498  10.364
38566SOL    HW117595  13.615   4.481  10.457
38566SOL    HW217596  13.661   4.414  10.330
38567SOL     OW17597   7.314  10.822   8.881
38567SOL    HW117598   7.347  10.884   8.816
38567SOL    HW217599   7.235  10.862   8.916
38568SOL     OW17600   7.443   4.014   9.715
38568SOL    HW117601   7.382   3.979   9.650
38568SOL    HW217602   7.527   4.018   9.670
38569SOL     OW17603   6.061  13.503   4.199
38569SOL    HW117604   6.028  13.510   4.109
38569SOL    HW217605   6.154  13.482   4.189
38570SOL     OW17606  10.788  12.885   2.508
38570SOL    HW117607  10.864  12.942   2.523
38570SOL    HW217608  10.769  12.894   2.415
38571SOL     OW17609   5.977   6.956   1.043
38571SOL    HW117610   5.997   7.042   1.007
38571SOL    HW217611   6.010   6.958   1.132
38572SOL     OW17612   3.796   3.922  14.054
38572SOL    HW117613   3.828   3.866  14.125
38572SOL    HW217614   3.839   4.006  14.068
38573SOL     OW17615  10.481   0.517   6.683
38573SOL    HW117616  10.524   0.555   6.759
38573SOL    HW217617  10.397   0.486   6.716
38574SOL     OW17618   3.285  12.158   3.034
38574SOL    HW117619   3.329  12.126   3.113
38574SOL    HW217620   3.236  12.235   3.063
38575SOL     OW17621   8.780   2.432   9.881
38575SOL    HW117622   8.718   2.498   9.909
38575SOL    HW217623   8.794   2.377   9.958
38576SOL     OW17624   3.078   8.406  13.618
38576SOL    HW117625   3.157   8.458  13.629
38576SOL    HW217626   3.028   8.421  13.698
38577SOL     OW17627   2.252   9.651   0.417
38577SOL    HW117628   2.165   9.654   0.457
38577SOL    HW217629   2.250   9.721   0.352
38578SOL     OW17630   7.058   5.676  14.069
38578SOL    HW117631   6.993   5.638  14.010
38578SOL    HW217632   7.024   5.764  14.088
38579SOL     OW17633   1.844   1.335  12.324
38579SOL    HW117634   1.896   1.301  12.397
38579SOL    HW217635   1.887   1.302  12.246
38580SOL     OW17636  13.131   6.196   1.140
38580SOL    HW117637  13.212   6.166   1.181
38580SOL    HW217638  13.124   6.145   1.060
38581SOL     OW17639  13.686   6.465  11.275
38581SOL    HW117640  13.658   6.445  11.364
38581SOL    HW217641  13.761   6.524  11.286
38582SOL     OW17642  10.362  13.694   7.795
38582SOL    HW117643  10.377  13.663   7.885
38582SOL    HW217644  10.299  13.766   7.805
38583SOL     OW17645   6.484  14.031   2.076
38583SOL    HW117646   6.501  13.943   2.108
38583SOL    HW217647   6.554  14.047   2.012
38584SOL     OW17648   2.908   2.606  11.731
38584SOL    HW117649   2.962   2.579  11.805
38584SOL    HW217650   2.903   2.529  11.675
38585SOL     OW17651   5.100   8.683   9.122
38585SOL    HW117652   5.100   8.774   9.094
38585SOL    HW217653   5.121   8.685   9.215
38586SOL     OW17654   4.102  12.281   8.792
38586SOL    HW117655   4.028  12.289   8.732
38586SOL    HW217656   4.105  12.187   8.813
38587SOL     OW17657  10.837  12.438   4.135
38587SOL    HW117658  10.827  12.513   4.076
38587SOL    HW217659  10.799  12.468   4.218
38588SOL     OW17660  13.042  10.347  12.190
38588SOL    HW117661  13.124  10.346  12.240
38588SOL    HW217662  13.003  10.432  12.211
38589SOL     OW17663   8.914   6.272  12.826
38589SOL    HW117664   8.891   6.352  12.779
38589SOL    HW217665   8.947   6.212  12.759
38590SOL     OW17666   4.251   3.317   8.067
38590SOL    HW117667   4.202   3.374   8.008
38590SOL    HW217668   4.277   3.243   8.012
38591SOL     OW17669  10.323   3.349  12.241
38591SOL    HW117670  10.364   3.431  12.213
38591SOL    HW217671  10.234   3.373  12.265
38592SOL     OW17672   6.605  10.504  11.278
38592SOL    HW117673   6.571  10.461  11.356
38592SOL    HW217674   6.556  10.586  11.271
38593SOL     OW17675   2.120   2.804   2.944
38593SOL    HW117676   2.093   2.889   2.908
38593SOL    HW217677   2.214   2.815   2.960
38594SOL     OW17678   7.331   7.495   1.150
38594SOL    HW117679   7.247   7.503   1.194
38594SOL    HW217680   7.325   7.412   1.102
38595SOL     OW17681  12.862   6.774   1.964
38595SOL    HW117682  12.786   6.768   1.906
38595SOL    HW217683  12.938   6.769   1.905
38596SOL     OW17684   9.907   2.923   9.802
38596SOL    HW117685   9.876   2.835   9.780
38596SOL    HW217686   9.983   2.909   9.858
38597SOL     OW17687  10.873   4.418  14.843
38597SOL    HW117688  10.859   4.427   0.060
38597SOL    HW217689  10.788   4.392  14.808
38598SOL     OW17690   9.434  11.279   1.785
38598SOL    HW117691   9.432  11.213   1.854
38598SOL    HW217692   9.387  11.239   1.711
38599SOL     OW17693  11.864   3.764  12.443
38599SOL    HW117694  11.857   3.847  12.396
38599SOL    HW217695  11.821   3.781  12.528
38600SOL     OW17696   3.830   0.759   0.612
38600SOL    HW117697   3.896   0.781   0.547
38600SOL    HW217698   3.870   0.783   0.696
38601SOL     OW17699   1.383  11.251   7.840
38601SOL    HW117700   1.442  11.301   7.898
38601SOL    HW217701   1.308  11.230   7.895
38602SOL     OW17702   3.324   7.091   0.802
38602SOL    HW117703   3.375   7.012   0.783
38602SOL    HW217704   3.372   7.161   0.757
38603SOL     OW17705  13.822   4.904   9.674
38603SOL    HW117706  13.825   4.852   9.593
38603SOL    HW217707  13.822   4.839   9.744
38604SOL     OW17708   4.923   5.564   1.550
38604SOL    HW117709   5.008   5.587   1.511
38604SOL    HW217710   4.924   5.468   1.552
38605SOL     OW17711   9.235  10.489   6.594
38605SOL    HW117712   9.254  10.546   6.668
38605SOL    HW217713   9.177  10.542   6.538
38606SOL     OW17714  10.626  12.420   6.641
38606SOL    HW117715  10.657  12.394   6.727
38606SOL    HW217716  10.559  12.486   6.658
38607SOL     OW17717   4.410   7.025   0.289
38607SOL    HW117718   4.464   7.103   0.275
38607SOL    HW217719   4.468   6.952   0.267
38608SOL     OW17720   9.815   0.442   5.560
38608SOL    HW117721   9.909   0.426   5.556
38608SOL    HW217722   9.796   0.491   5.479
38609SOL     OW17723  10.808   4.070  13.791
38609SOL    HW117724  10.791   4.147  13.846
38609SOL    HW217725  10.805   3.996  13.851
38610SOL     OW17726   5.529   2.735   4.397
38610SOL    HW117727   5.532   2.828   4.418
38610SOL    HW217728   5.497   2.732   4.307
38611SOL     OW17729   9.524   2.217  11.289
38611SOL    HW117730   9.471   2.292  11.317
38611SOL    HW217731   9.480   2.141  11.327
38612SOL     OW17732   9.704   9.093   8.255
38612SOL    HW117733   9.714   9.183   8.225
38612SOL    HW217734   9.748   9.091   8.339
38613SOL     OW17735  10.097   8.599   1.117
38613SOL    HW117736  10.017   8.547   1.120
38613SOL    HW217737  10.166   8.536   1.092
38614SOL     OW17738  14.834   1.707  14.400
38614SOL    HW117739  14.775   1.635  14.378
38614SOL    HW217740  14.808   1.734  14.488
38615SOL     OW17741  10.803   9.426   6.082
38615SOL    HW117742  10.887   9.382   6.070
38615SOL    HW217743  10.815   9.477   6.162
38616SOL     OW17744   0.800   3.789   7.811
38616SOL    HW117745   0.710   3.807   7.784
38616SOL    HW217746   0.791   3.734   7.889
38617SOL     OW17747   0.744   8.169  10.040
38617SOL    HW117748   0.731   8.126   9.955
38617SOL    HW217749   0.772   8.098  10.099
38618SOL     OW17750   2.614   0.511   3.427
38618SOL    HW117751   2.629   0.416   3.432
38618SOL    HW217752   2.606   0.529   3.334
38619SOL     OW17753   7.904   3.045   4.078
38619SOL    HW117754   7.971   3.086   4.022
38619SOL    HW217755   7.947   3.034   4.163
38620SOL     OW17756  13.989  10.928   5.522
38620SOL    HW117757  13.998  10.937   5.617
38620SOL    HW217758  14.020  11.011   5.486
38621SOL     OW17759  13.640   2.608   0.338
38621SOL    HW117760  13.613   2.564   0.256
38621SOL    HW217761  13.693   2.543   0.383
38622SOL     OW17762   1.774   2.612   2.575
38622SOL    HW117763   1.779   2.656   2.660
38622SOL    HW217764   1.810   2.525   2.591
38623SOL     OW17765   5.330   9.306   1.854
38623SOL    HW117766   5.334   9.349   1.940
38623SOL    HW217767   5.240   9.277   1.846
38624SOL     OW17768   9.417   4.050  14.344
38624SOL    HW117769   9.463   3.994  14.407
38624SOL    HW217770   9.486   4.085  14.287
38625SOL     OW17771   1.026   3.006   0.941
38625SOL    HW117772   0.943   2.962   0.921
38625SOL    HW217773   1.084   2.935   0.969
38626SOL     OW17774  14.683   8.436   5.775
38626SOL    HW117775  14.598   8.405   5.742
38626SOL    HW217776  14.687   8.528   5.747
38627SOL     OW17777   1.905   9.179  12.876
38627SOL    HW117778   1.874   9.115  12.812
38627SOL    HW217779   1.825   9.210  12.919
38628SOL     OW17780  10.996  11.850   5.516
38628SOL    HW117781  11.025  11.872   5.605
38628SOL    HW217782  10.901  11.849   5.521
38629SOL     OW17783  11.575   6.306  10.799
38629SOL    HW117784  11.504   6.291  10.736
38629SOL    HW217785  11.611   6.219  10.816
38630SOL     OW17786  10.340   3.264  10.510
38630SOL    HW117787  10.434   3.262  10.492
38630SOL    HW217788  10.319   3.357  10.517
38631SOL     OW17789  13.195  13.241   5.836
38631SOL    HW117790  13.197  13.272   5.746
38631SOL    HW217791  13.123  13.179   5.839
38632SOL     OW17792   2.323   0.206   9.165
38632SOL    HW117793   2.375   0.263   9.221
38632SOL    HW217794   2.384   0.177   9.097
38633SOL     OW17795   1.826  10.722  12.840
38633SOL    HW117796   1.748  10.754  12.795
38633SOL    HW217797   1.856  10.649  12.786
38634SOL     OW17798   8.642   0.271  10.258
38634SOL    HW117799   8.686   0.318  10.186
38634SOL    HW217800   8.668   0.180  10.245
38635SOL     OW17801   3.011   2.344   3.759
38635SOL    HW117802   3.072   2.366   3.829
38635SOL    HW217803   3.003   2.425   3.708
38636SOL     OW17804  14.547  11.662   9.307
38636SOL    HW117805  14.507  11.607   9.374
38636SOL    HW217806  14.505  11.747   9.318
38637SOL     OW17807  12.904   6.760   6.993
38637SOL    HW117808  12.887   6.696   6.923
38637SOL    HW217809  12.845   6.734   7.064
38638SOL     OW17810  14.358   3.587  12.303
38638SOL    HW117811  14.317   3.503  12.280
38638SOL    HW217812  14.342   3.643  12.227
38639SOL     OW17813   6.315   4.238   1.764
38639SOL    HW117814   6.338   4.328   1.741
38639SOL    HW217815   6.244   4.247   1.828
38640SOL     OW17816   0.055  11.906   8.431
38640SOL    HW117817   0.131  11.848   8.435
38640SOL    HW217818   0.004  11.884   8.509
38641SOL     OW17819   0.289   4.380  10.621
38641SOL    HW117820   0.290   4.421  10.535
38641SOL    HW217821   0.204   4.404  10.658
38642SOL     OW17822  12.847   8.614   9.224
38642SOL    HW117823  12.778   8.592   9.162
38642SOL    HW217824  12.801   8.644   9.303
38643SOL     OW17825  14.123   9.722   0.701
38643SOL    HW117826  14.195   9.696   0.759
38643SOL    HW217827  14.050   9.667   0.728
38644SOL     OW17828   4.635   7.537   8.226
38644SOL    HW117829   4.601   7.531   8.137
38644SOL    HW217830   4.691   7.615   8.225
38645SOL     OW17831   7.120  12.127   3.816
38645SOL    HW117832   7.098  12.078   3.896
38645SOL    HW217833   7.040  12.125   3.764
38646SOL     OW17834   9.363  12.117   1.386
38646SOL    HW117835   9.381  12.197   1.436
38646SOL    HW217836   9.449  12.077   1.374
38647SOL     OW17837  11.266  12.675  13.535
38647SOL    HW117838  11.361  12.682  13.547
38647SOL    HW217839  11.229  12.697  13.620
38648SOL     OW17840   0.350   8.094   3.230
38648SOL    HW117841   0.430   8.063   3.188
38648SOL    HW217842   0.379   8.136   3.310
38649SOL     OW17843   3.440  10.309  10.537
38649SOL    HW117844   3.422  10.287  10.629
38649SOL    HW217845   3.354  10.318  10.497
38650SOL     OW17846   0.528   4.197  14.276
38650SOL    HW117847   0.597   4.256  14.248
38650SOL    HW217848   0.573   4.115  14.297
38651SOL     OW17849  14.848   3.218  13.012
38651SOL    HW117850   0.019   3.136  13.003
38651SOL    HW217851  14.757   3.191  13.018
38652SOL     OW17852  14.734   3.327   1.763
38652SOL    HW117853  14.799   3.373   1.710
38652SOL    HW217854  14.785   3.282   1.830
38653SOL     OW17855  10.483   0.669   3.624
38653SOL    HW117856  10.575   0.658   3.648
38653SOL    HW217857  10.455   0.748   3.670
38654SOL     OW17858   1.541   6.272   7.670
38654SOL    HW117859   1.533   6.284   7.765
38654SOL    HW217860   1.592   6.192   7.660
38655SOL     OW17861   0.595   2.149   7.324
38655SOL    HW117862   0.674   2.159   7.376
38655SOL    HW217863   0.599   2.058   7.292
38656SOL     OW17864  10.101   6.948   6.293
38656SOL    HW117865  10.027   7.008   6.297
38656SOL    HW217866  10.138   6.960   6.206
38657SOL     OW17867   1.838  13.123   9.260
38657SOL    HW117868   1.768  13.167   9.212
38657SOL    HW217869   1.829  13.154   9.350
38658SOL     OW17870   9.861   1.354   2.507
38658SOL    HW117871   9.848   1.393   2.593
38658SOL    HW217872   9.777   1.366   2.462
38659SOL     OW17873  13.918   5.910   0.412
38659SOL    HW117874  13.870   5.937   0.334
38659SOL    HW217875  13.956   5.991   0.446
38660SOL     OW17876  11.163   6.708   5.812
38660SOL    HW117877  11.157   6.614   5.823
38660SOL    HW217878  11.148   6.744   5.899
38661SOL     OW17879   9.061   5.067  13.044
38661SOL    HW117880   9.114   5.014  12.985
38661SOL    HW217881   8.975   5.072  13.002
38662SOL     OW17882   3.740  14.745  11.075
38662SOL    HW117883   3.833  14.764  11.064
38662SOL    HW217884   3.697  14.830  11.068
38663SOL     OW17885   9.207   3.559  12.196
38663SOL    HW117886   9.216   3.561  12.101
38663SOL    HW217887   9.294   3.533  12.227
38664SOL     OW17888  11.136   0.743   0.239
38664SOL    HW117889  11.089   0.696   0.308
38664SOL    HW217890  11.067   0.785   0.187
38665SOL     OW17891   4.207  10.585   8.263
38665SOL    HW117892   4.231  10.573   8.171
38665SOL    HW217893   4.180  10.677   8.269
38666SOL     OW17894   0.020   6.732   4.999
38666SOL    HW117895  14.852   6.817   4.996
38666SOL    HW217896   0.102   6.748   4.952
38667SOL     OW17897  10.683   0.743   5.323
38667SOL    HW117898  10.630   0.757   5.402
38667SOL    HW217899  10.640   0.670   5.278
38668SOL     OW17900   8.715   3.024   2.035
38668SOL    HW117901   8.650   2.989   1.974
38668SOL    HW217902   8.666   3.037   2.117
38669SOL     OW17903   0.777   9.718   6.156
38669SOL    HW117904   0.864   9.747   6.182
38669SOL    HW217905   0.728   9.798   6.139
38670SOL     OW17906   3.082   5.259   9.348
38670SOL    HW117907   3.135   5.198   9.399
38670SOL    HW217908   3.142   5.290   9.279
38671SOL     OW17909   7.745   8.589  14.441
38671SOL    HW117910   7.753   8.542  14.524
38671SOL    HW217911   7.821   8.648  14.440
38672SOL     OW17912   1.046   1.634  12.153
38672SOL    HW117913   0.954   1.623  12.129
38672SOL    HW217914   1.044   1.688  12.232
38673SOL     OW17915   8.745  12.250   5.695
38673SOL    HW117916   8.764  12.178   5.636
38673SOL    HW217917   8.814  12.315   5.678
38674SOL     OW17918   4.806   9.273  11.938
38674SOL    HW117919   4.856   9.241  12.013
38674SOL    HW217920   4.781   9.194  11.891
38675SOL     OW17921   6.848   3.603  13.473
38675SOL    HW117922   6.896   3.587  13.555
38675SOL    HW217923   6.916   3.628  13.410
38676SOL     OW17924   1.446   3.343   1.429
38676SOL    HW117925   1.442   3.313   1.338
38676SOL    HW217926   1.534   3.319   1.458
38677SOL     OW17927   2.168  12.536   5.909
38677SOL    HW117928   2.113  12.508   5.836
38677SOL    HW217929   2.126  12.499   5.987
38678SOL     OW17930   9.209   6.389   3.809
38678SOL    HW117931   9.213   6.305   3.854
38678SOL    HW217932   9.237   6.371   3.720
38679SOL     OW17933   9.176   9.742  13.360
38679SOL    HW117934   9.211   9.657  13.385
38679SOL    HW217935   9.081   9.731  13.363
38680SOL     OW17936   5.431   8.854   6.202
38680SOL    HW117937   5.492   8.894   6.139
38680SOL    HW217938   5.485   8.835   6.278
38681SOL     OW17939   0.620   3.894  13.295
38681SOL    HW117940   0.689   3.908  13.360
38681SOL    HW217941   0.668   3.883  13.212
38682SOL     OW17942   7.131  14.129  11.848
38682SOL    HW117943   7.194  14.089  11.789
38682SOL    HW217944   7.086  14.055  11.888
38683SOL     OW17945   8.562   1.942  10.738
38683SOL    HW117946   8.640   1.898  10.704
38683SOL    HW217947   8.509   1.961  10.661
38684SOL     OW17948   4.947   0.631  13.129
38684SOL    HW117949   4.985   0.603  13.212
38684SOL    HW217950   4.965   0.558  13.069
38685SOL     OW17951   1.505   9.391   3.048
38685SOL    HW117952   1.545   9.394   3.136
38685SOL    HW217953   1.415   9.361   3.064
38686SOL     OW17954  10.219  11.226   9.732
38686SOL    HW117955  10.285  11.281   9.774
38686SOL    HW217956  10.151  11.287   9.704
38687SOL     OW17957   1.422  11.113   6.814
38687SOL    HW117958   1.465  11.197   6.798
38687SOL    HW217959   1.491  11.048   6.801
38688SOL     OW17960   2.117   9.696  10.449
38688SOL    HW117961   2.091   9.759  10.516
38688SOL    HW217962   2.044   9.635  10.444
38689SOL     OW17963   6.773  14.333   7.442
38689SOL    HW117964   6.701  14.282   7.404
38689SOL    HW217965   6.852  14.296   7.403
38690SOL     OW17966   7.348   9.855   7.859
38690SOL    HW117967   7.315   9.766   7.855
38690SOL    HW217968   7.320   9.887   7.945
38691SOL     OW17969   4.803   5.605   5.368
38691SOL    HW117970   4.733   5.637   5.311
38691SOL    HW217971   4.794   5.656   5.448
38692SOL     OW17972   6.304   9.357   2.425
38692SOL    HW117973   6.312   9.279   2.371
38692SOL    HW217974   6.253   9.329   2.501
38693SOL     OW17975   0.539   8.175   8.246
38693SOL    HW117976   0.455   8.214   8.272
38693SOL    HW217977   0.605   8.230   8.288
38694SOL     OW17978  12.838  10.867  11.302
38694SOL    HW117979  12.790  10.787  11.324
38694SOL    HW217980  12.897  10.881  11.376
38695SOL     OW17981   6.477   5.856  11.090
38695SOL    HW117982   6.510   5.810  11.012
38695SOL    HW217983   6.528   5.937  11.094
38696SOL     OW17984   0.236   5.427   3.876
38696SOL    HW117985   0.197   5.472   3.951
38696SOL    HW217986   0.240   5.336   3.903
38697SOL     OW17987  14.058   5.302   1.790
38697SOL    HW117988  14.070   5.224   1.736
38697SOL    HW217989  14.011   5.363   1.732
38698SOL     OW17990   1.964   0.517   6.928
38698SOL    HW117991   1.950   0.432   6.970
38698SOL    HW217992   1.962   0.497   6.834
38699SOL     OW17993   1.232   8.929  13.286
38699SOL    HW117994   1.251   8.875  13.209
38699SOL    HW217995   1.314   8.930  13.335
38700SOL     OW17996  12.571   9.694   8.394
38700SOL    HW117997  12.525   9.658   8.471
38700SOL    HW217998  12.523   9.774   8.374
38701SOL     OW17999   2.668   8.540   7.974
38701SOL    HW118000   2.618   8.479   7.920
38701SOL    HW218001   2.727   8.485   8.025
38702SOL     OW18002   0.241   4.952   5.897
38702SOL    HW118003   0.308   4.909   5.844
38702SOL    HW218004   0.269   5.043   5.902
38703SOL     OW18005   0.424   7.253   3.996
38703SOL    HW118006   0.486   7.253   3.923
38703SOL    HW218007   0.428   7.164   4.031
38704SOL     OW18008   0.044  14.627  11.082
38704SOL    HW118009  14.830  14.600  11.079
38704SOL    HW218010   0.057  14.674  11.000
38705SOL     OW18011   8.579   2.506   4.729
38705SOL    HW118012   8.662   2.530   4.689
38705SOL    HW218013   8.558   2.420   4.693
38706SOL     OW18014   1.521  14.366   4.566
38706SOL    HW118015   1.604  14.415   4.565
38706SOL    HW218016   1.485  14.379   4.479
38707SOL     OW18017  11.516   6.647  14.420
38707SOL    HW118018  11.514   6.689  14.333
38707SOL    HW218019  11.490   6.557  14.403
38708SOL     OW18020   3.837   2.392   1.852
38708SOL    HW118021   3.890   2.447   1.795
38708SOL    HW218022   3.752   2.436   1.854
38709SOL     OW18023   4.369   2.581  12.050
38709SOL    HW118024   4.282   2.614  12.030
38709SOL    HW218025   4.372   2.494  12.010
38710SOL     OW18026   1.870   0.684   5.842
38710SOL    HW118027   1.945   0.694   5.901
38710SOL    HW218028   1.906   0.643   5.764
38711SOL     OW18029   1.405   5.542  13.234
38711SOL    HW118030   1.445   5.476  13.291
38711SOL    HW218031   1.463   5.546  13.158
38712SOL     OW18032   2.641  13.117   5.881
38712SOL    HW118033   2.683  13.194   5.843
38712SOL    HW218034   2.645  13.131   5.976
38713SOL     OW18035  10.096   2.740  13.694
38713SOL    HW118036  10.015   2.765  13.649
38713SOL    HW218037  10.069   2.726  13.785
38714SOL     OW18038   3.260  13.443  10.438
38714SOL    HW118039   3.220  13.407  10.359
38714SOL    HW218040   3.222  13.393  10.510
38715SOL     OW18041   1.086  10.138   4.021
38715SOL    HW118042   1.035  10.081   4.077
38715SOL    HW218043   1.048  10.127   3.934
38716SOL     OW18044   5.615   8.444   4.367
38716SOL    HW118045   5.648   8.528   4.400
38716SOL    HW218046   5.584   8.464   4.278
38717SOL     OW18047   2.541   5.901   4.246
38717SOL    HW118048   2.613   5.938   4.297
38717SOL    HW218049   2.579   5.827   4.199
38718SOL     OW18050   9.165   0.894   7.673
38718SOL    HW118051   9.162   0.984   7.704
38718SOL    HW218052   9.258   0.871   7.676
38719SOL     OW18053  10.607   3.729  10.548
38719SOL    HW118054  10.674   3.720  10.480
38719SOL    HW218055  10.649   3.781  10.617
38720SOL     OW18056  13.853  14.305  13.292
38720SOL    HW118057  13.892  14.382  13.334
38720SOL    HW218058  13.914  14.281  13.223
38721SOL     OW18059  13.115   1.809   2.821
38721SOL    HW118060  13.191   1.861   2.793
38721SOL    HW218061  13.128   1.799   2.916
38722SOL     OW18062   5.854  12.491   1.517
38722SOL    HW118063   5.807  12.424   1.466
38722SOL    HW218064   5.785  12.537   1.565
38723SOL     OW18065   1.487  14.025  11.630
38723SOL    HW118066   1.445  13.962  11.571
38723SOL    HW218067   1.416  14.083  11.658
38724SOL     OW18068  11.007  11.307   3.563
38724SOL    HW118069  11.081  11.307   3.502
38724SOL    HW218070  10.936  11.263   3.515
38725SOL     OW18071   3.977   5.058  11.361
38725SOL    HW118072   4.011   5.084  11.446
38725SOL    HW218073   4.024   5.112  11.298
38726SOL     OW18074  12.982   3.099   5.249
38726SOL    HW118075  13.063   3.108   5.200
38726SOL    HW218076  12.923   3.164   5.211
38727SOL     OW18077   1.672   5.740   2.691
38727SOL    HW118078   1.579   5.742   2.666
38727SOL    HW218079   1.695   5.648   2.688
38728SOL     OW18080  11.174  10.126   6.428
38728SOL    HW118081  11.236  10.138   6.356
38728SOL    HW218082  11.088  10.141   6.388
38729SOL     OW18083  10.131   2.539   0.945
38729SOL    HW118084  10.173   2.608   0.997
38729SOL    HW218085  10.142   2.460   0.998
38730SOL     OW18086   4.988   3.141   9.591
38730SOL    HW118087   4.980   3.106   9.679
38730SOL    HW218088   4.914   3.202   9.583
38731SOL     OW18089   1.736   9.797  10.942
38731SOL    HW118090   1.677   9.825  11.012
38731SOL    HW218091   1.802   9.867  10.938
38732SOL     OW18092   3.341  11.952   4.042
38732SOL    HW118093   3.332  11.964   4.136
38732SOL    HW218094   3.272  12.007   4.004
38733SOL     OW18095   3.171   7.744  13.611
38733SOL    HW118096   3.110   7.722  13.682
38733SOL    HW218097   3.196   7.835  13.629
38734SOL     OW18098   7.024  12.712   0.545
38734SOL    HW118099   6.966  12.658   0.492
38734SOL    HW218100   6.989  12.800   0.536
38735SOL     OW18101  11.281   9.799   7.465
38735SOL    HW118102  11.294   9.793   7.560
38735SOL    HW218103  11.246   9.713   7.440
38736SOL     OW18104  12.043   6.958   3.623
38736SOL    HW118105  12.045   7.039   3.572
38736SOL    HW218106  11.998   6.895   3.566
38737SOL     OW18107  13.312  14.507   2.922
38737SOL    HW118108  13.404  14.482   2.929
38737SOL    HW218109  13.311  14.601   2.937
38738SOL     OW18110  12.246   2.626  11.391
38738SOL    HW118111  12.191   2.616  11.469
38738SOL    HW218112  12.334   2.605  11.421
38739SOL     OW18113   2.588   6.903   3.155
38739SOL    HW118114   2.511   6.885   3.209
38739SOL    HW218115   2.555   6.897   3.065
38740SOL     OW18116   0.981   0.921   6.556
38740SOL    HW118117   1.026   0.885   6.632
38740SOL    HW218118   1.044   0.981   6.516
38741SOL     OW18119   1.924   8.355  10.597
38741SOL    HW118120   1.987   8.421  10.625
38741SOL    HW218121   1.967   8.311  10.524
38742SOL     OW18122   6.891  12.442  11.552
38742SOL    HW118123   6.978  12.440  11.591
38742SOL    HW218124   6.835  12.480  11.620
38743SOL     OW18125  10.548   5.171   1.498
38743SOL    HW118126  10.512   5.254   1.468
38743SOL    HW218127  10.628   5.160   1.447
38744SOL     OW18128   5.887   4.516   6.507
38744SOL    HW118129   5.962   4.467   6.539
38744SOL    HW218130   5.898   4.518   6.412
38745SOL     OW18131   4.155   9.285   2.338
38745SOL    HW118132   4.101   9.210   2.363
38745SOL    HW218133   4.188   9.320   2.421
38746SOL     OW18134  11.536   3.750   5.782
38746SOL    HW118135  11.552   3.663   5.820
38746SOL    HW218136  11.451   3.776   5.818
38747SOL     OW18137   7.550  10.422   3.517
38747SOL    HW118138   7.610  10.493   3.496
38747SOL    HW218139   7.541  10.372   3.436
38748SOL     OW18140   2.100   3.191   4.528
38748SOL    HW118141   2.011   3.199   4.494
38748SOL    HW218142   2.152   3.163   4.453
38749SOL     OW18143   1.420   2.215   4.189
38749SOL    HW118144   1.417   2.151   4.260
38749SOL    HW218145   1.395   2.166   4.111
38750SOL     OW18146  13.800  13.587   0.269
38750SOL    HW118147  13.788  13.629   0.353
38750SOL    HW218148  13.849  13.507   0.288
38751SOL     OW18149  13.715   5.290   8.753
38751SOL    HW118150  13.756   5.347   8.688
38751SOL    HW218151  13.621   5.309   8.746
38752SOL     OW18152  10.024  13.697   3.014
38752SOL    HW118153  10.014  13.617   3.067
38752SOL    HW218154  10.085  13.751   3.064
38753SOL     OW18155   9.052  12.161   6.033
38753SOL    HW118156   9.104  12.226   5.987
38753SOL    HW218157   8.971  12.207   6.057
38754SOL     OW18158   2.724   0.963  10.597
38754SOL    HW118159   2.784   1.038  10.589
38754SOL    HW218160   2.666   0.987  10.669
38755SOL     OW18161   2.072  11.142  11.989
38755SOL    HW118162   2.052  11.049  11.997
38755SOL    HW218163   2.140  11.147  11.922
38756SOL     OW18164   6.991   2.766   0.358
38756SOL    HW118165   6.911   2.814   0.378
38756SOL    HW218166   6.988   2.753   0.263
38757SOL     OW18167   9.274   5.973   3.159
38757SOL    HW118168   9.221   5.974   3.080
38757SOL    HW218169   9.258   5.887   3.198
38758SOL     OW18170  10.174  12.698   1.511
38758SOL    HW118171  10.246  12.700   1.574
38758SOL    HW218172  10.096  12.680   1.563
38759SOL     OW18173  12.222  12.035   1.146
38759SOL    HW118174  12.229  12.001   1.235
38759SOL    HW218175  12.132  12.013   1.120
38760SOL     OW18176   0.175   1.402   3.393
38760SOL    HW118177   0.165   1.416   3.487
38760SOL    HW218178   0.270   1.400   3.379
38761SOL     OW18179  13.784   8.724   3.455
38761SOL    HW118180  13.806   8.649   3.400
38761SOL    HW218181  13.689   8.734   3.446
38762SOL     OW18182   5.030   1.921  14.072
38762SOL    HW118183   5.111   1.869  14.069
38762SOL    HW218184   4.974   1.874  14.133
38763SOL     OW18185   0.551   1.891   7.215
38763SOL    HW118186   0.607   1.824   7.175
38763SOL    HW218187   0.463   1.853   7.214
38764SOL     OW18188   3.330  12.014   6.150
38764SOL    HW118189   3.320  11.990   6.058
38764SOL    HW218190   3.410  12.067   6.152
38765SOL     OW18191   7.165  10.163   9.875
38765SOL    HW118192   7.085  10.151   9.825
38765SOL    HW218193   7.153  10.246   9.921
38766SOL     OW18194  13.761   6.948  13.256
38766SOL    HW118195  13.675   6.945  13.298
38766SOL    HW218196  13.791   7.038  13.269
38767SOL     OW18197  10.954   3.540  14.176
38767SOL    HW118198  11.018   3.611  14.182
38767SOL    HW218199  10.955   3.514  14.084
38768SOL     OW18200  12.591  13.494   8.059
38768SOL    HW118201  12.672  13.443   8.058
38768SOL    HW218202  12.544  13.465   7.980
38769SOL     OW18203   8.243   8.019   4.213
38769SOL    HW118204   8.323   8.066   4.193
38769SOL    HW218205   8.270   7.927   4.221
38770SOL     OW18206  12.932  12.074   6.414
38770SOL    HW118207  12.858  12.133   6.402
38770SOL    HW218208  12.897  12.002   6.467
38771SOL     OW18209  12.696   6.798  12.155
38771SOL    HW118210  12.601   6.787  12.161
38771SOL    HW218211  12.732   6.717  12.192
38772SOL     OW18212   5.479  10.022  14.666
38772SOL    HW118213   5.420  10.062  14.730
38772SOL    HW218214   5.550  10.085  14.655
38773SOL     OW18215  11.703   8.610   1.945
38773SOL    HW118216  11.719   8.643   1.857
38773SOL    HW218217  11.676   8.519   1.933
38774SOL     OW18218   5.479  10.722   7.768
38774SOL    HW118219   5.512  10.638   7.738
38774SOL    HW218220   5.417  10.749   7.701
38775SOL     OW18221   8.439   3.152   6.531
38775SOL    HW118222   8.367   3.199   6.573
38775SOL    HW218223   8.498   3.221   6.502
38776SOL     OW18224   0.937   6.353   5.104
38776SOL    HW118225   0.922   6.385   5.015
38776SOL    HW218226   0.932   6.258   5.097
38777SOL     OW18227   0.683   6.684   9.416
38777SOL    HW118228   0.665   6.775   9.393
38777SOL    HW218229   0.778   6.678   9.419
38778SOL     OW18230  11.748   8.795   0.782
38778SOL    HW118231  11.739   8.889   0.799
38778SOL    HW218232  11.716   8.753   0.861
38779SOL     OW18233   9.302   7.709  11.052
38779SOL    HW118234   9.307   7.616  11.034
38779SOL    HW218235   9.392   7.739  11.050
38780SOL     OW18236   3.485   7.196  14.581
38780SOL    HW118237   3.410   7.211  14.524
38780SOL    HW218238   3.521   7.284  14.597
38781SOL     OW18239  13.661   1.331  12.702
38781SOL    HW118240  13.612   1.376  12.771
38781SOL    HW218241  13.745   1.377  12.698
38782SOL     OW18242  13.984   1.063   5.210
38782SOL    HW118243  13.888   1.064   5.206
38782SOL    HW218244  14.007   0.970   5.213
38783SOL     OW18245  13.037   6.815   9.755
38783SOL    HW118246  12.979   6.741   9.770
38783SOL    HW218247  13.076   6.833   9.841
38784SOL     OW18248   6.341  13.625   7.620
38784SOL    HW118249   6.427  13.624   7.577
38784SOL    HW218250   6.331  13.715   7.650
38785SOL     OW18251  11.212   0.059   9.504
38785SOL    HW118252  11.257   0.142   9.519
38785SOL    HW218253  11.214   0.015   9.589
38786SOL     OW18254  14.437  12.589   8.851
38786SOL    HW118255  14.344  12.597   8.831
38786SOL    HW218256  14.439  12.560   8.942
38787SOL     OW18257   2.190   2.284  10.790
38787SOL    HW118258   2.099   2.315  10.790
38787SOL    HW218259   2.198   2.235  10.872
38788SOL     OW18260  11.725   4.247   9.800
38788SOL    HW118261  11.632   4.258   9.819
38788SOL    HW218262  11.763   4.215   9.882
38789SOL     OW18263   8.891   1.974  10.656
38789SOL    HW118264   8.882   2.068  10.672
38789SOL    HW218265   8.986   1.959  10.654
38790SOL     OW18266  10.341   8.107   3.062
38790SOL    HW118267  10.253   8.083   3.090
38790SOL    HW218268  10.381   8.149   3.139
38791SOL     OW18269  12.891  14.296  10.940
38791SOL    HW118270  12.862  14.214  10.899
38791SOL    HW218271  12.944  14.268  11.015
38792SOL     OW18272  12.522  11.125   6.527
38792SOL    HW118273  12.442  11.125   6.580
38792SOL    HW218274  12.490  11.118   6.437
38793SOL     OW18275   7.874  12.155  13.424
38793SOL    HW118276   7.839  12.086  13.480
38793SOL    HW218277   7.958  12.121  13.393
38794SOL     OW18278  14.691   5.842  13.811
38794SOL    HW118279  14.776   5.867  13.849
38794SOL    HW218280  14.707   5.837  13.717
38795SOL     OW18281   3.384   3.554   1.719
38795SOL    HW118282   3.354   3.618   1.654
38795SOL    HW218283   3.397   3.606   1.798
38796SOL     OW18284  10.173   7.950  13.953
38796SOL    HW118285  10.218   8.017  14.004
38796SOL    HW218286  10.080   7.965  13.969
38797SOL     OW18287  14.774  10.220  10.564
38797SOL    HW118288  14.819  10.302  10.543
38797SOL    HW218289  14.738  10.191  10.480
38798SOL     OW18290   3.294   1.457  13.922
38798SOL    HW118291   3.207   1.468  13.961
38798SOL    HW218292   3.353   1.448  13.998
38799SOL     OW18293   2.251  13.811  14.241
38799SOL    HW118294   2.237  13.904  14.258
38799SOL    HW218295   2.164  13.776  14.220
38800SOL     OW18296   2.360   0.089   5.472
38800SOL    HW118297   2.362  14.871   5.475
38800SOL    HW218298   2.286   0.110   5.415
38801SOL     OW18299   7.151   4.154   8.882
38801SOL    HW118300   7.150   4.086   8.814
38801SOL    HW218301   7.148   4.236   8.834
38802SOL     OW18302   7.937   9.660   8.963
38802SOL    HW118303   7.984   9.678   9.045
38802SOL    HW218304   7.953   9.567   8.946
38803SOL     OW18305   9.086   0.468   9.208
38803SOL    HW118306   9.094   0.489   9.115
38803SOL    HW218307   9.084   0.372   9.211
38804SOL     OW18308   4.525   8.273   1.425
38804SOL    HW118309   4.618   8.295   1.436
38804SOL    HW218310   4.478   8.352   1.452
38805SOL     OW18311   5.002  11.079   4.174
38805SOL    HW118312   4.968  11.000   4.132
38805SOL    HW218313   5.063  11.115   4.110
38806SOL     OW18314  11.933   3.742   5.394
38806SOL    HW118315  11.886   3.662   5.415
38806SOL    HW218316  11.893   3.809   5.450
38807SOL     OW18317  14.193   7.352   3.204
38807SOL    HW118318  14.170   7.406   3.279
38807SOL    HW218319  14.281   7.320   3.222
38808SOL     OW18320   2.385   3.553   9.036
38808SOL    HW118321   2.306   3.606   9.029
38808SOL    HW218322   2.434   3.593   9.108
38809SOL     OW18323   1.296   1.318   1.663
38809SOL    HW118324   1.272   1.350   1.751
38809SOL    HW218325   1.368   1.257   1.679
38810SOL     OW18326  11.168   1.609   2.923
38810SOL    HW118327  11.080   1.611   2.961
38810SOL    HW218328  11.186   1.515   2.912
38811SOL     OW18329   7.640  10.207   0.053
38811SOL    HW118330   7.677  10.145  14.867
38811SOL    HW218331   7.717  10.245   0.097
38812SOL     OW18332   2.187  10.816   4.894
38812SOL    HW118333   2.106  10.854   4.927
38812SOL    HW218334   2.160  10.758   4.823
38813SOL     OW18335   8.083   1.956   3.360
38813SOL    HW118336   8.044   1.942   3.446
38813SOL    HW218337   8.013   1.993   3.307
38814SOL     OW18338   8.443   4.234  12.702
38814SOL    HW118339   8.477   4.315  12.739
38814SOL    HW218340   8.404   4.188  12.776
38815SOL     OW18341  11.753  13.944  11.202
38815SOL    HW118342  11.703  14.015  11.243
38815SOL    HW218343  11.707  13.927  11.120
38816SOL     OW18344  14.459   8.634  12.698
38816SOL    HW118345  14.383   8.693  12.699
38816SOL    HW218346  14.454   8.586  12.781
38817SOL     OW18347  13.952   9.025   7.740
38817SOL    HW118348  14.036   9.069   7.727
38817SOL    HW218349  13.932   8.987   7.655
38818SOL     OW18350   1.694   5.563  10.294
38818SOL    HW118351   1.699   5.488  10.354
38818SOL    HW218352   1.738   5.533  10.215
38819SOL     OW18353   3.453  11.786  10.559
38819SOL    HW118354   3.445  11.770  10.653
38819SOL    HW218355   3.544  11.765  10.539
38820SOL     OW18356  11.495   7.524  10.056
38820SOL    HW118357  11.569   7.584  10.061
38820SOL    HW218358  11.479   7.512   9.963
38821SOL     OW18359   3.465   9.673   7.577
38821SOL    HW118360   3.520   9.596   7.564
38821SOL    HW218361   3.398   9.645   7.639
38822SOL     OW18362   0.623  12.024   0.693
38822SOL    HW118363   0.565  12.066   0.630
38822SOL    HW218364   0.710  12.033   0.655
38823SOL     OW18365   1.813   0.582  10.193
38823SOL    HW118366   1.892   0.594  10.141
38823SOL    HW218367   1.785   0.671  10.216
38824SOL     OW18368   0.112   2.297  10.080
38824SOL    HW118369   0.182   2.361  10.067
38824SOL    HW218370   0.157   2.214  10.094
38825SOL     OW18371   5.021   6.816  11.177
38825SOL    HW118372   4.976   6.803  11.260
38825SOL    HW218373   5.015   6.732  11.132
38826SOL     OW18374   9.273   3.333   6.847
38826SOL    HW118375   9.223   3.414   6.834
38826SOL    HW218376   9.208   3.268   6.871
38827SOL     OW18377   4.538   0.435   9.795
38827SOL    HW118378   4.632   0.439   9.781
38827SOL    HW218379   4.503   0.399   9.714
38828SOL     OW18380  12.471   4.406   2.786
38828SOL    HW118381  12.520   4.485   2.810
38828SOL    HW218382  12.528   4.334   2.812
38829SOL     OW18383   1.734  14.163   3.823
38829SOL    HW118384   1.718  14.257   3.835
38829SOL    HW218385   1.795  14.159   3.749
38830SOL     OW18386   4.114  12.582   5.922
38830SOL    HW118387   4.118  12.635   6.001
38830SOL    HW218388   4.189  12.523   5.929
38831SOL     OW18389  13.988   3.032  12.351
38831SOL    HW118390  13.982   3.126  12.364
38831SOL    HW218391  13.897   3.002  12.350
38832SOL     OW18392  10.851   3.811   9.836
38832SOL    HW118393  10.810   3.876   9.892
38832SOL    HW218394  10.938   3.798   9.873
38833SOL     OW18395   4.620   3.439  11.108
38833SOL    HW118396   4.708   3.421  11.140
38833SOL    HW218397   4.576   3.354  11.108
38834SOL     OW18398   4.365  12.130   6.793
38834SOL    HW118399   4.375  12.085   6.709
38834SOL    HW218400   4.433  12.092   6.849
38835SOL     OW18401   7.553   9.799   1.171
38835SOL    HW118402   7.515   9.737   1.109
38835SOL    HW218403   7.486   9.867   1.180
38836SOL     OW18404   2.018  12.952  14.257
38836SOL    HW118405   2.013  12.874  14.312
38836SOL    HW218406   2.089  12.935  14.195
38837SOL     OW18407   9.289   4.084  10.028
38837SOL    HW118408   9.212   4.116   9.982
38837SOL    HW218409   9.255   4.034  10.102
38838SOL     OW18410   2.419   2.151   6.245
38838SOL    HW118411   2.402   2.112   6.159
38838SOL    HW218412   2.515   2.157   6.250
38839SOL     OW18413   6.769   7.538  11.346
38839SOL    HW118414   6.696   7.531  11.408
38839SOL    HW218415   6.839   7.579  11.396
38840SOL     OW18416   9.752  14.711  13.336
38840SOL    HW118417   9.756  14.629  13.385
38840SOL    HW218418   9.836  14.716  13.290
38841SOL     OW18419   7.501   4.144   1.366
38841SOL    HW118420   7.438   4.214   1.381
38841SOL    HW218421   7.558   4.147   1.443
38842SOL     OW18422   0.973   9.560   4.624
38842SOL    HW118423   0.994   9.531   4.536
38842SOL    HW218424   0.897   9.507   4.649
38843SOL     OW18425   5.465   7.709  12.273
38843SOL    HW118426   5.495   7.634  12.221
38843SOL    HW218427   5.466   7.677  12.364
38844SOL     OW18428   6.901   9.434   8.994
38844SOL    HW118429   6.974   9.489   8.967
38844SOL    HW218430   6.942   9.353   9.025
38845SOL     OW18431   0.151   5.456   7.703
38845SOL    HW118432   0.157   5.542   7.744
38845SOL    HW218433   0.074   5.415   7.743
38846SOL     OW18434   5.237   8.294   2.360
38846SOL    HW118435   5.204   8.267   2.274
38846SOL    HW218436   5.268   8.213   2.401
38847SOL     OW18437   3.259   7.662   5.533
38847SOL    HW118438   3.333   7.721   5.523
38847SOL    HW218439   3.298   7.577   5.552
38848SOL     OW18440   5.601  12.962  14.569
38848SOL    HW118441   5.573  12.945  14.659
38848SOL    HW218442   5.696  12.959  14.573
38849SOL     OW18443   5.765  11.467  10.346
38849SOL    HW118444   5.794  11.557  10.338
38849SOL    HW218445   5.670  11.471  10.333
38850SOL     OW18446   8.054   3.390   4.639
38850SOL    HW118447   8.047   3.323   4.707
38850SOL    HW218448   7.995   3.460   4.668
38851SOL     OW18449  11.797   3.718   4.055
38851SOL    HW118450  11.709   3.727   4.018
38851SOL    HW218451  11.823   3.807   4.076
38852SOL     OW18452   9.445   7.797   3.445
38852SOL    HW118453   9.499   7.729   3.486
38852SOL    HW218454   9.487   7.813   3.360
38853SOL     OW18455   3.869   5.765  14.202
38853SOL    HW118456   3.886   5.792  14.111
38853SOL    HW218457   3.895   5.841  14.254
38854SOL     OW18458   6.235   0.093  13.382
38854SOL    HW118459   6.190   0.051  13.309
38854SOL    HW218460   6.179   0.074  13.458
38855SOL     OW18461   8.231  12.747   7.641
38855SOL    HW118462   8.159  12.752   7.578
38855SOL    HW218463   8.309  12.771   7.590
38856SOL     OW18464   2.928   1.991   7.149
38856SOL    HW118465   2.970   2.068   7.187
38856SOL    HW218466   2.856   1.972   7.209
38857SOL     OW18467   1.526   2.553  10.503
38857SOL    HW118468   1.473   2.485  10.544
38857SOL    HW218469   1.594   2.505  10.456
38858SOL     OW18470   7.800  14.065   0.707
38858SOL    HW118471   7.802  13.991   0.646
38858SOL    HW218472   7.867  14.125   0.674
38859SOL     OW18473   2.339   6.082  14.233
38859SOL    HW118474   2.398   6.070  14.158
38859SOL    HW218475   2.258   6.038  14.206
38860SOL     OW18476   9.605   4.472   2.407
38860SOL    HW118477   9.595   4.545   2.345
38860SOL    HW218478   9.619   4.514   2.492
38861SOL     OW18479   9.713   0.690  10.480
38861SOL    HW118480   9.617   0.685  10.475
38861SOL    HW218481   9.742   0.603  10.455
38862SOL     OW18482   2.498   1.968  13.236
38862SOL    HW118483   2.484   1.942  13.327
38862SOL    HW218484   2.588   1.942  13.217
38863SOL     OW18485  12.501  11.419   4.991
38863SOL    HW118486  12.577  11.378   5.032
38863SOL    HW218487  12.471  11.483   5.056
38864SOL     OW18488   5.551   6.302   6.334
38864SOL    HW118489   5.488   6.232   6.317
38864SOL    HW218490   5.506   6.361   6.394
38865SOL     OW18491   1.250   2.754   4.547
38865SOL    HW118492   1.344   2.742   4.539
38865SOL    HW218493   1.213   2.693   4.483
38866SOL     OW18494   0.714   6.737  11.684
38866SOL    HW118495   0.713   6.832  11.681
38866SOL    HW218496   0.622   6.711  11.690
38867SOL     OW18497   7.892   0.044  13.701
38867SOL    HW118498   7.828   0.084  13.760
38867SOL    HW218499   7.883  14.827  13.715
38868SOL     OW18500   7.722   5.439  14.354
38868SOL    HW118501   7.632   5.429  14.322
38868SOL    HW218502   7.734   5.533  14.364
38869SOL     OW18503   8.396  11.519  10.810
38869SOL    HW118504   8.473  11.463  10.821
38869SOL    HW218505   8.392  11.536  10.716
38870SOL     OW18506   5.931   2.637  14.200
38870SOL    HW118507   5.939   2.711  14.260
38870SOL    HW218508   5.852   2.592  14.229
38871SOL     OW18509   2.104   8.821   0.654
38871SOL    HW118510   2.200   8.822   0.653
38871SOL    HW218511   2.082   8.730   0.674
38872SOL     OW18512  11.474   5.622   6.824
38872SOL    HW118513  11.486   5.581   6.909
38872SOL    HW218514  11.411   5.692   6.840
38873SOL     OW18515   8.025  13.415   8.275
38873SOL    HW118516   8.042  13.414   8.180
38873SOL    HW218517   8.009  13.323   8.296
38874SOL     OW18518  13.258  12.401   1.589
38874SOL    HW118519  13.167  12.381   1.564
38874SOL    HW218520  13.250  12.461   1.663
38875SOL     OW18521   8.789   3.889   7.558
38875SOL    HW118522   8.788   3.942   7.478
38875SOL    HW218523   8.793   3.799   7.527
38876SOL     OW18524   7.134   8.903  11.086
38876SOL    HW118525   7.217   8.945  11.066
38876SOL    HW218526   7.128   8.830  11.025
38877SOL     OW18527   9.836   8.642  14.156
38877SOL    HW118528   9.770   8.594  14.206
38877SOL    HW218529   9.793   8.725  14.133
38878SOL     OW18530  14.575   7.281  13.550
38878SOL    HW118531  14.548   7.340  13.480
38878SOL    HW218532  14.552   7.194  13.519
38879SOL     OW18533  10.797   6.601   0.120
38879SOL    HW118534  10.801   6.652   0.202
38879SOL    HW218535  10.869   6.539   0.127
38880SOL     OW18536  14.621   8.465  14.594
38880SOL    HW118537  14.599   8.383  14.638
38880SOL    HW218538  14.626   8.530  14.664
38881SOL     OW18539   7.202   2.638   8.764
38881SOL    HW118540   7.274   2.650   8.702
38881SOL    HW218541   7.175   2.726   8.787
38882SOL     OW18542   0.841  10.383  13.455
38882SOL    HW118543   0.882  10.359  13.373
38882SOL    HW218544   0.801  10.469  13.438
38883SOL     OW18545  12.824   4.953   3.070
38883SOL    HW118546  12.808   4.913   3.155
38883SOL    HW218547  12.872   5.034   3.089
38884SOL     OW18548   0.365  14.270  12.829
38884SOL    HW118549   0.387  14.228  12.912
38884SOL    HW218550   0.356  14.363  12.850
38885SOL     OW18551   5.290  13.083   9.064
38885SOL    HW118552   5.254  13.008   9.017
38885SOL    HW218553   5.356  13.119   9.006
38886SOL     OW18554   7.225   2.385   7.331
38886SOL    HW118555   7.262   2.463   7.374
38886SOL    HW218556   7.298   2.323   7.328
38887SOL     OW18557  11.356   2.757  10.216
38887SOL    HW118558  11.263   2.747  10.233
38887SOL    HW218559  11.364   2.756  10.121
38888SOL     OW18560  14.434  14.086   0.644
38888SOL    HW118561  14.526  14.066   0.623
38888SOL    HW218562  14.426  14.065   0.737
38889SOL     OW18563   4.150  12.651  10.101
38889SOL    HW118564   4.087  12.682  10.035
38889SOL    HW218565   4.202  12.585  10.054
38890SOL     OW18566  11.737   0.769   6.418
38890SOL    HW118567  11.790   0.834   6.371
38890SOL    HW218568  11.647   0.786   6.391
38891SOL     OW18569   0.128  10.902   8.768
38891SOL    HW118570   0.149  10.993   8.785
38891SOL    HW218571   0.170  10.853   8.839
38892SOL     OW18572   5.020   4.300   6.801
38892SOL    HW118573   5.079   4.292   6.875
38892SOL    HW218574   5.069   4.264   6.727
38893SOL     OW18575   5.890   7.493   4.691
38893SOL    HW118576   5.920   7.577   4.657
38893SOL    HW218577   5.920   7.492   4.782
38894SOL     OW18578   0.931   1.051   9.260
38894SOL    HW118579   0.879   1.129   9.239
38894SOL    HW218580   0.900   0.984   9.199
38895SOL     OW18581   1.621  12.564   9.259
38895SOL    HW118582   1.541  12.570   9.207
38895SOL    HW218583   1.631  12.471   9.277
38896SOL     OW18584   1.367  13.822   0.588
38896SOL    HW118585   1.336  13.907   0.619
38896SOL    HW218586   1.288  13.767   0.589
38897SOL     OW18587  13.975   1.288  12.835
38897SOL    HW118588  13.936   1.330  12.911
38897SOL    HW218589  14.068   1.311  12.839
38898SOL     OW18590   8.945  10.615  14.263
38898SOL    HW118591   9.014  10.622  14.197
38898SOL    HW218592   8.875  10.566  14.219
38899SOL     OW18593   3.232   3.846   2.671
38899SOL    HW118594   3.303   3.787   2.647
38899SOL    HW218595   3.260   3.932   2.639
38900SOL     OW18596  14.814   5.642   0.212
38900SOL    HW118597  14.799   5.583   0.285
38900SOL    HW218598  14.833   5.585   0.138
38901SOL     OW18599   8.163  12.732   8.677
38901SOL    HW118600   8.217  12.667   8.632
38901SOL    HW218601   8.174  12.713   8.770
38902SOL     OW18602   5.966  14.834   1.377
38902SOL    HW118603   6.057  14.809   1.360
38902SOL    HW218604   5.933  14.766   1.436
38903SOL     OW18605   8.467   0.576   9.499
38903SOL    HW118606   8.538   0.622   9.455
38903SOL    HW218607   8.399   0.568   9.432
38904SOL     OW18608   3.911   7.188  12.601
38904SOL    HW118609   3.911   7.137  12.682
38904SOL    HW218610   3.826   7.231  12.599
38905SOL     OW18611   1.735   4.603  14.430
38905SOL    HW118612   1.811   4.657  14.409
38905SOL    HW218613   1.723   4.614  14.525
38906SOL     OW18614  11.467   9.058  14.460
38906SOL    HW118615  11.506   9.052  14.548
38906SOL    HW218616  11.525   9.116  14.412
38907SOL     OW18617  10.322  12.918  12.207
38907SOL    HW118618  10.266  12.968  12.147
38907SOL    HW218619  10.397  12.976  12.222
38908SOL     OW18620  11.628   4.820   6.973
38908SOL    HW118621  11.667   4.853   6.892
38908SOL    HW218622  11.556   4.765   6.945
38909SOL     OW18623  10.042  10.608  12.592
38909SOL    HW118624  10.040  10.647  12.505
38909SOL    HW218625  10.023  10.681  12.651
38910SOL     OW18626   4.746   3.488   3.694
38910SOL    HW118627   4.771   3.413   3.639
38910SOL    HW218628   4.675   3.529   3.646
38911SOL     OW18629   8.538   1.695   3.291
38911SOL    HW118630   8.622   1.729   3.324
38911SOL    HW218631   8.518   1.750   3.215
38912SOL     OW18632   7.485   3.351  10.040
38912SOL    HW118633   7.451   3.293  10.108
38912SOL    HW218634   7.448   3.318   9.959
38913SOL     OW18635   0.434   1.307   8.694
38913SOL    HW118636   0.344   1.297   8.727
38913SOL    HW218637   0.484   1.239   8.740
38914SOL     OW18638   4.018   6.172  10.434
38914SOL    HW118639   4.014   6.077  10.440
38914SOL    HW218640   3.947   6.196  10.374
38915SOL     OW18641  12.887   5.467  10.503
38915SOL    HW118642  12.928   5.537  10.453
38915SOL    HW218643  12.808   5.445  10.453
38916SOL     OW18644  12.257   2.160  14.610
38916SOL    HW118645  12.161   2.168  14.604
38916SOL    HW218646  12.275   2.164  14.703
38917SOL     OW18647   3.135   3.912   0.150
38917SOL    HW118648   3.166   3.976   0.085
38917SOL    HW218649   3.119   3.832   0.099
38918SOL     OW18650   1.189   3.906   9.221
38918SOL    HW118651   1.160   3.973   9.159
38918SOL    HW218652   1.203   3.953   9.303
38919SOL     OW18653  11.601  12.410   4.596
38919SOL    HW118654  11.635  12.481   4.542
38919SOL    HW218655  11.508  12.428   4.605
38920SOL     OW18656   9.404  13.580   8.511
38920SOL    HW118657   9.317  13.592   8.473
38920SOL    HW218658   9.463  13.627   8.452
38921SOL     OW18659   5.681   2.105   6.125
38921SOL    HW118660   5.649   2.046   6.057
38921SOL    HW218661   5.776   2.097   6.121
38922SOL     OW18662  12.508  14.336   5.201
38922SOL    HW118663  12.549  14.368   5.282
38922SOL    HW218664  12.555  14.255   5.181
38923SOL     OW18665   4.566   0.996   3.385
38923SOL    HW118666   4.490   1.047   3.414
38923SOL    HW218667   4.541   0.962   3.299
38924SOL     OW18668   3.505   7.329   2.447
38924SOL    HW118669   3.412   7.348   2.458
38924SOL    HW218670   3.517   7.321   2.352
38925SOL     OW18671   9.694  11.719   2.836
38925SOL    HW118672   9.689  11.672   2.920
38925SOL    HW218673   9.787  11.718   2.814
38926SOL     OW18674   2.310   5.280   6.328
38926SOL    HW118675   2.301   5.254   6.419
38926SOL    HW218676   2.398   5.316   6.322
38927SOL     OW18677   7.800   7.832   2.539
38927SOL    HW118678   7.775   7.875   2.621
38927SOL    HW218679   7.743   7.756   2.534
38928SOL     OW18680   3.283   9.809  13.715
38928SOL    HW118681   3.324   9.773  13.637
38928SOL    HW218682   3.237   9.887  13.685
38929SOL     OW18683   1.666   4.512  10.013
38929SOL    HW118684   1.687   4.541  10.102
38929SOL    HW218685   1.716   4.432  10.002
38930SOL     OW18686  10.812   2.344   7.108
38930SOL    HW118687  10.746   2.306   7.166
38930SOL    HW218688  10.765   2.411   7.060
38931SOL     OW18689  12.694   4.205  10.170
38931SOL    HW118690  12.676   4.237  10.082
38931SOL    HW218691  12.774   4.250  10.197
38932SOL     OW18692   6.572   4.624   8.329
38932SOL    HW118693   6.602   4.596   8.416
38932SOL    HW218694   6.483   4.656   8.344
38933SOL     OW18695   4.199   0.354  13.225
38933SOL    HW118696   4.293   0.367  13.237
38933SOL    HW218697   4.173   0.297  13.298
38934SOL     OW18698   2.162   8.885   7.390
38934SOL    HW118699   2.185   8.968   7.431
38934SOL    HW218700   2.105   8.910   7.316
38935SOL     OW18701  13.225  13.634  11.721
38935SOL    HW118702  13.217  13.539  11.728
38935SOL    HW218703  13.277  13.648  11.642
38936SOL     OW18704  12.766   0.583  13.971
38936SOL    HW118705  12.753   0.627  13.887
38936SOL    HW218706  12.839   0.523  13.956
38937SOL     OW18707  13.829   0.820   4.503
38937SOL    HW118708  13.904   0.761   4.506
38937SOL    HW218709  13.867   0.907   4.499
38938SOL     OW18710   8.499  14.074   8.933
38938SOL    HW118711   8.495  14.055   8.839
38938SOL    HW218712   8.440  14.009   8.973
38939SOL     OW18713   6.849   3.191  11.500
38939SOL    HW118714   6.943   3.199  11.487
38939SOL    HW218715   6.824   3.271  11.547
38940SOL     OW18716   1.030   6.348  10.697
38940SOL    HW118717   1.052   6.259  10.671
38940SOL    HW218718   0.999   6.390  10.617
38941SOL     OW18719  11.168   8.129   4.473
38941SOL    HW118720  11.234   8.096   4.534
38941SOL    HW218721  11.163   8.063   4.404
38942SOL     OW18722   4.145   5.732   6.039
38942SOL    HW118723   4.184   5.790   5.974
38942SOL    HW218724   4.217   5.677   6.069
38943SOL     OW18725   1.036   1.453  14.750
38943SOL    HW118726   1.020   1.365  14.716
38943SOL    HW218727   1.099   1.491  14.689
38944SOL     OW18728  13.993  14.600   3.944
38944SOL    HW118729  14.044  14.522   3.963
38944SOL    HW218730  14.049  14.672   3.974
38945SOL     OW18731  14.333   5.080  14.728
38945SOL    HW118732  14.391   5.145  14.767
38945SOL    HW218733  14.370   5.063  14.641
38946SOL     OW18734   5.113   4.270  12.844
38946SOL    HW118735   5.061   4.195  12.814
38946SOL    HW218736   5.199   4.258  12.803
38947SOL     OW18737   7.334   1.103   2.126
38947SOL    HW118738   7.296   1.089   2.213
38947SOL    HW218739   7.334   1.199   2.116
38948SOL     OW18740   4.490   6.176   1.332
38948SOL    HW118741   4.461   6.148   1.245
38948SOL    HW218742   4.430   6.247   1.355
38949SOL     OW18743   0.023   1.226   9.304
38949SOL    HW118744   0.083   1.179   9.362
38949SOL    HW218745  14.871   1.161   9.241
38950SOL     OW18746  12.339  13.963   3.917
38950SOL    HW118747  12.336  14.058   3.923
38950SOL    HW218748  12.360  13.945   3.825
38951SOL     OW18749  14.526  11.544   8.300
38951SOL    HW118750  14.518  11.621   8.356
38951SOL    HW218751  14.612  11.508   8.319
38952SOL     OW18752   0.819   1.335  10.452
38952SOL    HW118753   0.911   1.336  10.425
38952SOL    HW218754   0.793   1.243  10.446
38953SOL     OW18755   7.792   2.912   7.199
38953SOL    HW118756   7.825   2.822   7.205
38953SOL    HW218757   7.698   2.902   7.183
38954SOL     OW18758   0.928   3.938   2.772
38954SOL    HW118759   0.952   4.026   2.800
38954SOL    HW218760   0.859   3.952   2.707
38955SOL     OW18761   9.007  14.841  10.028
38955SOL    HW118762   9.038  14.790  10.104
38955SOL    HW218763   8.912  14.843  10.038
38956SOL     OW18764  11.232  13.593   4.600
38956SOL    HW118765  11.140  13.609   4.621
38956SOL    HW218766  11.243  13.498   4.611
38957SOL     OW18767   7.054   0.472   0.889
38957SOL    HW118768   7.106   0.427   0.955
38957SOL    HW218769   7.012   0.544   0.936
38958SOL     OW18770   9.758   1.640  14.265
38958SOL    HW118771   9.790   1.604  14.347
38958SOL    HW218772   9.747   1.734  14.282
38959SOL     OW18773   8.534   5.551   0.198
38959SOL    HW118774   8.516   5.478   0.258
38959SOL    HW218775   8.627   5.542   0.177
38960SOL     OW18776   5.069   5.986   6.059
38960SOL    HW118777   5.050   6.021   6.147
38960SOL    HW218778   4.983   5.962   6.024
38961SOL     OW18779   3.100   8.290  12.744
38961SOL    HW118780   3.163   8.239  12.796
38961SOL    HW218781   3.038   8.324  12.809
38962SOL     OW18782   6.300   5.195  13.684
38962SOL    HW118783   6.394   5.208  13.671
38962SOL    HW218784   6.288   5.100  13.678
38963SOL     OW18785   9.971  12.222   2.105
38963SOL    HW118786   9.925  12.187   2.029
38963SOL    HW218787   9.906  12.220   2.175
38964SOL     OW18788   0.431   2.790  14.577
38964SOL    HW118789   0.405   2.749  14.659
38964SOL    HW218790   0.455   2.880  14.602
38965SOL     OW18791   6.520  10.288  10.067
38965SOL    HW118792   6.449  10.237  10.027
38965SOL    HW218793   6.590  10.224  10.080
38966SOL     OW18794   3.127   2.202  13.928
38966SOL    HW118795   3.118   2.149  13.849
38966SOL    HW218796   3.041   2.241  13.941
38967SOL     OW18797  12.752   7.818   9.377
38967SOL    HW118798  12.758   7.739   9.430
38967SOL    HW218799  12.829   7.870   9.400
38968SOL     OW18800  14.805   4.633   8.972
38968SOL    HW118801  14.858   4.713   8.982
38968SOL    HW218802  14.789   4.603   9.061
38969SOL     OW18803   7.337  13.158   7.324
38969SOL    HW118804   7.290  13.077   7.343
38969SOL    HW218805   7.268  13.219   7.297
38970SOL     OW18806   5.135  12.786   6.374
38970SOL    HW118807   5.052  12.827   6.399
38970SOL    HW218808   5.128  12.775   6.279
38971SOL     OW18809  14.468   3.686   0.880
38971SOL    HW118810  14.548   3.665   0.928
38971SOL    HW218811  14.479   3.777   0.852
38972SOL     OW18812  10.619  10.919  13.662
38972SOL    HW118813  10.535  10.913  13.707
38972SOL    HW218814  10.614  11.000  13.611
38973SOL     OW18815   8.743  13.148  12.472
38973SOL    HW118816   8.726  13.241  12.460
38973SOL    HW218817   8.836  13.143  12.496
38974SOL     OW18818  10.905   6.356   5.337
38974SOL    HW118819  10.888   6.319   5.251
38974SOL    HW218820  10.843   6.428   5.345
38975SOL     OW18821  14.353   0.264   8.337
38975SOL    HW118822  14.286   0.196   8.326
38975SOL    HW218823  14.436   0.218   8.328
38976SOL     OW18824   1.630  12.998  11.332
38976SOL    HW118825   1.550  13.020  11.379
38976SOL    HW218826   1.616  13.035  11.244
38977SOL     OW18827  13.943   0.398  12.021
38977SOL    HW118828  13.990   0.453  11.959
38977SOL    HW218829  13.864   0.371  11.975
38978SOL     OW18830   2.700  11.776  11.505
38978SOL    HW118831   2.731  11.820  11.426
38978SOL    HW218832   2.748  11.693  11.506
38979SOL     OW18833   4.114   5.423   9.638
38979SOL    HW118834   4.052   5.477   9.589
38979SOL    HW218835   4.161   5.374   9.570
38980SOL     OW18836  13.226   8.805  10.191
38980SOL    HW118837  13.242   8.711  10.193
38980SOL    HW218838  13.166   8.821  10.264
38981SOL     OW18839   1.097   9.531   2.006
38981SOL    HW118840   1.002   9.527   1.991
38981SOL    HW218841   1.135   9.480   1.935
38982SOL     OW18842  11.193   7.648   2.402
38982SOL    HW118843  11.128   7.668   2.334
38982SOL    HW218844  11.162   7.695   2.479
38983SOL     OW18845   1.635   4.180  14.816
38983SOL    HW118846   1.719   4.226  14.817
38983SOL    HW218847   1.620   4.158  14.725
38984SOL     OW18848  10.540   1.735   0.443
38984SOL    HW118849  10.447   1.755   0.451
38984SOL    HW218850  10.546   1.678   0.366
38985SOL     OW18851  12.770  12.414   8.087
38985SOL    HW118852  12.845  12.355   8.087
38985SOL    HW218853  12.757  12.438   8.179
38986SOL     OW18854   8.651   3.258   3.892
38986SOL    HW118855   8.577   3.206   3.862
38986SOL    HW218856   8.662   3.233   3.984
38987SOL     OW18857  10.377  14.505   5.718
38987SOL    HW118858  10.407  14.542   5.635
38987SOL    HW218859  10.450  14.451   5.748
38988SOL     OW18860  11.550   8.822   0.538
38988SOL    HW118861  11.597   8.823   0.622
38988SOL    HW218862  11.458   8.826   0.562
38989SOL     OW18863   1.295  12.673   4.107
38989SOL    HW118864   1.366  12.620   4.072
38989SOL    HW218865   1.294  12.752   4.052
38990SOL     OW18866   4.954   7.502   9.417
38990SOL    HW118867   4.896   7.577   9.405
38990SOL    HW218868   4.990   7.513   9.504
38991SOL     OW18869  14.609   3.423   4.943
38991SOL    HW118870  14.684   3.370   4.916
38991SOL    HW218871  14.571   3.453   4.860
38992SOL     OW18872   5.285   0.607   6.537
38992SOL    HW118873   5.277   0.685   6.592
38992SOL    HW218874   5.354   0.556   6.579
38993SOL     OW18875   6.448  12.323   0.438
38993SOL    HW118876   6.402  12.319   0.354
38993SOL    HW218877   6.541  12.324   0.414
38994SOL     OW18878   4.055   0.209   9.643
38994SOL    HW118879   4.077   0.292   9.601
38994SOL    HW218880   4.071   0.224   9.736
38995SOL     OW18881  14.058   3.166   7.996
38995SOL    HW118882  14.139   3.116   7.989
38995SOL    HW218883  14.028   3.151   8.086
38996SOL     OW18884   4.825   2.976   5.941
38996SOL    HW118885   4.783   2.903   5.986
38996SOL    HW218886   4.905   2.992   5.990
38997SOL     OW18887   7.762   2.366   9.364
38997SOL    HW118888   7.806   2.288   9.330
38997SOL    HW218889   7.672   2.357   9.334
38998SOL     OW18890  13.601  13.773  11.871
38998SOL    HW118891  13.681  13.744  11.915
38998SOL    HW218892  13.531  13.721  11.912
38999SOL     OW18893   0.438  12.626   6.798
38999SOL    HW118894   0.354  12.648   6.838
38999SOL    HW218895   0.440  12.530   6.797
39000SOL     OW18896  14.000  14.219   7.607
39000SOL    HW118897  13.948  14.141   7.590
39000SOL    HW218898  14.091  14.189   7.604
39001SOL     OW18899  12.071   4.241   0.147
39001SOL    HW118900  12.084   4.188   0.226
39001SOL    HW218901  12.142   4.214   0.088
39002SOL     OW18902   5.560  13.672  14.032
39002SOL    HW118903   5.576  13.584  14.067
39002SOL    HW218904   5.548  13.659  13.938
39003SOL     OW18905  14.235   7.115   5.883
39003SOL    HW118906  14.320   7.075   5.901
39003SOL    HW218907  14.249   7.208   5.899
39004SOL     OW18908   2.081   4.107   5.426
39004SOL    HW118909   2.063   4.114   5.520
39004SOL    HW218910   2.119   4.019   5.415
39005SOL     OW18911   7.299   0.733  10.864
39005SOL    HW118912   7.207   0.711  10.854
39005SOL    HW218913   7.321   0.781  10.783
39006SOL     OW18914   9.771   1.314   2.987
39006SOL    HW118915   9.746   1.365   3.064
39006SOL    HW218916   9.856   1.276   3.010
39007SOL     OW18917   3.672   9.449  12.548
39007SOL    HW118918   3.723   9.530  12.542
39007SOL    HW218919   3.611   9.454  12.474
39008SOL     OW18920   5.891   3.561  13.408
39008SOL    HW118921   5.920   3.497  13.474
39008SOL    HW218922   5.911   3.519  13.324
39009SOL     OW18923  10.658  14.795   5.125
39009SOL    HW118924  10.740  14.784   5.078
39009SOL    HW218925  10.600  14.839   5.063
39010SOL     OW18926   3.767  12.622   2.209
39010SOL    HW118927   3.731  12.536   2.229
39010SOL    HW218928   3.706  12.659   2.145
39011SOL     OW18929  11.732   0.958   0.869
39011SOL    HW118930  11.803   0.963   0.934
39011SOL    HW218931  11.653   0.976   0.920
39012SOL     OW18932   7.320  12.933   1.467
39012SOL    HW118933   7.282  12.966   1.386
39012SOL    HW218934   7.256  12.869   1.499
39013SOL     OW18935   5.538   0.801   4.429
39013SOL    HW118936   5.495   0.854   4.361
39013SOL    HW218937   5.466   0.757   4.473
39014SOL     OW18938   2.015  10.516   1.840
39014SOL    HW118939   1.924  10.541   1.856
39014SOL    HW218940   2.015  10.421   1.843
39015SOL     OW18941   6.347   5.174  13.991
39015SOL    HW118942   6.348   5.245  14.055
39015SOL    HW218943   6.325   5.218  13.908
39016SOL     OW18944  12.563  11.330  12.120
39016SOL    HW118945  12.549  11.425  12.120
39016SOL    HW218946  12.475  11.293  12.121
39017SOL     OW18947  10.726  13.456   7.111
39017SOL    HW118948  10.752  13.483   7.200
39017SOL    HW218949  10.784  13.506   7.054
39018SOL     OW18950   8.527   1.803   4.867
39018SOL    HW118951   8.606   1.831   4.914
39018SOL    HW218952   8.537   1.708   4.857
39019SOL     OW18953   7.481  10.782   4.706
39019SOL    HW118954   7.519  10.707   4.751
39019SOL    HW218955   7.442  10.745   4.627
39020SOL     OW18956   9.676   1.111   5.429
39020SOL    HW118957   9.588   1.074   5.441
39020SOL    HW218958   9.661   1.193   5.383
39021SOL     OW18959   0.841   5.708   8.780
39021SOL    HW118960   0.861   5.790   8.825
39021SOL    HW218961   0.758   5.725   8.735
39022SOL     OW18962   7.574  13.754  13.977
39022SOL    HW118963   7.543  13.664  13.965
39022SOL    HW218964   7.665  13.752  13.948
39023SOL     OW18965   7.417   7.421  14.043
39023SOL    HW118966   7.424   7.490  13.977
39023SOL    HW218967   7.448   7.463  14.124
39024SOL     OW18968   4.772  13.443   2.455
39024SOL    HW118969   4.807  13.452   2.367
39024SOL    HW218970   4.848  13.425   2.510
39025SOL     OW18971   9.218   5.840  12.974
39025SOL    HW118972   9.193   5.877  12.889
39025SOL    HW218973   9.138   5.838  13.025
39026SOL     OW18974   7.070  10.189   6.521
39026SOL    HW118975   7.041  10.277   6.496
39026SOL    HW218976   7.038  10.133   6.450
39027SOL     OW18977   7.117  13.388   5.344
39027SOL    HW118978   7.118  13.408   5.438
39027SOL    HW218979   7.204  13.414   5.313
39028SOL     OW18980   1.336  12.320  10.760
39028SOL    HW118981   1.319  12.261  10.834
39028SOL    HW218982   1.251  12.355  10.736
39029SOL     OW18983   0.047   4.476  10.386
39029SOL    HW118984  14.846   4.450  10.338
39029SOL    HW218985   0.028   4.455  10.478
39030SOL     OW18986   0.552   9.502  12.807
39030SOL    HW118987   0.472   9.453  12.827
39030SOL    HW218988   0.520   9.584  12.769
39031SOL     OW18989   7.242  14.045  13.067
39031SOL    HW118990   7.221  14.065  13.158
39031SOL    HW218991   7.166  14.076  13.018
39032SOL     OW18992   0.925   0.861   7.524
39032SOL    HW118993   0.839   0.859   7.566
39032SOL    HW218994   0.914   0.809   7.445
39033SOL     OW18995  13.552  13.287   8.016
39033SOL    HW118996  13.638  13.328   8.018
39033SOL    HW218997  13.543  13.254   7.926
39034SOL     OW18998   1.086   2.971   5.411
39034SOL    HW118999   1.083   2.911   5.337
39034SOL    HW219000   1.006   3.024   5.402
39035SOL     OW19001   4.484  14.245   4.955
39035SOL    HW119002   4.540  14.323   4.960
39035SOL    HW219003   4.485  14.222   4.862
39036SOL     OW19004   7.088  12.221   5.190
39036SOL    HW119005   7.079  12.151   5.125
39036SOL    HW219006   7.070  12.178   5.274
39037SOL     OW19007   9.554  10.996  13.950
39037SOL    HW119008   9.529  10.938  13.878
39037SOL    HW219009   9.474  11.006  14.002
39038SOL     OW19010   8.900   0.795  14.753
39038SOL    HW119011   8.874   0.713  14.710
39038SOL    HW219012   8.861   0.864  14.699
39039SOL     OW19013  11.800   5.537   2.595
39039SOL    HW119014  11.809   5.512   2.687
39039SOL    HW219015  11.708   5.523   2.575
39040SOL     OW19016  14.577   0.830   0.266
39040SOL    HW119017  14.598   0.741   0.238
39040SOL    HW219018  14.654   0.860   0.313
39041SOL     OW19019   7.677   0.060  12.711
39041SOL    HW119020   7.634   0.141  12.686
39041SOL    HW219021   7.630  14.869  12.664
39042SOL     OW19022  12.246   4.452   1.307
39042SOL    HW119023  12.166   4.501   1.287
39042SOL    HW219024  12.315   4.519   1.307
39043SOL     OW19025  12.210   3.738  14.644
39043SOL    HW119026  12.150   3.665  14.633
39043SOL    HW219027  12.167   3.795  14.707
39044SOL     OW19028  12.329  11.992   2.260
39044SOL    HW119029  12.355  12.084   2.255
39044SOL    HW219030  12.346  11.967   2.351
39045SOL     OW19031   4.042   7.350  13.997
39045SOL    HW119032   4.041   7.310  13.910
39045SOL    HW219033   3.951   7.373  14.014
39046SOL     OW19034   6.906  10.661  10.004
39046SOL    HW119035   6.918  10.671  10.099
39046SOL    HW219036   6.844  10.730   9.981
39047SOL     OW19037   0.291  11.369   6.268
39047SOL    HW119038   0.272  11.319   6.347
39047SOL    HW219039   0.327  11.304   6.207
39048SOL     OW19040   8.804  14.065   8.099
39048SOL    HW119041   8.713  14.091   8.109
39048SOL    HW219042   8.825  14.020   8.181
39049SOL     OW19043   0.823   0.593   7.786
39049SOL    HW119044   0.883   0.535   7.833
39049SOL    HW219045   0.781   0.644   7.855
39050SOL     OW19046   4.781   0.824  12.830
39050SOL    HW119047   4.777   0.915  12.799
39050SOL    HW219048   4.730   0.823  12.910
39051SOL     OW19049  12.397  10.034   6.550
39051SOL    HW119050  12.327  10.097   6.563
39051SOL    HW219051  12.452  10.042   6.629
39052SOL     OW19052   6.146   8.225   7.046
39052SOL    HW119053   6.070   8.199   6.994
39052SOL    HW219054   6.217   8.236   6.983
39053SOL     OW19055   8.683   3.415   0.645
39053SOL    HW119056   8.766   3.368   0.656
39053SOL    HW219057   8.700   3.479   0.576
39054SOL     OW19058   5.387   6.955  12.089
39054SOL    HW119059   5.402   6.887  12.024
39054SOL    HW219060   5.453   7.022  12.071
39055SOL     OW19061   4.291   3.103  14.100
39055SOL    HW119062   4.246   3.020  14.087
39055SOL    HW219063   4.238   3.167  14.051
39056SOL     OW19064   0.609   7.163   3.337
39056SOL    HW119065   0.650   7.245   3.310
39056SOL    HW219066   0.550   7.140   3.265
39057SOL     OW19067   3.675   1.725  10.657
39057SOL    HW119068   3.691   1.763  10.571
39057SOL    HW219069   3.691   1.797  10.718
39058SOL     OW19070   8.081  11.078   4.964
39058SOL    HW119071   8.136  11.000   4.973
39058SOL    HW219072   8.109  11.135   5.037
39059SOL     OW19073  13.868   8.699   9.747
39059SOL    HW119074  13.781   8.680   9.710
39059SOL    HW219075  13.904   8.767   9.691
39060SOL     OW19076  10.121   4.403   3.307
39060SOL    HW119077  10.203   4.385   3.353
39060SOL    HW219078  10.145   4.462   3.236
39061SOL     OW19079   3.626   2.062   5.188
39061SOL    HW119080   3.612   2.016   5.106
39061SOL    HW219081   3.705   2.022   5.225
39062SOL     OW19082   2.393   7.391  13.010
39062SOL    HW119083   2.469   7.447  12.993
39062SOL    HW219084   2.418   7.339  13.086
39063SOL     OW19085  11.356   5.118   0.309
39063SOL    HW119086  11.375   5.194   0.254
39063SOL    HW219087  11.384   5.043   0.256
39064SOL     OW19088   1.945  11.223   8.702
39064SOL    HW119089   1.950  11.277   8.781
39064SOL    HW219090   1.896  11.145   8.729
39065SOL     OW19091   4.171  13.176   8.685
39065SOL    HW119092   4.160  13.081   8.690
39065SOL    HW219093   4.138  13.199   8.598
39066SOL     OW19094   1.590   9.138   2.395
39066SOL    HW119095   1.608   9.121   2.302
39066SOL    HW219096   1.626   9.226   2.410
39067SOL     OW19097   4.740  13.869   9.978
39067SOL    HW119098   4.815  13.902   9.928
39067SOL    HW219099   4.677  13.942   9.977
39068SOL     OW19100  13.847   1.663  12.167
39068SOL    HW119101  13.787   1.597  12.201
39068SOL    HW219102  13.893   1.619  12.096
39069SOL     OW19103  14.590   2.887  12.021
39069SOL    HW119104  14.652   2.814  12.014
39069SOL    HW219105  14.643   2.965  12.003
39070SOL     OW19106   9.358  13.383   9.156
39070SOL    HW119107   9.290  13.368   9.091
39070SOL    HW219108   9.407  13.301   9.159
39071SOL     OW19109  11.041  10.831  12.806
39071SOL    HW119110  10.969  10.791  12.854
39071SOL    HW219111  11.066  10.907  12.858
39072SOL     OW19112   6.075   8.805   8.008
39072SOL    HW119113   6.083   8.896   8.034
39072SOL    HW219114   6.148   8.761   8.052
39073SOL     OW19115   3.358   0.140   5.460
39073SOL    HW119116   3.372   0.103   5.547
39073SOL    HW219117   3.298   0.214   5.474
39074SOL     OW19118   4.547  13.776   5.725
39074SOL    HW119119   4.488  13.712   5.684
39074SOL    HW219120   4.573  13.833   5.653
39075SOL     OW19121   2.765   3.655   9.663
39075SOL    HW119122   2.709   3.589   9.704
39075SOL    HW219123   2.721   3.738   9.679
39076SOL     OW19124   6.830   4.062   2.504
39076SOL    HW119125   6.903   4.007   2.532
39076SOL    HW219126   6.752   4.012   2.527
39077SOL     OW19127   7.589  10.859  14.036
39077SOL    HW119128   7.658  10.792  14.043
39077SOL    HW219129   7.510  10.810  14.013
39078SOL     OW19130  10.433   7.164  11.472
39078SOL    HW119131  10.479   7.239  11.509
39078SOL    HW219132  10.500   7.097  11.461
39079SOL     OW19133  14.547   7.825   4.243
39079SOL    HW119134  14.579   7.911   4.214
39079SOL    HW219135  14.625   7.783   4.281
39080SOL     OW19136   5.735   7.386  14.034
39080SOL    HW119137   5.660   7.415  14.086
39080SOL    HW219138   5.734   7.290  14.042
39081SOL     OW19139  11.850   6.000   5.560
39081SOL    HW119140  11.889   6.057   5.626
39081SOL    HW219141  11.873   5.911   5.589
39082SOL     OW19142   2.306   0.456   1.613
39082SOL    HW119143   2.226   0.506   1.601
39082SOL    HW219144   2.350   0.461   1.528
39083SOL     OW19145   7.380   3.509  12.236
39083SOL    HW119146   7.440   3.519  12.310
39083SOL    HW219147   7.398   3.421  12.203
39084SOL     OW19148   0.359   5.628  14.389
39084SOL    HW119149   0.410   5.592  14.462
39084SOL    HW219150   0.271   5.594  14.403
39085SOL     OW19151   5.740   3.681   0.747
39085SOL    HW119152   5.755   3.618   0.818
39085SOL    HW219153   5.824   3.725   0.735
39086SOL     OW19154  12.874   0.089   0.397
39086SOL    HW119155  12.808   0.157   0.380
39086SOL    HW219156  12.825   0.007   0.390
39087SOL     OW19157   8.084  10.397  13.531
39087SOL    HW119158   8.005  10.451  13.527
39087SOL    HW219159   8.129  10.413  13.448
39088SOL     OW19160  11.057  11.863   5.084
39088SOL    HW119161  11.032  11.859   4.992
39088SOL    HW219162  10.978  11.895   5.129
39089SOL     OW19163   6.718  12.523   8.342
39089SOL    HW119164   6.644  12.462   8.338
39089SOL    HW219165   6.687  12.600   8.294
39090SOL     OW19166   8.564   1.690  10.227
39090SOL    HW119167   8.518   1.707  10.145
39090SOL    HW219168   8.654   1.716  10.210
39091SOL     OW19169   2.814  13.962   9.703
39091SOL    HW119170   2.904  13.989   9.687
39091SOL    HW219171   2.761  14.024   9.652
39092SOL     OW19172  13.651  14.203  13.435
39092SOL    HW119173  13.715  14.226  13.367
39092SOL    HW219174  13.568  14.236  13.401
39093SOL     OW19175   7.305   0.061   3.060
39093SOL    HW119176   7.268   0.040   2.975
39093SOL    HW219177   7.268  14.873   3.119
39094SOL     OW19178   8.927   1.394   7.246
39094SOL    HW119179   8.862   1.464   7.245
39094SOL    HW219180   8.904   1.339   7.170
39095SOL     OW19181   4.075  12.409   9.209
39095SOL    HW119182   4.032  12.458   9.279
39095SOL    HW219183   4.031  12.324   9.209
39096SOL     OW19184  10.277   0.793   9.223
39096SOL    HW119185  10.239   0.821   9.306
39096SOL    HW219186  10.241   0.705   9.208
39097SOL     OW19187   3.259   7.925   2.052
39097SOL    HW119188   3.324   7.856   2.066
39097SOL    HW219189   3.177   7.878   2.038
39098SOL     OW19190  13.026   0.207   6.263
39098SOL    HW119191  12.934   0.182   6.248
39098SOL    HW219192  13.048   0.167   6.347
39099SOL     OW19193   8.928  11.929   1.769
39099SOL    HW119194   8.975  11.921   1.686
39099SOL    HW219195   8.865  12.000   1.753
39100SOL     OW19196   9.827  10.004   3.474
39100SOL    HW119197   9.741   9.990   3.434
39100SOL    HW219198   9.817  10.086   3.523
39101SOL     OW19199  11.658   9.698   1.794
39101SOL    HW119200  11.605   9.659   1.725
39101SOL    HW219201  11.748   9.681   1.768
39102SOL     OW19202   2.862  12.492   2.567
39102SOL    HW119203   2.890  12.444   2.645
39102SOL    HW219204   2.841  12.424   2.503
39103SOL     OW19205   7.790   1.195  11.256
39103SOL    HW119206   7.810   1.201  11.163
39103SOL    HW219207   7.780   1.286  11.285
39104SOL     OW19208  10.948  12.233  12.529
39104SOL    HW119209  10.888  12.159  12.527
39104SOL    HW219210  11.016  12.206  12.590
39105SOL     OW19211   9.645   9.554  11.533
39105SOL    HW119212   9.626   9.477  11.478
39105SOL    HW219213   9.691   9.614  11.474
39106SOL     OW19214   8.360  13.812   7.314
39106SOL    HW119215   8.412  13.803   7.234
39106SOL    HW219216   8.298  13.740   7.311
39107SOL     OW19217   1.753   2.732   4.145
39107SOL    HW119218   1.805   2.664   4.189
39107SOL    HW219219   1.810   2.764   4.075
39108SOL     OW19220  10.970  13.278   5.183
39108SOL    HW119221  11.050  13.232   5.161
39108SOL    HW219222  10.909  13.210   5.211
39109SOL     OW19223   3.273  12.129   1.085
39109SOL    HW119224   3.310  12.053   1.041
39109SOL    HW219225   3.197  12.095   1.132
39110SOL     OW19226   7.761   1.145   1.442
39110SOL    HW119227   7.781   1.102   1.359
39110SOL    HW219228   7.768   1.075   1.508
39111SOL     OW19229   9.058  10.049   8.713
39111SOL    HW119230   9.132  10.002   8.675
39111SOL    HW219231   9.012   9.983   8.766
39112SOL     OW19232   5.855   7.475   9.519
39112SOL    HW119233   5.779   7.426   9.551
39112SOL    HW219234   5.923   7.410   9.508
39113SOL     OW19235   7.781   6.658   0.908
39113SOL    HW119236   7.873   6.641   0.891
39113SOL    HW219237   7.781   6.732   0.969
39114SOL     OW19238   8.254   8.667   3.109
39114SOL    HW119239   8.318   8.713   3.164
39114SOL    HW219240   8.308   8.615   3.049
39115SOL     OW19241   7.059   8.262  10.965
39115SOL    HW119242   7.036   8.184  11.014
39115SOL    HW219243   7.050   8.334  11.028
39116SOL     OW19244  11.923   7.859   1.458
39116SOL    HW119245  11.924   7.823   1.546
39116SOL    HW219246  11.907   7.784   1.401
39117SOL     OW19247   4.314  12.553   2.968
39117SOL    HW119248   4.256  12.478   2.983
39117SOL    HW219249   4.399  12.525   3.002
39118SOL     OW19250   1.371   9.064   0.099
39118SOL    HW119251   1.287   9.021   0.116
39118SOL    HW219252   1.370   9.141   0.155
39119SOL     OW19253   5.224  14.359   6.937
39119SOL    HW119254   5.202  14.291   6.873
39119SOL    HW219255   5.319  14.359   6.940
39120SOL     OW19256   5.608   0.081   8.947
39120SOL    HW119257   5.576   0.144   8.882
39120SOL    HW219258   5.624   0.001   8.897
39121SOL     OW19259   3.472   7.185   9.808
39121SOL    HW119260   3.381   7.194   9.837
39121SOL    HW219261   3.496   7.274   9.780
39122SOL     OW19262   8.281   2.901   9.109
39122SOL    HW119263   8.213   2.838   9.130
39122SOL    HW219264   8.351   2.883   9.172
39123SOL     OW19265   9.985   2.491   7.801
39123SOL    HW119266   9.969   2.446   7.884
39123SOL    HW219267   9.954   2.580   7.815
39124SOL     OW19268  12.335   3.834   6.124
39124SOL    HW119269  12.330   3.872   6.211
39124SOL    HW219270  12.252   3.856   6.083
39125SOL     OW19271   0.156   4.251   9.597
39125SOL    HW119272   0.147   4.344   9.578
39125SOL    HW219273   0.185   4.248   9.688
39126SOL     OW19274  12.862   1.827   7.077
39126SOL    HW119275  12.858   1.754   7.014
39126SOL    HW219276  12.859   1.906   7.022
39127SOL     OW19277   5.760   7.390  13.212
39127SOL    HW119278   5.793   7.479  13.228
39127SOL    HW219279   5.773   7.345  13.296
39128SOL     OW19280   3.398  14.071  13.396
39128SOL    HW119281   3.336  14.089  13.466
39128SOL    HW219282   3.356  14.003  13.343
39129SOL     OW19283   8.482   7.197   3.465
39129SOL    HW119284   8.487   7.273   3.406
39129SOL    HW219285   8.402   7.211   3.515
39130SOL     OW19286   6.784   6.579   4.656
39130SOL    HW119287   6.824   6.496   4.632
39130SOL    HW219288   6.690   6.561   4.659
39131SOL     OW19289   4.982   0.136  11.832
39131SOL    HW119290   5.007   0.081  11.906
39131SOL    HW219291   5.020   0.092  11.756
39132SOL     OW19292  11.049   3.474  10.489
39132SOL    HW119293  11.052   3.379  10.474
39132SOL    HW219294  10.957   3.492  10.509
39133SOL     OW19295  14.116   1.157  11.299
39133SOL    HW119296  14.122   1.196  11.386
39133SOL    HW219297  14.032   1.188  11.264
39134SOL     OW19298   7.910   4.199   7.139
39134SOL    HW119299   7.881   4.289   7.157
39134SOL    HW219300   7.947   4.169   7.222
39135SOL     OW19301  12.803   5.706  10.913
39135SOL    HW119302  12.761   5.624  10.887
39135SOL    HW219303  12.878   5.679  10.966
39136SOL     OW19304  12.565   4.451  12.151
39136SOL    HW119305  12.495   4.402  12.194
39136SOL    HW219306  12.527   4.479  12.068
39137SOL     OW19307  13.934   4.988  10.525
39137SOL    HW119308  13.980   4.944  10.596
39137SOL    HW219309  13.922   4.920  10.458
39138SOL     OW19310   2.521   1.952  12.494
39138SOL    HW119311   2.556   2.034  12.459
39138SOL    HW219312   2.430   1.972  12.515
39139SOL     OW19313  12.894   8.967   9.120
39139SOL    HW119314  12.921   8.949   9.210
39139SOL    HW219315  12.971   9.005   9.079
39140SOL     OW19316   4.446  12.355   5.497
39140SOL    HW119317   4.390  12.392   5.566
39140SOL    HW219318   4.405  12.384   5.415
39141SOL     OW19319   6.765   5.661   8.718
39141SOL    HW119320   6.692   5.721   8.738
39141SOL    HW219321   6.761   5.650   8.623
39142SOL     OW19322   2.687   4.147  11.919
39142SOL    HW119323   2.681   4.188  11.833
39142SOL    HW219324   2.700   4.054  11.901
39143SOL     OW19325   7.594   6.377   0.527
39143SOL    HW119326   7.526   6.315   0.552
39143SOL    HW219327   7.589   6.447   0.593
39144SOL     OW19328  10.385  13.206   3.982
39144SOL    HW119329  10.315  13.182   4.041
39144SOL    HW219330  10.462  13.216   4.038
39145SOL     OW19331   3.329   2.000  10.231
39145SOL    HW119332   3.371   1.977  10.314
39145SOL    HW219333   3.271   1.927  10.211
39146SOL     OW19334   7.541   4.618   0.648
39146SOL    HW119335   7.525   4.621   0.554
39146SOL    HW219336   7.593   4.697   0.665
39147SOL     OW19337   0.562  12.396  11.432
39147SOL    HW119338   0.533  12.328  11.494
39147SOL    HW219339   0.483  12.417  11.382
39148SOL     OW19340   3.693  11.566   6.774
39148SOL    HW119341   3.697  11.630   6.703
39148SOL    HW219342   3.644  11.610   6.844
39149SOL     OW19343  11.748  14.391  13.011
39149SOL    HW119344  11.718  14.481  13.023
39149SOL    HW219345  11.836  14.389  13.050
39150SOL     OW19346  12.645  12.019  11.323
39150SOL    HW119347  12.562  12.030  11.369
39150SOL    HW219348  12.700  12.090  11.355
39151SOL     OW19349   8.562  11.284  10.689
39151SOL    HW119350   8.613  11.330  10.623
39151SOL    HW219351   8.628  11.240  10.743
39152SOL     OW19352   9.991   8.105   0.429
39152SOL    HW119353   9.990   8.120   0.335
39152SOL    HW219354   9.907   8.140   0.460
39153SOL     OW19355   2.207  10.771  14.843
39153SOL    HW119356   2.139  10.836  14.826
39153SOL    HW219357   2.282  10.800  14.792
39154SOL     OW19358   0.535  10.776   3.564
39154SOL    HW119359   0.556  10.760   3.472
39154SOL    HW219360   0.443  10.802   3.563
39155SOL     OW19361   4.285   6.078  10.542
39155SOL    HW119362   4.355   6.127  10.498
39155SOL    HW219363   4.230   6.145  10.582
39156SOL     OW19364   0.457  10.402  12.410
39156SOL    HW119365   0.410  10.321  12.389
39156SOL    HW219366   0.404  10.443  12.478
39157SOL     OW19367   6.615   8.987   6.980
39157SOL    HW119368   6.575   8.974   7.066
39157SOL    HW219369   6.688   8.925   6.978
39158SOL     OW19370   2.244   0.536  10.572
39158SOL    HW119371   2.292   0.602  10.522
39158SOL    HW219372   2.182   0.498  10.509
39159SOL     OW19373  12.556   9.930   2.174
39159SOL    HW119374  12.632   9.903   2.225
39159SOL    HW219375  12.482   9.887   2.216
39160SOL     OW19376   5.321   1.913   3.167
39160SOL    HW119377   5.258   1.960   3.222
39160SOL    HW219378   5.358   1.847   3.225
39161SOL     OW19379  14.069   1.583  13.994
39161SOL    HW119380  14.120   1.663  14.008
39161SOL    HW219381  14.045   1.586  13.902
39162SOL     OW19382   4.923  10.197   3.892
39162SOL    HW119383   4.833  10.223   3.875
39162SOL    HW219384   4.961  10.271   3.938
39163SOL     OW19385   3.162   7.317   4.100
39163SOL    HW119386   3.167   7.250   4.169
39163SOL    HW219387   3.161   7.400   4.148
39164SOL     OW19388   7.532  10.232  13.962
39164SOL    HW119389   7.538  10.149  13.916
39164SOL    HW219390   7.619  10.271  13.952
39165SOL     OW19391   3.397   3.149   2.544
39165SOL    HW119392   3.349   3.139   2.462
39165SOL    HW219393   3.343   3.105   2.609
39166SOL     OW19394   0.741  12.014  11.391
39166SOL    HW119395   0.816  11.962  11.364
39166SOL    HW219396   0.758  12.101  11.356
39167SOL     OW19397   4.980  14.780   2.895
39167SOL    HW119398   4.890  14.789   2.864
39167SOL    HW219399   5.034  14.802   2.820
39168SOL     OW19400  10.546   1.731   7.115
39168SOL    HW119401  10.613   1.763   7.055
39168SOL    HW219402  10.496   1.667   7.065
39169SOL     OW19403   1.198  10.294  10.547
39169SOL    HW119404   1.255  10.339  10.485
39169SOL    HW219405   1.190  10.354  10.621
39170SOL     OW19406   1.121   6.761  13.816
39170SOL    HW119407   1.191   6.771  13.880
39170SOL    HW219408   1.160   6.712  13.744
39171SOL     OW19409   5.960  12.738  11.576
39171SOL    HW119410   5.955  12.769  11.666
39171SOL    HW219411   5.945  12.817  11.523
39172SOL     OW19412   4.393   0.416   1.524
39172SOL    HW119413   4.486   0.403   1.542
39172SOL    HW219414   4.383   0.394   1.432
39173SOL     OW19415   5.312   7.402   7.263
39173SOL    HW119416   5.395   7.444   7.285
39173SOL    HW219417   5.299   7.338   7.332
39174SOL     OW19418   4.830   2.574  11.893
39174SOL    HW119419   4.880   2.608  11.819
39174SOL    HW219420   4.796   2.652  11.936
39175SOL     OW19421   6.885  12.744   6.768
39175SOL    HW119422   6.935  12.701   6.699
39175SOL    HW219423   6.930  12.827   6.782
39176SOL     OW19424  13.387  12.780  11.450
39176SOL    HW119425  13.471  12.773  11.405
39176SOL    HW219426  13.339  12.700  11.425
39177SOL     OW19427   0.681  11.015   7.407
39177SOL    HW119428   0.741  10.946   7.434
39177SOL    HW219429   0.634  10.978   7.332
39178SOL     OW19430   9.677   6.553   1.099
39178SOL    HW119431   9.681   6.627   1.160
39178SOL    HW219432   9.767   6.539   1.072
39179SOL     OW19433   1.500   5.350   0.079
39179SOL    HW119434   1.482   5.335   0.172
39179SOL    HW219435   1.416   5.376   0.042
39180SOL     OW19436  11.628  12.403   7.402
39180SOL    HW119437  11.703  12.343   7.405
39180SOL    HW219438  11.552  12.347   7.412
39181SOL     OW19439   3.999  14.199   1.257
39181SOL    HW119440   4.024  14.224   1.168
39181SOL    HW219441   4.076  14.157   1.293
39182SOL     OW19442   6.097   6.858   9.135
39182SOL    HW119443   6.171   6.798   9.120
39182SOL    HW219444   6.022   6.800   9.148
39183SOL     OW19445   9.829   3.724  14.320
39183SOL    HW119446   9.862   3.768  14.399
39183SOL    HW219447   9.885   3.647  14.311
39184SOL     OW19448  13.754  14.703  10.506
39184SOL    HW119449  13.840  14.665  10.488
39184SOL    HW219450  13.771  14.766  10.577
39185SOL     OW19451   8.353   5.204   9.719
39185SOL    HW119452   8.288   5.204   9.790
39185SOL    HW219453   8.347   5.292   9.682
39186SOL     OW19454   2.665   8.507  12.438
39186SOL    HW119455   2.693   8.416  12.440
39186SOL    HW219456   2.679   8.535  12.347
39187SOL     OW19457   6.340   2.005  14.036
39187SOL    HW119458   6.296   2.008  13.951
39187SOL    HW219459   6.383   2.090  14.045
39188SOL     OW19460  11.019  13.021  14.392
39188SOL    HW119461  11.102  12.974  14.403
39188SOL    HW219462  11.035  13.107  14.430
39189SOL     OW19463   1.524  10.685  13.324
39189SOL    HW119464   1.507  10.606  13.376
39189SOL    HW219465   1.444  10.738  13.334
39190SOL     OW19466   0.337  10.685   1.612
39190SOL    HW119467   0.392  10.717   1.683
39190SOL    HW219468   0.300  10.603   1.645
39191SOL     OW19469   3.210  12.528  13.519
39191SOL    HW119470   3.301  12.501  13.506
39191SOL    HW219471   3.197  12.525  13.614
39192SOL     OW19472   7.595   0.503   6.095
39192SOL    HW119473   7.613   0.594   6.116
39192SOL    HW219474   7.661   0.480   6.030
39193SOL     OW19475  12.988   0.435   1.500
39193SOL    HW119476  12.939   0.489   1.562
39193SOL    HW219477  13.006   0.494   1.426
39194SOL     OW19478  12.028   8.281  14.865
39194SOL    HW119479  12.121   8.292   0.008
39194SOL    HW219480  12.019   8.187  14.850
39195SOL     OW19481   2.922   6.655  10.842
39195SOL    HW119482   2.971   6.687  10.766
39195SOL    HW219483   2.848   6.608  10.805
39196SOL     OW19484   9.221  12.203   0.749
39196SOL    HW119485   9.280  12.277   0.760
39196SOL    HW219486   9.168  12.202   0.828
39197SOL     OW19487  14.445  14.075  14.685
39197SOL    HW119488  14.356  14.086  14.716
39197SOL    HW219489  14.467  13.984  14.704
39198SOL     OW19490   8.475   8.152   2.342
39198SOL    HW119491   8.554   8.204   2.329
39198SOL    HW219492   8.404   8.216   2.342
39199SOL     OW19493   2.587   6.423   2.838
39199SOL    HW119494   2.570   6.414   2.744
39199SOL    HW219495   2.677   6.391   2.850
39200SOL     OW19496  13.371   3.890   5.570
39200SOL    HW119497  13.302   3.831   5.598
39200SOL    HW219498  13.447   3.834   5.557
39201SOL     OW19499   6.947   5.909   5.684
39201SOL    HW119500   6.861   5.876   5.710
39201SOL    HW219501   6.929   5.969   5.612
39202SOL     OW19502  13.026   8.714  12.300
39202SOL    HW119503  13.049   8.774  12.229
39202SOL    HW219504  12.980   8.769  12.364
39203SOL     OW19505   8.472   7.259   6.733
39203SOL    HW119506   8.477   7.231   6.641
39203SOL    HW219507   8.562   7.250   6.765
39204SOL     OW19508  12.369  13.821   4.149
39204SOL    HW119509  12.298  13.843   4.208
39204SOL    HW219510  12.361  13.883   4.077
39205SOL     OW19511   2.689  13.473   6.438
39205SOL    HW119512   2.624  13.405   6.426
39205SOL    HW219513   2.638  13.552   6.458
39206SOL     OW19514   4.655  10.138  14.145
39206SOL    HW119515   4.711  10.215  14.137
39206SOL    HW219516   4.715  10.066  14.167
39207SOL     OW19517   2.641   6.950   2.551
39207SOL    HW119518   2.650   6.857   2.571
39207SOL    HW219519   2.563   6.978   2.599
39208SOL     OW19520  12.390  13.956  12.348
39208SOL    HW119521  12.481  13.947  12.320
39208SOL    HW219522  12.395  13.973  12.443
39209SOL     OW19523   8.449   6.525   4.835
39209SOL    HW119524   8.380   6.540   4.771
39209SOL    HW219525   8.491   6.611   4.845
39210SOL     OW19526  13.436   0.602  12.236
39210SOL    HW119527  13.343   0.602  12.259
39210SOL    HW219528  13.449   0.684  12.188
39211SOL     OW19529   8.773   4.804   1.497
39211SOL    HW119530   8.729   4.719   1.491
39211SOL    HW219531   8.773   4.837   1.407
39212SOL     OW19532  10.061  10.797   2.250
39212SOL    HW119533  10.111  10.733   2.299
39212SOL    HW219534  10.014  10.746   2.184
39213SOL     OW19535   8.908   4.441  12.107
39213SOL    HW119536   8.924   4.386  12.030
39213SOL    HW219537   8.960   4.400  12.177
39214SOL     OW19538   0.217   6.981  13.554
39214SOL    HW119539   0.228   7.070  13.521
39214SOL    HW219540   0.138   6.985  13.608
39215SOL     OW19541   7.224   2.125  10.489
39215SOL    HW119542   7.291   2.140  10.555
39215SOL    HW219543   7.208   2.030  10.493
39216SOL     OW19544   9.192  14.826   0.421
39216SOL    HW119545   9.127  14.757   0.404
39216SOL    HW219546   9.252  14.821   0.346
39217SOL     OW19547   5.513   3.956   4.409
39217SOL    HW119548   5.474   4.011   4.342
39217SOL    HW219549   5.439   3.921   4.458
39218SOL     OW19550   7.116   2.693   2.168
39218SOL    HW119551   7.085   2.656   2.085
39218SOL    HW219552   7.128   2.786   2.149
39219SOL     OW19553  13.552   7.404   5.775
39219SOL    HW119554  13.546   7.393   5.870
39219SOL    HW219555  13.593   7.324   5.744
39220SOL     OW19556   6.547  11.491   9.820
39220SOL    HW119557   6.486  11.533   9.881
39220SOL    HW219558   6.531  11.398   9.829
39221SOL     OW19559   5.726   2.708   6.764
39221SOL    HW119560   5.792   2.643   6.738
39221SOL    HW219561   5.737   2.779   6.701
39222SOL     OW19562   0.392   8.442   8.547
39222SOL    HW119563   0.370   8.509   8.483
39222SOL    HW219564   0.487   8.451   8.560
39223SOL     OW19565  11.800   8.660   8.679
39223SOL    HW119566  11.864   8.683   8.747
39223SOL    HW219567  11.844   8.594   8.626
39224SOL     OW19568   6.659   8.457   3.386
39224SOL    HW119569   6.676   8.500   3.302
39224SOL    HW219570   6.745   8.437   3.421
39225SOL     OW19571   9.732   9.272   2.364
39225SOL    HW119572   9.676   9.322   2.305
39225SOL    HW219573   9.682   9.265   2.445
39226SOL     OW19574   1.775   0.469   8.325
39226SOL    HW119575   1.866   0.447   8.347
39226SOL    HW219576   1.751   0.535   8.390
39227SOL     OW19577  11.700   7.350   1.672
39227SOL    HW119578  11.635   7.329   1.739
39227SOL    HW219579  11.775   7.382   1.721
39228SOL     OW19580  13.694   1.181  10.857
39228SOL    HW119581  13.665   1.263  10.897
39228SOL    HW219582  13.613   1.132  10.841
39229SOL     OW19583  12.979  14.369  12.304
39229SOL    HW119584  13.010  14.294  12.254
39229SOL    HW219585  13.053  14.393  12.359
39230SOL     OW19586   7.367   2.111   5.408
39230SOL    HW119587   7.318   2.174   5.462
39230SOL    HW219588   7.446   2.159   5.382
39231SOL     OW19589   2.563   0.807   1.185
39231SOL    HW119590   2.535   0.841   1.270
39231SOL    HW219591   2.658   0.818   1.185
39232SOL     OW19592   3.722   4.062  11.177
39232SOL    HW119593   3.705   3.968  11.178
39232SOL    HW219594   3.778   4.076  11.100
39233SOL     OW19595   8.608   3.842  12.129
39233SOL    HW119596   8.564   3.760  12.106
39233SOL    HW219597   8.541   3.909  12.118
39234SOL     OW19598  12.330  12.310   5.705
39234SOL    HW119599  12.357  12.322   5.796
39234SOL    HW219600  12.382  12.236   5.673
39235SOL     OW19601  14.478   5.721  13.702
39235SOL    HW119602  14.544   5.776  13.745
39235SOL    HW219603  14.521   5.637  13.689
39236SOL     OW19604  14.769   2.529   7.882
39236SOL    HW119605  14.837   2.594   7.866
39236SOL    HW219606  14.737   2.506   7.795
39237SOL     OW19607   0.782   1.532  14.216
39237SOL    HW119608   0.688   1.516  14.217
39237SOL    HW219609   0.819   1.466  14.274
39238SOL     OW19610  11.890   5.530   7.543
39238SOL    HW119611  11.815   5.588   7.526
39238SOL    HW219612  11.960   5.590   7.570
39239SOL     OW19613   3.845   0.980  14.643
39239SOL    HW119614   3.858   0.914  14.711
39239SOL    HW219615   3.774   1.035  14.677
39240SOL     OW19616  14.049   3.714   4.737
39240SOL    HW119617  14.000   3.661   4.800
39240SOL    HW219618  14.021   3.683   4.651
39241SOL     OW19619   2.921   3.406  10.246
39241SOL    HW119620   2.837   3.445  10.273
39241SOL    HW219621   2.898   3.318  10.218
39242SOL     OW19622   0.710   5.995  13.896
39242SOL    HW119623   0.687   6.042  13.816
39242SOL    HW219624   0.767   6.055  13.944
39243SOL     OW19625   5.223   1.230   7.319
39243SOL    HW119626   5.266   1.176   7.252
39243SOL    HW219627   5.190   1.167   7.383
39244SOL     OW19628   0.496  12.871  10.971
39244SOL    HW119629   0.501  12.837  10.882
39244SOL    HW219630   0.533  12.802  11.026
39245SOL     OW19631   1.744   1.526  13.484
39245SOL    HW119632   1.793   1.446  13.462
39245SOL    HW219633   1.772   1.548  13.572
39246SOL     OW19634  12.610  14.466   1.030
39246SOL    HW119635  12.623  14.458   1.125
39246SOL    HW219636  12.647  14.385   0.994
39247SOL     OW19637   5.738  11.680   3.022
39247SOL    HW119638   5.782  11.715   3.100
39247SOL    HW219639   5.781  11.722   2.948
39248SOL     OW19640  10.673   0.494  13.942
39248SOL    HW119641  10.625   0.519  14.021
39248SOL    HW219642  10.761   0.473  13.974
39249SOL     OW19643   1.390   9.121   7.377
39249SOL    HW119644   1.322   9.159   7.322
39249SOL    HW219645   1.466   9.114   7.320
39250SOL     OW19646   1.628  14.400   9.101
39250SOL    HW119647   1.693  14.371   9.037
39250SOL    HW219648   1.560  14.442   9.049
39251SOL     OW19649  12.508   4.755  14.002
39251SOL    HW119650  12.569   4.829  13.999
39251SOL    HW219651  12.449   4.776  14.075
39252SOL     OW19652  14.573   0.861   4.482
39252SOL    HW119653  14.630   0.886   4.410
39252SOL    HW219654  14.630   0.862   4.559
39253SOL     OW19655   0.977   0.197  14.496
39253SOL    HW119656   0.997   0.224  14.586
39253SOL    HW219657   0.901   0.140  14.504
39254SOL     OW19658   1.049   1.645   7.252
39254SOL    HW119659   1.088   1.730   7.235
39254SOL    HW219660   1.112   1.600   7.309
39255SOL     OW19661   0.469   3.454   6.980
39255SOL    HW119662   0.560   3.445   7.008
39255SOL    HW219663   0.417   3.423   7.054
39256SOL     OW19664  12.041   0.215   4.607
39256SOL    HW119665  12.040   0.176   4.520
39256SOL    HW219666  11.967   0.175   4.652
39257SOL     OW19667   7.018  13.066  14.814
39257SOL    HW119668   6.955  13.137  14.825
39257SOL    HW219669   7.044  13.042   0.025
39258SOL     OW19670   8.521  12.795   4.938
39258SOL    HW119671   8.538  12.820   4.847
39258SOL    HW219672   8.579  12.852   4.989
39259SOL     OW19673  13.428  13.693   6.691
39259SOL    HW119674  13.475  13.613   6.665
39259SOL    HW219675  13.487  13.764   6.664
39260SOL     OW19676   7.056   1.557   5.400
39260SOL    HW119677   7.036   1.601   5.317
39260SOL    HW219678   7.152   1.563   5.408
39261SOL     OW19679  12.458  11.173   6.989
39261SOL    HW119680  12.488  11.230   7.060
39261SOL    HW219681  12.497  11.088   7.009
39262SOL     OW19682   4.604  11.388   0.650
39262SOL    HW119683   4.609  11.304   0.606
39262SOL    HW219684   4.559  11.445   0.588
39263SOL     OW19685   1.832   1.658  12.806
39263SOL    HW119686   1.833   1.754  12.814
39263SOL    HW219687   1.837   1.627  12.896
39264SOL     OW19688  12.995   9.040   4.374
39264SOL    HW119689  13.024   9.055   4.464
39264SOL    HW219690  13.061   9.082   4.320
39265SOL     OW19691  14.595  13.300  13.195
39265SOL    HW119692  14.684  13.285  13.228
39265SOL    HW219693  14.540  13.238  13.242
39266SOL     OW19694  13.629   6.395   9.729
39266SOL    HW119695  13.560   6.329   9.728
39266SOL    HW219696  13.583   6.478   9.718
39267SOL     OW19697   8.300   6.155   5.710
39267SOL    HW119698   8.328   6.063   5.707
39267SOL    HW219699   8.234   6.162   5.642
39268SOL     OW19700   3.309   4.463   8.907
39268SOL    HW119701   3.384   4.472   8.848
39268SOL    HW219702   3.277   4.374   8.893
39269SOL     OW19703   3.990  10.097   6.632
39269SOL    HW119704   3.936  10.029   6.592
39269SOL    HW219705   4.076  10.085   6.592
39270SOL     OW19706  10.549   6.514   3.192
39270SOL    HW119707  10.548   6.437   3.135
39270SOL    HW219708  10.637   6.515   3.229
39271SOL     OW19709   6.043   5.515   7.700
39271SOL    HW119710   6.048   5.545   7.609
39271SOL    HW219711   6.134   5.498   7.724
39272SOL     OW19712   1.063   4.640   4.511
39272SOL    HW119713   1.039   4.555   4.548
39272SOL    HW219714   0.985   4.694   4.525
39273SOL     OW19715   1.427   5.936   2.466
39273SOL    HW119716   1.492   5.867   2.452
39273SOL    HW219717   1.424   5.947   2.561
39274SOL     OW19718   5.259   1.919   5.151
39274SOL    HW119719   5.295   1.839   5.188
39274SOL    HW219720   5.306   1.931   5.069
39275SOL     OW19721   2.039  10.467  11.582
39275SOL    HW119722   1.952  10.471  11.543
39275SOL    HW219723   2.088  10.538  11.541
39276SOL     OW19724  12.367   3.337   7.860
39276SOL    HW119725  12.370   3.378   7.774
39276SOL    HW219726  12.282   3.362   7.896
39277SOL     OW19727  10.602   7.075   3.582
39277SOL    HW119728  10.539   7.109   3.645
39277SOL    HW219729  10.550   7.017   3.525
39278SOL     OW19730   8.937   1.359  11.254
39278SOL    HW119731   8.845   1.335  11.271
39278SOL    HW219732   8.985   1.276  11.264
39279SOL     OW19733   7.542   5.036   5.565
39279SOL    HW119734   7.611   5.015   5.628
39279SOL    HW219735   7.474   4.971   5.581
39280SOL     OW19736  10.140   7.866   8.953
39280SOL    HW119737  10.205   7.833   8.891
39280SOL    HW219738  10.058   7.867   8.904
39281SOL     OW19739  12.253  14.119  10.636
39281SOL    HW119740  12.294  14.117  10.723
39281SOL    HW219741  12.322  14.090  10.577
39282SOL     OW19742   4.402   4.918   9.334
39282SOL    HW119743   4.461   4.849   9.366
39282SOL    HW219744   4.422   4.924   9.240
39283SOL     OW19745  13.479   9.810   3.082
39283SOL    HW119746  13.471   9.864   3.003
39283SOL    HW219747  13.565   9.768   3.074
39284SOL     OW19748   2.340  10.489   8.092
39284SOL    HW119749   2.385  10.548   8.153
39284SOL    HW219750   2.398  10.484   8.016
39285SOL     OW19751  13.558   5.831   5.220
39285SOL    HW119752  13.583   5.912   5.265
39285SOL    HW219753  13.524   5.775   5.289
39286SOL     OW19754   9.694  14.615  11.714
39286SOL    HW119755   9.652  14.640  11.796
39286SOL    HW219756   9.724  14.525  11.728
39287SOL     OW19757   7.688   2.330  13.476
39287SOL    HW119758   7.683   2.313  13.382
39287SOL    HW219759   7.605   2.299  13.510
39288SOL     OW19760   6.612   1.698   6.290
39288SOL    HW119761   6.573   1.612   6.281
39288SOL    HW219762   6.707   1.682   6.286
39289SOL     OW19763   7.079  10.106   9.529
39289SOL    HW119764   7.016  10.110   9.601
39289SOL    HW219765   7.054  10.027   9.480
39290SOL     OW19766  12.062  14.851   5.673
39290SOL    HW119767  12.080  14.765   5.713
39290SOL    HW219768  12.018   0.023   5.742
39291SOL     OW19769   6.484   7.780   9.027
39291SOL    HW119770   6.459   7.852   9.085
39291SOL    HW219771   6.448   7.804   8.942
39292SOL     OW19772   4.597  10.464   0.331
39292SOL    HW119773   4.651  10.464   0.252
39292SOL    HW219774   4.633  10.392   0.384
39293SOL     OW19775   6.947   4.230   9.546
39293SOL    HW119776   6.877   4.229   9.481
39293SOL    HW219777   6.924   4.303   9.604
39294SOL     OW19778   3.294   4.313   7.383
39294SOL    HW119779   3.352   4.340   7.312
39294SOL    HW219780   3.349   4.315   7.461
39295SOL     OW19781   1.041   8.820   5.009
39295SOL    HW119782   1.118   8.773   4.977
39295SOL    HW219783   1.019   8.880   4.938
39296SOL     OW19784  13.023  14.249   0.692
39296SOL    HW119785  12.946  14.193   0.688
39296SOL    HW219786  13.095  14.190   0.716
39297SOL     OW19787   0.067  13.448   6.162
39297SOL    HW119788   0.083  13.454   6.256
39297SOL    HW219789   0.073  13.354   6.143
39298SOL     OW19790   7.157   1.537  11.086
39298SOL    HW119791   7.078   1.579  11.120
39298SOL    HW219792   7.150   1.446  11.116
39299SOL     OW19793   3.594   4.632   0.773
39299SOL    HW119794   3.688   4.618   0.775
39299SOL    HW219795   3.564   4.587   0.694
39300SOL     OW19796   7.581   3.428   7.675
39300SOL    HW119797   7.667   3.460   7.700
39300SOL    HW219798   7.538   3.408   7.759
39301SOL     OW19799   4.607   9.420   5.733
39301SOL    HW119800   4.534   9.480   5.747
39301SOL    HW219801   4.576   9.336   5.765
39302SOL     OW19802   7.201  10.864  14.096
39302SOL    HW119803   7.256  10.839  14.170
39302SOL    HW219804   7.168  10.781  14.061
39303SOL     OW19805   2.203   3.233  13.734
39303SOL    HW119806   2.124   3.271  13.694
39303SOL    HW219807   2.275   3.283  13.695
39304SOL     OW19808   3.897  12.876   5.310
39304SOL    HW119809   3.984  12.849   5.279
39304SOL    HW219810   3.909  12.968   5.335
39305SOL     OW19811   6.833   5.020  13.643
39305SOL    HW119812   6.742   5.004  13.665
39305SOL    HW219813   6.831   5.045  13.550
39306SOL     OW19814   1.699   3.018   7.549
39306SOL    HW119815   1.700   3.017   7.454
39306SOL    HW219816   1.695   2.926   7.575
39307SOL     OW19817  13.123   1.468   5.486
39307SOL    HW119818  13.191   1.429   5.540
39307SOL    HW219819  13.042   1.452   5.535
39308SOL     OW19820  13.272   0.442   0.326
39308SOL    HW119821  13.316   0.527   0.334
39308SOL    HW219822  13.197   0.447   0.385
39309SOL     OW19823  10.341   1.319   1.904
39309SOL    HW119824  10.304   1.326   1.992
39309SOL    HW219825  10.291   1.249   1.862
39310SOL     OW19826   5.400   2.711   2.443
39310SOL    HW119827   5.370   2.773   2.377
39310SOL    HW219828   5.448   2.765   2.506
39311SOL     OW19829   6.827   3.538   6.845
39311SOL    HW119830   6.790   3.478   6.781
39311SOL    HW219831   6.766   3.612   6.846
39312SOL     OW19832   8.706   8.816   3.025
39312SOL    HW119833   8.648   8.890   3.039
39312SOL    HW219834   8.792   8.855   3.011
39313SOL     OW19835  11.869   2.791  14.466
39313SOL    HW119836  11.838   2.792  14.375
39313SOL    HW219837  11.822   2.719  14.507
39314SOL     OW19838   8.333   4.642   0.431
39314SOL    HW119839   8.428   4.631   0.442
39314SOL    HW219840   8.319   4.626   0.337
39315SOL     OW19841  13.508  13.721  14.283
39315SOL    HW119842  13.492  13.700  14.375
39315SOL    HW219843  13.424  13.705  14.240
39316SOL     OW19844  10.765   9.184   0.683
39316SOL    HW119845  10.775   9.276   0.658
39316SOL    HW219846  10.686   9.182   0.736
39317SOL     OW19847   1.827   0.973   3.101
39317SOL    HW119848   1.785   0.938   3.180
39317SOL    HW219849   1.781   1.055   3.084
39318SOL     OW19850  12.917   3.917  11.790
39318SOL    HW119851  12.898   3.824  11.806
39318SOL    HW219852  12.869   3.963  11.859
39319SOL     OW19853  12.699  13.168   8.453
39319SOL    HW119854  12.685  13.159   8.548
39319SOL    HW219855  12.617  13.205   8.421
39320SOL     OW19856   4.844  10.429   6.854
39320SOL    HW119857   4.762  10.403   6.813
39320SOL    HW219858   4.845  10.525   6.846
39321SOL     OW19859   2.403  12.667   7.990
39321SOL    HW119860   2.478  12.647   8.045
39321SOL    HW219861   2.366  12.747   8.027
39322SOL     OW19862   2.677  12.143   2.087
39322SOL    HW119863   2.635  12.095   2.158
39322SOL    HW219864   2.609  12.151   2.020
39323SOL     OW19865   0.211   9.908   5.032
39323SOL    HW119866   0.300   9.943   5.022
39323SOL    HW219867   0.154   9.980   5.006
39324SOL     OW19868  11.611   6.948  11.400
39324SOL    HW119869  11.669   6.877  11.372
39324SOL    HW219870  11.526   6.927  11.360
39325SOL     OW19871   1.957  10.936   1.354
39325SOL    HW119872   1.992  10.909   1.269
39325SOL    HW219873   1.922  11.024   1.338
39326SOL     OW19874   9.835   0.238   5.866
39326SOL    HW119875   9.821   0.333   5.877
39326SOL    HW219876   9.930   0.227   5.868
39327SOL     OW19877   4.549   1.426  13.346
39327SOL    HW119878   4.514   1.382  13.269
39327SOL    HW219879   4.474   1.434  13.406
39328SOL     OW19880   4.636   5.144   0.596
39328SOL    HW119881   4.546   5.167   0.615
39328SOL    HW219882   4.688   5.211   0.640
39329SOL     OW19883   1.453   2.281   0.370
39329SOL    HW119884   1.381   2.339   0.344
39329SOL    HW219885   1.519   2.294   0.303
39330SOL     OW19886   5.441  10.965   6.815
39330SOL    HW119887   5.485  10.934   6.894
39330SOL    HW219888   5.511  10.980   6.752
39331SOL     OW19889  14.030  10.159  11.158
39331SOL    HW119890  14.102  10.212  11.124
39331SOL    HW219891  13.959  10.221  11.172
39332SOL     OW19892   4.225   5.839   5.564
39332SOL    HW119893   4.271   5.760   5.592
39332SOL    HW219894   4.141   5.808   5.532
39333SOL     OW19895  10.914   2.672   9.783
39333SOL    HW119896  10.989   2.720   9.819
39333SOL    HW219897  10.877   2.732   9.719
39334SOL     OW19898   7.486   8.210   5.158
39334SOL    HW119899   7.477   8.216   5.253
39334SOL    HW219900   7.526   8.293   5.133
39335SOL     OW19901   9.878   5.572  11.646
39335SOL    HW119902   9.895   5.602  11.557
39335SOL    HW219903   9.884   5.476  11.640
39336SOL     OW19904  12.635  10.092   1.185
39336SOL    HW119905  12.711  10.133   1.144
39336SOL    HW219906  12.570  10.162   1.188
39337SOL     OW19907   7.496  10.744   0.437
39337SOL    HW119908   7.444  10.680   0.388
39337SOL    HW219909   7.469  10.829   0.402
39338SOL     OW19910   9.641   6.237   9.386
39338SOL    HW119911   9.551   6.256   9.414
39338SOL    HW219912   9.650   6.142   9.397
39339SOL     OW19913  12.261   8.192   1.431
39339SOL    HW119914  12.309   8.220   1.509
39339SOL    HW219915  12.196   8.261   1.417
39340SOL     OW19916  10.088  10.812   2.564
39340SOL    HW119917  10.134  10.882   2.517
39340SOL    HW219918  10.151  10.740   2.568
39341SOL     OW19919   5.076  13.306   8.922
39341SOL    HW119920   5.130  13.255   8.862
39341SOL    HW219921   5.079  13.395   8.888
39342SOL     OW19922   5.102   9.929  10.527
39342SOL    HW119923   5.098   9.938  10.622
39342SOL    HW219924   5.121  10.017  10.495
39343SOL     OW19925  10.331   8.734   4.007
39343SOL    HW119926  10.241   8.701   4.009
39343SOL    HW219927  10.340   8.772   3.920
39344SOL     OW19928   0.876  12.178   5.036
39344SOL    HW119929   0.883  12.128   5.117
39344SOL    HW219930   0.952  12.152   4.985
39345SOL     OW19931   2.362  12.752  12.906
39345SOL    HW119932   2.455  12.771  12.921
39345SOL    HW219933   2.361  12.673  12.852
39346SOL     OW19934   9.176   3.854   1.699
39346SOL    HW119935   9.159   3.945   1.723
39346SOL    HW219936   9.187   3.855   1.604
39347SOL     OW19937   3.191  13.603   9.326
39347SOL    HW119938   3.232  13.605   9.239
39347SOL    HW219939   3.264  13.594   9.387
39348SOL     OW19940  11.387   8.702   4.277
39348SOL    HW119941  11.456   8.711   4.342
39348SOL    HW219942  11.353   8.613   4.291
39349SOL     OW19943   6.321   2.993  12.921
39349SOL    HW119944   6.410   3.021  12.943
39349SOL    HW219945   6.301   2.926  12.986
39350SOL     OW19946  10.830   3.929   7.677
39350SOL    HW119947  10.747   3.888   7.700
39350SOL    HW219948  10.886   3.913   7.753
39351SOL     OW19949   0.887  10.427  13.721
39351SOL    HW119950   0.975  10.394  13.741
39351SOL    HW219951   0.879  10.420  13.626
39352SOL     OW19952   3.040   3.576  10.025
39352SOL    HW119953   2.995   3.529  10.094
39352SOL    HW219954   2.973   3.591   9.958
39353SOL     OW19955  14.790   9.955   9.708
39353SOL    HW119956  14.818  10.002   9.786
39353SOL    HW219957  14.818  10.011   9.635
39354SOL     OW19958   0.830  13.563   0.617
39354SOL    HW119959   0.771  13.541   0.690
39354SOL    HW219960   0.900  13.615   0.658
39355SOL     OW19961   0.544   2.490   8.581
39355SOL    HW119962   0.599   2.423   8.540
39355SOL    HW219963   0.528   2.554   8.511
39356SOL     OW19964   6.031   0.031  13.924
39356SOL    HW119965   6.051   0.120  13.894
39356SOL    HW219966   6.039   0.035  14.019
39357SOL     OW19967   1.516   5.845   9.089
39357SOL    HW119968   1.454   5.806   9.027
39357SOL    HW219969   1.602   5.833   9.047
39358SOL     OW19970   4.801  12.359   1.704
39358SOL    HW119971   4.749  12.413   1.644
39358SOL    HW219972   4.859  12.308   1.648
39359SOL     OW19973   9.398  14.028  11.944
39359SOL    HW119974   9.488  13.996  11.951
39359SOL    HW219975   9.397  14.110  11.992
39360SOL     OW19976   4.585   1.816   9.310
39360SOL    HW119977   4.605   1.783   9.398
39360SOL    HW219978   4.592   1.740   9.253
39361SOL     OW19979  14.688   3.374  13.915
39361SOL    HW119980  14.697   3.310  13.985
39361SOL    HW219981  14.685   3.459  13.959
39362SOL     OW19982  13.306   1.604  10.700
39362SOL    HW119983  13.288   1.689  10.740
39362SOL    HW219984  13.398   1.587  10.719
39363SOL     OW19985   0.818   0.444   3.227
39363SOL    HW119986   0.809   0.532   3.191
39363SOL    HW219987   0.910   0.421   3.211
39364SOL     OW19988  10.640   2.992   6.552
39364SOL    HW119989  10.622   3.055   6.622
39364SOL    HW219990  10.557   2.945   6.541
39365SOL     OW19991   3.436   2.051   7.837
39365SOL    HW119992   3.463   2.012   7.754
39365SOL    HW219993   3.433   2.145   7.819
39366SOL     OW19994   1.001   2.538   2.559
39366SOL    HW119995   1.053   2.463   2.530
39366SOL    HW219996   1.022   2.548   2.652
39367SOL     OW19997   0.738  12.221   4.060
39367SOL    HW119998   0.832  12.232   4.077
39367SOL    HW219999   0.701  12.306   4.083
39368SOL     OW20000   9.668  12.274   5.015
39368SOL    HW120001   9.697  12.198   4.964
39368SOL    HW220002   9.745  12.330   5.022
39369SOL     OW20003   0.941   9.386   6.903
39369SOL    HW120004   0.881   9.429   6.964
39369SOL    HW220005   1.008   9.451   6.885
39370SOL     OW20006  10.145   9.779   3.701
39370SOL    HW120007  10.225   9.756   3.653
39370SOL    HW220008  10.131   9.871   3.679
39371SOL     OW20009   4.774  14.137   0.946
39371SOL    HW120010   4.712  14.072   0.978
39371SOL    HW220011   4.752  14.148   0.854
39372SOL     OW20012   3.927   8.841   8.240
39372SOL    HW120013   3.968   8.760   8.271
39372SOL    HW220014   3.840   8.815   8.211
39373SOL     OW20015   8.391   1.943   1.519
39373SOL    HW120016   8.396   1.996   1.598
39373SOL    HW220017   8.306   1.966   1.481
39374SOL     OW20018   3.603  13.475   6.451
39374SOL    HW120019   3.553  13.397   6.426
39374SOL    HW220020   3.541  13.526   6.504
39375SOL     OW20021   5.177   4.911   6.429
39375SOL    HW120022   5.225   4.980   6.383
39375SOL    HW220023   5.149   4.952   6.511
39376SOL     OW20024   7.901  12.510  14.770
39376SOL    HW120025   7.902  12.562  14.850
39376SOL    HW220026   7.959  12.556  14.710
39377SOL     OW20027   2.481   3.253   1.761
39377SOL    HW120028   2.391   3.275   1.737
39377SOL    HW220029   2.535   3.295   1.694
39378SOL     OW20030   1.933   1.063  13.783
39378SOL    HW120031   1.979   1.075  13.700
39378SOL    HW220032   2.003   1.052  13.848
39379SOL     OW20033   4.912   3.948   0.817
39379SOL    HW120034   4.953   4.034   0.825
39379SOL    HW220035   4.910   3.914   0.907
39380SOL     OW20036   8.097   5.140  12.485
39380SOL    HW120037   8.095   5.233  12.462
39380SOL    HW220038   8.084   5.139  12.580
39381SOL     OW20039  13.113  10.799   9.100
39381SOL    HW120040  13.025  10.816   9.069
39381SOL    HW220041  13.104  10.791   9.195
39382SOL     OW20042   6.531   3.002   6.661
39382SOL    HW120043   6.533   3.062   6.586
39382SOL    HW220044   6.438   2.995   6.683
39383SOL     OW20045   5.424   6.816   5.260
39383SOL    HW120046   5.329   6.812   5.244
39383SOL    HW220047   5.458   6.864   5.184
39384SOL     OW20048  12.275   3.067  10.278
39384SOL    HW120049  12.316   3.068  10.365
39384SOL    HW220050  12.250   3.158  10.262
39385SOL     OW20051   6.930  12.101  10.157
39385SOL    HW120052   6.983  12.088  10.078
39385SOL    HW220053   6.958  12.031  10.216
39386SOL     OW20054   3.141   2.528   3.974
39386SOL    HW120055   3.194   2.602   4.003
39386SOL    HW220056   3.149   2.463   4.044
39387SOL     OW20057   5.474  11.089   4.173
39387SOL    HW120058   5.535  11.158   4.146
39387SOL    HW220059   5.497  11.072   4.264
39388SOL     OW20060   2.200  12.695   6.253
39388SOL    HW120061   2.148  12.632   6.203
39388SOL    HW220062   2.289  12.683   6.222
39389SOL     OW20063   7.233  12.818   8.099
39389SOL    HW120064   7.199  12.743   8.149
39389SOL    HW220065   7.229  12.788   8.008
39390SOL     OW20066  10.657   3.280  14.028
39390SOL    HW120067  10.674   3.210  13.965
39390SOL    HW220068  10.727   3.273  14.092
39391SOL     OW20069   3.217   9.067  11.857
39391SOL    HW120070   3.220   9.160  11.835
39391SOL    HW220071   3.296   9.031  11.818
39392SOL     OW20072   6.040   3.959  13.033
39392SOL    HW120073   6.073   4.048  13.043
39392SOL    HW220074   5.955   3.970  12.990
39393SOL     OW20075   6.173   9.819   6.515
39393SOL    HW120076   6.121   9.865   6.581
39393SOL    HW220077   6.167   9.727   6.539
39394SOL     OW20078   0.124   1.037   5.616
39394SOL    HW120079   0.096   0.948   5.638
39394SOL    HW220080   0.158   1.030   5.527
39395SOL     OW20081   9.611   1.133   5.847
39395SOL    HW120082   9.606   1.039   5.829
39395SOL    HW220083   9.678   1.165   5.786
39396SOL     OW20084   7.627   2.314   9.627
39396SOL    HW120085   7.637   2.370   9.705
39396SOL    HW220086   7.576   2.368   9.566
39397SOL     OW20087   8.596  13.467   1.670
39397SOL    HW120088   8.554  13.553   1.659
39397SOL    HW220089   8.663  13.482   1.737
39398SOL     OW20090   2.678   5.803   5.407
39398SOL    HW120091   2.759   5.797   5.356
39398SOL    HW220092   2.687   5.885   5.456
39399SOL     OW20093  14.036   7.269  10.740
39399SOL    HW120094  13.974   7.203  10.709
39399SOL    HW220095  14.082   7.299  10.661
39400SOL     OW20096   7.311   7.707   1.933
39400SOL    HW120097   7.217   7.685   1.935
39400SOL    HW220098   7.340   7.679   1.846
39401SOL     OW20099  13.984   0.574  10.405
39401SOL    HW120100  13.963   0.606  10.492
39401SOL    HW220101  13.979   0.479  10.413
39402SOL     OW20102   7.987   2.790  12.632
39402SOL    HW120103   7.931   2.842  12.690
39402SOL    HW220104   7.950   2.803  12.545
39403SOL     OW20105   8.419   1.281   8.409
39403SOL    HW120106   8.501   1.297   8.456
39403SOL    HW220107   8.353   1.274   8.477
39404SOL     OW20108  13.344   2.933   7.531
39404SOL    HW120109  13.406   2.900   7.466
39404SOL    HW220110  13.396   2.990   7.588
39405SOL     OW20111   2.075   7.666   1.788
39405SOL    HW120112   2.141   7.735   1.789
39405SOL    HW220113   2.079   7.631   1.699
39406SOL     OW20114   0.510   0.660   3.359
39406SOL    HW120115   0.451   0.595   3.321
39406SOL    HW220116   0.473   0.744   3.332
39407SOL     OW20117   2.622   0.036  11.953
39407SOL    HW120118   2.534   0.066  11.928
39407SOL    HW220119   2.672   0.041  11.872
39408SOL     OW20120  14.330  14.563   0.882
39408SOL    HW120121  14.369  14.483   0.845
39408SOL    HW220122  14.254  14.532   0.932
39409SOL     OW20123   0.196  13.784   8.362
39409SOL    HW120124   0.102  13.774   8.375
39409SOL    HW220125   0.230  13.695   8.365
39410SOL     OW20126  10.906   0.963   3.133
39410SOL    HW120127  10.878   0.922   3.052
39410SOL    HW220128  10.855   0.920   3.202
39411SOL     OW20129  12.906  14.049   3.888
39411SOL    HW120130  12.906  14.073   3.981
39411SOL    HW220131  12.878  14.128   3.843
39412SOL     OW20132   0.391   5.200  14.875
39412SOL    HW120133   0.398   5.240  14.789
39412SOL    HW220134   0.410   5.270   0.060
39413SOL     OW20135   0.262  13.418   5.034
39413SOL    HW120136   0.293  13.505   5.010
39413SOL    HW220137   0.335  13.360   5.015
39414SOL     OW20138  10.116   6.868  12.532
39414SOL    HW120139  10.051   6.915  12.479
39414SOL    HW220140  10.064   6.808  12.585
39415SOL     OW20141   9.135  12.020   8.129
39415SOL    HW120142   9.190  12.007   8.207
39415SOL    HW220143   9.046  12.031   8.163
39416SOL     OW20144   4.846   1.904   4.031
39416SOL    HW120145   4.754   1.930   4.026
39416SOL    HW220146   4.854   1.832   3.969
39417SOL     OW20147   1.584  13.660   8.534
39417SOL    HW120148   1.498  13.644   8.574
39417SOL    HW220149   1.589  13.755   8.526
39418SOL     OW20150  11.107   5.050   2.197
39418SOL    HW120151  11.174   5.051   2.265
39418SOL    HW220152  11.087   4.957   2.183
39419SOL     OW20153   0.604   9.573   2.709
39419SOL    HW120154   0.558   9.597   2.628
39419SOL    HW220155   0.688   9.540   2.679
39420SOL     OW20156   5.640  14.789   0.135
39420SOL    HW120157   5.683  14.746   0.209
39420SOL    HW220158   5.547  14.770   0.148
39421SOL     OW20159   4.228   1.648  10.102
39421SOL    HW120160   4.319   1.652  10.072
39421SOL    HW220161   4.220   1.721  10.163
39422SOL     OW20162   6.546  14.121  11.927
39422SOL    HW120163   6.489  14.047  11.950
39422SOL    HW220164   6.571  14.159  12.011
39423SOL     OW20165   4.186   7.399   2.423
39423SOL    HW120166   4.178   7.304   2.426
39423SOL    HW220167   4.178   7.426   2.514
39424SOL     OW20168   2.085   6.510   4.270
39424SOL    HW120169   2.117   6.479   4.355
39424SOL    HW220170   2.147   6.578   4.244
39425SOL     OW20171   8.648   5.704   2.995
39425SOL    HW120172   8.736   5.671   2.979
39425SOL    HW220173   8.650   5.738   3.084
39426SOL     OW20174   5.632  10.891   4.061
39426SOL    HW120175   5.585  10.911   3.980
39426SOL    HW220176   5.587  10.943   4.128
39427SOL     OW20177   0.193  10.528   3.613
39427SOL    HW120178   0.249  10.530   3.691
39427SOL    HW220179   0.129  10.598   3.628
39428SOL     OW20180   3.315   1.015  12.574
39428SOL    HW120181   3.240   1.015  12.634
39428SOL    HW220182   3.286   1.067  12.500
39429SOL     OW20183  10.751   9.036   2.925
39429SOL    HW120184  10.834   9.018   2.970
39429SOL    HW220185  10.688   9.047   2.996
39430SOL     OW20186   0.816  12.785   8.029
39430SOL    HW120187   0.730  12.749   8.053
39430SOL    HW220188   0.858  12.802   8.113
39431SOL     OW20189  14.860   1.489   3.704
39431SOL    HW120190  14.811   1.526   3.777
39431SOL    HW220191  14.842   1.395   3.707
39432SOL     OW20192  13.175  11.329   3.061
39432SOL    HW120193  13.156  11.404   3.004
39432SOL    HW220194  13.214  11.264   3.003
39433SOL     OW20195   1.879   1.303   8.197
39433SOL    HW120196   1.880   1.382   8.251
39433SOL    HW220197   1.796   1.260   8.219
39434SOL     OW20198  11.186   8.402   5.771
39434SOL    HW120199  11.094   8.422   5.752
39434SOL    HW220200  11.182   8.353   5.853
39435SOL     OW20201   4.377  14.603  10.994
39435SOL    HW120202   4.352  14.687  10.956
39435SOL    HW220203   4.358  14.539  10.925
39436SOL     OW20204   0.889  11.219  13.272
39436SOL    HW120205   0.798  11.227  13.300
39436SOL    HW220206   0.887  11.153  13.202
39437SOL     OW20207  11.909  13.029   4.877
39437SOL    HW120208  11.932  13.074   4.796
39437SOL    HW220209  11.813  13.027   4.877
39438SOL     OW20210   0.949   1.787  11.128
39438SOL    HW120211   1.030   1.746  11.158
39438SOL    HW220212   0.889   1.715  11.112
39439SOL     OW20213   3.710   2.119   9.279
39439SOL    HW120214   3.711   2.140   9.185
39439SOL    HW220215   3.765   2.186   9.319
39440SOL     OW20216   3.377  14.580   8.379
39440SOL    HW120217   3.404  14.607   8.291
39440SOL    HW220218   3.448  14.611   8.436
39441SOL     OW20219  10.141   9.148   1.576
39441SOL    HW120220  10.086   9.120   1.649
39441SOL    HW220221  10.217   9.089   1.579
39442SOL     OW20222   2.206   1.115  11.338
39442SOL    HW120223   2.231   1.077  11.422
39442SOL    HW220224   2.288   1.144  11.299
39443SOL     OW20225   9.390   1.291   7.255
39443SOL    HW120226   9.449   1.366   7.270
39443SOL    HW220227   9.449   1.217   7.240
39444SOL     OW20228   0.648  10.767  12.546
39444SOL    HW120229   0.711  10.820  12.498
39444SOL    HW220230   0.678  10.677  12.533
39445SOL     OW20231   4.233  14.099   6.797
39445SOL    HW120232   4.246  14.127   6.706
39445SOL    HW220233   4.281  14.162   6.849
39446SOL     OW20234   0.399   7.727   2.943
39446SOL    HW120235   0.406   7.822   2.950
39446SOL    HW220236   0.481   7.694   2.979
39447SOL     OW20237   0.468  11.449  11.462
39447SOL    HW120238   0.432  11.533  11.492
39447SOL    HW220239   0.549  11.472  11.418
39448SOL     OW20240  11.669  14.771   6.057
39448SOL    HW120241  11.694  14.716   6.131
39448SOL    HW220242  11.680  14.713   5.981
39449SOL     OW20243   5.382  14.149   8.587
39449SOL    HW120244   5.392  14.139   8.682
39449SOL    HW220245   5.288  14.160   8.574
39450SOL     OW20246   0.619   9.937  13.566
39450SOL    HW120247   0.571   9.934  13.649
39450SOL    HW220248   0.672  10.017  13.573
39451SOL     OW20249   9.531   5.617  10.258
39451SOL    HW120250   9.528   5.588  10.350
39451SOL    HW220251   9.541   5.712  10.263
39452SOL     OW20252   2.868   1.060   7.805
39452SOL    HW120253   2.795   1.022   7.755
39452SOL    HW220254   2.841   1.151   7.819
39453SOL     OW20255   5.365   8.918  14.097
39453SOL    HW120256   5.340   8.835  14.136
39453SOL    HW220257   5.435   8.896  14.035
39454SOL     OW20258  14.196   5.305   2.363
39454SOL    HW120259  14.151   5.386   2.343
39454SOL    HW220260  14.189   5.252   2.284
39455SOL     OW20261  13.028   8.882   2.127
39455SOL    HW120262  13.074   8.963   2.105
39455SOL    HW220263  13.089   8.813   2.102
39456SOL     OW20264   9.224   0.833  10.319
39456SOL    HW120265   9.312   0.854  10.350
39456SOL    HW220266   9.238   0.776  10.244
39457SOL     OW20267   1.943   0.695   3.440
39457SOL    HW120268   2.032   0.671   3.415
39457SOL    HW220269   1.943   0.690   3.536
39458SOL     OW20270   3.208  14.100   0.643
39458SOL    HW120271   3.181  14.130   0.557
39458SOL    HW220272   3.258  14.020   0.627
39459SOL     OW20273   3.645   7.864  11.601
39459SOL    HW120274   3.611   7.922  11.533
39459SOL    HW220275   3.627   7.776  11.567
39460SOL     OW20276   1.214  11.276  11.451
39460SOL    HW120277   1.198  11.188  11.415
39460SOL    HW220278   1.149  11.285  11.521
39461SOL     OW20279   6.336  10.107  13.186
39461SOL    HW120280   6.265  10.044  13.179
39461SOL    HW220281   6.384  10.081  13.265
39462SOL     OW20282  13.282   9.151   1.406
39462SOL    HW120283  13.262   9.151   1.500
39462SOL    HW220284  13.208   9.105   1.366
39463SOL     OW20285   3.364   4.456   1.912
39463SOL    HW120286   3.365   4.539   1.960
39463SOL    HW220287   3.278   4.455   1.869
39464SOL     OW20288  13.085   4.081  12.038
39464SOL    HW120289  13.012   4.133  12.005
39464SOL    HW220290  13.135   4.057  11.960
39465SOL     OW20291  14.695  10.244   9.759
39465SOL    HW120292  14.774  10.199   9.789
39465SOL    HW220293  14.725  10.331   9.732
39466SOL     OW20294   0.354   4.605   3.989
39466SOL    HW120295   0.405   4.579   4.066
39466SOL    HW220296   0.307   4.526   3.963
39467SOL     OW20297   4.554   8.677   3.326
39467SOL    HW120298   4.498   8.645   3.256
39467SOL    HW220299   4.643   8.654   3.299
39468SOL     OW20300   5.562   1.434   7.910
39468SOL    HW120301   5.491   1.470   7.964
39468SOL    HW220302   5.606   1.511   7.873
39469SOL     OW20303  10.612   8.623   7.266
39469SOL    HW120304  10.696   8.577   7.274
39469SOL    HW220305  10.621   8.676   7.186
39470SOL     OW20306   3.288   2.457  12.765
39470SOL    HW120307   3.256   2.516  12.697
39470SOL    HW220308   3.225   2.385  12.765
39471SOL     OW20309   4.947   8.288   8.045
39471SOL    HW120310   5.011   8.232   8.002
39471SOL    HW220311   4.975   8.291   8.136
39472SOL     OW20312  10.232   4.214   8.851
39472SOL    HW120313  10.287   4.284   8.814
39472SOL    HW220314  10.288   4.136   8.847
39473SOL     OW20315  10.687  11.989   3.032
39473SOL    HW120316  10.642  11.964   2.951
39473SOL    HW220317  10.727  11.908   3.063
39474SOL     OW20318   0.695  11.718  10.267
39474SOL    HW120319   0.680  11.805  10.304
39474SOL    HW220320   0.610  11.691  10.233
39475SOL     OW20321   0.048   3.640   1.851
39475SOL    HW120322   0.125   3.693   1.874
39475SOL    HW220323  14.865   3.653   1.924
39476SOL     OW20324   3.149   3.877  10.667
39476SOL    HW120325   3.232   3.918  10.642
39476SOL    HW220326   3.171   3.823  10.743
39477SOL     OW20327   2.584   4.372  14.185
39477SOL    HW120328   2.532   4.447  14.213
39477SOL    HW220329   2.659   4.371  14.245
39478SOL     OW20330  14.769   1.315  14.743
39478SOL    HW120331  14.785   1.332  14.650
39478SOL    HW220332  14.850   1.274  14.774
39479SOL     OW20333   6.614   4.903   3.172
39479SOL    HW120334   6.682   4.942   3.118
39479SOL    HW220335   6.592   4.821   3.128
39480SOL     OW20336  10.049  11.641  10.638
39480SOL    HW120337  10.095  11.708  10.689
39480SOL    HW220338  10.116  11.604  10.581
39481SOL     OW20339  14.586   9.952  13.941
39481SOL    HW120340  14.601   9.966  14.034
39481SOL    HW220341  14.586   9.857  13.930
39482SOL     OW20342  14.708  10.076  10.778
39482SOL    HW120343  14.723  10.117  10.863
39482SOL    HW220344  14.729  10.144  10.714
39483SOL     OW20345   4.679  10.516  11.553
39483SOL    HW120346   4.672  10.443  11.614
39483SOL    HW220347   4.772  10.537  11.550
39484SOL     OW20348  14.668  13.569  13.244
39484SOL    HW120349  14.647  13.482  13.211
39484SOL    HW220350  14.589  13.620  13.227
39485SOL     OW20351   6.495  10.490  13.735
39485SOL    HW120352   6.402  10.481  13.714
39485SOL    HW220353   6.519  10.404  13.770
39486SOL     OW20354   0.690   0.316   5.493
39486SOL    HW120355   0.647   0.243   5.449
39486SOL    HW220356   0.619   0.370   5.527
39487SOL     OW20357  11.717   1.278   0.644
39487SOL    HW120358  11.684   1.271   0.733
39487SOL    HW220359  11.724   1.188   0.614
39488SOL     OW20360   5.091   7.393  13.721
39488SOL    HW120361   5.173   7.431  13.753
39488SOL    HW220362   5.024   7.457  13.746
39489SOL     OW20363  12.786   3.546  11.299
39489SOL    HW120364  12.798   3.453  11.284
39489SOL    HW220365  12.739   3.552  11.382
39490SOL     OW20366   3.607   2.802   7.195
39490SOL    HW120367   3.573   2.876   7.145
39490SOL    HW220368   3.645   2.842   7.274
39491SOL     OW20369   1.821  12.091  12.657
39491SOL    HW120370   1.905  12.065  12.618
39491SOL    HW220371   1.777  12.009  12.675
39492SOL     OW20372   8.954   1.658  12.262
39492SOL    HW120373   9.005   1.671  12.342
39492SOL    HW220374   8.996   1.583  12.219
39493SOL     OW20375   8.289   5.419  14.016
39493SOL    HW120376   8.315   5.422  14.108
39493SOL    HW220377   8.246   5.335  14.006
39494SOL     OW20378   1.424   6.287   0.204
39494SOL    HW120379   1.496   6.319   0.257
39494SOL    HW220380   1.345   6.314   0.251
39495SOL     OW20381  10.247  13.743  11.791
39495SOL    HW120382  10.246  13.813  11.725
39495SOL    HW220383  10.326  13.692  11.770
39496SOL     OW20384   4.851   3.065   6.716
39496SOL    HW120385   4.912   2.991   6.717
39496SOL    HW220386   4.768   3.027   6.687
39497SOL     OW20387  14.754   0.378  12.987
39497SOL    HW120388  14.844   0.351  13.005
39497SOL    HW220389  14.753   0.395  12.893
39498SOL     OW20390   8.160   0.911   3.614
39498SOL    HW120391   8.204   0.837   3.657
39498SOL    HW220392   8.182   0.901   3.522
39499SOL     OW20393  13.115  11.387   8.835
39499SOL    HW120394  13.099  11.292   8.831
39499SOL    HW220395  13.034  11.423   8.870
39500SOL     OW20396   4.347   8.381   7.369
39500SOL    HW120397   4.433   8.412   7.397
39500SOL    HW220398   4.349   8.386   7.273
39501SOL     OW20399   4.705   7.999  13.781
39501SOL    HW120400   4.753   7.993  13.698
39501SOL    HW220401   4.758   8.057  13.835
39502SOL     OW20402   4.276   0.301  13.847
39502SOL    HW120403   4.339   0.340  13.908
39502SOL    HW220404   4.208   0.367  13.837
39503SOL     OW20405  12.036   6.773  12.438
39503SOL    HW120406  12.060   6.865  12.442
39503SOL    HW220407  11.941   6.772  12.451
39504SOL     OW20408   0.374   9.089   1.668
39504SOL    HW120409   0.441   9.026   1.694
39504SOL    HW220410   0.411   9.134   1.592
39505SOL     OW20411   7.903  11.324   9.089
39505SOL    HW120412   7.892  11.361   9.001
39505SOL    HW220413   7.998  11.319   9.101
39506SOL     OW20414   9.844   2.674   7.423
39506SOL    HW120415   9.786   2.750   7.430
39506SOL    HW220416   9.927   2.702   7.461
39507SOL     OW20417   5.242   2.917   4.620
39507SOL    HW120418   5.157   2.948   4.653
39507SOL    HW220419   5.220   2.863   4.545
39508SOL     OW20420   0.246   2.903   2.049
39508SOL    HW120421   0.229   2.905   1.954
39508SOL    HW220422   0.325   2.956   2.060
39509SOL     OW20423   2.074   3.009   8.476
39509SOL    HW120424   2.009   3.016   8.406
39509SOL    HW220425   2.035   2.949   8.540
39510SOL     OW20426   6.632  11.883   2.763
39510SOL    HW120427   6.660  11.965   2.724
39510SOL    HW220428   6.617  11.824   2.689
39511SOL     OW20429  12.811   6.095   3.831
39511SOL    HW120430  12.783   6.027   3.893
39511SOL    HW220431  12.731   6.119   3.785
39512SOL     OW20432   2.261   9.611  13.055
39512SOL    HW120433   2.286   9.542  13.117
39512SOL    HW220434   2.300   9.584  12.972
39513SOL     OW20435   9.228   2.325   4.072
39513SOL    HW120436   9.286   2.395   4.101
39513SOL    HW220437   9.254   2.249   4.124
39514SOL     OW20438  11.045   3.730   0.290
39514SOL    HW120439  11.069   3.745   0.382
39514SOL    HW220440  11.057   3.816   0.249
39515SOL     OW20441  12.659  11.500   5.607
39515SOL    HW120442  12.731  11.532   5.660
39515SOL    HW220443  12.701  11.455   5.534
39516SOL     OW20444  10.282   6.627   1.490
39516SOL    HW120445  10.364   6.675   1.502
39516SOL    HW220446  10.275   6.571   1.567
39517SOL     OW20447   2.312   8.720   0.919
39517SOL    HW120448   2.237   8.763   0.960
39517SOL    HW220449   2.328   8.642   0.972
39518SOL     OW20450   8.152  12.301  13.139
39518SOL    HW120451   8.090  12.242  13.097
39518SOL    HW220452   8.238  12.274  13.105
39519SOL     OW20453   6.255   6.768  12.171
39519SOL    HW120454   6.234   6.763  12.265
39519SOL    HW220455   6.343   6.731  12.165
39520SOL     OW20456  14.161  13.467   4.461
39520SOL    HW120457  14.081  13.419   4.480
39520SOL    HW220458  14.161  13.480   4.367
39521SOL     OW20459   1.828   5.237  12.694
39521SOL    HW120460   1.752   5.190  12.663
39521SOL    HW220461   1.822   5.323  12.654
39522SOL     OW20462   2.352   9.673   1.546
39522SOL    HW120463   2.386   9.633   1.466
39522SOL    HW220464   2.291   9.608   1.582
39523SOL     OW20465   4.923   5.816   8.912
39523SOL    HW120466   4.992   5.774   8.963
39523SOL    HW220467   4.899   5.894   8.963
39524SOL     OW20468  10.554  12.071   4.090
39524SOL    HW120469  10.477  12.127   4.094
39524SOL    HW220470  10.623  12.121   4.133
39525SOL     OW20471  13.650   1.407  12.173
39525SOL    HW120472  13.555   1.397  12.162
39525SOL    HW220473  13.666   1.386  12.265
39526SOL     OW20474   8.489  14.842   5.518
39526SOL    HW120475   8.465  14.767   5.464
39526SOL    HW220476   8.409  14.863   5.566
39527SOL     OW20477   9.979   8.854  11.640
39527SOL    HW120478   9.924   8.821  11.711
39527SOL    HW220479   9.921   8.857  11.564
39528SOL     OW20480   7.154   5.677   1.208
39528SOL    HW120481   7.181   5.634   1.127
39528SOL    HW220482   7.226   5.738   1.228
39529SOL     OW20483   1.557   5.524  14.290
39529SOL    HW120484   1.555   5.616  14.315
39529SOL    HW220485   1.641   5.491  14.322
39530SOL     OW20486   7.307   4.417  10.294
39530SOL    HW120487   7.245   4.489  10.284
39530SOL    HW220488   7.373   4.451  10.354
39531SOL     OW20489   3.442   0.081   1.673
39531SOL    HW120490   3.382   0.042   1.736
39531SOL    HW220491   3.527   0.041   1.694
39532SOL     OW20492  12.160  14.208  10.303
39532SOL    HW120493  12.122  14.285  10.344
39532SOL    HW220494  12.156  14.226  10.209
39533SOL     OW20495  14.675  11.012   2.507
39533SOL    HW120496  14.737  10.967   2.449
39533SOL    HW220497  14.605  11.040   2.448
39534SOL     OW20498  12.107  13.767   9.840
39534SOL    HW120499  12.143  13.698   9.896
39534SOL    HW220500  12.184  13.817   9.813
39535SOL     OW20501   3.479   6.983  14.736
39535SOL    HW120502   3.478   7.064  14.684
39535SOL    HW220503   3.399   6.937  14.711
39536SOL     OW20504   1.946  14.140   0.691
39536SOL    HW120505   1.885  14.076   0.728
39536SOL    HW220506   1.890  14.215   0.669
39537SOL     OW20507   4.384   4.791   8.101
39537SOL    HW120508   4.411   4.862   8.044
39537SOL    HW220509   4.350   4.723   8.042
39538SOL     OW20510   9.524  12.241  10.651
39538SOL    HW120511   9.564  12.158  10.627
39538SOL    HW220512   9.459  12.218  10.718
39539SOL     OW20513  11.336  12.767   9.682
39539SOL    HW120514  11.272  12.834   9.703
39539SOL    HW220515  11.404  12.776   9.750
39540SOL     OW20516   5.375  10.548   0.352
39540SOL    HW120517   5.385  10.627   0.405
39540SOL    HW220518   5.359  10.580   0.263
39541SOL     OW20519   7.799  14.221   3.974
39541SOL    HW120520   7.711  14.219   4.012
39541SOL    HW220521   7.827  14.129   3.973
39542SOL     OW20522   9.832   9.073   5.095
39542SOL    HW120523   9.747   9.032   5.082
39542SOL    HW220524   9.846   9.071   5.189
39543SOL     OW20525   9.227   8.847   2.258
39543SOL    HW120526   9.205   8.832   2.166
39543SOL    HW220527   9.239   8.759   2.294
39544SOL     OW20528   3.094   4.288   3.802
39544SOL    HW120529   3.046   4.338   3.737
39544SOL    HW220530   3.184   4.318   3.795
39545SOL     OW20531   1.586   5.131   2.612
39545SOL    HW120532   1.567   5.211   2.563
39545SOL    HW220533   1.568   5.060   2.549
39546SOL     OW20534  13.109   9.768  11.975
39546SOL    HW120535  13.189   9.782  12.025
39546SOL    HW220536  13.117   9.826  11.900
39547SOL     OW20537   3.296   1.907   6.884
39547SOL    HW120538   3.337   1.906   6.798
39547SOL    HW220539   3.349   1.847   6.937
39548SOL     OW20540   1.567  11.429   1.614
39548SOL    HW120541   1.592  11.390   1.531
39548SOL    HW220542   1.473  11.411   1.622
39549SOL     OW20543  13.219   9.457  13.596
39549SOL    HW120544  13.241   9.414  13.679
39549SOL    HW220545  13.225   9.550  13.615
39550SOL     OW20546   0.083  11.244   3.705
39550SOL    HW120547   0.009  11.184   3.695
39550SOL    HW220548   0.073  11.280   3.793
39551SOL     OW20549   5.095   0.523   4.802
39551SOL    HW120550   5.154   0.449   4.788
39551SOL    HW220551   5.116   0.553   4.891
39552SOL     OW20552   4.345   8.204  12.888
39552SOL    HW120553   4.293   8.284  12.881
39552SOL    HW220554   4.312   8.147  12.818
39553SOL     OW20555   5.067   5.336  12.908
39553SOL    HW120556   5.021   5.367  12.986
39553SOL    HW220557   5.012   5.265  12.875
39554SOL     OW20558  13.579  14.431   2.904
39554SOL    HW120559  13.632  14.353   2.889
39554SOL    HW220560  13.633  14.488   2.958
39555SOL     OW20561   3.766   6.341   5.567
39555SOL    HW120562   3.807   6.304   5.488
39555SOL    HW220563   3.674   6.315   5.560
39556SOL     OW20564   9.870   0.205   0.178
39556SOL    HW120565   9.960   0.224   0.152
39556SOL    HW220566   9.856   0.115   0.151
39557SOL     OW20567   7.825   5.387   9.494
39557SOL    HW120568   7.875   5.452   9.543
39557SOL    HW220569   7.735   5.401   9.522
39558SOL     OW20570   8.278   6.098  11.683
39558SOL    HW120571   8.334   6.120  11.757
39558SOL    HW220572   8.336   6.100  11.607
39559SOL     OW20573   4.504   2.045   7.688
39559SOL    HW120574   4.525   1.992   7.765
39559SOL    HW220575   4.492   1.982   7.617
39560SOL     OW20576   9.907   0.964  14.770
39560SOL    HW120577   9.812   0.964  14.772
39560SOL    HW220578   9.932   1.053  14.794
39561SOL     OW20579   1.814  11.083  10.968
39561SOL    HW120580   1.813  11.101  11.062
39561SOL    HW220581   1.736  11.128  10.934
39562SOL     OW20582   2.666   9.089  14.445
39562SOL    HW120583   2.730   9.156  14.469
39562SOL    HW220584   2.623   9.067  14.528
39563SOL     OW20585  10.078   8.849  13.273
39563SOL    HW120586  10.090   8.944  13.273
39563SOL    HW220587  10.001   8.834  13.219
39564SOL     OW20588   6.667   0.398   6.256
39564SOL    HW120589   6.761   0.399   6.242
39564SOL    HW220590   6.633   0.340   6.187
39565SOL     OW20591   1.826   8.697  10.687
39565SOL    HW120592   1.855   8.776  10.732
39565SOL    HW220593   1.904   8.641  10.685
39566SOL     OW20594  10.748   3.639  14.327
39566SOL    HW120595  10.813   3.598  14.270
39566SOL    HW220596  10.664   3.602  14.299
39567SOL     OW20597   8.356   3.878   3.304
39567SOL    HW120598   8.323   3.943   3.366
39567SOL    HW220599   8.328   3.794   3.341
39568SOL     OW20600   6.653   3.961   8.695
39568SOL    HW120601   6.658   4.031   8.761
39568SOL    HW220602   6.732   3.973   8.642
39569SOL     OW20603   9.479   9.292  12.589
39569SOL    HW120604   9.396   9.332  12.613
39569SOL    HW220605   9.460   9.243  12.509
39570SOL     OW20606  13.127   0.438  13.042
39570SOL    HW120607  13.158   0.364  13.095
39570SOL    HW220608  13.207   0.475  13.004
39571SOL     OW20609   9.382   0.255   7.858
39571SOL    HW120610   9.413   0.198   7.787
39571SOL    HW220611   9.339   0.195   7.919
39572SOL     OW20612  10.151   9.357   9.267
39572SOL    HW120613  10.074   9.300   9.260
39572SOL    HW220614  10.138   9.423   9.200
39573SOL     OW20615  14.250  10.239   1.616
39573SOL    HW120616  14.319  10.226   1.550
39573SOL    HW220617  14.177  10.276   1.567
39574SOL     OW20618   6.205   1.051   3.914
39574SOL    HW120619   6.243   1.102   3.986
39574SOL    HW220620   6.119   1.025   3.946
39575SOL     OW20621   5.024   5.284   8.858
39575SOL    HW120622   5.109   5.280   8.902
39575SOL    HW220623   5.036   5.230   8.779
39576SOL     OW20624  13.012   1.241   9.133
39576SOL    HW120625  12.972   1.326   9.149
39576SOL    HW220626  12.954   1.198   9.069
39577SOL     OW20627  11.647  11.112  13.048
39577SOL    HW120628  11.672  11.054  13.120
39577SOL    HW220629  11.568  11.073  13.012
39578SOL     OW20630  11.431   2.410   9.342
39578SOL    HW120631  11.417   2.501   9.367
39578SOL    HW220632  11.358   2.390   9.284
39579SOL     OW20633   8.168  10.117  11.378
39579SOL    HW120634   8.096  10.083  11.432
39579SOL    HW220635   8.130  10.126  11.291
39580SOL     OW20636   9.094  13.018  13.676
39580SOL    HW120637   9.139  13.011  13.760
39580SOL    HW220638   9.158  13.061  13.619
39581SOL     OW20639   4.167   4.491   5.786
39581SOL    HW120640   4.220   4.473   5.864
39581SOL    HW220641   4.084   4.446   5.803
39582SOL     OW20642   0.800   2.655  11.884
39582SOL    HW120643   0.814   2.599  11.960
39582SOL    HW220644   0.873   2.634  11.826
39583SOL     OW20645   5.332  10.089   0.012
39583SOL    HW120646   5.303  10.145   0.084
39583SOL    HW220647   5.354  10.006   0.053
39584SOL     OW20648  10.746   0.325   5.066
39584SOL    HW120649  10.712   0.353   5.151
39584SOL    HW220650  10.799   0.248   5.085
39585SOL     OW20651  14.501   8.675   8.243
39585SOL    HW120652  14.546   8.687   8.159
39585SOL    HW220653  14.572   8.671   8.308
39586SOL     OW20654   9.451   0.823  11.608
39586SOL    HW120655   9.361   0.855  11.594
39586SOL    HW220656   9.462   0.824  11.703
39587SOL     OW20657   6.530   7.466  10.013
39587SOL    HW120658   6.552   7.437  10.101
39587SOL    HW220659   6.602   7.524   9.988
39588SOL     OW20660  14.386  13.798   1.467
39588SOL    HW120661  14.336  13.789   1.548
39588SOL    HW220662  14.330  13.762   1.399
39589SOL     OW20663   4.155   1.561   8.030
39589SOL    HW120664   4.181   1.521   8.113
39589SOL    HW220665   4.094   1.498   7.991
39590SOL     OW20666  10.334  11.818   5.131
39590SOL    HW120667  10.264  11.883   5.136
39590SOL    HW220668  10.327  11.768   5.212
39591SOL     OW20669  14.817   0.132  13.786
39591SOL    HW120670  14.857   0.045  13.799
39591SOL    HW220671  14.726   0.113  13.764
39592SOL     OW20672  10.751   9.398   1.562
39592SOL    HW120673  10.763   9.492   1.545
39592SOL    HW220674  10.840   9.363   1.565
39593SOL     OW20675   2.624  10.442   5.712
39593SOL    HW120676   2.641  10.422   5.620
39593SOL    HW220677   2.565  10.518   5.709
39594SOL     OW20678   2.083   0.954   7.088
39594SOL    HW120679   2.051   0.892   7.153
39594SOL    HW220680   2.168   0.982   7.122
39595SOL     OW20681   1.539  11.566   4.298
39595SOL    HW120682   1.570  11.571   4.389
39595SOL    HW220683   1.457  11.614   4.298
39596SOL     OW20684  14.041  12.647   6.263
39596SOL    HW120685  14.076  12.736   6.270
39596SOL    HW220686  13.968  12.645   6.325
39597SOL     OW20687   8.521   4.433  10.490
39597SOL    HW120688   8.510   4.411  10.582
39597SOL    HW220689   8.602   4.484  10.486
39598SOL     OW20690   2.909  12.874   6.213
39598SOL    HW120691   2.985  12.843   6.164
39598SOL    HW220692   2.917  12.832   6.299
39599SOL     OW20693   7.444   3.855   4.113
39599SOL    HW120694   7.489   3.859   4.198
39599SOL    HW220695   7.412   3.944   4.099
39600SOL     OW20696   6.146   3.004   2.616
39600SOL    HW120697   6.150   3.093   2.652
39600SOL    HW220698   6.234   2.969   2.627
39601SOL     OW20699  10.598   1.808  10.465
39601SOL    HW120700  10.611   1.733  10.407
39601SOL    HW220701  10.505   1.803  10.491
39602SOL     OW20702   1.438   7.772   3.295
39602SOL    HW120703   1.439   7.712   3.369
39602SOL    HW220704   1.506   7.740   3.237
39603SOL     OW20705  11.598   4.072   2.778
39603SOL    HW120706  11.589   3.993   2.724
39603SOL    HW220707  11.587   4.041   2.867
39604SOL     OW20708   7.138   7.871   6.007
39604SOL    HW120709   7.222   7.851   6.049
39604SOL    HW220710   7.078   7.804   6.041
39605SOL     OW20711   3.598   5.406  12.386
39605SOL    HW120712   3.607   5.392  12.292
39605SOL    HW220713   3.684   5.438  12.414
39606SOL     OW20714   2.454   1.402  12.429
39606SOL    HW120715   2.499   1.353  12.361
39606SOL    HW220716   2.482   1.493  12.417
39607SOL     OW20717   0.298   0.924  12.892
39607SOL    HW120718   0.312   0.998  12.833
39607SOL    HW220719   0.353   0.944  12.968
39608SOL     OW20720   1.694   6.363   9.187
39608SOL    HW120721   1.672   6.318   9.269
39608SOL    HW220722   1.765   6.422   9.212
39609SOL     OW20723   1.388   2.950   2.349
39609SOL    HW120724   1.428   3.013   2.288
39609SOL    HW220725   1.449   2.876   2.351
39610SOL     OW20726   7.010   0.911  13.225
39610SOL    HW120727   7.065   0.835  13.209
39610SOL    HW220728   6.990   0.907  13.319
39611SOL     OW20729  12.298   5.118   9.652
39611SOL    HW120730  12.384   5.117   9.609
39611SOL    HW220731  12.252   5.191   9.610
39612SOL     OW20732   2.996   4.195  13.683
39612SOL    HW120733   3.035   4.269  13.730
39612SOL    HW220734   2.954   4.142  13.751
39613SOL     OW20735  14.689   4.400   3.693
39613SOL    HW120736  14.711   4.446   3.774
39613SOL    HW220737  14.750   4.434   3.628
39614SOL     OW20738   0.704   8.524   2.302
39614SOL    HW120739   0.730   8.516   2.394
39614SOL    HW220740   0.782   8.557   2.258
39615SOL     OW20741   6.693   9.052   9.135
39615SOL    HW120742   6.678   8.981   9.073
39615SOL    HW220743   6.607   9.091   9.148
39616SOL     OW20744   3.076  11.891   8.680
39616SOL    HW120745   3.093  11.800   8.706
39616SOL    HW220746   3.119  11.900   8.595
39617SOL     OW20747  12.212   4.869   3.994
39617SOL    HW120748  12.246   4.951   3.958
39617SOL    HW220749  12.291   4.818   4.015
39618SOL     OW20750  13.155   5.242   7.125
39618SOL    HW120751  13.174   5.155   7.159
39618SOL    HW220752  13.197   5.244   7.039
39619SOL     OW20753   0.839  12.418   0.614
39619SOL    HW120754   0.914  12.418   0.673
39619SOL    HW220755   0.767  12.457   0.665
39620SOL     OW20756   7.684   4.225   8.415
39620SOL    HW120757   7.700   4.215   8.509
39620SOL    HW220758   7.625   4.300   8.409
39621SOL     OW20759  10.803   1.480  11.913
39621SOL    HW120760  10.805   1.387  11.888
39621SOL    HW220761  10.883   1.493  11.963
39622SOL     OW20762   9.596  11.465   4.742
39622SOL    HW120763   9.606  11.540   4.683
39622SOL    HW220764   9.662  11.479   4.810
39623SOL     OW20765  10.879   3.597   6.206
39623SOL    HW120766  10.855   3.519   6.255
39623SOL    HW220767  10.970   3.583   6.181
39624SOL     OW20768   2.869  11.138   3.195
39624SOL    HW120769   2.893  11.199   3.265
39624SOL    HW220770   2.805  11.186   3.142
39625SOL     OW20771  13.809   8.492   6.315
39625SOL    HW120772  13.802   8.583   6.344
39625SOL    HW220773  13.844   8.445   6.391
39626SOL     OW20774  11.585  11.776  10.258
39626SOL    HW120775  11.549  11.702  10.209
39626SOL    HW220776  11.573  11.753  10.350
39627SOL     OW20777  10.197   8.061   4.526
39627SOL    HW120778  10.105   8.052   4.550
39627SOL    HW220779  10.205   8.153   4.499
39628SOL     OW20780   6.115   8.274  11.864
39628SOL    HW120781   6.054   8.342  11.892
39628SOL    HW220782   6.112   8.278  11.768
39629SOL     OW20783  14.247   4.632   8.632
39629SOL    HW120784  14.277   4.578   8.559
39629SOL    HW220785  14.245   4.572   8.707
39630SOL     OW20786   5.852  12.036   5.898
39630SOL    HW120787   5.874  12.065   5.986
39630SOL    HW220788   5.934  12.044   5.849
39631SOL     OW20789  13.210   0.145   4.343
39631SOL    HW120790  13.185   0.157   4.434
39631SOL    HW220791  13.299   0.109   4.347
39632SOL     OW20792   7.544   4.571   7.983
39632SOL    HW120793   7.469   4.601   8.034
39632SOL    HW220794   7.515   4.580   7.892
39633SOL     OW20795  10.565  11.224   8.937
39633SOL    HW120796  10.607  11.148   8.897
39633SOL    HW220797  10.601  11.227   9.026
39634SOL     OW20798   6.827   0.998   5.725
39634SOL    HW120799   6.855   0.945   5.800
39634SOL    HW220800   6.904   1.002   5.668
39635SOL     OW20801  14.532  14.707  13.205
39635SOL    HW120802  14.602  14.667  13.257
39635SOL    HW220803  14.535  14.660  13.121
39636SOL     OW20804   3.212   4.070  14.434
39636SOL    HW120805   3.298   4.085  14.394
39636SOL    HW220806   3.190   4.154  14.475
39637SOL     OW20807  10.748   7.935   0.207
39637SOL    HW120808  10.832   7.896   0.232
39637SOL    HW220809  10.687   7.861   0.208
39638SOL     OW20810  10.087   3.859  10.849
39638SOL    HW120811  10.142   3.780  10.857
39638SOL    HW220812  10.053   3.872  10.938
39639SOL     OW20813   5.214   6.884   9.264
39639SOL    HW120814   5.249   6.805   9.306
39639SOL    HW220815   5.142   6.911   9.322
39640SOL     OW20816   8.558   5.812   2.738
39640SOL    HW120817   8.635   5.844   2.785
39640SOL    HW220818   8.530   5.734   2.786
39641SOL     OW20819   2.769   5.655  12.464
39641SOL    HW120820   2.701   5.656  12.397
39641SOL    HW220821   2.851   5.652  12.416
39642SOL     OW20822   6.904   5.980   6.239
39642SOL    HW120823   6.844   6.046   6.207
39642SOL    HW220824   6.964   5.963   6.166
39643SOL     OW20825   7.074  11.602  14.644
39643SOL    HW120826   6.989  11.580  14.682
39643SOL    HW220827   7.062  11.592  14.550
39644SOL     OW20828   2.732  14.497   0.401
39644SOL    HW120829   2.709  14.589   0.391
39644SOL    HW220830   2.648  14.454   0.418
39645SOL     OW20831  14.160  14.592   9.087
39645SOL    HW120832  14.229  14.642   9.043
39645SOL    HW220833  14.078  14.627   9.052
39646SOL     OW20834  13.523  12.286   2.434
39646SOL    HW120835  13.439  12.263   2.396
39646SOL    HW220836  13.512  12.275   2.529
39647SOL     OW20837   0.709  10.265   6.512
39647SOL    HW120838   0.752  10.285   6.428
39647SOL    HW220839   0.766  10.304   6.578
39648SOL     OW20840   3.153   7.834  12.892
39648SOL    HW120841   3.153   7.745  12.856
39648SOL    HW220842   3.149   7.821  12.986
39649SOL     OW20843  11.656   3.846   8.929
39649SOL    HW120844  11.647   3.935   8.896
39649SOL    HW220845  11.693   3.796   8.856
39650SOL     OW20846  12.476  12.726  10.816
39650SOL    HW120847  12.454  12.773  10.735
39650SOL    HW220848  12.455  12.787  10.886
39651SOL     OW20849  13.777  11.267  10.722
39651SOL    HW120850  13.752  11.358  10.733
39651SOL    HW220851  13.868  11.263  10.750
39652SOL     OW20852   7.086  11.525   3.274
39652SOL    HW120853   7.010  11.507   3.330
39652SOL    HW220854   7.160  11.493   3.325
39653SOL     OW20855  12.799   9.816   0.352
39653SOL    HW120856  12.724   9.798   0.409
39653SOL    HW220857  12.771   9.782   0.266
39654SOL     OW20858   4.694   3.207  11.655
39654SOL    HW120859   4.603   3.202  11.684
39654SOL    HW220860   4.699   3.146  11.581
39655SOL     OW20861   1.800   7.999   0.048
39655SOL    HW120862   1.778   8.002  14.833
39655SOL    HW220863   1.716   8.005   0.093
39656SOL     OW20864   9.748   6.364   6.759
39656SOL    HW120865   9.807   6.302   6.801
39656SOL    HW220866   9.772   6.361   6.666
39657SOL     OW20867   5.239   6.156   0.123
39657SOL    HW120868   5.324   6.186   0.092
39657SOL    HW220869   5.212   6.221   0.188
39658SOL     OW20870   0.624   0.650   8.105
39658SOL    HW120871   0.531   0.651   8.129
39658SOL    HW220872   0.629   0.711   8.031
39659SOL     OW20873  14.651   3.659   1.093
39659SOL    HW120874  14.660   3.585   1.154
39659SOL    HW220875  14.740   3.694   1.083
39660SOL     OW20876  13.912   4.830   6.200
39660SOL    HW120877  13.822   4.860   6.187
39660SOL    HW220878  13.957   4.906   6.237
39661SOL     OW20879   3.746   9.788  10.412
39661SOL    HW120880   3.778   9.734  10.339
39661SOL    HW220881   3.798   9.868  10.407
39662SOL     OW20882  13.958   8.680   2.099
39662SOL    HW120883  13.999   8.766   2.086
39662SOL    HW220884  13.925   8.656   2.013
39663SOL     OW20885   8.900   4.152   5.486
39663SOL    HW120886   8.846   4.198   5.551
39663SOL    HW220887   8.872   4.060   5.494
39664SOL     OW20888   4.494  10.407  13.873
39664SOL    HW120889   4.458  10.449  13.951
39664SOL    HW220890   4.470  10.315  13.882
39665SOL     OW20891  10.137   5.939   4.600
39665SOL    HW120892  10.047   5.953   4.629
39665SOL    HW220893  10.146   5.994   4.522
39666SOL     OW20894   0.899   2.836   4.555
39666SOL    HW120895   0.909   2.745   4.530
39666SOL    HW220896   0.840   2.873   4.489
39667SOL     OW20897  11.030   6.127   9.145
39667SOL    HW120898  11.005   6.189   9.076
39667SOL    HW220899  10.961   6.134   9.210
39668SOL     OW20900   8.556   4.433   0.443
39668SOL    HW120901   8.576   4.389   0.526
39668SOL    HW220902   8.541   4.361   0.382
39669SOL     OW20903  11.932  10.323   9.269
39669SOL    HW120904  11.838  10.323   9.251
39669SOL    HW220905  11.959  10.232   9.257
39670SOL     OW20906   3.238   1.911   2.167
39670SOL    HW120907   3.186   1.855   2.110
39670SOL    HW220908   3.327   1.874   2.162
39671SOL     OW20909   3.553  11.471  11.127
39671SOL    HW120910   3.619  11.493  11.061
39671SOL    HW220911   3.474  11.452  11.078
39672SOL     OW20912  13.618   4.079   8.322
39672SOL    HW120913  13.547   4.125   8.277
39672SOL    HW220914  13.691   4.082   8.260
39673SOL     OW20915  11.965   4.475   2.927
39673SOL    HW120916  11.935   4.555   2.971
39673SOL    HW220917  12.035   4.442   2.983
39674SOL     OW20918  13.238  11.647   3.849
39674SOL    HW120919  13.194  11.719   3.804
39674SOL    HW220920  13.192  11.568   3.821
39675SOL     OW20921   3.531  11.727  13.556
39675SOL    HW120922   3.523  11.641  13.515
39675SOL    HW220923   3.471  11.723  13.631
39676SOL     OW20924   2.394  14.641  12.714
39676SOL    HW120925   2.440  14.710  12.666
39676SOL    HW220926   2.317  14.622  12.661
39677SOL     OW20927   2.981   9.830  11.507
39677SOL    HW120928   2.888   9.817  11.491
39677SOL    HW220929   3.024   9.759  11.459
39678SOL     OW20930   0.298   6.759   7.948
39678SOL    HW120931   0.267   6.825   8.010
39678SOL    HW220932   0.264   6.676   7.983
39679SOL     OW20933   4.713  13.970   7.902
39679SOL    HW120934   4.769  13.921   7.841
39679SOL    HW220935   4.687  14.048   7.853
39680SOL     OW20936   2.983   2.247   8.771
39680SOL    HW120937   3.047   2.198   8.719
39680SOL    HW220938   2.904   2.193   8.771
39681SOL     OW20939   1.698   5.314  11.548
39681SOL    HW120940   1.716   5.313  11.454
39681SOL    HW220941   1.609   5.347  11.555
39682SOL     OW20942  10.253   5.930   5.529
39682SOL    HW120943  10.271   5.846   5.572
39682SOL    HW220944  10.291   5.996   5.586
39683SOL     OW20945   5.561  14.261  12.823
39683SOL    HW120946   5.650  14.225  12.823
39683SOL    HW220947   5.506  14.189  12.793
39684SOL     OW20948   2.420  12.650   2.031
39684SOL    HW120949   2.345  12.688   2.076
39684SOL    HW220950   2.454  12.722   1.978
39685SOL     OW20951   6.224  12.270  10.527
39685SOL    HW120952   6.300  12.327  10.516
39685SOL    HW220953   6.200  12.245  10.437
39686SOL     OW20954  12.561   6.307   2.622
39686SOL    HW120955  12.648   6.342   2.607
39686SOL    HW220956  12.538   6.263   2.540
39687SOL     OW20957   4.783   4.058   9.826
39687SOL    HW120958   4.810   3.990   9.764
39687SOL    HW220959   4.785   4.016   9.911
39688SOL     OW20960   9.973   0.513  14.444
39688SOL    HW120961   9.940   0.568  14.515
39688SOL    HW220962  10.060   0.549  14.426
39689SOL     OW20963   7.688   0.559  13.638
39689SOL    HW120964   7.783   0.556  13.634
39689SOL    HW220965   7.660   0.558  13.546
39690SOL     OW20966  12.648   9.098   2.140
39690SOL    HW120967  12.682   9.099   2.229
39690SOL    HW220968  12.576   9.035   2.143
39691SOL     OW20969   8.460  13.425   7.623
39691SOL    HW120970   8.416  13.370   7.559
39691SOL    HW220971   8.552  13.425   7.597
39692SOL     OW20972  13.880  11.909  11.200
39692SOL    HW120973  13.816  11.962  11.247
39692SOL    HW220974  13.945  11.885  11.266
39693SOL     OW20975   5.129   9.269   3.181
39693SOL    HW120976   5.067   9.197   3.167
39693SOL    HW220977   5.159   9.292   3.093
39694SOL     OW20978  11.288  12.326  13.007
39694SOL    HW120979  11.259  12.298  12.920
39694SOL    HW220980  11.271  12.251  13.064
39695SOL     OW20981   2.352  13.624   5.292
39695SOL    HW120982   2.383  13.561   5.357
39695SOL    HW220983   2.296  13.684   5.341
39696SOL     OW20984   3.414   5.176   2.263
39696SOL    HW120985   3.456   5.196   2.180
39696SOL    HW220986   3.328   5.217   2.257
39697SOL     OW20987   8.587   9.303   9.785
39697SOL    HW120988   8.517   9.298   9.850
39697SOL    HW220989   8.668   9.298   9.837
39698SOL     OW20990   8.233   9.040  13.414
39698SOL    HW120991   8.325   9.049  13.440
39698SOL    HW220992   8.188   9.013  13.494
39699SOL     OW20993  11.342   5.011  11.295
39699SOL    HW120994  11.270   4.986  11.353
39699SOL    HW220995  11.377   4.928  11.263
39700SOL     OW20996   4.563   4.488  10.746
39700SOL    HW120997   4.514   4.485  10.664
39700SOL    HW220998   4.653   4.465  10.721
39701SOL     OW20999  12.216   8.408  13.449
39701SOL    HW121000  12.290   8.347  13.449
39701SOL    HW221001  12.157   8.375  13.516
39702SOL     OW21002   8.410  14.729   9.878
39702SOL    HW121003   8.450  14.793   9.936
39702SOL    HW221004   8.465  14.651   9.886
39703SOL     OW21005   9.135  13.323   1.663
39703SOL    HW121006   9.199  13.275   1.716
39703SOL    HW221007   9.099  13.388   1.722
39704SOL     OW21008   5.275  11.634   4.848
39704SOL    HW121009   5.303  11.601   4.933
39704SOL    HW221010   5.319  11.719   4.839
39705SOL     OW21011   4.516  10.418   3.423
39705SOL    HW121012   4.423  10.400   3.411
39705SOL    HW221013   4.538  10.475   3.349
39706SOL     OW21014   5.860  10.721   9.859
39706SOL    HW121015   5.791  10.725   9.925
39706SOL    HW221016   5.941  10.721   9.910
39707SOL     OW21017  12.873   5.798   3.763
39707SOL    HW121018  12.855   5.766   3.851
39707SOL    HW221019  12.788   5.831   3.731
39708SOL     OW21020   8.801   4.205   7.546
39708SOL    HW121021   8.717   4.166   7.572
39708SOL    HW221022   8.786   4.299   7.551
39709SOL     OW21023   0.905   5.757   8.111
39709SOL    HW121024   0.913   5.721   8.023
39709SOL    HW221025   0.924   5.684   8.170
39710SOL     OW21026  13.440   1.279   2.003
39710SOL    HW121027  13.361   1.330   1.987
39710SOL    HW221028  13.512   1.338   1.981
39711SOL     OW21029   8.179   9.306   7.600
39711SOL    HW121030   8.181   9.220   7.642
39711SOL    HW221031   8.086   9.329   7.597
39712SOL     OW21032  14.460   3.872   4.380
39712SOL    HW121033  14.530   3.893   4.441
39712SOL    HW221034  14.498   3.889   4.294
39713SOL     OW21035   1.730   5.497   7.609
39713SOL    HW121036   1.666   5.536   7.668
39713SOL    HW221037   1.714   5.402   7.615
39714SOL     OW21038   5.586   3.336   2.766
39714SOL    HW121039   5.572   3.430   2.759
39714SOL    HW221040   5.514   3.297   2.717
39715SOL     OW21041  14.856   2.194  14.453
39715SOL    HW121042  14.777   2.140  14.453
39715SOL    HW221043  14.855   2.237  14.368
39716SOL     OW21044   8.887  12.350   7.674
39716SOL    HW121045   8.978  12.321   7.679
39716SOL    HW221046   8.845  12.286   7.616
39717SOL     OW21047  10.232  11.256  10.540
39717SOL    HW121048  10.291  11.329  10.557
39717SOL    HW221049  10.255  11.191  10.606
39718SOL     OW21050   2.918   8.277   4.084
39718SOL    HW121051   2.860   8.210   4.048
39718SOL    HW221052   2.993   8.278   4.024
39719SOL     OW21053   6.179   5.692   0.178
39719SOL    HW121054   6.249   5.743   0.136
39719SOL    HW221055   6.192   5.707   0.271
39720SOL     OW21056   1.198  10.067  12.864
39720SOL    HW121057   1.167  10.151  12.829
39720SOL    HW221058   1.275  10.047  12.811
39721SOL     OW21059  12.431   5.705   3.221
39721SOL    HW121060  12.390   5.673   3.301
39721SOL    HW221061  12.514   5.744   3.249
39722SOL     OW21062  12.280   9.232   2.259
39722SOL    HW121063  12.283   9.325   2.236
39722SOL    HW221064  12.224   9.192   2.193
39723SOL     OW21065  10.878   0.949   5.943
39723SOL    HW121066  10.965   0.916   5.968
39723SOL    HW221067  10.884   1.044   5.957
39724SOL     OW21068  14.172   8.221   6.930
39724SOL    HW121069  14.262   8.254   6.930
39724SOL    HW221070  14.178   8.135   6.889
39725SOL     OW21071   6.594   6.326   0.362
39725SOL    HW121072   6.528   6.259   0.348
39725SOL    HW221073   6.555   6.406   0.326
39726SOL     OW21074  10.888   7.249  14.713
39726SOL    HW121075  10.823   7.199  14.762
39726SOL    HW221076  10.913   7.321  14.770
39727SOL     OW21077   7.694  10.502  14.267
39727SOL    HW121078   7.612  10.478  14.223
39727SOL    HW221079   7.665  10.547  14.347
39728SOL     OW21080   6.633   8.623   0.271
39728SOL    HW121081   6.572   8.656   0.205
39728SOL    HW221082   6.631   8.528   0.259
39729SOL     OW21083   4.332   9.895   2.990
39729SOL    HW121084   4.341   9.988   2.969
39729SOL    HW221085   4.240   9.885   3.016
39730SOL     OW21086  10.742   5.575  12.062
39730SOL    HW121087  10.702   5.653  12.023
39730SOL    HW221088  10.741   5.592  12.156
39731SOL     OW21089   2.850   4.840   2.007
39731SOL    HW121090   2.843   4.783   2.083
39731SOL    HW221091   2.763   4.880   1.999
39732SOL     OW21092  14.855  14.042  12.539
39732SOL    HW121093  14.781  14.007  12.588
39732SOL    HW221094   0.032  14.086  12.604
39733SOL     OW21095   9.774   5.968   9.031
39733SOL    HW121096   9.841   5.937   8.969
39733SOL    HW221097   9.823   6.011   9.100
39734SOL     OW21098  13.593   8.520   7.118
39734SOL    HW121099  13.518   8.459   7.115
39734SOL    HW221100  13.631   8.506   7.205
39735SOL     OW21101   6.808   0.990   1.509
39735SOL    HW121102   6.800   0.987   1.413
39735SOL    HW221103   6.735   0.937   1.541
39736SOL     OW21104   6.729   6.217  10.874
39736SOL    HW121105   6.706   6.309  10.859
39736SOL    HW221106   6.817   6.208  10.837
39737SOL     OW21107  13.441  11.748  10.287
39737SOL    HW121108  13.464  11.691  10.361
39737SOL    HW221109  13.431  11.835  10.326
39738SOL     OW21110   8.181   0.640  10.634
39738SOL    HW121111   8.270   0.668  10.652
39738SOL    HW221112   8.188   0.583  10.558
39739SOL     OW21113   5.125   3.098  12.875
39739SOL    HW121114   5.200   3.156  12.885
39739SOL    HW221115   5.049   3.153  12.892
39740SOL     OW21116  13.459   1.627  11.941
39740SOL    HW121117  13.375   1.582  11.928
39740SOL    HW221118  13.491   1.593  12.025
39741SOL     OW21119   9.416   9.303  11.440
39741SOL    HW121120   9.370   9.242  11.383
39741SOL    HW221121   9.488   9.337  11.386
39742SOL     OW21122  12.906   0.562  10.716
39742SOL    HW121123  12.811   0.574  10.716
39742SOL    HW221124  12.923   0.505  10.792
39743SOL     OW21125   7.403   1.094  13.243
39743SOL    HW121126   7.329   1.110  13.183
39743SOL    HW221127   7.463   1.039  13.193
39744SOL     OW21128   3.878   1.926  11.548
39744SOL    HW121129   3.896   1.879  11.629
39744SOL    HW221130   3.954   1.909  11.493
39745SOL     OW21131  13.091   6.520   0.155
39745SOL    HW121132  13.061   6.561   0.073
39745SOL    HW221133  13.183   6.497   0.138
39746SOL     OW21134  14.360   9.268  12.333
39746SOL    HW121135  14.371   9.183  12.374
39746SOL    HW221136  14.363   9.250  12.239
39747SOL     OW21137  13.178   7.379  11.249
39747SOL    HW121138  13.189   7.472  11.271
39747SOL    HW221139  13.239   7.364  11.177
39748SOL     OW21140  11.645   2.691   7.947
39748SOL    HW121141  11.696   2.688   7.867
39748SOL    HW221142  11.670   2.612   7.995
39749SOL     OW21143   7.387   8.839  13.753
39749SOL    HW121144   7.336   8.762  13.727
39749SOL    HW221145   7.330   8.914  13.732
39750SOL     OW21146  13.262   9.809   9.229
39750SOL    HW121147  13.209   9.748   9.280
39750SOL    HW221148  13.212   9.891   9.229
39751SOL     OW21149  13.250  13.254   6.670
39751SOL    HW121150  13.271  13.165   6.699
39751SOL    HW221151  13.328  13.305   6.690
39752SOL     OW21152  14.557   4.269  14.564
39752SOL    HW121153  14.596   4.357  14.566
39752SOL    HW221154  14.527   4.259  14.474
39753SOL     OW21155   8.061   7.564   3.211
39753SOL    HW121156   8.102   7.626   3.271
39753SOL    HW221157   8.061   7.481   3.258
39754SOL     OW21158   5.092   3.136   6.422
39754SOL    HW121159   5.095   3.192   6.500
39754SOL    HW221160   5.093   3.047   6.457
39755SOL     OW21161  10.979   2.507   6.128
39755SOL    HW121162  10.949   2.504   6.038
39755SOL    HW221163  11.074   2.492   6.123
39756SOL     OW21164  10.291   8.812   8.717
39756SOL    HW121165  10.196   8.820   8.709
39756SOL    HW221166  10.304   8.748   8.788
39757SOL     OW21167  12.552   5.882  11.600
39757SOL    HW121168  12.464   5.921  11.600
39757SOL    HW221169  12.593   5.915  11.679
39758SOL     OW21170   0.938   2.980   3.964
39758SOL    HW121171   0.875   3.031   4.014
39758SOL    HW221172   0.994   2.939   4.030
39759SOL     OW21173   5.594  14.826  12.651
39759SOL    HW121174   5.576   0.013  12.720
39759SOL    HW221175   5.512  14.778  12.642
39760SOL     OW21176   2.435  11.843  14.408
39760SOL    HW121177   2.487  11.788  14.350
39760SOL    HW221178   2.438  11.930  14.368
39761SOL     OW21179  10.145   9.519   5.273
39761SOL    HW121180  10.093   9.502   5.352
39761SOL    HW221181  10.236   9.518   5.304
39762SOL     OW21182   2.115   7.638   8.473
39762SOL    HW121183   2.155   7.638   8.386
39762SOL    HW221184   2.120   7.729   8.503
39763SOL     OW21185  10.299  10.599  13.007
39763SOL    HW121186  10.252  10.547  13.072
39763SOL    HW221187  10.264  10.688  13.018
39764SOL     OW21188   6.667   1.842   5.609
39764SOL    HW121189   6.643   1.774   5.546
39764SOL    HW221190   6.634   1.923   5.570
39765SOL     OW21191  11.041  13.404  13.346
39765SOL    HW121192  10.948  13.383  13.333
39765SOL    HW221193  11.044  13.450  13.430
39766SOL     OW21194   9.937  13.131   3.523
39766SOL    HW121195   9.919  13.060   3.461
39766SOL    HW221196  10.005  13.183   3.480
39767SOL     OW21197   6.706  13.175   9.794
39767SOL    HW121198   6.689  13.087   9.826
39767SOL    HW221199   6.707  13.230   9.872
39768SOL     OW21200   0.050  10.407   7.262
39768SOL    HW121201   0.129  10.460   7.251
39768SOL    HW221202   0.009  10.407   7.175
39769SOL     OW21203  12.558  12.318  14.426
39769SOL    HW121204  12.586  12.261  14.498
39769SOL    HW221205  12.462  12.310  14.426
39770SOL     OW21206   8.550   6.626  11.221
39770SOL    HW121207   8.613   6.667  11.163
39770SOL    HW221208   8.471   6.679  11.213
39771SOL     OW21209   5.903   3.053   5.575
39771SOL    HW121210   5.900   3.015   5.488
39771SOL    HW221211   5.978   3.010   5.618
39772SOL     OW21212  12.545  13.923   5.948
39772SOL    HW121213  12.587  13.837   5.956
39772SOL    HW221214  12.615  13.981   5.917
39773SOL     OW21215  14.238   1.273   6.925
39773SOL    HW121216  14.160   1.247   6.973
39773SOL    HW221217  14.237   1.368   6.925
39774SOL     OW21218   6.047   4.053   3.474
39774SOL    HW121219   6.007   3.974   3.436
39774SOL    HW221220   5.973   4.111   3.492
39775SOL     OW21221   4.022   5.884  12.822
39775SOL    HW121222   4.037   5.822  12.893
39775SOL    HW221223   4.080   5.855  12.752
39776SOL     OW21224   2.661  12.483   0.919
39776SOL    HW121225   2.635  12.533   0.841
39776SOL    HW221226   2.706  12.406   0.883
39777SOL     OW21227  13.957   7.034   8.632
39777SOL    HW121228  13.915   7.117   8.609
39777SOL    HW221229  14.047   7.043   8.599
39778SOL     OW21230  14.375   1.349  11.463
39778SOL    HW121231  14.388   1.401  11.543
39778SOL    HW221232  14.370   1.414  11.393
39779SOL     OW21233  10.118   1.978   6.855
39779SOL    HW121234  10.056   1.969   6.783
39779SOL    HW221235  10.076   1.934   6.929
39780SOL     OW21236   0.593   1.512   2.669
39780SOL    HW121237   0.677   1.486   2.706
39780SOL    HW221238   0.544   1.430   2.663
39781SOL     OW21239   2.030  13.346  10.799
39781SOL    HW121240   2.030  13.440  10.814
39781SOL    HW221241   2.107  13.330  10.745
39782SOL     OW21242  11.962   1.312  13.810
39782SOL    HW121243  12.044   1.268  13.829
39782SOL    HW221244  11.959   1.320  13.715
39783SOL     OW21245  12.323  13.791   5.525
39783SOL    HW121246  12.341  13.881   5.550
39783SOL    HW221247  12.241  13.795   5.476
39784SOL     OW21248   0.841   7.102   6.387
39784SOL    HW121249   0.823   7.101   6.481
39784SOL    HW221250   0.756   7.083   6.346
39785SOL     OW21251   4.228  12.540   3.631
39785SOL    HW121252   4.195  12.617   3.677
39785SOL    HW221253   4.197  12.466   3.683
39786SOL     OW21254   0.017   7.438   2.008
39786SOL    HW121255   0.052   7.516   2.052
39786SOL    HW221256  14.872   7.469   1.920
39787SOL     OW21257   2.145   8.757   4.465
39787SOL    HW121258   2.157   8.704   4.386
39787SOL    HW221259   2.174   8.845   4.440
39788SOL     OW21260   4.531   4.189   4.645
39788SOL    HW121261   4.466   4.259   4.639
39788SOL    HW221262   4.555   4.171   4.554
39789SOL     OW21263   2.860   0.182   2.307
39789SOL    HW121264   2.940   0.192   2.358
39789SOL    HW221265   2.891   0.163   2.218
39790SOL     OW21266  12.160   8.493  13.003
39790SOL    HW121267  12.222   8.557  13.038
39790SOL    HW221268  12.077   8.514  13.046
39791SOL     OW21269  14.116   9.344   4.689
39791SOL    HW121270  14.177   9.279   4.654
39791SOL    HW221271  14.055   9.293   4.742
39792SOL     OW21272  10.204   4.081   4.312
39792SOL    HW121273  10.205   4.160   4.366
39792SOL    HW221274  10.273   4.026   4.348
39793SOL     OW21275   2.155   8.447  12.869
39793SOL    HW121276   2.241   8.407  12.868
39793SOL    HW221277   2.170   8.537  12.840
39794SOL     OW21278   9.591   7.122   1.486
39794SOL    HW121279   9.615   7.169   1.565
39794SOL    HW221280   9.501   7.150   1.469
39795SOL     OW21281  10.104   1.777   6.529
39795SOL    HW121282  10.130   1.726   6.606
39795SOL    HW221283  10.009   1.786   6.537
39796SOL     OW21284  11.907  11.617   6.289
39796SOL    HW121285  11.812  11.626   6.303
39796SOL    HW221286  11.943  11.699   6.321
39797SOL     OW21287  13.804   5.669   5.261
39797SOL    HW121288  13.861   5.664   5.338
39797SOL    HW221289  13.749   5.746   5.276
39798SOL     OW21290   3.881   4.745   0.403
39798SOL    HW121291   3.973   4.756   0.427
39798SOL    HW221292   3.851   4.833   0.382
39799SOL     OW21293  13.175   3.985  11.787
39799SOL    HW121294  13.084   3.955  11.784
39799SOL    HW221295  13.226   3.910  11.756
39800SOL     OW21296  14.718   3.081  11.897
39800SOL    HW121297  14.735   3.034  11.816
39800SOL    HW221298  14.726   3.173  11.874
39801SOL     OW21299   3.069   4.524   2.240
39801SOL    HW121300   3.048   4.615   2.220
39801SOL    HW221301   3.023   4.507   2.322
39802SOL     OW21302   4.207   3.497   4.165
39802SOL    HW121303   4.276   3.432   4.152
39802SOL    HW221304   4.229   3.567   4.103
39803SOL     OW21305   8.203   4.249  10.708
39803SOL    HW121306   8.198   4.164  10.753
39803SOL    HW221307   8.209   4.226  10.616
39804SOL     OW21308   0.380   4.696   9.936
39804SOL    HW121309   0.336   4.628   9.986
39804SOL    HW221310   0.312   4.759   9.915
39805SOL     OW21311   7.800  12.730   0.030
39805SOL    HW121312   7.860  12.803   0.043
39805SOL    HW221313   7.808  12.678   0.111
39806SOL     OW21314   1.651   1.257  11.926
39806SOL    HW121315   1.561   1.250  11.959
39806SOL    HW221316   1.670   1.170  11.889
39807SOL     OW21317   4.439   1.036   3.700
39807SOL    HW121318   4.388   1.087   3.638
39807SOL    HW221319   4.380   0.967   3.730
39808SOL     OW21320  14.230   1.386   9.610
39808SOL    HW121321  14.193   1.424   9.690
39808SOL    HW221322  14.287   1.455   9.575
39809SOL     OW21323  10.292   2.708  13.189
39809SOL    HW121324  10.295   2.665  13.103
39809SOL    HW221325  10.354   2.781  13.182
39810SOL     OW21326  10.576  12.392  12.831
39810SOL    HW121327  10.482  12.378  12.816
39810SOL    HW221328  10.579  12.459  12.900
39811SOL     OW21329   2.783   0.627   4.349
39811SOL    HW121330   2.755   0.647   4.260
39811SOL    HW221331   2.777   0.710   4.396
39812SOL     OW21332   3.515   9.935  12.669
39812SOL    HW121333   3.596   9.889  12.648
39812SOL    HW221334   3.543  10.021  12.699
39813SOL     OW21335   7.070   6.977   0.564
39813SOL    HW121336   7.009   6.960   0.492
39813SOL    HW221337   7.154   6.991   0.523
39814SOL     OW21338   8.307   8.316  10.124
39814SOL    HW121339   8.350   8.247  10.175
39814SOL    HW221340   8.237   8.347  10.181
39815SOL     OW21341  12.070   4.540   6.811
39815SOL    HW121342  11.994   4.500   6.769
39815SOL    HW221343  12.059   4.634   6.797
39816SOL     OW21344   1.272   3.904   0.113
39816SOL    HW121345   1.276   3.816   0.075
39816SOL    HW221346   1.263   3.962   0.038
39817SOL     OW21347   8.014   3.059   8.649
39817SOL    HW121348   8.035   3.145   8.612
39817SOL    HW221349   8.022   2.998   8.576
39818SOL     OW21350  10.793  13.509   7.372
39818SOL    HW121351  10.744  13.483   7.450
39818SOL    HW221352  10.884  13.486   7.393
39819SOL     OW21353   5.414  13.363   1.361
39819SOL    HW121354   5.334  13.311   1.370
39819SOL    HW221355   5.474  13.307   1.314
39820SOL     OW21356   8.338  12.085   6.103
39820SOL    HW121357   8.285  12.143   6.049
39820SOL    HW221358   8.372  12.141   6.173
39821SOL     OW21359   3.272  10.025  14.203
39821SOL    HW121360   3.344   9.965  14.182
39821SOL    HW221361   3.240  10.054  14.117
39822SOL     OW21362   9.763   8.797   4.239
39822SOL    HW121363   9.795   8.803   4.329
39822SOL    HW221364   9.770   8.886   4.205
39823SOL     OW21365   3.164  13.576   2.589
39823SOL    HW121366   3.252  13.540   2.603
39823SOL    HW221367   3.134  13.534   2.508
39824SOL     OW21368   1.163  12.658   3.412
39824SOL    HW121369   1.099  12.587   3.406
39824SOL    HW221370   1.221  12.632   3.483
39825SOL     OW21371   4.221   7.143   7.110
39825SOL    HW121372   4.247   7.072   7.169
39825SOL    HW221373   4.179   7.208   7.167
39826SOL     OW21374   9.359   2.254  10.209
39826SOL    HW121375   9.315   2.324  10.161
39826SOL    HW221376   9.310   2.175  10.186
39827SOL     OW21377   3.985   5.513  13.564
39827SOL    HW121378   3.990   5.545  13.654
39827SOL    HW221379   3.935   5.431  13.571
39828SOL     OW21380   3.546   7.820   7.071
39828SOL    HW121381   3.618   7.877   7.095
39828SOL    HW221382   3.518   7.781   7.154
39829SOL     OW21383   1.623   8.107   5.855
39829SOL    HW121384   1.541   8.081   5.897
39829SOL    HW221385   1.597   8.161   5.781
39830SOL     OW21386  11.037   0.111  10.102
39830SOL    HW121387  10.968   0.177  10.103
39830SOL    HW221388  11.108   0.152  10.053
39831SOL     OW21389  14.529   1.193  12.210
39831SOL    HW121390  14.555   1.160  12.124
39831SOL    HW221391  14.490   1.118  12.254
39832SOL     OW21392  12.973  12.694  12.823
39832SOL    HW121393  13.001  12.624  12.882
39832SOL    HW221394  12.954  12.768  12.881
39833SOL     OW21395   5.931  14.727   3.652
39833SOL    HW121396   5.913  14.719   3.745
39833SOL    HW221397   5.980  14.648   3.629
39834SOL     OW21398   5.820  11.749  12.700
39834SOL    HW121399   5.821  11.686  12.628
39834SOL    HW221400   5.731  11.745  12.734
39835SOL     OW21401  13.265   2.493   7.327
39835SOL    HW121402  13.239   2.405   7.355
39835SOL    HW221403  13.182   2.541   7.318
39836SOL     OW21404   6.799  11.642   2.628
39836SOL    HW121405   6.892  11.656   2.646
39836SOL    HW221406   6.771  11.723   2.584
39837SOL     OW21407   2.748   5.865   5.098
39837SOL    HW121408   2.757   5.940   5.156
39837SOL    HW221409   2.675   5.886   5.040
39838SOL     OW21410  11.588   0.213   5.382
39838SOL    HW121411  11.552   0.286   5.431
39838SOL    HW221412  11.622   0.153   5.449
39839SOL     OW21413  11.373   6.208   8.952
39839SOL    HW121414  11.291   6.256   8.963
39839SOL    HW221415  11.430   6.270   8.905
39840SOL     OW21416  10.637   6.176   0.254
39840SOL    HW121417  10.668   6.266   0.259
39840SOL    HW221418  10.618   6.162   0.161
39841SOL     OW21419  13.995   8.978  12.302
39841SOL    HW121420  13.990   9.073  12.314
39841SOL    HW221421  14.059   8.949  12.367
39842SOL     OW21422  13.193  11.815  14.565
39842SOL    HW121423  13.144  11.859  14.496
39842SOL    HW221424  13.137  11.821  14.642
39843SOL     OW21425   0.229  12.299   7.841
39843SOL    HW121426   0.146  12.314   7.887
39843SOL    HW221427   0.225  12.208   7.814
39844SOL     OW21428   7.419   5.931   1.892
39844SOL    HW121429   7.408   5.925   1.797
39844SOL    HW221430   7.512   5.914   1.906
39845SOL     OW21431   9.307   3.625   8.916
39845SOL    HW121432   9.391   3.671   8.907
39845SOL    HW221433   9.241   3.692   8.899
39846SOL     OW21434   5.177   4.181   2.433
39846SOL    HW121435   5.202   4.250   2.373
39846SOL    HW221436   5.090   4.152   2.403
39847SOL     OW21437  13.891   6.216   8.826
39847SOL    HW121438  13.848   6.209   8.911
39847SOL    HW221439  13.844   6.156   8.769
39848SOL     OW21440   5.544   1.711   3.271
39848SOL    HW121441   5.563   1.720   3.178
39848SOL    HW221442   5.605   1.643   3.301
39849SOL     OW21443   1.932   4.405   4.800
39849SOL    HW121444   1.974   4.404   4.886
39849SOL    HW221445   1.963   4.325   4.757
39850SOL     OW21446  12.895   4.783   0.680
39850SOL    HW121447  12.978   4.750   0.713
39850SOL    HW221448  12.907   4.878   0.676
39851SOL     OW21449   6.951  14.876  14.753
39851SOL    HW121450   6.977  14.851  14.664
39851SOL    HW221451   6.891   0.072  14.740
39852SOL     OW21452  12.860   5.308  13.669
39852SOL    HW121453  12.930   5.292  13.606
39852SOL    HW221454  12.874   5.241  13.737
39853SOL     OW21455   7.258   1.960  11.992
39853SOL    HW121456   7.176   2.005  11.975
39853SOL    HW221457   7.252   1.879  11.942
39854SOL     OW21458   1.097   2.516  11.188
39854SOL    HW121459   1.023   2.465  11.154
39854SOL    HW221460   1.173   2.479  11.143
39855SOL     OW21461  10.092  12.063   1.281
39855SOL    HW121462  10.025  12.073   1.349
39855SOL    HW221463  10.175  12.075   1.326
39856SOL     OW21464   7.910  14.846   6.034
39856SOL    HW121465   7.822  14.877   6.014
39856SOL    HW221466   7.968   0.029   5.988
39857SOL     OW21467   9.225  12.002   1.184
39857SOL    HW121468   9.272  12.055   1.248
39857SOL    HW221469   9.181  12.066   1.127
39858SOL     OW21470  13.262   0.368   8.314
39858SOL    HW121471  13.319   0.330   8.381
39858SOL    HW221472  13.223   0.293   8.271
39859SOL     OW21473   5.464  12.690   1.411
39859SOL    HW121474   5.494  12.683   1.320
39859SOL    HW221475   5.376  12.727   1.405
39860SOL     OW21476   8.557   2.883   7.384
39860SOL    HW121477   8.578   2.919   7.298
39860SOL    HW221478   8.497   2.811   7.367
39861SOL     OW21479   2.123   7.030   0.174
39861SOL    HW121480   2.195   7.045   0.113
39861SOL    HW221481   2.047   7.070   0.131
39862SOL     OW21482   5.641   2.848   1.496
39862SOL    HW121483   5.705   2.896   1.442
39862SOL    HW221484   5.688   2.769   1.523
39863SOL     OW21485   3.130   8.092   1.148
39863SOL    HW121486   3.123   8.156   1.077
39863SOL    HW221487   3.055   8.110   1.204
39864SOL     OW21488   1.677   6.458   1.504
39864SOL    HW121489   1.719   6.402   1.569
39864SOL    HW221490   1.584   6.433   1.507
39865SOL     OW21491   8.264  11.300  13.160
39865SOL    HW121492   8.353  11.284  13.131
39865SOL    HW221493   8.214  11.315  13.079
39866SOL     OW21494   1.128   8.761  13.497
39866SOL    HW121495   1.146   8.720  13.412
39866SOL    HW221496   1.128   8.855  13.478
39867SOL     OW21497  10.302   0.839   8.072
39867SOL    HW121498  10.352   0.763   8.103
39867SOL    HW221499  10.368   0.905   8.051
39868SOL     OW21500   0.593   4.937  10.713
39868SOL    HW121501   0.516   4.988  10.686
39868SOL    HW221502   0.569   4.902  10.799
39869SOL     OW21503   9.692   4.344  14.721
39869SOL    HW121504   9.642   4.369  14.798
39869SOL    HW221505   9.632   4.288  14.672
39870SOL     OW21506   5.094   9.671   0.268
39870SOL    HW121507   5.175   9.641   0.225
39870SOL    HW221508   5.051   9.590   0.297
39871SOL     OW21509   7.602   6.973   6.602
39871SOL    HW121510   7.575   6.997   6.691
39871SOL    HW221511   7.689   6.936   6.612
39872SOL     OW21512   2.656   1.008   4.779
39872SOL    HW121513   2.714   1.080   4.752
39872SOL    HW221514   2.714   0.932   4.783
39873SOL     OW21515   2.603   1.501  11.846
39873SOL    HW121516   2.586   1.574  11.905
39873SOL    HW221517   2.579   1.533  11.760
39874SOL     OW21518   1.727   6.923   4.977
39874SOL    HW121519   1.719   7.013   4.944
39874SOL    HW221520   1.655   6.914   5.039
39875SOL     OW21521  14.508   9.814   3.758
39875SOL    HW121522  14.560   9.839   3.681
39875SOL    HW221523  14.461   9.736   3.729
39876SOL     OW21524   5.776   8.915   8.100
39876SOL    HW121525   5.801   8.822   8.101
39876SOL    HW221526   5.681   8.914   8.105
39877SOL     OW21527   2.350  10.707  12.190
39877SOL    HW121528   2.410  10.642  12.152
39877SOL    HW221529   2.311  10.663  12.266
39878SOL     OW21530  12.699   4.710   7.188
39878SOL    HW121531  12.718   4.638   7.248
39878SOL    HW221532  12.618   4.684   7.144
39879SOL     OW21533   4.875   0.870  14.523
39879SOL    HW121534   4.924   0.952  14.518
39879SOL    HW221535   4.932   0.810  14.570
39880SOL     OW21536   4.484  13.820  10.332
39880SOL    HW121537   4.479  13.779  10.245
39880SOL    HW221538   4.533  13.758  10.385
39881SOL     OW21539   9.321  10.539  14.514
39881SOL    HW121540   9.406  10.555  14.471
39881SOL    HW221541   9.288  10.627  14.534
39882SOL     OW21542  13.959   3.357   8.347
39882SOL    HW121543  13.896   3.302   8.300
39882SOL    HW221544  14.005   3.405   8.278
39883SOL     OW21545  10.324   9.758   6.756
39883SOL    HW121546  10.383   9.793   6.689
39883SOL    HW221547  10.310   9.832   6.816
39884SOL     OW21548   3.203   8.390   7.725
39884SOL    HW121549   3.283   8.369   7.676
39884SOL    HW221550   3.133   8.376   7.662
39885SOL     OW21551   6.879   5.134   6.447
39885SOL    HW121552   6.820   5.210   6.456
39885SOL    HW221553   6.938   5.141   6.522
39886SOL     OW21554   4.360   5.939  11.812
39886SOL    HW121555   4.382   5.953  11.720
39886SOL    HW221556   4.328   5.849  11.816
39887SOL     OW21557   1.930   2.206  10.316
39887SOL    HW121558   1.869   2.157  10.371
39887SOL    HW221559   1.919   2.297  10.343
39888SOL     OW21560   3.836   9.617   2.195
39888SOL    HW121561   3.776   9.690   2.208
39888SOL    HW221562   3.848   9.613   2.100
39889SOL     OW21563   3.084   2.677  11.035
39889SOL    HW121564   3.058   2.741  11.101
39889SOL    HW221565   3.179   2.668  11.046
39890SOL     OW21566   2.349   5.807  11.593
39890SOL    HW121567   2.285   5.856  11.541
39890SOL    HW221568   2.313   5.718  11.597
39891SOL     OW21569  10.690   3.123   0.821
39891SOL    HW121570  10.661   3.167   0.900
39891SOL    HW221571  10.740   3.047   0.852
39892SOL     OW21572   9.576  13.275   8.285
39892SOL    HW121573   9.565  13.310   8.374
39892SOL    HW221574   9.492  13.294   8.242
39893SOL     OW21575   9.672   7.357   6.129
39893SOL    HW121576   9.609   7.288   6.110
39893SOL    HW221577   9.633   7.437   6.095
39894SOL     OW21578  10.921  12.514   9.189
39894SOL    HW121579  10.911  12.557   9.104
39894SOL    HW221580  11.004  12.467   9.183
39895SOL     OW21581   2.976   4.103  11.339
39895SOL    HW121582   2.974   4.081  11.246
39895SOL    HW221583   3.051   4.161  11.349
39896SOL     OW21584   6.287   6.255  14.410
39896SOL    HW121585   6.202   6.269  14.368
39896SOL    HW221586   6.324   6.180  14.364
39897SOL     OW21587  12.825   9.211   5.926
39897SOL    HW121588  12.738   9.238   5.956
39897SOL    HW221589  12.866   9.291   5.894
39898SOL     OW21590   2.105   3.273  10.229
39898SOL    HW121591   2.047   3.313  10.164
39898SOL    HW221592   2.144   3.198  10.183
39899SOL     OW21593  10.312   1.151  14.109
39899SOL    HW121594  10.342   1.185  14.025
39899SOL    HW221595  10.216   1.151  14.103
39900SOL     OW21596   6.032   3.632  14.413
39900SOL    HW121597   6.046   3.689  14.336
39900SOL    HW221598   5.938   3.634  14.428
39901SOL     OW21599   9.835  13.405  14.133
39901SOL    HW121600   9.859  13.434  14.221
39901SOL    HW221601   9.743  13.430  14.123
39902SOL     OW21602   2.732  14.764   8.077
39902SOL    HW121603   2.673  14.838   8.095
39902SOL    HW221604   2.772  14.787   7.993
39903SOL     OW21605   9.405   5.218   1.167
39903SOL    HW121606   9.342   5.199   1.098
39903SOL    HW221607   9.462   5.141   1.170
39904SOL     OW21608   3.504  10.513   3.850
39904SOL    HW121609   3.429  10.454   3.858
39904SOL    HW221610   3.534  10.526   3.940
39905SOL     OW21611   8.159   9.772   3.042
39905SOL    HW121612   8.178   9.767   3.136
39905SOL    HW221613   8.064   9.772   3.037
39906SOL     OW21614  14.716  10.821  11.224
39906SOL    HW121615  14.696  10.846  11.134
39906SOL    HW221616  14.668  10.884  11.277
39907SOL     OW21617   0.829   2.217   5.344
39907SOL    HW121618   0.839   2.163   5.422
39907SOL    HW221619   0.748   2.265   5.359
39908SOL     OW21620  11.589   8.938  14.677
39908SOL    HW121621  11.649   8.989  14.732
39908SOL    HW221622  11.636   8.856  14.661
39909SOL     OW21623   2.039   0.352  10.879
39909SOL    HW121624   2.073   0.400  10.955
39909SOL    HW221625   2.020   0.421  10.815
39910SOL     OW21626   6.539   9.938   2.707
39910SOL    HW121627   6.562   9.875   2.639
39910SOL    HW221628   6.495  10.008   2.659
39911SOL     OW21629  14.178   7.613  11.941
39911SOL    HW121630  14.114   7.672  11.981
39911SOL    HW221631  14.246   7.603  12.007
39912SOL     OW21632  12.546   1.215  11.722
39912SOL    HW121633  12.552   1.210  11.817
39912SOL    HW221634  12.540   1.124  11.694
39913SOL     OW21635   8.661  14.019  11.818
39913SOL    HW121636   8.663  14.094  11.878
39913SOL    HW221637   8.575  14.024  11.777
39914SOL     OW21638   4.467  13.135   8.968
39914SOL    HW121639   4.448  13.214   9.020
39914SOL    HW221640   4.562  13.128   8.970
39915SOL     OW21641  13.702   3.707   3.380
39915SOL    HW121642  13.651   3.723   3.301
39915SOL    HW221643  13.649   3.746   3.450
39916SOL     OW21644  10.691   9.499   6.518
39916SOL    HW121645  10.732   9.526   6.600
39916SOL    HW221646  10.614   9.449   6.545
39917SOL     OW21647  13.204   4.993   0.657
39917SOL    HW121648  13.249   4.993   0.572
39917SOL    HW221649  13.245   5.063   0.706
39918SOL     OW21650  10.196  11.353   7.656
39918SOL    HW121651  10.261  11.337   7.724
39918SOL    HW221652  10.125  11.292   7.675
39919SOL     OW21653   7.927  11.746   1.629
39919SOL    HW121654   7.869  11.814   1.595
39919SOL    HW221655   7.929  11.680   1.561
39920SOL     OW21656  13.834   9.236  13.409
39920SOL    HW121657  13.759   9.183  13.383
39920SOL    HW221658  13.910   9.183  13.386
39921SOL     OW21659  10.034  13.201  13.736
39921SOL    HW121660  10.043  13.246  13.820
39921SOL    HW221661   9.970  13.131  13.753
39922SOL     OW21662  13.355   3.192   1.463
39922SOL    HW121663  13.432   3.233   1.424
39922SOL    HW221664  13.290   3.193   1.393
39923SOL     OW21665   6.138   3.060  14.100
39923SOL    HW121666   6.114   3.015  14.019
39923SOL    HW221667   6.146   2.990  14.165
39924SOL     OW21668   2.064   3.097   0.956
39924SOL    HW121669   2.110   3.181   0.963
39924SOL    HW221670   2.077   3.070   0.865
39925SOL     OW21671   8.202   1.049   7.840
39925SOL    HW121672   8.197   1.143   7.857
39925SOL    HW221673   8.260   1.042   7.764
39926SOL     OW21674  10.051   0.177   7.454
39926SOL    HW121675  10.122   0.135   7.501
39926SOL    HW221676  10.020   0.246   7.513
39927SOL     OW21677  12.628   0.224   2.522
39927SOL    HW121678  12.615   0.292   2.456
39927SOL    HW221679  12.722   0.207   2.522
39928SOL     OW21680   0.430   1.531   9.611
39928SOL    HW121681   0.457   1.442   9.633
39928SOL    HW221682   0.417   1.530   9.516
39929SOL     OW21683   3.016  11.096   1.995
39929SOL    HW121684   3.036  11.002   1.990
39929SOL    HW221685   2.925  11.100   2.024
39930SOL     OW21686   7.484  11.365   5.339
39930SOL    HW121687   7.417  11.432   5.326
39930SOL    HW221688   7.477  11.308   5.263
39931SOL     OW21689  11.996  11.124   9.269
39931SOL    HW121690  11.991  11.198   9.330
39931SOL    HW221691  11.929  11.063   9.300
39932SOL     OW21692   1.482  10.482   8.825
39932SOL    HW121693   1.502  10.397   8.785
39932SOL    HW221694   1.552  10.540   8.793
39933SOL     OW21695   5.089  10.071   2.018
39933SOL    HW121696   5.081  10.053   2.111
39933SOL    HW221697   5.001  10.099   1.991
39934SOL     OW21698   7.396   1.793   6.367
39934SOL    HW121699   7.350   1.838   6.297
39934SOL    HW221700   7.391   1.700   6.344
39935SOL     OW21701   4.958  10.555   8.191
39935SOL    HW121702   5.019  10.490   8.155
39935SOL    HW221703   4.969  10.632   8.136
39936SOL     OW21704   0.732   8.447   6.541
39936SOL    HW121705   0.801   8.449   6.607
39936SOL    HW221706   0.749   8.523   6.485
39937SOL     OW21707  12.409   7.280   9.827
39937SOL    HW121708  12.368   7.200   9.858
39937SOL    HW221709  12.481   7.296   9.889
39938SOL     OW21710   8.756   2.065  12.376
39938SOL    HW121711   8.681   2.088  12.321
39938SOL    HW221712   8.719   2.013  12.448
39939SOL     OW21713  14.619   4.718   7.262
39939SOL    HW121714  14.536   4.673   7.249
39939SOL    HW221715  14.678   4.649   7.295
39940SOL     OW21716  12.538  11.631   0.818
39940SOL    HW121717  12.586  11.590   0.890
39940SOL    HW221718  12.456  11.582   0.812
39941SOL     OW21719   8.458   5.701   6.794
39941SOL    HW121720   8.420   5.714   6.880
39941SOL    HW221721   8.399   5.640   6.750
39942SOL     OW21722   3.243  14.451   9.719
39942SOL    HW121723   3.272  14.386   9.782
39942SOL    HW221724   3.199  14.401   9.650
39943SOL     OW21725   7.509   4.630  12.122
39943SOL    HW121726   7.465   4.659  12.042
39943SOL    HW221727   7.523   4.711  12.172
39944SOL     OW21728   8.338   1.746   8.214
39944SOL    HW121729   8.349   1.656   8.247
39944SOL    HW221730   8.388   1.800   8.275
39945SOL     OW21731   4.835  11.858  11.372
39945SOL    HW121732   4.835  11.855  11.467
39945SOL    HW221733   4.821  11.950  11.350
39946SOL     OW21734  12.387   0.137   1.129
39946SOL    HW121735  12.397   0.132   1.224
39946SOL    HW221736  12.443   0.210   1.103
39947SOL     OW21737   1.900   4.141   9.223
39947SOL    HW121738   1.969   4.095   9.176
39947SOL    HW221739   1.916   4.121   9.315
39948SOL     OW21740   3.996   7.127   6.417
39948SOL    HW121741   4.025   7.210   6.380
39948SOL    HW221742   4.038   7.123   6.503
39949SOL     OW21743  10.898   8.145   9.773
39949SOL    HW121744  10.807   8.138   9.802
39949SOL    HW221745  10.950   8.144   9.854
39950SOL     OW21746   5.928   2.866   7.098
39950SOL    HW121747   6.010   2.825   7.072
39950SOL    HW221748   5.928   2.952   7.057
39951SOL     OW21749   1.124   2.401   1.335
39951SOL    HW121750   1.197   2.463   1.328
39951SOL    HW221751   1.049   2.455   1.359
39952SOL     OW21752  13.597  11.532  11.409
39952SOL    HW121753  13.505  11.554  11.397
39952SOL    HW221754  13.642  11.579  11.338
39953SOL     OW21755   4.344   8.088   6.626
39953SOL    HW121756   4.423   8.036   6.615
39953SOL    HW221757   4.283   8.055   6.560
39954SOL     OW21758   7.136   0.076  11.074
39954SOL    HW121759   7.113  14.862  11.088
39954SOL    HW221760   7.053   0.118  11.051
39955SOL     OW21761  10.677  11.755   2.822
39955SOL    HW121762  10.623  11.686   2.782
39955SOL    HW221763  10.636  11.836   2.793
39956SOL     OW21764  14.219   9.854  14.082
39956SOL    HW121765  14.192   9.929  14.030
39956SOL    HW221766  14.272   9.800  14.023
39957SOL     OW21767   2.751   0.561  11.593
39957SOL    HW121768   2.806   0.633  11.561
39957SOL    HW221769   2.663   0.600  11.599
39958SOL     OW21770   5.531   1.117  12.874
39958SOL    HW121771   5.529   1.025  12.902
39958SOL    HW221772   5.525   1.167  12.956
39959SOL     OW21773  14.360   9.019   4.122
39959SOL    HW121774  14.344   9.110   4.146
39959SOL    HW221775  14.301   9.004   4.048
39960SOL     OW21776   4.829   3.689   5.962
39960SOL    HW121777   4.767   3.741   6.014
39960SOL    HW221778   4.779   3.660   5.886
39961SOL     OW21779  10.353   6.950   3.125
39961SOL    HW121780  10.406   6.875   3.152
39961SOL    HW221781  10.363   7.013   3.196
39962SOL     OW21782   0.116   3.389  10.855
39962SOL    HW121783   0.045   3.405  10.793
39962SOL    HW221784   0.172   3.324  10.811
39963SOL     OW21785  12.202   1.068  13.841
39963SOL    HW121786  12.195   1.114  13.925
39963SOL    HW221787  12.114   1.034  13.825
39964SOL     OW21788   3.965   3.311  12.835
39964SOL    HW121789   3.967   3.250  12.761
39964SOL    HW221790   3.972   3.398  12.795
39965SOL     OW21791  14.376  10.602   9.030
39965SOL    HW121792  14.306  10.556   8.984
39965SOL    HW221793  14.444  10.536   9.043
39966SOL     OW21794   4.570  10.073   6.908
39966SOL    HW121795   4.594  10.002   6.848
39966SOL    HW221796   4.534  10.029   6.984
39967SOL     OW21797  13.811   7.477  11.382
39967SOL    HW121798  13.879   7.497  11.446
39967SOL    HW221799  13.856   7.429  11.313
39968SOL     OW21800  11.190   6.565   6.716
39968SOL    HW121801  11.244   6.626   6.665
39968SOL    HW221802  11.176   6.609   6.800
39969SOL     OW21803   8.463   0.219  10.961
39969SOL    HW121804   8.409   0.241  10.885
39969SOL    HW221805   8.489   0.128  10.947
39970SOL     OW21806  10.013   2.603   6.207
39970SOL    HW121807   9.944   2.579   6.269
39970SOL    HW221808   9.972   2.595   6.121
39971SOL     OW21809   8.292   5.595   0.767
39971SOL    HW121810   8.379   5.579   0.802
39971SOL    HW221811   8.234   5.587   0.843
39972SOL     OW21812  12.890   0.424   2.068
39972SOL    HW121813  12.970   0.415   2.119
39972SOL    HW221814  12.919   0.418   1.977
39973SOL     OW21815   6.053  11.602   9.545
39973SOL    HW121816   6.089  11.605   9.634
39973SOL    HW221817   6.126  11.627   9.488
39974SOL     OW21818  12.904   3.707   1.270
39974SOL    HW121819  12.910   3.681   1.178
39974SOL    HW221820  12.914   3.625   1.319
39975SOL     OW21821  14.801   0.747   8.707
39975SOL    HW121822  14.746   0.777   8.780
39975SOL    HW221823  14.857   0.680   8.746
39976SOL     OW21824  13.707   0.511   1.992
39976SOL    HW121825  13.760   0.492   1.914
39976SOL    HW221826  13.648   0.437   2.000
39977SOL     OW21827  14.592   8.426   7.549
39977SOL    HW121828  14.582   8.450   7.641
39977SOL    HW221829  14.536   8.349   7.538
39978SOL     OW21830   7.802   8.807   3.592
39978SOL    HW121831   7.861   8.732   3.588
39978SOL    HW221832   7.858   8.883   3.579
39979SOL     OW21833   9.684  11.525  14.578
39979SOL    HW121834   9.614  11.508  14.642
39979SOL    HW221835   9.763  11.491  14.620
39980SOL     OW21836   8.555   4.839  10.193
39980SOL    HW121837   8.473   4.790  10.191
39980SOL    HW221838   8.580   4.847  10.101
39981SOL     OW21839  14.697   0.040   4.588
39981SOL    HW121840  14.753   0.077   4.657
39981SOL    HW221841  14.640  14.856   4.634
39982SOL     OW21842  11.018   6.442   7.086
39982SOL    HW121843  11.026   6.387   7.008
39982SOL    HW221844  11.062   6.524   7.062
39983SOL     OW21845  14.589  12.904   3.598
39983SOL    HW121846  14.619  12.933   3.512
39983SOL    HW221847  14.561  12.985   3.642
39984SOL     OW21848  13.843   2.943  10.560
39984SOL    HW121849  13.907   2.878  10.532
39984SOL    HW221850  13.758   2.900  10.545
39985SOL     OW21851   2.230   0.430   7.262
39985SOL    HW121852   2.283   0.409   7.339
39985SOL    HW221853   2.236   0.526   7.254
39986SOL     OW21854   3.630   9.718  10.061
39986SOL    HW121855   3.617   9.654   9.991
39986SOL    HW221856   3.566   9.787  10.042
39987SOL     OW21857   8.521   0.058   1.449
39987SOL    HW121858   8.600   0.013   1.479
39987SOL    HW221859   8.553   0.126   1.389
39988SOL     OW21860   4.837  12.623  12.554
39988SOL    HW121861   4.837  12.528  12.546
39988SOL    HW221862   4.802  12.640  12.641
39989SOL     OW21863   8.238  13.671   8.140
39989SOL    HW121864   8.313  13.614   8.156
39989SOL    HW221865   8.170  13.613   8.107
39990SOL     OW21866   2.205   9.452  11.018
39990SOL    HW121867   2.171   9.495  10.940
39990SOL    HW221868   2.300   9.462  11.012
39991SOL     OW21869  10.976  14.216   5.411
39991SOL    HW121870  10.889  14.215   5.451
39991SOL    HW221871  10.977  14.296   5.358
39992SOL     OW21872  13.139   7.221   9.571
39992SOL    HW121873  13.195   7.231   9.649
39992SOL    HW221874  13.062   7.174   9.602
39993SOL     OW21875   6.195   4.782  11.669
39993SOL    HW121876   6.286   4.800  11.646
39993SOL    HW221877   6.177   4.696  11.630
39994SOL     OW21878  12.786   5.549   3.181
39994SOL    HW121879  12.772   5.642   3.201
39994SOL    HW221880  12.741   5.502   3.251
39995SOL     OW21881   9.311   1.356   6.637
39995SOL    HW121882   9.222   1.366   6.604
39995SOL    HW221883   9.364   1.415   6.583
39996SOL     OW21884   0.209   4.368  11.922
39996SOL    HW121885   0.117   4.345  11.937
39996SOL    HW221886   0.223   4.446  11.976
39997SOL     OW21887  10.097  13.383   3.505
39997SOL    HW121888  10.147  13.320   3.454
39997SOL    HW221889  10.161  13.449   3.531
39998SOL     OW21890   5.301   4.366   7.237
39998SOL    HW121891   5.308   4.400   7.148
39998SOL    HW221892   5.243   4.291   7.230
39999SOL     OW21893   4.027  10.553   9.407
39999SOL    HW121894   4.035  10.643   9.439
39999SOL    HW221895   4.026  10.499   9.486
40000SOL     OW21896   6.710   3.030   2.246
40000SOL    HW121897   6.616   3.012   2.248
40000SOL    HW221898   6.751   2.944   2.247
40001SOL     OW21899  13.780   5.370  10.235
40001SOL    HW121900  13.844   5.318  10.284
40001SOL    HW221901  13.697   5.354  10.281
40002SOL     OW21902  12.923   5.667  11.388
40002SOL    HW121903  12.902   5.577  11.412
40002SOL    HW221904  12.964   5.659  11.302
40003SOL     OW21905  14.604   7.005   9.953
40003SOL    HW121906  14.553   6.987  10.032
40003SOL    HW221907  14.540   7.034   9.888
40004SOL     OW21908   1.150   4.494   8.044
40004SOL    HW121909   1.215   4.484   7.975
40004SOL    HW221910   1.103   4.574   8.021
40005SOL     OW21911  14.464   2.434  12.384
40005SOL    HW121912  14.496   2.513  12.341
40005SOL    HW221913  14.370   2.450  12.397
40006SOL     OW21914  14.140   8.872  12.080
40006SOL    HW121915  14.151   8.890  12.173
40006SOL    HW221916  14.051   8.900  12.060
40007SOL     OW21917   1.655   2.695   6.008
40007SOL    HW121918   1.733   2.745   6.033
40007SOL    HW221919   1.650   2.625   6.073
40008SOL     OW21920   6.197   1.465  11.192
40008SOL    HW121921   6.181   1.559  11.195
40008SOL    HW221922   6.111   1.426  11.184
40009SOL     OW21923   0.436   5.181   9.430
40009SOL    HW121924   0.391   5.151   9.509
40009SOL    HW221925   0.497   5.248   9.461
40010SOL     OW21926   2.542   2.212  13.793
40010SOL    HW121927   2.625   2.166  13.804
40010SOL    HW221928   2.498   2.202  13.877
40011SOL     OW21929  11.057  13.004   2.374
40011SOL    HW121930  11.132  13.016   2.315
40011SOL    HW221931  11.025  13.093   2.390
40012SOL     OW21932   4.766   2.610   8.429
40012SOL    HW121933   4.840   2.637   8.374
40012SOL    HW221934   4.767   2.671   8.503
40013SOL     OW21935   1.159  10.533   2.735
40013SOL    HW121936   1.094  10.596   2.703
40013SOL    HW221937   1.131  10.450   2.698
40014SOL     OW21938  12.795  12.046   4.439
40014SOL    HW121939  12.714  12.097   4.431
40014SOL    HW221940  12.812  12.014   4.351
40015SOL     OW21941   1.351  11.533  13.882
40015SOL    HW121942   1.397  11.511  13.801
40015SOL    HW221943   1.400  11.607  13.918
40016SOL     OW21944  13.540   5.742  13.417
40016SOL    HW121945  13.593   5.811  13.457
40016SOL    HW221946  13.589   5.661  13.435
40017SOL     OW21947   0.764   1.518  13.067
40017SOL    HW121948   0.745   1.476  12.983
40017SOL    HW221949   0.706   1.594  13.069
40018SOL     OW21950  12.297   4.127  14.244
40018SOL    HW121951  12.343   4.107  14.326
40018SOL    HW221952  12.349   4.195  14.203
40019SOL     OW21953   6.208  12.504   8.350
40019SOL    HW121954   6.154  12.449   8.293
40019SOL    HW221955   6.274  12.541   8.292
40020SOL     OW21956   2.246   1.626   0.570
40020SOL    HW121957   2.278   1.569   0.640
40020SOL    HW221958   2.253   1.714   0.607
40021SOL     OW21959   3.365   9.035   6.123
40021SOL    HW121960   3.272   9.012   6.119
40021SOL    HW221961   3.387   9.062   6.033
40022SOL     OW21962   5.192   0.403   3.484
40022SOL    HW121963   5.265   0.461   3.506
40022SOL    HW221964   5.224   0.352   3.409
40023SOL     OW21965  14.092   5.381   2.621
40023SOL    HW121966  14.164   5.389   2.559
40023SOL    HW221967  14.118   5.308   2.678
40024SOL     OW21968   4.357  12.226  11.064
40024SOL    HW121969   4.428  12.172  11.100
40024SOL    HW221970   4.354  12.302  11.122
40025SOL     OW21971   4.419  10.778   5.991
40025SOL    HW121972   4.407  10.849   6.054
40025SOL    HW221973   4.331  10.762   5.955
40026SOL     OW21974   6.034  13.071   6.386
40026SOL    HW121975   5.952  13.021   6.389
40026SOL    HW221976   6.093  13.022   6.443
40027SOL     OW21977   8.082   7.172   7.354
40027SOL    HW121978   8.105   7.109   7.286
40027SOL    HW221979   8.008   7.133   7.399
40028SOL     OW21980   4.500  13.626  14.175
40028SOL    HW121981   4.465  13.652  14.260
40028SOL    HW221982   4.588  13.665  14.173
40029SOL     OW21983  12.204  13.690  14.837
40029SOL    HW121984  12.193  13.620   0.022
40029SOL    HW221985  12.146  13.668  14.764
40030SOL     OW21986  11.072  13.500  13.586
40030SOL    HW121987  11.004  13.502  13.653
40030SOL    HW221988  11.082  13.591  13.558
40031SOL     OW21989   4.250   6.796   9.218
40031SOL    HW121990   4.209   6.719   9.258
40031SOL    HW221991   4.344   6.780   9.227
40032SOL     OW21992   6.613   6.755   5.433
40032SOL    HW121993   6.651   6.684   5.381
40032SOL    HW221994   6.657   6.834   5.401
40033SOL     OW21995   4.236   7.283  10.613
40033SOL    HW121996   4.316   7.290  10.561
40033SOL    HW221997   4.242   7.355  10.675
40034SOL     OW21998   3.374  13.197  14.041
40034SOL    HW121999   3.444  13.262  14.037
40034SOL    HW222000   3.339  13.206  14.129
40035SOL     OW22001   3.735   3.277  10.844
40035SOL    HW122002   3.671   3.208  10.864
40035SOL    HW222003   3.807   3.261  10.904
40036SOL     OW22004   3.450   3.545   0.823
40036SOL    HW122005   3.421   3.462   0.785
40036SOL    HW222006   3.481   3.522   0.911
40037SOL     OW22007  11.783  14.856   0.018
40037SOL    HW122008  11.727   0.003  14.822
40037SOL    HW222009  11.744   0.022   0.094
40038SOL     OW22010  13.359   4.199   3.640
40038SOL    HW122011  13.336   4.106   3.631
40038SOL    HW222012  13.393   4.206   3.729
40039SOL     OW22013   3.819  14.042  13.121
40039SOL    HW122014   3.749  14.004  13.068
40039SOL    HW222015   3.779  14.062  13.205
40040SOL     OW22016  13.607  10.832   2.078
40040SOL    HW122017  13.639  10.922   2.089
40040SOL    HW222018  13.678  10.788   2.030
40041SOL     OW22019   7.814  12.162   9.771
40041SOL    HW122020   7.891  12.202   9.730
40041SOL    HW222021   7.764  12.236   9.805
40042SOL     OW22022   6.166  12.965  12.126
40042SOL    HW122023   6.136  12.875  12.116
40042SOL    HW222024   6.110  13.002  12.195
40043SOL     OW22025  13.664  10.545   2.404
40043SOL    HW122026  13.747  10.509   2.436
40043SOL    HW222027  13.681  10.639   2.393
40044SOL     OW22028   1.227   6.299   4.849
40044SOL    HW122029   1.195   6.211   4.872
40044SOL    HW222030   1.313   6.304   4.891
40045SOL     OW22031  11.769  13.743   5.763
40045SOL    HW122032  11.683  13.784   5.765
40045SOL    HW222033  11.751  13.649   5.757
40046SOL     OW22034  10.771   9.558   5.403
40046SOL    HW122035  10.713   9.633   5.407
40046SOL    HW222036  10.857   9.594   5.382
40047SOL     OW22037  13.444  14.701   6.730
40047SOL    HW122038  13.420  14.769   6.793
40047SOL    HW222039  13.490  14.635   6.782
40048SOL     OW22040  11.125   0.917   4.662
40048SOL    HW122041  11.032   0.932   4.678
40048SOL    HW222042  11.128   0.877   4.575
40049SOL     OW22043   2.786  14.517   2.955
40049SOL    HW122044   2.841  14.532   2.878
40049SOL    HW222045   2.787  14.422   2.966
40050SOL     OW22046  13.383  12.937   2.336
40050SOL    HW122047  13.440  13.009   2.365
40050SOL    HW222048  13.396  12.934   2.241
40051SOL     OW22049  14.129  11.482   1.027
40051SOL    HW122050  14.175  11.446   0.952
40051SOL    HW222051  14.141  11.577   1.021
40052SOL     OW22052   6.663   7.531   7.579
40052SOL    HW122053   6.707   7.611   7.607
40052SOL    HW222054   6.576   7.560   7.551
40053SOL     OW22055  10.921   9.589   3.244
40053SOL    HW122056  10.899   9.497   3.227
40053SOL    HW222057  10.858   9.616   3.311
40054SOL     OW22058   7.366  10.025   1.184
40054SOL    HW122059   7.391  10.031   1.276
40054SOL    HW222060   7.278  10.063   1.180
40055SOL     OW22061   7.515   7.697   5.314
40055SOL    HW122062   7.447   7.641   5.352
40055SOL    HW222063   7.467   7.766   5.268
40056SOL     OW22064  10.391  10.967  13.203
40056SOL    HW122065  10.359  10.952  13.292
40056SOL    HW222066  10.476  10.922  13.201
40057SOL     OW22067   1.212  12.792   5.538
40057SOL    HW122068   1.191  12.713   5.487
40057SOL    HW222069   1.256  12.759   5.616
40058SOL     OW22070   7.180   4.173  10.197
40058SOL    HW122071   7.238   4.236  10.239
40058SOL    HW222072   7.095   4.216  10.194
40059SOL     OW22073   5.244   7.785   5.595
40059SOL    HW122074   5.168   7.733   5.620
40059SOL    HW222075   5.283   7.737   5.521
40060SOL     OW22076   7.963  14.301   0.713
40060SOL    HW122077   8.005  14.248   0.780
40060SOL    HW222078   7.902  14.357   0.761
40061SOL     OW22079   9.389   5.054   3.410
40061SOL    HW122080   9.372   5.060   3.316
40061SOL    HW222081   9.424   4.965   3.422
40062SOL     OW22082   8.577  10.988   9.095
40062SOL    HW122083   8.618  11.046   9.160
40062SOL    HW222084   8.648  10.966   9.035
40063SOL     OW22085  11.502  14.628   6.773
40063SOL    HW122086  11.449  14.668   6.842
40063SOL    HW222087  11.446  14.629   6.695
40064SOL     OW22088  13.272   3.881   1.275
40064SOL    HW122089  13.179   3.898   1.294
40064SOL    HW222090  13.318   3.953   1.318
40065SOL     OW22091   4.309  10.239   9.499
40065SOL    HW122092   4.232  10.182   9.504
40065SOL    HW222093   4.294  10.292   9.420
40066SOL     OW22094   7.778  13.483   6.053
40066SOL    HW122095   7.849  13.474   5.989
40066SOL    HW222096   7.769  13.396   6.091
40067SOL     OW22097   9.831   4.599   8.759
40067SOL    HW122098   9.867   4.553   8.834
40067SOL    HW222099   9.870   4.556   8.683
40068SOL     OW22100  11.902   8.010   8.773
40068SOL    HW122101  11.923   7.926   8.814
40068SOL    HW222102  11.893   7.988   8.680
40069SOL     OW22103   8.755   3.650   0.373
40069SOL    HW122104   8.808   3.689   0.303
40069SOL    HW222105   8.716   3.573   0.334
40070SOL     OW22106  11.380  12.576   4.539
40070SOL    HW122107  11.393  12.620   4.455
40070SOL    HW222108  11.410  12.639   4.605
40071SOL     OW22109   7.006  10.345   9.420
40071SOL    HW122110   7.031  10.273   9.477
40071SOL    HW222111   6.986  10.303   9.336
40072SOL     OW22112  10.219  13.313   7.132
40072SOL    HW122113  10.188  13.398   7.102
40072SOL    HW222114  10.230  13.262   7.051
40073SOL     OW22115   2.911   2.506   6.126
40073SOL    HW122116   2.862   2.516   6.208
40073SOL    HW222117   2.843   2.489   6.060
40074SOL     OW22118   4.911   8.630  12.278
40074SOL    HW122119   4.915   8.599  12.368
40074SOL    HW222120   4.980   8.696  12.271
40075SOL     OW22121  14.151  10.382  12.391
40075SOL    HW122122  14.221  10.358  12.331
40075SOL    HW222123  14.070  10.363  12.343
40076SOL     OW22124   8.421   6.525   6.055
40076SOL    HW122125   8.423   6.482   5.969
40076SOL    HW222126   8.333   6.563   6.061
40077SOL     OW22127  12.174  14.712   3.175
40077SOL    HW122128  12.193  14.620   3.155
40077SOL    HW222129  12.209  14.760   3.100
40078SOL     OW22130  10.175   8.379  14.222
40078SOL    HW122131  10.105   8.350  14.164
40078SOL    HW222132  10.207   8.298  14.263
40079SOL     OW22133   7.991   1.539  14.242
40079SOL    HW122134   8.061   1.595  14.208
40079SOL    HW222135   7.934   1.524  14.166
40080SOL     OW22136   6.332  10.483   1.913
40080SOL    HW122137   6.271  10.503   1.984
40080SOL    HW222138   6.286  10.510   1.834
40081SOL     OW22139   0.585   6.946   4.976
40081SOL    HW122140   0.659   6.907   4.930
40081SOL    HW222141   0.513   6.886   4.962
40082SOL     OW22142   8.935  14.482  10.321
40082SOL    HW122143   8.840  14.471  10.322
40082SOL    HW222144   8.969  14.401  10.358
40083SOL     OW22145  13.047   9.266   1.626
40083SOL    HW122146  12.960   9.293   1.655
40083SOL    HW222147  13.068   9.324   1.553
40084SOL     OW22148  13.455   9.874   7.498
40084SOL    HW122149  13.484   9.799   7.446
40084SOL    HW222150  13.480   9.852   7.587
40085SOL     OW22151   1.983   9.197  11.364
40085SOL    HW122152   2.016   9.270  11.418
40085SOL    HW222153   2.056   9.135  11.361
40086SOL     OW22154   2.982   1.127  14.779
40086SOL    HW122155   2.972   1.057  14.714
40086SOL    HW222156   2.901   1.177  14.774
40087SOL     OW22157   9.389   3.570   1.654
40087SOL    HW122158   9.355   3.589   1.741
40087SOL    HW222159   9.449   3.642   1.635
40088SOL     OW22160   3.228  13.967  14.715
40088SOL    HW122161   3.188  14.017  14.643
40088SOL    HW222162   3.166  13.897  14.733
40089SOL     OW22163   1.235  13.126   4.216
40089SOL    HW122164   1.328  13.126   4.195
40089SOL    HW222165   1.231  13.152   4.308
40090SOL     OW22166  14.842  11.990   2.560
40090SOL    HW122167  14.776  12.037   2.509
40090SOL    HW222168  14.808  11.900   2.564
40091SOL     OW22169   5.435   8.378  10.916
40091SOL    HW122170   5.475   8.339  10.994
40091SOL    HW222171   5.399   8.303  10.868
40092SOL     OW22172  10.721   8.705  10.519
40092SOL    HW122173  10.811   8.739  10.513
40092SOL    HW222174  10.666   8.777  10.489
40093SOL     OW22175   8.221   2.197   8.573
40093SOL    HW122176   8.265   2.129   8.624
40093SOL    HW222177   8.269   2.201   8.491
40094SOL     OW22178   4.674   4.433  11.415
40094SOL    HW122179   4.701   4.371  11.483
40094SOL    HW222180   4.712   4.517  11.441
40095SOL     OW22181   4.906   2.865   3.374
40095SOL    HW122182   4.870   2.846   3.461
40095SOL    HW222183   5.000   2.850   3.384
40096SOL     OW22184   3.278  11.195   3.432
40096SOL    HW122185   3.230  11.273   3.459
40096SOL    HW222186   3.364  11.205   3.474
40097SOL     OW22187   2.103   6.347   1.587
40097SOL    HW122188   2.181   6.377   1.634
40097SOL    HW222189   2.136   6.308   1.507
40098SOL     OW22190   2.132   8.849   1.115
40098SOL    HW122191   2.072   8.800   1.059
40098SOL    HW222192   2.094   8.937   1.120
40099SOL     OW22193  13.410   7.987   2.123
40099SOL    HW122194  13.496   7.945   2.124
40099SOL    HW222195  13.348   7.914   2.121
40100SOL     OW22196   8.669  12.900  12.500
40100SOL    HW122197   8.606  12.917  12.570
40100SOL    HW222198   8.691  12.987  12.466
40101SOL     OW22199   9.629  13.472  14.619
40101SOL    HW122200   9.568  13.546  14.620
40101SOL    HW222201   9.681  13.482  14.699
40102SOL     OW22202   9.839   6.716   7.930
40102SOL    HW122203   9.896   6.660   7.982
40102SOL    HW222204   9.789   6.656   7.875
40103SOL     OW22205   3.422   0.743   0.857
40103SOL    HW122206   3.403   0.712   0.769
40103SOL    HW222207   3.376   0.828   0.863
40104SOL     OW22208   3.217  12.344   3.460
40104SOL    HW122209   3.192  12.256   3.432
40104SOL    HW222210   3.307  12.335   3.490
40105SOL     OW22211  10.722  12.044   5.907
40105SOL    HW122212  10.722  11.971   5.969
40105SOL    HW222213  10.811  12.047   5.873
40106SOL     OW22214   1.599   5.467   2.944
40106SOL    HW122215   1.652   5.522   3.002
40106SOL    HW222216   1.510   5.476   2.977
40107SOL     OW22217   3.907   4.463  11.860
40107SOL    HW122218   3.823   4.423  11.835
40107SOL    HW222219   3.948   4.400  11.918
40108SOL     OW22220   5.313   4.799   2.765
40108SOL    HW122221   5.222   4.770   2.757
40108SOL    HW222222   5.365   4.719   2.753
40109SOL     OW22223   7.245   0.446  10.964
40109SOL    HW122224   7.278   0.532  10.937
40109SOL    HW222225   7.202   0.463  11.048
40110SOL     OW22226   6.557  14.592   6.126
40110SOL    HW122227   6.581  14.607   6.217
40110SOL    HW222228   6.640  14.582   6.080
40111SOL     OW22229   0.203  14.365  12.554
40111SOL    HW122230   0.166  14.450  12.578
40111SOL    HW222231   0.187  14.309  12.629
40112SOL     OW22232  12.823   3.730   4.095
40112SOL    HW122233  12.877   3.653   4.114
40112SOL    HW222234  12.882   3.791   4.051
40113SOL     OW22235   2.789   8.676  10.914
40113SOL    HW122236   2.844   8.753  10.930
40113SOL    HW222237   2.713   8.688  10.972
40114SOL     OW22238  10.681   7.099  11.693
40114SOL    HW122239  10.634   7.079  11.774
40114SOL    HW222240  10.622   7.155  11.643
40115SOL     OW22241   5.569   2.157   1.984
40115SOL    HW122242   5.626   2.081   1.982
40115SOL    HW222243   5.595   2.205   2.063
40116SOL     OW22244  14.832   0.978   6.901
40116SOL    HW122245   0.022   0.914   6.920
40116SOL    HW222246  14.752   0.941   6.938
40117SOL     OW22247  12.335   6.371   9.867
40117SOL    HW122248  12.315   6.357   9.775
40117SOL    HW222249  12.311   6.463   9.884
40118SOL     OW22250   0.930   8.063  14.692
40118SOL    HW122251   0.915   8.008  14.769
40118SOL    HW222252   1.024   8.053  14.674
40119SOL     OW22253   8.316   0.675   1.052
40119SOL    HW122254   8.284   0.757   1.015
40119SOL    HW222255   8.348   0.698   1.139
40120SOL     OW22256   3.151  13.853  11.981
40120SOL    HW122257   3.192  13.895  11.906
40120SOL    HW222258   3.223  13.815  12.031
40121SOL     OW22259   0.612  10.635   1.679
40121SOL    HW122260   0.703  10.638   1.709
40121SOL    HW222261   0.561  10.665   1.754
40122SOL     OW22262   2.305   4.795   0.408
40122SOL    HW122263   2.258   4.720   0.373
40122SOL    HW222264   2.395   4.764   0.419
40123SOL     OW22265   3.226  10.994  13.553
40123SOL    HW122266   3.149  10.976  13.499
40123SOL    HW222267   3.218  10.932  13.626
40124SOL     OW22268   2.566  14.078   6.310
40124SOL    HW122269   2.539  13.987   6.319
40124SOL    HW222270   2.548  14.117   6.396
40125SOL     OW22271  12.015   6.498  14.508
40125SOL    HW122272  12.022   6.573  14.450
40125SOL    HW222273  11.958   6.437  14.462
40126SOL     OW22274   4.751  12.776  14.438
40126SOL    HW122275   4.732  12.711  14.370
40126SOL    HW222276   4.701  12.853  14.412
40127SOL     OW22277  12.323   3.262  12.557
40127SOL    HW122278  12.363   3.349  12.568
40127SOL    HW222279  12.229   3.277  12.567
40128SOL     OW22280   5.458  12.366  10.999
40128SOL    HW122281   5.391  12.350  10.933
40128SOL    HW222282   5.438  12.305  11.069
40129SOL     OW22283   5.542   6.884   4.516
40129SOL    HW122284   5.553   6.872   4.422
40129SOL    HW222285   5.460   6.840   4.536
40130SOL     OW22286   4.226   1.522  12.976
40130SOL    HW122287   4.152   1.464  12.957
40130SOL    HW222288   4.249   1.561  12.892
40131SOL     OW22289  12.306   2.839   6.320
40131SOL    HW122290  12.316   2.932   6.299
40131SOL    HW222291  12.211   2.826   6.323
40132SOL     OW22292   0.268   8.537   8.870
40132SOL    HW122293   0.238   8.474   8.804
40132SOL    HW222294   0.195   8.597   8.880
40133SOL     OW22295  14.480   4.887   1.549
40133SOL    HW122296  14.465   4.845   1.634
40133SOL    HW222297  14.558   4.844   1.515
40134SOL     OW22298  12.640  10.833   4.490
40134SOL    HW122299  12.684  10.901   4.438
40134SOL    HW222300  12.658  10.859   4.581
40135SOL     OW22301  12.139  10.833  13.189
40135SOL    HW122302  12.063  10.814  13.134
40135SOL    HW222303  12.144  10.760  13.250
40136SOL     OW22304  10.607   4.860   9.214
40136SOL    HW122305  10.653   4.777   9.229
40136SOL    HW222306  10.662   4.907   9.151
40137SOL     OW22307  13.153  14.867   7.185
40137SOL    HW122308  13.168   0.073   7.228
40137SOL    HW222309  13.116  14.811   7.254
40138SOL     OW22310   7.906  10.519   3.774
40138SOL    HW122311   7.974  10.530   3.708
40138SOL    HW222312   7.917  10.594   3.832
40139SOL     OW22313   6.217  10.653   5.803
40139SOL    HW122314   6.211  10.571   5.854
40139SOL    HW222315   6.133  10.659   5.758
40140SOL     OW22316   7.597  12.091  14.752
40140SOL    HW122317   7.586  12.167  14.810
40140SOL    HW222318   7.589  12.015  14.810
40141SOL     OW22319  13.811  13.393  12.132
40141SOL    HW122320  13.804  13.476  12.085
40141SOL    HW222321  13.903  13.387  12.156
40142SOL     OW22322   7.959   9.310   3.789
40142SOL    HW122323   8.026   9.256   3.747
40142SOL    HW222324   7.960   9.284   3.881
40143SOL     OW22325   5.443  13.608  10.466
40143SOL    HW122326   5.394  13.595  10.548
40143SOL    HW222327   5.376  13.628  10.401
40144SOL     OW22328  12.142   4.275  12.772
40144SOL    HW122329  12.188   4.273  12.857
40144SOL    HW222330  12.119   4.367  12.760
40145SOL     OW22331  13.012   0.015   3.402
40145SOL    HW122332  13.001  14.805   3.367
40145SOL    HW222333  13.049   0.066   3.329
40146SOL     OW22334   9.427   2.093   7.831
40146SOL    HW122335   9.494   2.026   7.842
40146SOL    HW222336   9.476   2.174   7.816
40147SOL     OW22337  12.871   4.053   4.386
40147SOL    HW122338  12.854   4.146   4.373
40147SOL    HW222339  12.956   4.038   4.346
40148SOL     OW22340  11.918   5.065   4.928
40148SOL    HW122341  11.908   4.972   4.948
40148SOL    HW222342  11.908   5.110   5.012
40149SOL     OW22343   6.610  11.502   1.874
40149SOL    HW122344   6.664  11.565   1.920
40149SOL    HW222345   6.610  11.425   1.930
40150SOL     OW22346   4.367   2.123   6.011
40150SOL    HW122347   4.282   2.079   6.008
40150SOL    HW222348   4.369   2.166   6.096
40151SOL     OW22349   7.702  14.005   5.847
40151SOL    HW122350   7.792  14.002   5.816
40151SOL    HW222351   7.695  13.931   5.907
40152SOL     OW22352   9.356  13.922   7.357
40152SOL    HW122353   9.299  13.847   7.376
40152SOL    HW222354   9.296  13.997   7.356
40153SOL     OW22355   6.890   9.883   8.641
40153SOL    HW122356   6.929   9.809   8.688
40153SOL    HW222357   6.828   9.842   8.580
40154SOL     OW22358   1.076  11.244   9.373
40154SOL    HW122359   0.996  11.192   9.375
40154SOL    HW222360   1.139  11.193   9.425
40155SOL     OW22361   7.173  10.496  10.224
40155SOL    HW122362   7.128  10.498  10.308
40155SOL    HW222363   7.237  10.426  10.232
40156SOL     OW22364   8.709  11.725   2.400
40156SOL    HW122365   8.615  11.718   2.419
40156SOL    HW222366   8.750  11.735   2.486
40157SOL     OW22367  10.120   3.139  11.927
40157SOL    HW122368  10.081   3.217  11.886
40157SOL    HW222369  10.050   3.103  11.980
40158SOL     OW22370   9.254   6.898  13.419
40158SOL    HW122371   9.349   6.909  13.423
40158SOL    HW222372   9.241   6.805  13.400
40159SOL     OW22373   6.840   6.571   7.760
40159SOL    HW122374   6.839   6.618   7.843
40159SOL    HW222375   6.920   6.517   7.764
40160SOL     OW22376   3.109  14.690   5.165
40160SOL    HW122377   3.133  14.782   5.178
40160SOL    HW222378   3.175  14.641   5.213
40161SOL     OW22379   3.699   4.606   2.561
40161SOL    HW122380   3.747   4.543   2.615
40161SOL    HW222381   3.697   4.567   2.474
40162SOL     OW22382   8.935  12.614   7.785
40162SOL    HW122383   8.895  12.527   7.783
40162SOL    HW222384   8.979  12.623   7.701
40163SOL     OW22385   1.820  13.523   3.522
40163SOL    HW122386   1.820  13.527   3.427
40163SOL    HW222387   1.897  13.469   3.543
40164SOL     OW22388   5.542   7.929  12.097
40164SOL    HW122389   5.499   7.855  12.139
40164SOL    HW222390   5.584   7.892  12.019
40165SOL     OW22391   3.891   9.837   8.513
40165SOL    HW122392   3.957   9.792   8.567
40165SOL    HW222393   3.942   9.885   8.448
40166SOL     OW22394  10.441  12.287   8.677
40166SOL    HW122395  10.359  12.244   8.700
40166SOL    HW222396  10.443  12.286   8.582
40167SOL     OW22397   0.657  13.491   9.108
40167SOL    HW122398   0.694  13.570   9.149
40167SOL    HW222399   0.731  13.452   9.062
40168SOL     OW22400   2.530   3.715   9.959
40168SOL    HW122401   2.440   3.748   9.967
40168SOL    HW222402   2.533   3.671   9.874
40169SOL     OW22403  14.135   5.714   5.599
40169SOL    HW122404  14.141   5.714   5.694
40169SOL    HW222405  14.213   5.761   5.569
40170SOL     OW22406   2.318   2.983   2.394
40170SOL    HW122407   2.290   2.947   2.478
40170SOL    HW222408   2.270   2.933   2.329
40171SOL     OW22409  10.961   8.136  10.726
40171SOL    HW122410  10.996   8.092  10.803
40171SOL    HW222411  11.027   8.203  10.705
40172SOL     OW22412  14.046   5.388   0.259
40172SOL    HW122413  14.050   5.295   0.237
40172SOL    HW222414  13.954   5.404   0.279
40173SOL     OW22415  14.618   0.581  11.363
40173SOL    HW122416  14.585   0.592  11.274
40173SOL    HW222417  14.650   0.667  11.388
40174SOL     OW22418   3.048  11.971   1.765
40174SOL    HW122419   2.998  12.031   1.820
40174SOL    HW222420   2.984  11.938   1.701
40175SOL     OW22421   1.913   2.158   2.096
40175SOL    HW122422   1.886   2.220   2.164
40175SOL    HW222423   1.881   2.073   2.126
40176SOL     OW22424   8.339  13.855   0.135
40176SOL    HW122425   8.337  13.763   0.163
40176SOL    HW222426   8.376  13.902   0.209
40177SOL     OW22427   7.676   3.184   1.823
40177SOL    HW122428   7.662   3.092   1.845
40177SOL    HW222429   7.676   3.186   1.728
40178SOL     OW22430   6.160  10.034  14.512
40178SOL    HW122431   6.219  10.068  14.444
40178SOL    HW222432   6.119   9.958  14.470
40179SOL     OW22433   6.267   5.750   9.133
40179SOL    HW122434   6.321   5.829   9.140
40179SOL    HW222435   6.260   5.734   9.039
40180SOL     OW22436   4.706   5.983  11.870
40180SOL    HW122437   4.738   6.008  11.957
40180SOL    HW222438   4.625   5.935  11.887
40181SOL     OW22439   4.098   1.222   3.741
40181SOL    HW122440   4.051   1.305   3.732
40181SOL    HW222441   4.154   1.234   3.817
40182SOL     OW22442   3.664   3.931   8.233
40182SOL    HW122443   3.670   4.026   8.238
40182SOL    HW222444   3.608   3.914   8.158
40183SOL     OW22445  11.340   2.982  10.544
40183SOL    HW122446  11.279   3.049  10.574
40183SOL    HW222447  11.285   2.904  10.531
40184SOL     OW22448  14.621  12.723   2.286
40184SOL    HW122449  14.609  12.654   2.220
40184SOL    HW222450  14.590  12.803   2.243
40185SOL     OW22451  11.975   7.596  10.787
40185SOL    HW122452  11.951   7.601  10.879
40185SOL    HW222453  11.941   7.677  10.749
40186SOL     OW22454   4.726  13.641   1.940
40186SOL    HW122455   4.746  13.574   2.006
40186SOL    HW222456   4.744  13.724   1.984
40187SOL     OW22457   4.155   1.279   9.168
40187SOL    HW122458   4.158   1.260   9.261
40187SOL    HW222459   4.175   1.373   9.162
40188SOL     OW22460  14.682   7.170  12.647
40188SOL    HW122461  14.663   7.117  12.570
40188SOL    HW222462  14.772   7.200  12.635
40189SOL     OW22463   6.679   1.158   0.583
40189SOL    HW122464   6.591   1.126   0.604
40189SOL    HW222465   6.705   1.208   0.660
40190SOL     OW22466   3.207  10.163   5.000
40190SOL    HW122467   3.171  10.246   5.031
40190SOL    HW222468   3.151  10.138   4.927
40191SOL     OW22469   8.049   1.501   1.973
40191SOL    HW122470   7.971   1.532   2.018
40191SOL    HW222471   8.045   1.406   1.982
40192SOL     OW22472  10.018  10.023   6.170
40192SOL    HW122473  10.049   9.972   6.096
40192SOL    HW222474   9.964  10.093   6.131
40193SOL     OW22475   7.784   9.389  12.079
40193SOL    HW122476   7.812   9.304  12.113
40193SOL    HW222477   7.849   9.410  12.012
40194SOL     OW22478  12.862   1.515  10.666
40194SOL    HW122479  12.795   1.448  10.663
40194SOL    HW222480  12.945   1.467  10.655
40195SOL     OW22481   1.385  12.181  10.279
40195SOL    HW122482   1.296  12.214  10.289
40195SOL    HW222483   1.420  12.228  10.203
40196SOL     OW22484  14.413   6.088   9.866
40196SOL    HW122485  14.327   6.058   9.835
40196SOL    HW222486  14.458   6.116   9.786
40197SOL     OW22487   6.780   5.179   3.959
40197SOL    HW122488   6.829   5.105   3.993
40197SOL    HW222489   6.779   5.165   3.864
40198SOL     OW22490  10.281  12.409   7.254
40198SOL    HW122491  10.260  12.318   7.274
40198SOL    HW222492  10.222  12.433   7.183
40199SOL     OW22493   6.759   6.861  12.184
40199SOL    HW122494   6.702   6.822  12.118
40199SOL    HW222495   6.812   6.788  12.216
40200SOL     OW22496  12.243   0.427   2.098
40200SOL    HW122497  12.298   0.472   2.161
40200SOL    HW222498  12.221   0.494   2.033
40201SOL     OW22499   2.103   3.649   7.317
40201SOL    HW122500   2.015   3.619   7.341
40201SOL    HW222501   2.119   3.725   7.373
40202SOL     OW22502   5.425   0.321   1.886
40202SOL    HW122503   5.499   0.275   1.847
40202SOL    HW222504   5.365   0.251   1.913
40203SOL     OW22505   5.770  11.002   0.741
40203SOL    HW122506   5.725  11.072   0.692
40203SOL    HW222507   5.705  10.932   0.746
40204SOL     OW22508   8.145  12.133   1.955
40204SOL    HW122509   8.181  12.049   1.927
40204SOL    HW222510   8.172  12.140   2.047
40205SOL     OW22511  10.804   2.307  12.255
40205SOL    HW122512  10.815   2.284  12.347
40205SOL    HW222513  10.804   2.403  12.254
40206SOL     OW22514   8.530   5.827  14.512
40206SOL    HW122515   8.487   5.854  14.594
40206SOL    HW222516   8.579   5.749  14.536
40207SOL     OW22517  13.404  14.863   0.758
40207SOL    HW122518  13.387  14.871   0.852
40207SOL    HW222519  13.380  14.773   0.736
40208SOL     OW22520   6.646   2.596   2.885
40208SOL    HW122521   6.674   2.675   2.839
40208SOL    HW222522   6.697   2.525   2.845
40209SOL     OW22523   7.228  10.036  13.014
40209SOL    HW122524   7.238   9.979  12.938
40209SOL    HW222525   7.205  10.121  12.978
40210SOL     OW22526  12.500   9.606   3.458
40210SOL    HW122527  12.562   9.583   3.527
40210SOL    HW222528  12.553   9.616   3.379
40211SOL     OW22529   2.309   6.007  12.194
40211SOL    HW122530   2.296   5.962  12.278
40211SOL    HW222531   2.312   5.937  12.129
40212SOL     OW22532  10.732  11.581   8.878
40212SOL    HW122533  10.753  11.620   8.963
40212SOL    HW222534  10.637  11.569   8.879
40213SOL     OW22535   8.512   8.480   0.881
40213SOL    HW122536   8.457   8.557   0.896
40213SOL    HW222537   8.452   8.406   0.886
40214SOL     OW22538   3.794   5.062   8.153
40214SOL    HW122539   3.866   5.014   8.112
40214SOL    HW222540   3.730   5.074   8.083
40215SOL     OW22541   3.126   5.635  11.998
40215SOL    HW122542   3.210   5.623  12.041
40215SOL    HW222543   3.118   5.559  11.940
40216SOL     OW22544  12.015  14.434   1.779
40216SOL    HW122545  12.076  14.389   1.720
40216SOL    HW222546  12.029  14.527   1.760
40217SOL     OW22547   2.716  11.415   4.054
40217SOL    HW122548   2.765  11.488   4.016
40217SOL    HW222549   2.750  11.337   4.010
40218SOL     OW22550   3.255  12.618   8.315
40218SOL    HW122551   3.345  12.645   8.299
40218SOL    HW222552   3.262  12.539   8.370
40219SOL     OW22553  13.706   6.185  13.653
40219SOL    HW122554  13.653   6.106  13.646
40219SOL    HW222555  13.755   6.188  13.571
40220SOL     OW22556   3.844   2.278   5.170
40220SOL    HW122557   3.802   2.201   5.130
40220SOL    HW222558   3.928   2.245   5.202
40221SOL     OW22559  13.332   0.599  12.929
40221SOL    HW122560  13.363   0.685  12.956
40221SOL    HW222561  13.374   0.585  12.844
40222SOL     OW22562   5.618   1.909   4.290
40222SOL    HW122563   5.692   1.896   4.350
40222SOL    HW222564   5.575   1.824   4.285
40223SOL     OW22565  13.481   1.339   0.883
40223SOL    HW122566  13.436   1.309   0.962
40223SOL    HW222567  13.546   1.271   0.865
40224SOL     OW22568   8.835   5.720   7.131
40224SOL    HW122569   8.764   5.771   7.171
40224SOL    HW222570   8.897   5.705   7.203
40225SOL     OW22571   6.705   4.149  11.617
40225SOL    HW122572   6.768   4.219  11.599
40225SOL    HW222573   6.656   4.139  11.535
40226SOL     OW22574   9.961   8.291   6.088
40226SOL    HW122575  10.014   8.256   6.160
40226SOL    HW222576   9.898   8.349   6.132
40227SOL     OW22577   0.861   8.325  12.231
40227SOL    HW122578   0.776   8.303  12.270
40227SOL    HW222579   0.920   8.332  12.305
40228SOL     OW22580   2.034   3.735  11.428
40228SOL    HW122581   1.945   3.737  11.392
40228SOL    HW222582   2.023   3.763  11.519
40229SOL     OW22583   2.429   8.568   6.788
40229SOL    HW122584   2.426   8.528   6.701
40229SOL    HW222585   2.351   8.535   6.832
40230SOL     OW22586  10.435  11.699   6.183
40230SOL    HW122587  10.513  11.732   6.139
40230SOL    HW222588  10.385  11.777   6.208
40231SOL     OW22589  11.230  11.801   3.463
40231SOL    HW122590  11.156  11.748   3.493
40231SOL    HW222591  11.305  11.767   3.511
40232SOL     OW22592   5.397   6.834  11.001
40232SOL    HW122593   5.320   6.822  10.944
40232SOL    HW222594   5.362   6.826  11.089
40233SOL     OW22595   1.668  10.321   0.351
40233SOL    HW122596   1.737  10.258   0.371
40233SOL    HW222597   1.692  10.358   0.266
40234SOL     OW22598   6.910  13.877  14.829
40234SOL    HW122599   6.990  13.891   0.002
40234SOL    HW222600   6.886  13.965  14.799
40235SOL     OW22601  11.711   7.071  14.485
40235SOL    HW122602  11.707   7.010  14.559
40235SOL    HW222603  11.620   7.081  14.457
40236SOL     OW22604  14.140   5.798  11.473
40236SOL    HW122605  14.079   5.837  11.536
40236SOL    HW222606  14.084   5.748  11.414
40237SOL     OW22607  14.296   4.309   9.781
40237SOL    HW122608  14.306   4.321   9.686
40237SOL    HW222609  14.262   4.393   9.812
40238SOL     OW22610   3.708   7.223  14.406
40238SOL    HW122611   3.679   7.312  14.385
40238SOL    HW222612   3.637   7.186  14.458
40239SOL     OW22613   2.934   2.919  14.450
40239SOL    HW122614   2.996   2.943  14.520
40239SOL    HW222615   2.910   3.003  14.411
40240SOL     OW22616   8.925   5.479  14.346
40240SOL    HW122617   8.857   5.523  14.294
40240SOL    HW222618   9.004   5.485  14.292
40241SOL     OW22619   7.550   5.459   2.536
40241SOL    HW122620   7.557   5.469   2.631
40241SOL    HW222621   7.459   5.481   2.516
40242SOL     OW22622  12.596   6.760   1.838
40242SOL    HW122623  12.542   6.691   1.798
40242SOL    HW222624  12.532   6.820   1.876
40243SOL     OW22625  12.401   5.028   7.992
40243SOL    HW122626  12.444   5.004   8.075
40243SOL    HW222627  12.317   5.066   8.019
40244SOL     OW22628   6.211   0.510   2.645
40244SOL    HW122629   6.223   0.469   2.559
40244SOL    HW222630   6.189   0.438   2.703
40245SOL     OW22631  12.421  14.510  13.901
40245SOL    HW122632  12.347  14.478  13.953
40245SOL    HW222633  12.400  14.601  13.884
40246SOL     OW22634   8.649   4.041   9.324
40246SOL    HW122635   8.627   3.968   9.266
40246SOL    HW222636   8.566   4.064   9.366
40247SOL     OW22637   4.022   4.093  14.544
40247SOL    HW122638   4.015   4.178  14.501
40247SOL    HW222639   4.073   4.110  14.623
40248SOL     OW22640  11.518  14.367   6.056
40248SOL    HW122641  11.467  14.446   6.076
40248SOL    HW222642  11.500  14.349   5.964
40249SOL     OW22643   6.426   8.129   1.407
40249SOL    HW122644   6.331   8.126   1.412
40249SOL    HW222645   6.452   8.039   1.389
40250SOL     OW22646   3.076  10.882   1.101
40250SOL    HW122647   3.035  10.951   1.153
40250SOL    HW222648   3.126  10.830   1.164
40251SOL     OW22649   0.393  11.587   1.503
40251SOL    HW122650   0.405  11.595   1.408
40251SOL    HW222651   0.465  11.530   1.531
40252SOL     OW22652   1.867   9.167   0.087
40252SOL    HW122653   1.885   9.261   0.091
40252SOL    HW222654   1.834   9.152  14.876
40253SOL     OW22655   3.816   3.559   6.820
40253SOL    HW122656   3.756   3.580   6.891
40253SOL    HW222657   3.825   3.642   6.771
40254SOL     OW22658   2.110   6.306   9.132
40254SOL    HW122659   2.197   6.309   9.172
40254SOL    HW222660   2.127   6.293   9.038
40255SOL     OW22661   1.989  12.874   3.183
40255SOL    HW122662   1.987  12.959   3.139
40255SOL    HW222663   1.984  12.810   3.113
40256SOL     OW22664  10.836   1.120  13.054
40256SOL    HW122665  10.928   1.112  13.080
40256SOL    HW222666  10.800   1.032  13.064
40257SOL     OW22667   4.210  11.425  10.451
40257SOL    HW122668   4.134  11.397  10.501
40257SOL    HW222669   4.184  11.413  10.360
40258SOL     OW22670   2.214   7.827   9.381
40258SOL    HW122671   2.235   7.738   9.354
40258SOL    HW222672   2.133   7.848   9.335
40259SOL     OW22673  10.293  12.076   0.405
40259SOL    HW122674  10.212  12.112   0.369
40259SOL    HW222675  10.346  12.153   0.427
40260SOL     OW22676  13.377   1.870   1.926
40260SOL    HW122677  13.391   1.949   1.977
40260SOL    HW222678  13.325   1.899   1.851
40261SOL     OW22679   3.223   3.704  14.831
40261SOL    HW122680   3.240   3.729  14.741
40261SOL    HW222681   3.298   3.736   0.003
40262SOL     OW22682   9.900  14.375   4.478
40262SOL    HW122683   9.986  14.398   4.443
40262SOL    HW222684   9.915  14.360   4.571
40263SOL     OW22685  14.545   2.838   3.818
40263SOL    HW122686  14.541   2.853   3.724
40263SOL    HW222687  14.636   2.855   3.841
40264SOL     OW22688   3.115  12.889   0.670
40264SOL    HW122689   3.048  12.914   0.606
40264SOL    HW222690   3.142  12.972   0.710
40265SOL     OW22691  11.109   4.894  11.438
40265SOL    HW122692  11.166   4.834  11.487
40265SOL    HW222693  11.021   4.877  11.472
40266SOL     OW22694  13.090   7.577  11.776
40266SOL    HW122695  13.147   7.629  11.719
40266SOL    HW222696  13.002   7.597  11.747
40267SOL     OW22697  13.972   9.076   9.202
40267SOL    HW122698  14.004   9.055   9.114
40267SOL    HW222699  13.882   9.105   9.188
40268SOL     OW22700  11.779  10.358   3.700
40268SOL    HW122701  11.823  10.297   3.760
40268SOL    HW222702  11.828  10.351   3.618
40269SOL     OW22703   3.106   9.795  10.795
40269SOL    HW122704   3.147   9.711  10.779
40269SOL    HW222705   3.167   9.859  10.759
40270SOL     OW22706  13.274  12.749   8.155
40270SOL    HW122707  13.340  12.699   8.204
40270SOL    HW222708  13.210  12.774   8.221
40271SOL     OW22709   0.309   6.387   5.493
40271SOL    HW122710   0.250   6.392   5.418
40271SOL    HW222711   0.265   6.435   5.562
40272SOL     OW22712  11.403   9.216   4.155
40272SOL    HW122713  11.309   9.224   4.138
40272SOL    HW222714  11.439   9.177   4.076
40273SOL     OW22715   1.909  12.099   6.590
40273SOL    HW122716   1.935  12.059   6.673
40273SOL    HW222717   1.830  12.149   6.611
40274SOL     OW22718  13.146   8.491  12.694
40274SOL    HW122719  13.050   8.489  12.692
40274SOL    HW222720  13.171   8.527  12.609
40275SOL     OW22721   9.394   4.148   6.891
40275SOL    HW122722   9.460   4.100   6.940
40275SOL    HW222723   9.438   4.230   6.865
40276SOL     OW22724   0.711   6.618   2.227
40276SOL    HW122725   0.745   6.529   2.231
40276SOL    HW222726   0.618   6.608   2.206
40277SOL     OW22727   5.940   5.829   3.469
40277SOL    HW122728   5.855   5.793   3.493
40277SOL    HW222729   5.993   5.821   3.548
40278SOL     OW22730   4.878   5.247  13.175
40278SOL    HW122731   4.794   5.212  13.146
40278SOL    HW222732   4.934   5.170  13.187
40279SOL     OW22733  13.679   1.726   9.470
40279SOL    HW122734  13.675   1.810   9.425
40279SOL    HW222735  13.709   1.664   9.402
40280SOL     OW22736   4.549   3.791   8.064
40280SOL    HW122737   4.598   3.709   8.053
40280SOL    HW222738   4.615   3.855   8.091
40281SOL     OW22739   3.183  12.825  14.764
40281SOL    HW122740   3.233  12.859  14.690
40281SOL    HW222741   3.139  12.747  14.730
40282SOL     OW22742   2.412  11.186   9.276
40282SOL    HW122743   2.409  11.177   9.371
40282SOL    HW222744   2.439  11.277   9.262
40283SOL     OW22745   0.472   4.130  13.216
40283SOL    HW122746   0.513   4.058  13.263
40283SOL    HW222747   0.544   4.175  13.172
40284SOL     OW22748   6.491   1.709  14.478
40284SOL    HW122749   6.580   1.701  14.445
40284SOL    HW222750   6.501   1.746  14.566
40285SOL     OW22751   5.871  10.865   5.156
40285SOL    HW122752   5.944  10.926   5.143
40285SOL    HW222753   5.912  10.778   5.150
40286SOL     OW22754   1.039  11.334  11.674
40286SOL    HW122755   1.062  11.383  11.753
40286SOL    HW222756   0.944  11.346  11.666
40287SOL     OW22757   1.114   4.648  10.150
40287SOL    HW122758   1.023   4.659  10.123
40287SOL    HW222759   1.149   4.582  10.089
40288SOL     OW22760   9.735   9.345   0.265
40288SOL    HW122761   9.764   9.280   0.202
40288SOL    HW222762   9.640   9.331   0.272
40289SOL     OW22763   3.192  13.139   1.698
40289SOL    HW122764   3.267  13.167   1.750
40289SOL    HW222765   3.130  13.103   1.762
40290SOL     OW22766   9.701   3.737   3.861
40290SOL    HW122767   9.715   3.812   3.804
40290SOL    HW222768   9.757   3.668   3.824
40291SOL     OW22769   6.548  11.301   9.280
40291SOL    HW122770   6.586  11.228   9.232
40291SOL    HW222771   6.531  11.368   9.214
40292SOL     OW22772   4.073   9.453   5.795
40292SOL    HW122773   4.037   9.429   5.709
40292SOL    HW222774   4.047   9.381   5.852
40293SOL     OW22775   4.934   4.185   3.043
40293SOL    HW122776   4.966   4.273   3.023
40293SOL    HW222777   4.945   4.136   2.962
40294SOL     OW22778   3.105  11.105   5.038
40294SOL    HW122779   3.078  11.197   5.037
40294SOL    HW222780   3.115  11.082   4.945
40295SOL     OW22781  14.550   1.436   8.285
40295SOL    HW122782  14.527   1.366   8.346
40295SOL    HW222783  14.641   1.419   8.261
40296SOL     OW22784  13.800   9.973  12.022
40296SOL    HW122785  13.780   9.882  12.045
40296SOL    HW222786  13.761   9.985  11.936
40297SOL     OW22787   9.610   6.548   3.552
40297SOL    HW122788   9.514   6.556   3.553
40297SOL    HW222789   9.630   6.488   3.623
40298SOL     OW22790  11.280   3.420   9.034
40298SOL    HW122791  11.339   3.478   8.987
40298SOL    HW222792  11.330   3.391   9.110
40299SOL     OW22793  11.623  14.867   3.739
40299SOL    HW122794  11.715  14.842   3.724
40299SOL    HW222795  11.627   0.064   3.798
40300SOL     OW22796  14.666  10.885   1.816
40300SOL    HW122797  14.621  10.807   1.849
40300SOL    HW222798  14.759  10.864   1.822
40301SOL     OW22799   0.246  12.252  14.191
40301SOL    HW122800   0.286  12.246  14.104
40301SOL    HW222801   0.276  12.173  14.237
40302SOL     OW22802   4.035  11.131  13.542
40302SOL    HW122803   4.020  11.144  13.636
40302SOL    HW222804   4.130  11.121  13.534
40303SOL     OW22805   4.175   6.017  14.433
40303SOL    HW122806   4.186   5.932  14.476
40303SOL    HW222807   4.144   6.075  14.502
40304SOL     OW22808   5.185   2.736  11.422
40304SOL    HW122809   5.228   2.820  11.405
40304SOL    HW222810   5.257   2.673  11.430
40305SOL     OW22811   2.567   1.745   7.501
40305SOL    HW122812   2.644   1.706   7.460
40305SOL    HW222813   2.597   1.779   7.585
40306SOL     OW22814   6.480   0.470   2.831
40306SOL    HW122815   6.388   0.471   2.803
40306SOL    HW222816   6.477   0.495   2.924
40307SOL     OW22817   1.786   8.176   1.541
40307SOL    HW122818   1.748   8.094   1.509
40307SOL    HW222819   1.870   8.150   1.578
40308SOL     OW22820   5.220   0.726   5.001
40308SOL    HW122821   5.204   0.792   5.068
40308SOL    HW222822   5.235   0.645   5.050
40309SOL     OW22823   9.746   0.967   6.063
40309SOL    HW122824   9.703   0.994   6.145
40309SOL    HW222825   9.824   1.023   6.058
40310SOL     OW22826   0.783  10.680  10.915
40310SOL    HW122827   0.836  10.699  10.992
40310SOL    HW222828   0.715  10.621  10.947
40311SOL     OW22829   5.161   5.631  10.955
40311SOL    HW122830   5.117   5.606  11.036
40311SOL    HW222831   5.162   5.550  10.903
40312SOL     OW22832   4.371  10.466   7.304
40312SOL    HW122833   4.357  10.561   7.298
40312SOL    HW222834   4.294  10.428   7.263
40313SOL     OW22835   9.046   4.892  13.303
40313SOL    HW122836   9.056   4.934  13.218
40313SOL    HW222837   9.083   4.954  13.366
40314SOL     OW22838   9.768   4.274  11.100
40314SOL    HW122839   9.842   4.303  11.154
40314SOL    HW222840   9.770   4.333  11.024
40315SOL     OW22841   5.328   1.512  12.686
40315SOL    HW122842   5.384   1.440  12.659
40315SOL    HW222843   5.368   1.545  12.767
40316SOL     OW22844  13.341   3.852   9.778
40316SOL    HW122845  13.399   3.906   9.832
40316SOL    HW222846  13.268   3.829   9.836
40317SOL     OW22847   6.105  10.628  13.412
40317SOL    HW122848   6.198  10.626  13.389
40317SOL    HW222849   6.073  10.711  13.377
40318SOL     OW22850   1.615  11.195   7.392
40318SOL    HW122851   1.658  11.114   7.364
40318SOL    HW222852   1.661  11.221   7.471
40319SOL     OW22853   9.680   7.758   1.500
40319SOL    HW122854   9.769   7.772   1.533
40319SOL    HW222855   9.692   7.722   1.412
40320SOL     OW22856  13.350  12.541   9.171
40320SOL    HW122857  13.375  12.573   9.258
40320SOL    HW222858  13.255  12.551   9.168
40321SOL     OW22859  14.674   1.686   1.518
40321SOL    HW122860  14.622   1.709   1.596
40321SOL    HW222861  14.609   1.670   1.450
40322SOL     OW22862  12.975   4.700  11.948
40322SOL    HW122863  13.022   4.759  12.007
40322SOL    HW222864  13.022   4.706  11.865
40323SOL     OW22865   9.457   4.437  10.947
40323SOL    HW122866   9.484   4.393  10.867
40323SOL    HW222867   9.526   4.503  10.963
40324SOL     OW22868   6.354   3.635   8.315
40324SOL    HW122869   6.437   3.653   8.358
40324SOL    HW222870   6.355   3.689   8.236
40325SOL     OW22871   5.601   7.034  12.898
40325SOL    HW122872   5.671   7.036  12.832
40325SOL    HW222873   5.587   7.126  12.921
40326SOL     OW22874  13.208   8.001   3.540
40326SOL    HW122875  13.218   7.906   3.533
40326SOL    HW222876  13.232   8.021   3.631
40327SOL     OW22877   5.069  14.262   9.005
40327SOL    HW122878   5.047  14.175   8.972
40327SOL    HW222879   5.142  14.291   8.951
40328SOL     OW22880  11.778  13.573   4.033
40328SOL    HW122881  11.817  13.627   4.102
40328SOL    HW222882  11.761  13.489   4.074
40329SOL     OW22883   8.248   2.722   8.622
40329SOL    HW122884   8.250   2.743   8.529
40329SOL    HW222885   8.266   2.628   8.626
40330SOL     OW22886  14.197  13.975   0.618
40330SOL    HW122887  14.285  14.005   0.595
40330SOL    HW222888  14.139  14.037   0.575
40331SOL     OW22889   0.796  11.599   0.838
40331SOL    HW122890   0.790  11.509   0.870
40331SOL    HW222891   0.882  11.629   0.868
40332SOL     OW22892  12.217   2.196   3.568
40332SOL    HW122893  12.154   2.189   3.496
40332SOL    HW222894  12.163   2.197   3.647
40333SOL     OW22895  13.052  11.067   4.090
40333SOL    HW122896  13.140  11.103   4.077
40333SOL    HW222897  13.004  11.091   4.011
40334SOL     OW22898  14.854  11.435   2.489
40334SOL    HW122899  14.830  11.525   2.509
40334SOL    HW222900   0.068  11.428   2.513
40335SOL     OW22901   1.805  13.421  12.871
40335SOL    HW122902   1.709  13.423  12.865
40335SOL    HW222903   1.828  13.507  12.906
40336SOL     OW22904   7.047  11.879  14.749
40336SOL    HW122905   7.056  11.894  14.655
40336SOL    HW222906   6.973  11.819  14.757
40337SOL     OW22907   9.824   6.614   1.489
40337SOL    HW122908   9.913   6.625   1.523
40337SOL    HW222909   9.770   6.603   1.567
40338SOL     OW22910   0.664   8.013   4.738
40338SOL    HW122911   0.634   7.923   4.747
40338SOL    HW222912   0.656   8.032   4.645
40339SOL     OW22913  10.256   1.912   3.429
40339SOL    HW122914  10.217   1.997   3.448
40339SOL    HW222915  10.337   1.933   3.382
40340SOL     OW22916   3.009  14.464   2.463
40340SOL    HW122917   3.008  14.559   2.451
40340SOL    HW222918   3.088  14.435   2.416
40341SOL     OW22919   6.926   7.786   4.314
40341SOL    HW122920   6.952   7.850   4.248
40341SOL    HW222921   6.997   7.786   4.378
40342SOL     OW22922   4.456  11.307   6.283
40342SOL    HW122923   4.463  11.383   6.342
40342SOL    HW222924   4.504  11.238   6.328
40343SOL     OW22925   4.583  10.598   2.360
40343SOL    HW122926   4.588  10.511   2.320
40343SOL    HW222927   4.493  10.626   2.346
40344SOL     OW22928  10.022   7.605   0.680
40344SOL    HW122929   9.932   7.577   0.665
40344SOL    HW222930  10.060   7.616   0.593
40345SOL     OW22931  13.357   3.344   3.100
40345SOL    HW122932  13.356   3.253   3.128
40345SOL    HW222933  13.449   3.362   3.079
40346SOL     OW22934   7.281   7.318   1.831
40346SOL    HW122935   7.375   7.302   1.834
40346SOL    HW222936   7.258   7.346   1.920
40347SOL     OW22937   5.040  13.091   9.495
40347SOL    HW122938   5.116  13.096   9.436
40347SOL    HW222939   5.060  13.019   9.554
40348SOL     OW22940   1.505   7.046   9.756
40348SOL    HW122941   1.410   7.042   9.769
40348SOL    HW222942   1.527   7.139   9.764
40349SOL     OW22943   5.675   5.016   8.117
40349SOL    HW122944   5.657   5.105   8.147
40349SOL    HW222945   5.731   5.027   8.040
40350SOL     OW22946  10.674   4.110   8.706
40350SOL    HW122947  10.605   4.157   8.660
40350SOL    HW222948  10.718   4.177   8.758
40351SOL     OW22949   5.430   6.389   4.782
40351SOL    HW122950   5.490   6.329   4.826
40351SOL    HW222951   5.377   6.426   4.852
40352SOL     OW22952  14.609   9.303  10.936
40352SOL    HW122953  14.677   9.354  10.979
40352SOL    HW222954  14.529   9.321  10.986
40353SOL     OW22955  12.842   5.203   6.985
40353SOL    HW122956  12.855   5.175   7.076
40353SOL    HW222957  12.885   5.136   6.933
40354SOL     OW22958  14.000   2.125  10.616
40354SOL    HW122959  13.982   2.051  10.674
40354SOL    HW222960  13.997   2.086  10.528
40355SOL     OW22961  12.006   2.752   0.240
40355SOL    HW122962  11.925   2.705   0.259
40355SOL    HW222963  11.978   2.826   0.185
40356SOL     OW22964   1.457  12.204   7.440
40356SOL    HW122965   1.542  12.170   7.467
40356SOL    HW222966   1.421  12.136   7.383
40357SOL     OW22967   9.768   8.412  13.249
40357SOL    HW122968   9.827   8.470  13.201
40357SOL    HW222969   9.804   8.411  13.338
40358SOL     OW22970   4.085   6.422  12.668
40358SOL    HW122971   4.003   6.432  12.717
40358SOL    HW222972   4.057   6.411  12.577
40359SOL     OW22973  14.705  11.997   7.566
40359SOL    HW122974  14.769  12.068   7.551
40359SOL    HW222975  14.625  12.029   7.525
40360SOL     OW22976  11.649  13.067  10.643
40360SOL    HW122977  11.570  13.031  10.604
40360SOL    HW222978  11.618  13.134  10.704
40361SOL     OW22979   5.408   2.046   6.242
40361SOL    HW122980   5.493   2.083   6.215
40361SOL    HW222981   5.423   2.017   6.332
40362SOL     OW22982   9.306   2.303   4.820
40362SOL    HW122983   9.253   2.253   4.882
40362SOL    HW222984   9.323   2.386   4.864
40363SOL     OW22985   7.123  14.326   9.628
40363SOL    HW122986   7.211  14.289   9.625
40363SOL    HW222987   7.066  14.256   9.595
40364SOL     OW22988   7.339  14.545   5.309
40364SOL    HW122989   7.264  14.539   5.369
40364SOL    HW222990   7.321  14.624   5.258
40365SOL     OW22991  14.390   4.519   9.240
40365SOL    HW122992  14.340   4.454   9.191
40365SOL    HW222993  14.481   4.504   9.214
40366SOL     OW22994   9.270  14.268   3.492
40366SOL    HW122995   9.292  14.232   3.406
40366SOL    HW222996   9.249  14.360   3.475
40367SOL     OW22997   0.315   4.476   5.027
40367SOL    HW122998   0.373   4.409   4.989
40367SOL    HW222999   0.363   4.559   5.013
40368SOL     OW23000   2.459  11.180  12.152
40368SOL    HW123001   2.442  11.207  12.061
40368SOL    HW223002   2.555  11.180  12.159
40369SOL     OW23003  12.269   6.594   0.351
40369SOL    HW123004  12.362   6.589   0.329
40369SOL    HW223005  12.233   6.509   0.325
40370SOL     OW23006   1.980   4.655   2.005
40370SOL    HW123007   2.028   4.703   2.073
40370SOL    HW223008   2.047   4.629   1.942
40371SOL     OW23009   1.330  10.607  14.130
40371SOL    HW123010   1.282  10.562  14.060
40371SOL    HW223011   1.403  10.649  14.086
40372SOL     OW23012   2.379  11.003   0.479
40372SOL    HW123013   2.428  10.925   0.503
40372SOL    HW223014   2.306  11.005   0.541
40373SOL     OW23015  12.623   6.478   6.107
40373SOL    HW123016  12.660   6.423   6.038
40373SOL    HW223017  12.613   6.419   6.182
40374SOL     OW23018   4.957   1.914  10.052
40374SOL    HW123019   5.002   1.936   9.970
40374SOL    HW223020   4.919   1.997  10.080
40375SOL     OW23021  13.708   0.590  10.578
40375SOL    HW123022  13.705   0.591  10.482
40375SOL    HW223023  13.684   0.678  10.604
40376SOL     OW23024   2.545   4.051  12.360
40376SOL    HW123025   2.485   3.980  12.381
40376SOL    HW223026   2.503   4.097  12.288
40377SOL     OW23027   2.099  14.009  12.275
40377SOL    HW123028   2.040  14.084  12.268
40377SOL    HW223029   2.071  13.950  12.205
40378SOL     OW23030  14.691   5.044   8.241
40378SOL    HW123031  14.698   5.004   8.154
40378SOL    HW223032  14.678   5.137   8.223
40379SOL     OW23033  14.647  14.220  11.552
40379SOL    HW123034  14.609  14.199  11.637
40379SOL    HW223035  14.723  14.274  11.572
40380SOL     OW23036   9.742  12.134   3.637
40380SOL    HW123037   9.717  12.220   3.604
40380SOL    HW223038   9.661  12.095   3.668
40381SOL     OW23039   8.036   7.277  10.109
40381SOL    HW123040   8.085   7.201  10.141
40381SOL    HW223041   7.950   7.269  10.151
40382SOL     OW23042   0.534   9.926   2.657
40382SOL    HW123043   0.615   9.885   2.628
40382SOL    HW223044   0.550   9.950   2.748
40383SOL     OW23045   0.472   5.590  13.007
40383SOL    HW123046   0.423   5.514  13.038
40383SOL    HW223047   0.503   5.633  13.087
40384SOL     OW23048  12.787  11.112   7.976
40384SOL    HW123049  12.751  11.026   7.998
40384SOL    HW223050  12.802  11.154   8.061
40385SOL     OW23051  13.711   6.003   5.383
40385SOL    HW123052  13.684   6.027   5.471
40385SOL    HW223053  13.806   5.994   5.388
40386SOL     OW23054   8.371   8.693  10.886
40386SOL    HW123055   8.445   8.752  10.896
40386SOL    HW223056   8.395   8.635  10.814
40387SOL     OW23057  12.021   2.868   4.859
40387SOL    HW123058  12.042   2.895   4.769
40387SOL    HW223059  12.034   2.773   4.859
40388SOL     OW23060   9.029   8.580   5.531
40388SOL    HW123061   9.102   8.528   5.566
40388SOL    HW223062   8.985   8.614   5.609
40389SOL     OW23063   3.413  13.037  13.779
40389SOL    HW123064   3.455  13.104  13.834
40389SOL    HW223065   3.467  12.959  13.792
40390SOL     OW23066   0.464   2.981   6.652
40390SOL    HW123067   0.508   2.915   6.706
40390SOL    HW223068   0.485   2.956   6.562
40391SOL     OW23069  13.867  12.180   1.332
40391SOL    HW123070  13.932  12.243   1.301
40391SOL    HW223071  13.918  12.113   1.378
40392SOL     OW23072   1.832   7.782   3.794
40392SOL    HW123073   1.869   7.694   3.806
40392SOL    HW223074   1.817   7.789   3.699
40393SOL     OW23075  13.793   3.444  13.374
40393SOL    HW123076  13.812   3.366  13.426
40393SOL    HW223077  13.836   3.428  13.290
40394SOL     OW23078  10.372   8.414   1.693
40394SOL    HW123079  10.348   8.498   1.655
40394SOL    HW223080  10.460   8.397   1.661
40395SOL     OW23081  10.556   9.519  13.040
40395SOL    HW123082  10.529   9.452  12.978
40395SOL    HW223083  10.585   9.470  13.117
40396SOL     OW23084  11.826   4.256  12.390
40396SOL    HW123085  11.733   4.277  12.384
40396SOL    HW223086  11.867   4.339  12.414
40397SOL     OW23087  10.828  12.800   9.353
40397SOL    HW123088  10.859  12.721   9.396
40397SOL    HW223089  10.805  12.859   9.425
40398SOL     OW23090   5.482  10.077   8.562
40398SOL    HW123091   5.440  10.083   8.647
40398SOL    HW223092   5.553  10.140   8.566
40399SOL     OW23093   0.188   4.732   2.268
40399SOL    HW123094   0.241   4.688   2.202
40399SOL    HW223095   0.241   4.806   2.297
40400SOL     OW23096  13.165  11.197  14.060
40400SOL    HW123097  13.161  11.109  14.020
40400SOL    HW223098  13.257  11.221  14.056
40401SOL     OW23099   4.269  10.864   2.752
40401SOL    HW123100   4.291  10.935   2.812
40401SOL    HW223101   4.346  10.806   2.755
40402SOL     OW23102   5.372  14.367  14.095
40402SOL    HW123103   5.282  14.335  14.101
40402SOL    HW223104   5.417  14.301  14.042
40403SOL     OW23105   0.199   9.754   3.718
40403SOL    HW123106   0.264   9.686   3.736
40403SOL    HW223107   0.241   9.811   3.654
40404SOL     OW23108   8.152  11.411   8.141
40404SOL    HW123109   8.217  11.408   8.070
40404SOL    HW223110   8.202  11.395   8.221
40405SOL     OW23111  10.255   3.566   6.714
40405SOL    HW123112  10.229   3.504   6.646
40405SOL    HW223113  10.173   3.598   6.751
40406SOL     OW23114   7.596   3.776   1.542
40406SOL    HW123115   7.647   3.724   1.604
40406SOL    HW223116   7.624   3.746   1.456
40407SOL     OW23117  12.001   4.663   5.260
40407SOL    HW123118  11.911   4.690   5.277
40407SOL    HW223119  12.017   4.689   5.169
40408SOL     OW23120   8.244   8.971   4.416
40408SOL    HW123121   8.335   8.972   4.389
40408SOL    HW223122   8.246   8.944   4.508
40409SOL     OW23123   7.179   4.780   6.860
40409SOL    HW123124   7.236   4.713   6.822
40409SOL    HW223125   7.181   4.762   6.954
40410SOL     OW23126  12.319   6.497   5.434
40410SOL    HW123127  12.415   6.505   5.431
40410SOL    HW223128  12.288   6.587   5.429
40411SOL     OW23129  10.070   1.876  13.978
40411SOL    HW123130  10.045   1.940  14.044
40411SOL    HW223131  10.076   1.926  13.897
40412SOL     OW23132   9.918   3.468   9.402
40412SOL    HW123133   9.976   3.418   9.459
40412SOL    HW223134   9.844   3.410   9.385
40413SOL     OW23135  10.246  13.651   8.863
40413SOL    HW123136  10.329  13.670   8.820
40413SOL    HW223137  10.194  13.605   8.796
40414SOL     OW23138   0.130  14.365  10.789
40414SOL    HW123139   0.186  14.433  10.753
40414SOL    HW223140   0.046  14.377  10.746
40415SOL     OW23141   5.372   4.810   4.077
40415SOL    HW123142   5.441   4.746   4.092
40415SOL    HW223143   5.348   4.799   3.985
40416SOL     OW23144   7.161  12.225  10.612
40416SOL    HW123145   7.236  12.167  10.606
40416SOL    HW223146   7.169  12.284  10.537
40417SOL     OW23147   3.064   6.647   9.768
40417SOL    HW123148   2.986   6.675   9.816
40417SOL    HW223149   3.041   6.660   9.676
40418SOL     OW23150  10.752   9.403  10.084
40418SOL    HW123151  10.707   9.414  10.167
40418SOL    HW223152  10.709   9.464  10.024
40419SOL     OW23153  14.378  10.541   6.900
40419SOL    HW123154  14.284  10.522   6.891
40419SOL    HW223155  14.421  10.460   6.873
40420SOL     OW23156   1.070  11.692   7.744
40420SOL    HW123157   1.040  11.690   7.835
40420SOL    HW223158   1.153  11.645   7.745
40421SOL     OW23159  14.753   9.167  11.486
40421SOL    HW123160  14.674   9.118  11.508
40421SOL    HW223161  14.814   9.100  11.455
40422SOL     OW23162   3.535  13.894   0.204
40422SOL    HW123163   3.485  13.828   0.155
40422SOL    HW223164   3.526  13.974   0.152
40423SOL     OW23165   4.327   4.069  12.238
40423SOL    HW123166   4.397   4.100  12.295
40423SOL    HW223167   4.251   4.061  12.295
40424SOL     OW23168  13.921   6.212  11.502
40424SOL    HW123169  13.847   6.215  11.562
40424SOL    HW223170  13.942   6.119  11.494
40425SOL     OW23171  11.476   6.030  10.819
40425SOL    HW123172  11.478   5.947  10.868
40425SOL    HW223173  11.406   6.019  10.755
40426SOL     OW23174   7.526  13.277   7.485
40426SOL    HW123175   7.548  13.349   7.426
40426SOL    HW223176   7.483  13.213   7.429
40427SOL     OW23177   4.769   4.933  13.728
40427SOL    HW123178   4.773   4.858  13.787
40427SOL    HW223179   4.676   4.958  13.726
40428SOL     OW23180   7.108   2.961  12.432
40428SOL    HW123181   7.032   2.944  12.488
40428SOL    HW223182   7.121   2.880  12.383
40429SOL     OW23183  14.795  11.314  14.463
40429SOL    HW123184  14.810  11.229  14.420
40429SOL    HW223185  14.769  11.372  14.392
40430SOL     OW23186   3.162  13.800   2.015
40430SOL    HW123187   3.117  13.716   2.021
40430SOL    HW223188   3.133  13.837   1.932
40431SOL     OW23189   5.176   4.739  10.455
40431SOL    HW123190   5.083   4.731  10.434
40431SOL    HW223191   5.214   4.785  10.380
40432SOL     OW23192  14.790  11.640  11.363
40432SOL    HW123193  14.823  11.626  11.452
40432SOL    HW223194  14.728  11.712  11.371
40433SOL     OW23195   8.218   4.276   2.937
40433SOL    HW123196   8.279   4.266   2.864
40433SOL    HW223197   8.215   4.189   2.978
40434SOL     OW23198   9.344   8.471   0.977
40434SOL    HW123199   9.251   8.458   0.959
40434SOL    HW223200   9.351   8.471   1.072
40435SOL     OW23201   0.116   7.789  14.120
40435SOL    HW123202   0.176   7.863  14.136
40435SOL    HW223203   0.072   7.811  14.038
40436SOL     OW23204   0.603   7.112   8.190
40436SOL    HW123205   0.516   7.128   8.154
40436SOL    HW223206   0.587   7.073   8.275
40437SOL     OW23207   9.232   3.439   6.516
40437SOL    HW123208   9.299   3.386   6.559
40437SOL    HW223209   9.260   3.529   6.533
40438SOL     OW23210   9.045   9.421   7.519
40438SOL    HW123211   8.976   9.482   7.492
40438SOL    HW223212   9.115   9.434   7.455
40439SOL     OW23213   6.345   2.695   1.801
40439SOL    HW123214   6.250   2.693   1.812
40439SOL    HW223215   6.376   2.753   1.871
40440SOL     OW23216   8.577   5.608   2.042
40440SOL    HW123217   8.592   5.690   2.088
40440SOL    HW223218   8.544   5.634   1.956
40441SOL     OW23219  12.387   1.659  12.665
40441SOL    HW123220  12.449   1.727  12.690
40441SOL    HW223221  12.302   1.692  12.693
40442SOL     OW23222   2.014   6.378   8.403
40442SOL    HW123223   1.959   6.343   8.473
40442SOL    HW223224   2.095   6.327   8.410
40443SOL     OW23225   9.856   6.551   5.760
40443SOL    HW123226   9.879   6.560   5.667
40443SOL    HW223227   9.929   6.592   5.807
40444SOL     OW23228   1.451   5.304  10.099
40444SOL    HW123229   1.374   5.260  10.063
40444SOL    HW223230   1.432   5.313  10.192
40445SOL     OW23231   1.278  10.535   9.242
40445SOL    HW123232   1.344  10.554   9.309
40445SOL    HW223233   1.327  10.534   9.160
40446SOL     OW23234  10.017  12.688   8.428
40446SOL    HW123235  10.055  12.763   8.382
40446SOL    HW223236   9.931  12.676   8.387
40447SOL     OW23237  14.190  11.504   5.080
40447SOL    HW123238  14.254  11.573   5.098
40447SOL    HW223239  14.109  11.534   5.122
40448SOL     OW23240  10.095  10.097   6.833
40448SOL    HW123241  10.145  10.143   6.765
40448SOL    HW223242  10.082  10.009   6.798
40449SOL     OW23243   6.568  14.748   7.386
40449SOL    HW123244   6.615  14.696   7.451
40449SOL    HW223245   6.488  14.776   7.431
40450SOL     OW23246   5.551   2.670   9.034
40450SOL    HW123247   5.471   2.657   8.983
40450SOL    HW223248   5.622   2.650   8.973
40451SOL     OW23249  13.885   6.150   0.617
40451SOL    HW123250  13.860   6.241   0.601
40451SOL    HW223251  13.847   6.129   0.703
40452SOL     OW23252  10.592  12.627   4.731
40452SOL    HW123253  10.640  12.609   4.811
40452SOL    HW223254  10.654  12.676   4.676
40453SOL     OW23255  14.767  14.164   9.861
40453SOL    HW123256  14.765  14.187   9.768
40453SOL    HW223257  14.709  14.228   9.902
40454SOL     OW23258  12.713   7.083   4.767
40454SOL    HW123259  12.783   7.138   4.802
40454SOL    HW223260  12.644   7.145   4.742
40455SOL     OW23261  13.803   2.073   2.832
40455SOL    HW123262  13.795   1.979   2.849
40455SOL    HW223263  13.822   2.112   2.917
40456SOL     OW23264   7.567  13.004   4.655
40456SOL    HW123265   7.498  12.976   4.715
40456SOL    HW223266   7.648  12.973   4.695
40457SOL     OW23267   8.357   9.112   0.281
40457SOL    HW123268   8.347   9.181   0.347
40457SOL    HW223269   8.271   9.071   0.277
40458SOL     OW23270  13.400   7.124   6.019
40458SOL    HW123271  13.437   7.211   6.005
40458SOL    HW223272  13.317   7.140   6.064
40459SOL     OW23273   4.242  13.296   4.409
40459SOL    HW123274   4.185  13.229   4.446
40459SOL    HW223275   4.192  13.332   4.336
40460SOL     OW23276   4.279   3.245   8.500
40460SOL    HW123277   4.187   3.246   8.526
40460SOL    HW223278   4.318   3.319   8.546
40461SOL     OW23279   3.250  13.367   4.105
40461SOL    HW123280   3.284  13.442   4.153
40461SOL    HW223281   3.297  13.369   4.021
40462SOL     OW23282   2.037   2.830   8.017
40462SOL    HW123283   2.115   2.813   8.070
40462SOL    HW223284   2.059   2.907   7.965
40463SOL     OW23285   9.662  13.188   8.989
40463SOL    HW123286   9.729  13.129   9.022
40463SOL    HW223287   9.580  13.141   9.004
40464SOL     OW23288   1.631   4.304   9.442
40464SOL    HW123289   1.680   4.271   9.367
40464SOL    HW223290   1.539   4.299   9.415
40465SOL     OW23291   8.145  11.950   6.298
40465SOL    HW123292   8.168  11.969   6.207
40465SOL    HW223293   8.228  11.933   6.341
40466SOL     OW23294   9.749   1.511  13.451
40466SOL    HW123295   9.654   1.512  13.458
40466SOL    HW223296   9.771   1.420  13.432
40467SOL     OW23297  14.531   0.113   9.060
40467SOL    HW123298  14.585   0.061   9.120
40467SOL    HW223299  14.575   0.105   8.975
40468SOL     OW23300  14.636  12.242   6.076
40468SOL    HW123301  14.584  12.236   5.996
40468SOL    HW223302  14.687  12.160   6.076
40469SOL     OW23303  13.360  10.578   6.440
40469SOL    HW123304  13.350  10.661   6.487
40469SOL    HW223305  13.439  10.589   6.387
40470SOL     OW23306   2.160   1.272   2.200
40470SOL    HW123307   2.220   1.274   2.275
40470SOL    HW223308   2.150   1.179   2.180
40471SOL     OW23309  13.965   6.406   9.080
40471SOL    HW123310  13.966   6.402   9.175
40471SOL    HW223311  14.035   6.468   9.057
40472SOL     OW23312   0.727   3.627   1.137
40472SOL    HW123313   0.784   3.668   1.071
40472SOL    HW223314   0.756   3.663   1.220
40473SOL     OW23315   2.336   0.076   5.062
40473SOL    HW123316   2.370   0.045   4.979
40473SOL    HW223317   2.334   0.171   5.054
40474SOL     OW23318   1.446   5.257   6.873
40474SOL    HW123319   1.448   5.229   6.965
40474SOL    HW223320   1.485   5.183   6.825
40475SOL     OW23321   5.104  12.613   2.928
40475SOL    HW123322   5.079  12.654   2.846
40475SOL    HW223323   5.109  12.685   2.991
40476SOL     OW23324   8.305   7.460  12.770
40476SOL    HW123325   8.273   7.468  12.680
40476SOL    HW223326   8.243   7.512  12.821
40477SOL     OW23327   1.766   3.531  13.013
40477SOL    HW123328   1.685   3.547  13.062
40477SOL    HW223329   1.774   3.608  12.957
40478SOL     OW23330  10.293   2.017  11.447
40478SOL    HW123331  10.304   1.937  11.396
40478SOL    HW223332  10.264   1.987  11.533
40479SOL     OW23333  12.688   3.052   2.072
40479SOL    HW123334  12.626   3.100   2.017
40479SOL    HW223335  12.774   3.082   2.044
40480SOL     OW23336   6.150   0.772   0.617
40480SOL    HW123337   6.143   0.678   0.598
40480SOL    HW223338   6.060   0.803   0.616
40481SOL     OW23339   6.591   7.189   3.996
40481SOL    HW123340   6.536   7.121   4.035
40481SOL    HW223341   6.595   7.258   4.063
40482SOL     OW23342   0.447   3.334  12.887
40482SOL    HW123343   0.464   3.415  12.936
40482SOL    HW223344   0.528   3.284  12.894
40483SOL     OW23345  13.491   2.987  12.489
40483SOL    HW123346  13.560   3.036  12.533
40483SOL    HW223347  13.512   2.993  12.396
40484SOL     OW23348   8.663  13.765   2.019
40484SOL    HW123349   8.591  13.822   2.045
40484SOL    HW223350   8.730  13.825   1.986
40485SOL     OW23351   6.839   2.262  14.114
40485SOL    HW123352   6.933   2.275  14.100
40485SOL    HW223353   6.812   2.340  14.163
40486SOL     OW23354  10.416  11.084   5.918
40486SOL    HW123355  10.466  11.074   5.999
40486SOL    HW223356  10.422  11.177   5.897
40487SOL     OW23357  11.830   6.850  11.051
40487SOL    HW123358  11.767   6.826  10.982
40487SOL    HW223359  11.836   6.772  11.106
40488SOL     OW23360   5.947  11.459   9.986
40488SOL    HW123361   6.026  11.411   9.963
40488SOL    HW223362   5.920  11.423  10.071
40489SOL     OW23363   3.188  13.280   5.262
40489SOL    HW123364   3.099  13.305   5.286
40489SOL    HW223365   3.177  13.218   5.190
40490SOL     OW23366   4.210   5.785   7.613
40490SOL    HW123367   4.293   5.821   7.644
40490SOL    HW223368   4.216   5.691   7.628
40491SOL     OW23369  13.723  11.822   9.056
40491SOL    HW123370  13.735  11.728   9.043
40491SOL    HW223371  13.674  11.829   9.138
40492SOL     OW23372  11.365  11.610  11.967
40492SOL    HW123373  11.289  11.557  11.992
40492SOL    HW223374  11.343  11.643  11.880
40493SOL     OW23375  13.283   6.862  13.476
40493SOL    HW123376  13.250   6.869  13.386
40493SOL    HW223377  13.240   6.784  13.511
40494SOL     OW23378   1.915  10.080  12.095
40494SOL    HW123379   1.978  10.127  12.040
40494SOL    HW223380   1.835  10.077  12.043
40495SOL     OW23381  12.025   9.709  13.959
40495SOL    HW123382  11.933   9.696  13.982
40495SOL    HW223383  12.069   9.721  14.043
40496SOL     OW23384   9.439  10.621   7.963
40496SOL    HW123385   9.440  10.531   7.930
40496SOL    HW223386   9.346  10.644   7.967
40497SOL     OW23387   4.018  10.213   7.513
40497SOL    HW123388   3.997  10.297   7.472
40497SOL    HW223389   3.932  10.173   7.530
40498SOL     OW23390  14.671   4.053   0.439
40498SOL    HW123391  14.743   4.083   0.384
40498SOL    HW223392  14.626   4.133   0.465
40499SOL     OW23393   6.637  10.180  11.063
40499SOL    HW123394   6.693  10.256  11.078
40499SOL    HW223395   6.684  10.126  11.000
40500SOL     OW23396  10.583   2.386   9.800
40500SOL    HW123397  10.584   2.425   9.712
40500SOL    HW223398  10.491   2.389   9.826
40501SOL     OW23399   5.296   6.642   8.339
40501SOL    HW123400   5.219   6.697   8.358
40501SOL    HW223401   5.342   6.637   8.423
40502SOL     OW23402   8.958   2.023   5.210
40502SOL    HW123403   8.885   1.966   5.233
40502SOL    HW223404   9.008   2.032   5.291
40503SOL     OW23405   2.088   8.785  13.674
40503SOL    HW123406   2.029   8.711  13.688
40503SOL    HW223407   2.144   8.757  13.602
40504SOL     OW23408   0.420  12.563   2.976
40504SOL    HW123409   0.366  12.593   3.049
40504SOL    HW223410   0.468  12.488   3.011
40505SOL     OW23411   4.183   9.912  13.515
40505SOL    HW123412   4.241   9.912  13.439
40505SOL    HW223413   4.135   9.995  13.509
40506SOL     OW23414   3.843   8.534   2.722
40506SOL    HW123415   3.785   8.489   2.783
40506SOL    HW223416   3.784   8.588   2.669
40507SOL     OW23417   3.209   5.290  13.126
40507SOL    HW123418   3.184   5.201  13.149
40507SOL    HW223419   3.129   5.329  13.092
40508SOL     OW23420   2.503  14.129   8.230
40508SOL    HW123421   2.460  14.108   8.312
40508SOL    HW223422   2.440  14.104   8.162
40509SOL     OW23423  13.121   2.170  10.281
40509SOL    HW123424  13.180   2.133  10.215
40509SOL    HW223425  13.092   2.094  10.332
40510SOL     OW23426  11.400   8.758  13.486
40510SOL    HW123427  11.351   8.757  13.568
40510SOL    HW223428  11.333   8.772  13.419
40511SOL     OW23429   1.615  12.491   0.760
40511SOL    HW123430   1.598  12.406   0.800
40511SOL    HW223431   1.703  12.514   0.789
40512SOL     OW23432  11.784   4.002   3.375
40512SOL    HW123433  11.695   3.978   3.398
40512SOL    HW223434  11.811   4.063   3.443
40513SOL     OW23435   4.700   1.020   9.143
40513SOL    HW123436   4.605   1.027   9.143
40513SOL    HW223437   4.718   0.942   9.090
40514SOL     OW23438   8.548   8.738  13.326
40514SOL    HW123439   8.473   8.711  13.378
40514SOL    HW223440   8.616   8.673  13.345
40515SOL     OW23441   6.235  12.823   7.133
40515SOL    HW123442   6.151  12.819   7.179
40515SOL    HW223443   6.221  12.775   7.052
40516SOL     OW23444   7.834  12.915   9.284
40516SOL    HW123445   7.909  12.870   9.245
40516SOL    HW223446   7.758  12.869   9.248
40517SOL     OW23447  13.621  11.585   8.195
40517SOL    HW123448  13.567  11.542   8.129
40517SOL    HW223449  13.709  11.586   8.157
40518SOL     OW23450  12.836  11.451   1.671
40518SOL    HW123451  12.764  11.432   1.611
40518SOL    HW223452  12.838  11.377   1.731
40519SOL     OW23453  12.977   5.126  13.186
40519SOL    HW123454  12.897   5.107  13.234
40519SOL    HW223455  12.965   5.083  13.101
40520SOL     OW23456  10.959   7.681  11.147
40520SOL    HW123457  10.893   7.620  11.114
40520SOL    HW223458  10.978   7.651  11.236
40521SOL     OW23459   2.681  14.139   5.835
40521SOL    HW123460   2.732  14.089   5.900
40521SOL    HW223461   2.641  14.210   5.886
40522SOL     OW23462   6.560   0.843   0.466
40522SOL    HW123463   6.622   0.797   0.410
40522SOL    HW223464   6.496   0.776   0.490
40523SOL     OW23465   6.015   4.416   8.324
40523SOL    HW123466   6.029   4.379   8.411
40523SOL    HW223467   5.990   4.341   8.270
40524SOL     OW23468   5.250   2.821   5.703
40524SOL    HW123469   5.309   2.855   5.770
40524SOL    HW223470   5.293   2.742   5.671
40525SOL     OW23471   2.780   3.646  13.727
40525SOL    HW123472   2.813   3.702  13.657
40525SOL    HW223473   2.727   3.704  13.782
40526SOL     OW23474  11.959  10.282   0.977
40526SOL    HW123475  11.874  10.275   1.021
40526SOL    HW223476  11.957  10.214   0.910
40527SOL     OW23477   5.279   8.896   2.284
40527SOL    HW123478   5.229   8.923   2.207
40527SOL    HW223479   5.216   8.846   2.336
40528SOL     OW23480   3.499   6.816   6.855
40528SOL    HW123481   3.546   6.835   6.774
40528SOL    HW223482   3.566   6.783   6.915
40529SOL     OW23483   6.748  10.050   7.160
40529SOL    HW123484   6.824  10.074   7.213
40529SOL    HW223485   6.724  10.131   7.115
40530SOL     OW23486   6.259   0.262   5.308
40530SOL    HW123487   6.178   0.247   5.258
40530SOL    HW223488   6.314   0.313   5.249
40531SOL     OW23489  14.852   3.365   2.082
40531SOL    HW123490  14.774   3.414   2.056
40531SOL    HW223491  14.834   3.275   2.057
40532SOL     OW23492   7.281   8.866   7.360
40532SOL    HW123493   7.236   8.937   7.407
40532SOL    HW223494   7.212   8.803   7.339
40533SOL     OW23495   3.674  10.937   5.346
40533SOL    HW123496   3.689  10.946   5.441
40533SOL    HW223497   3.593  10.985   5.330
40534SOL     OW23498  14.616  13.830  11.414
40534SOL    HW123499  14.663  13.750  11.436
40534SOL    HW223500  14.684  13.893  11.392
40535SOL     OW23501   4.393  12.552   1.093
40535SOL    HW123502   4.355  12.477   1.048
40535SOL    HW223503   4.366  12.541   1.184
40536SOL     OW23504   3.158  13.043   7.340
40536SOL    HW123505   3.104  12.972   7.307
40536SOL    HW223506   3.229  13.000   7.387
40537SOL     OW23507   5.280   5.235  13.633
40537SOL    HW123508   5.335   5.269  13.704
40537SOL    HW223509   5.190   5.243  13.667
40538SOL     OW23510   6.550  12.023   7.891
40538SOL    HW123511   6.611  12.034   7.817
40538SOL    HW223512   6.531  12.113   7.920
40539SOL     OW23513  14.182   4.071   7.688
40539SOL    HW123514  14.120   4.025   7.630
40539SOL    HW223515  14.217   4.002   7.745
40540SOL     OW23516   1.163   2.848  11.567
40540SOL    HW123517   1.195   2.935  11.545
40540SOL    HW223518   1.183   2.795  11.490
40541SOL     OW23519   5.404  13.447   7.472
40541SOL    HW123520   5.455  13.467   7.393
40541SOL    HW223521   5.314  13.473   7.450
40542SOL     OW23522  12.855  11.759  13.836
40542SOL    HW123523  12.790  11.803  13.781
40542SOL    HW223524  12.931  11.817  13.834
40543SOL     OW23525   4.980  12.628   8.173
40543SOL    HW123526   5.020  12.625   8.260
40543SOL    HW223527   4.903  12.684   8.184
40544SOL     OW23528   9.305  12.821  10.548
40544SOL    HW123529   9.274  12.731  10.558
40544SOL    HW223530   9.229  12.875  10.567
40545SOL     OW23531   4.906   8.414   2.400
40545SOL    HW123532   4.989   8.435   2.442
40545SOL    HW223533   4.856   8.367   2.467
40546SOL     OW23534   6.213   8.842   9.905
40546SOL    HW123535   6.178   8.837   9.817
40546SOL    HW223536   6.195   8.932   9.934
40547SOL     OW23537   6.359   4.563   1.959
40547SOL    HW123538   6.275   4.517   1.961
40547SOL    HW223539   6.378   4.575   1.866
40548SOL     OW23540  14.714  14.508   5.415
40548SOL    HW123541  14.734  14.451   5.489
40548SOL    HW223542  14.729  14.597   5.447
40549SOL     OW23543  10.018  11.335  13.614
40549SOL    HW123544  10.049  11.415  13.657
40549SOL    HW223545   9.946  11.304  13.669
40550SOL     OW23546   0.011   5.590   4.415
40550SOL    HW123547   0.030   5.671   4.462
40550SOL    HW223548   0.098   5.554   4.395
40551SOL     OW23549  13.878  10.561   6.540
40551SOL    HW123550  13.807  10.546   6.477
40551SOL    HW223551  13.860  10.501   6.612
40552SOL     OW23552   3.432   7.888   4.217
40552SOL    HW123553   3.352   7.935   4.193
40552SOL    HW223554   3.420   7.801   4.178
40553SOL     OW23555   8.987   4.319   4.589
40553SOL    HW123556   8.938   4.399   4.569
40553SOL    HW223557   8.940   4.280   4.663
40554SOL     OW23558   0.466   9.877   6.097
40554SOL    HW123559   0.546   9.929   6.106
40554SOL    HW223560   0.396   9.934   6.130
40555SOL     OW23561   0.443   7.529   4.040
40555SOL    HW123562   0.430   7.434   4.040
40555SOL    HW223563   0.356   7.565   4.020
40556SOL     OW23564   3.516   6.135   7.267
40556SOL    HW123565   3.454   6.066   7.244
40556SOL    HW223566   3.595   6.113   7.218
40557SOL     OW23567  12.322   1.714   6.522
40557SOL    HW123568  12.335   1.776   6.593
40557SOL    HW223569  12.397   1.727   6.464
40558SOL     OW23570   9.023  14.553   1.852
40558SOL    HW123571   9.075  14.550   1.772
40558SOL    HW223572   8.939  14.513   1.828
40559SOL     OW23573   7.720   4.953   5.774
40559SOL    HW123574   7.761   5.039   5.780
40559SOL    HW223575   7.726   4.917   5.862
40560SOL     OW23576  11.813   4.836   7.647
40560SOL    HW123577  11.901   4.798   7.640
40560SOL    HW223578  11.762   4.789   7.581
40561SOL     OW23579   7.085   0.024   8.744
40561SOL    HW123580   7.071   0.116   8.768
40561SOL    HW223581   7.131   0.028   8.660
40562SOL     OW23582   7.893   8.882   5.923
40562SOL    HW123583   7.892   8.788   5.910
40562SOL    HW223584   7.889   8.919   5.835
40563SOL     OW23585   9.380   5.318   0.215
40563SOL    HW123586   9.407   5.324   0.124
40563SOL    HW223587   9.449   5.267   0.257
40564SOL     OW23588   2.189  13.618  14.716
40564SOL    HW123589   2.259  13.651  14.659
40564SOL    HW223590   2.166  13.533  14.680
40565SOL     OW23591  13.246   3.431  13.215
40565SOL    HW123592  13.261   3.496  13.146
40565SOL    HW223593  13.299   3.462  13.289
40566SOL     OW23594   1.750   7.427   5.091
40566SOL    HW123595   1.746   7.386   5.178
40566SOL    HW223596   1.842   7.450   5.080
40567SOL     OW23597  13.591   4.159   1.363
40567SOL    HW123598  13.631   4.236   1.404
40567SOL    HW223599  13.560   4.191   1.278
40568SOL     OW23600   6.511   5.953   0.387
40568SOL    HW123601   6.460   6.032   0.370
40568SOL    HW223602   6.506   5.903   0.306
40569SOL     OW23603   8.219   6.406   7.366
40569SOL    HW123604   8.276   6.470   7.323
40569SOL    HW223605   8.153   6.458   7.411
40570SOL     OW23606  12.179  10.390   5.237
40570SOL    HW123607  12.184  10.331   5.312
40570SOL    HW223608  12.086  10.392   5.215
40571SOL     OW23609   4.419  12.639   8.578
40571SOL    HW123610   4.422  12.553   8.620
40571SOL    HW223611   4.335  12.676   8.605
40572SOL     OW23612   1.191  13.323   7.541
40572SOL    HW123613   1.280  13.328   7.507
40572SOL    HW223614   1.151  13.250   7.492
40573SOL     OW23615   3.981   7.013   2.344
40573SOL    HW123616   4.057   7.061   2.375
40573SOL    HW223617   3.959   6.953   2.415
40574SOL     OW23618  14.252   9.167   8.927
40574SOL    HW123619  14.190   9.150   8.997
40574SOL    HW223620  14.304   9.241   8.959
40575SOL     OW23621   4.503   2.730   7.831
40575SOL    HW123622   4.545   2.686   7.758
40575SOL    HW223623   4.437   2.668   7.862
40576SOL     OW23624  11.273   8.330  14.798
40576SOL    HW123625  11.329   8.407  14.809
40576SOL    HW223626  11.184   8.366  14.796
40577SOL     OW23627   3.508  12.670   0.496
40577SOL    HW123628   3.510  12.678   0.400
40577SOL    HW223629   3.418  12.693   0.519
40578SOL     OW23630   0.013  10.370   4.687
40578SOL    HW123631  14.824  10.354   4.619
40578SOL    HW223632   0.081  10.419   4.642
40579SOL     OW23633  10.561   4.471   1.300
40579SOL    HW123634  10.618   4.452   1.374
40579SOL    HW223635  10.617   4.517   1.237
40580SOL     OW23636   4.891   0.865   6.202
40580SOL    HW123637   4.977   0.844   6.237
40580SOL    HW223638   4.877   0.802   6.132
40581SOL     OW23639  12.068   6.174  11.605
40581SOL    HW123640  12.031   6.135  11.525
40581SOL    HW223641  11.998   6.228  11.640
40582SOL     OW23642   4.817  14.830   2.142
40582SOL    HW123643   4.780  14.852   2.056
40582SOL    HW223644   4.880   0.023   2.160
40583SOL     OW23645   7.653   6.930   7.615
40583SOL    HW123646   7.693   6.847   7.587
40583SOL    HW223647   7.573   6.903   7.661
40584SOL     OW23648   3.914  10.331   4.703
40584SOL    HW123649   3.983  10.385   4.662
40584SOL    HW223650   3.933  10.335   4.796
40585SOL     OW23651   6.220   3.179   4.200
40585SOL    HW123652   6.135   3.186   4.156
40585SOL    HW223653   6.280   3.227   4.144
40586SOL     OW23654   6.959   0.452   3.807
40586SOL    HW123655   6.911   0.457   3.890
40586SOL    HW223656   6.933   0.369   3.769
40587SOL     OW23657   9.668   5.298   2.006
40587SOL    HW123658   9.639   5.388   1.989
40587SOL    HW223659   9.719   5.274   1.929
40588SOL     OW23660   5.334   4.021   1.988
40588SOL    HW123661   5.310   3.964   2.061
40588SOL    HW223662   5.272   4.094   1.992
40589SOL     OW23663   1.196   9.262   7.209
40589SOL    HW123664   1.108   9.298   7.222
40589SOL    HW223665   1.200   9.244   7.115
40590SOL     OW23666   5.364  12.588  11.149
40590SOL    HW123667   5.388  12.649  11.079
40590SOL    HW223668   5.415  12.510  11.132
40591SOL     OW23669   4.611  12.923   6.395
40591SOL    HW123670   4.642  13.014   6.388
40591SOL    HW223671   4.679  12.878   6.445
40592SOL     OW23672   6.408  10.970   4.703
40592SOL    HW123673   6.355  11.013   4.770
40592SOL    HW223674   6.350  10.904   4.665
40593SOL     OW23675  10.139   0.244  14.533
40593SOL    HW123676  10.140   0.331  14.572
40593SOL    HW223677  10.052   0.236  14.494
40594SOL     OW23678   0.729   0.342  14.364
40594SOL    HW123679   0.657   0.293  14.403
40594SOL    HW223680   0.763   0.283  14.296
40595SOL     OW23681   2.186   6.258   5.365
40595SOL    HW123682   2.134   6.227   5.290
40595SOL    HW223683   2.253   6.191   5.377
40596SOL     OW23684   9.544   9.568   6.631
40596SOL    HW123685   9.547   9.610   6.717
40596SOL    HW223686   9.511   9.480   6.648
40597SOL     OW23687  13.686   4.625   0.627
40597SOL    HW123688  13.606   4.650   0.580
40597SOL    HW223689  13.734   4.571   0.564
40598SOL     OW23690  12.145   9.642   6.284
40598SOL    HW123691  12.202   9.716   6.305
40598SOL    HW223692  12.064   9.683   6.253
40599SOL     OW23693  12.055   6.642  14.150
40599SOL    HW123694  12.069   6.674  14.239
40599SOL    HW223695  12.132   6.672  14.102
40600SOL     OW23696   2.026   1.703   9.909
40600SOL    HW123697   2.020   1.739   9.998
40600SOL    HW223698   1.954   1.640   9.905
40601SOL     OW23699   5.475   4.397  10.738
40601SOL    HW123700   5.532   4.343  10.793
40601SOL    HW223701   5.508   4.383  10.649
40602SOL     OW23702   0.799   2.756   3.836
40602SOL    HW123703   0.839   2.721   3.757
40602SOL    HW223704   0.861   2.824   3.866
40603SOL     OW23705   5.914  10.457   7.508
40603SOL    HW123706   5.830  10.411   7.514
40603SOL    HW223707   5.953  10.448   7.595
40604SOL     OW23708   4.010  12.089   6.114
40604SOL    HW123709   4.100  12.122   6.112
40604SOL    HW223710   3.956  12.166   6.096
40605SOL     OW23711   8.405  14.252  12.926
40605SOL    HW123712   8.326  14.201  12.906
40605SOL    HW223713   8.476  14.206  12.882
40606SOL     OW23714  12.468  13.247   6.148
40606SOL    HW123715  12.486  13.323   6.093
40606SOL    HW223716  12.545  13.191   6.138
40607SOL     OW23717  11.794  11.394   4.484
40607SOL    HW123718  11.850  11.339   4.429
40607SOL    HW223719  11.736  11.439   4.422
40608SOL     OW23720   6.364   8.273  10.751
40608SOL    HW123721   6.285   8.312  10.713
40608SOL    HW223722   6.426   8.268  10.679
40609SOL     OW23723   3.971   0.169   8.355
40609SOL    HW123724   4.023   0.175   8.275
40609SOL    HW223725   3.926   0.253   8.360
40610SOL     OW23726   9.812  12.672   4.858
40610SOL    HW123727   9.879  12.734   4.830
40610SOL    HW223728   9.854  12.622   4.928
40611SOL     OW23729   1.675  13.705   1.888
40611SOL    HW123730   1.582  13.697   1.909
40611SOL    HW223731   1.690  13.799   1.881
40612SOL     OW23732   9.939   6.259  12.635
40612SOL    HW123733   9.975   6.348  12.633
40612SOL    HW223734   9.960   6.223  12.549
40613SOL     OW23735   1.471   3.600   3.633
40613SOL    HW123736   1.424   3.670   3.587
40613SOL    HW223737   1.463   3.525   3.574
40614SOL     OW23738  12.553   5.263   0.288
40614SOL    HW123739  12.584   5.236   0.201
40614SOL    HW223740  12.478   5.319   0.270
40615SOL     OW23741   8.785   4.642  11.630
40615SOL    HW123742   8.815   4.699  11.700
40615SOL    HW223743   8.845   4.659  11.557
40616SOL     OW23744   0.284   5.026   0.645
40616SOL    HW123745   0.341   5.053   0.717
40616SOL    HW223746   0.285   4.931   0.648
40617SOL     OW23747   5.429   7.113  11.772
40617SOL    HW123748   5.422   7.207  11.756
40617SOL    HW223749   5.339   7.080  11.766
40618SOL     OW23750  13.672  14.111   4.627
40618SOL    HW123751  13.625  14.041   4.672
40618SOL    HW223752  13.651  14.099   4.535
40619SOL     OW23753   0.589   8.386   9.880
40619SOL    HW123754   0.597   8.326   9.806
40619SOL    HW223755   0.539   8.337   9.945
40620SOL     OW23756  13.667   9.927   9.449
40620SOL    HW123757  13.715   9.981   9.386
40620SOL    HW223758  13.730   9.912   9.520
40621SOL     OW23759   8.257   9.291  12.619
40621SOL    HW123760   8.227   9.215  12.570
40621SOL    HW223761   8.261   9.262  12.710
40622SOL     OW23762   5.039   4.502   5.086
40622SOL    HW123763   5.074   4.582   5.125
40622SOL    HW223764   5.075   4.500   4.998
40623SOL     OW23765   1.339   2.345  12.203
40623SOL    HW123766   1.384   2.315  12.282
40623SOL    HW223767   1.331   2.267  12.149
40624SOL     OW23768   0.004   1.855   5.177
40624SOL    HW123769  14.839   1.904   5.248
40624SOL    HW223770  14.811   1.834   5.117
40625SOL     OW23771  11.585   7.716   1.393
40625SOL    HW123772  11.558   7.771   1.320
40625SOL    HW223773  11.571   7.770   1.470
40626SOL     OW23774   6.074   6.398   5.996
40626SOL    HW123775   6.011   6.344   6.046
40626SOL    HW223776   6.114   6.454   6.062
40627SOL     OW23777  10.842   7.360   6.557
40627SOL    HW123778  10.845   7.435   6.497
40627SOL    HW223779  10.927   7.317   6.545
40628SOL     OW23780   5.452  13.188  12.710
40628SOL    HW123781   5.435  13.253  12.642
40628SOL    HW223782   5.536  13.214  12.748
40629SOL     OW23783   0.940   0.416   9.444
40629SOL    HW123784   0.848   0.415   9.470
40629SOL    HW223785   0.942   0.465   9.362
40630SOL     OW23786   7.828   0.522   6.962
40630SOL    HW123787   7.734   0.516   6.982
40630SOL    HW223788   7.858   0.432   6.958
40631SOL     OW23789   1.177  13.833   2.056
40631SOL    HW123790   1.227  13.791   1.985
40631SOL    HW223791   1.156  13.920   2.022
40632SOL     OW23792   4.631  10.810  12.168
40632SOL    HW123793   4.536  10.811  12.177
40632SOL    HW223794   4.661  10.877  12.229
40633SOL     OW23795   2.103   3.941  12.075
40633SOL    HW123796   2.189   3.899  12.085
40633SOL    HW223797   2.102   4.011  12.140
40634SOL     OW23798   4.956  10.508   0.733
40634SOL    HW123799   4.915  10.448   0.794
40634SOL    HW223800   5.048  10.512   0.762
40635SOL     OW23801  14.637  14.710   4.761
40635SOL    HW123802  14.596  14.696   4.847
40635SOL    HW223803  14.704  14.642   4.756
40636SOL     OW23804  14.518   1.042  10.514
40636SOL    HW123805  14.516   0.968  10.454
40636SOL    HW223806  14.610   1.064  10.523
40637SOL     OW23807  13.135   5.950   8.317
40637SOL    HW123808  13.070   5.931   8.385
40637SOL    HW223809  13.219   5.944   8.362
40638SOL     OW23810   8.789  10.458   0.592
40638SOL    HW123811   8.873  10.467   0.638
40638SOL    HW223812   8.768  10.547   0.564
40639SOL     OW23813   5.387   8.169   0.565
40639SOL    HW123814   5.308   8.146   0.615
40639SOL    HW223815   5.402   8.261   0.586
40640SOL     OW23816   4.487  11.587   8.728
40640SOL    HW123817   4.468  11.679   8.709
40640SOL    HW223818   4.501  11.585   8.823
40641SOL     OW23819  12.391   9.866   3.499
40641SOL    HW123820  12.452   9.902   3.564
40641SOL    HW223821  12.441   9.800   3.453
40642SOL     OW23822   7.484   0.940   1.485
40642SOL    HW123823   7.579   0.930   1.487
40642SOL    HW223824   7.458   0.909   1.399
40643SOL     OW23825   2.909  14.186   3.450
40643SOL    HW123826   2.939  14.147   3.532
40643SOL    HW223827   2.925  14.119   3.384
40644SOL     OW23828  14.254   1.971  14.674
40644SOL    HW123829  14.306   1.908  14.624
40644SOL    HW223830  14.285   2.057  14.644
40645SOL     OW23831  10.683  11.613  13.857
40645SOL    HW123832  10.621  11.574  13.918
40645SOL    HW223833  10.655  11.704  13.848
40646SOL     OW23834   3.789  12.109   7.179
40646SOL    HW123835   3.735  12.183   7.152
40646SOL    HW223836   3.862  12.149   7.227
40647SOL     OW23837   1.096   7.704  11.789
40647SOL    HW123838   1.138   7.665  11.712
40647SOL    HW223839   1.019   7.748  11.753
40648SOL     OW23840  11.109  14.427   8.617
40648SOL    HW123841  11.191  14.423   8.667
40648SOL    HW223842  11.079  14.336   8.612
40649SOL     OW23843   8.225   8.870   2.665
40649SOL    HW123844   8.197   8.860   2.756
40649SOL    HW223845   8.305   8.924   2.671
40650SOL     OW23846  13.400   0.526   7.972
40650SOL    HW123847  13.463   0.594   7.947
40650SOL    HW223848  13.452   0.460   8.016
40651SOL     OW23849   5.948   1.230   4.819
40651SOL    HW123850   5.889   1.259   4.749
40651SOL    HW223851   5.914   1.144   4.844
40652SOL     OW23852   7.880   3.947   5.225
40652SOL    HW123853   7.951   4.011   5.216
40652SOL    HW223854   7.873   3.934   5.320
40653SOL     OW23855  10.495  14.640   2.581
40653SOL    HW123856  10.552  14.563   2.583
40653SOL    HW223857  10.469  14.647   2.489
40654SOL     OW23858   0.485   3.609   4.965
40654SOL    HW123859   0.523   3.529   4.928
40654SOL    HW223860   0.519   3.613   5.054
40655SOL     OW23861   8.311  11.224   9.836
40655SOL    HW123862   8.241  11.191   9.891
40655SOL    HW223863   8.322  11.157   9.768
40656SOL     OW23864   5.728   5.558   7.820
40656SOL    HW123865   5.648   5.610   7.820
40656SOL    HW223866   5.700   5.471   7.791
40657SOL     OW23867  11.122   6.602   4.520
40657SOL    HW123868  11.073   6.641   4.448
40657SOL    HW223869  11.125   6.670   4.587
40658SOL     OW23870   9.583  13.006  12.869
40658SOL    HW123871   9.624  12.959  12.797
40658SOL    HW223872   9.609  12.958  12.947
40659SOL     OW23873  10.417  10.663  13.478
40659SOL    HW123874  10.361  10.737  13.454
40659SOL    HW223875  10.419  10.665  13.574
40660SOL     OW23876  14.616  13.555   1.110
40660SOL    HW123877  14.708  13.532   1.099
40660SOL    HW223878  14.612  13.600   1.194
40661SOL     OW23879   5.866   9.473   5.921
40661SOL    HW123880   5.944   9.510   5.879
40661SOL    HW223881   5.887   9.473   6.014
40662SOL     OW23882  10.405   5.188   0.167
40662SOL    HW123883  10.416   5.180   0.072
40662SOL    HW223884  10.469   5.127   0.203
40663SOL     OW23885   4.230   7.969  11.861
40663SOL    HW123886   4.188   7.990  11.944
40663SOL    HW223887   4.160   7.931  11.808
40664SOL     OW23888  11.286  13.319   5.584
40664SOL    HW123889  11.294  13.238   5.533
40664SOL    HW223890  11.294  13.389   5.519
40665SOL     OW23891   8.270   7.289  11.424
40665SOL    HW123892   8.182   7.290  11.387
40665SOL    HW223893   8.262   7.333  11.509
40666SOL     OW23894   2.681   3.503  14.369
40666SOL    HW123895   2.674   3.480  14.276
40666SOL    HW223896   2.621   3.577  14.380
40667SOL     OW23897   9.272  13.594  10.803
40667SOL    HW123898   9.231  13.519  10.761
40667SOL    HW223899   9.303  13.648  10.731
40668SOL     OW23900  10.611   1.523   9.280
40668SOL    HW123901  10.599   1.616   9.298
40668SOL    HW223902  10.685   1.519   9.220
40669SOL     OW23903   5.778   3.854  10.990
40669SOL    HW123904   5.740   3.878  10.906
40669SOL    HW223905   5.785   3.759  10.988
40670SOL     OW23906   5.389   5.353   2.643
40670SOL    HW123907   5.421   5.275   2.596
40670SOL    HW223908   5.379   5.419   2.575
40671SOL     OW23909  10.599  10.274   2.324
40671SOL    HW123910  10.604  10.235   2.412
40671SOL    HW223911  10.651  10.355   2.331
40672SOL     OW23912   0.961   6.191   7.684
40672SOL    HW123913   0.937   6.102   7.657
40672SOL    HW223914   0.918   6.202   7.769
40673SOL     OW23915   2.389   0.241   7.418
40673SOL    HW123916   2.478   0.248   7.451
40673SOL    HW223917   2.363   0.151   7.438
40674SOL     OW23918  13.679   2.413   7.663
40674SOL    HW123919  13.728   2.357   7.723
40674SOL    HW223920  13.587   2.395   7.684
40675SOL     OW23921   9.261   9.612  12.342
40675SOL    HW123922   9.248   9.522  12.372
40675SOL    HW223923   9.309   9.603  12.260
40676SOL     OW23924  14.495   0.071   3.313
40676SOL    HW123925  14.480   0.091   3.406
40676SOL    HW223926  14.558   0.137   3.285
40677SOL     OW23927   2.748  13.281   7.016
40677SOL    HW123928   2.816  13.332   7.061
40677SOL    HW223929   2.666  13.315   7.052
40678SOL     OW23930  11.590   0.347   5.148
40678SOL    HW123931  11.601   0.311   5.236
40678SOL    HW223932  11.652   0.420   5.144
40679SOL     OW23933  12.848  12.357  14.612
40679SOL    HW123934  12.817  12.433  14.563
40679SOL    HW223935  12.782  12.344  14.681
40680SOL     OW23936  14.657  13.190  10.142
40680SOL    HW123937  14.597  13.186  10.067
40680SOL    HW223938  14.603  13.165  10.217
40681SOL     OW23939  11.675  12.321   1.612
40681SOL    HW123940  11.653  12.250   1.672
40681SOL    HW223941  11.732  12.378   1.663
40682SOL     OW23942  14.496   6.179   7.940
40682SOL    HW123943  14.570   6.163   7.999
40682SOL    HW223944  14.535   6.225   7.866
40683SOL     OW23945   9.018   9.322  14.353
40683SOL    HW123946   8.980   9.271  14.281
40683SOL    HW223947   8.952   9.386  14.376
40684SOL     OW23948   6.911  14.421  12.069
40684SOL    HW123949   6.868  14.415  11.983
40684SOL    HW223950   6.905  14.332  12.105
40685SOL     OW23951  10.159   2.075   3.861
40685SOL    HW123952  10.082   2.065   3.804
40685SOL    HW223953  10.165   2.169   3.878
40686SOL     OW23954   5.374  10.320  13.807
40686SOL    HW123955   5.421  10.291  13.886
40686SOL    HW223956   5.373  10.242  13.751
40687SOL     OW23957   0.844  14.774   4.197
40687SOL    HW123958   0.917  14.714   4.178
40687SOL    HW223959   0.768  14.731   4.159
40688SOL     OW23960  12.482  14.412   3.041
40688SOL    HW123961  12.420  14.386   3.109
40688SOL    HW223962  12.544  14.339   3.036
40689SOL     OW23963  14.449   3.440   0.163
40689SOL    HW123964  14.410   3.358   0.192
40689SOL    HW223965  14.447   3.497   0.240
40690SOL     OW23966   0.201   8.832  10.166
40690SOL    HW123967   0.284   8.813  10.123
40690SOL    HW223968   0.193   8.928  10.161
40691SOL     OW23969   0.206   2.149   3.424
40691SOL    HW123970   0.217   2.146   3.329
40691SOL    HW223971   0.214   2.057   3.452
40692SOL     OW23972   3.278   6.709  10.805
40692SOL    HW123973   3.344   6.773  10.830
40692SOL    HW223974   3.201   6.761  10.784
40693SOL     OW23975   6.353   6.168   5.488
40693SOL    HW123976   6.404   6.222   5.428
40693SOL    HW223977   6.360   6.080   5.453
40694SOL     OW23978  14.867   6.459  12.917
40694SOL    HW123979  14.826   6.375  12.895
40694SOL    HW223980   0.009   6.452  13.010
40695SOL     OW23981   9.294   0.621   3.523
40695SOL    HW123982   9.366   0.653   3.469
40695SOL    HW223983   9.238   0.573   3.463
40696SOL     OW23984   1.816   2.957   2.836
40696SOL    HW123985   1.789   3.012   2.910
40696SOL    HW223986   1.803   2.868   2.866
40697SOL     OW23987  14.021   0.657   9.812
40697SOL    HW123988  14.076   0.687   9.740
40697SOL    HW223989  14.068   0.683   9.891
40698SOL     OW23990   4.671   7.782   6.970
40698SOL    HW123991   4.748   7.838   6.979
40698SOL    HW223992   4.607   7.819   7.031
40699SOL     OW23993   7.906   7.295   5.251
40699SOL    HW123994   7.882   7.385   5.276
40699SOL    HW223995   7.824   7.257   5.221
40700SOL     OW23996   5.871   0.344   8.717
40700SOL    HW123997   5.952   0.310   8.681
40700SOL    HW223998   5.831   0.393   8.644
40701SOL     OW23999  12.180   2.138   6.196
40701SOL    HW124000  12.258   2.085   6.212
40701SOL    HW224001  12.110   2.094   6.244
40702SOL     OW24002  10.761   8.010   3.072
40702SOL    HW124003  10.814   7.990   3.149
40702SOL    HW224004  10.747   8.105   3.076
40703SOL     OW24005  14.082   5.728  11.881
40703SOL    HW124006  14.051   5.798  11.824
40703SOL    HW224007  14.148   5.681  11.829
40704SOL     OW24008   9.365   3.563  13.829
40704SOL    HW124009   9.451   3.550  13.789
40704SOL    HW224010   9.366   3.654  13.860
40705SOL     OW24011   0.958   3.726   0.317
40705SOL    HW124012   0.927   3.799   0.371
40705SOL    HW224013   0.899   3.654   0.337
40706SOL     OW24014   3.423  13.637   1.736
40706SOL    HW124015   3.398  13.679   1.818
40706SOL    HW224016   3.516  13.615   1.747
40707SOL     OW24017  14.831  13.784  13.082
40707SOL    HW124018  14.751  13.733  13.074
40707SOL    HW224019  14.804  13.865  13.124
40708SOL     OW24020   5.570   3.455  10.447
40708SOL    HW124021   5.637   3.447  10.379
40708SOL    HW224022   5.537   3.544  10.439
40709SOL     OW24023   1.821   2.541  10.661
40709SOL    HW124024   1.725   2.541  10.658
40709SOL    HW224025   1.847   2.592  10.584
40710SOL     OW24026   5.629   1.268   2.222
40710SOL    HW124027   5.640   1.322   2.144
40710SOL    HW224028   5.716   1.230   2.238
40711SOL     OW24029  13.692   2.420   0.120
40711SOL    HW124030  13.750   2.369   0.063
40711SOL    HW224031  13.696   2.376   0.205
40712SOL     OW24032  13.858   3.402   8.019
40712SOL    HW124033  13.938   3.352   8.004
40712SOL    HW224034  13.790   3.336   8.031
40713SOL     OW24035  13.286   7.974   7.611
40713SOL    HW124036  13.286   7.981   7.707
40713SOL    HW224037  13.338   7.896   7.593
40714SOL     OW24038   1.387  12.541   0.626
40714SOL    HW124039   1.461  12.499   0.669
40714SOL    HW224040   1.423  12.620   0.586
40715SOL     OW24041   2.892  14.582  12.886
40715SOL    HW124042   2.882  14.543  12.799
40715SOL    HW224043   2.829  14.654  12.887
40716SOL     OW24044   9.815   5.414   1.724
40716SOL    HW124045   9.793   5.486   1.783
40716SOL    HW224046   9.911   5.415   1.721
40717SOL     OW24047   7.491   2.068  11.899
40717SOL    HW124048   7.559   2.017  11.941
40717SOL    HW224049   7.409   2.033  11.934
40718SOL     OW24050   3.937   9.434   5.526
40718SOL    HW124051   4.013   9.379   5.509
40718SOL    HW224052   3.898   9.449   5.439
40719SOL     OW24053  11.349   2.918   8.551
40719SOL    HW124054  11.297   2.947   8.476
40719SOL    HW224055  11.302   2.841   8.584
40720SOL     OW24056   1.682   3.968  12.144
40720SOL    HW124057   1.729   4.042  12.182
40720SOL    HW224058   1.715   3.962  12.054
40721SOL     OW24059   6.673  13.723  14.717
40721SOL    HW124060   6.736  13.783  14.757
40721SOL    HW224061   6.643  13.768  14.638
40722SOL     OW24062   3.616   7.885   3.455
40722SOL    HW124063   3.660   7.801   3.470
40722SOL    HW224064   3.534   7.878   3.503
40723SOL     OW24065   2.609   6.522  14.319
40723SOL    HW124066   2.654   6.581  14.379
40723SOL    HW224067   2.548   6.579  14.271
40724SOL     OW24068   3.327  11.621  11.640
40724SOL    HW124069   3.363  11.679  11.706
40724SOL    HW224070   3.404  11.583  11.597
40725SOL     OW24071  12.463  10.399   3.400
40725SOL    HW124072  12.554  10.415   3.424
40725SOL    HW224073  12.423  10.362   3.479
40726SOL     OW24074   4.826   2.399   8.184
40726SOL    HW124075   4.900   2.459   8.173
40726SOL    HW224076   4.859   2.314   8.155
40727SOL     OW24077  14.856  12.468   2.251
40727SOL    HW124078  14.835  12.525   2.325
40727SOL    HW224079   0.069  12.490   2.229
40728SOL     OW24080   5.415   6.961   3.210
40728SOL    HW124081   5.482   6.962   3.142
40728SOL    HW224082   5.345   7.017   3.176
40729SOL     OW24083   1.421   1.350   5.076
40729SOL    HW124084   1.454   1.321   5.161
40729SOL    HW224085   1.466   1.295   5.012
40730SOL     OW24086   9.239  12.931   5.233
40730SOL    HW124087   9.318  12.949   5.284
40730SOL    HW224088   9.269  12.879   5.159
40731SOL     OW24089  13.191  11.073   0.743
40731SOL    HW124090  13.257  11.061   0.811
40731SOL    HW224091  13.116  11.021   0.773
40732SOL     OW24092  14.070  12.916   4.406
40732SOL    HW124093  14.082  12.831   4.363
40732SOL    HW224094  13.979  12.938   4.390
40733SOL     OW24095   5.358  12.918   3.569
40733SOL    HW124096   5.412  12.998   3.563
40733SOL    HW224097   5.420  12.846   3.559
40734SOL     OW24098   0.815   4.640   2.335
40734SOL    HW124099   0.888   4.595   2.293
40734SOL    HW224100   0.741   4.625   2.276
40735SOL     OW24101   0.274  10.222   2.183
40735SOL    HW124102   0.280  10.150   2.246
40735SOL    HW224103   0.264  10.300   2.237
40736SOL     OW24104  13.191   8.425   1.889
40736SOL    HW124105  13.251   8.362   1.849
40736SOL    HW224106  13.214   8.509   1.850
40737SOL     OW24107   1.312   2.053   5.405
40737SOL    HW124108   1.330   2.020   5.317
40737SOL    HW224109   1.286   2.144   5.391
40738SOL     OW24110   6.739  14.153  13.446
40738SOL    HW124111   6.715  14.074  13.396
40738SOL    HW224112   6.834  14.158  13.439
40739SOL     OW24113   3.428   2.122   2.866
40739SOL    HW124114   3.400   2.031   2.877
40739SOL    HW224115   3.395   2.167   2.944
40740SOL     OW24116   8.217   2.754  13.388
40740SOL    HW124117   8.234   2.659  13.392
40740SOL    HW224118   8.159   2.764  13.313
40741SOL     OW24119   2.973   8.728   5.217
40741SOL    HW124120   2.877   8.722   5.214
40741SOL    HW224121   2.997   8.678   5.296
40742SOL     OW24122   4.025   8.624   8.340
40742SOL    HW124123   3.947   8.568   8.345
40742SOL    HW224124   4.089   8.582   8.397
40743SOL     OW24125   9.068   6.151   7.593
40743SOL    HW124126   9.073   6.058   7.569
40743SOL    HW224127   9.076   6.198   7.510
40744SOL     OW24128   9.350   8.453   0.693
40744SOL    HW124129   9.443   8.450   0.671
40744SOL    HW224130   9.347   8.492   0.781
40745SOL     OW24131   7.111   2.054   0.907
40745SOL    HW124132   7.023   2.019   0.892
40745SOL    HW224133   7.134   2.097   0.824
40746SOL     OW24134  10.327  10.419   1.601
40746SOL    HW124135  10.340  10.504   1.643
40746SOL    HW224136  10.232  10.414   1.585
40747SOL     OW24137  13.881  11.691   3.570
40747SOL    HW124138  13.883  11.600   3.539
40747SOL    HW224139  13.944  11.693   3.642
40748SOL     OW24140  11.655  10.197   8.638
40748SOL    HW124141  11.603  10.231   8.711
40748SOL    HW224142  11.676  10.274   8.586
40749SOL     OW24143   0.380   1.425  11.434
40749SOL    HW124144   0.446   1.493  11.420
40749SOL    HW224145   0.390   1.402  11.527
40750SOL     OW24146  13.840   6.661  14.375
40750SOL    HW124147  13.780   6.622  14.312
40750SOL    HW224148  13.927   6.632  14.347
40751SOL     OW24149   3.699  14.724   5.413
40751SOL    HW124150   3.730  14.814   5.410
40751SOL    HW224151   3.630  14.719   5.347
40752SOL     OW24152   5.236  13.878   3.707
40752SOL    HW124153   5.254  13.801   3.760
40752SOL    HW224154   5.195  13.940   3.768
40753SOL     OW24155  11.693   3.357   8.280
40753SOL    HW124156  11.725   3.294   8.345
40753SOL    HW224157  11.603   3.330   8.262
40754SOL     OW24158  11.416   8.946   6.242
40754SOL    HW124159  11.351   9.008   6.274
40754SOL    HW224160  11.498   8.995   6.242
40755SOL     OW24161  13.813   9.883   7.842
40755SOL    HW124162  13.774   9.896   7.928
40755SOL    HW224163  13.905   9.863   7.860
40756SOL     OW24164   8.236   4.736   6.691
40756SOL    HW124165   8.205   4.718   6.779
40756SOL    HW224166   8.318   4.785   6.703
40757SOL     OW24167   4.323   9.778  12.245
40757SOL    HW124168   4.304   9.685  12.238
40757SOL    HW224169   4.378   9.786  12.323
40758SOL     OW24170   3.960   7.764   4.719
40758SOL    HW124171   3.983   7.854   4.739
40758SOL    HW224172   3.975   7.756   4.624
40759SOL     OW24173   2.063  11.868  10.770
40759SOL    HW124174   2.096  11.932  10.832
40759SOL    HW224175   2.123  11.794  10.777
40760SOL     OW24176   2.399  12.483   5.231
40760SOL    HW124177   2.478  12.451   5.189
40760SOL    HW224178   2.425  12.565   5.273
40761SOL     OW24179  12.133  12.112   0.309
40761SOL    HW124180  12.125  12.206   0.289
40761SOL    HW224181  12.209  12.083   0.259
40762SOL     OW24182  14.326   2.028   3.555
40762SOL    HW124183  14.339   1.933   3.557
40762SOL    HW224184  14.407   2.064   3.592
40763SOL     OW24185   3.524   4.279   2.805
40763SOL    HW124186   3.471   4.246   2.878
40763SOL    HW224187   3.600   4.222   2.803
40764SOL     OW24188   0.438  12.899   7.967
40764SOL    HW124189   0.346  12.890   7.991
40764SOL    HW224190   0.480  12.821   8.002
40765SOL     OW24191   0.514  11.985  13.384
40765SOL    HW124192   0.438  11.935  13.355
40765SOL    HW224193   0.513  12.065  13.332
40766SOL     OW24194   4.775   3.459   7.793
40766SOL    HW124195   4.702   3.418   7.840
40766SOL    HW224196   4.832   3.492   7.861
40767SOL     OW24197   6.509  10.848   6.534
40767SOL    HW124198   6.522  10.930   6.487
40767SOL    HW224199   6.487  10.784   6.467
40768SOL     OW24200   0.420   6.913   7.333
40768SOL    HW124201   0.448   6.913   7.424
40768SOL    HW224202   0.496   6.883   7.284
40769SOL     OW24203  10.040   2.443  12.007
40769SOL    HW124204  10.097   2.453  11.931
40769SOL    HW224205  10.053   2.352  12.036
40770SOL     OW24206   7.837   9.681   8.009
40770SOL    HW124207   7.886   9.762   8.022
40770SOL    HW224208   7.747   9.709   7.996
40771SOL     OW24209  12.958   5.079   0.364
40771SOL    HW124210  13.007   5.099   0.444
40771SOL    HW224211  12.919   5.163   0.338
40772SOL     OW24212   2.975   3.195   1.910
40772SOL    HW124213   3.064   3.230   1.907
40772SOL    HW224214   2.987   3.100   1.904
40773SOL     OW24215   4.606   5.211   3.968
40773SOL    HW124216   4.568   5.222   3.880
40773SOL    HW224217   4.532   5.226   4.027
40774SOL     OW24218   2.393   4.532   0.580
40774SOL    HW124219   2.461   4.592   0.550
40774SOL    HW224220   2.321   4.588   0.609
40775SOL     OW24221  13.816   1.635   7.907
40775SOL    HW124222  13.902   1.628   7.950
40775SOL    HW224223  13.755   1.594   7.968
40776SOL     OW24224  13.086  11.549  10.745
40776SOL    HW124225  13.115  11.510  10.828
40776SOL    HW224226  13.121  11.491  10.677
40777SOL     OW24227   9.642   1.517   9.913
40777SOL    HW124228   9.617   1.556   9.829
40777SOL    HW224229   9.668   1.427   9.891
40778SOL     OW24230   5.222  14.243   7.879
40778SOL    HW124231   5.208  14.187   7.802
40778SOL    HW224232   5.139  14.238   7.927
40779SOL     OW24233   5.833   6.217   0.734
40779SOL    HW124234   5.775   6.284   0.699
40779SOL    HW224235   5.776   6.158   0.784
40780SOL     OW24236  11.751   2.849   3.652
40780SOL    HW124237  11.747   2.932   3.699
40780SOL    HW224238  11.845   2.835   3.636
40781SOL     OW24239  14.485   8.141  13.520
40781SOL    HW124240  14.561   8.195  13.542
40781SOL    HW224241  14.514   8.089  13.444
40782SOL     OW24242   4.525   9.397   8.211
40782SOL    HW124243   4.577   9.321   8.237
40782SOL    HW224244   4.565   9.471   8.257
40783SOL     OW24245   0.775   1.256   9.196
40783SOL    HW124246   0.696   1.307   9.213
40783SOL    HW224247   0.771   1.237   9.102
40784SOL     OW24248  14.769   7.635   3.317
40784SOL    HW124249  14.769   7.645   3.222
40784SOL    HW224250  14.861   7.649   3.342
40785SOL     OW24251  11.964   7.641   6.123
40785SOL    HW124252  11.918   7.568   6.082
40785SOL    HW224253  12.052   7.607   6.141
40786SOL     OW24254   7.617   2.316   6.630
40786SOL    HW124255   7.697   2.346   6.587
40786SOL    HW224256   7.575   2.260   6.565
40787SOL     OW24257   9.319   9.847   8.898
40787SOL    HW124258   9.325   9.935   8.937
40787SOL    HW224259   9.250   9.804   8.947
40788SOL     OW24260   2.334  12.277   1.266
40788SOL    HW124261   2.296  12.338   1.330
40788SOL    HW224262   2.418  12.317   1.242
40789SOL     OW24263   9.937   9.633  13.443
40789SOL    HW124264   9.870   9.659  13.506
40789SOL    HW224265   9.887   9.598  13.368
40790SOL     OW24266   8.923   4.551   6.844
40790SOL    HW124267   8.857   4.527   6.779
40790SOL    HW224268   8.874   4.562   6.926
40791SOL     OW24269  11.338   7.225   8.592
40791SOL    HW124270  11.348   7.136   8.627
40791SOL    HW224271  11.243   7.238   8.587
40792SOL     OW24272  10.661   8.145  14.254
40792SOL    HW124273  10.633   8.224  14.300
40792SOL    HW224274  10.598   8.078  14.283
40793SOL     OW24275  10.628   1.244  10.392
40793SOL    HW124276  10.544   1.221  10.353
40793SOL    HW224277  10.620   1.219  10.484
40794SOL     OW24278   4.066  10.842   3.339
40794SOL    HW124279   4.040  10.928   3.373
40794SOL    HW224280   4.161  10.842   3.343
40795SOL     OW24281  11.231   5.203   4.321
40795SOL    HW124282  11.232   5.190   4.415
40795SOL    HW224283  11.143   5.177   4.293
40796SOL     OW24284  12.666  13.900   1.693
40796SOL    HW124285  12.752  13.914   1.731
40796SOL    HW224286  12.679  13.913   1.599
40797SOL     OW24287  13.450   3.087   4.001
40797SOL    HW124288  13.399   3.168   3.994
40797SOL    HW224289  13.406   3.026   3.941
40798SOL     OW24290   3.755  14.540   7.979
40798SOL    HW124291   3.736  14.446   7.984
40798SOL    HW224292   3.683  14.577   7.928
40799SOL     OW24293   9.212   8.314   2.143
40799SOL    HW124294   9.263   8.236   2.164
40799SOL    HW224295   9.269   8.365   2.086
40800SOL     OW24296   5.283   3.151   2.974
40800SOL    HW124297   5.360   3.203   2.953
40800SOL    HW224298   5.302   3.064   2.937
40801SOL     OW24299   1.564   7.416   7.469
40801SOL    HW124300   1.503   7.347   7.445
40801SOL    HW224301   1.650   7.384   7.441
40802SOL     OW24302   6.135   5.041  11.711
40802SOL    HW124303   6.139   5.092  11.630
40802SOL    HW224304   6.119   4.951  11.683
40803SOL     OW24305   2.808  14.517   7.992
40803SOL    HW124306   2.754  14.590   8.023
40803SOL    HW224307   2.763  14.438   8.023
40804SOL     OW24308   2.999  13.842   6.592
40804SOL    HW124309   2.993  13.935   6.569
40804SOL    HW224310   2.957  13.797   6.519
40805SOL     OW24311  14.632   3.638   9.393
40805SOL    HW124312  14.717   3.652   9.435
40805SOL    HW224313  14.569   3.678   9.452
40806SOL     OW24314   3.536   3.280   6.112
40806SOL    HW124315   3.565   3.233   6.034
40806SOL    HW224316   3.563   3.225   6.185
40807SOL     OW24317   0.033   1.970  11.241
40807SOL    HW124318   0.064   2.050  11.283
40807SOL    HW224319  14.815   1.971  11.255
40808SOL     OW24320   6.322  14.173   4.353
40808SOL    HW124321   6.293  14.133   4.435
40808SOL    HW224322   6.287  14.116   4.284
40809SOL     OW24323   3.086   0.970   6.009
40809SOL    HW124324   3.115   0.998   5.922
40809SOL    HW224325   3.109   1.042   6.067
40810SOL     OW24326  11.343  13.523  10.982
40810SOL    HW124327  11.388  13.531  10.898
40810SOL    HW224328  11.359  13.607  11.026
40811SOL     OW24329   9.053   3.161   6.093
40811SOL    HW124330   9.079   3.145   6.183
40811SOL    HW224331   8.959   3.179   6.098
40812SOL     OW24332   4.041   1.446   2.230
40812SOL    HW124333   4.094   1.404   2.298
40812SOL    HW224334   4.026   1.377   2.165
40813SOL     OW24335  12.497  11.712   3.713
40813SOL    HW124336  12.560  11.784   3.705
40813SOL    HW224337  12.412  11.754   3.706
40814SOL     OW24338  14.448  13.214  14.455
40814SOL    HW124339  14.492  13.239  14.373
40814SOL    HW224340  14.367  13.172  14.426
40815SOL     OW24341  11.359   2.674   9.303
40815SOL    HW124342  11.401   2.689   9.219
40815SOL    HW224343  11.278   2.726   9.300
40816SOL     OW24344   4.126   2.380   7.294
40816SOL    HW124345   4.202   2.371   7.236
40816SOL    HW224346   4.148   2.454   7.351
40817SOL     OW24347   1.046  10.570  11.828
40817SOL    HW124348   1.049  10.664  11.809
40817SOL    HW224349   0.966  10.558  11.878
40818SOL     OW24350   3.858  14.712   3.509
40818SOL    HW124351   3.808  14.752   3.438
40818SOL    HW224352   3.809  14.633   3.532
40819SOL     OW24353   1.384   3.607  14.694
40819SOL    HW124354   1.442   3.562  14.632
40819SOL    HW224355   1.353   3.684  14.646
40820SOL     OW24356  13.459   4.305   6.003
40820SOL    HW124357  13.423   4.223   6.037
40820SOL    HW224358  13.554   4.293   6.006
40821SOL     OW24359  14.461   9.918   4.210
40821SOL    HW124360  14.509   9.887   4.133
40821SOL    HW224361  14.483   9.854   4.278
40822SOL     OW24362   9.209   6.182  14.646
40822SOL    HW124363   9.219   6.092  14.678
40822SOL    HW224364   9.116   6.189  14.624
40823SOL     OW24365  11.068  14.202   2.848
40823SOL    HW124366  11.039  14.204   2.757
40823SOL    HW224367  11.141  14.264   2.851
40824SOL     OW24368   9.812  13.387   1.254
40824SOL    HW124369   9.720  13.367   1.271
40824SOL    HW224370   9.811  13.465   1.199
40825SOL     OW24371  12.075  10.846   4.165
40825SOL    HW124372  12.130  10.768   4.177
40825SOL    HW224373  12.136  10.919   4.175
40826SOL     OW24374  10.992  10.039  14.829
40826SOL    HW124375  10.940   9.959  14.820
40826SOL    HW224376  11.056  10.018   0.020
40827SOL     OW24377  10.099   9.182   3.299
40827SOL    HW124378  10.044   9.258   3.318
40827SOL    HW224379  10.168   9.217   3.242
40828SOL     OW24380  14.295   2.745   9.868
40828SOL    HW124381  14.367   2.751   9.931
40828SOL    HW224382  14.326   2.681   9.803
40829SOL     OW24383  10.533   9.062   3.137
40829SOL    HW124384  10.487   9.049   3.053
40829SOL    HW224385  10.532   9.157   3.150
40830SOL     OW24386  12.765   7.509   5.045
40830SOL    HW124387  12.748   7.595   5.083
40830SOL    HW224388  12.710   7.450   5.095
40831SOL     OW24389  13.367  14.116  12.671
40831SOL    HW124390  13.369  14.073  12.757
40831SOL    HW224391  13.455  14.101  12.635
40832SOL     OW24392  11.579   3.340   2.263
40832SOL    HW124393  11.509   3.280   2.289
40832SOL    HW224394  11.577   3.409   2.330
40833SOL     OW24395  12.625   6.717   6.629
40833SOL    HW124396  12.715   6.696   6.656
40833SOL    HW224397  12.583   6.632   6.616
40834SOL     OW24398   1.822   7.018   8.580
40834SOL    HW124399   1.753   7.062   8.530
40834SOL    HW224400   1.903   7.051   8.543
40835SOL     OW24401  14.803   8.593   6.708
40835SOL    HW124402  14.843   8.562   6.789
40835SOL    HW224403  14.824   8.686   6.705
40836SOL     OW24404   4.370   0.056  13.157
40836SOL    HW124405   4.371   0.151  13.173
40836SOL    HW224406   4.401   0.018  13.239
40837SOL     OW24407   5.774   1.547   2.435
40837SOL    HW124408   5.722   1.612   2.388
40837SOL    HW224409   5.834   1.513   2.369
40838SOL     OW24410   0.552  11.777  14.500
40838SOL    HW124411   0.560  11.689  14.464
40838SOL    HW224412   0.643  11.804  14.516
40839SOL     OW24413   6.798   4.029  10.623
40839SOL    HW124414   6.892   4.043  10.609
40839SOL    HW224415   6.781   4.068  10.709
40840SOL     OW24416  14.187   1.408   5.957
40840SOL    HW124417  14.233   1.355   6.022
40840SOL    HW224418  14.180   1.351   5.880
40841SOL     OW24419   7.289   9.437   2.939
40841SOL    HW124420   7.239   9.515   2.917
40841SOL    HW224421   7.364   9.438   2.879
40842SOL     OW24422  13.915   5.648   9.764
40842SOL    HW124423  13.886   5.612   9.848
40842SOL    HW224424  13.842   5.630   9.704
40843SOL     OW24425  11.871   2.456  12.191
40843SOL    HW124426  11.893   2.364  12.178
40843SOL    HW224427  11.883   2.470  12.285
40844SOL     OW24428   8.817   0.589  12.419
40844SOL    HW124429   8.853   0.533  12.488
40844SOL    HW224430   8.892   0.616  12.367
40845SOL     OW24431   2.772  13.378   9.236
40845SOL    HW124432   2.786  13.391   9.142
40845SOL    HW224433   2.679  13.393   9.249
40846SOL     OW24434   5.412  14.002   3.525
40846SOL    HW124435   5.363  13.974   3.602
40846SOL    HW224436   5.352  13.989   3.451
40847SOL     OW24437  10.482   1.569  11.970
40847SOL    HW124438  10.395   1.586  12.004
40847SOL    HW224439  10.467   1.540  11.880
40848SOL     OW24440  12.517  10.120   5.342
40848SOL    HW124441  12.543  10.211   5.352
40848SOL    HW224442  12.564  10.073   5.410
40849SOL     OW24443   1.333  10.835   7.848
40849SOL    HW124444   1.241  10.829   7.820
40849SOL    HW224445   1.349  10.753   7.895
40850SOL     OW24446   1.391   5.971   2.734
40850SOL    HW124447   1.425   5.882   2.729
40850SOL    HW224448   1.388   5.991   2.827
40851SOL     OW24449  10.632   2.682  11.107
40851SOL    HW124450  10.678   2.651  11.029
40851SOL    HW224451  10.542   2.652  11.096
40852SOL     OW24452  14.007   2.723   9.861
40852SOL    HW124453  13.961   2.806   9.852
40852SOL    HW224454  14.100   2.745   9.854
40853SOL     OW24455   6.960  13.304   1.469
40853SOL    HW124456   6.976  13.395   1.443
40853SOL    HW224457   6.899  13.270   1.403
40854SOL     OW24458  13.291   7.379  14.053
40854SOL    HW124459  13.338   7.347  14.130
40854SOL    HW224460  13.223   7.313  14.037
40855SOL     OW24461   8.968   4.307  10.399
40855SOL    HW124462   8.877   4.327  10.378
40855SOL    HW224463   9.018   4.380  10.362
40856SOL     OW24464   2.397   0.797   2.916
40856SOL    HW124465   2.425   0.711   2.946
40856SOL    HW224466   2.419   0.799   2.823
40857SOL     OW24467   4.207   3.943   4.134
40857SOL    HW124468   4.114   3.928   4.152
40857SOL    HW224469   4.242   3.978   4.215
40858SOL     OW24470   5.672   3.868  11.950
40858SOL    HW124471   5.729   3.900  11.880
40858SOL    HW224472   5.730   3.821  12.009
40859SOL     OW24473   9.304   6.313   6.588
40859SOL    HW124474   9.321   6.224   6.557
40859SOL    HW224475   9.228   6.342   6.538
40860SOL     OW24476   9.988   7.048   4.695
40860SOL    HW124477  10.083   7.062   4.690
40860SOL    HW224478   9.977   6.995   4.774
40861SOL     OW24479   4.583  13.083   7.646
40861SOL    HW124480   4.524  13.153   7.619
40861SOL    HW224481   4.670  13.116   7.626
40862SOL     OW24482   2.804   0.788   2.311
40862SOL    HW124483   2.723   0.777   2.260
40862SOL    HW224484   2.853   0.707   2.296
40863SOL     OW24485   4.977  13.181   2.956
40863SOL    HW124486   4.910  13.249   2.954
40863SOL    HW224487   5.056  13.224   2.923
40864SOL     OW24488   4.016   5.787   9.942
40864SOL    HW124489   4.037   5.696   9.921
40864SOL    HW224490   4.009   5.830   9.857
40865SOL     OW24491   1.323   3.006   0.611
40865SOL    HW124492   1.262   2.933   0.622
40865SOL    HW224493   1.270   3.084   0.631
40866SOL     OW24494   0.695   9.519   4.751
40866SOL    HW124495   0.737   9.604   4.741
40866SOL    HW224496   0.610   9.538   4.791
40867SOL     OW24497   3.339   6.509  13.416
40867SOL    HW124498   3.312   6.499  13.507
40867SOL    HW224499   3.417   6.566  13.420
40868SOL     OW24500   5.634  13.128   5.177
40868SOL    HW124501   5.548  13.130   5.136
40868SOL    HW224502   5.621  13.084   5.261
40869SOL     OW24503   3.180   6.380   3.806
40869SOL    HW124504   3.202   6.473   3.817
40869SOL    HW224505   3.264   6.335   3.808
40870SOL     OW24506   7.437   3.919   6.238
40870SOL    HW124507   7.485   3.837   6.226
40870SOL    HW224508   7.345   3.896   6.229
40871SOL     OW24509  10.676   2.192   4.560
40871SOL    HW124510  10.622   2.232   4.492
40871SOL    HW224511  10.722   2.121   4.516
40872SOL     OW24512   0.343  10.732   5.494
40872SOL    HW124513   0.291  10.809   5.517
40872SOL    HW224514   0.291  10.658   5.524
40873SOL     OW24515   1.360   3.209   2.501
40873SOL    HW124516   1.337   3.143   2.436
40873SOL    HW224517   1.436   3.253   2.465
40874SOL     OW24518  14.233   1.601   3.524
40874SOL    HW124519  14.197   1.602   3.613
40874SOL    HW224520  14.164   1.639   3.470
40875SOL     OW24521  12.326   2.911   0.493
40875SOL    HW124522  12.308   2.967   0.417
40875SOL    HW224523  12.282   2.829   0.472
40876SOL     OW24524  10.727  11.644  11.797
40876SOL    HW124525  10.821  11.660  11.797
40876SOL    HW224526  10.688  11.728  11.775
40877SOL     OW24527   4.000  10.707  11.896
40877SOL    HW124528   3.936  10.735  11.961
40877SOL    HW224529   4.047  10.635  11.937
40878SOL     OW24530  12.791  10.225   9.360
40878SOL    HW124531  12.704  10.199   9.392
40878SOL    HW224532  12.851  10.195   9.429
40879SOL     OW24533   9.560   8.233   4.548
40879SOL    HW124534   9.507   8.240   4.468
40879SOL    HW224535   9.560   8.139   4.568
40880SOL     OW24536   9.842  11.440  11.737
40880SOL    HW124537   9.886  11.525  11.739
40880SOL    HW224538   9.909  11.379  11.707
40881SOL     OW24539  14.125  13.687  14.404
40881SOL    HW124540  14.150  13.748  14.334
40881SOL    HW224541  14.052  13.732  14.448
40882SOL     OW24542   0.575   9.021  14.452
40882SOL    HW124543   0.489   8.981  14.462
40882SOL    HW224544   0.622   8.961  14.394
40883SOL     OW24545   8.518  13.112   6.129
40883SOL    HW124546   8.461  13.154   6.194
40883SOL    HW224547   8.603  13.108   6.172
40884SOL     OW24548   5.944   6.071   5.148
40884SOL    HW124549   5.893   6.022   5.212
40884SOL    HW224550   6.007   6.120   5.201
40885SOL     OW24551   8.770  12.003   4.297
40885SOL    HW124552   8.702  12.002   4.231
40885SOL    HW224553   8.813  12.089   4.287
40886SOL     OW24554   7.866   8.232   4.178
40886SOL    HW124555   7.921   8.234   4.100
40886SOL    HW224556   7.779   8.207   4.145
40887SOL     OW24557   8.555  14.854  10.905
40887SOL    HW124558   8.538  14.762  10.926
40887SOL    HW224559   8.646  14.869  10.934
40888SOL     OW24560  10.287  11.259  14.807
40888SOL    HW124561  10.269  11.244  14.714
40888SOL    HW224562  10.339  11.340  14.808
40889SOL     OW24563   5.635  14.164   2.484
40889SOL    HW124564   5.676  14.091   2.437
40889SOL    HW224565   5.699  14.189   2.550
40890SOL     OW24566   6.611   0.156  12.183
40890SOL    HW124567   6.706   0.168  12.183
40890SOL    HW224568   6.591   0.129  12.094
40891SOL     OW24569   9.226   3.615   1.133
40891SOL    HW124570   9.273   3.622   1.216
40891SOL    HW224571   9.257   3.533   1.095
40892SOL     OW24572   1.683   3.148   1.230
40892SOL    HW124573   1.749   3.198   1.277
40892SOL    HW224574   1.685   3.061   1.270
40893SOL     OW24575   6.090   5.966  14.237
40893SOL    HW124576   6.012   5.913  14.251
40893SOL    HW224577   6.160   5.902  14.225
40894SOL     OW24578  13.569  13.217  13.519
40894SOL    HW124579  13.617  13.139  13.548
40894SOL    HW224580  13.609  13.240  13.435
40895SOL     OW24581   1.119  14.832   6.397
40895SOL    HW124582   1.042  14.826   6.340
40895SOL    HW224583   1.086  14.869   6.479
40896SOL     OW24584   4.343  14.858   4.261
40896SOL    HW124585   4.374  14.846   4.351
40896SOL    HW224586   4.265   0.035   4.269
40897SOL     OW24587   4.215   7.327   1.067
40897SOL    HW124588   4.219   7.231   1.069
40897SOL    HW224589   4.192   7.347   0.976
40898SOL     OW24590   5.934   5.815   1.431
40898SOL    HW124591   6.000   5.745   1.428
40898SOL    HW224592   5.902   5.821   1.341
40899SOL     OW24593   9.483   0.622  14.042
40899SOL    HW124594   9.423   0.666  14.103
40899SOL    HW224595   9.457   0.530  14.045
40900SOL     OW24596   2.416   0.364   7.079
40900SOL    HW124597   2.471   0.442   7.070
40900SOL    HW224598   2.341   0.393   7.131
40901SOL     OW24599   3.573   9.308   1.062
40901SOL    HW124600   3.487   9.318   1.021
40901SOL    HW224601   3.623   9.384   1.032
40902SOL     OW24602  14.227   0.520   9.375
40902SOL    HW124603  14.141   0.500   9.412
40902SOL    HW224604  14.272   0.435   9.373
40903SOL     OW24605  13.216   9.610   1.050
40903SOL    HW124606  13.135   9.651   1.021
40903SOL    HW224607  13.212   9.521   1.014
40904SOL     OW24608   9.966  10.032  13.181
40904SOL    HW124609  10.047  10.038  13.230
40904SOL    HW224610   9.989   9.982  13.102
40905SOL     OW24611   4.366   8.655  14.084
40905SOL    HW124612   4.378   8.571  14.129
40905SOL    HW224613   4.273   8.656  14.060
40906SOL     OW24614   9.809   3.728  13.279
40906SOL    HW124615   9.885   3.714  13.222
40906SOL    HW224616   9.795   3.822  13.278
40907SOL     OW24617  11.619   5.256   6.730
40907SOL    HW124618  11.591   5.334   6.683
40907SOL    HW224619  11.671   5.207   6.666
40908SOL     OW24620  10.007   2.133   6.560
40908SOL    HW124621  10.102   2.120   6.571
40908SOL    HW224622   9.996   2.146   6.465
40909SOL     OW24623  14.617  14.566   0.274
40909SOL    HW124624  14.628  14.639   0.213
40909SOL    HW224625  14.589  14.493   0.220
40910SOL     OW24626  12.912   9.092   2.604
40910SOL    HW124627  12.910   8.997   2.618
40910SOL    HW224628  12.850   9.106   2.532
40911SOL     OW24629  13.607   2.466  10.500
40911SOL    HW124630  13.565   2.471  10.585
40911SOL    HW224631  13.593   2.376  10.471
40912SOL     OW24632   8.363   5.996  12.700
40912SOL    HW124633   8.312   5.932  12.650
40912SOL    HW224634   8.311   6.076  12.698
40913SOL     OW24635  11.619   0.048   5.149
40913SOL    HW124636  11.675   0.110   5.102
40913SOL    HW224637  11.628   0.072   5.241
40914SOL     OW24638   3.583   7.625  12.534
40914SOL    HW124639   3.612   7.588  12.450
40914SOL    HW224640   3.632   7.707  12.542
40915SOL     OW24641   3.954   4.182   4.334
40915SOL    HW124642   3.915   4.206   4.250
40915SOL    HW224643   3.973   4.089   4.326
40916SOL     OW24644   0.883   6.329   5.560
40916SOL    HW124645   0.835   6.291   5.487
40916SOL    HW224646   0.849   6.419   5.566
40917SOL     OW24647   2.826   2.012  14.440
40917SOL    HW124648   2.762   2.080  14.415
40917SOL    HW224649   2.789   1.931  14.406
40918SOL     OW24650  11.730   4.688   5.283
40918SOL    HW124651  11.658   4.664   5.225
40918SOL    HW224652  11.701   4.661   5.370
40919SOL     OW24653   5.934  13.533   7.737
40919SOL    HW124654   5.952  13.462   7.676
40919SOL    HW224655   6.014  13.542   7.789
40920SOL     OW24656   9.179   2.807   8.182
40920SOL    HW124657   9.156   2.751   8.108
40920SOL    HW224658   9.266   2.777   8.209
40921SOL     OW24659   8.462   0.411  12.937
40921SOL    HW124660   8.539   0.359  12.914
40921SOL    HW224661   8.474   0.434  13.029
40922SOL     OW24662  13.610  12.023   4.639
40922SOL    HW124663  13.595  12.114   4.616
40922SOL    HW224664  13.673  12.027   4.712
40923SOL     OW24665  12.431  11.592   9.119
40923SOL    HW124666  12.363  11.531   9.146
40923SOL    HW224667  12.500  11.536   9.082
40924SOL     OW24668   2.252   1.933   5.676
40924SOL    HW124669   2.218   1.898   5.758
40924SOL    HW224670   2.177   1.930   5.616
40925SOL     OW24671   8.455   6.797  13.674
40925SOL    HW124672   8.426   6.706  13.663
40925SOL    HW224673   8.388   6.849  13.630
40926SOL     OW24674  10.806   2.294   0.315
40926SOL    HW124675  10.837   2.268   0.228
40926SOL    HW224676  10.713   2.271   0.315
40927SOL     OW24677   0.015  10.678   0.990
40927SOL    HW124678  14.860  10.726   0.913
40927SOL    HW224679  14.862  10.729   1.064
40928SOL     OW24680   2.541   3.509   7.053
40928SOL    HW124681   2.474   3.498   7.121
40928SOL    HW224682   2.500   3.565   6.987
40929SOL     OW24683   0.413   1.060   5.200
40929SOL    HW124684   0.469   1.127   5.240
40929SOL    HW224685   0.430   1.068   5.106
40930SOL     OW24686   0.967   7.318   6.277
40930SOL    HW124687   0.923   7.235   6.296
40930SOL    HW224688   0.921   7.352   6.200
40931SOL     OW24689   2.814  13.793   7.306
40931SOL    HW124690   2.808  13.732   7.233
40931SOL    HW224691   2.835  13.738   7.382
40932SOL     OW24692   6.979   3.425   5.226
40932SOL    HW124693   6.953   3.475   5.303
40932SOL    HW224694   6.953   3.480   5.152
40933SOL     OW24695   3.768   5.738   2.495
40933SOL    HW124696   3.774   5.832   2.478
40933SOL    HW224697   3.701   5.707   2.434
40934SOL     OW24698   1.199   2.155   9.248
40934SOL    HW124699   1.158   2.147   9.333
40934SOL    HW224700   1.163   2.236   9.211
40935SOL     OW24701   0.512   7.510   0.774
40935SOL    HW124702   0.470   7.464   0.847
40935SOL    HW224703   0.583   7.452   0.746
40936SOL     OW24704  11.371   1.487   6.308
40936SOL    HW124705  11.294   1.431   6.320
40936SOL    HW224706  11.386   1.526   6.395
40937SOL     OW24707   5.121  12.333   6.423
40937SOL    HW124708   5.165  12.260   6.464
40937SOL    HW224709   5.139  12.408   6.479
40938SOL     OW24710  10.765   0.806   2.196
40938SOL    HW124711  10.826   0.733   2.199
40938SOL    HW224712  10.678   0.765   2.206
40939SOL     OW24713  14.134   5.064   2.563
40939SOL    HW124714  14.113   5.132   2.500
40939SOL    HW224715  14.159   5.112   2.642
40940SOL     OW24716  12.649   8.398  13.155
40940SOL    HW124717  12.727   8.441  13.120
40940SOL    HW224718  12.596   8.471  13.190
40941SOL     OW24719  12.584   5.648  11.134
40941SOL    HW124720  12.575   5.722  11.194
40941SOL    HW224721  12.634   5.682  11.060
40942SOL     OW24722  12.749  14.024  13.987
40942SOL    HW124723  12.682  14.057  14.047
40942SOL    HW224724  12.720  13.936  13.965
40943SOL     OW24725   6.212  14.725   4.190
40943SOL    HW124726   6.287  14.772   4.226
40943SOL    HW224727   6.170  14.788   4.132
40944SOL     OW24728  11.100  13.636  11.078
40944SOL    HW124729  11.184  13.597  11.054
40944SOL    HW224730  11.041  13.561  11.090
40945SOL     OW24731  14.560   8.379   3.188
40945SOL    HW124732  14.598   8.440   3.251
40945SOL    HW224733  14.631   8.318   3.168
40946SOL     OW24734   3.324   9.800   2.903
40946SOL    HW124735   3.409   9.787   2.945
40946SOL    HW224736   3.275   9.720   2.923
40947SOL     OW24737   3.562   8.683   5.000
40947SOL    HW124738   3.640   8.662   5.051
40947SOL    HW224739   3.490   8.646   5.050
40948SOL     OW24740   9.540  10.766  13.771
40948SOL    HW124741   9.456  10.793  13.735
40948SOL    HW224742   9.517  10.702  13.839
40949SOL     OW24743   0.469  10.944  10.243
40949SOL    HW124744   0.506  11.006  10.180
40949SOL    HW224745   0.519  10.863  10.228
40950SOL     OW24746   7.008   8.291  10.365
40950SOL    HW124747   6.924   8.276  10.408
40950SOL    HW224748   7.050   8.359  10.418
40951SOL     OW24749   8.521   6.085  11.510
40951SOL    HW124750   8.581   6.116  11.577
40951SOL    HW224751   8.536   6.143  11.435
40952SOL     OW24752   9.608   7.703  13.000
40952SOL    HW124753   9.659   7.777  12.966
40952SOL    HW224754   9.523   7.710  12.955
40953SOL     OW24755   4.277   1.735   0.141
40953SOL    HW124756   4.232   1.695   0.216
40953SOL    HW224757   4.238   1.692   0.065
40954SOL     OW24758   2.896   5.531  14.568
40954SOL    HW124759   2.837   5.597  14.607
40954SOL    HW224760   2.894   5.550  14.474
40955SOL     OW24761   6.891   4.687   8.636
40955SOL    HW124762   6.921   4.675   8.726
40955SOL    HW224763   6.970   4.711   8.587
40956SOL     OW24764   0.328  14.410   0.912
40956SOL    HW124765   0.363  14.369   0.991
40956SOL    HW224766   0.260  14.349   0.883
40957SOL     OW24767   9.195  11.713   5.856
40957SOL    HW124768   9.259  11.765   5.905
40957SOL    HW224769   9.207  11.624   5.887
40958SOL     OW24770   2.382   0.389   5.143
40958SOL    HW124771   2.348   0.416   5.228
40958SOL    HW224772   2.465   0.345   5.163
40959SOL     OW24773   0.021  10.201   3.701
40959SOL    HW124774   0.071  10.120   3.703
40959SOL    HW224775  14.818  10.180   3.749
40960SOL     OW24776   7.814  14.116   6.652
40960SOL    HW124777   7.896  14.160   6.676
40960SOL    HW224778   7.754  14.136   6.724
40961SOL     OW24779   0.458   2.062   9.031
40961SOL    HW124780   0.402   2.111   9.092
40961SOL    HW224781   0.439   2.099   8.945
40962SOL     OW24782  13.021   9.366   1.892
40962SOL    HW124783  13.084   9.317   1.840
40962SOL    HW224784  12.948   9.305   1.904
40963SOL     OW24785   4.312   4.118   8.668
40963SOL    HW124786   4.226   4.122   8.628
40963SOL    HW224787   4.295   4.108   8.761
40964SOL     OW24788   0.595   5.369   7.402
40964SOL    HW124789   0.660   5.438   7.386
40964SOL    HW224790   0.543   5.401   7.475
40965SOL     OW24791   1.971  14.673   9.392
40965SOL    HW124792   1.928  14.672   9.306
40965SOL    HW224793   1.943  14.755   9.432
40966SOL     OW24794   1.276  13.616   4.220
40966SOL    HW124795   1.319  13.700   4.235
40966SOL    HW224796   1.227  13.628   4.139
40967SOL     OW24797   7.329   8.840   1.867
40967SOL    HW124798   7.281   8.796   1.797
40967SOL    HW224799   7.388   8.772   1.902
40968SOL     OW24800   4.739   6.476  11.412
40968SOL    HW124801   4.667   6.516  11.463
40968SOL    HW224802   4.694   6.421  11.347
40969SOL     OW24803   2.822   4.117   7.831
40969SOL    HW124804   2.770   4.196   7.818
40969SOL    HW224805   2.769   4.047   7.792
40970SOL     OW24806   3.186   4.589   6.992
40970SOL    HW124807   3.176   4.529   7.065
40970SOL    HW224808   3.135   4.667   7.017
40971SOL     OW24809   0.294   9.771   7.464
40971SOL    HW124810   0.287   9.866   7.455
40971SOL    HW224811   0.204   9.741   7.472
40972SOL     OW24812  13.342  12.615  13.973
40972SOL    HW124813  13.375  12.650  13.890
40972SOL    HW224814  13.415  12.563  14.007
40973SOL     OW24815   9.412   5.294  13.853
40973SOL    HW124816   9.361   5.367  13.817
40973SOL    HW224817   9.490   5.289  13.797
40974SOL     OW24818   8.445   1.235   1.466
40974SOL    HW124819   8.383   1.251   1.395
40974SOL    HW224820   8.484   1.320   1.485
40975SOL     OW24821  11.294   4.875   1.467
40975SOL    HW124822  11.284   4.848   1.375
40975SOL    HW224823  11.380   4.840   1.492
40976SOL     OW24824   9.353  14.427  13.328
40976SOL    HW124825   9.397  14.395  13.408
40976SOL    HW224826   9.414  14.491  13.292
40977SOL     OW24827   3.459  14.069  11.054
40977SOL    HW124828   3.421  14.011  11.119
40977SOL    HW224829   3.548  14.087  11.086
40978SOL     OW24830   6.550  10.381  14.129
40978SOL    HW124831   6.525  10.357  14.218
40978SOL    HW224832   6.524  10.305  14.076
40979SOL     OW24833   2.691  12.864   5.945
40979SOL    HW124834   2.632  12.855   6.020
40979SOL    HW224835   2.683  12.955   5.919
40980SOL     OW24836   8.087   1.434   2.329
40980SOL    HW124837   8.102   1.349   2.288
40980SOL    HW224838   8.129   1.496   2.271
40981SOL     OW24839   9.864   6.514  12.988
40981SOL    HW124840   9.935   6.523  12.924
40981SOL    HW224841   9.848   6.420  12.993
40982SOL     OW24842   9.665  11.239   9.310
40982SOL    HW124843   9.585  11.237   9.258
40982SOL    HW224844   9.684  11.333   9.321
40983SOL     OW24845  10.022   4.619  13.573
40983SOL    HW124846  10.034   4.544  13.632
40983SOL    HW224847  10.111   4.647  13.552
40984SOL     OW24848  11.141   9.022  12.875
40984SOL    HW124849  11.220   8.970  12.865
40984SOL    HW224850  11.074   8.975  12.824
40985SOL     OW24851  10.826  13.077   5.256
40985SOL    HW124852  10.731  13.080   5.254
40985SOL    HW224853  10.849  13.103   5.345
40986SOL     OW24854   4.101   5.086   3.678
40986SOL    HW124855   4.132   5.010   3.728
40986SOL    HW224856   4.162   5.156   3.701
40987SOL     OW24857   4.813   4.797  11.302
40987SOL    HW124858   4.866   4.796  11.382
40987SOL    HW224859   4.746   4.864  11.319
40988SOL     OW24860  14.369  10.681   2.799
40988SOL    HW124861  14.346  10.600   2.845
40988SOL    HW224862  14.329  10.750   2.852
40989SOL     OW24863   5.347  11.062   0.955
40989SOL    HW124864   5.308  11.147   0.972
40989SOL    HW224865   5.433  11.067   0.996
40990SOL     OW24866  12.835  10.630   5.238
40990SOL    HW124867  12.894  10.694   5.277
40990SOL    HW224868  12.748  10.653   5.271
40991SOL     OW24869   4.249   7.963  12.589
40991SOL    HW124870   4.223   7.890  12.532
40991SOL    HW224871   4.168   8.008  12.609
40992SOL     OW24872   3.056   3.600  12.309
40992SOL    HW124873   2.985   3.538  12.295
40992SOL    HW224874   3.125   3.548  12.350
40993SOL     OW24875  12.612   4.277  12.447
40993SOL    HW124876  12.532   4.290  12.397
40993SOL    HW224877  12.631   4.184  12.439
40994SOL     OW24878  13.592   1.427  13.230
40994SOL    HW124879  13.590   1.499  13.293
40994SOL    HW224880  13.669   1.376  13.254
40995SOL     OW24881   2.786   8.223   1.739
40995SOL    HW124882   2.826   8.136   1.746
40995SOL    HW224883   2.849   8.274   1.689
40996SOL     OW24884  11.342  10.658  12.895
40996SOL    HW124885  11.434  10.648  12.874
40996SOL    HW224886  11.298  10.666  12.810
40997SOL     OW24887   1.391   6.827   3.564
40997SOL    HW124888   1.398   6.731   3.569
40997SOL    HW224889   1.374   6.855   3.654
40998SOL     OW24890   9.944  12.128  13.748
40998SOL    HW124891   9.974  12.181  13.674
40998SOL    HW224892   9.848  12.131  13.744
40999SOL     OW24893   3.851  11.659   3.513
40999SOL    HW124894   3.765  11.619   3.529
40999SOL    HW224895   3.851  11.679   3.420
41000SOL     OW24896   3.514  13.586  10.168
41000SOL    HW124897   3.452  13.657  10.181
41000SOL    HW224898   3.472  13.529  10.103
41001SOL     OW24899   2.830   2.988   3.513
41001SOL    HW124900   2.809   2.905   3.555
41001SOL    HW224901   2.874   2.964   3.432
41002SOL     OW24902  10.505   4.949   6.854
41002SOL    HW124903  10.426   4.975   6.901
41002SOL    HW224904  10.573   5.009   6.886
41003SOL     OW24905   3.761  13.784   8.887
41003SOL    HW124906   3.690  13.811   8.946
41003SOL    HW224907   3.722  13.715   8.833
41004SOL     OW24908   7.012   2.471   7.744
41004SOL    HW124909   6.986   2.406   7.810
41004SOL    HW224910   6.930   2.508   7.713
41005SOL     OW24911   8.370  10.098  13.879
41005SOL    HW124912   8.274  10.093  13.882
41005SOL    HW224913   8.395  10.123  13.968
41006SOL     OW24914  11.950   6.251   4.414
41006SOL    HW124915  12.037   6.226   4.445
41006SOL    HW224916  11.940   6.206   4.330
41007SOL     OW24917  10.953   9.215   8.375
41007SOL    HW124918  10.883   9.233   8.438
41007SOL    HW224919  10.928   9.132   8.336
41008SOL     OW24920   8.093  13.423   0.507
41008SOL    HW124921   8.142  13.415   0.425
41008SOL    HW224922   8.019  13.480   0.485
41009SOL     OW24923   5.625  10.915  13.255
41009SOL    HW124924   5.623  10.895  13.161
41009SOL    HW224925   5.532  10.923  13.279
41010SOL     OW24926  10.923  14.717   1.436
41010SOL    HW124927  10.935  14.634   1.482
41010SOL    HW224928  10.932  14.784   1.505
41011SOL     OW24929  12.081  12.285   5.599
41011SOL    HW124930  12.112  12.316   5.684
41011SOL    HW224931  12.160  12.257   5.553
41012SOL     OW24932   4.286  11.529   6.172
41012SOL    HW124933   4.364  11.480   6.198
41012SOL    HW224934   4.214  11.487   6.219
41013SOL     OW24935  14.154  12.189  14.427
41013SOL    HW124936  14.216  12.184  14.500
41013SOL    HW224937  14.069  12.203  14.469
41014SOL     OW24938   6.912  14.869  11.378
41014SOL    HW124939   6.925  14.808  11.450
41014SOL    HW224940   6.818   0.012  11.380
41015SOL     OW24941   5.523  10.921   3.813
41015SOL    HW124942   5.541  10.827   3.809
41015SOL    HW224943   5.448  10.934   3.755
41016SOL     OW24944   2.311   6.117   1.418
41016SOL    HW124945   2.323   6.208   1.392
41016SOL    HW224946   2.384   6.071   1.376
41017SOL     OW24947   9.858  14.408   2.188
41017SOL    HW124948   9.769  14.437   2.168
41017SOL    HW224949   9.864  14.414   2.283
41018SOL     OW24950   0.298  14.181   6.817
41018SOL    HW124951   0.224  14.213   6.766
41018SOL    HW224952   0.306  14.243   6.889
41019SOL     OW24953   2.519   5.108   5.456
41019SOL    HW124954   2.530   5.106   5.551
41019SOL    HW224955   2.504   5.201   5.435
41020SOL     OW24956   8.087  13.813   3.938
41020SOL    HW124957   8.132  13.897   3.928
41020SOL    HW224958   8.123  13.777   4.019
41021SOL     OW24959  12.082  13.745   0.740
41021SOL    HW124960  12.167  13.777   0.710
41021SOL    HW224961  12.023  13.764   0.667
41022SOL     OW24962  13.806   4.784   7.035
41022SOL    HW124963  13.838   4.857   7.088
41022SOL    HW224964  13.731   4.820   6.989
41023SOL     OW24965   6.471   7.767   9.811
41023SOL    HW124966   6.514   7.683   9.797
41023SOL    HW224967   6.543   7.828   9.829
41024SOL     OW24968  12.721  12.947   6.620
41024SOL    HW124969  12.627  12.938   6.635
41024SOL    HW224970  12.752  13.001   6.693
41025SOL     OW24971   3.281   7.450  10.132
41025SOL    HW124972   3.299   7.356  10.141
41025SOL    HW224973   3.359   7.493  10.167
41026SOL     OW24974   6.539   2.761   3.304
41026SOL    HW124975   6.498   2.674   3.304
41026SOL    HW224976   6.483   2.814   3.247
41027SOL     OW24977   3.547   5.805   2.113
41027SOL    HW124978   3.513   5.799   2.024
41027SOL    HW224979   3.611   5.877   2.109
41028SOL     OW24980   2.349  10.037   0.369
41028SOL    HW124981   2.318   9.961   0.319
41028SOL    HW224982   2.434  10.058   0.328
41029SOL     OW24983   3.856   3.140  13.366
41029SOL    HW124984   3.839   3.048  13.384
41029SOL    HW224985   3.883   3.176  13.451
41030SOL     OW24986   0.121   0.092   4.512
41030SOL    HW124987   0.120  14.874   4.508
41030SOL    HW224988   0.078   0.114   4.595
41031SOL     OW24989  13.638   6.486   5.955
41031SOL    HW124990  13.544   6.505   5.960
41031SOL    HW224991  13.652   6.455   5.865
41032SOL     OW24992   0.639  13.434   2.920
41032SOL    HW124993   0.586  13.468   2.993
41032SOL    HW224994   0.725  13.419   2.959
41033SOL     OW24995   4.113   7.444   7.010
41033SOL    HW124996   4.161   7.398   6.941
41033SOL    HW224997   4.022   7.445   6.979
41034SOL     OW24998   7.370   0.904   0.480
41034SOL    HW124999   7.299   0.951   0.435
41034SOL    HW225000   7.406   0.846   0.413
41035SOL     OW25001   1.252   7.202   5.595
41035SOL    HW125002   1.241   7.243   5.681
41035SOL    HW225003   1.346   7.192   5.585
41036SOL     OW25004   4.087  11.109  10.977
41036SOL    HW125005   4.012  11.106  11.037
41036SOL    HW225006   4.080  11.195  10.935
41037SOL     OW25007  13.921  14.466   0.677
41037SOL    HW125008  14.002  14.516   0.665
41037SOL    HW225009  13.851  14.523   0.646
41038SOL     OW25010   9.113  13.154   3.879
41038SOL    HW125011   9.110  13.187   3.789
41038SOL    HW225012   9.200  13.178   3.910
41039SOL     OW25013   9.746   4.839  10.368
41039SOL    HW125014   9.668   4.893  10.356
41039SOL    HW225015   9.736   4.768  10.305
41040SOL     OW25016   3.195   9.476   6.106
41040SOL    HW125017   3.165   9.385   6.114
41040SOL    HW225018   3.127   9.528   6.149
41041SOL     OW25019   9.462  11.430  13.557
41041SOL    HW125020   9.544  11.480  13.560
41041SOL    HW225021   9.457  11.388  13.643
41042SOL     OW25022   1.434   5.613   8.095
41042SOL    HW125023   1.445   5.686   8.034
41042SOL    HW225024   1.353   5.632   8.142
41043SOL     OW25025  10.006   8.277   7.727
41043SOL    HW125026   9.997   8.190   7.689
41043SOL    HW225027  10.094   8.305   7.701
41044SOL     OW25028   4.918  14.278  10.453
41044SOL    HW125029   4.904  14.223  10.376
41044SOL    HW225030   4.834  14.322  10.467
41045SOL     OW25031   2.930   4.319   1.044
41045SOL    HW125032   2.995   4.292   1.109
41045SOL    HW225033   2.972   4.304   0.960
41046SOL     OW25034  14.219   1.168   6.680
41046SOL    HW125035  14.307   1.184   6.646
41046SOL    HW225036  14.223   1.197   6.771
41047SOL     OW25037   4.220   5.911   5.842
41047SOL    HW125038   4.297   5.968   5.838
41047SOL    HW225039   4.227   5.858   5.762
41048SOL     OW25040   7.536   0.984   3.889
41048SOL    HW125041   7.521   0.986   3.984
41048SOL    HW225042   7.579   1.067   3.869
41049SOL     OW25043   9.656  13.075  12.119
41049SOL    HW125044   9.562  13.059  12.124
41049SOL    HW225045   9.693  12.994  12.084
41050SOL     OW25046   3.339   3.160   8.756
41050SOL    HW125047   3.425   3.192   8.784
41050SOL    HW225048   3.305   3.228   8.699
41051SOL     OW25049  12.324   5.583   1.410
41051SOL    HW125050  12.309   5.493   1.438
41051SOL    HW225051  12.353   5.628   1.489
41052SOL     OW25052   3.558   3.362   3.773
41052SOL    HW125053   3.604   3.279   3.780
41052SOL    HW225054   3.466   3.340   3.787
41053SOL     OW25055   5.830   9.609  14.547
41053SOL    HW125056   5.783   9.691  14.534
41053SOL    HW225057   5.818   9.588  14.640
41054SOL     OW25058   3.424   5.550  10.962
41054SOL    HW125059   3.454   5.564  10.872
41054SOL    HW225060   3.480   5.479  10.994
41055SOL     OW25061   3.174   9.558   2.176
41055SOL    HW125062   3.230   9.550   2.254
41055SOL    HW225063   3.117   9.632   2.196
41056SOL     OW25064   2.393   5.751  13.641
41056SOL    HW125065   2.434   5.823  13.593
41056SOL    HW225066   2.465   5.693  13.665
41057SOL     OW25067   8.756  12.614   2.492
41057SOL    HW125068   8.785  12.699   2.528
41057SOL    HW225069   8.837  12.565   2.481
41058SOL     OW25070   7.923   6.162   3.191
41058SOL    HW125071   8.016   6.144   3.186
41058SOL    HW225072   7.884   6.080   3.222
41059SOL     OW25073   1.386   4.413   3.672
41059SOL    HW125074   1.329   4.417   3.595
41059SOL    HW225075   1.415   4.322   3.675
41060SOL     OW25076  11.916   8.478  14.004
41060SOL    HW125077  11.868   8.445  13.927
41060SOL    HW225078  12.007   8.457  13.986
41061SOL     OW25079   7.199   7.675  11.154
41061SOL    HW125080   7.147   7.646  11.229
41061SOL    HW225081   7.281   7.626  11.161
41062SOL     OW25082  14.478   0.323  11.173
41062SOL    HW125083  14.528   0.402  11.154
41062SOL    HW225084  14.468   0.280  11.088
41063SOL     OW25085   1.126  10.033   8.528
41063SOL    HW125086   1.108  10.122   8.496
41063SOL    HW225087   1.208  10.041   8.576
41064SOL     OW25088  14.672   3.315   7.683
41064SOL    HW125089  14.761   3.351   7.688
41064SOL    HW225090  14.627   3.370   7.620
41065SOL     OW25091   5.179  12.003   2.835
41065SOL    HW125092   5.185  12.099   2.834
41065SOL    HW225093   5.234  11.975   2.762
41066SOL     OW25094   6.391   3.716   3.849
41066SOL    HW125095   6.416   3.724   3.757
41066SOL    HW225096   6.330   3.642   3.852
41067SOL     OW25097   9.214   6.448   4.655
41067SOL    HW125098   9.243   6.385   4.590
41067SOL    HW225099   9.118   6.442   4.654
41068SOL     OW25100   4.496   6.532   4.388
41068SOL    HW125101   4.571   6.494   4.434
41068SOL    HW225102   4.508   6.505   4.297
41069SOL     OW25103  10.511  10.586   1.961
41069SOL    HW125104  10.450  10.516   1.939
41069SOL    HW225105  10.457  10.652   2.004
41070SOL     OW25106  10.172   4.276   9.442
41070SOL    HW125107  10.120   4.304   9.367
41070SOL    HW225108  10.244   4.339   9.445
41071SOL     OW25109   3.913  10.512   9.703
41071SOL    HW125110   3.964  10.452   9.756
41071SOL    HW225111   3.825  10.510   9.741
41072SOL     OW25112   6.291  13.679   1.894
41072SOL    HW125113   6.283  13.590   1.859
41072SOL    HW225114   6.322  13.730   1.819
41073SOL     OW25115   4.508  12.646   6.030
41073SOL    HW125116   4.483  12.555   6.011
41073SOL    HW225117   4.549  12.641   6.116
41074SOL     OW25118   1.359   1.727  11.639
41074SOL    HW125119   1.306   1.685  11.707
41074SOL    HW225120   1.296   1.774  11.584
41075SOL     OW25121   8.656  11.950   4.541
41075SOL    HW125122   8.692  11.966   4.454
41075SOL    HW225123   8.577  12.004   4.545
41076SOL     OW25124   8.598  14.686   3.883
41076SOL    HW125125   8.627  14.609   3.835
41076SOL    HW225126   8.540  14.652   3.951
41077SOL     OW25127   4.477   6.434  10.365
41077SOL    HW125128   4.516   6.352  10.395
41077SOL    HW225129   4.485   6.493  10.440
41078SOL     OW25130  12.692   8.658  10.295
41078SOL    HW125131  12.686   8.626  10.205
41078SOL    HW225132  12.728   8.747  10.287
41079SOL     OW25133   9.311  12.107   4.586
41079SOL    HW125134   9.234  12.130   4.534
41079SOL    HW225135   9.370  12.182   4.574
41080SOL     OW25136  13.864   1.325   0.676
41080SOL    HW125137  13.809   1.397   0.707
41080SOL    HW225138  13.823   1.297   0.594
41081SOL     OW25139   8.543  13.060   7.563
41081SOL    HW125140   8.491  12.995   7.515
41081SOL    HW225141   8.537  13.033   7.654
41082SOL     OW25142   8.759   5.013   3.597
41082SOL    HW125143   8.667   4.992   3.581
41082SOL    HW225144   8.769   5.104   3.570
41083SOL     OW25145   8.512   8.760  11.255
41083SOL    HW125146   8.581   8.712  11.207
41083SOL    HW225147   8.541   8.851  11.254
41084SOL     OW25148   3.407  14.674   8.125
41084SOL    HW125149   3.419  14.759   8.083
41084SOL    HW225150   3.443  14.611   8.063
41085SOL     OW25151   1.990  10.744   7.791
41085SOL    HW125152   1.903  10.784   7.789
41085SOL    HW225153   1.998  10.707   7.879
41086SOL     OW25154  12.789  13.000  11.183
41086SOL    HW125155  12.827  13.086  11.166
41086SOL    HW225156  12.791  12.991  11.278
41087SOL     OW25157   5.346  13.033  11.869
41087SOL    HW125158   5.291  13.107  11.897
41087SOL    HW225159   5.357  12.981  11.949
41088SOL     OW25160  13.121   5.700   7.685
41088SOL    HW125161  13.070   5.776   7.659
41088SOL    HW225162  13.212   5.724   7.668
41089SOL     OW25163   0.321   2.226   8.756
41089SOL    HW125164   0.336   2.316   8.786
41089SOL    HW225165   0.252   2.234   8.690
41090SOL     OW25166   8.192   7.057   4.030
41090SOL    HW125167   8.164   6.966   4.041
41090SOL    HW225168   8.182   7.095   4.118
41091SOL     OW25169   2.641  10.506  14.379
41091SOL    HW125170   2.584  10.557  14.322
41091SOL    HW225171   2.602  10.419  14.382
41092SOL     OW25172  10.807   9.142   3.733
41092SOL    HW125173  10.724   9.138   3.685
41092SOL    HW225174  10.854   9.063   3.706
41093SOL     OW25175   8.817   9.362   3.702
41093SOL    HW125176   8.739   9.330   3.657
41093SOL    HW225177   8.872   9.399   3.632
41094SOL     OW25178   8.116   3.453  11.843
41094SOL    HW125179   8.041   3.469  11.786
41094SOL    HW225180   8.173   3.530  11.831
41095SOL     OW25181   7.867   0.750  11.940
41095SOL    HW125182   7.804   0.807  11.895
41095SOL    HW225183   7.834   0.661  11.925
41096SOL     OW25184   4.171   3.733  14.860
41096SOL    HW125185   4.094   3.696  14.817
41096SOL    HW225186   4.237   3.737  14.791
41097SOL     OW25187   3.536  12.337   2.999
41097SOL    HW125188   3.529  12.287   3.081
41097SOL    HW225189   3.540  12.270   2.931
41098SOL     OW25190   8.129  11.317  10.318
41098SOL    HW125191   8.207  11.309  10.374
41098SOL    HW225192   8.147  11.392  10.262
41099SOL     OW25193   0.353   3.367   4.617
41099SOL    HW125194   0.364   3.273   4.633
41099SOL    HW225195   0.262   3.385   4.640
41100SOL     OW25196   3.171   8.244   5.001
41100SOL    HW125197   3.221   8.222   5.079
41100SOL    HW225198   3.227   8.305   4.952
41101SOL     OW25199   5.994   6.252   0.461
41101SOL    HW125200   5.931   6.264   0.532
41101SOL    HW225201   6.025   6.340   0.441
41102SOL     OW25202   6.252  10.079   2.167
41102SOL    HW125203   6.184  10.137   2.200
41102SOL    HW225204   6.292  10.127   2.095
41103SOL     OW25205   5.586   8.619   7.477
41103SOL    HW125206   5.672   8.625   7.434
41103SOL    HW225207   5.597   8.550   7.542
41104SOL     OW25208   8.777   1.990   2.477
41104SOL    HW125209   8.714   1.918   2.485
41104SOL    HW225210   8.863   1.947   2.479
41105SOL     OW25211   5.696   9.835  11.738
41105SOL    HW125212   5.766   9.820  11.801
41105SOL    HW225213   5.617   9.806  11.783
41106SOL     OW25214   9.703  14.481   1.658
41106SOL    HW125215   9.794  14.508   1.652
41106SOL    HW225216   9.653  14.562   1.656
41107SOL     OW25217  13.685   7.276   6.905
41107SOL    HW125218  13.771   7.311   6.930
41107SOL    HW225219  13.670   7.203   6.965
41108SOL     OW25220  12.982   6.087   5.858
41108SOL    HW125221  12.982   5.993   5.877
41108SOL    HW225222  12.917   6.123   5.919
41109SOL     OW25223  12.038   6.803   1.292
41109SOL    HW125224  12.113   6.794   1.234
41109SOL    HW225225  11.988   6.875   1.256
41110SOL     OW25226   0.219  12.459  12.687
41110SOL    HW125227   0.257  12.406  12.617
41110SOL    HW225228   0.247  12.548  12.669
41111SOL     OW25229  12.783   1.108   9.281
41111SOL    HW125230  12.747   1.171   9.343
41111SOL    HW225231  12.871   1.140   9.263
41112SOL     OW25232   5.246  12.561  10.343
41112SOL    HW125233   5.162  12.530  10.377
41112SOL    HW225234   5.268  12.500  10.273
41113SOL     OW25235  10.817   8.708   3.158
41113SOL    HW125236  10.834   8.614   3.156
41113SOL    HW225237  10.898   8.748   3.128
41114SOL     OW25238  10.489   2.786   5.869
41114SOL    HW125239  10.494   2.724   5.941
41114SOL    HW225240  10.579   2.815   5.856
41115SOL     OW25241   8.669  13.238   5.576
41115SOL    HW125242   8.597  13.174   5.576
41115SOL    HW225243   8.695  13.245   5.484
41116SOL     OW25244  11.067   3.443   6.039
41116SOL    HW125245  11.144   3.388   6.025
41116SOL    HW225246  10.998   3.401   5.988
41117SOL     OW25247   8.013   6.698   2.356
41117SOL    HW125248   8.065   6.640   2.300
41117SOL    HW225249   8.008   6.652   2.439
41118SOL     OW25250   2.879   9.424   3.094
41118SOL    HW125251   2.817   9.361   3.132
41118SOL    HW225252   2.943   9.369   3.048
41119SOL     OW25253   1.201   5.763  13.082
41119SOL    HW125254   1.212   5.757  13.177
41119SOL    HW225255   1.138   5.694  13.061
41120SOL     OW25256   8.323   4.643   9.649
41120SOL    HW125257   8.400   4.635   9.705
41120SOL    HW225258   8.270   4.566   9.671
41121SOL     OW25259   1.121  14.808  13.106
41121SOL    HW125260   1.201  14.755  13.100
41121SOL    HW225261   1.151   0.015  13.138
41122SOL     OW25262   2.627   2.857  10.307
41122SOL    HW125263   2.608   2.786  10.368
41122SOL    HW225264   2.719   2.879  10.324
41123SOL     OW25265   9.550   6.619  12.215
41123SOL    HW125266   9.483   6.634  12.149
41123SOL    HW225267   9.501   6.594  12.294
41124SOL     OW25268   6.049   0.025  13.139
41124SOL    HW125269   5.964   0.007  13.180
41124SOL    HW225270   6.036  14.877  13.047
41125SOL     OW25271   0.444   4.935  10.987
41125SOL    HW125272   0.407   4.847  10.978
41125SOL    HW225273   0.456   4.947  11.081
41126SOL     OW25274  13.366   8.317  12.698
41126SOL    HW125275  13.421   8.260  12.752
41126SOL    HW225276  13.306   8.358  12.760
41127SOL     OW25277   0.683   4.637   4.826
41127SOL    HW125278   0.702   4.543   4.820
41127SOL    HW225279   0.671   4.665   4.735
41128SOL     OW25280  11.884   4.327   3.984
41128SOL    HW125281  11.848   4.395   3.927
41128SOL    HW225282  11.812   4.266   3.997
41129SOL     OW25283   7.761  14.729  14.811
41129SOL    HW125284   7.812  14.657  14.774
41129SOL    HW225285   7.694  14.748  14.745
41130SOL     OW25286   7.315  13.173   6.221
41130SOL    HW125287   7.250  13.214   6.163
41130SOL    HW225288   7.300  13.079   6.211
41131SOL     OW25289   2.762  14.103   6.109
41131SOL    HW125290   2.681  14.106   6.159
41131SOL    HW225291   2.828  14.072   6.172
41132SOL     OW25292   1.355  13.465   5.595
41132SOL    HW125293   1.392  13.525   5.530
41132SOL    HW225294   1.279  13.512   5.629
41133SOL     OW25295  11.901  11.147   5.511
41133SOL    HW125296  11.896  11.179   5.601
41133SOL    HW225297  11.844  11.207   5.461
41134SOL     OW25298  14.156   9.754   2.361
41134SOL    HW125299  14.212   9.738   2.285
41134SOL    HW225300  14.084   9.807   2.327
41135SOL     OW25301   1.892   7.623   2.171
41135SOL    HW125302   1.971   7.647   2.220
41135SOL    HW225303   1.875   7.532   2.195
41136SOL     OW25304  12.108  14.484  10.402
41136SOL    HW125305  12.136  14.508  10.314
41136SOL    HW225306  12.171  14.527  10.461
41137SOL     OW25307  12.377   9.778  13.106
41137SOL    HW125308  12.339   9.855  13.148
41137SOL    HW225309  12.453   9.755  13.159
41138SOL     OW25310  13.923  12.408   3.605
41138SOL    HW125311  13.858  12.365   3.660
41138SOL    HW225312  13.954  12.482   3.658
41139SOL     OW25313   3.514   2.655   0.402
41139SOL    HW125314   3.469   2.621   0.324
41139SOL    HW225315   3.446   2.663   0.468
41140SOL     OW25316   0.741  14.049  14.739
41140SOL    HW125317   0.749  14.106  14.815
41140SOL    HW225318   0.681  14.095  14.681
41141SOL     OW25319   3.085   1.702   8.102
41141SOL    HW125320   3.136   1.741   8.031
41141SOL    HW225321   3.086   1.769   8.171
41142SOL     OW25322  13.534   5.171   4.968
41142SOL    HW125323  13.488   5.207   5.044
41142SOL    HW225324  13.508   5.228   4.895
41143SOL     OW25325   9.971   9.449   5.514
41143SOL    HW125326  10.006   9.459   5.603
41143SOL    HW225327   9.909   9.521   5.504
41144SOL     OW25328  10.339  12.455   4.990
41144SOL    HW125329  10.289  12.375   4.976
41144SOL    HW225330  10.284  12.508   5.048
41145SOL     OW25331   8.663   8.869   4.751
41145SOL    HW125332   8.741   8.890   4.802
41145SOL    HW225333   8.629   8.789   4.790
41146SOL     OW25334   4.784   6.488   4.436
41146SOL    HW125335   4.833   6.484   4.518
41146SOL    HW225336   4.826   6.558   4.386
41147SOL     OW25337  12.172  10.088  12.952
41147SOL    HW125338  12.236  10.083  12.881
41147SOL    HW225339  12.219  10.055  13.028
41148SOL     OW25340  10.501  13.258  11.762
41148SOL    HW125341  10.540  13.210  11.689
41148SOL    HW225342  10.530  13.209  11.840
41149SOL     OW25343   3.166  10.404   6.311
41149SOL    HW125344   3.197  10.493   6.329
41149SOL    HW225345   3.096  10.415   6.248
41150SOL     OW25346   8.183   3.696   9.935
41150SOL    HW125347   8.109   3.757   9.946
41150SOL    HW225348   8.212   3.709   9.844
41151SOL     OW25349  13.138   2.133   4.051
41151SOL    HW125350  13.115   2.138   3.958
41151SOL    HW225351  13.123   2.222   4.083
41152SOL     OW25352  13.033   0.569   9.978
41152SOL    HW125353  13.012   0.612  10.061
41152SOL    HW225354  13.033   0.475   9.999
41153SOL     OW25355  10.223   9.169   2.446
41153SOL    HW125356  10.248   9.229   2.376
41153SOL    HW225357  10.131   9.190   2.464
41154SOL     OW25358   5.214   0.869   6.226
41154SOL    HW125359   5.306   0.867   6.252
41154SOL    HW225360   5.197   0.783   6.188
41155SOL     OW25361   5.820   2.861   3.261
41155SOL    HW125362   5.806   2.828   3.172
41155SOL    HW225363   5.888   2.804   3.297
41156SOL     OW25364   8.735   4.310   9.373
41156SOL    HW125365   8.758   4.229   9.327
41156SOL    HW225366   8.646   4.329   9.344
41157SOL     OW25367   5.774   7.577  13.699
41157SOL    HW125368   5.781   7.631  13.777
41157SOL    HW225369   5.751   7.638  13.629
41158SOL     OW25370  10.052   8.504   5.003
41158SOL    HW125371  10.012   8.568   4.944
41158SOL    HW225372  10.144   8.501   4.976
41159SOL     OW25373   8.614  14.308   4.855
41159SOL    HW125374   8.633  14.356   4.774
41159SOL    HW225375   8.526  14.336   4.880
41160SOL     OW25376   1.261   6.486   7.840
41160SOL    HW125377   1.298   6.496   7.928
41160SOL    HW225378   1.177   6.531   7.844
41161SOL     OW25379  12.240  13.837  12.028
41161SOL    HW125380  12.196  13.777  12.087
41161SOL    HW225381  12.170  13.892  11.993
41162SOL     OW25382   7.036   7.815  11.436
41162SOL    HW125383   7.042   7.732  11.484
41162SOL    HW225384   6.943   7.838  11.440
41163SOL     OW25385   3.693   5.869   9.579
41163SOL    HW125386   3.696   5.865   9.675
41163SOL    HW225387   3.635   5.942   9.559
41164SOL     OW25388   6.364   2.857  13.736
41164SOL    HW125389   6.297   2.805  13.780
41164SOL    HW225390   6.315   2.928  13.694
41165SOL     OW25391   8.003   3.452   8.289
41165SOL    HW125392   7.949   3.486   8.218
41165SOL    HW225393   8.093   3.476   8.264
41166SOL     OW25394   8.193   0.222  14.115
41166SOL    HW125395   8.247   0.300  14.101
41166SOL    HW225396   8.204   0.201  14.207
41167SOL     OW25397   1.946   0.866   7.433
41167SOL    HW125398   1.972   0.774   7.437
41167SOL    HW225399   1.870   0.872   7.491
41168SOL     OW25400   6.482   5.942   8.178
41168SOL    HW125401   6.467   5.902   8.092
41168SOL    HW225402   6.394   5.962   8.210
41169SOL     OW25403  12.966   1.960   3.448
41169SOL    HW125404  13.029   2.003   3.390
41169SOL    HW225405  12.918   1.900   3.391
41170SOL     OW25406   3.429   8.894   6.352
41170SOL    HW125407   3.373   8.936   6.417
41170SOL    HW225408   3.404   8.935   6.269
41171SOL     OW25409   6.808   5.056   8.064
41171SOL    HW125410   6.771   5.135   8.025
41171SOL    HW225411   6.733   4.999   8.079
41172SOL     OW25412   3.989   9.104   0.034
41172SOL    HW125413   3.960   9.039  14.848
41172SOL    HW225414   3.913   9.162   0.045
41173SOL     OW25415   5.360   5.470  14.778
41173SOL    HW125416   5.454   5.484  14.761
41173SOL    HW225417   5.349   5.493  14.870
41174SOL     OW25418   2.925   6.244  11.863
41174SOL    HW125419   2.878   6.318  11.826
41174SOL    HW225420   2.861   6.200  11.919
41175SOL     OW25421   8.349   6.191   1.791
41175SOL    HW125422   8.440   6.180   1.817
41175SOL    HW225423   8.343   6.147   1.706
41176SOL     OW25424   6.394   5.011  14.702
41176SOL    HW125425   6.334   5.073  14.660
41176SOL    HW225426   6.367   4.926  14.668
41177SOL     OW25427   3.107   4.676   6.088
41177SOL    HW125428   3.044   4.643   6.024
41177SOL    HW225429   3.057   4.739   6.140
41178SOL     OW25430   7.840  13.077  13.723
41178SOL    HW125431   7.759  13.029  13.707
41178SOL    HW225432   7.849  13.077  13.818
41179SOL     OW25433   4.805  14.387   0.204
41179SOL    HW125434   4.847  14.351   0.125
41179SOL    HW225435   4.744  14.453   0.171
41180SOL     OW25436   4.319  14.030  10.856
41180SOL    HW125437   4.392  14.014  10.916
41180SOL    HW225438   4.270  13.948  10.856
41181SOL     OW25439  13.605   4.760   1.412
41181SOL    HW125440  13.566   4.752   1.499
41181SOL    HW225441  13.541   4.811   1.362
41182SOL     OW25442   7.687   1.756  10.403
41182SOL    HW125443   7.769   1.805  10.411
41182SOL    HW225444   7.697   1.705  10.322
41183SOL     OW25445  12.809   8.199   4.795
41183SOL    HW125446  12.766   8.129   4.746
41183SOL    HW225447  12.740   8.237   4.848
41184SOL     OW25448   9.921   8.147   2.102
41184SOL    HW125449   9.881   8.094   2.171
41184SOL    HW225450   9.883   8.113   2.021
41185SOL     OW25451   4.493  10.421  14.499
41185SOL    HW125452   4.547  10.498  14.481
41185SOL    HW225453   4.440  10.409  14.420
41186SOL     OW25454  11.126  14.588   9.697
41186SOL    HW125455  11.151  14.626   9.781
41186SOL    HW225456  11.081  14.659   9.651
41187SOL     OW25457   7.702   0.097  12.289
41187SOL    HW125458   7.651   0.135  12.361
41187SOL    HW225459   7.639   0.047  12.238
41188SOL     OW25460   4.194   9.110  11.504
41188SOL    HW125461   4.131   9.073  11.442
41188SOL    HW225462   4.199   9.203  11.482
41189SOL     OW25463   5.455   4.466   1.140
41189SOL    HW125464   5.533   4.515   1.114
41189SOL    HW225465   5.473   4.376   1.113
41190SOL     OW25466  11.463   9.462   6.859
41190SOL    HW125467  11.401   9.488   6.791
41190SOL    HW225468  11.479   9.542   6.908
41191SOL     OW25469  11.661   6.217   1.107
41191SOL    HW125470  11.615   6.168   1.038
41191SOL    HW225471  11.739   6.165   1.125
41192SOL     OW25472   5.195   9.270  10.430
41192SOL    HW125473   5.256   9.297  10.362
41192SOL    HW225474   5.245   9.209  10.485
41193SOL     OW25475  10.293   0.176   9.281
41193SOL    HW125476  10.203   0.165   9.313
41193SOL    HW225477  10.329   0.087   9.278
41194SOL     OW25478  14.575  14.801   7.455
41194SOL    HW125479  14.555  14.711   7.428
41194SOL    HW225480  14.508  14.823   7.519
41195SOL     OW25481   5.120   0.147   9.293
41195SOL    HW125482   5.061   0.076   9.268
41195SOL    HW225483   5.150   0.184   9.210
41196SOL     OW25484   2.351  10.209   1.357
41196SOL    HW125485   2.388  10.126   1.327
41196SOL    HW225486   2.422  10.272   1.346
41197SOL     OW25487   3.462  13.943   7.236
41197SOL    HW125488   3.439  13.875   7.299
41197SOL    HW225489   3.444  13.903   7.151
41198SOL     OW25490  14.839  13.360  13.919
41198SOL    HW125491  14.791  13.284  13.886
41198SOL    HW225492   0.008  13.328  13.996
41199SOL     OW25493  13.786  10.183   9.727
41199SOL    HW125494  13.720  10.169   9.796
41199SOL    HW225495  13.861  10.132   9.755
41200SOL     OW25496  10.060   7.458   7.527
41200SOL    HW125497  10.060   7.367   7.557
41200SOL    HW225498   9.978   7.467   7.478
41201SOL     OW25499   4.298   2.904   8.835
41201SOL    HW125500   4.209   2.921   8.802
41201SOL    HW225501   4.338   2.991   8.839
41202SOL     OW25502  13.129  12.029   7.566
41202SOL    HW125503  13.124  11.948   7.514
41202SOL    HW225504  13.175  12.091   7.509
41203SOL     OW25505   6.099  12.070  12.646
41203SOL    HW125506   6.130  12.035  12.730
41203SOL    HW225507   6.012  12.032  12.635
41204SOL     OW25508   3.544   3.598   8.969
41204SOL    HW125509   3.487   3.521   8.981
41204SOL    HW225510   3.545   3.640   9.055
41205SOL     OW25511   2.762  10.618   2.537
41205SOL    HW125512   2.747  10.709   2.510
41205SOL    HW225513   2.724  10.565   2.467
41206SOL     OW25514  12.828  14.856   5.799
41206SOL    HW125515  12.776   0.058   5.791
41206SOL    HW225516  12.790  14.795   5.737
41207SOL     OW25517   7.539   0.478  14.135
41207SOL    HW125518   7.453   0.507  14.103
41207SOL    HW225519   7.600   0.501  14.065
41208SOL     OW25520   7.005   2.340   3.131
41208SOL    HW125521   6.954   2.417   3.156
41208SOL    HW225522   7.096   2.364   3.150
41209SOL     OW25523   1.813  10.237  10.785
41209SOL    HW125524   1.766  10.296  10.727
41209SOL    HW225525   1.850  10.294  10.853
41210SOL     OW25526   0.206   0.890  11.136
41210SOL    HW125527   0.264   0.905  11.211
41210SOL    HW225528   0.172   0.802  11.149
41211SOL     OW25529  13.084  13.082   3.735
41211SOL    HW125530  13.110  13.007   3.683
41211SOL    HW225531  13.003  13.055   3.778
41212SOL     OW25532   3.901  11.243   6.919
41212SOL    HW125533   3.881  11.251   7.012
41212SOL    HW225534   3.885  11.151   6.898
41213SOL     OW25535  14.708   8.520   3.343
41213SOL    HW125536  14.781   8.460   3.362
41213SOL    HW225537  14.721   8.593   3.404
41214SOL     OW25538   5.459   8.496   1.049
41214SOL    HW125539   5.486   8.453   1.130
41214SOL    HW225540   5.461   8.426   0.983
41215SOL     OW25541  11.970  11.204  13.818
41215SOL    HW125542  12.021  11.285  13.813
41215SOL    HW225543  11.968  11.183  13.911
41216SOL     OW25544   7.340   5.879   9.104
41216SOL    HW125545   7.346   5.823   9.026
41216SOL    HW225546   7.392   5.957   9.082
41217SOL     OW25547   2.717   1.912  13.083
41217SOL    HW125548   2.808   1.941  13.084
41217SOL    HW225549   2.714   1.842  13.018
41218SOL     OW25550   9.687  11.304   0.782
41218SOL    HW125551   9.686  11.214   0.749
41218SOL    HW225552   9.602  11.340   0.757
41219SOL     OW25553  13.725   3.912  11.428
41219SOL    HW125554  13.753   4.003  11.441
41219SOL    HW225555  13.747   3.893  11.337
41220SOL     OW25556  14.145   8.631   1.256
41220SOL    HW125557  14.221   8.574   1.260
41220SOL    HW225558  14.123   8.649   1.347
41221SOL     OW25559   1.097   9.227   9.000
41221SOL    HW125560   1.077   9.202   8.909
41221SOL    HW225561   1.012   9.250   9.037
41222SOL     OW25562  12.604   1.076   1.375
41222SOL    HW125563  12.532   1.038   1.324
41222SOL    HW225564  12.584   1.053   1.466
41223SOL     OW25565   8.163   6.577  13.395
41223SOL    HW125566   8.107   6.510  13.433
41223SOL    HW225567   8.194   6.539  13.313
41224SOL     OW25568   6.966   9.222  10.692
41224SOL    HW125569   6.884   9.181  10.664
41224SOL    HW225570   6.948   9.253  10.781
41225SOL     OW25571  10.346   4.906   2.943
41225SOL    HW125572  10.319   4.939   3.029
41225SOL    HW225573  10.305   4.966   2.880
41226SOL     OW25574  10.344   2.544  10.723
41226SOL    HW125575  10.423   2.571  10.678
41226SOL    HW225576  10.279   2.611  10.701
41227SOL     OW25577  14.057   2.765  14.128
41227SOL    HW125578  13.981   2.720  14.165
41227SOL    HW225579  14.126   2.699  14.126
41228SOL     OW25580   0.313   4.234   7.548
41228SOL    HW125581   0.373   4.301   7.515
41228SOL    HW225582   0.367   4.178   7.604
41229SOL     OW25583   3.156  11.946   5.635
41229SOL    HW125584   3.120  11.934   5.723
41229SOL    HW225585   3.207  12.027   5.641
41230SOL     OW25586  10.087  13.850   4.923
41230SOL    HW125587  10.069  13.756   4.912
41230SOL    HW225588  10.067  13.867   5.016
41231SOL     OW25589  13.500   8.214   7.592
41231SOL    HW125590  13.406   8.199   7.584
41231SOL    HW225591  13.536   8.130   7.620
41232SOL     OW25592   5.665   9.225   9.349
41232SOL    HW125593   5.573   9.230   9.377
41232SOL    HW225594   5.679   9.133   9.328
41233SOL     OW25595   8.132  10.428   5.811
41233SOL    HW125596   8.202  10.393   5.866
41233SOL    HW225597   8.061  10.448   5.871
41234SOL     OW25598   6.434  10.969   2.131
41234SOL    HW125599   6.352  10.923   2.143
41234SOL    HW225600   6.443  11.023   2.210
41235SOL     OW25601  10.925   6.732  11.324
41235SOL    HW125602  10.893   6.818  11.350
41235SOL    HW225603  10.847   6.677  11.319
41236SOL     OW25604  13.875   7.421  13.108
41236SOL    HW125605  13.957   7.400  13.064
41236SOL    HW225606  13.858   7.513  13.085
41237SOL     OW25607  10.489  12.346   2.411
41237SOL    HW125608  10.446  12.431   2.403
41237SOL    HW225609  10.542  12.338   2.331
41238SOL     OW25610   5.733   5.575   4.690
41238SOL    HW125611   5.754   5.486   4.662
41238SOL    HW225612   5.721   5.568   4.785
41239SOL     OW25613   9.361   8.423  13.791
41239SOL    HW125614   9.271   8.409  13.821
41239SOL    HW225615   9.414   8.415  13.870
41240SOL     OW25616   5.442   8.239  13.785
41240SOL    HW125617   5.498   8.279  13.851
41240SOL    HW225618   5.423   8.310  13.723
41241SOL     OW25619   9.739   8.301   0.101
41241SOL    HW125620   9.760   8.377   0.046
41241SOL    HW225621   9.713   8.234   0.039
41242SOL     OW25622   6.449  10.177   7.892
41242SOL    HW125623   6.429  10.251   7.834
41242SOL    HW225624   6.540  10.155   7.872
41243SOL     OW25625  14.054   0.388  12.420
41243SOL    HW125626  13.972   0.365  12.462
41243SOL    HW225627  14.122   0.358  12.481
41244SOL     OW25628   9.297   0.920   7.953
41244SOL    HW125629   9.301   0.862   7.876
41244SOL    HW225630   9.352   0.994   7.930
41245SOL     OW25631   7.903  11.535   1.435
41245SOL    HW125632   7.817  11.507   1.466
41245SOL    HW225633   7.956  11.455   1.435
41246SOL     OW25634  10.600   8.483   0.111
41246SOL    HW125635  10.569   8.454   0.197
41246SOL    HW225636  10.524   8.477   0.054
41247SOL     OW25637   0.503   7.133  12.561
41247SOL    HW125638   0.564   7.128  12.634
41247SOL    HW225639   0.453   7.213  12.577
41248SOL     OW25640   7.264   8.996   5.856
41248SOL    HW125641   7.275   8.973   5.764
41248SOL    HW225642   7.287   9.089   5.860
41249SOL     OW25643   9.924   3.624  13.684
41249SOL    HW125644   9.978   3.595  13.610
41249SOL    HW225645   9.983   3.680  13.735
41250SOL     OW25646   5.688  14.766   7.819
41250SOL    HW125647   5.622  14.829   7.847
41250SOL    HW225648   5.675  14.691   7.877
41251SOL     OW25649   1.254  11.347   3.155
41251SOL    HW125650   1.306  11.274   3.190
41251SOL    HW225651   1.186  11.361   3.221
41252SOL     OW25652   0.758   3.390  13.774
41252SOL    HW125653   0.693   3.356  13.836
41252SOL    HW225654   0.763   3.484  13.793
41253SOL     OW25655  13.883   3.697  12.703
41253SOL    HW125656  13.960   3.724  12.654
41253SOL    HW225657  13.879   3.758  12.777
41254SOL     OW25658   9.280  10.016  10.835
41254SOL    HW125659   9.263  10.029  10.742
41254SOL    HW225660   9.370  10.045  10.848
41255SOL     OW25661   4.319   2.360  11.227
41255SOL    HW125662   4.345   2.268  11.234
41255SOL    HW225663   4.321   2.379  11.133
41256SOL     OW25664   7.965  13.390   5.763
41256SOL    HW125665   7.996  13.319   5.707
41256SOL    HW225666   8.030  13.394   5.834
41257SOL     OW25667   5.166   3.795  11.680
41257SOL    HW125668   5.123   3.879  11.692
41257SOL    HW225669   5.258   3.811  11.701
41258SOL     OW25670  10.330  11.776   5.713
41258SOL    HW125671  10.290  11.824   5.641
41258SOL    HW225672  10.406  11.828   5.737
41259SOL     OW25673   8.237   4.357   9.404
41259SOL    HW125674   8.166   4.359   9.341
41259SOL    HW225675   8.286   4.438   9.387
41260SOL     OW25676   2.441   1.318   8.684
41260SOL    HW125677   2.352   1.351   8.674
41260SOL    HW225678   2.445   1.240   8.629
41261SOL     OW25679   9.526   3.497   3.921
41261SOL    HW125680   9.540   3.586   3.888
41261SOL    HW225681   9.603   3.449   3.894
41262SOL     OW25682   2.280  13.546   0.519
41262SOL    HW125683   2.365  13.502   0.527
41262SOL    HW225684   2.295  13.633   0.554
41263SOL     OW25685  10.226   0.391   7.103
41263SOL    HW125686  10.317   0.407   7.127
41263SOL    HW225687  10.221   0.416   7.010
41264SOL     OW25688  12.141   8.445   9.450
41264SOL    HW125689  12.162   8.425   9.542
41264SOL    HW225690  12.059   8.495   9.455
41265SOL     OW25691   3.984  11.049   4.560
41265SOL    HW125692   3.966  11.020   4.650
41265SOL    HW225693   3.913  11.111   4.541
41266SOL     OW25694   9.234   7.261   6.673
41266SOL    HW125695   9.238   7.228   6.583
41266SOL    HW225696   9.288   7.340   6.673
41267SOL     OW25697  14.418   1.452  11.941
41267SOL    HW125698  14.469   1.372  11.930
41267SOL    HW225699  14.411   1.464  12.036
41268SOL     OW25700   0.831   5.367   1.405
41268SOL    HW125701   0.906   5.423   1.381
41268SOL    HW225702   0.755   5.412   1.368
41269SOL     OW25703   0.925   1.173  10.106
41269SOL    HW125704   0.867   1.135  10.172
41269SOL    HW225705   0.919   1.267  10.120
41270SOL     OW25706   0.318   9.453  11.731
41270SOL    HW125707   0.244   9.414  11.777
41270SOL    HW225708   0.395   9.410  11.769
41271SOL     OW25709   3.361   5.815   1.257
41271SOL    HW125710   3.267   5.800   1.245
41271SOL    HW225711   3.370   5.911   1.251
41272SOL     OW25712   2.403   2.109  10.697
41272SOL    HW125713   2.356   2.191  10.715
41272SOL    HW225714   2.376   2.050  10.768
41273SOL     OW25715  12.059  11.123  12.679
41273SOL    HW125716  12.147  11.093  12.702
41273SOL    HW225717  12.067  11.219  12.677
41274SOL     OW25718  10.899   5.206  13.072
41274SOL    HW125719  10.910   5.235  13.163
41274SOL    HW225720  10.818   5.155  13.073
41275SOL     OW25721  14.000   1.358   9.388
41275SOL    HW125722  14.043   1.339   9.471
41275SOL    HW225723  14.065   1.335   9.321
41276SOL     OW25724   9.666  13.433   5.609
41276SOL    HW125725   9.592  13.409   5.665
41276SOL    HW225726   9.630  13.500   5.551
41277SOL     OW25727  13.989  14.487  12.521
41277SOL    HW125728  13.895  14.502  12.510
41277SOL    HW225729  14.015  14.444  12.439
41278SOL     OW25730   8.015   7.552  13.171
41278SOL    HW125731   7.941   7.593  13.126
41278SOL    HW225732   7.985   7.540  13.262
41279SOL     OW25733   4.916   7.664   3.443
41279SOL    HW125734   5.007   7.642   3.419
41279SOL    HW225735   4.917   7.759   3.456
41280SOL     OW25736   2.380   9.771  11.901
41280SOL    HW125737   2.351   9.683  11.876
41280SOL    HW225738   2.473   9.760  11.920
41281SOL     OW25739   2.408  12.894   2.408
41281SOL    HW125740   2.462  12.973   2.408
41281SOL    HW225741   2.378  12.885   2.317
41282SOL     OW25742   2.670  11.724   5.465
41282SOL    HW125743   2.632  11.654   5.411
41282SOL    HW225744   2.639  11.706   5.553
41283SOL     OW25745  12.461  14.098   8.300
41283SOL    HW125746  12.554  14.087   8.317
41283SOL    HW225747  12.437  14.179   8.345
41284SOL     OW25748   7.227   8.648   2.981
41284SOL    HW125749   7.167   8.722   2.988
41284SOL    HW225750   7.270   8.660   2.896
41285SOL     OW25751   2.681   3.701   6.275
41285SOL    HW125752   2.676   3.723   6.368
41285SOL    HW225753   2.600   3.736   6.238
41286SOL     OW25754  11.589   7.072   6.532
41286SOL    HW125755  11.498   7.103   6.539
41286SOL    HW225756  11.597   7.038   6.443
41287SOL     OW25757   5.872  14.746  14.491
41287SOL    HW125758   5.851  14.692  14.415
41287SOL    HW225759   5.797  14.804  14.501
41288SOL     OW25760   0.333   8.139   6.544
41288SOL    HW125761   0.376   8.099   6.619
41288SOL    HW225762   0.350   8.079   6.471
41289SOL     OW25763  10.127  12.225  12.493
41289SOL    HW125764  10.126  12.130  12.480
41289SOL    HW225765  10.034  12.249  12.494
41290SOL     OW25766   8.255   8.492   6.104
41290SOL    HW125767   8.306   8.418   6.136
41290SOL    HW225768   8.180   8.453   6.059
41291SOL     OW25769  13.362   4.251   5.260
41291SOL    HW125770  13.452   4.236   5.233
41291SOL    HW225771  13.310   4.194   5.204
41292SOL     OW25772   5.013   5.158   3.720
41292SOL    HW125773   5.080   5.227   3.720
41292SOL    HW225774   4.931   5.204   3.701
41293SOL     OW25775   4.151  13.763   9.278
41293SOL    HW125776   4.086  13.741   9.211
41293SOL    HW225777   4.226  13.708   9.258
41294SOL     OW25778  14.766   0.225   6.077
41294SOL    HW125779  14.819   0.175   6.014
41294SOL    HW225780  14.766   0.170   6.156
41295SOL     OW25781   8.878   7.138   1.013
41295SOL    HW125782   8.819   7.212   0.998
41295SOL    HW225783   8.866   7.082   0.937
41296SOL     OW25784   2.738   8.217   0.680
41296SOL    HW125785   2.737   8.168   0.598
41296SOL    HW225786   2.773   8.155   0.744
41297SOL     OW25787   0.610   0.545   1.437
41297SOL    HW125788   0.561   0.479   1.387
41297SOL    HW225789   0.666   0.494   1.496
41298SOL     OW25790   4.392   0.626   3.041
41298SOL    HW125791   4.452   0.595   2.974
41298SOL    HW225792   4.305   0.616   3.002
41299SOL     OW25793   9.511   6.762   8.574
41299SOL    HW125794   9.439   6.821   8.550
41299SOL    HW225795   9.497   6.746   8.668
41300SOL     OW25796  13.876   7.446  10.922
41300SOL    HW125797  13.925   7.368  10.896
41300SOL    HW225798  13.801   7.448  10.862
41301SOL     OW25799  10.607   7.791   5.379
41301SOL    HW125800  10.634   7.856   5.314
41301SOL    HW225801  10.570   7.720   5.327
41302SOL     OW25802  14.713   5.120   3.334
41302SOL    HW125803  14.636   5.123   3.391
41302SOL    HW225804  14.679   5.089   3.250
41303SOL     OW25805  14.420   7.212   3.355
41303SOL    HW125806  14.387   7.190   3.442
41303SOL    HW225807  14.500   7.262   3.371
41304SOL     OW25808  13.561   8.050  13.618
41304SOL    HW125809  13.479   8.056  13.667
41304SOL    HW225810  13.557   7.964  13.577
41305SOL     OW25811   2.500   0.915  14.391
41305SOL    HW125812   2.451   0.909  14.473
41305SOL    HW225813   2.482   1.003  14.358
41306SOL     OW25814   4.857   9.110   5.755
41306SOL    HW125815   4.888   9.135   5.668
41306SOL    HW225816   4.929   9.129   5.814
41307SOL     OW25817   6.789   4.031   3.252
41307SOL    HW125818   6.696   4.016   3.270
41307SOL    HW225819   6.832   4.018   3.337
41308SOL     OW25820   8.584   4.582   1.587
41308SOL    HW125821   8.571   4.533   1.668
41308SOL    HW225822   8.522   4.655   1.593
41309SOL     OW25823  12.880   3.561   7.461
41309SOL    HW125824  12.969   3.585   7.437
41309SOL    HW225825  12.852   3.630   7.522
41310SOL     OW25826  11.071   7.065  11.547
41310SOL    HW125827  11.056   7.074  11.453
41310SOL    HW225828  11.166   7.054  11.555
41311SOL     OW25829  10.571  10.765   5.580
41311SOL    HW125830  10.476  10.765   5.585
41311SOL    HW225831  10.599  10.813   5.657
41312SOL     OW25832  13.376   5.973  10.056
41312SOL    HW125833  13.398   5.905  10.119
41312SOL    HW225834  13.286   5.998  10.077
41313SOL     OW25835   3.561  10.207  12.463
41313SOL    HW125836   3.567  10.243  12.551
41313SOL    HW225837   3.617  10.129  12.465
41314SOL     OW25838   6.215   1.773  10.270
41314SOL    HW125839   6.230   1.851  10.324
41314SOL    HW225840   6.120   1.764  10.267
41315SOL     OW25841   6.068  10.698   0.311
41315SOL    HW125842   6.089  10.612   0.274
41315SOL    HW225843   6.026  10.745   0.239
41316SOL     OW25844   9.789   5.194  14.356
41316SOL    HW125845   9.697   5.178  14.334
41316SOL    HW225846   9.795   5.175  14.450
41317SOL     OW25847   1.251   7.646   6.667
41317SOL    HW125848   1.312   7.652   6.740
41317SOL    HW225849   1.210   7.732   6.662
41318SOL     OW25850  14.133  11.634  12.758
41318SOL    HW125851  14.184  11.714  12.751
41318SOL    HW225852  14.164  11.592  12.838
41319SOL     OW25853   7.773   6.347  13.741
41319SOL    HW125854   7.711   6.379  13.675
41319SOL    HW225855   7.818   6.275  13.697
41320SOL     OW25856   9.448   2.355   8.159
41320SOL    HW125857   9.487   2.282   8.207
41320SOL    HW225858   9.400   2.313   8.088
41321SOL     OW25859   2.222  12.628  14.822
41321SOL    HW125860   2.251  12.610   0.034
41321SOL    HW225861   2.303  12.642  14.773
41322SOL     OW25862   7.253   3.332   6.626
41322SOL    HW125863   7.199   3.371   6.694
41322SOL    HW225864   7.255   3.238   6.647
41323SOL     OW25865  11.056  11.719  12.897
41323SOL    HW125866  11.131  11.710  12.838
41323SOL    HW225867  11.064  11.807  12.933
41324SOL     OW25868   1.244  11.699  11.155
41324SOL    HW125869   1.220  11.635  11.222
41324SOL    HW225870   1.205  11.665  11.075
41325SOL     OW25871   7.222   6.297  13.359
41325SOL    HW125872   7.308   6.275  13.323
41325SOL    HW225873   7.241   6.327  13.448
41326SOL     OW25874   7.847  10.043   3.752
41326SOL    HW125875   7.838  10.129   3.792
41326SOL    HW225876   7.935  10.043   3.714
41327SOL     OW25877  12.838  12.448   8.741
41327SOL    HW125878  12.787  12.489   8.810
41327SOL    HW225879  12.803  12.485   8.660
41328SOL     OW25880   4.364  10.193   3.605
41328SOL    HW125881   4.325  10.111   3.634
41328SOL    HW225882   4.293  10.240   3.561
41329SOL     OW25883   9.780  14.401   3.777
41329SOL    HW125884   9.732  14.409   3.695
41329SOL    HW225885   9.769  14.310   3.803
41330SOL     OW25886  12.953   1.237   9.992
41330SOL    HW125887  12.984   1.215  10.080
41330SOL    HW225888  12.921   1.326   9.999
41331SOL     OW25889   7.653   1.321   4.183
41331SOL    HW125890   7.608   1.342   4.265
41331SOL    HW225891   7.583   1.309   4.119
41332SOL     OW25892   9.779   8.998   7.440
41332SOL    HW125893   9.735   9.016   7.523
41332SOL    HW225894   9.872   8.999   7.462
41333SOL     OW25895   8.300  12.686  14.041
41333SOL    HW125896   8.288  12.669  13.948
41333SOL    HW225897   8.393  12.706  14.050
41334SOL     OW25898   6.298   3.414  12.721
41334SOL    HW125899   6.211   3.452  12.710
41334SOL    HW225900   6.328   3.448  12.805
41335SOL     OW25901   5.888   4.796  13.891
41335SOL    HW125902   5.961   4.836  13.939
41335SOL    HW225903   5.838   4.749  13.957
41336SOL     OW25904   9.463   2.162  13.055
41336SOL    HW125905   9.433   2.082  13.098
41336SOL    HW225906   9.556   2.147  13.039
41337SOL     OW25907   3.076   2.804   2.839
41337SOL    HW125908   3.036   2.720   2.814
41337SOL    HW225909   3.048   2.865   2.771
41338SOL     OW25910   0.290  10.223   1.540
41338SOL    HW125911   0.220  10.289   1.539
41338SOL    HW225912   0.370  10.275   1.536
41339SOL     OW25913   7.942   2.674   8.259
41339SOL    HW125914   8.021   2.620   8.254
41339SOL    HW225915   7.873   2.613   8.284
41340SOL     OW25916  10.528   7.236   5.001
41340SOL    HW125917  10.554   7.271   4.915
41340SOL    HW225918  10.607   7.244   5.055
41341SOL     OW25919   9.236   6.720  14.307
41341SOL    HW125920   9.259   6.790  14.246
41341SOL    HW225921   9.280   6.642  14.272
41342SOL     OW25922   3.514   2.360   9.195
41342SOL    HW125923   3.568   2.346   9.273
41342SOL    HW225924   3.565   2.420   9.140
41343SOL     OW25925   3.303   4.109   6.367
41343SOL    HW125926   3.370   4.049   6.334
41343SOL    HW225927   3.329   4.195   6.331
41344SOL     OW25928   1.835   3.628  13.458
41344SOL    HW125929   1.928   3.615  13.438
41344SOL    HW225930   1.829   3.717  13.493
41345SOL     OW25931  13.033   6.298   2.210
41345SOL    HW125932  13.035   6.205   2.187
41345SOL    HW225933  12.962   6.335   2.158
41346SOL     OW25934   7.487   9.658  11.337
41346SOL    HW125935   7.521   9.715  11.406
41346SOL    HW225936   7.435   9.592  11.382
41347SOL     OW25937   7.333  14.456   8.148
41347SOL    HW125938   7.322  14.376   8.097
41347SOL    HW225939   7.409  14.439   8.204
41348SOL     OW25940  12.033   1.849  12.923
41348SOL    HW125941  12.109   1.878  12.973
41348SOL    HW225942  11.976   1.926  12.919
41349SOL     OW25943   5.716  11.903   4.991
41349SOL    HW125944   5.810  11.912   4.975
41349SOL    HW225945   5.675  11.927   4.908
41350SOL     OW25946   5.002  11.148   8.588
41350SOL    HW125947   4.916  11.189   8.597
41350SOL    HW225948   5.022  11.114   8.675
41351SOL     OW25949   6.860   3.636  10.617
41351SOL    HW125950   6.774   3.596  10.600
41351SOL    HW225951   6.916   3.562  10.642
41352SOL     OW25952  11.746   8.848   5.390
41352SOL    HW125953  11.800   8.777   5.356
41352SOL    HW225954  11.790   8.875   5.470
41353SOL     OW25955   4.572  12.463   7.235
41353SOL    HW125956   4.575  12.446   7.141
41353SOL    HW225957   4.482  12.492   7.252
41354SOL     OW25958   4.107  12.106  13.772
41354SOL    HW125959   4.123  12.015  13.796
41354SOL    HW225960   4.020  12.125  13.806
41355SOL     OW25961   4.036   6.868  12.312
41355SOL    HW125962   3.984   6.789  12.325
41355SOL    HW225963   4.121   6.836  12.282
41356SOL     OW25964   0.084   5.965  12.395
41356SOL    HW125965   0.015   5.951  12.459
41356SOL    HW225966   0.165   5.961  12.446
41357SOL     OW25967  13.436   7.267   0.175
41357SOL    HW125968  13.424   7.174   0.152
41357SOL    HW225969  13.393   7.315   0.104
41358SOL     OW25970   1.451   3.181  10.903
41358SOL    HW125971   1.546   3.169  10.911
41358SOL    HW225972   1.438   3.200  10.810
41359SOL     OW25973   5.658   0.097  10.151
41359SOL    HW125974   5.615   0.135  10.227
41359SOL    HW225975   5.737   0.056  10.186
41360SOL     OW25976   5.378  13.494   9.950
41360SOL    HW125977   5.353  13.425   9.889
41360SOL    HW225978   5.349  13.461  10.036
41361SOL     OW25979   2.168   3.835  10.268
41361SOL    HW125980   2.237   3.798  10.321
41361SOL    HW225981   2.087   3.812  10.314
41362SOL     OW25982  10.366  10.757   2.097
41362SOL    HW125983  10.271  10.747   2.106
41362SOL    HW225984  10.395  10.787   2.183
41363SOL     OW25985   1.410  14.866   5.975
41363SOL    HW125986   1.421  14.786   6.026
41363SOL    HW225987   1.497   0.009   5.942
41364SOL     OW25988  12.066   2.491   1.812
41364SOL    HW125989  11.990   2.472   1.867
41364SOL    HW225990  12.030   2.542   1.739
41365SOL     OW25991   6.542  11.474  13.879
41365SOL    HW125992   6.505  11.388  13.858
41365SOL    HW225993   6.634  11.467  13.854
41366SOL     OW25994   0.507   2.946   1.557
41366SOL    HW125995   0.499   2.858   1.594
41366SOL    HW225996   0.429   2.956   1.504
41367SOL     OW25997   5.877   9.511   7.492
41367SOL    HW125998   5.865   9.416   7.493
41367SOL    HW225999   5.903   9.533   7.581
41368SOL     OW26000  11.606   4.139   2.409
41368SOL    HW126001  11.522   4.151   2.452
41368SOL    HW226002  11.590   4.158   2.316
41369SOL     OW26003   0.921  13.263   7.140
41369SOL    HW126004   1.000  13.315   7.145
41369SOL    HW226005   0.889  13.275   7.050
41370SOL     OW26006  14.621   6.144   3.517
41370SOL    HW126007  14.592   6.138   3.607
41370SOL    HW226008  14.717   6.147   3.523
41371SOL     OW26009  12.406  12.872  13.839
41371SOL    HW126010  12.421  12.956  13.882
41371SOL    HW226011  12.491  12.829  13.839
41372SOL     OW26012  14.768  11.378  14.761
41372SOL    HW126013  14.781  11.379  14.666
41372SOL    HW226014  14.831  11.314  14.794
41373SOL     OW26015   7.145   7.301   4.705
41373SOL    HW126016   7.220   7.244   4.717
41373SOL    HW226017   7.120   7.289   4.613
41374SOL     OW26018  14.256   4.863  12.648
41374SOL    HW126019  14.185   4.830  12.703
41374SOL    HW226020  14.225   4.851  12.558
41375SOL     OW26021   0.311   8.236   9.748
41375SOL    HW126022   0.343   8.193   9.827
41375SOL    HW226023   0.315   8.168   9.680
41376SOL     OW26024  13.699   9.681   3.451
41376SOL    HW126025  13.701   9.710   3.543
41376SOL    HW226026  13.619   9.719   3.416
41377SOL     OW26027   2.763  14.088   5.575
41377SOL    HW126028   2.755  14.103   5.669
41377SOL    HW226029   2.724  14.166   5.535
41378SOL     OW26030  10.398   2.198   5.357
41378SOL    HW126031  10.365   2.109   5.348
41378SOL    HW226032  10.339   2.240   5.421
41379SOL     OW26033  12.640   2.640   7.185
41379SOL    HW126034  12.580   2.565   7.192
41379SOL    HW226035  12.720   2.603   7.147
41380SOL     OW26036   9.613   9.235   9.798
41380SOL    HW126037   9.593   9.320   9.759
41380SOL    HW226038   9.557   9.173   9.751
41381SOL     OW26039  14.258   0.945  11.843
41381SOL    HW126040  14.197   0.926  11.915
41381SOL    HW226041  14.225   1.025  11.804
41382SOL     OW26042   4.237  13.425  13.194
41382SOL    HW126043   4.301  13.381  13.250
41382SOL    HW226044   4.289  13.461  13.122
41383SOL     OW26045   7.751   9.391   7.194
41383SOL    HW126046   7.795   9.367   7.275
41383SOL    HW226047   7.659   9.396   7.217
41384SOL     OW26048   2.725   2.994  12.464
41384SOL    HW126049   2.813   2.969  12.435
41384SOL    HW226050   2.736   3.082  12.499
41385SOL     OW26051   4.537  14.338   3.905
41385SOL    HW126052   4.616  14.292   3.875
41385SOL    HW226053   4.467  14.303   3.849
41386SOL     OW26054  10.171   7.737   2.591
41386SOL    HW126055  10.103   7.796   2.625
41386SOL    HW226056  10.242   7.744   2.655
41387SOL     OW26057   1.256   4.381  13.035
41387SOL    HW126058   1.183   4.335  12.993
41387SOL    HW226059   1.271   4.331  13.116
41388SOL     OW26060   8.522  12.434   5.586
41388SOL    HW126061   8.494  12.405   5.499
41388SOL    HW226062   8.581  12.364   5.616
41389SOL     OW26063   0.516   0.660   1.039
41389SOL    HW126064   0.479   0.733   1.089
41389SOL    HW226065   0.608   0.658   1.065
41390SOL     OW26066   9.169   8.029   9.021
41390SOL    HW126067   9.112   8.095   8.980
41390SOL    HW226068   9.136   7.945   8.989
41391SOL     OW26069  11.374   6.360   6.792
41391SOL    HW126070  11.385   6.371   6.886
41391SOL    HW226071  11.331   6.441   6.763
41392SOL     OW26072   6.530  11.238  13.740
41392SOL    HW126073   6.577  11.252  13.658
41392SOL    HW226074   6.519  11.143  13.745
41393SOL     OW26075  11.836  10.478   6.298
41393SOL    HW126076  11.864  10.508   6.384
41393SOL    HW226077  11.773  10.407   6.316
41394SOL     OW26078   7.539   7.132   8.492
41394SOL    HW126079   7.596   7.208   8.503
41394SOL    HW226080   7.584   7.076   8.429
41395SOL     OW26081  10.373   7.184   8.053
41395SOL    HW126082  10.363   7.187   8.148
41395SOL    HW226083  10.403   7.094   8.036
41396SOL     OW26084   4.130   9.344  14.655
41396SOL    HW126085   4.098   9.432  14.633
41396SOL    HW226086   4.141   9.345  14.750
41397SOL     OW26087   8.984   5.359   5.285
41397SOL    HW126088   8.919   5.368   5.354
41397SOL    HW226089   8.984   5.266   5.263
41398SOL     OW26090  10.941   0.436  10.672
41398SOL    HW126091  10.920   0.373  10.742
41398SOL    HW226092  10.929   0.386  10.591
41399SOL     OW26093   0.795  10.974  14.723
41399SOL    HW126094   0.705  10.949  14.704
41399SOL    HW226095   0.849  10.909  14.677
41400SOL     OW26096   1.770   7.816   5.139
41400SOL    HW126097   1.674   7.817   5.141
41400SOL    HW226098   1.794   7.898   5.097
41401SOL     OW26099   6.273  12.828  14.866
41401SOL    HW126100   6.241  12.869  14.785
41401SOL    HW226101   6.368  12.825  14.856
41402SOL     OW26102   3.149  10.638  13.401
41402SOL    HW126103   3.188  10.588  13.473
41402SOL    HW226104   3.134  10.574  13.332
41403SOL     OW26105  10.755   6.889  13.185
41403SOL    HW126106  10.771   6.856  13.097
41403SOL    HW226107  10.794   6.977  13.185
41404SOL     OW26108   6.062   7.436  12.448
41404SOL    HW126109   5.994   7.461  12.386
41404SOL    HW226110   6.015   7.410  12.527
41405SOL     OW26111   2.996   4.139  12.790
41405SOL    HW126112   3.058   4.211  12.801
41405SOL    HW226113   3.044   4.061  12.817
41406SOL     OW26114   4.264  11.616   5.405
41406SOL    HW126115   4.256  11.588   5.314
41406SOL    HW226116   4.329  11.685   5.403
41407SOL     OW26117   1.356   8.937   4.383
41407SOL    HW126118   1.397   8.975   4.305
41407SOL    HW226119   1.430   8.907   4.436
41408SOL     OW26120   6.187   4.297   4.030
41408SOL    HW126121   6.206   4.375   3.978
41408SOL    HW226122   6.112   4.257   3.986
41409SOL     OW26123   1.887  10.572   7.444
41409SOL    HW126124   1.962  10.599   7.497
41409SOL    HW226125   1.894  10.477   7.437
41410SOL     OW26126  11.806   4.377  10.191
41410SOL    HW126127  11.825   4.465  10.158
41410SOL    HW226128  11.857   4.319  10.134
41411SOL     OW26129   7.368  14.711   1.698
41411SOL    HW126130   7.430  14.736   1.628
41411SOL    HW226131   7.300  14.779   1.695
41412SOL     OW26132  10.018  14.236  11.101
41412SOL    HW126133   9.962  14.244  11.024
41412SOL    HW226134  10.062  14.151  11.090
41413SOL     OW26135   4.371   1.637   3.676
41413SOL    HW126136   4.434   1.708   3.665
41413SOL    HW226137   4.398   1.593   3.756
41414SOL     OW26138  13.716  13.056   1.739
41414SOL    HW126139  13.721  13.094   1.652
41414SOL    HW226140  13.679  12.968   1.726
41415SOL     OW26141  14.483   7.031   7.857
41415SOL    HW126142  14.476   6.935   7.855
41415SOL    HW226143  14.544   7.049   7.928
41416SOL     OW26144   3.424  12.051   5.089
41416SOL    HW126145   3.478  12.105   5.146
41416SOL    HW226146   3.472  12.049   5.006
41417SOL     OW26147   1.227   3.665   0.016
41417SOL    HW126148   1.288   3.645  14.822
41417SOL    HW226149   1.230   3.587   0.071
41418SOL     OW26150   0.882  12.885   9.586
41418SOL    HW126151   0.946  12.843   9.643
41418SOL    HW226152   0.865  12.821   9.517
41419SOL     OW26153  12.580   2.420  10.218
41419SOL    HW126154  12.493   2.412  10.256
41419SOL    HW226155  12.636   2.367  10.275
41420SOL     OW26156   4.359  10.875   9.571
41420SOL    HW126157   4.333  10.967   9.566
41420SOL    HW226158   4.446  10.877   9.611
41421SOL     OW26159  10.497   2.854  14.354
41421SOL    HW126160  10.518   2.822  14.442
41421SOL    HW226161  10.554   2.929  14.341
41422SOL     OW26162   2.479  13.649   4.521
41422SOL    HW126163   2.467  13.676   4.612
41422SOL    HW226164   2.573  13.654   4.507
41423SOL     OW26165   7.804   9.614   7.026
41423SOL    HW126166   7.786   9.551   7.096
41423SOL    HW226167   7.789   9.565   6.946
41424SOL     OW26168  14.729  11.110   3.670
41424SOL    HW126169  14.692  11.193   3.700
41424SOL    HW226170  14.655  11.049   3.668
41425SOL     OW26171  11.501  12.717   4.877
41425SOL    HW126172  11.519  12.635   4.922
41425SOL    HW226173  11.405  12.726   4.881
41426SOL     OW26174   1.225   7.557  11.284
41426SOL    HW126175   1.318   7.566  11.302
41426SOL    HW226176   1.211   7.607  11.203
41427SOL     OW26177   2.394  10.383  13.859
41427SOL    HW126178   2.326  10.342  13.806
41427SOL    HW226179   2.372  10.476  13.858
41428SOL     OW26180   9.455   5.546   5.645
41428SOL    HW126181   9.464   5.604   5.569
41428SOL    HW226182   9.384   5.585   5.696
41429SOL     OW26183  14.323  11.877   7.145
41429SOL    HW126184  14.355  11.868   7.056
41429SOL    HW226185  14.256  11.945   7.140
41430SOL     OW26186  14.125   2.109   7.022
41430SOL    HW126187  14.118   2.088   7.115
41430SOL    HW226188  14.063   2.180   7.009
41431SOL     OW26189  11.095   8.397   2.776
41431SOL    HW126190  11.135   8.336   2.838
41431SOL    HW226191  11.078   8.476   2.829
41432SOL     OW26192   1.731  14.697   2.012
41432SOL    HW126193   1.810  14.740   1.980
41432SOL    HW226194   1.677  14.768   2.046
41433SOL     OW26195   5.878   5.916   7.973
41433SOL    HW126196   5.851   5.824   7.967
41433SOL    HW226197   5.937   5.929   7.899
41434SOL     OW26198   9.133  13.703   4.775
41434SOL    HW126199   9.186  13.748   4.840
41434SOL    HW226200   9.047  13.745   4.780
41435SOL     OW26201   5.103   3.522  11.728
41435SOL    HW126202   5.108   3.618  11.723
41435SOL    HW226203   5.171   3.497  11.790
41436SOL     OW26204   0.490  12.307   3.104
41436SOL    HW126205   0.497  12.334   3.196
41436SOL    HW226206   0.544  12.228   3.099
41437SOL     OW26207   0.571   4.882   3.453
41437SOL    HW126208   0.657   4.856   3.486
41437SOL    HW226209   0.509   4.857   3.522
41438SOL     OW26210   6.244   7.561   4.562
41438SOL    HW126211   6.262   7.469   4.544
41438SOL    HW226212   6.328   7.605   4.553
41439SOL     OW26213  11.485   8.572   6.652
41439SOL    HW126214  11.536   8.599   6.576
41439SOL    HW226215  11.504   8.639   6.718
41440SOL     OW26216   5.555   7.412  10.101
41440SOL    HW126217   5.586   7.472  10.034
41440SOL    HW226218   5.499   7.465  10.158
41441SOL     OW26219   7.032  10.532   8.700
41441SOL    HW126220   7.091  10.516   8.773
41441SOL    HW226221   6.977  10.605   8.730
41442SOL     OW26222   4.493  14.233   7.399
41442SOL    HW126223   4.443  14.177   7.459
41442SOL    HW226224   4.466  14.322   7.422
41443SOL     OW26225  13.012  13.316  14.735
41443SOL    HW126226  13.004  13.290  14.827
41443SOL    HW226227  13.066  13.248  14.695
41444SOL     OW26228   1.956  12.069   1.906
41444SOL    HW126229   2.003  12.125   1.967
41444SOL    HW226230   1.951  11.984   1.949
41445SOL     OW26231   3.198   0.294   1.729
41445SOL    HW126232   3.231   0.207   1.750
41445SOL    HW226233   3.191   0.337   1.815
41446SOL     OW26234   9.546  14.873   4.766
41446SOL    HW126235   9.533  14.785   4.801
41446SOL    HW226236   9.486   0.001   4.692
41447SOL     OW26237  10.910   0.798   4.364
41447SOL    HW126238  10.828   0.797   4.412
41447SOL    HW226239  10.898   0.733   4.295
41448SOL     OW26240   7.664   8.681  11.737
41448SOL    HW126241   7.663   8.685  11.642
41448SOL    HW226242   7.743   8.631  11.758
41449SOL     OW26243  12.264   0.667   6.114
41449SOL    HW126244  12.223   0.584   6.140
41449SOL    HW226245  12.348   0.668   6.160
41450SOL     OW26246  13.005   9.489   3.775
41450SOL    HW126247  13.068   9.520   3.710
41450SOL    HW226248  12.949   9.428   3.727
41451SOL     OW26249   4.798   2.845   2.490
41451SOL    HW126250   4.881   2.799   2.476
41451SOL    HW226251   4.796   2.912   2.422
41452SOL     OW26252   1.609   1.083   7.788
41452SOL    HW126253   1.538   1.136   7.751
41452SOL    HW226254   1.603   1.098   7.882
41453SOL     OW26255  12.365  11.600   5.145
41453SOL    HW126256  12.315  11.558   5.215
41453SOL    HW226257  12.298  11.638   5.087
41454SOL     OW26258  14.718  12.970   5.578
41454SOL    HW126259  14.743  12.938   5.491
41454SOL    HW226260  14.623  12.978   5.574
41455SOL     OW26261   3.908   0.149   4.559
41455SOL    HW126262   3.834   0.183   4.509
41455SOL    HW226263   3.962   0.225   4.577
41456SOL     OW26264   2.668  10.956  11.989
41456SOL    HW126265   2.760  10.972  12.008
41456SOL    HW226266   2.669  10.896  11.915
41457SOL     OW26267  14.857   8.413  13.342
41457SOL    HW126268  14.868   8.344  13.408
41457SOL    HW226269   0.069   8.430  13.311
41458SOL     OW26270   4.606   2.006  10.051
41458SOL    HW126271   4.659   2.078  10.016
41458SOL    HW226272   4.524   2.011  10.002
41459SOL     OW26273  13.119   9.832   2.771
41459SOL    HW126274  13.046   9.834   2.833
41459SOL    HW226275  13.182   9.772   2.811
41460SOL     OW26276   8.945  11.625   5.765
41460SOL    HW126277   9.034  11.649   5.791
41460SOL    HW226278   8.890  11.695   5.800
41461SOL     OW26279  10.869  13.959   0.218
41461SOL    HW126280  10.898  13.931   0.131
41461SOL    HW226281  10.944  13.945   0.275
41462SOL     OW26282   3.047   3.140   4.004
41462SOL    HW126283   2.971   3.106   4.053
41462SOL    HW226284   3.036   3.104   3.916
41463SOL     OW26285   5.963  11.431  11.049
41463SOL    HW126286   5.997  11.516  11.022
41463SOL    HW226287   5.878  11.425  11.005
41464SOL     OW26288   9.465  14.765  10.828
41464SOL    HW126289   9.430  14.676  10.832
41464SOL    HW226290   9.400  14.815  10.780
41465SOL     OW26291   6.605   4.825  10.797
41465SOL    HW126292   6.566   4.892  10.741
41465SOL    HW226293   6.572   4.844  10.885
41466SOL     OW26294   3.747   5.232   9.670
41466SOL    HW126295   3.740   5.324   9.643
41466SOL    HW226296   3.728   5.182   9.590
41467SOL     OW26297  14.667   1.255   5.519
41467SOL    HW126298  14.656   1.166   5.553
41467SOL    HW226299  14.583   1.297   5.534
41468SOL     OW26300  13.120   0.380   2.203
41468SOL    HW126301  13.135   0.351   2.293
41468SOL    HW226302  13.201   0.426   2.179
41469SOL     OW26303   6.663   5.070  12.907
41469SOL    HW126304   6.600   5.042  12.973
41469SOL    HW226305   6.614   5.130  12.851
41470SOL     OW26306  10.306   9.821  12.115
41470SOL    HW126307  10.241   9.814  12.185
41470SOL    HW226308  10.291   9.743  12.061
41471SOL     OW26309   7.279   7.415  12.203
41471SOL    HW126310   7.230   7.493  12.177
41471SOL    HW226311   7.370   7.435  12.178
41472SOL     OW26312   0.376   5.832  14.681
41472SOL    HW126313   0.460   5.822  14.726
41472SOL    HW226314   0.311   5.808  14.747
41473SOL     OW26315   7.842   9.042  11.221
41473SOL    HW126316   7.803   9.129  11.217
41473SOL    HW226317   7.895   9.043  11.300
41474SOL     OW26318   9.197   0.557   8.526
41474SOL    HW126319   9.146   0.525   8.600
41474SOL    HW226320   9.153   0.638   8.500
41475SOL     OW26321   1.801   0.881   9.490
41475SOL    HW126322   1.707   0.866   9.483
41475SOL    HW226323   1.811   0.975   9.474
41476SOL     OW26324   6.282   5.110   0.253
41476SOL    HW126325   6.244   5.023   0.241
41476SOL    HW226326   6.372   5.094   0.280
41477SOL     OW26327   0.185  11.550  11.635
41477SOL    HW126328   0.097  11.587  11.646
41477SOL    HW226329   0.170  11.461  11.604
41478SOL     OW26330   4.443   5.232   0.938
41478SOL    HW126331   4.416   5.222   0.847
41478SOL    HW226332   4.539   5.224   0.936
41479SOL     OW26333   0.052  13.111   1.557
41479SOL    HW126334   0.126  13.083   1.610
41479SOL    HW226335  14.859  13.051   1.580
41480SOL     OW26336   6.536   1.014   4.460
41480SOL    HW126337   6.566   1.100   4.489
41480SOL    HW226338   6.596   0.952   4.504
41481SOL     OW26339   3.097  11.406  11.908
41481SOL    HW126340   3.074  11.343  11.976
41481SOL    HW226341   3.193  11.408  11.909
41482SOL     OW26342  11.195   0.337   6.155
41482SOL    HW126343  11.102   0.340   6.132
41482SOL    HW226344  11.239   0.310   6.075
41483SOL     OW26345   2.191   0.418   9.004
41483SOL    HW126346   2.099   0.395   8.993
41483SOL    HW226347   2.228   0.346   9.056
41484SOL     OW26348   1.071   9.612   9.834
41484SOL    HW126349   1.156   9.575   9.810
41484SOL    HW226350   1.092   9.682   9.895
41485SOL     OW26351   3.878   1.055   9.395
41485SOL    HW126352   3.821   0.984   9.425
41485SOL    HW226353   3.967   1.021   9.409
41486SOL     OW26354  14.604   5.876   1.072
41486SOL    HW126355  14.548   5.930   1.128
41486SOL    HW226356  14.643   5.938   1.010
41487SOL     OW26357   3.479   6.015   9.443
41487SOL    HW126358   3.471   5.954   9.369
41487SOL    HW226359   3.393   6.013   9.484
41488SOL     OW26360   5.961  13.334  11.014
41488SOL    HW126361   5.959  13.429  11.031
41488SOL    HW226362   6.019  13.324  10.938
41489SOL     OW26363   3.233   6.215  11.519
41489SOL    HW126364   3.299   6.146  11.517
41489SOL    HW226365   3.212   6.226  11.611
41490SOL     OW26366  13.716  13.988   3.996
41490SOL    HW126367  13.747  14.078   3.985
41490SOL    HW226368  13.639  13.983   3.939
41491SOL     OW26369   8.811  11.100  10.529
41491SOL    HW126370   8.815  11.186  10.570
41491SOL    HW226371   8.805  11.118  10.435
41492SOL     OW26372  12.550  10.947   3.679
41492SOL    HW126373  12.485  10.981   3.742
41492SOL    HW226374  12.531  10.853   3.674
41493SOL     OW26375   3.233  10.970   9.386
41493SOL    HW126376   3.245  11.034   9.316
41493SOL    HW226377   3.255  10.886   9.345
41494SOL     OW26378   2.368   0.467   7.833
41494SOL    HW126379   2.331   0.383   7.806
41494SOL    HW226380   2.293   0.525   7.844
41495SOL     OW26381   3.620   7.477  12.299
41495SOL    HW126382   3.684   7.472  12.227
41495SOL    HW226383   3.589   7.387  12.309
41496SOL     OW26384   1.630   5.791   3.908
41496SOL    HW126385   1.681   5.740   3.844
41496SOL    HW226386   1.685   5.792   3.986
41497SOL     OW26387  10.698   0.238   3.148
41497SOL    HW126388  10.652   0.185   3.213
41497SOL    HW226389  10.740   0.174   3.090
41498SOL     OW26390   4.049   2.204   1.852
41498SOL    HW126391   4.050   2.117   1.812
41498SOL    HW226392   3.965   2.241   1.826
41499SOL     OW26393   5.035  14.311   1.075
41499SOL    HW126394   5.087  14.314   1.155
41499SOL    HW226395   5.051  14.395   1.033
41500SOL     OW26396   9.051  13.874  13.089
41500SOL    HW126397   9.132  13.823  13.093
41500SOL    HW226398   8.997  13.827  13.025
41501SOL     OW26399  10.925   0.363   2.896
41501SOL    HW126400  10.904   0.287   2.951
41501SOL    HW226401  10.914   0.438   2.954
41502SOL     OW26402   3.740  12.342   2.584
41502SOL    HW126403   3.703  12.296   2.509
41502SOL    HW226404   3.676  12.409   2.606
41503SOL     OW26405   4.096   0.915   1.093
41503SOL    HW126406   4.119   0.961   1.173
41503SOL    HW226407   4.111   0.979   1.023
41504SOL     OW26408   2.361  10.077   0.970
41504SOL    HW126409   2.402  10.089   0.885
41504SOL    HW226410   2.341   9.983   0.974
41505SOL     OW26411   0.729  14.141  10.909
41505SOL    HW126412   0.677  14.191  10.971
41505SOL    HW226413   0.670  14.072  10.879
41506SOL     OW26414   5.921   6.891  10.809
41506SOL    HW126415   6.010   6.880  10.774
41506SOL    HW226416   5.914   6.824  10.878
41507SOL     OW26417   0.863  11.131   3.516
41507SOL    HW126418   0.954  11.130   3.545
41507SOL    HW226419   0.841  11.224   3.508
41508SOL     OW26420  10.890  11.814   6.944
41508SOL    HW126421  10.829  11.804   6.871
41508SOL    HW226422  10.856  11.887   6.995
41509SOL     OW26423   9.240   9.758   0.763
41509SOL    HW126424   9.259   9.687   0.824
41509SOL    HW226425   9.319   9.766   0.710
41510SOL     OW26426  13.454  11.150   7.118
41510SOL    HW126427  13.447  11.122   7.209
41510SOL    HW226428  13.367  11.134   7.081
41511SOL     OW26429   3.188  13.370  12.021
41511SOL    HW126430   3.275  13.390  12.055
41511SOL    HW226431   3.137  13.345  12.098
41512SOL     OW26432   1.964   2.794  11.159
41512SOL    HW126433   1.935   2.810  11.249
41512SOL    HW226434   2.055   2.823  11.157
41513SOL     OW26435   6.955  14.504   1.960
41513SOL    HW126436   6.949  14.580   1.902
41513SOL    HW226437   6.881  14.448   1.934
41514SOL     OW26438   2.305   2.990  13.777
41514SOL    HW126439   2.400   2.991  13.767
41514SOL    HW226440   2.277   3.079  13.756
41515SOL     OW26441  14.427   8.031  14.054
41515SOL    HW126442  14.366   8.030  14.128
41515SOL    HW226443  14.433   7.940  14.027
41516SOL     OW26444   6.840   7.459   6.098
41516SOL    HW126445   6.917   7.512   6.118
41516SOL    HW226446   6.790   7.459   6.180
41517SOL     OW26447   9.620   7.954   8.404
41517SOL    HW126448   9.553   8.023   8.397
41517SOL    HW226449   9.622   7.915   8.317
41518SOL     OW26450   2.993   7.499   0.070
41518SOL    HW126451   3.051   7.574   0.057
41518SOL    HW226452   2.989   7.456  14.862
41519SOL     OW26453   5.664  13.651  13.502
41519SOL    HW126454   5.744  13.613  13.538
41519SOL    HW226455   5.662  13.622  13.411
41520SOL     OW26456  14.594   5.847   3.622
41520SOL    HW126457  14.600   5.811   3.534
41520SOL    HW226458  14.684   5.871   3.644
41521SOL     OW26459   0.703   9.243   0.608
41521SOL    HW126460   0.697   9.320   0.665
41521SOL    HW226461   0.741   9.175   0.663
41522SOL     OW26462   0.401   8.727  14.560
41522SOL    HW126463   0.495   8.717  14.576
41522SOL    HW226464   0.395   8.793  14.491
41523SOL     OW26465   8.874   3.258   0.079
41523SOL    HW126466   8.932   3.286   0.150
41523SOL    HW226467   8.884   3.325   0.012
41524SOL     OW26468  11.807   4.559   4.375
41524SOL    HW126469  11.740   4.627   4.371
41524SOL    HW226470  11.889   4.606   4.391
41525SOL     OW26471  10.697  14.358  10.352
41525SOL    HW126472  10.632  14.308  10.302
41525SOL    HW226473  10.772  14.368  10.293
41526SOL     OW26474   2.069   5.115   8.642
41526SOL    HW126475   2.117   5.130   8.723
41526SOL    HW226476   1.977   5.128   8.665
41527SOL     OW26477   0.165   6.246   7.254
41527SOL    HW126478   0.205   6.280   7.334
41527SOL    HW226479   0.071   6.252   7.271
41528SOL     OW26480   1.975  10.918   6.645
41528SOL    HW126481   1.983  10.853   6.575
41528SOL    HW226482   2.014  10.997   6.609
41529SOL     OW26483  11.192   1.963  10.252
41529SOL    HW126484  11.254   1.895  10.280
41529SOL    HW226485  11.248   2.032  10.216
41530SOL     OW26486   6.756   3.567   6.431
41530SOL    HW126487   6.678   3.597   6.477
41530SOL    HW226488   6.829   3.604   6.481
41531SOL     OW26489   2.129   3.437  14.167
41531SOL    HW126490   2.187   3.365  14.140
41531SOL    HW226491   2.182   3.489  14.227
41532SOL     OW26492  11.438   7.635   1.642
41532SOL    HW126493  11.412   7.640   1.550
41532SOL    HW226494  11.405   7.549   1.670
41533SOL     OW26495  11.529   7.535  13.921
41533SOL    HW126496  11.519   7.595  13.995
41533SOL    HW226497  11.610   7.487  13.939
41534SOL     OW26498   8.073  13.149   6.394
41534SOL    HW126499   8.054  13.241   6.413
41534SOL    HW226500   8.075  13.107   6.480
41535SOL     OW26501   6.250   0.696  13.394
41535SOL    HW126502   6.207   0.620  13.433
41535SOL    HW226503   6.213   0.702  13.306
41536SOL     OW26504   2.249  14.172  10.182
41536SOL    HW126505   2.164  14.132  10.202
41536SOL    HW226506   2.290  14.111  10.121
41537SOL     OW26507   3.993  11.812  12.652
41537SOL    HW126508   3.966  11.721  12.668
41537SOL    HW226509   4.081  11.805  12.615
41538SOL     OW26510  12.862   5.083   5.193
41538SOL    HW126511  12.848   5.171   5.158
41538SOL    HW226512  12.828   5.087   5.283
41539SOL     OW26513   7.300   4.385   8.505
41539SOL    HW126514   7.230   4.393   8.570
41539SOL    HW226515   7.354   4.462   8.518
41540SOL     OW26516   0.360  14.655   8.443
41540SOL    HW126517   0.406  14.724   8.395
41540SOL    HW226518   0.429  14.609   8.491
41541SOL     OW26519  10.985  13.174  13.134
41541SOL    HW126520  11.058  13.233  13.117
41541SOL    HW226521  10.962  13.190  13.225
41542SOL     OW26522   0.754   7.394   7.606
41542SOL    HW126523   0.794   7.369   7.689
41542SOL    HW226524   0.811   7.462   7.571
41543SOL     OW26525   9.428  11.042  10.736
41543SOL    HW126526   9.466  11.073  10.818
41543SOL    HW226527   9.504  11.012  10.684
41544SOL     OW26528   6.532  13.974   2.419
41544SOL    HW126529   6.502  14.060   2.390
41544SOL    HW226530   6.586  13.992   2.495
41545SOL     OW26531  11.729  14.613   5.843
41545SOL    HW126532  11.820  14.614   5.875
41545SOL    HW226533  11.737  14.587   5.751
41546SOL     OW26534   3.001  12.791  10.772
41546SOL    HW126535   2.973  12.882  10.765
41546SOL    HW226536   3.066  12.780  10.702
41547SOL     OW26537   6.831   8.724   9.570
41547SOL    HW126538   6.893   8.713   9.643
41547SOL    HW226539   6.762   8.660   9.588
41548SOL     OW26540   5.948   1.205  13.897
41548SOL    HW126541   5.893   1.225  13.821
41548SOL    HW226542   5.887   1.170  13.962
41549SOL     OW26543   9.962  10.019  11.565
41549SOL    HW126544   9.980   9.931  11.533
41549SOL    HW226545   9.972  10.012  11.660
41550SOL     OW26546   3.694   7.067   9.676
41550SOL    HW126547   3.720   7.115   9.597
41550SOL    HW226548   3.629   7.123   9.718
41551SOL     OW26549  12.831   4.121   2.443
41551SOL    HW126550  12.780   4.042   2.425
41551SOL    HW226551  12.771   4.193   2.423
41552SOL     OW26552  13.731  14.393   7.154
41552SOL    HW126553  13.724  14.355   7.242
41552SOL    HW226554  13.731  14.487   7.169
41553SOL     OW26555  12.115  12.166   3.956
41553SOL    HW126556  12.189  12.127   4.003
41553SOL    HW226557  12.142  12.166   3.865
41554SOL     OW26558   4.118   6.621   5.667
41554SOL    HW126559   4.165   6.624   5.751
41554SOL    HW226560   4.042   6.567   5.684
41555SOL     OW26561   8.590   5.562   7.302
41555SOL    HW126562   8.593   5.655   7.279
41555SOL    HW226563   8.587   5.561   7.397
41556SOL     OW26564  10.205   1.050   1.093
41556SOL    HW126565  10.250   1.059   1.177
41556SOL    HW226566  10.134   1.114   1.097
41557SOL     OW26567  14.771   9.181  14.355
41557SOL    HW126568  14.798   9.150  14.441
41557SOL    HW226569  14.761   9.275  14.365
41558SOL     OW26570   6.372   9.374  10.691
41558SOL    HW126571   6.427   9.420  10.754
41558SOL    HW226572   6.404   9.284  10.691
41559SOL     OW26573   9.631  10.033   1.405
41559SOL    HW126574   9.580   9.957   1.434
41559SOL    HW226575   9.710   9.995   1.366
41560SOL     OW26576   9.094   7.240   2.652
41560SOL    HW126577   9.016   7.224   2.599
41560SOL    HW226578   9.063   7.237   2.742
41561SOL     OW26579   5.546   8.845  10.279
41561SOL    HW126580   5.474   8.823  10.219
41561SOL    HW226581   5.622   8.800  10.243
41562SOL     OW26582   1.856  13.584   7.351
41562SOL    HW126583   1.887  13.655   7.295
41562SOL    HW226584   1.763  13.603   7.363
41563SOL     OW26585   6.506  13.082   1.690
41563SOL    HW126586   6.568  13.040   1.631
41563SOL    HW226587   6.423  13.081   1.643
41564SOL     OW26588   3.828   1.760  12.750
41564SOL    HW126589   3.768   1.809  12.693
41564SOL    HW226590   3.771   1.712  12.810
41565SOL     OW26591  12.118   9.160   7.400
41565SOL    HW126592  12.027   9.146   7.372
41565SOL    HW226593  12.170   9.104   7.343
41566SOL     OW26594   4.727   7.972   4.777
41566SOL    HW126595   4.739   8.048   4.721
41566SOL    HW226596   4.806   7.968   4.831
41567SOL     OW26597   0.641   2.044   2.828
41567SOL    HW126598   0.671   2.126   2.789
41567SOL    HW226599   0.576   2.010   2.767
41568SOL     OW26600   1.524   5.382   3.589
41568SOL    HW126601   1.518   5.477   3.584
41568SOL    HW226602   1.441   5.350   3.553
41569SOL     OW26603   2.721   3.863  11.921
41569SOL    HW126604   2.784   3.849  11.850
41569SOL    HW226605   2.654   3.795  11.907
41570SOL     OW26606  11.740   4.636  12.189
41570SOL    HW126607  11.677   4.564  12.183
41570SOL    HW226608  11.748   4.654  12.282
41571SOL     OW26609  14.822   1.511   0.442
41571SOL    HW126610  14.847   1.573   0.511
41571SOL    HW226611   0.009   1.441   0.448
41572SOL     OW26612   9.962   2.414   2.797
41572SOL    HW126613   9.988   2.357   2.869
41572SOL    HW226614  10.029   2.483   2.796
41573SOL     OW26615  14.779   6.206  11.618
41573SOL    HW126616  14.720   6.231  11.548
41573SOL    HW226617  14.733   6.228  11.699
41574SOL     OW26618  14.025  10.667   0.869
41574SOL    HW126619  14.100  10.660   0.929
41574SOL    HW226620  14.006  10.577   0.844
41575SOL     OW26621   8.326   6.505  10.109
41575SOL    HW126622   8.248   6.454  10.133
41575SOL    HW226623   8.296   6.561  10.037
41576SOL     OW26624   9.672  12.995   9.441
41576SOL    HW126625   9.620  13.075   9.437
41576SOL    HW226626   9.680  12.968   9.349
41577SOL     OW26627  11.192  14.664   9.966
41577SOL    HW126628  11.145  14.693  10.044
41577SOL    HW226629  11.283  14.685   9.985
41578SOL     OW26630   1.621   6.402  12.493
41578SOL    HW126631   1.551   6.386  12.556
41578SOL    HW226632   1.695   6.430  12.547
41579SOL     OW26633  14.835  11.262   8.908
41579SOL    HW126634  14.787  11.240   8.988
41579SOL    HW226635  14.772  11.312   8.855
41580SOL     OW26636   5.073   5.482   1.924
41580SOL    HW126637   5.037   5.551   1.979
41580SOL    HW226638   5.110   5.527   1.849
41581SOL     OW26639   3.886   3.258   9.002
41581SOL    HW126640   3.940   3.337   9.005
41581SOL    HW226641   3.810   3.283   8.950
41582SOL     OW26642  14.775  12.649   3.365
41582SOL    HW126643  14.705  12.609   3.416
41582SOL    HW226644  14.781  12.595   3.286
41583SOL     OW26645   1.494  11.316   4.554
41583SOL    HW126646   1.540  11.390   4.593
41583SOL    HW226647   1.524  11.314   4.463
41584SOL     OW26648   1.178  14.442   5.085
41584SOL    HW126649   1.133  14.362   5.058
41584SOL    HW226650   1.139  14.465   5.169
41585SOL     OW26651  13.585   0.652   5.548
41585SOL    HW126652  13.500   0.609   5.551
41585SOL    HW226653  13.602   0.679   5.639
41586SOL     OW26654   9.836  10.961   0.869
41586SOL    HW126655   9.776  11.006   0.809
41586SOL    HW226656   9.923  10.979   0.833
41587SOL     OW26657   5.823   3.378   5.084
41587SOL    HW126658   5.823   3.299   5.030
41587SOL    HW226659   5.754   3.433   5.046
41588SOL     OW26660   6.013  10.622   2.572
41588SOL    HW126661   5.991  10.530   2.592
41588SOL    HW226662   6.001  10.667   2.655
41589SOL     OW26663  12.461  11.793   0.607
41589SOL    HW126664  12.438  11.732   0.537
41589SOL    HW226665  12.519  11.743   0.664
41590SOL     OW26666  11.015  11.066   3.267
41590SOL    HW126667  11.014  10.971   3.256
41590SOL    HW226668  10.969  11.099   3.190
41591SOL     OW26669   1.328   5.364  14.181
41591SOL    HW126670   1.264   5.435  14.168
41591SOL    HW226671   1.410   5.409  14.200
41592SOL     OW26672  14.211  13.547   7.623
41592SOL    HW126673  14.244  13.627   7.665
41592SOL    HW226674  14.156  13.578   7.551
41593SOL     OW26675  12.035   3.453   0.697
41593SOL    HW126676  12.012   3.386   0.762
41593SOL    HW226677  12.098   3.410   0.639
41594SOL     OW26678   5.948   6.256   6.314
41594SOL    HW126679   6.009   6.330   6.316
41594SOL    HW226680   6.002   6.179   6.330
41595SOL     OW26681   2.359  14.513   3.798
41595SOL    HW126682   2.280  14.551   3.761
41595SOL    HW226683   2.424  14.583   3.792
41596SOL     OW26684  12.586   0.684  13.783
41596SOL    HW126685  12.579   0.757  13.845
41596SOL    HW226686  12.495   0.661  13.763
41597SOL     OW26687   5.652   0.038   4.189
41597SOL    HW126688   5.634   0.124   4.149
41597SOL    HW226689   5.566   0.006   4.216
41598SOL     OW26690  13.373  14.203  11.525
41598SOL    HW126691  13.388  14.150  11.447
41598SOL    HW226692  13.410  14.289  11.503
41599SOL     OW26693   7.087   2.324  13.664
41599SOL    HW126694   7.134   2.407  13.662
41599SOL    HW226695   6.999   2.347  13.694
41600SOL     OW26696  12.858  12.839   7.765
41600SOL    HW126697  12.820  12.830   7.852
41600SOL    HW226698  12.850  12.933   7.745
41601SOL     OW26699   2.755   9.550  12.846
41601SOL    HW126700   2.676   9.496  12.849
41601SOL    HW226701   2.723   9.640  12.849
41602SOL     OW26702   5.356   3.195   2.659
41602SOL    HW126703   5.381   3.189   2.567
41602SOL    HW226704   5.270   3.152   2.662
41603SOL     OW26705   1.355   7.393  11.712
41603SOL    HW126706   1.402   7.363  11.634
41603SOL    HW226707   1.393   7.344  11.784
41604SOL     OW26708   3.559   5.686  11.889
41604SOL    HW126709   3.484   5.648  11.845
41604SOL    HW226710   3.633   5.632  11.862
41605SOL     OW26711  12.549  14.435   4.760
41605SOL    HW126712  12.512  14.469   4.841
41605SOL    HW226713  12.477  14.439   4.697
41606SOL     OW26714  10.045  10.568   5.312
41606SOL    HW126715  10.050  10.605   5.224
41606SOL    HW226716  10.035  10.644   5.369
41607SOL     OW26717   4.758   0.121   6.064
41607SOL    HW126718   4.769   0.166   5.979
41607SOL    HW226719   4.667   0.091   6.063
41608SOL     OW26720   3.601   1.802   6.496
41608SOL    HW126721   3.553   1.798   6.579
41608SOL    HW226722   3.554   1.741   6.439
41609SOL     OW26723  14.460  14.449   6.082
41609SOL    HW126724  14.534  14.388   6.082
41609SOL    HW226725  14.383  14.393   6.083
41610SOL     OW26726   7.294  14.611  13.066
41610SOL    HW126727   7.285  14.584  13.157
41610SOL    HW226728   7.384  14.644  13.059
41611SOL     OW26729   1.039   6.741  10.348
41611SOL    HW126730   0.973   6.754  10.280
41611SOL    HW226731   1.045   6.826  10.393
41612SOL     OW26732  13.667  11.691  12.273
41612SOL    HW126733  13.589  11.645  12.305
41612SOL    HW226734  13.737  11.665  12.334
41613SOL     OW26735   3.055   6.818   3.005
41613SOL    HW126736   2.986   6.823   2.938
41613SOL    HW226737   3.041   6.733   3.046
41614SOL     OW26738  13.197   4.638  12.556
41614SOL    HW126739  13.138   4.580  12.605
41614SOL    HW226740  13.281   4.592  12.557
41615SOL     OW26741   5.822   0.352  11.513
41615SOL    HW126742   5.738   0.307  11.524
41615SOL    HW226743   5.816   0.428  11.571
41616SOL     OW26744  13.562  11.967   7.700
41616SOL    HW126745  13.650  11.934   7.718
41616SOL    HW226746  13.512  11.888   7.677
41617SOL     OW26747  11.295   2.516   2.779
41617SOL    HW126748  11.339   2.433   2.764
41617SOL    HW226749  11.265   2.513   2.870
41618SOL     OW26750   1.707   0.033   7.588
41618SOL    HW126751   1.627   0.075   7.558
41618SOL    HW226752   1.708  14.826   7.542
41619SOL     OW26753   2.639   8.791   3.742
41619SOL    HW126754   2.632   8.879   3.705
41619SOL    HW226755   2.557   8.779   3.791
41620SOL     OW26756   3.491  10.344   1.047
41620SOL    HW126757   3.446  10.284   0.988
41620SOL    HW226758   3.580  10.349   1.012
41621SOL     OW26759  11.184  10.450   1.391
41621SOL    HW126760  11.173  10.358   1.368
41621SOL    HW226761  11.154  10.456   1.481
41622SOL     OW26762  12.596  12.191   7.012
41622SOL    HW126763  12.559  12.127   7.073
41622SOL    HW226764  12.624  12.140   6.936
41623SOL     OW26765  12.124   2.913   1.095
41623SOL    HW126766  12.044   2.959   1.122
41623SOL    HW226767  12.145   2.857   1.170
41624SOL     OW26768  11.893  10.959  12.841
41624SOL    HW126769  11.934  10.887  12.889
41624SOL    HW226770  11.956  10.981  12.772
41625SOL     OW26771   2.399  11.584   6.860
41625SOL    HW126772   2.358  11.497   6.862
41625SOL    HW226773   2.430  11.598   6.949
41626SOL     OW26774   7.118   3.506  13.968
41626SOL    HW126775   7.064   3.489  14.046
41626SOL    HW226776   7.137   3.420  13.933
41627SOL     OW26777   8.843  10.546   1.554
41627SOL    HW126778   8.798  10.630   1.542
41627SOL    HW226779   8.907  10.562   1.623
41628SOL     OW26780   9.243  13.507  14.228
41628SOL    HW126781   9.254  13.448  14.303
41628SOL    HW226782   9.251  13.449  14.151
41629SOL     OW26783   3.028   3.738  13.311
41629SOL    HW126784   3.116   3.775  13.308
41629SOL    HW226785   3.012   3.709  13.221
41630SOL     OW26786  10.044  14.656   1.972
41630SOL    HW126787  10.005  14.738   1.940
41630SOL    HW226788  10.080  14.614   1.895
41631SOL     OW26789  13.420   2.398   6.748
41631SOL    HW126790  13.484   2.338   6.710
41631SOL    HW226791  13.343   2.390   6.693
41632SOL     OW26792  10.677  11.219  10.986
41632SOL    HW126793  10.694  11.305  11.025
41632SOL    HW226794  10.619  11.175  11.049
41633SOL     OW26795  10.667  11.352  12.696
41633SOL    HW126796  10.682  11.259  12.708
41633SOL    HW226797  10.703  11.393  12.774
41634SOL     OW26798  10.173  11.197   8.770
41634SOL    HW126799  10.244  11.254   8.740
41634SOL    HW226800  10.211  11.109   8.772
41635SOL     OW26801   2.696   8.447  13.146
41635SOL    HW126802   2.651   8.493  13.074
41635SOL    HW226803   2.664   8.357  13.141
41636SOL     OW26804   3.256   5.722   0.553
41636SOL    HW126805   3.318   5.789   0.584
41636SOL    HW226806   3.280   5.643   0.600
41637SOL     OW26807   8.289   6.341  11.153
41637SOL    HW126808   8.342   6.268  11.185
41637SOL    HW226809   8.334   6.419  11.184
41638SOL     OW26810  13.447   1.236   9.970
41638SOL    HW126811  13.399   1.288  10.034
41638SOL    HW226812  13.401   1.152   9.968
41639SOL     OW26813   1.825   7.492   5.911
41639SOL    HW126814   1.752   7.467   5.967
41639SOL    HW226815   1.786   7.551   5.846
41640SOL     OW26816  14.518   9.327  14.562
41640SOL    HW126817  14.430   9.364  14.565
41640SOL    HW226818  14.504   9.234  14.541
41641SOL     OW26819  12.056  11.865   2.687
41641SOL    HW126820  11.987  11.867   2.755
41641SOL    HW226821  12.115  11.795   2.716
41642SOL     OW26822   2.355   5.161   4.451
41642SOL    HW126823   2.300   5.204   4.385
41642SOL    HW226824   2.307   5.172   4.533
41643SOL     OW26825   9.943   9.240   3.943
41643SOL    HW126826  10.003   9.257   4.016
41643SOL    HW226827   9.943   9.145   3.933
41644SOL     OW26828  13.108   2.443   2.477
41644SOL    HW126829  13.090   2.363   2.526
41644SOL    HW226830  13.117   2.415   2.386
41645SOL     OW26831   6.239   8.811  13.016
41645SOL    HW126832   6.280   8.856  13.090
41645SOL    HW226833   6.311   8.767  12.971
41646SOL     OW26834   8.980   3.696   7.417
41646SOL    HW126835   8.965   3.737   7.332
41646SOL    HW226836   9.075   3.695   7.428
41647SOL     OW26837  12.654   3.199   3.569
41647SOL    HW126838  12.687   3.148   3.495
41647SOL    HW226839  12.616   3.135   3.629
41648SOL     OW26840   0.492  12.379   3.380
41648SOL    HW126841   0.494  12.471   3.408
41648SOL    HW226842   0.426  12.338   3.436
41649SOL     OW26843   6.628   3.283   4.643
41649SOL    HW126844   6.569   3.343   4.598
41649SOL    HW226845   6.612   3.299   4.736
41650SOL     OW26846   1.462   6.147  14.846
41650SOL    HW126847   1.449   6.184   0.056
41650SOL    HW226848   1.409   6.068  14.845
41651SOL     OW26849   4.598   2.905   4.144
41651SOL    HW126850   4.622   2.824   4.100
41651SOL    HW226851   4.507   2.921   4.117
41652SOL     OW26852   2.797   5.394  10.464
41652SOL    HW126853   2.810   5.349  10.381
41652SOL    HW226854   2.881   5.435  10.482
41653SOL     OW26855  12.252   7.383  10.867
41653SOL    HW126856  12.216   7.429  10.942
41653SOL    HW226857  12.255   7.449  10.798
41654SOL     OW26858  10.368   9.823  14.759
41654SOL    HW126859  10.291   9.785  14.802
41654SOL    HW226860  10.353   9.809  14.665
41655SOL     OW26861  14.209   9.646   8.462
41655SOL    HW126862  14.269   9.601   8.402
41655SOL    HW226863  14.206   9.736   8.430
41656SOL     OW26864  12.945   6.824   0.262
41656SOL    HW126865  12.998   6.768   0.318
41656SOL    HW226866  12.943   6.779   0.178
41657SOL     OW26867  11.348   1.907  11.408
41657SOL    HW126868  11.363   1.838  11.472
41657SOL    HW226869  11.263   1.944  11.433
41658SOL     OW26870  10.138  11.797  12.062
41658SOL    HW126871  10.052  11.817  12.099
41658SOL    HW226872  10.185  11.881  12.063
41659SOL     OW26873   4.416   4.612   1.756
41659SOL    HW126874   4.404   4.519   1.737
41659SOL    HW226875   4.510   4.626   1.751
41660SOL     OW26876   2.401   4.673   6.910
41660SOL    HW126877   2.480   4.667   6.964
41660SOL    HW226878   2.409   4.600   6.849
41661SOL     OW26879   0.630   5.916   0.245
41661SOL    HW126880   0.716   5.924   0.203
41661SOL    HW226881   0.583   5.994   0.217
41662SOL     OW26882   2.180   9.340   6.647
41662SOL    HW126883   2.108   9.313   6.591
41662SOL    HW226884   2.257   9.297   6.611
41663SOL     OW26885  10.370  12.365  13.265
41663SOL    HW126886  10.441  12.413  13.307
41663SOL    HW226887  10.317  12.432  13.223
41664SOL     OW26888   1.742   6.663  10.280
41664SOL    HW126889   1.739   6.747  10.234
41664SOL    HW226890   1.652   6.649  10.309
41665SOL     OW26891   1.614   9.980  13.725
41665SOL    HW126892   1.588  10.014  13.810
41665SOL    HW226893   1.639  10.058  13.675
41666SOL     OW26894   7.424  11.964   5.778
41666SOL    HW126895   7.377  11.954   5.861
41666SOL    HW226896   7.511  11.929   5.795
41667SOL     OW26897   8.280   0.027   4.610
41667SOL    HW126898   8.242   0.018   4.522
41667SOL    HW226899   8.215   0.075   4.660
41668SOL     OW26900   8.729   9.760   7.609
41668SOL    HW126901   8.708   9.824   7.678
41668SOL    HW226902   8.656   9.698   7.611
41669SOL     OW26903  12.744  12.922  10.184
41669SOL    HW126904  12.780  12.910  10.272
41669SOL    HW226905  12.703  13.009  10.186
41670SOL     OW26906   6.004   5.882   8.244
41670SOL    HW126907   5.942   5.916   8.179
41670SOL    HW226908   5.955   5.882   8.326
41671SOL     OW26909  13.142   0.380   6.062
41671SOL    HW126910  13.226   0.340   6.042
41671SOL    HW226911  13.101   0.321   6.125
41672SOL     OW26912   9.937   9.483  14.507
41672SOL    HW126913   9.983   9.422  14.449
41672SOL    HW226914   9.963   9.570  14.476
41673SOL     OW26915   9.026  13.175  10.111
41673SOL    HW126916   9.084  13.236  10.066
41673SOL    HW226917   8.945  13.225  10.127
41674SOL     OW26918   3.895   6.347  12.476
41674SOL    HW126919   3.851   6.305  12.549
41674SOL    HW226920   3.826   6.394  12.430
41675SOL     OW26921  14.810   6.459   4.883
41675SOL    HW126922  14.860   6.534   4.917
41675SOL    HW226923  14.719   6.483   4.896
41676SOL     OW26924   8.816   2.525  14.455
41676SOL    HW126925   8.810   2.608  14.408
41676SOL    HW226926   8.876   2.543  14.528
41677SOL     OW26927  10.832  14.569   2.920
41677SOL    HW126928  10.837  14.647   2.976
41677SOL    HW226929  10.852  14.496   2.978
41678SOL     OW26930   4.510  10.143   4.741
41678SOL    HW126931   4.507  10.238   4.744
41678SOL    HW226932   4.558  10.124   4.660
41679SOL     OW26933   2.376  11.438   1.185
41679SOL    HW126934   2.296  11.489   1.170
41679SOL    HW226935   2.443  11.503   1.205
41680SOL     OW26936   9.401  10.714  10.690
41680SOL    HW126937   9.337  10.698  10.760
41680SOL    HW226938   9.483  10.731  10.736
41681SOL     OW26939   2.629  11.847   3.643
41681SOL    HW126940   2.537  11.840   3.669
41681SOL    HW226941   2.631  11.810   3.554
41682SOL     OW26942   0.534   0.519  13.315
41682SOL    HW126943   0.503   0.479  13.234
41682SOL    HW226944   0.569   0.445  13.366
41683SOL     OW26945   3.776  12.978   5.077
41683SOL    HW126946   3.795  12.930   5.158
41683SOL    HW226947   3.712  13.043   5.102
41684SOL     OW26948   9.458  13.993  10.905
41684SOL    HW126949   9.503  14.037  10.977
41684SOL    HW226950   9.423  13.913  10.944
41685SOL     OW26951   1.132   9.108   4.545
41685SOL    HW126952   1.199   9.058   4.498
41685SOL    HW226953   1.161   9.106   4.637
41686SOL     OW26954   4.308   2.048   1.293
41686SOL    HW126955   4.261   2.107   1.352
41686SOL    HW226956   4.291   1.961   1.327
41687SOL     OW26957   4.608   6.457   2.196
41687SOL    HW126958   4.675   6.410   2.246
41687SOL    HW226959   4.628   6.436   2.104
41688SOL     OW26960   1.776  11.577  12.575
41688SOL    HW126961   1.763  11.482  12.567
41688SOL    HW226962   1.814  11.589  12.662
41689SOL     OW26963  11.804   3.242   1.555
41689SOL    HW126964  11.734   3.191   1.513
41689SOL    HW226965  11.825   3.193   1.634
41690SOL     OW26966   2.066   6.799   8.340
41690SOL    HW126967   2.082   6.864   8.273
41690SOL    HW226968   2.011   6.733   8.298
41691SOL     OW26969   6.356   1.626  14.745
41691SOL    HW126970   6.323   1.659  14.829
41691SOL    HW226971   6.438   1.582  14.768
41692SOL     OW26972  12.475   9.022   1.601
41692SOL    HW126973  12.463   9.056   1.512
41692SOL    HW226974  12.444   9.093   1.657
41693SOL     OW26975   0.829   0.588  14.263
41693SOL    HW126976   0.775   0.654  14.306
41693SOL    HW226977   0.797   0.504  14.296
41694SOL     OW26978  13.168   4.449  11.568
41694SOL    HW126979  13.086   4.400  11.565
41694SOL    HW226980  13.233   4.384  11.594
41695SOL     OW26981  12.765   9.035  10.497
41695SOL    HW126982  12.774   8.943  10.521
41695SOL    HW226983  12.771   9.034  10.401
41696SOL     OW26984   1.127   1.491   5.783
41696SOL    HW126985   1.181   1.412   5.782
41696SOL    HW226986   1.037   1.458   5.788
41697SOL     OW26987   0.121   2.006   1.735
41697SOL    HW126988   0.065   2.083   1.725
41697SOL    HW226989   0.209   2.042   1.749
41698SOL     OW26990   0.761   8.593  12.707
41698SOL    HW126991   0.671   8.625  12.709
41698SOL    HW226992   0.753   8.499  12.727
41699SOL     OW26993   8.852   6.265  14.368
41699SOL    HW126994   8.878   6.193  14.312
41699SOL    HW226995   8.917   6.334  14.351
41700SOL     OW26996  14.659   0.086  13.120
41700SOL    HW126997  14.637   0.051  13.207
41700SOL    HW226998  14.648   0.181  13.129
41701SOL     OW26999   1.305   0.965  12.248
41701SOL    HW127000   1.257   1.000  12.172
41701SOL    HW227001   1.386   0.930  12.211
41702SOL     OW27002   5.907   0.768   6.340
41702SOL    HW127003   5.995   0.796   6.363
41702SOL    HW227004   5.914   0.674   6.325
41703SOL     OW27005   0.122   4.998   4.227
41703SOL    HW127006   0.130   5.079   4.176
41703SOL    HW227007   0.207   4.955   4.217
41704SOL     OW27008   7.699   4.419   3.755
41704SOL    HW127009   7.719   4.448   3.843
41704SOL    HW227010   7.784   4.413   3.711
41705SOL     OW27011   8.004  12.199  11.007
41705SOL    HW127012   7.947  12.125  10.985
41705SOL    HW227013   7.946  12.274  11.010
41706SOL     OW27014  10.586   7.500  13.194
41706SOL    HW127015  10.653   7.435  13.215
41706SOL    HW227016  10.510   7.449  13.167
41707SOL     OW27017   2.122   3.860  12.465
41707SOL    HW127018   2.096   3.902  12.547
41707SOL    HW227019   2.119   3.766  12.484
41708SOL     OW27020   0.551   3.534   8.956
41708SOL    HW127021   0.537   3.453   9.004
41708SOL    HW227022   0.644   3.551   8.964
41709SOL     OW27023  10.094   7.873   9.331
41709SOL    HW127024  10.172   7.913   9.293
41709SOL    HW227025  10.101   7.892   9.425
41710SOL     OW27026  11.110   7.645  13.338
41710SOL    HW127027  11.066   7.686  13.263
41710SOL    HW227028  11.136   7.718  13.394
41711SOL     OW27029   7.909   3.618  12.323
41711SOL    HW127030   7.994   3.660  12.311
41711SOL    HW227031   7.902   3.602  12.417
41712SOL     OW27032  10.082   0.378  12.454
41712SOL    HW127033  10.048   0.357  12.367
41712SOL    HW227034  10.020   0.339  12.515
41713SOL     OW27035   8.345   9.803   9.420
41713SOL    HW127036   8.399   9.845   9.353
41713SOL    HW227037   8.277   9.867   9.439
41714SOL     OW27038  14.454   9.829   7.962
41714SOL    HW127039  14.491   9.748   7.925
41714SOL    HW227040  14.511   9.849   8.036
41715SOL     OW27041   0.164  11.516   5.566
41715SOL    HW127042   0.139  11.431   5.531
41715SOL    HW227043   0.142  11.510   5.660
41716SOL     OW27044   2.464  13.324   5.716
41716SOL    HW127045   2.558  13.336   5.730
41716SOL    HW227046   2.452  13.229   5.716
41717SOL     OW27047   9.858  10.883   2.437
41717SOL    HW127048   9.847  10.806   2.380
41717SOL    HW227049   9.922  10.855   2.503
41718SOL     OW27050   1.102   2.907  11.107
41718SOL    HW127051   1.130   2.981  11.052
41718SOL    HW227052   1.016   2.882  11.072
41719SOL     OW27053   2.863  10.151   7.817
41719SOL    HW127054   2.929  10.151   7.748
41719SOL    HW227055   2.788  10.197   7.778
41720SOL     OW27056  14.654   1.364  12.376
41720SOL    HW127057  14.610   1.327  12.453
41720SOL    HW227058  14.625   1.309  12.304
41721SOL     OW27059  13.283   0.231  13.145
41721SOL    HW127060  13.277   0.157  13.206
41721SOL    HW227061  13.306   0.191  13.061
41722SOL     OW27062   3.159  11.202  12.066
41722SOL    HW127063   3.215  11.253  12.125
41722SOL    HW227064   3.220  11.167  12.001
41723SOL     OW27065   1.148   7.775   8.223
41723SOL    HW127066   1.190   7.815   8.146
41723SOL    HW227067   1.060   7.753   8.193
41724SOL     OW27068   6.781  11.019  12.969
41724SOL    HW127069   6.789  10.965  13.047
41724SOL    HW227070   6.855  11.079  12.973
41725SOL     OW27071  10.309   2.039   2.804
41725SOL    HW127072  10.215   2.021   2.805
41725SOL    HW227073  10.345   1.976   2.741
41726SOL     OW27074   7.377   3.939   3.645
41726SOL    HW127075   7.459   3.985   3.665
41726SOL    HW227076   7.355   3.968   3.556
41727SOL     OW27077   5.587  14.131   6.737
41727SOL    HW127078   5.504  14.099   6.703
41727SOL    HW227079   5.654  14.081   6.691
41728SOL     OW27080   9.064  10.432  14.501
41728SOL    HW127081   9.086  10.494  14.431
41728SOL    HW227082   9.134  10.444  14.566
41729SOL     OW27083   8.330  13.773   5.981
41729SOL    HW127084   8.270  13.723   5.925
41729SOL    HW227085   8.412  13.775   5.931
41730SOL     OW27086   4.494   3.108  10.494
41730SOL    HW127087   4.489   3.177  10.429
41730SOL    HW227088   4.587   3.101  10.515
41731SOL     OW27089   9.681  11.934   5.298
41731SOL    HW127090   9.619  11.992   5.341
41731SOL    HW227091   9.640  11.847   5.302
41732SOL     OW27092   5.584   5.195   9.260
41732SOL    HW127093   5.528   5.133   9.214
41732SOL    HW227094   5.671   5.155   9.260
41733SOL     OW27095   5.867  11.013   3.047
41733SOL    HW127096   5.889  10.937   3.102
41733SOL    HW227097   5.932  11.011   2.977
41734SOL     OW27098   5.051   2.059  13.835
41734SOL    HW127099   5.109   2.135  13.838
41734SOL    HW227100   5.030   2.040  13.927
41735SOL     OW27101  10.426   4.155   4.476
41735SOL    HW127102  10.512   4.121   4.454
41735SOL    HW227103  10.440   4.201   4.559
41736SOL     OW27104   2.514  12.533  12.786
41736SOL    HW127105   2.451  12.483  12.734
41736SOL    HW227106   2.581  12.561  12.723
41737SOL     OW27107   7.367   7.499  10.851
41737SOL    HW127108   7.389   7.525  10.940
41737SOL    HW227109   7.451   7.500  10.804
41738SOL     OW27110  12.747   4.107   4.995
41738SOL    HW127111  12.678   4.121   5.060
41738SOL    HW227112  12.706   4.056   4.926
41739SOL     OW27113  11.945  11.856   3.181
41739SOL    HW127114  11.963  11.768   3.215
41739SOL    HW227115  11.870  11.886   3.231
41740SOL     OW27116  12.808   2.123  11.543
41740SOL    HW127117  12.790   2.044  11.491
41740SOL    HW227118  12.903   2.123  11.555
41741SOL     OW27119  14.707  11.986   6.183
41741SOL    HW127120  14.802  11.990   6.187
41741SOL    HW227121  14.680  11.958   6.270
41742SOL     OW27122   9.292   9.362   9.893
41742SOL    HW127123   9.282   9.268   9.909
41742SOL    HW227124   9.252   9.376   9.807
41743SOL     OW27125   8.736   8.521  10.649
41743SOL    HW127126   8.760   8.429  10.637
41743SOL    HW227127   8.641   8.522  10.641
41744SOL     OW27128   3.469   6.432   5.932
41744SOL    HW127129   3.391   6.486   5.917
41744SOL    HW227130   3.458   6.357   5.873
41745SOL     OW27131   2.647   6.818   3.553
41745SOL    HW127132   2.658   6.729   3.585
41745SOL    HW227133   2.737   6.850   3.541
41746SOL     OW27134   6.755  14.439   1.289
41746SOL    HW127135   6.765  14.385   1.211
41746SOL    HW227136   6.804  14.519   1.270
41747SOL     OW27137   2.630   8.287   3.388
41747SOL    HW127138   2.693   8.226   3.426
41747SOL    HW227139   2.650   8.288   3.295
41748SOL     OW27140   7.595  14.089  10.011
41748SOL    HW127141   7.687  14.063  10.002
41748SOL    HW227142   7.568  14.112   9.922
41749SOL     OW27143  10.862  12.300   8.439
41749SOL    HW127144  10.818  12.227   8.395
41749SOL    HW227145  10.792  12.363   8.455
41750SOL     OW27146   6.067  12.829  10.018
41750SOL    HW127147   6.104  12.902   9.968
41750SOL    HW227148   5.978  12.858  10.039
41751SOL     OW27149   5.599   4.105   0.336
41751SOL    HW127150   5.562   4.173   0.393
41751SOL    HW227151   5.539   4.103   0.261
41752SOL     OW27152  10.526   7.234   0.319
41752SOL    HW127153  10.540   7.289   0.396
41752SOL    HW227154  10.440   7.195   0.332
41753SOL     OW27155   9.627   5.212   7.446
41753SOL    HW127156   9.567   5.179   7.512
41753SOL    HW227157   9.618   5.307   7.451
41754SOL     OW27158   0.225  12.031   4.002
41754SOL    HW127159   0.316  12.055   4.016
41754SOL    HW227160   0.226  11.973   3.926
41755SOL     OW27161   6.838   1.591   6.139
41755SOL    HW127162   6.783   1.512   6.137
41755SOL    HW227163   6.811   1.641   6.062
41756SOL     OW27164   1.673   5.283  12.135
41756SOL    HW127165   1.767   5.293  12.142
41756SOL    HW227166   1.658   5.188  12.145
41757SOL     OW27167  11.174   7.306   8.217
41757SOL    HW127168  11.232   7.296   8.293
41757SOL    HW227169  11.093   7.263   8.244
41758SOL     OW27170  10.882   3.578   0.117
41758SOL    HW127171  10.938   3.559   0.042
41758SOL    HW227172  10.926   3.649   0.163
41759SOL     OW27173  13.212  13.676   5.668
41759SOL    HW127174  13.177  13.757   5.632
41759SOL    HW227175  13.284  13.653   5.609
41760SOL     OW27176  12.019   3.417   2.157
41760SOL    HW127177  12.112   3.432   2.144
41760SOL    HW227178  12.012   3.384   2.246
41761SOL     OW27179  10.825   6.640   5.973
41761SOL    HW127180  10.866   6.566   5.927
41761SOL    HW227181  10.835   6.714   5.913
41762SOL     OW27182   0.408   9.421   2.256
41762SOL    HW127183   0.441   9.505   2.223
41762SOL    HW227184   0.361   9.383   2.182
41763SOL     OW27185   9.387   2.103   2.895
41763SOL    HW127186   9.410   2.105   2.988
41763SOL    HW227187   9.371   2.194   2.872
41764SOL     OW27188   8.143  10.222   7.785
41764SOL    HW127189   8.233  10.236   7.813
41764SOL    HW227190   8.131  10.282   7.711
41765SOL     OW27191   1.166   4.567  11.328
41765SOL    HW127192   1.082   4.554  11.285
41765SOL    HW227193   1.211   4.483  11.320
41766SOL     OW27194   7.565   8.358  14.489
41766SOL    HW127195   7.610   8.273  14.489
41766SOL    HW227196   7.626   8.417  14.444
41767SOL     OW27197   5.022   2.614   8.214
41767SOL    HW127198   5.020   2.699   8.257
41767SOL    HW227199   5.114   2.586   8.220
41768SOL     OW27200   0.086  12.046  10.574
41768SOL    HW127201   0.036  12.037  10.655
41768SOL    HW227202   0.175  12.066  10.603
41769SOL     OW27203   6.755   2.594   7.676
41769SOL    HW127204   6.732   2.673   7.628
41769SOL    HW227205   6.714   2.605   7.763
41770SOL     OW27206   8.181   2.707  11.668
41770SOL    HW127207   8.196   2.772  11.737
41770SOL    HW227208   8.165   2.626  11.715
41771SOL     OW27209   8.431   3.736   9.777
41771SOL    HW127210   8.444   3.779   9.692
41771SOL    HW227211   8.489   3.782   9.837
41772SOL     OW27212   8.998   3.649  13.193
41772SOL    HW127213   9.049   3.664  13.272
41772SOL    HW227214   8.953   3.732  13.178
41773SOL     OW27215   9.537   8.504  14.593
41773SOL    HW127216   9.589   8.498  14.673
41773SOL    HW227217   9.468   8.439  14.604
41774SOL     OW27218   6.547   6.885   2.048
41774SOL    HW127219   6.594   6.841   2.118
41774SOL    HW227220   6.540   6.976   2.076
41775SOL     OW27221   5.497   2.122   2.456
41775SOL    HW127222   5.409   2.157   2.468
41775SOL    HW227223   5.500   2.044   2.512
41776SOL     OW27224   4.065   2.206  14.041
41776SOL    HW127225   4.031   2.118  14.054
41776SOL    HW227226   4.018   2.260  14.105
41777SOL     OW27227  11.421  14.583  11.209
41777SOL    HW127228  11.485  14.549  11.147
41777SOL    HW227229  11.442  14.676  11.219
41778SOL     OW27230  10.101   0.246   6.697
41778SOL    HW127231  10.181   0.281   6.658
41778SOL    HW227232  10.131   0.180   6.760
41779SOL     OW27233   2.489  13.571   9.582
41779SOL    HW127234   2.412  13.597   9.631
41779SOL    HW227235   2.552  13.641   9.597
41780SOL     OW27236   6.693   3.580   3.219
41780SOL    HW127237   6.776   3.627   3.225
41780SOL    HW227238   6.713   3.504   3.164
41781SOL     OW27239  12.636  10.542  14.769
41781SOL    HW127240  12.625  10.457  14.726
41781SOL    HW227241  12.723  10.538  14.809
41782SOL     OW27242   1.725   8.418   6.194
41782SOL    HW127243   1.683   8.469   6.124
41782SOL    HW227244   1.752   8.484   6.258
41783SOL     OW27245   8.918  10.841   7.375
41783SOL    HW127246   8.977  10.770   7.401
41783SOL    HW227247   8.971  10.920   7.387
41784SOL     OW27248   6.328   7.435  12.459
41784SOL    HW127249   6.351   7.486  12.381
41784SOL    HW227250   6.233   7.439  12.463
41785SOL     OW27251   4.668  12.499  10.561
41785SOL    HW127252   4.681  12.516  10.468
41785SOL    HW227253   4.575  12.517  10.576
41786SOL     OW27254  13.629   6.705  10.698
41786SOL    HW127255  13.603   6.749  10.779
41786SOL    HW227256  13.723   6.689  10.709
41787SOL     OW27257   3.639   1.899   5.435
41787SOL    HW127258   3.622   1.993   5.438
41787SOL    HW227259   3.734   1.891   5.441
41788SOL     OW27260  10.400   3.299   9.017
41788SOL    HW127261  10.466   3.240   8.981
41788SOL    HW227262  10.436   3.327   9.101
41789SOL     OW27263  12.345   7.652   1.442
41789SOL    HW127264  12.320   7.744   1.449
41789SOL    HW227265  12.432   7.648   1.482
41790SOL     OW27266  10.731   8.049   6.701
41790SOL    HW127267  10.648   8.012   6.731
41790SOL    HW227268  10.798   8.000   6.748
41791SOL     OW27269   8.391   1.333   9.163
41791SOL    HW127270   8.321   1.268   9.169
41791SOL    HW227271   8.410   1.356   9.254
41792SOL     OW27272   7.946   9.776   5.666
41792SOL    HW127273   7.900   9.786   5.750
41792SOL    HW227274   7.886   9.726   5.612
41793SOL     OW27275   2.089   2.490   8.724
41793SOL    HW127276   2.099   2.518   8.815
41793SOL    HW227277   2.115   2.567   8.673
41794SOL     OW27278   8.471   8.146   7.919
41794SOL    HW127279   8.470   8.152   8.014
41794SOL    HW227280   8.400   8.086   7.897
41795SOL     OW27281   6.795   7.108   7.388
41795SOL    HW127282   6.733   7.160   7.438
41795SOL    HW227283   6.856   7.171   7.350
41796SOL     OW27284   4.406   7.923   0.406
41796SOL    HW127285   4.448   7.838   0.390
41796SOL    HW227286   4.316   7.910   0.377
41797SOL     OW27287  13.964   2.189   2.633
41797SOL    HW127288  13.903   2.254   2.597
41797SOL    HW227289  13.915   2.147   2.704
41798SOL     OW27290  14.161   1.147   1.564
41798SOL    HW127291  14.205   1.213   1.618
41798SOL    HW227292  14.226   1.123   1.498
41799SOL     OW27293  11.392   9.248  14.745
41799SOL    HW127294  11.486   9.265  14.737
41799SOL    HW227295  11.385   9.183  14.815
41800SOL     OW27296   0.480   0.329  12.469
41800SOL    HW127297   0.408   0.349  12.409
41800SOL    HW227298   0.444   0.344  12.556
41801SOL     OW27299   0.801  12.769   0.175
41801SOL    HW127300   0.758  12.714   0.109
41801SOL    HW227301   0.811  12.713   0.251
41802SOL     OW27302   7.832   7.002  12.240
41802SOL    HW127303   7.746   7.008  12.282
41802SOL    HW227304   7.825   7.060  12.164
41803SOL     OW27305   0.613   8.440   9.164
41803SOL    HW127306   0.533   8.473   9.123
41803SOL    HW227307   0.598   8.347   9.175
41804SOL     OW27308   4.240   9.431   9.561
41804SOL    HW127309   4.172   9.445   9.627
41804SOL    HW227310   4.271   9.519   9.540
41805SOL     OW27311   3.887   5.221  12.535
41805SOL    HW127312   3.981   5.214  12.518
41805SOL    HW227313   3.859   5.298  12.485
41806SOL     OW27314   7.830  13.426  13.600
41806SOL    HW127315   7.836  13.521  13.590
41806SOL    HW227316   7.886  13.391  13.531
41807SOL     OW27317  10.735   9.416   5.817
41807SOL    HW127318  10.792   9.484   5.779
41807SOL    HW227319  10.739   9.432   5.911
41808SOL     OW27320   5.141   1.293  10.712
41808SOL    HW127321   5.153   1.274  10.619
41808SOL    HW227322   5.202   1.365  10.730
41809SOL     OW27323  10.266   1.388  10.447
41809SOL    HW127324  10.179   1.427  10.450
41809SOL    HW227325  10.315   1.430  10.518
41810SOL     OW27326   5.896   8.320  10.683
41810SOL    HW127327   5.860   8.290  10.599
41810SOL    HW227328   5.989   8.338  10.664
41811SOL     OW27329   1.563  13.077   1.347
41811SOL    HW127330   1.602  13.102   1.263
41811SOL    HW227331   1.511  13.153   1.373
41812SOL     OW27332   7.764   7.511   0.396
41812SOL    HW127333   7.789   7.591   0.350
41812SOL    HW227334   7.682   7.484   0.355
41813SOL     OW27335   6.867  12.932   7.121
41813SOL    HW127336   6.885  13.016   7.165
41813SOL    HW227337   6.792  12.951   7.064
41814SOL     OW27338   7.409   3.940   0.003
41814SOL    HW127339   7.483   3.938  14.820
41814SOL    HW227340   7.332   3.952  14.825
41815SOL     OW27341   1.167  11.031  11.346
41815SOL    HW127342   1.190  10.978  11.422
41815SOL    HW227343   1.210  10.987  11.272
41816SOL     OW27344   2.969  11.564   3.591
41816SOL    HW127345   3.023  11.634   3.554
41816SOL    HW227346   2.921  11.529   3.516
41817SOL     OW27347   3.319  13.666   1.451
41817SOL    HW127348   3.297  13.576   1.428
41817SOL    HW227349   3.341  13.662   1.544
41818SOL     OW27350   1.329   5.761  12.191
41818SOL    HW127351   1.409   5.811  12.175
41818SOL    HW227352   1.267   5.826  12.224
41819SOL     OW27353   9.957   3.781   8.293
41819SOL    HW127354   9.950   3.731   8.374
41819SOL    HW227355   9.866   3.801   8.269
41820SOL     OW27356  10.065  10.437   1.533
41820SOL    HW127357  10.055  10.480   1.447
41820SOL    HW227358  10.029  10.350   1.520
41821SOL     OW27359   5.309  13.607   0.086
41821SOL    HW127360   5.261  13.526   0.104
41821SOL    HW227361   5.261  13.649   0.015
41822SOL     OW27362   4.178   8.547   5.879
41822SOL    HW127363   4.106   8.603   5.849
41822SOL    HW227364   4.174   8.551   5.975
41823SOL     OW27365  11.237   0.174   5.230
41823SOL    HW127366  11.265   0.092   5.189
41823SOL    HW227367  11.258   0.163   5.323
41824SOL     OW27368   2.272   8.205   8.002
41824SOL    HW127369   2.242   8.289   7.965
41824SOL    HW227370   2.309   8.159   7.927
41825SOL     OW27371   1.400  11.417   8.789
41825SOL    HW127372   1.469  11.462   8.740
41825SOL    HW227373   1.447  11.367   8.856
41826SOL     OW27374   0.304   3.635   0.736
41826SOL    HW127375   0.343   3.701   0.793
41826SOL    HW227376   0.375   3.572   0.720
41827SOL     OW27377   8.067   6.911  12.248
41827SOL    HW127378   8.068   6.838  12.186
41827SOL    HW227379   7.977   6.943  12.246
41828SOL     OW27380   6.166   1.910  13.366
41828SOL    HW127381   6.250   1.925  13.410
41828SOL    HW227382   6.114   1.987  13.386
41829SOL     OW27383   8.028   7.169   5.539
41829SOL    HW127384   8.056   7.225   5.467
41829SOL    HW227385   8.067   7.210   5.617
41830SOL     OW27386  10.899   9.392   9.207
41830SOL    HW127387  10.989   9.360   9.198
41830SOL    HW227388  10.905   9.463   9.271
41831SOL     OW27389   4.463   9.069   4.399
41831SOL    HW127390   4.371   9.081   4.422
41831SOL    HW227391   4.511   9.121   4.463
41832SOL     OW27392   8.603   2.043  11.439
41832SOL    HW127393   8.636   2.109  11.378
41832SOL    HW227394   8.508   2.046  11.429
41833SOL     OW27395   7.410   9.756   6.623
41833SOL    HW127396   7.374   9.693   6.686
41833SOL    HW227397   7.344   9.761   6.554
41834SOL     OW27398  13.834   4.187  10.525
41834SOL    HW127399  13.880   4.202  10.443
41834SOL    HW227400  13.902   4.158  10.586
41835SOL     OW27401  14.195   6.658   1.984
41835SOL    HW127402  14.248   6.589   2.024
41835SOL    HW227403  14.257   6.728   1.964
41836SOL     OW27404   1.253   8.305   0.209
41836SOL    HW127405   1.317   8.367   0.243
41836SOL    HW227406   1.190   8.359   0.161
41837SOL     OW27407  11.011   6.970   7.677
41837SOL    HW127408  11.103   6.989   7.659
41837SOL    HW227409  10.972   7.055   7.696
41838SOL     OW27410  12.867  14.364   7.043
41838SOL    HW127411  12.772  14.353   7.039
41838SOL    HW227412  12.891  14.334   7.131
41839SOL     OW27413   1.406   9.998   5.768
41839SOL    HW127414   1.499  10.016   5.755
41839SOL    HW227415   1.361  10.073   5.729
41840SOL     OW27416   5.341   7.233   0.357
41840SOL    HW127417   5.388   7.262   0.435
41840SOL    HW227418   5.263   7.188   0.391
41841SOL     OW27419  11.781   8.120   2.863
41841SOL    HW127420  11.740   8.104   2.778
41841SOL    HW227421  11.859   8.171   2.843
41842SOL     OW27422   4.245   0.949  14.285
41842SOL    HW127423   4.323   1.003  14.298
41842SOL    HW227424   4.191   0.966  14.362
41843SOL     OW27425   2.244   7.250  11.609
41843SOL    HW127426   2.187   7.309  11.658
41843SOL    HW227427   2.201   7.164  11.615
41844SOL     OW27428  12.925   5.874   1.039
41844SOL    HW127429  12.849   5.820   1.061
41844SOL    HW227430  12.916   5.890   0.945
41845SOL     OW27431   2.266  14.222   2.563
41845SOL    HW127432   2.245  14.315   2.569
41845SOL    HW227433   2.354  14.219   2.525
41846SOL     OW27434   5.311   7.271  12.762
41846SOL    HW127435   5.363   7.196  12.734
41846SOL    HW227436   5.302   7.259  12.857
41847SOL     OW27437   1.088   8.032   5.086
41847SOL    HW127438   1.028   7.971   5.128
41847SOL    HW227439   1.064   8.029   4.993
41848SOL     OW27440   1.205   2.420   3.598
41848SOL    HW127441   1.138   2.362   3.560
41848SOL    HW227442   1.212   2.492   3.536
41849SOL     OW27443  11.452   6.270   9.381
41849SOL    HW127444  11.523   6.250   9.321
41849SOL    HW227445  11.384   6.205   9.361
41850SOL     OW27446  14.833   9.841  12.602
41850SOL    HW127447   0.004   9.796  12.671
41850SOL    HW227448  14.845   9.786  12.524
41851SOL     OW27449  10.890   7.542  10.749
41851SOL    HW127450  10.870   7.512  10.838
41851SOL    HW227451  10.950   7.616  10.762
41852SOL     OW27452  12.010   3.802   6.328
41852SOL    HW127453  12.095   3.804   6.370
41852SOL    HW227454  11.949   3.832   6.396
41853SOL     OW27455   7.437  14.834  10.233
41853SOL    HW127456   7.476   0.007  10.162
41853SOL    HW227457   7.382  14.769  10.189
41854SOL     OW27458   6.860  12.028   6.084
41854SOL    HW127459   6.824  12.116   6.087
41854SOL    HW227460   6.835  11.995   5.997
41855SOL     OW27461  14.279  10.548   0.880
41855SOL    HW127462  14.246  10.563   0.791
41855SOL    HW227463  14.362  10.502   0.868
41856SOL     OW27464   2.050   7.356   9.690
41856SOL    HW127465   2.112   7.283   9.692
41856SOL    HW227466   2.105   7.433   9.675
41857SOL     OW27467   9.203  11.369   5.056
41857SOL    HW127468   9.119  11.414   5.054
41857SOL    HW227469   9.228  11.363   4.964
41858SOL     OW27470   6.919   6.985   3.485
41858SOL    HW127471   6.912   6.903   3.436
41858SOL    HW227472   7.012   7.009   3.480
41859SOL     OW27473   1.949  10.295   1.513
41859SOL    HW127474   1.871  10.282   1.567
41859SOL    HW227475   1.926  10.367   1.454
41860SOL     OW27476  12.344   7.088  14.556
41860SOL    HW127477  12.284   7.089  14.630
41860SOL    HW227478  12.430   7.072  14.595
41861SOL     OW27479  13.513  12.774   8.750
41861SOL    HW127480  13.544  12.839   8.813
41861SOL    HW227481  13.559  12.795   8.669
41862SOL     OW27482  12.245   5.233   6.485
41862SOL    HW127483  12.177   5.296   6.508
41862SOL    HW227484  12.250   5.175   6.561
41863SOL     OW27485   8.283   4.663  12.701
41863SOL    HW127486   8.193   4.634  12.688
41863SOL    HW227487   8.279   4.719  12.778
41864SOL     OW27488  10.736   3.162   5.363
41864SOL    HW127489  10.728   3.247   5.319
41864SOL    HW227490  10.817   3.169   5.414
41865SOL     OW27491   5.011   9.241   9.884
41865SOL    HW127492   5.091   9.189   9.895
41865SOL    HW227493   4.950   9.205   9.949
41866SOL     OW27494   0.419   1.554   2.276
41866SOL    HW127495   0.443   1.581   2.187
41866SOL    HW227496   0.396   1.635   2.321
41867SOL     OW27497  10.790   3.317   0.633
41867SOL    HW127498  10.741   3.270   0.566
41867SOL    HW227499  10.755   3.285   0.716
41868SOL     OW27500   4.233   9.252  10.393
41868SOL    HW127501   4.286   9.301  10.330
41868SOL    HW227502   4.248   9.296  10.476
41869SOL     OW27503   5.267  12.471  13.327
41869SOL    HW127504   5.271  12.524  13.247
41869SOL    HW227505   5.229  12.530  13.393
41870SOL     OW27506   4.197   6.555   7.782
41870SOL    HW127507   4.192   6.534   7.875
41870SOL    HW227508   4.193   6.470   7.738
41871SOL     OW27509   0.069   3.642   4.636
41871SOL    HW127510   0.040   3.557   4.601
41871SOL    HW227511   0.126   3.619   4.710
41872SOL     OW27512  12.438   5.980   8.862
41872SOL    HW127513  12.466   6.053   8.806
41872SOL    HW227514  12.348   5.962   8.835
41873SOL     OW27515   8.473  12.792   9.690
41873SOL    HW127516   8.481  12.851   9.615
41873SOL    HW227517   8.393  12.821   9.734
41874SOL     OW27518   2.959   7.932   6.046
41874SOL    HW127519   2.934   8.010   6.095
41874SOL    HW227520   2.936   7.859   6.103
41875SOL     OW27521  10.934  12.359   7.511
41875SOL    HW127522  10.964  12.291   7.572
41875SOL    HW227523  10.872  12.314   7.454
41876SOL     OW27524   4.533  12.384   6.980
41876SOL    HW127525   4.458  12.431   6.942
41876SOL    HW227526   4.536  12.301   6.933
41877SOL     OW27527   6.168   9.451  14.212
41877SOL    HW127528   6.261   9.439  14.196
41877SOL    HW227529   6.156   9.425  14.303
41878SOL     OW27530   2.412   5.283  11.368
41878SOL    HW127531   2.474   5.223  11.410
41878SOL    HW227532   2.439   5.283  11.276
41879SOL     OW27533   8.716   2.965  13.633
41879SOL    HW127534   8.761   3.011  13.562
41879SOL    HW227535   8.655   2.906  13.588
41880SOL     OW27536   2.605  12.469  13.176
41880SOL    HW127537   2.669  12.425  13.232
41880SOL    HW227538   2.540  12.401  13.156
41881SOL     OW27539  14.078  10.929   3.703
41881SOL    HW127540  14.119  10.990   3.764
41881SOL    HW227541  13.984  10.946   3.710
41882SOL     OW27542   2.316   6.713  11.545
41882SOL    HW127543   2.336   6.627  11.583
41882SOL    HW227544   2.316   6.698  11.451
41883SOL     OW27545  13.312  10.623   6.777
41883SOL    HW127546  13.386  10.605   6.718
41883SOL    HW227547  13.255  10.681   6.726
41884SOL     OW27548   7.349   0.442   8.393
41884SOL    HW127549   7.275   0.385   8.377
41884SOL    HW227550   7.329   0.484   8.477
41885SOL     OW27551   6.518   5.052   2.447
41885SOL    HW127552   6.423   5.041   2.445
41885SOL    HW227553   6.532   5.130   2.501
41886SOL     OW27554   0.375  14.730   2.874
41886SOL    HW127555   0.290  14.770   2.893
41886SOL    HW227556   0.354  14.643   2.842
41887SOL     OW27557   9.661   0.385  13.040
41887SOL    HW127558   9.646   0.408  13.131
41887SOL    HW227559   9.616   0.454  12.990
41888SOL     OW27560  10.323  13.486   3.378
41888SOL    HW127561  10.324  13.577   3.409
41888SOL    HW227562  10.394  13.443   3.426
41889SOL     OW27563   4.178  10.353   1.763
41889SOL    HW127564   4.231  10.386   1.691
41889SOL    HW227565   4.098  10.406   1.762
41890SOL     OW27566  13.116   7.032   0.320
41890SOL    HW127567  13.049   6.972   0.289
41890SOL    HW227568  13.108   7.031   0.415
41891SOL     OW27569  10.538  12.988   8.676
41891SOL    HW127570  10.454  12.940   8.680
41891SOL    HW227571  10.603  12.920   8.659
41892SOL     OW27572   6.919   4.519  11.331
41892SOL    HW127573   6.995   4.567  11.296
41892SOL    HW227574   6.852   4.586  11.342
41893SOL     OW27575   8.898   0.465   7.329
41893SOL    HW127576   8.974   0.522   7.316
41893SOL    HW227577   8.936   0.379   7.348
41894SOL     OW27578  10.312   8.823   0.418
41894SOL    HW127579  10.389   8.779   0.383
41894SOL    HW227580  10.302   8.901   0.364
41895SOL     OW27581   8.007   9.202   2.077
41895SOL    HW127582   7.967   9.116   2.088
41895SOL    HW227583   8.101   9.187   2.085
41896SOL     OW27584   0.945  12.127  12.180
41896SOL    HW127585   1.031  12.166  12.194
41896SOL    HW227586   0.957  12.066  12.108
41897SOL     OW27587   0.815  11.592   7.585
41897SOL    HW127588   0.767  11.564   7.662
41897SOL    HW227589   0.884  11.649   7.619
41898SOL     OW27590  11.736   4.476   8.982
41898SOL    HW127591  11.778   4.439   9.059
41898SOL    HW227592  11.796   4.457   8.910
41899SOL     OW27593  10.601   0.589  12.795
41899SOL    HW127594  10.645   0.671  12.816
41899SOL    HW227595  10.557   0.606  12.712
41900SOL     OW27596   1.338   5.456   2.668
41900SOL    HW127597   1.256   5.464   2.618
41900SOL    HW227598   1.314   5.402   2.744
41901SOL     OW27599   7.625   2.257  14.543
41901SOL    HW127600   7.569   2.202  14.489
41901SOL    HW227601   7.589   2.250  14.631
41902SOL     OW27602  10.177   1.598   8.520
41902SOL    HW127603  10.209   1.534   8.584
41902SOL    HW227604  10.081   1.591   8.526
41903SOL     OW27605   3.530   8.104   0.744
41903SOL    HW127606   3.525   8.146   0.830
41903SOL    HW227607   3.471   8.155   0.689
41904SOL     OW27608  14.838   9.837   3.190
41904SOL    HW127609   0.037   9.780   3.180
41904SOL    HW227610  14.789   9.827   3.108
41905SOL     OW27611   2.294  10.401   0.589
41905SOL    HW127612   2.349  10.475   0.612
41905SOL    HW227613   2.208  10.422   0.627
41906SOL     OW27614   8.156  13.015  10.524
41906SOL    HW127615   8.183  13.107  10.530
41906SOL    HW227616   8.190  12.986  10.439
41907SOL     OW27617   1.870  12.193   5.657
41907SOL    HW127618   1.875  12.139   5.578
41907SOL    HW227619   1.961  12.216   5.676
41908SOL     OW27620  14.723   8.213   1.905
41908SOL    HW127621  14.682   8.253   1.828
41908SOL    HW227622  14.681   8.256   1.979
41909SOL     OW27623   0.940  13.924  12.000
41909SOL    HW127624   0.897  13.868  11.936
41909SOL    HW227625   0.999  13.866  12.048
41910SOL     OW27626  12.765  10.909   0.533
41910SOL    HW127627  12.856  10.891   0.510
41910SOL    HW227628  12.714  10.855   0.474
41911SOL     OW27629   0.123   0.583   4.013
41911SOL    HW127630   0.066   0.649   4.054
41911SOL    HW227631   0.136   0.614   3.924
41912SOL     OW27632   9.901   8.183  12.966
41912SOL    HW127633   9.979   8.231  12.938
41912SOL    HW227634   9.914   8.169  13.060
41913SOL     OW27635  11.641   9.007  10.366
41913SOL    HW127636  11.694   8.950  10.310
41913SOL    HW227637  11.551   8.995  10.334
41914SOL     OW27638   1.070   3.518  11.168
41914SOL    HW127639   1.137   3.470  11.119
41914SOL    HW227640   0.997   3.456  11.176
41915SOL     OW27641   8.766  14.772   7.122
41915SOL    HW127642   8.676  14.769   7.090
41915SOL    HW227643   8.775  14.862   7.156
41916SOL     OW27644  12.480  12.305  13.963
41916SOL    HW127645  12.537  12.271  14.032
41916SOL    HW227646  12.417  12.234  13.947
41917SOL     OW27647   3.650   1.919  12.616
41917SOL    HW127648   3.653   2.005  12.574
41917SOL    HW227649   3.561   1.887  12.598
41918SOL     OW27650  10.453  12.977  12.533
41918SOL    HW127651  10.514  12.924  12.584
41918SOL    HW227652  10.453  13.062  12.577
41919SOL     OW27653  10.691  13.519  13.998
41919SOL    HW127654  10.779  13.557  14.002
41919SOL    HW227655  10.706  13.424  14.001
41920SOL     OW27656   2.476   7.374   6.998
41920SOL    HW127657   2.496   7.282   7.017
41920SOL    HW227658   2.439   7.372   6.910
41921SOL     OW27659   1.802  12.501  13.706
41921SOL    HW127660   1.707  12.493  13.695
41921SOL    HW227661   1.816  12.491  13.800
41922SOL     OW27662  10.331  10.583   6.443
41922SOL    HW127663  10.331  10.566   6.349
41922SOL    HW227664  10.422  10.568   6.470
41923SOL     OW27665   1.430   9.054   5.556
41923SOL    HW127666   1.345   9.082   5.524
41923SOL    HW227667   1.446   8.971   5.511
41924SOL     OW27668  14.095  11.018  11.247
41924SOL    HW127669  14.004  11.024  11.217
41924SOL    HW227670  14.132  11.104  11.231
41925SOL     OW27671   0.814  10.328   1.985
41925SOL    HW127672   0.751  10.257   2.000
41925SOL    HW227673   0.894  10.299   2.031
41926SOL     OW27674   6.482  10.525  13.037
41926SOL    HW127675   6.498  10.577  13.116
41926SOL    HW227676   6.450  10.441  13.069
41927SOL     OW27677  11.626   3.361  11.687
41927SOL    HW127678  11.684   3.412  11.743
41927SOL    HW227679  11.579   3.303  11.747
41928SOL     OW27680   0.971   0.996   4.734
41928SOL    HW127681   0.887   0.989   4.688
41928SOL    HW227682   0.998   0.906   4.748
41929SOL     OW27683   8.751  13.666  13.407
41929SOL    HW127684   8.733  13.574  13.388
41929SOL    HW227685   8.665  13.707  13.415
41930SOL     OW27686   2.932  10.063  12.438
41930SOL    HW127687   2.904   9.982  12.481
41930SOL    HW227688   3.026  10.052  12.423
41931SOL     OW27689  10.929  11.924   6.260
41931SOL    HW127690  10.835  11.923   6.281
41931SOL    HW227691  10.965  11.851   6.309
41932SOL     OW27692   3.389  13.130   0.799
41932SOL    HW127693   3.356  13.144   0.888
41932SOL    HW227694   3.320  13.164   0.742
41933SOL     OW27695   8.737   6.458   7.973
41933SOL    HW127696   8.721   6.448   8.067
41933SOL    HW227697   8.685   6.388   7.933
41934SOL     OW27698   1.759   2.617   5.464
41934SOL    HW127699   1.717   2.659   5.538
41934SOL    HW227700   1.722   2.529   5.462
41935SOL     OW27701  10.062  11.076   7.111
41935SOL    HW127702  10.016  11.026   7.043
41935SOL    HW227703  10.136  11.020   7.135
41936SOL     OW27704   6.195  11.261  12.609
41936SOL    HW127705   6.125  11.301  12.660
41936SOL    HW227706   6.172  11.168  12.606
41937SOL     OW27707  13.687   2.842  10.092
41937SOL    HW127708  13.671   2.771  10.030
41937SOL    HW227709  13.770   2.880  10.063
41938SOL     OW27710  12.452   3.414   6.090
41938SOL    HW127711  12.396   3.459   6.027
41938SOL    HW227712  12.422   3.447   6.175
41939SOL     OW27713   9.833  12.970  13.685
41939SOL    HW127714   9.763  12.914  13.653
41939SOL    HW227715   9.825  13.051  13.634
41940SOL     OW27716   3.309   9.558  14.790
41940SOL    HW127717   3.354   9.591  14.712
41940SOL    HW227718   3.256   9.485  14.759
41941SOL     OW27719   8.541   5.992   6.411
41941SOL    HW127720   8.587   6.017   6.331
41941SOL    HW227721   8.588   5.913   6.441
41942SOL     OW27722   5.775   2.694  13.078
41942SOL    HW127723   5.693   2.727  13.040
41942SOL    HW227724   5.838   2.764  13.062
41943SOL     OW27725   9.940   5.767   7.914
41943SOL    HW127726  10.022   5.757   7.961
41943SOL    HW227727   9.963   5.750   7.822
41944SOL     OW27728   3.988   9.347  12.439
41944SOL    HW127729   3.983   9.438  12.410
41944SOL    HW227730   4.075   9.339  12.477
41945SOL     OW27731   9.386   7.405  13.128
41945SOL    HW127732   9.476   7.385  13.102
41945SOL    HW227733   9.344   7.436  13.048
41946SOL     OW27734   2.610   5.386   4.537
41946SOL    HW127735   2.690   5.368   4.488
41946SOL    HW227736   2.566   5.302   4.544
41947SOL     OW27737   6.515   6.388   6.424
41947SOL    HW127738   6.488   6.431   6.505
41947SOL    HW227739   6.481   6.445   6.355
41948SOL     OW27740   2.201   9.877   3.522
41948SOL    HW127741   2.127   9.931   3.552
41948SOL    HW227742   2.263   9.879   3.595
41949SOL     OW27743   2.385  11.851  13.989
41949SOL    HW127744   2.390  11.896  13.904
41949SOL    HW227745   2.297  11.815  13.992
41950SOL     OW27746   9.661  14.053   5.627
41950SOL    HW127747   9.637  14.001   5.551
41950SOL    HW227748   9.581  14.059   5.679
41951SOL     OW27749  11.046  14.407  13.922
41951SOL    HW127750  10.959  14.369  13.931
41951SOL    HW227751  11.049  14.477  13.987
41952SOL     OW27752   9.460   3.572   4.875
41952SOL    HW127753   9.447   3.644   4.813
41952SOL    HW227754   9.444   3.493   4.824
41953SOL     OW27755   7.527  13.330   6.996
41953SOL    HW127756   7.561  13.291   6.915
41953SOL    HW227757   7.511  13.255   7.054
41954SOL     OW27758  13.006  14.448  10.127
41954SOL    HW127759  13.095  14.422  10.105
41954SOL    HW227760  13.012  14.480  10.217
41955SOL     OW27761  12.925  12.432  10.847
41955SOL    HW127762  12.964  12.357  10.802
41955SOL    HW227763  12.838  12.441  10.808
41956SOL     OW27764   0.868   6.243   0.460
41956SOL    HW127765   0.811   6.167   0.469
41956SOL    HW227766   0.832   6.307   0.522
41957SOL     OW27767   7.063  13.375   0.770
41957SOL    HW127768   7.140  13.403   0.720
41957SOL    HW227769   6.996  13.440   0.749
41958SOL     OW27770   1.917   3.554  14.289
41958SOL    HW127771   1.989   3.501  14.254
41958SOL    HW227772   1.872   3.587  14.211
41959SOL     OW27773  11.142   7.412  14.372
41959SOL    HW127774  11.061   7.407  14.322
41959SOL    HW227775  11.157   7.322  14.402
41960SOL     OW27776  10.269  12.776   1.254
41960SOL    HW127777  10.226  12.746   1.334
41960SOL    HW227778  10.311  12.698   1.218
41961SOL     OW27779  12.761   3.376   5.761
41961SOL    HW127780  12.750   3.281   5.753
41961SOL    HW227781  12.817   3.387   5.838
41962SOL     OW27782   0.275   3.329  11.817
41962SOL    HW127783   0.291   3.423  11.824
41962SOL    HW227784   0.246   3.303  11.904
41963SOL     OW27785   2.771   2.169  12.871
41963SOL    HW127786   2.767   2.092  12.814
41963SOL    HW227787   2.696   2.158  12.931
41964SOL     OW27788   4.222   3.063   0.717
41964SOL    HW127789   4.257   3.147   0.745
41964SOL    HW227790   4.138   3.054   0.762
41965SOL     OW27791  14.099  13.967  14.577
41965SOL    HW127792  14.103  14.058  14.547
41965SOL    HW227793  14.006  13.953  14.597
41966SOL     OW27794   9.804   2.786  10.632
41966SOL    HW127795   9.874   2.833  10.585
41966SOL    HW227796   9.749   2.750  10.562
41967SOL     OW27797  13.918   1.542   8.387
41967SOL    HW127798  13.910   1.564   8.479
41967SOL    HW227799  13.959   1.619   8.347
41968SOL     OW27800   2.492   9.053  14.023
41968SOL    HW127801   2.417   9.095  14.066
41968SOL    HW227802   2.453   8.990  13.963
41969SOL     OW27803   1.250   5.108   7.601
41969SOL    HW127804   1.227   5.031   7.549
41969SOL    HW227805   1.167   5.136   7.640
41970SOL     OW27806   4.908   0.102   8.327
41970SOL    HW127807   4.813   0.101   8.330
41970SOL    HW227808   4.933   0.163   8.397
41971SOL     OW27809   1.367   2.006   7.453
41971SOL    HW127810   1.399   1.928   7.499
41971SOL    HW227811   1.306   1.971   7.388
41972SOL     OW27812   6.713   2.508  10.178
41972SOL    HW127813   6.697   2.420  10.144
41972SOL    HW227814   6.742   2.558  10.101
41973SOL     OW27815   7.865  11.510   5.538
41973SOL    HW127816   7.882  11.603   5.555
41973SOL    HW227817   7.810  11.482   5.611
41974SOL     OW27818   5.438   0.440   2.961
41974SOL    HW127819   5.472   0.370   3.017
41974SOL    HW227820   5.500   0.513   2.973
41975SOL     OW27821   6.668   7.657   0.068
41975SOL    HW127822   6.733   7.625   0.006
41975SOL    HW227823   6.692   7.749   0.082
41976SOL     OW27824   3.361  13.592  13.152
41976SOL    HW127825   3.316  13.514  13.183
41976SOL    HW227826   3.310  13.665  13.188
41977SOL     OW27827  10.775  10.324   7.438
41977SOL    HW127828  10.763  10.296   7.529
41977SOL    HW227829  10.869  10.314   7.422
41978SOL     OW27830   1.771  12.664   1.678
41978SOL    HW127831   1.741  12.613   1.753
41978SOL    HW227832   1.860  12.691   1.701
41979SOL     OW27833   4.598   9.169   5.427
41979SOL    HW127834   4.617   9.108   5.498
41979SOL    HW227835   4.629   9.254   5.460
41980SOL     OW27836  14.371  13.504   6.486
41980SOL    HW127837  14.300  13.534   6.542
41980SOL    HW227838  14.377  13.410   6.502
41981SOL     OW27839  12.021   2.006   1.299
41981SOL    HW127840  11.984   2.005   1.211
41981SOL    HW227841  11.945   2.000   1.357
41982SOL     OW27842  14.356  13.329  14.710
41982SOL    HW127843  14.278  13.375  14.679
41982SOL    HW227844  14.407  13.312  14.631
41983SOL     OW27845  13.750   5.281  13.656
41983SOL    HW127846  13.793   5.198  13.635
41983SOL    HW227847  13.802   5.317  13.728
41984SOL     OW27848   6.550   8.342   1.274
41984SOL    HW127849   6.516   8.267   1.322
41984SOL    HW227850   6.619   8.306   1.219
41985SOL     OW27851   4.913   0.356  10.822
41985SOL    HW127852   4.949   0.303  10.751
41985SOL    HW227853   4.923   0.446  10.793
41986SOL     OW27854   7.986   7.773   2.808
41986SOL    HW127855   8.059   7.746   2.863
41986SOL    HW227856   7.970   7.698   2.751
41987SOL     OW27857   6.262   7.749   0.814
41987SOL    HW127858   6.321   7.675   0.829
41987SOL    HW227859   6.320   7.825   0.807
41988SOL     OW27860  12.456   2.682   6.848
41988SOL    HW127861  12.406   2.601   6.844
41988SOL    HW227862  12.452   2.718   6.759
41989SOL     OW27863   1.423   7.459  13.813
41989SOL    HW127864   1.426   7.421  13.725
41989SOL    HW227865   1.366   7.401  13.862
41990SOL     OW27866   4.360  14.073  14.328
41990SOL    HW127867   4.284  14.020  14.302
41990SOL    HW227868   4.336  14.108  14.414
41991SOL     OW27869   1.142   6.448   5.510
41991SOL    HW127870   1.067   6.397   5.543
41991SOL    HW227871   1.177   6.396   5.438
41992SOL     OW27872   9.439   3.761   4.683
41992SOL    HW127873   9.352   3.786   4.651
41992SOL    HW227874   9.491   3.841   4.678
41993SOL     OW27875   8.563   2.610   8.181
41993SOL    HW127876   8.503   2.581   8.249
41993SOL    HW227877   8.512   2.603   8.100
41994SOL     OW27878   4.385  13.934   2.350
41994SOL    HW127879   4.356  13.870   2.286
41994SOL    HW227880   4.306  13.957   2.400
41995SOL     OW27881   5.843  11.847  11.744
41995SOL    HW127882   5.825  11.895  11.663
41995SOL    HW227883   5.872  11.914  11.806
41996SOL     OW27884   3.869  14.369   9.703
41996SOL    HW127885   3.850  14.442   9.644
41996SOL    HW227886   3.955  14.390   9.740
41997SOL     OW27887   2.787   7.169   2.455
41997SOL    HW127888   2.768   7.085   2.495
41997SOL    HW227889   2.805   7.148   2.363
41998SOL     OW27890   6.580   2.253   0.159
41998SOL    HW127891   6.604   2.220   0.245
41998SOL    HW227892   6.664   2.267   0.114
41999SOL     OW27893   6.297   6.544   5.415
41999SOL    HW127894   6.207   6.554   5.447
41999SOL    HW227895   6.290   6.485   5.340
42000SOL     OW27896  11.518   4.139   8.837
42000SOL    HW127897  11.562   4.156   8.920
42000SOL    HW227898  11.425   4.155   8.855
42001SOL     OW27899  13.162  14.237   8.878
42001SOL    HW127900  13.071  14.224   8.852
42001SOL    HW227901  13.198  14.295   8.810
42002SOL     OW27902  13.356   2.975  12.129
42002SOL    HW127903  13.321   2.945  12.045
42002SOL    HW227904  13.440   2.931  12.137
42003SOL     OW27905   2.913   1.129  13.288
42003SOL    HW127906   2.868   1.152  13.207
42003SOL    HW227907   2.932   1.036  13.279
42004SOL     OW27908   4.470   9.996   0.441
42004SOL    HW127909   4.400  10.060   0.425
42004SOL    HW227910   4.482   9.953   0.356
42005SOL     OW27911   8.941   8.781   3.493
42005SOL    HW127912   8.860   8.739   3.464
42005SOL    HW227913   8.914   8.869   3.519
42006SOL     OW27914   4.577  12.872   8.582
42006SOL    HW127915   4.600  12.891   8.491
42006SOL    HW227916   4.511  12.803   8.577
42007SOL     OW27917  12.205   2.368  13.120
42007SOL    HW127918  12.220   2.330  13.206
42007SOL    HW227919  12.123   2.328  13.091
42008SOL     OW27920   5.447   5.875  12.401
42008SOL    HW127921   5.516   5.921  12.353
42008SOL    HW227922   5.403   5.943  12.451
42009SOL     OW27923  11.751   7.438   6.006
42009SOL    HW127924  11.693   7.384   6.060
42009SOL    HW227925  11.790   7.376   5.944
42010SOL     OW27926  10.697  13.205  10.730
42010SOL    HW127927  10.768  13.164  10.679
42010SOL    HW227928  10.671  13.137  10.792
42011SOL     OW27929  11.193   3.410   1.839
42011SOL    HW127930  11.278   3.442   1.869
42011SOL    HW227931  11.129   3.464   1.886
42012SOL     OW27932  12.224  11.374  10.058
42012SOL    HW127933  12.210  11.280  10.068
42012SOL    HW227934  12.276  11.400  10.134
42013SOL     OW27935  10.637  11.155   7.387
42013SOL    HW127936  10.548  11.122   7.379
42013SOL    HW227937  10.662  11.136   7.477
42014SOL     OW27938   7.383   0.735  13.300
42014SOL    HW127939   7.411   0.726  13.391
42014SOL    HW227940   7.431   0.667  13.253
42015SOL     OW27941  11.984   1.459  10.249
42015SOL    HW127942  11.997   1.553  10.242
42015SOL    HW227943  11.899   1.449  10.292
42016SOL     OW27944  11.994   1.606  11.831
42016SOL    HW127945  11.901   1.585  11.825
42016SOL    HW227946  12.038   1.530  11.793
42017SOL     OW27947  14.639   8.111   2.701
42017SOL    HW127948  14.548   8.137   2.689
42017SOL    HW227949  14.682   8.134   2.618
42018SOL     OW27950  11.601   5.518   1.219
42018SOL    HW127951  11.538   5.548   1.284
42018SOL    HW227952  11.679   5.494   1.269
42019SOL     OW27953   6.160   6.778   0.135
42019SOL    HW127954   6.111   6.854   0.103
42019SOL    HW227955   6.100   6.704   0.122
42020SOL     OW27956  14.694   9.250  12.392
42020SOL    HW127957  14.738   9.275  12.310
42020SOL    HW227958  14.654   9.166  12.373
42021SOL     OW27959  11.347   4.750   2.958
42021SOL    HW127960  11.420   4.709   2.912
42021SOL    HW227961  11.284   4.771   2.888
42022SOL     OW27962   6.171  10.397   3.961
42022SOL    HW127963   6.232  10.459   4.002
42022SOL    HW227964   6.118  10.451   3.902
42023SOL     OW27965   3.237   6.134   5.882
42023SOL    HW127966   3.245   6.087   5.799
42023SOL    HW227967   3.285   6.081   5.945
42024SOL     OW27968   0.104   5.368   8.229
42024SOL    HW127969   0.041   5.318   8.281
42024SOL    HW227970   0.129   5.309   8.158
42025SOL     OW27971   6.959   8.544   8.306
42025SOL    HW127972   7.054   8.534   8.316
42025SOL    HW227973   6.922   8.500   8.383
42026SOL     OW27974  12.347   1.758   2.522
42026SOL    HW127975  12.344   1.826   2.456
42026SOL    HW227976  12.264   1.766   2.570
42027SOL     OW27977   7.171   4.097   4.603
42027SOL    HW127978   7.163   4.141   4.688
42027SOL    HW227979   7.093   4.042   4.598
42028SOL     OW27980   0.929   7.578   6.674
42028SOL    HW127981   0.967   7.499   6.635
42028SOL    HW227982   0.973   7.650   6.630
42029SOL     OW27983   7.551   1.235   1.634
42029SOL    HW127984   7.592   1.233   1.547
42029SOL    HW227985   7.463   1.267   1.617
42030SOL     OW27986   6.101   9.125   7.651
42030SOL    HW127987   6.110   9.179   7.572
42030SOL    HW227988   6.007   9.122   7.668
42031SOL     OW27989   8.030   1.173  11.986
42031SOL    HW127990   8.113   1.213  12.012
42031SOL    HW227991   8.051   1.121  11.908
42032SOL     OW27992   7.207  11.972  14.111
42032SOL    HW127993   7.168  11.890  14.140
42032SOL    HW227994   7.292  11.975  14.156
42033SOL     OW27995   0.950   4.207   2.866
42033SOL    HW127996   0.856   4.200   2.882
42033SOL    HW227997   0.979   4.279   2.922
42034SOL     OW27998  12.343   1.546  14.314
42034SOL    HW127999  12.279   1.474  14.318
42034SOL    HW228000  12.427   1.502  14.305
42035SOL     OW28001  13.926   9.331   0.487
42035SOL    HW128002  13.917   9.236   0.492
42035SOL    HW228003  13.969   9.346   0.403
42036SOL     OW28004  10.233  13.626   3.645
42036SOL    HW128005  10.225  13.575   3.726
42036SOL    HW228006  10.144  13.658   3.628
42037SOL     OW28007  14.616  13.606   5.048
42037SOL    HW128008  14.624  13.540   4.979
42037SOL    HW228009  14.571  13.679   5.005
42038SOL     OW28010   4.548   5.628   9.984
42038SOL    HW128011   4.477   5.674  10.029
42038SOL    HW228012   4.571   5.684   9.910
42039SOL     OW28013   3.064  12.396   1.021
42039SOL    HW128014   3.004  12.328   1.051
42039SOL    HW228015   3.145  12.349   1.001
42040SOL     OW28016  14.128  10.702  14.289
42040SOL    HW128017  14.210  10.655  14.271
42040SOL    HW228018  14.069  10.635  14.324
42041SOL     OW28019  11.309   6.777  10.731
42041SOL    HW128020  11.224   6.819  10.739
42041SOL    HW228021  11.314   6.718  10.806
42042SOL     OW28022  10.792  11.794   4.607
42042SOL    HW128023  10.707  11.779   4.650
42042SOL    HW228024  10.772  11.852   4.534
42043SOL     OW28025   3.699   0.522   1.938
42043SOL    HW128026   3.708   0.611   1.970
42043SOL    HW228027   3.763   0.471   1.987
42044SOL     OW28028   8.250   6.772   1.555
42044SOL    HW128029   8.341   6.742   1.566
42044SOL    HW228030   8.240   6.840   1.622
42045SOL     OW28031   7.037   8.168  10.702
42045SOL    HW128032   7.054   8.209  10.787
42045SOL    HW228033   6.948   8.196  10.680
42046SOL     OW28034   1.331   6.912   0.343
42046SOL    HW128035   1.326   6.924   0.248
42046SOL    HW228036   1.422   6.884   0.359
42047SOL     OW28037  12.722   7.869   5.819
42047SOL    HW128038  12.684   7.924   5.887
42047SOL    HW228039  12.813   7.899   5.813
42048SOL     OW28040  14.053   0.572   0.977
42048SOL    HW128041  13.989   0.514   1.018
42048SOL    HW228042  14.090   0.521   0.905
42049SOL     OW28043   0.009   9.098  10.753
42049SOL    HW128044   0.028   9.037  10.825
42049SOL    HW228045  14.806   9.063  10.714
42050SOL     OW28046  14.312   3.782   3.831
42050SOL    HW128047  14.323   3.694   3.867
42050SOL    HW228048  14.233   3.815   3.874
42051SOL     OW28049  12.831  14.838  11.497
42051SOL    HW128050  12.871   0.007  11.424
42051SOL    HW228051  12.894  14.847  11.568
42052SOL     OW28052   2.196   8.099   0.954
42052SOL    HW128053   2.258   8.026   0.953
42052SOL    HW228054   2.112   8.058   0.975
42053SOL     OW28055  12.895   8.860   8.844
42053SOL    HW128056  12.898   8.871   8.939
42053SOL    HW228057  12.891   8.766   8.831
42054SOL     OW28058   5.967   1.714   8.666
42054SOL    HW128059   5.940   1.800   8.634
42054SOL    HW228060   5.887   1.674   8.700
42055SOL     OW28061  14.676   0.806  13.445
42055SOL    HW128062  14.641   0.716  13.448
42055SOL    HW228063  14.660   0.835  13.355
42056SOL     OW28064   3.223   1.616   6.353
42056SOL    HW128065   3.132   1.589   6.364
42056SOL    HW228066   3.248   1.653   6.438
42057SOL     OW28067  14.733   9.776  13.411
42057SOL    HW128068  14.731   9.868  13.384
42057SOL    HW228069  14.740   9.779  13.507
42058SOL     OW28070   0.230   0.136   8.084
42058SOL    HW128071   0.249   0.055   8.037
42058SOL    HW228072   0.183   0.190   8.021
42059SOL     OW28073   9.367  10.420  11.293
42059SOL    HW128074   9.432  10.433  11.223
42059SOL    HW228075   9.283  10.421  11.247
42060SOL     OW28076  11.395   5.956   5.447
42060SOL    HW128077  11.405   5.863   5.464
42060SOL    HW228078  11.483   5.992   5.459
42061SOL     OW28079   8.996  10.050  14.550
42061SOL    HW128080   9.028   9.978  14.496
42061SOL    HW228081   9.030  10.129  14.508
42062SOL     OW28082   8.782  11.243  12.659
42062SOL    HW128083   8.774  11.170  12.720
42062SOL    HW228084   8.730  11.313  12.698
42063SOL     OW28085  12.323  12.859  12.894
42063SOL    HW128086  12.389  12.813  12.945
42063SOL    HW228087  12.364  12.943  12.873
42064SOL     OW28088  10.953   0.425  11.309
42064SOL    HW128089  10.885   0.358  11.308
42064SOL    HW228090  10.909   0.503  11.274
42065SOL     OW28091  11.020   5.062   8.363
42065SOL    HW128092  10.968   5.131   8.321
42065SOL    HW228093  10.958   5.015   8.418
42066SOL     OW28094   9.002  11.566   5.362
42066SOL    HW128095   9.038  11.631   5.302
42066SOL    HW228096   9.074  11.548   5.423
42067SOL     OW28097   7.181   6.542   6.362
42067SOL    HW128098   7.225   6.610   6.413
42067SOL    HW228099   7.249   6.477   6.345
42068SOL     OW28100   0.748   9.200   4.144
42068SOL    HW128101   0.816   9.176   4.207
42068SOL    HW228102   0.795   9.227   4.065
42069SOL     OW28103  13.812   3.779   5.943
42069SOL    HW128104  13.896   3.813   5.914
42069SOL    HW228105  13.811   3.795   6.038
42070SOL     OW28106   1.567   6.353  10.022
42070SOL    HW128107   1.483   6.307  10.020
42070SOL    HW228108   1.568   6.403   9.940
42071SOL     OW28109   1.372   0.825   8.671
42071SOL    HW128110   1.354   0.807   8.579
42071SOL    HW228111   1.313   0.767   8.719
42072SOL     OW28112  14.089  13.398  11.000
42072SOL    HW128113  14.017  13.345  10.968
42072SOL    HW228114  14.130  13.435  10.922
42073SOL     OW28115   7.928   5.887  10.839
42073SOL    HW128116   7.944   5.833  10.761
42073SOL    HW228117   7.989   5.961  10.829
42074SOL     OW28118   4.834   7.288   7.298
42074SOL    HW128119   4.871   7.205   7.268
42074SOL    HW228120   4.793   7.268   7.382
42075SOL     OW28121   3.521   7.214  12.341
42075SOL    HW128122   3.481   7.127  12.348
42075SOL    HW228123   3.450   7.275  12.358
42076SOL     OW28124   1.047   0.009   8.762
42076SOL    HW128125   1.073   0.100   8.771
42076SOL    HW228126   1.001   0.005   8.678
42077SOL     OW28127   1.619   7.996   8.548
42077SOL    HW128128   1.634   8.059   8.477
42077SOL    HW228129   1.543   7.945   8.519
42078SOL     OW28130   7.460  12.980   1.080
42078SOL    HW128131   7.502  12.910   1.131
42078SOL    HW228132   7.495  13.060   1.118
42079SOL     OW28133  14.840  13.722   6.830
42079SOL    HW128134  14.774  13.770   6.880
42079SOL    HW228135  14.802  13.712   6.743
42080SOL     OW28136   8.150   9.957   1.558
42080SOL    HW128137   8.069  10.008   1.567
42080SOL    HW228138   8.145   9.919   1.471
42081SOL     OW28139   5.534   9.756   5.682
42081SOL    HW128140   5.597   9.801   5.738
42081SOL    HW228141   5.560   9.664   5.685
42082SOL     OW28142   3.033   0.954  11.926
42082SOL    HW128143   3.120   0.988  11.903
42082SOL    HW228144   2.972   1.020  11.891
42083SOL     OW28145   9.456   5.587   9.106
42083SOL    HW128146   9.448   5.534   9.186
42083SOL    HW228147   9.369   5.585   9.068
42084SOL     OW28148  13.585   1.889   5.788
42084SOL    HW128149  13.563   1.929   5.873
42084SOL    HW228150  13.503   1.851   5.758
42085SOL     OW28151   9.889   6.406   9.018
42085SOL    HW128152   9.961   6.429   9.076
42085SOL    HW228153   9.916   6.325   8.976
42086SOL     OW28154   0.594  11.588   4.520
42086SOL    HW128155   0.622  11.539   4.443
42086SOL    HW228156   0.601  11.527   4.593
42087SOL     OW28157   3.268  12.106   7.315
42087SOL    HW128158   3.301  12.084   7.228
42087SOL    HW228159   3.298  12.195   7.331
42088SOL     OW28160   3.340   5.993   2.581
42088SOL    HW128161   3.316   6.083   2.557
42088SOL    HW228162   3.368   5.953   2.499
42089SOL     OW28163  10.622   9.171   6.277
42089SOL    HW128164  10.692   9.135   6.223
42089SOL    HW228165  10.665   9.196   6.359
42090SOL     OW28166   7.605   6.323   3.509
42090SOL    HW128167   7.540   6.268   3.550
42090SOL    HW228168   7.656   6.263   3.453
42091SOL     OW28169   9.290   1.644   0.096
42091SOL    HW128170   9.382   1.667   0.080
42091SOL    HW228171   9.244   1.674   0.018
42092SOL     OW28172   7.035  12.061   5.422
42092SOL    HW128173   6.965  12.075   5.487
42092SOL    HW228174   7.115  12.054   5.474
42093SOL     OW28175   9.574  13.006  14.037
42093SOL    HW128176   9.554  12.926  14.086
42093SOL    HW228177   9.635  13.053  14.094
42094SOL     OW28178   6.117  10.113   5.195
42094SOL    HW128179   6.119  10.038   5.255
42094SOL    HW228180   6.128  10.074   5.108
42095SOL     OW28181  10.757   5.356   3.358
42095SOL    HW128182  10.766   5.310   3.275
42095SOL    HW228183  10.706   5.297   3.413
42096SOL     OW28184   4.094   3.399   7.659
42096SOL    HW128185   4.151   3.406   7.735
42096SOL    HW228186   4.067   3.489   7.640
42097SOL     OW28187   1.265   1.136   3.095
42097SOL    HW128188   1.281   1.205   3.030
42097SOL    HW228189   1.170   1.124   3.094
42098SOL     OW28190   2.124   5.276  10.016
42098SOL    HW128191   2.119   5.369   9.995
42098SOL    HW228192   2.159   5.236   9.937
42099SOL     OW28193   6.331   8.322   3.730
42099SOL    HW128194   6.316   8.339   3.637
42099SOL    HW228195   6.425   8.304   3.736
42100SOL     OW28196   2.149   5.678   5.241
42100SOL    HW128197   2.237   5.699   5.272
42100SOL    HW228198   2.157   5.672   5.146
42101SOL     OW28199   0.463   3.662  10.281
42101SOL    HW128200   0.513   3.705  10.212
42101SOL    HW228201   0.391   3.723  10.299
42102SOL     OW28202   1.066  11.998  11.010
42102SOL    HW128203   1.028  12.084  10.992
42102SOL    HW228204   1.046  11.947  10.931
42103SOL     OW28205   7.140   3.749  12.311
42103SOL    HW128206   7.208   3.808  12.278
42103SOL    HW228207   7.164   3.663  12.276
42104SOL     OW28208   3.373   8.226   4.423
42104SOL    HW128209   3.452   8.181   4.392
42104SOL    HW228210   3.304   8.160   4.412
42105SOL     OW28211   7.546   1.381  14.001
42105SOL    HW128212   7.596   1.309  13.963
42105SOL    HW228213   7.611   1.450  14.016
42106SOL     OW28214  10.785  11.545  12.849
42106SOL    HW128215  10.739  11.628  12.857
42106SOL    HW228216  10.868  11.567  12.808
42107SOL     OW28217   9.048   8.165   3.744
42107SOL    HW128218   9.020   8.224   3.813
42107SOL    HW228219   8.993   8.088   3.754
42108SOL     OW28220  12.512   5.058   5.370
42108SOL    HW128221  12.445   5.067   5.438
42108SOL    HW228222  12.562   4.981   5.395
42109SOL     OW28223   8.643   2.945  11.934
42109SOL    HW128224   8.611   2.901  12.012
42109SOL    HW228225   8.646   2.876  11.867
42110SOL     OW28226   3.141  13.540   3.456
42110SOL    HW128227   3.191  13.460   3.439
42110SOL    HW228228   3.084  13.549   3.380
42111SOL     OW28229  11.684   6.415   3.702
42111SOL    HW128230  11.687   6.509   3.688
42111SOL    HW228231  11.597   6.389   3.671
42112SOL     OW28232   9.069   1.535   2.646
42112SOL    HW128233   9.010   1.610   2.647
42112SOL    HW228234   9.018   1.464   2.607
42113SOL     OW28235   9.889  14.043   1.661
42113SOL    HW128236   9.919  14.130   1.637
42113SOL    HW228237   9.951  13.984   1.617
42114SOL     OW28238   1.801   9.954   9.031
42114SOL    HW128239   1.758   9.915   8.955
42114SOL    HW228240   1.894   9.940   9.016
42115SOL     OW28241   2.360   7.626   7.597
42115SOL    HW128242   2.297   7.666   7.537
42115SOL    HW228243   2.445   7.660   7.569
42116SOL     OW28244  11.731   9.938   5.775
42116SOL    HW128245  11.790   9.881   5.825
42116SOL    HW228246  11.767  10.026   5.788
42117SOL     OW28247   4.840   6.207  10.662
42117SOL    HW128248   4.927   6.167  10.660
42117SOL    HW228249   4.824   6.232  10.571
42118SOL     OW28250  10.050  11.227   0.053
42118SOL    HW128251  10.023  11.144   0.015
42118SOL    HW228252  10.138  11.243   0.017
42119SOL     OW28253   2.063  13.183   0.244
42119SOL    HW128254   2.037  13.091   0.246
42119SOL    HW228255   2.019  13.222   0.319
42120SOL     OW28256   1.785  13.813   5.319
42120SOL    HW128257   1.769  13.792   5.411
42120SOL    HW228258   1.785  13.909   5.316
42121SOL     OW28259   8.554   6.672   4.301
42121SOL    HW128260   8.544   6.583   4.267
42121SOL    HW228261   8.521   6.667   4.391
42122SOL     OW28262   4.264   9.907  12.623
42122SOL    HW128263   4.237   9.851  12.550
42122SOL    HW228264   4.236   9.860  12.701
42123SOL     OW28265  13.361   5.989   8.475
42123SOL    HW128266  13.391   5.967   8.563
42123SOL    HW228267  13.367   6.085   8.472
42124SOL     OW28268   6.557   2.861  13.926
42124SOL    HW128269   6.485   2.824  13.874
42124SOL    HW228270   6.520   2.940  13.965
42125SOL     OW28271   9.537   1.504   7.305
42125SOL    HW128272   9.525   1.558   7.383
42125SOL    HW228273   9.601   1.551   7.252
42126SOL     OW28274   6.144   5.594  11.215
42126SOL    HW128275   6.056   5.563  11.237
42126SOL    HW228276   6.148   5.591  11.119
42127SOL     OW28277   1.587   7.570   4.655
42127SOL    HW128278   1.624   7.574   4.743
42127SOL    HW228279   1.603   7.656   4.618
42128SOL     OW28280   8.396  12.752  12.159
42128SOL    HW128281   8.480  12.732  12.200
42128SOL    HW228282   8.389  12.689  12.087
42129SOL     OW28283  11.424   2.656   3.881
42129SOL    HW128284  11.434   2.639   3.975
42129SOL    HW228285  11.511   2.643   3.844
42130SOL     OW28286  10.658  10.341   8.772
42130SOL    HW128287  10.703  10.257   8.770
42130SOL    HW228288  10.682  10.384   8.690
42131SOL     OW28289   7.502   7.965   4.796
42131SOL    HW128290   7.598   7.971   4.796
42131SOL    HW228291   7.483   7.897   4.731
42132SOL     OW28292   7.165   8.669  10.927
42132SOL    HW128293   7.222   8.696  10.855
42132SOL    HW228294   7.220   8.612  10.981
42133SOL     OW28295   2.048   9.644  11.300
42133SOL    HW128296   2.008   9.605  11.222
42133SOL    HW228297   2.127   9.591  11.313
42134SOL     OW28298  14.654   9.645   7.825
42134SOL    HW128299  14.722   9.589   7.863
42134SOL    HW228300  14.680   9.734   7.847
42135SOL     OW28301   7.354  14.276   0.020
42135SOL    HW128302   7.326  14.320   0.100
42135SOL    HW228303   7.278  14.280  14.840
42136SOL     OW28304   5.601  11.640  11.036
42136SOL    HW128305   5.526  11.585  11.012
42136SOL    HW228306   5.580  11.673  11.123
42137SOL     OW28307   3.920  13.091   6.225
42137SOL    HW128308   3.873  13.153   6.280
42137SOL    HW228309   3.870  13.090   6.143
42138SOL     OW28310   5.086   9.460   2.194
42138SOL    HW128311   5.072   9.539   2.247
42138SOL    HW228312   5.117   9.394   2.256
42139SOL     OW28313   8.909   4.568  14.478
42139SOL    HW128314   8.922   4.486  14.431
42139SOL    HW228315   8.985   4.575  14.536
42140SOL     OW28316   0.586  11.293   2.451
42140SOL    HW128317   0.540  11.374   2.470
42140SOL    HW228318   0.608  11.257   2.537
42141SOL     OW28319   8.535   0.002   7.740
42141SOL    HW128320   8.521  14.871   7.646
42141SOL    HW228321   8.504  14.796   7.776
42142SOL     OW28322   8.810   7.523   9.643
42142SOL    HW128323   8.788   7.455   9.580
42142SOL    HW228324   8.796   7.605   9.596
42143SOL     OW28325   7.123   3.060   5.098
42143SOL    HW128326   7.114   2.967   5.076
42143SOL    HW228327   7.210   3.068   5.137
42144SOL     OW28328   0.753  14.069   3.785
42144SOL    HW128329   0.842  14.039   3.767
42144SOL    HW228330   0.736  14.136   3.718
42145SOL     OW28331  11.602   4.150   5.085
42145SOL    HW128332  11.676   4.209   5.073
42145SOL    HW228333  11.618   4.108   5.169
42146SOL     OW28334   5.826   6.017   9.940
42146SOL    HW128335   5.733   6.037   9.942
42146SOL    HW228336   5.842   5.964  10.017
42147SOL     OW28337  12.686  10.979   1.201
42147SOL    HW128338  12.642  11.062   1.183
42147SOL    HW228339  12.616  10.921   1.232
42148SOL     OW28340   0.943   5.812  10.487
42148SOL    HW128341   0.895   5.800  10.405
42148SOL    HW228342   1.035   5.807  10.462
42149SOL     OW28343   1.528   0.659   1.750
42149SOL    HW128344   1.584   0.618   1.684
42149SOL    HW228345   1.577   0.651   1.832
42150SOL     OW28346   3.962   3.210  10.451
42150SOL    HW128347   3.955   3.128  10.501
42150SOL    HW228348   3.902   3.270  10.494
42151SOL     OW28349   1.627  11.267   1.977
42151SOL    HW128350   1.617  11.184   1.931
42151SOL    HW228351   1.667  11.325   1.912
42152SOL     OW28352   3.231  10.714   8.999
42152SOL    HW128353   3.181  10.642   9.038
42152SOL    HW228354   3.292  10.741   9.068
42153SOL     OW28355   2.914   8.448  11.050
42153SOL    HW128356   2.968   8.525  11.066
42153SOL    HW228357   2.846   8.478  10.989
42154SOL     OW28358  13.208  11.062   7.001
42154SOL    HW128359  13.215  10.967   7.008
42154SOL    HW228360  13.120  11.082   7.031
42155SOL     OW28361  14.608   0.247   2.939
42155SOL    HW128362  14.552   0.200   3.000
42155SOL    HW228363  14.578   0.338   2.945
42156SOL     OW28364   6.066  10.238  14.255
42156SOL    HW128365   6.130  10.274  14.317
42156SOL    HW228366   6.014  10.176  14.307
42157SOL     OW28367   6.409   6.748   4.644
42157SOL    HW128368   6.315   6.757   4.631
42157SOL    HW228369   6.420   6.662   4.683
42158SOL     OW28370   9.960   7.244   0.627
42158SOL    HW128371   9.961   7.150   0.606
42158SOL    HW228372   9.937   7.287   0.544
42159SOL     OW28373  10.749  10.053   8.493
42159SOL    HW128374  10.839  10.030   8.468
42159SOL    HW228375  10.758  10.101   8.575
42160SOL     OW28376   1.725   4.390  11.878
42160SOL    HW128377   1.716   4.301  11.844
42160SOL    HW228378   1.804   4.388  11.932
42161SOL     OW28379  12.622   4.016  12.409
42161SOL    HW128380  12.705   3.968  12.410
42161SOL    HW228381  12.560   3.955  12.449
42162SOL     OW28382   9.456   7.883   7.946
42162SOL    HW128383   9.460   7.938   8.025
42162SOL    HW228384   9.436   7.795   7.979
42163SOL     OW28385  11.376  10.639  12.019
42163SOL    HW128386  11.405  10.550  12.001
42163SOL    HW228387  11.457  10.690  12.026
42164SOL     OW28388  10.747   5.478   4.500
42164SOL    HW128389  10.686   5.530   4.553
42164SOL    HW228390  10.802   5.434   4.564
42165SOL     OW28391   3.778   8.057  10.174
42165SOL    HW128392   3.808   8.003  10.247
42165SOL    HW228393   3.857   8.074  10.122
42166SOL     OW28394  12.482   2.616  11.519
42166SOL    HW128395  12.495   2.683  11.585
42166SOL    HW228396  12.566   2.569  11.516
42167SOL     OW28397   4.664  10.501   9.913
42167SOL    HW128398   4.724  10.450   9.858
42167SOL    HW228399   4.685  10.592   9.892
42168SOL     OW28400  11.026  12.911   8.677
42168SOL    HW128401  11.063  12.917   8.766
42168SOL    HW228402  11.099  12.883   8.623
42169SOL     OW28403   7.185   5.535  13.046
42169SOL    HW128404   7.142   5.505  13.126
42169SOL    HW228405   7.240   5.461  13.020
42170SOL     OW28406   2.812   9.207   5.208
42170SOL    HW128407   2.804   9.158   5.126
42170SOL    HW228408   2.839   9.142   5.272
42171SOL     OW28409   6.768  12.610  10.804
42171SOL    HW128410   6.744  12.703  10.799
42171SOL    HW228411   6.789  12.586  10.714
42172SOL     OW28412  14.352   2.347   5.183
42172SOL    HW128413  14.331   2.292   5.107
42172SOL    HW228414  14.368   2.433   5.146
42173SOL     OW28415   2.388   7.567  12.050
42173SOL    HW128416   2.455   7.579  12.118
42173SOL    HW228417   2.354   7.479  12.066
42174SOL     OW28418   4.169  10.909  10.360
42174SOL    HW128419   4.154  10.885  10.451
42174SOL    HW228420   4.227  10.840  10.326
42175SOL     OW28421   5.930  10.927  12.428
42175SOL    HW128422   5.955  10.926  12.335
42175SOL    HW228423   5.979  10.854  12.466
42176SOL     OW28424   3.729  14.455   0.294
42176SOL    HW128425   3.801  14.466   0.356
42176SOL    HW228426   3.652  14.488   0.341
42177SOL     OW28427  12.727   6.011   2.245
42177SOL    HW128428  12.686   6.090   2.279
42177SOL    HW228429  12.660   5.943   2.255
42178SOL     OW28430   9.589   7.867  10.058
42178SOL    HW128431   9.560   7.777  10.074
42178SOL    HW228432   9.653   7.859   9.987
42179SOL     OW28433  13.490  14.224  10.090
42179SOL    HW128434  13.501  14.215  10.185
42179SOL    HW228435  13.573  14.261  10.060
42180SOL     OW28436  11.660  13.377   0.829
42180SOL    HW128437  11.648  13.330   0.912
42180SOL    HW228438  11.580  13.358   0.779
42181SOL     OW28439  10.049  13.199   0.126
42181SOL    HW128440  10.007  13.278   0.159
42181SOL    HW228441  10.090  13.159   0.203
42182SOL     OW28442  14.569   9.043   4.517
42182SOL    HW128443  14.642   9.089   4.476
42182SOL    HW228444  14.611   8.971   4.565
42183SOL     OW28445  12.446  11.017   3.934
42183SOL    HW128446  12.449  10.947   3.999
42183SOL    HW228447  12.462  11.097   3.984
42184SOL     OW28448   1.599   9.010   4.767
42184SOL    HW128449   1.632   8.951   4.834
42184SOL    HW228450   1.632   9.096   4.791
42185SOL     OW28451  14.048   5.383   5.937
42185SOL    HW128452  13.969   5.399   5.988
42185SOL    HW228453  14.120   5.394   6.000
42186SOL     OW28454   5.361   7.975   4.508
42186SOL    HW128455   5.316   7.982   4.592
42186SOL    HW228456   5.380   8.065   4.484
42187SOL     OW28457  11.101  13.296  10.618
42187SOL    HW128458  11.174  13.352  10.646
42187SOL    HW228459  11.139  13.239  10.552
42188SOL     OW28460   7.248   8.646   6.818
42188SOL    HW128461   7.259   8.554   6.842
42188SOL    HW228462   7.162   8.671   6.852
42189SOL     OW28463  14.423  13.261   9.020
42189SOL    HW128464  14.357  13.193   9.034
42189SOL    HW228465  14.386  13.319   8.954
42190SOL     OW28466   6.466  13.204   0.138
42190SOL    HW128467   6.397  13.241   0.193
42190SOL    HW228468   6.527  13.164   0.200
42191SOL     OW28469   7.451  11.941  11.146
42191SOL    HW128470   7.543  11.917  11.135
42191SOL    HW228471   7.431  11.996  11.070
42192SOL     OW28472   0.351   1.556   9.357
42192SOL    HW128473   0.349   1.471   9.312
42192SOL    HW228474   0.363   1.620   9.287
42193SOL     OW28475   7.931   9.307   8.329
42193SOL    HW128476   7.978   9.364   8.390
42193SOL    HW228477   7.844   9.297   8.368
42194SOL     OW28478   7.413  13.340  12.663
42194SOL    HW128479   7.321  13.358  12.684
42194SOL    HW228480   7.410  13.274  12.594
42195SOL     OW28481  11.593  10.239   2.020
42195SOL    HW128482  11.504  10.239   2.056
42195SOL    HW228483  11.649  10.260   2.095
42196SOL     OW28484   3.316   5.163  10.059
42196SOL    HW128485   3.236   5.209  10.087
42196SOL    HW228486   3.387   5.211  10.101
42197SOL     OW28487   8.266  14.847   3.545
42197SOL    HW128488   8.292  14.849   3.453
42197SOL    HW228489   8.280   0.058   3.576
42198SOL     OW28490   6.207  11.490   3.248
42198SOL    HW128491   6.147  11.528   3.183
42198SOL    HW228492   6.294  11.522   3.222
42199SOL     OW28493   4.544   1.118   2.614
42199SOL    HW128494   4.606   1.181   2.578
42199SOL    HW228495   4.547   1.133   2.709
42200SOL     OW28496   1.447  11.253   9.580
42200SOL    HW128497   1.534  11.239   9.617
42200SOL    HW228498   1.463  11.273   9.488
42201SOL     OW28499   6.424  13.840   4.305
42201SOL    HW128500   6.497  13.894   4.334
42201SOL    HW228501   6.432  13.760   4.356
42202SOL     OW28502  10.610   6.271   6.481
42202SOL    HW128503  10.606   6.200   6.545
42202SOL    HW228504  10.602   6.351   6.533
42203SOL     OW28505   3.032   4.063   2.351
42203SOL    HW128506   2.957   4.067   2.411
42203SOL    HW228507   3.026   4.143   2.300
42204SOL     OW28508   4.393   6.040   2.182
42204SOL    HW128509   4.408   6.112   2.121
42204SOL    HW228510   4.477   5.994   2.186
42205SOL     OW28511   6.556   5.499   0.653
42205SOL    HW128512   6.468   5.464   0.662
42205SOL    HW228513   6.563   5.523   0.561
42206SOL     OW28514   3.542   8.264  11.960
42206SOL    HW128515   3.504   8.188  12.005
42206SOL    HW228516   3.632   8.236  11.939
42207SOL     OW28517  11.036  11.944  10.882
42207SOL    HW128518  11.102  11.967  10.947
42207SOL    HW228519  11.023  11.850  10.893
42208SOL     OW28520  11.813   3.566   0.571
42208SOL    HW128521  11.889   3.509   0.561
42208SOL    HW228522  11.760   3.525   0.639
42209SOL     OW28523   8.843   5.026   3.858
42209SOL    HW128524   8.812   5.117   3.861
42209SOL    HW228525   8.833   5.001   3.766
42210SOL     OW28526   3.390  10.879   9.676
42210SOL    HW128527   3.311  10.932   9.670
42210SOL    HW228528   3.452  10.921   9.617
42211SOL     OW28529   2.674  10.992   0.115
42211SOL    HW128530   2.637  11.068   0.071
42211SOL    HW228531   2.651  11.004   0.207
42212SOL     OW28532  14.251  13.278  10.316
42212SOL    HW128533  14.328  13.235  10.278
42212SOL    HW228534  14.282  13.314  10.399
42213SOL     OW28535   0.514   8.020  12.951
42213SOL    HW128536   0.438   8.022  12.893
42213SOL    HW228537   0.590   8.025  12.892
42214SOL     OW28538   7.431  10.089  11.208
42214SOL    HW128539   7.336  10.088  11.206
42214SOL    HW228540   7.453  10.074  11.300
42215SOL     OW28541  10.151   4.066   2.026
42215SOL    HW128542  10.076   4.072   2.085
42215SOL    HW228543  10.120   4.013   1.952
42216SOL     OW28544   3.480   6.801   1.753
42216SOL    HW128545   3.564   6.763   1.778
42216SOL    HW228546   3.471   6.779   1.660
42217SOL     OW28547  10.788   0.675   8.989
42217SOL    HW128548  10.775   0.763   8.955
42217SOL    HW228549  10.707   0.655   9.036
42218SOL     OW28550   6.519   0.016   7.870
42218SOL    HW128551   6.544   0.079   7.938
42218SOL    HW228552   6.521   0.065   7.789
42219SOL     OW28553  12.973  10.527  11.492
42219SOL    HW128554  13.000  10.615  11.468
42219SOL    HW228555  12.878  10.531  11.495
42220SOL     OW28556   8.002  11.862   2.240
42220SOL    HW128557   7.939  11.898   2.302
42220SOL    HW228558   7.980  11.903   2.157
42221SOL     OW28559  11.540   2.110   8.500
42221SOL    HW128560  11.611   2.066   8.548
42221SOL    HW228561  11.461   2.090   8.550
42222SOL     OW28562  11.898   3.397   3.131
42222SOL    HW128563  11.963   3.450   3.177
42222SOL    HW228564  11.838   3.368   3.200
42223SOL     OW28565   5.474   7.015  10.764
42223SOL    HW128566   5.464   7.107  10.786
42223SOL    HW228567   5.455   6.968  10.845
42224SOL     OW28568  10.327  14.577   3.101
42224SOL    HW128569  10.328  14.520   3.024
42224SOL    HW228570  10.383  14.651   3.077
42225SOL     OW28571   1.671   8.243   7.207
42225SOL    HW128572   1.662   8.188   7.129
42225SOL    HW228573   1.644   8.186   7.279
42226SOL     OW28574  13.170   4.119   4.211
42226SOL    HW128575  13.086   4.135   4.168
42226SOL    HW228576  13.229   4.184   4.173
42227SOL     OW28577   4.037   2.248   0.587
42227SOL    HW128578   4.109   2.310   0.576
42227SOL    HW228579   4.019   2.248   0.681
42228SOL     OW28580  10.222  10.159  10.920
42228SOL    HW128581  10.247  10.252  10.926
42228SOL    HW228582  10.157  10.156  10.851
42229SOL     OW28583   0.964   9.748   8.357
42229SOL    HW128584   0.910   9.686   8.307
42229SOL    HW228585   0.939   9.834   8.323
42230SOL     OW28586   5.965   1.055   7.951
42230SOL    HW128587   5.977   1.067   8.045
42230SOL    HW228588   5.871   1.054   7.938
42231SOL     OW28589   0.730   7.632   3.347
42231SOL    HW128590   0.693   7.701   3.291
42231SOL    HW228591   0.789   7.679   3.406
42232SOL     OW28592   3.323   7.458   2.673
42232SOL    HW128593   3.391   7.502   2.623
42232SOL    HW228594   3.278   7.401   2.610
42233SOL     OW28595  10.434   1.802   9.216
42233SOL    HW128596  10.439   1.872   9.281
42233SOL    HW228597  10.345   1.768   9.225
42234SOL     OW28598   8.675  12.624   9.617
42234SOL    HW128599   8.690  12.666   9.533
42234SOL    HW228600   8.611  12.680   9.662
42235SOL     OW28601   8.811  12.827  12.872
42235SOL    HW128602   8.849  12.788  12.950
42235SOL    HW228603   8.717  12.810  12.880
42236SOL     OW28604   3.377   0.248   5.038
42236SOL    HW128605   3.294   0.281   5.072
42236SOL    HW228606   3.383   0.283   4.950
42237SOL     OW28607   2.454   4.427  12.811
42237SOL    HW128608   2.481   4.337  12.829
42237SOL    HW228609   2.401   4.421  12.731
42238SOL     OW28610   2.225   0.542   5.886
42238SOL    HW128611   2.213   0.455   5.848
42238SOL    HW228612   2.320   0.555   5.888
42239SOL     OW28613   4.427  12.246  11.447
42239SOL    HW128614   4.363  12.222  11.380
42239SOL    HW228615   4.441  12.166  11.497
42240SOL     OW28616  14.447  12.320   3.418
42240SOL    HW128617  14.373  12.259   3.420
42240SOL    HW228618  14.516  12.274   3.371
42241SOL     OW28619   1.912  12.158   5.365
42241SOL    HW128620   1.914  12.249   5.337
42241SOL    HW228621   1.926  12.108   5.284
42242SOL     OW28622   1.424   0.874   4.539
42242SOL    HW128623   1.412   0.815   4.465
42242SOL    HW228624   1.518   0.889   4.543
42243SOL     OW28625  14.807   3.439  10.678
42243SOL    HW128626  14.772   3.403  10.597
42243SOL    HW228627  14.734   3.436  10.740
42244SOL     OW28628   1.328   7.044   7.399
42244SOL    HW128629   1.237   7.074   7.402
42244SOL    HW228630   1.361   7.076   7.316
42245SOL     OW28631   6.928   4.464   2.553
42245SOL    HW128632   6.941   4.502   2.639
42245SOL    HW228633   6.938   4.537   2.492
42246SOL     OW28634   7.774   2.851   7.815
42246SOL    HW128635   7.706   2.908   7.849
42246SOL    HW228636   7.748   2.763   7.843
42247SOL     OW28637   7.592   3.280   8.440
42247SOL    HW128638   7.536   3.270   8.364
42247SOL    HW228639   7.578   3.370   8.469
42248SOL     OW28640  12.110   3.851   7.040
42248SOL    HW128641  12.060   3.914   6.988
42248SOL    HW228642  12.086   3.766   7.004
42249SOL     OW28643   0.964   5.201   8.989
42249SOL    HW128644   1.038   5.261   8.996
42249SOL    HW228645   0.993   5.133   8.927
42250SOL     OW28646   8.508   5.567  13.334
42250SOL    HW128647   8.472   5.639  13.282
42250SOL    HW228648   8.559   5.515  13.272
42251SOL     OW28649  11.694  11.728   8.285
42251SOL    HW128650  11.737  11.808   8.255
42251SOL    HW228651  11.631  11.758   8.351
42252SOL     OW28652  10.184   1.185  13.423
42252SOL    HW128653  10.240   1.115  13.388
42252SOL    HW228654  10.242   1.237  13.478
42253SOL     OW28655   6.467  13.310   2.149
42253SOL    HW128656   6.395  13.353   2.195
42253SOL    HW228657   6.522  13.382   2.118
42254SOL     OW28658   9.446   3.288   6.586
42254SOL    HW128659   9.453   3.256   6.496
42254SOL    HW228660   9.530   3.330   6.604
42255SOL     OW28661  10.529   7.098   9.249
42255SOL    HW128662  10.437   7.090   9.224
42255SOL    HW228663  10.538   7.189   9.279
42256SOL     OW28664   3.699  12.363   2.217
42256SOL    HW128665   3.631  12.330   2.276
42256SOL    HW228666   3.776  12.310   2.238
42257SOL     OW28667   2.717   4.594  12.295
42257SOL    HW128668   2.715   4.652  12.219
42257SOL    HW228669   2.658   4.522  12.272
42258SOL     OW28670   3.180   0.658   2.366
42258SOL    HW128671   3.192   0.591   2.433
42258SOL    HW228672   3.207   0.739   2.409
42259SOL     OW28673  13.254   1.086  14.625
42259SOL    HW128674  13.210   1.094  14.540
42259SOL    HW228675  13.183   1.078  14.688
42260SOL     OW28676   0.766   0.969   5.125
42260SOL    HW128677   0.802   1.039   5.070
42260SOL    HW228678   0.709   1.014   5.187
42261SOL     OW28679   3.581  11.331  11.868
42261SOL    HW128680   3.625  11.275  11.932
42261SOL    HW228681   3.594  11.287  11.784
42262SOL     OW28682   5.734  10.303   1.285
42262SOL    HW128683   5.689  10.386   1.269
42262SOL    HW228684   5.827  10.323   1.273
42263SOL     OW28685   8.370   5.292  10.667
42263SOL    HW128686   8.387   5.357  10.599
42263SOL    HW228687   8.278   5.304  10.689
42264SOL     OW28688   1.752   9.951   4.644
42264SOL    HW128689   1.792  10.024   4.692
42264SOL    HW228690   1.741   9.985   4.555
42265SOL     OW28691   1.929   2.171   3.075
42265SOL    HW128692   1.939   2.079   3.099
42265SOL    HW228693   1.869   2.207   3.140
42266SOL     OW28694   5.084   1.402  10.125
42266SOL    HW128695   4.996   1.425  10.097
42266SOL    HW228696   5.085   1.417  10.219
42267SOL     OW28697   6.956   6.163   4.286
42267SOL    HW128698   6.949   6.116   4.203
42267SOL    HW228699   7.050   6.177   4.297
42268SOL     OW28700   7.206   9.221  14.427
42268SOL    HW128701   7.138   9.167  14.388
42268SOL    HW228702   7.283   9.164  14.429
42269SOL     OW28703   1.000   1.908  11.829
42269SOL    HW128704   0.991   2.003  11.837
42269SOL    HW228705   1.094   1.893  11.836
42270SOL     OW28706   0.765   1.530   1.947
42270SOL    HW128707   0.749   1.477   1.868
42270SOL    HW228708   0.794   1.615   1.913
42271SOL     OW28709  12.216   4.773   0.145
42271SOL    HW128710  12.276   4.820   0.203
42271SOL    HW228711  12.223   4.681   0.170
42272SOL     OW28712   5.980   0.681   8.116
42272SOL    HW128713   6.009   0.767   8.146
42272SOL    HW228714   5.919   0.699   8.045
42273SOL     OW28715   9.641   3.541   7.965
42273SOL    HW128716   9.675   3.626   7.937
42273SOL    HW228717   9.574   3.562   8.031
42274SOL     OW28718  13.709  14.345  11.566
42274SOL    HW128719  13.642  14.321  11.503
42274SOL    HW228720  13.771  14.399  11.516
42275SOL     OW28721   6.856   2.947   6.874
42275SOL    HW128722   6.841   2.887   6.948
42275SOL    HW228723   6.803   3.023   6.895
42276SOL     OW28724  10.946   1.878   8.837
42276SOL    HW128725  10.990   1.939   8.778
42276SOL    HW228726  10.865   1.922   8.862
42277SOL     OW28727   7.609  11.590  10.502
42277SOL    HW128728   7.668  11.646  10.551
42277SOL    HW228729   7.659  11.510  10.486
42278SOL     OW28730   5.824   5.031   0.022
42278SOL    HW128731   5.900   5.075   0.060
42278SOL    HW228732   5.770   5.103  14.866
42279SOL     OW28733   7.883  12.090   4.206
42279SOL    HW128734   7.972  12.080   4.239
42279SOL    HW228735   7.828  12.080   4.283
42280SOL     OW28736   3.420   4.624   2.883
42280SOL    HW128737   3.348   4.644   2.943
42280SOL    HW228738   3.378   4.578   2.810
42281SOL     OW28739   4.517   4.582   0.830
42281SOL    HW128740   4.478   4.620   0.909
42281SOL    HW228741   4.596   4.538   0.862
42282SOL     OW28742  12.899   9.216   9.480
42282SOL    HW128743  12.805   9.233   9.491
42282SOL    HW228744  12.936   9.234   9.566
42283SOL     OW28745   2.792   5.750   2.359
42283SOL    HW128746   2.884   5.749   2.332
42283SOL    HW228747   2.789   5.690   2.434
42284SOL     OW28748   5.722   8.099   5.107
42284SOL    HW128749   5.741   8.010   5.137
42284SOL    HW228750   5.803   8.126   5.063
42285SOL     OW28751   6.472  10.392   9.732
42285SOL    HW128752   6.394  10.336   9.733
42285SOL    HW228753   6.447  10.468   9.681
42286SOL     OW28754   2.638   6.831   5.126
42286SOL    HW128755   2.710   6.791   5.175
42286SOL    HW228756   2.587   6.877   5.193
42287SOL     OW28757   3.906   7.755  13.897
42287SOL    HW128758   3.829   7.792  13.855
42287SOL    HW228759   3.885   7.756  13.991
42288SOL     OW28760  14.411   7.584   3.086
42288SOL    HW128761  14.479   7.538   3.037
42288SOL    HW228762  14.329   7.559   3.043
42289SOL     OW28763   5.981   0.049   5.648
42289SOL    HW128764   5.926   0.097   5.587
42289SOL    HW228765   6.067   0.046   5.606
42290SOL     OW28766   6.014   8.727  14.781
42290SOL    HW128767   6.099   8.767  14.762
42290SOL    HW228768   5.950   8.788  14.744
42291SOL     OW28769   4.722   8.055   5.083
42291SOL    HW128770   4.766   8.112   5.147
42291SOL    HW228771   4.757   8.082   4.998
42292SOL     OW28772   2.125  10.919  13.315
42292SOL    HW128773   2.166  10.941  13.399
42292SOL    HW228774   2.178  10.965  13.250
42293SOL     OW28775  10.544   6.619   8.090
42293SOL    HW128776  10.618   6.562   8.111
42293SOL    HW228777  10.468   6.560   8.090
42294SOL     OW28778  11.174  14.480  12.278
42294SOL    HW128779  11.192  14.483  12.371
42294SOL    HW228780  11.085  14.445  12.272
42295SOL     OW28781   9.766  10.977   1.119
42295SOL    HW128782   9.789  10.952   1.030
42295SOL    HW228783   9.682  10.933   1.135
42296SOL     OW28784   0.204  10.352   4.917
42296SOL    HW128785   0.128  10.349   4.860
42296SOL    HW228786   0.239  10.440   4.906
42297SOL     OW28787   1.484  11.842   2.371
42297SOL    HW128788   1.503  11.803   2.286
42297SOL    HW228789   1.499  11.936   2.358
42298SOL     OW28790   6.373   8.687  14.627
42298SOL    HW128791   6.282   8.700  14.601
42298SOL    HW228792   6.408   8.775  14.635
42299SOL     OW28793   2.421  12.725   1.657
42299SOL    HW128794   2.444  12.801   1.711
42299SOL    HW228795   2.468  12.652   1.697
42300SOL     OW28796   8.790   3.039   0.615
42300SOL    HW128797   8.696   3.053   0.618
42300SOL    HW228798   8.809   2.986   0.693
42301SOL     OW28799  13.889  13.814   8.769
42301SOL    HW128800  13.838  13.895   8.767
42301SOL    HW228801  13.909  13.796   8.677
42302SOL     OW28802   8.040   7.177  11.577
42302SOL    HW128803   8.109   7.207  11.637
42302SOL    HW228804   7.962   7.226  11.604
42303SOL     OW28805   6.177   3.115   0.100
42303SOL    HW128806   6.167   3.207   0.123
42303SOL    HW228807   6.106   3.070   0.147
42304SOL     OW28808   3.000   4.093   6.336
42304SOL    HW128809   2.952   4.019   6.375
42304SOL    HW228810   3.081   4.098   6.387
42305SOL     OW28811   0.010  14.590  14.174
42305SOL    HW128812   0.078  14.641  14.219
42305SOL    HW228813   0.055  14.552  14.099
42306SOL     OW28814   8.519   4.623   7.756
42306SOL    HW128815   8.479   4.693   7.705
42306SOL    HW228816   8.557   4.564   7.691
42307SOL     OW28817  14.843   7.250   6.388
42307SOL    HW128818  14.773   7.205   6.435
42307SOL    HW228819  14.802   7.328   6.350
42308SOL     OW28820   9.041  14.079   4.057
42308SOL    HW128821   9.134  14.101   4.044
42308SOL    HW228822   9.019  14.117   4.142
42309SOL     OW28823   3.897  13.772  13.028
42309SOL    HW128824   3.913  13.717  12.951
42309SOL    HW228825   3.805  13.798  13.020
42310SOL     OW28826   5.252   0.757  10.826
42310SOL    HW128827   5.214   0.743  10.913
42310SOL    HW228828   5.192   0.820  10.785
42311SOL     OW28829  11.964   9.782   8.252
42311SOL    HW128830  11.985   9.868   8.288
42311SOL    HW228831  12.008   9.781   8.167
42312SOL     OW28832   4.891  12.253   3.119
42312SOL    HW128833   4.818  12.230   3.177
42312SOL    HW228834   4.904  12.175   3.065
42313SOL     OW28835   8.687   9.079  11.511
42313SOL    HW128836   8.686   9.077  11.607
42313SOL    HW228837   8.683   8.987  11.485
42314SOL     OW28838  13.900   2.544  12.434
42314SOL    HW128839  13.932   2.496  12.510
42314SOL    HW228840  13.864   2.476  12.376
42315SOL     OW28841  11.545  10.284   1.733
42315SOL    HW128842  11.545  10.275   1.828
42315SOL    HW228843  11.497  10.207   1.701
42316SOL     OW28844   6.670   2.968   3.477
42316SOL    HW128845   6.644   2.877   3.465
42316SOL    HW228846   6.702   2.995   3.391
42317SOL     OW28847   8.798   3.113   6.863
42317SOL    HW128848   8.758   3.043   6.811
42317SOL    HW228849   8.732   3.135   6.928
42318SOL     OW28850   7.571   4.670   4.901
42318SOL    HW128851   7.583   4.760   4.932
42318SOL    HW228852   7.620   4.667   4.819
42319SOL     OW28853   2.125   9.899   6.840
42319SOL    HW128854   2.073   9.829   6.802
42319SOL    HW228855   2.212   9.887   6.803
42320SOL     OW28856  12.331  10.138   8.689
42320SOL    HW128857  12.385  10.202   8.642
42320SOL    HW228858  12.380  10.119   8.769
42321SOL     OW28859   7.927   1.250   7.992
42321SOL    HW128860   7.980   1.291   7.923
42321SOL    HW228861   7.978   1.265   8.072
42322SOL     OW28862   5.977  11.968   5.593
42322SOL    HW128863   5.942  11.878   5.593
42322SOL    HW228864   6.072  11.957   5.591
42323SOL     OW28865  14.009   7.738   3.698
42323SOL    HW128866  13.968   7.666   3.649
42323SOL    HW228867  14.101   7.711   3.706
42324SOL     OW28868   6.378   1.664  13.544
42324SOL    HW128869   6.439   1.721  13.591
42324SOL    HW228870   6.433   1.618  13.479
42325SOL     OW28871   6.436   7.971  11.201
42325SOL    HW128872   6.373   8.037  11.174
42325SOL    HW228873   6.521   8.014  11.194
42326SOL     OW28874  10.398   2.613   1.419
42326SOL    HW128875  10.386   2.703   1.448
42326SOL    HW228876  10.406   2.562   1.499
42327SOL     OW28877  11.328   9.653   9.910
42327SOL    HW128878  11.241   9.619   9.929
42327SOL    HW228879  11.359   9.689   9.993
42328SOL     OW28880  12.909  11.512   0.800
42328SOL    HW128881  12.835  11.457   0.773
42328SOL    HW228882  12.980  11.450   0.816
42329SOL     OW28883  13.380   0.241  11.730
42329SOL    HW128884  13.449   0.224  11.794
42329SOL    HW228885  13.410   0.316  11.679
42330SOL     OW28886   3.460   8.708   9.794
42330SOL    HW128887   3.523   8.703   9.722
42330SOL    HW228888   3.419   8.622   9.796
42331SOL     OW28889   8.674   6.182  14.108
42331SOL    HW128890   8.591   6.225  14.126
42331SOL    HW228891   8.693   6.203  14.016
42332SOL     OW28892   4.463   0.088   1.187
42332SOL    HW128893   4.548   0.082   1.231
42332SOL    HW228894   4.417   0.008   1.213
42333SOL     OW28895   7.295   4.485   3.163
42333SOL    HW128896   7.322   4.536   3.239
42333SOL    HW228897   7.312   4.394   3.187
42334SOL     OW28898   8.235   3.217  10.806
42334SOL    HW128899   8.258   3.124  10.805
42334SOL    HW228900   8.141   3.219  10.791
42335SOL     OW28901   4.492  13.182   9.428
42335SOL    HW128902   4.525  13.114   9.487
42335SOL    HW228903   4.479  13.138   9.344
42336SOL     OW28904   0.542  11.151   0.700
42336SOL    HW128905   0.635  11.128   0.701
42336SOL    HW228906   0.515  11.142   0.609
42337SOL     OW28907   6.467   7.296   6.730
42337SOL    HW128908   6.409   7.259   6.662
42337SOL    HW228909   6.423   7.275   6.812
42338SOL     OW28910  12.750  13.151   4.741
42338SOL    HW128911  12.840  13.123   4.758
42338SOL    HW228912  12.748  13.243   4.770
42339SOL     OW28913   1.062  13.146   7.366
42339SOL    HW128914   1.111  13.064   7.354
42339SOL    HW228915   0.999  13.147   7.294
42340SOL     OW28916   2.070   8.949  13.923
42340SOL    HW128917   1.977   8.962  13.940
42340SOL    HW228918   2.073   8.885  13.852
42341SOL     OW28919   4.397   0.586   5.558
42341SOL    HW128920   4.444   0.618   5.481
42341SOL    HW228921   4.306   0.613   5.544
42342SOL     OW28922   9.723   5.653   4.808
42342SOL    HW128923   9.697   5.745   4.803
42342SOL    HW228924   9.781   5.639   4.734
42343SOL     OW28925   5.533   3.305   6.805
42343SOL    HW128926   5.519   3.298   6.711
42343SOL    HW228927   5.460   3.258   6.844
42344SOL     OW28928   4.367   0.454  11.478
42344SOL    HW128929   4.428   0.477  11.548
42344SOL    HW228930   4.411   0.485  11.398
42345SOL     OW28931  10.240   8.826  13.986
42345SOL    HW128932  10.169   8.762  13.986
42345SOL    HW228933  10.320   8.774  13.995
42346SOL     OW28934  14.172   5.709   4.532
42346SOL    HW128935  14.102   5.656   4.568
42346SOL    HW228936  14.250   5.655   4.540
42347SOL     OW28937  14.193   9.817  10.812
42347SOL    HW128938  14.211   9.794  10.903
42347SOL    HW228939  14.161   9.907  10.815
42348SOL     OW28940   6.843  12.241  10.980
42348SOL    HW128941   6.901  12.200  10.915
42348SOL    HW228942   6.760  12.194  10.970
42349SOL     OW28943  11.610   7.925   3.016
42349SOL    HW128944  11.546   7.986   2.977
42349SOL    HW228945  11.693   7.948   2.973
42350SOL     OW28946  11.709   9.332   0.553
42350SOL    HW128947  11.662   9.304   0.474
42350SOL    HW228948  11.787   9.276   0.556
42351SOL     OW28949   1.020   1.839   3.822
42351SOL    HW128950   0.944   1.815   3.770
42351SOL    HW228951   1.073   1.759   3.828
42352SOL     OW28952   4.896   5.850  14.530
42352SOL    HW128953   4.936   5.838  14.616
42352SOL    HW228954   4.953   5.910  14.484
42353SOL     OW28955  12.701   5.585   2.634
42353SOL    HW128956  12.773   5.530   2.664
42353SOL    HW228957  12.665   5.537   2.559
42354SOL     OW28958   4.828   5.652  14.071
42354SOL    HW128959   4.900   5.658  14.008
42354SOL    HW228960   4.751   5.633  14.017
42355SOL     OW28961   7.680   9.614  14.071
42355SOL    HW128962   7.590   9.595  14.042
42355SOL    HW228963   7.672   9.694  14.122
42356SOL     OW28964   7.887   2.688   9.406
42356SOL    HW128965   7.800   2.712   9.374
42356SOL    HW228966   7.870   2.639   9.486
42357SOL     OW28967   3.153   7.557  10.850
42357SOL    HW128968   3.070   7.552  10.896
42357SOL    HW228969   3.201   7.627  10.894
42358SOL     OW28970   3.812  13.488  10.379
42358SOL    HW128971   3.756  13.413  10.359
42358SOL    HW228972   3.817  13.536  10.296
42359SOL     OW28973  14.554   9.172   1.123
42359SOL    HW128974  14.599   9.257   1.122
42359SOL    HW228975  14.467   9.191   1.089
42360SOL     OW28976   7.910   6.823   6.134
42360SOL    HW128977   7.850   6.760   6.174
42360SOL    HW228978   7.854   6.892   6.100
42361SOL     OW28979   3.045  12.421  13.295
42361SOL    HW128980   3.097  12.449  13.220
42361SOL    HW228981   3.106  12.422  13.369
42362SOL     OW28982  12.042   8.171  11.209
42362SOL    HW128983  12.008   8.261  11.207
42362SOL    HW228984  12.022   8.140  11.297
42363SOL     OW28985   7.129   6.328   3.819
42363SOL    HW128986   7.083   6.409   3.801
42363SOL    HW228987   7.120   6.276   3.739
42364SOL     OW28988   3.706   8.180   7.419
42364SOL    HW128989   3.762   8.173   7.496
42364SOL    HW228990   3.639   8.113   7.432
42365SOL     OW28991   1.486   8.202   6.182
42365SOL    HW128992   1.538   8.279   6.205
42365SOL    HW228993   1.418   8.235   6.123
42366SOL     OW28994   1.783   4.816   8.992
42366SOL    HW128995   1.831   4.752   8.940
42366SOL    HW228996   1.717   4.850   8.932
42367SOL     OW28997   6.018   1.359   9.739
42367SOL    HW128998   5.932   1.319   9.756
42367SOL    HW228999   6.071   1.337   9.815
42368SOL     OW29000  12.138   3.678   7.422
42368SOL    HW129001  12.181   3.704   7.504
42368SOL    HW229002  12.123   3.760   7.376
42369SOL     OW29003   5.824   8.874   5.123
42369SOL    HW129004   5.858   8.827   5.200
42369SOL    HW229005   5.902   8.891   5.070
42370SOL     OW29006   2.597   6.481   9.965
42370SOL    HW129007   2.547   6.403   9.987
42370SOL    HW229008   2.676   6.474  10.018
42371SOL     OW29009  11.134   4.222   6.891
42371SOL    HW129010  11.060   4.282   6.892
42371SOL    HW229011  11.147   4.200   6.799
42372SOL     OW29012  12.240  10.178   0.783
42372SOL    HW129013  12.287  10.176   0.700
42372SOL    HW229014  12.150  10.156   0.761
42373SOL     OW29015   5.239  13.721   3.428
42373SOL    HW129016   5.304  13.703   3.496
42373SOL    HW229017   5.176  13.650   3.434
42374SOL     OW29018  10.187  10.578   8.407
42374SOL    HW129019  10.242  10.506   8.437
42374SOL    HW229020  10.213  10.653   8.461
42375SOL     OW29021   0.773   7.119   1.361
42375SOL    HW129022   0.789   7.199   1.311
42375SOL    HW229023   0.755   7.052   1.295
42376SOL     OW29024   0.636   7.265   5.219
42376SOL    HW129025   0.625   7.295   5.309
42376SOL    HW229026   0.665   7.174   5.226
42377SOL     OW29027  13.267   8.463  12.954
42377SOL    HW129028  13.189   8.419  12.985
42377SOL    HW229029  13.242   8.498  12.868
42378SOL     OW29030   3.384  12.389   1.159
42378SOL    HW129031   3.308  12.447   1.160
42378SOL    HW229032   3.349  12.303   1.139
42379SOL     OW29033   5.033   0.992  14.035
42379SOL    HW129034   5.063   0.984  13.945
42379SOL    HW229035   5.083   0.926  14.083
42380SOL     OW29036   8.904  13.994  10.671
42380SOL    HW129037   8.899  13.960  10.582
42380SOL    HW229038   8.896  13.917  10.727
42381SOL     OW29039   7.860   5.116  11.238
42381SOL    HW129040   7.898   5.176  11.174
42381SOL    HW229041   7.861   5.031  11.195
42382SOL     OW29042  10.958   1.472   2.088
42382SOL    HW129043  11.011   1.487   2.166
42382SOL    HW229044  11.013   1.417   2.032
42383SOL     OW29045   2.437   1.056   4.966
42383SOL    HW129046   2.458   1.048   4.873
42383SOL    HW229047   2.513   1.020   5.011
42384SOL     OW29048   5.679   2.905  12.457
42384SOL    HW129049   5.616   2.834  12.447
42384SOL    HW229050   5.763   2.861  12.469
42385SOL     OW29051  10.033   8.328   9.076
42385SOL    HW129052  10.116   8.363   9.044
42385SOL    HW229053   9.969   8.353   9.010
42386SOL     OW29054   8.838  10.863   6.504
42386SOL    HW129055   8.849  10.908   6.421
42386SOL    HW229056   8.868  10.926   6.570
42387SOL     OW29057   1.905  11.471   0.796
42387SOL    HW129058   1.976  11.477   0.733
42387SOL    HW229059   1.849  11.401   0.762
42388SOL     OW29060   3.394   1.098   6.145
42388SOL    HW129061   3.349   1.181   6.129
42388SOL    HW229062   3.480   1.124   6.177
42389SOL     OW29063   0.504   7.603  12.466
42389SOL    HW129064   0.469   7.635  12.382
42389SOL    HW229065   0.550   7.522  12.443
42390SOL     OW29066  13.298   7.443   1.137
42390SOL    HW129067  13.358   7.504   1.181
42390SOL    HW229068  13.213   7.460   1.178
42391SOL     OW29069   0.232  13.688   2.185
42391SOL    HW129070   0.238  13.644   2.270
42391SOL    HW229071   0.264  13.776   2.202
42392SOL     OW29072  13.020   7.920  12.584
42392SOL    HW129073  12.958   7.992  12.594
42392SOL    HW229074  13.093   7.957  12.536
42393SOL     OW29075   8.946  13.104  11.451
42393SOL    HW129076   8.933  13.190  11.410
42393SOL    HW229077   8.859  13.066  11.457
42394SOL     OW29078   9.271   1.940  13.418
42394SOL    HW129079   9.327   1.886  13.474
42394SOL    HW229080   9.311   1.935  13.331
42395SOL     OW29081   2.056   2.630   5.092
42395SOL    HW129082   1.983   2.579   5.058
42395SOL    HW229083   2.114   2.642   5.016
42396SOL     OW29084   3.336   3.653   6.310
42396SOL    HW129085   3.313   3.563   6.332
42396SOL    HW229086   3.284   3.707   6.370
42397SOL     OW29087   2.062   1.678  12.088
42397SOL    HW129088   2.123   1.620  12.042
42397SOL    HW229089   2.039   1.745  12.024
42398SOL     OW29090   1.765  10.930   0.854
42398SOL    HW129091   1.720  10.891   0.929
42398SOL    HW229092   1.703  10.919   0.781
42399SOL     OW29093   9.858   5.293  11.637
42399SOL    HW129094   9.764   5.300  11.651
42399SOL    HW229095   9.868   5.276  11.544
42400SOL     OW29096   4.190   2.035   6.713
42400SOL    HW129097   4.105   1.990   6.710
42400SOL    HW229098   4.254   1.965   6.724
42401SOL     OW29099  11.337   9.808   8.938
42401SOL    HW129100  11.364   9.839   9.025
42401SOL    HW229101  11.246   9.781   8.949
42402SOL     OW29102   4.709  14.452  14.414
42402SOL    HW129103   4.677  14.536  14.381
42402SOL    HW229104   4.642  14.389  14.389
42403SOL     OW29105   9.699  13.635   9.389
42403SOL    HW129106   9.725  13.658   9.300
42403SOL    HW229107   9.678  13.541   9.385
42404SOL     OW29108   8.279   1.918  13.043
42404SOL    HW129109   8.251   1.916  12.952
42404SOL    HW229110   8.212   1.869  13.090
42405SOL     OW29111  10.555  11.955  13.227
42405SOL    HW129112  10.486  11.907  13.273
42405SOL    HW229113  10.633  11.944  13.282
42406SOL     OW29114  12.728   7.044  12.812
42406SOL    HW129115  12.638   7.039  12.779
42406SOL    HW229116  12.761   6.954  12.803
42407SOL     OW29117  14.288  10.886  13.957
42407SOL    HW129118  14.327  10.848  13.878
42407SOL    HW229119  14.199  10.850  13.959
42408SOL     OW29120   7.589  11.813   2.030
42408SOL    HW129121   7.586  11.866   2.110
42408SOL    HW229122   7.675  11.833   1.992
42409SOL     OW29123   9.775  10.184   8.356
42409SOL    HW129124   9.731  10.109   8.397
42409SOL    HW229125   9.710  10.222   8.297
42410SOL     OW29126   7.961  13.815  11.631
42410SOL    HW129127   7.916  13.777  11.706
42410SOL    HW229128   7.897  13.810  11.560
42411SOL     OW29129   8.182   9.521   9.156
42411SOL    HW129130   8.220   9.462   9.221
42411SOL    HW229131   8.181   9.606   9.199
42412SOL     OW29132  10.906   6.936   9.065
42412SOL    HW129133  10.964   6.923   8.991
42412SOL    HW229134  10.912   6.855   9.115
42413SOL     OW29135   8.216   1.932   2.641
42413SOL    HW129136   8.293   1.972   2.683
42413SOL    HW229137   8.166   1.896   2.713
42414SOL     OW29138   4.677   6.305   1.941
42414SOL    HW129139   4.761   6.274   1.974
42414SOL    HW229140   4.695   6.328   1.850
42415SOL     OW29141  13.084   7.187  13.998
42415SOL    HW129142  13.063   7.112  13.942
42415SOL    HW229143  13.026   7.178  14.074
42416SOL     OW29144   7.643   8.764   0.335
42416SOL    HW129145   7.641   8.670   0.318
42416SOL    HW229146   7.683   8.801   0.257
42417SOL     OW29147   7.283   1.800  12.714
42417SOL    HW129148   7.196   1.799  12.752
42417SOL    HW229149   7.333   1.861  12.770
42418SOL     OW29150   2.781  12.925   6.856
42418SOL    HW129151   2.729  12.956   6.931
42418SOL    HW229152   2.869  12.957   6.874
42419SOL     OW29153  13.844  10.034   9.265
42419SOL    HW129154  13.877  10.085   9.191
42419SOL    HW229155  13.914   9.972   9.284
42420SOL     OW29156   4.252  11.516   0.314
42420SOL    HW129157   4.307  11.504   0.237
42420SOL    HW229158   4.314  11.528   0.386
42421SOL     OW29159   8.645  13.225   9.765
42421SOL    HW129160   8.719  13.169   9.791
42421SOL    HW229161   8.672  13.313   9.789
42422SOL     OW29162   8.705  11.983  11.987
42422SOL    HW129163   8.695  12.039  11.910
42422SOL    HW229164   8.719  11.896  11.951
42423SOL     OW29165  12.558  12.375  12.133
42423SOL    HW129166  12.580  12.290  12.169
42423SOL    HW229167  12.617  12.436  12.177
42424SOL     OW29168  14.796   1.269   2.641
42424SOL    HW129169  14.870   1.306   2.593
42424SOL    HW229170  14.744   1.225   2.574
42425SOL     OW29171  14.063   8.133   6.556
42425SOL    HW129172  13.998   8.203   6.551
42425SOL    HW229173  14.053   8.085   6.473
42426SOL     OW29174  13.591   7.552  14.350
42426SOL    HW129175  13.677   7.509  14.343
42426SOL    HW229176  13.534   7.485  14.388
42427SOL     OW29177  11.412  14.305  12.695
42427SOL    HW129178  11.373  14.391  12.682
42427SOL    HW229179  11.506  14.323  12.707
42428SOL     OW29180   5.153   4.245  11.133
42428SOL    HW129181   5.100   4.318  11.166
42428SOL    HW229182   5.171   4.192  11.210
42429SOL     OW29183   3.153   0.789  12.376
42429SOL    HW129184   3.116   0.708  12.341
42429SOL    HW229185   3.080   0.851  12.377
42430SOL     OW29186  13.161   5.253   9.425
42430SOL    HW129187  13.220   5.245   9.499
42430SOL    HW229188  13.191   5.331   9.378
42431SOL     OW29189   0.657   4.394  10.390
42431SOL    HW129190   0.579   4.449  10.390
42431SOL    HW229191   0.623   4.304  10.387
42432SOL     OW29192   4.392   0.051  11.857
42432SOL    HW129193   4.354  14.859  11.805
42432SOL    HW229194   4.484   0.026  11.867
42433SOL     OW29195  13.034  12.651   2.186
42433SOL    HW129196  12.983  12.571   2.202
42433SOL    HW229197  13.107  12.646   2.249
42434SOL     OW29198   7.602   3.789  13.625
42434SOL    HW129199   7.644   3.764  13.707
42434SOL    HW229200   7.658   3.860  13.591
42435SOL     OW29201  13.232   5.212   1.108
42435SOL    HW129202  13.246   5.265   1.029
42435SOL    HW229203  13.220   5.123   1.075
42436SOL     OW29204  14.564   0.113   5.695
42436SOL    HW129205  14.624   0.099   5.621
42436SOL    HW229206  14.558   0.028   5.737
42437SOL     OW29207   9.958  12.657   4.576
42437SOL    HW129208  10.040  12.695   4.607
42437SOL    HW229209   9.959  12.567   4.609
42438SOL     OW29210   4.278   9.204   8.849
42438SOL    HW129211   4.346   9.139   8.833
42438SOL    HW229212   4.197   9.159   8.825
42439SOL     OW29213   3.537  14.168   0.104
42439SOL    HW129214   3.548  14.208   0.018
42439SOL    HW229215   3.452  14.199   0.135
42440SOL     OW29216   2.260   4.872   6.800
42440SOL    HW129217   2.307   4.955   6.800
42440SOL    HW229218   2.304   4.820   6.868
42441SOL     OW29219   6.989  13.696  14.177
42441SOL    HW129220   7.081  13.673  14.192
42441SOL    HW229221   6.992  13.767  14.113
42442SOL     OW29222   5.564   8.921   7.033
42442SOL    HW129223   5.630   8.858   7.007
42442SOL    HW229224   5.581   8.937   7.126
42443SOL     OW29225  10.005   0.776  11.838
42443SOL    HW129226  10.076   0.817  11.889
42443SOL    HW229227  10.023   0.802  11.748
42444SOL     OW29228   4.808   4.856   2.695
42444SOL    HW129229   4.720   4.840   2.729
42444SOL    HW229230   4.817   4.792   2.624
42445SOL     OW29231  12.478   9.428   8.039
42445SOL    HW129232  12.404   9.378   8.007
42445SOL    HW229233  12.450   9.460   8.125
42446SOL     OW29234   2.754   3.277   5.968
42446SOL    HW129235   2.714   3.320   5.892
42446SOL    HW229236   2.722   3.328   6.043
42447SOL     OW29237   5.524   1.720   4.748
42447SOL    HW129238   5.490   1.784   4.810
42447SOL    HW229239   5.552   1.646   4.802
42448SOL     OW29240   0.085   7.813   2.662
42448SOL    HW129241   0.029   7.877   2.706
42448SOL    HW229242   0.077   7.835   2.569
42449SOL     OW29243  10.544   2.346   6.171
42449SOL    HW129244  10.567   2.435   6.200
42449SOL    HW229245  10.458   2.330   6.209
42450SOL     OW29246   6.491  12.627   7.031
42450SOL    HW129247   6.473  12.656   6.942
42450SOL    HW229248   6.587  12.622   7.036
42451SOL     OW29249  13.123  12.154  14.010
42451SOL    HW129250  13.161  12.197  14.087
42451SOL    HW229251  13.038  12.195  13.998
42452SOL     OW29252   8.034  13.394  13.982
42452SOL    HW129253   7.957  13.392  13.926
42452SOL    HW229254   8.003  13.361  14.067
42453SOL     OW29255  12.980  13.817   0.471
42453SOL    HW129256  12.978  13.749   0.539
42453SOL    HW229257  13.042  13.783   0.406
42454SOL     OW29258  11.055   1.681   6.977
42454SOL    HW129259  11.122   1.620   6.947
42454SOL    HW229260  11.006   1.704   6.898
42455SOL     OW29261  13.856   8.939   2.275
42455SOL    HW129262  13.889   8.851   2.261
42455SOL    HW229263  13.780   8.928   2.333
42456SOL     OW29264   7.088  14.137   8.669
42456SOL    HW129265   7.147  14.209   8.648
42456SOL    HW229266   7.041  14.166   8.747
42457SOL     OW29267  11.891   9.141  10.806
42457SOL    HW129268  11.869   9.068  10.749
42457SOL    HW229269  11.814   9.196  10.805
42458SOL     OW29270   7.565   8.815   2.446
42458SOL    HW129271   7.648   8.779   2.479
42458SOL    HW229272   7.567   8.907   2.472
42459SOL     OW29273   7.850   4.069  11.321
42459SOL    HW129274   7.767   4.116  11.325
42459SOL    HW229275   7.863   4.035  11.410
42460SOL     OW29276   1.758   9.100   1.815
42460SOL    HW129277   1.724   9.102   1.904
42460SOL    HW229278   1.679   9.105   1.760
42461SOL     OW29279   8.841   0.757   0.892
42461SOL    HW129280   8.747   0.750   0.910
42461SOL    HW229281   8.846   0.790   0.802
42462SOL     OW29282   8.659   6.978   9.128
42462SOL    HW129283   8.578   7.025   9.109
42462SOL    HW229284   8.639   6.887   9.106
42463SOL     OW29285  10.288   5.658  11.565
42463SOL    HW129286  10.239   5.713  11.626
42463SOL    HW229287  10.375   5.699  11.561
42464SOL     OW29288   4.308   5.415   2.796
42464SOL    HW129289   4.235   5.423   2.735
42464SOL    HW229290   4.360   5.341   2.761
42465SOL     OW29291   2.338   7.385   7.225
42465SOL    HW129292   2.321   7.292   7.238
42465SOL    HW229293   2.401   7.388   7.153
42466SOL     OW29294   3.309   7.302   8.181
42466SOL    HW129295   3.238   7.308   8.117
42466SOL    HW229296   3.369   7.371   8.156
42467SOL     OW29297  10.837  10.382  11.233
42467SOL    HW129298  10.750  10.387  11.192
42467SOL    HW229299  10.829  10.437  11.311
42468SOL     OW29300  11.910   4.110   5.833
42468SOL    HW129301  11.860   4.093   5.753
42468SOL    HW229302  11.998   4.132   5.802
42469SOL     OW29303   1.980   5.335  10.379
42469SOL    HW129304   2.072   5.359  10.389
42469SOL    HW229305   1.959   5.361  10.289
42470SOL     OW29306   4.205   4.321  12.423
42470SOL    HW129307   4.284   4.341  12.472
42470SOL    HW229308   4.169   4.243  12.466
42471SOL     OW29309   9.545   4.857   4.007
42471SOL    HW129310   9.639   4.880   4.006
42471SOL    HW229311   9.541   4.774   4.054
42472SOL     OW29312  14.545  10.470  12.982
42472SOL    HW129313  14.540  10.563  12.961
42472SOL    HW229314  14.592  10.431  12.908
42473SOL     OW29315  11.335  11.920  10.242
42473SOL    HW129316  11.307  11.866  10.168
42473SOL    HW229317  11.428  11.901  10.251
42474SOL     OW29318   5.310   3.386   9.621
42474SOL    HW129319   5.397   3.424   9.610
42474SOL    HW229320   5.321   3.320   9.690
42475SOL     OW29321   7.603  11.471   7.121
42475SOL    HW129322   7.584  11.539   7.185
42475SOL    HW229323   7.646  11.516   7.048
42476SOL     OW29324   0.857   9.817  10.272
42476SOL    HW129325   0.784   9.843  10.329
42476SOL    HW229326   0.830   9.732  10.237
42477SOL     OW29327   3.889   0.365   6.830
42477SOL    HW129328   3.830   0.420   6.779
42477SOL    HW229329   3.956   0.338   6.767
42478SOL     OW29330   9.726  10.565   5.119
42478SOL    HW129331   9.751  10.588   5.209
42478SOL    HW229332   9.632  10.584   5.115
42479SOL     OW29333  13.795   8.822   1.378
42479SOL    HW129334  13.724   8.863   1.426
42479SOL    HW229335  13.869   8.882   1.388
42480SOL     OW29336   0.663   1.101   2.611
42480SOL    HW129337   0.696   1.015   2.584
42480SOL    HW229338   0.675   1.156   2.534
42481SOL     OW29339   9.193   1.860   5.842
42481SOL    HW129340   9.230   1.827   5.923
42481SOL    HW229341   9.133   1.791   5.812
42482SOL     OW29342   6.352   9.899  11.071
42482SOL    HW129343   6.390   9.963  11.132
42482SOL    HW229344   6.328   9.824  11.127
42483SOL     OW29345   0.684   2.829   6.331
42483SOL    HW129346   0.649   2.793   6.413
42483SOL    HW229347   0.766   2.781   6.318
42484SOL     OW29348  10.597  13.502  12.319
42484SOL    HW129349  10.528  13.436  12.319
42484SOL    HW229350  10.552  13.584  12.338
42485SOL     OW29351  14.436  14.829   1.912
42485SOL    HW129352  14.406  14.804   2.000
42485SOL    HW229353  14.508   0.012   1.927
42486SOL     OW29354  12.456   8.913  10.234
42486SOL    HW129355  12.550   8.934  10.238
42486SOL    HW229356  12.423   8.934  10.321
42487SOL     OW29357  12.626   8.404   0.084
42487SOL    HW129358  12.608   8.343   0.012
42487SOL    HW229359  12.542   8.447   0.100
42488SOL     OW29360  13.910   9.722   3.275
42488SOL    HW129361  13.831   9.671   3.290
42488SOL    HW229362  13.929   9.710   3.182
42489SOL     OW29363   2.243   1.006   9.293
42489SOL    HW129364   2.198   1.052   9.364
42489SOL    HW229365   2.249   0.915   9.323
42490SOL     OW29366   6.563  12.543   8.675
42490SOL    HW129367   6.516  12.505   8.600
42490SOL    HW229368   6.648  12.499   8.674
42491SOL     OW29369  11.358   6.486   8.710
42491SOL    HW129370  11.323   6.472   8.798
42491SOL    HW229371  11.295   6.443   8.652
42492SOL     OW29372   1.452   3.184   2.169
42492SOL    HW129373   1.479   3.212   2.082
42492SOL    HW229374   1.517   3.221   2.228
42493SOL     OW29375   3.631   4.733   1.822
42493SOL    HW129376   3.612   4.741   1.915
42493SOL    HW229377   3.726   4.747   1.816
42494SOL     OW29378  14.790  11.404  11.213
42494SOL    HW129379  14.785  11.473  11.279
42494SOL    HW229380  14.790  11.450  11.129
42495SOL     OW29381   0.962  12.086   8.121
42495SOL    HW129382   0.952  12.015   8.185
42495SOL    HW229383   1.055  12.108   8.125
42496SOL     OW29384   0.748  10.940   3.367
42496SOL    HW129385   0.799  10.977   3.439
42496SOL    HW229386   0.746  11.010   3.301
42497SOL     OW29387   3.691   4.361   6.209
42497SOL    HW129388   3.672   4.289   6.149
42497SOL    HW229389   3.605   4.392   6.237
42498SOL     OW29390   1.643   7.805  13.676
42498SOL    HW129391   1.693   7.738  13.722
42498SOL    HW229392   1.664   7.791  13.584
42499SOL     OW29393  13.398  12.670  14.577
42499SOL    HW129394  13.374  12.729  14.649
42499SOL    HW229395  13.432  12.592  14.620
42500SOL     OW29396   4.168   5.924   8.709
42500SOL    HW129397   4.205   5.940   8.795
42500SOL    HW229398   4.149   5.830   8.708
42501SOL     OW29399   4.301   8.168   3.589
42501SOL    HW129400   4.372   8.156   3.526
42501SOL    HW229401   4.252   8.243   3.557
42502SOL     OW29402   1.679  13.083   6.797
42502SOL    HW129403   1.676  13.065   6.891
42502SOL    HW229404   1.756  13.138   6.786
42503SOL     OW29405   1.430  10.794  10.793
42503SOL    HW129406   1.515  10.837  10.790
42503SOL    HW229407   1.377  10.848  10.852
42504SOL     OW29408  12.161   9.222   8.860
42504SOL    HW129409  12.105   9.253   8.789
42504SOL    HW229410  12.103   9.169   8.915
42505SOL     OW29411  10.980   0.886   6.332
42505SOL    HW129412  10.955   0.832   6.257
42505SOL    HW229413  10.930   0.849   6.405
42506SOL     OW29414  12.693   3.709   2.022
42506SOL    HW129415  12.702   3.804   2.014
42506SOL    HW229416  12.655   3.696   2.109
42507SOL     OW29417   8.372   0.328  10.251
42507SOL    HW129418   8.386   0.337  10.156
42507SOL    HW229419   8.456   0.297  10.284
42508SOL     OW29420   0.111  10.452  11.306
42508SOL    HW129421   0.135  10.359  11.306
42508SOL    HW229422   0.051  10.462  11.380
42509SOL     OW29423  13.235  10.694   1.711
42509SOL    HW129424  13.273  10.749   1.780
42509SOL    HW229425  13.141  10.693   1.730
42510SOL     OW29426  10.461  12.190  13.071
42510SOL    HW129427  10.503  12.117  13.117
42510SOL    HW229428  10.436  12.251  13.141
42511SOL     OW29429   0.760   6.471   0.575
42511SOL    HW129430   0.702   6.526   0.522
42511SOL    HW229431   0.731   6.486   0.665
42512SOL     OW29432  14.464   6.605  13.629
42512SOL    HW129433  14.378   6.566  13.613
42512SOL    HW229434  14.525   6.531  13.627
42513SOL     OW29435  14.677   1.418   1.902
42513SOL    HW129436  14.731   1.492   1.930
42513SOL    HW229437  14.733   1.370   1.840
42514SOL     OW29438   7.173   9.707   0.528
42514SOL    HW129439   7.264   9.730   0.545
42514SOL    HW229440   7.135   9.697   0.616
42515SOL     OW29441  14.453   3.545  13.152
42515SOL    HW129442  14.373   3.498  13.127
42515SOL    HW229443  14.431   3.638  13.139
42516SOL     OW29444  14.220   6.448  12.754
42516SOL    HW129445  14.218   6.416  12.664
42516SOL    HW229446  14.128   6.453  12.780
42517SOL     OW29447   0.154  13.816   9.726
42517SOL    HW129448   0.185  13.800   9.637
42517SOL    HW229449   0.068  13.855   9.715
42518SOL     OW29450   5.084  10.327   9.998
42518SOL    HW129451   5.145  10.364  10.061
42518SOL    HW229452   5.125  10.343   9.913
42519SOL     OW29453  14.725   6.684   7.346
42519SOL    HW129454  14.757   6.770   7.375
42519SOL    HW229455  14.780   6.663   7.271
42520SOL     OW29456   8.757  10.265  13.574
42520SOL    HW129457   8.745  10.293  13.483
42520SOL    HW229458   8.673  10.227  13.598
42521SOL     OW29459  12.397   9.845  10.745
42521SOL    HW129460  12.489   9.835  10.770
42521SOL    HW229461  12.364   9.915  10.802
42522SOL     OW29462   5.417  14.024   9.940
42522SOL    HW129463   5.356  14.025  10.014
42522SOL    HW229464   5.390  13.949   9.888
42523SOL     OW29465   4.124  14.110   3.667
42523SOL    HW129466   4.093  14.051   3.735
42523SOL    HW229467   4.079  14.081   3.587
42524SOL     OW29468  10.998   4.603   8.988
42524SOL    HW129469  11.019   4.680   9.042
42524SOL    HW229470  11.022   4.629   8.899
42525SOL     OW29471   8.999  14.016   5.677
42525SOL    HW129472   8.999  13.922   5.659
42525SOL    HW229473   9.041  14.023   5.763
42526SOL     OW29474   9.488  12.057   0.672
42526SOL    HW129475   9.493  12.083   0.764
42526SOL    HW229476   9.397  12.073   0.647
42527SOL     OW29477   8.472   6.285   7.694
42527SOL    HW129478   8.532   6.249   7.759
42527SOL    HW229479   8.428   6.358   7.738
42528SOL     OW29480   8.485  12.329   4.840
42528SOL    HW129481   8.470  12.418   4.874
42528SOL    HW229482   8.507  12.278   4.917
42529SOL     OW29483   9.315   4.256  10.595
42529SOL    HW129484   9.340   4.196  10.666
42529SOL    HW229485   9.376   4.236  10.524
42530SOL     OW29486   2.122   1.007   9.072
42530SOL    HW129487   2.166   1.009   9.157
42530SOL    HW229488   2.165   0.936   9.025
42531SOL     OW29489   9.792   1.985   0.446
42531SOL    HW129490   9.762   2.036   0.521
42531SOL    HW229491   9.777   1.894   0.471
42532SOL     OW29492   0.005   4.268  12.231
42532SOL    HW129493  14.862   4.336  12.295
42532SOL    HW229494  14.842   4.299  12.150
42533SOL     OW29495  14.176   2.555  12.647
42533SOL    HW129496  14.132   2.515  12.722
42533SOL    HW229497  14.268   2.530  12.657
42534SOL     OW29498  11.816  13.495   0.627
42534SOL    HW129499  11.788  13.487   0.718
42534SOL    HW229500  11.789  13.583   0.601
42535SOL     OW29501   9.208   9.160   4.733
42535SOL    HW129502   9.272   9.209   4.785
42535SOL    HW229503   9.185   9.219   4.661
42536SOL     OW29504   7.615   0.861  14.169
42536SOL    HW129505   7.707   0.834  14.170
42536SOL    HW229506   7.618   0.957  14.170
42537SOL     OW29507   0.440   0.407   3.716
42537SOL    HW129508   0.428   0.332   3.774
42537SOL    HW229509   0.416   0.483   3.769
42538SOL     OW29510  13.601   4.437  12.001
42538SOL    HW129511  13.585   4.343  11.995
42538SOL    HW229512  13.526   4.477  11.956
42539SOL     OW29513   9.739  14.538   6.001
42539SOL    HW129514   9.676  14.609   6.012
42539SOL    HW229515   9.818  14.570   6.046
42540SOL     OW29516  10.028   2.825  12.989
42540SOL    HW129517   9.958   2.774  12.950
42540SOL    HW229518  10.043   2.897  12.928
42541SOL     OW29519   1.620   9.462  13.291
42541SOL    HW129520   1.539   9.475  13.340
42541SOL    HW229521   1.686   9.510  13.341
42542SOL     OW29522  10.078   3.805   1.339
42542SOL    HW129523  10.047   3.716   1.358
42542SOL    HW229524  10.173   3.801   1.355
42543SOL     OW29525   9.246  14.673   4.983
42543SOL    HW129526   9.184  14.625   4.929
42543SOL    HW229527   9.323  14.617   4.987
42544SOL     OW29528   8.491  12.226   6.274
42544SOL    HW129529   8.571  12.201   6.229
42544SOL    HW229530   8.511  12.217   6.367
42545SOL     OW29531   8.881   2.155   3.689
42545SOL    HW129532   8.908   2.167   3.780
42545SOL    HW229533   8.786   2.166   3.691
42546SOL     OW29534   5.404   5.869   4.730
42546SOL    HW129535   5.360   5.951   4.754
42546SOL    HW229536   5.376   5.806   4.796
42547SOL     OW29537   6.108   1.995  11.294
42547SOL    HW129538   6.024   1.950  11.285
42547SOL    HW229539   6.104   2.037  11.380
42548SOL     OW29540  10.470  11.614   8.953
42548SOL    HW129541  10.443  11.544   9.013
42548SOL    HW229542  10.448  11.695   8.999
42549SOL     OW29543   9.228   4.021   1.970
42549SOL    HW129544   9.168   4.081   1.926
42549SOL    HW229545   9.284   4.078   2.023
42550SOL     OW29546   4.198   5.454   0.609
42550SOL    HW129547   4.232   5.542   0.626
42550SOL    HW229548   4.172   5.456   0.517
42551SOL     OW29549   9.130  11.915  12.375
42551SOL    HW129550   9.093  12.000  12.351
42551SOL    HW229551   9.135  11.867  12.292
42552SOL     OW29552   7.053  14.283  10.685
42552SOL    HW129553   7.101  14.263  10.605
42552SOL    HW229554   6.971  14.322  10.654
42553SOL     OW29555   9.873   2.867   3.209
42553SOL    HW129556   9.918   2.798   3.162
42553SOL    HW229557   9.786   2.831   3.227
42554SOL     OW29558   0.409   0.657   2.743
42554SOL    HW129559   0.401   0.735   2.689
42554SOL    HW229560   0.319   0.630   2.760
42555SOL     OW29561   4.136  12.606   3.261
42555SOL    HW129562   4.179  12.533   3.306
42555SOL    HW229563   4.145  12.680   3.321
42556SOL     OW29564  14.350  11.376   4.806
42556SOL    HW129565  14.308  11.453   4.845
42556SOL    HW229566  14.372  11.404   4.717
42557SOL     OW29567  12.390   3.960   8.329
42557SOL    HW129568  12.357   4.009   8.404
42557SOL    HW229569  12.321   3.897   8.309
42558SOL     OW29570   7.223   7.322   3.560
42558SOL    HW129571   7.291   7.370   3.607
42558SOL    HW229572   7.152   7.386   3.550
42559SOL     OW29573   3.757   4.935   1.080
42559SOL    HW129574   3.849   4.944   1.056
42559SOL    HW229575   3.753   4.960   1.173
42560SOL     OW29576   1.308  10.228  13.406
42560SOL    HW129577   1.309  10.163  13.477
42560SOL    HW229578   1.279  10.179  13.329
42561SOL     OW29579  13.446   7.856  12.376
42561SOL    HW129580  13.399   7.773  12.381
42561SOL    HW229581  13.426   7.901  12.458
42562SOL     OW29582   2.441   4.169  11.345
42562SOL    HW129583   2.528   4.149  11.378
42562SOL    HW229584   2.382   4.139  11.414
42563SOL     OW29585   8.480   6.412  14.694
42563SOL    HW129586   8.436   6.365  14.765
42563SOL    HW229587   8.414   6.473  14.661
42564SOL     OW29588   3.706  10.776   2.251
42564SOL    HW129589   3.629  10.720   2.244
42564SOL    HW229590   3.750  10.746   2.330
42565SOL     OW29591  12.200  12.589   1.463
42565SOL    HW129592  12.257  12.517   1.436
42565SOL    HW229593  12.174  12.631   1.381
42566SOL     OW29594   4.501   1.555  14.037
42566SOL    HW129595   4.443   1.523  14.105
42566SOL    HW229596   4.578   1.587  14.084
42567SOL     OW29597   2.078   6.259   8.858
42567SOL    HW129598   2.070   6.345   8.818
42567SOL    HW229599   1.988   6.233   8.876
42568SOL     OW29600  12.503   0.710  11.518
42568SOL    HW129601  12.458   0.628  11.498
42568SOL    HW229602  12.583   0.707  11.466
42569SOL     OW29603   9.593   7.381   1.056
42569SOL    HW129604   9.643   7.338   0.986
42569SOL    HW229605   9.618   7.473   1.050
42570SOL     OW29606  10.929   4.626  12.170
42570SOL    HW129607  10.876   4.685  12.224
42570SOL    HW229608  10.896   4.539  12.190
42571SOL     OW29609   1.991   4.771   9.681
42571SOL    HW129610   2.036   4.741   9.760
42571SOL    HW229611   2.038   4.850   9.654
42572SOL     OW29612   2.964  12.198   4.819
42572SOL    HW129613   2.918  12.221   4.738
42572SOL    HW229614   3.047  12.160   4.789
42573SOL     OW29615   2.343   3.512   7.235
42573SOL    HW129616   2.270   3.561   7.274
42573SOL    HW229617   2.352   3.434   7.290
42574SOL     OW29618   2.485   0.910   9.751
42574SOL    HW129619   2.554   0.865   9.702
42574SOL    HW229620   2.438   0.960   9.684
42575SOL     OW29621   4.834   5.031   0.424
42575SOL    HW129622   4.787   5.038   0.341
42575SOL    HW229623   4.781   5.080   0.487
42576SOL     OW29624   5.715  14.866  10.544
42576SOL    HW129625   5.659   0.051  10.589
42576SOL    HW229626   5.707  14.785  10.595
42577SOL     OW29627   4.407   5.280  12.680
42577SOL    HW129628   4.413   5.276  12.775
42577SOL    HW229629   4.412   5.374  12.659
42578SOL     OW29630  13.404   7.747   7.567
42578SOL    HW129631  13.490   7.717   7.541
42578SOL    HW229632  13.353   7.667   7.580
42579SOL     OW29633  10.542  14.235   6.266
42579SOL    HW129634  10.534  14.163   6.202
42579SOL    HW229635  10.590  14.303   6.219
42580SOL     OW29636  10.465  13.118   0.200
42580SOL    HW129637  10.531  13.186   0.217
42580SOL    HW229638  10.437  13.090   0.287
42581SOL     OW29639  11.398  12.355  13.749
42581SOL    HW129640  11.356  12.294  13.688
42581SOL    HW229641  11.425  12.429  13.694
42582SOL     OW29642   9.058   2.381   7.872
42582SOL    HW129643   9.102   2.330   7.940
42582SOL    HW229644   9.129   2.411   7.815
42583SOL     OW29645   4.755   5.072  11.003
42583SOL    HW129646   4.849   5.084  11.014
42583SOL    HW229647   4.742   4.978  11.007
42584SOL     OW29648   3.632   1.401   2.789
42584SOL    HW129649   3.648   1.401   2.694
42584SOL    HW229650   3.684   1.475   2.822
42585SOL     OW29651   8.698   8.408  10.026
42585SOL    HW129652   8.605   8.413  10.047
42585SOL    HW229653   8.742   8.427  10.109
42586SOL     OW29654  12.187   4.064   0.350
42586SOL    HW129655  12.216   4.085   0.439
42586SOL    HW229656  12.099   4.028   0.361
42587SOL     OW29657   6.881  10.985   1.670
42587SOL    HW129658   6.869  11.070   1.629
42587SOL    HW229659   6.916  10.929   1.601
42588SOL     OW29660   3.639   8.412  12.637
42588SOL    HW129661   3.689   8.380  12.712
42588SOL    HW229662   3.548   8.391  12.659
42589SOL     OW29663   0.629   1.701  12.413
42589SOL    HW129664   0.563   1.770  12.411
42589SOL    HW229665   0.580   1.620  12.401
42590SOL     OW29666   4.763   2.907  14.021
42590SOL    HW129667   4.785   2.829  14.071
42590SOL    HW229668   4.714   2.962  14.082
42591SOL     OW29669   8.421   0.522   5.905
42591SOL    HW129670   8.389   0.593   5.962
42591SOL    HW229671   8.422   0.445   5.961
42592SOL     OW29672  12.171  10.521   7.420
42592SOL    HW129673  12.086  10.479   7.408
42592SOL    HW229674  12.169  10.552   7.511
42593SOL     OW29675   6.412   7.333  11.511
42593SOL    HW129676   6.451   7.420  11.522
42593SOL    HW229677   6.360   7.340  11.431
42594SOL     OW29678   2.016  14.841   3.557
42594SOL    HW129679   2.085  14.843   3.490
42594SOL    HW229680   2.039   0.035   3.617
42595SOL     OW29681  12.069  10.286   9.792
42595SOL    HW129682  12.009  10.234   9.846
42595SOL    HW229683  12.012  10.350   9.748
42596SOL     OW29684   5.174   9.770   2.281
42596SOL    HW129685   5.099   9.825   2.259
42596SOL    HW229686   5.159   9.743   2.371
42597SOL     OW29687   3.235  14.690   8.611
42597SOL    HW129688   3.264  14.651   8.529
42597SOL    HW229689   3.163  14.748   8.586
42598SOL     OW29690  14.486   4.326   0.493
42598SOL    HW129691  14.542   4.388   0.539
42598SOL    HW229692  14.397   4.358   0.506
42599SOL     OW29693  11.128   1.540  10.011
42599SOL    HW129694  11.154   1.628   9.984
42599SOL    HW229695  11.110   1.494   9.929
42600SOL     OW29696   5.574  11.124  10.293
42600SOL    HW129697   5.653  11.071  10.299
42600SOL    HW229698   5.507  11.073  10.338
42601SOL     OW29699   4.161  14.635  11.392
42601SOL    HW129700   4.106  14.581  11.336
42601SOL    HW229701   4.247  14.592  11.390
42602SOL     OW29702  12.658   1.500   7.979
42602SOL    HW129703  12.576   1.535   8.014
42602SOL    HW229704  12.666   1.540   7.892
42603SOL     OW29705   1.756   2.629  11.958
42603SOL    HW129706   1.749   2.704  12.017
42603SOL    HW229707   1.805   2.564  12.009
42604SOL     OW29708   5.802  11.300  11.255
42604SOL    HW129709   5.889  11.261  11.260
42604SOL    HW229710   5.817  11.390  11.227
42605SOL     OW29711  14.125   9.830   8.018
42605SOL    HW129712  14.158   9.831   8.108
42605SOL    HW229713  14.110   9.923   7.998
42606SOL     OW29714  10.053   4.804   7.079
42606SOL    HW129715  10.106   4.734   7.117
42606SOL    HW229716   9.964   4.769   7.082
42607SOL     OW29717  11.080   0.710   1.759
42607SOL    HW129718  11.115   0.765   1.829
42607SOL    HW229719  11.128   0.737   1.681
42608SOL     OW29720   6.303   0.301   0.757
42608SOL    HW129721   6.300   0.315   0.851
42608SOL    HW229722   6.388   0.259   0.741
42609SOL     OW29723   2.720  13.511   9.975
42609SOL    HW129724   2.743  13.603   9.985
42609SOL    HW229725   2.762  13.485   9.893
42610SOL     OW29726   1.157  12.964   1.183
42610SOL    HW129727   1.094  13.020   1.228
42610SOL    HW229728   1.204  13.023   1.124
42611SOL     OW29729  12.877   0.963   8.677
42611SOL    HW129730  12.879   1.042   8.624
42611SOL    HW229731  12.968   0.948   8.702
42612SOL     OW29732   1.377  11.303  13.306
42612SOL    HW129733   1.352  11.302  13.399
42612SOL    HW229734   1.471  11.285  13.307
42613SOL     OW29735   3.170   6.912   2.618
42613SOL    HW129736   3.156   6.996   2.663
42613SOL    HW229737   3.124   6.921   2.535
42614SOL     OW29738  11.040  12.611   8.908
42614SOL    HW129739  10.949  12.585   8.889
42614SOL    HW229740  11.066  12.663   8.831
42615SOL     OW29741  12.249   9.863  13.418
42615SOL    HW129742  12.289   9.793  13.471
42615SOL    HW229743  12.155   9.845  13.422
42616SOL     OW29744   3.377   9.886  11.478
42616SOL    HW129745   3.326   9.807  11.459
42616SOL    HW229746   3.429   9.863  11.555
42617SOL     OW29747  12.588  14.625   6.832
42617SOL    HW129748  12.673  14.670   6.825
42617SOL    HW229749  12.546  14.641   6.748
42618SOL     OW29750   4.258  12.391  11.688
42618SOL    HW129751   4.282  12.382  11.780
42618SOL    HW229752   4.290  12.311  11.646
42619SOL     OW29753   0.706  12.621   6.552
42619SOL    HW129754   0.731  12.647   6.641
42619SOL    HW229755   0.720  12.699   6.499
42620SOL     OW29756   7.316   0.905   6.255
42620SOL    HW129757   7.230   0.947   6.252
42620SOL    HW229758   7.377   0.976   6.271
42621SOL     OW29759   8.060   3.966   0.449
42621SOL    HW129760   8.148   3.929   0.436
42621SOL    HW229761   8.012   3.940   0.371
42622SOL     OW29762   2.187  11.343  14.484
42622SOL    HW129763   2.169  11.338  14.390
42622SOL    HW229764   2.263  11.400  14.491
42623SOL     OW29765   8.595  12.811  14.456
42623SOL    HW129766   8.625  12.895  14.491
42623SOL    HW229767   8.658  12.747  14.490
42624SOL     OW29768   2.500  12.902   5.457
42624SOL    HW129769   2.449  12.846   5.398
42624SOL    HW229770   2.517  12.847   5.533
42625SOL     OW29771  14.497  14.103   3.043
42625SOL    HW129772  14.467  14.043   3.112
42625SOL    HW229773  14.445  14.182   3.056
42626SOL     OW29774   7.207   1.674  14.536
42626SOL    HW129775   7.250   1.647  14.455
42626SOL    HW229776   7.116   1.690  14.511
42627SOL     OW29777  14.502   9.442  12.523
42627SOL    HW129778  14.576   9.408  12.472
42627SOL    HW229779  14.427   9.389  12.495
42628SOL     OW29780   3.395  10.012   4.708
42628SOL    HW129781   3.437  10.095   4.687
42628SOL    HW229782   3.431   9.987   4.793
42629SOL     OW29783   6.153   5.873   7.115
42629SOL    HW129784   6.194   5.829   7.190
42629SOL    HW229785   6.060   5.850   7.122
42630SOL     OW29786  14.124   3.985   4.810
42630SOL    HW129787  14.095   3.896   4.791
42630SOL    HW229788  14.051   4.025   4.857
42631SOL     OW29789  14.309   9.182   5.561
42631SOL    HW129790  14.386   9.238   5.557
42631SOL    HW229791  14.245   9.225   5.505
42632SOL     OW29792  11.877  14.809   9.909
42632SOL    HW129793  11.842   0.013   9.943
42632SOL    HW229794  11.942  14.836   9.843
42633SOL     OW29795   5.911   5.537   7.058
42633SOL    HW129796   5.861   5.597   7.113
42633SOL    HW229797   5.955   5.594   6.995
42634SOL     OW29798   0.465   0.528  14.521
42634SOL    HW129799   0.560   0.534  14.519
42634SOL    HW229800   0.439   0.592  14.588
42635SOL     OW29801  12.824   1.055   3.481
42635SOL    HW129802  12.884   1.127   3.500
42635SOL    HW229803  12.740   1.083   3.516
42636SOL     OW29804   7.443  12.459   2.212
42636SOL    HW129805   7.465  12.551   2.198
42636SOL    HW229806   7.509  12.428   2.275
42637SOL     OW29807  12.507   1.829   5.013
42637SOL    HW129808  12.481   1.891   5.082
42637SOL    HW229809  12.510   1.744   5.057
42638SOL     OW29810   2.467   2.835   7.934
42638SOL    HW129811   2.551   2.880   7.939
42638SOL    HW229812   2.429   2.842   8.021
42639SOL     OW29813   3.546  10.577   5.889
42639SOL    HW129814   3.522  10.488   5.914
42639SOL    HW229815   3.592  10.612   5.965
42640SOL     OW29816  14.241  13.302   7.807
42640SOL    HW129817  14.230  13.367   7.738
42640SOL    HW229818  14.332  13.313   7.835
42641SOL     OW29819   6.645   6.152   3.727
42641SOL    HW129820   6.601   6.226   3.684
42641SOL    HW229821   6.710   6.192   3.783
42642SOL     OW29822   0.119   5.414   8.823
42642SOL    HW129823   0.028   5.439   8.839
42642SOL    HW229824   0.125   5.323   8.852
42643SOL     OW29825   7.633  13.663  10.175
42643SOL    HW129826   7.657  13.691  10.087
42643SOL    HW229827   7.623  13.744  10.224
42644SOL     OW29828  11.386  14.642   1.443
42644SOL    HW129829  11.306  14.647   1.391
42644SOL    HW229830  11.356  14.616   1.530
42645SOL     OW29831   5.867  13.726   3.340
42645SOL    HW129832   5.912  13.770   3.412
42645SOL    HW229833   5.879  13.785   3.265
42646SOL     OW29834  10.274   3.577  14.247
42646SOL    HW129835  10.244   3.603  14.160
42646SOL    HW229836  10.194   3.556  14.295
42647SOL     OW29837   9.638   0.883   8.323
42647SOL    HW129838   9.714   0.880   8.382
42647SOL    HW229839   9.675   0.871   8.236
42648SOL     OW29840   5.511   0.526   0.335
42648SOL    HW129841   5.503   0.456   0.270
42648SOL    HW229842   5.496   0.483   0.419
42649SOL     OW29843   4.742  14.615   1.327
42649SOL    HW129844   4.792  14.535   1.314
42649SOL    HW229845   4.665  14.588   1.378
42650SOL     OW29846  13.035  14.781   7.424
42650SOL    HW129847  13.051  14.693   7.459
42650SOL    HW229848  13.097  14.837   7.470
42651SOL     OW29849  11.673  12.751  11.921
42651SOL    HW129850  11.634  12.687  11.863
42651SOL    HW229851  11.625  12.832  11.904
42652SOL     OW29852  13.068   0.189   8.548
42652SOL    HW129853  13.040   0.129   8.479
42652SOL    HW229854  13.031   0.151   8.628
42653SOL     OW29855   2.924   2.382   4.123
42653SOL    HW129856   3.007   2.387   4.170
42653SOL    HW229857   2.923   2.294   4.086
42654SOL     OW29858   1.832   2.607  10.967
42654SOL    HW129859   1.894   2.618  10.895
42654SOL    HW229860   1.860   2.670  11.033
42655SOL     OW29861   7.758   6.996   5.968
42655SOL    HW129862   7.672   6.969   5.937
42655SOL    HW229863   7.745   7.083   6.006
42656SOL     OW29864  12.082   8.700   0.309
42656SOL    HW129865  12.003   8.721   0.359
42656SOL    HW229866  12.145   8.767   0.334
42657SOL     OW29867  13.753   2.894   5.867
42657SOL    HW129868  13.837   2.922   5.832
42657SOL    HW229869  13.705   2.975   5.883
42658SOL     OW29870   8.459   5.041  14.823
42658SOL    HW129871   8.451   4.955  14.864
42658SOL    HW229872   8.484   5.100   0.017
42659SOL     OW29873   8.748   5.449  12.024
42659SOL    HW129874   8.833   5.452  12.068
42659SOL    HW229875   8.752   5.519  11.959
42660SOL     OW29876   9.579  11.165  12.416
42660SOL    HW129877   9.593  11.233  12.350
42660SOL    HW229878   9.489  11.137  12.402
42661SOL     OW29879   4.101  10.564   6.410
42661SOL    HW129880   4.191  10.531   6.408
42661SOL    HW229881   4.052  10.496   6.456
42662SOL     OW29882  14.728   5.959  13.078
42662SOL    HW129883  14.796   5.906  13.037
42662SOL    HW229884  14.672   5.896  13.123
42663SOL     OW29885  10.261   3.454   0.307
42663SOL    HW129886  10.251   3.429   0.215
42663SOL    HW229887  10.318   3.387   0.344
42664SOL     OW29888  14.438   0.377   8.908
42664SOL    HW129889  14.530   0.390   8.888
42664SOL    HW229890  14.394   0.453   8.869
42665SOL     OW29891   0.650   5.255   1.917
42665SOL    HW129892   0.716   5.277   1.983
42665SOL    HW229893   0.600   5.336   1.906
42666SOL     OW29894   5.449   3.239   0.505
42666SOL    HW129895   5.454   3.290   0.424
42666SOL    HW229896   5.481   3.298   0.573
42667SOL     OW29897   0.651  10.966   4.579
42667SOL    HW129898   0.742  10.993   4.562
42667SOL    HW229899   0.656  10.871   4.591
42668SOL     OW29900  10.128  12.388   9.488
42668SOL    HW129901  10.048  12.339   9.467
42668SOL    HW229902  10.159  12.349   9.569
42669SOL     OW29903   8.634  10.755  14.287
42669SOL    HW129904   8.571  10.747  14.216
42669SOL    HW229905   8.675  10.669  14.292
42670SOL     OW29906   2.021   0.441   2.609
42670SOL    HW129907   2.077   0.508   2.571
42670SOL    HW229908   2.080   0.383   2.657
42671SOL     OW29909   7.225   2.063   3.171
42671SOL    HW129910   7.158   2.023   3.226
42671SOL    HW229911   7.234   2.152   3.205
42672SOL     OW29912   1.859  14.074   8.690
42672SOL    HW129913   1.936  14.119   8.655
42672SOL    HW229914   1.821  14.030   8.614
42673SOL     OW29915   5.333  11.557   5.295
42673SOL    HW129916   5.287  11.604   5.364
42673SOL    HW229917   5.280  11.571   5.217
42674SOL     OW29918   2.150   2.251   1.630
42674SOL    HW129919   2.181   2.203   1.553
42674SOL    HW229920   2.194   2.209   1.704
42675SOL     OW29921   0.935  14.094   6.182
42675SOL    HW129922   1.006  14.157   6.197
42675SOL    HW229923   0.951  14.024   6.245
42676SOL     OW29924   2.110   0.599   4.810
42676SOL    HW129925   2.056   0.529   4.846
42676SOL    HW229926   2.196   0.587   4.849
42677SOL     OW29927  14.767   6.938  14.532
42677SOL    HW129928  14.815   6.864  14.493
42677SOL    HW229929  14.836   6.996  14.564
42678SOL     OW29930   0.733  14.611   1.430
42678SOL    HW129931   0.745  14.706   1.433
42678SOL    HW229932   0.659  14.594   1.488
42679SOL     OW29933   5.339   2.049  13.120
42679SOL    HW129934   5.274   2.085  13.059
42679SOL    HW229935   5.287   2.023  13.197
42680SOL     OW29936   1.840   7.561   3.493
42680SOL    HW129937   1.934   7.565   3.474
42680SOL    HW229938   1.834   7.518   3.578
42681SOL     OW29939   9.905  10.042  14.637
42681SOL    HW129940   9.957  10.122  14.625
42681SOL    HW229941   9.815  10.073  14.642
42682SOL     OW29942   7.910   3.043  10.504
42682SOL    HW129943   7.949   2.956  10.511
42682SOL    HW229944   7.816   3.029  10.511
42683SOL     OW29945   4.371   0.941   0.786
42683SOL    HW129946   4.452   0.964   0.740
42683SOL    HW229947   4.340   0.862   0.741
42684SOL     OW29948   7.481  11.397  14.042
42684SOL    HW129949   7.481  11.305  14.013
42684SOL    HW229950   7.509  11.446  13.965
42685SOL     OW29951   2.893   1.942   5.319
42685SOL    HW129952   2.978   1.904   5.300
42685SOL    HW229953   2.911   2.011   5.384
42686SOL     OW29954   2.963  10.768   9.690
42686SOL    HW129955   2.883  10.807   9.655
42686SOL    HW229956   3.022  10.762   9.615
42687SOL     OW29957  12.187   9.308   7.639
42687SOL    HW129958  12.143   9.238   7.590
42687SOL    HW229959  12.204   9.376   7.573
42688SOL     OW29960   3.835   7.028   6.199
42688SOL    HW129961   3.762   7.090   6.197
42688SOL    HW229962   3.893   7.061   6.268
42689SOL     OW29963   4.902  13.463  12.001
42689SOL    HW129964   4.906  13.452  12.096
42689SOL    HW229965   4.861  13.382  11.970
42690SOL     OW29966  14.407   0.449   8.022
42690SOL    HW129967  14.327   0.412   8.060
42690SOL    HW229968  14.475   0.384   8.043
42691SOL     OW29969   3.707   3.978   7.736
42691SOL    HW129970   3.634   4.039   7.723
42691SOL    HW229971   3.784   4.028   7.711
42692SOL     OW29972   0.665   4.969  14.670
42692SOL    HW129973   0.753   4.939  14.695
42692SOL    HW229974   0.678   5.010  14.584
42693SOL     OW29975   4.968   8.085   3.328
42693SOL    HW129976   5.006   8.046   3.406
42693SOL    HW229977   4.916   8.015   3.288
42694SOL     OW29978  11.016  12.251   8.664
42694SOL    HW129979  10.970  12.273   8.583
42694SOL    HW229980  11.053  12.165   8.648
42695SOL     OW29981   4.110   4.013   4.619
42695SOL    HW129982   4.119   3.991   4.712
42695SOL    HW229983   4.046   4.084   4.617
42696SOL     OW29984   9.665   9.061   2.805
42696SOL    HW129985   9.667   9.039   2.898
42696SOL    HW229986   9.750   9.103   2.789
42697SOL     OW29987  11.564   3.376   1.076
42697SOL    HW129988  11.626   3.309   1.049
42697SOL    HW229989  11.481   3.329   1.087
42698SOL     OW29990   3.756   6.329   0.094
42698SOL    HW129991   3.671   6.367   0.073
42698SOL    HW229992   3.735   6.238   0.119
42699SOL     OW29993   8.159   0.062  13.900
42699SOL    HW129994   8.169   0.116  13.978
42699SOL    HW229995   8.093   0.107  13.848
42700SOL     OW29996   0.017   3.720  12.481
42700SOL    HW129997  14.828   3.673  12.431
42700SOL    HW229998  14.859   3.725  12.570
42701SOL     OW29999  12.389   0.856  11.856
42701SOL    HW130000  12.298   0.863  11.828
42701SOL    HW230001  12.389   0.782  11.916
42702SOL     OW30002   6.200  12.350  11.387
42702SOL    HW130003   6.111  12.375  11.360
42702SOL    HW230004   6.191  12.259  11.416
42703SOL     OW30005  10.366  11.515   0.254
42703SOL    HW130006  10.435  11.469   0.301
42703SOL    HW230007  10.402  11.603   0.240
42704SOL     OW30008  12.584   9.107   6.821
42704SOL    HW130009  12.642   9.108   6.897
42704SOL    HW230010  12.631   9.156   6.754
42705SOL     OW30011   8.023   1.004  13.582
42705SOL    HW130012   8.115   1.029  13.587
42705SOL    HW230013   8.020   0.917  13.620
42706SOL     OW30014   8.651   6.633  12.849
42706SOL    HW130015   8.719   6.690  12.811
42706SOL    HW230016   8.586   6.694  12.885
42707SOL     OW30017  13.591   3.832   6.628
42707SOL    HW130018  13.656   3.789   6.572
42707SOL    HW230019  13.556   3.903   6.574
42708SOL     OW30020  13.228   5.572  13.104
42708SOL    HW130021  13.166   5.527  13.161
42708SOL    HW230022  13.311   5.570  13.152
42709SOL     OW30023  13.361  11.092   3.645
42709SOL    HW130024  13.335  11.183   3.633
42709SOL    HW230025  13.280  11.042   3.631
42710SOL     OW30026   8.125  14.500  14.476
42710SOL    HW130027   8.080  14.428  14.519
42710SOL    HW230028   8.168  14.459  14.401
42711SOL     OW30029   9.080  13.847   7.827
42711SOL    HW130030   9.136  13.843   7.904
42711SOL    HW230031   9.062  13.756   7.805
42712SOL     OW30032   8.733   3.676  11.686
42712SOL    HW130033   8.715   3.607  11.750
42712SOL    HW230034   8.754   3.753  11.738
42713SOL     OW30035  13.093  11.407   3.832
42713SOL    HW130036  13.130  11.344   3.771
42713SOL    HW230037  13.126  11.380   3.918
42714SOL     OW30038  11.849   6.412   5.783
42714SOL    HW130039  11.857   6.508   5.787
42714SOL    HW230040  11.768   6.398   5.734
42715SOL     OW30041   7.753  10.057  14.327
42715SOL    HW130042   7.810  10.134  14.321
42715SOL    HW230043   7.668  10.088  14.295
42716SOL     OW30044   8.407   0.833   3.776
42716SOL    HW130045   8.466   0.855   3.704
42716SOL    HW230046   8.381   0.918   3.812
42717SOL     OW30047   1.433   8.852   7.935
42717SOL    HW130048   1.398   8.903   8.008
42717SOL    HW230049   1.502   8.799   7.974
42718SOL     OW30050  12.874   8.479  14.817
42718SOL    HW130051  12.910   8.413  14.877
42718SOL    HW230052  12.779   8.467  14.823
42719SOL     OW30053  11.816   6.166   5.021
42719SOL    HW130054  11.814   6.247   5.072
42719SOL    HW230055  11.724   6.139   5.014
42720SOL     OW30056   9.784   8.001  14.334
42720SOL    HW130057   9.840   7.924  14.337
42720SOL    HW230058   9.739   7.995  14.249
42721SOL     OW30059  11.187   9.707  11.847
42721SOL    HW130060  11.276   9.675  11.833
42721SOL    HW230061  11.154   9.726  11.759
42722SOL     OW30062   8.407   0.728  10.768
42722SOL    HW130063   8.480   0.670  10.746
42722SOL    HW230064   8.440   0.781  10.841
42723SOL     OW30065  14.129   7.344  11.818
42723SOL    HW130066  14.216   7.316  11.790
42723SOL    HW230067  14.144   7.422  11.871
42724SOL     OW30068  11.281  12.783   7.426
42724SOL    HW130069  11.249  12.736   7.503
42724SOL    HW230070  11.372  12.805   7.447
42725SOL     OW30071  13.028   0.367   0.142
42725SOL    HW130072  12.987   0.422   0.209
42725SOL    HW230073  13.099   0.322   0.189
42726SOL     OW30074   8.986  12.018   6.812
42726SOL    HW130075   8.915  11.955   6.803
42726SOL    HW230076   8.991  12.034   6.907
42727SOL     OW30077   1.058   9.129  11.363
42727SOL    HW130078   1.066   9.035  11.380
42727SOL    HW230079   1.043   9.136  11.269
42728SOL     OW30080   3.754  12.986   7.156
42728SOL    HW130081   3.833  13.011   7.109
42728SOL    HW230082   3.771  13.012   7.247
42729SOL     OW30083   0.615  13.732  14.790
42729SOL    HW130084   0.527  13.769  14.794
42729SOL    HW230085   0.650  13.762  14.706
42730SOL     OW30086  11.655   5.331   5.979
42730SOL    HW130087  11.723   5.283   5.932
42730SOL    HW230088  11.698   5.410   6.012
42731SOL     OW30089  12.336   9.311  11.712
42731SOL    HW130090  12.341   9.216  11.722
42731SOL    HW230091  12.279   9.339  11.784
42732SOL     OW30092   3.271   2.455  13.412
42732SOL    HW130093   3.230   2.379  13.451
42732SOL    HW230094   3.200   2.518  13.401
42733SOL     OW30095   7.443   6.181   0.640
42733SOL    HW130096   7.441   6.091   0.671
42733SOL    HW230097   7.400   6.232   0.709
42734SOL     OW30098   1.125  10.898  10.799
42734SOL    HW130099   1.051  10.936  10.751
42734SOL    HW230100   1.098  10.808  10.818
42735SOL     OW30101  13.305   1.215   2.722
42735SOL    HW130102  13.329   1.183   2.635
42735SOL    HW230103  13.210   1.207   2.726
42736SOL     OW30104   2.821   4.709  10.951
42736SOL    HW130105   2.870   4.666  10.881
42736SOL    HW230106   2.743   4.653  10.963
42737SOL     OW30107  10.269   7.489   9.241
42737SOL    HW130108  10.286   7.409   9.290
42737SOL    HW230109  10.239   7.551   9.307
42738SOL     OW30110   1.216   3.216   5.521
42738SOL    HW130111   1.193   3.132   5.480
42738SOL    HW230112   1.206   3.281   5.452
42739SOL     OW30113   1.685   0.027   0.060
42739SOL    HW130114   1.625  14.869  14.872
42739SOL    HW230115   1.749  14.835   0.076
42740SOL     OW30116   5.213   6.528   0.543
42740SOL    HW130117   5.257   6.564   0.465
42740SOL    HW230118   5.120   6.528   0.520
42741SOL     OW30119   3.062  10.502   8.967
42741SOL    HW130120   2.968  10.509   8.948
42741SOL    HW230121   3.077  10.409   8.980
42742SOL     OW30122  13.071   6.238   6.531
42742SOL    HW130123  13.126   6.314   6.513
42742SOL    HW230124  13.080   6.224   6.625
42743SOL     OW30125  14.483   3.515   8.127
42743SOL    HW130126  14.544   3.537   8.057
42743SOL    HW230127  14.398   3.508   8.085
42744SOL     OW30128  12.534   9.942  10.147
42744SOL    HW130129  12.453   9.970  10.191
42744SOL    HW230130  12.527   9.978  10.059
42745SOL     OW30131   7.661   0.525  14.766
42745SOL    HW130132   7.739   0.575  14.791
42745SOL    HW230133   7.695   0.456  14.709
42746SOL     OW30134   8.837   4.660  13.173
42746SOL    HW130135   8.800   4.749  13.172
42746SOL    HW230136   8.762   4.604  13.194
42747SOL     OW30137   5.629   7.910   4.390
42747SOL    HW130138   5.538   7.927   4.365
42747SOL    HW230139   5.630   7.819   4.417
42748SOL     OW30140   2.290  14.351   5.097
42748SOL    HW130141   2.329  14.348   5.010
42748SOL    HW230142   2.251  14.438   5.102
42749SOL     OW30143   8.196  13.218   0.694
42749SOL    HW130144   8.114  13.174   0.715
42749SOL    HW230145   8.179  13.265   0.613
42750SOL     OW30146  13.799   4.504   7.622
42750SOL    HW130147  13.731   4.515   7.556
42750SOL    HW230148  13.794   4.583   7.675
42751SOL     OW30149  14.683  13.648  11.786
42751SOL    HW130150  14.662  13.595  11.709
42751SOL    HW230151  14.778  13.655  11.785
42752SOL     OW30152  11.377   9.662  11.382
42752SOL    HW130153  11.296   9.699  11.417
42752SOL    HW230154  11.350   9.611  11.306
42753SOL     OW30155   4.953   0.496   6.247
42753SOL    HW130156   4.858   0.492   6.254
42753SOL    HW230157   4.978   0.415   6.203
42754SOL     OW30158  11.058   6.815  13.453
42754SOL    HW130159  10.964   6.801  13.457
42754SOL    HW230160  11.095   6.728  13.445
42755SOL     OW30161   4.044   7.488   1.208
42755SOL    HW130162   4.105   7.526   1.144
42755SOL    HW230163   4.072   7.397   1.218
42756SOL     OW30164   4.744   0.771  11.649
42756SOL    HW130165   4.687   0.847  11.637
42756SOL    HW230166   4.833   0.807  11.644
42757SOL     OW30167   1.432  11.403   8.442
42757SOL    HW130168   1.400  11.493   8.447
42757SOL    HW230169   1.377  11.361   8.376
42758SOL     OW30170   1.487   1.087  14.485
42758SOL    HW130171   1.412   1.127  14.528
42758SOL    HW230172   1.457   1.067  14.396
42759SOL     OW30173  11.750   3.893  13.393
42759SOL    HW130174  11.827   3.837  13.407
42759SOL    HW230175  11.787   3.977  13.366
42760SOL     OW30176   1.439   2.368   9.449
42760SOL    HW130177   1.491   2.293   9.419
42760SOL    HW230178   1.368   2.329   9.501
42761SOL     OW30179   3.252   5.741   2.498
42761SOL    HW130180   3.299   5.800   2.558
42761SOL    HW230181   3.303   5.743   2.417
42762SOL     OW30182   6.783   5.818  11.160
42762SOL    HW130183   6.726   5.895  11.151
42762SOL    HW230184   6.722   5.745  11.170
42763SOL     OW30185  13.725  11.905   2.623
42763SOL    HW130186  13.777  11.969   2.672
42763SOL    HW230187  13.709  11.948   2.538
42764SOL     OW30188   5.236   7.964   8.178
42764SOL    HW130189   5.303   8.026   8.152
42764SOL    HW230190   5.223   7.908   8.102
42765SOL     OW30191  14.777   2.035  10.029
42765SOL    HW130192  14.747   2.107  10.084
42765SOL    HW230193  14.781   2.072   9.941
42766SOL     OW30194   4.146  14.026   7.514
42766SOL    HW130195   4.056  14.041   7.545
42766SOL    HW230196   4.135  13.967   7.439
42767SOL     OW30197   5.613  13.288   9.608
42767SOL    HW130198   5.565  13.347   9.551
42767SOL    HW230199   5.635  13.341   9.685
42768SOL     OW30200  10.198   5.044  10.393
42768SOL    HW130201  10.202   4.952  10.418
42768SOL    HW230202  10.290   5.070  10.383
42769SOL     OW30203   0.887   3.387   3.759
42769SOL    HW130204   0.863   3.425   3.675
42769SOL    HW230205   0.830   3.429   3.822
42770SOL     OW30206  10.856  13.098   8.553
42770SOL    HW130207  10.895  13.030   8.608
42770SOL    HW230208  10.766  13.106   8.586
42771SOL     OW30209  11.766   1.761   4.153
42771SOL    HW130210  11.679   1.731   4.129
42771SOL    HW230211  11.761   1.776   4.248
42772SOL     OW30212  11.797  13.124   3.488
42772SOL    HW130213  11.829  13.102   3.575
42772SOL    HW230214  11.864  13.181   3.451
42773SOL     OW30215   7.348  13.940   2.191
42773SOL    HW130216   7.329  13.882   2.116
42773SOL    HW230217   7.278  14.005   2.190
42774SOL     OW30218   4.825  11.120  12.292
42774SOL    HW130219   4.793  11.138  12.204
42774SOL    HW230220   4.752  11.143  12.350
42775SOL     OW30221  12.689   2.457  12.666
42775SOL    HW130222  12.671   2.544  12.702
42775SOL    HW230223  12.602   2.420  12.648
42776SOL     OW30224   4.294  12.075  11.764
42776SOL    HW130225   4.324  12.021  11.838
42776SOL    HW230226   4.365  12.070  11.701
42777SOL     OW30227   5.196   2.458  10.630
42777SOL    HW130228   5.126   2.488  10.689
42777SOL    HW230229   5.195   2.520  10.557
42778SOL     OW30230  10.795   0.324  12.300
42778SOL    HW130231  10.876   0.307  12.252
42778SOL    HW230232  10.730   0.265  12.261
42779SOL     OW30233   5.569   4.985   3.819
42779SOL    HW130234   5.535   4.902   3.785
42779SOL    HW230235   5.526   4.996   3.904
42780SOL     OW30236  10.606   9.079  11.075
42780SOL    HW130237  10.699   9.097  11.081
42780SOL    HW230238  10.595   8.992  11.113
42781SOL     OW30239   4.058   6.346   9.612
42781SOL    HW130240   4.014   6.295   9.679
42781SOL    HW230241   4.013   6.322   9.531
42782SOL     OW30242   1.764   3.064   4.670
42782SOL    HW130243   1.673   3.092   4.665
42782SOL    HW230244   1.760   2.969   4.672
42783SOL     OW30245  11.183   2.849   7.893
42783SOL    HW130246  11.267   2.864   7.937
42783SOL    HW230247  11.138   2.933   7.897
42784SOL     OW30248  11.484   1.246   2.474
42784SOL    HW130249  11.457   1.289   2.393
42784SOL    HW230250  11.427   1.283   2.541
42785SOL     OW30251   4.934   6.088   8.607
42785SOL    HW130252   4.985   6.117   8.683
42785SOL    HW230253   4.937   5.992   8.611
42786SOL     OW30254   8.832  10.831   6.868
42786SOL    HW130255   8.753  10.860   6.824
42786SOL    HW230256   8.843  10.892   6.941
42787SOL     OW30257  12.780   8.519   2.191
42787SOL    HW130258  12.810   8.475   2.270
42787SOL    HW230259  12.800   8.612   2.206
42788SOL     OW30260  13.506  12.604   1.906
42788SOL    HW130261  13.473  12.548   1.976
42788SOL    HW230262  13.584  12.646   1.944
42789SOL     OW30263   5.889   0.228   5.892
42789SOL    HW130264   5.919   0.213   5.981
42789SOL    HW230265   5.909   0.146   5.846
42790SOL     OW30266   2.814   4.326   4.306
42790SOL    HW130267   2.880   4.272   4.262
42790SOL    HW230268   2.752   4.262   4.342
42791SOL     OW30269  13.793   8.325   8.694
42791SOL    HW130270  13.795   8.231   8.675
42791SOL    HW230271  13.701   8.345   8.710
42792SOL     OW30272   2.482  11.733   1.501
42792SOL    HW130273   2.394  11.769   1.504
42792SOL    HW230274   2.517  11.761   1.416
42793SOL     OW30275  12.982   5.173   3.147
42793SOL    HW130276  13.021   5.120   3.216
42793SOL    HW230277  12.978   5.261   3.184
42794SOL     OW30278   6.250  14.093   1.482
42794SOL    HW130279   6.300  14.145   1.420
42794SOL    HW230280   6.293  14.108   1.567
42795SOL     OW30281   0.382   6.146   3.170
42795SOL    HW130282   0.339   6.061   3.154
42795SOL    HW230283   0.358   6.199   3.094
42796SOL     OW30284   9.088   4.516   0.091
42796SOL    HW130285   9.087   4.477   0.179
42796SOL    HW230286   9.160   4.579   0.094
42797SOL     OW30287   4.048   8.491   7.349
42797SOL    HW130288   4.120   8.431   7.367
42797SOL    HW230289   3.983   8.472   7.416
42798SOL     OW30290  14.587   2.006  10.614
42798SOL    HW130291  14.676   1.972  10.610
42798SOL    HW230292  14.532   1.930  10.632
42799SOL     OW30293  13.794   7.337   0.552
42799SOL    HW130294  13.773   7.361   0.642
42799SOL    HW230295  13.760   7.248   0.543
42800SOL     OW30296   7.993   3.472   9.982
42800SOL    HW130297   8.037   3.556   9.967
42800SOL    HW230298   8.053   3.407   9.945
42801SOL     OW30299   4.752   4.637  14.859
42801SOL    HW130300   4.771   4.605  14.771
42801SOL    HW230301   4.785   4.568   0.039
42802SOL     OW30302  14.703  14.436  14.354
42802SOL    HW130303  14.731  14.406  14.440
42802SOL    HW230304  14.776  14.491  14.323
42803SOL     OW30305  10.923   9.638   9.330
42803SOL    HW130306  10.886   9.644   9.418
42803SOL    HW230307  11.015   9.662   9.340
42804SOL     OW30308   0.013  12.897   9.856
42804SOL    HW130309  14.873  12.991   9.852
42804SOL    HW230310  14.861  12.863   9.772
42805SOL     OW30311   2.300   5.742   0.223
42805SOL    HW130312   2.240   5.667   0.223
42805SOL    HW230313   2.304   5.769   0.314
42806SOL     OW30314   2.998   4.825   1.774
42806SOL    HW130315   2.974   4.850   1.863
42806SOL    HW230316   3.056   4.894   1.744
42807SOL     OW30317   6.185   6.997   3.260
42807SOL    HW130318   6.226   7.054   3.195
42807SOL    HW230319   6.112   7.048   3.294
42808SOL     OW30320  13.414   4.220   0.835
42808SOL    HW130321  13.485   4.175   0.881
42808SOL    HW230322  13.442   4.223   0.743
42809SOL     OW30323   0.771  13.628  13.264
42809SOL    HW130324   0.839  13.635  13.196
42809SOL    HW230325   0.707  13.567  13.227
42810SOL     OW30326   5.215  13.787   9.631
42810SOL    HW130327   5.239  13.758   9.543
42810SOL    HW230328   5.182  13.876   9.618
42811SOL     OW30329  13.635   1.820  10.322
42811SOL    HW130330  13.552   1.863  10.345
42811SOL    HW230331  13.636   1.820  10.226
42812SOL     OW30332   9.904   3.534   1.156
42812SOL    HW130333   9.906   3.628   1.137
42812SOL    HW230334   9.814   3.517   1.183
42813SOL     OW30335   3.414   0.903   2.764
42813SOL    HW130336   3.447   0.840   2.828
42813SOL    HW230337   3.460   0.985   2.785
42814SOL     OW30338   8.517   8.658   4.080
42814SOL    HW130339   8.582   8.655   4.150
42814SOL    HW230340   8.467   8.738   4.097
42815SOL     OW30341  11.441   9.015  10.946
42815SOL    HW130342  11.492   8.978  11.019
42815SOL    HW230343  11.423   9.105  10.973
42816SOL     OW30344  12.030  10.658   3.885
42816SOL    HW130345  12.117  10.683   3.918
42816SOL    HW230346  11.983  10.629   3.963
42817SOL     OW30347   9.347   6.285   5.594
42817SOL    HW130348   9.350   6.261   5.501
42817SOL    HW230349   9.283   6.225   5.632
42818SOL     OW30350   2.720  11.281   3.514
42818SOL    HW130351   2.768  11.343   3.458
42818SOL    HW230352   2.666  11.231   3.453
42819SOL     OW30353  10.030   3.518   0.502
42819SOL    HW130354  10.084   3.549   0.575
42819SOL    HW230355  10.094   3.495   0.434
42820SOL     OW30356   5.591   7.353   3.263
42820SOL    HW130357   5.647   7.423   3.230
42820SOL    HW230358   5.524   7.398   3.315
42821SOL     OW30359  13.676  11.930   3.690
42821SOL    HW130360  13.736  11.856   3.697
42821SOL    HW230361  13.600  11.894   3.643
42822SOL     OW30362   9.815  12.230  14.104
42822SOL    HW130363   9.901  12.232  14.062
42822SOL    HW230364   9.753  12.238  14.032
42823SOL     OW30365  11.756  11.928  12.453
42823SOL    HW130366  11.669  11.892  12.437
42823SOL    HW230367  11.776  11.903  12.543
42824SOL     OW30368   6.713  13.875   0.306
42824SOL    HW130369   6.808  13.864   0.307
42824SOL    HW230370   6.684  13.828   0.228
42825SOL     OW30371   6.762   7.916  14.329
42825SOL    HW130372   6.755   8.007  14.301
42825SOL    HW230373   6.846   7.911  14.376
42826SOL     OW30374   7.828   2.885  14.246
42826SOL    HW130375   7.857   2.893  14.337
42826SOL    HW230376   7.835   2.792  14.227
42827SOL     OW30377   4.023  12.385   7.811
42827SOL    HW130378   3.980  12.299   7.814
42827SOL    HW230379   4.105  12.372   7.858
42828SOL     OW30380   8.423   0.829   2.696
42828SOL    HW130381   8.470   0.909   2.720
42828SOL    HW230382   8.413   0.834   2.601
42829SOL     OW30383   7.135  13.097   2.294
42829SOL    HW130384   7.077  13.136   2.359
42829SOL    HW230385   7.134  13.004   2.314
42830SOL     OW30386  10.194  14.342   4.431
42830SOL    HW130387  10.146  14.371   4.353
42830SOL    HW230388  10.254  14.413   4.450
42831SOL     OW30389   7.156   7.485   8.158
42831SOL    HW130390   7.241   7.527   8.173
42831SOL    HW230391   7.117   7.537   8.087
42832SOL     OW30392   4.900   3.130  10.216
42832SOL    HW130393   4.978   3.079  10.195
42832SOL    HW230394   4.934   3.213  10.251
42833SOL     OW30395   9.681   1.979  13.581
42833SOL    HW130396   9.608   1.917  13.588
42833SOL    HW230397   9.759   1.926  13.591
42834SOL     OW30398   9.990   3.055   6.854
42834SOL    HW130399  10.050   2.984   6.878
42834SOL    HW230400   9.944   3.024   6.777
42835SOL     OW30401   4.313  13.181   6.205
42835SOL    HW130402   4.296  13.123   6.130
42835SOL    HW230403   4.376  13.245   6.171
42836SOL     OW30404   6.018  14.719  10.993
42836SOL    HW130405   6.101  14.748  10.954
42836SOL    HW230406   6.044  14.674  11.073
42837SOL     OW30407   2.678   9.037   5.852
42837SOL    HW130408   2.708   9.021   5.763
42837SOL    HW230409   2.637   9.124   5.849
42838SOL     OW30410  11.386   5.334   4.743
42838SOL    HW130411  11.480   5.340   4.761
42838SOL    HW230412  11.370   5.400   4.676
42839SOL     OW30413   8.297   4.840   5.817
42839SOL    HW130414   8.217   4.886   5.790
42839SOL    HW230415   8.266   4.754   5.846
42840SOL     OW30416  11.187   7.244  14.614
42840SOL    HW130417  11.187   7.183  14.687
42840SOL    HW230418  11.160   7.328  14.652
42841SOL     OW30419  14.736   5.004   9.501
42841SOL    HW130420  14.677   4.980   9.429
42841SOL    HW230421  14.705   5.090   9.530
42842SOL     OW30422   9.498   3.105   3.301
42842SOL    HW130423   9.566   3.173   3.299
42842SOL    HW230424   9.546   3.023   3.287
42843SOL     OW30425   7.402   3.224  11.121
42843SOL    HW130426   7.329   3.237  11.061
42843SOL    HW230427   7.368   3.248  11.207
42844SOL     OW30428   9.917   7.752   5.045
42844SOL    HW130429   9.927   7.783   5.135
42844SOL    HW230430   9.927   7.657   5.051
42845SOL     OW30431  12.909   8.158   8.532
42845SOL    HW130432  12.830   8.171   8.585
42845SOL    HW230433  12.878   8.113   8.453
42846SOL     OW30434   7.989   5.515  14.113
42846SOL    HW130435   7.985   5.420  14.117
42846SOL    HW230436   8.017   5.542  14.200
42847SOL     OW30437  11.125   6.689  10.439
42847SOL    HW130438  11.039   6.702  10.399
42847SOL    HW230439  11.107   6.684  10.533
42848SOL     OW30440   6.368  11.486   7.566
42848SOL    HW130441   6.328  11.399   7.564
42848SOL    HW230442   6.356  11.519   7.477
42849SOL     OW30443  13.179   5.600   0.377
42849SOL    HW130444  13.100   5.647   0.403
42849SOL    HW230445  13.159   5.566   0.290
42850SOL     OW30446   8.944   0.899   7.454
42850SOL    HW130447   8.976   0.899   7.544
42850SOL    HW230448   8.905   0.986   7.443
42851SOL     OW30449   0.497   6.746   1.654
42851SOL    HW130450   0.559   6.772   1.587
42851SOL    HW230451   0.461   6.828   1.688
42852SOL     OW30452   7.649   8.873  13.061
42852SOL    HW130453   7.658   8.953  13.010
42852SOL    HW230454   7.557   8.871  13.088
42853SOL     OW30455   9.757  13.802   3.050
42853SOL    HW130456   9.839  13.768   3.014
42853SOL    HW230457   9.689  13.754   3.003
42854SOL     OW30458  13.709   7.917  12.277
42854SOL    HW130459  13.722   7.908  12.372
42854SOL    HW230460  13.617   7.894  12.264
42855SOL     OW30461   5.798   6.697   8.534
42855SOL    HW130462   5.845   6.632   8.587
42855SOL    HW230463   5.746   6.746   8.598
42856SOL     OW30464   3.458   1.493  14.152
42856SOL    HW130465   3.522   1.431  14.188
42856SOL    HW230466   3.505   1.576  14.146
42857SOL     OW30467   2.433  11.130   7.392
42857SOL    HW130468   2.380  11.190   7.444
42857SOL    HW230469   2.469  11.183   7.322
42858SOL     OW30470   0.999   0.418   2.968
42858SOL    HW130471   1.058   0.398   3.041
42858SOL    HW230472   1.023   0.355   2.901
42859SOL     OW30473  11.644   4.726   3.331
42859SOL    HW130474  11.614   4.727   3.422
42859SOL    HW230475  11.593   4.795   3.289
42860SOL     OW30476   7.697   4.604   2.796
42860SOL    HW130477   7.651   4.648   2.725
42860SOL    HW230478   7.636   4.538   2.828
42861SOL     OW30479  12.801   2.418   3.074
42861SOL    HW130480  12.807   2.324   3.095
42861SOL    HW230481  12.723   2.425   3.020
42862SOL     OW30482  11.574   1.600   6.899
42862SOL    HW130483  11.649   1.640   6.944
42862SOL    HW230484  11.554   1.523   6.951
42863SOL     OW30485   8.480   4.932   6.009
42863SOL    HW130486   8.544   4.998   5.984
42863SOL    HW230487   8.430   4.916   5.929
42864SOL     OW30488   6.525   4.866   2.879
42864SOL    HW130489   6.525   4.960   2.899
42864SOL    HW230490   6.551   4.861   2.787
42865SOL     OW30491  10.606  10.327  14.787
42865SOL    HW130492  10.599  10.423  14.786
42865SOL    HW230493  10.696  10.310  14.814
42866SOL     OW30494   9.465   1.653   9.714
42866SOL    HW130495   9.388   1.633   9.767
42866SOL    HW230496   9.475   1.577   9.657
42867SOL     OW30497   1.375   1.812   8.311
42867SOL    HW130498   1.407   1.756   8.240
42867SOL    HW230499   1.354   1.751   8.381
42868SOL     OW30500   0.106   9.276   2.132
42868SOL    HW130501   0.080   9.311   2.218
42868SOL    HW230502   0.162   9.201   2.153
42869SOL     OW30503   5.503   0.485  11.406
42869SOL    HW130504   5.428   0.528  11.364
42869SOL    HW230505   5.578   0.512  11.353
42870SOL     OW30506   9.892   3.311   3.160
42870SOL    HW130507   9.931   3.345   3.079
42870SOL    HW230508   9.852   3.228   3.134
42871SOL     OW30509  13.791   3.077   0.738
42871SOL    HW130510  13.807   3.040   0.651
42871SOL    HW230511  13.865   3.137   0.752
42872SOL     OW30512  10.949   9.670   1.792
42872SOL    HW130513  10.886   9.709   1.731
42872SOL    HW230514  11.006   9.617   1.737
42873SOL     OW30515  13.522   5.798   5.897
42873SOL    HW130516  13.565   5.729   5.848
42873SOL    HW230517  13.452   5.829   5.839
42874SOL     OW30518   0.895   3.406  10.670
42874SOL    HW130519   0.914   3.492  10.633
42874SOL    HW230520   0.938   3.344  10.611
42875SOL     OW30521   5.421  14.498   6.558
42875SOL    HW130522   5.349  14.516   6.618
42875SOL    HW230523   5.381  14.446   6.488
42876SOL     OW30524   3.571   0.023  14.643
42876SOL    HW130525   3.617   0.083  14.585
42876SOL    HW230526   3.498   0.074  14.678
42877SOL     OW30527   7.157   6.779   9.263
42877SOL    HW130528   7.199   6.697   9.240
42877SOL    HW230529   7.219   6.847   9.236
42878SOL     OW30530   2.781  14.040  14.255
42878SOL    HW130531   2.747  14.123  14.289
42878SOL    HW230532   2.735  14.028  14.172
42879SOL     OW30533   1.069   3.900   7.958
42879SOL    HW130534   1.042   3.818   8.001
42879SOL    HW230535   1.136   3.873   7.895
42880SOL     OW30536   4.458  14.825   1.823
42880SOL    HW130537   4.434  14.781   1.742
42880SOL    HW230538   4.411   0.031   1.820
42881SOL     OW30539   5.863   7.241   4.848
42881SOL    HW130540   5.925   7.284   4.906
42881SOL    HW230541   5.867   7.291   4.766
42882SOL     OW30542  11.986   0.029   0.591
42882SOL    HW130543  11.942   0.067   0.667
42882SOL    HW230544  11.918  14.856   0.547
42883SOL     OW30545   2.543   8.546   1.657
42883SOL    HW130546   2.629   8.536   1.699
42883SOL    HW230547   2.506   8.625   1.697
42884SOL     OW30548   6.308   3.777   1.941
42884SOL    HW130549   6.339   3.866   1.961
42884SOL    HW230550   6.274   3.745   2.024
42885SOL     OW30551  13.324   1.001  13.969
42885SOL    HW130552  13.231   1.016  13.986
42885SOL    HW230553  13.340   0.912  14.000
42886SOL     OW30554  10.307   2.052   5.704
42886SOL    HW130555  10.394   2.043   5.663
42886SOL    HW230556  10.246   2.027   5.635
42887SOL     OW30557  12.179  14.592   9.461
42887SOL    HW130558  12.177  14.497   9.475
42887SOL    HW230559  12.137  14.628   9.539
42888SOL     OW30560  12.539   7.852   6.280
42888SOL    HW130561  12.605   7.827   6.215
42888SOL    HW230562  12.487   7.773   6.293
42889SOL     OW30563  11.787   9.715  12.031
42889SOL    HW130564  11.773   9.694  11.939
42889SOL    HW230565  11.873   9.678  12.052
42890SOL     OW30566   6.930   4.232   6.759
42890SOL    HW130567   6.989   4.279   6.700
42890SOL    HW230568   6.929   4.285   6.839
42891SOL     OW30569   4.681   9.134   6.009
42891SOL    HW130570   4.747   9.103   5.948
42891SOL    HW230571   4.615   9.177   5.954
42892SOL     OW30572   4.986  13.259   0.571
42892SOL    HW130573   4.984  13.259   0.666
42892SOL    HW230574   4.897  13.283   0.545
42893SOL     OW30575   2.373  10.455   9.660
42893SOL    HW130576   2.357  10.367   9.626
42893SOL    HW230577   2.317  10.462   9.738
42894SOL     OW30578   3.497  13.813   1.199
42894SOL    HW130579   3.535  13.828   1.113
42894SOL    HW230580   3.565  13.840   1.261
42895SOL     OW30581  13.339  11.670  11.973
42895SOL    HW130582  13.331  11.738  12.040
42895SOL    HW230583  13.259  11.679  11.921
42896SOL     OW30584   6.013   3.359  11.752
42896SOL    HW130585   6.048   3.441  11.716
42896SOL    HW230586   6.081   3.330  11.813
42897SOL     OW30587   6.374   5.893   0.621
42897SOL    HW130588   6.431   5.886   0.544
42897SOL    HW230589   6.348   5.985   0.623
42898SOL     OW30590  14.748   6.352  14.649
42898SOL    HW130591  14.727   6.445  14.653
42898SOL    HW230592  14.681   6.309  14.701
42899SOL     OW30593   1.904   3.716   1.535
42899SOL    HW130594   1.917   3.660   1.459
42899SOL    HW230595   1.809   3.727   1.541
42900SOL     OW30596   7.877   8.224  10.200
42900SOL    HW130597   7.958   8.189  10.165
42900SOL    HW230598   7.888   8.319  10.197
42901SOL     OW30599  13.980  10.293  10.620
42901SOL    HW130600  13.939  10.365  10.669
42901SOL    HW230601  13.975  10.321  10.528
42902SOL     OW30602  14.140   0.813   0.791
42902SOL    HW130603  14.124   0.729   0.834
42902SOL    HW230604  14.149   0.791   0.698
42903SOL     OW30605  11.522   5.058   9.879
42903SOL    HW130606  11.595   4.998   9.894
42903SOL    HW230607  11.458   5.007   9.830
42904SOL     OW30608   9.221  10.517  14.233
42904SOL    HW130609   9.221  10.568  14.152
42904SOL    HW230610   9.207  10.427  14.205
42905SOL     OW30611   8.091  14.318  12.825
42905SOL    HW130612   8.103  14.350  12.914
42905SOL    HW230613   8.020  14.254  12.832
42906SOL     OW30614  10.016   0.665   7.069
42906SOL    HW130615   9.994   0.584   7.115
42906SOL    HW230616  10.105   0.685   7.099
42907SOL     OW30617  12.012   1.212   7.639
42907SOL    HW130618  11.929   1.195   7.595
42907SOL    HW230619  12.022   1.140   7.701
42908SOL     OW30620   4.589   6.076  10.789
42908SOL    HW130621   4.669   6.126  10.772
42908SOL    HW230622   4.531   6.138  10.833
42909SOL     OW30623  14.534   4.708  12.527
42909SOL    HW130624  14.581   4.789  12.508
42909SOL    HW230625  14.442   4.733  12.527
42910SOL     OW30626   4.722   7.004   1.874
42910SOL    HW130627   4.710   7.091   1.911
42910SOL    HW230628   4.691   7.012   1.784
42911SOL     OW30629   7.807   4.611   7.895
42911SOL    HW130630   7.734   4.587   7.952
42911SOL    HW230631   7.780   4.693   7.854
42912SOL     OW30632   3.152   2.199   8.391
42912SOL    HW130633   3.138   2.287   8.356
42912SOL    HW230634   3.239   2.174   8.359
42913SOL     OW30635  13.738   4.900   5.619
42913SOL    HW130636  13.698   4.987   5.614
42913SOL    HW230637  13.715   4.868   5.706
42914SOL     OW30638  13.277   3.048   4.860
42914SOL    HW130639  13.313   3.120   4.808
42914SOL    HW230640  13.352   3.011   4.906
42915SOL     OW30641   1.057   5.480   8.487
42915SOL    HW130642   1.105   5.434   8.418
42915SOL    HW230643   1.022   5.558   8.443
42916SOL     OW30644   9.253   4.258   4.635
42916SOL    HW130645   9.160   4.276   4.617
42916SOL    HW230646   9.274   4.184   4.578
42917SOL     OW30647  14.169   4.355   9.150
42917SOL    HW130648  14.243   4.311   9.109
42917SOL    HW230649  14.093   4.304   9.121
42918SOL     OW30650   6.815   5.138   2.439
42918SOL    HW130651   6.749   5.204   2.459
42918SOL    HW230652   6.843   5.157   2.350
42919SOL     OW30653   9.343   2.286   1.461
42919SOL    HW130654   9.400   2.209   1.463
42919SOL    HW230655   9.262   2.255   1.420
42920SOL     OW30656  11.274   1.111   7.267
42920SOL    HW130657  11.235   1.025   7.280
42920SOL    HW230658  11.200   1.169   7.247
42921SOL     OW30659   6.740   9.007   5.829
42921SOL    HW130660   6.737   8.939   5.896
42921SOL    HW230661   6.778   8.964   5.752
42922SOL     OW30662  10.297   7.391   0.048
42922SOL    HW130663  10.389   7.380   0.072
42922SOL    HW230664  10.299   7.440  14.843
42923SOL     OW30665  10.870   8.409   6.305
42923SOL    HW130666  10.919   8.455   6.236
42923SOL    HW230667  10.928   8.338   6.332
42924SOL     OW30668   2.596   5.072   5.065
42924SOL    HW130669   2.504   5.098   5.061
42924SOL    HW230670   2.603   4.995   5.008
42925SOL     OW30671  11.902   6.043  11.107
42925SOL    HW130672  11.984   6.064  11.062
42925SOL    HW230673  11.859   5.979  11.049
42926SOL     OW30674  11.888   4.139  14.255
42926SOL    HW130675  11.906   4.045  14.253
42926SOL    HW230676  11.829   4.150  14.330
42927SOL     OW30677  12.385  12.834   3.214
42927SOL    HW130678  12.443  12.877   3.277
42927SOL    HW230679  12.297  12.845   3.252
42928SOL     OW30680   4.160   3.671  14.265
42928SOL    HW130681   4.162   3.577  14.281
42928SOL    HW230682   4.233   3.706  14.315
42929SOL     OW30683  10.963   0.009  11.113
42929SOL    HW130684  10.940  14.862  11.203
42929SOL    HW230685  10.914  14.827  11.058
42930SOL     OW30686   2.575   4.424   1.871
42930SOL    HW130687   2.530   4.459   1.794
42930SOL    HW230688   2.668   4.445   1.856
42931SOL     OW30689  12.821  12.059   5.454
42931SOL    HW130690  12.800  11.985   5.512
42931SOL    HW230691  12.907  12.089   5.483
42932SOL     OW30692   4.602   1.991   4.870
42932SOL    HW130693   4.617   1.906   4.912
42932SOL    HW230694   4.534   2.032   4.923
42933SOL     OW30695  12.003   2.370   4.681
42933SOL    HW130696  11.970   2.328   4.601
42933SOL    HW230697  12.098   2.359   4.676
42934SOL     OW30698   6.559   4.719  11.487
42934SOL    HW130699   6.543   4.625  11.487
42934SOL    HW230700   6.594   4.738  11.575
42935SOL     OW30701   2.828  13.324  14.297
42935SOL    HW130702   2.794  13.333  14.386
42935SOL    HW230703   2.907  13.377  14.296
42936SOL     OW30704   0.190   5.564  13.916
42936SOL    HW130705   0.136   5.560  13.994
42936SOL    HW230706   0.278   5.585  13.948
42937SOL     OW30707  11.604   9.404   4.927
42937SOL    HW130708  11.660   9.477   4.954
42937SOL    HW230709  11.526   9.445   4.890
42938SOL     OW30710   7.211   6.715   8.064
42938SOL    HW130711   7.154   6.669   8.126
42938SOL    HW230712   7.275   6.649   8.038
42939SOL     OW30713   1.447   3.973  10.681
42939SOL    HW130714   1.530   3.984  10.727
42939SOL    HW230715   1.444   4.046  10.618
42940SOL     OW30716   6.502   1.014   2.637
42940SOL    HW130717   6.490   1.070   2.713
42940SOL    HW230718   6.563   0.946   2.666
42941SOL     OW30719   2.067  13.309   9.226
42941SOL    HW130720   2.114  13.375   9.279
42941SOL    HW230721   2.040  13.243   9.290
42942SOL     OW30722   3.060   2.856   7.696
42942SOL    HW130723   3.153   2.871   7.682
42942SOL    HW230724   3.031   2.811   7.617
42943SOL     OW30725   3.472   1.959  10.473
42943SOL    HW130726   3.462   1.946  10.567
42943SOL    HW230727   3.565   1.947  10.457
42944SOL     OW30728  11.005  13.360   3.136
42944SOL    HW130729  10.976  13.295   3.072
42944SOL    HW230730  11.088  13.326   3.168
42945SOL     OW30731   7.872   1.376   3.526
42945SOL    HW130732   7.818   1.353   3.602
42945SOL    HW230733   7.962   1.372   3.558
42946SOL     OW30734   2.051  10.840   8.877
42946SOL    HW130735   2.043  10.808   8.966
42946SOL    HW230736   2.142  10.869   8.870
42947SOL     OW30737  12.656   7.443   4.456
42947SOL    HW130738  12.686   7.374   4.397
42947SOL    HW230739  12.737   7.475   4.497
42948SOL     OW30740   9.726   7.389   5.076
42948SOL    HW130741   9.672   7.457   5.034
42948SOL    HW230742   9.738   7.323   5.008
42949SOL     OW30743   0.515   3.642   2.255
42949SOL    HW130744   0.544   3.703   2.187
42949SOL    HW230745   0.594   3.622   2.305
42950SOL     OW30746  12.320  14.563  10.575
42950SOL    HW130747  12.303  14.543  10.667
42950SOL    HW230748  12.368  14.646  10.577
42951SOL     OW30749   0.678  13.461   4.448
42951SOL    HW130750   0.600  13.422   4.489
42951SOL    HW230751   0.731  13.386   4.421
42952SOL     OW30752   0.963   5.706  12.769
42952SOL    HW130753   0.895   5.661  12.818
42952SOL    HW230754   0.926   5.792  12.750
42953SOL     OW30755  14.851   2.890   5.655
42953SOL    HW130756  14.823   2.812   5.607
42953SOL    HW230757  14.774   2.914   5.707
42954SOL     OW30758  14.574   0.046   5.299
42954SOL    HW130759  14.644   0.089   5.348
42954SOL    HW230760  14.524   0.118   5.260
42955SOL     OW30761   6.294  10.036   5.942
42955SOL    HW130762   6.331  10.108   5.890
42955SOL    HW230763   6.364  10.013   6.003
42956SOL     OW30764  14.737   2.401   8.586
42956SOL    HW130765  14.699   2.436   8.505
42956SOL    HW230766  14.669   2.414   8.652
42957SOL     OW30767   0.771  13.070  14.138
42957SOL    HW130768   0.800  13.076  14.047
42957SOL    HW230769   0.849  13.084  14.190
42958SOL     OW30770  11.405   0.763   7.951
42958SOL    HW130771  11.458   0.710   8.010
42958SOL    HW230772  11.315   0.736   7.970
42959SOL     OW30773  11.478   9.719  10.141
42959SOL    HW130774  11.474   9.658  10.214
42959SOL    HW230775  11.562   9.701  10.098
42960SOL     OW30776   7.465  14.807   8.181
42960SOL    HW130777   7.379  14.848   8.173
42960SOL    HW230778   7.519  14.874   8.223
42961SOL     OW30779   3.937   7.010  12.813
42961SOL    HW130780   3.988   7.024  12.893
42961SOL    HW230781   3.853   6.977  12.843
42962SOL     OW30782   6.718  11.255   1.399
42962SOL    HW130783   6.715  11.313   1.323
42962SOL    HW230784   6.797  11.203   1.386
42963SOL     OW30785   7.164  11.987  13.185
42963SOL    HW130786   7.254  11.972  13.214
42963SOL    HW230787   7.111  11.928  13.238
42964SOL     OW30788   8.348   3.270   2.600
42964SOL    HW130789   8.327   3.178   2.612
42964SOL    HW230790   8.312   3.292   2.514
42965SOL     OW30791   4.276  10.375  14.660
42965SOL    HW130792   4.357  10.379  14.609
42965SOL    HW230793   4.265  10.283  14.682
42966SOL     OW30794   3.411   6.750  13.845
42966SOL    HW130795   3.404   6.716  13.935
42966SOL    HW230796   3.504   6.740  13.823
42967SOL     OW30797   7.853   4.169   0.550
42967SOL    HW130798   7.913   4.119   0.495
42967SOL    HW230799   7.766   4.137   0.526
42968SOL     OW30800  13.500   6.586  13.698
42968SOL    HW130801  13.489   6.540  13.781
42968SOL    HW230802  13.519   6.517  13.635
42969SOL     OW30803  14.632   8.320   8.180
42969SOL    HW130804  14.538   8.307   8.164
42969SOL    HW230805  14.635   8.372   8.260
42970SOL     OW30806   3.663   6.247   4.767
42970SOL    HW130807   3.643   6.337   4.791
42970SOL    HW230808   3.577   6.205   4.758
42971SOL     OW30809   8.813   6.312   9.606
42971SOL    HW130810   8.804   6.361   9.688
42971SOL    HW230811   8.775   6.370   9.540
42972SOL     OW30812   4.325   9.659   5.248
42972SOL    HW130813   4.310   9.613   5.331
42972SOL    HW230814   4.244   9.708   5.232
42973SOL     OW30815  12.580   6.855  14.298
42973SOL    HW130816  12.636   6.844  14.222
42973SOL    HW230817  12.552   6.766  14.320
42974SOL     OW30818   6.499  10.836   8.038
42974SOL    HW130819   6.461  10.869   8.120
42974SOL    HW230820   6.593  10.853   8.048
42975SOL     OW30821   8.811   6.362  12.104
42975SOL    HW130822   8.757   6.304  12.158
42975SOL    HW230823   8.802   6.447  12.146
42976SOL     OW30824   7.980  14.776   7.381
42976SOL    HW130825   7.892  14.767   7.344
42976SOL    HW230826   8.011  14.686   7.390
42977SOL     OW30827  10.309  10.075   2.979
42977SOL    HW130828  10.373  10.106   3.043
42977SOL    HW230829  10.361  10.032   2.912
42978SOL     OW30830   1.958   6.788   7.489
42978SOL    HW130831   1.932   6.842   7.564
42978SOL    HW230832   1.925   6.701   7.511
42979SOL     OW30833  13.631   5.155  13.058
42979SOL    HW130834  13.563   5.169  12.993
42979SOL    HW230835  13.626   5.062  13.079
42980SOL     OW30836  10.855   2.143   6.452
42980SOL    HW130837  10.795   2.211   6.483
42980SOL    HW230838  10.797   2.074   6.418
42981SOL     OW30839   0.710   8.859  13.101
42981SOL    HW130840   0.615   8.872  13.106
42981SOL    HW230841   0.743   8.938  13.060
42982SOL     OW30842  13.086   7.444  10.819
42982SOL    HW130843  13.047   7.510  10.878
42982SOL    HW230844  13.042   7.363  10.843
42983SOL     OW30845   2.588   1.949   1.521
42983SOL    HW130846   2.660   2.012   1.514
42983SOL    HW230847   2.620   1.872   1.475
42984SOL     OW30848   7.387  10.299   7.971
42984SOL    HW130849   7.379  10.228   7.908
42984SOL    HW230850   7.440  10.366   7.926
42985SOL     OW30851  12.313  12.553   4.370
42985SOL    HW130852  12.242  12.610   4.342
42985SOL    HW230853  12.384  12.571   4.309
42986SOL     OW30854   5.636   3.024  13.834
42986SOL    HW130855   5.549   3.054  13.861
42986SOL    HW230856   5.695   3.092  13.866
42987SOL     OW30857   9.242   3.273   0.710
42987SOL    HW130858   9.246   3.321   0.627
42987SOL    HW230859   9.220   3.183   0.684
42988SOL     OW30860   7.403   6.647   7.025
42988SOL    HW130861   7.378   6.662   6.934
42988SOL    HW230862   7.412   6.552   7.032
42989SOL     OW30863   0.133   1.157   6.243
42989SOL    HW130864   0.045   1.191   6.259
42989SOL    HW230865   0.134   1.071   6.285
42990SOL     OW30866   2.015   1.545   0.889
42990SOL    HW130867   2.036   1.625   0.843
42990SOL    HW230868   1.928   1.559   0.925
42991SOL     OW30869   6.203   2.898   4.174
42991SOL    HW130870   6.196   2.991   4.196
42991SOL    HW230871   6.263   2.896   4.099
42992SOL     OW30872   7.063  11.089  10.555
42992SOL    HW130873   6.994  11.112  10.617
42992SOL    HW230874   7.138  11.142  10.582
42993SOL     OW30875   1.661  12.651   8.872
42993SOL    HW130876   1.600  12.576   8.873
42993SOL    HW230877   1.738  12.619   8.919
42994SOL     OW30878   6.266   2.675  13.958
42994SOL    HW130879   6.352   2.645  13.985
42994SOL    HW230880   6.211   2.596  13.964
42995SOL     OW30881   1.921   3.611   3.079
42995SOL    HW130882   2.009   3.589   3.049
42995SOL    HW230883   1.862   3.571   3.015
42996SOL     OW30884   4.961   3.185   8.001
42996SOL    HW130885   4.964   3.095   7.968
42996SOL    HW230886   4.938   3.175   8.094
42997SOL     OW30887   4.679   4.769   9.758
42997SOL    HW130888   4.639   4.733   9.679
42997SOL    HW230889   4.615   4.833   9.790
42998SOL     OW30890  14.357   5.852  13.175
42998SOL    HW130891  14.377   5.820  13.263
42998SOL    HW230892  14.270   5.892  13.183
42999SOL     OW30893  11.611  13.578   1.975
42999SOL    HW130894  11.640  13.577   2.066
42999SOL    HW230895  11.685  13.615   1.927
43000SOL     OW30896   8.462   2.522  14.089
43000SOL    HW130897   8.501   2.509  14.003
43000SOL    HW230898   8.395   2.454  14.096
43001SOL     OW30899   4.950   9.635   7.877
43001SOL    HW130900   5.032   9.624   7.924
43001SOL    HW230901   4.882   9.614   7.941
43002SOL     OW30902   9.334   5.551  14.009
43002SOL    HW130903   9.295   5.633  14.041
43002SOL    HW230904   9.389   5.578  13.936
43003SOL     OW30905   4.076   9.068  13.426
43003SOL    HW130906   4.031   9.150  13.409
43003SOL    HW230907   4.169   9.087  13.412
43004SOL     OW30908   7.336   0.269   2.339
43004SOL    HW130909   7.380   0.223   2.410
43004SOL    HW230910   7.263   0.315   2.382
43005SOL     OW30911   4.661  11.287   1.493
43005SOL    HW130912   4.703  11.202   1.485
43005SOL    HW230913   4.705  11.342   1.428
43006SOL     OW30914  11.660   0.499   0.478
43006SOL    HW130915  11.570   0.529   0.468
43006SOL    HW230916  11.713   0.567   0.435
43007SOL     OW30917  13.089   4.369   4.064
43007SOL    HW130918  13.171   4.328   4.037
43007SOL    HW230919  13.113   4.423   4.139
43008SOL     OW30920  10.920   1.157   4.570
43008SOL    HW130921  10.979   1.122   4.504
43008SOL    HW230922  10.857   1.209   4.521
43009SOL     OW30923   7.698  13.030   5.373
43009SOL    HW130924   7.681  13.102   5.313
43009SOL    HW230925   7.612  13.006   5.406
43010SOL     OW30926  11.953   1.583  12.984
43010SOL    HW130927  11.989   1.668  13.008
43010SOL    HW230928  11.997   1.520  13.041
43011SOL     OW30929  12.694   4.527   5.265
43011SOL    HW130930  12.764   4.463   5.278
43011SOL    HW230931  12.624   4.499   5.324
43012SOL     OW30932  11.402  11.090   3.329
43012SOL    HW130933  11.377  11.004   3.361
43012SOL    HW230934  11.419  11.077   3.235
43013SOL     OW30935   1.381   4.836  13.899
43013SOL    HW130936   1.410   4.851  13.989
43013SOL    HW230937   1.393   4.742  13.885
43014SOL     OW30938   6.033  14.714   7.440
43014SOL    HW130939   5.993  14.800   7.426
43014SOL    HW230940   5.999  14.685   7.525
43015SOL     OW30941   2.160   0.561  12.480
43015SOL    HW130942   2.252   0.535  12.473
43015SOL    HW230943   2.114   0.503  12.420
43016SOL     OW30944   9.927  14.034   7.929
43016SOL    HW130945   9.947  14.027   7.836
43016SOL    HW230946   9.849  14.089   7.932
43017SOL     OW30947   3.114   8.973   3.157
43017SOL    HW130948   3.159   8.925   3.227
43017SOL    HW230949   3.168   8.957   3.080
43018SOL     OW30950   0.117   0.515  11.672
43018SOL    HW130951   0.048   0.456  11.642
43018SOL    HW230952   0.077   0.562  11.745
43019SOL     OW30953   9.549   7.445   8.067
43019SOL    HW130954   9.586   7.429   7.980
43019SOL    HW230955   9.487   7.517   8.053
43020SOL     OW30956   0.380   3.577   0.185
43020SOL    HW130957   0.384   3.546   0.275
43020SOL    HW230958   0.296   3.624   0.180
43021SOL     OW30959   7.128  13.531   6.283
43021SOL    HW130960   7.205  13.482   6.311
43021SOL    HW230961   7.117  13.597   6.351
43022SOL     OW30962   8.846   8.063   7.970
43022SOL    HW130963   8.779   8.122   7.937
43022SOL    HW230964   8.913   8.121   8.006
43023SOL     OW30965   3.235   9.063   5.083
43023SOL    HW130966   3.144   9.061   5.055
43023SOL    HW230967   3.241   9.139   5.141
43024SOL     OW30968  13.288   1.217   6.326
43024SOL    HW130969  13.289   1.213   6.422
43024SOL    HW230970  13.341   1.143   6.298
43025SOL     OW30971   7.082   7.587  11.595
43025SOL    HW130972   7.083   7.667  11.648
43025SOL    HW230973   7.008   7.537  11.628
43026SOL     OW30974   7.138  10.987   2.829
43026SOL    HW130975   7.145  11.081   2.811
43026SOL    HW230976   7.173  10.977   2.918
43027SOL     OW30977   7.045   9.652   4.312
43027SOL    HW130978   7.024   9.716   4.244
43027SOL    HW230979   6.973   9.590   4.310
43028SOL     OW30980   1.875   8.559   9.243
43028SOL    HW130981   1.962   8.585   9.274
43028SOL    HW230982   1.886   8.547   9.148
43029SOL     OW30983   7.390  10.813  14.284
43029SOL    HW130984   7.473  10.768  14.300
43029SOL    HW230985   7.414  10.906  14.277
43030SOL     OW30986   2.316   0.223   5.962
43030SOL    HW130987   2.349   0.194   5.877
43030SOL    HW230988   2.221   0.209   5.957
43031SOL     OW30989   3.470   9.114   5.347
43031SOL    HW130990   3.435   9.052   5.411
43031SOL    HW230991   3.551   9.146   5.387
43032SOL     OW30992   6.491  10.403   7.467
43032SOL    HW130993   6.475  10.450   7.549
43032SOL    HW230994   6.585  10.388   7.466
43033SOL     OW30995   8.010  14.297   4.367
43033SOL    HW130996   7.929  14.342   4.343
43033SOL    HW230997   8.053  14.280   4.283
43034SOL     OW30998   5.995   3.965   0.457
43034SOL    HW130999   6.082   3.956   0.420
43034SOL    HW231000   5.944   4.008   0.389
43035SOL     OW31001   8.501   7.669   5.204
43035SOL    HW131002   8.419   7.626   5.180
43035SOL    HW231003   8.551   7.602   5.251
43036SOL     OW31004   8.961   5.698   2.052
43036SOL    HW131005   8.951   5.756   1.976
43036SOL    HW231006   9.038   5.731   2.097
43037SOL     OW31007   6.519   6.171  10.122
43037SOL    HW131008   6.594   6.194  10.067
43037SOL    HW231009   6.491   6.255  10.160
43038SOL     OW31010   2.844  11.315   8.396
43038SOL    HW131011   2.772  11.375   8.377
43038SOL    HW231012   2.900  11.318   8.318
43039SOL     OW31013   2.474  12.313  14.745
43039SOL    HW131014   2.510  12.380  14.804
43039SOL    HW231015   2.383  12.302  14.774
43040SOL     OW31016   3.968   6.911   1.582
43040SOL    HW131017   3.879   6.939   1.560
43040SOL    HW231018   3.969   6.817   1.563
43041SOL     OW31019   7.409   8.961   0.311
43041SOL    HW131020   7.324   8.972   0.269
43041SOL    HW231021   7.429   8.868   0.301
43042SOL     OW31022  10.654  12.291   3.740
43042SOL    HW131023  10.593  12.220   3.718
43042SOL    HW231024  10.605  12.345   3.802
43043SOL     OW31025   0.539   4.330  13.732
43043SOL    HW131026   0.529   4.424  13.742
43043SOL    HW231027   0.454   4.293  13.754
43044SOL     OW31028   2.720   4.315   5.177
43044SOL    HW131029   2.666   4.236   5.168
43044SOL    HW231030   2.741   4.340   5.087
43045SOL     OW31031   5.316   0.716   2.078
43045SOL    HW131032   5.338   0.730   1.986
43045SOL    HW231033   5.370   0.641   2.104
43046SOL     OW31034   0.806  13.268   6.870
43046SOL    HW131035   0.778  13.183   6.836
43046SOL    HW231036   0.754  13.332   6.822
43047SOL     OW31037   4.394   5.753  14.216
43047SOL    HW131038   4.393   5.848  14.207
43047SOL    HW231039   4.310   5.732  14.256
43048SOL     OW31040   3.135   1.815  11.005
43048SOL    HW131041   3.097   1.728  11.011
43048SOL    HW231042   3.103   1.861  11.083
43049SOL     OW31043   7.135  10.137   3.278
43049SOL    HW131044   7.050  10.105   3.311
43049SOL    HW231045   7.147  10.091   3.195
43050SOL     OW31046   7.165   1.319  14.537
43050SOL    HW131047   7.075   1.331  14.507
43050SOL    HW231048   7.164   1.351  14.627
43051SOL     OW31049   5.393   4.151   3.927
43051SOL    HW131050   5.301   4.173   3.913
43051SOL    HW231051   5.441   4.225   3.890
43052SOL     OW31052   3.832  12.757  10.259
43052SOL    HW131053   3.882  12.813  10.199
43052SOL    HW231054   3.897  12.728  10.323
43053SOL     OW31055   8.598   7.588  14.803
43053SOL    HW131056   8.689   7.603  14.776
43053SOL    HW231057   8.571   7.511  14.754
43054SOL     OW31058  11.617   9.396  11.928
43054SOL    HW131059  11.702   9.370  11.963
43054SOL    HW231060  11.555   9.372  11.997
43055SOL     OW31061   4.500  12.173  14.144
43055SOL    HW131062   4.481  12.148  14.234
43055SOL    HW231063   4.426  12.140  14.094
43056SOL     OW31064  10.176   2.323  10.371
43056SOL    HW131065  10.091   2.358  10.399
43056SOL    HW231066  10.208   2.386  10.307
43057SOL     OW31067   9.173   5.304   3.194
43057SOL    HW131068   9.250   5.348   3.230
43057SOL    HW231069   9.129   5.266   3.271
43058SOL     OW31070  13.642  10.806  11.967
43058SOL    HW131071  13.650  10.815  12.062
43058SOL    HW231072  13.717  10.854  11.932
43059SOL     OW31073  12.659   5.372   0.888
43059SOL    HW131074  12.646   5.280   0.864
43059SOL    HW231075  12.753   5.385   0.883
43060SOL     OW31076  13.469   4.571  12.682
43060SOL    HW131077  13.531   4.559  12.754
43060SOL    HW231078  13.492   4.656  12.644
43061SOL     OW31079   0.273   2.724   1.315
43061SOL    HW131080   0.318   2.669   1.379
43061SOL    HW231081   0.222   2.662   1.262
43062SOL     OW31082   1.422   2.788   0.372
43062SOL    HW131083   1.369   2.853   0.418
43062SOL    HW231084   1.383   2.704   0.397
43063SOL     OW31085   0.796   7.675   0.733
43063SOL    HW131086   0.826   7.587   0.758
43063SOL    HW231087   0.749   7.660   0.651
43064SOL     OW31088   7.236  10.433   7.699
43064SOL    HW131089   7.168  10.382   7.743
43064SOL    HW231090   7.283  10.369   7.646
43065SOL     OW31091   1.856   4.354   7.414
43065SOL    HW131092   1.788   4.378   7.352
43065SOL    HW231093   1.808   4.333   7.495
43066SOL     OW31094   9.039   0.762   8.396
43066SOL    HW131095   9.016   0.834   8.454
43066SOL    HW231096   9.068   0.803   8.315
43067SOL     OW31097   9.105   8.702   3.231
43067SOL    HW131098   9.026   8.708   3.178
43067SOL    HW231099   9.076   8.717   3.320
43068SOL     OW31100   1.503   6.585   9.309
43068SOL    HW131101   1.471   6.502   9.275
43068SOL    HW231102   1.426   6.642   9.311
43069SOL     OW31103   9.983   0.523  11.972
43069SOL    HW131104  10.043   0.473  11.917
43069SOL    HW231105   9.978   0.609  11.930
43070SOL     OW31106  10.918   7.842   2.932
43070SOL    HW131107  10.851   7.863   2.997
43070SOL    HW231108  10.894   7.755   2.901
43071SOL     OW31109  12.313  14.333   4.384
43071SOL    HW131110  12.277  14.250   4.414
43071SOL    HW231111  12.296  14.394   4.456
43072SOL     OW31112   7.136   9.208  11.060
43072SOL    HW131113   7.168   9.189  10.972
43072SOL    HW231114   7.040   9.202  11.053
43073SOL     OW31115   1.095   3.540   4.404
43073SOL    HW131116   1.172   3.512   4.454
43073SOL    HW231117   1.111   3.633   4.386
43074SOL     OW31118  13.433  11.374   6.599
43074SOL    HW131119  13.506  11.416   6.646
43074SOL    HW231120  13.387  11.325   6.666
43075SOL     OW31121   1.275  12.200  12.621
43075SOL    HW131122   1.217  12.134  12.659
43075SOL    HW231123   1.306  12.251  12.696
43076SOL     OW31124   4.407  11.457   0.086
43076SOL    HW131125   4.367  11.500   0.011
43076SOL    HW231126   4.483  11.412   0.050
43077SOL     OW31127  13.700   5.471   6.410
43077SOL    HW131128  13.635   5.453   6.477
43077SOL    HW231129  13.776   5.503   6.459
43078SOL     OW31130   7.105   2.665   9.651
43078SOL    HW131131   7.042   2.630   9.589
43078SOL    HW231132   7.100   2.606   9.726
43079SOL     OW31133   7.379   4.229   2.464
43079SOL    HW131134   7.288   4.250   2.485
43079SOL    HW231135   7.378   4.201   2.373
43080SOL     OW31136   6.175  12.331   7.058
43080SOL    HW131137   6.237  12.390   7.101
43080SOL    HW231138   6.094  12.381   7.052
43081SOL     OW31139   1.553   9.938   1.949
43081SOL    HW131140   1.480   9.931   2.011
43081SOL    HW231141   1.553   9.854   1.903
43082SOL     OW31142  10.599   0.570   6.924
43082SOL    HW131143  10.582   0.659   6.894
43082SOL    HW231144  10.619   0.579   7.017
43083SOL     OW31145  14.029  13.749  11.767
43083SOL    HW131146  14.027  13.812  11.696
43083SOL    HW231147  14.094  13.684  11.739
43084SOL     OW31148   9.952  14.797  14.409
43084SOL    HW131149  10.018  14.856  14.446
43084SOL    HW231150   9.871  14.822  14.453
43085SOL     OW31151  11.306  12.343   1.253
43085SOL    HW131152  11.330  12.357   1.162
43085SOL    HW231153  11.387  12.318   1.297
43086SOL     OW31154   9.930   9.004  13.952
43086SOL    HW131155   9.870   8.932  13.930
43086SOL    HW231156   9.881   9.058  14.013
43087SOL     OW31157   6.872  12.284   9.299
43087SOL    HW131158   6.790  12.294   9.348
43087SOL    HW231159   6.940  12.282   9.366
43088SOL     OW31160   7.386  11.127  12.950
43088SOL    HW131161   7.457  11.065  12.932
43088SOL    HW231162   7.375  11.175  12.868
43089SOL     OW31163   9.741   0.410   9.542
43089SOL    HW131164   9.749   0.369   9.455
43089SOL    HW231165   9.718   0.501   9.523
43090SOL     OW31166   1.968   9.389   4.359
43090SOL    HW131167   2.024   9.462   4.387
43090SOL    HW231168   2.000   9.314   4.408
43091SOL     OW31169   6.085   1.650   0.865
43091SOL    HW131170   6.071   1.627   0.956
43091SOL    HW231171   6.129   1.572   0.828
43092SOL     OW31172   4.463  14.315   3.595
43092SOL    HW131173   4.515  14.246   3.635
43092SOL    HW231174   4.378  14.309   3.639
43093SOL     OW31175   8.663  14.466   3.764
43093SOL    HW131176   8.577  14.439   3.734
43093SOL    HW231177   8.724  14.409   3.717
43094SOL     OW31178   7.816   7.441   3.649
43094SOL    HW131179   7.722   7.458   3.653
43094SOL    HW231180   7.829   7.363   3.704
43095SOL     OW31181   7.693  11.796  11.171
43095SOL    HW131182   7.780  11.834  11.155
43095SOL    HW231183   7.677  11.812  11.264
43096SOL     OW31184   2.331   2.690  13.389
43096SOL    HW131185   2.367   2.644  13.465
43096SOL    HW231186   2.387   2.662  13.316
43097SOL     OW31187   9.750  13.377   4.781
43097SOL    HW131188   9.727  13.289   4.750
43097SOL    HW231189   9.810  13.361   4.854
43098SOL     OW31190   8.405   3.296   4.518
43098SOL    HW131191   8.375   3.334   4.601
43098SOL    HW231192   8.328   3.296   4.462
43099SOL     OW31193   8.101  14.136   6.736
43099SOL    HW131194   8.161  14.204   6.767
43099SOL    HW231195   8.156  14.058   6.727
43100SOL     OW31196   6.614  12.899   6.236
43100SOL    HW131197   6.650  12.935   6.317
43100SOL    HW231198   6.521  12.919   6.239
43101SOL     OW31199   0.891  10.042   8.287
43101SOL    HW131200   0.896  10.106   8.216
43101SOL    HW231201   0.923  10.089   8.364
43102SOL     OW31202  11.084   2.953   2.844
43102SOL    HW131203  11.069   2.934   2.752
43102SOL    HW231204  11.019   2.900   2.891
43103SOL     OW31205   7.597  14.392  14.429
43103SOL    HW131206   7.546  14.320  14.392
43103SOL    HW231207   7.688  14.364  14.420
43104SOL     OW31208   2.767   4.122   7.332
43104SOL    HW131209   2.799   4.076   7.254
43104SOL    HW231210   2.836   4.110   7.397
43105SOL     OW31211   9.150   8.146   1.495
43105SOL    HW131212   9.114   8.232   1.470
43105SOL    HW231213   9.092   8.083   1.454
43106SOL     OW31214   1.883   2.101   7.162
43106SOL    HW131215   1.929   2.042   7.102
43106SOL    HW231216   1.819   2.146   7.106
43107SOL     OW31217   2.556  11.497   7.880
43107SOL    HW131218   2.604  11.578   7.865
43107SOL    HW231219   2.469  11.525   7.909
43108SOL     OW31220   7.462  12.352  12.903
43108SOL    HW131221   7.398  12.339  12.833
43108SOL    HW231222   7.543  12.376  12.857
43109SOL     OW31223  14.310   4.157   3.296
43109SOL    HW131224  14.278   4.235   3.342
43109SOL    HW231225  14.232   4.111   3.268
43110SOL     OW31226   2.989   1.937  13.002
43110SOL    HW131227   3.020   1.958  12.914
43110SOL    HW231228   3.033   1.855  13.024
43111SOL     OW31229   5.665  11.236  13.462
43111SOL    HW131230   5.742  11.187  13.433
43111SOL    HW231231   5.625  11.268  13.381
43112SOL     OW31232   2.476   8.286  14.833
43112SOL    HW131233   2.478   8.311  14.741
43112SOL    HW231234   2.400   8.332  14.869
43113SOL     OW31235   7.013  12.162  12.514
43113SOL    HW131236   7.008  12.202  12.601
43113SOL    HW231237   7.073  12.219  12.466
43114SOL     OW31238   3.463  11.685   2.803
43114SOL    HW131239   3.454  11.748   2.874
43114SOL    HW231240   3.551  11.700   2.769
43115SOL     OW31241  13.805   2.697  14.228
43115SOL    HW131242  13.834   2.696  14.319
43115SOL    HW231243  13.756   2.616  14.217
43116SOL     OW31244  10.053  13.121   5.977
43116SOL    HW131245   9.982  13.184   5.963
43116SOL    HW231246  10.063  13.077   5.892
43117SOL     OW31247   9.306   2.855  11.688
43117SOL    HW131248   9.239   2.921  11.668
43117SOL    HW231249   9.388   2.905  11.692
43118SOL     OW31250   5.259   7.570   3.640
43118SOL    HW131251   5.207   7.496   3.608
43118SOL    HW231252   5.232   7.580   3.732
43119SOL     OW31253   1.822   9.997   2.290
43119SOL    HW131254   1.847  10.053   2.217
43119SOL    HW231255   1.905   9.963   2.323
43120SOL     OW31256   6.336   6.312   2.889
43120SOL    HW131257   6.424   6.274   2.894
43120SOL    HW231258   6.331   6.369   2.966
43121SOL     OW31259   3.732  11.758   1.573
43121SOL    HW131260   3.798  11.726   1.635
43121SOL    HW231261   3.758  11.849   1.556
43122SOL     OW31262   5.460  10.746  13.684
43122SOL    HW131263   5.504  10.829  13.669
43122SOL    HW231264   5.366  10.767  13.679
43123SOL     OW31265   6.159   9.990   4.249
43123SOL    HW131266   6.198  10.074   4.225
43123SOL    HW231267   6.168   9.987   4.344
43124SOL     OW31268   5.052  12.059   5.363
43124SOL    HW131269   5.123  12.121   5.344
43124SOL    HW231270   5.086  12.004   5.434
43125SOL     OW31271   4.799   5.819  11.651
43125SOL    HW131272   4.776   5.909  11.672
43125SOL    HW231273   4.716   5.772  11.652
43126SOL     OW31274   3.832   5.559  13.322
43126SOL    HW131275   3.839   5.654  13.314
43126SOL    HW231276   3.894   5.536  13.391
43127SOL     OW31277   2.557   9.117   7.823
43127SOL    HW131278   2.615   9.142   7.894
43127SOL    HW231279   2.575   9.024   7.809
43128SOL     OW31280  14.038  11.965  12.898
43128SOL    HW131281  14.097  11.917  12.839
43128SOL    HW231282  14.096  12.016  12.954
43129SOL     OW31283  10.656  12.808  10.055
43129SOL    HW131284  10.749  12.803  10.078
43129SOL    HW231285  10.656  12.846   9.967
43130SOL     OW31286  14.144  11.349   3.421
43130SOL    HW131287  14.176  11.423   3.370
43130SOL    HW231288  14.183  11.361   3.508
43131SOL     OW31289  12.779  11.354   8.214
43131SOL    HW131290  12.821  11.344   8.300
43131SOL    HW231291  12.789  11.447   8.194
43132SOL     OW31292  10.151   7.334   6.178
43132SOL    HW131293  10.216   7.294   6.121
43132SOL    HW231294  10.202   7.375   6.247
43133SOL     OW31295   2.235   7.365   0.003
43133SOL    HW131296   2.306   7.309   0.036
43133SOL    HW231297   2.230   7.437   0.066
43134SOL     OW31298  12.336   1.233  13.480
43134SOL    HW131299  12.374   1.296  13.418
43134SOL    HW231300  12.297   1.288  13.548
43135SOL     OW31301   5.891  11.520   1.261
43135SOL    HW131302   5.841  11.474   1.194
43135SOL    HW231303   5.913  11.604   1.222
43136SOL     OW31304   1.562   2.722  11.222
43136SOL    HW131305   1.560   2.667  11.144
43136SOL    HW231306   1.564   2.811  11.189
43137SOL     OW31307   6.998   7.345   0.291
43137SOL    HW131308   7.060   7.288   0.247
43137SOL    HW231309   6.912   7.304   0.274
43138SOL     OW31310   1.961   1.105   6.491
43138SOL    HW131311   1.999   1.084   6.405
43138SOL    HW231312   1.957   1.022   6.537
43139SOL     OW31313   1.565  14.205   1.608
43139SOL    HW131314   1.471  14.187   1.608
43139SOL    HW231315   1.584  14.235   1.520
43140SOL     OW31316   3.621   6.312  10.083
43140SOL    HW131317   3.547   6.265  10.121
43140SOL    HW231318   3.659   6.360  10.157
43141SOL     OW31319   2.125   2.140  12.624
43141SOL    HW131320   2.129   2.167  12.716
43141SOL    HW231321   2.053   2.192  12.587
43142SOL     OW31322  10.649   3.728   7.770
43142SOL    HW131323  10.604   3.705   7.689
43142SOL    HW231324  10.611   3.670   7.836
43143SOL     OW31325  12.179   5.911  10.025
43143SOL    HW131326  12.156   6.003  10.013
43143SOL    HW231327  12.139   5.887  10.109
43144SOL     OW31328   3.104   7.953  10.336
43144SOL    HW131329   3.009   7.942  10.337
43144SOL    HW231330   3.117   8.048  10.340
43145SOL     OW31331   3.591   1.264  12.155
43145SOL    HW131332   3.540   1.281  12.234
43145SOL    HW231333   3.629   1.177  12.169
43146SOL     OW31334   5.705  13.460  12.521
43146SOL    HW131335   5.755  13.461  12.603
43146SOL    HW231336   5.615  13.445  12.549
43147SOL     OW31337  10.207  10.397   1.147
43147SOL    HW131338  10.168  10.480   1.173
43147SOL    HW231339  10.278  10.383   1.210
43148SOL     OW31340   2.983   2.723  12.510
43148SOL    HW131341   2.971   2.801  12.455
43148SOL    HW231342   2.906   2.722  12.567
43149SOL     OW31343  11.136  13.962   6.910
43149SOL    HW131344  11.119  14.055   6.922
43149SOL    HW231345  11.189  13.957   6.830
43150SOL     OW31346   5.996   2.371   8.292
43150SOL    HW131347   5.965   2.383   8.202
43150SOL    HW231348   5.984   2.456   8.334
43151SOL     OW31349   0.199   1.913  14.022
43151SOL    HW131350   0.120   1.925  14.075
43151SOL    HW231351   0.271   1.914  14.085
43152SOL     OW31352   9.504  13.777  12.492
43152SOL    HW131353   9.536  13.694  12.458
43152SOL    HW231354   9.583  13.827  12.512
43153SOL     OW31355   6.143  13.224   8.831
43153SOL    HW131356   6.130  13.312   8.796
43153SOL    HW231357   6.055  13.196   8.858
43154SOL     OW31358   5.688   3.752   2.487
43154SOL    HW131359   5.776   3.734   2.455
43154SOL    HW231360   5.690   3.845   2.512
43155SOL     OW31361   1.390   7.271  10.179
43155SOL    HW131362   1.485   7.280  10.177
43155SOL    HW231363   1.362   7.290  10.089
43156SOL     OW31364   5.418   6.082   6.247
43156SOL    HW131365   5.379   6.008   6.295
43156SOL    HW231366   5.393   6.067   6.156
43157SOL     OW31367   3.561   9.713   5.473
43157SOL    HW131368   3.528   9.803   5.481
43157SOL    HW231369   3.641   9.713   5.527
43158SOL     OW31370   3.584  13.591   7.140
43158SOL    HW131371   3.631  13.534   7.079
43158SOL    HW231372   3.553  13.532   7.209
43159SOL     OW31373   4.803   1.749   5.769
43159SOL    HW131374   4.865   1.752   5.696
43159SOL    HW231375   4.857   1.760   5.847
43160SOL     OW31376   6.350   7.362  14.307
43160SOL    HW131377   6.355   7.429  14.376
43160SOL    HW231378   6.435   7.367  14.263
43161SOL     OW31379   9.186   3.465   3.066
43161SOL    HW131380   9.273   3.432   3.088
43161SOL    HW231381   9.170   3.534   3.129
43162SOL     OW31382   2.982   1.509   5.379
43162SOL    HW131383   2.940   1.557   5.450
43162SOL    HW231384   2.910   1.487   5.320
43163SOL     OW31385   5.898   0.836  10.098
43163SOL    HW131386   5.827   0.772  10.097
43163SOL    HW231387   5.858   0.916  10.132
43164SOL     OW31388   2.785   4.861   1.525
43164SOL    HW131389   2.866   4.909   1.543
43164SOL    HW231390   2.730   4.878   1.602
43165SOL     OW31391   6.598   5.147  10.770
43165SOL    HW131392   6.602   5.208  10.844
43165SOL    HW231393   6.690   5.132  10.747
43166SOL     OW31394   7.147   7.044  12.552
43166SOL    HW131395   7.194   6.977  12.601
43166SOL    HW231396   7.121   7.108  12.619
43167SOL     OW31397   0.283   7.775   0.012
43167SOL    HW131398   0.198   7.797  14.854
43167SOL    HW231399   0.335   7.854   0.003
43168SOL     OW31400  10.048   5.080   6.212
43168SOL    HW131401  10.121   5.088   6.273
43168SOL    HW231402  10.086   5.097   6.126
43169SOL     OW31403   0.938   7.768   4.001
43169SOL    HW131404   0.842   7.773   3.995
43169SOL    HW231405   0.954   7.731   4.088
43170SOL     OW31406   0.997   7.239  13.248
43170SOL    HW131407   0.944   7.177  13.297
43170SOL    HW231408   1.016   7.309  13.311
43171SOL     OW31409  13.317  14.785   7.002
43171SOL    HW131410  13.305  14.692   7.021
43171SOL    HW231411  13.255  14.829   7.059
43172SOL     OW31412  11.528  11.949  10.023
43172SOL    HW131413  11.573  12.023  10.064
43172SOL    HW231414  11.554  11.873  10.075
43173SOL     OW31415   4.573  14.099   2.678
43173SOL    HW131416   4.540  14.106   2.589
43173SOL    HW231417   4.570  14.188   2.712
43174SOL     OW31418   1.721  11.242   9.747
43174SOL    HW131419   1.783  11.285   9.688
43174SOL    HW231420   1.715  11.302   9.822
43175SOL     OW31421   5.017   0.055  12.796
43175SOL    HW131422   4.967   0.136  12.801
43175SOL    HW231423   4.980  14.877  12.865
43176SOL     OW31424   6.051   0.855   9.906
43176SOL    HW131425   6.009   0.901   9.833
43176SOL    HW231426   5.983   0.847   9.972
43177SOL     OW31427  11.040   1.722  11.423
43177SOL    HW131428  11.043   1.767  11.339
43177SOL    HW231429  10.949   1.693  11.432
43178SOL     OW31430   9.579   0.058   0.231
43178SOL    HW131431   9.607   0.125   0.293
43178SOL    HW231432   9.651  14.873   0.227
43179SOL     OW31433   8.040  10.574   5.602
43179SOL    HW131434   8.009  10.655   5.643
43179SOL    HW231435   8.065  10.518   5.675
43180SOL     OW31436   5.713  11.140   3.825
43180SOL    HW131437   5.719  11.144   3.920
43180SOL    HW231438   5.649  11.072   3.807
43181SOL     OW31439  11.153   9.358   8.204
43181SOL    HW131440  11.097   9.308   8.264
43181SOL    HW231441  11.229   9.383   8.257
43182SOL     OW31442   0.874   4.936  10.744
43182SOL    HW131443   0.785   4.973  10.749
43182SOL    HW231444   0.931   5.009  10.769
43183SOL     OW31445  13.728  11.047   1.976
43183SOL    HW131446  13.687  11.091   1.902
43183SOL    HW231447  13.802  11.104   2.000
43184SOL     OW31448   0.460  12.070  11.460
43184SOL    HW131449   0.534  12.053  11.401
43184SOL    HW231450   0.445  11.987  11.506
43185SOL     OW31451   2.834   1.432  13.873
43185SOL    HW131452   2.742   1.427  13.848
43185SOL    HW231453   2.874   1.355  13.833
43186SOL     OW31454  14.757   5.146   4.942
43186SOL    HW131455  14.819   5.095   4.891
43186SOL    HW231456  14.778   5.126   5.033
43187SOL     OW31457  12.968  10.963   7.603
43187SOL    HW131458  13.047  10.997   7.644
43187SOL    HW231459  12.951  10.880   7.648
43188SOL     OW31460   4.366   0.165   0.944
43188SOL    HW131461   4.413   0.107   1.004
43188SOL    HW231462   4.432   0.229   0.917
43189SOL     OW31463  14.425   2.777  14.621
43189SOL    HW131464  14.494   2.812  14.677
43189SOL    HW231465  14.351   2.837  14.634
43190SOL     OW31466   0.599  10.452  13.923
43190SOL    HW131467   0.621  10.453  14.016
43190SOL    HW231468   0.511  10.489  13.919
43191SOL     OW31469   0.592   1.244   3.517
43191SOL    HW131470   0.530   1.175   3.496
43191SOL    HW231471   0.678   1.203   3.509
43192SOL     OW31472   8.046   1.883   4.660
43192SOL    HW131473   8.067   1.805   4.608
43192SOL    HW231474   8.111   1.883   4.730
43193SOL     OW31475   2.942   6.791   1.542
43193SOL    HW131476   2.985   6.802   1.457
43193SOL    HW231477   2.972   6.865   1.594
43194SOL     OW31478   4.809  13.935   2.671
43194SOL    HW131479   4.757  14.015   2.671
43194SOL    HW231480   4.897  13.963   2.696
43195SOL     OW31481  14.679   2.883   1.245
43195SOL    HW131482  14.716   2.798   1.270
43195SOL    HW231483  14.684   2.936   1.324
43196SOL     OW31484   1.697   9.841  11.462
43196SOL    HW131485   1.633   9.804  11.522
43196SOL    HW231486   1.781   9.829  11.507
43197SOL     OW31487  12.601  13.289   8.681
43197SOL    HW131488  12.649  13.354   8.732
43197SOL    HW231489  12.535  13.340   8.634
43198SOL     OW31490  13.840   1.729   3.170
43198SOL    HW131491  13.766   1.735   3.230
43198SOL    HW231492  13.824   1.797   3.105
43199SOL     OW31493  12.450   2.903   9.595
43199SOL    HW131494  12.406   2.988   9.599
43199SOL    HW231495  12.384   2.841   9.627
43200SOL     OW31496  10.535  10.867  10.228
43200SOL    HW131497  10.483  10.880  10.307
43200SOL    HW231498  10.625  10.889  10.254
43201SOL     OW31499   5.547   8.144  12.392
43201SOL    HW131500   5.480   8.088  12.432
43201SOL    HW231501   5.599   8.176  12.466
43202SOL     OW31502  10.222   1.641   6.317
43202SOL    HW131503  10.169   1.620   6.240
43202SOL    HW231504  10.163   1.690   6.374
43203SOL     OW31505   1.650  12.439  14.700
43203SOL    HW131506   1.710  12.366  14.691
43203SOL    HW231507   1.693  12.498  14.762
43204SOL     OW31508  11.840   1.379  10.532
43204SOL    HW131509  11.793   1.435  10.593
43204SOL    HW231510  11.803   1.398  10.446
43205SOL     OW31511  12.373   4.313  12.304
43205SOL    HW131512  12.337   4.246  12.363
43205SOL    HW231513  12.307   4.381  12.302
43206SOL     OW31514   9.977   8.572  11.427
43206SOL    HW131515   9.987   8.529  11.512
43206SOL    HW231516   9.890   8.544  11.396
43207SOL     OW31517  14.467   8.476  13.576
43207SOL    HW131518  14.530   8.541  13.542
43207SOL    HW231519  14.414   8.452  13.500
43208SOL     OW31520   1.006  13.158   1.259
43208SOL    HW131521   0.966  13.149   1.345
43208SOL    HW231522   0.964  13.236   1.221
43209SOL     OW31523   4.760  14.236   7.476
43209SOL    HW131524   4.669  14.222   7.448
43209SOL    HW231525   4.811  14.225   7.395
43210SOL     OW31526   4.767  13.058   7.044
43210SOL    HW131527   4.860  13.034   7.045
43210SOL    HW231528   4.749  13.075   6.951
43211SOL     OW31529  10.235   3.258   9.387
43211SOL    HW131530  10.160   3.267   9.444
43211SOL    HW231531  10.214   3.311   9.310
43212SOL     OW31532  14.131   1.817  12.210
43212SOL    HW131533  14.096   1.898  12.174
43212SOL    HW231534  14.090   1.748  12.158
43213SOL     OW31535  13.979  13.829  13.548
43213SOL    HW131536  13.925  13.833  13.627
43213SOL    HW231537  14.044  13.762  13.566
43214SOL     OW31538   1.139   1.724   0.195
43214SOL    HW131539   1.163   1.799   0.141
43214SOL    HW231540   1.183   1.740   0.279
43215SOL     OW31541   4.462  13.889   2.016
43215SOL    HW131542   4.416  13.942   1.952
43215SOL    HW231543   4.461  13.941   2.096
43216SOL     OW31544   4.095   7.639  13.288
43216SOL    HW131545   4.182   7.676  13.281
43216SOL    HW231546   4.040   7.695  13.232
43217SOL     OW31547   3.686  13.427   8.357
43217SOL    HW131548   3.748  13.491   8.392
43217SOL    HW231549   3.656  13.378   8.434
43218SOL     OW31550   3.931   0.159   0.016
43218SOL    HW131551   3.973   0.232   0.061
43218SOL    HW231552   3.959   0.168  14.802
43219SOL     OW31553   4.168   3.418  14.360
43219SOL    HW131554   4.078   3.410  14.393
43219SOL    HW231555   4.195   3.328  14.340
43220SOL     OW31556   3.090  12.172  12.700
43220SOL    HW131557   3.085  12.246  12.640
43220SOL    HW231558   3.036  12.198  12.775
43221SOL     OW31559   7.502   5.151   4.512
43221SOL    HW131560   7.543   5.235   4.533
43221SOL    HW231561   7.414   5.158   4.549
43222SOL     OW31562   0.807   3.710   2.383
43222SOL    HW131563   0.779   3.789   2.336
43222SOL    HW231564   0.813   3.642   2.316
43223SOL     OW31565   6.918   6.748   6.216
43223SOL    HW131566   6.917   6.691   6.293
43223SOL    HW231567   6.938   6.689   6.143
43224SOL     OW31568   8.175   8.939  10.973
43224SOL    HW131569   8.108   8.877  11.001
43224SOL    HW231570   8.214   8.899  10.895
43225SOL     OW31571   5.181  14.719  13.752
43225SOL    HW131572   5.247  14.649  13.749
43225SOL    HW231573   5.122  14.694  13.823
43226SOL     OW31574   6.142   7.036   7.676
43226SOL    HW131575   6.086   7.053   7.752
43226SOL    HW231576   6.195   6.961   7.701
43227SOL     OW31577  10.911  10.461   7.818
43227SOL    HW131578  10.895  10.387   7.877
43227SOL    HW231579  10.823  10.491   7.793
43228SOL     OW31580   5.325   7.562   4.703
43228SOL    HW131581   5.336   7.486   4.646
43228SOL    HW231582   5.392   7.623   4.674
43229SOL     OW31583   8.645   1.281   8.591
43229SOL    HW131584   8.714   1.254   8.530
43229SOL    HW231585   8.630   1.203   8.645
43230SOL     OW31586   3.280   0.601   3.581
43230SOL    HW131587   3.266   0.638   3.667
43230SOL    HW231588   3.274   0.675   3.521
43231SOL     OW31589  12.410  14.538   7.179
43231SOL    HW131590  12.469  14.494   7.117
43231SOL    HW231591  12.422  14.631   7.162
43232SOL     OW31592  14.329   0.593   5.752
43232SOL    HW131593  14.383   0.516   5.766
43232SOL    HW231594  14.372   0.641   5.681
43233SOL     OW31595   6.102   5.032   8.258
43233SOL    HW131596   6.039   4.970   8.220
43233SOL    HW231597   6.119   5.094   8.188
43234SOL     OW31598   1.160   2.450   8.321
43234SOL    HW131599   1.114   2.415   8.245
43234SOL    HW231600   1.112   2.417   8.396
43235SOL     OW31601   2.919  11.195   3.652
43235SOL    HW131602   2.949  11.135   3.583
43235SOL    HW231603   2.846  11.243   3.612
43236SOL     OW31604   7.852   7.918   1.187
43236SOL    HW131605   7.807   7.860   1.248
43236SOL    HW231606   7.785   7.982   1.161
43237SOL     OW31607   2.978   6.649   1.125
43237SOL    HW131608   2.903   6.590   1.118
43237SOL    HW231609   3.051   6.600   1.087
43238SOL     OW31610   2.581   0.423   5.552
43238SOL    HW131611   2.491   0.432   5.582
43238SOL    HW231612   2.575   0.370   5.472
43239SOL     OW31613   2.088   1.268   9.163
43239SOL    HW131614   2.004   1.261   9.117
43239SOL    HW231615   2.099   1.183   9.205
43240SOL     OW31616   1.654  14.650   6.088
43240SOL    HW131617   1.666  14.556   6.075
43240SOL    HW231618   1.731  14.689   6.047
43241SOL     OW31619   3.696   1.651   5.238
43241SOL    HW131620   3.787   1.640   5.213
43241SOL    HW231621   3.689   1.608   5.323
43242SOL     OW31622   9.030   3.428  10.587
43242SOL    HW131623   9.075   3.493  10.532
43242SOL    HW231624   8.945   3.415  10.545
43243SOL     OW31625   8.583  10.961   4.872
43243SOL    HW131626   8.518  10.900   4.907
43243SOL    HW231627   8.666  10.914   4.880
43244SOL     OW31628   2.721   0.378  12.551
43244SOL    HW131629   2.662   0.361  12.477
43244SOL    HW231630   2.663   0.413  12.619
43245SOL     OW31631   0.664  12.849  14.248
43245SOL    HW131632   0.713  12.909  14.192
43245SOL    HW231633   0.622  12.906  14.312
43246SOL     OW31634   2.531   3.726   3.516
43246SOL    HW131635   2.609   3.741   3.568
43246SOL    HW231636   2.460   3.722   3.580
43247SOL     OW31637  13.032  12.136  13.526
43247SOL    HW131638  13.076  12.154  13.609
43247SOL    HW231639  13.102  12.133  13.461
43248SOL     OW31640   2.571  13.754  13.617
43248SOL    HW131641   2.537  13.667  13.597
43248SOL    HW231642   2.535  13.775  13.704
43249SOL     OW31643   1.062   9.207   7.819
43249SOL    HW131644   1.076   9.112   7.820
43249SOL    HW231645   0.991   9.220   7.757
43250SOL     OW31646   1.962   9.560   2.735
43250SOL    HW131647   1.950   9.654   2.745
43250SOL    HW231648   2.051   9.550   2.701
43251SOL     OW31649  14.775  13.496   5.270
43251SOL    HW131650  14.841  13.565   5.283
43251SOL    HW231651  14.735  13.518   5.186
43252SOL     OW31652  12.062   2.166   5.302
43252SOL    HW131653  11.969   2.157   5.320
43252SOL    HW231654  12.086   2.086   5.257
43253SOL     OW31655  12.686   5.566  12.211
43253SOL    HW131656  12.771   5.537  12.244
43253SOL    HW231657  12.707   5.624  12.137
43254SOL     OW31658  10.929  14.353  10.146
43254SOL    HW131659  10.885  14.348  10.061
43254SOL    HW231660  10.924  14.446  10.170
43255SOL     OW31661  12.204   9.252  11.092
43255SOL    HW131662  12.280   9.308  11.076
43255SOL    HW231663  12.138   9.284  11.031
43256SOL     OW31664   5.717  13.629  11.356
43256SOL    HW131665   5.692  13.542  11.388
43256SOL    HW231666   5.649  13.687  11.390
43257SOL     OW31667   9.503   7.829   8.807
43257SOL    HW131668   9.496   7.737   8.833
43257SOL    HW231669   9.469   7.878   8.882
43258SOL     OW31670   3.896   8.322   2.120
43258SOL    HW131671   3.917   8.297   2.030
43258SOL    HW231672   3.872   8.240   2.162
43259SOL     OW31673  13.257   7.809  14.194
43259SOL    HW131674  13.216   7.784  14.111
43259SOL    HW231675  13.343   7.766  14.192
43260SOL     OW31676   4.162   6.387   4.078
43260SOL    HW131677   4.196   6.375   4.167
43260SOL    HW231678   4.177   6.479   4.059
43261SOL     OW31679   7.493   4.091  14.230
43261SOL    HW131680   7.542   4.086  14.312
43261SOL    HW231681   7.406   4.057  14.251
43262SOL     OW31682   8.563   2.254   2.346
43262SOL    HW131683   8.647   2.209   2.338
43262SOL    HW231684   8.581   2.331   2.401
43263SOL     OW31685   9.552  14.270  14.513
43263SOL    HW131686   9.468  14.236  14.482
43263SOL    HW231687   9.551  14.362  14.489
43264SOL     OW31688   5.035   0.385  12.985
43264SOL    HW131689   5.030   0.309  13.043
43264SOL    HW231690   4.951   0.386  12.940
43265SOL     OW31691   1.860  14.213   6.303
43265SOL    HW131692   1.790  14.160   6.265
43265SOL    HW231693   1.822  14.300   6.312
43266SOL     OW31694   4.222   3.659  11.142
43266SOL    HW131695   4.192   3.602  11.071
43266SOL    HW231696   4.317   3.646  11.145
43267SOL     OW31697  12.816  11.510   9.221
43267SOL    HW131698  12.759  11.553   9.157
43267SOL    HW231699  12.877  11.459   9.168
43268SOL     OW31700   1.474  11.251   2.539
43268SOL    HW131701   1.458  11.345   2.535
43268SOL    HW231702   1.541  11.242   2.608
43269SOL     OW31703   0.646   6.485   8.734
43269SOL    HW131704   0.721   6.544   8.748
43269SOL    HW231705   0.603   6.480   8.820
43270SOL     OW31706   8.197   1.437   9.502
43270SOL    HW131707   8.183   1.346   9.474
43270SOL    HW231708   8.118   1.459   9.552
43271SOL     OW31709  11.215  10.968   8.237
43271SOL    HW131710  11.286  11.014   8.281
43271SOL    HW231711  11.254  10.936   8.156
43272SOL     OW31712  11.805   8.443   5.141
43272SOL    HW131713  11.819   8.537   5.125
43272SOL    HW231714  11.749   8.415   5.068
43273SOL     OW31715  11.290   7.411  11.535
43273SOL    HW131716  11.353   7.341  11.551
43273SOL    HW231717  11.282   7.454  11.620
43274SOL     OW31718  13.044  14.449   8.082
43274SOL    HW131719  12.965  14.460   8.028
43274SOL    HW231720  13.051  14.531   8.130
43275SOL     OW31721   1.587   7.898   0.242
43275SOL    HW131722   1.657   7.913   0.305
43275SOL    HW231723   1.526   7.840   0.288
43276SOL     OW31724   1.153   8.936   7.461
43276SOL    HW131725   1.080   8.947   7.522
43276SOL    HW231726   1.144   9.009   7.400
43277SOL     OW31727  14.418  14.339  14.740
43277SOL    HW131728  14.417  14.353  14.645
43277SOL    HW231729  14.426  14.245  14.750
43278SOL     OW31730   5.530  10.496   1.871
43278SOL    HW131731   5.574  10.548   1.938
43278SOL    HW231732   5.533  10.407   1.904
43279SOL     OW31733   0.857   0.180   5.684
43279SOL    HW131734   0.829   0.089   5.685
43279SOL    HW231735   0.795   0.224   5.626
43280SOL     OW31736   0.180  14.392  11.065
43280SOL    HW131737   0.159  14.484  11.085
43280SOL    HW231738   0.189  14.390  10.970
43281SOL     OW31739   9.462   5.161   8.927
43281SOL    HW131740   9.538   5.217   8.943
43281SOL    HW231741   9.496   5.072   8.939
43282SOL     OW31742  12.056   5.430   8.268
43282SOL    HW131743  12.122   5.452   8.202
43282SOL    HW231744  12.019   5.347   8.238
43283SOL     OW31745  12.397   5.594   8.347
43283SOL    HW131746  12.449   5.595   8.266
43283SOL    HW231747  12.461   5.598   8.417
43284SOL     OW31748   9.917   5.646  13.679
43284SOL    HW131749   9.885   5.706  13.747
43284SOL    HW231750   9.843   5.635  13.620
43285SOL     OW31751   7.264  13.846   3.742
43285SOL    HW131752   7.346  13.797   3.734
43285SOL    HW231753   7.287  13.922   3.795
43286SOL     OW31754  11.980   7.587   2.971
43286SOL    HW131755  12.015   7.596   2.882
43286SOL    HW231756  11.885   7.585   2.958
43287SOL     OW31757  14.382   4.111   6.055
43287SOL    HW131758  14.374   4.016   6.063
43287SOL    HW231759  14.335   4.132   5.974
43288SOL     OW31760  10.681   4.376   0.745
43288SOL    HW131761  10.670   4.412   0.833
43288SOL    HW231762  10.767   4.336   0.745
43289SOL     OW31763  14.052  12.815   2.341
43289SOL    HW131764  14.019  12.728   2.365
43289SOL    HW231765  14.059  12.812   2.245
43290SOL     OW31766   5.532   0.000   8.655
43290SOL    HW131767   5.486  14.875   8.571
43290SOL    HW231768   5.619  14.842   8.635
43291SOL     OW31769   8.892   2.801  12.172
43291SOL    HW131770   8.930   2.880  12.133
43291SOL    HW231771   8.961   2.736  12.165
43292SOL     OW31772   6.276   3.427   8.742
43292SOL    HW131773   6.351   3.454   8.795
43292SOL    HW231774   6.253   3.505   8.692
43293SOL     OW31775   5.558   0.306   9.884
43293SOL    HW131776   5.516   0.324   9.968
43293SOL    HW231777   5.493   0.331   9.818
43294SOL     OW31778  13.730   2.057   6.426
43294SOL    HW131779  13.680   2.015   6.356
43294SOL    HW231780  13.721   1.999   6.501
43295SOL     OW31781   9.458  13.798  14.760
43295SOL    HW131782   9.525  13.812  14.693
43295SOL    HW231783   9.505  13.805  14.843
43296SOL     OW31784   0.116   2.291  13.307
43296SOL    HW131785   0.118   2.288  13.211
43296SOL    HW231786   0.112   2.384  13.328
43297SOL     OW31787   6.305   1.190  10.210
43297SOL    HW131788   6.287   1.195  10.304
43297SOL    HW231789   6.372   1.122  10.203
43298SOL     OW31790  12.086   8.653   9.169
43298SOL    HW131791  12.170   8.607   9.158
43298SOL    HW231792  12.026   8.607   9.111
43299SOL     OW31793   4.408   2.572   6.005
43299SOL    HW131794   4.376   2.518   5.933
43299SOL    HW231795   4.374   2.659   5.986
43300SOL     OW31796   3.285  11.191   8.861
43300SOL    HW131797   3.365  11.216   8.814
43300SOL    HW231798   3.215  11.204   8.797
43301SOL     OW31799  13.918  14.485  12.841
43301SOL    HW131800  13.971  14.416  12.881
43301SOL    HW231801  13.891  14.540  12.915
43302SOL     OW31802  12.233   7.547   0.800
43302SOL    HW131803  12.273   7.528   0.885
43302SOL    HW231804  12.143   7.513   0.809
43303SOL     OW31805  11.941   7.002   1.598
43303SOL    HW131806  11.926   6.929   1.659
43303SOL    HW231807  11.853   7.034   1.578
43304SOL     OW31808   7.060   5.028   8.792
43304SOL    HW131809   7.080   5.122   8.798
43304SOL    HW231810   7.059   5.010   8.699
43305SOL     OW31811   7.988   2.755  12.101
43305SOL    HW131812   7.991   2.834  12.048
43305SOL    HW231813   7.925   2.699  12.055
43306SOL     OW31814  14.212   7.877   6.632
43306SOL    HW131815  14.269   7.822   6.577
43306SOL    HW231816  14.184   7.948   6.575
43307SOL     OW31817   3.080   2.903  12.130
43307SOL    HW131818   3.120   2.823  12.096
43307SOL    HW231819   3.145   2.971  12.112
43308SOL     OW31820   6.317   8.329   1.153
43308SOL    HW131821   6.333   8.251   1.099
43308SOL    HW231822   6.397   8.339   1.205
43309SOL     OW31823  11.727   1.992   8.655
43309SOL    HW131824  11.683   1.918   8.696
43309SOL    HW231825  11.769   2.038   8.728
43310SOL     OW31826   0.960   6.645   1.219
43310SOL    HW131827   0.927   6.619   1.133
43310SOL    HW231828   0.891   6.620   1.280
43311SOL     OW31829   7.057   6.553  10.265
43311SOL    HW131830   7.131   6.495  10.281
43311SOL    HW231831   7.073   6.629  10.321
43312SOL     OW31832  14.706   5.543   6.315
43312SOL    HW131833  14.736   5.628   6.349
43312SOL    HW231834  14.777   5.515   6.257
43313SOL     OW31835  13.556   3.960   6.386
43313SOL    HW131836  13.632   3.974   6.330
43313SOL    HW231837  13.503   3.896   6.338
43314SOL     OW31838   6.007   5.500   1.899
43314SOL    HW131839   5.943   5.569   1.914
43314SOL    HW231840   5.956   5.419   1.897
43315SOL     OW31841  11.106   9.709  14.269
43315SOL    HW131842  11.027   9.678  14.312
43315SOL    HW231843  11.121   9.796  14.306
43316SOL     OW31844   1.119   1.669  10.560
43316SOL    HW131845   1.140   1.707  10.475
43316SOL    HW231846   1.025   1.651  10.556
43317SOL     OW31847   1.995  14.400  10.377
43317SOL    HW131848   1.981  14.410  10.283
43317SOL    HW231849   1.910  14.371  10.410
43318SOL     OW31850   6.453  13.187  13.829
43318SOL    HW131851   6.429  13.208  13.919
43318SOL    HW231852   6.440  13.093  13.821
43319SOL     OW31853  12.986   6.201   9.434
43319SOL    HW131854  13.025   6.230   9.516
43319SOL    HW231855  13.021   6.113   9.421
43320SOL     OW31856   4.283  14.517  12.306
43320SOL    HW131857   4.227  14.576  12.357
43320SOL    HW231858   4.328  14.575  12.244
43321SOL     OW31859   4.516   2.271  10.161
43321SOL    HW131860   4.427   2.308  10.165
43321SOL    HW231861   4.519   2.211  10.236
43322SOL     OW31862   8.748   0.615   3.438
43322SOL    HW131863   8.682   0.630   3.505
43322SOL    HW231864   8.698   0.594   3.359
43323SOL     OW31865  12.227   7.483  11.551
43323SOL    HW131866  12.202   7.410  11.493
43323SOL    HW231867  12.143   7.522  11.576
43324SOL     OW31868  14.523  13.049  14.711
43324SOL    HW131869  14.479  13.036  14.627
43324SOL    HW231870  14.476  13.121  14.753
43325SOL     OW31871  12.948  11.944  11.324
43325SOL    HW131872  13.037  11.977  11.336
43325SOL    HW231873  12.893  12.012  11.363
43326SOL     OW31874   8.510   2.069  10.189
43326SOL    HW131875   8.559   2.027  10.119
43326SOL    HW231876   8.574   2.081  10.260
43327SOL     OW31877  13.601   2.680  14.631
43327SOL    HW131878  13.566   2.591  14.621
43327SOL    HW231879  13.667   2.672  14.700
43328SOL     OW31880   7.988  14.419   3.009
43328SOL    HW131881   7.914  14.368   3.041
43328SOL    HW231882   8.034  14.359   2.950
43329SOL     OW31883   2.869  13.740  10.023
43329SOL    HW131884   2.835  13.827  10.044
43329SOL    HW231885   2.959  13.756   9.993
43330SOL     OW31886   4.562   4.362  14.445
43330SOL    HW131887   4.490   4.311  14.481
43330SOL    HW231888   4.584   4.317  14.363
43331SOL     OW31889   5.901   0.641  10.673
43331SOL    HW131890   5.852   0.570  10.631
43331SOL    HW231891   5.863   0.646  10.761
43332SOL     OW31892   3.038   1.971  13.466
43332SOL    HW131893   2.997   1.885  13.470
43332SOL    HW231894   3.016   2.004  13.379
43333SOL     OW31895  13.911   5.125   9.003
43333SOL    HW131896  13.968   5.120   9.080
43333SOL    HW231897  13.859   5.204   9.018
43334SOL     OW31898   7.999  10.720   9.379
43334SOL    HW131899   8.028  10.810   9.365
43334SOL    HW231900   7.950  10.723   9.461
43335SOL     OW31901   0.333  13.469   1.680
43335SOL    HW131902   0.309  13.385   1.640
43335SOL    HW231903   0.252  13.519   1.681
43336SOL     OW31904   0.473   1.585   7.887
43336SOL    HW131905   0.441   1.588   7.978
43336SOL    HW231906   0.535   1.657   7.881
43337SOL     OW31907  12.568   8.467   1.020
43337SOL    HW131908  12.661   8.483   1.001
43337SOL    HW231909  12.570   8.403   1.091
43338SOL     OW31910  11.287   8.186  14.487
43338SOL    HW131911  11.369   8.203  14.534
43338SOL    HW231912  11.315   8.145  14.405
43339SOL     OW31913  12.199  10.769   8.430
43339SOL    HW131914  12.242  10.747   8.513
43339SOL    HW231915  12.183  10.863   8.436
43340SOL     OW31916   7.996   8.197   6.680
43340SOL    HW131917   8.091   8.193   6.688
43340SOL    HW231918   7.978   8.281   6.638
43341SOL     OW31919   1.773   6.956   6.681
43341SOL    HW131920   1.770   7.049   6.661
43341SOL    HW231921   1.764   6.913   6.596
43342SOL     OW31922  11.548  12.935  14.150
43342SOL    HW131923  11.517  12.848  14.174
43342SOL    HW231924  11.501  12.995  14.209
43343SOL     OW31925   3.600   8.208   3.716
43343SOL    HW131926   3.558   8.126   3.741
43343SOL    HW231927   3.689   8.201   3.751
43344SOL     OW31928  13.395   0.299  10.805
43344SOL    HW131929  13.485   0.279  10.779
43344SOL    HW231930  13.390   0.274  10.897
43345SOL     OW31931   6.272  11.587   2.076
43345SOL    HW131932   6.251  11.542   1.994
43345SOL    HW231933   6.362  11.560   2.096
43346SOL     OW31934   3.942   8.165   7.651
43346SOL    HW131935   3.902   8.251   7.660
43346SOL    HW231936   4.036   8.183   7.640
43347SOL     OW31937  11.326   8.578   9.671
43347SOL    HW131938  11.259   8.510   9.659
43347SOL    HW231939  11.394   8.557   9.607
43348SOL     OW31940  11.787   4.321   1.672
43348SOL    HW131941  11.728   4.246   1.680
43348SOL    HW231942  11.791   4.339   1.578
43349SOL     OW31943  11.511  12.191   4.842
43349SOL    HW131944  11.468  12.111   4.870
43349SOL    HW231945  11.581  12.161   4.783
43350SOL     OW31946  14.420  12.959   0.105
43350SOL    HW131947  14.495  13.017   0.101
43350SOL    HW231948  14.345  13.015   0.084
43351SOL     OW31949   2.808  11.678   6.822
43351SOL    HW131950   2.761  11.755   6.790
43351SOL    HW231951   2.813  11.690   6.917
43352SOL     OW31952  12.545  14.246  13.491
43352SOL    HW131953  12.606  14.175  13.508
43352SOL    HW231954  12.600  14.324  13.483
43353SOL     OW31955  11.981  10.183   0.400
43353SOL    HW131956  11.922  10.122   0.443
43353SOL    HW231957  12.069  10.152   0.423
43354SOL     OW31958   7.320   4.678   2.993
43354SOL    HW131959   7.318   4.619   3.068
43354SOL    HW231960   7.380   4.636   2.931
43355SOL     OW31961  11.055   7.377   0.378
43355SOL    HW131962  10.997   7.449   0.404
43355SOL    HW231963  11.119   7.372   0.449
43356SOL     OW31964   8.690   4.185   3.335
43356SOL    HW131965   8.666   4.112   3.277
43356SOL    HW231966   8.663   4.263   3.287
43357SOL     OW31967   5.613  13.504   8.684
43357SOL    HW131968   5.661  13.537   8.608
43357SOL    HW231969   5.525  13.540   8.675
43358SOL     OW31970   6.923  11.792   6.678
43358SOL    HW131971   6.909  11.766   6.587
43358SOL    HW231972   6.943  11.885   6.673
43359SOL     OW31973   0.374   7.205   0.294
43359SOL    HW131974   0.339   7.118   0.312
43359SOL    HW231975   0.423   7.228   0.372
43360SOL     OW31976   5.803   9.559   9.280
43360SOL    HW131977   5.714   9.576   9.251
43360SOL    HW231978   5.851   9.537   9.200
43361SOL     OW31979  14.140   9.097   6.281
43361SOL    HW131980  14.117   9.018   6.232
43361SOL    HW231981  14.225   9.077   6.320
43362SOL     OW31982  14.395   3.692  12.042
43362SOL    HW131983  14.363   3.650  11.963
43362SOL    HW231984  14.485   3.718  12.021
43363SOL     OW31985   9.256   0.295  11.027
43363SOL    HW131986   9.271   0.201  11.023
43363SOL    HW231987   9.331   0.329  11.077
43364SOL     OW31988  14.650   0.250   1.318
43364SOL    HW131989  14.575   0.202   1.355
43364SOL    HW231990  14.636   0.247   1.224
43365SOL     OW31991   2.611   5.021  12.035
43365SOL    HW131992   2.628   5.099  11.982
43365SOL    HW231993   2.682   5.019  12.098
43366SOL     OW31994  14.505  11.522  12.193
43366SOL    HW131995  14.530  11.433  12.168
43366SOL    HW231996  14.515  11.574  12.113
43367SOL     OW31997   7.568   5.275   9.640
43367SOL    HW131998   7.572   5.334   9.715
43367SOL    HW231999   7.623   5.200   9.665
43368SOL     OW32000   2.152  13.706   9.342
43368SOL    HW132001   2.085  13.773   9.329
43368SOL    HW232002   2.235  13.753   9.335
43369SOL     OW32003   3.870   1.504   3.267
43369SOL    HW132004   3.955   1.495   3.309
43369SOL    HW232005   3.834   1.585   3.303
43370SOL     OW32006   3.195  10.977   0.009
43370SOL    HW132007   3.147  10.895  14.876
43370SOL    HW232008   3.247  10.964   0.088
43371SOL     OW32009   5.337  13.810   6.825
43371SOL    HW132010   5.424  13.828   6.791
43371SOL    HW232011   5.301  13.743   6.767
43372SOL     OW32012   2.346   8.049  10.413
43372SOL    HW132013   2.403   8.026  10.339
43372SOL    HW232014   2.392   8.015  10.490
43373SOL     OW32015   4.592  11.341   7.609
43373SOL    HW132016   4.627  11.315   7.524
43373SOL    HW232017   4.575  11.435   7.600
43374SOL     OW32018  14.778  10.192   1.939
43374SOL    HW132019  14.751  10.173   2.029
43374SOL    HW232020  14.864  10.151   1.930
43375SOL     OW32021   0.813  11.545   6.195
43375SOL    HW132022   0.733  11.493   6.193
43375SOL    HW232023   0.856  11.527   6.112
43376SOL     OW32024  10.899   7.907   3.274
43376SOL    HW132025  10.989   7.877   3.286
43376SOL    HW232026  10.849   7.860   3.340
43377SOL     OW32027   0.001   0.170  14.044
43377SOL    HW132028   0.088   0.131  14.051
43377SOL    HW232029  14.857   0.161  13.951
43378SOL     OW32030  13.727  14.660   7.188
43378SOL    HW132031  13.665  14.731   7.171
43378SOL    HW232032  13.787  14.661   7.113
43379SOL     OW32033  13.983  14.860  10.252
43379SOL    HW132034  13.965  14.814  10.170
43379SOL    HW232035  13.960  14.798  10.321
43380SOL     OW32036   8.955   8.712  13.741
43380SOL    HW132037   8.870   8.704  13.699
43380SOL    HW232038   8.993   8.792  13.704
43381SOL     OW32039  12.439   2.537   3.248
43381SOL    HW132040  12.479   2.597   3.185
43381SOL    HW232041  12.511   2.512   3.306
43382SOL     OW32042   3.386   4.194  10.038
43382SOL    HW132043   3.364   4.245   9.960
43382SOL    HW232044   3.354   4.247  10.111
43383SOL     OW32045   2.508   2.027   3.402
43383SOL    HW132046   2.579   2.091   3.409
43383SOL    HW232047   2.490   2.022   3.308
43384SOL     OW32048  14.378  11.534   5.956
43384SOL    HW132049  14.391  11.552   6.049
43384SOL    HW232050  14.301  11.478   5.953
43385SOL     OW32051  13.455  14.092   1.444
43385SOL    HW132052  13.435  14.158   1.378
43385SOL    HW232053  13.420  14.011   1.408
43386SOL     OW32054   4.440  12.515   6.578
43386SOL    HW132055   4.354  12.502   6.619
43386SOL    HW232056   4.486  12.575   6.637
43387SOL     OW32057  11.597  12.246   1.098
43387SOL    HW132058  11.596  12.225   1.191
43387SOL    HW232059  11.688  12.236   1.072
43388SOL     OW32060  11.601  10.040  13.833
43388SOL    HW132061  11.609  10.133  13.808
43388SOL    HW232062  11.674   9.997  13.787
43389SOL     OW32063  12.262  11.754  14.370
43389SOL    HW132064  12.203  11.729  14.299
43389SOL    HW232065  12.216  11.824  14.416
43390SOL     OW32066  13.248  14.363  13.952
43390SOL    HW132067  13.226  14.326  14.038
43390SOL    HW232068  13.343  14.375  13.954
43391SOL     OW32069   3.584   4.842  13.553
43391SOL    HW132070   3.553   4.766  13.602
43391SOL    HW232071   3.505   4.877  13.511
43392SOL     OW32072   3.701   3.502   9.904
43392SOL    HW132073   3.626   3.464   9.950
43392SOL    HW232074   3.695   3.467   9.815
43393SOL     OW32075   4.005   1.126   0.018
43393SOL    HW132076   3.923   1.133  14.846
43393SOL    HW232077   3.977   1.108   0.108
43394SOL     OW32078   9.573  11.559   8.877
43394SOL    HW132079   9.623  11.637   8.903
43394SOL    HW232080   9.482  11.590   8.876
43395SOL     OW32081   3.866  10.588   8.144
43395SOL    HW132082   3.873  10.510   8.199
43395SOL    HW232083   3.913  10.564   8.064
43396SOL     OW32084   3.167  12.787   6.132
43396SOL    HW132085   3.170  12.696   6.162
43396SOL    HW232086   3.209  12.785   6.046
43397SOL     OW32087   3.970   0.545   5.376
43397SOL    HW132088   3.943   0.536   5.467
43397SOL    HW232089   3.902   0.500   5.326
43398SOL     OW32090   5.022   6.158   7.500
43398SOL    HW132091   4.989   6.204   7.577
43398SOL    HW232092   5.051   6.228   7.441
43399SOL     OW32093   5.917  11.027   7.057
43399SOL    HW132094   5.995  11.081   7.073
43399SOL    HW232095   5.951  10.949   7.012
43400SOL     OW32096   2.287   7.558  10.806
43400SOL    HW132097   2.268   7.651  10.812
43400SOL    HW232098   2.321   7.534  10.892
43401SOL     OW32099   7.789  10.850   3.652
43401SOL    HW132100   7.859  10.866   3.588
43401SOL    HW232101   7.776  10.935   3.695
43402SOL     OW32102   4.470   4.087   0.468
43402SOL    HW132103   4.557   4.049   0.479
43402SOL    HW232104   4.465   4.110   0.375
43403SOL     OW32105   4.639   4.270   8.926
43403SOL    HW132106   4.684   4.186   8.909
43403SOL    HW232107   4.584   4.283   8.849
43404SOL     OW32108   9.695   6.674  10.924
43404SOL    HW132109   9.650   6.622  10.991
43404SOL    HW232110   9.626   6.702  10.865
43405SOL     OW32111   8.185  11.338  12.870
43405SOL    HW132112   8.257  11.375  12.819
43405SOL    HW232113   8.169  11.252  12.831
43406SOL     OW32114   9.145   5.209   4.028
43406SOL    HW132115   9.194   5.128   4.042
43406SOL    HW232116   9.125   5.241   4.116
43407SOL     OW32117   8.156   0.936  10.228
43407SOL    HW132118   8.092   0.988  10.178
43407SOL    HW232119   8.116   0.925  10.314
43408SOL     OW32120   4.564  10.648   3.573
43408SOL    HW132121   4.523  10.565   3.547
43408SOL    HW232122   4.508  10.715   3.534
43409SOL     OW32123  11.702  12.230   9.143
43409SOL    HW132124  11.675  12.321   9.150
43409SOL    HW232125  11.631  12.188   9.093
43410SOL     OW32126   1.456   2.246   2.944
43410SOL    HW132127   1.408   2.226   2.863
43410SOL    HW232128   1.387   2.261   3.009
43411SOL     OW32129   8.629  10.230   0.871
43411SOL    HW132130   8.595  10.316   0.892
43411SOL    HW232131   8.579  10.201   0.795
43412SOL     OW32132   0.261   9.823  12.697
43412SOL    HW132133   0.273   9.821  12.602
43412SOL    HW232134   0.311   9.749  12.730
43413SOL     OW32135  13.028   9.507   1.470
43413SOL    HW132136  13.000   9.530   1.559
43413SOL    HW232137  13.085   9.580   1.443
43414SOL     OW32138   0.197   3.308   0.455
43414SOL    HW132139   0.190   3.332   0.363
43414SOL    HW232140   0.193   3.391   0.502
43415SOL     OW32141   2.542  10.316   3.039
43415SOL    HW132142   2.569  10.365   2.962
43415SOL    HW232143   2.531  10.382   3.108
43416SOL     OW32144   6.374   6.455   7.489
43416SOL    HW132145   6.298   6.397   7.499
43416SOL    HW232146   6.448   6.403   7.520
43417SOL     OW32147   3.842   5.416   8.096
43417SOL    HW132148   3.923   5.383   8.057
43417SOL    HW232149   3.775   5.397   8.030
43418SOL     OW32150   0.895   4.061  12.179
43418SOL    HW132151   0.955   3.994  12.148
43418SOL    HW232152   0.905   4.133  12.117
43419SOL     OW32153  12.939   3.311   4.687
43419SOL    HW132154  12.914   3.256   4.760
43419SOL    HW232155  13.017   3.268   4.650
43420SOL     OW32156   7.004  10.303  10.905
43420SOL    HW132157   6.932  10.349  10.860
43420SOL    HW232158   7.032  10.236  10.842
43421SOL     OW32159  11.527   4.524   5.734
43421SOL    HW132160  11.482   4.451   5.692
43421SOL    HW232161  11.586   4.559   5.667
43422SOL     OW32162   8.628  13.969   7.072
43422SOL    HW132163   8.631  14.042   7.134
43422SOL    HW232164   8.668  13.896   7.120
43423SOL     OW32165  12.473   4.643   8.756
43423SOL    HW132166  12.522   4.600   8.685
43423SOL    HW232167  12.383   4.614   8.744
43424SOL     OW32168  11.966   5.636   3.134
43424SOL    HW132169  12.019   5.654   3.057
43424SOL    HW232170  12.030   5.610   3.201
43425SOL     OW32171   6.172   0.624  11.541
43425SOL    HW132172   6.218   0.557  11.491
43425SOL    HW232173   6.238   0.659  11.601
43426SOL     OW32174   8.701  12.754   6.542
43426SOL    HW132175   8.703  12.751   6.637
43426SOL    HW232176   8.696  12.662   6.515
43427SOL     OW32177   3.093   2.653   1.256
43427SOL    HW132178   3.070   2.566   1.223
43427SOL    HW232179   3.089   2.710   1.179
43428SOL     OW32180   5.170   8.966   2.853
43428SOL    HW132181   5.141   8.893   2.798
43428SOL    HW232182   5.260   8.944   2.876
43429SOL     OW32183   1.254  13.223  12.640
43429SOL    HW132184   1.248  13.215  12.735
43429SOL    HW232185   1.189  13.289  12.617
43430SOL     OW32186   3.750  12.478   9.987
43430SOL    HW132187   3.782  12.473  10.077
43430SOL    HW232188   3.670  12.529   9.994
43431SOL     OW32189   5.459  14.661  11.922
43431SOL    HW132190   5.488  14.572  11.944
43431SOL    HW232191   5.507  14.682  11.841
43432SOL     OW32192  12.896  10.096  12.245
43432SOL    HW132193  12.904  10.008  12.210
43432SOL    HW232194  12.880  10.152  12.169
43433SOL     OW32195   3.102  14.425  12.615
43433SOL    HW132196   3.085  14.345  12.564
43433SOL    HW232197   3.022  14.476  12.608
43434SOL     OW32198   7.494  12.899  12.862
43434SOL    HW132199   7.561  12.896  12.930
43434SOL    HW232200   7.419  12.941  12.904
43435SOL     OW32201   2.164  14.599   4.050
43435SOL    HW132202   2.185  14.655   3.975
43435SOL    HW232203   2.072  14.576   4.038
43436SOL     OW32204   4.104  11.435   7.240
43436SOL    HW132205   4.049  11.503   7.280
43436SOL    HW232206   4.159  11.404   7.312
43437SOL     OW32207   7.190  10.966  13.342
43437SOL    HW132208   7.161  10.906  13.411
43437SOL    HW232209   7.135  10.944  13.267
43438SOL     OW32210  13.808   7.722   9.684
43438SOL    HW132211  13.801   7.627   9.673
43438SOL    HW232212  13.733   7.757   9.636
43439SOL     OW32213   9.463   6.133   3.539
43439SOL    HW132214   9.370   6.124   3.562
43439SOL    HW232215   9.502   6.051   3.569
43440SOL     OW32216   8.958  11.358   4.494
43440SOL    HW132217   8.973  11.450   4.518
43440SOL    HW232218   8.942  11.360   4.399
43441SOL     OW32219   5.309  10.574   8.000
43441SOL    HW132220   5.386  10.532   7.961
43441SOL    HW232221   5.252  10.501   8.025
43442SOL     OW32222   0.006  13.194   9.576
43442SOL    HW132223   0.013  13.176   9.483
43442SOL    HW232224  14.790  13.192   9.594
43443SOL     OW32225  13.937   4.298   8.235
43443SOL    HW132226  13.889   4.233   8.183
43443SOL    HW232227  13.899   4.292   8.323
43444SOL     OW32228   8.494   3.256   1.429
43444SOL    HW132229   8.401   3.268   1.410
43444SOL    HW232230   8.497   3.241   1.524
43445SOL     OW32231   6.979   0.747   6.175
43445SOL    HW132232   7.058   0.696   6.189
43445SOL    HW232233   7.006   0.838   6.187
43446SOL     OW32234   1.325   7.350   9.026
43446SOL    HW132235   1.364   7.429   8.988
43446SOL    HW232236   1.324   7.287   8.954
43447SOL     OW32237   4.305   8.909   0.045
43447SOL    HW132238   4.252   8.840   0.085
43447SOL    HW232239   4.351   8.950   0.118
43448SOL     OW32240  11.806   1.591   6.056
43448SOL    HW132241  11.736   1.575   6.120
43448SOL    HW232242  11.857   1.511   6.056
43449SOL     OW32243   7.212  12.603   9.131
43449SOL    HW132244   7.268  12.527   9.147
43449SOL    HW232245   7.124  12.572   9.148
43450SOL     OW32246  12.140   4.176  13.481
43450SOL    HW132247  12.065   4.226  13.449
43450SOL    HW232248  12.100   4.104  13.531
43451SOL     OW32249   1.820  10.474   4.519
43451SOL    HW132250   1.760  10.400   4.521
43451SOL    HW232251   1.785  10.536   4.584
43452SOL     OW32252   3.977   4.813   2.847
43452SOL    HW132253   4.020   4.896   2.865
43452SOL    HW232254   3.911   4.804   2.917
43453SOL     OW32255   1.652  12.990   2.732
43453SOL    HW132256   1.698  12.909   2.712
43453SOL    HW232257   1.690  13.020   2.815
43454SOL     OW32258   2.834   1.444   0.475
43454SOL    HW132259   2.817   1.454   0.381
43454SOL    HW232260   2.897   1.373   0.480
43455SOL     OW32261   9.844   1.831  11.116
43455SOL    HW132262   9.772   1.888  11.142
43455SOL    HW232263   9.910   1.843  11.184
43456SOL     OW32264  14.874   7.481  10.982
43456SOL    HW132265   0.004   7.576  10.976
43456SOL    HW232266   0.062   7.448  10.921
43457SOL     OW32267   5.492   7.435  14.183
43457SOL    HW132268   5.422   7.489  14.147
43457SOL    HW232269   5.539   7.493  14.242
43458SOL     OW32270   6.096   2.796   8.476
43458SOL    HW132271   6.177   2.797   8.427
43458SOL    HW232272   6.051   2.877   8.450
43459SOL     OW32273   8.792   1.884   5.928
43459SOL    HW132274   8.760   1.941   5.858
43459SOL    HW232275   8.775   1.796   5.896
43460SOL     OW32276   3.225   4.569   4.447
43460SOL    HW132277   3.244   4.653   4.405
43460SOL    HW232278   3.130   4.565   4.450
43461SOL     OW32279  11.422   1.696  11.580
43461SOL    HW132280  11.355   1.629  11.567
43461SOL    HW232281  11.403   1.731  11.668
43462SOL     OW32282   2.125   2.647  11.793
43462SOL    HW132283   2.207   2.610  11.825
43462SOL    HW232284   2.060   2.579  11.807
43463SOL     OW32285  12.773   1.860  13.496
43463SOL    HW132286  12.735   1.805  13.565
43463SOL    HW232287  12.851   1.812  13.468
43464SOL     OW32288   4.979  11.500  13.844
43464SOL    HW132289   4.987  11.410  13.875
43464SOL    HW232290   5.004  11.496  13.752
43465SOL     OW32291   5.052  14.164   9.386
43465SOL    HW132292   5.046  14.091   9.324
43465SOL    HW232293   5.119  14.221   9.349
43466SOL     OW32294  12.783  11.021  10.358
43466SOL    HW132295  12.750  10.963  10.290
43466SOL    HW232296  12.872  11.043  10.330
43467SOL     OW32297   4.779   3.768   1.583
43467SOL    HW132298   4.697   3.758   1.534
43467SOL    HW232299   4.843   3.792   1.517
43468SOL     OW32300   2.891   9.405   8.592
43468SOL    HW132301   2.952   9.468   8.554
43468SOL    HW232302   2.941   9.324   8.598
43469SOL     OW32303   2.189   4.876  14.525
43469SOL    HW132304   2.171   4.814  14.455
43469SOL    HW232305   2.108   4.928  14.532
43470SOL     OW32306   2.036   7.895   8.829
43470SOL    HW132307   2.105   7.877   8.766
43470SOL    HW232308   1.955   7.894   8.778
43471SOL     OW32309   4.795   5.092   8.593
43471SOL    HW132310   4.739   5.030   8.546
43471SOL    HW232311   4.798   5.169   8.536
43472SOL     OW32312   6.300   4.419  10.882
43472SOL    HW132313   6.395   4.407  10.871
43472SOL    HW232314   6.264   4.408  10.794
43473SOL     OW32315   8.706   0.003  10.242
43473SOL    HW132316   8.772  14.865  10.309
43473SOL    HW232317   8.652  14.802  10.243
43474SOL     OW32318   9.144  14.812  13.804
43474SOL    HW132319   9.158   0.000  13.736
43474SOL    HW232320   9.153  14.728  13.759
43475SOL     OW32321   2.277   9.366   9.723
43475SOL    HW132322   2.189   9.360   9.760
43475SOL    HW232323   2.264   9.352   9.629
43476SOL     OW32324  12.486  11.895   1.669
43476SOL    HW132325  12.452  11.813   1.633
43476SOL    HW232326  12.577  11.876   1.691
43477SOL     OW32327   8.056  14.520   1.776
43477SOL    HW132328   8.039  14.571   1.855
43477SOL    HW232329   8.001  14.442   1.785
43478SOL     OW32330   8.338   0.320  12.336
43478SOL    HW132331   8.387   0.385  12.386
43478SOL    HW232332   8.259   0.304  12.387
43479SOL     OW32333   2.726   3.896   7.674
43479SOL    HW132334   2.764   3.882   7.587
43479SOL    HW232335   2.717   3.808   7.710
43480SOL     OW32336  13.586  13.465  11.804
43480SOL    HW132337  13.539  13.519  11.742
43480SOL    HW232338  13.567  13.503  11.890
43481SOL     OW32339   2.533  14.043   3.426
43481SOL    HW132340   2.522  14.065   3.333
43481SOL    HW232341   2.452  13.998   3.449
43482SOL     OW32342   3.753   2.146  10.000
43482SOL    HW132343   3.799   2.107   9.925
43482SOL    HW232344   3.675   2.091  10.011
43483SOL     OW32345   2.668   4.477   3.183
43483SOL    HW132346   2.659   4.386   3.210
43483SOL    HW232347   2.581   4.515   3.199
43484SOL     OW32348   0.796  11.218   8.820
43484SOL    HW132349   0.817  11.293   8.766
43484SOL    HW232350   0.877  11.167   8.824
43485SOL     OW32351   2.035   6.256   3.475
43485SOL    HW132352   2.069   6.200   3.545
43485SOL    HW232353   2.069   6.216   3.394
43486SOL     OW32354   1.184   3.079  13.411
43486SOL    HW132355   1.100   3.034  13.406
43486SOL    HW232356   1.247   3.010  13.428
43487SOL     OW32357  12.912  14.366   9.878
43487SOL    HW132358  12.939  14.389   9.967
43487SOL    HW232359  12.956  14.283   9.860
43488SOL     OW32360   5.054   4.200   5.030
43488SOL    HW132361   4.977   4.254   5.048
43488SOL    HW232362   5.126   4.263   5.029
43489SOL     OW32363   2.202  12.260  11.928
43489SOL    HW132364   2.209  12.229  12.018
43489SOL    HW232365   2.242  12.191  11.875
43490SOL     OW32366  10.342   2.735   8.587
43490SOL    HW132367  10.276   2.800   8.562
43490SOL    HW232368  10.413   2.787   8.624
43491SOL     OW32369  10.096   5.498   9.180
43491SOL    HW132370  10.065   5.564   9.242
43491SOL    HW232371  10.143   5.548   9.114
43492SOL     OW32372   1.204   5.240   1.793
43492SOL    HW132373   1.188   5.308   1.728
43492SOL    HW232374   1.189   5.283   1.877
43493SOL     OW32375  13.195  11.274   8.480
43493SOL    HW132376  13.229  11.222   8.407
43493SOL    HW232377  13.103  11.251   8.485
43494SOL     OW32378   3.570   7.370  11.737
43494SOL    HW132379   3.511   7.343  11.808
43494SOL    HW232380   3.587   7.290  11.687
43495SOL     OW32381  11.030  12.003   8.379
43495SOL    HW132382  11.116  12.001   8.335
43495SOL    HW232383  10.974  12.052   8.319
43496SOL     OW32384   0.114  12.188   8.734
43496SOL    HW132385   0.118  12.249   8.660
43496SOL    HW232386   0.146  12.105   8.698
43497SOL     OW32387   4.496   1.932  12.985
43497SOL    HW132388   4.417   1.926  12.931
43497SOL    HW232389   4.552   1.861  12.952
43498SOL     OW32390   9.262   5.306   7.360
43498SOL    HW132391   9.344   5.340   7.395
43498SOL    HW232392   9.196   5.329   7.426
43499SOL     OW32393  13.416   3.170   8.192
43499SOL    HW132394  13.441   3.189   8.283
43499SOL    HW232395  13.321   3.161   8.195
43500SOL     OW32396   1.728   2.328   3.324
43500SOL    HW132397   1.798   2.392   3.314
43500SOL    HW232398   1.674   2.362   3.396
43501SOL     OW32399   4.180   9.657   5.490
43501SOL    HW132400   4.195   9.615   5.574
43501SOL    HW232401   4.084   9.658   5.481
43502SOL     OW32402   7.501   9.323   6.702
43502SOL    HW132403   7.529   9.237   6.672
43502SOL    HW232404   7.456   9.361   6.627
43503SOL     OW32405   9.959  11.026  14.771
43503SOL    HW132406  10.034  11.014  14.714
43503SOL    HW232407   9.884  11.033  14.712
43504SOL     OW32408   0.080   3.737   2.457
43504SOL    HW132409   0.083   3.689   2.540
43504SOL    HW232410   0.087   3.670   2.389
43505SOL     OW32411   7.027  11.719  12.833
43505SOL    HW132412   7.005  11.789  12.771
43505SOL    HW232413   7.053  11.645  12.777
43506SOL     OW32414   9.408   4.617  14.306
43506SOL    HW132415   9.368   4.533  14.283
43506SOL    HW232416   9.334   4.677  14.317
43507SOL     OW32417   9.027   6.337   5.940
43507SOL    HW132418   9.020   6.363   6.031
43507SOL    HW232419   9.025   6.420   5.891
43508SOL     OW32420   9.577   9.629   8.520
43508SOL    HW132421   9.606   9.684   8.593
43508SOL    HW232422   9.650   9.569   8.505
43509SOL     OW32423   5.559  14.155   1.166
43509SOL    HW132424   5.628  14.183   1.227
43509SOL    HW232425   5.485  14.131   1.223
43510SOL     OW32426  10.520  14.493  13.693
43510SOL    HW132427  10.529  14.504  13.788
43510SOL    HW232428  10.483  14.576  13.663
43511SOL     OW32429   8.258  10.731   5.892
43511SOL    HW132430   8.313  10.668   5.846
43511SOL    HW232431   8.269  10.711   5.985
43512SOL     OW32432   1.626   4.227  11.476
43512SOL    HW132433   1.563   4.240  11.547
43512SOL    HW232434   1.584   4.266  11.399
43513SOL     OW32435  12.246   4.656   0.424
43513SOL    HW132436  12.305   4.606   0.480
43513SOL    HW232437  12.240   4.742   0.466
43514SOL     OW32438  11.111   6.449   4.881
43514SOL    HW132439  11.029   6.498   4.880
43514SOL    HW232440  11.175   6.509   4.919
43515SOL     OW32441  10.956   5.192   5.088
43515SOL    HW132442  11.042   5.228   5.066
43515SOL    HW232443  10.909   5.265   5.129
43516SOL     OW32444   3.002  10.949   8.360
43516SOL    HW132445   2.933  10.909   8.307
43516SOL    HW232446   3.069  10.881   8.367
43517SOL     OW32447   2.126   6.847   9.281
43517SOL    HW132448   2.143   6.813   9.193
43517SOL    HW232449   2.039   6.813   9.303
43518SOL     OW32450   3.565   4.693   3.689
43518SOL    HW132451   3.560   4.690   3.593
43518SOL    HW232452   3.597   4.606   3.713
43519SOL     OW32453  14.405  13.489   6.217
43519SOL    HW132454  14.347  13.416   6.194
43519SOL    HW232455  14.403  13.492   6.312
43520SOL     OW32456   4.355  14.755   6.380
43520SOL    HW132457   4.285  14.810   6.344
43520SOL    HW232458   4.421  14.817   6.410
43521SOL     OW32459   7.529   1.448  12.911
43521SOL    HW132460   7.481   1.529  12.929
43521SOL    HW232461   7.621   1.475  12.907
43522SOL     OW32462  14.118   2.428   0.596
43522SOL    HW132463  14.096   2.412   0.504
43522SOL    HW232464  14.181   2.500   0.594
43523SOL     OW32465  14.566   9.170   7.606
43523SOL    HW132466  14.652   9.172   7.647
43523SOL    HW232467  14.519   9.099   7.651
43524SOL     OW32468   7.098   7.475  10.794
43524SOL    HW132469   7.098   7.487  10.699
43524SOL    HW232470   7.189   7.488  10.820
43525SOL     OW32471  14.421   5.420  10.366
43525SOL    HW132472  14.370   5.361  10.422
43525SOL    HW232473  14.376   5.504  10.373
43526SOL     OW32474   6.313  13.419   4.832
43526SOL    HW132475   6.400  13.445   4.802
43526SOL    HW232476   6.328  13.339   4.883
43527SOL     OW32477   5.028   3.099   4.706
43527SOL    HW132478   5.015   3.130   4.796
43527SOL    HW232479   4.975   3.159   4.653
43528SOL     OW32480   6.791  14.098   6.859
43528SOL    HW132481   6.764  14.007   6.869
43528SOL    HW232482   6.784  14.115   6.765
43529SOL     OW32483  14.698   9.643   5.726
43529SOL    HW132484  14.646   9.569   5.755
43529SOL    HW232485  14.751   9.608   5.654
43530SOL     OW32486   3.974   6.563   4.662
43530SOL    HW132487   4.057   6.580   4.616
43530SOL    HW232488   3.961   6.469   4.654
43531SOL     OW32489  14.566   6.842   5.479
43531SOL    HW132490  14.535   6.769   5.425
43531SOL    HW232491  14.493   6.904   5.481
43532SOL     OW32492  12.301   6.523  13.469
43532SOL    HW132493  12.266   6.446  13.514
43532SOL    HW232494  12.326   6.583  13.540
43533SOL     OW32495   5.049   5.800  14.745
43533SOL    HW132496   4.992   5.849  14.805
43533SOL    HW232497   5.131   5.788  14.794
43534SOL     OW32498  14.224   2.300   3.110
43534SOL    HW132499  14.180   2.381   3.086
43534SOL    HW232500  14.287   2.326   3.177
43535SOL     OW32501   0.568   4.517   5.826
43535SOL    HW132502   0.608   4.559   5.750
43535SOL    HW232503   0.477   4.503   5.801
43536SOL     OW32504  11.912   2.294   7.780
43536SOL    HW132505  11.824   2.257   7.782
43536SOL    HW232506  11.922   2.337   7.865
43537SOL     OW32507   9.163  10.011  12.673
43537SOL    HW132508   9.177   9.920  12.649
43537SOL    HW232509   9.107  10.008  12.750
43538SOL     OW32510  12.300   0.915   4.364
43538SOL    HW132511  12.227   0.868   4.405
43538SOL    HW232512  12.354   0.944   4.437
43539SOL     OW32513   3.389  14.312   1.731
43539SOL    HW132514   3.335  14.299   1.809
43539SOL    HW232515   3.467  14.259   1.747
43540SOL     OW32516   8.439   6.099  12.141
43540SOL    HW132517   8.526   6.106  12.179
43540SOL    HW232518   8.442   6.155  12.064
43541SOL     OW32519  13.720   7.799  10.994
43541SOL    HW132520  13.735   7.888  10.961
43541SOL    HW232521  13.652   7.763  10.937
43542SOL     OW32522   7.947   1.098   6.763
43542SOL    HW132523   8.007   1.065   6.829
43542SOL    HW232524   7.870   1.042   6.771
43543SOL     OW32525   8.602   3.588  12.369
43543SOL    HW132526   8.602   3.562  12.461
43543SOL    HW232527   8.686   3.556  12.336
43544SOL     OW32528   2.013   6.147   3.179
43544SOL    HW132529   1.980   6.060   3.158
43544SOL    HW232530   1.946   6.207   3.146
43545SOL     OW32531   5.908   8.833   6.508
43545SOL    HW132532   5.957   8.765   6.555
43545SOL    HW232533   5.847   8.868   6.572
43546SOL     OW32534  11.659   4.397  13.329
43546SOL    HW132535  11.600   4.441  13.268
43546SOL    HW232536  11.677   4.462  13.397
43547SOL     OW32537  10.002   3.631   3.923
43547SOL    HW132538   9.929   3.598   3.869
43547SOL    HW232539  10.068   3.658   3.859
43548SOL     OW32540   1.242   6.564  10.291
43548SOL    HW132541   1.204   6.548  10.205
43548SOL    HW232542   1.177   6.616  10.337
43549SOL     OW32543   5.284   9.602   4.717
43549SOL    HW132544   5.306   9.571   4.630
43549SOL    HW232545   5.191   9.624   4.713
43550SOL     OW32546   0.224   7.061   5.675
43550SOL    HW132547   0.286   6.988   5.681
43550SOL    HW232548   0.225   7.086   5.583
43551SOL     OW32549  12.253  11.729   8.938
43551SOL    HW132550  12.277  11.680   8.860
43551SOL    HW232551  12.310  11.694   9.007
43552SOL     OW32552   4.821   0.915  13.255
43552SOL    HW132553   4.902   0.907  13.205
43552SOL    HW232554   4.755   0.940  13.190
43553SOL     OW32555   5.472   4.420   8.086
43553SOL    HW132556   5.443   4.511   8.075
43553SOL    HW232557   5.518   4.419   8.170
43554SOL     OW32558   3.468  10.454  13.208
43554SOL    HW132559   3.498  10.525  13.151
43554SOL    HW232560   3.524  10.380  13.186
43555SOL     OW32561  10.439  11.225   4.123
43555SOL    HW132562  10.369  11.279   4.086
43555SOL    HW232563  10.431  11.239   4.217
43556SOL     OW32564   2.198   1.254   8.872
43556SOL    HW132565   2.168   1.225   8.958
43556SOL    HW232566   2.257   1.328   8.890
43557SOL     OW32567   9.410   1.962   8.803
43557SOL    HW132568   9.351   1.887   8.799
43557SOL    HW232569   9.493   1.928   8.769
43558SOL     OW32570   9.150   8.480   3.882
43558SOL    HW132571   9.112   8.549   3.936
43558SOL    HW232572   9.123   8.503   3.793
43559SOL     OW32573   7.684  12.396   2.433
43559SOL    HW132574   7.642  12.406   2.518
43559SOL    HW232575   7.759  12.456   2.436
43560SOL     OW32576  12.414   6.045  10.978
43560SOL    HW132577  12.414   6.038  11.073
43560SOL    HW232578  12.497   6.003  10.951
43561SOL     OW32579   6.129   0.346   7.174
43561SOL    HW132580   6.192   0.417   7.183
43561SOL    HW232581   6.127   0.327   7.080
43562SOL     OW32582   9.970  13.658   3.620
43562SOL    HW132583   9.927  13.591   3.567
43562SOL    HW232584   9.926  13.653   3.705
43563SOL     OW32585  14.405   0.447   1.739
43563SOL    HW132586  14.424   0.523   1.794
43563SOL    HW232587  14.481   0.438   1.682
43564SOL     OW32588   2.514  14.734   3.357
43564SOL    HW132589   2.582  14.709   3.420
43564SOL    HW232590   2.550  14.711   3.272
43565SOL     OW32591  12.422  13.706  13.890
43565SOL    HW132592  12.408  13.655  13.970
43565SOL    HW232593  12.359  13.669  13.827
43566SOL     OW32594  11.230   1.147   0.069
43566SOL    HW132595  11.229   1.238   0.098
43566SOL    HW232596  11.147   1.135   0.024
43567SOL     OW32597   2.490   3.503  12.299
43567SOL    HW132598   2.414   3.454  12.330
43567SOL    HW232599   2.562   3.474  12.356
43568SOL     OW32600   6.790   3.793   7.780
43568SOL    HW132601   6.734   3.862   7.815
43568SOL    HW232602   6.864   3.789   7.839
43569SOL     OW32603   2.733   0.583  14.250
43569SOL    HW132604   2.644   0.616  14.248
43569SOL    HW232605   2.781   0.637  14.187
43570SOL     OW32606   1.911  12.090   4.827
43570SOL    HW132607   1.840  12.148   4.801
43570SOL    HW232608   1.870  12.004   4.833
43571SOL     OW32609   2.697   1.878  13.515
43571SOL    HW132610   2.660   1.826  13.586
43571SOL    HW232611   2.741   1.815  13.459
43572SOL     OW32612   3.603  11.380   1.029
43572SOL    HW132613   3.573  11.459   0.983
43572SOL    HW232614   3.522  11.333   1.052
43573SOL     OW32615   0.961   1.503   7.640
43573SOL    HW132616   0.982   1.449   7.716
43573SOL    HW232617   0.987   1.450   7.565
43574SOL     OW32618   4.010  12.967  11.790
43574SOL    HW132619   4.038  13.011  11.710
43574SOL    HW232620   3.917  12.950  11.776
43575SOL     OW32621  14.819   5.228  13.404
43575SOL    HW132622  14.835   5.307  13.456
43575SOL    HW232623   0.027   5.207  13.366
43576SOL     OW32624   6.641  12.106   2.140
43576SOL    HW132625   6.673  12.146   2.059
43576SOL    HW232626   6.613  12.018   2.114
43577SOL     OW32627   0.382   7.099   8.381
43577SOL    HW132628   0.368   7.142   8.466
43577SOL    HW232629   0.306   7.125   8.329
43578SOL     OW32630   1.529   0.372   1.171
43578SOL    HW132631   1.526   0.458   1.212
43578SOL    HW232632   1.531   0.389   1.077
43579SOL     OW32633   6.067   7.389  11.401
43579SOL    HW132634   5.991   7.368  11.455
43579SOL    HW232635   6.072   7.484  11.403
43580SOL     OW32636   1.938   6.653  11.285
43580SOL    HW132637   2.002   6.631  11.216
43580SOL    HW232638   1.854   6.658  11.239
43581SOL     OW32639   2.771   6.071   2.184
43581SOL    HW132640   2.700   6.024   2.227
43581SOL    HW232641   2.819   6.003   2.137
43582SOL     OW32642   7.167  10.945   0.171
43582SOL    HW132643   7.144  11.022   0.222
43582SOL    HW232644   7.253  10.966   0.133
43583SOL     OW32645   7.591   6.211  14.755
43583SOL    HW132646   7.559   6.285  14.808
43583SOL    HW232647   7.602   6.140  14.818
43584SOL     OW32648   5.660   2.875  11.446
43584SOL    HW132649   5.607   2.854  11.523
43584SOL    HW232650   5.747   2.891  11.481
43585SOL     OW32651   4.235  11.253   6.080
43585SOL    HW132652   4.208  11.166   6.108
43585SOL    HW232653   4.301  11.280   6.144
43586SOL     OW32654   7.177   9.043  11.519
43586SOL    HW132655   7.201   8.966  11.467
43586SOL    HW232656   7.199   9.019  11.609
43587SOL     OW32657  10.393   6.447  14.001
43587SOL    HW132658  10.477   6.474  14.036
43587SOL    HW232659  10.402   6.352  13.988
43588SOL     OW32660   0.621   1.375   4.541
43588SOL    HW132661   0.546   1.407   4.490
43588SOL    HW232662   0.698   1.403   4.491
43589SOL     OW32663   3.355   6.890  11.721
43589SOL    HW132664   3.332   6.798  11.715
43589SOL    HW232665   3.272   6.936  11.731
43590SOL     OW32666   8.637   9.049   5.781
43590SOL    HW132667   8.627   9.066   5.687
43590SOL    HW232668   8.660   9.134   5.818
43591SOL     OW32669   5.614   9.537   9.508
43591SOL    HW132670   5.664   9.603   9.556
43591SOL    HW232671   5.676   9.501   9.444
43592SOL     OW32672  11.236  11.643   6.063
43592SOL    HW132673  11.319  11.597   6.055
43592SOL    HW232674  11.178  11.601   5.999
43593SOL     OW32675   3.149   4.613  12.809
43593SOL    HW132676   3.126   4.690  12.757
43593SOL    HW232677   3.068   4.590  12.854
43594SOL     OW32678   5.208   5.293   9.967
43594SOL    HW132679   5.268   5.242  10.022
43594SOL    HW232680   5.121   5.277  10.005
43595SOL     OW32681  12.709   0.433  10.081
43595SOL    HW132682  12.786   0.376  10.078
43595SOL    HW232683  12.745   0.522  10.074
43596SOL     OW32684   0.737  10.504   0.547
43596SOL    HW132685   0.694  10.423   0.573
43596SOL    HW232686   0.805  10.518   0.613
43597SOL     OW32687  11.780   8.095   6.727
43597SOL    HW132688  11.798   8.166   6.665
43597SOL    HW232689  11.804   8.130   6.812
43598SOL     OW32690   4.665  11.336   3.368
43598SOL    HW132691   4.581  11.289   3.373
43598SOL    HW232692   4.674  11.378   3.453
43599SOL     OW32693   0.755   2.316  11.649
43599SOL    HW132694   0.848   2.322  11.627
43599SOL    HW232695   0.736   2.223  11.648
43600SOL     OW32696   0.143   9.616   6.182
43600SOL    HW132697   0.075   9.553   6.205
43600SOL    HW232698   0.107   9.666   6.109
43601SOL     OW32699   4.243   8.992   3.093
43601SOL    HW132700   4.283   9.036   3.167
43601SOL    HW232701   4.199   9.061   3.044
43602SOL     OW32702  13.100  14.831   7.911
43602SOL    HW132703  13.037  14.813   7.981
43602SOL    HW232704  13.046  14.846   7.833
43603SOL     OW32705   0.497   6.175  11.220
43603SOL    HW132706   0.521   6.244  11.282
43603SOL    HW232707   0.413   6.204  11.185
43604SOL     OW32708   3.697   3.640   8.406
43604SOL    HW132709   3.629   3.572   8.412
43604SOL    HW232710   3.648   3.722   8.401
43605SOL     OW32711   2.574   4.104   0.278
43605SOL    HW132712   2.537   4.182   0.318
43605SOL    HW232713   2.502   4.065   0.229
43606SOL     OW32714   2.281  10.746   7.741
43606SOL    HW132715   2.197  10.725   7.783
43606SOL    HW232716   2.256  10.778   7.654
43607SOL     OW32717   5.251  13.117   4.231
43607SOL    HW132718   5.201  13.164   4.164
43607SOL    HW232719   5.245  13.172   4.309
43608SOL     OW32720  13.925   1.436  11.325
43608SOL    HW132721  14.004   1.443  11.271
43608SOL    HW232722  13.877   1.361  11.289
43609SOL     OW32723   2.617  14.771   5.781
43609SOL    HW132724   2.691  14.745   5.836
43609SOL    HW232725   2.630  14.724   5.699
43610SOL     OW32726   7.445   9.353   1.080
43610SOL    HW132727   7.469   9.381   1.168
43610SOL    HW232728   7.516   9.294   1.053
43611SOL     OW32729   9.547   4.612  13.396
43611SOL    HW132730   9.642   4.622  13.405
43611SOL    HW232731   9.513   4.624  13.485
43612SOL     OW32732   7.964   4.362   1.095
43612SOL    HW132733   7.876   4.400   1.099
43612SOL    HW232734   7.971   4.311   1.175
43613SOL     OW32735  14.724   4.512   3.327
43613SOL    HW132736  14.658   4.470   3.272
43613SOL    HW232737  14.674   4.558   3.394
43614SOL     OW32738  13.472   7.520   5.178
43614SOL    HW132739  13.382   7.501   5.150
43614SOL    HW232740  13.527   7.465   5.123
43615SOL     OW32741   7.607   2.216  10.633
43615SOL    HW132742   7.520   2.201  10.669
43615SOL    HW232743   7.631   2.304  10.663
43616SOL     OW32744   7.214  11.969   1.684
43616SOL    HW132745   7.258  11.985   1.601
43616SOL    HW232746   7.123  11.991   1.668
43617SOL     OW32747   8.696   3.099   1.304
43617SOL    HW132748   8.619   3.150   1.328
43617SOL    HW232749   8.762   3.124   1.369
43618SOL     OW32750   9.274   0.913   7.318
43618SOL    HW132751   9.225   0.988   7.284
43618SOL    HW232752   9.213   0.869   7.376
43619SOL     OW32753   8.631  10.920   3.031
43619SOL    HW132754   8.601  11.011   3.026
43619SOL    HW232755   8.596  10.887   3.113
43620SOL     OW32756  12.483   7.383  11.364
43620SOL    HW132757  12.392   7.356  11.362
43620SOL    HW232758  12.527   7.313  11.414
43621SOL     OW32759  10.189  13.673   0.337
43621SOL    HW132760  10.126  13.609   0.304
43621SOL    HW232761  10.242  13.696   0.261
43622SOL     OW32762   2.292   3.662  11.623
43622SOL    HW132763   2.354   3.733  11.609
43622SOL    HW232764   2.292   3.613  11.540
43623SOL     OW32765   3.093  11.347   8.708
43623SOL    HW132766   3.022  11.314   8.764
43623SOL    HW232767   3.082  11.299   8.626
43624SOL     OW32768   3.464   2.431   2.158
43624SOL    HW132769   3.433   2.384   2.235
43624SOL    HW232770   3.392   2.427   2.096
43625SOL     OW32771   1.637   1.518   9.791
43625SOL    HW132772   1.714   1.513   9.733
43625SOL    HW232773   1.663   1.580   9.859
43626SOL     OW32774   0.205  12.790   4.380
43626SOL    HW132775   0.145  12.816   4.450
43626SOL    HW232776   0.194  12.858   4.313
43627SOL     OW32777   2.138   7.137   2.412
43627SOL    HW132778   2.123   7.230   2.392
43627SOL    HW232779   2.228   7.121   2.381
43628SOL     OW32780   1.995  11.314   5.568
43628SOL    HW132781   2.073  11.280   5.525
43628SOL    HW232782   2.008  11.409   5.570
43629SOL     OW32783   9.875   8.200  10.767
43629SOL    HW132784   9.892   8.166  10.854
43629SOL    HW232785   9.962   8.203  10.725
43630SOL     OW32786   2.509   6.114   8.496
43630SOL    HW132787   2.524   6.027   8.533
43630SOL    HW232788   2.499   6.171   8.572
43631SOL     OW32789  13.738   2.466  12.084
43631SOL    HW132790  13.789   2.408  12.027
43631SOL    HW232791  13.712   2.412  12.158
43632SOL     OW32792   9.226   9.800  13.750
43632SOL    HW132793   9.187   9.738  13.812
43632SOL    HW232794   9.276   9.745  13.690
43633SOL     OW32795   3.734   1.018  10.097
43633SOL    HW132796   3.685   0.993  10.175
43633SOL    HW232797   3.696   1.102  10.071
43634SOL     OW32798   7.147   2.471   9.837
43634SOL    HW132799   7.211   2.513   9.894
43634SOL    HW232800   7.109   2.401   9.890
43635SOL     OW32801  13.511   5.402   2.064
43635SOL    HW132802  13.427   5.365   2.037
43635SOL    HW232803  13.505   5.410   2.159
43636SOL     OW32804   0.530  12.532   2.516
43636SOL    HW132805   0.506  12.557   2.426
43636SOL    HW232806   0.456  12.562   2.569
43637SOL     OW32807  12.228  12.216   3.602
43637SOL    HW132808  12.214  12.310   3.588
43637SOL    HW232809  12.195  12.175   3.523
43638SOL     OW32810   8.578   7.084   4.382
43638SOL    HW132811   8.486   7.062   4.374
43638SOL    HW232812   8.622   7.031   4.316
43639SOL     OW32813  14.097   0.167  13.860
43639SOL    HW132814  14.109   0.243  13.803
43639SOL    HW232815  14.164   0.178  13.928
43640SOL     OW32816   3.965   1.333   7.382
43640SOL    HW132817   4.014   1.291   7.453
43640SOL    HW232818   4.031   1.382   7.334
43641SOL     OW32819  12.474   9.657  12.269
43641SOL    HW132820  12.405   9.605  12.310
43641SOL    HW232821  12.442   9.676  12.181
43642SOL     OW32822   5.974   9.003   0.636
43642SOL    HW132823   6.019   8.999   0.551
43642SOL    HW232824   5.988   9.093   0.666
43643SOL     OW32825   7.049  10.995  14.702
43643SOL    HW132826   7.061  10.910  14.659
43643SOL    HW232827   7.129  11.043  14.681
43644SOL     OW32828  13.781   3.981   7.567
43644SOL    HW132829  13.836   3.929   7.508
43644SOL    HW232830  13.814   3.962   7.654
43645SOL     OW32831  14.335  10.189   0.364
43645SOL    HW132832  14.334  10.132   0.287
43645SOL    HW232833  14.251  10.172   0.408
43646SOL     OW32834  10.683  11.800   5.517
43646SOL    HW132835  10.599  11.838   5.546
43646SOL    HW232836  10.731  11.783   5.597
43647SOL     OW32837  11.691  12.945   0.638
43647SOL    HW132838  11.674  12.950   0.544
43647SOL    HW232839  11.731  12.859   0.652
43648SOL     OW32840   2.525   3.427  11.418
43648SOL    HW132841   2.436   3.462  11.422
43648SOL    HW232842   2.518   3.351  11.360
43649SOL     OW32843   5.957  12.004   2.869
43649SOL    HW132844   5.926  11.967   2.786
43649SOL    HW232845   5.883  12.054   2.902
43650SOL     OW32846   5.562  11.590  10.117
43650SOL    HW132847   5.542  11.508  10.162
43650SOL    HW232848   5.627  11.633  10.173
43651SOL     OW32849   4.418   7.201   5.728
43651SOL    HW132850   4.416   7.259   5.804
43651SOL    HW232851   4.326   7.187   5.706
43652SOL     OW32852   1.142   7.652   3.812
43652SOL    HW132853   1.107   7.682   3.728
43652SOL    HW232854   1.085   7.692   3.877
43653SOL     OW32855  13.982  10.391  14.164
43653SOL    HW132856  13.956  10.331  14.235
43653SOL    HW232857  14.077  10.397  14.171
43654SOL     OW32858   8.885   1.075   0.035
43654SOL    HW132859   8.884   1.040   0.124
43654SOL    HW232860   8.850   1.004  14.859
43655SOL     OW32861   1.574   0.456   5.166
43655SOL    HW132862   1.545   0.365   5.156
43655SOL    HW232863   1.558   0.475   5.258
43656SOL     OW32864   4.787   4.248   6.084
43656SOL    HW132865   4.858   4.233   6.023
43656SOL    HW232866   4.727   4.307   6.038
43657SOL     OW32867   8.385   4.027  13.498
43657SOL    HW132868   8.478   4.026  13.476
43657SOL    HW232869   8.345   3.962  13.441
43658SOL     OW32870   2.027   0.680   0.484
43658SOL    HW132871   2.008   0.587   0.492
43658SOL    HW232872   2.071   0.689   0.400
43659SOL     OW32873   1.277  12.643   7.487
43659SOL    HW132874   1.323  12.576   7.436
43659SOL    HW232875   1.185  12.615   7.487
43660SOL     OW32876   1.664   6.630   9.047
43660SOL    HW132877   1.609   6.586   9.112
43660SOL    HW232878   1.617   6.619   8.964
43661SOL     OW32879  10.232   9.419   6.393
43661SOL    HW132880  10.162   9.478   6.419
43661SOL    HW232881  10.313   9.467   6.412
43662SOL     OW32882   1.629   8.698   0.302
43662SOL    HW132883   1.621   8.780   0.350
43662SOL    HW232884   1.627   8.724   0.209
43663SOL     OW32885   9.896   7.129  14.605
43663SOL    HW132886   9.968   7.166  14.554
43663SOL    HW232887   9.886   7.040  14.573
43664SOL     OW32888   4.372  10.770   7.730
43664SOL    HW132889   4.445  10.771   7.668
43664SOL    HW232890   4.340  10.680   7.728
43665SOL     OW32891  13.414   3.472  12.628
43665SOL    HW132892  13.400   3.567  12.627
43665SOL    HW232893  13.333   3.436  12.662
43666SOL     OW32894   7.581  11.455  13.083
43666SOL    HW132895   7.502  11.457  13.029
43666SOL    HW232896   7.597  11.547  13.105
43667SOL     OW32897   9.236   4.710   8.525
43667SOL    HW132898   9.248   4.635   8.467
43667SOL    HW232899   9.146   4.702   8.555
43668SOL     OW32900   6.320   1.165   5.048
43668SOL    HW132901   6.252   1.197   4.989
43668SOL    HW232902   6.379   1.116   4.991
43669SOL     OW32903   4.622   2.816   5.101
43669SOL    HW132904   4.546   2.771   5.065
43669SOL    HW232905   4.691   2.749   5.102
43670SOL     OW32906  10.801   3.736   2.999
43670SOL    HW132907  10.826   3.653   2.958
43670SOL    HW232908  10.834   3.803   2.939
43671SOL     OW32909   1.276  13.413   0.040
43671SOL    HW132910   1.299  13.350  14.849
43671SOL    HW232911   1.189  13.446   0.014
43672SOL     OW32912   5.807   7.093   9.473
43672SOL    HW132913   5.873   7.024   9.466
43672SOL    HW232914   5.784   7.114   9.383
43673SOL     OW32915  10.998   9.228   1.609
43673SOL    HW132916  11.034   9.213   1.696
43673SOL    HW232917  11.008   9.145   1.563
43674SOL     OW32918  14.776   3.329  11.791
43674SOL    HW132919  14.764   3.407  11.845
43674SOL    HW232920  14.808   3.361  11.707
43675SOL     OW32921   2.591   2.777  12.056
43675SOL    HW132922   2.531   2.837  12.100
43675SOL    HW232923   2.660   2.834  12.020
43676SOL     OW32924  11.221  12.286   3.040
43676SOL    HW132925  11.150  12.227   3.014
43676SOL    HW232926  11.231  12.346   2.966
43677SOL     OW32927   5.156  14.334  11.465
43677SOL    HW132928   5.202  14.411  11.500
43677SOL    HW232929   5.210  14.260  11.494
43678SOL     OW32930   3.961   9.904   3.851
43678SOL    HW132931   3.932   9.988   3.887
43678SOL    HW232932   3.931   9.839   3.914
43679SOL     OW32933  12.334  14.816  10.197
43679SOL    HW132934  12.392  14.863  10.137
43679SOL    HW232935  12.250  14.863  10.191
43680SOL     OW32936   2.507   5.517   8.640
43680SOL    HW132937   2.541   5.456   8.705
43680SOL    HW232938   2.584   5.561   8.605
43681SOL     OW32939   6.417  13.607  11.299
43681SOL    HW132940   6.444  13.569  11.382
43681SOL    HW232941   6.339  13.657  11.319
43682SOL     OW32942   8.766   4.624   6.357
43682SOL    HW132943   8.729   4.547   6.399
43682SOL    HW232944   8.762   4.606   6.263
43683SOL     OW32945   8.921   8.637   3.994
43683SOL    HW132946   8.859   8.701   3.958
43683SOL    HW232947   9.004   8.684   3.998
43684SOL     OW32948   6.171   8.407   7.792
43684SOL    HW132949   6.194   8.393   7.884
43684SOL    HW232950   6.122   8.489   7.792
43685SOL     OW32951   1.928   6.418   2.027
43685SOL    HW132952   1.906   6.326   2.043
43685SOL    HW232953   1.853   6.467   2.059
43686SOL     OW32954   2.660   8.256   1.979
43686SOL    HW132955   2.702   8.247   1.894
43686SOL    HW232956   2.733   8.257   2.042
43687SOL     OW32957   9.661   5.473   3.685
43687SOL    HW132958   9.661   5.458   3.780
43687SOL    HW232959   9.601   5.407   3.650
43688SOL     OW32960   6.343  11.483   6.902
43688SOL    HW132961   6.354  11.491   6.997
43688SOL    HW232962   6.311  11.569   6.874
43689SOL     OW32963  10.804  13.503   0.025
43689SOL    HW132964  10.728  13.560   0.010
43689SOL    HW232965  10.872  13.561   0.059
43690SOL     OW32966   2.891  10.321   3.165
43690SOL    HW132967   2.918  10.277   3.084
43690SOL    HW232968   2.902  10.415   3.146
43691SOL     OW32969  13.156  12.905   6.094
43691SOL    HW132970  13.171  12.871   6.182
43691SOL    HW232971  13.134  12.997   6.107
43692SOL     OW32972   9.928  12.576   3.178
43692SOL    HW132973   9.895  12.507   3.234
43692SOL    HW232974   9.850  12.615   3.138
43693SOL     OW32975  12.704   7.791  10.018
43693SOL    HW132976  12.653   7.838  10.085
43693SOL    HW232977  12.784   7.842  10.009
43694SOL     OW32978  11.217  12.901   8.493
43694SOL    HW132979  11.308  12.932   8.494
43694SOL    HW232980  11.191  12.905   8.401
43695SOL     OW32981   8.418   7.878   8.712
43695SOL    HW132982   8.375   7.795   8.730
43695SOL    HW232983   8.494   7.855   8.658
43696SOL     OW32984  13.200   5.693  11.632
43696SOL    HW132985  13.211   5.761  11.699
43696SOL    HW232986  13.290   5.666  11.611
43697SOL     OW32987   4.284   3.491   3.740
43697SOL    HW132988   4.194   3.512   3.765
43697SOL    HW232989   4.294   3.398   3.757
43698SOL     OW32990  12.922   6.358  10.532
43698SOL    HW132991  12.848   6.372  10.473
43698SOL    HW232992  12.999   6.369  10.477
43699SOL     OW32993   2.897   1.601   5.031
43699SOL    HW132994   2.856   1.674   5.077
43699SOL    HW232995   2.986   1.631   5.013
43700SOL     OW32996   9.000  14.651   5.764
43700SOL    HW132997   8.991  14.612   5.677
43700SOL    HW232998   9.094  14.664   5.775
43701SOL     OW32999   7.504   3.849   1.010
43701SOL    HW133000   7.552   3.814   1.085
43701SOL    HW233001   7.517   3.784   0.941
43702SOL     OW33002  10.974  12.169   8.116
43702SOL    HW133003  10.977  12.076   8.093
43702SOL    HW233004  11.039  12.210   8.060
43703SOL     OW33005   6.371  12.018   2.677
43703SOL    HW133006   6.370  12.063   2.762
43703SOL    HW233007   6.393  11.927   2.699
43704SOL     OW33008  11.188   7.477   3.191
43704SOL    HW133009  11.162   7.450   3.279
43704SOL    HW233010  11.120   7.440   3.134
43705SOL     OW33011   5.582  11.440  13.610
43705SOL    HW133012   5.621  11.364  13.567
43705SOL    HW233013   5.544  11.491  13.538
43706SOL     OW33014   8.712  13.363  10.596
43706SOL    HW133015   8.736  13.383  10.686
43706SOL    HW233016   8.654  13.434  10.570
43707SOL     OW33017   6.568   1.948   4.292
43707SOL    HW133018   6.482   1.966   4.329
43707SOL    HW233019   6.604   2.034   4.272
43708SOL     OW33020   6.187   7.651   1.490
43708SOL    HW133021   6.153   7.562   1.495
43708SOL    HW233022   6.209   7.663   1.398
43709SOL     OW33023  12.281  12.952   1.238
43709SOL    HW133024  12.209  12.992   1.287
43709SOL    HW233025  12.241  12.920   1.157
43710SOL     OW33026  13.043   7.170   7.151
43710SOL    HW133027  13.080   7.254   7.125
43710SOL    HW233028  13.038   7.119   7.070
43711SOL     OW33029   6.803  14.170  14.303
43711SOL    HW133030   6.795  14.249  14.356
43711SOL    HW233031   6.812  14.099  14.367
43712SOL     OW33032   6.559   2.909   8.803
43712SOL    HW133033   6.628   2.955   8.757
43712SOL    HW233034   6.491   2.894   8.737
43713SOL     OW33035   9.507  11.013   9.687
43713SOL    HW133036   9.455  11.074   9.635
43713SOL    HW233037   9.502  11.048   9.776
43714SOL     OW33038   5.204   9.834   2.540
43714SOL    HW133039   5.135   9.894   2.566
43714SOL    HW233040   5.249   9.879   2.468
43715SOL     OW33041   4.529   2.212  12.600
43715SOL    HW133042   4.483   2.156  12.662
43715SOL    HW233043   4.621   2.206  12.626
43716SOL     OW33044  13.494   2.979  13.387
43716SOL    HW133045  13.564   3.020  13.336
43716SOL    HW233046  13.414   3.023  13.358
43717SOL     OW33047   4.304   4.187  13.622
43717SOL    HW133048   4.235   4.203  13.687
43717SOL    HW233049   4.265   4.213  13.539
43718SOL     OW33050  12.980  13.023   5.394
43718SOL    HW133051  12.947  12.939   5.424
43718SOL    HW233052  13.046  13.048   5.459
43719SOL     OW33053   2.942  10.426   6.102
43719SOL    HW133054   2.960  10.382   6.019
43719SOL    HW233055   2.851  10.457   6.094
43720SOL     OW33056   3.715   8.649   0.880
43720SOL    HW133057   3.715   8.744   0.872
43720SOL    HW233058   3.639   8.630   0.934
43721SOL     OW33059   4.252  11.885   2.041
43721SOL    HW133060   4.175  11.933   2.072
43721SOL    HW233061   4.266  11.818   2.107
43722SOL     OW33062   2.766   2.091   4.461
43722SOL    HW133063   2.681   2.048   4.455
43722SOL    HW233064   2.752   2.177   4.421
43723SOL     OW33065   6.989  10.102   0.653
43723SOL    HW133066   6.907  10.121   0.606
43723SOL    HW233067   7.024  10.025   0.609
43724SOL     OW33068   6.286   6.020   2.128
43724SOL    HW133069   6.336   5.967   2.190
43724SOL    HW233070   6.235   5.956   2.078
43725SOL     OW33071  11.180  10.607   6.884
43725SOL    HW133072  11.142  10.669   6.946
43725SOL    HW233073  11.274  10.610   6.902
43726SOL     OW33074   7.115   5.088   0.982
43726SOL    HW133075   7.022   5.078   0.999
43726SOL    HW233076   7.155   5.092   1.069
43727SOL     OW33077  12.773   5.399  12.788
43727SOL    HW133078  12.844   5.335  12.788
43727SOL    HW233079  12.787   5.451  12.867
43728SOL     OW33080   4.267  11.128   4.689
43728SOL    HW133081   4.196  11.083   4.643
43728SOL    HW233082   4.298  11.065   4.754
43729SOL     OW33083   2.076   3.763   8.083
43729SOL    HW133084   2.002   3.795   8.134
43729SOL    HW233085   2.130   3.841   8.067
43730SOL     OW33086  10.726  11.170   9.648
43730SOL    HW133087  10.808  11.183   9.599
43730SOL    HW233088  10.716  11.250   9.699
43731SOL     OW33089   4.449   6.086   6.936
43731SOL    HW133090   4.499   6.145   6.992
43731SOL    HW233091   4.365   6.129   6.924
43732SOL     OW33092  14.076  14.628   3.152
43732SOL    HW133093  14.140  14.684   3.195
43732SOL    HW233094  14.037  14.684   3.084
43733SOL     OW33095   8.941  12.540   9.668
43733SOL    HW133096   8.973  12.502   9.750
43733SOL    HW233097   8.847  12.555   9.683
43734SOL     OW33098   0.984   5.855  11.888
43734SOL    HW133099   0.942   5.806  11.958
43734SOL    HW233100   0.934   5.832  11.809
43735SOL     OW33101  10.333  13.109   5.508
43735SOL    HW133102  10.253  13.113   5.560
43735SOL    HW233103  10.351  13.016   5.498
43736SOL     OW33104   4.934   7.106   4.205
43736SOL    HW133105   4.948   7.177   4.268
43736SOL    HW233106   5.013   7.106   4.151
43737SOL     OW33107  12.564   1.254   6.171
43737SOL    HW133108  12.484   1.202   6.169
43737SOL    HW233109  12.614   1.216   6.244
43738SOL     OW33110  11.500  14.143   0.999
43738SOL    HW133111  11.467  14.224   1.038
43738SOL    HW233112  11.517  14.086   1.074
43739SOL     OW33113   0.663   2.569   8.075
43739SOL    HW133114   0.738   2.533   8.028
43739SOL    HW233115   0.663   2.662   8.052
43740SOL     OW33116  12.797  13.389   2.326
43740SOL    HW133117  12.877  13.433   2.353
43740SOL    HW233118  12.781  13.420   2.237
43741SOL     OW33119   9.998   0.639   5.033
43741SOL    HW133120   9.919   0.595   5.065
43741SOL    HW233121   9.970   0.729   5.016
43742SOL     OW33122   2.946  12.845  12.088
43742SOL    HW133123   2.881  12.911  12.062
43742SOL    HW233124   3.017  12.895  12.127
43743SOL     OW33125  14.659   2.339   5.083
43743SOL    HW133126  14.627   2.282   5.153
43743SOL    HW233127  14.736   2.294   5.049
43744SOL     OW33128  11.981   0.948   4.893
43744SOL    HW133129  11.920   0.920   4.825
43744SOL    HW233130  12.031   0.870   4.915
43745SOL     OW33131   2.653   1.800  13.816
43745SOL    HW133132   2.642   1.733  13.883
43745SOL    HW233133   2.748   1.808  13.806
43746SOL     OW33134   1.984   5.833   6.241
43746SOL    HW133135   2.061   5.796   6.283
43746SOL    HW233136   1.985   5.797   6.152
43747SOL     OW33137  13.454  13.846  11.136
43747SOL    HW133138  13.390  13.778  11.154
43747SOL    HW233139  13.536  13.812  11.172
43748SOL     OW33140  13.191  10.500   4.624
43748SOL    HW133141  13.246  10.504   4.546
43748SOL    HW233142  13.151  10.413   4.619
43749SOL     OW33143   6.862   6.825   0.881
43749SOL    HW133144   6.864   6.861   0.793
43749SOL    HW233145   6.910   6.743   0.875
43750SOL     OW33146   1.893   5.753   5.557
43750SOL    HW133147   1.863   5.742   5.647
43750SOL    HW233148   1.949   5.678   5.541
43751SOL     OW33149  13.193   3.937  14.359
43751SOL    HW133150  13.114   3.892  14.328
43751SOL    HW233151  13.253   3.866  14.382
43752SOL     OW33152   8.857   7.310   9.498
43752SOL    HW133153   8.940   7.332   9.456
43752SOL    HW233154   8.810   7.258   9.433
43753SOL     OW33155   8.650   4.545   4.518
43753SOL    HW133156   8.610   4.619   4.471
43753SOL    HW233157   8.578   4.507   4.569
43754SOL     OW33158  12.299   3.273   2.813
43754SOL    HW133159  12.340   3.355   2.841
43754SOL    HW233160  12.370   3.209   2.813
43755SOL     OW33161   8.991  10.176   7.945
43755SOL    HW133162   9.033  10.123   7.878
43755SOL    HW233163   8.989  10.265   7.908
43756SOL     OW33164  12.168   6.150   9.193
43756SOL    HW133165  12.073   6.140   9.192
43756SOL    HW233166  12.187   6.213   9.125
43757SOL     OW33167   6.700   2.061   6.291
43757SOL    HW133168   6.731   2.047   6.202
43757SOL    HW233169   6.779   2.060   6.345
43758SOL     OW33170   8.345  14.856  11.524
43758SOL    HW133171   8.424  14.847  11.470
43758SOL    HW233172   8.278   0.010  11.463
43759SOL     OW33173  10.815   6.833   5.476
43759SOL    HW133174  10.787   6.920   5.505
43759SOL    HW233175  10.776   6.773   5.540
43760SOL     OW33176  14.036   8.944  13.875
43760SOL    HW133177  14.086   8.929  13.955
43760SOL    HW233178  14.021   9.039  13.873
43761SOL     OW33179   5.547   7.436   0.299
43761SOL    HW133180   5.492   7.514   0.296
43761SOL    HW233181   5.573   7.423   0.208
43762SOL     OW33182   0.519   2.549  12.600
43762SOL    HW133183   0.504   2.456  12.586
43762SOL    HW233184   0.613   2.561  12.581
43763SOL     OW33185   9.974   4.156   8.805
43763SOL    HW133186   9.946   4.238   8.844
43763SOL    HW233187  10.070   4.159   8.808
43764SOL     OW33188   3.099   3.503  10.942
43764SOL    HW133189   3.113   3.465  11.028
43764SOL    HW233190   3.160   3.457  10.884
43765SOL     OW33191   5.110  13.927   7.236
43765SOL    HW133192   5.188  13.971   7.203
43765SOL    HW233193   5.090  13.861   7.169
43766SOL     OW33194   5.321   9.697   2.742
43766SOL    HW133195   5.410   9.704   2.710
43766SOL    HW233196   5.268   9.741   2.676
43767SOL     OW33197   8.515   0.982   9.068
43767SOL    HW133198   8.584   1.040   9.037
43767SOL    HW233199   8.558   0.924   9.130
43768SOL     OW33200   5.819   9.699   3.007
43768SOL    HW133201   5.734   9.695   3.051
43768SOL    HW233202   5.878   9.648   3.064
43769SOL     OW33203  14.800   0.653   7.878
43769SOL    HW133204  14.843   0.713   7.939
43769SOL    HW233205  14.816   0.566   7.915
43770SOL     OW33206   9.819   4.518   7.692
43770SOL    HW133207   9.835   4.580   7.620
43770SOL    HW233208   9.905   4.477   7.707
43771SOL     OW33209  10.940  12.078   7.635
43771SOL    HW133210  11.008  12.034   7.686
43771SOL    HW233211  10.872  12.100   7.699
43772SOL     OW33212  11.280  12.042   9.403
43772SOL    HW133213  11.311  12.094   9.477
43772SOL    HW233214  11.304  12.093   9.325
43773SOL     OW33215  13.891  12.273  14.461
43773SOL    HW133216  13.845  12.208  14.408
43773SOL    HW233217  13.869  12.357  14.421
43774SOL     OW33218  13.129   4.228   5.774
43774SOL    HW133219  13.215   4.213   5.735
43774SOL    HW233220  13.068   4.185   5.714
43775SOL     OW33221   9.733   1.486   5.462
43775SOL    HW133222   9.733   1.430   5.384
43775SOL    HW233223   9.677   1.560   5.438
43776SOL     OW33224  12.494  13.967   4.414
43776SOL    HW133225  12.408  13.963   4.372
43776SOL    HW233226  12.551  13.916   4.357
43777SOL     OW33227   7.741  14.644  11.991
43777SOL    HW133228   7.780  14.730  12.011
43777SOL    HW233229   7.720  14.648  11.898
43778SOL     OW33230  11.600   2.125   0.728
43778SOL    HW133231  11.548   2.205   0.717
43778SOL    HW233232  11.664   2.148   0.795
43779SOL     OW33233   0.511   0.656   1.978
43779SOL    HW133234   0.567   0.727   1.945
43779SOL    HW233235   0.533   0.581   1.923
43780SOL     OW33236   8.676   7.418   0.194
43780SOL    HW133237   8.635   7.457   0.271
43780SOL    HW233238   8.603   7.387   0.140
43781SOL     OW33239   4.457   7.612  11.035
43781SOL    HW133240   4.546   7.647  11.038
43781SOL    HW233241   4.430   7.605  11.127
43782SOL     OW33242  13.932   5.470   3.594
43782SOL    HW133243  13.882   5.388   3.592
43782SOL    HW233244  13.953   5.487   3.502
43783SOL     OW33245   5.096  13.639   6.171
43783SOL    HW133246   5.116  13.685   6.089
43783SOL    HW233247   5.160  13.674   6.233
43784SOL     OW33248   6.755   3.294  10.327
43784SOL    HW133249   6.675   3.282  10.378
43784SOL    HW233250   6.759   3.217  10.271
43785SOL     OW33251   3.029   0.214  10.877
43785SOL    HW133252   2.986   0.134  10.907
43785SOL    HW233253   2.987   0.284  10.928
43786SOL     OW33254  14.209  12.003   3.225
43786SOL    HW133255  14.213  11.931   3.163
43786SOL    HW233256  14.230  11.964   3.310
43787SOL     OW33257  14.162   7.935   6.362
43787SOL    HW133258  14.087   7.875   6.360
43787SOL    HW233259  14.237   7.879   6.382
43788SOL     OW33260   3.825   5.268  14.578
43788SOL    HW133261   3.768   5.191  14.579
43788SOL    HW233262   3.767   5.340  14.553
43789SOL     OW33263   9.594   9.920  14.225
43789SOL    HW133264   9.570   9.939  14.316
43789SOL    HW233265   9.689   9.920  14.225
43790SOL     OW33266   0.974  12.988  11.698
43790SOL    HW133267   1.002  12.912  11.749
43790SOL    HW233268   0.940  12.952  11.617
43791SOL     OW33269  12.019   6.082  10.527
43791SOL    HW133270  11.947   6.019  10.531
43791SOL    HW233271  12.022   6.121  10.614
43792SOL     OW33272   7.718  12.068  11.783
43792SOL    HW133273   7.786  12.099  11.724
43792SOL    HW233274   7.636  12.088  11.738
43793SOL     OW33275   6.425  13.447  14.433
43793SOL    HW133276   6.335  13.479  14.441
43793SOL    HW233277   6.417  13.352  14.434
43794SOL     OW33278   4.976  12.625  13.092
43794SOL    HW133279   5.041  12.682  13.050
43794SOL    HW233280   4.972  12.656  13.183
43795SOL     OW33281   9.622   6.550   9.277
43795SOL    HW133282   9.715   6.540   9.296
43795SOL    HW233283   9.604   6.484   9.210
43796SOL     OW33284   9.805   6.998   1.383
43796SOL    HW133285   9.721   7.026   1.418
43796SOL    HW233286   9.865   7.002   1.458
43797SOL     OW33287  11.632   2.656  10.042
43797SOL    HW133288  11.575   2.725  10.009
43797SOL    HW233289  11.720   2.682  10.015
43798SOL     OW33290   8.545   2.712   2.139
43798SOL    HW133291   8.498   2.775   2.085
43798SOL    HW233292   8.593   2.658   2.076
43799SOL     OW33293   3.729  13.291   0.064
43799SOL    HW133294   3.662  13.229   0.093
43799SOL    HW233295   3.790  13.237   0.013
43800SOL     OW33296   7.302   0.590   2.992
43800SOL    HW133297   7.302   0.514   2.934
43800SOL    HW233298   7.329   0.663   2.936
43801SOL     OW33299   7.353   4.822   5.555
43801SOL    HW133300   7.336   4.772   5.634
43801SOL    HW233301   7.378   4.757   5.490
43802SOL     OW33302   6.541  10.993  10.926
43802SOL    HW133303   6.572  11.012  11.015
43802SOL    HW233304   6.543  10.897  10.920
43803SOL     OW33305   2.216   7.570  12.502
43803SOL    HW133306   2.216   7.625  12.423
43803SOL    HW233307   2.140   7.513  12.491
43804SOL     OW33308   5.806   6.631   6.308
43804SOL    HW133309   5.876   6.684   6.272
43804SOL    HW233310   5.794   6.560   6.244
43805SOL     OW33311   3.630   3.251   1.914
43805SOL    HW133312   3.678   3.258   1.996
43805SOL    HW233313   3.611   3.157   1.906
43806SOL     OW33314   8.770  10.920   8.651
43806SOL    HW133315   8.769  10.898   8.744
43806SOL    HW233316   8.862  10.909   8.625
43807SOL     OW33317   2.180  14.462  12.893
43807SOL    HW133318   2.267  14.466  12.854
43807SOL    HW233319   2.132  14.533  12.851
43808SOL     OW33320   0.929  11.163   3.978
43808SOL    HW133321   1.010  11.209   4.000
43808SOL    HW233322   0.893  11.213   3.904
43809SOL     OW33323  12.569   8.725   5.210
43809SOL    HW133324  12.528   8.781   5.277
43809SOL    HW233325  12.630   8.783   5.165
43810SOL     OW33326   7.468   3.212  13.269
43810SOL    HW133327   7.547   3.163  13.291
43810SOL    HW233328   7.397   3.149  13.278
43811SOL     OW33329  12.694   7.669   1.141
43811SOL    HW133330  12.746   7.597   1.103
43811SOL    HW233331  12.619   7.625   1.181
43812SOL     OW33332   4.875   4.713   8.811
43812SOL    HW133333   4.880   4.802   8.847
43812SOL    HW233334   4.787   4.683   8.833
43813SOL     OW33335   0.497  10.631  13.063
43813SOL    HW133336   0.428  10.572  13.033
43813SOL    HW233337   0.579  10.585  13.045
43814SOL     OW33338  13.339  14.525   6.347
43814SOL    HW133339  13.290  14.452   6.307
43814SOL    HW233340  13.295  14.604   6.315
43815SOL     OW33341   6.393   6.634  12.735
43815SOL    HW133342   6.421   6.613  12.824
43815SOL    HW233343   6.439   6.572  12.679
43816SOL     OW33344   6.716   7.509   4.602
43816SOL    HW133345   6.741   7.418   4.620
43816SOL    HW233346   6.796   7.559   4.616
43817SOL     OW33347   0.857   8.745   3.366
43817SOL    HW133348   0.843   8.663   3.318
43817SOL    HW233349   0.769   8.779   3.381
43818SOL     OW33350  13.228  10.834   1.466
43818SOL    HW133351  13.308  10.789   1.437
43818SOL    HW233352  13.207  10.794   1.550
43819SOL     OW33353   8.690   9.245   0.884
43819SOL    HW133354   8.778   9.283   0.878
43819SOL    HW233355   8.693   9.188   0.961
43820SOL     OW33356   1.933  13.739   8.314
43820SOL    HW133357   2.025  13.742   8.342
43820SOL    HW233358   1.919  13.647   8.290
43821SOL     OW33359  12.638   0.905   9.811
43821SOL    HW133360  12.706   0.839   9.820
43821SOL    HW233361  12.611   0.899   9.719
43822SOL     OW33362   0.620   6.717  12.425
43822SOL    HW133363   0.697   6.668  12.455
43822SOL    HW233364   0.551   6.692  12.487
43823SOL     OW33365   9.407   3.287   1.666
43823SOL    HW133366   9.457   3.300   1.747
43823SOL    HW233367   9.431   3.361   1.610
43824SOL     OW33368   7.045   3.384   9.919
43824SOL    HW133369   6.989   3.394   9.842
43824SOL    HW233370   7.105   3.458   9.915
43825SOL     OW33371   3.396   9.190  10.253
43825SOL    HW133372   3.330   9.121  10.257
43825SOL    HW233373   3.393   9.231  10.340
43826SOL     OW33374   4.371   7.956  12.268
43826SOL    HW133375   4.442   7.934  12.329
43826SOL    HW233376   4.381   7.893  12.196
43827SOL     OW33377   1.612   4.618  13.884
43827SOL    HW133378   1.634   4.705  13.920
43827SOL    HW233379   1.549   4.582  13.947
43828SOL     OW33380   9.243   9.050   2.008
43828SOL    HW133381   9.211   9.075   1.922
43828SOL    HW233382   9.179   9.087   2.069
43829SOL     OW33383  12.171   5.944   9.662
43829SOL    HW133384  12.180   6.017   9.600
43829SOL    HW233385  12.076   5.933   9.672
43830SOL     OW33386  10.047   2.268   6.283
43830SOL    HW133387   9.995   2.331   6.334
43830SOL    HW233388  10.032   2.292   6.192
43831SOL     OW33389   5.193   0.482   1.049
43831SOL    HW133390   5.114   0.457   1.000
43831SOL    HW233391   5.247   0.403   1.049
43832SOL     OW33392   9.141   0.269  13.628
43832SOL    HW133393   9.125   0.179  13.599
43832SOL    HW233394   9.199   0.261  13.703
43833SOL     OW33395  11.466   5.274   5.137
43833SOL    HW133396  11.420   5.196   5.168
43833SOL    HW233397  11.519   5.243   5.064
43834SOL     OW33398   7.068  13.791  12.886
43834SOL    HW133399   7.156  13.758  12.866
43834SOL    HW233400   7.041  13.741  12.963
43835SOL     OW33401   6.205   7.458   2.739
43835SOL    HW133402   6.124   7.433   2.784
43835SOL    HW233403   6.235   7.536   2.785
43836SOL     OW33404   1.746   4.142  14.009
43836SOL    HW133405   1.750   4.216  14.068
43836SOL    HW233406   1.665   4.096  14.033
43837SOL     OW33407   9.254   9.883   8.627
43837SOL    HW133408   9.291   9.839   8.703
43837SOL    HW233409   9.322   9.878   8.561
43838SOL     OW33410   9.310  11.186  11.148
43838SOL    HW133411   9.376  11.117  11.142
43838SOL    HW233412   9.227  11.139  11.160
43839SOL     OW33413   4.884   2.549  12.741
43839SOL    HW133414   4.825   2.620  12.764
43839SOL    HW233415   4.950   2.550  12.811
43840SOL     OW33416   9.158   7.170   6.035
43840SOL    HW133417   9.192   7.183   5.946
43840SOL    HW233418   9.090   7.103   6.025
43841SOL     OW33419   0.323  11.344   8.842
43841SOL    HW133420   0.250  11.326   8.782
43841SOL    HW233421   0.400  11.348   8.785
43842SOL     OW33422   5.189   9.557  13.244
43842SOL    HW133423   5.131   9.633  13.238
43842SOL    HW233424   5.273   9.588  13.208
43843SOL     OW33425   4.213  12.957  14.649
43843SOL    HW133426   4.125  12.953  14.686
43843SOL    HW233427   4.271  12.939  14.722
43844SOL     OW33428  14.296   7.068  13.677
43844SOL    HW133429  14.337   7.055  13.592
43844SOL    HW233430  14.336   7.002  13.733
43845SOL     OW33431   9.884  10.615   2.024
43845SOL    HW133432   9.824  10.636   1.952
43845SOL    HW233433   9.968  10.652   1.996
43846SOL     OW33434  11.688  12.192   4.385
43846SOL    HW133435  11.782  12.196   4.402
43846SOL    HW233436  11.647  12.222   4.466
43847SOL     OW33437   7.154   5.716  13.617
43847SOL    HW133438   7.118   5.743  13.701
43847SOL    HW233439   7.169   5.797  13.569
43848SOL     OW33440   2.162  14.065  13.599
43848SOL    HW133441   2.112  14.002  13.546
43848SOL    HW233442   2.095  14.109  13.652
43849SOL     OW33443   7.328   5.695   8.887
43849SOL    HW133444   7.284   5.742   8.815
43849SOL    HW233445   7.420   5.692   8.860
43850SOL     OW33446  10.485   7.062  12.534
43850SOL    HW133447  10.430   7.017  12.598
43850SOL    HW233448  10.444   7.147  12.522
43851SOL     OW33449  14.145   3.951   5.402
43851SOL    HW133450  14.137   4.012   5.328
43851SOL    HW233451  14.110   3.868   5.369
43852SOL     OW33452   8.069   2.617   2.169
43852SOL    HW133453   8.160   2.610   2.198
43852SOL    HW233454   8.018   2.572   2.237
43853SOL     OW33455   5.116  14.459   0.458
43853SOL    HW133456   5.142  14.400   0.529
43853SOL    HW233457   5.023  14.439   0.443
43854SOL     OW33458  11.953   9.311   5.062
43854SOL    HW133459  11.986   9.395   5.030
43854SOL    HW233460  11.910   9.332   5.145
43855SOL     OW33461   6.542   6.522   8.559
43855SOL    HW133462   6.599   6.454   8.596
43855SOL    HW233463   6.601   6.594   8.537
43856SOL     OW33464   4.981  12.921  14.137
43856SOL    HW133465   5.044  12.963  14.077
43856SOL    HW233466   5.015  12.833  14.149
43857SOL     OW33467   1.726  12.386   7.123
43857SOL    HW133468   1.633  12.372   7.108
43857SOL    HW233469   1.768  12.355   7.043
43858SOL     OW33470   8.805   7.193   4.790
43858SOL    HW133471   8.745   7.135   4.836
43858SOL    HW233472   8.760   7.214   4.708
43859SOL     OW33473   4.030  13.023   2.865
43859SOL    HW133474   4.031  12.997   2.773
43859SOL    HW233475   4.078  12.954   2.910
43860SOL     OW33476  14.193   1.283   2.133
43860SOL    HW133477  14.155   1.221   2.071
43860SOL    HW233478  14.287   1.273   2.122
43861SOL     OW33479   7.849   9.836  11.762
43861SOL    HW133480   7.784   9.769  11.742
43861SOL    HW233481   7.826   9.868  11.849
43862SOL     OW33482   2.267   3.588  13.727
43862SOL    HW133483   2.305   3.561  13.811
43862SOL    HW233484   2.285   3.514  13.669
43863SOL     OW33485  14.154  12.232   5.519
43863SOL    HW133486  14.228  12.241   5.459
43863SOL    HW233487  14.077  12.224   5.462
43864SOL     OW33488   4.910   8.189   4.334
43864SOL    HW133489   4.847   8.151   4.272
43864SOL    HW233490   4.977   8.121   4.345
43865SOL     OW33491  11.049   7.781   3.852
43865SOL    HW133492  11.078   7.694   3.825
43865SOL    HW233493  11.005   7.816   3.775
43866SOL     OW33494  10.205  10.156  10.317
43866SOL    HW133495  10.143  10.128  10.384
43866SOL    HW233496  10.221  10.248  10.334
43867SOL     OW33497   6.400   0.704   5.199
43867SOL    HW133498   6.331   0.694   5.264
43867SOL    HW233499   6.456   0.773   5.234
43868SOL     OW33500  14.278   5.936   0.260
43868SOL    HW133501  14.205   5.993   0.235
43868SOL    HW233502  14.284   5.871   0.190
43869SOL     OW33503   0.118   3.265   7.232
43869SOL    HW133504   0.136   3.174   7.208
43869SOL    HW233505   0.201   3.298   7.267
43870SOL     OW33506  10.435   8.316  13.769
43870SOL    HW133507  10.428   8.348  13.678
43870SOL    HW233508  10.491   8.381  13.812
43871SOL     OW33509  14.197   4.048   7.115
43871SOL    HW133510  14.207   4.122   7.056
43871SOL    HW233511  14.111   4.012   7.095
43872SOL     OW33512   6.518   7.968   0.295
43872SOL    HW133513   6.455   7.998   0.230
43872SOL    HW233514   6.465   7.920   0.359
43873SOL     OW33515   6.640   0.176  13.597
43873SOL    HW133516   6.673   0.261  13.628
43873SOL    HW233517   6.615   0.192  13.506
43874SOL     OW33518   0.768   2.428   7.791
43874SOL    HW133519   0.782   2.430   7.696
43874SOL    HW233520   0.680   2.462   7.803
43875SOL     OW33521   5.140  12.218  11.977
43875SOL    HW133522   5.213  12.188  11.923
43875SOL    HW233523   5.107  12.295  11.931
43876SOL     OW33524  10.734   6.514   9.593
43876SOL    HW133525  10.817   6.513   9.640
43876SOL    HW233526  10.719   6.606   9.572
43877SOL     OW33527  12.201  10.420  10.671
43877SOL    HW133528  12.245  10.495  10.632
43877SOL    HW233529  12.259  10.346  10.653
43878SOL     OW33530   8.302   5.318   6.634
43878SOL    HW133531   8.246   5.240   6.626
43878SOL    HW233532   8.279   5.372   6.558
43879SOL     OW33533   7.164   4.727  11.682
43879SOL    HW133534   7.203   4.804  11.641
43879SOL    HW233535   7.211   4.718  11.765
43880SOL     OW33536   5.193   0.985  12.674
43880SOL    HW133537   5.201   0.932  12.595
43880SOL    HW233538   5.237   1.067  12.653
43881SOL     OW33539   9.215   1.697  14.540
43881SOL    HW133540   9.183   1.619  14.495
43881SOL    HW233541   9.248   1.753  14.469
43882SOL     OW33542   1.822  12.338   2.485
43882SOL    HW133543   1.731  12.368   2.488
43882SOL    HW233544   1.868  12.394   2.547
43883SOL     OW33545  10.500   8.100   4.582
43883SOL    HW133546  10.533   8.186   4.556
43883SOL    HW233547  10.410   8.097   4.548
43884SOL     OW33548   6.257   4.059  10.018
43884SOL    HW133549   6.265   4.074   9.924
43884SOL    HW233550   6.332   4.103  10.056
43885SOL     OW33551  14.743   7.944  14.748
43885SOL    HW133552  14.812   7.903  14.696
43885SOL    HW233553  14.664   7.937  14.693
43886SOL     OW33554   5.924  14.221  13.469
43886SOL    HW133555   5.840  14.183  13.440
43886SOL    HW233556   5.959  14.156  13.530
43887SOL     OW33557   4.222   5.689  14.498
43887SOL    HW133558   4.179   5.728  14.574
43887SOL    HW233559   4.302   5.649  14.533
43888SOL     OW33560   4.113   7.405   6.411
43888SOL    HW133561   4.158   7.424   6.493
43888SOL    HW233562   4.078   7.489   6.382
43889SOL     OW33563  10.993   2.897   6.882
43889SOL    HW133564  11.056   2.928   6.947
43889SOL    HW233565  11.047   2.873   6.806
43890SOL     OW33566  13.436  13.107   3.449
43890SOL    HW133567  13.384  13.029   3.470
43890SOL    HW233568  13.483  13.127   3.530
43891SOL     OW33569   9.431   2.760   5.648
43891SOL    HW133570   9.451   2.845   5.688
43891SOL    HW233571   9.354   2.728   5.695
43892SOL     OW33572  11.087  10.590   2.015
43892SOL    HW133573  11.083  10.619   2.106
43892SOL    HW233574  11.073  10.495   2.020
43893SOL     OW33575   4.902   1.530   1.398
43893SOL    HW133576   4.907   1.454   1.457
43893SOL    HW233577   4.808   1.544   1.386
43894SOL     OW33578   5.148  13.491   0.478
43894SOL    HW133579   5.086  13.428   0.513
43894SOL    HW233580   5.104  13.575   0.485
43895SOL     OW33581   8.798   5.506   2.169
43895SOL    HW133582   8.851   5.583   2.147
43895SOL    HW233583   8.710   5.528   2.140
43896SOL     OW33584  12.034   3.774   9.823
43896SOL    HW133585  12.124   3.792   9.799
43896SOL    HW233586  12.001   3.718   9.752
43897SOL     OW33587  12.344  14.417   0.305
43897SOL    HW133588  12.370  14.378   0.221
43897SOL    HW233589  12.343  14.511   0.288
43898SOL     OW33590   4.096   4.566   2.929
43898SOL    HW133591   4.050   4.629   2.873
43898SOL    HW233592   4.089   4.602   3.017
43899SOL     OW33593   1.613   9.034   6.309
43899SOL    HW133594   1.647   9.109   6.259
43899SOL    HW233595   1.590   8.970   6.242
43900SOL     OW33596  12.231   9.024  11.631
43900SOL    HW133597  12.291   8.984  11.694
43900SOL    HW233598  12.287   9.056  11.561
43901SOL     OW33599   8.231  13.577  12.972
43901SOL    HW133600   8.206  13.666  12.947
43901SOL    HW233601   8.326  13.574  12.960
43902SOL     OW33602  13.459   3.183   6.133
43902SOL    HW133603  13.503   3.102   6.157
43902SOL    HW233604  13.369   3.157   6.114
43903SOL     OW33605  12.283  12.474  11.284
43903SOL    HW133606  12.329  12.399  11.322
43903SOL    HW233607  12.352  12.528  11.245
43904SOL     OW33608  14.404   0.655   3.682
43904SOL    HW133609  14.354   0.608   3.749
43904SOL    HW233610  14.350   0.731   3.661
43905SOL     OW33611   0.773   7.409  11.425
43905SOL    HW133612   0.724   7.491  11.424
43905SOL    HW233613   0.742   7.362  11.347
43906SOL     OW33614  12.149   5.231  11.998
43906SOL    HW133615  12.207   5.297  12.036
43906SOL    HW233616  12.077   5.222  12.060
43907SOL     OW33617  10.378  10.345  13.503
43907SOL    HW133618  10.417  10.346  13.591
43907SOL    HW233619  10.387  10.436  13.472
43908SOL     OW33620   1.733  12.429   0.492
43908SOL    HW133621   1.668  12.481   0.443
43908SOL    HW233622   1.699  12.427   0.581
43909SOL     OW33623   8.542  13.012  12.752
43909SOL    HW133624   8.595  13.066  12.810
43909SOL    HW233625   8.464  13.065  12.734
43910SOL     OW33626   7.433   3.978  10.383
43910SOL    HW133627   7.397   3.945  10.300
43910SOL    HW233628   7.518   3.933  10.391
43911SOL     OW33629   6.801  13.239  14.821
43911SOL    HW133630   6.725  13.206  14.773
43911SOL    HW233631   6.814  13.328  14.788
43912SOL     OW33632   5.113   5.502  14.670
43912SOL    HW133633   5.103   5.592  14.639
43912SOL    HW233634   5.200   5.500  14.710
43913SOL     OW33635   1.808  13.536   3.236
43913SOL    HW133636   1.872  13.508   3.171
43913SOL    HW233637   1.786  13.626   3.211
43914SOL     OW33638  14.472   4.413   6.755
43914SOL    HW133639  14.458   4.507   6.753
43914SOL    HW233640  14.456   4.384   6.665
43915SOL     OW33641  10.234   4.210   0.686
43915SOL    HW133642  10.213   4.258   0.766
43915SOL    HW233643  10.328   4.198   0.689
43916SOL     OW33644   7.895  14.050   1.920
43916SOL    HW133645   7.874  14.138   1.953
43916SOL    HW233646   7.814  14.000   1.932
43917SOL     OW33647   6.334  14.146   7.719
43917SOL    HW133648   6.250  14.163   7.762
43917SOL    HW233649   6.383  14.228   7.729
43918SOL     OW33650  12.956   5.157  14.560
43918SOL    HW133651  12.873   5.200  14.579
43918SOL    HW233652  12.932   5.069  14.532
43919SOL     OW33653   1.993   1.925  12.247
43919SOL    HW133654   1.955   1.946  12.333
43919SOL    HW233655   2.009   1.831  12.250
43920SOL     OW33656   2.256  14.206   3.593
43920SOL    HW133657   2.345  14.241   3.583
43920SOL    HW233658   2.258  14.122   3.547
43921SOL     OW33659   0.538   9.809   7.653
43921SOL    HW133660   0.518   9.742   7.587
43921SOL    HW233661   0.621   9.781   7.690
43922SOL     OW33662  13.431   4.865  10.458
43922SOL    HW133663  13.488   4.815  10.517
43922SOL    HW233664  13.490   4.923  10.410
43923SOL     OW33665  10.760   6.457  12.365
43923SOL    HW133666  10.733   6.536  12.411
43923SOL    HW233667  10.735   6.385  12.423
43924SOL     OW33668   6.410   3.852   8.729
43924SOL    HW133669   6.481   3.916   8.728
43924SOL    HW233670   6.444   3.779   8.780
43925SOL     OW33671  13.765   8.904  13.575
43925SOL    HW133672  13.845   8.941  13.537
43925SOL    HW233673  13.714   8.980  13.603
43926SOL     OW33674  11.133   5.884  10.967
43926SOL    HW133675  11.106   5.925  11.050
43926SOL    HW233676  11.195   5.816  10.994
43927SOL     OW33677   5.132  13.090   1.922
43927SOL    HW133678   5.177  13.124   1.999
43927SOL    HW233679   5.158  13.150   1.852
43928SOL     OW33680   9.278   7.771   3.812
43928SOL    HW133681   9.267   7.680   3.785
43928SOL    HW233682   9.230   7.779   3.894
43929SOL     OW33683  14.066  12.033   7.172
43929SOL    HW133684  14.002  11.980   7.220
43929SOL    HW233685  14.070  12.115   7.221
43930SOL     OW33686   1.149   0.461   6.983
43930SOL    HW133687   1.074   0.460   7.042
43930SOL    HW233688   1.124   0.521   6.913
43931SOL     OW33689   7.760  11.488   6.490
43931SOL    HW133690   7.755  11.582   6.476
43931SOL    HW233691   7.676  11.454   6.457
43932SOL     OW33692   9.406   5.458   3.267
43932SOL    HW133693   9.427   5.498   3.182
43932SOL    HW233694   9.411   5.531   3.329
43933SOL     OW33695   8.795   4.094  14.111
43933SOL    HW133696   8.743   4.174  14.120
43933SOL    HW233697   8.845   4.088  14.192
43934SOL     OW33698   5.035   2.422   8.516
43934SOL    HW133699   5.062   2.352   8.456
43934SOL    HW233700   4.942   2.435   8.497
43935SOL     OW33701   4.178   5.479  10.118
43935SOL    HW133702   4.221   5.551  10.162
43935SOL    HW233703   4.138   5.519  10.040
43936SOL     OW33704   3.706   3.276  12.365
43936SOL    HW133705   3.695   3.334  12.289
43936SOL    HW233706   3.778   3.315  12.414
43937SOL     OW33707   7.274   6.095  13.150
43937SOL    HW133708   7.285   6.093  13.055
43937SOL    HW233709   7.321   6.174  13.178
43938SOL     OW33710   9.143   3.697   6.070
43938SOL    HW133711   9.160   3.769   6.132
43938SOL    HW233712   9.230   3.670   6.041
43939SOL     OW33713   7.274  12.114  12.707
43939SOL    HW133714   7.240  12.198  12.675
43939SOL    HW233715   7.227  12.099  12.789
43940SOL     OW33716   2.361   8.984   1.533
43940SOL    HW133717   2.300   8.918   1.499
43940SOL    HW233718   2.427   8.934   1.580
43941SOL     OW33719   2.662  11.218   1.315
43941SOL    HW133720   2.617  11.300   1.333
43941SOL    HW233721   2.753  11.244   1.298
43942SOL     OW33722  13.791   0.305   1.706
43942SOL    HW133723  13.853   0.298   1.779
43942SOL    HW233724  13.773   0.398   1.698
43943SOL     OW33725   0.548   2.098   3.205
43943SOL    HW133726   0.458   2.113   3.176
43943SOL    HW233727   0.579   2.024   3.153
43944SOL     OW33728   8.558  12.736   7.240
43944SOL    HW133729   8.639  12.735   7.291
43944SOL    HW233730   8.577  12.682   7.164
43945SOL     OW33731   6.516   2.482   3.346
43945SOL    HW133732   6.567   2.426   3.405
43945SOL    HW233733   6.472   2.420   3.287
43946SOL     OW33734  10.720  13.854   4.070
43946SOL    HW133735  10.652  13.915   4.042
43946SOL    HW233736  10.725  13.866   4.165
43947SOL     OW33737  10.991   1.897   1.237
43947SOL    HW133738  10.968   1.839   1.164
43947SOL    HW233739  10.914   1.953   1.248
43948SOL     OW33740  11.104  12.238   5.318
43948SOL    HW133741  11.171  12.185   5.274
43948SOL    HW233742  11.021  12.200   5.290
43949SOL     OW33743   5.079  11.789  14.480
43949SOL    HW133744   5.123  11.870  14.506
43949SOL    HW233745   5.079  11.735  14.558
43950SOL     OW33746   5.371  11.474   7.932
43950SOL    HW133747   5.326  11.557   7.947
43950SOL    HW233748   5.461  11.500   7.909
43951SOL     OW33749  12.739   6.299   8.753
43951SOL    HW133750  12.825   6.329   8.723
43951SOL    HW233751  12.724   6.346   8.835
43952SOL     OW33752  11.023   1.146  11.656
43952SOL    HW133753  11.055   1.140  11.566
43952SOL    HW233754  11.093   1.109  11.709
43953SOL     OW33755   4.645  14.154   8.923
43953SOL    HW133756   4.628  14.081   8.983
43953SOL    HW233757   4.571  14.152   8.862
43954SOL     OW33758   5.732   8.620   5.422
43954SOL    HW133759   5.689   8.705   5.419
43954SOL    HW233760   5.678   8.569   5.483
43955SOL     OW33761   4.644   0.877   3.735
43955SOL    HW133762   4.661   0.840   3.648
43955SOL    HW233763   4.577   0.944   3.720
43956SOL     OW33764  13.216   5.104   2.192
43956SOL    HW133765  13.155   5.177   2.182
43956SOL    HW233766  13.261   5.098   2.108
43957SOL     OW33767   2.737  10.611  10.883
43957SOL    HW133768   2.708  10.521  10.898
43957SOL    HW233769   2.821  10.617  10.929
43958SOL     OW33770   7.120   1.491  12.048
43958SOL    HW133771   7.043   1.542  12.021
43958SOL    HW233772   7.084   1.408  12.080
43959SOL     OW33773   2.680   9.952   3.778
43959SOL    HW133774   2.607   9.890   3.772
43959SOL    HW233775   2.688   9.989   3.691
43960SOL     OW33776   1.701   8.107   6.879
43960SOL    HW133777   1.651   8.065   6.948
43960SOL    HW233778   1.647   8.182   6.852
43961SOL     OW33779   5.002  10.879   9.150
43961SOL    HW133780   5.054  10.848   9.076
43961SOL    HW233781   5.062  10.936   9.199
43962SOL     OW33782   2.476   3.105  12.744
43962SOL    HW133783   2.540   3.037  12.764
43962SOL    HW233784   2.490   3.172  12.811
43963SOL     OW33785  12.137   7.363   0.568
43963SOL    HW133786  12.153   7.365   0.663
43963SOL    HW233787  12.204   7.422   0.532
43964SOL     OW33788   4.434  12.993   7.291
43964SOL    HW133789   4.529  13.001   7.297
43964SOL    HW233790   4.407  13.072   7.245
43965SOL     OW33791   6.492   3.562   2.720
43965SOL    HW133792   6.546   3.486   2.698
43965SOL    HW233793   6.555   3.634   2.728
43966SOL     OW33794   0.343  12.993  11.139
43966SOL    HW133795   0.262  12.949  11.114
43966SOL    HW233796   0.409  12.955  11.082
43967SOL     OW33797  12.077   1.115   6.785
43967SOL    HW133798  12.146   1.116   6.851
43967SOL    HW233799  12.039   1.028   6.792
43968SOL     OW33800   7.694  14.420   9.530
43968SOL    HW133801   7.678  14.468   9.612
43968SOL    HW233802   7.727  14.487   9.470
43969SOL     OW33803   8.609  11.954  11.308
43969SOL    HW133804   8.629  12.047  11.309
43969SOL    HW233805   8.670  11.917  11.244
43970SOL     OW33806  13.864  10.396   0.018
43970SOL    HW133807  13.816  10.437  14.824
43970SOL    HW233808  13.821  10.427   0.097
43971SOL     OW33809   1.317   1.997  12.602
43971SOL    HW133810   1.309   1.932  12.532
43971SOL    HW233811   1.335   1.945  12.680
43972SOL     OW33812  10.636   9.966   1.514
43972SOL    HW133813  10.614  10.057   1.490
43972SOL    HW233814  10.551   9.923   1.524
43973SOL     OW33815   0.347   7.858   5.226
43973SOL    HW133816   0.410   7.862   5.155
43973SOL    HW233817   0.381   7.918   5.293
43974SOL     OW33818  13.787   0.263  12.237
43974SOL    HW133819  13.696   0.290  12.223
43974SOL    HW233820  13.836   0.308  12.168
43975SOL     OW33821  12.161   8.427   9.725
43975SOL    HW133822  12.102   8.356   9.751
43975SOL    HW233823  12.185   8.470   9.807
43976SOL     OW33824   5.543  11.326   9.777
43976SOL    HW133825   5.617  11.278   9.739
43976SOL    HW233826   5.536  11.292   9.867
43977SOL     OW33827   1.112  14.309   1.495
43977SOL    HW133828   1.079  14.235   1.443
43977SOL    HW233829   1.204  14.289   1.508
43978SOL     OW33830  10.690  14.100   1.099
43978SOL    HW133831  10.656  14.013   1.079
43978SOL    HW233832  10.660  14.155   1.027
43979SOL     OW33833   6.722   5.683   9.646
43979SOL    HW133834   6.817   5.680   9.658
43979SOL    HW233835   6.692   5.744   9.713
43980SOL     OW33836   6.355  12.606   8.812
43980SOL    HW133837   6.273  12.560   8.791
43980SOL    HW233838   6.413  12.586   8.739
43981SOL     OW33839   1.762   0.262   4.846
43981SOL    HW133840   1.696   0.248   4.914
43981SOL    HW233841   1.712   0.297   4.772
43982SOL     OW33842   7.670  13.361   7.715
43982SOL    HW133843   7.634  13.307   7.644
43982SOL    HW233844   7.666  13.450   7.680
43983SOL     OW33845  11.009  11.830  10.037
43983SOL    HW133846  10.960  11.890   9.981
43983SOL    HW233847  11.013  11.875  10.122
43984SOL     OW33848  13.808   4.254   5.958
43984SOL    HW133849  13.879   4.304   5.917
43984SOL    HW233850  13.776   4.196   5.888
43985SOL     OW33851   6.000   5.360   4.575
43985SOL    HW133852   6.048   5.439   4.601
43985SOL    HW233853   6.066   5.306   4.531
43986SOL     OW33854   5.241   4.337   3.339
43986SOL    HW133855   5.295   4.342   3.260
43986SOL    HW233856   5.162   4.386   3.317
43987SOL     OW33857   0.977  13.504   4.135
43987SOL    HW133858   0.948  13.545   4.216
43987SOL    HW233859   0.968  13.572   4.068
43988SOL     OW33860  14.132   4.524   8.880
43988SOL    HW133861  14.208   4.567   8.919
43988SOL    HW233862  14.057   4.572   8.915
43989SOL     OW33863   0.094   3.385  13.330
43989SOL    HW133864   0.132   3.316  13.275
43989SOL    HW233865   0.059   3.338  13.406
43990SOL     OW33866  14.669  10.632   9.498
43990SOL    HW133867  14.670  10.725   9.520
43990SOL    HW233868  14.746  10.619   9.443
43991SOL     OW33869  12.066  13.147  13.546
43991SOL    HW133870  12.086  13.060  13.583
43991SOL    HW233871  12.152  13.187  13.533
43992SOL     OW33872   0.465   3.299  11.488
43992SOL    HW133873   0.462   3.205  11.503
43992SOL    HW233874   0.522   3.333  11.557
43993SOL     OW33875   2.833   4.505  11.739
43993SOL    HW133876   2.821   4.553  11.821
43993SOL    HW233877   2.778   4.428  11.748
43994SOL     OW33878  13.703   7.741  13.921
43994SOL    HW133879  13.725   7.677  13.988
43994SOL    HW233880  13.645   7.694  13.861
43995SOL     OW33881   3.326   2.173   6.019
43995SOL    HW133882   3.266   2.219   6.078
43995SOL    HW233883   3.269   2.139   5.950
43996SOL     OW33884   1.243   2.744  14.796
43996SOL    HW133885   1.208   2.705  14.876
43996SOL    HW233886   1.169   2.746  14.735
43997SOL     OW33887   9.702  10.803   0.025
43997SOL    HW133888   9.686  10.769  14.815
43997SOL    HW233889   9.791  10.838   0.022
43998SOL     OW33890  11.887   9.055   5.056
43998SOL    HW133891  11.936   9.137   5.051
43998SOL    HW233892  11.945   8.996   5.104
43999SOL     OW33893  11.556   1.967   8.963
43999SOL    HW133894  11.530   2.057   8.946
43999SOL    HW233895  11.547   1.957   9.058
44000SOL     OW33896   4.711   5.650   4.216
44000SOL    HW133897   4.791   5.697   4.241
44000SOL    HW233898   4.736   5.558   4.220
44001SOL     OW33899   8.225   2.634   1.054
44001SOL    HW133900   8.276   2.575   1.109
44001SOL    HW233901   8.203   2.582   0.976
44002SOL     OW33902  12.979   6.271   6.810
44002SOL    HW133903  12.997   6.193   6.862
44002SOL    HW233904  12.885   6.270   6.796
44003SOL     OW33905   9.164   9.308   6.006
44003SOL    HW133906   9.216   9.344   6.077
44003SOL    HW233907   9.082   9.357   6.009
44004SOL     OW33908  12.922   4.724   1.632
44004SOL    HW133909  12.840   4.727   1.683
44004SOL    HW233910  12.920   4.638   1.589
44005SOL     OW33911  12.974  11.623   6.054
44005SOL    HW133912  13.062  11.638   6.091
44005SOL    HW233913  12.944  11.542   6.096
44006SOL     OW33914   2.798   5.675  10.125
44006SOL    HW133915   2.786   5.583  10.147
44006SOL    HW233916   2.729   5.720  10.173
44007SOL     OW33917   4.847   4.459   3.966
44007SOL    HW133918   4.800   4.491   3.889
44007SOL    HW233919   4.781   4.453   4.034
44008SOL     OW33920   6.482   1.194   2.406
44008SOL    HW133921   6.481   1.170   2.314
44008SOL    HW233922   6.497   1.111   2.452
44009SOL     OW33923   3.238   5.124   6.398
44009SOL    HW133924   3.265   5.216   6.396
44009SOL    HW233925   3.165   5.120   6.337
44010SOL     OW33926  11.601  11.808   0.726
44010SOL    HW133927  11.604  11.881   0.788
44010SOL    HW233928  11.555  11.739   0.772
44011SOL     OW33929   7.625  14.188   5.203
44011SOL    HW133930   7.659  14.112   5.249
44011SOL    HW233931   7.565  14.230   5.265
44012SOL     OW33932   7.067  11.854   1.155
44012SOL    HW133933   7.094  11.763   1.163
44012SOL    HW233934   7.143  11.905   1.183
44013SOL     OW33935   3.662   2.603  13.496
44013SOL    HW133936   3.663   2.512  13.464
44013SOL    HW233937   3.666   2.656  13.417
44014SOL     OW33938   1.704   5.072   2.861
44014SOL    HW133939   1.762   4.996   2.851
44014SOL    HW233940   1.650   5.071   2.782
44015SOL     OW33941   2.773  13.410   8.958
44015SOL    HW133942   2.844  13.433   8.898
44015SOL    HW233943   2.776  13.314   8.963
44016SOL     OW33944   1.305   9.515   4.922
44016SOL    HW133945   1.394   9.542   4.946
44016SOL    HW233946   1.317   9.444   4.860
44017SOL     OW33947  13.744  10.150  10.586
44017SOL    HW133948  13.832  10.187  10.586
44017SOL    HW233949  13.753  10.065  10.630
44018SOL     OW33950   5.353   5.449   5.806
44018SOL    HW133951   5.407   5.389   5.754
44018SOL    HW233952   5.277   5.466   5.750
44019SOL     OW33953   0.554   1.586  10.057
44019SOL    HW133954   0.525   1.591   9.966
44019SOL    HW233955   0.484   1.538  10.101
44020SOL     OW33956  12.528  14.618  14.745
44020SOL    HW133957  12.567  14.553  14.686
44020SOL    HW233958  12.514  14.695  14.689
44021SOL     OW33959   7.536  14.136   3.512
44021SOL    HW133960   7.492  14.218   3.535
44021SOL    HW233961   7.594  14.118   3.586
44022SOL     OW33962   7.185   1.400   2.905
44022SOL    HW133963   7.265   1.348   2.900
44022SOL    HW233964   7.215   1.487   2.932
44023SOL     OW33965   2.588   4.729   9.590
44023SOL    HW133966   2.588   4.792   9.518
44023SOL    HW233967   2.641   4.656   9.557
44024SOL     OW33968  11.501   9.443   3.874
44024SOL    HW133969  11.491   9.349   3.889
44024SOL    HW233970  11.437   9.483   3.932
44025SOL     OW33971  12.129  14.432   5.779
44025SOL    HW133972  12.182  14.418   5.700
44025SOL    HW233973  12.125  14.345   5.820
44026SOL     OW33974   3.876   1.340   4.931
44026SOL    HW133975   3.824   1.295   4.998
44026SOL    HW233976   3.877   1.279   4.856
44027SOL     OW33977   9.474  13.271   7.324
44027SOL    HW133978   9.542  13.331   7.295
44027SOL    HW233979   9.460  13.293   7.416
44028SOL     OW33980   6.500  11.738   6.743
44028SOL    HW133981   6.557  11.714   6.815
44028SOL    HW233982   6.530  11.825   6.716
44029SOL     OW33983   3.594   0.679  10.509
44029SOL    HW133984   3.624   0.742  10.574
44029SOL    HW233985   3.582   0.598  10.557
44030SOL     OW33986   3.841  10.137   3.474
44030SOL    HW133987   3.837  10.233   3.467
44030SOL    HW233988   3.789  10.117   3.552
44031SOL     OW33989  13.523   4.875   3.061
44031SOL    HW133990  13.527   4.968   3.085
44031SOL    HW233991  13.456   4.871   2.993
44032SOL     OW33992   5.169   3.190  14.328
44032SOL    HW133993   5.155   3.189  14.422
44032SOL    HW233994   5.230   3.262  14.313
44033SOL     OW33995   5.475   3.643   8.302
44033SOL    HW133996   5.469   3.550   8.325
44033SOL    HW233997   5.569   3.662   8.301
44034SOL     OW33998   5.384   3.849  11.232
44034SOL    HW133999   5.442   3.915  11.194
44034SOL    HW234000   5.443   3.780  11.263
44035SOL     OW34001   4.168  12.340  12.318
44035SOL    HW134002   4.256  12.315  12.344
44035SOL    HW234003   4.112  12.271  12.352
44036SOL     OW34004   9.430  10.471   6.200
44036SOL    HW134005   9.392  10.441   6.282
44036SOL    HW234006   9.363  10.451   6.134
44037SOL     OW34007   4.973   7.925   4.905
44037SOL    HW134008   5.059   7.930   4.864
44037SOL    HW234009   4.970   7.838   4.944
44038SOL     OW34010  14.121   5.140   1.554
44038SOL    HW134011  14.111   5.180   1.468
44038SOL    HW234012  14.215   5.140   1.570
44039SOL     OW34013   2.158   3.920  14.239
44039SOL    HW134014   2.119   3.864  14.307
44039SOL    HW234015   2.165   3.862  14.163
44040SOL     OW34016   5.049   6.057   6.693
44040SOL    HW134017   4.967   6.009   6.706
44040SOL    HW234018   5.102   6.037   6.770
44041SOL     OW34019  11.523   4.716   3.567
44041SOL    HW134020  11.557   4.779   3.630
44041SOL    HW234021  11.428   4.722   3.575
44042SOL     OW34022   4.168   6.092  13.528
44042SOL    HW134023   4.230   6.025  13.558
44042SOL    HW234024   4.224   6.160  13.491
44043SOL     OW34025  12.356   7.254   5.630
44043SOL    HW134026  12.267   7.276   5.658
44043SOL    HW234027  12.406   7.254   5.711
44044SOL     OW34028   7.185   9.001  10.072
44044SOL    HW134029   7.230   8.938  10.130
44044SOL    HW234030   7.253   9.064  10.049
44045SOL     OW34031  14.667   8.599  13.415
44045SOL    HW134032  14.726   8.543  13.364
44045SOL    HW234033  14.723   8.639  13.481
44046SOL     OW34034   1.146  10.054   5.897
44046SOL    HW134035   1.093  10.084   5.823
44046SOL    HW234036   1.205  10.127   5.916
44047SOL     OW34037   5.607   6.078   2.424
44047SOL    HW134038   5.570   6.016   2.486
44047SOL    HW234039   5.675   6.029   2.378
44048SOL     OW34040   0.653   7.290  13.899
44048SOL    HW134041   0.562   7.270  13.878
44048SOL    HW234042   0.685   7.213  13.945
44049SOL     OW34043   7.131  11.102   7.985
44049SOL    HW134044   7.062  11.053   7.941
44049SOL    HW234045   7.212  11.054   7.964
44050SOL     OW34046   7.029  14.474   2.618
44050SOL    HW134047   7.124  14.476   2.628
44050SOL    HW234048   6.998  14.414   2.686
44051SOL     OW34049  13.378  13.001   7.250
44051SOL    HW134050  13.371  13.069   7.318
44051SOL    HW234051  13.401  13.049   7.171
44052SOL     OW34052  10.008  14.352   9.123
44052SOL    HW134053  10.068  14.425   9.142
44052SOL    HW234054  10.064  14.284   9.085
44053SOL     OW34055   1.069   0.653  11.843
44053SOL    HW134056   1.037   0.711  11.774
44053SOL    HW234057   1.003   0.585  11.851
44054SOL     OW34058   8.125  10.899  14.676
44054SOL    HW134059   8.195  10.840  14.647
44054SOL    HW234060   8.118  10.882  14.770
44055SOL     OW34061   1.549   5.284  11.873
44055SOL    HW134062   1.635   5.324  11.860
44055SOL    HW234063   1.540   5.279  11.969
44056SOL     OW34064  12.457   4.570  11.359
44056SOL    HW134065  12.391   4.502  11.350
44056SOL    HW234066  12.407   4.650  11.374
44057SOL     OW34067   0.491   2.474   7.728
44057SOL    HW134068   0.456   2.472   7.639
44057SOL    HW234069   0.468   2.561   7.761
44058SOL     OW34070   2.970  11.538  14.599
44058SOL    HW134071   2.966  11.459  14.545
44058SOL    HW234072   2.905  11.597  14.562
44059SOL     OW34073   3.781  11.694  13.366
44059SOL    HW134074   3.750  11.781  13.394
44059SOL    HW234075   3.748  11.685  13.277
44060SOL     OW34076   5.237   3.380  11.928
44060SOL    HW134077   5.217   3.287  11.919
44060SOL    HW234078   5.333   3.384  11.932
44061SOL     OW34079   2.617   2.818   3.976
44061SOL    HW134080   2.583   2.749   4.034
44061SOL    HW234081   2.703   2.785   3.949
44062SOL     OW34082   0.537  14.805   8.302
44062SOL    HW134083   0.568  14.851   8.224
44062SOL    HW234084   0.605  14.822   8.368
44063SOL     OW34085   2.641  14.491   2.168
44063SOL    HW134086   2.557  14.526   2.196
44063SOL    HW234087   2.636  14.491   2.072
44064SOL     OW34088  12.814   5.442   7.113
44064SOL    HW134089  12.831   5.352   7.085
44064SOL    HW234090  12.860   5.451   7.196
44065SOL     OW34091   9.989   0.703   0.176
44065SOL    HW134092   9.906   0.676   0.216
44065SOL    HW234093  10.055   0.652   0.224
44066SOL     OW34094   4.291   2.646   2.758
44066SOL    HW134095   4.357   2.709   2.730
44066SOL    HW234096   4.230   2.697   2.812
44067SOL     OW34097   0.631   3.002   8.276
44067SOL    HW134098   0.574   2.935   8.314
44067SOL    HW234099   0.697   3.018   8.343
44068SOL     OW34100  11.976  11.485   1.600
44068SOL    HW134101  11.980  11.486   1.696
44068SOL    HW234102  11.923  11.562   1.577
44069SOL     OW34103  13.487  10.377   9.663
44069SOL    HW134104  13.507  10.290   9.630
44069SOL    HW234105  13.433  10.417   9.594
44070SOL     OW34106   6.337   2.943  11.092
44070SOL    HW134107   6.398   3.013  11.071
44070SOL    HW234108   6.362   2.915  11.180
44071SOL     OW34109  14.821   7.216   3.515
44071SOL    HW134110  14.779   7.287   3.564
44071SOL    HW234111   0.000   7.173   3.579
44072SOL     OW34112   2.442  14.456   6.751
44072SOL    HW134113   2.531  14.421   6.751
44072SOL    HW234114   2.440  14.517   6.825
44073SOL     OW34115   0.315   5.274   3.323
44073SOL    HW134116   0.356   5.354   3.288
44073SOL    HW234117   0.302   5.293   3.416
44074SOL     OW34118   7.616   1.715   7.309
44074SOL    HW134119   7.652   1.783   7.252
44074SOL    HW234120   7.658   1.634   7.280
44075SOL     OW34121   1.188   4.528   9.912
44075SOL    HW134122   1.119   4.488   9.860
44075SOL    HW234123   1.259   4.463   9.912
44076SOL     OW34124   9.241   2.983   7.422
44076SOL    HW134125   9.290   2.919   7.474
44076SOL    HW234126   9.218   3.052   7.484
44077SOL     OW34127   1.579  13.377   4.037
44077SOL    HW134128   1.642  13.315   4.000
44077SOL    HW234129   1.523  13.401   3.963
44078SOL     OW34130   4.317  14.756   2.685
44078SOL    HW134131   4.367  14.760   2.603
44078SOL    HW234132   4.226  14.743   2.657
44079SOL     OW34133   7.025  12.972   0.217
44079SOL    HW134134   6.965  13.005   0.284
44079SOL    HW234135   7.094  12.926   0.266
44080SOL     OW34136  14.654   1.014   3.633
44080SOL    HW134137  14.609   0.993   3.715
44080SOL    HW234138  14.599   0.976   3.565
44081SOL     OW34139  13.555  10.610  10.512
44081SOL    HW134140  13.641  10.643  10.484
44081SOL    HW234141  13.574  10.526  10.554
44082SOL     OW34142   7.997   9.872   1.832
44082SOL    HW134143   8.019   9.821   1.754
44082SOL    HW234144   7.945   9.812   1.885
44083SOL     OW34145   3.382   1.034   2.119
44083SOL    HW134146   3.333   0.952   2.121
44083SOL    HW234147   3.440   1.025   2.043
44084SOL     OW34148   7.586  12.223   5.276
44084SOL    HW134149   7.628  12.198   5.194
44084SOL    HW234150   7.496  12.245   5.251
44085SOL     OW34151   5.959   4.311  10.676
44085SOL    HW134152   6.054   4.305  10.678
44085SOL    HW234153   5.932   4.250  10.608
44086SOL     OW34154   3.383   4.315  12.332
44086SOL    HW134155   3.412   4.388  12.278
44086SOL    HW234156   3.294   4.339  12.358
44087SOL     OW34157  12.312   2.459   7.206
44087SOL    HW134158  12.284   2.543   7.171
44087SOL    HW234159  12.259   2.446   7.284
44088SOL     OW34160  11.778   7.663   6.335
44088SOL    HW134161  11.848   7.649   6.271
44088SOL    HW234162  11.765   7.757   6.337
44089SOL     OW34163  14.092   9.461   3.272
44089SOL    HW134164  14.111   9.548   3.236
44089SOL    HW234165  14.005   9.470   3.310
44090SOL     OW34166   6.013   3.342   6.298
44090SOL    HW134167   6.082   3.294   6.251
44090SOL    HW234168   5.932   3.299   6.272
44091SOL     OW34169  11.473  14.034  13.133
44091SOL    HW134170  11.494  14.008  13.043
44091SOL    HW234171  11.403  14.098  13.124
44092SOL     OW34172   8.879   5.831   2.813
44092SOL    HW134173   8.903   5.823   2.720
44092SOL    HW234174   8.911   5.750   2.852
44093SOL     OW34175   8.726  10.277  13.028
44093SOL    HW134176   8.696  10.199  12.980
44093SOL    HW234177   8.701  10.351  12.973
44094SOL     OW34178  13.769  11.788   3.321
44094SOL    HW134179  13.741  11.700   3.295
44094SOL    HW234180  13.813  11.775   3.405
44095SOL     OW34181   7.964   1.529   0.446
44095SOL    HW134182   7.984   1.446   0.488
44095SOL    HW234183   7.924   1.582   0.514
44096SOL     OW34184   9.458   7.161  11.375
44096SOL    HW134185   9.374   7.114  11.378
44096SOL    HW234186   9.444   7.238  11.431
44097SOL     OW34187   1.080   6.106   8.741
44097SOL    HW134188   1.146   6.059   8.690
44097SOL    HW234189   1.062   6.185   8.689
44098SOL     OW34190   1.539   3.460   1.985
44098SOL    HW134191   1.546   3.454   1.889
44098SOL    HW234192   1.520   3.552   2.001
44099SOL     OW34193  11.989   0.641   9.483
44099SOL    HW134194  12.030   0.678   9.405
44099SOL    HW234195  12.028   0.554   9.492
44100SOL     OW34196   3.656   6.508   1.748
44100SOL    HW134197   3.573   6.508   1.795
44100SOL    HW234198   3.689   6.598   1.757
44101SOL     OW34199   0.888   9.164   5.118
44101SOL    HW134200   0.858   9.191   5.205
44101SOL    HW234201   0.827   9.206   5.057
44102SOL     OW34202  11.244  14.859   9.768
44102SOL    HW134203  11.338  14.875   9.774
44102SOL    HW234204  11.224  14.806   9.845
44103SOL     OW34205  12.159  14.396   1.504
44103SOL    HW134206  12.123  14.310   1.483
44103SOL    HW234207  12.188  14.431   1.420
44104SOL     OW34208   9.240  14.338  10.721
44104SOL    HW134209   9.303  14.393  10.767
44104SOL    HW234210   9.164  14.334  10.780
44105SOL     OW34211  14.850  14.065  14.789
44105SOL    HW134212   0.066  14.048  14.778
44105SOL    HW234213  14.816  13.985  14.830
44106SOL     OW34214   7.405   6.802   2.906
44106SOL    HW134215   7.424   6.872   2.843
44106SOL    HW234216   7.488   6.787   2.951
44107SOL     OW34217  11.217   2.577  12.332
44107SOL    HW134218  11.279   2.647  12.351
44107SOL    HW234219  11.266   2.496  12.346
44108SOL     OW34220  12.294  10.513  10.088
44108SOL    HW134221  12.344  10.433  10.075
44108SOL    HW234222  12.256  10.532  10.002
44109SOL     OW34223   9.439   6.029  11.800
44109SOL    HW134224   9.460   5.985  11.718
44109SOL    HW234225   9.344   6.032  11.803
44110SOL     OW34226   2.921  12.369   3.269
44110SOL    HW134227   2.884  12.378   3.357
44110SOL    HW234228   2.937  12.459   3.241
44111SOL     OW34229   2.132  11.037   2.233
44111SOL    HW134230   2.051  10.989   2.216
44111SOL    HW234231   2.111  11.091   2.310
44112SOL     OW34232   4.263   1.222   4.758
44112SOL    HW134233   4.303   1.228   4.671
44112SOL    HW234234   4.238   1.130   4.767
44113SOL     OW34235   7.084   0.833   4.963
44113SOL    HW134236   7.036   0.835   4.880
44113SOL    HW234237   7.147   0.904   4.957
44114SOL     OW34238   3.757   9.026   4.523
44114SOL    HW134239   3.684   9.044   4.464
44114SOL    HW234240   3.731   9.064   4.606
44115SOL     OW34241   4.437   4.142   1.113
44115SOL    HW134242   4.463   4.056   1.080
44115SOL    HW234243   4.519   4.184   1.138
44116SOL     OW34244  13.067   9.319   2.942
44116SOL    HW134245  13.122   9.272   3.006
44116SOL    HW234246  13.043   9.400   2.986
44117SOL     OW34247   0.359   7.924   4.131
44117SOL    HW134248   0.321   7.845   4.170
44117SOL    HW234249   0.306   7.996   4.166
44118SOL     OW34250   5.277   7.384  11.451
44118SOL    HW134251   5.295   7.392  11.545
44118SOL    HW234252   5.307   7.296  11.428
44119SOL     OW34253   8.010  14.570   2.328
44119SOL    HW134254   7.925  14.526   2.330
44119SOL    HW234255   8.047  14.547   2.243
44120SOL     OW34256  12.955   5.321   2.464
44120SOL    HW134257  12.946   5.370   2.546
44120SOL    HW234258  12.868   5.284   2.449
44121SOL     OW34259   8.273  11.568  13.209
44121SOL    HW134260   8.221  11.570  13.290
44121SOL    HW234261   8.300  11.477  13.201
44122SOL     OW34262  12.478   8.263  13.443
44122SOL    HW134263  12.556   8.228  13.399
44122SOL    HW234264  12.407   8.206  13.414
44123SOL     OW34265  11.271   3.761   0.837
44123SOL    HW134266  11.232   3.674   0.849
44123SOL    HW234267  11.345   3.762   0.898
44124SOL     OW34268   9.667   3.098   5.246
44124SOL    HW134269   9.745   3.140   5.282
44124SOL    HW234270   9.606   3.094   5.321
44125SOL     OW34271   9.368  10.753  14.784
44125SOL    HW134272   9.277  10.734  14.808
44125SOL    HW234273   9.413  10.670  14.793
44126SOL     OW34274  11.106   7.970  10.439
44126SOL    HW134275  11.102   8.055  10.395
44126SOL    HW234276  11.016   7.940  10.443
44127SOL     OW34277   2.582  14.464   4.495
44127SOL    HW134278   2.667  14.458   4.451
44127SOL    HW234279   2.541  14.543   4.459
44128SOL     OW34280  10.242  14.437  13.935
44128SOL    HW134281  10.277  14.522  13.961
44128SOL    HW234282  10.227  14.391  14.018
44129SOL     OW34283   8.714   1.028   6.819
44129SOL    HW134284   8.728   1.033   6.725
44129SOL    HW234285   8.620   1.011   6.828
44130SOL     OW34286   9.000  13.415   0.766
44130SOL    HW134287   8.910  13.401   0.736
44130SOL    HW234288   8.992  13.425   0.861
44131SOL     OW34289   6.896   1.631   0.872
44131SOL    HW134290   6.865   1.695   0.808
44131SOL    HW234291   6.817   1.589   0.905
44132SOL     OW34292   1.285   4.111   4.044
44132SOL    HW134293   1.192   4.098   4.066
44132SOL    HW234294   1.290   4.202   4.016
44133SOL     OW34295   8.095   4.852  10.141
44133SOL    HW134296   8.084   4.756  10.142
44133SOL    HW234297   8.023   4.883  10.086
44134SOL     OW34298  13.742  13.698  12.725
44134SOL    HW134299  13.804  13.644  12.675
44134SOL    HW234300  13.669  13.640  12.744
44135SOL     OW34301  10.163   4.184   6.546
44135SOL    HW134302  10.160   4.280   6.550
44135SOL    HW234303  10.126   4.156   6.630
44136SOL     OW34304   1.787   9.716   3.148
44136SOL    HW134305   1.857   9.725   3.212
44136SOL    HW234306   1.820   9.651   3.085
44137SOL     OW34307  10.578  13.204   7.025
44137SOL    HW134308  10.491  13.237   7.002
44137SOL    HW234309  10.623  13.280   7.062
44138SOL     OW34310   7.145   8.258   3.863
44138SOL    HW134311   7.216   8.237   3.802
44138SOL    HW234312   7.097   8.330   3.821
44139SOL     OW34313  13.648  11.646   2.645
44139SOL    HW134314  13.659  11.736   2.612
44139SOL    HW234315  13.729  11.629   2.693
44140SOL     OW34316  10.455  10.554   5.170
44140SOL    HW134317  10.459  10.646   5.193
44140SOL    HW234318  10.479  10.508   5.250
44141SOL     OW34319  12.341   0.765  14.387
44141SOL    HW134320  12.381   0.769  14.474
44141SOL    HW234321  12.372   0.682  14.351
44142SOL     OW34322   9.847   6.424  13.878
44142SOL    HW134323   9.783   6.493  13.896
44142SOL    HW234324   9.860   6.428  13.784
44143SOL     OW34325   0.345   8.378  12.307
44143SOL    HW134326   0.287   8.329  12.365
44143SOL    HW234327   0.336   8.336  12.221
44144SOL     OW34328   4.604  10.758   8.351
44144SOL    HW134329   4.564  10.775   8.436
44144SOL    HW234330   4.673  10.824   8.342
44145SOL     OW34331   8.370   8.151  11.315
44145SOL    HW134332   8.326   8.235  11.323
44145SOL    HW234333   8.375   8.135  11.221
44146SOL     OW34334   2.107   8.550   7.786
44146SOL    HW134335   2.114   8.594   7.702
44146SOL    HW234336   2.014   8.557   7.809
44147SOL     OW34337  10.654   1.248   4.736
44147SOL    HW134338  10.583   1.230   4.675
44147SOL    HW234339  10.695   1.163   4.750
44148SOL     OW34340  12.424   0.206  11.864
44148SOL    HW134341  12.491   0.228  11.800
44148SOL    HW234342  12.341   0.229  11.821
44149SOL     OW34343   4.789   4.565   4.745
44149SOL    HW134344   4.834   4.609   4.817
44149SOL    HW234345   4.799   4.472   4.764
44150SOL     OW34346  11.850   7.615  13.127
44150SOL    HW134347  11.778   7.567  13.087
44150SOL    HW234348  11.911   7.632  13.056
44151SOL     OW34349  10.292   5.897   9.603
44151SOL    HW134350  10.235   5.829   9.638
44151SOL    HW234351  10.232   5.966   9.573
44152SOL     OW34352   3.683   1.820   6.081
44152SOL    HW134353   3.774   1.793   6.094
44152SOL    HW234354   3.677   1.903   6.129
44153SOL     OW34355   1.671   8.422   6.707
44153SOL    HW134356   1.607   8.377   6.762
44153SOL    HW234357   1.656   8.387   6.619
44154SOL     OW34358  12.311   4.646   6.341
44154SOL    HW134359  12.253   4.723   6.335
44154SOL    HW234360  12.276   4.596   6.416
44155SOL     OW34361   5.044  14.523   9.150
44155SOL    HW134362   5.085  14.452   9.100
44155SOL    HW234363   5.107  14.594   9.148
44156SOL     OW34364   6.804  12.502  14.304
44156SOL    HW134365   6.788  12.411  14.327
44156SOL    HW234366   6.804  12.504  14.208
44157SOL     OW34367  11.521  13.748   1.118
44157SOL    HW134368  11.521  13.835   1.158
44157SOL    HW234369  11.488  13.762   1.030
44158SOL     OW34370  11.020  10.440  12.841
44158SOL    HW134371  10.949  10.491  12.880
44158SOL    HW234372  11.020  10.466  12.749
44159SOL     OW34373   1.495   3.956  11.097
44159SOL    HW134374   1.530   3.958  11.008
44159SOL    HW234375   1.571   3.975  11.153
44160SOL     OW34376  12.644   3.259   4.296
44160SOL    HW134377  12.699   3.314   4.351
44160SOL    HW234378  12.624   3.182   4.349
44161SOL     OW34379  14.309   9.699   6.473
44161SOL    HW134380  14.350   9.742   6.548
44161SOL    HW234381  14.280   9.771   6.417
44162SOL     OW34382   0.480   9.482  10.139
44162SOL    HW134383   0.404   9.504  10.086
44162SOL    HW234384   0.489   9.555  10.200
44163SOL     OW34385  12.897   0.486   0.354
44163SOL    HW134386  12.843   0.460   0.429
44163SOL    HW234387  12.845   0.553   0.309
44164SOL     OW34388   0.616   1.389  13.253
44164SOL    HW134389   0.681   1.433  13.198
44164SOL    HW234390   0.599   1.306  13.208
44165SOL     OW34391   5.387  13.322   5.610
44165SOL    HW134392   5.295  13.302   5.598
44165SOL    HW234393   5.415  13.360   5.526
44166SOL     OW34394   5.221   3.481   5.841
44166SOL    HW134395   5.165   3.558   5.828
44166SOL    HW234396   5.162   3.406   5.830
44167SOL     OW34397  10.307   0.487  13.679
44167SOL    HW134398  10.284   0.527  13.596
44167SOL    HW234399  10.331   0.560  13.736
44168SOL     OW34400   2.706   3.650   3.091
44168SOL    HW134401   2.748   3.737   3.089
44168SOL    HW234402   2.733   3.612   3.175
44169SOL     OW34403  10.786   0.700   1.400
44169SOL    HW134404  10.806   0.777   1.347
44169SOL    HW234405  10.816   0.724   1.488
44170SOL     OW34406  10.576   9.373   8.209
44170SOL    HW134407  10.494   9.397   8.166
44170SOL    HW234408  10.573   9.417   8.294
44171SOL     OW34409  11.675  14.593   4.397
44171SOL    HW134410  11.637  14.677   4.371
44171SOL    HW234411  11.644  14.531   4.331
44172SOL     OW34412  11.470   8.623   5.611
44172SOL    HW134413  11.498   8.657   5.526
44172SOL    HW234414  11.515   8.539   5.619
44173SOL     OW34415   0.683   0.841  10.191
44173SOL    HW134416   0.672   0.874  10.102
44173SOL    HW234417   0.686   0.920  10.245
44174SOL     OW34418   5.862   8.925  10.804
44174SOL    HW134419   5.861   8.965  10.890
44174SOL    HW234420   5.798   8.854  10.809
44175SOL     OW34421   6.393   6.468  11.633
44175SOL    HW134422   6.391   6.562  11.647
44175SOL    HW234423   6.301   6.441  11.635
44176SOL     OW34424   7.449   2.444   8.596
44176SOL    HW134425   7.396   2.390   8.655
44176SOL    HW234426   7.428   2.534   8.621
44177SOL     OW34427   8.411  10.745   5.628
44177SOL    HW134428   8.382  10.664   5.585
44177SOL    HW234429   8.344  10.809   5.607
44178SOL     OW34430   8.247   2.040   5.490
44178SOL    HW134431   8.209   1.987   5.420
44178SOL    HW234432   8.297   2.108   5.444
44179SOL     OW34433   4.250   0.050   2.913
44179SOL    HW134434   4.222   0.141   2.925
44179SOL    HW234435   4.248   0.036   2.819
44180SOL     OW34436   7.003   8.235  14.163
44180SOL    HW134437   7.019   8.306  14.101
44180SOL    HW234438   6.927   8.188  14.128
44181SOL     OW34439   3.235   9.499   8.807
44181SOL    HW134440   3.193   9.419   8.837
44181SOL    HW234441   3.268   9.477   8.719
44182SOL     OW34442  14.488  13.277  11.580
44182SOL    HW134443  14.487  13.230  11.663
44182SOL    HW234444  14.395  13.294  11.561
44183SOL     OW34445   8.372  10.795   8.972
44183SOL    HW134446   8.399  10.707   9.000
44183SOL    HW234447   8.419  10.854   9.031
44184SOL     OW34448  12.755   3.117   3.076
44184SOL    HW134449  12.845   3.140   3.053
44184SOL    HW234450  12.725   3.061   3.004
44185SOL     OW34451   0.961  10.592   0.033
44185SOL    HW134452   0.923  10.510   0.001
44185SOL    HW234453   1.043  10.567   0.074
44186SOL     OW34454   3.250  11.747   7.003
44186SOL    HW134455   3.316  11.679   7.014
44186SOL    HW234456   3.232  11.779   7.091
44187SOL     OW34457  11.920  12.690   5.370
44187SOL    HW134458  11.868  12.621   5.411
44187SOL    HW234459  11.878  12.771   5.399
44188SOL     OW34460  11.788  14.485  11.988
44188SOL    HW134461  11.821  14.538  12.060
44188SOL    HW234462  11.718  14.538  11.949
44189SOL     OW34463   9.950   1.246   3.190
44189SOL    HW134464   9.871   1.232   3.243
44189SOL    HW234465   9.983   1.331   3.220
44190SOL     OW34466   7.805   4.612  11.699
44190SOL    HW134467   7.721   4.607  11.745
44190SOL    HW234468   7.839   4.699  11.720
44191SOL     OW34469  10.581   8.457   8.792
44191SOL    HW134470  10.626   8.391   8.845
44191SOL    HW234471  10.652   8.502   8.745
44192SOL     OW34472   2.991   3.935   9.716
44192SOL    HW134473   3.063   3.874   9.696
44192SOL    HW234474   3.009   3.964   9.806
44193SOL     OW34475   1.881  10.619   6.147
44193SOL    HW134476   1.973  10.645   6.147
44193SOL    HW234477   1.835  10.696   6.181
44194SOL     OW34478  10.699   7.993  10.331
44194SOL    HW134479  10.636   8.038  10.276
44194SOL    HW234480  10.681   8.024  10.420
44195SOL     OW34481   4.540  11.880   4.949
44195SOL    HW134482   4.512  11.940   5.018
44195SOL    HW234483   4.469  11.817   4.942
44196SOL     OW34484   2.025   1.384  10.170
44196SOL    HW134485   2.000   1.322  10.102
44196SOL    HW234486   1.966   1.458  10.159
44197SOL     OW34487  14.375   9.762  14.294
44197SOL    HW134488  14.358   9.847  14.253
44197SOL    HW234489  14.470   9.759  14.303
44198SOL     OW34490   5.216   3.307   7.888
44198SOL    HW134491   5.137   3.322   7.941
44198SOL    HW234492   5.283   3.283   7.952
44199SOL     OW34493   2.741  12.252   9.623
44199SOL    HW134494   2.691  12.258   9.704
44199SOL    HW234495   2.722  12.333   9.577
44200SOL     OW34496   8.758   6.610   9.552
44200SOL    HW134497   8.691   6.638   9.614
44200SOL    HW234498   8.709   6.567   9.482
44201SOL     OW34499   8.112   8.332   3.583
44201SOL    HW134500   8.182   8.330   3.649
44201SOL    HW234501   8.080   8.422   3.585
44202SOL     OW34502   2.401   6.863   9.694
44202SOL    HW134503   2.456   6.791   9.726
44202SOL    HW234504   2.392   6.847   9.600
44203SOL     OW34505   1.261   2.455  14.336
44203SOL    HW134506   1.268   2.527  14.400
44203SOL    HW234507   1.341   2.405  14.347
44204SOL     OW34508  14.455   6.196   4.664
44204SOL    HW134509  14.543   6.229   4.643
44204SOL    HW234510  14.415   6.267   4.714
44205SOL     OW34511   5.887  12.801  12.081
44205SOL    HW134512   5.884  12.860  12.157
44205SOL    HW234513   5.961  12.743  12.099
44206SOL     OW34514   9.834  10.895  11.338
44206SOL    HW134515   9.786  10.815  11.355
44206SOL    HW234516   9.814  10.951  11.413
44207SOL     OW34517   9.287   7.335  10.202
44207SOL    HW134518   9.231   7.386  10.261
44207SOL    HW234519   9.366   7.388  10.193
44208SOL     OW34520   0.390  14.791   5.853
44208SOL    HW134521   0.373  14.704   5.816
44208SOL    HW234522   0.405  14.775   5.946
44209SOL     OW34523  13.132   6.686  14.609
44209SOL    HW134524  13.066   6.713  14.545
44209SOL    HW234525  13.102   6.600  14.639
44210SOL     OW34526  11.300   0.786  10.914
44210SOL    HW134527  11.370   0.840  10.951
44210SOL    HW234528  11.291   0.818  10.824
44211SOL     OW34529   0.116  11.058  14.362
44211SOL    HW134530   0.031  11.013  14.353
44211SOL    HW234531   0.143  11.039  14.452
44212SOL     OW34532   1.305   5.158   3.794
44212SOL    HW134533   1.306   5.131   3.885
44212SOL    HW234534   1.263   5.244   3.795
44213SOL     OW34535   1.353   8.845   3.787
44213SOL    HW134536   1.282   8.890   3.740
44213SOL    HW234537   1.311   8.810   3.866
44214SOL     OW34538   6.834  12.546   3.560
44214SOL    HW134539   6.836  12.605   3.634
44214SOL    HW234540   6.786  12.593   3.492
44215SOL     OW34541   4.380   7.544  14.121
44215SOL    HW134542   4.298   7.593  14.134
44215SOL    HW234543   4.405   7.517  14.209
44216SOL     OW34544   3.679   4.854   7.901
44216SOL    HW134545   3.710   4.767   7.925
44216SOL    HW234546   3.736   4.882   7.829
44217SOL     OW34547   0.257   5.283   2.013
44217SOL    HW134548   0.226   5.193   1.999
44217SOL    HW234549   0.268   5.290   2.108
44218SOL     OW34550  14.279   2.202  12.635
44218SOL    HW134551  14.370   2.233  12.629
44218SOL    HW234552  14.266   2.186  12.729
44219SOL     OW34553   6.803   0.329   1.732
44219SOL    HW134554   6.832   0.293   1.816
44219SOL    HW234555   6.731   0.273   1.705
44220SOL     OW34556   2.805  10.575  13.708
44220SOL    HW134557   2.893  10.613  13.707
44220SOL    HW234558   2.750  10.639  13.663
44221SOL     OW34559  10.548   7.882  13.756
44221SOL    HW134560  10.575   7.863  13.846
44221SOL    HW234561  10.468   7.831  13.744
44222SOL     OW34562   5.884   4.357   9.130
44222SOL    HW134563   5.932   4.429   9.170
44222SOL    HW234564   5.815   4.336   9.193
44223SOL     OW34565   3.240  12.355  14.415
44223SOL    HW134566   3.150  12.371  14.443
44223SOL    HW234567   3.285  12.322  14.493
44224SOL     OW34568   4.962   0.134   4.044
44224SOL    HW134569   4.956   0.061   3.982
44224SOL    HW234570   5.047   0.175   4.024
44225SOL     OW34571   1.078  11.712   5.328
44225SOL    HW134572   1.147  11.778   5.322
44225SOL    HW234573   1.042  11.723   5.416
44226SOL     OW34574   5.936   3.266   8.471
44226SOL    HW134575   5.978   3.347   8.442
44226SOL    HW234576   5.894   3.290   8.554
44227SOL     OW34577   4.271   7.036  10.752
44227SOL    HW134578   4.357   7.003  10.726
44227SOL    HW234579   4.251   7.102  10.686
44228SOL     OW34580   1.705   2.707   0.051
44228SOL    HW134581   1.755   2.764  14.870
44228SOL    HW234582   1.620   2.696   0.008
44229SOL     OW34583  14.239  10.689  11.623
44229SOL    HW134584  14.231  10.715  11.532
44229SOL    HW234585  14.319  10.733  11.654
44230SOL     OW34586   0.432  12.111   1.564
44230SOL    HW134587   0.409  12.034   1.617
44230SOL    HW234588   0.525  12.125   1.583
44231SOL     OW34589  14.460   9.774   8.328
44231SOL    HW134590  14.490   9.825   8.404
44231SOL    HW234591  14.540   9.742   8.287
44232SOL     OW34592   8.434   0.179  11.242
44232SOL    HW134593   8.441   0.172  11.147
44232SOL    HW234594   8.488   0.107  11.275
44233SOL     OW34595   6.588  14.564  13.378
44233SOL    HW134596   6.578  14.601  13.290
44233SOL    HW234597   6.525  14.611  13.432
44234SOL     OW34598  11.226   3.924   5.754
44234SOL    HW134599  11.266   3.921   5.667
44234SOL    HW234600  11.190   3.836   5.767
44235SOL     OW34601   3.685  13.568   1.736
44235SOL    HW134602   3.736  13.503   1.784
44235SOL    HW234603   3.636  13.518   1.671
44236SOL     OW34604  14.609  11.070  14.796
44236SOL    HW134605  14.660  10.990  14.786
44236SOL    HW234606  14.597  11.102  14.706
44237SOL     OW34607   6.821   0.921   5.330
44237SOL    HW134608   6.866   0.861   5.271
44237SOL    HW234609   6.882   0.933   5.403
44238SOL     OW34610   9.058   1.701   1.580
44238SOL    HW134611   9.070   1.782   1.530
44238SOL    HW234612   9.040   1.635   1.513
44239SOL     OW34613  14.716   0.008   1.649
44239SOL    HW134614  14.746  14.795   1.635
44239SOL    HW234615  14.642   0.018   1.590
44240SOL     OW34616  10.806   9.594   7.809
44240SOL    HW134617  10.776   9.545   7.732
44240SOL    HW234618  10.879   9.542   7.844
44241SOL     OW34619  13.564   9.569   0.013
44241SOL    HW134620  13.553   9.660   0.041
44241SOL    HW234621  13.642   9.571  14.835
44242SOL     OW34622   1.745   2.645   9.790
44242SOL    HW134623   1.685   2.571   9.797
44242SOL    HW234624   1.808   2.619   9.723
44243SOL     OW34625  10.609  10.231   1.817
44243SOL    HW134626  10.522  10.203   1.847
44243SOL    HW234627  10.591  10.299   1.753
44244SOL     OW34628  14.465  13.473  10.136
44244SOL    HW134629  14.407  13.452  10.063
44244SOL    HW234630  14.517  13.547  10.106
44245SOL     OW34631   0.548   7.208  13.108
44245SOL    HW134632   0.636   7.243  13.118
44245SOL    HW234633   0.507   7.220  13.193
44246SOL     OW34634   8.853  10.209   4.563
44246SOL    HW134635   8.763  10.177   4.570
44246SOL    HW234636   8.890  10.159   4.490
44247SOL     OW34637  11.768   6.054   7.350
44247SOL    HW134638  11.751   6.078   7.259
44247SOL    HW234639  11.859   6.024   7.351
44248SOL     OW34640  10.341   6.734   4.811
44248SOL    HW134641  10.344   6.823   4.847
44248SOL    HW234642  10.424   6.694   4.839
44249SOL     OW34643  10.371  14.093   7.965
44249SOL    HW134644  10.313  14.135   7.900
44249SOL    HW234645  10.374  14.155   8.037
44250SOL     OW34646  14.163   8.609   6.876
44250SOL    HW134647  14.221   8.535   6.893
44250SOL    HW234648  14.216   8.668   6.821
44251SOL     OW34649   2.412   9.238   6.490
44251SOL    HW134650   2.465   9.246   6.411
44251SOL    HW234651   2.473   9.207   6.557
44252SOL     OW34652  14.627   7.471   7.698
44252SOL    HW134653  14.541   7.430   7.686
44252SOL    HW234654  14.679   7.406   7.745
44253SOL     OW34655   2.640   2.254   7.282
44253SOL    HW134656   2.605   2.224   7.198
44253SOL    HW234657   2.678   2.175   7.321
44254SOL     OW34658   8.505   9.555   4.568
44254SOL    HW134659   8.537   9.500   4.639
44254SOL    HW234660   8.417   9.579   4.594
44255SOL     OW34661   6.830  14.861   7.263
44255SOL    HW134662   6.826  14.838   7.170
44255SOL    HW234663   6.819  14.778   7.309
44256SOL     OW34664   1.708  10.423   6.282
44256SOL    HW134665   1.714  10.386   6.370
44256SOL    HW234666   1.793  10.466   6.268
44257SOL     OW34667   9.404  10.273   5.723
44257SOL    HW134668   9.379  10.228   5.643
44257SOL    HW234669   9.385  10.210   5.793
44258SOL     OW34670   3.496   8.790   8.289
44258SOL    HW134671   3.483   8.882   8.264
44258SOL    HW234672   3.537   8.750   8.213
44259SOL     OW34673   6.824   7.092   2.988
44259SOL    HW134674   6.820   6.997   2.995
44259SOL    HW234675   6.769   7.112   2.912
44260SOL     OW34676   3.191   7.886  13.197
44260SOL    HW134677   3.265   7.948  13.197
44260SOL    HW234678   3.114   7.941  13.211
44261SOL     OW34679   3.951   8.156  12.885
44261SOL    HW134680   3.960   8.249  12.906
44261SOL    HW234681   3.922   8.115  12.966
44262SOL     OW34682   1.766  13.765   2.845
44262SOL    HW134683   1.778  13.674   2.869
44262SOL    HW234684   1.674  13.771   2.817
44263SOL     OW34685   6.232  11.112   4.833
44263SOL    HW134686   6.211  11.201   4.863
44263SOL    HW234687   6.149  11.078   4.799
44264SOL     OW34688   7.267   2.700  12.844
44264SOL    HW134689   7.272   2.785  12.887
44264SOL    HW234690   7.178   2.694  12.811
44265SOL     OW34691  13.920   1.605  13.407
44265SOL    HW134692  13.956   1.520  13.432
44265SOL    HW234693  13.984   1.642  13.348
44266SOL     OW34694  12.904   5.024  12.622
44266SOL    HW134695  12.972   4.963  12.649
44266SOL    HW234696  12.921   5.040  12.529
44267SOL     OW34697   9.929   7.687  10.051
44267SOL    HW134698   9.899   7.660  10.138
44267SOL    HW234699  10.011   7.733  10.066
44268SOL     OW34700  13.918   9.194  13.904
44268SOL    HW134701  13.895   9.262  13.841
44268SOL    HW234702  13.841   9.137  13.906
44269SOL     OW34703  14.191   5.234  11.055
44269SOL    HW134704  14.108   5.276  11.037
44269SOL    HW234705  14.200   5.238  11.151
44270SOL     OW34706  13.522  10.678  14.517
44270SOL    HW134707  13.609  10.648  14.491
44270SOL    HW234708  13.508  10.759  14.468
44271SOL     OW34709   3.396   1.780   5.049
44271SOL    HW134710   3.466   1.828   5.007
44271SOL    HW234711   3.381   1.826   5.132
44272SOL     OW34712  13.932  11.204  10.368
44272SOL    HW134713  14.021  11.190  10.398
44272SOL    HW234714  13.906  11.288  10.405
44273SOL     OW34715  14.106  10.431   3.244
44273SOL    HW134716  14.190  10.449   3.286
44273SOL    HW234717  14.094  10.337   3.253
44274SOL     OW34718  12.423   9.028   3.816
44274SOL    HW134719  12.512   8.996   3.829
44274SOL    HW234720  12.385   8.969   3.751
44275SOL     OW34721   6.874  12.541   0.396
44275SOL    HW134722   6.846  12.544   0.305
44275SOL    HW234723   6.806  12.588   0.444
44276SOL     OW34724   3.583  14.467   6.798
44276SOL    HW134725   3.677  14.469   6.780
44276SOL    HW234726   3.543  14.501   6.719
44277SOL     OW34727   6.197  11.793   8.697
44277SOL    HW134728   6.111  11.829   8.673
44277SOL    HW234729   6.225  11.744   8.620
44278SOL     OW34730   3.112   9.774   4.550
44278SOL    HW134731   3.206   9.779   4.564
44278SOL    HW234732   3.101   9.774   4.455
44279SOL     OW34733   9.331   9.637  14.462
44279SOL    HW134734   9.345   9.548  14.494
44279SOL    HW234735   9.344   9.632  14.367
44280SOL     OW34736   5.653   9.973   7.568
44280SOL    HW134737   5.593   9.963   7.643
44280SOL    HW234738   5.740   9.957   7.605
44281SOL     OW34739  14.131  11.882   1.227
44281SOL    HW134740  14.191  11.807   1.216
44281SOL    HW234741  14.053  11.857   1.177
44282SOL     OW34742   4.079   0.249   7.214
44282SOL    HW134743   4.105   0.174   7.161
44282SOL    HW234744   4.038   0.309   7.152
44283SOL     OW34745   7.884  11.371   9.595
44283SOL    HW134746   7.944  11.435   9.635
44283SOL    HW234747   7.797  11.401   9.622
44284SOL     OW34748  13.445   8.191   3.256
44284SOL    HW134749  13.495   8.202   3.337
44284SOL    HW234750  13.446   8.096   3.241
44285SOL     OW34751   9.096  13.189   2.132
44285SOL    HW134752   9.130  13.102   2.110
44285SOL    HW234753   9.073  13.183   2.224
44286SOL     OW34754   7.155   3.878   6.193
44286SOL    HW134755   7.164   3.802   6.136
44286SOL    HW234756   7.080   3.925   6.158
44287SOL     OW34757  14.563  12.507  12.136
44287SOL    HW134758  14.495  12.571  12.157
44287SOL    HW234759  14.582  12.463  12.219
44288SOL     OW34760   4.423   3.392  13.494
44288SOL    HW134761   4.378   3.397  13.579
44288SOL    HW234762   4.516   3.403  13.516
44289SOL     OW34763  12.245  10.122   0.506
44289SOL    HW134764  12.280  10.036   0.531
44289SOL    HW234765  12.297  10.148   0.430
44290SOL     OW34766  12.175   4.438   9.236
44290SOL    HW134767  12.251   4.473   9.281
44290SOL    HW234768  12.109   4.507   9.243
44291SOL     OW34769  12.786   9.841   4.655
44291SOL    HW134770  12.691   9.845   4.647
44291SOL    HW234771  12.810   9.922   4.700
44292SOL     OW34772   6.273   7.486  13.183
44292SOL    HW134773   6.358   7.466  13.144
44292SOL    HW234774   6.256   7.412  13.242
44293SOL     OW34775   4.418   7.131   1.404
44293SOL    HW134776   4.332   7.148   1.440
44293SOL    HW234777   4.444   7.214   1.363
44294SOL     OW34778   6.476   6.321   2.350
44294SOL    HW134779   6.560   6.360   2.374
44294SOL    HW234780   6.496   6.265   2.276
44295SOL     OW34781   4.114   3.227   4.494
44295SOL    HW134782   4.163   3.300   4.455
44295SOL    HW234783   4.110   3.248   4.587
44296SOL     OW34784  11.821  10.127   2.610
44296SOL    HW134785  11.729  10.099   2.611
44296SOL    HW234786  11.845  10.135   2.702
44297SOL     OW34787  14.153   5.964  14.074
44297SOL    HW134788  14.182   5.883  14.031
44297SOL    HW234789  14.092   6.004  14.011
44298SOL     OW34790   3.289  11.118   4.209
44298SOL    HW134791   3.344  11.166   4.148
44298SOL    HW234792   3.204  11.112   4.165
44299SOL     OW34793   8.812   0.784   2.277
44299SOL    HW134794   8.836   0.707   2.224
44299SOL    HW234795   8.734   0.757   2.324
44300SOL     OW34796  12.806   6.801  12.596
44300SOL    HW134797  12.788   6.776  12.686
44300SOL    HW234798  12.824   6.718  12.551
44301SOL     OW34799   7.556   2.666   3.637
44301SOL    HW134800   7.523   2.710   3.559
44301SOL    HW234801   7.624   2.607   3.604
44302SOL     OW34802   1.443   6.352   1.464
44302SOL    HW134803   1.440   6.257   1.455
44302SOL    HW234804   1.352   6.378   1.480
44303SOL     OW34805  13.615   7.490  10.413
44303SOL    HW134806  13.701   7.460  10.442
44303SOL    HW234807  13.605   7.453  10.325
44304SOL     OW34808  14.726  13.018  10.471
44304SOL    HW134809  14.812  12.987  10.443
44304SOL    HW234810  14.744  13.099  10.519
44305SOL     OW34811   1.397   1.351   3.512
44305SOL    HW134812   1.347   1.372   3.592
44305SOL    HW234813   1.349   1.279   3.472
44306SOL     OW34814   5.381   6.935   8.663
44306SOL    HW134815   5.416   6.888   8.738
44306SOL    HW234816   5.407   6.882   8.587
44307SOL     OW34817   7.065   4.905   6.652
44307SOL    HW134818   7.034   4.818   6.630
44307SOL    HW234819   7.099   4.897   6.741
44308SOL     OW34820  13.445   6.698   9.200
44308SOL    HW134821  13.528   6.652   9.215
44308SOL    HW234822  13.380   6.628   9.196
44309SOL     OW34823   6.868  10.567   0.595
44309SOL    HW134824   6.864  10.615   0.512
44309SOL    HW234825   6.959  10.541   0.603
44310SOL     OW34826   8.885   8.601   2.416
44310SOL    HW134827   8.919   8.601   2.327
44310SOL    HW234828   8.961   8.577   2.470
44311SOL     OW34829   7.363   7.636   2.460
44311SOL    HW134830   7.377   7.630   2.366
44311SOL    HW234831   7.344   7.729   2.476
44312SOL     OW34832   1.654   5.814  10.421
44312SOL    HW134833   1.668   5.862  10.339
44312SOL    HW234834   1.669   5.722  10.397
44313SOL     OW34835   0.390  10.324  10.913
44313SOL    HW134836   0.399  10.231  10.934
44313SOL    HW234837   0.436  10.369  10.983
44314SOL     OW34838   3.590   0.273  10.035
44314SOL    HW134839   3.522   0.325  10.078
44314SOL    HW234840   3.673   0.313  10.063
44315SOL     OW34841   8.540   0.780  14.154
44315SOL    HW134842   8.540   0.862  14.204
44315SOL    HW234843   8.449   0.750  14.156
44316SOL     OW34844  13.395   5.960   1.073
44316SOL    HW134845  13.332   5.948   1.144
44316SOL    HW234846  13.452   5.883   1.079
44317SOL     OW34847   6.646   5.026   1.255
44317SOL    HW134848   6.589   4.949   1.251
44317SOL    HW234849   6.606   5.089   1.194
44318SOL     OW34850  10.198   4.584   2.647
44318SOL    HW134851  10.106   4.604   2.627
44318SOL    HW234852  10.199   4.568   2.741
44319SOL     OW34853   7.225   5.268  14.343
44319SOL    HW134854   7.199   5.360  14.342
44319SOL    HW234855   7.151   5.222  14.305
44320SOL     OW34856   5.854  13.561  13.937
44320SOL    HW134857   5.890  13.649  13.923
44320SOL    HW234858   5.918  13.503  13.895
44321SOL     OW34859   6.962  12.080   8.735
44321SOL    HW134860   7.056  12.080   8.756
44321SOL    HW234861   6.924  12.145   8.795
44322SOL     OW34862  11.987  10.367   2.274
44322SOL    HW134863  12.064  10.378   2.330
44322SOL    HW234864  12.021  10.374   2.185
44323SOL     OW34865   9.289  14.740  12.042
44323SOL    HW134866   9.364  14.747  11.983
44323SOL    HW234867   9.286  14.824  12.088
44324SOL     OW34868   5.202   2.707  10.504
44324SOL    HW134869   5.200   2.748  10.591
44324SOL    HW234870   5.266   2.758  10.455
44325SOL     OW34871  13.211   2.492   9.365
44325SOL    HW134872  13.198   2.556   9.295
44325SOL    HW234873  13.137   2.432   9.357
44326SOL     OW34874   8.535   0.564   3.249
44326SOL    HW134875   8.464   0.500   3.240
44326SOL    HW234876   8.492   0.649   3.242
44327SOL     OW34877   8.710   3.452   1.596
44327SOL    HW134878   8.781   3.465   1.659
44327SOL    HW234879   8.631   3.447   1.650
44328SOL     OW34880   2.050   4.310   5.246
44328SOL    HW134881   2.054   4.235   5.304
44328SOL    HW234882   2.132   4.357   5.262
44329SOL     OW34883   4.058   1.446  12.401
44329SOL    HW134884   4.081   1.416  12.314
44329SOL    HW234885   4.049   1.366  12.453
44330SOL     OW34886   3.849  14.625  13.902
44330SOL    HW134887   3.855  14.692  13.834
44330SOL    HW234888   3.938  14.589  13.907
44331SOL     OW34889   7.945   9.084  14.116
44331SOL    HW134890   8.004   9.040  14.055
44331SOL    HW234891   7.972   9.176  14.113
44332SOL     OW34892   1.726  11.413   6.625
44332SOL    HW134893   1.757  11.457   6.705
44332SOL    HW234894   1.751  11.473   6.554
44333SOL     OW34895  11.054   0.796  10.719
44333SOL    HW134896  11.047   0.759  10.631
44333SOL    HW234897  10.979   0.760  10.766
44334SOL     OW34898  14.007   9.561  13.285
44334SOL    HW134899  13.990   9.568  13.191
44334SOL    HW234900  14.043   9.474  13.296
44335SOL     OW34901   4.419   2.946  13.589
44335SOL    HW134902   4.358   2.892  13.639
44335SOL    HW234903   4.491   2.963  13.648
44336SOL     OW34904  14.696   9.869   9.029
44336SOL    HW134905  14.730   9.867   8.939
44336SOL    HW234906  14.769   9.903   9.081
44337SOL     OW34907  10.435   9.096   6.937
44337SOL    HW134908  10.346   9.064   6.953
44337SOL    HW234909  10.491   9.029   6.977
44338SOL     OW34910   7.722  13.634   4.723
44338SOL    HW134911   7.713  13.729   4.727
44338SOL    HW234912   7.806  13.619   4.680
44339SOL     OW34913   6.121   3.159   4.906
44339SOL    HW134914   6.167   3.142   4.988
44339SOL    HW234915   6.180   3.126   4.838
44340SOL     OW34916   4.644   8.893  12.148
44340SOL    HW134917   4.653   8.798  12.137
44340SOL    HW234918   4.620   8.904  12.240
44341SOL     OW34919   8.125  12.019  12.484
44341SOL    HW134920   8.161  12.023  12.395
44341SOL    HW234921   8.202  12.002  12.539
44342SOL     OW34922   2.535  14.264  10.533
44342SOL    HW134923   2.614  14.315  10.516
44342SOL    HW234924   2.487  14.265  10.450
44343SOL     OW34925  14.383   1.849   8.198
44343SOL    HW134926  14.298   1.804   8.195
44343SOL    HW234927  14.428   1.809   8.273
44344SOL     OW34928  12.641   1.679  13.253
44344SOL    HW134929  12.703   1.695  13.324
44344SOL    HW234930  12.695   1.645  13.181
44345SOL     OW34931  11.215   9.479  13.621
44345SOL    HW134932  11.310   9.488  13.613
44345SOL    HW234933  11.188   9.558  13.667
44346SOL     OW34934  14.478   9.540   7.069
44346SOL    HW134935  14.562   9.528   7.025
44346SOL    HW234936  14.440   9.453   7.074
44347SOL     OW34937  12.735   1.688   7.295
44347SOL    HW134938  12.648   1.680   7.257
44347SOL    HW234939  12.783   1.743   7.233
44348SOL     OW34940   9.496  14.113   9.869
44348SOL    HW134941   9.493  14.017   9.863
44348SOL    HW234942   9.586  14.135   9.844
44349SOL     OW34943   2.281   0.058  12.813
44349SOL    HW134944   2.227   0.136  12.805
44349SOL    HW234945   2.371   0.089  12.807
44350SOL     OW34946   4.523   4.660   2.040
44350SOL    HW134947   4.491   4.617   1.961
44350SOL    HW234948   4.604   4.703   2.013
44351SOL     OW34949  13.045   0.901   4.112
44351SOL    HW134950  13.090   0.933   4.034
44351SOL    HW234951  13.016   0.813   4.088
44352SOL     OW34952   4.761  12.532   6.858
44352SOL    HW134953   4.721  12.587   6.791
44352SOL    HW234954   4.688  12.498   6.909
44353SOL     OW34955  14.436   3.823   1.230
44353SOL    HW134956  14.460   3.812   1.323
44353SOL    HW234957  14.515   3.799   1.182
44354SOL     OW34958   4.102  12.805   7.644
44354SOL    HW134959   4.031  12.869   7.646
44354SOL    HW234960   4.180  12.857   7.628
44355SOL     OW34961  13.379   6.530   3.286
44355SOL    HW134962  13.410   6.450   3.245
44355SOL    HW234963  13.311   6.563   3.227
44356SOL     OW34964  11.736   3.070   4.415
44356SOL    HW134965  11.774   3.115   4.340
44356SOL    HW234966  11.792   2.994   4.428
44357SOL     OW34967  14.481   8.830   1.748
44357SOL    HW134968  14.536   8.800   1.676
44357SOL    HW234969  14.497   8.924   1.753
44358SOL     OW34970  11.527  13.235   4.887
44358SOL    HW134971  11.457  13.249   4.823
44358SOL    HW234972  11.589  13.306   4.870
44359SOL     OW34973   4.050  10.480   1.308
44359SOL    HW134974   4.140  10.474   1.275
44359SOL    HW234975   3.997  10.496   1.231
44360SOL     OW34976   2.362  13.577   5.608
44360SOL    HW134977   2.408  13.501   5.644
44360SOL    HW234978   2.417  13.651   5.634
44361SOL     OW34979   6.217   3.641   1.154
44361SOL    HW134980   6.152   3.682   1.097
44361SOL    HW234981   6.301   3.680   1.128
44362SOL     OW34982  14.513   0.511  12.560
44362SOL    HW134983  14.578   0.554  12.505
44362SOL    HW234984  14.495   0.574  12.630
44363SOL     OW34985   6.914   9.102  11.553
44363SOL    HW134986   7.009   9.099  11.547
44363SOL    HW234987   6.891   9.188  11.517
44364SOL     OW34988   0.004  11.165  10.050
44364SOL    HW134989  14.860  11.139   9.961
44364SOL    HW234990  14.799  11.157  10.098
44365SOL     OW34991   0.596   7.970   1.558
44365SOL    HW134992   0.555   7.901   1.506
44365SOL    HW234993   0.539   7.979   1.635
44366SOL     OW34994   6.198   8.604   7.412
44366SOL    HW134995   6.226   8.624   7.322
44366SOL    HW234996   6.161   8.516   7.406
44367SOL     OW34997   5.861   7.123   3.651
44367SOL    HW134998   5.775   7.082   3.652
44367SOL    HW234999   5.916   7.063   3.600
44368SOL     OW35000   5.562   1.458   4.928
44368SOL    HW135001   5.647   1.503   4.926
44368SOL    HW235002   5.578   1.380   4.980
44369SOL     OW35003  13.717   1.194   7.058
44369SOL    HW135004  13.709   1.202   7.153
44369SOL    HW235005  13.664   1.117   7.036
44370SOL     OW35006   9.418   6.984   1.706
44370SOL    HW135007   9.433   6.959   1.615
44370SOL    HW235008   9.338   6.938   1.731
44371SOL     OW35009   2.343   9.727   1.233
44371SOL    HW135010   2.409   9.659   1.217
44371SOL    HW235011   2.354   9.789   1.160
44372SOL     OW35012  14.386  13.911   3.447
44372SOL    HW135013  14.476  13.926   3.420
44372SOL    HW235014  14.339  13.892   3.366
44373SOL     OW35015   4.963   7.073  14.461
44373SOL    HW135016   5.045   7.114  14.489
44373SOL    HW235017   4.920   7.141  14.408
44374SOL     OW35018   5.619   7.290  12.982
44374SOL    HW135019   5.638   7.327  13.068
44374SOL    HW235020   5.639   7.360  12.921
44375SOL     OW35021  14.401  12.283  10.505
44375SOL    HW135022  14.403  12.238  10.589
44375SOL    HW235023  14.470  12.241  10.454
44376SOL     OW35024  14.170  12.121   9.211
44376SOL    HW135025  14.243  12.064   9.236
44376SOL    HW235026  14.139  12.086   9.128
44377SOL     OW35027   2.234   5.072   5.408
44377SOL    HW135028   2.297   5.010   5.444
44377SOL    HW235029   2.287   5.135   5.360
44378SOL     OW35030   9.670   6.127  14.305
44378SOL    HW135031   9.578   6.147  14.289
44378SOL    HW235032   9.715   6.210  14.290
44379SOL     OW35033   4.442  13.190   4.526
44379SOL    HW135034   4.359  13.228   4.498
44379SOL    HW235035   4.421  13.144   4.608
44380SOL     OW35036   4.820   4.590   5.855
44380SOL    HW135037   4.837   4.504   5.815
44380SOL    HW235038   4.850   4.581   5.945
44381SOL     OW35039   2.694   6.561   3.656
44381SOL    HW135040   2.727   6.529   3.740
44381SOL    HW235041   2.715   6.491   3.594
44382SOL     OW35042   5.250   9.933   0.893
44382SOL    HW135043   5.219   9.963   0.978
44382SOL    HW235044   5.194   9.858   0.872
44383SOL     OW35045   5.890   3.437   5.754
44383SOL    HW135046   5.826   3.376   5.717
44383SOL    HW235047   5.933   3.388   5.824
44384SOL     OW35048   5.301   0.607   3.157
44384SOL    HW135049   5.249   0.554   3.096
44384SOL    HW235050   5.356   0.543   3.203
44385SOL     OW35051   1.720   7.886   9.121
44385SOL    HW135052   1.639   7.861   9.078
44385SOL    HW235053   1.698   7.889   9.214
44386SOL     OW35054   8.853   4.652   9.868
44386SOL    HW135055   8.842   4.558   9.855
44386SOL    HW235056   8.904   4.681   9.793
44387SOL     OW35057   1.610   2.726   1.729
44387SOL    HW135058   1.592   2.642   1.771
44387SOL    HW235059   1.561   2.790   1.780
44388SOL     OW35060  10.217  14.842   4.246
44388SOL    HW135061  10.301   0.011   4.239
44388SOL    HW235062  10.163   0.003   4.176
44389SOL     OW35063   3.343  12.470   8.742
44389SOL    HW135064   3.413  12.518   8.699
44389SOL    HW235065   3.344  12.502   8.833
44390SOL     OW35066  10.006  13.654   4.058
44390SOL    HW135067  10.053  13.713   4.117
44390SOL    HW235068   9.953  13.712   4.003
44391SOL     OW35069  12.992   1.214   8.164
44391SOL    HW135070  13.019   1.235   8.254
44391SOL    HW235071  12.899   1.194   8.171
44392SOL     OW35072   3.860  12.282   8.652
44392SOL    HW135073   3.779  12.254   8.696
44392SOL    HW235074   3.871  12.219   8.580
44393SOL     OW35075  13.715   3.817   2.993
44393SOL    HW135076  13.730   3.787   2.903
44393SOL    HW235077  13.648   3.758   3.027
44394SOL     OW35078   5.635  12.180  11.159
44394SOL    HW135079   5.665  12.240  11.227
44394SOL    HW235080   5.541  12.173  11.174
44395SOL     OW35081  14.305  13.487   0.330
44395SOL    HW135082  14.370  13.418   0.320
44395SOL    HW235083  14.305  13.533   0.246
44396SOL     OW35084  12.068   6.808   7.447
44396SOL    HW135085  12.084   6.831   7.539
44396SOL    HW235086  12.020   6.882   7.411
44397SOL     OW35087   6.854   2.355   7.916
44397SOL    HW135088   6.816   2.288   7.973
44397SOL    HW235089   6.834   2.437   7.960
44398SOL     OW35090   5.606  11.679   6.329
44398SOL    HW135091   5.598  11.751   6.266
44398SOL    HW235092   5.549  11.703   6.401
44399SOL     OW35093   7.982   1.308  13.786
44399SOL    HW135094   7.984   1.218  13.751
44399SOL    HW235095   8.054   1.352  13.741
44400SOL     OW35096   4.059   8.217   0.081
44400SOL    HW135097   4.113   8.169   0.018
44400SOL    HW235098   4.090   8.307   0.076
44401SOL     OW35099   6.958   0.335  12.469
44401SOL    HW135100   7.031   0.366  12.415
44401SOL    HW235101   6.890   0.401  12.457
44402SOL     OW35102   9.014  13.966  12.803
44402SOL    HW135103   8.946  13.958  12.736
44402SOL    HW235104   9.004  13.887  12.857
44403SOL     OW35105   1.297   2.706   7.736
44403SOL    HW135106   1.278   2.612   7.735
44403SOL    HW235107   1.378   2.713   7.787
44404SOL     OW35108   7.539  12.561   8.105
44404SOL    HW135109   7.578  12.648   8.100
44404SOL    HW235110   7.447  12.574   8.080
44405SOL     OW35111  11.529  11.144   5.443
44405SOL    HW135112  11.468  11.213   5.468
44405SOL    HW235113  11.532  11.086   5.519
44406SOL     OW35114   8.722   9.287  12.139
44406SOL    HW135115   8.797   9.236  12.170
44406SOL    HW235116   8.668   9.223  12.092
44407SOL     OW35117   5.611   8.301   0.879
44407SOL    HW135118   5.598   8.226   0.821
44407SOL    HW235119   5.684   8.348   0.839
44408SOL     OW35120   4.606  10.451   6.490
44408SOL    HW135121   4.653  10.396   6.426
44408SOL    HW235122   4.515  10.449   6.461
44409SOL     OW35123   2.479   5.776  10.122
44409SOL    HW135124   2.475   5.866  10.089
44409SOL    HW235125   2.529   5.728  10.056
44410SOL     OW35126   9.291   8.023  13.779
44410SOL    HW135127   9.237   7.974  13.716
44410SOL    HW235128   9.343   7.956  13.823
44411SOL     OW35129   8.938  13.328  13.183
44411SOL    HW135130   8.886  13.356  13.258
44411SOL    HW235131   9.027  13.359  13.203
44412SOL     OW35132   6.515  14.556   1.945
44412SOL    HW135133   6.438  14.608   1.969
44412SOL    HW235134   6.590  14.609   1.973
44413SOL     OW35135  13.779   0.966   7.487
44413SOL    HW135136  13.729   0.913   7.549
44413SOL    HW235137  13.861   0.917   7.474
44414SOL     OW35138   8.886   6.825  10.866
44414SOL    HW135139   8.877   6.773  10.946
44414SOL    HW235140   8.823   6.785  10.806
44415SOL     OW35141   0.986   7.303  11.513
44415SOL    HW135142   0.913   7.361  11.491
44415SOL    HW235143   0.980   7.292  11.608
44416SOL     OW35144   5.187  10.664   0.915
44416SOL    HW135145   5.237  10.587   0.942
44416SOL    HW235146   5.221  10.735   0.969
44417SOL     OW35147   9.617   5.749   5.152
44417SOL    HW135148   9.535   5.769   5.107
44417SOL    HW235149   9.676   5.820   5.129
44418SOL     OW35150  13.929  11.799   8.472
44418SOL    HW135151  13.906  11.882   8.514
44418SOL    HW235152  13.845  11.763   8.442
44419SOL     OW35153   0.794   8.954  14.038
44419SOL    HW135154   0.857   9.027  14.036
44419SOL    HW235155   0.814   8.903  13.960
44420SOL     OW35156  11.935  13.775   8.116
44420SOL    HW135157  11.991  13.835   8.067
44420SOL    HW235158  11.973  13.688   8.101
44421SOL     OW35159   3.351   3.762  11.143
44421SOL    HW135160   3.416   3.694  11.127
44421SOL    HW235161   3.321   3.746  11.232
44422SOL     OW35162  12.723   3.887   6.640
44422SOL    HW135163  12.747   3.969   6.682
44422SOL    HW235164  12.699   3.912   6.550
44423SOL     OW35165   7.131   5.375  13.276
44423SOL    HW135166   7.188   5.416  13.341
44423SOL    HW235167   7.152   5.282  13.280
44424SOL     OW35168   6.729  13.566   7.884
44424SOL    HW135169   6.805  13.609   7.922
44424SOL    HW235170   6.764  13.487   7.842
44425SOL     OW35171   4.411   1.481   8.911
44425SOL    HW135172   4.496   1.514   8.881
44425SOL    HW235173   4.429   1.392   8.939
44426SOL     OW35174   9.571  14.337  14.045
44426SOL    HW135175   9.580  14.259  14.100
44426SOL    HW235176   9.654  14.383  14.054
44427SOL     OW35177   0.802   9.123  12.951
44427SOL    HW135178   0.747   9.201  12.959
44427SOL    HW235179   0.804   9.105  12.857
44428SOL     OW35180  11.288   3.875  10.134
44428SOL    HW135181  11.346   3.951  10.125
44428SOL    HW235182  11.216   3.906  10.187
44429SOL     OW35183   4.719  14.867   1.881
44429SOL    HW135184   4.768  14.866   1.799
44429SOL    HW235185   4.636  14.823   1.860
44430SOL     OW35186   8.949   2.760   9.541
44430SOL    HW135187   8.944   2.854   9.558
44430SOL    HW235188   8.993   2.724   9.618
44431SOL     OW35189   4.283  10.172   8.857
44431SOL    HW135190   4.373  10.200   8.872
44431SOL    HW235191   4.258  10.215   8.775
44432SOL     OW35192   0.001  12.303  12.787
44432SOL    HW135193   0.080  12.356  12.774
44432SOL    HW235194  14.863  12.263  12.702
44433SOL     OW35195   1.174   2.758   2.400
44433SOL    HW135196   1.266   2.781   2.406
44433SOL    HW235197   1.168   2.674   2.445
44434SOL     OW35198   3.196   4.763   9.849
44434SOL    HW135199   3.192   4.686   9.905
44434SOL    HW235200   3.146   4.738   9.771
44435SOL     OW35201   3.284   4.919  13.282
44435SOL    HW135202   3.277   4.868  13.201
44435SOL    HW235203   3.201   4.967  13.287
44436SOL     OW35204   3.343  11.764   3.334
44436SOL    HW135205   3.417  11.766   3.395
44436SOL    HW235206   3.379  11.726   3.254
44437SOL     OW35207   3.021   2.899   2.601
44437SOL    HW135208   2.929   2.921   2.588
44437SOL    HW235209   3.057   2.891   2.512
44438SOL     OW35210  12.454   4.429   5.397
44438SOL    HW135211  12.391   4.376   5.348
44438SOL    HW235212  12.453   4.392   5.485
44439SOL     OW35213   7.968  10.754  11.215
44439SOL    HW135214   8.003  10.666  11.203
44439SOL    HW235215   8.024  10.809  11.160
44440SOL     OW35216  13.386  11.064   5.000
44440SOL    HW135217  13.469  11.026   5.029
44440SOL    HW235218  13.410  11.121   4.928
44441SOL     OW35219   7.254   0.020   1.313
44441SOL    HW135220   7.251  14.861   1.402
44441SOL    HW235221   7.275  14.822   1.258
44442SOL     OW35222   1.852  10.784  10.394
44442SOL    HW135223   1.879  10.765  10.484
44442SOL    HW235224   1.930  10.823  10.354
44443SOL     OW35225   3.569   6.980   4.782
44443SOL    HW135226   3.663   6.989   4.797
44443SOL    HW235227   3.545   7.058   4.732
44444SOL     OW35228  13.017  11.171   7.410
44444SOL    HW135229  13.005  11.099   7.472
44444SOL    HW235230  12.975  11.140   7.329
44445SOL     OW35231  12.278  12.349   7.501
44445SOL    HW135232  12.235  12.370   7.419
44445SOL    HW235233  12.222  12.387   7.569
44446SOL     OW35234   9.728   4.792   4.887
44446SOL    HW135235   9.745   4.807   4.980
44446SOL    HW235236   9.701   4.700   4.882
44447SOL     OW35237  14.779   7.512   9.778
44447SOL    HW135238  14.726   7.535   9.855
44447SOL    HW235239  14.869   7.513   9.809
44448SOL     OW35240   4.135   3.350   1.932
44448SOL    HW135241   4.077   3.288   1.886
44448SOL    HW235242   4.099   3.354   2.021
44449SOL     OW35243  14.488   5.926  14.406
44449SOL    HW135244  14.445   6.006  14.375
44449SOL    HW235245  14.577   5.932  14.373
44450SOL     OW35246  10.896   7.167   1.307
44450SOL    HW135247  10.817   7.131   1.348
44450SOL    HW235248  10.862   7.220   1.235
44451SOL     OW35249   3.561   3.851   3.709
44451SOL    HW135250   3.622   3.798   3.760
44451SOL    HW235251   3.477   3.839   3.752
44452SOL     OW35252   6.528   8.115   2.167
44452SOL    HW135253   6.477   8.075   2.096
44452SOL    HW235254   6.471   8.185   2.200
44453SOL     OW35255  13.969  14.613   2.877
44453SOL    HW135256  13.900  14.605   2.811
44453SOL    HW235257  14.043  14.564   2.841
44454SOL     OW35258   3.386   4.764  11.113
44454SOL    HW135259   3.395   4.712  11.193
44454SOL    HW235260   3.352   4.703  11.048
44455SOL     OW35261   3.190   8.356   5.978
44455SOL    HW135262   3.144   8.335   5.897
44455SOL    HW235263   3.242   8.277   5.996
44456SOL     OW35264   6.862   9.402   3.125
44456SOL    HW135265   6.941   9.455   3.121
44456SOL    HW235266   6.820   9.425   3.208
44457SOL     OW35267  13.597   3.643  11.088
44457SOL    HW135268  13.619   3.551  11.077
44457SOL    HW235269  13.514   3.655  11.042
44458SOL     OW35270  12.741   6.074   6.507
44458SOL    HW135271  12.656   6.048   6.471
44458SOL    HW235272  12.801   6.067   6.433
44459SOL     OW35273  10.025  11.067  13.122
44459SOL    HW135274  10.004  11.150  13.165
44459SOL    HW235275   9.952  11.009  13.144
44460SOL     OW35276   8.780   2.360   7.894
44460SOL    HW135277   8.874   2.374   7.885
44460SOL    HW235278   8.749   2.345   7.805
44461SOL     OW35279   9.083   6.010   4.977
44461SOL    HW135280   9.011   5.966   5.022
44461SOL    HW235281   9.040   6.068   4.914
44462SOL     OW35282   0.419  12.999  13.217
44462SOL    HW135283   0.375  12.946  13.150
44462SOL    HW235284   0.415  13.089  13.183
44463SOL     OW35285   0.542   3.478  13.325
44463SOL    HW135286   0.602   3.521  13.386
44463SOL    HW235287   0.495   3.414  13.378
44464SOL     OW35288  14.735   3.665   8.835
44464SOL    HW135289  14.811   3.682   8.781
44464SOL    HW235290  14.715   3.572   8.821
44465SOL     OW35291  11.987  11.802   1.126
44465SOL    HW135292  11.918  11.844   1.179
44465SOL    HW235293  12.022  11.734   1.183
44466SOL     OW35294   3.228   0.523   5.699
44466SOL    HW135295   3.200   0.603   5.655
44466SOL    HW235296   3.169   0.515   5.774
44467SOL     OW35297   3.613   8.941   4.106
44467SOL    HW135298   3.681   8.888   4.146
44467SOL    HW235299   3.580   8.996   4.177
44468SOL     OW35300   7.769   2.712   6.915
44468SOL    HW135301   7.712   2.660   6.859
44468SOL    HW235302   7.712   2.780   6.951
44469SOL     OW35303   5.417   4.544  12.141
44469SOL    HW135304   5.437   4.523  12.050
44469SOL    HW235305   5.326   4.574  12.139
44470SOL     OW35306   8.355  10.686   1.643
44470SOL    HW135307   8.444  10.695   1.610
44470SOL    HW235308   8.332  10.772   1.677
44471SOL     OW35309   4.124   3.678   0.762
44471SOL    HW135310   4.031   3.657   0.762
44471SOL    HW235311   4.131   3.754   0.820
44472SOL     OW35312   8.299   3.928   0.338
44472SOL    HW135313   8.328   3.956   0.251
44472SOL    HW235314   8.349   3.848   0.355
44473SOL     OW35315  12.879  11.516  10.576
44473SOL    HW135316  12.859  11.423  10.580
44473SOL    HW235317  12.944  11.531  10.644
44474SOL     OW35318  14.521  14.170  12.086
44474SOL    HW135319  14.529  14.258  12.122
44474SOL    HW235320  14.440  14.136  12.125
44475SOL     OW35321   4.902  14.220   3.219
44475SOL    HW135322   4.806  14.227   3.219
44475SOL    HW235323   4.932  14.308   3.200
44476SOL     OW35324  12.493  13.327   7.572
44476SOL    HW135325  12.490  13.413   7.615
44476SOL    HW235326  12.402  13.297   7.572
44477SOL     OW35327   5.027  12.212  14.611
44477SOL    HW135328   5.005  12.221  14.704
44477SOL    HW235329   4.944  12.226  14.565
44478SOL     OW35330   4.118   8.622   6.792
44478SOL    HW135331   4.183   8.687   6.764
44478SOL    HW235332   4.133   8.547   6.735
44479SOL     OW35333   2.284   5.262   0.292
44479SOL    HW135334   2.369   5.294   0.262
44479SOL    HW235335   2.221   5.309   0.238
44480SOL     OW35336   4.555  11.172   6.070
44480SOL    HW135337   4.573  11.208   5.983
44480SOL    HW235338   4.513  11.244   6.117
44481SOL     OW35339  10.566   1.272   7.028
44481SOL    HW135340  10.527   1.218   7.097
44481SOL    HW235341  10.516   1.354   7.031
44482SOL     OW35342  12.189   2.730   2.056
44482SOL    HW135343  12.226   2.818   2.056
44482SOL    HW235344  12.200   2.699   2.146
44483SOL     OW35345   1.812  12.703   5.149
44483SOL    HW135346   1.807  12.750   5.232
44483SOL    HW235347   1.852  12.619   5.172
44484SOL     OW35348   4.446   3.228  11.108
44484SOL    HW135349   4.473   3.167  11.040
44484SOL    HW235350   4.408   3.173  11.177
44485SOL     OW35351   1.578   5.557   5.715
44485SOL    HW135352   1.598   5.569   5.622
44485SOL    HW235353   1.483   5.547   5.718
44486SOL     OW35354   4.224   3.215   3.842
44486SOL    HW135355   4.291   3.220   3.910
44486SOL    HW235356   4.220   3.123   3.818
44487SOL     OW35357   0.825  14.570   8.124
44487SOL    HW135358   0.844  14.656   8.163
44487SOL    HW235359   0.771  14.526   8.189
44488SOL     OW35360  11.121   3.787  11.795
44488SOL    HW135361  11.032   3.791  11.762
44488SOL    HW235362  11.141   3.694  11.799
44489SOL     OW35363   4.740   8.811  12.772
44489SOL    HW135364   4.676   8.739  12.766
44489SOL    HW235365   4.706   8.868  12.841
44490SOL     OW35366   9.456   7.307   7.580
44490SOL    HW135367   9.423   7.386   7.622
44490SOL    HW235368   9.419   7.236   7.632
44491SOL     OW35369   7.930   4.542  13.514
44491SOL    HW135370   7.899   4.457  13.483
44491SOL    HW235371   7.940   4.531  13.609
44492SOL     OW35372   6.664   1.952   7.063
44492SOL    HW135373   6.757   1.936   7.073
44492SOL    HW235374   6.656   2.046   7.053
44493SOL     OW35375  12.839   3.023   1.367
44493SOL    HW135376  12.917   2.967   1.370
44493SOL    HW235377  12.769   2.969   1.403
44494SOL     OW35378   8.884  14.745   2.741
44494SOL    HW135379   8.818  14.760   2.674
44494SOL    HW235380   8.965  14.729   2.692
44495SOL     OW35381   7.267  11.986   2.233
44495SOL    HW135382   7.200  12.053   2.250
44495SOL    HW235383   7.278  11.988   2.138
44496SOL     OW35384   6.841  12.866  10.435
44496SOL    HW135385   6.896  12.810  10.489
44496SOL    HW235386   6.879  12.954  10.446
44497SOL     OW35387   7.256   9.183  11.835
44497SOL    HW135388   7.330   9.191  11.895
44497SOL    HW235389   7.254   9.090  11.812
44498SOL     OW35390  13.627   3.250   7.285
44498SOL    HW135391  13.707   3.296   7.312
44498SOL    HW235392  13.619   3.268   7.192
44499SOL     OW35393  13.347   7.412  11.001
44499SOL    HW135394  13.373   7.503  11.013
44499SOL    HW235395  13.292   7.412  10.923
44500SOL     OW35396   5.825   7.159   1.552
44500SOL    HW135397   5.816   7.244   1.511
44500SOL    HW235398   5.918   7.138   1.545
44501SOL     OW35399  14.424  14.284  10.083
44501SOL    HW135400  14.444  14.210  10.140
44501SOL    HW235401  14.332  14.273  10.060
44502SOL     OW35402  12.475  12.798   2.954
44502SOL    HW135403  12.429  12.807   3.037
44502SOL    HW235404  12.547  12.861   2.959
44503SOL     OW35405   0.740   0.751   6.757
44503SOL    HW135406   0.683   0.727   6.684
44503SOL    HW235407   0.828   0.750   6.720
44504SOL     OW35408   8.107   0.599  14.509
44504SOL    HW135409   8.028   0.617  14.560
44504SOL    HW235410   8.082   0.531  14.447
44505SOL     OW35411   5.219   8.035   7.414
44505SOL    HW135412   5.184   8.116   7.450
44505SOL    HW235413   5.168   8.019   7.335
44506SOL     OW35414   8.478  13.999   2.097
44506SOL    HW135415   8.454  14.059   2.026
44506SOL    HW235416   8.513  14.056   2.166
44507SOL     OW35417   7.630  14.199  12.651
44507SOL    HW135418   7.584  14.279  12.624
44507SOL    HW235419   7.580  14.166  12.725
44508SOL     OW35420   3.661  11.928   6.275
44508SOL    HW135421   3.641  12.001   6.216
44508SOL    HW235422   3.624  11.851   6.232
44509SOL     OW35423   3.267  11.080   7.254
44509SOL    HW135424   3.181  11.103   7.219
44509SOL    HW235425   3.255  11.079   7.349
44510SOL     OW35426   5.634   9.567   0.497
44510SOL    HW135427   5.704   9.553   0.433
44510SOL    HW235428   5.647   9.496   0.561
44511SOL     OW35429  10.037   6.013   9.559
44511SOL    HW135430  10.019   6.106   9.543
44511SOL    HW235431   9.950   5.974   9.565
44512SOL     OW35432  12.761  10.119   2.709
44512SOL    HW135433  12.767  10.041   2.656
44512SOL    HW235434  12.820  10.103   2.782
44513SOL     OW35435  10.403  13.043  14.094
44513SOL    HW135436  10.369  12.963  14.134
44513SOL    HW235437  10.363  13.047  14.008
44514SOL     OW35438   6.085  14.445  14.261
44514SOL    HW135439   6.033  14.525  14.250
44514SOL    HW235440   6.081  14.402  14.175
44515SOL     OW35441   5.034   8.248   8.298
44515SOL    HW135442   4.965   8.291   8.348
44515SOL    HW235443   4.997   8.163   8.274
44516SOL     OW35444   3.617  10.138  13.839
44516SOL    HW135445   3.619  10.132  13.744
44516SOL    HW235446   3.594  10.230  13.856
44517SOL     OW35447  10.532   9.912   3.478
44517SOL    HW135448  10.568   9.974   3.542
44517SOL    HW235449  10.441   9.940   3.467
44518SOL     OW35450   1.063  13.605   1.590
44518SOL    HW135451   1.140  13.622   1.535
44518SOL    HW235452   0.993  13.587   1.527
44519SOL     OW35453  12.551   3.897   8.964
44519SOL    HW135454  12.571   3.839   8.891
44519SOL    HW235455  12.636   3.918   9.003
44520SOL     OW35456   6.929   4.186   2.278
44520SOL    HW135457   6.858   4.234   2.235
44520SOL    HW235458   6.886   4.140   2.351
44521SOL     OW35459  11.739   8.769   9.547
44521SOL    HW135460  11.811   8.738   9.602
44521SOL    HW235461  11.660   8.753   9.599
44522SOL     OW35462  13.173   8.004   8.910
44522SOL    HW135463  13.209   8.041   8.991
44522SOL    HW235464  13.121   8.076   8.872
44523SOL     OW35465  12.788   1.375   5.056
44523SOL    HW135466  12.702   1.404   5.026
44523SOL    HW235467  12.798   1.288   5.019
44524SOL     OW35468   1.559   8.838  14.128
44524SOL    HW135469   1.586   8.746  14.118
44524SOL    HW235470   1.626   8.876  14.185
44525SOL     OW35471   1.145   3.436   4.819
44525SOL    HW135472   1.166   3.482   4.738
44525SOL    HW235473   1.083   3.369   4.793
44526SOL     OW35474  10.617  13.008   9.194
44526SOL    HW135475  10.659  12.922   9.196
44526SOL    HW235476  10.686  13.067   9.163
44527SOL     OW35477   1.207   2.737  11.295
44527SOL    HW135478   1.167   2.798  11.233
44527SOL    HW235479   1.170   2.652  11.272
44528SOL     OW35480   3.497   5.889   9.176
44528SOL    HW135481   3.475   5.796   9.169
44528SOL    HW235482   3.591   5.893   9.160
44529SOL     OW35483  13.937  10.597   8.047
44529SOL    HW135484  13.849  10.571   8.073
44529SOL    HW235485  13.984  10.515   8.033
44530SOL     OW35486  10.941   9.269  13.082
44530SOL    HW135487  10.864   9.220  13.109
44530SOL    HW235488  11.015   9.211  13.103
44531SOL     OW35489   7.334   2.089   0.175
44531SOL    HW135490   7.331   2.181   0.151
44531SOL    HW235491   7.278   2.081   0.251
44532SOL     OW35492  11.518  13.581  13.707
44532SOL    HW135493  11.510  13.566  13.801
44532SOL    HW235494  11.608  13.612  13.696
44533SOL     OW35495   8.384   2.965   8.545
44533SOL    HW135496   8.319   2.908   8.585
44533SOL    HW235497   8.339   3.004   8.470
44534SOL     OW35498   9.145  12.159   1.781
44534SOL    HW135499   9.093  12.109   1.843
44534SOL    HW235500   9.113  12.249   1.790
44535SOL     OW35501   3.424  11.416  10.765
44535SOL    HW135502   3.351  11.415  10.827
44535SOL    HW235503   3.443  11.323  10.749
44536SOL     OW35504   1.555   4.279   8.738
44536SOL    HW135505   1.596   4.303   8.655
44536SOL    HW235506   1.615   4.216   8.778
44537SOL     OW35507   9.659   1.278  14.259
44537SOL    HW135508   9.735   1.237  14.216
44537SOL    HW235509   9.671   1.372  14.245
44538SOL     OW35510   8.126   5.394  12.357
44538SOL    HW135511   8.150   5.428  12.271
44538SOL    HW235512   8.031   5.379  12.351
44539SOL     OW35513   1.333   7.188   7.772
44539SOL    HW135514   1.421   7.218   7.796
44539SOL    HW235515   1.344   7.095   7.752
44540SOL     OW35516  10.595  13.001   2.723
44540SOL    HW135517  10.561  12.930   2.778
44540SOL    HW235518  10.650  12.957   2.658
44541SOL     OW35519   9.290   4.076   0.371
44541SOL    HW135520   9.301   4.109   0.460
44541SOL    HW235521   9.196   4.072   0.358
44542SOL     OW35522   4.464   5.044   7.049
44542SOL    HW135523   4.508   5.088   6.976
44542SOL    HW235524   4.417   5.114   7.095
44543SOL     OW35525  13.566   3.075   0.467
44543SOL    HW135526  13.647   3.080   0.516
44543SOL    HW235527  13.554   2.982   0.448
44544SOL     OW35528   9.273  14.504  10.012
44544SOL    HW135529   9.198  14.523  10.068
44544SOL    HW235530   9.276  14.409  10.006
44545SOL     OW35531  11.748  14.363   3.913
44545SOL    HW135532  11.767  14.286   3.860
44545SOL    HW235533  11.700  14.421   3.855
44546SOL     OW35534   0.962  13.349   0.215
44546SOL    HW135535   1.022  13.415   0.250
44546SOL    HW235536   0.876  13.374   0.249
44547SOL     OW35537   5.677   4.944   5.260
44547SOL    HW135538   5.759   4.993   5.255
44547SOL    HW235539   5.615   4.996   5.210
44548SOL     OW35540  13.745  12.022   8.549
44548SOL    HW135541  13.670  11.979   8.510
44548SOL    HW235542  13.719  12.038   8.640
44549SOL     OW35543   3.060   2.621   9.787
44549SOL    HW135544   3.049   2.604   9.880
44549SOL    HW235545   3.018   2.547   9.743
44550SOL     OW35546   3.840  12.412  12.177
44550SOL    HW135547   3.874  12.335  12.223
44550SOL    HW235548   3.808  12.469  12.246
44551SOL     OW35549   1.176   5.079   7.171
44551SOL    HW135550   1.205   5.044   7.087
44551SOL    HW235551   1.205   5.015   7.236
44552SOL     OW35552   4.797  12.126  13.307
44552SOL    HW135553   4.832  12.055  13.360
44552SOL    HW235554   4.722  12.158  13.357
44553SOL     OW35555  11.282  14.741   6.953
44553SOL    HW135556  11.264  14.823   6.907
44553SOL    HW235557  11.243  14.751   7.039
44554SOL     OW35558   9.315   1.861   1.966
44554SOL    HW135559   9.330   1.952   1.991
44554SOL    HW235560   9.234   1.863   1.914
44555SOL     OW35561  10.406  11.725  13.729
44555SOL    HW135562  10.430  11.683  13.812
44555SOL    HW235563  10.479  11.705  13.671
44556SOL     OW35564  13.871   4.744   1.065
44556SOL    HW135565  13.862   4.716   1.156
44556SOL    HW235566  13.809   4.691   1.017
44557SOL     OW35567   6.410   1.510   6.271
44557SOL    HW135568   6.356   1.444   6.229
44557SOL    HW235569   6.349   1.579   6.298
44558SOL     OW35570   8.982   8.293   5.754
44558SOL    HW135571   9.029   8.218   5.790
44558SOL    HW235572   8.916   8.313   5.819
44559SOL     OW35573  13.051   6.152   0.615
44559SOL    HW135574  13.062   6.240   0.580
44559SOL    HW235575  12.957   6.134   0.609
44560SOL     OW35576   3.457  12.803   5.245
44560SOL    HW135577   3.527  12.738   5.254
44560SOL    HW235578   3.453  12.819   5.151
44561SOL     OW35579   8.182   4.847   0.975
44561SOL    HW135580   8.142   4.760   0.985
44561SOL    HW235581   8.205   4.873   1.065
44562SOL     OW35582   6.699   7.776   0.562
44562SOL    HW135583   6.679   7.849   0.504
44562SOL    HW235584   6.640   7.706   0.533
44563SOL     OW35585   4.567   6.669  10.569
44563SOL    HW135586   4.500   6.738  10.572
44563SOL    HW235587   4.650   6.717  10.565
44564SOL     OW35588  12.808   7.256   3.741
44564SOL    HW135589  12.871   7.224   3.807
44564SOL    HW235590  12.863   7.297   3.675
44565SOL     OW35591   6.465   6.018  12.317
44565SOL    HW135592   6.508   5.979  12.392
44565SOL    HW235593   6.531   6.017  12.247
44566SOL     OW35594   9.794   5.904   3.770
44566SOL    HW135595   9.852   5.835   3.739
44566SOL    HW235596   9.768   5.876   3.858
44567SOL     OW35597   9.560   4.690  14.676
44567SOL    HW135598   9.640   4.730  14.643
44567SOL    HW235599   9.504   4.763  14.701
44568SOL     OW35600  10.649  10.359   6.210
44568SOL    HW135601  10.731  10.315   6.229
44568SOL    HW235602  10.581  10.300   6.244
44569SOL     OW35603  13.182   4.768  10.334
44569SOL    HW135604  13.253   4.826  10.361
44569SOL    HW235605  13.103   4.808  10.370
44570SOL     OW35606   9.573  12.623  10.409
44570SOL    HW135607   9.511  12.671  10.354
44570SOL    HW235608   9.543  12.532  10.405
44571SOL     OW35609   7.265  13.103  14.671
44571SOL    HW135610   7.236  13.058  14.592
44571SOL    HW235611   7.192  13.092  14.733
44572SOL     OW35612   6.281   2.684  12.107
44572SOL    HW135613   6.292   2.591  12.087
44572SOL    HW235614   6.371   2.717  12.115
44573SOL     OW35615   3.733  13.568   4.819
44573SOL    HW135616   3.647  13.593   4.853
44573SOL    HW235617   3.728  13.473   4.810
44574SOL     OW35618  11.640   4.382  14.809
44574SOL    HW135619  11.572   4.365  14.874
44574SOL    HW235620  11.603   4.354  14.726
44575SOL     OW35621   5.716   1.638   8.811
44575SOL    HW135622   5.668   1.720   8.807
44575SOL    HW235623   5.649   1.572   8.832
44576SOL     OW35624   4.506   7.472   1.680
44576SOL    HW135625   4.414   7.460   1.658
44576SOL    HW235626   4.523   7.564   1.664
44577SOL     OW35627   8.439  12.913   2.762
44577SOL    HW135628   8.456  12.821   2.782
44577SOL    HW235629   8.376  12.941   2.828
44578SOL     OW35630   2.380   0.170   1.547
44578SOL    HW135631   2.342   0.183   1.460
44578SOL    HW235632   2.376   0.256   1.589
44579SOL     OW35633  11.317  13.709   2.511
44579SOL    HW135634  11.408  13.720   2.540
44579SOL    HW235635  11.272  13.787   2.544
44580SOL     OW35636  13.818  14.092  12.054
44580SOL    HW135637  13.872  14.017  12.028
44580SOL    HW235638  13.776  14.120  11.973
44581SOL     OW35639   5.719  12.694   6.828
44581SOL    HW135640   5.662  12.771   6.827
44581SOL    HW235641   5.800  12.725   6.868
44582SOL     OW35642   6.479   1.816   6.063
44582SOL    HW135643   6.550   1.864   6.021
44582SOL    HW235644   6.519   1.779   6.142
44583SOL     OW35645   9.061   1.381   6.098
44583SOL    HW135646   9.088   1.297   6.133
44583SOL    HW235647   9.029   1.430   6.173
44584SOL     OW35648   1.700   6.094   0.805
44584SOL    HW135649   1.740   6.042   0.735
44584SOL    HW235650   1.771   6.111   0.867
44585SOL     OW35651  11.204   3.481  11.837
44585SOL    HW135652  11.116   3.494  11.874
44585SOL    HW235653  11.232   3.396  11.872
44586SOL     OW35654   3.612   0.277   4.759
44586SOL    HW135655   3.518   0.298   4.759
44586SOL    HW235656   3.638   0.285   4.667
44587SOL     OW35657  14.540   1.877   6.842
44587SOL    HW135658  14.518   1.888   6.934
44587SOL    HW235659  14.554   1.783   6.831
44588SOL     OW35660   4.214  10.765   4.657
44588SOL    HW135661   4.294  10.808   4.684
44588SOL    HW235662   4.240  10.709   4.583
44589SOL     OW35663   7.851   1.104  13.422
44589SOL    HW135664   7.789   1.036  13.448
44589SOL    HW235665   7.934   1.076  13.460
44590SOL     OW35666  14.569   9.883   7.000
44590SOL    HW135667  14.559   9.854   7.091
44590SOL    HW235668  14.649   9.840   6.970
44591SOL     OW35669  10.952  10.975   6.147
44591SOL    HW135670  10.979  10.898   6.198
44591SOL    HW235671  10.918  11.036   6.213
44592SOL     OW35672   2.312  12.066   1.685
44592SOL    HW135673   2.377  12.049   1.753
44592SOL    HW235674   2.332  12.155   1.655
44593SOL     OW35675   7.214   7.145   5.236
44593SOL    HW135676   7.220   7.175   5.327
44593SOL    HW235677   7.160   7.211   5.193
44594SOL     OW35678  10.038  12.613  11.298
44594SOL    HW135679  10.003  12.525  11.311
44594SOL    HW235680  10.061  12.642  11.387
44595SOL     OW35681  13.358   0.688  10.860
44595SOL    HW135682  13.432   0.628  10.854
44595SOL    HW235683  13.394   0.774  10.840
44596SOL     OW35684   3.707   8.539   1.859
44596SOL    HW135685   3.720   8.529   1.953
44596SOL    HW235686   3.778   8.597   1.831
44597SOL     OW35687   2.490  14.744   0.005
44597SOL    HW135688   2.467  14.664   0.051
44597SOL    HW235689   2.584  14.737  14.866
44598SOL     OW35690  12.835  10.138  12.778
44598SOL    HW135691  12.905  10.203  12.779
44598SOL    HW235692  12.812  10.129  12.685
44599SOL     OW35693  10.920  11.332  11.771
44599SOL    HW135694  11.007  11.310  11.804
44599SOL    HW235695  10.914  11.427  11.780
44600SOL     OW35696   2.871   4.203   2.703
44600SOL    HW135697   2.828   4.277   2.746
44600SOL    HW235698   2.965   4.220   2.712
44601SOL     OW35699   8.921   7.060  14.081
44601SOL    HW135700   8.982   7.017  14.142
44601SOL    HW235701   8.841   7.071  14.132
44602SOL     OW35702   7.821   9.096   1.106
44602SOL    HW135703   7.784   9.012   1.077
44602SOL    HW235704   7.902   9.072   1.150
44603SOL     OW35705   9.630  13.844  12.779
44603SOL    HW135706   9.616  13.749  12.776
44603SOL    HW235707   9.683  13.863  12.701
44604SOL     OW35708   7.035   5.237  13.052
44604SOL    HW135709   7.091   5.169  13.092
44604SOL    HW235710   7.031   5.306  13.118
44605SOL     OW35711   4.165   5.601  11.382
44605SOL    HW135712   4.229   5.617  11.313
44605SOL    HW235713   4.109   5.679  11.382
44606SOL     OW35714   0.442   5.359   4.720
44606SOL    HW135715   0.405   5.296   4.781
44606SOL    HW235716   0.367   5.386   4.666
44607SOL     OW35717   3.325   0.538   7.577
44607SOL    HW135718   3.420   0.531   7.563
44607SOL    HW235719   3.316   0.602   7.647
44608SOL     OW35720   4.282   3.503  12.121
44608SOL    HW135721   4.257   3.592  12.147
44608SOL    HW235722   4.198   3.459  12.105
44609SOL     OW35723   3.972   6.860  14.220
44609SOL    HW135724   4.007   6.837  14.134
44609SOL    HW235725   3.956   6.954  14.214
44610SOL     OW35726   4.385  12.773   6.351
44610SOL    HW135727   4.449  12.843   6.347
44610SOL    HW235728   4.426  12.700   6.304
44611SOL     OW35729  12.554   7.302   0.536
44611SOL    HW135730  12.622   7.297   0.469
44611SOL    HW235731  12.488   7.360   0.499
44612SOL     OW35732   0.538   7.953  12.467
44612SOL    HW135733   0.632   7.948  12.448
44612SOL    HW235734   0.499   7.980  12.384
44613SOL     OW35735  14.466   6.739  11.810
44613SOL    HW135736  14.418   6.676  11.864
44613SOL    HW235737  14.551   6.697  11.794
44614SOL     OW35738   4.634   2.333   7.539
44614SOL    HW135739   4.641   2.250   7.492
44614SOL    HW235740   4.689   2.393   7.489
44615SOL     OW35741   2.756   2.360  12.339
44615SOL    HW135742   2.693   2.291  12.361
44615SOL    HW235743   2.703   2.438  12.327
44616SOL     OW35744   1.138  11.406  12.666
44616SOL    HW135745   1.057  11.360  12.649
44616SOL    HW235746   1.113  11.498  12.670
44617SOL     OW35747   4.532  14.110   9.792
44617SOL    HW135748   4.456  14.167   9.788
44617SOL    HW235749   4.546  14.094   9.885
44618SOL     OW35750   0.347   3.557   3.620
44618SOL    HW135751   0.386   3.487   3.673
44618SOL    HW235752   0.358   3.636   3.673
44619SOL     OW35753   4.737   3.044   9.279
44619SOL    HW135754   4.820   3.087   9.260
44619SOL    HW235755   4.731   3.045   9.375
44620SOL     OW35756   0.777  11.871   3.484
44620SOL    HW135757   0.712  11.818   3.438
44620SOL    HW235758   0.828  11.808   3.534
44621SOL     OW35759   4.249   1.578  12.075
44621SOL    HW135760   4.319   1.615  12.129
44621SOL    HW235761   4.281   1.588  11.986
44622SOL     OW35762   6.404   0.426   5.122
44622SOL    HW135763   6.434   0.414   5.032
44622SOL    HW235764   6.397   0.521   5.132
44623SOL     OW35765   6.858   8.060   0.768
44623SOL    HW135766   6.845   7.965   0.767
44623SOL    HW235767   6.868   8.082   0.861
44624SOL     OW35768   9.945  12.691   1.703
44624SOL    HW135769   9.870  12.750   1.709
44624SOL    HW235770   9.973  12.678   1.794
44625SOL     OW35771  13.086  11.506   7.151
44625SOL    HW135772  13.052  11.510   7.061
44625SOL    HW235773  13.175  11.471   7.141
44626SOL     OW35774  12.405   0.593  11.936
44626SOL    HW135775  12.379   0.542  11.859
44626SOL    HW235776  12.383   0.537  12.011
44627SOL     OW35777   9.687   7.161   0.333
44627SOL    HW135778   9.690   7.188   0.241
44627SOL    HW235779   9.595   7.171   0.358
44628SOL     OW35780   1.993  12.586  10.096
44628SOL    HW135781   2.076  12.634  10.105
44628SOL    HW235782   1.947  12.603  10.178
44629SOL     OW35783   6.033   6.298   7.230
44629SOL    HW135784   5.956   6.290   7.174
44629SOL    HW235785   6.094   6.231   7.198
44630SOL     OW35786   9.195  12.247   2.894
44630SOL    HW135787   9.144  12.277   2.819
44630SOL    HW235788   9.277  12.217   2.856
44631SOL     OW35789   8.624  10.710  12.759
44631SOL    HW135790   8.578  10.728  12.677
44631SOL    HW235791   8.703  10.763  12.754
44632SOL     OW35792   4.013   3.977   3.839
44632SOL    HW135793   4.010   3.889   3.877
44632SOL    HW235794   4.039   3.963   3.748
44633SOL     OW35795   3.009   8.266   5.743
44633SOL    HW135796   3.027   8.173   5.734
44633SOL    HW235797   2.924   8.270   5.786
44634SOL     OW35798  14.154  14.378   1.532
44634SOL    HW135799  14.130  14.318   1.461
44634SOL    HW235800  14.222  14.331   1.581
44635SOL     OW35801  10.407   4.630  12.706
44635SOL    HW135802  10.331   4.570  12.708
44635SOL    HW235803  10.480   4.576  12.737
44636SOL     OW35804   4.221  13.776  12.198
44636SOL    HW135805   4.185  13.859  12.229
44636SOL    HW235806   4.145  13.726  12.169
44637SOL     OW35807   9.766   3.123  13.732
44637SOL    HW135808   9.789   3.215  13.727
44637SOL    HW235809   9.843   3.077  13.699
44638SOL     OW35810   2.131   9.733  13.793
44638SOL    HW135811   2.148   9.775  13.877
44638SOL    HW235812   2.051   9.683  13.806
44639SOL     OW35813   1.728   0.276   1.330
44639SOL    HW135814   1.665   0.309   1.266
44639SOL    HW235815   1.677   0.221   1.389
44640SOL     OW35816   9.701  12.803   6.618
44640SOL    HW135817   9.611  12.788   6.645
44640SOL    HW235818   9.754  12.779   6.694
44641SOL     OW35819   4.431   5.250   8.226
44641SOL    HW135820   4.491   5.325   8.224
44641SOL    HW235821   4.345   5.289   8.236
44642SOL     OW35822   2.157   7.274   4.054
44642SOL    HW135823   2.184   7.200   4.109
44642SOL    HW235824   2.190   7.351   4.101
44643SOL     OW35825   4.492  12.166  12.991
44643SOL    HW135826   4.439  12.150  13.069
44643SOL    HW235827   4.489  12.261  12.979
44644SOL     OW35828  12.133   7.380   7.062
44644SOL    HW135829  12.068   7.334   7.009
44644SOL    HW235830  12.115   7.473   7.045
44645SOL     OW35831   9.074   0.754   9.739
44645SOL    HW135832   9.050   0.786   9.826
44645SOL    HW235833   9.167   0.733   9.746
44646SOL     OW35834  12.710   9.946  10.906
44646SOL    HW135835  12.693   9.855  10.881
44646SOL    HW235836  12.659   9.959  10.986
44647SOL     OW35837   0.858   8.369   1.434
44647SOL    HW135838   0.808   8.288   1.446
44647SOL    HW235839   0.834   8.423   1.510
44648SOL     OW35840  11.489   4.631   0.439
44648SOL    HW135841  11.497   4.536   0.448
44648SOL    HW235842  11.578   4.664   0.442
44649SOL     OW35843   9.413   9.567  11.309
44649SOL    HW135844   9.404   9.570  11.214
44649SOL    HW235845   9.348   9.502  11.337
44650SOL     OW35846  14.174   9.023   4.944
44650SOL    HW135847  14.155   9.004   4.852
44650SOL    HW235848  14.265   8.994   4.956
44651SOL     OW35849   8.527  14.461   2.432
44651SOL    HW135850   8.622  14.453   2.429
44651SOL    HW235851   8.510  14.523   2.502
44652SOL     OW35852   2.506   5.682   1.214
44652SOL    HW135853   2.441   5.636   1.267
44652SOL    HW235854   2.459   5.706   1.134
44653SOL     OW35855   5.368  13.082   0.918
44653SOL    HW135856   5.341  12.993   0.937
44653SOL    HW235857   5.304  13.138   0.963
44654SOL     OW35858   9.763  10.200  14.075
44654SOL    HW135859   9.717  10.217  13.993
44654SOL    HW235860   9.813  10.120  14.059
44655SOL     OW35861   9.354  10.132   2.369
44655SOL    HW135862   9.409  10.165   2.297
44655SOL    HW235863   9.265  10.149   2.340
44656SOL     OW35864  14.127  14.408   4.376
44656SOL    HW135865  14.054  14.453   4.334
44656SOL    HW235866  14.104  14.407   4.469
44657SOL     OW35867  11.464  14.382   1.157
44657SOL    HW135868  11.396  14.403   1.221
44657SOL    HW235869  11.543  14.368   1.210
44658SOL     OW35870   4.525   0.157  12.383
44658SOL    HW135871   4.527   0.226  12.448
44658SOL    HW235872   4.559   0.080  12.429
44659SOL     OW35873  14.267   4.035  11.514
44659SOL    HW135874  14.266   4.035  11.419
44659SOL    HW235875  14.236   3.948  11.539
44660SOL     OW35876   2.320   8.458  10.980
44660SOL    HW135877   2.302   8.366  10.959
44660SOL    HW235878   2.353   8.495  10.898
44661SOL     OW35879  13.782   2.034   5.043
44661SOL    HW135880  13.828   2.084   5.111
44661SOL    HW235881  13.850   1.983   5.000
44662SOL     OW35882  14.726  14.750   8.428
44662SOL    HW135883  14.813  14.765   8.391
44662SOL    HW235884  14.737  14.675   8.487
44663SOL     OW35885   5.473   8.065   9.246
44663SOL    HW135886   5.516   8.072   9.331
44663SOL    HW235887   5.517   7.992   9.203
44664SOL     OW35888   5.767  12.806  10.941
44664SOL    HW135889   5.828  12.786  11.012
44664SOL    HW235890   5.749  12.900  10.950
44665SOL     OW35891   9.584   7.983  10.478
44665SOL    HW135892   9.491   7.960  10.472
44665SOL    HW235893   9.592   8.029  10.562
44666SOL     OW35894   4.581  10.525  11.040
44666SOL    HW135895   4.557  10.606  10.994
44666SOL    HW235896   4.498  10.487  11.067
44667SOL     OW35897   3.298   7.255   3.866
44667SOL    HW135898   3.270   7.250   3.958
44667SOL    HW235899   3.374   7.314   3.867
44668SOL     OW35900   1.585  12.912   3.375
44668SOL    HW135901   1.578  12.830   3.424
44668SOL    HW235902   1.644  12.892   3.303
44669SOL     OW35903   9.245  13.756   6.309
44669SOL    HW135904   9.282  13.682   6.357
44669SOL    HW235905   9.294  13.832   6.340
44670SOL     OW35906   0.887   3.611   8.606
44670SOL    HW135907   0.967   3.558   8.599
44670SOL    HW235908   0.865   3.607   8.699
44671SOL     OW35909   9.277   6.444   5.014
44671SOL    HW135910   9.236   6.358   5.005
44671SOL    HW235911   9.341   6.448   4.943
44672SOL     OW35912   6.345   3.389   5.553
44672SOL    HW135913   6.378   3.478   5.564
44672SOL    HW235914   6.300   3.369   5.636
44673SOL     OW35915  14.686  14.658  14.699
44673SOL    HW135916  14.719  14.708  14.624
44673SOL    HW235917  14.612  14.608  14.664
44674SOL     OW35918   5.853   6.500   3.172
44674SOL    HW135919   5.797   6.519   3.098
44674SOL    HW235920   5.939   6.536   3.148
44675SOL     OW35921   8.063  11.050   8.231
44675SOL    HW135922   7.984  11.068   8.180
44675SOL    HW235923   8.097  10.968   8.195
44676SOL     OW35924  11.280  14.483   0.250
44676SOL    HW135925  11.324  14.401   0.272
44676SOL    HW235926  11.318  14.510   0.167
44677SOL     OW35927  12.949   3.599  10.214
44677SOL    HW135928  13.029   3.552  10.239
44677SOL    HW235929  12.948   3.676  10.271
44678SOL     OW35930  14.448  13.570  11.056
44678SOL    HW135931  14.503  13.513  11.110
44678SOL    HW235932  14.379  13.600  11.116
44679SOL     OW35933   0.262   1.484   6.268
44679SOL    HW135934   0.293   1.394   6.278
44679SOL    HW235935   0.319   1.535   6.326
44680SOL     OW35936  13.761  11.015   4.203
44680SOL    HW135937  13.736  10.965   4.126
44680SOL    HW235938  13.832  11.072   4.174
44681SOL     OW35939  10.718  10.686   7.455
44681SOL    HW135940  10.703  10.604   7.408
44681SOL    HW235941  10.806  10.713   7.429
44682SOL     OW35942  13.380   0.265  11.372
44682SOL    HW135943  13.307   0.255  11.433
44682SOL    HW235944  13.366   0.197  11.306
44683SOL     OW35945  10.945  10.860   1.681
44683SOL    HW135946  10.883  10.860   1.753
44683SOL    HW235947  10.903  10.809   1.612
44684SOL     OW35948   0.396   0.128   1.822
44684SOL    HW135949   0.453   0.078   1.764
44684SOL    HW235950   0.435   0.117   1.909
44685SOL     OW35951  13.098  10.769  12.044
44685SOL    HW135952  13.094  10.775  12.139
44685SOL    HW235953  13.048  10.845  12.013
44686SOL     OW35954   6.421   8.646   3.904
44686SOL    HW135955   6.340   8.613   3.942
44686SOL    HW235956   6.444   8.582   3.838
44687SOL     OW35957  12.308   0.288   1.790
44687SOL    HW135958  12.218   0.307   1.764
44687SOL    HW235959  12.353   0.373   1.787
44688SOL     OW35960   8.251   7.951  12.948
44688SOL    HW135961   8.202   8.034  12.952
44688SOL    HW235962   8.271   7.931  13.040
44689SOL     OW35963   1.951  10.843   5.856
44689SOL    HW135964   1.871  10.882   5.821
44689SOL    HW235965   1.976  10.901   5.928
44690SOL     OW35966  14.512   4.824   3.796
44690SOL    HW135967  14.529   4.851   3.706
44690SOL    HW235968  14.583   4.865   3.847
44691SOL     OW35969   0.786  12.263   1.743
44691SOL    HW135970   0.879  12.287   1.741
44691SOL    HW235971   0.740  12.347   1.740
44692SOL     OW35972   0.858   5.380  13.321
44692SOL    HW135973   0.836   5.473  13.329
44692SOL    HW235974   0.954   5.378  13.329
44693SOL     OW35975   9.370   2.823   3.475
44693SOL    HW135976   9.397   2.731   3.481
44693SOL    HW235977   9.292   2.821   3.419
44694SOL     OW35978   4.669   9.670  13.802
44694SOL    HW135979   4.659   9.585  13.844
44694SOL    HW235980   4.704   9.649  13.715
44695SOL     OW35981   2.263   9.318   8.163
44695SOL    HW135982   2.337   9.336   8.221
44695SOL    HW235983   2.298   9.332   8.075
44696SOL     OW35984   3.323   8.535   6.653
44696SOL    HW135985   3.398   8.557   6.598
44696SOL    HW235986   3.350   8.457   6.701
44697SOL     OW35987   1.301  14.398   9.239
44697SOL    HW135988   1.213  14.425   9.212
44697SOL    HW235989   1.357  14.471   9.212
44698SOL     OW35990  14.759   7.547   7.461
44698SOL    HW135991  14.731   7.638   7.470
44698SOL    HW235992  14.739   7.507   7.546
44699SOL     OW35993   1.793   9.720   2.061
44699SOL    HW135994   1.729   9.665   2.106
44699SOL    HW235995   1.828   9.664   1.991
44700SOL     OW35996   5.849   7.584   1.518
44700SOL    HW135997   5.815   7.571   1.606
44700SOL    HW235998   5.835   7.677   1.500
44701SOL     OW35999   9.629  14.586   8.306
44701SOL    HW136000   9.674  14.642   8.370
44701SOL    HW236001   9.652  14.624   8.221
44702SOL     OW36002   6.704   8.961   3.876
44702SOL    HW136003   6.786   9.011   3.882
44702SOL    HW236004   6.690   8.926   3.964
44703SOL     OW36005   0.940   7.167  13.591
44703SOL    HW136006   0.931   7.083  13.635
44703SOL    HW236007   0.857   7.181  13.546
44704SOL     OW36008  13.485   4.032  11.253
44704SOL    HW136009  13.556   3.969  11.238
44704SOL    HW236010  13.529   4.109  11.290
44705SOL     OW36011  11.439   1.457   3.925
44705SOL    HW136012  11.505   1.506   3.877
44705SOL    HW236013  11.361   1.462   3.870
44706SOL     OW36014  10.669   3.345   2.158
44706SOL    HW136015  10.673   3.306   2.070
44706SOL    HW236016  10.575   3.348   2.178
44707SOL     OW36017   8.209  13.382  13.415
44707SOL    HW136018   8.123  13.349  13.388
44707SOL    HW236019   8.189  13.460  13.468
44708SOL     OW36020   6.348   7.658   8.775
44708SOL    HW136021   6.261   7.617   8.780
44708SOL    HW236022   6.409   7.585   8.790
44709SOL     OW36023  11.083   8.188  12.791
44709SOL    HW136024  10.994   8.153  12.804
44709SOL    HW236025  11.085   8.267  12.845
44710SOL     OW36026  13.002   2.131   6.613
44710SOL    HW136027  12.928   2.174   6.656
44710SOL    HW236028  13.006   2.170   6.526
44711SOL     OW36029   8.531   5.230   9.099
44711SOL    HW136030   8.460   5.269   9.048
44711SOL    HW236031   8.538   5.140   9.065
44712SOL     OW36032  11.803  14.690   7.441
44712SOL    HW136033  11.860  14.700   7.366
44712SOL    HW236034  11.723  14.651   7.406
44713SOL     OW36035   2.282   2.476   6.683
44713SOL    HW136036   2.203   2.465   6.629
44713SOL    HW236037   2.273   2.409   6.751
44714SOL     OW36038   5.474   3.200   4.833
44714SOL    HW136039   5.484   3.190   4.928
44714SOL    HW236040   5.543   3.261   4.808
44715SOL     OW36041   0.993   5.528   4.455
44715SOL    HW136042   1.020   5.521   4.547
44715SOL    HW236043   1.074   5.517   4.405
44716SOL     OW36044   9.267   0.521  10.793
44716SOL    HW136045   9.226   0.448  10.840
44716SOL    HW236046   9.264   0.495  10.701
44717SOL     OW36047  12.117   7.061   7.106
44717SOL    HW136048  12.108   7.056   7.201
44717SOL    HW236049  12.210   7.082   7.092
44718SOL     OW36050   9.225  11.764   1.624
44718SOL    HW136051   9.257  11.780   1.713
44718SOL    HW236052   9.214  11.851   1.587
44719SOL     OW36053   3.952  10.841  12.190
44719SOL    HW136054   3.879  10.797  12.146
44719SOL    HW236055   3.937  10.825  12.283
44720SOL     OW36056   4.439   0.353  12.217
44720SOL    HW136057   4.421   0.336  12.125
44720SOL    HW236058   4.489   0.277  12.246
44721SOL     OW36059   7.541   5.142   2.438
44721SOL    HW136060   7.474   5.157   2.506
44721SOL    HW236061   7.604   5.213   2.451
44722SOL     OW36062   9.135   6.188   2.190
44722SOL    HW136063   9.212   6.209   2.137
44722SOL    HW236064   9.166   6.195   2.281
44723SOL     OW36065   2.103   5.908  12.543
44723SOL    HW136066   2.045   5.935  12.472
44723SOL    HW236067   2.089   5.973  12.612
44724SOL     OW36068   7.606  14.194  10.905
44724SOL    HW136069   7.631  14.169  10.816
44724SOL    HW236070   7.685  14.181  10.957
44725SOL     OW36071   7.106   8.479   8.795
44725SOL    HW136072   7.046   8.429   8.851
44725SOL    HW236073   7.051   8.517   8.727
44726SOL     OW36074   1.995   8.972   5.593
44726SOL    HW136075   2.043   9.030   5.652
44726SOL    HW236076   1.942   8.917   5.651
44727SOL     OW36077  12.549  12.225   8.175
44727SOL    HW136078  12.534  12.147   8.229
44727SOL    HW236079  12.624  12.268   8.217
44728SOL     OW36080   4.148   7.643   8.626
44728SOL    HW136081   4.128   7.723   8.579
44728SOL    HW236082   4.069   7.590   8.619
44729SOL     OW36083   5.530  10.137   2.218
44729SOL    HW136084   5.483  10.057   2.243
44729SOL    HW236085   5.617  10.125   2.254
44730SOL     OW36086   9.461   1.091  10.970
44730SOL    HW136087   9.486   1.176  10.933
44730SOL    HW236088   9.370   1.079  10.941
44731SOL     OW36089  12.322   2.038   0.091
44731SOL    HW136090  12.240   2.009   0.051
44731SOL    HW236091  12.386   1.971   0.066
44732SOL     OW36092   3.502   5.938   7.662
44732SOL    HW136093   3.552   5.990   7.600
44732SOL    HW236094   3.480   5.998   7.733
44733SOL     OW36095  10.905   7.934  13.868
44733SOL    HW136096  10.869   7.854  13.830
44733SOL    HW236097  10.843   8.003  13.843
44734SOL     OW36098   5.853   8.046  10.260
44734SOL    HW136099   5.846   8.104  10.336
44734SOL    HW236100   5.826   8.101  10.186
44735SOL     OW36101   7.398   2.062   0.483
44735SOL    HW136102   7.384   2.157   0.487
44735SOL    HW236103   7.493   2.053   0.484
44736SOL     OW36104   7.069   7.352   5.695
44736SOL    HW136105   7.030   7.430   5.655
44736SOL    HW236106   7.111   7.384   5.774
44737SOL     OW36107   3.136  11.352   9.164
44737SOL    HW136108   3.188  11.388   9.235
44737SOL    HW236109   3.200  11.329   9.096
44738SOL     OW36110  10.134   1.779  12.719
44738SOL    HW136111  10.066   1.764  12.653
44738SOL    HW236112  10.215   1.756  12.675
44739SOL     OW36113   0.044  11.688   2.745
44739SOL    HW136114  14.843  11.684   2.691
44739SOL    HW236115   0.047  11.603   2.789
44740SOL     OW36116  12.921   9.574   6.187
44740SOL    HW136117  12.927   9.499   6.129
44740SOL    HW236118  12.925   9.538   6.276
44741SOL     OW36119   1.757  13.760   6.483
44741SOL    HW136120   1.839  13.748   6.531
44741SOL    HW236121   1.762  13.697   6.410
44742SOL     OW36122  13.766   9.058   4.381
44742SOL    HW136123  13.857   9.028   4.374
44742SOL    HW236124  13.730   9.044   4.293
44743SOL     OW36125   2.490   5.271   1.093
44743SOL    HW136126   2.497   5.313   1.179
44743SOL    HW236127   2.397   5.250   1.084
44744SOL     OW36128  13.880   3.874   7.792
44744SOL    HW136129  13.829   3.904   7.866
44744SOL    HW236130  13.967   3.857   7.828
44745SOL     OW36131   4.879   2.232   4.263
44745SOL    HW136132   4.818   2.168   4.229
44745SOL    HW236133   4.964   2.207   4.226
44746SOL     OW36134   0.947   6.392  13.238
44746SOL    HW136135   0.868   6.381  13.291
44746SOL    HW236136   0.930   6.471  13.187
44747SOL     OW36137   7.241   2.437   6.839
44747SOL    HW136138   7.206   2.396   6.919
44747SOL    HW236139   7.249   2.529   6.862
44748SOL     OW36140   9.126  14.774   2.958
44748SOL    HW136141   9.200  14.757   2.899
44748SOL    HW236142   9.049  14.751   2.906
44749SOL     OW36143   2.146   7.399   2.814
44749SOL    HW136144   2.220   7.340   2.826
44749SOL    HW236145   2.162   7.441   2.730
44750SOL     OW36146   3.834   6.885  11.975
44750SOL    HW136147   3.902   6.819  11.989
44750SOL    HW236148   3.793   6.896  12.061
44751SOL     OW36149  10.581   2.055  10.862
44751SOL    HW136150  10.533   2.072  10.781
44751SOL    HW236151  10.521   2.080  10.931
44752SOL     OW36152   8.159   6.482   0.401
44752SOL    HW136153   8.064   6.483   0.407
44752SOL    HW236154   8.180   6.398   0.360
44753SOL     OW36155   5.465   6.670   4.875
44753SOL    HW136156   5.546   6.634   4.837
44753SOL    HW236157   5.399   6.658   4.806
44754SOL     OW36158  11.070  13.754  12.919
44754SOL    HW136159  10.985  13.722  12.889
44754SOL    HW236160  11.133  13.716  12.857
44755SOL     OW36161   7.867   8.562   4.226
44755SOL    HW136162   7.886   8.509   4.303
44755SOL    HW236163   7.868   8.652   4.259
44756SOL     OW36164  13.896   3.053   2.315
44756SOL    HW136165  13.841   3.027   2.389
44756SOL    HW236166  13.862   3.139   2.289
44757SOL     OW36167   5.999   5.358   0.488
44757SOL    HW136168   5.967   5.277   0.528
44757SOL    HW236169   6.085   5.372   0.527
44758SOL     OW36170  11.961   1.588  10.756
44758SOL    HW136171  11.872   1.557  10.741
44758SOL    HW236172  11.998   1.526  10.818
44759SOL     OW36173  10.972  13.461   8.367
44759SOL    HW136174  11.018  13.392   8.416
44759SOL    HW236175  10.948  13.526   8.434
44760SOL     OW36176  11.695  11.787   5.425
44760SOL    HW136177  11.775  11.830   5.453
44760SOL    HW236178  11.666  11.837   5.349
44761SOL     OW36179  14.707   4.803   6.686
44761SOL    HW136180  14.629   4.835   6.732
44761SOL    HW236181  14.676   4.725   6.640
44762SOL     OW36182   6.351  14.460   2.438
44762SOL    HW136183   6.428  14.515   2.450
44762SOL    HW236184   6.292  14.485   2.509
44763SOL     OW36185   0.786   7.009   3.772
44763SOL    HW136186   0.716   7.012   3.708
44763SOL    HW236187   0.828   6.924   3.759
44764SOL     OW36188   2.386   9.924   6.528
44764SOL    HW136189   2.359   9.930   6.437
44764SOL    HW236190   2.397  10.015   6.556
44765SOL     OW36191   7.212  11.393   3.482
44765SOL    HW136192   7.226  11.426   3.571
44765SOL    HW236193   7.299  11.368   3.452
44766SOL     OW36194   9.076   6.766   8.311
44766SOL    HW136195   9.143   6.717   8.358
44766SOL    HW236196   9.041   6.705   8.247
44767SOL     OW36197   6.836   3.176   2.441
44767SOL    HW136198   6.793   3.123   2.374
44767SOL    HW236199   6.863   3.113   2.508
44768SOL     OW36200   7.206   2.754  14.734
44768SOL    HW136201   7.150   2.732  14.659
44768SOL    HW236202   7.271   2.685  14.738
44769SOL     OW36203  11.640   0.879   5.170
44769SOL    HW136204  11.566   0.838   5.215
44769SOL    HW236205  11.605   0.903   5.084
44770SOL     OW36206   8.827   9.378  13.593
44770SOL    HW136207   8.744   9.425  13.591
44770SOL    HW236208   8.813   9.305  13.653
44771SOL     OW36209   7.071  14.058  11.457
44771SOL    HW136210   6.990  14.012  11.436
44771SOL    HW236211   7.089  14.112  11.380
44772SOL     OW36212   9.918   3.338   9.088
44772SOL    HW136213   9.926   3.244   9.102
44772SOL    HW236214   9.986   3.377   9.142
44773SOL     OW36215  12.311   7.167  14.009
44773SOL    HW136216  12.256   7.090  14.017
44773SOL    HW236217  12.253   7.234  13.973
44774SOL     OW36218   9.021  14.482   9.870
44774SOL    HW136219   9.089  14.546   9.852
44774SOL    HW236220   9.067  14.407   9.907
44775SOL     OW36221  13.886  14.223   4.042
44775SOL    HW136222  13.888  14.196   4.134
44775SOL    HW236223  13.910  14.143   3.994
44776SOL     OW36224   2.097   6.838   2.131
44776SOL    HW136225   2.054   6.849   2.216
44776SOL    HW236226   2.190   6.835   2.151
44777SOL     OW36227   9.390   2.551   3.467
44777SOL    HW136228   9.377   2.462   3.500
44777SOL    HW236229   9.437   2.539   3.384
44778SOL     OW36230   4.612   8.436   0.157
44778SOL    HW136231   4.706   8.433   0.178
44778SOL    HW236232   4.586   8.345   0.148
44779SOL     OW36233   8.822   9.082   4.318
44779SOL    HW136234   8.868   9.156   4.278
44779SOL    HW236235   8.780   9.119   4.396
44780SOL     OW36236  13.399   2.284   0.582
44780SOL    HW136237  13.411   2.295   0.488
44780SOL    HW236238  13.347   2.358   0.609
44781SOL     OW36239   8.187  13.145  11.641
44781SOL    HW136240   8.135  13.185  11.711
44781SOL    HW236241   8.187  13.051  11.662
44782SOL     OW36242  11.677   3.790   0.484
44782SOL    HW136243  11.709   3.700   0.479
44782SOL    HW236244  11.643   3.798   0.574
44783SOL     OW36245  10.065   5.808   3.977
44783SOL    HW136246   9.989   5.814   3.920
44783SOL    HW236247  10.054   5.725   4.024
44784SOL     OW36248   3.452   5.753  12.944
44784SOL    HW136249   3.402   5.749  12.862
44784SOL    HW236250   3.424   5.675  12.993
44785SOL     OW36251   0.243   1.413   4.830
44785SOL    HW136252   0.161   1.370   4.854
44785SOL    HW236253   0.282   1.356   4.763
44786SOL     OW36254  11.721  12.760   3.538
44786SOL    HW136255  11.717  12.805   3.453
44786SOL    HW236256  11.795  12.700   3.530
44787SOL     OW36257   9.737  11.238   5.853
44787SOL    HW136258   9.825  11.219   5.820
44787SOL    HW236259   9.680  11.179   5.804
44788SOL     OW36260  13.757  12.416   1.764
44788SOL    HW136261  13.830  12.396   1.705
44788SOL    HW236262  13.772  12.507   1.790
44789SOL     OW36263  10.068  10.272  14.775
44789SOL    HW136264  10.164  10.276  14.774
44789SOL    HW236265  10.047  10.226  14.856
44790SOL     OW36266   1.948  11.221   1.659
44790SOL    HW136267   1.895  11.252   1.732
44790SOL    HW236268   1.926  11.279   1.586
44791SOL     OW36269  10.514  14.516   7.135
44791SOL    HW136270  10.559  14.595   7.166
44791SOL    HW236271  10.473  14.480   7.213
44792SOL     OW36272  14.270   4.587   0.261
44792SOL    HW136273  14.343   4.631   0.217
44792SOL    HW236274  14.245   4.517   0.202
44793SOL     OW36275   4.046   9.612  11.338
44793SOL    HW136276   4.112   9.679  11.323
44793SOL    HW236277   4.043   9.561  11.257
44794SOL     OW36278  14.258  13.002   1.468
44794SOL    HW136279  14.306  12.931   1.509
44794SOL    HW236280  14.167  12.973   1.469
44795SOL     OW36281   5.107   8.983   9.091
44795SOL    HW136282   5.042   9.002   9.023
44795SOL    HW236283   5.065   9.011   9.173
44796SOL     OW36284   1.733   6.748   6.832
44796SOL    HW136285   1.749   6.834   6.792
44796SOL    HW236286   1.643   6.727   6.807
44797SOL     OW36287  13.190   3.471   7.611
44797SOL    HW136288  13.218   3.379   7.608
44797SOL    HW236289  13.235   3.507   7.687
44798SOL     OW36290  10.343   5.969  11.738
44798SOL    HW136291  10.326   5.983  11.644
44798SOL    HW236292  10.431   6.004  11.752
44799SOL     OW36293   8.106  11.738   8.391
44799SOL    HW136294   8.032  11.686   8.420
44799SOL    HW236295   8.171  11.673   8.363
44800SOL     OW36296  13.536   0.297   8.076
44800SOL    HW136297  13.582   0.277   8.157
44800SOL    HW236298  13.477   0.222   8.063
44801SOL     OW36299  14.106   7.676  10.605
44801SOL    HW136300  14.130   7.714  10.690
44801SOL    HW236301  14.010   7.672  10.608
44802SOL     OW36302   3.588   5.033   9.799
44802SOL    HW136303   3.662   5.076   9.754
44802SOL    HW236304   3.629   4.980   9.867
44803SOL     OW36305   2.064   4.224  12.596
44803SOL    HW136306   2.120   4.302  12.587
44803SOL    HW236307   2.118   4.161  12.643
44804SOL     OW36308  12.414  12.214   1.232
44804SOL    HW136309  12.339  12.163   1.201
44804SOL    HW236310  12.405  12.299   1.188
44805SOL     OW36311  10.774   9.977   6.436
44805SOL    HW136312  10.729   9.899   6.404
44805SOL    HW236313  10.836   9.945   6.501
44806SOL     OW36314   7.735   3.485   1.313
44806SOL    HW136315   7.752   3.454   1.402
44806SOL    HW236316   7.821   3.485   1.271
44807SOL     OW36317   2.195   9.783  10.202
44807SOL    HW136318   2.165   9.864  10.243
44807SOL    HW236319   2.178   9.716  10.268
44808SOL     OW36320   1.140  11.981   4.571
44808SOL    HW136321   1.149  12.055   4.511
44808SOL    HW236322   1.144  12.021   4.658
44809SOL     OW36323   9.800   5.711   0.782
44809SOL    HW136324   9.799   5.637   0.843
44809SOL    HW236325   9.888   5.747   0.788
44810SOL     OW36326   7.897  10.583  12.146
44810SOL    HW136327   7.841  10.582  12.223
44810SOL    HW236328   7.918  10.490  12.130
44811SOL     OW36329   7.891   2.697   2.503
44811SOL    HW136330   7.941   2.741   2.571
44811SOL    HW236331   7.801   2.730   2.514
44812SOL     OW36332   6.269   7.307  11.261
44812SOL    HW136333   6.253   7.213  11.269
44812SOL    HW236334   6.207   7.347  11.321
44813SOL     OW36335   2.483   2.264   3.077
44813SOL    HW136336   2.440   2.346   3.101
44813SOL    HW236337   2.411   2.201   3.066
44814SOL     OW36338   4.418   6.567   7.426
44814SOL    HW136339   4.330   6.603   7.433
44814SOL    HW236340   4.444   6.549   7.517
44815SOL     OW36341   0.553  13.434  12.497
44815SOL    HW136342   0.533  13.525  12.472
44815SOL    HW236343   0.562  13.388  12.413
44816SOL     OW36344   0.662   2.635  14.442
44816SOL    HW136345   0.639   2.551  14.401
44816SOL    HW236346   0.579   2.670  14.474
44817SOL     OW36347   4.086   9.619  13.621
44817SOL    HW136348   4.150   9.688  13.637
44817SOL    HW236349   4.126   9.563  13.556
44818SOL     OW36350  11.852  13.204  12.018
44818SOL    HW136351  11.810  13.119  12.000
44818SOL    HW236352  11.894  13.192  12.103
44819SOL     OW36353  12.741  12.332   8.344
44819SOL    HW136354  12.802  12.287   8.403
44819SOL    HW236355  12.735  12.421   8.380
44820SOL     OW36356  14.799   9.772   6.966
44820SOL    HW136357  14.868   9.709   6.983
44820SOL    HW236358  14.821   9.847   7.021
44821SOL     OW36359  13.976   7.302   5.534
44821SOL    HW136360  14.069   7.306   5.510
44821SOL    HW236361  13.949   7.393   5.545
44822SOL     OW36362  12.220   2.199   8.382
44822SOL    HW136363  12.230   2.268   8.317
44822SOL    HW236364  12.218   2.118   8.330
44823SOL     OW36365  14.288   5.944   5.529
44823SOL    HW136366  14.239   6.001   5.469
44823SOL    HW236367  14.370   5.926   5.483
44824SOL     OW36368   2.475  10.754   7.252
44824SOL    HW136369   2.464  10.799   7.336
44824SOL    HW236370   2.388  10.756   7.212
44825SOL     OW36371   1.239   1.175  13.365
44825SOL    HW136372   1.148   1.200  13.383
44825SOL    HW236373   1.291   1.245  13.404
44826SOL     OW36374   5.636   3.306   8.297
44826SOL    HW136375   5.715   3.350   8.265
44826SOL    HW236376   5.638   3.320   8.392
44827SOL     OW36377   7.173  12.674   9.409
44827SOL    HW136378   7.161  12.682   9.315
44827SOL    HW236379   7.085  12.658   9.443
44828SOL     OW36380  14.720  11.505   1.300
44828SOL    HW136381  14.665  11.564   1.352
44828SOL    HW236382  14.768  11.563   1.240
44829SOL     OW36383   2.254   7.452   0.970
44829SOL    HW136384   2.286   7.481   1.055
44829SOL    HW236385   2.326   7.469   0.910
44830SOL     OW36386   4.672   9.873  10.259
44830SOL    HW136387   4.757   9.860  10.218
44830SOL    HW236388   4.614   9.810  10.216
44831SOL     OW36389   0.382  10.809   6.087
44831SOL    HW136390   0.311  10.757   6.048
44831SOL    HW236391   0.400  10.766   6.171
44832SOL     OW36392  13.176   6.081  13.086
44832SOL    HW136393  13.111   6.127  13.033
44832SOL    HW236394  13.157   5.988  13.071
44833SOL     OW36395   8.538  14.173   9.289
44833SOL    HW136396   8.588  14.202   9.366
44833SOL    HW236397   8.472  14.241   9.276
44834SOL     OW36398   7.079   8.597  10.506
44834SOL    HW136399   7.015   8.575  10.573
44834SOL    HW236400   7.161   8.606  10.554
44835SOL     OW36401  13.572   7.013   0.770
44835SOL    HW136402  13.498   6.999   0.828
44835SOL    HW236403  13.649   7.015   0.827
44836SOL     OW36404   1.495   5.838  13.256
44836SOL    HW136405   1.444   5.759  13.238
44836SOL    HW236406   1.481   5.893  13.179
44837SOL     OW36407   6.025   7.542   6.040
44837SOL    HW136408   6.057   7.471   6.095
44837SOL    HW236409   6.067   7.528   5.955
44838SOL     OW36410   0.902  12.131   9.404
44838SOL    HW136411   0.948  12.054   9.369
44838SOL    HW236412   0.867  12.101   9.488
44839SOL     OW36413   8.677  14.385  10.194
44839SOL    HW136414   8.706  14.459  10.141
44839SOL    HW236415   8.582  14.383  10.184
44840SOL     OW36416   0.346  11.431   2.232
44840SOL    HW136417   0.251  11.440   2.234
44840SOL    HW236418   0.364  11.380   2.154
44841SOL     OW36419   6.037  13.419  13.306
44841SOL    HW136420   5.957  13.370  13.325
44841SOL    HW236421   6.059  13.396  13.216
44842SOL     OW36422   3.171   8.676  13.181
44842SOL    HW136423   3.252   8.713  13.216
44842SOL    HW236424   3.102   8.735  13.212
44843SOL     OW36425   1.310   2.019   3.430
44843SOL    HW136426   1.226   1.974   3.441
44843SOL    HW236427   1.374   1.962   3.474
44844SOL     OW36428  14.063   8.320  11.154
44844SOL    HW136429  14.097   8.404  11.121
44844SOL    HW236430  13.998   8.345  11.220
44845SOL     OW36431   3.553   0.708   3.317
44845SOL    HW136432   3.457   0.704   3.317
44845SOL    HW236433   3.579   0.661   3.238
44846SOL     OW36434   3.676   9.309  13.532
44846SOL    HW136435   3.699   9.400  13.514
44846SOL    HW236436   3.654   9.272  13.447
44847SOL     OW36437   3.752  10.402   0.100
44847SOL    HW136438   3.752  10.326   0.159
44847SOL    HW236439   3.834  10.395   0.052
44848SOL     OW36440  12.732   2.131  13.550
44848SOL    HW136441  12.752   2.039  13.530
44848SOL    HW236442  12.692   2.128  13.637
44849SOL     OW36443   0.100   4.256   1.115
44849SOL    HW136444   0.064   4.301   1.039
44849SOL    HW236445   0.026   4.207   1.152
44850SOL     OW36446   0.837   8.431   1.692
44850SOL    HW136447   0.751   8.471   1.707
44850SOL    HW236448   0.830   8.344   1.731
44851SOL     OW36449   4.898   3.904   3.002
44851SOL    HW136450   4.857   3.940   3.080
44851SOL    HW236451   4.978   3.862   3.033
44852SOL     OW36452   4.052  11.583   1.291
44852SOL    HW136453   4.000  11.519   1.339
44852SOL    HW236454   4.054  11.550   1.201
44853SOL     OW36455   8.541   4.401   1.797
44853SOL    HW136456   8.481   4.349   1.744
44853SOL    HW236457   8.542   4.357   1.882
44854SOL     OW36458   9.772   2.861  14.042
44854SOL    HW136459   9.809   2.943  14.074
44854SOL    HW236460   9.687   2.855  14.086
44855SOL     OW36461   0.883   5.477   6.371
44855SOL    HW136462   0.950   5.422   6.412
44855SOL    HW236463   0.878   5.555   6.426
44856SOL     OW36464   4.223   8.523   4.363
44856SOL    HW136465   4.128   8.521   4.374
44856SOL    HW236466   4.241   8.609   4.325
44857SOL     OW36467   0.707  11.263   3.864
44857SOL    HW136468   0.682  11.269   3.956
44857SOL    HW236469   0.656  11.190   3.829
44858SOL     OW36470   5.271  13.797   6.505
44858SOL    HW136471   5.307  13.721   6.460
44858SOL    HW236472   5.178  13.779   6.513
44859SOL     OW36473  10.769   5.805   8.073
44859SOL    HW136474  10.786   5.876   8.135
44859SOL    HW236475  10.846   5.805   8.015
44860SOL     OW36476   3.889   3.703   8.145
44860SOL    HW136477   3.848   3.724   8.061
44860SOL    HW236478   3.817   3.680   8.203
44861SOL     OW36479   6.776   0.323   0.491
44861SOL    HW136480   6.810   0.355   0.574
44861SOL    HW236481   6.854   0.291   0.444
44862SOL     OW36482   5.526   1.515   9.883
44862SOL    HW136483   5.600   1.575   9.874
44862SOL    HW236484   5.500   1.495   9.794
44863SOL     OW36485   0.738   4.265   1.784
44863SOL    HW136486   0.681   4.341   1.795
44863SOL    HW236487   0.827   4.301   1.784
44864SOL     OW36488   9.274   2.485   5.030
44864SOL    HW136489   9.212   2.441   5.088
44864SOL    HW236490   9.269   2.577   5.055
44865SOL     OW36491  10.708   2.783   6.775
44865SOL    HW136492  10.799   2.769   6.749
44865SOL    HW236493  10.658   2.723   6.720
44866SOL     OW36494   5.412   0.431   2.138
44866SOL    HW136495   5.418   0.415   2.043
44866SOL    HW236496   5.503   0.428   2.167
44867SOL     OW36497  12.430   2.898   7.002
44867SOL    HW136498  12.456   2.831   6.938
44867SOL    HW236499  12.512   2.933   7.036
44868SOL     OW36500   0.451   3.473   8.456
44868SOL    HW136501   0.475   3.423   8.534
44868SOL    HW236502   0.534   3.487   8.410
44869SOL     OW36503  13.983   1.808   1.430
44869SOL    HW136504  13.913   1.858   1.472
44869SOL    HW236505  14.050   1.874   1.410
44870SOL     OW36506   7.218   8.473   8.366
44870SOL    HW136507   7.246   8.396   8.415
44870SOL    HW236508   7.287   8.537   8.379
44871SOL     OW36509   7.015   5.766  10.981
44871SOL    HW136510   6.925   5.793  11.003
44871SOL    HW236511   7.068   5.844  11.000
44872SOL     OW36512   3.559   2.023   6.246
44872SOL    HW136513   3.475   1.977   6.234
44872SOL    HW236514   3.582   2.007   6.337
44873SOL     OW36515  13.420  13.003  14.562
44873SOL    HW136516  13.326  13.019  14.553
44873SOL    HW236517  13.428  12.947  14.640
44874SOL     OW36518   8.068  12.126   3.323
44874SOL    HW136519   8.019  12.200   3.288
44874SOL    HW236520   8.155  12.134   3.284
44875SOL     OW36521   7.229  11.857  10.735
44875SOL    HW136522   7.323  11.836  10.743
44875SOL    HW236523   7.203  11.883  10.823
44876SOL     OW36524   3.612   5.653  11.122
44876SOL    HW136525   3.521   5.656  11.092
44876SOL    HW236526   3.636   5.560  11.118
44877SOL     OW36527  13.502   2.206  13.035
44877SOL    HW136528  13.500   2.268  12.962
44877SOL    HW236529  13.560   2.136  13.006
44878SOL     OW36530  12.684  10.460  11.955
44878SOL    HW136531  12.692  10.410  11.874
44878SOL    HW236532  12.621  10.528  11.935
44879SOL     OW36533  13.212  11.070   0.454
44879SOL    HW136534  13.183  11.145   0.401
44879SOL    HW236535  13.218  11.104   0.543
44880SOL     OW36536   8.964  10.419   6.312
44880SOL    HW136537   8.947  10.458   6.398
44880SOL    HW236538   8.929  10.482   6.250
44881SOL     OW36539   4.891   5.840   3.858
44881SOL    HW136540   4.948   5.833   3.782
44881SOL    HW236541   4.885   5.933   3.876
44882SOL     OW36542  10.507   7.374  10.885
44882SOL    HW136543  10.544   7.326  10.811
44882SOL    HW236544  10.412   7.362  10.876
44883SOL     OW36545  12.799   0.158   2.022
44883SOL    HW136546  12.822   0.250   2.028
44883SOL    HW236547  12.808   0.125   2.111
44884SOL     OW36548   3.602  12.063  14.430
44884SOL    HW136549   3.592  12.147  14.385
44884SOL    HW236550   3.608  11.999  14.359
44885SOL     OW36551   0.885   5.108   5.279
44885SOL    HW136552   0.863   5.125   5.187
44885SOL    HW236553   0.975   5.139   5.288
44886SOL     OW36554   4.164   5.704   4.584
44886SOL    HW136555   4.248   5.715   4.539
44886SOL    HW236556   4.149   5.609   4.584
44887SOL     OW36557   6.825   0.668   7.306
44887SOL    HW136558   6.789   0.742   7.355
44887SOL    HW236559   6.786   0.675   7.219
44888SOL     OW36560  11.963   2.543   7.413
44888SOL    HW136561  11.874   2.511   7.421
44888SOL    HW236562  11.971   2.570   7.321
44889SOL     OW36563   7.422  14.211   1.867
44889SOL    HW136564   7.349  14.271   1.852
44889SOL    HW236565   7.453  14.189   1.779
44890SOL     OW36566  11.515  10.869   2.672
44890SOL    HW136567  11.513  10.781   2.709
44890SOL    HW236568  11.587  10.866   2.608
44891SOL     OW36569  12.025  10.148   8.297
44891SOL    HW136570  11.976  10.207   8.240
44891SOL    HW236571  11.961  10.115   8.360
44892SOL     OW36572  13.142   8.415   7.302
44892SOL    HW136573  13.167   8.333   7.344
44892SOL    HW236574  13.219   8.442   7.252
44893SOL     OW36575   2.351   4.728  11.064
44893SOL    HW136576   2.286   4.658  11.057
44893SOL    HW236577   2.344   4.776  10.981
44894SOL     OW36578   2.039   8.339  11.654
44894SOL    HW136579   1.975   8.400  11.617
44894SOL    HW236580   2.091   8.392  11.714
44895SOL     OW36581   6.538  11.790   8.032
44895SOL    HW136582   6.538  11.869   7.977
44895SOL    HW236583   6.445  11.767   8.041
44896SOL     OW36584   6.834   6.943  14.798
44896SOL    HW136585   6.763   6.888  14.832
44896SOL    HW236586   6.826   7.025  14.846
44897SOL     OW36587   1.041   1.695   9.309
44897SOL    HW136588   1.006   1.710   9.397
44897SOL    HW236589   1.042   1.782   9.268
44898SOL     OW36590  11.829   4.443   6.698
44898SOL    HW136591  11.807   4.361   6.653
44898SOL    HW236592  11.745   4.475   6.732
44899SOL     OW36593   9.744   3.572  12.500
44899SOL    HW136594   9.765   3.618  12.418
44899SOL    HW236595   9.774   3.631  12.569
44900SOL     OW36596   5.376  10.673   5.037
44900SOL    HW136597   5.417  10.625   5.108
44900SOL    HW236598   5.377  10.612   4.963
44901SOL     OW36599  11.360  12.764   3.034
44901SOL    HW136600  11.423  12.835   3.027
44901SOL    HW236601  11.346  12.753   3.129
44902SOL     OW36602   9.971   6.093   0.448
44902SOL    HW136603   9.961   6.011   0.400
44902SOL    HW236604   9.963   6.067   0.540
44903SOL     OW36605   1.320  11.898   8.740
44903SOL    HW136606   1.301  11.865   8.827
44903SOL    HW236607   1.413  11.880   8.727
44904SOL     OW36608   9.495  13.339  13.822
44904SOL    HW136609   9.472  13.271  13.758
44904SOL    HW236610   9.490  13.421  13.773
44905SOL     OW36611  10.471   9.369   6.591
44905SOL    HW136612  10.445   9.401   6.678
44905SOL    HW236613  10.457   9.275   6.595
44906SOL     OW36614  13.008   3.358   6.354
44906SOL    HW136615  12.967   3.443   6.340
44906SOL    HW236616  13.100   3.372   6.334
44907SOL     OW36617   9.549   0.394  10.806
44907SOL    HW136618   9.546   0.456  10.879
44907SOL    HW236619   9.460   0.359  10.801
44908SOL     OW36620   3.503   2.021   8.479
44908SOL    HW136621   3.491   1.930   8.504
44908SOL    HW236622   3.545   2.062   8.555
44909SOL     OW36623   2.154   2.523   9.297
44909SOL    HW136624   2.165   2.573   9.377
44909SOL    HW236625   2.238   2.478   9.285
44910SOL     OW36626   8.645   2.177   6.282
44910SOL    HW136627   8.659   2.097   6.331
44910SOL    HW236628   8.551   2.194   6.290
44911SOL     OW36629  13.972   1.024   0.853
44911SOL    HW136630  14.048   0.967   0.837
44911SOL    HW236631  13.926   1.026   0.769
44912SOL     OW36632   4.236  11.239   2.523
44912SOL    HW136633   4.325  11.242   2.558
44912SOL    HW236634   4.238  11.300   2.449
44913SOL     OW36635   8.992  14.773   1.271
44913SOL    HW136636   8.919  14.783   1.332
44913SOL    HW236637   9.045  14.852   1.284
44914SOL     OW36638  12.146   0.924   9.849
44914SOL    HW136639  12.226   0.970   9.871
44914SOL    HW236640  12.159   0.893   9.760
44915SOL     OW36641   2.489   2.907  12.322
44915SOL    HW136642   2.574   2.934  12.357
44915SOL    HW236643   2.461   2.835  12.378
44916SOL     OW36644   6.349   8.184  14.822
44916SOL    HW136645   6.303   8.229  14.751
44916SOL    HW236646   6.435   8.226  14.825
44917SOL     OW36647   2.546   7.279  12.237
44917SOL    HW136648   2.640   7.293  12.232
44917SOL    HW236649   2.535   7.218  12.310
44918SOL     OW36650   2.718   1.215  14.842
44918SOL    HW136651   2.725   1.124  14.871
44918SOL    HW236652   2.652   1.213  14.773
44919SOL     OW36653   1.121   8.240   1.547
44919SOL    HW136654   1.083   8.287   1.621
44919SOL    HW236655   1.093   8.290   1.470
44920SOL     OW36656   5.594  11.312   2.597
44920SOL    HW136657   5.588  11.315   2.502
44920SOL    HW236658   5.639  11.230   2.617
44921SOL     OW36659   1.822   0.893   8.096
44921SOL    HW136660   1.869   0.970   8.064
44921SOL    HW236661   1.829   0.898   8.191
44922SOL     OW36662  14.105   6.158   8.001
44922SOL    HW136663  14.082   6.069   8.029
44922SOL    HW236664  14.159   6.193   8.072
44923SOL     OW36665  14.387   9.369   8.519
44923SOL    HW136666  14.425   9.439   8.571
44923SOL    HW236667  14.335   9.318   8.582
44924SOL     OW36668   7.348  14.620   2.191
44924SOL    HW136669   7.421  14.586   2.243
44924SOL    HW236670   7.381  14.621   2.101
44925SOL     OW36671  12.228   8.889   6.953
44925SOL    HW136672  12.149   8.937   6.928
44925SOL    HW236673  12.201   8.797   6.953
44926SOL     OW36674   9.750   3.658   2.987
44926SOL    HW136675   9.752   3.571   2.948
44926SOL    HW236676   9.758   3.642   3.081
44927SOL     OW36677  12.880   0.859   3.295
44927SOL    HW136678  12.812   0.792   3.297
44927SOL    HW236679  12.846   0.929   3.351
44928SOL     OW36680   4.877  12.130  10.245
44928SOL    HW136681   4.858  12.045  10.285
44928SOL    HW236682   4.832  12.193  10.301
44929SOL     OW36683  13.938  12.924   3.935
44929SOL    HW136684  13.853  12.962   3.913
44929SOL    HW236685  13.925  12.830   3.923
44930SOL     OW36686   0.533   1.662   3.028
44930SOL    HW136687   0.554   1.643   3.119
44930SOL    HW236688   0.445   1.626   3.015
44931SOL     OW36689   1.095  14.555   0.907
44931SOL    HW136690   1.124  14.571   0.997
44931SOL    HW236691   1.009  14.596   0.901
44932SOL     OW36692  10.525   2.464   5.903
44932SOL    HW136693  10.592   2.395   5.896
44932SOL    HW236694  10.453   2.422   5.952
44933SOL     OW36695  11.679  13.913  12.115
44933SOL    HW136696  11.712  13.998  12.086
44933SOL    HW236697  11.712  13.852  12.049
44934SOL     OW36698  10.402   3.185   1.477
44934SOL    HW136699  10.377   3.250   1.412
44934SOL    HW236700  10.466   3.229   1.533
44935SOL     OW36701   0.979  12.828   4.904
44935SOL    HW136702   1.029  12.871   4.835
44935SOL    HW236703   1.018  12.860   4.986
44936SOL     OW36704   2.704   8.286  13.436
44936SOL    HW136705   2.702   8.233  13.516
44936SOL    HW236706   2.620   8.268  13.394
44937SOL     OW36707   6.990  11.575  11.917
44937SOL    HW136708   6.930  11.513  11.876
44937SOL    HW236709   7.015  11.532  11.999
44938SOL     OW36710   2.835   8.626   6.752
44938SOL    HW136711   2.930   8.623   6.738
44938SOL    HW236712   2.815   8.541   6.792
44939SOL     OW36713   9.374   4.866   0.474
44939SOL    HW136714   9.458   4.831   0.444
44939SOL    HW236715   9.343   4.920   0.401
44940SOL     OW36716   8.864   3.888   6.557
44940SOL    HW136717   8.939   3.833   6.535
44940SOL    HW236718   8.877   3.968   6.506
44941SOL     OW36719  11.819  13.303   7.260
44941SOL    HW136720  11.730  13.272   7.275
44941SOL    HW236721  11.808  13.380   7.203
44942SOL     OW36722   9.559  11.030   4.277
44942SOL    HW136723   9.589  11.041   4.367
44942SOL    HW236724   9.632  10.989   4.231
44943SOL     OW36725   4.615   1.337  12.542
44943SOL    HW136726   4.675   1.412  12.545
44943SOL    HW236727   4.601   1.316  12.635
44944SOL     OW36728   7.454  13.585   3.898
44944SOL    HW136729   7.541  13.547   3.912
44944SOL    HW236730   7.416  13.533   3.827
44945SOL     OW36731  12.276   8.386   7.156
44945SOL    HW136732  12.237   8.461   7.199
44945SOL    HW236733  12.360   8.374   7.200
44946SOL     OW36734   9.677   3.253   7.381
44946SOL    HW136735   9.601   3.205   7.346
44946SOL    HW236736   9.700   3.206   7.461
44947SOL     OW36737   1.164  10.978   5.326
44947SOL    HW136738   1.177  10.979   5.231
44947SOL    HW236739   1.084  11.029   5.340
44948SOL     OW36740   5.745   1.719   6.631
44948SOL    HW136741   5.815   1.734   6.567
44948SOL    HW236742   5.756   1.628   6.657
44949SOL     OW36743   5.418   3.477  13.711
44949SOL    HW136744   5.438   3.396  13.665
44949SOL    HW236745   5.413   3.543  13.643
44950SOL     OW36746   6.116  13.809   5.374
44950SOL    HW136747   6.109  13.717   5.350
44950SOL    HW236748   6.025  13.837   5.388
44951SOL     OW36749   5.743   6.879   5.708
44951SOL    HW136750   5.794   6.798   5.711
44951SOL    HW236751   5.671   6.860   5.647
44952SOL     OW36752   5.699  13.455  14.149
44952SOL    HW136753   5.734  13.503  14.223
44952SOL    HW236754   5.753  13.483  14.075
44953SOL     OW36755   2.674   5.057   9.074
44953SOL    HW136756   2.765   5.027   9.071
44953SOL    HW236757   2.670   5.125   9.007
44954SOL     OW36758   6.213  13.439   6.471
44954SOL    HW136759   6.120  13.451   6.452
44954SOL    HW236760   6.215  13.368   6.535
44955SOL     OW36761   3.720  11.331   5.597
44955SOL    HW136762   3.746  11.419   5.570
44955SOL    HW236763   3.666  11.299   5.524
44956SOL     OW36764   3.049   4.799   4.625
44956SOL    HW136765   2.960   4.805   4.592
44956SOL    HW236766   3.042   4.747   4.704
44957SOL     OW36767  11.362  10.113   1.619
44957SOL    HW136768  11.282  10.153   1.583
44957SOL    HW236769  11.418  10.100   1.542
44958SOL     OW36770   2.084   6.919  12.932
44958SOL    HW136771   2.065   6.825  12.934
44958SOL    HW236772   2.134   6.935  13.012
44959SOL     OW36773  13.207   1.897  14.041
44959SOL    HW136774  13.255   1.953  13.980
44959SOL    HW236775  13.189   1.818  13.991
44960SOL     OW36776  12.461   9.664   0.707
44960SOL    HW136777  12.393   9.731   0.708
44960SOL    HW236778  12.489   9.660   0.615
44961SOL     OW36779  10.040   3.128   8.319
44961SOL    HW136780  10.036   3.034   8.339
44961SOL    HW236781  10.108   3.136   8.252
44962SOL     OW36782  11.726   4.128   4.107
44962SOL    HW136783  11.696   4.206   4.154
44962SOL    HW236784  11.745   4.064   4.176
44963SOL     OW36785   0.913   7.909  13.041
44963SOL    HW136786   0.852   7.852  13.088
44963SOL    HW236787   0.943   7.972  13.107
44964SOL     OW36788   1.067  14.584   4.102
44964SOL    HW136789   1.128  14.575   4.029
44964SOL    HW236790   1.088  14.511   4.160
44965SOL     OW36791   4.741   5.553  14.522
44965SOL    HW136792   4.651   5.560  14.554
44965SOL    HW236793   4.740   5.602  14.440
44966SOL     OW36794   2.209  14.302   8.227
44966SOL    HW136795   2.225  14.337   8.315
44966SOL    HW236796   2.138  14.356   8.192
44967SOL     OW36797  14.221   9.252  13.272
44967SOL    HW136798  14.257   9.232  13.186
44967SOL    HW236799  14.262   9.335  13.297
44968SOL     OW36800   0.960   3.715   8.363
44968SOL    HW136801   0.958   3.811   8.373
44968SOL    HW236802   0.949   3.681   8.452
44969SOL     OW36803   2.163  12.521  12.966
44969SOL    HW136804   2.166  12.501  13.060
44969SOL    HW236805   2.226  12.592  12.955
44970SOL     OW36806   6.941  14.264   2.757
44970SOL    HW136807   6.915  14.192   2.699
44970SOL    HW236808   7.017  14.230   2.804
44971SOL     OW36809   7.725   7.832   1.484
44971SOL    HW136810   7.635   7.862   1.497
44971SOL    HW236811   7.777   7.886   1.542
44972SOL     OW36812   1.715   4.111  11.825
44972SOL    HW136813   1.741   4.026  11.860
44972SOL    HW236814   1.620   4.109  11.823
44973SOL     OW36815   0.197  14.100   8.654
44973SOL    HW136816   0.157  14.017   8.680
44973SOL    HW236817   0.245  14.080   8.574
44974SOL     OW36818  11.637   6.444   4.695
44974SOL    HW136819  11.588   6.448   4.777
44974SOL    HW236820  11.586   6.388   4.638
44975SOL     OW36821   3.894  11.553   9.453
44975SOL    HW136822   3.942  11.522   9.530
44975SOL    HW236823   3.889  11.648   9.464
44976SOL     OW36824  10.257   5.991   0.972
44976SOL    HW136825  10.169   5.991   0.935
44976SOL    HW236826  10.264   6.076   1.015
44977SOL     OW36827   5.041   6.775   2.491
44977SOL    HW136828   4.994   6.700   2.455
44977SOL    HW236829   4.995   6.794   2.573
44978SOL     OW36830  14.747   6.016  10.025
44978SOL    HW136831  14.833   6.059  10.017
44978SOL    HW236832  14.710   6.052  10.106
44979SOL     OW36833   4.725   5.225   0.937
44979SOL    HW136834   4.785   5.237   1.010
44979SOL    HW236835   4.774   5.253   0.859
44980SOL     OW36836  12.821   4.194   8.060
44980SOL    HW136837  12.831   4.281   8.099
44980SOL    HW236838  12.735   4.165   8.090
44981SOL     OW36839   5.012  12.706   8.418
44981SOL    HW136840   4.934  12.718   8.473
44981SOL    HW236841   5.049  12.794   8.410
44982SOL     OW36842   9.866  14.825   1.814
44982SOL    HW136843   9.829   0.011   1.876
44982SOL    HW236844   9.845  14.860   1.728
44983SOL     OW36845   3.112   9.383   1.977
44983SOL    HW136846   3.125   9.436   2.055
44983SOL    HW236847   3.039   9.425   1.931
44984SOL     OW36848   3.051  13.033   6.996
44984SOL    HW136849   3.122  12.975   6.967
44984SOL    HW236850   3.039  13.012   7.088
44985SOL     OW36851  10.292  12.686   9.997
44985SOL    HW136852  10.335  12.647   9.921
44985SOL    HW236853  10.203  12.651   9.996
44986SOL     OW36854   6.562  14.040   5.470
44986SOL    HW136855   6.622  14.018   5.542
44986SOL    HW236856   6.477  14.048   5.512
44987SOL     OW36857  11.584   5.420   4.486
44987SOL    HW136858  11.598   5.433   4.393
44987SOL    HW236859  11.523   5.489   4.511
44988SOL     OW36860   0.535   2.588  13.325
44988SOL    HW136861   0.626   2.616  13.327
44988SOL    HW236862   0.539   2.492  13.327
44989SOL     OW36863   7.688  10.076   8.365
44989SOL    HW136864   7.750  10.075   8.292
44989SOL    HW236865   7.728  10.135   8.429
44990SOL     OW36866   3.903   3.970   8.985
44990SOL    HW136867   3.812   3.979   9.015
44990SOL    HW236868   3.956   3.996   9.060
44991SOL     OW36869  13.859   0.981  11.849
44991SOL    HW136870  13.769   1.003  11.872
44991SOL    HW236871  13.877   0.899  11.895
44992SOL     OW36872   3.643  14.734   1.796
44992SOL    HW136873   3.670  14.826   1.801
44992SOL    HW236874   3.721  14.686   1.823
44993SOL     OW36875   5.871   7.076   2.785
44993SOL    HW136876   5.898   7.096   2.875
44993SOL    HW236877   5.816   7.150   2.759
44994SOL     OW36878   8.376   9.268  10.018
44994SOL    HW136879   8.328   9.344  10.050
44994SOL    HW236880   8.459   9.270  10.066
44995SOL     OW36881   5.877  10.588   7.085
44995SOL    HW136882   5.969  10.614   7.087
44995SOL    HW236883   5.844  10.606   7.173
44996SOL     OW36884   5.603  14.310  13.364
44996SOL    HW136885   5.544  14.355  13.425
44996SOL    HW236886   5.615  14.373  13.292
44997SOL     OW36887  10.237   1.498  11.473
44997SOL    HW136888  10.179   1.531  11.404
44997SOL    HW236889  10.179   1.454  11.535
44998SOL     OW36890   3.699  10.003  11.035
44998SOL    HW136891   3.606  10.019  11.052
44998SOL    HW236892   3.739   9.998  11.121
44999SOL     OW36893   4.715   3.389  10.142
44999SOL    HW136894   4.670   3.440  10.075
44999SOL    HW236895   4.775   3.333  10.093
45000SOL     OW36896  14.320  10.740   4.565
45000SOL    HW136897  14.411  10.720   4.587
45000SOL    HW236898  14.324  10.776   4.476
45001SOL     OW36899  11.185   2.543   5.246
45001SOL    HW136900  11.230   2.534   5.330
45001SOL    HW236901  11.195   2.635   5.223
45002SOL     OW36902   2.331   9.891   4.873
45002SOL    HW136903   2.369   9.874   4.786
45002SOL    HW236904   2.274   9.816   4.888
45003SOL     OW36905  13.507  13.771   0.887
45003SOL    HW136906  13.551  13.780   0.972
45003SOL    HW236907  13.428  13.826   0.895
45004SOL     OW36908   1.385   8.157   8.716
45004SOL    HW136909   1.476   8.152   8.745
45004SOL    HW236910   1.340   8.092   8.769
45005SOL     OW36911  11.402   5.564   9.310
45005SOL    HW136912  11.405   5.579   9.404
45005SOL    HW236913  11.425   5.472   9.299
45006SOL     OW36914   0.890   3.439   6.686
45006SOL    HW136915   0.869   3.346   6.687
45006SOL    HW236916   0.981   3.443   6.654
45007SOL     OW36917  11.917  10.265   8.079
45007SOL    HW136918  11.873  10.183   8.057
45007SOL    HW236919  11.969  10.286   8.001
45008SOL     OW36920   0.177  10.699   5.910
45008SOL    HW136921   0.102  10.726   5.858
45008SOL    HW236922   0.140  10.646   5.981
45009SOL     OW36923   4.910   7.973   9.012
45009SOL    HW136924   4.846   7.903   8.998
45009SOL    HW236925   4.970   7.966   8.938
45010SOL     OW36926   1.558  13.161   1.027
45010SOL    HW136927   1.468  13.135   1.011
45010SOL    HW236928   1.552  13.252   1.058
45011SOL     OW36929  11.664  10.268   6.086
45011SOL    HW136930  11.614  10.283   6.166
45011SOL    HW236931  11.670  10.355   6.045
45012SOL     OW36932   3.340   1.420   3.383
45012SOL    HW136933   3.380   1.482   3.321
45012SOL    HW236934   3.254   1.402   3.346
45013SOL     OW36935   2.303   7.347   3.649
45013SOL    HW136936   2.226   7.333   3.593
45013SOL    HW236937   2.377   7.320   3.594
45014SOL     OW36938   3.180   2.116  12.079
45014SOL    HW136939   3.276   2.110  12.082
45014SOL    HW236940   3.160   2.206  12.104
45015SOL     OW36941   2.128  10.275   1.709
45015SOL    HW136942   2.066  10.247   1.642
45015SOL    HW236943   2.157  10.362   1.681
45016SOL     OW36944  14.265   9.783   0.934
45016SOL    HW136945  14.334   9.718   0.941
45016SOL    HW236946  14.243   9.806   1.024
45017SOL     OW36947  10.657   5.103   5.988
45017SOL    HW136948  10.705   5.021   5.976
45017SOL    HW236949  10.653   5.115   6.083
45018SOL     OW36950   6.639  12.202  14.492
45018SOL    HW136951   6.602  12.114  14.497
45018SOL    HW236952   6.632  12.226  14.400
45019SOL     OW36953  10.249   8.171  10.372
45019SOL    HW136954  10.156   8.153  10.361
45019SOL    HW236955  10.256   8.201  10.463
45020SOL     OW36956   2.522  14.666  11.739
45020SOL    HW136957   2.487  14.688  11.825
45020SOL    HW236958   2.451  14.688  11.678
45021SOL     OW36959   4.955   0.438   9.387
45021SOL    HW136960   4.990   0.349   9.374
45021SOL    HW236961   5.016   0.495   9.341
45022SOL     OW36962   3.177   0.406   3.075
45022SOL    HW136963   3.163   0.500   3.077
45022SOL    HW236964   3.199   0.383   3.165
45023SOL     OW36965   8.100  11.749  10.905
45023SOL    HW136966   8.176  11.754  10.846
45023SOL    HW236967   8.136  11.770  10.991
45024SOL     OW36968  13.941  11.279   8.199
45024SOL    HW136969  13.867  11.245   8.150
45024SOL    HW236970  14.018  11.259   8.145
45025SOL     OW36971   3.113  12.659   8.550
45025SOL    HW136972   3.151  12.571   8.548
45025SOL    HW236973   3.091  12.674   8.642
45026SOL     OW36974   8.809  14.700   3.018
45026SOL    HW136975   8.717  14.718   3.035
45026SOL    HW236976   8.825  14.734   2.930
45027SOL     OW36977  12.144  12.088  10.948
45027SOL    HW136978  12.136  12.183  10.955
45027SOL    HW236979  12.140  12.071  10.854
45028SOL     OW36980  10.173   4.772   9.416
45028SOL    HW136981  10.200   4.681   9.429
45028SOL    HW236982  10.201   4.793   9.327
45029SOL     OW36983  10.537   4.562  12.165
45029SOL    HW136984  10.532   4.602  12.252
45029SOL    HW236985  10.448   4.567  12.132
45030SOL     OW36986  11.730   1.185   6.755
45030SOL    HW136987  11.813   1.228   6.776
45030SOL    HW236988  11.708   1.218   6.668
45031SOL     OW36989   5.438  10.706   6.503
45031SOL    HW136990   5.530  10.725   6.520
45031SOL    HW236991   5.398  10.703   6.590
45032SOL     OW36992   2.799  11.433   9.485
45032SOL    HW136993   2.846  11.475   9.413
45032SOL    HW236994   2.855  11.446   9.561
45033SOL     OW36995  13.606   1.857  10.041
45033SOL    HW136996  13.593   1.762  10.049
45033SOL    HW236997  13.541   1.884   9.976
45034SOL     OW36998  12.455   8.094   1.206
45034SOL    HW136999  12.432   8.121   1.294
45034SOL    HW237000  12.517   8.021   1.218
45035SOL     OW37001   1.924   5.252  12.954
45035SOL    HW137002   1.880   5.222  12.875
45035SOL    HW237003   2.006   5.203  12.957
45036SOL     OW37004   5.415   6.505   6.154
45036SOL    HW137005   5.487   6.473   6.208
45036SOL    HW237006   5.336   6.479   6.201
45037SOL     OW37007   7.778   9.214   4.260
45037SOL    HW137008   7.745   9.229   4.348
45037SOL    HW237009   7.729   9.276   4.205
45038SOL     OW37010   6.266   6.233  12.211
45038SOL    HW137011   6.331   6.169  12.241
45038SOL    HW237012   6.305   6.272  12.132
45039SOL     OW37013  13.609  13.575   0.067
45039SOL    HW137014  13.642  13.633  14.876
45039SOL    HW237015  13.677  13.576   0.134
45040SOL     OW37016  12.439   6.005  12.977
45040SOL    HW137017  12.409   5.956  13.054
45040SOL    HW237018  12.359   6.045  12.942
45041SOL     OW37019  12.358  12.599   4.638
45041SOL    HW137020  12.348  12.576   4.546
45041SOL    HW237021  12.338  12.692   4.642
45042SOL     OW37022   5.969   3.439   3.321
45042SOL    HW137023   5.972   3.413   3.413
45042SOL    HW237024   5.900   3.385   3.283
45043SOL     OW37025   4.412   9.730   4.662
45043SOL    HW137026   4.384   9.654   4.611
45043SOL    HW237027   4.485   9.767   4.612
45044SOL     OW37028   4.308   3.785  14.461
45044SOL    HW137029   4.333   3.877  14.470
45044SOL    HW237030   4.327   3.747  14.547
45045SOL     OW37031   0.060   5.761   0.469
45045SOL    HW137032  14.856   5.787   0.427
45045SOL    HW237033   0.036   5.690   0.527
45046SOL     OW37034  12.693   8.513   5.337
45046SOL    HW137035  12.647   8.586   5.297
45046SOL    HW237036  12.726   8.461   5.263
45047SOL     OW37037   6.610   6.177   1.502
45047SOL    HW137038   6.595   6.100   1.557
45047SOL    HW237039   6.652   6.240   1.561
45048SOL     OW37040  10.999   9.435   7.222
45048SOL    HW137041  10.954   9.371   7.278
45048SOL    HW237042  11.038   9.497   7.284
45049SOL     OW37043   8.828   8.535   1.513
45049SOL    HW137044   8.745   8.531   1.466
45049SOL    HW237045   8.820   8.469   1.582
45050SOL     OW37046   4.564   7.760   7.254
45050SOL    HW137047   4.613   7.792   7.330
45050SOL    HW237048   4.487   7.817   7.249
45051SOL     OW37049   0.686  14.678   8.840
45051SOL    HW137050   0.655  14.603   8.889
45051SOL    HW237051   0.768  14.703   8.881
45052SOL     OW37052  13.756   7.832   8.503
45052SOL    HW137053  13.663   7.843   8.526
45052SOL    HW237054  13.765   7.739   8.482
45053SOL     OW37055  10.311  14.210  13.300
45053SOL    HW137056  10.368  14.209  13.377
45053SOL    HW237057  10.364  14.171  13.231
45054SOL     OW37058   5.682   1.346   4.381
45054SOL    HW137059   5.680   1.268   4.326
45054SOL    HW237060   5.729   1.411   4.328
45055SOL     OW37061  12.550   2.247   8.831
45055SOL    HW137062  12.511   2.309   8.769
45055SOL    HW237063  12.541   2.290   8.916
45056SOL     OW37064  14.355   1.617  14.698
45056SOL    HW137065  14.439   1.592  14.737
45056SOL    HW237066  14.378   1.658  14.615
45057SOL     OW37067   6.953  10.503  12.368
45057SOL    HW137068   6.974  10.563  12.439
45057SOL    HW237069   6.937  10.419  12.411
45058SOL     OW37070  14.327   5.754   6.540
45058SOL    HW137071  14.363   5.694   6.475
45058SOL    HW237072  14.355   5.841   6.511
45059SOL     OW37073   9.928  11.682  12.440
45059SOL    HW137074   9.898  11.732  12.363
45059SOL    HW237075   9.874  11.603  12.439
45060SOL     OW37076  10.588   6.964  11.418
45060SOL    HW137077  10.613   6.914  11.496
45060SOL    HW237078  10.516   6.913  11.379
45061SOL     OW37079   9.889   2.545  12.475
45061SOL    HW137080   9.935   2.614  12.523
45061SOL    HW237081   9.910   2.465  12.523
45062SOL     OW37082   8.602  14.206   5.785
45062SOL    HW137083   8.656  14.277   5.750
45062SOL    HW237084   8.664  14.146   5.826
45063SOL     OW37085  13.496   3.223   4.381
45063SOL    HW137086  13.428   3.214   4.314
45063SOL    HW237087  13.465   3.170   4.454
45064SOL     OW37088   3.979   5.823   3.280
45064SOL    HW137089   4.011   5.864   3.360
45064SOL    HW237090   3.928   5.892   3.237
45065SOL     OW37091   1.071  13.564  11.844
45065SOL    HW137092   1.053  13.471  11.830
45065SOL    HW237093   0.994  13.596  11.891
45066SOL     OW37094   8.295  13.092   1.601
45066SOL    HW137095   8.350  13.015   1.614
45066SOL    HW237096   8.340  13.163   1.646
45067SOL     OW37097   0.800  11.602   9.842
45067SOL    HW137098   0.768  11.666   9.906
45067SOL    HW237099   0.721  11.570   9.799
45068SOL     OW37100   5.094   9.361   0.402
45068SOL    HW137101   5.026   9.381   0.337
45068SOL    HW237102   5.046   9.332   0.479
45069SOL     OW37103   3.415  12.679  12.035
45069SOL    HW137104   3.322  12.681  12.013
45069SOL    HW237105   3.455  12.628  11.965
45070SOL     OW37106   0.133   1.188   0.772
45070SOL    HW137107   0.193   1.172   0.699
45070SOL    HW237108   0.088   1.104   0.785
45071SOL     OW37109  10.959  11.843   0.688
45071SOL    HW137110  10.937  11.935   0.678
45071SOL    HW237111  10.936  11.803   0.604
45072SOL     OW37112  10.604   9.768   8.186
45072SOL    HW137113  10.601   9.778   8.281
45072SOL    HW237114  10.679   9.710   8.171
45073SOL     OW37115   0.340  13.522  10.709
45073SOL    HW137116   0.289  13.466  10.650
45073SOL    HW237117   0.415  13.468  10.734
45074SOL     OW37118  11.035  11.265   6.999
45074SOL    HW137119  11.106  11.204   7.021
45074SOL    HW237120  11.066  11.350   7.028
45075SOL     OW37121   3.974  11.274   2.897
45075SOL    HW137122   3.954  11.283   2.804
45075SOL    HW237123   4.066  11.245   2.898
45076SOL     OW37124   3.162  14.381   1.543
45076SOL    HW137125   3.121  14.302   1.509
45076SOL    HW237126   3.245  14.352   1.581
45077SOL     OW37127   9.057   6.500   8.628
45077SOL    HW137128   8.979   6.534   8.584
45077SOL    HW237129   9.095   6.439   8.565
45078SOL     OW37130  13.807  10.604   1.229
45078SOL    HW137131  13.758  10.555   1.294
45078SOL    HW237132  13.784  10.564   1.145
45079SOL     OW37133   2.421   3.935  12.874
45079SOL    HW137134   2.366   3.878  12.928
45079SOL    HW237135   2.496   3.956  12.929
45080SOL     OW37136  14.188  10.878  13.415
45080SOL    HW137137  14.130  10.850  13.487
45080SOL    HW237138  14.150  10.838  13.337
45081SOL     OW37139   9.414  10.126   5.492
45081SOL    HW137140   9.436  10.096   5.404
45081SOL    HW237141   9.320  10.110   5.500
45082SOL     OW37142  11.358   3.606   7.065
45082SOL    HW137143  11.397   3.683   7.023
45082SOL    HW237144  11.430   3.543   7.071
45083SOL     OW37145   8.077  12.212   4.783
45083SOL    HW137146   8.141  12.222   4.713
45083SOL    HW237147   8.109  12.267   4.853
45084SOL     OW37148   9.125  10.045  11.550
45084SOL    HW137149   9.153   9.977  11.610
45084SOL    HW237150   9.204  10.096  11.533
45085SOL     OW37151   7.479   7.666   0.968
45085SOL    HW137152   7.431   7.596   1.011
45085SOL    HW237153   7.442   7.670   0.880
45086SOL     OW37154   9.591   1.481  12.771
45086SOL    HW137155   9.502   1.512  12.783
45086SOL    HW237156   9.593   1.445  12.682
45087SOL     OW37157  10.655   6.531  14.064
45087SOL    HW137158  10.630   6.537  13.972
45087SOL    HW237159  10.751   6.532  14.063
45088SOL     OW37160  13.322  11.130  13.213
45088SOL    HW137161  13.255  11.113  13.280
45088SOL    HW237162  13.273  11.156  13.136
45089SOL     OW37163  14.524   6.436  12.903
45089SOL    HW137164  14.437   6.445  12.865
45089SOL    HW237165  14.576   6.395  12.834
45090SOL     OW37166  14.847   1.933  10.625
45090SOL    HW137167  14.876   1.915  10.535
45090SOL    HW237168   0.019   2.011  10.650
45091SOL     OW37169   8.884   8.943   8.482
45091SOL    HW137170   8.888   8.854   8.445
45091SOL    HW237171   8.799   8.946   8.526
45092SOL     OW37172  13.181   4.139   2.955
45092SOL    HW137173  13.191   4.201   2.883
45092SOL    HW237174  13.100   4.092   2.935
45093SOL     OW37175  12.864   6.655   3.941
45093SOL    HW137176  12.921   6.587   3.976
45093SOL    HW237177  12.782   6.610   3.923
45094SOL     OW37178   2.571   4.285   8.977
45094SOL    HW137179   2.501   4.292   8.912
45094SOL    HW237180   2.525   4.261   9.058
45095SOL     OW37181   2.074   7.375  13.806
45095SOL    HW137182   2.016   7.299  13.811
45095SOL    HW237183   2.084   7.392  13.713
45096SOL     OW37184   0.939   4.869  11.422
45096SOL    HW137185   0.885   4.889  11.345
45096SOL    HW237186   0.931   4.774  11.433
45097SOL     OW37187  10.386   3.865   5.081
45097SOL    HW137188  10.294   3.843   5.064
45097SOL    HW237189  10.384   3.951   5.122
45098SOL     OW37190  13.178   9.411  12.168
45098SOL    HW137191  13.222   9.347  12.112
45098SOL    HW237192  13.135   9.471  12.108
45099SOL     OW37193  13.882  14.170   6.646
45099SOL    HW137194  13.922  14.095   6.690
45099SOL    HW237195  13.795  14.176   6.684
45100SOL     OW37196   6.834  14.848   8.559
45100SOL    HW137197   6.863   0.059   8.535
45100SOL    HW237198   6.779  14.861   8.636
45101SOL     OW37199  11.608   9.196  10.788
45101SOL    HW137200  11.595   9.128  10.853
45101SOL    HW237201  11.520   9.221  10.760
45102SOL     OW37202  14.198  12.428   1.882
45102SOL    HW137203  14.183  12.510   1.834
45102SOL    HW237204  14.245  12.372   1.820
45103SOL     OW37205   5.285   9.102   3.553
45103SOL    HW137206   5.355   9.036   3.549
45103SOL    HW237207   5.291   9.138   3.642
45104SOL     OW37208  11.243   6.037  12.530
45104SOL    HW137209  11.230   5.954  12.486
45104SOL    HW237210  11.269   6.013  12.619
45105SOL     OW37211   1.047   7.636   7.945
45105SOL    HW137212   0.975   7.694   7.923
45105SOL    HW237213   1.005   7.558   7.982
45106SOL     OW37214   2.970   8.057   8.417
45106SOL    HW137215   2.883   8.054   8.376
45106SOL    HW237216   2.974   7.978   8.470
45107SOL     OW37217   6.137  14.750  10.341
45107SOL    HW137218   6.201  14.743  10.271
45107SOL    HW237219   6.054  14.768  10.295
45108SOL     OW37220  12.767  13.887  13.327
45108SOL    HW137221  12.730  13.927  13.406
45108SOL    HW237222  12.860  13.907  13.332
45109SOL     OW37223   3.071   0.617   1.912
45109SOL    HW137224   3.023   0.624   1.830
45109SOL    HW237225   3.155   0.658   1.894
45110SOL     OW37226  13.390   7.253   1.713
45110SOL    HW137227  13.428   7.303   1.785
45110SOL    HW237228  13.372   7.167   1.751
45111SOL     OW37229   5.782   8.489   7.248
45111SOL    HW137230   5.736   8.501   7.165
45111SOL    HW237231   5.860   8.439   7.225
45112SOL     OW37232   1.145  11.604   4.912
45112SOL    HW137233   1.200  11.664   4.963
45112SOL    HW237234   1.063  11.652   4.901
45113SOL     OW37235   9.305   5.737   8.829
45113SOL    HW137236   9.248   5.668   8.865
45113SOL    HW237237   9.244   5.800   8.790
45114SOL     OW37238  12.010   1.662   2.601
45114SOL    HW137239  12.049   1.728   2.657
45114SOL    HW237240  12.032   1.579   2.642
45115SOL     OW37241  14.343   1.982  14.320
45115SOL    HW137242  14.281   1.914  14.349
45115SOL    HW237243  14.287   2.054  14.290
45116SOL     OW37244  13.838   9.657   8.298
45116SOL    HW137245  13.837   9.742   8.344
45116SOL    HW237246  13.746   9.641   8.276
45117SOL     OW37247  13.305  13.067  13.273
45117SOL    HW137248  13.301  13.009  13.197
45117SOL    HW237249  13.358  13.019  13.337
45118SOL     OW37250   1.608   2.847  11.683
45118SOL    HW137251   1.589   2.853  11.590
45118SOL    HW237252   1.531   2.805  11.721
45119SOL     OW37253  11.078   2.963  12.184
45119SOL    HW137254  11.048   3.053  12.196
45119SOL    HW237255  11.168   2.971  12.152
45120SOL     OW37256   5.555  13.443   7.209
45120SOL    HW137257   5.642  13.410   7.188
45120SOL    HW237258   5.532  13.498   7.134
45121SOL     OW37259   2.307   1.374   9.827
45121SOL    HW137260   2.328   1.467   9.839
45121SOL    HW237261   2.240   1.373   9.758
45122SOL     OW37262   1.082   6.477   2.370
45122SOL    HW137263   1.127   6.468   2.286
45122SOL    HW237264   1.097   6.568   2.395
45123SOL     OW37265   7.263  11.842   1.378
45123SOL    HW137266   7.340  11.840   1.320
45123SOL    HW237267   7.256  11.933   1.405
45124SOL     OW37268  13.492  11.815  13.607
45124SOL    HW137269  13.547  11.777  13.538
45124SOL    HW237270  13.554  11.846  13.672
45125SOL     OW37271   9.438  13.084   5.626
45125SOL    HW137272   9.398  13.170   5.635
45125SOL    HW237273   9.372  13.022   5.656
45126SOL     OW37274   2.491  13.439   9.296
45126SOL    HW137275   2.472  13.491   9.374
45126SOL    HW237276   2.480  13.348   9.324
45127SOL     OW37277  11.730  10.228   0.158
45127SOL    HW137278  11.716  10.286   0.232
45127SOL    HW237279  11.647  10.180   0.150
45128SOL     OW37280   4.270   9.746   6.278
45128SOL    HW137281   4.292   9.825   6.327
45128SOL    HW237282   4.344   9.733   6.219
45129SOL     OW37283   4.220   4.182   1.253
45129SOL    HW137284   4.288   4.156   1.191
45129SOL    HW237285   4.187   4.265   1.219
45130SOL     OW37286   8.364   9.469   8.753
45130SOL    HW137287   8.454   9.479   8.723
45130SOL    HW237288   8.354   9.534   8.822
45131SOL     OW37289  13.899   2.399   0.777
45131SOL    HW137290  13.969   2.388   0.712
45131SOL    HW237291  13.821   2.363   0.734
45132SOL     OW37292   3.131   1.658   0.328
45132SOL    HW137293   3.084   1.741   0.334
45132SOL    HW237294   3.205   1.675   0.270
45133SOL     OW37295   7.553   7.463   6.985
45133SOL    HW137296   7.526   7.371   6.989
45133SOL    HW237297   7.632   7.467   7.040
45134SOL     OW37298  10.464  14.218  10.514
45134SOL    HW137299  10.420  14.147  10.561
45134SOL    HW237300  10.444  14.296  10.565
45135SOL     OW37301  13.538   7.493   5.515
45135SOL    HW137302  13.548   7.472   5.608
45135SOL    HW237303  13.563   7.412   5.469
45136SOL     OW37304   7.720   0.508   1.431
45136SOL    HW137305   7.698   0.591   1.387
45136SOL    HW237306   7.692   0.440   1.370
45137SOL     OW37307   9.850   2.053  14.097
45137SOL    HW137308   9.837   2.131  14.044
45137SOL    HW237309   9.797   1.985  14.055
45138SOL     OW37310   4.996   3.280  13.216
45138SOL    HW137311   5.014   3.278  13.310
45138SOL    HW237312   4.951   3.197  13.198
45139SOL     OW37313  12.273   6.285   7.104
45139SOL    HW137314  12.368   6.276   7.101
45139SOL    HW237315  12.246   6.280   7.012
45140SOL     OW37316   2.614   0.412  13.290
45140SOL    HW137317   2.601   0.323  13.257
45140SOL    HW237318   2.599   0.468  13.214
45141SOL     OW37319   0.487   4.405   7.434
45141SOL    HW137320   0.517   4.470   7.371
45141SOL    HW237321   0.536   4.425   7.514
45142SOL     OW37322  13.252   9.942   8.751
45142SOL    HW137323  13.302   9.908   8.825
45142SOL    HW237324  13.303  10.016   8.720
45143SOL     OW37325  11.975  13.498  12.957
45143SOL    HW137326  11.953  13.504  13.050
45143SOL    HW237327  12.019  13.414  12.948
45144SOL     OW37328  13.825  10.068   3.525
45144SOL    HW137329  13.800  10.094   3.614
45144SOL    HW237330  13.752  10.095   3.470
45145SOL     OW37331   2.017   8.039   1.625
45145SOL    HW137332   2.046   8.077   1.708
45145SOL    HW237333   1.981   7.954   1.650
45146SOL     OW37334   0.772   3.516  12.055
45146SOL    HW137335   0.695   3.567  12.028
45146SOL    HW237336   0.846   3.573  12.037
45147SOL     OW37337  14.587  13.663   5.786
45147SOL    HW137338  14.601  13.601   5.715
45147SOL    HW237339  14.580  13.609   5.865
45148SOL     OW37340   7.779   7.548   8.960
45148SOL    HW137341   7.820   7.600   9.028
45148SOL    HW237342   7.722   7.487   9.006
45149SOL     OW37343   3.792  14.453   0.944
45149SOL    HW137344   3.847  14.376   0.952
45149SOL    HW237345   3.853  14.527   0.951
45150SOL     OW37346  12.184   1.756   5.450
45150SOL    HW137347  12.122   1.777   5.380
45150SOL    HW237348  12.187   1.836   5.503
45151SOL     OW37349  11.289   0.964  13.619
45151SOL    HW137350  11.212   0.964  13.563
45151SOL    HW237351  11.304   1.057  13.638
45152SOL     OW37352   6.807  14.847   6.964
45152SOL    HW137353   6.807   0.065   6.961
45152SOL    HW237354   6.862  14.820   6.891
45153SOL     OW37355   8.735   3.658   5.146
45153SOL    HW137356   8.760   3.664   5.238
45153SOL    HW237357   8.661   3.719   5.137
45154SOL     OW37358  12.254  14.127   1.827
45154SOL    HW137359  12.325  14.069   1.799
45154SOL    HW237360  12.175  14.075   1.816
45155SOL     OW37361  10.975  11.556   7.035
45155SOL    HW137362  11.048  11.556   6.972
45155SOL    HW237363  10.943  11.646   7.034
45156SOL     OW37364   1.493   1.332   2.757
45156SOL    HW137365   1.530   1.337   2.846
45156SOL    HW237366   1.569   1.317   2.701
45157SOL     OW37367   3.252   1.906   3.852
45157SOL    HW137368   3.273   1.991   3.813
45157SOL    HW237369   3.324   1.849   3.825
45158SOL     OW37370  13.407  13.566   1.114
45158SOL    HW137371  13.385  13.486   1.162
45158SOL    HW237372  13.323  13.596   1.079
45159SOL     OW37373   0.585   6.648   8.123
45159SOL    HW137374   0.504   6.619   8.164
45159SOL    HW237375   0.588   6.601   8.040
45160SOL     OW37376  11.830   7.351   4.426
45160SOL    HW137377  11.760   7.414   4.443
45160SOL    HW237378  11.886   7.356   4.505
45161SOL     OW37379   1.696   0.752   6.617
45161SOL    HW137380   1.631   0.685   6.635
45161SOL    HW237381   1.655   0.834   6.647
45162SOL     OW37382   1.503   6.570   1.764
45162SOL    HW137383   1.594   6.596   1.751
45162SOL    HW237384   1.453   6.649   1.749
45163SOL     OW37385  10.520   5.909  11.190
45163SOL    HW137386  10.437   5.953  11.172
45163SOL    HW237387  10.583   5.980  11.201
45164SOL     OW37388   1.568  14.145   2.808
45164SOL    HW137389   1.537  14.058   2.834
45164SOL    HW237390   1.581  14.138   2.713
45165SOL     OW37391  14.600   9.066  11.758
45165SOL    HW137392  14.686   9.036  11.788
45165SOL    HW237393  14.546   9.067  11.837
45166SOL     OW37394   8.872  14.248   2.121
45166SOL    HW137395   8.858  14.201   2.039
45166SOL    HW237396   8.800  14.220   2.178
45167SOL     OW37397   6.010   2.671   6.329
45167SOL    HW137398   6.059   2.625   6.261
45167SOL    HW237399   5.935   2.613   6.347
45168SOL     OW37400   1.540   6.508   4.378
45168SOL    HW137401   1.535   6.592   4.332
45168SOL    HW237402   1.535   6.531   4.471
45169SOL     OW37403   5.051   8.667   3.664
45169SOL    HW137404   5.101   8.679   3.744
45169SOL    HW237405   5.079   8.581   3.631
45170SOL     OW37406   4.254  12.217   6.116
45170SOL    HW137407   4.294  12.142   6.160
45170SOL    HW237408   4.261  12.288   6.179
45171SOL     OW37409   2.739  13.568   5.550
45171SOL    HW137410   2.794  13.615   5.487
45171SOL    HW237411   2.730  13.628   5.624
45172SOL     OW37412   5.208   1.264   0.525
45172SOL    HW137413   5.134   1.322   0.510
45172SOL    HW237414   5.278   1.299   0.470
45173SOL     OW37415   9.647  12.202  11.082
45173SOL    HW137416   9.606  12.288  11.084
45173SOL    HW237417   9.740  12.219  11.070
45174SOL     OW37418  13.396   1.958   4.505
45174SOL    HW137419  13.401   2.053   4.506
45174SOL    HW237420  13.317   1.939   4.454
45175SOL     OW37421   5.669   6.121  12.737
45175SOL    HW137422   5.648   6.159  12.652
45175SOL    HW237423   5.696   6.031  12.717
45176SOL     OW37424  14.650   0.688  10.879
45176SOL    HW137425  14.745   0.685  10.876
45176SOL    HW237426  14.626   0.764  10.826
45177SOL     OW37427   2.257   8.589  12.284
45177SOL    HW137428   2.292   8.507  12.320
45177SOL    HW237429   2.277   8.655  12.349
45178SOL     OW37430   7.197   0.915  10.323
45178SOL    HW137431   7.221   0.938  10.233
45178SOL    HW237432   7.107   0.886  10.317
45179SOL     OW37433   4.211   1.680  14.298
45179SOL    HW137434   4.223   1.616  14.228
45179SOL    HW237435   4.180   1.629  14.373
45180SOL     OW37436  13.592  11.152   0.214
45180SOL    HW137437  13.517  11.096   0.233
45180SOL    HW237438  13.555  11.240   0.210
45181SOL     OW37439  14.490  14.508   6.336
45181SOL    HW137440  14.433  14.433   6.355
45181SOL    HW237441  14.494  14.511   6.240
45182SOL     OW37442  13.356   7.918  10.528
45182SOL    HW137443  13.409   7.840  10.544
45182SOL    HW237444  13.337   7.952  10.616
45183SOL     OW37445   5.204   5.520   5.124
45183SOL    HW137446   5.237   5.435   5.096
45183SOL    HW237447   5.148   5.500   5.199
45184SOL     OW37448  14.349   0.095  11.834
45184SOL    HW137449  14.281   0.039  11.797
45184SOL    HW237450  14.404   0.118  11.758
45185SOL     OW37451   8.292  13.528   7.324
45185SOL    HW137452   8.199  13.541   7.306
45185SOL    HW237453   8.300  13.435   7.346
45186SOL     OW37454   3.184  13.123  13.065
45186SOL    HW137455   3.159  13.043  13.110
45186SOL    HW237456   3.277  13.135  13.086
45187SOL     OW37457   4.838   0.292   8.849
45187SOL    HW137458   4.888   0.213   8.830
45187SOL    HW237459   4.900   0.350   8.894
45188SOL     OW37460  10.075   2.909   0.533
45188SOL    HW137461  10.051   2.995   0.497
45188SOL    HW237462   9.995   2.877   0.573
45189SOL     OW37463   2.318   0.285   1.028
45189SOL    HW137464   2.225   0.278   1.010
45189SOL    HW237465   2.335   0.379   1.030
45190SOL     OW37466   7.458   5.132   1.614
45190SOL    HW137467   7.469   5.190   1.539
45190SOL    HW237468   7.442   5.046   1.576
45191SOL     OW37469   1.750   3.592   0.677
45191SOL    HW137470   1.724   3.502   0.653
45191SOL    HW237471   1.838   3.582   0.712
45192SOL     OW37472   5.455   0.975  11.997
45192SOL    HW137473   5.450   0.900  11.938
45192SOL    HW237474   5.548   0.996  12.001
45193SOL     OW37475   4.281  13.183   6.711
45193SOL    HW137476   4.253  13.146   6.628
45193SOL    HW237477   4.258  13.117   6.776
45194SOL     OW37478   4.970  11.173   5.984
45194SOL    HW137479   5.049  11.124   6.005
45194SOL    HW237480   4.898  11.113   6.002
45195SOL     OW37481   3.091   9.959   3.743
45195SOL    HW137482   3.061  10.024   3.806
45195SOL    HW237483   3.122  10.010   3.668
45196SOL     OW37484   6.071   9.903   3.455
45196SOL    HW137485   6.000   9.963   3.431
45196SOL    HW237486   6.108   9.941   3.534
45197SOL     OW37487   4.574   2.609  12.899
45197SOL    HW137488   4.534   2.668  12.963
45197SOL    HW237489   4.640   2.561  12.949
45198SOL     OW37490  14.631  13.818  10.429
45198SOL    HW137491  14.670  13.895  10.388
45198SOL    HW237492  14.608  13.847  10.517
45199SOL     OW37493  13.297  10.004   2.656
45199SOL    HW137494  13.258  10.085   2.690
45199SOL    HW237495  13.228   9.938   2.665
45200SOL     OW37496   9.837   4.619   4.208
45200SOL    HW137497   9.805   4.656   4.126
45200SOL    HW237498   9.888   4.689   4.248
45201SOL     OW37499  13.060   8.985   0.470
45201SOL    HW137500  13.098   8.981   0.383
45201SOL    HW237501  13.004   8.908   0.476
45202SOL     OW37502   3.509   3.530  11.558
45202SOL    HW137503   3.597   3.523  11.520
45202SOL    HW237504   3.523   3.539  11.652
45203SOL     OW37505   3.619   6.834   7.505
45203SOL    HW137506   3.571   6.884   7.571
45203SOL    HW237507   3.692   6.796   7.552
45204SOL     OW37508   7.822   1.255   7.391
45204SOL    HW137509   7.760   1.221   7.454
45204SOL    HW237510   7.901   1.273   7.442
45205SOL     OW37511  10.640   1.364   7.836
45205SOL    HW137512  10.684   1.356   7.920
45205SOL    HW237513  10.617   1.457   7.829
45206SOL     OW37514  14.402   6.651  13.148
45206SOL    HW137515  14.343   6.661  13.073
45206SOL    HW237516  14.490   6.651  13.109
45207SOL     OW37517   8.193   0.899   6.587
45207SOL    HW137518   8.237   0.885   6.503
45207SOL    HW237519   8.143   0.819   6.601
45208SOL     OW37520   6.400  11.879   9.745
45208SOL    HW137521   6.435  11.864   9.657
45208SOL    HW237522   6.474  11.862   9.804
45209SOL     OW37523   6.102  10.129   3.945
45209SOL    HW137524   6.142  10.212   3.972
45209SOL    HW237525   6.047  10.104   4.018
45210SOL     OW37526  12.722   0.135  11.139
45210SOL    HW137527  12.634   0.173  11.133
45210SOL    HW237528  12.714   0.050  11.096
45211SOL     OW37529  14.412   7.229   9.280
45211SOL    HW137530  14.502   7.198   9.279
45211SOL    HW237531  14.411   7.302   9.218
45212SOL     OW37532   5.966   0.398   4.904
45212SOL    HW137533   5.949   0.492   4.907
45212SOL    HW237534   5.914   0.367   4.830
45213SOL     OW37535   3.764   6.333   6.677
45213SOL    HW137536   3.715   6.412   6.700
45213SOL    HW237537   3.839   6.334   6.736
45214SOL     OW37538  10.629  12.815   5.832
45214SOL    HW137539  10.678  12.860   5.763
45214SOL    HW237540  10.615  12.726   5.798
45215SOL     OW37541   4.772   3.932  11.059
45215SOL    HW137542   4.846   3.923  11.119
45215SOL    HW237543   4.796   3.882  10.982
45216SOL     OW37544   8.268   3.159   4.197
45216SOL    HW137545   8.360   3.165   4.222
45216SOL    HW237546   8.233   3.087   4.250
45217SOL     OW37547  14.569   4.183   0.809
45217SOL    HW137548  14.626   4.223   0.743
45217SOL    HW237549  14.523   4.256   0.849
45218SOL     OW37550   4.165   8.282   0.511
45218SOL    HW137551   4.154   8.198   0.467
45218SOL    HW237552   4.180   8.260   0.603
45219SOL     OW37553   9.016  10.228  14.336
45219SOL    HW137554   9.067  10.254  14.260
45219SOL    HW237555   9.025  10.300  14.397
45220SOL     OW37556   5.520  13.397   3.637
45220SOL    HW137557   5.607  13.427   3.610
45220SOL    HW237558   5.502  13.448   3.717
45221SOL     OW37559   9.335   9.024  14.130
45221SOL    HW137560   9.377   8.961  14.188
45221SOL    HW237561   9.375   9.009  14.045
45222SOL     OW37562  14.332   3.526  11.821
45222SOL    HW137563  14.238   3.530  11.838
45222SOL    HW237564  14.356   3.435  11.836
45223SOL     OW37565   3.712   3.992   4.297
45223SOL    HW137566   3.734   4.008   4.389
45223SOL    HW237567   3.797   3.989   4.253
45224SOL     OW37568   7.525  11.702   2.828
45224SOL    HW137569   7.431  11.710   2.813
45224SOL    HW237570   7.543  11.608   2.821
45225SOL     OW37571   5.544   8.569   2.114
45225SOL    HW137572   5.579   8.600   2.030
45225SOL    HW237573   5.621   8.559   2.170
45226SOL     OW37574   9.370   8.343   0.127
45226SOL    HW137575   9.306   8.274   0.142
45226SOL    HW237576   9.329   8.422   0.161
45227SOL     OW37577   6.856   9.120   6.107
45227SOL    HW137578   6.948   9.095   6.098
45227SOL    HW237579   6.824   9.126   6.017
45228SOL     OW37580   4.926  11.918   7.861
45228SOL    HW137581   4.993  11.959   7.806
45228SOL    HW237582   4.861  11.987   7.875
45229SOL     OW37583   2.181  11.533  12.309
45229SOL    HW137584   2.132  11.455  12.281
45229SOL    HW237585   2.269  11.501  12.328
45230SOL     OW37586  12.676   4.733   4.638
45230SOL    HW137587  12.585   4.752   4.662
45230SOL    HW237588  12.720   4.718   4.722
45231SOL     OW37589   5.616   9.956  14.015
45231SOL    HW137590   5.690   9.905  14.049
45231SOL    HW237591   5.554   9.890  13.983
45232SOL     OW37592  10.652   9.701   7.115
45232SOL    HW137593  10.746   9.684   7.114
45232SOL    HW237594  10.645   9.796   7.121
45233SOL     OW37595  14.590   6.192   0.153
45233SOL    HW137596  14.553   6.189   0.065
45233SOL    HW237597  14.582   6.103   0.185
45234SOL     OW37598   4.795   1.161   3.393
45234SOL    HW137599   4.850   1.122   3.325
45234SOL    HW237600   4.712   1.115   3.386
45235SOL     OW37601   2.064   9.892   8.993
45235SOL    HW137602   2.090   9.845   9.072
45235SOL    HW237603   2.105   9.843   8.921
45236SOL     OW37604   2.206   5.932   8.259
45236SOL    HW137605   2.289   5.886   8.268
45236SOL    HW237606   2.227   6.023   8.282
45237SOL     OW37607  14.549   1.362  13.607
45237SOL    HW137608  14.592   1.447  13.608
45237SOL    HW237609  14.618   1.299  13.587
45238SOL     OW37610   2.992   2.514   7.576
45238SOL    HW137611   2.947   2.497   7.493
45238SOL    HW237612   3.061   2.577   7.553
45239SOL     OW37613   4.964   7.092  11.546
45239SOL    HW137614   4.967   7.073  11.452
45239SOL    HW237615   5.002   7.180  11.554
45240SOL     OW37616   0.123   5.675   1.319
45240SOL    HW137617   0.138   5.650   1.227
45240SOL    HW237618   0.041   5.631   1.342
45241SOL     OW37619   8.983   6.975   1.233
45241SOL    HW137620   8.982   6.882   1.210
45241SOL    HW237621   8.941   7.018   1.158
45242SOL     OW37622   6.985   7.343  12.422
45242SOL    HW137623   7.071   7.382  12.405
45242SOL    HW237624   6.965   7.292  12.343
45243SOL     OW37625   3.228   5.017  10.391
45243SOL    HW137626   3.176   5.073  10.449
45243SOL    HW237627   3.318   5.047  10.404
45244SOL     OW37628   6.049   7.488   2.489
45244SOL    HW137629   5.955   7.472   2.483
45244SOL    HW237630   6.075   7.451   2.574
45245SOL     OW37631   1.418  12.198   0.161
45245SOL    HW137632   1.464  12.128   0.208
45245SOL    HW237633   1.404  12.266   0.227
45246SOL     OW37634   4.616   1.807   3.725
45246SOL    HW137635   4.688   1.776   3.669
45246SOL    HW237636   4.628   1.902   3.729
45247SOL     OW37637   2.164  13.426   5.474
45247SOL    HW137638   2.207  13.476   5.543
45247SOL    HW237639   2.164  13.336   5.505
45248SOL     OW37640   8.927   9.388   7.037
45248SOL    HW137641   8.843   9.433   7.046
45248SOL    HW237642   8.934   9.369   6.943
45249SOL     OW37643   3.139  12.375   1.419
45249SOL    HW137644   3.071  12.403   1.481
45249SOL    HW237645   3.155  12.452   1.365
45250SOL     OW37646   2.480  10.057   5.032
45250SOL    HW137647   2.414  10.002   4.990
45250SOL    HW237648   2.562  10.010   5.018
45251SOL     OW37649   1.379   4.888   8.172
45251SOL    HW137650   1.416   4.948   8.237
45251SOL    HW237651   1.400   4.801   8.204
45252SOL     OW37652   2.988  13.987   6.864
45252SOL    HW137653   3.033  13.903   6.872
45252SOL    HW237654   2.999  14.029   6.949
45253SOL     OW37655   0.621   6.815  11.387
45253SOL    HW137656   0.705   6.770  11.389
45253SOL    HW237657   0.565   6.758  11.334
45254SOL     OW37658  11.353   3.544  13.340
45254SOL    HW137659  11.351   3.506  13.252
45254SOL    HW237660  11.432   3.599  13.340
45255SOL     OW37661  11.100   9.526   4.628
45255SOL    HW137662  11.140   9.440   4.621
45255SOL    HW237663  11.107   9.549   4.721
45256SOL     OW37664   0.431  14.077  11.432
45256SOL    HW137665   0.442  14.172  11.427
45256SOL    HW237666   0.354  14.059  11.378
45257SOL     OW37667   7.505   5.621  12.279
45257SOL    HW137668   7.549   5.694  12.236
45257SOL    HW237669   7.542   5.543  12.239
45258SOL     OW37670   6.243  11.062  13.803
45258SOL    HW137671   6.232  10.990  13.865
45258SOL    HW237672   6.252  11.140  13.858
45259SOL     OW37673  11.029   0.652   5.648
45259SOL    HW137674  11.113   0.649   5.694
45259SOL    HW237675  11.042   0.595   5.572
45260SOL     OW37676   7.139  14.039  13.318
45260SOL    HW137677   7.085  13.963  13.298
45260SOL    HW237678   7.079  14.102  13.357
45261SOL     OW37679  10.408   7.850  10.169
45261SOL    HW137680  10.420   7.918  10.104
45261SOL    HW237681  10.420   7.894  10.253
45262SOL     OW37682  14.786   0.954  12.705
45262SOL    HW137683  14.716   0.972  12.642
45262SOL    HW237684  14.830   0.877  12.670
45263SOL     OW37685  13.852  11.267   2.556
45263SOL    HW137686  13.896  11.207   2.497
45263SOL    HW237687  13.764  11.277   2.519
45264SOL     OW37688   1.723   0.423   2.238
45264SOL    HW137689   1.693   0.434   2.148
45264SOL    HW237690   1.788   0.493   2.250
45265SOL     OW37691   8.589  10.300   7.406
45265SOL    HW137692   8.595  10.210   7.438
45265SOL    HW237693   8.604  10.294   7.312
45266SOL     OW37694   9.295   1.353   1.306
45266SOL    HW137695   9.291   1.444   1.333
45266SOL    HW237696   9.207   1.319   1.323
45267SOL     OW37697   6.446   2.273  13.787
45267SOL    HW137698   6.482   2.320  13.712
45267SOL    HW237699   6.358   2.248  13.759
45268SOL     OW37700   9.610   4.297   7.738
45268SOL    HW137701   9.668   4.370   7.719
45268SOL    HW237702   9.655   4.221   7.700
45269SOL     OW37703   5.020  13.676  11.672
45269SOL    HW137704   5.053  13.602  11.620
45269SOL    HW237705   5.056  13.753  11.629
45270SOL     OW37706   7.273  13.480   7.304
45270SOL    HW137707   7.245  13.552   7.247
45270SOL    HW237708   7.368  13.494   7.314
45271SOL     OW37709   2.850  13.505   2.848
45271SOL    HW137710   2.816  13.575   2.905
45271SOL    HW237711   2.805  13.518   2.765
45272SOL     OW37712   1.486   8.506   7.470
45272SOL    HW137713   1.494   8.492   7.564
45272SOL    HW237714   1.488   8.601   7.460
45273SOL     OW37715   1.124  13.156   0.411
45273SOL    HW137716   1.081  13.074   0.434
45273SOL    HW237717   1.059  13.224   0.430
45274SOL     OW37718  14.706   8.546   2.070
45274SOL    HW137719  14.653   8.468   2.087
45274SOL    HW237720  14.763   8.521   1.997
45275SOL     OW37721  14.779   7.621   0.727
45275SOL    HW137722  14.773   7.578   0.641
45275SOL    HW237723  14.866   7.662   0.727
45276SOL     OW37724  11.479   7.199  12.173
45276SOL    HW137725  11.529   7.272  12.209
45276SOL    HW237726  11.395   7.201  12.219
45277SOL     OW37727  13.451  14.522  12.219
45277SOL    HW137728  13.404  14.565  12.290
45277SOL    HW237729  13.411  14.557  12.139
45278SOL     OW37730  11.968  12.372  10.186
45278SOL    HW137731  11.994  12.385  10.095
45278SOL    HW237732  12.046  12.333  10.228
45279SOL     OW37733  12.108   0.085   8.421
45279SOL    HW137734  12.131   0.175   8.397
45279SOL    HW237735  12.171   0.031   8.374
45280SOL     OW37736   8.360  10.109   7.074
45280SOL    HW137737   8.312  10.185   7.108
45280SOL    HW237738   8.296  10.062   7.020
45281SOL     OW37739   2.733  11.050   8.421
45281SOL    HW137740   2.715  11.037   8.327
45281SOL    HW237741   2.769  11.139   8.425
45282SOL     OW37742   5.617  13.929   4.633
45282SOL    HW137743   5.663  13.860   4.680
45282SOL    HW237744   5.548  13.884   4.585
45283SOL     OW37745   3.423   4.384   6.243
45283SOL    HW137746   3.412   4.349   6.155
45283SOL    HW237747   3.365   4.460   6.245
45284SOL     OW37748   8.581  10.261  11.435
45284SOL    HW137749   8.566  10.190  11.496
45284SOL    HW237750   8.629  10.221  11.363
45285SOL     OW37751   5.280  10.265   1.205
45285SOL    HW137752   5.368  10.256   1.169
45285SOL    HW237753   5.291  10.310   1.288
45286SOL     OW37754   4.791   1.513   5.542
45286SOL    HW137755   4.823   1.496   5.631
45286SOL    HW237756   4.842   1.588   5.512
45287SOL     OW37757   9.226   3.815   1.392
45287SOL    HW137758   9.321   3.818   1.403
45287SOL    HW237759   9.206   3.894   1.342
45288SOL     OW37760   9.369  13.515   6.444
45288SOL    HW137761   9.445  13.528   6.501
45288SOL    HW237762   9.343  13.424   6.459
45289SOL     OW37763   5.294   2.006  10.726
45289SOL    HW137764   5.262   2.089  10.762
45289SOL    HW237765   5.376   2.029  10.683
45290SOL     OW37766   7.615   1.242   1.046
45290SOL    HW137767   7.671   1.307   1.087
45290SOL    HW237768   7.526   1.279   1.052
45291SOL     OW37769   1.157   4.864  12.291
45291SOL    HW137770   1.206   4.806  12.350
45291SOL    HW237771   1.078   4.815  12.269
45292SOL     OW37772  10.945  11.751   3.982
45292SOL    HW137773  11.012  11.731   3.917
45292SOL    HW237774  10.896  11.823   3.944
45293SOL     OW37775   9.122   3.012   9.255
45293SOL    HW137776   9.033   3.048   9.254
45293SOL    HW237777   9.168   3.059   9.186
45294SOL     OW37778   0.677   2.599  11.642
45294SOL    HW137779   0.701   2.507  11.631
45294SOL    HW237780   0.678   2.613  11.737
45295SOL     OW37781   8.918   6.756  13.402
45295SOL    HW137782   9.009   6.739  13.380
45295SOL    HW237783   8.885   6.809  13.329
45296SOL     OW37784   0.020   0.153  13.413
45296SOL    HW137785  14.829   0.087  13.402
45296SOL    HW237786   0.093   0.106  13.454
45297SOL     OW37787   3.764   3.719   4.833
45297SOL    HW137788   3.835   3.774   4.798
45297SOL    HW237789   3.804   3.633   4.846
45298SOL     OW37790   9.706   5.694  12.609
45298SOL    HW137791   9.615   5.722  12.616
45298SOL    HW237792   9.701   5.608  12.567
45299SOL     OW37793  12.387   3.501   7.642
45299SOL    HW137794  12.382   3.588   7.603
45299SOL    HW237795  12.479   3.476   7.635
45300SOL     OW37796   3.895   9.050   3.557
45300SOL    HW137797   3.983   9.022   3.583
45300SOL    HW237798   3.882   9.134   3.601
45301SOL     OW37799   4.249  10.509   7.697
45301SOL    HW137800   4.160  10.540   7.712
45301SOL    HW237801   4.248  10.417   7.723
45302SOL     OW37802  11.218   4.246   8.339
45302SOL    HW137803  11.300   4.287   8.366
45302SOL    HW237804  11.197   4.185   8.409
45303SOL     OW37805  10.050  14.653  10.823
45303SOL    HW137806  10.051  14.571  10.773
45303SOL    HW237807  10.118  14.706  10.782
45304SOL     OW37808   1.967  11.395  13.406
45304SOL    HW137809   2.061  11.390  13.394
45304SOL    HW237810   1.955  11.450  13.483
45305SOL     OW37811   6.038   9.672  13.804
45305SOL    HW137812   6.085   9.750  13.772
45305SOL    HW237813   5.948   9.701  13.814
45306SOL     OW37814   0.192   6.496  14.236
45306SOL    HW137815   0.159   6.488  14.147
45306SOL    HW237816   0.209   6.406  14.264
45307SOL     OW37817   7.954   1.077   0.032
45307SOL    HW137818   7.922   1.167   0.042
45307SOL    HW237819   7.884   1.031  14.864
45308SOL     OW37820  12.801   6.206   3.266
45308SOL    HW137821  12.803   6.143   3.195
45308SOL    HW237822  12.834   6.159   3.342
45309SOL     OW37823   3.803  11.620   5.605
45309SOL    HW137824   3.865  11.612   5.532
45309SOL    HW237825   3.725  11.659   5.566
45310SOL     OW37826   0.269   0.305   1.604
45310SOL    HW137827   0.239   0.341   1.687
45310SOL    HW237828   0.203   0.239   1.582
45311SOL     OW37829   9.533  10.296  10.692
45311SOL    HW137830   9.525  10.279  10.786
45311SOL    HW237831   9.484  10.378  10.678
45312SOL     OW37832   7.996   3.093  13.569
45312SOL    HW137833   8.047   3.038  13.629
45312SOL    HW237834   8.020   3.183  13.593
45313SOL     OW37835   0.341   6.314   4.057
45313SOL    HW137836   0.299   6.383   4.007
45313SOL    HW237837   0.428   6.306   4.019
45314SOL     OW37838   2.919   5.627   8.428
45314SOL    HW137839   2.981   5.584   8.486
45314SOL    HW237840   2.974   5.671   8.363
45315SOL     OW37841   4.458   1.430   3.485
45315SOL    HW137842   4.429   1.496   3.549
45315SOL    HW237843   4.505   1.480   3.419
45316SOL     OW37844  10.479   2.770   3.306
45316SOL    HW137845  10.428   2.829   3.251
45316SOL    HW237846  10.420   2.698   3.325
45317SOL     OW37847  13.512   4.802   7.488
45317SOL    HW137848  13.577   4.871   7.476
45317SOL    HW237849  13.483   4.811   7.579
45318SOL     OW37850   4.971   0.888   7.977
45318SOL    HW137851   4.953   0.969   8.025
45318SOL    HW237852   5.042   0.847   8.025
45319SOL     OW37853  13.063   1.063  14.002
45319SOL    HW137854  13.025   1.151  14.002
45319SOL    HW237855  12.998   1.008  13.958
45320SOL     OW37856  11.386   6.407  13.472
45320SOL    HW137857  11.432   6.490  13.485
45320SOL    HW237858  11.388   6.365  13.558
45321SOL     OW37859  12.083  11.756   7.258
45321SOL    HW137860  12.130  11.771   7.340
45321SOL    HW237861  12.125  11.679   7.221
45322SOL     OW37862   5.176  12.015   1.388
45322SOL    HW137863   5.244  12.010   1.320
45322SOL    HW237864   5.216  11.973   1.464
45323SOL     OW37865   5.284  11.387   3.556
45323SOL    HW137866   5.322  11.452   3.615
45323SOL    HW237867   5.225  11.437   3.500
45324SOL     OW37868   1.261   5.843  11.889
45324SOL    HW137869   1.168   5.838  11.910
45324SOL    HW237870   1.305   5.813  11.968
45325SOL     OW37871   7.103   3.698  11.810
45325SOL    HW137872   7.170   3.650  11.859
45325SOL    HW237873   7.153   3.755  11.752
45326SOL     OW37874   0.916   2.349  14.736
45326SOL    HW137875   0.905   2.432  14.691
45326SOL    HW237876   0.828   2.313  14.742
45327SOL     OW37877   1.730   4.982   6.465
45327SOL    HW137878   1.718   4.923   6.540
45327SOL    HW237879   1.649   4.973   6.414
45328SOL     OW37880   1.071   9.244  13.618
45328SOL    HW137881   1.040   9.321  13.570
45328SOL    HW237882   1.007   9.231  13.687
45329SOL     OW37883   4.158  10.288   8.579
45329SOL    HW137884   4.244  10.302   8.539
45329SOL    HW237885   4.111  10.370   8.562
45330SOL     OW37886   6.497   4.838   6.080
45330SOL    HW137887   6.581   4.805   6.050
45330SOL    HW237888   6.514   4.927   6.110
45331SOL     OW37889   0.170   3.235  10.419
45331SOL    HW137890   0.138   3.311  10.467
45331SOL    HW237891   0.250   3.210  10.465
45332SOL     OW37892   3.568   7.594  13.879
45332SOL    HW137893   3.527   7.508  13.888
45332SOL    HW237894   3.618   7.589  13.797
45333SOL     OW37895   1.356   9.725   2.406
45333SOL    HW137896   1.314   9.753   2.488
45333SOL    HW237897   1.434   9.781   2.399
45334SOL     OW37898   3.025  14.106  11.878
45334SOL    HW137899   3.083  14.035  11.853
45334SOL    HW237900   3.068  14.148  11.952
45335SOL     OW37901   8.644   6.532  13.093
45335SOL    HW137902   8.646   6.584  13.013
45335SOL    HW237903   8.568   6.564  13.141
45336SOL     OW37904   0.392   7.201   8.632
45336SOL    HW137905   0.345   7.160   8.704
45336SOL    HW237906   0.429   7.281   8.670
45337SOL     OW37907  10.838  13.804  11.321
45337SOL    HW137908  10.783  13.749  11.265
45337SOL    HW237909  10.823  13.770  11.409
45338SOL     OW37910   4.040   9.212   6.865
45338SOL    HW137911   4.076   9.135   6.822
45338SOL    HW237912   3.974   9.246   6.804
45339SOL     OW37913  12.712   1.464   0.704
45339SOL    HW137914  12.658   1.404   0.756
45339SOL    HW237915  12.672   1.464   0.617
45340SOL     OW37916   2.142   5.124  11.186
45340SOL    HW137917   2.148   5.211  11.226
45340SOL    HW237918   2.103   5.069  11.254
45341SOL     OW37919  12.805   9.944  10.232
45341SOL    HW137920  12.717   9.934  10.196
45341SOL    HW237921  12.856   9.875  10.190
45342SOL     OW37922  12.629   9.943   4.358
45342SOL    HW137923  12.607   9.859   4.398
45342SOL    HW237924  12.671   9.919   4.275
45343SOL     OW37925  11.177   9.093  13.139
45343SOL    HW137926  11.155   9.082  13.047
45343SOL    HW237927  11.264   9.134  13.139
45344SOL     OW37928   3.194   9.639   6.902
45344SOL    HW137929   3.125   9.602   6.846
45344SOL    HW237930   3.173   9.732   6.908
45345SOL     OW37931  10.906   0.500   4.742
45345SOL    HW137932  10.902   0.577   4.685
45345SOL    HW237933  10.890   0.426   4.684
45346SOL     OW37934   8.632   0.086   7.967
45346SOL    HW137935   8.559   0.121   8.017
45346SOL    HW237936   8.597   0.075   7.878
45347SOL     OW37937   7.394  11.753   0.716
45347SOL    HW137938   7.411  11.666   0.751
45347SOL    HW237939   7.323  11.787   0.770
45348SOL     OW37940   3.711  14.324   1.578
45348SOL    HW137941   3.665  14.248   1.614
45348SOL    HW237942   3.650  14.397   1.589
45349SOL     OW37943   1.355   9.484  13.433
45349SOL    HW137944   1.285   9.441  13.383
45349SOL    HW237945   1.350   9.576  13.407
45350SOL     OW37946  11.776   4.658   8.445
45350SOL    HW137947  11.793   4.728   8.509
45350SOL    HW237948  11.726   4.700   8.376
45351SOL     OW37949  10.938   9.356  12.364
45351SOL    HW137950  10.908   9.270  12.394
45351SOL    HW237951  10.860   9.396  12.325
45352SOL     OW37952  14.013   4.375   3.312
45352SOL    HW137953  14.085   4.370   3.375
45352SOL    HW237954  13.934   4.376   3.366
45353SOL     OW37955   9.362   3.049  11.401
45353SOL    HW137956   9.423   3.100  11.456
45353SOL    HW237957   9.419   2.996  11.346
45354SOL     OW37958   0.991   3.698  14.396
45354SOL    HW137959   1.021   3.615  14.358
45354SOL    HW237960   0.962   3.676  14.484
45355SOL     OW37961   3.795   7.456   6.399
45355SOL    HW137962   3.739   7.527   6.368
45355SOL    HW237963   3.803   7.471   6.493
45356SOL     OW37964   0.381   9.982   0.510
45356SOL    HW137965   0.286   9.978   0.514
45356SOL    HW237966   0.407  10.014   0.597
45357SOL     OW37967  13.590   6.642   4.160
45357SOL    HW137968  13.635   6.686   4.088
45357SOL    HW237969  13.520   6.592   4.119
45358SOL     OW37970   9.852  11.484   1.291
45358SOL    HW137971   9.923  11.547   1.281
45358SOL    HW237972   9.788  11.528   1.347
45359SOL     OW37973  13.406   1.954  10.345
45359SOL    HW137974  13.343   2.007  10.394
45359SOL    HW237975  13.394   1.980  10.254
45360SOL     OW37976  13.643   1.068   9.616
45360SOL    HW137977  13.722   1.050   9.666
45360SOL    HW237978  13.654   1.158   9.585
45361SOL     OW37979  14.096   8.567   6.480
45361SOL    HW137980  14.096   8.519   6.562
45361SOL    HW237981  14.139   8.508   6.418
45362SOL     OW37982   0.424   9.293  11.911
45362SOL    HW137983   0.490   9.226  11.928
45362SOL    HW237984   0.346   9.264  11.959
45363SOL     OW37985  12.049   5.186  13.885
45363SOL    HW137986  12.049   5.161  13.977
45363SOL    HW237987  12.084   5.276  13.885
45364SOL     OW37988   7.046  12.965   0.937
45364SOL    HW137989   7.029  13.014   0.857
45364SOL    HW237990   6.966  12.974   0.989
45365SOL     OW37991  14.147   8.583  11.073
45365SOL    HW137992  14.142   8.662  11.127
45365SOL    HW237993  14.215   8.602  11.008
45366SOL     OW37994   4.716   6.908  11.590
45366SOL    HW137995   4.689   6.997  11.568
45366SOL    HW237996   4.797   6.894  11.540
45367SOL     OW37997   1.066   0.685   1.502
45367SOL    HW137998   1.136   0.750   1.493
45367SOL    HW237999   1.094   0.632   1.577
45368SOL     OW38000   7.238   2.372  12.760
45368SOL    HW138001   7.145   2.387  12.741
45368SOL    HW238002   7.257   2.429  12.834
45369SOL     OW38003   1.551  10.354   0.719
45369SOL    HW138004   1.613  10.288   0.690
45369SOL    HW238005   1.587  10.386   0.802
45370SOL     OW38006   1.300   9.674  13.152
45370SOL    HW138007   1.296   9.584  13.185
45370SOL    HW238008   1.250   9.672  13.071
45371SOL     OW38009   3.971   3.097   0.801
45371SOL    HW138010   3.968   3.169   0.737
45371SOL    HW238011   3.889   3.049   0.788
45372SOL     OW38012  13.264   0.609   6.173
45372SOL    HW138013  13.355   0.580   6.163
45372SOL    HW238014  13.213   0.528   6.175
45373SOL     OW38015   0.194   2.872   9.914
45373SOL    HW138016   0.229   2.829   9.991
45373SOL    HW238017   0.178   2.963   9.942
45374SOL     OW38018  10.873   0.465   3.500
45374SOL    HW138019  10.950   0.440   3.449
45374SOL    HW238020  10.812   0.392   3.488
45375SOL     OW38021  13.779   0.418   5.711
45375SOL    HW138022  13.860   0.419   5.660
45375SOL    HW238023  13.797   0.474   5.786
45376SOL     OW38024  12.472   3.828  10.258
45376SOL    HW138025  12.479   3.767  10.184
45376SOL    HW238026  12.488   3.774  10.335
45377SOL     OW38027   7.394   2.321   0.727
45377SOL    HW138028   7.314   2.371   0.713
45377SOL    HW238029   7.447   2.339   0.649
45378SOL     OW38030   6.097  11.840   7.141
45378SOL    HW138031   6.095  11.745   7.150
45378SOL    HW238032   6.114  11.872   7.229
45379SOL     OW38033   0.257   7.757   3.246
45379SOL    HW138034   0.310   7.825   3.287
45379SOL    HW238035   0.226   7.703   3.319
45380SOL     OW38036   2.253   7.846   1.947
45380SOL    HW138037   2.330   7.794   1.968
45380SOL    HW238038   2.208   7.857   2.031
45381SOL     OW38039   0.338  11.343   3.786
45381SOL    HW138040   0.317  11.365   3.877
45381SOL    HW238041   0.282  11.268   3.766
45382SOL     OW38042   7.442   7.840   4.555
45382SOL    HW138043   7.409   7.761   4.515
45382SOL    HW238044   7.492   7.883   4.486
45383SOL     OW38045   1.066   9.992  12.604
45383SOL    HW138046   1.097   9.995  12.695
45383SOL    HW238047   1.041   9.901  12.590
45384SOL     OW38048   3.358   8.991   5.555
45384SOL    HW138049   3.320   9.078   5.568
45384SOL    HW238050   3.299   8.932   5.602
45385SOL     OW38051  13.079   6.026  10.661
45385SOL    HW138052  13.103   5.996  10.573
45385SOL    HW238053  13.161   6.055  10.700
45386SOL     OW38054   0.098   9.199   9.189
45386SOL    HW138055   0.088   9.235   9.101
45386SOL    HW238056   0.162   9.129   9.180
45387SOL     OW38057   2.939  13.558   0.857
45387SOL    HW138058   2.988  13.562   0.939
45387SOL    HW238059   2.931  13.649   0.829
45388SOL     OW38060  13.688   4.318   4.948
45388SOL    HW138061  13.629   4.390   4.925
45388SOL    HW238062  13.678   4.255   4.877
45389SOL     OW38063   1.431   1.519  13.672
45389SOL    HW138064   1.483   1.582  13.623
45389SOL    HW238065   1.429   1.554  13.761
45390SOL     OW38066  12.537  10.367  10.173
45390SOL    HW138067  12.478  10.367  10.249
45390SOL    HW238068  12.620  10.336  10.208
45391SOL     OW38069   1.465  13.791  13.218
45391SOL    HW138070   1.425  13.875  13.193
45391SOL    HW238071   1.559  13.807  13.215
45392SOL     OW38072   3.373   3.306   9.298
45392SOL    HW138073   3.435   3.374   9.324
45392SOL    HW238074   3.295   3.324   9.350
45393SOL     OW38075   0.426  10.001  10.788
45393SOL    HW138076   0.340  10.035  10.762
45393SOL    HW238077   0.464   9.967  10.706
45394SOL     OW38078   9.987   3.339   5.129
45394SOL    HW138079  10.062   3.376   5.083
45394SOL    HW238080  10.015   3.251   5.153
45395SOL     OW38081   3.818  13.578   2.928
45395SOL    HW138082   3.874  13.517   2.880
45395SOL    HW238083   3.852  13.665   2.906
45396SOL     OW38084   9.462  14.339   8.275
45396SOL    HW138085   9.494  14.428   8.289
45396SOL    HW238086   9.497  14.288   8.349
45397SOL     OW38087   1.052  10.027  13.630
45397SOL    HW138088   1.145  10.046  13.639
45397SOL    HW238089   1.042   9.993  13.541
45398SOL     OW38090  11.757   8.636   6.912
45398SOL    HW138091  11.751   8.638   6.817
45398SOL    HW238092  11.788   8.724   6.936
45399SOL     OW38093   2.897   9.435   0.294
45399SOL    HW138094   2.885   9.420   0.388
45399SOL    HW238095   2.951   9.361   0.265
45400SOL     OW38096   8.899  11.494   3.245
45400SOL    HW138097   8.968  11.526   3.303
45400SOL    HW238098   8.832  11.460   3.305
45401SOL     OW38099  13.134   4.551   7.062
45401SOL    HW138100  13.183   4.485   7.111
45401SOL    HW238101  13.043   4.519   7.063
45402SOL     OW38102   4.330   9.709   8.245
45402SOL    HW138103   4.338   9.731   8.338
45402SOL    HW238104   4.420   9.698   8.215
45403SOL     OW38105  11.043  13.836   5.008
45403SOL    HW138106  11.097  13.822   5.085
45403SOL    HW238107  10.966  13.883   5.041
45404SOL     OW38108   3.758   0.681   5.243
45404SOL    HW138109   3.737   0.588   5.239
45404SOL    HW238110   3.708   0.720   5.172
45405SOL     OW38111  10.378  10.068  12.075
45405SOL    HW138112  10.393   9.973  12.073
45405SOL    HW238113  10.291  10.078  12.112
45406SOL     OW38114   3.675   4.041   0.159
45406SOL    HW138115   3.689   4.074   0.248
45406SOL    HW238116   3.756   4.063   0.113
45407SOL     OW38117   1.764  14.165   1.335
45407SOL    HW138118   1.693  14.203   1.284
45407SOL    HW238119   1.793  14.235   1.393
45408SOL     OW38120  11.873  11.364   6.758
45408SOL    HW138121  11.884  11.384   6.665
45408SOL    HW238122  11.957  11.390   6.798
45409SOL     OW38123  14.853   9.511   9.125
45409SOL    HW138124  14.807   9.558   9.194
45409SOL    HW238125  14.799   9.524   9.047
45410SOL     OW38126  13.901   7.461   6.770
45410SOL    HW138127  13.989   7.437   6.799
45410SOL    HW238128  13.907   7.555   6.752
45411SOL     OW38129  13.071   8.577   6.605
45411SOL    HW138130  13.008   8.648   6.609
45411SOL    HW238131  13.086   8.553   6.697
45412SOL     OW38132  13.378   2.098   7.047
45412SOL    HW138133  13.289   2.125   7.026
45412SOL    HW238134  13.415   2.171   7.097
45413SOL     OW38135   2.038   7.800  10.724
45413SOL    HW138136   2.087   7.868  10.771
45413SOL    HW238137   2.089   7.785  10.644
45414SOL     OW38138   2.546   1.258   2.184
45414SOL    HW138139   2.624   1.299   2.222
45414SOL    HW238140   2.489   1.241   2.260
45415SOL     OW38141   7.605   9.126   0.156
45415SOL    HW138142   7.701   9.128   0.160
45415SOL    HW238143   7.578   9.102   0.244
45416SOL     OW38144   4.682   6.864  11.072
45416SOL    HW138145   4.680   6.938  11.132
45416SOL    HW238146   4.630   6.796  11.115
45417SOL     OW38147  11.722   4.733   0.312
45417SOL    HW138148  11.787   4.690   0.368
45417SOL    HW238149  11.775   4.787   0.253
45418SOL     OW38150   3.127   6.519  10.179
45418SOL    HW138151   3.117   6.603  10.225
45418SOL    HW238152   3.144   6.456  10.249
45419SOL     OW38153   9.595   5.244   4.168
45419SOL    HW138154   9.571   5.300   4.243
45419SOL    HW238155   9.542   5.165   4.179
45420SOL     OW38156   1.885  10.762  13.980
45420SOL    HW138157   1.883  10.857  13.974
45420SOL    HW238158   1.860  10.743  14.071
45421SOL     OW38159   4.540   0.557  11.288
45421SOL    HW138160   4.570   0.648  11.277
45421SOL    HW238161   4.554   0.517  11.202
45422SOL     OW38162  14.825  13.187   7.015
45422SOL    HW138163   0.006  13.147   6.951
45422SOL    HW238164  14.739  13.186   6.974
45423SOL     OW38165   5.049   1.044   4.028
45423SOL    HW138166   5.038   1.090   4.111
45423SOL    HW238167   4.961   1.039   3.991
45424SOL     OW38168  13.882  13.724   0.514
45424SOL    HW138169  13.971  13.692   0.494
45424SOL    HW238170  13.881  13.813   0.480
45425SOL     OW38171   1.304   3.448   4.583
45425SOL    HW138172   1.360   3.525   4.582
45425SOL    HW238173   1.357   3.380   4.624
45426SOL     OW38174   5.970   6.626  11.414
45426SOL    HW138175   6.004   6.663  11.332
45426SOL    HW238176   5.876   6.642  11.410
45427SOL     OW38177   2.354   0.402  12.074
45427SOL    HW138178   2.374   0.443  12.158
45427SOL    HW238179   2.432   0.350  12.054
45428SOL     OW38180  14.787   6.153   1.091
45428SOL    HW138181  14.830   6.071   1.068
45428SOL    HW238182  14.811   6.213   1.021
45429SOL     OW38183   4.963   8.080   1.341
45429SOL    HW138184   4.950   8.012   1.407
45429SOL    HW238185   4.880   8.082   1.293
45430SOL     OW38186   5.917  10.179   7.112
45430SOL    HW138187   5.902  10.239   7.039
45430SOL    HW238188   5.898  10.231   7.191
45431SOL     OW38189  10.852   8.729  12.097
45431SOL    HW138190  10.777   8.669  12.096
45431SOL    HW238191  10.813   8.816  12.100
45432SOL     OW38192  10.267   5.519   3.935
45432SOL    HW138193  10.229   5.434   3.912
45432SOL    HW238194  10.216   5.583   3.885
45433SOL     OW38195   8.801   6.336  13.214
45433SOL    HW138196   8.804   6.263  13.152
45433SOL    HW238197   8.733   6.394  13.179
45434SOL     OW38198  11.181  14.230   4.974
45434SOL    HW138199  11.090  14.216   5.001
45434SOL    HW238200  11.178  14.225   4.878
45435SOL     OW38201   2.772  12.446   7.183
45435SOL    HW138202   2.723  12.466   7.263
45435SOL    HW238203   2.757  12.522   7.127
45436SOL     OW38204   0.186   4.471   0.577
45436SOL    HW138205   0.239   4.480   0.498
45436SOL    HW238206   0.123   4.402   0.556
45437SOL     OW38207  13.118   0.902   8.757
45437SOL    HW138208  13.106   0.851   8.838
45437SOL    HW238209  13.175   0.848   8.703
45438SOL     OW38210   4.301   8.012  13.093
45438SOL    HW138211   4.331   7.930  13.054
45438SOL    HW238212   4.334   8.080  13.034
45439SOL     OW38213   6.740   8.074   1.452
45439SOL    HW138214   6.739   8.148   1.391
45439SOL    HW238215   6.695   8.004   1.404
45440SOL     OW38216   1.122  14.198   2.922
45440SOL    HW138217   1.116  14.141   2.845
45440SOL    HW238218   1.041  14.180   2.971
45441SOL     OW38219   4.400  12.362   9.099
45441SOL    HW138220   4.435  12.317   9.021
45441SOL    HW238221   4.315  12.321   9.114
45442SOL     OW38222   0.430   0.258   7.045
45442SOL    HW138223   0.490   0.183   7.043
45442SOL    HW238224   0.484   0.332   7.073
45443SOL     OW38225   4.778  10.361   1.381
45443SOL    HW138226   4.735  10.360   1.295
45443SOL    HW238227   4.726  10.422   1.434
45444SOL     OW38228  11.357   6.034   3.543
45444SOL    HW138229  11.390   6.124   3.546
45444SOL    HW238230  11.421   5.987   3.490
45445SOL     OW38231   1.028  11.418   5.426
45445SOL    HW138232   1.070  11.499   5.397
45445SOL    HW238233   1.033  11.360   5.350
45446SOL     OW38234   4.129   6.261   8.144
45446SOL    HW138235   4.113   6.234   8.054
45446SOL    HW238236   4.177   6.188   8.183
45447SOL     OW38237  10.166  12.473   8.235
45447SOL    HW138238  10.138  12.511   8.318
45447SOL    HW238239  10.159  12.545   8.172
45448SOL     OW38240   9.011  12.231   2.698
45448SOL    HW138241   9.065  12.154   2.683
45448SOL    HW238242   8.928  12.196   2.731
45449SOL     OW38243   9.654   5.218  13.706
45449SOL    HW138244   9.622   5.132  13.682
45449SOL    HW238245   9.734   5.201  13.756
45450SOL     OW38246   9.533   1.245   8.793
45450SOL    HW138247   9.446   1.231   8.755
45450SOL    HW238248   9.517   1.302   8.868
45451SOL     OW38249  14.573   4.175   1.756
45451SOL    HW138250  14.493   4.127   1.738
45451SOL    HW238251  14.554   4.226   1.835
45452SOL     OW38252  13.849  12.519   9.247
45452SOL    HW138253  13.790  12.469   9.190
45452SOL    HW238254  13.909  12.453   9.282
45453SOL     OW38255   0.126  10.133  10.812
45453SOL    HW138256   0.079  10.147  10.894
45453SOL    HW238257   0.141  10.220  10.777
45454SOL     OW38258   6.590   8.709   4.138
45454SOL    HW138259   6.543   8.701   4.054
45454SOL    HW238260   6.527   8.751   4.196
45455SOL     OW38261   3.264  13.197   3.766
45455SOL    HW138262   3.345  13.169   3.808
45455SOL    HW238263   3.277  13.290   3.749
45456SOL     OW38264   2.467  14.851   6.467
45456SOL    HW138265   2.439  14.873   6.378
45456SOL    HW238266   2.504   0.055   6.501
45457SOL     OW38267   4.910   5.566   2.656
45457SOL    HW138268   4.951   5.496   2.605
45457SOL    HW238269   4.823   5.532   2.677
45458SOL     OW38270  11.072  13.638  14.351
45458SOL    HW138271  11.000  13.606  14.405
45458SOL    HW238272  11.072  13.733  14.366
45459SOL     OW38273   3.695   8.743   8.070
45459SOL    HW138274   3.755   8.673   8.042
45459SOL    HW238275   3.615   8.728   8.018
45460SOL     OW38276   8.234  12.735   1.824
45460SOL    HW138277   8.205  12.644   1.825
45460SOL    HW238278   8.304  12.740   1.888
45461SOL     OW38279   0.751   0.411  12.441
45461SOL    HW138280   0.812   0.345  12.474
45461SOL    HW238281   0.665   0.379  12.466
45462SOL     OW38282  13.392  10.997  10.440
45462SOL    HW138283  13.474  11.023  10.482
45462SOL    HW238284  13.419  10.956  10.358
45463SOL     OW38285   6.161   2.997  11.792
45463SOL    HW138286   6.158   2.978  11.698
45463SOL    HW238287   6.124   2.919  11.833
45464SOL     OW38288  12.864  10.595   8.336
45464SOL    HW138289  12.839  10.567   8.424
45464SOL    HW238290  12.934  10.535   8.310
45465SOL     OW38291   4.600   8.551   7.849
45465SOL    HW138292   4.507   8.569   7.864
45465SOL    HW238293   4.639   8.551   7.936
45466SOL     OW38294   2.429   1.879   0.732
45466SOL    HW138295   2.412   1.968   0.699
45466SOL    HW238296   2.473   1.835   0.659
45467SOL     OW38297   2.914   0.546  12.497
45467SOL    HW138298   2.840   0.487  12.507
45467SOL    HW238299   2.973   0.501  12.437
45468SOL     OW38300  12.292   3.926   2.525
45468SOL    HW138301  12.264   3.871   2.452
45468SOL    HW238302  12.211   3.959   2.562
45469SOL     OW38303  14.777  14.736  10.327
45469SOL    HW138304  14.806  14.757  10.238
45469SOL    HW238305  14.692  14.778  10.335
45470SOL     OW38306   6.233  11.352  12.122
45470SOL    HW138307   6.322  11.321  12.108
45470SOL    HW238308   6.181  11.272  12.136
45471SOL     OW38309  14.030   1.471  14.857
45471SOL    HW138310  14.072   1.462   0.065
45471SOL    HW238311  14.051   1.560  14.829
45472SOL     OW38312   2.598  10.682  10.625
45472SOL    HW138313   2.639  10.676  10.711
45472SOL    HW238314   2.617  10.771  10.594
45473SOL     OW38315  11.553   6.535  11.291
45473SOL    HW138316  11.460   6.545  11.272
45473SOL    HW238317  11.570   6.441  11.281
45474SOL     OW38318  12.587   1.451   4.594
45474SOL    HW138319  12.620   1.390   4.528
45474SOL    HW238320  12.517   1.402   4.639
45475SOL     OW38321   1.369   4.837  11.015
45475SOL    HW138322   1.394   4.746  11.026
45475SOL    HW238323   1.280   4.842  11.051
45476SOL     OW38324  12.163   4.532  12.680
45476SOL    HW138325  12.244   4.579  12.661
45476SOL    HW238326  12.098   4.600  12.698
45477SOL     OW38327   6.378   5.712   6.178
45477SOL    HW138328   6.348   5.763   6.102
45477SOL    HW238329   6.442   5.769   6.221
45478SOL     OW38330   7.496  11.800   3.659
45478SOL    HW138331   7.418  11.855   3.649
45478SOL    HW238332   7.473  11.717   3.618
45479SOL     OW38333   6.381   8.000  12.039
45479SOL    HW138334   6.309   7.941  12.062
45479SOL    HW238335   6.352   8.086  12.068
45480SOL     OW38336   6.073   7.820   7.567
45480SOL    HW138337   6.046   7.861   7.649
45480SOL    HW238338   6.018   7.860   7.500
45481SOL     OW38339   5.879   5.534  13.838
45481SOL    HW138340   5.857   5.473  13.909
45481SOL    HW238341   5.956   5.495  13.797
45482SOL     OW38342   9.434   1.383   2.641
45482SOL    HW138343   9.375   1.399   2.715
45482SOL    HW238344   9.460   1.470   2.611
45483SOL     OW38345   7.981  12.537   3.558
45483SOL    HW138346   8.023  12.451   3.555
45483SOL    HW238347   7.936  12.544   3.474
45484SOL     OW38348   2.711   2.540  11.939
45484SOL    HW138349   2.683   2.599  12.009
45484SOL    HW238350   2.785   2.585  11.898
45485SOL     OW38351  14.089  11.911   4.287
45485SOL    HW138352  14.180  11.922   4.315
45485SOL    HW238353  14.067  11.821   4.312
45486SOL     OW38354   0.332   2.965   3.589
45486SOL    HW138355   0.311   3.031   3.522
45486SOL    HW238356   0.427   2.954   3.581
45487SOL     OW38357   6.294   8.685   7.042
45487SOL    HW138358   6.258   8.603   7.076
45487SOL    HW238359   6.344   8.659   6.965
45488SOL     OW38360   0.911   4.488  13.543
45488SOL    HW138361   0.839   4.545  13.515
45488SOL    HW238362   0.990   4.540  13.526
45489SOL     OW38363  14.552  11.806   8.369
45489SOL    HW138364  14.492  11.880   8.374
45489SOL    HW238365  14.615  11.831   8.300
45490SOL     OW38366   5.659  10.472   2.540
45490SOL    HW138367   5.574  10.450   2.579
45490SOL    HW238368   5.723  10.428   2.596
45491SOL     OW38369  12.262   3.658  13.445
45491SOL    HW138370  12.347   3.631  13.479
45491SOL    HW238371  12.275   3.749  13.418
45492SOL     OW38372   2.303   4.578   3.725
45492SOL    HW138373   2.393   4.599   3.699
45492SOL    HW238374   2.310   4.494   3.769
45493SOL     OW38375   9.548   6.782   8.070
45493SOL    HW138376   9.575   6.832   7.994
45493SOL    HW238377   9.453   6.791   8.073
45494SOL     OW38378   3.490   9.899   9.179
45494SOL    HW138379   3.547   9.973   9.161
45494SOL    HW238380   3.524   9.860   9.260
45495SOL     OW38381   6.301  10.874  13.079
45495SOL    HW138382   6.346  10.853  13.161
45495SOL    HW238383   6.331  10.963  13.058
45496SOL     OW38384  11.227   0.598   8.392
45496SOL    HW138385  11.186   0.561   8.315
45496SOL    HW238386  11.243   0.523   8.450
45497SOL     OW38387   1.832   9.135  11.122
45497SOL    HW138388   1.886   9.165  11.195
45497SOL    HW238389   1.809   9.215  11.074
45498SOL     OW38390  10.200  11.536   3.952
45498SOL    HW138391  10.127  11.476   3.936
45498SOL    HW238392  10.268  11.508   3.889
45499SOL     OW38393  13.528  10.635  10.049
45499SOL    HW138394  13.464  10.687  10.001
45499SOL    HW238395  13.613  10.660  10.012
45500SOL     OW38396   4.477   9.390  10.238
45500SOL    HW138397   4.413   9.454  10.206
45500SOL    HW238398   4.562   9.433  10.225
45501SOL     OW38399  12.281   3.456   2.131
45501SOL    HW138400  12.299   3.495   2.045
45501SOL    HW238401  12.365   3.420   2.159
45502SOL     OW38402   2.561  12.510   1.761
45502SOL    HW138403   2.549  12.490   1.854
45502SOL    HW238404   2.635  12.455   1.735
45503SOL     OW38405   3.820   0.882   7.037
45503SOL    HW138406   3.825   0.954   6.974
45503SOL    HW238407   3.752   0.824   7.001
45504SOL     OW38408  14.430  11.990  12.410
45504SOL    HW138409  14.442  12.041  12.490
45504SOL    HW238410  14.380  12.048  12.352
45505SOL     OW38411   8.645   6.075  12.918
45505SOL    HW138412   8.640   6.003  12.981
45505SOL    HW238413   8.560   6.118  12.923
45506SOL     OW38414   5.496  14.551   2.405
45506SOL    HW138415   5.417  14.595   2.373
45506SOL    HW238416   5.490  14.463   2.368
45507SOL     OW38417   8.280   5.678  12.902
45507SOL    HW138418   8.209   5.647  12.959
45507SOL    HW238419   8.297   5.768  12.931
45508SOL     OW38420  14.668   8.903   8.743
45508SOL    HW138421  14.663   8.894   8.839
45508SOL    HW238422  14.597   8.963   8.721
45509SOL     OW38423   2.059   7.082   0.428
45509SOL    HW138424   2.078   7.002   0.477
45509SOL    HW238425   2.088   7.063   0.339
45510SOL     OW38426   0.345   6.992   4.130
45510SOL    HW138427   0.406   6.927   4.164
45510SOL    HW238428   0.331   7.053   4.202
45511SOL     OW38429  12.185   3.779   5.265
45511SOL    HW138430  12.098   3.775   5.305
45511SOL    HW238431  12.195   3.694   5.221
45512SOL     OW38432  14.119  13.863   7.751
45512SOL    HW138433  14.032  13.901   7.743
45512SOL    HW238434  14.154  13.898   7.833
45513SOL     OW38435   3.352  11.351  12.173
45513SOL    HW138436   3.430  11.313  12.213
45513SOL    HW238437   3.383  11.389  12.091
45514SOL     OW38438   7.038   5.642  12.602
45514SOL    HW138439   7.025   5.620  12.695
45514SOL    HW238440   7.132   5.648  12.592
45515SOL     OW38441  14.058   8.554   4.673
45515SOL    HW138442  14.125   8.493   4.703
45515SOL    HW238443  14.063   8.549   4.577
45516SOL     OW38444  12.508  11.158   2.380
45516SOL    HW138445  12.527  11.234   2.326
45516SOL    HW238446  12.454  11.192   2.452
45517SOL     OW38447  11.619  11.359   5.949
45517SOL    HW138448  11.577  11.387   5.868
45517SOL    HW238449  11.605  11.264   5.952
45518SOL     OW38450   7.033   1.756   7.786
45518SOL    HW138451   7.060   1.766   7.877
45518SOL    HW238452   7.009   1.845   7.759
45519SOL     OW38453   3.154   0.089   3.947
45519SOL    HW138454   3.160   0.176   3.985
45519SOL    HW238455   3.061   0.067   3.952
45520SOL     OW38456  14.496  11.347   1.812
45520SOL    HW138457  14.537  11.275   1.859
45520SOL    HW238458  14.404  11.322   1.806
45521SOL     OW38459   8.670   9.107   9.582
45521SOL    HW138460   8.626   9.146   9.658
45521SOL    HW238461   8.603   9.055   9.539
45522SOL     OW38462  12.397  10.497  13.877
45522SOL    HW138463  12.392  10.576  13.930
45522SOL    HW238464  12.412  10.529  13.788
45523SOL     OW38465   4.321   6.678  12.625
45523SOL    HW138466   4.339   6.771  12.634
45523SOL    HW238467   4.276   6.670  12.541
45524SOL     OW38468  11.784   5.118   2.063
45524SOL    HW138469  11.873   5.134   2.032
45524SOL    HW238470  11.772   5.024   2.055
45525SOL     OW38471  13.265   8.973  11.617
45525SOL    HW138472  13.273   8.878  11.628
45525SOL    HW238473  13.341   9.008  11.663
45526SOL     OW38474   4.706  14.795   1.595
45526SOL    HW138475   4.676  14.704   1.584
45526SOL    HW238476   4.800  14.791   1.580
45527SOL     OW38477  11.479   3.471  13.787
45527SOL    HW138478  11.409   3.453  13.850
45527SOL    HW238479  11.442   3.537  13.728
45528SOL     OW38480   8.653  14.659   7.342
45528SOL    HW138481   8.713  14.684   7.271
45528SOL    HW238482   8.622  14.572   7.318
45529SOL     OW38483   5.455   6.011   9.175
45529SOL    HW138484   5.401   6.032   9.098
45529SOL    HW238485   5.413   6.056   9.247
45530SOL     OW38486   1.632   4.612   4.630
45530SOL    HW138487   1.686   4.544   4.590
45530SOL    HW238488   1.690   4.688   4.638
45531SOL     OW38489  12.392   8.363   0.452
45531SOL    HW138490  12.415   8.271   0.442
45531SOL    HW238491  12.296   8.363   0.458
45532SOL     OW38492  12.742   2.500   1.303
45532SOL    HW138493  12.709   2.527   1.218
45532SOL    HW238494  12.828   2.542   1.310
45533SOL     OW38495  12.555   5.948   3.837
45533SOL    HW138496  12.590   5.883   3.897
45533SOL    HW238497  12.554   5.905   3.752
45534SOL     OW38498   5.182  12.587   6.878
45534SOL    HW138499   5.193  12.493   6.894
45534SOL    HW238500   5.108  12.611   6.934
45535SOL     OW38501   8.632  11.106  11.222
45535SOL    HW138502   8.635  11.088  11.316
45535SOL    HW238503   8.700  11.049  11.185
45536SOL     OW38504  14.720   5.380   2.058
45536SOL    HW138505  14.752   5.459   2.103
45536SOL    HW238506  14.668   5.335   2.124
45537SOL     OW38507   5.121   7.886   6.032
45537SOL    HW138508   5.204   7.934   6.028
45537SOL    HW238509   5.064   7.933   5.972
45538SOL     OW38510   5.297  13.636  11.274
45538SOL    HW138511   5.299  13.576  11.200
45538SOL    HW238512   5.388  13.662  11.287
45539SOL     OW38513   0.455   3.275  10.482
45539SOL    HW138514   0.456   3.268  10.386
45539SOL    HW238515   0.387   3.339  10.501
45540SOL     OW38516   0.303   1.562  10.192
45540SOL    HW138517   0.375   1.584  10.252
45540SOL    HW238518   0.246   1.505  10.242
45541SOL     OW38519   0.775   2.405  11.204
45541SOL    HW138520   0.697   2.376  11.251
45541SOL    HW238521   0.751   2.400  11.112
45542SOL     OW38522   0.963   3.318   4.688
45542SOL    HW138523   0.890   3.256   4.685
45542SOL    HW238524   0.921   3.404   4.696
45543SOL     OW38525  14.778   5.763   1.790
45543SOL    HW138526  14.751   5.671   1.794
45543SOL    HW238527  14.780   5.783   1.696
45544SOL     OW38528   7.583   1.697  10.652
45544SOL    HW138529   7.607   1.737  10.569
45544SOL    HW238530   7.636   1.742  10.717
45545SOL     OW38531  12.758  12.133   8.865
45545SOL    HW138532  12.706  12.208   8.894
45545SOL    HW238533  12.774  12.149   8.772
45546SOL     OW38534  13.226  10.531   3.495
45546SOL    HW138535  13.303  10.556   3.444
45546SOL    HW238536  13.193  10.614   3.530
45547SOL     OW38537   0.286   4.230   5.185
45547SOL    HW138538   0.276   4.323   5.163
45547SOL    HW238539   0.377   4.210   5.160
45548SOL     OW38540  13.381   5.030   9.142
45548SOL    HW138541  13.291   5.058   9.123
45548SOL    HW238542  13.386   4.941   9.107
45549SOL     OW38543  11.963   9.081   6.103
45549SOL    HW138544  12.028   9.150   6.114
45549SOL    HW238545  11.900   9.118   6.041
45550SOL     OW38546   6.167   4.169   9.320
45550SOL    HW138547   6.201   4.081   9.334
45550SOL    HW238548   6.207   4.198   9.238
45551SOL     OW38549   4.686   6.529   7.370
45551SOL    HW138550   4.591   6.539   7.378
45551SOL    HW238551   4.723   6.591   7.433
45552SOL     OW38552   1.991   5.853   1.577
45552SOL    HW138553   1.982   5.920   1.509
45552SOL    HW238554   1.903   5.845   1.613
45553SOL     OW38555  11.806   5.767   9.045
45553SOL    HW138556  11.754   5.786   9.122
45553SOL    HW238557  11.742   5.739   8.979
45554SOL     OW38558   6.792   8.087  14.864
45554SOL    HW138559   6.752   8.043   0.061
45554SOL    HW238560   6.762   8.037  14.788
45555SOL     OW38561  14.539   6.654  12.638
45555SOL    HW138562  14.545   6.654  12.543
45555SOL    HW238563  14.562   6.564  12.664
45556SOL     OW38564   8.498   2.855   5.809
45556SOL    HW138565   8.554   2.818   5.878
45556SOL    HW238566   8.474   2.942   5.842
45557SOL     OW38567   7.570   4.633  12.865
45557SOL    HW138568   7.537   4.653  12.953
45557SOL    HW238569   7.572   4.537  12.863
45558SOL     OW38570  10.973  14.133  12.360
45558SOL    HW138571  11.049  14.082  12.331
45558SOL    HW238572  10.930  14.078  12.426
45559SOL     OW38573   2.898  11.531   2.420
45559SOL    HW138574   2.887  11.576   2.336
45559SOL    HW238575   2.964  11.583   2.467
45560SOL     OW38576   3.880   0.135   2.302
45560SOL    HW138577   3.968   0.155   2.336
45560SOL    HW238578   3.830   0.111   2.379
45561SOL     OW38579   2.851   9.374   5.747
45561SOL    HW138580   2.855   9.408   5.657
45561SOL    HW238581   2.778   9.312   5.746
45562SOL     OW38582   1.421   3.919  10.001
45562SOL    HW138583   1.377   3.835   9.995
45562SOL    HW238584   1.439   3.931  10.095
45563SOL     OW38585   2.379   4.813  13.141
45563SOL    HW138586   2.292   4.798  13.176
45563SOL    HW238587   2.384   4.756  13.064
45564SOL     OW38588   0.069   8.596   9.388
45564SOL    HW138589   0.041   8.607   9.298
45564SOL    HW238590   0.126   8.519   9.386
45565SOL     OW38591   0.385   5.477   5.549
45565SOL    HW138592   0.444   5.493   5.623
45565SOL    HW238593   0.392   5.556   5.495
45566SOL     OW38594   0.254  10.971   3.028
45566SOL    HW138595   0.209  10.953   3.110
45566SOL    HW238596   0.341  10.934   3.039
45567SOL     OW38597  11.211   8.993  14.074
45567SOL    HW138598  11.207   8.997  14.170
45567SOL    HW238599  11.263   8.915  14.056
45568SOL     OW38600   7.251   7.050   6.189
45568SOL    HW138601   7.333   7.034   6.236
45568SOL    HW238602   7.185   7.003   6.240
45569SOL     OW38603  12.751  13.793   5.466
45569SOL    HW138604  12.783  13.744   5.542
45569SOL    HW238605  12.780  13.741   5.391
45570SOL     OW38606  10.079  14.727   1.064
45570SOL    HW138607  10.042  14.643   1.091
45570SOL    HW238608  10.014  14.792   1.092
45571SOL     OW38609   4.609   9.253  13.319
45571SOL    HW138610   4.578   9.264  13.409
45571SOL    HW238611   4.569   9.171  13.289
45572SOL     OW38612   5.249   7.152   2.533
45572SOL    HW138613   5.177   7.196   2.488
45572SOL    HW238614   5.227   7.161   2.626
45573SOL     OW38615   4.883  12.652  10.164
45573SOL    HW138616   4.858  12.650  10.071
45573SOL    HW238617   4.939  12.729  10.172
45574SOL     OW38618   9.375  11.947  13.370
45574SOL    HW138619   9.302  12.005  13.392
45574SOL    HW238620   9.349  11.905  13.288
45575SOL     OW38621   8.052   0.741   9.582
45575SOL    HW138622   8.011   0.742   9.668
45575SOL    HW238623   8.136   0.784   9.595
45576SOL     OW38624  12.193   6.786   8.130
45576SOL    HW138625  12.209   6.877   8.103
45576SOL    HW238626  12.138   6.750   8.061
45577SOL     OW38627   7.081   2.108   9.226
45577SOL    HW138628   7.093   2.071   9.313
45577SOL    HW238629   6.997   2.154   9.230
45578SOL     OW38630   1.253   0.624   5.387
45578SOL    HW138631   1.201   0.704   5.378
45578SOL    HW238632   1.191   0.553   5.373
45579SOL     OW38633   2.345   6.410   5.122
45579SOL    HW138634   2.304   6.347   5.181
45579SOL    HW238635   2.408   6.456   5.177
45580SOL     OW38636  11.337  11.992  11.938
45580SOL    HW138637  11.277  12.066  11.931
45580SOL    HW238638  11.369  11.979  11.848
45581SOL     OW38639  13.016   2.725   4.726
45581SOL    HW138640  13.076   2.758   4.794
45581SOL    HW238641  13.046   2.636   4.710
45582SOL     OW38642  10.080   4.157   7.290
45582SOL    HW138643  10.062   4.176   7.198
45582SOL    HW238644  10.130   4.075   7.288
45583SOL     OW38645   4.572   0.049   2.229
45583SOL    HW138646   4.585   0.046   2.324
45583SOL    HW238647   4.635  14.864   2.194
45584SOL     OW38648  12.657   9.344  10.284
45584SOL    HW138649  12.721   9.320  10.352
45584SOL    HW238650  12.576   9.362  10.332
45585SOL     OW38651   7.920   9.936  10.906
45585SOL    HW138652   7.869   9.855  10.913
45585SOL    HW238653   7.927   9.952  10.811
45586SOL     OW38654   3.516   0.928   9.415
45586SOL    HW138655   3.484   0.964   9.332
45586SOL    HW238656   3.602   0.892   9.394
45587SOL     OW38657  13.983   4.803   2.236
45587SOL    HW138658  13.905   4.858   2.243
45587SOL    HW238659  14.011   4.788   2.326
45588SOL     OW38660   0.761   5.797   4.745
45588SOL    HW138661   0.724   5.711   4.723
45588SOL    HW238662   0.787   5.834   4.660
45589SOL     OW38663   1.911  12.852  10.560
45589SOL    HW138664   1.927  12.761  10.536
45589SOL    HW238665   1.946  12.902  10.487
45590SOL     OW38666   2.134   6.695  12.343
45590SOL    HW138667   2.214   6.668  12.388
45590SOL    HW238668   2.072   6.714  12.414
45591SOL     OW38669   6.523  12.713  12.203
45591SOL    HW138670   6.497  12.665  12.124
45591SOL    HW238671   6.552  12.645  12.264
45592SOL     OW38672   9.181  10.827   3.126
45592SOL    HW138673   9.222  10.742   3.117
45592SOL    HW238674   9.098  10.820   3.078
45593SOL     OW38675   2.050   2.363  14.561
45593SOL    HW138676   1.965   2.408  14.556
45593SOL    HW238677   2.076   2.350  14.470
45594SOL     OW38678  11.275  12.539   8.038
45594SOL    HW138679  11.264  12.553   7.944
45594SOL    HW238680  11.354  12.586   8.061
45595SOL     OW38681   6.521   3.068   7.325
45595SOL    HW138682   6.570   3.086   7.406
45595SOL    HW238683   6.436   3.111   7.339
45596SOL     OW38684   3.874   0.153   7.003
45596SOL    HW138685   3.873   0.219   6.934
45596SOL    HW238686   3.960   0.112   6.998
45597SOL     OW38687   1.143   6.620  10.630
45597SOL    HW138688   1.088   6.555  10.673
45597SOL    HW238689   1.084   6.667  10.571
45598SOL     OW38690   5.711  14.259   3.980
45598SOL    HW138691   5.674  14.171   3.978
45598SOL    HW238692   5.655  14.307   4.040
45599SOL     OW38693  12.174  10.082   8.013
45599SOL    HW138694  12.117  10.128   7.951
45599SOL    HW238695  12.163  10.130   8.095
45600SOL     OW38696   5.205   0.890   4.563
45600SOL    HW138697   5.204   0.983   4.545
45600SOL    HW238698   5.186   0.884   4.657
45601SOL     OW38699   0.707  11.164  13.610
45601SOL    HW138700   0.718  11.069  13.620
45601SOL    HW238701   0.702  11.177  13.515
45602SOL     OW38702   7.443   8.169   0.343
45602SOL    HW138703   7.435   8.074   0.344
45602SOL    HW238704   7.370   8.198   0.288
45603SOL     OW38705   9.162  13.725   9.849
45603SOL    HW138706   9.250  13.755   9.873
45603SOL    HW238707   9.171  13.697   9.758
45604SOL     OW38708  12.497   7.120   2.684
45604SOL    HW138709  12.518   7.032   2.654
45604SOL    HW238710  12.402   7.122   2.690
45605SOL     OW38711   7.698   9.147  14.003
45605SOL    HW138712   7.682   9.059  13.969
45605SOL    HW238713   7.783   9.141  14.046
45606SOL     OW38714   9.065   0.913  13.740
45606SOL    HW138715   9.067   0.967  13.819
45606SOL    HW238716   9.146   0.862  13.745
45607SOL     OW38717   8.419   4.906   2.123
45607SOL    HW138718   8.413   4.944   2.035
45607SOL    HW238719   8.394   4.814   2.110
45608SOL     OW38720   1.828  14.270   5.528
45608SOL    HW138721   1.766  14.202   5.555
45608SOL    HW238722   1.775  14.349   5.520
45609SOL     OW38723   8.519   6.899  11.550
45609SOL    HW138724   8.590   6.962  11.560
45609SOL    HW238725   8.448   6.948  11.509
45610SOL     OW38726  12.524   1.982   7.210
45610SOL    HW138727  12.619   1.986   7.208
45610SOL    HW238728  12.497   2.065   7.249
45611SOL     OW38729   8.077   1.783  14.441
45611SOL    HW138730   8.050   1.875  14.436
45611SOL    HW238731   7.997   1.734  14.422
45612SOL     OW38732   9.430   6.873  14.505
45612SOL    HW138733   9.500   6.911  14.453
45612SOL    HW238734   9.374   6.827  14.442
45613SOL     OW38735   9.132   8.740  12.773
45613SOL    HW138736   9.123   8.807  12.841
45613SOL    HW238737   9.043   8.727  12.741
45614SOL     OW38738   3.076  13.185   3.969
45614SOL    HW138739   3.135  13.163   3.896
45614SOL    HW238740   3.129  13.241   4.026
45615SOL     OW38741   9.472  13.046  11.623
45615SOL    HW138742   9.427  12.993  11.688
45615SOL    HW238743   9.406  13.106  11.591
45616SOL     OW38744   9.368   7.026   1.094
45616SOL    HW138745   9.452   6.999   1.057
45616SOL    HW238746   9.303   6.975   1.045
45617SOL     OW38747   5.369   8.661  11.163
45617SOL    HW138748   5.454   8.630  11.195
45617SOL    HW238749   5.313   8.583  11.164
45618SOL     OW38750   6.752  14.369   9.855
45618SOL    HW138751   6.787  14.418   9.930
45618SOL    HW238752   6.788  14.281   9.866
45619SOL     OW38753   1.136   3.319   2.623
45619SOL    HW138754   1.105   3.259   2.691
45619SOL    HW238755   1.226   3.293   2.607
45620SOL     OW38756  13.229   2.008   9.743
45620SOL    HW138757  13.224   1.949   9.667
45620SOL    HW238758  13.139   2.019   9.772
45621SOL     OW38759   1.931   0.587   2.206
45621SOL    HW138760   1.951   0.611   2.115
45621SOL    HW238761   2.016   0.581   2.249
45622SOL     OW38762  13.106   9.377  10.544
45622SOL    HW138763  13.163   9.301  10.532
45622SOL    HW238764  13.018   9.344  10.528
45623SOL     OW38765   1.392   0.798  13.642
45623SOL    HW138766   1.342   0.746  13.705
45623SOL    HW238767   1.480   0.760  13.644
45624SOL     OW38768   7.378  13.829  13.530
45624SOL    HW138769   7.377  13.734  13.533
45624SOL    HW238770   7.306  13.852  13.471
45625SOL     OW38771   0.349   3.146   5.994
45625SOL    HW138772   0.293   3.154   5.916
45625SOL    HW238773   0.310   3.074   6.043
45626SOL     OW38774   8.064   2.899   7.746
45626SOL    HW138775   8.067   2.816   7.698
45626SOL    HW238776   7.974   2.904   7.778
45627SOL     OW38777   0.570  14.014  11.204
45627SOL    HW138778   0.496  14.029  11.264
45627SOL    HW238779   0.529  14.007  11.117
45628SOL     OW38780   1.920  11.048   5.626
45628SOL    HW138781   1.902  11.136   5.593
45628SOL    HW238782   1.901  10.990   5.552
45629SOL     OW38783  13.003   5.039  12.334
45629SOL    HW138784  12.995   5.062  12.241
45629SOL    HW238785  13.040   4.951  12.334
45630SOL     OW38786  11.584  11.689  14.626
45630SOL    HW138787  11.616  11.605  14.594
45630SOL    HW238788  11.655  11.750  14.608
45631SOL     OW38789  10.503   3.903   1.224
45631SOL    HW138790  10.502   3.996   1.199
45631SOL    HW238791  10.593   3.875   1.210
45632SOL     OW38792   1.334  12.312   3.842
45632SOL    HW138793   1.248  12.345   3.818
45632SOL    HW238794   1.316  12.241   3.904
45633SOL     OW38795  13.381   3.817   5.906
45633SOL    HW138796  13.463   3.866   5.909
45633SOL    HW238797  13.345   3.837   5.819
45634SOL     OW38798  12.037   3.092   3.374
45634SOL    HW138799  12.046   3.043   3.456
45634SOL    HW238800  11.953   3.137   3.383
45635SOL     OW38801  14.836   5.756  12.206
45635SOL    HW138802  14.845   5.766  12.111
45635SOL    HW238803  14.861   5.841  12.242
45636SOL     OW38804   5.596   3.212  10.980
45636SOL    HW138805   5.534   3.284  10.991
45636SOL    HW238806   5.621   3.188  11.069
45637SOL     OW38807   8.215   5.687   8.133
45637SOL    HW138808   8.241   5.604   8.091
45637SOL    HW238809   8.259   5.754   8.082
45638SOL     OW38810  10.655   1.377   7.574
45638SOL    HW138811  10.709   1.455   7.564
45638SOL    HW238812  10.665   1.352   7.666
45639SOL     OW38813   3.566   8.616   3.966
45639SOL    HW138814   3.656   8.585   3.969
45639SOL    HW238815   3.546   8.640   4.056
45640SOL     OW38816   8.262   2.439   8.672
45640SOL    HW138817   8.257   2.352   8.633
45640SOL    HW238818   8.326   2.430   8.743
45641SOL     OW38819   0.200  12.975   9.632
45641SOL    HW138820   0.168  12.994   9.721
45641SOL    HW238821   0.175  13.052   9.581
45642SOL     OW38822  14.714  13.920  11.789
45642SOL    HW138823  14.677  13.831  11.786
45642SOL    HW238824  14.778  13.917  11.861
45643SOL     OW38825   8.819   0.496   7.599
45643SOL    HW138826   8.890   0.551   7.633
45643SOL    HW238827   8.823   0.508   7.505
45644SOL     OW38828   4.334  11.907   4.334
45644SOL    HW138829   4.263  11.848   4.311
45644SOL    HW238830   4.291  11.990   4.355
45645SOL     OW38831   8.423  11.833   0.326
45645SOL    HW138832   8.364  11.853   0.399
45645SOL    HW238833   8.387  11.881   0.252
45646SOL     OW38834   9.310   2.703  10.157
45646SOL    HW138835   9.264   2.775  10.116
45646SOL    HW238836   9.295   2.628  10.099
45647SOL     OW38837   8.160   7.570   0.460
45647SOL    HW138838   8.149   7.624   0.382
45647SOL    HW238839   8.241   7.522   0.444
45648SOL     OW38840   2.789   8.250   7.818
45648SOL    HW138841   2.705   8.280   7.853
45648SOL    HW238842   2.774   8.240   7.724
45649SOL     OW38843   5.989  11.261   5.548
45649SOL    HW138844   5.913  11.214   5.584
45649SOL    HW238845   6.033  11.196   5.493
45650SOL     OW38846   1.914   5.044   9.898
45650SOL    HW138847   1.834   5.082   9.933
45650SOL    HW238848   1.962   5.119   9.862
45651SOL     OW38849   9.788   7.358   1.505
45651SOL    HW138850   9.698   7.365   1.475
45651SOL    HW238851   9.782   7.314   1.590
45652SOL     OW38852   6.730  14.650   8.796
45652SOL    HW138853   6.713  14.743   8.814
45652SOL    HW238854   6.669  14.629   8.725
45653SOL     OW38855   1.371  14.865   0.308
45653SOL    HW138856   1.354   0.073   0.346
45653SOL    HW238857   1.464  14.849   0.326
45654SOL     OW38858   1.411   9.392   7.823
45654SOL    HW138859   1.364   9.424   7.746
45654SOL    HW238860   1.470   9.324   7.789
45655SOL     OW38861  12.050   5.221   3.782
45655SOL    HW138862  12.029   5.148   3.724
45655SOL    HW238863  12.012   5.298   3.739
45656SOL     OW38864   4.706   6.073   1.113
45656SOL    HW138865   4.717   6.167   1.125
45656SOL    HW238866   4.670   6.041   1.196
45657SOL     OW38867  11.442   3.488  11.169
45657SOL    HW138868  11.486   3.504  11.086
45657SOL    HW238869  11.437   3.392  11.176
45658SOL     OW38870   9.850   9.534  10.333
45658SOL    HW138871   9.780   9.522  10.397
45658SOL    HW238872   9.819   9.607  10.279
45659SOL     OW38873   6.875   8.813  11.304
45659SOL    HW138874   6.851   8.877  11.237
45659SOL    HW238875   6.894   8.733  11.255
45660SOL     OW38876   8.689   3.250   5.850
45660SOL    HW138877   8.775   3.223   5.818
45660SOL    HW238878   8.699   3.343   5.868
45661SOL     OW38879  12.626   8.934   8.294
45661SOL    HW138880  12.695   8.885   8.250
45661SOL    HW238881  12.671   9.009   8.335
45662SOL     OW38882   1.880   3.835   0.940
45662SOL    HW138883   1.823   3.890   0.887
45662SOL    HW238884   1.822   3.796   1.006
45663SOL     OW38885   4.303   1.839  13.841
45663SOL    HW138886   4.245   1.774  13.801
45663SOL    HW238887   4.386   1.830  13.793
45664SOL     OW38888  10.798   5.110   9.288
45664SOL    HW138889  10.780   5.174   9.219
45664SOL    HW238890  10.823   5.031   9.240
45665SOL     OW38891   6.918   5.883   8.770
45665SOL    HW138892   6.867   5.947   8.819
45665SOL    HW238893   6.856   5.813   8.750
45666SOL     OW38894   9.187   4.704   1.934
45666SOL    HW138895   9.230   4.662   2.009
45666SOL    HW238896   9.252   4.767   1.901
45667SOL     OW38897  13.685   1.244   1.158
45667SOL    HW138898  13.669   1.229   1.065
45667SOL    HW238899  13.750   1.178   1.183
45668SOL     OW38900   1.944   3.351  11.935
45668SOL    HW138901   2.010   3.282  11.928
45668SOL    HW238902   1.867   3.316  11.889
45669SOL     OW38903   0.226  13.088  12.258
45669SOL    HW138904   0.185  13.169  12.286
45669SOL    HW238905   0.217  13.087  12.163
45670SOL     OW38906  13.110   5.438   4.710
45670SOL    HW138907  13.185   5.433   4.651
45670SOL    HW238908  13.034   5.419   4.655
45671SOL     OW38909   6.642  10.961   0.115
45671SOL    HW138910   6.606  10.952   0.203
45671SOL    HW238911   6.737  10.963   0.128
45672SOL     OW38912   7.177   7.772  10.433
45672SOL    HW138913   7.167   7.751  10.340
45672SOL    HW238914   7.149   7.693  10.479
45673SOL     OW38915   4.332   4.259   7.458
45673SOL    HW138916   4.273   4.188   7.482
45673SOL    HW238917   4.420   4.220   7.460
45674SOL     OW38918   9.801   8.518   0.824
45674SOL    HW138919   9.734   8.525   0.893
45674SOL    HW238920   9.752   8.522   0.742
45675SOL     OW38921  14.515  13.092   2.943
45675SOL    HW138922  14.484  13.152   2.875
45675SOL    HW238923  14.533  13.149   3.018
45676SOL     OW38924   2.452   7.781   4.662
45676SOL    HW138925   2.449   7.739   4.576
45676SOL    HW238926   2.521   7.846   4.653
45677SOL     OW38927  10.137  11.238   3.864
45677SOL    HW138928  10.065  11.229   3.802
45677SOL    HW238929  10.179  11.152   3.865
45678SOL     OW38930   3.269  11.081   1.308
45678SOL    HW138931   3.324  11.098   1.385
45678SOL    HW238932   3.183  11.062   1.344
45679SOL     OW38933  12.167  14.809   2.297
45679SOL    HW138934  12.208  14.754   2.230
45679SOL    HW238935  12.220  14.795   2.375
45680SOL     OW38936   5.174   7.785   3.230
45680SOL    HW138937   5.151   7.868   3.186
45680SOL    HW238938   5.265   7.769   3.205
45681SOL     OW38939   2.869  11.080   0.962
45681SOL    HW138940   2.949  11.127   0.938
45681SOL    HW238941   2.852  11.022   0.888
45682SOL     OW38942  10.250   0.509   4.270
45682SOL    HW138943  10.261   0.589   4.322
45682SOL    HW238944  10.165   0.474   4.297
45683SOL     OW38945  12.851   8.202   9.460
45683SOL    HW138946  12.868   8.247   9.543
45683SOL    HW238947  12.896   8.118   9.469
45684SOL     OW38948   9.336   2.137  10.676
45684SOL    HW138949   9.397   2.097  10.737
45684SOL    HW238950   9.373   2.223  10.658
45685SOL     OW38951   9.876   5.809   6.019
45685SOL    HW138952   9.871   5.727   6.068
45685SOL    HW238953   9.793   5.852   6.037
45686SOL     OW38954   7.233   8.511   7.066
45686SOL    HW138955   7.207   8.478   7.151
45686SOL    HW238956   7.328   8.500   7.063
45687SOL     OW38957   2.821  11.470   6.345
45687SOL    HW138958   2.893  11.520   6.305
45687SOL    HW238959   2.779  11.426   6.272
45688SOL     OW38960  12.942  10.094  10.940
45688SOL    HW138961  12.896  10.012  10.924
45688SOL    HW238962  12.918  10.149  10.866
45689SOL     OW38963   2.848  13.091  13.336
45689SOL    HW138964   2.935  13.097  13.375
45689SOL    HW238965   2.837  12.998  13.318
45690SOL     OW38966   7.386  10.680   4.170
45690SOL    HW138967   7.364  10.587   4.161
45690SOL    HW238968   7.448  10.682   4.243
45691SOL     OW38969   9.733   5.376   7.767
45691SOL    HW138970   9.786   5.323   7.707
45691SOL    HW238971   9.786   5.383   7.846
45692SOL     OW38972  12.604   0.272   5.130
45692SOL    HW138973  12.532   0.334   5.136
45692SOL    HW238974  12.671   0.307   5.189
45693SOL     OW38975  14.248  10.741   6.681
45693SOL    HW138976  14.272  10.817   6.627
45693SOL    HW238977  14.161  10.762   6.715
45694SOL     OW38978  11.750   3.506  13.789
45694SOL    HW138979  11.658   3.486  13.805
45694SOL    HW238980  11.781   3.546  13.871
45695SOL     OW38981   7.131   0.665  13.238
45695SOL    HW138982   7.126   0.570  13.232
45695SOL    HW238983   7.219   0.683  13.273
45696SOL     OW38984   7.363  11.785   8.659
45696SOL    HW138985   7.277  11.784   8.702
45696SOL    HW238986   7.348  11.833   8.577
45697SOL     OW38987  12.511  12.902   4.412
45697SOL    HW138988  12.595  12.918   4.454
45697SOL    HW238989  12.453  12.875   4.483
45698SOL     OW38990   0.297   1.656  14.628
45698SOL    HW138991   0.261   1.719  14.690
45698SOL    HW238992   0.291   1.700  14.543
45699SOL     OW38993   1.577   2.066   1.518
45699SOL    HW138994   1.585   2.012   1.597
45699SOL    HW238995   1.541   2.007   1.452
45700SOL     OW38996   1.455   7.057  10.656
45700SOL    HW138997   1.484   7.141  10.690
45700SOL    HW238998   1.443   7.072  10.562
45701SOL     OW38999  10.332   5.337  11.886
45701SOL    HW139000  10.404   5.283  11.851
45701SOL    HW239001  10.369   5.425  11.890
45702SOL     OW39002   4.541   8.278   4.763
45702SOL    HW139003   4.605   8.285   4.693
45702SOL    HW239004   4.458   8.263   4.718
45703SOL     OW39005   4.266   9.662   8.874
45703SOL    HW139006   4.319   9.739   8.896
45703SOL    HW239007   4.182   9.678   8.917
45704SOL     OW39008   8.976   3.433  11.887
45704SOL    HW139009   8.892   3.472  11.908
45704SOL    HW239010   8.961   3.386  11.805
45705SOL     OW39011   1.725   9.890   0.710
45705SOL    HW139012   1.726   9.863   0.618
45705SOL    HW239013   1.728   9.986   0.706
45706SOL     OW39014   3.484   7.848   1.280
45706SOL    HW139015   3.394   7.876   1.297
45706SOL    HW239016   3.522   7.838   1.367
45707SOL     OW39017  14.088  11.027   0.069
45707SOL    HW139018  14.085  10.932   0.062
45707SOL    HW239019  14.172  11.052   0.031
45708SOL     OW39020  10.083   5.739  12.821
45708SOL    HW139021  10.136   5.814  12.795
45708SOL    HW239022   9.992   5.770  12.813
45709SOL     OW39023   5.897   2.495   3.864
45709SOL    HW139024   5.840   2.463   3.794
45709SOL    HW239025   5.842   2.491   3.943
45710SOL     OW39026  13.318  13.378  14.462
45710SOL    HW139027  13.389  13.363  14.399
45710SOL    HW239028  13.362  13.411  14.540
45711SOL     OW39029   9.221   8.013  14.454
45711SOL    HW139030   9.236   7.965  14.372
45711SOL    HW239031   9.181   8.095  14.426
45712SOL     OW39032   3.058   3.390  12.021
45712SOL    HW139033   3.119   3.435  11.963
45712SOL    HW239034   3.085   3.416  12.109
45713SOL     OW39035  13.271  11.497  11.637
45713SOL    HW139036  13.219  11.573  11.665
45713SOL    HW239037  13.317  11.527  11.559
45714SOL     OW39038  10.673   3.518   5.014
45714SOL    HW139039  10.641   3.452   4.953
45714SOL    HW239040  10.626   3.598   4.990
45715SOL     OW39041   2.715   3.422   6.839
45715SOL    HW139042   2.660   3.344   6.836
45715SOL    HW239043   2.673   3.478   6.904
45716SOL     OW39044   5.443   3.532   4.582
45716SOL    HW139045   5.408   3.540   4.494
45716SOL    HW239046   5.523   3.585   4.581
45717SOL     OW39047  11.363   1.876  10.942
45717SOL    HW139048  11.357   1.972  10.945
45717SOL    HW239049  11.456   1.858  10.930
45718SOL     OW39050   6.975   9.529   2.269
45718SOL    HW139051   6.999   9.617   2.297
45718SOL    HW239052   6.917   9.542   2.194
45719SOL     OW39053  13.543   3.716  11.866
45719SOL    HW139054  13.487   3.752  11.935
45719SOL    HW239055  13.582   3.792  11.824
45720SOL     OW39056  11.808   6.874   8.634
45720SOL    HW139057  11.868   6.813   8.591
45720SOL    HW239058  11.860   6.914   8.704
45721SOL     OW39059   4.717   4.638  11.620
45721SOL    HW139060   4.774   4.586  11.675
45721SOL    HW239061   4.701   4.718  11.669
45722SOL     OW39062   4.545   9.805   2.130
45722SOL    HW139063   4.521   9.889   2.169
45722SOL    HW239064   4.545   9.743   2.203
45723SOL     OW39065   8.079   6.614   0.817
45723SOL    HW139066   8.152   6.623   0.755
45723SOL    HW239067   8.109   6.660   0.895
45724SOL     OW39068   8.933   8.678  14.609
45724SOL    HW139069   8.964   8.665  14.519
45724SOL    HW239070   8.842   8.706  14.599
45725SOL     OW39071  10.515   8.401   5.183
45725SOL    HW139072  10.586   8.350   5.145
45725SOL    HW239073  10.435   8.361   5.148
45726SOL     OW39074   2.327  10.774   1.890
45726SOL    HW139075   2.364  10.824   1.962
45726SOL    HW239076   2.402  10.730   1.850
45727SOL     OW39077   6.202   3.264   2.739
45727SOL    HW139078   6.172   3.312   2.661
45727SOL    HW239079   6.298   3.269   2.735
45728SOL     OW39080   1.404   3.238  14.061
45728SOL    HW139081   1.402   3.332  14.041
45728SOL    HW239082   1.497   3.216  14.062
45729SOL     OW39083   2.591   1.612  10.142
45729SOL    HW139084   2.514   1.618  10.086
45729SOL    HW239085   2.599   1.699  10.182
45730SOL     OW39086   7.916  10.486   5.961
45730SOL    HW139087   7.891  10.573   5.930
45730SOL    HW239088   7.833  10.446   5.988
45731SOL     OW39089  13.447   0.935   5.597
45731SOL    HW139090  13.390   0.866   5.564
45731SOL    HW239091  13.498   0.963   5.521
45732SOL     OW39092   5.245   0.552   1.355
45732SOL    HW139093   5.187   0.570   1.281
45732SOL    HW239094   5.223   0.462   1.381
45733SOL     OW39095  12.671   9.146  12.838
45733SOL    HW139096  12.629   9.228  12.866
45733SOL    HW239097  12.612   9.109  12.773
45734SOL     OW39098   7.402  11.478   1.606
45734SOL    HW139099   7.362  11.509   1.524
45734SOL    HW239100   7.422  11.558   1.654
45735SOL     OW39101  13.345   8.781  11.108
45735SOL    HW139102  13.321   8.713  11.171
45735SOL    HW239103  13.347   8.736  11.024
45736SOL     OW39104   6.461   4.189  14.003
45736SOL    HW139105   6.399   4.161  14.071
45736SOL    HW239106   6.509   4.261  14.043
45737SOL     OW39107  10.537  10.598  11.059
45737SOL    HW139108  10.573  10.654  11.128
45737SOL    HW239109  10.493  10.658  10.999
45738SOL     OW39110   3.359  14.479   5.241
45738SOL    HW139111   3.320  14.400   5.278
45738SOL    HW239112   3.448  14.454   5.217
45739SOL     OW39113  13.410   7.569   2.857
45739SOL    HW139114  13.361   7.488   2.846
45739SOL    HW239115  13.483   7.545   2.915
45740SOL     OW39116   5.598  12.780   2.032
45740SOL    HW139117   5.652  12.802   1.956
45740SOL    HW239118   5.537  12.713   2.000
45741SOL     OW39119   9.074  13.854   6.057
45741SOL    HW139120   9.129  13.876   6.131
45741SOL    HW239121   9.070  13.758   6.057
45742SOL     OW39122  13.295   8.880  12.712
45742SOL    HW139123  13.240   8.863  12.636
45742SOL    HW239124  13.267   8.966  12.744
45743SOL     OW39125  10.432   2.349   4.123
45743SOL    HW139126  10.338   2.362   4.135
45743SOL    HW239127  10.448   2.260   4.155
45744SOL     OW39128   4.558   5.538   6.477
45744SOL    HW139129   4.561   5.445   6.500
45744SOL    HW239130   4.466   5.555   6.456
45745SOL     OW39131  12.961   6.158   7.987
45745SOL    HW139132  12.988   6.068   7.999
45745SOL    HW239133  12.975   6.175   7.894
45746SOL     OW39134   2.060   7.092   6.478
45746SOL    HW139135   2.112   7.083   6.398
45746SOL    HW239136   1.970   7.103   6.447
45747SOL     OW39137  10.579   9.154   3.461
45747SOL    HW139138  10.640   9.089   3.425
45747SOL    HW239139  10.583   9.227   3.400
45748SOL     OW39140   5.720   8.655  10.589
45748SOL    HW139141   5.650   8.603  10.550
45748SOL    HW239142   5.799   8.603  10.574
45749SOL     OW39143   1.088   7.243   7.294
45749SOL    HW139144   1.149   7.265   7.365
45749SOL    HW239145   1.058   7.328   7.261
45750SOL     OW39146   8.645   0.159   5.624
45750SOL    HW139147   8.595   0.089   5.581
45750SOL    HW239148   8.703   0.112   5.685
45751SOL     OW39149  11.058   3.702   6.925
45751SOL    HW139150  11.136   3.752   6.950
45751SOL    HW239151  11.088   3.646   6.852
45752SOL     OW39152   9.184   5.332  13.485
45752SOL    HW139153   9.093   5.350  13.508
45752SOL    HW239154   9.204   5.249  13.529
45753SOL     OW39155   4.005   5.963   0.362
45753SOL    HW139156   3.960   6.046   0.377
45753SOL    HW239157   3.936   5.901   0.343
45754SOL     OW39158   2.944  13.545   4.482
45754SOL    HW139159   2.963  13.544   4.388
45754SOL    HW239160   3.028  13.527   4.524
45755SOL     OW39161   7.213   8.245   8.020
45755SOL    HW139162   7.286   8.221   8.078
45755SOL    HW239163   7.230   8.337   7.999
45756SOL     OW39164   8.920   0.015  11.976
45756SOL    HW139165   8.975   0.089  12.003
45756SOL    HW239166   8.980  14.834  11.929
45757SOL     OW39167   3.769  14.346   2.910
45757SOL    HW139168   3.826  14.414   2.873
45757SOL    HW239169   3.731  14.386   2.987
45758SOL     OW39170  13.636   6.513   2.779
45758SOL    HW139171  13.678   6.576   2.721
45758SOL    HW239172  13.692   6.510   2.856
45759SOL     OW39173   6.446   4.166  11.394
45759SOL    HW139174   6.458   4.128  11.307
45759SOL    HW239175   6.355   4.149  11.416
45760SOL     OW39176  11.686   5.805   8.322
45760SOL    HW139177  11.630   5.778   8.250
45760SOL    HW239178  11.753   5.737   8.327
45761SOL     OW39179  12.980   2.252  12.177
45761SOL    HW139180  12.949   2.329  12.129
45761SOL    HW239181  13.075   2.265  12.185
45762SOL     OW39182   9.417   0.644   0.223
45762SOL    HW139183   9.392   0.587   0.151
45762SOL    HW239184   9.399   0.732   0.191
45763SOL     OW39185  13.144   8.328   0.027
45763SOL    HW139186  13.169   8.246   0.070
45763SOL    HW239187  13.109   8.301  14.819
45764SOL     OW39188   6.519   5.210   1.904
45764SOL    HW139189   6.580   5.186   1.834
45764SOL    HW239190   6.573   5.219   1.982
45765SOL     OW39191   6.232   9.325   0.738
45765SOL    HW139192   6.282   9.260   0.688
45765SOL    HW239193   6.270   9.323   0.825
45766SOL     OW39194  12.069  11.796  10.868
45766SOL    HW139195  12.086  11.759  10.954
45766SOL    HW239196  12.012  11.871  10.885
45767SOL     OW39197   0.313   5.661   1.788
45767SOL    HW139198   0.263   5.725   1.840
45767SOL    HW239199   0.325   5.702   1.703
45768SOL     OW39200   5.752   4.517  10.903
45768SOL    HW139201   5.761   4.448  10.837
45768SOL    HW239202   5.775   4.598  10.857
45769SOL     OW39203  10.115   7.161   1.733
45769SOL    HW139204  10.080   7.248   1.752
45769SOL    HW239205  10.142   7.166   1.642
45770SOL     OW39206   1.731  14.832   8.741
45770SOL    HW139207   1.787  14.809   8.667
45770SOL    HW239208   1.761   0.041   8.768
45771SOL     OW39209  10.283  13.375  14.657
45771SOL    HW139210  10.248  13.287  14.644
45771SOL    HW239211  10.211  13.433  14.631
45772SOL     OW39212   4.762   4.878  12.572
45772SOL    HW139213   4.781   4.943  12.505
45772SOL    HW239214   4.789   4.795  12.533
45773SOL     OW39215   9.733   6.439  12.314
45773SOL    HW139216   9.758   6.521  12.356
45773SOL    HW239217   9.658   6.462  12.259
45774SOL     OW39218  14.005   0.583   5.340
45774SOL    HW139219  14.086   0.533   5.331
45774SOL    HW239220  13.986   0.580   5.434
45775SOL     OW39221   7.010  11.258  14.056
45775SOL    HW139222   7.081  11.201  14.028
45775SOL    HW239223   6.934  11.199  14.064
45776SOL     OW39224   3.816   1.007   2.685
45776SOL    HW139225   3.864   0.926   2.666
45776SOL    HW239226   3.884   1.070   2.708
45777SOL     OW39227   8.464   3.728   5.885
45777SOL    HW139228   8.468   3.665   5.957
45777SOL    HW239229   8.460   3.813   5.928
45778SOL     OW39230   5.362   3.215  12.907
45778SOL    HW139231   5.397   3.290  12.860
45778SOL    HW239232   5.429   3.193  12.971
45779SOL     OW39233   0.518   5.743   0.943
45779SOL    HW139234   0.610   5.756   0.965
45779SOL    HW239235   0.506   5.648   0.945
45780SOL     OW39236   5.184  12.702  13.509
45780SOL    HW139237   5.137  12.776  13.547
45780SOL    HW239238   5.153  12.626  13.559
45781SOL     OW39239  11.344   0.807  12.044
45781SOL    HW139240  11.268   0.781  11.993
45781SOL    HW239241  11.319   0.794  12.135
45782SOL     OW39242   1.169  11.817   3.707
45782SOL    HW139243   1.101  11.883   3.719
45782SOL    HW239244   1.251  11.867   3.708
45783SOL     OW39245   1.529  14.691   7.459
45783SOL    HW139246   1.448  14.743   7.455
45783SOL    HW239247   1.512  14.615   7.404
45784SOL     OW39248   1.129   7.773   7.529
45784SOL    HW139249   1.203   7.773   7.590
45784SOL    HW239250   1.052   7.758   7.583
45785SOL     OW39251  10.812   4.859   1.315
45785SOL    HW139252  10.839   4.852   1.224
45785SOL    HW239253  10.717   4.852   1.313
45786SOL     OW39254   6.473   8.881  11.222
45786SOL    HW139255   6.538   8.945  11.193
45786SOL    HW239256   6.441   8.914  11.306
45787SOL     OW39257   1.691   2.942  13.076
45787SOL    HW139258   1.781   2.970  13.062
45787SOL    HW239259   1.642   3.024  13.083
45788SOL     OW39260  14.657   4.675   9.967
45788SOL    HW139261  14.664   4.755   9.915
45788SOL    HW239262  14.747   4.653   9.991
45789SOL     OW39263   0.524   7.458   1.842
45789SOL    HW139264   0.440   7.495   1.814
45789SOL    HW239265   0.590   7.518   1.808
45790SOL     OW39266   4.142   8.804   1.184
45790SOL    HW139267   4.222   8.801   1.236
45790SOL    HW239268   4.105   8.716   1.192
45791SOL     OW39269   9.052  13.983   5.185
45791SOL    HW139270   8.976  13.993   5.242
45791SOL    HW239271   9.053  13.890   5.161
45792SOL     OW39272   2.809   7.333   1.014
45792SOL    HW139273   2.822   7.261   1.075
45792SOL    HW239274   2.813   7.292   0.927
45793SOL     OW39275  10.217  12.575   9.278
45793SOL    HW139276  10.237  12.514   9.207
45793SOL    HW239277  10.180  12.520   9.347
45794SOL     OW39278   0.064   8.783   1.549
45794SOL    HW139279   0.118   8.818   1.478
45794SOL    HW239280   0.090   8.691   1.556
45795SOL     OW39281  13.103   8.597   4.169
45795SOL    HW139282  13.172   8.531   4.177
45795SOL    HW239283  13.034   8.568   4.228
45796SOL     OW39284  11.845   9.380  14.023
45796SOL    HW139285  11.761   9.339  14.000
45796SOL    HW239286  11.826   9.474  14.024
45797SOL     OW39287   5.577  13.138  11.728
45797SOL    HW139288   5.523  13.173  11.657
45797SOL    HW239289   5.519  13.080  11.776
45798SOL     OW39290   7.447   2.237   6.413
45798SOL    HW139291   7.405   2.232   6.327
45798SOL    HW239292   7.382   2.282   6.469
45799SOL     OW39293  11.733   1.501  13.329
45799SOL    HW139294  11.680   1.569  13.287
45799SOL    HW239295  11.704   1.500  13.420
45800SOL     OW39296  10.663   6.720   4.347
45800SOL    HW139297  10.575   6.758   4.348
45800SOL    HW239298  10.649   6.628   4.370
45801SOL     OW39299   5.167  13.365   9.567
45801SOL    HW139300   5.102  13.295   9.566
45801SOL    HW239301   5.191  13.377   9.475
45802SOL     OW39302   1.630   1.238   3.351
45802SOL    HW139303   1.632   1.177   3.425
45802SOL    HW239304   1.577   1.311   3.382
45803SOL     OW39305  12.993  10.999  13.424
45803SOL    HW139306  12.975  10.952  13.505
45803SOL    HW239307  13.054  11.068  13.449
45804SOL     OW39308   5.734   3.892  12.848
45804SOL    HW139309   5.642   3.879  12.869
45804SOL    HW239310   5.745   3.987  12.845
45805SOL     OW39311  14.445   2.595   8.572
45805SOL    HW139312  14.361   2.612   8.613
45805SOL    HW239313  14.505   2.578   8.644
45806SOL     OW39314   3.693   5.330  13.344
45806SOL    HW139315   3.612   5.341  13.295
45806SOL    HW239316   3.730   5.419  13.351
45807SOL     OW39317   6.762   0.545   8.906
45807SOL    HW139318   6.854   0.546   8.930
45807SOL    HW239319   6.727   0.466   8.948
45808SOL     OW39320   7.614  12.399   8.918
45808SOL    HW139321   7.637  12.460   8.988
45808SOL    HW239322   7.557  12.449   8.860
45809SOL     OW39323  13.842  12.882   6.829
45809SOL    HW139324  13.833  12.881   6.734
45809SOL    HW239325  13.934  12.862   6.845
45810SOL     OW39326   5.770   6.304   7.392
45810SOL    HW139327   5.862   6.325   7.408
45810SOL    HW239328   5.728   6.311   7.478
45811SOL     OW39329   3.534  11.091  12.787
45811SOL    HW139330   3.527  11.082  12.692
45811SOL    HW239331   3.508  11.182  12.804
45812SOL     OW39332   9.856   0.535   7.429
45812SOL    HW139333   9.780   0.594   7.426
45812SOL    HW239334   9.853   0.488   7.346
45813SOL     OW39335  13.269   2.841  11.916
45813SOL    HW139336  13.239   2.892  11.841
45813SOL    HW239337  13.343   2.790  11.883
45814SOL     OW39338  11.873  13.466  14.370
45814SOL    HW139339  11.937  13.472  14.441
45814SOL    HW239340  11.914  13.407  14.307
45815SOL     OW39341   3.544   8.644  12.746
45815SOL    HW139342   3.530   8.712  12.679
45815SOL    HW239343   3.592   8.575  12.700
45816SOL     OW39344  11.960   4.951   8.380
45816SOL    HW139345  12.030   4.885   8.382
45816SOL    HW239346  11.886   4.906   8.340
45817SOL     OW39347   3.255   9.685   0.149
45817SOL    HW139348   3.271   9.648   0.062
45817SOL    HW239349   3.272   9.613   0.209
45818SOL     OW39350   2.663  13.843   9.038
45818SOL    HW139351   2.632  13.930   9.013
45818SOL    HW239352   2.715  13.814   8.963
45819SOL     OW39353   8.172  13.141   8.404
45819SOL    HW139354   8.218  13.134   8.320
45819SOL    HW239355   8.223  13.087   8.464
45820SOL     OW39356   2.556   0.700   8.976
45820SOL    HW139357   2.591   0.764   8.913
45820SOL    HW239358   2.508   0.753   9.039
45821SOL     OW39359   8.210  12.402   1.277
45821SOL    HW139360   8.270  12.395   1.202
45821SOL    HW239361   8.247  12.472   1.331
45822SOL     OW39362  13.705   2.164   4.384
45822SOL    HW139363  13.697   2.141   4.477
45822SOL    HW239364  13.797   2.186   4.372
45823SOL     OW39365   1.905   6.771   2.745
45823SOL    HW139366   1.836   6.732   2.691
45823SOL    HW239367   1.987   6.739   2.706
45824SOL     OW39368   3.531   6.277  11.625
45824SOL    HW139369   3.606   6.220  11.607
45824SOL    HW239370   3.557   6.326  11.703
45825SOL     OW39371   8.043  13.726  14.067
45825SOL    HW139372   8.004  13.647  14.104
45825SOL    HW239373   8.126  13.696  14.030
45826SOL     OW39374  10.247   2.563   6.503
45826SOL    HW139375  10.185   2.631   6.476
45826SOL    HW239376  10.274   2.521   6.421
45827SOL     OW39377  12.852  14.200   8.000
45827SOL    HW139378  12.838  14.107   8.018
45827SOL    HW239379  12.944  14.215   8.020
45828SOL     OW39380   2.787   3.503   2.099
45828SOL    HW139381   2.750   3.573   2.154
45828SOL    HW239382   2.711   3.453   2.070
45829SOL     OW39383  10.897  10.023   1.568
45829SOL    HW139384  10.804  10.001   1.558
45829SOL    HW239385  10.942   9.941   1.546
45830SOL     OW39386   0.725   4.181   4.704
45830SOL    HW139387   0.797   4.242   4.720
45830SOL    HW239388   0.656   4.236   4.666
45831SOL     OW39389   5.649   5.215   9.862
45831SOL    HW139390   5.609   5.131   9.884
45831SOL    HW239391   5.598   5.280   9.911
45832SOL     OW39392  12.834   0.435   2.823
45832SOL    HW139393  12.917   0.482   2.836
45832SOL    HW239394  12.799   0.470   2.741
45833SOL     OW39395  11.999   9.005   2.639
45833SOL    HW139396  12.091   8.980   2.634
45833SOL    HW239397  11.977   9.036   2.551
45834SOL     OW39398   9.757   6.783   3.474
45834SOL    HW139399   9.843   6.762   3.510
45834SOL    HW239400   9.697   6.722   3.516
45835SOL     OW39401  13.752   5.923  11.276
45835SOL    HW139402  13.710   6.008  11.260
45835SOL    HW239403  13.718   5.895  11.360
45836SOL     OW39404   5.235   5.303  11.208
45836SOL    HW139405   5.255   5.368  11.275
45836SOL    HW239406   5.147   5.271  11.231
45837SOL     OW39407   8.057  13.148   4.730
45837SOL    HW139408   8.040  13.214   4.662
45837SOL    HW239409   8.048  13.064   4.685
45838SOL     OW39410   3.529   5.338  14.245
45838SOL    HW139411   3.457   5.333  14.182
45838SOL    HW239412   3.495   5.391  14.317
45839SOL     OW39413   1.103  14.872   3.818
45839SOL    HW139414   1.036  14.809   3.845
45839SOL    HW239415   1.064   0.042   3.745
45840SOL     OW39416  11.593   6.336   8.735
45840SOL    HW139417  11.513   6.387   8.724
45840SOL    HW239418  11.648   6.363   8.662
45841SOL     OW39419   7.702   4.292   1.818
45841SOL    HW139420   7.674   4.223   1.879
45841SOL    HW239421   7.689   4.373   1.866
45842SOL     OW39422   8.991   2.605   9.842
45842SOL    HW139423   8.930   2.542   9.804
45842SOL    HW239424   8.935   2.668   9.887
45843SOL     OW39425   6.614   1.928   9.598
45843SOL    HW139426   6.660   1.916   9.681
45843SOL    HW239427   6.577   1.842   9.578
45844SOL     OW39428  13.667   6.813   1.996
45844SOL    HW139429  13.753   6.842   2.027
45844SOL    HW239430  13.674   6.816   1.901
45845SOL     OW39431   7.772   9.919   4.096
45845SOL    HW139432   7.685   9.951   4.072
45845SOL    HW239433   7.784   9.950   4.186
45846SOL     OW39434  11.207  14.462  12.544
45846SOL    HW139435  11.147  14.398  12.582
45846SOL    HW239436  11.199  14.538  12.601
45847SOL     OW39437  11.862  13.092   7.041
45847SOL    HW139438  11.838  13.128   7.126
45847SOL    HW239439  11.817  13.147   6.977
45848SOL     OW39440   9.611   3.460  10.212
45848SOL    HW139441   9.637   3.402  10.141
45848SOL    HW239442   9.578   3.539  10.169
45849SOL     OW39443   3.539   8.729  13.566
45849SOL    HW139444   3.601   8.771  13.507
45849SOL    HW239445   3.455   8.771  13.545
45850SOL     OW39446   1.608   2.469   2.856
45850SOL    HW139447   1.558   2.416   2.919
45850SOL    HW239448   1.670   2.408   2.817
45851SOL     OW39449  12.504   0.905   0.323
45851SOL    HW139450  12.445   0.949   0.261
45851SOL    HW239451  12.567   0.972   0.349
45852SOL     OW39452   8.392  13.974  13.364
45852SOL    HW139453   8.387  13.999  13.456
45852SOL    HW239454   8.432  14.050  13.321
45853SOL     OW39455   6.261   2.395   5.546
45853SOL    HW139456   6.305   2.329   5.493
45853SOL    HW239457   6.313   2.475   5.534
45854SOL     OW39458  10.763  10.016   0.376
45854SOL    HW139459  10.756   9.967   0.294
45854SOL    HW239460  10.672  10.034   0.401
45855SOL     OW39461   6.994   9.086  14.299
45855SOL    HW139462   6.904   9.054  14.300
45855SOL    HW239463   7.045   9.013  14.264
45856SOL     OW39464   7.266  14.138   0.746
45856SOL    HW139465   7.307  14.147   0.832
45856SOL    HW239466   7.195  14.203   0.746
45857SOL     OW39467   4.852  13.323   8.046
45857SOL    HW139468   4.810  13.344   8.129
45857SOL    HW239469   4.942  13.300   8.070
45858SOL     OW39470   6.623   4.463   1.575
45858SOL    HW139471   6.599   4.550   1.541
45858SOL    HW239472   6.678   4.424   1.507
45859SOL     OW39473   7.338   2.678   7.388
45859SOL    HW139474   7.433   2.661   7.390
45859SOL    HW239475   7.321   2.732   7.464
45860SOL     OW39476   1.777  13.409   8.133
45860SOL    HW139477   1.806  13.377   8.218
45860SOL    HW239478   1.713  13.477   8.153
45861SOL     OW39479   8.582   1.089  11.321
45861SOL    HW139480   8.505   1.047  11.357
45861SOL    HW239481   8.640   1.017  11.296
45862SOL     OW39482   9.950   6.732  10.896
45862SOL    HW139483   9.950   6.789  10.819
45862SOL    HW239484   9.858   6.708  10.907
45863SOL     OW39485   1.764   3.370  13.550
45863SOL    HW139486   1.777   3.449  13.499
45863SOL    HW239487   1.703   3.395  13.619
45864SOL     OW39488  10.879   9.280   3.937
45864SOL    HW139489  10.842   9.239   3.859
45864SOL    HW239490  10.872   9.374   3.921
45865SOL     OW39491  12.674   2.852   6.264
45865SOL    HW139492  12.727   2.871   6.187
45865SOL    HW239493  12.650   2.938   6.298
45866SOL     OW39494  13.586   2.307  13.249
45866SOL    HW139495  13.569   2.401  13.252
45866SOL    HW239496  13.527   2.274  13.181
45867SOL     OW39497   3.439   6.743   8.945
45867SOL    HW139498   3.450   6.703   8.859
45867SOL    HW239499   3.513   6.804   8.953
45868SOL     OW39500   8.906  14.865  14.452
45868SOL    HW139501   8.905  14.849  14.546
45868SOL    HW239502   8.940   0.076  14.443
45869SOL     OW39503   1.436  14.022   3.121
45869SOL    HW139504   1.491  14.094   3.152
45869SOL    HW239505   1.410  13.977   3.201
45870SOL     OW39506   5.138   0.760  10.239
45870SOL    HW139507   5.191   0.778  10.316
45870SOL    HW239508   5.129   0.664  10.238
45871SOL     OW39509  12.297  10.636   5.187
45871SOL    HW139510  12.246  10.558   5.208
45871SOL    HW239511  12.233  10.697   5.150
45872SOL     OW39512  14.710   7.297   8.060
45872SOL    HW139513  14.780   7.338   8.112
45872SOL    HW239514  14.743   7.208   8.043
45873SOL     OW39515   3.170   7.824   4.412
45873SOL    HW139516   3.258   7.843   4.444
45873SOL    HW239517   3.135   7.908   4.384
45874SOL     OW39518   8.230  10.197   1.138
45874SOL    HW139519   8.286  10.120   1.130
45874SOL    HW239520   8.163  10.185   1.072
45875SOL     OW39521   2.793  12.328  13.313
45875SOL    HW139522   2.795  12.260  13.246
45875SOL    HW239523   2.883  12.362  13.316
45876SOL     OW39524   1.726   4.172   1.016
45876SOL    HW139525   1.809   4.207   0.985
45876SOL    HW239526   1.701   4.107   0.951
45877SOL     OW39527   3.824   8.415   4.986
45877SOL    HW139528   3.847   8.480   4.919
45877SOL    HW239529   3.854   8.332   4.950
45878SOL     OW39530   9.337   8.428   6.619
45878SOL    HW139531   9.274   8.360   6.640
45878SOL    HW239532   9.410   8.381   6.577
45879SOL     OW39533   5.594   4.668   9.007
45879SOL    HW139534   5.649   4.738   9.041
45879SOL    HW239535   5.506   4.706   9.003
45880SOL     OW39536   1.710   3.088  10.556
45880SOL    HW139537   1.756   3.102  10.473
45880SOL    HW239538   1.734   2.999  10.580
45881SOL     OW39539  14.662   6.070   4.043
45881SOL    HW139540  14.580   6.026   4.022
45881SOL    HW239541  14.700   6.017   4.113
45882SOL     OW39542   2.524   5.975   6.166
45882SOL    HW139543   2.462   5.968   6.239
45882SOL    HW239544   2.517   6.066   6.138
45883SOL     OW39545   2.339   4.582   9.857
45883SOL    HW139546   2.395   4.543   9.790
45883SOL    HW239547   2.386   4.661   9.884
45884SOL     OW39548   7.768   0.010   8.832
45884SOL    HW139549   7.688   0.062   8.818
45884SOL    HW239550   7.764  14.820   8.765
45885SOL     OW39551  13.103  13.988  10.716
45885SOL    HW139552  13.133  14.071  10.678
45885SOL    HW239553  13.100  13.927  10.642
45886SOL     OW39554  10.381   2.120   8.966
45886SOL    HW139555  10.392   2.137   8.872
45886SOL    HW239556  10.351   2.029   8.971
45887SOL     OW39557  10.392  14.711   2.323
45887SOL    HW139558  10.389  14.722   2.228
45887SOL    HW239559  10.400  14.801   2.357
45888SOL     OW39560   9.673   6.368   2.674
45888SOL    HW139561   9.579   6.351   2.666
45888SOL    HW239562   9.679   6.439   2.738
45889SOL     OW39563   1.351  12.377   5.086
45889SOL    HW139564   1.380  12.299   5.133
45889SOL    HW239565   1.325  12.344   5.000
45890SOL     OW39566   5.327  13.819   4.496
45890SOL    HW139567   5.352  13.863   4.577
45890SOL    HW239568   5.238  13.849   4.479
45891SOL     OW39569   5.166  10.231   3.732
45891SOL    HW139570   5.102  10.173   3.773
45891SOL    HW239571   5.184  10.192   3.647
45892SOL     OW39572   2.386   0.619   4.966
45892SOL    HW139573   2.409   0.682   5.034
45892SOL    HW239574   2.392   0.534   5.010
45893SOL     OW39575   5.217   6.935   0.984
45893SOL    HW139576   5.275   6.987   1.041
45893SOL    HW239577   5.210   6.850   1.029
45894SOL     OW39578   7.949  13.970   8.095
45894SOL    HW139579   7.994  13.944   8.175
45894SOL    HW239580   8.018  13.977   8.029
45895SOL     OW39581   3.590  11.362  12.826
45895SOL    HW139582   3.560  11.408  12.747
45895SOL    HW239583   3.584  11.427  12.896
45896SOL     OW39584   3.655   2.972   5.767
45896SOL    HW139585   3.690   3.002   5.683
45896SOL    HW239586   3.630   2.881   5.751
45897SOL     OW39587   6.057   6.619   2.719
45897SOL    HW139588   6.141   6.632   2.675
45897SOL    HW239589   6.056   6.525   2.740
45898SOL     OW39590   6.049   7.014  10.062
45898SOL    HW139591   6.130   7.014  10.011
45898SOL    HW239592   6.018   7.104  10.059
45899SOL     OW39593  10.070  14.840  10.405
45899SOL    HW139594  10.005  14.780  10.441
45899SOL    HW239595  10.154  14.798  10.424
45900SOL     OW39596   3.839   8.735  13.022
45900SOL    HW139597   3.783   8.793  12.970
45900SOL    HW239598   3.906   8.794  13.058
45901SOL     OW39599  12.958   5.255   6.526
45901SOL    HW139600  12.909   5.321   6.576
45901SOL    HW239601  12.890   5.205   6.480
45902SOL     OW39602  13.464   3.888   8.591
45902SOL    HW139603  13.462   3.984   8.586
45902SOL    HW239604  13.506   3.869   8.675
45903SOL     OW39605   9.434   8.531   3.759
45903SOL    HW139606   9.483   8.449   3.762
45903SOL    HW239607   9.343   8.506   3.771
45904SOL     OW39608  12.397   4.696   7.804
45904SOL    HW139609  12.404   4.787   7.773
45904SOL    HW239610  12.432   4.698   7.892
45905SOL     OW39611   6.240   8.102  12.267
45905SOL    HW139612   6.145   8.089  12.274
45905SOL    HW239613   6.249   8.182  12.215
45906SOL     OW39614   0.237   1.792   0.345
45906SOL    HW139615   0.284   1.743   0.412
45906SOL    HW239616   0.155   1.817   0.387
45907SOL     OW39617   1.108  14.537  12.632
45907SOL    HW139618   1.036  14.600  12.629
45907SOL    HW239619   1.103  14.492  12.547
45908SOL     OW39620   5.283   9.881  14.304
45908SOL    HW139621   5.307   9.793  14.275
45908SOL    HW239622   5.361   9.934  14.289
45909SOL     OW39623  13.597   6.035   6.019
45909SOL    HW139624  13.531   6.064   6.082
45909SOL    HW239625  13.560   5.957   5.979
45910SOL     OW39626   9.763   7.628   3.782
45910SOL    HW139627   9.854   7.657   3.774
45910SOL    HW239628   9.726   7.684   3.850
45911SOL     OW39629   8.565  11.955  14.636
45911SOL    HW139630   8.643  11.900  14.634
45911SOL    HW239631   8.574  12.008  14.715
45912SOL     OW39632  11.799   0.564   1.031
45912SOL    HW139633  11.813   0.568   0.936
45912SOL    HW239634  11.838   0.481   1.058
45913SOL     OW39635   0.019   9.193   0.527
45913SOL    HW139636  14.818   9.147   0.501
45913SOL    HW239637   0.072   9.127   0.572
45914SOL     OW39638   1.598   5.269   9.344
45914SOL    HW139639   1.584   5.273   9.439
45914SOL    HW239640   1.678   5.320   9.330
45915SOL     OW39641  11.519   8.701   0.943
45915SOL    HW139642  11.493   8.651   0.865
45915SOL    HW239643  11.475   8.785   0.933
45916SOL     OW39644   9.792   5.557  14.558
45916SOL    HW139645   9.747   5.605  14.628
45916SOL    HW239646   9.862   5.509  14.602
45917SOL     OW39647   3.117  13.699   2.958
45917SOL    HW139648   3.097  13.610   2.987
45917SOL    HW239649   3.204  13.693   2.918
45918SOL     OW39650   6.884   3.876  10.086
45918SOL    HW139651   6.916   3.921  10.008
45918SOL    HW239652   6.788   3.882  10.080
45919SOL     OW39653  14.111   5.219   1.290
45919SOL    HW139654  14.053   5.295   1.278
45919SOL    HW239655  14.147   5.203   1.203
45920SOL     OW39656  10.517   4.645  12.428
45920SOL    HW139657  10.576   4.580  12.468
45920SOL    HW239658  10.466   4.680  12.501
45921SOL     OW39659  13.574  10.324   4.990
45921SOL    HW139660  13.573  10.228   4.986
45921SOL    HW239661  13.489  10.350   4.954
45922SOL     OW39662   4.621   9.463   0.164
45922SOL    HW139663   4.596   9.388   0.110
45922SOL    HW239664   4.599   9.436   0.253
45923SOL     OW39665  12.474   1.947   8.846
45923SOL    HW139666  12.382   1.940   8.821
45923SOL    HW239667  12.494   2.040   8.840
45924SOL     OW39668   7.208   3.189  12.369
45924SOL    HW139669   7.163   3.115  12.409
45924SOL    HW239670   7.219   3.252  12.440
45925SOL     OW39671   1.048   6.015   9.692
45925SOL    HW139672   1.018   6.075   9.760
45925SOL    HW239673   1.056   5.930   9.736
45926SOL     OW39674   2.343   9.782   2.203
45926SOL    HW139675   2.299   9.793   2.119
45926SOL    HW239676   2.427   9.826   2.192
45927SOL     OW39677   9.971   8.686   4.845
45927SOL    HW139678   9.887   8.728   4.861
45927SOL    HW239679  10.024   8.753   4.803
45928SOL     OW39680   3.556   8.755   0.676
45928SOL    HW139681   3.503   8.782   0.751
45928SOL    HW239682   3.605   8.679   0.708
45929SOL     OW39683   6.789  13.463   2.487
45929SOL    HW139684   6.750  13.382   2.520
45929SOL    HW239685   6.720  13.528   2.495
45930SOL     OW39686  13.925  11.677  10.112
45930SOL    HW139687  13.980  11.710  10.041
45930SOL    HW239688  13.856  11.627  10.067
45931SOL     OW39689   0.133  12.600  13.200
45931SOL    HW139690   0.039  12.613  13.214
45931SOL    HW239691   0.170  12.595  13.289
45932SOL     OW39692  11.192   2.424   1.262
45932SOL    HW139693  11.121   2.462   1.210
45932SOL    HW239694  11.268   2.480   1.242
45933SOL     OW39695   1.822   1.946  10.877
45933SOL    HW139696   1.895   1.976  10.930
45933SOL    HW239697   1.830   1.994  10.795
45934SOL     OW39698  11.035  10.342   2.176
45934SOL    HW139699  10.983  10.422   2.181
45934SOL    HW239700  11.020  10.298   2.260
45935SOL     OW39701  11.190   1.312   1.550
45935SOL    HW139702  11.190   1.400   1.588
45935SOL    HW239703  11.282   1.293   1.533
45936SOL     OW39704   9.675   9.319   3.601
45936SOL    HW139705   9.716   9.237   3.629
45936SOL    HW239706   9.701   9.382   3.668
45937SOL     OW39707   5.512  11.465   4.934
45937SOL    HW139708   5.573  11.394   4.911
45937SOL    HW239709   5.562  11.520   4.995
45938SOL     OW39710  13.797   3.280   6.377
45938SOL    HW139711  13.822   3.306   6.466
45938SOL    HW239712  13.759   3.193   6.387
45939SOL     OW39713  10.344   4.598   1.907
45939SOL    HW139714  10.419   4.617   1.851
45939SOL    HW239715  10.338   4.502   1.908
45940SOL     OW39716  13.968   6.570  10.989
45940SOL    HW139717  13.997   6.624  11.063
45940SOL    HW239718  14.045   6.521  10.963
45941SOL     OW39719   6.838   5.331   6.716
45941SOL    HW139720   6.909   5.268   6.724
45941SOL    HW239721   6.810   5.347   6.806
45942SOL     OW39722   4.247  11.342   7.455
45942SOL    HW139723   4.296  11.267   7.489
45942SOL    HW239724   4.259  11.410   7.521
45943SOL     OW39725   5.096  12.827   9.511
45943SOL    HW139726   5.186  12.800   9.495
45943SOL    HW239727   5.050  12.810   9.429
45944SOL     OW39728   5.835   1.834   3.943
45944SOL    HW139729   5.765   1.769   3.937
45944SOL    HW239730   5.790   1.918   3.941
45945SOL     OW39731   6.595   0.368   7.210
45945SOL    HW139732   6.505   0.403   7.208
45945SOL    HW239733   6.584   0.277   7.238
45946SOL     OW39734   8.746   8.665  12.932
45946SOL    HW139735   8.734   8.744  12.984
45946SOL    HW239736   8.662   8.619  12.936
45947SOL     OW39737   0.451   3.394   3.811
45947SOL    HW139738   0.483   3.445   3.885
45947SOL    HW239739   0.486   3.306   3.826
45948SOL     OW39740  13.497   6.603   2.061
45948SOL    HW139741  13.552   6.572   2.133
45948SOL    HW239742  13.548   6.672   2.020
45949SOL     OW39743   2.757  13.255   3.189
45949SOL    HW139744   2.809  13.230   3.265
45949SOL    HW239745   2.687  13.309   3.225
45950SOL     OW39746  10.550   7.272   0.046
45950SOL    HW139747  10.538   7.255   0.139
45950SOL    HW239748  10.609   7.202   0.016
45951SOL     OW39749   2.238   3.088  10.587
45951SOL    HW139750   2.276   3.106  10.673
45951SOL    HW239751   2.186   3.166  10.567
45952SOL     OW39752  13.708  10.912  14.220
45952SOL    HW139753  13.704  10.947  14.309
45952SOL    HW239754  13.652  10.835  14.222
45953SOL     OW39755  14.357   1.826  13.959
45953SOL    HW139756  14.358   1.921  13.973
45953SOL    HW239757  14.344   1.790  14.046
45954SOL     OW39758  10.209   9.028  10.581
45954SOL    HW139759  10.290   9.078  10.593
45954SOL    HW239760  10.148   9.090  10.542
45955SOL     OW39761  13.229  10.286   2.964
45955SOL    HW139762  13.157  10.332   2.919
45955SOL    HW239763  13.250  10.343   3.038
45956SOL     OW39764   2.631   3.904   2.380
45956SOL    HW139765   2.630   3.935   2.289
45956SOL    HW239766   2.716   3.931   2.414
45957SOL     OW39767   0.590   5.088  13.743
45957SOL    HW139768   0.628   5.124  13.663
45957SOL    HW239769   0.636   5.132  13.814
45958SOL     OW39770   5.630   9.824   8.467
45958SOL    HW139771   5.543   9.855   8.491
45958SOL    HW239772   5.614   9.742   8.419
45959SOL     OW39773   0.997  12.980   4.374
45959SOL    HW139774   1.054  13.050   4.405
45959SOL    HW239775   1.039  12.948   4.294
45960SOL     OW39776   2.160  10.017   2.362
45960SOL    HW139777   2.227  10.016   2.430
45960SOL    HW239778   2.202   9.975   2.287
45961SOL     OW39779   0.575   1.617   0.697
45961SOL    HW139780   0.651   1.664   0.661
45961SOL    HW239781   0.556   1.662   0.779
45962SOL     OW39782  14.394  11.046  13.322
45962SOL    HW139783  14.324  11.008  13.375
45962SOL    HW239784  14.469  10.987  13.335
45963SOL     OW39785   1.111  12.416   3.735
45963SOL    HW139786   1.152  12.415   3.648
45963SOL    HW239787   1.029  12.368   3.723
45964SOL     OW39788   8.483   6.485   5.454
45964SOL    HW139789   8.434   6.415   5.411
45964SOL    HW239790   8.568   6.445   5.476
45965SOL     OW39791   8.364  12.797   0.494
45965SOL    HW139792   8.449  12.782   0.454
45965SOL    HW239793   8.314  12.717   0.474
45966SOL     OW39794  13.768   9.494  10.601
45966SOL    HW139795  13.827   9.487  10.526
45966SOL    HW239796  13.681   9.505  10.563
45967SOL     OW39797   3.871   6.135   4.126
45967SOL    HW139798   3.964   6.128   4.146
45967SOL    HW239799   3.830   6.065   4.177
45968SOL     OW39800   2.213  11.424   3.868
45968SOL    HW139801   2.261  11.461   3.941
45968SOL    HW239802   2.122  11.449   3.884
45969SOL     OW39803   4.634   5.512   3.039
45969SOL    HW139804   4.609   5.450   3.107
45969SOL    HW239805   4.729   5.503   3.031
45970SOL     OW39806   8.977   0.062   5.983
45970SOL    HW139807   8.948   0.143   6.026
45970SOL    HW239808   9.056   0.036   6.030
45971SOL     OW39809   0.829   2.291  14.009
45971SOL    HW139810   0.741   2.326  13.992
45971SOL    HW239811   0.829   2.206  13.967
45972SOL     OW39812  13.329  11.509   0.828
45972SOL    HW139813  13.397  11.473   0.771
45972SOL    HW239814  13.257  11.446   0.823
45973SOL     OW39815   3.220   1.787   4.325
45973SOL    HW139816   3.225   1.847   4.399
45973SOL    HW239817   3.260   1.836   4.253
45974SOL     OW39818   4.225  12.707   6.835
45974SOL    HW139819   4.131  12.717   6.825
45974SOL    HW239820   4.263  12.764   6.768
45975SOL     OW39821   5.507   0.114   7.851
45975SOL    HW139822   5.499   0.207   7.869
45975SOL    HW239823   5.455   0.101   7.771
45976SOL     OW39824  10.595   7.344   5.663
45976SOL    HW139825  10.578   7.363   5.755
45976SOL    HW239826  10.655   7.414   5.635
45977SOL     OW39827   0.805   8.196   4.368
45977SOL    HW139828   0.873   8.130   4.358
45977SOL    HW239829   0.729   8.148   4.399
45978SOL     OW39830   3.108   3.692  10.408
45978SOL    HW139831   3.019   3.716  10.381
45978SOL    HW239832   3.123   3.744  10.487
45979SOL     OW39833   8.060   0.854   4.607
45979SOL    HW139834   8.051   0.937   4.654
45979SOL    HW239835   7.990   0.855   4.542
45980SOL     OW39836   5.616  14.045  13.411
45980SOL    HW139837   5.590  14.136  13.396
45980SOL    HW239838   5.674  14.024  13.337
45981SOL     OW39839   4.987   8.160   1.789
45981SOL    HW139840   4.901   8.161   1.747
45981SOL    HW239841   4.969   8.142   1.881
45982SOL     OW39842   2.133   9.424   5.186
45982SOL    HW139843   2.200   9.387   5.244
45982SOL    HW239844   2.152   9.518   5.184
45983SOL     OW39845  11.477   3.950  13.370
45983SOL    HW139846  11.572   3.945  13.373
45983SOL    HW239847  11.449   3.930  13.460
45984SOL     OW39848  13.226   0.625   7.267
45984SOL    HW139849  13.205   0.563   7.336
45984SOL    HW239850  13.319   0.612   7.250
45985SOL     OW39851   0.548   0.404   1.791
45985SOL    HW139852   0.534   0.338   1.724
45985SOL    HW239853   0.564   0.354   1.872
45986SOL     OW39854  12.541  11.751  14.427
45986SOL    HW139855  12.464  11.781  14.379
45986SOL    HW239856  12.516  11.665  14.461
45987SOL     OW39857   8.470   9.923   2.476
45987SOL    HW139858   8.562   9.901   2.491
45987SOL    HW239859   8.467  10.018   2.483
45988SOL     OW39860   9.115   1.457   7.886
45988SOL    HW139861   9.173   1.416   7.950
45988SOL    HW239862   9.167   1.527   7.848
45989SOL     OW39863   1.910   7.408   1.185
45989SOL    HW139864   1.981   7.352   1.155
45989SOL    HW239865   1.830   7.361   1.162
45990SOL     OW39866   5.046  10.176   3.192
45990SOL    HW139867   5.051  10.090   3.234
45990SOL    HW239868   5.084  10.237   3.256
45991SOL     OW39869   9.491   5.936   7.950
45991SOL    HW139870   9.479   6.005   7.885
45991SOL    HW239871   9.465   5.975   8.033
45992SOL     OW39872   7.352   8.247   0.745
45992SOL    HW139873   7.415   8.189   0.702
45992SOL    HW239874   7.378   8.335   0.717
45993SOL     OW39875   0.281   2.973   8.102
45993SOL    HW139876   0.365   3.001   8.137
45993SOL    HW239877   0.219   3.040   8.129
45994SOL     OW39878   0.034   0.365  10.969
45994SOL    HW139879   0.019   0.440  10.912
45994SOL    HW239880   0.129   0.350  10.964
45995SOL     OW39881  10.636   0.432  10.380
45995SOL    HW139882  10.706   0.385  10.425
45995SOL    HW239883  10.584   0.471  10.450
45996SOL     OW39884   4.566   8.425   2.520
45996SOL    HW139885   4.533   8.476   2.594
45996SOL    HW239886   4.511   8.453   2.446
45997SOL     OW39887  13.757   4.539   4.687
45997SOL    HW139888  13.665   4.559   4.702
45997SOL    HW239889  13.800   4.625   4.683
45998SOL     OW39890   2.896  14.677   8.957
45998SOL    HW139891   2.822  14.624   8.989
45998SOL    HW239892   2.948  14.616   8.905
45999SOL     OW39893  11.318  10.650  12.588
45999SOL    HW139894  11.260  10.709  12.540
45999SOL    HW239895  11.298  10.563  12.553
46000SOL     OW39896   2.420  14.477   4.094
46000SOL    HW139897   2.388  14.495   4.005
46000SOL    HW239898   2.368  14.403   4.124
46001SOL     OW39899  12.338  14.039   5.662
46001SOL    HW139900  12.319  14.030   5.756
46001SOL    HW239901  12.254  14.064   5.623
46002SOL     OW39902   7.269  14.161   6.341
46002SOL    HW139903   7.282  14.190   6.431
46002SOL    HW239904   7.355  14.169   6.300
46003SOL     OW39905   6.834   8.797   8.524
46003SOL    HW139906   6.879   8.718   8.554
46003SOL    HW239907   6.894   8.869   8.546
46004SOL     OW39908   0.140   2.507   9.254
46004SOL    HW139909   0.075   2.444   9.286
46004SOL    HW239910   0.089   2.571   9.203
46005SOL     OW39911  12.470   1.106   3.341
46005SOL    HW139912  12.546   1.087   3.286
46005SOL    HW239913  12.404   1.138   3.280
46006SOL     OW39914   3.729   5.948  10.179
46006SOL    HW139915   3.645   5.915  10.148
46006SOL    HW239916   3.787   5.871  10.179
46007SOL     OW39917  11.650   3.425  12.808
46007SOL    HW139918  11.606   3.478  12.742
46007SOL    HW239919  11.603   3.444  12.890
46008SOL     OW39920   5.918   3.407  12.464
46008SOL    HW139921   5.964   3.484  12.431
46008SOL    HW239922   5.988   3.350  12.497
46009SOL     OW39923  12.262   8.922   5.064
46009SOL    HW139924  12.340   8.898   5.013
46009SOL    HW239925  12.266   9.018   5.070
46010SOL     OW39926   0.268  11.747   0.654
46010SOL    HW139927   0.287  11.806   0.580
46010SOL    HW239928   0.353  11.732   0.695
46011SOL     OW39929   1.661   7.992   7.134
46011SOL    HW139930   1.713   7.912   7.130
46011SOL    HW239931   1.571   7.962   7.144
46012SOL     OW39932  14.253   6.949  14.476
46012SOL    HW139933  14.185   6.986  14.419
46012SOL    HW239934  14.321   7.016  14.477
46013SOL     OW39935  12.641   2.225   4.207
46013SOL    HW139936  12.669   2.196   4.294
46013SOL    HW239937  12.674   2.158   4.148
46014SOL     OW39938   5.062   7.064   5.159
46014SOL    HW139939   5.068   6.969   5.162
46014SOL    HW239940   5.120   7.090   5.088
46015SOL     OW39941   1.703   9.936   9.487
46015SOL    HW139942   1.667   9.999   9.550
46015SOL    HW239943   1.771   9.983   9.441
46016SOL     OW39944  12.141   4.036   9.562
46016SOL    HW139945  12.211   3.983   9.601
46016SOL    HW239946  12.183   4.083   9.490
46017SOL     OW39947  11.476   8.714   8.377
46017SOL    HW139948  11.511   8.802   8.392
46017SOL    HW239949  11.443   8.717   8.287
46018SOL     OW39950   9.910   1.257   7.205
46018SOL    HW139951   9.982   1.211   7.247
46018SOL    HW239952   9.913   1.228   7.114
46019SOL     OW39953   0.825   6.764   7.121
46019SOL    HW139954   0.887   6.697   7.091
46019SOL    HW239955   0.856   6.788   7.209
46020SOL     OW39956   7.487   8.284  14.756
46020SOL    HW139957   7.575   8.250  14.774
46020SOL    HW239958   7.486   8.298  14.661
46021SOL     OW39959   6.388   4.696   7.382
46021SOL    HW139960   6.334   4.626   7.419
46021SOL    HW239961   6.445   4.651   7.320
46022SOL     OW39962  12.947  14.064  10.223
46022SOL    HW139963  13.028  14.035  10.265
46022SOL    HW239964  12.975  14.106  10.142
46023SOL     OW39965   7.025  14.576   4.730
46023SOL    HW139966   6.944  14.614   4.697
46023SOL    HW239967   7.080  14.651   4.753
46024SOL     OW39968   6.500  10.309  13.225
46024SOL    HW139969   6.443  10.246  13.181
46024SOL    HW239970   6.556  10.257  13.281
46025SOL     OW39971  14.497   5.295   4.228
46025SOL    HW139972  14.556   5.345   4.172
46025SOL    HW239973  14.449   5.361   4.278
46026SOL     OW39974  10.793   2.989   9.797
46026SOL    HW139975  10.843   3.070   9.810
46026SOL    HW239976  10.742   2.981   9.878
46027SOL     OW39977   7.013   2.480   1.153
46027SOL    HW139978   6.945   2.412   1.156
46027SOL    HW239979   6.974   2.550   1.100
46028SOL     OW39980  14.756  11.855   8.210
46028SOL    HW139981  14.783  11.792   8.144
46028SOL    HW239982  14.819  11.845   8.281
46029SOL     OW39983  11.801  12.193   3.496
46029SOL    HW139984  11.867  12.166   3.560
46029SOL    HW239985  11.784  12.115   3.444
46030SOL     OW39986  11.893   0.981   5.672
46030SOL    HW139987  11.933   1.067   5.658
46030SOL    HW239988  11.837   0.993   5.748
46031SOL     OW39989   8.992   9.951  12.903
46031SOL    HW139990   9.063   9.918  12.958
46031SOL    HW239991   8.920   9.889  12.917
46032SOL     OW39992  10.455   3.822  13.091
46032SOL    HW139993  10.490   3.869  13.167
46032SOL    HW239994  10.530   3.770  13.059
46033SOL     OW39995   8.058   5.287   1.071
46033SOL    HW139996   8.059   5.192   1.061
46033SOL    HW239997   7.999   5.302   1.145
46034SOL     OW39998  11.507   2.163   6.811
46034SOL    HW139999  11.434   2.168   6.874
46034SOL    HW240000  11.546   2.250   6.814
46035SOL     OW40001   3.599   3.556   6.236
46035SOL    HW140002   3.522   3.606   6.264
46035SOL    HW240003   3.564   3.475   6.199
46036SOL     OW40004   0.412   0.739   0.476
46036SOL    HW140005   0.343   0.794   0.439
46036SOL    HW240006   0.464   0.711   0.401
46037SOL     OW40007   7.274   6.012  11.898
46037SOL    HW140008   7.353   6.002  11.844
46037SOL    HW240009   7.295   6.082  11.959
46038SOL     OW40010  10.674  13.296  10.254
46038SOL    HW140011  10.608  13.269  10.319
46038SOL    HW240012  10.681  13.391  10.266
46039SOL     OW40013   6.868   9.031   7.268
46039SOL    HW140014   6.945   9.050   7.320
46039SOL    HW240015   6.801   9.092   7.300
46040SOL     OW40016   8.596   6.426   2.842
46040SOL    HW140017   8.656   6.352   2.849
46040SOL    HW240018   8.526   6.406   2.904
46041SOL     OW40019   9.995  10.517   0.040
46041SOL    HW140020  10.037  10.444  14.871
46041SOL    HW240021   9.902  10.505   0.024
46042SOL     OW40022  14.024   7.193   9.162
46042SOL    HW140023  13.979   7.249   9.225
46042SOL    HW240024  13.955   7.167   9.100
46043SOL     OW40025   3.320   4.663  12.415
46043SOL    HW140026   3.255   4.732  12.413
46043SOL    HW240027   3.319   4.625  12.327
46044SOL     OW40028   3.421   6.011  11.520
46044SOL    HW140029   3.499   5.981  11.473
46044SOL    HW240030   3.444   6.004  11.612
46045SOL     OW40031   0.852   7.827   2.656
46045SOL    HW140032   0.926   7.818   2.717
46045SOL    HW240033   0.792   7.758   2.683
46046SOL     OW40034   8.878   6.949  13.194
46046SOL    HW140035   8.932   6.935  13.116
46046SOL    HW240036   8.812   7.013  13.167
46047SOL     OW40037   8.438  13.726   8.623
46047SOL    HW140038   8.462  13.816   8.647
46047SOL    HW240039   8.492  13.707   8.546
46048SOL     OW40040   7.759   0.859   3.710
46048SOL    HW140041   7.787   0.778   3.667
46048SOL    HW240042   7.678   0.836   3.755
46049SOL     OW40043   0.302  14.166  14.437
46049SOL    HW140044   0.369  14.165  14.369
46049SOL    HW240045   0.297  14.258  14.464
46050SOL     OW40046  14.110  11.065  13.726
46050SOL    HW140047  14.042  11.117  13.770
46050SOL    HW240048  14.122  11.107  13.641
46051SOL     OW40049  14.478   2.120  13.917
46051SOL    HW140050  14.539   2.063  13.870
46051SOL    HW240051  14.423   2.158  13.848
46052SOL     OW40052  14.703   2.075   7.207
46052SOL    HW140053  14.757   1.997   7.214
46052SOL    HW240054  14.720   2.108   7.119
46053SOL     OW40055  11.545   6.108  13.745
46053SOL    HW140056  11.556   6.078  13.655
46053SOL    HW240057  11.480   6.049  13.782
46054SOL     OW40058   9.033  10.643   6.518
46054SOL    HW140059   8.990  10.718   6.476
46054SOL    HW240060   8.993  10.639   6.605
46055SOL     OW40061  14.367   8.876   2.185
46055SOL    HW140062  14.451   8.921   2.183
46055SOL    HW240063  14.302   8.947   2.192
46056SOL     OW40064  12.868   8.426  11.217
46056SOL    HW140065  12.928   8.395  11.285
46056SOL    HW240066  12.783   8.432  11.261
46057SOL     OW40067  11.564   3.841  11.783
46057SOL    HW140068  11.612   3.766  11.820
46057SOL    HW240069  11.525   3.807  11.703
46058SOL     OW40070   8.921   7.891   9.628
46058SOL    HW140071   8.917   7.841   9.709
46058SOL    HW240072   8.857   7.849   9.570
46059SOL     OW40073   9.081  10.725   0.223
46059SOL    HW140074   9.015  10.777   0.269
46059SOL    HW240075   9.164  10.768   0.241
46060SOL     OW40076   5.356   0.480   5.091
46060SOL    HW140077   5.415   0.455   5.020
46060SOL    HW240078   5.351   0.403   5.147
46061SOL     OW40079   1.728  11.510  11.397
46061SOL    HW140080   1.723  11.517  11.302
46061SOL    HW240081   1.706  11.598  11.429
46062SOL     OW40082   2.582   9.346  10.909
46062SOL    HW140083   2.581   9.255  10.879
46062SOL    HW240084   2.662   9.383  10.873
46063SOL     OW40085   2.891   7.288   9.786
46063SOL    HW140086   2.822   7.244   9.835
46063SOL    HW240087   2.945   7.218   9.751
46064SOL     OW40088   9.707  11.003  11.560
46064SOL    HW140089   9.726  10.915  11.591
46064SOL    HW240090   9.630  10.993  11.504
46065SOL     OW40091   1.732   0.049   4.020
46065SOL    HW140092   1.827   0.035   4.020
46065SOL    HW240093   1.705   0.031   3.930
46066SOL     OW40094   1.951   3.104  11.392
46066SOL    HW140095   2.034   3.090  11.438
46066SOL    HW240096   1.904   3.167  11.446
46067SOL     OW40097   5.472  11.770   3.399
46067SOL    HW140098   5.390  11.735   3.434
46067SOL    HW240099   5.523  11.693   3.376
46068SOL     OW40100   1.641   5.478  13.418
46068SOL    HW140101   1.680   5.526  13.344
46068SOL    HW240102   1.650   5.537  13.492
46069SOL     OW40103   8.862  12.131   8.876
46069SOL    HW140104   8.778  12.143   8.921
46069SOL    HW240105   8.928  12.149   8.944
46070SOL     OW40106  12.450   3.621  14.625
46070SOL    HW140107  12.461   3.620  14.530
46070SOL    HW240108  12.365   3.662  14.639
46071SOL     OW40109   5.988  11.886   1.894
46071SOL    HW140110   5.974  11.843   1.810
46071SOL    HW240111   6.058  11.949   1.877
46072SOL     OW40112  13.834   2.541   1.183
46072SOL    HW140113  13.792   2.626   1.176
46072SOL    HW240114  13.919   2.559   1.224
46073SOL     OW40115   2.485  11.018   3.712
46073SOL    HW140116   2.508  11.054   3.797
46073SOL    HW240117   2.504  10.924   3.719
46074SOL     OW40118   0.972   7.219  11.172
46074SOL    HW140119   1.002   7.260  11.091
46074SOL    HW240120   1.017   7.267  11.241
46075SOL     OW40121   0.443   9.249   0.818
46075SOL    HW140122   0.456   9.333   0.772
46075SOL    HW240123   0.417   9.188   0.749
46076SOL     OW40124   2.363   5.456   9.105
46076SOL    HW140125   2.368   5.530   9.044
46076SOL    HW240126   2.275   5.419   9.090
46077SOL     OW40127   4.863   2.658   1.098
46077SOL    HW140128   4.901   2.582   1.055
46077SOL    HW240129   4.784   2.625   1.141
46078SOL     OW40130   4.965  11.152   6.636
46078SOL    HW140131   5.022  11.121   6.706
46078SOL    HW240132   5.021  11.153   6.558
46079SOL     OW40133   3.944  12.098   7.712
46079SOL    HW140134   3.868  12.089   7.654
46079SOL    HW240135   3.952  12.012   7.754
46080SOL     OW40136  12.218   9.156   8.272
46080SOL    HW140137  12.137   9.168   8.322
46080SOL    HW240138  12.262   9.241   8.277
46081SOL     OW40139   4.565   9.175  10.910
46081SOL    HW140140   4.601   9.262  10.927
46081SOL    HW240141   4.575   9.128  10.993
46082SOL     OW40142   9.134   7.303  11.569
46082SOL    HW140143   9.045   7.270  11.579
46082SOL    HW240144   9.125   7.398  11.565
46083SOL     OW40145   2.997   3.145   3.708
46083SOL    HW140146   2.928   3.210   3.721
46083SOL    HW240147   2.962   3.085   3.643
46084SOL     OW40148  14.556   5.471   3.636
46084SOL    HW140149  14.509   5.548   3.604
46084SOL    HW240150  14.489   5.405   3.651
46085SOL     OW40151   3.004   7.567  14.009
46085SOL    HW140152   3.039   7.546  13.923
46085SOL    HW240153   3.068   7.628  14.046
46086SOL     OW40154   7.358   9.355   5.146
46086SOL    HW140155   7.299   9.377   5.073
46086SOL    HW240156   7.418   9.291   5.109
46087SOL     OW40157   9.291   2.788   3.146
46087SOL    HW140158   9.261   2.804   3.057
46087SOL    HW240159   9.211   2.777   3.197
46088SOL     OW40160   3.300   9.686  13.977
46088SOL    HW140161   3.300   9.706  13.884
46088SOL    HW240162   3.388   9.708  14.007
46089SOL     OW40163   3.825   4.052  10.657
46089SOL    HW140164   3.915   4.028  10.636
46089SOL    HW240165   3.797   3.989  10.723
46090SOL     OW40166  13.777  12.893  11.203
46090SOL    HW140167  13.819  12.861  11.124
46090SOL    HW240168  13.687  12.862  11.197
46091SOL     OW40169   3.683   4.529   2.929
46091SOL    HW140170   3.588   4.537   2.917
46091SOL    HW240171   3.719   4.528   2.841
46092SOL     OW40172   0.189  13.351  10.103
46092SOL    HW140173   0.105  13.389  10.079
46092SOL    HW240174   0.254  13.417  10.078
46093SOL     OW40175  10.422  12.862   0.950
46093SOL    HW140176  10.409  12.876   1.044
46093SOL    HW240177  10.400  12.947   0.911
46094SOL     OW40178  11.804  10.047   8.423
46094SOL    HW140179  11.751  10.007   8.353
46094SOL    HW240180  11.740  10.090   8.480
46095SOL     OW40181  12.981   3.460   1.718
46095SOL    HW140182  13.032   3.385   1.687
46095SOL    HW240183  12.928   3.425   1.790
46096SOL     OW40184   9.397   7.625   3.185
46096SOL    HW140185   9.307   7.605   3.210
46096SOL    HW240186   9.450   7.557   3.227
46097SOL     OW40187   6.185   3.230  13.393
46097SOL    HW140188   6.213   3.148  13.351
46097SOL    HW240189   6.221   3.299  13.337
46098SOL     OW40190  11.001  12.044  14.147
46098SOL    HW140191  10.927  12.060  14.090
46098SOL    HW240192  11.021  12.129  14.186
46099SOL     OW40193  11.529   7.756   6.984
46099SOL    HW140194  11.446   7.771   7.031
46099SOL    HW240195  11.573   7.841   6.986
46100SOL     OW40196  12.321   3.223   0.186
46100SOL    HW140197  12.416   3.231   0.175
46100SOL    HW240198  12.285   3.305   0.150
46101SOL     OW40199   8.640  12.083   1.971
46101SOL    HW140200   8.597  12.016   2.024
46101SOL    HW240201   8.714  12.112   2.023
46102SOL     OW40202   8.894  10.026   8.486
46102SOL    HW140203   8.859  10.100   8.436
46102SOL    HW240204   8.940  10.067   8.560
46103SOL     OW40205   2.486   8.463  14.081
46103SOL    HW140206   2.528   8.549  14.087
46103SOL    HW240207   2.416   8.466  14.146
46104SOL     OW40208   4.702  11.263  12.092
46104SOL    HW140209   4.767  11.314  12.043
46104SOL    HW240210   4.638  11.236  12.026
46105SOL     OW40211   6.812  12.601   3.145
46105SOL    HW140212   6.768  12.684   3.163
46105SOL    HW240213   6.764  12.563   3.072
46106SOL     OW40214   3.497   9.001   6.764
46106SOL    HW140215   3.430   8.942   6.730
46106SOL    HW240216   3.464   9.030   6.848
46107SOL     OW40217   0.113   9.717   8.127
46107SOL    HW140218   0.156   9.800   8.142
46107SOL    HW240219   0.058   9.703   8.204
46108SOL     OW40220  13.796  10.787  12.219
46108SOL    HW140221  13.820  10.696  12.201
46108SOL    HW240222  13.759  10.784  12.308
46109SOL     OW40223  13.879   5.909  10.901
46109SOL    HW140224  13.943   5.938  10.965
46109SOL    HW240225  13.910   5.822  10.874
46110SOL     OW40226  11.141  12.013  10.460
46110SOL    HW140227  11.186  11.962  10.527
46110SOL    HW240228  11.209  12.039  10.398
46111SOL     OW40229  14.360   1.389   0.681
46111SOL    HW140230  14.374   1.476   0.718
46111SOL    HW240231  14.437   1.373   0.626
46112SOL     OW40232  11.564   1.120   4.493
46112SOL    HW140233  11.557   1.215   4.493
46112SOL    HW240234  11.522   1.092   4.574
46113SOL     OW40235   9.247   1.187   2.143
46113SOL    HW140236   9.201   1.122   2.088
46113SOL    HW240237   9.284   1.249   2.080
46114SOL     OW40238  12.692   0.354  13.052
46114SOL    HW140239  12.617   0.305  13.018
46114SOL    HW240240  12.763   0.337  12.990
46115SOL     OW40241  14.703   4.531   3.947
46115SOL    HW140242  14.669   4.579   4.022
46115SOL    HW240243  14.751   4.596   3.896
46116SOL     OW40244   3.778   5.080   3.852
46116SOL    HW140245   3.744   5.168   3.834
46116SOL    HW240246   3.835   5.090   3.928
46117SOL     OW40247   7.150   7.914   9.694
46117SOL    HW140248   7.242   7.921   9.672
46117SOL    HW240249   7.146   7.936   9.787
46118SOL     OW40250  14.497   5.199   4.960
46118SOL    HW140251  14.501   5.182   5.054
46118SOL    HW240252  14.589   5.195   4.931
46119SOL     OW40253   6.779  13.754  11.346
46119SOL    HW140254   6.716  13.720  11.282
46119SOL    HW240255   6.861  13.711  11.323
46120SOL     OW40256   1.868  10.972  10.736
46120SOL    HW140257   1.781  10.973  10.697
46120SOL    HW240258   1.858  11.019  10.819
46121SOL     OW40259   9.869  14.740   6.707
46121SOL    HW140260   9.963  14.733   6.693
46121SOL    HW240261   9.851  14.834   6.706
46122SOL     OW40262   3.646   5.596  14.152
46122SOL    HW140263   3.665   5.520  14.208
46122SOL    HW240264   3.714   5.660  14.175
46123SOL     OW40265   3.145   2.086   1.596
46123SOL    HW140266   3.192   2.006   1.573
46123SOL    HW240267   3.149   2.140   1.517
46124SOL     OW40268  11.989   5.814   3.382
46124SOL    HW140269  11.990   5.729   3.428
46124SOL    HW240270  11.923   5.803   3.314
46125SOL     OW40271   6.019   5.143   0.192
46125SOL    HW140272   6.114   5.152   0.193
46125SOL    HW240273   5.987   5.233   0.184
46126SOL     OW40274   4.639  14.455   8.999
46126SOL    HW140275   4.640  14.439   8.905
46126SOL    HW240276   4.691  14.384   9.037
46127SOL     OW40277   9.319   4.722   7.243
46127SOL    HW140278   9.345   4.775   7.318
46127SOL    HW240279   9.224   4.731   7.238
46128SOL     OW40280  14.052   9.034  13.339
46128SOL    HW140281  14.074   9.047  13.431
46128SOL    HW240282  14.105   9.098  13.292
46129SOL     OW40283   2.589   6.094   7.947
46129SOL    HW140284   2.541   6.162   7.994
46129SOL    HW240285   2.669   6.138   7.917
46130SOL     OW40286   6.032  12.551  11.782
46130SOL    HW140287   6.084  12.580  11.708
46130SOL    HW240288   6.058  12.460  11.796
46131SOL     OW40289  14.264  12.463   8.378
46131SOL    HW140290  14.291  12.547   8.415
46131SOL    HW240291  14.194  12.485   8.317
46132SOL     OW40292  14.477   5.861   5.996
46132SOL    HW140293  14.546   5.801   6.023
46132SOL    HW240294  14.464   5.842   5.903
46133SOL     OW40295   8.158   0.084  11.321
46133SOL    HW140296   8.111   0.146  11.377
46133SOL    HW240297   8.237   0.131  11.294
46134SOL     OW40298   6.518   3.380  12.079
46134SOL    HW140299   6.599   3.373  12.130
46134SOL    HW240300   6.486   3.290  12.072
46135SOL     OW40301   9.458  11.791   2.738
46135SOL    HW140302   9.462  11.779   2.643
46135SOL    HW240303   9.547  11.777   2.768
46136SOL     OW40304   9.816   9.863  10.611
46136SOL    HW140305   9.805   9.903  10.698
46136SOL    HW240306   9.728   9.862  10.574
46137SOL     OW40307  13.273  11.405   4.079
46137SOL    HW140308  13.331  11.332   4.061
46137SOL    HW240309  13.328  11.471   4.121
46138SOL     OW40310   6.823   2.486  14.269
46138SOL    HW140311   6.909   2.526  14.267
46138SOL    HW240312   6.763   2.557  14.247
46139SOL     OW40313   1.936   4.909   8.245
46139SOL    HW140314   2.003   4.904   8.313
46139SOL    HW240315   1.929   4.820   8.212
46140SOL     OW40316  11.335   4.307   9.467
46140SOL    HW140317  11.255   4.359   9.461
46140SOL    HW240318  11.351   4.276   9.378
46141SOL     OW40319   9.313   1.430  11.112
46141SOL    HW140320   9.219   1.439  11.126
46141SOL    HW240321   9.347   1.399  11.196
46142SOL     OW40322   9.139   9.760  10.336
46142SOL    HW140323   9.104   9.831  10.282
46142SOL    HW240324   9.114   9.783  10.426
46143SOL     OW40325  13.330   0.939   8.956
46143SOL    HW140326  13.262   0.874   8.970
46143SOL    HW240327  13.412   0.893   8.976
46144SOL     OW40328  13.475   3.496  14.802
46144SOL    HW140329  13.570   3.487  14.811
46144SOL    HW240330  13.442   3.406  14.808
46145SOL     OW40331  12.957   8.017   3.649
46145SOL    HW140332  13.039   8.015   3.600
46145SOL    HW240333  12.923   8.105   3.635
46146SOL     OW40334  12.750   2.136   2.591
46146SOL    HW140335  12.711   2.066   2.644
46146SOL    HW240336  12.680   2.202   2.584
46147SOL     OW40337  10.446   0.789   4.032
46147SOL    HW140338  10.412   0.700   4.044
46147SOL    HW240339  10.520   0.794   4.093
46148SOL     OW40340   4.009   8.172   4.395
46148SOL    HW140341   4.095   8.142   4.424
46148SOL    HW240342   3.991   8.120   4.317
46149SOL     OW40343  14.112  12.227   7.540
46149SOL    HW140344  14.137  12.134   7.541
46149SOL    HW240345  14.092  12.247   7.631
46150SOL     OW40346   1.228   4.113   2.498
46150SOL    HW140347   1.171   4.045   2.463
46150SOL    HW240348   1.198   4.126   2.587
46151SOL     OW40349   2.839   5.677   7.401
46151SOL    HW140350   2.851   5.772   7.401
46151SOL    HW240351   2.899   5.646   7.469
46152SOL     OW40352  12.659   0.298   3.552
46152SOL    HW140353  12.746   0.256   3.549
46152SOL    HW240354  12.678   0.392   3.558
46153SOL     OW40355   9.588  14.242   2.532
46153SOL    HW140356   9.546  14.294   2.463
46153SOL    HW240357   9.527  14.171   2.549
46154SOL     OW40358   8.407   1.089   5.351
46154SOL    HW140359   8.496   1.082   5.317
46154SOL    HW240360   8.395   1.012   5.406
46155SOL     OW40361  11.076   0.106  14.725
46155SOL    HW140362  11.127   0.043  14.674
46155SOL    HW240363  10.992   0.111  14.679
46156SOL     OW40364  14.106   9.906   6.842
46156SOL    HW140365  14.115   9.938   6.932
46156SOL    HW240366  14.111   9.811   6.851
46157SOL     OW40367   2.275   0.493  13.647
46157SOL    HW140368   2.229   0.571  13.617
46157SOL    HW240369   2.206   0.438  13.685
46158SOL     OW40370  13.797   8.801   0.548
46158SOL    HW140371  13.804   8.812   0.643
46158SOL    HW240372  13.704   8.782   0.533
46159SOL     OW40373  11.889   3.532  11.740
46159SOL    HW140374  11.963   3.487  11.782
46159SOL    HW240375  11.878   3.488  11.656
46160SOL     OW40376  11.733   7.920   3.627
46160SOL    HW140377  11.786   7.956   3.556
46160SOL    HW240378  11.784   7.846   3.660
46161SOL     OW40379  13.721  14.715   5.637
46161SOL    HW140380  13.634  14.739   5.667
46161SOL    HW240381  13.746  14.785   5.577
46162SOL     OW40382   2.110   4.657  12.463
46162SOL    HW140383   2.168   4.732  12.477
46162SOL    HW240384   2.031   4.678  12.513
46163SOL     OW40385  11.971   8.173   1.930
46163SOL    HW140386  12.039   8.110   1.949
46163SOL    HW240387  12.008   8.229   1.862
46164SOL     OW40388  13.188   4.243   9.656
46164SOL    HW140389  13.270   4.234   9.608
46164SOL    HW240390  13.214   4.275   9.742
46165SOL     OW40391  14.141  13.068  14.806
46165SOL    HW140392  14.073  13.130  14.833
46165SOL    HW240393  14.108  12.982  14.832
46166SOL     OW40394   2.202  11.835   3.947
46166SOL    HW140395   2.159  11.797   4.023
46166SOL    HW240396   2.153  11.802   3.872
46167SOL     OW40397   6.736   5.569   5.401
46167SOL    HW140398   6.783   5.635   5.350
46167SOL    HW240399   6.791   5.491   5.396
46168SOL     OW40400   2.344   6.333   9.301
46168SOL    HW140401   2.438   6.343   9.284
46168SOL    HW240402   2.326   6.390   9.376
46169SOL     OW40403   7.503   3.587   7.250
46169SOL    HW140404   7.529   3.526   7.318
46169SOL    HW240405   7.472   3.664   7.297
46170SOL     OW40406   8.960   3.186   3.084
46170SOL    HW140407   8.921   3.263   3.044
46170SOL    HW240408   9.047   3.215   3.112
46171SOL     OW40409   9.136   6.166  13.928
46171SOL    HW140410   9.207   6.223  13.958
46171SOL    HW240411   9.057   6.220  13.935
46172SOL     OW40412  13.862  14.797   1.128
46172SOL    HW140413  13.871  14.732   1.058
46172SOL    HW240414  13.893  14.752   1.207
46173SOL     OW40415   2.267   8.299   7.137
46173SOL    HW140416   2.315   8.381   7.142
46173SOL    HW240417   2.205   8.303   7.210
46174SOL     OW40418   0.030   6.888   6.740
46174SOL    HW140419   0.051   6.795   6.751
46174SOL    HW240420  14.812   6.892   6.750
46175SOL     OW40421  12.185   4.897   4.759
46175SOL    HW140422  12.101   4.918   4.719
46175SOL    HW240423  12.185   4.945   4.841
46176SOL     OW40424   8.659   4.428   8.079
46176SOL    HW140425   8.585   4.486   8.096
46176SOL    HW240426   8.735   4.486   8.075
46177SOL     OW40427   4.886  10.235   4.732
46177SOL    HW140428   4.809  10.221   4.788
46177SOL    HW240429   4.850  10.235   4.643
46178SOL     OW40430   8.712   4.290  10.278
46178SOL    HW140431   8.621   4.301  10.304
46178SOL    HW240432   8.718   4.201  10.244
46179SOL     OW40433   5.105   0.140   7.872
46179SOL    HW140434   5.176   0.186   7.917
46179SOL    HW240435   5.137   0.050   7.863
46180SOL     OW40436   7.791   4.725   5.579
46180SOL    HW140437   7.815   4.804   5.629
46180SOL    HW240438   7.715   4.690   5.625
46181SOL     OW40439  12.570   2.168  14.262
46181SOL    HW140440  12.519   2.130  14.333
46181SOL    HW240441  12.628   2.231  14.304
46182SOL     OW40442   2.381  10.914   6.949
46182SOL    HW140443   2.338  10.929   6.865
46182SOL    HW240444   2.373  10.819   6.963
46183SOL     OW40445   5.878   2.433  13.135
46183SOL    HW140446   5.822   2.508  13.115
46183SOL    HW240447   5.956   2.446  13.082
46184SOL     OW40448   7.381   2.131   4.304
46184SOL    HW140449   7.455   2.192   4.309
46184SOL    HW240450   7.314   2.169   4.360
46185SOL     OW40451   5.913   8.196   7.212
46185SOL    HW140452   5.989   8.210   7.156
46185SOL    HW240453   5.859   8.132   7.165
46186SOL     OW40454   4.322   5.667  12.388
46186SOL    HW140455   4.402   5.666  12.441
46186SOL    HW240456   4.346   5.717  12.310
46187SOL     OW40457  10.764   8.266  14.015
46187SOL    HW140458  10.743   8.233  14.102
46187SOL    HW240459  10.726   8.354  14.012
46188SOL     OW40460   4.154   4.835   4.865
46188SOL    HW140461   4.123   4.907   4.919
46188SOL    HW240462   4.230   4.801   4.912
46189SOL     OW40463   0.120   1.800   6.360
46189SOL    HW140464   0.168   1.742   6.301
46189SOL    HW240465   0.113   1.751   6.442
46190SOL     OW40466   5.323   2.245   5.850
46190SOL    HW140467   5.261   2.173   5.860
46190SOL    HW240468   5.274   2.323   5.877
46191SOL     OW40469  13.348   4.779   6.450
46191SOL    HW140470  13.383   4.745   6.532
46191SOL    HW240471  13.263   4.818   6.474
46192SOL     OW40472  13.441   7.148  10.203
46192SOL    HW140473  13.523   7.190  10.229
46192SOL    HW240474  13.430   7.077  10.265
46193SOL     OW40475   2.084   7.756  14.200
46193SOL    HW140476   2.046   7.683  14.152
46193SOL    HW240477   2.135   7.715  14.269
46194SOL     OW40478   6.510   0.782   7.911
46194SOL    HW140479   6.556   0.854   7.954
46194SOL    HW240480   6.421   0.785   7.947
46195SOL     OW40481   6.984   7.125   8.678
46195SOL    HW140482   7.043   7.149   8.749
46195SOL    HW240483   7.034   7.063   8.624
46196SOL     OW40484  11.372   8.767  13.951
46196SOL    HW140485  11.396   8.708  14.022
46196SOL    HW240486  11.447   8.767  13.892
46197SOL     OW40487  13.460  13.631   4.034
46197SOL    HW140488  13.439  13.723   4.051
46197SOL    HW240489  13.470  13.593   4.122
46198SOL     OW40490  11.420   1.461   0.930
46198SOL    HW140491  11.349   1.429   0.875
46198SOL    HW240492  11.498   1.418   0.897
46199SOL     OW40493  13.684  11.408  14.148
46199SOL    HW140494  13.766  11.421  14.099
46199SOL    HW240495  13.702  11.447  14.234
46200SOL     OW40496   4.406   9.215   9.550
46200SOL    HW140497   4.409   9.206   9.455
46200SOL    HW240498   4.352   9.293   9.565
46201SOL     OW40499  10.258   8.174  11.399
46201SOL    HW140500  10.305   8.198  11.479
46201SOL    HW240501  10.325   8.176  11.330
46202SOL     OW40502  14.552  13.529   8.707
46202SOL    HW140503  14.568  13.485   8.623
46202SOL    HW240504  14.566  13.461   8.773
46203SOL     OW40505   0.989   6.766   7.348
46203SOL    HW140506   1.080   6.757   7.374
46203SOL    HW240507   0.982   6.857   7.319
46204SOL     OW40508  13.777  12.428  11.588
46204SOL    HW140509  13.692  12.434  11.545
46204SOL    HW240510  13.821  12.355  11.545
46205SOL     OW40511   8.779  10.947   9.593
46205SOL    HW140512   8.807  11.032   9.626
46205SOL    HW240513   8.860  10.901   9.571
46206SOL     OW40514   6.951   4.512   1.579
46206SOL    HW140515   6.906   4.427   1.571
46206SOL    HW240516   6.933   4.540   1.669
46207SOL     OW40517   6.264   0.315   4.737
46207SOL    HW140518   6.189   0.366   4.708
46207SOL    HW240519   6.255   0.231   4.692
46208SOL     OW40520   2.376  13.581   3.202
46208SOL    HW140521   2.377  13.671   3.236
46208SOL    HW240522   2.347  13.590   3.111
46209SOL     OW40523   1.489   9.547  10.580
46209SOL    HW140524   1.434   9.614  10.620
46209SOL    HW240525   1.571   9.549  10.631
46210SOL     OW40526   9.854   2.442   5.457
46210SOL    HW140527   9.914   2.439   5.382
46210SOL    HW240528   9.771   2.410   5.424
46211SOL     OW40529  14.517   5.258   2.258
46211SOL    HW140530  14.445   5.215   2.213
46211SOL    HW240531  14.550   5.192   2.320
46212SOL     OW40532   7.178  13.442   8.254
46212SOL    HW140533   7.271  13.429   8.271
46212SOL    HW240534   7.156  13.522   8.302
46213SOL     OW40535  14.544   7.219  10.369
46213SOL    HW140536  14.490   7.223  10.290
46213SOL    HW240537  14.625   7.176  10.340
46214SOL     OW40538   0.713   4.008   6.318
46214SOL    HW140539   0.647   3.976   6.257
46214SOL    HW240540   0.793   3.960   6.294
46215SOL     OW40541  12.145   0.608   0.825
46215SOL    HW140542  12.118   0.518   0.807
46215SOL    HW240543  12.203   0.630   0.753
46216SOL     OW40544  13.019  12.125   7.946
46216SOL    HW140545  13.024  12.193   8.013
46216SOL    HW240546  13.109  12.118   7.913
46217SOL     OW40547  10.902   8.355   1.382
46217SOL    HW140548  10.821   8.311   1.356
46217SOL    HW240549  10.933   8.305   1.457
46218SOL     OW40550   4.333  10.543  13.663
46218SOL    HW140551   4.425  10.530  13.687
46218SOL    HW240552   4.284  10.492  13.728
46219SOL     OW40553  14.319   3.174   2.796
46219SOL    HW140554  14.307   3.141   2.885
46219SOL    HW240555  14.340   3.266   2.807
46220SOL     OW40556   9.085  14.321  12.386
46220SOL    HW140557   9.008  14.372  12.358
46220SOL    HW240558   9.048  14.249  12.437
46221SOL     OW40559  12.195   7.933   2.620
46221SOL    HW140560  12.288   7.939   2.598
46221SOL    HW240561  12.193   7.890   2.705
46222SOL     OW40562   2.203  11.625   5.687
46222SOL    HW140563   2.217  11.636   5.593
46222SOL    HW240564   2.261  11.552   5.712
46223SOL     OW40565   4.567   3.469   1.907
46223SOL    HW140566   4.519   3.543   1.872
46223SOL    HW240567   4.506   3.426   1.967
46224SOL     OW40568  10.350   0.912   7.796
46224SOL    HW140569  10.412   0.968   7.844
46224SOL    HW240570  10.302   0.866   7.865
46225SOL     OW40571   3.055   9.221   0.176
46225SOL    HW140572   3.040   9.206   0.083
46225SOL    HW240573   3.029   9.139   0.218
46226SOL     OW40574  14.263  12.577  14.472
46226SOL    HW140575  14.277  12.668  14.497
46226SOL    HW240576  14.209  12.541  14.542
46227SOL     OW40577   7.944   9.650   0.813
46227SOL    HW140578   7.872   9.601   0.773
46227SOL    HW240579   8.023   9.600   0.791
46228SOL     OW40580   7.139  13.237   5.754
46228SOL    HW140581   7.085  13.205   5.827
46228SOL    HW240582   7.228  13.211   5.778
46229SOL     OW40583   0.643   5.042   0.374
46229SOL    HW140584   0.670   5.032   0.283
46229SOL    HW240585   0.597   4.961   0.395
46230SOL     OW40586  14.597   4.366  12.167
46230SOL    HW140587  14.598   4.440  12.107
46230SOL    HW240588  14.593   4.289  12.110
46231SOL     OW40589  13.825  11.537   4.183
46231SOL    HW140590  13.896  11.580   4.230
46231SOL    HW240591  13.747  11.557   4.234
46232SOL     OW40592   0.168   0.669   5.439
46232SOL    HW140593   0.186   0.695   5.349
46232SOL    HW240594   0.254   0.667   5.481
46233SOL     OW40595   8.247   6.923  14.164
46233SOL    HW140596   8.176   6.987  14.162
46233SOL    HW240597   8.289   6.930  14.078
46234SOL     OW40598   0.718   2.758   8.897
46234SOL    HW140599   0.790   2.781   8.838
46234SOL    HW240600   0.748   2.788   8.984
46235SOL     OW40601   8.029   9.235  13.429
46235SOL    HW140602   8.075   9.317  13.449
46235SOL    HW240603   8.096   9.179  13.389
46236SOL     OW40604  13.418   9.647  11.318
46236SOL    HW140605  13.502   9.633  11.275
46236SOL    HW240606  13.354   9.643  11.247
46237SOL     OW40607   9.469   1.492   6.408
46237SOL    HW140608   9.543   1.524   6.357
46237SOL    HW240609   9.393   1.535   6.369
46238SOL     OW40610   4.128  11.065   5.372
46238SOL    HW140611   4.081  11.016   5.440
46238SOL    HW240612   4.196  11.005   5.342
46239SOL     OW40613  12.813  11.251  13.674
46239SOL    HW140614  12.750  11.212  13.735
46239SOL    HW240615  12.814  11.344  13.696
46240SOL     OW40616  13.161   8.861   3.649
46240SOL    HW140617  13.142   8.939   3.702
46240SOL    HW240618  13.089   8.858   3.585
46241SOL     OW40619   0.055  11.559   8.403
46241SOL    HW140620  14.847  11.526   8.377
46241SOL    HW240621   0.108  11.481   8.417
46242SOL     OW40622   1.084  14.508   9.149
46242SOL    HW140623   1.008  14.528   9.203
46242SOL    HW240624   1.088  14.579   9.085
46243SOL     OW40625  14.489  11.649   3.446
46243SOL    HW140626  14.568  11.603   3.472
46243SOL    HW240627  14.520  11.733   3.413
46244SOL     OW40628   0.744   4.049   0.705
46244SOL    HW140629   0.806   3.978   0.690
46244SOL    HW240630   0.779   4.095   0.781
46245SOL     OW40631   6.124  10.285   3.577
46245SOL    HW140632   6.052  10.301   3.516
46245SOL    HW240633   6.116  10.192   3.600
46246SOL     OW40634   9.690  13.166   0.338
46246SOL    HW140635   9.776  13.203   0.359
46246SOL    HW240636   9.658  13.219   0.265
46247SOL     OW40637  14.310   9.290   2.740
46247SOL    HW140638  14.360   9.361   2.780
46247SOL    HW240639  14.361   9.211   2.760
46248SOL     OW40640   5.385   6.683  10.547
46248SOL    HW140641   5.456   6.738  10.514
46248SOL    HW240642   5.428   6.602  10.574
46249SOL     OW40643  10.382   4.913  12.618
46249SOL    HW140644  10.371   4.818  12.620
46249SOL    HW240645  10.446   4.932  12.686
46250SOL     OW40646   6.457   1.398   2.051
46250SOL    HW140647   6.448   1.429   1.961
46250SOL    HW240648   6.451   1.477   2.105
46251SOL     OW40649   5.403  13.377  14.306
46251SOL    HW140650   5.444  13.303  14.349
46251SOL    HW240651   5.437  13.454  14.353
46252SOL     OW40652  10.144   3.292  13.748
46252SOL    HW140653  10.217   3.341  13.785
46252SOL    HW240654  10.170   3.278  13.657
46253SOL     OW40655   2.581  14.669   7.663
46253SOL    HW140656   2.556  14.754   7.701
46253SOL    HW240657   2.664  14.688   7.618
46254SOL     OW40658  12.265  13.398   1.230
46254SOL    HW140659  12.185  13.352   1.207
46254SOL    HW240660  12.306  13.418   1.145
46255SOL     OW40661  10.356   9.718   3.563
46255SOL    HW140662  10.406   9.799   3.556
46255SOL    HW240663  10.420   9.649   3.544
46256SOL     OW40664   8.731  11.619  14.346
46256SOL    HW140665   8.756  11.532  14.380
46256SOL    HW240666   8.638  11.627  14.369
46257SOL     OW40667  11.631   2.560  11.063
46257SOL    HW140668  11.722   2.528  11.060
46257SOL    HW240669  11.603   2.544  11.153
46258SOL     OW40670   1.161   1.768   1.944
46258SOL    HW140671   1.135   1.853   1.909
46258SOL    HW240672   1.081   1.715   1.942
46259SOL     OW40673   2.454   5.399   9.342
46259SOL    HW140674   2.430   5.307   9.333
46259SOL    HW240675   2.445   5.435   9.254
46260SOL     OW40676  12.285   8.954   7.222
46260SOL    HW140677  12.380   8.951   7.218
46260SOL    HW240678  12.257   8.927   7.134
46261SOL     OW40679  13.962   6.123  13.385
46261SOL    HW140680  13.910   6.204  13.385
46261SOL    HW240681  14.013   6.128  13.466
46262SOL     OW40682  12.477  10.660  11.679
46262SOL    HW140683  12.557  10.667  11.731
46262SOL    HW240684  12.407  10.685  11.739
46263SOL     OW40685   1.350   1.005   4.767
46263SOL    HW140686   1.336   0.931   4.826
46263SOL    HW240687   1.375   0.965   4.683
46264SOL     OW40688   4.535   0.640   7.596
46264SOL    HW140689   4.625   0.668   7.578
46264SOL    HW240690   4.542   0.547   7.617
46265SOL     OW40691  11.746  10.609  12.596
46265SOL    HW140692  11.737  10.552  12.520
46265SOL    HW240693  11.805  10.679  12.566
46266SOL     OW40694   0.385   4.815  14.416
46266SOL    HW140695   0.472   4.801  14.381
46266SOL    HW240696   0.331   4.838  14.340
46267SOL     OW40697   4.157  12.110  12.785
46267SOL    HW140698   4.173  12.190  12.835
46267SOL    HW240699   4.066  12.088  12.805
46268SOL     OW40700  12.543  10.800   7.525
46268SOL    HW140701  12.592  10.878   7.550
46268SOL    HW240702  12.573  10.732   7.585
46269SOL     OW40703   2.722   2.573  14.157
46269SOL    HW140704   2.655   2.555  14.223
46269SOL    HW240705   2.800   2.597  14.208
46270SOL     OW40706   2.772   1.918  12.713
46270SOL    HW140707   2.861   1.886  12.696
46270SOL    HW240708   2.739   1.940  12.626
46271SOL     OW40709  14.769   2.549   7.283
46271SOL    HW140710  14.780   2.521   7.192
46271SOL    HW240711  14.814   2.634   7.288
46272SOL     OW40712   9.400   6.910  12.739
46272SOL    HW140713   9.350   6.904  12.657
46272SOL    HW240714   9.409   6.819  12.768
46273SOL     OW40715   9.466  13.768   9.431
46273SOL    HW140716   9.546  13.716   9.428
46273SOL    HW240717   9.451  13.793   9.339
46274SOL     OW40718   9.427  10.120  11.913
46274SOL    HW140719   9.468  10.169  11.985
46274SOL    HW240720   9.366  10.060  11.955
46275SOL     OW40721   1.274   3.530   3.348
46275SOL    HW140722   1.282   3.561   3.257
46275SOL    HW240723   1.208   3.461   3.344
46276SOL     OW40724   7.499   7.561   2.198
46276SOL    HW140725   7.548   7.643   2.194
46276SOL    HW240726   7.462   7.550   2.111
46277SOL     OW40727  12.407   9.058  12.382
46277SOL    HW140728  12.315   9.059  12.407
46277SOL    HW240729  12.444   9.135  12.426
46278SOL     OW40730   6.692   4.097   3.667
46278SOL    HW140731   6.625   4.047   3.714
46278SOL    HW240732   6.757   4.119   3.734
46279SOL     OW40733  12.920   3.390  14.355
46279SOL    HW140734  12.889   3.347  14.274
46279SOL    HW240735  12.861   3.465  14.366
46280SOL     OW40736  13.145   5.805   3.234
46280SOL    HW140737  13.084   5.801   3.308
46280SOL    HW240738  13.092   5.842   3.162
46281SOL     OW40739   9.160  13.275   9.751
46281SOL    HW140740   9.120  13.305   9.832
46281SOL    HW240741   9.229  13.339   9.733
46282SOL     OW40742   2.184  14.060  14.279
46282SOL    HW140743   2.161  14.039  14.369
46282SOL    HW240744   2.230  14.144  14.284
46283SOL     OW40745   9.076   0.012   5.405
46283SOL    HW140746   8.981   0.019   5.419
46283SOL    HW240747   9.084  14.848   5.320
46284SOL     OW40748   2.660  10.741   7.047
46284SOL    HW140749   2.612  10.762   7.127
46284SOL    HW240750   2.610  10.671   7.006
46285SOL     OW40751   4.282   2.402  10.969
46285SOL    HW140752   4.219   2.332  10.954
46285SOL    HW240753   4.325   2.414  10.884
46286SOL     OW40754   3.773   0.502  13.761
46286SOL    HW140755   3.678   0.501  13.774
46286SOL    HW240756   3.786   0.564  13.688
46287SOL     OW40757   2.762   9.140  13.048
46287SOL    HW140758   2.795   9.219  13.004
46287SOL    HW240759   2.811   9.138  13.131
46288SOL     OW40760   3.030   5.940  14.725
46288SOL    HW140761   3.102   5.891  14.764
46288SOL    HW240762   2.974   5.964  14.799
46289SOL     OW40763   4.049  10.210  12.068
46289SOL    HW140764   4.098  10.184  11.990
46289SOL    HW240765   4.114  10.210  12.139
46290SOL     OW40766  14.441   6.989   2.277
46290SOL    HW140767  14.366   6.967   2.332
46290SOL    HW240768  14.417   7.074   2.239
46291SOL     OW40769   1.914   2.876  11.721
46291SOL    HW140770   1.954   2.813  11.660
46291SOL    HW240771   1.825   2.842  11.735
46292SOL     OW40772  14.618  12.717   8.584
46292SOL    HW140773  14.605  12.626   8.609
46292SOL    HW240774  14.695  12.744   8.634
46293SOL     OW40775  13.225  10.388  12.604
46293SOL    HW140776  13.292  10.344  12.657
46293SOL    HW240777  13.170  10.317  12.572
46294SOL     OW40778  12.371   5.633   1.132
46294SOL    HW140779  12.362   5.602   1.222
46294SOL    HW240780  12.293   5.686   1.117
46295SOL     OW40781   4.808  13.853  10.238
46295SOL    HW140782   4.784  13.843  10.146
46295SOL    HW240783   4.784  13.770  10.279
46296SOL     OW40784   2.880   0.873   9.717
46296SOL    HW140785   2.914   0.915   9.638
46296SOL    HW240786   2.807   0.820   9.686
46297SOL     OW40787   2.006   5.174   1.184
46297SOL    HW140788   2.005   5.079   1.169
46297SOL    HW240789   1.957   5.186   1.265
46298SOL     OW40790   4.120   1.972   6.021
46298SOL    HW140791   4.047   1.945   6.077
46298SOL    HW240792   4.163   1.890   5.997
46299SOL     OW40793  13.768  14.308   2.523
46299SOL    HW140794  13.712  14.378   2.555
46299SOL    HW240795  13.853  14.323   2.565
46300SOL     OW40796   8.883   5.664  14.751
46300SOL    HW140797   8.852   5.751  14.726
46300SOL    HW240798   8.942   5.638  14.680
46301SOL     OW40799   0.064  10.183  12.617
46301SOL    HW140800  14.873  10.121  12.644
46301SOL    HW240801   0.052  10.192  12.523
46302SOL     OW40802   3.114  11.813   3.835
46302SOL    HW140803   3.166  11.757   3.894
46302SOL    HW240804   3.139  11.902   3.858
46303SOL     OW40805  12.644   6.886  10.268
46303SOL    HW140806  12.583   6.813  10.274
46303SOL    HW240807  12.722   6.856  10.314
46304SOL     OW40808  11.030   7.653   2.173
46304SOL    HW140809  11.099   7.594   2.143
46304SOL    HW240810  10.949   7.604   2.162
46305SOL     OW40811   5.761   1.771   7.421
46305SOL    HW140812   5.749   1.692   7.473
46305SOL    HW240813   5.818   1.744   7.349
46306SOL     OW40814  11.146   8.708   3.308
46306SOL    HW140815  11.171   8.794   3.340
46306SOL    HW240816  11.185   8.702   3.221
46307SOL     OW40817   7.122  12.964   5.159
46307SOL    HW140818   7.058  13.020   5.116
46307SOL    HW240819   7.142  12.897   5.094
46308SOL     OW40820  10.393   9.823   0.564
46308SOL    HW140821  10.347   9.883   0.622
46308SOL    HW240822  10.424   9.879   0.492
46309SOL     OW40823  14.543  11.303  14.553
46309SOL    HW140824  14.494  11.340  14.479
46309SOL    HW240825  14.635  11.312  14.529
46310SOL     OW40826  12.345   9.009  11.054
46310SOL    HW140827  12.305   9.095  11.070
46310SOL    HW240828  12.353   9.004  10.958
46311SOL     OW40829   1.317  11.318  13.577
46311SOL    HW140830   1.245  11.313  13.640
46311SOL    HW240831   1.333  11.412  13.567
46312SOL     OW40832  13.140   4.731   0.762
46312SOL    HW140833  13.199   4.661   0.734
46312SOL    HW240834  13.180   4.811   0.728
46313SOL     OW40835   0.526   7.885   5.018
46313SOL    HW140836   0.510   7.798   4.981
46313SOL    HW240837   0.620   7.888   5.034
46314SOL     OW40838   8.565   9.230  12.975
46314SOL    HW140839   8.555   9.315  12.932
46314SOL    HW240840   8.478   9.190  12.970
46315SOL     OW40841   7.329  13.821  10.093
46315SOL    HW140842   7.376  13.859  10.167
46315SOL    HW240843   7.285  13.895  10.051
46316SOL     OW40844  13.847   1.694   8.625
46316SOL    HW140845  13.801   1.648   8.695
46316SOL    HW240846  13.921   1.737   8.669
46317SOL     OW40847  10.874   6.723  14.347
46317SOL    HW140848  10.802   6.768  14.394
46317SOL    HW240849  10.871   6.760  14.259
46318SOL     OW40850  13.241   4.494   0.626
46318SOL    HW140851  13.169   4.505   0.564
46318SOL    HW240852  13.309   4.555   0.596
46319SOL     OW40853   1.868   2.140  10.656
46319SOL    HW140854   1.881   2.225  10.698
46319SOL    HW240855   1.780   2.146  10.617
46320SOL     OW40856   2.114   4.981   2.984
46320SOL    HW140857   2.201   4.952   2.958
46320SOL    HW240858   2.128   5.035   3.062
46321SOL     OW40859   9.233   4.916  12.847
46321SOL    HW140860   9.328   4.920  12.859
46321SOL    HW240861   9.221   4.889  12.756
46322SOL     OW40862   7.694  10.532   8.309
46322SOL    HW140863   7.655  10.600   8.364
46322SOL    HW240864   7.623  10.469   8.295
46323SOL     OW40865  10.139   5.346   1.450
46323SOL    HW140866  10.227   5.370   1.479
46323SOL    HW240867  10.128   5.256   1.480
46324SOL     OW40868   5.781   8.918  13.804
46324SOL    HW140869   5.870   8.910  13.770
46324SOL    HW240870   5.761   9.011  13.794
46325SOL     OW40871   9.466  11.980   4.339
46325SOL    HW140872   9.542  12.024   4.375
46325SOL    HW240873   9.502  11.912   4.282
46326SOL     OW40874   5.602   4.009   3.960
46326SOL    HW140875   5.676   4.064   3.933
46326SOL    HW240876   5.525   4.059   3.935
46327SOL     OW40877  13.393   9.469  10.847
46327SOL    HW140878  13.392   9.376  10.826
46327SOL    HW240879  13.326   9.507  10.790
46328SOL     OW40880  12.326  14.727   4.728
46328SOL    HW140881  12.244  14.761   4.764
46328SOL    HW240882  12.378  14.703   4.804
46329SOL     OW40883   6.477   0.951  14.425
46329SOL    HW140884   6.549   0.888  14.431
46329SOL    HW240885   6.401   0.903  14.459
46330SOL     OW40886   9.863   3.426   8.802
46330SOL    HW140887   9.867   3.383   8.888
46330SOL    HW240888   9.837   3.356   8.742
46331SOL     OW40889   9.177   6.392   9.850
46331SOL    HW140890   9.225   6.365   9.929
46331SOL    HW240891   9.153   6.310   9.807
46332SOL     OW40892   4.398   5.127   9.075
46332SOL    HW140893   4.447   5.159   8.999
46332SOL    HW240894   4.314   5.099   9.038
46333SOL     OW40895   8.565   5.677  11.315
46333SOL    HW140896   8.548   5.762  11.273
46333SOL    HW240897   8.479   5.645  11.341
46334SOL     OW40898   7.332   8.956   0.890
46334SOL    HW140899   7.352   8.890   0.823
46334SOL    HW240900   7.259   9.006   0.853
46335SOL     OW40901   8.870   5.520   1.231
46335SOL    HW140902   8.910   5.494   1.315
46335SOL    HW240903   8.810   5.591   1.254
46336SOL     OW40904   8.428  13.120   4.965
46336SOL    HW140905   8.334  13.112   4.978
46336SOL    HW240906   8.441  13.114   4.871
46337SOL     OW40907  14.094   4.741   4.199
46337SOL    HW140908  14.024   4.804   4.215
46337SOL    HW240909  14.174   4.786   4.227
46338SOL     OW40910  11.222   2.407   5.766
46338SOL    HW140911  11.302   2.436   5.723
46338SOL    HW240912  11.250   2.379   5.853
46339SOL     OW40913  11.093  11.249  10.439
46339SOL    HW140914  11.109  11.238  10.345
46339SOL    HW240915  11.017  11.307  10.443
46340SOL     OW40916  13.557   0.146   3.043
46340SOL    HW140917  13.605   0.229   3.047
46340SOL    HW240918  13.625   0.079   3.041
46341SOL     OW40919   1.966  11.321  11.104
46341SOL    HW140920   1.948  11.408  11.071
46341SOL    HW240921   1.933  11.321  11.194
46342SOL     OW40922   3.084   3.435   7.240
46342SOL    HW140923   3.073   3.396   7.153
46342SOL    HW240924   3.090   3.529   7.223
46343SOL     OW40925  11.816   4.842   1.485
46343SOL    HW140926  11.785   4.751   1.483
46343SOL    HW240927  11.739   4.894   1.461
46344SOL     OW40928   3.414   8.664   7.729
46344SOL    HW140929   3.339   8.707   7.687
46344SOL    HW240930   3.439   8.724   7.799
46345SOL     OW40931   2.325   2.807   7.093
46345SOL    HW140932   2.258   2.829   7.158
46345SOL    HW240933   2.307   2.716   7.070
46346SOL     OW40934   4.620   6.985   2.670
46346SOL    HW140935   4.569   6.928   2.728
46346SOL    HW240936   4.580   7.071   2.680
46347SOL     OW40937   5.731  10.286  11.102
46347SOL    HW140938   5.753  10.200  11.137
46347SOL    HW240939   5.648  10.274  11.058
46348SOL     OW40940  12.784   4.877  13.725
46348SOL    HW140941  12.789   4.902  13.632
46348SOL    HW240942  12.758   4.784  13.723
46349SOL     OW40943   8.025   0.108   8.249
46349SOL    HW140944   8.014   0.203   8.243
46349SOL    HW240945   8.025   0.090   8.343
46350SOL     OW40946  12.642   5.262   1.904
46350SOL    HW140947  12.603   5.275   1.817
46350SOL    HW240948  12.617   5.341   1.952
46351SOL     OW40949   1.725   8.050   4.306
46351SOL    HW140950   1.719   7.959   4.337
46351SOL    HW240951   1.783   8.046   4.231
46352SOL     OW40952   6.543  11.441   0.291
46352SOL    HW140953   6.622  11.394   0.263
46352SOL    HW240954   6.511  11.390   0.366
46353SOL     OW40955  10.517  11.267  13.246
46353SOL    HW140956  10.574  11.296  13.175
46353SOL    HW240957  10.489  11.179  13.221
46354SOL     OW40958   7.237   7.190   9.271
46354SOL    HW140959   7.291   7.113   9.260
46354SOL    HW240960   7.291   7.262   9.239
46355SOL     OW40961   5.013   9.039  12.334
46355SOL    HW140962   4.921   9.018  12.353
46355SOL    HW240963   5.026   9.009  12.244
46356SOL     OW40964   4.306   2.655   9.777
46356SOL    HW140965   4.363   2.626   9.706
46356SOL    HW240966   4.364   2.663   9.853
46357SOL     OW40967   6.506   3.057   2.959
46357SOL    HW140968   6.523   3.150   2.944
46357SOL    HW240969   6.535   3.014   2.879
46358SOL     OW40970   4.802  10.974  13.804
46358SOL    HW140971   4.743  10.898  13.806
46358SOL    HW240972   4.826  10.987  13.896
46359SOL     OW40973   4.613   6.728   0.502
46359SOL    HW140974   4.529   6.741   0.545
46359SOL    HW240975   4.677   6.734   0.572
46360SOL     OW40976  10.719  11.690   1.831
46360SOL    HW140977  10.655  11.754   1.860
46360SOL    HW240978  10.688  11.664   1.744
46361SOL     OW40979   7.343   7.617  13.807
46361SOL    HW140980   7.340   7.691  13.867
46361SOL    HW240981   7.368   7.655  13.722
46362SOL     OW40982   1.245  12.643  13.849
46362SOL    HW140983   1.250  12.661  13.755
46362SOL    HW240984   1.183  12.570  13.856
46363SOL     OW40985   1.383   6.979   8.256
46363SOL    HW140986   1.400   6.962   8.163
46363SOL    HW240987   1.395   6.894   8.298
46364SOL     OW40988   3.803   9.882   7.386
46364SOL    HW140989   3.760   9.948   7.440
46364SOL    HW240990   3.877   9.851   7.439
46365SOL     OW40991   7.809  10.438   4.850
46365SOL    HW140992   7.869  10.372   4.885
46365SOL    HW240993   7.866  10.497   4.800
46366SOL     OW40994   8.416   7.822  11.454
46366SOL    HW140995   8.342   7.776  11.414
46366SOL    HW240996   8.466   7.754  11.497
46367SOL     OW40997   5.290   2.085   3.732
46367SOL    HW140998   5.248   2.093   3.817
46367SOL    HW240999   5.329   1.998   3.732
46368SOL     OW41000  13.641  11.267   3.145
46368SOL    HW141001  13.602  11.226   3.222
46368SOL    HW241002  13.650  11.195   3.082
46369SOL     OW41003   1.561   7.803   8.745
46369SOL    HW141004   1.581   7.894   8.764
46369SOL    HW241005   1.471   7.804   8.712
46370SOL     OW41006  10.012   7.316   3.862
46370SOL    HW141007  10.060   7.334   3.943
46370SOL    HW241008  10.017   7.399   3.813
46371SOL     OW41009   4.675   1.241   6.084
46371SOL    HW141010   4.678   1.280   5.996
46371SOL    HW241011   4.582   1.246   6.109
46372SOL     OW41012   5.724   2.460   4.094
46372SOL    HW141013   5.675   2.384   4.125
46372SOL    HW241014   5.661   2.532   4.097
46373SOL     OW41015  12.642   2.609   4.453
46373SOL    HW141016  12.619   2.646   4.538
46373SOL    HW241017  12.727   2.566   4.467
46374SOL     OW41018   3.738   5.371   7.710
46374SOL    HW141019   3.810   5.433   7.699
46374SOL    HW241020   3.777   5.286   7.689
46375SOL     OW41021   6.072   7.291   9.488
46375SOL    HW141022   6.168   7.296   9.487
46375SOL    HW241023   6.053   7.201   9.514
46376SOL     OW41024   0.032   2.158   9.710
46376SOL    HW141025   0.024   2.066   9.688
46376SOL    HW241026  14.821   2.184   9.739
46377SOL     OW41027   2.098   8.962   9.226
46377SOL    HW141028   2.082   9.047   9.186
46377SOL    HW241029   2.034   8.956   9.297
46378SOL     OW41030   8.545  13.582   9.753
46378SOL    HW141031   8.554  13.675   9.776
46378SOL    HW241032   8.635  13.553   9.736
46379SOL     OW41033   9.919  12.832   3.873
46379SOL    HW141034   9.915  12.928   3.876
46379SOL    HW241035   9.965  12.811   3.792
46380SOL     OW41036   6.875   6.352  12.585
46380SOL    HW141037   6.797   6.394  12.548
46380SOL    HW241038   6.894   6.280  12.525
46381SOL     OW41039   0.382   1.374   0.754
46381SOL    HW141040   0.476   1.361   0.771
46381SOL    HW241041   0.367   1.329   0.671
46382SOL     OW41042   2.121   5.414   2.268
46382SOL    HW141043   2.197   5.372   2.229
46382SOL    HW241044   2.053   5.346   2.265
46383SOL     OW41045  14.075   7.348  14.215
46383SOL    HW141046  14.125   7.389  14.285
46383SOL    HW241047  14.130   7.357  14.137
46384SOL     OW41048   7.595   1.240  11.609
46384SOL    HW141049   7.529   1.186  11.653
46384SOL    HW241050   7.544   1.298  11.552
46385SOL     OW41051   4.869   6.801   1.990
46385SOL    HW141052   4.818   6.721   1.975
46385SOL    HW241053   4.823   6.869   1.940
46386SOL     OW41054   2.569   6.230   6.040
46386SOL    HW141055   2.479   6.256   6.062
46386SOL    HW241056   2.621   6.309   6.051
46387SOL     OW41057  11.410   3.729   5.109
46387SOL    HW141058  11.378   3.650   5.152
46387SOL    HW241059  11.332   3.773   5.077
46388SOL     OW41060   7.875   5.272   2.174
46388SOL    HW141061   7.856   5.189   2.218
46388SOL    HW241062   7.794   5.322   2.181
46389SOL     OW41063  11.941   5.027  13.003
46389SOL    HW141064  11.897   5.005  13.085
46389SOL    HW241065  11.887   4.989  12.934
46390SOL     OW41066  13.156  13.525   5.279
46390SOL    HW141067  13.193  13.595   5.225
46390SOL    HW241068  13.203  13.446   5.251
46391SOL     OW41069   0.572  10.386   3.516
46391SOL    HW141070   0.588  10.477   3.490
46391SOL    HW241071   0.657  10.343   3.506
46392SOL     OW41072   7.023  14.382   9.911
46392SOL    HW141073   7.011  14.328   9.833
46392SOL    HW241074   7.035  14.319   9.982
46393SOL     OW41075   5.176  14.739   4.605
46393SOL    HW141076   5.129  14.660   4.632
46393SOL    HW241077   5.109  14.808   4.607
46394SOL     OW41078  12.850   7.578  10.620
46394SOL    HW141079  12.803   7.547  10.699
46394SOL    HW241080  12.836   7.508  10.556
46395SOL     OW41081  10.087   7.976   7.886
46395SOL    HW141082  10.106   8.064   7.920
46395SOL    HW241083  10.043   7.992   7.803
46396SOL     OW41084  11.679  10.711   4.305
46396SOL    HW141085  11.628  10.632   4.325
46396SOL    HW241086  11.630  10.756   4.237
46397SOL     OW41087   5.330   2.211   7.711
46397SOL    HW141088   5.368   2.294   7.681
46397SOL    HW241089   5.237   2.219   7.691
46398SOL     OW41090   6.102  10.271   4.913
46398SOL    HW141091   6.138  10.183   4.900
46398SOL    HW241092   6.026  10.257   4.970
46399SOL     OW41093   5.849  13.900   5.462
46399SOL    HW141094   5.780  13.936   5.406
46399SOL    HW241095   5.801  13.856   5.533
46400SOL     OW41096  12.770   6.483   2.304
46400SOL    HW141097  12.694   6.536   2.281
46400SOL    HW241098  12.782   6.497   2.398
46401SOL     OW41099   8.019   6.260  12.054
46401SOL    HW141100   7.924   6.268  12.065
46401SOL    HW241101   8.053   6.344  12.085
46402SOL     OW41102   3.449   3.495   0.201
46402SOL    HW141103   3.410   3.469   0.285
46402SOL    HW241104   3.532   3.537   0.225
46403SOL     OW41105  10.065   7.506   4.723
46403SOL    HW141106  10.006   7.581   4.713
46403SOL    HW241107  10.101   7.515   4.812
46404SOL     OW41108   4.785   7.681   2.622
46404SOL    HW141109   4.713   7.702   2.681
46404SOL    HW241110   4.860   7.728   2.658
46405SOL     OW41111   3.033   4.320   6.830
46405SOL    HW141112   3.042   4.361   6.744
46405SOL    HW241113   3.109   4.352   6.880
46406SOL     OW41114  13.225   2.415  13.206
46406SOL    HW141115  13.294   2.460  13.157
46406SOL    HW241116  13.171   2.373  13.139
46407SOL     OW41117   6.277  11.665   8.928
46407SOL    HW141118   6.194  11.680   8.974
46407SOL    HW241119   6.259  11.690   8.838
46408SOL     OW41120  13.827   6.853  10.298
46408SOL    HW141121  13.851   6.764  10.275
46408SOL    HW241122  13.862   6.907  10.228
46409SOL     OW41123   7.559   6.601   7.943
46409SOL    HW141124   7.575   6.687   7.982
46409SOL    HW241125   7.626   6.592   7.875
46410SOL     OW41126  13.357   4.942   5.962
46410SOL    HW141127  13.452   4.941   5.949
46410SOL    HW241128  13.340   4.865   6.017
46411SOL     OW41129  13.245   8.912  11.928
46411SOL    HW141130  13.279   8.827  11.901
46411SOL    HW241131  13.237   8.962  11.847
46412SOL     OW41132   7.445   0.226  14.069
46412SOL    HW141133   7.441   0.168  14.145
46412SOL    HW241134   7.501   0.298  14.097
46413SOL     OW41135   6.755   3.173   7.916
46413SOL    HW141136   6.806   3.232   7.971
46413SOL    HW241137   6.796   3.179   7.830
46414SOL     OW41138   9.381  11.946   9.264
46414SOL    HW141139   9.361  11.910   9.177
46414SOL    HW241140   9.389  12.040   9.250
46415SOL     OW41141   0.362   8.932   3.927
46415SOL    HW141142   0.317   9.016   3.930
46415SOL    HW241143   0.444   8.951   3.880
46416SOL     OW41144   9.156   8.268   0.651
46416SOL    HW141145   9.083   8.317   0.613
46416SOL    HW241146   9.223   8.335   0.667
46417SOL     OW41147   2.127   3.393   5.642
46417SOL    HW141148   2.125   3.328   5.712
46417SOL    HW241149   2.036   3.418   5.628
46418SOL     OW41150   2.868   4.044  11.039
46418SOL    HW141151   2.962   4.025  11.042
46418SOL    HW241152   2.864   4.136  11.015
46419SOL     OW41153   7.592   5.289  12.298
46419SOL    HW141154   7.589   5.323  12.209
46419SOL    HW241155   7.555   5.201  12.291
46420SOL     OW41156  10.515   6.035   7.183
46420SOL    HW141157  10.488   5.954   7.142
46420SOL    HW241158  10.462   6.042   7.262
46421SOL     OW41159   2.808  12.873  11.388
46421SOL    HW141160   2.876  12.939  11.403
46421SOL    HW241161   2.754  12.909  11.318
46422SOL     OW41162   7.740   5.358   4.989
46422SOL    HW141163   7.669   5.354   5.053
46422SOL    HW241164   7.812   5.309   5.028
46423SOL     OW41165   9.589   2.673   1.011
46423SOL    HW141166   9.632   2.707   0.934
46423SOL    HW241167   9.529   2.606   0.978
46424SOL     OW41168   4.265   1.539  12.614
46424SOL    HW141169   4.219   1.499  12.541
46424SOL    HW241170   4.208   1.611  12.642
46425SOL     OW41171   9.777   6.379   7.562
46425SOL    HW141172   9.788   6.440   7.489
46425SOL    HW241173   9.700   6.327   7.539
46426SOL     OW41174   0.923  11.889  11.223
46426SOL    HW141175   0.986  11.928  11.163
46426SOL    HW241176   0.971  11.818  11.265
46427SOL     OW41177   3.064   1.773   5.701
46427SOL    HW141178   3.120   1.706   5.660
46427SOL    HW241179   3.121   1.815   5.766
46428SOL     OW41180   2.992   3.485   7.975
46428SOL    HW141181   3.049   3.424   7.927
46428SOL    HW241182   3.053   3.544   8.020
46429SOL     OW41183   7.405   2.081   7.001
46429SOL    HW141184   7.460   2.148   6.960
46429SOL    HW241185   7.438   1.998   6.967
46430SOL     OW41186   5.445   7.524   2.154
46430SOL    HW141187   5.504   7.556   2.223
46430SOL    HW241188   5.494   7.453   2.113
46431SOL     OW41189   9.393   3.686   2.230
46431SOL    HW141190   9.322   3.627   2.254
46431SOL    HW241191   9.354   3.774   2.233
46432SOL     OW41192   5.829  11.131   7.941
46432SOL    HW141193   5.768  11.132   7.867
46432SOL    HW241194   5.772  11.128   8.018
46433SOL     OW41195  12.987   6.310  12.445
46433SOL    HW141196  13.022   6.362  12.373
46433SOL    HW241197  13.028   6.224  12.435
46434SOL     OW41198  13.449  13.020   1.117
46434SOL    HW141199  13.392  12.976   1.180
46434SOL    HW241200  13.499  13.083   1.169
46435SOL     OW41201  14.415  10.699  14.873
46435SOL    HW141202  14.451  10.621   0.038
46435SOL    HW241203  14.467  10.771   0.031
46436SOL     OW41204   3.731   8.418   9.971
46436SOL    HW141205   3.706   8.467  10.049
46436SOL    HW241206   3.689   8.332   9.982
46437SOL     OW41207  10.651  13.622  14.407
46437SOL    HW141208  10.644  13.716  14.421
46437SOL    HW241209  10.561  13.592  14.398
46438SOL     OW41210   8.375  12.170   8.264
46438SOL    HW141211   8.442  12.112   8.299
46438SOL    HW241212   8.303  12.165   8.327
46439SOL     OW41213   3.357  10.920   2.682
46439SOL    HW141214   3.336  10.906   2.775
46439SOL    HW241215   3.276  10.951   2.643
46440SOL     OW41216   3.039   0.309   0.489
46440SOL    HW141217   3.098   0.365   0.539
46440SOL    HW241218   3.037   0.226   0.537
46441SOL     OW41219   8.349   6.157   6.523
46441SOL    HW141220   8.424   6.109   6.487
46441SOL    HW241221   8.305   6.194   6.447
46442SOL     OW41222   1.896   4.334   5.509
46442SOL    HW141223   1.946   4.330   5.591
46442SOL    HW241224   1.963   4.335   5.440
46443SOL     OW41225   2.328  13.449   0.020
46443SOL    HW141226   2.312  13.356   0.032
46443SOL    HW241227   2.248  13.483  14.858
46444SOL     OW41228  14.179  14.373   9.224
46444SOL    HW141229  14.171  14.456   9.176
46444SOL    HW241230  14.110  14.318   9.188
46445SOL     OW41231   4.557   0.561  11.667
46445SOL    HW141232   4.590   0.540  11.754
46445SOL    HW241233   4.592   0.648  11.649
46446SOL     OW41234   2.021  13.532   5.841
46446SOL    HW141235   1.926  13.538   5.826
46446SOL    HW241236   2.036  13.581   5.922
46447SOL     OW41237   4.633   2.771   9.861
46447SOL    HW141238   4.708   2.829   9.871
46447SOL    HW241239   4.668   2.683   9.874
46448SOL     OW41240  14.188   7.362   9.039
46448SOL    HW141241  14.242   7.421   9.092
46448SOL    HW241242  14.148   7.303   9.103
46449SOL     OW41243   7.540   4.201  11.070
46449SOL    HW141244   7.488   4.159  11.002
46449SOL    HW241245   7.606   4.251  11.022
46450SOL     OW41246   4.388   0.507   7.400
46450SOL    HW141247   4.436   0.576   7.446
46450SOL    HW241248   4.316   0.553   7.356
46451SOL     OW41249   4.973   2.477   2.362
46451SOL    HW141250   4.877   2.482   2.359
46451SOL    HW241251   4.993   2.390   2.328
46452SOL     OW41252  13.075  12.538  13.934
46452SOL    HW141253  13.040  12.453  13.961
46452SOL    HW241254  13.169  12.532  13.950
46453SOL     OW41255   4.333  13.461  10.184
46453SOL    HW141256   4.329  13.518  10.262
46453SOL    HW241257   4.242  13.438  10.167
46454SOL     OW41258   8.368  14.312  14.738
46454SOL    HW141259   8.290  14.329  14.789
46454SOL    HW241260   8.428  14.269  14.799
46455SOL     OW41261   1.905   8.957  10.770
46455SOL    HW141262   1.968   8.990  10.706
46455SOL    HW241263   1.824   9.003  10.749
46456SOL     OW41264  12.154  13.336  13.139
46456SOL    HW141265  12.183  13.400  13.204
46456SOL    HW241266  12.082  13.289  13.182
46457SOL     OW41267   3.008   1.861   0.703
46457SOL    HW141268   3.027   1.881   0.795
46457SOL    HW241269   2.988   1.946   0.664
46458SOL     OW41270   2.117   5.780   2.412
46458SOL    HW141271   2.149   5.692   2.430
46458SOL    HW241272   2.112   5.822   2.498
46459SOL     OW41273   7.103   1.932  13.157
46459SOL    HW141274   7.070   1.843  13.173
46459SOL    HW241275   7.027   1.989  13.174
46460SOL     OW41276   1.410   6.856   5.511
46460SOL    HW141277   1.413   6.863   5.415
46460SOL    HW241278   1.322   6.883   5.534
46461SOL     OW41279   2.927   9.691   4.961
46461SOL    HW141280   2.890   9.616   5.008
46461SOL    HW241281   2.953   9.654   4.876
46462SOL     OW41282   7.777  13.191  12.000
46462SOL    HW141283   7.727  13.221  11.924
46462SOL    HW241284   7.788  13.268  12.055
46463SOL     OW41285   9.374   7.968   1.309
46463SOL    HW141286   9.386   7.879   1.276
46463SOL    HW241287   9.345   7.956   1.399
46464SOL     OW41288   2.881   8.483  11.806
46464SOL    HW141289   2.965   8.502  11.764
46464SOL    HW241290   2.847   8.568  11.832
46465SOL     OW41291   5.642   0.244  13.066
46465SOL    HW141292   5.638   0.296  12.986
46465SOL    HW241293   5.608   0.302  13.134
46466SOL     OW41294   8.182   8.248   9.533
46466SOL    HW141295   8.196   8.340   9.556
46466SOL    HW241296   8.253   8.227   9.473
46467SOL     OW41297   1.578   3.687   4.002
46467SOL    HW141298   1.500   3.633   3.987
46467SOL    HW241299   1.566   3.723   4.089
46468SOL     OW41300   1.336   1.464   4.056
46468SOL    HW141301   1.427   1.484   4.080
46468SOL    HW241302   1.330   1.368   4.064
46469SOL     OW41303   8.921   5.060   8.747
46469SOL    HW141304   8.985   5.019   8.805
46469SOL    HW241305   8.854   4.993   8.733
46470SOL     OW41306   0.824  11.190  11.900
46470SOL    HW141307   0.897  11.173  11.959
46470SOL    HW241308   0.747  11.158  11.948
46471SOL     OW41309  11.814  11.215  12.827
46471SOL    HW141310  11.750  11.187  12.892
46471SOL    HW241311  11.867  11.138  12.810
46472SOL     OW41312   2.871  12.359   8.588
46472SOL    HW141313   2.955  12.371   8.632
46472SOL    HW241314   2.806  12.388   8.652
46473SOL     OW41315   5.178  13.065   3.854
46473SOL    HW141316   5.147  12.987   3.899
46473SOL    HW241317   5.224  13.031   3.776
46474SOL     OW41318  11.431  14.613  13.127
46474SOL    HW141319  11.384  14.575  13.053
46474SOL    HW241320  11.368  14.673  13.168
46475SOL     OW41321  11.373  10.578   1.920
46475SOL    HW141322  11.279  10.594   1.929
46475SOL    HW241323  11.380  10.485   1.900
46476SOL     OW41324   2.282   9.416  13.893
46476SOL    HW141325   2.290   9.323  13.875
46476SOL    HW241326   2.310   9.458  13.811
46477SOL     OW41327   4.417  13.270   5.215
46477SOL    HW141328   4.427  13.192   5.270
46477SOL    HW241329   4.323  13.277   5.202
46478SOL     OW41330   1.974  11.439   8.015
46478SOL    HW141331   1.982  11.457   8.109
46478SOL    HW241332   2.000  11.347   8.006
46479SOL     OW41333  13.956  12.262  10.455
46479SOL    HW141334  14.029  12.213  10.494
46479SOL    HW241335  13.955  12.345  10.502
46480SOL     OW41336   7.401   2.162   1.079
46480SOL    HW141337   7.398   2.257   1.075
46480SOL    HW241338   7.313   2.134   1.053
46481SOL     OW41339  11.630  13.965   0.439
46481SOL    HW141340  11.610  13.982   0.347
46481SOL    HW241341  11.567  13.898   0.465
46482SOL     OW41342   8.959   4.940   4.928
46482SOL    HW141343   8.891   4.924   4.863
46482SOL    HW241344   8.974   5.034   4.924
46483SOL     OW41345  12.825   1.347   2.075
46483SOL    HW141346  12.862   1.415   2.017
46483SOL    HW241347  12.737   1.334   2.042
46484SOL     OW41348   2.732  11.767   9.758
46484SOL    HW141349   2.816  11.779   9.716
46484SOL    HW241350   2.668  11.770   9.687
46485SOL     OW41351   4.238   9.766  11.200
46485SOL    HW141352   4.224   9.860  11.188
46485SOL    HW241353   4.333   9.755  11.196
46486SOL     OW41354  11.999   6.632  10.734
46486SOL    HW141355  11.971   6.723  10.720
46486SOL    HW241356  11.934   6.580  10.686
46487SOL     OW41357   8.081   8.648   0.931
46487SOL    HW141358   7.990   8.625   0.949
46487SOL    HW241359   8.075   8.726   0.875
46488SOL     OW41360   7.784  12.258   2.728
46488SOL    HW141361   7.835  12.206   2.791
46488SOL    HW241362   7.844  12.328   2.701
46489SOL     OW41363  14.282   8.579   5.749
46489SOL    HW141364  14.349   8.520   5.713
46489SOL    HW241365  14.209   8.521   5.773
46490SOL     OW41366  10.944   0.679   0.436
46490SOL    HW141367  10.859   0.635   0.441
46490SOL    HW241368  10.923   0.772   0.444
46491SOL     OW41369  13.682   5.913   8.453
46491SOL    HW141370  13.620   5.881   8.387
46491SOL    HW241371  13.747   5.843   8.460
46492SOL     OW41372  14.382   5.004  10.393
46492SOL    HW141373  14.415   4.948  10.322
46492SOL    HW241374  14.364   5.088  10.351
46493SOL     OW41375   7.693   9.195   2.101
46493SOL    HW141376   7.735   9.133   2.042
46493SOL    HW241377   7.609   9.156   2.122
46494SOL     OW41378   9.229  11.222  13.576
46494SOL    HW141379   9.308  11.185  13.615
46494SOL    HW241380   9.245  11.218  13.482
46495SOL     OW41381   9.318   2.810   0.845
46495SOL    HW141382   9.246   2.759   0.809
46495SOL    HW241383   9.295   2.823   0.937
46496SOL     OW41384   6.832   4.380  10.698
46496SOL    HW141385   6.871   4.452  10.746
46496SOL    HW241386   6.895   4.361  10.628
46497SOL     OW41387   8.560  13.886   0.620
46497SOL    HW141388   8.584  13.937   0.543
46497SOL    HW241389   8.465  13.888   0.622
46498SOL     OW41390   5.190   7.905   0.899
46498SOL    HW141391   5.253   7.847   0.857
46498SOL    HW241392   5.192   7.985   0.846
46499SOL     OW41393   8.940   8.722  10.528
46499SOL    HW141394   8.859   8.681  10.558
46499SOL    HW241395   8.999   8.716  10.603
46500SOL     OW41396  14.626   5.870   1.994
46500SOL    HW141397  14.651   5.811   1.922
46500SOL    HW241398  14.706   5.878   2.046
46501SOL     OW41399   8.515  14.625   8.485
46501SOL    HW141400   8.573  14.554   8.513
46501SOL    HW241401   8.428  14.586   8.480
46502SOL     OW41402   5.226  11.918   5.104
46502SOL    HW141403   5.240  11.987   5.169
46502SOL    HW241404   5.310  11.871   5.102
46503SOL     OW41405   6.296   2.072   7.403
46503SOL    HW141406   6.320   2.163   7.386
46503SOL    HW241407   6.337   2.023   7.332
46504SOL     OW41408  10.597   3.171   5.898
46504SOL    HW141409  10.629   3.083   5.878
46504SOL    HW241410  10.674   3.227   5.890
46505SOL     OW41411   4.943  13.386   6.119
46505SOL    HW141412   5.021  13.441   6.127
46505SOL    HW241413   4.878  13.429   6.174
46506SOL     OW41414   1.475   1.401   8.277
46506SOL    HW141415   1.463   1.442   8.192
46506SOL    HW241416   1.535   1.461   8.323
46507SOL     OW41417   1.345  10.136   7.590
46507SOL    HW141418   1.433  10.110   7.615
46507SOL    HW241419   1.345  10.136   7.495
46508SOL     OW41420   4.171   7.614  14.553
46508SOL    HW141421   4.091   7.572  14.522
46508SOL    HW241422   4.237   7.545  14.549
46509SOL     OW41423   4.019   5.029   1.737
46509SOL    HW141424   4.111   5.053   1.750
46509SOL    HW241425   4.022   4.941   1.699
46510SOL     OW41426   6.105   4.855   4.939
46510SOL    HW141427   6.063   4.888   5.019
46510SOL    HW241428   6.189   4.902   4.936
46511SOL     OW41429   3.871   9.696  12.119
46511SOL    HW141430   3.942   9.744  12.161
46511SOL    HW241431   3.810   9.764  12.090
46512SOL     OW41432  12.108  14.516  13.933
46512SOL    HW141433  12.140  14.604  13.912
46512SOL    HW241434  12.075  14.482  13.851
46513SOL     OW41435   1.217  13.086   0.694
46513SOL    HW141436   1.274  13.045   0.628
46513SOL    HW241437   1.132  13.043   0.682
46514SOL     OW41438  10.890   7.265   7.662
46514SOL    HW141439  10.945   7.257   7.584
46514SOL    HW241440  10.830   7.337   7.642
46515SOL     OW41441  12.892   0.290  14.045
46515SOL    HW141442  12.972   0.237  14.045
46515SOL    HW241443  12.825   0.232  14.081
46516SOL     OW41444  11.544   4.123  11.514
46516SOL    HW141445  11.492   4.093  11.589
46516SOL    HW241446  11.488   4.108  11.438
46517SOL     OW41447  14.744   9.192   7.369
46517SOL    HW141448  14.778   9.279   7.352
46517SOL    HW241449  14.737   9.187   7.464
46518SOL     OW41450   9.884   0.632   0.670
46518SOL    HW141451   9.943   0.590   0.608
46518SOL    HW241452   9.938   0.644   0.749
46519SOL     OW41453   1.765   8.416   1.232
46519SOL    HW141454   1.857   8.435   1.216
46519SOL    HW241455   1.719   8.497   1.209
46520SOL     OW41456   4.090   6.298   3.313
46520SOL    HW141457   4.184   6.297   3.331
46520SOL    HW241458   4.083   6.271   3.222
46521SOL     OW41459   5.904   1.483   3.619
46521SOL    HW141460   5.932   1.498   3.709
46521SOL    HW241461   5.813   1.512   3.617
46522SOL     OW41462   8.971  14.732   2.041
46522SOL    HW141463   8.904  14.676   2.079
46522SOL    HW241464   8.980  14.700   1.951
46523SOL     OW41465   0.753   2.133  13.258
46523SOL    HW141466   0.715   2.048  13.237
46523SOL    HW241467   0.830   2.112  13.311
46524SOL     OW41468   2.528  13.028   3.903
46524SOL    HW141469   2.581  12.995   3.976
46524SOL    HW241470   2.561  12.980   3.827
46525SOL     OW41471  13.566   8.281  13.871
46525SOL    HW141472  13.533   8.350  13.928
46525SOL    HW241473  13.515   8.203  13.893
46526SOL     OW41474   1.562   8.003  10.851
46526SOL    HW141475   1.505   8.044  10.916
46526SOL    HW241476   1.550   8.056  10.772
46527SOL     OW41477   5.026   3.054  12.322
46527SOL    HW141478   5.066   3.129  12.279
46527SOL    HW241479   4.951   3.031  12.266
46528SOL     OW41480   0.377  11.396   4.862
46528SOL    HW141481   0.392  11.444   4.781
46528SOL    HW241482   0.358  11.463   4.928
46529SOL     OW41483   9.028   6.479   8.296
46529SOL    HW141484   9.057   6.412   8.358
46529SOL    HW241485   9.099   6.485   8.232
46530SOL     OW41486   5.629   0.811  12.234
46530SOL    HW141487   5.679   0.794  12.315
46530SOL    HW241488   5.585   0.728  12.216
46531SOL     OW41489   0.977   8.460   4.902
46531SOL    HW141490   0.968   8.551   4.874
46531SOL    HW241491   1.057   8.430   4.860
46532SOL     OW41492  11.510   3.467   2.777
46532SOL    HW141493  11.583   3.492   2.720
46532SOL    HW241494  11.463   3.399   2.728
46533SOL     OW41495   9.238  14.262   8.572
46533SOL    HW141496   9.198  14.191   8.521
46533SOL    HW241497   9.203  14.342   8.533
46534SOL     OW41498   0.753   8.332  10.267
46534SOL    HW141499   0.735   8.281  10.188
46534SOL    HW241500   0.666   8.361  10.297
46535SOL     OW41501   7.127   1.683   4.636
46535SOL    HW141502   7.140   1.742   4.562
46535SOL    HW241503   7.032   1.685   4.651
46536SOL     OW41504   5.170   2.227   9.970
46536SOL    HW141505   5.163   2.297   9.904
46536SOL    HW241506   5.181   2.147   9.919
46537SOL     OW41507   3.455   0.303  12.280
46537SOL    HW141508   3.436   0.241  12.210
46537SOL    HW241509   3.504   0.374  12.237
46538SOL     OW41510   2.774   7.288   8.483
46538SOL    HW141511   2.790   7.317   8.393
46538SOL    HW241512   2.857   7.253   8.513
46539SOL     OW41513   8.032  11.397   7.851
46539SOL    HW141514   8.087  11.467   7.816
46539SOL    HW241515   8.072  11.375   7.935
46540SOL     OW41516   8.691   6.849   1.682
46540SOL    HW141517   8.688   6.757   1.655
46540SOL    HW241518   8.756   6.889   1.624
46541SOL     OW41519   1.383   6.127   7.466
46541SOL    HW141520   1.461   6.075   7.484
46541SOL    HW241521   1.374   6.185   7.542
46542SOL     OW41522  12.089   8.500   4.303
46542SOL    HW141523  12.114   8.591   4.285
46542SOL    HW241524  12.062   8.465   4.218
46543SOL     OW41525  14.779  11.795  10.223
46543SOL    HW141526  14.789  11.704  10.252
46543SOL    HW241527  14.850  11.807  10.159
46544SOL     OW41528   5.171   2.288  11.623
46544SOL    HW141529   5.210   2.203  11.601
46544SOL    HW241530   5.165   2.334  11.539
46545SOL     OW41531   1.184  13.645  11.603
46545SOL    HW141532   1.138  13.588  11.541
46545SOL    HW241533   1.162  13.609  11.689
46546SOL     OW41534   4.216  10.565  11.381
46546SOL    HW141535   4.129  10.545  11.346
46546SOL    HW241536   4.205  10.649  11.425
46547SOL     OW41537   8.268   0.273  10.784
46547SOL    HW141538   8.204   0.203  10.770
46547SOL    HW241539   8.216   0.345  10.821
46548SOL     OW41540  14.178   9.897  11.653
46548SOL    HW141541  14.157   9.984  11.686
46548SOL    HW241542  14.189   9.844  11.732
46549SOL     OW41543   9.571   5.826   4.513
46549SOL    HW141544   9.613   5.855   4.594
46549SOL    HW241545   9.521   5.749   4.538
46550SOL     OW41546  14.581   3.032   4.475
46550SOL    HW141547  14.524   2.955   4.475
46550SOL    HW241548  14.661   3.002   4.516
46551SOL     OW41549   7.860   0.078  14.684
46551SOL    HW141550   7.869   0.009  14.618
46551SOL    HW241551   7.839   0.031  14.765
46552SOL     OW41552   7.371   6.770   4.318
46552SOL    HW141553   7.317   6.721   4.255
46552SOL    HW241554   7.432   6.706   4.352
46553SOL     OW41555  14.293   7.715   0.581
46553SOL    HW141556  14.223   7.652   0.596
46553SOL    HW241557  14.362   7.690   0.643
46554SOL     OW41558   8.313   7.201  14.785
46554SOL    HW141559   8.290   7.116  14.821
46554SOL    HW241560   8.243   7.259  14.815
46555SOL     OW41561   7.206   7.202  11.362
46555SOL    HW141562   7.279   7.149  11.330
46555SOL    HW241563   7.243   7.255  11.432
46556SOL     OW41564  13.174   1.304   1.711
46556SOL    HW141565  13.185   1.349   1.628
46556SOL    HW241566  13.200   1.369   1.777
46557SOL     OW41567   1.440  13.349   4.509
46557SOL    HW141568   1.425  13.369   4.417
46557SOL    HW241569   1.531  13.374   4.525
46558SOL     OW41570   8.106   6.619   0.067
46558SOL    HW141571   8.078   6.532   0.097
46558SOL    HW241572   8.024   6.663   0.046
46559SOL     OW41573   5.241  13.678  10.273
46559SOL    HW141574   5.169  13.737  10.291
46559SOL    HW241575   5.290  13.720  10.202
46560SOL     OW41576   2.411  12.720  13.790
46560SOL    HW141577   2.441  12.760  13.871
46560SOL    HW241578   2.489  12.674  13.756
46561SOL     OW41579   5.303  11.002   8.669
46561SOL    HW141580   5.289  10.983   8.576
46561SOL    HW241581   5.321  10.916   8.708
46562SOL     OW41582  14.324   3.808  13.782
46562SOL    HW141583  14.344   3.719  13.753
46562SOL    HW241584  14.306   3.856  13.702
46563SOL     OW41585  13.855   6.998   6.194
46563SOL    HW141586  13.917   6.942   6.148
46563SOL    HW241587  13.782   6.940   6.217
46564SOL     OW41588   8.644  11.990   3.924
46564SOL    HW141589   8.600  12.060   3.972
46564SOL    HW241590   8.699  12.035   3.860
46565SOL     OW41591   5.503  12.822  13.644
46565SOL    HW141592   5.538  12.802  13.731
46565SOL    HW241593   5.429  12.881  13.662
46566SOL     OW41594   5.224   7.237  12.280
46566SOL    HW141595   5.179   7.284  12.210
46566SOL    HW241596   5.173   7.156  12.291
46567SOL     OW41597   1.487   7.587  11.267
46567SOL    HW141598   1.548   7.517  11.289
46567SOL    HW241599   1.528   7.634  11.194
46568SOL     OW41600   8.025   7.624   6.794
46568SOL    HW141601   8.102   7.584   6.752
46568SOL    HW241602   7.951   7.595   6.739
46569SOL     OW41603   6.554   9.304   7.848
46569SOL    HW141604   6.458   9.308   7.842
46569SOL    HW241605   6.572   9.290   7.941
46570SOL     OW41606   3.236  10.784  12.319
46570SOL    HW141607   3.147  10.751  12.305
46570SOL    HW241608   3.231  10.834  12.401
46571SOL     OW41609   9.200   3.671   6.921
46571SOL    HW141610   9.176   3.611   6.851
46571SOL    HW241611   9.144   3.747   6.907
46572SOL     OW41612   2.034  12.411   6.867
46572SOL    HW141613   2.078  12.360   6.935
46572SOL    HW241614   2.085  12.491   6.860
46573SOL     OW41615   6.937  14.404   8.522
46573SOL    HW141616   6.951  14.493   8.555
46573SOL    HW241617   6.852  14.378   8.558
46574SOL     OW41618   2.343  11.709  13.506
46574SOL    HW141619   2.263  11.665  13.476
46574SOL    HW241620   2.352  11.784  13.447
46575SOL     OW41621  13.950   3.957   6.279
46575SOL    HW141622  14.040   3.971   6.308
46575SOL    HW241623  13.912   4.045   6.271
46576SOL     OW41624   3.631   6.089   8.704
46576SOL    HW141625   3.669   6.009   8.670
46576SOL    HW241626   3.581   6.125   8.630
46577SOL     OW41627  12.826   2.216   8.798
46577SOL    HW141628  12.730   2.211   8.797
46577SOL    HW241629  12.853   2.179   8.714
46578SOL     OW41630  13.709  11.155   5.505
46578SOL    HW141631  13.682  11.171   5.414
46578SOL    HW241632  13.654  11.081   5.534
46579SOL     OW41633   6.994   5.894   1.497
46579SOL    HW141634   6.930   5.926   1.561
46579SOL    HW241635   7.078   5.902   1.541
46580SOL     OW41636   4.174  12.700  13.453
46580SOL    HW141637   4.112  12.663  13.391
46580SOL    HW241638   4.184  12.791  13.425
46581SOL     OW41639   5.347  12.540   7.320
46581SOL    HW141640   5.391  12.482   7.383
46581SOL    HW241641   5.254  12.525   7.337
46582SOL     OW41642  10.064   7.653   6.369
46582SOL    HW141643  10.054   7.584   6.435
46582SOL    HW241644  10.092   7.730   6.418
46583SOL     OW41645   5.181  12.522   4.529
46583SOL    HW141646   5.251  12.474   4.484
46583SOL    HW241647   5.171  12.477   4.613
46584SOL     OW41648   7.938   1.103  11.516
46584SOL    HW141649   8.008   1.156  11.553
46584SOL    HW241650   7.924   1.139  11.428
46585SOL     OW41651   9.033   6.250   0.727
46585SOL    HW141652   8.962   6.246   0.663
46585SOL    HW241653   8.997   6.210   0.806
46586SOL     OW41654   8.608  13.264  14.866
46586SOL    HW141655   8.662  13.186  14.853
46586SOL    HW241656   8.531  13.233   0.036
46587SOL     OW41657   6.037  13.065   7.245
46587SOL    HW141658   5.958  13.051   7.297
46587SOL    HW241659   6.015  13.031   7.158
46588SOL     OW41660   4.106  11.306  11.764
46588SOL    HW141661   4.019  11.277  11.737
46588SOL    HW241662   4.160  11.227  11.760
46589SOL     OW41663   4.617   4.887  14.487
46589SOL    HW141664   4.678   4.859  14.555
46589SOL    HW241665   4.589   4.806  14.445
46590SOL     OW41666   6.964   4.851   3.139
46590SOL    HW141667   6.912   4.774   3.120
46590SOL    HW241668   6.963   4.902   3.058
46591SOL     OW41669  12.417   1.150   4.215
46591SOL    HW141670  12.372   1.077   4.258
46591SOL    HW241671  12.458   1.112   4.138
46592SOL     OW41672  10.064  10.362   2.657
46592SOL    HW141673  10.114  10.316   2.589
46592SOL    HW241674  10.078  10.309   2.736
46593SOL     OW41675  14.095   6.559   1.764
46593SOL    HW141676  14.097   6.620   1.838
46593SOL    HW241677  14.186   6.531   1.754
46594SOL     OW41678   8.666   5.978  14.295
46594SOL    HW141679   8.618   6.006  14.372
46594SOL    HW241680   8.697   6.060  14.254
46595SOL     OW41681   8.092   3.208   7.420
46595SOL    HW141682   8.137   3.130   7.451
46595SOL    HW241683   8.007   3.176   7.388
46596SOL     OW41684   8.521   7.374   4.831
46596SOL    HW141685   8.532   7.284   4.800
46596SOL    HW241686   8.549   7.429   4.758
46597SOL     OW41687   3.784  14.092   6.026
46597SOL    HW141688   3.814  14.006   6.055
46597SOL    HW241689   3.863  14.146   6.028
46598SOL     OW41690   5.097   1.461   2.009
46598SOL    HW141691   5.148   1.419   2.078
46598SOL    HW241692   5.159   1.471   1.936
46599SOL     OW41693   1.471  14.451   8.149
46599SOL    HW141694   1.514  14.537   8.152
46599SOL    HW241695   1.378  14.471   8.136
46600SOL     OW41696   9.157  13.055   9.606
46600SOL    HW141697   9.161  13.132   9.663
46600SOL    HW241698   9.150  12.981   9.666
46601SOL     OW41699  11.809   1.659   6.564
46601SOL    HW141700  11.763   1.717   6.503
46601SOL    HW241701  11.901   1.664   6.537
46602SOL     OW41702   5.556   8.849   7.831
46602SOL    HW141703   5.470   8.825   7.865
46602SOL    HW241704   5.603   8.766   7.822
46603SOL     OW41705  12.180   5.923   5.126
46603SOL    HW141706  12.194   6.013   5.097
46603SOL    HW241707  12.158   5.930   5.219
46604SOL     OW41708   0.814   7.059   5.999
46604SOL    HW141709   0.778   7.147   6.005
46604SOL    HW241710   0.849   7.053   5.910
46605SOL     OW41711   1.262   4.408   3.433
46605SOL    HW141712   1.181   4.436   3.390
46605SOL    HW241713   1.309   4.359   3.365
46606SOL     OW41714   3.023   0.693  11.787
46606SOL    HW141715   3.055   0.731  11.868
46606SOL    HW241716   3.044   0.600  11.794
46607SOL     OW41717   4.630   6.110  13.387
46607SOL    HW141718   4.624   6.171  13.461
46607SOL    HW241719   4.608   6.163  13.311
46608SOL     OW41720  14.396  10.085   6.078
46608SOL    HW141721  14.304  10.107   6.087
46608SOL    HW241722  14.410  10.074   5.984
46609SOL     OW41723   3.256   5.377  10.352
46609SOL    HW141724   3.259   5.342  10.441
46609SOL    HW241725   3.344   5.410  10.336
46610SOL     OW41726   8.594   4.305   7.824
46610SOL    HW141727   8.673   4.278   7.776
46610SOL    HW241728   8.627   4.340   7.907
46611SOL     OW41729   1.785  11.423   3.682
46611SOL    HW141730   1.878  11.437   3.701
46611SOL    HW241731   1.749  11.387   3.763
46612SOL     OW41732  12.584  10.116  10.476
46612SOL    HW141733  12.647  10.050  10.506
46612SOL    HW241734  12.627  10.157  10.401
46613SOL     OW41735  11.592   6.287  13.913
46613SOL    HW141736  11.617   6.364  13.861
46613SOL    HW241737  11.582   6.217  13.849
46614SOL     OW41738   8.740   5.503   4.274
46614SOL    HW141739   8.751   5.587   4.319
46614SOL    HW241740   8.660   5.514   4.223
46615SOL     OW41741  11.522   7.443  14.463
46615SOL    HW141742  11.587   7.506  14.431
46615SOL    HW241743  11.474   7.491  14.531
46616SOL     OW41744   2.963   4.807  12.646
46616SOL    HW141745   3.041   4.832  12.595
46616SOL    HW241746   2.934   4.725  12.606
46617SOL     OW41747   4.616   8.040  10.206
46617SOL    HW141748   4.549   8.106  10.226
46617SOL    HW241749   4.629   7.993  10.288
46618SOL     OW41750   6.070  11.203   7.839
46618SOL    HW141751   6.065  11.297   7.826
46618SOL    HW241752   5.984  11.178   7.872
46619SOL     OW41753  13.755   0.379  13.441
46619SOL    HW141754  13.714   0.293  13.452
46619SOL    HW241755  13.798   0.396  13.525
46620SOL     OW41756   4.154  11.024   5.860
46620SOL    HW141757   4.061  11.026   5.884
46620SOL    HW241758   4.186  10.942   5.898
46621SOL     OW41759  13.112   9.626   6.515
46621SOL    HW141760  13.202   9.601   6.494
46621SOL    HW241761  13.058   9.562   6.468
46622SOL     OW41762   7.598   9.245  10.180
46622SOL    HW141763   7.581   9.302  10.105
46622SOL    HW241764   7.670   9.287  10.227
46623SOL     OW41765   5.666   3.114  11.247
46623SOL    HW141766   5.672   3.195  11.298
46623SOL    HW241767   5.747   3.067  11.267
46624SOL     OW41768   7.032   5.668   5.744
46624SOL    HW141769   6.988   5.751   5.724
46624SOL    HW241770   7.021   5.615   5.665
46625SOL     OW41771   8.051   7.346   3.367
46625SOL    HW141772   8.019   7.277   3.426
46625SOL    HW241773   8.115   7.302   3.312
46626SOL     OW41774   7.234   2.843  12.175
46626SOL    HW141775   7.145   2.836  12.139
46626SOL    HW241776   7.281   2.768  12.139
46627SOL     OW41777   3.591   9.667   1.089
46627SOL    HW141778   3.670   9.628   1.052
46627SOL    HW241779   3.614   9.687   1.180
46628SOL     OW41780   1.832   6.110  13.291
46628SOL    HW141781   1.789   6.048  13.351
46628SOL    HW241782   1.926   6.093  13.303
46629SOL     OW41783  13.209  10.191   6.805
46629SOL    HW141784  13.249  10.188   6.892
46629SOL    HW241785  13.278  10.222   6.747
46630SOL     OW41786   4.296   4.123   6.886
46630SOL    HW141787   4.344   4.168   6.956
46630SOL    HW241788   4.360   4.117   6.814
46631SOL     OW41789   7.496   3.909   8.474
46631SOL    HW141790   7.522   3.887   8.564
46631SOL    HW241791   7.404   3.884   8.470
46632SOL     OW41792  13.706  12.624   5.911
46632SOL    HW141793  13.704  12.633   6.006
46632SOL    HW241794  13.798  12.608   5.890
46633SOL     OW41795  11.850  12.087  10.855
46633SOL    HW141796  11.767  12.050  10.823
46633SOL    HW241797  11.834  12.105  10.948
46634SOL     OW41798  14.311  14.157  10.941
46634SOL    HW141799  14.359  14.075  10.941
46634SOL    HW241800  14.268  14.160  11.026
46635SOL     OW41801  10.275  12.235   5.977
46635SOL    HW141802  10.199  12.224   6.034
46635SOL    HW241803  10.323  12.152   5.983
46636SOL     OW41804   6.451  10.617   8.972
46636SOL    HW141805   6.392  10.559   9.019
46636SOL    HW241806   6.535  10.606   9.015
46637SOL     OW41807   4.782  11.043   3.308
46637SOL    HW141808   4.838  11.118   3.330
46637SOL    HW241809   4.775  10.994   3.390
46638SOL     OW41810   2.788  14.024  11.791
46638SOL    HW141811   2.880  14.045  11.807
46638SOL    HW241812   2.751  14.105  11.755
46639SOL     OW41813   2.034   2.243  13.867
46639SOL    HW141814   2.076   2.266  13.785
46639SOL    HW241815   2.079   2.296  13.933
46640SOL     OW41816   2.040  10.805  11.074
46640SOL    HW141817   1.963  10.785  11.022
46640SOL    HW241818   2.110  10.752  11.036
46641SOL     OW41819   0.739   1.716   8.995
46641SOL    HW141820   0.664   1.747   9.046
46641SOL    HW241821   0.799   1.791   8.993
46642SOL     OW41822   1.353   1.907   9.421
46642SOL    HW141823   1.443   1.903   9.390
46642SOL    HW241824   1.300   1.903   9.341
46643SOL     OW41825  11.427   9.550   9.490
46643SOL    HW141826  11.477   9.482   9.446
46643SOL    HW241827  11.336   9.535   9.463
46644SOL     OW41828   0.570   3.247   6.804
46644SOL    HW141829   0.548   3.324   6.856
46644SOL    HW241830   0.665   3.245   6.802
46645SOL     OW41831   3.828   0.596  14.339
46645SOL    HW141832   3.752   0.540  14.357
46645SOL    HW241833   3.843   0.587  14.245
46646SOL     OW41834  10.504   8.670   5.171
46646SOL    HW141835  10.487   8.579   5.146
46646SOL    HW241836  10.424   8.717   5.148
46647SOL     OW41837   2.125   4.771  13.239
46647SOL    HW141838   2.037   4.739  13.222
46647SOL    HW241839   2.116   4.866  13.241
46648SOL     OW41840  13.527   9.717   6.784
46648SOL    HW141841  13.437   9.722   6.817
46648SOL    HW241842  13.525   9.649   6.717
46649SOL     OW41843   9.388   6.251  12.429
46649SOL    HW141844   9.388   6.346  12.415
46649SOL    HW241845   9.477   6.231  12.459
46650SOL     OW41846  12.367  14.313   2.722
46650SOL    HW141847  12.325  14.262   2.792
46650SOL    HW241848  12.451  14.269   2.708
46651SOL     OW41849   2.652   0.920   6.603
46651SOL    HW141850   2.619   0.905   6.514
46651SOL    HW241851   2.642   0.835   6.647
46652SOL     OW41852   0.396   6.222   2.521
46652SOL    HW141853   0.419   6.132   2.541
46652SOL    HW241854   0.477   6.260   2.486
46653SOL     OW41855   7.720   4.865   0.746
46653SOL    HW141856   7.682   4.931   0.688
46653SOL    HW241857   7.806   4.900   0.768
46654SOL     OW41858   5.113   3.231   2.193
46654SOL    HW141859   5.206   3.227   2.214
46654SOL    HW241860   5.109   3.236   2.098
46655SOL     OW41861   4.640   8.457   3.507
46655SOL    HW141862   4.615   8.370   3.539
46655SOL    HW241863   4.628   8.453   3.412
46656SOL     OW41864   4.357   0.942   9.637
46656SOL    HW141865   4.278   0.967   9.685
46656SOL    HW241866   4.344   0.851   9.614
46657SOL     OW41867  13.512   0.130   7.685
46657SOL    HW141868  13.495   0.086   7.601
46657SOL    HW241869  13.484   0.067   7.751
46658SOL     OW41870   1.851   4.546   3.801
46658SOL    HW141871   1.904   4.550   3.881
46658SOL    HW241872   1.914   4.531   3.731
46659SOL     OW41873   8.176   3.838   9.200
46659SOL    HW141874   8.130   3.918   9.226
46659SOL    HW241875   8.227   3.864   9.124
46660SOL     OW41876  11.138  10.383  11.173
46660SOL    HW141877  11.189  10.439  11.114
46660SOL    HW241878  11.054  10.372  11.128
46661SOL     OW41879  11.296   4.565  13.990
46661SOL    HW141880  11.218   4.581  14.043
46661SOL    HW241881  11.349   4.505  14.042
46662SOL     OW41882   6.909  11.060   3.184
46662SOL    HW141883   6.973  11.111   3.233
46662SOL    HW241884   6.909  11.099   3.096
46663SOL     OW41885   1.714  10.572   3.031
46663SOL    HW141886   1.740  10.662   3.014
46663SOL    HW241887   1.675  10.541   2.949
46664SOL     OW41888   8.836   1.872  14.323
46664SOL    HW141889   8.927   1.843  14.324
46664SOL    HW241890   8.790   1.806  14.375
46665SOL     OW41891   2.604   7.761  13.836
46665SOL    HW141892   2.522   7.809  13.840
46665SOL    HW241893   2.582   7.672  13.861
46666SOL     OW41894  12.953   9.945   0.981
46666SOL    HW141895  13.010   9.928   1.057
46666SOL    HW241896  12.875   9.893   0.998
46667SOL     OW41897  14.259  13.354  14.076
46667SOL    HW141898  14.208  13.412  14.131
46667SOL    HW241899  14.199  13.284  14.051
46668SOL     OW41900   3.685   2.512   1.395
46668SOL    HW141901   3.649   2.511   1.306
46668SOL    HW241902   3.660   2.427   1.431
46669SOL     OW41903  10.483   7.581   3.339
46669SOL    HW141904  10.562   7.545   3.378
46669SOL    HW241905  10.498   7.676   3.336
46670SOL     OW41906  13.490   6.013  13.029
46670SOL    HW141907  13.395   5.999  13.029
46670SOL    HW241908  13.521   5.972  13.109
46671SOL     OW41909   3.794   5.987   9.169
46671SOL    HW141910   3.812   5.920   9.235
46671SOL    HW241911   3.870   5.985   9.111
46672SOL     OW41912  10.992   4.232   0.158
46672SOL    HW141913  10.968   4.156   0.106
46672SOL    HW241914  10.914   4.289   0.155
46673SOL     OW41915   6.559  10.941   0.375
46673SOL    HW141916   6.648  10.967   0.398
46673SOL    HW241917   6.506  11.019   0.393
46674SOL     OW41918   4.109   9.983   1.918
46674SOL    HW141919   4.026   9.960   1.960
46674SOL    HW241920   4.174   9.980   1.989
46675SOL     OW41921  14.154   8.860   4.691
46675SOL    HW141922  14.248   8.849   4.706
46675SOL    HW241923  14.120   8.771   4.691
46676SOL     OW41924   0.518   6.252   1.897
46676SOL    HW141925   0.530   6.240   1.991
46676SOL    HW241926   0.505   6.346   1.886
46677SOL     OW41927   3.178   0.372   2.339
46677SOL    HW141928   3.214   0.284   2.354
46677SOL    HW241929   3.148   0.370   2.248
46678SOL     OW41930  12.467  14.122   1.500
46678SOL    HW141931  12.402  14.052   1.514
46678SOL    HW241932  12.425  14.201   1.534
46679SOL     OW41933   3.594  14.301  12.249
46679SOL    HW141934   3.570  14.393  12.253
46679SOL    HW241935   3.517  14.254  12.279
46680SOL     OW41936   9.736   6.534   4.753
46680SOL    HW141937   9.763   6.556   4.664
46680SOL    HW241938   9.660   6.590   4.769
46681SOL     OW41939  14.144   1.273   0.515
46681SOL    HW141940  14.205   1.329   0.563
46681SOL    HW241941  14.084   1.240   0.582
46682SOL     OW41942   6.770   8.069   1.709
46682SOL    HW141943   6.782   8.077   1.615
46682SOL    HW241944   6.860   8.067   1.744
46683SOL     OW41945   7.629  10.614  12.708
46683SOL    HW141946   7.603  10.666  12.632
46683SOL    HW241947   7.663  10.532  12.670
46684SOL     OW41948   0.151   6.883  11.255
46684SOL    HW141949   0.228   6.891  11.311
46684SOL    HW241950   0.117   6.972  11.248
46685SOL     OW41951  11.301   1.266   9.846
46685SOL    HW141952  11.381   1.304   9.882
46685SOL    HW241953  11.330   1.183   9.806
46686SOL     OW41954  10.140   9.999   8.136
46686SOL    HW141955  10.128  10.090   8.162
46686SOL    HW241956  10.234   9.983   8.146
46687SOL     OW41957   4.190   6.339   8.898
46687SOL    HW141958   4.135   6.389   8.959
46687SOL    HW241959   4.238   6.278   8.955
46688SOL     OW41960   9.810   9.086   3.636
46688SOL    HW141961   9.902   9.083   3.610
46688SOL    HW241962   9.806   9.033   3.716
46689SOL     OW41963   2.573   7.855   1.132
46689SOL    HW141964   2.565   7.890   1.220
46689SOL    HW241965   2.587   7.761   1.144
46690SOL     OW41966   0.667  10.999   1.304
46690SOL    HW141967   0.688  11.066   1.239
46690SOL    HW241968   0.678  10.916   1.258
46691SOL     OW41969   5.115   1.019  11.719
46691SOL    HW141970   5.114   1.035  11.813
46691SOL    HW241971   5.121   0.923  11.712
46692SOL     OW41972  12.457   9.746   6.412
46692SOL    HW141973  12.493   9.830   6.440
46692SOL    HW241974  12.380   9.733   6.467
46693SOL     OW41975   0.295   2.897  13.187
46693SOL    HW141976   0.313   2.808  13.157
46693SOL    HW241977   0.348   2.908  13.266
46694SOL     OW41978   1.755  13.997   7.485
46694SOL    HW141979   1.721  13.925   7.539
46694SOL    HW241980   1.840  14.018   7.524
46695SOL     OW41981  14.842   6.425   0.416
46695SOL    HW141982  14.767   6.430   0.357
46695SOL    HW241983  14.816   6.474   0.493
46696SOL     OW41984  10.875   9.108   9.919
46696SOL    HW141985  10.829   9.154   9.848
46696SOL    HW241986  10.966   9.136   9.911
46697SOL     OW41987  11.344   4.809  13.853
46697SOL    HW141988  11.438   4.826  13.850
46697SOL    HW241989  11.336   4.729  13.905
46698SOL     OW41990   7.683  14.149  10.648
46698SOL    HW141991   7.640  14.165  10.564
46698SOL    HW241992   7.703  14.055  10.646
46699SOL     OW41993   1.258  12.042  14.631
46699SOL    HW141994   1.217  12.063  14.547
46699SOL    HW241995   1.256  11.947  14.636
46700SOL     OW41996  10.886   8.622   2.301
46700SOL    HW141997  10.979   8.618   2.323
46700SOL    HW241998  10.845   8.668   2.374
46701SOL     OW41999  13.688  10.461   1.032
46701SOL    HW142000  13.713  10.405   0.960
46701SOL    HW242001  13.636  10.405   1.090
46702SOL     OW42002   4.997  11.697   6.449
46702SOL    HW142003   5.058  11.623   6.459
46702SOL    HW242004   4.911  11.656   6.444
46703SOL     OW42005  14.660   6.758   1.169
46703SOL    HW142006  14.645   6.852   1.174
46703SOL    HW242007  14.589   6.726   1.112
46704SOL     OW42008  12.752  13.389  13.358
46704SOL    HW142009  12.659  13.408  13.373
46704SOL    HW242010  12.787  13.468  13.318
46705SOL     OW42011   5.137   8.131   7.910
46705SOL    HW142012   5.140   8.039   7.935
46705SOL    HW242013   5.217   8.144   7.859
46706SOL     OW42014   2.792   1.585   0.925
46706SOL    HW142015   2.769   1.664   0.875
46706SOL    HW242016   2.854   1.616   0.991
46707SOL     OW42017   3.142  14.463   4.067
46707SOL    HW142018   3.056  14.501   4.087
46707SOL    HW242019   3.140  14.376   4.107
46708SOL     OW42020   6.811   8.351   7.239
46708SOL    HW142021   6.722   8.315   7.249
46708SOL    HW242022   6.852   8.294   7.174
46709SOL     OW42023   6.229  10.100   8.556
46709SOL    HW142024   6.301  10.132   8.501
46709SOL    HW242025   6.154  10.094   8.495
46710SOL     OW42026  10.607   0.589  11.828
46710SOL    HW142027  10.599   0.681  11.801
46710SOL    HW242028  10.529   0.573  11.880
46711SOL     OW42029   4.255   1.934   8.452
46711SOL    HW142030   4.278   2.016   8.409
46711SOL    HW242031   4.215   1.881   8.383
46712SOL     OW42032  10.861   1.230   5.345
46712SOL    HW142033  10.930   1.267   5.401
46712SOL    HW242034  10.889   1.139   5.333
46713SOL     OW42035  11.637   7.606   9.134
46713SOL    HW142036  11.681   7.688   9.115
46713SOL    HW242037  11.564   7.603   9.072
46714SOL     OW42038  10.218  11.430   2.962
46714SOL    HW142039  10.139  11.444   3.015
46714SOL    HW242040  10.190  11.446   2.872
46715SOL     OW42041   2.698   6.317   2.262
46715SOL    HW142042   2.787   6.353   2.263
46715SOL    HW242043   2.701   6.246   2.197
46716SOL     OW42044   6.380   7.498   2.183
46716SOL    HW142045   6.364   7.404   2.172
46716SOL    HW242046   6.474   7.505   2.197
46717SOL     OW42047   4.385  14.062   7.635
46717SOL    HW142048   4.408  13.972   7.658
46717SOL    HW242049   4.303  14.054   7.586
46718SOL     OW42050   8.955  13.224   7.545
46718SOL    HW142051   9.038  13.272   7.546
46718SOL    HW242052   8.953  13.181   7.460
46719SOL     OW42053  11.714   6.151   6.300
46719SOL    HW142054  11.700   6.180   6.210
46719SOL    HW242055  11.708   6.056   6.297
46720SOL     OW42056   5.794   9.082   3.644
46720SOL    HW142057   5.847   9.108   3.569
46720SOL    HW242058   5.731   9.153   3.654
46721SOL     OW42059   1.309  14.507   1.674
46721SOL    HW142060   1.370  14.559   1.725
46721SOL    HW242061   1.230  14.501   1.729
46722SOL     OW42062   2.143  13.557  11.025
46722SOL    HW142063   2.229  13.539  10.988
46722SOL    HW242064   2.161  13.583  11.115
46723SOL     OW42065   1.478   3.226   3.767
46723SOL    HW142066   1.423   3.219   3.690
46723SOL    HW242067   1.421   3.205   3.840
46724SOL     OW42068  13.362   6.582  12.083
46724SOL    HW142069  13.305   6.537  12.021
46724SOL    HW242070  13.338   6.674  12.077
46725SOL     OW42071  10.194   3.362   2.642
46725SOL    HW142072  10.217   3.454   2.648
46725SOL    HW242073  10.270   3.315   2.678
46726SOL     OW42074   9.026   7.371   9.244
46726SOL    HW142075   9.109   7.331   9.272
46726SOL    HW242076   9.019   7.348   9.151
46727SOL     OW42077   7.275   5.573   3.128
46727SOL    HW142078   7.319   5.658   3.120
46727SOL    HW242079   7.339   5.516   3.170
46728SOL     OW42080  12.571  12.156   2.111
46728SOL    HW142081  12.538  12.164   2.022
46728SOL    HW242082  12.519  12.218   2.162
46729SOL     OW42083   0.343  12.546  11.974
46729SOL    HW142084   0.286  12.511  11.905
46729SOL    HW242085   0.399  12.609  11.930
46730SOL     OW42086   6.145  12.712   9.260
46730SOL    HW142087   6.195  12.671   9.189
46730SOL    HW242088   6.091  12.777   9.217
46731SOL     OW42089  11.479  14.098   9.602
46731SOL    HW142090  11.532  14.031   9.557
46731SOL    HW242091  11.455  14.160   9.533
46732SOL     OW42092   7.300   9.510   8.236
46732SOL    HW142093   7.363   9.582   8.232
46732SOL    HW242094   7.353   9.431   8.247
46733SOL     OW42095   4.898   2.010   8.472
46733SOL    HW142096   4.840   2.065   8.525
46733SOL    HW242097   4.968   2.070   8.444
46734SOL     OW42098   7.447   0.914  10.557
46734SOL    HW142099   7.371   0.956  10.518
46734SOL    HW242100   7.484   0.981  10.614
46735SOL     OW42101   9.109   2.180  11.008
46735SOL    HW142102   9.154   2.111  10.959
46735SOL    HW242103   9.080   2.138  11.089
46736SOL     OW42104   2.946   3.929  12.082
46736SOL    HW142105   2.868   3.893  12.041
46736SOL    HW242106   2.914   4.005  12.132
46737SOL     OW42107  11.381   5.566  11.866
46737SOL    HW142108  11.388   5.481  11.823
46737SOL    HW242109  11.288   5.585  11.867
46738SOL     OW42110  11.177   4.237  14.050
46738SOL    HW142111  11.084   4.228  14.031
46738SOL    HW242112  11.180   4.293  14.128
46739SOL     OW42113  10.249   6.431  13.765
46739SOL    HW142114  10.159   6.416  13.795
46739SOL    HW242115  10.296   6.457  13.844
46740SOL     OW42116  11.639   2.995   0.831
46740SOL    HW142117  11.699   2.939   0.882
46740SOL    HW242118  11.617   2.943   0.755
46741SOL     OW42119   2.741  11.873  11.248
46741SOL    HW142120   2.794  11.902  11.174
46741SOL    HW242121   2.730  11.779  11.234
46742SOL     OW42122   7.807   7.587   5.350
46742SOL    HW142123   7.715   7.582   5.323
46742SOL    HW242124   7.805   7.579   5.445
46743SOL     OW42125   1.214   2.008   2.531
46743SOL    HW142126   1.193   1.976   2.443
46743SOL    HW242127   1.210   1.930   2.586
46744SOL     OW42128   7.555  14.088   6.424
46744SOL    HW142129   7.608  14.093   6.503
46744SOL    HW242130   7.515  14.001   6.427
46745SOL     OW42131   3.381  10.890   1.119
46745SOL    HW142132   3.334  10.825   1.066
46745SOL    HW242133   3.329  10.900   1.198
46746SOL     OW42134   1.624   9.175  13.793
46746SOL    HW142135   1.561   9.207  13.857
46746SOL    HW242136   1.581   9.187  13.709
46747SOL     OW42137   2.185  12.810   8.829
46747SOL    HW142138   2.157  12.862   8.904
46747SOL    HW242139   2.212  12.875   8.763
46748SOL     OW42140   9.207  13.838  10.610
46748SOL    HW142141   9.284  13.883  10.577
46748SOL    HW242142   9.145  13.908  10.631
46749SOL     OW42143   6.519   2.132   5.674
46749SOL    HW142144   6.559   2.216   5.696
46749SOL    HW242145   6.535   2.121   5.580
46750SOL     OW42146   3.705  10.234  11.843
46750SOL    HW142147   3.706  10.197  11.931
46750SOL    HW242148   3.793  10.217  11.809
46751SOL     OW42149   3.654   5.160  13.520
46751SOL    HW142150   3.680   5.209  13.442
46751SOL    HW242151   3.570   5.120  13.497
46752SOL     OW42152   0.524   8.608   5.034
46752SOL    HW142153   0.523   8.639   4.944
46752SOL    HW242154   0.471   8.670   5.083
46753SOL     OW42155   6.087   4.579   0.621
46753SOL    HW142156   6.147   4.649   0.646
46753SOL    HW242157   6.089   4.518   0.695
46754SOL     OW42158   0.100   5.257   3.114
46754SOL    HW142159   0.090   5.163   3.096
46754SOL    HW242160   0.175   5.262   3.173
46755SOL     OW42161   9.892   5.378   6.997
46755SOL    HW142162   9.892   5.390   6.902
46755SOL    HW242163   9.861   5.288   7.010
46756SOL     OW42164   5.512  10.213  12.026
46756SOL    HW142165   5.508  10.213  11.931
46756SOL    HW242166   5.562  10.134  12.049
46757SOL     OW42167   6.832  11.066   2.903
46757SOL    HW142168   6.923  11.052   2.876
46757SOL    HW242169   6.788  11.092   2.822
46758SOL     OW42170   7.683  13.163   1.553
46758SOL    HW142171   7.719  13.105   1.485
46758SOL    HW242172   7.647  13.237   1.504
46759SOL     OW42173   6.794   3.891  11.064
46759SOL    HW142174   6.784   3.954  11.136
46759SOL    HW242175   6.768   3.940  10.986
46760SOL     OW42176  12.325  14.302   9.447
46760SOL    HW142177  12.293  14.271   9.362
46760SOL    HW242178  12.406  14.253   9.461
46761SOL     OW42179   5.413   4.680  11.125
46761SOL    HW142180   5.443   4.743  11.060
46761SOL    HW242181   5.401   4.598  11.077
46762SOL     OW42182  12.420  14.246   1.130
46762SOL    HW142183  12.362  14.301   1.079
46762SOL    HW242184  12.448  14.301   1.203
46763SOL     OW42185  12.407   0.334   2.663
46763SOL    HW142186  12.446   0.382   2.736
46763SOL    HW242187  12.481   0.298   2.615
46764SOL     OW42188   2.381   5.765  14.450
46764SOL    HW142189   2.368   5.755  14.545
46764SOL    HW242190   2.410   5.855  14.440
46765SOL     OW42191  12.046  10.568   3.017
46765SOL    HW142192  12.020  10.660   3.011
46765SOL    HW242193  12.072  10.544   2.928
46766SOL     OW42194  12.784   4.789  10.562
46766SOL    HW142195  12.840   4.829  10.628
46766SOL    HW242196  12.705   4.843  10.561
46767SOL     OW42197   4.475   7.196  14.364
46767SOL    HW142198   4.513   7.281  14.385
46767SOL    HW242199   4.407   7.215  14.300
46768SOL     OW42200   8.706  12.922   2.355
46768SOL    HW142201   8.682  12.831   2.337
46768SOL    HW242202   8.746  12.953   2.274
46769SOL     OW42203  11.254  11.942   0.926
46769SOL    HW142204  11.338  11.913   0.959
46769SOL    HW242205  11.247  12.033   0.953
46770SOL     OW42206   6.185   7.231   2.364
46770SOL    HW142207   6.171   7.317   2.403
46770SOL    HW242208   6.097   7.195   2.353
46771SOL     OW42209  10.518   7.624  11.255
46771SOL    HW142210  10.602   7.632  11.301
46771SOL    HW242211  10.511   7.530  11.235
46772SOL     OW42212   3.433   9.847   1.402
46772SOL    HW142213   3.516   9.812   1.433
46772SOL    HW242214   3.421   9.928   1.451
46773SOL     OW42215  10.562  12.450  11.302
46773SOL    HW142216  10.475  12.464  11.265
46773SOL    HW242217  10.574  12.522  11.363
46774SOL     OW42218  12.268  13.669   5.018
46774SOL    HW142219  12.190  13.695   4.969
46774SOL    HW242220  12.233  13.627   5.097
46775SOL     OW42221   4.940   4.279   6.307
46775SOL    HW142222   4.918   4.363   6.349
46775SOL    HW242223   4.887   4.278   6.228
46776SOL     OW42224   2.689   5.157   3.820
46776SOL    HW142225   2.613   5.101   3.807
46776SOL    HW242226   2.750   5.104   3.870
46777SOL     OW42227  13.896   2.738   3.029
46777SOL    HW142228  13.944   2.762   3.109
46777SOL    HW242229  13.904   2.815   2.973
46778SOL     OW42230   8.385  13.339   4.221
46778SOL    HW142231   8.413  13.293   4.300
46778SOL    HW242232   8.309  13.290   4.190
46779SOL     OW42233  10.984   9.080   6.681
46779SOL    HW142234  10.973   8.988   6.705
46779SOL    HW242235  11.063   9.107   6.727
46780SOL     OW42236   7.080  14.306  11.041
46780SOL    HW142237   7.154  14.286  10.985
46780SOL    HW242238   7.007  14.318  10.981
46781SOL     OW42239  13.520   9.458   6.634
46781SOL    HW142240  13.496   9.395   6.702
46781SOL    HW242241  13.590   9.414   6.585
46782SOL     OW42242   0.791   8.778  11.069
46782SOL    HW142243   0.726   8.843  11.094
46782SOL    HW242244   0.782   8.770  10.974
46783SOL     OW42245  12.848  12.436   2.903
46783SOL    HW142246  12.943  12.432   2.913
46783SOL    HW242247  12.832  12.517   2.855
46784SOL     OW42248   7.787   9.317   5.536
46784SOL    HW142249   7.756   9.231   5.564
46784SOL    HW242250   7.756   9.326   5.446
46785SOL     OW42251   2.150  13.698   3.530
46785SOL    HW142252   2.149  13.605   3.554
46785SOL    HW242253   2.114  13.699   3.441
46786SOL     OW42254   1.559   9.986  13.418
46786SOL    HW142255   1.486   9.924  13.419
46786SOL    HW242256   1.637   9.931  13.418
46787SOL     OW42257   9.191   3.178  13.938
46787SOL    HW142258   9.246   3.204  13.864
46787SOL    HW242259   9.171   3.086  13.923
46788SOL     OW42260  11.993  10.900   2.449
46788SOL    HW142261  11.905  10.935   2.435
46788SOL    HW242262  11.980  10.822   2.503
46789SOL     OW42263   3.089  11.884  11.344
46789SOL    HW142264   3.115  11.976  11.348
46789SOL    HW242265   3.043  11.869  11.426
46790SOL     OW42266   7.893  10.360   8.191
46790SOL    HW142267   7.826  10.420   8.221
46790SOL    HW242268   7.940  10.408   8.123
46791SOL     OW42269   2.553   6.672   7.330
46791SOL    HW142270   2.543   6.582   7.298
46791SOL    HW242271   2.478   6.685   7.389
46792SOL     OW42272  13.264  10.620   0.139
46792SOL    HW142273  13.236  10.570   0.216
46792SOL    HW242274  13.254  10.560   0.066
46793SOL     OW42275   5.540   6.805   4.252
46793SOL    HW142276   5.509   6.716   4.237
46793SOL    HW242277   5.619   6.813   4.199
46794SOL     OW42278  13.048   9.452   0.224
46794SOL    HW142279  13.062   9.526   0.283
46794SOL    HW242280  12.953   9.438   0.226
46795SOL     OW42281  11.628  13.829  14.490
46795SOL    HW142282  11.598  13.876  14.412
46795SOL    HW242283  11.599  13.739  14.476
46796SOL     OW42284   1.543   1.038  10.764
46796SOL    HW142285   1.614   1.103  10.768
46796SOL    HW242286   1.475   1.075  10.821
46797SOL     OW42287   3.086   6.403   7.635
46797SOL    HW142288   3.119   6.439   7.553
46797SOL    HW242289   3.084   6.308   7.621
46798SOL     OW42290   7.425  10.047   1.440
46798SOL    HW142291   7.511  10.055   1.481
46798SOL    HW242292   7.363  10.072   1.509
46799SOL     OW42293   9.737   6.320  11.722
46799SOL    HW142294   9.819   6.324  11.671
46799SOL    HW242295   9.690   6.246  11.684
46800SOL     OW42296   2.599   1.011   5.389
46800SOL    HW142297   2.548   0.954   5.447
46800SOL    HW242298   2.623   1.085   5.445
46801SOL     OW42299   1.692  12.285  12.537
46801SOL    HW142300   1.609  12.253  12.500
46801SOL    HW242301   1.723  12.213  12.591
46802SOL     OW42302   2.798  14.741   0.008
46802SOL    HW142303   2.877  14.777  14.845
46802SOL    HW242304   2.811  14.647   0.008
46803SOL     OW42305   1.308  14.667  13.531
46803SOL    HW142306   1.287  14.588  13.581
46803SOL    HW242307   1.402  14.680  13.545
46804SOL     OW42308  11.000   2.277   2.450
46804SOL    HW142309  11.020   2.345   2.386
46804SOL    HW242310  11.016   2.318   2.535
46805SOL     OW42311   3.259  13.859   6.359
46805SOL    HW142312   3.193  13.791   6.350
46805SOL    HW242313   3.217  13.939   6.327
46806SOL     OW42314  10.185   8.976   6.919
46806SOL    HW142315  10.168   8.985   6.825
46806SOL    HW242316  10.116   9.028   6.960
46807SOL     OW42317   8.071   8.080   3.434
46807SOL    HW142318   8.033   8.009   3.486
46807SOL    HW242319   8.095   8.147   3.498
46808SOL     OW42320   5.089  11.411   4.530
46808SOL    HW142321   5.167  11.394   4.477
46808SOL    HW242322   5.099  11.503   4.556
46809SOL     OW42323  13.305  12.599   6.059
46809SOL    HW142324  13.375  12.602   6.125
46809SOL    HW242325  13.342  12.646   5.984
46810SOL     OW42326   5.058   3.560   9.957
46810SOL    HW142327   4.973   3.604   9.947
46810SOL    HW242328   5.082   3.534   9.868
46811SOL     OW42329   0.152   6.265   9.979
46811SOL    HW142330   0.239   6.271  10.019
46811SOL    HW242331   0.134   6.354   9.948
46812SOL     OW42332   3.888   6.875   3.782
46812SOL    HW142333   3.863   6.946   3.723
46812SOL    HW242334   3.909   6.802   3.724
46813SOL     OW42335  10.591   9.540  12.527
46813SOL    HW142336  10.670   9.543  12.581
46813SOL    HW242337  10.621   9.504  12.443
46814SOL     OW42338   5.807  12.255   1.035
46814SOL    HW142339   5.833  12.345   1.015
46814SOL    HW242340   5.884  12.217   1.077
46815SOL     OW42341   3.799   7.799  11.799
46815SOL    HW142342   3.784   7.704  11.796
46815SOL    HW242343   3.744   7.834  11.730
46816SOL     OW42344   8.087  11.780  10.077
46816SOL    HW142345   8.042  11.824  10.005
46816SOL    HW242346   8.141  11.848  10.118
46817SOL     OW42347   7.197   9.444   3.696
46817SOL    HW142348   7.272   9.502   3.690
46817SOL    HW242349   7.170   9.450   3.787
46818SOL     OW42350   7.504   8.778   6.290
46818SOL    HW142351   7.474   8.692   6.319
46818SOL    HW242352   7.467   8.839   6.354
46819SOL     OW42353   9.357   2.848  14.693
46819SOL    HW142354   9.384   2.758  14.709
46819SOL    HW242355   9.341   2.884  14.780
46820SOL     OW42356   7.580  12.976   2.157
46820SOL    HW142357   7.557  13.054   2.207
46820SOL    HW242358   7.538  12.990   2.071
46821SOL     OW42359   1.196  12.671   7.892
46821SOL    HW142360   1.222  12.624   7.813
46821SOL    HW242361   1.246  12.752   7.890
46822SOL     OW42362  13.016   7.853   3.194
46822SOL    HW142363  13.068   7.819   3.121
46822SOL    HW242364  12.953   7.913   3.153
46823SOL     OW42365   6.338   3.913   0.635
46823SOL    HW142366   6.399   3.899   0.563
46823SOL    HW242367   6.317   4.007   0.631
46824SOL     OW42368   0.964   2.121  13.461
46824SOL    HW142369   1.021   2.198  13.455
46824SOL    HW242370   1.010   2.062  13.522
46825SOL     OW42371  11.266   1.707   3.433
46825SOL    HW142372  11.225   1.705   3.346
46825SOL    HW242373  11.350   1.750   3.419
46826SOL     OW42374   7.127  11.518   8.190
46826SOL    HW142375   7.114  11.536   8.283
46826SOL    HW242376   7.045  11.478   8.162
46827SOL     OW42377  13.457  11.407   9.985
46827SOL    HW142378  13.446  11.460   9.906
46827SOL    HW242379  13.427  11.464  10.056
46828SOL     OW42380  11.056   7.069   3.048
46828SOL    HW142381  10.998   6.999   3.017
46828SOL    HW242382  11.135   7.061   2.993
46829SOL     OW42383   3.022   4.549   8.215
46829SOL    HW142384   2.960   4.501   8.270
46829SOL    HW242385   3.051   4.622   8.270
46830SOL     OW42386   3.402   9.162   5.884
46830SOL    HW142387   3.316   9.203   5.891
46830SOL    HW242388   3.426   9.172   5.792
46831SOL     OW42389  14.546   2.513   6.913
46831SOL    HW142390  14.613   2.567   6.955
46831SOL    HW242391  14.542   2.546   6.823
46832SOL     OW42392  10.152   0.042   0.326
46832SOL    HW142393  10.160  14.826   0.309
46832SOL    HW242394  10.224   0.082   0.278
46833SOL     OW42395  13.440   4.735  12.323
46833SOL    HW142396  13.488   4.786  12.389
46833SOL    HW242397  13.365   4.789  12.299
46834SOL     OW42398  14.468   7.918  12.695
46834SOL    HW142399  14.488   7.988  12.633
46834SOL    HW242400  14.372   7.913  12.696
46835SOL     OW42401   9.065   8.562   4.305
46835SOL    HW142402   9.115   8.641   4.325
46835SOL    HW242403   9.053   8.565   4.210
46836SOL     OW42404   9.635   0.721   5.921
46836SOL    HW142405   9.708   0.660   5.911
46836SOL    HW242406   9.667   0.788   5.982
46837SOL     OW42407   6.062   8.927  10.305
46837SOL    HW142408   6.061   8.837  10.272
46837SOL    HW242409   6.037   8.919  10.397
46838SOL     OW42410   8.940   4.651  11.415
46838SOL    HW142411   9.028   4.635  11.382
46838SOL    HW242412   8.882   4.613  11.349
46839SOL     OW42413  12.211   8.820   8.770
46839SOL    HW142414  12.234   8.786   8.857
46839SOL    HW242415  12.255   8.905   8.766
46840SOL     OW42416   8.746  13.364   2.337
46840SOL    HW142417   8.772  13.275   2.362
46840SOL    HW242418   8.725  13.407   2.420
46841SOL     OW42419   5.597   8.326   9.764
46841SOL    HW142420   5.592   8.418   9.789
46841SOL    HW242421   5.529   8.283   9.816
46842SOL     OW42422   5.083  11.385   5.664
46842SOL    HW142423   5.035  11.388   5.581
46842SOL    HW242424   5.085  11.475   5.694
46843SOL     OW42425   0.306   9.556   5.582
46843SOL    HW142426   0.236   9.590   5.637
46843SOL    HW242427   0.340   9.480   5.630
46844SOL     OW42428   4.653   1.258   5.711
46844SOL    HW142429   4.574   1.236   5.760
46844SOL    HW242430   4.631   1.240   5.619
46845SOL     OW42431   5.804   9.029  12.429
46845SOL    HW142432   5.720   9.068  12.455
46845SOL    HW242433   5.816   8.956  12.489
46846SOL     OW42434   7.487   7.573   2.776
46846SOL    HW142435   7.562   7.598   2.830
46846SOL    HW242436   7.417   7.632   2.804
46847SOL     OW42437  11.934   7.463   1.070
46847SOL    HW142438  12.010   7.410   1.049
46847SOL    HW242439  11.872   7.447   0.998
46848SOL     OW42440  11.909   2.511   5.980
46848SOL    HW142441  11.845   2.465   6.035
46848SOL    HW242442  11.957   2.567   6.040
46849SOL     OW42443   4.679   9.733  14.478
46849SOL    HW142444   4.659   9.796  14.547
46849SOL    HW242445   4.654   9.648  14.514
46850SOL     OW42446   0.473   6.685   2.636
46850SOL    HW142447   0.391   6.636   2.627
46850SOL    HW242448   0.484   6.730   2.552
46851SOL     OW42449   0.647  12.766   5.004
46851SOL    HW142450   0.697  12.824   4.948
46851SOL    HW242451   0.606  12.824   5.069
46852SOL     OW42452  14.170   0.396  13.724
46852SOL    HW142453  14.187   0.447  13.645
46852SOL    HW242454  14.220   0.441  13.792
46853SOL     OW42455   8.503   3.447  10.025
46853SOL    HW142456   8.476   3.387   9.955
46853SOL    HW242457   8.444   3.522  10.016
46854SOL     OW42458   5.595   6.797  10.413
46854SOL    HW142459   5.681   6.774  10.379
46854SOL    HW242460   5.606   6.883  10.452
46855SOL     OW42461   0.810   6.929  13.241
46855SOL    HW142462   0.887   6.935  13.298
46855SOL    HW242463   0.746   6.988  13.280
46856SOL     OW42464  12.589   2.449   9.026
46856SOL    HW142465  12.536   2.525   9.002
46856SOL    HW242466  12.674   2.465   8.985
46857SOL     OW42467   8.722   2.751   7.078
46857SOL    HW142468   8.712   2.689   7.007
46857SOL    HW242469   8.816   2.747   7.100
46858SOL     OW42470   4.553   9.905  12.923
46858SOL    HW142471   4.513   9.986  12.954
46858SOL    HW242472   4.541   9.843  12.995
46859SOL     OW42473  13.810   1.253   3.698
46859SOL    HW142474  13.787   1.176   3.749
46859SOL    HW242475  13.760   1.325   3.738
46860SOL     OW42476   5.159  11.748   7.699
46860SOL    HW142477   5.193  11.677   7.645
46860SOL    HW242478   5.097  11.794   7.642
46861SOL     OW42479   9.871   6.215  10.563
46861SOL    HW142480   9.846   6.307  10.577
46861SOL    HW242481   9.929   6.194  10.636
46862SOL     OW42482   3.406   4.102   3.616
46862SOL    HW142483   3.449   4.026   3.655
46862SOL    HW242484   3.474   4.169   3.612
46863SOL     OW42485  10.465  11.569   2.823
46863SOL    HW142486  10.482  11.554   2.730
46863SOL    HW242487  10.431  11.485   2.854
46864SOL     OW42488   5.855   5.811   4.218
46864SOL    HW142489   5.788   5.856   4.270
46864SOL    HW242490   5.888   5.742   4.276
46865SOL     OW42491  10.486   1.287  13.095
46865SOL    HW142492  10.413   1.255  13.042
46865SOL    HW242493  10.459   1.375  13.123
46866SOL     OW42494   7.642   7.579   2.550
46866SOL    HW142495   7.578   7.572   2.479
46866SOL    HW242496   7.591   7.571   2.630
46867SOL     OW42497   2.965   6.877   3.833
46867SOL    HW142498   2.956   6.972   3.825
46867SOL    HW242499   2.987   6.847   3.744
46868SOL     OW42500   8.084   5.188   9.858
46868SOL    HW142501   8.135   5.118   9.898
46868SOL    HW242502   8.021   5.213   9.925
46869SOL     OW42503   6.072   9.739  12.964
46869SOL    HW142504   6.066   9.758  12.870
46869SOL    HW242505   5.984   9.754  12.997
46870SOL     OW42506   6.042   8.935  10.609
46870SOL    HW142507   6.057   9.029  10.601
46870SOL    HW242508   5.975   8.927  10.676
46871SOL     OW42509  14.143  14.549  13.241
46871SOL    HW142510  14.088  14.599  13.302
46871SOL    HW242511  14.148  14.604  13.163
46872SOL     OW42512  14.842   8.650   8.202
46872SOL    HW142513  14.839   8.576   8.142
46872SOL    HW242514   0.050   8.691   8.187
46873SOL     OW42515   2.429   9.116   5.060
46873SOL    HW142516   2.356   9.055   5.070
46873SOL    HW242517   2.391   9.191   5.014
46874SOL     OW42518   4.625  13.843   3.377
46874SOL    HW142519   4.664  13.906   3.438
46874SOL    HW242520   4.699  13.792   3.345
46875SOL     OW42521   0.875   7.029  10.806
46875SOL    HW142522   0.869   6.941  10.769
46875SOL    HW242523   0.968   7.047  10.813
46876SOL     OW42524   4.180   3.394  11.280
46876SOL    HW142525   4.214   3.307  11.297
46876SOL    HW242526   4.164   3.396  11.186
46877SOL     OW42527   2.803   5.509   3.272
46877SOL    HW142528   2.707   5.504   3.278
46877SOL    HW242529   2.823   5.477   3.184
46878SOL     OW42530  10.235   2.260  13.713
46878SOL    HW142531  10.286   2.306  13.646
46878SOL    HW242532  10.221   2.326  13.781
46879SOL     OW42533   9.392  11.068   1.225
46879SOL    HW142534   9.378  11.163   1.228
46879SOL    HW242535   9.460  11.051   1.290
46880SOL     OW42536   1.331   3.518   7.768
46880SOL    HW142537   1.294   3.601   7.739
46880SOL    HW242538   1.409   3.543   7.817
46881SOL     OW42539  10.889  14.431   6.909
46881SOL    HW142540  10.855  14.511   6.870
46881SOL    HW242541  10.816  14.369   6.905
46882SOL     OW42542   3.693  14.412   3.973
46882SOL    HW142543   3.768  14.426   4.032
46882SOL    HW242544   3.674  14.498   3.938
46883SOL     OW42545   6.650   6.872  13.651
46883SOL    HW142546   6.688   6.921  13.579
46883SOL    HW242547   6.629   6.786  13.614
46884SOL     OW42548  13.320  12.145   5.822
46884SOL    HW142549  13.325  12.049   5.828
46884SOL    HW242550  13.236  12.167   5.861
46885SOL     OW42551  12.932   2.355  12.766
46885SOL    HW142552  12.841   2.377  12.748
46885SOL    HW242553  12.946   2.272  12.722
46886SOL     OW42554  10.131   2.436   3.489
46886SOL    HW142555  10.118   2.430   3.583
46886SOL    HW242556  10.046   2.412   3.452
46887SOL     OW42557   7.126   9.832   8.365
46887SOL    HW142558   7.122   9.922   8.395
46887SOL    HW242559   7.051   9.789   8.407
46888SOL     OW42560   8.708   4.615   2.183
46888SOL    HW142561   8.688   4.535   2.135
46888SOL    HW242562   8.681   4.597   2.273
46889SOL     OW42563  12.273  13.953  14.784
46889SOL    HW142564  12.234  13.869  14.806
46889SOL    HW242565  12.199  14.012  14.771
46890SOL     OW42566  10.901  11.692  13.106
46890SOL    HW142567  10.954  11.700  13.027
46890SOL    HW242568  10.811  11.699  13.074
46891SOL     OW42569   4.974  10.247   5.046
46891SOL    HW142570   4.992  10.254   4.952
46891SOL    HW242571   5.024  10.171   5.075
46892SOL     OW42572  14.146   1.775   3.107
46892SOL    HW142573  14.182   1.861   3.127
46892SOL    HW242574  14.107   1.746   3.189
46893SOL     OW42575   0.181   5.138  11.237
46893SOL    HW142576   0.089   5.139  11.213
46893SOL    HW242577   0.188   5.067  11.301
46894SOL     OW42578   3.323   4.654   3.476
46894SOL    HW142579   3.346   4.561   3.470
46894SOL    HW242580   3.398   4.700   3.440
46895SOL     OW42581   0.336  10.524   3.879
46895SOL    HW142582   0.278  10.513   3.953
46895SOL    HW242583   0.363  10.435   3.855
46896SOL     OW42584  11.945   5.163  10.677
46896SOL    HW142585  11.891   5.090  10.706
46896SOL    HW242586  11.962   5.214  10.756
46897SOL     OW42587   9.018  13.123  12.497
46897SOL    HW142588   9.092  13.184  12.499
46897SOL    HW242589   9.022  13.078  12.581
46898SOL     OW42590   9.976  13.585   1.784
46898SOL    HW142591   9.939  13.619   1.702
46898SOL    HW242592   9.917  13.619   1.852
46899SOL     OW42593  13.491   4.171   8.696
46899SOL    HW142594  13.517   4.251   8.652
46899SOL    HW242595  13.395   4.169   8.689
46900SOL     OW42596  14.138   5.979   1.376
46900SOL    HW142597  14.105   6.069   1.382
46900SOL    HW242598  14.094   5.933   1.447
46901SOL     OW42599   5.034   8.750  11.578
46901SOL    HW142600   5.073   8.825  11.621
46901SOL    HW242601   5.011   8.781  11.491
46902SOL     OW42602  14.875  10.510   5.553
46902SOL    HW142603  14.858  10.417   5.537
46902SOL    HW242604  14.801  10.555   5.513
46903SOL     OW42605   3.699   1.048   7.533
46903SOL    HW142606   3.609   1.079   7.545
46903SOL    HW242607   3.700   1.010   7.445
46904SOL     OW42608   3.215   4.563   1.092
46904SOL    HW142609   3.230   4.657   1.102
46904SOL    HW242610   3.131   4.546   1.133
46905SOL     OW42611  13.875   8.008   8.697
46905SOL    HW142612  13.835   7.938   8.644
46905SOL    HW242613  13.961   8.022   8.657
46906SOL     OW42614  14.442  10.973   3.856
46906SOL    HW142615  14.433  10.890   3.903
46906SOL    HW242616  14.457  11.037   3.925
46907SOL     OW42617  12.789   4.187  11.441
46907SOL    HW142618  12.825   4.212  11.527
46907SOL    HW242619  12.845   4.232  11.378
46908SOL     OW42620   3.742  14.122   0.654
46908SOL    HW142621   3.698  14.199   0.616
46908SOL    HW242622   3.693  14.048   0.618
46909SOL     OW42623  13.386  10.130   7.582
46909SOL    HW142624  13.409  10.037   7.570
46909SOL    HW242625  13.465  10.177   7.558
46910SOL     OW42626  13.051   2.969  13.938
46910SOL    HW142627  13.032   2.986  14.030
46910SOL    HW242628  12.966   2.955  13.898
46911SOL     OW42629   2.210   6.625  10.140
46911SOL    HW142630   2.243   6.686  10.206
46911SOL    HW242631   2.226   6.538  10.178
46912SOL     OW42632   5.211   5.820  11.754
46912SOL    HW142633   5.149   5.812  11.827
46912SOL    HW242634   5.261   5.738  11.758
46913SOL     OW42635  14.799   6.487   6.473
46913SOL    HW142636   0.015   6.509   6.472
46913SOL    HW242637  14.756   6.562   6.434
46914SOL     OW42638   0.587  11.782   6.375
46914SOL    HW142639   0.579  11.698   6.420
46914SOL    HW242640   0.521  11.777   6.305
46915SOL     OW42641   9.137   1.384  13.560
46915SOL    HW142642   9.181   1.445  13.619
46915SOL    HW242643   9.132   1.302  13.610
46916SOL     OW42644  10.327  14.314  14.546
46916SOL    HW142645  10.412  14.277  14.570
46916SOL    HW242646  10.289  14.343  14.629
46917SOL     OW42647   5.869  10.699   3.081
46917SOL    HW142648   5.780  10.666   3.066
46917SOL    HW242649   5.892  10.669   3.168
46918SOL     OW42650  11.779   0.708   2.664
46918SOL    HW142651  11.796   0.634   2.721
46918SOL    HW242652  11.809   0.679   2.577
46919SOL     OW42653  14.395   5.123   1.532
46919SOL    HW142654  14.397   5.029   1.516
46919SOL    HW242655  14.385   5.162   1.446
46920SOL     OW42656   0.765   1.963   4.325
46920SOL    HW142657   0.789   1.910   4.401
46920SOL    HW242658   0.752   2.051   4.360
46921SOL     OW42659  14.357   4.112   5.521
46921SOL    HW142660  14.376   4.071   5.437
46921SOL    HW242661  14.262   4.106   5.530
46922SOL     OW42662   8.055   0.180  12.148
46922SOL    HW142663   8.107   0.100  12.146
46922SOL    HW242664   8.116   0.249  12.122
46923SOL     OW42665   1.366   9.824  11.322
46923SOL    HW142666   1.421   9.760  11.368
46923SOL    HW242667   1.427   9.892  11.294
46924SOL     OW42668   6.576   8.352   0.209
46924SOL    HW142669   6.559   8.346   0.115
46924SOL    HW242670   6.656   8.303   0.223
46925SOL     OW42671   5.769  12.132   6.950
46925SOL    HW142672   5.830  12.133   7.025
46925SOL    HW242673   5.805  12.197   6.890
46926SOL     OW42674  13.735   9.968   5.838
46926SOL    HW142675  13.708   9.920   5.916
46926SOL    HW242676  13.754   9.899   5.773
46927SOL     OW42677   5.414   2.077  12.392
46927SOL    HW142678   5.394   2.149  12.332
46927SOL    HW242679   5.377   1.999  12.351
46928SOL     OW42680   8.204   4.937  10.773
46928SOL    HW142681   8.262   4.900  10.839
46928SOL    HW242682   8.237   4.903  10.690
46929SOL     OW42683   6.381  11.681  13.910
46929SOL    HW142684   6.457  11.623  13.901
46929SOL    HW242685   6.306  11.622  13.915
46930SOL     OW42686  10.640   1.607  12.215
46930SOL    HW142687  10.652   1.559  12.133
46930SOL    HW242688  10.727   1.612  12.254
46931SOL     OW42689  13.792   9.516   2.687
46931SOL    HW142690  13.779   9.554   2.773
46931SOL    HW242691  13.772   9.423   2.698
46932SOL     OW42692  14.009  12.435   1.562
46932SOL    HW142693  14.087  12.484   1.535
46932SOL    HW242694  13.959  12.423   1.482
46933SOL     OW42695   6.801   1.062  13.785
46933SOL    HW142696   6.779   1.126  13.853
46933SOL    HW242697   6.896   1.056  13.789
46934SOL     OW42698   6.257   7.332   0.859
46934SOL    HW142699   6.284   7.313   0.769
46934SOL    HW242700   6.295   7.261   0.911
46935SOL     OW42701  14.705  14.406   2.198
46935SOL    HW142702  14.746  14.386   2.114
46935SOL    HW242703  14.759  14.361   2.262
46936SOL     OW42704   6.279   4.697   6.380
46936SOL    HW142705   6.354   4.750   6.407
46936SOL    HW242706   6.295   4.612   6.421
46937SOL     OW42707   3.559   2.073   3.842
46937SOL    HW142708   3.555   2.126   3.922
46937SOL    HW242709   3.489   2.107   3.787
46938SOL     OW42710   8.032   4.172  12.230
46938SOL    HW142711   8.127   4.174  12.243
46938SOL    HW242712   8.020   4.144  12.139
46939SOL     OW42713  12.188  13.804   8.789
46939SOL    HW142714  12.162  13.806   8.697
46939SOL    HW242715  12.199  13.896   8.814
46940SOL     OW42716   7.174   8.049   9.381
46940SOL    HW142717   7.223   8.109   9.437
46940SOL    HW242718   7.231   7.972   9.372
46941SOL     OW42719   2.757   7.598  10.345
46941SOL    HW142720   2.805   7.570  10.423
46941SOL    HW242721   2.820   7.592  10.274
46942SOL     OW42722   0.482   9.597   6.471
46942SOL    HW142723   0.542   9.574   6.400
46942SOL    HW242724   0.452   9.512   6.505
46943SOL     OW42725   0.657   4.984   1.901
46943SOL    HW142726   0.641   5.078   1.889
46943SOL    HW242727   0.702   4.979   1.986
46944SOL     OW42728   0.956  14.445   3.827
46944SOL    HW142729   1.016  14.466   3.756
46944SOL    HW242730   0.934  14.529   3.866
46945SOL     OW42731   8.950   7.139  12.171
46945SOL    HW142732   8.985   7.072  12.112
46945SOL    HW242733   8.855   7.132  12.161
46946SOL     OW42734  13.662   2.043  11.237
46946SOL    HW142735  13.716   2.122  11.248
46946SOL    HW242736  13.575   2.076  11.217
46947SOL     OW42737  11.099   6.466  13.420
46947SOL    HW142738  11.075   6.453  13.512
46947SOL    HW242739  11.181   6.417  13.410
46948SOL     OW42740  13.476   7.731   9.328
46948SOL    HW142741  13.513   7.739   9.240
46948SOL    HW242742  13.385   7.707   9.313
46949SOL     OW42743  12.014   2.577   4.871
46949SOL    HW142744  12.018   2.489   4.834
46949SOL    HW242745  12.039   2.565   4.963
46950SOL     OW42746  13.358  12.020   2.823
46950SOL    HW142747  13.340  11.981   2.909
46950SOL    HW242748  13.283  12.079   2.808
46951SOL     OW42749   0.386  12.316   4.213
46951SOL    HW142750   0.383  12.400   4.258
46951SOL    HW242751   0.391  12.338   4.120
46952SOL     OW42752   4.700   4.509   3.738
46952SOL    HW142753   4.676   4.599   3.715
46952SOL    HW242754   4.749   4.477   3.662
46953SOL     OW42755   1.225   5.974   7.709
46953SOL    HW142756   1.262   5.932   7.632
46953SOL    HW242757   1.254   6.065   7.704
46954SOL     OW42758  12.591   8.436  12.729
46954SOL    HW142759  12.570   8.387  12.808
46954SOL    HW242760  12.516   8.422  12.671
46955SOL     OW42761   5.755  12.734   6.547
46955SOL    HW142762   5.812  12.663   6.516
46955SOL    HW242763   5.743  12.716   6.640
46956SOL     OW42764  13.453   9.125  11.761
46956SOL    HW142765  13.378   9.179  11.788
46956SOL    HW242766  13.506   9.183  11.707
46957SOL     OW42767   1.480   8.700  11.219
46957SOL    HW142768   1.389   8.725  11.204
46957SOL    HW242769   1.494   8.715  11.312
46958SOL     OW42770  12.477  10.202   3.181
46958SOL    HW142771  12.439  10.133   3.236
46958SOL    HW242772  12.472  10.281   3.235
46959SOL     OW42773  13.579  13.662   7.714
46959SOL    HW142774  13.666  13.663   7.753
46959SOL    HW242775  13.582  13.590   7.651
46960SOL     OW42776   3.671   2.321  10.432
46960SOL    HW142777   3.710   2.339  10.517
46960SOL    HW242778   3.597   2.382  10.426
46961SOL     OW42779  11.854   2.035  11.936
46961SOL    HW142780  11.815   2.052  11.850
46961SOL    HW242781  11.915   1.963  11.920
46962SOL     OW42782  10.714   3.007   4.697
46962SOL    HW142783  10.739   3.100   4.701
46962SOL    HW242784  10.789   2.965   4.653
46963SOL     OW42785   0.765   9.933  11.122
46963SOL    HW142786   0.780   9.871  11.193
46963SOL    HW242787   0.838   9.994  11.126
46964SOL     OW42788   4.629   4.123   0.800
46964SOL    HW142789   4.536   4.135   0.823
46964SOL    HW242790   4.649   4.198   0.744
46965SOL     OW42791   5.412   8.281  12.734
46965SOL    HW142792   5.356   8.235  12.672
46965SOL    HW242793   5.420   8.369  12.697
46966SOL     OW42794  10.567   3.474   0.888
46966SOL    HW142795  10.494   3.430   0.932
46966SOL    HW242796  10.535   3.492   0.800
46967SOL     OW42797  10.436   5.875   3.603
46967SOL    HW142798  10.404   5.785   3.606
46967SOL    HW242799  10.357   5.929   3.596
46968SOL     OW42800   0.451   0.603   8.698
46968SOL    HW142801   0.384   0.591   8.766
46968SOL    HW242802   0.430   0.688   8.659
46969SOL     OW42803  11.542  12.048  14.174
46969SOL    HW142804  11.498  11.963  14.183
46969SOL    HW242805  11.540  12.085  14.263
46970SOL     OW42806   0.285  11.812  13.874
46970SOL    HW142807   0.275  11.727  13.832
46970SOL    HW242808   0.314  11.792  13.963
46971SOL     OW42809   1.061   9.128   8.733
46971SOL    HW142810   1.095   9.202   8.683
46971SOL    HW242811   1.083   9.051   8.680
46972SOL     OW42812   5.662   9.840  13.682
46972SOL    HW142813   5.695   9.929  13.693
46972SOL    HW242814   5.647   9.832  13.588
46973SOL     OW42815  12.755  10.238  10.274
46973SOL    HW142816  12.790  10.169  10.219
46973SOL    HW242817  12.826  10.301  10.282
46974SOL     OW42818   8.345   8.318   7.531
46974SOL    HW142819   8.398   8.248   7.493
46974SOL    HW242820   8.394   8.347   7.608
46975SOL     OW42821   9.358   4.705  10.452
46975SOL    HW142822   9.281   4.648  10.445
46975SOL    HW242823   9.411   4.682  10.376
46976SOL     OW42824   6.123   2.032   0.951
46976SOL    HW142825   6.177   1.979   1.009
46976SOL    HW242826   6.182   2.099   0.917
46977SOL     OW42827  10.753  12.413   1.907
46977SOL    HW142828  10.825  12.372   1.955
46977SOL    HW242829  10.736  12.354   1.834
46978SOL     OW42830   0.264   6.561   1.201
46978SOL    HW142831   0.309   6.483   1.234
46978SOL    HW242832   0.306   6.634   1.247
46979SOL     OW42833  13.215   0.972  10.442
46979SOL    HW142834  13.257   0.890  10.468
46979SOL    HW242835  13.132   0.973  10.490
46980SOL     OW42836   5.430   6.971  10.250
46980SOL    HW142837   5.488   6.899  10.276
46980SOL    HW242838   5.349   6.957  10.300
46981SOL     OW42839   1.704   7.606   8.868
46981SOL    HW142840   1.678   7.679   8.811
46981SOL    HW242841   1.623   7.576   8.908
46982SOL     OW42842   1.991   2.622   5.634
46982SOL    HW142843   1.943   2.624   5.551
46982SOL    HW242844   2.069   2.571   5.615
46983SOL     OW42845   7.575  14.645  10.412
46983SOL    HW142846   7.652  14.694  10.385
46983SOL    HW242847   7.501  14.700  10.386
46984SOL     OW42848   0.309   0.173   5.862
46984SOL    HW142849   0.341   0.094   5.818
46984SOL    HW242850   0.368   0.182   5.938
46985SOL     OW42851   4.708   5.857  10.974
46985SOL    HW142852   4.681   5.906  10.896
46985SOL    HW242853   4.762   5.918  11.024
46986SOL     OW42854   2.206   4.920  14.801
46986SOL    HW142855   2.299   4.921  14.823
46986SOL    HW242856   2.203   4.895  14.708
46987SOL     OW42857   7.510   6.378  10.918
46987SOL    HW142858   7.496   6.388  10.823
46987SOL    HW242859   7.555   6.458  10.944
46988SOL     OW42860   7.974   5.505  14.536
46988SOL    HW142861   7.955   5.577  14.477
46988SOL    HW242862   7.940   5.533  14.621
46989SOL     OW42863   4.522   6.421  12.233
46989SOL    HW142864   4.551   6.495  12.286
46989SOL    HW242865   4.536   6.344  12.288
46990SOL     OW42866   9.439   8.467   1.625
46990SOL    HW142867   9.496   8.392   1.645
46990SOL    HW242868   9.350   8.431   1.626
46991SOL     OW42869  13.589  12.165   0.660
46991SOL    HW142870  13.607  12.197   0.572
46991SOL    HW242871  13.493  12.160   0.665
46992SOL     OW42872   3.569  13.532   0.226
46992SOL    HW142873   3.477  13.558   0.236
46992SOL    HW242874   3.565  13.446   0.182
46993SOL     OW42875  11.396   0.220  13.512
46993SOL    HW142876  11.489   0.198  13.516
46993SOL    HW242877  11.394   0.315  13.502
46994SOL     OW42878   5.860  12.887  10.350
46994SOL    HW142879   5.953  12.908  10.342
46994SOL    HW242880   5.856  12.792  10.340
46995SOL     OW42881   6.286  11.041   0.183
46995SOL    HW142882   6.306  10.949   0.164
46995SOL    HW242883   6.202  11.057   0.142
46996SOL     OW42884  11.906   7.738   0.632
46996SOL    HW142885  11.951   7.780   0.706
46996SOL    HW242886  11.821   7.712   0.667
46997SOL     OW42887  12.668  14.844  10.048
46997SOL    HW142888  12.751  14.809  10.081
46997SOL    HW242889  12.639  14.780   9.984
46998SOL     OW42890   3.977  11.082   9.028
46998SOL    HW142891   4.005  11.083   8.936
46998SOL    HW242892   4.029  11.151   9.069
46999SOL     OW42893   0.705  12.649  13.019
46999SOL    HW142894   0.629  12.702  13.039
46999SOL    HW242895   0.702  12.637  12.924
47000SOL     OW42896   5.486  11.445   1.560
47000SOL    HW142897   5.481  11.426   1.466
47000SOL    HW242898   5.427  11.519   1.572
47001SOL     OW42899   1.693   4.204   4.356
47001SOL    HW142900   1.726   4.120   4.388
47001SOL    HW242901   1.641   4.181   4.278
47002SOL     OW42902  13.969  14.182   5.536
47002SOL    HW142903  14.036  14.228   5.587
47002SOL    HW242904  13.991  14.089   5.547
47003SOL     OW42905  11.238   1.596   9.060
47003SOL    HW142906  11.275   1.548   9.134
47003SOL    HW242907  11.268   1.549   8.983
47004SOL     OW42908  10.402   1.450   5.288
47004SOL    HW142909  10.449   1.375   5.252
47004SOL    HW242910  10.464   1.490   5.349
47005SOL     OW42911  13.787   7.705   1.290
47005SOL    HW142912  13.882   7.695   1.280
47005SOL    HW242913  13.775   7.731   1.381
47006SOL     OW42914  11.880   9.240   9.834
47006SOL    HW142915  11.848   9.172   9.776
47006SOL    HW242916  11.954   9.200   9.880
47007SOL     OW42917  10.270  14.046   6.479
47007SOL    HW142918  10.232  14.088   6.556
47007SOL    HW242919  10.246  14.103   6.406
47008SOL     OW42920   7.046  14.802   4.504
47008SOL    HW142921   6.956  14.818   4.531
47008SOL    HW242922   7.090   0.009   4.516
47009SOL     OW42923   1.709  13.122   8.205
47009SOL    HW142924   1.625  13.169   8.201
47009SOL    HW242925   1.768  13.183   8.250
47010SOL     OW42926   5.755  11.575   2.599
47010SOL    HW142927   5.708  11.494   2.617
47010SOL    HW242928   5.690  11.631   2.555
47011SOL     OW42929   5.030   6.441   8.866
47011SOL    HW142930   5.096   6.510   8.862
47011SOL    HW242931   4.994   6.447   8.954
47012SOL     OW42932   0.505   9.899   0.931
47012SOL    HW142933   0.446   9.868   0.999
47012SOL    HW242934   0.507   9.829   0.866
47013SOL     OW42935   5.505  13.140   3.483
47013SOL    HW142936   5.469  13.167   3.399
47013SOL    HW242937   5.485  13.213   3.542
47014SOL     OW42938   6.477   5.391   3.284
47014SOL    HW142939   6.556   5.384   3.229
47014SOL    HW242940   6.502   5.350   3.367
47015SOL     OW42941   0.737   2.391  10.929
47015SOL    HW142942   0.690   2.455  10.876
47015SOL    HW242943   0.827   2.394  10.896
47016SOL     OW42944  12.415  11.728  10.613
47016SOL    HW142945  12.496  11.678  10.620
47016SOL    HW242946  12.440  11.805  10.561
47017SOL     OW42947   2.254   9.737   7.059
47017SOL    HW142948   2.293   9.722   6.973
47017SOL    HW242949   2.307   9.683   7.119
47018SOL     OW42950  13.939   6.179   1.091
47018SOL    HW142951  13.886   6.248   1.050
47018SOL    HW242952  13.974   6.220   1.170
47019SOL     OW42953  10.065   3.470  12.062
47019SOL    HW142954   9.986   3.513  12.028
47019SOL    HW242955  10.049   3.462  12.156
47020SOL     OW42956   2.320   2.395  13.295
47020SOL    HW142957   2.338   2.388  13.388
47020SOL    HW242958   2.401   2.366  13.252
47021SOL     OW42959  13.676   9.463   1.580
47021SOL    HW142960  13.741   9.427   1.641
47021SOL    HW242961  13.699   9.556   1.573
47022SOL     OW42962   0.406   5.402  10.010
47022SOL    HW142963   0.446   5.488  10.002
47022SOL    HW242964   0.315   5.420  10.033
47023SOL     OW42965   1.041   2.910   6.564
47023SOL    HW142966   1.070   2.931   6.475
47023SOL    HW242967   1.044   2.815   6.568
47024SOL     OW42968   8.228   4.614   7.860
47024SOL    HW142969   8.293   4.681   7.882
47024SOL    HW242970   8.189   4.590   7.944
47025SOL     OW42971   7.543   3.999   2.385
47025SOL    HW142972   7.524   4.068   2.321
47025SOL    HW242973   7.632   4.018   2.415
47026SOL     OW42974   8.941   7.798   7.955
47026SOL    HW142975   8.942   7.893   7.956
47026SOL    HW242976   8.939   7.773   8.048
47027SOL     OW42977   6.492   0.931   6.702
47027SOL    HW142978   6.552   0.889   6.641
47027SOL    HW242979   6.453   1.003   6.653
47028SOL     OW42980   2.492  10.704  12.959
47028SOL    HW142981   2.452  10.675  13.041
47028SOL    HW242982   2.550  10.632  12.933
47029SOL     OW42983   0.783  12.960   3.965
47029SOL    HW142984   0.864  12.928   4.004
47029SOL    HW242985   0.787  12.929   3.874
47030SOL     OW42986   1.534   3.757   2.005
47030SOL    HW142987   1.457   3.807   2.034
47030SOL    HW242988   1.560   3.799   1.923
47031SOL     OW42989   5.415   6.354  10.794
47031SOL    HW142990   5.384   6.425  10.850
47031SOL    HW242991   5.376   6.275  10.832
47032SOL     OW42992  10.264  12.935  14.373
47032SOL    HW142993  10.208  12.981  14.435
47032SOL    HW242994  10.249  12.842  14.391
47033SOL     OW42995   0.660   2.709   9.781
47033SOL    HW142996   0.602   2.735   9.709
47033SOL    HW242997   0.744   2.692   9.739
47034SOL     OW42998  10.189   6.268  12.392
47034SOL    HW142999  10.227   6.346  12.351
47034SOL    HW243000  10.104   6.258  12.349
47035SOL     OW43001   0.713   1.100   7.051
47035SOL    HW143002   0.767   1.022   7.063
47035SOL    HW243003   0.657   1.079   6.977
47036SOL     OW43004  11.908  11.458  10.097
47036SOL    HW143005  11.904  11.552  10.116
47036SOL    HW243006  12.000  11.442  10.075
47037SOL     OW43007   8.940   5.095   5.273
47037SOL    HW143008   8.874   5.042   5.317
47037SOL    HW243009   8.930   5.076   5.180
47038SOL     OW43010  12.260   5.561   2.653
47038SOL    HW143011  12.317   5.492   2.687
47038SOL    HW243012  12.304   5.643   2.678
47039SOL     OW43013   9.400   4.016  13.295
47039SOL    HW143014   9.462   4.000  13.366
47039SOL    HW243015   9.395   4.112  13.289
47040SOL     OW43016   2.812   0.376   7.336
47040SOL    HW143017   2.770   0.446   7.386
47040SOL    HW243018   2.906   0.397   7.341
47041SOL     OW43019   3.214   7.388   4.669
47041SOL    HW143020   3.165   7.468   4.685
47041SOL    HW243021   3.237   7.392   4.576
47042SOL     OW43022  11.542  12.697   2.592
47042SOL    HW143023  11.534  12.623   2.652
47042SOL    HW243024  11.583  12.660   2.513
47043SOL     OW43025  13.928   1.079  12.117
47043SOL    HW143026  13.872   1.018  12.166
47043SOL    HW243027  13.971   1.025  12.052
47044SOL     OW43028   8.024  14.653  12.369
47044SOL    HW143029   8.019  14.718  12.439
47044SOL    HW243030   8.032  14.569  12.414
47045SOL     OW43031   0.425  14.224   1.899
47045SOL    HW143032   0.511  14.182   1.890
47045SOL    HW243033   0.395  14.236   1.809
47046SOL     OW43034   3.598   5.004   8.497
47046SOL    HW143035   3.594   5.070   8.428
47046SOL    HW243036   3.638   4.928   8.456
47047SOL     OW43037   9.985   5.645   7.681
47047SOL    HW143038  10.040   5.567   7.671
47047SOL    HW243039   9.925   5.641   7.606
47048SOL     OW43040   3.502   4.208  12.101
47048SOL    HW143041   3.494   4.220  12.196
47048SOL    HW243042   3.414   4.226  12.068
47049SOL     OW43043   3.985   5.080   2.938
47049SOL    HW143044   3.902   5.127   2.931
47049SOL    HW243045   4.039   5.137   2.993
47050SOL     OW43046  13.315  12.289  10.615
47050SOL    HW143047  13.342  12.296  10.707
47050SOL    HW243048  13.395  12.264  10.568
47051SOL     OW43049  14.131   8.847   5.723
47051SOL    HW143050  14.162   8.756   5.729
47051SOL    HW243051  14.084   8.850   5.639
47052SOL     OW43052  14.230   2.830   9.315
47052SOL    HW143053  14.319   2.822   9.348
47052SOL    HW243054  14.207   2.922   9.328
47053SOL     OW43055   7.703  10.442   9.445
47053SOL    HW143056   7.683  10.472   9.534
47053SOL    HW243057   7.724  10.349   9.455
47054SOL     OW43058  13.646   5.356  12.676
47054SOL    HW143059  13.726   5.388  12.717
47054SOL    HW243060  13.594   5.435  12.661
47055SOL     OW43061   8.533   4.182   3.029
47055SOL    HW143062   8.583   4.264   3.038
47055SOL    HW243063   8.499   4.185   2.940
47056SOL     OW43064   6.769   4.394   1.360
47056SOL    HW143065   6.851   4.345   1.346
47056SOL    HW243066   6.796   4.485   1.360
47057SOL     OW43067   8.383   5.014   1.878
47057SOL    HW143068   8.411   5.105   1.884
47057SOL    HW243069   8.457   4.969   1.838
47058SOL     OW43070  12.156  13.209   9.174
47058SOL    HW143071  12.103  13.130   9.185
47058SOL    HW243072  12.098  13.280   9.202
47059SOL     OW43073   9.512   7.537   9.107
47059SOL    HW143074   9.601   7.564   9.086
47059SOL    HW243075   9.521   7.452   9.149
47060SOL     OW43076   9.388  11.371  14.579
47060SOL    HW143077   9.467  11.339  14.623
47060SOL    HW243078   9.371  11.306  14.510
47061SOL     OW43079   3.602  14.520   2.410
47061SOL    HW143080   3.591  14.533   2.505
47061SOL    HW243081   3.659  14.445   2.402
47062SOL     OW43082   3.782  14.333   7.353
47062SOL    HW143083   3.843  14.406   7.359
47062SOL    HW243084   3.837  14.256   7.342
47063SOL     OW43085   4.283   7.555   2.223
47063SOL    HW143086   4.348   7.604   2.273
47063SOL    HW243087   4.244   7.496   2.288
47064SOL     OW43088   6.999   9.858   2.761
47064SOL    HW143089   6.920   9.910   2.745
47064SOL    HW243090   7.052   9.870   2.681
47065SOL     OW43091   3.765  11.212   1.851
47065SOL    HW143092   3.780  11.202   1.945
47065SOL    HW243093   3.852  11.208   1.812
47066SOL     OW43094   5.490  12.424   9.092
47066SOL    HW143095   5.436  12.492   9.130
47066SOL    HW243096   5.524  12.375   9.168
47067SOL     OW43097   9.485  10.461   9.595
47067SOL    HW143098   9.408  10.431   9.643
47067SOL    HW243099   9.522  10.530   9.651
47068SOL     OW43100   3.664   3.388  13.627
47068SOL    HW143101   3.688   3.429  13.710
47068SOL    HW243102   3.597   3.446  13.590
47069SOL     OW43103   8.074   5.683  14.335
47069SOL    HW143104   8.162   5.720  14.336
47069SOL    HW243105   8.018   5.755  14.305
47070SOL     OW43106   2.856   3.674   2.757
47070SOL    HW143107   2.811   3.758   2.764
47070SOL    HW243108   2.948   3.697   2.739
47071SOL     OW43109  13.969   3.002   2.881
47071SOL    HW143110  14.016   3.060   2.940
47071SOL    HW243111  14.011   3.015   2.796
47072SOL     OW43112   0.818   5.587  11.872
47072SOL    HW143113   0.725   5.601  11.854
47072SOL    HW243114   0.821   5.506  11.924
47073SOL     OW43115   8.146   5.652  10.119
47073SOL    HW143116   8.234   5.615  10.111
47073SOL    HW243117   8.122   5.678  10.030
47074SOL     OW43118  13.750   8.791  10.607
47074SOL    HW143119  13.764   8.856  10.538
47074SOL    HW243120  13.768   8.707  10.565
47075SOL     OW43121   9.104   1.662   4.493
47075SOL    HW143122   9.088   1.709   4.411
47075SOL    HW243123   9.192   1.687   4.518
47076SOL     OW43124   6.598   0.552  14.867
47076SOL    HW143125   6.582   0.518   0.078
47076SOL    HW243126   6.542   0.630  14.862
47077SOL     OW43127  12.175   5.113  11.303
47077SOL    HW143128  12.174   5.150  11.214
47077SOL    HW243129  12.086   5.081  11.317
47078SOL     OW43130   0.563  11.766   8.294
47078SOL    HW143131   0.521  11.849   8.274
47078SOL    HW243132   0.540  11.748   8.385
47079SOL     OW43133   9.938   2.570   2.013
47079SOL    HW143134   9.847   2.590   1.992
47079SOL    HW243135   9.986   2.651   1.991
47080SOL     OW43136   5.705   0.928   9.450
47080SOL    HW143137   5.634   0.870   9.425
47080SOL    HW243138   5.762   0.931   9.372
47081SOL     OW43139   9.292   7.893   0.346
47081SOL    HW143140   9.386   7.892   0.364
47081SOL    HW243141   9.252   7.928   0.426
47082SOL     OW43142  12.944  12.232  12.174
47082SOL    HW143143  12.858  12.215  12.214
47082SOL    HW243144  12.924  12.282  12.095
47083SOL     OW43145   4.394  11.629  10.488
47083SOL    HW143146   4.327  11.562  10.476
47083SOL    HW243147   4.470  11.582  10.521
47084SOL     OW43148   5.945   8.376   3.467
47084SOL    HW143149   5.965   8.469   3.483
47084SOL    HW243150   5.958   8.334   3.552
47085SOL     OW43151  14.850  10.950   5.453
47085SOL    HW143152  14.813  11.030   5.415
47085SOL    HW243153  14.871  10.895   5.378
47086SOL     OW43154   2.740  14.830   4.715
47086SOL    HW143155   2.771  14.797   4.631
47086SOL    HW243156   2.806   0.018   4.741
47087SOL     OW43157   4.736   4.753  13.941
47087SOL    HW143158   4.697   4.806  14.010
47087SOL    HW243159   4.702   4.664  13.957
47088SOL     OW43160   1.822   3.023   6.392
47088SOL    HW143161   1.869   3.102   6.366
47088SOL    HW243162   1.845   3.012   6.485
47089SOL     OW43163   2.347   8.028   6.519
47089SOL    HW143164   2.294   7.964   6.566
47089SOL    HW243165   2.416   8.052   6.582
47090SOL     OW43166  11.794  11.902  12.711
47090SOL    HW143167  11.800  11.982  12.764
47090SOL    HW243168  11.872  11.852  12.735
47091SOL     OW43169   6.324   1.300   3.844
47091SOL    HW143170   6.396   1.272   3.788
47091SOL    HW243171   6.281   1.219   3.870
47092SOL     OW43172  14.419   1.919   5.480
47092SOL    HW143173  14.324   1.911   5.488
47092SOL    HW243174  14.445   1.969   5.557
47093SOL     OW43175   4.066   3.131   4.851
47093SOL    HW143176   4.141   3.137   4.791
47093SOL    HW243177   4.066   3.040   4.880
47094SOL     OW43178  10.848  11.263  13.903
47094SOL    HW143179  10.759  11.281  13.874
47094SOL    HW243180  10.902  11.274  13.825
47095SOL     OW43181  10.822   8.483   7.304
47095SOL    HW143182  10.914   8.506   7.292
47095SOL    HW243183  10.800   8.514   7.392
47096SOL     OW43184   7.582   1.084   7.228
47096SOL    HW143185   7.585   1.042   7.142
47096SOL    HW243186   7.664   1.061   7.270
47097SOL     OW43187  11.933   7.654   7.878
47097SOL    HW143188  11.985   7.593   7.827
47097SOL    HW243189  11.853   7.606   7.900
47098SOL     OW43190   5.820   4.940  11.314
47098SOL    HW143191   5.830   4.849  11.285
47098SOL    HW243192   5.839   4.993  11.237
47099SOL     OW43193  10.733  10.225   2.805
47099SOL    HW143194  10.817  10.268   2.819
47099SOL    HW243195  10.737  10.146   2.860
47100SOL     OW43196  10.168  13.432   8.663
47100SOL    HW143197  10.168  13.359   8.725
47100SOL    HW243198  10.248  13.421   8.611
47101SOL     OW43199  11.441   9.235   9.152
47101SOL    HW143200  11.506   9.287   9.104
47101SOL    HW243201  11.410   9.171   9.088
47102SOL     OW43202   4.798  10.691   6.784
47102SOL    HW143203   4.814  10.681   6.691
47102SOL    HW243204   4.723  10.750   6.790
47103SOL     OW43205   1.368   9.853   4.151
47103SOL    HW143206   1.306   9.796   4.196
47103SOL    HW243207   1.362   9.937   4.197
47104SOL     OW43208  11.456   7.740   8.789
47104SOL    HW143209  11.383   7.787   8.748
47104SOL    HW243210  11.497   7.806   8.845
47105SOL     OW43211  12.132  14.140   4.842
47105SOL    HW143212  12.044  14.177   4.854
47105SOL    HW243213  12.179  14.164   4.922
47106SOL     OW43214   4.687   9.082   9.326
47106SOL    HW143215   4.595   9.081   9.298
47106SOL    HW243216   4.690   9.148   9.395
47107SOL     OW43217   7.533   5.071  11.047
47107SOL    HW143218   7.604   5.134  11.040
47107SOL    HW243219   7.490   5.073  10.961
47108SOL     OW43220   2.106   1.522   4.639
47108SOL    HW143221   2.068   1.500   4.724
47108SOL    HW243222   2.155   1.602   4.655
47109SOL     OW43223   3.079   0.881   6.872
47109SOL    HW143224   3.091   0.933   6.792
47109SOL    HW243225   3.165   0.844   6.890
47110SOL     OW43226  12.909   4.688   0.431
47110SOL    HW143227  12.869   4.601   0.431
47110SOL    HW243228  12.894   4.721   0.519
47111SOL     OW43229  10.800   8.100  12.260
47111SOL    HW143230  10.874   8.051  12.296
47111SOL    HW243231  10.832   8.190  12.252
47112SOL     OW43232   6.156   8.356   2.028
47112SOL    HW143233   6.209   8.392   1.957
47112SOL    HW243234   6.166   8.261   2.019
47113SOL     OW43235  13.141   6.565   4.029
47113SOL    HW143236  13.198   6.498   4.067
47113SOL    HW243237  13.109   6.614   4.105
47114SOL     OW43238   4.948   5.984   1.305
47114SOL    HW143239   4.962   5.906   1.252
47114SOL    HW243240   4.853   5.988   1.317
47115SOL     OW43241  13.611  11.120   3.379
47115SOL    HW143242  13.652  11.189   3.431
47115SOL    HW243243  13.660  11.041   3.400
47116SOL     OW43244   8.561  10.979   3.492
47116SOL    HW143245   8.614  10.899   3.495
47116SOL    HW243246   8.484  10.954   3.440
47117SOL     OW43247  14.194   6.041   5.793
47117SOL    HW143248  14.198   5.991   5.712
47117SOL    HW243249  14.265   6.104   5.786
47118SOL     OW43250   7.813  14.345   8.406
47118SOL    HW143251   7.851  14.412   8.348
47118SOL    HW243252   7.868  14.268   8.392
47119SOL     OW43253   9.541   6.766   3.008
47119SOL    HW143254   9.602   6.778   3.081
47119SOL    HW243255   9.571   6.687   2.964
47120SOL     OW43256  11.333   4.164   5.101
47120SOL    HW143257  11.419   4.136   5.072
47120SOL    HW243258  11.322   4.252   5.065
47121SOL     OW43259  12.834  11.958   9.559
47121SOL    HW143260  12.823  11.900   9.635
47121SOL    HW243261  12.756  11.943   9.506
47122SOL     OW43262  13.171   3.711   3.476
47122SOL    HW143263  13.135   3.749   3.396
47122SOL    HW243264  13.096   3.672   3.520
47123SOL     OW43265   9.624   9.729   0.271
47123SOL    HW143266   9.534   9.763   0.262
47123SOL    HW243267   9.621   9.644   0.226
47124SOL     OW43268  11.191  11.259   3.356
47124SOL    HW143269  11.279  11.228   3.336
47124SOL    HW243270  11.134  11.211   3.296
47125SOL     OW43271  10.461   9.389   4.732
47125SOL    HW143272  10.377   9.410   4.690
47125SOL    HW243273  10.490   9.472   4.771
47126SOL     OW43274   0.841   6.983  12.012
47126SOL    HW143275   0.829   6.952  12.102
47126SOL    HW243276   0.913   6.930  11.979
47127SOL     OW43277  12.815   8.504   2.725
47127SOL    HW143278  12.851   8.590   2.705
47127SOL    HW243279  12.864   8.443   2.670
47128SOL     OW43280  10.572   7.538   4.107
47128SOL    HW143281  10.546   7.629   4.122
47128SOL    HW243282  10.538   7.517   4.020
47129SOL     OW43283   7.543   7.758   7.610
47129SOL    HW143284   7.496   7.676   7.623
47129SOL    HW243285   7.539   7.801   7.696
47130SOL     OW43286  11.791   5.942   5.941
47130SOL    HW143287  11.726   5.944   6.012
47130SOL    HW243288  11.868   5.984   5.978
47131SOL     OW43289   9.108   5.718   1.235
47131SOL    HW143290   9.168   5.654   1.199
47131SOL    HW243291   9.027   5.706   1.185
47132SOL     OW43292   0.568  11.002   0.423
47132SOL    HW143293   0.513  10.928   0.398
47132SOL    HW243294   0.657  10.968   0.422
47133SOL     OW43295  14.126   6.774  12.622
47133SOL    HW143296  14.085   6.854  12.588
47133SOL    HW243297  14.064   6.741  12.688
47134SOL     OW43298   6.153  14.774  13.617
47134SOL    HW143299   6.157  14.711  13.689
47134SOL    HW243300   6.072  14.823  13.632
47135SOL     OW43301  12.489   7.423  14.205
47135SOL    HW143302  12.544   7.352  14.171
47135SOL    HW243303  12.444   7.385  14.281
47136SOL     OW43304   8.462   0.257   2.812
47136SOL    HW143305   8.525   0.211   2.756
47136SOL    HW243306   8.386   0.271   2.756
47137SOL     OW43307   0.288   7.922  14.426
47137SOL    HW143308   0.328   7.994  14.475
47137SOL    HW243309   0.307   7.942  14.334
47138SOL     OW43310  13.184   6.640  13.949
47138SOL    HW143311  13.271   6.648  13.987
47138SOL    HW243312  13.199   6.638  13.854
47139SOL     OW43313   3.977  10.522   1.573
47139SOL    HW143314   4.002  10.518   1.481
47139SOL    HW243315   3.920  10.446   1.586
47140SOL     OW43316   7.232   8.932  11.802
47140SOL    HW143317   7.150   8.903  11.841
47140SOL    HW243318   7.289   8.855  11.807
47141SOL     OW43319  14.418   3.091  11.370
47141SOL    HW143320  14.456   3.169  11.411
47141SOL    HW243321  14.484   3.022  11.383
47142SOL     OW43322   4.757  11.826   6.914
47142SOL    HW143323   4.700  11.759   6.876
47142SOL    HW243324   4.817  11.776   6.970
47143SOL     OW43325  13.839  12.873  14.129
47143SOL    HW143326  13.766  12.886  14.069
47143SOL    HW243327  13.895  12.810  14.084
47144SOL     OW43328   7.524  11.860  10.148
47144SOL    HW143329   7.477  11.813  10.080
47144SOL    HW243330   7.469  11.936  10.168
47145SOL     OW43331  14.538   0.666   7.757
47145SOL    HW143332  14.616   0.677   7.813
47145SOL    HW243333  14.538   0.744   7.702
47146SOL     OW43334   2.580   7.549  12.268
47146SOL    HW143335   2.650   7.553  12.333
47146SOL    HW243336   2.552   7.457  12.268
47147SOL     OW43337  13.782  11.123  11.935
47147SOL    HW143338  13.721  11.093  11.867
47147SOL    HW243339  13.726  11.149  12.007
47148SOL     OW43340  10.185   7.513   1.480
47148SOL    HW143341  10.240   7.435   1.486
47148SOL    HW243342  10.196   7.543   1.390
47149SOL     OW43343   4.379   5.271   9.837
47149SOL    HW143344   4.389   5.338   9.769
47149SOL    HW243345   4.449   5.289   9.899
47150SOL     OW43346   3.172   0.650   4.503
47150SOL    HW143347   3.235   0.695   4.561
47150SOL    HW243348   3.212   0.655   4.416
47151SOL     OW43349  14.377   6.797   3.054
47151SOL    HW143350  14.428   6.854   3.112
47151SOL    HW243351  14.442   6.761   2.994
47152SOL     OW43352   8.746  12.725   1.973
47152SOL    HW143353   8.727  12.805   1.923
47152SOL    HW243354   8.710  12.655   1.919
47153SOL     OW43355   8.196   8.829   8.001
47153SOL    HW143356   8.216   8.922   7.989
47153SOL    HW243357   8.261   8.799   8.064
47154SOL     OW43358   9.041   4.550  10.998
47154SOL    HW143359   9.100   4.481  10.968
47154SOL    HW243360   9.021   4.601  10.920
47155SOL     OW43361   0.578  11.362   5.605
47155SOL    HW143362   0.557  11.271   5.626
47155SOL    HW243363   0.602  11.361   5.513
47156SOL     OW43364   7.390   0.314   7.028
47156SOL    HW143365   7.389   0.220   7.047
47156SOL    HW243366   7.337   0.353   7.097
47157SOL     OW43367   3.425  10.697   6.938
47157SOL    HW143368   3.368  10.767   6.970
47157SOL    HW243369   3.504  10.704   6.993
47158SOL     OW43370   0.958   5.554  11.074
47158SOL    HW143371   1.007   5.633  11.049
47158SOL    HW243372   0.971   5.548  11.169
47159SOL     OW43373   2.145   5.044  13.521
47159SOL    HW143374   2.071   5.044  13.583
47159SOL    HW243375   2.113   4.995  13.445
47160SOL     OW43376  10.136  11.325  14.514
47160SOL    HW143377  10.062  11.272  14.485
47160SOL    HW243378  10.101  11.413  14.525
47161SOL     OW43379   7.521   2.911   8.988
47161SOL    HW143380   7.477   2.857   8.922
47161SOL    HW243381   7.608   2.871   8.997
47162SOL     OW43382   0.199   8.254   0.978
47162SOL    HW143383   0.121   8.305   1.000
47162SOL    HW243384   0.249   8.311   0.920
47163SOL     OW43385  10.651   8.909   3.319
47163SOL    HW143386  10.724   8.872   3.270
47163SOL    HW243387  10.595   8.949   3.253
47164SOL     OW43388   2.358   8.262   5.885
47164SOL    HW143389   2.278   8.222   5.850
47164SOL    HW243390   2.398   8.193   5.938
47165SOL     OW43391  10.269  14.132   2.266
47165SOL    HW143392  10.355  14.103   2.297
47165SOL    HW243393  10.226  14.052   2.236
47166SOL     OW43394   9.327  13.094  12.443
47166SOL    HW143395   9.350  13.001  12.439
47166SOL    HW243396   9.309  13.111  12.535
47167SOL     OW43397   4.550   7.874   5.170
47167SOL    HW143398   4.607   7.931   5.117
47167SOL    HW243399   4.535   7.925   5.250
47168SOL     OW43400   2.916   4.691   6.659
47168SOL    HW143401   2.926   4.601   6.629
47168SOL    HW243402   2.842   4.688   6.720
47169SOL     OW43403   1.603  14.241   7.422
47169SOL    HW143404   1.632  14.249   7.331
47169SOL    HW243405   1.608  14.148   7.440
47170SOL     OW43406   2.783  13.677   5.043
47170SOL    HW143407   2.762  13.769   5.059
47170SOL    HW243408   2.714  13.629   5.088
47171SOL     OW43409   2.338   3.829   3.228
47171SOL    HW143410   2.272   3.897   3.243
47171SOL    HW243411   2.374   3.811   3.314
47172SOL     OW43412   5.735  12.644   8.396
47172SOL    HW143413   5.680  12.670   8.470
47172SOL    HW243414   5.822  12.675   8.419
47173SOL     OW43415   3.845   9.163   6.220
47173SOL    HW143416   3.792   9.206   6.288
47173SOL    HW243417   3.796   9.176   6.139
47174SOL     OW43418   6.332  13.293   6.058
47174SOL    HW143419   6.310  13.246   6.138
47174SOL    HW243420   6.421  13.264   6.037
47175SOL     OW43421   2.504  13.155   9.364
47175SOL    HW143422   2.481  13.064   9.349
47175SOL    HW243423   2.539  13.157   9.453
47176SOL     OW43424  12.551   4.680   6.551
47176SOL    HW143425  12.610   4.621   6.503
47176SOL    HW243426  12.464   4.661   6.516
47177SOL     OW43427  14.272   5.119   6.021
47177SOL    HW143428  14.363   5.122   5.991
47177SOL    HW243429  14.222   5.090   5.945
47178SOL     OW43430   2.337  13.553   6.815
47178SOL    HW143431   2.299  13.637   6.790
47178SOL    HW243432   2.431  13.569   6.819
47179SOL     OW43433  11.772   5.193  11.404
47179SOL    HW143434  11.679   5.203  11.425
47179SOL    HW243435  11.790   5.262  11.340
47180SOL     OW43436  11.444   7.882   9.148
47180SOL    HW143437  11.438   7.974   9.174
47180SOL    HW243438  11.532   7.873   9.112
47181SOL     OW43439   8.982   0.947   9.551
47181SOL    HW143440   9.015   0.935   9.462
47181SOL    HW243441   9.037   0.889   9.605
47182SOL     OW43442  13.593   0.636  14.609
47182SOL    HW143443  13.597   0.732  14.606
47182SOL    HW243444  13.504   0.616  14.637
47183SOL     OW43445   7.834   3.519   7.775
47183SOL    HW143446   7.896   3.486   7.710
47183SOL    HW243447   7.867   3.605   7.798
47184SOL     OW43448   3.394  10.766   5.234
47184SOL    HW143449   3.383  10.801   5.146
47184SOL    HW243450   3.416  10.674   5.221
47185SOL     OW43451   5.282   9.413   0.743
47185SOL    HW143452   5.322   9.333   0.709
47185SOL    HW243453   5.232   9.385   0.819
47186SOL     OW43454   8.597   2.458   5.700
47186SOL    HW143455   8.652   2.512   5.757
47186SOL    HW243456   8.507   2.479   5.726
47187SOL     OW43457   2.841  12.695  12.382
47187SOL    HW143458   2.924  12.738  12.366
47187SOL    HW243459   2.778  12.742  12.327
47188SOL     OW43460   9.474   7.105   4.551
47188SOL    HW143461   9.544   7.057   4.595
47188SOL    HW243462   9.521   7.164   4.491
47189SOL     OW43463   6.048   7.321  13.332
47189SOL    HW143464   6.120   7.259  13.334
47189SOL    HW243465   5.976   7.276  13.376
47190SOL     OW43466   3.312   7.824   3.431
47190SOL    HW143467   3.247   7.879   3.386
47190SOL    HW243468   3.318   7.745   3.376
47191SOL     OW43469  10.765   6.645   3.339
47191SOL    HW143470  10.825   6.716   3.361
47191SOL    HW243471  10.725   6.621   3.422
47192SOL     OW43472   8.392  13.636   6.574
47192SOL    HW143473   8.431  13.577   6.509
47192SOL    HW243474   8.457  13.643   6.643
47193SOL     OW43475   1.232  14.292   9.904
47193SOL    HW143476   1.323  14.260   9.905
47193SOL    HW243477   1.232  14.360   9.836
47194SOL     OW43478   6.659  10.534   3.902
47194SOL    HW143479   6.743  10.551   3.945
47194SOL    HW243480   6.598  10.595   3.942
47195SOL     OW43481   4.386  10.112  14.192
47195SOL    HW143482   4.400  10.022  14.221
47195SOL    HW243483   4.474  10.146  14.175
47196SOL     OW43484   4.938   2.600  11.610
47196SOL    HW143485   5.014   2.578  11.556
47196SOL    HW243486   4.919   2.691  11.589
47197SOL     OW43487   0.507  13.853   1.814
47197SOL    HW143488   0.592  13.818   1.839
47197SOL    HW243489   0.444  13.793   1.853
47198SOL     OW43490   7.463  12.339   6.603
47198SOL    HW143491   7.535  12.316   6.663
47198SOL    HW243492   7.503  12.339   6.517
47199SOL     OW43493   9.744   4.460  13.700
47199SOL    HW143494   9.796   4.537  13.678
47199SOL    HW243495   9.655   4.493  13.708
47200SOL     OW43496   0.751   3.857   6.551
47200SOL    HW143497   0.719   3.894   6.468
47200SOL    HW243498   0.740   3.763   6.540
47201SOL     OW43499   8.553  10.612   4.388
47201SOL    HW143500   8.486  10.552   4.420
47201SOL    HW243501   8.526  10.633   4.298
47202SOL     OW43502   9.898  12.028   5.111
47202SOL    HW143503   9.824  11.998   5.164
47202SOL    HW243504   9.868  12.020   5.020
47203SOL     OW43505   7.576  10.418  13.332
47203SOL    HW143506   7.537  10.371  13.258
47203SOL    HW243507   7.667  10.388  13.335
47204SOL     OW43508   6.121   4.291   8.538
47204SOL    HW143509   6.045   4.286   8.596
47204SOL    HW243510   6.153   4.201   8.533
47205SOL     OW43511   7.564  12.255   7.779
47205SOL    HW143512   7.479  12.231   7.816
47205SOL    HW243513   7.619  12.275   7.855
47206SOL     OW43514   9.520   6.931  13.379
47206SOL    HW143515   9.538   6.936  13.285
47206SOL    HW243516   9.602   6.956  13.421
47207SOL     OW43517   1.169   0.735   0.867
47207SOL    HW143518   1.254   0.704   0.897
47207SOL    HW243519   1.131   0.662   0.818
47208SOL     OW43520   5.404  11.997   1.819
47208SOL    HW143521   5.462  11.927   1.789
47208SOL    HW243522   5.460  12.075   1.820
47209SOL     OW43523   6.670   9.616  11.162
47209SOL    HW143524   6.618   9.682  11.209
47209SOL    HW243525   6.713   9.666  11.091
47210SOL     OW43526  12.996  11.274   3.346
47210SOL    HW143527  13.090  11.287   3.337
47210SOL    HW243528  12.971  11.225   3.267
47211SOL     OW43529   8.233   1.868   4.883
47211SOL    HW143530   8.328   1.872   4.871
47211SOL    HW243531   8.222   1.810   4.958
47212SOL     OW43532   2.716   0.414   2.207
47212SOL    HW143533   2.773   0.360   2.261
47212SOL    HW243534   2.776   0.467   2.154
47213SOL     OW43535   4.399  10.270   4.030
47213SOL    HW143536   4.359  10.357   4.025
47213SOL    HW243537   4.466  10.271   3.961
47214SOL     OW43538   8.151  11.945  14.229
47214SOL    HW143539   8.082  11.894  14.272
47214SOL    HW243540   8.104  12.007  14.174
47215SOL     OW43541   8.366  10.266   2.555
47215SOL    HW143542   8.293  10.271   2.494
47215SOL    HW243543   8.384  10.356   2.580
47216SOL     OW43544   9.349   5.483   7.775
47216SOL    HW143545   9.381   5.447   7.857
47216SOL    HW243546   9.340   5.577   7.791
47217SOL     OW43547  14.317  12.999   6.498
47217SOL    HW143548  14.334  12.905   6.498
47217SOL    HW243549  14.245  13.010   6.436
47218SOL     OW43550   6.905  11.246  10.380
47218SOL    HW143551   6.964  11.188  10.428
47218SOL    HW243552   6.899  11.325  10.434
47219SOL     OW43553   3.610  14.117   1.723
47219SOL    HW143554   3.654  14.048   1.674
47219SOL    HW243555   3.636  14.103   1.813
47220SOL     OW43556   8.064   4.451  11.881
47220SOL    HW143557   8.045   4.482  11.792
47220SOL    HW243558   8.088   4.530  11.929
47221SOL     OW43559   9.537   8.297   3.693
47221SOL    HW143560   9.586   8.218   3.670
47221SOL    HW243561   9.458   8.294   3.639
47222SOL     OW43562   1.057  13.404  12.557
47222SOL    HW143563   1.068  13.498  12.568
47222SOL    HW243564   1.071  13.390  12.463
47223SOL     OW43565   6.325   0.210   6.544
47223SOL    HW143566   6.331   0.154   6.467
47223SOL    HW243567   6.412   0.247   6.554
47224SOL     OW43568   6.187  10.006   2.550
47224SOL    HW143569   6.252   9.968   2.490
47224SOL    HW243570   6.217  10.096   2.564
47225SOL     OW43571   7.105   9.663   9.711
47225SOL    HW143572   7.189   9.707   9.715
47225SOL    HW243573   7.126   9.572   9.691
47226SOL     OW43574  10.068   0.147   5.202
47226SOL    HW143575  10.059   0.052   5.205
47226SOL    HW243576  10.026   0.178   5.282
47227SOL     OW43577   4.394  10.119  13.014
47227SOL    HW143578   4.300  10.138  13.019
47227SOL    HW243579   4.434  10.204  12.994
47228SOL     OW43580   0.434   1.097   3.123
47228SOL    HW143581   0.478   1.123   3.043
47228SOL    HW243582   0.341   1.092   3.099
47229SOL     OW43583   0.253   6.804   4.918
47229SOL    HW143584   0.336   6.767   4.888
47229SOL    HW243585   0.261   6.898   4.902
47230SOL     OW43586   0.323  13.521  14.366
47230SOL    HW143587   0.230  13.525  14.388
47230SOL    HW243588   0.335  13.589  14.300
47231SOL     OW43589  13.787   6.578   7.286
47231SOL    HW143590  13.731   6.622   7.350
47231SOL    HW243591  13.780   6.631   7.207
47232SOL     OW43592  10.544   3.806   3.154
47232SOL    HW143593  10.473   3.744   3.138
47232SOL    HW243594  10.622   3.762   3.122
47233SOL     OW43595   5.504   4.828   9.361
47233SOL    HW143596   5.567   4.761   9.336
47233SOL    HW243597   5.497   4.884   9.284
47234SOL     OW43598  10.692   5.725  10.541
47234SOL    HW143599  10.636   5.796  10.508
47234SOL    HW243600  10.635   5.649  10.545
47235SOL     OW43601   3.559   4.260  11.294
47235SOL    HW143602   3.602   4.176  11.283
47235SOL    HW243603   3.495   4.245  11.363
47236SOL     OW43604   9.187   7.846   9.560
47236SOL    HW143605   9.164   7.775   9.619
47236SOL    HW243606   9.110   7.903   9.561
47237SOL     OW43607  14.791  14.595   7.738
47237SOL    HW143608  14.860  14.544   7.779
47237SOL    HW243609  14.836  14.668   7.696
47238SOL     OW43610   5.263   6.731  11.874
47238SOL    HW143611   5.214   6.810  11.850
47238SOL    HW243612   5.335   6.727  11.810
47239SOL     OW43613   8.644   0.454   8.316
47239SOL    HW143614   8.586   0.529   8.310
47239SOL    HW243615   8.732   0.491   8.314
47240SOL     OW43616   0.306   4.931   5.030
47240SOL    HW143617   0.349   4.846   5.021
47240SOL    HW243618   0.371   4.986   5.075
47241SOL     OW43619   6.508   1.235   3.642
47241SOL    HW143620   6.584   1.203   3.691
47241SOL    HW243621   6.490   1.167   3.578
47242SOL     OW43622  10.495   7.089   1.179
47242SOL    HW143623  10.416   7.127   1.216
47242SOL    HW243624  10.554   7.079   1.254
47243SOL     OW43625   2.895  14.382   1.740
47243SOL    HW143626   2.814  14.344   1.774
47243SOL    HW243627   2.964  14.348   1.798
47244SOL     OW43628   2.854   8.080  11.868
47244SOL    HW143629   2.769   8.102  11.830
47244SOL    HW243630   2.872   8.151  11.930
47245SOL     OW43631   0.262  10.374  11.895
47245SOL    HW143632   0.302  10.430  11.828
47245SOL    HW243633   0.244  10.434  11.967
47246SOL     OW43634   3.611   6.115   5.144
47246SOL    HW143635   3.679   6.182   5.141
47246SOL    HW243636   3.529   6.163   5.128
47247SOL     OW43637   8.187   8.589   1.222
47247SOL    HW143638   8.224   8.627   1.143
47247SOL    HW243639   8.098   8.625   1.227
47248SOL     OW43640   8.400  11.905   5.174
47248SOL    HW143641   8.307  11.907   5.150
47248SOL    HW243642   8.446  11.889   5.091
47249SOL     OW43643   4.940  11.258   3.358
47249SOL    HW143644   4.851  11.289   3.346
47249SOL    HW243645   4.977  11.258   3.270
47250SOL     OW43646   3.116  10.235  13.214
47250SOL    HW143647   3.110  10.320  13.170
47250SOL    HW243648   3.155  10.254  13.299
47251SOL     OW43649   4.740   8.854  10.963
47251SOL    HW143650   4.776   8.882  11.047
47251SOL    HW243651   4.652   8.893  10.960
47252SOL     OW43652  11.058   1.011   1.397
47252SOL    HW143653  11.152   1.003   1.386
47252SOL    HW243654  11.046   1.090   1.450
47253SOL     OW43655  13.398   4.084  10.978
47253SOL    HW143656  13.341   4.009  10.958
47253SOL    HW243657  13.435   4.063  11.064
47254SOL     OW43658   9.063   3.893   3.126
47254SOL    HW143659   9.058   3.984   3.155
47254SOL    HW243660   9.045   3.898   3.032
47255SOL     OW43661   6.193   0.348  12.673
47255SOL    HW143662   6.229   0.434  12.696
47255SOL    HW243663   6.260   0.286  12.703
47256SOL     OW43664   4.998   9.509   3.239
47256SOL    HW143665   5.025   9.417   3.231
47256SOL    HW243666   5.079   9.559   3.224
47257SOL     OW43667   1.371  11.096   1.631
47257SOL    HW143668   1.306  11.038   1.669
47257SOL    HW243669   1.321  11.170   1.597
47258SOL     OW43670  10.811   4.888   9.494
47258SOL    HW143671  10.763   4.961   9.454
47258SOL    HW243672  10.744   4.835   9.537
47259SOL     OW43673  12.314  11.269   8.627
47259SOL    HW143674  12.320  11.356   8.589
47259SOL    HW243675  12.224  11.241   8.610
47260SOL     OW43676  10.029   6.196   8.849
47260SOL    HW143677  10.116   6.192   8.889
47260SOL    HW243678  10.040   6.252   8.772
47261SOL     OW43679  14.261   9.837  10.540
47261SOL    HW143680  14.337   9.893  10.557
47261SOL    HW243681  14.232   9.809  10.627
47262SOL     OW43682   0.467   1.999   6.107
47262SOL    HW143683   0.517   1.933   6.156
47262SOL    HW243684   0.379   1.994   6.144
47263SOL     OW43685   2.951   7.328   5.929
47263SOL    HW143686   2.882   7.370   5.879
47263SOL    HW243687   2.958   7.240   5.891
47264SOL     OW43688   5.363  11.212  11.738
47264SOL    HW143689   5.379  11.146  11.671
47264SOL    HW243690   5.402  11.176  11.818
47265SOL     OW43691   9.217  12.498  14.300
47265SOL    HW143692   9.151  12.510  14.231
47265SOL    HW243693   9.208  12.574  14.356
47266SOL     OW43694  10.848   1.587   8.030
47266SOL    HW143695  10.921   1.598   8.090
47266SOL    HW243696  10.872   1.514   7.974
47267SOL     OW43697   3.064   4.432  12.176
47267SOL    HW143698   3.054   4.362  12.240
47267SOL    HW243699   2.986   4.427  12.122
47268SOL     OW43700  11.235   5.660   2.343
47268SOL    HW143701  11.145   5.685   2.324
47268SOL    HW243702  11.227   5.579   2.393
47269SOL     OW43703   4.386   4.313   9.177
47269SOL    HW143704   4.456   4.326   9.112
47269SOL    HW243705   4.431   4.319   9.262
47270SOL     OW43706   1.109   3.260   1.754
47270SOL    HW143707   1.047   3.238   1.684
47270SOL    HW243708   1.055   3.299   1.823
47271SOL     OW43709  10.826   1.013   4.776
47271SOL    HW143710  10.849   1.075   4.706
47271SOL    HW243711  10.803   0.932   4.730
47272SOL     OW43712   5.181  11.322  14.287
47272SOL    HW143713   5.228  11.244  14.317
47272SOL    HW243714   5.089  11.299  14.296
47273SOL     OW43715  11.994   3.307  12.564
47273SOL    HW143716  12.041   3.361  12.627
47273SOL    HW243717  11.934   3.368  12.520
47274SOL     OW43718  11.154   7.278  13.900
47274SOL    HW143719  11.058   7.273  13.900
47274SOL    HW243720  11.173   7.370  13.918
47275SOL     OW43721   9.100   6.319   7.387
47275SOL    HW143722   9.182   6.340   7.342
47275SOL    HW243723   9.034   6.320   7.318
47276SOL     OW43724   4.086   2.858   4.869
47276SOL    HW143725   4.166   2.827   4.827
47276SOL    HW243726   4.089   2.822   4.958
47277SOL     OW43727  14.854   3.394  11.256
47277SOL    HW143728   0.033   3.333  11.303
47277SOL    HW243729  14.814   3.341  11.187
47278SOL     OW43730   5.979  12.136  10.667
47278SOL    HW143731   5.954  12.229  10.659
47278SOL    HW243732   5.896  12.089  10.661
47279SOL     OW43733   8.960   9.916   2.315
47279SOL    HW143734   9.014   9.869   2.252
47279SOL    HW243735   8.920   9.848   2.369
47280SOL     OW43736   4.808   8.227  12.669
47280SOL    HW143737   4.878   8.288  12.691
47280SOL    HW243738   4.841   8.178  12.594
47281SOL     OW43739  12.815   3.982   3.387
47281SOL    HW143740  12.767   3.900   3.400
47281SOL    HW243741  12.807   4.000   3.294
47282SOL     OW43742  11.290   3.451  11.563
47282SOL    HW143743  11.335   3.482  11.641
47282SOL    HW243744  11.202   3.428  11.593
47283SOL     OW43745   2.264  10.950   7.977
47283SOL    HW143746   2.339  10.899   7.949
47283SOL    HW243747   2.233  10.906   8.056
47284SOL     OW43748   3.576   3.456   1.053
47284SOL    HW143749   3.595   3.509   1.130
47284SOL    HW243750   3.662   3.428   1.022
47285SOL     OW43751   5.246   4.258  13.599
47285SOL    HW143752   5.171   4.305  13.563
47285SOL    HW243753   5.207   4.182  13.643
47286SOL     OW43754  11.084  10.341   8.137
47286SOL    HW143755  11.047  10.273   8.081
47286SOL    HW243756  11.083  10.420   8.083
47287SOL     OW43757   2.936   1.503  10.223
47287SOL    HW143758   3.028   1.481  10.209
47287SOL    HW243759   2.893   1.484  10.140
47288SOL     OW43760   6.013  10.803  10.447
47288SOL    HW143761   6.023  10.757  10.531
47288SOL    HW243762   6.093  10.856  10.439
47289SOL     OW43763   4.540   6.478  10.773
47289SOL    HW143764   4.633   6.473  10.795
47289SOL    HW243765   4.536   6.538  10.699
47290SOL     OW43766  12.427   4.558  12.516
47290SOL    HW143767  12.378   4.491  12.469
47290SOL    HW243768  12.390   4.641  12.485
47291SOL     OW43769   2.184   5.157   1.823
47291SOL    HW143770   2.253   5.206   1.778
47291SOL    HW243771   2.172   5.079   1.769
47292SOL     OW43772  11.734  14.212  11.050
47292SOL    HW143773  11.741  14.293  10.998
47292SOL    HW243774  11.801  14.222  11.118
47293SOL     OW43775  10.159  12.532   4.181
47293SOL    HW143776  10.069  12.504   4.164
47293SOL    HW243777  10.150  12.609   4.237
47294SOL     OW43778  11.791   3.884  10.277
47294SOL    HW143779  11.732   3.959  10.274
47294SOL    HW243780  11.848   3.901  10.352
47295SOL     OW43781   9.325   3.490  11.508
47295SOL    HW143782   9.382   3.560  11.540
47295SOL    HW243783   9.237   3.525  11.519
47296SOL     OW43784  12.537  14.363  10.540
47296SOL    HW143785  12.550  14.401  10.453
47296SOL    HW243786  12.444  14.374  10.557
47297SOL     OW43787  11.813  11.451  11.708
47297SOL    HW143788  11.842  11.441  11.618
47297SOL    HW243789  11.819  11.364  11.746
47298SOL     OW43790  14.382   7.143   3.865
47298SOL    HW143791  14.398   7.049   3.876
47298SOL    HW243792  14.403   7.181   3.951
47299SOL     OW43793   9.212  13.220  10.931
47299SOL    HW143794   9.241  13.218  11.022
47299SOL    HW243795   9.287  13.256  10.883
47300SOL     OW43796   7.961  11.351  12.617
47300SOL    HW143797   8.023  11.301  12.564
47300SOL    HW243798   7.922  11.286  12.676
47301SOL     OW43799   2.618   1.037  13.994
47301SOL    HW143800   2.569   1.114  14.020
47301SOL    HW243801   2.668   1.012  14.072
47302SOL     OW43802   8.398   1.641  11.721
47302SOL    HW143803   8.305   1.640  11.698
47302SOL    HW243804   8.415   1.730  11.752
47303SOL     OW43805  12.914  10.812  14.204
47303SOL    HW143806  12.821  10.819  14.225
47303SOL    HW243807  12.952  10.895  14.232
47304SOL     OW43808   7.928   3.102   0.634
47304SOL    HW143809   8.017   3.122   0.605
47304SOL    HW243810   7.910   3.016   0.596
47305SOL     OW43811   5.904   7.134   5.440
47305SOL    HW143812   5.958   7.147   5.518
47305SOL    HW243813   5.956   7.078   5.384
47306SOL     OW43814   2.628   3.186   1.364
47306SOL    HW143815   2.661   3.262   1.412
47306SOL    HW243816   2.704   3.128   1.357
47307SOL     OW43817   0.017   6.467   9.832
47307SOL    HW143818  14.812   6.434   9.867
47307SOL    HW243819  14.873   6.494   9.742
47308SOL     OW43820   3.502  12.762   4.991
47308SOL    HW143821   3.480  12.677   4.951
47308SOL    HW243822   3.593  12.753   5.018
47309SOL     OW43823  12.785   9.952   1.898
47309SOL    HW143824  12.848   9.895   1.942
47309SOL    HW243825  12.748  10.005   1.969
47310SOL     OW43826   0.186   5.599   3.220
47310SOL    HW143827   0.091   5.590   3.215
47310SOL    HW243828   0.203   5.687   3.185
47311SOL     OW43829  14.178  12.622   6.691
47311SOL    HW143830  14.149  12.655   6.606
47311SOL    HW243831  14.191  12.528   6.677
47312SOL     OW43832   2.036  10.164   6.767
47312SOL    HW143833   2.042  10.076   6.805
47312SOL    HW243834   1.951  10.165   6.722
47313SOL     OW43835   4.276   1.305   0.830
47313SOL    HW143836   4.371   1.299   0.839
47313SOL    HW243837   4.260   1.293   0.736
47314SOL     OW43838   6.387   4.147  13.544
47314SOL    HW143839   6.305   4.185  13.511
47314SOL    HW243840   6.360   4.064  13.583
47315SOL     OW43841   7.254   8.027   0.879
47315SOL    HW143842   7.249   7.943   0.835
47315SOL    HW243843   7.250   8.092   0.808
47316SOL     OW43844  14.195   0.185  14.515
47316SOL    HW143845  14.286   0.179  14.544
47316SOL    HW243846  14.197   0.155  14.424
47317SOL     OW43847   7.336  11.503   7.157
47317SOL    HW143848   7.264  11.491   7.095
47317SOL    HW243849   7.409  11.454   7.118
47318SOL     OW43850  12.977   6.788   2.950
47318SOL    HW143851  12.955   6.875   2.918
47318SOL    HW243852  12.933   6.783   3.035
47319SOL     OW43853   3.279   3.269  12.528
47319SOL    HW143854   3.370   3.277  12.556
47319SOL    HW243855   3.266   3.344  12.470
47320SOL     OW43856   2.277   8.610   2.340
47320SOL    HW143857   2.297   8.553   2.415
47320SOL    HW243858   2.363   8.640   2.310
47321SOL     OW43859   1.610   9.007   0.214
47321SOL    HW143860   1.652   8.950   0.150
47321SOL    HW243861   1.532   9.040   0.169
47322SOL     OW43862   7.585   7.133   3.129
47322SOL    HW143863   7.667   7.133   3.080
47322SOL    HW243864   7.548   7.046   3.114
47323SOL     OW43865   4.902   6.595  10.407
47323SOL    HW143866   4.989   6.621  10.377
47323SOL    HW243867   4.863   6.675  10.441
47324SOL     OW43868  14.566   0.920   3.383
47324SOL    HW143869  14.549   0.838   3.337
47324SOL    HW243870  14.480   0.962   3.390
47325SOL     OW43871   3.550   4.195   7.707
47325SOL    HW143872   3.558   4.278   7.661
47325SOL    HW243873   3.531   4.219   7.798
47326SOL     OW43874   8.872   6.459   5.277
47326SOL    HW143875   8.820   6.394   5.231
47326SOL    HW243876   8.836   6.460   5.366
47327SOL     OW43877  10.008   0.252   6.384
47327SOL    HW143878   9.963   0.281   6.304
47327SOL    HW243879  10.008   0.330   6.440
47328SOL     OW43880  13.413   2.669   6.848
47328SOL    HW143881  13.417   2.669   6.944
47328SOL    HW243882  13.425   2.577   6.824
47329SOL     OW43883  14.679  13.532  14.520
47329SOL    HW143884  14.673  13.439  14.499
47329SOL    HW243885  14.592  13.567  14.503
47330SOL     OW43886   4.878   6.412  10.836
47330SOL    HW143887   4.875   6.325  10.795
47330SOL    HW243888   4.954   6.455  10.796
47331SOL     OW43889   4.330   8.003   6.951
47331SOL    HW143890   4.322   8.040   6.862
47331SOL    HW243891   4.415   8.034   6.981
47332SOL     OW43892   3.666   4.362  11.823
47332SOL    HW143893   3.649   4.339  11.914
47332SOL    HW243894   3.583   4.345  11.778
47333SOL     OW43895  14.269  14.067  11.732
47333SOL    HW143896  14.319  14.024  11.662
47333SOL    HW243897  14.332  14.124  11.775
47334SOL     OW43898   8.370   2.108   1.754
47334SOL    HW143899   8.414   2.056   1.822
47334SOL    HW243900   8.358   2.194   1.794
47335SOL     OW43901   1.377   3.392  12.962
47335SOL    HW143902   1.399   3.472  12.913
47335SOL    HW243903   1.297   3.360  12.920
47336SOL     OW43904   8.645  12.284  14.628
47336SOL    HW143905   8.646  12.231  14.709
47336SOL    HW243906   8.605  12.227  14.563
47337SOL     OW43907  12.181   9.519  13.862
47337SOL    HW143908  12.246   9.501  13.930
47337SOL    HW243909  12.118   9.577  13.904
47338SOL     OW43910  11.028  10.842   5.849
47338SOL    HW143911  10.937  10.816   5.858
47338SOL    HW243912  11.077  10.760   5.844
47339SOL     OW43913   9.697   2.824   8.391
47339SOL    HW143914   9.653   2.892   8.441
47339SOL    HW243915   9.785   2.859   8.377
47340SOL     OW43916   2.274  10.138   8.913
47340SOL    HW143917   2.332  10.132   8.838
47340SOL    HW243918   2.316  10.200   8.972
47341SOL     OW43919   3.173  10.856   4.617
47341SOL    HW143920   3.255  10.812   4.593
47341SOL    HW243921   3.105  10.808   4.570
47342SOL     OW43922  10.006   8.820   8.684
47342SOL    HW143923   9.974   8.762   8.753
47342SOL    HW243924   9.946   8.894   8.686
47343SOL     OW43925  10.141  10.174   5.030
47343SOL    HW143926  10.133  10.124   4.949
47343SOL    HW243927  10.075  10.136   5.088
47344SOL     OW43928   4.139  10.951   7.333
47344SOL    HW143929   4.095  11.009   7.395
47344SOL    HW243930   4.085  10.871   7.333
47345SOL     OW43931  10.662  14.130  13.565
47345SOL    HW143932  10.706  14.079  13.498
47345SOL    HW243933  10.722  14.130  13.640
47346SOL     OW43934   3.201   3.337   1.888
47346SOL    HW143935   3.209   3.398   1.961
47346SOL    HW243936   3.289   3.332   1.850
47347SOL     OW43937  11.365   0.159   7.488
47347SOL    HW143938  11.427   0.169   7.415
47347SOL    HW243939  11.375   0.069   7.516
47348SOL     OW43940  13.704  11.784   4.026
47348SOL    HW143941  13.629  11.767   3.970
47348SOL    HW243942  13.722  11.699   4.068
47349SOL     OW43943   8.071  12.968  11.180
47349SOL    HW143944   8.017  12.979  11.258
47349SOL    HW243945   8.054  12.878  11.152
47350SOL     OW43946   9.261   7.656   5.619
47350SOL    HW143947   9.303   7.570   5.624
47350SOL    HW243948   9.283   7.699   5.702
47351SOL     OW43949  13.771   8.390   0.391
47351SOL    HW143950  13.757   8.394   0.486
47351SOL    HW243951  13.865   8.406   0.381
47352SOL     OW43952  10.111  10.051   7.103
47352SOL    HW143953  10.125  10.090   7.017
47352SOL    HW243954  10.165   9.972   7.102
47353SOL     OW43955   6.739  10.854   2.663
47353SOL    HW143956   6.789  10.908   2.601
47353SOL    HW243957   6.801  10.788   2.693
47354SOL     OW43958   3.775   5.857   8.216
47354SOL    HW143959   3.740   5.769   8.232
47354SOL    HW243960   3.701   5.916   8.230
47355SOL     OW43961   1.456  14.132  12.574
47355SOL    HW143962   1.462  14.100  12.664
47355SOL    HW243963   1.530  14.091  12.529
47356SOL     OW43964  13.880   8.059  13.554
47356SOL    HW143965  13.906   7.968  13.566
47356SOL    HW243966  13.785   8.059  13.569
47357SOL     OW43967   9.593   6.563  14.510
47357SOL    HW143968   9.654   6.524  14.447
47357SOL    HW243969   9.513   6.512  14.502
47358SOL     OW43970   3.634   0.174   8.033
47358SOL    HW143971   3.707   0.227   8.002
47358SOL    HW243972   3.608   0.213   8.116
47359SOL     OW43973   8.258   1.277  14.149
47359SOL    HW143974   8.236   1.369  14.132
47359SOL    HW243975   8.341   1.264  14.103
47360SOL     OW43976   5.631  11.441   6.553
47360SOL    HW143977   5.716  11.483   6.564
47360SOL    HW243978   5.567  11.511   6.568
47361SOL     OW43979   4.415   2.878   8.167
47361SOL    HW143980   4.360   2.942   8.213
47361SOL    HW243981   4.491   2.928   8.137
47362SOL     OW43982   6.643  11.352   6.218
47362SOL    HW143983   6.724  11.380   6.262
47362SOL    HW243984   6.632  11.415   6.146
47363SOL     OW43985  11.460   6.216   7.077
47363SOL    HW143986  11.543   6.170   7.063
47363SOL    HW243987  11.483   6.309   7.078
47364SOL     OW43988   3.901  13.545   4.386
47364SOL    HW143989   3.949  13.627   4.374
47364SOL    HW243990   3.828  13.568   4.444
47365SOL     OW43991  14.149  11.226  10.551
47365SOL    HW143992  14.211  11.286  10.510
47365SOL    HW243993  14.203  11.168  10.604
47366SOL     OW43994   2.947  13.141   6.224
47366SOL    HW143995   2.906  13.057   6.244
47366SOL    HW243996   2.874  13.200   6.207
47367SOL     OW43997   5.824   9.946   4.846
47367SOL    HW143998   5.796   9.962   4.755
47367SOL    HW243999   5.799  10.026   4.893
47368SOL     OW44000  13.056   3.574   8.101
47368SOL    HW144001  13.028   3.520   8.028
47368SOL    HW244002  13.152   3.571   8.098
47369SOL     OW44003  14.512   4.510   0.716
47369SOL    HW144004  14.599   4.550   0.722
47369SOL    HW244005  14.501   4.465   0.800
47370SOL     OW44006   5.887  14.509   1.540
47370SOL    HW144007   5.969  14.465   1.562
47370SOL    HW244008   5.876  14.494   1.446
47371SOL     OW44009   8.620   3.196   7.073
47371SOL    HW144010   8.682   3.245   7.127
47371SOL    HW244011   8.610   3.112   7.117
47372SOL     OW44012   1.756   5.959   0.567
47372SOL    HW144013   1.702   5.883   0.547
47372SOL    HW244014   1.763   6.006   0.484
47373SOL     OW44015   5.681   7.141  10.177
47373SOL    HW144016   5.647   7.224  10.143
47373SOL    HW244017   5.604   7.095  10.209
47374SOL     OW44018   0.546   7.350   2.488
47374SOL    HW144019   0.596   7.280   2.445
47374SOL    HW244020   0.460   7.348   2.446
47375SOL     OW44021   8.038   6.056  14.844
47375SOL    HW144022   8.110   6.027   0.022
47375SOL    HW244023   8.071   6.045  14.755
47376SOL     OW44024   8.424   9.673   3.033
47376SOL    HW144025   8.332   9.693   3.052
47376SOL    HW244026   8.421   9.627   2.949
47377SOL     OW44027   5.582   1.556  13.768
47377SOL    HW144028   5.521   1.529  13.698
47377SOL    HW244029   5.664   1.511  13.747
47378SOL     OW44030   2.562  11.365  11.744
47378SOL    HW144031   2.636  11.410  11.786
47378SOL    HW244032   2.600  11.286  11.707
47379SOL     OW44033   4.132   9.630  13.990
47379SOL    HW144034   4.189   9.682  13.933
47379SOL    HW244035   4.160   9.540  13.975
47380SOL     OW44036   1.867   9.336  12.519
47380SOL    HW144037   1.946   9.303  12.561
47380SOL    HW244038   1.832   9.400  12.581
47381SOL     OW44039   4.077   3.578   9.791
47381SOL    HW144040   4.058   3.498   9.840
47381SOL    HW244041   4.142   3.624   9.845
47382SOL     OW44042  10.873  11.376   3.807
47382SOL    HW144043  10.820  11.299   3.788
47382SOL    HW244044  10.913  11.399   3.723
47383SOL     OW44045   8.475   2.783  13.560
47383SOL    HW144046   8.406   2.802  13.496
47383SOL    HW244047   8.441   2.709  13.609
47384SOL     OW44048   5.766   1.429  12.337
47384SOL    HW144049   5.825   1.483  12.285
47384SOL    HW244050   5.684   1.428  12.288
47385SOL     OW44051   7.360   1.316   1.051
47385SOL    HW144052   7.345   1.247   1.116
47385SOL    HW244053   7.318   1.394   1.087
47386SOL     OW44054   6.267   2.659   7.867
47386SOL    HW144055   6.249   2.634   7.957
47386SOL    HW244056   6.267   2.577   7.818
47387SOL     OW44057   5.350   9.541   5.611
47387SOL    HW144058   5.355   9.590   5.693
47387SOL    HW244059   5.385   9.602   5.545
47388SOL     OW44060   4.106   7.534   9.163
47388SOL    HW144061   4.186   7.536   9.111
47388SOL    HW244062   4.090   7.440   9.177
47389SOL     OW44063   7.908  11.965  10.879
47389SOL    HW144064   7.966  11.918  10.940
47389SOL    HW244065   7.865  11.897  10.829
47390SOL     OW44066  11.776   6.152   8.010
47390SOL    HW144067  11.757   6.181   8.099
47390SOL    HW244068  11.735   6.218   7.954
47391SOL     OW44069  11.536   6.477   4.182
47391SOL    HW144070  11.540   6.524   4.098
47391SOL    HW244071  11.478   6.531   4.236
47392SOL     OW44072   0.802   3.559   6.908
47392SOL    HW144073   0.815   3.647   6.874
47392SOL    HW244074   0.819   3.501   6.834
47393SOL     OW44075   3.602   2.414   9.492
47393SOL    HW144076   3.564   2.499   9.469
47393SOL    HW244077   3.692   2.434   9.518
47394SOL     OW44078   0.850   3.095   5.446
47394SOL    HW144079   0.870   3.187   5.466
47394SOL    HW244080   0.761   3.082   5.479
47395SOL     OW44081   0.292  12.086   2.368
47395SOL    HW144082   0.265  12.086   2.460
47395SOL    HW244083   0.278  12.177   2.340
47396SOL     OW44084   9.575   2.382   3.771
47396SOL    HW144085   9.597   2.333   3.692
47396SOL    HW244086   9.640   2.452   3.774
47397SOL     OW44087   0.419  12.519   1.029
47397SOL    HW144088   0.484  12.448   1.031
47397SOL    HW244089   0.431  12.559   0.943
47398SOL     OW44090   1.015   5.956   4.711
47398SOL    HW144091   0.941   5.971   4.653
47398SOL    HW244092   1.054   5.874   4.679
47399SOL     OW44093   3.755  14.711  14.664
47399SOL    HW144094   3.696  14.786  14.657
47399SOL    HW244095   3.713  14.643  14.612
47400SOL     OW44096   8.005   0.541   9.283
47400SOL    HW144097   8.093   0.517   9.253
47400SOL    HW244098   8.010   0.537   9.379
47401SOL     OW44099   7.212   2.604   2.418
47401SOL    HW144100   7.148   2.599   2.489
47401SOL    HW244101   7.158   2.605   2.338
47402SOL     OW44102   5.434  14.544   2.691
47402SOL    HW144103   5.462  14.544   2.599
47402SOL    HW244104   5.356  14.599   2.693
47403SOL     OW44105   0.677   3.023  13.823
47403SOL    HW144106   0.748   3.036  13.886
47403SOL    HW244107   0.646   2.934  13.840
47404SOL     OW44108   6.380   2.054   8.873
47404SOL    HW144109   6.440   2.126   8.855
47404SOL    HW244110   6.423   2.005   8.944
47405SOL     OW44111   9.664   0.264  12.774
47405SOL    HW144112   9.651   0.339  12.832
47405SOL    HW244113   9.575   0.234  12.752
47406SOL     OW44114   0.495   9.118  12.852
47406SOL    HW144115   0.524   9.098  12.763
47406SOL    HW244116   0.559   9.074  12.908
47407SOL     OW44117   0.028   7.896   9.662
47407SOL    HW144118   0.002   7.841   9.736
47407SOL    HW244119  14.833   7.958   9.651
47408SOL     OW44120   8.753   5.356  12.330
47408SOL    HW144121   8.708   5.441  12.321
47408SOL    HW244122   8.683   5.291  12.321
47409SOL     OW44123   2.185  10.943   4.235
47409SOL    HW144124   2.201  10.987   4.319
47409SOL    HW244125   2.149  10.858   4.259
47410SOL     OW44126  13.433   5.321   8.799
47410SOL    HW144127  13.390   5.349   8.880
47410SOL    HW244128  13.411   5.388   8.735
47411SOL     OW44129   6.759   7.544   3.306
47411SOL    HW144130   6.756   7.621   3.362
47411SOL    HW244131   6.760   7.579   3.217
47412SOL     OW44132  11.591   8.365  12.450
47412SOL    HW144133  11.531   8.393  12.520
47412SOL    HW244134  11.678   8.389  12.482
47413SOL     OW44135   4.513  11.626   8.269
47413SOL    HW144136   4.428  11.667   8.288
47413SOL    HW244137   4.490  11.543   8.227
47414SOL     OW44138  11.128   0.811   8.840
47414SOL    HW144139  11.184   0.888   8.854
47414SOL    HW244140  11.136   0.793   8.746
47415SOL     OW44141   4.845  13.597   6.810
47415SOL    HW144142   4.897  13.677   6.808
47415SOL    HW244143   4.771  13.618   6.866
47416SOL     OW44144   1.971  10.000   7.079
47416SOL    HW144145   2.022   9.968   7.004
47416SOL    HW244146   1.952  10.091   7.058
47417SOL     OW44147   2.875   6.010   0.341
47417SOL    HW144148   2.820   5.978   0.412
47417SOL    HW244149   2.962   5.975   0.361
47418SOL     OW44150   9.820  13.472   6.624
47418SOL    HW144151   9.855  13.550   6.666
47418SOL    HW244152   9.778  13.424   6.695
47419SOL     OW44153  13.785   7.334  13.528
47419SOL    HW144154  13.835   7.415  13.536
47419SOL    HW244155  13.790   7.295  13.616
47420SOL     OW44156  10.080  14.292   5.828
47420SOL    HW144157  10.052  14.200   5.825
47420SOL    HW244158  10.098  14.308   5.921
47421SOL     OW44159  10.098   1.706   5.330
47421SOL    HW144160  10.170   1.763   5.304
47421SOL    HW244161  10.141   1.627   5.363
47422SOL     OW44162  10.816   0.616  10.347
47422SOL    HW144163  10.741   0.556  10.354
47422SOL    HW244164  10.830   0.625  10.253
47423SOL     OW44165   9.083  11.358  11.851
47423SOL    HW144166   9.139  11.348  11.774
47423SOL    HW244167   9.143  11.375  11.923
47424SOL     OW44168   2.490  10.636   4.402
47424SOL    HW144169   2.493  10.607   4.493
47424SOL    HW244170   2.422  10.582   4.361
47425SOL     OW44171   0.017   0.534  10.159
47425SOL    HW144172   0.031   0.627  10.179
47425SOL    HW244173   0.073   0.517  10.084
47426SOL     OW44174   6.813  11.810   8.916
47426SOL    HW144175   6.865  11.843   8.989
47426SOL    HW244176   6.772  11.888   8.878
47427SOL     OW44177   5.721   5.613   5.218
47427SOL    HW144178   5.648   5.672   5.200
47427SOL    HW244179   5.681   5.528   5.232
47428SOL     OW44180   4.917  14.345  11.320
47428SOL    HW144181   4.998  14.336  11.371
47428SOL    HW244182   4.947  14.347  11.229
47429SOL     OW44183  11.687   3.842  12.886
47429SOL    HW144184  11.672   3.930  12.920
47429SOL    HW244185  11.606   3.820  12.840
47430SOL     OW44186   5.174  12.732   4.964
47430SOL    HW144187   5.156  12.716   5.057
47430SOL    HW244188   5.245  12.796   4.964
47431SOL     OW44189  11.163   3.479   7.380
47431SOL    HW144190  11.136   3.567   7.354
47431SOL    HW244191  11.257   3.487   7.397
47432SOL     OW44192   4.265  12.004   9.072
47432SOL    HW144193   4.252  12.049   9.155
47432SOL    HW244194   4.212  11.925   9.078
47433SOL     OW44195  12.642   9.425   5.294
47433SOL    HW144196  12.687   9.508   5.308
47433SOL    HW244197  12.653   9.407   5.200
47434SOL     OW44198   0.106   9.010   2.254
47434SOL    HW144199   0.194   8.979   2.278
47434SOL    HW244200   0.052   8.931   2.252
47435SOL     OW44201   0.125  14.419  12.034
47435SOL    HW144202   0.209  14.456  12.063
47435SOL    HW244203   0.106  14.350  12.098
47436SOL     OW44204   7.056   8.033   6.273
47436SOL    HW144205   7.063   8.128   6.283
47436SOL    HW244206   7.143   8.006   6.243
47437SOL     OW44207  13.754   5.466   7.240
47437SOL    HW144208  13.688   5.419   7.189
47437SOL    HW244209  13.709   5.490   7.321
47438SOL     OW44210  12.929   0.025  11.787
47438SOL    HW144211  12.924   0.081  11.865
47438SOL    HW244212  12.959   0.083  11.718
47439SOL     OW44213  13.054  14.167   4.974
47439SOL    HW144214  13.027  14.257   4.994
47439SOL    HW244215  13.107  14.175   4.895
47440SOL     OW44216   9.636  11.741   4.570
47440SOL    HW144217   9.693  11.818   4.569
47440SOL    HW244218   9.547  11.778   4.576
47441SOL     OW44219   6.422  10.110  11.225
47441SOL    HW144220   6.488  10.137  11.161
47441SOL    HW244221   6.449  10.150  11.307
47442SOL     OW44222  10.519   5.220   6.663
47442SOL    HW144223  10.430   5.222   6.696
47442SOL    HW244224  10.573   5.200   6.740
47443SOL     OW44225  11.179   8.191   4.998
47443SOL    HW144226  11.253   8.138   4.968
47443SOL    HW244227  11.140   8.140   5.068
47444SOL     OW44228   7.617  11.455   9.633
47444SOL    HW144229   7.624  11.527   9.570
47444SOL    HW244230   7.628  11.496   9.719
47445SOL     OW44231  10.018   3.479  12.657
47445SOL    HW144232  10.100   3.510  12.618
47445SOL    HW244233   9.972   3.558  12.684
47446SOL     OW44234  11.335  12.927   5.543
47446SOL    HW144235  11.286  12.871   5.483
47446SOL    HW244236  11.331  12.882   5.627
47447SOL     OW44237   1.134   4.518   0.503
47447SOL    HW144238   1.218   4.477   0.482
47447SOL    HW244239   1.147   4.557   0.589
47448SOL     OW44240   4.573   3.900  11.354
47448SOL    HW144241   4.489   3.897  11.308
47448SOL    HW244242   4.604   3.990  11.341
47449SOL     OW44243   6.211   8.266  10.123
47449SOL    HW144244   6.164   8.349  10.127
47449SOL    HW244245   6.182   8.226  10.041
47450SOL     OW44246  11.885  12.431   2.109
47450SOL    HW144247  11.900  12.336   2.102
47450SOL    HW244248  11.853  12.456   2.022
47451SOL     OW44249   5.426   0.067   7.583
47451SOL    HW144250   5.440  14.850   7.577
47451SOL    HW244251   5.476   0.103   7.509
47452SOL     OW44252   1.106   0.139   9.620
47452SOL    HW144253   1.063   0.220   9.646
47452SOL    HW244254   1.062   0.113   9.539
47453SOL     OW44255   7.747  12.347  12.031
47453SOL    HW144256   7.802  12.278  12.067
47453SOL    HW244257   7.691  12.373  12.104
47454SOL     OW44258   9.703   2.316  14.507
47454SOL    HW144259   9.794   2.344  14.492
47454SOL    HW244260   9.683   2.259  14.432
47455SOL     OW44261   7.147  10.607  13.564
47455SOL    HW144262   7.167  10.594  13.472
47455SOL    HW244263   7.232  10.609  13.607
47456SOL     OW44264   8.007   2.052  12.389
47456SOL    HW144265   7.969   2.113  12.452
47456SOL    HW244266   8.041   2.109  12.319
47457SOL     OW44267   6.554   0.063  14.590
47457SOL    HW144268   6.470   0.108  14.580
47457SOL    HW244269   6.568   0.057  14.684
47458SOL     OW44270  14.005   2.659  11.991
47458SOL    HW144271  14.018   2.671  12.085
47458SOL    HW244272  13.942   2.587  11.985
47459SOL     OW44273   5.449  14.678  10.255
47459SOL    HW144274   5.473  14.745  10.319
47459SOL    HW244275   5.530  14.629  10.241
47460SOL     OW44276   3.876  13.850   8.493
47460SOL    HW144277   3.903  13.904   8.567
47460SOL    HW244278   3.787  13.880   8.473
47461SOL     OW44279   1.010   3.785   1.277
47461SOL    HW144280   0.986   3.849   1.211
47461SOL    HW244281   0.940   3.789   1.342
47462SOL     OW44282  11.035   1.098   4.320
47462SOL    HW144283  10.989   1.028   4.275
47462SOL    HW244284  11.127   1.085   4.298
47463SOL     OW44285   1.138  13.139   3.791
47463SOL    HW144286   1.078  13.067   3.772
47463SOL    HW244287   1.108  13.173   3.876
47464SOL     OW44288   9.719   8.745   4.926
47464SOL    HW144289   9.691   8.812   4.989
47464SOL    HW244290   9.652   8.677   4.932
47465SOL     OW44291   6.028   7.794   2.645
47465SOL    HW144292   6.105   7.756   2.603
47465SOL    HW244293   5.995   7.724   2.701
47466SOL     OW44294   3.934  11.507  12.498
47466SOL    HW144295   3.963  11.466  12.417
47466SOL    HW244296   3.906  11.434  12.554
47467SOL     OW44297   1.440  10.991   5.882
47467SOL    HW144298   1.399  11.063   5.929
47467SOL    HW244299   1.511  11.032   5.833
47468SOL     OW44300  12.605   7.038   0.683
47468SOL    HW144301  12.679   7.079   0.639
47468SOL    HW244302  12.528   7.069   0.635
47469SOL     OW44303   7.883   7.876  10.408
47469SOL    HW144304   7.886   7.962  10.450
47469SOL    HW244305   7.956   7.877  10.346
47470SOL     OW44306  13.012  12.130  10.949
47470SOL    HW144307  13.025  12.045  10.907
47470SOL    HW244308  12.919  12.132  10.972
47471SOL     OW44309   2.644   8.560  13.781
47471SOL    HW144310   2.602   8.543  13.696
47471SOL    HW244311   2.572   8.559  13.844
47472SOL     OW44312   5.650   2.158   0.651
47472SOL    HW144313   5.626   2.239   0.607
47472SOL    HW244314   5.713   2.185   0.719
47473SOL     OW44315   8.909   4.624   4.000
47473SOL    HW144316   8.981   4.687   4.006
47473SOL    HW244317   8.899   4.590   4.089
47474SOL     OW44318  10.564   6.803   3.145
47474SOL    HW144319  10.602   6.840   3.225
47474SOL    HW244320  10.572   6.709   3.157
47475SOL     OW44321   0.582   2.730   6.574
47475SOL    HW144322   0.515   2.667   6.600
47475SOL    HW244323   0.665   2.684   6.589
47476SOL     OW44324   7.357  10.631   2.629
47476SOL    HW144325   7.322  10.632   2.540
47476SOL    HW244326   7.302  10.568   2.676
47477SOL     OW44327   2.161   2.264  10.523
47477SOL    HW144328   2.187   2.270  10.615
47477SOL    HW244329   2.103   2.189  10.519
47478SOL     OW44330  13.253   2.395  11.548
47478SOL    HW144331  13.254   2.461  11.617
47478SOL    HW244332  13.251   2.445  11.466
47479SOL     OW44333  10.248   7.647   2.323
47479SOL    HW144334  10.296   7.729   2.311
47479SOL    HW244335  10.205   7.656   2.408
47480SOL     OW44336   8.111  10.380   8.970
47480SOL    HW144337   8.084  10.380   8.879
47480SOL    HW244338   8.038  10.340   9.017
47481SOL     OW44339   9.196   0.097   3.511
47481SOL    HW144340   9.211   0.063   3.423
47481SOL    HW244341   9.134   0.036   3.550
47482SOL     OW44342   3.155  14.338   5.660
47482SOL    HW144343   3.152  14.307   5.569
47482SOL    HW244344   3.085  14.403   5.665
47483SOL     OW44345   9.876  11.216   7.286
47483SOL    HW144346   9.887  11.296   7.234
47483SOL    HW244347   9.868  11.147   7.221
47484SOL     OW44348   5.038  13.735   2.125
47484SOL    HW144349   5.043  13.640   2.129
47484SOL    HW244350   5.118  13.765   2.169
47485SOL     OW44351   2.890   3.349   8.835
47485SOL    HW144352   2.913   3.431   8.792
47485SOL    HW244353   2.796   3.355   8.851
47486SOL     OW44354   4.710  12.777  11.539
47486SOL    HW144355   4.640  12.729  11.496
47486SOL    HW244356   4.674  12.865  11.553
47487SOL     OW44357   6.448  13.117   6.867
47487SOL    HW144358   6.377  13.056   6.848
47487SOL    HW244359   6.404  13.196   6.899
47488SOL     OW44360   9.902   8.219   6.594
47488SOL    HW144361   9.956   8.293   6.566
47488SOL    HW244362   9.952   8.178   6.664
47489SOL     OW44363   2.443  13.578   2.507
47489SOL    HW144364   2.390  13.499   2.500
47489SOL    HW244365   2.384  13.644   2.544
47490SOL     OW44366  13.707   1.671   9.116
47490SOL    HW144367  13.678   1.654   9.027
47490SOL    HW244368  13.626   1.684   9.166
47491SOL     OW44369  13.786  13.407   7.677
47491SOL    HW144370  13.734  13.349   7.733
47491SOL    HW244371  13.771  13.375   7.588
47492SOL     OW44372   0.138  10.883  10.746
47492SOL    HW144373   0.045  10.876  10.724
47492SOL    HW244374   0.139  10.916  10.836
47493SOL     OW44375   2.391   3.911   0.574
47493SOL    HW144376   2.402   3.980   0.639
47493SOL    HW244377   2.297   3.897   0.568
47494SOL     OW44378   6.763   9.358   6.317
47494SOL    HW144379   6.764   9.366   6.222
47494SOL    HW244380   6.834   9.416   6.347
47495SOL     OW44381  13.095  10.922  13.022
47495SOL    HW144382  13.007  10.935  13.057
47495SOL    HW244383  13.129  11.010  13.009
47496SOL     OW44384   7.064  11.685   5.041
47496SOL    HW144385   7.082  11.719   5.129
47496SOL    HW244386   6.968  11.675   5.039
47497SOL     OW44387  11.495   7.427   8.196
47497SOL    HW144388  11.406   7.412   8.163
47497SOL    HW244389  11.482   7.475   8.278
47498SOL     OW44390   8.671   6.845   7.938
47498SOL    HW144391   8.583   6.883   7.945
47498SOL    HW244392   8.691   6.814   8.027
47499SOL     OW44393   7.138   4.092  14.109
47499SOL    HW144394   7.056   4.055  14.078
47499SOL    HW244395   7.197   4.088  14.034
47500SOL     OW44396  10.152   4.391   0.476
47500SOL    HW144397  10.189   4.333   0.542
47500SOL    HW244398  10.071   4.348   0.449
47501SOL     OW44399  10.214   1.995   8.286
47501SOL    HW144400  10.291   1.987   8.342
47501SOL    HW244401  10.232   1.936   8.212
47502SOL     OW44402   3.442  12.317   5.875
47502SOL    HW144403   3.482  12.394   5.914
47502SOL    HW244404   3.455  12.328   5.781
47503SOL     OW44405   6.909   8.255   2.856
47503SOL    HW144406   6.909   8.326   2.920
47503SOL    HW244407   6.998   8.254   2.821
47504SOL     OW44408   0.649   2.854   0.502
47504SOL    HW144409   0.581   2.801   0.461
47504SOL    HW244410   0.679   2.913   0.433
47505SOL     OW44411   0.118   7.690   6.746
47505SOL    HW144412   0.057   7.636   6.698
47505SOL    HW244413   0.126   7.648   6.832
47506SOL     OW44414   4.826  11.288   1.088
47506SOL    HW144415   4.782  11.204   1.075
47506SOL    HW244416   4.858  11.312   1.001
47507SOL     OW44417   7.392   0.853   2.909
47507SOL    HW144418   7.483   0.846   2.879
47507SOL    HW244419   7.345   0.892   2.835
47508SOL     OW44420   6.250   6.485   0.807
47508SOL    HW144421   6.248   6.537   0.887
47508SOL    HW244422   6.194   6.410   0.825
47509SOL     OW44423  12.949   2.305   3.543
47509SOL    HW144424  12.875   2.348   3.587
47509SOL    HW244425  12.952   2.345   3.456
47510SOL     OW44426  10.277   6.818   9.282
47510SOL    HW144427  10.357   6.768   9.297
47510SOL    HW244428  10.243   6.785   9.199
47511SOL     OW44429   2.324  10.227   9.544
47511SOL    HW144430   2.356  10.137   9.537
47511SOL    HW244431   2.232  10.218   9.566
47512SOL     OW44432   5.887  10.548   8.855
47512SOL    HW144433   5.927  10.475   8.901
47512SOL    HW244434   5.960  10.598   8.820
47513SOL     OW44435   8.129  13.813   5.172
47513SOL    HW144436   8.160  13.785   5.258
47513SOL    HW244437   8.063  13.747   5.148
47514SOL     OW44438   7.842   8.739   2.524
47514SOL    HW144439   7.900   8.797   2.573
47514SOL    HW244440   7.866   8.753   2.432
47515SOL     OW44441  12.272   8.778   7.938
47515SOL    HW144442  12.226   8.857   7.967
47515SOL    HW244443  12.356   8.780   7.983
47516SOL     OW44444   3.435  12.054   8.063
47516SOL    HW144445   3.481  12.133   8.090
47516SOL    HW244446   3.403  12.074   7.975
47517SOL     OW44447   0.771   6.999   5.229
47517SOL    HW144448   0.726   6.924   5.265
47517SOL    HW244449   0.765   6.988   5.134
47518SOL     OW44450  14.761   3.227   4.349
47518SOL    HW144451  14.797   3.173   4.279
47518SOL    HW244452  14.697   3.170   4.392
47519SOL     OW44453  11.993  13.087   5.888
47519SOL    HW144454  11.959  13.027   5.821
47519SOL    HW244455  11.931  13.080   5.960
47520SOL     OW44456   6.006   7.729   4.526
47520SOL    HW144457   6.087   7.679   4.521
47520SOL    HW244458   6.032   7.819   4.505
47521SOL     OW44459   4.433  12.087   5.494
47521SOL    HW144460   4.449  12.181   5.486
47521SOL    HW244461   4.378  12.079   5.572
47522SOL     OW44462   1.715   1.109   4.409
47522SOL    HW144463   1.754   1.044   4.469
47522SOL    HW244464   1.770   1.106   4.331
47523SOL     OW44465  11.378   4.943  14.179
47523SOL    HW144466  11.324   4.972  14.106
47523SOL    HW244467  11.443   4.885  14.140
47524SOL     OW44468  11.711  12.312   0.729
47524SOL    HW144469  11.759  12.339   0.807
47524SOL    HW244470  11.777  12.272   0.672
47525SOL     OW44471   7.616   2.637  12.214
47525SOL    HW144472   7.535   2.630  12.164
47525SOL    HW244473   7.671   2.696  12.162
47526SOL     OW44474   9.260  11.086   3.118
47526SOL    HW144475   9.223  11.002   3.146
47526SOL    HW244476   9.231  11.149   3.184
47527SOL     OW44477   8.896   3.313   1.459
47527SOL    HW144478   8.963   3.313   1.528
47527SOL    HW244479   8.814   3.333   1.505
47528SOL     OW44480   6.742   9.444   0.607
47528SOL    HW144481   6.675   9.484   0.664
47528SOL    HW244482   6.805   9.406   0.668
47529SOL     OW44483  12.483  14.487   0.684
47529SOL    HW144484  12.440  14.411   0.724
47529SOL    HW244485  12.576  14.466   0.686
47530SOL     OW44486   1.453   2.516   3.723
47530SOL    HW144487   1.366   2.484   3.700
47530SOL    HW244488   1.441   2.562   3.806
47531SOL     OW44489  13.124   0.358   0.791
47531SOL    HW144490  13.077   0.305   0.855
47531SOL    HW244491  13.140   0.441   0.837
47532SOL     OW44492   0.054  10.761   1.762
47532SOL    HW144493   0.123  10.709   1.802
47532SOL    HW244494   0.101  10.828   1.713
47533SOL     OW44495   2.141   8.841   2.424
47533SOL    HW144496   2.204   8.894   2.471
47533SOL    HW244497   2.194   8.787   2.365
47534SOL     OW44498  12.154   1.105  14.436
47534SOL    HW144499  12.137   1.034  14.497
47534SOL    HW244500  12.241   1.137  14.460
47535SOL     OW44501   9.992  11.748   4.697
47535SOL    HW144502  10.051  11.686   4.740
47535SOL    HW244503  10.008  11.735   4.603
47536SOL     OW44504  10.444   3.666   0.167
47536SOL    HW144505  10.378   3.662   0.236
47536SOL    HW244506  10.420   3.742   0.115
47537SOL     OW44507   1.187   5.597  11.546
47537SOL    HW144508   1.209   5.689  11.553
47537SOL    HW244509   1.145   5.576  11.630
47538SOL     OW44510   3.417   1.672   8.816
47538SOL    HW144511   3.485   1.695   8.880
47538SOL    HW244512   3.345   1.732   8.836
47539SOL     OW44513  12.500   4.019   4.504
47539SOL    HW144514  12.456   3.941   4.471
47539SOL    HW244515  12.554   3.987   4.576
47540SOL     OW44516   5.011   0.758   0.675
47540SOL    HW144517   4.988   0.685   0.619
47540SOL    HW244518   5.008   0.835   0.618
47541SOL     OW44519   5.729   6.350   5.666
47541SOL    HW144520   5.778   6.294   5.726
47541SOL    HW244521   5.638   6.343   5.695
47542SOL     OW44522   0.298   2.260   0.766
47542SOL    HW144523   0.299   2.172   0.729
47542SOL    HW244524   0.341   2.314   0.699
47543SOL     OW44525   0.338  10.188  13.066
47543SOL    HW144526   0.286  10.131  13.010
47543SOL    HW244527   0.283  10.204  13.143
47544SOL     OW44528   6.550   1.515   8.368
47544SOL    HW144529   6.547   1.427   8.330
47544SOL    HW244530   6.500   1.569   8.308
47545SOL     OW44531   5.036   1.295  12.698
47545SOL    HW144532   5.009   1.384  12.724
47545SOL    HW244533   4.986   1.278  12.618
47546SOL     OW44534   6.089  11.639   3.032
47546SOL    HW144535   6.020  11.686   2.985
47546SOL    HW244536   6.166  11.695   3.025
47547SOL     OW44537   4.060   0.758  14.174
47547SOL    HW144538   4.137   0.802  14.211
47547SOL    HW244539   3.995   0.828  14.166
47548SOL     OW44540  14.218   3.069   3.833
47548SOL    HW144541  14.153   3.100   3.896
47548SOL    HW244542  14.297   3.056   3.886
47549SOL     OW44543   9.187  14.547   8.219
47549SOL    HW144544   9.095  14.537   8.193
47549SOL    HW244545   9.188  14.529   8.313
47550SOL     OW44546   9.698   7.681  11.688
47550SOL    HW144547   9.700   7.602  11.633
47550SOL    HW244548   9.784   7.722  11.674
47551SOL     OW44549   8.435  12.849   9.048
47551SOL    HW144550   8.391  12.767   9.025
47551SOL    HW244551   8.370  12.897   9.100
47552SOL     OW44552  14.214  14.763   4.037
47552SOL    HW144553  14.222  14.814   4.117
47552SOL    HW244554  14.303  14.754   4.004
47553SOL     OW44555   0.001   5.781  10.747
47553SOL    HW144556  14.869   5.710  10.684
47553SOL    HW244557   0.005   5.737  10.832
47554SOL     OW44558  13.496   7.874   8.537
47554SOL    HW144559  13.431   7.807   8.514
47554SOL    HW244560  13.467   7.907   8.622
47555SOL     OW44561   3.785   1.911  10.461
47555SOL    HW144562   3.842   1.974  10.504
47555SOL    HW244563   3.842   1.862  10.402
47556SOL     OW44564   0.564   5.023  11.823
47556SOL    HW144565   0.487   5.020  11.880
47556SOL    HW244566   0.555   5.106  11.775
47557SOL     OW44567   7.442   4.127  12.769
47557SOL    HW144568   7.486   4.043  12.758
47557SOL    HW244569   7.371   4.126  12.706
47558SOL     OW44570  14.376   4.943   2.446
47558SOL    HW144571  14.299   4.994   2.470
47558SOL    HW244572  14.451   4.996   2.475
47559SOL     OW44573  13.183   2.459  14.171
47559SOL    HW144574  13.188   2.364  14.173
47559SOL    HW244575  13.178   2.481  14.078
47560SOL     OW44576   1.319   1.084   9.787
47560SOL    HW144577   1.317   1.022   9.714
47560SOL    HW244578   1.403   1.069   9.829
47561SOL     OW44579  11.195   2.857  12.711
47561SOL    HW144580  11.237   2.779  12.747
47561SOL    HW244581  11.262   2.896  12.654
47562SOL     OW44582   1.057   6.136  11.137
47562SOL    HW144583   1.036   6.229  11.143
47562SOL    HW244584   1.054   6.116  11.044
47563SOL     OW44585   7.283  11.775   4.051
47563SOL    HW144586   7.315  11.827   3.978
47563SOL    HW244587   7.280  11.835   4.125
47564SOL     OW44588   0.521   3.676   7.247
47564SOL    HW144589   0.494   3.627   7.169
47564SOL    HW244590   0.472   3.758   7.242
47565SOL     OW44591   2.038   1.729   8.382
47565SOL    HW144592   2.128   1.748   8.354
47565SOL    HW244593   2.038   1.744   8.476
47566SOL     OW44594   8.343   2.317   0.847
47566SOL    HW144595   8.295   2.313   0.929
47566SOL    HW244596   8.315   2.239   0.799
47567SOL     OW44597   1.431  14.789  11.448
47567SOL    HW144598   1.501  14.725  11.460
47567SOL    HW244599   1.385  14.761  11.369
47568SOL     OW44600   1.523  12.806  10.847
47568SOL    HW144601   1.505  12.736  10.909
47568SOL    HW244602   1.618  12.818  10.851
47569SOL     OW44603  12.103   4.663   9.007
47569SOL    HW144604  12.013   4.654   9.036
47569SOL    HW244605  12.102   4.738   8.947
47570SOL     OW44606   3.433   4.058   4.291
47570SOL    HW144607   3.375   3.985   4.269
47570SOL    HW244608   3.512   4.017   4.325
47571SOL     OW44609  11.853   0.177  13.234
47571SOL    HW144610  11.946   0.193  13.218
47571SOL    HW244611  11.842   0.083  13.218
47572SOL     OW44612   1.955   4.856  14.047
47572SOL    HW144613   1.880   4.854  13.988
47572SOL    HW244614   1.927   4.912  14.119
47573SOL     OW44615  11.249   4.472  11.951
47573SOL    HW144616  11.237   4.399  12.011
47573SOL    HW244617  11.170   4.472  11.897
47574SOL     OW44618   0.061   5.874   0.754
47574SOL    HW144619   0.077   5.885   0.660
47574SOL    HW244620   0.120   5.937   0.796
47575SOL     OW44621  12.018   5.108  14.164
47575SOL    HW144622  11.948   5.140  14.221
47575SOL    HW244623  12.029   5.017  14.189
47576SOL     OW44624   4.456   8.064  10.654
47576SOL    HW144625   4.513   8.126  10.700
47576SOL    HW244626   4.389   8.118  10.614
47577SOL     OW44627   5.442   9.889   3.617
47577SOL    HW144628   5.424   9.839   3.697
47577SOL    HW244629   5.379   9.856   3.553
47578SOL     OW44630  14.040  14.252   6.434
47578SOL    HW144631  14.045  14.193   6.358
47578SOL    HW244632  13.982  14.207   6.495
47579SOL     OW44633   1.230   5.248   2.072
47579SOL    HW144634   1.288   5.263   2.146
47579SOL    HW244635   1.269   5.175   2.025
47580SOL     OW44636  12.571   6.558  12.474
47580SOL    HW144637  12.613   6.643  12.463
47580SOL    HW244638  12.525   6.543  12.391
47581SOL     OW44639   8.127   0.120   5.465
47581SOL    HW144640   8.181   0.136   5.388
47581SOL    HW244641   8.132   0.026   5.479
47582SOL     OW44642   9.481   5.901  10.439
47582SOL    HW144643   9.555   5.960  10.424
47582SOL    HW244644   9.494   5.868  10.528
47583SOL     OW44645  13.273   5.260  12.076
47583SOL    HW144646  13.222   5.181  12.062
47583SOL    HW244647  13.216   5.317  12.127
47584SOL     OW44648   6.269  14.309   3.409
47584SOL    HW144649   6.349  14.291   3.459
47584SOL    HW244650   6.300  14.341   3.324
47585SOL     OW44651  14.556   6.160  14.035
47585SOL    HW144652  14.569   6.236  13.978
47585SOL    HW244653  14.563   6.195  14.124
47586SOL     OW44654  14.060   3.053   8.290
47586SOL    HW144655  14.083   3.001   8.366
47586SOL    HW244656  14.064   2.991   8.216
47587SOL     OW44657  13.167   1.012  12.259
47587SOL    HW144658  13.121   0.969  12.187
47587SOL    HW244659  13.190   0.941  12.319
47588SOL     OW44660  12.134  11.048   2.079
47588SOL    HW144661  12.084  11.011   2.006
47588SOL    HW244662  12.224  11.020   2.063
47589SOL     OW44663   4.890   2.407  10.543
47589SOL    HW144664   4.957   2.475  10.551
47589SOL    HW244665   4.939   2.325  10.535
47590SOL     OW44666   3.784  10.587   7.736
47590SOL    HW144667   3.789  10.534   7.656
47590SOL    HW244668   3.873  10.620   7.748
47591SOL     OW44669   0.253   7.510   5.077
47591SOL    HW144670   0.201   7.437   5.045
47591SOL    HW244671   0.314   7.472   5.140
47592SOL     OW44672   6.396   7.006   5.823
47592SOL    HW144673   6.479   6.969   5.794
47592SOL    HW244674   6.391   6.985   5.916
47593SOL     OW44675   9.138   5.093   2.711
47593SOL    HW144676   9.230   5.079   2.688
47593SOL    HW244677   9.131   5.061   2.801
47594SOL     OW44678   1.971  12.674  13.990
47594SOL    HW144679   1.880  12.645  13.987
47594SOL    HW244680   1.967  12.767  13.971
47595SOL     OW44681   9.445   8.934   1.385
47595SOL    HW144682   9.448   8.876   1.462
47595SOL    HW244683   9.522   8.991   1.395
47596SOL     OW44684  14.431   9.418  13.253
47596SOL    HW144685  14.508   9.410  13.196
47596SOL    HW244686  14.420   9.512  13.265
47597SOL     OW44687   0.973   1.356   8.546
47597SOL    HW144688   0.997   1.369   8.637
47597SOL    HW244689   1.055   1.370   8.498
47598SOL     OW44690   0.208   5.626   9.387
47598SOL    HW144691   0.280   5.583   9.432
47598SOL    HW244692   0.168   5.682   9.453
47599SOL     OW44693   7.505   3.467   2.558
47599SOL    HW144694   7.566   3.425   2.498
47599SOL    HW244695   7.418   3.444   2.525
47600SOL     OW44696   8.326   8.741  10.496
47600SOL    HW144697   8.318   8.737  10.400
47600SOL    HW244698   8.401   8.799  10.511
47601SOL     OW44699  14.668   0.701   5.956
47601SOL    HW144700  14.623   0.617   5.948
47601SOL    HW244701  14.689   0.708   6.049
47602SOL     OW44702   0.531   6.558  12.148
47602SOL    HW144703   0.531   6.499  12.073
47602SOL    HW244704   0.504   6.503  12.222
47603SOL     OW44705   3.409  14.102   3.231
47603SOL    HW144706   3.328  14.131   3.189
47603SOL    HW244707   3.464  14.180   3.236
47604SOL     OW44708   4.576   7.477  14.331
47604SOL    HW144709   4.616   7.463  14.245
47604SOL    HW244710   4.612   7.559  14.362
47605SOL     OW44711   5.967   4.918   0.352
47605SOL    HW144712   6.036   4.855   0.329
47605SOL    HW244713   5.990   4.997   0.303
47606SOL     OW44714   1.028   9.624   0.485
47606SOL    HW144715   1.050   9.681   0.559
47606SOL    HW244716   1.043   9.678   0.408
47607SOL     OW44717   3.039  13.163   9.031
47607SOL    HW144718   3.088  13.211   8.965
47607SOL    HW244719   3.100  13.097   9.063
47608SOL     OW44720   0.049   9.109  12.205
47608SOL    HW144721   0.031   9.015  12.214
47608SOL    HW244722   0.096   9.132  12.285
47609SOL     OW44723  12.911   3.432   1.074
47609SOL    HW144724  12.904   3.527   1.063
47609SOL    HW244725  13.000   3.412   1.042
47610SOL     OW44726  11.034   8.895   8.711
47610SOL    HW144727  11.024   8.817   8.656
47610SOL    HW244728  11.074   8.960   8.654
47611SOL     OW44729  10.843   1.910   0.176
47611SOL    HW144730  10.783   1.904   0.102
47611SOL    HW244731  10.923   1.949   0.140
47612SOL     OW44732   1.775  10.725  12.179
47612SOL    HW144733   1.729  10.799  12.138
47612SOL    HW244734   1.868  10.750  12.175
47613SOL     OW44735   4.717  11.730   3.227
47613SOL    HW144736   4.672  11.790   3.168
47613SOL    HW244737   4.724  11.648   3.177
47614SOL     OW44738   9.959  13.439   5.547
47614SOL    HW144739   9.955  13.534   5.559
47614SOL    HW244740   9.868  13.411   5.551
47615SOL     OW44741  13.191   6.971   0.854
47615SOL    HW144742  13.174   6.882   0.884
47615SOL    HW244743  13.203   7.022   0.934
47616SOL     OW44744   1.089   4.773   2.382
47616SOL    HW144745   1.075   4.841   2.447
47616SOL    HW244746   1.130   4.701   2.430
47617SOL     OW44747   6.894   0.410   1.409
47617SOL    HW144748   6.839   0.409   1.487
47617SOL    HW244749   6.981   0.435   1.440
47618SOL     OW44750  10.665  11.675   6.548
47618SOL    HW144751  10.729  11.626   6.600
47618SOL    HW244752  10.627  11.737   6.609
47619SOL     OW44753   4.345  10.393  10.627
47619SOL    HW144754   4.423  10.401  10.572
47619SOL    HW244755   4.353  10.308  10.670
47620SOL     OW44756  14.027  13.495   0.702
47620SOL    HW144757  14.044  13.506   0.608
47620SOL    HW244758  14.067  13.571   0.743
47621SOL     OW44759  14.460   4.448  11.930
47621SOL    HW144760  14.404   4.393  11.985
47621SOL    HW244761  14.440   4.537  11.956
47622SOL     OW44762   3.833   5.334   6.587
47622SOL    HW144763   3.833   5.239   6.603
47622SOL    HW244764   3.923   5.361   6.607
47623SOL     OW44765   9.795  13.837  10.559
47623SOL    HW144766   9.773  13.758  10.509
47623SOL    HW244767   9.848  13.889  10.499
47624SOL     OW44768   6.036   6.677   5.494
47624SOL    HW144769   6.013   6.666   5.401
47624SOL    HW244770   5.952   6.687   5.538
47625SOL     OW44771   9.255   8.866   8.470
47625SOL    HW144772   9.192   8.910   8.413
47625SOL    HW244773   9.207   8.850   8.551
47626SOL     OW44774   6.077  12.374  12.677
47626SOL    HW144775   6.111  12.326  12.602
47626SOL    HW244776   6.007  12.319  12.712
47627SOL     OW44777   5.309  12.222  13.225
47627SOL    HW144778   5.306  12.289  13.293
47627SOL    HW244779   5.291  12.270  13.143
47628SOL     OW44780   1.850  10.971  14.501
47628SOL    HW144781   1.776  11.025  14.530
47628SOL    HW244782   1.893  11.024  14.434
47629SOL     OW44783   5.667   2.044   7.107
47629SOL    HW144784   5.702   2.124   7.145
47629SOL    HW244785   5.631   2.071   7.022
47630SOL     OW44786  10.017   2.767  12.609
47630SOL    HW144787  10.111   2.748  12.611
47630SOL    HW244788  10.005   2.837  12.673
47631SOL     OW44789   5.789   6.110   4.800
47631SOL    HW144790   5.844   6.150   4.733
47631SOL    HW244791   5.847   6.051   4.848
47632SOL     OW44792   1.992  11.421  11.967
47632SOL    HW144793   2.040  11.435  11.886
47632SOL    HW244794   2.007  11.329  11.988
47633SOL     OW44795  11.935   9.148   0.514
47633SOL    HW144796  11.936   9.095   0.434
47633SOL    HW244797  12.005   9.110   0.568
47634SOL     OW44798  11.155   2.099   2.331
47634SOL    HW144799  11.084   2.158   2.356
47634SOL    HW244800  11.117   2.044   2.262
47635SOL     OW44801   3.574   1.722   8.559
47635SOL    HW144802   3.665   1.739   8.583
47635SOL    HW244803   3.531   1.698   8.641
47636SOL     OW44804   3.470  11.435  13.495
47636SOL    HW144805   3.445  11.424  13.403
47636SOL    HW244806   3.459  11.349  13.533
47637SOL     OW44807   4.759  13.352  14.723
47637SOL    HW144808   4.797  13.297  14.654
47637SOL    HW244809   4.691  13.402  14.679
47638SOL     OW44810   0.755  12.131   0.970
47638SOL    HW144811   0.736  12.088   0.887
47638SOL    HW244812   0.851  12.131   0.976
47639SOL     OW44813   5.440   1.489   6.928
47639SOL    HW144814   5.504   1.485   6.999
47639SOL    HW244815   5.476   1.434   6.859
47640SOL     OW44816   2.973   3.902   4.044
47640SOL    HW144817   2.956   3.816   4.005
47640SOL    HW244818   2.887   3.936   4.066
47641SOL     OW44819   4.466  10.416   7.564
47641SOL    HW144820   4.385  10.456   7.595
47641SOL    HW244821   4.467  10.434   7.470
47642SOL     OW44822  11.935   3.591  13.197
47642SOL    HW144823  11.953   3.536  13.273
47642SOL    HW244824  11.860   3.549  13.155
47643SOL     OW44825   4.361   6.521   5.996
47643SOL    HW144826   4.291   6.459   6.016
47643SOL    HW244827   4.317   6.591   5.948
47644SOL     OW44828   5.868   2.253   2.154
47644SOL    HW144829   5.782   2.231   2.188
47644SOL    HW244830   5.914   2.169   2.148
47645SOL     OW44831  13.975   3.700   1.134
47645SOL    HW144832  14.046   3.717   1.071
47645SOL    HW244833  13.966   3.605   1.135
47646SOL     OW44834   9.244  14.417   8.834
47646SOL    HW144835   9.199  14.366   8.767
47646SOL    HW244836   9.337  14.408   8.812
47647SOL     OW44837   6.190  11.001   8.173
47647SOL    HW144838   6.107  10.981   8.131
47647SOL    HW244839   6.228  11.072   8.120
47648SOL     OW44840   3.140  14.092  13.862
47648SOL    HW144841   3.058  14.131  13.832
47648SOL    HW244842   3.198  14.097  13.786
47649SOL     OW44843   2.653  12.150   6.112
47649SOL    HW144844   2.748  12.146   6.108
47649SOL    HW244845   2.625  12.150   6.020
47650SOL     OW44846  10.103  14.148   6.675
47650SOL    HW144847  10.084  14.213   6.742
47650SOL    HW244848  10.036  14.162   6.608
47651SOL     OW44849   0.199   1.609  13.345
47651SOL    HW144850   0.160   1.671  13.406
47651SOL    HW244851   0.259   1.557  13.399
47652SOL     OW44852  14.751  13.308   2.851
47652SOL    HW144853  14.803  13.329   2.773
47652SOL    HW244854  14.798  13.237   2.893
47653SOL     OW44855  12.936  10.417   9.202
47653SOL    HW144856  12.948  10.469   9.282
47653SOL    HW244857  12.890  10.338   9.231
47654SOL     OW44858   3.612   9.469   7.778
47654SOL    HW144859   3.523   9.448   7.806
47654SOL    HW244860   3.645   9.530   7.844
47655SOL     OW44861  14.306   6.635   1.232
47655SOL    HW144862  14.260   6.642   1.315
47655SOL    HW244863  14.245   6.669   1.167
47656SOL     OW44864   4.652   6.293  12.788
47656SOL    HW144865   4.686   6.260  12.704
47656SOL    HW244866   4.613   6.377  12.767
47657SOL     OW44867  12.205  14.232  13.989
47657SOL    HW144868  12.229  14.146  13.953
47657SOL    HW244869  12.221  14.293  13.918
47658SOL     OW44870   9.669  11.756  12.290
47658SOL    HW144871   9.611  11.830  12.272
47658SOL    HW244872   9.622  11.705  12.357
47659SOL     OW44873   6.362   3.480   5.092
47659SOL    HW144874   6.389   3.560   5.047
47659SOL    HW244875   6.280   3.456   5.050
47660SOL     OW44876   3.776   1.281  14.068
47660SOL    HW144877   3.866   1.278  14.102
47660SOL    HW244878   3.734   1.350  14.119
47661SOL     OW44879   6.615   6.335  11.738
47661SOL    HW144880   6.585   6.263  11.684
47661SOL    HW244881   6.540   6.394  11.744
47662SOL     OW44882  10.913   8.204   4.619
47662SOL    HW144883  10.995   8.211   4.571
47662SOL    HW244884  10.849   8.253   4.566
47663SOL     OW44885   7.262   6.418   6.721
47663SOL    HW144886   7.266   6.387   6.630
47663SOL    HW244887   7.168   6.419   6.741
47664SOL     OW44888   9.968   1.985   7.908
47664SOL    HW144889  10.051   1.971   7.955
47664SOL    HW244890   9.906   1.928   7.952
47665SOL     OW44891  11.996  13.650   3.786
47665SOL    HW144892  11.974  13.710   3.715
47665SOL    HW244893  11.930  13.667   3.853
47666SOL     OW44894   6.018   4.765   6.285
47666SOL    HW144895   6.081   4.766   6.357
47666SOL    HW244896   6.028   4.849   6.242
47667SOL     OW44897   9.725  13.684   0.460
47667SOL    HW144898   9.659  13.753   0.468
47667SOL    HW244899   9.803  13.721   0.502
47668SOL     OW44900   0.840   4.831   5.030
47668SOL    HW144901   0.935   4.842   5.033
47668SOL    HW244902   0.826   4.744   4.993
47669SOL     OW44903  10.393  11.824  14.364
47669SOL    HW144904  10.457  11.891  14.339
47669SOL    HW244905  10.412  11.750  14.307
47670SOL     OW44906   9.949  12.965   3.281
47670SOL    HW144907   9.904  12.942   3.199
47670SOL    HW244908   9.921  12.898   3.343
47671SOL     OW44909  14.774   8.701   5.285
47671SOL    HW144910  14.855   8.665   5.250
47671SOL    HW244911  14.797   8.790   5.312
47672SOL     OW44912   1.032   8.169  12.720
47672SOL    HW144913   1.063   8.207  12.802
47672SOL    HW244914   1.090   8.093  12.706
47673SOL     OW44915   1.294  13.830   9.431
47673SOL    HW144916   1.234  13.756   9.431
47673SOL    HW244917   1.304  13.853   9.523
47674SOL     OW44918   2.427  11.571  11.618
47674SOL    HW144919   2.468  11.648  11.656
47674SOL    HW244920   2.480  11.497  11.649
47675SOL     OW44921   7.115  14.066   1.140
47675SOL    HW144922   7.107  14.161   1.154
47675SOL    HW244923   7.103  14.055   1.046
47676SOL     OW44924  13.447  13.394  14.798
47676SOL    HW144925  13.513  13.333  14.764
47676SOL    HW244926  13.494  13.447  14.862
47677SOL     OW44927  12.443   1.604  14.653
47677SOL    HW144928  12.534   1.576  14.652
47677SOL    HW244929  12.418   1.604  14.745
47678SOL     OW44930  10.704   6.003   9.505
47678SOL    HW144931  10.644   5.973   9.574
47678SOL    HW244932  10.713   6.097   9.520
47679SOL     OW44933   1.840   0.943   3.399
47679SOL    HW144934   1.904   0.995   3.351
47679SOL    HW244935   1.873   0.853   3.394
47680SOL     OW44936   3.597   4.920   4.674
47680SOL    HW144937   3.632   4.993   4.724
47680SOL    HW244938   3.503   4.920   4.693
47681SOL     OW44939   5.737  14.792   3.196
47681SOL    HW144940   5.798  14.858   3.229
47681SOL    HW244941   5.791  14.731   3.147
47682SOL     OW44942  10.456   8.978  14.348
47682SOL    HW144943  10.376   8.983  14.296
47682SOL    HW244944  10.441   8.905  14.408
47683SOL     OW44945   1.857   1.211   7.740
47683SOL    HW144946   1.771   1.169   7.746
47683SOL    HW244947   1.861   1.242   7.649
47684SOL     OW44948   0.436   3.667  12.719
47684SOL    HW144949   0.387   3.682  12.638
47684SOL    HW244950   0.369   3.652  12.786
47685SOL     OW44951  10.830   6.361   5.070
47685SOL    HW144952  10.833   6.453   5.043
47685SOL    HW244953  10.739   6.347   5.098
47686SOL     OW44954   4.385  12.665  12.871
47686SOL    HW144955   4.298  12.690  12.838
47686SOL    HW244956   4.441  12.666  12.793
47687SOL     OW44957   1.648  10.857   4.718
47687SOL    HW144958   1.714  10.788   4.715
47687SOL    HW244959   1.596  10.844   4.639
47688SOL     OW44960   3.636   0.788   5.017
47688SOL    HW144961   3.613   0.852   4.949
47688SOL    HW244962   3.641   0.705   4.970
47689SOL     OW44963   5.309  11.943   2.585
47689SOL    HW144964   5.264  11.859   2.597
47689SOL    HW244965   5.281  11.974   2.499
47690SOL     OW44966  12.986   3.626  14.652
47690SOL    HW144967  12.892   3.618  14.666
47690SOL    HW244968  13.024   3.569  14.719
47691SOL     OW44969  10.004   2.866   8.832
47691SOL    HW144970  10.017   2.787   8.780
47691SOL    HW244971   9.929   2.847   8.888
47692SOL     OW44972   9.470   3.995   5.357
47692SOL    HW144973   9.518   3.914   5.373
47692SOL    HW244974   9.408   3.973   5.288
47693SOL     OW44975  13.055   5.030   1.556
47693SOL    HW144976  12.981   4.975   1.579
47693SOL    HW244977  13.020   5.119   1.555
47694SOL     OW44978   3.034   7.473   6.404
47694SOL    HW144979   3.004   7.445   6.317
47694SOL    HW244980   3.107   7.533   6.386
47695SOL     OW44981   5.094   9.817   5.126
47695SOL    HW144982   5.167   9.825   5.187
47695SOL    HW244983   5.132   9.836   5.040
47696SOL     OW44984  11.529  10.252   7.521
47696SOL    HW144985  11.538  10.200   7.442
47696SOL    HW244986  11.538  10.343   7.491
47697SOL     OW44987  11.272   3.255  11.966
47697SOL    HW144988  11.357   3.229  11.930
47697SOL    HW244989  11.210   3.193  11.929
47698SOL     OW44990   4.373   1.989   0.036
47698SOL    HW144991   4.336   1.914   0.083
47698SOL    HW244992   4.416   1.952  14.837
47699SOL     OW44993   0.774   9.229   1.028
47699SOL    HW144994   0.781   9.324   1.032
47699SOL    HW244995   0.827   9.204   0.952
47700SOL     OW44996   7.602   7.692   6.814
47700SOL    HW144997   7.592   7.675   6.720
47700SOL    HW244998   7.585   7.608   6.856
47701SOL     OW44999  11.402  13.570   1.801
47701SOL    HW145000  11.452  13.601   1.876
47701SOL    HW245001  11.468  13.539   1.739
47702SOL     OW45002  12.824  10.911   5.088
47702SOL    HW145003  12.797  10.892   5.178
47702SOL    HW245004  12.901  10.967   5.098
47703SOL     OW45005  10.136   5.171   5.341
47703SOL    HW145006  10.100   5.220   5.414
47703SOL    HW245007  10.210   5.224   5.310
47704SOL     OW45008  12.344   2.548   3.620
47704SOL    HW145009  12.323   2.519   3.531
47704SOL    HW245010  12.406   2.619   3.608
47705SOL     OW45011   1.895  13.481   2.899
47705SOL    HW145012   1.954  13.486   2.974
47705SOL    HW245013   1.833  13.411   2.921
47706SOL     OW45014   9.553   8.170   1.247
47706SOL    HW145015   9.486   8.105   1.271
47706SOL    HW245016   9.634   8.136   1.283
47707SOL     OW45017   9.151  12.966   7.041
47707SOL    HW145018   9.161  12.976   7.135
47707SOL    HW245019   9.219  13.023   7.003
47708SOL     OW45020   5.728   7.809   7.471
47708SOL    HW145021   5.730   7.761   7.554
47708SOL    HW245022   5.642   7.788   7.433
47709SOL     OW45023   1.158   5.715   6.430
47709SOL    HW145024   1.117   5.632   6.454
47709SOL    HW245025   1.090   5.762   6.381
47710SOL     OW45026   0.031   2.724  11.555
47710SOL    HW145027  14.817   2.701  11.542
47710SOL    HW245028   0.078   2.676  11.487
47711SOL     OW45029   6.452  13.505   8.771
47711SOL    HW145030   6.385  13.554   8.818
47711SOL    HW245031   6.482  13.565   8.703
47712SOL     OW45032   9.990  11.700   5.769
47712SOL    HW145033   9.924  11.760   5.733
47712SOL    HW245034  10.056  11.758   5.807
47713SOL     OW45035   7.727  14.462   0.344
47713SOL    HW145036   7.696  14.494   0.259
47713SOL    HW245037   7.785  14.389   0.322
47714SOL     OW45038   7.412  14.451   2.787
47714SOL    HW145039   7.485  14.418   2.734
47714SOL    HW245040   7.385  14.531   2.742
47715SOL     OW45041   0.461   8.222  10.368
47715SOL    HW145042   0.495   8.133  10.362
47715SOL    HW245043   0.446   8.237  10.461
47716SOL     OW45044  14.346   5.656  14.113
47716SOL    HW145045  14.396   5.716  14.059
47716SOL    HW245046  14.255   5.668  14.085
47717SOL     OW45047   2.928   9.398   3.399
47717SOL    HW145048   2.844   9.360   3.425
47717SOL    HW245049   2.978   9.324   3.364
47718SOL     OW45050  10.162   8.356  10.893
47718SOL    HW145051  10.242   8.346  10.944
47718SOL    HW245052  10.100   8.296  10.935
47719SOL     OW45053  11.879  10.167   5.745
47719SOL    HW145054  11.870  10.184   5.651
47719SOL    HW245055  11.965  10.127   5.754
47720SOL     OW45056   8.567  13.206  10.186
47720SOL    HW145057   8.650  13.254  10.191
47720SOL    HW245058   8.581  13.141  10.118
47721SOL     OW45059  14.302   0.201   2.379
47721SOL    HW145060  14.324   0.127   2.321
47721SOL    HW245061  14.326   0.278   2.329
47722SOL     OW45062  12.868   9.708   2.912
47722SOL    HW145063  12.887   9.649   2.985
47722SOL    HW245064  12.843   9.790   2.955
47723SOL     OW45065   0.976   3.323  14.016
47723SOL    HW145066   1.017   3.405  13.988
47723SOL    HW245067   1.023   3.255  13.968
47724SOL     OW45068   3.266   8.529   0.894
47724SOL    HW145069   3.270   8.624   0.879
47724SOL    HW245070   3.198   8.498   0.833
47725SOL     OW45071   2.846   8.717   0.080
47725SOL    HW145072   2.820   8.653   0.014
47725SOL    HW245073   2.764   8.747   0.118
47726SOL     OW45074   1.187   4.193   4.494
47726SOL    HW145075   1.181   4.102   4.466
47726SOL    HW245076   1.280   4.210   4.506
47727SOL     OW45077  10.314   7.110  14.186
47727SOL    HW145078  10.366   7.036  14.155
47727SOL    HW245079  10.348   7.128  14.274
47728SOL     OW45080   8.058   5.114   4.080
47728SOL    HW145081   8.043   5.023   4.104
47728SOL    HW245082   8.012   5.125   3.997
47729SOL     OW45083   8.189  13.403   8.778
47729SOL    HW145084   8.231  13.319   8.799
47729SOL    HW245085   8.117  13.379   8.719
47730SOL     OW45086   4.514   3.599  10.819
47730SOL    HW145087   4.496   3.559  10.734
47730SOL    HW245088   4.528   3.525  10.878
47731SOL     OW45089   4.117  11.368   3.271
47731SOL    HW145090   4.161  11.426   3.334
47731SOL    HW245091   4.132  11.410   3.187
47732SOL     OW45092  13.492   1.338   7.286
47732SOL    HW145093  13.444   1.419   7.303
47732SOL    HW245094  13.526   1.312   7.372
47733SOL     OW45095  10.497  13.279   5.067
47733SOL    HW145096  10.557  13.296   4.995
47733SOL    HW245097  10.515  13.348   5.131
47734SOL     OW45098  14.434  14.622   1.738
47734SOL    HW145099  14.442  14.707   1.781
47734SOL    HW245100  14.346  14.592   1.760
47735SOL     OW45101  11.923  13.338   8.651
47735SOL    HW145102  11.948  13.400   8.582
47735SOL    HW245103  11.997  13.277   8.656
47736SOL     OW45104  13.268   1.940  11.606
47736SOL    HW145105  13.299   1.922  11.695
47736SOL    HW245106  13.264   1.853  11.565
47737SOL     OW45107   6.108   3.841   8.765
47737SOL    HW145108   6.189   3.811   8.725
47737SOL    HW245109   6.043   3.775   8.742
47738SOL     OW45110   7.192   8.736   1.632
47738SOL    HW145111   7.239   8.813   1.599
47738SOL    HW245112   7.101   8.765   1.641
47739SOL     OW45113   4.950   9.671  14.471
47739SOL    HW145114   4.866   9.712  14.449
47739SOL    HW245115   4.965   9.608  14.401
47740SOL     OW45116  10.659   4.158   2.657
47740SOL    HW145117  10.621   4.173   2.571
47740SOL    HW245118  10.629   4.071   2.682
47741SOL     OW45119  12.395  10.363   1.693
47741SOL    HW145120  12.468  10.376   1.632
47741SOL    HW245121  12.397  10.440   1.749
47742SOL     OW45122   0.397   2.245  14.233
47742SOL    HW145123   0.389   2.179  14.163
47742SOL    HW245124   0.467   2.211  14.289
47743SOL     OW45125   2.200  14.190   1.200
47743SOL    HW145126   2.292  14.181   1.174
47743SOL    HW245127   2.150  14.161   1.124
47744SOL     OW45128  13.279   2.550   9.714
47744SOL    HW145129  13.283   2.646   9.712
47744SOL    HW245130  13.218   2.527   9.644
47745SOL     OW45131  13.035   3.212  14.862
47745SOL    HW145132  13.084   3.189   0.063
47745SOL    HW245133  12.955   3.159  14.867
47746SOL     OW45134   1.531  11.253  14.412
47746SOL    HW145135   1.467  11.195  14.371
47746SOL    HW245136   1.480  11.313  14.466
47747SOL     OW45137   1.109   0.086   2.980
47747SOL    HW145138   1.200   0.070   3.005
47747SOL    HW245139   1.077   0.002   2.947
47748SOL     OW45140  14.677  12.084  13.137
47748SOL    HW145141  14.598  12.067  13.085
47748SOL    HW245142  14.675  12.178  13.153
47749SOL     OW45143   2.101  11.850  10.246
47749SOL    HW145144   2.164  11.786  10.213
47749SOL    HW245145   2.104  11.839  10.341
47750SOL     OW45146   5.265  11.067  12.286
47750SOL    HW145147   5.321  11.006  12.335
47750SOL    HW245148   5.315  11.149  12.285
47751SOL     OW45149   2.731   9.054   9.251
47751SOL    HW145150   2.670   9.122   9.281
47751SOL    HW245151   2.795   9.101   9.197
47752SOL     OW45152  12.933   5.488   4.499
47752SOL    HW145153  12.875   5.463   4.426
47752SOL    HW245154  13.003   5.538   4.458
47753SOL     OW45155   7.286   1.578  14.300
47753SOL    HW145156   7.375   1.543  14.288
47753SOL    HW245157   7.233   1.531  14.235
47754SOL     OW45158  10.375  12.256   4.730
47754SOL    HW145159  10.332  12.325   4.780
47754SOL    HW245160  10.392  12.187   4.794
47755SOL     OW45161  14.496  12.074   1.599
47755SOL    HW145162  14.467  12.018   1.527
47755SOL    HW245163  14.579  12.110   1.569
47756SOL     OW45164  14.134   9.926   9.590
47756SOL    HW145165  14.157   9.991   9.656
47756SOL    HW245166  14.173   9.958   9.509
47757SOL     OW45167  11.104   9.963   4.093
47757SOL    HW145168  11.078  10.020   4.021
47757SOL    HW245169  11.090  10.015   4.172
47758SOL     OW45170   3.671  10.852   4.449
47758SOL    HW145171   3.679  10.917   4.379
47758SOL    HW245172   3.760  10.842   4.483
47759SOL     OW45173  11.318  13.567   8.988
47759SOL    HW145174  11.388  13.512   9.024
47759SOL    HW245175  11.360  13.650   8.967
47760SOL     OW45176   2.961   0.885   8.180
47760SOL    HW145177   2.962   0.962   8.237
47760SOL    HW245178   2.872   0.851   8.188
47761SOL     OW45179   2.296   0.331  14.073
47761SOL    HW145180   2.288   0.377  13.989
47761SOL    HW245181   2.212   0.286  14.084
47762SOL     OW45182   7.653   0.871   9.229
47762SOL    HW145183   7.579   0.811   9.240
47762SOL    HW245184   7.711   0.851   9.302
47763SOL     OW45185  14.208  14.591   8.595
47763SOL    HW145186  14.154  14.512   8.588
47763SOL    HW245187  14.233  14.594   8.687
47764SOL     OW45188  11.019   1.305   9.345
47764SOL    HW145189  11.037   1.282   9.436
47764SOL    HW245190  10.937   1.260   9.324
47765SOL     OW45191   7.650   2.907  10.352
47765SOL    HW145192   7.659   2.813  10.338
47765SOL    HW245193   7.649   2.944  10.263
47766SOL     OW45194   1.445  14.449  12.031
47766SOL    HW145195   1.385  14.436  11.958
47766SOL    HW245196   1.403  14.515  12.086
47767SOL     OW45197  10.054   2.260   9.340
47767SOL    HW145198  10.016   2.332   9.290
47767SOL    HW245199   9.988   2.191   9.337
47768SOL     OW45200  12.397  11.842   2.777
47768SOL    HW145201  12.388  11.912   2.841
47768SOL    HW245202  12.330  11.778   2.801
47769SOL     OW45203  11.743  11.411  14.528
47769SOL    HW145204  11.677  11.348  14.499
47769SOL    HW245205  11.779  11.447  14.447
47770SOL     OW45206   6.054   2.665   3.029
47770SOL    HW145207   6.131   2.721   3.032
47770SOL    HW245208   6.086   2.578   3.051
47771SOL     OW45209   3.841   7.092   9.015
47771SOL    HW145210   3.790   7.114   8.937
47771SOL    HW245211   3.790   7.129   9.087
47772SOL     OW45212  14.475   4.697  11.270
47772SOL    HW145213  14.557   4.674  11.315
47772SOL    HW245214  14.420   4.733  11.340
47773SOL     OW45215  12.476   2.863  12.324
47773SOL    HW145216  12.412   2.852  12.253
47773SOL    HW245217  12.482   2.957  12.337
47774SOL     OW45218   1.329   1.250  14.635
47774SOL    HW145219   1.260   1.215  14.692
47774SOL    HW245220   1.395   1.285  14.696
47775SOL     OW45221   0.577  13.193   3.705
47775SOL    HW145222   0.670  13.177   3.686
47775SOL    HW245223   0.530  13.137   3.643
47776SOL     OW45224   8.727   5.470  11.235
47776SOL    HW145225   8.781   5.489  11.158
47776SOL    HW245226   8.668   5.545  11.241
47777SOL     OW45227  14.694  11.586   9.055
47777SOL    HW145228  14.619  11.598   9.114
47777SOL    HW245229  14.716  11.675   9.025
47778SOL     OW45230   4.203   5.243   3.463
47778SOL    HW145231   4.225   5.335   3.482
47778SOL    HW245232   4.153   5.214   3.540
47779SOL     OW45233  12.735  14.393   3.300
47779SOL    HW145234  12.816  14.397   3.350
47779SOL    HW245235  12.696  14.480   3.311
47780SOL     OW45236  10.441  12.681   3.732
47780SOL    HW145237  10.513  12.687   3.794
47780SOL    HW245238  10.362  12.675   3.786
47781SOL     OW45239  12.196   7.933   9.247
47781SOL    HW145240  12.178   7.842   9.225
47781SOL    HW245241  12.214   7.932   9.341
47782SOL     OW45242   3.987  12.420  11.573
47782SOL    HW145243   3.947  12.476  11.640
47782SOL    HW245244   4.076  12.403  11.605
47783SOL     OW45245   4.693  13.565   1.359
47783SOL    HW145246   4.746  13.509   1.417
47783SOL    HW245247   4.731  13.652   1.368
47784SOL     OW45248   0.270   8.765  13.843
47784SOL    HW145249   0.187   8.794  13.881
47784SOL    HW245250   0.319   8.847  13.828
47785SOL     OW45251   0.046  12.841  11.945
47785SOL    HW145252  14.855  12.775  11.956
47785SOL    HW245253   0.106  12.802  11.881
47786SOL     OW45254   6.159   4.277  13.512
47786SOL    HW145255   6.101   4.323  13.451
47786SOL    HW245256   6.112   4.196  13.532
47787SOL     OW45257   1.594   9.679   1.321
47787SOL    HW145258   1.613   9.646   1.233
47787SOL    HW245259   1.677   9.669   1.368
47788SOL     OW45260   6.243   8.842  11.402
47788SOL    HW145261   6.316   8.875  11.455
47788SOL    HW245262   6.263   8.749  11.391
47789SOL     OW45263   8.652  10.542   3.206
47789SOL    HW145264   8.657  10.454   3.242
47789SOL    HW245265   8.703  10.596   3.266
47790SOL     OW45266  12.411  14.149   0.390
47790SOL    HW145267  12.408  14.194   0.474
47790SOL    HW245268  12.376  14.211   0.327
47791SOL     OW45269   2.906   3.816  10.754
47791SOL    HW145270   2.982   3.865  10.724
47791SOL    HW245271   2.887   3.756  10.682
47792SOL     OW45272  11.543  12.124   6.203
47792SOL    HW145273  11.525  12.174   6.283
47792SOL    HW245274  11.523  12.033   6.228
47793SOL     OW45275   9.995  14.148   2.376
47793SOL    HW145276   9.923  14.210   2.366
47793SOL    HW245277  10.031  14.140   2.288
47794SOL     OW45278   9.607   0.612   2.045
47794SOL    HW145279   9.618   0.703   2.072
47794SOL    HW245280   9.527   0.583   2.088
47795SOL     OW45281   4.920  13.639   3.554
47795SOL    HW145282   4.942  13.683   3.636
47795SOL    HW245283   4.927  13.708   3.488
47796SOL     OW45284  13.284   9.426  13.844
47796SOL    HW145285  13.302   9.517  13.870
47796SOL    HW245286  13.279   9.378  13.927
47797SOL     OW45287   8.659  14.558   4.717
47797SOL    HW145288   8.742  14.594   4.685
47797SOL    HW245289   8.600  14.633   4.720
47798SOL     OW45290   3.662  11.644  11.876
47798SOL    HW145291   3.749  11.636  11.916
47798SOL    HW245292   3.642  11.556  11.844
47799SOL     OW45293   6.471   8.682  12.908
47799SOL    HW145294   6.526   8.653  12.980
47799SOL    HW245295   6.449   8.601  12.861
47800SOL     OW45296  10.987   2.711  13.543
47800SOL    HW145297  10.927   2.729  13.616
47800SOL    HW245298  11.034   2.794  13.531
47801SOL     OW45299  13.550   7.010  14.789
47801SOL    HW145300  13.586   7.003  14.877
47801SOL    HW245301  13.457   7.026  14.802
47802SOL     OW45302  14.126   2.006   6.772
47802SOL    HW145303  14.047   1.952   6.778
47802SOL    HW245304  14.141   2.036   6.861
47803SOL     OW45305  13.902  12.158   2.723
47803SOL    HW145306  13.935  12.197   2.642
47803SOL    HW245307  13.890  12.233   2.782
47804SOL     OW45308  13.071   9.809   4.980
47804SOL    HW145309  13.046   9.753   4.907
47804SOL    HW245310  13.165   9.795   4.991
47805SOL     OW45311  12.685   4.182  14.032
47805SOL    HW145312  12.686   4.272  14.065
47805SOL    HW245313  12.694   4.128  14.111
47806SOL     OW45314   0.724  12.122   4.674
47806SOL    HW145315   0.727  12.146   4.767
47806SOL    HW245316   0.687  12.199   4.631
47807SOL     OW45317  11.073   8.473   6.930
47807SOL    HW145318  10.992   8.500   6.887
47807SOL    HW245319  11.132   8.453   6.858
47808SOL     OW45320  12.701   1.495  11.925
47808SOL    HW145321  12.678   1.439  11.999
47808SOL    HW245322  12.676   1.583  11.953
47809SOL     OW45323  13.425   0.080  12.938
47809SOL    HW145324  13.511   0.060  12.976
47809SOL    HW245325  13.445   0.134  12.861
47810SOL     OW45326   1.923   9.062   3.396
47810SOL    HW145327   1.986   9.090   3.330
47810SOL    HW245328   1.903   9.141   3.445
47811SOL     OW45329   6.469  13.561  12.051
47811SOL    HW145330   6.483  13.631  12.114
47811SOL    HW245331   6.377  13.535  12.062
47812SOL     OW45332   1.377  13.617  12.170
47812SOL    HW145333   1.349  13.631  12.080
47812SOL    HW245334   1.383  13.705  12.207
47813SOL     OW45335   7.509  13.827   6.407
47813SOL    HW145336   7.454  13.806   6.331
47813SOL    HW245337   7.459  13.796   6.482
47814SOL     OW45338   4.504  12.703   9.791
47814SOL    HW145339   4.519  12.721   9.884
47814SOL    HW245340   4.553  12.771   9.745
47815SOL     OW45341   8.810   0.210  13.115
47815SOL    HW145342   8.785   0.127  13.155
47815SOL    HW245343   8.902   0.198  13.090
47816SOL     OW45344  12.089   6.430  12.156
47816SOL    HW145345  12.150   6.363  12.123
47816SOL    HW245346  12.077   6.408  12.248
47817SOL     OW45347  11.514   7.012  12.003
47817SOL    HW145348  11.421   6.995  12.019
47817SOL    HW245349  11.531   7.095  12.046
47818SOL     OW45350   1.647   4.345   7.240
47818SOL    HW145351   1.591   4.274   7.272
47818SOL    HW245352   1.596   4.425   7.258
47819SOL     OW45353   7.586   5.222  12.641
47819SOL    HW145354   7.530   5.167  12.585
47819SOL    HW245355   7.535   5.303  12.652
47820SOL     OW45356   9.294  11.071  11.951
47820SOL    HW145357   9.200  11.077  11.964
47820SOL    HW245358   9.305  11.060  11.856
47821SOL     OW45359   7.707   1.448  12.302
47821SOL    HW145360   7.778   1.472  12.242
47821SOL    HW245361   7.638   1.511  12.284
47822SOL     OW45362   7.716  13.671  10.731
47822SOL    HW145363   7.763  13.654  10.812
47822SOL    HW245364   7.648  13.603  10.727
47823SOL     OW45365   8.771  10.164  10.719
47823SOL    HW145366   8.708  10.109  10.766
47823SOL    HW245367   8.842  10.178  10.782
47824SOL     OW45368   8.277   7.770   5.647
47824SOL    HW145369   8.264   7.729   5.561
47824SOL    HW245370   8.367   7.748   5.670
47825SOL     OW45371  14.855  11.721   9.592
47825SOL    HW145372  14.825  11.758   9.509
47825SOL    HW245373   0.070  11.747   9.598
47826SOL     OW45374  12.686   4.742  13.030
47826SOL    HW145375  12.653   4.683  12.961
47826SOL    HW245376  12.654   4.829  13.005
47827SOL     OW45377   2.632   3.409   6.512
47827SOL    HW145378   2.681   3.328   6.527
47827SOL    HW245379   2.543   3.379   6.490
47828SOL     OW45380   4.565  12.268   7.899
47828SOL    HW145381   4.575  12.175   7.919
47828SOL    HW245382   4.652  12.306   7.915
47829SOL     OW45383   9.364  14.850  10.298
47829SOL    HW145384   9.400  14.778  10.248
47829SOL    HW245385   9.315   0.024  10.234
47830SOL     OW45386  11.770  11.090  11.135
47830SOL    HW145387  11.831  11.153  11.173
47830SOL    HW245388  11.818  11.007  11.137
47831SOL     OW45389   6.187   6.003   0.894
47831SOL    HW145390   6.132   5.930   0.866
47831SOL    HW245391   6.136   6.081   0.875
47832SOL     OW45392   6.957  13.906   2.716
47832SOL    HW145393   7.025  13.940   2.659
47832SOL    HW245394   6.967  13.811   2.712
47833SOL     OW45395  13.482   0.573  12.695
47833SOL    HW145396  13.572   0.603  12.701
47833SOL    HW245397  13.469   0.552  12.602
47834SOL     OW45398   0.560  13.361  10.778
47834SOL    HW145399   0.599  13.302  10.713
47834SOL    HW245400   0.548  13.306  10.855
47835SOL     OW45401   9.182   2.660   6.991
47835SOL    HW145402   9.250   2.625   7.049
47835SOL    HW245403   9.153   2.741   7.034
47836SOL     OW45404  11.055   0.645   9.031
47836SOL    HW145405  10.959   0.652   9.033
47836SOL    HW245406  11.081   0.693   8.952
47837SOL     OW45407  14.818   7.270  14.582
47837SOL    HW145408  14.841   7.232  14.498
47837SOL    HW245409  14.814   7.364  14.566
47838SOL     OW45410   4.900   2.544   1.769
47838SOL    HW145411   4.891   2.464   1.716
47838SOL    HW245412   4.933   2.514   1.853
47839SOL     OW45413   3.879  12.745   5.752
47839SOL    HW145414   3.958  12.695   5.769
47839SOL    HW245415   3.829  12.740   5.834
47840SOL     OW45416   6.044   0.164   0.845
47840SOL    HW145417   5.992   0.157   0.765
47840SOL    HW245418   6.020   0.087   0.897
47841SOL     OW45419   4.621   5.818   3.994
47841SOL    HW145420   4.700   5.809   3.941
47841SOL    HW245421   4.646   5.785   4.080
47842SOL     OW45422   8.095   9.438   4.758
47842SOL    HW145423   8.152   9.399   4.824
47842SOL    HW245424   8.013   9.455   4.804
47843SOL     OW45425   0.261   1.827   2.899
47843SOL    HW145426   0.289   1.767   2.830
47843SOL    HW245427   0.167   1.812   2.908
47844SOL     OW45428   4.168   4.498   2.016
47844SOL    HW145429   4.192   4.502   1.924
47844SOL    HW245430   4.084   4.452   2.018
47845SOL     OW45431  14.282   6.638  11.322
47845SOL    HW145432  14.322   6.691  11.391
47845SOL    HW245433  14.350   6.634  11.254
47846SOL     OW45434   1.774   2.270   8.756
47846SOL    HW145435   1.790   2.341   8.693
47846SOL    HW245436   1.715   2.210   8.711
47847SOL     OW45437   7.422   3.288   0.675
47847SOL    HW145438   7.370   3.281   0.594
47847SOL    HW245439   7.363   3.333   0.736
47848SOL     OW45440   4.804  12.612  12.857
47848SOL    HW145441   4.752  12.688  12.882
47848SOL    HW245442   4.861  12.596  12.933
47849SOL     OW45443   3.775   9.784   4.008
47849SOL    HW145444   3.707   9.850   4.026
47849SOL    HW245445   3.728   9.712   3.966
47850SOL     OW45446   4.217   6.679   0.333
47850SOL    HW145447   4.254   6.609   0.279
47850SOL    HW245448   4.128   6.691   0.299
47851SOL     OW45449   4.679   3.723  12.927
47851SOL    HW145450   4.655   3.654  12.988
47851SOL    HW245451   4.709   3.795  12.982
47852SOL     OW45452   3.890  12.784   4.848
47852SOL    HW145453   3.870  12.854   4.910
47852SOL    HW245454   3.962  12.820   4.795
47853SOL     OW45455   5.499   3.784  10.034
47853SOL    HW145456   5.420   3.830  10.005
47853SOL    HW245457   5.562   3.797   9.962
47854SOL     OW45458   0.849   6.515  12.499
47854SOL    HW145459   0.896   6.438  12.530
47854SOL    HW245460   0.863   6.581  12.566
47855SOL     OW45461  10.802  13.228   9.571
47855SOL    HW145462  10.787  13.282   9.494
47855SOL    HW245463  10.751  13.270   9.640
47856SOL     OW45464   9.283   9.460   1.977
47856SOL    HW145465   9.265   9.410   2.056
47856SOL    HW245466   9.212   9.438   1.917
47857SOL     OW45467  10.959   9.136   3.363
47857SOL    HW145468  10.894   9.164   3.429
47857SOL    HW245469  11.043   9.152   3.405
47858SOL     OW45470  14.441  10.881  12.691
47858SOL    HW145471  14.361  10.846  12.731
47858SOL    HW245472  14.418  10.971  12.667
47859SOL     OW45473   7.400   5.533  10.380
47859SOL    HW145474   7.307   5.555  10.366
47859SOL    HW245475   7.444   5.566  10.301
47860SOL     OW45476   1.820  10.424  10.200
47860SOL    HW145477   1.785  10.497  10.149
47860SOL    HW245478   1.743  10.381  10.237
47861SOL     OW45479   5.673   8.374   3.336
47861SOL    HW145480   5.737   8.409   3.399
47861SOL    HW245481   5.712   8.392   3.250
47862SOL     OW45482   7.481   5.403   3.225
47862SOL    HW145483   7.536   5.383   3.301
47862SOL    HW245484   7.416   5.332   3.223
47863SOL     OW45485  13.563   3.461  13.177
47863SOL    HW145486  13.657   3.477  13.182
47863SOL    HW245487  13.539   3.430  13.265
47864SOL     OW45488   9.019   6.947   2.360
47864SOL    HW145489   9.012   6.917   2.269
47864SOL    HW245490   8.929   6.957   2.389
47865SOL     OW45491   7.806  11.851   0.276
47865SOL    HW145492   7.853  11.934   0.280
47865SOL    HW245493   7.853  11.794   0.336
47866SOL     OW45494  12.545  12.101   7.931
47866SOL    HW145495  12.554  12.126   8.023
47866SOL    HW245496  12.631  12.117   7.892
47867SOL     OW45497   2.745   3.704   5.054
47867SOL    HW145498   2.760   3.739   5.142
47867SOL    HW245499   2.680   3.635   5.067
47868SOL     OW45500  14.208   1.778   7.197
47868SOL    HW145501  14.132   1.830   7.223
47868SOL    HW245502  14.171   1.708   7.144
47869SOL     OW45503  14.375   5.539   6.894
47869SOL    HW145504  14.398   5.497   6.812
47869SOL    HW245505  14.405   5.629   6.884
47870SOL     OW45506   6.030  11.711   0.252
47870SOL    HW145507   6.071  11.641   0.202
47870SOL    HW245508   6.030  11.787   0.194
47871SOL     OW45509   7.460  13.190   2.588
47871SOL    HW145510   7.536  13.174   2.644
47871SOL    HW245511   7.452  13.285   2.584
47872SOL     OW45512   9.778   9.868   5.317
47872SOL    HW145513   9.851   9.927   5.296
47872SOL    HW245514   9.714   9.883   5.248
47873SOL     OW45515   6.616  12.837   4.750
47873SOL    HW145516   6.625  12.910   4.813
47873SOL    HW245517   6.528  12.803   4.766
47874SOL     OW45518  14.685  10.984  12.550
47874SOL    HW145519  14.623  10.911  12.538
47874SOL    HW245520  14.707  10.982  12.643
47875SOL     OW45521  11.635  10.265  13.449
47875SOL    HW145522  11.598  10.267  13.361
47875SOL    HW245523  11.559  10.260  13.507
47876SOL     OW45524   2.599   2.544   5.265
47876SOL    HW145525   2.659   2.471   5.250
47876SOL    HW245526   2.598   2.591   5.181
47877SOL     OW45527   0.676   4.123  10.128
47877SOL    HW145528   0.591   4.083  10.145
47877SOL    HW245529   0.732   4.050  10.102
47878SOL     OW45530  10.932   4.179  10.020
47878SOL    HW145531  10.880   4.177   9.940
47878SOL    HW245532  10.887   4.240  10.078
47879SOL     OW45533   4.941   8.292   6.926
47879SOL    HW145534   4.934   8.383   6.897
47879SOL    HW245535   4.949   8.298   7.022
47880SOL     OW45536  14.153   1.993   7.349
47880SOL    HW145537  14.243   2.024   7.357
47880SOL    HW245538  14.147   1.918   7.407
47881SOL     OW45539  11.451  12.936  10.451
47881SOL    HW145540  11.479  13.012  10.399
47881SOL    HW245541  11.488  12.861  10.404
47882SOL     OW45542   9.097   1.477   9.113
47882SOL    HW145543   9.106   1.451   9.205
47882SOL    HW245544   9.145   1.559   9.107
47883SOL     OW45545   2.541   8.329  11.987
47883SOL    HW145546   2.464   8.273  11.977
47883SOL    HW245547   2.592   8.315  11.908
47884SOL     OW45548  10.615  14.757  10.064
47884SOL    HW145549  10.577  14.684  10.016
47884SOL    HW245550  10.703  14.766  10.027
47885SOL     OW45551   8.103   2.976   0.283
47885SOL    HW145552   8.113   3.066   0.251
47885SOL    HW245553   8.039   2.937   0.223
47886SOL     OW45554   5.417  14.140  11.859
47886SOL    HW145555   5.382  14.081  11.925
47886SOL    HW245556   5.429  14.223  11.905
47887SOL     OW45557   5.698  12.988   8.533
47887SOL    HW145558   5.658  13.027   8.612
47887SOL    HW245559   5.791  13.006   8.542
47888SOL     OW45560  13.433  13.497   8.831
47888SOL    HW145561  13.363  13.557   8.854
47888SOL    HW245562  13.389  13.421   8.793
47889SOL     OW45563   5.486   8.662   6.801
47889SOL    HW145564   5.513   8.610   6.877
47889SOL    HW245565   5.459   8.746   6.839
47890SOL     OW45566  14.205   1.644   0.069
47890SOL    HW145567  14.254   1.590   0.007
47890SOL    HW245568  14.263   1.717   0.088
47891SOL     OW45569   2.888   2.700  14.858
47891SOL    HW145570   2.875   2.611   0.013
47891SOL    HW245571   2.937   2.689  14.776
47892SOL     OW45572   6.933   4.005  11.405
47892SOL    HW145573   6.948   4.043  11.318
47892SOL    HW245574   6.901   4.078  11.458
47893SOL     OW45575  13.923   5.226   7.257
47893SOL    HW145576  13.941   5.221   7.350
47893SOL    HW245577  13.904   5.319   7.242
47894SOL     OW45578   4.300   8.482  14.603
47894SOL    HW145579   4.284   8.388  14.612
47894SOL    HW245580   4.326   8.510  14.691
47895SOL     OW45581  12.577   7.537   8.725
47895SOL    HW145582  12.573   7.586   8.807
47895SOL    HW245583  12.607   7.601   8.661
47896SOL     OW45584  14.677  10.408   3.422
47896SOL    HW145585  14.752  10.453   3.384
47896SOL    HW245586  14.681  10.429   3.515
47897SOL     OW45587  13.375   7.189   3.443
47897SOL    HW145588  13.443   7.184   3.376
47897SOL    HW245589  13.417   7.158   3.523
47898SOL     OW45590   2.166   0.964  12.162
47898SOL    HW145591   2.161   1.024  12.236
47898SOL    HW245592   2.257   0.935  12.160
47899SOL     OW45593   8.776   4.391  13.283
47899SOL    HW145594   8.837   4.344  13.340
47899SOL    HW245595   8.811   4.376  13.195
47900SOL     OW45596   8.342  12.277   6.800
47900SOL    HW145597   8.310  12.194   6.834
47900SOL    HW245598   8.270  12.312   6.749
47901SOL     OW45599   9.562   2.291   8.895
47901SOL    HW145600   9.469   2.283   8.914
47901SOL    HW245601   9.566   2.352   8.821
47902SOL     OW45602   7.257   5.911  14.315
47902SOL    HW145603   7.304   5.851  14.372
47902SOL    HW245604   7.281   5.884  14.226
47903SOL     OW45605   0.323   7.580   9.588
47903SOL    HW145606   0.243   7.589   9.536
47903SOL    HW245607   0.293   7.580   9.678
47904SOL     OW45608   3.025  10.591   0.379
47904SOL    HW145609   3.038  10.552   0.465
47904SOL    HW245610   2.940  10.556   0.350
47905SOL     OW45611   9.743   2.375  13.553
47905SOL    HW145612   9.654   2.408  13.544
47905SOL    HW245613   9.741   2.321  13.633
47906SOL     OW45614   8.374   8.537   8.051
47906SOL    HW145615   8.418   8.609   8.097
47906SOL    HW245616   8.300   8.515   8.107
47907SOL     OW45617  12.252   9.261  12.524
47907SOL    HW145618  12.252   9.265  12.620
47907SOL    HW245619  12.236   9.351  12.496
47908SOL     OW45620   5.596  12.007  11.900
47908SOL    HW145621   5.655  12.044  11.834
47908SOL    HW245622   5.547  12.083  11.933
47909SOL     OW45623   1.382  10.983  11.600
47909SOL    HW145624   1.467  10.942  11.585
47909SOL    HW245625   1.402  11.071  11.631
47910SOL     OW45626   4.899  14.355  12.076
47910SOL    HW145627   4.806  14.372  12.090
47910SOL    HW245628   4.904  14.316  11.989
47911SOL     OW45629   3.629  12.792  12.444
47911SOL    HW145630   3.566  12.724  12.420
47911SOL    HW245631   3.614  12.862  12.381
47912SOL     OW45632   1.238   9.332   8.609
47912SOL    HW145633   1.214   9.406   8.553
47912SOL    HW245634   1.272   9.266   8.549
47913SOL     OW45635  14.149  11.290  14.002
47913SOL    HW145636  14.196  11.283  13.919
47913SOL    HW245637  14.189  11.222  14.057
47914SOL     OW45638   1.164   4.691   3.668
47914SOL    HW145639   1.184   4.676   3.576
47914SOL    HW245640   1.241   4.735   3.703
47915SOL     OW45641   8.112   6.290  11.394
47915SOL    HW145642   8.133   6.305  11.302
47915SOL    HW245643   8.017   6.279  11.395
47916SOL     OW45644   0.292  11.315  13.483
47916SOL    HW145645   0.352  11.283  13.550
47916SOL    HW245646   0.339  11.301  13.401
47917SOL     OW45647  11.128   2.204   2.835
47917SOL    HW145648  11.098   2.247   2.915
47917SOL    HW245649  11.103   2.265   2.765
47918SOL     OW45650  10.803  12.607   2.434
47918SOL    HW145651  10.786  12.670   2.504
47918SOL    HW245652  10.856  12.656   2.370
47919SOL     OW45653   9.563   1.433   5.005
47919SOL    HW145654   9.535   1.521   5.032
47919SOL    HW245655   9.605   1.447   4.920
47920SOL     OW45656   5.479  11.400  10.274
47920SOL    HW145657   5.387  11.396  10.247
47920SOL    HW245658   5.504  11.309  10.289
47921SOL     OW45659   5.388   7.569  10.730
47921SOL    HW145660   5.447   7.580  10.804
47921SOL    HW245661   5.301   7.562  10.769
47922SOL     OW45662   3.338   2.943   9.518
47922SOL    HW145663   3.339   2.854   9.552
47922SOL    HW245664   3.422   2.979   9.545
47923SOL     OW45665  14.467  14.322   1.190
47923SOL    HW145666  14.511  14.407   1.188
47923SOL    HW245667  14.481  14.289   1.279
47924SOL     OW45668  14.661   9.347  13.478
47924SOL    HW145669  14.754   9.339  13.497
47924SOL    HW245670  14.646   9.287  13.405
47925SOL     OW45671   1.755   5.285   4.867
47925SOL    HW145672   1.779   5.271   4.958
47925SOL    HW245673   1.827   5.338   4.831
47926SOL     OW45674  14.025  13.191  14.064
47926SOL    HW145675  13.984  13.105  14.073
47926SOL    HW245676  13.988  13.227  13.983
47927SOL     OW45677  11.598   6.189  13.277
47927SOL    HW145678  11.655   6.149  13.344
47927SOL    HW245679  11.627   6.280  13.272
47928SOL     OW45680  10.183  10.551  14.257
47928SOL    HW145681  10.166  10.618  14.324
47928SOL    HW245682  10.107  10.493  14.261
47929SOL     OW45683  13.995  11.395   8.868
47929SOL    HW145684  14.039  11.324   8.821
47929SOL    HW245685  13.980  11.462   8.802
47930SOL     OW45686   8.242  14.030   3.872
47930SOL    HW145687   8.307  14.100   3.886
47930SOL    HW245688   8.277  13.980   3.799
47931SOL     OW45689   9.106   6.580   5.842
47931SOL    HW145690   9.159   6.566   5.764
47931SOL    HW245691   9.129   6.668   5.872
47932SOL     OW45692   9.932  11.695  11.431
47932SOL    HW145693   9.916  11.602  11.413
47932SOL    HW245694  10.027  11.705  11.425
47933SOL     OW45695   9.538   2.781   4.016
47933SOL    HW145696   9.458   2.736   3.990
47933SOL    HW245697   9.509   2.851   4.074
47934SOL     OW45698   7.141   7.577   1.376
47934SOL    HW145699   7.209   7.637   1.407
47934SOL    HW245700   7.136   7.510   1.444
47935SOL     OW45701  10.808  14.367   2.316
47935SOL    HW145702  10.775  14.457   2.305
47935SOL    HW245703  10.762  14.334   2.392
47936SOL     OW45704  13.316   4.891   3.405
47936SOL    HW145705  13.390   4.845   3.445
47936SOL    HW245706  13.304   4.848   3.320
47937SOL     OW45707   1.029   4.057   2.250
47937SOL    HW145708   0.957   4.014   2.203
47937SOL    HW245709   1.018   4.029   2.341
47938SOL     OW45710   6.450   8.937   3.728
47938SOL    HW145711   6.383   8.931   3.796
47938SOL    HW245712   6.532   8.951   3.776
47939SOL     OW45713  14.273   7.692   8.055
47939SOL    HW145714  14.335   7.763   8.068
47939SOL    HW245715  14.285   7.665   7.963
47940SOL     OW45716   1.750   4.488  13.678
47940SOL    HW145717   1.693   4.517  13.749
47940SOL    HW245718   1.775   4.398  13.702
47941SOL     OW45719   6.878  10.433   9.766
47941SOL    HW145720   6.857  10.501   9.831
47941SOL    HW245721   6.974  10.429   9.767
47942SOL     OW45722   2.614   7.177   3.850
47942SOL    HW145723   2.620   7.256   3.903
47942SOL    HW245724   2.673   7.115   3.893
47943SOL     OW45725   5.773   2.723  13.359
47943SOL    HW145726   5.768   2.818  13.368
47943SOL    HW245727   5.796   2.708  13.267
47944SOL     OW45728   5.245  12.160   3.196
47944SOL    HW145729   5.266  12.067   3.205
47944SOL    HW245730   5.171  12.174   3.254
47945SOL     OW45731   6.618  11.688  11.818
47945SOL    HW145732   6.547  11.680  11.754
47945SOL    HW245733   6.635  11.598  11.846
47946SOL     OW45734   1.143   0.927   9.356
47946SOL    HW145735   1.068   0.975   9.321
47946SOL    HW245736   1.135   0.839   9.318
47947SOL     OW45737   4.935   9.919   7.426
47947SOL    HW145738   4.977   9.940   7.509
47947SOL    HW245739   4.865   9.983   7.417
47948SOL     OW45740   1.635  14.088   6.969
47948SOL    HW145741   1.678  14.133   6.896
47948SOL    HW245742   1.591  14.014   6.928
47949SOL     OW45743  10.725   5.599   1.780
47949SOL    HW145744  10.767   5.561   1.703
47949SOL    HW245745  10.748   5.692   1.775
47950SOL     OW45746  14.282   0.224   7.377
47950SOL    HW145747  14.232   0.243   7.298
47950SOL    HW245748  14.250   0.139   7.406
47951SOL     OW45749  13.989   5.081  11.643
47951SOL    HW145750  13.953   5.069  11.731
47951SOL    HW245751  14.064   5.020  11.639
47952SOL     OW45752   7.935   3.219   5.832
47952SOL    HW145753   7.843   3.196   5.848
47952SOL    HW245754   7.939   3.240   5.739
47953SOL     OW45755  13.419  14.729   6.102
47953SOL    HW145756  13.397  14.738   6.195
47953SOL    HW245757  13.513  14.742   6.098
47954SOL     OW45758   9.655  13.645   2.128
47954SOL    HW145759   9.699  13.707   2.070
47954SOL    HW245760   9.563  13.649   2.102
47955SOL     OW45761   5.991   2.367   7.373
47955SOL    HW145762   5.979   2.462   7.380
47955SOL    HW245763   6.086   2.356   7.368
47956SOL     OW45764  13.589   4.193  11.577
47956SOL    HW145765  13.608   4.204  11.484
47956SOL    HW245766  13.665   4.231  11.621
47957SOL     OW45767  13.452  10.533   0.540
47957SOL    HW145768  13.431  10.449   0.500
47957SOL    HW245769  13.491  10.511   0.625
47958SOL     OW45770   3.792   2.686   4.839
47958SOL    HW145771   3.875   2.676   4.792
47958SOL    HW245772   3.809   2.649   4.925
47959SOL     OW45773   4.128  14.667  12.465
47959SOL    HW145774   4.061  14.719  12.510
47959SOL    HW245775   4.209  14.717  12.476
47960SOL     OW45776   9.806   4.154   9.566
47960SOL    HW145777   9.785   4.226   9.506
47960SOL    HW245778   9.864   4.097   9.516
47961SOL     OW45779   6.033   0.779   3.156
47961SOL    HW145780   6.041   0.705   3.217
47961SOL    HW245781   6.043   0.857   3.212
47962SOL     OW45782  10.009   4.320   7.719
47962SOL    HW145783   9.990   4.229   7.694
47962SOL    HW245784  10.077   4.313   7.786
47963SOL     OW45785  14.771   0.173   5.468
47963SOL    HW145786  14.847   0.138   5.514
47963SOL    HW245787  14.785   0.268   5.466
47964SOL     OW45788  12.707   3.439   2.310
47964SOL    HW145789  12.705   3.415   2.402
47964SOL    HW245790  12.772   3.509   2.304
47965SOL     OW45791   7.405  10.478  13.692
47965SOL    HW145792   7.474  10.423  13.653
47965SOL    HW245793   7.355  10.418  13.747
47966SOL     OW45794  10.874   0.617   4.161
47966SOL    HW145795  10.868   0.534   4.207
47966SOL    HW245796  10.925   0.597   4.082
47967SOL     OW45797   3.295  11.425   1.866
47967SOL    HW145798   3.241  11.395   1.939
47967SOL    HW245799   3.239  11.487   1.819
47968SOL     OW45800  11.037   4.288   9.555
47968SOL    HW145801  11.001   4.375   9.574
47968SOL    HW245802  10.985   4.229   9.610
47969SOL     OW45803   2.247   6.453  11.864
47969SOL    HW145804   2.308   6.459  11.790
47969SOL    HW245805   2.292   6.397  11.928
47970SOL     OW45806  13.122   1.178   8.715
47970SOL    HW145807  13.173   1.217   8.786
47970SOL    HW245808  13.116   1.085   8.739
47971SOL     OW45809  14.476   4.251  11.461
47971SOL    HW145810  14.496   4.321  11.525
47971SOL    HW245811  14.425   4.187  11.511
47972SOL     OW45812   1.570   8.342  13.930
47972SOL    HW145813   1.637   8.285  13.892
47972SOL    HW245814   1.526   8.287  13.994
47973SOL     OW45815   2.328  13.420   2.727
47973SOL    HW145816   2.387  13.357   2.769
47973SOL    HW245817   2.261  13.366   2.686
47974SOL     OW45818   4.927   3.799   1.309
47974SOL    HW145819   4.940   3.704   1.319
47974SOL    HW245820   5.015   3.835   1.309
47975SOL     OW45821   4.718  12.139   0.702
47975SOL    HW145822   4.684  12.146   0.613
47975SOL    HW245823   4.661  12.075   0.745
47976SOL     OW45824   4.354  14.827   8.398
47976SOL    HW145825   4.407   0.011   8.349
47976SOL    HW245826   4.291  14.793   8.334
47977SOL     OW45827   2.707   7.487   9.930
47977SOL    HW145828   2.705   7.392   9.917
47977SOL    HW245829   2.633   7.520   9.880
47978SOL     OW45830   4.820   4.099   8.824
47978SOL    HW145831   4.894   4.060   8.871
47978SOL    HW245832   4.860   4.156   8.759
47979SOL     OW45833  13.938   5.914   4.408
47979SOL    HW145834  13.901   5.986   4.356
47979SOL    HW245835  13.976   5.956   4.485
47980SOL     OW45836  14.753  14.261   4.434
47980SOL    HW145837  14.674  14.208   4.418
47980SOL    HW245838  14.719  14.344   4.468
47981SOL     OW45839  11.261   0.005  13.962
47981SOL    HW145840  11.230  14.853  13.877
47981SOL    HW245841  11.317  14.812  13.993
47982SOL     OW45842   4.266  14.456   4.347
47982SOL    HW145843   4.309  14.397   4.285
47982SOL    HW245844   4.301  14.431   4.432
47983SOL     OW45845   5.257   4.006   0.353
47983SOL    HW145846   5.187   3.971   0.298
47983SOL    HW245847   5.310   4.058   0.293
47984SOL     OW45848   2.052   3.855  10.553
47984SOL    HW145849   2.041   3.790  10.623
47984SOL    HW245850   2.122   3.912  10.585
47985SOL     OW45851   6.004  13.988   7.377
47985SOL    HW145852   5.990  13.963   7.468
47985SOL    HW245853   6.092  13.956   7.356
47986SOL     OW45854   4.442   8.235   6.324
47986SOL    HW145855   4.454   8.147   6.288
47986SOL    HW245856   4.523   8.252   6.372
47987SOL     OW45857   8.104  14.149   3.141
47987SOL    HW145858   8.120  14.215   3.209
47987SOL    HW245859   8.153  14.072   3.170
47988SOL     OW45860   2.630   7.856   0.455
47988SOL    HW145861   2.682   7.797   0.510
47988SOL    HW245862   2.683   7.869   0.377
47989SOL     OW45863  11.714   3.837   2.711
47989SOL    HW145864  11.661   3.832   2.632
47989SOL    HW245865  11.787   3.776   2.696
47990SOL     OW45866  12.239   5.553   6.648
47990SOL    HW145867  12.223   5.477   6.703
47990SOL    HW245868  12.175   5.618   6.676
47991SOL     OW45869   4.177  13.623   3.907
47991SOL    HW145870   4.250  13.562   3.922
47991SOL    HW245871   4.199  13.700   3.961
47992SOL     OW45872  10.315   3.413   2.931
47992SOL    HW145873  10.389   3.391   2.875
47992SOL    HW245874  10.348   3.480   2.991
47993SOL     OW45875   2.890   8.104  12.540
47993SOL    HW145876   2.931   8.062  12.615
47993SOL    HW245877   2.948   8.178  12.520
47994SOL     OW45878  12.175  12.928  13.645
47994SOL    HW145879  12.176  12.933  13.741
47994SOL    HW245880  12.250  12.872  13.624
47995SOL     OW45881   5.766   5.088  12.811
47995SOL    HW145882   5.770   5.012  12.870
47995SOL    HW245883   5.814   5.157  12.858
47996SOL     OW45884   3.013   6.690  14.177
47996SOL    HW145885   3.067   6.737  14.114
47996SOL    HW245886   3.076   6.654  14.240
47997SOL     OW45887   5.982   9.670   1.381
47997SOL    HW145888   5.960   9.642   1.293
47997SOL    HW245889   5.978   9.766   1.378
47998SOL     OW45890   3.728   6.003   2.437
47998SOL    HW145891   3.683   6.047   2.510
47998SOL    HW245892   3.680   6.031   2.359
47999SOL     OW45893   3.027   5.907  14.297
47999SOL    HW145894   3.015   5.872  14.209
47999SOL    HW245895   3.077   5.988  14.284
48000SOL     OW45896  11.167   9.389  13.904
48000SOL    HW145897  11.159   9.414  13.812
48000SOL    HW245898  11.184   9.472  13.950
48001SOL     OW45899   7.223   0.687   3.388
48001SOL    HW145900   7.178   0.766   3.418
48001SOL    HW245901   7.180   0.615   3.434
48002SOL     OW45902  13.318  12.625  12.551
48002SOL    HW145903  13.260  12.567  12.501
48002SOL    HW245904  13.320  12.588  12.639
48003SOL     OW45905  11.976   4.262   4.506
48003SOL    HW145906  11.921   4.297   4.575
48003SOL    HW245907  12.066   4.275   4.537
48004SOL     OW45908  10.666   8.230   8.921
48004SOL    HW145909  10.761   8.217   8.915
48004SOL    HW245910  10.629   8.154   8.877
48005SOL     OW45911   8.629   4.452  12.621
48005SOL    HW145912   8.603   4.376  12.568
48005SOL    HW245913   8.704   4.420  12.672
48006SOL     OW45914   2.425   9.235   4.460
48006SOL    HW145915   2.465   9.148   4.471
48006SOL    HW245916   2.384   9.231   4.374
48007SOL     OW45917   4.270  11.442  13.664
48007SOL    HW145918   4.277  11.440  13.760
48007SOL    HW245919   4.176  11.438  13.648
48008SOL     OW45920   1.285   3.050   4.656
48008SOL    HW145921   1.239   3.103   4.591
48008SOL    HW245922   1.281   2.961   4.622
48009SOL     OW45923  13.280   7.336   2.882
48009SOL    HW145924  13.216   7.324   2.952
48009SOL    HW245925  13.326   7.252   2.877
48010SOL     OW45926   8.906   1.503  13.102
48010SOL    HW145927   8.861   1.579  13.140
48010SOL    HW245928   8.977   1.484  13.163
48011SOL     OW45929  12.729   6.155  10.123
48011SOL    HW145930  12.694   6.237  10.088
48011SOL    HW245931  12.655   6.095  10.121
48012SOL     OW45932   2.643   3.900   9.694
48012SOL    HW145933   2.578   3.950   9.743
48012SOL    HW245934   2.689   3.965   9.642
48013SOL     OW45935  14.852  11.620  10.758
48013SOL    HW145936   0.014  11.705  10.779
48013SOL    HW245937  14.764  11.642  10.726
48014SOL     OW45938   5.735   2.949  14.481
48014SOL    HW145939   5.731   3.028  14.427
48014SOL    HW245940   5.653   2.948  14.530
48015SOL     OW45941   6.848  12.908   4.046
48015SOL    HW145942   6.807  12.846   3.987
48015SOL    HW245943   6.779  12.931   4.108
48016SOL     OW45944   0.288   7.729   4.324
48016SOL    HW145945   0.266   7.779   4.403
48016SOL    HW245946   0.209   7.733   4.270
48017SOL     OW45947   4.788  10.218   3.188
48017SOL    HW145948   4.883  10.218   3.177
48017SOL    HW245949   4.772  10.171   3.269
48018SOL     OW45950   8.180   7.975   2.920
48018SOL    HW145951   8.158   7.925   2.998
48018SOL    HW245952   8.220   8.056   2.953
48019SOL     OW45953  10.974  10.315   0.639
48019SOL    HW145954  10.933  10.301   0.553
48019SOL    HW245955  10.900  10.322   0.700
48020SOL     OW45956  12.492   5.506  10.326
48020SOL    HW145957  12.416   5.535  10.377
48020SOL    HW245958  12.474   5.538  10.237
48021SOL     OW45959  10.562   2.089  11.438
48021SOL    HW145960  10.610   2.047  11.509
48021SOL    HW245961  10.471   2.065  11.452
48022SOL     OW45962  10.947  12.583   0.861
48022SOL    HW145963  10.932  12.666   0.814
48022SOL    HW245964  10.873  12.528   0.836
48023SOL     OW45965  12.962  13.253   9.788
48023SOL    HW145966  12.871  13.250   9.757
48023SOL    HW245967  12.975  13.169   9.833
48024SOL     OW45968   1.066   2.332   4.553
48024SOL    HW145969   1.162   2.327   4.554
48024SOL    HW245970   1.038   2.254   4.601
48025SOL     OW45971  13.752   8.208   7.460
48025SOL    HW145972  13.657   8.204   7.445
48025SOL    HW245973  13.760   8.222   7.555
48026SOL     OW45974   3.819   6.873   8.617
48026SOL    HW145975   3.793   6.964   8.632
48026SOL    HW245976   3.831   6.837   8.704
48027SOL     OW45977   6.934  11.232  13.312
48027SOL    HW145978   6.864  11.168  13.302
48027SOL    HW245979   7.000  11.189  13.367
48028SOL     OW45980   2.227  10.719   7.147
48028SOL    HW145981   2.179  10.783   7.095
48028SOL    HW245982   2.179  10.637   7.138
48029SOL     OW45983  14.532   4.149   7.697
48029SOL    HW145984  14.515   4.075   7.639
48029SOL    HW245985  14.466   4.214   7.673
48030SOL     OW45986   6.541  11.312  14.198
48030SOL    HW145987   6.575  11.224  14.209
48030SOL    HW245988   6.459  11.300  14.149
48031SOL     OW45989   3.574   7.370   1.694
48031SOL    HW145990   3.563   7.281   1.660
48031SOL    HW245991   3.633   7.359   1.769
48032SOL     OW45992  13.938   0.534   1.412
48032SOL    HW145993  13.908   0.458   1.362
48032SOL    HW245994  14.015   0.503   1.459
48033SOL     OW45995  13.303  10.046   7.305
48033SOL    HW145996  13.354   9.987   7.361
48033SOL    HW245997  13.242  10.089   7.365
48034SOL     OW45998   8.600   5.610  13.788
48034SOL    HW145999   8.610   5.629  13.695
48034SOL    HW246000   8.578   5.517  13.791
48035SOL     OW46001   4.098   1.977   0.564
48035SOL    HW146002   4.069   2.068   0.576
48035SOL    HW246003   4.152   1.959   0.641
48036SOL     OW46004   2.667  14.651  10.330
48036SOL    HW146005   2.743  14.675  10.382
48036SOL    HW246006   2.672  14.555  10.324
48037SOL     OW46007   2.680   2.715   0.504
48037SOL    HW146008   2.712   2.768   0.431
48037SOL    HW246009   2.585   2.715   0.494
48038SOL     OW46010  10.329   0.216   0.210
48038SOL    HW146011  10.345   0.285   0.273
48038SOL    HW246012  10.413   0.172   0.200
48039SOL     OW46013  14.212  13.631   2.941
48039SOL    HW146014  14.181  13.545   2.912
48039SOL    HW246015  14.181  13.638   3.032
48040SOL     OW46016   3.432   7.291   1.419
48040SOL    HW146017   3.423   7.224   1.352
48040SOL    HW246018   3.525   7.315   1.417
48041SOL     OW46019   6.122   2.151  14.418
48041SOL    HW146020   6.062   2.095  14.467
48041SOL    HW246021   6.203   2.149  14.469
48042SOL     OW46022  14.509   5.591   1.724
48042SOL    HW146023  14.527   5.616   1.633
48042SOL    HW246024  14.578   5.528   1.746
48043SOL     OW46025  11.395   4.308  13.129
48043SOL    HW146026  11.435   4.253  13.061
48043SOL    HW246027  11.363   4.385  13.082
48044SOL     OW46028   5.868  14.384  12.197
48044SOL    HW146029   5.956  14.367  12.229
48044SOL    HW246030   5.835  14.454  12.254
48045SOL     OW46031   8.783  13.202   1.220
48045SOL    HW146032   8.743  13.276   1.266
48045SOL    HW246033   8.862  13.183   1.271
48046SOL     OW46034   0.023  11.421   9.560
48046SOL    HW146035  14.867  11.502   9.599
48046SOL    HW246036   0.091  11.450   9.500
48047SOL     OW46037   3.706  12.923   0.352
48047SOL    HW146038   3.722  12.843   0.402
48047SOL    HW246039   3.611  12.935   0.357
48048SOL     OW46040  11.353  13.398   6.507
48048SOL    HW146041  11.368  13.337   6.435
48048SOL    HW246042  11.403  13.476   6.483
48049SOL     OW46043  10.454   9.391   6.039
48049SOL    HW146044  10.543   9.397   6.074
48049SOL    HW246045  10.414   9.318   6.087
48050SOL     OW46046  13.643  12.440   3.528
48050SOL    HW146047  13.730  12.434   3.488
48050SOL    HW246048  13.590  12.486   3.463
48051SOL     OW46049   3.275   2.892   8.640
48051SOL    HW146050   3.336   2.965   8.647
48051SOL    HW246051   3.248   2.891   8.548
48052SOL     OW46052   3.548   1.085   9.692
48052SOL    HW146053   3.568   1.104   9.784
48052SOL    HW246054   3.572   0.994   9.680
48053SOL     OW46055   3.855   8.437  12.835
48053SOL    HW146056   3.832   8.449  12.927
48053SOL    HW246057   3.841   8.523  12.795
48054SOL     OW46058   7.675   1.942   1.529
48054SOL    HW146059   7.765   1.913   1.541
48054SOL    HW246060   7.666   1.955   1.435
48055SOL     OW46061   5.723   4.987  10.570
48055SOL    HW146062   5.757   4.960  10.484
48055SOL    HW246063   5.753   5.078  10.580
48056SOL     OW46064   9.122   5.926   9.326
48056SOL    HW146065   9.084   6.004   9.366
48056SOL    HW246066   9.147   5.953   9.238
48057SOL     OW46067   6.269   1.499   9.696
48057SOL    HW146068   6.173   1.490   9.699
48057SOL    HW246069   6.287   1.535   9.609
48058SOL     OW46070  11.639  13.798   8.116
48058SOL    HW146071  11.620  13.890   8.134
48058SOL    HW246072  11.726  13.799   8.076
48059SOL     OW46073   2.233   9.936   8.521
48059SOL    HW146074   2.176   9.905   8.591
48059SOL    HW246075   2.200   9.893   8.442
48060SOL     OW46076   5.904   6.385   4.078
48060SOL    HW146077   5.958   6.458   4.109
48060SOL    HW246078   5.953   6.307   4.104
48061SOL     OW46079   4.910   0.158   4.767
48061SOL    HW146080   4.921   0.243   4.724
48061SOL    HW246081   4.993   0.144   4.813
48062SOL     OW46082  14.331  11.107  14.807
48062SOL    HW146083  14.418  11.067  14.807
48062SOL    HW246084  14.313  11.124  14.715
48063SOL     OW46085   7.792   4.623   1.786
48063SOL    HW146086   7.761   4.578   1.865
48063SOL    HW246087   7.831   4.704   1.818
48064SOL     OW46088  12.878  10.204   3.413
48064SOL    HW146089  12.848  10.158   3.492
48064SOL    HW246090  12.924  10.281   3.447
48065SOL     OW46091   8.041   8.741   3.918
48065SOL    HW146092   7.981   8.667   3.906
48065SOL    HW246093   8.110   8.725   3.854
48066SOL     OW46094   8.283  14.056   6.352
48066SOL    HW146095   8.373  14.071   6.323
48066SOL    HW246096   8.258  14.136   6.396
48067SOL     OW46097  12.604   3.506   5.593
48067SOL    HW146098  12.658   3.470   5.663
48067SOL    HW246099  12.632   3.460   5.514
48068SOL     OW46100  10.335   8.010   9.311
48068SOL    HW146101  10.383   8.053   9.240
48068SOL    HW246102  10.402   7.995   9.379
48069SOL     OW46103  10.750   7.909   5.180
48069SOL    HW146104  10.721   7.933   5.092
48069SOL    HW246105  10.811   7.837   5.167
48070SOL     OW46106   3.081   2.094  14.199
48070SOL    HW146107   3.073   1.999  14.190
48070SOL    HW246108   3.079   2.127  14.109
48071SOL     OW46109   9.046   2.101  12.673
48071SOL    HW146110   8.977   2.103  12.738
48071SOL    HW246111   9.127   2.089  12.723
48072SOL     OW46112  10.088   7.793  10.901
48072SOL    HW146113  10.024   7.864  10.911
48072SOL    HW246114  10.039   7.722  10.860
48073SOL     OW46115   9.560  11.421  11.999
48073SOL    HW146116   9.615  11.363  11.946
48073SOL    HW246117   9.571  11.389  12.088
48074SOL     OW46118   3.053   6.458   3.545
48074SOL    HW146119   3.081   6.433   3.632
48074SOL    HW246120   2.961   6.432   3.540
48075SOL     OW46121   0.239   9.134  10.146
48075SOL    HW146122   0.323   9.161  10.108
48075SOL    HW246123   0.174   9.161  10.081
48076SOL     OW46124   7.781   8.966   7.469
48076SOL    HW146125   7.711   8.919   7.423
48076SOL    HW246126   7.754   8.964   7.561
48077SOL     OW46127   2.777  11.678  12.578
48077SOL    HW146128   2.741  11.693  12.491
48077SOL    HW246129   2.799  11.766  12.610
48078SOL     OW46130   0.378  13.116   0.357
48078SOL    HW146131   0.378  13.193   0.300
48078SOL    HW246132   0.367  13.042   0.297
48079SOL     OW46133   3.504   2.476  10.846
48079SOL    HW146134   3.551   2.402  10.809
48079SOL    HW246135   3.475   2.445  10.932
48080SOL     OW46136   8.689  10.084   3.478
48080SOL    HW146137   8.701  10.051   3.567
48080SOL    HW246138   8.777  10.086   3.441
48081SOL     OW46139   9.504   5.955   6.710
48081SOL    HW146140   9.507   5.867   6.673
48081SOL    HW246141   9.411   5.977   6.713
48082SOL     OW46142   4.940   8.378   3.348
48082SOL    HW146143   4.949   8.291   3.309
48082SOL    HW246144   4.881   8.366   3.423
48083SOL     OW46145  11.444   3.362   3.946
48083SOL    HW146146  11.377   3.382   4.012
48083SOL    HW246147  11.414   3.281   3.905
48084SOL     OW46148   8.870   3.783  14.251
48084SOL    HW146149   8.794   3.741  14.211
48084SOL    HW246150   8.943   3.762  14.193
48085SOL     OW46151   1.198  12.134   4.052
48085SOL    HW146152   1.118  12.180   4.077
48085SOL    HW246153   1.243  12.116   4.134
48086SOL     OW46154  14.504   4.909   8.396
48086SOL    HW146155  14.592   4.926   8.364
48086SOL    HW246156  14.480   4.824   8.357
48087SOL     OW46157  12.663   7.863   0.724
48087SOL    HW146158  12.663   7.957   0.705
48087SOL    HW246159  12.640   7.858   0.817
48088SOL     OW46160  13.694   0.290   6.042
48088SOL    HW146161  13.778   0.323   6.010
48088SOL    HW246162  13.683   0.206   5.998
48089SOL     OW46163   7.352  12.362   1.211
48089SOL    HW146164   7.273  12.413   1.198
48089SOL    HW246165   7.401  12.372   1.130
48090SOL     OW46166  10.100   8.864   9.131
48090SOL    HW146167  10.097   8.789   9.072
48090SOL    HW246168  10.162   8.925   9.090
48091SOL     OW46169  11.682  12.984   1.622
48091SOL    HW146170  11.645  13.064   1.585
48091SOL    HW246171  11.774  12.985   1.596
48092SOL     OW46172   9.706   6.438   4.331
48092SOL    HW146173   9.706   6.442   4.235
48092SOL    HW246174   9.623   6.477   4.356
48093SOL     OW46175   3.823   3.898   5.508
48093SOL    HW146176   3.742   3.853   5.483
48093SOL    HW246177   3.886   3.828   5.524
48094SOL     OW46178  11.202  13.031   7.652
48094SOL    HW146179  11.279  13.047   7.597
48094SOL    HW246180  11.134  13.004   7.590
48095SOL     OW46181   0.087   4.338  14.677
48095SOL    HW146182   0.151   4.407  14.658
48095SOL    HW246183   0.105   4.270  14.612
48096SOL     OW46184   1.250   0.308   7.200
48096SOL    HW146185   1.344   0.320   7.184
48096SOL    HW246186   1.208   0.327   7.116
48097SOL     OW46187  11.601   1.669   1.086
48097SOL    HW146188  11.587   1.585   1.041
48097SOL    HW246189  11.617   1.645   1.177
48098SOL     OW46190   5.399  14.872   4.712
48098SOL    HW146191   5.313  14.835   4.691
48098SOL    HW246192   5.402  14.874   4.808
48099SOL     OW46193  11.345   5.652   9.583
48099SOL    HW146194  11.345   5.747   9.572
48099SOL    HW246195  11.331   5.638   9.676
48100SOL     OW46196   3.256  10.698   7.660
48100SOL    HW146197   3.233  10.606   7.669
48100SOL    HW246198   3.277  10.710   7.568
48101SOL     OW46199   9.839   8.886   6.766
48101SOL    HW146200   9.759   8.871   6.716
48101SOL    HW246201   9.823   8.842   6.850
48102SOL     OW46202   2.630   5.875   8.638
48102SOL    HW146203   2.699   5.874   8.704
48102SOL    HW246204   2.661   5.816   8.570
48103SOL     OW46205   3.838   8.544   5.948
48103SOL    HW146206   3.882   8.497   5.877
48103SOL    HW246207   3.752   8.502   5.955
48104SOL     OW46208  14.639   0.717  11.884
48104SOL    HW146209  14.546   0.699  11.867
48104SOL    HW246210  14.659   0.791  11.827
48105SOL     OW46211   1.467   1.994   0.409
48105SOL    HW146212   1.467   2.088   0.393
48105SOL    HW246213   1.555   1.965   0.387
48106SOL     OW46214   4.841   9.276   0.549
48106SOL    HW146215   4.915   9.215   0.544
48106SOL    HW246216   4.846   9.312   0.637
48107SOL     OW46217  12.969  11.170   2.839
48107SOL    HW146218  12.958  11.203   2.750
48107SOL    HW246219  12.918  11.231   2.893
48108SOL     OW46220   1.185   4.622  10.930
48108SOL    HW146221   1.126   4.558  10.971
48108SOL    HW246222   1.273   4.594  10.957
48109SOL     OW46223  12.991   9.750  14.699
48109SOL    HW146224  12.998   9.819  14.765
48109SOL    HW246225  13.013   9.670  14.746
48110SOL     OW46226  13.568   3.618   7.650
48110SOL    HW146227  13.615   3.536   7.665
48110SOL    HW246228  13.524   3.637   7.733
48111SOL     OW46229   9.802   6.596   9.993
48111SOL    HW146230   9.809   6.681   9.950
48111SOL    HW246231   9.825   6.613  10.084
48112SOL     OW46232  11.328   9.188   0.729
48112SOL    HW146233  11.259   9.254   0.726
48112SOL    HW246234  11.397   9.222   0.671
48113SOL     OW46235   3.839  14.460   6.745
48113SOL    HW146236   3.909  14.524   6.754
48113SOL    HW246237   3.884  14.377   6.729
48114SOL     OW46238   1.518   0.982  10.131
48114SOL    HW146239   1.493   1.073  10.142
48114SOL    HW246240   1.543   0.975  10.039
48115SOL     OW46241   0.828   3.115  11.590
48115SOL    HW146242   0.846   3.083  11.502
48115SOL    HW246243   0.822   3.037  11.644
48116SOL     OW46244   2.059   4.863   4.429
48116SOL    HW146245   2.127   4.797   4.424
48116SOL    HW246246   1.977   4.813   4.434
48117SOL     OW46247  14.318  11.301  13.214
48117SOL    HW146248  14.295  11.296  13.121
48117SOL    HW246249  14.347  11.212  13.236
48118SOL     OW46250  12.869   2.215   9.083
48118SOL    HW146251  12.851   2.216   8.989
48118SOL    HW246252  12.812   2.146   9.118
48119SOL     OW46253   6.798   4.536   0.885
48119SOL    HW146254   6.885   4.542   0.925
48119SOL    HW246255   6.777   4.442   0.886
48120SOL     OW46256   7.926  12.214  14.252
48120SOL    HW146257   8.015  12.243  14.273
48120SOL    HW246258   7.872  12.248  14.323
48121SOL     OW46259   8.558  13.555   9.292
48121SOL    HW146260   8.641  13.600   9.312
48121SOL    HW246261   8.491  13.620   9.310
48122SOL     OW46262  14.645  10.557   5.355
48122SOL    HW146263  14.709  10.612   5.309
48122SOL    HW246264  14.678  10.468   5.346
48123SOL     OW46265  10.973   9.069   8.080
48123SOL    HW146266  10.993   8.988   8.127
48123SOL    HW246267  10.899   9.108   8.127
48124SOL     OW46268   5.714  11.799   0.249
48124SOL    HW146269   5.748  11.718   0.210
48124SOL    HW246270   5.792  11.848   0.274
48125SOL     OW46271   5.691   1.098  10.789
48125SOL    HW146272   5.605   1.116  10.750
48125SOL    HW246273   5.744   1.065  10.716
48126SOL     OW46274   9.108   0.222  11.928
48126SOL    HW146275   9.176   0.208  11.862
48126SOL    HW246276   9.074   0.309  11.910
48127SOL     OW46277  10.510   6.579  11.817
48127SOL    HW146278  10.539   6.660  11.858
48127SOL    HW246279  10.418   6.572  11.843
48128SOL     OW46280   0.185   5.926   6.715
48128SOL    HW146281   0.122   5.997   6.701
48128SOL    HW246282   0.138   5.847   6.690
48129SOL     OW46283   5.610  11.089  11.361
48129SOL    HW146284   5.567  11.070  11.444
48129SOL    HW246285   5.663  11.166  11.378
48130SOL     OW46286  11.675   7.728   8.591
48130SOL    HW146287  11.698   7.647   8.546
48130SOL    HW246288  11.602   7.704   8.648
48131SOL     OW46289  13.929   8.289   2.984
48131SOL    HW146290  14.019   8.265   3.006
48131SOL    HW246291  13.935   8.378   2.950
48132SOL     OW46292  11.553   1.577   1.337
48132SOL    HW146293  11.466   1.617   1.338
48132SOL    HW246294  11.588   1.594   1.424
48133SOL     OW46295   2.457   0.481   7.573
48133SOL    HW146296   2.510   0.405   7.551
48133SOL    HW246297   2.467   0.490   7.668
48134SOL     OW46298   8.548   3.128   4.299
48134SOL    HW146299   8.491   3.097   4.369
48134SOL    HW246300   8.525   3.221   4.289
48135SOL     OW46301   0.976   9.513  13.585
48135SOL    HW146302   0.900   9.549  13.630
48135SOL    HW246303   0.940   9.467  13.509
48136SOL     OW46304   2.235  13.361   4.511
48136SOL    HW146305   2.322  13.346   4.547
48136SOL    HW246306   2.217  13.453   4.530
48137SOL     OW46307  12.414  13.065   2.105
48137SOL    HW146308  12.319  13.080   2.113
48137SOL    HW246309  12.446  13.068   2.195
48138SOL     OW46310  11.592   5.242   8.428
48138SOL    HW146311  11.547   5.159   8.446
48138SOL    HW246312  11.645   5.258   8.506
48139SOL     OW46313   0.839  11.546  14.264
48139SOL    HW146314   0.884  11.543  14.179
48139SOL    HW246315   0.828  11.640  14.281
48140SOL     OW46316  11.444  14.065   7.035
48140SOL    HW146317  11.355  14.036   7.016
48140SOL    HW246318  11.449  14.153   6.999
48141SOL     OW46319   2.907   9.556  12.400
48141SOL    HW146320   2.851   9.510  12.338
48141SOL    HW246321   2.942   9.488  12.457
48142SOL     OW46322   1.259   3.778  14.539
48142SOL    HW146323   1.171   3.756  14.508
48142SOL    HW246324   1.280   3.860  14.494
48143SOL     OW46325   1.933  14.526  14.543
48143SOL    HW146326   1.917  14.433  14.559
48143SOL    HW246327   1.986  14.555  14.617
48144SOL     OW46328   3.870   3.312   0.628
48144SOL    HW146329   3.845   3.356   0.546
48144SOL    HW246330   3.902   3.382   0.684
48145SOL     OW46331  13.000  10.078   2.082
48145SOL    HW146332  13.036  10.052   1.997
48145SOL    HW246333  12.911  10.107   2.062
48146SOL     OW46334  12.675  13.952   1.424
48146SOL    HW146335  12.610  14.018   1.451
48146SOL    HW246336  12.626  13.889   1.371
48147SOL     OW46337   9.419  12.053  14.257
48147SOL    HW146338   9.333  12.013  14.269
48147SOL    HW246339   9.400  12.144  14.233
48148SOL     OW46340   1.351   4.174   1.856
48148SOL    HW146341   1.279   4.226   1.820
48148SOL    HW246342   1.324   4.084   1.843
48149SOL     OW46343   5.012   9.689   4.663
48149SOL    HW146344   4.947   9.698   4.593
48149SOL    HW246345   4.971   9.729   4.739
48150SOL     OW46346  14.233   3.036  13.947
48150SOL    HW146347  14.317   3.076  13.970
48150SOL    HW246348  14.248   2.942  13.955
48151SOL     OW46349  11.668   3.332   6.100
48151SOL    HW146350  11.648   3.405   6.158
48151SOL    HW246351  11.686   3.259   6.158
48152SOL     OW46352   8.139   0.753   6.287
48152SOL    HW146353   8.128   0.732   6.194
48152SOL    HW246354   8.178   0.841   6.287
48153SOL     OW46355   1.998   6.762   0.093
48153SOL    HW146356   1.968   6.752   0.002
48153SOL    HW246357   2.042   6.846   0.095
48154SOL     OW46358   3.751   6.625   0.367
48154SOL    HW146359   3.802   6.629   0.286
48154SOL    HW246360   3.712   6.712   0.375
48155SOL     OW46361   7.750   9.917  14.071
48155SOL    HW146362   7.742   9.963  14.155
48155SOL    HW246363   7.830   9.866  14.080
48156SOL     OW46364  11.841   6.250   9.890
48156SOL    HW146365  11.804   6.218   9.972
48156SOL    HW246366  11.790   6.205   9.822
48157SOL     OW46367   2.008   2.689   4.258
48157SOL    HW146368   2.058   2.678   4.177
48157SOL    HW246369   2.072   2.718   4.322
48158SOL     OW46370   1.022  14.873  11.753
48158SOL    HW146371   1.073   0.075  11.769
48158SOL    HW246372   0.933   0.026  11.740
48159SOL     OW46373   5.605   4.950   0.412
48159SOL    HW146374   5.568   5.031   0.377
48159SOL    HW246375   5.645   4.907   0.336
48160SOL     OW46376  14.469   5.875  13.963
48160SOL    HW146377  14.554   5.879  13.920
48160SOL    HW246378  14.460   5.960  14.008
48161SOL     OW46379   9.460  11.458   9.820
48161SOL    HW146380   9.526  11.520   9.853
48161SOL    HW246381   9.480  11.449   9.727
48162SOL     OW46382  13.035   3.129   6.541
48162SOL    HW146383  13.028   3.210   6.491
48162SOL    HW246384  12.993   3.148   6.625
48163SOL     OW46385   9.781   9.091  11.674
48163SOL    HW146386   9.697   9.115  11.712
48163SOL    HW246387   9.761   9.023  11.610
48164SOL     OW46388   4.332   6.718  11.649
48164SOL    HW146389   4.302   6.670  11.726
48164SOL    HW246390   4.252   6.749  11.607
48165SOL     OW46391   6.099   4.222   6.954
48165SOL    HW146392   6.170   4.178   6.908
48165SOL    HW246393   6.080   4.300   6.901
48166SOL     OW46394  14.619   7.299   5.882
48166SOL    HW146395  14.668   7.314   5.801
48166SOL    HW246396  14.538   7.348   5.871
48167SOL     OW46397  10.631   1.033  10.989
48167SOL    HW146398  10.714   1.055  10.946
48167SOL    HW246399  10.623   1.097  11.060
48168SOL     OW46400  13.618   9.032  13.308
48168SOL    HW146401  13.563   8.989  13.373
48168SOL    HW246402  13.654   8.960  13.256
48169SOL     OW46403  14.054   4.247  13.328
48169SOL    HW146404  13.973   4.230  13.375
48169SOL    HW246405  14.072   4.166  13.281
48170SOL     OW46406  10.008   9.193   7.134
48170SOL    HW146407   9.914   9.196   7.154
48170SOL    HW246408  10.029   9.282   7.106
48171SOL     OW46409   5.242  12.418   8.239
48171SOL    HW146410   5.291  12.455   8.165
48171SOL    HW246411   5.305  12.360   8.282
48172SOL     OW46412   5.775   5.194  10.230
48172SOL    HW146413   5.803   5.285  10.218
48172SOL    HW246414   5.707   5.198  10.297
48173SOL     OW46415   2.510   6.616   6.815
48173SOL    HW146416   2.550   6.659   6.739
48173SOL    HW246417   2.429   6.666   6.831
48174SOL     OW46418   6.141  10.323   2.303
48174SOL    HW146419   6.153  10.404   2.254
48174SOL    HW246420   6.049  10.300   2.289
48175SOL     OW46421  10.571   9.102   0.356
48175SOL    HW146422  10.542   9.036   0.419
48175SOL    HW246423  10.628   9.054   0.296
48176SOL     OW46424  13.539   0.988  11.523
48176SOL    HW146425  13.485   1.000  11.601
48176SOL    HW246426  13.556   1.077  11.492
48177SOL     OW46427   8.044  10.944   2.569
48177SOL    HW146428   8.038  10.983   2.656
48177SOL    HW246429   7.955  10.916   2.549
48178SOL     OW46430   5.775  10.393   6.670
48178SOL    HW146431   5.689  10.383   6.629
48178SOL    HW246432   5.819  10.461   6.619
48179SOL     OW46433   9.271  12.848   0.602
48179SOL    HW146434   9.213  12.778   0.572
48179SOL    HW246435   9.313  12.811   0.680
48180SOL     OW46436  14.662  14.019   0.474
48180SOL    HW146437  14.691  14.108   0.494
48180SOL    HW246438  14.659  14.015   0.379
48181SOL     OW46439  11.330   1.272  14.299
48181SOL    HW146440  11.314   1.269  14.394
48181SOL    HW246441  11.338   1.365  14.279
48182SOL     OW46442   3.167   4.359   8.038
48182SOL    HW146443   3.122   4.367   7.954
48182SOL    HW246444   3.144   4.439   8.086
48183SOL     OW46445   9.889  12.616  14.354
48183SOL    HW146446   9.813  12.613  14.296
48183SOL    HW246447   9.954  12.560  14.313
48184SOL     OW46448  11.482   3.091   4.283
48184SOL    HW146449  11.475   3.185   4.271
48184SOL    HW246450  11.565   3.079   4.329
48185SOL     OW46451   2.965   3.994   8.853
48185SOL    HW146452   2.910   4.064   8.887
48185SOL    HW246453   2.988   3.941   8.930
48186SOL     OW46454   9.840  10.801   3.822
48186SOL    HW146455   9.837  10.840   3.735
48186SOL    HW246456   9.906  10.852   3.869
48187SOL     OW46457  10.301   8.610   3.620
48187SOL    HW146458  10.331   8.699   3.641
48187SOL    HW246459  10.381   8.557   3.622
48188SOL     OW46460  13.724  12.541  13.749
48188SOL    HW146461  13.645  12.489  13.764
48188SOL    HW246462  13.764  12.502  13.671
48189SOL     OW46463  11.305  11.016   2.723
48189SOL    HW146464  11.395  10.983   2.719
48189SOL    HW246465  11.264  10.982   2.644
48190SOL     OW46466   6.357   5.468   9.788
48190SOL    HW146467   6.293   5.536   9.807
48190SOL    HW246468   6.306   5.388   9.777
48191SOL     OW46469   4.938  10.850   4.402
48191SOL    HW146470   4.952  10.760   4.374
48191SOL    HW246471   4.957  10.903   4.325
48192SOL     OW46472   1.176  12.012   6.135
48192SOL    HW146473   1.175  12.012   6.040
48192SOL    HW246474   1.083  12.013   6.160
48193SOL     OW46475   0.684   6.994   9.334
48193SOL    HW146476   0.718   6.975   9.246
48193SOL    HW246477   0.659   7.087   9.330
48194SOL     OW46478   7.934  11.186   9.855
48194SOL    HW146479   7.938  11.169   9.761
48194SOL    HW246480   7.884  11.111   9.890
48195SOL     OW46481   2.602  13.167   7.379
48195SOL    HW146482   2.551  13.120   7.446
48195SOL    HW246483   2.693  13.152   7.403
48196SOL     OW46484  13.729   3.111  12.580
48196SOL    HW146485  13.818   3.091  12.609
48196SOL    HW246486  13.713   3.200  12.610
48197SOL     OW46487  10.318   2.312   3.822
48197SOL    HW146488  10.366   2.331   3.902
48197SOL    HW246489  10.277   2.396   3.798
48198SOL     OW46490   0.076   9.313   5.004
48198SOL    HW146491   0.020   9.320   4.928
48198SOL    HW246492   0.159   9.280   4.970
48199SOL     OW46493   1.305  10.166   1.746
48199SOL    HW146494   1.265  10.251   1.765
48199SOL    HW246495   1.376  10.159   1.810
48200SOL     OW46496   9.085  14.362   1.225
48200SOL    HW146497   9.139  14.425   1.177
48200SOL    HW246498   9.065  14.406   1.308
48201SOL     OW46499  11.133   8.638  12.778
48201SOL    HW146500  11.225   8.657  12.763
48201SOL    HW246501  11.119   8.659  12.870
48202SOL     OW46502  14.562   8.788  10.053
48202SOL    HW146503  14.651   8.757  10.038
48202SOL    HW246504  14.571   8.855  10.121
48203SOL     OW46505   1.437  13.056   4.609
48203SOL    HW146506   1.405  13.018   4.690
48203SOL    HW246507   1.369  13.118   4.583
48204SOL     OW46508   4.449   0.667   6.817
48204SOL    HW146509   4.369   0.656   6.766
48204SOL    HW246510   4.420   0.655   6.908
48205SOL     OW46511   9.768  12.730  14.587
48205SOL    HW146512   9.674  12.739  14.577
48205SOL    HW246513   9.798  12.697  14.502
48206SOL     OW46514   7.726   4.958   1.344
48206SOL    HW146515   7.763   4.997   1.423
48206SOL    HW246516   7.643   5.002   1.332
48207SOL     OW46517  13.521   2.489   4.257
48207SOL    HW146518  13.506   2.520   4.168
48207SOL    HW246519  13.617   2.484   4.264
48208SOL     OW46520  10.533   9.897   5.123
48208SOL    HW146521  10.570   9.955   5.056
48208SOL    HW246522  10.439   9.904   5.111
48209SOL     OW46523   9.508   0.136  10.538
48209SOL    HW146524   9.576   0.169  10.479
48209SOL    HW246525   9.471   0.060  10.492
48210SOL     OW46526   9.483  10.195   4.419
48210SOL    HW146527   9.427  10.174   4.493
48210SOL    HW246528   9.436  10.264   4.371
48211SOL     OW46529   7.481   0.027   3.346
48211SOL    HW146530   7.466   0.069   3.431
48211SOL    HW246531   7.442   0.086   3.283
48212SOL     OW46532   9.533   9.641   4.862
48212SOL    HW146533   9.616   9.596   4.878
48212SOL    HW246534   9.511   9.682   4.946
48213SOL     OW46535   2.413   7.822  11.898
48213SOL    HW146536   2.327   7.864  11.899
48213SOL    HW246537   2.398   7.733  11.930
48214SOL     OW46538  10.382   9.774  14.464
48214SOL    HW146539  10.427   9.849  14.425
48214SOL    HW246540  10.330   9.738  14.392
48215SOL     OW46541   1.329   0.751   7.710
48215SOL    HW146542   1.362   0.661   7.717
48215SOL    HW246543   1.392   0.795   7.653
48216SOL     OW46544   9.589   1.722   5.403
48216SOL    HW146545   9.532   1.774   5.347
48216SOL    HW246546   9.673   1.766   5.399
48217SOL     OW46547   6.232   0.955   8.910
48217SOL    HW146548   6.292   0.954   8.984
48217SOL    HW246549   6.165   0.889   8.932
48218SOL     OW46550  12.988   0.094  12.933
48218SOL    HW146551  12.954   0.183  12.923
48218SOL    HW246552  12.968   0.071  13.024
48219SOL     OW46553   1.961   9.429   0.120
48219SOL    HW146554   1.977   9.442   0.027
48219SOL    HW246555   2.046   9.402   0.155
48220SOL     OW46556   0.756   4.309   8.780
48220SOL    HW146557   0.740   4.313   8.686
48220SOL    HW246558   0.757   4.216   8.801
48221SOL     OW46559   3.146   2.499   0.019
48221SOL    HW146560   3.063   2.452   0.029
48221SOL    HW246561   3.160   2.504  14.802
48222SOL     OW46562  11.367  10.731   9.690
48222SOL    HW146563  11.397  10.821   9.676
48222SOL    HW246564  11.441  10.686   9.729
48223SOL     OW46565  14.685  13.429   7.545
48223SOL    HW146566  14.762  13.375   7.525
48223SOL    HW246567  14.712  13.485   7.617
48224SOL     OW46568   6.629  12.927   2.658
48224SOL    HW146569   6.717  12.940   2.622
48224SOL    HW246570   6.642  12.871   2.734
48225SOL     OW46571   8.751   8.292   5.942
48225SOL    HW146572   8.665   8.304   5.902
48225SOL    HW246573   8.760   8.365   6.003
48226SOL     OW46574   7.276   8.510   8.065
48226SOL    HW146575   7.225   8.544   8.138
48226SOL    HW246576   7.328   8.584   8.035
48227SOL     OW46577   6.456   4.325   3.395
48227SOL    HW146578   6.488   4.371   3.472
48227SOL    HW246579   6.377   4.374   3.370
48228SOL     OW46580   2.757  12.876   2.210
48228SOL    HW146581   2.836  12.828   2.232
48228SOL    HW246582   2.727  12.838   2.127
48229SOL     OW46583  13.481   7.510   4.510
48229SOL    HW146584  13.437   7.595   4.499
48229SOL    HW246585  13.505   7.484   4.422
48230SOL     OW46586  11.858   2.461  10.335
48230SOL    HW146587  11.779   2.447  10.282
48230SOL    HW246588  11.930   2.445  10.274
48231SOL     OW46589   4.456   0.599   3.882
48231SOL    HW146590   4.417   0.682   3.854
48231SOL    HW246591   4.535   0.590   3.828
48232SOL     OW46592   2.368  13.674   4.775
48232SOL    HW146593   2.353  13.712   4.862
48232SOL    HW246594   2.296  13.707   4.721
48233SOL     OW46595   1.765   2.771   4.607
48233SOL    HW146596   1.718   2.699   4.648
48233SOL    HW246597   1.731   2.775   4.518
48234SOL     OW46598   3.277   8.529  10.939
48234SOL    HW146599   3.221   8.561  11.010
48234SOL    HW246600   3.308   8.444  10.970
48235SOL     OW46601   3.857  13.040   5.752
48235SOL    HW146602   3.762  13.042   5.742
48235SOL    HW246603   3.880  12.947   5.746
48236SOL     OW46604   2.895   6.862   6.177
48236SOL    HW146605   2.847   6.944   6.190
48236SOL    HW246606   2.987   6.888   6.175
48237SOL     OW46607  11.947   8.269   2.705
48237SOL    HW146608  11.926   8.231   2.620
48237SOL    HW246609  12.037   8.301   2.696
48238SOL     OW46610   6.384  13.331   2.625
48238SOL    HW146611   6.300  13.288   2.641
48238SOL    HW246612   6.437  13.307   2.701
48239SOL     OW46613   9.250  12.727   2.448
48239SOL    HW146614   9.220  12.670   2.376
48239SOL    HW246615   9.284  12.805   2.404
48240SOL     OW46616   5.932   1.394  10.196
48240SOL    HW146617   6.013   1.369  10.152
48240SOL    HW246618   5.936   1.348  10.280
48241SOL     OW46619  11.266   9.140  11.766
48241SOL    HW146620  11.219   9.060  11.790
48241SOL    HW246621  11.221   9.210  11.815
48242SOL     OW46622   7.397   3.393   2.196
48242SOL    HW146623   7.349   3.369   2.276
48242SOL    HW246624   7.488   3.399   2.224
48243SOL     OW46625   0.629  10.430   9.159
48243SOL    HW146626   0.573  10.352   9.160
48243SOL    HW246627   0.593  10.487   9.227
48244SOL     OW46628   9.432  11.676   6.850
48244SOL    HW146629   9.488  11.608   6.812
48244SOL    HW246630   9.354  11.676   6.793
48245SOL     OW46631   1.185   1.133   6.481
48245SOL    HW146632   1.120   1.202   6.493
48245SOL    HW246633   1.266   1.169   6.515
48246SOL     OW46634  12.694   9.335  12.043
48246SOL    HW146635  12.680   9.424  12.012
48246SOL    HW246636  12.614   9.288  12.017
48247SOL     OW46637   7.838  14.675  13.824
48247SOL    HW146638   7.754  14.632  13.841
48247SOL    HW246639   7.887  14.666  13.906
48248SOL     OW46640   8.448   3.840  14.483
48248SOL    HW146641   8.515   3.772  14.490
48248SOL    HW246642   8.477   3.895  14.410
48249SOL     OW46643   5.584   4.699   3.767
48249SOL    HW146644   5.619   4.630   3.823
48249SOL    HW246645   5.619   4.680   3.680
48250SOL     OW46646   2.096   5.899   2.641
48250SOL    HW146647   2.005   5.890   2.670
48250SOL    HW246648   2.112   5.993   2.643
48251SOL     OW46649   0.594  14.712  12.900
48251SOL    HW146650   0.506  14.749  12.913
48251SOL    HW246651   0.607  14.715  12.805
48252SOL     OW46652   6.032  13.926   0.179
48252SOL    HW146653   6.014  13.866   0.108
48252SOL    HW246654   5.951  13.976   0.189
48253SOL     OW46655  14.660   7.985  14.310
48253SOL    HW146656  14.664   8.062  14.366
48253SOL    HW246657  14.692   8.016  14.225
48254SOL     OW46658  13.085   5.115  14.303
48254SOL    HW146659  12.993   5.114  14.330
48254SOL    HW246660  13.112   5.023  14.306
48255SOL     OW46661  12.622  14.396  10.973
48255SOL    HW146662  12.565  14.343  11.029
48255SOL    HW246663  12.711  14.374  11.001
48256SOL     OW46664   4.805   3.406  11.465
48256SOL    HW146665   4.761   3.489  11.486
48256SOL    HW246666   4.785   3.349  11.540
48257SOL     OW46667   0.141  12.705  12.188
48257SOL    HW146668   0.206  12.639  12.164
48257SOL    HW246669   0.138  12.763  12.112
48258SOL     OW46670  12.165   4.224  11.497
48258SOL    HW146671  12.220   4.153  11.529
48258SOL    HW246672  12.091   4.227  11.558
48259SOL     OW46673  13.249   3.686  13.094
48259SOL    HW146674  13.338   3.711  13.068
48259SOL    HW246675  13.244   3.708  13.187
48260SOL     OW46676   6.696   1.811   1.568
48260SOL    HW146677   6.699   1.785   1.476
48260SOL    HW246678   6.761   1.882   1.575
48261SOL     OW46679   4.454  14.440   5.764
48261SOL    HW146680   4.516  14.367   5.775
48261SOL    HW246681   4.509  14.516   5.750
48262SOL     OW46682  13.342   8.626   1.765
48262SOL    HW146683  13.413   8.643   1.827
48262SOL    HW246684  13.350   8.696   1.700
48263SOL     OW46685   4.449  14.311  13.131
48263SOL    HW146686   4.430  14.240  13.192
48263SOL    HW246687   4.452  14.389  13.187
48264SOL     OW46688   6.114  11.742  10.084
48264SOL    HW146689   6.188  11.684  10.098
48264SOL    HW246690   6.094  11.734   9.991
48265SOL     OW46691   7.688  12.332   3.331
48265SOL    HW146692   7.643  12.294   3.256
48265SOL    HW246693   7.618  12.353   3.392
48266SOL     OW46694   3.125   1.737  11.298
48266SOL    HW146695   3.212   1.747  11.258
48266SOL    HW246696   3.142   1.691  11.380
48267SOL     OW46697   3.883   3.753  11.113
48267SOL    HW146698   3.930   3.809  11.051
48267SOL    HW246699   3.886   3.666  11.072
48268SOL     OW46700   2.545   2.189   8.020
48268SOL    HW146701   2.615   2.223   8.077
48268SOL    HW246702   2.510   2.114   8.068
48269SOL     OW46703   7.794   0.464  12.354
48269SOL    HW146704   7.781   0.479  12.260
48269SOL    HW246705   7.855   0.533  12.380
48270SOL     OW46706  13.310   7.811   7.276
48270SOL    HW146707  13.376   7.860   7.228
48270SOL    HW246708  13.336   7.817   7.368
48271SOL     OW46709  14.008   1.516  10.885
48271SOL    HW146710  13.940   1.571  10.849
48271SOL    HW246711  13.995   1.431  10.843
48272SOL     OW46712   0.076  11.428   2.203
48272SOL    HW146713   0.012  11.381   2.256
48272SOL    HW246714   0.052  11.407   2.113
48273SOL     OW46715   3.960   8.399  11.071
48273SOL    HW146716   3.908   8.366  11.145
48273SOL    HW246717   3.925   8.353  10.995
48274SOL     OW46718   2.063  14.514   4.563
48274SOL    HW146719   2.089  14.532   4.473
48274SOL    HW246720   2.006  14.588   4.586
48275SOL     OW46721   6.508   8.233   7.588
48275SOL    HW146722   6.500   8.323   7.556
48275SOL    HW246723   6.426   8.215   7.633
48276SOL     OW46724   3.155  12.128   2.036
48276SOL    HW146725   3.248  12.112   2.026
48276SOL    HW246726   3.146  12.223   2.029
48277SOL     OW46727   2.028   1.650   9.457
48277SOL    HW146728   2.035   1.745   9.470
48277SOL    HW246729   2.115   1.624   9.425
48278SOL     OW46730   8.548  10.252  12.722
48278SOL    HW146731   8.459  10.254  12.759
48278SOL    HW246732   8.552  10.329  12.665
48279SOL     OW46733   6.325   7.893  13.061
48279SOL    HW146734   6.285   7.833  13.124
48279SOL    HW246735   6.344   7.840  12.984
48280SOL     OW46736   4.088  12.516  10.771
48280SOL    HW146737   4.098  12.508  10.676
48280SOL    HW246738   4.057  12.430  10.799
48281SOL     OW46739   3.711   1.917  13.315
48281SOL    HW146740   3.712   2.000  13.364
48281SOL    HW246741   3.674   1.853  13.377
48282SOL     OW46742   3.316   2.138   3.101
48282SOL    HW146743   3.230   2.175   3.122
48282SOL    HW246744   3.355   2.118   3.186
48283SOL     OW46745   0.665   5.836   1.688
48283SOL    HW146746   0.747   5.882   1.705
48283SOL    HW246747   0.676   5.801   1.599
48284SOL     OW46748   9.095   6.724   9.668
48284SOL    HW146749   9.169   6.768   9.626
48284SOL    HW246750   9.099   6.752   9.759
48285SOL     OW46751   5.686   8.684   6.159
48285SOL    HW146752   5.778   8.689   6.186
48285SOL    HW246753   5.647   8.765   6.190
48286SOL     OW46754  12.532   9.410   2.751
48286SOL    HW146755  12.531   9.337   2.689
48286SOL    HW246756  12.602   9.467   2.720
48287SOL     OW46757   9.871  11.553   3.874
48287SOL    HW146758   9.909  11.608   3.942
48287SOL    HW246759   9.915  11.580   3.793
48288SOL     OW46760   2.359  11.137   5.632
48288SOL    HW146761   2.432  11.102   5.581
48288SOL    HW246762   2.297  11.169   5.567
48289SOL     OW46763   2.097   7.299   1.730
48289SOL    HW146764   2.112   7.334   1.642
48289SOL    HW246765   2.033   7.229   1.717
48290SOL     OW46766   5.071   7.114  10.463
48290SOL    HW146767   5.112   7.120  10.549
48290SOL    HW246768   5.113   7.040  10.421
48291SOL     OW46769  11.125  12.582   3.560
48291SOL    HW146770  11.078  12.509   3.600
48291SOL    HW246771  11.201  12.541   3.517
48292SOL     OW46772  12.829  12.676   2.779
48292SOL    HW146773  12.828  12.716   2.692
48292SOL    HW246774  12.891  12.728   2.829
48293SOL     OW46775   5.213  12.016   2.342
48293SOL    HW146776   5.243  12.017   2.251
48293SOL    HW246777   5.123  11.983   2.337
48294SOL     OW46778  10.624  14.661  14.243
48294SOL    HW146779  10.590  14.653  14.332
48294SOL    HW246780  10.712  14.624  14.249
48295SOL     OW46781   0.210  12.431   0.249
48295SOL    HW146782   0.149  12.501   0.225
48295SOL    HW246783   0.172  12.352   0.212
48296SOL     OW46784   1.543  11.288  13.989
48296SOL    HW146785   1.515  11.371  13.949
48296SOL    HW246786   1.547  11.227  13.915
48297SOL     OW46787   4.113  13.699  11.255
48297SOL    HW146788   4.176  13.718  11.186
48297SOL    HW246789   4.144  13.747  11.331
48298SOL     OW46790  11.969   5.751   1.246
48298SOL    HW146791  11.921   5.679   1.204
48298SOL    HW246792  12.047   5.762   1.192
48299SOL     OW46793   1.360   1.515  12.330
48299SOL    HW146794   1.311   1.481  12.256
48299SOL    HW246795   1.347   1.449  12.399
48300SOL     OW46796  12.742  13.592   5.725
48300SOL    HW146797  12.651  13.569   5.707
48300SOL    HW246798  12.791  13.511   5.710
48301SOL     OW46799  12.113   4.565   4.547
48301SOL    HW146800  12.145   4.598   4.463
48301SOL    HW246801  12.192   4.540   4.594
48302SOL     OW46802   0.348   1.097   2.415
48302SOL    HW146803   0.317   1.120   2.327
48302SOL    HW246804   0.383   1.178   2.450
48303SOL     OW46805  12.228  13.429   1.544
48303SOL    HW146806  12.237  13.373   1.621
48303SOL    HW246807  12.312  13.421   1.499
48304SOL     OW46808  14.176  14.045   8.208
48304SOL    HW146809  14.264  14.035   8.172
48304SOL    HW246810  14.118  14.024   8.135
48305SOL     OW46811  11.038   3.319  10.139
48305SOL    HW146812  11.097   3.393  10.148
48305SOL    HW246813  11.094   3.246  10.114
48306SOL     OW46814   7.364  13.456  13.768
48306SOL    HW146815   7.317  13.536  13.791
48306SOL    HW246816   7.411  13.433  13.848
48307SOL     OW46817   2.540  10.397   7.108
48307SOL    HW146818   2.475  10.453   7.067
48307SOL    HW246819   2.551  10.325   7.045
48308SOL     OW46820   7.130   4.809   7.385
48308SOL    HW146821   7.057   4.831   7.442
48308SOL    HW246822   7.179   4.743   7.434
48309SOL     OW46823   0.408  13.457   6.877
48309SOL    HW146824   0.351  13.530   6.903
48309SOL    HW246825   0.362  13.379   6.907
48310SOL     OW46826   5.893   7.902  12.296
48310SOL    HW146827   5.855   7.872  12.214
48310SOL    HW246828   5.860   7.840  12.362
48311SOL     OW46829  10.004   2.244   4.327
48311SOL    HW146830  10.087   2.289   4.315
48311SOL    HW246831   9.942   2.314   4.349
48312SOL     OW46832  12.590   7.607  12.557
48312SOL    HW146833  12.504   7.609  12.598
48312SOL    HW246834  12.612   7.514  12.553
48313SOL     OW46835  12.227   9.348   7.910
48313SOL    HW146836  12.185   9.431   7.935
48313SOL    HW246837  12.240   9.355   7.816
48314SOL     OW46838   6.754   0.879   0.719
48314SOL    HW146839   6.688   0.811   0.703
48314SOL    HW246840   6.744   0.940   0.646
48315SOL     OW46841   2.127  11.540   0.633
48315SOL    HW146842   2.148  11.504   0.547
48315SOL    HW246843   2.208  11.529   0.683
48316SOL     OW46844   0.473   5.677   8.645
48316SOL    HW146845   0.412   5.622   8.596
48316SOL    HW246846   0.484   5.632   8.729
48317SOL     OW46847   0.026  14.208  13.903
48317SOL    HW146848   0.120  14.204  13.889
48317SOL    HW246849   0.010  14.156  13.982
48318SOL     OW46850  10.723   1.141  12.145
48318SOL    HW146851  10.666   1.183  12.081
48318SOL    HW246852  10.799   1.200  12.151
48319SOL     OW46853   4.537  11.001   2.648
48319SOL    HW146854   4.619  10.952   2.643
48319SOL    HW246855   4.511  10.994   2.740
48320SOL     OW46856   2.690   6.976   1.668
48320SOL    HW146857   2.782   6.993   1.689
48320SOL    HW246858   2.679   7.011   1.579
48321SOL     OW46859   3.462   2.976  11.306
48321SOL    HW146860   3.510   2.979  11.389
48321SOL    HW246861   3.370   2.971  11.332
48322SOL     OW46862   6.941  13.028   7.873
48322SOL    HW146863   7.015  13.071   7.917
48322SOL    HW246864   6.883  13.001   7.945
48323SOL     OW46865  10.537   3.369   1.640
48323SOL    HW146866  10.553   3.423   1.718
48323SOL    HW246867  10.617   3.377   1.589
48324SOL     OW46868  14.552   6.167  14.760
48324SOL    HW146869  14.606   6.094  14.730
48324SOL    HW246870  14.462   6.141  14.737
48325SOL     OW46871   5.504  13.009  10.989
48325SOL    HW146872   5.419  13.052  10.978
48325SOL    HW246873   5.484  12.916  10.989
48326SOL     OW46874  11.930  10.676   2.600
48326SOL    HW146875  11.886  10.591   2.612
48326SOL    HW246876  12.013  10.666   2.647
48327SOL     OW46877   2.919  11.386  10.028
48327SOL    HW146878   2.993  11.423   9.980
48327SOL    HW246879   2.842  11.421   9.985
48328SOL     OW46880   6.634   2.641  12.106
48328SOL    HW146881   6.662   2.562  12.152
48328SOL    HW246882   6.643   2.711  12.171
48329SOL     OW46883  10.962   5.511   3.291
48329SOL    HW146884  10.984   5.560   3.371
48329SOL    HW246885  10.893   5.450   3.319
48330SOL     OW46886  12.833   6.908   3.417
48330SOL    HW146887  12.900   6.931   3.481
48330SOL    HW246888  12.881   6.889   3.337
48331SOL     OW46889   0.847  14.003  13.640
48331SOL    HW146890   0.812  13.922  13.602
48331SOL    HW246891   0.777  14.067  13.629
48332SOL     OW46892   6.832   7.170  10.837
48332SOL    HW146893   6.755   7.131  10.796
48332SOL    HW246894   6.856   7.109  10.907
48333SOL     OW46895   4.591  14.647   6.193
48333SOL    HW146896   4.636  14.624   6.274
48333SOL    HW246897   4.501  14.663   6.219
48334SOL     OW46898   1.579  11.917   4.541
48334SOL    HW146899   1.625  11.833   4.537
48334SOL    HW246900   1.635  11.977   4.493
48335SOL     OW46901   3.585  12.152   6.729
48335SOL    HW146902   3.612  12.077   6.782
48335SOL    HW246903   3.639  12.147   6.650
48336SOL     OW46904   8.800   8.101  13.208
48336SOL    HW146905   8.850   8.027  13.174
48336SOL    HW246906   8.711   8.067  13.218
48337SOL     OW46907  13.862  11.087   5.736
48337SOL    HW146908  13.806  11.135   5.798
48337SOL    HW246909  13.819  11.100   5.651
48338SOL     OW46910  14.504   0.617   3.436
48338SOL    HW146911  14.597   0.625   3.456
48338SOL    HW246912  14.460   0.643   3.517
48339SOL     OW46913   0.652  11.551  11.293
48339SOL    HW146914   0.668  11.488  11.223
48339SOL    HW246915   0.639  11.634  11.248
48340SOL     OW46916   1.828  12.003  11.798
48340SOL    HW146917   1.859  11.913  11.806
48340SOL    HW246918   1.847  12.042  11.883
48341SOL     OW46919   1.576  10.185   2.700
48341SOL    HW146920   1.577  10.135   2.781
48341SOL    HW246921   1.655  10.158   2.653
48342SOL     OW46922  11.286   4.393   4.928
48342SOL    HW146923  11.220   4.419   4.992
48342SOL    HW246924  11.310   4.474   4.883
48343SOL     OW46925  11.880   4.457   4.643
48343SOL    HW146926  11.827   4.493   4.572
48343SOL    HW246927  11.966   4.499   4.632
48344SOL     OW46928  13.843   4.030   4.141
48344SOL    HW146929  13.807   3.996   4.224
48344SOL    HW246930  13.886   4.111   4.166
48345SOL     OW46931   7.204   1.101   2.367
48345SOL    HW146932   7.120   1.143   2.386
48345SOL    HW246933   7.255   1.112   2.446
48346SOL     OW46934   5.731  11.932   1.143
48346SOL    HW146935   5.667  11.981   1.093
48346SOL    HW246936   5.679  11.870   1.195
48347SOL     OW46937   8.108   6.879   0.514
48347SOL    HW146938   8.102   6.939   0.440
48347SOL    HW246939   8.019   6.847   0.527
48348SOL     OW46940   5.095   8.294   9.688
48348SOL    HW146941   5.113   8.252   9.772
48348SOL    HW246942   5.122   8.229   9.622
48349SOL     OW46943   5.065   8.800  13.906
48349SOL    HW146944   5.069   8.708  13.880
48349SOL    HW246945   5.125   8.807  13.980
48350SOL     OW46946  11.812   9.501  13.359
48350SOL    HW146947  11.872   9.460  13.298
48350SOL    HW246948  11.768   9.428  13.403
48351SOL     OW46949   9.711   5.838   5.542
48351SOL    HW146950   9.681   5.927   5.527
48351SOL    HW246951   9.695   5.793   5.459
48352SOL     OW46952  12.063   0.300   7.593
48352SOL    HW146953  12.002   0.226   7.589
48352SOL    HW246954  12.075   0.325   7.501
48353SOL     OW46955  14.840  14.470   9.762
48353SOL    HW146956  14.812  14.408   9.695
48353SOL    HW246957  14.783  14.452   9.837
48354SOL     OW46958   9.029   0.343  10.853
48354SOL    HW146959   9.092   0.320  10.922
48354SOL    HW246960   8.986   0.422  10.885
48355SOL     OW46961   3.825  11.810  10.707
48355SOL    HW146962   3.757  11.875  10.726
48355SOL    HW246963   3.907  11.854  10.728
48356SOL     OW46964   5.733   5.637   7.242
48356SOL    HW146965   5.721   5.668   7.331
48356SOL    HW246966   5.653   5.588   7.222
48357SOL     OW46967   7.497   1.945   4.517
48357SOL    HW146968   7.536   1.991   4.444
48357SOL    HW246969   7.411   1.917   4.485
48358SOL     OW46970  10.859  11.168   1.876
48358SOL    HW146971  10.821  11.170   1.964
48358SOL    HW246972  10.953  11.153   1.890
48359SOL     OW46973   0.885   1.391   9.404
48359SOL    HW146974   0.861   1.348   9.322
48359SOL    HW246975   0.841   1.476   9.401
48360SOL     OW46976   6.703   9.657   9.682
48360SOL    HW146977   6.613   9.625   9.675
48360SOL    HW246978   6.756   9.577   9.683
48361SOL     OW46979   9.076   7.112   4.838
48361SOL    HW146980   8.985   7.139   4.821
48361SOL    HW246981   9.117   7.110   4.751
48362SOL     OW46982   8.680  13.412  13.326
48362SOL    HW146983   8.588  13.407  13.301
48362SOL    HW246984   8.705  13.322  13.346
48363SOL     OW46985   7.869   0.969   1.207
48363SOL    HW146986   7.929   0.897   1.189
48363SOL    HW246987   7.921   1.048   1.193
48364SOL     OW46988   6.634   2.784   6.199
48364SOL    HW146989   6.704   2.720   6.182
48364SOL    HW246990   6.560   2.752   6.148
48365SOL     OW46991  12.302   1.197  10.780
48365SOL    HW146992  12.224   1.220  10.730
48365SOL    HW246993  12.296   1.102  10.792
48366SOL     OW46994   7.064  13.539   6.011
48366SOL    HW146995   6.969  13.531   6.020
48366SOL    HW246996   7.097  13.534   6.101
48367SOL     OW46997  11.303  14.379  10.151
48367SOL    HW146998  11.279  14.453  10.207
48367SOL    HW246999  11.219  14.348  10.115
48368SOL     OW47000   3.787   3.091   8.523
48368SOL    HW147001   3.716   3.124   8.469
48368SOL    HW247002   3.830   3.169   8.557
48369SOL     OW47003   0.345  11.247  13.236
48369SOL    HW147004   0.388  11.220  13.154
48369SOL    HW247005   0.267  11.191  13.241
48370SOL     OW47006   5.489   5.083   3.366
48370SOL    HW147007   5.512   5.002   3.321
48370SOL    HW247008   5.517   5.069   3.456
48371SOL     OW47009   3.389  10.292   5.267
48371SOL    HW147010   3.298  10.271   5.248
48371SOL    HW247011   3.410  10.365   5.209
48372SOL     OW47012   5.475   0.423   8.053
48372SOL    HW147013   5.561   0.386   8.071
48372SOL    HW247014   5.477   0.445   7.960
48373SOL     OW47015   2.780   9.666   4.435
48373SOL    HW147016   2.802   9.607   4.363
48373SOL    HW247017   2.755   9.609   4.507
48374SOL     OW47018   2.601  12.260   9.863
48374SOL    HW147019   2.654  12.214   9.928
48374SOL    HW247020   2.512  12.233   9.881
48375SOL     OW47021   2.601   6.278  11.687
48375SOL    HW147022   2.585   6.189  11.718
48375SOL    HW247023   2.644   6.266  11.602
48376SOL     OW47024   4.230   6.967   7.305
48376SOL    HW147025   4.179   6.978   7.385
48376SOL    HW247026   4.315   6.937   7.335
48377SOL     OW47027  13.036   5.642  11.077
48377SOL    HW147028  13.097   5.716  11.071
48377SOL    HW247029  13.092   5.566  11.094
48378SOL     OW47030   7.081  12.256   4.854
48378SOL    HW147031   7.165  12.298   4.874
48378SOL    HW247032   7.017  12.326   4.860
48379SOL     OW47033  14.716  13.935   1.159
48379SOL    HW147034  14.773  13.899   1.226
48379SOL    HW247035  14.638  13.964   1.206
48380SOL     OW47036   2.505  10.028  12.498
48380SOL    HW147037   2.410  10.022  12.500
48380SOL    HW247038   2.523  10.105  12.443
48381SOL     OW47039  12.078  13.241  12.875
48381SOL    HW147040  12.144  13.257  12.942
48381SOL    HW247041  12.069  13.146  12.872
48382SOL     OW47042   3.693   8.612   8.931
48382SOL    HW147043   3.605   8.625   8.967
48382SOL    HW247044   3.720   8.699   8.902
48383SOL     OW47045   5.117  10.173  14.747
48383SOL    HW147046   5.173  10.113  14.797
48383SOL    HW247047   5.047  10.196  14.807
48384SOL     OW47048   7.079  12.775  11.470
48384SOL    HW147049   7.133  12.696  11.465
48384SOL    HW247050   7.138  12.845  11.442
48385SOL     OW47051   7.698   4.668   9.424
48385SOL    HW147052   7.781   4.628   9.397
48385SOL    HW247053   7.671   4.618   9.501
48386SOL     OW47054   1.328   4.377  11.770
48386SOL    HW147055   1.349   4.458  11.723
48386SOL    HW247056   1.342   4.399  11.862
48387SOL     OW47057   1.363   4.366   0.482
48387SOL    HW147058   1.381   4.344   0.574
48387SOL    HW247059   1.443   4.408   0.452
48388SOL     OW47060  14.224  14.799   3.268
48388SOL    HW147061  14.192  14.820   3.355
48388SOL    HW247062  14.312  14.837   3.265
48389SOL     OW47063   8.021   5.996   7.175
48389SOL    HW147064   8.053   5.981   7.263
48389SOL    HW247065   8.008   6.091   7.170
48390SOL     OW47066   2.362   7.186   0.548
48390SOL    HW147067   2.423   7.244   0.593
48390SOL    HW247068   2.276   7.211   0.580
48391SOL     OW47069   2.031   4.153   9.993
48391SOL    HW147070   2.064   4.150  10.083
48391SOL    HW247071   2.035   4.245   9.969
48392SOL     OW47072   5.889  10.595   6.505
48392SOL    HW147073   5.874  10.679   6.461
48392SOL    HW247074   5.977  10.602   6.541
48393SOL     OW47075   2.613  12.977   6.463
48393SOL    HW147076   2.593  13.051   6.521
48393SOL    HW247077   2.532  12.927   6.459
48394SOL     OW47078  10.515   6.259  10.201
48394SOL    HW147079  10.601   6.233  10.233
48394SOL    HW247080  10.504   6.210  10.119
48395SOL     OW47081   7.679   5.703   3.298
48395SOL    HW147082   7.743   5.647   3.342
48395SOL    HW247083   7.641   5.648   3.230
48396SOL     OW47084   4.668   1.317  14.028
48396SOL    HW147085   4.609   1.380  13.985
48396SOL    HW247086   4.751   1.328  13.983
48397SOL     OW47087   3.480   5.241  11.889
48397SOL    HW147088   3.566   5.239  11.848
48397SOL    HW247089   3.420   5.263  11.818
48398SOL     OW47090   6.021   7.137   5.910
48398SOL    HW147091   5.928   7.158   5.897
48398SOL    HW247092   6.062   7.158   5.826
48399SOL     OW47093  14.126   6.198   6.424
48399SOL    HW147094  14.055   6.160   6.372
48399SOL    HW247095  14.097   6.288   6.442
48400SOL     OW47096   8.374  14.025  11.775
48400SOL    HW147097   8.325  14.107  11.765
48400SOL    HW247098   8.326  13.962  11.722
48401SOL     OW47099   5.491   2.699   3.308
48401SOL    HW147100   5.580   2.734   3.319
48401SOL    HW247101   5.502   2.604   3.317
48402SOL     OW47102   7.073   8.730   7.217
48402SOL    HW147103   7.124   8.711   7.138
48402SOL    HW247104   6.989   8.686   7.202
48403SOL     OW47105   4.504   5.305   3.233
48403SOL    HW147106   4.566   5.251   3.282
48403SOL    HW247107   4.423   5.255   3.234
48404SOL     OW47108   7.632  13.505   0.122
48404SOL    HW147109   7.619  13.413   0.143
48404SOL    HW247110   7.546  13.546   0.137
48405SOL     OW47111   9.023   5.866  11.553
48405SOL    HW147112   9.021   5.796  11.488
48405SOL    HW247113   8.945   5.852  11.607
48406SOL     OW47114   5.257  12.250   2.034
48406SOL    HW147115   5.273  12.165   2.074
48406SOL    HW247116   5.344  12.290   2.027
48407SOL     OW47117   5.391  13.467   5.053
48407SOL    HW147118   5.473  13.515   5.047
48407SOL    HW247119   5.332  13.513   4.994
48408SOL     OW47120   7.123   9.013   6.093
48408SOL    HW147121   7.089   8.924   6.094
48408SOL    HW247122   7.174   9.018   6.012
48409SOL     OW47123  14.742   0.196   3.203
48409SOL    HW147124  14.763   0.290   3.201
48409SOL    HW247125  14.811   0.155   3.150
48410SOL     OW47126   4.644   9.807   3.971
48410SOL    HW147127   4.621   9.793   4.063
48410SOL    HW247128   4.591   9.744   3.923
48411SOL     OW47129  14.323  14.747  12.562
48411SOL    HW147130  14.355  14.696  12.487
48411SOL    HW247131  14.305  14.834  12.525
48412SOL     OW47132   1.688   0.100   5.939
48412SOL    HW147133   1.691   0.044   5.862
48412SOL    HW247134   1.678   0.189   5.904
48413SOL     OW47135  12.000  11.625   8.157
48413SOL    HW147136  11.923  11.577   8.128
48413SOL    HW247137  12.064  11.557   8.179
48414SOL     OW47138  11.660  13.419   3.234
48414SOL    HW147139  11.598  13.468   3.181
48414SOL    HW247140  11.654  13.459   3.321
48415SOL     OW47141   2.728  11.482  13.822
48415SOL    HW147142   2.813  11.525  13.818
48415SOL    HW247143   2.668  11.551  13.852
48416SOL     OW47144  14.523   9.686  12.660
48416SOL    HW147145  14.618   9.686  12.652
48416SOL    HW247146  14.495   9.615  12.602
48417SOL     OW47147  12.422  11.676  12.488
48417SOL    HW147148  12.505  11.628  12.484
48417SOL    HW247149  12.439  11.748  12.549
48418SOL     OW47150  14.540  11.229   4.497
48418SOL    HW147151  14.527  11.179   4.416
48418SOL    HW247152  14.516  11.168   4.567
48419SOL     OW47153   7.949  11.280  14.762
48419SOL    HW147154   7.949  11.212  14.695
48419SOL    HW247155   7.906  11.241  14.837
48420SOL     OW47156   1.628   1.107  11.080
48420SOL    HW147157   1.607   1.020  11.046
48420SOL    HW247158   1.711   1.096  11.126
48421SOL     OW47159   1.148   4.847   0.161
48421SOL    HW147160   1.107   4.774   0.114
48421SOL    HW247161   1.131   4.830   0.253
48422SOL     OW47162   2.086  10.092   0.270
48422SOL    HW147163   2.083  10.161   0.204
48422SOL    HW247164   2.172  10.102   0.311
48423SOL     OW47165   1.069   8.598   1.273
48423SOL    HW147166   1.102   8.646   1.349
48423SOL    HW247167   0.975   8.620   1.270
48424SOL     OW47168   9.150   4.110  10.386
48424SOL    HW147169   9.086   4.181  10.386
48424SOL    HW247170   9.209   4.131  10.458
48425SOL     OW47171  14.668   3.848  14.690
48425SOL    HW147172  14.680   3.903  14.768
48425SOL    HW247173  14.708   3.764  14.714
48426SOL     OW47174  11.862   9.707  10.675
48426SOL    HW147175  11.803   9.632  10.663
48426SOL    HW247176  11.948   9.668  10.691
48427SOL     OW47177   8.497  10.265  11.770
48427SOL    HW147178   8.576  10.242  11.721
48427SOL    HW247179   8.444  10.185  11.769
48428SOL     OW47180   0.859   0.969   7.866
48428SOL    HW147181   0.855   0.958   7.961
48428SOL    HW247182   0.951   0.953   7.844
48429SOL     OW47183   3.828   8.445  11.874
48429SOL    HW147184   3.826   8.351  11.889
48429SOL    HW247185   3.791   8.484  11.953
48430SOL     OW47186  13.790   1.609   6.820
48430SOL    HW147187  13.781   1.521   6.783
48430SOL    HW247188  13.733   1.608   6.897
48431SOL     OW47189   7.280   5.328   4.871
48431SOL    HW147190   7.235   5.255   4.827
48431SOL    HW247191   7.345   5.285   4.927
48432SOL     OW47192   0.434   2.887  10.400
48432SOL    HW147193   0.489   2.952  10.444
48432SOL    HW247194   0.381   2.850  10.470
48433SOL     OW47195  13.549  12.573   0.257
48433SOL    HW147196  13.555  12.570   0.353
48433SOL    HW247197  13.598  12.496   0.228
48434SOL     OW47198   2.703   9.605   5.634
48434SOL    HW147199   2.694   9.570   5.545
48434SOL    HW247200   2.727   9.697   5.621
48435SOL     OW47201   5.654   9.563  11.095
48435SOL    HW147202   5.609   9.552  11.011
48435SOL    HW247203   5.586   9.547  11.160
48436SOL     OW47204  11.138   0.510   4.232
48436SOL    HW147205  11.147   0.581   4.296
48436SOL    HW247206  11.058   0.465   4.259
48437SOL     OW47207  11.765   8.044   6.020
48437SOL    HW147208  11.746   8.081   6.106
48437SOL    HW247209  11.679   8.025   5.983
48438SOL     OW47210  11.691   6.859   9.391
48438SOL    HW147211  11.729   6.772   9.381
48438SOL    HW247212  11.605   6.843   9.429
48439SOL     OW47213  13.160  10.589   9.956
48439SOL    HW147214  13.196  10.509   9.918
48439SOL    HW247215  13.070  10.593   9.922
48440SOL     OW47216  11.185   1.608   7.640
48440SOL    HW147217  11.200   1.573   7.553
48440SOL    HW247218  11.172   1.531   7.695
48441SOL     OW47219  13.740  10.900   1.416
48441SOL    HW147220  13.791  10.957   1.474
48441SOL    HW247221  13.805  10.857   1.361
48442SOL     OW47222   2.650  11.770  10.211
48442SOL    HW147223   2.625  11.724  10.291
48442SOL    HW247224   2.731  11.727  10.183
48443SOL     OW47225   4.648  12.008   7.966
48443SOL    HW147226   4.631  11.940   8.032
48443SOL    HW247227   4.702  12.073   8.012
48444SOL     OW47228  13.760  11.473   0.748
48444SOL    HW147229  13.839  11.496   0.699
48444SOL    HW247230  13.773  11.382   0.774
48445SOL     OW47231  13.205  12.258   4.025
48445SOL    HW147232  13.283  12.297   3.985
48445SOL    HW247233  13.177  12.192   3.962
48446SOL     OW47234   1.879   3.517   2.581
48446SOL    HW147235   1.857   3.601   2.541
48446SOL    HW247236   1.957   3.488   2.534
48447SOL     OW47237   0.285   0.405   2.575
48447SOL    HW147238   0.378   0.401   2.597
48447SOL    HW247239   0.251   0.320   2.602
48448SOL     OW47240  10.301  14.637   0.936
48448SOL    HW147241  10.262  14.647   0.848
48448SOL    HW247242  10.234  14.671   0.995
48449SOL     OW47243  13.757  12.429  12.117
48449SOL    HW147244  13.743  12.508  12.066
48449SOL    HW247245  13.784  12.363  12.053
48450SOL     OW47246  14.401   4.177  10.004
48450SOL    HW147247  14.358   4.216   9.929
48450SOL    HW247248  14.475   4.236  10.023
48451SOL     OW47249  12.722  10.624  11.310
48451SOL    HW147250  12.686  10.577  11.385
48451SOL    HW247251  12.760  10.556  11.254
48452SOL     OW47252   0.881  14.282   0.278
48452SOL    HW147253   0.973  14.260   0.287
48452SOL    HW247254   0.880  14.377   0.267
48453SOL     OW47255  11.636  14.066   5.234
48453SOL    HW147256  11.560  14.043   5.180
48453SOL    HW247257  11.608  14.143   5.284
48454SOL     OW47258   0.410   0.317   5.492
48454SOL    HW147259   0.326   0.362   5.485
48454SOL    HW247260   0.388   0.225   5.500
48455SOL     OW47261   4.518   1.165  11.000
48455SOL    HW147262   4.486   1.242  10.953
48455SOL    HW247263   4.460   1.157  11.076
48456SOL     OW47264   2.352  11.587  12.040
48456SOL    HW147265   2.406  11.665  12.053
48456SOL    HW247266   2.264  11.613  12.066
48457SOL     OW47267  14.493  13.747  13.881
48457SOL    HW147268  14.456  13.659  13.869
48457SOL    HW247269  14.588  13.733  13.881
48458SOL     OW47270   4.687  12.127   0.159
48458SOL    HW147271   4.598  12.161   0.158
48458SOL    HW247272   4.679  12.038   0.125
48459SOL     OW47273   5.013   0.464  10.159
48459SOL    HW147274   5.098   0.440  10.122
48459SOL    HW247275   4.952   0.460  10.085
48460SOL     OW47276  12.446   8.497   5.031
48460SOL    HW147277  12.491   8.525   5.110
48460SOL    HW247278  12.422   8.578   4.986
48461SOL     OW47279   2.878   1.407   9.992
48461SOL    HW147280   2.932   1.446   9.922
48461SOL    HW247281   2.862   1.318   9.962
48462SOL     OW47282   8.528  12.219  13.371
48462SOL    HW147283   8.581  12.199  13.294
48462SOL    HW247284   8.489  12.135  13.396
48463SOL     OW47285   6.710  11.023  10.352
48463SOL    HW147286   6.764  10.948  10.373
48463SOL    HW247287   6.756  11.098  10.390
48464SOL     OW47288   2.382   8.503   2.730
48464SOL    HW147289   2.462   8.524   2.681
48464SOL    HW247290   2.328   8.455   2.668
48465SOL     OW47291  10.905   3.412   0.322
48465SOL    HW147292  10.846   3.462   0.265
48465SOL    HW247293  10.971   3.377   0.263
48466SOL     OW47294   4.441   5.963  10.300
48466SOL    HW147295   4.466   5.870  10.304
48466SOL    HW247296   4.492   5.998  10.227
48467SOL     OW47297   7.846  11.085   3.826
48467SOL    HW147298   7.808  11.151   3.768
48467SOL    HW247299   7.925  11.125   3.860
48468SOL     OW47300   1.964  14.206  10.938
48468SOL    HW147301   2.009  14.173  10.860
48468SOL    HW247302   2.004  14.291  10.954
48469SOL     OW47303   5.426   4.078   0.129
48469SOL    HW147304   5.400   3.998   0.083
48469SOL    HW247305   5.392   4.149   0.075
48470SOL     OW47306   8.370  14.074  12.477
48470SOL    HW147307   8.350  14.156  12.433
48470SOL    HW247308   8.423  14.025  12.414
48471SOL     OW47309   0.895   3.372   5.430
48471SOL    HW147310   0.986   3.401   5.419
48471SOL    HW247311   0.844   3.433   5.376
48472SOL     OW47312   7.659  13.356   4.648
48472SOL    HW147313   7.610  13.388   4.573
48472SOL    HW247314   7.711  13.431   4.677
48473SOL     OW47315   2.664   7.294   0.235
48473SOL    HW147316   2.611   7.216   0.251
48473SOL    HW247317   2.613   7.366   0.271
48474SOL     OW47318   4.784   0.704  11.077
48474SOL    HW147319   4.753   0.775  11.019
48474SOL    HW247320   4.732   0.628  11.050
48475SOL     OW47321   2.148   6.203   6.294
48475SOL    HW147322   2.208   6.137   6.327
48475SOL    HW247323   2.152   6.274   6.358
48476SOL     OW47324   1.588   6.935   7.028
48476SOL    HW147325   1.551   7.017   6.995
48476SOL    HW247326   1.580   6.874   6.955
48477SOL     OW47327   3.027  11.397   3.815
48477SOL    HW147328   3.013  11.313   3.772
48477SOL    HW247329   3.028  11.461   3.744
48478SOL     OW47330  12.409  11.677  11.382
48478SOL    HW147331  12.346  11.746  11.403
48478SOL    HW247332  12.391  11.656  11.290
48479SOL     OW47333   6.057   6.689   3.352
48479SOL    HW147334   5.971   6.730   3.351
48479SOL    HW247335   6.100   6.722   3.273
48480SOL     OW47336   7.947   0.102  12.392
48480SOL    HW147337   7.987   0.133  12.310
48480SOL    HW247338   7.866   0.059  12.364
48481SOL     OW47339   4.122   7.484   5.432
48481SOL    HW147340   4.084   7.412   5.483
48481SOL    HW247341   4.058   7.502   5.363
48482SOL     OW47342   5.501   6.753   8.519
48482SOL    HW147343   5.508   6.658   8.531
48482SOL    HW247344   5.588   6.780   8.489
48483SOL     OW47345   7.398   0.690  13.563
48483SOL    HW147346   7.352   0.617  13.523
48483SOL    HW247347   7.471   0.650  13.611
48484SOL     OW47348   3.264   2.787  10.722
48484SOL    HW147349   3.352   2.791  10.760
48484SOL    HW247350   3.213   2.849  10.773
48485SOL     OW47351   1.214   0.276  10.694
48485SOL    HW147352   1.125   0.264  10.727
48485SOL    HW247353   1.216   0.229  10.611
48486SOL     OW47354   8.727   9.038   1.979
48486SOL    HW147355   8.635   9.032   1.953
48486SOL    HW247356   8.731   9.116   2.035
48487SOL     OW47357  10.322   9.888   2.269
48487SOL    HW147358  10.312   9.816   2.206
48487SOL    HW247359  10.416   9.907   2.269
48488SOL     OW47360   7.564   7.280   0.580
48488SOL    HW147361   7.609   7.340   0.639
48488SOL    HW247362   7.628   7.211   0.563
48489SOL     OW47363   2.411   7.850  11.097
48489SOL    HW147364   2.318   7.872  11.095
48489SOL    HW247365   2.451   7.906  11.031
48490SOL     OW47366  11.518   0.833   8.825
48490SOL    HW147367  11.509   0.739   8.812
48490SOL    HW247368  11.591   0.858   8.768
48491SOL     OW47369   5.821   4.539   5.979
48491SOL    HW147370   5.882   4.611   5.970
48491SOL    HW247371   5.800   4.536   6.073
48492SOL     OW47372   4.943   1.023  14.793
48492SOL    HW147373   5.022   0.970  14.778
48492SOL    HW247374   4.881   0.962  14.834
48493SOL     OW47375  14.742   3.136   2.038
48493SOL    HW147376  14.659   3.107   1.998
48493SOL    HW247377  14.809   3.114   1.973
48494SOL     OW47378   4.322   3.322   4.745
48494SOL    HW147379   4.309   3.228   4.730
48494SOL    HW247380   4.351   3.356   4.661
48495SOL     OW47381   8.597   9.315   7.563
48495SOL    HW147382   8.685   9.280   7.550
48495SOL    HW247383   8.600   9.352   7.651
48496SOL     OW47384  12.472   2.241  14.013
48496SOL    HW147385  12.460   2.311  14.078
48496SOL    HW247386  12.390   2.191  14.017
48497SOL     OW47387   3.480  14.421   3.178
48497SOL    HW147388   3.406  14.435   3.237
48497SOL    HW247389   3.441  14.412   3.091
48498SOL     OW47390  10.454  14.448  10.670
48498SOL    HW147391  10.418  14.515  10.728
48498SOL    HW247392  10.514  14.495  10.613
48499SOL     OW47393   8.681   1.279  13.495
48499SOL    HW147394   8.625   1.316  13.563
48499SOL    HW247395   8.764   1.326  13.504
48500SOL     OW47396   9.566   8.252   0.560
48500SOL    HW147397   9.534   8.174   0.604
48500SOL    HW247398   9.531   8.246   0.471
48501SOL     OW47399  12.764  14.085   8.589
48501SOL    HW147400  12.697  14.138   8.633
48501SOL    HW247401  12.734  14.079   8.499
48502SOL     OW47402   0.416  12.698   9.248
48502SOL    HW147403   0.410  12.766   9.315
48502SOL    HW247404   0.383  12.619   9.291
48503SOL     OW47405  12.932   4.821   5.267
48503SOL    HW147406  12.926   4.907   5.227
48503SOL    HW247407  13.022   4.794   5.254
48504SOL     OW47408   5.580   8.428  10.471
48504SOL    HW147409   5.519   8.463  10.407
48504SOL    HW247410   5.524   8.380  10.533
48505SOL     OW47411   5.945  14.212   9.914
48505SOL    HW147412   5.964  14.124   9.944
48505SOL    HW247413   5.864  14.204   9.863
48506SOL     OW47414  11.135   4.407  14.268
48506SOL    HW147415  11.048   4.373  14.292
48506SOL    HW247416  11.183   4.411  14.351
48507SOL     OW47417  10.773   0.316   6.767
48507SOL    HW147418  10.683   0.302   6.735
48507SOL    HW247419  10.767   0.302   6.862
48508SOL     OW47420  14.747   9.061  10.228
48508SOL    HW147421  14.688   9.113  10.283
48508SOL    HW247422  14.772   9.121  10.158
48509SOL     OW47423   8.719  12.997   7.352
48509SOL    HW147424   8.665  13.028   7.425
48509SOL    HW247425   8.724  13.070   7.291
48510SOL     OW47426   7.270   2.360   3.187
48510SOL    HW147427   7.313   2.424   3.244
48510SOL    HW247428   7.324   2.357   3.108
48511SOL     OW47429   0.377   4.645   2.072
48511SOL    HW147430   0.387   4.720   2.013
48511SOL    HW247431   0.458   4.644   2.122
48512SOL     OW47432  13.780   2.522  10.874
48512SOL    HW147433  13.838   2.527  10.950
48512SOL    HW247434  13.830   2.473  10.808
48513SOL     OW47435   6.041  10.690   4.450
48513SOL    HW147436   5.983  10.646   4.512
48513SOL    HW247437   5.982  10.735   4.390
48514SOL     OW47438   1.189   9.266   7.514
48514SOL    HW147439   1.255   9.198   7.497
48514SOL    HW247440   1.223   9.313   7.590
48515SOL     OW47441   0.027   6.996   8.280
48515SOL    HW147442  14.871   6.920   8.233
48515SOL    HW247443   0.045   7.060   8.210
48516SOL     OW47444   3.809  10.440   6.050
48516SOL    HW147445   3.898  10.421   6.019
48516SOL    HW247446   3.754  10.376   6.006
48517SOL     OW47447   6.609  11.283   7.581
48517SOL    HW147448   6.617  11.188   7.575
48517SOL    HW247449   6.690  11.316   7.542
48518SOL     OW47450   6.353   6.295   3.588
48518SOL    HW147451   6.353   6.199   3.594
48518SOL    HW247452   6.270   6.316   3.545
48519SOL     OW47453  11.755   6.641   0.292
48519SOL    HW147454  11.823   6.660   0.356
48519SOL    HW247455  11.775   6.697   0.217
48520SOL     OW47456   5.051   3.565   4.008
48520SOL    HW147457   5.113   3.546   3.938
48520SOL    HW247458   5.090   3.640   4.054
48521SOL     OW47459  12.864   7.697   1.714
48521SOL    HW147460  12.896   7.610   1.690
48521SOL    HW247461  12.889   7.707   1.806
48522SOL     OW47462  11.443  14.751   9.983
48522SOL    HW147463  11.449  14.774  10.076
48522SOL    HW247464  11.531  14.720   9.960
48523SOL     OW47465   1.196  12.381   7.030
48523SOL    HW147466   1.107  12.348   7.036
48523SOL    HW247467   1.186  12.476   7.030
48524SOL     OW47468   6.635   8.368   4.660
48524SOL    HW147469   6.701   8.411   4.715
48524SOL    HW247470   6.655   8.399   4.572
48525SOL     OW47471  11.897  13.768   3.154
48525SOL    HW147472  11.836  13.789   3.224
48525SOL    HW247473  11.983  13.770   3.195
48526SOL     OW47474   1.432   9.819   6.341
48526SOL    HW147475   1.401   9.832   6.251
48526SOL    HW247476   1.513   9.769   6.331
48527SOL     OW47477   5.539  12.472   9.907
48527SOL    HW147478   5.489  12.396   9.877
48527SOL    HW247479   5.599  12.437   9.974
48528SOL     OW47480   0.415   2.287  12.462
48528SOL    HW147481   0.329   2.243  12.463
48528SOL    HW247482   0.478   2.215  12.470
48529SOL     OW47483   1.518   7.501   6.708
48529SOL    HW147484   1.447   7.447   6.740
48529SOL    HW247485   1.539   7.560   6.781
48530SOL     OW47486   7.528   4.178  13.423
48530SOL    HW147487   7.536   4.190  13.329
48530SOL    HW247488   7.443   4.136  13.434
48531SOL     OW47489   1.069   1.341   6.979
48531SOL    HW147490   1.071   1.246   6.966
48531SOL    HW247491   1.003   1.355   7.046
48532SOL     OW47492  13.523   7.787  14.492
48532SOL    HW147493  13.556   7.700  14.472
48532SOL    HW247494  13.573   7.845  14.435
48533SOL     OW47495  10.111  10.135  14.101
48533SOL    HW147496  10.061  10.171  14.175
48533SOL    HW247497  10.141  10.212  14.053
48534SOL     OW47498   2.533   2.070   5.382
48534SOL    HW147499   2.558   1.979   5.398
48534SOL    HW247500   2.441   2.065   5.357
48535SOL     OW47501   5.604   5.535   2.710
48535SOL    HW147502   5.620   5.596   2.783
48535SOL    HW247503   5.514   5.506   2.723
48536SOL     OW47504   5.460  14.307  10.105
48536SOL    HW147505   5.458  14.339  10.195
48536SOL    HW247506   5.479  14.213  10.113
48537SOL     OW47507   9.535   1.192   0.081
48537SOL    HW147508   9.584   1.267   0.117
48537SOL    HW247509   9.443   1.217   0.093
48538SOL     OW47510   3.823   3.511   1.522
48538SOL    HW147511   3.730   3.530   1.506
48538SOL    HW247512   3.843   3.556   1.603
48539SOL     OW47513   4.897  13.848  13.395
48539SOL    HW147514   4.902  13.941  13.417
48539SOL    HW247515   4.855  13.807  13.471
48540SOL     OW47516   1.305  11.561   5.920
48540SOL    HW147517   1.285  11.571   5.827
48540SOL    HW247518   1.235  11.505   5.954
48541SOL     OW47519   8.127   9.157   0.517
48541SOL    HW147520   8.038   9.140   0.546
48541SOL    HW247521   8.181   9.145   0.595
48542SOL     OW47522  13.568   1.387  12.961
48542SOL    HW147523  13.608   1.416  13.043
48542SOL    HW247524  13.567   1.291  12.968
48543SOL     OW47525   8.124  13.374   2.404
48543SOL    HW147526   8.206  13.381   2.452
48543SOL    HW247527   8.150  13.374   2.312
48544SOL     OW47528   5.182   7.528   3.164
48544SOL    HW147529   5.166   7.619   3.190
48544SOL    HW247530   5.241   7.494   3.232
48545SOL     OW47531   4.826   2.004  11.933
48545SOL    HW147532   4.782   2.064  11.874
48545SOL    HW247533   4.887   2.059  11.983
48546SOL     OW47534   6.194   1.575   2.359
48546SOL    HW147535   6.239   1.505   2.405
48546SOL    HW247536   6.197   1.649   2.420
48547SOL     OW47537  11.731   9.403   6.787
48547SOL    HW147538  11.637   9.410   6.804
48547SOL    HW247539  11.743   9.435   6.698
48548SOL     OW47540   6.666   2.279  11.745
48548SOL    HW147541   6.678   2.350  11.683
48548SOL    HW247542   6.749   2.231  11.744
48549SOL     OW47543   6.551   0.420  11.291
48549SOL    HW147544   6.560   0.510  11.262
48549SOL    HW247545   6.556   0.368  11.210
48550SOL     OW47546   0.014  10.100   9.906
48550SOL    HW147547   0.036  10.035   9.972
48550SOL    HW247548   0.041  10.183   9.945
48551SOL     OW47549  14.502   5.053  14.519
48551SOL    HW147550  14.531   5.134  14.477
48551SOL    HW247551  14.575   5.028  14.575
48552SOL     OW47552   3.146   4.016   3.838
48552SOL    HW147553   3.109   4.102   3.818
48552SOL    HW247554   3.074   3.967   3.876
48553SOL     OW47555   7.901  12.596   7.407
48553SOL    HW147556   7.909  12.541   7.485
48553SOL    HW247557   7.981  12.581   7.359
48554SOL     OW47558   3.902   5.900  13.968
48554SOL    HW147559   3.984   5.896  13.920
48554SOL    HW247560   3.882   5.994  13.974
48555SOL     OW47561  12.128   9.562   8.271
48555SOL    HW147562  12.062   9.514   8.221
48555SOL    HW247563  12.084   9.642   8.298
48556SOL     OW47564   4.571   3.694  12.633
48556SOL    HW147565   4.646   3.713  12.576
48556SOL    HW247566   4.606   3.631  12.697
48557SOL     OW47567  13.966   6.777   6.487
48557SOL    HW147568  14.051   6.782   6.531
48557SOL    HW247569  13.938   6.868   6.477
48558SOL     OW47570   2.535   8.308   2.850
48558SOL    HW147571   2.588   8.258   2.788
48558SOL    HW247572   2.492   8.374   2.796
48559SOL     OW47573  13.369   7.478   0.575
48559SOL    HW147574  13.428   7.542   0.616
48559SOL    HW247575  13.423   7.433   0.510
48560SOL     OW47576   4.761   4.680  12.379
48560SOL    HW147577   4.761   4.758  12.324
48560SOL    HW247578   4.851   4.648  12.375
48561SOL     OW47579   5.208  10.516  11.785
48561SOL    HW147580   5.188  10.599  11.828
48561SOL    HW247581   5.189  10.449  11.851
48562SOL     OW47582   6.273   6.897  12.660
48562SOL    HW147583   6.299   6.821  12.712
48562SOL    HW247584   6.317   6.884  12.576
48563SOL     OW47585  11.382  11.791   7.868
48563SOL    HW147586  11.474  11.788   7.896
48563SOL    HW247587  11.349  11.703   7.885
48564SOL     OW47588  12.446   7.577   6.333
48564SOL    HW147589  12.480   7.586   6.422
48564SOL    HW247590  12.451   7.483   6.315
48565SOL     OW47591  14.703   4.901   2.117
48565SOL    HW147592  14.698   4.829   2.055
48565SOL    HW247593  14.733   4.976   2.064
48566SOL     OW47594   2.873  12.773   4.671
48566SOL    HW147595   2.838  12.713   4.736
48566SOL    HW247596   2.881  12.856   4.717
48567SOL     OW47597   8.149  12.789   0.277
48567SOL    HW147598   8.115  12.859   0.222
48567SOL    HW247599   8.183  12.724   0.215
48568SOL     OW47600   5.651  13.477   0.548
48568SOL    HW147601   5.700  13.560   0.544
48568SOL    HW247602   5.585  13.485   0.479
48569SOL     OW47603  14.848   9.284   9.417
48569SOL    HW147604   0.002   9.373   9.403
48569SOL    HW247605  14.877   9.236   9.340
48570SOL     OW47606  14.660   9.209   2.490
48570SOL    HW147607  14.742   9.256   2.473
48570SOL    HW247608  14.602   9.235   2.418
48571SOL     OW47609  10.138   0.687   3.700
48571SOL    HW147610  10.234   0.684   3.705
48571SOL    HW247611  10.110   0.696   3.790
48572SOL     OW47612  12.488  10.200   3.765
48572SOL    HW147613  12.509  10.279   3.815
48572SOL    HW247614  12.507  10.128   3.825
48573SOL     OW47615   4.315   7.642   8.210
48573SOL    HW147616   4.323   7.737   8.219
48573SOL    HW247617   4.359   7.622   8.127
48574SOL     OW47618   4.405  13.925   0.261
48574SOL    HW147619   4.476  13.914   0.198
48574SOL    HW247620   4.394  14.020   0.269
48575SOL     OW47621  10.249  10.516   4.993
48575SOL    HW147622  10.314  10.516   5.063
48575SOL    HW247623  10.175  10.564   5.028
48576SOL     OW47624  12.068   5.531  12.911
48576SOL    HW147625  12.079   5.475  12.834
48576SOL    HW247626  12.038   5.471  12.979
48577SOL     OW47627   8.157  13.755   9.420
48577SOL    HW147628   8.159  13.666   9.454
48577SOL    HW247629   8.249  13.777   9.404
48578SOL     OW47630   2.174  10.332  11.371
48578SOL    HW147631   2.133  10.365  11.451
48578SOL    HW247632   2.141  10.243  11.362
48579SOL     OW47633   7.584   5.187   4.233
48579SOL    HW147634   7.563   5.179   4.326
48579SOL    HW247635   7.526   5.256   4.201
48580SOL     OW47636  14.753   1.308   7.955
48580SOL    HW147637  14.821   1.320   7.889
48580SOL    HW247638  14.721   1.219   7.941
48581SOL     OW47639   1.627  13.763  10.177
48581SOL    HW147640   1.592  13.676  10.157
48581SOL    HW247641   1.663  13.755  10.265
48582SOL     OW47642  11.613  12.707  10.352
48582SOL    HW147643  11.548  12.639  10.368
48582SOL    HW247644  11.697  12.660  10.349
48583SOL     OW47645   3.888  12.213   6.806
48583SOL    HW147646   3.951  12.252   6.867
48583SOL    HW247647   3.803  12.221   6.850
48584SOL     OW47648   6.157   7.662   6.694
48584SOL    HW147649   6.220   7.597   6.727
48584SOL    HW247650   6.104   7.613   6.630
48585SOL     OW47651   0.075  11.662  10.500
48585SOL    HW147652   0.067  11.610  10.580
48585SOL    HW247653   0.007  11.730  10.509
48586SOL     OW47654   6.765  12.443   6.680
48586SOL    HW147655   6.837  12.462   6.620
48586SOL    HW247656   6.806  12.443   6.767
48587SOL     OW47657   9.286   2.464   7.763
48587SOL    HW147658   9.362   2.507   7.802
48587SOL    HW247659   9.314   2.442   7.674
48588SOL     OW47660  10.157   0.277  10.559
48588SOL    HW147661  10.219   0.259  10.488
48588SOL    HW247662  10.183   0.363  10.593
48589SOL     OW47663  13.494   2.584   4.874
48589SOL    HW147664  13.562   2.611   4.812
48589SOL    HW247665  13.452   2.509   4.832
48590SOL     OW47666   7.124  11.416   5.350
48590SOL    HW147667   7.143  11.504   5.316
48590SOL    HW247668   7.116  11.361   5.272
48591SOL     OW47669  10.724   0.674   9.662
48591SOL    HW147670  10.739   0.759   9.703
48591SOL    HW247671  10.631   0.656   9.678
48592SOL     OW47672   3.710  10.831  12.654
48592SOL    HW147673   3.691  10.880  12.574
48592SOL    HW247674   3.624  10.810  12.690
48593SOL     OW47675  13.915   6.215   5.447
48593SOL    HW147676  13.860   6.268   5.388
48593SOL    HW247677  14.001   6.214   5.405
48594SOL     OW47678   6.750  10.933   4.209
48594SOL    HW147679   6.710  10.856   4.250
48594SOL    HW247680   6.757  10.909   4.116
48595SOL     OW47681   8.455   8.183  10.292
48595SOL    HW147682   8.436   8.090  10.283
48595SOL    HW247683   8.529   8.187  10.353
48596SOL     OW47684   5.770  12.246   1.355
48596SOL    HW147685   5.789  12.250   1.262
48596SOL    HW247686   5.852  12.215   1.394
48597SOL     OW47687  14.172   0.742  10.306
48597SOL    HW147688  14.158   0.802  10.379
48597SOL    HW247689  14.098   0.682  10.309
48598SOL     OW47690   7.699  14.008   3.722
48598SOL    HW147691   7.781  14.042   3.757
48598SOL    HW247692   7.664  13.953   3.792
48599SOL     OW47693   3.864   0.824   1.209
48599SOL    HW147694   3.925   0.866   1.148
48599SOL    HW247695   3.915   0.809   1.288
48600SOL     OW47696  14.708   2.026  11.870
48600SOL    HW147697  14.708   2.001  11.963
48600SOL    HW247698  14.767   2.102  11.866
48601SOL     OW47699   5.596   3.890   0.953
48601SOL    HW147700   5.643   3.815   0.990
48601SOL    HW247701   5.571   3.860   0.865
48602SOL     OW47702   2.252  11.804  14.615
48602SOL    HW147703   2.304  11.807  14.695
48602SOL    HW247704   2.316  11.803  14.544
48603SOL     OW47705  12.423   5.489  12.724
48603SOL    HW147706  12.469   5.523  12.800
48603SOL    HW247707  12.337   5.530  12.726
48604SOL     OW47708  12.696   3.077   5.107
48604SOL    HW147709  12.703   3.149   5.044
48604SOL    HW247710  12.768   3.018   5.085
48605SOL     OW47711  14.646  10.090   1.000
48605SOL    HW147712  14.560  10.115   0.968
48605SOL    HW247713  14.657  10.139   1.081
48606SOL     OW47714  11.692  11.249   8.826
48606SOL    HW147715  11.670  11.172   8.878
48606SOL    HW247716  11.635  11.318   8.859
48607SOL     OW47717   3.606   1.515  14.770
48607SOL    HW147718   3.579   1.431  14.808
48607SOL    HW247719   3.692   1.532  14.808
48608SOL     OW47720  10.910   9.792   2.172
48608SOL    HW147721  10.979   9.732   2.202
48608SOL    HW247722  10.885   9.841   2.250
48609SOL     OW47723  14.510   4.670   8.870
48609SOL    HW147724  14.581   4.654   8.808
48609SOL    HW247725  14.456   4.591   8.864
48610SOL     OW47726   9.352  13.465   9.713
48610SOL    HW147727   9.396  13.495   9.792
48610SOL    HW247728   9.367  13.534   9.648
48611SOL     OW47729   0.095   4.439  13.685
48611SOL    HW147730   0.057   4.377  13.623
48611SOL    HW247731   0.021   4.490  13.716
48612SOL     OW47732  14.516  12.984   2.225
48612SOL    HW147733  14.439  13.014   2.274
48612SOL    HW247734  14.586  13.045   2.251
48613SOL     OW47735   1.324   1.044   2.504
48613SOL    HW147736   1.337   1.023   2.596
48613SOL    HW247737   1.237   1.085   2.501
48614SOL     OW47738   1.074   7.854   4.550
48614SOL    HW147739   1.122   7.838   4.469
48614SOL    HW247740   1.128   7.813   4.618
48615SOL     OW47741  10.733  10.356  13.775
48615SOL    HW147742  10.817  10.394  13.800
48615SOL    HW247743  10.696  10.323  13.857
48616SOL     OW47744   9.315  10.581  11.778
48616SOL    HW147745   9.349  10.492  11.778
48616SOL    HW247746   9.346  10.618  11.861
48617SOL     OW47747  11.014  10.083   5.439
48617SOL    HW147748  11.068  10.019   5.392
48617SOL    HW247749  11.069  10.112   5.511
48618SOL     OW47750   7.076   4.999  14.663
48618SOL    HW147751   7.023   4.981  14.585
48618SOL    HW247752   7.037   4.943  14.730
48619SOL     OW47753   4.907  12.435   4.867
48619SOL    HW147754   4.880  12.448   4.958
48619SOL    HW247755   4.878  12.514   4.822
48620SOL     OW47756   2.411   9.053  12.648
48620SOL    HW147757   2.418   8.964  12.684
48620SOL    HW247758   2.341   9.094  12.698
48621SOL     OW47759   1.615   5.155  10.461
48621SOL    HW147760   1.677   5.133  10.531
48621SOL    HW247761   1.550   5.085  10.465
48622SOL     OW47762   2.253  10.491   1.612
48622SOL    HW147763   2.310  10.552   1.658
48622SOL    HW247764   2.270  10.509   1.519
48623SOL     OW47765   2.830  10.851   6.245
48623SOL    HW147766   2.854  10.943   6.256
48623SOL    HW247767   2.739  10.854   6.214
48624SOL     OW47768   4.189   3.147  12.393
48624SOL    HW147769   4.208   3.057  12.364
48624SOL    HW247770   4.273   3.180  12.425
48625SOL     OW47771  10.854   0.183   3.503
48625SOL    HW147772  10.764   0.186   3.534
48625SOL    HW247773  10.906   0.171   3.582
48626SOL     OW47774   8.752  14.134  10.851
48626SOL    HW147775   8.793  14.093  10.775
48626SOL    HW247776   8.775  14.077  10.924
48627SOL     OW47777  14.460   3.940   0.783
48627SOL    HW147778  14.503   4.025   0.785
48627SOL    HW247779  14.367   3.960   0.798
48628SOL     OW47780   6.808   9.716   4.597
48628SOL    HW147781   6.780   9.771   4.524
48628SOL    HW247782   6.729   9.670   4.624
48629SOL     OW47783  14.796   7.661  13.147
48629SOL    HW147784  14.730   7.613  13.097
48629SOL    HW247785  14.771   7.753  13.139
48630SOL     OW47786   3.442   8.619   3.703
48630SOL    HW147787   3.449   8.710   3.674
48630SOL    HW247788   3.494   8.614   3.783
48631SOL     OW47789  10.097   1.591  12.914
48631SOL    HW147790  10.028   1.554  12.859
48631SOL    HW247791  10.125   1.670  12.866
48632SOL     OW47792   5.668   4.205  12.130
48632SOL    HW147793   5.593   4.179  12.076
48632SOL    HW247794   5.683   4.297  12.108
48633SOL     OW47795   4.813   2.629   5.052
48633SOL    HW147796   4.740   2.568   5.064
48633SOL    HW247797   4.889   2.583   5.087
48634SOL     OW47798   5.331  10.894   8.381
48634SOL    HW147799   5.359  10.899   8.289
48634SOL    HW247800   5.319  10.801   8.397
48635SOL     OW47801   6.086   2.444   4.277
48635SOL    HW147802   6.111   2.485   4.195
48635SOL    HW247803   6.072   2.352   4.254
48636SOL     OW47804   5.740   4.396   1.787
48636SOL    HW147805   5.690   4.477   1.793
48636SOL    HW247806   5.748   4.366   1.878
48637SOL     OW47807  10.771  10.421  12.561
48637SOL    HW147808  10.726  10.495  12.602
48637SOL    HW247809  10.863  10.446  12.562
48638SOL     OW47810   4.142  11.869   3.657
48638SOL    HW147811   4.161  11.830   3.742
48638SOL    HW247812   4.217  11.925   3.639
48639SOL     OW47813   1.822   5.274  13.495
48639SOL    HW147814   1.786   5.198  13.449
48639SOL    HW247815   1.773   5.348  13.460
48640SOL     OW47816   7.060   7.307   6.808
48640SOL    HW147817   7.069   7.254   6.887
48640SOL    HW247818   7.036   7.243   6.740
48641SOL     OW47819  12.398   0.419   9.283
48641SOL    HW147820  12.332   0.484   9.259
48641SOL    HW247821  12.349   0.351   9.330
48642SOL     OW47822  13.649   5.418   4.853
48642SOL    HW147823  13.726   5.416   4.911
48642SOL    HW247824  13.581   5.460   4.905
48643SOL     OW47825  13.054  13.508   4.713
48643SOL    HW147826  13.072  13.585   4.659
48643SOL    HW247827  13.137  13.492   4.758
48644SOL     OW47828   7.752   0.201   1.957
48644SOL    HW147829   7.808   0.270   1.993
48644SOL    HW247830   7.780   0.193   1.865
48645SOL     OW47831   2.980   9.697   0.240
48645SOL    HW147832   2.942   9.610   0.236
48645SOL    HW247833   3.063   9.690   0.192
48646SOL     OW47834   7.022   9.931   6.117
48646SOL    HW147835   7.116   9.923   6.097
48646SOL    HW247836   6.986   9.977   6.041
48647SOL     OW47837   8.632   4.971   2.550
48647SOL    HW147838   8.627   4.956   2.455
48647SOL    HW247839   8.648   4.884   2.587
48648SOL     OW47840   2.248   6.687  11.221
48648SOL    HW147841   2.334   6.650  11.241
48648SOL    HW247842   2.211   6.628  11.155
48649SOL     OW47843   9.492   8.454  12.639
48649SOL    HW147844   9.531   8.395  12.703
48649SOL    HW247845   9.401   8.464  12.668
48650SOL     OW47846   6.965   8.882  11.860
48650SOL    HW147847   6.881   8.836  11.864
48650SOL    HW247848   6.941   8.975  11.856
48651SOL     OW47849   8.242  12.912  14.665
48651SOL    HW147850   8.166  12.950  14.620
48651SOL    HW247851   8.306  12.899  14.595
48652SOL     OW47852   1.889  11.326   8.951
48652SOL    HW147853   1.908  11.251   9.007
48652SOL    HW247854   1.800  11.311   8.920
48653SOL     OW47855  12.373   8.139   0.688
48653SOL    HW147856  12.333   8.108   0.769
48653SOL    HW247857  12.324   8.219   0.667
48654SOL     OW47858   9.478   8.229  14.779
48654SOL    HW147859   9.458   8.282  14.857
48654SOL    HW247860   9.402   8.172  14.769
48655SOL     OW47861   4.118   5.154  11.918
48655SOL    HW147862   4.171   5.080  11.948
48655SOL    HW247863   4.061   5.175  11.991
48656SOL     OW47864   1.031  12.840   0.389
48656SOL    HW147865   0.971  12.904   0.428
48656SOL    HW247866   0.986  12.756   0.398
48657SOL     OW47867   7.227   7.991   7.283
48657SOL    HW147868   7.309   7.951   7.252
48657SOL    HW247869   7.251   8.081   7.304
48658SOL     OW47870  14.343   6.090   2.363
48658SOL    HW147871  14.253   6.120   2.352
48658SOL    HW247872  14.365   6.048   2.280
48659SOL     OW47873   9.109   8.751   7.086
48659SOL    HW147874   9.053   8.674   7.071
48659SOL    HW247875   9.047   8.823   7.099
48660SOL     OW47876   1.102   0.537   4.527
48660SOL    HW147877   1.056   0.459   4.557
48660SOL    HW247878   1.192   0.525   4.559
48661SOL     OW47879   9.422   5.283  12.458
48661SOL    HW147880   9.375   5.257  12.378
48661SOL    HW247881   9.356   5.280  12.527
48662SOL     OW47882   0.444   2.881  13.430
48662SOL    HW147883   0.478   2.950  13.487
48662SOL    HW247884   0.520   2.826  13.411
48663SOL     OW47885  11.938  10.759  12.443
48663SOL    HW147886  11.944  10.796  12.355
48663SOL    HW247887  12.013  10.700  12.450
48664SOL     OW47888  11.682   4.324   4.277
48664SOL    HW147889  11.746   4.391   4.301
48664SOL    HW247890  11.639   4.301   4.360
48665SOL     OW47891   8.791   6.146   9.259
48665SOL    HW147892   8.772   6.054   9.241
48665SOL    HW247893   8.863   6.143   9.323
48666SOL     OW47894   1.978   8.208   7.175
48666SOL    HW147895   1.907   8.241   7.119
48666SOL    HW247896   2.003   8.283   7.229
48667SOL     OW47897  11.376   1.019   4.747
48667SOL    HW147898  11.293   0.977   4.724
48667SOL    HW247899  11.352   1.111   4.760
48668SOL     OW47900   0.888   4.325  12.346
48668SOL    HW147901   0.884   4.235  12.313
48668SOL    HW247902   0.829   4.374  12.289
48669SOL     OW47903  12.834   6.234  11.044
48669SOL    HW147904  12.851   6.146  11.011
48669SOL    HW247905  12.879   6.292  10.982
48670SOL     OW47906  12.482   7.185   2.363
48670SOL    HW147907  12.559   7.147   2.405
48670SOL    HW247908  12.501   7.178   2.269
48671SOL     OW47909  13.125   5.154   9.169
48671SOL    HW147910  13.165   5.167   9.255
48671SOL    HW247911  13.045   5.207   9.171
48672SOL     OW47912   0.804   4.489   0.749
48672SOL    HW147913   0.859   4.422   0.708
48672SOL    HW247914   0.723   4.488   0.698
48673SOL     OW47915   7.167   0.026   0.045
48673SOL    HW147916   7.098   0.025  14.856
48673SOL    HW247917   7.215   0.107   0.029
48674SOL     OW47918   2.019  11.038   8.430
48674SOL    HW147919   2.091  11.081   8.477
48674SOL    HW247920   1.978  10.983   8.496
48675SOL     OW47921   9.351  10.508  10.531
48675SOL    HW147922   9.275  10.545  10.484
48675SOL    HW247923   9.386  10.582  10.581
48676SOL     OW47924  13.775  13.920   1.894
48676SOL    HW147925  13.737  13.975   1.963
48676SOL    HW247926  13.737  13.954   1.813
48677SOL     OW47927   9.768  11.152  10.339
48677SOL    HW147928   9.702  11.109  10.285
48677SOL    HW247929   9.720  11.182  10.417
48678SOL     OW47930  12.535   9.757  12.626
48678SOL    HW147931  12.488   9.747  12.709
48678SOL    HW247932  12.494   9.833  12.585
48679SOL     OW47933  11.587   1.713   5.468
48679SOL    HW147934  11.617   1.676   5.551
48679SOL    HW247935  11.646   1.676   5.403
48680SOL     OW47936  13.773   1.455   3.012
48680SOL    HW147937  13.800   1.547   3.020
48680SOL    HW247938  13.800   1.429   2.924
48681SOL     OW47939   5.837   1.263   9.254
48681SOL    HW147940   5.925   1.259   9.217
48681SOL    HW247941   5.840   1.204   9.330
48682SOL     OW47942  14.713   3.040  14.355
48682SOL    HW147943  14.754   3.028  14.441
48682SOL    HW247944  14.654   2.965  14.346
48683SOL     OW47945   0.070  13.385   8.914
48683SOL    HW147946   0.163  13.399   8.894
48683SOL    HW247947   0.027  13.466   8.885
48684SOL     OW47948   2.493   9.161   4.114
48684SOL    HW147949   2.505   9.069   4.088
48684SOL    HW247950   2.582   9.195   4.122
48685SOL     OW47951  14.411   8.544   5.054
48685SOL    HW147952  14.411   8.449   5.037
48685SOL    HW247953  14.490   8.559   5.105
48686SOL     OW47954   0.007   9.787   2.813
48686SOL    HW147955  14.866   9.694   2.806
48686SOL    HW247956   0.099   9.795   2.788
48687SOL     OW47957   0.800  11.705   8.171
48687SOL    HW147958   0.854  11.780   8.196
48687SOL    HW247959   0.711  11.731   8.193
48688SOL     OW47960   1.926   1.018  11.491
48688SOL    HW147961   1.914   0.973  11.407
48688SOL    HW247962   1.861   1.089  11.488
48689SOL     OW47963  12.032   8.713  11.092
48689SOL    HW147964  11.953   8.674  11.054
48689SOL    HW247965  12.039   8.798  11.050
48690SOL     OW47966  12.003  14.783  10.181
48690SOL    HW147967  11.945  14.846  10.224
48690SOL    HW247968  12.038  14.832  10.106
48691SOL     OW47969   9.396   6.495   9.680
48691SOL    HW147970   9.315   6.498   9.730
48691SOL    HW247971   9.465   6.489   9.746
48692SOL     OW47972  11.443   0.440   3.290
48692SOL    HW147973  11.349   0.423   3.279
48692SOL    HW247974  11.480   0.355   3.314
48693SOL     OW47975  14.129  10.059  12.326
48693SOL    HW147976  14.166  10.108  12.399
48693SOL    HW247977  14.201  10.006  12.293
48694SOL     OW47978  10.212   3.664  13.995
48694SOL    HW147979  10.279   3.732  13.989
48694SOL    HW247980  10.131   3.707  13.967
48695SOL     OW47981  11.212   7.859  11.219
48695SOL    HW147982  11.280   7.797  11.191
48695SOL    HW247983  11.130   7.819  11.190
48696SOL     OW47984  13.770   7.692   9.989
48696SOL    HW147985  13.810   7.639   9.920
48696SOL    HW247986  13.716   7.756   9.943
48697SOL     OW47987  13.595   9.656   9.486
48697SOL    HW147988  13.612   9.739   9.441
48697SOL    HW247989  13.505   9.662   9.517
48698SOL     OW47990   6.336   4.246   7.182
48698SOL    HW147991   6.263   4.235   7.121
48698SOL    HW247992   6.373   4.159   7.190
48699SOL     OW47993   3.340   4.953  12.513
48699SOL    HW147994   3.307   4.928  12.599
48699SOL    HW247995   3.403   4.885  12.491
48700SOL     OW47996   5.358  10.107   5.516
48700SOL    HW147997   5.311  10.078   5.438
48700SOL    HW247998   5.292  10.102   5.586
48701SOL     OW47999   4.260   6.415  12.911
48701SOL    HW148000   4.193   6.444  12.850
48701SOL    HW248001   4.327   6.483  12.907
48702SOL     OW48002   8.682   4.112  14.525
48702SOL    HW148003   8.613   4.151  14.578
48702SOL    HW248004   8.731   4.057  14.585
48703SOL     OW48005   5.113   1.536   6.160
48703SOL    HW148006   5.038   1.562   6.106
48703SOL    HW248007   5.078   1.530   6.249
48704SOL     OW48008  12.730   5.627   0.029
48704SOL    HW148009  12.705   5.598   0.117
48704SOL    HW248010  12.817   5.666   0.040
48705SOL     OW48011   6.661  12.407  10.359
48705SOL    HW148012   6.733  12.428  10.300
48705SOL    HW248013   6.654  12.311  10.355
48706SOL     OW48014   6.121   3.030   9.801
48706SOL    HW148015   6.028   3.040   9.825
48706SOL    HW248016   6.134   2.935   9.795
48707SOL     OW48017   7.725   8.942   9.346
48707SOL    HW148018   7.660   8.878   9.376
48707SOL    HW248019   7.799   8.931   9.405
48708SOL     OW48020   0.766   8.877   4.826
48708SOL    HW148021   0.793   8.953   4.775
48708SOL    HW248022   0.825   8.807   4.797
48709SOL     OW48023   1.602   6.627   0.539
48709SOL    HW148024   1.613   6.721   0.548
48709SOL    HW248025   1.667   6.589   0.598
48710SOL     OW48026  12.965   8.875   7.505
48710SOL    HW148027  13.044   8.887   7.557
48710SOL    HW248028  12.994   8.827   7.427
48711SOL     OW48029   6.794   0.945  14.725
48711SOL    HW148030   6.878   0.910  14.695
48711SOL    HW248031   6.785   0.913  14.814
48712SOL     OW48032   3.000  14.675  11.717
48712SOL    HW148033   2.991  14.651  11.809
48712SOL    HW248034   2.979  14.769  11.715
48713SOL     OW48035  12.674   1.462   3.498
48713SOL    HW148036  12.650   1.380   3.541
48713SOL    HW248037  12.592   1.495   3.461
48714SOL     OW48038   1.503   2.142   7.198
48714SOL    HW148039   1.420   2.126   7.154
48714SOL    HW248040   1.501   2.087   7.276
48715SOL     OW48041  14.637   2.630   8.195
48715SOL    HW148042  14.615   2.657   8.106
48715SOL    HW248043  14.702   2.694   8.224
48716SOL     OW48044   4.270   7.849  11.194
48716SOL    HW148045   4.336   7.916  11.212
48716SOL    HW248046   4.251   7.810  11.280
48717SOL     OW48047   2.314   0.437   2.099
48717SOL    HW148048   2.228   0.396   2.103
48717SOL    HW248049   2.296   0.531   2.098
48718SOL     OW48050  13.733   4.122   5.719
48718SOL    HW148051  13.763   4.068   5.646
48718SOL    HW248052  13.696   4.200   5.678
48719SOL     OW48053   9.729   6.303   7.212
48719SOL    HW148054   9.763   6.214   7.215
48719SOL    HW248055   9.801   6.357   7.244
48720SOL     OW48056   6.229   3.830   2.922
48720SOL    HW148057   6.222   3.847   3.016
48720SOL    HW248058   6.301   3.768   2.915
48721SOL     OW48059  12.380  13.404   3.976
48721SOL    HW148060  12.325  13.421   4.052
48721SOL    HW248061  12.462  13.371   4.012
48722SOL     OW48062   5.400   1.279   1.413
48722SOL    HW148063   5.322   1.272   1.468
48722SOL    HW248064   5.473   1.278   1.474
48723SOL     OW48065   4.454   5.580   1.246
48723SOL    HW148066   4.481   5.511   1.307
48723SOL    HW248067   4.399   5.638   1.299
48724SOL     OW48068   7.456  11.545   3.133
48724SOL    HW148069   7.537  11.538   3.184
48724SOL    HW248070   7.433  11.638   3.138
48725SOL     OW48071  13.911   9.582  13.579
48725SOL    HW148072  13.926   9.611  13.489
48725SOL    HW248073  13.997   9.585  13.619
48726SOL     OW48074  11.341   5.678   1.732
48726SOL    HW148075  11.312   5.614   1.667
48726SOL    HW248076  11.260   5.713   1.769
48727SOL     OW48077   9.463  10.430   9.339
48727SOL    HW148078   9.422  10.343   9.332
48727SOL    HW248079   9.457  10.451   9.433
48728SOL     OW48080  11.043  14.644  14.070
48728SOL    HW148081  11.132  14.678  14.085
48728SOL    HW248082  10.987  14.721  14.078
48729SOL     OW48083  11.169   5.183   9.799
48729SOL    HW148084  11.111   5.117   9.761
48729SOL    HW248085  11.227   5.209   9.727
48730SOL     OW48086  14.270  12.960  10.604
48730SOL    HW148087  14.215  12.962  10.525
48730SOL    HW248088  14.353  12.923  10.575
48731SOL     OW48089   0.173   8.910   8.414
48731SOL    HW148090   0.100   8.847   8.416
48731SOL    HW248091   0.135   8.990   8.450
48732SOL     OW48092   5.283   6.861   2.575
48732SOL    HW148093   5.198   6.830   2.546
48732SOL    HW248094   5.286   6.953   2.548
48733SOL     OW48095   2.860   6.673   9.228
48733SOL    HW148096   2.855   6.755   9.179
48733SOL    HW248097   2.804   6.613   9.180
48734SOL     OW48098   8.292   5.990   3.723
48734SOL    HW148099   8.207   5.948   3.711
48734SOL    HW248100   8.286   6.072   3.673
48735SOL     OW48101   7.068   9.855  10.032
48735SOL    HW148102   7.111   9.772  10.013
48735SOL    HW248103   7.012   9.871   9.956
48736SOL     OW48104   3.932   5.469   3.808
48736SOL    HW148105   3.957   5.389   3.761
48736SOL    HW248106   3.932   5.537   3.740
48737SOL     OW48107  12.453   4.888   3.527
48737SOL    HW148108  12.500   4.808   3.549
48737SOL    HW248109  12.374   4.858   3.481
48738SOL     OW48110   9.505  12.707   8.314
48738SOL    HW148111   9.411  12.693   8.331
48738SOL    HW248112   9.507  12.771   8.243
48739SOL     OW48113   3.157   6.455   3.308
48739SOL    HW148114   3.142   6.457   3.403
48739SOL    HW248115   3.144   6.363   3.285
48740SOL     OW48116  13.692  12.474  10.374
48740SOL    HW148117  13.750  12.485  10.298
48740SOL    HW248118  13.606  12.503  10.343
48741SOL     OW48119  10.858  13.839  14.801
48741SOL    HW148120  10.842  13.772  14.735
48741SOL    HW248121  10.825  13.920  14.761
48742SOL     OW48122   9.102   6.808  13.950
48742SOL    HW148123   9.123   6.716  13.933
48742SOL    HW248124   9.126   6.853  13.869
48743SOL     OW48125   1.361   1.212  13.828
48743SOL    HW148126   1.299   1.284  13.840
48743SOL    HW248127   1.412   1.211  13.910
48744SOL     OW48128   2.102   2.338   9.555
48744SOL    HW148129   2.132   2.257   9.516
48744SOL    HW248130   2.167   2.404   9.528
48745SOL     OW48131   6.568  12.893   8.788
48745SOL    HW148132   6.529  12.978   8.768
48745SOL    HW248133   6.493  12.835   8.803
48746SOL     OW48134  13.631   6.044   0.515
48746SOL    HW148135  13.724   6.036   0.534
48746SOL    HW248136  13.592   6.072   0.598
48747SOL     OW48137  11.363   8.359  13.684
48747SOL    HW148138  11.437   8.406  13.646
48747SOL    HW248139  11.342   8.292  13.619
48748SOL     OW48140   6.232   5.853  13.822
48748SOL    HW148141   6.252   5.917  13.754
48748SOL    HW248142   6.138   5.862  13.838
48749SOL     OW48143  14.172  12.572   9.270
48749SOL    HW148144  14.129  12.496   9.309
48749SOL    HW248145  14.217  12.537   9.193
48750SOL     OW48146   4.098  13.596   3.643
48750SOL    HW148147   4.118  13.618   3.733
48750SOL    HW248148   4.180  13.562   3.607
48751SOL     OW48149   4.394   7.453  11.937
48751SOL    HW148150   4.365   7.523  11.878
48751SOL    HW248151   4.316   7.428  11.986
48752SOL     OW48152  12.113  10.396   4.154
48752SOL    HW148153  12.028  10.435   4.172
48752SOL    HW248154  12.174  10.470   4.154
48753SOL     OW48155   3.744   7.986   5.923
48753SOL    HW148156   3.771   8.010   5.834
48753SOL    HW248157   3.822   8.004   5.977
48754SOL     OW48158  11.519  14.174   8.029
48754SOL    HW148159  11.432  14.199   8.062
48754SOL    HW248160  11.545  14.246   7.973
48755SOL     OW48161  12.961   0.467   6.957
48755SOL    HW148162  13.051   0.491   6.937
48755SOL    HW248163  12.931   0.533   7.020
48756SOL     OW48164   1.104   2.063  12.160
48756SOL    HW148165   1.053   2.025  12.232
48756SOL    HW248166   1.082   2.157  12.164
48757SOL     OW48167   8.479  11.806   1.679
48757SOL    HW148168   8.565  11.789   1.717
48757SOL    HW248169   8.417  11.781   1.747
48758SOL     OW48170   7.492  13.766  11.499
48758SOL    HW148171   7.447  13.808  11.426
48758SOL    HW248172   7.585  13.779  11.480
48759SOL     OW48173   3.807   3.918  12.690
48759SOL    HW148174   3.796   3.832  12.731
48759SOL    HW248175   3.752   3.977  12.742
48760SOL     OW48176   6.231  11.983  13.820
48760SOL    HW148177   6.295  11.995  13.891
48760SOL    HW248178   6.275  11.926  13.758
48761SOL     OW48179   9.747   4.993   6.534
48761SOL    HW148180   9.728   4.904   6.506
48761SOL    HW248181   9.734   5.046   6.455
48762SOL     OW48182  10.039  10.110   0.374
48762SOL    HW148183  10.094  10.127   0.298
48762SOL    HW248184   9.993  10.193   0.390
48763SOL     OW48185  10.251   7.409  10.798
48763SOL    HW148186  10.223   7.356  10.723
48763SOL    HW248187  10.288   7.488  10.759
48764SOL     OW48188   9.865   1.164   6.949
48764SOL    HW148189   9.783   1.116   6.941
48764SOL    HW248190   9.913   1.143   6.869
48765SOL     OW48191   0.747   9.255  13.685
48765SOL    HW148192   0.759   9.349  13.678
48765SOL    HW248193   0.660   9.245  13.724
48766SOL     OW48194  12.538   8.423   2.980
48766SOL    HW148195  12.604   8.416   2.910
48766SOL    HW248196  12.475   8.488   2.947
48767SOL     OW48197   9.590  12.499   4.726
48767SOL    HW148198   9.615  12.407   4.734
48767SOL    HW248199   9.666  12.548   4.759
48768SOL     OW48200   9.914   1.872   9.938
48768SOL    HW148201   9.829   1.916   9.946
48768SOL    HW248202   9.896   1.794   9.887
48769SOL     OW48203   0.222   9.699  14.651
48769SOL    HW148204   0.174   9.740  14.723
48769SOL    HW248205   0.231   9.607  14.677
48770SOL     OW48206  11.313   9.054   7.800
48770SOL    HW148207  11.378   9.023   7.864
48770SOL    HW248208  11.364   9.102   7.735
48771SOL     OW48209   2.422  10.515   7.603
48771SOL    HW148210   2.516  10.511   7.623
48771SOL    HW248211   2.389  10.583   7.662
48772SOL     OW48212   9.617   4.471   9.005
48772SOL    HW148213   9.591   4.468   8.913
48772SOL    HW248214   9.536   4.459   9.054
48773SOL     OW48215   3.601  13.257   0.581
48773SOL    HW148216   3.677  13.221   0.534
48773SOL    HW248217   3.604  13.214   0.667
48774SOL     OW48218   2.120   5.729   3.636
48774SOL    HW148219   2.169   5.736   3.554
48774SOL    HW248220   2.187   5.713   3.702
48775SOL     OW48221  11.397   8.118   8.662
48775SOL    HW148222  11.324   8.162   8.619
48775SOL    HW248223  11.473   8.174   8.644
48776SOL     OW48224   0.084   0.756   9.490
48776SOL    HW148225   0.156   0.818   9.475
48776SOL    HW248226   0.031   0.797   9.558
48777SOL     OW48227   3.499   9.273   9.853
48777SOL    HW148228   3.526   9.281   9.762
48777SOL    HW248229   3.452   9.190   9.858
48778SOL     OW48230   0.834   8.943   6.301
48778SOL    HW148231   0.770   8.990   6.249
48778SOL    HW248232   0.857   9.003   6.372
48779SOL     OW48233  11.101   8.520   3.967
48779SOL    HW148234  11.158   8.444   3.980
48779SOL    HW248235  11.049   8.525   4.047
48780SOL     OW48236   6.279   7.822  10.627
48780SOL    HW148237   6.203   7.776  10.662
48780SOL    HW248238   6.297   7.780  10.543
48781SOL     OW48239   7.814   1.819  13.422
48781SOL    HW148240   7.851   1.907  13.415
48781SOL    HW248241   7.739   1.821  13.361
48782SOL     OW48242  14.220  12.472  10.403
48782SOL    HW148243  14.223  12.386  10.443
48782SOL    HW248244  14.302  12.479  10.355
48783SOL     OW48245   6.246  12.950   3.707
48783SOL    HW148246   6.314  13.010   3.737
48783SOL    HW248247   6.210  12.911   3.787
48784SOL     OW48248   3.774   0.616  11.091
48784SOL    HW148249   3.870   0.624  11.096
48784SOL    HW248250   3.757   0.525  11.113
48785SOL     OW48251  13.635   3.231   2.538
48785SOL    HW148252  13.680   3.171   2.597
48785SOL    HW248253  13.583   3.287   2.595
48786SOL     OW48254  10.845  11.398   3.276
48786SOL    HW148255  10.832  11.476   3.330
48786SOL    HW248256  10.938  11.399   3.254
48787SOL     OW48257   3.066  14.234   8.394
48787SOL    HW148258   3.107  14.292   8.458
48787SOL    HW248259   2.979  14.273   8.379
48788SOL     OW48260   6.873   1.197   3.054
48788SOL    HW148261   6.959   1.172   3.087
48788SOL    HW248262   6.891   1.260   2.984
48789SOL     OW48263   6.108   3.851   8.411
48789SOL    HW148264   6.105   3.813   8.323
48789SOL    HW248265   6.049   3.926   8.408
48790SOL     OW48266   4.392  12.474   0.774
48790SOL    HW148267   4.469  12.492   0.721
48790SOL    HW248268   4.355  12.560   0.792
48791SOL     OW48269  11.923   8.593   7.644
48791SOL    HW148270  11.931   8.673   7.593
48791SOL    HW248271  12.012   8.578   7.679
48792SOL     OW48272   1.879   4.835  11.250
48792SOL    HW148273   1.792   4.834  11.211
48792SOL    HW248274   1.889   4.924  11.285
48793SOL     OW48275  13.302   7.623   6.062
48793SOL    HW148276  13.320   7.676   6.140
48793SOL    HW248277  13.208   7.632   6.047
48794SOL     OW48278   8.525  10.616   2.930
48794SOL    HW148279   8.522  10.698   2.979
48794SOL    HW248280   8.616  10.607   2.903
48795SOL     OW48281   7.168   8.581   5.177
48795SOL    HW148282   7.175   8.550   5.267
48795SOL    HW248283   7.147   8.503   5.126
48796SOL     OW48284  10.975  14.068   8.261
48796SOL    HW148285  11.029  14.010   8.208
48796SOL    HW248286  10.897  14.016   8.282
48797SOL     OW48287   1.437  11.808   5.585
48797SOL    HW148288   1.432  11.724   5.538
48797SOL    HW248289   1.347  11.828   5.609
48798SOL     OW48290   4.870  10.630  12.325
48798SOL    HW148291   4.870  10.725  12.310
48798SOL    HW248292   4.935  10.596  12.264
48799SOL     OW48293  14.859   5.085  12.420
48799SOL    HW148294  14.819   5.066  12.505
48799SOL    HW248295  14.876   5.179  12.422
48800SOL     OW48296  12.939   4.069   6.231
48800SOL    HW148297  12.954   4.026   6.315
48800SOL    HW248298  12.954   4.162   6.248
48801SOL     OW48299  10.331   8.471   1.064
48801SOL    HW148300  10.369   8.383   1.057
48801SOL    HW248301  10.355   8.515   0.983
48802SOL     OW48302  12.436   1.848   8.460
48802SOL    HW148303  12.443   1.924   8.402
48802SOL    HW248304  12.362   1.798   8.425
48803SOL     OW48305   2.013   4.999   5.656
48803SOL    HW148306   2.070   5.000   5.733
48803SOL    HW248307   1.925   4.985   5.692
48804SOL     OW48308   5.542   2.589   5.644
48804SOL    HW148309   5.558   2.666   5.698
48804SOL    HW248310   5.625   2.572   5.600
48805SOL     OW48311  11.580   8.760   2.158
48805SOL    HW148312  11.626   8.705   2.094
48805SOL    HW248313  11.488   8.756   2.130
48806SOL     OW48314   9.363   5.763   5.059
48806SOL    HW148315   9.312   5.771   5.140
48806SOL    HW248316   9.354   5.671   5.034
48807SOL     OW48317  11.651   7.800  10.072
48807SOL    HW148318  11.619   7.815  10.161
48807SOL    HW248319  11.737   7.841  10.070
48808SOL     OW48320  14.684   5.083   7.830
48808SOL    HW148321  14.619   5.133   7.878
48808SOL    HW248322  14.662   5.097   7.738
48809SOL     OW48323  10.778   6.031   8.216
48809SOL    HW148324  10.859   6.082   8.224
48809SOL    HW248325  10.729   6.075   8.147
48810SOL     OW48326   5.981   9.441   0.085
48810SOL    HW148327   5.999   9.389   0.006
48810SOL    HW248328   5.945   9.523   0.051
48811SOL     OW48329  11.355   7.742   1.876
48811SOL    HW148330  11.416   7.700   1.936
48811SOL    HW248331  11.394   7.730   1.790
48812SOL     OW48332   3.022   1.742   7.105
48812SOL    HW148333   2.971   1.823   7.114
48812SOL    HW248334   2.970   1.676   7.150
48813SOL     OW48335   4.739  10.663   0.587
48813SOL    HW148336   4.654  10.638   0.624
48813SOL    HW248337   4.798  10.593   0.615
48814SOL     OW48338   8.170   4.234  10.120
48814SOL    HW148339   8.094   4.215  10.175
48814SOL    HW248340   8.223   4.294  10.172
48815SOL     OW48341   2.031  11.326  10.331
48815SOL    HW148342   1.963  11.389  10.356
48815SOL    HW248343   2.022  11.254  10.393
48816SOL     OW48344   8.053  14.253  14.637
48816SOL    HW148345   7.961  14.251  14.665
48816SOL    HW248346   8.069  14.166  14.599
48817SOL     OW48347  10.550   5.444   2.076
48817SOL    HW148348  10.615   5.441   2.005
48817SOL    HW248349  10.592   5.399   2.149
48818SOL     OW48350  14.399   5.570  12.328
48818SOL    HW148351  14.394   5.656  12.285
48818SOL    HW248352  14.420   5.590  12.419
48819SOL     OW48353   6.843  13.744   6.296
48819SOL    HW148354   6.906  13.807   6.262
48819SOL    HW248355   6.882  13.713   6.378
48820SOL     OW48356  10.463   2.286   2.705
48820SOL    HW148357  10.442   2.358   2.764
48820SOL    HW248358  10.401   2.216   2.728
48821SOL     OW48359  14.660   9.285   6.547
48821SOL    HW148360  14.648   9.250   6.635
48821SOL    HW248361  14.579   9.332   6.528
48822SOL     OW48362   7.801   8.448   5.133
48822SOL    HW148363   7.884   8.465   5.178
48822SOL    HW248364   7.814   8.480   5.044
48823SOL     OW48365  13.976   7.028   6.776
48823SOL    HW148366  13.913   7.020   6.848
48823SOL    HW248367  14.011   6.940   6.766
48824SOL     OW48368   7.320   4.118   3.446
48824SOL    HW148369   7.247   4.174   3.418
48824SOL    HW248370   7.363   4.169   3.515
48825SOL     OW48371   5.171   1.032   7.522
48825SOL    HW148372   5.251   0.996   7.559
48825SOL    HW248373   5.101   0.984   7.566
48826SOL     OW48374   5.074  10.183   6.751
48826SOL    HW148375   4.984  10.163   6.777
48826SOL    HW248376   5.129  10.130   6.809
48827SOL     OW48377   2.235  10.909   2.508
48827SOL    HW148378   2.172  10.981   2.509
48827SOL    HW248379   2.213  10.858   2.431
48828SOL     OW48380   9.769   1.346  14.867
48828SOL    HW148381   9.755   1.305   0.074
48828SOL    HW248382   9.768   1.440   0.008
48829SOL     OW48383  10.251  12.921   8.662
48829SOL    HW148384  10.279  12.973   8.738
48829SOL    HW248385  10.158  12.944   8.651
48830SOL     OW48386   8.421  10.165   6.475
48830SOL    HW148387   8.392  10.192   6.562
48830SOL    HW248388   8.516  10.165   6.480
48831SOL     OW48389  11.018   4.276  12.249
48831SOL    HW148390  11.039   4.235  12.165
48831SOL    HW248391  10.928   4.308  12.238
48832SOL     OW48392  13.288   5.864   6.766
48832SOL    HW148393  13.354   5.839   6.829
48832SOL    HW248394  13.322   5.944   6.726
48833SOL     OW48395   0.593  11.810  11.530
48833SOL    HW148396   0.636  11.867  11.467
48833SOL    HW248397   0.656  11.740  11.547
48834SOL     OW48398   3.836   2.077   1.412
48834SOL    HW148399   3.810   2.003   1.356
48834SOL    HW248400   3.844   2.150   1.351
48835SOL     OW48401   9.400  13.750   5.358
48835SOL    HW148402   9.374  13.677   5.415
48835SOL    HW248403   9.413  13.824   5.417
48836SOL     OW48404  12.866  13.819  13.715
48836SOL    HW148405  12.925  13.887  13.750
48836SOL    HW248406  12.826  13.780  13.793
48837SOL     OW48407  10.640   9.904   6.861
48837SOL    HW148408  10.704   9.963   6.822
48837SOL    HW248409  10.561   9.958   6.871
48838SOL     OW48410   1.878   3.370   1.882
48838SOL    HW148411   1.852   3.303   1.818
48838SOL    HW248412   1.801   3.426   1.891
48839SOL     OW48413   1.065   5.470   0.498
48839SOL    HW148414   1.025   5.427   0.423
48839SOL    HW248415   1.159   5.467   0.480
48840SOL     OW48416   6.758  13.760   8.570
48840SOL    HW148417   6.784  13.852   8.562
48840SOL    HW248418   6.830  13.712   8.528
48841SOL     OW48419  14.155   6.801   0.776
48841SOL    HW148420  14.232   6.798   0.720
48841SOL    HW248421  14.119   6.889   0.763
48842SOL     OW48422   6.985   1.335   8.993
48842SOL    HW148423   6.925   1.280   9.044
48842SOL    HW248424   7.072   1.316   9.029
48843SOL     OW48425   0.458  11.958   9.193
48843SOL    HW148426   0.480  11.957   9.100
48843SOL    HW248427   0.520  12.020   9.232
48844SOL     OW48428   5.915  11.588   1.557
48844SOL    HW148429   5.902  11.594   1.463
48844SOL    HW248430   5.940  11.676   1.584
48845SOL     OW48431   0.689   6.884   3.070
48845SOL    HW148432   0.636   6.831   3.010
48845SOL    HW248433   0.779   6.872   3.039
48846SOL     OW48434   6.168   3.903   5.798
48846SOL    HW148435   6.086   3.865   5.828
48846SOL    HW248436   6.232   3.881   5.866
48847SOL     OW48437   5.881  10.714  10.231
48847SOL    HW148438   5.914  10.774  10.298
48847SOL    HW248439   5.957  10.695  10.176
48848SOL     OW48440   7.604   4.080   8.884
48848SOL    HW148441   7.586   4.065   8.976
48848SOL    HW248442   7.526   4.126   8.852
48849SOL     OW48443   5.482   5.730  14.657
48849SOL    HW148444   5.389   5.738  14.635
48849SOL    HW248445   5.489   5.647  14.704
48850SOL     OW48446   3.864   8.345   0.250
48850SOL    HW148447   3.921   8.302   0.186
48850SOL    HW248448   3.786   8.368   0.201
48851SOL     OW48449  14.155   9.333   5.394
48851SOL    HW148450  14.125   9.418   5.426
48851SOL    HW248451  14.206   9.354   5.315
48852SOL     OW48452  12.363   9.721  12.841
48852SOL    HW148453  12.351   9.627  12.835
48852SOL    HW248454  12.374   9.738  12.935
48853SOL     OW48455   4.922  11.607   0.073
48853SOL    HW148456   4.885  11.539   0.017
48853SOL    HW248457   4.867  11.607   0.151
48854SOL     OW48458   8.986   7.274  10.730
48854SOL    HW148459   8.961   7.215  10.801
48854SOL    HW248460   8.905   7.318  10.705
48855SOL     OW48461  13.754   9.217   8.914
48855SOL    HW148462  13.667   9.243   8.944
48855SOL    HW248463  13.738   9.172   8.831
48856SOL     OW48464  12.977   9.734   1.174
48856SOL    HW148465  12.923   9.749   1.252
48856SOL    HW248466  12.998   9.641   1.177
48857SOL     OW48467  12.804  14.747   3.774
48857SOL    HW148468  12.741  14.817   3.754
48857SOL    HW248469  12.885  14.794   3.796
48858SOL     OW48470  11.250  11.074   7.540
48858SOL    HW148471  11.181  11.101   7.479
48858SOL    HW248472  11.261  10.980   7.525
48859SOL     OW48473   0.443  14.559  11.035
48859SOL    HW148474   0.472  14.649  11.051
48859SOL    HW248475   0.392  14.564  10.954
48860SOL     OW48476   9.389   0.533  12.585
48860SOL    HW148477   9.385   0.458  12.644
48860SOL    HW248478   9.483   0.548  12.571
48861SOL     OW48479  11.329   0.190   3.015
48861SOL    HW148480  11.329   0.094   3.005
48861SOL    HW248481  11.414   0.209   3.055
48862SOL     OW48482  12.737   1.192   8.288
48862SOL    HW148483  12.756   1.099   8.270
48862SOL    HW248484  12.744   1.199   8.383
48863SOL     OW48485  12.045   9.311   2.475
48863SOL    HW148486  12.094   9.301   2.393
48863SOL    HW248487  11.958   9.278   2.454
48864SOL     OW48488   6.535   8.982   5.505
48864SOL    HW148489   6.489   8.939   5.576
48864SOL    HW248490   6.470   9.041   5.467
48865SOL     OW48491   7.966   8.037   3.194
48865SOL    HW148492   7.940   7.945   3.189
48865SOL    HW248493   8.020   8.043   3.272
48866SOL     OW48494  12.135   4.654  13.776
48866SOL    HW148495  12.172   4.743  13.780
48866SOL    HW248496  12.099   4.640  13.864
48867SOL     OW48497   3.084   2.139   4.311
48867SOL    HW148498   3.066   2.069   4.373
48867SOL    HW248499   3.078   2.098   4.225
48868SOL     OW48500   9.342   1.122   4.571
48868SOL    HW148501   9.364   1.057   4.505
48868SOL    HW248502   9.383   1.090   4.651
48869SOL     OW48503   1.937   1.222   8.785
48869SOL    HW148504   1.908   1.305   8.749
48869SOL    HW248505   2.029   1.236   8.809
48870SOL     OW48506  10.387   7.916   2.318
48870SOL    HW148507  10.406   7.977   2.247
48870SOL    HW248508  10.461   7.926   2.378
48871SOL     OW48509   4.793   5.999   3.190
48871SOL    HW148510   4.809   5.905   3.190
48871SOL    HW248511   4.875   6.037   3.223
48872SOL     OW48512  11.212   4.107   2.754
48872SOL    HW148513  11.231   4.138   2.842
48872SOL    HW248514  11.126   4.145   2.734
48873SOL     OW48515   0.224   7.557   5.574
48873SOL    HW148516   0.305   7.568   5.623
48873SOL    HW248517   0.202   7.464   5.584
48874SOL     OW48518   9.176  13.978   6.791
48874SOL    HW148519   9.105  14.007   6.733
48874SOL    HW248520   9.188  13.886   6.770
48875SOL     OW48521   0.637   0.843   4.931
48875SOL    HW148522   0.695   0.873   5.002
48875SOL    HW248523   0.582   0.919   4.911
48876SOL     OW48524  11.083   1.982  14.179
48876SOL    HW148525  11.108   1.922  14.248
48876SOL    HW248526  10.987   1.988  14.186
48877SOL     OW48527   7.271   0.684   5.107
48877SOL    HW148528   7.353   0.723   5.136
48877SOL    HW248529   7.229   0.752   5.054
48878SOL     OW48530   0.576   4.507   2.219
48878SOL    HW148531   0.630   4.451   2.163
48878SOL    HW248532   0.499   4.454   2.239
48879SOL     OW48533  10.427   8.390   5.439
48879SOL    HW148534  10.470   8.375   5.354
48879SOL    HW248535  10.450   8.480   5.461
48880SOL     OW48536   2.134   2.321   4.320
48880SOL    HW148537   2.145   2.240   4.270
48880SOL    HW248538   2.145   2.390   4.255
48881SOL     OW48539  10.265   7.669   5.332
48881SOL    HW148540  10.191   7.654   5.274
48881SOL    HW248541  10.331   7.607   5.303
48882SOL     OW48542   2.241  13.223   1.365
48882SOL    HW148543   2.250  13.165   1.441
48882SOL    HW248544   2.258  13.167   1.289
48883SOL     OW48545   7.450   9.353  12.213
48883SOL    HW148546   7.359   9.352  12.241
48883SOL    HW248547   7.468   9.264  12.185
48884SOL     OW48548   5.649   5.578   2.036
48884SOL    HW148549   5.626   5.536   2.119
48884SOL    HW248550   5.565   5.611   2.002
48885SOL     OW48551  12.216   9.889   9.450
48885SOL    HW148552  12.184   9.802   9.476
48885SOL    HW248553  12.311   9.878   9.443
48886SOL     OW48554   6.436   2.791   5.990
48886SOL    HW148555   6.347   2.757   5.998
48886SOL    HW248556   6.440   2.829   5.903
48887SOL     OW48557   4.300   9.712   1.569
48887SOL    HW148558   4.209   9.739   1.567
48887SOL    HW248559   4.324   9.702   1.477
48888SOL     OW48560  12.057  10.217  11.010
48888SOL    HW148561  12.005  10.296  11.022
48888SOL    HW248562  12.143  10.239  11.045
48889SOL     OW48563   5.032   0.650   1.668
48889SOL    HW148564   4.972   0.589   1.625
48889SOL    HW248565   5.085   0.594   1.725
48890SOL     OW48566  10.930   2.232   1.876
48890SOL    HW148567  10.905   2.233   1.969
48890SOL    HW248568  10.913   2.142   1.848
48891SOL     OW48569   8.672  10.362   8.077
48891SOL    HW148570   8.662  10.456   8.063
48891SOL    HW248571   8.654  10.349   8.170
48892SOL     OW48572   8.893  13.280   9.292
48892SOL    HW148573   8.860  13.281   9.382
48892SOL    HW248574   8.956  13.208   9.290
48893SOL     OW48575  12.265   5.479  10.455
48893SOL    HW148576  12.251   5.386  10.472
48893SOL    HW248577  12.181   5.511  10.421
48894SOL     OW48578   1.815   5.446  11.013
48894SOL    HW148579   1.776   5.476  10.930
48894SOL    HW248580   1.844   5.357  10.995
48895SOL     OW48581  12.660  12.352   3.858
48895SOL    HW148582  12.691  12.410   3.788
48895SOL    HW248583  12.723  12.280   3.859
48896SOL     OW48584  13.765   3.508  11.624
48896SOL    HW148585  13.812   3.515  11.540
48896SOL    HW248586  13.810   3.569  11.682
48897SOL     OW48587  10.406  14.515   1.885
48897SOL    HW148588  10.395  14.473   1.800
48897SOL    HW248589  10.422  14.443   1.946
48898SOL     OW48590   7.547   0.904   2.156
48898SOL    HW148591   7.606   0.873   2.087
48898SOL    HW248592   7.490   0.968   2.112
48899SOL     OW48593   5.126   4.659   6.219
48899SOL    HW148594   5.137   4.686   6.310
48899SOL    HW248595   5.194   4.593   6.205
48900SOL     OW48596   2.905  12.439  12.259
48900SOL    HW148597   2.873  12.515  12.307
48900SOL    HW248598   2.987  12.468  12.219
48901SOL     OW48599   7.098  13.602   2.970
48901SOL    HW148600   7.050  13.614   2.888
48901SOL    HW248601   7.104  13.507   2.981
48902SOL     OW48602  14.452  12.058   1.116
48902SOL    HW148603  14.501  12.037   1.196
48902SOL    HW248604  14.369  12.093   1.147
48903SOL     OW48605   1.946  12.110   4.160
48903SOL    HW148606   1.971  12.196   4.193
48903SOL    HW248607   1.982  12.106   4.071
48904SOL     OW48608   0.423   3.882  11.117
48904SOL    HW148609   0.381   3.829  11.185
48904SOL    HW248610   0.476   3.819  11.068
48905SOL     OW48611  13.138   2.124   9.080
48905SOL    HW148612  13.063   2.184   9.076
48905SOL    HW248613  13.214   2.180   9.064
48906SOL     OW48614   7.484   4.431  12.542
48906SOL    HW148615   7.443   4.354  12.502
48906SOL    HW248616   7.532   4.473  12.471
48907SOL     OW48617   4.798   1.079   3.856
48907SOL    HW148618   4.743   1.121   3.922
48907SOL    HW248619   4.744   1.007   3.822
48908SOL     OW48620   0.458   3.032  12.771
48908SOL    HW148621   0.400   3.058  12.842
48908SOL    HW248622   0.434   3.088  12.697
48909SOL     OW48623   4.482   5.245   8.845
48909SOL    HW148624   4.553   5.305   8.867
48909SOL    HW248625   4.407   5.303   8.828
48910SOL     OW48626  11.722   2.390   5.097
48910SOL    HW148627  11.639   2.352   5.069
48910SOL    HW248628  11.784   2.367   5.028
48911SOL     OW48629   7.183   9.256  11.336
48911SOL    HW148630   7.186   9.231  11.244
48911SOL    HW248631   7.193   9.174  11.384
48912SOL     OW48632   9.846   2.152  13.405
48912SOL    HW148633   9.807   2.084  13.459
48912SOL    HW248634   9.796   2.231  13.427
48913SOL     OW48635   1.450  14.085   0.132
48913SOL    HW148636   1.456  14.137   0.052
48913SOL    HW248637   1.490  14.140   0.199
48914SOL     OW48638  11.210   5.028   6.261
48914SOL    HW148639  11.144   5.037   6.193
48914SOL    HW248640  11.209   4.936   6.284
48915SOL     OW48641   5.582   0.258   9.439
48915SOL    HW148642   5.658   0.295   9.396
48915SOL    HW248643   5.607   0.248   9.530
48916SOL     OW48644   4.528   0.536   2.834
48916SOL    HW148645   4.502   0.556   2.745
48916SOL    HW248646   4.596   0.601   2.854
48917SOL     OW48647  11.099  10.855   9.722
48917SOL    HW148648  11.114  10.928   9.662
48917SOL    HW248649  11.179  10.802   9.717
48918SOL     OW48650   4.772   2.825   3.615
48918SOL    HW148651   4.812   2.738   3.611
48918SOL    HW248652   4.698   2.815   3.676
48919SOL     OW48653  10.983   6.384   0.572
48919SOL    HW148654  10.925   6.440   0.624
48919SOL    HW248655  10.945   6.297   0.579
48920SOL     OW48656   2.517   3.548   3.828
48920SOL    HW148657   2.466   3.509   3.757
48920SOL    HW248658   2.608   3.530   3.806
48921SOL     OW48659  14.094   4.583  11.931
48921SOL    HW148660  14.033   4.638  11.882
48921SOL    HW248661  14.126   4.519  11.867
48922SOL     OW48662   4.807   5.836   5.667
48922SOL    HW148663   4.885   5.800   5.710
48922SOL    HW248664   4.823   5.930   5.663
48923SOL     OW48665   6.438   4.730   2.199
48923SOL    HW148666   6.347   4.745   2.224
48923SOL    HW248667   6.433   4.682   2.117
48924SOL     OW48668   6.515   2.388   7.552
48924SOL    HW148669   6.425   2.411   7.529
48924SOL    HW248670   6.557   2.366   7.469
48925SOL     OW48671   0.534   4.205  10.675
48925SOL    HW148672   0.471   4.275  10.666
48925SOL    HW248673   0.529   4.156  10.593
48926SOL     OW48674  12.001   1.117   0.940
48926SOL    HW148675  12.014   1.036   0.891
48926SOL    HW248676  11.934   1.096   1.005
48927SOL     OW48677   3.492   4.330   3.234
48927SOL    HW148678   3.433   4.309   3.161
48927SOL    HW248679   3.516   4.246   3.272
48928SOL     OW48680   9.923   0.663   6.823
48928SOL    HW148681   9.963   0.651   6.909
48928SOL    HW248682   9.992   0.700   6.769
48929SOL     OW48683   3.333   1.196  12.341
48929SOL    HW148684   3.251   1.192  12.291
48929SOL    HW248685   3.349   1.289  12.353
48930SOL     OW48686  10.172   2.332   8.138
48930SOL    HW148687  10.202   2.314   8.049
48930SOL    HW248688  10.094   2.277   8.148
48931SOL     OW48689   2.634   6.287   2.526
48931SOL    HW148690   2.638   6.276   2.431
48931SOL    HW248691   2.717   6.329   2.548
48932SOL     OW48692   3.867  14.298   5.477
48932SOL    HW148693   3.823  14.219   5.448
48932SOL    HW248694   3.958  14.286   5.451
48933SOL     OW48695   0.042  10.132   7.704
48933SOL    HW148696   0.076  10.221   7.693
48933SOL    HW248697   0.113  10.084   7.746
48934SOL     OW48698   2.802   1.217   2.314
48934SOL    HW148699   2.865   1.285   2.335
48934SOL    HW248700   2.820   1.193   2.223
48935SOL     OW48701   2.152   3.347   1.536
48935SOL    HW148702   2.162   3.314   1.625
48935SOL    HW248703   2.218   3.299   1.486
48936SOL     OW48704   0.117   4.310   4.134
48936SOL    HW148705   0.112   4.363   4.214
48936SOL    HW248706   0.191   4.346   4.086
48937SOL     OW48707  12.242  14.714  13.784
48937SOL    HW148708  12.155  14.747  13.763
48937SOL    HW248709  12.293  14.793  13.803
48938SOL     OW48710   8.258  11.506   9.817
48938SOL    HW148711   8.246  11.412   9.831
48938SOL    HW248712   8.322  11.531   9.884
48939SOL     OW48713   4.725   1.209   8.452
48939SOL    HW148714   4.732   1.158   8.533
48939SOL    HW248715   4.647   1.263   8.463
48940SOL     OW48716   8.001  14.398   7.091
48940SOL    HW148717   7.998  14.333   7.021
48940SOL    HW248718   7.992  14.347   7.172
48941SOL     OW48719  14.583  11.927   2.568
48941SOL    HW148720  14.497  11.968   2.560
48941SOL    HW248721  14.577  11.874   2.648
48942SOL     OW48722   8.396   4.907   7.096
48942SOL    HW148723   8.432   4.939   7.178
48942SOL    HW248724   8.417   4.814   7.095
48943SOL     OW48725   2.161   9.328  14.381
48943SOL    HW148726   2.095   9.339  14.449
48943SOL    HW248727   2.177   9.234  14.378
48944SOL     OW48728   3.985  13.126   3.206
48944SOL    HW148729   3.950  13.143   3.119
48944SOL    HW248730   4.052  13.059   3.193
48945SOL     OW48731   5.516   2.476   5.201
48945SOL    HW148732   5.496   2.567   5.179
48945SOL    HW248733   5.602   2.461   5.161
48946SOL     OW48734   4.139  10.334  12.530
48946SOL    HW148735   4.118  10.315  12.621
48946SOL    HW248736   4.235  10.333  12.526
48947SOL     OW48737   3.679   7.247   6.247
48947SOL    HW148738   3.633   7.217   6.325
48947SOL    HW248739   3.739   7.315   6.279
48948SOL     OW48740  13.441   7.418   4.239
48948SOL    HW148741  13.534   7.403   4.258
48948SOL    HW248742  13.440   7.447   4.147
48949SOL     OW48743   0.835   3.992   9.859
48949SOL    HW148744   0.897   3.955   9.796
48949SOL    HW248745   0.819   4.081   9.828
48950SOL     OW48746   6.548   0.914   5.255
48950SOL    HW148747   6.562   0.937   5.163
48950SOL    HW248748   6.632   0.931   5.298
48951SOL     OW48749   4.160   5.175  12.526
48951SOL    HW148750   4.238   5.217  12.561
48951SOL    HW248751   4.192   5.122  12.453
48952SOL     OW48752   4.475  14.612   8.148
48952SOL    HW148753   4.382  14.635   8.153
48952SOL    HW248754   4.483  14.534   8.204
48953SOL     OW48755   4.967   1.967   4.534
48953SOL    HW148756   5.009   1.954   4.619
48953SOL    HW248757   4.947   2.061   4.532
48954SOL     OW48758   0.876   6.605   1.481
48954SOL    HW148759   0.950   6.544   1.476
48954SOL    HW248760   0.820   6.569   1.549
48955SOL     OW48761   8.302   5.465  10.493
48955SOL    HW148762   8.267   5.517  10.565
48955SOL    HW248763   8.230   5.457  10.431
48956SOL     OW48764   9.496   5.458  11.946
48956SOL    HW148765   9.545   5.380  11.970
48956SOL    HW248766   9.560   5.515  11.904
48957SOL     OW48767   1.383   8.423   6.453
48957SOL    HW148768   1.392   8.512   6.485
48957SOL    HW248769   1.310   8.427   6.390
48958SOL     OW48770   7.512   8.421   6.201
48958SOL    HW148771   7.564   8.359   6.251
48958SOL    HW248772   7.425   8.418   6.241
48959SOL     OW48773  12.350   6.646   1.438
48959SOL    HW148774  12.366   6.612   1.350
48959SOL    HW248775  12.369   6.740   1.431
48960SOL     OW48776  12.751   1.189   8.971
48960SOL    HW148777  12.676   1.200   9.029
48960SOL    HW248778  12.756   1.271   8.922
48961SOL     OW48779   3.612   9.149   9.336
48961SOL    HW148780   3.678   9.145   9.267
48961SOL    HW248781   3.569   9.063   9.333
48962SOL     OW48782   1.727   5.218   3.571
48962SOL    HW148783   1.714   5.159   3.646
48962SOL    HW248784   1.648   5.271   3.569
48963SOL     OW48785  10.770  12.577   4.918
48963SOL    HW148786  10.723  12.529   4.986
48963SOL    HW248787  10.862  12.575   4.946
48964SOL     OW48788  11.847  10.526  10.235
48964SOL    HW148789  11.883  10.481  10.312
48964SOL    HW248790  11.907  10.599  10.220
48965SOL     OW48791   9.264   0.474  13.269
48965SOL    HW148792   9.305   0.401  13.222
48965SOL    HW248793   9.185   0.437  13.308
48966SOL     OW48794  12.012   1.348   4.731
48966SOL    HW148795  12.019   1.427   4.679
48966SOL    HW248796  11.973   1.283   4.673
48967SOL     OW48797   0.958   0.064  10.428
48967SOL    HW148798   0.962   0.142  10.483
48967SOL    HW248799   0.917  14.875  10.483
48968SOL     OW48800   4.656  14.831   6.558
48968SOL    HW148801   4.698   0.022   6.609
48968SOL    HW248802   4.681  14.848   6.468
48969SOL     OW48803   1.336  10.400   2.303
48969SOL    HW148804   1.429  10.381   2.314
48969SOL    HW248805   1.315  10.461   2.374
48970SOL     OW48806   1.306  10.008   9.637
48970SOL    HW148807   1.218   9.994   9.670
48970SOL    HW248808   1.301   9.989   9.543
48971SOL     OW48809   1.200   1.998  11.129
48971SOL    HW148810   1.273   1.947  11.092
48971SOL    HW248811   1.127   1.937  11.131
48972SOL     OW48812   2.686   6.559  10.721
48972SOL    HW148813   2.645   6.473  10.724
48972SOL    HW248814   2.674   6.588  10.630
48973SOL     OW48815   6.291   6.024   9.977
48973SOL    HW148816   6.213   6.066  10.013
48973SOL    HW248817   6.363   6.083  10.000
48974SOL     OW48818   8.292  12.995   8.584
48974SOL    HW148819   8.267  12.904   8.600
48974SOL    HW248820   8.290  13.036   8.670
48975SOL     OW48821   1.588   2.644   2.369
48975SOL    HW148822   1.642   2.648   2.448
48975SOL    HW248823   1.612   2.721   2.318
48976SOL     OW48824   7.144   7.067  14.282
48976SOL    HW148825   7.073   7.061  14.346
48976SOL    HW248826   7.207   7.001  14.310
48977SOL     OW48827   9.782   0.796  10.229
48977SOL    HW148828   9.824   0.878  10.256
48977SOL    HW248829   9.765   0.750  10.312
48978SOL     OW48830  13.594   8.596   0.391
48978SOL    HW148831  13.673   8.545   0.412
48978SOL    HW248832  13.525   8.555   0.442
48979SOL     OW48833   3.235   5.549   3.861
48979SOL    HW148834   3.326   5.580   3.853
48979SOL    HW248835   3.237   5.489   3.935
48980SOL     OW48836   6.634   2.418   4.571
48980SOL    HW148837   6.698   2.486   4.591
48980SOL    HW248838   6.610   2.433   4.479
48981SOL     OW48839   8.907   6.388   4.608
48981SOL    HW148840   8.856   6.469   4.606
48981SOL    HW248841   8.857   6.327   4.554
48982SOL     OW48842   9.098   1.751  14.780
48982SOL    HW148843   9.004   1.740  14.791
48982SOL    HW248844   9.118   1.708  14.697
48983SOL     OW48845   4.532   4.531   7.499
48983SOL    HW148846   4.576   4.614   7.479
48983SOL    HW248847   4.597   4.464   7.477
48984SOL     OW48848   5.190   5.202   4.131
48984SOL    HW148849   5.173   5.255   4.053
48984SOL    HW248850   5.107   5.203   4.179
48985SOL     OW48851   5.611   8.535   6.512
48985SOL    HW148852   5.553   8.481   6.564
48985SOL    HW248853   5.694   8.535   6.560
48986SOL     OW48854  13.706   3.279   0.370
48986SOL    HW148855  13.685   3.373   0.375
48986SOL    HW248856  13.625   3.235   0.398
48987SOL     OW48857   3.483  11.723  14.603
48987SOL    HW148858   3.429  11.646  14.617
48987SOL    HW248859   3.567  11.688  14.573
48988SOL     OW48860  11.634  13.308   0.348
48988SOL    HW148861  11.668  13.268   0.268
48988SOL    HW248862  11.642  13.402   0.333
48989SOL     OW48863  10.117  14.849  13.823
48989SOL    HW148864  10.067  14.864  13.903
48989SOL    HW248865  10.053  14.812  13.761
48990SOL     OW48866   3.901   3.480   2.931
48990SOL    HW148867   3.817   3.471   2.886
48990SOL    HW248868   3.948   3.398   2.911
48991SOL     OW48869  12.136  11.256   6.489
48991SOL    HW148870  12.063  11.274   6.430
48991SOL    HW248871  12.214  11.276   6.438
48992SOL     OW48872   4.269  14.847   9.597
48992SOL    HW148873   4.318  14.846   9.515
48992SOL    HW248874   4.199   0.033   9.583
48993SOL     OW48875   2.954  13.992   6.272
48993SOL    HW148876   2.898  13.916   6.288
48993SOL    HW248877   2.946  14.045   6.352
48994SOL     OW48878   0.375  11.116  12.523
48994SOL    HW148879   0.372  11.088  12.614
48994SOL    HW248880   0.335  11.203  12.522
48995SOL     OW48881   5.961   7.553   5.363
48995SOL    HW148882   6.019   7.481   5.392
48995SOL    HW248883   6.020   7.627   5.351
48996SOL     OW48884   1.284   6.114   6.302
48996SOL    HW148885   1.332   6.045   6.347
48996SOL    HW248886   1.258   6.174   6.372
48997SOL     OW48887   3.014   0.539   3.739
48997SOL    HW148888   2.938   0.575   3.693
48997SOL    HW248889   3.062   0.616   3.771
48998SOL     OW48890   5.880  11.371   2.246
48998SOL    HW148891   5.891  11.425   2.168
48998SOL    HW248892   5.894  11.281   2.214
48999SOL     OW48893   3.259   9.580  13.490
48999SOL    HW148894   3.190   9.612  13.432
48999SOL    HW248895   3.310   9.520  13.436
49000SOL     OW48896   4.015   4.502   1.657
49000SOL    HW148897   4.052   4.477   1.572
49000SOL    HW248898   3.926   4.530   1.638
49001SOL     OW48899  12.116   3.941   4.685
49001SOL    HW148900  12.068   3.994   4.621
49001SOL    HW248901  12.171   3.884   4.633
49002SOL     OW48902  13.772   2.933   8.309
49002SOL    HW148903  13.769   2.851   8.259
49002SOL    HW248904  13.852   2.927   8.361
49003SOL     OW48905   5.920   4.866   9.809
49003SOL    HW148906   5.986   4.804   9.838
49003SOL    HW248907   5.932   4.942   9.866
49004SOL     OW48908   6.351  14.109  12.465
49004SOL    HW148909   6.377  14.152  12.384
49004SOL    HW248910   6.261  14.138  12.479
49005SOL     OW48911  10.589   2.101  14.210
49005SOL    HW148912  10.652   2.029  14.209
49005SOL    HW248913  10.564   2.112  14.118
49006SOL     OW48914   4.533   2.782   3.335
49006SOL    HW148915   4.486   2.799   3.417
49006SOL    HW248916   4.488   2.838   3.270
49007SOL     OW48917  13.443   1.345   8.065
49007SOL    HW148918  13.375   1.317   8.127
49007SOL    HW248919  13.506   1.273   8.064
49008SOL     OW48920   3.980  10.108   5.933
49008SOL    HW148921   4.017  10.191   5.964
49008SOL    HW248922   3.893  10.104   5.974
49009SOL     OW48923  11.542   8.058  10.803
49009SOL    HW148924  11.574   7.974  10.836
49009SOL    HW248925  11.451   8.062  10.832
49010SOL     OW48926   0.168   7.161  11.324
49010SOL    HW148927   0.261   7.165  11.301
49010SOL    HW248928   0.165   7.184  11.416
49011SOL     OW48929   5.788  13.161   6.623
49011SOL    HW148930   5.722  13.124   6.682
49011SOL    HW248931   5.790  13.100   6.549
49012SOL     OW48932   7.568   9.852  10.376
49012SOL    HW148933   7.598   9.933  10.336
49012SOL    HW248934   7.569   9.869  10.470
49013SOL     OW48935   7.058  14.356  13.020
49013SOL    HW148936   7.029  14.267  12.999
49013SOL    HW248937   6.978  14.409  13.014
49014SOL     OW48938  11.718   1.614  11.886
49014SOL    HW148939  11.676   1.537  11.848
49014SOL    HW248940  11.668   1.631  11.966
49015SOL     OW48941   1.469  10.721   1.994
49015SOL    HW148942   1.431  10.639   2.023
49015SOL    HW248943   1.559  10.719   2.027
49016SOL     OW48944   9.301  11.769   9.925
49016SOL    HW148945   9.261  11.843   9.971
49016SOL    HW248946   9.310  11.700   9.991
49017SOL     OW48947   3.250   9.246   0.548
49017SOL    HW148948   3.233   9.272   0.638
49017SOL    HW248949   3.275   9.154   0.554
49018SOL     OW48950   9.061   9.734  10.054
49018SOL    HW148951   9.100   9.694  10.132
49018SOL    HW248952   8.967   9.735  10.072
49019SOL     OW48953   4.693  12.808  14.790
49019SOL    HW148954   4.677  12.846  14.877
49019SOL    HW248955   4.765  12.746  14.804
49020SOL     OW48956   3.193  12.799  11.799
49020SOL    HW148957   3.155  12.711  11.791
49020SOL    HW248958   3.219  12.822  11.709
49021SOL     OW48959   6.607   1.275   8.888
49021SOL    HW148960   6.579   1.297   8.800
49021SOL    HW248961   6.626   1.181   8.884
49022SOL     OW48962   0.378   3.566   4.273
49022SOL    HW148963   0.443   3.497   4.276
49022SOL    HW248964   0.305   3.533   4.326
49023SOL     OW48965  12.917   8.326   7.125
49023SOL    HW148966  12.996   8.346   7.177
49023SOL    HW248967  12.940   8.247   7.077
49024SOL     OW48968  13.730   6.258   6.104
49024SOL    HW148969  13.701   6.172   6.072
49024SOL    HW248970  13.690   6.321   6.045
49025SOL     OW48971   5.867  13.517  12.749
49025SOL    HW148972   5.932  13.580  12.717
49025SOL    HW248973   5.822  13.563  12.819
49026SOL     OW48974  12.090  13.642  12.527
49026SOL    HW148975  12.013  13.672  12.575
49026SOL    HW248976  12.163  13.652  12.589
49027SOL     OW48977   1.488   5.524  11.148
49027SOL    HW148978   1.550   5.452  11.134
49027SOL    HW248979   1.471   5.558  11.060
49028SOL     OW48980   4.522  12.163   4.101
49028SOL    HW148981   4.522  12.069   4.121
49028SOL    HW248982   4.614  12.185   4.088
49029SOL     OW48983  12.293  12.869   4.600
49029SOL    HW148984  12.312  12.960   4.576
49029SOL    HW248985  12.198  12.865   4.603
49030SOL     OW48986   3.703  11.422  10.851
49030SOL    HW148987   3.640  11.377  10.793
49030SOL    HW248988   3.736  11.353  10.908
49031SOL     OW48989   2.196   3.108   3.546
49031SOL    HW148990   2.238   3.137   3.465
49031SOL    HW248991   2.133   3.178   3.566
49032SOL     OW48992  10.338   2.898   4.768
49032SOL    HW148993  10.351   2.876   4.676
49032SOL    HW248994  10.317   2.815   4.810
49033SOL     OW48995  14.280   6.636  14.461
49033SOL    HW148996  14.232   6.684  14.394
49033SOL    HW248997  14.297   6.701  14.529
49034SOL     OW48998   4.445  11.233   2.268
49034SOL    HW148999   4.378  11.301   2.273
49034SOL    HW249000   4.403  11.155   2.304
49035SOL     OW49001   9.557   6.230   5.764
49035SOL    HW149002   9.486   6.267   5.711
49035SOL    HW249003   9.613   6.184   5.701
49036SOL     OW49004  13.766   0.427   9.703
49036SOL    HW149005  13.830   0.459   9.639
49036SOL    HW249006  13.701   0.497   9.710
49037SOL     OW49007   6.815  14.705   7.680
49037SOL    HW149008   6.812  14.617   7.645
49037SOL    HW249009   6.761  14.700   7.760
49038SOL     OW49010   4.336   7.814   7.792
49038SOL    HW149011   4.333   7.891   7.735
49038SOL    HW249012   4.244   7.794   7.810
49039SOL     OW49013  14.684   0.505   8.998
49039SOL    HW149014  14.678   0.452   9.077
49039SOL    HW249015  14.606   0.561   9.001
49040SOL     OW49016   0.792   1.711  10.124
49040SOL    HW149017   0.848   1.636  10.104
49040SOL    HW249018   0.703   1.681  10.102
49041SOL     OW49019  12.109  12.865   3.320
49041SOL    HW149020  12.105  12.877   3.415
49041SOL    HW249021  12.082  12.775   3.305
49042SOL     OW49022   4.644   6.671  10.260
49042SOL    HW149023   4.641   6.624  10.344
49042SOL    HW249024   4.692   6.614  10.201
49043SOL     OW49025   0.500   9.302   5.660
49043SOL    HW149026   0.527   9.239   5.592
49043SOL    HW249027   0.554   9.280   5.735
49044SOL     OW49028   1.050  13.251   7.944
49044SOL    HW149029   0.982  13.300   7.898
49044SOL    HW249030   1.034  13.160   7.919
49045SOL     OW49031  11.722   5.615   1.557
49045SOL    HW149032  11.793   5.679   1.556
49045SOL    HW249033  11.654   5.653   1.501
49046SOL     OW49034   7.133  10.974   5.188
49046SOL    HW149035   7.134  10.916   5.112
49046SOL    HW249036   7.141  11.062   5.151
49047SOL     OW49037  13.251   5.348  12.901
49047SOL    HW149038  13.183   5.346  12.833
49047SOL    HW249039  13.223   5.417  12.961
49048SOL     OW49040  13.844  14.191   2.304
49048SOL    HW149041  13.806  14.211   2.389
49048SOL    HW249042  13.874  14.276   2.271
49049SOL     OW49043   9.732  10.194  11.442
49049SOL    HW149044   9.662  10.198  11.506
49049SOL    HW249045   9.800  10.141  11.484
49050SOL     OW49046   0.538   7.674  10.148
49050SOL    HW149047   0.620   7.651  10.104
49050SOL    HW249048   0.496   7.589  10.164
49051SOL     OW49049   1.952   6.244   0.960
49051SOL    HW149050   1.996   6.328   0.974
49051SOL    HW249051   2.010   6.196   0.901
49052SOL     OW49052  13.218   1.230   8.968
49052SOL    HW149053  13.141   1.219   9.024
49052SOL    HW249054  13.270   1.151   8.982
49053SOL     OW49055   3.446   1.616   5.456
49053SOL    HW149056   3.413   1.601   5.368
49053SOL    HW249057   3.517   1.680   5.444
49054SOL     OW49058  13.091   6.083  11.096
49054SOL    HW149059  13.054   6.029  11.166
49054SOL    HW249060  13.044   6.056  11.018
49055SOL     OW49061   1.274   0.595   0.484
49055SOL    HW149062   1.198   0.590   0.542
49055SOL    HW249063   1.268   0.682   0.444
49056SOL     OW49064   0.807   0.147   8.518
49056SOL    HW149065   0.739   0.104   8.570
49056SOL    HW249066   0.783   0.240   8.520
49057SOL     OW49067   9.188   8.178   7.207
49057SOL    HW149068   9.278   8.179   7.241
49057SOL    HW249069   9.167   8.271   7.194
49058SOL     OW49070   9.275   3.162  11.075
49058SOL    HW149071   9.207   3.096  11.086
49058SOL    HW249072   9.352   3.125  11.118
49059SOL     OW49073  10.689  13.411  12.039
49059SOL    HW149074  10.669  13.405  12.132
49059SOL    HW249075  10.612  13.373  11.995
49060SOL     OW49076   8.896   7.286   8.552
49060SOL    HW149077   8.806   7.261   8.574
49060SOL    HW249078   8.949   7.211   8.578
49061SOL     OW49079   5.843  11.810  13.377
49061SOL    HW149080   5.767  11.810  13.318
49061SOL    HW249081   5.886  11.726  13.360
49062SOL     OW49082   3.522  12.239  12.253
49062SOL    HW149083   3.489  12.190  12.178
49062SOL    HW249084   3.615  12.216  12.258
49063SOL     OW49085  11.434   2.709   4.344
49063SOL    HW149086  11.422   2.802   4.324
49063SOL    HW249087  11.527   2.700   4.363
49064SOL     OW49088   3.650   0.992  13.409
49064SOL    HW149089   3.708   1.048  13.460
49064SOL    HW249090   3.708   0.933  13.361
49065SOL     OW49091   6.226   5.198   2.638
49065SOL    HW149092   6.227   5.121   2.581
49065SOL    HW249093   6.136   5.202   2.671
49066SOL     OW49094   9.792   7.150  10.475
49066SOL    HW149095   9.813   7.131  10.567
49066SOL    HW249096   9.782   7.245  10.473
49067SOL     OW49097  14.311   7.049  12.866
49067SOL    HW149098  14.334   6.973  12.812
49067SOL    HW249099  14.216   7.045  12.873
49068SOL     OW49100   5.642  13.417   7.831
49068SOL    HW149101   5.641  13.504   7.791
49068SOL    HW249102   5.601  13.360   7.766
49069SOL     OW49103   0.813   8.317   7.170
49069SOL    HW149104   0.903   8.282   7.174
49069SOL    HW249105   0.816   8.383   7.101
49070SOL     OW49106  11.028   6.177   6.870
49070SOL    HW149107  11.005   6.260   6.827
49070SOL    HW249108  11.119   6.161   6.845
49071SOL     OW49109  13.575   6.233   3.511
49071SOL    HW149110  13.535   6.262   3.593
49071SOL    HW249111  13.560   6.139   3.509
49072SOL     OW49112   6.144  14.444  11.594
49072SOL    HW149113   6.232  14.415  11.618
49072SOL    HW249114   6.086  14.401  11.657
49073SOL     OW49115   7.701   5.084   0.067
49073SOL    HW149116   7.651   5.010   0.035
49073SOL    HW249117   7.752   5.114  14.869
49074SOL     OW49118   1.855   5.208   5.163
49074SOL    HW149119   1.900   5.225   5.246
49074SOL    HW249120   1.806   5.128   5.179
49075SOL     OW49121  10.029  14.244  13.421
49075SOL    HW149122  10.124  14.238  13.423
49075SOL    HW249123   9.999  14.156  13.396
49076SOL     OW49124   4.158  13.392  13.561
49076SOL    HW149125   4.210  13.473  13.562
49076SOL    HW249126   4.071  13.421  13.535
49077SOL     OW49127   9.582  12.209   8.958
49077SOL    HW149128   9.554  12.143   8.895
49077SOL    HW249129   9.620  12.279   8.904
49078SOL     OW49130   6.889   2.309   9.184
49078SOL    HW149131   6.817   2.298   9.122
49078SOL    HW249132   6.925   2.396   9.164
49079SOL     OW49133   5.497   4.859   7.829
49079SOL    HW149134   5.531   4.888   7.913
49079SOL    HW249135   5.415   4.907   7.818
49080SOL     OW49136   9.079   2.277  13.115
49080SOL    HW149137   9.022   2.353  13.128
49080SOL    HW249138   9.081   2.265  13.020
49081SOL     OW49139   4.966   6.041  12.019
49081SOL    HW149140   4.945   6.120  11.969
49081SOL    HW249141   4.912   6.048  12.098
49082SOL     OW49142  13.502  13.041   6.076
49082SOL    HW149143  13.510  12.946   6.072
49082SOL    HW249144  13.464  13.066   5.991
49083SOL     OW49145  12.969   0.389   7.711
49083SOL    HW149146  12.898   0.433   7.666
49083SOL    HW249147  12.961   0.417   7.802
49084SOL     OW49148   3.731   7.178   8.546
49084SOL    HW149149   3.749   7.175   8.452
49084SOL    HW249150   3.667   7.249   8.556
49085SOL     OW49151   2.077   2.620  14.310
49085SOL    HW149152   2.139   2.675  14.262
49085SOL    HW249153   2.114   2.533  14.307
49086SOL     OW49154   0.903  12.373   8.262
49086SOL    HW149155   0.994  12.355   8.284
49086SOL    HW249156   0.902  12.383   8.167
49087SOL     OW49157   7.410   8.660   0.492
49087SOL    HW149158   7.371   8.588   0.442
49087SOL    HW249159   7.487   8.686   0.442
49088SOL     OW49160   7.041  13.460   9.386
49088SOL    HW149161   7.066  13.432   9.298
49088SOL    HW249162   7.010  13.381   9.429
49089SOL     OW49163   1.382   0.256   9.676
49089SOL    HW149164   1.313   0.312   9.642
49089SOL    HW249165   1.360   0.244   9.768
49090SOL     OW49166  14.166  11.319   4.497
49090SOL    HW149167  14.241  11.263   4.513
49090SOL    HW249168  14.201  11.393   4.448
49091SOL     OW49169   0.951  11.074   5.035
49091SOL    HW149170   0.886  11.033   4.977
49091SOL    HW249171   1.033  11.029   5.015
49092SOL     OW49172   3.560   9.944   7.561
49092SOL    HW149173   3.488   9.994   7.521
49092SOL    HW249174   3.529   9.853   7.561
49093SOL     OW49175  12.120   6.749   3.064
49093SOL    HW149176  12.215   6.754   3.076
49093SOL    HW249177  12.108   6.694   2.987
49094SOL     OW49178  11.290  13.098  14.823
49094SOL    HW149179  11.317  13.109  14.732
49094SOL    HW249180  11.213  13.154  14.833
49095SOL     OW49181   6.633   6.998   0.237
49095SOL    HW149182   6.676   7.061   0.178
49095SOL    HW249183   6.559   6.964   0.186
49096SOL     OW49184   5.473   8.224  14.474
49096SOL    HW149185   5.556   8.178  14.463
49096SOL    HW249186   5.477   8.258  14.564
49097SOL     OW49187   3.146   2.379  11.750
49097SOL    HW149188   3.135   2.287  11.727
49097SOL    HW249189   3.151   2.424  11.665
49098SOL     OW49190   8.201   7.621   5.432
49098SOL    HW149191   8.258   7.574   5.370
49098SOL    HW249192   8.120   7.636   5.383
49099SOL     OW49193   5.481   3.241  10.587
49099SOL    HW149194   5.514   3.314  10.535
49099SOL    HW249195   5.390   3.232  10.559
49100SOL     OW49196  13.496   2.135   9.351
49100SOL    HW149197  13.459   2.126   9.263
49100SOL    HW249198  13.506   2.229   9.363
49101SOL     OW49199   3.514   5.255   6.305
49101SOL    HW149200   3.454   5.310   6.355
49101SOL    HW249201   3.598   5.300   6.309
49102SOL     OW49202   4.501   9.453  12.312
49102SOL    HW149203   4.548   9.469  12.231
49102SOL    HW249204   4.566   9.466  12.381
49103SOL     OW49205   5.043   4.852   7.428
49103SOL    HW149206   5.016   4.923   7.370
49103SOL    HW249207   5.103   4.800   7.376
49104SOL     OW49208  10.208  14.858  14.153
49104SOL    HW149209  10.124   0.026  14.152
49104SOL    HW249210  10.230  14.848  14.245
49105SOL     OW49211   6.740   4.845  12.140
49105SOL    HW149212   6.687   4.770  12.169
49105SOL    HW249213   6.710   4.918  12.195
49106SOL     OW49214  14.371   5.374  13.718
49106SOL    HW149215  14.348   5.379  13.811
49106SOL    HW249216  14.457   5.416  13.713
49107SOL     OW49217   3.168  13.221  10.846
49107SOL    HW149218   3.142  13.209  10.937
49107SOL    HW249219   3.262  13.209  10.846
49108SOL     OW49220   9.571   9.163   4.032
49108SOL    HW149221   9.659   9.146   3.998
49108SOL    HW249222   9.516   9.173   3.954
49109SOL     OW49223   9.335   6.259   5.320
49109SOL    HW149224   9.310   6.203   5.246
49109SOL    HW249225   9.261   6.319   5.331
49110SOL     OW49226   0.817   8.744   0.204
49110SOL    HW149227   0.854   8.657   0.193
49110SOL    HW249228   0.779   8.765   0.119
49111SOL     OW49229   3.050  13.411   3.180
49111SOL    HW149230   3.031  13.323   3.211
49111SOL    HW249231   2.971  13.438   3.132
49112SOL     OW49232   6.549   1.768   1.061
49112SOL    HW149233   6.553   1.710   0.985
49112SOL    HW249234   6.456   1.776   1.081
49113SOL     OW49235   6.159   3.853  12.638
49113SOL    HW149236   6.220   3.793  12.596
49113SOL    HW249237   6.098   3.879  12.568
49114SOL     OW49238  11.696   9.035  13.774
49114SOL    HW149239  11.747   8.973  13.826
49114SOL    HW249240  11.614   9.044  13.822
49115SOL     OW49241  12.595   0.435   6.311
49115SOL    HW149242  12.562   0.377   6.242
49115SOL    HW249243  12.598   0.381   6.389
49116SOL     OW49244   0.742   8.008  10.673
49116SOL    HW149245   0.820   8.015  10.728
49116SOL    HW249246   0.745   8.085  10.617
49117SOL     OW49247   3.143  12.380   3.925
49117SOL    HW149248   3.223  12.394   3.875
49117SOL    HW249249   3.170  12.384   4.017
49118SOL     OW49250   5.565   4.036  14.230
49118SOL    HW149251   5.590   4.100  14.297
49118SOL    HW249252   5.592   3.952  14.267
49119SOL     OW49253  12.213   5.924   6.314
49119SOL    HW149254  12.159   5.902   6.238
49119SOL    HW249255  12.244   5.839   6.347
49120SOL     OW49256   4.681  14.186   3.710
49120SOL    HW149257   4.757  14.239   3.687
49120SOL    HW249258   4.708  14.096   3.690
49121SOL     OW49259   0.086  14.426   0.495
49121SOL    HW149260   0.093  14.516   0.464
49121SOL    HW249261   0.073  14.434   0.590
49122SOL     OW49262   7.744   3.970  14.867
49122SOL    HW149263   7.701   3.904   0.043
49122SOL    HW249264   7.816   3.923  14.824
49123SOL     OW49265   4.268   1.642   4.116
49123SOL    HW149266   4.271   1.564   4.170
49123SOL    HW249267   4.338   1.631   4.052
49124SOL     OW49268   2.159  10.756   1.445
49124SOL    HW149269   2.190  10.701   1.374
49124SOL    HW249270   2.105  10.822   1.403
49125SOL     OW49271  11.127  10.404   9.847
49125SOL    HW149272  11.053  10.402   9.787
49125SOL    HW249273  11.090  10.441   9.928
49126SOL     OW49274   8.278  14.490   5.175
49126SOL    HW149275   8.183  14.490   5.172
49126SOL    HW249276   8.302  14.399   5.192
49127SOL     OW49277   5.147   4.086   9.529
49127SOL    HW149278   5.144   4.180   9.510
49127SOL    HW249279   5.085   4.046   9.468
49128SOL     OW49280  10.015  11.280   8.350
49128SOL    HW149281   9.939  11.223   8.360
49128SOL    HW249282   9.985  11.365   8.383
49129SOL     OW49283   3.490   0.482   9.557
49129SOL    HW149284   3.499   0.568   9.597
49129SOL    HW249285   3.509   0.496   9.464
49130SOL     OW49286   4.626   0.707   8.648
49130SOL    HW149287   4.581   0.745   8.573
49130SOL    HW249288   4.556   0.675   8.705
49131SOL     OW49289  10.928   7.175  12.974
49131SOL    HW149290  10.885   7.231  12.911
49131SOL    HW249291  10.905   7.086  12.947
49132SOL     OW49292  13.790   3.306   2.331
49132SOL    HW149293  13.868   3.318   2.385
49132SOL    HW249294  13.719   3.290   2.394
49133SOL     OW49295  11.742  11.253   8.268
49133SOL    HW149296  11.826  11.271   8.310
49133SOL    HW249297  11.704  11.339   8.252
49134SOL     OW49298   9.940   6.026   3.554
49134SOL    HW149299   9.876   5.985   3.613
49134SOL    HW249300   9.897   6.025   3.468
49135SOL     OW49301  13.100   6.631   1.343
49135SOL    HW149302  13.174   6.635   1.283
49135SOL    HW249303  13.065   6.721   1.344
49136SOL     OW49304   2.801  12.610   8.730
49136SOL    HW149305   2.793  12.690   8.783
49136SOL    HW249306   2.758  12.631   8.647
49137SOL     OW49307   6.368   8.553   5.106
49137SOL    HW149308   6.416   8.588   5.031
49137SOL    HW249309   6.433   8.553   5.177
49138SOL     OW49310  14.648   9.977   4.631
49138SOL    HW149311  14.656   9.888   4.666
49138SOL    HW249312  14.702  10.030   4.690
49139SOL     OW49313   2.579   9.268  10.100
49139SOL    HW149314   2.665   9.227  10.101
49139SOL    HW249315   2.547   9.254  10.011
49140SOL     OW49316   4.870  12.381   6.503
49140SOL    HW149317   4.851  12.464   6.460
49140SOL    HW249318   4.955  12.354   6.469
49141SOL     OW49319   6.302   0.811   1.840
49141SOL    HW149320   6.234   0.814   1.908
49141SOL    HW249321   6.375   0.766   1.882
49142SOL     OW49322   0.372   8.802   2.764
49142SOL    HW149323   0.296   8.790   2.821
49142SOL    HW249324   0.363   8.892   2.730
49143SOL     OW49325  12.593  13.897   0.741
49143SOL    HW149326  12.568  13.963   0.806
49143SOL    HW249327  12.510  13.857   0.714
49144SOL     OW49328   9.152   1.974   0.070
49144SOL    HW149329   9.131   1.897   0.016
49144SOL    HW249330   9.120   2.048   0.019
49145SOL     OW49331  12.900   8.342  10.012
49145SOL    HW149332  12.978   8.291   9.989
49145SOL    HW249333  12.859   8.293  10.083
49146SOL     OW49334  12.138   0.456  13.869
49146SOL    HW149335  12.199   0.448  13.943
49146SOL    HW249336  12.052   0.464  13.911
49147SOL     OW49337  13.743   4.705  14.637
49147SOL    HW149338  13.805   4.650  14.685
49147SOL    HW249339  13.740   4.787  14.687
49148SOL     OW49340   0.802   2.268   6.869
49148SOL    HW149341   0.713   2.261   6.905
49148SOL    HW249342   0.843   2.335   6.923
49149SOL     OW49343   8.350  12.289  12.456
49149SOL    HW149344   8.290  12.355  12.490
49149SOL    HW249345   8.345  12.217  12.518
49150SOL     OW49346  13.508   8.666   8.236
49150SOL    HW149347  13.496   8.590   8.293
49150SOL    HW249348  13.504   8.742   8.294
49151SOL     OW49349   7.291   0.386  10.482
49151SOL    HW149350   7.370   0.390  10.427
49151SOL    HW249351   7.264   0.477  10.493
49152SOL     OW49352   0.359  12.701   8.486
49152SOL    HW149353   0.315  12.756   8.550
49152SOL    HW249354   0.332  12.612   8.508
49153SOL     OW49355   3.573   7.046  13.799
49153SOL    HW149356   3.636   7.077  13.734
49153SOL    HW249357   3.591   6.952  13.807
49154SOL     OW49358  13.158  13.907   1.852
49154SOL    HW149359  13.163  13.894   1.947
49154SOL    HW249360  13.242  13.946   1.828
49155SOL     OW49361  13.629   9.350   0.503
49155SOL    HW149362  13.714   9.350   0.459
49155SOL    HW249363  13.566   9.375   0.434
49156SOL     OW49364  10.177  14.652   0.301
49156SOL    HW149365  10.213  14.589   0.365
49156SOL    HW249366  10.084  14.630   0.297
49157SOL     OW49367   0.691  10.873  13.710
49157SOL    HW149368   0.620  10.824  13.669
49157SOL    HW249369   0.755  10.807  13.735
49158SOL     OW49370   9.511   2.491   4.566
49158SOL    HW149371   9.598   2.515   4.536
49158SOL    HW249372   9.497   2.544   4.645
49159SOL     OW49373   1.182   9.489   2.526
49159SOL    HW149374   1.160   9.525   2.439
49159SOL    HW249375   1.182   9.565   2.583
49160SOL     OW49376   6.148  12.272   9.301
49160SOL    HW149377   6.117  12.306   9.385
49160SOL    HW249378   6.117  12.182   9.297
49161SOL     OW49379  14.199   2.065   4.168
49161SOL    HW149380  14.145   2.015   4.229
49161SOL    HW249381  14.147   2.072   4.089
49162SOL     OW49382  10.579  12.866   3.157
49162SOL    HW149383  10.502  12.813   3.135
49162SOL    HW249384  10.558  12.953   3.122
49163SOL     OW49385   4.046  10.790   1.989
49163SOL    HW149386   3.951  10.805   1.987
49163SOL    HW249387   4.060  10.741   2.071
49164SOL     OW49388   2.194  11.130   8.647
49164SOL    HW149389   2.200  11.059   8.712
49164SOL    HW249390   2.103  11.158   8.652
49165SOL     OW49391   1.330  10.941   5.562
49165SOL    HW149392   1.267  10.926   5.491
49165SOL    HW249393   1.364  11.029   5.544
49166SOL     OW49394   4.752  13.121  10.936
49166SOL    HW149395   4.681  13.185  10.934
49166SOL    HW249396   4.758  13.089  10.846
49167SOL     OW49397  13.391  10.880   4.306
49167SOL    HW149398  13.388  10.838   4.220
49167SOL    HW249399  13.312  10.848   4.350
49168SOL     OW49400  12.336   6.609   9.666
49168SOL    HW149401  12.321   6.521   9.629
49168SOL    HW249402  12.293   6.606   9.752
49169SOL     OW49403   1.121   6.993  10.476
49169SOL    HW149404   1.193   7.056  10.468
49169SOL    HW249405   1.114   6.977  10.570
49170SOL     OW49406  13.008   5.809   5.976
49170SOL    HW149407  13.006   5.759   5.895
49170SOL    HW249408  13.078   5.770   6.028
49171SOL     OW49409  12.334  14.239   3.939
49171SOL    HW149410  12.280  14.317   3.931
49171SOL    HW249411  12.387  14.238   3.860
49172SOL     OW49412   2.421  13.715   9.095
49172SOL    HW149413   2.436  13.730   9.188
49172SOL    HW249414   2.492  13.763   9.052
49173SOL     OW49415  12.674  14.186  12.662
49173SOL    HW149416  12.751  14.177  12.717
49173SOL    HW249417  12.707  14.227  12.582
49174SOL     OW49418   8.717   5.883   3.392
49174SOL    HW149419   8.649   5.950   3.382
49174SOL    HW249420   8.734   5.880   3.486
49175SOL     OW49421  12.375  12.719   6.926
49175SOL    HW149422  12.392  12.630   6.957
49175SOL    HW249423  12.428  12.774   6.983
49176SOL     OW49424  14.307   0.455   2.242
49176SOL    HW149425  14.391   0.414   2.222
49176SOL    HW249426  14.326   0.548   2.245
49177SOL     OW49427   4.871   8.400   5.709
49177SOL    HW149428   4.948   8.350   5.684
49177SOL    HW249429   4.892   8.437   5.795
49178SOL     OW49430  12.174  10.697  14.846
49178SOL    HW149431  12.107  10.765  14.843
49178SOL    HW249432  12.186  10.671  14.754
49179SOL     OW49433   5.358  11.789   6.119
49179SOL    HW149434   5.296  11.765   6.050
49179SOL    HW249435   5.443  11.789   6.076
49180SOL     OW49436   9.778   8.600   2.927
49180SOL    HW149437   9.832   8.521   2.931
49180SOL    HW249438   9.717   8.585   2.855
49181SOL     OW49439  10.697   6.395   5.659
49181SOL    HW149440  10.779   6.346   5.651
49181SOL    HW249441  10.649   6.375   5.580
49182SOL     OW49442  10.193   6.513   1.150
49182SOL    HW149443  10.099   6.495   1.144
49182SOL    HW249444  10.200   6.578   1.221
49183SOL     OW49445   7.928   2.990   1.969
49183SOL    HW149446   7.915   2.933   2.045
49183SOL    HW249447   7.855   2.970   1.911
49184SOL     OW49448   9.068  11.881  10.455
49184SOL    HW149449   9.055  11.803  10.401
49184SOL    HW249450   9.092  11.950  10.392
49185SOL     OW49451   1.261   0.589  10.785
49185SOL    HW149452   1.180   0.638  10.796
49185SOL    HW249453   1.308   0.600  10.869
49186SOL     OW49454   5.020  12.170   1.616
49186SOL    HW149455   4.973  12.110   1.559
49186SOL    HW249456   5.112  12.147   1.604
49187SOL     OW49457   2.072  14.755  13.524
49187SOL    HW149458   2.049  14.713  13.441
49187SOL    HW249459   2.108  14.684  13.577
49188SOL     OW49460   2.706   2.088   7.836
49188SOL    HW149461   2.633   2.135   7.876
49188SOL    HW249462   2.768   2.074   7.907
49189SOL     OW49463   7.993   9.335   8.694
49189SOL    HW149464   8.001   9.416   8.645
49189SOL    HW249465   8.017   9.357   8.783
49190SOL     OW49466   1.620   0.613  13.458
49190SOL    HW149467   1.530   0.599  13.427
49190SOL    HW249468   1.612   0.617  13.553
49191SOL     OW49469  13.687   2.574   8.325
49191SOL    HW149470  13.658   2.484   8.342
49191SOL    HW249471  13.609   2.618   8.291
49192SOL     OW49472  14.396  11.492   9.476
49192SOL    HW149473  14.322  11.490   9.416
49192SOL    HW249474  14.369  11.438   9.550
49193SOL     OW49475   9.337  12.264  13.865
49193SOL    HW149476   9.245  12.267  13.890
49193SOL    HW249477   9.354  12.172  13.846
49194SOL     OW49478  12.605   6.937   6.445
49194SOL    HW149479  12.623   7.016   6.496
49194SOL    HW249480  12.641   6.866   6.497
49195SOL     OW49481   2.859  13.891  13.771
49195SOL    HW149482   2.847  13.937  13.688
49195SOL    HW249483   2.805  13.812  13.762
49196SOL     OW49484  13.991   7.734   6.070
49196SOL    HW149485  13.916   7.788   6.044
49196SOL    HW249486  14.067   7.780   6.034
49197SOL     OW49487   4.096   9.594   0.943
49197SOL    HW149488   4.138   9.635   1.018
49197SOL    HW249489   4.127   9.644   0.867
49198SOL     OW49490   2.013  12.506  14.654
49198SOL    HW149491   1.980  12.455  14.728
49198SOL    HW249492   2.099  12.536  14.682
49199SOL     OW49493   1.717  10.794   7.328
49199SOL    HW149494   1.766  10.874   7.345
49199SOL    HW249495   1.776  10.724   7.357
49200SOL     OW49496   0.836  10.792   6.010
49200SOL    HW149497   0.757  10.843   5.990
49200SOL    HW249498   0.894  10.808   5.935
49201SOL     OW49499  11.337   8.788  11.709
49201SOL    HW149500  11.245   8.767  11.694
49201SOL    HW249501  11.372   8.713  11.756
49202SOL     OW49502   1.627   7.873  12.390
49202SOL    HW149503   1.573   7.875  12.469
49202SOL    HW249504   1.602   7.791  12.346
49203SOL     OW49505  13.903   5.748   6.743
49203SOL    HW149506  13.988   5.706   6.746
49203SOL    HW249507  13.879   5.759   6.835
49204SOL     OW49508   8.627   5.022  12.095
49204SOL    HW149509   8.673   5.009  12.178
49204SOL    HW249510   8.686   5.077  12.043
49205SOL     OW49511  14.814   0.630   8.331
49205SOL    HW149512  14.736   0.599   8.283
49205SOL    HW249513  14.810   0.584   8.414
49206SOL     OW49514   3.435  14.124   9.450
49206SOL    HW149515   3.424  14.217   9.435
49206SOL    HW249516   3.530  14.112   9.456
49207SOL     OW49517   2.857   0.170   6.335
49207SOL    HW149518   2.820   0.132   6.255
49207SOL    HW249519   2.891   0.095   6.384
49208SOL     OW49520   4.986   9.579   4.084
49208SOL    HW149521   4.913   9.518   4.098
49208SOL    HW249522   4.969   9.618   3.999
49209SOL     OW49523  10.786   3.145   6.943
49209SOL    HW149524  10.797   3.104   7.029
49209SOL    HW249525  10.866   3.124   6.895
49210SOL     OW49526   0.952  14.350   3.538
49210SOL    HW149527   0.946  14.380   3.447
49210SOL    HW249528   0.862  14.328   3.562
49211SOL     OW49529   0.135   2.797  14.074
49211SOL    HW149530   0.135   2.888  14.103
49211SOL    HW249531   0.222   2.764  14.096
49212SOL     OW49532   2.962   2.382   2.956
49212SOL    HW149533   2.871   2.394   2.984
49212SOL    HW249534   3.003   2.336   3.030
49213SOL     OW49535   4.646   7.905   1.582
49213SOL    HW149536   4.573   7.886   1.522
49213SOL    HW249537   4.725   7.887   1.531
49214SOL     OW49538   1.101  10.294   2.597
49214SOL    HW149539   1.049  10.239   2.538
49214SOL    HW249540   1.187  10.252   2.600
49215SOL     OW49541   7.332   8.629  10.612
49215SOL    HW149542   7.341   8.544  10.656
49215SOL    HW249543   7.394   8.686  10.658
49216SOL     OW49544  10.779   6.029  11.166
49216SOL    HW149545  10.774   6.103  11.105
49216SOL    HW249546  10.779   6.071  11.253
49217SOL     OW49547   3.640  13.348   3.734
49217SOL    HW149548   3.689  13.282   3.783
49217SOL    HW249549   3.704  13.386   3.675
49218SOL     OW49550  14.377  13.499  13.865
49218SOL    HW149551  14.316  13.451  13.921
49218SOL    HW249552  14.398  13.438  13.795
49219SOL     OW49553  10.102  12.980   7.018
49219SOL    HW149554  10.186  12.939   7.040
49219SOL    HW249555  10.066  12.926   6.947
49220SOL     OW49556   2.094  14.218   1.448
49220SOL    HW149557   2.108  14.205   1.354
49220SOL    HW249558   2.169  14.175   1.489
49221SOL     OW49559  11.124   1.113   6.008
49221SOL    HW149560  11.197   1.149   6.059
49221SOL    HW249561  11.046   1.132   6.061
49222SOL     OW49562   0.362  12.866   1.521
49222SOL    HW149563   0.385  12.859   1.428
49222SOL    HW249564   0.333  12.778   1.545
49223SOL     OW49565   9.128  11.392   2.731
49223SOL    HW149566   9.201  11.334   2.753
49223SOL    HW249567   9.080  11.402   2.813
49224SOL     OW49568   1.920   8.105   5.591
49224SOL    HW149569   2.010   8.118   5.560
49224SOL    HW249570   1.887   8.193   5.608
49225SOL     OW49571   6.408   1.872   2.017
49225SOL    HW149572   6.327   1.834   2.052
49225SOL    HW249573   6.403   1.965   2.042
49226SOL     OW49574   9.147   5.387   2.339
49226SOL    HW149575   9.175   5.364   2.427
49226SOL    HW249576   9.054   5.409   2.348
49227SOL     OW49577   3.466  14.784  14.396
49227SOL    HW149578   3.426  14.842  14.461
49227SOL    HW249579   3.534  14.737  14.444
49228SOL     OW49580   4.233   0.639   6.647
49228SOL    HW149581   4.162   0.636   6.711
49228SOL    HW249582   4.193   0.670   6.566
49229SOL     OW49583  13.814  12.019   4.806
49229SOL    HW149584  13.880  12.057   4.749
49229SOL    HW249585  13.832  12.057   4.892
49230SOL     OW49586   3.909   4.091   7.581
49230SOL    HW149587   3.896   4.185   7.575
49230SOL    HW249588   4.003   4.079   7.567
49231SOL     OW49589   6.537  11.437  10.194
49231SOL    HW149590   6.596  11.370  10.159
49231SOL    HW249591   6.578  11.465  10.275
49232SOL     OW49592  13.062   9.988  11.156
49232SOL    HW149593  13.024  10.039  11.085
49232SOL    HW249594  13.114  10.052  11.205
49233SOL     OW49595  13.936   6.832   0.521
49233SOL    HW149596  13.918   6.921   0.491
49233SOL    HW249597  14.031   6.823   0.513
49234SOL     OW49598  13.698  11.644  11.634
49234SOL    HW149599  13.671  11.729  11.668
49234SOL    HW249600  13.666  11.643  11.544
49235SOL     OW49601   8.611   6.888   7.438
49235SOL    HW149602   8.657   6.944   7.501
49235SOL    HW249603   8.554   6.948   7.391
49236SOL     OW49604  10.988   1.427   0.260
49236SOL    HW149605  10.983   1.495   0.328
49236SOL    HW249606  11.082   1.420   0.241
49237SOL     OW49607  11.084   5.427  10.907
49237SOL    HW149608  11.040   5.495  10.857
49237SOL    HW249609  11.049   5.345  10.872
49238SOL     OW49610   5.184   8.501  11.548
49238SOL    HW149611   5.258   8.486  11.608
49238SOL    HW249612   5.149   8.586  11.575
49239SOL     OW49613  10.124   8.350   3.798
49239SOL    HW149614  10.081   8.264   3.799
49239SOL    HW249615  10.156   8.359   3.709
49240SOL     OW49616   3.850   4.659   8.934
49240SOL    HW149617   3.834   4.609   9.014
49240SOL    HW249618   3.801   4.612   8.866
49241SOL     OW49619   0.685   1.709   2.453
49241SOL    HW149620   0.642   1.656   2.521
49241SOL    HW249621   0.724   1.782   2.501
49242SOL     OW49622  12.365  14.264  14.648
49242SOL    HW149623  12.446  14.237  14.692
49242SOL    HW249624  12.323  14.324  14.710
49243SOL     OW49625  11.981  14.736  14.385
49243SOL    HW149626  11.974  14.813  14.330
49243SOL    HW249627  11.915  14.749  14.453
49244SOL     OW49628   3.054   1.123   9.117
49244SOL    HW149629   2.971   1.127   9.164
49244SOL    HW249630   3.119   1.149   9.183
49245SOL     OW49631   3.648  10.481   9.835
49245SOL    HW149632   3.566  10.506   9.791
49245SOL    HW249633   3.632  10.501   9.927
49246SOL     OW49634  10.205   7.825   0.366
49246SOL    HW149635  10.154   7.874   0.430
49246SOL    HW249636  10.167   7.737   0.367
49247SOL     OW49637  11.052   8.418   2.078
49247SOL    HW149638  11.090   8.466   2.152
49247SOL    HW249639  11.127   8.372   2.039
49248SOL     OW49640   5.252  11.589  14.296
49248SOL    HW149641   5.197  11.618  14.369
49248SOL    HW249642   5.251  11.494  14.302
49249SOL     OW49643   8.576   5.265   8.130
49249SOL    HW149644   8.540   5.191   8.082
49249SOL    HW249645   8.632   5.226   8.196
49250SOL     OW49646   9.814  14.343   0.877
49250SOL    HW149647   9.839  14.373   0.789
49250SOL    HW249648   9.721  14.321   0.869
49251SOL     OW49649   8.306   4.391   1.474
49251SOL    HW149650   8.248   4.362   1.403
49251SOL    HW249651   8.361   4.459   1.434
49252SOL     OW49652   4.093  12.389  12.917
49252SOL    HW149653   4.000  12.384  12.939
49252SOL    HW249654   4.101  12.470  12.866
49253SOL     OW49655   4.677   5.852   9.811
49253SOL    HW149656   4.586   5.875   9.792
49253SOL    HW249657   4.698   5.901   9.890
49254SOL     OW49658   4.701  11.646  11.952
49254SOL    HW149659   4.677  11.564  11.908
49254SOL    HW249660   4.618  11.684  11.980
49255SOL     OW49661  13.475   9.277   4.174
49255SOL    HW149662  13.567   9.295   4.196
49255SOL    HW249663  13.474   9.267   4.079
49256SOL     OW49664  10.895  10.413  13.313
49256SOL    HW149665  10.825  10.459  13.268
49256SOL    HW249666  10.968  10.414  13.251
49257SOL     OW49667   9.175   3.110   1.469
49257SOL    HW149668   9.171   3.203   1.489
49257SOL    HW249669   9.262   3.083   1.496
49258SOL     OW49670   6.394   3.078   7.765
49258SOL    HW149671   6.389   2.996   7.716
49258SOL    HW249672   6.486   3.104   7.759
49259SOL     OW49673  14.157   2.088   2.861
49259SOL    HW149674  14.078   2.135   2.886
49259SOL    HW249675  14.178   2.033   2.936
49260SOL     OW49676   7.978   7.252   1.281
49260SOL    HW149677   7.987   7.302   1.362
49260SOL    HW249678   8.068   7.229   1.257
49261SOL     OW49679   6.076   3.614   0.918
49261SOL    HW149680   6.066   3.670   0.841
49261SOL    HW249681   6.148   3.556   0.896
49262SOL     OW49682   4.758  13.414   2.113
49262SOL    HW149683   4.735  13.376   2.029
49262SOL    HW249684   4.726  13.352   2.178
49263SOL     OW49685   2.007   6.911   4.987
49263SOL    HW149686   2.033   6.832   5.036
49263SOL    HW249687   1.912   6.907   4.984
49264SOL     OW49688   8.664   8.464  11.751
49264SOL    HW149689   8.730   8.533  11.757
49264SOL    HW249690   8.711   8.384  11.775
49265SOL     OW49691   0.546   2.308  13.288
49265SOL    HW149692   0.483   2.250  13.244
49265SOL    HW249693   0.617   2.251  13.314
49266SOL     OW49694  12.812   2.138   0.310
49266SOL    HW149695  12.794   2.077   0.238
49266SOL    HW249696  12.892   2.104   0.350
49267SOL     OW49697   2.167   2.755  13.692
49267SOL    HW149698   2.135   2.739  13.781
49267SOL    HW249699   2.212   2.839  13.697
49268SOL     OW49700   0.341   7.356   2.306
49268SOL    HW149701   0.311   7.270   2.274
49268SOL    HW249702   0.273   7.417   2.276
49269SOL     OW49703   3.592   0.692  13.600
49269SOL    HW149704   3.550   0.671  13.517
49269SOL    HW249705   3.519   0.709  13.660
49270SOL     OW49706  14.598   9.476   8.100
49270SOL    HW149707  14.516   9.515   8.129
49270SOL    HW249708  14.572   9.411   8.034
49271SOL     OW49709  13.041   6.344   0.361
49271SOL    HW149710  13.053   6.389   0.278
49271SOL    HW249711  13.073   6.255   0.345
49272SOL     OW49712   6.802   6.050   3.530
49272SOL    HW149713   6.839   5.988   3.592
49272SOL    HW249714   6.731   6.092   3.578
49273SOL     OW49715  10.389   0.125   8.346
49273SOL    HW149716  10.459   0.187   8.367
49273SOL    HW249717  10.425   0.039   8.369
49274SOL     OW49718  13.566  10.772   6.335
49274SOL    HW149719  13.648  10.786   6.288
49274SOL    HW249720  13.591  10.767   6.427
49275SOL     OW49721   8.173   5.825   5.490
49275SOL    HW149722   8.168   5.729   5.487
49275SOL    HW249723   8.237   5.843   5.558
49276SOL     OW49724  11.217  14.042  14.642
49276SOL    HW149725  11.241  14.134  14.638
49276SOL    HW249726  11.297  13.995  14.620
49277SOL     OW49727   3.098   1.818   8.378
49277SOL    HW149728   3.086   1.883   8.447
49277SOL    HW249729   3.189   1.790   8.387
49278SOL     OW49730   1.649   9.916   5.525
49278SOL    HW149731   1.570   9.905   5.473
49278SOL    HW249732   1.662  10.011   5.530
49279SOL     OW49733   5.481   8.834   2.927
49279SOL    HW149734   5.531   8.788   2.993
49279SOL    HW249735   5.535   8.909   2.903
49280SOL     OW49736  13.723   0.742  12.815
49280SOL    HW149737  13.727   0.665  12.871
49280SOL    HW249738  13.772   0.809  12.862
49281SOL     OW49739   8.969   6.107   3.789
49281SOL    HW149740   9.032   6.134   3.855
49281SOL    HW249741   8.891   6.159   3.806
49282SOL     OW49742   0.255  13.877   1.703
49282SOL    HW149743   0.231  13.828   1.782
49282SOL    HW249744   0.347  13.898   1.715
49283SOL     OW49745   9.637  10.021   2.832
49283SOL    HW149746   9.673  10.010   2.920
49283SOL    HW249747   9.669   9.946   2.783
49284SOL     OW49748   4.962   9.373   9.356
49284SOL    HW149749   4.877   9.415   9.359
49284SOL    HW249750   4.999   9.387   9.443
49285SOL     OW49751   8.702   0.513  10.066
49285SOL    HW149752   8.708   0.575  10.139
49285SOL    HW249753   8.642   0.555  10.004
49286SOL     OW49754   9.094   0.630   0.690
49286SOL    HW149755   9.040   0.560   0.726
49286SOL    HW249756   9.184   0.598   0.696
49287SOL     OW49757  13.632  10.631   0.159
49287SOL    HW149758  13.580  10.702   0.197
49287SOL    HW249759  13.605  10.553   0.209
49288SOL     OW49760  11.428   2.068   3.810
49288SOL    HW149761  11.455   2.137   3.870
49288SOL    HW249762  11.492   1.998   3.824
49289SOL     OW49763   9.185  10.068  11.107
49289SOL    HW149764   9.229   9.997  11.155
49289SOL    HW249765   9.205  10.051  11.015
49290SOL     OW49766   0.159   7.705  12.044
49290SOL    HW149767   0.196   7.743  12.124
49290SOL    HW249768   0.117   7.779  11.999
49291SOL     OW49769  14.565   5.654  10.703
49291SOL    HW149770  14.515   5.581  10.742
49291SOL    HW249771  14.640   5.612  10.661
49292SOL     OW49772   0.579   5.942  10.564
49292SOL    HW149773   0.589   5.874  10.630
49292SOL    HW249774   0.488   5.970  10.572
49293SOL     OW49775   3.045  12.073   0.346
49293SOL    HW149776   2.992  11.995   0.327
49293SOL    HW249777   3.091  12.091   0.265
49294SOL     OW49778   4.923   5.258   9.163
49294SOL    HW149779   4.945   5.234   9.073
49294SOL    HW249780   4.848   5.202   9.185
49295SOL     OW49781   8.310   7.562   9.647
49295SOL    HW149782   8.381   7.539   9.587
49295SOL    HW249783   8.231   7.561   9.593
49296SOL     OW49784   2.019   7.866   4.795
49296SOL    HW149785   2.056   7.850   4.708
49296SOL    HW249786   2.014   7.780   4.836
49297SOL     OW49787   5.937   6.067   1.804
49297SOL    HW149788   5.865   6.004   1.813
49297SOL    HW249789   6.016   6.012   1.799
49298SOL     OW49790  11.443  13.795   5.954
49298SOL    HW149791  11.491  13.878   5.947
49298SOL    HW249792  11.375  13.801   5.888
49299SOL     OW49793   8.638   0.009   0.829
49299SOL    HW149794   8.723   0.023   0.787
49299SOL    HW249795   8.576   0.057   0.774
49300SOL     OW49796  12.768  11.338  13.299
49300SOL    HW149797  12.830  11.375  13.362
49300SOL    HW249798  12.682  11.358  13.336
49301SOL     OW49799   9.628   9.912   7.943
49301SOL    HW149800   9.679   9.845   7.898
49301SOL    HW249801   9.640   9.991   7.890
49302SOL     OW49802   7.224  11.227   2.041
49302SOL    HW149803   7.179  11.234   1.957
49302SOL    HW249804   7.208  11.311   2.084
49303SOL     OW49805   6.024   9.020  13.087
49303SOL    HW149806   6.063   9.005  13.173
49303SOL    HW249807   5.946   8.965  13.086
49304SOL     OW49808   6.751   3.271   8.832
49304SOL    HW149809   6.698   3.308   8.903
49304SOL    HW249810   6.687   3.244   8.766
49305SOL     OW49811   0.451   2.540   1.144
49305SOL    HW149812   0.428   2.566   1.233
49305SOL    HW249813   0.467   2.623   1.099
49306SOL     OW49814  11.699   5.339   7.576
49306SOL    HW149815  11.639   5.412   7.582
49306SOL    HW249816  11.785   5.380   7.564
49307SOL     OW49817   8.671   7.119  14.172
49307SOL    HW149818   8.663   7.162  14.086
49307SOL    HW249819   8.645   7.187  14.235
49308SOL     OW49820   6.702   3.254  13.216
49308SOL    HW149821   6.756   3.218  13.146
49308SOL    HW249822   6.711   3.191  13.288
49309SOL     OW49823   7.861   7.851   7.618
49309SOL    HW149824   7.859   7.904   7.538
49309SOL    HW249825   7.947   7.809   7.617
49310SOL     OW49826   4.492   1.730  14.340
49310SOL    HW149827   4.513   1.702  14.429
49310SOL    HW249828   4.398   1.715  14.331
49311SOL     OW49829   2.436   0.232  13.856
49311SOL    HW149830   2.488   0.154  13.836
49311SOL    HW249831   2.409   0.220  13.947
49312SOL     OW49832   9.033   0.692   6.038
49312SOL    HW149833   9.107   0.636   6.014
49312SOL    HW249834   8.966   0.631   6.068
49313SOL     OW49835   5.195   4.313  13.907
49313SOL    HW149836   5.237   4.269  13.834
49313SOL    HW249837   5.230   4.269  13.985
49314SOL     OW49838   4.272  11.781  12.647
49314SOL    HW149839   4.345  11.781  12.585
49314SOL    HW249840   4.299  11.841  12.716
49315SOL     OW49841   5.695   1.447  13.158
49315SOL    HW149842   5.770   1.434  13.217
49315SOL    HW249843   5.659   1.359  13.145
49316SOL     OW49844   4.817   5.472   3.349
49316SOL    HW149845   4.888   5.511   3.299
49316SOL    HW249846   4.816   5.380   3.323
49317SOL     OW49847   7.178   4.490   8.086
49317SOL    HW149848   7.245   4.431   8.119
49317SOL    HW249849   7.208   4.577   8.113
49318SOL     OW49850  11.812   8.225   3.522
49318SOL    HW149851  11.869   8.150   3.504
49318SOL    HW249852  11.872   8.300   3.527
49319SOL     OW49853   6.881   8.027  13.294
49319SOL    HW149854   6.902   8.098  13.234
49319SOL    HW249855   6.792   8.046  13.325
49320SOL     OW49856   4.749   4.524   7.991
49320SOL    HW149857   4.823   4.492   7.939
49320SOL    HW249858   4.709   4.593   7.938
49321SOL     OW49859   9.961   9.659   2.214
49321SOL    HW149860   9.913   9.740   2.232
49321SOL    HW249861   9.974   9.659   2.119
49322SOL     OW49862   4.026   0.558   2.459
49322SOL    HW149863   4.060   0.528   2.375
49322SOL    HW249864   3.949   0.504   2.474
49323SOL     OW49865   6.721   7.343   0.582
49323SOL    HW149866   6.774   7.420   0.560
49323SOL    HW249867   6.636   7.379   0.607
49324SOL     OW49868   6.025   4.408  13.260
49324SOL    HW149869   5.986   4.407  13.173
49324SOL    HW249870   5.971   4.469  13.310
49325SOL     OW49871   5.744   2.130   8.092
49325SOL    HW149872   5.702   2.175   8.019
49325SOL    HW249873   5.824   2.093   8.055
49326SOL     OW49874   5.920   5.165   2.649
49326SOL    HW149875   5.907   5.087   2.704
49326SOL    HW249876   5.836   5.176   2.604
49327SOL     OW49877  11.055  10.473  10.484
49327SOL    HW149878  11.028  10.401  10.427
49327SOL    HW249879  11.120  10.521  10.433
49328SOL     OW49880   5.538   4.275   4.480
49328SOL    HW149881   5.452   4.248   4.511
49328SOL    HW249882   5.591   4.283   4.559
49329SOL     OW49883   5.088   3.239  12.537
49329SOL    HW149884   5.183   3.229  12.535
49329SOL    HW249885   5.055   3.163  12.489
49330SOL     OW49886   1.682  14.492   9.514
49330SOL    HW149887   1.626  14.433   9.463
49330SOL    HW249888   1.770  14.454   9.507
49331SOL     OW49889  10.340   4.479   1.060
49331SOL    HW149890  10.408   4.444   1.117
49331SOL    HW249891  10.378   4.558   1.022
49332SOL     OW49892   5.429  14.667  14.771
49332SOL    HW149893   5.356  14.620  14.810
49332SOL    HW249894   5.388  14.725  14.706
49333SOL     OW49895   0.655   0.611   5.557
49333SOL    HW149896   0.713   0.578   5.625
49333SOL    HW249897   0.710   0.618   5.479
49334SOL     OW49898   1.300  14.455   1.975
49334SOL    HW149899   1.366  14.422   1.914
49334SOL    HW249900   1.242  14.380   1.990
49335SOL     OW49901   5.148  10.857  11.808
49335SOL    HW149902   5.218  10.891  11.865
49335SOL    HW249903   5.067  10.877  11.855
49336SOL     OW49904   0.896   4.401  13.793
49336SOL    HW149905   0.890   4.481  13.845
49336SOL    HW249906   0.917   4.431  13.705
49337SOL     OW49907  13.370  13.629  10.490
49337SOL    HW149908  13.404  13.684  10.420
49337SOL    HW249909  13.420  13.654  10.568
49338SOL     OW49910   0.212  13.656   9.973
49338SOL    HW149911   0.238  13.578   9.925
49338SOL    HW249912   0.194  13.721   9.905
49339SOL     OW49913   2.166  14.796  12.516
49339SOL    HW149914   2.252  14.830  12.541
49339SOL    HW249915   2.180  14.755  12.431
49340SOL     OW49916   9.258   6.853   9.880
49340SOL    HW149917   9.296   6.940   9.889
49340SOL    HW249918   9.215   6.836   9.963
49341SOL     OW49919  14.115   3.066   2.642
49341SOL    HW149920  14.182   3.091   2.705
49341SOL    HW249921  14.162   3.018   2.574
49342SOL     OW49922   8.031  13.595   2.564
49342SOL    HW149923   8.106  13.655   2.559
49342SOL    HW249924   8.060  13.517   2.516
49343SOL     OW49925   5.726   1.588   4.192
49343SOL    HW149926   5.722   1.526   4.120
49343SOL    HW249927   5.635   1.601   4.219
49344SOL     OW49928   0.203   8.604  10.337
49344SOL    HW149929   0.283   8.621  10.388
49344SOL    HW249930   0.204   8.671  10.268
49345SOL     OW49931   9.724  13.411   7.308
49345SOL    HW149932   9.754  13.463   7.382
49345SOL    HW249933   9.757  13.457   7.231
49346SOL     OW49934  11.764   4.574  11.831
49346SOL    HW149935  11.699   4.574  11.760
49346SOL    HW249936  11.725   4.630  11.898
49347SOL     OW49937   6.407   1.941   5.367
49347SOL    HW149938   6.474   2.007   5.378
49347SOL    HW249939   6.327   1.982   5.400
49348SOL     OW49940  12.471   8.417   7.999
49348SOL    HW149941  12.531   8.490   7.982
49348SOL    HW249942  12.385   8.458   8.008
49349SOL     OW49943  12.057  12.987  14.402
49349SOL    HW149944  12.127  13.040  14.441
49349SOL    HW249945  12.082  12.897  14.421
49350SOL     OW49946  13.997   0.553   4.707
49350SOL    HW149947  14.047   0.477   4.737
49350SOL    HW249948  14.003   0.615   4.779
49351SOL     OW49949   9.600   6.117  13.013
49351SOL    HW149950   9.548   6.193  12.987
49351SOL    HW249951   9.669   6.111  12.947
49352SOL     OW49952   4.286   8.191  12.438
49352SOL    HW149953   4.351   8.133  12.398
49352SOL    HW249954   4.241   8.135  12.502
49353SOL     OW49955   5.667   7.697   1.978
49353SOL    HW149956   5.582   7.722   2.015
49353SOL    HW249957   5.718   7.778   1.980
49354SOL     OW49958  13.122   9.147   2.146
49354SOL    HW149959  13.063   9.216   2.176
49354SOL    HW249960  13.207   9.190   2.135
49355SOL     OW49961   4.206  13.287  14.639
49355SOL    HW149962   4.216  13.312  14.731
49355SOL    HW249963   4.296  13.278  14.607
49356SOL     OW49964   1.535   2.690   8.261
49356SOL    HW149965   1.573   2.658   8.342
49356SOL    HW249966   1.604   2.745   8.223
49357SOL     OW49967   0.061   5.428   7.463
49357SOL    HW149968   0.076   5.523   7.466
49357SOL    HW249969   0.076   5.399   7.553
49358SOL     OW49970   0.794   1.537   1.063
49358SOL    HW149971   0.809   1.589   0.985
49358SOL    HW249972   0.875   1.487   1.074
49359SOL     OW49973   5.106  12.605   8.880
49359SOL    HW149974   5.130  12.540   8.813
49359SOL    HW249975   5.011  12.608   8.877
49360SOL     OW49976  13.154   1.655   0.034
49360SOL    HW149977  13.241   1.621   0.012
49360SOL    HW249978  13.152   1.655   0.130
49361SOL     OW49979   2.013   3.529  10.986
49361SOL    HW149980   2.104   3.500  10.976
49361SOL    HW249981   1.973   3.463  11.043
49362SOL     OW49982   6.168   0.233   7.681
49362SOL    HW149983   6.217   0.268   7.606
49362SOL    HW249984   6.146   0.143   7.655
49363SOL     OW49985  13.100   8.110   0.532
49363SOL    HW149986  13.194   8.124   0.546
49363SOL    HW249987  13.058   8.149   0.608
49364SOL     OW49988  14.385  10.046  10.280
49364SOL    HW149989  14.362   9.965  10.233
49364SOL    HW249990  14.348  10.116  10.226
49365SOL     OW49991   4.316   8.494   3.756
49365SOL    HW149992   4.341   8.535   3.673
49365SOL    HW249993   4.294   8.567   3.813
49366SOL     OW49994   4.362   8.290  13.519
49366SOL    HW149995   4.392   8.214  13.469
49366SOL    HW249996   4.328   8.350  13.452
49367SOL     OW49997   4.009   3.917   3.208
49367SOL    HW149998   3.965   3.996   3.238
49367SOL    HW249999   4.102   3.937   3.212
49368SOL     OW50000   1.358   4.584  14.494
49368SOL    HW150001   1.343   4.660  14.550
49368SOL    HW250002   1.288   4.523  14.517
49369SOL     OW50003   1.939   2.359  10.817
49369SOL    HW150004   1.892   2.353  10.900
49369SOL    HW250005   1.900   2.434  10.772
49370SOL     OW50006  13.941  12.818  14.391
49370SOL    HW150007  13.902  12.832  14.304
49370SOL    HW250008  13.870  12.837  14.452
49371SOL     OW50009   2.666  10.892  12.654
49371SOL    HW150010   2.700  10.900  12.565
49371SOL    HW250011   2.575  10.920  12.648
49372SOL     OW50012  10.872   9.022  14.496
49372SOL    HW150013  10.875   9.050  14.405
49372SOL    HW250014  10.790   8.973  14.504
49373SOL     OW50015   6.024   4.051   7.269
49373SOL    HW150016   5.999   3.965   7.302
49373SOL    HW250017   5.995   4.051   7.178
49374SOL     OW50018   6.698  13.111  12.410
49374SOL    HW150019   6.754  13.061  12.470
49374SOL    HW250020   6.623  13.054  12.393
49375SOL     OW50021   5.760   1.073  10.431
49375SOL    HW150022   5.807   0.990  10.429
49375SOL    HW250023   5.715   1.078  10.346
49376SOL     OW50024   8.975  12.142   6.561
49376SOL    HW150025   9.049  12.115   6.508
49376SOL    HW250026   9.000  12.121   6.651
49377SOL     OW50027  14.029   7.395  12.642
49377SOL    HW150028  13.980   7.475  12.627
49377SOL    HW250029  14.025   7.349  12.558
49378SOL     OW50030   1.235   5.082  14.148
49378SOL    HW150031   1.292   5.036  14.209
49378SOL    HW250032   1.279   5.165  14.130
49379SOL     OW50033  11.051  14.619   4.288
49379SOL    HW150034  11.066  14.586   4.377
49379SOL    HW250035  11.139  14.627   4.250
49380SOL     OW50036   2.877   5.552   5.665
49380SOL    HW150037   2.934   5.476   5.656
49380SOL    HW250038   2.842   5.546   5.754
49381SOL     OW50039   9.328   6.794  11.129
49381SOL    HW150040   9.284   6.712  11.107
49381SOL    HW250041   9.293   6.819  11.215
49382SOL     OW50042   5.849  10.687   7.361
49382SOL    HW150043   5.885  10.609   7.403
49382SOL    HW250044   5.903  10.759   7.393
49383SOL     OW50045   0.345  12.395   8.648
49383SOL    HW150046   0.402  12.341   8.703
49383SOL    HW250047   0.308  12.334   8.584
49384SOL     OW50048  12.574   1.895   1.212
49384SOL    HW150049  12.658   1.939   1.219
49384SOL    HW250050  12.512   1.954   1.254
49385SOL     OW50051   1.390  14.435  12.954
49385SOL    HW150052   1.385  14.353  13.002
49385SOL    HW250053   1.468  14.426  12.899
49386SOL     OW50054  10.369  10.929   1.480
49386SOL    HW150055  10.312  10.919   1.403
49386SOL    HW250056  10.392  11.022   1.481
49387SOL     OW50057   2.023  10.544  10.345
49387SOL    HW150058   1.933  10.524  10.319
49387SOL    HW250059   2.076  10.477  10.301
49388SOL     OW50060   3.591   7.744  13.274
49388SOL    HW150061   3.552   7.673  13.325
49388SOL    HW250062   3.595   7.710  13.184
49389SOL     OW50063  13.431   5.702   5.449
49389SOL    HW150064  13.385   5.618   5.449
49389SOL    HW250065  13.366   5.765   5.417
49390SOL     OW50066   2.314   1.718   0.921
49390SOL    HW150067   2.227   1.754   0.940
49390SOL    HW250068   2.360   1.791   0.878
49391SOL     OW50069   6.433   3.076   1.707
49391SOL    HW150070   6.433   3.172   1.704
49391SOL    HW250071   6.452   3.050   1.617
49392SOL     OW50072   8.358  11.988   3.350
49392SOL    HW150073   8.347  12.082   3.332
49392SOL    HW250074   8.423  11.984   3.419
49393SOL     OW50075  11.574   0.544  12.464
49393SOL    HW150076  11.645   0.602  12.436
49393SOL    HW250077  11.617   0.476  12.515
49394SOL     OW50078   6.707  13.474   9.370
49394SOL    HW150079   6.769  13.414   9.328
49394SOL    HW250080   6.716  13.555   9.320
49395SOL     OW50081   4.815   5.851   6.091
49395SOL    HW150082   4.825   5.756   6.077
49395SOL    HW250083   4.794   5.859   6.184
49396SOL     OW50084   0.647   9.060   0.208
49396SOL    HW150085   0.689   8.998   0.268
49396SOL    HW250086   0.572   9.012   0.173
49397SOL     OW50087   5.441   8.637  10.912
49397SOL    HW150088   5.423   8.543  10.904
49397SOL    HW250089   5.442   8.653  11.006
49398SOL     OW50090   7.011   5.937  12.895
49398SOL    HW150091   7.084   5.953  12.836
49398SOL    HW250092   7.050   5.892  12.970
49399SOL     OW50093   0.754   9.288   2.939
49399SOL    HW150094   0.781   9.379   2.952
49399SOL    HW250095   0.743   9.280   2.844
49400SOL     OW50096   8.946   3.738   9.044
49400SOL    HW150097   8.887   3.675   9.001
49400SOL    HW250098   8.906   3.752   9.130
49401SOL     OW50099   7.338   4.935  11.672
49401SOL    HW150100   7.374   4.989  11.742
49401SOL    HW250101   7.357   4.984  11.592
49402SOL     OW50102  12.308   6.015  13.877
49402SOL    HW150103  12.369   6.062  13.933
49402SOL    HW250104  12.364   5.970  13.813
49403SOL     OW50105   8.820  14.378  11.297
49403SOL    HW150106   8.728  14.388  11.273
49403SOL    HW250107   8.824  14.293  11.342
49404SOL     OW50108  13.814   5.627   3.409
49404SOL    HW150109  13.729   5.602   3.446
49404SOL    HW250110  13.811   5.723   3.405
49405SOL     OW50111  12.491   1.079   5.551
49405SOL    HW150112  12.494   1.104   5.643
49405SOL    HW250113  12.434   1.144   5.510
49406SOL     OW50114  11.327   0.828   1.022
49406SOL    HW150115  11.267   0.766   0.979
49406SOL    HW250116  11.291   0.839   1.110
49407SOL     OW50117   2.275   1.604   3.433
49407SOL    HW150118   2.344   1.667   3.455
49407SOL    HW250119   2.221   1.649   3.368
49408SOL     OW50120  13.656   8.115   7.976
49408SOL    HW150121  13.666   8.020   7.986
49408SOL    HW250122  13.561   8.129   7.969
49409SOL     OW50123  13.806   8.824   8.886
49409SOL    HW150124  13.779   8.867   8.804
49409SOL    HW250125  13.756   8.869   8.954
49410SOL     OW50126  12.987   3.649   6.321
49410SOL    HW150127  12.909   3.704   6.320
49410SOL    HW250128  13.019   3.652   6.411
49411SOL     OW50129   3.082   5.262   1.591
49411SOL    HW150130   3.016   5.331   1.592
49411SOL    HW250131   3.150   5.295   1.533
49412SOL     OW50132  14.259   7.814   1.498
49412SOL    HW150133  14.236   7.859   1.417
49412SOL    HW250134  14.315   7.876   1.545
49413SOL     OW50135  12.137   6.789   0.213
49413SOL    HW150136  12.177   6.720   0.267
49413SOL    HW250137  12.141   6.867   0.267
49414SOL     OW50138   1.326  11.609   7.747
49414SOL    HW150139   1.407  11.660   7.748
49414SOL    HW250140   1.349  11.529   7.699
49415SOL     OW50141   9.669   7.697   5.714
49415SOL    HW150142   9.735   7.686   5.645
49415SOL    HW250143   9.720   7.715   5.793
49416SOL     OW50144   8.424   1.480   8.007
49416SOL    HW150145   8.496   1.477   7.944
49416SOL    HW250146   8.404   1.573   8.017
49417SOL     OW50147   8.328  13.028   3.564
49417SOL    HW150148   8.316  13.110   3.517
49417SOL    HW250149   8.319  13.052   3.656
49418SOL     OW50150   9.123  12.590  13.335
49418SOL    HW150151   9.107  12.500  13.304
49418SOL    HW250152   9.207  12.584  13.381
49419SOL     OW50153  11.320  13.739  13.589
49419SOL    HW150154  11.392  13.801  13.586
49419SOL    HW250155  11.348  13.673  13.652
49420SOL     OW50156   0.195   0.947   3.820
49420SOL    HW150157   0.136   0.942   3.744
49420SOL    HW250158   0.250   1.023   3.803
49421SOL     OW50159  13.979   8.950   3.456
49421SOL    HW150160  13.910   8.885   3.470
49421SOL    HW250161  13.989   8.954   3.361
49422SOL     OW50162   0.268   9.626  12.104
49422SOL    HW150163   0.190   9.677  12.123
49422SOL    HW250164   0.340   9.678  12.141
49423SOL     OW50165  10.959  13.201   5.501
49423SOL    HW150166  10.873  13.183   5.540
49423SOL    HW250167  11.003  13.258   5.565
49424SOL     OW50168  12.426   4.129   0.812
49424SOL    HW150169  12.446   4.047   0.857
49424SOL    HW250170  12.395   4.187   0.881
49425SOL     OW50171  11.602   3.388   5.614
49425SOL    HW150172  11.599   3.397   5.710
49425SOL    HW250173  11.679   3.334   5.598
49426SOL     OW50174   2.330   1.430   9.399
49426SOL    HW150175   2.283   1.488   9.340
49426SOL    HW250176   2.382   1.374   9.342
49427SOL     OW50177   5.324   6.262   6.682
49427SOL    HW150178   5.284   6.321   6.745
49427SOL    HW250179   5.414   6.294   6.674
49428SOL     OW50180  11.372  14.825   5.120
49428SOL    HW150181  11.367  14.816   5.025
49428SOL    HW250182  11.462  14.852   5.137
49429SOL     OW50183   8.474  10.221   8.743
49429SOL    HW150184   8.541  10.284   8.717
49429SOL    HW250185   8.452  10.175   8.662
49430SOL     OW50186   3.540   4.468   0.561
49430SOL    HW150187   3.477   4.437   0.496
49430SOL    HW250188   3.626   4.446   0.525
49431SOL     OW50189   9.673  11.549   3.634
49431SOL    HW150190   9.716  11.557   3.719
49431SOL    HW250191   9.604  11.484   3.648
49432SOL     OW50192  10.077   3.144   6.528
49432SOL    HW150193  10.069   3.093   6.448
49432SOL    HW250194  10.008   3.110   6.585
49433SOL     OW50195  10.543   0.804   8.620
49433SOL    HW150196  10.496   0.767   8.695
49433SOL    HW250197  10.635   0.805   8.648
49434SOL     OW50198   0.402   8.432   7.371
49434SOL    HW150199   0.407   8.490   7.295
49434SOL    HW250200   0.392   8.345   7.334
49435SOL     OW50201   2.771   3.531   7.186
49435SOL    HW150202   2.691   3.548   7.138
49435SOL    HW250203   2.835   3.592   7.149
49436SOL     OW50204   5.093  12.260   9.385
49436SOL    HW150205   5.095  12.316   9.307
49436SOL    HW250206   5.171  12.204   9.376
49437SOL     OW50207  13.530   3.993  12.644
49437SOL    HW150208  13.597   4.055  12.614
49437SOL    HW250209  13.461   4.048  12.681
49438SOL     OW50210   4.814  13.406   3.478
49438SOL    HW150211   4.860  13.484   3.509
49438SOL    HW250212   4.735  13.402   3.532
49439SOL     OW50213   5.834   4.837   3.234
49439SOL    HW150214   5.842   4.868   3.324
49439SOL    HW250215   5.878   4.752   3.234
49440SOL     OW50216  12.196   7.392   1.214
49440SOL    HW150217  12.234   7.406   1.127
49440SOL    HW250218  12.256   7.436   1.274
49441SOL     OW50219   5.786   8.317  10.297
49441SOL    HW150220   5.768   8.341  10.206
49441SOL    HW250221   5.701   8.325  10.341
49442SOL     OW50222  10.725  12.052   2.068
49442SOL    HW150223  10.712  12.056   2.163
49442SOL    HW250224  10.801  12.108   2.052
49443SOL     OW50225   5.615   1.389   9.183
49443SOL    HW150226   5.574   1.421   9.264
49443SOL    HW250227   5.695   1.345   9.213
49444SOL     OW50228   4.708  13.344  11.198
49444SOL    HW150229   4.775  13.318  11.135
49444SOL    HW250230   4.726  13.290  11.276
49445SOL     OW50231   5.399   1.994   4.864
49445SOL    HW150232   5.454   1.997   4.941
49445SOL    HW250233   5.394   2.085   4.834
49446SOL     OW50234   8.583   8.728   8.405
49446SOL    HW150235   8.575   8.816   8.443
49446SOL    HW250236   8.508   8.680   8.438
49447SOL     OW50237   2.999   0.361  13.175
49447SOL    HW150238   2.940   0.356  13.100
49447SOL    HW250239   2.941   0.362  13.251
49448SOL     OW50240   0.731   8.896   5.311
49448SOL    HW150241   0.657   8.891   5.372
49448SOL    HW250242   0.744   8.806   5.282
49449SOL     OW50243   2.600   4.240   6.108
49449SOL    HW150244   2.547   4.272   6.181
49449SOL    HW250245   2.678   4.296   6.109
49450SOL     OW50246   7.254   2.781   4.412
49450SOL    HW150247   7.271   2.687   4.424
49450SOL    HW250248   7.340   2.818   4.391
49451SOL     OW50249   4.769   7.437   6.866
49451SOL    HW150250   4.752   7.435   6.960
49451SOL    HW250251   4.819   7.357   6.849
49452SOL     OW50252  12.653  10.930   5.996
49452SOL    HW150253  12.634  10.877   6.074
49452SOL    HW250254  12.746  10.915   5.979
49453SOL     OW50255   9.564   6.581  13.490
49453SOL    HW150256   9.590   6.651  13.551
49453SOL    HW250257   9.613   6.600  13.410
49454SOL     OW50258   4.605  10.673  13.367
49454SOL    HW150259   4.550  10.740  13.327
49454SOL    HW250260   4.549  10.597  13.375
49455SOL     OW50261   2.030   5.555   0.768
49455SOL    HW150262   2.030   5.581   0.676
49455SOL    HW250263   1.979   5.474   0.771
49456SOL     OW50264   5.129   1.692   1.397
49456SOL    HW150265   5.185   1.630   1.444
49456SOL    HW250266   5.047   1.645   1.385
49457SOL     OW50267  12.015  14.556   0.654
49457SOL    HW150268  12.016  14.473   0.702
49457SOL    HW250269  12.100  14.560   0.611
49458SOL     OW50270  12.955   2.825   4.059
49458SOL    HW150271  12.915   2.838   4.146
49458SOL    HW250272  12.886   2.785   4.007
49459SOL     OW50273   5.661   7.440   7.788
49459SOL    HW150274   5.753   7.415   7.777
49459SOL    HW250275   5.639   7.410   7.876
49460SOL     OW50276  13.397   9.774   8.307
49460SOL    HW150277  13.359   9.861   8.292
49460SOL    HW250278  13.432   9.779   8.396
49461SOL     OW50279  12.087  11.411  12.678
49461SOL    HW150280  12.001  11.444  12.703
49461SOL    HW250281  12.132  11.486  12.639
49462SOL     OW50282  14.290   1.112  10.944
49462SOL    HW150283  14.197   1.115  10.924
49462SOL    HW250284  14.301   1.033  10.998
49463SOL     OW50285   3.053   8.445   6.372
49463SOL    HW150286   3.141   8.431   6.336
49463SOL    HW250287   3.021   8.524   6.329
49464SOL     OW50288   0.674   6.704   1.043
49464SOL    HW150289   0.627   6.775   0.999
49464SOL    HW250290   0.646   6.711   1.134
49465SOL     OW50291  13.817   1.810   7.135
49465SOL    HW150292  13.824   1.886   7.192
49465SOL    HW250293  13.790   1.738   7.193
49466SOL     OW50294   4.646   6.169  11.508
49466SOL    HW150295   4.704   6.199  11.577
49466SOL    HW250296   4.626   6.248  11.457
49467SOL     OW50297   7.167   6.073  12.679
49467SOL    HW150298   7.245   6.024  12.654
49467SOL    HW250299   7.187   6.164  12.655
49468SOL     OW50300   6.729   1.351  11.314
49468SOL    HW150301   6.676   1.430  11.322
49468SOL    HW250302   6.666   1.280  11.304
49469SOL     OW50303   5.592  10.230   3.357
49469SOL    HW150304   5.641  10.202   3.434
49469SOL    HW250305   5.500  10.225   3.384
49470SOL     OW50306  10.890  11.406   1.607
49470SOL    HW150307  10.840  11.325   1.619
49470SOL    HW250308  10.892  11.418   1.512
49471SOL     OW50309  10.014   9.631   2.782
49471SOL    HW150310  10.066   9.645   2.861
49471SOL    HW250311  10.070   9.581   2.724
49472SOL     OW50312  13.995   5.802   5.110
49472SOL    HW150313  13.979   5.878   5.166
49472SOL    HW250314  13.932   5.737   5.141
49473SOL     OW50315  13.062   3.192   9.199
49473SOL    HW150316  13.131   3.201   9.265
49473SOL    HW250317  12.988   3.240   9.235
49474SOL     OW50318  10.818  12.409   8.141
49474SOL    HW150319  10.856  12.321   8.135
49474SOL    HW250320  10.868  12.452   8.210
49475SOL     OW50321  14.756  10.088   3.927
49475SOL    HW150322  14.818  10.016   3.939
49475SOL    HW250323  14.690  10.073   3.995
49476SOL     OW50324   9.176   0.952   0.396
49476SOL    HW150325   9.240   0.956   0.468
49476SOL    HW250326   9.228   0.936   0.318
49477SOL     OW50327   8.252  10.230  12.229
49477SOL    HW150328   8.323  10.166  12.224
49477SOL    HW250329   8.287  10.308  12.187
49478SOL     OW50330   4.167   9.250  13.668
49478SOL    HW150331   4.151   9.185  13.599
49478SOL    HW250332   4.211   9.322  13.624
49479SOL     OW50333  11.362  12.405   9.519
49479SOL    HW150334  11.441  12.430   9.471
49479SOL    HW250335  11.293  12.462   9.483
49480SOL     OW50336   7.372   8.069   7.845
49480SOL    HW150337   7.456   8.114   7.833
49480SOL    HW250338   7.327   8.121   7.911
49481SOL     OW50339  13.027  12.936   7.075
49481SOL    HW150340  13.105  12.889   7.107
49481SOL    HW250341  12.954  12.879   7.099
49482SOL     OW50342  10.981  13.403   8.743
49482SOL    HW150343  11.003  13.357   8.662
49482SOL    HW250344  11.028  13.486   8.737
49483SOL     OW50345   7.601   0.445   9.331
49483SOL    HW150346   7.670   0.439   9.266
49483SOL    HW250347   7.590   0.355   9.363
49484SOL     OW50348   0.951   1.135   3.501
49484SOL    HW150349   0.910   1.142   3.587
49484SOL    HW250350   0.908   1.059   3.460
49485SOL     OW50351  13.295   6.783   7.781
49485SOL    HW150352  13.262   6.817   7.863
49485SOL    HW250353  13.245   6.702   7.766
49486SOL     OW50354  11.779   4.560   3.817
49486SOL    HW150355  11.707   4.622   3.829
49486SOL    HW250356  11.807   4.575   3.726
49487SOL     OW50357   7.925  14.306  10.643
49487SOL    HW150358   7.960  14.233  10.694
49487SOL    HW250359   7.864  14.266  10.582
49488SOL     OW50360   8.087  10.571   5.011
49488SOL    HW150361   8.111  10.512   5.083
49488SOL    HW250362   7.996  10.593   5.027
49489SOL     OW50363   7.915  10.987   7.857
49489SOL    HW150364   7.826  11.003   7.824
49489SOL    HW250365   7.911  11.011   7.949
49490SOL     OW50366   6.058   8.964  12.107
49490SOL    HW150367   6.112   8.886  12.124
49490SOL    HW250368   5.969   8.936  12.127
49491SOL     OW50369  14.303   8.380   9.635
49491SOL    HW150370  14.224   8.434   9.631
49491SOL    HW250371  14.376   8.442   9.631
49492SOL     OW50372   5.359  13.890   4.768
49492SOL    HW150373   5.360  13.985   4.767
49492SOL    HW250374   5.272  13.867   4.801
49493SOL     OW50375   0.480   5.567   2.306
49493SOL    HW150376   0.487   5.619   2.386
49493SOL    HW250377   0.467   5.631   2.236
49494SOL     OW50378  10.280   9.611   2.650
49494SOL    HW150379  10.221   9.641   2.581
49494SOL    HW250380  10.363   9.655   2.632
49495SOL     OW50381   9.311   7.199   5.515
49495SOL    HW150382   9.360   7.203   5.432
49495SOL    HW250383   9.224   7.232   5.493
49496SOL     OW50384  14.452   2.825   7.298
49496SOL    HW150385  14.482   2.832   7.208
49496SOL    HW250386  14.358   2.846   7.295
49497SOL     OW50387   2.612   2.645   2.545
49497SOL    HW150388   2.598   2.552   2.564
49497SOL    HW250389   2.573   2.658   2.459
49498SOL     OW50390   4.160  10.252   7.756
49498SOL    HW150391   4.085  10.223   7.705
49498SOL    HW250392   4.207  10.171   7.778
49499SOL     OW50393   4.915   6.246   2.057
49499SOL    HW150394   5.009   6.237   2.074
49499SOL    HW250395   4.887   6.159   2.027
49500SOL     OW50396  12.716   5.278  14.668
49500SOL    HW150397  12.643   5.303  14.612
49500SOL    HW250398  12.777   5.351  14.661
49501SOL     OW50399   3.861  13.121   1.750
49501SOL    HW150400   3.855  13.167   1.667
49501SOL    HW250401   3.904  13.038   1.729
49502SOL     OW50402   0.012   8.715  14.063
49502SOL    HW150403   0.052   8.712  14.150
49502SOL    HW250404  14.844   8.631  14.055
49503SOL     OW50405   6.988   4.593   0.248
49503SOL    HW150406   6.931   4.539   0.304
49503SOL    HW250407   6.927   4.648   0.199
49504SOL     OW50408   0.098   4.657  14.847
49504SOL    HW150409   0.115   4.639  14.754
49504SOL    HW250410   0.005   4.680  14.850
49505SOL     OW50411   4.397   3.638   8.883
49505SOL    HW150412   4.452   3.672   8.954
49505SOL    HW250413   4.437   3.673   8.803
49506SOL     OW50414  14.150   6.407   2.356
49506SOL    HW150415  14.070   6.372   2.394
49506SOL    HW250416  14.150   6.373   2.266
49507SOL     OW50417   9.832   9.223  10.579
49507SOL    HW150418   9.856   9.235  10.487
49507SOL    HW250419   9.792   9.136  10.582
49508SOL     OW50420   8.808   0.134   4.317
49508SOL    HW150421   8.732   0.125   4.259
49508SOL    HW250422   8.847   0.218   4.292
49509SOL     OW50423   5.348   5.806   9.905
49509SOL    HW150424   5.282   5.875   9.892
49509SOL    HW250425   5.311   5.750   9.973
49510SOL     OW50426   8.233   0.839   7.295
49510SOL    HW150427   8.325   0.820   7.277
49510SOL    HW250428   8.185   0.777   7.240
49511SOL     OW50429  13.208   9.042   2.458
49511SOL    HW150430  13.178   9.048   2.549
49511SOL    HW250431  13.234   9.132   2.436
49512SOL     OW50432   9.166  13.317  11.959
49512SOL    HW150433   9.166  13.304  12.054
49512SOL    HW250434   9.234  13.382  11.944
49513SOL     OW50435  11.212  12.828   0.746
49513SOL    HW150436  11.239  12.738   0.761
49513SOL    HW250437  11.173  12.855   0.829
49514SOL     OW50438  14.227  11.673  14.455
49514SOL    HW150439  14.259  11.661  14.544
49514SOL    HW250440  14.305  11.695  14.404
49515SOL     OW50441   5.591   5.345  10.380
49515SOL    HW150442   5.528   5.359  10.451
49515SOL    HW250443   5.645   5.424  10.379
49516SOL     OW50444  11.454  11.069  10.674
49516SOL    HW150445  11.360  11.089  10.680
49516SOL    HW250446  11.486  11.084  10.763
49517SOL     OW50447  10.478  11.667  12.840
49517SOL    HW150448  10.430  11.587  12.819
49517SOL    HW250449  10.428  11.737  12.799
49518SOL     OW50450   7.438   8.762   5.542
49518SOL    HW150451   7.469   8.742   5.630
49518SOL    HW250452   7.428   8.676   5.500
49519SOL     OW50453   8.044   9.095   6.510
49519SOL    HW150454   8.126   9.060   6.476
49519SOL    HW250455   8.059   9.102   6.604
49520SOL     OW50456   3.955   8.426   5.462
49520SOL    HW150457   3.976   8.376   5.383
49520SOL    HW250458   4.020   8.496   5.464
49521SOL     OW50459  10.387  11.283  11.157
49521SOL    HW150460  10.313  11.301  11.215
49521SOL    HW250461  10.379  11.190  11.136
49522SOL     OW50462   0.334  13.248  13.135
49522SOL    HW150463   0.265  13.278  13.193
49522SOL    HW250464   0.296  13.252  13.047
49523SOL     OW50465  13.622  11.420  11.789
49523SOL    HW150466  13.658  11.428  11.878
49523SOL    HW250467  13.658  11.494  11.742
49524SOL     OW50468  13.928  12.587   6.521
49524SOL    HW150469  13.844  12.559   6.486
49524SOL    HW250470  13.933  12.545   6.607
49525SOL     OW50471   4.324  14.575  12.871
49525SOL    HW150472   4.285  14.635  12.935
49525SOL    HW250473   4.277  14.492  12.884
49526SOL     OW50474   0.481   4.586   6.666
49526SOL    HW150475   0.482   4.668   6.715
49526SOL    HW250476   0.393   4.550   6.681
49527SOL     OW50477   3.035  11.185   6.725
49527SOL    HW150478   3.019  11.229   6.642
49527SOL    HW250479   3.100  11.239   6.770
49528SOL     OW50480   8.184   0.437   6.820
49528SOL    HW150481   8.145   0.373   6.879
49528SOL    HW250482   8.185   0.394   6.735
49529SOL     OW50483   3.399  14.366  13.355
49529SOL    HW150484   3.421  14.276  13.331
49529SOL    HW250485   3.350  14.358  13.437
49530SOL     OW50486   0.574   5.322  11.756
49530SOL    HW150487   0.572   5.398  11.813
49530SOL    HW250488   0.667   5.300  11.749
49531SOL     OW50489   9.194  12.046  11.740
49531SOL    HW150490   9.219  12.079  11.654
49531SOL    HW250491   9.100  12.035  11.735
49532SOL     OW50492   4.253   2.440  10.121
49532SOL    HW150493   4.260   2.525  10.165
49532SOL    HW250494   4.208   2.384  10.184
49533SOL     OW50495   1.737   4.488   8.417
49533SOL    HW150496   1.678   4.413   8.428
49533SOL    HW250497   1.778   4.499   8.502
49534SOL     OW50498   0.077   7.547   2.404
49534SOL    HW150499  14.860   7.537   2.403
49534SOL    HW250500   0.107   7.485   2.471
49535SOL     OW50501   6.925   8.725   4.530
49535SOL    HW150502   6.912   8.746   4.437
49535SOL    HW250503   6.998   8.664   4.531
49536SOL     OW50504   6.577   9.694  12.995
49536SOL    HW150505   6.580   9.788  13.007
49536SOL    HW250506   6.579   9.682  12.900
49537SOL     OW50507   0.860  12.219   2.406
49537SOL    HW150508   0.862  12.191   2.315
49537SOL    HW250509   0.775  12.190   2.439
49538SOL     OW50510  14.213  11.022  10.957
49538SOL    HW150511  14.227  11.082  11.030
49538SOL    HW250512  14.240  10.936  10.990
49539SOL     OW50513   3.037  12.575  11.398
49539SOL    HW150514   3.013  12.615  11.482
49539SOL    HW250515   2.954  12.565  11.352
49540SOL     OW50516   5.312   8.491   9.694
49540SOL    HW150517   5.243   8.445   9.742
49540SOL    HW250518   5.309   8.454   9.606
49541SOL     OW50519   8.889  10.190   1.662
49541SOL    HW150520   8.934  10.250   1.721
49541SOL    HW250521   8.916  10.103   1.690
49542SOL     OW50522   2.958   5.214  11.088
49542SOL    HW150523   2.911   5.251  11.162
49542SOL    HW250524   3.009   5.142  11.125
49543SOL     OW50525   9.145   2.573  14.027
49543SOL    HW150526   9.123   2.549  13.937
49543SOL    HW250527   9.152   2.489  14.073
49544SOL     OW50528   3.577   1.457   7.177
49544SOL    HW150529   3.493   1.431   7.214
49544SOL    HW250530   3.591   1.546   7.210
49545SOL     OW50531  13.020   9.583   1.734
49545SOL    HW150532  13.050   9.657   1.787
49545SOL    HW250533  13.037   9.507   1.789
49546SOL     OW50534   9.672   0.549  12.549
49546SOL    HW150535   9.660   0.566  12.455
49546SOL    HW250536   9.724   0.468  12.551
49547SOL     OW50537   4.090  12.486   9.554
49547SOL    HW150538   4.091  12.581   9.545
49547SOL    HW250539   4.181  12.461   9.564
49548SOL     OW50540   1.463   5.335   1.540
49548SOL    HW150541   1.398   5.268   1.521
49548SOL    HW250542   1.469   5.386   1.460
49549SOL     OW50543   7.518  13.749   1.505
49549SOL    HW150544   7.554  13.681   1.561
49549SOL    HW250545   7.424  13.750   1.526
49550SOL     OW50546  14.219  14.500  14.604
49550SOL    HW150547  14.124  14.504  14.614
49550SOL    HW250548  14.249  14.446  14.677
49551SOL     OW50549   7.592   1.587   6.755
49551SOL    HW150550   7.577   1.524   6.826
49551SOL    HW250551   7.504   1.613   6.727
49552SOL     OW50552  10.425   3.384   3.869
49552SOL    HW150553  10.351   3.404   3.925
49552SOL    HW250554  10.480   3.462   3.873
49553SOL     OW50555   5.361   5.442   4.814
49553SOL    HW150556   5.339   5.389   4.738
49553SOL    HW250557   5.300   5.515   4.812
49554SOL     OW50558  11.991   3.852   3.014
49554SOL    HW150559  11.950   3.923   2.964
49554SOL    HW250560  12.014   3.786   2.948
49555SOL     OW50561   8.443   3.135   3.789
49555SOL    HW150562   8.403   3.055   3.823
49555SOL    HW250563   8.465   3.115   3.698
49556SOL     OW50564  10.972  13.970   9.339
49556SOL    HW150565  10.918  14.032   9.389
49556SOL    HW250566  10.916  13.941   9.268
49557SOL     OW50567   1.799   0.449  14.077
49557SOL    HW150568   1.751   0.371  14.048
49557SOL    HW250569   1.732   0.518  14.078
49558SOL     OW50570  13.017   9.050   3.037
49558SOL    HW150571  13.063   9.073   2.956
49558SOL    HW250572  13.029   9.126   3.094
49559SOL     OW50573   4.530   7.308   6.478
49559SOL    HW150574   4.563   7.262   6.400
49559SOL    HW250575   4.606   7.317   6.535
49560SOL     OW50576   8.368   1.844   0.928
49560SOL    HW150577   8.297   1.825   0.866
49560SOL    HW250578   8.415   1.761   0.937
49561SOL     OW50579  10.607  10.415   7.265
49561SOL    HW150580  10.530  10.422   7.322
49561SOL    HW250581  10.677  10.388   7.324
49562SOL     OW50582   2.032   9.848   6.008
49562SOL    HW150583   1.963   9.784   5.995
49562SOL    HW250584   2.087   9.840   5.929
49563SOL     OW50585   7.655  12.477   9.387
49563SOL    HW150586   7.604  12.414   9.437
49563SOL    HW250587   7.680  12.544   9.451
49564SOL     OW50588   0.970   8.648   4.068
49564SOL    HW150589   0.875   8.645   4.055
49564SOL    HW250590   1.000   8.560   4.044
49565SOL     OW50591  11.213   0.539  10.994
49565SOL    HW150592  11.263   0.518  11.073
49565SOL    HW250593  11.246   0.624  10.966
49566SOL     OW50594  10.256   5.408   4.738
49566SOL    HW150595  10.173   5.373   4.705
49566SOL    HW250596  10.248   5.503   4.726
49567SOL     OW50597   8.417   6.923   8.002
49567SOL    HW150598   8.350   6.959   7.944
49567SOL    HW250599   8.384   6.836   8.026
49568SOL     OW50600  13.625  13.655   2.178
49568SOL    HW150601  13.568  13.591   2.135
49568SOL    HW250602  13.697  13.669   2.116
49569SOL     OW50603   3.306  11.064  11.884
49569SOL    HW150604   3.393  11.025  11.890
49569SOL    HW250605   3.298  11.093  11.793
49570SOL     OW50606   6.569   1.667   0.810
49570SOL    HW150607   6.634   1.726   0.772
49570SOL    HW250608   6.521   1.633   0.735
49571SOL     OW50609  13.530   8.457   6.292
49571SOL    HW150610  13.496   8.484   6.378
49571SOL    HW250611  13.625   8.470   6.299
49572SOL     OW50612   0.644   5.910   7.897
49572SOL    HW150613   0.608   5.954   7.820
49572SOL    HW250614   0.706   5.847   7.861
49573SOL     OW50615   3.750   2.455  14.502
49573SOL    HW150616   3.761   2.366  14.468
49573SOL    HW250617   3.813   2.508  14.454
49574SOL     OW50618   4.804   5.058   5.003
49574SOL    HW150619   4.830   5.074   5.093
49574SOL    HW250620   4.875   5.094   4.950
49575SOL     OW50621   1.092  14.531  11.053
49575SOL    HW150622   1.074  14.574  10.970
49575SOL    HW250623   1.006  14.514  11.091
49576SOL     OW50624   9.203  14.142  11.349
49576SOL    HW150625   9.221  14.077  11.417
49576SOL    HW250626   9.174  14.091  11.274
49577SOL     OW50627   0.881   8.243   7.872
49577SOL    HW150628   0.792   8.217   7.848
49577SOL    HW250629   0.895   8.205   7.959
49578SOL     OW50630  13.494  12.318   1.784
49578SOL    HW150631  13.452  12.387   1.835
49578SOL    HW250632  13.577  12.356   1.755
49579SOL     OW50633   8.381   9.622   7.178
49579SOL    HW150634   8.355   9.570   7.254
49579SOL    HW250635   8.374   9.562   7.104
49580SOL     OW50636  10.271   3.728   9.341
49580SOL    HW150637  10.357   3.686   9.348
49580SOL    HW250638  10.269   3.791   9.413
49581SOL     OW50639   8.168   3.947   6.090
49581SOL    HW150640   8.168   4.015   6.022
49581SOL    HW250641   8.183   3.995   6.171
49582SOL     OW50642   9.004  10.770   9.575
49582SOL    HW150643   9.076  10.781   9.637
49582SOL    HW250644   8.993  10.676   9.567
49583SOL     OW50645   9.724   0.059  10.725
49583SOL    HW150646   9.769   0.007  10.658
49583SOL    HW250647   9.635   0.070  10.691
49584SOL     OW50648   9.737   5.423   2.373
49584SOL    HW150649   9.814   5.481   2.373
49584SOL    HW250650   9.773   5.335   2.363
49585SOL     OW50651   9.739   2.341   0.995
49585SOL    HW150652   9.787   2.270   0.953
49585SOL    HW250653   9.769   2.421   0.951
49586SOL     OW50654   0.370  13.144  13.450
49586SOL    HW150655   0.415  13.104  13.524
49586SOL    HW250656   0.416  13.109  13.373
49587SOL     OW50657  13.639  14.472   0.548
49587SOL    HW150658  13.594  14.530   0.487
49587SOL    HW250659  13.706  14.429   0.496
49588SOL     OW50660   1.786  11.105   9.338
49588SOL    HW150661   1.827  11.039   9.394
49588SOL    HW250662   1.856  11.132   9.278
49589SOL     OW50663   8.212  11.980   4.945
49589SOL    HW150664   8.163  12.035   4.884
49589SOL    HW250665   8.268  11.926   4.889
49590SOL     OW50666  14.123  12.747   5.351
49590SOL    HW150667  14.030  12.739   5.333
49590SOL    HW250668  14.136  12.699   5.433
49591SOL     OW50669   1.456  13.519  14.632
49591SOL    HW150670   1.471  13.439  14.582
49591SOL    HW250671   1.405  13.575  14.574
49592SOL     OW50672   5.147   2.069   3.314
49592SOL    HW150673   5.129   2.100   3.403
49592SOL    HW250674   5.061   2.041   3.281
49593SOL     OW50675  11.453   5.983   8.015
49593SOL    HW150676  11.512   5.974   7.941
49593SOL    HW250677  11.387   6.047   7.987
49594SOL     OW50678   0.508  14.038   8.623
49594SOL    HW150679   0.441  14.027   8.556
49594SOL    HW250680   0.468  14.002   8.702
49595SOL     OW50681  13.327   1.860   5.699
49595SOL    HW150682  13.286   1.783   5.739
49595SOL    HW250683  13.278   1.872   5.617
49596SOL     OW50684  11.498   3.378   1.783
49596SOL    HW150685  11.441   3.380   1.707
49596SOL    HW250686  11.527   3.287   1.789
49597SOL     OW50687   0.006   4.134   0.301
49597SOL    HW150688   0.035   4.054   0.256
49597SOL    HW250689   0.031   4.204   0.241
49598SOL     OW50690   3.821   0.942   6.023
49598SOL    HW150691   3.797   0.926   6.114
49598SOL    HW250692   3.876   1.021   6.027
49599SOL     OW50693   9.913   6.990   9.833
49599SOL    HW150694   9.967   7.031   9.765
49599SOL    HW250695   9.953   6.905   9.848
49600SOL     OW50696   7.736  13.162  14.418
49600SOL    HW150697   7.715  13.177  14.326
49600SOL    HW250698   7.652  13.138  14.458
49601SOL     OW50699  11.732  12.879  14.861
49601SOL    HW150700  11.685  12.961  14.877
49601SOL    HW250701  11.789  12.900  14.786
49602SOL     OW50702   8.127   7.889   9.969
49602SOL    HW150703   8.192   7.840   9.918
49602SOL    HW250704   8.072   7.822  10.009
49603SOL     OW50705   6.551   0.639   8.194
49603SOL    HW150706   6.470   0.618   8.149
49603SOL    HW250707   6.619   0.593   8.145
49604SOL     OW50708   2.888   7.319   7.896
49604SOL    HW150709   2.894   7.272   7.813
49604SOL    HW250710   2.796   7.314   7.920
49605SOL     OW50711   9.929  12.034   1.059
49605SOL    HW150712   9.976  12.050   1.141
49605SOL    HW250713   9.988  11.980   1.007
49606SOL     OW50714   7.038   2.448  14.870
49606SOL    HW150715   7.113   2.464   0.049
49606SOL    HW250716   6.966   2.496   0.033
49607SOL     OW50717   2.136  12.775   0.481
49607SOL    HW150718   2.115  12.820   0.399
49607SOL    HW250719   2.172  12.844   0.537
49608SOL     OW50720   9.965  11.219   7.831
49608SOL    HW150721   9.870  11.213   7.840
49608SOL    HW250722   9.995  11.244   7.919
49609SOL     OW50723   8.415   8.799   8.145
49609SOL    HW150724   8.444   8.766   8.230
49609SOL    HW250725   8.494   8.834   8.104
49610SOL     OW50726   3.523   3.319   7.428
49610SOL    HW150727   3.467   3.273   7.490
49610SOL    HW250728   3.610   3.316   7.466
49611SOL     OW50729  10.841  11.343   0.622
49611SOL    HW150730  10.747  11.342   0.601
49611SOL    HW250731  10.847  11.295   0.704
49612SOL     OW50732   6.860  11.397   9.421
49612SOL    HW150733   6.770  11.409   9.391
49612SOL    HW250734   6.911  11.462   9.372
49613SOL     OW50735  11.622   2.993   0.200
49613SOL    HW150736  11.639   3.065   0.138
49613SOL    HW250737  11.671   3.017   0.278
49614SOL     OW50738  14.423   7.749   9.314
49614SOL    HW150739  14.361   7.803   9.267
49614SOL    HW250740  14.505   7.798   9.311
49615SOL     OW50741   7.808  13.586   7.399
49615SOL    HW150742   7.818  13.599   7.305
49615SOL    HW250743   7.773  13.669   7.431
49616SOL     OW50744  14.835  14.217   7.402
49616SOL    HW150745  14.761  14.229   7.461
49616SOL    HW250746  14.805  14.252   7.319
49617SOL     OW50747  10.019  13.599  10.662
49617SOL    HW150748  10.011  13.606  10.566
49617SOL    HW250749  10.054  13.511  10.677
49618SOL     OW50750   3.299   9.921  13.246
49618SOL    HW150751   3.319   9.854  13.180
49618SOL    HW250752   3.373   9.982  13.241
49619SOL     OW50753   1.587  10.342  14.605
49619SOL    HW150754   1.574  10.251  14.630
49619SOL    HW250755   1.508  10.366  14.556
49620SOL     OW50756  11.248   2.196  10.503
49620SOL    HW150757  11.204   2.248  10.570
49620SOL    HW250758  11.177   2.158  10.451
49621SOL     OW50759   1.512  12.371  13.153
49621SOL    HW150760   1.506  12.462  13.181
49621SOL    HW250761   1.602  12.362  13.121
49622SOL     OW50762  12.522   5.848   2.300
49622SOL    HW150763  12.437   5.864   2.341
49622SOL    HW250764  12.502   5.796   2.222
49623SOL     OW50765   9.175   8.343  14.677
49623SOL    HW150766   9.112   8.393  14.729
49623SOL    HW250767   9.177   8.257  14.719
49624SOL     OW50768   6.883   4.758  11.912
49624SOL    HW150769   6.830   4.793  11.983
49624SOL    HW250770   6.932   4.833  11.879
49625SOL     OW50771   4.659   3.820   2.929
49625SOL    HW150772   4.746   3.859   2.927
49625SOL    HW250773   4.642   3.796   2.838
49626SOL     OW50774   9.540   7.871   5.260
49626SOL    HW150775   9.558   7.787   5.303
49626SOL    HW250776   9.491   7.921   5.325
49627SOL     OW50777  11.646   1.939   9.610
49627SOL    HW150778  11.587   1.990   9.554
49627SOL    HW250779  11.681   1.872   9.552
49628SOL     OW50780  10.130   8.212  13.533
49628SOL    HW150781  10.171   8.174  13.610
49628SOL    HW250782  10.059   8.152  13.511
49629SOL     OW50783   9.547  10.629  14.393
49629SOL    HW150784   9.516  10.695  14.331
49629SOL    HW250785   9.606  10.574  14.342
49630SOL     OW50786   8.835   2.712   8.062
49630SOL    HW150787   8.802   2.770   8.130
49630SOL    HW250788   8.757   2.686   8.012
49631SOL     OW50789   4.431   7.827   1.435
49631SOL    HW150790   4.401   7.903   1.384
49631SOL    HW250791   4.374   7.756   1.408
49632SOL     OW50792   7.228   6.008   6.145
49632SOL    HW150793   7.205   5.959   6.066
49632SOL    HW250794   7.303   5.961   6.181
49633SOL     OW50795   9.829   6.000   6.424
49633SOL    HW150796   9.909   6.043   6.454
49633SOL    HW250797   9.759   6.043   6.472
49634SOL     OW50798  14.384   6.803   1.527
49634SOL    HW150799  14.453   6.796   1.594
49634SOL    HW250800  14.396   6.725   1.472
49635SOL     OW50801   8.767  12.774  11.446
49635SOL    HW150802   8.718  12.718  11.386
49635SOL    HW250803   8.836  12.812  11.393
49636SOL     OW50804   4.612   5.940  13.094
49636SOL    HW150805   4.588   6.026  13.128
49636SOL    HW250806   4.707   5.937  13.101
49637SOL     OW50807   3.938   3.282   7.278
49637SOL    HW150808   3.880   3.261   7.352
49637SOL    HW250809   3.988   3.202   7.263
49638SOL     OW50810   1.308  12.713   8.895
49638SOL    HW150811   1.280  12.804   8.898
49638SOL    HW250812   1.229  12.665   8.868
49639SOL     OW50813  13.462   1.339   7.716
49639SOL    HW150814  13.394   1.272   7.727
49639SOL    HW250815  13.468   1.353   7.622
49640SOL     OW50816  12.311   9.112   6.815
49640SOL    HW150817  12.279   9.023   6.834
49640SOL    HW250818  12.405   9.101   6.804
49641SOL     OW50819   7.480   9.207  11.199
49641SOL    HW150820   7.481   9.179  11.291
49641SOL    HW250821   7.444   9.295  11.202
49642SOL     OW50822   9.994   7.355   2.403
49642SOL    HW150823  10.027   7.421   2.465
49642SOL    HW250824  10.070   7.301   2.382
49643SOL     OW50825   7.258   5.566   6.691
49643SOL    HW150826   7.232   5.644   6.740
49643SOL    HW250827   7.295   5.508   6.757
49644SOL     OW50828   6.430   3.147   5.898
49644SOL    HW150829   6.422   3.199   5.978
49644SOL    HW250830   6.368   3.187   5.837
49645SOL     OW50831   1.512   1.768  13.546
49645SOL    HW150832   1.598   1.807  13.561
49645SOL    HW250833   1.466   1.831  13.490
49646SOL     OW50834   3.187  11.387   6.842
49646SOL    HW150835   3.119  11.428   6.896
49646SOL    HW250836   3.243  11.459   6.815
49647SOL     OW50837   7.216   9.212   8.407
49647SOL    HW150838   7.143   9.176   8.457
49647SOL    HW250839   7.270   9.257   8.472
49648SOL     OW50840  12.293   8.422   8.644
49648SOL    HW150841  12.243   8.403   8.723
49648SOL    HW250842  12.346   8.498   8.667
49649SOL     OW50843   6.504   9.018   6.578
49649SOL    HW150844   6.542   9.103   6.555
49649SOL    HW250845   6.506   8.968   6.497
49650SOL     OW50846   3.030  13.822   0.814
49650SOL    HW150847   3.116  13.795   0.782
49650SOL    HW250848   3.043  13.912   0.843
49651SOL     OW50849   2.257  11.860   1.109
49651SOL    HW150850   2.284  11.911   1.033
49651SOL    HW250851   2.185  11.910   1.147
49652SOL     OW50852   5.879  12.234   1.857
49652SOL    HW150853   5.938  12.268   1.790
49652SOL    HW250854   5.914  12.267   1.939
49653SOL     OW50855   6.103   9.559  11.864
49653SOL    HW150856   6.164   9.609  11.809
49653SOL    HW250857   6.054   9.506  11.801
49654SOL     OW50858   3.577  12.344   6.376
49654SOL    HW150859   3.482  12.348   6.390
49654SOL    HW250860   3.611  12.420   6.424
49655SOL     OW50861   0.187   1.973   0.938
49655SOL    HW150862   0.147   1.974   0.850
49655SOL    HW250863   0.157   1.891   0.976
49656SOL     OW50864   1.775   8.118  13.345
49656SOL    HW150865   1.703   8.179  13.358
49656SOL    HW250866   1.852   8.173  13.331
49657SOL     OW50867  13.071  11.778  11.123
49657SOL    HW150868  13.040  11.793  11.034
49657SOL    HW250869  13.013  11.832  11.178
49658SOL     OW50870   6.651   9.999  13.736
49658SOL    HW150871   6.735  10.026  13.772
49658SOL    HW250872   6.636   9.912  13.773
49659SOL     OW50873  10.844   6.283  14.617
49659SOL    HW150874  10.774   6.348  14.623
49659SOL    HW250875  10.912   6.327  14.565
49660SOL     OW50876   7.630   3.860   3.286
49660SOL    HW150877   7.684   3.911   3.346
49660SOL    HW250878   7.668   3.875   3.200
49661SOL     OW50879  11.185  13.004   9.384
49661SOL    HW150880  11.106  12.958   9.413
49661SOL    HW250881  11.153  13.078   9.333
49662SOL     OW50882   0.625   3.969   1.458
49662SOL    HW150883   0.558   3.968   1.389
49662SOL    HW250884   0.667   4.055   1.450
49663SOL     OW50885   3.677   3.752   0.912
49663SOL    HW150886   3.591   3.726   0.879
49663SOL    HW250887   3.665   3.757   1.007
49664SOL     OW50888   5.582   6.329   6.656
49664SOL    HW150889   5.630   6.333   6.738
49664SOL    HW250890   5.646   6.299   6.592
49665SOL     OW50891  12.460  13.449   5.052
49665SOL    HW150892  12.387  13.507   5.032
49665SOL    HW250893  12.433  13.363   5.019
49666SOL     OW50894  13.970   0.046  14.543
49666SOL    HW150895  13.964   0.070  14.636
49666SOL    HW250896  14.048   0.093  14.512
49667SOL     OW50897   9.976   2.303   4.008
49667SOL    HW150898   9.903   2.355   4.042
49667SOL    HW250899   9.943   2.213   4.008
49668SOL     OW50900  14.307  13.119  12.045
49668SOL    HW150901  14.232  13.064  12.068
49668SOL    HW250902  14.347  13.142  12.129
49669SOL     OW50903   2.755   4.259  12.818
49669SOL    HW150904   2.688   4.194  12.796
49669SOL    HW250905   2.837   4.211  12.813
49670SOL     OW50906   7.154   7.795  10.131
49670SOL    HW150907   7.146   7.862  10.063
49670SOL    HW250908   7.225   7.738  10.101
49671SOL     OW50909   1.538  13.283  10.583
49671SOL    HW150910   1.540  13.368  10.538
49671SOL    HW250911   1.580  13.223  10.522
49672SOL     OW50912   7.459   3.492   1.100
49672SOL    HW150913   7.524   3.546   1.054
49672SOL    HW250914   7.425   3.549   1.169
49673SOL     OW50915  14.036   9.641   5.023
49673SOL    HW150916  14.102   9.630   4.955
49673SOL    HW250917  13.985   9.717   4.994
49674SOL     OW50918   5.933   3.322   7.886
49674SOL    HW150919   5.893   3.305   7.801
49674SOL    HW250920   6.027   3.309   7.871
49675SOL     OW50921   0.641   1.074  14.506
49675SOL    HW150922   0.650   1.163  14.540
49675SOL    HW250923   0.602   1.085  14.419
49676SOL     OW50924  14.324   1.029   1.346
49676SOL    HW150925  14.253   1.049   1.285
49676SOL    HW250926  14.335   0.934   1.341
49677SOL     OW50927   7.070   8.617  12.336
49677SOL    HW150928   7.161   8.602  12.311
49677SOL    HW250929   7.027   8.642  12.254
49678SOL     OW50930   9.871   4.890  11.456
49678SOL    HW150931   9.807   4.819  11.446
49678SOL    HW250932   9.946   4.849  11.500
49679SOL     OW50933  13.142   5.849   3.777
49679SOL    HW150934  13.058   5.804   3.772
49679SOL    HW250935  13.121   5.935   3.815
49680SOL     OW50936   5.433   4.335   1.892
49680SOL    HW150937   5.376   4.267   1.856
49680SOL    HW250938   5.519   4.317   1.854
49681SOL     OW50939   5.124   1.966   4.760
49681SOL    HW150940   5.050   2.010   4.804
49681SOL    HW250941   5.202   2.004   4.801
49682SOL     OW50942   7.829  13.176   2.811
49682SOL    HW150943   7.878  13.124   2.747
49682SOL    HW250944   7.772  13.113   2.855
49683SOL     OW50945  13.907   7.530  14.490
49683SOL    HW150946  13.861   7.508  14.571
49683SOL    HW250947  13.873   7.469  14.425
49684SOL     OW50948   9.610  12.112  11.350
49684SOL    HW150949   9.696  12.071  11.349
49684SOL    HW250950   9.606  12.163  11.269
49685SOL     OW50951  13.332  14.562   4.213
49685SOL    HW150952  13.272  14.583   4.284
49685SOL    HW250953  13.302  14.615   4.139
49686SOL     OW50954   3.829   0.930   8.234
49686SOL    HW150955   3.919   0.902   8.217
49686SOL    HW250956   3.839   1.017   8.275
49687SOL     OW50957  11.376   3.674   3.096
49687SOL    HW150958  11.468   3.649   3.094
49687SOL    HW250959  11.344   3.644   3.181
49688SOL     OW50960   6.116   6.802  11.218
49688SOL    HW150961   6.182   6.734  11.222
49688SOL    HW250962   6.166   6.884  11.212
49689SOL     OW50963   4.683   4.211   0.281
49689SOL    HW150964   4.725   4.169   0.357
49689SOL    HW250965   4.650   4.294   0.315
49690SOL     OW50966   6.001   7.717  11.009
49690SOL    HW150967   6.038   7.713  10.921
49690SOL    HW250968   5.920   7.766  10.999
49691SOL     OW50969   2.747   7.203   5.673
49691SOL    HW150970   2.802   7.260   5.620
49691SOL    HW250971   2.713   7.259   5.742
49692SOL     OW50972   9.314   0.205  11.738
49692SOL    HW150973   9.361   0.283  11.709
49692SOL    HW250974   9.343   0.136  11.678
49693SOL     OW50975   5.601   0.814   0.318
49693SOL    HW150976   5.584   0.730   0.275
49693SOL    HW250977   5.548   0.811   0.397
49694SOL     OW50978   0.059   5.930   1.075
49694SOL    HW150979  14.873   5.858   1.073
49694SOL    HW250980   0.144   5.886   1.070
49695SOL     OW50981  10.720   6.677   8.770
49695SOL    HW150982  10.789   6.619   8.801
49695SOL    HW250983  10.681   6.630   8.696
49696SOL     OW50984  12.656   3.384   7.562
49696SOL    HW150985  12.638   3.309   7.505
49696SOL    HW250986  12.733   3.426   7.523
49697SOL     OW50987   2.183  13.338  10.161
49697SOL    HW150988   2.273  13.367  10.150
49697SOL    HW250989   2.152  13.319  10.072
49698SOL     OW50990   2.889  13.459  10.852
49698SOL    HW150991   2.889  13.390  10.786
49698SOL    HW250992   2.946  13.426  10.921
49699SOL     OW50993   6.511   4.695   4.867
49699SOL    HW150994   6.447   4.766   4.865
49699SOL    HW250995   6.542   4.693   4.957
49700SOL     OW50996   0.471   0.418   6.053
49700SOL    HW150997   0.382   0.435   6.086
49700SOL    HW250998   0.467   0.441   5.961
49701SOL     OW50999   4.274  11.041   0.052
49701SOL    HW151000   4.185  11.075   0.059
49701SOL    HW251001   4.315  11.065   0.135
49702SOL     OW51002   0.948   7.455  14.526
49702SOL    HW151003   0.953   7.522  14.459
49702SOL    HW251004   0.959   7.502  14.609
49703SOL     OW51005   5.859   4.897   5.693
49703SOL    HW151006   5.802   4.969   5.667
49703SOL    HW251007   5.824   4.867   5.777
49704SOL     OW51008  14.238   7.693   4.926
49704SOL    HW151009  14.182   7.648   4.988
49704SOL    HW251010  14.285   7.623   4.880
49705SOL     OW51011   9.437  12.759   3.433
49705SOL    HW151012   9.395  12.713   3.506
49705SOL    HW251013   9.482  12.833   3.474
49706SOL     OW51014   0.940  12.675   2.065
49706SOL    HW151015   0.966  12.753   2.113
49706SOL    HW251016   0.959  12.602   2.125
49707SOL     OW51017  13.233   6.296  11.699
49707SOL    HW151018  13.161   6.299  11.637
49707SOL    HW251019  13.306   6.259  11.649
49708SOL     OW51020   4.715  11.888   7.435
49708SOL    HW151021   4.665  11.886   7.517
49708SOL    HW251022   4.651  11.915   7.369
49709SOL     OW51023  10.970   1.427  13.735
49709SOL    HW151024  11.039   1.371  13.771
49709SOL    HW251025  10.965   1.500  13.796
49710SOL     OW51026   1.501  13.904   9.259
49710SOL    HW151027   1.481  13.994   9.234
49710SOL    HW251028   1.433  13.881   9.322
49711SOL     OW51029  11.619   1.762  12.536
49711SOL    HW151030  11.614   1.667  12.548
49711SOL    HW251031  11.705   1.786  12.571
49712SOL     OW51032  11.780  14.532   8.726
49712SOL    HW151033  11.749  14.503   8.812
49712SOL    HW251034  11.730  14.479   8.664
49713SOL     OW51035   2.840   7.705   1.659
49713SOL    HW151036   2.770   7.640   1.663
49713SOL    HW251037   2.911   7.667   1.710
49714SOL     OW51038   4.537  13.357   6.107
49714SOL    HW151039   4.567  13.431   6.159
49714SOL    HW251040   4.608  13.340   6.045
49715SOL     OW51041  13.744   2.216   8.794
49715SOL    HW151042  13.787   2.228   8.710
49715SOL    HW251043  13.670   2.277   8.792
49716SOL     OW51044   3.001   7.956  11.274
49716SOL    HW151045   2.932   7.890  11.266
49716SOL    HW251046   2.968   8.032  11.227
49717SOL     OW51047   8.011   2.807   5.590
49717SOL    HW151048   8.078   2.858   5.544
49717SOL    HW251049   8.017   2.836   5.681
49718SOL     OW51050   0.578   2.652   8.344
49718SOL    HW151051   0.504   2.710   8.327
49718SOL    HW251052   0.607   2.622   8.258
49719SOL     OW51053  12.698   1.467   6.795
49719SOL    HW151054  12.627   1.529   6.809
49719SOL    HW251055  12.749   1.504   6.723
49720SOL     OW51056  13.886   1.049   8.134
49720SOL    HW151057  13.920   1.137   8.118
49720SOL    HW251058  13.824   1.060   8.205
49721SOL     OW51059   6.458   9.575   3.739
49721SOL    HW151060   6.435   9.624   3.660
49721SOL    HW251061   6.390   9.597   3.802
49722SOL     OW51062  10.864   0.092   8.002
49722SOL    HW151063  10.949   0.090   7.958
49722SOL    HW251064  10.808   0.142   7.942
49723SOL     OW51065  10.216   5.732   7.349
49723SOL    HW151066  10.246   5.823   7.356
49723SOL    HW251067  10.204   5.718   7.255
49724SOL     OW51068  14.180  10.475   1.863
49724SOL    HW151069  14.233  10.415   1.812
49724SOL    HW251070  14.099  10.484   1.813
49725SOL     OW51071   8.174   7.599   2.042
49725SOL    HW151072   8.093   7.591   2.092
49725SOL    HW251073   8.150   7.572   1.953
49726SOL     OW51074   1.371   3.692  12.486
49726SOL    HW151075   1.323   3.769  12.456
49726SOL    HW251076   1.452   3.694  12.436
49727SOL     OW51077  13.251   8.241   9.666
49727SOL    HW151078  13.321   8.208   9.722
49727SOL    HW251079  13.199   8.298   9.722
49728SOL     OW51080   9.894  14.708  11.930
49728SOL    HW151081   9.873  14.673  11.844
49728SOL    HW251082   9.968  14.654  11.960
49729SOL     OW51083  14.400   2.951   5.660
49729SOL    HW151084  14.396   2.902   5.742
49729SOL    HW251085  14.332   2.911   5.605
49730SOL     OW51086   0.265  12.916   1.906
49730SOL    HW151087   0.341  12.945   1.855
49730SOL    HW251088   0.226  12.847   1.852
49731SOL     OW51089   6.113  10.056   6.306
49731SOL    HW151090   6.143   9.997   6.375
49731SOL    HW251091   6.139  10.143   6.334
49732SOL     OW51092  14.314  14.504  14.126
49732SOL    HW151093  14.260  14.427  14.106
49732SOL    HW251094  14.401  14.482  14.092
49733SOL     OW51095  10.396  11.439   3.789
49733SOL    HW151096  10.405  11.381   3.713
49733SOL    HW251097  10.485  11.471   3.805
49734SOL     OW51098   7.211   3.636   1.565
49734SOL    HW151099   7.246   3.620   1.478
49734SOL    HW251100   7.258   3.714   1.596
49735SOL     OW51101   5.273   4.888   4.784
49735SOL    HW151102   5.279   4.906   4.691
49735SOL    HW251103   5.316   4.803   4.795
49736SOL     OW51104   0.229   1.255   4.589
49736SOL    HW151105   0.190   1.168   4.595
49736SOL    HW251106   0.239   1.270   4.495
49737SOL     OW51107  12.078   3.894   6.070
49737SOL    HW151108  11.994   3.855   6.047
49737SOL    HW251109  12.089   3.874   6.163
49738SOL     OW51110   6.886   3.533   9.593
49738SOL    HW151111   6.860   3.448   9.629
49738SOL    HW251112   6.884   3.521   9.498
49739SOL     OW51113   9.763   4.823   6.782
49739SOL    HW151114   9.695   4.866   6.834
49739SOL    HW251115   9.802   4.893   6.730
49740SOL     OW51116   8.825   8.654   8.593
49740SOL    HW151117   8.855   8.563   8.593
49740SOL    HW251118   8.744   8.652   8.543
49741SOL     OW51119   1.054   2.884   4.787
49741SOL    HW151120   0.981   2.874   4.725
49741SOL    HW251121   1.122   2.928   4.736
49742SOL     OW51122   2.902   3.313   1.388
49742SOL    HW151123   2.991   3.343   1.403
49742SOL    HW251124   2.912   3.221   1.361
49743SOL     OW51125   7.310   7.032  13.856
49743SOL    HW151126   7.380   7.045  13.792
49743SOL    HW251127   7.353   6.994  13.932
49744SOL     OW51128  14.549   8.360   4.577
49744SOL    HW151129  14.550   8.294   4.646
49744SOL    HW251130  14.516   8.314   4.500
49745SOL     OW51131  11.794   8.618   3.050
49745SOL    HW151132  11.857   8.573   2.994
49745SOL    HW251133  11.830   8.608   3.138
49746SOL     OW51134   1.739   5.737   7.429
49746SOL    HW151135   1.829   5.759   7.451
49746SOL    HW251136   1.723   5.654   7.472
49747SOL     OW51137  14.074  10.395  13.905
49747SOL    HW151138  14.017  10.400  13.828
49747SOL    HW251139  14.019  10.426  13.977
49748SOL     OW51140   3.171  11.809  11.954
49748SOL    HW151141   3.259  11.792  11.923
49748SOL    HW251142   3.181  11.878  12.020
49749SOL     OW51143   6.714   1.710   8.744
49749SOL    HW151144   6.716   1.648   8.818
49749SOL    HW251145   6.740   1.793   8.782
49750SOL     OW51146   1.989   0.397   9.938
49750SOL    HW151147   2.063   0.413   9.996
49750SOL    HW251148   2.025   0.341   9.869
49751SOL     OW51149  13.584  12.602   2.673
49751SOL    HW151150  13.612  12.512   2.687
49751SOL    HW251151  13.613  12.623   2.585
49752SOL     OW51152   8.110   5.734  13.993
49752SOL    HW151153   8.089   5.641  13.994
49752SOL    HW251154   8.206   5.736  13.987
49753SOL     OW51155  10.841   9.234   7.343
49753SOL    HW151156  10.767   9.265   7.394
49753SOL    HW251157  10.803   9.199   7.262
49754SOL     OW51158   2.505   5.298   5.955
49754SOL    HW151159   2.584   5.323   6.003
49754SOL    HW251160   2.453   5.378   5.951
49755SOL     OW51161  12.841   2.638  13.528
49755SOL    HW151162  12.902   2.595  13.467
49755SOL    HW251163  12.860   2.598  13.613
49756SOL     OW51164  12.707   2.776   9.195
49756SOL    HW151165  12.638   2.798   9.133
49756SOL    HW251166  12.661   2.756   9.276
49757SOL     OW51167   9.836  13.526   6.032
49757SOL    HW151168   9.772  13.592   6.059
49757SOL    HW251169   9.913  13.545   6.086
49758SOL     OW51170   1.169   9.439   7.959
49758SOL    HW151171   1.129   9.378   7.896
49758SOL    HW251172   1.251   9.466   7.917
49759SOL     OW51173   1.531   4.904   0.202
49759SOL    HW151174   1.519   4.927   0.110
49759SOL    HW251175   1.617   4.863   0.206
49760SOL     OW51176   1.696   7.133   1.921
49760SOL    HW151177   1.790   7.116   1.930
49760SOL    HW251178   1.663   7.056   1.875
49761SOL     OW51179  12.366  14.354  10.074
49761SOL    HW151180  12.333  14.300  10.002
49761SOL    HW251181  12.310  14.431  10.074
49762SOL     OW51182  10.599   8.872   9.145
49762SOL    HW151183  10.525   8.863   9.206
49762SOL    HW251184  10.676   8.875   9.201
49763SOL     OW51185   6.765  10.888   7.154
49763SOL    HW151186   6.771  10.843   7.238
49763SOL    HW251187   6.819  10.836   7.095
49764SOL     OW51188   0.318   2.801  13.865
49764SOL    HW151189   0.327   2.873  13.803
49764SOL    HW251190   0.227   2.806  13.896
49765SOL     OW51191  14.066   2.405   5.543
49765SOL    HW151192  14.042   2.491   5.507
49765SOL    HW251193  14.071   2.419   5.637
49766SOL     OW51194  13.068   9.745   1.944
49766SOL    HW151195  13.002   9.746   2.013
49766SOL    HW251196  13.143   9.792   1.981
49767SOL     OW51197   7.225  10.803  12.131
49767SOL    HW151198   7.195  10.894  12.140
49767SOL    HW251199   7.316  10.812  12.101
49768SOL     OW51200  12.105   2.437   7.633
49768SOL    HW151201  12.061   2.469   7.554
49768SOL    HW251202  12.035   2.398   7.685
49769SOL     OW51203  12.316  12.628  10.124
49769SOL    HW151204  12.269  12.675  10.055
49769SOL    HW251205  12.407  12.655  10.114
49770SOL     OW51206   2.583   4.533  10.438
49770SOL    HW151207   2.547   4.601  10.494
49770SOL    HW251208   2.587   4.455  10.494
49771SOL     OW51209   6.224   7.632   5.002
49771SOL    HW151210   6.237   7.675   5.087
49771SOL    HW251211   6.285   7.559   5.002
49772SOL     OW51212   0.789  10.000   5.366
49772SOL    HW151213   0.872   9.993   5.414
49772SOL    HW251214   0.744   9.917   5.384
49773SOL     OW51215  11.421   2.715   1.453
49773SOL    HW151216  11.475   2.679   1.523
49773SOL    HW251217  11.379   2.792   1.491
49774SOL     OW51218   5.708  11.712   3.987
49774SOL    HW151219   5.684  11.660   3.909
49774SOL    HW251220   5.737  11.796   3.952
49775SOL     OW51221   5.427   9.768   9.287
49775SOL    HW151222   5.352   9.789   9.232
49775SOL    HW251223   5.504   9.784   9.231
49776SOL     OW51224   7.879  11.309   1.081
49776SOL    HW151225   7.908  11.301   0.990
49776SOL    HW251226   7.935  11.248   1.129
49777SOL     OW51227   7.790  12.151  10.720
49777SOL    HW151228   7.839  12.096  10.782
49777SOL    HW251229   7.756  12.223  10.774
49778SOL     OW51230  10.297   4.560  12.047
49778SOL    HW151231  10.222   4.617  12.030
49778SOL    HW251232  10.259   4.476  12.070
49779SOL     OW51233   6.195   7.551   9.638
49779SOL    HW151234   6.192   7.558   9.734
49779SOL    HW251235   6.136   7.479   9.617
49780SOL     OW51236  10.245   1.850  12.027
49780SOL    HW151237  10.292   1.907  11.966
49780SOL    HW251238  10.154   1.876  12.017
49781SOL     OW51239   7.305  12.136   0.844
49781SOL    HW151240   7.294  12.042   0.859
49781SOL    HW251241   7.220  12.174   0.868
49782SOL     OW51242   1.206   8.578   3.473
49782SOL    HW151243   1.299   8.599   3.479
49782SOL    HW251244   1.166   8.653   3.430
49783SOL     OW51245   0.510   5.279   0.453
49783SOL    HW151246   0.570   5.204   0.450
49783SOL    HW251247   0.459   5.271   0.372
49784SOL     OW51248   4.564   8.739  10.752
49784SOL    HW151249   4.593   8.830  10.746
49784SOL    HW251250   4.519   8.723  10.669
49785SOL     OW51251  13.647   4.948   1.087
49785SOL    HW151252  13.657   4.980   0.997
49785SOL    HW251253  13.720   4.987   1.135
49786SOL     OW51254   1.276   0.790  11.612
49786SOL    HW151255   1.307   0.728  11.678
49786SOL    HW251256   1.268   0.873  11.659
49787SOL     OW51257  13.793   1.061   4.265
49787SOL    HW151258  13.698   1.051   4.277
49787SOL    HW251259  13.825   1.082   4.353
49788SOL     OW51260  11.310   6.522   9.196
49788SOL    HW151261  11.403   6.508   9.176
49788SOL    HW251262  11.297   6.478   9.280
49789SOL     OW51263   6.231  12.860   8.493
49789SOL    HW151264   6.249  12.892   8.581
49789SOL    HW251265   6.312  12.876   8.444
49790SOL     OW51266   6.691   6.443   2.495
49790SOL    HW151267   6.734   6.481   2.419
49790SOL    HW251268   6.746   6.369   2.519
49791SOL     OW51269   6.945   4.086  13.168
49791SOL    HW151270   7.020   4.053  13.119
49791SOL    HW251271   6.971   4.173  13.197
49792SOL     OW51272   9.823   0.641  11.077
49792SOL    HW151273   9.861   0.728  11.093
49792SOL    HW251274   9.859   0.586  11.146
49793SOL     OW51275   5.828   4.489   2.415
49793SOL    HW151276   5.851   4.432   2.489
49793SOL    HW251277   5.911   4.507   2.372
49794SOL     OW51278   7.228  10.243   7.267
49794SOL    HW151279   7.324  10.247   7.270
49794SOL    HW251280   7.209  10.192   7.189
49795SOL     OW51281  14.205  12.602   1.064
49795SOL    HW151282  14.290  12.559   1.075
49795SOL    HW251283  14.209  12.641   0.976
49796SOL     OW51284   0.210  14.062  10.776
49796SOL    HW151285   0.144  14.132  10.772
49796SOL    HW251286   0.193  14.009  10.698
49797SOL     OW51287   6.381   3.323   1.614
49797SOL    HW151288   6.295   3.352   1.584
49797SOL    HW251289   6.396   3.373   1.695
49798SOL     OW51290   7.428  12.497  10.356
49798SOL    HW151291   7.454  12.523  10.267
49798SOL    HW251292   7.509  12.467  10.397
49799SOL     OW51293  10.391   8.090   5.949
49799SOL    HW151294  10.392   8.102   6.043
49799SOL    HW251295  10.298   8.085   5.926
49800SOL     OW51296   8.127  13.524   0.760
49800SOL    HW151297   8.109  13.476   0.679
49800SOL    HW251298   8.199  13.583   0.736
49801SOL     OW51299   0.264   9.547   2.649
49801SOL    HW151300   0.324   9.475   2.633
49801SOL    HW251301   0.199   9.540   2.579
49802SOL     OW51302  12.281   2.392  10.415
49802SOL    HW151303  12.252   2.324  10.355
49802SOL    HW251304  12.213   2.396  10.482
49803SOL     OW51305   4.716   6.613  14.595
49803SOL    HW151306   4.729   6.708  14.599
49803SOL    HW251307   4.799   6.577  14.627
49804SOL     OW51308   7.873  10.571  13.467
49804SOL    HW151309   7.873  10.636  13.396
49804SOL    HW251310   7.794  10.590  13.517
49805SOL     OW51311  14.109  13.992   3.503
49805SOL    HW151312  14.202  13.970   3.507
49805SOL    HW251313  14.106  14.079   3.463
49806SOL     OW51314   0.729   3.398  14.661
49806SOL    HW151315   0.663   3.447  14.611
49806SOL    HW251316   0.810   3.448  14.648
49807SOL     OW51317  13.691   5.744   9.133
49807SOL    HW151318  13.738   5.674   9.179
49807SOL    HW251319  13.650   5.699   9.058
49808SOL     OW51320  13.003   7.974   4.185
49808SOL    HW151321  13.044   7.933   4.261
49808SOL    HW251322  12.914   7.940   4.185
49809SOL     OW51323  14.540  10.388  12.250
49809SOL    HW151324  14.458  10.396  12.201
49809SOL    HW251325  14.565  10.478  12.271
49810SOL     OW51326  13.125   3.652   8.912
49810SOL    HW151327  13.096   3.597   8.838
49810SOL    HW251328  13.065   3.630   8.983
49811SOL     OW51329   2.082   1.972   4.903
49811SOL    HW151330   2.075   1.891   4.955
49811SOL    HW251331   2.122   2.035   4.962
49812SOL     OW51332  10.583  10.444  10.391
49812SOL    HW151333  10.611  10.514  10.331
49812SOL    HW251334  10.659  10.428  10.447
49813SOL     OW51335  13.573   2.475   7.352
49813SOL    HW151336  13.603   2.566   7.344
49813SOL    HW251337  13.516   2.476   7.428
49814SOL     OW51338  12.905   7.278   5.818
49814SOL    HW151339  12.935   7.267   5.728
49814SOL    HW251340  12.869   7.192   5.841
49815SOL     OW51341   4.033  11.180   8.763
49815SOL    HW151342   4.108  11.153   8.709
49815SOL    HW251343   3.959  11.179   8.703
49816SOL     OW51344   0.604  11.418   0.466
49816SOL    HW151345   0.676  11.373   0.510
49816SOL    HW251346   0.601  11.504   0.507
49817SOL     OW51347   8.832   3.136   4.119
49817SOL    HW151348   8.896   3.195   4.080
49817SOL    HW251349   8.884   3.064   4.154
49818SOL     OW51350   4.711  11.561  13.989
49818SOL    HW151351   4.742  11.645  13.955
49818SOL    HW251352   4.752  11.495  13.932
49819SOL     OW51353   4.347   2.302  12.410
49819SOL    HW151354   4.375   2.393  12.400
49819SOL    HW251355   4.422   2.259  12.452
49820SOL     OW51356   8.848   1.815   0.495
49820SOL    HW151357   8.878   1.902   0.469
49820SOL    HW251358   8.854   1.815   0.590
49821SOL     OW51359   2.370   9.799   0.863
49821SOL    HW151360   2.385   9.757   0.779
49821SOL    HW251361   2.289   9.759   0.896
49822SOL     OW51362   2.373  10.069  14.723
49822SOL    HW151363   2.420  10.085  14.804
49822SOL    HW251364   2.432  10.016  14.670
49823SOL     OW51365   1.186   2.741   8.405
49823SOL    HW151366   1.183   2.648   8.382
49823SOL    HW251367   1.249   2.746   8.477
49824SOL     OW51368   4.852  11.368   0.786
49824SOL    HW151369   4.913  11.415   0.730
49824SOL    HW251370   4.766  11.383   0.747
49825SOL     OW51371   2.166   1.125  13.276
49825SOL    HW151372   2.146   1.218  13.274
49825SOL    HW251373   2.163   1.098  13.184
49826SOL     OW51374   5.728   5.475  12.395
49826SOL    HW151375   5.661   5.504  12.333
49826SOL    HW251376   5.684   5.478  12.480
49827SOL     OW51377  11.422  11.337   2.981
49827SOL    HW151378  11.427  11.368   2.890
49827SOL    HW251379  11.394  11.246   2.973
49828SOL     OW51380  11.316   1.623  12.239
49828SOL    HW151381  11.273   1.652  12.159
49828SOL    HW251382  11.379   1.692  12.259
49829SOL     OW51383   4.512   6.156   9.345
49829SOL    HW151384   4.454   6.231   9.353
49829SOL    HW251385   4.576   6.181   9.279
49830SOL     OW51386   0.430   9.523   4.089
49830SOL    HW151387   0.441   9.439   4.132
49830SOL    HW251388   0.366   9.570   4.143
49831SOL     OW51389  11.544   5.284   7.327
49831SOL    HW151390  11.616   5.280   7.390
49831SOL    HW251391  11.585   5.311   7.245
49832SOL     OW51392   5.287   0.270   8.506
49832SOL    HW151393   5.291   0.330   8.580
49832SOL    HW251394   5.350   0.305   8.443
49833SOL     OW51395   2.649   7.343  14.598
49833SOL    HW151396   2.573   7.320  14.544
49833SOL    HW251397   2.628   7.430  14.633
49834SOL     OW51398   0.498  11.284   7.761
49834SOL    HW151399   0.410  11.247   7.752
49834SOL    HW251400   0.546  11.253   7.684
49835SOL     OW51401   5.110   0.017   6.223
49835SOL    HW151402   5.107   0.018   6.319
49835SOL    HW251403   5.139  14.807   6.200
49836SOL     OW51404  11.167   4.843   3.338
49836SOL    HW151405  11.086   4.889   3.318
49836SOL    HW251406  11.236   4.909   3.328
49837SOL     OW51407   9.068   1.022   9.032
49837SOL    HW151408   9.038   1.101   8.987
49837SOL    HW251409   9.107   0.969   8.964
49838SOL     OW51410   5.530  12.834   3.329
49838SOL    HW151411   5.471  12.906   3.305
49838SOL    HW251412   5.472  12.759   3.343
49839SOL     OW51413   6.473   1.348   0.785
49839SOL    HW151414   6.464   1.389   0.871
49839SOL    HW251415   6.436   1.260   0.797
49840SOL     OW51416  12.856   8.909   9.397
49840SOL    HW151417  12.831   8.819   9.419
49840SOL    HW251418  12.776   8.960   9.411
49841SOL     OW51419   7.187  11.632   0.000
49841SOL    HW151420   7.168  11.635  14.784
49841SOL    HW251421   7.107  11.598   0.040
49842SOL     OW51422   9.814  10.633   8.151
49842SOL    HW151423   9.796  10.597   8.238
49842SOL    HW251424   9.908  10.623   8.140
49843SOL     OW51425  12.295   9.218   2.838
49843SOL    HW151426  12.205   9.233   2.866
49843SOL    HW251427  12.328   9.305   2.814
49844SOL     OW51428   5.193  11.499   6.484
49844SOL    HW151429   5.257  11.441   6.525
49844SOL    HW251430   5.238  11.532   6.406
49845SOL     OW51431  13.833  10.572   3.610
49845SOL    HW151432  13.894  10.569   3.683
49845SOL    HW251433  13.882  10.612   3.538
49846SOL     OW51434  11.214   2.923   8.311
49846SOL    HW151435  11.254   2.968   8.237
49846SOL    HW251436  11.129   2.893   8.278
49847SOL     OW51437  12.219   9.656   0.179
49847SOL    HW151438  12.164   9.699   0.245
49847SOL    HW251439  12.266   9.588   0.226
49848SOL     OW51440   5.256   2.894   2.281
49848SOL    HW151441   5.302   2.902   2.197
49848SOL    HW251442   5.219   2.980   2.296
49849SOL     OW51443   8.388  14.734   6.029
49849SOL    HW151444   8.450  14.681   6.078
49849SOL    HW251445   8.352  14.675   5.963
49850SOL     OW51446   3.866   0.087   9.473
49850SOL    HW151447   3.932   0.107   9.540
49850SOL    HW251448   3.811   0.020   9.513
49851SOL     OW51449  10.762   4.789  10.735
49851SOL    HW151450  10.761   4.837  10.653
49851SOL    HW251451  10.715   4.845  10.797
49852SOL     OW51452   5.821  14.000   6.872
49852SOL    HW151453   5.879  13.993   6.797
49852SOL    HW251454   5.875  14.039   6.941
49853SOL     OW51455   4.730   8.108  11.069
49853SOL    HW151456   4.768   8.196  11.067
49853SOL    HW251457   4.771   8.066  11.145
49854SOL     OW51458  12.711   9.438  14.615
49854SOL    HW151459  12.755   9.519  14.590
49854SOL    HW251460  12.739   9.374  14.550
49855SOL     OW51461   4.701   1.386   6.359
49855SOL    HW151462   4.609   1.377   6.334
49855SOL    HW251463   4.736   1.297   6.355
49856SOL     OW51464   3.182  14.698  11.417
49856SOL    HW151465   3.182  14.610  11.377
49856SOL    HW251466   3.163  14.757  11.344
49857SOL     OW51467   7.325  10.499   0.361
49857SOL    HW151468   7.373  10.431   0.410
49857SOL    HW251469   7.343  10.478   0.270
49858SOL     OW51470   7.078   0.780   9.193
49858SOL    HW151471   7.127   0.756   9.271
49858SOL    HW251472   7.105   0.870   9.174
49859SOL     OW51473  11.592   2.482   6.877
49859SOL    HW151474  11.627   2.554   6.825
49859SOL    HW251475  11.526   2.442   6.820
49860SOL     OW51476   8.423  10.816   2.513
49860SOL    HW151477   8.408  10.873   2.437
49860SOL    HW251478   8.340  10.768   2.523
49861SOL     OW51479   0.768   0.292   6.833
49861SOL    HW151480   0.766   0.231   6.759
49861SOL    HW251481   0.692   0.349   6.818
49862SOL     OW51482  13.224  10.144  11.308
49862SOL    HW151483  13.265  10.223  11.274
49862SOL    HW251484  13.136  10.172  11.334
49863SOL     OW51485   6.282   9.270   1.076
49863SOL    HW151486   6.378   9.261   1.071
49863SOL    HW251487   6.267   9.319   1.157
49864SOL     OW51488   1.541  10.333  10.595
49864SOL    HW151489   1.588  10.278  10.531
49864SOL    HW251490   1.578  10.421  10.583
49865SOL     OW51491   0.170   4.765  10.409
49865SOL    HW151492   0.135   4.842  10.365
49865SOL    HW251493   0.095   4.705  10.416
49866SOL     OW51494   5.449  12.562   5.104
49866SOL    HW151495   5.401  12.622   5.047
49866SOL    HW251496   5.528  12.540   5.054
49867SOL     OW51497  14.261  14.239   5.768
49867SOL    HW151498  14.291  14.330   5.776
49867SOL    HW251499  14.203  14.227   5.844
49868SOL     OW51500   5.066   1.304   2.574
49868SOL    HW151501   5.097   1.395   2.581
49868SOL    HW251502   5.143   1.255   2.544
49869SOL     OW51503  13.066   7.240   6.850
49869SOL    HW151504  13.079   7.159   6.900
49869SOL    HW251505  13.080   7.215   6.759
49870SOL     OW51506  11.664   0.604  14.128
49870SOL    HW151507  11.573   0.590  14.102
49870SOL    HW251508  11.661   0.677  14.189
49871SOL     OW51509   4.710   5.345  12.911
49871SOL    HW151510   4.630   5.294  12.915
49871SOL    HW251511   4.699   5.400  12.833
49872SOL     OW51512   2.372   0.775   0.414
49872SOL    HW151513   2.392   0.723   0.492
49872SOL    HW251514   2.458   0.794   0.375
49873SOL     OW51515   5.411   4.454   6.983
49873SOL    HW151516   5.462   4.535   6.980
49873SOL    HW251517   5.392   4.434   6.892
49874SOL     OW51518   9.619   9.667   2.131
49874SOL    HW151519   9.663   9.728   2.191
49874SOL    HW251520   9.528   9.697   2.128
49875SOL     OW51521   9.060   2.976   4.228
49875SOL    HW151522   9.104   2.912   4.284
49875SOL    HW251523   9.124   3.047   4.218
49876SOL     OW51524  12.104   7.337   5.807
49876SOL    HW151525  12.036   7.326   5.740
49876SOL    HW251526  12.060   7.317   5.890
49877SOL     OW51527  12.002   5.440   4.419
49877SOL    HW151528  12.069   5.504   4.443
49877SOL    HW251529  12.046   5.355   4.427
49878SOL     OW51530   3.184  11.605   5.004
49878SOL    HW151531   3.167  11.524   5.052
49878SOL    HW251532   3.220  11.665   5.069
49879SOL     OW51533   2.333   5.439   3.636
49879SOL    HW151534   2.427   5.438   3.654
49879SOL    HW251535   2.318   5.520   3.587
49880SOL     OW51536   9.049   1.250  10.705
49880SOL    HW151537   8.976   1.199  10.670
49880SOL    HW251538   9.080   1.301  10.631
49881SOL     OW51539   9.644  13.755   1.299
49881SOL    HW151540   9.726  13.755   1.349
49881SOL    HW251541   9.579  13.791   1.360
49882SOL     OW51542   0.309  10.919  13.178
49882SOL    HW151543   0.369  10.907  13.252
49882SOL    HW251544   0.298  10.831  13.142
49883SOL     OW51545  10.684  10.530   3.423
49883SOL    HW151546  10.720  10.499   3.340
49883SOL    HW251547  10.703  10.460   3.486
49884SOL     OW51548   5.545   1.876   9.338
49884SOL    HW151549   5.523   1.965   9.308
49884SOL    HW251550   5.544   1.823   9.259
49885SOL     OW51551  13.755   5.778   3.110
49885SOL    HW151552  13.698   5.800   3.183
49885SOL    HW251553  13.798   5.860   3.087
49886SOL     OW51554   1.447   8.847   5.390
49886SOL    HW151555   1.460   8.831   5.296
49886SOL    HW251556   1.355   8.827   5.404
49887SOL     OW51557   3.753  11.231   7.547
49887SOL    HW151558   3.754  11.199   7.457
49887SOL    HW251559   3.843  11.218   7.578
49888SOL     OW51560  11.954   2.449   3.836
49888SOL    HW151561  11.980   2.377   3.778
49888SOL    HW251562  12.005   2.436   3.915
49889SOL     OW51563  10.601   1.872   4.742
49889SOL    HW151564  10.663   1.829   4.683
49889SOL    HW251565  10.642   1.956   4.762
49890SOL     OW51566   2.613   0.314  13.536
49890SOL    HW151567   2.694   0.348  13.574
49890SOL    HW251568   2.613   0.348  13.447
49891SOL     OW51569   8.094   3.915  14.262
49891SOL    HW151570   8.100   4.007  14.236
49891SOL    HW251571   8.030   3.878  14.202
49892SOL     OW51572   2.070   5.245   2.838
49892SOL    HW151573   1.995   5.266   2.894
49892SOL    HW251574   2.085   5.152   2.853
49893SOL     OW51575  11.837   7.265   8.382
49893SOL    HW151576  11.926   7.239   8.405
49893SOL    HW251577  11.843   7.294   8.291
49894SOL     OW51578   0.732   3.114   4.060
49894SOL    HW151579   0.651   3.105   4.010
49894SOL    HW251580   0.757   3.206   4.048
49895SOL     OW51581   8.166   0.694  13.173
49895SOL    HW151582   8.080   0.692  13.131
49895SOL    HW251583   8.200   0.605  13.164
49896SOL     OW51584   4.826   4.028   5.388
49896SOL    HW151585   4.768   4.026   5.312
49896SOL    HW251586   4.784   4.088   5.449
49897SOL     OW51587   2.556   9.987  12.201
49897SOL    HW151588   2.584  10.078  12.210
49897SOL    HW251589   2.461   9.991  12.192
49898SOL     OW51590   2.378  12.715   1.378
49898SOL    HW151591   2.458  12.684   1.335
49898SOL    HW251592   2.393  12.697   1.471
49899SOL     OW51593  14.699  11.793   6.686
49899SOL    HW151594  14.752  11.715   6.704
49899SOL    HW251595  14.649  11.808   6.766
49900SOL     OW51596   9.061   3.044   9.845
49900SOL    HW151597   9.130   3.021   9.783
49900SOL    HW251598   8.995   2.976   9.835
49901SOL     OW51599   1.551   4.045   0.545
49901SOL    HW151600   1.596   4.091   0.475
49901SOL    HW251601   1.598   3.962   0.554
49902SOL     OW51602   4.907  14.086   4.927
49902SOL    HW151603   4.894  14.132   4.844
49902SOL    HW251604   4.934  14.155   4.988
49903SOL     OW51605  12.406   6.631  13.232
49903SOL    HW151606  12.398   6.596  13.321
49903SOL    HW251607  12.325   6.605  13.189
49904SOL     OW51608   6.902  12.147   2.989
49904SOL    HW151609   6.854  12.179   2.913
49904SOL    HW251610   6.962  12.218   3.011
49905SOL     OW51611   3.641   2.471   2.650
49905SOL    HW151612   3.548   2.483   2.667
49905SOL    HW251613   3.645   2.443   2.558
49906SOL     OW51614  10.569   6.697  13.496
49906SOL    HW151615  10.510   6.769  13.516
49906SOL    HW251616  10.512   6.621  13.484
49907SOL     OW51617   4.647   3.621   3.106
49907SOL    HW151618   4.640   3.670   3.187
49907SOL    HW251619   4.639   3.686   3.037
49908SOL     OW51620   8.597   9.379   7.830
49908SOL    HW151621   8.536   9.314   7.866
49908SOL    HW251622   8.545   9.459   7.825
49909SOL     OW51623   6.275   7.914  14.750
49909SOL    HW151624   6.337   7.979  14.785
49909SOL    HW251625   6.236   7.957  14.674
49910SOL     OW51626  11.595   9.904  14.587
49910SOL    HW151627  11.563   9.889  14.676
49910SOL    HW251628  11.575   9.996  14.570
49911SOL     OW51629   3.551   3.575  11.151
49911SOL    HW151630   3.590   3.583  11.065
49911SOL    HW251631   3.528   3.482  11.158
49912SOL     OW51632   6.689   1.938  11.304
49912SOL    HW151633   6.746   2.003  11.347
49912SOL    HW251634   6.687   1.864  11.365
49913SOL     OW51635   0.505  14.223   2.797
49913SOL    HW151636   0.557  14.239   2.876
49913SOL    HW251637   0.428  14.176   2.828
49914SOL     OW51638  12.837   5.114   9.815
49914SOL    HW151639  12.902   5.096   9.747
49914SOL    HW251640  12.767   5.051   9.800
49915SOL     OW51641  11.160   3.498  13.756
49915SOL    HW151642  11.196   3.485  13.668
49915SOL    HW251643  11.174   3.414  13.800
49916SOL     OW51644   0.506  13.719   2.786
49916SOL    HW151645   0.532  13.717   2.694
49916SOL    HW251646   0.456  13.638   2.799
49917SOL     OW51647  13.891   4.851   0.821
49917SOL    HW151648  13.903   4.825   0.912
49917SOL    HW251649  13.878   4.769   0.774
49918SOL     OW51650  12.303   0.209   5.927
49918SOL    HW151651  12.254   0.129   5.947
49918SOL    HW251652  12.246   0.258   5.868
49919SOL     OW51653   8.413   2.627   7.437
49919SOL    HW151654   8.405   2.588   7.350
49919SOL    HW251655   8.334   2.599   7.483
49920SOL     OW51656   4.473  12.138  13.745
49920SOL    HW151657   4.544  12.104  13.799
49920SOL    HW251658   4.466  12.231  13.770
49921SOL     OW51659  11.141  13.173  11.029
49921SOL    HW151660  11.180  13.239  11.086
49921SOL    HW251661  11.198  13.171  10.952
49922SOL     OW51662  13.048  10.817   8.480
49922SOL    HW151663  12.955  10.828   8.496
49922SOL    HW251664  13.091  10.871   8.547
49923SOL     OW51665   8.009  12.889  13.523
49923SOL    HW151666   8.047  12.834  13.591
49923SOL    HW251667   7.976  12.966  13.569
49924SOL     OW51668   2.041  13.285  11.118
49924SOL    HW151669   2.050  13.253  11.028
49924SOL    HW251670   2.067  13.377  11.113
49925SOL     OW51671   0.060   9.992   1.112
49925SOL    HW151672   0.067  10.044   1.032
49925SOL    HW251673   0.014   9.912   1.085
49926SOL     OW51674   2.789   5.274  10.214
49926SOL    HW151675   2.874   5.237  10.189
49926SOL    HW251676   2.736   5.199  10.238
49927SOL     OW51677   1.823  10.285   8.239
49927SOL    HW151678   1.905  10.320   8.202
49927SOL    HW251679   1.812  10.200   8.198
49928SOL     OW51680   1.057  12.490  10.373
49928SOL    HW151681   1.044  12.554  10.303
49928SOL    HW251682   1.122  12.531  10.430
49929SOL     OW51683  14.047   0.802  11.136
49929SOL    HW151684  14.054   0.884  11.186
49929SOL    HW251685  14.129   0.757  11.153
49930SOL     OW51686   5.385  11.499  12.147
49930SOL    HW151687   5.407  11.582  12.189
49930SOL    HW251688   5.449  11.491  12.076
49931SOL     OW51689   9.118   9.850   7.392
49931SOL    HW151690   9.175   9.848   7.469
49931SOL    HW251691   9.111   9.943   7.370
49932SOL     OW51692   1.291  10.490   2.057
49932SOL    HW151693   1.311  10.479   2.150
49932SOL    HW251694   1.195  10.484   2.053
49933SOL     OW51695   0.176   6.580   6.873
49933SOL    HW151696   0.208   6.533   6.950
49933SOL    HW251697   0.081   6.573   6.879
49934SOL     OW51698  10.538   7.750   9.626
49934SOL    HW151699  10.512   7.828   9.578
49934SOL    HW251700  10.625   7.771   9.661
49935SOL     OW51701   6.068   8.900   6.917
49935SOL    HW151702   6.144   8.928   6.969
49935SOL    HW251703   6.106   8.857   6.840
49936SOL     OW51704  14.839   7.048   1.290
49936SOL    HW151705  14.790   7.068   1.210
49936SOL    HW251706  14.864   7.134   1.325
49937SOL     OW51707   4.661  10.567   4.188
49937SOL    HW151708   4.754  10.559   4.165
49937SOL    HW251709   4.659  10.552   4.283
49938SOL     OW51710   1.945   7.035   9.614
49938SOL    HW151711   1.886   7.038   9.690
49938SOL    HW251712   1.912   7.103   9.556
49939SOL     OW51713  11.719   4.757  12.470
49939SOL    HW151714  11.710   4.848  12.495
49939SOL    HW251715  11.811   4.748  12.444
49940SOL     OW51716   6.757  12.010   7.630
49940SOL    HW151717   6.824  11.973   7.688
49940SOL    HW251718   6.712  11.933   7.594
49941SOL     OW51719   9.038   1.995   2.199
49941SOL    HW151720   9.066   2.032   2.116
49941SOL    HW251721   9.114   2.005   2.257
49942SOL     OW51722  13.217   1.930   4.248
49942SOL    HW151723  13.182   1.998   4.190
49942SOL    HW251724  13.281   1.884   4.194
49943SOL     OW51725  13.617  12.627  14.118
49943SOL    HW151726  13.675  12.550  14.111
49943SOL    HW251727  13.664  12.696  14.072
49944SOL     OW51728   7.408   4.050   5.692
49944SOL    HW151729   7.386   3.967   5.649
49944SOL    HW251730   7.323   4.091   5.709
49945SOL     OW51731  10.703  10.329  10.661
49945SOL    HW151732  10.725  10.407  10.712
49945SOL    HW251733  10.653  10.274  10.722
49946SOL     OW51734   8.035   2.651  13.213
49946SOL    HW151735   8.016   2.716  13.146
49946SOL    HW251736   7.978   2.577  13.191
49947SOL     OW51737  14.072   3.167   6.803
49947SOL    HW151738  14.127   3.117   6.743
49947SOL    HW251739  14.046   3.103   6.869
49948SOL     OW51740   9.619   0.439   6.052
49948SOL    HW151741   9.702   0.455   6.006
49948SOL    HW251742   9.552   0.477   5.996
49949SOL     OW51743   5.580   9.527  12.499
49949SOL    HW151744   5.495   9.526  12.544
49949SOL    HW251745   5.625   9.603  12.535
49950SOL     OW51746   8.134  12.444   4.417
49950SOL    HW151747   8.050  12.398   4.418
49950SOL    HW251748   8.156  12.453   4.325
49951SOL     OW51749   7.722   6.361  13.406
49951SOL    HW151750   7.739   6.369  13.313
49951SOL    HW251751   7.633   6.392  13.417
49952SOL     OW51752  11.822  13.822   9.223
49952SOL    HW151753  11.787  13.739   9.193
49952SOL    HW251754  11.817  13.818   9.318
49953SOL     OW51755   7.854   3.153   7.303
49953SOL    HW151756   7.830   3.076   7.251
49953SOL    HW251757   7.818   3.227   7.254
49954SOL     OW51758  12.410   1.055   6.860
49954SOL    HW151759  12.478   1.122   6.851
49954SOL    HW251760  12.432   0.990   6.794
49955SOL     OW51761   6.442   1.444  12.150
49955SOL    HW151762   6.532   1.468  12.172
49955SOL    HW251763   6.424   1.366  12.203
49956SOL     OW51764  12.028   0.854   0.556
49956SOL    HW151765  11.992   0.886   0.474
49956SOL    HW251766  12.123   0.859   0.545
49957SOL     OW51767  14.107   4.999   0.336
49957SOL    HW151768  14.155   5.012   0.255
49957SOL    HW251769  14.143   5.064   0.396
49958SOL     OW51770   1.498   6.074   9.500
49958SOL    HW151771   1.456   6.147   9.546
49958SOL    HW251772   1.524   6.013   9.569
49959SOL     OW51773   0.477   3.553   7.662
49959SOL    HW151774   0.439   3.582   7.745
49959SOL    HW251775   0.429   3.472   7.641
49960SOL     OW51776  14.822  10.926   3.968
49960SOL    HW151777   0.023  10.943   3.916
49960SOL    HW251778  14.750  10.942   3.908
49961SOL     OW51779  14.261  11.956   8.603
49961SOL    HW151780  14.322  11.883   8.615
49961SOL    HW251781  14.178  11.924   8.636
49962SOL     OW51782   9.012  11.136  14.492
49962SOL    HW151783   9.067  11.159  14.567
49962SOL    HW251784   9.018  11.041  14.486
49963SOL     OW51785   2.917   8.690   9.832
49963SOL    HW151786   2.941   8.749   9.761
49963SOL    HW251787   2.823   8.705   9.846
49964SOL     OW51788   4.284   1.774   8.946
49964SOL    HW151789   4.269   1.858   8.902
49964SOL    HW251790   4.367   1.786   8.993
49965SOL     OW51791   7.542   0.530   4.448
49965SOL    HW151792   7.487   0.560   4.376
49965SOL    HW251793   7.594   0.607   4.472
49966SOL     OW51794   2.363   8.483   9.227
49966SOL    HW151795   2.418   8.543   9.177
49966SOL    HW251796   2.300   8.449   9.164
49967SOL     OW51797  10.180   9.372  10.967
49967SOL    HW151798  10.240   9.328  11.027
49967SOL    HW251799  10.230   9.381  10.886
49968SOL     OW51800   3.764   0.412   3.891
49968SOL    HW151801   3.775   0.431   3.984
49968SOL    HW251802   3.706   0.335   3.889
49969SOL     OW51803  14.481   2.885   7.023
49969SOL    HW151804  14.528   2.884   6.940
49969SOL    HW251805  14.395   2.923   7.002
49970SOL     OW51806   7.168   5.861   3.848
49970SOL    HW151807   7.107   5.909   3.903
49970SOL    HW251808   7.146   5.887   3.758
49971SOL     OW51809   1.015   5.216   7.710
49971SOL    HW151810   0.927   5.179   7.703
49971SOL    HW251811   1.017   5.260   7.795
49972SOL     OW51812  10.368   9.920   2.617
49972SOL    HW151813  10.422   9.849   2.584
49972SOL    HW251814  10.408   9.945   2.700
49973SOL     OW51815  10.057   3.035   5.823
49973SOL    HW151816  10.146   3.051   5.853
49973SOL    HW251817  10.067   3.003   5.733
49974SOL     OW51818   9.016   7.328  13.514
49974SOL    HW151819   9.013   7.237  13.485
49974SOL    HW251820   9.096   7.333  13.566
49975SOL     OW51821  11.893  10.483   8.784
49975SOL    HW151822  11.810  10.517   8.816
49975SOL    HW251823  11.886  10.487   8.688
49976SOL     OW51824   7.108   1.966  11.581
49976SOL    HW151825   7.074   2.026  11.648
49976SOL    HW251826   7.150   1.896  11.631
49977SOL     OW51827  14.078   1.481   7.255
49977SOL    HW151828  13.989   1.464   7.225
49977SOL    HW251829  14.071   1.481   7.351
49978SOL     OW51830   7.235   4.608   0.361
49978SOL    HW151831   7.154   4.587   0.314
49978SOL    HW251832   7.209   4.611   0.453
49979SOL     OW51833   7.540  10.318  11.959
49979SOL    HW151834   7.482  10.242  11.951
49979SOL    HW251835   7.584  10.323  11.874
49980SOL     OW51836   8.878   6.499  12.620
49980SOL    HW151837   8.849   6.498  12.529
49980SOL    HW251838   8.901   6.590  12.638
49981SOL     OW51839   5.294   1.013  10.533
49981SOL    HW151840   5.200   1.017  10.549
49981SOL    HW251841   5.309   1.079  10.465
49982SOL     OW51842   7.703  10.968   8.896
49982SOL    HW151843   7.671  10.921   8.972
49982SOL    HW251844   7.624  10.987   8.845
49983SOL     OW51845  11.995  13.267  13.790
49983SOL    HW151846  11.948  13.350  13.783
49983SOL    HW251847  11.997  13.233  13.701
49984SOL     OW51848   6.680   2.576   1.154
49984SOL    HW151849   6.686   2.613   1.242
49984SOL    HW251850   6.747   2.622   1.104
49985SOL     OW51851  13.886   5.743   8.394
49985SOL    HW151852  13.868   5.715   8.304
49985SOL    HW251853  13.965   5.696   8.419
49986SOL     OW51854   2.404   4.896  10.840
49986SOL    HW151855   2.366   4.984  10.836
49986SOL    HW251856   2.493   4.910  10.872
49987SOL     OW51857   4.647   1.915  12.683
49987SOL    HW151858   4.683   1.834  12.720
49987SOL    HW251859   4.632   1.894  12.591
49988SOL     OW51860  13.514   5.424   3.216
49988SOL    HW151861  13.423   5.424   3.186
49988SOL    HW251862  13.566   5.432   3.136
49989SOL     OW51863   7.599  14.700   5.563
49989SOL    HW151864   7.511  14.712   5.598
49989SOL    HW251865   7.613  14.605   5.565
49990SOL     OW51866  13.273   0.183   0.626
49990SOL    HW151867  13.254   0.253   0.689
49990SOL    HW251868  13.326   0.120   0.676
49991SOL     OW51869  14.699  13.364   3.418
49991SOL    HW151870  14.737  13.280   3.443
49991SOL    HW251871  14.745  13.388   3.338
49992SOL     OW51872  11.273   5.837   7.523
49992SOL    HW151873  11.225   5.887   7.458
49992SOL    HW251874  11.325   5.774   7.472
49993SOL     OW51875  12.301   2.679   4.595
49993SOL    HW151876  12.364   2.712   4.659
49993SOL    HW251877  12.218   2.679   4.642
49994SOL     OW51878  11.471  14.840  11.388
49994SOL    HW151879  11.526  14.871  11.316
49994SOL    HW251880  11.498   0.017  11.462
49995SOL     OW51881  12.616  12.532  12.950
49995SOL    HW151882  12.580  12.556  13.035
49995SOL    HW251883  12.618  12.615  12.901
49996SOL     OW51884   4.633   3.595   5.138
49996SOL    HW151885   4.584   3.549   5.207
49996SOL    HW251886   4.624   3.538   5.061
49997SOL     OW51887  10.385  13.986   5.682
49997SOL    HW151888  10.355  13.977   5.773
49997SOL    HW251889  10.316  14.036   5.638
49998SOL     OW51890   2.661   1.499   2.794
49998SOL    HW151891   2.639   1.592   2.799
49998SOL    HW251892   2.725   1.493   2.723
49999SOL     OW51893   3.828  10.391   3.440
49999SOL    HW151894   3.866  10.477   3.420
49999SOL    HW251895   3.734  10.407   3.445
50000SOL     OW51896   3.678  13.984   9.497
50000SOL    HW151897   3.636  13.976   9.583
50000SOL    HW251898   3.712  13.897   9.479
50001SOL     OW51899   9.053   3.440   0.238
50001SOL    HW151900   9.022   3.489   0.314
50001SOL    HW251901   9.128   3.491   0.206
50002SOL     OW51902   8.399   5.065   6.230
50002SOL    HW151903   8.433   4.996   6.175
50002SOL    HW251904   8.382   5.138   6.170
50003SOL     OW51905   2.019   2.896  13.202
50003SOL    HW151906   1.985   2.885  13.290
50003SOL    HW251907   2.002   2.987  13.180
50004SOL     OW51908  13.285   9.485  14.534
50004SOL    HW151909  13.282   9.458  14.626
50004SOL    HW251910  13.362   9.542  14.528
50005SOL     OW51911  11.284   3.647  12.614
50005SOL    HW151912  11.221   3.645  12.543
50005SOL    HW251913  11.292   3.556  12.642
50006SOL     OW51914   4.758   0.054   1.023
50006SOL    HW151915   4.679   0.025   0.979
50006SOL    HW251916   4.734   0.057   1.116
50007SOL     OW51917   5.362   4.301   5.220
50007SOL    HW151918   5.408   4.385   5.215
50007SOL    HW251919   5.419   4.240   5.173
50008SOL     OW51920   1.982  13.996   3.335
50008SOL    HW151921   1.927  14.041   3.270
50008SOL    HW251922   1.988  13.906   3.303
50009SOL     OW51923  14.076   0.707  12.787
50009SOL    HW151924  14.083   0.754  12.870
50009SOL    HW251925  14.062   0.776  12.721
50010SOL     OW51926   0.835   7.800   6.321
50010SOL    HW151927   0.869   7.867   6.381
50010SOL    HW251928   0.909   7.779   6.264
50011SOL     OW51929   7.269  14.838   3.980
50011SOL    HW151930   7.219  14.830   4.061
50011SOL    HW251931   7.289   0.054   3.974
50012SOL     OW51932   4.216   5.531   7.405
50012SOL    HW151933   4.239   5.607   7.350
50012SOL    HW251934   4.300   5.491   7.428
50013SOL     OW51935  14.045  13.984   4.231
50013SOL    HW151936  13.999  13.938   4.161
50013SOL    HW251937  13.975  14.015   4.289
50014SOL     OW51938  12.743   8.271   2.422
50014SOL    HW151939  12.652   8.277   2.393
50014SOL    HW251940  12.778   8.196   2.374
50015SOL     OW51941  12.633  14.323   4.389
50015SOL    HW151942  12.665  14.402   4.345
50015SOL    HW251943  12.538  14.331   4.387
50016SOL     OW51944  12.639   4.114   3.769
50016SOL    HW151945  12.556   4.085   3.806
50016SOL    HW251946  12.689   4.147   3.844
50017SOL     OW51947   4.092  11.812   3.088
50017SOL    HW151948   4.049  11.766   3.016
50017SOL    HW251949   4.098  11.902   3.058
50018SOL     OW51950  13.523   6.459   0.619
50018SOL    HW151951  13.510   6.424   0.707
50018SOL    HW251952  13.493   6.550   0.625
50019SOL     OW51953   0.730   1.099  13.689
50019SOL    HW151954   0.825   1.098  13.696
50019SOL    HW251955   0.710   1.043  13.614
50020SOL     OW51956   3.245   1.505   4.364
50020SOL    HW151957   3.177   1.457   4.316
50020SOL    HW251958   3.253   1.588   4.317
50021SOL     OW51959   7.361  11.013   1.924
50021SOL    HW151960   7.271  10.989   1.901
50021SOL    HW251961   7.351  11.074   1.997
50022SOL     OW51962   5.981  14.066  14.764
50022SOL    HW151963   6.013  13.976  14.758
50022SOL    HW251964   6.060  14.119  14.761
50023SOL     OW51965  13.307   1.040   2.485
50023SOL    HW151966  13.345   1.085   2.409
50023SOL    HW251967  13.213   1.055   2.478
50024SOL     OW51968   2.190   3.461   3.740
50024SOL    HW151969   2.211   3.461   3.647
50024SOL    HW251970   2.103   3.420   3.744
50025SOL     OW51971   0.079   1.624   4.588
50025SOL    HW151972   0.077   1.534   4.622
50025SOL    HW251973   0.090   1.679   4.666
50026SOL     OW51974  11.510   1.809  12.298
50026SOL    HW151975  11.569   1.797  12.372
50026SOL    HW251976  11.560   1.775  12.223
50027SOL     OW51977   1.802   9.622   3.934
50027SOL    HW151978   1.890   9.596   3.962
50027SOL    HW251979   1.759   9.540   3.910
50028SOL     OW51980   3.556   0.794   0.475
50028SOL    HW151981   3.535   0.701   0.478
50028SOL    HW251982   3.645   0.799   0.512
50029SOL     OW51983   1.148   7.789   7.133
50029SOL    HW151984   1.117   7.792   7.223
50029SOL    HW251985   1.070   7.764   7.082
50030SOL     OW51986  10.200   0.085   6.920
50030SOL    HW151987  10.250   0.061   6.998
50030SOL    HW251988  10.108   0.078   6.948
50031SOL     OW51989  13.580   7.138   7.735
50031SOL    HW151990  13.612   7.180   7.656
50031SOL    HW251991  13.660   7.108   7.780
50032SOL     OW51992   4.597   6.025  12.193
50032SOL    HW151993   4.560   6.079  12.263
50032SOL    HW251994   4.686   6.005  12.223
50033SOL     OW51995   9.700  14.145   4.028
50033SOL    HW151996   9.657  14.145   4.114
50033SOL    HW251997   9.653  14.212   3.978
50034SOL     OW51998   5.189   2.466   7.953
50034SOL    HW151999   5.116   2.476   7.891
50034SOL    HW252000   5.263   2.506   7.909
50035SOL     OW52001   0.794   6.434  11.394
50035SOL    HW152002   0.828   6.521  11.414
50035SOL    HW252003   0.839   6.375  11.456
50036SOL     OW52004   9.102   2.426  12.598
50036SOL    HW152005   9.189   2.427  12.560
50036SOL    HW252006   9.048   2.381  12.533
50037SOL     OW52007   3.633   5.260   0.429
50037SOL    HW152008   3.589   5.194   0.483
50037SOL    HW252009   3.714   5.280   0.477
50038SOL     OW52010   3.200   2.447   0.673
50038SOL    HW152011   3.287   2.478   0.698
50038SOL    HW252012   3.166   2.408   0.753
50039SOL     OW52013   5.785   6.725  13.158
50039SOL    HW152014   5.801   6.711  13.252
50039SOL    HW252015   5.696   6.761  13.154
50040SOL     OW52016   8.306  10.192  12.818
50040SOL    HW152017   8.269  10.109  12.849
50040SOL    HW252018   8.289  10.254  12.890
50041SOL     OW52019  11.229   8.896   2.806
50041SOL    HW152020  11.275   8.865   2.728
50041SOL    HW252021  11.136   8.883   2.785
50042SOL     OW52022   2.122   8.616   3.817
50042SOL    HW152023   2.151   8.582   3.732
50042SOL    HW252024   2.169   8.700   3.826
50043SOL     OW52025   9.516   7.262  11.131
50043SOL    HW152026   9.609   7.283  11.138
50043SOL    HW252027   9.497   7.212  11.211
50044SOL     OW52028   5.168  10.186   5.949
50044SOL    HW152029   5.213  10.139   6.019
50044SOL    HW252030   5.223  10.262   5.931
50045SOL     OW52031  11.444   0.876  10.372
50045SOL    HW152032  11.353   0.858  10.350
50045SOL    HW252033  11.441   0.910  10.461
50046SOL     OW52034   7.513   2.228   3.854
50046SOL    HW152035   7.565   2.256   3.779
50046SOL    HW252036   7.493   2.309   3.901
50047SOL     OW52037   4.881   3.730   8.812
50047SOL    HW152038   4.823   3.769   8.746
50047SOL    HW252039   4.969   3.746   8.779
50048SOL     OW52040   7.750   1.774   4.913
50048SOL    HW152041   7.797   1.850   4.948
50048SOL    HW252042   7.746   1.791   4.819
50049SOL     OW52043  10.282  12.859  13.342
50049SOL    HW152044  10.194  12.850  13.303
50049SOL    HW252045  10.282  12.947  13.379
50050SOL     OW52046   7.524   7.360   7.470
50050SOL    HW152047   7.460   7.409   7.419
50050SOL    HW252048   7.609   7.391   7.437
50051SOL     OW52049  13.198   8.310   8.039
50051SOL    HW152050  13.140   8.301   8.114
50051SOL    HW252051  13.162   8.385   7.991
50052SOL     OW52052   0.490   9.174   1.063
50052SOL    HW152053   0.576   9.206   1.035
50052SOL    HW252054   0.439   9.168   0.983
50053SOL     OW52055  10.715   2.069  12.161
50053SOL    HW152056  10.634   2.024  12.136
50053SOL    HW252057  10.688   2.159  12.180
50054SOL     OW52058   4.749   0.082  11.200
50054SOL    HW152059   4.677   0.091  11.263
50054SOL    HW252060   4.728   0.146  11.131
50055SOL     OW52061   5.726   9.688   4.783
50055SOL    HW152062   5.767   9.774   4.789
50055SOL    HW252063   5.649   9.695   4.839
50056SOL     OW52064   9.228   2.206   0.445
50056SOL    HW152065   9.178   2.257   0.509
50056SOL    HW252066   9.217   2.115   0.471
50057SOL     OW52067   4.392   1.875   6.290
50057SOL    HW152068   4.406   1.968   6.307
50057SOL    HW252069   4.425   1.831   6.369
50058SOL     OW52070  11.253  13.279  13.589
50058SOL    HW152071  11.335  13.320  13.561
50058SOL    HW252072  11.185  13.344  13.568
50059SOL     OW52073   0.794  13.312  14.573
50059SOL    HW152074   0.862  13.281  14.633
50059SOL    HW252075   0.744  13.376  14.624
50060SOL     OW52076   8.380   6.969   9.525
50060SOL    HW152077   8.347   6.880   9.522
50060SOL    HW252078   8.306   7.023   9.494
50061SOL     OW52079  11.558  12.388   2.550
50061SOL    HW152080  11.647  12.403   2.518
50061SOL    HW252081  11.568  12.323   2.619
50062SOL     OW52082   3.002  10.453   0.625
50062SOL    HW152083   3.065  10.464   0.697
50062SOL    HW252084   3.026  10.369   0.586
50063SOL     OW52085  13.018   1.669  12.426
50063SOL    HW152086  12.988   1.595  12.479
50063SOL    HW252087  12.974   1.659  12.342
50064SOL     OW52088   3.636  12.090   0.257
50064SOL    HW152089   3.544  12.087   0.230
50064SOL    HW252090   3.635  12.065   0.349
50065SOL     OW52091  12.107   8.273  12.711
50065SOL    HW152092  12.148   8.215  12.646
50065SOL    HW252093  12.149   8.251  12.793
50066SOL     OW52094   0.082   9.972  10.150
50066SOL    HW152095   0.081  10.020  10.233
50066SOL    HW252096   0.008   9.911  10.157
50067SOL     OW52097  12.884  14.504   8.743
50067SOL    HW152098  12.805  14.543   8.782
50067SOL    HW252099  12.876  14.411   8.762
50068SOL     OW52100   3.320   5.131   7.403
50068SOL    HW152101   3.316   5.044   7.444
50068SOL    HW252102   3.413   5.153   7.402
50069SOL     OW52103  14.322   5.883   3.664
50069SOL    HW152104  14.402   5.884   3.611
50069SOL    HW252105  14.309   5.791   3.688
50070SOL     OW52106   6.739  13.310  14.129
50070SOL    HW152107   6.663  13.252  14.131
50070SOL    HW252108   6.706  13.391  14.091
50071SOL     OW52109   0.163   9.533  10.894
50071SOL    HW152110   0.221   9.603  10.865
50071SOL    HW252111   0.183   9.459  10.837
50072SOL     OW52112  12.999  14.325   1.513
50072SOL    HW152113  12.959  14.238   1.516
50072SOL    HW252114  12.972  14.366   1.595
50073SOL     OW52115  10.739   9.164   7.105
50073SOL    HW152116  10.725   9.198   7.016
50073SOL    HW252117  10.654   9.176   7.149
50074SOL     OW52118   9.242   0.342   1.373
50074SOL    HW152119   9.193   0.402   1.429
50074SOL    HW252120   9.325   0.388   1.356
50075SOL     OW52121  12.651   2.069   1.809
50075SOL    HW152122  12.625   2.158   1.785
50075SOL    HW252123  12.715   2.081   1.879
50076SOL     OW52124  10.299  12.216   4.144
50076SOL    HW152125  10.243  12.181   4.213
50076SOL    HW252126  10.341  12.292   4.183
50077SOL     OW52127  11.302  12.248  14.498
50077SOL    HW152128  11.323  12.196  14.576
50077SOL    HW252129  11.226  12.203  14.459
50078SOL     OW52130   6.884   5.185  10.844
50078SOL    HW152131   6.848   5.272  10.831
50078SOL    HW252132   6.952   5.196  10.911
50079SOL     OW52133   4.433   2.410   5.147
50079SOL    HW152134   4.492   2.379   5.078
50079SOL    HW252135   4.410   2.499   5.120
50080SOL     OW52136   4.960   4.246   8.634
50080SOL    HW152137   4.887   4.268   8.577
50080SOL    HW252138   5.029   4.308   8.609
50081SOL     OW52139   8.089  14.456   9.476
50081SOL    HW152140   8.054  14.388   9.419
50081SOL    HW252141   8.014  14.512   9.498
50082SOL     OW52142   5.152   5.760   5.346
50082SOL    HW152143   5.208   5.831   5.313
50082SOL    HW252144   5.210   5.706   5.399
50083SOL     OW52145   9.185   9.115   6.524
50083SOL    HW152146   9.110   9.108   6.465
50083SOL    HW252147   9.251   9.059   6.484
50084SOL     OW52148  14.738   3.210   8.334
50084SOL    HW152149  14.717   3.138   8.393
50084SOL    HW252150  14.660   3.222   8.280
50085SOL     OW52151   5.720   2.993   1.904
50085SOL    HW152152   5.784   2.922   1.902
50085SOL    HW252153   5.758   3.061   1.849
50086SOL     OW52154   8.616  14.697   1.235
50086SOL    HW152155   8.655  14.658   1.156
50086SOL    HW252156   8.557  14.764   1.202
50087SOL     OW52157   0.838   5.240   4.564
50087SOL    HW152158   0.772   5.175   4.541
50087SOL    HW252159   0.912   5.221   4.506
50088SOL     OW52160   5.874  14.457  10.067
50088SOL    HW152161   5.943  14.464  10.133
50088SOL    HW252162   5.876  14.365  10.039
50089SOL     OW52163   8.256   9.653  13.816
50089SOL    HW152164   8.316   9.701  13.759
50089SOL    HW252165   8.171   9.660  13.773
50090SOL     OW52166   8.702  14.379   5.130
50090SOL    HW152167   8.720  14.473   5.124
50090SOL    HW252168   8.664  14.356   5.045
50091SOL     OW52169   0.120   9.445   3.583
50091SOL    HW152170   0.193   9.383   3.580
50091SOL    HW252171   0.055   9.402   3.639
50092SOL     OW52172  10.729  12.159   4.308
50092SOL    HW152173  10.769  12.178   4.223
50092SOL    HW252174  10.727  12.243   4.353
50093SOL     OW52175  14.571   1.202   9.747
50093SOL    HW152176  14.621   1.229   9.670
50093SOL    HW252177  14.552   1.283   9.794
50094SOL     OW52178   8.687   7.873   8.137
50094SOL    HW152179   8.769   7.849   8.180
50094SOL    HW252180   8.708   7.952   8.087
50095SOL     OW52181   6.131   3.724   4.333
50095SOL    HW152182   6.126   3.816   4.308
50095SOL    HW252183   6.176   3.682   4.260
50096SOL     OW52184   0.395  13.514   2.410
50096SOL    HW152185   0.446  13.485   2.485
50096SOL    HW252186   0.323  13.565   2.448
50097SOL     OW52187   0.029   8.812   4.358
50097SOL    HW152188  14.823   8.771   4.340
50097SOL    HW252189   0.062   8.839   4.271
50098SOL     OW52190   8.427  11.471  10.267
50098SOL    HW152191   8.369  11.482  10.191
50098SOL    HW252192   8.508  11.514  10.241
50099SOL     OW52193   5.363   6.594   5.603
50099SOL    HW152194   5.392   6.505   5.621
50099SOL    HW252195   5.339   6.629   5.689
50100SOL     OW52196   2.676  11.589   5.987
50100SOL    HW152197   2.729  11.644   6.045
50100SOL    HW252198   2.690  11.500   6.019
50101SOL     OW52199  14.420   2.324   0.160
50101SOL    HW152200  14.446   2.400   0.213
50101SOL    HW252201  14.350   2.357   0.103
50102SOL     OW52202   1.149   4.621   1.749
50102SOL    HW152203   1.125   4.689   1.812
50102SOL    HW252204   1.128   4.659   1.664
50103SOL     OW52205   3.933  12.175   1.277
50103SOL    HW152206   3.919  12.218   1.361
50103SOL    HW252207   3.966  12.088   1.300
50104SOL     OW52208   9.489  14.549  11.896
50104SOL    HW152209   9.434  14.597  11.835
50104SOL    HW252210   9.432  14.481  11.933
50105SOL     OW52211   0.398   9.690  14.441
50105SOL    HW152212   0.454   9.613  14.454
50105SOL    HW252213   0.341   9.692  14.517
50106SOL     OW52214   3.885   2.407   3.429
50106SOL    HW152215   3.804   2.394   3.380
50106SOL    HW252216   3.945   2.449   3.368
50107SOL     OW52217   8.922   2.234   2.333
50107SOL    HW152218   8.867   2.157   2.348
50107SOL    HW252219   8.959   2.220   2.246
50108SOL     OW52220   7.540   8.149   7.195
50108SOL    HW152221   7.469   8.171   7.256
50108SOL    HW252222   7.602   8.100   7.248
50109SOL     OW52223   0.652   0.342   9.381
50109SOL    HW152224   0.587   0.321   9.315
50109SOL    HW252225   0.690   0.257   9.406
50110SOL     OW52226   0.335  13.065   3.620
50110SOL    HW152227   0.250  13.079   3.579
50110SOL    HW252228   0.345  13.139   3.681
50111SOL     OW52229   2.477   8.531  14.393
50111SOL    HW152230   2.567   8.547  14.421
50111SOL    HW252231   2.484   8.460  14.330
50112SOL     OW52232   1.899   5.343   0.682
50112SOL    HW152233   1.851   5.267   0.648
50112SOL    HW252234   1.987   5.334   0.646
50113SOL     OW52235  11.861   1.967  12.550
50113SOL    HW152236  11.831   2.052  12.519
50113SOL    HW252237  11.883   1.919  12.470
50114SOL     OW52238  11.240  14.423  14.602
50114SOL    HW152239  11.285  14.385  14.527
50114SOL    HW252240  11.295  14.400  14.677
50115SOL     OW52241  13.865  14.604   1.345
50115SOL    HW152242  13.777  14.641   1.337
50115SOL    HW252243  13.890  14.620   1.436
50116SOL     OW52244  10.231  10.928   4.518
50116SOL    HW152245  10.286  10.850   4.511
50116SOL    HW252246  10.225  10.960   4.428
50117SOL     OW52247   9.551  13.067   3.772
50117SOL    HW152248   9.554  13.025   3.686
50117SOL    HW252249   9.556  13.161   3.753
50118SOL     OW52250   2.138  13.029   8.337
50118SOL    HW152251   2.089  13.038   8.256
50118SOL    HW252252   2.083  12.972   8.392
50119SOL     OW52253  10.609   2.572   4.851
50119SOL    HW152254  10.653   2.653   4.876
50119SOL    HW252255  10.549   2.597   4.781
50120SOL     OW52256   8.554   2.253  10.796
50120SOL    HW152257   8.640   2.268  10.835
50120SOL    HW252258   8.549   2.158  10.784
50121SOL     OW52259   6.261   8.777   2.958
50121SOL    HW152260   6.298   8.745   3.041
50121SOL    HW252261   6.324   8.750   2.892
50122SOL     OW52262   1.269   6.293  12.441
50122SOL    HW152263   1.304   6.311  12.528
50122SOL    HW252264   1.336   6.239  12.399
50123SOL     OW52265  12.771   9.028   3.309
50123SOL    HW152266  12.699   9.062   3.364
50123SOL    HW252267  12.797   9.104   3.256
50124SOL     OW52268   4.704  14.170   5.525
50124SOL    HW152269   4.660  14.226   5.461
50124SOL    HW252270   4.658  14.086   5.518
50125SOL     OW52271  14.146  10.420   2.460
50125SOL    HW152272  14.195  10.371   2.395
50125SOL    HW252273  14.196  10.410   2.541
50126SOL     OW52274   6.144   3.121  14.511
50126SOL    HW152275   6.124   3.184  14.442
50126SOL    HW252276   6.068   3.126  14.570
50127SOL     OW52277   0.857   8.863   4.417
50127SOL    HW152278   0.945   8.825   4.409
50127SOL    HW252279   0.801   8.788   4.436
50128SOL     OW52280  14.119   9.728   4.145
50128SOL    HW152281  14.036   9.763   4.177
50128SOL    HW252282  14.170   9.714   4.224
50129SOL     OW52283   0.625   0.109  14.520
50129SOL    HW152284   0.671   0.086  14.600
50129SOL    HW252285   0.572   0.031  14.500
50130SOL     OW52286   5.392   5.389  10.628
50130SOL    HW152287   5.393   5.299  10.659
50130SOL    HW252288   5.466   5.431  10.672
50131SOL     OW52289   3.461   6.099   6.418
50131SOL    HW152290   3.528   6.167   6.422
50131SOL    HW252291   3.390   6.139   6.366
50132SOL     OW52292  14.573   1.810  11.361
50132SOL    HW152293  14.639   1.839  11.425
50132SOL    HW252294  14.593   1.860  11.282
50133SOL     OW52295  12.308   2.781  12.094
50133SOL    HW152296  12.224   2.735  12.095
50133SOL    HW252297  12.342   2.766  12.005
50134SOL     OW52298  10.225   6.786   9.025
50134SOL    HW152299  10.286   6.832   8.967
50134SOL    HW252300  10.141   6.831   9.013
50135SOL     OW52301  13.565   4.799   3.750
50135SOL    HW152302  13.551   4.731   3.684
50135SOL    HW252303  13.578   4.751   3.831
50136SOL     OW52304  14.299  14.408   1.951
50136SOL    HW152305  14.273  14.323   1.987
50136SOL    HW252306  14.347  14.451   2.023
50137SOL     OW52307   2.424  14.111   7.560
50137SOL    HW152308   2.393  14.102   7.650
50137SOL    HW252309   2.345  14.114   7.507
50138SOL     OW52310  10.328  14.577   4.501
50138SOL    HW152311  10.263  14.632   4.544
50138SOL    HW252312  10.357  14.517   4.570
50139SOL     OW52313  10.464  10.056  13.350
50139SOL    HW152314  10.533  10.079  13.287
50139SOL    HW252315  10.485  10.107  13.428
50140SOL     OW52316   8.277  11.945   1.312
50140SOL    HW152317   8.316  11.858   1.299
50140SOL    HW252318   8.253  11.947   1.404
50141SOL     OW52319   1.563   0.313   1.895
50141SOL    HW152320   1.498   0.368   1.937
50141SOL    HW252321   1.553   0.227   1.937
50142SOL     OW52322  12.143  13.962   9.398
50142SOL    HW152323  12.061  14.009   9.385
50142SOL    HW252324  12.203  13.999   9.332
50143SOL     OW52325   8.734   5.045   9.343
50143SOL    HW152326   8.745   5.126   9.293
50143SOL    HW252327   8.796   5.054   9.416
50144SOL     OW52328  13.368   9.740   2.035
50144SOL    HW152329  13.437   9.794   2.075
50144SOL    HW252330  13.387   9.742   1.941
50145SOL     OW52331   7.155   1.287  11.194
50145SOL    HW152332   7.216   1.246  11.256
50145SOL    HW252333   7.070   1.249  11.216
50146SOL     OW52334   0.450  11.529  10.496
50146SOL    HW152335   0.455  11.440  10.532
50146SOL    HW252336   0.510  11.580  10.551
50147SOL     OW52337  14.833   7.888   4.982
50147SOL    HW152338   0.028   7.837   5.019
50147SOL    HW252339  14.815   7.956   5.047
50148SOL     OW52340   5.080  13.705  12.151
50148SOL    HW152341   5.005  13.647  12.162
50148SOL    HW252342   5.081  13.757  12.231
50149SOL     OW52343   9.827  13.668   6.444
50149SOL    HW152344   9.794  13.579   6.443
50149SOL    HW252345   9.897  13.669   6.379
50150SOL     OW52346   6.574  14.852  14.849
50150SOL    HW152347   6.524  14.776   0.000
50150SOL    HW252348   6.608   0.013   0.053
50151SOL     OW52349   7.427  13.947   0.627
50151SOL    HW152350   7.442  13.887   0.701
50151SOL    HW252351   7.363  14.010   0.660
50152SOL     OW52352  11.260   2.688   3.479
50152SOL    HW152353  11.336   2.742   3.501
50152SOL    HW252354  11.230   2.654   3.563
50153SOL     OW52355  11.469  14.587   2.354
50153SOL    HW152356  11.456  14.532   2.431
50153SOL    HW252357  11.402  14.656   2.363
50154SOL     OW52358   0.333  10.120   5.996
50154SOL    HW152359   0.329  10.216   6.000
50154SOL    HW252360   0.318  10.091   6.086
50155SOL     OW52361   6.955   5.281  14.627
50155SOL    HW152362   6.995   5.196  14.645
50155SOL    HW252363   6.898   5.297  14.702
50156SOL     OW52364   9.937   2.990   2.533
50156SOL    HW152365   9.849   2.952   2.533
50156SOL    HW252366   9.927   3.074   2.578
50157SOL     OW52367   8.043  14.270  12.357
50157SOL    HW152368   8.068  14.324  12.432
50157SOL    HW252369   7.947  14.272  12.357
50158SOL     OW52370   8.625  12.045  10.373
50158SOL    HW152371   8.563  12.061  10.445
50158SOL    HW252372   8.577  12.072  10.294
50159SOL     OW52373  12.787   1.941   5.416
50159SOL    HW152374  12.846   2.003   5.372
50159SOL    HW252375  12.831   1.856   5.406
50160SOL     OW52376  12.997   4.864   9.051
50160SOL    HW152377  12.909   4.878   9.086
50160SOL    HW252378  13.056   4.883   9.123
50161SOL     OW52379   1.652  14.465   3.420
50161SOL    HW152380   1.602  14.470   3.339
50161SOL    HW252381   1.622  14.539   3.473
50162SOL     OW52382  12.506  14.842  11.591
50162SOL    HW152383  12.567  14.798  11.532
50162SOL    HW252384  12.542   0.052  11.603
50163SOL     OW52385   6.141   4.425   5.919
50163SOL    HW152386   6.082   4.382   5.982
50163SOL    HW252387   6.179   4.498   5.969
50164SOL     OW52388  14.437   7.363   0.858
50164SOL    HW152389  14.371   7.324   0.916
50164SOL    HW252390  14.432   7.311   0.778
50165SOL     OW52391  13.008   3.341   8.541
50165SOL    HW152392  13.068   3.278   8.501
50165SOL    HW252393  12.962   3.381   8.466
50166SOL     OW52394   0.049  14.671   0.215
50166SOL    HW152395   0.058  14.644   0.124
50166SOL    HW252396  14.835  14.697   0.224
50167SOL     OW52397   3.373   5.801  14.531
50167SOL    HW152398   3.295   5.765  14.489
50167SOL    HW252399   3.405   5.866  14.468
50168SOL     OW52400   3.870  11.759   3.251
50168SOL    HW152401   3.936  11.787   3.188
50168SOL    HW252402   3.787  11.772   3.206
50169SOL     OW52403   1.583   3.103   7.919
50169SOL    HW152404   1.488   3.112   7.916
50169SOL    HW252405   1.614   3.143   7.837
50170SOL     OW52406   2.680   7.397  11.148
50170SOL    HW152407   2.732   7.325  11.183
50170SOL    HW252408   2.628   7.428  11.222
50171SOL     OW52409  10.510   4.597   0.052
50171SOL    HW152410  10.524   4.691   0.043
50171SOL    HW252411  10.554   4.558  14.854
50172SOL     OW52412  13.944  13.326   4.505
50172SOL    HW152413  13.885  13.285   4.442
50172SOL    HW252414  13.946  13.265   4.579
50173SOL     OW52415   2.800   6.368   0.099
50173SOL    HW152416   2.723   6.365   0.043
50173SOL    HW252417   2.776   6.316   0.176
50174SOL     OW52418   6.362  10.070   3.465
50174SOL    HW152419   6.376   9.975   3.463
50174SOL    HW252420   6.426  10.102   3.528
50175SOL     OW52421  13.252   2.651   2.501
50175SOL    HW152422  13.180   2.611   2.452
50175SOL    HW252423  13.279   2.726   2.447
50176SOL     OW52424   4.858  14.584  13.679
50176SOL    HW152425   4.884  14.670  13.649
50176SOL    HW252426   4.792  14.555  13.616
50177SOL     OW52427   3.918   6.824   2.517
50177SOL    HW152428   3.838   6.771   2.510
50177SOL    HW252429   3.975   6.772   2.573
50178SOL     OW52430  10.161  11.624  12.813
50178SOL    HW152431  10.221  11.580  12.873
50178SOL    HW252432  10.092  11.560  12.796
50179SOL     OW52433   2.889  10.192  14.623
50179SOL    HW152434   2.965  10.214  14.677
50179SOL    HW252435   2.832  10.141  14.680
50180SOL     OW52436   7.057   9.049   6.967
50180SOL    HW152437   7.047   9.118   6.902
50180SOL    HW252438   7.043   8.968   6.918
50181SOL     OW52439   9.254  14.491   5.599
50181SOL    HW152440   9.167  14.497   5.560
50181SOL    HW252441   9.312  14.475   5.525
50182SOL     OW52442   4.433   3.810  13.432
50182SOL    HW152443   4.397   3.889  13.471
50182SOL    HW252444   4.527   3.815  13.452
50183SOL     OW52445   2.045   3.656   9.202
50183SOL    HW152446   2.099   3.666   9.123
50183SOL    HW252447   1.958   3.684   9.175
50184SOL     OW52448  10.639   8.825   2.708
50184SOL    HW152449  10.590   8.771   2.770
50184SOL    HW252450  10.590   8.907   2.704
50185SOL     OW52451   1.358   1.136  12.774
50185SOL    HW152452   1.276   1.125  12.821
50185SOL    HW252453   1.388   1.224  12.797
50186SOL     OW52454   1.372   3.144  10.392
50186SOL    HW152455   1.312   3.173  10.323
50186SOL    HW252456   1.420   3.223  10.416
50187SOL     OW52457   0.316  14.452   1.283
50187SOL    HW152458   0.249  14.506   1.324
50187SOL    HW252459   0.268  14.380   1.242
50188SOL     OW52460   3.980  10.891  11.684
50188SOL    HW152461   3.987  10.819  11.747
50188SOL    HW252462   3.889  10.920  11.689
50189SOL     OW52463  11.084   7.224   6.603
50189SOL    HW152464  11.131   7.264   6.676
50189SOL    HW252465  11.025   7.160   6.645
50190SOL     OW52466   6.383  10.192   1.971
50190SOL    HW152467   6.447  10.159   1.908
50190SOL    HW252468   6.371  10.284   1.946
50191SOL     OW52469   2.481   3.484   1.258
50191SOL    HW152470   2.568   3.445   1.245
50191SOL    HW252471   2.471   3.545   1.185
50192SOL     OW52472  13.516  13.791   1.635
50192SOL    HW152473  13.572  13.859   1.671
50192SOL    HW252474  13.442  13.786   1.696
50193SOL     OW52475   6.490   1.532   0.597
50193SOL    HW152476   6.420   1.494   0.543
50193SOL    HW252477   6.504   1.468   0.666
50194SOL     OW52478   5.963  14.175   9.551
50194SOL    HW152479   5.882  14.218   9.580
50194SOL    HW252480   6.031  14.242   9.561
50195SOL     OW52481   0.584   8.326   0.836
50195SOL    HW152482   0.584   8.310   0.741
50195SOL    HW252483   0.553   8.416   0.845
50196SOL     OW52484  14.507   7.910   7.751
50196SOL    HW152485  14.551   7.834   7.712
50196SOL    HW252486  14.577   7.959   7.793
50197SOL     OW52487   9.699   6.951   4.612
50197SOL    HW152488   9.748   6.988   4.539
50197SOL    HW252489   9.741   6.986   4.691
50198SOL     OW52490   6.607   6.013  12.091
50198SOL    HW152491   6.576   6.056  12.012
50198SOL    HW252492   6.633   5.926  12.062
50199SOL     OW52493   5.484   3.924   1.698
50199SOL    HW152494   5.484   3.829   1.698
50199SOL    HW252495   5.468   3.948   1.789
50200SOL     OW52496   2.948   4.363   9.719
50200SOL    HW152497   3.016   4.303   9.687
50200SOL    HW252498   2.943   4.346   9.813
50201SOL     OW52499   0.495   8.025   0.502
50201SOL    HW152500   0.419   8.058   0.551
50201SOL    HW252501   0.506   7.935   0.532
50202SOL     OW52502  13.579   0.344  13.086
50202SOL    HW152503  13.568   0.264  13.034
50202SOL    HW252504  13.490   0.371  13.107
50203SOL     OW52505   2.787   6.258   4.827
50203SOL    HW152506   2.736   6.320   4.775
50203SOL    HW252507   2.747   6.261   4.914
50204SOL     OW52508   3.342  10.245   2.464
50204SOL    HW152509   3.328  10.258   2.557
50204SOL    HW252510   3.300  10.320   2.422
50205SOL     OW52511  12.692   4.726  11.883
50205SOL    HW152512  12.778   4.709  11.924
50205SOL    HW252513  12.631   4.675  11.935
50206SOL     OW52514   5.744   3.234  12.285
50206SOL    HW152515   5.835   3.223  12.311
50206SOL    HW252516   5.742   3.316  12.236
50207SOL     OW52517   5.560  11.056   8.394
50207SOL    HW152518   5.472  11.027   8.415
50207SOL    HW252519   5.616  10.982   8.418
50208SOL     OW52520  10.687  13.422   7.633
50208SOL    HW152521  10.629  13.347   7.623
50208SOL    HW252522  10.683  13.444   7.726
50209SOL     OW52523  14.113  13.785   3.913
50209SOL    HW152524  14.024  13.789   3.949
50209SOL    HW252525  14.128  13.692   3.898
50210SOL     OW52526  10.513  10.338  12.894
50210SOL    HW152527  10.446  10.395  12.931
50210SOL    HW252528  10.549  10.388  12.821
50211SOL     OW52529  10.172   1.301   4.987
50211SOL    HW152530  10.196   1.375   4.931
50211SOL    HW252531  10.248   1.243   4.983
50212SOL     OW52532   6.562  12.801  13.178
50212SOL    HW152533   6.600  12.844  13.102
50212SOL    HW252534   6.550  12.871  13.242
50213SOL     OW52535   3.370  12.914   7.483
50213SOL    HW152536   3.404  12.860   7.554
50213SOL    HW252537   3.404  13.002   7.500
50214SOL     OW52538   9.270   4.794  14.481
50214SOL    HW152539   9.231   4.742  14.552
50214SOL    HW252540   9.354   4.823  14.517
50215SOL     OW52541   5.531   9.316  11.253
50215SOL    HW152542   5.576   9.294  11.335
50215SOL    HW252543   5.476   9.240  11.235
50216SOL     OW52544   1.336   4.720  12.998
50216SOL    HW152545   1.320   4.669  12.918
50216SOL    HW252546   1.295   4.805  12.981
50217SOL     OW52547   1.336   4.031   8.558
50217SOL    HW152548   1.316   4.074   8.641
50217SOL    HW252549   1.372   3.946   8.584
50218SOL     OW52550   9.036   2.707   4.048
50218SOL    HW152551   8.973   2.753   4.102
50218SOL    HW252552   9.005   2.617   4.046
50219SOL     OW52553   5.874  13.415   0.264
50219SOL    HW152554   5.819  13.488   0.236
50219SOL    HW252555   5.936  13.402   0.193
50220SOL     OW52556   2.629  11.224   2.592
50220SOL    HW152557   2.559  11.177   2.545
50220SOL    HW252558   2.660  11.162   2.658
50221SOL     OW52559  11.251  12.788   7.151
50221SOL    HW152560  11.158  12.805   7.134
50221SOL    HW252561  11.260  12.801   7.246
50222SOL     OW52562   1.681   3.213   6.788
50222SOL    HW152563   1.755   3.158   6.759
50222SOL    HW252564   1.721   3.298   6.809
50223SOL     OW52565   8.100  11.161  12.466
50223SOL    HW152566   8.191  11.176  12.491
50223SOL    HW252567   8.103  11.140  12.373
50224SOL     OW52568   3.443   7.458   9.748
50224SOL    HW152569   3.406   7.538   9.783
50224SOL    HW252570   3.532   7.455   9.783
50225SOL     OW52571   6.955   5.078   3.351
50225SOL    HW152572   6.955   4.985   3.373
50225SOL    HW252573   6.938   5.080   3.256
50226SOL     OW52574  13.245  13.765   7.377
50226SOL    HW152575  13.301  13.776   7.300
50226SOL    HW252576  13.176  13.705   7.348
50227SOL     OW52577   9.656   9.111   1.323
50227SOL    HW152578   9.723   9.074   1.381
50227SOL    HW252579   9.705   9.163   1.260
50228SOL     OW52580  12.586   4.798   5.959
50228SOL    HW152581  12.544   4.718   5.927
50228SOL    HW252582  12.553   4.808   6.048
50229SOL     OW52583  11.804   0.170  10.045
50229SOL    HW152584  11.768   0.123  10.120
50229SOL    HW252585  11.842   0.250  10.082
50230SOL     OW52586   6.995   9.846  13.939
50230SOL    HW152587   6.963   9.793  14.011
50230SOL    HW252588   7.063   9.792  13.897
50231SOL     OW52589   4.033  13.986  14.840
50231SOL    HW152590   4.071  13.913   0.013
50231SOL    HW252591   3.944  13.995  14.875
50232SOL     OW52592   0.422  11.877   2.042
50232SOL    HW152593   0.455  11.791   2.067
50232SOL    HW252594   0.499  11.934   2.041
50233SOL     OW52595   4.032   4.198   5.865
50233SOL    HW152596   4.044   4.157   5.950
50233SOL    HW252597   3.939   4.222   5.863
50234SOL     OW52598   4.823  10.644  10.453
50234SOL    HW152599   4.879  10.610  10.383
50234SOL    HW252600   4.841  10.738  10.454
50235SOL     OW52601   5.185  10.292   0.198
50235SOL    HW152602   5.106  10.342   0.215
50235SOL    HW252603   5.222  10.275   0.285
50236SOL     OW52604  10.218  13.841   3.149
50236SOL    HW152605  10.273  13.838   3.227
50236SOL    HW252606  10.276  13.877   3.081
50237SOL     OW52607   9.741  11.068   9.494
50237SOL    HW152608   9.697  11.120   9.427
50237SOL    HW252609   9.671  11.014   9.532
50238SOL     OW52610   5.885   4.903   4.266
50238SOL    HW152611   5.976   4.874   4.267
50238SOL    HW252612   5.836   4.826   4.236
50239SOL     OW52613   7.675   0.751   5.431
50239SOL    HW152614   7.755   0.707   5.402
50239SOL    HW252615   7.706   0.826   5.482
50240SOL     OW52616   8.858   2.416  14.042
50240SOL    HW152617   8.948   2.389  14.026
50240SOL    HW252618   8.835   2.375  14.125
50241SOL     OW52619   9.200   4.869   5.466
50241SOL    HW152620   9.285   4.914   5.464
50241SOL    HW252621   9.173   4.873   5.558
50242SOL     OW52622   8.887  13.962   3.826
50242SOL    HW152623   8.842  13.927   3.903
50242SOL    HW252624   8.971  13.993   3.860
50243SOL     OW52625   5.773   6.085   8.261
50243SOL    HW152626   5.768   6.168   8.214
50243SOL    HW252627   5.800   6.109   8.349
50244SOL     OW52628   9.193  10.493   2.397
50244SOL    HW152629   9.226  10.439   2.469
50244SOL    HW252630   9.098  10.485   2.402
50245SOL     OW52631  11.460   7.227  10.579
50245SOL    HW152632  11.554   7.215  10.565
50245SOL    HW252633  11.420   7.158  10.526
50246SOL     OW52634   0.172   0.617   2.483
50246SOL    HW152635   0.112   0.574   2.421
50246SOL    HW252636   0.227   0.546   2.516
50247SOL     OW52637  11.154  13.245   8.906
50247SOL    HW152638  11.090  13.294   8.854
50247SOL    HW252639  11.235  13.250   8.854
50248SOL     OW52640  14.473  10.083   6.843
50248SOL    HW152641  14.499  10.163   6.889
50248SOL    HW252642  14.507  10.012   6.897
50249SOL     OW52643  13.681   2.762   2.265
50249SOL    HW152644  13.630   2.822   2.211
50249SOL    HW252645  13.670   2.795   2.355
50250SOL     OW52646   7.257   3.813  13.100
50250SOL    HW152647   7.220   3.726  13.115
50250SOL    HW252648   7.217   3.841  13.017
50251SOL     OW52649  14.779   8.272   6.932
50251SOL    HW152650  14.811   8.359   6.909
50251SOL    HW252651  14.765   8.229   6.848
50252SOL     OW52652  11.240   7.559  13.915
50252SOL    HW152653  11.333   7.555  13.893
50252SOL    HW252654  11.238   7.573  14.009
50253SOL     OW52655   9.577  14.168   5.911
50253SOL    HW152656   9.543  14.196   5.996
50253SOL    HW252657   9.652  14.226   5.895
50254SOL     OW52658   1.737   6.331   5.068
50254SOL    HW152659   1.823   6.328   5.109
50254SOL    HW252660   1.711   6.423   5.073
50255SOL     OW52661  13.859   5.142  11.960
50255SOL    HW152662  13.778   5.147  11.909
50255SOL    HW252663  13.871   5.048  11.976
50256SOL     OW52664   9.094   4.692   6.112
50256SOL    HW152665   9.184   4.687   6.145
50256SOL    HW252666   9.088   4.780   6.074
50257SOL     OW52667   1.911   3.139   9.935
50257SOL    HW152668   1.818   3.144   9.910
50257SOL    HW252669   1.935   3.229   9.955
50258SOL     OW52670  11.759  10.357  11.825
50258SOL    HW152671  11.798  10.307  11.753
50258SOL    HW252672  11.798  10.444  11.817
50259SOL     OW52673   3.903   6.238  11.326
50259SOL    HW152674   3.948   6.315  11.290
50259SOL    HW252675   3.886   6.183  11.251
50260SOL     OW52676   7.466   9.493   2.278
50260SOL    HW152677   7.476   9.526   2.189
50260SOL    HW252678   7.453   9.398   2.267
50261SOL     OW52679   8.665  12.304   4.644
50261SOL    HW152680   8.696  12.388   4.609
50261SOL    HW252681   8.605  12.329   4.714
50262SOL     OW52682   3.984   1.902   8.159
50262SOL    HW152683   3.927   1.873   8.088
50262SOL    HW252684   3.937   1.975   8.199
50263SOL     OW52685  13.592  12.249   1.377
50263SOL    HW152686  13.683  12.224   1.357
50263SOL    HW252687  13.543  12.225   1.299
50264SOL     OW52688   3.207   8.448   4.414
50264SOL    HW152689   3.243   8.486   4.334
50264SOL    HW252690   3.253   8.365   4.424
50265SOL     OW52691  13.969  13.762   7.223
50265SOL    HW152692  14.005  13.799   7.304
50265SOL    HW252693  13.875  13.783   7.228
50266SOL     OW52694   4.458   2.416   6.656
50266SOL    HW152695   4.506   2.485   6.610
50266SOL    HW252696   4.368   2.447   6.660
50267SOL     OW52697   1.961  13.791   1.784
50267SOL    HW152698   1.887  13.735   1.761
50267SOL    HW252699   1.948  13.870   1.732
50268SOL     OW52700   7.848  10.320   8.810
50268SOL    HW152701   7.788  10.393   8.793
50268SOL    HW252702   7.858  10.320   8.905
50269SOL     OW52703  12.764   5.125   7.881
50269SOL    HW152704  12.802   5.088   7.960
50269SOL    HW252705  12.712   5.054   7.843
50270SOL     OW52706  13.243   3.323   1.256
50270SOL    HW152707  13.311   3.387   1.276
50270SOL    HW252708  13.182   3.370   1.199
50271SOL     OW52709   6.886   1.956  13.980
50271SOL    HW152710   6.924   1.987  14.062
50271SOL    HW252711   6.793   1.974  13.989
50272SOL     OW52712   9.921   3.985   4.530
50272SOL    HW152713   9.880   4.042   4.466
50272SOL    HW252714   9.864   3.908   4.532
50273SOL     OW52715  10.205   0.523   8.500
50273SOL    HW152716  10.195   0.519   8.405
50273SOL    HW252717  10.289   0.481   8.517
50274SOL     OW52718  12.594   9.119   3.495
50274SOL    HW152719  12.500   9.115   3.514
50274SOL    HW252720  12.636   9.104   3.579
50275SOL     OW52721   9.761  14.877  12.999
50275SOL    HW152722   9.770  14.784  12.979
50275SOL    HW252723   9.825   0.043  12.944
50276SOL     OW52724  13.037   5.212  12.756
50276SOL    HW152725  13.110   5.158  12.786
50276SOL    HW252726  12.976   5.150  12.716
50277SOL     OW52727   3.308   1.011  13.614
50277SOL    HW152728   3.316   1.105  13.627
50277SOL    HW252729   3.278   1.001  13.524
50278SOL     OW52730   9.087   8.523   2.576
50278SOL    HW152731   9.045   8.458   2.632
50278SOL    HW252732   9.155   8.562   2.631
50279SOL     OW52733  13.050   1.052   5.851
50279SOL    HW152734  13.039   1.002   5.932
50279SOL    HW252735  13.129   1.104   5.866
50280SOL     OW52736   5.503  10.796   5.399
50280SOL    HW152737   5.407  10.801   5.399
50280SOL    HW252738   5.525  10.770   5.489
50281SOL     OW52739   7.842  11.902   7.658
50281SOL    HW152740   7.817  11.835   7.594
50281SOL    HW252741   7.909  11.859   7.711
50282SOL     OW52742  13.762  11.065   3.004
50282SOL    HW152743  13.839  11.050   3.058
50282SOL    HW252744  13.790  11.129   2.940
50283SOL     OW52745   2.389   3.739   6.633
50283SOL    HW152746   2.472   3.743   6.585
50283SOL    HW252747   2.345   3.821   6.611
50284SOL     OW52748   0.821   5.333  10.976
50284SOL    HW152749   0.818   5.341  10.881
50284SOL    HW252750   0.851   5.419  11.006
50285SOL     OW52751  14.474  11.188   2.177
50285SOL    HW152752  14.537  11.244   2.223
50285SOL    HW252753  14.509  11.180   2.089
50286SOL     OW52754   3.383   6.640  14.093
50286SOL    HW152755   3.450   6.573  14.102
50286SOL    HW252756   3.395   6.697  14.170
50287SOL     OW52757  14.316  13.890   5.712
50287SOL    HW152758  14.353  13.973   5.743
50287SOL    HW252759  14.361  13.823   5.762
50288SOL     OW52760   6.696   1.548  12.209
50288SOL    HW152761   6.754   1.509  12.275
50288SOL    HW252762   6.728   1.514  12.126
50289SOL     OW52763  13.931   1.279   2.736
50289SOL    HW152764  13.937   1.203   2.678
50289SOL    HW252765  13.896   1.349   2.681
50290SOL     OW52766  14.679  11.921   6.445
50290SOL    HW152767  14.585  11.922   6.429
50290SOL    HW252768  14.690  11.871   6.525
50291SOL     OW52769   9.306   9.476  13.907
50291SOL    HW152770   9.211   9.488  13.915
50291SOL    HW252771   9.339   9.484  13.996
50292SOL     OW52772   8.059  11.544   6.209
50292SOL    HW152773   8.129  11.484   6.230
50292SOL    HW252774   8.049  11.598   6.287
50293SOL     OW52775   5.710   0.298   2.521
50293SOL    HW152776   5.638   0.333   2.573
50293SOL    HW252777   5.676   0.217   2.483
50294SOL     OW52778   1.087   1.421   4.869
50294SOL    HW152779   1.114   1.468   4.948
50294SOL    HW252780   1.136   1.462   4.798
50295SOL     OW52781  10.430   3.132   3.697
50295SOL    HW152782  10.414   3.078   3.619
50295SOL    HW252783  10.509   3.095   3.735
50296SOL     OW52784   4.511   7.479  13.573
50296SOL    HW152785   4.416   7.489  13.576
50296SOL    HW252786   4.530   7.453  13.483
50297SOL     OW52787  12.760   7.660  11.191
50297SOL    HW152788  12.724   7.572  11.177
50297SOL    HW252789  12.685   7.719  11.176
50298SOL     OW52790   1.468   3.555   8.160
50298SOL    HW152791   1.384   3.544   8.205
50298SOL    HW252792   1.528   3.587   8.227
50299SOL     OW52793   3.421  11.298  10.407
50299SOL    HW152794   3.354  11.241  10.444
50299SOL    HW252795   3.388  11.386  10.422
50300SOL     OW52796  10.303  10.244  14.420
50300SOL    HW152797  10.345  10.158  14.427
50300SOL    HW252798  10.372  10.302  14.387
50301SOL     OW52799   6.214   7.087  12.071
50301SOL    HW152800   6.193   6.998  12.097
50301SOL    HW252801   6.130   7.132  12.069
50302SOL     OW52802  10.169  10.063  13.365
50302SOL    HW152803  10.134   9.988  13.414
50302SOL    HW252804  10.262  10.063  13.385
50303SOL     OW52805   8.212  14.235  13.689
50303SOL    HW152806   8.261  14.264  13.612
50303SOL    HW252807   8.221  14.306  13.752
50304SOL     OW52808  11.029   5.094   8.006
50304SOL    HW152809  10.959   5.137   8.055
50304SOL    HW252810  11.026   5.003   8.034
50305SOL     OW52811   6.064   0.932   8.233
50305SOL    HW152812   6.122   0.915   8.308
50305SOL    HW252813   5.984   0.965   8.273
50306SOL     OW52814  14.507   2.172   1.770
50306SOL    HW152815  14.567   2.241   1.800
50306SOL    HW252816  14.547   2.090   1.798
50307SOL     OW52817   3.222  13.258   9.772
50307SOL    HW152818   3.274  13.181   9.749
50307SOL    HW252819   3.185  13.288   9.689
50308SOL     OW52820  14.073   4.464   9.367
50308SOL    HW152821  14.110   4.420   9.291
50308SOL    HW252822  14.062   4.555   9.339
50309SOL     OW52823   6.907   1.530  11.191
50309SOL    HW152824   6.868   1.452  11.232
50309SOL    HW252825   6.833   1.574  11.149
50310SOL     OW52826  11.075  10.165   1.007
50310SOL    HW152827  11.001  10.108   0.984
50310SOL    HW252828  11.066  10.178   1.101
50311SOL     OW52829   7.308  10.710   5.071
50311SOL    HW152830   7.365  10.682   5.000
50311SOL    HW252831   7.220  10.681   5.044
50312SOL     OW52832  11.083  12.312  10.404
50312SOL    HW152833  11.152  12.370  10.372
50312SOL    HW252834  11.046  12.273  10.325
50313SOL     OW52835   4.092   7.814   7.501
50313SOL    HW152836   4.034   7.741   7.523
50313SOL    HW252837   4.146   7.782   7.429
50314SOL     OW52838   6.742   3.874   5.025
50314SOL    HW152839   6.742   3.969   5.032
50314SOL    HW252840   6.690   3.845   5.101
50315SOL     OW52841  10.566   0.814   9.358
50315SOL    HW152842  10.522   0.785   9.438
50315SOL    HW252843  10.553   0.743   9.296
50316SOL     OW52844   2.065  14.676  14.735
50316SOL    HW152845   2.130  14.607  14.752
50316SOL    HW252846   2.117  14.754  14.717
50317SOL     OW52847   4.484   3.703   5.803
50317SOL    HW152848   4.517   3.731   5.888
50317SOL    HW252849   4.395   3.672   5.820
50318SOL     OW52850  10.500   3.351  11.310
50318SOL    HW152851  10.529   3.322  11.223
50318SOL    HW252852  10.501   3.271  11.363
50319SOL     OW52853  10.676   2.070  13.724
50319SOL    HW152854  10.740   2.045  13.657
50319SOL    HW252855  10.610   2.120  13.677
50320SOL     OW52856   3.165  13.899  14.061
50320SOL    HW152857   3.107  13.934  14.129
50320SOL    HW252858   3.166  13.966  13.993
50321SOL     OW52859  13.619   1.982   7.517
50321SOL    HW152860  13.675   1.947   7.447
50321SOL    HW252861  13.554   2.035   7.471
50322SOL     OW52862   7.155  12.412   1.010
50322SOL    HW152863   7.239  12.410   0.966
50322SOL    HW252864   7.132  12.505   1.014
50323SOL     OW52865   4.820   2.873   8.157
50323SOL    HW152866   4.767   2.801   8.124
50323SOL    HW252867   4.894   2.878   8.097
50324SOL     OW52868   8.864   0.087   1.466
50324SOL    HW152869   8.859   0.171   1.421
50324SOL    HW252870   8.869   0.109   1.559
50325SOL     OW52871   3.348  12.735  13.861
50325SOL    HW152872   3.305  12.655  13.890
50325SOL    HW252873   3.279  12.783  13.814
50326SOL     OW52874   5.932   9.100   5.757
50326SOL    HW152875   5.979   9.121   5.838
50326SOL    HW252876   5.844   9.133   5.770
50327SOL     OW52877   9.398   6.800   4.080
50327SOL    HW152878   9.350   6.831   4.156
50327SOL    HW252879   9.359   6.715   4.060
50328SOL     OW52880   5.276   5.918   3.310
50328SOL    HW152881   5.363   5.923   3.272
50328SOL    HW252882   5.220   5.964   3.248
50329SOL     OW52883   5.453   9.211   0.357
50329SOL    HW152884   5.429   9.303   0.350
50329SOL    HW252885   5.509   9.195   0.281
50330SOL     OW52886   3.843   8.872  11.815
50330SOL    HW152887   3.827   8.836  11.728
50330SOL    HW252888   3.795   8.955  11.815
50331SOL     OW52889  13.949  13.674   5.095
50331SOL    HW152890  13.984  13.632   5.016
50331SOL    HW252891  13.858  13.647   5.098
50332SOL     OW52892   3.488  13.908   4.333
50332SOL    HW152893   3.412  13.942   4.286
50332SOL    HW252894   3.515  13.832   4.282
50333SOL     OW52895   7.058   2.347  11.578
50333SOL    HW152896   7.103   2.422  11.540
50333SOL    HW252897   7.020   2.300  11.503
50334SOL     OW52898   5.215   4.417   0.888
50334SOL    HW152899   5.268   4.429   0.809
50334SOL    HW252900   5.278   4.387   0.955
50335SOL     OW52901   2.602  11.643   0.519
50335SOL    HW152902   2.569  11.557   0.494
50335SOL    HW252903   2.527  11.688   0.556
50336SOL     OW52904   6.832   8.847   7.054
50336SOL    HW152905   6.862   8.915   7.114
50336SOL    HW252906   6.827   8.768   7.108
50337SOL     OW52907  13.736  13.619   3.024
50337SOL    HW152908  13.711  13.602   2.933
50337SOL    HW252909  13.667  13.577   3.075
50338SOL     OW52910  13.201   2.467   5.654
50338SOL    HW152911  13.241   2.552   5.674
50338SOL    HW252912  13.262   2.426   5.592
50339SOL     OW52913   9.526  12.975   0.853
50339SOL    HW152914   9.539  13.024   0.934
50339SOL    HW252915   9.453  13.020   0.810
50340SOL     OW52916   4.511   1.840  13.696
50340SOL    HW152917   4.526   1.831  13.602
50340SOL    HW252918   4.523   1.933  13.713
50341SOL     OW52919   0.794  11.112   0.146
50341SOL    HW152920   0.783  11.063   0.064
50341SOL    HW252921   0.834  11.195   0.120
50342SOL     OW52922   0.623   9.145  12.046
50342SOL    HW152923   0.631   9.232  12.084
50342SOL    HW252924   0.671   9.150  11.963
50343SOL     OW52925   3.350   2.184  14.431
50343SOL    HW152926   3.390   2.215  14.512
50343SOL    HW252927   3.281   2.124  14.458
50344SOL     OW52928   2.556   4.714   0.417
50344SOL    HW152929   2.610   4.659   0.361
50344SOL    HW252930   2.611   4.788   0.440
50345SOL     OW52931   7.358   2.152   6.160
50345SOL    HW152932   7.298   2.087   6.124
50345SOL    HW252933   7.333   2.234   6.119
50346SOL     OW52934   5.136  12.129   4.166
50346SOL    HW152935   5.156  12.038   4.143
50346SOL    HW252936   5.155  12.178   4.085
50347SOL     OW52937   6.767   3.393   0.554
50347SOL    HW152938   6.802   3.432   0.633
50347SOL    HW252939   6.790   3.300   0.561
50348SOL     OW52940   5.065   8.253  10.520
50348SOL    HW152941   5.053   8.326  10.460
50348SOL    HW252942   5.056   8.175  10.465
50349SOL     OW52943  13.390  11.957   3.114
50349SOL    HW152944  13.403  11.970   3.208
50349SOL    HW252945  13.460  12.008   3.074
50350SOL     OW52946   6.178   8.553   5.430
50350SOL    HW152947   6.249   8.571   5.491
50350SOL    HW252948   6.192   8.463   5.402
50351SOL     OW52949  13.419   8.465   9.300
50351SOL    HW152950  13.333   8.476   9.260
50351SOL    HW252951  13.460   8.396   9.249
50352SOL     OW52952   6.059  13.048   1.000
50352SOL    HW152953   5.975  13.048   1.047
50352SOL    HW252954   6.041  13.097   0.919
50353SOL     OW52955  11.804   6.832   7.192
50353SOL    HW152956  11.798   6.737   7.188
50353SOL    HW252957  11.894   6.849   7.219
50354SOL     OW52958  12.869   8.810   0.416
50354SOL    HW152959  12.872   8.729   0.367
50354SOL    HW252960  12.846   8.877   0.352
50355SOL     OW52961   1.227  13.586  13.812
50355SOL    HW152962   1.175  13.618  13.739
50355SOL    HW252963   1.263  13.503  13.781
50356SOL     OW52964  10.605  10.783   1.651
50356SOL    HW152965  10.578  10.823   1.734
50356SOL    HW252966  10.535  10.806   1.590
50357SOL     OW52967  12.763   5.604   3.528
50357SOL    HW152968  12.738   5.517   3.499
50357SOL    HW252969  12.812   5.590   3.609
50358SOL     OW52970  10.219   6.997   3.770
50358SOL    HW152971  10.237   7.079   3.726
50358SOL    HW252972  10.124   6.997   3.784
50359SOL     OW52973  14.865   3.416  13.706
50359SOL    HW152974  14.842   3.494  13.655
50359SOL    HW252975  14.805   3.418  13.780
50360SOL     OW52976   4.185  12.794   2.037
50360SOL    HW152977   4.167  12.730   2.106
50360SOL    HW252978   4.139  12.873   2.066
50361SOL     OW52979   8.395  14.303  12.341
50361SOL    HW152980   8.361  14.311  12.252
50361SOL    HW252981   8.381  14.389  12.380
50362SOL     OW52982  14.646   2.731   4.413
50362SOL    HW152983  14.693   2.681   4.347
50362SOL    HW252984  14.586   2.668   4.453
50363SOL     OW52985   4.686  10.914   7.678
50363SOL    HW152986   4.782  10.910   7.679
50363SOL    HW252987   4.658  10.823   7.676
50364SOL     OW52988   6.675  10.128   8.777
50364SOL    HW152989   6.689  10.076   8.698
50364SOL    HW252990   6.757  10.174   8.791
50365SOL     OW52991  11.551   2.399  11.695
50365SOL    HW152992  11.564   2.314  11.653
50365SOL    HW252993  11.534   2.459  11.623
50366SOL     OW52994  11.769  12.512   8.944
50366SOL    HW152995  11.683  12.551   8.958
50366SOL    HW252996  11.814  12.573   8.885
50367SOL     OW52997   9.317   7.267   8.420
50367SOL    HW152998   9.373   7.237   8.348
50367SOL    HW252999   9.233   7.286   8.378
50368SOL     OW53000  11.327  11.152   5.776
50368SOL    HW153001  11.423  11.160   5.774
50368SOL    HW253002  11.296  11.241   5.791
50369SOL     OW53003   1.312  11.623   4.705
50369SOL    HW153004   1.246  11.587   4.764
50369SOL    HW253005   1.332  11.710   4.740
50370SOL     OW53006   9.610  12.072  12.496
50370SOL    HW153007   9.607  12.164  12.522
50370SOL    HW253008   9.679  12.033  12.549
50371SOL     OW53009  10.961   7.032  14.564
50371SOL    HW153010  10.894   6.980  14.607
50371SOL    HW253011  10.975   7.107  14.623
50372SOL     OW53012   6.280   4.127   3.277
50372SOL    HW153013   6.192   4.151   3.306
50372SOL    HW253014   6.338   4.175   3.336
50373SOL     OW53015   9.783   2.647   2.267
50373SOL    HW153016   9.866   2.619   2.228
50373SOL    HW253017   9.717   2.590   2.226
50374SOL     OW53018  11.658   1.191  14.347
50374SOL    HW153019  11.626   1.229  14.428
50374SOL    HW253020  11.630   1.252  14.279
50375SOL     OW53021   6.338   6.464  14.227
50375SOL    HW153022   6.399   6.528  14.192
50375SOL    HW253023   6.360   6.456  14.320
50376SOL     OW53024  13.193   6.115   0.890
50376SOL    HW153025  13.261   6.047   0.885
50376SOL    HW253026  13.163   6.125   0.800
50377SOL     OW53027   9.425   0.674   8.179
50377SOL    HW153028   9.502   0.716   8.217
50377SOL    HW253029   9.425   0.586   8.216
50378SOL     OW53030   2.232   4.620   2.306
50378SOL    HW153031   2.274   4.658   2.383
50378SOL    HW253032   2.299   4.621   2.238
50379SOL     OW53033   2.655   9.094  12.265
50379SOL    HW153034   2.746   9.068  12.282
50379SOL    HW253035   2.623   9.122  12.351
50380SOL     OW53036   2.346   9.829   3.765
50380SOL    HW153037   2.344   9.740   3.728
50380SOL    HW253038   2.276   9.829   3.830
50381SOL     OW53039  10.769   9.686  12.802
50381SOL    HW153040  10.677   9.678  12.826
50381SOL    HW253041  10.788   9.607  12.752
50382SOL     OW53042   0.429   9.186  11.305
50382SOL    HW153043   0.410   9.138  11.385
50382SOL    HW253044   0.514   9.153  11.277
50383SOL     OW53045   3.900  10.375   8.311
50383SOL    HW153046   3.828  10.407   8.366
50383SOL    HW253047   3.979  10.398   8.359
50384SOL     OW53048   5.300   8.880   9.651
50384SOL    HW153049   5.362   8.940   9.693
50384SOL    HW253050   5.296   8.910   9.560
50385SOL     OW53051  11.246   0.367   5.654
50385SOL    HW153052  11.305   0.423   5.603
50385SOL    HW253053  11.161   0.376   5.609
50386SOL     OW53054   5.022   6.155   7.913
50386SOL    HW153055   4.954   6.092   7.890
50386SOL    HW253056   5.099   6.102   7.931
50387SOL     OW53057   1.260   3.365   0.052
50387SOL    HW153058   1.221   3.376  14.843
50387SOL    HW253059   1.326   3.297   0.039
50388SOL     OW53060   4.284  10.207   0.700
50388SOL    HW153061   4.331  10.281   0.739
50388SOL    HW253062   4.263  10.236   0.611
50389SOL     OW53063  14.392  12.989   8.628
50389SOL    HW153064  14.404  12.915   8.688
50389SOL    HW253065  14.479  13.027   8.618
50390SOL     OW53066  14.555   1.860   7.931
50390SOL    HW153067  14.570   1.834   8.022
50390SOL    HW253068  14.544   1.777   7.884
50391SOL     OW53069   5.463   2.382   2.692
50391SOL    HW153070   5.523   2.328   2.640
50391SOL    HW253071   5.385   2.390   2.638
50392SOL     OW53072  10.388   5.650   3.289
50392SOL    HW153073  10.470   5.666   3.242
50392SOL    HW253074  10.359   5.736   3.318
50393SOL     OW53075   2.502   6.015   5.063
50393SOL    HW153076   2.549   6.094   5.089
50393SOL    HW253077   2.411   6.042   5.054
50394SOL     OW53078   6.096   1.729   8.023
50394SOL    HW153079   6.095   1.690   8.110
50394SOL    HW253080   6.174   1.693   7.981
50395SOL     OW53081   0.452   8.734   6.065
50395SOL    HW153082   0.427   8.708   5.976
50395SOL    HW253083   0.493   8.656   6.102
50396SOL     OW53084   5.517  13.580  14.463
50396SOL    HW153085   5.597  13.558  14.510
50396SOL    HW253086   5.472  13.642  14.521
50397SOL     OW53087   2.364   9.824  11.499
50397SOL    HW153088   2.396   9.740  11.468
50397SOL    HW253089   2.342   9.872  11.419
50398SOL     OW53090   2.294   3.285  14.000
50398SOL    HW153091   2.250   3.293  13.915
50398SOL    HW253092   2.381   3.252  13.978
50399SOL     OW53093  11.190  12.300  10.090
50399SOL    HW153094  11.132  12.314  10.015
50399SOL    HW253095  11.175  12.208  10.115
50400SOL     OW53096   4.867   7.190   3.145
50400SOL    HW153097   4.885   7.231   3.060
50400SOL    HW253098   4.834   7.261   3.200
50401SOL     OW53099   9.399   3.115   4.902
50401SOL    HW153100   9.424   3.174   4.831
50401SOL    HW253101   9.303   3.110   4.896
50402SOL     OW53102  12.079   8.616   3.746
50402SOL    HW153103  12.076   8.550   3.816
50402SOL    HW253104  12.064   8.699   3.790
50403SOL     OW53105   4.812   3.286  12.555
50403SOL    HW153106   4.907   3.281  12.544
50403SOL    HW253107   4.779   3.298  12.465
50404SOL     OW53108   3.218  12.870  14.101
50404SOL    HW153109   3.290  12.873  14.039
50404SOL    HW253110   3.221  12.955  14.146
50405SOL     OW53111  12.713  10.757  12.387
50405SOL    HW153112  12.693  10.780  12.478
50405SOL    HW253113  12.773  10.825  12.358
50406SOL     OW53114  12.938   4.168   8.463
50406SOL    HW153115  13.019   4.116   8.463
50406SOL    HW253116  12.966   4.255   8.435
50407SOL     OW53117   4.891   8.449   7.550
50407SOL    HW153118   4.896   8.451   7.645
50407SOL    HW253119   4.804   8.414   7.531
50408SOL     OW53120   2.244   7.553   9.619
50408SOL    HW153121   2.337   7.531   9.608
50408SOL    HW253122   2.214   7.571   9.530
50409SOL     OW53123  12.403   0.053   9.879
50409SOL    HW153124  12.413   0.097   9.963
50409SOL    HW253125  12.490   0.022   9.857
50410SOL     OW53126   8.951   1.658   6.647
50410SOL    HW153127   8.990   1.737   6.611
50410SOL    HW253128   8.906   1.616   6.573
50411SOL     OW53129   1.781  14.857   1.256
50411SOL    HW153130   1.759   0.073   1.261
50411SOL    HW253131   1.789  14.840   1.162
50412SOL     OW53132  11.910  12.049   9.062
50412SOL    HW153133  11.836  12.105   9.083
50412SOL    HW253134  11.968  12.057   9.137
50413SOL     OW53135   5.337   3.837   2.228
50413SOL    HW153136   5.412   3.847   2.287
50413SOL    HW253137   5.265   3.808   2.285
50414SOL     OW53138   2.947   3.395   4.728
50414SOL    HW153139   3.002   3.316   4.736
50414SOL    HW253140   2.990   3.459   4.785
50415SOL     OW53141  10.870   1.581  11.672
50415SOL    HW153142  10.837   1.547  11.755
50415SOL    HW253143  10.797   1.633  11.638
50416SOL     OW53144  14.069   3.659   1.494
50416SOL    HW153145  14.046   3.613   1.575
50416SOL    HW253146  13.986   3.676   1.451
50417SOL     OW53147   4.162  10.409  13.824
50417SOL    HW153148   4.160  10.354  13.903
50417SOL    HW253149   4.079  10.389  13.780
50418SOL     OW53150   7.660   1.419   1.359
50418SOL    HW153151   7.605   1.495   1.381
50418SOL    HW253152   7.600   1.344   1.362
50419SOL     OW53153   8.911   7.911   3.826
50419SOL    HW153154   8.821   7.908   3.860
50419SOL    HW253155   8.935   7.820   3.815
50420SOL     OW53156  13.729  10.053  10.335
50420SOL    HW153157  13.782  10.120  10.292
50420SOL    HW253158  13.723  10.081  10.426
50421SOL     OW53159   8.614   7.821   2.383
50421SOL    HW153160   8.538   7.837   2.328
50421SOL    HW253161   8.637   7.906   2.419
50422SOL     OW53162   4.753  11.758   6.270
50422SOL    HW153163   4.756  11.665   6.247
50422SOL    HW253164   4.690  11.763   6.342
50423SOL     OW53165   1.569  10.036   1.674
50423SOL    HW153166   1.605   9.959   1.631
50423SOL    HW253167   1.594  10.025   1.766
50424SOL     OW53168   1.951   8.273   3.591
50424SOL    HW153169   1.995   8.223   3.522
50424SOL    HW253170   1.967   8.222   3.671
50425SOL     OW53171   0.954   3.670   7.553
50425SOL    HW153172   0.902   3.703   7.626
50425SOL    HW253173   0.890   3.637   7.490
50426SOL     OW53174   0.053   2.274  13.807
50426SOL    HW153175   0.103   2.303  13.884
50426SOL    HW253176   0.083   2.184  13.792
50427SOL     OW53177   8.803   8.646   0.199
50427SOL    HW153178   8.725   8.621   0.249
50427SOL    HW253179   8.771   8.664   0.111
50428SOL     OW53180   2.513  10.077   0.120
50428SOL    HW153181   2.572  10.069   0.045
50428SOL    HW253182   2.478  10.166   0.113
50429SOL     OW53183  11.549  11.587   9.449
50429SOL    HW153184  11.625  11.596   9.391
50429SOL    HW253185  11.547  11.670   9.497
50430SOL     OW53186   8.674  11.877   9.554
50430SOL    HW153187   8.579  11.873   9.558
50430SOL    HW253188   8.693  11.965   9.518
50431SOL     OW53189   2.666  13.062   2.384
50431SOL    HW153190   2.727  13.060   2.458
50431SOL    HW253191   2.696  12.993   2.325
50432SOL     OW53192   7.369  14.785  11.448
50432SOL    HW153193   7.299  14.835  11.407
50432SOL    HW253194   7.327  14.738  11.520
50433SOL     OW53195   1.745   2.020   1.101
50433SOL    HW153196   1.771   1.953   1.164
50433SOL    HW253197   1.781   2.102   1.136
50434SOL     OW53198  14.276   0.142  12.381
50434SOL    HW153199  14.293   0.191  12.461
50434SOL    HW253200  14.216   0.198  12.331
50435SOL     OW53201   6.444   3.122   0.958
50435SOL    HW153202   6.489   3.044   0.990
50435SOL    HW253203   6.473   3.132   0.868
50436SOL     OW53204   0.327   1.164   0.556
50436SOL    HW153205   0.412   1.121   0.569
50436SOL    HW253206   0.277   1.101   0.503
50437SOL     OW53207   2.520  11.203   0.254
50437SOL    HW153208   2.451  11.136   0.253
50437SOL    HW253209   2.514  11.245   0.168
50438SOL     OW53210   2.115   2.259   5.387
50438SOL    HW153211   2.089   2.347   5.359
50438SOL    HW253212   2.118   2.264   5.482
50439SOL     OW53213  10.565  12.727   0.435
50439SOL    HW153214  10.515  12.718   0.516
50439SOL    HW253215  10.604  12.640   0.422
50440SOL     OW53216   3.342   0.422   3.343
50440SOL    HW153217   3.313   0.469   3.421
50440SOL    HW253218   3.347   0.330   3.371
50441SOL     OW53219  10.375  14.557   4.229
50441SOL    HW153220  10.323  14.590   4.303
50441SOL    HW253221  10.312  14.547   4.158
50442SOL     OW53222   3.303   8.103   5.462
50442SOL    HW153223   3.252   8.181   5.444
50442SOL    HW253224   3.296   8.090   5.556
50443SOL     OW53225  11.704   2.619   1.995
50443SOL    HW153226  11.733   2.672   1.921
50443SOL    HW253227  11.656   2.679   2.052
50444SOL     OW53228   8.450  11.485  14.297
50444SOL    HW153229   8.389  11.510  14.367
50444SOL    HW253230   8.446  11.389  14.295
50445SOL     OW53231   4.491  10.093   4.224
50445SOL    HW153232   4.459  10.149   4.153
50445SOL    HW253233   4.586  10.103   4.222
50446SOL     OW53234   6.267   0.534   0.143
50446SOL    HW153235   6.193   0.483   0.110
50446SOL    HW253236   6.227   0.612   0.180
50447SOL     OW53237   5.114   3.856  12.379
50447SOL    HW153238   5.178   3.845  12.309
50447SOL    HW253239   5.087   3.767  12.401
50448SOL     OW53240   4.109  12.729  10.352
50448SOL    HW153241   4.125  12.823  10.338
50448SOL    HW253242   4.133  12.688  10.269
50449SOL     OW53243   6.969  12.776   9.175
50449SOL    HW153244   6.995  12.809   9.089
50449SOL    HW253245   6.953  12.683   9.161
50450SOL     OW53246   3.347  13.590  11.153
50450SOL    HW153247   3.276  13.561  11.211
50450SOL    HW253248   3.303  13.626  11.077
50451SOL     OW53249   1.484   0.270   4.052
50451SOL    HW153250   1.420   0.203   4.030
50451SOL    HW253251   1.565   0.221   4.070
50452SOL     OW53252   4.573   6.081  14.801
50452SOL    HW153253   4.572   6.017  14.730
50452SOL    HW253254   4.653   6.132  14.786
50453SOL     OW53255   7.399   5.579   9.196
50453SOL    HW153256   7.483   5.592   9.240
50453SOL    HW253257   7.378   5.664   9.157
50454SOL     OW53258   0.091   4.950  12.794
50454SOL    HW153259   0.030   4.977  12.862
50454SOL    HW253260   0.087   5.020  12.729
50455SOL     OW53261  14.840   6.301  12.567
50455SOL    HW153262   0.033   6.365  12.566
50455SOL    HW253263   0.001   6.224  12.610
50456SOL     OW53264  14.868   8.549  11.553
50456SOL    HW153265  14.831   8.535  11.466
50456SOL    HW253266  14.838   8.474  11.604
50457SOL     OW53267  11.253   7.566  10.831
50457SOL    HW153268  11.183   7.631  10.841
50457SOL    HW253269  11.310   7.602  10.764
50458SOL     OW53270  13.816  10.538  13.450
50458SOL    HW153271  13.723  10.539  13.472
50458SOL    HW253272  13.821  10.494  13.366
50459SOL     OW53273  14.806  14.284  14.621
50459SOL    HW153274  14.861  14.359  14.642
50459SOL    HW253275  14.808  14.229  14.699
50460SOL     OW53276   9.371   2.606   0.606
50460SOL    HW153277   9.374   2.647   0.693
50460SOL    HW253278   9.417   2.669   0.549
50461SOL     OW53279   7.376   9.624   1.060
50461SOL    HW153280   7.405   9.534   1.074
50461SOL    HW253281   7.346   9.626   0.969
50462SOL     OW53282   9.241  10.951  13.101
50462SOL    HW153283   9.213  11.021  13.042
50462SOL    HW253284   9.301  10.898  13.048
50463SOL     OW53285   7.563   3.565  14.764
50463SOL    HW153286   7.518   3.518  14.694
50463SOL    HW253287   7.494   3.588  14.826
50464SOL     OW53288  12.565   0.584  13.197
50464SOL    HW153289  12.619   0.518  13.154
50464SOL    HW253290  12.556   0.554  13.287
50465SOL     OW53291   0.620   8.456  13.871
50465SOL    HW153292   0.591   8.366  13.886
50465SOL    HW253293   0.669   8.452  13.788
50466SOL     OW53294  14.534   7.117  13.201
50466SOL    HW153295  14.536   7.046  13.137
50466SOL    HW253296  14.491   7.079  13.278
50467SOL     OW53297   6.980   0.083   4.792
50467SOL    HW153298   6.922   0.008   4.806
50467SOL    HW253299   7.067   0.049   4.810
50468SOL     OW53300   1.957   7.606   5.086
50468SOL    HW153301   2.047   7.627   5.062
50468SOL    HW253302   1.917   7.690   5.108
50469SOL     OW53303   9.804   0.469   0.141
50469SOL    HW153304   9.739   0.462   0.072
50469SOL    HW253305   9.833   0.380   0.157
50470SOL     OW53306   9.237   2.065  12.887
50470SOL    HW153307   9.247   1.980  12.928
50470SOL    HW253308   9.225   2.126  12.960
50471SOL     OW53309  12.595   3.998   7.644
50471SOL    HW153310  12.523   4.061   7.634
50471SOL    HW253311  12.625   3.982   7.555
50472SOL     OW53312   2.260  14.440  10.599
50472SOL    HW153313   2.205  14.389  10.541
50472SOL    HW253314   2.333  14.469  10.545
50473SOL     OW53315  10.562   8.741   9.695
50473SOL    HW153316  10.636   8.691   9.661
50473SOL    HW253317  10.596   8.784   9.773
50474SOL     OW53318  12.104  14.629   4.220
50474SOL    HW153319  12.194  14.605   4.200
50474SOL    HW253320  12.052  14.589   4.150
50475SOL     OW53321   6.995   3.731   4.491
50475SOL    HW153322   7.083   3.692   4.482
50475SOL    HW253323   6.961   3.731   4.401
50476SOL     OW53324   0.001  14.631  12.190
50476SOL    HW153325  14.830  14.672  12.118
50476SOL    HW253326   0.036  14.550  12.153
50477SOL     OW53327   9.705  11.548   5.104
50477SOL    HW153328   9.621  11.508   5.127
50477SOL    HW253329   9.684  11.609   5.033
50478SOL     OW53330  10.246  12.717   7.362
50478SOL    HW153331  10.166  12.767   7.345
50478SOL    HW253332  10.218  12.626   7.359
50479SOL     OW53333   1.144   5.736   9.380
50479SOL    HW153334   1.068   5.701   9.426
50479SOL    HW253335   1.144   5.829   9.400
50480SOL     OW53336  11.652   5.592   5.063
50480SOL    HW153337  11.730   5.568   5.012
50480SOL    HW253338  11.624   5.675   5.025
50481SOL     OW53339  10.578   1.191   2.183
50481SOL    HW153340  10.597   1.270   2.235
50481SOL    HW253341  10.590   1.119   2.244
50482SOL     OW53342  10.330   6.687   3.970
50482SOL    HW153343  10.342   6.776   4.002
50482SOL    HW253344  10.236   6.680   3.952
50483SOL     OW53345   7.249   2.254   8.242
50483SOL    HW153346   7.292   2.328   8.285
50483SOL    HW253347   7.318   2.189   8.232
50484SOL     OW53348  14.062   8.496   9.612
50484SOL    HW153349  14.089   8.552   9.539
50484SOL    HW253350  13.972   8.524   9.631
50485SOL     OW53351  12.083  12.885  13.288
50485SOL    HW153352  12.065  12.808  13.343
50485SOL    HW253353  12.040  12.865  13.205
50486SOL     OW53354   3.274  13.118   2.968
50486SOL    HW153355   3.229  13.041   3.001
50486SOL    HW253356   3.204  13.174   2.935
50487SOL     OW53357   9.436  12.109   3.734
50487SOL    HW153358   9.465  12.020   3.711
50487SOL    HW253359   9.385  12.097   3.813
50488SOL     OW53360   7.265   5.465  12.316
50488SOL    HW153361   7.252   5.415  12.397
50488SOL    HW253362   7.357   5.492  12.319
50489SOL     OW53363  12.127   6.524   4.973
50489SOL    HW153364  12.115   6.507   4.880
50489SOL    HW253365  12.042   6.503   5.013
50490SOL     OW53366   5.356   9.668   3.799
50490SOL    HW153367   5.433   9.617   3.824
50490SOL    HW253368   5.300   9.604   3.754
50491SOL     OW53369  11.299  12.163   6.861
50491SOL    HW153370  11.384  12.185   6.898
50491SOL    HW253371  11.237  12.177   6.933
50492SOL     OW53372   6.108   9.934   3.150
50492SOL    HW153373   6.165   9.995   3.197
50492SOL    HW253374   6.031   9.985   3.126
50493SOL     OW53375   7.317  11.049   6.335
50493SOL    HW153376   7.406  11.032   6.367
50493SOL    HW253377   7.326  11.055   6.240
50494SOL     OW53378   2.274   7.928   1.456
50494SOL    HW153379   2.264   7.982   1.534
50494SOL    HW253380   2.366   7.940   1.430
50495SOL     OW53381   2.856   9.486   9.398
50495SOL    HW153382   2.836   9.559   9.457
50495SOL    HW253383   2.879   9.414   9.456
50496SOL     OW53384   5.214  12.126  10.639
50496SOL    HW153385   5.260  12.081  10.710
50496SOL    HW253386   5.228  12.071  10.562
50497SOL     OW53387   7.822   4.802   2.168
50497SOL    HW153388   7.858   4.850   2.242
50497SOL    HW253389   7.728   4.820   2.170
50498SOL     OW53390   2.026   1.445   0.073
50498SOL    HW153391   1.998   1.451  14.859
50498SOL    HW253392   2.059   1.356   0.082
50499SOL     OW53393  10.940   5.149  10.972
50499SOL    HW153394  10.980   5.063  10.964
50499SOL    HW253395  10.877   5.153  10.901
50500SOL     OW53396   1.640  12.033   7.139
50500SOL    HW153397   1.624  12.041   7.045
50500SOL    HW253398   1.700  12.105   7.159
50501SOL     OW53399  13.384   3.406   0.588
50501SOL    HW153400  13.429   3.486   0.615
50501SOL    HW253401  13.349   3.426   0.501
50502SOL     OW53402  11.165   3.392   5.620
50502SOL    HW153403  11.215   3.358   5.695
50502SOL    HW253404  11.222   3.458   5.581
50503SOL     OW53405   6.427   0.034   2.885
50503SOL    HW153406   6.421  14.816   2.894
50503SOL    HW253407   6.368   0.068   2.952
50504SOL     OW53408   8.525   5.204  12.275
50504SOL    HW153409   8.446   5.183  12.323
50504SOL    HW253410   8.524   5.145  12.199
50505SOL     OW53411  12.542  13.439   0.077
50505SOL    HW153412  12.557  13.521   0.124
50505SOL    HW253413  12.496  13.383   0.140
50506SOL     OW53414   5.499  14.870   2.169
50506SOL    HW153415   5.421   0.007   2.115
50506SOL    HW253416   5.568   0.040   2.123
50507SOL     OW53417   0.809   9.013  13.513
50507SOL    HW153418   0.828   9.079  13.580
50507SOL    HW253419   0.810   9.061  13.430
50508SOL     OW53420  12.183   1.977   2.050
50508SOL    HW153421  12.180   1.892   2.094
50508SOL    HW253422  12.272   1.981   2.014
50509SOL     OW53423   9.926  13.646  10.973
50509SOL    HW153424   9.889  13.593  10.902
50509SOL    HW253425   9.880  13.730  10.967
50510SOL     OW53426   7.655   8.612   4.699
50510SOL    HW153427   7.631   8.569   4.616
50510SOL    HW253428   7.741   8.650   4.681
50511SOL     OW53429   6.960  13.431   7.563
50511SOL    HW153430   6.896  13.393   7.623
50511SOL    HW253431   6.975  13.519   7.596
50512SOL     OW53432   0.120   6.646  11.712
50512SOL    HW153433   0.142   6.730  11.671
50512SOL    HW253434   0.157   6.580  11.653
50513SOL     OW53435  13.367   7.800   1.557
50513SOL    HW153436  13.356   7.831   1.467
50513SOL    HW253437  13.327   7.867   1.612
50514SOL     OW53438   5.554   6.515  14.721
50514SOL    HW153439   5.526   6.519  14.630
50514SOL    HW253440   5.616   6.587  14.730
50515SOL     OW53441   6.543   4.727   1.552
50515SOL    HW153442   6.470   4.783   1.527
50515SOL    HW253443   6.603   4.731   1.478
50516SOL     OW53444   7.428  11.598  10.922
50516SOL    HW153445   7.360  11.615  10.987
50516SOL    HW253446   7.510  11.599  10.971
50517SOL     OW53447   1.817   2.279   5.519
50517SOL    HW153448   1.784   2.318   5.438
50517SOL    HW253449   1.769   2.324   5.589
50518SOL     OW53450   1.311   5.131   4.731
50518SOL    HW153451   1.391   5.087   4.701
50518SOL    HW253452   1.306   5.111   4.824
50519SOL     OW53453  12.916   8.440  10.706
50519SOL    HW153454  12.915   8.526  10.748
50519SOL    HW253455  12.959   8.383  10.770
50520SOL     OW53456  13.880   1.540   4.175
50520SOL    HW153457  13.792   1.532   4.212
50520SOL    HW253458  13.871   1.606   4.106
50521SOL     OW53459  10.387   2.761   0.878
50521SOL    HW153460  10.356   2.799   0.960
50521SOL    HW253461  10.481   2.745   0.892
50522SOL     OW53462   4.267   2.615   6.904
50522SOL    HW153463   4.275   2.531   6.950
50522SOL    HW253464   4.356   2.650   6.905
50523SOL     OW53465  11.249   6.292   3.750
50523SOL    HW153466  11.206   6.361   3.802
50523SOL    HW253467  11.222   6.211   3.793
50524SOL     OW53468   9.717  13.268   1.986
50524SOL    HW153469   9.738  13.298   2.075
50524SOL    HW253470   9.643  13.322   1.960
50525SOL     OW53471   7.626  10.601   8.991
50525SOL    HW153472   7.692  10.584   9.059
50525SOL    HW253473   7.619  10.696   8.989
50526SOL     OW53474   9.792   5.752   1.632
50526SOL    HW153475   9.802   5.731   1.725
50526SOL    HW253476   9.872   5.799   1.610
50527SOL     OW53477   5.821   5.591  14.130
50527SOL    HW153478   5.874   5.524  14.086
50527SOL    HW253479   5.763   5.541  14.188
50528SOL     OW53480  12.861   6.096   3.521
50528SOL    HW153481  12.945   6.118   3.560
50528SOL    HW253482  12.798   6.105   3.593
50529SOL     OW53483   9.613   7.982   0.033
50529SOL    HW153484   9.561   7.907   0.063
50529SOL    HW253485   9.548   8.050   0.015
50530SOL     OW53486  13.129   6.082   2.880
50530SOL    HW153487  13.093   6.132   2.953
50530SOL    HW253488  13.086   6.118   2.803
50531SOL     OW53489  14.813   5.842   9.823
50531SOL    HW153490  14.744   5.826   9.758
50531SOL    HW253491  14.777   5.907   9.882
50532SOL     OW53492   7.453  13.344  12.091
50532SOL    HW153493   7.359  13.355  12.076
50532SOL    HW253494   7.493  13.422  12.052
50533SOL     OW53495  11.108  10.039  11.543
50533SOL    HW153496  11.044  10.081  11.486
50533SOL    HW253497  11.121  10.101  11.615
50534SOL     OW53498  12.743  12.533   4.031
50534SOL    HW153499  12.703  12.464   3.978
50534SOL    HW253500  12.837  12.514   4.029
50535SOL     OW53501  13.663  13.281   5.810
50535SOL    HW153502  13.665  13.353   5.872
50535SOL    HW253503  13.581  13.236   5.828
50536SOL     OW53504   0.791   0.959  13.227
50536SOL    HW153505   0.745   0.877  13.206
50536SOL    HW253506   0.884   0.936  13.226
50537SOL     OW53507   0.727  14.753  10.898
50537SOL    HW153508   0.695  14.670  10.863
50537SOL    HW253509   0.819  14.736  10.921
50538SOL     OW53510   4.662  12.207  10.433
50538SOL    HW153511   4.704  12.154  10.500
50538SOL    HW253512   4.679  12.298  10.460
50539SOL     OW53513  10.256   5.088   2.783
50539SOL    HW153514  10.218   5.130   2.860
50539SOL    HW253515  10.183   5.077   2.723
50540SOL     OW53516  11.673   9.023   6.213
50540SOL    HW153517  11.726   9.089   6.168
50540SOL    HW253518  11.711   8.940   6.187
50541SOL     OW53519  10.929  13.770   3.629
50541SOL    HW153520  10.899  13.859   3.609
50541SOL    HW253521  10.900  13.755   3.719
50542SOL     OW53522  11.976   6.478   0.879
50542SOL    HW153523  11.978   6.574   0.886
50542SOL    HW253524  11.885   6.458   0.859
50543SOL     OW53525   8.855  13.680   2.350
50543SOL    HW153526   8.919  13.662   2.419
50543SOL    HW253527   8.896  13.747   2.295
50544SOL     OW53528   2.384  12.022   8.358
50544SOL    HW153529   2.382  11.951   8.294
50544SOL    HW253530   2.315  12.082   8.330
50545SOL     OW53531   5.306  10.984   0.073
50545SOL    HW153532   5.265  10.930   0.005
50545SOL    HW253533   5.336  10.921   0.139
50546SOL     OW53534  10.405  12.643   0.613
50546SOL    HW153535  10.351  12.570   0.644
50546SOL    HW253536  10.471  12.654   0.681
50547SOL     OW53537   4.892  12.371   2.398
50547SOL    HW153538   4.972  12.318   2.395
50547SOL    HW253539   4.827  12.317   2.352
50548SOL     OW53540   0.090  14.000  11.009
50548SOL    HW153541   0.148  14.049  10.951
50548SOL    HW253542   0.083  13.913  10.969
50549SOL     OW53543   2.429  14.516   7.497
50549SOL    HW153544   2.385  14.596   7.469
50549SOL    HW253545   2.497  14.545   7.558
50550SOL     OW53546  12.713  14.057   4.097
50550SOL    HW153547  12.643  14.010   4.053
50550SOL    HW253548  12.720  14.016   4.183
50551SOL     OW53549   6.514   9.784   5.512
50551SOL    HW153550   6.564   9.816   5.436
50551SOL    HW253551   6.581   9.749   5.571
50552SOL     OW53552   5.286  12.583   0.420
50552SOL    HW153553   5.243  12.608   0.501
50552SOL    HW253554   5.247  12.639   0.353
50553SOL     OW53555   4.989   6.840   1.555
50553SOL    HW153556   5.011   6.750   1.581
50553SOL    HW253557   5.067   6.891   1.575
50554SOL     OW53558   3.017  13.682   1.111
50554SOL    HW153559   3.015  13.649   1.201
50554SOL    HW253560   3.110  13.682   1.087
50555SOL     OW53561   3.203   6.520   2.089
50555SOL    HW153562   3.145   6.444   2.082
50555SOL    HW253563   3.208   6.555   2.000
50556SOL     OW53564  11.014   2.904   5.510
50556SOL    HW153565  11.086   2.959   5.479
50556SOL    HW253566  11.026   2.821   5.464
50557SOL     OW53567  10.973   4.349   8.681
50557SOL    HW153568  10.923   4.316   8.757
50557SOL    HW253569  11.065   4.335   8.705
50558SOL     OW53570   3.491   1.001  12.228
50558SOL    HW153571   3.426   1.050  12.278
50558SOL    HW253572   3.570   1.005  12.281
50559SOL     OW53573  13.263   7.988  13.294
50559SOL    HW153574  13.235   8.073  13.327
50559SOL    HW253575  13.358   7.988  13.305
50560SOL     OW53576   9.293   3.184  10.805
50560SOL    HW153577   9.205   3.179  10.766
50560SOL    HW253578   9.277   3.184  10.899
50561SOL     OW53579   6.200   8.690   4.243
50561SOL    HW153580   6.138   8.635   4.290
50561SOL    HW253581   6.161   8.702   4.156
50562SOL     OW53582   7.377   1.617   0.443
50562SOL    HW153583   7.396   1.531   0.404
50562SOL    HW253584   7.452   1.637   0.498
50563SOL     OW53585   9.347   6.236   0.555
50563SOL    HW153586   9.331   6.321   0.513
50563SOL    HW253587   9.270   6.184   0.534
50564SOL     OW53588   7.777  13.912  10.494
50564SOL    HW153589   7.769  13.961  10.412
50564SOL    HW253590   7.806  13.825  10.467
50565SOL     OW53591   6.252  11.582   2.361
50565SOL    HW153592   6.159  11.567   2.382
50565SOL    HW253593   6.272  11.516   2.295
50566SOL     OW53594   8.192   9.507   4.337
50566SOL    HW153595   8.143   9.573   4.287
50566SOL    HW253596   8.215   9.552   4.419
50567SOL     OW53597  14.352   1.874   0.050
50567SOL    HW153598  14.319   1.944   0.107
50567SOL    HW253599  14.343   1.908  14.839
50568SOL     OW53600   6.316   2.955   8.004
50568SOL    HW153601   6.360   2.871   7.997
50568SOL    HW253602   6.344   3.004   7.926
50569SOL     OW53603  13.799   9.294   7.092
50569SOL    HW153604  13.882   9.255   7.116
50569SOL    HW253605  13.811   9.388   7.107
50570SOL     OW53606  12.509   8.092   3.267
50570SOL    HW153607  12.495   8.053   3.353
50570SOL    HW253608  12.457   8.037   3.208
50571SOL     OW53609   7.707  14.522   8.731
50571SOL    HW153610   7.745  14.586   8.671
50571SOL    HW253611   7.655  14.575   8.792
50572SOL     OW53612   8.236   1.035   8.182
50572SOL    HW153613   8.238   1.041   8.087
50572SOL    HW253614   8.202   0.948   8.200
50573SOL     OW53615  12.103   0.815   7.124
50573SOL    HW153616  12.140   0.833   7.210
50573SOL    HW253617  12.034   0.880   7.113
50574SOL     OW53618   1.947  12.488   9.794
50574SOL    HW153619   1.857  12.480   9.764
50574SOL    HW253620   1.940  12.516   9.885
50575SOL     OW53621   2.970   1.655   1.526
50575SOL    HW153622   2.906   1.673   1.596
50575SOL    HW253623   2.993   1.742   1.493
50576SOL     OW53624  11.026   4.104   4.479
50576SOL    HW153625  10.982   4.186   4.459
50576SOL    HW253626  10.983   4.072   4.558
50577SOL     OW53627  13.231  11.976  11.286
50577SOL    HW153628  13.248  11.926  11.206
50577SOL    HW253629  13.318  11.998  11.319
50578SOL     OW53630   6.020  14.365   6.607
50578SOL    HW153631   6.092  14.379   6.670
50578SOL    HW253632   5.949  14.328   6.660
50579SOL     OW53633   6.879   1.368  12.772
50579SOL    HW153634   6.843   1.315  12.701
50579SOL    HW253635   6.812   1.434  12.788
50580SOL     OW53636  13.489  10.378   8.240
50580SOL    HW153637  13.416  10.421   8.196
50580SOL    HW253638  13.450  10.330   8.313
50581SOL     OW53639  11.104   1.153   3.101
50581SOL    HW153640  11.172   1.122   3.161
50581SOL    HW253641  11.025   1.106   3.126
50582SOL     OW53642   6.501  12.408   6.716
50582SOL    HW153643   6.595  12.409   6.700
50582SOL    HW253644   6.493  12.384   6.808
50583SOL     OW53645  14.456  13.174   3.395
50583SOL    HW153646  14.471  13.083   3.370
50583SOL    HW253647  14.535  13.220   3.365
50584SOL     OW53648  11.565  10.016   4.873
50584SOL    HW153649  11.642   9.960   4.873
50584SOL    HW253650  11.593  10.096   4.829
50585SOL     OW53651   9.250  12.172  11.500
50585SOL    HW153652   9.207  12.214  11.425
50585SOL    HW253653   9.334  12.218  11.508
50586SOL     OW53654  12.175  13.630  10.074
50586SOL    HW153655  12.128  13.583  10.143
50586SOL    HW253656  12.161  13.722  10.095
50587SOL     OW53657   7.371   9.243   5.779
50587SOL    HW153658   7.340   9.330   5.806
50587SOL    HW253659   7.406   9.258   5.691
50588SOL     OW53660  10.570  14.546   9.918
50588SOL    HW153661  10.496  14.486   9.924
50588SOL    HW253662  10.632  14.502   9.861
50589SOL     OW53663   9.726   2.390   3.063
50589SOL    HW153664   9.792   2.329   3.031
50589SOL    HW253665   9.695   2.435   2.984
50590SOL     OW53666  11.110  10.591   6.616
50590SOL    HW153667  11.128  10.584   6.710
50590SOL    HW253668  11.014  10.600   6.611
50591SOL     OW53669   2.741   7.062   6.240
50591SOL    HW153670   2.679   7.074   6.168
50591SOL    HW253671   2.717   7.130   6.304
50592SOL     OW53672   6.602   0.815  11.072
50592SOL    HW153673   6.542   0.745  11.048
50592SOL    HW253674   6.580   0.887  11.013
50593SOL     OW53675   2.605   1.084  10.207
50593SOL    HW153676   2.548   1.052  10.138
50593SOL    HW253677   2.592   1.179  10.207
50594SOL     OW53678   5.691   0.160   6.817
50594SOL    HW153679   5.750   0.171   6.742
50594SOL    HW253680   5.740   0.105   6.878
50595SOL     OW53681   7.145   0.884   6.937
50595SOL    HW153682   7.051   0.890   6.950
50595SOL    HW253683   7.177   0.974   6.944
50596SOL     OW53684   2.388  11.820  13.249
50596SOL    HW153685   2.301  11.801  13.214
50596SOL    HW253686   2.439  11.742  13.228
50597SOL     OW53687   6.659   5.246   7.805
50597SOL    HW153688   6.720   5.200   7.748
50597SOL    HW253689   6.678   5.339   7.792
50598SOL     OW53690   1.525  13.384   1.173
50598SOL    HW153691   1.457  13.440   1.138
50598SOL    HW253692   1.536  13.412   1.264
50599SOL     OW53693  13.554  13.270   1.518
50599SOL    HW153694  13.561  13.364   1.499
50599SOL    HW253695  13.482  13.263   1.580
50600SOL     OW53696   6.386   2.019   3.281
50600SOL    HW153697   6.420   1.999   3.368
50600SOL    HW253698   6.324   1.948   3.263
50601SOL     OW53699   7.967   9.364   6.829
50601SOL    HW153700   7.896   9.420   6.799
50601SOL    HW253701   7.924   9.294   6.878
50602SOL     OW53702   3.054   6.362   5.193
50602SOL    HW153703   3.017   6.324   5.273
50602SOL    HW253704   3.042   6.295   5.126
50603SOL     OW53705  13.683  11.237   5.890
50603SOL    HW153706  13.698  11.310   5.950
50603SOL    HW253707  13.631  11.274   5.819
50604SOL     OW53708  14.495   3.202   3.541
50604SOL    HW153709  14.583   3.175   3.569
50604SOL    HW253710  14.482   3.287   3.584
50605SOL     OW53711   0.413   1.221   6.195
50605SOL    HW153712   0.414   1.180   6.109
50605SOL    HW253713   0.331   1.192   6.235
50606SOL     OW53714  11.548  14.445   1.756
50606SOL    HW153715  11.565  14.357   1.789
50606SOL    HW253716  11.532  14.498   1.834
50607SOL     OW53717   0.945   9.737  12.513
50607SOL    HW153718   0.875   9.724  12.450
50607SOL    HW253719   0.905   9.724  12.599
50608SOL     OW53720   3.737  13.242  10.823
50608SOL    HW153721   3.642  13.251  10.828
50608SOL    HW253722   3.769  13.332  10.807
50609SOL     OW53723  13.713   5.674   0.072
50609SOL    HW153724  13.778   5.744   0.079
50609SOL    HW253725  13.710   5.654  14.856
50610SOL     OW53726   8.342   8.350   4.069
50610SOL    HW153727   8.396   8.425   4.043
50610SOL    HW253728   8.391   8.274   4.039
50611SOL     OW53729   8.396   4.895  12.113
50611SOL    HW153730   8.466   4.959  12.101
50611SOL    HW253731   8.334   4.913  12.043
50612SOL     OW53732  10.268   8.220  11.686
50612SOL    HW153733  10.271   8.302  11.736
50612SOL    HW253734  10.179   8.187  11.699
50613SOL     OW53735   0.549   8.560   9.566
50613SOL    HW153736   0.611   8.610   9.512
50613SOL    HW253737   0.538   8.612   9.645
50614SOL     OW53738   0.359   3.863   1.580
50614SOL    HW153739   0.268   3.839   1.565
50614SOL    HW253740   0.367   3.951   1.542
50615SOL     OW53741  14.778   3.040   6.667
50615SOL    HW153742  14.860   3.008   6.703
50615SOL    HW253743  14.711   3.012   6.730
50616SOL     OW53744   9.792   4.192   5.982
50616SOL    HW153745   9.780   4.230   6.069
50616SOL    HW253746   9.859   4.247   5.940
50617SOL     OW53747   1.354   7.825   7.684
50617SOL    HW153748   1.343   7.912   7.645
50617SOL    HW253749   1.449   7.811   7.683
50618SOL     OW53750  13.921   1.092   4.521
50618SOL    HW153751  13.876   1.158   4.574
50618SOL    HW253752  14.012   1.121   4.520
50619SOL     OW53753   0.474   3.394  14.296
50619SOL    HW153754   0.383   3.415  14.316
50619SOL    HW253755   0.494   3.448  14.220
50620SOL     OW53756  13.447   1.041   9.260
50620SOL    HW153757  13.453   0.955   9.302
50620SOL    HW253758  13.421   1.023   9.170
50621SOL     OW53759  14.354   5.731   2.986
50621SOL    HW153760  14.401   5.813   2.970
50621SOL    HW253761  14.415   5.663   2.958
50622SOL     OW53762   6.805   7.350  12.614
50622SOL    HW153763   6.777   7.442  12.613
50622SOL    HW253764   6.850   7.338  12.531
50623SOL     OW53765  10.502   0.928   9.834
50623SOL    HW153766  10.590   0.913   9.870
50623SOL    HW253767  10.518   0.961   9.746
50624SOL     OW53768  11.337   2.976  14.797
50624SOL    HW153769  11.413   2.986  14.854
50624SOL    HW253770  11.373   2.950  14.712
50625SOL     OW53771   0.553  14.563   1.614
50625SOL    HW153772   0.558  14.522   1.700
50625SOL    HW253773   0.461  14.585   1.602
50626SOL     OW53774   5.449   4.545   9.744
50626SOL    HW153775   5.390   4.586   9.680
50626SOL    HW253776   5.521   4.607   9.753
50627SOL     OW53777  14.532   8.271  13.141
50627SOL    HW153778  14.463   8.244  13.079
50627SOL    HW253779  14.488   8.331  13.201
50628SOL     OW53780   2.217  11.827  11.738
50628SOL    HW153781   2.281  11.757  11.751
50628SOL    HW253782   2.268  11.908  11.739
50629SOL     OW53783  12.019   8.723  10.788
50629SOL    HW153784  11.969   8.749  10.866
50629SOL    HW253785  11.954   8.684  10.730
50630SOL     OW53786   9.055  11.781   4.898
50630SOL    HW153787   9.120  11.746   4.837
50630SOL    HW253788   8.993  11.829   4.842
50631SOL     OW53789  14.190  13.585  11.584
50631SOL    HW153790  14.139  13.622  11.513
50631SOL    HW253791  14.191  13.491  11.567
50632SOL     OW53792   6.525  14.200   4.192
50632SOL    HW153793   6.500  14.259   4.121
50632SOL    HW253794   6.465  14.222   4.264
50633SOL     OW53795  11.924   2.042   4.646
50633SOL    HW153796  11.983   2.112   4.617
50633SOL    HW253797  11.980   1.964   4.652
50634SOL     OW53798   2.765  13.944   1.265
50634SOL    HW153799   2.854  13.974   1.250
50634SOL    HW253800   2.742  13.896   1.185
50635SOL     OW53801  11.661   6.008   9.866
50635SOL    HW153802  11.615   6.076   9.915
50635SOL    HW253803  11.618   5.926   9.891
50636SOL     OW53804   5.492  10.232   1.063
50636SOL    HW153805   5.543  10.299   1.017
50636SOL    HW253806   5.512  10.151   1.015
50637SOL     OW53807   4.882   0.313  12.065
50637SOL    HW153808   4.927   0.237  12.027
50637SOL    HW253809   4.905   0.310  12.158
50638SOL     OW53810  10.737   1.850   6.963
50638SOL    HW153811  10.791   1.801   6.902
50638SOL    HW253812  10.774   1.938   6.963
50639SOL     OW53813   4.799   0.588   1.072
50639SOL    HW153814   4.864   0.521   1.051
50639SOL    HW253815   4.717   0.552   1.038
50640SOL     OW53816   7.517   7.988   6.070
50640SOL    HW153817   7.577   8.054   6.036
50640SOL    HW253818   7.482   8.027   6.150
50641SOL     OW53819  11.648  13.204   6.356
50641SOL    HW153820  11.580  13.161   6.407
50641SOL    HW253821  11.620  13.196   6.265
50642SOL     OW53822  12.909   4.969  12.980
50642SOL    HW153823  12.906   4.892  13.038
50642SOL    HW253824  12.922   4.932  12.893
50643SOL     OW53825  10.465   7.540   4.343
50643SOL    HW153826  10.495   7.539   4.252
50643SOL    HW253827  10.463   7.633   4.367
50644SOL     OW53828  12.455   2.418   3.846
50644SOL    HW153829  12.504   2.349   3.801
50644SOL    HW253830  12.387   2.445   3.784
50645SOL     OW53831   3.665  14.780  10.395
50645SOL    HW153832   3.687  14.701  10.345
50645SOL    HW253833   3.613  14.833  10.335
50646SOL     OW53834  13.776  12.212   3.756
50646SOL    HW153835  13.688  12.208   3.793
50646SOL    HW253836  13.783  12.132   3.703
50647SOL     OW53837  12.473   4.863   4.299
50647SOL    HW153838  12.448   4.931   4.236
50647SOL    HW253839  12.556   4.830   4.265
50648SOL     OW53840   7.033   9.248   9.169
50648SOL    HW153841   6.981   9.204   9.236
50648SOL    HW253842   7.116   9.267   9.213
50649SOL     OW53843  11.050   3.235   7.851
50649SOL    HW153844  11.031   3.314   7.902
50649SOL    HW253845  10.997   3.167   7.892
50650SOL     OW53846   4.734   7.634   6.526
50650SOL    HW153847   4.828   7.647   6.535
50650SOL    HW253848   4.698   7.662   6.610
50651SOL     OW53849   2.515  13.411   1.541
50651SOL    HW153850   2.500  13.496   1.583
50651SOL    HW253851   2.433  13.363   1.553
50652SOL     OW53852   3.589   5.616   2.311
50652SOL    HW153853   3.503   5.573   2.315
50652SOL    HW253854   3.578   5.689   2.251
50653SOL     OW53855  13.476   1.679   8.676
50653SOL    HW153856  13.463   1.584   8.668
50653SOL    HW253857  13.441   1.715   8.595
50654SOL     OW53858   3.360   4.422   4.648
50654SOL    HW153859   3.318   4.481   4.585
50654SOL    HW253860   3.354   4.335   4.607
50655SOL     OW53861  10.247   0.220   6.177
50655SOL    HW153862  10.200   0.281   6.234
50655SOL    HW253863  10.234   0.135   6.218
50656SOL     OW53864  12.989   2.934   9.200
50656SOL    HW153865  13.063   2.994   9.203
50656SOL    HW253866  12.914   2.989   9.178
50657SOL     OW53867   7.232  11.095   7.590
50657SOL    HW153868   7.314  11.084   7.542
50657SOL    HW253869   7.260  11.123   7.678
50658SOL     OW53870  14.809   4.492  12.602
50658SOL    HW153871  14.770   4.564  12.652
50658SOL    HW253872  14.738   4.461  12.546
50659SOL     OW53873  12.703   7.600   3.312
50659SOL    HW153874  12.608   7.595   3.325
50659SOL    HW253875  12.724   7.693   3.320
50660SOL     OW53876  13.445  12.676   2.385
50660SOL    HW153877  13.433  12.771   2.381
50660SOL    HW253878  13.540  12.663   2.383
50661SOL     OW53879   7.566   2.058   4.762
50661SOL    HW153880   7.539   2.023   4.847
50661SOL    HW253881   7.530   1.997   4.698
50662SOL     OW53882   5.487   4.812  11.801
50662SOL    HW153883   5.441   4.896  11.799
50662SOL    HW253884   5.543   4.818  11.879
50663SOL     OW53885  10.370   9.495   8.058
50663SOL    HW153886  10.382   9.565   7.994
50663SOL    HW253887  10.336   9.422   8.007
50664SOL     OW53888   0.565  10.553  10.985
50664SOL    HW153889   0.533  10.520  10.901
50664SOL    HW253890   0.489  10.548  11.043
50665SOL     OW53891   0.759  13.920   8.733
50665SOL    HW153892   0.776  14.006   8.772
50665SOL    HW253893   0.668  13.925   8.703
50666SOL     OW53894   0.083  12.646   0.184
50666SOL    HW153895   0.052  12.712   0.246
50666SOL    HW253896   0.020  12.650   0.112
50667SOL     OW53897   1.087   1.004   8.352
50667SOL    HW153898   1.163   1.042   8.396
50667SOL    HW253899   1.045   0.950   8.418
50668SOL     OW53900   3.062   7.074  14.189
50668SOL    HW153901   3.084   6.996  14.238
50668SOL    HW253902   3.067   7.048  14.097
50669SOL     OW53903   2.460   9.610  12.390
50669SOL    HW153904   2.389   9.673  12.378
50669SOL    HW253905   2.534   9.648  12.344
50670SOL     OW53906   7.375   7.465   8.335
50670SOL    HW153907   7.452   7.454   8.391
50670SOL    HW253908   7.320   7.389   8.355
50671SOL     OW53909  11.005   4.703  13.347
50671SOL    HW153910  11.011   4.798  13.338
50671SOL    HW253911  11.026   4.669  13.260
50672SOL     OW53912   1.698   9.209   8.979
50672SOL    HW153913   1.679   9.132   9.033
50672SOL    HW253914   1.769   9.254   9.025
50673SOL     OW53915  10.716   5.571   8.825
50673SOL    HW153916  10.655   5.590   8.896
50673SOL    HW253917  10.691   5.630   8.754
50674SOL     OW53918   7.842   7.879   4.114
50674SOL    HW153919   7.876   7.936   4.182
50674SOL    HW253920   7.886   7.907   4.034
50675SOL     OW53921  11.864  13.148   0.724
50675SOL    HW153922  11.790  13.088   0.712
50675SOL    HW253923  11.824  13.234   0.732
50676SOL     OW53924  11.258  14.791   7.263
50676SOL    HW153925  11.345  14.758   7.242
50676SOL    HW253926  11.258   0.004   7.232
50677SOL     OW53927   9.161   6.665  13.299
50677SOL    HW153928   9.197   6.598  13.357
50677SOL    HW253929   9.214   6.659  13.220
50678SOL     OW53930   0.913   6.929  13.722
50678SOL    HW153931   0.950   6.875  13.792
50678SOL    HW253932   0.836   6.881  13.693
50679SOL     OW53933   7.163   8.745   9.208
50679SOL    HW153934   7.231   8.789   9.157
50679SOL    HW253935   7.178   8.652   9.192
50680SOL     OW53936   2.793   0.457  11.887
50680SOL    HW153937   2.825   0.545  11.868
50680SOL    HW253938   2.723   0.443  11.823
50681SOL     OW53939   4.175   3.157  11.963
50681SOL    HW153940   4.266   3.189  11.957
50681SOL    HW253941   4.131   3.196  11.888
50682SOL     OW53942   8.311  14.846   3.271
50682SOL    HW153943   8.263   0.050   3.258
50682SOL    HW253944   8.255  14.779   3.231
50683SOL     OW53945   8.999  14.188   1.549
50683SOL    HW153946   9.032  14.278   1.549
50683SOL    HW253947   8.941  14.184   1.473
50684SOL     OW53948   3.715   0.432   5.967
50684SOL    HW153949   3.624   0.429   5.937
50684SOL    HW253950   3.723   0.517   6.010
50685SOL     OW53951  10.110  10.944   3.580
50685SOL    HW153952  10.171  10.925   3.651
50685SOL    HW253953  10.064  11.023   3.609
50686SOL     OW53954  14.361   0.297  13.514
50686SOL    HW153955  14.409   0.236  13.570
50686SOL    HW253956  14.282   0.250  13.489
50687SOL     OW53957   9.450  14.649   0.707
50687SOL    HW153958   9.396  14.606   0.640
50687SOL    HW253959   9.439  14.743   0.690
50688SOL     OW53960   6.846   4.136  11.174
50688SOL    HW153961   6.778   4.202  11.155
50688SOL    HW253962   6.928   4.179  11.148
50689SOL     OW53963  11.907  12.745   6.084
50689SOL    HW153964  11.853  12.821   6.061
50689SOL    HW253965  11.853  12.695   6.146
50690SOL     OW53966   8.778   3.741   1.912
50690SOL    HW153967   8.809   3.699   1.832
50690SOL    HW253968   8.857   3.782   1.949
50691SOL     OW53969   5.452  14.812   5.233
50691SOL    HW153970   5.496   0.013   5.266
50691SOL    HW253971   5.359  14.829   5.249
50692SOL     OW53972   6.732   3.157  13.731
50692SOL    HW153973   6.691   3.238  13.758
50692SOL    HW253974   6.800   3.184  13.669
50693SOL     OW53975   1.602   4.763   8.566
50693SOL    HW153976   1.615   4.712   8.486
50693SOL    HW253977   1.678   4.821   8.570
50694SOL     OW53978   4.998   8.561  12.836
50694SOL    HW153979   5.044   8.617  12.773
50694SOL    HW253980   5.025   8.594  12.922
50695SOL     OW53981  12.814   4.227   2.007
50695SOL    HW153982  12.805   4.322   1.997
50695SOL    HW253983  12.871   4.201   1.935
50696SOL     OW53984   0.494   4.688   0.682
50696SOL    HW153985   0.542   4.719   0.759
50696SOL    HW253986   0.518   4.595   0.676
50697SOL     OW53987   3.269   3.401  11.651
50697SOL    HW153988   3.277   3.444  11.737
50697SOL    HW253989   3.186   3.433  11.616
50698SOL     OW53990  10.416  10.311  11.240
50698SOL    HW153991  10.414  10.366  11.163
50698SOL    HW253992  10.340  10.254  11.232
50699SOL     OW53993   8.651   1.312   1.923
50699SOL    HW153994   8.626   1.229   1.883
50699SOL    HW253995   8.569   1.361   1.930
50700SOL     OW53996  12.232   8.765   8.495
50700SOL    HW153997  12.224   8.815   8.576
50700SOL    HW253998  12.325   8.740   8.491
50701SOL     OW53999   0.609   6.213  12.084
50701SOL    HW154000   0.652   6.223  11.999
50701SOL    HW254001   0.542   6.147  12.069
50702SOL     OW54002   9.217   4.335   6.023
50702SOL    HW154003   9.140   4.285   5.996
50702SOL    HW254004   9.291   4.278   6.002
50703SOL     OW54005   5.999  10.016   0.220
50703SOL    HW154006   6.073  10.003   0.280
50703SOL    HW254007   5.937   9.946   0.244
50704SOL     OW54008   4.029   5.641   2.556
50704SOL    HW154009   3.940   5.662   2.529
50704SOL    HW254010   4.034   5.546   2.552
50705SOL     OW54011  10.915   2.939  14.652
50705SOL    HW154012  10.820   2.929  14.647
50705SOL    HW254013  10.950   2.865  14.604
50706SOL     OW54014  12.319   9.921   7.651
50706SOL    HW154015  12.397   9.868   7.639
50706SOL    HW254016  12.255   9.884   7.589
50707SOL     OW54017   2.212  13.464   8.874
50707SOL    HW154018   2.186  13.507   8.955
50707SOL    HW254019   2.297  13.502   8.853
50708SOL     OW54020  12.789  14.237   3.767
50708SOL    HW154021  12.696  14.220   3.784
50708SOL    HW254022  12.790  14.313   3.708
50709SOL     OW54023   4.674   1.555   6.590
50709SOL    HW154024   4.686   1.483   6.529
50709SOL    HW254025   4.754   1.556   6.642
50710SOL     OW54026   8.938   1.357   4.056
50710SOL    HW154027   9.005   1.314   4.004
50710SOL    HW254028   8.915   1.293   4.124
50711SOL     OW54029  13.358   0.616   2.992
50711SOL    HW154030  13.445   0.602   3.029
50711SOL    HW254031  13.366   0.589   2.901
50712SOL     OW54032   0.311   4.363  11.668
50712SOL    HW154033   0.264   4.388  11.748
50712SOL    HW254034   0.390   4.418  11.669
50713SOL     OW54035   3.037   0.330   8.453
50713SOL    HW154036   3.027   0.282   8.371
50713SOL    HW254037   2.993   0.413   8.437
50714SOL     OW54038  12.536   4.640   9.036
50714SOL    HW154039  12.547   4.553   9.075
50714SOL    HW254040  12.527   4.624   8.942
50715SOL     OW54041   0.106  13.026   0.097
50715SOL    HW154042   0.147  13.108   0.068
50715SOL    HW254043   0.139  12.960   0.036
50716SOL     OW54044   2.475   8.779  12.693
50716SOL    HW154045   2.563   8.788  12.655
50716SOL    HW254046   2.452   8.688  12.676
50717SOL     OW54047  14.263   1.120  10.354
50717SOL    HW154048  14.271   1.124  10.258
50717SOL    HW254049  14.342   1.163  10.386
50718SOL     OW54050   9.002  11.890  10.859
50718SOL    HW154051   8.977  11.825  10.794
50718SOL    HW254052   9.051  11.956  10.809
50719SOL     OW54053   3.462   3.430  13.269
50719SOL    HW154054   3.533   3.446  13.330
50719SOL    HW254055   3.386   3.473  13.308
50720SOL     OW54056   4.010  11.508   4.738
50720SOL    HW154057   4.011  11.567   4.813
50720SOL    HW254058   4.095  11.464   4.741
50721SOL     OW54059   0.712   2.636   0.323
50721SOL    HW154060   0.761   2.661   0.401
50721SOL    HW254061   0.659   2.561   0.351
50722SOL     OW54062   0.663  13.211   9.891
50722SOL    HW154063   0.667  13.251   9.804
50722SOL    HW254064   0.715  13.268   9.946
50723SOL     OW54065  12.975   1.722   7.405
50723SOL    HW154066  13.014   1.635   7.413
50723SOL    HW254067  12.896   1.709   7.353
50724SOL     OW54068  14.164  13.676   5.324
50724SOL    HW154069  14.127  13.661   5.237
50724SOL    HW254070  14.089  13.676   5.383
50725SOL     OW54071   1.732   1.295   5.682
50725SOL    HW154072   1.775   1.347   5.614
50725SOL    HW254073   1.641   1.287   5.652
50726SOL     OW54074  10.842  14.545  11.457
50726SOL    HW154075  10.782  14.504  11.394
50726SOL    HW254076  10.799  14.534  11.542
50727SOL     OW54077   9.629   1.938  14.615
50727SOL    HW154078   9.624   1.999  14.689
50727SOL    HW254079   9.543   1.942  14.574
50728SOL     OW54080   4.618   5.450   7.889
50728SOL    HW154081   4.532   5.488   7.870
50728SOL    HW254082   4.637   5.394   7.814
50729SOL     OW54083   7.003   3.033   8.219
50729SOL    HW154084   6.976   3.058   8.307
50729SOL    HW254085   7.096   3.012   8.227
50730SOL     OW54086   0.546  10.112   3.641
50730SOL    HW154087   0.572  10.181   3.580
50730SOL    HW254088   0.452  10.103   3.628
50731SOL     OW54089   2.491   9.852   5.635
50731SOL    HW154090   2.515   9.920   5.572
50731SOL    HW254091   2.558   9.857   5.703
50732SOL     OW54092   4.255   3.274   5.174
50732SOL    HW154093   4.316   3.331   5.221
50732SOL    HW254094   4.311   3.211   5.129
50733SOL     OW54095   2.799  12.149   9.985
50733SOL    HW154096   2.862  12.081  10.006
50733SOL    HW254097   2.852  12.227   9.968
50734SOL     OW54098   2.326   1.267   2.407
50734SOL    HW154099   2.361   1.207   2.472
50734SOL    HW254100   2.335   1.354   2.447
50735SOL     OW54101   1.066   4.922   6.048
50735SOL    HW154102   1.016   4.897   5.971
50735SOL    HW254103   1.141   4.971   6.014
50736SOL     OW54104   1.818   7.421   9.589
50736SOL    HW154105   1.823   7.393   9.497
50736SOL    HW254106   1.892   7.378   9.632
50737SOL     OW54107   8.556   4.379   4.966
50737SOL    HW154108   8.526   4.400   5.055
50737SOL    HW254109   8.650   4.399   4.967
50738SOL     OW54110  10.041  12.846   6.787
50738SOL    HW154111  10.089  12.818   6.710
50738SOL    HW254112   9.977  12.776   6.802
50739SOL     OW54113   2.444   2.615   5.844
50739SOL    HW154114   2.437   2.647   5.934
50739SOL    HW254115   2.396   2.679   5.792
50740SOL     OW54116   7.949   2.792   4.486
50740SOL    HW154117   7.951   2.883   4.454
50740SOL    HW254118   7.870   2.755   4.447
50741SOL     OW54119   0.340   0.863   9.101
50741SOL    HW154120   0.307   0.823   9.020
50741SOL    HW254121   0.298   0.949   9.104
50742SOL     OW54122  10.789   5.193   1.309
50742SOL    HW154123  10.863   5.142   1.342
50742SOL    HW254124  10.822   5.282   1.305
50743SOL     OW54125   0.945   4.516   8.747
50743SOL    HW154126   1.022   4.491   8.798
50743SOL    HW254127   0.878   4.452   8.772
50744SOL     OW54128   9.020  14.789   0.998
50744SOL    HW154129   9.036  14.782   1.092
50744SOL    HW254130   9.044  14.703   0.963
50745SOL     OW54131   0.717   3.780   8.220
50745SOL    HW154132   0.778   3.729   8.274
50745SOL    HW254133   0.760   3.786   8.135
50746SOL     OW54134  11.824  13.532  13.175
50746SOL    HW154135  11.736  13.543  13.140
50746SOL    HW254136  11.866  13.617  13.163
50747SOL     OW54137   2.012   2.380   4.696
50747SOL    HW154138   2.026   2.470   4.726
50747SOL    HW254139   1.926   2.382   4.655
50748SOL     OW54140   5.347   4.721   9.553
50748SOL    HW154141   5.397   4.755   9.479
50748SOL    HW254142   5.318   4.799   9.600
50749SOL     OW54143  14.163   4.977   4.929
50749SOL    HW154144  14.158   4.893   4.974
50749SOL    HW254145  14.241   4.970   4.874
50750SOL     OW54146   1.611   1.513   1.785
50750SOL    HW154147   1.613   1.419   1.802
50750SOL    HW254148   1.648   1.522   1.698
50751SOL     OW54149   3.515  12.473  14.626
50751SOL    HW154150   3.598  12.428  14.644
50751SOL    HW254151   3.454  12.438  14.691
50752SOL     OW54152   1.303   7.106   9.422
50752SOL    HW154153   1.294   7.171   9.492
50752SOL    HW254154   1.267   7.148   9.345
50753SOL     OW54155   4.730   6.525   5.104
50753SOL    HW154156   4.674   6.533   5.182
50753SOL    HW254157   4.671   6.489   5.037
50754SOL     OW54158   1.793  13.735   7.020
50754SOL    HW154159   1.789  13.791   7.098
50754SOL    HW254160   1.703  13.708   7.005
50755SOL     OW54161   7.276  14.802   5.224
50755SOL    HW154162   7.241  14.860   5.157
50755SOL    HW254163   7.338  14.857   5.272
50756SOL     OW54164   1.875   1.527  10.954
50756SOL    HW154165   1.942   1.497  10.892
50756SOL    HW254166   1.925   1.555  11.031
50757SOL     OW54167   4.768   2.401   2.630
50757SOL    HW154168   4.706   2.379   2.560
50757SOL    HW254169   4.713   2.422   2.705
50758SOL     OW54170   8.564   9.920   2.824
50758SOL    HW154171   8.485   9.866   2.829
50758SOL    HW254172   8.532  10.010   2.822
50759SOL     OW54173   9.752   8.471  14.784
50759SOL    HW154174   9.810   8.544  14.803
50759SOL    HW254175   9.801   8.416  14.724
50760SOL     OW54176  12.027   2.746   3.353
50760SOL    HW154177  12.112   2.734   3.309
50760SOL    HW254178  11.966   2.765   3.281
50761SOL     OW54179   6.993   7.876   3.379
50761SOL    HW154180   6.980   7.880   3.284
50761SOL    HW254181   6.995   7.782   3.398
50762SOL     OW54182   6.313   4.162   9.060
50762SOL    HW154183   6.349   4.236   9.109
50762SOL    HW254184   6.379   4.094   9.069
50763SOL     OW54185   2.568   6.143  11.952
50763SOL    HW154186   2.662   6.125  11.956
50763SOL    HW254187   2.539   6.099  11.873
50764SOL     OW54188   4.257  10.594  12.783
50764SOL    HW154189   4.247  10.675  12.833
50764SOL    HW254190   4.241  10.621  12.692
50765SOL     OW54191   0.416   0.811  13.386
50765SOL    HW154192   0.324   0.831  13.403
50765SOL    HW254193   0.416   0.719  13.360
50766SOL     OW54194  11.976   7.909   6.154
50766SOL    HW154195  11.895   7.951   6.123
50766SOL    HW254196  11.961   7.816   6.141
50767SOL     OW54197  11.355   4.647   0.179
50767SOL    HW154198  11.379   4.570   0.128
50767SOL    HW254199  11.349   4.615   0.269
50768SOL     OW54200   5.922   1.213  14.747
50768SOL    HW154201   5.964   1.127  14.749
50768SOL    HW254202   5.966   1.260  14.676
50769SOL     OW54203   8.853   4.520   4.808
50769SOL    HW154204   8.942   4.490   4.826
50769SOL    HW254205   8.813   4.532   4.895
50770SOL     OW54206   3.701  10.271   5.842
50770SOL    HW154207   3.678  10.189   5.798
50770SOL    HW254208   3.706  10.336   5.772
50771SOL     OW54209   9.412   0.025   8.549
50771SOL    HW154210   9.417  14.808   8.565
50771SOL    HW254211   9.452   0.064   8.627
50772SOL     OW54212   8.253   4.412  12.489
50772SOL    HW154213   8.321   4.392  12.553
50772SOL    HW254214   8.301   4.450  12.415
50773SOL     OW54215  14.686  12.330   1.045
50773SOL    HW154216  14.723  12.352   0.960
50773SOL    HW254217  14.706  12.406   1.100
50774SOL     OW54218   0.881  10.280   7.235
50774SOL    HW154219   0.880  10.339   7.160
50774SOL    HW254220   0.906  10.336   7.309
50775SOL     OW54221  14.454   9.390   6.049
50775SOL    HW154222  14.421   9.430   6.129
50775SOL    HW254223  14.400   9.313   6.036
50776SOL     OW54224   1.445   1.264   7.646
50776SOL    HW154225   1.451   1.359   7.650
50776SOL    HW254226   1.355   1.244   7.670
50777SOL     OW54227   6.454  10.224  10.839
50777SOL    HW154228   6.390  10.296  10.839
50777SOL    HW254229   6.518  10.249  10.906
50778SOL     OW54230  13.271   0.635  14.590
50778SOL    HW154231  13.261   0.583  14.510
50778SOL    HW254232  13.212   0.593  14.653
50779SOL     OW54233  11.943   5.503   1.968
50779SOL    HW154234  11.982   5.590   1.954
50779SOL    HW254235  11.950   5.489   2.062
50780SOL     OW54236   3.381   4.829   0.738
50780SOL    HW154237   3.293   4.801   0.760
50780SOL    HW254238   3.438   4.775   0.793
50781SOL     OW54239  12.859  12.192   7.528
50781SOL    HW154240  12.908  12.111   7.516
50781SOL    HW254241  12.921  12.261   7.502
50782SOL     OW54242   6.332  13.630   0.127
50782SOL    HW154243   6.329  13.590   0.040
50782SOL    HW254244   6.314  13.558   0.187
50783SOL     OW54245   4.712  14.144  13.225
50783SOL    HW154246   4.671  14.061  13.200
50783SOL    HW254247   4.662  14.173  13.301
50784SOL     OW54248   4.157   0.432   2.207
50784SOL    HW154249   4.233   0.423   2.149
50784SOL    HW254250   4.085   0.456   2.149
50785SOL     OW54251  10.792   8.356  14.822
50785SOL    HW154252  10.727   8.392   0.005
50785SOL    HW254253  10.859   8.317   0.000
50786SOL     OW54254  11.110  11.300   3.082
50786SOL    HW154255  11.020  11.276   3.059
50786SOL    HW254256  11.136  11.363   3.014
50787SOL     OW54257  12.346   4.661   3.704
50787SOL    HW154258  12.414   4.601   3.674
50787SOL    HW254259  12.270   4.606   3.721
50788SOL     OW54260  14.095  14.619  11.424
50788SOL    HW154261  14.096  14.713  11.408
50788SOL    HW254262  14.178  14.587  11.388
50789SOL     OW54263   8.570   5.386   1.661
50789SOL    HW154264   8.546   5.378   1.569
50789SOL    HW254265   8.647   5.442   1.661
50790SOL     OW54266  12.746   9.857  13.476
50790SOL    HW154267  12.812   9.825  13.415
50790SOL    HW254268  12.791   9.856  13.561
50791SOL     OW54269   6.903  10.507   4.736
50791SOL    HW154270   6.915  10.540   4.647
50791SOL    HW254271   6.919  10.413   4.728
50792SOL     OW54272   0.598   5.811   1.408
50792SOL    HW154273   0.603   5.719   1.382
50792SOL    HW254274   0.505   5.829   1.418
50793SOL     OW54275   4.389  12.099  13.230
50793SOL    HW154276   4.342  12.161  13.285
50793SOL    HW254277   4.441  12.047  13.291
50794SOL     OW54278   9.845   9.109  12.805
50794SOL    HW154279   9.762   9.094  12.760
50794SOL    HW254280   9.900   9.151  12.739
50795SOL     OW54281   7.733   7.835   6.054
50795SOL    HW154282   7.645   7.872   6.052
50795SOL    HW254283   7.759   7.838   6.146
50796SOL     OW54284  14.792  13.132   3.442
50796SOL    HW154285  14.827  13.104   3.526
50796SOL    HW254286  14.815  13.061   3.382
50797SOL     OW54287   2.465   9.756   5.344
50797SOL    HW154288   2.545   9.800   5.373
50797SOL    HW254289   2.415   9.824   5.299
50798SOL     OW54290   2.767   4.173  10.263
50798SOL    HW154291   2.861   4.165  10.243
50798SOL    HW254292   2.758   4.132  10.350
50799SOL     OW54293   8.610   7.762  11.832
50799SOL    HW154294   8.632   7.791  11.920
50799SOL    HW254295   8.680   7.701  11.808
50800SOL     OW54296   4.412  13.705  13.248
50800SOL    HW154297   4.373  13.650  13.180
50800SOL    HW254298   4.337  13.742  13.295
50801SOL     OW54299  10.138  10.247  13.635
50801SOL    HW154300  10.215  10.226  13.688
50801SOL    HW254301  10.171  10.304  13.566
50802SOL     OW54302  10.593   0.244  11.898
50802SOL    HW154303  10.643   0.172  11.860
50802SOL    HW254304  10.571   0.301  11.824
50803SOL     OW54305   5.212   3.896   4.048
50803SOL    HW154306   5.141   3.851   4.096
50803SOL    HW254307   5.282   3.905   4.112
50804SOL     OW54308  13.590   8.405  12.518
50804SOL    HW154309  13.501   8.379  12.542
50804SOL    HW254310  13.626   8.327  12.475
50805SOL     OW54311  12.752   6.497   4.821
50805SOL    HW154312  12.686   6.444   4.864
50805SOL    HW254313  12.781   6.444   4.747
50806SOL     OW54314  13.367   5.623   1.410
50806SOL    HW154315  13.293   5.685   1.410
50806SOL    HW254316  13.426   5.656   1.478
50807SOL     OW54317  14.454  10.927   0.772
50807SOL    HW154318  14.545  10.942   0.748
50807SOL    HW254319  14.458  10.891   0.861
50808SOL     OW54320   8.419   9.365   1.872
50808SOL    HW154321   8.408   9.409   1.956
50808SOL    HW254322   8.331   9.366   1.833
50809SOL     OW54323   4.433   1.705   2.779
50809SOL    HW154324   4.520   1.745   2.784
50809SOL    HW254325   4.410   1.687   2.870
50810SOL     OW54326  13.464   3.010   0.155
50810SOL    HW154327  13.445   2.940   0.218
50810SOL    HW254328  13.549   3.044   0.182
50811SOL     OW54329   2.483  12.855   9.998
50811SOL    HW154330   2.477  12.864   9.903
50811SOL    HW254331   2.423  12.921  10.032
50812SOL     OW54332   4.939  13.172  13.932
50812SOL    HW154333   4.844  13.176  13.939
50812SOL    HW254334   4.971  13.223  14.007
50813SOL     OW54335   2.699   5.400   7.725
50813SOL    HW154336   2.649   5.324   7.756
50813SOL    HW254337   2.680   5.469   7.788
50814SOL     OW54338  13.726  10.151  14.204
50814SOL    HW154339  13.758  10.122  14.289
50814SOL    HW254340  13.805  10.158  14.150
50815SOL     OW54341   9.260   6.863   0.883
50815SOL    HW154342   9.218   6.799   0.825
50815SOL    HW254343   9.319   6.912   0.827
50816SOL     OW54344   1.592  12.500   1.921
50816SOL    HW154345   1.513  12.467   1.877
50816SOL    HW254346   1.584  12.595   1.915
50817SOL     OW54347   0.491   3.113   7.020
50817SOL    HW154348   0.522   3.144   6.935
50817SOL    HW254349   0.556   3.049   7.048
50818SOL     OW54350  14.229  14.151   4.321
50818SOL    HW154351  14.165  14.220   4.336
50818SOL    HW254352  14.180  14.080   4.279
50819SOL     OW54353   7.299   9.025   7.890
50819SOL    HW154354   7.364   9.094   7.878
50819SOL    HW254355   7.260   9.043   7.975
50820SOL     OW54356   9.058  10.458   4.268
50820SOL    HW154357   9.011  10.493   4.344
50820SOL    HW254358   9.000  10.475   4.194
50821SOL     OW54359  13.228  10.896   0.103
50821SOL    HW154360  13.301  10.945   0.141
50821SOL    HW254361  13.246  10.805   0.127
50822SOL     OW54362  10.517  13.225  10.456
50822SOL    HW154363  10.530  13.260  10.545
50822SOL    HW254364  10.428  13.191  10.456
50823SOL     OW54365   0.769   4.578   7.881
50823SOL    HW154366   0.775   4.486   7.856
50823SOL    HW254367   0.820   4.585   7.962
50824SOL     OW54368   3.146   1.792  14.162
50824SOL    HW154369   3.123   1.782  14.254
50824SOL    HW254370   3.069   1.760  14.115
50825SOL     OW54371  13.578   5.453   7.467
50825SOL    HW154372  13.568   5.429   7.559
50825SOL    HW254373  13.495   5.427   7.426
50826SOL     OW54374  12.895   8.678  10.842
50826SOL    HW154375  12.980   8.719  10.860
50826SOL    HW254376  12.853   8.671  10.928
50827SOL     OW54377  14.141   0.386   7.547
50827SOL    HW154378  14.203   0.435   7.601
50827SOL    HW254379  14.195   0.328   7.494
50828SOL     OW54380   7.739   0.467   4.154
50828SOL    HW154381   7.691   0.439   4.232
50828SOL    HW254382   7.723   0.561   4.148
50829SOL     OW54383   2.473   3.733   6.892
50829SOL    HW154384   2.523   3.815   6.892
50829SOL    HW254385   2.451   3.718   6.800
50830SOL     OW54386   1.881   9.593  14.382
50830SOL    HW154387   1.796   9.636  14.393
50830SOL    HW254388   1.889   9.579  14.288
50831SOL     OW54389   5.386  11.637  12.568
50831SOL    HW154390   5.331  11.574  12.522
50831SOL    HW254391   5.430  11.686  12.498
50832SOL     OW54392   7.014  10.724   1.212
50832SOL    HW154393   7.030  10.640   1.254
50832SOL    HW254394   6.948  10.706   1.145
50833SOL     OW54395   9.317  13.503   1.522
50833SOL    HW154396   9.397  13.465   1.559
50833SOL    HW254397   9.248  13.441   1.545
50834SOL     OW54398  10.242   9.806  12.493
50834SOL    HW154399  10.178   9.798  12.422
50834SOL    HW254400  10.309   9.865  12.458
50835SOL     OW54401   0.997   5.731   8.419
50835SOL    HW154402   0.908   5.758   8.444
50835SOL    HW254403   1.055   5.782   8.475
50836SOL     OW54404   2.507   2.370  11.484
50836SOL    HW154405   2.558   2.307  11.535
50836SOL    HW254406   2.551   2.454  11.498
50837SOL     OW54407  13.160   0.292   1.344
50837SOL    HW154408  13.090   0.333   1.393
50837SOL    HW254409  13.234   0.289   1.404
50838SOL     OW54410   0.038   0.784   8.087
50838SOL    HW154411  14.863   0.864   8.089
50838SOL    HW254412   0.006   0.732   8.161
50839SOL     OW54413   2.590   1.368   4.306
50839SOL    HW154414   2.647   1.445   4.307
50839SOL    HW254415   2.502   1.403   4.320
50840SOL     OW54416   4.834   5.570   8.275
50840SOL    HW154417   4.822   5.653   8.321
50840SOL    HW254418   4.915   5.582   8.225
50841SOL     OW54419  10.998   9.584   9.826
50841SOL    HW154420  10.908   9.597   9.854
50841SOL    HW254421  11.014   9.491   9.839
50842SOL     OW54422   0.785   1.721  11.386
50842SOL    HW154423   0.818   1.809  11.400
50842SOL    HW254424   0.824   1.692  11.304
50843SOL     OW54425   5.207   4.343   8.583
50843SOL    HW154426   5.167   4.419   8.625
50843SOL    HW254427   5.235   4.375   8.497
50844SOL     OW54428  10.448  13.708  12.387
50844SOL    HW154429  10.471  13.800  12.399
50844SOL    HW254430  10.353  13.706  12.401
50845SOL     OW54431   2.479   0.091   6.130
50845SOL    HW154432   2.417   0.032   6.173
50845SOL    HW254433   2.424   0.147   6.075
50846SOL     OW54434   5.664   0.405   1.196
50846SOL    HW154435   5.628   0.331   1.245
50846SOL    HW254436   5.588   0.460   1.176
50847SOL     OW54437  10.774  13.996  12.850
50847SOL    HW154438  10.826  14.016  12.927
50847SOL    HW254439  10.788  13.902  12.835
50848SOL     OW54440   8.407  11.458  12.779
50848SOL    HW154441   8.469  11.506  12.833
50848SOL    HW254442   8.427  11.485  12.689
50849SOL     OW54443   1.915  14.862  13.132
50849SOL    HW154444   1.987   0.039  13.100
50849SOL    HW254445   1.845   0.046  13.153
50850SOL     OW54446  10.293   1.431   7.333
50850SOL    HW154447  10.243   1.479   7.266
50850SOL    HW254448  10.230   1.371   7.373
50851SOL     OW54449  12.821   1.446   3.887
50851SOL    HW154450  12.858   1.358   3.896
50851SOL    HW254451  12.884   1.503   3.933
50852SOL     OW54452  11.504  14.202  10.911
50852SOL    HW154453  11.584  14.209  10.962
50852SOL    HW254454  11.467  14.290  10.911
50853SOL     OW54455   8.043  10.421   2.990
50853SOL    HW154456   7.971  10.431   3.052
50853SOL    HW254457   8.117  10.465   3.032
50854SOL     OW54458   8.163  12.889  14.353
50854SOL    HW154459   8.205  12.957  14.301
50854SOL    HW254460   8.221  12.813  14.346
50855SOL     OW54461   6.808  13.395   9.113
50855SOL    HW154462   6.782  13.395   9.021
50855SOL    HW254463   6.898  13.362   9.112
50856SOL     OW54464  11.381   1.086  10.106
50856SOL    HW154465  11.352   1.027  10.037
50856SOL    HW254466  11.303   1.103  10.158
50857SOL     OW54467   9.113  13.702   5.720
50857SOL    HW154468   9.165  13.771   5.761
50857SOL    HW254469   9.114  13.631   5.784
50858SOL     OW54470   0.153   7.258   4.218
50858SOL    HW154471   0.093   7.214   4.279
50858SOL    HW254472   0.102   7.269   4.138
50859SOL     OW54473  14.284   1.788   0.436
50859SOL    HW154474  14.199   1.778   0.478
50859SOL    HW254475  14.293   1.883   0.422
50860SOL     OW54476   8.104  12.656  12.092
50860SOL    HW154477   8.047  12.732  12.081
50860SOL    HW254478   8.173  12.686  12.152
50861SOL     OW54479   4.905  11.344  11.678
50861SOL    HW154480   4.918  11.289  11.755
50861SOL    HW254481   4.849  11.293  11.620
50862SOL     OW54482   8.210   9.067  12.467
50862SOL    HW154483   8.294   9.062  12.421
50862SOL    HW254484   8.148   9.095  12.400
50863SOL     OW54485  14.072  11.865   5.012
50863SOL    HW154486  14.087  11.772   4.996
50863SOL    HW254487  14.107  11.909   4.934
50864SOL     OW54488   5.113  13.246   4.057
50864SOL    HW154489   5.124  13.332   4.017
50864SOL    HW254490   5.133  13.184   3.987
50865SOL     OW54491  10.282  12.011  11.166
50865SOL    HW154492  10.312  12.065  11.093
50865SOL    HW254493  10.245  11.933  11.125
50866SOL     OW54494   9.820  11.171   3.843
50866SOL    HW154495   9.788  11.177   3.752
50866SOL    HW254496   9.761  11.229   3.892
50867SOL     OW54497   3.168   1.697  13.026
50867SOL    HW154498   3.239   1.731  13.081
50867SOL    HW254499   3.130   1.626  13.077
50868SOL     OW54500   4.743   3.571  12.132
50868SOL    HW154501   4.752   3.501  12.067
50868SOL    HW254502   4.685   3.635  12.091
50869SOL     OW54503   3.951   6.674  13.495
50869SOL    HW154504   4.036   6.631  13.496
50869SOL    HW254505   3.959   6.746  13.557
50870SOL     OW54506   2.430  13.635   6.185
50870SOL    HW154507   2.435  13.714   6.131
50870SOL    HW254508   2.454  13.564   6.127
50871SOL     OW54509   5.569  11.952   6.531
50871SOL    HW154510   5.612  11.871   6.557
50871SOL    HW254511   5.479  11.944   6.564
50872SOL     OW54512   1.355  11.863   0.440
50872SOL    HW154513   1.259  11.863   0.442
50872SOL    HW254514   1.380  11.931   0.502
50873SOL     OW54515   2.802   1.983   1.911
50873SOL    HW154516   2.784   1.891   1.894
50873SOL    HW254517   2.726   2.014   1.960
50874SOL     OW54518   8.099  10.302   3.326
50874SOL    HW154519   8.138  10.308   3.239
50874SOL    HW254520   8.005  10.297   3.310
50875SOL     OW54521   3.606   9.687  14.033
50875SOL    HW154522   3.580   9.670  13.943
50875SOL    HW254523   3.698   9.661  14.037
50876SOL     OW54524   7.533   9.160   0.431
50876SOL    HW154525   7.487   9.082   0.401
50876SOL    HW254526   7.466   9.210   0.479
50877SOL     OW54527   2.784  13.411   4.201
50877SOL    HW154528   2.698  13.432   4.163
50877SOL    HW254529   2.810  13.329   4.159
50878SOL     OW54530  12.626   3.623  13.312
50878SOL    HW154531  12.622   3.709  13.270
50878SOL    HW254532  12.631   3.561  13.239
50879SOL     OW54533   2.659   2.444   7.931
50879SOL    HW154534   2.732   2.462   7.872
50879SOL    HW254535   2.698   2.399   8.006
50880SOL     OW54536   8.555   9.469  13.630
50880SOL    HW154537   8.516   9.430  13.708
50880SOL    HW254538   8.480   9.500  13.579
50881SOL     OW54539  12.031  12.584  11.302
50881SOL    HW154540  12.057  12.651  11.365
50881SOL    HW254541  12.110  12.530  11.292
50882SOL     OW54542   7.596  11.387   1.005
50882SOL    HW154543   7.554  11.303   0.986
50882SOL    HW254544   7.687  11.364   1.025
50883SOL     OW54545   0.732   6.812   5.834
50883SOL    HW154546   0.819   6.847   5.852
50883SOL    HW254547   0.689   6.812   5.920
50884SOL     OW54548  10.306   0.743   6.901
50884SOL    HW154549  10.279   0.821   6.949
50884SOL    HW254550  10.401   0.752   6.891
50885SOL     OW54551   4.642   9.891   9.838
50885SOL    HW154552   4.637   9.802   9.804
50885SOL    HW254553   4.674   9.943   9.764
50886SOL     OW54554   8.736   6.182   7.509
50886SOL    HW154555   8.694   6.259   7.472
50886SOL    HW254556   8.785   6.144   7.435
50887SOL     OW54557  10.602   8.519   0.546
50887SOL    HW154558  10.512   8.542   0.526
50887SOL    HW254559  10.606   8.424   0.537
50888SOL     OW54560   6.443  11.359   3.416
50888SOL    HW154561   6.397  11.389   3.495
50888SOL    HW254562   6.384  11.380   3.344
50889SOL     OW54563  11.454   2.694   8.779
50889SOL    HW154564  11.373   2.696   8.729
50889SOL    HW254565  11.489   2.606   8.767
50890SOL     OW54566   7.413   9.450   9.752
50890SOL    HW154567   7.480   9.410   9.696
50890SOL    HW254568   7.459   9.477   9.830
50891SOL     OW54569   6.645   1.574  12.552
50891SOL    HW154570   6.722   1.533  12.511
50891SOL    HW254571   6.596   1.501  12.590
50892SOL     OW54572   7.234   5.334  12.561
50892SOL    HW154573   7.154   5.322  12.613
50892SOL    HW254574   7.288   5.392  12.614
50893SOL     OW54575   1.213   4.159   3.596
50893SOL    HW154576   1.160   4.226   3.552
50893SOL    HW254577   1.170   4.146   3.680
50894SOL     OW54578   7.731  11.241  13.951
50894SOL    HW154579   7.776  11.177  13.895
50894SOL    HW254580   7.780  11.322  13.937
50895SOL     OW54581   2.674   4.923   3.996
50895SOL    HW154582   2.636   4.996   4.045
50895SOL    HW254583   2.650   4.845   4.046
50896SOL     OW54584  10.730  13.288   2.644
50896SOL    HW154585  10.648  13.240   2.631
50896SOL    HW254586  10.738  13.297   2.739
50897SOL     OW54587   6.797   8.686   0.628
50897SOL    HW154588   6.841   8.640   0.557
50897SOL    HW254589   6.726   8.627   0.655
50898SOL     OW54590  11.386   7.766  13.620
50898SOL    HW154591  11.311   7.764  13.561
50898SOL    HW254592  11.427   7.680  13.609
50899SOL     OW54593  11.540   0.783   7.554
50899SOL    HW154594  11.610   0.820   7.500
50899SOL    HW254595  11.579   0.705   7.594
50900SOL     OW54596   4.742   3.878   4.720
50900SOL    HW154597   4.792   3.958   4.734
50900SOL    HW254598   4.805   3.807   4.735
50901SOL     OW54599   6.194  11.462   8.334
50901SOL    HW154600   6.168  11.493   8.421
50901SOL    HW254601   6.142  11.383   8.319
50902SOL     OW54602   8.307   2.715   8.357
50902SOL    HW154603   8.353   2.770   8.294
50902SOL    HW254604   8.247   2.663   8.304
50903SOL     OW54605  13.956  13.494  12.973
50903SOL    HW154606  13.965  13.406  12.937
50903SOL    HW254607  13.999  13.491  13.058
50904SOL     OW54608   2.777  12.496   4.074
50904SOL    HW154609   2.691  12.482   4.114
50904SOL    HW254610   2.840  12.481   4.144
50905SOL     OW54611  11.693  10.908   5.388
50905SOL    HW154612  11.629  10.903   5.459
50905SOL    HW254613  11.777  10.885   5.429
50906SOL     OW54614   9.297  13.796  11.000
50906SOL    HW154615   9.285  13.725  10.937
50906SOL    HW254616   9.330  13.752  11.079
50907SOL     OW54617   8.397  10.059   8.521
50907SOL    HW154618   8.374  10.109   8.443
50907SOL    HW254619   8.393   9.968   8.493
50908SOL     OW54620  13.112   7.017  11.841
50908SOL    HW154621  13.062   6.989  11.764
50908SOL    HW254622  13.075   7.101  11.864
50909SOL     OW54623  11.046   1.467   3.238
50909SOL    HW154624  11.067   1.391   3.184
50909SOL    HW254625  10.970   1.507   3.195
50910SOL     OW54626   1.652   6.748  13.218
50910SOL    HW154627   1.615   6.803  13.149
50910SOL    HW254628   1.704   6.808  13.272
50911SOL     OW54629  12.733   1.961   0.556
50911SOL    HW154630  12.671   2.002   0.495
50911SOL    HW254631  12.819   1.990   0.526
50912SOL     OW54632   4.741   4.684  13.439
50912SOL    HW154633   4.728   4.757  13.500
50912SOL    HW254634   4.835   4.673  13.435
50913SOL     OW54635   0.142  13.484  11.587
50913SOL    HW154636   0.086  13.428  11.533
50913SOL    HW254637   0.220  13.499  11.534
50914SOL     OW54638   6.935  10.669   5.545
50914SOL    HW154639   6.932  10.610   5.469
50914SOL    HW254640   6.855  10.648   5.593
50915SOL     OW54641   4.055   9.675   9.443
50915SOL    HW154642   4.082   9.729   9.517
50915SOL    HW254643   4.024   9.737   9.378
50916SOL     OW54644   1.613   9.479   1.672
50916SOL    HW154645   1.681   9.482   1.604
50916SOL    HW254646   1.539   9.435   1.630
50917SOL     OW54647   7.272   2.304   8.746
50917SOL    HW154648   7.211   2.272   8.680
50917SOL    HW254649   7.226   2.295   8.829
50918SOL     OW54650  14.444  11.951  11.954
50918SOL    HW154651  14.375  11.990  11.900
50918SOL    HW254652  14.397  11.890  12.011
50919SOL     OW54653  13.872   1.199   8.830
50919SOL    HW154654  13.847   1.229   8.918
50919SOL    HW254655  13.830   1.113   8.822
50920SOL     OW54656   7.695  10.882   1.387
50920SOL    HW154657   7.660  10.970   1.370
50920SOL    HW254658   7.734  10.855   1.304
50921SOL     OW54659  10.173  11.656  11.379
50921SOL    HW154660  10.228  11.696  11.312
50921SOL    HW254661  10.175  11.562  11.359
50922SOL     OW54662   1.926  11.691   4.576
50922SOL    HW154663   2.010  11.659   4.609
50922SOL    HW254664   1.929  11.675   4.482
50923SOL     OW54665   1.467   2.904  11.424
50923SOL    HW154666   1.475   2.847  11.348
50923SOL    HW254667   1.385   2.951  11.410
50924SOL     OW54668  14.526  12.673  13.257
50924SOL    HW154669  14.494  12.599  13.205
50924SOL    HW254670  14.525  12.747  13.195
50925SOL     OW54671   4.016   0.065  11.176
50925SOL    HW154672   4.045  14.851  11.172
50925SOL    HW254673   3.984   0.076  11.265
50926SOL     OW54674  10.573  10.462   4.695
50926SOL    HW154675  10.546  10.439   4.784
50926SOL    HW254676  10.668  10.462   4.697
50927SOL     OW54677   4.723   1.197   4.335
50927SOL    HW154678   4.688   1.238   4.415
50927SOL    HW254679   4.770   1.268   4.291
50928SOL     OW54680   8.767   5.809   3.959
50928SOL    HW154681   8.742   5.860   4.036
50928SOL    HW254682   8.817   5.735   3.995
50929SOL     OW54683   1.678   7.417  12.529
50929SOL    HW154684   1.637   7.379  12.608
50929SOL    HW254685   1.607   7.420  12.465
50930SOL     OW54686   9.454   8.920  13.504
50930SOL    HW154687   9.361   8.897  13.492
50930SOL    HW254688   9.456   9.015  13.493
50931SOL     OW54689  12.242  14.705   8.739
50931SOL    HW154690  12.252  14.801   8.735
50931SOL    HW254691  12.154  14.689   8.706
50932SOL     OW54692   8.369   9.507  12.338
50932SOL    HW154693   8.281   9.468  12.335
50932SOL    HW254694   8.369   9.559  12.418
50933SOL     OW54695   1.838  10.823  11.399
50933SOL    HW154696   1.805  10.887  11.336
50933SOL    HW254697   1.923  10.796  11.364
50934SOL     OW54698  12.409   9.284   4.246
50934SOL    HW154699  12.402   9.191   4.265
50934SOL    HW254700  12.362   9.295   4.163
50935SOL     OW54701  12.497  14.814   7.649
50935SOL    HW154702  12.521  14.757   7.722
50935SOL    HW254703  12.580  14.842   7.612
50936SOL     OW54704   0.232   5.684  12.539
50936SOL    HW154705   0.286   5.632  12.479
50936SOL    HW254706   0.293   5.718  12.604
50937SOL     OW54707  10.475  14.727   9.654
50937SOL    HW154708  10.419  14.651   9.640
50937SOL    HW254709  10.416  14.802   9.650
50938SOL     OW54710  11.334   4.410   6.798
50938SOL    HW154711  11.281   4.345   6.750
50938SOL    HW254712  11.398   4.357   6.846
50939SOL     OW54713   6.646   6.116   0.580
50939SOL    HW154714   6.599   6.059   0.519
50939SOL    HW254715   6.628   6.205   0.548
50940SOL     OW54716  14.227   3.048   6.069
50940SOL    HW154717  14.145   3.038   6.117
50940SOL    HW254718  14.266   2.961   6.068
50941SOL     OW54719  10.966   7.439   0.031
50941SOL    HW154720  11.050   7.484   0.025
50941SOL    HW254721  10.908   7.502   0.074
50942SOL     OW54722   6.138  12.792   1.428
50942SOL    HW154723   6.048  12.770   1.452
50942SOL    HW254724   6.171  12.715   1.381
50943SOL     OW54725   6.326  13.127  14.060
50943SOL    HW154726   6.296  13.201  14.113
50943SOL    HW254727   6.379  13.074  14.120
50944SOL     OW54728   9.449   1.543  12.287
50944SOL    HW154729   9.396   1.592  12.350
50944SOL    HW254730   9.511   1.607  12.252
50945SOL     OW54731   5.720  13.090  10.473
50945SOL    HW154732   5.629  13.061  10.465
50945SOL    HW254733   5.771  13.021  10.432
50946SOL     OW54734   0.132  13.022  13.389
50946SOL    HW154735   0.077  13.072  13.328
50946SOL    HW254736   0.213  13.072  13.394
50947SOL     OW54737  12.252   2.422   6.191
50947SOL    HW154738  12.347   2.415   6.176
50947SOL    HW254739  12.219   2.334   6.176
50948SOL     OW54740   1.969  13.599  11.804
50948SOL    HW154741   2.011  13.514  11.789
50948SOL    HW254742   1.877  13.578  11.816
50949SOL     OW54743   2.367   4.258   2.044
50949SOL    HW154744   2.296   4.211   2.001
50949SOL    HW254745   2.435   4.267   1.977
50950SOL     OW54746   1.722  10.995  13.558
50950SOL    HW154747   1.744  10.903  13.548
50950SOL    HW254748   1.795  11.042  13.516
50951SOL     OW54749  10.544   2.172   3.740
50951SOL    HW154750  10.501   2.091   3.765
50951SOL    HW254751  10.473   2.234   3.726
50952SOL     OW54752   5.853   1.123  13.244
50952SOL    HW154753   5.928   1.121  13.302
50952SOL    HW254754   5.877   1.185  13.175
50953SOL     OW54755   8.343   2.241   5.351
50953SOL    HW154756   8.368   2.221   5.261
50953SOL    HW254757   8.415   2.294   5.385
50954SOL     OW54758   9.000  12.053   5.602
50954SOL    HW154759   8.911  12.020   5.593
50954SOL    HW254760   8.989  12.147   5.616
50955SOL     OW54761   4.576   6.597   9.389
50955SOL    HW154762   4.625   6.614   9.470
50955SOL    HW254763   4.591   6.675   9.335
50956SOL     OW54764   0.155  14.131  11.878
50956SOL    HW154765   0.161  14.223  11.907
50956SOL    HW254766   0.179  14.133  11.785
50957SOL     OW54767   5.721   4.654   3.482
50957SOL    HW154768   5.712   4.586   3.416
50957SOL    HW254769   5.794   4.626   3.537
50958SOL     OW54770   3.673   0.057   1.068
50958SOL    HW154771   3.701   0.030   0.980
50958SOL    HW254772   3.622   0.136   1.054
50959SOL     OW54773   9.827  14.070  14.474
50959SOL    HW154774   9.791  14.080  14.386
50959SOL    HW254775   9.921  14.062  14.460
50960SOL     OW54776  14.076   3.411   3.013
50960SOL    HW154777  14.151   3.418   2.954
50960SOL    HW254778  14.075   3.494   3.060
50961SOL     OW54779   4.392   0.957   7.361
50961SOL    HW154780   4.373   0.938   7.453
50961SOL    HW254781   4.308   0.946   7.316
50962SOL     OW54782  11.939   5.902   6.699
50962SOL    HW154783  12.017   5.861   6.736
50962SOL    HW254784  11.972   5.956   6.627
50963SOL     OW54785   0.048   8.032  10.018
50963SOL    HW154786   0.059   7.953  10.070
50963SOL    HW254787  14.832   8.035   9.997
50964SOL     OW54788  13.723   8.561   3.923
50964SOL    HW154789  13.743   8.619   3.995
50964SOL    HW254790  13.771   8.597   3.848
50965SOL     OW54791  14.694   2.093  10.931
50965SOL    HW154792  14.656   2.080  10.844
50965SOL    HW254793  14.782   2.056  10.925
50966SOL     OW54794   4.031   9.946  11.864
50966SOL    HW154795   4.106   9.930  11.921
50966SOL    HW254796   4.016   9.862  11.820
50967SOL     OW54797  14.245   6.003   2.643
50967SOL    HW154798  14.289   6.003   2.558
50967SOL    HW254799  14.172   5.942   2.632
50968SOL     OW54800   0.134  13.345   7.183
50968SOL    HW154801   0.083  13.277   7.139
50968SOL    HW254802   0.111  13.426   7.137
50969SOL     OW54803   5.061   9.972  10.797
50969SOL    HW154804   5.072   9.973  10.892
50969SOL    HW254805   4.994  10.038  10.779
50970SOL     OW54806   7.047  12.604   6.592
50970SOL    HW154807   7.003  12.556   6.521
50970SOL    HW254808   7.107  12.540   6.630
50971SOL     OW54809  14.021  12.092  10.053
50971SOL    HW154810  13.948  12.034  10.029
50971SOL    HW254811  14.095  12.059  10.002
50972SOL     OW54812  12.108  11.023   8.454
50972SOL    HW154813  12.105  11.089   8.523
50972SOL    HW254814  12.016  10.998   8.441
50973SOL     OW54815   9.212   0.146   8.855
50973SOL    HW154816   9.202   0.051   8.852
50973SOL    HW254817   9.306   0.159   8.873
50974SOL     OW54818  11.321   6.973  11.583
50974SOL    HW154819  11.329   6.926  11.500
50974SOL    HW254820  11.348   6.911  11.650
50975SOL     OW54821   0.336  12.150   1.108
50975SOL    HW154822   0.351  12.093   1.183
50975SOL    HW254823   0.280  12.098   1.050
50976SOL     OW54824   8.767   2.203   5.049
50976SOL    HW154825   8.841   2.173   5.102
50976SOL    HW254826   8.808   2.250   4.976
50977SOL     OW54827   7.755   2.068   1.306
50977SOL    HW154828   7.727   2.157   1.328
50977SOL    HW254829   7.838   2.057   1.352
50978SOL     OW54830  12.619  11.176  13.884
50978SOL    HW154831  12.560  11.102  13.869
50978SOL    HW254832  12.565  11.253  13.867
50979SOL     OW54833   5.023  10.323   7.024
50979SOL    HW154834   5.013  10.228   7.011
50979SOL    HW254835   4.953  10.362   6.972
50980SOL     OW54836  13.516  10.237   1.129
50980SOL    HW154837  13.474  10.226   1.043
50980SOL    HW254838  13.448  10.273   1.185
50981SOL     OW54839   3.406   9.867  10.010
50981SOL    HW154840   3.443   9.942   9.963
50981SOL    HW254841   3.317   9.859   9.978
50982SOL     OW54842  13.901   1.477  10.545
50982SOL    HW154843  13.993   1.459  10.524
50982SOL    HW254844  13.881   1.558  10.499
50983SOL     OW54845  11.587  14.231   0.482
50983SOL    HW154846  11.602  14.140   0.507
50983SOL    HW254847  11.674  14.266   0.467
50984SOL     OW54848   0.861   3.367  13.520
50984SOL    HW154849   0.820   3.440  13.475
50984SOL    HW254850   0.834   3.377  13.612
50985SOL     OW54851  13.102   9.874   3.588
50985SOL    HW154852  13.115   9.909   3.676
50985SOL    HW254853  13.152   9.932   3.531
50986SOL     OW54854   4.279   4.354   6.256
50986SOL    HW154855   4.281   4.442   6.292
50986SOL    HW254856   4.361   4.314   6.285
50987SOL     OW54857  13.904   1.943  12.096
50987SOL    HW154858  13.845   1.989  12.156
50987SOL    HW254859  13.876   1.852  12.099
50988SOL     OW54860  14.161   3.714   0.004
50988SOL    HW154861  14.257   3.716  14.872
50988SOL    HW254862  14.143   3.630   0.046
50989SOL     OW54863   6.513   6.532   0.216
50989SOL    HW154864   6.450   6.573   0.276
50989SOL    HW254865   6.464   6.520   0.135
50990SOL     OW54866   4.670  10.313   2.423
50990SOL    HW154867   4.580  10.301   2.455
50990SOL    HW254868   4.725  10.292   2.499
50991SOL     OW54869   4.840   7.746  13.628
50991SOL    HW154870   4.839   7.700  13.544
50991SOL    HW254871   4.859   7.837  13.605
50992SOL     OW54872   5.486  10.068   1.528
50992SOL    HW154873   5.505  10.056   1.436
50992SOL    HW254874   5.467   9.980   1.561
50993SOL     OW54875  14.635  11.967   3.002
50993SOL    HW154876  14.650  11.874   3.021
50993SOL    HW254877  14.618  11.969   2.908
50994SOL     OW54878   4.512  10.719   6.628
50994SOL    HW154879   4.464  10.791   6.586
50994SOL    HW254880   4.578  10.693   6.564
50995SOL     OW54881   1.980   6.787   1.402
50995SOL    HW154882   1.996   6.772   1.495
50995SOL    HW254883   1.889   6.816   1.397
50996SOL     OW54884  12.600   6.199   7.565
50996SOL    HW154885  12.557   6.166   7.486
50996SOL    HW254886  12.553   6.279   7.586
50997SOL     OW54887   9.511  12.842   7.276
50997SOL    HW154888   9.549  12.788   7.345
50997SOL    HW254889   9.421  12.858   7.305
50998SOL     OW54890  11.678  10.807  10.148
50998SOL    HW154891  11.733  10.767  10.081
50998SOL    HW254892  11.649  10.734  10.203
50999SOL     OW54893   0.032   9.159   1.134
50999SOL    HW154894   0.016   9.198   1.049
50999SOL    HW254895   0.083   9.225   1.182
51000SOL     OW54896   3.896   6.521  12.861
51000SOL    HW154897   3.939   6.601  12.832
51000SOL    HW254898   3.896   6.526  12.956
51001SOL     OW54899   3.172   8.931   8.744
51001SOL    HW154900   3.204   8.999   8.804
51001SOL    HW254901   3.226   8.855   8.763
51002SOL     OW54902   7.002   5.309  12.053
51002SOL    HW154903   7.089   5.345  12.036
51002SOL    HW254904   6.994   5.309  12.149
51003SOL     OW54905  10.754   2.792   6.265
51003SOL    HW154906  10.679   2.734   6.264
51003SOL    HW254907  10.723   2.873   6.226
51004SOL     OW54908   9.819   7.210  12.635
51004SOL    HW154909   9.741   7.253  12.601
51004SOL    HW254910   9.790   7.172  12.719
51005SOL     OW54911   0.603  11.305   2.167
51005SOL    HW154912   0.689  11.345   2.152
51005SOL    HW254913   0.575  11.338   2.252
51006SOL     OW54914   8.702   4.185   8.174
51006SOL    HW154915   8.622   4.140   8.201
51006SOL    HW254916   8.673   4.272   8.147
51007SOL     OW54917  13.772   0.089  14.309
51007SOL    HW154918  13.809   0.176  14.321
51007SOL    HW254919  13.840   0.029  14.340
51008SOL     OW54920  12.296   5.299  11.463
51008SOL    HW154921  12.282   5.277  11.555
51008SOL    HW254922  12.284   5.216  11.417
51009SOL     OW54923  12.209  11.435   5.284
51009SOL    HW154924  12.196  11.426   5.379
51009SOL    HW254925  12.137  11.384   5.246
51010SOL     OW54926   5.732  13.525   6.912
51010SOL    HW154927   5.638  13.536   6.918
51010SOL    HW254928   5.769  13.596   6.964
51011SOL     OW54929   5.902   6.855  10.457
51011SOL    HW154930   5.993   6.875  10.479
51011SOL    HW254931   5.854   6.867  10.539
51012SOL     OW54932   7.201  11.870   0.896
51012SOL    HW154933   7.156  11.870   0.980
51012SOL    HW254934   7.133  11.887   0.831
51013SOL     OW54935  13.063   2.658  14.860
51013SOL    HW154936  13.124   2.584  14.872
51013SOL    HW254937  13.116   2.725  14.817
51014SOL     OW54938   6.434   5.879   7.904
51014SOL    HW154939   6.366   5.864   7.839
51014SOL    HW254940   6.478   5.959   7.875
51015SOL     OW54941   5.263  10.539  14.586
51015SOL    HW154942   5.262  10.626  14.625
51015SOL    HW254943   5.184  10.537  14.531
51016SOL     OW54944   2.231   2.609   2.446
51016SOL    HW154945   2.222   2.634   2.538
51016SOL    HW254946   2.194   2.682   2.397
51017SOL     OW54947  12.703  14.593  14.245
51017SOL    HW154948  12.697  14.537  14.322
51017SOL    HW254949  12.691  14.682  14.280
51018SOL     OW54950   3.558  12.624   8.632
51018SOL    HW154951   3.540  12.718   8.634
51018SOL    HW254952   3.593  12.609   8.544
51019SOL     OW54953  10.346   7.850  11.231
51019SOL    HW154954  10.394   7.767  11.237
51019SOL    HW254955  10.314   7.865  11.320
51020SOL     OW54956  13.202  13.578   1.647
51020SOL    HW154957  13.235  13.595   1.735
51020SOL    HW254958  13.132  13.514   1.659
51021SOL     OW54959   2.963   5.775  14.077
51021SOL    HW154960   2.958   5.843  14.010
51021SOL    HW254961   2.966   5.693  14.027
51022SOL     OW54962   3.046   6.057   1.846
51022SOL    HW154963   3.074   5.999   1.917
51022SOL    HW254964   2.969   6.102   1.880
51023SOL     OW54965   4.275  14.113   1.319
51023SOL    HW154966   4.361  14.110   1.360
51023SOL    HW254967   4.276  14.041   1.255
51024SOL     OW54968   8.808   3.940  10.861
51024SOL    HW154969   8.882   3.982  10.818
51024SOL    HW254970   8.731   3.987  10.828
51025SOL     OW54971   2.827   9.898   5.614
51025SOL    HW154972   2.814   9.862   5.702
51025SOL    HW254973   2.870   9.827   5.566
51026SOL     OW54974   8.952   9.459   2.289
51026SOL    HW154975   8.996   9.527   2.339
51026SOL    HW254976   8.874   9.502   2.254
51027SOL     OW54977   6.357   4.504   2.740
51027SOL    HW154978   6.445   4.514   2.705
51027SOL    HW254979   6.360   4.551   2.824
51028SOL     OW54980   9.307  12.701   4.357
51028SOL    HW154981   9.304  12.675   4.265
51028SOL    HW254982   9.249  12.776   4.363
51029SOL     OW54983  11.233   9.965  10.539
51029SOL    HW154984  11.227   9.960  10.635
51029SOL    HW254985  11.217  10.057  10.519
51030SOL     OW54986   3.546   0.178   5.275
51030SOL    HW154987   3.473   0.153   5.332
51030SOL    HW254988   3.506   0.236   5.210
51031SOL     OW54989   9.732   1.534   7.717
51031SOL    HW154990   9.789   1.498   7.650
51031SOL    HW254991   9.646   1.497   7.697
51032SOL     OW54992   4.072  14.000   7.011
51032SOL    HW154993   4.088  14.091   7.038
51032SOL    HW254994   3.999  14.006   6.950
51033SOL     OW54995   4.581   6.273   8.001
51033SOL    HW154996   4.569   6.247   8.092
51033SOL    HW254997   4.551   6.364   7.997
51034SOL     OW54998  10.338   1.167  11.955
51034SOL    HW154999  10.328   1.185  11.861
51034SOL    HW255000  10.254   1.127  11.980
51035SOL     OW55001   0.195   8.806  11.238
51035SOL    HW155002   0.197   8.824  11.144
51035SOL    HW255003   0.287   8.797  11.262
51036SOL     OW55004   9.613   5.088   8.546
51036SOL    HW155005   9.598   5.183   8.541
51036SOL    HW255006   9.579   5.063   8.632
51037SOL     OW55007   0.097   6.199   2.880
51037SOL    HW155008   0.137   6.231   2.800
51037SOL    HW255009   0.095   6.275   2.938
51038SOL     OW55010  10.084   5.554  10.532
51038SOL    HW155011  10.127   5.493  10.472
51038SOL    HW255012  10.137   5.634  10.527
51039SOL     OW55013  10.798   1.186   3.373
51039SOL    HW155014  10.746   1.119   3.328
51039SOL    HW255015  10.832   1.241   3.303
51040SOL     OW55016   3.767   6.013  10.809
51040SOL    HW155017   3.682   6.018  10.852
51040SOL    HW255018   3.773   6.093  10.757
51041SOL     OW55019   5.223  12.858  12.346
51041SOL    HW155020   5.130  12.837  12.354
51041SOL    HW255021   5.268  12.782  12.382
51042SOL     OW55022   4.140  13.845   2.707
51042SOL    HW155023   4.214  13.791   2.680
51042SOL    HW255024   4.148  13.851   2.802
51043SOL     OW55025   4.624   4.747   7.776
51043SOL    HW155026   4.655   4.826   7.821
51043SOL    HW255027   4.699   4.719   7.723
51044SOL     OW55028   2.390   1.337  11.651
51044SOL    HW155029   2.463   1.389  11.617
51044SOL    HW255030   2.432   1.270  11.706
51045SOL     OW55031   9.403  14.247  12.095
51045SOL    HW155032   9.378  14.187  12.166
51045SOL    HW255033   9.380  14.334  12.127
51046SOL     OW55034   8.669  13.123   3.458
51046SOL    HW155035   8.595  13.175   3.425
51046SOL    HW255036   8.628  13.053   3.509
51047SOL     OW55037   9.674  14.779   2.845
51047SOL    HW155038   9.629  14.737   2.771
51047SOL    HW255039   9.699  14.706   2.902
51048SOL     OW55040   0.573  10.334   1.089
51048SOL    HW155041   0.621  10.409   1.053
51048SOL    HW255042   0.640  10.265   1.098
51049SOL     OW55043  11.347   0.796   7.156
51049SOL    HW155044  11.283   0.813   7.225
51049SOL    HW255045  11.426   0.770   7.203
51050SOL     OW55046  11.552  14.243  11.874
51050SOL    HW155047  11.583  14.163  11.918
51050SOL    HW255048  11.557  14.311  11.942
51051SOL     OW55049   6.956   5.269   7.866
51051SOL    HW155050   6.992   5.189   7.828
51051SOL    HW255051   6.885   5.294   7.806
51052SOL     OW55052   0.749   6.903  14.514
51052SOL    HW155053   0.790   6.832  14.563
51052SOL    HW255054   0.766   6.982  14.566
51053SOL     OW55055   9.811   7.859  13.658
51053SOL    HW155056   9.863   7.841  13.579
51053SOL    HW255057   9.734   7.905  13.626
51054SOL     OW55058   5.503   5.627  13.413
51054SOL    HW155059   5.584   5.595  13.372
51054SOL    HW255060   5.512   5.603  13.505
51055SOL     OW55061   0.804  11.704  13.538
51055SOL    HW155062   0.811  11.636  13.606
51055SOL    HW255063   0.786  11.784  13.587
51056SOL     OW55064  14.576  13.691  12.971
51056SOL    HW155065  14.502  13.751  12.964
51056SOL    HW255066  14.535  13.604  12.972
51057SOL     OW55067   1.975  10.935   1.913
51057SOL    HW155068   2.044  11.002   1.919
51057SOL    HW255069   1.997  10.885   1.835
51058SOL     OW55070   7.642   4.999  10.751
51058SOL    HW155071   7.708   5.065  10.774
51058SOL    HW255072   7.573   5.049  10.707
51059SOL     OW55073   7.286  13.522   9.025
51059SOL    HW155074   7.276  13.516   8.930
51059SOL    HW255075   7.330  13.606   9.039
51060SOL     OW55076  14.028  12.741   1.225
51060SOL    HW155077  13.959  12.719   1.163
51060SOL    HW255078  14.096  12.675   1.210
51061SOL     OW55079  14.866  10.735   6.407
51061SOL    HW155080  14.851  10.708   6.317
51061SOL    HW255081   0.042  10.665   6.445
51062SOL     OW55082  10.775   1.921   2.174
51062SOL    HW155083  10.772   1.971   2.255
51062SOL    HW255084  10.868   1.917   2.151
51063SOL     OW55085  12.658   1.852   6.691
51063SOL    HW155086  12.679   1.815   6.605
51063SOL    HW255087  12.611   1.783   6.736
51064SOL     OW55088   4.694  13.709  12.409
51064SOL    HW155089   4.725  13.751  12.490
51064SOL    HW255090   4.705  13.776  12.342
51065SOL     OW55091  14.100  12.370   3.370
51065SOL    HW155092  14.031  12.391   3.433
51065SOL    HW255093  14.080  12.280   3.342
51066SOL     OW55094   1.469   5.584   7.764
51066SOL    HW155095   1.459   5.490   7.747
51066SOL    HW255096   1.382   5.614   7.787
51067SOL     OW55097   8.737   2.081   6.988
51067SOL    HW155098   8.662   2.024   6.970
51067SOL    HW255099   8.729   2.102   7.081
51068SOL     OW55100  11.420  13.170   9.552
51068SOL    HW155101  11.383  13.091   9.514
51068SOL    HW255102  11.394  13.240   9.493
51069SOL     OW55103   1.164   6.093   2.037
51069SOL    HW155104   1.146   6.017   1.982
51069SOL    HW255105   1.198   6.057   2.118
51070SOL     OW55106   5.142  12.822   9.050
51070SOL    HW155107   5.138  12.750   8.987
51070SOL    HW255108   5.060  12.869   9.037
51071SOL     OW55109   9.970   8.671   1.817
51071SOL    HW155110  10.039   8.648   1.879
51071SOL    HW255111   9.905   8.718   1.869
51072SOL     OW55112   2.405   4.396   7.625
51072SOL    HW155113   2.465   4.431   7.559
51072SOL    HW255114   2.398   4.303   7.604
51073SOL     OW55115   4.378   1.224   8.190
51073SOL    HW155116   4.470   1.243   8.170
51073SOL    HW255117   4.352   1.160   8.124
51074SOL     OW55118   5.436   8.625   1.548
51074SOL    HW155119   5.490   8.602   1.623
51074SOL    HW255120   5.381   8.697   1.578
51075SOL     OW55121   8.387  13.224  13.552
51075SOL    HW155122   8.347  13.272  13.479
51075SOL    HW255123   8.341  13.257  13.630
51076SOL     OW55124   2.666   6.743   6.595
51076SOL    HW155125   2.704   6.667   6.550
51076SOL    HW255126   2.703   6.818   6.549
51077SOL     OW55127   0.300   4.582   8.836
51077SOL    HW155128   0.227   4.626   8.880
51077SOL    HW255129   0.373   4.643   8.844
51078SOL     OW55130  13.421   9.142   5.229
51078SOL    HW155131  13.404   9.234   5.209
51078SOL    HW255132  13.409   9.097   5.146
51079SOL     OW55133   3.956   0.888   5.116
51079SOL    HW155134   3.873   0.841   5.125
51079SOL    HW255135   3.975   0.885   5.022
51080SOL     OW55136   6.373  14.546   9.496
51080SOL    HW155137   6.401  14.624   9.449
51080SOL    HW255138   6.383  14.568   9.589
51081SOL     OW55139   2.839   5.466   7.212
51081SOL    HW155140   2.828   5.539   7.273
51081SOL    HW255141   2.752   5.429   7.202
51082SOL     OW55142   6.082   0.983   2.794
51082SOL    HW155143   6.057   0.942   2.711
51082SOL    HW255144   6.170   0.950   2.811
51083SOL     OW55145   2.861  13.074   7.940
51083SOL    HW155146   2.824  12.995   7.979
51083SOL    HW255147   2.879  13.132   8.014
51084SOL     OW55148   4.805   0.024  10.058
51084SOL    HW155149   4.710   0.017  10.060
51084SOL    HW255150   4.829   0.000   9.968
51085SOL     OW55151   4.097   0.733   8.673
51085SOL    HW155152   4.010   0.708   8.644
51085SOL    HW255153   4.087   0.749   8.767
51086SOL     OW55154   0.126   7.655   2.158
51086SOL    HW155155   0.114   7.616   2.244
51086SOL    HW255156   0.097   7.746   2.168
51087SOL     OW55157   3.832   8.932   9.475
51087SOL    HW155158   3.842   8.916   9.569
51087SOL    HW255159   3.855   9.025   9.464
51088SOL     OW55160   1.985   1.946  13.554
51088SOL    HW155161   2.043   2.021  13.542
51088SOL    HW255162   2.040   1.879  13.594
51089SOL     OW55163  14.188   3.086   1.556
51089SOL    HW155164  14.206   3.180   1.546
51089SOL    HW255165  14.104   3.073   1.510
51090SOL     OW55166   3.019  11.282  11.019
51090SOL    HW155167   3.090  11.275  10.955
51090SOL    HW255168   2.962  11.350  10.984
51091SOL     OW55169  14.019   2.515   8.001
51091SOL    HW155170  14.044   2.425   8.024
51091SOL    HW255171  14.076   2.538   7.928
51092SOL     OW55172   3.858   2.512   9.554
51092SOL    HW155173   3.854   2.506   9.649
51092SOL    HW255174   3.950   2.534   9.535
51093SOL     OW55175   4.522  12.856  13.597
51093SOL    HW155176   4.445  12.900  13.634
51093SOL    HW255177   4.499  12.764  13.595
51094SOL     OW55178   9.380  11.038   7.552
51094SOL    HW155179   9.441  11.107   7.578
51094SOL    HW255180   9.417  10.958   7.589
51095SOL     OW55181   4.219   6.279   2.644
51095SOL    HW155182   4.301   6.329   2.636
51095SOL    HW255183   4.243   6.190   2.619
51096SOL     OW55184   5.112   3.332   3.608
51096SOL    HW155185   5.146   3.273   3.675
51096SOL    HW255186   5.019   3.308   3.601
51097SOL     OW55187   3.627  12.039  11.051
51097SOL    HW155188   3.622  11.996  10.965
51097SOL    HW255189   3.580  11.980  11.110
51098SOL     OW55190  11.328   0.707   4.129
51098SOL    HW155191  11.270   0.631   4.135
51098SOL    HW255192  11.396   0.680   4.067
51099SOL     OW55193   4.504   7.068   8.602
51099SOL    HW155194   4.510   7.080   8.507
51099SOL    HW255195   4.480   6.976   8.613
51100SOL     OW55196  10.122  11.499  13.844
51100SOL    HW155197  10.148  11.589  13.823
51100SOL    HW255198  10.142  11.490  13.937
51101SOL     OW55199   0.210   0.829   2.919
51101SOL    HW155200   0.130   0.874   2.946
51101SOL    HW255201   0.180   0.745   2.883
51102SOL     OW55202   6.874   8.020   1.098
51102SOL    HW155203   6.894   8.043   1.189
51102SOL    HW255204   6.953   7.976   1.067
51103SOL     OW55205  13.513  13.686   0.535
51103SOL    HW155206  13.545  13.641   0.613
51103SOL    HW255207  13.433  13.639   0.512
51104SOL     OW55208  13.736   8.868  14.162
51104SOL    HW155209  13.711   8.844  14.073
51104SOL    HW255210  13.823   8.831  14.174
51105SOL     OW55211  10.608  10.202   0.675
51105SOL    HW155212  10.669  10.242   0.737
51105SOL    HW255213  10.590  10.271   0.611
51106SOL     OW55214   3.577   5.384   1.589
51106SOL    HW155215   3.560   5.450   1.656
51106SOL    HW255216   3.613   5.309   1.637
51107SOL     OW55217  13.189  13.883   4.338
51107SOL    HW155218  13.125  13.884   4.268
51107SOL    HW255219  13.273  13.900   4.295
51108SOL     OW55220  13.096   6.749   3.819
51108SOL    HW155221  13.001   6.736   3.816
51108SOL    HW255222  13.130   6.667   3.856
51109SOL     OW55223   2.975   6.345   1.045
51109SOL    HW155224   2.923   6.351   1.125
51109SOL    HW255225   3.036   6.274   1.060
51110SOL     OW55226  13.733   6.803   5.076
51110SOL    HW155227  13.740   6.746   5.000
51110SOL    HW255228  13.643   6.835   5.074
51111SOL     OW55229   1.574  10.714  14.015
51111SOL    HW155230   1.510  10.722  13.944
51111SOL    HW255231   1.655  10.750  13.978
51112SOL     OW55232  11.754   7.848  11.180
51112SOL    HW155233  11.796   7.798  11.250
51112SOL    HW255234  11.806   7.928  11.174
51113SOL     OW55235  10.142   6.595  12.873
51113SOL    HW155236  10.215   6.654  12.892
51113SOL    HW255237  10.179   6.507  12.883
51114SOL     OW55238   9.529  13.690  10.521
51114SOL    HW155239   9.598  13.664  10.461
51114SOL    HW255240   9.483  13.760  10.475
51115SOL     OW55241   2.125   7.495   2.024
51115SOL    HW155242   2.217   7.520   2.023
51115SOL    HW255243   2.082   7.559   1.967
51116SOL     OW55244   2.535  12.772  11.525
51116SOL    HW155245   2.505  12.847  11.576
51116SOL    HW255246   2.597  12.808  11.462
51117SOL     OW55247   6.601  12.552   6.145
51117SOL    HW155248   6.576  12.561   6.053
51117SOL    HW255249   6.647  12.633   6.166
51118SOL     OW55250  14.030   9.861   3.506
51118SOL    HW155251  13.967   9.932   3.492
51118SOL    HW255252  14.003   9.793   3.444
51119SOL     OW55253  10.007  11.058   8.600
51119SOL    HW155254  10.038  11.117   8.669
51119SOL    HW255255   9.958  11.114   8.540
51120SOL     OW55256  10.001   8.216   8.423
51120SOL    HW155257   9.999   8.303   8.462
51120SOL    HW255258   9.937   8.219   8.352
51121SOL     OW55259   7.103   1.207   1.209
51121SOL    HW155260   7.072   1.290   1.244
51121SOL    HW255261   7.048   1.191   1.132
51122SOL     OW55262  11.221   7.819  12.449
51122SOL    HW155263  11.158   7.876  12.493
51122SOL    HW255264  11.241   7.864  12.367
51123SOL     OW55265   7.803  13.742  13.864
51123SOL    HW155266   7.822  13.820  13.812
51123SOL    HW255267   7.871  13.741  13.932
51124SOL     OW55268   7.595  10.680   7.859
51124SOL    HW155269   7.610  10.722   7.775
51124SOL    HW255270   7.500  10.663   7.862
51125SOL     OW55271   4.446  13.732   8.216
51125SOL    HW155272   4.460  13.748   8.310
51125SOL    HW255273   4.376  13.667   8.214
51126SOL     OW55274   9.434   5.012   3.120
51126SOL    HW155275   9.369   5.006   3.049
51126SOL    HW255276   9.462   4.922   3.135
51127SOL     OW55277   4.895  11.285   2.460
51127SOL    HW155278   4.815  11.328   2.431
51127SOL    HW255279   4.956  11.296   2.386
51128SOL     OW55280   2.188  12.333   1.811
51128SOL    HW155281   2.112  12.284   1.778
51128SOL    HW255282   2.181  12.326   1.906
51129SOL     OW55283  13.753   9.554   2.956
51129SOL    HW155284  13.813   9.626   2.976
51129SOL    HW255285  13.726   9.521   3.042
51130SOL     OW55286   8.115   5.201  13.883
51130SOL    HW155287   8.142   5.115  13.850
51130SOL    HW255288   8.049   5.181  13.949
51131SOL     OW55289   6.424   5.586   4.757
51131SOL    HW155290   6.398   5.647   4.826
51131SOL    HW255291   6.402   5.630   4.675
51132SOL     OW55292   8.460  12.369   7.414
51132SOL    HW155293   8.440  12.277   7.431
51132SOL    HW255294   8.553  12.368   7.390
51133SOL     OW55295   5.450   3.323  12.235
51133SOL    HW155296   5.507   3.246  12.240
51133SOL    HW255297   5.464   3.357  12.147
51134SOL     OW55298   7.958  10.327   4.467
51134SOL    HW155299   7.985  10.272   4.394
51134SOL    HW255300   8.021  10.308   4.537
51135SOL     OW55301   4.795   9.487   6.727
51135SOL    HW155302   4.862   9.463   6.662
51135SOL    HW255303   4.837   9.470   6.812
51136SOL     OW55304  14.082   7.117   7.166
51136SOL    HW155305  14.001   7.151   7.129
51136SOL    HW255306  14.057   7.084   7.252
51137SOL     OW55307   3.325   2.198   5.542
51137SOL    HW155308   3.319   2.279   5.491
51137SOL    HW255309   3.413   2.166   5.525
51138SOL     OW55310  13.743   3.869  14.293
51138SOL    HW155311  13.765   3.860  14.386
51138SOL    HW255312  13.774   3.788  14.253
51139SOL     OW55313  14.184   1.003  12.375
51139SOL    HW155314  14.258   1.064  12.375
51139SOL    HW255315  14.107   1.060  12.378
51140SOL     OW55316  10.825   1.806   6.340
51140SOL    HW155317  10.899   1.866   6.328
51140SOL    HW255318  10.752   1.847   6.292
51141SOL     OW55319   5.911  14.859  12.914
51141SOL    HW155320   5.897   0.076  12.907
51141SOL    HW255321   5.936  14.832  12.826
51142SOL     OW55322  10.789   8.574   9.960
51142SOL    HW155323  10.803   8.506  10.026
51142SOL    HW255324  10.808   8.530   9.877
51143SOL     OW55325   6.370  13.923   6.432
51143SOL    HW155326   6.317  13.849   6.403
51143SOL    HW255327   6.308  13.982   6.476
51144SOL     OW55328   4.611   1.735  10.693
51144SOL    HW155329   4.622   1.663  10.754
51144SOL    HW255330   4.565   1.697  10.618
51145SOL     OW55331   2.819  12.924  12.891
51145SOL    HW155332   2.868  12.863  12.947
51145SOL    HW255333   2.774  12.868  12.828
51146SOL     OW55334   9.187   5.302   7.667
51146SOL    HW155335   9.159   5.254   7.745
51146SOL    HW255336   9.218   5.386   7.700
51147SOL     OW55337   6.005   6.351   3.385
51147SOL    HW155338   5.988   6.403   3.464
51147SOL    HW255339   5.940   6.382   3.322
51148SOL     OW55340   1.983   0.103   0.202
51148SOL    HW155341   1.949   0.167   0.264
51148SOL    HW255342   2.026   0.037   0.256
51149SOL     OW55343   3.388   5.511   5.487
51149SOL    HW155344   3.451   5.458   5.535
51149SOL    HW255345   3.441   5.576   5.441
51150SOL     OW55346   2.261   7.082   7.801
51150SOL    HW155347   2.279   7.172   7.773
51150SOL    HW255348   2.337   7.058   7.854
51151SOL     OW55349   4.165  12.446   1.320
51151SOL    HW155350   4.246  12.493   1.338
51151SOL    HW255351   4.129  12.426   1.406
51152SOL     OW55352   4.269  11.762  14.284
51152SOL    HW155353   4.183  11.739  14.319
51152SOL    HW255354   4.318  11.795  14.360
51153SOL     OW55355   4.446   0.348   2.138
51153SOL    HW155356   4.505   0.408   2.184
51153SOL    HW255357   4.474   0.261   2.164
51154SOL     OW55358  12.289   6.730   7.301
51154SOL    HW155359  12.281   6.777   7.217
51154SOL    HW255360  12.215   6.761   7.352
51155SOL     OW55361   0.395   2.341  11.571
51155SOL    HW155362   0.355   2.254  11.583
51155SOL    HW255363   0.402   2.375  11.660
51156SOL     OW55364   7.483  13.136   3.257
51156SOL    HW155365   7.573  13.128   3.289
51156SOL    HW255366   7.434  13.168   3.333
51157SOL     OW55367   1.975  11.091   4.540
51157SOL    HW155368   1.969  11.114   4.448
51157SOL    HW255369   2.062  11.051   4.550
51158SOL     OW55370   6.603  10.359   3.696
51158SOL    HW155371   6.625  10.423   3.764
51158SOL    HW255372   6.509  10.346   3.706
51159SOL     OW55373  10.440   7.443   2.272
51159SOL    HW155374  10.366   7.500   2.293
51159SOL    HW255375  10.402   7.373   2.218
51160SOL     OW55376  13.919   7.055   6.524
51160SOL    HW155377  13.907   7.029   6.616
51160SOL    HW255378  13.846   7.114   6.506
51161SOL     OW55379   9.611  10.313  10.209
51161SOL    HW155380   9.576  10.238  10.257
51161SOL    HW255381   9.705  10.310  10.224
51162SOL     OW55382   2.163   3.002   6.947
51162SOL    HW155383   2.154   2.990   6.853
51162SOL    HW255384   2.210   2.924   6.977
51163SOL     OW55385   2.904  13.942  12.106
51163SOL    HW155386   2.973  13.921  12.043
51163SOL    HW255387   2.857  13.860  12.119
51164SOL     OW55388   1.463  13.940   8.783
51164SOL    HW155389   1.411  13.861   8.792
51164SOL    HW255390   1.471  13.954   8.688
51165SOL     OW55391  14.007  11.687   9.853
51165SOL    HW155392  13.959  11.767   9.833
51165SOL    HW255393  13.988  11.628   9.780
51166SOL     OW55394  13.778   1.090  11.361
51166SOL    HW155395  13.748   0.999  11.362
51166SOL    HW255396  13.814   1.104  11.448
51167SOL     OW55397   5.229  12.269   2.895
51167SOL    HW155398   5.275  12.241   2.974
51167SOL    HW255399   5.299  12.293   2.834
51168SOL     OW55400   7.045  13.217   2.587
51168SOL    HW155401   7.096  13.150   2.633
51168SOL    HW255402   6.965  13.225   2.639
51169SOL     OW55403   4.144   6.201  14.643
51169SOL    HW155404   4.064   6.228  14.688
51169SOL    HW255405   4.190   6.283  14.625
51170SOL     OW55406   4.311   3.981   6.529
51170SOL    HW155407   4.237   4.040   6.521
51170SOL    HW255408   4.369   4.024   6.592
51171SOL     OW55409   0.178  14.445  13.206
51171SOL    HW155410   0.127  14.371  13.240
51171SOL    HW255411   0.265  14.408  13.191
51172SOL     OW55412   4.768  13.976  14.401
51172SOL    HW155413   4.814  13.956  14.482
51172SOL    HW255414   4.820  13.934  14.333
51173SOL     OW55415  13.894   1.010   9.670
51173SOL    HW155416  13.857   0.937   9.719
51173SOL    HW255417  13.954   1.052   9.732
51174SOL     OW55418   8.486   7.825   3.555
51174SOL    HW155419   8.417   7.891   3.561
51174SOL    HW255420   8.517   7.831   3.464
51175SOL     OW55421   0.294   2.235   5.558
51175SOL    HW155422   0.308   2.151   5.514
51175SOL    HW255423   0.368   2.243   5.618
51176SOL     OW55424   9.016  12.238   7.210
51176SOL    HW155425   9.106  12.256   7.186
51176SOL    HW255426   9.020  12.157   7.261
51177SOL     OW55427   2.486  11.855  12.053
51177SOL    HW155428   2.428  11.925  12.084
51177SOL    HW255429   2.574  11.892  12.056
51178SOL     OW55430   9.204   5.493   6.619
51178SOL    HW155431   9.196   5.455   6.706
51178SOL    HW255432   9.129   5.457   6.570
51179SOL     OW55433   9.640  12.592   9.987
51179SOL    HW155434   9.646  12.545  10.070
51179SOL    HW255435   9.569  12.655  10.000
51180SOL     OW55436   8.910  13.662   8.487
51180SOL    HW155437   8.883  13.592   8.546
51180SOL    HW255438   8.943  13.731   8.545
51181SOL     OW55439   7.035  11.368   2.236
51181SOL    HW155440   7.057  11.342   2.326
51181SOL    HW255441   6.949  11.328   2.221
51182SOL     OW55442   7.752   8.034   3.741
51182SOL    HW155443   7.766   8.008   3.650
51182SOL    HW255444   7.832   8.006   3.786
51183SOL     OW55445  10.512   1.620   8.838
51183SOL    HW155446  10.506   1.525   8.842
51183SOL    HW255447  10.431   1.651   8.879
51184SOL     OW55448   9.724   0.181   0.859
51184SOL    HW155449   9.721   0.123   0.936
51184SOL    HW255450   9.632   0.205   0.845
51185SOL     OW55451   7.990   5.306  11.089
51185SOL    HW155452   8.046   5.350  11.153
51185SOL    HW255453   8.050   5.272  11.023
51186SOL     OW55454   9.259   1.236   8.748
51186SOL    HW155455   9.184   1.294   8.760
51186SOL    HW255456   9.250   1.205   8.658
51187SOL     OW55457   3.045   9.455  13.798
51187SOL    HW155458   3.038   9.384  13.861
51187SOL    HW255459   3.140   9.468  13.787
51188SOL     OW55460  13.972  14.849   8.721
51188SOL    HW155461  14.033  14.780   8.748
51188SOL    HW255462  13.916  14.862   8.797
51189SOL     OW55463   2.411  13.898  11.637
51189SOL    HW155464   2.504  13.910  11.655
51189SOL    HW255465   2.372  13.877  11.722
51190SOL     OW55466   7.101  12.474   8.882
51190SOL    HW155467   7.019  12.457   8.927
51190SOL    HW255468   7.086  12.556   8.835
51191SOL     OW55469   1.233   5.682   4.872
51191SOL    HW155470   1.326   5.687   4.849
51191SOL    HW255471   1.203   5.600   4.833
51192SOL     OW55472  10.890   3.416  13.108
51192SOL    HW155473  10.879   3.511  13.118
51192SOL    HW255474  10.809   3.379  13.142
51193SOL     OW55475   6.545  12.437  10.861
51193SOL    HW155476   6.614  12.499  10.839
51193SOL    HW255477   6.514  12.465  10.947
51194SOL     OW55478   6.936   2.014   1.613
51194SOL    HW155479   6.958   2.055   1.530
51194SOL    HW255480   6.989   2.060   1.678
51195SOL     OW55481   0.388   2.288   6.353
51195SOL    HW155482   0.317   2.255   6.298
51195SOL    HW255483   0.363   2.378   6.373
51196SOL     OW55484   2.058  12.148   9.801
51196SOL    HW155485   2.116  12.203   9.749
51196SOL    HW255486   1.986  12.206   9.827
51197SOL     OW55487   7.612   8.264   2.844
51197SOL    HW155488   7.576   8.346   2.878
51197SOL    HW255489   7.688   8.246   2.899
51198SOL     OW55490   6.736   3.541   8.671
51198SOL    HW155491   6.764   3.487   8.745
51198SOL    HW255492   6.814   3.591   8.647
51199SOL     OW55493   8.491   8.298  13.076
51199SOL    HW155494   8.518   8.381  13.038
51199SOL    HW255495   8.397   8.292  13.058
51200SOL     OW55496   3.729   0.682   8.302
51200SOL    HW155497   3.641   0.696   8.338
51200SOL    HW255498   3.753   0.768   8.268
51201SOL     OW55499   2.835   1.019  13.829
51201SOL    HW155500   2.755   1.023  13.881
51201SOL    HW255501   2.831   1.097  13.774
51202SOL     OW55502  13.832   5.085   1.242
51202SOL    HW155503  13.827   5.030   1.319
51202SOL    HW255504  13.924   5.082   1.216
51203SOL     OW55505  11.551   2.039   5.631
51203SOL    HW155506  11.548   1.951   5.592
51203SOL    HW255507  11.460   2.068   5.631
51204SOL     OW55508  10.334  11.010  13.449
51204SOL    HW155509  10.394  11.036  13.518
51204SOL    HW255510  10.249  11.046  13.476
51205SOL     OW55511   9.023   6.965  14.316
51205SOL    HW155512   8.975   6.904  14.373
51205SOL    HW255513   8.991   7.051  14.343
51206SOL     OW55514   5.255   2.062   8.624
51206SOL    HW155515   5.190   2.094   8.686
51206SOL    HW255516   5.339   2.093   8.659
51207SOL     OW55517   5.943  13.919  12.516
51207SOL    HW155518   5.946  14.013  12.499
51207SOL    HW255519   6.034  13.893  12.527
51208SOL     OW55520   5.272   5.239   9.447
51208SOL    HW155521   5.363   5.211   9.433
51208SOL    HW255522   5.273   5.279   9.534
51209SOL     OW55523   6.298  10.955  11.475
51209SOL    HW155524   6.281  10.984  11.385
51209SOL    HW255525   6.287  11.033  11.528
51210SOL     OW55526   3.415  14.723  13.572
51210SOL    HW155527   3.330  14.704  13.612
51210SOL    HW255528   3.402  14.705  13.479
51211SOL     OW55529   9.153   6.170  12.049
51211SOL    HW155530   9.246   6.156  12.066
51211SOL    HW255531   9.151   6.241  11.985
51212SOL     OW55532   6.019   3.605   2.974
51212SOL    HW155533   6.104   3.594   3.016
51212SOL    HW255534   5.963   3.538   3.015
51213SOL     OW55535  12.214  11.476   7.126
51213SOL    HW155536  12.285  11.525   7.167
51213SOL    HW255537  12.220  11.388   7.163
51214SOL     OW55538   6.085   0.984  10.321
51214SOL    HW155539   6.103   0.980  10.227
51214SOL    HW255540   6.089   1.078  10.342
51215SOL     OW55541   0.995   9.488  11.250
51215SOL    HW155542   1.054   9.514  11.320
51215SOL    HW255543   1.045   9.426  11.197
51216SOL     OW55544  12.358   9.131   0.335
51216SOL    HW155545  12.364   9.163   0.425
51216SOL    HW255546  12.433   9.170   0.291
51217SOL     OW55547   7.585  13.496   0.732
51217SOL    HW155548   7.650  13.463   0.671
51217SOL    HW255549   7.567  13.585   0.703
51218SOL     OW55550   5.318   6.523   3.565
51218SOL    HW155551   5.368   6.603   3.581
51218SOL    HW255552   5.371   6.454   3.605
51219SOL     OW55553  13.523   3.207   1.848
51219SOL    HW155554  13.515   3.138   1.783
51219SOL    HW255555  13.591   3.175   1.908
51220SOL     OW55556  14.268  12.596  13.939
51220SOL    HW155557  14.277  12.512  13.894
51220SOL    HW255558  14.303  12.580  14.026
51221SOL     OW55559  12.769   8.217   2.960
51221SOL    HW155560  12.857   8.220   2.923
51221SOL    HW255561  12.776   8.263   3.043
51222SOL     OW55562  12.511  12.883   7.126
51222SOL    HW155563  12.540  12.803   7.170
51222SOL    HW255564  12.489  12.943   7.197
51223SOL     OW55565  13.274   1.681  11.483
51223SOL    HW155566  13.358   1.637  11.468
51223SOL    HW255567  13.208   1.614  11.462
51224SOL     OW55568  13.323   7.209   5.078
51224SOL    HW155569  13.332   7.159   4.996
51224SOL    HW255570  13.370   7.157   5.143
51225SOL     OW55571   8.179  14.459   2.115
51225SOL    HW155572   8.222  14.404   2.181
51225SOL    HW255573   8.095  14.415   2.099
51226SOL     OW55574   6.151   1.206   2.375
51226SOL    HW155575   6.224   1.261   2.345
51226SOL    HW255576   6.192   1.140   2.430
51227SOL     OW55577  13.024  12.554   0.155
51227SOL    HW155578  13.077  12.483   0.117
51227SOL    HW255579  13.088  12.619   0.183
51228SOL     OW55580   9.669   2.130   4.300
51228SOL    HW155581   9.597   2.170   4.349
51228SOL    HW255582   9.719   2.204   4.266
51229SOL     OW55583   1.278   2.981   9.543
51229SOL    HW155584   1.231   3.036   9.480
51229SOL    HW255585   1.235   2.896   9.537
51230SOL     OW55586   8.758  13.681   6.319
51230SOL    HW155587   8.664  13.664   6.321
51230SOL    HW255588   8.791  13.627   6.248
51231SOL     OW55589   5.802  10.490   4.881
51231SOL    HW155590   5.772  10.581   4.873
51231SOL    HW255591   5.746  10.441   4.821
51232SOL     OW55592   7.346   5.173  13.962
51232SOL    HW155593   7.384   5.137  14.042
51232SOL    HW255594   7.295   5.248  13.991
51233SOL     OW55595   2.365   0.481  12.875
51233SOL    HW155596   2.343   0.439  12.958
51233SOL    HW255597   2.285   0.528  12.850
51234SOL     OW55598   1.821  11.290   7.098
51234SOL    HW155599   1.760  11.347   7.145
51234SOL    HW255600   1.895  11.279   7.158
51235SOL     OW55601   7.520   3.585  11.259
51235SOL    HW155602   7.574   3.663  11.246
51235SOL    HW255603   7.462   3.582  11.183
51236SOL     OW55604   5.314   3.182  11.538
51236SOL    HW155605   5.366   3.257  11.510
51236SOL    HW255606   5.223   3.212  11.533
51237SOL     OW55607  10.850  10.589   6.644
51237SOL    HW155608  10.801  10.532   6.703
51237SOL    HW255609  10.789  10.661   6.625
51238SOL     OW55610   9.455   3.650  12.308
51238SOL    HW155611   9.409   3.606  12.380
51238SOL    HW255612   9.433   3.743  12.319
51239SOL     OW55613   5.643   4.447   3.886
51239SOL    HW155614   5.630   4.405   3.801
51239SOL    HW255615   5.735   4.471   3.887
51240SOL     OW55616   6.634   3.708   5.249
51240SOL    HW155617   6.607   3.670   5.332
51240SOL    HW255618   6.675   3.635   5.201
51241SOL     OW55619   6.674   6.855   9.173
51241SOL    HW155620   6.680   6.764   9.204
51241SOL    HW255621   6.763   6.878   9.147
51242SOL     OW55622   5.684   1.109   1.316
51242SOL    HW155623   5.698   1.153   1.232
51242SOL    HW255624   5.772   1.084   1.345
51243SOL     OW55625  13.515  11.267  12.236
51243SOL    HW155626  13.507  11.348  12.287
51243SOL    HW255627  13.484  11.291  12.148
51244SOL     OW55628   3.893   1.566   7.508
51244SOL    HW155629   3.908   1.493   7.447
51244SOL    HW255630   3.980   1.597   7.530
51245SOL     OW55631  10.095   7.387  10.397
51245SOL    HW155632  10.056   7.395  10.310
51245SOL    HW255633  10.036   7.437  10.454
51246SOL     OW55634   2.102   1.854   0.610
51246SOL    HW155635   2.056   1.836   0.692
51246SOL    HW255636   2.133   1.944   0.618
51247SOL     OW55637   3.629  12.266  10.361
51247SOL    HW155638   3.608  12.347  10.314
51247SOL    HW255639   3.690  12.293  10.429
51248SOL     OW55640  11.815   1.421   3.808
51248SOL    HW155641  11.815   1.353   3.741
51248SOL    HW255642  11.755   1.488   3.775
51249SOL     OW55643   2.442   9.400  14.431
51249SOL    HW155644   2.393   9.370  14.508
51249SOL    HW255645   2.379   9.396  14.359
51250SOL     OW55646  10.802  14.848   8.731
51250SOL    HW155647  10.732  14.784   8.738
51250SOL    HW255648  10.882  14.795   8.724
51251SOL     OW55649   2.741   9.240   7.989
51251SOL    HW155650   2.837   9.242   7.993
51251SOL    HW255651   2.716   9.330   7.970
51252SOL     OW55652   6.583   2.778   8.283
51252SOL    HW155653   6.639   2.841   8.237
51252SOL    HW255654   6.644   2.723   8.332
51253SOL     OW55655   8.888  14.697   8.388
51253SOL    HW155656   8.912  14.663   8.302
51253SOL    HW255657   8.968  14.737   8.421
51254SOL     OW55658  12.805   9.852  12.573
51254SOL    HW155659  12.721   9.828  12.612
51254SOL    HW255660  12.792   9.836  12.479
51255SOL     OW55661  13.250   5.959   8.936
51255SOL    HW155662  13.192   5.925   9.004
51255SOL    HW255663  13.191   5.996   8.871
51256SOL     OW55664  11.763   3.033   0.426
51256SOL    HW155665  11.755   2.963   0.491
51256SOL    HW255666  11.852   3.065   0.435
51257SOL     OW55667  11.112   1.504   2.303
51257SOL    HW155668  11.204   1.509   2.330
51257SOL    HW255669  11.086   1.414   2.325
51258SOL     OW55670  13.815   4.595   1.529
51258SOL    HW155671  13.899   4.625   1.566
51258SOL    HW255672  13.768   4.675   1.508
51259SOL     OW55673   7.142   9.396   2.425
51259SOL    HW155674   7.225   9.361   2.394
51259SOL    HW255675   7.107   9.446   2.351
51260SOL     OW55676   2.924   6.936   9.475
51260SOL    HW155677   2.965   6.951   9.390
51260SOL    HW255678   2.884   6.849   9.467
51261SOL     OW55679  13.831  12.940   8.870
51261SOL    HW155680  13.869  13.001   8.933
51261SOL    HW255681  13.786  12.875   8.924
51262SOL     OW55682   2.570   4.519   4.757
51262SOL    HW155683   2.615   4.480   4.681
51262SOL    HW255684   2.502   4.574   4.718
51263SOL     OW55685   7.191   4.924   4.427
51263SOL    HW155686   7.173   5.016   4.408
51263SOL    HW255687   7.197   4.883   4.341
51264SOL     OW55688   6.643   3.654  14.618
51264SOL    HW155689   6.560   3.644  14.571
51264SOL    HW255690   6.684   3.730  14.578
51265SOL     OW55691   2.365  10.952   8.469
51265SOL    HW155692   2.302  10.907   8.526
51265SOL    HW255693   2.444  10.898   8.475
51266SOL     OW55694   7.630   0.228  10.566
51266SOL    HW155695   7.559   0.238  10.629
51266SOL    HW255696   7.709   0.252  10.615
51267SOL     OW55697  12.950  12.918   0.756
51267SOL    HW155698  13.003  12.838   0.755
51267SOL    HW255699  12.985  12.971   0.685
51268SOL     OW55700   2.008   4.109   4.423
51268SOL    HW155701   1.967   4.107   4.337
51268SOL    HW255702   2.011   4.202   4.447
51269SOL     OW55703  13.243  13.589   6.892
51269SOL    HW155704  13.278  13.510   6.933
51269SOL    HW255705  13.313  13.620   6.834
51270SOL     OW55706  13.837   1.639   2.184
51270SOL    HW155707  13.855   1.547   2.167
51270SOL    HW255708  13.764   1.660   2.125
51271SOL     OW55709  12.456   2.031  11.619
51271SOL    HW155710  12.491   2.080  11.693
51271SOL    HW255711  12.508   2.061  11.544
51272SOL     OW55712   9.738  12.332   0.668
51272SOL    HW155713   9.819  12.354   0.623
51272SOL    HW255714   9.705  12.255   0.622
51273SOL     OW55715   4.315   5.325   6.657
51273SOL    HW155716   4.270   5.260   6.710
51273SOL    HW255717   4.369   5.274   6.596
51274SOL     OW55718   1.190   9.472  11.748
51274SOL    HW155719   1.200   9.414  11.673
51274SOL    HW255720   1.096   9.470  11.767
51275SOL     OW55721  14.194   0.008   8.076
51275SOL    HW155722  14.103   0.011   8.047
51275SOL    HW255723  14.189   0.012   8.172
51276SOL     OW55724   4.720   9.946  14.868
51276SOL    HW155725   4.754  10.035  14.858
51276SOL    HW255726   4.785   9.900   0.042
51277SOL     OW55727   7.248  14.544  14.714
51277SOL    HW155728   7.253  14.553  14.809
51277SOL    HW255729   7.229  14.451  14.700
51278SOL     OW55730   3.685   3.821  11.741
51278SOL    HW155731   3.764   3.852  11.696
51278SOL    HW255732   3.616   3.878  11.709
51279SOL     OW55733   1.757  10.336   9.212
51279SOL    HW155734   1.821  10.402   9.182
51279SOL    HW255735   1.723  10.371   9.294
51280SOL     OW55736   3.169   3.650   8.140
51280SOL    HW155737   3.119   3.730   8.159
51280SOL    HW255738   3.239   3.679   8.081
51281SOL     OW55739  14.061  14.535   9.681
51281SOL    HW155740  13.971  14.508   9.700
51281SOL    HW255741  14.063  14.628   9.704
51282SOL     OW55742   0.973   7.183  14.479
51282SOL    HW155743   0.947   7.263  14.523
51282SOL    HW255744   0.928   7.113  14.527
51283SOL     OW55745   2.962  10.583   2.207
51283SOL    HW155746   3.050  10.568   2.240
51283SOL    HW255747   2.905  10.554   2.279
51284SOL     OW55748   8.645  13.783  11.054
51284SOL    HW155749   8.564  13.819  11.019
51284SOL    HW255750   8.682  13.732  10.982
51285SOL     OW55751   8.673  13.032   2.768
51285SOL    HW155752   8.605  12.965   2.764
51285SOL    HW255753   8.659  13.075   2.853
51286SOL     OW55754   4.373  12.052   9.855
51286SOL    HW155755   4.351  11.991   9.926
51286SOL    HW255756   4.289  12.083   9.822
51287SOL     OW55757   7.895   8.017   5.473
51287SOL    HW155758   7.961   7.997   5.540
51287SOL    HW255759   7.946   8.032   5.393
51288SOL     OW55760   7.763  14.713  14.451
51288SOL    HW155761   7.707  14.656  14.504
51288SOL    HW255762   7.725  14.800  14.461
51289SOL     OW55763  14.378   7.552  11.366
51289SOL    HW155764  14.448   7.549  11.301
51289SOL    HW255765  14.332   7.469  11.355
51290SOL     OW55766  10.736   9.685   4.751
51290SOL    HW155767  10.777   9.748   4.693
51290SOL    HW255768  10.781   9.602   4.732
51291SOL     OW55769   5.926   2.412   7.052
51291SOL    HW155770   5.884   2.356   7.118
51291SOL    HW255771   5.989   2.465   7.102
51292SOL     OW55772  12.018   1.124  11.900
51292SOL    HW155773  12.064   1.111  11.983
51292SOL    HW255774  12.041   1.213  11.873
51293SOL     OW55775   8.696  11.458   0.329
51293SOL    HW155776   8.720  11.407   0.406
51293SOL    HW255777   8.650  11.534   0.365
51294SOL     OW55778   2.989  10.279   1.120
51294SOL    HW155779   2.998  10.260   1.214
51294SOL    HW255780   3.078  10.298   1.091
51295SOL     OW55781  10.692  12.088   8.320
51295SOL    HW155782  10.717  12.006   8.362
51295SOL    HW255783  10.656  12.063   8.236
51296SOL     OW55784  12.149   0.473  12.847
51296SOL    HW155785  12.187   0.399  12.894
51296SOL    HW255786  12.145   0.444  12.756
51297SOL     OW55787   8.313   9.702   1.738
51297SOL    HW155788   8.405   9.682   1.758
51297SOL    HW255789   8.318   9.771   1.672
51298SOL     OW55790   3.893  10.692   3.956
51298SOL    HW155791   3.867  10.776   3.993
51298SOL    HW255792   3.899  10.633   4.031
51299SOL     OW55793  13.804  12.352   3.291
51299SOL    HW155794  13.784  12.286   3.357
51299SOL    HW255795  13.856  12.305   3.225
51300SOL     OW55796  12.526  12.699  11.312
51300SOL    HW155797  12.467  12.734  11.378
51300SOL    HW255798  12.470  12.680  11.237
51301SOL     OW55799   4.099  11.232   9.321
51301SOL    HW155800   4.149  11.185   9.388
51301SOL    HW255801   4.165  11.267   9.261
51302SOL     OW55802   2.384   6.823   5.993
51302SOL    HW155803   2.390   6.878   6.071
51302SOL    HW255804   2.295   6.789   5.995
51303SOL     OW55805   6.888   5.637   6.292
51303SOL    HW155806   6.958   5.695   6.261
51303SOL    HW255807   6.854   5.680   6.370
51304SOL     OW55808  11.806   0.600   0.714
51304SOL    HW155809  11.839   0.687   0.690
51304SOL    HW255810  11.711   0.610   0.716
51305SOL     OW55811   3.477  12.359   6.844
51305SOL    HW155812   3.526  12.286   6.806
51305SOL    HW255813   3.500  12.357   6.937
51306SOL     OW55814  14.390   5.388   7.247
51306SOL    HW155815  14.399   5.293   7.256
51306SOL    HW255816  14.433   5.423   7.325
51307SOL     OW55817   4.074   2.284  11.791
51307SOL    HW155818   4.016   2.287  11.866
51307SOL    HW255819   4.016   2.286  11.715
51308SOL     OW55820   2.685   8.015   9.518
51308SOL    HW155821   2.751   7.966   9.567
51308SOL    HW255822   2.616   7.951   9.500
51309SOL     OW55823  12.476   6.242  12.438
51309SOL    HW155824  12.427   6.318  12.470
51309SOL    HW255825  12.566   6.258  12.466
51310SOL     OW55826  13.691  10.067   3.152
51310SOL    HW155827  13.602  10.049   3.182
51310SOL    HW255828  13.745  10.003   3.199
51311SOL     OW55829   1.040   9.286   9.427
51311SOL    HW155830   1.011   9.373   9.398
51311SOL    HW255831   0.970   9.227   9.400
51312SOL     OW55832   2.425  10.595   6.001
51312SOL    HW155833   2.416  10.631   6.089
51312SOL    HW255834   2.374  10.514   6.003
51313SOL     OW55835  12.858   5.647   1.967
51313SOL    HW155836  12.807   5.726   1.946
51313SOL    HW255837  12.795   5.590   2.011
51314SOL     OW55838  13.205   7.503  12.863
51314SOL    HW155839  13.138   7.437  12.885
51314SOL    HW255840  13.229   7.482  12.773
51315SOL     OW55841  12.189   3.067   8.511
51315SOL    HW155842  12.106   3.100   8.545
51315SOL    HW255843  12.243   3.053   8.589
51316SOL     OW55844   8.727   9.240   2.168
51316SOL    HW155845   8.697   9.184   2.239
51316SOL    HW255846   8.768   9.314   2.212
51317SOL     OW55847   3.061   1.343   2.376
51317SOL    HW155848   3.116   1.390   2.314
51317SOL    HW255849   3.081   1.250   2.361
51318SOL     OW55850   8.862   9.199   7.582
51318SOL    HW155851   8.911   9.240   7.510
51318SOL    HW255852   8.880   9.256   7.658
51319SOL     OW55853   3.168   6.421  14.036
51319SOL    HW155854   3.216   6.494  14.074
51319SOL    HW255855   3.151   6.362  14.109
51320SOL     OW55856  11.371  10.635   2.571
51320SOL    HW155857  11.442  10.625   2.508
51320SOL    HW255858  11.316  10.557   2.558
51321SOL     OW55859  14.012   6.881   2.724
51321SOL    HW155860  14.005   6.971   2.756
51321SOL    HW255861  14.074   6.886   2.651
51322SOL     OW55862   2.014   9.962   4.932
51322SOL    HW155863   2.064  10.022   4.988
51322SOL    HW255864   2.077   9.896   4.904
51323SOL     OW55865  13.050  12.575  14.264
51323SOL    HW155866  13.096  12.637  14.320
51323SOL    HW255867  12.979  12.625  14.226
51324SOL     OW55868   5.436   4.617  11.618
51324SOL    HW155869   5.379   4.556  11.666
51324SOL    HW255870   5.461   4.682  11.683
51325SOL     OW55871   8.203   0.876   0.912
51325SOL    HW155872   8.216   0.956   0.861
51325SOL    HW255873   8.157   0.817   0.852
51326SOL     OW55874   1.556   0.857  10.997
51326SOL    HW155875   1.580   0.782  11.052
51326SOL    HW255876   1.604   0.844  10.915
51327SOL     OW55877  13.097   4.512  10.283
51327SOL    HW155878  13.137   4.495  10.197
51327SOL    HW255879  13.136   4.594  10.312
51328SOL     OW55880  14.766   4.541   5.601
51328SOL    HW155881  14.817   4.480   5.549
51328SOL    HW255882  14.675   4.519   5.582
51329SOL     OW55883   3.937   2.169  10.523
51329SOL    HW155884   4.010   2.231  10.527
51329SOL    HW255885   3.918   2.162  10.429
51330SOL     OW55886   4.035  13.830  10.164
51330SOL    HW155887   3.945  13.801  10.178
51330SOL    HW255888   4.040  13.850  10.070
51331SOL     OW55889   8.067   6.992  10.287
51331SOL    HW155890   7.982   6.949  10.280
51331SOL    HW255891   8.130   6.926  10.258
51332SOL     OW55892   4.249   7.192   4.656
51332SOL    HW155893   4.333   7.224   4.622
51332SOL    HW255894   4.265   7.099   4.673
51333SOL     OW55895   6.857   7.779   0.771
51333SOL    HW155896   6.847   7.695   0.816
51333SOL    HW255897   6.814   7.765   0.686
51334SOL     OW55898   4.814  13.581   7.420
51334SOL    HW155899   4.767  13.642   7.476
51334SOL    HW255900   4.752  13.561   7.349
51335SOL     OW55901   1.597   2.835   9.029
51335SOL    HW155902   1.544   2.823   9.108
51335SOL    HW255903   1.567   2.918   8.993
51336SOL     OW55904   5.841   4.542  14.573
51336SOL    HW155905   5.775   4.489  14.528
51336SOL    HW255906   5.820   4.534  14.665
51337SOL     OW55907   2.329   5.963   4.423
51337SOL    HW155908   2.402   5.952   4.362
51337SOL    HW255909   2.328   5.882   4.474
51338SOL     OW55910   0.524   6.989  14.357
51338SOL    HW155911   0.475   6.907  14.359
51338SOL    HW255912   0.605   6.970  14.404
51339SOL     OW55913   6.743   1.729   1.279
51339SOL    HW155914   6.680   1.741   1.208
51339SOL    HW255915   6.796   1.654   1.252
51340SOL     OW55916  11.122   1.093  13.135
51340SOL    HW155917  11.199   1.108  13.080
51340SOL    HW255918  11.151   1.030  13.200
51341SOL     OW55919   8.503   4.570  14.554
51341SOL    HW155920   8.501   4.662  14.528
51341SOL    HW255921   8.460   4.524  14.482
51342SOL     OW55922   4.620  14.270   1.675
51342SOL    HW155923   4.641  14.203   1.740
51342SOL    HW255924   4.531  14.298   1.696
51343SOL     OW55925  10.192   9.622  13.186
51343SOL    HW155926  10.233   9.536  13.198
51343SOL    HW255927  10.238   9.679  13.248
51344SOL     OW55928   0.540   0.961   0.642
51344SOL    HW155929   0.539   0.868   0.618
51344SOL    HW255930   0.518   0.960   0.736
51345SOL     OW55931   4.622   7.496   4.920
51345SOL    HW155932   4.595   7.552   4.847
51345SOL    HW255933   4.672   7.425   4.880
51346SOL     OW55934   2.695   9.935   2.500
51346SOL    HW155935   2.683  10.027   2.477
51346SOL    HW255936   2.750   9.937   2.579
51347SOL     OW55937   0.967   6.525   4.471
51347SOL    HW155938   1.036   6.467   4.502
51347SOL    HW255939   0.944   6.490   4.385
51348SOL     OW55940  13.274   7.734   3.562
51348SOL    HW155941  13.305   7.647   3.587
51348SOL    HW255942  13.292   7.788   3.639
51349SOL     OW55943   3.716   7.392  12.651
51349SOL    HW155944   3.640   7.350  12.692
51349SOL    HW255945   3.684   7.476  12.621
51350SOL     OW55946   4.912   1.655  11.888
51350SOL    HW155947   4.820   1.671  11.907
51350SOL    HW255948   4.951   1.634  11.973
51351SOL     OW55949   9.312   6.223   4.473
51351SOL    HW155950   9.371   6.152   4.449
51351SOL    HW255951   9.282   6.258   4.388
51352SOL     OW55952   8.050   2.340   8.873
51352SOL    HW155953   7.989   2.278   8.832
51352SOL    HW255954   8.099   2.377   8.799
51353SOL     OW55955   8.600   8.853  10.918
51353SOL    HW155956   8.611   8.868  11.012
51353SOL    HW255957   8.680   8.888  10.878
51354SOL     OW55958   6.204   7.739  13.243
51354SOL    HW155959   6.218   7.650  13.210
51354SOL    HW255960   6.217   7.732  13.337
51355SOL     OW55961  11.775  10.885  11.857
51355SOL    HW155962  11.714  10.902  11.784
51355SOL    HW255963  11.827  10.965  11.864
51356SOL     OW55964   5.650   9.000   0.260
51356SOL    HW155965   5.574   8.995   0.202
51356SOL    HW255966   5.711   9.058   0.214
51357SOL     OW55967   8.146  13.318   4.403
51357SOL    HW155968   8.224  13.262   4.404
51357SOL    HW255969   8.166  13.389   4.464
51358SOL     OW55970  10.917  12.691  13.758
51358SOL    HW155971  10.930  12.604  13.795
51358SOL    HW255972  10.824  12.709  13.770
51359SOL     OW55973   7.286   3.192   3.854
51359SOL    HW155974   7.341   3.258   3.810
51359SOL    HW255975   7.343   3.155   3.921
51360SOL     OW55976   4.749   0.748   6.472
51360SOL    HW155977   4.707   0.683   6.416
51360SOL    HW255978   4.843   0.738   6.454
51361SOL     OW55979   7.401   1.313  13.643
51361SOL    HW155980   7.496   1.303  13.649
51361SOL    HW255981   7.388   1.372  13.568
51362SOL     OW55982   0.103   2.246   8.606
51362SOL    HW155983   0.114   2.242   8.511
51362SOL    HW255984   0.026   2.301   8.619
51363SOL     OW55985  14.366  10.379   1.332
51363SOL    HW155986  14.344  10.469   1.309
51363SOL    HW255987  14.331  10.326   1.260
51364SOL     OW55988  10.108   7.405   3.603
51364SOL    HW155989  10.159   7.326   3.616
51364SOL    HW255990  10.173   7.474   3.590
51365SOL     OW55991  14.165   2.445  11.662
51365SOL    HW155992  14.131   2.531  11.637
51365SOL    HW255993  14.243   2.465  11.715
51366SOL     OW55994   8.237  13.627   6.804
51366SOL    HW155995   8.267  13.640   6.714
51366SOL    HW255996   8.194  13.541   6.803
51367SOL     OW55997   8.963   4.526   3.160
51367SOL    HW155998   8.902   4.576   3.214
51367SOL    HW255999   9.002   4.462   3.220
51368SOL     OW56000  13.315  13.634   0.124
51368SOL    HW156001  13.408  13.613   0.135
51368SOL    HW256002  13.311  13.679   0.039
51369SOL     OW56003   4.493   7.896   2.191
51369SOL    HW156004   4.556   7.964   2.169
51369SOL    HW256005   4.483   7.845   2.111
51370SOL     OW56006   0.592   8.402   5.561
51370SOL    HW156007   0.631   8.317   5.582
51370SOL    HW256008   0.546   8.427   5.641
51371SOL     OW56009  10.959   2.380   8.503
51371SOL    HW156010  10.929   2.291   8.520
51371SOL    HW256011  10.929   2.430   8.579
51372SOL     OW56012   0.853   2.377   3.666
51372SOL    HW156013   0.769   2.384   3.622
51372SOL    HW256014   0.850   2.291   3.709
51373SOL     OW56015  12.980   0.313  10.073
51373SOL    HW156016  13.043   0.246  10.045
51373SOL    HW256017  13.005   0.334  10.163
51374SOL     OW56018   5.347   8.075   2.090
51374SOL    HW156019   5.391   8.160   2.094
51374SOL    HW256020   5.335   8.059   1.996
51375SOL     OW56021   8.998   2.294   4.628
51375SOL    HW156022   8.988   2.333   4.541
51375SOL    HW256023   9.093   2.292   4.643
51376SOL     OW56024   2.963   3.234   0.714
51376SOL    HW156025   2.888   3.285   0.742
51376SOL    HW256026   2.956   3.230   0.619
51377SOL     OW56027  10.143   0.934   0.717
51377SOL    HW156028  10.179   0.880   0.646
51377SOL    HW256029  10.078   0.988   0.674
51378SOL     OW56030  12.383   0.659   9.507
51378SOL    HW156031  12.315   0.629   9.447
51378SOL    HW256032  12.465   0.641   9.462
51379SOL     OW56033  10.418   5.167  10.247
51379SOL    HW156034  10.485   5.140  10.184
51379SOL    HW256035  10.417   5.262  10.242
51380SOL     OW56036   9.650   4.502   4.889
51380SOL    HW156037   9.674   4.414   4.917
51380SOL    HW256038   9.581   4.528   4.951
51381SOL     OW56039   2.777  10.082   8.747
51381SOL    HW156040   2.768  10.051   8.657
51381SOL    HW256041   2.871  10.095   8.759
51382SOL     OW56042   9.551  11.489   6.702
51382SOL    HW156043   9.500  11.410   6.721
51382SOL    HW256044   9.509  11.527   6.624
51383SOL     OW56045   0.548   6.342   4.487
51383SOL    HW156046   0.501   6.267   4.452
51383SOL    HW256047   0.566   6.319   4.578
51384SOL     OW56048   9.206   9.585   3.517
51384SOL    HW156049   9.253   9.506   3.543
51384SOL    HW256050   9.185   9.629   3.600
51385SOL     OW56051  11.665   1.345  12.260
51385SOL    HW156052  11.664   1.324  12.353
51385SOL    HW256053  11.747   1.307  12.227
51386SOL     OW56054   9.012   0.121   3.085
51386SOL    HW156055   9.071   0.055   3.049
51386SOL    HW256056   9.019   0.111   3.179
51387SOL     OW56057   9.783   9.260   1.137
51387SOL    HW156058   9.860   9.265   1.080
51387SOL    HW256059   9.717   9.313   1.093
51388SOL     OW56060  10.977   0.745   3.602
51388SOL    HW156061  10.902   0.785   3.558
51388SOL    HW256062  10.953   0.653   3.613
51389SOL     OW56063   8.698  13.294   1.487
51389SOL    HW156064   8.642  13.218   1.503
51389SOL    HW256065   8.671  13.358   1.553
51390SOL     OW56066  14.749   7.131  11.847
51390SOL    HW156067  14.676   7.073  11.826
51390SOL    HW256068  14.763   7.118  11.941
51391SOL     OW56069   6.708   8.674   9.166
51391SOL    HW156070   6.650   8.726   9.110
51391SOL    HW256071   6.790   8.670   9.117
51392SOL     OW56072  11.708   2.646   6.683
51392SOL    HW156073  11.723   2.570   6.626
51392SOL    HW256074  11.778   2.707   6.661
51393SOL     OW56075   2.220  11.898   5.728
51393SOL    HW156076   2.306  11.912   5.687
51393SOL    HW256077   2.193  11.812   5.697
51394SOL     OW56078   6.068  12.389   1.699
51394SOL    HW156079   6.034  12.430   1.620
51394SOL    HW256080   6.132  12.325   1.668
51395SOL     OW56081   0.205  10.418   2.947
51395SOL    HW156082   0.277  10.446   3.005
51395SOL    HW256083   0.245  10.415   2.860
51396SOL     OW56084   1.681  13.049   9.689
51396SOL    HW156085   1.625  13.111   9.641
51396SOL    HW256086   1.710  13.098   9.766
51397SOL     OW56087  12.103   3.019   5.074
51397SOL    HW156088  12.073   2.944   5.124
51397SOL    HW256089  12.109   2.987   4.984
51398SOL     OW56090   5.785   2.568   6.475
51398SOL    HW156091   5.755   2.482   6.446
51398SOL    HW256092   5.856   2.549   6.536
51399SOL     OW56093  13.989   2.704  10.212
51399SOL    HW156094  13.919   2.666  10.265
51399SOL    HW256095  14.064   2.646  10.225
51400SOL     OW56096   7.645   1.205  14.661
51400SOL    HW156097   7.680   1.181  14.747
51400SOL    HW256098   7.626   1.122  14.618
51401SOL     OW56099  13.517   9.917   4.534
51401SOL    HW156100  13.611   9.901   4.531
51401SOL    HW256101  13.487   9.905   4.444
51402SOL     OW56102   7.799   0.701   2.782
51402SOL    HW156103   7.894   0.701   2.792
51402SOL    HW256104   7.781   0.633   2.718
51403SOL     OW56105   7.659   3.118   1.561
51403SOL    HW156106   7.682   3.129   1.469
51403SOL    HW256107   7.665   3.024   1.576
51404SOL     OW56108   0.527   9.796  12.795
51404SOL    HW156109   0.518   9.869  12.856
51404SOL    HW256110   0.525   9.836  12.708
51405SOL     OW56111  12.805   9.755   1.376
51405SOL    HW156112  12.730   9.695   1.372
51405SOL    HW256113  12.817   9.771   1.470
51406SOL     OW56114   2.842   8.937   2.086
51406SOL    HW156115   2.874   9.025   2.066
51406SOL    HW256116   2.866   8.923   2.178
51407SOL     OW56117   2.025   2.872  13.483
51407SOL    HW156118   1.978   2.950  13.515
51407SOL    HW256119   2.060   2.832  13.563
51408SOL     OW56120   3.047   0.727   2.607
51408SOL    HW156121   3.082   0.812   2.633
51408SOL    HW256122   3.036   0.733   2.512
51409SOL     OW56123   0.618  14.861   8.628
51409SOL    HW156124   0.522  14.865   8.633
51409SOL    HW256125   0.644  14.819   8.710
51410SOL     OW56126   6.660   8.907  10.354
51410SOL    HW156127   6.566   8.923  10.351
51410SOL    HW256128   6.695   8.958  10.281
51411SOL     OW56129  10.402   3.613  13.360
51411SOL    HW156130  10.413   3.589  13.268
51411SOL    HW256131  10.350   3.693  13.359
51412SOL     OW56132   0.254   7.251   6.472
51412SOL    HW156133   0.168   7.246   6.431
51412SOL    HW256134   0.251   7.185   6.542
51413SOL     OW56135   1.923   6.483   9.240
51413SOL    HW156136   2.002   6.431   9.227
51413SOL    HW256137   1.924   6.546   9.167
51414SOL     OW56138  13.430   6.338  10.930
51414SOL    HW156139  13.441   6.243  10.940
51414SOL    HW256140  13.417   6.352  10.837
51415SOL     OW56141   8.636   3.438   5.424
51415SOL    HW156142   8.568   3.463   5.361
51415SOL    HW256143   8.685   3.519   5.439
51416SOL     OW56144   0.430  12.805  13.415
51416SOL    HW156145   0.462  12.855  13.340
51416SOL    HW256146   0.342  12.839  13.431
51417SOL     OW56147   6.656  10.132   8.150
51417SOL    HW156148   6.614  10.063   8.202
51417SOL    HW256149   6.586  10.166   8.094
51418SOL     OW56150   5.627   7.598  14.568
51418SOL    HW156151   5.579   7.515  14.576
51418SOL    HW256152   5.711   7.573  14.531
51419SOL     OW56153   7.987   0.714   8.973
51419SOL    HW156154   7.959   0.629   8.937
51419SOL    HW256155   8.080   0.703   8.991
51420SOL     OW56156  14.002  11.232  14.794
51420SOL    HW156157  14.044  11.193  14.718
51420SOL    HW256158  14.018  11.169  14.865
51421SOL     OW56159  11.324   7.415   6.378
51421SOL    HW156160  11.241   7.462   6.386
51421SOL    HW256161  11.376   7.446   6.452
51422SOL     OW56162   4.693   3.820   3.303
51422SOL    HW156163   4.786   3.795   3.306
51422SOL    HW256164   4.660   3.800   3.390
51423SOL     OW56165   8.684  13.773  10.278
51423SOL    HW156166   8.615  13.835  10.254
51423SOL    HW256167   8.676  13.703  10.215
51424SOL     OW56168   0.984  12.076  13.590
51424SOL    HW156169   0.922  12.070  13.517
51424SOL    HW256170   0.981  12.169  13.615
51425SOL     OW56171   6.795   9.400   0.313
51425SOL    HW156172   6.855   9.326   0.308
51425SOL    HW256173   6.787   9.418   0.407
51426SOL     OW56174   7.649   9.204   9.323
51426SOL    HW156175   7.650   9.109   9.330
51426SOL    HW256176   7.651   9.221   9.229
51427SOL     OW56177  12.019  10.017   6.639
51427SOL    HW156178  12.060   9.934   6.614
51427SOL    HW256179  12.084  10.084   6.615
51428SOL     OW56180   7.184   2.078   9.501
51428SOL    HW156181   7.145   2.049   9.584
51428SOL    HW256182   7.171   2.172   9.499
51429SOL     OW56183  13.982   3.872   7.007
51429SOL    HW156184  14.035   3.795   6.985
51429SOL    HW256185  13.913   3.873   6.941
51430SOL     OW56186  11.669  12.409   2.929
51430SOL    HW156187  11.661  12.362   2.846
51430SOL    HW256188  11.658  12.341   2.996
51431SOL     OW56189  12.535   9.338  12.372
51431SOL    HW156190  12.555   9.335  12.278
51431SOL    HW256191  12.571   9.423  12.401
51432SOL     OW56192  12.401  13.904  13.096
51432SOL    HW156193  12.472  13.840  13.107
51432SOL    HW256194  12.414  13.966  13.167
51433SOL     OW56195  13.683  10.086  11.795
51433SOL    HW156196  13.705  10.176  11.774
51433SOL    HW256197  13.610  10.065  11.736
51434SOL     OW56198   0.318   6.619   3.036
51434SOL    HW156199   0.317   6.673   3.115
51434SOL    HW256200   0.284   6.676   2.967
51435SOL     OW56201   0.131   7.056   5.157
51435SOL    HW156202   0.207   7.000   5.173
51435SOL    HW256203   0.056   6.998   5.162
51436SOL     OW56204   4.277  13.104  10.480
51436SOL    HW156205   4.194  13.148  10.459
51436SOL    HW256206   4.253  13.035  10.541
51437SOL     OW56207   9.234   0.706   9.247
51437SOL    HW156208   9.233   0.631   9.307
51437SOL    HW256209   9.207   0.669   9.163
51438SOL     OW56210   3.745   2.035   0.218
51438SOL    HW156211   3.788   2.113   0.183
51438SOL    HW256212   3.668   2.023   0.163
51439SOL     OW56213   4.595   2.935   6.897
51439SOL    HW156214   4.512   2.979   6.914
51439SOL    HW256215   4.662   2.999   6.921
51440SOL     OW56216  14.227   5.604   3.940
51440SOL    HW156217  14.311   5.636   3.908
51440SOL    HW256218  14.213   5.652   4.022
51441SOL     OW56219   2.276  13.211   7.818
51441SOL    HW156220   2.240  13.154   7.750
51441SOL    HW256221   2.297  13.292   7.772
51442SOL     OW56222   5.442   6.335   6.979
51442SOL    HW156223   5.492   6.348   7.059
51442SOL    HW256224   5.478   6.256   6.940
51443SOL     OW56225   3.165   4.772   2.458
51443SOL    HW156226   3.227   4.710   2.420
51443SOL    HW256227   3.160   4.748   2.551
51444SOL     OW56228   1.151   1.241   8.128
51444SOL    HW156229   1.151   1.239   8.224
51444SOL    HW256230   1.133   1.333   8.106
51445SOL     OW56231   0.035   4.158  14.300
51445SOL    HW156232   0.064   4.149  14.391
51445SOL    HW256233   0.007   4.249  14.292
51446SOL     OW56234  12.762  10.142  14.508
51446SOL    HW156235  12.744  10.048  14.517
51446SOL    HW256236  12.843  10.146  14.457
51447SOL     OW56237   5.263   9.158  14.019
51447SOL    HW156238   5.245   9.179  14.110
51447SOL    HW256239   5.318   9.079  14.022
51448SOL     OW56240   3.428  12.108   5.520
51448SOL    HW156241   3.466  12.148   5.598
51448SOL    HW256242   3.495  12.048   5.489
51449SOL     OW56243   3.530   4.401   7.551
51449SOL    HW156244   3.521   4.491   7.582
51449SOL    HW256245   3.585   4.407   7.473
51450SOL     OW56246  12.765   1.735   2.540
51450SOL    HW156247  12.724   1.649   2.529
51450SOL    HW256248  12.697   1.788   2.582
51451SOL     OW56249   1.178   4.960  12.930
51451SOL    HW156250   1.180   5.049  12.965
51451SOL    HW256251   1.198   4.971  12.836
51452SOL     OW56252  11.178   1.332   2.932
51452SOL    HW156253  11.252   1.290   2.888
51452SOL    HW256254  11.154   1.271   3.002
51453SOL     OW56255  13.469   5.257   5.404
51453SOL    HW156256  13.507   5.339   5.433
51453SOL    HW256257  13.467   5.202   5.483
51454SOL     OW56258   5.576   8.589   7.066
51454SOL    HW156259   5.509   8.527   7.036
51454SOL    HW256260   5.535   8.635   7.139
51455SOL     OW56261   4.240   2.655   9.049
51455SOL    HW156262   4.252   2.750   9.062
51455SOL    HW256263   4.319   2.616   9.086
51456SOL     OW56264  11.992  14.113   2.120
51456SOL    HW156265  11.937  14.169   2.174
51456SOL    HW256266  12.081  14.142   2.139
51457SOL     OW56267  12.223   9.000  10.069
51457SOL    HW156268  12.316   9.011  10.090
51457SOL    HW256269  12.195   8.925  10.121
51458SOL     OW56270  11.878  11.613  11.228
51458SOL    HW156271  11.812  11.659  11.176
51458SOL    HW256272  11.953  11.603  11.169
51459SOL     OW56273   3.061  12.639   7.037
51459SOL    HW156274   3.126  12.628   6.967
51459SOL    HW256275   3.093  12.584   7.108
51460SOL     OW56276   4.849   3.723   5.002
51460SOL    HW156277   4.921   3.675   5.044
51460SOL    HW256278   4.774   3.708   5.060
51461SOL     OW56279  10.795  11.072   0.324
51461SOL    HW156280  10.746  11.129   0.384
51461SOL    HW256281  10.782  10.984   0.359
51462SOL     OW56282   1.381   6.703   4.563
51462SOL    HW156283   1.420   6.628   4.608
51462SOL    HW256284   1.298   6.718   4.608
51463SOL     OW56285   5.642   6.868   7.952
51463SOL    HW156286   5.557   6.911   7.964
51463SOL    HW256287   5.704   6.924   7.998
51464SOL     OW56288   3.010   8.850   0.661
51464SOL    HW156289   2.972   8.871   0.575
51464SOL    HW256290   2.952   8.782   0.697
51465SOL     OW56291  12.015  14.024  12.536
51465SOL    HW156292  11.953  13.964  12.496
51465SOL    HW256293  12.039  13.982  12.619
51466SOL     OW56294  14.727   9.444  11.457
51466SOL    HW156295  14.749   9.350  11.457
51466SOL    HW256296  14.696   9.460  11.546
51467SOL     OW56297   2.913   4.586  12.963
51467SOL    HW156298   2.840   4.573  12.901
51467SOL    HW256299   2.905   4.512  13.024
51468SOL     OW56300  12.124   9.860  13.729
51468SOL    HW156301  12.208   9.830  13.765
51468SOL    HW256302  12.059   9.831  13.793
51469SOL     OW56303  14.059   3.445   7.684
51469SOL    HW156304  14.128   3.510   7.695
51469SOL    HW256305  13.983   3.495   7.654
51470SOL     OW56306   8.462   4.456   3.532
51470SOL    HW156307   8.485   4.372   3.572
51470SOL    HW256308   8.426   4.433   3.446
51471SOL     OW56309  10.303   5.736   6.650
51471SOL    HW156310  10.296   5.813   6.593
51471SOL    HW256311  10.380   5.690   6.617
51472SOL     OW56312   8.479   0.961   0.681
51472SOL    HW156313   8.406   1.013   0.716
51472SOL    HW256314   8.445   0.927   0.598
51473SOL     OW56315   6.612   1.141   5.602
51473SOL    HW156316   6.688   1.104   5.647
51473SOL    HW256317   6.628   1.235   5.602
51474SOL     OW56318   2.442   3.691   4.341
51474SOL    HW156319   2.353   3.658   4.328
51474SOL    HW256320   2.439   3.781   4.309
51475SOL     OW56321   9.292  11.432   8.234
51475SOL    HW156322   9.317  11.355   8.284
51475SOL    HW256323   9.230  11.398   8.168
51476SOL     OW56324   6.497   6.131   4.454
51476SOL    HW156325   6.485   6.208   4.398
51476SOL    HW256326   6.553   6.073   4.403
51477SOL     OW56327   4.581  13.608   3.799
51477SOL    HW156328   4.516  13.637   3.735
51477SOL    HW256329   4.638  13.684   3.811
51478SOL     OW56330   7.062  12.814   4.475
51478SOL    HW156331   7.123  12.815   4.550
51478SOL    HW256332   7.002  12.886   4.491
51479SOL     OW56333  11.043   8.322   8.959
51479SOL    HW156334  11.023   8.411   8.986
51479SOL    HW256335  11.093   8.331   8.878
51480SOL     OW56336   7.965  13.954   6.018
51480SOL    HW156337   7.892  14.006   6.052
51480SOL    HW256338   8.043  13.994   6.057
51481SOL     OW56339  11.502   8.937   6.561
51481SOL    HW156340  11.506   8.863   6.500
51481SOL    HW256341  11.410   8.963   6.561
51482SOL     OW56342   8.576   7.942   4.491
51482SOL    HW156343   8.562   7.848   4.503
51482SOL    HW256344   8.670   7.950   4.480
51483SOL     OW56345   3.493   5.962  11.825
51483SOL    HW156346   3.535   5.877  11.839
51483SOL    HW256347   3.443   5.976  11.906
51484SOL     OW56348   7.603  10.253  13.057
51484SOL    HW156349   7.599  10.160  13.080
51484SOL    HW256350   7.516  10.286  13.080
51485SOL     OW56351  10.571  13.265   4.181
51485SOL    HW156352  10.604  13.340   4.231
51485SOL    HW256353  10.557  13.196   4.246
51486SOL     OW56354  10.971   6.514  14.487
51486SOL    HW156355  11.006   6.557  14.565
51486SOL    HW256356  10.937   6.585  14.433
51487SOL     OW56357   0.920   7.353   9.653
51487SOL    HW156358   0.909   7.413   9.579
51487SOL    HW256359   0.940   7.411   9.727
51488SOL     OW56360   0.056  14.432  13.523
51488SOL    HW156361  14.866  14.483  13.477
51488SOL    HW256362   0.016  14.346  13.535
51489SOL     OW56363  10.403   7.359   4.504
51489SOL    HW156364  10.310   7.339   4.495
51489SOL    HW256365  10.418   7.429   4.440
51490SOL     OW56366   3.959   7.946   6.825
51490SOL    HW156367   3.894   7.925   6.892
51490SOL    HW256368   3.973   8.040   6.833
51491SOL     OW56369   1.902   1.277   3.667
51491SOL    HW156370   1.807   1.286   3.669
51491SOL    HW256371   1.932   1.342   3.604
51492SOL     OW56372   3.425  12.061   0.040
51492SOL    HW156373   3.471  12.044  14.835
51492SOL    HW256374   3.397  11.975   0.071
51493SOL     OW56375   0.727  13.025   6.835
51493SOL    HW156376   0.773  12.988   6.910
51493SOL    HW256377   0.646  12.975   6.830
51494SOL     OW56378   8.223   8.001   2.655
51494SOL    HW156379   8.162   7.952   2.600
51494SOL    HW256380   8.187   7.996   2.743
51495SOL     OW56381   7.163   5.021   1.252
51495SOL    HW156382   7.070   5.005   1.268
51495SOL    HW256383   7.176   5.112   1.279
51496SOL     OW56384  10.096  11.832   3.308
51496SOL    HW156385  10.085  11.737   3.307
51496SOL    HW256386  10.073  11.857   3.398
51497SOL     OW56387  12.306  12.676  10.538
51497SOL    HW156388  12.240  12.709  10.599
51497SOL    HW256389  12.377  12.740  10.543
51498SOL     OW56390   0.024   1.079   8.756
51498SOL    HW156391  14.830   1.079   8.691
51498SOL    HW256392   0.017   1.164   8.799
51499SOL     OW56393   9.182   8.428  14.131
51499SOL    HW156394   9.095   8.438  14.170
51499SOL    HW256395   9.178   8.344  14.085
51500SOL     OW56396  11.367  14.216   0.330
51500SOL    HW156397  11.307  14.224   0.405
51500SOL    HW256398  11.454  14.229   0.368
51501SOL     OW56399   6.136   9.382   4.626
51501SOL    HW156400   6.205   9.359   4.688
51501SOL    HW256401   6.145   9.319   4.555
51502SOL     OW56402   8.040   2.234   9.270
51502SOL    HW156403   7.988   2.243   9.190
51502SOL    HW256404   8.053   2.325   9.299
51503SOL     OW56405  14.872   0.379   1.436
51503SOL    HW156406  14.789   0.346   1.400
51503SOL    HW256407   0.035   0.302   1.475
51504SOL     OW56408   9.809   9.869   1.293
51504SOL    HW156409   9.836   9.781   1.319
51504SOL    HW256410   9.889   9.911   1.261
51505SOL     OW56411   2.011   8.463   4.024
51505SOL    HW156412   2.033   8.526   3.955
51505SOL    HW256413   1.934   8.417   3.991
51506SOL     OW56414   1.435   1.130   8.073
51506SOL    HW156415   1.377   1.069   8.028
51506SOL    HW256416   1.378   1.174   8.136
51507SOL     OW56417   8.705   2.207   5.652
51507SOL    HW156418   8.756   2.216   5.732
51507SOL    HW256419   8.666   2.293   5.638
51508SOL     OW56420   5.454   4.258   2.211
51508SOL    HW156421   5.374   4.303   2.238
51508SOL    HW256422   5.481   4.304   2.131
51509SOL     OW56423   6.491   7.516   9.102
51509SOL    HW156424   6.516   7.608   9.097
51509SOL    HW256425   6.499   7.484   9.012
51510SOL     OW56426   3.505  10.690  11.429
51510SOL    HW156427   3.414  10.682  11.457
51510SOL    HW256428   3.556  10.664  11.506
51511SOL     OW56429   4.474   0.452   4.701
51511SOL    HW156430   4.549   0.400   4.674
51511SOL    HW256431   4.489   0.538   4.662
51512SOL     OW56432   7.108   4.345  10.487
51512SOL    HW156433   7.202   4.341  10.505
51512SOL    HW256434   7.101   4.390  10.402
51513SOL     OW56435   6.563   5.865   1.003
51513SOL    HW156436   6.642   5.901   1.044
51513SOL    HW256437   6.525   5.939   0.956
51514SOL     OW56438   3.780   4.877   2.501
51514SOL    HW156439   3.714   4.813   2.525
51514SOL    HW256440   3.815   4.907   2.585
51515SOL     OW56441   4.744   4.359   0.667
51515SOL    HW156442   4.776   4.372   0.756
51515SOL    HW256443   4.817   4.386   0.611
51516SOL     OW56444   4.389   6.214  14.371
51516SOL    HW156445   4.320   6.155  14.402
51516SOL    HW256446   4.376   6.295  14.420
51517SOL     OW56447  14.186   2.718   6.898
51517SOL    HW156448  14.280   2.728   6.907
51517SOL    HW256449  14.172   2.702   6.804
51518SOL     OW56450  14.604   1.416  10.727
51518SOL    HW156451  14.512   1.387  10.727
51518SOL    HW256452  14.606   1.489  10.666
51519SOL     OW56453  11.231   1.988   8.246
51519SOL    HW156454  11.182   1.988   8.327
51519SOL    HW256455  11.182   1.930   8.187
51520SOL     OW56456  13.797   0.475  14.498
51520SOL    HW156457  13.836   0.544  14.444
51520SOL    HW256458  13.724   0.517  14.543
51521SOL     OW56459   2.807   1.789  11.607
51521SOL    HW156460   2.715   1.790  11.580
51521SOL    HW256461   2.852   1.839  11.539
51522SOL     OW56462  12.717   2.010   4.039
51522SOL    HW156463  12.789   1.948   4.028
51522SOL    HW256464  12.651   1.982   3.976
51523SOL     OW56465   9.354  10.153  12.509
51523SOL    HW156466   9.286  10.119  12.566
51523SOL    HW256467   9.312  10.162  12.424
51524SOL     OW56468   5.802   7.653   7.230
51524SOL    HW156469   5.818   7.723   7.294
51524SOL    HW256470   5.818   7.694   7.145
51525SOL     OW56471   0.915   9.770   5.001
51525SOL    HW156472   0.863   9.694   5.026
51525SOL    HW256473   0.982   9.776   5.068
51526SOL     OW56474   4.640   0.275   8.560
51526SOL    HW156475   4.674   0.363   8.576
51526SOL    HW256476   4.575   0.262   8.629
51527SOL     OW56477   9.787   4.942   8.972
51527SOL    HW156478   9.699   4.934   8.935
51527SOL    HW256479   9.798   4.863   9.025
51528SOL     OW56480   9.027   4.148   1.467
51528SOL    HW156481   8.951   4.133   1.411
51528SOL    HW256482   9.103   4.127   1.411
51529SOL     OW56483   6.371  13.867   7.786
51529SOL    HW156484   6.323  13.949   7.779
51529SOL    HW256485   6.333  13.823   7.862
51530SOL     OW56486   4.825   5.815   6.512
51530SOL    HW156487   4.887   5.781   6.448
51530SOL    HW256488   4.863   5.793   6.597
51531SOL     OW56489   3.023  12.736   0.872
51531SOL    HW156490   3.043  12.785   0.792
51531SOL    HW256491   3.095  12.673   0.880
51532SOL     OW56492   5.896   0.007   6.923
51532SOL    HW156493   5.971   0.061   6.948
51532SOL    HW256494   5.932  14.822   6.861
51533SOL     OW56495  11.757   8.362  14.865
51533SOL    HW156496  11.846   8.344  14.834
51533SOL    HW256497  11.745   8.303   0.063
51534SOL     OW56498   5.519   1.905  14.510
51534SOL    HW156499   5.504   1.889  14.416
51534SOL    HW256500   5.554   1.823  14.543
51535SOL     OW56501   9.518   6.503   3.952
51535SOL    HW156502   9.507   6.473   3.862
51535SOL    HW256503   9.430   6.530   3.978
51536SOL     OW56504  13.128   5.104   8.328
51536SOL    HW156505  13.044   5.134   8.293
51536SOL    HW256506  13.139   5.153   8.410
51537SOL     OW56507  12.045  13.337   7.409
51537SOL    HW156508  11.975  13.296   7.359
51537SOL    HW256509  12.048  13.427   7.376
51538SOL     OW56510   9.282  12.458  13.681
51538SOL    HW156511   9.325  12.394  13.738
51538SOL    HW256512   9.201  12.415  13.655
51539SOL     OW56513   5.789   0.079   8.499
51539SOL    HW156514   5.840   0.067   8.579
51539SOL    HW256515   5.776  14.868   8.464
51540SOL     OW56516   8.191  11.756   3.319
51540SOL    HW156517   8.247  11.833   3.333
51540SOL    HW256518   8.148  11.772   3.235
51541SOL     OW56519  14.086   3.856   3.974
51541SOL    HW156520  14.137   3.899   4.043
51541SOL    HW256521  14.021   3.921   3.948
51542SOL     OW56522   4.278   6.833  10.494
51542SOL    HW156523   4.315   6.780  10.423
51542SOL    HW256524   4.351   6.888  10.522
51543SOL     OW56525  12.333  10.718   6.068
51543SOL    HW156526  12.385  10.725   5.988
51543SOL    HW256527  12.357  10.795   6.119
51544SOL     OW56528   1.871   0.465  13.724
51544SOL    HW156529   1.945   0.511  13.764
51544SOL    HW256530   1.906   0.431  13.641
51545SOL     OW56531   1.376  10.650  13.037
51545SOL    HW156532   1.464  10.613  13.039
51545SOL    HW256533   1.346  10.645  13.128
51546SOL     OW56534   4.763  13.165  13.290
51546SOL    HW156535   4.668  13.154  13.278
51546SOL    HW256536   4.779  13.134  13.378
51547SOL     OW56537   7.182   1.726   1.323
51547SOL    HW156538   7.123   1.743   1.396
51547SOL    HW256539   7.163   1.795   1.259
51548SOL     OW56540  11.112  13.943  11.474
51548SOL    HW156541  11.029  13.984  11.448
51548SOL    HW256542  11.129  13.978  11.561
51549SOL     OW56543   2.160   9.264   0.444
51549SOL    HW156544   2.124   9.337   0.494
51549SOL    HW256545   2.100   9.191   0.460
51550SOL     OW56546  14.715   4.667  12.793
51550SOL    HW156547  14.682   4.756  12.807
51550SOL    HW256548  14.645   4.611  12.827
51551SOL     OW56549  14.656   5.272   8.814
51551SOL    HW156550  14.640   5.273   8.909
51551SOL    HW256551  14.597   5.204   8.781
51552SOL     OW56552   3.279   5.148   0.347
51552SOL    HW156553   3.357   5.146   0.402
51552SOL    HW256554   3.270   5.059   0.314
51553SOL     OW56555   3.480   7.598   3.024
51553SOL    HW156556   3.462   7.509   3.055
51553SOL    HW256557   3.405   7.650   3.055
51554SOL     OW56558  12.541   3.988   7.933
51554SOL    HW156559  12.563   4.016   7.845
51554SOL    HW256560  12.446   3.974   7.931
51555SOL     OW56561  11.917   5.360   0.013
51555SOL    HW156562  11.899   5.446  14.853
51555SOL    HW256563  11.942   5.306  14.816
51556SOL     OW56564   5.066   4.057   5.508
51556SOL    HW156565   4.982   4.043   5.464
51556SOL    HW256566   5.131   4.051   5.437
51557SOL     OW56567   7.830  11.536   3.517
51557SOL    HW156568   7.832  11.508   3.608
51557SOL    HW256569   7.918  11.572   3.501
51558SOL     OW56570  11.187   8.725   1.094
51558SOL    HW156571  11.264   8.781   1.094
51558SOL    HW256572  11.221   8.636   1.086
51559SOL     OW56573  11.922   6.699   2.577
51559SOL    HW156574  11.853   6.664   2.633
51559SOL    HW256575  11.936   6.630   2.511
51560SOL     OW56576   9.309   9.381   0.642
51560SOL    HW156577   9.337   9.425   0.561
51560SOL    HW256578   9.214   9.390   0.642
51561SOL     OW56579  14.415   0.321   9.186
51561SOL    HW156580  14.394   0.366   9.104
51561SOL    HW256581  14.471   0.248   9.160
51562SOL     OW56582   4.821  14.428   8.177
51562SOL    HW156583   4.793  14.467   8.260
51562SOL    HW256584   4.799  14.493   8.111
51563SOL     OW56585   7.118   1.014   1.975
51563SOL    HW156586   7.085   1.091   1.930
51563SOL    HW256587   7.186   1.047   2.034
51564SOL     OW56588   3.007   7.991   0.169
51564SOL    HW156589   3.082   7.994   0.109
51564SOL    HW256590   2.991   8.083   0.191
51565SOL     OW56591   9.290   1.601  10.781
51565SOL    HW156592   9.235   1.635  10.851
51565SOL    HW256593   9.229   1.578  10.711
51566SOL     OW56594   9.365   9.797   6.088
51566SOL    HW156595   9.278   9.788   6.050
51566SOL    HW256596   9.352   9.783   6.182
51567SOL     OW56597   5.374   3.476   2.236
51567SOL    HW156598   5.310   3.524   2.289
51567SOL    HW256599   5.451   3.533   2.232
51568SOL     OW56600  10.550  11.603   0.503
51568SOL    HW156601  10.577  11.526   0.455
51568SOL    HW256602  10.537  11.573   0.593
51569SOL     OW56603  10.599  11.892   7.877
51569SOL    HW156604  10.658  11.967   7.873
51569SOL    HW256605  10.565  11.894   7.966
51570SOL     OW56606   0.462   6.993   1.750
51570SOL    HW156607   0.392   7.019   1.810
51570SOL    HW256608   0.539   7.042   1.780
51571SOL     OW56609   7.024   3.143   3.922
51571SOL    HW156610   7.111   3.158   3.885
51571SOL    HW256611   6.967   3.135   3.845
51572SOL     OW56612   7.505  14.153   4.032
51572SOL    HW156613   7.423  14.117   3.998
51572SOL    HW256614   7.484  14.181   4.121
51573SOL     OW56615   9.616   6.076   0.587
51573SOL    HW156616   9.647   6.160   0.624
51573SOL    HW256617   9.665   6.067   0.505
51574SOL     OW56618   2.854   6.779   0.075
51574SOL    HW156619   2.905   6.831   0.137
51574SOL    HW256620   2.763   6.795   0.098
51575SOL     OW56621   0.282   7.283  11.616
51575SOL    HW156622   0.336   7.223  11.667
51575SOL    HW256623   0.205   7.297  11.670
51576SOL     OW56624   8.891  13.903   1.638
51576SOL    HW156625   8.959  13.839   1.620
51576SOL    HW256626   8.878  13.948   1.554
51577SOL     OW56627   9.789   3.703   5.888
51577SOL    HW156628   9.879   3.711   5.855
51577SOL    HW256629   9.784   3.767   5.959
51578SOL     OW56630  10.753   5.561  10.258
51578SOL    HW156631  10.686   5.599  10.316
51578SOL    HW256632  10.749   5.615  10.179
51579SOL     OW56633   4.739  12.316   4.202
51579SOL    HW156634   4.664  12.370   4.225
51579SOL    HW256635   4.807  12.379   4.178
51580SOL     OW56636   9.355   9.037  10.504
51580SOL    HW156637   9.342   8.949  10.539
51580SOL    HW256638   9.389   9.023  10.416
51581SOL     OW56639   2.207   2.811   4.438
51581SOL    HW156640   2.247   2.869   4.372
51581SOL    HW256641   2.248   2.838   4.520
51582SOL     OW56642  13.397  10.574   0.938
51582SOL    HW156643  13.458  10.629   0.888
51582SOL    HW256644  13.316  10.577   0.888
51583SOL     OW56645   8.360   7.232   5.528
51583SOL    HW156646   8.369   7.286   5.607
51583SOL    HW256647   8.387   7.145   5.556
51584SOL     OW56648  10.174  11.761  11.069
51584SOL    HW156649  10.082  11.785  11.063
51584SOL    HW256650  10.175  11.667  11.049
51585SOL     OW56651   5.805   2.366   5.876
51585SOL    HW156652   5.847   2.288   5.913
51585SOL    HW256653   5.726   2.333   5.834
51586SOL     OW56654   2.013  14.079  11.977
51586SOL    HW156655   1.975  14.166  11.969
51586SOL    HW256656   2.046  14.059  11.889
51587SOL     OW56657   3.786   9.582   3.762
51587SOL    HW156658   3.697   9.590   3.727
51587SOL    HW256659   3.843   9.602   3.688
51588SOL     OW56660  13.663   7.889   3.372
51588SOL    HW156661  13.667   7.794   3.377
51588SOL    HW256662  13.570   7.908   3.354
51589SOL     OW56663   6.301   8.333   0.280
51589SOL    HW156664   6.279   8.245   0.249
51589SOL    HW256665   6.397   8.337   0.274
51590SOL     OW56666  10.003  10.489  11.794
51590SOL    HW156667  10.032  10.416  11.849
51590SOL    HW256668   9.909  10.495  11.812
51591SOL     OW56669   7.646   1.162   2.559
51591SOL    HW156670   7.556   1.193   2.556
51591SOL    HW256671   7.670   1.149   2.467
51592SOL     OW56672   5.876   5.307   1.615
51592SOL    HW156673   5.900   5.270   1.700
51592SOL    HW256674   5.830   5.388   1.636
51593SOL     OW56675   7.954  12.489   9.397
51593SOL    HW156676   7.874  12.498   9.448
51593SOL    HW256677   7.932  12.426   9.328
51594SOL     OW56678  12.722  12.644   9.873
51594SOL    HW156679  12.693  12.553   9.874
51594SOL    HW256680  12.725  12.667   9.780
51595SOL     OW56681   9.747  12.525   6.070
51595SOL    HW156682   9.707  12.441   6.091
51595SOL    HW256683   9.835  12.521   6.108
51596SOL     OW56684   6.602  13.705   0.116
51596SOL    HW156685   6.524  13.650   0.109
51596SOL    HW256686   6.636  13.711   0.027
51597SOL     OW56687   9.422   6.664   3.346
51597SOL    HW156688   9.501   6.667   3.291
51597SOL    HW256689   9.446   6.715   3.424
51598SOL     OW56690   1.879  12.774   4.813
51598SOL    HW156691   1.936  12.850   4.823
51598SOL    HW256692   1.937  12.703   4.786
51599SOL     OW56693   7.625   5.939  12.319
51599SOL    HW156694   7.694   5.991  12.278
51599SOL    HW256695   7.558   6.002  12.345
51600SOL     OW56696   9.429   4.166   4.847
51600SOL    HW156697   9.371   4.241   4.837
51600SOL    HW256698   9.482   4.187   4.924
51601SOL     OW56699  13.838   8.598   8.759
51601SOL    HW156700  13.831   8.503   8.762
51601SOL    HW256701  13.823   8.626   8.850
51602SOL     OW56702   7.862  14.316  13.999
51602SOL    HW156703   7.769  14.337  14.007
51602SOL    HW256704   7.898  14.327  14.087
51603SOL     OW56705   3.107   0.532   7.321
51603SOL    HW156706   3.139   0.448   7.355
51603SOL    HW256707   3.088   0.584   7.400
51604SOL     OW56708  14.020  14.076   3.165
51604SOL    HW156709  13.997  14.018   3.093
51604SOL    HW256710  13.937  14.095   3.208
51605SOL     OW56711   1.728  13.580  11.912
51605SOL    HW156712   1.681  13.663  11.913
51605SOL    HW256713   1.678  13.522  11.970
51606SOL     OW56714   4.715  11.381  13.112
51606SOL    HW156715   4.673  11.434  13.044
51606SOL    HW256716   4.645  11.324  13.144
51607SOL     OW56717   6.688  13.353  10.739
51607SOL    HW156718   6.722  13.354  10.650
51607SOL    HW256719   6.740  13.419  10.785
51608SOL     OW56720  13.924   2.378  11.879
51608SOL    HW156721  13.950   2.288  11.896
51608SOL    HW256722  13.997   2.416  11.830
51609SOL     OW56723   4.009   1.572   8.447
51609SOL    HW156724   3.969   1.488   8.468
51609SOL    HW256725   4.092   1.550   8.406
51610SOL     OW56726   6.180   9.991   9.619
51610SOL    HW156727   6.196   9.993   9.524
51610SOL    HW256728   6.203  10.079   9.649
51611SOL     OW56729  12.306   0.645  13.437
51611SOL    HW156730  12.372   0.585  13.402
51611SOL    HW256731  12.355   0.719  13.470
51612SOL     OW56732  10.639   3.498   6.733
51612SOL    HW156733  10.592   3.460   6.807
51612SOL    HW256734  10.722   3.449   6.730
51613SOL     OW56735  10.607  13.413   6.462
51613SOL    HW156736  10.578  13.457   6.542
51613SOL    HW256737  10.588  13.320   6.478
51614SOL     OW56738  13.287   8.405  11.695
51614SOL    HW156739  13.213   8.356  11.660
51614SOL    HW256740  13.363   8.367  11.652
51615SOL     OW56741   4.141   9.141  13.932
51615SOL    HW156742   4.144   9.169  13.840
51615SOL    HW256743   4.178   9.053  13.931
51616SOL     OW56744   6.905   4.523   8.218
51616SOL    HW156745   6.811   4.511   8.212
51616SOL    HW256746   6.939   4.493   8.134
51617SOL     OW56747  14.305   3.244   0.258
51617SOL    HW156748  14.211   3.226   0.263
51617SOL    HW256749  14.346   3.162   0.285
51618SOL     OW56750   1.146  14.198   0.310
51618SOL    HW156751   1.139  14.176   0.217
51618SOL    HW256752   1.187  14.121   0.350
51619SOL     OW56753   3.721  13.945   0.927
51619SOL    HW156754   3.691  13.868   0.879
51619SOL    HW256755   3.695  14.019   0.873
51620SOL     OW56756   3.613   3.198   8.346
51620SOL    HW156757   3.658   3.137   8.289
51620SOL    HW256758   3.520   3.177   8.335
51621SOL     OW56759  11.510   8.268   0.794
51621SOL    HW156760  11.579   8.279   0.728
51621SOL    HW256761  11.490   8.175   0.792
51622SOL     OW56762  13.657  10.068   7.175
51622SOL    HW156763  13.594  10.034   7.112
51622SOL    HW256764  13.742  10.044   7.139
51623SOL     OW56765   1.102  11.553   2.425
51623SOL    HW156766   1.050  11.493   2.372
51623SOL    HW256767   1.039  11.616   2.459
51624SOL     OW56768   9.001  11.552  10.962
51624SOL    HW156769   9.027  11.477  11.016
51624SOL    HW256770   9.064  11.620  10.983
51625SOL     OW56771   6.674   6.666   3.172
51625SOL    HW156772   6.715   6.693   3.254
51625SOL    HW256773   6.587   6.704   3.176
51626SOL     OW56774   9.183   9.723   0.458
51626SOL    HW156775   9.170   9.764   0.543
51626SOL    HW256776   9.161   9.792   0.395
51627SOL     OW56777   7.147   6.733   6.612
51627SOL    HW156778   7.239   6.732   6.640
51627SOL    HW256779   7.098   6.761   6.689
51628SOL     OW56780   8.463   7.416   3.317
51628SOL    HW156781   8.526   7.485   3.297
51628SOL    HW256782   8.455   7.367   3.235
51629SOL     OW56783   3.071   4.530  10.270
51629SOL    HW156784   2.990   4.562  10.309
51629SOL    HW256785   3.122   4.610  10.252
51630SOL     OW56786   5.409   0.675  13.933
51630SOL    HW156787   5.493   0.711  13.907
51630SOL    HW256788   5.358   0.672  13.852
51631SOL     OW56789  12.584   7.592   6.548
51631SOL    HW156790  12.530   7.662   6.582
51631SOL    HW256791  12.674   7.622   6.561
51632SOL     OW56792   8.545   9.223  13.467
51632SOL    HW156793   8.595   9.303  13.484
51632SOL    HW256794   8.613   9.155  13.458
51633SOL     OW56795   1.826   9.530   9.269
51633SOL    HW156796   1.819   9.538   9.365
51633SOL    HW256797   1.742   9.564   9.236
51634SOL     OW56798   6.797   5.753   9.926
51634SOL    HW156799   6.874   5.809   9.917
51634SOL    HW256800   6.724   5.815   9.935
51635SOL     OW56801  11.942   6.415  11.412
51635SOL    HW156802  11.988   6.426  11.495
51635SOL    HW256803  11.963   6.493  11.361
51636SOL     OW56804  11.371   2.669   8.259
51636SOL    HW156805  11.284   2.634   8.239
51636SOL    HW256806  11.354   2.753   8.301
51637SOL     OW56807   4.730   3.405   4.680
51637SOL    HW156808   4.775   3.349   4.617
51637SOL    HW256809   4.771   3.491   4.668
51638SOL     OW56810  14.052  10.747  13.922
51638SOL    HW156811  13.958  10.750  13.906
51638SOL    HW256812  14.064  10.672  13.980
51639SOL     OW56813   8.023  14.685   9.589
51639SOL    HW156814   8.067  14.679   9.673
51639SOL    HW256815   8.071  14.753   9.541
51640SOL     OW56816   2.146  10.191  11.996
51640SOL    HW156817   2.194  10.167  11.916
51640SOL    HW256818   2.190  10.143  12.066
51641SOL     OW56819   9.252   3.123   2.532
51641SOL    HW156820   9.310   3.198   2.521
51641SOL    HW256821   9.185   3.134   2.465
51642SOL     OW56822   5.225   0.400   9.951
51642SOL    HW156823   5.268   0.314   9.958
51642SOL    HW256824   5.167   0.391   9.875
51643SOL     OW56825   2.900  10.076   1.661
51643SOL    HW156826   2.986  10.076   1.701
51643SOL    HW256827   2.904  10.007   1.595
51644SOL     OW56828   5.834   4.920  10.960
51644SOL    HW156829   5.761   4.934  11.020
51644SOL    HW256830   5.792   4.899  10.876
51645SOL     OW56831   7.503   2.143   2.775
51645SOL    HW156832   7.563   2.089   2.828
51645SOL    HW256833   7.553   2.164   2.696
51646SOL     OW56834   3.028  13.833   0.118
51646SOL    HW156835   3.041  13.740   0.136
51646SOL    HW256836   3.011  13.837   0.024
51647SOL     OW56837  12.637   4.306   2.380
51647SOL    HW156838  12.557   4.265   2.414
51647SOL    HW256839  12.646   4.386   2.432
51648SOL     OW56840  14.699   5.540  13.921
51648SOL    HW156841  14.725   5.626  13.954
51648SOL    HW256842  14.627   5.513  13.978
51649SOL     OW56843  12.250   7.509   7.923
51649SOL    HW156844  12.225   7.600   7.904
51649SOL    HW256845  12.274   7.511   8.016
51650SOL     OW56846   6.733   1.544   7.775
51650SOL    HW156847   6.815   1.592   7.790
51650SOL    HW256848   6.694   1.586   7.699
51651SOL     OW56849   4.458  10.535   8.575
51651SOL    HW156850   4.438  10.629   8.577
51651SOL    HW256851   4.413  10.503   8.497
51652SOL     OW56852   8.800   6.333   4.335
51652SOL    HW156853   8.768   6.302   4.420
51652SOL    HW256854   8.723   6.371   4.293
51653SOL     OW56855   9.706   9.160   7.187
51653SOL    HW156856   9.683   9.109   7.110
51653SOL    HW256857   9.725   9.095   7.255
51654SOL     OW56858   9.616   0.256   1.532
51654SOL    HW156859   9.559   0.317   1.486
51654SOL    HW256860   9.651   0.305   1.606
51655SOL     OW56861   9.596   7.016   6.194
51655SOL    HW156862   9.519   6.970   6.228
51655SOL    HW256863   9.645   7.044   6.272
51656SOL     OW56864  11.069   9.495  11.631
51656SOL    HW156865  11.088   9.435  11.703
51656SOL    HW256866  10.974   9.506  11.633
51657SOL     OW56867  14.463   5.792   6.860
51657SOL    HW156868  14.430   5.841   6.784
51657SOL    HW256869  14.481   5.859   6.926
51658SOL     OW56870   2.878   1.479  14.269
51658SOL    HW156871   2.924   1.469  14.353
51658SOL    HW256872   2.785   1.483  14.292
51659SOL     OW56873   2.545   3.707   5.762
51659SOL    HW156874   2.583   3.712   5.674
51659SOL    HW256875   2.457   3.673   5.747
51660SOL     OW56876   3.760  10.117   7.604
51660SOL    HW156877   3.696  10.047   7.594
51660SOL    HW256878   3.763  10.135   7.698
51661SOL     OW56879   9.035   7.413   5.104
51661SOL    HW156880   9.114   7.373   5.068
51661SOL    HW256881   8.964   7.376   5.052
51662SOL     OW56882   7.107   1.520   6.870
51662SOL    HW156883   7.040   1.587   6.855
51662SOL    HW256884   7.114   1.515   6.965
51663SOL     OW56885  10.714   8.321  14.580
51663SOL    HW156886  10.745   8.337  14.669
51663SOL    HW256887  10.785   8.354  14.524
51664SOL     OW56888  11.949  12.977   1.523
51664SOL    HW156889  12.020  13.016   1.473
51664SOL    HW256890  11.974  12.885   1.534
51665SOL     OW56891   7.134  11.004  13.040
51665SOL    HW156892   7.223  11.036  13.020
51665SOL    HW256893   7.079  11.082  13.033
51666SOL     OW56894  14.641   3.802   3.372
51666SOL    HW156895  14.724   3.832   3.411
51666SOL    HW256896  14.612   3.876   3.318
51667SOL     OW56897  12.672   2.721   7.666
51667SOL    HW156898  12.732   2.652   7.695
51667SOL    HW256899  12.714   2.758   7.589
51668SOL     OW56900   3.698   2.257  14.743
51668SOL    HW156901   3.676   2.348  14.765
51668SOL    HW256902   3.779   2.264  14.692
51669SOL     OW56903   7.953  10.215   6.511
51669SOL    HW156904   8.033  10.245   6.553
51669SOL    HW256905   7.889  10.212   6.582
51670SOL     OW56906   6.324  14.440   8.880
51670SOL    HW156907   6.295  14.516   8.830
51670SOL    HW256908   6.310  14.366   8.822
51671SOL     OW56909   0.656   2.616  10.781
51671SOL    HW156910   0.568   2.585  10.761
51671SOL    HW256911   0.699   2.624  10.696
51672SOL     OW56912  10.025   5.554   6.694
51672SOL    HW156913   9.995   5.638   6.662
51672SOL    HW256914  10.121   5.558   6.688
51673SOL     OW56915   8.042   8.347   5.251
51673SOL    HW156916   8.099   8.376   5.322
51673SOL    HW256917   8.040   8.252   5.259
51674SOL     OW56918   0.781   6.196   5.350
51674SOL    HW156919   0.748   6.118   5.395
51674SOL    HW256920   0.838   6.162   5.281
51675SOL     OW56921   7.094   6.672  11.707
51675SOL    HW156922   7.143   6.689  11.787
51675SOL    HW256923   7.003   6.694  11.729
51676SOL     OW56924   2.581   4.567  11.298
51676SOL    HW156925   2.529   4.639  11.261
51676SOL    HW256926   2.589   4.589  11.391
51677SOL     OW56927   7.812   1.828  12.429
51677SOL    HW156928   7.850   1.915  12.418
51677SOL    HW256929   7.851   1.793  12.509
51678SOL     OW56930  11.900   8.708   2.754
51678SOL    HW156931  11.960   8.689   2.826
51678SOL    HW256932  11.876   8.800   2.765
51679SOL     OW56933   8.459   1.724  13.539
51679SOL    HW156934   8.460   1.800  13.482
51679SOL    HW256935   8.542   1.680  13.522
51680SOL     OW56936  13.974  12.141   4.360
51680SOL    HW156937  14.021  12.069   4.319
51680SOL    HW256938  13.882  12.125   4.338
51681SOL     OW56939   6.951  12.676   1.946
51681SOL    HW156940   6.969  12.757   1.898
51681SOL    HW256941   7.031  12.625   1.936
51682SOL     OW56942  11.485  12.244   0.556
51682SOL    HW156943  11.557  12.300   0.586
51682SOL    HW256944  11.515  12.211   0.471
51683SOL     OW56945   0.214   5.732   8.860
51683SOL    HW156946   0.210   5.725   8.956
51683SOL    HW256947   0.195   5.644   8.829
51684SOL     OW56948  14.213   4.914  11.694
51684SOL    HW156949  14.225   4.820  11.682
51684SOL    HW256950  14.300   4.946  11.718
51685SOL     OW56951   0.656  11.220   4.899
51685SOL    HW156952   0.742  11.259   4.919
51685SOL    HW256953   0.594  11.290   4.917
51686SOL     OW56954  10.131   2.465  13.043
51686SOL    HW156955  10.131   2.406  12.967
51686SOL    HW256956  10.084   2.543  13.013
51687SOL     OW56957   4.399  11.115  10.221
51687SOL    HW156958   4.310  11.147  10.209
51687SOL    HW256959   4.422  11.076  10.137
51688SOL     OW56960   6.656   2.353   6.376
51688SOL    HW156961   6.709   2.411   6.431
51688SOL    HW256962   6.705   2.271   6.373
51689SOL     OW56963  13.126   3.011   3.979
51689SOL    HW156964  13.123   2.996   3.884
51689SOL    HW256965  13.052   2.961   4.013
51690SOL     OW56966  13.859  12.617  13.172
51690SOL    HW156967  13.799  12.651  13.105
51690SOL    HW256968  13.945  12.618  13.130
51691SOL     OW56969   6.600  13.670  11.821
51691SOL    HW156970   6.576  13.625  11.902
51691SOL    HW256971   6.679  13.720  11.844
51692SOL     OW56972  10.517   5.675  13.831
51692SOL    HW156973  10.479   5.612  13.769
51692SOL    HW256974  10.512   5.758  13.785
51693SOL     OW56975  12.601   2.966  13.236
51693SOL    HW156976  12.683   3.000  13.199
51693SOL    HW256977  12.628   2.917  13.314
51694SOL     OW56978  14.788   3.616   0.486
51694SOL    HW156979  14.720   3.561   0.448
51694SOL    HW256980  14.741   3.688   0.529
51695SOL     OW56981  14.104   8.178   8.319
51695SOL    HW156982  14.039   8.244   8.342
51695SOL    HW256983  14.107   8.179   8.224
51696SOL     OW56984   0.786   3.863  10.075
51696SOL    HW156985   0.850   3.893  10.139
51696SOL    HW256986   0.812   3.906   9.993
51697SOL     OW56987   6.773  12.582   2.805
51697SOL    HW156988   6.754  12.500   2.851
51697SOL    HW256989   6.769  12.558   2.712
51698SOL     OW56990  11.360   7.707  12.676
51698SOL    HW156991  11.288   7.725  12.616
51698SOL    HW256992  11.336   7.624  12.718
51699SOL     OW56993   4.596   0.889   6.760
51699SOL    HW156994   4.572   0.940   6.683
51699SOL    HW256995   4.521   0.831   6.775
51700SOL     OW56996   4.923   5.673   6.302
51700SOL    HW156997   5.003   5.633   6.266
51700SOL    HW256998   4.864   5.599   6.316
51701SOL     OW56999  14.709  10.251  14.654
51701SOL    HW157000  14.729  10.253  14.561
51701SOL    HW257001  14.793  10.239  14.697
51702SOL     OW57002  13.257   8.325   8.727
51702SOL    HW157003  13.190   8.300   8.791
51702SOL    HW257004  13.246   8.420   8.717
51703SOL     OW57005  10.951   3.188   9.696
51703SOL    HW157006  11.028   3.134   9.679
51703SOL    HW257007  10.973   3.274   9.660
51704SOL     OW57008  10.273  12.907   9.840
51704SOL    HW157009  10.285  12.860   9.923
51704SOL    HW257010  10.238  12.841   9.780
51705SOL     OW57011  12.264   0.215   3.274
51705SOL    HW157012  12.335   0.197   3.336
51705SOL    HW257013  12.280   0.154   3.202
51706SOL     OW57014  11.093   8.725   6.285
51706SOL    HW157015  11.001   8.729   6.311
51706SOL    HW257016  11.111   8.812   6.249
51707SOL     OW57017  10.613  13.486   2.474
51707SOL    HW157018  10.648  13.422   2.537
51707SOL    HW257019  10.519  13.487   2.490
51708SOL     OW57020  13.230   0.464   8.794
51708SOL    HW157021  13.169   0.418   8.736
51708SOL    HW257022  13.205   0.438   8.882
51709SOL     OW57023   5.213   0.214  10.256
51709SOL    HW157024   5.193   0.158  10.181
51709SOL    HW257025   5.298   0.183  10.287
51710SOL     OW57026  11.346   4.317   3.852
51710SOL    HW157027  11.427   4.359   3.882
51710SOL    HW257028  11.283   4.388   3.847
51711SOL     OW57029   1.527   5.474  14.562
51711SOL    HW157030   1.524   5.477  14.466
51711SOL    HW257031   1.437   5.453  14.588
51712SOL     OW57032   0.644   6.314   4.736
51712SOL    HW157033   0.624   6.406   4.718
51712SOL    HW257034   0.718   6.317   4.797
51713SOL     OW57035   8.678   0.707   9.802
51713SOL    HW157036   8.659   0.764   9.728
51713SOL    HW257037   8.679   0.765   9.878
51714SOL     OW57038   0.773   2.505  13.243
51714SOL    HW157039   0.862   2.500  13.279
51714SOL    HW257040   0.748   2.414  13.228
51715SOL     OW57041   2.698   2.407   7.590
51715SOL    HW157042   2.641   2.483   7.574
51715SOL    HW257043   2.787   2.443   7.592
51716SOL     OW57044   3.408  12.577  14.343
51716SOL    HW157045   3.445  12.532  14.267
51716SOL    HW257046   3.353  12.511  14.386
51717SOL     OW57047   5.459  11.330   3.069
51717SOL    HW157048   5.377  11.372   3.094
51717SOL    HW257049   5.459  11.332   2.973
51718SOL     OW57050   2.377  10.253   5.581
51718SOL    HW157051   2.421  10.203   5.650
51718SOL    HW257052   2.433  10.329   5.567
51719SOL     OW57053  12.884   1.539  11.302
51719SOL    HW157054  12.855   1.559  11.212
51719SOL    HW257055  12.809   1.495  11.342
51720SOL     OW57056   9.372   5.835   1.023
51720SOL    HW157057   9.358   5.742   1.004
51720SOL    HW257058   9.463   5.851   1.000
51721SOL     OW57059   5.588   1.100   7.946
51721SOL    HW157060   5.585   1.172   8.009
51721SOL    HW257061   5.577   1.142   7.861
51722SOL     OW57062  12.234  11.558   9.361
51722SOL    HW157063  12.275  11.643   9.348
51722SOL    HW257064  12.168  11.573   9.429
51723SOL     OW57065   0.897  10.563  13.124
51723SOL    HW157066   0.940  10.482  13.152
51723SOL    HW257067   0.896  10.558  13.028
51724SOL     OW57068   2.670   5.825   6.814
51724SOL    HW157069   2.743   5.860   6.763
51724SOL    HW257070   2.607   5.897   6.817
51725SOL     OW57071   4.095   5.117  11.637
51725SOL    HW157072   4.120   5.206  11.615
51725SOL    HW257073   4.031   5.126  11.708
51726SOL     OW57074  12.112   2.660   7.187
51726SOL    HW157075  12.170   2.705   7.249
51726SOL    HW257076  12.115   2.713   7.108
51727SOL     OW57077   1.231   5.688   2.099
51727SOL    HW157078   1.201   5.731   2.180
51727SOL    HW257079   1.182   5.606   2.096
51728SOL     OW57080  10.223   6.295   3.410
51728SOL    HW157081  10.178   6.285   3.326
51728SOL    HW257082  10.299   6.350   3.390
51729SOL     OW57083   3.054   9.151   5.585
51729SOL    HW157084   3.053   9.107   5.500
51729SOL    HW257085   3.066   9.080   5.648
51730SOL     OW57086  12.474   7.617   3.447
51730SOL    HW157087  12.520   7.542   3.486
51730SOL    HW257088  12.381   7.597   3.460
51731SOL     OW57089  13.713   2.890  11.741
51731SOL    HW157090  13.739   2.973  11.781
51731SOL    HW257091  13.684   2.836  11.815
51732SOL     OW57092   2.381   9.920   6.026
51732SOL    HW157093   2.356   9.827   6.028
51732SOL    HW257094   2.473   9.918   6.000
51733SOL     OW57095  12.904  13.358   7.036
51733SOL    HW157096  12.911  13.436   6.982
51733SOL    HW257097  12.811  13.337   7.037
51734SOL     OW57098   3.465   4.704   4.109
51734SOL    HW157099   3.462   4.791   4.069
51734SOL    HW257100   3.547   4.666   4.078
51735SOL     OW57101   6.243   8.893  11.054
51735SOL    HW157102   6.313   8.914  10.992
51735SOL    HW257103   6.284   8.904  11.140
51736SOL     OW57104  12.867   1.808   5.007
51736SOL    HW157105  12.792   1.779   5.059
51736SOL    HW257106  12.905   1.879   5.058
51737SOL     OW57107   0.406  11.601  13.548
51737SOL    HW157108   0.361  11.530  13.594
51737SOL    HW257109   0.335  11.660  13.521
51738SOL     OW57110   1.697  10.523   0.566
51738SOL    HW157111   1.709  10.448   0.508
51738SOL    HW257112   1.625  10.497   0.623
51739SOL     OW57113  11.686   0.458   4.692
51739SOL    HW157114  11.730   0.383   4.653
51739SOL    HW257115  11.626   0.419   4.756
51740SOL     OW57116   9.869  11.756   7.234
51740SOL    HW157117   9.778  11.763   7.263
51740SOL    HW257118   9.875  11.668   7.195
51741SOL     OW57119   2.882   8.012   2.431
51741SOL    HW157120   2.939   7.992   2.506
51741SOL    HW257121   2.942   8.036   2.361
51742SOL     OW57122  10.366   5.061   7.425
51742SOL    HW157123  10.286   5.009   7.426
51742SOL    HW257124  10.387   5.071   7.332
51743SOL     OW57125  11.704   4.001  12.350
51743SOL    HW157126  11.696   3.964  12.263
51743SOL    HW257127  11.754   4.082  12.337
51744SOL     OW57128  12.829   7.154   0.530
51744SOL    HW157129  12.887   7.201   0.471
51744SOL    HW257130  12.871   7.162   0.616
51745SOL     OW57131   0.107   8.020  10.348
51745SOL    HW157132   0.106   8.009  10.444
51745SOL    HW257133   0.014   8.023  10.324
51746SOL     OW57134   8.337   4.073   8.656
51746SOL    HW157135   8.241   4.073   8.650
51746SOL    HW257136   8.357   4.138   8.723
51747SOL     OW57137   4.060   5.921   9.103
51747SOL    HW157138   4.148   5.949   9.077
51747SOL    HW257139   4.074   5.838   9.149
51748SOL     OW57140  11.233  13.901   2.146
51748SOL    HW157141  11.199  13.987   2.171
51748SOL    HW257142  11.218  13.897   2.051
51749SOL     OW57143   4.250   9.706   7.685
51749SOL    HW157144   4.346   9.703   7.686
51749SOL    HW257145   4.223   9.647   7.756
51750SOL     OW57146   6.153   4.882  13.358
51750SOL    HW157147   6.123   4.886  13.449
51750SOL    HW257148   6.163   4.788  13.340
51751SOL     OW57149   9.019   9.575  12.994
51751SOL    HW157150   8.971   9.541  13.069
51751SOL    HW257151   9.109   9.548  13.009
51752SOL     OW57152   6.897   2.496   4.934
51752SOL    HW157153   6.953   2.440   4.880
51752SOL    HW257154   6.836   2.535   4.872
51753SOL     OW57155   2.254   1.293   6.433
51753SOL    HW157156   2.238   1.385   6.412
51753SOL    HW257157   2.267   1.291   6.528
51754SOL     OW57158   8.211   0.928  14.309
51754SOL    HW157159   8.165   0.963  14.386
51754SOL    HW257160   8.191   0.990  14.239
51755SOL     OW57161   9.932   6.241  12.926
51755SOL    HW157162   9.961   6.267  12.839
51755SOL    HW257163  10.009   6.253  12.982
51756SOL     OW57164   9.786   2.508   6.883
51756SOL    HW157165   9.817   2.437   6.826
51756SOL    HW257166   9.750   2.573   6.823
51757SOL     OW57167  11.949   2.415   0.641
51757SOL    HW157168  11.910   2.341   0.594
51757SOL    HW257169  12.013   2.375   0.700
51758SOL     OW57170   3.911   7.395   5.948
51758SOL    HW157171   3.884   7.305   5.928
51758SOL    HW257172   3.982   7.413   5.887
51759SOL     OW57173   3.351   0.726  13.744
51759SOL    HW157174   3.287   0.737  13.815
51759SOL    HW257175   3.316   0.778  13.672
51760SOL     OW57176   6.362   9.312   3.640
51760SOL    HW157177   6.387   9.388   3.693
51760SOL    HW257178   6.383   9.338   3.551
51761SOL     OW57179   6.884   6.224  10.341
51761SOL    HW157180   6.826   6.265  10.405
51761SOL    HW257181   6.865   6.270  10.259
51762SOL     OW57182   4.391   8.406  10.531
51762SOL    HW157183   4.422   8.446  10.612
51762SOL    HW257184   4.325   8.342  10.560
51763SOL     OW57185   4.166  12.360   8.170
51763SOL    HW157186   4.078  12.325   8.183
51763SOL    HW257187   4.194  12.388   8.257
51764SOL     OW57188  14.385   8.142   1.478
51764SOL    HW157189  14.448   8.126   1.409
51764SOL    HW257190  14.412   8.085   1.550
51765SOL     OW57191   0.088  11.239   7.023
51765SOL    HW157192   0.162  11.195   7.064
51765SOL    HW257193   0.011  11.203   7.066
51766SOL     OW57194   7.855  14.207  10.406
51766SOL    HW157195   7.815  14.271  10.347
51766SOL    HW257196   7.862  14.127  10.353
51767SOL     OW57197  13.395   9.291   3.889
51767SOL    HW157198  13.376   9.259   3.801
51767SOL    HW257199  13.312   9.330   3.919
51768SOL     OW57200   6.701   7.441   6.338
51768SOL    HW157201   6.612   7.445   6.305
51768SOL    HW257202   6.722   7.347   6.340
51769SOL     OW57203   8.099   9.953   3.603
51769SOL    HW157204   8.158   9.882   3.627
51769SOL    HW257205   8.122   9.974   3.512
51770SOL     OW57206   3.323  13.239   0.475
51770SOL    HW157207   3.414  13.244   0.503
51770SOL    HW257208   3.327  13.251   0.380
51771SOL     OW57209   9.698   7.749  10.469
51771SOL    HW157210   9.621   7.693  10.477
51771SOL    HW257211   9.667   7.836  10.494
51772SOL     OW57212   4.174   5.570   0.373
51772SOL    HW157213   4.084   5.554   0.345
51772SOL    HW257214   4.225   5.560   0.292
51773SOL     OW57215   9.811   5.195  13.157
51773SOL    HW157216   9.744   5.130  13.178
51773SOL    HW257217   9.823   5.245  13.237
51774SOL     OW57218  10.578   3.632   4.434
51774SOL    HW157219  10.511   3.690   4.401
51774SOL    HW257220  10.628   3.605   4.357
51775SOL     OW57221  13.667   8.103   6.423
51775SOL    HW157222  13.645   8.059   6.505
51775SOL    HW257223  13.707   8.035   6.369
51776SOL     OW57224   0.626  13.590   4.832
51776SOL    HW157225   0.533  13.612   4.825
51776SOL    HW257226   0.666  13.630   4.755
51777SOL     OW57227  11.837   2.799   8.433
51777SOL    HW157228  11.830   2.737   8.506
51777SOL    HW257229  11.930   2.820   8.429
51778SOL     OW57230   8.464   1.648  11.242
51778SOL    HW157231   8.490   1.584  11.176
51778SOL    HW257232   8.547   1.687  11.271
51779SOL     OW57233   7.900   7.491  14.465
51779SOL    HW157234   7.918   7.477  14.558
51779SOL    HW257235   7.844   7.568  14.462
51780SOL     OW57236  14.620   9.085  14.158
51780SOL    HW157237  14.652   9.115  14.243
51780SOL    HW257238  14.596   8.994  14.173
51781SOL     OW57239   9.987   4.508   8.235
51781SOL    HW157240  10.016   4.599   8.239
51781SOL    HW257241   9.920   4.508   8.166
51782SOL     OW57242   5.956   0.563   4.404
51782SOL    HW157243   6.039   0.549   4.359
51782SOL    HW257244   5.911   0.629   4.352
51783SOL     OW57245  14.683   8.707   5.712
51783SOL    HW157246  14.639   8.725   5.795
51783SOL    HW257247  14.616   8.723   5.646
51784SOL     OW57248  11.028  11.889  11.831
51784SOL    HW157249  11.041  11.935  11.913
51784SOL    HW257250  11.009  11.959  11.767
51785SOL     OW57251   6.634  12.409  11.274
51785SOL    HW157252   6.684  12.484  11.243
51785SOL    HW257253   6.542  12.433  11.259
51786SOL     OW57254  12.086   1.339  11.733
51786SOL    HW157255  12.053   1.326  11.644
51786SOL    HW257256  12.181   1.340  11.724
51787SOL     OW57257   1.527   2.273   6.639
51787SOL    HW157258   1.523   2.180   6.662
51787SOL    HW257259   1.436   2.302   6.645
51788SOL     OW57260  10.427   5.578   1.185
51788SOL    HW157261  10.484   5.607   1.114
51788SOL    HW257262  10.366   5.517   1.144
51789SOL     OW57263  11.221  13.013  12.965
51789SOL    HW157264  11.179  13.068  12.900
51789SOL    HW257265  11.154  12.999  13.032
51790SOL     OW57266   5.359  11.815  10.809
51790SOL    HW157267   5.394  11.868  10.880
51790SOL    HW257268   5.362  11.725  10.843
51791SOL     OW57269  10.399   4.945   0.637
51791SOL    HW157270  10.460   4.998   0.688
51791SOL    HW257271  10.449   4.915   0.562
51792SOL     OW57272  14.608  11.609   2.224
51792SOL    HW157273  14.542  11.617   2.155
51792SOL    HW257274  14.633  11.699   2.245
51793SOL     OW57275   4.694   6.837  12.746
51793SOL    HW157276   4.634   6.788  12.802
51793SOL    HW257277   4.780   6.798  12.764
51794SOL     OW57278  13.028  14.190  12.102
51794SOL    HW157279  13.012  14.220  12.012
51794SOL    HW257280  13.025  14.094  12.096
51795SOL     OW57281   5.763   0.532  11.995
51795SOL    HW157282   5.681   0.500  12.032
51795SOL    HW257283   5.831   0.479  12.038
51796SOL     OW57284   5.078   3.658   0.315
51796SOL    HW157285   4.999   3.709   0.299
51796SOL    HW257286   5.109   3.687   0.401
51797SOL     OW57287  11.626   7.433   1.341
51797SOL    HW157288  11.649   7.500   1.405
51797SOL    HW257289  11.654   7.350   1.380
51798SOL     OW57290   8.476  13.649   5.039
51798SOL    HW157291   8.411  13.625   5.105
51798SOL    HW257292   8.559  13.620   5.075
51799SOL     OW57293   4.290   9.156   9.893
51799SOL    HW157294   4.308   9.156   9.987
51799SOL    HW257295   4.375   9.172   9.852
51800SOL     OW57296   8.763  11.863   6.850
51800SOL    HW157297   8.715  11.818   6.919
51800SOL    HW257298   8.721  11.835   6.769
51801SOL     OW57299   4.257   2.389   2.597
51801SOL    HW157300   4.296   2.315   2.641
51801SOL    HW257301   4.278   2.464   2.653
51802SOL     OW57302   5.481   2.240   0.934
51802SOL    HW157303   5.512   2.149   0.929
51802SOL    HW257304   5.548   2.285   0.985
51803SOL     OW57305   4.515   8.631  10.125
51803SOL    HW157306   4.585   8.650  10.062
51803SOL    HW257307   4.438   8.676  10.091
51804SOL     OW57308   9.995   1.447  12.339
51804SOL    HW157309  10.012   1.508  12.267
51804SOL    HW257310  10.082   1.423  12.371
51805SOL     OW57311  13.690   9.899   1.000
51805SOL    HW157312  13.598   9.898   1.025
51805SOL    HW257313  13.719   9.809   1.012
51806SOL     OW57314   3.712  12.520  14.416
51806SOL    HW157315   3.691  12.456  14.348
51806SOL    HW257316   3.634  12.521  14.472
51807SOL     OW57317   4.199  14.347   0.774
51807SOL    HW157318   4.145  14.357   0.696
51807SOL    HW257319   4.289  14.341   0.741
51808SOL     OW57320   1.055   1.954   5.097
51808SOL    HW157321   1.145   1.922   5.096
51808SOL    HW257322   1.003   1.881   5.130
51809SOL     OW57323   1.996  10.152   1.987
51809SOL    HW157324   2.090  10.144   1.972
51809SOL    HW257325   1.983  10.243   2.012
51810SOL     OW57326   1.423   9.464   4.697
51810SOL    HW157327   1.372   9.418   4.629
51810SOL    HW257328   1.429   9.554   4.665
51811SOL     OW57329  13.666   2.143   6.918
51811SOL    HW157330  13.664   2.182   6.830
51811SOL    HW257331  13.591   2.083   6.918
51812SOL     OW57332  11.564   5.244   3.575
51812SOL    HW157333  11.489   5.250   3.634
51812SOL    HW257334  11.617   5.321   3.596
51813SOL     OW57335   4.253   0.331   6.261
51813SOL    HW157336   4.303   0.297   6.335
51813SOL    HW257337   4.190   0.392   6.300
51814SOL     OW57338   0.913  10.744  14.660
51814SOL    HW157339   0.838  10.695  14.626
51814SOL    HW257340   0.956  10.683  14.721
51815SOL     OW57341   0.542  14.561   7.844
51815SOL    HW157342   0.484  14.575   7.919
51815SOL    HW257343   0.608  14.500   7.876
51816SOL     OW57344   1.876   9.941   1.131
51816SOL    HW157345   1.969   9.927   1.145
51816SOL    HW257346   1.871   9.988   1.047
51817SOL     OW57347   8.672  10.720  10.225
51817SOL    HW157348   8.689  10.755  10.313
51817SOL    HW257349   8.706  10.630  10.229
51818SOL     OW57350   8.183   2.993  11.303
51818SOL    HW157351   8.193   3.054  11.376
51818SOL    HW257352   8.145   2.915  11.343
51819SOL     OW57353   0.634   8.183   6.755
51819SOL    HW157354   0.611   8.274   6.775
51819SOL    HW257355   0.706   8.189   6.693
51820SOL     OW57356   9.235  10.402   0.908
51820SOL    HW157357   9.186  10.384   0.989
51820SOL    HW257358   9.297  10.329   0.900
51821SOL     OW57359  12.397   4.387   3.617
51821SOL    HW157360  12.360   4.343   3.693
51821SOL    HW257361  12.413   4.318   3.553
51822SOL     OW57362   1.718   9.851   5.011
51822SOL    HW157363   1.737   9.830   5.102
51822SOL    HW257364   1.798   9.893   4.979
51823SOL     OW57365   7.290  14.196  14.028
51823SOL    HW157366   7.270  14.139  13.954
51823SOL    HW257367   7.289  14.139  14.104
51824SOL     OW57368   2.361  12.683   4.526
51824SOL    HW157369   2.402  12.736   4.457
51824SOL    HW257370   2.391  12.724   4.608
51825SOL     OW57371   0.841  13.757   7.631
51825SOL    HW157372   0.907  13.827   7.629
51825SOL    HW257373   0.891  13.677   7.614
51826SOL     OW57374  11.237   6.169   6.321
51826SOL    HW157375  11.320   6.210   6.346
51826SOL    HW257376  11.180   6.182   6.397
51827SOL     OW57377   4.576   7.047  13.768
51827SOL    HW157378   4.591   7.055  13.674
51827SOL    HW257379   4.608   7.130  13.804
51828SOL     OW57380   3.044  12.212   0.597
51828SOL    HW157381   3.058  12.151   0.524
51828SOL    HW257382   3.124  12.206   0.648
51829SOL     OW57383   4.575  12.113   8.584
51829SOL    HW157384   4.533  12.175   8.525
51829SOL    HW257385   4.664  12.104   8.550
51830SOL     OW57386   0.698  10.977   4.265
51830SOL    HW157387   0.619  10.969   4.213
51830SOL    HW257388   0.690  10.908   4.332
51831SOL     OW57389  12.417  13.227   7.221
51831SOL    HW157390  12.357  13.207   7.149
51831SOL    HW257391  12.405  13.155   7.283
51832SOL     OW57392   0.358   0.061   8.629
51832SOL    HW157393   0.318   0.146   8.614
51832SOL    HW257394   0.287  14.875   8.614
51833SOL     OW57395   9.091   2.609   4.828
51833SOL    HW157396   9.025   2.541   4.810
51833SOL    HW257397   9.126   2.587   4.914
51834SOL     OW57398  12.050   7.476  10.295
51834SOL    HW157399  12.070   7.450  10.385
51834SOL    HW257400  11.955   7.487  10.294
51835SOL     OW57401  13.584   4.573  12.931
51835SOL    HW157402  13.654   4.550  12.992
51835SOL    HW257403  13.505   4.536  12.971
51836SOL     OW57404  14.365   9.026  10.163
51836SOL    HW157405  14.413   9.058  10.086
51836SOL    HW257406  14.273   9.042  10.143
51837SOL     OW57407   3.672   0.626  10.266
51837SOL    HW157408   3.629   0.646  10.349
51837SOL    HW257409   3.634   0.689  10.204
51838SOL     OW57410  12.716  10.059   3.205
51838SOL    HW157411  12.777  10.111   3.257
51838SOL    HW257412  12.637  10.112   3.202
51839SOL     OW57413   1.672  13.181   7.485
51839SOL    HW157414   1.753  13.196   7.435
51839SOL    HW257415   1.702  13.136   7.565
51840SOL     OW57416   2.990  13.563   1.908
51840SOL    HW157417   2.938  13.619   1.966
51840SOL    HW257418   2.925  13.518   1.854
51841SOL     OW57419   5.161   2.824   3.388
51841SOL    HW157420   5.221   2.899   3.392
51841SOL    HW257421   5.213   2.750   3.418
51842SOL     OW57422  13.385   4.472   3.453
51842SOL    HW157423  13.355   4.461   3.544
51842SOL    HW257424  13.305   4.495   3.405
51843SOL     OW57425  10.202   3.652   3.330
51843SOL    HW157426  10.210   3.748   3.324
51843SOL    HW257427  10.122   3.638   3.381
51844SOL     OW57428   6.903  10.557   2.427
51844SOL    HW157429   6.964  10.622   2.463
51844SOL    HW257430   6.893  10.582   2.335
51845SOL     OW57431   3.336   1.697   0.126
51845SOL    HW157432   3.374   1.735   0.047
51845SOL    HW257433   3.402   1.635   0.158
51846SOL     OW57434   6.507  10.887   3.462
51846SOL    HW157435   6.549  10.888   3.549
51846SOL    HW257436   6.420  10.852   3.478
51847SOL     OW57437   6.805  10.798   8.012
51847SOL    HW157438   6.856  10.868   7.971
51847SOL    HW257439   6.859  10.769   8.086
51848SOL     OW57440  14.795   3.601  11.843
51848SOL    HW157441  14.770   3.659  11.915
51848SOL    HW257442   0.012   3.590  11.852
51849SOL     OW57443   0.576   0.626   9.426
51849SOL    HW157444   0.513   0.613   9.356
51849SOL    HW257445   0.635   0.550   9.421
51850SOL     OW57446   6.711  10.647  12.337
51850SOL    HW157447   6.795  10.602  12.326
51850SOL    HW257448   6.650  10.579  12.366
51851SOL     OW57449   5.458   9.813   4.647
51851SOL    HW157450   5.384   9.752   4.641
51851SOL    HW257451   5.525   9.765   4.696
51852SOL     OW57452   7.887   5.575   3.548
51852SOL    HW157453   7.869   5.530   3.466
51852SOL    HW257454   7.800   5.598   3.583
51853SOL     OW57455   6.249   9.289  14.763
51853SOL    HW157456   6.300   9.369  14.777
51853SOL    HW257457   6.302   9.237  14.702
51854SOL     OW57458   5.497   7.453  12.184
51854SOL    HW157459   5.550   7.379  12.153
51854SOL    HW257460   5.425   7.413  12.233
51855SOL     OW57461   1.238  13.806   8.334
51855SOL    HW157462   1.229  13.730   8.392
51855SOL    HW257463   1.270  13.769   8.251
51856SOL     OW57464   4.021   7.185   8.572
51856SOL    HW157465   4.057   7.242   8.640
51856SOL    HW257466   3.937   7.226   8.550
51857SOL     OW57467   1.229   0.725  13.846
51857SOL    HW157468   1.152   0.757  13.799
51857SOL    HW257469   1.266   0.803  13.887
51858SOL     OW57470  13.587   8.426   3.131
51858SOL    HW157471  13.538   8.344   3.128
51858SOL    HW257472  13.522   8.493   3.110
51859SOL     OW57473  14.484   3.222   5.089
51859SOL    HW157474  14.521   3.290   5.033
51859SOL    HW257475  14.481   3.261   5.176
51860SOL     OW57476   9.489   0.945  14.064
51860SOL    HW157477   9.528   0.893  14.134
51860SOL    HW257478   9.445   1.017  14.109
51861SOL     OW57479  12.403  12.662  12.538
51861SOL    HW157480  12.360  12.693  12.459
51861SOL    HW257481  12.418  12.568  12.523
51862SOL     OW57482   4.508   0.213   3.389
51862SOL    HW157483   4.541   0.123   3.395
51862SOL    HW257484   4.531   0.253   3.473
51863SOL     OW57485  11.970  12.664   3.205
51863SOL    HW157486  11.880  12.682   3.180
51863SOL    HW257487  11.965  12.633   3.295
51864SOL     OW57488   9.052  12.616  14.107
51864SOL    HW157489   8.981  12.675  14.131
51864SOL    HW257490   9.043  12.606  14.012
51865SOL     OW57491  11.454   9.241   7.027
51865SOL    HW157492  11.490   9.291   6.953
51865SOL    HW257493  11.386   9.298   7.063
51866SOL     OW57494   8.289   9.578   1.218
51866SOL    HW157495   8.351   9.530   1.163
51866SOL    HW257496   8.210   9.524   1.220
51867SOL     OW57497   5.709   5.599  13.190
51867SOL    HW157498   5.777   5.582  13.125
51867SOL    HW257499   5.690   5.513  13.227
51868SOL     OW57500   3.025   0.887  13.525
51868SOL    HW157501   2.945   0.899  13.577
51868SOL    HW257502   3.080   0.962  13.548
51869SOL     OW57503  11.815  13.554   7.693
51869SOL    HW157504  11.869  13.630   7.672
51869SOL    HW257505  11.730  13.572   7.653
51870SOL     OW57506   6.626  12.265  14.194
51870SOL    HW157507   6.645  12.181  14.152
51870SOL    HW257508   6.615  12.326  14.120
51871SOL     OW57509   0.700  13.362  13.921
51871SOL    HW157510   0.774  13.331  13.975
51871SOL    HW257511   0.738  13.374  13.834
51872SOL     OW57512   2.663  10.014   6.010
51872SOL    HW157513   2.677  10.098   5.968
51872SOL    HW257514   2.751   9.978   6.023
51873SOL     OW57515   4.130   7.857   4.171
51873SOL    HW157516   4.180   7.824   4.246
51873SOL    HW257517   4.066   7.788   4.154
51874SOL     OW57518   6.959   4.285  12.647
51874SOL    HW157519   6.929   4.272  12.737
51874SOL    HW257520   6.888   4.251  12.593
51875SOL     OW57521  13.688   3.727   0.977
51875SOL    HW157522  13.611   3.765   1.019
51875SOL    HW257523  13.745   3.802   0.960
51876SOL     OW57524   7.438  11.102   7.418
51876SOL    HW157525   7.394  11.184   7.398
51876SOL    HW257526   7.498  11.088   7.345
51877SOL     OW57527   8.917  14.663   0.034
51877SOL    HW157528   9.006  14.693   0.051
51877SOL    HW257529   8.926  14.571   0.010
51878SOL     OW57530   5.481   5.463   7.183
51878SOL    HW157531   5.392   5.431   7.171
51878SOL    HW257532   5.527   5.436   7.103
51879SOL     OW57533   5.691  14.110   3.245
51879SOL    HW157534   5.666  14.024   3.211
51879SOL    HW257535   5.628  14.128   3.315
51880SOL     OW57536   8.158   9.755   3.306
51880SOL    HW157537   8.143   9.719   3.393
51880SOL    HW257538   8.184   9.846   3.321
51881SOL     OW57539  12.756   2.457  11.184
51881SOL    HW157540  12.666   2.489  11.183
51881SOL    HW257541  12.777   2.446  11.277
51882SOL     OW57542   4.200  11.819   0.275
51882SOL    HW157543   4.292  11.846   0.285
51882SOL    HW257544   4.196  11.731   0.312
51883SOL     OW57545  14.448   1.495   7.207
51883SOL    HW157546  14.427   1.532   7.293
51883SOL    HW257547  14.447   1.570   7.148
51884SOL     OW57548  14.727  13.652   1.966
51884SOL    HW157549  14.686  13.620   2.046
51884SOL    HW257550  14.654  13.667   1.906
51885SOL     OW57551   9.603   1.117  10.237
51885SOL    HW157552   9.566   1.166  10.310
51885SOL    HW257553   9.697   1.112  10.256
51886SOL     OW57554   0.009   4.559  13.056
51886SOL    HW157555  14.866   4.499  12.984
51886SOL    HW257556   0.022   4.644  13.014
51887SOL     OW57557   5.507  13.828   7.360
51887SOL    HW157558   5.593  13.871   7.360
51887SOL    HW257559   5.480  13.827   7.452
51888SOL     OW57560   6.355   1.509   4.214
51888SOL    HW157561   6.427   1.516   4.276
51888SOL    HW257562   6.300   1.439   4.250
51889SOL     OW57563  11.218   6.474   8.923
51889SOL    HW157564  11.210   6.491   9.017
51889SOL    HW257565  11.130   6.486   8.888
51890SOL     OW57566   4.847  11.229   4.888
51890SOL    HW157567   4.886  11.315   4.873
51890SOL    HW257568   4.780  11.244   4.954
51891SOL     OW57569   6.477   3.956  13.854
51891SOL    HW157570   6.469   4.051  13.863
51891SOL    HW257571   6.566   3.937  13.881
51892SOL     OW57572   1.735  10.114   6.181
51892SOL    HW157573   1.733  10.025   6.216
51892SOL    HW257574   1.818  10.151   6.212
51893SOL     OW57575   0.519  12.856  13.987
51893SOL    HW157576   0.430  12.856  13.952
51893SOL    HW257577   0.513  12.906  14.069
51894SOL     OW57578   0.759   0.900  10.998
51894SOL    HW157579   0.752   0.975  10.939
51894SOL    HW257580   0.680   0.849  10.981
51895SOL     OW57581  12.293   1.942   9.415
51895SOL    HW157582  12.290   2.015   9.477
51895SOL    HW257583  12.316   1.982   9.332
51896SOL     OW57584   0.711   1.107  12.774
51896SOL    HW157585   0.621   1.094  12.804
51896SOL    HW257586   0.706   1.100  12.679
51897SOL     OW57587   8.750  13.314   6.962
51897SOL    HW157588   8.846  13.316   6.964
51897SOL    HW257589   8.728  13.253   6.892
51898SOL     OW57590  14.402   4.119   8.804
51898SOL    HW157591  14.423   4.025   8.812
51898SOL    HW257592  14.415   4.139   8.712
51899SOL     OW57593  14.214   0.639  13.932
51899SOL    HW157594  14.138   0.697  13.939
51899SOL    HW257595  14.287   0.697  13.910
51900SOL     OW57596  10.437   8.124  10.580
51900SOL    HW157597  10.381   8.105  10.655
51900SOL    HW257598  10.457   8.217  10.588
51901SOL     OW57599  11.962   6.507   2.360
51901SOL    HW157600  11.877   6.511   2.317
51901SOL    HW257601  12.021   6.474   2.293
51902SOL     OW57602  12.460   3.105   3.774
51902SOL    HW157603  12.403   3.049   3.826
51902SOL    HW257604  12.405   3.137   3.703
51903SOL     OW57605  12.283   1.047   5.882
51903SOL    HW157606  12.370   1.087   5.878
51903SOL    HW257607  12.255   1.040   5.791
51904SOL     OW57608   3.288   8.047  12.546
51904SOL    HW157609   3.271   8.134  12.511
51904SOL    HW257610   3.358   8.012  12.490
51905SOL     OW57611   2.484   8.659   6.340
51905SOL    HW157612   2.488   8.566   6.316
51905SOL    HW257613   2.568   8.676   6.384
51906SOL     OW57614  12.542   1.446   3.835
51906SOL    HW157615  12.635   1.431   3.855
51906SOL    HW257616  12.508   1.360   3.814
51907SOL     OW57617   7.655   4.748   7.570
51907SOL    HW157618   7.709   4.783   7.642
51907SOL    HW257619   7.671   4.808   7.497
51908SOL     OW57620  14.065  13.498  13.258
51908SOL    HW157621  14.068  13.591  13.282
51908SOL    HW257622  13.984  13.466  13.297
51909SOL     OW57623   7.758   2.128   2.123
51909SOL    HW157624   7.830   2.102   2.066
51909SOL    HW257625   7.785   2.212   2.159
51910SOL     OW57626   3.334   8.882  13.407
51910SOL    HW157627   3.404   8.882  13.341
51910SOL    HW257628   3.331   8.972  13.437
51911SOL     OW57629   2.294   8.498   7.968
51911SOL    HW157630   2.246   8.519   7.888
51911SOL    HW257631   2.385   8.488   7.940
51912SOL     OW57632   5.327   3.740   6.381
51912SOL    HW157633   5.291   3.794   6.452
51912SOL    HW257634   5.417   3.722   6.407
51913SOL     OW57635   8.401   0.813   6.435
51913SOL    HW157636   8.453   0.833   6.513
51913SOL    HW257637   8.400   0.717   6.431
51914SOL     OW57638  14.203   0.799  13.138
51914SOL    HW157639  14.140   0.729  13.126
51914SOL    HW257640  14.157   0.878  13.110
51915SOL     OW57641   1.664  14.563  14.529
51915SOL    HW157642   1.621  14.548  14.613
51915SOL    HW257643   1.758  14.564  14.550
51916SOL     OW57644   4.137   1.946  14.194
51916SOL    HW157645   4.044   1.940  14.169
51916SOL    HW257646   4.153   1.868  14.247
51917SOL     OW57647   1.556   6.561   5.060
51917SOL    HW157648   1.491   6.501   5.023
51917SOL    HW257649   1.509   6.607   5.130
51918SOL     OW57650   6.195   3.564   7.480
51918SOL    HW157651   6.150   3.630   7.427
51918SOL    HW257652   6.288   3.575   7.457
51919SOL     OW57653   6.709   8.702  11.923
51919SOL    HW157654   6.673   8.728  12.007
51919SOL    HW257655   6.763   8.626  11.942
51920SOL     OW57656  12.543   6.695   8.422
51920SOL    HW157657  12.484   6.747   8.476
51920SOL    HW257658  12.511   6.708   8.333
51921SOL     OW57659   0.416  11.653   9.250
51921SOL    HW157660   0.429  11.746   9.228
51921SOL    HW257661   0.437  11.606   9.170
51922SOL     OW57662   5.727  14.811   1.787
51922SOL    HW157663   5.732  14.771   1.874
51922SOL    HW257664   5.635  14.835   1.776
51923SOL     OW57665  13.202   2.819   8.240
51923SOL    HW157666  13.192   2.847   8.331
51923SOL    HW257667  13.189   2.899   8.189
51924SOL     OW57668   4.413   8.588   3.093
51924SOL    HW157669   4.325   8.616   3.118
51924SOL    HW257670   4.413   8.591   2.997
51925SOL     OW57671   3.515   3.950   9.777
51925SOL    HW157672   3.430   3.908   9.788
51925SOL    HW257673   3.504   4.005   9.699
51926SOL     OW57674  10.469   5.628   7.478
51926SOL    HW157675  10.382   5.645   7.442
51926SOL    HW257676  10.486   5.536   7.455
51927SOL     OW57677   1.121   9.420   0.867
51927SOL    HW157678   1.148   9.507   0.895
51927SOL    HW257679   1.026   9.421   0.877
51928SOL     OW57680   4.302  14.103   4.430
51928SOL    HW157681   4.321  14.141   4.344
51928SOL    HW257682   4.365  14.032   4.439
51929SOL     OW57683  12.655  13.282   6.975
51929SOL    HW157684  12.677  13.189   6.973
51929SOL    HW257685  12.637  13.305   6.884
51930SOL     OW57686   4.850   5.964   1.995
51930SOL    HW157687   4.917   5.901   2.023
51930SOL    HW257688   4.843   5.951   1.900
51931SOL     OW57689   0.369  11.040   9.625
51931SOL    HW157690   0.332  11.011   9.541
51931SOL    HW257691   0.308  11.107   9.656
51932SOL     OW57692   5.827   1.680   5.783
51932SOL    HW157693   5.906   1.625   5.780
51932SOL    HW257694   5.834   1.727   5.866
51933SOL     OW57695  13.677  13.593  14.554
51933SOL    HW157696  13.585  13.604  14.576
51933SOL    HW257697  13.685  13.500  14.531
51934SOL     OW57698   6.069   3.338   8.961
51934SOL    HW157699   6.136   3.333   8.893
51934SOL    HW257700   6.053   3.432   8.972
51935SOL     OW57701   8.198   6.525   3.645
51935SOL    HW157702   8.219   6.618   3.650
51935SOL    HW257703   8.156   6.506   3.729
51936SOL     OW57704   7.352   1.529   4.586
51936SOL    HW157705   7.267   1.571   4.601
51936SOL    HW257706   7.407   1.560   4.658
51937SOL     OW57707   2.017  13.677   5.176
51937SOL    HW157708   1.932  13.714   5.156
51937SOL    HW257709   1.998  13.591   5.215
51938SOL     OW57710   8.504  13.318   0.714
51938SOL    HW157711   8.466  13.260   0.649
51938SOL    HW257712   8.475  13.405   0.689
51939SOL     OW57713   3.787   3.833   8.637
51939SOL    HW157714   3.762   3.796   8.552
51939SOL    HW257715   3.868   3.882   8.618
51940SOL     OW57716   8.526   9.889   0.750
51940SOL    HW157717   8.541   9.818   0.687
51940SOL    HW257718   8.535   9.969   0.699
51941SOL     OW57719   4.825  14.325  13.801
51941SOL    HW157720   4.858  14.396  13.747
51941SOL    HW257721   4.746  14.361  13.842
51942SOL     OW57722   5.408  13.024   0.460
51942SOL    HW157723   5.377  13.080   0.531
51942SOL    HW257724   5.335  13.020   0.398
51943SOL     OW57725  12.844   1.378   0.087
51943SOL    HW157726  12.766   1.323   0.084
51943SOL    HW257727  12.871   1.376   0.179
51944SOL     OW57728  12.297   6.003   0.710
51944SOL    HW157729  12.332   6.075   0.659
51944SOL    HW257730  12.277   5.935   0.645
51945SOL     OW57731   0.067   8.660  14.312
51945SOL    HW157732  14.852   8.657  14.336
51945SOL    HW257733   0.114   8.637  14.393
51946SOL     OW57734   4.218  14.753  13.047
51946SOL    HW157735   4.280  14.826  13.054
51946SOL    HW257736   4.137  14.794  13.014
51947SOL     OW57737  10.689  14.154   1.360
51947SOL    HW157738  10.733  14.085   1.410
51947SOL    HW257739  10.689  14.121   1.270
51948SOL     OW57740   2.870  10.210   1.390
51948SOL    HW157741   2.876  10.199   1.485
51948SOL    HW257742   2.858  10.122   1.356
51949SOL     OW57743  11.133   9.996   2.390
51949SOL    HW157744  11.224  10.020   2.370
51949SOL    HW257745  11.106   9.940   2.318
51950SOL     OW57746   6.486  10.451   6.117
51950SOL    HW157747   6.450  10.538   6.100
51950SOL    HW257748   6.571  10.451   6.073
51951SOL     OW57749   8.974  14.602  10.895
51951SOL    HW157750   8.907  14.642  10.839
51951SOL    HW257751   8.995  14.519  10.851
51952SOL     OW57752  10.902   0.907   9.282
51952SOL    HW157753  10.940   0.838   9.336
51952SOL    HW257754  10.975   0.966   9.263
51953SOL     OW57755  11.398  11.749  11.260
51953SOL    HW157756  11.313  11.744  11.217
51953SOL    HW257757  11.439  11.664  11.242
51954SOL     OW57758  12.250  14.233  11.080
51954SOL    HW157759  12.295  14.253  10.998
51954SOL    HW257760  12.270  14.307  11.137
51955SOL     OW57761  12.574   0.317  10.381
51955SOL    HW157762  12.552   0.255  10.312
51955SOL    HW257763  12.570   0.403  10.340
51956SOL     OW57764   1.078   4.178   1.154
51956SOL    HW157765   1.148   4.241   1.173
51956SOL    HW257766   1.102   4.140   1.070
51957SOL     OW57767   9.649  12.270   6.958
51957SOL    HW157768   9.599  12.202   6.913
51957SOL    HW257769   9.634  12.253   7.051
51958SOL     OW57770   1.599   5.772   0.445
51958SOL    HW157771   1.553   5.757   0.363
51958SOL    HW257772   1.657   5.695   0.454
51959SOL     OW57773   7.517   2.260  12.301
51959SOL    HW157774   7.458   2.231  12.370
51959SOL    HW257775   7.592   2.297  12.348
51960SOL     OW57776  11.715   3.349  14.352
51960SOL    HW157777  11.645   3.294  14.385
51960SOL    HW257778  11.777   3.288  14.311
51961SOL     OW57779  12.970   1.244  10.911
51961SOL    HW157780  12.993   1.337  10.918
51961SOL    HW257781  13.049   1.203  10.875
51962SOL     OW57782   2.098   0.970   0.274
51962SOL    HW157783   2.159   0.915   0.323
51962SOL    HW257784   2.061   0.911   0.208
51963SOL     OW57785  14.555  14.681  10.008
51963SOL    HW157786  14.524  14.681   9.918
51963SOL    HW257787  14.476  14.688  10.061
51964SOL     OW57788  13.227   7.328  11.763
51964SOL    HW157789  13.222   7.321  11.668
51964SOL    HW257790  13.159   7.392  11.786
51965SOL     OW57791   9.990   2.523   9.960
51965SOL    HW157792  10.053   2.453   9.979
51965SOL    HW257793   9.946   2.539  10.043
51966SOL     OW57794   9.250  13.814   8.034
51966SOL    HW157795   9.176  13.821   8.095
51966SOL    HW257796   9.302  13.893   8.050
51967SOL     OW57797  12.554   3.936  14.700
51967SOL    HW157798  12.544   3.847  14.666
51967SOL    HW257799  12.648   3.953  14.695
51968SOL     OW57800   2.062  13.187  13.118
51968SOL    HW157801   2.118  13.109  13.123
51968SOL    HW257802   2.015  13.176  13.035
51969SOL     OW57803   2.537  14.512  11.235
51969SOL    HW157804   2.535  14.607  11.226
51969SOL    HW257805   2.466  14.492  11.296
51970SOL     OW57806   4.329   2.850   7.147
51970SOL    HW157807   4.337   2.830   7.053
51970SOL    HW257808   4.389   2.923   7.161
51971SOL     OW57809   5.992   0.499   6.044
51971SOL    HW157810   6.022   0.470   6.130
51971SOL    HW257811   6.070   0.531   6.000
51972SOL     OW57812   4.168  10.778   8.918
51972SOL    HW157813   4.091  10.772   8.861
51972SOL    HW257814   4.226  10.710   8.885
51973SOL     OW57815  12.968   0.060   4.218
51973SOL    HW157816  13.046   0.087   4.266
51973SOL    HW257817  12.951   0.132   4.158
51974SOL     OW57818  13.121  11.387   9.293
51974SOL    HW157819  13.056  11.390   9.223
51974SOL    HW257820  13.173  11.308   9.273
51975SOL     OW57821  13.116   2.024   0.236
51975SOL    HW157822  13.209   2.009   0.221
51975SOL    HW257823  13.094   1.965   0.308
51976SOL     OW57824   4.822  11.989  10.525
51976SOL    HW157825   4.805  11.975  10.618
51976SOL    HW257826   4.790  11.909  10.483
51977SOL     OW57827   4.906   9.088   7.135
51977SOL    HW157828   4.931   9.112   7.224
51977SOL    HW257829   4.826   9.139   7.118
51978SOL     OW57830   2.878   5.493   2.980
51978SOL    HW157831   2.834   5.569   2.942
51978SOL    HW257832   2.965   5.493   2.941
51979SOL     OW57833  11.158   9.705   8.132
51979SOL    HW157834  11.157   9.619   8.089
51979SOL    HW257835  11.066   9.727   8.145
51980SOL     OW57836   1.526   5.729  11.836
51980SOL    HW157837   1.484   5.790  11.776
51980SOL    HW257838   1.607   5.774  11.862
51981SOL     OW57839   2.493  11.437  10.840
51981SOL    HW157840   2.497  11.372  10.770
51981SOL    HW257841   2.475  11.520  10.795
51982SOL     OW57842   9.815  10.662   4.872
51982SOL    HW157843   9.751  10.611   4.922
51982SOL    HW257844   9.828  10.612   4.792
51983SOL     OW57845  14.855   4.290   9.021
51983SOL    HW157846   0.003   4.251   9.105
51983SOL    HW257847   0.051   4.347   8.998
51984SOL     OW57848   0.980  12.345   1.409
51984SOL    HW157849   1.019  12.409   1.469
51984SOL    HW257850   0.910  12.394   1.365
51985SOL     OW57851   8.938   2.947   8.190
51985SOL    HW157852   8.986   2.865   8.178
51985SOL    HW257853   8.917   2.948   8.284
51986SOL     OW57854   5.894   5.563  12.991
51986SOL    HW157855   5.877   5.610  12.909
51986SOL    HW257856   5.987   5.541  12.987
51987SOL     OW57857   3.306  10.130   6.815
51987SOL    HW157858   3.354  10.094   6.741
51987SOL    HW257859   3.274  10.053   6.863
51988SOL     OW57860   2.978   0.754   1.184
51988SOL    HW157861   2.958   0.729   1.274
51988SOL    HW257862   2.989   0.670   1.138
51989SOL     OW57863   8.173  12.626   6.493
51989SOL    HW157864   8.216  12.686   6.553
51989SOL    HW257865   8.144  12.681   6.420
51990SOL     OW57866  10.779   1.004   4.070
51990SOL    HW157867  10.721   1.080   4.078
51990SOL    HW257868  10.860   1.039   4.033
51991SOL     OW57869  14.122   0.602   5.971
51991SOL    HW157870  14.176   0.584   6.048
51991SOL    HW257871  14.175   0.574   5.897
51992SOL     OW57872   5.866   2.850   9.000
51992SOL    HW157873   5.891   2.787   9.067
51992SOL    HW257874   5.914   2.929   9.022
51993SOL     OW57875   4.704  13.836   9.668
51993SOL    HW157876   4.793  13.805   9.682
51993SOL    HW257877   4.670  13.852   9.755
51994SOL     OW57878   8.204   5.790   1.618
51994SOL    HW157879   8.237   5.872   1.582
51994SOL    HW257880   8.129   5.815   1.672
51995SOL     OW57881   9.027   3.967   5.932
51995SOL    HW157882   8.998   4.047   5.888
51995SOL    HW257883   9.104   3.939   5.882
51996SOL     OW57884   3.727   7.385   3.752
51996SOL    HW157885   3.702   7.304   3.707
51996SOL    HW257886   3.676   7.453   3.709
51997SOL     OW57887  10.852  10.239   5.061
51997SOL    HW157888  10.803  10.316   5.033
51997SOL    HW257889  10.796  10.196   5.125
51998SOL     OW57890   8.971   8.883   9.488
51998SOL    HW157891   8.898   8.900   9.428
51998SOL    HW257892   8.974   8.788   9.495
51999SOL     OW57893  14.619  11.298   9.416
51999SOL    HW157894  14.552  11.346   9.464
51999SOL    HW257895  14.679  11.267   9.484
52000SOL     OW57896   2.577   5.117   8.356
52000SOL    HW157897   2.666   5.088   8.373
52000SOL    HW257898   2.537   5.044   8.307
52001SOL     OW57899   3.067   2.747   6.022
52001SOL    HW157900   3.010   2.675   6.050
52001SOL    HW257901   3.017   2.792   5.954
52002SOL     OW57902  12.195   4.848   5.268
52002SOL    HW157903  12.256   4.858   5.341
52002SOL    HW257904  12.149   4.766   5.287
52003SOL     OW57905   2.516   5.123   1.525
52003SOL    HW157906   2.570   5.051   1.557
52003SOL    HW257907   2.578   5.195   1.511
52004SOL     OW57908   3.389   8.055   9.155
52004SOL    HW157909   3.332   7.995   9.204
52004SOL    HW257910   3.334   8.087   9.084
52005SOL     OW57911  14.463   2.912   2.957
52005SOL    HW157912  14.512   2.936   3.035
52005SOL    HW257913  14.372   2.931   2.978
52006SOL     OW57914   2.411   9.138   3.353
52006SOL    HW157915   2.383   9.165   3.441
52006SOL    HW257916   2.374   9.051   3.342
52007SOL     OW57917  13.127   2.730   4.420
52007SOL    HW157918  13.142   2.647   4.375
52007SOL    HW257919  13.077   2.707   4.498
52008SOL     OW57920   9.349   3.888  11.862
52008SOL    HW157921   9.360   3.801  11.902
52008SOL    HW257922   9.368   3.874  11.769
52009SOL     OW57923   7.333   1.379   2.069
52009SOL    HW157924   7.262   1.442   2.082
52009SOL    HW257925   7.345   1.376   1.974
52010SOL     OW57926   6.838  10.898  13.292
52010SOL    HW157927   6.870  10.810  13.274
52010SOL    HW257928   6.835  10.904  13.388
52011SOL     OW57929  10.382  11.516  10.708
52011SOL    HW157930  10.397  11.422  10.718
52011SOL    HW257931  10.439  11.541  10.635
52012SOL     OW57932   9.957   1.197   1.030
52012SOL    HW157933   9.880   1.205   1.087
52012SOL    HW257934   9.921   1.190   0.942
52013SOL     OW57935   7.405  13.124   5.844
52013SOL    HW157936   7.487  13.141   5.891
52013SOL    HW257937   7.414  13.034   5.811
52014SOL     OW57938  10.128   8.752  11.089
52014SOL    HW157939  10.117   8.841  11.124
52014SOL    HW257940  10.209   8.757  11.039
52015SOL     OW57941   5.938  14.329   5.285
52015SOL    HW157942   5.923  14.418   5.316
52015SOL    HW257943   5.905  14.329   5.195
52016SOL     OW57944   0.796  13.169  10.826
52016SOL    HW157945   0.816  13.250  10.873
52016SOL    HW257946   0.766  13.110  10.895
52017SOL     OW57947  14.795   0.712   3.472
52017SOL    HW157948  14.817   0.769   3.398
52017SOL    HW257949  14.812   0.624   3.439
52018SOL     OW57950  10.376   1.755  13.358
52018SOL    HW157951  10.326   1.835  13.343
52018SOL    HW257952  10.460   1.786  13.394
52019SOL     OW57953  11.316   7.779  11.555
52019SOL    HW157954  11.376   7.704  11.550
52019SOL    HW257955  11.371   7.853  11.581
52020SOL     OW57956  12.475  10.297   1.173
52020SOL    HW157957  12.511  10.385   1.159
52020SOL    HW257958  12.400  10.293   1.115
52021SOL     OW57959   7.119   0.332  11.768
52021SOL    HW157960   7.162   0.327  11.853
52021SOL    HW257961   7.191   0.326  11.705
52022SOL     OW57962   1.679   5.914  13.445
52022SOL    HW157963   1.636   5.864  13.375
52022SOL    HW257964   1.718   5.848  13.502
52023SOL     OW57965   8.488  13.953   5.475
52023SOL    HW157966   8.524  13.948   5.386
52023SOL    HW257967   8.457  14.043   5.484
52024SOL     OW57968   0.083  12.619  11.165
52024SOL    HW157969   0.131  12.656  11.239
52024SOL    HW257970   0.151  12.586  11.106
52025SOL     OW57971   6.764   9.061  12.212
52025SOL    HW157972   6.849   9.033  12.180
52025SOL    HW257973   6.763   9.035  12.304
52026SOL     OW57974   2.839  12.149  12.181
52026SOL    HW157975   2.906  12.128  12.247
52026SOL    HW257976   2.870  12.232  12.143
52027SOL     OW57977  10.195   1.186   7.975
52027SOL    HW157978  10.264   1.203   7.910
52027SOL    HW257979  10.205   1.256   8.039
52028SOL     OW57980  12.960   3.693   1.003
52028SOL    HW157981  12.930   3.700   0.912
52028SOL    HW257982  13.000   3.777   1.022
52029SOL     OW57983   9.295   9.496   9.170
52029SOL    HW157984   9.221   9.435   9.172
52029SOL    HW257985   9.371   9.441   9.150
52030SOL     OW57986   3.704  11.432   9.818
52030SOL    HW157987   3.616  11.393   9.814
52030SOL    HW257988   3.688  11.525   9.830
52031SOL     OW57989   7.399   0.776   2.327
52031SOL    HW157990   7.471   0.812   2.277
52031SOL    HW257991   7.435   0.696   2.366
52032SOL     OW57992   6.986  10.207  12.418
52032SOL    HW157993   6.998  10.140  12.485
52032SOL    HW257994   7.074  10.229  12.388
52033SOL     OW57995   0.365   0.219  11.246
52033SOL    HW157996   0.301   0.241  11.314
52033SOL    HW257997   0.315   0.227  11.164
52034SOL     OW57998   1.912   7.032  10.343
52034SOL    HW157999   1.913   7.016  10.437
52034SOL    HW258000   1.843   6.975  10.310
52035SOL     OW58001  13.069   9.642   4.769
52035SOL    HW158002  13.061   9.577   4.700
52035SOL    HW258003  13.125   9.710   4.732
52036SOL     OW58004   2.511   1.774   6.410
52036SOL    HW158005   2.514   1.679   6.422
52036SOL    HW258006   2.530   1.788   6.317
52037SOL     OW58007  13.925  11.198  13.255
52037SOL    HW158008  13.932  11.210  13.160
52037SOL    HW258009  13.922  11.103  13.267
52038SOL     OW58010  12.397   1.184  12.460
52038SOL    HW158011  12.384   1.277  12.479
52038SOL    HW258012  12.312   1.144  12.475
52039SOL     OW58013  14.154   0.627  13.577
52039SOL    HW158014  14.165   0.702  13.635
52039SOL    HW258015  14.069   0.641  13.535
52040SOL     OW58016   2.518  14.067   8.943
52040SOL    HW158017   2.540  14.079   8.851
52040SOL    HW258018   2.423  14.073   8.946
52041SOL     OW58019  12.161   6.305   8.952
52041SOL    HW158020  12.245   6.352   8.951
52041SOL    HW258021  12.095   6.374   8.947
52042SOL     OW58022   6.820  10.584   7.208
52042SOL    HW158023   6.908  10.614   7.183
52042SOL    HW258024   6.819  10.593   7.304
52043SOL     OW58025   5.099   4.675   6.522
52043SOL    HW158026   5.170   4.634   6.571
52043SOL    HW258027   5.132   4.762   6.500
52044SOL     OW58028  10.917   3.755   3.824
52044SOL    HW158029  10.827   3.771   3.794
52044SOL    HW258030  10.937   3.667   3.793
52045SOL     OW58031   9.724   7.606  10.237
52045SOL    HW158032   9.696   7.670  10.303
52045SOL    HW258033   9.696   7.522  10.272
52046SOL     OW58034   6.858  14.496   2.221
52046SOL    HW158035   6.902  14.540   2.148
52046SOL    HW258036   6.812  14.565   2.267
52047SOL     OW58037  13.428   8.517  14.480
52047SOL    HW158038  13.397   8.519  14.390
52047SOL    HW258039  13.379   8.587  14.524
52048SOL     OW58040   8.205  10.967  13.040
52048SOL    HW158041   8.260  10.891  13.021
52048SOL    HW258042   8.173  10.996  12.954
52049SOL     OW58043   6.609   6.395   3.585
52049SOL    HW158044   6.597   6.472   3.641
52049SOL    HW258045   6.523   6.354   3.582
52050SOL     OW58046   8.960  11.509  12.127
52050SOL    HW158047   8.868  11.534  12.122
52050SOL    HW258048   8.958  11.414  12.137
52051SOL     OW58049  12.754  14.242  12.089
52051SOL    HW158050  12.817  14.260  12.159
52051SOL    HW258051  12.809  14.220  12.014
52052SOL     OW58052  12.245   0.040   9.143
52052SOL    HW158053  12.212   0.078   9.062
52052SOL    HW258054  12.252  14.824   9.125
52053SOL     OW58055   2.595  12.324   7.453
52053SOL    HW158056   2.634  12.411   7.446
52053SOL    HW258057   2.594  12.305   7.546
52054SOL     OW58058   8.233   0.115   8.071
52054SOL    HW158059   8.302   0.090   8.133
52054SOL    HW258060   8.154   0.121   8.124
52055SOL     OW58061   0.545   8.532   3.554
52055SOL    HW158062   0.592   8.480   3.619
52055SOL    HW258063   0.460   8.551   3.594
52056SOL     OW58064   6.462   3.340   8.396
52056SOL    HW158065   6.436   3.423   8.437
52056SOL    HW258066   6.383   3.286   8.401
52057SOL     OW58067  14.008   6.367  12.160
52057SOL    HW158068  13.954   6.413  12.225
52057SOL    HW258069  13.946   6.336  12.095
52058SOL     OW58070   3.309  11.236  14.180
52058SOL    HW158071   3.277  11.306  14.237
52058SOL    HW258072   3.230  11.187  14.157
52059SOL     OW58073   0.711   3.449   3.964
52059SOL    HW158074   0.718   3.543   3.945
52059SOL    HW258075   0.694   3.445   4.058
52060SOL     OW58076   3.755   1.078   3.669
52060SOL    HW158077   3.719   1.025   3.598
52060SOL    HW258078   3.835   1.033   3.695
52061SOL     OW58079   6.783  10.518   9.526
52061SOL    HW158080   6.877  10.505   9.511
52061SOL    HW258081   6.771  10.505   9.620
52062SOL     OW58082   5.172   5.539   6.113
52062SOL    HW158083   5.233   5.586   6.169
52062SOL    HW258084   5.227   5.488   6.054
52063SOL     OW58085   6.991   3.965   7.690
52063SOL    HW158086   6.943   4.038   7.730
52063SOL    HW258087   6.924   3.899   7.672
52064SOL     OW58088   6.005   4.912   8.969
52064SOL    HW158089   5.993   4.857   8.891
52064SOL    HW258090   6.096   4.897   8.995
52065SOL     OW58091  13.652   1.990   0.024
52065SOL    HW158092  13.731   1.954   0.065
52065SOL    HW258093  13.584   1.980   0.091
52066SOL     OW58094   6.148  13.013   3.076
52066SOL    HW158095   6.203  13.006   2.997
52066SOL    HW258096   6.143  12.923   3.109
52067SOL     OW58097   8.755  10.174  11.661
52067SOL    HW158098   8.825  10.181  11.597
52067SOL    HW258099   8.799  10.162  11.745
52068SOL     OW58100   1.709   7.247   6.683
52068SOL    HW158101   1.789   7.264   6.731
52068SOL    HW258102   1.669   7.333   6.671
52069SOL     OW58103   5.889  12.368  14.356
52069SOL    HW158104   5.847  12.288  14.325
52069SOL    HW258105   5.977  12.342  14.381
52070SOL     OW58106  10.013  14.707  14.826
52070SOL    HW158107  10.063  14.766  14.769
52070SOL    HW258108   9.930  14.752  14.838
52071SOL     OW58109  13.916   8.180  10.616
52071SOL    HW158110  13.853   8.240  10.657
52071SOL    HW258111  13.945   8.226  10.537
52072SOL     OW58112  10.244   2.985   8.485
52072SOL    HW158113  10.281   3.058   8.436
52072SOL    HW258114  10.176   3.024   8.539
52073SOL     OW58115   8.424  10.430   0.524
52073SOL    HW158116   8.451  10.408   0.435
52073SOL    HW258117   8.348  10.488   0.513
52074SOL     OW58118   6.201   8.032  10.847
52074SOL    HW158119   6.277   7.976  10.857
52074SOL    HW258120   6.144   7.985  10.786
52075SOL     OW58121   5.372   3.704   3.435
52075SOL    HW158122   5.347   3.612   3.420
52075SOL    HW258123   5.467   3.706   3.423
52076SOL     OW58124   6.420   6.282  11.966
52076SOL    HW158125   6.330   6.306  11.946
52076SOL    HW258126   6.448   6.230  11.891
52077SOL     OW58127   7.037   6.219  13.104
52077SOL    HW158128   7.043   6.195  13.011
52077SOL    HW258129   7.116   6.184  13.144
52078SOL     OW58130  11.371   6.721   1.166
52078SOL    HW158131  11.283   6.693   1.140
52078SOL    HW258132  11.376   6.701   1.259
52079SOL     OW58133   6.187   6.932   1.501
52079SOL    HW158134   6.213   6.886   1.581
52079SOL    HW258135   6.257   6.994   1.483
52080SOL     OW58136   3.831   1.792   8.617
52080SOL    HW158137   3.831   1.839   8.534
52080SOL    HW258138   3.907   1.733   8.612
52081SOL     OW58139   0.021  13.481  14.353
52081SOL    HW158140   0.031  13.387  14.365
52081SOL    HW258141  14.822  13.504  14.405
52082SOL     OW58142  13.606   3.965  11.743
52082SOL    HW158143  13.623   4.044  11.691
52082SOL    HW258144  13.578   3.899  11.680
52083SOL     OW58145  11.169   5.012  14.618
52083SOL    HW158146  11.077   4.996  14.597
52083SOL    HW258147  11.205   5.051  14.539
52084SOL     OW58148   7.492   0.449   0.823
52084SOL    HW158149   7.480   0.478   0.913
52084SOL    HW258150   7.526   0.525   0.777
52085SOL     OW58151   1.933   6.663   9.042
52085SOL    HW158152   1.954   6.627   8.956
52085SOL    HW258153   1.838   6.652   9.050
52086SOL     OW58154   9.158   6.346   2.963
52086SOL    HW158155   9.220   6.362   3.034
52086SOL    HW258156   9.142   6.432   2.925
52087SOL     OW58157  10.641   6.292   6.896
52087SOL    HW158158  10.648   6.352   6.822
52087SOL    HW258159  10.562   6.320   6.942
52088SOL     OW58160  11.378   6.531   6.122
52088SOL    HW158161  11.300   6.509   6.173
52088SOL    HW258162  11.393   6.623   6.141
52089SOL     OW58163   1.056   4.565  13.113
52089SOL    HW158164   1.093   4.637  13.165
52089SOL    HW258165   1.131   4.527  13.069
52090SOL     OW58166   3.172  14.551   3.198
52090SOL    HW158167   3.148  14.459   3.183
52090SOL    HW258168   3.135  14.572   3.283
52091SOL     OW58169   9.970  12.757   2.422
52091SOL    HW158170   9.934  12.738   2.509
52091SOL    HW258171  10.051  12.706   2.418
52092SOL     OW58172   4.557  12.564   6.320
52092SOL    HW158173   4.528  12.513   6.396
52092SOL    HW258174   4.651  12.576   6.334
52093SOL     OW58175  12.022   4.930   2.611
52093SOL    HW158176  12.062   4.976   2.684
52093SOL    HW258177  12.019   4.838   2.640
52094SOL     OW58178   2.350   7.792   6.881
52094SOL    HW158179   2.366   7.719   6.822
52094SOL    HW258180   2.308   7.859   6.827
52095SOL     OW58181  12.626   9.111  10.759
52095SOL    HW158182  12.604   9.051  10.688
52095SOL    HW258183  12.611   9.060  10.839
52096SOL     OW58184   7.693  13.929   2.904
52096SOL    HW158185   7.769  13.904   2.853
52096SOL    HW258186   7.721  14.006   2.953
52097SOL     OW58187   7.752   0.472   2.304
52097SOL    HW158188   7.800   0.521   2.237
52097SOL    HW258189   7.678   0.433   2.256
52098SOL     OW58190   3.957   2.651  10.563
52098SOL    HW158191   3.868   2.619  10.578
52098SOL    HW258192   3.951   2.746  10.577
52099SOL     OW58193  11.155   8.028   7.194
52099SOL    HW158194  11.135   7.967   7.264
52099SOL    HW258195  11.198   8.102   7.238
52100SOL     OW58196  11.050  11.460   6.279
52100SOL    HW158197  11.126  11.507   6.244
52100SOL    HW258198  10.993  11.448   6.203
52101SOL     OW58199   4.328   7.985   9.465
52101SOL    HW158200   4.408   7.934   9.449
52101SOL    HW258201   4.278   7.976   9.384
52102SOL     OW58202   0.228  11.738   6.298
52102SOL    HW158203   0.171  11.665   6.320
52102SOL    HW258204   0.260  11.770   6.383
52103SOL     OW58205   1.381   3.545   5.540
52103SOL    HW158206   1.393   3.549   5.445
52103SOL    HW258207   1.298   3.499   5.552
52104SOL     OW58208   9.865   1.512  14.496
52104SOL    HW158209   9.821   1.432  14.526
52104SOL    HW258210   9.957   1.486  14.485
52105SOL     OW58211   9.189  13.326  14.712
52105SOL    HW158212   9.220  13.354  14.626
52105SOL    HW258213   9.222  13.236  14.721
52106SOL     OW58214   5.596   8.870  11.642
52106SOL    HW158215   5.668   8.814  11.612
52106SOL    HW258216   5.627   8.907  11.724
52107SOL     OW58217   6.262  12.871   8.763
52107SOL    HW158218   6.284  12.923   8.841
52107SOL    HW258219   6.264  12.780   8.794
52108SOL     OW58220  11.752   7.689  14.710
52108SOL    HW158221  11.834   7.704  14.664
52108SOL    HW258222  11.696   7.763  14.685
52109SOL     OW58223  10.719   8.543   2.840
52109SOL    HW158224  10.806   8.536   2.880
52109SOL    HW258225  10.731   8.506   2.752
52110SOL     OW58226   9.155   5.863   8.083
52110SOL    HW158227   9.105   5.816   8.151
52110SOL    HW258228   9.088   5.905   8.030
52111SOL     OW58229   2.906   5.034  14.191
52111SOL    HW158230   2.877   5.048  14.281
52111SOL    HW258231   2.831   4.993  14.147
52112SOL     OW58232   4.825   8.863  10.146
52112SOL    HW158233   4.790   8.847  10.233
52112SOL    HW258234   4.799   8.787  10.095
52113SOL     OW58235   2.500   4.100  10.466
52113SOL    HW158236   2.424   4.102  10.409
52113SOL    HW258237   2.516   4.006  10.481
52114SOL     OW58238   8.039  12.255   6.433
52114SOL    HW158239   8.010  12.313   6.362
52114SOL    HW258240   8.015  12.167   6.403
52115SOL     OW58241   6.263   8.809   5.170
52115SOL    HW158242   6.171   8.793   5.192
52115SOL    HW258243   6.295   8.725   5.137
52116SOL     OW58244   2.099  10.488   9.449
52116SOL    HW158245   2.102  10.463   9.357
52116SOL    HW258246   2.127  10.410   9.496
52117SOL     OW58247   4.509   9.075  10.365
52117SOL    HW158248   4.527   9.089  10.458
52117SOL    HW258249   4.496   8.981  10.357
52118SOL     OW58250   9.069  10.681  10.760
52118SOL    HW158251   9.018  10.622  10.704
52118SOL    HW258252   9.020  10.763  10.759
52119SOL     OW58253   6.249  12.149   2.440
52119SOL    HW158254   6.273  12.075   2.495
52119SOL    HW258255   6.331  12.175   2.397
52120SOL     OW58256   1.297   2.958  12.243
52120SOL    HW158257   1.257   3.039  12.212
52120SOL    HW258258   1.223   2.900  12.262
52121SOL     OW58259  14.614   2.742  13.829
52121SOL    HW158260  14.568   2.658  13.817
52121SOL    HW258261  14.548   2.799  13.868
52122SOL     OW58262   0.086   7.437  12.052
52122SOL    HW158263   0.096   7.382  11.974
52122SOL    HW258264   0.125   7.521  12.027
52123SOL     OW58265   8.338   1.466   8.776
52123SOL    HW158266   8.402   1.404   8.810
52123SOL    HW258267   8.387   1.518   8.711
52124SOL     OW58268   4.540   1.658   0.019
52124SOL    HW158269   4.467   1.698   0.065
52124SOL    HW258270   4.598   1.731  14.874
52125SOL     OW58271   8.472   6.047   8.513
52125SOL    HW158272   8.383   6.044   8.548
52125SOL    HW258273   8.500   6.137   8.529
52126SOL     OW58274  14.593   9.744   2.279
52126SOL    HW158275  14.589   9.754   2.184
52126SOL    HW258276  14.540   9.816   2.313
52127SOL     OW58277   3.978   7.558   6.184
52127SOL    HW158278   4.009   7.510   6.108
52127SOL    HW258279   3.922   7.496   6.230
52128SOL     OW58280   4.300  11.475   8.558
52128SOL    HW158281   4.352  11.424   8.495
52128SOL    HW258282   4.365  11.524   8.608
52129SOL     OW58283   9.943   6.131   5.682
52129SOL    HW158284   9.948   6.037   5.699
52129SOL    HW258285  10.023   6.151   5.634
52130SOL     OW58286   0.519   0.435   6.796
52130SOL    HW158287   0.468   0.385   6.859
52130SOL    HW258288   0.498   0.527   6.815
52131SOL     OW58289   4.847   1.338   7.123
52131SOL    HW158290   4.918   1.361   7.183
52131SOL    HW258291   4.867   1.386   7.043
52132SOL     OW58292   5.551   9.194  11.884
52132SOL    HW158293   5.586   9.273  11.842
52132SOL    HW258294   5.622   9.131  11.879
52133SOL     OW58295   9.413   9.915   4.494
52133SOL    HW158296   9.380   9.844   4.438
52133SOL    HW258297   9.503   9.928   4.466
52134SOL     OW58298   6.872  13.141   7.284
52134SOL    HW158299   6.923  13.222   7.278
52134SOL    HW258300   6.801  13.162   7.344
52135SOL     OW58301   7.857   1.016   8.768
52135SOL    HW158302   7.815   0.956   8.829
52135SOL    HW258303   7.903   1.079   8.825
52136SOL     OW58304   2.622   0.589  10.944
52136SOL    HW158305   2.543   0.626  10.905
52136SOL    HW258306   2.593   0.551  11.027
52137SOL     OW58307   7.479   2.562   3.136
52137SOL    HW158308   7.410   2.542   3.073
52137SOL    HW258309   7.542   2.491   3.127
52138SOL     OW58310   3.243   3.048   2.743
52138SOL    HW158311   3.184   3.109   2.788
52138SOL    HW258312   3.185   2.984   2.702
52139SOL     OW58313   6.600  12.860   0.954
52139SOL    HW158314   6.660  12.899   0.891
52139SOL    HW258315   6.570  12.779   0.914
52140SOL     OW58316   8.643   1.443   3.231
52140SOL    HW158317   8.571   1.504   3.220
52140SOL    HW258318   8.711   1.493   3.276
52141SOL     OW58319   8.550   7.251   5.083
52141SOL    HW158320   8.478   7.243   5.146
52141SOL    HW258321   8.519   7.314   5.018
52142SOL     OW58322   6.405   3.529   2.133
52142SOL    HW158323   6.448   3.457   2.180
52142SOL    HW258324   6.477   3.579   2.095
52143SOL     OW58325   8.327   3.265   5.960
52143SOL    HW158326   8.339   3.306   6.045
52143SOL    HW258327   8.342   3.335   5.896
52144SOL     OW58328   3.821  10.697   2.492
52144SOL    HW158329   3.747  10.740   2.535
52144SOL    HW258330   3.898  10.738   2.532
52145SOL     OW58331   1.559  10.542  11.955
52145SOL    HW158332   1.492  10.504  11.899
52145SOL    HW258333   1.599  10.467  12.000
52146SOL     OW58334  12.756   2.380  11.455
52146SOL    HW158335  12.739   2.296  11.496
52146SOL    HW258336  12.771   2.440  11.528
52147SOL     OW58337   6.993   8.149   3.496
52147SOL    HW158338   7.081   8.140   3.532
52147SOL    HW258339   6.984   8.076   3.435
52148SOL     OW58340   3.567  13.816  13.565
52148SOL    HW158341   3.553  13.764  13.486
52148SOL    HW258342   3.623  13.888  13.536
52149SOL     OW58343   9.936   7.361   1.278
52149SOL    HW158344   9.885   7.281   1.265
52149SOL    HW258345   9.921   7.385   1.369
52150SOL     OW58346   5.831   9.741  11.213
52150SOL    HW158347   5.818   9.710  11.303
52150SOL    HW258348   5.766   9.693  11.162
52151SOL     OW58349   3.180  13.630   6.929
52151SOL    HW158350   3.267  13.621   6.968
52151SOL    HW258351   3.191  13.692   6.858
52152SOL     OW58352  14.725   8.088  14.052
52152SOL    HW158353  14.638   8.070  14.017
52152SOL    HW258354  14.785   8.044  13.990
52153SOL     OW58355   1.833   3.039  14.244
52153SOL    HW158356   1.896   2.999  14.183
52153SOL    HW258357   1.888   3.089  14.305
52154SOL     OW58358  11.420   8.226   6.088
52154SOL    HW158359  11.450   8.280   6.162
52154SOL    HW258360  11.501   8.194   6.047
52155SOL     OW58361  10.348   3.895  10.217
52155SOL    HW158362  10.328   3.805  10.190
52155SOL    HW258363  10.378   3.886  10.307
52156SOL     OW58364  10.747   8.568  11.651
52156SOL    HW158365  10.682   8.499  11.636
52156SOL    HW258366  10.703   8.631  11.708
52157SOL     OW58367   9.795   6.755  10.280
52157SOL    HW158368   9.857   6.755  10.353
52157SOL    HW258369   9.714   6.790  10.318
52158SOL     OW58370   5.977   4.715   1.376
52158SOL    HW158371   5.953   4.680   1.461
52158SOL    HW258372   5.931   4.659   1.313
52159SOL     OW58373   5.679   9.134   9.879
52159SOL    HW158374   5.760   9.100   9.842
52159SOL    HW258375   5.707   9.193   9.949
52160SOL     OW58376   5.439   4.839  12.255
52160SOL    HW158377   5.384   4.853  12.332
52160SOL    HW258378   5.406   4.902  12.191
52161SOL     OW58379   9.933   0.983   0.340
52161SOL    HW158380   9.878   0.932   0.400
52161SOL    HW258381   9.966   0.919   0.277
52162SOL     OW58382  10.310   5.927   3.935
52162SOL    HW158383  10.279   6.013   3.904
52162SOL    HW258384  10.230   5.878   3.950
52163SOL     OW58385   0.409  14.630   8.117
52163SOL    HW158386   0.444  14.706   8.164
52163SOL    HW258387   0.369  14.576   8.185
52164SOL     OW58388  12.770   5.004   3.790
52164SOL    HW158389  12.755   5.041   3.877
52164SOL    HW258390  12.780   4.910   3.805
52165SOL     OW58391   4.531  13.604   2.868
52165SOL    HW158392   4.528  13.697   2.889
52165SOL    HW258393   4.601  13.596   2.803
52166SOL     OW58394   7.922   6.808   2.982
52166SOL    HW158395   7.996   6.869   2.984
52166SOL    HW258396   7.962   6.723   2.962
52167SOL     OW58397   1.648   8.763   5.559
52167SOL    HW158398   1.577   8.798   5.505
52167SOL    HW258399   1.681   8.688   5.510
52168SOL     OW58400  10.431  11.998   3.823
52168SOL    HW158401  10.482  11.991   3.904
52168SOL    HW258402  10.385  11.915   3.817
52169SOL     OW58403   1.469   1.009   0.326
52169SOL    HW158404   1.438   1.014   0.417
52169SOL    HW258405   1.411   1.068   0.278
52170SOL     OW58406   5.811   1.895   8.521
52170SOL    HW158407   5.805   1.968   8.458
52170SOL    HW258408   5.801   1.937   8.607
52171SOL     OW58409   0.232  13.372   2.007
52171SOL    HW158410   0.145  13.396   2.039
52171SOL    HW258411   0.235  13.277   2.015
52172SOL     OW58412   7.039   2.930   9.680
52172SOL    HW158413   7.051   2.834   9.682
52172SOL    HW258414   7.125   2.964   9.705
52173SOL     OW58415   9.512   4.293   3.648
52173SOL    HW158416   9.606   4.277   3.654
52173SOL    HW258417   9.502   4.386   3.669
52174SOL     OW58418   7.617   4.968   9.393
52174SOL    HW158419   7.711   4.972   9.379
52174SOL    HW258420   7.600   4.877   9.414
52175SOL     OW58421  12.574  12.784  11.909
52175SOL    HW158422  12.489  12.775  11.951
52175SOL    HW258423  12.588  12.878  11.903
52176SOL     OW58424  13.719   3.083   1.997
52176SOL    HW158425  13.810   3.108   2.009
52176SOL    HW258426  13.723   2.999   1.951
52177SOL     OW58427   6.842   6.748   2.973
52177SOL    HW158428   6.903   6.680   3.001
52177SOL    HW258429   6.770   6.744   3.036
52178SOL     OW58430   0.761   3.844  11.176
52178SOL    HW158431   0.853   3.819  11.185
52178SOL    HW258432   0.727   3.845  11.266
52179SOL     OW58433   1.848  13.340   8.369
52179SOL    HW158434   1.806  13.387   8.441
52179SOL    HW258435   1.930  13.308   8.407
52180SOL     OW58436   4.573  10.936  11.617
52180SOL    HW158437   4.505  10.988  11.574
52180SOL    HW258438   4.536  10.914  11.703
52181SOL     OW58439   4.907   1.374   5.757
52181SOL    HW158440   4.824   1.328   5.758
52181SOL    HW258441   4.950   1.347   5.839
52182SOL     OW58442  11.788   2.218  14.414
52182SOL    HW158443  11.793   2.132  14.372
52182SOL    HW258444  11.726   2.268  14.361
52183SOL     OW58445  11.946  10.158  13.300
52183SOL    HW158446  12.005  10.133  13.371
52183SOL    HW258447  11.992  10.229  13.254
52184SOL     OW58448   7.989   9.802  14.087
52184SOL    HW158449   8.051   9.804  14.015
52184SOL    HW258450   8.042   9.812  14.166
52185SOL     OW58451   4.462   3.343   0.482
52185SOL    HW158452   4.413   3.397   0.420
52185SOL    HW258453   4.431   3.254   0.466
52186SOL     OW58454  10.778   0.800   5.720
52186SOL    HW158455  10.818   0.870   5.772
52186SOL    HW258456  10.851   0.761   5.672
52187SOL     OW58457   1.162   9.289  14.291
52187SOL    HW158458   1.097   9.352  14.321
52187SOL    HW258459   1.215   9.271  14.368
52188SOL     OW58460   7.774  14.053  12.074
52188SOL    HW158461   7.814  14.138  12.090
52188SOL    HW258462   7.846  13.998  12.042
52189SOL     OW58463   3.624   9.396  11.871
52189SOL    HW158464   3.653   9.447  11.947
52189SOL    HW258465   3.635   9.455  11.796
52190SOL     OW58466  11.399   4.088  12.900
52190SOL    HW158467  11.408   3.993  12.913
52190SOL    HW258468  11.464   4.109  12.833
52191SOL     OW58469   9.146  14.396   7.036
52191SOL    HW158470   9.078  14.462   7.048
52191SOL    HW258471   9.221  14.445   7.001
52192SOL     OW58472  13.288  14.195   2.250
52192SOL    HW158473  13.313  14.197   2.157
52192SOL    HW258474  13.343  14.127   2.288
52193SOL     OW58475  14.633   8.995  12.900
52193SOL    HW158476  14.697   8.932  12.868
52193SOL    HW258477  14.581   9.018  12.823
52194SOL     OW58478   5.502   9.001   4.752
52194SOL    HW158479   5.588   9.038   4.734
52194SOL    HW258480   5.446   9.035   4.682
52195SOL     OW58481   0.673   0.811  14.376
52195SOL    HW158482   0.629   0.842  14.297
52195SOL    HW258483   0.669   0.886  14.436
52196SOL     OW58484   6.737   2.950  11.012
52196SOL    HW158485   6.750   3.039  10.981
52196SOL    HW258486   6.664   2.917  10.960
52197SOL     OW58487   1.371   2.801   0.875
52197SOL    HW158488   1.458   2.761   0.867
52197SOL    HW258489   1.317   2.753   0.811
52198SOL     OW58490  14.608   3.535  13.385
52198SOL    HW158491  14.697   3.550  13.354
52198SOL    HW258492  14.552   3.552  13.309
52199SOL     OW58493   5.145  10.706  10.676
52199SOL    HW158494   5.090  10.726  10.751
52199SOL    HW258495   5.227  10.674  10.714
52200SOL     OW58496  11.460   9.530  14.837
52200SOL    HW158497  11.454   9.481   0.041
52200SOL    HW258498  11.514   9.475  14.780
52201SOL     OW58499   2.609   0.231   3.482
52201SOL    HW158500   2.566   0.173   3.544
52201SOL    HW258501   2.551   0.231   3.405
52202SOL     OW58502   6.031   1.643  12.578
52202SOL    HW158503   5.968   1.572  12.568
52202SOL    HW258504   6.053   1.669  12.488
52203SOL     OW58505   6.652   3.022   4.652
52203SOL    HW158506   6.747   3.032   4.666
52203SOL    HW258507   6.625   3.104   4.612
52204SOL     OW58508   3.819   7.176  13.720
52204SOL    HW158509   3.845   7.268  13.722
52204SOL    HW258510   3.864   7.140  13.644
52205SOL     OW58511  13.447  11.783   9.772
52205SOL    HW158512  13.469  11.876   9.775
52205SOL    HW258513  13.465  11.751   9.860
52206SOL     OW58514  12.529   2.339  10.538
52206SOL    HW158515  12.545   2.254  10.497
52206SOL    HW258516  12.446   2.368  10.500
52207SOL     OW58517  11.986  10.178  14.700
52207SOL    HW158518  12.059  10.231  14.733
52207SOL    HW258519  11.908  10.217  14.740
52208SOL     OW58520  14.499  10.391  11.478
52208SOL    HW158521  14.436  10.362  11.412
52208SOL    HW258522  14.516  10.312  11.530
52209SOL     OW58523  11.158   6.748  11.468
52209SOL    HW158524  11.128   6.821  11.523
52209SOL    HW258525  11.090   6.739  11.402
52210SOL     OW58526   0.438   0.471  10.109
52210SOL    HW158527   0.359   0.421  10.128
52210SOL    HW258528   0.477   0.487  10.194
52211SOL     OW58529  11.009   2.313   0.512
52211SOL    HW158530  10.949   2.325   0.439
52211SOL    HW258531  10.954   2.280   0.583
52212SOL     OW58532  10.074   4.007   3.617
52212SOL    HW158533  10.037   4.038   3.535
52212SOL    HW258534  10.131   4.078   3.646
52213SOL     OW58535   0.027   3.014  13.502
52213SOL    HW158536  14.835   3.053  13.449
52213SOL    HW258537  14.859   2.977  13.578
52214SOL     OW58538   3.845  12.593   2.775
52214SOL    HW158539   3.940  12.591   2.761
52214SOL    HW258540   3.835  12.610   2.869
52215SOL     OW58541   6.511   4.129   7.477
52215SOL    HW158542   6.443   4.066   7.452
52215SOL    HW258543   6.583   4.112   7.417
52216SOL     OW58544   6.999   0.350   4.812
52216SOL    HW158545   6.961   0.377   4.728
52216SOL    HW258546   7.007   0.255   4.805
52217SOL     OW58547   0.151   5.356   5.136
52217SOL    HW158548   0.154   5.369   5.231
52217SOL    HW258549   0.091   5.424   5.105
52218SOL     OW58550   0.914   2.943   9.359
52218SOL    HW158551   0.880   2.900   9.437
52218SOL    HW258552   0.998   2.979   9.385
52219SOL     OW58553  11.994  13.351   5.799
52219SOL    HW158554  12.000  13.409   5.875
52219SOL    HW258555  12.019  13.265   5.833
52220SOL     OW58556   0.844   7.244   0.980
52220SOL    HW158557   0.850   7.180   1.050
52220SOL    HW258558   0.932   7.248   0.942
52221SOL     OW58559   4.588   2.890   9.136
52221SOL    HW158560   4.653   2.940   9.184
52221SOL    HW258561   4.586   2.804   9.179
52222SOL     OW58562   4.414  11.889  14.486
52222SOL    HW158563   4.502  11.858  14.467
52222SOL    HW258564   4.417  11.983  14.467
52223SOL     OW58565   1.911  13.163  12.865
52223SOL    HW158566   1.909  13.135  12.773
52223SOL    HW258567   1.882  13.254  12.863
52224SOL     OW58568   0.595   9.167  14.684
52224SOL    HW158569   0.618   9.100  14.619
52224SOL    HW258570   0.512   9.203  14.652
52225SOL     OW58571  10.412  12.348   3.857
52225SOL    HW158572  10.328  12.354   3.810
52225SOL    HW258573  10.398  12.278   3.921
52226SOL     OW58574   1.062  10.742  13.757
52226SOL    HW158575   1.055  10.652  13.724
52226SOL    HW258576   1.009  10.794  13.696
52227SOL     OW58577  14.759   4.234   9.706
52227SOL    HW158578  14.845   4.214   9.669
52227SOL    HW258579  14.725   4.304   9.651
52228SOL     OW58580   2.941   5.748   7.052
52228SOL    HW158581   3.004   5.800   7.002
52228SOL    HW258582   2.966   5.657   7.034
52229SOL     OW58583  11.628   1.556   0.155
52229SOL    HW158584  11.589   1.618   0.216
52229SOL    HW258585  11.709   1.598   0.126
52230SOL     OW58586   8.665   0.429   7.179
52230SOL    HW158587   8.742   0.474   7.212
52230SOL    HW258588   8.648   0.360   7.243
52231SOL     OW58589  12.440  12.438   7.008
52231SOL    HW158590  12.497  12.363   7.023
52231SOL    HW258591  12.399  12.420   6.924
52232SOL     OW58592   0.153   7.564  11.569
52232SOL    HW158593   0.202   7.482  11.573
52232SOL    HW258594   0.164   7.594  11.479
52233SOL     OW58595  14.166   6.172   4.529
52233SOL    HW158596  14.132   6.093   4.571
52233SOL    HW258597  14.161   6.240   4.596
52234SOL     OW58598   5.756   9.768   5.424
52234SOL    HW158599   5.711   9.802   5.502
52234SOL    HW258600   5.840   9.737   5.458
52235SOL     OW58601  12.914   9.894   4.146
52235SOL    HW158602  12.979   9.911   4.214
52235SOL    HW258603  12.908   9.799   4.142
52236SOL     OW58604   4.132   4.205   3.938
52236SOL    HW158605   4.085   4.135   3.894
52236SOL    HW258606   4.186   4.160   4.003
52237SOL     OW58607   8.524   7.181   7.757
52237SOL    HW158608   8.525   7.218   7.845
52237SOL    HW258609   8.482   7.248   7.703
52238SOL     OW58610   2.720  10.243   9.516
52238SOL    HW158611   2.735  10.335   9.493
52238SOL    HW258612   2.667  10.209   9.444
52239SOL     OW58613  10.273   8.741   5.053
52239SOL    HW158614  10.297   8.669   4.994
52239SOL    HW258615  10.198   8.783   5.011
52240SOL     OW58616   9.678   2.070   1.665
52240SOL    HW158617   9.760   2.050   1.619
52240SOL    HW258618   9.650   2.154   1.629
52241SOL     OW58619  13.905  12.448   2.628
52241SOL    HW158620  13.911  12.436   2.723
52241SOL    HW258621  13.959  12.525   2.610
52242SOL     OW58622   7.880  14.298   5.345
52242SOL    HW158623   7.883  14.256   5.259
52242SOL    HW258624   7.922  14.235   5.404
52243SOL     OW58625   8.618   5.332  13.571
52243SOL    HW158626   8.630   5.244  13.536
52243SOL    HW258627   8.565   5.319  13.650
52244SOL     OW58628   3.231  11.068   7.518
52244SOL    HW158629   3.237  11.153   7.561
52244SOL    HW258630   3.277  11.008   7.576
52245SOL     OW58631  14.168   2.078   2.100
52245SOL    HW158632  14.091   2.046   2.053
52245SOL    HW258633  14.135   2.109   2.184
52246SOL     OW58634   5.682  13.604   7.616
52246SOL    HW158635   5.611  13.553   7.577
52246SOL    HW258636   5.758  13.546   7.611
52247SOL     OW58637   3.261  11.743   9.164
52247SOL    HW158638   3.314  11.819   9.141
52247SOL    HW258639   3.209  11.772   9.239
52248SOL     OW58640  11.052  11.756   9.195
52248SOL    HW158641  11.094  11.793   9.273
52248SOL    HW258642  11.122  11.708   9.151
52249SOL     OW58643  12.287  13.072   4.136
52249SOL    HW158644  12.248  13.070   4.048
52249SOL    HW258645  12.293  13.165   4.157
52250SOL     OW58646   9.005   2.617  12.830
52250SOL    HW158647   9.032   2.584  12.744
52250SOL    HW258648   8.952   2.546  12.867
52251SOL     OW58649  11.399   3.800   6.698
52251SOL    HW158650  11.463   3.869   6.685
52251SOL    HW258651  11.364   3.816   6.785
52252SOL     OW58652   2.369   9.543   7.216
52252SOL    HW158653   2.447   9.497   7.186
52252SOL    HW258654   2.374   9.541   7.312
52253SOL     OW58655   6.832   1.599   3.759
52253SOL    HW158656   6.779   1.527   3.794
52253SOL    HW258657   6.781   1.678   3.776
52254SOL     OW58658   8.467   3.953   8.176
52254SOL    HW158659   8.440   4.012   8.105
52254SOL    HW258660   8.385   3.923   8.215
52255SOL     OW58661   9.421   7.168   9.759
52255SOL    HW158662   9.502   7.116   9.750
52255SOL    HW258663   9.451   7.253   9.790
52256SOL     OW58664   9.368  10.725   6.062
52256SOL    HW158665   9.325  10.756   6.141
52256SOL    HW258666   9.417  10.648   6.090
52257SOL     OW58667   6.235  14.626   8.706
52257SOL    HW158668   6.311  14.677   8.680
52257SOL    HW258669   6.198  14.594   8.624
52258SOL     OW58670  13.926  14.162   5.965
52258SOL    HW158671  13.963  14.137   6.050
52258SOL    HW258672  13.833  14.142   5.972
52259SOL     OW58673   6.833  10.750   1.834
52259SOL    HW158674   6.835  10.822   1.771
52259SOL    HW258675   6.773  10.686   1.796
52260SOL     OW58676  11.234   5.165   0.734
52260SOL    HW158677  11.291   5.089   0.745
52260SOL    HW258678  11.197   5.155   0.646
52261SOL     OW58679   3.673   2.294   4.365
52261SOL    HW158680   3.630   2.335   4.440
52261SOL    HW258681   3.745   2.244   4.403
52262SOL     OW58682   2.934   9.090   1.216
52262SOL    HW158683   3.015   9.063   1.171
52262SOL    HW258684   2.864   9.058   1.159
52263SOL     OW58685  14.504  11.084   8.057
52263SOL    HW158686  14.452  11.006   8.036
52263SOL    HW258687  14.444  11.157   8.041
52264SOL     OW58688   2.729  14.765  11.567
52264SOL    HW158689   2.660  14.719  11.615
52264SOL    HW258690   2.737  14.850  11.611
52265SOL     OW58691   4.824  11.259  10.487
52265SOL    HW158692   4.789  11.244  10.398
52265SOL    HW258693   4.787  11.188  10.539
52266SOL     OW58694   6.147  11.959   6.712
52266SOL    HW158695   6.169  11.876   6.753
52266SOL    HW258696   6.053  11.971   6.728
52267SOL     OW58697   0.892  11.005   9.410
52267SOL    HW158698   0.949  10.935   9.377
52267SOL    HW258699   0.895  10.995   9.506
52268SOL     OW58700  10.188   4.948   8.015
52268SOL    HW158701  10.233   4.983   8.091
52268SOL    HW258702  10.204   5.013   7.946
52269SOL     OW58703   3.955   5.561   9.458
52269SOL    HW158704   3.924   5.640   9.414
52269SOL    HW258705   4.025   5.529   9.401
52270SOL     OW58706   8.509   6.362  13.323
52270SOL    HW158707   8.530   6.272  13.349
52270SOL    HW258708   8.562   6.417  13.380
52271SOL     OW58709   3.165  12.686   2.914
52271SOL    HW158710   3.120  12.736   2.846
52271SOL    HW258711   3.258  12.691   2.890
52272SOL     OW58712   5.479   6.455   8.522
52272SOL    HW158713   5.434   6.371   8.515
52272SOL    HW258714   5.548   6.441   8.586
52273SOL     OW58715   9.812  11.274   3.314
52273SOL    HW158716   9.834  11.353   3.264
52273SOL    HW258717   9.756  11.223   3.255
52274SOL     OW58718   6.367   2.615   2.962
52274SOL    HW158719   6.318   2.563   2.899
52274SOL    HW258720   6.459   2.598   2.941
52275SOL     OW58721   8.933  12.066  12.151
52275SOL    HW158722   8.860  12.005  12.151
52275SOL    HW258723   8.900  12.143  12.104
52276SOL     OW58724  14.477   3.651   7.249
52276SOL    HW158725  14.411   3.591   7.285
52276SOL    HW258726  14.427   3.711   7.193
52277SOL     OW58727   5.372   8.994   9.010
52277SOL    HW158728   5.292   9.012   9.060
52277SOL    HW258729   5.340   8.963   8.925
52278SOL     OW58730   6.747   4.675   2.964
52278SOL    HW158731   6.722   4.587   2.934
52278SOL    HW258732   6.679   4.732   2.928
52279SOL     OW58733   8.336   0.568  12.722
52279SOL    HW158734   8.329   0.497  12.785
52279SOL    HW258735   8.313   0.647  12.771
52280SOL     OW58736  10.178   5.697  12.439
52280SOL    HW158737  10.127   5.633  12.490
52280SOL    HW258738  10.242   5.731  12.501
52281SOL     OW58739  13.718  14.150  11.760
52281SOL    HW158740  13.689  14.213  11.694
52281SOL    HW258741  13.813  14.156  11.758
52282SOL     OW58742   8.166   2.492   8.189
52282SOL    HW158743   8.189   2.428   8.256
52282SOL    HW258744   8.119   2.442   8.123
52283SOL     OW58745  11.146  11.733   6.851
52283SOL    HW158746  11.208  11.801   6.878
52283SOL    HW258747  11.060  11.771   6.868
52284SOL     OW58748   2.019   5.242   5.994
52284SOL    HW158749   2.100   5.282   6.026
52284SOL    HW258750   2.035   5.148   6.001
52285SOL     OW58751   6.482  12.638   0.795
52285SOL    HW158752   6.445  12.594   0.871
52285SOL    HW258753   6.431  12.605   0.721
52286SOL     OW58754  12.513  14.667   4.302
52286SOL    HW158755  12.595  14.694   4.343
52286SOL    HW258756  12.446  14.719   4.346
52287SOL     OW58757  10.765   8.051   6.168
52287SOL    HW158758  10.755   7.960   6.140
52287SOL    HW258759  10.699   8.063   6.236
52288SOL     OW58760   8.502   3.254   9.324
52288SOL    HW158761   8.578   3.277   9.272
52288SOL    HW258762   8.442   3.212   9.263
52289SOL     OW58763   4.487   6.725   0.937
52289SOL    HW158764   4.510   6.683   1.019
52289SOL    HW258765   4.549   6.798   0.928
52290SOL     OW58766   7.234  14.484  10.312
52290SOL    HW158767   7.277  14.499  10.396
52290SOL    HW258768   7.159  14.543  10.311
52291SOL     OW58769   5.136  12.854  13.236
52291SOL    HW158770   5.229  12.877  13.230
52291SOL    HW258771   5.124  12.828  13.327
52292SOL     OW58772  13.862   0.833   2.106
52292SOL    HW158773  13.811   0.808   2.029
52292SOL    HW258774  13.802   0.820   2.179
52293SOL     OW58775   4.906   4.311   2.344
52293SOL    HW158776   4.813   4.289   2.344
52293SOL    HW258777   4.928   4.325   2.252
52294SOL     OW58778   3.965   9.886   0.678
52294SOL    HW158779   3.937   9.875   0.587
52294SOL    HW258780   3.973   9.981   0.690
52295SOL     OW58781  10.279   2.142   0.600
52295SOL    HW158782  10.367   2.165   0.627
52295SOL    HW258783  10.229   2.224   0.606
52296SOL     OW58784  12.150  12.124   2.059
52296SOL    HW158785  12.070  12.142   2.109
52296SOL    HW258786  12.203  12.069   2.117
52297SOL     OW58787   7.885   6.717   3.661
52297SOL    HW158788   7.927   6.771   3.594
52297SOL    HW258789   7.899   6.627   3.632
52298SOL     OW58790   0.283   3.160   3.406
52298SOL    HW158791   0.225   3.235   3.396
52298SOL    HW258792   0.370   3.194   3.381
52299SOL     OW58793  10.287   7.459   1.847
52299SOL    HW158794  10.206   7.423   1.811
52299SOL    HW258795  10.264   7.548   1.873
52300SOL     OW58796   1.237   6.376   6.890
52300SOL    HW158797   1.228   6.419   6.805
52300SOL    HW258798   1.273   6.443   6.948
52301SOL     OW58799   2.158   9.491   5.963
52301SOL    HW158800   2.141   9.412   6.014
52301SOL    HW258801   2.074   9.537   5.962
52302SOL     OW58802  10.916   6.114   1.292
52302SOL    HW158803  10.822   6.130   1.302
52302SOL    HW258804  10.931   6.115   1.198
52303SOL     OW58805  12.839  10.851   9.026
52303SOL    HW158806  12.790  10.888   8.952
52303SOL    HW258807  12.773  10.807   9.079
52304SOL     OW58808  11.468   8.326  13.963
52304SOL    HW158809  11.464   8.340  13.869
52304SOL    HW258810  11.534   8.257  13.974
52305SOL     OW58811   2.433   7.196  11.790
52305SOL    HW158812   2.408   7.256  11.720
52305SOL    HW258813   2.411   7.109  11.757
52306SOL     OW58814  11.425   7.540  11.266
52306SOL    HW158815  11.475   7.579  11.338
52306SOL    HW258816  11.353   7.494  11.309
52307SOL     OW58817   1.647   0.405   0.722
52307SOL    HW158818   1.613   0.474   0.665
52307SOL    HW258819   1.735   0.435   0.746
52308SOL     OW58820   4.666   1.572  10.892
52308SOL    HW158821   4.688   1.489  10.850
52308SOL    HW258822   4.724   1.576  10.969
52309SOL     OW58823   2.959   4.953   3.457
52309SOL    HW158824   3.046   4.989   3.439
52309SOL    HW258825   2.899   5.016   3.415
52310SOL     OW58826   3.272  13.395   1.479
52310SOL    HW158827   3.270  13.303   1.453
52310SOL    HW258828   3.354  13.404   1.527
52311SOL     OW58829   6.939   1.619   4.053
52311SOL    HW158830   6.986   1.556   4.107
52311SOL    HW258831   6.942   1.583   3.965
52312SOL     OW58832   2.635   4.858  12.957
52312SOL    HW158833   2.577   4.784  12.974
52312SOL    HW258834   2.611   4.923  13.022
52313SOL     OW58835  12.454   2.238  12.599
52313SOL    HW158836  12.387   2.306  12.605
52313SOL    HW258837  12.475   2.233  12.506
52314SOL     OW58838  12.121   8.617   6.963
52314SOL    HW158839  12.041   8.635   7.012
52314SOL    HW258840  12.112   8.526   6.935
52315SOL     OW58841   1.374   2.730   6.639
52315SOL    HW158842   1.326   2.812   6.629
52315SOL    HW258843   1.356   2.682   6.558
52316SOL     OW58844   2.616   9.301   0.229
52316SOL    HW158845   2.545   9.348   0.273
52316SOL    HW258846   2.696   9.342   0.263
52317SOL     OW58847  12.706   5.821   3.191
52317SOL    HW158848  12.781   5.809   3.132
52317SOL    HW258849  12.666   5.903   3.163
52318SOL     OW58850   1.518  12.938   3.847
52318SOL    HW158851   1.508  13.030   3.823
52318SOL    HW258852   1.548  12.940   3.938
52319SOL     OW58853  10.447   9.622  10.543
52319SOL    HW158854  10.531   9.639  10.584
52319SOL    HW258855  10.445   9.680  10.467
52320SOL     OW58856   7.646   4.408  14.544
52320SOL    HW158857   7.617   4.327  14.586
52320SOL    HW258858   7.737   4.392  14.521
52321SOL     OW58859   9.579   3.967  13.860
52321SOL    HW158860   9.632   3.923  13.793
52321SOL    HW258861   9.598   3.919  13.940
52322SOL     OW58862  12.567   7.876   0.979
52322SOL    HW158863  12.477   7.908   0.985
52322SOL    HW258864  12.566   7.793   1.028
52323SOL     OW58865   0.115   5.649   2.193
52323SOL    HW158866   0.157   5.580   2.244
52323SOL    HW258867   0.021   5.635   2.208
52324SOL     OW58868   5.970   1.829   2.359
52324SOL    HW158869   6.050   1.820   2.411
52324SOL    HW258870   5.956   1.743   2.319
52325SOL     OW58871   8.991  14.174   9.115
52325SOL    HW158872   8.912  14.189   9.062
52325SOL    HW258873   8.964  14.193   9.204
52326SOL     OW58874  12.835   6.696  10.844
52326SOL    HW158875  12.748   6.719  10.812
52326SOL    HW258876  12.892   6.704  10.768
52327SOL     OW58877   0.118   2.420   4.197
52327SOL    HW158878   0.122   2.491   4.132
52327SOL    HW258879   0.204   2.420   4.238
52328SOL     OW58880   8.388   6.515  11.878
52328SOL    HW158881   8.317   6.579  11.870
52328SOL    HW258882   8.416   6.522  11.969
52329SOL     OW58883   3.863   5.234   2.404
52329SOL    HW158884   3.810   5.197   2.475
52329SOL    HW258885   3.916   5.160   2.373
52330SOL     OW58886  11.024   6.148   8.241
52330SOL    HW158887  11.085   6.079   8.266
52330SOL    HW258888  11.060   6.183   8.159
52331SOL     OW58889   7.061  12.905  14.089
52331SOL    HW158890   7.095  12.818  14.110
52331SOL    HW258891   7.060  12.951  14.172
52332SOL     OW58892  12.487   0.158  14.422
52332SOL    HW158893  12.393   0.146  14.412
52332SOL    HW258894  12.526   0.100  14.357
52333SOL     OW58895  12.776  14.837  14.371
52333SOL    HW158896  12.870  14.847  14.355
52333SOL    HW258897  12.765  14.861  14.463
52334SOL     OW58898   9.801   0.104   0.603
52334SOL    HW158899   9.782   0.113   0.696
52334SOL    HW258900   9.881   0.050   0.600
52335SOL     OW58901   5.859   3.535   9.599
52335SOL    HW158902   5.888   3.621   9.569
52335SOL    HW258903   5.907   3.520   9.680
52336SOL     OW58904   6.112   5.271   9.490
52336SOL    HW158905   6.137   5.244   9.402
52336SOL    HW258906   6.025   5.232   9.502
52337SOL     OW58907   5.284   3.861   4.999
52337SOL    HW158908   5.217   3.926   4.978
52337SOL    HW258909   5.235   3.779   5.008
52338SOL     OW58910   4.475   4.682  13.529
52338SOL    HW158911   4.561   4.666  13.489
52338SOL    HW258912   4.413   4.664  13.458
52339SOL     OW58913   1.665   8.784  12.884
52339SOL    HW158914   1.632   8.713  12.939
52339SOL    HW258915   1.615   8.861  12.911
52340SOL     OW58916  12.035   3.482   1.105
52340SOL    HW158917  12.101   3.544   1.136
52340SOL    HW258918  11.988   3.456   1.184
52341SOL     OW58919   4.031  13.234  13.321
52341SOL    HW158920   4.064  13.196  13.403
52341SOL    HW258921   4.075  13.319  13.314
52342SOL     OW58922   9.351   9.702   2.104
52342SOL    HW158923   9.264   9.712   2.142
52342SOL    HW258924   9.344   9.624   2.049
52343SOL     OW58925  13.681   3.866  11.167
52343SOL    HW158926  13.723   3.896  11.087
52343SOL    HW258927  13.647   3.779  11.146
52344SOL     OW58928   3.946   7.747  14.686
52344SOL    HW158929   4.022   7.746  14.628
52344SOL    HW258930   3.921   7.655  14.694
52345SOL     OW58931   8.642  14.239  14.388
52345SOL    HW158932   8.566  14.181  14.392
52345SOL    HW258933   8.652  14.260  14.295
52346SOL     OW58934  13.810  13.093   0.390
52346SOL    HW158935  13.758  13.021   0.426
52346SOL    HW258936  13.894  13.052   0.367
52347SOL     OW58937  11.017   7.857   8.913
52347SOL    HW158938  11.101   7.826   8.949
52347SOL    HW258939  10.954   7.790   8.938
52348SOL     OW58940   7.024   3.817   7.181
52348SOL    HW158941   7.055   3.729   7.202
52348SOL    HW258942   7.027   3.822   7.086
52349SOL     OW58943  13.708   6.397   5.251
52349SOL    HW158944  13.686   6.433   5.337
52349SOL    HW258945  13.697   6.471   5.191
52350SOL     OW58946   8.170  10.818   8.151
52350SOL    HW158947   8.188  10.820   8.057
52350SOL    HW258948   8.257  10.816   8.192
52351SOL     OW58949  10.071   1.289  11.272
52351SOL    HW158950  10.160   1.322  11.263
52351SOL    HW258951  10.020   1.342  11.211
52352SOL     OW58952  13.770   8.272   4.860
52352SOL    HW158953  13.776   8.257   4.954
52352SOL    HW258954  13.777   8.367   4.850
52353SOL     OW58955   4.052  13.738  10.962
52353SOL    HW158956   3.999  13.755  10.884
52353SOL    HW258957   4.056  13.823  11.007
52354SOL     OW58958   4.069   4.633   9.190
52354SOL    HW158959   4.121   4.586   9.255
52354SOL    HW258960   4.012   4.690   9.241
52355SOL     OW58961  10.762   2.071  10.016
52355SOL    HW158962  10.821   2.030  10.079
52355SOL    HW258963  10.808   2.066   9.932
52356SOL     OW58964   3.590   3.158   9.006
52356SOL    HW158965   3.641   3.195   9.078
52356SOL    HW258966   3.621   3.067   9.000
52357SOL     OW58967  12.348   4.033   2.804
52357SOL    HW158968  12.289   3.957   2.803
52357SOL    HW258969  12.290   4.108   2.790
52358SOL     OW58970   6.580  14.331   1.804
52358SOL    HW158971   6.561  14.407   1.860
52358SOL    HW258972   6.579  14.366   1.715
52359SOL     OW58973  14.810  14.343   8.010
52359SOL    HW158974  14.721  14.331   7.978
52359SOL    HW258975  14.830  14.261   8.056
52360SOL     OW58976   6.048  13.181   0.764
52360SOL    HW158977   6.019  13.110   0.707
52360SOL    HW258978   6.102  13.237   0.708
52361SOL     OW58979   1.262  10.230   1.319
52361SOL    HW158980   1.323  10.157   1.305
52361SOL    HW258981   1.176  10.193   1.303
52362SOL     OW58982   1.742   9.421  12.251
52362SOL    HW158983   1.723   9.332  12.224
52362SOL    HW258984   1.786   9.411  12.336
52363SOL     OW58985   5.144   9.821  11.347
52363SOL    HW158986   5.104   9.853  11.266
52363SOL    HW258987   5.234   9.797  11.322
52364SOL     OW58988   3.032  11.672   1.427
52364SOL    HW158989   3.111  11.640   1.470
52364SOL    HW258990   3.022  11.615   1.351
52365SOL     OW58991  13.098   7.813   3.997
52365SOL    HW158992  13.135   7.776   4.077
52365SOL    HW258993  13.036   7.880   4.028
52366SOL     OW58994   9.018   3.902  13.679
52366SOL    HW158995   9.099   3.852  13.668
52366SOL    HW258996   8.979   3.869  13.760
52367SOL     OW58997   9.252   6.710   8.685
52367SOL    HW158998   9.225   6.624   8.719
52367SOL    HW258999   9.174   6.764   8.692
52368SOL     OW59000  12.772  10.722   3.707
52368SOL    HW159001  12.731  10.798   3.750
52368SOL    HW259002  12.839  10.694   3.769
52369SOL     OW59003   5.066  11.665  14.015
52369SOL    HW159004   5.045  11.593  13.956
52369SOL    HW259005   5.126  11.628  14.079
52370SOL     OW59006   8.829   9.557  14.408
52370SOL    HW159007   8.821   9.624  14.340
52370SOL    HW259008   8.857   9.606  14.486
52371SOL     OW59009   8.639   2.007   5.476
52371SOL    HW159010   8.661   2.054   5.556
52371SOL    HW259011   8.644   2.074   5.407
52372SOL     OW59012   1.376  13.229   5.045
52372SOL    HW159013   1.433  13.304   5.061
52372SOL    HW259014   1.435  13.161   5.011
52373SOL     OW59015   8.010   4.063   6.924
52373SOL    HW159016   7.928   4.039   6.880
52373SOL    HW259017   7.982   4.121   6.995
52374SOL     OW59018   2.585   5.624   2.247
52374SOL    HW159019   2.560   5.686   2.180
52374SOL    HW259020   2.664   5.660   2.287
52375SOL     OW59021   0.520   3.259  13.869
52375SOL    HW159022   0.559   3.194  13.811
52375SOL    HW259023   0.482   3.208  13.941
52376SOL     OW59024   6.259   5.149   1.879
52376SOL    HW159025   6.210   5.220   1.921
52376SOL    HW259026   6.351   5.172   1.893
52377SOL     OW59027   1.178   3.849  12.763
52377SOL    HW159028   1.186   3.937  12.798
52377SOL    HW259029   1.122   3.803  12.826
52378SOL     OW59030  12.777  11.507   1.945
52378SOL    HW159031  12.709  11.482   1.882
52378SOL    HW259032  12.754  11.596   1.972
52379SOL     OW59033   4.018   6.382   0.217
52379SOL    HW159034   3.932   6.353   0.186
52379SOL    HW259035   4.079   6.317   0.181
52380SOL     OW59036   8.839  10.739  13.364
52380SOL    HW159037   8.765  10.769  13.310
52380SOL    HW259038   8.875  10.664  13.316
52381SOL     OW59039   7.538  10.534   9.650
52381SOL    HW159040   7.574  10.548   9.738
52381SOL    HW259041   7.484  10.611   9.634
52382SOL     OW59042   6.669   5.833   6.992
52382SOL    HW159043   6.632   5.787   7.067
52382SOL    HW259044   6.595   5.845   6.933
52383SOL     OW59045   1.405   8.377   0.837
52383SOL    HW159046   1.489   8.352   0.875
52383SOL    HW259047   1.410   8.350   0.745
52384SOL     OW59048   0.438  10.279   6.466
52384SOL    HW159049   0.419  10.347   6.402
52384SOL    HW259050   0.532  10.264   6.458
52385SOL     OW59051  13.010  11.105   3.103
52385SOL    HW159052  13.004  11.127   3.010
52385SOL    HW259053  13.087  11.153   3.134
52386SOL     OW59054   5.850   8.363  13.946
52386SOL    HW159055   5.838   8.280  13.900
52386SOL    HW259056   5.931   8.351  13.995
52387SOL     OW59057   4.666   2.723  10.933
52387SOL    HW159058   4.694   2.771  11.011
52387SOL    HW259059   4.738   2.734  10.871
52388SOL     OW59060   7.540   7.166   6.950
52388SOL    HW159061   7.517   7.158   6.857
52388SOL    HW259062   7.524   7.078   6.986
52389SOL     OW59063   5.885   7.358   4.467
52389SOL    HW159064   5.872   7.411   4.545
52389SOL    HW259065   5.804   7.369   4.417
52390SOL     OW59066   8.397   1.661  14.499
52390SOL    HW159067   8.349   1.743  14.513
52390SOL    HW259068   8.388   1.614  14.582
52391SOL     OW59069  14.390  12.112   6.687
52391SOL    HW159070  14.479  12.079   6.701
52391SOL    HW259071  14.383  12.125   6.593
52392SOL     OW59072   1.312   4.598   7.795
52392SOL    HW159073   1.332   4.691   7.805
52392SOL    HW259074   1.391   4.561   7.756
52393SOL     OW59075  11.943  10.398  10.712
52393SOL    HW159076  12.036  10.421  10.704
52393SOL    HW259077  11.901  10.440  10.637
52394SOL     OW59078   3.543   2.860   8.791
52394SOL    HW159079   3.462   2.824   8.755
52394SOL    HW259080   3.518   2.894   8.877
52395SOL     OW59081   2.718  10.480   1.560
52395SOL    HW159082   2.695  10.559   1.509
52395SOL    HW259083   2.640  10.426   1.555
52396SOL     OW59084   4.948   9.997  11.815
52396SOL    HW159085   4.920   9.997  11.723
52396SOL    HW259086   5.028  10.050  11.816
52397SOL     OW59087   4.426   3.715  14.694
52397SOL    HW159088   4.417   3.626  14.660
52397SOL    HW259089   4.520   3.725  14.708
52398SOL     OW59090   8.639   1.143   5.208
52398SOL    HW159091   8.690   1.065   5.187
52398SOL    HW259092   8.703   1.214   5.206
52399SOL     OW59093   7.068   2.808  11.523
52399SOL    HW159094   7.101   2.795  11.612
52399SOL    HW259095   7.143   2.792  11.467
52400SOL     OW59096  10.848   7.557   5.227
52400SOL    HW159097  10.896   7.571   5.145
52400SOL    HW259098  10.911   7.577   5.296
52401SOL     OW59099   9.388   7.567   7.689
52401SOL    HW159100   9.365   7.582   7.597
52401SOL    HW259101   9.308   7.589   7.737
52402SOL     OW59102   8.541   1.082   2.935
52402SOL    HW159103   8.609   1.015   2.937
52402SOL    HW259104   8.557   1.130   2.854
52403SOL     OW59105   4.423  12.851   3.155
52403SOL    HW159106   4.431  12.797   3.077
52403SOL    HW259107   4.513  12.871   3.180
52404SOL     OW59108  12.272   6.068   1.145
52404SOL    HW159109  12.241   6.153   1.113
52404SOL    HW259110  12.343   6.045   1.085
52405SOL     OW59111   6.515   7.574  11.533
52405SOL    HW159112   6.518   7.619  11.618
52405SOL    HW259113   6.491   7.642  11.471
52406SOL     OW59114  14.183   0.234  11.576
52406SOL    HW159115  14.095   0.251  11.608
52406SOL    HW259116  14.206   0.313  11.526
52407SOL     OW59117   2.553   7.521   7.861
52407SOL    HW159118   2.528   7.589   7.924
52407SOL    HW259119   2.525   7.555   7.776
52408SOL     OW59120   5.836   5.964  11.872
52408SOL    HW159121   5.801   5.887  11.826
52408SOL    HW259122   5.764   5.992  11.929
52409SOL     OW59123  12.354   1.200  14.612
52409SOL    HW159124  12.377   1.111  14.636
52409SOL    HW259125  12.438   1.245  14.601
52410SOL     OW59126  14.376   0.701  11.798
52410SOL    HW159127  14.359   0.794  11.810
52410SOL    HW259128  14.290   0.660  11.802
52411SOL     OW59129  14.565  14.063   3.837
52411SOL    HW159130  14.522  14.117   3.771
52411SOL    HW259131  14.530  13.975   3.823
52412SOL     OW59132   0.476   1.520   6.800
52412SOL    HW159133   0.421   1.508   6.877
52412SOL    HW259134   0.563   1.539   6.834
52413SOL     OW59135  13.956   8.638  13.904
52413SOL    HW159136  13.989   8.700  13.968
52413SOL    HW259137  13.893   8.585  13.952
52414SOL     OW59138   5.637   8.572   4.714
52414SOL    HW159139   5.667   8.532   4.796
52414SOL    HW259140   5.543   8.586   4.727
52415SOL     OW59141  11.842   7.263  11.878
52415SOL    HW159142  11.884   7.177  11.871
52415SOL    HW259143  11.750   7.247  11.856
52416SOL     OW59144   7.180  12.571   0.731
52416SOL    HW159145   7.270  12.589   0.706
52416SOL    HW259146   7.127  12.601   0.656
52417SOL     OW59147   3.591   4.062  13.706
52417SOL    HW159148   3.627   4.120  13.773
52417SOL    HW259149   3.653   4.068  13.633
52418SOL     OW59150   1.620  10.139   3.776
52418SOL    HW159151   1.611  10.043   3.773
52418SOL    HW259152   1.675  10.156   3.852
52419SOL     OW59153   4.575   1.851  13.436
52419SOL    HW159154   4.508   1.858  13.368
52419SOL    HW259155   4.641   1.916  13.411
52420SOL     OW59156   4.523  14.717   6.850
52420SOL    HW159157   4.460  14.698   6.780
52420SOL    HW259158   4.544  14.810   6.837
52421SOL     OW59159   6.017  10.176   1.497
52421SOL    HW159160   6.098  10.125   1.498
52421SOL    HW259161   6.014  10.219   1.582
52422SOL     OW59162  12.916  12.818  14.211
52422SOL    HW159163  12.920  12.807  14.116
52422SOL    HW259164  12.824  12.801  14.233
52423SOL     OW59165   5.079   1.423   2.825
52423SOL    HW159166   5.100   1.356   2.760
52423SOL    HW259167   5.048   1.375   2.901
52424SOL     OW59168   1.766   5.056  10.735
52424SOL    HW159169   1.770   4.960  10.740
52424SOL    HW259170   1.830   5.079  10.668
52425SOL     OW59171   4.951  11.983   9.222
52425SOL    HW159172   4.911  12.070   9.228
52425SOL    HW259173   4.915  11.935   9.297
52426SOL     OW59174   2.289  10.208  12.946
52426SOL    HW159175   2.228  10.157  12.998
52426SOL    HW259176   2.370  10.157  12.945
52427SOL     OW59177  12.219   2.109   4.451
52427SOL    HW159178  12.195   2.199   4.433
52427SOL    HW259179  12.283   2.115   4.522
52428SOL     OW59180   1.878   1.515   9.683
52428SOL    HW159181   1.916   1.428   9.679
52428SOL    HW259182   1.903   1.557   9.601
52429SOL     OW59183   5.503  10.984   1.991
52429SOL    HW159184   5.455  10.902   1.979
52429SOL    HW259185   5.441  11.042   2.035
52430SOL     OW59186  14.632  11.741   2.807
52430SOL    HW159187  14.665  11.714   2.893
52430SOL    HW259188  14.549  11.695   2.798
52431SOL     OW59189   2.539   3.190  11.308
52431SOL    HW159190   2.628   3.155  11.304
52431SOL    HW259191   2.509   3.190  11.217
52432SOL     OW59192   0.306  12.114   0.335
52432SOL    HW159193   0.311  12.020   0.353
52432SOL    HW259194   0.232  12.145   0.389
52433SOL     OW59195   9.909   1.451   7.503
52433SOL    HW159196   9.850   1.509   7.455
52433SOL    HW259197   9.973   1.510   7.543
52434SOL     OW59198   7.913   9.457  12.932
52434SOL    HW159199   7.991   9.475  12.985
52434SOL    HW259200   7.869   9.542  12.924
52435SOL     OW59201   2.445   8.993  10.592
52435SOL    HW159202   2.469   8.956  10.507
52435SOL    HW259203   2.529   9.020  10.630
52436SOL     OW59204  12.451  12.135   7.253
52436SOL    HW159205  12.374  12.090   7.218
52436SOL    HW259206  12.441  12.128   7.348
52437SOL     OW59207  14.255  13.011   8.292
52437SOL    HW159208  14.194  12.942   8.319
52437SOL    HW259209  14.223  13.090   8.334
52438SOL     OW59210   7.422   5.091  14.388
52438SOL    HW159211   7.366   5.168  14.383
52438SOL    HW259212   7.398   5.038  14.312
52439SOL     OW59213  14.423   3.843   8.326
52439SOL    HW159214  14.413   3.872   8.417
52439SOL    HW259215  14.412   3.923   8.274
52440SOL     OW59216   1.008   0.205  14.774
52440SOL    HW159217   1.064   0.140  14.817
52440SOL    HW259218   1.061   0.285  14.774
52441SOL     OW59219   5.978  13.081   7.684
52441SOL    HW159220   5.939  13.044   7.764
52441SOL    HW259221   6.043  13.016   7.657
52442SOL     OW59222   9.812   5.171  11.867
52442SOL    HW159223   9.897   5.160  11.908
52442SOL    HW259224   9.830   5.221  11.787
52443SOL     OW59225   2.194   5.003   0.573
52443SOL    HW159226   2.245   4.938   0.524
52443SOL    HW259227   2.112   4.959   0.593
52444SOL     OW59228   2.693  10.965   9.808
52444SOL    HW159229   2.654  11.052   9.805
52444SOL    HW259230   2.696  10.937   9.716
52445SOL     OW59231   7.968   7.130  13.369
52445SOL    HW159232   8.000   7.143  13.458
52445SOL    HW259233   7.957   7.035  13.362
52446SOL     OW59234  12.031  14.032   0.366
52446SOL    HW159235  11.997  14.038   0.277
52446SOL    HW259236  12.051  14.122   0.390
52447SOL     OW59237   4.744   7.080  10.451
52447SOL    HW159238   4.735   7.030  10.369
52447SOL    HW259239   4.808   7.147  10.430
52448SOL     OW59240   1.941   3.937   2.179
52448SOL    HW159241   1.915   3.886   2.102
52448SOL    HW259242   1.989   4.012   2.143
52449SOL     OW59243  14.653   9.418  11.740
52449SOL    HW159244  14.562   9.392  11.754
52449SOL    HW259245  14.657   9.509  11.769
52450SOL     OW59246  11.912   9.127   9.416
52450SOL    HW159247  11.859   9.135   9.337
52450SOL    HW259248  11.986   9.186   9.402
52451SOL     OW59249   0.411   5.010   3.273
52451SOL    HW159250   0.475   4.983   3.339
52451SOL    HW259251   0.405   5.105   3.282
52452SOL     OW59252   2.797   7.122  14.580
52452SOL    HW159253   2.733   7.065  14.622
52452SOL    HW259254   2.754   7.206  14.572
52453SOL     OW59255   2.592   5.749  10.378
52453SOL    HW159256   2.534   5.789  10.313
52453SOL    HW259257   2.560   5.659  10.387
52454SOL     OW59258  11.417   1.030   3.730
52454SOL    HW159259  11.340   0.978   3.706
52454SOL    HW259260  11.381   1.103   3.780
52455SOL     OW59261   9.064  12.041   9.663
52455SOL    HW159262   9.082  12.017   9.572
52455SOL    HW259263   9.037  11.959   9.704
52456SOL     OW59264   6.740   7.688   2.426
52456SOL    HW159265   6.708   7.778   2.418
52456SOL    HW259266   6.661   7.637   2.446
52457SOL     OW59267  14.837   1.668   7.374
52457SOL    HW159268   0.021   1.605   7.412
52457SOL    HW259269  14.790   1.703   7.449
52458SOL     OW59270   4.710  13.848   9.264
52458SOL    HW159271   4.678  13.804   9.343
52458SOL    HW259272   4.631  13.871   9.215
52459SOL     OW59273   0.328  10.651  13.677
52459SOL    HW159274   0.252  10.597  13.696
52459SOL    HW259275   0.296  10.741  13.682
52460SOL     OW59276   7.483   2.336   9.275
52460SOL    HW159277   7.395   2.311   9.246
52460SOL    HW259278   7.470   2.375   9.362
52461SOL     OW59279   6.935   9.142   2.769
52461SOL    HW159280   6.883   9.180   2.699
52461SOL    HW259281   7.025   9.169   2.751
52462SOL     OW59282  10.982  12.807  11.169
52462SOL    HW159283  11.070  12.793  11.135
52462SOL    HW259284  10.970  12.738  11.234
52463SOL     OW59285   0.421  13.193   3.967
52463SOL    HW159286   0.492  13.200   3.902
52463SOL    HW259287   0.459  13.224   4.048
52464SOL     OW59288   0.294   8.524   0.843
52464SOL    HW159289   0.198   8.525   0.848
52464SOL    HW259290   0.313   8.547   0.752
52465SOL     OW59291   3.716  12.635   4.725
52465SOL    HW159292   3.774  12.594   4.662
52465SOL    HW259293   3.774  12.676   4.789
52466SOL     OW59294   6.920  11.257   4.575
52466SOL    HW159295   6.971  11.204   4.637
52466SOL    HW259296   6.855  11.196   4.540
52467SOL     OW59297  14.322  12.705   3.342
52467SOL    HW159298  14.302  12.624   3.295
52467SOL    HW259299  14.396  12.682   3.398
52468SOL     OW59300   8.222   3.869   5.386
52468SOL    HW159301   8.216   3.938   5.320
52468SOL    HW259302   8.197   3.912   5.468
52469SOL     OW59303   3.657   5.910  14.844
52469SOL    HW159304   3.629   5.988  14.795
52469SOL    HW259305   3.662   5.841  14.778
52470SOL     OW59306   3.194   5.853   7.971
52470SOL    HW159307   3.285   5.854   8.003
52470SOL    HW259308   3.141   5.835   8.049
52471SOL     OW59309   6.711   5.912   2.400
52471SOL    HW159310   6.621   5.904   2.367
52471SOL    HW259311   6.736   6.002   2.378
52472SOL     OW59312   7.199  12.217   6.458
52472SOL    HW159313   7.291  12.211   6.481
52472SOL    HW259314   7.196  12.279   6.385
52473SOL     OW59315  12.921   8.321   4.319
52473SOL    HW159316  12.866   8.399   4.308
52473SOL    HW259317  12.935   8.288   4.230
52474SOL     OW59318  11.790   9.731   8.753
52474SOL    HW159319  11.866   9.688   8.792
52474SOL    HW259320  11.716   9.704   8.807
52475SOL     OW59321  10.387  12.269  10.888
52475SOL    HW159322  10.437  12.226  10.819
52475SOL    HW259323  10.312  12.308  10.843
52476SOL     OW59324   1.803   7.036   8.847
52476SOL    HW159325   1.788   7.041   8.753
52476SOL    HW259326   1.724   7.074   8.886
52477SOL     OW59327   2.331   7.168   1.738
52477SOL    HW159328   2.285   7.089   1.708
52477SOL    HW259329   2.262   7.233   1.750
52478SOL     OW59330   5.142   2.919   8.168
52478SOL    HW159331   5.156   2.887   8.078
52478SOL    HW259332   5.230   2.926   8.205
52479SOL     OW59333   4.097   6.635   3.339
52479SOL    HW159334   4.128   6.635   3.248
52479SOL    HW259335   4.150   6.569   3.382
52480SOL     OW59336   6.904   9.871   8.025
52480SOL    HW159337   6.907   9.794   8.082
52480SOL    HW259338   6.857   9.937   8.076
52481SOL     OW59339  14.138  12.599   3.750
52481SOL    HW159340  14.132  12.680   3.699
52481SOL    HW259341  14.215  12.554   3.716
52482SOL     OW59342  11.098  10.650   4.308
52482SOL    HW159343  11.017  10.607   4.279
52482SOL    HW259344  11.073  10.741   4.321
52483SOL     OW59345   5.780  10.204   4.985
52483SOL    HW159346   5.701  10.186   5.035
52483SOL    HW259347   5.771  10.295   4.957
52484SOL     OW59348  12.469   8.765  14.085
52484SOL    HW159349  12.395   8.823  14.106
52484SOL    HW259350  12.489   8.784  13.993
52485SOL     OW59351   1.139   2.068   0.291
52485SOL    HW159352   1.131   2.148   0.238
52485SOL    HW259353   1.115   2.096   0.379
52486SOL     OW59354   4.707   5.706   4.624
52486SOL    HW159355   4.738   5.756   4.549
52486SOL    HW259356   4.777   5.714   4.689
52487SOL     OW59357   3.249   0.182   6.665
52487SOL    HW159358   3.205   0.178   6.750
52487SOL    HW259359   3.242   0.274   6.639
52488SOL     OW59360   4.138   5.406   7.756
52488SOL    HW159361   4.177   5.394   7.843
52488SOL    HW259362   4.135   5.319   7.718
52489SOL     OW59363   7.612  10.938   0.077
52489SOL    HW159364   7.585  10.905   0.162
52489SOL    HW259365   7.692  10.891   0.056
52490SOL     OW59366  12.049  12.662   1.257
52490SOL    HW159367  12.072  12.702   1.173
52490SOL    HW259368  11.958  12.686   1.272
52491SOL     OW59369  10.300   8.618   7.906
52491SOL    HW159370  10.351   8.568   7.970
52491SOL    HW259371  10.209   8.606   7.933
52492SOL     OW59372   3.187   9.232   6.794
52492SOL    HW159373   3.231   9.172   6.854
52492SOL    HW259374   3.256   9.290   6.762
52493SOL     OW59375   9.728   1.361   0.672
52493SOL    HW159376   9.791   1.424   0.706
52493SOL    HW259377   9.661   1.414   0.629
52494SOL     OW59378  11.208   9.486   1.912
52494SOL    HW159379  11.212   9.575   1.948
52494SOL    HW259380  11.298   9.455   1.914
52495SOL     OW59381   6.760   2.507   8.699
52495SOL    HW159382   6.669   2.520   8.724
52495SOL    HW259383   6.811   2.555   8.765
52496SOL     OW59384  12.941   3.328   7.262
52496SOL    HW159385  12.973   3.249   7.306
52496SOL    HW259386  12.939   3.394   7.331
52497SOL     OW59387  12.444   0.149   8.141
52497SOL    HW159388  12.435   0.114   8.052
52497SOL    HW259389  12.413   0.078   8.198
52498SOL     OW59390  10.928   8.646   1.293
52498SOL    HW159391  10.945   8.606   1.207
52498SOL    HW259392  10.906   8.572   1.350
52499SOL     OW59393   5.337   6.923   8.064
52499SOL    HW159394   5.394   6.886   8.131
52499SOL    HW259395   5.271   6.973   8.113
52500SOL     OW59396  13.091  11.429   7.425
52500SOL    HW159397  13.075  11.458   7.335
52500SOL    HW259398  13.057  11.340   7.427
52501SOL     OW59399   8.473   8.855   2.302
52501SOL    HW159400   8.484   8.817   2.214
52501SOL    HW259401   8.523   8.798   2.359
52502SOL     OW59402  12.402   1.985  14.401
52502SOL    HW159403  12.312   1.989  14.434
52502SOL    HW259404  12.396   1.935  14.320
52503SOL     OW59405  10.838   9.230  12.665
52503SOL    HW159406  10.808   9.167  12.599
52503SOL    HW259407  10.931   9.210  12.676
52504SOL     OW59408   9.645   5.772   9.963
52504SOL    HW159409   9.620   5.679   9.966
52504SOL    HW259410   9.563   5.819   9.957
52505SOL     OW59411   4.178   0.720  11.803
52505SOL    HW159412   4.194   0.756  11.715
52505SOL    HW259413   4.258   0.742  11.852
52506SOL     OW59414   0.746  14.451  10.952
52506SOL    HW159415   0.669  14.395  10.962
52506SOL    HW259416   0.791  14.446  11.037
52507SOL     OW59417  13.095   2.281  13.510
52507SOL    HW159418  13.041   2.334  13.569
52507SOL    HW259419  13.075   2.314  13.422
52508SOL     OW59420   4.426  13.160   7.895
52508SOL    HW159421   4.488  13.137   7.826
52508SOL    HW259422   4.377  13.080   7.910
52509SOL     OW59423   6.721   9.210   7.409
52509SOL    HW159424   6.771   9.249   7.480
52509SOL    HW259425   6.632   9.201   7.445
52510SOL     OW59426   2.377   7.697   3.497
52510SOL    HW159427   2.329   7.700   3.414
52510SOL    HW259428   2.339   7.623   3.544
52511SOL     OW59429   3.445  11.962   0.896
52511SOL    HW159430   3.525  12.008   0.870
52511SOL    HW259431   3.476  11.874   0.921
52512SOL     OW59432   4.373  10.884   5.309
52512SOL    HW159433   4.397  10.869   5.401
52512SOL    HW259434   4.453  10.916   5.269
52513SOL     OW59435   7.393  14.468  10.543
52513SOL    HW159436   7.467  14.521  10.516
52513SOL    HW259437   7.390  14.477  10.638
52514SOL     OW59438   5.916   5.707   6.286
52514SOL    HW159439   5.957   5.758   6.355
52514SOL    HW259440   5.941   5.617   6.305
52515SOL     OW59441   7.228  11.220   8.338
52515SOL    HW159442   7.139  11.228   8.302
52515SOL    HW259443   7.266  11.307   8.329
52516SOL     OW59444   9.119  13.099   3.377
52516SOL    HW159445   9.033  13.061   3.360
52516SOL    HW259446   9.105  13.155   3.454
52517SOL     OW59447   0.546   7.847   7.255
52517SOL    HW159448   0.594   7.792   7.195
52517SOL    HW259449   0.480   7.789   7.294
52518SOL     OW59450  13.940  13.033   9.650
52518SOL    HW159451  13.948  13.116   9.698
52518SOL    HW259452  13.861  12.992   9.685
52519SOL     OW59453   9.333   6.340   2.063
52519SOL    HW159454   9.428   6.340   2.048
52519SOL    HW259455   9.299   6.408   2.004
52520SOL     OW59456   9.856   4.377   4.481
52520SOL    HW159457   9.781   4.418   4.526
52520SOL    HW259458   9.818   4.303   4.434
52521SOL     OW59459   1.959   7.409  12.416
52521SOL    HW159460   1.874   7.419  12.461
52521SOL    HW259461   1.937   7.371  12.331
52522SOL     OW59462   7.020   2.779   5.202
52522SOL    HW159463   7.090   2.753   5.142
52522SOL    HW259464   6.943   2.733   5.169
52523SOL     OW59465  11.144   1.066   5.377
52523SOL    HW159466  11.204   1.042   5.448
52523SOL    HW259467  11.068   1.008   5.390
52524SOL     OW59468   5.928  14.045   0.681
52524SOL    HW159469   5.961  13.991   0.609
52524SOL    HW259470   5.986  14.024   0.755
52525SOL     OW59471   3.475  13.156   3.152
52525SOL    HW159472   3.438  13.098   3.219
52525SOL    HW259473   3.419  13.144   3.076
52526SOL     OW59474   3.305  11.915   6.489
52526SOL    HW159475   3.313  11.855   6.415
52526SOL    HW259476   3.342  11.866   6.563
52527SOL     OW59477  13.592   1.897   6.221
52527SOL    HW159478  13.514   1.924   6.171
52527SOL    HW259479  13.665   1.916   6.162
52528SOL     OW59480   8.906   4.238  11.924
52528SOL    HW159481   8.968   4.166  11.925
52528SOL    HW259482   8.922   4.283  11.842
52529SOL     OW59483   1.238   1.013  11.310
52529SOL    HW159484   1.186   1.080  11.266
52529SOL    HW259485   1.218   0.932  11.264
52530SOL     OW59486   7.308  13.428   8.510
52530SOL    HW159487   7.253  13.475   8.573
52530SOL    HW259488   7.354  13.496   8.462
52531SOL     OW59489   0.544  12.718  11.912
52531SOL    HW159490   0.564  12.653  11.980
52531SOL    HW259491   0.495  12.786  11.958
52532SOL     OW59492   3.697   6.634   2.485
52532SOL    HW159493   3.733   6.585   2.411
52532SOL    HW259494   3.648   6.569   2.535
52533SOL     OW59495   8.037   9.614  13.687
52533SOL    HW159496   7.960   9.587  13.739
52533SOL    HW259497   8.004   9.683  13.630
52534SOL     OW59498   1.369   0.486   4.273
52534SOL    HW159499   1.359   0.413   4.334
52534SOL    HW259500   1.361   0.445   4.186
52535SOL     OW59501   4.301   6.712  13.121
52535SOL    HW159502   4.231   6.777  13.114
52535SOL    HW259503   4.328   6.716  13.212
52536SOL     OW59504   6.943   4.807   8.014
52536SOL    HW159505   7.030   4.826   8.049
52536SOL    HW259506   6.896   4.890   8.020
52537SOL     OW59507  14.359   2.561   6.440
52537SOL    HW159508  14.294   2.509   6.393
52537SOL    HW259509  14.422   2.497   6.472
52538SOL     OW59510  10.504   8.677   0.333
52538SOL    HW159511  10.599   8.678   0.349
52538SOL    HW259512  10.481   8.584   0.333
52539SOL     OW59513   8.146  10.175  11.712
52539SOL    HW159514   8.084  10.130  11.655
52539SOL    HW259515   8.226  10.123  11.708
52540SOL     OW59516   1.188   1.896   6.601
52540SOL    HW159517   1.159   1.955   6.531
52540SOL    HW259518   1.137   1.816   6.588
52541SOL     OW59519  10.657   4.927   4.125
52541SOL    HW159520  10.633   4.835   4.126
52541SOL    HW259521  10.592   4.970   4.180
52542SOL     OW59522  11.944  14.704   3.326
52542SOL    HW159523  12.006  14.724   3.397
52542SOL    HW259524  11.996  14.713   3.246
52543SOL     OW59525   7.764  13.750  11.450
52543SOL    HW159526   7.825  13.688  11.410
52543SOL    HW259527   7.769  13.828  11.394
52544SOL     OW59528   3.271   7.905   8.412
52544SOL    HW159529   3.219   7.862   8.480
52544SOL    HW259530   3.317   7.975   8.458
52545SOL     OW59531   8.516   7.092   2.841
52545SOL    HW159532   8.509   6.999   2.820
52545SOL    HW259533   8.504   7.137   2.758
52546SOL     OW59534   5.194   5.920   7.649
52546SOL    HW159535   5.158   5.852   7.706
52546SOL    HW259536   5.283   5.892   7.629
52547SOL     OW59537   9.398  11.455  12.310
52547SOL    HW159538   9.494  11.457  12.302
52547SOL    HW259539   9.375  11.364  12.290
52548SOL     OW59540   9.845   6.803   9.183
52548SOL    HW159541   9.761   6.763   9.161
52548SOL    HW259542   9.824   6.895   9.200
52549SOL     OW59543   7.791   4.820   4.494
52549SOL    HW159544   7.837   4.902   4.475
52549SOL    HW259545   7.731   4.842   4.566
52550SOL     OW59546   1.878   0.051   5.518
52550SOL    HW159547   1.893   0.143   5.538
52550SOL    HW259548   1.783   0.041   5.521
52551SOL     OW59549   3.319   0.299   4.735
52551SOL    HW159550   3.228   0.277   4.753
52551SOL    HW259551   3.322   0.311   4.640
52552SOL     OW59552   7.093   1.774   5.906
52552SOL    HW159553   7.009   1.788   5.862
52552SOL    HW259554   7.157   1.776   5.835
52553SOL     OW59555  11.801  11.272   1.876
52553SOL    HW159556  11.782  11.227   1.959
52553SOL    HW259557  11.819  11.202   1.814
52554SOL     OW59558   4.386   1.824   2.219
52554SOL    HW159559   4.472   1.782   2.223
52554SOL    HW259560   4.324   1.756   2.243
52555SOL     OW59561   4.785   7.999   9.311
52555SOL    HW159562   4.760   8.050   9.388
52555SOL    HW259563   4.738   8.042   9.239
52556SOL     OW59564  14.331   7.742  14.352
52556SOL    HW159565  14.337   7.836  14.336
52556SOL    HW259566  14.238   7.725  14.366
52557SOL     OW59567  12.819   8.552   7.222
52557SOL    HW159568  12.775   8.586   7.144
52557SOL    HW259569  12.842   8.462   7.199
52558SOL     OW59570   3.100  11.465   6.152
52558SOL    HW159571   3.057  11.389   6.111
52558SOL    HW259572   3.186  11.468   6.111
52559SOL     OW59573   0.453   3.128   0.161
52559SOL    HW159574   0.501   3.051   0.129
52559SOL    HW259575   0.472   3.197   0.097
52560SOL     OW59576   1.719   0.674   6.337
52560SOL    HW159577   1.764   0.745   6.292
52560SOL    HW259578   1.719   0.700   6.429
52561SOL     OW59579   7.217   4.662   7.815
52561SOL    HW159580   7.256   4.703   7.893
52561SOL    HW259581   7.238   4.569   7.824
52562SOL     OW59582   8.377  14.060   2.690
52562SOL    HW159583   8.396  14.115   2.766
52562SOL    HW259584   8.414  13.975   2.712
52563SOL     OW59585   2.962   5.986  11.100
52563SOL    HW159586   3.017   6.060  11.126
52563SOL    HW259587   2.999   5.956  11.017
52564SOL     OW59588   9.878   2.344   2.543
52564SOL    HW159589   9.820   2.271   2.565
52564SOL    HW259590   9.906   2.378   2.628
52565SOL     OW59591   3.031   9.620   1.625
52565SOL    HW159592   3.115   9.585   1.656
52565SOL    HW259593   3.055   9.691   1.565
52566SOL     OW59594   6.268   2.601   0.477
52566SOL    HW159595   6.183   2.557   0.469
52566SOL    HW259596   6.332   2.530   0.475
52567SOL     OW59597   2.706   4.611  12.775
52567SOL    HW159598   2.698   4.696  12.732
52567SOL    HW259599   2.618   4.573  12.771
52568SOL     OW59600   2.584   1.791   5.393
52568SOL    HW159601   2.579   1.728   5.465
52568SOL    HW259602   2.542   1.747   5.320
52569SOL     OW59603   5.748  10.916  13.566
52569SOL    HW159604   5.688  10.943  13.636
52569SOL    HW259605   5.709  10.950  13.486
52570SOL     OW59606  13.427   5.300   5.773
52570SOL    HW159607  13.406   5.394   5.770
52570SOL    HW259608  13.410   5.275   5.864
52571SOL     OW59609   6.086  12.100   9.036
52571SOL    HW159610   6.027  12.098   8.960
52571SOL    HW259611   6.172  12.122   8.999
52572SOL     OW59612   3.780   6.713   8.133
52572SOL    HW159613   3.773   6.618   8.126
52572SOL    HW259614   3.743   6.733   8.219
52573SOL     OW59615   0.851   1.583   4.781
52573SOL    HW159616   0.913   1.646   4.819
52573SOL    HW259617   0.892   1.498   4.794
52574SOL     OW59618   6.643   6.315   4.643
52574SOL    HW159619   6.611   6.226   4.633
52574SOL    HW259620   6.692   6.333   4.563
52575SOL     OW59621   8.640  11.405   8.129
52575SOL    HW159622   8.673  11.332   8.181
52575SOL    HW259623   8.688  11.482   8.161
52576SOL     OW59624   4.860  12.764   3.332
52576SOL    HW159625   4.840  12.844   3.283
52576SOL    HW259626   4.922  12.792   3.399
52577SOL     OW59627  14.011  14.365   9.992
52577SOL    HW159628  14.088  14.419   9.975
52577SOL    HW259629  14.000  14.313   9.912
52578SOL     OW59630   7.598   8.150  11.057
52578SOL    HW159631   7.581   8.234  11.100
52578SOL    HW259632   7.512   8.121  11.027
52579SOL     OW59633   8.562  12.430   6.780
52579SOL    HW159634   8.622  12.356   6.773
52579SOL    HW259635   8.479  12.390   6.807
52580SOL     OW59636  13.994   8.295   2.453
52580SOL    HW159637  13.928   8.356   2.422
52580SOL    HW259638  13.970   8.277   2.544
52581SOL     OW59639  11.636  13.944   6.154
52581SOL    HW159640  11.615  13.983   6.069
52581SOL    HW259641  11.554  13.949   6.204
52582SOL     OW59642   4.121   4.302   2.951
52582SOL    HW159643   4.104   4.386   2.908
52582SOL    HW259644   4.043   4.250   2.935
52583SOL     OW59645   3.592  12.024   4.293
52583SOL    HW159646   3.638  12.067   4.221
52583SOL    HW259647   3.635  11.939   4.300
52584SOL     OW59648  12.087   0.321  13.648
52584SOL    HW159649  12.021   0.256  13.675
52584SOL    HW259650  12.094   0.380  13.723
52585SOL     OW59651   4.743   4.726   2.449
52585SOL    HW159652   4.724   4.639   2.413
52585SOL    HW259653   4.658   4.768   2.457
52586SOL     OW59654   0.582   4.277   5.320
52586SOL    HW159655   0.492   4.286   5.349
52586SOL    HW259656   0.582   4.198   5.265
52587SOL     OW59657   4.573  10.961  12.681
52587SOL    HW159658   4.571  10.867  12.664
52587SOL    HW259659   4.665  10.985  12.671
52588SOL     OW59660   2.481   9.630  10.931
52588SOL    HW159661   2.546   9.700  10.923
52588SOL    HW259662   2.527   9.551  10.901
52589SOL     OW59663   8.202  12.306   0.144
52589SOL    HW159664   8.112  12.287   0.119
52589SOL    HW259665   8.213  12.399   0.126
52590SOL     OW59666   2.815  12.942   7.576
52590SOL    HW159667   2.830  13.030   7.542
52590SOL    HW259668   2.757  12.955   7.652
52591SOL     OW59669   7.097   3.155   0.057
52591SOL    HW159670   7.079   3.236   0.009
52591SOL    HW259671   7.136   3.097  14.869
52592SOL     OW59672   5.300  11.884   3.139
52592SOL    HW159673   5.324  11.812   3.197
52592SOL    HW259674   5.235  11.847   3.079
52593SOL     OW59675   0.184  10.664  12.828
52593SOL    HW159676   0.258  10.716  12.796
52593SOL    HW259677   0.127  10.655  12.751
52594SOL     OW59678   5.286   6.752   4.523
52594SOL    HW159679   5.267   6.709   4.606
52594SOL    HW259680   5.323   6.682   4.468
52595SOL     OW59681   0.671  11.026   6.668
52595SOL    HW159682   0.598  11.079   6.701
52595SOL    HW259683   0.739  11.090   6.647
52596SOL     OW59684  10.657   7.764   3.515
52596SOL    HW159685  10.700   7.842   3.549
52596SOL    HW259686  10.577   7.797   3.473
52597SOL     OW59687   5.638  10.151  11.412
52597SOL    HW159688   5.733  10.137  11.408
52597SOL    HW259689   5.601  10.063  11.404
52598SOL     OW59690  13.675  14.664   3.239
52598SOL    HW159691  13.741  14.676   3.170
52598SOL    HW259692  13.636  14.578   3.219
52599SOL     OW59693   3.648   5.496   7.924
52599SOL    HW159694   3.635   5.589   7.905
52599SOL    HW259695   3.666   5.456   7.838
52600SOL     OW59696   8.015  10.926  10.319
52600SOL    HW159697   8.085  10.912  10.382
52600SOL    HW259698   7.987  10.838  10.293
52601SOL     OW59699   5.626  10.335  10.300
52601SOL    HW159700   5.546  10.315  10.349
52601SOL    HW259701   5.697  10.317  10.361
52602SOL     OW59702   9.380   8.226  10.554
52602SOL    HW159703   9.472   8.238  10.530
52602SOL    HW259704   9.383   8.176  10.636
52603SOL     OW59705   3.476   0.753  10.059
52603SOL    HW159706   3.397   0.805  10.066
52603SOL    HW259707   3.506   0.768   9.969
52604SOL     OW59708  10.525  11.466  10.959
52604SOL    HW159709  10.489  11.554  10.963
52604SOL    HW259710  10.481  11.419  11.030
52605SOL     OW59711  14.627   6.725  13.925
52605SOL    HW159712  14.653   6.728  14.017
52605SOL    HW259713  14.680   6.655  13.888
52606SOL     OW59714   8.140  14.774   8.697
52606SOL    HW159715   8.235  14.765   8.690
52606SOL    HW259716   8.115  14.825   8.619
52607SOL     OW59717   3.727   6.075   1.219
52607SOL    HW159718   3.741   6.031   1.135
52607SOL    HW259719   3.724   6.004   1.283
52608SOL     OW59720  11.376   3.821  12.847
52608SOL    HW159721  11.330   3.773  12.916
52608SOL    HW259722  11.337   3.790  12.766
52609SOL     OW59723  10.353   8.821   8.219
52609SOL    HW159724  10.280   8.876   8.246
52609SOL    HW259725  10.373   8.768   8.296
52610SOL     OW59726   8.813   4.973   0.822
52610SOL    HW159727   8.873   4.925   0.765
52610SOL    HW259728   8.862   5.052   0.847
52611SOL     OW59729   7.593   9.020  10.772
52611SOL    HW159730   7.601   9.048  10.681
52611SOL    HW259731   7.568   8.928  10.767
52612SOL     OW59732   2.287   1.109  10.592
52612SOL    HW159733   2.265   1.040  10.529
52612SOL    HW259734   2.317   1.182  10.538
52613SOL     OW59735  12.647  14.638  11.464
52613SOL    HW159736  12.686  14.557  11.496
52613SOL    HW259737  12.717  14.704  11.473
52614SOL     OW59738   7.294   6.533   0.820
52614SOL    HW159739   7.267   6.597   0.754
52614SOL    HW259740   7.387   6.551   0.835
52615SOL     OW59741  13.812  13.837   2.738
52615SOL    HW159742  13.885  13.858   2.679
52615SOL    HW259743  13.843  13.864   2.825
52616SOL     OW59744   6.090   9.382   3.531
52616SOL    HW159745   6.156   9.314   3.545
52616SOL    HW259746   6.038   9.350   3.458
52617SOL     OW59747   6.527  13.189   8.505
52617SOL    HW159748   6.525  13.112   8.448
52617SOL    HW259749   6.494  13.158   8.589
52618SOL     OW59750  12.699   1.777   3.803
52618SOL    HW159751  12.713   1.696   3.755
52618SOL    HW259752  12.773   1.832   3.779
52619SOL     OW59753  10.619   5.652   4.638
52619SOL    HW159754  10.680   5.716   4.673
52619SOL    HW259755  10.541   5.661   4.692
52620SOL     OW59756   2.437  10.024   4.427
52620SOL    HW159757   2.377  10.096   4.445
52620SOL    HW259758   2.418   9.998   4.337
52621SOL     OW59759   1.826   9.246  14.393
52621SOL    HW159760   1.867   9.205  14.317
52621SOL    HW259761   1.742   9.279  14.361
52622SOL     OW59762   9.139  13.066   8.803
52622SOL    HW159763   9.139  13.035   8.712
52622SOL    HW259764   9.062  13.122   8.808
52623SOL     OW59765  14.472   1.425   9.924
52623SOL    HW159766  14.565   1.427   9.948
52623SOL    HW259767  14.469   1.459   9.834
52624SOL     OW59768   2.195   3.034  12.724
52624SOL    HW159769   2.137   3.058  12.796
52624SOL    HW259770   2.271   3.090  12.734
52625SOL     OW59771  14.207   6.892   4.026
52625SOL    HW159772  14.256   6.967   4.060
52625SOL    HW259773  14.179   6.918   3.939
52626SOL     OW59774   4.041  14.305  13.395
52626SOL    HW159775   4.052  14.400  13.386
52626SOL    HW259776   3.950  14.289  13.369
52627SOL     OW59777  11.361   6.049   7.255
52627SOL    HW159778  11.395   6.107   7.187
52627SOL    HW259779  11.392   5.962   7.230
52628SOL     OW59780  12.874  10.326   0.540
52628SOL    HW159781  12.865  10.248   0.485
52628SOL    HW259782  12.903  10.292   0.625
52629SOL     OW59783   2.051   2.564   7.842
52629SOL    HW159784   2.065   2.535   7.932
52629SOL    HW259785   2.137   2.559   7.801
52630SOL     OW59786  13.909  10.434   9.737
52630SOL    HW159787  13.867  10.349   9.725
52630SOL    HW259788  13.861  10.493   9.678
52631SOL     OW59789  14.145   6.380  11.820
52631SOL    HW159790  14.157   6.411  11.731
52631SOL    HW259791  14.052   6.391  11.838
52632SOL     OW59792  10.713   8.220  10.517
52632SOL    HW159793  10.801   8.256  10.534
52632SOL    HW259794  10.692   8.251  10.429
52633SOL     OW59795   5.673  11.997   4.564
52633SOL    HW159796   5.663  12.092   4.573
52633SOL    HW259797   5.631  11.976   4.480
52634SOL     OW59798   6.321   8.920   3.377
52634SOL    HW159799   6.391   8.905   3.314
52634SOL    HW259800   6.335   8.854   3.445
52635SOL     OW59801   0.109  14.044   0.464
52635SOL    HW159802   0.134  14.130   0.430
52635SOL    HW259803   0.044  14.012   0.402
52636SOL     OW59804  11.620   1.129   4.183
52636SOL    HW159805  11.602   1.157   4.273
52636SOL    HW259806  11.644   1.209   4.137
52637SOL     OW59807   1.112   5.417  12.218
52637SOL    HW159808   1.202   5.446  12.233
52637SOL    HW259809   1.075   5.483  12.158
52638SOL     OW59810   7.417  10.635  10.470
52638SOL    HW159811   7.426  10.675  10.384
52638SOL    HW259812   7.471  10.688  10.528
52639SOL     OW59813   7.060   6.979  13.830
52639SOL    HW159814   7.044   6.943  13.917
52639SOL    HW259815   7.152   7.004  13.831
52640SOL     OW59816   6.917  12.846   9.903
52640SOL    HW159817   6.960  12.828   9.987
52640SOL    HW259818   6.941  12.773   9.847
52641SOL     OW59819   6.593   9.269   8.138
52641SOL    HW159820   6.586   9.177   8.163
52641SOL    HW259821   6.536   9.315   8.200
52642SOL     OW59822   3.461   4.830   9.655
52642SOL    HW159823   3.392   4.793   9.710
52642SOL    HW259824   3.488   4.910   9.701
52643SOL     OW59825   2.541  10.670   9.648
52643SOL    HW159826   2.473  10.602   9.642
52643SOL    HW259827   2.568  10.669   9.740
52644SOL     OW59828   8.735   9.036   1.075
52644SOL    HW159829   8.744   8.940   1.076
52644SOL    HW259830   8.810   9.067   1.126
52645SOL     OW59831   3.570   3.526   2.152
52645SOL    HW159832   3.503   3.474   2.108
52645SOL    HW259833   3.631   3.550   2.083
52646SOL     OW59834   9.670   1.904  12.954
52646SOL    HW159835   9.674   1.809  12.966
52646SOL    HW259836   9.739   1.938  13.011
52647SOL     OW59837   6.262   7.725   3.110
52647SOL    HW159838   6.336   7.667   3.125
52647SOL    HW259839   6.294   7.812   3.135
52648SOL     OW59840  11.387  10.272  12.245
52648SOL    HW159841  11.473  10.235  12.266
52648SOL    HW259842  11.406  10.344  12.185
52649SOL     OW59843   1.119   0.241  14.278
52649SOL    HW159844   1.052   0.223  14.213
52649SOL    HW259845   1.076   0.226  14.362
52650SOL     OW59846   9.890   7.483   2.802
52650SOL    HW159847   9.804   7.475   2.841
52650SOL    HW259848   9.877   7.543   2.728
52651SOL     OW59849  12.395   8.993   5.655
52651SOL    HW159850  12.350   9.052   5.715
52651SOL    HW259851  12.426   8.921   5.710
52652SOL     OW59852  11.083   4.324   7.388
52652SOL    HW159853  11.007   4.382   7.399
52652SOL    HW259854  11.046   4.236   7.386
52653SOL     OW59855   4.497   3.334   2.132
52653SOL    HW159856   4.482   3.250   2.089
52653SOL    HW259857   4.488   3.315   2.226
52654SOL     OW59858   9.994   1.629  13.953
52654SOL    HW159859   9.915   1.616  14.007
52654SOL    HW259860  10.024   1.717  13.976
52655SOL     OW59861   1.502   7.801   1.257
52655SOL    HW159862   1.409   7.781   1.247
52655SOL    HW259863   1.546   7.718   1.238
52656SOL     OW59864   8.020   4.407   6.121
52656SOL    HW159865   8.053   4.495   6.104
52656SOL    HW259866   7.933   4.405   6.083
52657SOL     OW59867  13.178   8.665   8.784
52657SOL    HW159868  13.104   8.612   8.812
52657SOL    HW259869  13.165   8.749   8.828
52658SOL     OW59870   9.589   6.956   5.546
52658SOL    HW159871   9.535   6.958   5.624
52658SOL    HW259872   9.604   7.049   5.525
52659SOL     OW59873   8.221   0.408   2.684
52659SOL    HW159874   8.190   0.327   2.645
52659SOL    HW259875   8.169   0.418   2.764
52660SOL     OW59876   3.132  10.511   0.853
52660SOL    HW159877   3.049  10.540   0.890
52660SOL    HW259878   3.198  10.565   0.896
52661SOL     OW59879   4.419   6.322   0.870
52661SOL    HW159880   4.448   6.361   0.953
52661SOL    HW259881   4.415   6.228   0.888
52662SOL     OW59882   9.322   7.032   9.541
52662SOL    HW159883   9.317   6.940   9.566
52662SOL    HW259884   9.351   7.077   9.621
52663SOL     OW59885  10.321   0.293   6.496
52663SOL    HW159886  10.278   0.359   6.442
52663SOL    HW259887  10.393   0.262   6.441
52664SOL     OW59888   1.134   1.106   5.647
52664SOL    HW159889   1.061   1.150   5.604
52664SOL    HW259890   1.201   1.098   5.579
52665SOL     OW59891   5.812  11.622   8.057
52665SOL    HW159892   5.814  11.546   8.115
52665SOL    HW259893   5.766  11.689   8.107
52666SOL     OW59894   7.401   3.872   2.989
52666SOL    HW159895   7.323   3.871   2.933
52666SOL    HW259896   7.374   3.919   3.068
52667SOL     OW59897   0.989  14.457  10.691
52667SOL    HW159898   0.946  14.376  10.662
52667SOL    HW259899   1.081  14.432  10.703
52668SOL     OW59900  11.168   4.126   1.335
52668SOL    HW159901  11.248   4.176   1.324
52668SOL    HW259902  11.159   4.075   1.255
52669SOL     OW59903  14.831  12.003   0.682
52669SOL    HW159904  14.768  12.047   0.625
52669SOL    HW259905  14.818  11.909   0.665
52670SOL     OW59906   8.236   9.141  11.867
52670SOL    HW159907   8.235   9.102  11.954
52670SOL    HW259908   8.261   9.070  11.809
52671SOL     OW59909  13.294   8.070  10.330
52671SOL    HW159910  13.312   8.008  10.401
52671SOL    HW259911  13.343   8.036  10.255
52672SOL     OW59912   2.033  13.546  12.145
52672SOL    HW159913   1.988  13.624  12.114
52672SOL    HW259914   1.975  13.473  12.122
52673SOL     OW59915   7.814   1.994   9.790
52673SOL    HW159916   7.793   1.976   9.882
52673SOL    HW259917   7.730   1.984   9.744
52674SOL     OW59918  14.874  11.852   0.387
52674SOL    HW159919   0.052  11.930   0.392
52674SOL    HW259920   0.056  11.783   0.357
52675SOL     OW59921  11.319   3.094  13.437
52675SOL    HW159922  11.412   3.109  13.451
52675SOL    HW259923  11.315   3.009  13.392
52676SOL     OW59924   8.808   1.063  12.069
52676SOL    HW159925   8.722   1.053  12.108
52676SOL    HW259926   8.810   1.000  11.997
52677SOL     OW59927   3.269  13.063   8.326
52677SOL    HW159928   3.268  12.968   8.312
52677SOL    HW259929   3.239  13.100   8.243
52678SOL     OW59930   0.837   9.055   7.251
52678SOL    HW159931   0.795   9.108   7.320
52678SOL    HW259932   0.836   8.966   7.287
52679SOL     OW59933   7.631   0.474   6.586
52679SOL    HW159934   7.710   0.525   6.604
52679SOL    HW259935   7.597   0.450   6.672
52680SOL     OW59936   2.613  13.081   7.761
52680SOL    HW159937   2.695  13.103   7.805
52680SOL    HW259938   2.545  13.125   7.814
52681SOL     OW59939  11.695  14.726   3.193
52681SOL    HW159940  11.706  14.801   3.133
52681SOL    HW259941  11.774  14.727   3.247
52682SOL     OW59942   4.807   5.494  12.256
52682SOL    HW159943   4.874   5.481  12.324
52682SOL    HW259944   4.735   5.436  12.282
52683SOL     OW59945  13.837  10.711   0.027
52683SOL    HW159946  13.755  10.677   0.063
52683SOL    HW259947  13.837  10.804   0.050
52684SOL     OW59948   3.821   9.587  10.218
52684SOL    HW159949   3.804   9.492  10.221
52684SOL    HW259950   3.765   9.618  10.146
52685SOL     OW59951  12.951   8.401   1.201
52685SOL    HW159952  12.862   8.380   1.232
52685SOL    HW259953  12.938   8.462   1.129
52686SOL     OW59954  11.452   9.130   2.654
52686SOL    HW159955  11.470   9.152   2.562
52686SOL    HW259956  11.456   9.034   2.656
52687SOL     OW59957  10.629   4.881   5.015
52687SOL    HW159958  10.585   4.966   5.020
52687SOL    HW259959  10.560   4.820   4.989
52688SOL     OW59960   9.406  10.647   6.796
52688SOL    HW159961   9.476  10.581   6.792
52688SOL    HW259962   9.403  10.673   6.888
52689SOL     OW59963  11.137  13.431  10.336
52689SOL    HW159964  11.054  13.441  10.383
52689SOL    HW259965  11.154  13.337  10.338
52690SOL     OW59966   1.572   8.460  12.446
52690SOL    HW159967   1.478   8.452  12.458
52690SOL    HW259968   1.602   8.514  12.520
52691SOL     OW59969  10.649   2.686   9.065
52691SOL    HW159970  10.626   2.709   8.975
52691SOL    HW259971  10.598   2.607   9.084
52692SOL     OW59972   5.930   7.213   0.135
52692SOL    HW159973   5.842   7.177   0.140
52692SOL    HW259974   5.918   7.307   0.149
52693SOL     OW59975   2.861   9.894  14.562
52693SOL    HW159976   2.876   9.827  14.495
52693SOL    HW259977   2.863   9.977  14.513
52694SOL     OW59978   5.000   5.066  12.636
52694SOL    HW159979   5.085   5.081  12.678
52694SOL    HW259980   4.938   5.062  12.709
52695SOL     OW59981  11.434   5.927   6.134
52695SOL    HW159982  11.520   5.965   6.148
52695SOL    HW259983  11.378   6.001   6.112
52696SOL     OW59984  13.209   2.378   5.030
52696SOL    HW159985  13.268   2.383   5.105
52696SOL    HW259986  13.265   2.393   4.954
52697SOL     OW59987   9.872   7.471   0.013
52697SOL    HW159988   9.789   7.444   0.052
52697SOL    HW259989   9.849   7.502  14.803
52698SOL     OW59990   0.606  11.083   5.630
52698SOL    HW159991   0.700  11.077   5.648
52698SOL    HW259992   0.568  11.007   5.674
52699SOL     OW59993   4.071  12.437   4.330
52699SOL    HW159994   3.977  12.440   4.316
52699SOL    HW259995   4.108  12.461   4.245
52700SOL     OW59996   6.440  11.203  11.312
52700SOL    HW159997   6.470  11.289  11.281
52700SOL    HW259998   6.396  11.222  11.395
52701SOL     OW59999   8.063   0.945   9.373
52701SOL    HW160000   8.006   0.927   9.299
52701SOL    HW260001   8.126   0.872   9.373
52702SOL     OW60002   8.694   7.932  11.620
52702SOL    HW160003   8.645   7.885  11.688
52702SOL    HW260004   8.778   7.888  11.617
52703SOL     OW60005   1.765  12.935   0.580
52703SOL    HW160006   1.840  12.993   0.592
52703SOL    HW260007   1.707  12.957   0.653
52704SOL     OW60008   3.738  11.549   0.575
52704SOL    HW160009   3.746  11.641   0.548
52704SOL    HW260010   3.652  11.522   0.543
52705SOL     OW60011   6.117   6.015   5.406
52705SOL    HW160012   6.058   6.002   5.479
52705SOL    HW260013   6.192   5.960   5.425
52706SOL     OW60014   3.297  11.430   9.389
52706SOL    HW160015   3.348  11.507   9.412
52706SOL    HW260016   3.361  11.361   9.373
52707SOL     OW60017   3.601   2.288   3.577
52707SOL    HW160018   3.534   2.262   3.514
52707SOL    HW260019   3.553   2.336   3.645
52708SOL     OW60020   6.659   2.952   9.423
52708SOL    HW160021   6.575   2.906   9.425
52708SOL    HW260022   6.644   3.027   9.366
52709SOL     OW60023  12.196   8.743  14.371
52709SOL    HW160024  12.249   8.797  14.312
52709SOL    HW260025  12.260   8.692  14.421
52710SOL     OW60026   4.922  12.975   3.160
52710SOL    HW160027   4.949  13.044   3.099
52710SOL    HW260028   4.874  13.020   3.229
52711SOL     OW60029   2.952  10.979   0.326
52711SOL    HW160030   2.994  11.030   0.257
52711SOL    HW260031   2.865  11.017   0.336
52712SOL     OW60032  13.907  11.567   2.163
52712SOL    HW160033  13.886  11.623   2.088
52712SOL    HW260034  13.951  11.626   2.225
52713SOL     OW60035   1.096   3.545  13.511
52713SOL    HW160036   1.101   3.512  13.421
52713SOL    HW260037   1.015   3.507  13.545
52714SOL     OW60038  12.297   8.329   4.634
52714SOL    HW160039  12.365   8.347   4.569
52714SOL    HW260040  12.232   8.277   4.587
52715SOL     OW60041   4.475  13.839   7.971
52715SOL    HW160042   4.560  13.881   7.957
52715SOL    HW260043   4.479  13.806   8.060
52716SOL     OW60044  10.397   5.317   2.720
52716SOL    HW160045  10.460   5.320   2.792
52716SOL    HW260046  10.348   5.236   2.735
52717SOL     OW60047   5.448   3.916   1.187
52717SOL    HW160048   5.484   3.891   1.102
52717SOL    HW260049   5.520   3.901   1.248
52718SOL     OW60050   5.093   0.386   5.644
52718SOL    HW160051   5.052   0.473   5.648
52718SOL    HW260052   5.026   0.330   5.603
52719SOL     OW60053  14.185   3.984   8.205
52719SOL    HW160054  14.243   4.022   8.138
52719SOL    HW260055  14.189   4.046   8.278
52720SOL     OW60056   6.543  12.911   3.599
52720SOL    HW160057   6.488  12.858   3.656
52720SOL    HW260058   6.489  12.986   3.576
52721SOL     OW60059  11.575  12.316   3.445
52721SOL    HW160060  11.536  12.255   3.382
52721SOL    HW260061  11.658  12.275   3.469
52722SOL     OW60062   4.239   2.239   7.548
52722SOL    HW160063   4.285   2.246   7.631
52722SOL    HW260064   4.154   2.281   7.564
52723SOL     OW60065   2.430   1.561   8.379
52723SOL    HW160066   2.499   1.534   8.317
52723SOL    HW260067   2.368   1.488   8.379
52724SOL     OW60068   9.027   2.570  12.221
52724SOL    HW160069   9.086   2.543  12.292
52724SOL    HW260070   8.973   2.492  12.205
52725SOL     OW60071  12.324   5.056   5.556
52725SOL    HW160072  12.260   5.111   5.601
52725SOL    HW260073  12.344   4.986   5.618
52726SOL     OW60074   1.036  13.709   2.546
52726SOL    HW160075   1.069  13.728   2.459
52726SOL    HW260076   1.115  13.696   2.599
52727SOL     OW60077   3.470   1.669  10.886
52727SOL    HW160078   3.487   1.694  10.978
52727SOL    HW260079   3.542   1.609  10.865
52728SOL     OW60080   5.384   5.305   6.056
52728SOL    HW160081   5.396   5.365   5.983
52728SOL    HW260082   5.371   5.220   6.016
52729SOL     OW60083   9.527   5.541  10.526
52729SOL    HW160084   9.577   5.547  10.608
52729SOL    HW260085   9.440   5.512  10.554
52730SOL     OW60086  12.268   1.384   7.306
52730SOL    HW160087  12.345   1.422   7.263
52730SOL    HW260088  12.286   1.391   7.399
52731SOL     OW60089   8.772  12.317   7.402
52731SOL    HW160090   8.864  12.313   7.377
52731SOL    HW260091   8.752  12.411   7.409
52732SOL     OW60092   9.012  12.508   1.192
52732SOL    HW160093   9.034  12.592   1.151
52732SOL    HW260094   8.946  12.470   1.134
52733SOL     OW60095  12.878  12.009   0.152
52733SOL    HW160096  12.946  12.026   0.217
52733SOL    HW260097  12.835  11.930   0.182
52734SOL     OW60098   8.602  13.922  11.315
52734SOL    HW160099   8.603  13.872  11.234
52734SOL    HW260100   8.675  13.983  11.307
52735SOL     OW60101   9.782   1.203   7.535
52735SOL    HW160102   9.721   1.203   7.461
52735SOL    HW260103   9.838   1.279   7.520
52736SOL     OW60104   9.458   9.899  11.509
52736SOL    HW160105   9.399   9.872  11.579
52736SOL    HW260106   9.525   9.951  11.553
52737SOL     OW60107   6.738   5.364   6.477
52737SOL    HW160108   6.780   5.439   6.435
52737SOL    HW260109   6.780   5.356   6.562
52738SOL     OW60110   5.449  11.019   8.993
52738SOL    HW160111   5.527  11.044   9.042
52738SOL    HW260112   5.465  10.929   8.967
52739SOL     OW60113   6.197   8.377  13.246
52739SOL    HW160114   6.278   8.426  13.262
52739SOL    HW260115   6.220   8.287  13.269
52740SOL     OW60116   9.308   5.557   1.107
52740SOL    HW160117   9.343   5.525   1.190
52740SOL    HW260118   9.343   5.496   1.042
52741SOL     OW60119  13.784   9.503   5.812
52741SOL    HW160120  13.719   9.441   5.844
52741SOL    HW260121  13.834   9.454   5.747
52742SOL     OW60122   1.962   1.215   9.979
52742SOL    HW160123   2.042   1.199   9.929
52742SOL    HW260124   1.896   1.159   9.937
52743SOL     OW60125  13.904  13.250   0.662
52743SOL    HW160126  13.956  13.326   0.688
52743SOL    HW260127  13.958  13.205   0.597
52744SOL     OW60128  13.097  12.387   7.454
52744SOL    HW160129  13.149  12.449   7.504
52744SOL    HW260130  13.157  12.314   7.436
52745SOL     OW60131   9.052   1.648  12.563
52745SOL    HW160132   9.135   1.684  12.595
52745SOL    HW260133   8.990   1.720  12.572
52746SOL     OW60134  14.233  10.488   5.091
52746SOL    HW160135  14.252  10.417   5.030
52746SOL    HW260136  14.179  10.549   5.042
52747SOL     OW60137   9.958   0.858   2.345
52747SOL    HW160138   9.897   0.851   2.419
52747SOL    HW260139   9.920   0.926   2.290
52748SOL     OW60140   7.874   8.723  12.946
52748SOL    HW160141   7.862   8.733  12.852
52748SOL    HW260142   7.803   8.774  12.985
52749SOL     OW60143   0.596   0.061  13.899
52749SOL    HW160144   0.642   0.073  13.981
52749SOL    HW260145   0.583  14.844  13.891
52750SOL     OW60146   1.240   2.897   7.520
52750SOL    HW160147   1.294   2.971   7.544
52750SOL    HW260148   1.266   2.827   7.579
52751SOL     OW60149   7.886  12.599   2.413
52751SOL    HW160150   7.962  12.639   2.456
52751SOL    HW260151   7.882  12.640   2.327
52752SOL     OW60152   4.378   5.543   0.113
52752SOL    HW160153   4.408   5.624   0.072
52752SOL    HW260154   4.307   5.513   0.057
52753SOL     OW60155   6.941  13.335   8.333
52753SOL    HW160156   7.024  13.358   8.292
52753SOL    HW260157   6.965  13.287   8.412
52754SOL     OW60158  13.213   9.006  12.429
52754SOL    HW160159  13.281   8.940  12.420
52754SOL    HW260160  13.213   9.053  12.345
52755SOL     OW60161  10.550  10.521   7.903
52755SOL    HW160162  10.597  10.577   7.840
52755SOL    HW260163  10.613  10.453   7.926
52756SOL     OW60164   8.942   6.483   9.967
52756SOL    HW160165   8.898   6.542   9.906
52756SOL    HW260166   9.027   6.466   9.926
52757SOL     OW60167  12.455  11.147   5.236
52757SOL    HW160168  12.393  11.220   5.229
52757SOL    HW260169  12.412  11.075   5.189
52758SOL     OW60170   2.471  10.296   9.048
52758SOL    HW160171   2.517  10.298   8.964
52758SOL    HW260172   2.466  10.388   9.074
52759SOL     OW60173   1.563   9.786   7.841
52759SOL    HW160174   1.648   9.822   7.818
52759SOL    HW260175   1.503   9.822   7.776
52760SOL     OW60176   9.003   9.655  14.618
52760SOL    HW160177   9.070   9.588  14.606
52760SOL    HW260178   9.032   9.728  14.562
52761SOL     OW60179  14.789  13.420   6.752
52761SOL    HW160180  14.777  13.349   6.688
52761SOL    HW260181  14.701  13.452   6.769
52762SOL     OW60182  14.669  10.059   7.705
52762SOL    HW160183  14.751  10.106   7.691
52762SOL    HW260184  14.610  10.124   7.741
52763SOL     OW60185   4.894  10.445  13.411
52763SOL    HW160186   4.815  10.401  13.444
52763SOL    HW260187   4.966  10.393  13.446
52764SOL     OW60188   2.446   8.737  11.809
52764SOL    HW160189   2.436   8.652  11.766
52764SOL    HW260190   2.420   8.721  11.900
52765SOL     OW60191   0.773   5.248  11.242
52765SOL    HW160192   0.773   5.270  11.149
52765SOL    HW260193   0.704   5.302  11.280
52766SOL     OW60194   1.923  14.650   4.344
52766SOL    HW160195   2.007  14.615   4.316
52766SOL    HW260196   1.939  14.743   4.360
52767SOL     OW60197   0.037  12.706  11.542
52767SOL    HW160198  14.873  12.623  11.564
52767SOL    HW260199  14.842  12.769  11.540
52768SOL     OW60200   4.454   4.961   5.412
52768SOL    HW160201   4.465   5.056   5.421
52768SOL    HW260202   4.365   4.951   5.378
52769SOL     OW60203   9.578   0.552  12.824
52769SOL    HW160204   9.580   0.639  12.863
52769SOL    HW260205   9.607   0.564  12.734
52770SOL     OW60206   6.636  12.556  12.520
52770SOL    HW160207   6.562  12.545  12.461
52770SOL    HW260208   6.675  12.468  12.528
52771SOL     OW60209   9.684   7.604   3.520
52771SOL    HW160210   9.705   7.515   3.491
52771SOL    HW260211   9.703   7.605   3.614
52772SOL     OW60212   7.585  10.144  10.624
52772SOL    HW160213   7.524  10.204  10.666
52772SOL    HW260214   7.647  10.121  10.693
52773SOL     OW60215  10.794   5.218   6.798
52773SOL    HW160216  10.872   5.212   6.743
52773SOL    HW260217  10.822   5.267   6.875
52774SOL     OW60218   9.119   6.194  13.264
52774SOL    HW160219   9.116   6.099  13.271
52774SOL    HW260220   9.030   6.219  13.238
52775SOL     OW60221   0.679  10.115  12.730
52775SOL    HW160222   0.600  10.158  12.763
52775SOL    HW260223   0.646  10.039  12.682
52776SOL     OW60224  12.455   1.330  13.252
52776SOL    HW160225  12.517   1.294  13.188
52776SOL    HW260226  12.369   1.302  13.220
52777SOL     OW60227  13.258  14.821  11.742
52777SOL    HW160228  13.224   0.030  11.763
52777SOL    HW260229  13.199  14.788  11.675
52778SOL     OW60230  12.865   1.508   1.619
52778SOL    HW160231  12.847   1.562   1.697
52778SOL    HW260232  12.927   1.559   1.568
52779SOL     OW60233   2.843   2.359  10.914
52779SOL    HW160234   2.822   2.449  10.889
52779SOL    HW260235   2.931   2.344  10.878
52780SOL     OW60236  13.143   4.831   2.286
52780SOL    HW160237  13.187   4.911   2.259
52780SOL    HW260238  13.053   4.842   2.259
52781SOL     OW60239   1.385   3.348   6.684
52781SOL    HW160240   1.458   3.382   6.633
52781SOL    HW260241   1.410   3.366   6.775
52782SOL     OW60242   5.937  12.995   8.697
52782SOL    HW160243   5.910  12.914   8.739
52782SOL    HW260244   6.018  12.974   8.651
52783SOL     OW60245   3.131   7.598  10.456
52783SOL    HW160246   3.171   7.665  10.401
52783SOL    HW260247   3.074   7.647  10.516
52784SOL     OW60248   2.036   7.185   5.486
52784SOL    HW160249   2.110   7.125   5.500
52784SOL    HW260250   1.961   7.140   5.525
52785SOL     OW60251   8.728   0.338  12.260
52785SOL    HW160252   8.661   0.269  12.264
52785SOL    HW260253   8.678   0.419  12.253
52786SOL     OW60254  10.377   1.818  11.010
52786SOL    HW160255  10.289   1.850  11.030
52786SOL    HW260256  10.429   1.842  11.086
52787SOL     OW60257   4.438   8.078  11.208
52787SOL    HW160258   4.495   8.073  11.132
52787SOL    HW260259   4.425   8.171  11.223
52788SOL     OW60260   8.038   2.830   5.929
52788SOL    HW160261   8.046   2.917   5.966
52788SOL    HW260262   8.129   2.801   5.915
52789SOL     OW60263  13.018  10.294   8.193
52789SOL    HW160264  13.000  10.201   8.181
52789SOL    HW260265  13.055  10.301   8.281
52790SOL     OW60266   6.463   9.355   2.767
52790SOL    HW160267   6.408   9.326   2.840
52790SOL    HW260268   6.440   9.447   2.755
52791SOL     OW60269   2.445  10.598   4.674
52791SOL    HW160270   2.513  10.560   4.730
52791SOL    HW260271   2.363  10.569   4.714
52792SOL     OW60272   3.420   5.574   6.125
52792SOL    HW160273   3.515   5.574   6.126
52792SOL    HW260274   3.395   5.615   6.042
52793SOL     OW60275   9.443  13.033   3.004
52793SOL    HW160276   9.389  13.056   2.928
52793SOL    HW260277   9.403  12.953   3.038
52794SOL     OW60278   2.420   3.141  11.569
52794SOL    HW160279   2.435   3.144  11.474
52794SOL    HW260280   2.486   3.080  11.602
52795SOL     OW60281   0.478   2.009   0.880
52795SOL    HW160282   0.485   1.978   0.970
52795SOL    HW260283   0.386   1.996   0.857
52796SOL     OW60284   4.612   2.177  13.069
52796SOL    HW160285   4.701   2.157  13.039
52796SOL    HW260286   4.561   2.099  13.046
52797SOL     OW60287   5.235   6.343  14.699
52797SOL    HW160288   5.202   6.259  14.731
52797SOL    HW260289   5.307   6.365  14.758
52798SOL     OW60290   3.303  10.700   9.267
52798SOL    HW160291   3.387  10.705   9.312
52798SOL    HW260292   3.295  10.609   9.240
52799SOL     OW60293  12.367   7.327   9.412
52799SOL    HW160294  12.332   7.242   9.438
52799SOL    HW260295  12.462   7.317   9.421
52800SOL     OW60296   9.774   4.088  14.517
52800SOL    HW160297   9.801   4.059  14.605
52800SOL    HW260298   9.766   4.183  14.525
52801SOL     OW60299   3.155  11.692   1.874
52801SOL    HW160300   3.174  11.743   1.953
52801SOL    HW260301   3.061  11.675   1.878
52802SOL     OW60302   6.817  12.481  10.563
52802SOL    HW160303   6.730  12.475  10.524
52802SOL    HW260304   6.861  12.401  10.535
52803SOL     OW60305  11.145   5.448   2.483
52803SOL    HW160306  11.183   5.370   2.441
52803SOL    HW260307  11.051   5.435   2.476
52804SOL     OW60308  12.772   9.462  13.692
52804SOL    HW160309  12.820   9.472  13.610
52804SOL    HW260310  12.839   9.464  13.760
52805SOL     OW60311   7.406  12.061  10.883
52805SOL    HW160312   7.425  12.035  10.793
52805SOL    HW260313   7.359  12.144  10.875
52806SOL     OW60314  12.356  11.188   6.295
52806SOL    HW160315  12.395  11.205   6.209
52806SOL    HW260316  12.284  11.127   6.277
52807SOL     OW60317  10.229   1.588   4.694
52807SOL    HW160318  10.138   1.606   4.720
52807SOL    HW260319  10.276   1.580   4.777
52808SOL     OW60320   2.621   8.213   9.262
52808SOL    HW160321   2.679   8.138   9.266
52808SOL    HW260322   2.533   8.176   9.253
52809SOL     OW60323   7.881   5.468   3.271
52809SOL    HW160324   7.809   5.417   3.232
52809SOL    HW260325   7.923   5.510   3.197
52810SOL     OW60326  13.443   8.393   6.596
52810SOL    HW160327  13.402   8.316   6.636
52810SOL    HW260328  13.419   8.466   6.653
52811SOL     OW60329   5.270   3.523  12.371
52811SOL    HW160330   5.340   3.488  12.316
52811SOL    HW260331   5.194   3.525  12.314
52812SOL     OW60332  13.200  13.366   8.542
52812SOL    HW160333  13.251  13.423   8.485
52812SOL    HW260334  13.130  13.331   8.485
52813SOL     OW60335   8.779   8.534  11.454
52813SOL    HW160336   8.755   8.626  11.452
52813SOL    HW260337   8.875   8.534  11.451
52814SOL     OW60338   3.823   0.037   2.567
52814SOL    HW160339   3.851  14.830   2.532
52814SOL    HW260340   3.729   0.040   2.550
52815SOL     OW60341   2.481   0.510   1.341
52815SOL    HW160342   2.506   0.568   1.413
52815SOL    HW260343   2.408   0.555   1.299
52816SOL     OW60344  10.328   6.684  12.451
52816SOL    HW160345  10.380   6.635  12.515
52816SOL    HW260346  10.272   6.740  12.504
52817SOL     OW60347  14.344  13.262   9.520
52817SOL    HW160348  14.268  13.316   9.545
52817SOL    HW260349  14.309  13.200   9.456
52818SOL     OW60350   5.828   6.930  12.230
52818SOL    HW160351   5.861   6.904  12.316
52818SOL    HW260352   5.880   6.879  12.168
52819SOL     OW60353   2.636   1.110  11.632
52819SOL    HW160354   2.577   1.036  11.618
52819SOL    HW260355   2.661   1.139  11.544
52820SOL     OW60356   4.985   6.179   9.631
52820SOL    HW160357   4.986   6.085   9.613
52820SOL    HW260358   4.899   6.209   9.602
52821SOL     OW60359   9.593   6.337   2.015
52821SOL    HW160360   9.667   6.393   1.992
52821SOL    HW260361   9.606   6.314   2.107
52822SOL     OW60362  11.000   7.325   1.548
52822SOL    HW160363  11.066   7.302   1.614
52822SOL    HW260364  11.012   7.259   1.479
52823SOL     OW60365   0.926   5.784   4.343
52823SOL    HW160366   0.944   5.700   4.385
52823SOL    HW260367   0.866   5.763   4.271
52824SOL     OW60368   9.415   6.113   1.033
52824SOL    HW160369   9.375   6.092   0.949
52824SOL    HW260370   9.400   6.035   1.087
52825SOL     OW60371  12.787  14.394  11.533
52825SOL    HW160372  12.757  14.323  11.589
52825SOL    HW260373  12.844  14.447  11.589
52826SOL     OW60374   6.707   8.029   2.573
52826SOL    HW160375   6.709   7.998   2.482
52826SOL    HW260376   6.799   8.033   2.599
52827SOL     OW60377   9.733   8.758   6.218
52827SOL    HW160378   9.700   8.846   6.234
52827SOL    HW260379   9.790   8.740   6.293
52828SOL     OW60380   1.245  10.309  12.316
52828SOL    HW160381   1.187  10.253  12.264
52828SOL    HW260382   1.255  10.262  12.399
52829SOL     OW60383   7.191   9.645  11.747
52829SOL    HW160384   7.175   9.553  11.730
52829SOL    HW260385   7.183   9.687  11.661
52830SOL     OW60386  10.290   2.805   2.891
52830SOL    HW160387  10.211   2.783   2.842
52830SOL    HW260388  10.346   2.728   2.882
52831SOL     OW60389  12.964  13.299   8.362
52831SOL    HW160390  13.028  13.243   8.317
52831SOL    HW260391  12.911  13.238   8.414
52832SOL     OW60392   6.736   0.126   3.290
52832SOL    HW160393   6.691   0.142   3.373
52832SOL    HW260394   6.825   0.101   3.315
52833SOL     OW60395  13.590   5.389   4.594
52833SOL    HW160396  13.611   5.403   4.686
52833SOL    HW260397  13.652   5.323   4.565
52834SOL     OW60398   0.073   5.743  10.026
52834SOL    HW160399   0.010   5.780   9.964
52834SOL    HW260400   0.093   5.816  10.085
52835SOL     OW60401   8.843   9.705  14.205
52835SOL    HW160402   8.934   9.731  14.219
52835SOL    HW260403   8.825   9.732  14.114
52836SOL     OW60404   5.268   7.506   8.682
52836SOL    HW160405   5.204   7.526   8.750
52836SOL    HW260406   5.351   7.540   8.716
52837SOL     OW60407   4.244   4.896  10.223
52837SOL    HW160408   4.161   4.932  10.193
52837SOL    HW260409   4.243   4.908  10.318
52838SOL     OW60410   6.670   8.757   1.646
52838SOL    HW160411   6.596   8.802   1.688
52838SOL    HW260412   6.644   8.664   1.646
52839SOL     OW60413   5.588  12.436  13.056
52839SOL    HW160414   5.594  12.445  13.151
52839SOL    HW260415   5.610  12.522  13.022
52840SOL     OW60416   1.325   3.182   3.994
52840SOL    HW160417   1.304   3.268   3.957
52840SOL    HW260418   1.268   3.174   4.070
52841SOL     OW60419   1.375   0.235   1.668
52841SOL    HW160420   1.339   0.182   1.739
52841SOL    HW260421   1.462   0.261   1.699
52842SOL     OW60422  13.002   3.852   2.097
52842SOL    HW160423  13.083   3.802   2.090
52842SOL    HW260424  13.029   3.937   2.131
52843SOL     OW60425   5.898  13.543   1.230
52843SOL    HW160426   5.910  13.466   1.174
52843SOL    HW260427   5.804  13.546   1.247
52844SOL     OW60428   9.413   2.534   8.565
52844SOL    HW160429   9.337   2.592   8.558
52844SOL    HW260430   9.486   2.587   8.533
52845SOL     OW60431   1.300   9.345   1.831
52845SOL    HW160432   1.393   9.331   1.850
52845SOL    HW260433   1.257   9.267   1.864
52846SOL     OW60434   3.788   2.302   0.476
52846SOL    HW160435   3.769   2.214   0.443
52846SOL    HW260436   3.876   2.295   0.514
52847SOL     OW60437   9.313  13.785  12.773
52847SOL    HW160438   9.391  13.830  12.805
52847SOL    HW260439   9.296  13.825  12.688
52848SOL     OW60440  11.622  12.375   8.126
52848SOL    HW160441  11.688  12.306   8.112
52848SOL    HW260442  11.672  12.457   8.122
52849SOL     OW60443   7.502   7.796   0.633
52849SOL    HW160444   7.437   7.734   0.666
52849SOL    HW260445   7.577   7.742   0.607
52850SOL     OW60446   4.377   4.144  14.557
52850SOL    HW160447   4.329   4.215  14.599
52850SOL    HW260448   4.417   4.095  14.629
52851SOL     OW60449   5.378  10.131  10.250
52851SOL    HW160450   5.320  10.057  10.239
52851SOL    HW260451   5.392  10.138  10.345
52852SOL     OW60452   9.105  12.208   1.001
52852SOL    HW160453   9.016  12.239   1.020
52852SOL    HW260454   9.162  12.268   1.049
52853SOL     OW60455   8.103   0.353  12.477
52853SOL    HW160456   8.031   0.292  12.462
52853SOL    HW260457   8.069   0.438  12.448
52854SOL     OW60458   6.913   3.064   4.655
52854SOL    HW160459   6.979   2.996   4.664
52854SOL    HW260460   6.949   3.124   4.589
52855SOL     OW60461   0.617  13.588  12.739
52855SOL    HW160462   0.628  13.499  12.704
52855SOL    HW260463   0.552  13.628  12.681
52856SOL     OW60464  13.031  10.681   7.983
52856SOL    HW160465  12.997  10.592   7.986
52856SOL    HW260466  12.962  10.733   7.942
52857SOL     OW60467  12.556   5.165  11.449
52857SOL    HW160468  12.483   5.228  11.450
52857SOL    HW260469  12.601   5.184  11.366
52858SOL     OW60470   7.498   5.945  10.836
52858SOL    HW160471   7.535   5.899  10.760
52858SOL    HW260472   7.443   6.013  10.798
52859SOL     OW60473  10.268   7.778   8.725
52859SOL    HW160474  10.261   7.684   8.709
52859SOL    HW260475  10.259   7.818   8.639
52860SOL     OW60476   0.298   1.431   2.020
52860SOL    HW160477   0.229   1.429   2.087
52860SOL    HW260478   0.371   1.384   2.060
52861SOL     OW60479   9.602  12.223   4.640
52861SOL    HW160480   9.631  12.132   4.634
52861SOL    HW260481   9.628  12.262   4.557
52862SOL     OW60482  10.301   9.666   6.034
52862SOL    HW160483  10.303   9.660   5.938
52862SOL    HW260484  10.321   9.577   6.063
52863SOL     OW60485  13.719  13.419   1.870
52863SOL    HW160486  13.628  13.392   1.867
52863SOL    HW260487  13.767  13.338   1.888
52864SOL     OW60488   2.745  14.384  10.319
52864SOL    HW160489   2.689  14.372  10.242
52864SOL    HW260490   2.831  14.352  10.292
52865SOL     OW60491   7.831   8.278   9.664
52865SOL    HW160492   7.882   8.207   9.705
52865SOL    HW260493   7.876   8.358   9.691
52866SOL     OW60494   5.184   2.787   0.222
52866SOL    HW160495   5.204   2.730   0.297
52866SOL    HW260496   5.089   2.783   0.213
52867SOL     OW60497  13.047  14.440  10.392
52867SOL    HW160498  13.129  14.486  10.412
52867SOL    HW260499  12.990  14.460  10.466
52868SOL     OW60500   2.353  13.683  10.344
52868SOL    HW160501   2.424  13.688  10.280
52868SOL    HW260502   2.275  13.707  10.295
52869SOL     OW60503  10.383   0.185  14.388
52869SOL    HW160504  10.305   0.183  14.442
52869SOL    HW260505  10.398   0.094  14.364
52870SOL     OW60506   1.143   6.673   5.321
52870SOL    HW160507   1.150   6.597   5.378
52870SOL    HW260508   1.152   6.748   5.379
52871SOL     OW60509  11.596   6.670   9.764
52871SOL    HW160510  11.627   6.757   9.790
52871SOL    HW260511  11.554   6.636   9.844
52872SOL     OW60512   2.528  13.965   1.828
52872SOL    HW160513   2.439  13.955   1.793
52872SOL    HW260514   2.527  13.916   1.910
52873SOL     OW60515   7.865   4.027  11.756
52873SOL    HW160516   7.779   3.986  11.757
52873SOL    HW260517   7.850   4.114  11.795
52874SOL     OW60518   1.341   3.445   5.904
52874SOL    HW160519   1.372   3.469   5.991
52874SOL    HW260520   1.248   3.428   5.916
52875SOL     OW60521   8.894  10.587   5.495
52875SOL    HW160522   8.900  10.517   5.561
52875SOL    HW260523   8.953  10.559   5.425
52876SOL     OW60524   4.569   4.009  14.297
52876SOL    HW160525   4.650   4.050  14.265
52876SOL    HW260526   4.506   4.021  14.226
52877SOL     OW60527   8.185   1.302   8.583
52877SOL    HW160528   8.226   1.352   8.654
52877SOL    HW260529   8.118   1.361   8.548
52878SOL     OW60530  10.854  13.617   6.887
52878SOL    HW160531  10.923  13.638   6.951
52878SOL    HW260532  10.774  13.652   6.925
52879SOL     OW60533  12.710   1.025   5.953
52879SOL    HW160534  12.704   1.040   6.047
52879SOL    HW260535  12.701   0.930   5.943
52880SOL     OW60536  13.774  12.544  14.638
52880SOL    HW160537  13.696  12.507  14.679
52880SOL    HW260538  13.743  12.622  14.593
52881SOL     OW60539   2.277  13.701  12.542
52881SOL    HW160540   2.336  13.630  12.566
52881SOL    HW260541   2.190  13.662  12.542
52882SOL     OW60542   4.530   6.986   8.136
52882SOL    HW160543   4.476   7.011   8.211
52882SOL    HW260544   4.509   7.050   8.069
52883SOL     OW60545  10.386   9.362   2.916
52883SOL    HW160546  10.382   9.353   2.821
52883SOL    HW260547  10.362   9.453   2.933
52884SOL     OW60548   6.098   4.151   8.051
52884SOL    HW160549   6.117   4.205   7.974
52884SOL    HW260550   6.012   4.181   8.081
52885SOL     OW60551   7.021  11.467  12.641
52885SOL    HW160552   6.938  11.418  12.643
52885SOL    HW260553   7.081  11.414  12.694
52886SOL     OW60554   1.770   3.493   6.900
52886SOL    HW160555   1.682   3.479   6.934
52886SOL    HW260556   1.827   3.486   6.977
52887SOL     OW60557   3.538  11.280   9.368
52887SOL    HW160558   3.615  11.238   9.330
52887SOL    HW260559   3.551  11.374   9.354
52888SOL     OW60560  11.568  14.606  11.896
52888SOL    HW160561  11.501  14.558  11.943
52888SOL    HW260562  11.523  14.683  11.860
52889SOL     OW60563  10.807   0.734   1.664
52889SOL    HW160564  10.741   0.691   1.719
52889SOL    HW260565  10.890   0.717   1.709
52890SOL     OW60566   5.570   2.342   4.363
52890SOL    HW160567   5.512   2.417   4.356
52890SOL    HW260568   5.656   2.380   4.380
52891SOL     OW60569   3.572  12.021  12.044
52891SOL    HW160570   3.607  12.035  11.957
52891SOL    HW260571   3.639  11.968  12.089
52892SOL     OW60572   9.928  12.075   4.398
52892SOL    HW160573   9.976  12.153   4.370
52892SOL    HW260574   9.996  12.008   4.409
52893SOL     OW60575   9.918  12.249  11.002
52893SOL    HW160576   9.939  12.164  10.965
52893SOL    HW260577   9.965  12.311  10.946
52894SOL     OW60578   9.946  12.762   9.414
52894SOL    HW160579   9.900  12.839   9.448
52894SOL    HW260580  10.019  12.748   9.475
52895SOL     OW60581  14.020   8.855   6.962
52895SOL    HW160582  13.979   8.769   6.954
52895SOL    HW260583  14.078   8.846   7.038
52896SOL     OW60584   9.175  11.110   0.187
52896SOL    HW160585   9.081  11.105   0.169
52896SOL    HW260586   9.216  11.065   0.114
52897SOL     OW60587  11.888   3.581   5.834
52897SOL    HW160588  11.953   3.560   5.768
52897SOL    HW260589  11.888   3.677   5.839
52898SOL     OW60590   8.791   6.271   0.287
52898SOL    HW160591   8.702   6.306   0.300
52898SOL    HW260592   8.845   6.318   0.351
52899SOL     OW60593  13.135   5.152  14.770
52899SOL    HW160594  13.081   5.099  14.828
52899SOL    HW260595  13.078   5.174  14.696
52900SOL     OW60596  13.978   9.492  10.389
52900SOL    HW160597  14.021   9.458  10.311
52900SOL    HW260598  14.050   9.520  10.446
52901SOL     OW60599  14.434   7.133   6.796
52901SOL    HW160600  14.343   7.147   6.769
52901SOL    HW260601  14.427   7.090   6.881
52902SOL     OW60602  11.613  13.330  14.489
52902SOL    HW160603  11.558  13.377  14.426
52902SOL    HW260604  11.702  13.341  14.455
52903SOL     OW60605   1.559   4.035   0.178
52903SOL    HW160606   1.507   3.956   0.165
52903SOL    HW260607   1.561   4.078   0.093
52904SOL     OW60608   8.323  11.863  10.787
52904SOL    HW160609   8.406  11.820  10.767
52904SOL    HW260610   8.334  11.895  10.876
52905SOL     OW60611   3.703   1.717  11.519
52905SOL    HW160612   3.631   1.724  11.582
52905SOL    HW260613   3.726   1.808  11.499
52906SOL     OW60614  14.334   3.737  10.896
52906SOL    HW160615  14.380   3.745  10.979
52906SOL    HW260616  14.352   3.820  10.851
52907SOL     OW60617   5.193   5.273   8.402
52907SOL    HW160618   5.192   5.355   8.452
52907SOL    HW260619   5.242   5.294   8.322
52908SOL     OW60620  13.323  11.005   5.299
52908SOL    HW160621  13.378  10.939   5.257
52908SOL    HW260622  13.332  11.083   5.245
52909SOL     OW60623   7.811   6.110   5.496
52909SOL    HW160624   7.737   6.118   5.557
52909SOL    HW260625   7.782   6.155   5.417
52910SOL     OW60626  10.736  12.720   6.098
52910SOL    HW160627  10.795  12.648   6.122
52910SOL    HW260628  10.737  12.719   6.002
52911SOL     OW60629   6.494  12.176   8.401
52911SOL    HW160630   6.424  12.112   8.395
52911SOL    HW260631   6.552  12.141   8.469
52912SOL     OW60632   4.359   3.841  10.868
52912SOL    HW160633   4.364   3.903  10.941
52912SOL    HW260634   4.439   3.789  10.875
52913SOL     OW60635   1.896   6.219   7.422
52913SOL    HW160636   1.809   6.254   7.402
52913SOL    HW260637   1.910   6.243   7.514
52914SOL     OW60638   0.555   5.874   3.002
52914SOL    HW160639   0.502   5.925   2.941
52914SOL    HW260640   0.632   5.848   2.951
52915SOL     OW60641   9.861   4.878   9.502
52915SOL    HW160642   9.956   4.873   9.511
52915SOL    HW260643   9.845   4.964   9.465
52916SOL     OW60644   2.154   9.518   1.254
52916SOL    HW160645   2.146   9.491   1.345
52916SOL    HW260646   2.224   9.583   1.253
52917SOL     OW60647  10.119  14.685   7.077
52917SOL    HW160648  10.183  14.749   7.109
52917SOL    HW260649  10.146  14.669   6.986
52918SOL     OW60650   5.704   5.315   5.384
52918SOL    HW160651   5.734   5.316   5.475
52918SOL    HW260652   5.768   5.261   5.338
52919SOL     OW60653   7.965   1.535   2.925
52919SOL    HW160654   7.957   1.542   2.830
52919SOL    HW260655   8.012   1.454   2.940
52920SOL     OW60656  14.044   3.571   6.519
52920SOL    HW160657  13.979   3.503   6.537
52920SOL    HW260658  14.022   3.641   6.580
52921SOL     OW60659   6.230   6.606   9.074
52921SOL    HW160660   6.272   6.554   9.006
52921SOL    HW260661   6.245   6.557   9.155
52922SOL     OW60662  10.386   3.980   8.357
52922SOL    HW160663  10.320   3.919   8.325
52922SOL    HW260664  10.444   3.995   8.283
52923SOL     OW60665   7.031   2.082   6.413
52923SOL    HW160666   6.944   2.106   6.444
52923SOL    HW260667   7.067   2.164   6.378
52924SOL     OW60668  10.739   5.298  11.661
52924SOL    HW160669  10.773   5.308  11.750
52924SOL    HW260670  10.702   5.383  11.639
52925SOL     OW60671   7.394   3.695   9.120
52925SOL    HW160672   7.466   3.631   9.125
52925SOL    HW260673   7.436   3.774   9.086
52926SOL     OW60674   6.602   8.709   7.242
52926SOL    HW160675   6.578   8.797   7.270
52926SOL    HW260676   6.573   8.704   7.151
52927SOL     OW60677   0.569  11.382   6.175
52927SOL    HW160678   0.528  11.438   6.110
52927SOL    HW260679   0.584  11.299   6.130
52928SOL     OW60680  13.028  10.918   0.880
52928SOL    HW160681  13.007  10.937   0.971
52928SOL    HW260682  12.973  10.842   0.857
52929SOL     OW60683  12.509   1.844  10.609
52929SOL    HW160684  12.475   1.771  10.557
52929SOL    HW260685  12.500   1.815  10.700
52930SOL     OW60686   8.078   7.912   2.194
52930SOL    HW160687   7.991   7.882   2.168
52930SOL    HW260688   8.091   7.874   2.281
52931SOL     OW60689   4.664   9.339   7.510
52931SOL    HW160690   4.711   9.373   7.434
52931SOL    HW260691   4.599   9.406   7.530
52932SOL     OW60692   3.102   8.865   8.455
52932SOL    HW160693   3.110   8.830   8.544
52932SOL    HW260694   3.056   8.797   8.407
52933SOL     OW60695   1.808  14.642   7.656
52933SOL    HW160696   1.726  14.660   7.701
52933SOL    HW260697   1.782  14.609   7.570
52934SOL     OW60698  12.625  10.850   9.361
52934SOL    HW160699  12.689  10.917   9.384
52934SOL    HW260700  12.542  10.883   9.396
52935SOL     OW60701  13.935   2.250  12.617
52935SOL    HW160702  13.980   2.177  12.574
52935SOL    HW260703  13.921   2.220  12.707
52936SOL     OW60704   0.124   6.079   9.002
52936SOL    HW160705   0.102   6.004   9.057
52936SOL    HW260706   0.217   6.066   8.981
52937SOL     OW60707   3.092   9.309   4.903
52937SOL    HW160708   3.084   9.213   4.908
52937SOL    HW260709   3.066   9.330   4.813
52938SOL     OW60710   2.551  13.917  11.918
52938SOL    HW160711   2.559  13.877  12.005
52938SOL    HW260712   2.642  13.927  11.888
52939SOL     OW60713   4.883  13.106  14.520
52939SOL    HW160714   4.955  13.117  14.583
52939SOL    HW260715   4.926  13.097  14.435
52940SOL     OW60716   3.809  13.696   1.395
52940SOL    HW160717   3.864  13.774   1.391
52940SOL    HW260718   3.730  13.725   1.440
52941SOL     OW60719  14.215   2.220   2.508
52941SOL    HW160720  14.265   2.138   2.515
52941SOL    HW260721  14.144   2.211   2.571
52942SOL     OW60722  11.496   5.555  12.124
52942SOL    HW160723  11.474   5.538  12.033
52942SOL    HW260724  11.481   5.649  12.136
52943SOL     OW60725  12.445  14.234   9.028
52943SOL    HW160726  12.472  14.142   9.032
52943SOL    HW260727  12.522  14.283   9.057
52944SOL     OW60728   4.243  13.323   1.778
52944SOL    HW160729   4.241  13.228   1.767
52944SOL    HW260730   4.195  13.338   1.860
52945SOL     OW60731   6.956  13.554   1.319
52945SOL    HW160732   6.878  13.606   1.341
52945SOL    HW260733   7.029  13.606   1.352
52946SOL     OW60734  12.765  13.208   5.304
52946SOL    HW160735  12.798  13.254   5.228
52946SOL    HW260736  12.838  13.155   5.335
52947SOL     OW60737   6.550   1.348   7.724
52947SOL    HW160738   6.600   1.416   7.769
52947SOL    HW260739   6.463   1.352   7.763
52948SOL     OW60740   9.548   2.418  10.958
52948SOL    HW160741   9.516   2.424  11.048
52948SOL    HW260742   9.474   2.382  10.908
52949SOL     OW60743   4.062   9.405   5.165
52949SOL    HW160744   4.107   9.421   5.248
52949SOL    HW260745   4.124   9.432   5.097
52950SOL     OW60746  12.135   6.468  12.578
52950SOL    HW160747  12.140   6.397  12.513
52950SOL    HW260748  12.225   6.480  12.608
52951SOL     OW60749   8.820   9.411   0.347
52951SOL    HW160750   8.870   9.477   0.299
52951SOL    HW260751   8.852   9.416   0.437
52952SOL     OW60752  12.115   0.836  11.233
52952SOL    HW160753  12.157   0.838  11.147
52952SOL    HW260754  12.187   0.825  11.295
52953SOL     OW60755  13.201   7.811   2.039
52953SOL    HW160756  13.166   7.892   2.003
52953SOL    HW260757  13.137   7.784   2.105
52954SOL     OW60758   1.720   9.867   6.615
52954SOL    HW160759   1.790   9.809   6.647
52954SOL    HW260760   1.644   9.809   6.606
52955SOL     OW60761  14.191   2.170  10.132
52955SOL    HW160762  14.124   2.237  10.147
52955SOL    HW260763  14.207   2.133  10.219
52956SOL     OW60764   0.820  13.254   7.492
52956SOL    HW160765   0.757  13.222   7.427
52956SOL    HW260766   0.905  13.221   7.462
52957SOL     OW60767  13.644  14.714   3.667
52957SOL    HW160768  13.563  14.702   3.617
52957SOL    HW260769  13.642  14.646   3.734
52958SOL     OW60770   6.422   4.393   6.066
52958SOL    HW160771   6.476   4.454   6.117
52958SOL    HW260772   6.354   4.447   6.027
52959SOL     OW60773  14.538   8.707   2.695
52959SOL    HW160774  14.578   8.746   2.618
52959SOL    HW260775  14.599   8.725   2.766
52960SOL     OW60776  11.191   6.910   6.412
52960SOL    HW160777  11.231   6.842   6.467
52960SOL    HW260778  11.251   6.984   6.419
52961SOL     OW60779   7.016  11.926   7.799
52961SOL    HW160780   7.095  11.941   7.747
52961SOL    HW260781   7.041  11.856   7.860
52962SOL     OW60782   4.265   7.217   5.353
52962SOL    HW160783   4.329   7.288   5.351
52962SOL    HW260784   4.271   7.182   5.442
52963SOL     OW60785   6.569   5.161   1.024
52963SOL    HW160786   6.474   5.167   1.010
52963SOL    HW260787   6.599   5.252   1.027
52964SOL     OW60788   4.720   9.476  11.736
52964SOL    HW160789   4.768   9.401  11.769
52964SOL    HW260790   4.787   9.536  11.703
52965SOL     OW60791  10.719  13.635   9.327
52965SOL    HW160792  10.721  13.631   9.232
52965SOL    HW260793  10.627  13.645   9.350
52966SOL     OW60794   0.878   2.476   1.141
52966SOL    HW160795   0.796   2.429   1.128
52966SOL    HW260796   0.938   2.439   1.077
52967SOL     OW60797  11.291  10.844   3.436
52967SOL    HW160798  11.213  10.846   3.491
52967SOL    HW260799  11.295  10.754   3.403
52968SOL     OW60800   9.314  13.502   2.411
52968SOL    HW160801   9.299  13.540   2.498
52968SOL    HW260802   9.318  13.578   2.352
52969SOL     OW60803   8.895   5.476   2.693
52969SOL    HW160804   8.804   5.474   2.721
52969SOL    HW260805   8.891   5.497   2.599
52970SOL     OW60806  11.762   9.506  13.022
52970SOL    HW160807  11.678   9.503  13.068
52970SOL    HW260808  11.825   9.468  13.085
52971SOL     OW60809  11.003   4.504   5.754
52971SOL    HW160810  11.087   4.460   5.761
52971SOL    HW260811  10.993   4.551   5.837
52972SOL     OW60812  14.187   5.422  12.279
52972SOL    HW160813  14.266   5.472  12.299
52972SOL    HW260814  14.173   5.437  12.185
52973SOL     OW60815  14.866  12.550  12.372
52973SOL    HW160816   0.041  12.474  12.397
52973SOL    HW260817  14.868  12.550  12.276
52974SOL     OW60818   0.477  13.081  11.537
52974SOL    HW160819   0.527  13.012  11.581
52974SOL    HW260820   0.543  13.132  11.491
52975SOL     OW60821   4.158  10.048  11.136
52975SOL    HW160822   4.103  10.102  11.193
52975SOL    HW260823   4.245  10.088  11.142
52976SOL     OW60824   0.069   9.731   0.010
52976SOL    HW160825   0.037   9.804   0.064
52976SOL    HW260826  14.867   9.683  14.864
52977SOL     OW60827  14.840   4.399   1.388
52977SOL    HW160828  14.791   4.356   1.317
52977SOL    HW260829  14.812   4.353   1.467
52978SOL     OW60830  14.805  14.059   8.802
52978SOL    HW160831  14.835  14.064   8.893
52978SOL    HW260832  14.754  14.139   8.790
52979SOL     OW60833   7.541  12.192   0.148
52979SOL    HW160834   7.477  12.150   0.205
52979SOL    HW260835   7.624  12.185   0.195
52980SOL     OW60836   3.400   6.154   9.059
52980SOL    HW160837   3.407   6.076   9.114
52980SOL    HW260838   3.314   6.190   9.081
52981SOL     OW60839  10.331  13.936   0.139
52981SOL    HW160840  10.426  13.933   0.129
52981SOL    HW260841  10.316  13.913   0.230
52982SOL     OW60842   0.176  10.731   2.415
52982SOL    HW160843   0.120  10.687   2.478
52982SOL    HW260844   0.265  10.713   2.445
52983SOL     OW60845  12.302   4.042   7.416
52983SOL    HW160846  12.296   4.119   7.474
52983SOL    HW260847  12.220   3.996   7.430
52984SOL     OW60848   5.863   5.481  10.492
52984SOL    HW160849   5.844   5.500  10.400
52984SOL    HW260850   5.882   5.566  10.531
52985SOL     OW60851   5.105   3.428  12.751
52985SOL    HW160852   5.020   3.441  12.793
52985SOL    HW260853   5.095   3.346  12.702
52986SOL     OW60854   3.336   7.615   9.200
52986SOL    HW160855   3.288   7.696   9.213
52986SOL    HW260856   3.417   7.641   9.156
52987SOL     OW60857   4.496   1.729  10.048
52987SOL    HW160858   4.542   1.813  10.042
52987SOL    HW260859   4.527   1.680   9.971
52988SOL     OW60860   9.457   7.042   3.513
52988SOL    HW160861   9.388   7.108   3.521
52988SOL    HW260862   9.486   7.048   3.422
52989SOL     OW60863   3.586   9.169  12.365
52989SOL    HW160864   3.542   9.111  12.303
52989SOL    HW260865   3.515   9.210  12.414
52990SOL     OW60866  12.050   5.266   7.801
52990SOL    HW160867  12.006   5.351   7.797
52990SOL    HW260868  11.995   5.207   7.750
52991SOL     OW60869  10.636  11.024   0.090
52991SOL    HW160870  10.573  11.095   0.095
52991SOL    HW260871  10.698  11.041   0.161
52992SOL     OW60872   6.661   4.977   9.236
52992SOL    HW160873   6.704   5.059   9.259
52992SOL    HW260874   6.671   4.921   9.313
52993SOL     OW60875   7.936  13.576   8.884
52993SOL    HW160876   7.898  13.658   8.916
52993SOL    HW260877   8.031  13.590   8.890
52994SOL     OW60878   0.691  12.960   3.282
52994SOL    HW160879   0.662  13.050   3.292
52994SOL    HW260880   0.655  12.933   3.197
52995SOL     OW60881  11.364  10.268  13.556
52995SOL    HW160882  11.320  10.267  13.471
52995SOL    HW260883  11.337  10.186  13.598
52996SOL     OW60884   5.202   7.088  14.107
52996SOL    HW160885   5.242   7.096  14.194
52996SOL    HW260886   5.275   7.095  14.046
52997SOL     OW60887  12.832  12.803   4.314
52997SOL    HW160888  12.899  12.742   4.282
52997SOL    HW260889  12.792  12.758   4.388
52998SOL     OW60890   8.132  14.735   7.082
52998SOL    HW160891   8.101  14.648   7.107
52998SOL    HW260892   8.059  14.793   7.100
52999SOL     OW60893  14.476   2.251  10.535
52999SOL    HW160894  14.515   2.186  10.594
52999SOL    HW260895  14.509   2.335  10.565
53000SOL     OW60896  10.419  11.389   9.108
53000SOL    HW160897  10.473  11.313   9.089
53000SOL    HW260898  10.372  11.366   9.188
53001SOL     OW60899   9.148   9.397   6.521
53001SOL    HW160900   9.179   9.306   6.519
53001SOL    HW260901   9.055   9.390   6.540
53002SOL     OW60902   5.219   4.577   9.039
53002SOL    HW160903   5.294   4.554   9.094
53002SOL    HW260904   5.207   4.500   8.982
53003SOL     OW60905   2.197   6.119   7.132
53003SOL    HW160906   2.254   6.043   7.125
53003SOL    HW260907   2.113   6.089   7.099
53004SOL     OW60908   3.559   1.971   8.071
53004SOL    HW160909   3.638   1.933   8.033
53004SOL    HW260910   3.501   1.986   7.996
53005SOL     OW60911   2.468  14.643   4.310
53005SOL    HW160912   2.462  14.581   4.238
53005SOL    HW260913   2.526  14.712   4.279
53006SOL     OW60914  12.205   2.496   8.195
53006SOL    HW160915  12.110   2.513   8.200
53006SOL    HW260916  12.213   2.420   8.138
53007SOL     OW60917  14.123   5.811   2.114
53007SOL    HW160918  14.048   5.760   2.085
53007SOL    HW260919  14.177   5.748   2.163
53008SOL     OW60920   7.175   6.574   2.536
53008SOL    HW160921   7.146   6.641   2.598
53008SOL    HW260922   7.270   6.586   2.531
53009SOL     OW60923   9.329   7.960  10.693
53009SOL    HW160924   9.393   7.960  10.764
53009SOL    HW260925   9.246   7.939  10.735
53010SOL     OW60926   8.573   0.324   2.338
53010SOL    HW160927   8.579   0.395   2.402
53010SOL    HW260928   8.512   0.262   2.376
53011SOL     OW60929   8.325   9.242   2.383
53011SOL    HW160930   8.366   9.216   2.466
53011SOL    HW260931   8.338   9.336   2.378
53012SOL     OW60932   5.541   7.857   9.890
53012SOL    HW160933   5.465   7.898   9.849
53012SOL    HW260934   5.546   7.770   9.850
53013SOL     OW60935   9.302  11.771   0.742
53013SOL    HW160936   9.376  11.826   0.765
53013SOL    HW260937   9.307  11.697   0.803
53014SOL     OW60938   0.351  12.247   3.562
53014SOL    HW160939   0.290  12.173   3.564
53014SOL    HW260940   0.302  12.320   3.599
53015SOL     OW60941   8.794  13.573   9.979
53015SOL    HW160942   8.699  13.582   9.992
53015SOL    HW260943   8.811  13.621   9.898
53016SOL     OW60944  12.704  11.801  12.544
53016SOL    HW160945  12.763  11.827  12.473
53016SOL    HW260946  12.659  11.882  12.568
53017SOL     OW60947  13.490   1.582   7.388
53017SOL    HW160948  13.457   1.634   7.315
53017SOL    HW260949  13.560   1.636   7.426
53018SOL     OW60950   2.980   7.297  14.701
53018SOL    HW160951   3.012   7.349  14.628
53018SOL    HW260952   2.907   7.247  14.665
53019SOL     OW60953   8.276   4.467   6.614
53019SOL    HW160954   8.197   4.417   6.632
53019SOL    HW260955   8.266   4.547   6.666
53020SOL     OW60956   4.128   5.765   1.611
53020SOL    HW160957   4.059   5.829   1.598
53020SOL    HW260958   4.104   5.718   1.691
53021SOL     OW60959   1.830   7.696  10.865
53021SOL    HW160960   1.833   7.744  10.947
53021SOL    HW260961   1.921   7.694  10.835
53022SOL     OW60962  11.677   8.676  12.450
53022SOL    HW160963  11.714   8.640  12.369
53022SOL    HW260964  11.591   8.710  12.423
53023SOL     OW60965  12.138  13.106   5.074
53023SOL    HW160966  12.065  13.060   5.032
53023SOL    HW260967  12.101  13.139   5.156
53024SOL     OW60968   3.397   5.537   8.696
53024SOL    HW160969   3.465   5.592   8.735
53024SOL    HW260970   3.361   5.487   8.769
53025SOL     OW60971   0.180   3.784   7.548
53025SOL    HW160972   0.123   3.858   7.528
53025SOL    HW260973   0.135   3.736   7.617
53026SOL     OW60974   0.371  11.639   3.604
53026SOL    HW160975   0.366  11.708   3.538
53026SOL    HW260976   0.288  11.592   3.596
53027SOL     OW60977   1.159   4.625  13.588
53027SOL    HW160978   1.233   4.645  13.531
53027SOL    HW260979   1.194   4.561  13.651
53028SOL     OW60980   2.844   1.704   5.541
53028SOL    HW160981   2.911   1.727   5.605
53028SOL    HW260982   2.806   1.788   5.514
53029SOL     OW60983   5.118   4.805  12.277
53029SOL    HW160984   5.167   4.795  12.359
53029SOL    HW260985   5.090   4.716  12.255
53030SOL     OW60986   2.098  10.433   6.861
53030SOL    HW160987   2.099  10.351   6.812
53030SOL    HW260988   2.173  10.428   6.919
53031SOL     OW60989   8.984   0.236  10.618
53031SOL    HW160990   8.978   0.327  10.588
53031SOL    HW260991   9.004   0.242  10.711
53032SOL     OW60992  10.481   4.092  11.281
53032SOL    HW160993  10.395   4.080  11.240
53032SOL    HW260994  10.466   4.158  11.348
53033SOL     OW60995  11.199  12.835   0.125
53033SOL    HW160996  11.215  12.793   0.210
53033SOL    HW260997  11.237  12.922   0.134
53034SOL     OW60998  10.871   4.525   1.994
53034SOL    HW160999  10.860   4.572   2.077
53034SOL    HW261000  10.815   4.572   1.933
53035SOL     OW61001   3.421   8.036  12.049
53035SOL    HW161002   3.399   7.964  11.989
53035SOL    HW261003   3.343   8.092  12.049
53036SOL     OW61004  13.291   9.113   4.896
53036SOL    HW161005  13.363   9.175   4.890
53036SOL    HW261006  13.321   9.036   4.848
53037SOL     OW61007   3.945  13.442   1.737
53037SOL    HW161008   3.988  13.384   1.800
53037SOL    HW261009   3.929  13.387   1.660
53038SOL     OW61010  10.289   2.815   6.743
53038SOL    HW161011  10.209   2.830   6.692
53038SOL    HW261012  10.258   2.775   6.824
53039SOL     OW61013   3.257  12.553  13.163
53039SOL    HW161014   3.352  12.550  13.167
53039SOL    HW261015   3.232  12.627  13.218
53040SOL     OW61016   6.738   4.393  13.823
53040SOL    HW161017   6.809   4.363  13.765
53040SOL    HW261018   6.659   4.386  13.769
53041SOL     OW61019   9.217   9.607   5.900
53041SOL    HW161020   9.187   9.552   5.973
53041SOL    HW261021   9.137   9.627   5.851
53042SOL     OW61022   1.640   5.717   1.444
53042SOL    HW161023   1.558   5.674   1.421
53042SOL    HW261024   1.665   5.766   1.365
53043SOL     OW61025   5.249   1.217  14.591
53043SOL    HW161026   5.258   1.155  14.663
53043SOL    HW261027   5.291   1.174  14.517
53044SOL     OW61028  11.885   8.371  11.744
53044SOL    HW161029  11.885   8.416  11.829
53044SOL    HW261030  11.885   8.442  11.680
53045SOL     OW61031   1.687  10.675   3.889
53045SOL    HW161032   1.595  10.657   3.909
53045SOL    HW261033   1.717  10.598   3.841
53046SOL     OW61034   1.925   7.883   6.029
53046SOL    HW161035   1.977   7.812   5.990
53046SOL    HW261036   1.863   7.908   5.960
53047SOL     OW61037   2.812  14.594   5.866
53047SOL    HW161038   2.872  14.644   5.920
53047SOL    HW261039   2.779  14.525   5.924
53048SOL     OW61040  11.796   8.738   4.249
53048SOL    HW161041  11.729   8.685   4.206
53048SOL    HW261042  11.771   8.739   4.341
53049SOL     OW61043   6.562   0.735   8.814
53049SOL    HW161044   6.624   0.663   8.811
53049SOL    HW261045   6.505   0.714   8.888
53050SOL     OW61046   8.739   4.402  10.889
53050SOL    HW161047   8.705   4.360  10.968
53050SOL    HW261048   8.829   4.371  10.881
53051SOL     OW61049   9.043   6.608  11.598
53051SOL    HW161050   9.009   6.696  11.618
53051SOL    HW261051   8.973   6.549  11.626
53052SOL     OW61052  11.204   8.499   8.048
53052SOL    HW161053  11.233   8.584   8.013
53052SOL    HW261054  11.191   8.444   7.970
53053SOL     OW61055  10.846   7.583   5.945
53053SOL    HW161056  10.858   7.644   5.872
53053SOL    HW261057  10.853   7.637   6.024
53054SOL     OW61058   9.822  12.249  12.409
53054SOL    HW161059   9.819  12.333  12.364
53054SOL    HW261060   9.805  12.184  12.341
53055SOL     OW61061  10.398   9.786  13.389
53055SOL    HW161062  10.417   9.880  13.383
53055SOL    HW261063  10.331   9.779  13.456
53056SOL     OW61064   2.786  13.437   0.142
53056SOL    HW161065   2.835  13.419   0.062
53056SOL    HW261066   2.714  13.493   0.114
53057SOL     OW61067  11.561  11.732  12.810
53057SOL    HW161068  11.563  11.655  12.753
53057SOL    HW261069  11.619  11.795  12.768
53058SOL     OW61070   8.092   3.150   9.597
53058SOL    HW161071   8.120   3.195   9.518
53058SOL    HW261072   8.015   3.099   9.570
53059SOL     OW61073   1.208   5.056  11.606
53059SOL    HW161074   1.269   5.033  11.675
53059SOL    HW261075   1.262   5.096  11.537
53060SOL     OW61076   5.022  14.813  11.640
53060SOL    HW161077   5.067  14.730  11.655
53060SOL    HW261078   4.958  14.794  11.572
53061SOL     OW61079   1.216   9.728   7.788
53061SOL    HW161080   1.257   9.803   7.831
53061SOL    HW261081   1.217   9.658   7.854
53062SOL     OW61082   7.786   7.984   2.778
53062SOL    HW161083   7.787   8.060   2.834
53062SOL    HW261084   7.873   7.946   2.786
53063SOL     OW61085   7.633   3.428   3.418
53063SOL    HW161086   7.543   3.417   3.449
53063SOL    HW261087   7.624   3.473   3.334
53064SOL     OW61088   1.943   6.554   7.639
53064SOL    HW161089   1.853   6.529   7.658
53064SOL    HW261090   1.990   6.471   7.632
53065SOL     OW61091   4.524   6.036   7.342
53065SOL    HW161092   4.503   6.005   7.431
53065SOL    HW261093   4.597   5.980   7.315
53066SOL     OW61094   2.403  11.071   2.846
53066SOL    HW161095   2.320  11.118   2.842
53066SOL    HW261096   2.400  11.022   2.928
53067SOL     OW61097  10.606   8.044   6.411
53067SOL    HW161098  10.608   8.137   6.436
53067SOL    HW261099  10.610   7.997   6.494
53068SOL     OW61100  10.704   9.648   6.802
53068SOL    HW161101  10.674   9.581   6.864
53068SOL    HW261102  10.659   9.728   6.830
53069SOL     OW61103  12.197   2.219  11.775
53069SOL    HW161104  12.272   2.277  11.764
53069SOL    HW261105  12.162   2.206  11.687
53070SOL     OW61106  14.781   6.100   9.664
53070SOL    HW161107  14.784   6.184   9.619
53070SOL    HW261108  14.868   6.089   9.702
53071SOL     OW61109   1.570   2.925  12.322
53071SOL    HW161110   1.480   2.939  12.292
53071SOL    HW261111   1.601   3.013  12.343
53072SOL     OW61112   8.563   1.076   0.330
53072SOL    HW161113   8.482   1.049   0.288
53072SOL    HW261114   8.610   0.994   0.345
53073SOL     OW61115   5.381  11.131   3.287
53073SOL    HW161116   5.294  11.098   3.265
53073SOL    HW261117   5.392  11.208   3.231
53074SOL     OW61118  13.964   4.948   7.186
53074SOL    HW161119  14.055   4.935   7.159
53074SOL    HW261120  13.959   5.041   7.209
53075SOL     OW61121   9.095   4.152   9.852
53075SOL    HW161122   9.158   4.103   9.799
53075SOL    HW261123   9.011   4.109   9.836
53076SOL     OW61124   2.194  12.594  10.389
53076SOL    HW161125   2.186  12.653  10.314
53076SOL    HW261126   2.216  12.509  10.351
53077SOL     OW61127  13.410   9.505   5.240
53077SOL    HW161128  13.330   9.453   5.236
53077SOL    HW261129  13.431   9.511   5.333
53078SOL     OW61130   0.783   2.958   4.311
53078SOL    HW161131   0.742   2.894   4.253
53078SOL    HW261132   0.784   3.039   4.260
53079SOL     OW61133   1.871   1.128   5.831
53079SOL    HW161134   1.825   1.047   5.810
53079SOL    HW261135   1.824   1.196   5.782
53080SOL     OW61136  12.641   1.869  11.445
53080SOL    HW161137  12.603   1.889  11.530
53080SOL    HW261138  12.653   1.774  11.445
53081SOL     OW61139  12.723  10.970   6.648
53081SOL    HW161140  12.667  11.003   6.579
53081SOL    HW261141  12.666  10.964   6.725
53082SOL     OW61142   0.284   5.211   8.458
53082SOL    HW161143   0.241   5.295   8.475
53082SOL    HW261144   0.242   5.178   8.379
53083SOL     OW61145   2.111  10.841  11.684
53083SOL    HW161146   2.109  10.925  11.638
53083SOL    HW261147   2.099  10.776  11.615
53084SOL     OW61148   9.555   2.020  10.848
53084SOL    HW161149   9.598   2.092  10.801
53084SOL    HW261150   9.591   1.941  10.809
53085SOL     OW61151  10.142  14.660  12.864
53085SOL    HW161152  10.157  14.731  12.927
53085SOL    HW261153  10.163  14.698  12.779
53086SOL     OW61154  12.258   4.451   2.640
53086SOL    HW161155  12.266   4.368   2.594
53086SOL    HW261156  12.330   4.451   2.703
53087SOL     OW61157   9.134   6.816  10.739
53087SOL    HW161158   9.047   6.841  10.771
53087SOL    HW261159   9.173   6.768  10.812
53088SOL     OW61160  14.873  11.672   7.981
53088SOL    HW161161  14.833  11.636   7.902
53088SOL    HW261162   0.066  11.611   8.003
53089SOL     OW61163   3.257   3.452   8.298
53089SOL    HW161164   3.234   3.494   8.214
53089SOL    HW261165   3.182   3.469   8.354
53090SOL     OW61166   4.902   8.560   6.793
53090SOL    HW161167   4.859   8.607   6.864
53090SOL    HW261168   4.993   8.586   6.798
53091SOL     OW61169   9.946   9.567   4.308
53091SOL    HW161170   9.925   9.600   4.395
53091SOL    HW261171  10.041   9.556   4.308
53092SOL     OW61172   5.977   6.504   8.595
53092SOL    HW161173   6.002   6.419   8.557
53092SOL    HW261174   6.060   6.545   8.619
53093SOL     OW61175   9.013   2.562   8.854
53093SOL    HW161176   8.976   2.650   8.848
53093SOL    HW261177   8.954   2.515   8.914
53094SOL     OW61178  11.006   3.935   7.890
53094SOL    HW161179  11.037   3.853   7.928
53094SOL    HW261180  11.053   4.003   7.939
53095SOL     OW61181   0.200  13.751  10.238
53095SOL    HW161182   0.283  13.791  10.263
53095SOL    HW261183   0.213  13.721  10.149
53096SOL     OW61184   8.770   2.144   0.167
53096SOL    HW161185   8.811   2.104   0.090
53096SOL    HW261186   8.779   2.238   0.153
53097SOL     OW61187  11.962   1.673   2.337
53097SOL    HW161188  11.971   1.688   2.431
53097SOL    HW261189  11.890   1.729   2.310
53098SOL     OW61190   2.713  12.235   5.456
53098SOL    HW161191   2.628  12.210   5.421
53098SOL    HW261192   2.701  12.324   5.488
53099SOL     OW61193  11.964   1.253  13.535
53099SOL    HW161194  12.033   1.191  13.510
53099SOL    HW261195  11.893   1.233  13.474
53100SOL     OW61196   2.472  14.427   0.454
53100SOL    HW161197   2.468  14.380   0.370
53100SOL    HW261198   2.424  14.371   0.515
53101SOL     OW61199   0.985   8.971  12.194
53101SOL    HW161200   0.959   9.059  12.167
53101SOL    HW261201   0.910   8.939  12.245
53102SOL     OW61202   6.824   2.751   7.089
53102SOL    HW161203   6.781   2.824   7.134
53102SOL    HW261204   6.894   2.724   7.149
53103SOL     OW61205  11.686   1.616   4.562
53103SOL    HW161206  11.714   1.553   4.628
53103SOL    HW261207  11.644   1.686   4.612
53104SOL     OW61208   7.388   0.171   3.554
53104SOL    HW161209   7.459   0.209   3.608
53104SOL    HW261210   7.324   0.242   3.546
53105SOL     OW61211   8.128  10.885   4.210
53105SOL    HW161212   8.154  10.920   4.295
53105SOL    HW261213   8.113  10.962   4.155
53106SOL     OW61214   1.662   4.161   5.429
53106SOL    HW161215   1.641   4.169   5.522
53106SOL    HW261216   1.745   4.207   5.420
53107SOL     OW61217  10.415  13.984   2.585
53107SOL    HW161218  10.496  13.977   2.534
53107SOL    HW261219  10.363  13.909   2.556
53108SOL     OW61220  11.929  13.937   4.195
53108SOL    HW161221  11.957  13.931   4.104
53108SOL    HW261222  11.969  13.861   4.237
53109SOL     OW61223   2.610  10.569  12.158
53109SOL    HW161224   2.697  10.536  12.137
53109SOL    HW261225   2.622  10.663  12.170
53110SOL     OW61226   3.354   2.286  11.114
53110SOL    HW161227   3.329   2.282  11.206
53110SOL    HW261228   3.271   2.291  11.067
53111SOL     OW61229   9.971   4.362   5.871
53111SOL    HW161230   9.987   4.389   5.781
53111SOL    HW261231  10.002   4.436   5.925
53112SOL     OW61232   6.649   8.541   3.073
53112SOL    HW161233   6.736   8.510   3.046
53112SOL    HW261234   6.592   8.520   2.999
53113SOL     OW61235  12.255   9.612   4.130
53113SOL    HW161236  12.292   9.626   4.217
53113SOL    HW261237  12.193   9.683   4.117
53114SOL     OW61238  14.698   9.862   0.420
53114SOL    HW161239  14.709   9.767   0.411
53114SOL    HW261240  14.604   9.874   0.434
53115SOL     OW61241  12.717   7.383   9.689
53115SOL    HW161242  12.637   7.435   9.698
53115SOL    HW261243  12.687   7.302   9.647
53116SOL     OW61244  10.464   4.353  10.673
53116SOL    HW161245  10.535   4.350  10.610
53116SOL    HW261246  10.389   4.388  10.625
53117SOL     OW61247  12.574   6.045   1.313
53117SOL    HW161248  12.576   5.957   1.275
53117SOL    HW261249  12.637   6.095   1.260
53118SOL     OW61250   7.751   8.516   3.526
53118SOL    HW161251   7.766   8.456   3.453
53118SOL    HW261252   7.832   8.566   3.534
53119SOL     OW61253   4.248  13.365  11.388
53119SOL    HW161254   4.318  13.413  11.435
53119SOL    HW261255   4.295  13.299  11.337
53120SOL     OW61256   6.520   4.110   7.749
53120SOL    HW161257   6.531   4.129   7.656
53120SOL    HW261258   6.485   4.191   7.786
53121SOL     OW61259   5.884   8.602   9.588
53121SOL    HW161260   5.920   8.514   9.599
53121SOL    HW261261   5.803   8.588   9.539
53122SOL     OW61262   8.963  10.111   3.461
53122SOL    HW161263   8.992  10.141   3.375
53122SOL    HW261264   8.991  10.020   3.465
53123SOL     OW61265  14.637  14.156   9.301
53123SOL    HW161266  14.548  14.191   9.305
53123SOL    HW261267  14.629  14.073   9.255
53124SOL     OW61268   9.207   5.510   8.990
53124SOL    HW161269   9.180   5.540   9.077
53124SOL    HW261270   9.125   5.490   8.945
53125SOL     OW61271  10.751   4.482  11.731
53125SOL    HW161272  10.694   4.411  11.760
53125SOL    HW261273  10.731   4.554  11.791
53126SOL     OW61274   4.644  10.703   5.898
53126SOL    HW161275   4.654  10.613   5.929
53126SOL    HW261276   4.564  10.734   5.940
53127SOL     OW61277   8.202  13.960  10.164
53127SOL    HW161278   8.150  13.893  10.120
53127SOL    HW261279   8.190  14.039  10.111
53128SOL     OW61280   7.186   7.085   1.755
53128SOL    HW161281   7.194   7.080   1.659
53128SOL    HW261282   7.224   7.169   1.778
53129SOL     OW61283   3.367  13.614   6.096
53129SOL    HW161284   3.382  13.521   6.081
53129SOL    HW261285   3.455  13.653   6.092
53130SOL     OW61286   2.572  10.056   2.943
53130SOL    HW161287   2.520   9.992   2.992
53130SOL    HW261288   2.586  10.128   3.005
53131SOL     OW61289  10.863   3.291   6.721
53131SOL    HW161290  10.946   3.246   6.733
53131SOL    HW261291  10.845   3.284   6.627
53132SOL     OW61292  12.831  13.898   8.921
53132SOL    HW161293  12.899  13.886   8.854
53132SOL    HW261294  12.846  13.826   8.982
53133SOL     OW61295   1.587   5.663   4.212
53133SOL    HW161296   1.504   5.699   4.182
53133SOL    HW261297   1.653   5.723   4.177
53134SOL     OW61298   9.247  13.285   5.622
53134SOL    HW161299   9.216  13.263   5.710
53134SOL    HW261300   9.278  13.375   5.629
53135SOL     OW61301   6.514   5.807   4.277
53135SOL    HW161302   6.526   5.833   4.186
53135SOL    HW261303   6.496   5.889   4.323
53136SOL     OW61304   3.183   2.221   1.370
53136SOL    HW161305   3.256   2.278   1.394
53136SOL    HW261306   3.126   2.277   1.317
53137SOL     OW61307   9.681   2.215   3.280
53137SOL    HW161308   9.596   2.188   3.246
53137SOL    HW261309   9.712   2.281   3.218
53138SOL     OW61310  14.688   1.123   8.545
53138SOL    HW161311  14.698   1.041   8.496
53138SOL    HW261312  14.741   1.187   8.497
53139SOL     OW61313   0.467  10.355   3.213
53139SOL    HW161314   0.458  10.446   3.186
53139SOL    HW261315   0.508  10.359   3.300
53140SOL     OW61316   4.617  14.017  12.044
53140SOL    HW161317   4.695  14.004  11.990
53140SOL    HW261318   4.557  13.948  12.016
53141SOL     OW61319   5.634  11.979  13.011
53141SOL    HW161320   5.572  12.008  12.944
53141SOL    HW261321   5.686  12.057  13.031
53142SOL     OW61322   5.495   2.854   5.438
53142SOL    HW161323   5.419   2.799   5.420
53142SOL    HW261324   5.470   2.941   5.409
53143SOL     OW61325   7.913   8.652  10.849
53143SOL    HW161326   7.956   8.737  10.850
53143SOL    HW261327   7.831   8.665  10.897
53144SOL     OW61328  10.526   9.413  11.364
53144SOL    HW161329  10.529   9.504  11.394
53144SOL    HW261330  10.449   9.409  11.307
53145SOL     OW61331  14.154  11.043   7.342
53145SOL    HW161332  14.103  10.962   7.334
53145SOL    HW261333  14.165  11.055   7.436
53146SOL     OW61334   8.027  12.610   6.882
53146SOL    HW161335   7.977  12.682   6.920
53146SOL    HW261336   7.983  12.592   6.799
53147SOL     OW61337   7.763  13.669   3.231
53147SOL    HW161338   7.737  13.627   3.149
53147SOL    HW261339   7.688  13.724   3.254
53148SOL     OW61340   0.966  12.028   5.545
53148SOL    HW161341   0.911  12.070   5.611
53148SOL    HW261342   0.989  11.944   5.583
53149SOL     OW61343   6.058   3.785  14.130
53149SOL    HW161344   5.981   3.771  14.076
53149SOL    HW261345   6.130   3.793  14.067
53150SOL     OW61346   7.079   0.032   2.510
53150SOL    HW161347   7.085  14.838   2.447
53150SOL    HW261348   7.051  14.868   2.592
53151SOL     OW61349   0.820   3.266   5.926
53151SOL    HW161350   0.785   3.322   5.856
53151SOL    HW261351   0.742   3.232   5.971
53152SOL     OW61352   9.423  14.423   7.593
53152SOL    HW161353   9.339  14.420   7.638
53152SOL    HW261354   9.415  14.496   7.532
53153SOL     OW61355   9.581   7.307   4.362
53153SOL    HW161356   9.617   7.347   4.441
53153SOL    HW261357   9.628   7.349   4.289
53154SOL     OW61358  13.644   6.746   5.625
53154SOL    HW161359  13.730   6.758   5.584
53154SOL    HW261360  13.636   6.651   5.635
53155SOL     OW61361   3.192   7.999   6.390
53155SOL    HW161362   3.109   7.957   6.412
53155SOL    HW261363   3.212   8.055   6.465
53156SOL     OW61364   0.887   4.823  12.614
53156SOL    HW161365   0.930   4.801  12.696
53156SOL    HW261366   0.874   4.739  12.570
53157SOL     OW61367   4.326   1.790   6.030
53157SOL    HW161368   4.350   1.818   6.118
53157SOL    HW261369   4.407   1.798   5.979
53158SOL     OW61370   3.435  14.058   8.229
53158SOL    HW161371   3.370  14.006   8.276
53158SOL    HW261372   3.418  14.149   8.256
53159SOL     OW61373  12.785  13.476  12.992
53159SOL    HW161374  12.817  13.497  13.079
53159SOL    HW261375  12.783  13.560  12.946
53160SOL     OW61376   7.342   7.586   4.158
53160SOL    HW161377   7.423   7.607   4.112
53160SOL    HW261378   7.273   7.599   4.093
53161SOL     OW61379   3.877   6.249   8.732
53161SOL    HW161380   3.794   6.203   8.747
53161SOL    HW261381   3.928   6.189   8.678
53162SOL     OW61382  11.073  10.416  13.106
53162SOL    HW161383  11.045  10.418  13.015
53162SOL    HW261384  11.169  10.417  13.102
53163SOL     OW61385  10.498   4.475   3.377
53163SOL    HW161386  10.438   4.410   3.413
53163SOL    HW261387  10.460   4.560   3.403
53164SOL     OW61388   9.202   3.446   8.051
53164SOL    HW161389   9.188   3.401   8.134
53164SOL    HW261390   9.223   3.536   8.076
53165SOL     OW61391   7.268   2.891   6.339
53165SOL    HW161392   7.191   2.948   6.344
53165SOL    HW261393   7.338   2.942   6.381
53166SOL     OW61394   0.594   6.961  10.814
53166SOL    HW161395   0.624   6.876  10.847
53166SOL    HW261396   0.671   7.018  10.821
53167SOL     OW61397   5.135   7.917   8.813
53167SOL    HW161398   5.124   7.958   8.728
53167SOL    HW261399   5.108   7.826   8.800
53168SOL     OW61400   6.488  10.689   4.070
53168SOL    HW161401   6.409  10.636   4.067
53168SOL    HW261402   6.457  10.778   4.085
53169SOL     OW61403  13.724  14.789  14.623
53169SOL    HW161404  13.816  14.803  14.600
53169SOL    HW261405  13.675  14.813  14.545
53170SOL     OW61406   7.102   9.289  13.951
53170SOL    HW161407   7.176   9.229  13.956
53170SOL    HW261408   7.026   9.232  13.934
53171SOL     OW61409  12.684   4.366   1.503
53171SOL    HW161410  12.697   4.459   1.484
53171SOL    HW261411  12.589   4.358   1.517
53172SOL     OW61412   3.428   8.678  11.680
53172SOL    HW161413   3.366   8.625  11.630
53172SOL    HW261414   3.426   8.639  11.768
53173SOL     OW61415   0.809  14.596  13.749
53173SOL    HW161416   0.870  14.551  13.808
53173SOL    HW261417   0.839  14.571  13.661
53174SOL     OW61418   7.560   1.002   0.649
53174SOL    HW161419   7.509   0.962   0.579
53174SOL    HW261420   7.598   0.928   0.696
53175SOL     OW61421   2.101  12.185   0.564
53175SOL    HW161422   2.150  12.139   0.632
53175SOL    HW261423   2.064  12.262   0.608
53176SOL     OW61424  14.033   3.225  13.468
53176SOL    HW161425  14.074   3.202  13.552
53176SOL    HW261426  14.078   3.304  13.440
53177SOL     OW61427  13.221   6.320   6.855
53177SOL    HW161428  13.234   6.368   6.936
53177SOL    HW261429  13.126   6.317   6.843
53178SOL     OW61430  12.648  12.891   0.030
53178SOL    HW161431  12.706  12.815   0.018
53178SOL    HW261432  12.590  12.866   0.102
53179SOL     OW61433   5.535   5.844   2.604
53179SOL    HW161434   5.551   5.911   2.669
53179SOL    HW261435   5.469   5.787   2.643
53180SOL     OW61436  12.530  11.952  12.345
53180SOL    HW161437  12.435  11.961  12.338
53180SOL    HW261438  12.548  11.862  12.319
53181SOL     OW61439   8.939   8.901   6.091
53181SOL    HW161440   8.899   8.968   6.147
53181SOL    HW261441   8.927   8.933   6.002
53182SOL     OW61442   4.030  12.115   6.599
53182SOL    HW161443   3.948  12.139   6.642
53182SOL    HW261444   4.003  12.078   6.515
53183SOL     OW61445   1.590   3.866  14.598
53183SOL    HW161446   1.623   3.812  14.670
53183SOL    HW261447   1.660   3.929  14.582
53184SOL     OW61448   1.766   0.124   4.294
53184SOL    HW161449   1.752   0.070   4.216
53184SOL    HW261450   1.750   0.213   4.264
53185SOL     OW61451  12.554   5.276  10.009
53185SOL    HW161452  12.631   5.253   9.956
53185SOL    HW261453  12.590   5.311  10.090
53186SOL     OW61454  12.025   9.671   9.285
53186SOL    HW161455  11.949   9.619   9.308
53186SOL    HW261456  11.997   9.762   9.297
53187SOL     OW61457   6.927  12.223   7.152
53187SOL    HW161458   6.976  12.150   7.116
53187SOL    HW261459   6.916  12.283   7.077
53188SOL     OW61460   3.322   7.778   9.680
53188SOL    HW161461   3.394   7.772   9.618
53188SOL    HW261462   3.248   7.739   9.635
53189SOL     OW61463   7.231   1.603   1.575
53189SOL    HW161464   7.168   1.675   1.567
53189SOL    HW261465   7.317   1.646   1.570
53190SOL     OW61466   3.967   5.136  13.527
53190SOL    HW161467   3.932   5.053  13.559
53190SOL    HW261468   3.903   5.202  13.555
53191SOL     OW61469   6.608  13.547  14.042
53191SOL    HW161470   6.576  13.617  14.100
53191SOL    HW261471   6.576  13.571  13.955
53192SOL     OW61472  11.376   1.093   1.746
53192SOL    HW161473  11.328   1.025   1.794
53192SOL    HW261474  11.400   1.157   1.814
53193SOL     OW61475   0.534   0.232   1.525
53193SOL    HW161476   0.525   0.294   1.452
53193SOL    HW261477   0.445   0.224   1.560
53194SOL     OW61478   0.646  11.852   1.030
53194SOL    HW161479   0.687  11.875   0.946
53194SOL    HW261480   0.561  11.815   1.006
53195SOL     OW61481  12.422   5.989   7.008
53195SOL    HW161482  12.338   6.009   7.048
53195SOL    HW261483  12.467   5.933   7.071
53196SOL     OW61484   5.230   7.981   4.756
53196SOL    HW161485   5.305   7.959   4.811
53196SOL    HW261486   5.229   8.077   4.754
53197SOL     OW61487   2.792   8.744  14.191
53197SOL    HW161488   2.699   8.733  14.209
53197SOL    HW261489   2.801   8.836  14.166
53198SOL     OW61490  11.785   7.120   9.427
53198SOL    HW161491  11.713   7.182   9.418
53198SOL    HW261492  11.745   7.034   9.413
53199SOL     OW61493   7.544  13.874   7.122
53199SOL    HW161494   7.562  13.863   7.215
53199SOL    HW261495   7.468  13.932   7.120
53200SOL     OW61496   9.949   5.994  10.172
53200SOL    HW161497   9.967   6.016  10.080
53200SOL    HW261498   9.986   5.906  10.183
53201SOL     OW61499  11.587   9.860   7.345
53201SOL    HW161500  11.525   9.864   7.418
53201SOL    HW261501  11.613   9.951   7.331
53202SOL     OW61502  10.166  13.516   1.318
53202SOL    HW161503  10.169  13.485   1.228
53202SOL    HW261504  10.239  13.578   1.325
53203SOL     OW61505   3.797   3.320  12.072
53203SOL    HW161506   3.808   3.414  12.055
53203SOL    HW261507   3.880   3.293  12.111
53204SOL     OW61508   6.105  13.625   7.070
53204SOL    HW161509   6.015  13.657   7.058
53204SOL    HW261510   6.161  13.700   7.052
53205SOL     OW61511   8.378   9.558   3.784
53205SOL    HW161512   8.457   9.579   3.834
53205SOL    HW261513   8.381   9.463   3.772
53206SOL     OW61514   0.387   2.866   8.717
53206SOL    HW161515   0.367   2.957   8.694
53206SOL    HW261516   0.470   2.848   8.674
53207SOL     OW61517  12.161  10.609  13.730
53207SOL    HW161518  12.143  10.542  13.664
53207SOL    HW261519  12.254  10.629  13.718
53208SOL     OW61520  11.115   1.828   1.467
53208SOL    HW161521  11.063   1.874   1.401
53208SOL    HW261522  11.151   1.897   1.522
53209SOL     OW61523   1.547  12.442   5.295
53209SOL    HW161524   1.511  12.440   5.206
53209SOL    HW261525   1.481  12.397   5.347
53210SOL     OW61526   3.098   2.700   0.606
53210SOL    HW161527   3.140   2.614   0.619
53210SOL    HW261528   3.126   2.751   0.682
53211SOL     OW61529   8.725   9.358  14.839
53211SOL    HW161530   8.681   9.409  14.771
53211SOL    HW261531   8.698   9.400   0.043
53212SOL     OW61532  11.362   0.266  12.555
53212SOL    HW161533  11.315   0.212  12.491
53212SOL    HW261534  11.454   0.253  12.535
53213SOL     OW61535  10.565   0.995   9.574
53213SOL    HW161536  10.573   1.087   9.550
53213SOL    HW261537  10.608   0.948   9.502
53214SOL     OW61538   6.089   7.337  11.055
53214SOL    HW161539   6.148   7.369  10.987
53214SOL    HW261540   6.137   7.351  11.136
53215SOL     OW61541   4.949  14.350  13.348
53215SOL    HW161542   4.929  14.377  13.259
53215SOL    HW261543   4.906  14.415  13.404
53216SOL     OW61544   6.510   9.592  10.039
53216SOL    HW161545   6.507   9.647   9.961
53216SOL    HW261546   6.438   9.530  10.028
53217SOL     OW61547   4.040   7.284  11.638
53217SOL    HW161548   3.961   7.239  11.607
53217SOL    HW261549   4.082   7.317  11.558
53218SOL     OW61550   5.083  14.668  14.702
53218SOL    HW161551   5.100  14.578  14.676
53218SOL    HW261552   5.159  14.717  14.670
53219SOL     OW61553  14.072  12.404  14.194
53219SOL    HW161554  14.155  12.374  14.232
53219SOL    HW261555  14.019  12.430  14.270
53220SOL     OW61556   4.989   0.605   7.456
53220SOL    HW161557   4.932   0.529   7.443
53220SOL    HW261558   4.980   0.655   7.375
53221SOL     OW61559  11.471  10.392  11.110
53221SOL    HW161560  11.472  10.484  11.136
53221SOL    HW261561  11.430  10.391  11.024
53222SOL     OW61562   7.071  12.143  11.244
53222SOL    HW161563   7.075  12.235  11.218
53222SOL    HW261564   7.047  12.146  11.337
53223SOL     OW61565  13.888  14.597   3.531
53223SOL    HW161566  13.885  14.512   3.575
53223SOL    HW261567  13.801  14.634   3.544
53224SOL     OW61568   6.214  10.196  11.855
53224SOL    HW161569   6.194  10.223  11.765
53224SOL    HW261570   6.145  10.133  11.877
53225SOL     OW61571   7.481  10.956   2.364
53225SOL    HW161572   7.413  10.942   2.429
53225SOL    HW261573   7.465  11.045   2.331
53226SOL     OW61574   1.467   8.497  10.679
53226SOL    HW161575   1.478   8.514  10.585
53226SOL    HW261576   1.517   8.417  10.694
53227SOL     OW61577  13.166   3.819  11.099
53227SOL    HW161578  13.079   3.780  11.110
53227SOL    HW261579  13.183   3.863  11.183
53228SOL     OW61580   7.790   6.335   2.740
53228SOL    HW161581   7.781   6.269   2.808
53228SOL    HW261582   7.773   6.289   2.658
53229SOL     OW61583  13.587  13.372   1.073
53229SOL    HW161584  13.598  13.364   0.978
53229SOL    HW261585  13.529  13.447   1.083
53230SOL     OW61586  12.534   1.377  14.261
53230SOL    HW161587  12.614   1.426  14.243
53230SOL    HW261588  12.550   1.290  14.226
53231SOL     OW61589  13.793   2.495   4.221
53231SOL    HW161590  13.839   2.454   4.294
53231SOL    HW261591  13.799   2.589   4.238
53232SOL     OW61592   3.928   3.539  13.456
53232SOL    HW161593   3.983   3.531  13.378
53232SOL    HW261594   3.990   3.534  13.529
53233SOL     OW61595   8.689  11.066  13.813
53233SOL    HW161596   8.628  11.098  13.747
53233SOL    HW261597   8.768  11.117  13.799
53234SOL     OW61598  13.712  14.279   1.569
53234SOL    HW161599  13.689  14.201   1.620
53234SOL    HW261600  13.797  14.306   1.604
53235SOL     OW61601   3.940   9.169   7.654
53235SOL    HW161602   3.988   9.226   7.594
53235SOL    HW261603   3.954   9.081   7.620
53236SOL     OW61604   6.186   7.330   1.393
53236SOL    HW161605   6.270   7.318   1.350
53236SOL    HW261606   6.208   7.350   1.484
53237SOL     OW61607   9.751   6.356   8.027
53237SOL    HW161608   9.801   6.409   7.965
53237SOL    HW261609   9.728   6.416   8.098
53238SOL     OW61610   7.449   2.434   4.018
53238SOL    HW161611   7.415   2.518   3.988
53238SOL    HW261612   7.530   2.456   4.064
53239SOL     OW61613   7.814  10.223   3.292
53239SOL    HW161614   7.754  10.188   3.359
53239SOL    HW261615   7.837  10.147   3.239
53240SOL     OW61616   7.934  11.777  13.357
53240SOL    HW161617   8.003  11.719  13.390
53240SOL    HW261618   7.973  11.819  13.280
53241SOL     OW61619   3.214   7.849   5.238
53241SOL    HW161620   3.133   7.850   5.289
53241SOL    HW261621   3.265   7.776   5.275
53242SOL     OW61622   7.470   4.252   9.915
53242SOL    HW161623   7.462   4.157   9.930
53242SOL    HW261624   7.547   4.260   9.858
53243SOL     OW61625   8.677  13.298   8.267
53243SOL    HW161626   8.677  13.256   8.180
53243SOL    HW261627   8.645  13.230   8.326
53244SOL     OW61628   6.504   8.134   6.993
53244SOL    HW161629   6.494   8.169   7.082
53244SOL    HW261630   6.589   8.167   6.963
53245SOL     OW61631   5.177   5.355   3.610
53245SOL    HW161632   5.160   5.326   3.521
53245SOL    HW261633   5.254   5.412   3.603
53246SOL     OW61634   4.469   0.178   8.285
53246SOL    HW161635   4.470   0.238   8.210
53246SOL    HW261636   4.545   0.122   8.271
53247SOL     OW61637   8.348   2.240   0.325
53247SOL    HW161638   8.346   2.152   0.289
53247SOL    HW261639   8.393   2.293   0.258
53248SOL     OW61640  12.252  11.342   3.496
53248SOL    HW161641  12.319  11.291   3.542
53248SOL    HW261642  12.169  11.308   3.529
53249SOL     OW61643   3.194  12.528  14.012
53249SOL    HW161644   3.250  12.465  14.058
53249SOL    HW261645   3.110  12.485  14.004
53250SOL     OW61646   7.910  10.289  14.244
53250SOL    HW161647   7.959  10.349  14.300
53250SOL    HW261648   7.824  10.330  14.234
53251SOL     OW61649   2.859   4.925   9.677
53251SOL    HW161650   2.852   4.834   9.706
53251SOL    HW261651   2.790   4.935   9.611
53252SOL     OW61652   1.224   8.296   6.042
53252SOL    HW161653   1.150   8.325   6.096
53252SOL    HW261654   1.186   8.284   5.955
53253SOL     OW61655   3.903   4.616   7.932
53253SOL    HW161656   3.827   4.581   7.884
53253SOL    HW261657   3.972   4.622   7.865
53254SOL     OW61658  12.143   0.674   2.984
53254SOL    HW161659  12.227   0.643   3.017
53254SOL    HW261660  12.159   0.695   2.892
53255SOL     OW61661  14.605   0.533  13.737
53255SOL    HW161662  14.695   0.505  13.718
53255SOL    HW261663  14.566   0.550  13.651
53256SOL     OW61664   2.268  10.290   4.177
53256SOL    HW161665   2.307  10.202   4.182
53256SOL    HW261666   2.316  10.333   4.106
53257SOL     OW61667   3.578  12.698   8.146
53257SOL    HW161668   3.571  12.789   8.117
53257SOL    HW261669   3.666  12.671   8.119
53258SOL     OW61670   5.352   6.690   0.017
53258SOL    HW161671   5.314   6.733  14.818
53258SOL    HW261672   5.408   6.622  14.858
53259SOL     OW61673   3.017  11.078   9.150
53259SOL    HW161674   3.028  10.988   9.180
53259SOL    HW261675   3.081  11.128   9.201
53260SOL     OW61676   3.086   5.434   0.108
53260SOL    HW161677   3.161   5.489   0.130
53260SOL    HW261678   3.064   5.459   0.018
53261SOL     OW61679   6.908   9.069   0.917
53261SOL    HW161680   6.822   9.033   0.896
53261SOL    HW261681   6.953   8.998   0.963
53262SOL     OW61682  13.014   1.189  12.593
53262SOL    HW161683  13.074   1.125  12.630
53262SOL    HW261684  12.972   1.230  12.669
53263SOL     OW61685   2.185  11.477   6.483
53263SOL    HW161686   2.143  11.540   6.541
53263SOL    HW261687   2.265  11.452   6.529
53264SOL     OW61688   9.270  10.464   3.588
53264SOL    HW161689   9.254  10.432   3.499
53264SOL    HW261690   9.256  10.387   3.643
53265SOL     OW61691   1.744   9.525   0.252
53265SOL    HW161692   1.730   9.445   0.303
53265SOL    HW261693   1.830   9.512   0.211
53266SOL     OW61694   9.598  13.260   4.174
53266SOL    HW161695   9.664  13.208   4.127
53266SOL    HW261696   9.631  13.350   4.169
53267SOL     OW61697   5.299   5.819   4.364
53267SOL    HW161698   5.277   5.726   4.368
53267SOL    HW261699   5.368   5.830   4.430
53268SOL     OW61700   6.880   9.603   1.795
53268SOL    HW161701   6.911   9.682   1.751
53268SOL    HW261702   6.871   9.628   1.886
53269SOL     OW61703  11.395  13.673   0.763
53269SOL    HW161704  11.335  13.720   0.822
53269SOL    HW261705  11.353  13.588   0.749
53270SOL     OW61706  11.514  12.172  10.851
53270SOL    HW161707  11.428  12.153  10.814
53270SOL    HW261708  11.514  12.129  10.936
53271SOL     OW61709   8.758  14.122   4.974
53271SOL    HW161710   8.718  14.188   4.917
53271SOL    HW261711   8.707  14.043   4.957
53272SOL     OW61712   0.141   9.079   9.534
53272SOL    HW161713   0.068   9.037   9.490
53272SOL    HW261714   0.217   9.059   9.479
53273SOL     OW61715  14.822   0.849  11.418
53273SOL    HW161716  14.780   0.910  11.478
53273SOL    HW261717   0.034   0.841  11.450
53274SOL     OW61718   5.338   7.005   5.481
53274SOL    HW161719   5.431   7.029   5.477
53274SOL    HW261720   5.328   6.937   5.414
53275SOL     OW61721   9.656   1.664   7.989
53275SOL    HW161722   9.652   1.630   7.900
53275SOL    HW261723   9.616   1.596   8.043
53276SOL     OW61724   5.751  11.141   5.746
53276SOL    HW161725   5.746  11.130   5.841
53276SOL    HW261726   5.663  11.117   5.715
53277SOL     OW61727   8.144  14.391  13.080
53277SOL    HW161728   8.113  14.431  13.161
53277SOL    HW261729   8.221  14.340  13.106
53278SOL     OW61730   7.457  11.060   4.771
53278SOL    HW161731   7.473  10.969   4.746
53278SOL    HW261732   7.523  11.079   4.837
53279SOL     OW61733  14.002   8.049  12.537
53279SOL    HW161734  13.940   7.977  12.556
53279SOL    HW261735  14.080   8.005  12.504
53280SOL     OW61736   3.160   8.215   3.977
53280SOL    HW161737   3.233   8.276   3.965
53280SOL    HW261738   3.198   8.129   3.964
53281SOL     OW61739   0.154  11.818  10.877
53281SOL    HW161740   0.171  11.907  10.847
53281SOL    HW261741   0.166  11.823  10.972
53282SOL     OW61742  10.695   0.410   5.317
53282SOL    HW161743  10.735   0.346   5.375
53282SOL    HW261744  10.634   0.459   5.372
53283SOL     OW61745   2.805  13.863   1.794
53283SOL    HW161746   2.714  13.883   1.772
53283SOL    HW261747   2.823  13.916   1.872
53284SOL     OW61748  14.081   0.988   3.330
53284SOL    HW161749  14.049   0.969   3.241
53284SOL    HW261750  14.005   1.023   3.376
53285SOL     OW61751  12.861  12.653   7.075
53285SOL    HW161752  12.782  12.677   7.122
53285SOL    HW261753  12.906  12.591   7.133
53286SOL     OW61754   3.479  13.447   8.799
53286SOL    HW161755   3.460  13.408   8.713
53286SOL    HW261756   3.395  13.442   8.846
53287SOL     OW61757  10.456   5.090  14.749
53287SOL    HW161758  10.476   5.157  14.683
53287SOL    HW261759  10.368   5.060  14.724
53288SOL     OW61760   8.944   2.525   4.469
53288SOL    HW161761   8.863   2.477   4.455
53288SOL    HW261762   8.921   2.592   4.533
53289SOL     OW61763   3.845  13.496  10.897
53289SOL    HW161764   3.901  13.574  10.901
53289SOL    HW261765   3.757  13.529  10.918
53290SOL     OW61766  14.155  14.115   9.684
53290SOL    HW161767  14.158  14.073   9.770
53290SOL    HW261768  14.238  14.161   9.677
53291SOL     OW61769   6.164   7.426   3.577
53291SOL    HW161770   6.195   7.509   3.541
53291SOL    HW261771   6.240   7.390   3.623
53292SOL     OW61772   8.316   6.586   6.672
53292SOL    HW161773   8.293   6.505   6.717
53292SOL    HW261774   8.373   6.559   6.600
53293SOL     OW61775  12.364  11.425   3.853
53293SOL    HW161776  12.396  11.391   3.937
53293SOL    HW261777  12.443  11.433   3.799
53294SOL     OW61778  10.035  13.430  13.573
53294SOL    HW161779   9.953  13.415  13.527
53294SOL    HW261780  10.032  13.370  13.648
53295SOL     OW61781   8.487   9.965   0.089
53295SOL    HW161782   8.515   9.900   0.152
53295SOL    HW261783   8.442  10.032   0.141
53296SOL     OW61784   8.514   2.769   2.867
53296SOL    HW161785   8.502   2.751   2.960
53296SOL    HW261786   8.609   2.780   2.857
53297SOL     OW61787  12.243  11.964  12.311
53297SOL    HW161788  12.191  12.009  12.377
53297SOL    HW261789  12.196  11.979  12.229
53298SOL     OW61790   9.643   1.159  13.626
53298SOL    HW161791   9.581   1.106  13.577
53298SOL    HW261792   9.591   1.198  13.697
53299SOL     OW61793   5.370   9.264  10.180
53299SOL    HW161794   5.450   9.223  10.213
53299SOL    HW261795   5.398   9.353  10.155
53300SOL     OW61796   2.621   3.427   6.201
53300SOL    HW161797   2.526   3.430   6.209
53300SOL    HW261798   2.652   3.509   6.239
53301SOL     OW61799   0.139   6.016  12.913
53301SOL    HW161800   0.105   5.958  12.982
53301SOL    HW261801   0.195   6.078  12.960
53302SOL     OW61802  12.216   0.728  14.796
53302SOL    HW161803  12.127   0.701  14.819
53302SOL    HW261804  12.255   0.651  14.755
53303SOL     OW61805  10.785   3.359   4.324
53303SOL    HW161806  10.797   3.289   4.260
53303SOL    HW261807  10.748   3.431   4.274
53304SOL     OW61808   2.374  14.750   0.581
53304SOL    HW161809   2.395  14.661   0.610
53304SOL    HW261810   2.353  14.741   0.488
53305SOL     OW61811  13.900   2.843   6.941
53305SOL    HW161812  13.892   2.904   7.014
53305SOL    HW261813  13.990   2.812   6.944
53306SOL     OW61814   1.850   7.717  10.511
53306SOL    HW161815   1.800   7.754  10.584
53306SOL    HW261816   1.892   7.792  10.470
53307SOL     OW61817   1.324  13.679   8.090
53307SOL    HW161818   1.334  13.766   8.052
53307SOL    HW261819   1.368  13.621   8.027
53308SOL     OW61820   4.193   3.494   7.351
53308SOL    HW161821   4.139   3.558   7.398
53308SOL    HW261822   4.138   3.465   7.278
53309SOL     OW61823  11.963  12.687  12.579
53309SOL    HW161824  12.054  12.684  12.608
53309SOL    HW261825  11.913  12.649  12.651
53310SOL     OW61826  10.424   1.638  11.603
53310SOL    HW161827  10.353   1.604  11.549
53310SOL    HW261828  10.475   1.561  11.628
53311SOL     OW61829   8.826  13.765  14.380
53311SOL    HW161830   8.895  13.735  14.321
53311SOL    HW261831   8.835  13.860  14.381
53312SOL     OW61832   1.504   7.761   7.371
53312SOL    HW161833   1.517   7.790   7.462
53312SOL    HW261834   1.430   7.700   7.376
53313SOL     OW61835  10.898  14.361  10.751
53313SOL    HW161836  10.977  14.326  10.793
53313SOL    HW261837  10.847  14.283  10.726
53314SOL     OW61838  14.180   3.994   0.809
53314SOL    HW161839  14.193   4.079   0.851
53314SOL    HW261840  14.102   4.005   0.755
53315SOL     OW61841   9.826   2.498   6.408
53315SOL    HW161842   9.765   2.567   6.384
53315SOL    HW261843   9.786   2.454   6.483
53316SOL     OW61844  11.617  10.940  11.648
53316SOL    HW161845  11.643  10.937  11.556
53316SOL    HW261846  11.534  10.891  11.651
53317SOL     OW61847   0.910  12.673   0.783
53317SOL    HW161848   0.897  12.603   0.846
53317SOL    HW261849   1.004  12.671   0.764
53318SOL     OW61850   9.562   9.103   8.741
53318SOL    HW161851   9.508   9.033   8.706
53318SOL    HW261852   9.643   9.060   8.769
53319SOL     OW61853   9.998   6.333   8.614
53319SOL    HW161854   9.921   6.306   8.563
53319SOL    HW261855   9.978   6.422   8.643
53320SOL     OW61856  10.705   0.216  13.881
53320SOL    HW161857  10.695   0.282  13.949
53320SOL    HW261858  10.773   0.251  13.824
53321SOL     OW61859  14.627   3.520   7.893
53321SOL    HW161860  14.683   3.588   7.856
53321SOL    HW261861  14.614   3.458   7.821
53322SOL     OW61862   4.246   7.033   0.755
53322SOL    HW161863   4.179   6.975   0.790
53322SOL    HW261864   4.316   7.030   0.820
53323SOL     OW61865   7.421   1.329  14.795
53323SOL    HW161866   7.456   1.394  14.856
53323SOL    HW261867   7.498   1.299  14.746
53324SOL     OW61868  11.608   5.467   3.979
53324SOL    HW161869  11.612   5.371   3.980
53324SOL    HW261870  11.575   5.489   3.892
53325SOL     OW61871   4.433   8.421   6.049
53325SOL    HW161872   4.443   8.328   6.030
53325SOL    HW261873   4.338   8.435   6.050
53326SOL     OW61874   4.540   3.856  12.379
53326SOL    HW161875   4.591   3.775  12.365
53326SOL    HW261876   4.572   3.916  12.312
53327SOL     OW61877  13.802   6.289   2.228
53327SOL    HW161878  13.825   6.298   2.320
53327SOL    HW261879  13.759   6.372   2.206
53328SOL     OW61880   8.724   1.659  14.430
53328SOL    HW161881   8.644   1.641  14.380
53328SOL    HW261882   8.775   1.578  14.422
53329SOL     OW61883   6.612  12.800   5.321
53329SOL    HW161884   6.596  12.763   5.408
53329SOL    HW261885   6.643  12.888   5.337
53330SOL     OW61886   2.404   7.717   8.932
53330SOL    HW161887   2.360   7.785   8.881
53330SOL    HW261888   2.484   7.698   8.882
53331SOL     OW61889   5.732   8.141  10.528
53331SOL    HW161890   5.659   8.172  10.581
53331SOL    HW261891   5.705   8.055  10.498
53332SOL     OW61892   0.118   1.466   8.558
53332SOL    HW161893   0.147   1.549   8.594
53332SOL    HW261894   0.136   1.473   8.464
53333SOL     OW61895   0.188   7.252  11.023
53333SOL    HW161896   0.222   7.176  10.977
53333SOL    HW261897   0.200   7.232  11.116
53334SOL     OW61898   0.241   7.589   7.746
53334SOL    HW161899   0.195   7.602   7.663
53334SOL    HW261900   0.193   7.642   7.809
53335SOL     OW61901   0.412   2.431   8.133
53335SOL    HW161902   0.495   2.470   8.105
53335SOL    HW261903   0.356   2.506   8.153
53336SOL     OW61904  13.663   9.179   0.721
53336SOL    HW161905  13.671   9.257   0.667
53336SOL    HW261906  13.591   9.130   0.681
53337SOL     OW61907  11.505   8.593   2.754
53337SOL    HW161908  11.575   8.526   2.756
53337SOL    HW261909  11.451   8.572   2.830
53338SOL     OW61910  14.297   4.002  11.223
53338SOL    HW161911  14.262   4.042  11.142
53338SOL    HW261912  14.370   3.947  11.193
53339SOL     OW61913  11.459   6.502   3.386
53339SOL    HW161914  11.415   6.540   3.462
53339SOL    HW261915  11.466   6.573   3.323
53340SOL     OW61916   4.437   4.586   1.341
53340SOL    HW161917   4.466   4.674   1.363
53340SOL    HW261918   4.481   4.529   1.405
53341SOL     OW61919   2.213  12.921   9.124
53341SOL    HW161920   2.140  12.925   9.187
53341SOL    HW261921   2.209  13.005   9.079
53342SOL     OW61922   9.352  14.499   5.315
53342SOL    HW161923   9.285  14.503   5.248
53342SOL    HW261924   9.349  14.585   5.357
53343SOL     OW61925   4.460   2.637  14.455
53343SOL    HW161926   4.551   2.633  14.484
53343SOL    HW261927   4.457   2.710  14.393
53344SOL     OW61928  11.419  13.760   4.053
53344SOL    HW161929  11.485  13.793   4.114
53344SOL    HW261930  11.378  13.687   4.100
53345SOL     OW61931  11.500   5.426  12.729
53345SOL    HW161932  11.504   5.448  12.636
53345SOL    HW261933  11.583   5.382  12.747
53346SOL     OW61934  13.701  12.235  10.881
53346SOL    HW161935  13.668  12.317  10.918
53346SOL    HW261936  13.787  12.258  10.844
53347SOL     OW61937   9.083  10.773   1.220
53347SOL    HW161938   8.989  10.755   1.215
53347SOL    HW261939   9.120  10.694   1.260
53348SOL     OW61940  10.635   3.306   9.758
53348SOL    HW161941  10.706   3.299   9.822
53348SOL    HW261942  10.643   3.228   9.704
53349SOL     OW61943   5.178   9.496  12.264
53349SOL    HW161944   5.090   9.486  12.229
53349SOL    HW261945   5.218   9.564  12.210
53350SOL     OW61946  11.870  14.214   1.886
53350SOL    HW161947  11.908  14.295   1.853
53350SOL    HW261948  11.933  14.183   1.951
53351SOL     OW61949   0.952  13.865  13.857
53351SOL    HW161950   0.872  13.812  13.854
53351SOL    HW261951   0.953  13.912  13.774
53352SOL     OW61952   8.006   9.079   9.664
53352SOL    HW161953   8.091   9.123   9.661
53352SOL    HW261954   7.951   9.130   9.604
53353SOL     OW61955   6.658  14.247   7.686
53353SOL    HW161956   6.676  14.306   7.613
53353SOL    HW261957   6.652  14.304   7.762
53354SOL     OW61958   5.425  14.672   8.817
53354SOL    HW161959   5.507  14.721   8.822
53354SOL    HW261960   5.408  14.663   8.723
53355SOL     OW61961   2.556   7.244   9.296
53355SOL    HW161962   2.481   7.296   9.323
53355SOL    HW261963   2.519   7.170   9.248
53356SOL     OW61964   3.916   0.802  12.973
53356SOL    HW161965   3.929   0.811  12.878
53356SOL    HW261966   4.004   0.788  13.008
53357SOL     OW61967   5.126   6.912   4.367
53357SOL    HW161968   5.144   6.837   4.424
53357SOL    HW261969   5.031   6.912   4.357
53358SOL     OW61970  14.836  11.079   0.391
53358SOL    HW161971  14.877  11.164   0.409
53358SOL    HW261972  14.743  11.092   0.410
53359SOL     OW61973   5.598  12.843   4.866
53359SOL    HW161974   5.535  12.774   4.845
53359SOL    HW261975   5.630  12.874   4.781
53360SOL     OW61976   6.203  11.583  10.748
53360SOL    HW161977   6.281  11.588  10.693
53360SOL    HW261978   6.137  11.634  10.701
53361SOL     OW61979  11.104   3.090   7.616
53361SOL    HW161980  11.063   3.130   7.540
53361SOL    HW261981  11.065   3.136   7.691
53362SOL     OW61982   7.096   0.767  10.620
53362SOL    HW161983   7.101   0.862  10.606
53362SOL    HW261984   7.142   0.729  10.545
53363SOL     OW61985  11.547   4.164   1.829
53363SOL    HW161986  11.530   4.250   1.790
53363SOL    HW261987  11.465   4.140   1.871
53364SOL     OW61988   0.453   4.259   9.366
53364SOL    HW161989   0.418   4.237   9.453
53364SOL    HW261990   0.411   4.197   9.307
53365SOL     OW61991   8.929   5.964  12.126
53365SOL    HW161992   8.935   5.868  12.119
53365SOL    HW261993   9.019   5.993  12.137
53366SOL     OW61994   3.613   3.940  12.320
53366SOL    HW161995   3.587   4.002  12.388
53366SOL    HW261996   3.704   3.918  12.340
53367SOL     OW61997   2.072   7.155   5.186
53367SOL    HW161998   2.029   7.083   5.139
53367SOL    HW261999   2.047   7.142   5.278
53368SOL     OW62000  10.175  14.695   6.758
53368SOL    HW162001  10.261  14.737   6.760
53368SOL    HW262002  10.167  14.661   6.669
53369SOL     OW62003   7.633   9.599   6.340
53369SOL    HW162004   7.689   9.522   6.329
53369SOL    HW262005   7.631   9.639   6.253
53370SOL     OW62006  13.605  13.670  13.499
53370SOL    HW162007  13.536  13.604  13.505
53370SOL    HW262008  13.574  13.741  13.557
53371SOL     OW62009   2.295  11.555   7.932
53371SOL    HW162010   2.245  11.535   7.853
53371SOL    HW262011   2.230  11.560   8.002
53372SOL     OW62012   2.599   1.900   5.950
53372SOL    HW162013   2.615   1.994   5.943
53372SOL    HW262014   2.562   1.876   5.865
53373SOL     OW62015   0.516   4.774  12.848
53373SOL    HW162016   0.489   4.859  12.813
53373SOL    HW262017   0.495   4.712  12.778
53374SOL     OW62018  10.797   9.738  11.185
53374SOL    HW162019  10.772   9.760  11.275
53374SOL    HW262020  10.767   9.647  11.173
53375SOL     OW62021  12.117   2.609   9.469
53375SOL    HW162022  12.110   2.667   9.393
53375SOL    HW262023  12.064   2.653   9.537
53376SOL     OW62024  10.389   1.330  13.579
53376SOL    HW162025  10.474   1.300  13.547
53376SOL    HW262026  10.389   1.308  13.672
53377SOL     OW62027   3.616   4.646   9.828
53377SOL    HW162028   3.650   4.691   9.905
53377SOL    HW262029   3.620   4.712   9.758
53378SOL     OW62030   3.602  12.944   1.836
53378SOL    HW162031   3.653  13.004   1.892
53378SOL    HW262032   3.647  12.860   1.843
53379SOL     OW62033   4.025   4.819  10.608
53379SOL    HW162034   3.963   4.813  10.680
53379SOL    HW262035   3.971   4.814  10.529
53380SOL     OW62036   8.356   9.429   6.978
53380SOL    HW162037   8.383   9.348   6.935
53380SOL    HW262038   8.292   9.401   7.044
53381SOL     OW62039   4.232   4.896  11.954
53381SOL    HW162040   4.309   4.874  11.902
53381SOL    HW262041   4.173   4.822  11.942
53382SOL     OW62042  13.545   8.351   8.768
53382SOL    HW162043  13.461   8.311   8.789
53382SOL    HW262044  13.525   8.444   8.755
53383SOL     OW62045   3.822  12.198  10.005
53383SOL    HW162046   3.752  12.151   9.960
53383SOL    HW262047   3.789  12.288  10.013
53384SOL     OW62048   4.897   1.262   0.342
53384SOL    HW162049   4.914   1.339   0.397
53384SOL    HW262050   4.965   1.264   0.275
53385SOL     OW62051   2.016   7.014   3.129
53385SOL    HW162052   1.953   6.953   3.089
53385SOL    HW262053   1.974   7.042   3.210
53386SOL     OW62054  13.533  12.871  14.838
53386SOL    HW162055  13.572  12.838  14.757
53386SOL    HW262056  13.608  12.883   0.019
53387SOL     OW62057  10.618  13.716   3.228
53387SOL    HW162058  10.649  13.631   3.258
53387SOL    HW262059  10.563  13.697   3.152
53388SOL     OW62060   3.674   7.443   7.116
53388SOL    HW162061   3.613   7.501   7.162
53388SOL    HW262062   3.747   7.432   7.177
53389SOL     OW62063  12.983   0.413  12.570
53389SOL    HW162064  12.899   0.458  12.556
53389SOL    HW262065  12.981   0.340  12.508
53390SOL     OW62066  13.330   4.090  12.146
53390SOL    HW162067  13.237   4.098  12.125
53390SOL    HW262068  13.342   4.146  12.223
53391SOL     OW62069   5.298  10.642   5.837
53391SOL    HW162070   5.217  10.687   5.861
53391SOL    HW262071   5.363  10.711   5.831
53392SOL     OW62072   1.240  10.411   4.964
53392SOL    HW162073   1.158  10.395   5.010
53392SOL    HW262074   1.235  10.356   4.886
53393SOL     OW62075  11.327   4.743  11.494
53393SOL    HW162076  11.367   4.724  11.409
53393SOL    HW262077  11.318   4.658  11.537
53394SOL     OW62078   6.432   2.451   1.038
53394SOL    HW162079   6.496   2.523   1.045
53394SOL    HW262080   6.395   2.444   1.126
53395SOL     OW62081  12.898  13.438   0.492
53395SOL    HW162082  12.825  13.476   0.541
53395SOL    HW262083  12.958  13.512   0.478
53396SOL     OW62084   6.708  12.878   7.360
53396SOL    HW162085   6.617  12.893   7.334
53396SOL    HW262086   6.756  12.875   7.278
53397SOL     OW62087  11.904   1.332   1.640
53397SOL    HW162088  11.836   1.267   1.624
53397SOL    HW262089  11.876   1.409   1.590
53398SOL     OW62090   4.227  12.470   4.056
53398SOL    HW162091   4.275  12.390   4.032
53398SOL    HW262092   4.172  12.489   3.981
53399SOL     OW62093  10.516   8.296  12.600
53399SOL    HW162094  10.520   8.330  12.510
53399SOL    HW262095  10.559   8.211  12.595
53400SOL     OW62096  11.010   3.369   0.986
53400SOL    HW162097  11.076   3.397   0.922
53400SOL    HW262098  10.942   3.436   0.981
53401SOL     OW62099   6.101   7.928   2.272
53401SOL    HW162100   6.117   7.838   2.300
53401SOL    HW262101   6.056   7.969   2.346
53402SOL     OW62102   8.705  10.185   2.573
53402SOL    HW162103   8.653  10.240   2.632
53402SOL    HW262104   8.795  10.199   2.602
53403SOL     OW62105   4.460   3.195   4.513
53403SOL    HW162106   4.507   3.143   4.578
53403SOL    HW262107   4.423   3.131   4.453
53404SOL     OW62108   2.980  11.117  12.256
53404SOL    HW162109   3.018  11.191  12.304
53404SOL    HW262110   3.031  11.112  12.175
53405SOL     OW62111   1.046   0.469   2.106
53405SOL    HW162112   1.047   0.395   2.045
53405SOL    HW262113   1.121   0.523   2.079
53406SOL     OW62114   0.249   0.125   9.599
53406SOL    HW162115   0.166   0.167   9.621
53406SOL    HW262116   0.296   0.119   9.683
53407SOL     OW62117   9.687   7.338   2.386
53407SOL    HW162118   9.763   7.369   2.434
53407SOL    HW262119   9.723   7.278   2.320
53408SOL     OW62120   0.880  10.941   1.676
53408SOL    HW162121   0.914  10.918   1.589
53408SOL    HW262122   0.790  10.970   1.660
53409SOL     OW62123   5.610   0.945   7.062
53409SOL    HW162124   5.621   0.948   7.157
53409SOL    HW262125   5.694   0.911   7.030
53410SOL     OW62126   5.875   8.403   3.794
53410SOL    HW162127   5.914   8.335   3.739
53410SOL    HW262128   5.907   8.485   3.756
53411SOL     OW62129   5.493   7.474   6.812
53411SOL    HW162130   5.524   7.412   6.747
53411SOL    HW262131   5.522   7.438   6.896
53412SOL     OW62132   4.928   1.785  14.286
53412SOL    HW162133   4.931   1.725  14.360
53412SOL    HW262134   4.953   1.870  14.322
53413SOL     OW62135  12.389   9.835   0.008
53413SOL    HW162136  12.353   9.903  14.828
53413SOL    HW262137  12.314   9.782   0.033
53414SOL     OW62138   0.457  13.365   4.589
53414SOL    HW162139   0.386  13.371   4.653
53414SOL    HW262140   0.467  13.272   4.573
53415SOL     OW62141   4.662  11.569  13.655
53415SOL    HW162142   4.673  11.579  13.561
53415SOL    HW262143   4.646  11.658  13.687
53416SOL     OW62144   4.923   0.204   5.461
53416SOL    HW162145   4.883   0.290   5.449
53416SOL    HW262146   4.886   0.150   5.391
53417SOL     OW62147   7.614   0.826   8.938
53417SOL    HW162148   7.605   0.731   8.938
53417SOL    HW262149   7.649   0.847   9.025
53418SOL     OW62150   1.960  11.606  13.564
53418SOL    HW162151   1.942  11.573  13.652
53418SOL    HW262152   1.900  11.680  13.554
53419SOL     OW62153  11.372   4.515  11.632
53419SOL    HW162154  11.342   4.436  11.585
53419SOL    HW262155  11.388   4.485  11.721
53420SOL     OW62156  14.041   4.756   2.481
53420SOL    HW162157  14.006   4.692   2.544
53420SOL    HW262158  14.057   4.835   2.533
53421SOL     OW62159   7.018   7.216   4.488
53421SOL    HW162160   6.990   7.126   4.473
53421SOL    HW262161   6.993   7.263   4.409
53422SOL     OW62162   2.462   3.897   6.364
53422SOL    HW162163   2.466   3.961   6.293
53422SOL    HW262164   2.369   3.873   6.370
53423SOL     OW62165   5.809   8.852  13.133
53423SOL    HW162166   5.808   8.764  13.171
53423SOL    HW262167   5.745   8.901  13.185
53424SOL     OW62168   5.059   0.368   3.810
53424SOL    HW162169   4.978   0.320   3.823
53424SOL    HW262170   5.040   0.428   3.737
53425SOL     OW62171   2.501   7.006   8.422
53425SOL    HW162172   2.568   7.011   8.491
53425SOL    HW262173   2.543   6.958   8.351
53426SOL     OW62174   9.864  11.186   3.008
53426SOL    HW162175   9.911  11.149   2.933
53426SOL    HW262176   9.911  11.151   3.085
53427SOL     OW62177   9.184   6.498   1.542
53427SOL    HW162178   9.199   6.415   1.589
53427SOL    HW262179   9.271   6.538   1.538
53428SOL     OW62180   6.690   6.463   2.195
53428SOL    HW162181   6.718   6.555   2.195
53428SOL    HW262182   6.770   6.413   2.182
53429SOL     OW62183   2.021   9.301   4.964
53429SOL    HW162184   2.014   9.374   4.902
53429SOL    HW262185   2.068   9.338   5.039
53430SOL     OW62186   9.905  11.271   8.829
53430SOL    HW162187   9.885  11.300   8.918
53430SOL    HW262188  10.000  11.267   8.826
53431SOL     OW62189   1.957  11.031   3.224
53431SOL    HW162190   2.040  10.998   3.260
53431SOL    HW262191   1.978  11.119   3.194
53432SOL     OW62192   5.057  14.095  13.679
53432SOL    HW162193   5.058  14.169  13.740
53432SOL    HW262194   5.146  14.091  13.644
53433SOL     OW62195  13.604   8.791  11.611
53433SOL    HW162196  13.638   8.702  11.609
53433SOL    HW262197  13.610   8.818  11.703
53434SOL     OW62198  12.685   2.798  12.626
53434SOL    HW162199  12.634   2.866  12.582
53434SOL    HW262200  12.660   2.805  12.718
53435SOL     OW62201   4.590  11.656   6.764
53435SOL    HW162202   4.503  11.669   6.801
53435SOL    HW262203   4.591  11.565   6.737
53436SOL     OW62204   3.085   8.211   8.210
53436SOL    HW162205   3.054   8.167   8.131
53436SOL    HW262206   3.078   8.145   8.279
53437SOL     OW62207  13.376   0.505   5.339
53437SOL    HW162208  13.340   0.501   5.428
53437SOL    HW262209  13.353   0.592   5.307
53438SOL     OW62210  13.283   8.909  11.361
53438SOL    HW162211  13.326   8.824  11.366
53438SOL    HW262212  13.270   8.935  11.452
53439SOL     OW62213  11.609   8.303   5.484
53439SOL    HW162214  11.561   8.254   5.417
53439SOL    HW262215  11.695   8.260   5.488
53440SOL     OW62216   3.606   2.984  14.282
53440SOL    HW162217   3.574   2.961  14.369
53440SOL    HW262218   3.701   2.996  14.293
53441SOL     OW62219   7.647  14.481   5.277
53441SOL    HW162220   7.557  14.505   5.255
53441SOL    HW262221   7.660  14.395   5.236
53442SOL     OW62222   5.585  12.261  11.678
53442SOL    HW162223   5.573  12.308  11.761
53442SOL    HW262224   5.508  12.204  11.672
53443SOL     OW62225   4.951  13.755   4.649
53443SOL    HW162226   5.001  13.765   4.730
53443SOL    HW262227   4.876  13.813   4.660
53444SOL     OW62228   1.956   1.278   1.989
53444SOL    HW162229   2.045   1.311   1.999
53444SOL    HW262230   1.964   1.183   2.005
53445SOL     OW62231   0.835  11.172   9.174
53445SOL    HW162232   0.848  11.122   9.255
53445SOL    HW262233   0.922  11.178   9.135
53446SOL     OW62234   7.136   2.111   0.592
53446SOL    HW162235   7.216   2.064   0.612
53446SOL    HW262236   7.159   2.168   0.518
53447SOL     OW62237  14.308  11.756   8.953
53447SOL    HW162238  14.237  11.789   8.898
53447SOL    HW262239  14.361  11.701   8.895
53448SOL     OW62240   2.120  11.057   9.378
53448SOL    HW162241   2.213  11.034   9.372
53448SOL    HW262242   2.120  11.153   9.385
53449SOL     OW62243  13.169   4.803  10.809
53449SOL    HW162244  13.193   4.869  10.745
53449SOL    HW262245  13.224   4.822  10.885
53450SOL     OW62246   2.705  11.649   8.126
53450SOL    HW162247   2.680  11.705   8.199
53450SOL    HW262248   2.761  11.704   8.071
53451SOL     OW62249  13.408   8.677   1.389
53451SOL    HW162250  13.314   8.673   1.373
53451SOL    HW262251  13.426   8.770   1.406
53452SOL     OW62252   3.787  10.157  10.055
53452SOL    HW162253   3.710  10.200  10.091
53452SOL    HW262254   3.844  10.143  10.131
53453SOL     OW62255   8.240   1.265   6.120
53453SOL    HW162256   8.262   1.342   6.068
53453SOL    HW262257   8.145   1.267   6.128
53454SOL     OW62258   4.564   6.339  11.242
53454SOL    HW162259   4.527   6.251  11.231
53454SOL    HW262260   4.490   6.398  11.230
53455SOL     OW62261  10.596   9.343  13.539
53455SOL    HW162262  10.539   9.271  13.514
53455SOL    HW262263  10.684   9.315  13.514
53456SOL     OW62264  14.823   6.941   7.417
53456SOL    HW162265  14.795   7.029   7.392
53456SOL    HW262266   0.011   6.917   7.352
53457SOL     OW62267  12.011  12.628   2.394
53457SOL    HW162268  12.059  12.676   2.462
53457SOL    HW262269  12.008  12.688   2.320
53458SOL     OW62270  12.714   8.402   6.331
53458SOL    HW162271  12.649   8.433   6.269
53458SOL    HW262272  12.735   8.313   6.302
53459SOL     OW62273  14.503  12.077   5.617
53459SOL    HW162274  14.480  12.052   5.527
53459SOL    HW262275  14.442  12.027   5.671
53460SOL     OW62276   6.929   6.232  13.993
53460SOL    HW162277   7.025   6.231  13.990
53460SOL    HW262278   6.908   6.297  14.060
53461SOL     OW62279  12.050   9.099   1.585
53461SOL    HW162280  12.051   9.160   1.659
53461SOL    HW262281  11.961   9.103   1.552
53462SOL     OW62282  12.834  10.445  11.133
53462SOL    HW162283  12.809  10.513  11.070
53462SOL    HW262284  12.925  10.463  11.154
53463SOL     OW62285   5.294  12.301   4.339
53463SOL    HW162286   5.255  12.300   4.251
53463SOL    HW262287   5.262  12.221   4.380
53464SOL     OW62288  10.397   3.102   2.261
53464SOL    HW162289  10.303   3.106   2.283
53464SOL    HW262290  10.399   3.093   2.166
53465SOL     OW62291   1.748  10.928   0.058
53465SOL    HW162292   1.769  10.901   0.147
53465SOL    HW262293   1.833  10.932   0.014
53466SOL     OW62294   8.581   7.983   1.326
53466SOL    HW162295   8.529   8.057   1.294
53466SOL    HW262296   8.550   7.908   1.274
53467SOL     OW62297   2.920   2.653   5.029
53467SOL    HW162298   3.009   2.628   5.055
53467SOL    HW262299   2.870   2.571   5.035
53468SOL     OW62300   8.291   0.323   8.358
53468SOL    HW162301   8.366   0.264   8.374
53468SOL    HW262302   8.330   0.400   8.317
53469SOL     OW62303   4.544  14.255   7.970
53469SOL    HW162304   4.597  14.271   7.892
53469SOL    HW262305   4.458  14.229   7.936
53470SOL     OW62306   9.221  14.053  13.694
53470SOL    HW162307   9.314  14.031  13.688
53470SOL    HW262308   9.177  13.968  13.702
53471SOL     OW62309   8.484   7.584   9.390
53471SOL    HW162310   8.425   7.526   9.342
53471SOL    HW262311   8.473   7.670   9.349
53472SOL     OW62312   6.544   4.486   7.234
53472SOL    HW162313   6.469   4.444   7.191
53472SOL    HW262314   6.616   4.425   7.221
53473SOL     OW62315   6.693  14.695  10.128
53473SOL    HW162316   6.699  14.743  10.045
53473SOL    HW262317   6.770  14.638  10.128
53474SOL     OW62318   5.212   1.808   2.933
53474SOL    HW162319   5.276   1.835   2.998
53474SOL    HW262320   5.245   1.724   2.900
53475SOL     OW62321  11.793  10.886  13.429
53475SOL    HW162322  11.715  10.831  13.440
53475SOL    HW262323  11.857  10.849  13.490
53476SOL     OW62324  10.510   4.966  12.879
53476SOL    HW162325  10.484   5.032  12.943
53476SOL    HW262326  10.596   4.935  12.909
53477SOL     OW62327   7.690   6.075   3.983
53477SOL    HW162328   7.603   6.109   4.003
53477SOL    HW262329   7.733   6.067   4.068
53478SOL     OW62330   4.197  13.441   5.447
53478SOL    HW162331   4.205  13.369   5.510
53478SOL    HW262332   4.203  13.398   5.362
53479SOL     OW62333   1.181   0.102   5.873
53479SOL    HW162334   1.270   0.069   5.859
53479SOL    HW262335   1.174   0.112   5.967
53480SOL     OW62336   0.193   7.271   9.008
53480SOL    HW162337   0.277   7.297   9.046
53480SOL    HW262338   0.138   7.349   9.018
53481SOL     OW62339  12.543  13.483   2.035
53481SOL    HW162340  12.569  13.393   2.013
53481SOL    HW262341  12.594  13.538   1.976
53482SOL     OW62342   1.485   7.894   3.657
53482SOL    HW162343   1.442   7.814   3.687
53482SOL    HW262344   1.551   7.864   3.595
53483SOL     OW62345  12.594   4.089   8.200
53483SOL    HW162346  12.580   4.053   8.113
53483SOL    HW262347  12.528   4.047   8.255
53484SOL     OW62348   4.977   8.002   8.201
53484SOL    HW162349   4.943   7.929   8.150
53484SOL    HW262350   5.070   7.985   8.209
53485SOL     OW62351   3.018  12.939   9.827
53485SOL    HW162352   2.993  12.892   9.748
53485SOL    HW262353   3.114  12.940   9.825
53486SOL     OW62354   2.658  10.349  10.973
53486SOL    HW162355   2.731  10.292  10.946
53486SOL    HW262356   2.622  10.306  11.051
53487SOL     OW62357   1.848   4.216   7.126
53487SOL    HW162358   1.788   4.233   7.054
53487SOL    HW262359   1.819   4.273   7.196
53488SOL     OW62360   4.362  14.724   1.242
53488SOL    HW162361   4.412  14.687   1.169
53488SOL    HW262362   4.284  14.668   1.248
53489SOL     OW62363  12.085  12.243   7.060
53489SOL    HW162364  12.120  12.157   7.084
53489SOL    HW262365  12.136  12.269   6.983
53490SOL     OW62366   0.105   7.053   7.955
53490SOL    HW162367   0.035   6.988   7.945
53490SOL    HW262368   0.121   7.085   7.866
53491SOL     OW62369   8.483  14.550   2.148
53491SOL    HW162370   8.472  14.542   2.243
53491SOL    HW262371   8.395  14.542   2.113
53492SOL     OW62372  13.106  11.860  12.792
53492SOL    HW162373  13.182  11.882  12.846
53492SOL    HW262374  13.035  11.914  12.827
53493SOL     OW62375   1.703   6.712   6.008
53493SOL    HW162376   1.607   6.713   6.011
53493SOL    HW262377   1.729   6.795   6.047
53494SOL     OW62378   9.612   0.223   8.852
53494SOL    HW162379   9.697   0.186   8.828
53494SOL    HW262380   9.566   0.152   8.896
53495SOL     OW62381   7.222   9.837  12.748
53495SOL    HW162382   7.251   9.790  12.826
53495SOL    HW262383   7.218   9.770  12.680
53496SOL     OW62384   8.470   2.877  12.445
53496SOL    HW162385   8.390   2.847  12.488
53496SOL    HW262386   8.530   2.802  12.452
53497SOL     OW62387  14.806   1.315   4.279
53497SOL    HW162388  14.759   1.381   4.229
53497SOL    HW262389   0.021   1.333   4.262
53498SOL     OW62390   5.524   7.307   2.021
53498SOL    HW162391   5.532   7.274   1.932
53498SOL    HW262392   5.534   7.230   2.077
53499SOL     OW62393  10.622   4.500   7.654
53499SOL    HW162394  10.709   4.470   7.681
53499SOL    HW262395  10.588   4.546   7.731
53500SOL     OW62396   7.845   4.894  11.719
53500SOL    HW162397   7.858   4.880  11.813
53500SOL    HW262398   7.870   4.985  11.704
53501SOL     OW62399  10.360  13.146   2.802
53501SOL    HW162400  10.448  13.127   2.769
53501SOL    HW262401  10.318  13.060   2.807
53502SOL     OW62402   5.784   2.475   6.173
53502SOL    HW162403   5.778   2.437   6.085
53502SOL    HW262404   5.794   2.399   6.230
53503SOL     OW62405   4.261   3.407  10.996
53503SOL    HW162406   4.341   3.375  11.038
53503SOL    HW262407   4.231   3.335  10.941
53504SOL     OW62408   8.110   1.212  10.602
53504SOL    HW162409   8.200   1.205  10.570
53504SOL    HW262410   8.094   1.306  10.608
53505SOL     OW62411  11.549  10.926  14.789
53505SOL    HW162412  11.609  11.000  14.780
53505SOL    HW262413  11.481  10.957  14.848
53506SOL     OW62414  12.269  10.018  12.160
53506SOL    HW162415  12.220  10.007  12.242
53506SOL    HW262416  12.339  10.079  12.182
53507SOL     OW62417   6.996  11.181   1.489
53507SOL    HW162418   7.070  11.195   1.548
53507SOL    HW262419   7.035  11.146   1.409
53508SOL     OW62420  13.401  14.502   1.419
53508SOL    HW162421  13.306  14.492   1.422
53508SOL    HW262422  13.419  14.535   1.331
53509SOL     OW62423  14.249   3.014   6.655
53509SOL    HW162424  14.200   2.934   6.638
53509SOL    HW262425  14.306   3.024   6.579
53510SOL     OW62426   7.667   9.966   5.458
53510SOL    HW162427   7.668   9.965   5.553
53510SOL    HW262428   7.733  10.030   5.433
53511SOL     OW62429   6.836   3.446   7.111
53511SOL    HW162430   6.923   3.435   7.150
53511SOL    HW262431   6.854   3.473   7.021
53512SOL     OW62432   1.833  14.423   0.021
53512SOL    HW162433   1.852  14.410   0.114
53512SOL    HW262434   1.870  14.346  14.856
53513SOL     OW62435  13.459   8.198   6.254
53513SOL    HW162436  13.481   8.287   6.229
53513SOL    HW262437  13.532   8.168   6.308
53514SOL     OW62438  12.121   0.444   6.195
53514SOL    HW162439  12.132   0.454   6.289
53514SOL    HW262440  12.149   0.354   6.177
53515SOL     OW62441   8.042  11.839   3.524
53515SOL    HW162442   8.088  11.804   3.447
53515SOL    HW262443   7.965  11.884   3.488
53516SOL     OW62444   3.583   3.640  13.129
53516SOL    HW162445   3.570   3.545  13.130
53516SOL    HW262446   3.640   3.657  13.204
53517SOL     OW62447  13.140   7.856  11.735
53517SOL    HW162448  13.051   7.876  11.762
53517SOL    HW262449  13.194   7.877  11.812
53518SOL     OW62450   2.500   2.211  14.061
53518SOL    HW162451   2.518   2.185  14.151
53518SOL    HW262452   2.501   2.307  14.063
53519SOL     OW62453   3.891   9.799  13.699
53519SOL    HW162454   3.947   9.734  13.658
53519SOL    HW262455   3.933   9.883  13.678
53520SOL     OW62456  11.138   5.288   5.637
53520SOL    HW162457  11.138   5.274   5.542
53520SOL    HW262458  11.059   5.339   5.653
53521SOL     OW62459   8.382   8.426  14.129
53521SOL    HW162460   8.310   8.380  14.085
53521SOL    HW262461   8.460   8.399  14.082
53522SOL     OW62462   0.848   1.136   7.412
53522SOL    HW162463   0.941   1.113   7.412
53522SOL    HW262464   0.823   1.132   7.504
53523SOL     OW62465  11.764   9.287   4.711
53523SOL    HW162466  11.801   9.198   4.709
53523SOL    HW262467  11.771   9.314   4.802
53524SOL     OW62468   0.867   0.200  12.839
53524SOL    HW162469   0.902   0.266  12.898
53524SOL    HW262470   0.891   0.231  12.751
53525SOL     OW62471  11.009   5.314  12.495
53525SOL    HW162472  10.953   5.316  12.572
53525SOL    HW262473  10.951   5.336  12.422
53526SOL     OW62474   7.384  13.711  10.651
53526SOL    HW162475   7.447  13.642  10.674
53526SOL    HW262476   7.356  13.688  10.563
53527SOL     OW62477   9.641  12.528   3.078
53527SOL    HW162478   9.619  12.610   3.121
53527SOL    HW262479   9.561  12.502   3.033
53528SOL     OW62480  10.336   4.798   9.159
53528SOL    HW162481  10.424   4.826   9.185
53528SOL    HW262482  10.295   4.877   9.124
53529SOL     OW62483   1.592   0.817   7.032
53529SOL    HW162484   1.589   0.721   7.027
53529SOL    HW262485   1.661   0.836   7.095
53530SOL     OW62486   4.628   8.637  14.047
53530SOL    HW162487   4.662   8.719  14.081
53530SOL    HW262488   4.537   8.657  14.024
53531SOL     OW62489   1.999   2.579   2.971
53531SOL    HW162490   1.909   2.609   2.971
53531SOL    HW262491   2.052   2.659   2.964
53532SOL     OW62492  12.964  10.325   6.214
53532SOL    HW162493  12.924  10.390   6.155
53532SOL    HW262494  13.018  10.377   6.273
53533SOL     OW62495  12.167   1.539  11.285
53533SOL    HW162496  12.182   1.632  11.300
53533SOL    HW262497  12.097   1.516  11.347
53534SOL     OW62498   4.436   2.728   1.544
53534SOL    HW162499   4.476   2.711   1.629
53534SOL    HW262500   4.491   2.797   1.506
53535SOL     OW62501  11.535   0.124  13.853
53535SOL    HW162502  11.572   0.208  13.882
53535SOL    HW262503  11.446   0.124  13.888
53536SOL     OW62504   8.360   4.861   7.876
53536SOL    HW162505   8.404   4.926   7.930
53536SOL    HW262506   8.336   4.908   7.796
53537SOL     OW62507   7.305   8.907   6.441
53537SOL    HW162508   7.261   8.986   6.409
53537SOL    HW262509   7.348   8.935   6.522
53538SOL     OW62510   9.981   5.509   0.943
53538SOL    HW162511   9.999   5.476   1.031
53538SOL    HW262512   9.936   5.438   0.899
53539SOL     OW62513   7.962  12.020   6.822
53539SOL    HW162514   7.919  12.029   6.736
53539SOL    HW262515   7.936  12.099   6.870
53540SOL     OW62516   3.389   7.002  14.067
53540SOL    HW162517   3.423   6.983  13.980
53540SOL    HW262518   3.418   6.929  14.121
53541SOL     OW62519  10.692   9.776   6.304
53541SOL    HW162520  10.671   9.792   6.212
53541SOL    HW262521  10.741   9.694   6.303
53542SOL     OW62522  10.292  14.557  12.162
53542SOL    HW162523  10.311  14.554  12.255
53542SOL    HW262524  10.340  14.634  12.130
53543SOL     OW62525   3.611  10.610   4.306
53543SOL    HW162526   3.686  10.565   4.268
53543SOL    HW262527   3.648  10.685   4.351
53544SOL     OW62528   2.921   7.943  14.629
53544SOL    HW162529   3.013   7.916  14.628
53544SOL    HW262530   2.872   7.862  14.615
53545SOL     OW62531  11.033  14.545   3.943
53545SOL    HW162532  10.985  14.504   4.015
53545SOL    HW262533  11.003  14.498   3.865
53546SOL     OW62534   1.641   2.165  10.399
53546SOL    HW162535   1.566   2.145  10.455
53546SOL    HW262536   1.623   2.253  10.366
53547SOL     OW62537  13.150  10.550   8.391
53547SOL    HW162538  13.203  10.551   8.311
53547SOL    HW262539  13.129  10.642   8.407
53548SOL     OW62540   6.879   8.925   6.620
53548SOL    HW162541   6.896   9.012   6.583
53548SOL    HW262542   6.903   8.864   6.550
53549SOL     OW62543   9.383   2.538   9.218
53549SOL    HW162544   9.383   2.610   9.281
53549SOL    HW262545   9.298   2.545   9.174
53550SOL     OW62546   5.109   3.627   5.562
53550SOL    HW162547   5.080   3.626   5.653
53550SOL    HW262548   5.053   3.691   5.520
53551SOL     OW62549   4.094   0.836   9.499
53551SOL    HW162550   4.127   0.799   9.417
53551SOL    HW262551   4.108   0.767   9.564
53552SOL     OW62552  12.451   3.977  12.995
53552SOL    HW162553  12.357   3.982  13.013
53552SOL    HW262554  12.493   4.005  13.076
53553SOL     OW62555  10.520   8.705   2.913
53553SOL    HW162556  10.584   8.638   2.888
53553SOL    HW262557  10.557   8.745   2.992
53554SOL     OW62558  10.898   8.346   8.141
53554SOL    HW162559  10.850   8.268   8.115
53554SOL    HW262560  10.976   8.347   8.085
53555SOL     OW62561   4.508  12.481  14.867
53555SOL    HW162562   4.595  12.473  14.828
53555SOL    HW262563   4.466  12.551  14.817
53556SOL     OW62564   6.771   0.140  10.726
53556SOL    HW162565   6.757   0.114  10.635
53556SOL    HW262566   6.726   0.224  10.734
53557SOL     OW62567   6.223  11.947   3.676
53557SOL    HW162568   6.238  11.894   3.597
53557SOL    HW262569   6.259  12.033   3.655
53558SOL     OW62570  13.614   9.004   4.159
53558SOL    HW162571  13.525   8.976   4.183
53558SOL    HW262572  13.603   9.050   4.076
53559SOL     OW62573  11.150   4.515   3.817
53559SOL    HW162574  11.061   4.542   3.841
53559SOL    HW262575  11.166   4.558   3.733
53560SOL     OW62576   5.561  10.224   1.961
53560SOL    HW162577   5.477  10.191   1.929
53560SOL    HW262578   5.560  10.207   2.055
53561SOL     OW62579   2.952  12.664   1.434
53561SOL    HW162580   2.964  12.605   1.509
53561SOL    HW262581   2.857  12.674   1.426
53562SOL     OW62582   5.900  14.350  13.222
53562SOL    HW162583   5.922  14.310  13.307
53562SOL    HW262584   5.912  14.279  13.159
53563SOL     OW62585   2.837   3.004   9.612
53563SOL    HW162586   2.928   3.026   9.632
53563SOL    HW262587   2.804   2.965   9.693
53564SOL     OW62588   7.323  13.813  14.420
53564SOL    HW162589   7.266  13.778  14.488
53564SOL    HW262590   7.401  13.844  14.466
53565SOL     OW62591   9.880   0.461   3.872
53565SOL    HW162592   9.930   0.533   3.835
53565SOL    HW262593   9.945   0.390   3.883
53566SOL     OW62594  12.724  13.494   8.777
53566SOL    HW162595  12.714  13.531   8.865
53566SOL    HW262596  12.816  13.468   8.773
53567SOL     OW62597   2.655   2.951   5.384
53567SOL    HW162598   2.724   2.985   5.441
53567SOL    HW262599   2.663   3.004   5.304
53568SOL     OW62600   8.768   3.653  12.885
53568SOL    HW162601   8.698   3.622  12.943
53568SOL    HW262602   8.770   3.747  12.899
53569SOL     OW62603   1.669   6.192  14.187
53569SOL    HW162604   1.728   6.144  14.246
53569SOL    HW262605   1.582   6.176  14.223
53570SOL     OW62606   3.489   4.990  14.044
53570SOL    HW162607   3.492   5.034  13.959
53570SOL    HW262608   3.400   4.956  14.049
53571SOL     OW62609   7.884   7.185   0.906
53571SOL    HW162610   7.965   7.145   0.936
53571SOL    HW262611   7.858   7.243   0.977
53572SOL     OW62612   6.808   2.329   1.516
53572SOL    HW162613   6.740   2.278   1.561
53572SOL    HW262614   6.807   2.295   1.426
53573SOL     OW62615   9.929   3.087   5.413
53573SOL    HW162616   9.993   3.071   5.482
53573SOL    HW262617   9.982   3.093   5.333
53574SOL     OW62618  14.387  14.838   7.124
53574SOL    HW162619  14.375  14.816   7.216
53574SOL    HW262620  14.440   0.041   7.126
53575SOL     OW62621   5.171  11.373  12.256
53575SOL    HW162622   5.243  11.399  12.198
53575SOL    HW262623   5.162  11.279  12.242
53576SOL     OW62624   5.913   2.185  13.830
53576SOL    HW162625   5.909   2.192  13.926
53576SOL    HW262626   5.927   2.092  13.814
53577SOL     OW62627   0.301   0.160  13.495
53577SOL    HW162628   0.334   0.248  13.510
53577SOL    HW262629   0.350   0.128  13.419
53578SOL     OW62630   6.680   1.577  11.060
53578SOL    HW162631   6.599   1.534  11.087
53578SOL    HW262632   6.662   1.670  11.070
53579SOL     OW62633   6.915   5.641   1.462
53579SOL    HW162634   6.932   5.735   1.458
53579SOL    HW262635   6.868   5.622   1.381
53580SOL     OW62636   2.393   0.910   0.146
53580SOL    HW162637   2.336   0.903   0.222
53580SOL    HW262638   2.403   0.820   0.115
53581SOL     OW62639   6.475   1.156  13.918
53581SOL    HW162640   6.391   1.198  13.935
53581SOL    HW262641   6.475   1.078  13.975
53582SOL     OW62642  10.435  13.276   6.227
53582SOL    HW162643  10.436  13.268   6.322
53582SOL    HW262644  10.374  13.208   6.198
53583SOL     OW62645   3.363   6.665   1.019
53583SOL    HW162646   3.422   6.708   0.956
53583SOL    HW262647   3.372   6.572   1.000
53584SOL     OW62648   4.467   5.056  11.866
53584SOL    HW162649   4.489   5.110  11.942
53584SOL    HW262650   4.412   5.112  11.811
53585SOL     OW62651  11.127   7.119   5.164
53585SOL    HW162652  11.201   7.102   5.222
53585SOL    HW262653  11.095   7.205   5.191
53586SOL     OW62654  14.650  12.153   7.177
53586SOL    HW162655  14.699  12.137   7.096
53586SOL    HW262656  14.686  12.235   7.211
53587SOL     OW62657   2.021  14.211  13.220
53587SOL    HW162658   2.052  14.282  13.276
53587SOL    HW262659   2.005  14.253  13.135
53588SOL     OW62660   4.445   0.638  12.164
53588SOL    HW162661   4.451   0.671  12.075
53588SOL    HW262662   4.423   0.545  12.155
53589SOL     OW62663   5.083   0.602   9.162
53589SOL    HW162664   5.136   0.681   9.154
53589SOL    HW262665   4.997   0.634   9.188
53590SOL     OW62666   1.451   3.838   9.565
53590SOL    HW162667   1.461   3.785   9.645
53590SOL    HW262668   1.532   3.888   9.559
53591SOL     OW62669   9.689  13.808  11.223
53591SOL    HW162670   9.731  13.735  11.269
53591SOL    HW262671   9.709  13.885  11.277
53592SOL     OW62672   5.350  10.269   6.341
53592SOL    HW162673   5.274  10.257   6.397
53592SOL    HW262674   5.341  10.201   6.274
53593SOL     OW62675   9.966   3.766  11.648
53593SOL    HW162676   9.894   3.702  11.650
53593SOL    HW262677   9.983   3.786  11.739
53594SOL     OW62678   6.497   1.807  10.258
53594SOL    HW162679   6.402   1.798  10.267
53594SOL    HW262680   6.532   1.776  10.342
53595SOL     OW62681   0.014   1.710   8.090
53595SOL    HW162682   0.053   1.752   8.013
53595SOL    HW262683  14.864   1.782   8.146
53596SOL     OW62684   5.541   2.968   2.628
53596SOL    HW162685   5.473   3.001   2.686
53596SOL    HW262686   5.608   2.932   2.687
53597SOL     OW62687   9.721   1.143   8.148
53597SOL    HW162688   9.710   1.049   8.132
53597SOL    HW262689   9.786   1.171   8.083
53598SOL     OW62690   8.485   7.169   6.464
53598SOL    HW162691   8.553   7.175   6.396
53598SOL    HW262692   8.404   7.156   6.415
53599SOL     OW62693   8.126   0.426   5.485
53599SOL    HW162694   8.159   0.336   5.480
53599SOL    HW262695   8.192   0.473   5.536
53600SOL     OW62696  11.645   2.855   8.879
53600SOL    HW162697  11.680   2.785   8.934
53600SOL    HW262698  11.571   2.816   8.834
53601SOL     OW62699   9.998   4.317   3.879
53601SOL    HW162700  10.032   4.382   3.941
53601SOL    HW262701   9.904   4.316   3.895
53602SOL     OW62702   0.010  10.475   2.307
53602SOL    HW162703   0.082  10.492   2.247
53602SOL    HW262704  14.828  10.548   2.294
53603SOL     OW62705   5.159  10.580   2.890
53603SOL    HW162706   5.150  10.488   2.914
53603SOL    HW262707   5.073  10.618   2.910
53604SOL     OW62708   2.067  10.775  12.497
53604SOL    HW162709   2.051  10.778  12.403
53604SOL    HW262710   1.991  10.729  12.534
53605SOL     OW62711   3.671   1.052  12.434
53605SOL    HW162712   3.665   1.017  12.523
53605SOL    HW262713   3.698   1.143  12.445
53606SOL     OW62714   4.846  12.562  11.061
53606SOL    HW162715   4.922  12.537  11.009
53606SOL    HW262716   4.877  12.635  11.114
53607SOL     OW62717   5.603  13.275   2.000
53607SOL    HW162718   5.637  13.234   1.921
53607SOL    HW262719   5.555  13.352   1.969
53608SOL     OW62720   8.575   6.466   0.257
53608SOL    HW162721   8.482   6.482   0.272
53608SOL    HW262722   8.591   6.498   0.168
53609SOL     OW62723   3.014   2.270  12.781
53609SOL    HW162724   3.003   2.355  12.738
53609SOL    HW262725   2.927   2.249  12.815
53610SOL     OW62726   5.260   4.628   5.625
53610SOL    HW162727   5.223   4.565   5.564
53610SOL    HW262728   5.189   4.690   5.643
53611SOL     OW62729  14.246   5.296  10.534
53611SOL    HW162730  14.158   5.265  10.511
53611SOL    HW262731  14.252   5.282  10.628
53612SOL     OW62732   0.947   5.941   7.257
53612SOL    HW162733   0.990   5.860   7.229
53612SOL    HW262734   1.018   5.994   7.293
53613SOL     OW62735   5.949  14.679   7.713
53613SOL    HW162736   5.977  14.607   7.768
53613SOL    HW262737   5.875  14.718   7.760
53614SOL     OW62738  11.138  13.413   9.820
53614SOL    HW162739  11.157  13.384   9.909
53614SOL    HW262740  11.100  13.336   9.777
53615SOL     OW62741   5.065   8.682  12.563
53615SOL    HW162742   5.088   8.647  12.477
53615SOL    HW262743   5.143   8.730  12.591
53616SOL     OW62744  14.535   1.011   6.449
53616SOL    HW162745  14.520   1.065   6.526
53616SOL    HW262746  14.557   1.074   6.380
53617SOL     OW62747   3.468   0.409   5.841
53617SOL    HW162748   3.522   0.367   5.774
53617SOL    HW262749   3.405   0.461   5.791
53618SOL     OW62750  11.908  11.113   6.581
53618SOL    HW162751  11.834  11.173   6.577
53618SOL    HW262752  11.983  11.164   6.551
53619SOL     OW62753   3.018  10.807   7.806
53619SOL    HW162754   3.067  10.767   7.734
53619SOL    HW262755   3.079  10.807   7.880
53620SOL     OW62756   6.499  11.850   6.174
53620SOL    HW162757   6.407  11.830   6.159
53620SOL    HW262758   6.547  11.774   6.142
53621SOL     OW62759   1.062  10.841   2.705
53621SOL    HW162760   1.031  10.795   2.627
53621SOL    HW262761   1.022  10.794   2.778
53622SOL     OW62762   8.057   5.583  12.059
53622SOL    HW162763   7.997   5.623  12.121
53622SOL    HW262764   8.049   5.637  11.980
53623SOL     OW62765  13.119  10.192   2.524
53623SOL    HW162766  13.026  10.173   2.525
53623SOL    HW262767  13.124  10.288   2.518
53624SOL     OW62768   1.775   0.775   4.905
53624SOL    HW162769   1.751   0.723   4.828
53624SOL    HW262770   1.790   0.863   4.871
53625SOL     OW62771  13.322   1.580   7.083
53625SOL    HW162772  13.338   1.667   7.118
53625SOL    HW262773  13.230   1.562   7.105
53626SOL     OW62774   6.711   1.132   4.971
53626SOL    HW162775   6.628   1.106   4.932
53626SOL    HW262776   6.777   1.104   4.908
53627SOL     OW62777   6.955   7.906  14.522
53627SOL    HW162778   6.979   7.928  14.611
53627SOL    HW262779   6.991   7.818  14.508
53628SOL     OW62780   0.041   6.312  10.758
53628SOL    HW162781  14.868   6.322  10.678
53628SOL    HW262782   0.065   6.219  10.760
53629SOL     OW62783  10.951   9.360   5.110
53629SOL    HW162784  10.880   9.306   5.145
53629SOL    HW262785  10.939   9.445   5.153
53630SOL     OW62786  10.398   4.427   3.816
53630SOL    HW162787  10.458   4.355   3.835
53630SOL    HW262788  10.428   4.499   3.870
53631SOL     OW62789   8.512   8.665   7.733
53631SOL    HW162790   8.444   8.733   7.734
53631SOL    HW262791   8.465   8.584   7.756
53632SOL     OW62792  12.070  12.467   0.320
53632SOL    HW162793  12.092  12.557   0.346
53632SOL    HW262794  12.121  12.452   0.240
53633SOL     OW62795  13.540  11.290  11.529
53633SOL    HW162796  13.586  11.369  11.499
53633SOL    HW262797  13.519  11.309  11.621
53634SOL     OW62798   0.583  11.711  12.341
53634SOL    HW162799   0.574  11.672  12.428
53634SOL    HW262800   0.667  11.758  12.344
53635SOL     OW62801   0.528  13.516   3.166
53635SOL    HW162802   0.437  13.536   3.143
53635SOL    HW262803   0.528  13.514   3.262
53636SOL     OW62804   3.648   4.210   3.660
53636SOL    HW162805   3.695   4.151   3.601
53636SOL    HW262806   3.663   4.173   3.748
53637SOL     OW62807   0.477   5.486   1.950
53637SOL    HW162808   0.448   5.554   1.889
53637SOL    HW262809   0.398   5.435   1.968
53638SOL     OW62810   3.042  12.741   7.613
53638SOL    HW162811   2.958  12.713   7.577
53638SOL    HW262812   3.075  12.805   7.550
53639SOL     OW62813   4.266   0.261   1.947
53639SOL    HW162814   4.313   0.310   1.879
53639SOL    HW262815   4.314   0.281   2.028
53640SOL     OW62816  13.241   3.318   7.034
53640SOL    HW162817  13.226   3.324   7.128
53640SOL    HW262818  13.274   3.229   7.021
53641SOL     OW62819   7.001  13.843   8.998
53641SOL    HW162820   6.920  13.836   8.948
53641SOL    HW262821   6.977  13.819   9.087
53642SOL     OW62822   0.952   5.203  12.207
53642SOL    HW162823   0.921   5.158  12.285
53642SOL    HW262824   1.027   5.255  12.238
53643SOL     OW62825   8.969   6.595   4.063
53643SOL    HW162826   8.918   6.538   4.006
53643SOL    HW262827   8.912   6.612   4.138
53644SOL     OW62828  10.714   2.696   2.005
53644SOL    HW162829  10.729   2.790   2.010
53644SOL    HW262830  10.657   2.677   2.079
53645SOL     OW62831   3.555   4.665   8.160
53645SOL    HW162832   3.489   4.732   8.145
53645SOL    HW262833   3.514   4.604   8.222
53646SOL     OW62834  13.835   4.449  12.276
53646SOL    HW162835  13.856   4.542  12.291
53646SOL    HW262836  13.889   4.425  12.201
53647SOL     OW62837  14.868   3.309   7.928
53647SOL    HW162838  14.871   3.260   8.010
53647SOL    HW262839  14.775   3.324   7.912
53648SOL     OW62840   5.428   0.593   6.986
53648SOL    HW162841   5.444   0.674   6.937
53648SOL    HW262842   5.509   0.578   7.034
53649SOL     OW62843   1.610   4.403   3.267
53649SOL    HW162844   1.539   4.401   3.203
53649SOL    HW262845   1.632   4.496   3.276
53650SOL     OW62846  13.340  13.562   9.843
53650SOL    HW162847  13.404  13.490   9.847
53650SOL    HW262848  13.360  13.607   9.761
53651SOL     OW62849   7.835   7.975   0.208
53651SOL    HW162850   7.871   8.055   0.170
53651SOL    HW262851   7.747   7.968   0.171
53652SOL     OW62852  14.046   1.314  11.578
53652SOL    HW162853  14.057   1.395  11.528
53652SOL    HW262854  13.980   1.336  11.644
53653SOL     OW62855  13.697   6.583   9.266
53653SOL    HW162856  13.746   6.607   9.188
53653SOL    HW262857  13.672   6.491   9.251
53654SOL     OW62858   5.271   9.637  11.910
53654SOL    HW162859   5.339   9.579  11.945
53654SOL    HW262860   5.300   9.656  11.820
53655SOL     OW62861   7.427  12.387   0.516
53655SOL    HW162862   7.340  12.348   0.508
53655SOL    HW262863   7.474  12.328   0.576
53656SOL     OW62864   1.210   9.658   4.260
53656SOL    HW162865   1.145   9.589   4.275
53656SOL    HW262866   1.290   9.625   4.300
53657SOL     OW62867   3.664   1.778   3.593
53657SOL    HW162868   3.617   1.784   3.676
53657SOL    HW262869   3.640   1.691   3.559
53658SOL     OW62870  10.285  11.144   6.847
53658SOL    HW162871  10.194  11.136   6.820
53658SOL    HW262872  10.281  11.156   6.942
53659SOL     OW62873   9.399   9.925   3.101
53659SOL    HW162874   9.465   9.905   3.167
53659SOL    HW262875   9.416  10.016   3.077
53660SOL     OW62876   1.779   5.624  13.253
53660SOL    HW162877   1.839   5.593  13.185
53660SOL    HW262878   1.809   5.713  13.273
53661SOL     OW62879   2.159  13.556  11.410
53661SOL    HW162880   2.063  13.554  11.421
53661SOL    HW262881   2.193  13.544  11.499
53662SOL     OW62882   8.307   2.935  12.163
53662SOL    HW162883   8.349   3.000  12.108
53662SOL    HW262884   8.369   2.918  12.234
53663SOL     OW62885   7.560   8.337  11.237
53663SOL    HW162886   7.644   8.367  11.272
53663SOL    HW262887   7.497   8.401  11.269
53664SOL     OW62888   1.415   4.301   7.443
53664SOL    HW162889   1.387   4.335   7.359
53664SOL    HW262890   1.334   4.283   7.491
53665SOL     OW62891   0.190   2.544  10.411
53665SOL    HW162892   0.117   2.489  10.381
53665SOL    HW262893   0.190   2.619  10.352
53666SOL     OW62894  12.658   5.759  10.396
53666SOL    HW162895  12.568   5.785  10.416
53666SOL    HW262896  12.649   5.686  10.335
53667SOL     OW62897   9.337   5.513   6.975
53667SOL    HW162898   9.386   5.496   7.056
53667SOL    HW262899   9.281   5.436   6.964
53668SOL     OW62900   1.526  10.843   4.212
53668SOL    HW162901   1.438  10.876   4.197
53668SOL    HW262902   1.581  10.897   4.155
53669SOL     OW62903  12.221   1.498   6.872
53669SOL    HW162904  12.138   1.532   6.840
53669SOL    HW262905  12.218   1.510   6.967
53670SOL     OW62906   8.073   2.817  10.871
53670SOL    HW162907   8.124   2.760  10.813
53670SOL    HW262908   8.138   2.874  10.911
53671SOL     OW62909   1.856  13.396   1.127
53671SOL    HW162910   1.785  13.401   1.062
53671SOL    HW262911   1.924  13.345   1.084
53672SOL     OW62912  11.539  13.229   6.654
53672SOL    HW162913  11.480  13.305   6.653
53672SOL    HW262914  11.483  13.156   6.679
53673SOL     OW62915   7.800  11.898  13.740
53673SOL    HW162916   7.732  11.871  13.801
53673SOL    HW262917   7.759  11.893  13.654
53674SOL     OW62918  14.308  10.991  13.067
53674SOL    HW162919  14.334  10.999  13.159
53674SOL    HW262920  14.282  11.079  13.041
53675SOL     OW62921   9.489   6.135   1.845
53675SOL    HW162922   9.536   6.191   1.907
53675SOL    HW262923   9.460   6.195   1.776
53676SOL     OW62924  12.261  13.098   8.957
53676SOL    HW162925  12.316  13.031   8.996
53676SOL    HW262926  12.230  13.150   9.031
53677SOL     OW62927  11.556   9.659   7.663
53677SOL    HW162928  11.486   9.594   7.659
53677SOL    HW262929  11.520   9.736   7.619
53678SOL     OW62930  12.357   4.791  11.077
53678SOL    HW162931  12.349   4.828  11.165
53678SOL    HW262932  12.268   4.796  11.041
53679SOL     OW62933   0.911   0.704   9.807
53679SOL    HW162934   0.910   0.728   9.715
53679SOL    HW262935   0.863   0.775   9.851
53680SOL     OW62936   0.915   3.346  12.999
53680SOL    HW162937   0.988   3.314  13.051
53680SOL    HW262938   0.933   3.317  12.910
53681SOL     OW62939  13.908  13.303   3.348
53681SOL    HW162940  13.878  13.369   3.411
53681SOL    HW262941  13.833  13.291   3.289
53682SOL     OW62942   4.162  12.202   5.844
53682SOL    HW162943   4.167  12.196   5.939
53682SOL    HW262944   4.084  12.254   5.827
53683SOL     OW62945   6.689   4.871   5.345
53683SOL    HW162946   6.766   4.869   5.288
53683SOL    HW262947   6.642   4.791   5.324
53684SOL     OW62948   5.632   3.713  13.823
53684SOL    HW162949   5.578   3.636  13.840
53684SOL    HW262950   5.650   3.710  13.729
53685SOL     OW62951   8.044  14.608   4.071
53685SOL    HW162952   8.021  14.633   4.161
53685SOL    HW262953   7.961  14.582   4.031
53686SOL     OW62954   7.224   1.907   9.026
53686SOL    HW162955   7.253   1.942   8.942
53686SOL    HW262956   7.232   1.980   9.087
53687SOL     OW62957   9.795   3.249   5.836
53687SOL    HW162958   9.805   3.185   5.765
53687SOL    HW262959   9.788   3.333   5.790
53688SOL     OW62960  10.079   9.625   6.522
53688SOL    HW162961   9.988   9.596   6.519
53688SOL    HW262962  10.080   9.697   6.585
53689SOL     OW62963   7.827  14.866   4.287
53689SOL    HW162964   7.756  14.805   4.303
53689SOL    HW262965   7.906  14.813   4.294
53690SOL     OW62966   2.402   9.473   2.815
53690SOL    HW162967   2.440   9.424   2.887
53690SOL    HW262968   2.465   9.542   2.796
53691SOL     OW62969   8.708   4.958   8.376
53691SOL    HW162970   8.762   4.953   8.297
53691SOL    HW262971   8.631   4.905   8.355
53692SOL     OW62972   1.150  11.093  12.620
53692SOL    HW162973   1.159  11.049  12.704
53692SOL    HW262974   1.233  11.077  12.575
53693SOL     OW62975  13.199  10.784   3.626
53693SOL    HW162976  13.154  10.867   3.639
53693SOL    HW262977  13.291  10.803   3.645
53694SOL     OW62978  10.859  10.345   3.574
53694SOL    HW162979  10.909  10.283   3.521
53694SOL    HW262980  10.924  10.408   3.605
53695SOL     OW62981   6.509   3.753  13.631
53695SOL    HW162982   6.466   3.773  13.548
53695SOL    HW262983   6.477   3.819  13.692
53696SOL     OW62984   9.519  14.291   1.176
53696SOL    HW162985   9.575  14.329   1.244
53696SOL    HW262986   9.499  14.203   1.209
53697SOL     OW62987  10.750  12.306  14.648
53697SOL    HW162988  10.752  12.214  14.620
53697SOL    HW262989  10.658  12.325  14.664
53698SOL     OW62990   0.864  13.621   2.762
53698SOL    HW162991   0.904  13.645   2.678
53698SOL    HW262992   0.839  13.529   2.750
53699SOL     OW62993   4.544   3.438  11.742
53699SOL    HW162994   4.552   3.418  11.649
53699SOL    HW262995   4.547   3.533  11.747
53700SOL     OW62996   5.506  12.733   9.807
53700SOL    HW162997   5.496  12.652   9.857
53700SOL    HW262998   5.585  12.720   9.755
53701SOL     OW62999   4.280   3.774  12.208
53701SOL    HW163000   4.229   3.755  12.287
53701SOL    HW263001   4.367   3.796  12.241
53702SOL     OW63002   8.776   7.869   7.711
53702SOL    HW163003   8.681   7.856   7.718
53702SOL    HW263004   8.803   7.895   7.799
53703SOL     OW63005   3.238   8.493  12.090
53703SOL    HW163006   3.170   8.556  12.066
53703SOL    HW263007   3.255   8.510  12.183
53704SOL     OW63008  10.355   9.755  10.304
53704SOL    HW163009  10.324   9.801  10.226
53704SOL    HW263010  10.283   9.762  10.366
53705SOL     OW63011   5.679   2.520   1.298
53705SOL    HW163012   5.623   2.472   1.358
53705SOL    HW263013   5.685   2.464   1.220
53706SOL     OW63014   3.358   9.887  10.914
53706SOL    HW163015   3.399   9.859  10.832
53706SOL    HW263016   3.366   9.811  10.972
53707SOL     OW63017   2.851   0.463   2.729
53707SOL    HW163018   2.889   0.420   2.652
53707SOL    HW263019   2.914   0.529   2.755
53708SOL     OW63020   6.416   3.161  14.321
53708SOL    HW163021   6.334   3.203  14.293
53708SOL    HW263022   6.388   3.091  14.379
53709SOL     OW63023   5.245  14.605   2.271
53709SOL    HW163024   5.273  14.546   2.201
53709SOL    HW263025   5.165  14.565   2.306
53710SOL     OW63026   1.691   4.838   9.722
53710SOL    HW163027   1.780   4.868   9.741
53710SOL    HW263028   1.659   4.806   9.807
53711SOL     OW63029  14.484   9.615   1.198
53711SOL    HW163030  14.512   9.702   1.169
53711SOL    HW263031  14.558   9.558   1.176
53712SOL     OW63032   3.622   7.161   8.085
53712SOL    HW163033   3.632   7.250   8.051
53712SOL    HW263034   3.613   7.106   8.008
53713SOL     OW63035   8.522  13.154   0.922
53713SOL    HW163036   8.549  13.223   0.862
53713SOL    HW263037   8.504  13.078   0.866
53714SOL     OW63038   3.932   2.525   2.761
53714SOL    HW163039   3.899   2.572   2.838
53714SOL    HW263040   3.856   2.478   2.728
53715SOL     OW63041   2.112  12.443   1.324
53715SOL    HW163042   2.024  12.414   1.301
53715SOL    HW263043   2.098  12.503   1.398
53716SOL     OW63044   9.440   5.363  13.205
53716SOL    HW163045   9.419   5.452  13.231
53716SOL    HW263046   9.452   5.316  13.288
53717SOL     OW63047   8.654   3.670   7.864
53717SOL    HW163048   8.575   3.616   7.873
53717SOL    HW263049   8.723   3.608   7.839
53718SOL     OW63050   1.256   5.464   0.777
53718SOL    HW163051   1.286   5.380   0.743
53718SOL    HW263052   1.188   5.441   0.841
53719SOL     OW63053  13.696   2.790   9.358
53719SOL    HW163054  13.630   2.840   9.405
53719SOL    HW263055  13.740   2.739   9.426
53720SOL     OW63056   1.675   2.857   0.284
53720SOL    HW163057   1.594   2.826   0.324
53720SOL    HW263058   1.678   2.814   0.199
53721SOL     OW63059   9.369   3.785   9.917
53721SOL    HW163060   9.344   3.864   9.965
53721SOL    HW263061   9.305   3.779   9.846
53722SOL     OW63062  13.233  14.228   1.368
53722SOL    HW163063  13.236  14.134   1.384
53722SOL    HW263064  13.148  14.256   1.402
53723SOL     OW63065  13.439   5.577   9.583
53723SOL    HW163066  13.410   5.644   9.521
53723SOL    HW263067  13.532   5.596   9.597
53724SOL     OW63068   7.510   6.981   6.288
53724SOL    HW163069   7.528   6.888   6.273
53724SOL    HW263070   7.528   6.994   6.381
53725SOL     OW63071   2.561   6.516   0.684
53725SOL    HW163072   2.519   6.505   0.769
53725SOL    HW263073   2.619   6.591   0.695
53726SOL     OW63074   5.608   7.733   4.871
53726SOL    HW163075   5.570   7.805   4.821
53726SOL    HW263076   5.698   7.728   4.840
53727SOL     OW63077   9.090  13.611  12.115
53727SOL    HW163078   9.013  13.577  12.161
53727SOL    HW263079   9.065  13.609  12.023
53728SOL     OW63080  10.741   2.816   8.489
53728SOL    HW163081  10.800   2.769   8.430
53728SOL    HW263082  10.703   2.885   8.435
53729SOL     OW63083   5.109  11.575   4.294
53729SOL    HW163084   5.153  11.658   4.316
53729SOL    HW263085   5.128  11.562   4.201
53730SOL     OW63086   2.372  10.789  11.335
53730SOL    HW163087   2.285  10.817  11.306
53730SOL    HW263088   2.433  10.839  11.281
53731SOL     OW63089  14.417   0.045   0.426
53731SOL    HW163090  14.495  14.869   0.436
53731SOL    HW263091  14.450   0.130   0.397
53732SOL     OW63092  10.795   9.492  10.372
53732SOL    HW163093  10.717   9.504  10.317
53732SOL    HW263094  10.771   9.531  10.456
53733SOL     OW63095   9.738   9.573  13.656
53733SOL    HW163096   9.732   9.479  13.640
53733SOL    HW263097   9.678   9.589  13.729
53734SOL     OW63098   9.237  12.835   3.046
53734SOL    HW163099   9.180  12.885   2.988
53734SOL    HW263100   9.190  12.753   3.061
53735SOL     OW63101   5.599   8.615   2.623
53735SOL    HW163102   5.609   8.531   2.580
53735SOL    HW263103   5.517   8.650   2.589
53736SOL     OW63104   4.687   1.334  14.280
53736SOL    HW163105   4.691   1.318  14.186
53736SOL    HW263106   4.594   1.341  14.300
53737SOL     OW63107   1.035   0.741   7.258
53737SOL    HW163108   1.000   0.652   7.251
53737SOL    HW263109   1.008   0.784   7.177
53738SOL     OW63110  13.535   7.973   0.998
53738SOL    HW163111  13.463   7.913   0.977
53738SOL    HW263112  13.506   8.057   0.964
53739SOL     OW63113  13.074   1.489  10.938
53739SOL    HW163114  13.127   1.525  11.009
53739SOL    HW263115  13.038   1.566  10.894
53740SOL     OW63116  11.711  10.146   1.042
53740SOL    HW163117  11.632  10.175   0.998
53740SOL    HW263118  11.727  10.058   1.008
53741SOL     OW63119  11.205   9.833   8.353
53741SOL    HW163120  11.255   9.907   8.318
53741SOL    HW263121  11.191   9.775   8.278
53742SOL     OW63122  13.236  13.877   3.934
53742SOL    HW163123  13.241  13.811   3.865
53742SOL    HW263124  13.159  13.853   3.985
53743SOL     OW63125   8.808   4.611   0.535
53743SOL    HW163126   8.719   4.593   0.504
53743SOL    HW263127   8.839   4.683   0.480
53744SOL     OW63128  14.043  13.977   9.466
53744SOL    HW163129  14.068  14.017   9.549
53744SOL    HW263130  13.990  13.901   9.490
53745SOL     OW63131   1.947   0.423  11.450
53745SOL    HW163132   1.945   0.387  11.539
53745SOL    HW263133   1.967   0.348  11.394
53746SOL     OW63134  14.359   1.914  10.189
53746SOL    HW163135  14.350   1.958  10.273
53746SOL    HW263136  14.453   1.913  10.173
53747SOL     OW63137   0.567  12.299   1.109
53747SOL    HW163138   0.480  12.259   1.106
53747SOL    HW263139   0.614  12.258   1.036
53748SOL     OW63140  10.293   9.475   8.548
53748SOL    HW163141  10.335   9.500   8.630
53748SOL    HW263142  10.214   9.528   8.544
53749SOL     OW63143   4.270   6.014   3.495
53749SOL    HW163144   4.260   6.101   3.456
53749SOL    HW263145   4.349   5.978   3.453
53750SOL     OW63146   9.566   2.653   1.625
53750SOL    HW163147   9.497   2.711   1.659
53750SOL    HW263148   9.531   2.621   1.542
53751SOL     OW63149   1.135   6.971   0.527
53751SOL    HW163150   1.157   6.938   0.614
53751SOL    HW263151   1.219   6.976   0.481
53752SOL     OW63152  10.705  14.188  13.186
53752SOL    HW163153  10.760  14.245  13.131
53752SOL    HW263154  10.624  14.177  13.136
53753SOL     OW63155  12.489   5.253   9.273
53753SOL    HW163156  12.505   5.323   9.210
53753SOL    HW263157  12.538   5.279   9.351
53754SOL     OW63158   3.246  11.585   2.188
53754SOL    HW163159   3.189  11.509   2.187
53754SOL    HW263160   3.282  11.587   2.276
53755SOL     OW63161   2.117  10.438   9.194
53755SOL    HW163162   2.115  10.343   9.186
53755SOL    HW263163   2.140  10.469   9.106
53756SOL     OW63164  13.934   1.972   4.659
53756SOL    HW163165  13.906   1.929   4.740
53756SOL    HW263166  13.943   1.901   4.596
53757SOL     OW63167   2.656   5.069   9.516
53757SOL    HW163168   2.730   5.126   9.498
53757SOL    HW263169   2.646   5.018   9.435
53758SOL     OW63170   2.151   3.769   2.258
53758SOL    HW163171   2.095   3.844   2.238
53758SOL    HW263172   2.099   3.693   2.232
53759SOL     OW63173  12.812   0.299   4.342
53759SOL    HW163174  12.795   0.327   4.432
53759SOL    HW263175  12.904   0.322   4.327
53760SOL     OW63176   5.678   2.067   3.921
53760SOL    HW163177   5.735   2.134   3.883
53760SOL    HW263178   5.657   2.100   4.008
53761SOL     OW63179   2.411   0.342  11.478
53761SOL    HW163180   2.504   0.341  11.455
53761SOL    HW263181   2.366   0.351  11.394
53762SOL     OW63182   7.353  12.207  11.195
53762SOL    HW163183   7.288  12.144  11.163
53762SOL    HW263184   7.341  12.207  11.290
53763SOL     OW63185   2.578   0.822  10.352
53763SOL    HW163186   2.539   0.907  10.333
53763SOL    HW263187   2.668   0.842  10.379
53764SOL     OW63188   7.874  10.177  11.885
53764SOL    HW163189   7.954  10.195  11.836
53764SOL    HW263190   7.900  10.113  11.950
53765SOL     OW63191   8.163   0.461   6.195
53765SOL    HW163192   8.188   0.554   6.201
53765SOL    HW263193   8.076   0.463   6.155
53766SOL     OW63194   4.706  13.099   4.769
53766SOL    HW163195   4.641  13.108   4.839
53766SOL    HW263196   4.665  13.037   4.707
53767SOL     OW63197   1.125  14.586   5.671
53767SOL    HW163198   1.153  14.648   5.739
53767SOL    HW263199   1.040  14.554   5.701
53768SOL     OW63200   8.546   8.644   0.300
53768SOL    HW163201   8.559   8.739   0.300
53768SOL    HW263202   8.495   8.627   0.379
53769SOL     OW63203   5.097   5.045   2.418
53769SOL    HW163204   5.189   5.027   2.396
53769SOL    HW263205   5.048   4.978   2.372
53770SOL     OW63206   0.247   3.433   6.711
53770SOL    HW163207   0.274   3.521   6.738
53770SOL    HW263208   0.152   3.433   6.721
53771SOL     OW63209   4.273  12.299   4.692
53771SOL    HW163210   4.255  12.374   4.635
53771SOL    HW263211   4.368  12.298   4.701
53772SOL     OW63212   9.678   3.423   1.269
53772SOL    HW163213   9.668   3.354   1.335
53772SOL    HW263214   9.636   3.387   1.191
53773SOL     OW63215  12.275   8.977  14.240
53773SOL    HW163216  12.332   9.003  14.313
53773SOL    HW263217  12.197   9.031  14.251
53774SOL     OW63218   4.455   4.140   2.790
53774SOL    HW163219   4.512   4.175   2.858
53774SOL    HW263220   4.393   4.084   2.837
53775SOL     OW63221  10.240  13.937  12.159
53775SOL    HW163222  10.180  14.012  12.160
53775SOL    HW263223  10.188  13.864  12.191
53776SOL     OW63224  12.827   4.468  12.850
53776SOL    HW163225  12.753   4.419  12.814
53776SOL    HW263226  12.832   4.547  12.797
53777SOL     OW63227   2.050  11.103  12.516
53777SOL    HW163228   2.129  11.073  12.471
53777SOL    HW263229   1.991  11.028  12.514
53778SOL     OW63230   7.693  14.036   1.244
53778SOL    HW163231   7.708  13.944   1.266
53778SOL    HW263232   7.599  14.041   1.226
53779SOL     OW63233   1.445   2.702   5.821
53779SOL    HW163234   1.509   2.691   5.891
53779SOL    HW263235   1.406   2.616   5.810
53780SOL     OW63236  13.785  14.062  12.423
53780SOL    HW163237  13.755  14.031  12.337
53780SOL    HW263238  13.751  13.997  12.484
53781SOL     OW63239   0.201   3.728  13.777
53781SOL    HW163240   0.159   3.732  13.862
53781SOL    HW263241   0.183   3.640  13.745
53782SOL     OW63242  11.950   0.667  14.260
53782SOL    HW163243  12.001   0.740  14.226
53782SOL    HW263244  11.872   0.664  14.204
53783SOL     OW63245  11.278   8.182   5.275
53783SOL    HW163246  11.257   8.217   5.362
53783SOL    HW263247  11.259   8.255   5.216
53784SOL     OW63248   2.628   9.743   0.973
53784SOL    HW163249   2.570   9.761   0.898
53784SOL    HW263250   2.645   9.649   0.967
53785SOL     OW63251   4.846   2.104   2.845
53785SOL    HW163252   4.868   2.072   2.758
53785SOL    HW263253   4.926   2.092   2.896
53786SOL     OW63254   1.320  11.386  12.357
53786SOL    HW163255   1.364  11.370  12.441
53786SOL    HW263256   1.232  11.350  12.369
53787SOL     OW63257   7.173  12.271   9.845
53787SOL    HW163258   7.103  12.278   9.780
53787SOL    HW263259   7.142  12.205   9.907
53788SOL     OW63260   0.390   6.505   1.437
53788SOL    HW163261   0.449   6.437   1.468
53788SOL    HW263262   0.444   6.584   1.435
53789SOL     OW63263   1.510   5.329  12.350
53789SOL    HW163264   1.547   5.293  12.269
53789SOL    HW263265   1.439   5.385  12.321
53790SOL     OW63266  11.749  14.767   8.405
53790SOL    HW163267  11.718  14.857   8.412
53790SOL    HW263268  11.671  14.716   8.383
53791SOL     OW63269  14.347   0.145  10.247
53791SOL    HW163270  14.267   0.179  10.208
53791SOL    HW263271  14.417   0.181  10.194
53792SOL     OW63272   0.221   6.416   0.563
53792SOL    HW163273   0.150   6.386   0.507
53792SOL    HW263274   0.224   6.510   0.551
53793SOL     OW63275   1.853   9.789  12.850
53793SOL    HW163276   1.866   9.745  12.765
53793SOL    HW263277   1.837   9.717  12.911
53794SOL     OW63278   5.870  10.353   2.658
53794SOL    HW163279   5.961  10.324   2.668
53794SOL    HW263280   5.849  10.391   2.744
53795SOL     OW63281   4.057  10.899   9.463
53795SOL    HW163282   4.151  10.914   9.470
53795SOL    HW263283   4.045  10.849   9.382
53796SOL     OW63284   5.338   7.731  13.760
53796SOL    HW163285   5.360   7.702  13.672
53796SOL    HW263286   5.396   7.805  13.777
53797SOL     OW63287   5.736   6.808   3.514
53797SOL    HW163288   5.794   6.749   3.562
53797SOL    HW263289   5.764   6.801   3.423
53798SOL     OW63290   7.808   6.093   1.902
53798SOL    HW163291   7.770   6.174   1.868
53798SOL    HW263292   7.895   6.089   1.864
53799SOL     OW63293   9.131   6.419   9.516
53799SOL    HW163294   9.106   6.339   9.562
53799SOL    HW263295   9.083   6.489   9.563
53800SOL     OW63296   7.830   2.169   4.753
53800SOL    HW163297   7.755   2.111   4.766
53800SOL    HW263298   7.811   2.245   4.808
53801SOL     OW63299   7.362  10.278   0.706
53801SOL    HW163300   7.269  10.288   0.684
53801SOL    HW263301   7.376  10.184   0.711
53802SOL     OW63302   0.255   2.170   4.463
53802SOL    HW163303   0.333   2.161   4.407
53802SOL    HW263304   0.248   2.085   4.506
53803SOL     OW63305  13.493  10.061   1.770
53803SOL    HW163306  13.564  10.033   1.712
53803SOL    HW263307  13.414  10.049   1.718
53804SOL     OW63308   9.105   6.605   6.578
53804SOL    HW163309   9.037   6.637   6.638
53804SOL    HW263310   9.076   6.517   6.554
53805SOL     OW63311   0.685  11.784  11.112
53805SOL    HW163312   0.764  11.819  11.153
53805SOL    HW263313   0.624  11.858  11.111
53806SOL     OW63314   9.631  11.696   6.384
53806SOL    HW163315   9.544  11.673   6.417
53806SOL    HW263316   9.615  11.768   6.324
53807SOL     OW63317   3.752   4.752   4.881
53807SOL    HW163318   3.668   4.713   4.855
53807SOL    HW263319   3.728   4.831   4.929
53808SOL     OW63320  11.729   8.166   4.080
53808SOL    HW163321  11.635   8.157   4.071
53808SOL    HW263322  11.753   8.103   4.148
53809SOL     OW63323  10.572   2.274  11.228
53809SOL    HW163324  10.519   2.248  11.153
53809SOL    HW263325  10.533   2.228  11.302
53810SOL     OW63326   0.400   5.987   8.899
53810SOL    HW163327   0.466   5.940   8.950
53810SOL    HW263328   0.334   5.920   8.879
53811SOL     OW63329  11.381   4.450  10.130
53811SOL    HW163330  11.447   4.514  10.156
53811SOL    HW263331  11.371   4.393  10.207
53812SOL     OW63332   6.494   5.300   6.701
53812SOL    HW163333   6.585   5.318   6.678
53812SOL    HW263334   6.447   5.303   6.617
53813SOL     OW63335  11.025   2.553   1.927
53813SOL    HW163336  11.082   2.502   1.870
53813SOL    HW263337  10.936   2.538   1.893
53814SOL     OW63338   1.566  14.150   5.370
53814SOL    HW163339   1.630  14.198   5.317
53814SOL    HW263340   1.483  14.196   5.355
53815SOL     OW63341  13.582  14.475   1.902
53815SOL    HW163342  13.665  14.428   1.893
53815SOL    HW263343  13.571  14.520   1.818
53816SOL     OW63344   5.516   1.232   8.279
53816SOL    HW163345   5.530   1.326   8.283
53816SOL    HW263346   5.462   1.212   8.355
53817SOL     OW63347  14.623   9.804   3.364
53817SOL    HW163348  14.710   9.825   3.331
53817SOL    HW263349  14.605   9.717   3.328
53818SOL     OW63350   3.208   3.410  11.228
53818SOL    HW163351   3.289   3.415  11.177
53818SOL    HW263352   3.222   3.472  11.300
53819SOL     OW63353  10.775   1.566   4.272
53819SOL    HW163354  10.689   1.578   4.313
53819SOL    HW263355  10.809   1.485   4.310
53820SOL     OW63356   2.688  10.616   0.363
53820SOL    HW163357   2.667  10.544   0.422
53820SOL    HW263358   2.729  10.574   0.288
53821SOL     OW63359   5.015   0.123   2.213
53821SOL    HW163360   5.020   0.205   2.261
53821SOL    HW263361   5.073   0.064   2.261
53822SOL     OW63362   1.626   0.695  14.007
53822SOL    HW163363   1.594   0.693  13.917
53822SOL    HW263364   1.624   0.787  14.032
53823SOL     OW63365   4.823  14.621   4.887
53823SOL    HW163366   4.836  14.685   4.956
53823SOL    HW263367   4.911  14.601   4.855
53824SOL     OW63368   8.288   8.352   7.079
53824SOL    HW163369   8.271   8.261   7.106
53824SOL    HW263370   8.373   8.348   7.036
53825SOL     OW63371   7.957  11.272   1.397
53825SOL    HW163372   7.997  11.204   1.452
53825SOL    HW263373   8.013  11.277   1.320
53826SOL     OW63374  13.660   5.796  12.452
53826SOL    HW163375  13.622   5.756  12.530
53826SOL    HW263376  13.587   5.805  12.392
53827SOL     OW63377   6.551   7.893   8.530
53827SOL    HW163378   6.512   7.904   8.617
53827SOL    HW263379   6.485   7.843   8.481
53828SOL     OW63380   8.257   0.282   6.364
53828SOL    HW163381   8.250   0.200   6.315
53828SOL    HW263382   8.213   0.347   6.309
53829SOL     OW63383   5.868   1.927   0.344
53829SOL    HW163384   5.869   2.004   0.400
53829SOL    HW263385   5.834   1.857   0.400
53830SOL     OW63386   1.880  14.729   2.943
53830SOL    HW163387   1.839  14.807   2.980
53830SOL    HW263388   1.917  14.759   2.860
53831SOL     OW63389  11.923   1.832  11.222
53831SOL    HW163390  11.972   1.846  11.303
53831SOL    HW263391  11.987   1.846  11.152
53832SOL     OW63392   4.150  14.870   1.390
53832SOL    HW163393   4.231  14.874   1.440
53832SOL    HW263394   4.145  14.780   1.357
53833SOL     OW63395  10.296  11.044   3.411
53833SOL    HW163396  10.262  11.003   3.332
53833SOL    HW263397  10.225  11.035   3.475
53834SOL     OW63398   1.450   4.276   0.779
53834SOL    HW163399   1.413   4.201   0.732
53834SOL    HW263400   1.536   4.246   0.809
53835SOL     OW63401   1.197   2.600   6.799
53835SOL    HW163402   1.284   2.637   6.785
53835SOL    HW263403   1.201   2.561   6.886
53836SOL     OW63404  13.657   8.096   9.410
53836SOL    HW163405  13.731   8.153   9.433
53836SOL    HW263406  13.605   8.148   9.349
53837SOL     OW63407   1.808   7.811   6.931
53837SOL    HW163408   1.889   7.772   6.965
53837SOL    HW263409   1.837   7.886   6.879
53838SOL     OW63410   4.050   4.790  13.027
53838SOL    HW163411   3.980   4.836  12.981
53838SOL    HW263412   4.042   4.699  12.998
53839SOL     OW63413   2.344  14.293  12.125
53839SOL    HW163414   2.379  14.238  12.055
53839SOL    HW263415   2.392  14.375  12.118
53840SOL     OW63416  10.334  14.096   1.145
53840SOL    HW163417  10.256  14.130   1.101
53840SOL    HW263418  10.372  14.172   1.189
53841SOL     OW63419   6.725   8.578   2.302
53841SOL    HW163420   6.666   8.556   2.231
53841SOL    HW263421   6.715   8.672   2.313
53842SOL     OW63422   0.483   4.543   2.870
53842SOL    HW163423   0.416   4.585   2.816
53842SOL    HW263424   0.540   4.498   2.807
53843SOL     OW63425  14.422  10.712   5.279
53843SOL    HW163426  14.436  10.762   5.359
53843SOL    HW263427  14.480  10.637   5.287
53844SOL     OW63428   9.476  11.399  13.833
53844SOL    HW163429   9.422  11.332  13.874
53844SOL    HW263430   9.500  11.458  13.904
53845SOL     OW63431  13.714  14.332   1.313
53845SOL    HW163432  13.755  14.417   1.326
53845SOL    HW263433  13.688  14.304   1.400
53846SOL     OW63434   3.043  11.320   2.483
53846SOL    HW163435   3.102  11.328   2.408
53846SOL    HW263436   2.980  11.391   2.472
53847SOL     OW63437   6.980   6.945   8.201
53847SOL    HW163438   6.929   6.946   8.282
53847SOL    HW263439   6.958   7.027   8.158
53848SOL     OW63440   5.513  11.762   1.007
53848SOL    HW163441   5.454  11.698   0.967
53848SOL    HW263442   5.570  11.711   1.064
53849SOL     OW63443   2.225   7.457  14.332
53849SOL    HW163444   2.142   7.450  14.377
53849SOL    HW263445   2.269   7.373  14.348
53850SOL     OW63446   4.759  12.851  10.374
53850SOL    HW163447   4.685  12.906  10.399
53850SOL    HW263448   4.735  12.818  10.287
53851SOL     OW63449   6.175   0.148   7.383
53851SOL    HW163450   6.081   0.132   7.376
53851SOL    HW263451   6.194   0.206   7.309
53852SOL     OW63452  12.809   1.887   7.936
53852SOL    HW163453  12.877   1.923   7.878
53852SOL    HW263454  12.853   1.872   8.019
53853SOL     OW63455   0.476   4.317   7.888
53853SOL    HW163456   0.526   4.257   7.834
53853SOL    HW263457   0.493   4.403   7.850
53854SOL     OW63458   4.546   3.535  13.092
53854SOL    HW163459   4.508   3.477  13.027
53854SOL    HW263460   4.471   3.576  13.135
53855SOL     OW63461   5.370   4.679   3.276
53855SOL    HW163462   5.360   4.667   3.181
53855SOL    HW263463   5.440   4.744   3.284
53856SOL     OW63464  10.017   2.722  13.295
53856SOL    HW163465  10.103   2.698  13.262
53856SOL    HW263466   9.974   2.765  13.221
53857SOL     OW63467  12.912   7.922  11.877
53857SOL    HW163468  12.945   7.943  11.964
53857SOL    HW263469  12.821   7.954  11.878
53858SOL     OW63470  10.762   7.293   1.111
53858SOL    HW163471  10.791   7.384   1.111
53858SOL    HW263472  10.811   7.251   1.040
53859SOL     OW63473   6.052   1.529   6.378
53859SOL    HW163474   6.031   1.504   6.468
53859SOL    HW263475   6.110   1.605   6.387
53860SOL     OW63476   0.102  10.871  11.176
53860SOL    HW163477   0.081  10.965  11.172
53860SOL    HW263478   0.025  10.831  11.217
53861SOL     OW63479  12.705  12.565   8.519
53861SOL    HW163480  12.740  12.654   8.509
53861SOL    HW263481  12.640  12.572   8.589
53862SOL     OW63482  12.504   8.279  11.550
53862SOL    HW163483  12.560   8.201  11.543
53862SOL    HW263484  12.472   8.277  11.640
53863SOL     OW63485  11.514  12.401   8.714
53863SOL    HW163486  11.595  12.391   8.664
53863SOL    HW263487  11.459  12.328   8.686
53864SOL     OW63488   7.233   8.778   4.510
53864SOL    HW163489   7.260   8.689   4.488
53864SOL    HW263490   7.250   8.785   4.604
53865SOL     OW63491  13.531  13.064   2.616
53865SOL    HW163492  13.612  13.068   2.667
53865SOL    HW263493  13.560  13.037   2.529
53866SOL     OW63494   2.816   7.771  11.171
53866SOL    HW163495   2.725   7.756  11.197
53866SOL    HW263496   2.839   7.694  11.119
53867SOL     OW63497   0.713  10.558  14.598
53867SOL    HW163498   0.722  10.465  14.620
53867SOL    HW263499   0.629  10.563  14.553
53868SOL     OW63500   2.864   8.227  14.287
53868SOL    HW163501   2.830   8.148  14.246
53868SOL    HW263502   2.889   8.283  14.213
53869SOL     OW63503   1.626  11.997  12.305
53869SOL    HW163504   1.559  12.063  12.326
53869SOL    HW263505   1.604  11.922  12.359
53870SOL     OW63506   2.673   7.354   7.283
53870SOL    HW163507   2.641   7.425   7.229
53870SOL    HW263508   2.691   7.283   7.221
53871SOL     OW63509  12.622   2.237   9.740
53871SOL    HW163510  12.572   2.249   9.821
53871SOL    HW263511  12.599   2.149   9.711
53872SOL     OW63512   2.900   8.782   5.823
53872SOL    HW163513   2.954   8.836   5.881
53872SOL    HW263514   2.811   8.807   5.843
53873SOL     OW63515  10.689  13.607   7.855
53873SOL    HW163516  10.696  13.644   7.943
53873SOL    HW263517  10.711  13.679   7.796
53874SOL     OW63518   3.279   4.732   2.045
53874SOL    HW163519   3.199   4.697   2.007
53874SOL    HW263520   3.252   4.766   2.130
53875SOL     OW63521   9.340   8.473  10.247
53875SOL    HW163522   9.287   8.523  10.310
53875SOL    HW263523   9.281   8.457  10.174
53876SOL     OW63524  13.926  10.518   9.493
53876SOL    HW163525  14.019  10.537   9.478
53876SOL    HW263526  13.915  10.429   9.461
53877SOL     OW63527  12.011  11.900   5.186
53877SOL    HW163528  11.942  11.912   5.251
53877SOL    HW263529  12.036  11.808   5.194
53878SOL     OW63530   5.545   6.755  12.255
53878SOL    HW163531   5.584   6.763  12.342
53878SOL    HW263532   5.582   6.828  12.205
53879SOL     OW63533  13.380   5.980  10.568
53879SOL    HW163534  13.320   5.946  10.501
53879SOL    HW263535  13.466   5.948  10.540
53880SOL     OW63536  13.438   7.611  14.086
53880SOL    HW163537  13.482   7.572  14.162
53880SOL    HW263538  13.384   7.540  14.052
53881SOL     OW63539  13.914  14.271   9.717
53881SOL    HW163540  13.854  14.197   9.707
53881SOL    HW263541  13.998  14.239   9.685
53882SOL     OW63542   2.974  12.170   5.755
53882SOL    HW163543   2.986  12.249   5.702
53882SOL    HW263544   3.061  12.152   5.791
53883SOL     OW63545  10.471   8.967  13.311
53883SOL    HW163546  10.456   8.884  13.357
53883SOL    HW263547  10.559   8.959  13.276
53884SOL     OW63548   1.656   5.982  10.166
53884SOL    HW163549   1.711   5.923  10.114
53884SOL    HW263550   1.694   6.069  10.149
53885SOL     OW63551   8.635   7.226  13.297
53885SOL    HW163552   8.546   7.196  13.315
53885SOL    HW263553   8.687   7.190  13.369
53886SOL     OW63554  13.088   6.519   7.448
53886SOL    HW163555  13.052   6.432   7.428
53886SOL    HW263556  13.027   6.580   7.407
53887SOL     OW63557   5.996  10.904   3.891
53887SOL    HW163558   5.974  10.940   3.805
53887SOL    HW263559   5.946  10.823   3.897
53888SOL     OW63560   5.537   2.052  10.339
53888SOL    HW163561   5.569   2.110  10.270
53888SOL    HW263562   5.472   1.996  10.296
53889SOL     OW63563   0.504  13.538   3.768
53889SOL    HW163564   0.507  13.632   3.750
53889SOL    HW263565   0.596  13.511   3.768
53890SOL     OW63566   3.485   3.958   6.272
53890SOL    HW163567   3.515   3.882   6.322
53890SOL    HW263568   3.459   3.922   6.187
53891SOL     OW63569   8.839   2.458   5.169
53891SOL    HW163570   8.790   2.483   5.091
53891SOL    HW263571   8.848   2.539   5.219
53892SOL     OW63572  10.097   8.764  13.672
53892SOL    HW163573  10.068   8.700  13.608
53892SOL    HW263574  10.063   8.732  13.756
53893SOL     OW63575  13.769   4.051   3.538
53893SOL    HW163576  13.783   3.986   3.606
53893SOL    HW263577  13.826   4.025   3.466
53894SOL     OW63578   7.025   8.594  11.222
53894SOL    HW163579   7.023   8.549  11.306
53894SOL    HW263580   7.104   8.648  11.225
53895SOL     OW63581  10.826   4.470   0.476
53895SOL    HW163582  10.776   4.425   0.543
53895SOL    HW263583  10.910   4.489   0.517
53896SOL     OW63584  13.304  14.294   7.804
53896SOL    HW163585  13.227  14.333   7.764
53896SOL    HW263586  13.282  14.287   7.897
53897SOL     OW63587   1.718   8.765   0.044
53897SOL    HW163588   1.725   8.676   0.011
53897SOL    HW263589   1.789   8.812   0.001
53898SOL     OW63590   4.658  13.817   2.470
53898SOL    HW163591   4.700  13.890   2.516
53898SOL    HW263592   4.590  13.858   2.417
53899SOL     OW63593  10.930   2.201   4.899
53899SOL    HW163594  10.948   2.290   4.870
53899SOL    HW263595  10.987   2.189   4.975
53900SOL     OW63596   4.851  12.540  12.118
53900SOL    HW163597   4.865  12.498  12.203
53900SOL    HW263598   4.922  12.507  12.063
53901SOL     OW63599   2.465  12.377   9.346
53901SOL    HW163600   2.393  12.335   9.394
53901SOL    HW263601   2.463  12.335   9.260
53902SOL     OW63602  12.788   7.174  10.288
53902SOL    HW163603  12.731   7.098  10.279
53902SOL    HW263604  12.876   7.140  10.273
53903SOL     OW63605  10.122   6.061   5.057
53903SOL    HW163606  10.080   6.142   5.028
53903SOL    HW263607  10.064   5.992   5.027
53904SOL     OW63608   8.322   2.212   9.026
53904SOL    HW163609   8.345   2.253   9.110
53904SOL    HW263610   8.339   2.280   8.961
53905SOL     OW63611  11.394  12.378   7.066
53905SOL    HW163612  11.361  12.449   7.011
53905SOL    HW263613  11.484  12.364   7.036
53906SOL     OW63614   4.496   0.227   0.215
53906SOL    HW163615   4.429   0.237   0.147
53906SOL    HW263616   4.535   0.314   0.222
53907SOL     OW63617   5.066   8.317   3.843
53907SOL    HW163618   5.137   8.253   3.847
53907SOL    HW263619   5.079   8.363   3.760
53908SOL     OW63620   6.075   4.776   6.793
53908SOL    HW163621   6.024   4.786   6.712
53908SOL    HW263622   6.090   4.866   6.823
53909SOL     OW63623   6.507   4.662  14.698
53909SOL    HW163624   6.599   4.640  14.712
53909SOL    HW263625   6.480   4.706  14.779
53910SOL     OW63626  10.978  12.045  13.791
53910SOL    HW163627  10.952  11.979  13.856
53910SOL    HW263628  11.073  12.041  13.789
53911SOL     OW63629  13.514   7.939  13.241
53911SOL    HW163630  13.477   7.921  13.155
53911SOL    HW263631  13.599   7.980  13.223
53912SOL     OW63632  12.886   0.082   5.015
53912SOL    HW163633  12.837   0.138   4.955
53912SOL    HW263634  12.917   0.141   5.084
53913SOL     OW63635   6.609  14.459   4.303
53913SOL    HW163636   6.577  14.455   4.213
53913SOL    HW263637   6.540  14.419   4.355
53914SOL     OW63638   3.420   2.429  10.414
53914SOL    HW163639   3.362   2.382  10.353
53914SOL    HW263640   3.369   2.505  10.441
53915SOL     OW63641   8.960   8.905   0.842
53915SOL    HW163642   9.025   8.964   0.881
53915SOL    HW263643   8.916   8.865   0.917
53916SOL     OW63644  14.473  11.327   0.316
53916SOL    HW163645  14.380  11.329   0.295
53916SOL    HW263646  14.513  11.281   0.242
53917SOL     OW63647  12.289   4.336  13.881
53917SOL    HW163648  12.194   4.325  13.878
53917SOL    HW263649  12.312   4.318  13.972
53918SOL     OW63650  11.474   5.672   4.793
53918SOL    HW163651  11.438   5.642   4.876
53918SOL    HW263652  11.558   5.712   4.816
53919SOL     OW63653   9.058   1.134   9.286
53919SOL    HW163654   8.976   1.090   9.308
53919SOL    HW263655   9.067   1.121   9.191
53920SOL     OW63656   7.069  10.917   0.726
53920SOL    HW163657   7.124  10.840   0.713
53920SOL    HW263658   7.117  10.971   0.789
53921SOL     OW63659   0.650  11.903   4.167
53921SOL    HW163660   0.587  11.890   4.096
53921SOL    HW263661   0.731  11.928   4.123
53922SOL     OW63662   5.259  10.832  11.139
53922SOL    HW163663   5.323  10.903  11.138
53922SOL    HW263664   5.293  10.769  11.203
53923SOL     OW63665   9.125  10.248   0.045
53923SOL    HW163666   9.158  10.310   0.109
53923SOL    HW263667   9.202  10.201   0.013
53924SOL     OW63668  10.184   3.077   3.836
53924SOL    HW163669  10.181   3.113   3.925
53924SOL    HW263670  10.263   3.115   3.797
53925SOL     OW63671   5.308   5.937   1.832
53925SOL    HW163672   5.317   5.970   1.922
53925SOL    HW263673   5.372   5.987   1.782
53926SOL     OW63674   1.785   8.241   2.715
53926SOL    HW163675   1.844   8.297   2.766
53926SOL    HW263676   1.749   8.180   2.779
53927SOL     OW63677   4.041   1.132  12.244
53927SOL    HW163678   4.030   1.153  12.337
53927SOL    HW263679   4.058   1.216  12.202
53928SOL     OW63680  14.865  12.669  12.936
53928SOL    HW163681  14.845  12.578  12.954
53928SOL    HW263682   0.024  12.668  12.847
53929SOL     OW63683  14.382  10.471   5.695
53929SOL    HW163684  14.447  10.401   5.691
53929SOL    HW263685  14.348  10.478   5.606
53930SOL     OW63686   8.144   3.738  14.474
53930SOL    HW163687   8.052   3.739  14.501
53930SOL    HW263688   8.146   3.792  14.395
53931SOL     OW63689  13.040  11.687   2.512
53931SOL    HW163690  13.001  11.758   2.563
53931SOL    HW263691  13.133  11.707   2.509
53932SOL     OW63692   3.382  11.983   9.088
53932SOL    HW163693   3.380  12.078   9.101
53932SOL    HW263694   3.403  11.973   8.995
53933SOL     OW63695   9.255   8.437   8.457
53933SOL    HW163696   9.264   8.500   8.386
53933SOL    HW263697   9.312   8.470   8.526
53934SOL     OW63698   1.439   7.972   6.296
53934SOL    HW163699   1.474   8.050   6.253
53934SOL    HW263700   1.356   8.000   6.333
53935SOL     OW63701   2.033  11.937  12.531
53935SOL    HW163702   2.127  11.948  12.517
53935SOL    HW263703   2.010  11.859  12.480
53936SOL     OW63704   6.189   1.003   0.125
53936SOL    HW163705   6.196   0.926   0.182
53936SOL    HW263706   6.153   0.969   0.043
53937SOL     OW63707  11.535   1.261  12.033
53937SOL    HW163708  11.529   1.344  11.984
53937SOL    HW263709  11.589   1.283  12.109
53938SOL     OW63710   5.955  14.435  12.614
53938SOL    HW163711   5.876  14.485  12.594
53938SOL    HW263712   5.937  14.396  12.700
53939SOL     OW63713  13.496   8.048  11.606
53939SOL    HW163714  13.431   8.011  11.666
53939SOL    HW263715  13.530   7.973  11.558
53940SOL     OW63716   1.118  10.362   6.229
53940SOL    HW163717   1.097  10.317   6.311
53940SOL    HW263718   1.207  10.332   6.208
53941SOL     OW63719  12.906   3.655   9.716
53941SOL    HW163720  12.911   3.604   9.797
53941SOL    HW263721  12.833   3.617   9.668
53942SOL     OW63722   8.918   7.208  14.394
53942SOL    HW163723   8.973   7.281  14.424
53942SOL    HW263724   8.840   7.213  14.449
53943SOL     OW63725   8.017   6.802  14.689
53943SOL    HW163726   8.102   6.817  14.648
53943SOL    HW263727   7.953   6.836  14.627
53944SOL     OW63728  13.634   9.014  11.464
53944SOL    HW163729  13.729   9.019  11.452
53944SOL    HW263730  13.620   8.935  11.516
53945SOL     OW63731   5.180   0.484  11.390
53945SOL    HW163732   5.092   0.478  11.428
53945SOL    HW263733   5.193   0.400  11.346
53946SOL     OW63734   2.123   2.245  12.888
53946SOL    HW163735   2.091   2.324  12.932
53946SOL    HW263736   2.180   2.203  12.953
53947SOL     OW63737   4.572  10.545  11.828
53947SOL    HW163738   4.524  10.559  11.746
53947SOL    HW263739   4.504  10.526  11.892
53948SOL     OW63740   1.761  11.058   6.165
53948SOL    HW163741   1.773  11.077   6.258
53948SOL    HW263742   1.842  11.015   6.139
53949SOL     OW63743   4.496   3.639   4.267
53949SOL    HW163744   4.532   3.700   4.333
53949SOL    HW263745   4.525   3.553   4.296
53950SOL     OW63746   2.471   7.587   6.186
53950SOL    HW163747   2.418   7.609   6.110
53950SOL    HW263748   2.539   7.654   6.188
53951SOL     OW63749  11.789  14.461   1.586
53951SOL    HW163750  11.862  14.463   1.648
53951SOL    HW263751  11.710  14.459   1.641
53952SOL     OW63752   4.856   9.498  10.827
53952SOL    HW163753   4.802   9.570  10.794
53952SOL    HW263754   4.869   9.441  10.751
53953SOL     OW63755  11.675   6.049   0.712
53953SOL    HW163756  11.676   5.970   0.658
53953SOL    HW263757  11.598   6.098   0.682
53954SOL     OW63758   8.370   0.642  12.006
53954SOL    HW163759   8.373   0.605  11.918
53954SOL    HW263760   8.326   0.726  11.995
53955SOL     OW63761   0.238  13.700   6.855
53955SOL    HW163762   0.153  13.739   6.874
53955SOL    HW263763   0.291  13.772   6.821
53956SOL     OW63764  13.098   7.617  13.917
53956SOL    HW163765  13.119   7.536  13.962
53956SOL    HW263766  13.149   7.614  13.836
53957SOL     OW63767  10.404   6.592   4.215
53957SOL    HW163768  10.365   6.613   4.130
53957SOL    HW263769  10.416   6.497   4.212
53958SOL     OW63770   2.041   3.872   5.881
53958SOL    HW163771   2.020   3.780   5.894
53958SOL    HW263772   2.091   3.874   5.799
53959SOL     OW63773  12.309   3.366   2.449
53959SOL    HW163774  12.246   3.294   2.456
53959SOL    HW263775  12.350   3.353   2.364
53960SOL     OW63776  14.361   3.195   0.954
53960SOL    HW163777  14.307   3.190   0.875
53960SOL    HW263778  14.329   3.124   1.010
53961SOL     OW63779   6.325  11.303   1.317
53961SOL    HW163780   6.253  11.240   1.311
53961SOL    HW263781   6.305  11.354   1.396
53962SOL     OW63782   8.066  10.452   2.468
53962SOL    HW163783   8.011  10.513   2.418
53962SOL    HW263784   8.098  10.504   2.542
53963SOL     OW63785   9.310   9.072   5.766
53963SOL    HW163786   9.388   9.084   5.819
53963SOL    HW263787   9.245   9.034   5.826
53964SOL     OW63788   0.290   3.328  12.665
53964SOL    HW163789   0.335   3.324  12.750
53964SOL    HW263790   0.278   3.421  12.648
53965SOL     OW63791   5.863   1.185  11.610
53965SOL    HW163792   5.953   1.164  11.637
53965SOL    HW263793   5.817   1.101  11.614
53966SOL     OW63794  11.420   1.917   0.160
53966SOL    HW163795  11.447   1.863   0.085
53966SOL    HW263796  11.339   1.877   0.191
53967SOL     OW63797  13.353  14.413   0.884
53967SOL    HW163798  13.290  14.405   0.812
53967SOL    HW263799  13.436  14.431   0.841
53968SOL     OW63800   3.423   2.555   0.783
53968SOL    HW163801   3.435   2.564   0.878
53968SOL    HW263802   3.509   2.528   0.751
53969SOL     OW63803   6.254   9.509  10.087
53969SOL    HW163804   6.223   9.600  10.094
53969SOL    HW263805   6.183   9.463  10.043
53970SOL     OW63806  13.852  11.597   7.565
53970SOL    HW163807  13.833  11.597   7.659
53970SOL    HW263808  13.906  11.676   7.552
53971SOL     OW63809   1.303  12.766   4.386
53971SOL    HW163810   1.325  12.741   4.297
53971SOL    HW263811   1.387  12.773   4.431
53972SOL     OW63812  13.575   2.797  13.880
53972SOL    HW163813  13.482   2.817  13.870
53972SOL    HW263814  13.619   2.881  13.866
53973SOL     OW63815  12.391   1.788  14.226
53973SOL    HW163816  12.339   1.788  14.146
53973SOL    HW263817  12.376   1.701  14.264
53974SOL     OW63818   8.227   7.454  10.099
53974SOL    HW163819   8.159   7.387  10.102
53974SOL    HW263820   8.186   7.532  10.138
53975SOL     OW63821   8.170  12.496  12.578
53975SOL    HW163822   8.179  12.591  12.582
53975SOL    HW263823   8.130  12.471  12.661
53976SOL     OW63824   3.304   2.434   8.596
53976SOL    HW163825   3.329   2.510   8.544
53976SOL    HW263826   3.314   2.360   8.536
53977SOL     OW63827   8.668  10.366   6.441
53977SOL    HW163828   8.667  10.411   6.526
53977SOL    HW263829   8.647  10.434   6.377
53978SOL     OW63830   1.175   2.284  10.268
53978SOL    HW163831   1.160   2.307  10.360
53978SOL    HW263832   1.240   2.347  10.238
53979SOL     OW63833   3.078  14.720   9.421
53979SOL    HW163834   3.100  14.781   9.491
53979SOL    HW263835   3.110  14.762   9.341
53980SOL     OW63836   4.760   1.581  13.308
53980SOL    HW163837   4.680   1.530  13.324
53980SOL    HW263838   4.769   1.635  13.386
53981SOL     OW63839  10.901   4.989   0.710
53981SOL    HW163840  10.906   4.893   0.708
53981SOL    HW263841  10.841   5.011   0.639
53982SOL     OW63842   4.590   3.578   1.391
53982SOL    HW163843   4.525   3.552   1.457
53982SOL    HW263844   4.619   3.496   1.352
53983SOL     OW63845  14.459  10.973   3.155
53983SOL    HW163846  14.419  11.057   3.180
53983SOL    HW263847  14.405  10.941   3.083
53984SOL     OW63848   8.654   1.068   3.813
53984SOL    HW163849   8.728   1.009   3.793
53984SOL    HW263850   8.625   1.040   3.900
53985SOL     OW63851  12.378   5.500  10.914
53985SOL    HW163852  12.283   5.492  10.902
53985SOL    HW263853  12.399   5.588  10.880
53986SOL     OW63854   4.223  14.702   8.195
53986SOL    HW163855   4.138  14.745   8.186
53986SOL    HW263856   4.206  14.610   8.174
53987SOL     OW63857  10.732   1.640  11.284
53987SOL    HW163858  10.801   1.656  11.219
53987SOL    HW263859  10.652   1.666  11.240
53988SOL     OW63860  12.310  10.539   9.612
53988SOL    HW163861  12.239  10.492   9.569
53988SOL    HW263862  12.359  10.579   9.540
53989SOL     OW63863   3.063   9.665   7.329
53989SOL    HW163864   3.149   9.708   7.331
53989SOL    HW263865   3.042   9.648   7.421
53990SOL     OW63866   5.558  12.320   2.084
53990SOL    HW163867   5.643  12.359   2.063
53990SOL    HW263868   5.536  12.355   2.170
53991SOL     OW63869   0.664   6.379  10.540
53991SOL    HW163870   0.708   6.463  10.546
53991SOL    HW263871   0.586   6.396  10.488
53992SOL     OW63872  13.272  14.664  14.527
53992SOL    HW163873  13.250  14.579  14.565
53992SOL    HW263874  13.220  14.727  14.577
53993SOL     OW63875  12.356   7.520   2.299
53993SOL    HW163876  12.324   7.463   2.229
53993SOL    HW263877  12.284   7.525   2.361
53994SOL     OW63878   5.248  10.459   1.812
53994SOL    HW163879   5.225  10.389   1.751
53994SOL    HW263880   5.343  10.469   1.802
53995SOL     OW63881   2.323   2.903   9.504
53995SOL    HW163882   2.338   2.885   9.596
53995SOL    HW263883   2.393   2.963   9.479
53996SOL     OW63884   3.497   9.833  11.705
53996SOL    HW163885   3.445   9.875  11.773
53996SOL    HW263886   3.581   9.814  11.748
53997SOL     OW63887   6.973   4.591  14.252
53997SOL    HW163888   7.032   4.663  14.272
53997SOL    HW263889   7.031   4.520  14.223
53998SOL     OW63890  14.500   8.348   6.428
53998SOL    HW163891  14.417   8.392   6.408
53998SOL    HW263892  14.490   8.261   6.390
53999SOL     OW63893   8.018   0.559   1.901
53999SOL    HW163894   7.971   0.555   1.818
53999SOL    HW263895   8.089   0.495   1.892
54000SOL     OW63896  12.403   4.912   7.256
54000SOL    HW163897  12.359   4.848   7.312
54000SOL    HW263898  12.383   4.883   7.167
54001SOL     OW63899   3.753  11.968   1.941
54001SOL    HW163900   3.695  12.035   1.905
54001SOL    HW263901   3.696  11.893   1.958
54002SOL     OW63902  14.606   9.729   9.906
54002SOL    HW163903  14.554   9.650   9.922
54002SOL    HW263904  14.681   9.699   9.855
54003SOL     OW63905   1.115   5.893   5.287
54003SOL    HW163906   1.080   5.848   5.210
54003SOL    HW263907   1.075   5.846   5.361
54004SOL     OW63908   6.284   2.419   5.061
54004SOL    HW163909   6.260   2.421   4.968
54004SOL    HW263910   6.276   2.510   5.089
54005SOL     OW63911   3.020   1.253   6.344
54005SOL    HW163912   2.965   1.208   6.408
54005SOL    HW263913   3.097   1.281   6.394
54006SOL     OW63914   0.043   2.590   0.838
54006SOL    HW163915   0.085   2.616   0.755
54006SOL    HW263916   0.047   2.495   0.837
54007SOL     OW63917   7.847   0.009   5.053
54007SOL    HW163918   7.852  14.840   5.136
54007SOL    HW263919   7.764   0.057   5.056
54008SOL     OW63920   1.095  13.641  13.563
54008SOL    HW163921   1.156  13.681  13.501
54008SOL    HW263922   1.097  13.548  13.542
54009SOL     OW63923   5.268   9.914  11.576
54009SOL    HW163924   5.325   9.839  11.588
54009SOL    HW263925   5.194   9.881  11.524
54010SOL     OW63926   8.340  14.852   5.739
54010SOL    HW163927   8.396  14.863   5.815
54010SOL    HW263928   8.317  14.759   5.739
54011SOL     OW63929   1.516   6.310  11.162
54011SOL    HW163930   1.560   6.313  11.077
54011SOL    HW263931   1.429   6.346  11.145
54012SOL     OW63932  12.707   6.557  10.148
54012SOL    HW163933  12.665   6.631  10.105
54012SOL    HW263934  12.656   6.481  10.120
54013SOL     OW63935   5.198   4.890  13.437
54013SOL    HW163936   5.163   4.933  13.515
54013SOL    HW263937   5.227   4.963  13.381
54014SOL     OW63938  13.359   9.552   0.392
54014SOL    HW163939  13.387   9.506   0.313
54014SOL    HW263940  13.331   9.638   0.361
54015SOL     OW63941   0.429  14.755   1.360
54015SOL    HW163942   0.399  14.690   1.296
54015SOL    HW263943   0.404  14.719   1.445
54016SOL     OW63944   2.161  11.792  13.084
54016SOL    HW163945   2.079  11.840  13.077
54016SOL    HW263946   2.148  11.713  13.032
54017SOL     OW63947   2.725   1.982   7.362
54017SOL    HW163948   2.639   1.959   7.397
54017SOL    HW263949   2.788   1.937   7.418
54018SOL     OW63950  11.985   8.024   9.124
54018SOL    HW163951  11.953   8.079   9.196
54018SOL    HW263952  12.071   7.994   9.154
54019SOL     OW63953   8.574  12.259  12.316
54019SOL    HW163954   8.664  12.258  12.346
54019SOL    HW263955   8.525  12.301  12.387
54020SOL     OW63956   6.495  11.933   4.878
54020SOL    HW163957   6.507  11.946   4.784
54020SOL    HW263958   6.558  11.864   4.900
54021SOL     OW63959   5.092   3.941   0.131
54021SOL    HW163960   5.012   3.889   0.136
54021SOL    HW263961   5.150   3.890   0.075
54022SOL     OW63962  13.357   4.308   4.126
54022SOL    HW163963  13.385   4.328   4.215
54022SOL    HW263964  13.370   4.390   4.078
54023SOL     OW63965   5.487   6.049  14.006
54023SOL    HW163966   5.569   6.000  14.003
54023SOL    HW263967   5.421   5.983  14.027
54024SOL     OW63968  11.061   2.021   6.349
54024SOL    HW163969  11.127   2.073   6.303
54024SOL    HW263970  11.012   2.085   6.400
54025SOL     OW63971   2.037  11.328   8.310
54025SOL    HW163972   2.105  11.284   8.258
54025SOL    HW263973   1.982  11.256   8.343
54026SOL     OW63974  12.148   3.017  11.658
54026SOL    HW163975  12.109   2.933  11.682
54026SOL    HW263976  12.206   3.037  11.732
54027SOL     OW63977   5.212   9.494   3.645
54027SOL    HW163978   5.120   9.471   3.645
54027SOL    HW263979   5.251   9.441   3.575
54028SOL     OW63980   0.132  13.928   6.103
54028SOL    HW163981   0.208  13.876   6.127
54028SOL    HW263982   0.066  13.907   6.169
54029SOL     OW63983  13.244  14.745   8.641
54029SOL    HW163984  13.294  14.815   8.684
54029SOL    HW263985  13.218  14.687   8.712
54030SOL     OW63986   4.389   8.517   9.220
54030SOL    HW163987   4.480   8.517   9.250
54030SOL    HW263988   4.337   8.520   9.300
54031SOL     OW63989   5.115  14.169  11.043
54031SOL    HW163990   5.195  14.137  11.084
54031SOL    HW263991   5.144  14.243  10.988
54032SOL     OW63992  11.006   5.022   8.697
54032SOL    HW163993  10.933   5.074   8.664
54032SOL    HW263994  11.012   5.045   8.790
54033SOL     OW63995  14.860   2.037  10.334
54033SOL    HW163996   0.018   1.966  10.280
54033SOL    HW263997   0.059   2.076  10.376
54034SOL     OW63998  12.750   1.752  10.755
54034SOL    HW163999  12.661   1.725  10.780
54034SOL    HW264000  12.790   1.673  10.720
54035SOL     OW64001  12.042   4.588   3.510
54035SOL    HW164002  12.006   4.589   3.421
54035SOL    HW264003  12.061   4.496   3.527
54036SOL     OW64004   8.931   7.331   7.196
54036SOL    HW164005   9.009   7.387   7.200
54036SOL    HW264006   8.866   7.376   7.249
54037SOL     OW64007   0.455   5.878  12.400
54037SOL    HW164008   0.513   5.815  12.442
54037SOL    HW264009   0.433   5.838  12.316
54038SOL     OW64010   5.432   3.250   7.738
54038SOL    HW164011   5.431   3.172   7.794
54038SOL    HW264012   5.358   3.302   7.769
54039SOL     OW64013   6.108   1.530   0.510
54039SOL    HW164014   6.139   1.445   0.541
54039SOL    HW264015   6.022   1.512   0.472
54040SOL     OW64016  11.568   9.470   7.406
54040SOL    HW164017  11.630   9.452   7.335
54040SOL    HW264018  11.589   9.559   7.434
54041SOL     OW64019  12.512   7.944  12.790
54041SOL    HW164020  12.482   8.035  12.799
54041SOL    HW264021  12.450   7.893  12.841
54042SOL     OW64022   1.917   6.259  10.373
54042SOL    HW164023   1.855   6.290  10.308
54042SOL    HW264024   1.893   6.167  10.388
54043SOL     OW64025   5.752   5.043   1.961
54043SOL    HW164026   5.767   4.952   1.986
54043SOL    HW264027   5.711   5.082   2.039
54044SOL     OW64028   9.623   2.546   2.009
54044SOL    HW164029   9.608   2.467   1.958
54044SOL    HW264030   9.652   2.611   1.945
54045SOL     OW64031  14.342   5.844  10.895
54045SOL    HW164032  14.345   5.938  10.916
54045SOL    HW264033  14.384   5.801  10.970
54046SOL     OW64034  10.630  11.418   0.315
54046SOL    HW164035  10.648  11.337   0.363
54046SOL    HW264036  10.715  11.446   0.282
54047SOL     OW64037   9.913   3.174   1.764
54047SOL    HW164038   9.890   3.263   1.736
54047SOL    HW264039   9.963   3.186   1.845
54048SOL     OW64040   9.900  10.270  12.754
54048SOL    HW164041   9.879  10.280  12.847
54048SOL    HW264042   9.872  10.352  12.714
54049SOL     OW64043  10.163   3.904  12.419
54049SOL    HW164044  10.148   3.993  12.452
54049SOL    HW264045  10.239   3.913  12.361
54050SOL     OW64046   8.213  13.487   4.611
54050SOL    HW164047   8.277  13.529   4.553
54050SOL    HW264048   8.253  13.490   4.698
54051SOL     OW64049   0.792   2.088  14.313
54051SOL    HW164050   0.800   1.998  14.283
54051SOL    HW264051   0.877   2.128  14.293
54052SOL     OW64052  12.398   9.317   5.375
54052SOL    HW164053  12.394   9.370   5.296
54052SOL    HW264054  12.483   9.273   5.370
54053SOL     OW64055   1.219   7.650  11.029
54053SOL    HW164056   1.275   7.696  10.966
54053SOL    HW264057   1.158   7.600  10.974
54054SOL     OW64058   5.936   7.083   3.053
54054SOL    HW164059   5.879   7.129   3.115
54054SOL    HW264060   6.025   7.101   3.083
54055SOL     OW64061   1.237   7.781   1.263
54055SOL    HW164062   1.256   7.872   1.287
54055SOL    HW264063   1.228   7.735   1.347
54056SOL     OW64064   0.153   2.542   9.541
54056SOL    HW164065   0.137   2.635   9.526
54056SOL    HW264066   0.183   2.509   9.456
54057SOL     OW64067  12.583  12.219   0.995
54057SOL    HW164068  12.594  12.186   1.084
54057SOL    HW264069  12.613  12.147   0.939
54058SOL     OW64070  13.802   6.673   8.559
54058SOL    HW164071  13.844   6.631   8.634
54058SOL    HW264072  13.761   6.601   8.512
54059SOL     OW64073   4.542   9.682  12.748
54059SOL    HW164074   4.495   9.633  12.816
54059SOL    HW264075   4.546   9.772  12.782
54060SOL     OW64076   3.545  14.660  12.829
54060SOL    HW164077   3.570  14.749  12.804
54060SOL    HW264078   3.517  14.619  12.747
54061SOL     OW64079  10.780   4.180   7.308
54061SOL    HW164080  10.708   4.237   7.335
54061SOL    HW264081  10.779   4.184   7.212
54062SOL     OW64082   0.310  12.757  13.677
54062SOL    HW164083   0.376  12.765  13.608
54062SOL    HW264084   0.227  12.760  13.631
54063SOL     OW64085  14.571   8.555   9.912
54063SOL    HW164086  14.533   8.583   9.828
54063SOL    HW264087  14.554   8.628   9.971
54064SOL     OW64088  10.021   4.190  14.324
54064SOL    HW164089  10.054   4.165  14.411
54064SOL    HW264090   9.975   4.113  14.293
54065SOL     OW64091  13.322   9.420   8.883
54065SOL    HW164092  13.294   9.492   8.939
54065SOL    HW264093  13.286   9.441   8.796
54066SOL     OW64094  11.071  11.106   3.723
54066SOL    HW164095  11.113  11.049   3.659
54066SOL    HW264096  11.041  11.181   3.673
54067SOL     OW64097  10.718   5.211   4.886
54067SOL    HW164098  10.808   5.208   4.853
54067SOL    HW264099  10.678   5.284   4.839
54068SOL     OW64100  11.307  11.136   9.310
54068SOL    HW164101  11.397  11.131   9.277
54068SOL    HW264102  11.270  11.213   9.267
54069SOL     OW64103   0.399   0.653   1.595
54069SOL    HW164104   0.472   0.682   1.540
54069SOL    HW264105   0.426   0.567   1.628
54070SOL     OW64106  12.516  10.325   8.183
54070SOL    HW164107  12.453  10.296   8.249
54070SOL    HW264108  12.508  10.262   8.112
54071SOL     OW64109   8.145   3.358   9.770
54071SOL    HW164110   8.128   3.284   9.711
54071SOL    HW264111   8.194   3.420   9.717
54072SOL     OW64112  11.606  11.711   2.573
54072SOL    HW164113  11.654  11.775   2.520
54072SOL    HW264114  11.547  11.764   2.627
54073SOL     OW64115  14.580   0.572   7.136
54073SOL    HW164116  14.646   0.544   7.074
54073SOL    HW264117  14.577   0.503   7.202
54074SOL     OW64118   0.385   4.375   5.508
54074SOL    HW164119   0.354   4.434   5.578
54074SOL    HW264120   0.360   4.419   5.427
54075SOL     OW64121   3.229   5.566   7.846
54075SOL    HW164122   3.177   5.500   7.892
54075SOL    HW264123   3.203   5.649   7.886
54076SOL     OW64124   2.060   5.893   4.366
54076SOL    HW164125   2.147   5.932   4.372
54076SOL    HW264126   2.000   5.964   4.389
54077SOL     OW64127   7.390  13.841   0.906
54077SOL    HW164128   7.361  13.860   0.995
54077SOL    HW264129   7.486  13.849   0.910
54078SOL     OW64130  14.645  13.036   4.529
54078SOL    HW164131  14.581  13.063   4.595
54078SOL    HW264132  14.592  13.007   4.455
54079SOL     OW64133   8.341   6.121  12.418
54079SOL    HW164134   8.412   6.131  12.482
54079SOL    HW264135   8.381   6.073  12.345
54080SOL     OW64136   1.490   8.292   6.866
54080SOL    HW164137   1.452   8.332   6.945
54080SOL    HW264138   1.425   8.229   6.837
54081SOL     OW64139   7.229   8.165   2.078
54081SOL    HW164140   7.160   8.218   2.037
54081SOL    HW264141   7.272   8.121   2.005
54082SOL     OW64142   0.025   2.473   2.123
54082SOL    HW164143   0.081   2.488   2.198
54082SOL    HW264144   0.002   2.561   2.092
54083SOL     OW64145  13.272   1.436  11.904
54083SOL    HW164146  13.194   1.450  11.850
54083SOL    HW264147  13.327   1.379  11.850
54084SOL     OW64148  10.286   3.635  11.225
54084SOL    HW164149  10.301   3.710  11.283
54084SOL    HW264150  10.373   3.611  11.194
54085SOL     OW64151   5.291   8.825   3.293
54085SOL    HW164152   5.363   8.762   3.294
54085SOL    HW264153   5.242   8.807   3.373
54086SOL     OW64154  13.379   9.037   4.426
54086SOL    HW164155  13.365   9.054   4.333
54086SOL    HW264156  13.345   9.115   4.470
54087SOL     OW64157  14.263   3.394   3.355
54087SOL    HW164158  14.242   3.473   3.306
54087SOL    HW264159  14.280   3.426   3.444
54088SOL     OW64160  10.390   0.899   2.872
54088SOL    HW164161  10.348   0.874   2.789
54088SOL    HW264162  10.391   0.818   2.923
54089SOL     OW64163   3.690  14.182   7.060
54089SOL    HW164164   3.604  14.150   7.089
54089SOL    HW264165   3.691  14.274   7.086
54090SOL     OW64166   8.875   0.002   6.434
54090SOL    HW164167   8.839   0.049   6.359
54090SOL    HW264168   8.956   0.047   6.455
54091SOL     OW64169   0.343   1.863  11.832
54091SOL    HW164170   0.269   1.810  11.861
54091SOL    HW264171   0.404   1.861  11.906
54092SOL     OW64172  13.443   8.039   4.010
54092SOL    HW164173  13.500   8.087   3.949
54092SOL    HW264174  13.479   7.950   4.012
54093SOL     OW64175   9.483   4.834  13.276
54093SOL    HW164176   9.438   4.867  13.353
54093SOL    HW264177   9.503   4.743  13.297
54094SOL     OW64178  12.241  14.448   1.035
54094SOL    HW164179  12.254  14.507   0.962
54094SOL    HW264180  12.286  14.490   1.109
54095SOL     OW64181   0.549   2.242   6.926
54095SOL    HW164182   0.461   2.279   6.923
54095SOL    HW264183   0.541   2.159   6.879
54096SOL     OW64184   3.221   8.686   5.536
54096SOL    HW164185   3.268   8.677   5.619
54096SOL    HW264186   3.146   8.628   5.545
54097SOL     OW64187  13.654   1.338   9.533
54097SOL    HW164188  13.617   1.366   9.617
54097SOL    HW264189  13.697   1.416   9.499
54098SOL     OW64190   3.464  11.678  10.807
54098SOL    HW164191   3.505  11.595  10.782
54098SOL    HW264192   3.536  11.730  10.842
54099SOL     OW64193   6.286   1.471   9.109
54099SOL    HW164194   6.196   1.469   9.078
54099SOL    HW264195   6.282   1.510   9.196
54100SOL     OW64196   8.914   6.413   3.742
54100SOL    HW164197   9.009   6.425   3.752
54100SOL    HW264198   8.905   6.372   3.656
54101SOL     OW64199   3.819  14.690  12.901
54101SOL    HW164200   3.811  14.723  12.990
54101SOL    HW264201   3.729  14.670  12.875
54102SOL     OW64202  14.128   4.614   6.684
54102SOL    HW164203  14.124   4.542   6.746
54102SOL    HW264204  14.135   4.572   6.598
54103SOL     OW64205   7.102   9.779  14.611
54103SOL    HW164206   7.071   9.806  14.698
54103SOL    HW264207   7.189   9.817  14.604
54104SOL     OW64208   5.860  14.836   9.559
54104SOL    HW164209   5.778   0.007   9.549
54104SOL    HW264210   5.927   0.019   9.528
54105SOL     OW64211   5.752   2.803   5.004
54105SOL    HW164212   5.830   2.760   4.970
54105SOL    HW264213   5.777   2.895   5.011
54106SOL     OW64214  13.738  14.800   1.918
54106SOL    HW164215  13.729  14.705   1.919
54106SOL    HW264216  13.725  14.826   2.009
54107SOL     OW64217   8.321   5.063  12.384
54107SOL    HW164218   8.306   4.977  12.345
54107SOL    HW264219   8.234   5.091  12.412
54108SOL     OW64220   6.516   5.618   1.291
54108SOL    HW164221   6.431   5.658   1.273
54108SOL    HW264222   6.575   5.692   1.306
54109SOL     OW64223  11.744  13.995   8.822
54109SOL    HW164224  11.704  13.956   8.901
54109SOL    HW264225  11.737  14.089   8.836
54110SOL     OW64226   4.276   5.510   6.440
54110SOL    HW164227   4.279   5.414   6.449
54110SOL    HW264228   4.189   5.527   6.402
54111SOL     OW64229   5.448   4.002   5.426
54111SOL    HW164230   5.448   3.909   5.403
54111SOL    HW264231   5.372   4.038   5.380
54112SOL     OW64232   1.115  13.218  11.809
54112SOL    HW164233   1.058  13.277  11.759
54112SOL    HW264234   1.091  13.130  11.779
54113SOL     OW64235   0.216   3.268   1.513
54113SOL    HW164236   0.311   3.276   1.518
54113SOL    HW264237   0.184   3.313   1.591
54114SOL     OW64238   3.772   6.256  12.735
54114SOL    HW164239   3.798   6.186  12.794
54114SOL    HW264240   3.770   6.335  12.790
54115SOL     OW64241  13.058   3.147   4.329
54115SOL    HW164242  12.989   3.080   4.327
54115SOL    HW264243  13.077   3.159   4.422
54116SOL     OW64244  10.912  11.993   9.063
54116SOL    HW164245  10.880  11.975   8.975
54116SOL    HW264246  10.977  11.925   9.080
54117SOL     OW64247  10.733   3.135   7.719
54117SOL    HW164248  10.795   3.079   7.767
54117SOL    HW264249  10.671   3.163   7.786
54118SOL     OW64250   3.532   8.805   8.578
54118SOL    HW164251   3.616   8.759   8.581
54118SOL    HW264252   3.503   8.796   8.488
54119SOL     OW64253   6.821   2.591   4.684
54119SOL    HW164254   6.778   2.630   4.608
54119SOL    HW264255   6.913   2.587   4.659
54120SOL     OW64256   4.762   6.419   5.553
54120SOL    HW164257   4.838   6.427   5.611
54120SOL    HW264258   4.723   6.507   5.551
54121SOL     OW64259   3.921  10.901  14.708
54121SOL    HW164260   3.898  10.991  14.686
54121SOL    HW264261   3.975  10.871  14.635
54122SOL     OW64262   5.945  14.020   4.824
54122SOL    HW164263   5.898  13.982   4.898
54122SOL    HW264264   5.984  14.100   4.859
54123SOL     OW64265   1.651   5.842   5.168
54123SOL    HW164266   1.588   5.775   5.140
54123SOL    HW264267   1.610   5.925   5.145
54124SOL     OW64268   6.553  13.167   5.983
54124SOL    HW164269   6.515  13.090   5.940
54124SOL    HW264270   6.629  13.189   5.929
54125SOL     OW64271   4.960  11.333   6.364
54125SOL    HW164272   5.043  11.336   6.412
54125SOL    HW264273   4.954  11.244   6.331
54126SOL     OW64274  12.951  10.945   1.135
54126SOL    HW164275  12.872  10.972   1.181
54126SOL    HW264276  12.947  10.849   1.136
54127SOL     OW64277  12.054  11.593  10.377
54127SOL    HW164278  12.083  11.646  10.451
54127SOL    HW264279  12.021  11.656  10.313
54128SOL     OW64280   5.048   3.754  12.935
54128SOL    HW164281   5.134   3.732  12.969
54128SOL    HW264282   5.008   3.670  12.914
54129SOL     OW64283   7.243  11.705  11.390
54129SOL    HW164284   7.236  11.610  11.398
54129SOL    HW264285   7.169  11.739  11.439
54130SOL     OW64286   7.893   4.361   3.547
54130SOL    HW164287   7.927   4.272   3.549
54130SOL    HW264288   7.961   4.412   3.503
54131SOL     OW64289   1.252   9.071  10.187
54131SOL    HW164290   1.246   9.091  10.281
54131SOL    HW264291   1.202   8.990  10.177
54132SOL     OW64292  14.076  10.886   4.553
54132SOL    HW164293  13.993  10.857   4.591
54132SOL    HW264294  14.135  10.812   4.564
54133SOL     OW64295  12.434  13.717   9.131
54133SOL    HW164296  12.340  13.708   9.116
54133SOL    HW264297  12.445  13.703   9.225
54134SOL     OW64298  11.575   8.072   2.600
54134SOL    HW164299  11.480   8.060   2.600
54134SOL    HW264300  11.589   8.156   2.558
54135SOL     OW64301   9.550  13.790  13.905
54135SOL    HW164302   9.491  13.786  13.830
54135SOL    HW264303   9.610  13.862  13.885
54136SOL     OW64304   6.394   7.076   1.440
54136SOL    HW164305   6.405   7.118   1.354
54136SOL    HW264306   6.458   7.120   1.496
54137SOL     OW64307   4.183   3.301   3.437
54137SOL    HW164308   4.269   3.289   3.477
54137SOL    HW264309   4.126   3.325   3.511
54138SOL     OW64310   4.419  11.907  11.971
54138SOL    HW164311   4.416  11.874  12.061
54138SOL    HW264312   4.444  11.831  11.919
54139SOL     OW64313   3.636   8.817  14.002
54139SOL    HW164314   3.575   8.844  13.933
54139SOL    HW264315   3.589   8.836  14.083
54140SOL     OW64316   3.356   3.141   7.573
54140SOL    HW164317   3.309   3.173   7.651
54140SOL    HW264318   3.305   3.175   7.500
54141SOL     OW64319  14.592   0.936   5.853
54141SOL    HW164320  14.605   0.854   5.900
54141SOL    HW264321  14.501   0.960   5.873
54142SOL     OW64322   6.479   8.369  11.545
54142SOL    HW164323   6.566   8.384  11.583
54142SOL    HW264324   6.465   8.274  11.554
54143SOL     OW64325  14.419   6.194  12.544
54143SOL    HW164326  14.349   6.152  12.495
54143SOL    HW264327  14.391   6.190  12.635
54144SOL     OW64328  12.134  13.713   3.271
54144SOL    HW164329  12.198  13.695   3.202
54144SOL    HW264330  12.168  13.666   3.347
54145SOL     OW64331   8.748  11.299  10.056
54145SOL    HW164332   8.732  11.392  10.072
54145SOL    HW264333   8.712  11.282   9.969
54146SOL     OW64334  11.462   1.751  10.097
54146SOL    HW164335  11.455   1.666  10.140
54146SOL    HW264336  11.380   1.761  10.048
54147SOL     OW64337  13.592   9.816   0.085
54147SOL    HW164338  13.648   9.879   0.130
54147SOL    HW264339  13.612   9.828  14.869
54148SOL     OW64340   5.613   7.053   3.526
54148SOL    HW164341   5.652   6.966   3.522
54148SOL    HW264342   5.629   7.091   3.440
54149SOL     OW64343   6.515   5.662   3.040
54149SOL    HW164344   6.583   5.684   2.977
54149SOL    HW264345   6.562   5.646   3.122
54150SOL     OW64346   3.106  13.602  13.040
54150SOL    HW164347   3.103  13.513  13.003
54150SOL    HW264348   3.040  13.650  12.990
54151SOL     OW64349   3.972   9.070  12.557
54151SOL    HW164350   3.973   9.013  12.480
54151SOL    HW264351   4.014   9.151  12.528
54152SOL     OW64352   8.572   8.584   3.352
54152SOL    HW164353   8.650   8.566   3.300
54152SOL    HW264354   8.532   8.660   3.310
54153SOL     OW64355  12.622   2.123   0.938
54153SOL    HW164356  12.609   2.143   1.031
54153SOL    HW264357  12.625   2.027   0.934
54154SOL     OW64358  12.388  12.935  13.254
54154SOL    HW164359  12.295  12.918  13.265
54154SOL    HW264360  12.393  13.027  13.229
54155SOL     OW64361  10.841   1.166   6.428
54155SOL    HW164362  10.893   1.179   6.508
54155SOL    HW264363  10.901   1.123   6.367
54156SOL     OW64364   7.282  14.745  13.962
54156SOL    HW164365   7.369  14.730  14.000
54156SOL    HW264366   7.242  14.658  13.961
54157SOL     OW64367   3.965  10.153  11.711
54157SOL    HW164368   4.053  10.187  11.694
54157SOL    HW264369   3.980  10.068  11.753
54158SOL     OW64370   2.139   9.181   7.076
54158SOL    HW164371   2.232   9.170   7.055
54158SOL    HW264372   2.137   9.203   7.169
54159SOL     OW64373   2.574   1.329   3.998
54159SOL    HW164374   2.653   1.362   3.957
54159SOL    HW264375   2.592   1.335   4.092
54160SOL     OW64376   7.629   3.394   5.177
54160SOL    HW164377   7.709   3.419   5.130
54160SOL    HW264378   7.581   3.476   5.186
54161SOL     OW64379   7.702   5.410  11.459
54161SOL    HW164380   7.679   5.326  11.420
54161SOL    HW264381   7.674   5.403  11.550
54162SOL     OW64382   6.563  12.160  11.195
54162SOL    HW164383   6.573  12.245  11.239
54162SOL    HW264384   6.473  12.161  11.163
54163SOL     OW64385  10.750   0.709   3.166
54163SOL    HW164386  10.829   0.679   3.121
54163SOL    HW264387  10.703   0.629   3.188
54164SOL     OW64388   1.251   6.163  12.145
54164SOL    HW164389   1.242   6.068  12.149
54164SOL    HW264390   1.203   6.189  12.067
54165SOL     OW64391  10.170   3.779   2.430
54165SOL    HW164392  10.193   3.790   2.338
54165SOL    HW264393  10.075   3.781   2.432
54166SOL     OW64394  14.650   7.483   1.386
54166SOL    HW164395  14.656   7.422   1.313
54166SOL    HW264396  14.585   7.547   1.359
54167SOL     OW64397   5.530   9.482  13.360
54167SOL    HW164398   5.563   9.518  13.442
54167SOL    HW264399   5.555   9.390  13.361
54168SOL     OW64400   3.212   2.335   6.644
54168SOL    HW164401   3.274   2.264   6.626
54168SOL    HW264402   3.257   2.414   6.615
54169SOL     OW64403   6.855   1.912   2.769
54169SOL    HW164404   6.830   1.981   2.830
54169SOL    HW264405   6.809   1.834   2.800
54170SOL     OW64406  11.790  14.717   4.037
54170SOL    HW164407  11.757  14.661   4.107
54170SOL    HW264408  11.714  14.771   4.013
54171SOL     OW64409   5.963   1.419   1.038
54171SOL    HW164410   6.024   1.440   1.109
54171SOL    HW264411   5.987   1.331   1.012
54172SOL     OW64412   8.135  14.836   2.090
54172SOL    HW164413   8.197  14.825   2.163
54172SOL    HW264414   8.067  14.770   2.106
54173SOL     OW64415   2.857  10.347   2.362
54173SOL    HW164416   2.787  10.301   2.316
54173SOL    HW264417   2.872  10.295   2.441
54174SOL     OW64418   3.740  10.467   8.523
54174SOL    HW164419   3.677  10.529   8.488
54174SOL    HW264420   3.694  10.423   8.594
54175SOL     OW64421   3.374   2.382   1.467
54175SOL    HW164422   3.397   2.465   1.427
54175SOL    HW264423   3.459   2.340   1.485
54176SOL     OW64424   5.501   6.620  14.470
54176SOL    HW164425   5.504   6.713  14.493
54176SOL    HW264426   5.408   6.596  14.476
54177SOL     OW64427   4.870   6.641  12.396
54177SOL    HW164428   4.958   6.649  12.433
54177SOL    HW264429   4.883   6.640  12.301
54178SOL     OW64430   2.788  14.103   2.697
54178SOL    HW164431   2.852  14.154   2.647
54178SOL    HW264432   2.841  14.039   2.743
54179SOL     OW64433  10.035   3.468   2.933
54179SOL    HW164434  10.064   3.558   2.916
54179SOL    HW264435  10.116   3.417   2.937
54180SOL     OW64436  11.610  11.924   5.160
54180SOL    HW164437  11.626  11.890   5.072
54180SOL    HW264438  11.522  11.963   5.155
54181SOL     OW64439   4.717   7.463   0.540
54181SOL    HW164440   4.672   7.436   0.459
54181SOL    HW264441   4.689   7.399   0.605
54182SOL     OW64442   0.964  12.514   4.417
54182SOL    HW164443   1.002  12.591   4.460
54182SOL    HW264444   0.965  12.535   4.324
54183SOL     OW64445   5.151  14.193   6.740
54183SOL    HW164446   5.110  14.247   6.672
54183SOL    HW264447   5.231  14.160   6.700
54184SOL     OW64448   2.910  11.731   5.336
54184SOL    HW164449   2.990  11.748   5.386
54184SOL    HW264450   2.841  11.774   5.386
54185SOL     OW64451   9.822   2.574   4.825
54185SOL    HW164452   9.831   2.504   4.760
54185SOL    HW264453   9.868   2.541   4.902
54186SOL     OW64454  11.779   9.693   6.071
54186SOL    HW164455  11.857   9.721   6.024
54186SOL    HW264456  11.787   9.731   6.158
54187SOL     OW64457   3.961   5.811   4.200
54187SOL    HW164458   3.949   5.786   4.108
54187SOL    HW264459   3.891   5.873   4.217
54188SOL     OW64460   3.089  14.604   1.275
54188SOL    HW164461   3.076  14.542   1.347
54188SOL    HW264462   3.182  14.626   1.279
54189SOL     OW64463  11.132   7.375   4.010
54189SOL    HW164464  11.181   7.458   4.015
54189SOL    HW264465  11.188   7.312   4.054
54190SOL     OW64466  11.259   2.928   2.270
54190SOL    HW164467  11.352   2.937   2.288
54190SOL    HW264468  11.248   2.836   2.245
54191SOL     OW64469  14.774   9.930  14.671
54191SOL    HW164470  14.811   9.971  14.749
54191SOL    HW264471  14.741  10.003  14.618
54192SOL     OW64472   4.554  13.029   6.652
54192SOL    HW164473   4.642  13.039   6.689
54192SOL    HW264474   4.553  13.086   6.575
54193SOL     OW64475   1.152   9.527   5.759
54193SOL    HW164476   1.060   9.502   5.753
54193SOL    HW264477   1.150   9.619   5.788
54194SOL     OW64478   1.454   1.894   5.585
54194SOL    HW164479   1.401   1.946   5.524
54194SOL    HW264480   1.394   1.870   5.655
54195SOL     OW64481   3.134  13.859   3.455
54195SOL    HW164482   3.085  13.803   3.396
54195SOL    HW264483   3.075  13.931   3.476
54196SOL     OW64484   1.099  11.828  10.507
54196SOL    HW164485   1.110  11.870  10.421
54196SOL    HW264486   1.069  11.739  10.486
54197SOL     OW64487   7.879   5.624  12.255
54197SOL    HW164488   7.824   5.546  12.247
54197SOL    HW264489   7.853   5.663  12.338
54198SOL     OW64490   6.665   8.830   9.395
54198SOL    HW164491   6.695   8.786   9.316
54198SOL    HW264492   6.711   8.786   9.467
54199SOL     OW64493   8.578  14.101   3.640
54199SOL    HW164494   8.523  14.023   3.647
54199SOL    HW264495   8.527  14.161   3.585
54200SOL     OW64496   8.721   8.346   7.248
54200SOL    HW164497   8.674   8.335   7.331
54200SOL    HW264498   8.756   8.435   7.253
54201SOL     OW64499   3.975   4.043   8.693
54201SOL    HW164500   4.020   3.959   8.689
54201SOL    HW264501   3.958   4.057   8.786
54202SOL     OW64502  12.529  11.281   9.852
54202SOL    HW164503  12.442  11.250   9.877
54202SOL    HW264504  12.586  11.256   9.925
54203SOL     OW64505   2.394  11.494   8.963
54203SOL    HW164506   2.411  11.554   8.891
54203SOL    HW264507   2.458  11.423   8.952
54204SOL     OW64508   7.831   9.120   8.625
54204SOL    HW164509   7.862   9.032   8.647
54204SOL    HW264510   7.903   9.178   8.650
54205SOL     OW64511   9.175   1.660   6.077
54205SOL    HW164512   9.103   1.678   6.136
54205SOL    HW264513   9.184   1.565   6.078
54206SOL     OW64514  11.149  13.350   3.621
54206SOL    HW164515  11.110  13.380   3.539
54206SOL    HW264516  11.079  13.301   3.664
54207SOL     OW64517  11.589   1.417  13.603
54207SOL    HW164518  11.637   1.360  13.663
54207SOL    HW264519  11.519   1.455  13.656
54208SOL     OW64520   3.183   6.156  14.188
54208SOL    HW164521   3.216   6.144  14.099
54208SOL    HW264522   3.259   6.142  14.244
54209SOL     OW64523   7.084   6.097   5.234
54209SOL    HW164524   7.095   6.028   5.168
54209SOL    HW264525   7.172   6.106   5.273
54210SOL     OW64526   2.957   3.144  14.067
54210SOL    HW164527   2.941   3.050  14.067
54210SOL    HW264528   2.913   3.176  14.146
54211SOL     OW64529  12.547   1.031   2.245
54211SOL    HW164530  12.522   1.122   2.258
54211SOL    HW264531  12.478   0.995   2.189
54212SOL     OW64532  10.899   2.508   0.028
54212SOL    HW164533  10.892   2.590   0.076
54212SOL    HW264534  10.813   2.468   0.036
54213SOL     OW64535   6.653   0.815  10.358
54213SOL    HW164536   6.576   0.789  10.307
54213SOL    HW264537   6.620   0.825  10.448
54214SOL     OW64538   1.588   6.904  10.962
54214SOL    HW164539   1.542   6.823  10.939
54214SOL    HW264540   1.573   6.914  11.056
54215SOL     OW64541   7.902   4.830   0.136
54215SOL    HW164542   7.911   4.807   0.228
54215SOL    HW264543   7.949   4.913   0.126
54216SOL     OW64544   9.389  10.646   4.304
54216SOL    HW164545   9.360  10.722   4.354
54216SOL    HW264546   9.326  10.638   4.233
54217SOL     OW64547   2.800  10.699   7.488
54217SOL    HW164548   2.738  10.663   7.424
54217SOL    HW264549   2.790  10.794   7.479
54218SOL     OW64550   5.615   5.724  11.101
54218SOL    HW164551   5.529   5.739  11.064
54218SOL    HW264552   5.630   5.630  11.088
54219SOL     OW64553  13.319   3.771  11.678
54219SOL    HW164554  13.409   3.766  11.646
54219SOL    HW264555  13.314   3.706  11.748
54220SOL     OW64556  10.231   4.587   8.096
54220SOL    HW164557  10.227   4.511   8.155
54220SOL    HW264558  10.319   4.622   8.108
54221SOL     OW64559   7.713  10.050   8.901
54221SOL    HW164560   7.785  10.086   8.850
54221SOL    HW264561   7.750  10.038   8.989
54222SOL     OW64562   4.809   3.416   1.615
54222SOL    HW164563   4.835   3.507   1.624
54222SOL    HW264564   4.828   3.377   1.700
54223SOL     OW64565   4.202   4.879   3.868
54223SOL    HW164566   4.228   4.937   3.940
54223SOL    HW264567   4.139   4.819   3.906
54224SOL     OW64568   0.715   2.577   2.580
54224SOL    HW164569   0.710   2.650   2.519
54224SOL    HW264570   0.809   2.563   2.595
54225SOL     OW64571   0.189  14.803  10.352
54225SOL    HW164572   0.267  14.849  10.385
54225SOL    HW264573   0.220  14.714  10.334
54226SOL     OW64574   9.790   3.593   0.192
54226SOL    HW164575   9.772   3.499   0.193
54226SOL    HW264576   9.885   3.599   0.179
54227SOL     OW64577  13.887   0.661  11.299
54227SOL    HW164578  13.927   0.717  11.232
54227SOL    HW264579  13.812   0.712  11.331
54228SOL     OW64580   0.320   1.856   1.310
54228SOL    HW164581   0.294   1.923   1.246
54228SOL    HW264582   0.319   1.902   1.394
54229SOL     OW64583   2.579   6.464   9.620
54229SOL    HW164584   2.600   6.479   9.712
54229SOL    HW264585   2.640   6.520   9.572
54230SOL     OW64586   4.680   7.864  11.776
54230SOL    HW164587   4.593   7.900  11.791
54230SOL    HW264588   4.717   7.850  11.863
54231SOL     OW64589  12.212  14.730  11.341
54231SOL    HW164590  12.206  14.808  11.396
54231SOL    HW264591  12.302  14.733  11.306
54232SOL     OW64592  14.854   4.211  10.822
54232SOL    HW164593  14.804   4.275  10.873
54232SOL    HW264594  14.866   4.138  10.882
54233SOL     OW64595  11.254   1.432  14.786
54233SOL    HW164596  11.348   1.448  14.795
54233SOL    HW264597  11.217   1.461  14.870
54234SOL     OW64598   3.913   1.488   3.010
54234SOL    HW164599   3.845   1.539   2.967
54234SOL    HW264600   3.890   1.492   3.103
54235SOL     OW64601   6.801  10.178   3.336
54235SOL    HW164602   6.804  10.232   3.257
54235SOL    HW264603   6.735  10.112   3.316
54236SOL     OW64604   5.316   6.943   3.475
54236SOL    HW164605   5.397   6.901   3.504
54236SOL    HW264606   5.331   6.967   3.384
54237SOL     OW64607   0.549  14.540   8.613
54237SOL    HW164608   0.555  14.444   8.612
54237SOL    HW264609   0.625  14.568   8.664
54238SOL     OW64610   9.578   0.385  13.817
54238SOL    HW164611   9.632   0.421  13.747
54238SOL    HW264612   9.514   0.330  13.772
54239SOL     OW64613   3.680   9.928   8.684
54239SOL    HW164614   3.595   9.886   8.665
54239SOL    HW264615   3.740   9.889   8.621
54240SOL     OW64616   7.799   7.620   3.999
54240SOL    HW164617   7.807   7.697   4.056
54240SOL    HW264618   7.885   7.609   3.961
54241SOL     OW64619   8.575  11.892   0.946
54241SOL    HW164620   8.500  11.942   0.912
54241SOL    HW264621   8.599  11.832   0.876
54242SOL     OW64622   4.012   4.325  10.468
54242SOL    HW164623   4.015   4.260  10.399
54242SOL    HW264624   4.102   4.358  10.474
54243SOL     OW64625   7.096  10.218  12.843
54243SOL    HW164626   7.010  10.178  12.853
54243SOL    HW264627   7.082  10.310  12.868
54244SOL     OW64628  11.332   2.755   0.640
54244SOL    HW164629  11.281   2.714   0.570
54244SOL    HW264630  11.297   2.844   0.646
54245SOL     OW64631   6.310  10.354   8.056
54245SOL    HW164632   6.235  10.305   8.089
54245SOL    HW264633   6.362  10.289   8.008
54246SOL     OW64634   0.553   5.680   7.461
54246SOL    HW164635   0.459   5.698   7.468
54246SOL    HW264636   0.577   5.646   7.548
54247SOL     OW64637   3.034   9.384  11.241
54247SOL    HW164638   2.963   9.397  11.178
54247SOL    HW264639   3.008   9.306  11.291
54248SOL     OW64640   4.412   4.962   2.522
54248SOL    HW164641   4.424   4.905   2.446
54248SOL    HW264642   4.389   4.903   2.593
54249SOL     OW64643   2.102   1.619   3.710
54249SOL    HW164644   2.120   1.569   3.631
54249SOL    HW264645   2.176   1.599   3.768
54250SOL     OW64646   6.102  13.993  12.010
54250SOL    HW164647   6.017  14.035  12.024
54250SOL    HW264648   6.080  13.904  11.984
54251SOL     OW64649   5.835   8.620   0.517
54251SOL    HW164650   5.914   8.672   0.533
54251SOL    HW264651   5.868   8.534   0.491
54252SOL     OW64652   1.785   6.646   1.185
54252SOL    HW164653   1.803   6.552   1.182
54252SOL    HW264654   1.713   6.655   1.247
54253SOL     OW64655   0.324   5.307   7.325
54253SOL    HW164656   0.411   5.268   7.333
54253SOL    HW264657   0.314   5.360   7.404
54254SOL     OW64658   3.041   4.134   8.137
54254SOL    HW164659   3.098   4.207   8.115
54254SOL    HW264660   2.952   4.168   8.127
54255SOL     OW64661  13.774  14.776  10.869
54255SOL    HW164662  13.678  14.777  10.869
54255SOL    HW264663  13.798  14.844  10.805
54256SOL     OW64664  11.001   2.427   2.663
54256SOL    HW164665  10.931   2.460   2.607
54256SOL    HW264666  11.010   2.493   2.732
54257SOL     OW64667  14.477   1.185   0.358
54257SOL    HW164668  14.531   1.172   0.281
54257SOL    HW264669  14.405   1.122   0.348
54258SOL     OW64670   2.063  13.346  11.759
54258SOL    HW164671   2.095  13.260  11.786
54258SOL    HW264672   1.983  13.328  11.711
54259SOL     OW64673   3.018  14.602   4.912
54259SOL    HW164674   2.936  14.554   4.920
54259SOL    HW264675   3.040  14.627   5.002
54260SOL     OW64676  10.146  12.939   7.816
54260SOL    HW164677  10.176  12.850   7.833
54260SOL    HW264678  10.151  12.983   7.901
54261SOL     OW64679   7.676   6.473   2.166
54261SOL    HW164680   7.590   6.469   2.125
54261SOL    HW264681   7.698   6.566   2.166
54262SOL     OW64682   0.119   7.233  13.735
54262SOL    HW164683   0.144   7.246  13.644
54262SOL    HW264684   0.084   7.144  13.738
54263SOL     OW64685  13.458   7.859   2.913
54263SOL    HW164686  13.457   7.765   2.896
54263SOL    HW264687  13.550   7.883   2.909
54264SOL     OW64688  14.416   0.375  12.938
54264SOL    HW164689  14.371   0.327  13.008
54264SOL    HW264690  14.483   0.314  12.907
54265SOL     OW64691   3.770   3.168   1.183
54265SOL    HW164692   3.791   3.177   1.276
54265SOL    HW264693   3.794   3.079   1.160
54266SOL     OW64694  10.012  14.448   0.636
54266SOL    HW164695  10.088  14.422   0.584
54266SOL    HW264696   9.938  14.443   0.575
54267SOL     OW64697   0.034   5.650  14.642
54267SOL    HW164698  14.827   5.626  14.680
54267SOL    HW264699   0.094   5.652  14.716
54268SOL     OW64700   3.509  14.225  12.929
54268SOL    HW164701   3.549  14.150  12.884
54268SOL    HW264702   3.433  14.247  12.875
54269SOL     OW64703   9.692  13.799  14.599
54269SOL    HW164704   9.692  13.834  14.510
54269SOL    HW264705   9.777  13.823  14.635
54270SOL     OW64706   3.296   8.468   9.798
54270SOL    HW164707   3.358   8.397   9.815
54270SOL    HW264708   3.242   8.436   9.725
54271SOL     OW64709  10.180  13.141   7.356
54271SOL    HW164710  10.202  13.176   7.270
54271SOL    HW264711  10.090  13.170   7.372
54272SOL     OW64712   8.154   7.677   1.112
54272SOL    HW164713   8.066   7.649   1.087
54272SOL    HW264714   8.167   7.760   1.065
54273SOL     OW64715   6.693  10.509  12.605
54273SOL    HW164716   6.760  10.578  12.609
54273SOL    HW264717   6.696  10.469  12.692
54274SOL     OW64718   5.083   6.875   3.314
54274SOL    HW164719   5.114   6.849   3.401
54274SOL    HW264720   5.094   6.797   3.260
54275SOL     OW64721  14.844   7.380  12.406
54275SOL    HW164722  14.845   7.288  12.382
54275SOL    HW264723   0.044   7.417  12.363
54276SOL     OW64724   6.269   5.658  13.361
54276SOL    HW164725   6.259   5.723  13.430
54276SOL    HW264726   6.197   5.597  13.375
54277SOL     OW64727  11.574   5.828  14.811
54277SOL    HW164728  11.526   5.772  14.871
54277SOL    HW264729  11.546   5.917  14.832
54278SOL     OW64730  13.725  11.704   0.884
54278SOL    HW164731  13.724  11.612   0.857
54278SOL    HW264732  13.733  11.753   0.802
54279SOL     OW64733  11.826   9.582   0.624
54279SOL    HW164734  11.787   9.500   0.595
54279SOL    HW264735  11.921   9.567   0.618
54280SOL     OW64736   6.391  13.312  11.584
54280SOL    HW164737   6.434  13.396  11.567
54280SOL    HW264738   6.390  13.267  11.500
54281SOL     OW64739  13.366  11.936   6.585
54281SOL    HW164740  13.434  11.996   6.615
54281SOL    HW264741  13.403  11.894   6.508
54282SOL     OW64742  14.132   2.643   5.968
54282SOL    HW164743  14.219   2.616   5.938
54282SOL    HW264744  14.075   2.629   5.891
54283SOL     OW64745   2.701   1.838   7.731
54283SOL    HW164746   2.797   1.838   7.724
54283SOL    HW264747   2.679   1.929   7.750
54284SOL     OW64748  12.898  11.847   5.939
54284SOL    HW164749  12.870  11.907   6.007
54284SOL    HW264750  12.933  11.771   5.986
54285SOL     OW64751   2.255  10.954   0.733
54285SOL    HW164752   2.321  10.937   0.800
54285SOL    HW264753   2.193  11.013   0.776
54286SOL     OW64754   0.465  14.360  11.503
54286SOL    HW164755   0.445  14.413  11.426
54286SOL    HW264756   0.537  14.406  11.546
54287SOL     OW64757   1.923  14.655   5.634
54287SOL    HW164758   1.959  14.740   5.610
54287SOL    HW264759   1.998  14.604   5.666
54288SOL     OW64760   0.774   6.032   1.307
54288SOL    HW164761   0.719   6.101   1.343
54288SOL    HW264762   0.715   5.956   1.300
54289SOL     OW64763   2.493   0.554   5.969
54289SOL    HW164764   2.582   0.520   5.961
54289SOL    HW264765   2.456   0.507   6.044
54290SOL     OW64766   3.440   5.615   9.137
54290SOL    HW164767   3.360   5.612   9.085
54290SOL    HW264768   3.460   5.523   9.156
54291SOL     OW64769   1.795   2.596  14.301
54291SOL    HW164770   1.785   2.503  14.324
54291SOL    HW264771   1.887   2.604  14.275
54292SOL     OW64772  13.016   1.355   6.008
54292SOL    HW164773  12.953   1.295   5.968
54292SOL    HW264774  12.962   1.426   6.044
54293SOL     OW64775  10.388   4.813   1.122
54293SOL    HW164776  10.423   4.768   1.045
54293SOL    HW264777  10.294   4.813   1.110
54294SOL     OW64778   6.516   9.703  12.310
54294SOL    HW164779   6.429   9.663  12.312
54294SOL    HW264780   6.503   9.787  12.265
54295SOL     OW64781  10.682   3.415   7.871
54295SOL    HW164782  10.640   3.347   7.924
54295SOL    HW264783  10.637   3.496   7.896
54296SOL     OW64784   2.787  10.227   2.621
54296SOL    HW164785   2.734  10.291   2.667
54296SOL    HW264786   2.809  10.161   2.687
54297SOL     OW64787  12.389   9.224   1.773
54297SOL    HW164788  12.456   9.240   1.840
54297SOL    HW264789  12.365   9.310   1.740
54298SOL     OW64790   2.392  10.688   8.289
54298SOL    HW164791   2.475  10.735   8.288
54298SOL    HW264792   2.368  10.683   8.382
54299SOL     OW64793  13.528   4.313  13.581
54299SOL    HW164794  13.438   4.341  13.596
54299SOL    HW264795  13.558   4.282  13.666
54300SOL     OW64796   7.556   4.174  10.555
54300SOL    HW164797   7.603   4.132  10.627
54300SOL    HW264798   7.507   4.102  10.514
54301SOL     OW64799  13.119   1.690   5.794
54301SOL    HW164800  13.025   1.680   5.782
54301SOL    HW264801  13.155   1.602   5.785
54302SOL     OW64802  13.359  13.703  12.689
54302SOL    HW164803  13.401  13.777  12.734
54302SOL    HW264804  13.425  13.633  12.692
54303SOL     OW64805   8.996   0.988   8.544
54303SOL    HW164806   8.971   1.011   8.633
54303SOL    HW264807   9.087   1.017   8.536
54304SOL     OW64808  14.669   7.938   0.591
54304SOL    HW164809  14.722   8.011   0.624
54304SOL    HW264810  14.730   7.888   0.537
54305SOL     OW64811  14.811   0.909   2.965
54305SOL    HW164812  14.821   1.001   2.941
54305SOL    HW264813  14.727   0.905   3.011
54306SOL     OW64814   6.628   3.464  10.520
54306SOL    HW164815   6.634   3.497  10.430
54306SOL    HW264816   6.537   3.478  10.545
54307SOL     OW64817  13.778  14.580   2.697
54307SOL    HW164818  13.799  14.642   2.628
54307SOL    HW264819  13.691  14.548   2.674
54308SOL     OW64820   0.785   0.702  12.536
54308SOL    HW164821   0.764   0.755  12.459
54308SOL    HW264822   0.753   0.614  12.514
54309SOL     OW64823  10.983  11.191  10.969
54309SOL    HW164824  10.979  11.099  10.997
54309SOL    HW264825  10.894  11.223  10.983
54310SOL     OW64826  10.156  14.147   2.601
54310SOL    HW164827  10.232  14.101   2.566
54310SOL    HW264828  10.094  14.149   2.528
54311SOL     OW64829   2.069   2.251   8.435
54311SOL    HW164830   2.034   2.248   8.346
54311SOL    HW264831   2.139   2.317   8.431
54312SOL     OW64832  13.829  11.965   3.122
54312SOL    HW164833  13.819  11.919   3.039
54312SOL    HW264834  13.794  11.905   3.187
54313SOL     OW64835  10.535   8.247   0.659
54313SOL    HW164836  10.445   8.222   0.677
54313SOL    HW264837  10.575   8.168   0.623
54314SOL     OW64838  10.631   8.826  14.850
54314SOL    HW164839  10.627   8.859  14.760
54314SOL    HW264840  10.564   8.757  14.853
54315SOL     OW64841   1.663   6.862   9.418
54315SOL    HW164842   1.702   6.849   9.505
54315SOL    HW264843   1.732   6.836   9.357
54316SOL     OW64844   4.189  13.290   7.899
54316SOL    HW164845   4.263  13.231   7.886
54316SOL    HW264846   4.156  13.268   7.986
54317SOL     OW64847   9.096   4.250   8.276
54317SOL    HW164848   9.012   4.230   8.317
54317SOL    HW264849   9.084   4.227   8.184
54318SOL     OW64850   9.489   0.921   4.462
54318SOL    HW164851   9.569   0.954   4.421
54318SOL    HW264852   9.512   0.833   4.492
54319SOL     OW64853   4.712  11.340   0.146
54319SOL    HW164854   4.739  11.352   0.237
54319SOL    HW264855   4.793  11.333   0.097
54320SOL     OW64856  10.281  12.574  13.779
54320SOL    HW164857  10.330  12.496  13.806
54320SOL    HW264858  10.314  12.594  13.692
54321SOL     OW64859   3.015   6.495  12.142
54321SOL    HW164860   3.042   6.565  12.082
54321SOL    HW264861   2.919   6.504  12.148
54322SOL     OW64862   2.250   2.082  13.064
54322SOL    HW164863   2.313   2.092  13.135
54322SOL    HW264864   2.164   2.079  13.107
54323SOL     OW64865   9.431   0.185   6.641
54323SOL    HW164866   9.349   0.227   6.666
54323SOL    HW264867   9.466   0.149   6.722
54324SOL     OW64868   8.028   5.298   2.747
54324SOL    HW164869   8.115   5.292   2.786
54324SOL    HW264870   8.039   5.261   2.659
54325SOL     OW64871   9.204   5.706   6.443
54325SOL    HW164872   9.194   5.626   6.495
54325SOL    HW264873   9.116   5.742   6.438
54326SOL     OW64874  14.276   4.395   2.507
54326SOL    HW164875  14.271   4.464   2.440
54326SOL    HW264876  14.264   4.442   2.589
54327SOL     OW64877   7.143   3.752  11.461
54327SOL    HW164878   7.182   3.810  11.395
54327SOL    HW264879   7.156   3.797  11.544
54328SOL     OW64880   6.119   5.548   4.201
54328SOL    HW164881   6.186   5.544   4.133
54328SOL    HW264882   6.056   5.480   4.176
54329SOL     OW64883   3.518   0.195  10.375
54329SOL    HW164884   3.480   0.257  10.436
54329SOL    HW264885   3.609   0.186  10.403
54330SOL     OW64886   4.856   5.134  12.845
54330SOL    HW164887   4.810   5.214  12.870
54330SOL    HW264888   4.786   5.072  12.821
54331SOL     OW64889   3.452   5.141  14.436
54331SOL    HW164890   3.492   5.204  14.377
54331SOL    HW264891   3.389   5.093  14.381
54332SOL     OW64892  12.433   4.647   4.088
54332SOL    HW164893  12.509   4.692   4.051
54332SOL    HW264894  12.411   4.580   4.024
54333SOL     OW64895   3.257  12.590   0.875
54333SOL    HW164896   3.232  12.499   0.860
54333SOL    HW264897   3.352  12.590   0.866
54334SOL     OW64898   7.400   2.317  12.045
54334SOL    HW164899   7.437   2.299  12.132
54334SOL    HW264900   7.409   2.235  11.997
54335SOL     OW64901  13.798  14.377   6.188
54335SOL    HW164902  13.734  14.314   6.154
54335SOL    HW264903  13.746  14.432   6.247
54336SOL     OW64904   5.773   1.005   0.622
54336SOL    HW164905   5.688   0.968   0.597
54336SOL    HW264906   5.797   1.061   0.549
54337SOL     OW64907   6.266  12.615  11.586
54337SOL    HW164908   6.352  12.642  11.554
54337SOL    HW264909   6.217  12.594  11.507
54338SOL     OW64910   7.662   3.841  10.404
54338SOL    HW164911   7.657   3.746  10.401
54338SOL    HW264912   7.718   3.860  10.480
54339SOL     OW64913   7.883   5.208   8.938
54339SOL    HW164914   7.900   5.119   8.969
54339SOL    HW264915   7.970   5.248   8.932
54340SOL     OW64916   2.659   0.852   8.306
54340SOL    HW164917   2.693   0.929   8.351
54340SOL    HW264918   2.564   0.860   8.312
54341SOL     OW64919   0.027   9.255  13.586
54341SOL    HW164920   0.115   9.226  13.564
54341SOL    HW264921  14.863   9.178  13.625
54342SOL     OW64922   7.682   9.630   3.401
54342SOL    HW164923   7.713   9.714   3.435
54342SOL    HW264924   7.589   9.629   3.422
54343SOL     OW64925  10.987   4.234   3.285
54343SOL    HW164926  10.972   4.205   3.195
54343SOL    HW264927  10.988   4.330   3.280
54344SOL     OW64928  12.961   0.418   3.824
54344SOL    HW164929  12.905   0.483   3.781
54344SOL    HW264930  13.050   0.441   3.796
54345SOL     OW64931   5.236   1.740   3.747
54345SOL    HW164932   5.289   1.682   3.802
54345SOL    HW264933   5.300   1.801   3.710
54346SOL     OW64934   9.327   6.592  13.112
54346SOL    HW164935   9.388   6.662  13.089
54346SOL    HW264936   9.383   6.519  13.138
54347SOL     OW64937   6.928   8.709  10.291
54347SOL    HW164938   6.982   8.675  10.363
54347SOL    HW264939   6.852   8.651  10.290
54348SOL     OW64940   9.640   2.685  11.135
54348SOL    HW164941   9.646   2.590  11.136
54348SOL    HW264942   9.676   2.711  11.050
54349SOL     OW64943  10.731   8.053   9.218
54349SOL    HW164944  10.677   7.995   9.165
54349SOL    HW264945  10.796   8.088   9.157
54350SOL     OW64946   2.528   6.358   0.011
54350SOL    HW164947   2.572   6.288  14.840
54350SOL    HW264948   2.436   6.349  14.867
54351SOL     OW64949   2.366  14.154   9.779
54351SOL    HW164950   2.410  14.236   9.803
54351SOL    HW264951   2.274  14.170   9.796
54352SOL     OW64952  12.156   5.029   4.224
54352SOL    HW164953  12.138   5.097   4.160
54352SOL    HW264954  12.190   4.956   4.172
54353SOL     OW64955  12.750   0.523  11.472
54353SOL    HW164956  12.774   0.609  11.506
54353SOL    HW264957  12.831   0.490  11.433
54354SOL     OW64958   9.595   4.877   6.175
54354SOL    HW164959   9.527   4.905   6.236
54354SOL    HW264960   9.551   4.813   6.118
54355SOL     OW64961   7.228   2.177  10.962
54355SOL    HW164962   7.239   2.266  10.995
54355SOL    HW264963   7.267   2.121  11.029
54356SOL     OW64964  11.552  13.572   1.545
54356SOL    HW164965  11.496  13.514   1.494
54356SOL    HW264966  11.588  13.515   1.614
54357SOL     OW64967  11.973   7.574  11.682
54357SOL    HW164968  11.955   7.481  11.674
54357SOL    HW264969  11.903   7.607  11.739
54358SOL     OW64970   4.110   5.665   5.095
54358SOL    HW164971   4.168   5.632   5.163
54358SOL    HW264972   4.095   5.591   5.037
54359SOL     OW64973   4.534  11.510  12.905
54359SOL    HW164974   4.620  11.485  12.870
54359SOL    HW264975   4.473  11.492  12.834
54360SOL     OW64976  14.119   3.677   0.399
54360SOL    HW164977  14.130   3.635   0.484
54360SOL    HW264978  14.105   3.770   0.420
54361SOL     OW64979  13.986  10.197  13.551
54361SOL    HW164980  13.991  10.130  13.619
54361SOL    HW264981  13.967  10.278  13.598
54362SOL     OW64982   0.616   9.677  11.727
54362SOL    HW164983   0.527   9.704  11.750
54362SOL    HW264984   0.606   9.589  11.690
54363SOL     OW64985   7.274  13.277   1.297
54363SOL    HW164986   7.218  13.267   1.220
54363SOL    HW264987   7.360  13.247   1.269
54364SOL     OW64988   0.013  12.373  14.790
54364SOL    HW164989  14.862  12.464  14.781
54364SOL    HW264990  14.866  12.332  14.708
54365SOL     OW64991  10.642  12.528   3.188
54365SOL    HW164992  10.691  12.559   3.264
54365SOL    HW264993  10.708  12.505   3.123
54366SOL     OW64994  11.444   3.290  14.745
54366SOL    HW164995  11.437   3.280  14.840
54366SOL    HW264996  11.518   3.235  14.720
54367SOL     OW64997  13.985   6.279   2.998
54367SOL    HW164998  13.925   6.352   2.985
54367SOL    HW264999  13.980   6.259   3.091
54368SOL     OW65000   4.625   5.081   8.342
54368SOL    HW165001   4.684   5.061   8.270
54368SOL    HW265002   4.544   5.110   8.300
54369SOL     OW65003   0.679  12.037   1.243
54369SOL    HW165004   0.692  11.971   1.174
54369SOL    HW265005   0.673  12.120   1.196
54370SOL     OW65006   6.400  13.355   4.524
54370SOL    HW165007   6.304  13.350   4.527
54370SOL    HW265008   6.424  13.300   4.449
54371SOL     OW65009   0.369  11.746   4.603
54371SOL    HW165010   0.447  11.714   4.559
54371SOL    HW265011   0.344  11.825   4.555
54372SOL     OW65012   9.371   5.918  14.506
54372SOL    HW165013   9.404   5.829  14.519
54372SOL    HW265014   9.282   5.906  14.475
54373SOL     OW65015   5.637   4.446   6.624
54373SOL    HW165016   5.722   4.450   6.578
54373SOL    HW265017   5.620   4.352   6.632
54374SOL     OW65018   8.489   8.094   7.430
54374SOL    HW165019   8.584   8.103   7.440
54374SOL    HW265020   8.474   8.000   7.426
54375SOL     OW65021   9.082   1.572  11.168
54375SOL    HW165022   9.025   1.504  11.205
54375SOL    HW265023   9.044   1.654  11.200
54376SOL     OW65024   0.020   4.961   4.773
54376SOL    HW165025   0.115   4.957   4.789
54376SOL    HW265026   0.009   4.922   4.686
54377SOL     OW65027  11.054   1.677  10.814
54377SOL    HW165028  11.079   1.728  10.737
54377SOL    HW265029  10.958   1.672  10.809
54378SOL     OW65030   6.929   3.626   5.061
54378SOL    HW165031   7.007   3.635   5.005
54378SOL    HW265032   6.871   3.697   5.033
54379SOL     OW65033  10.292   9.027   8.992
54379SOL    HW165034  10.319   9.111   9.029
54379SOL    HW265035  10.374   8.985   8.966
54380SOL     OW65036  13.114  11.684   9.220
54380SOL    HW165037  13.123  11.589   9.212
54380SOL    HW265038  13.072  11.698   9.305
54381SOL     OW65039  11.352   3.695   9.938
54381SOL    HW165040  11.316   3.717  10.023
54381SOL    HW265041  11.430   3.750   9.929
54382SOL     OW65042   7.913  13.064   5.563
54382SOL    HW165043   7.844  13.033   5.504
54382SOL    HW265044   7.944  12.985   5.607
54383SOL     OW65045   4.237   6.205   0.221
54383SOL    HW165046   4.303   6.138   0.238
54383SOL    HW265047   4.286   6.279   0.186
54384SOL     OW65048   4.322   9.141   6.029
54384SOL    HW165049   4.232   9.109   6.040
54384SOL    HW265050   4.361   9.131   6.116
54385SOL     OW65051  12.468  12.765   3.881
54385SOL    HW165052  12.454  12.783   3.975
54385SOL    HW265053  12.468  12.669   3.876
54386SOL     OW65054   2.961   6.545   1.663
54386SOL    HW165055   3.042   6.571   1.707
54386SOL    HW265056   2.931   6.624   1.618
54387SOL     OW65057  13.625  12.346   8.602
54387SOL    HW165058  13.667  12.406   8.664
54387SOL    HW265059  13.553  12.396   8.566
54388SOL     OW65060   8.020   8.740   7.698
54388SOL    HW165061   7.984   8.651   7.694
54388SOL    HW265062   7.943   8.796   7.715
54389SOL     OW65063   1.269   0.479   8.924
54389SOL    HW165064   1.358   0.513   8.932
54389SOL    HW265065   1.217   0.554   8.893
54390SOL     OW65066   8.250   3.971   5.052
54390SOL    HW165067   8.174   3.984   4.996
54390SOL    HW265068   8.238   4.034   5.123
54391SOL     OW65069   5.902   1.202  12.348
54391SOL    HW165070   5.842   1.276  12.349
54391SOL    HW265071   5.857   1.136  12.294
54392SOL     OW65072   1.005   5.788  14.023
54392SOL    HW165073   0.942   5.718  14.007
54392SOL    HW265074   0.958   5.851  14.078
54393SOL     OW65075  14.050   9.399  10.114
54393SOL    HW165076  14.086   9.310  10.118
54393SOL    HW265077  13.996   9.400  10.035
54394SOL     OW65078   8.625  11.691   2.065
54394SOL    HW165079   8.697  11.711   2.006
54394SOL    HW265080   8.667  11.666   2.147
54395SOL     OW65081   1.163  10.340   8.684
54395SOL    HW165082   1.128  10.330   8.773
54395SOL    HW265083   1.226  10.268   8.675
54396SOL     OW65084  13.962   4.193   6.479
54396SOL    HW165085  13.870   4.209   6.501
54396SOL    HW265086  13.978   4.103   6.505
54397SOL     OW65087  12.163   0.154  13.226
54397SOL    HW165088  12.154   0.241  13.265
54397SOL    HW265089  12.253   0.128  13.246
54398SOL     OW65090   3.665   0.696  12.833
54398SOL    HW165091   3.660   0.673  12.926
54398SOL    HW265092   3.575   0.686  12.801
54399SOL     OW65093   4.300   1.379   3.126
54399SOL    HW165094   4.276   1.460   3.081
54399SOL    HW265095   4.219   1.328   3.128
54400SOL     OW65096   3.589   0.337  11.649
54400SOL    HW165097   3.613   0.422  11.611
54400SOL    HW265098   3.663   0.279  11.627
54401SOL     OW65099  11.011   6.179   4.984
54401SOL    HW165100  10.949   6.246   5.013
54401SOL    HW265101  11.039   6.206   4.897
54402SOL     OW65102   5.310  10.867   5.636
54402SOL    HW165103   5.280  10.793   5.584
54402SOL    HW265104   5.275  10.851   5.724
54403SOL     OW65105   3.374   8.311   1.897
54403SOL    HW165106   3.346   8.220   1.908
54403SOL    HW265107   3.435   8.309   1.823
54404SOL     OW65108   7.086   2.552   4.674
54404SOL    HW165109   7.138   2.544   4.594
54404SOL    HW265110   7.150   2.542   4.744
54405SOL     OW65111   7.150   6.260   6.215
54405SOL    HW165112   7.230   6.302   6.246
54405SOL    HW265113   7.178   6.172   6.188
54406SOL     OW65114   8.743   5.338  12.935
54406SOL    HW165115   8.743   5.354  12.840
54406SOL    HW265116   8.751   5.243  12.943
54407SOL     OW65117  10.686  12.299   9.452
54407SOL    HW165118  10.602  12.261   9.478
54407SOL    HW265119  10.733  12.227   9.410
54408SOL     OW65120  11.500   8.226   4.413
54408SOL    HW165121  11.494   8.233   4.508
54408SOL    HW265122  11.559   8.296   4.387
54409SOL     OW65123   2.481   9.910  10.730
54409SOL    HW165124   2.539   9.952  10.666
54409SOL    HW265125   2.426   9.851  10.677
54410SOL     OW65126   1.248   5.879   7.184
54410SOL    HW165127   1.216   5.947   7.244
54410SOL    HW265128   1.336   5.860   7.215
54411SOL     OW65129   1.234   1.125   3.442
54411SOL    HW165130   1.274   1.044   3.412
54411SOL    HW265131   1.143   1.102   3.462
54412SOL     OW65132   2.470   7.476   8.214
54412SOL    HW165133   2.495   7.452   8.303
54412SOL    HW265134   2.481   7.396   8.164
54413SOL     OW65135  10.201   5.210   3.028
54413SOL    HW165136  10.276   5.233   3.083
54413SOL    HW265137  10.131   5.270   3.055
54414SOL     OW65138   1.089  10.608   6.319
54414SOL    HW165139   1.004  10.587   6.355
54414SOL    HW265140   1.110  10.534   6.262
54415SOL     OW65141   9.392   9.326   6.737
54415SOL    HW165142   9.398   9.279   6.820
54415SOL    HW265143   9.449   9.277   6.677
54416SOL     OW65144   9.189  12.165   6.375
54416SOL    HW165145   9.203  12.102   6.305
54416SOL    HW265146   9.215  12.249   6.338
54417SOL     OW65147   4.918   2.046   8.805
54417SOL    HW165148   4.892   2.108   8.873
54417SOL    HW265149   4.885   2.083   8.724
54418SOL     OW65150  10.892   3.498   2.915
54418SOL    HW165151  10.854   3.419   2.877
54418SOL    HW265152  10.986   3.479   2.921
54419SOL     OW65153   6.709  14.704   3.460
54419SOL    HW165154   6.775  14.641   3.432
54419SOL    HW265155   6.687  14.752   3.380
54420SOL     OW65156   7.606  13.366  13.392
54420SOL    HW165157   7.672  13.377  13.460
54420SOL    HW265158   7.640  13.295  13.336
54421SOL     OW65159   3.227   7.150   4.371
54421SOL    HW165160   3.229   7.244   4.388
54421SOL    HW265161   3.309   7.132   4.325
54422SOL     OW65162   3.859   2.168   4.500
54422SOL    HW165163   3.954   2.175   4.491
54422SOL    HW265164   3.838   2.228   4.572
54423SOL     OW65165   2.569   8.860  10.339
54423SOL    HW165166   2.560   8.764  10.338
54423SOL    HW265167   2.658   8.874  10.372
54424SOL     OW65168  13.060  13.785   7.846
54424SOL    HW165169  13.067  13.717   7.913
54424SOL    HW265170  13.020  13.740   7.771
54425SOL     OW65171   7.815   6.100  12.217
54425SOL    HW165172   7.901   6.121  12.253
54425SOL    HW265173   7.809   6.152  12.137
54426SOL     OW65174  10.477  14.873   8.047
54426SOL    HW165175  10.447   0.031   7.963
54426SOL    HW265176  10.540   0.060   8.079
54427SOL     OW65177   6.459   9.141  10.061
54427SOL    HW165178   6.552   9.119  10.060
54427SOL    HW265179   6.446   9.193   9.982
54428SOL     OW65180  12.738   9.587   1.811
54428SOL    HW165181  12.827   9.601   1.781
54428SOL    HW265182  12.700   9.527   1.747
54429SOL     OW65183  11.017   7.136  10.912
54429SOL    HW165184  10.930   7.170  10.930
54429SOL    HW265185  11.075   7.211  10.925
54430SOL     OW65186  13.896  12.949   2.996
54430SOL    HW165187  13.861  12.866   3.028
54430SOL    HW265188  13.936  12.927   2.911
54431SOL     OW65189   1.722   6.375  11.363
54431SOL    HW165190   1.680   6.405  11.443
54431SOL    HW265191   1.650   6.369  11.300
54432SOL     OW65192   8.757   1.192   9.385
54432SOL    HW165193   8.751   1.245   9.464
54432SOL    HW265194   8.666   1.174   9.361
54433SOL     OW65195   1.084  13.677   3.488
54433SOL    HW165196   1.102  13.603   3.430
54433SOL    HW265197   1.012  13.723   3.445
54434SOL     OW65198   8.594  11.831   0.661
54434SOL    HW165199   8.526  11.765   0.676
54434SOL    HW265200   8.548  11.914   0.671
54435SOL     OW65201   9.544  11.706   5.386
54435SOL    HW165202   9.558  11.650   5.462
54435SOL    HW265203   9.489  11.653   5.328
54436SOL     OW65204  10.048  10.713   5.051
54436SOL    HW165205   9.978  10.685   4.992
54436SOL    HW265206  10.025  10.803   5.074
54437SOL     OW65207   8.758   0.449   9.164
54437SOL    HW165208   8.678   0.402   9.187
54437SOL    HW265209   8.824   0.415   9.226
54438SOL     OW65210   7.837   1.375  11.917
54438SOL    HW165211   7.768   1.314  11.944
54438SOL    HW265212   7.917   1.338  11.953
54439SOL     OW65213   3.017   7.836   2.018
54439SOL    HW165214   2.936   7.840   2.069
54439SOL    HW265215   2.988   7.846   1.927
54440SOL     OW65216   6.913  10.513   2.886
54440SOL    HW165217   6.931  10.518   2.792
54440SOL    HW265218   6.899  10.604   2.913
54441SOL     OW65219   9.592   1.447   1.352
54441SOL    HW165220   9.629   1.533   1.372
54441SOL    HW265221   9.498   1.464   1.340
54442SOL     OW65222   3.383  14.805  11.010
54442SOL    HW165223   3.393  14.861  10.933
54442SOL    HW265224   3.441  14.730  10.993
54443SOL     OW65225   0.690   2.580   2.994
54443SOL    HW165226   0.750   2.522   2.948
54443SOL    HW265227   0.716   2.668   2.966
54444SOL     OW65228  10.770   6.564  11.624
54444SOL    HW165229  10.726   6.489  11.665
54444SOL    HW265230  10.859   6.561  11.657
54445SOL     OW65231  13.126   6.390   5.726
54445SOL    HW165232  13.147   6.310   5.679
54445SOL    HW265233  13.157   6.461   5.670
54446SOL     OW65234   8.350  10.615  11.251
54446SOL    HW165235   8.358  10.532  11.298
54446SOL    HW265236   8.265  10.610  11.208
54447SOL     OW65237   1.534   2.990  13.675
54447SOL    HW165238   1.469   3.055  13.648
54447SOL    HW265239   1.556   2.944  13.594
54448SOL     OW65240   8.789  12.110   7.038
54448SOL    HW165241   8.694  12.102   7.052
54448SOL    HW265242   8.818  12.171   7.105
54449SOL     OW65243   7.511   2.363  12.722
54449SOL    HW165244   7.534   2.455  12.732
54449SOL    HW265245   7.416   2.361  12.736
54450SOL     OW65246  12.610  10.017  12.907
54450SOL    HW165247  12.688  10.052  12.864
54450SOL    HW265248  12.543  10.085  12.896
54451SOL     OW65249   9.201  11.367  10.253
54451SOL    HW165250   9.215  11.276  10.228
54451SOL    HW265251   9.250  11.377  10.335
54452SOL     OW65252  10.247   8.057  13.718
54452SOL    HW165253  10.320   8.117  13.733
54452SOL    HW265254  10.247   8.000  13.795
54453SOL     OW65255   2.017   3.132  14.422
54453SOL    HW165256   2.054   3.094  14.502
54453SOL    HW265257   1.989   3.219  14.449
54454SOL     OW65258   5.906   9.783   7.347
54454SOL    HW165259   5.920   9.782   7.252
54454SOL    HW265260   5.860   9.701   7.365
54455SOL     OW65261   2.485   8.582  10.801
54455SOL    HW165262   2.451   8.671  10.813
54455SOL    HW265263   2.501   8.575  10.707
54456SOL     OW65264   8.761   0.120   9.318
54456SOL    HW165265   8.786   0.137   9.409
54456SOL    HW265266   8.667   0.138   9.315
54457SOL     OW65267  10.335   6.775  14.260
54457SOL    HW165268  10.287   6.828  14.324
54457SOL    HW265269  10.421   6.763  14.299
54458SOL     OW65270   4.175   3.177  13.696
54458SOL    HW165271   4.140   3.108  13.640
54458SOL    HW265272   4.119   3.253  13.678
54459SOL     OW65273  13.216   4.969   7.135
54459SOL    HW165274  13.286   4.906   7.123
54459SOL    HW265275  13.164   4.934   7.208
54460SOL     OW65276   3.427  11.831   3.024
54460SOL    HW165277   3.486  11.876   3.083
54460SOL    HW265278   3.352  11.890   3.014
54461SOL     OW65279  12.458  14.725   8.917
54461SOL    HW165280  12.388  14.691   8.862
54461SOL    HW265281  12.470  14.815   8.889
54462SOL     OW65282   1.891  13.680   0.952
54462SOL    HW165283   1.905  13.586   0.964
54462SOL    HW265284   1.808  13.698   0.995
54463SOL     OW65285   3.287   9.455   7.079
54463SOL    HW165286   3.366   9.425   7.035
54463SOL    HW265287   3.247   9.516   7.017
54464SOL     OW65288   9.337  13.912   3.986
54464SOL    HW165289   9.412  13.908   3.926
54464SOL    HW265290   9.377  13.921   4.073
54465SOL     OW65291   3.164   6.902   6.297
54465SOL    HW165292   3.139   6.813   6.322
54465SOL    HW265293   3.159   6.952   6.378
54466SOL     OW65294   1.783   6.893   3.880
54466SOL    HW165295   1.751   6.809   3.912
54466SOL    HW265296   1.878   6.881   3.870
54467SOL     OW65297   7.371   3.811   1.662
54467SOL    HW165298   7.397   3.843   1.749
54467SOL    HW265299   7.454   3.795   1.617
54468SOL     OW65300   5.155   8.697   6.886
54468SOL    HW165301   5.160   8.684   6.981
54468SOL    HW265302   5.157   8.791   6.874
54469SOL     OW65303   5.242   4.416   4.114
54469SOL    HW165304   5.212   4.494   4.068
54469SOL    HW265305   5.170   4.354   4.108
54470SOL     OW65306   0.124  14.830   6.733
54470SOL    HW165307   0.095  14.780   6.656
54470SOL    HW265308   0.129  14.765   6.803
54471SOL     OW65309   5.928  13.158   3.060
54471SOL    HW165310   5.913  13.147   3.154
54471SOL    HW265311   6.013  13.117   3.045
54472SOL     OW65312  13.368   4.619  13.945
54472SOL    HW165313  13.321   4.701  13.960
54472SOL    HW265314  13.445   4.645  13.895
54473SOL     OW65315   6.859   0.047  12.691
54473SOL    HW165316   6.858   0.143  12.695
54473SOL    HW265317   6.938   0.022  12.740
54474SOL     OW65318   1.638  12.897  12.651
54474SOL    HW165319   1.597  12.955  12.587
54474SOL    HW265320   1.732  12.905  12.633
54475SOL     OW65321   6.901  12.826  13.036
54475SOL    HW165322   6.838  12.877  12.984
54475SOL    HW265323   6.914  12.745  12.985
54476SOL     OW65324   5.524  14.432  12.523
54476SOL    HW165325   5.477  14.511  12.552
54476SOL    HW265326   5.494  14.363  12.582
54477SOL     OW65327   4.216   4.780   6.702
54477SOL    HW165328   4.277   4.790   6.775
54477SOL    HW265329   4.145   4.842   6.721
54478SOL     OW65330   1.765  10.773  13.391
54478SOL    HW165331   1.687  10.722  13.370
54478SOL    HW265332   1.783  10.823  13.311
54479SOL     OW65333   0.273  13.650   5.374
54479SOL    HW165334   0.241  13.623   5.460
54479SOL    HW265335   0.355  13.602   5.362
54480SOL     OW65336   8.021   7.638   5.216
54480SOL    HW165337   7.943   7.630   5.271
54480SOL    HW265338   7.987   7.653   5.128
54481SOL     OW65339  13.854   8.972   7.462
54481SOL    HW165340  13.883   9.014   7.382
54481SOL    HW265341  13.907   8.892   7.469
54482SOL     OW65342   2.412   0.037   7.221
54482SOL    HW165343   2.346   0.100   7.193
54482SOL    HW265344   2.495   0.085   7.216
54483SOL     OW65345   0.343  12.601   2.706
54483SOL    HW165346   0.317  12.589   2.797
54483SOL    HW265347   0.290  12.676   2.677
54484SOL     OW65348   5.537  11.957   6.949
54484SOL    HW165349   5.579  11.879   6.912
54484SOL    HW265350   5.602  12.027   6.936
54485SOL     OW65351   4.898  11.585   9.982
54485SOL    HW165352   4.879  11.492   9.993
54485SOL    HW265353   4.930  11.593   9.893
54486SOL     OW65354  13.706   3.027   5.420
54486SOL    HW165355  13.718   2.998   5.329
54486SOL    HW265356  13.666   3.114   5.412
54487SOL     OW65357   2.535   8.168  10.649
54487SOL    HW165358   2.476   8.242  10.634
54487SOL    HW265359   2.621   8.208  10.663
54488SOL     OW65360   3.516   2.851  10.518
54488SOL    HW165361   3.528   2.815  10.606
54488SOL    HW265362   3.437   2.808  10.485
54489SOL     OW65363  12.983   7.811   7.851
54489SOL    HW165364  13.058   7.791   7.908
54489SOL    HW265365  13.010   7.889   7.802
54490SOL     OW65366   7.963  13.558   2.919
54490SOL    HW165367   7.985  13.642   2.879
54490SOL    HW265368   8.018  13.554   2.998
54491SOL     OW65369   2.970   5.642   4.185
54491SOL    HW165370   2.882   5.620   4.216
54491SOL    HW265371   2.998   5.564   4.138
54492SOL     OW65372   1.254   5.699   8.519
54492SOL    HW165373   1.219   5.655   8.597
54492SOL    HW265374   1.220   5.648   8.446
54493SOL     OW65375  14.643  11.610   5.846
54493SOL    HW165376  14.555  11.578   5.866
54493SOL    HW265377  14.631  11.666   5.769
54494SOL     OW65378   2.234  11.057   4.512
54494SOL    HW165379   2.277  11.002   4.578
54494SOL    HW265380   2.285  11.137   4.510
54495SOL     OW65381   8.969   5.360   3.870
54495SOL    HW165382   8.903   5.359   3.940
54495SOL    HW265383   9.043   5.311   3.906
54496SOL     OW65384  13.366   0.979   9.947
54496SOL    HW165385  13.427   0.920   9.903
54496SOL    HW265386  13.356   0.942  10.035
54497SOL     OW65387   7.201  10.143  10.546
54497SOL    HW165388   7.128  10.086  10.523
54497SOL    HW265389   7.189  10.164  10.638
54498SOL     OW65390  10.408   5.592   7.746
54498SOL    HW165391  10.445   5.623   7.664
54498SOL    HW265392  10.447   5.647   7.814
54499SOL     OW65393   8.471   9.087   0.554
54499SOL    HW165394   8.428   9.049   0.477
54499SOL    HW265395   8.481   9.015   0.615
54500SOL     OW65396   6.798  14.289   4.666
54500SOL    HW165397   6.880  14.283   4.714
54500SOL    HW265398   6.752  14.363   4.705
54501SOL     OW65399   3.140  11.168  10.738
54501SOL    HW165400   3.095  11.103  10.684
54501SOL    HW265401   3.233  11.154  10.720
54502SOL     OW65402   8.016   5.523   3.033
54502SOL    HW165403   8.094   5.539   2.980
54502SOL    HW265404   7.944   5.524   2.970
54503SOL     OW65405  13.574  13.890  12.187
54503SOL    HW165406  13.535  13.910  12.102
54503SOL    HW265407  13.499  13.881  12.247
54504SOL     OW65408   0.048  10.139  14.829
54504SOL    HW165409   0.080  10.213   0.002
54504SOL    HW265410   0.016  10.077   0.016
54505SOL     OW65411  14.234  14.300  13.255
54505SOL    HW165412  14.207  14.258  13.337
54505SOL    HW265413  14.209  14.392  13.266
54506SOL     OW65414  14.584   3.485  14.152
54506SOL    HW165415  14.583   3.393  14.180
54506SOL    HW265416  14.603   3.534  14.232
54507SOL     OW65417  12.690  12.533  12.297
54507SOL    HW165418  12.775  12.560  12.331
54507SOL    HW265419  12.640  12.614  12.286
54508SOL     OW65420   4.920   9.401   0.777
54508SOL    HW165421   4.862   9.454   0.831
54508SOL    HW265422   4.992   9.377   0.836
54509SOL     OW65423  12.213   6.330  11.298
54509SOL    HW165424  12.206   6.414  11.344
54509SOL    HW265425  12.127   6.290  11.311
54510SOL     OW65426   5.998   7.671   3.137
54510SOL    HW165427   6.090   7.646   3.142
54510SOL    HW265428   5.997   7.766   3.149
54511SOL     OW65429  13.885  13.230   5.018
54511SOL    HW165430  13.953  13.168   4.993
54511SOL    HW265431  13.859  13.203   5.106
54512SOL     OW65432  14.083  12.065   8.964
54512SOL    HW165433  14.110  12.150   8.929
54512SOL    HW265434  13.988  12.070   8.968
54513SOL     OW65435   7.076  10.916   4.154
54513SOL    HW165436   7.056  10.838   4.205
54513SOL    HW265437   6.993  10.965   4.152
54514SOL     OW65438   5.355   1.151   0.913
54514SOL    HW165439   5.347   1.243   0.886
54514SOL    HW265440   5.355   1.102   0.830
54515SOL     OW65441  10.904  13.845   2.263
54515SOL    HW165442  10.996  13.827   2.246
54515SOL    HW265443  10.874  13.773   2.318
54516SOL     OW65444   6.814   0.737  10.045
54516SOL    HW165445   6.763   0.711  10.121
54516SOL    HW265446   6.840   0.654  10.004
54517SOL     OW65447   1.549  14.750  13.680
54517SOL    HW165448   1.614  14.811  13.644
54517SOL    HW265449   1.600  14.678  13.714
54518SOL     OW65450   7.557   2.673   8.127
54518SOL    HW165451   7.645   2.659   8.092
54518SOL    HW265452   7.511   2.591   8.108
54519SOL     OW65453  10.323   4.756  12.956
54519SOL    HW165454  10.404   4.804  12.942
54519SOL    HW265455  10.309   4.708  12.874
54520SOL     OW65456   1.491   3.030   1.830
54520SOL    HW165457   1.430   3.016   1.902
54520SOL    HW265458   1.447   3.094   1.773
54521SOL     OW65459  14.021  13.185   1.280
54521SOL    HW165460  13.945  13.180   1.338
54521SOL    HW265461  14.069  13.104   1.297
54522SOL     OW65462   8.879   5.385  10.743
54522SOL    HW165463   8.784   5.396  10.746
54522SOL    HW265464   8.892   5.298  10.706
54523SOL     OW65465   7.166  14.173   2.188
54523SOL    HW165466   7.143  14.266   2.177
54523SOL    HW265467   7.127  14.148   2.272
54524SOL     OW65468  14.129   7.436   0.329
54524SOL    HW165469  14.119   7.371   0.259
54524SOL    HW265470  14.141   7.519   0.283
54525SOL     OW65471   2.102  11.701  12.057
54525SOL    HW165472   2.057  11.644  12.120
54525SOL    HW265473   2.059  11.683  11.974
54526SOL     OW65474  13.395   2.632   7.125
54526SOL    HW165475  13.372   2.568   7.193
54526SOL    HW265476  13.396   2.716   7.170
54527SOL     OW65477   8.035   1.572   4.096
54527SOL    HW165478   7.949   1.564   4.135
54527SOL    HW265479   8.087   1.620   4.161
54528SOL     OW65480  14.002   1.135   7.043
54528SOL    HW165481  13.909   1.152   7.030
54528SOL    HW265482  14.006   1.076   7.119
54529SOL     OW65483   0.034   0.999  13.570
54529SOL    HW165484   0.053   0.946  13.493
54529SOL    HW265485   0.037   0.937  13.643
54530SOL     OW65486   0.150  10.962  14.028
54530SOL    HW165487   0.102  10.887  14.063
54530SOL    HW265488   0.089  11.002  13.966
54531SOL     OW65489  14.213  10.688   2.572
54531SOL    HW165490  14.202  10.595   2.550
54531SOL    HW265491  14.277  10.688   2.643
54532SOL     OW65492  10.811   5.822   8.977
54532SOL    HW165493  10.873   5.842   9.048
54532SOL    HW265494  10.777   5.735   8.999
54533SOL     OW65495   7.006   9.288   8.626
54533SOL    HW165496   7.101   9.279   8.635
54533SOL    HW265497   6.991   9.382   8.633
54534SOL     OW65498   2.609   1.876   4.158
54534SOL    HW165499   2.684   1.934   4.172
54534SOL    HW265500   2.537   1.917   4.207
54535SOL     OW65501  11.631  14.786  12.817
54535SOL    HW165502  11.675  14.807  12.735
54535SOL    HW265503  11.547  14.831  12.810
54536SOL     OW65504   5.621  12.681   6.089
54536SOL    HW165505   5.708  12.652   6.117
54536SOL    HW265506   5.572  12.688   6.171
54537SOL     OW65507  13.511   7.393   0.965
54537SOL    HW165508  13.577   7.399   1.035
54537SOL    HW265509  13.428   7.414   1.008
54538SOL     OW65510   0.109   5.373  10.289
54538SOL    HW165511   0.117   5.404  10.199
54538SOL    HW265512   0.021   5.335  10.294
54539SOL     OW65513   2.465   1.996   1.223
54539SOL    HW165514   2.531   2.045   1.272
54539SOL    HW265515   2.511   1.966   1.144
54540SOL     OW65516   9.379  14.075   1.232
54540SOL    HW165517   9.318  14.046   1.300
54540SOL    HW265518   9.356  14.023   1.155
54541SOL     OW65519  13.622  11.329   2.439
54541SOL    HW165520  13.536  11.304   2.406
54541SOL    HW265521  13.665  11.372   2.365
54542SOL     OW65522  11.987   5.930   2.745
54542SOL    HW165523  11.967   6.006   2.799
54542SOL    HW265524  12.020   5.966   2.663
54543SOL     OW65525   6.886  10.977  11.014
54543SOL    HW165526   6.819  11.035  11.049
54543SOL    HW265527   6.866  10.891  11.052
54544SOL     OW65528  10.441  13.812  14.666
54544SOL    HW165529  10.448  13.809  14.571
54544SOL    HW265530  10.354  13.848  14.683
54545SOL     OW65531  12.442  13.513   8.628
54545SOL    HW165532  12.384  13.589   8.642
54545SOL    HW265533  12.526  13.551   8.602
54546SOL     OW65534   2.993   8.312   7.549
54546SOL    HW165535   3.042   8.262   7.484
54546SOL    HW265536   2.906   8.273   7.549
54547SOL     OW65537   4.418   6.149   4.866
54547SOL    HW165538   4.416   6.060   4.832
54547SOL    HW265539   4.340   6.191   4.829
54548SOL     OW65540   7.702  13.736   9.408
54548SOL    HW165541   7.630  13.687   9.367
54548SOL    HW265542   7.687  13.726   9.502
54549SOL     OW65543  11.806  11.946   8.084
54549SOL    HW165544  11.898  11.920   8.084
54549SOL    HW265545  11.796  12.002   8.161
54550SOL     OW65546   1.721   3.113   4.975
54550SOL    HW165547   1.645   3.112   4.917
54550SOL    HW265548   1.770   3.035   4.952
54551SOL     OW65549  11.270   2.068  11.771
54551SOL    HW165550  11.192   2.121  11.789
54551SOL    HW265551  11.238   1.995  11.718
54552SOL     OW65552   9.393  13.133   4.637
54552SOL    HW165553   9.299  13.126   4.652
54552SOL    HW265554   9.401  13.194   4.563
54553SOL     OW65555   1.307   8.167  10.746
54553SOL    HW165556   1.314   8.247  10.798
54553SOL    HW265557   1.267   8.104  10.805
54554SOL     OW65558   0.805   5.204  12.459
54554SOL    HW165559   0.724   5.152  12.458
54554SOL    HW265560   0.874   5.142  12.482
54555SOL     OW65561  10.492   2.014  10.298
54555SOL    HW165562  10.534   1.947  10.351
54555SOL    HW265563  10.413   2.038  10.348
54556SOL     OW65564   4.809  13.393   2.969
54556SOL    HW165565   4.769  13.445   3.038
54556SOL    HW265566   4.823  13.454   2.897
54557SOL     OW65567   8.394  10.170   8.271
54557SOL    HW165568   8.322  10.204   8.218
54557SOL    HW265569   8.411  10.083   8.234
54558SOL     OW65570  13.442  12.856  13.416
54558SOL    HW165571  13.448  12.775  13.366
54558SOL    HW265572  13.533  12.880  13.434
54559SOL     OW65573   1.418   0.950  13.912
54559SOL    HW165574   1.395   1.011  13.841
54559SOL    HW265575   1.507   0.976  13.937
54560SOL     OW65576   0.710  12.190   8.063
54560SOL    HW165577   0.709  12.175   7.968
54560SOL    HW265578   0.797  12.163   8.091
54561SOL     OW65579  14.406   5.768  13.441
54561SOL    HW165580  14.339   5.829  13.472
54561SOL    HW265581  14.476   5.774  13.506
54562SOL     OW65582  12.248   8.322   5.128
54562SOL    HW165583  12.291   8.264   5.191
54562SOL    HW265584  12.318   8.348   5.068
54563SOL     OW65585  12.266  14.363   5.540
54563SOL    HW165586  12.333  14.365   5.471
54563SOL    HW265587  12.249  14.269   5.553
54564SOL     OW65588   7.748   1.224  13.896
54564SOL    HW165589   7.821   1.270  13.853
54564SOL    HW265590   7.705   1.177  13.824
54565SOL     OW65591  10.858  10.774  13.114
54565SOL    HW165592  10.941  10.763  13.162
54565SOL    HW265593  10.849  10.692  13.065
54566SOL     OW65594  12.606   9.106   9.409
54566SOL    HW165595  12.518   9.084   9.378
54566SOL    HW265596  12.617   9.198   9.384
54567SOL     OW65597   7.623   2.492   0.255
54567SOL    HW165598   7.656   2.417   0.205
54567SOL    HW265599   7.642   2.568   0.199
54568SOL     OW65600   6.778  10.277   4.133
54568SOL    HW165601   6.783  10.318   4.219
54568SOL    HW265602   6.705  10.215   4.140
54569SOL     OW65603  10.219   3.773   2.859
54569SOL    HW165604  10.299   3.811   2.895
54569SOL    HW265605  10.149   3.832   2.887
54570SOL     OW65606   6.134   2.237  13.347
54570SOL    HW165607   6.043   2.208  13.345
54570SOL    HW265608   6.165   2.225  13.257
54571SOL     OW65609   0.787   6.623  10.506
54571SOL    HW165610   0.870   6.582  10.482
54571SOL    HW265611   0.764   6.678  10.431
54572SOL     OW65612  11.545   5.492   6.593
54572SOL    HW165613  11.533   5.556   6.663
54572SOL    HW265614  11.638   5.500   6.569
54573SOL     OW65615  10.132  11.502   4.746
54573SOL    HW165616  10.222  11.526   4.767
54573SOL    HW265617  10.141  11.442   4.671
54574SOL     OW65618   8.032   5.907   1.216
54574SOL    HW165619   8.004   5.816   1.210
54574SOL    HW265620   7.963   5.950   1.265
54575SOL     OW65621   4.986   8.881   0.305
54575SOL    HW165622   4.907   8.902   0.356
54575SOL    HW265623   5.058   8.897   0.366
54576SOL     OW65624  12.609   4.316   9.926
54576SOL    HW165625  12.603   4.411   9.920
54576SOL    HW265626  12.695   4.295   9.889
54577SOL     OW65627   9.102   5.929  14.405
54577SOL    HW165628   9.054   5.880  14.338
54577SOL    HW265629   9.033   5.965  14.461
54578SOL     OW65630  13.353   0.735  10.541
54578SOL    HW165631  13.392   0.670  10.482
54578SOL    HW265632  13.317   0.683  10.613
54579SOL     OW65633   5.413  10.444   8.643
54579SOL    HW165634   5.397  10.386   8.717
54579SOL    HW265635   5.504  10.471   8.652
54580SOL     OW65636  13.844  13.345   2.988
54580SOL    HW165637  13.829  13.435   2.959
54580SOL    HW265638  13.936  13.328   2.966
54581SOL     OW65639   7.392  11.339  13.650
54581SOL    HW165640   7.365  11.390  13.573
54581SOL    HW265641   7.367  11.394  13.725
54582SOL     OW65642   0.380  10.515  12.165
54582SOL    HW165643   0.412  10.503  12.254
54582SOL    HW265644   0.299  10.465  12.161
54583SOL     OW65645   2.101   1.661   5.325
54583SOL    HW165646   2.120   1.671   5.232
54583SOL    HW265647   2.123   1.570   5.345
54584SOL     OW65648  12.150   5.098  11.010
54584SOL    HW165649  12.124   5.006  11.022
54584SOL    HW265650  12.216   5.095  10.941
54585SOL     OW65651   4.259  14.468  13.443
54585SOL    HW165652   4.310  14.492  13.521
54585SOL    HW265653   4.255  14.372  13.447
54586SOL     OW65654   4.378   0.794   9.978
54586SOL    HW165655   4.434   0.732  10.024
54586SOL    HW265656   4.323   0.741   9.921
54587SOL     OW65657   2.009  10.566   1.137
54587SOL    HW165658   2.095  10.551   1.177
54587SOL    HW265659   1.952  10.500   1.177
54588SOL     OW65660   4.033  10.856   6.442
54588SOL    HW165661   4.073  10.880   6.526
54588SOL    HW265662   4.011  10.764   6.451
54589SOL     OW65663   8.674  12.680   7.707
54589SOL    HW165664   8.739  12.719   7.764
54589SOL    HW265665   8.600  12.741   7.709
54590SOL     OW65666   0.897   5.967   2.131
54590SOL    HW165667   0.935   6.007   2.209
54590SOL    HW265668   0.872   6.041   2.076
54591SOL     OW65669  14.264  13.124   1.841
54591SOL    HW165670  14.209  13.059   1.797
54591SOL    HW265671  14.208  13.201   1.849
54592SOL     OW65672  14.660   7.561   9.243
54592SOL    HW165673  14.642   7.563   9.337
54592SOL    HW265674  14.707   7.479   9.229
54593SOL     OW65675   4.422   5.200   9.357
54593SOL    HW165676   4.418   5.108   9.382
54593SOL    HW265677   4.413   5.199   9.261
54594SOL     OW65678  10.929  11.048   8.253
54594SOL    HW165679  11.015  11.012   8.231
54594SOL    HW265680  10.872  10.972   8.260
54595SOL     OW65681  13.741   2.368   2.631
54595SOL    HW165682  13.726   2.461   2.614
54595SOL    HW265683  13.659   2.325   2.606
54596SOL     OW65684  12.450   3.390   1.384
54596SOL    HW165685  12.471   3.303   1.351
54596SOL    HW265686  12.508   3.402   1.459
54597SOL     OW65687  13.700  13.307   2.217
54597SOL    HW165688  13.712  13.358   2.136
54597SOL    HW265689  13.788  13.277   2.240
54598SOL     OW65690  10.871   1.377  14.838
54598SOL    HW165691  10.928   1.302  14.850
54598SOL    HW265692  10.860   1.413   0.049
54599SOL     OW65693   0.885   6.795   2.116
54599SOL    HW165694   0.963   6.742   2.131
54599SOL    HW265695   0.812   6.741   2.148
54600SOL     OW65696   4.799  13.955   3.602
54600SOL    HW165697   4.863  13.898   3.646
54600SOL    HW265698   4.849  13.996   3.531
54601SOL     OW65699   3.582   1.574   6.086
54601SOL    HW165700   3.541   1.541   6.006
54601SOL    HW265701   3.621   1.658   6.060
54602SOL     OW65702   0.366  14.689   3.330
54602SOL    HW165703   0.431  14.671   3.262
54602SOL    HW265704   0.348  14.604   3.369
54603SOL     OW65705   1.234  12.478  12.779
54603SOL    HW165706   1.323  12.452  12.802
54603SOL    HW265707   1.181  12.457  12.856
54604SOL     OW65708  12.636   5.364  13.933
54604SOL    HW165709  12.621   5.292  13.994
54604SOL    HW265710  12.599   5.334  13.850
54605SOL     OW65711   0.119   6.533   6.178
54605SOL    HW165712   0.087   6.514   6.090
54605SOL    HW265713   0.119   6.448   6.222
54606SOL     OW65714  12.888  13.388  13.614
54606SOL    HW165715  12.867  13.370  13.522
54606SOL    HW265716  12.803  13.407  13.654
54607SOL     OW65717   3.725   7.300   1.405
54607SOL    HW165718   3.798   7.356   1.431
54607SOL    HW265719   3.702   7.330   1.317
54608SOL     OW65720   9.994   6.544  13.244
54608SOL    HW165721   9.953   6.541  13.158
54608SOL    HW265722  10.083   6.575  13.227
54609SOL     OW65723  13.847   3.784   7.324
54609SOL    HW165724  13.904   3.726   7.373
54609SOL    HW265725  13.904   3.826   7.259
54610SOL     OW65726   7.275  11.421  12.480
54610SOL    HW165727   7.301  11.479  12.408
54610SOL    HW265728   7.186  11.447  12.501
54611SOL     OW65729  14.871   6.113  10.362
54611SOL    HW165730   0.057   6.049  10.333
54611SOL    HW265731   0.045   6.182  10.403
54612SOL     OW65732   8.593  11.469   5.010
54612SOL    HW165733   8.656  11.490   4.941
54612SOL    HW265734   8.589  11.373   5.011
54613SOL     OW65735   8.199  12.891   4.937
54613SOL    HW165736   8.264  12.885   4.867
54613SOL    HW265737   8.205  12.807   4.982
54614SOL     OW65738   9.224   1.593   8.552
54614SOL    HW165739   9.311   1.558   8.573
54614SOL    HW265740   9.203   1.651   8.625
54615SOL     OW65741  12.031  10.391  11.575
54615SOL    HW165742  11.971  10.332  11.620
54615SOL    HW265743  11.995  10.398  11.486
54616SOL     OW65744   9.307  11.109  12.429
54616SOL    HW165745   9.251  11.036  12.455
54616SOL    HW265746   9.253  11.187  12.447
54617SOL     OW65747   6.429  13.482   9.430
54617SOL    HW165748   6.430  13.554   9.368
54617SOL    HW265749   6.520  13.454   9.437
54618SOL     OW65750  14.428   2.508   9.740
54618SOL    HW165751  14.513   2.481   9.776
54618SOL    HW265752  14.449   2.580   9.680
54619SOL     OW65753   7.563   4.547   5.391
54619SOL    HW165754   7.490   4.578   5.337
54619SOL    HW265755   7.569   4.453   5.372
54620SOL     OW65756   3.256   9.261   7.454
54620SOL    HW165757   3.303   9.337   7.421
54620SOL    HW265758   3.315   9.221   7.518
54621SOL     OW65759   7.491  13.020   7.800
54621SOL    HW165760   7.487  13.115   7.807
54621SOL    HW265761   7.531  12.991   7.882
54622SOL     OW65762   4.887   5.492   3.013
54622SOL    HW165763   4.952   5.471   3.081
54622SOL    HW265764   4.891   5.418   2.952
54623SOL     OW65765   1.120   5.354   6.513
54623SOL    HW165766   1.162   5.382   6.594
54623SOL    HW265767   1.064   5.281   6.539
54624SOL     OW65768  12.578   0.234   8.372
54624SOL    HW165769  12.514   0.225   8.301
54624SOL    HW265770  12.530   0.275   8.443
54625SOL     OW65771  14.010  12.554   8.113
54625SOL    HW165772  13.969  12.505   8.184
54625SOL    HW265773  13.947  12.623   8.092
54626SOL     OW65774   9.273   3.668  14.566
54626SOL    HW165775   9.313   3.714  14.640
54626SOL    HW265776   9.344   3.613  14.532
54627SOL     OW65777   3.882   6.913  10.262
54627SOL    HW165778   3.886   6.940  10.170
54627SOL    HW265779   3.810   6.963  10.299
54628SOL     OW65780  13.090   9.448   3.379
54628SOL    HW165781  13.135   9.495   3.449
54628SOL    HW265782  13.021   9.399   3.424
54629SOL     OW65783   6.087   4.426  14.036
54629SOL    HW165784   6.008   4.459  13.993
54629SOL    HW265785   6.120   4.359  13.976
54630SOL     OW65786  13.307  10.543  12.191
54630SOL    HW165787  13.240  10.610  12.203
54630SOL    HW265788  13.314  10.532  12.097
54631SOL     OW65789  10.372  10.063   6.189
54631SOL    HW165790  10.308  10.099   6.128
54631SOL    HW265791  10.394  10.137   6.247
54632SOL     OW65792  12.499   0.119   3.394
54632SOL    HW165793  12.551   0.195   3.419
54632SOL    HW265794  12.531   0.096   3.307
54633SOL     OW65795   5.896   8.545   2.063
54633SOL    HW165796   5.938   8.615   2.014
54633SOL    HW265797   5.913   8.466   2.011
54634SOL     OW65798  11.790   2.750   3.136
54634SOL    HW165799  11.794   2.844   3.116
54634SOL    HW265800  11.764   2.709   3.053
54635SOL     OW65801   0.391   9.609   6.096
54635SOL    HW165802   0.313   9.582   6.145
54635SOL    HW265803   0.401   9.702   6.115
54636SOL     OW65804  12.365   8.644   5.500
54636SOL    HW165805  12.334   8.593   5.425
54636SOL    HW265806  12.398   8.725   5.460
54637SOL     OW65807   1.055  12.292   5.441
54637SOL    HW165808   0.985  12.287   5.376
54637SOL    HW265809   1.017  12.253   5.520
54638SOL     OW65810   0.865   5.569   3.159
54638SOL    HW165811   0.877   5.589   3.252
54638SOL    HW265812   0.789   5.620   3.132
54639SOL     OW65813   5.995   2.405   9.403
54639SOL    HW165814   5.956   2.391   9.316
54639SOL    HW265815   5.958   2.335   9.457
54640SOL     OW65816   9.352  10.835   6.378
54640SOL    HW165817   9.269  10.836   6.331
54640SOL    HW265818   9.330  10.868   6.465
54641SOL     OW65819   3.554  13.827   4.908
54641SOL    HW165820   3.550  13.845   4.814
54641SOL    HW265821   3.646  13.840   4.930
54642SOL     OW65822   1.178   7.980  14.622
54642SOL    HW165823   1.194   7.978  14.527
54642SOL    HW265824   1.176   7.888  14.647
54643SOL     OW65825   6.403  13.932  13.155
54643SOL    HW165826   6.311  13.955  13.169
54643SOL    HW265827   6.400  13.843  13.120
54644SOL     OW65828   8.083   0.010   1.773
54644SOL    HW165829   8.118  14.818   1.718
54644SOL    HW265830   8.068  14.846   1.857
54645SOL     OW65831  11.952   0.144   6.065
54645SOL    HW165832  11.997   0.140   6.149
54645SOL    HW265833  11.873   0.092   6.076
54646SOL     OW65834   4.131  12.361   2.960
54646SOL    HW165835   4.096  12.312   2.886
54646SOL    HW265836   4.055  12.380   3.014
54647SOL     OW65837   5.766   2.255   7.254
54647SOL    HW165838   5.852   2.258   7.297
54647SOL    HW265839   5.728   2.341   7.268
54648SOL     OW65840  13.459   4.318  10.834
54648SOL    HW165841  13.435   4.235  10.876
54648SOL    HW265842  13.376   4.353  10.801
54649SOL     OW65843   3.067   0.934   2.291
54649SOL    HW165844   2.979   0.897   2.298
54649SOL    HW265845   3.108   0.887   2.218
54650SOL     OW65846   1.889   6.227   2.652
54650SOL    HW165847   1.984   6.214   2.650
54650SOL    HW265848   1.852   6.140   2.640
54651SOL     OW65849   3.458   2.128  13.316
54651SOL    HW165850   3.480   2.056  13.376
54651SOL    HW265851   3.487   2.096  13.230
54652SOL     OW65852  10.847   2.499   4.748
54652SOL    HW165853  10.838   2.527   4.657
54652SOL    HW265854  10.760   2.516   4.786
54653SOL     OW65855  10.147  12.328   3.433
54653SOL    HW165856  10.122  12.420   3.433
54653SOL    HW265857  10.234  12.327   3.393
54654SOL     OW65858   9.302   7.582  12.871
54654SOL    HW165859   9.245   7.514  12.835
54654SOL    HW265860   9.379   7.582  12.814
54655SOL     OW65861   5.991   6.519  13.173
54655SOL    HW165862   5.941   6.519  13.255
54655SOL    HW265863   5.988   6.610  13.144
54656SOL     OW65864   7.956   2.715  13.508
54656SOL    HW165865   8.019   2.682  13.571
54656SOL    HW265866   8.005   2.721  13.426
54657SOL     OW65867   9.938   8.185   2.742
54657SOL    HW165868   9.866   8.223   2.690
54657SOL    HW265869   9.955   8.250   2.810
54658SOL     OW65870   4.741   9.044  11.802
54658SOL    HW165871   4.691   8.966  11.825
54658SOL    HW265872   4.824   9.010  11.768
54659SOL     OW65873   9.799   0.797   2.557
54659SOL    HW165874   9.732   0.738   2.591
54659SOL    HW265875   9.841   0.833   2.635
54660SOL     OW65876   4.615  13.004   3.273
54660SOL    HW165877   4.661  13.016   3.357
54660SOL    HW265878   4.649  13.073   3.217
54661SOL     OW65879  12.699  13.183  11.511
54661SOL    HW165880  12.645  13.104  11.506
54661SOL    HW265881  12.679  13.220  11.597
54662SOL     OW65882   9.369  14.375  11.317
54662SOL    HW165883   9.315  14.309  11.359
54662SOL    HW265884   9.352  14.365  11.223
54663SOL     OW65885   1.455   1.451   0.965
54663SOL    HW165886   1.549   1.460   0.980
54663SOL    HW265887   1.444   1.361   0.934
54664SOL     OW65888   7.887   9.110  10.871
54664SOL    HW165889   7.795   9.081  10.871
54664SOL    HW265890   7.886   9.193  10.919
54665SOL     OW65891   7.107  12.355   2.621
54665SOL    HW165892   7.149  12.324   2.701
54665SOL    HW265893   7.073  12.276   2.580
54666SOL     OW65894  12.243   4.419  11.324
54666SOL    HW165895  12.221   4.391  11.235
54666SOL    HW265896  12.220   4.344  11.379
54667SOL     OW65897   3.816   0.218   7.328
54667SOL    HW165898   3.769   0.294   7.292
54667SOL    HW265899   3.903   0.224   7.289
54668SOL     OW65900  13.528   0.812  13.720
54668SOL    HW165901  13.622   0.831  13.717
54668SOL    HW265902  13.518   0.731  13.670
54669SOL     OW65903   2.941   2.417   9.427
54669SOL    HW165904   2.850   2.435   9.453
54669SOL    HW265905   2.952   2.464   9.345
54670SOL     OW65906  12.437  11.349  12.582
54670SOL    HW165907  12.518  11.341  12.531
54670SOL    HW265908  12.373  11.384  12.519
54671SOL     OW65909  10.626  12.291  12.270
54671SOL    HW165910  10.626  12.236  12.349
54671SOL    HW265911  10.632  12.380  12.303
54672SOL     OW65912   9.377   6.913   6.313
54672SOL    HW165913   9.289   6.952   6.317
54672SOL    HW265914   9.369   6.829   6.357
54673SOL     OW65915   4.566  11.411  12.253
54673SOL    HW165916   4.594  11.366  12.173
54673SOL    HW265917   4.647  11.434  12.298
54674SOL     OW65918  13.527   7.383   1.508
54674SOL    HW165919  13.462   7.326   1.550
54674SOL    HW265920  13.525   7.464   1.559
54675SOL     OW65921   3.385   8.058   8.619
54675SOL    HW165922   3.476   8.032   8.628
54675SOL    HW265923   3.382   8.148   8.650
54676SOL     OW65924   3.273  12.164  10.059
54676SOL    HW165925   3.361  12.140  10.090
54676SOL    HW265926   3.260  12.111   9.980
54677SOL     OW65927   7.988  11.523  12.114
54677SOL    HW165928   7.913  11.467  12.133
54677SOL    HW265929   7.989  11.587  12.185
54678SOL     OW65930   3.114   6.113   7.872
54678SOL    HW165931   3.196   6.162   7.869
54678SOL    HW265932   3.138   6.030   7.912
54679SOL     OW65933   0.932   7.476   2.739
54679SOL    HW165934   0.885   7.398   2.709
54679SOL    HW265935   0.945   7.461   2.833
54680SOL     OW65936   3.666   0.163  11.320
54680SOL    HW165937   3.741   0.123  11.364
54680SOL    HW265938   3.704   0.222  11.256
54681SOL     OW65939   2.979   3.501  12.775
54681SOL    HW165940   3.070   3.522  12.798
54681SOL    HW265941   2.981   3.408  12.753
54682SOL     OW65942   6.282   1.783   8.638
54682SOL    HW165943   6.367   1.740   8.634
54682SOL    HW265944   6.247   1.759   8.724
54683SOL     OW65945   1.884   5.035  14.238
54683SOL    HW165946   1.966   5.077  14.265
54683SOL    HW265947   1.817   5.073  14.295
54684SOL     OW65948  14.584   5.539   1.470
54684SOL    HW165949  14.499   5.508   1.438
54684SOL    HW265950  14.613   5.602   1.405
54685SOL     OW65951  12.854   8.542  12.479
54685SOL    HW165952  12.934   8.582  12.445
54685SOL    HW265953  12.783   8.589  12.435
54686SOL     OW65954  13.790  10.587   4.235
54686SOL    HW165955  13.879  10.570   4.205
54686SOL    HW265956  13.802  10.630   4.320
54687SOL     OW65957   6.977   0.823  12.106
54687SOL    HW165958   7.056   0.787  12.147
54687SOL    HW265959   6.905   0.781  12.153
54688SOL     OW65960   7.842   8.768   3.081
54688SOL    HW165961   7.834   8.827   3.006
54688SOL    HW265962   7.816   8.822   3.156
54689SOL     OW65963  11.996  13.734   9.452
54689SOL    HW165964  12.048  13.811   9.429
54689SOL    HW265965  12.053  13.659   9.433
54690SOL     OW65966   1.820  14.242   3.189
54690SOL    HW165967   1.907  14.215   3.160
54690SOL    HW265968   1.769  14.251   3.108
54691SOL     OW65969  12.461  10.391   6.618
54691SOL    HW165970  12.553  10.369   6.605
54691SOL    HW265971  12.462  10.482   6.648
54692SOL     OW65972   0.048   3.577   0.872
54692SOL    HW165973   0.127   3.568   0.819
54692SOL    HW265974   0.077   3.618   0.953
54693SOL     OW65975   2.064   9.726   2.349
54693SOL    HW165976   2.062   9.766   2.436
54693SOL    HW265977   2.082   9.798   2.289
54694SOL     OW65978  14.294  14.271   8.633
54694SOL    HW165979  14.246  14.347   8.600
54694SOL    HW265980  14.306  14.288   8.726
54695SOL     OW65981   2.723   8.272   5.827
54695SOL    HW165982   2.657   8.289   5.760
54695SOL    HW265983   2.674   8.242   5.903
54696SOL     OW65984  14.845   6.891   2.586
54696SOL    HW165985  14.777   6.926   2.530
54696SOL    HW265986  14.813   6.905   2.675
54697SOL     OW65987  10.920   5.009   6.156
54697SOL    HW165988  10.919   4.970   6.069
54697SOL    HW265989  10.931   5.103   6.139
54698SOL     OW65990  11.226  12.339   4.451
54698SOL    HW165991  11.284  12.415   4.448
54698SOL    HW265992  11.237  12.297   4.366
54699SOL     OW65993  10.770   0.455   2.397
54699SOL    HW165994  10.682   0.432   2.427
54699SOL    HW265995  10.793   0.384   2.337
54700SOL     OW65996   3.396  13.513  14.657
54700SOL    HW165997   3.366  13.591  14.610
54700SOL    HW265998   3.469  13.544  14.710
54701SOL     OW65999   5.257  13.060   2.694
54701SOL    HW166000   5.265  13.061   2.599
54701SOL    HW266001   5.164  13.075   2.710
54702SOL     OW66002   9.438   8.082   9.678
54702SOL    HW166003   9.398   8.098   9.763
54702SOL    HW266004   9.366   8.084   9.616
54703SOL     OW66005   6.798   4.277   2.023
54703SOL    HW166006   6.706   4.297   2.038
54703SOL    HW266007   6.808   4.279   1.928
54704SOL     OW66008   8.253  12.776   0.749
54704SOL    HW166009   8.326  12.785   0.810
54704SOL    HW266010   8.292  12.787   0.662
54705SOL     OW66011   4.181   3.320   1.256
54705SOL    HW166012   4.254   3.277   1.212
54705SOL    HW266013   4.105   3.300   1.201
54706SOL     OW66014  11.377   1.216   2.202
54706SOL    HW166015  11.324   1.168   2.266
54706SOL    HW266016  11.431   1.149   2.161
54707SOL     OW66017  14.223   2.303   3.502
54707SOL    HW166018  14.269   2.346   3.574
54707SOL    HW266019  14.256   2.213   3.503
54708SOL     OW66020   3.422  14.068   5.017
54708SOL    HW166021   3.480  13.996   4.995
54708SOL    HW266022   3.334  14.032   5.007
54709SOL     OW66023   1.887   1.573  14.077
54709SOL    HW166024   1.927   1.659  14.066
54709SOL    HW266025   1.823   1.566  14.007
54710SOL     OW66026   1.943   7.637   4.582
54710SOL    HW166027   2.006   7.632   4.511
54710SOL    HW266028   1.955   7.554   4.629
54711SOL     OW66029   7.661   3.248   9.454
54711SOL    HW166030   7.586   3.190   9.444
54711SOL    HW266031   7.733   3.189   9.477
54712SOL     OW66032   8.650  11.271  14.702
54712SOL    HW166033   8.743  11.281  14.681
54712SOL    HW266034   8.649  11.249  14.795
54713SOL     OW66035   3.687  13.672   9.889
54713SOL    HW166036   3.601  13.657   9.849
54713SOL    HW266037   3.670  13.738   9.956
54714SOL     OW66038   2.385   6.101   2.257
54714SOL    HW166039   2.434   6.180   2.236
54714SOL    HW266040   2.293   6.127   2.251
54715SOL     OW66041  10.132   3.720   4.780
54715SOL    HW166042  10.189   3.744   4.707
54715SOL    HW266043  10.063   3.667   4.740
54716SOL     OW66044   2.752   9.748   2.981
54716SOL    HW166045   2.830   9.719   3.028
54716SOL    HW266046   2.681   9.740   3.044
54717SOL     OW66047  14.192   2.496  12.360
54717SOL    HW166048  14.120   2.540  12.315
54717SOL    HW266049  14.172   2.506  12.453
54718SOL     OW66050   3.305   6.108   3.076
54718SOL    HW166051   3.345   6.047   3.139
54718SOL    HW266052   3.365   6.108   3.001
54719SOL     OW66053   5.498  13.918  10.586
54719SOL    HW166054   5.517  13.859  10.513
54719SOL    HW266055   5.530  13.872  10.664
54720SOL     OW66056   2.435  14.404   4.881
54720SOL    HW166057   2.487  14.482   4.863
54720SOL    HW266058   2.482  14.333   4.836
54721SOL     OW66059   9.652   6.858   7.624
54721SOL    HW166060   9.664   6.953   7.625
54721SOL    HW266061   9.739   6.823   7.607
54722SOL     OW66062  11.741  13.476   4.914
54722SOL    HW166063  11.769  13.516   4.832
54722SOL    HW266064  11.819  13.430   4.946
54723SOL     OW66065   8.026   3.440  13.387
54723SOL    HW166066   8.078   3.438  13.306
54723SOL    HW266067   8.080   3.489  13.449
54724SOL     OW66068   3.980  12.852   7.349
54724SOL    HW166069   3.982  12.912   7.274
54724SOL    HW266070   4.059  12.873   7.398
54725SOL     OW66071   2.072   9.082   0.754
54725SOL    HW166072   1.981   9.099   0.776
54725SOL    HW266073   2.071   9.001   0.703
54726SOL     OW66074   0.011   6.408   4.105
54726SOL    HW166075   0.089   6.460   4.124
54726SOL    HW266076  14.860   6.376   4.191
54727SOL     OW66077   4.255   9.344   8.360
54727SOL    HW166078   4.256   9.261   8.406
54727SOL    HW266079   4.343   9.352   8.322
54728SOL     OW66080   7.763  11.748   7.422
54728SOL    HW166081   7.693  11.806   7.390
54728SOL    HW266082   7.837  11.765   7.363
54729SOL     OW66083   8.334  10.983   5.859
54729SOL    HW166084   8.317  10.891   5.876
54729SOL    HW266085   8.427  10.987   5.837
54730SOL     OW66086  10.757   4.600   5.724
54730SOL    HW166087  10.813   4.662   5.677
54730SOL    HW266088  10.818   4.534   5.758
54731SOL     OW66089  11.151   2.919   6.604
54731SOL    HW166090  11.224   2.924   6.543
54731SOL    HW266091  11.077   2.890   6.550
54732SOL     OW66092  10.557   5.423   4.801
54732SOL    HW166093  10.570   5.509   4.842
54732SOL    HW266094  10.476   5.390   4.840
54733SOL     OW66095   5.913  13.839   4.338
54733SOL    HW166096   5.988  13.819   4.281
54733SOL    HW266097   5.902  13.934   4.330
54734SOL     OW66098  10.469   5.930   9.344
54734SOL    HW166099  10.561   5.937   9.370
54734SOL    HW266100  10.427   5.890   9.420
54735SOL     OW66101  12.401  12.845   8.457
54735SOL    HW166102  12.495  12.835   8.467
54735SOL    HW266103  12.377  12.779   8.392
54736SOL     OW66104  12.265  12.151   6.137
54736SOL    HW166105  12.265  12.141   6.232
54736SOL    HW266106  12.173  12.165   6.114
54737SOL     OW66107   5.555   1.825  10.712
54737SOL    HW166108   5.476   1.792  10.668
54737SOL    HW266109   5.577   1.758  10.776
54738SOL     OW66110   0.765   1.882  14.816
54738SOL    HW166111   0.708   1.844  14.749
54738SOL    HW266112   0.755   1.977  14.805
54739SOL     OW66113  11.243   4.102   0.748
54739SOL    HW166114  11.323   4.058   0.720
54739SOL    HW266115  11.271   4.162   0.816
54740SOL     OW66116  14.682   2.896   9.701
54740SOL    HW166117  14.721   2.842   9.769
54740SOL    HW266118  14.755   2.946   9.664
54741SOL     OW66119  10.108  10.589   0.282
54741SOL    HW166120  10.085  10.565   0.193
54741SOL    HW266121  10.073  10.519   0.337
54742SOL     OW66122   2.185  13.299   4.832
54742SOL    HW166123   2.271  13.336   4.812
54742SOL    HW266124   2.197  13.253   4.915
54743SOL     OW66125   7.691   1.668   7.924
54743SOL    HW166126   7.600   1.638   7.931
54743SOL    HW266127   7.741   1.601   7.970
54744SOL     OW66128   1.785  12.821   5.391
54744SOL    HW166129   1.697  12.839   5.425
54744SOL    HW266130   1.820  12.753   5.449
54745SOL     OW66131   2.861   8.061   3.889
54745SOL    HW166132   2.793   8.080   3.825
54745SOL    HW266133   2.943   8.084   3.846
54746SOL     OW66134  13.551   3.157   7.532
54746SOL    HW166135  13.596   3.169   7.448
54746SOL    HW266136  13.621   3.138   7.594
54747SOL     OW66137   6.077  10.964   2.852
54747SOL    HW166138   6.029  10.882   2.849
54747SOL    HW266139   6.162  10.941   2.890
54748SOL     OW66140   2.960   4.255   0.492
54748SOL    HW166141   3.046   4.277   0.456
54748SOL    HW266142   2.946   4.163   0.468
54749SOL     OW66143  13.044  10.377   2.144
54749SOL    HW166144  13.017  10.322   2.070
54749SOL    HW266145  12.976  10.362   2.209
54750SOL     OW66146  11.587   0.610   4.960
54750SOL    HW166147  11.681   0.605   4.942
54750SOL    HW266148  11.561   0.520   4.977
54751SOL     OW66149   5.112   7.520   1.256
54751SOL    HW166150   5.190   7.515   1.199
54751SOL    HW266151   5.136   7.470   1.334
54752SOL     OW66152   2.659   8.692   4.561
54752SOL    HW166153   2.697   8.612   4.525
54752SOL    HW266154   2.684   8.761   4.499
54753SOL     OW66155  13.129   8.321   6.563
54753SOL    HW166156  13.204   8.307   6.621
54753SOL    HW266157  13.113   8.416   6.568
54754SOL     OW66158  11.179   7.533   9.175
54754SOL    HW166159  11.084   7.537   9.178
54754SOL    HW266160  11.206   7.615   9.134
54755SOL     OW66161   5.967  11.572   5.655
54755SOL    HW166162   5.874  11.577   5.676
54755SOL    HW266163   5.977  11.622   5.575
54756SOL     OW66164  10.844   8.803   7.128
54756SOL    HW166165  10.856   8.805   7.223
54756SOL    HW266166  10.754   8.832   7.115
54757SOL     OW66167   5.552  13.342  14.834
54757SOL    HW166168   5.541  13.319   0.049
54757SOL    HW266169   5.557  13.437  14.833
54758SOL     OW66170  10.575   7.818  10.691
54758SOL    HW166171  10.620   7.898  10.717
54758SOL    HW266172  10.505   7.808  10.755
54759SOL     OW66173   8.636   4.309   3.854
54759SOL    HW166174   8.686   4.383   3.821
54759SOL    HW266175   8.601   4.266   3.776
54760SOL     OW66176  10.571   9.007   8.304
54760SOL    HW166177  10.614   9.081   8.263
54760SOL    HW266178  10.485   9.002   8.261
54761SOL     OW66179   6.572  11.026   7.547
54761SOL    HW166180   6.549  10.966   7.477
54761SOL    HW266181   6.579  10.971   7.625
54762SOL     OW66182   7.125   0.597   3.990
54762SOL    HW166183   7.092   0.532   3.928
54762SOL    HW266184   7.140   0.675   3.937
54763SOL     OW66185  14.297   8.898   8.001
54763SOL    HW166186  14.213   8.865   7.968
54763SOL    HW266187  14.330   8.827   8.056
54764SOL     OW66188  12.926   9.718  11.057
54764SOL    HW166189  12.854   9.721  11.120
54764SOL    HW266190  12.999   9.761  11.102
54765SOL     OW66191   0.893  13.004   9.163
54765SOL    HW166192   0.934  12.933   9.213
54765SOL    HW266193   0.812  12.965   9.129
54766SOL     OW66194   5.271   5.375   9.681
54766SOL    HW166195   5.238   5.465   9.684
54766SOL    HW266196   5.261   5.343   9.771
54767SOL     OW66197   5.672  14.433   0.614
54767SOL    HW166198   5.677  14.346   0.576
54767SOL    HW266199   5.758  14.472   0.599
54768SOL     OW66200   2.607   3.152   6.270
54768SOL    HW166201   2.529   3.142   6.216
54768SOL    HW266202   2.623   3.246   6.272
54769SOL     OW66203   2.794  12.022   0.906
54769SOL    HW166204   2.832  12.094   0.855
54769SOL    HW266205   2.840  12.025   0.989
54770SOL     OW66206   6.099   5.830   3.697
54770SOL    HW166207   6.068   5.897   3.759
54770SOL    HW266208   6.104   5.750   3.749
54771SOL     OW66209   1.705   8.377  11.328
54771SOL    HW166210   1.719   8.401  11.237
54771SOL    HW266211   1.703   8.281  11.328
54772SOL     OW66212  13.416   6.292   9.384
54772SOL    HW166213  13.443   6.263   9.296
54772SOL    HW266214  13.337   6.344   9.369
54773SOL     OW66215   9.472  10.742   9.695
54773SOL    HW166216   9.540  10.756   9.761
54773SOL    HW266217   9.458  10.828   9.657
54774SOL     OW66218   6.756   2.953  14.869
54774SOL    HW166219   6.837   2.989  14.831
54774SOL    HW266220   6.738   3.009   0.067
54775SOL     OW66221   9.630   6.276   2.288
54775SOL    HW166222   9.622   6.220   2.366
54775SOL    HW266223   9.674   6.355   2.320
54776SOL     OW66224   3.109   8.442  11.515
54776SOL    HW166225   3.173   8.490  11.461
54776SOL    HW266226   3.142   8.352  11.516
54777SOL     OW66227   7.282   5.865   4.442
54777SOL    HW166228   7.261   5.772   4.450
54777SOL    HW266229   7.202   5.910   4.469
54778SOL     OW66230  12.875   8.353   5.676
54778SOL    HW166231  12.852   8.372   5.767
54778SOL    HW266232  12.874   8.439   5.634
54779SOL     OW66233  12.572  14.402   7.689
54779SOL    HW166234  12.589  14.354   7.771
54779SOL    HW266235  12.547  14.334   7.627
54780SOL     OW66236   0.060   9.777   6.585
54780SOL    HW166237   0.136   9.778   6.527
54780SOL    HW266238  14.865   9.806   6.531
54781SOL     OW66239  13.704  14.271   0.351
54781SOL    HW166240  13.713  14.357   0.310
54781SOL    HW266241  13.747  14.211   0.290
54782SOL     OW66242  13.956   5.814   0.738
54782SOL    HW166243  13.969   5.840   0.647
54782SOL    HW266244  13.891   5.744   0.734
54783SOL     OW66245   0.700   6.181  11.795
54783SOL    HW166246   0.686   6.107  11.735
54783SOL    HW266247   0.793   6.179  11.815
54784SOL     OW66248   2.351  14.659   9.508
54784SOL    HW166249   2.267  14.615   9.519
54784SOL    HW266250   2.347  14.734   9.567
54785SOL     OW66251   0.953   0.699   6.378
54785SOL    HW166252   1.010   0.737   6.311
54785SOL    HW266253   0.935   0.772   6.438
54786SOL     OW66254   8.793  11.561   7.444
54786SOL    HW166255   8.886  11.583   7.447
54786SOL    HW266256   8.784  11.487   7.504
54787SOL     OW66257   3.371  13.739  12.102
54787SOL    HW166258   3.460  13.753  12.069
54787SOL    HW266259   3.362  13.644  12.106
54788SOL     OW66260   5.097   3.239   4.999
54788SOL    HW166261   5.032   3.309   4.997
54788SOL    HW266262   5.097   3.209   5.090
54789SOL     OW66263   1.087   3.583   6.135
54789SOL    HW166264   1.119   3.635   6.062
54789SOL    HW266265   1.005   3.625   6.161
54790SOL     OW66266   6.393  10.216   0.573
54790SOL    HW166267   6.372  10.257   0.490
54790SOL    HW266268   6.457  10.275   0.613
54791SOL     OW66269   2.669  13.831   5.955
54791SOL    HW166270   2.609  13.877   6.013
54791SOL    HW266271   2.705  13.760   6.009
54792SOL     OW66272   9.622   7.186   4.809
54792SOL    HW166273   9.712   7.211   4.833
54792SOL    HW266274   9.603   7.239   4.731
54793SOL     OW66275   6.327   3.340   0.479
54793SOL    HW166276   6.289   3.423   0.450
54793SOL    HW266277   6.254   3.293   0.519
54794SOL     OW66278   8.765   8.339  11.236
54794SOL    HW166279   8.830   8.274  11.262
54794SOL    HW266280   8.767   8.404  11.307
54795SOL     OW66281   7.766   0.376   5.613
54795SOL    HW166282   7.813   0.381   5.530
54795SOL    HW266283   7.826   0.331   5.672
54796SOL     OW66284   4.936   3.613  10.995
54796SOL    HW166285   4.963   3.665  11.071
54796SOL    HW266286   4.922   3.525  11.031
54797SOL     OW66287   9.868   3.293  10.559
54797SOL    HW166288   9.802   3.243  10.606
54797SOL    HW266289   9.950   3.274  10.605
54798SOL     OW66290  13.481   1.488   2.611
54798SOL    HW166291  13.506   1.581   2.614
54798SOL    HW266292  13.430   1.475   2.691
54799SOL     OW66293   5.147  13.329   6.601
54799SOL    HW166294   5.115  13.394   6.539
54799SOL    HW266295   5.229  13.298   6.562
54800SOL     OW66296   5.221   5.561   4.277
54800SOL    HW166297   5.128   5.538   4.274
54800SOL    HW266298   5.245   5.574   4.185
54801SOL     OW66299  13.383   5.691  12.880
54801SOL    HW166300  13.338   5.610  12.906
54801SOL    HW266301  13.411   5.730  12.963
54802SOL     OW66302   9.741   3.187   7.685
54802SOL    HW166303   9.781   3.271   7.664
54802SOL    HW266304   9.679   3.207   7.755
54803SOL     OW66305   2.820   9.909  12.928
54803SOL    HW166306   2.830   9.996  12.967
54803SOL    HW266307   2.902   9.895  12.880
54804SOL     OW66308  10.429   5.238  13.533
54804SOL    HW166309  10.512   5.232  13.486
54804SOL    HW266310  10.363   5.246  13.464
54805SOL     OW66311   8.202   5.878   8.532
54805SOL    HW166312   8.225   5.952   8.589
54805SOL    HW266313   8.198   5.803   8.590
54806SOL     OW66314   6.774   0.212   9.062
54806SOL    HW166315   6.790   0.118   9.067
54806SOL    HW266316   6.713   0.230   9.134
54807SOL     OW66317   2.694  12.148   2.734
54807SOL    HW166318   2.658  12.219   2.786
54807SOL    HW266319   2.789  12.161   2.739
54808SOL     OW66320   2.407   2.776  11.062
54808SOL    HW166321   2.336   2.816  11.114
54808SOL    HW266322   2.471   2.749  11.127
54809SOL     OW66323  11.470   2.776   7.552
54809SOL    HW166324  11.421   2.851   7.586
54809SOL    HW266325  11.456   2.707   7.617
54810SOL     OW66326  14.518   1.474   9.663
54810SOL    HW166327  14.496   1.550   9.610
54810SOL    HW266328  14.575   1.421   9.607
54811SOL     OW66329  11.651   1.575   3.056
54811SOL    HW166330  11.692   1.641   3.112
54811SOL    HW266331  11.601   1.520   3.117
54812SOL     OW66332   8.950   4.844   0.353
54812SOL    HW166333   8.978   4.929   0.318
54812SOL    HW266334   8.877   4.818   0.296
54813SOL     OW66335   7.068   3.278   1.084
54813SOL    HW166336   7.003   3.330   1.037
54813SOL    HW266337   7.149   3.327   1.074
54814SOL     OW66338   2.769   4.737  14.438
54814SOL    HW166339   2.738   4.686  14.513
54814SOL    HW266340   2.744   4.827  14.458
54815SOL     OW66341   2.983   1.173   4.467
54815SOL    HW166342   2.968   1.103   4.403
54815SOL    HW266343   3.031   1.129   4.538
54816SOL     OW66344   6.963   7.506   0.515
54816SOL    HW166345   7.018   7.451   0.570
54816SOL    HW266346   6.988   7.483   0.425
54817SOL     OW66347   7.712   3.224   4.344
54817SOL    HW166348   7.655   3.160   4.385
54817SOL    HW266349   7.667   3.249   4.263
54818SOL     OW66350  10.807  13.448   3.964
54818SOL    HW166351  10.850  13.518   3.915
54818SOL    HW266352  10.720  13.482   3.983
54819SOL     OW66353  10.844   4.145   3.017
54819SOL    HW166354  10.924   4.195   3.000
54819SOL    HW266355  10.856   4.064   2.967
54820SOL     OW66356   3.815  14.300  14.543
54820SOL    HW166357   3.870  14.378  14.538
54820SOL    HW266358   3.875  14.228  14.558
54821SOL     OW66359  10.667   3.480  13.364
54821SOL    HW166360  10.720   3.556  13.341
54821SOL    HW266361  10.578   3.515  13.371
54822SOL     OW66362   9.797  10.874   3.572
54822SOL    HW166363   9.884  10.874   3.533
54822SOL    HW266364   9.740  10.840   3.504
54823SOL     OW66365   7.330  14.164  10.681
54823SOL    HW166366   7.414  14.204  10.658
54823SOL    HW266367   7.285  14.230  10.733
54824SOL     OW66368   4.421  14.032   6.957
54824SOL    HW166369   4.488  14.014   6.890
54824SOL    HW266370   4.340  14.040   6.907
54825SOL     OW66371   2.624  13.164   8.142
54825SOL    HW166372   2.703  13.120   8.173
54825SOL    HW266373   2.656  13.243   8.099
54826SOL     OW66374  12.320   5.798  10.507
54826SOL    HW166375  12.339   5.786  10.414
54826SOL    HW266376  12.278   5.717  10.534
54827SOL     OW66377   2.302   6.565  10.800
54827SOL    HW166378   2.277   6.572  10.708
54827SOL    HW266379   2.346   6.481  10.807
54828SOL     OW66380   0.821   8.509   0.586
54828SOL    HW166381   0.778   8.468   0.511
54828SOL    HW266382   0.832   8.439   0.650
54829SOL     OW66383   1.803   7.103   0.503
54829SOL    HW166384   1.755   7.172   0.457
54829SOL    HW266385   1.891   7.105   0.464
54830SOL     OW66386   1.960   1.505   7.790
54830SOL    HW166387   1.997   1.420   7.768
54830SOL    HW266388   1.894   1.487   7.857
54831SOL     OW66389   2.496   3.790   7.449
54831SOL    HW166390   2.415   3.833   7.419
54831SOL    HW266391   2.470   3.738   7.524
54832SOL     OW66392   9.447   8.358   2.781
54832SOL    HW166393   9.371   8.358   2.723
54832SOL    HW266394   9.486   8.271   2.769
54833SOL     OW66395   4.624   7.788   3.419
54833SOL    HW166396   4.601   7.878   3.441
54833SOL    HW266397   4.648   7.748   3.502
54834SOL     OW66398  11.009   7.656   5.471
54834SOL    HW166399  10.973   7.744   5.477
54834SOL    HW266400  11.101   7.670   5.446
54835SOL     OW66401  13.994   5.841   7.587
54835SOL    HW166402  13.937   5.846   7.664
54835SOL    HW266403  14.053   5.916   7.596
54836SOL     OW66404   0.848  12.272   6.785
54836SOL    HW166405   0.884  12.212   6.720
54836SOL    HW266406   0.770  12.227   6.819
54837SOL     OW66407   8.812  10.834   0.926
54837SOL    HW166408   8.759  10.895   0.977
54837SOL    HW266409   8.900  10.843   0.962
54838SOL     OW66410   4.000  11.997  14.448
54838SOL    HW166411   3.964  11.938  14.382
54838SOL    HW266412   3.998  11.947  14.530
54839SOL     OW66413   4.162  10.746   5.921
54839SOL    HW166414   4.113  10.743   6.004
54839SOL    HW266415   4.113  10.688   5.862
54840SOL     OW66416   0.336   4.308   1.237
54840SOL    HW166417   0.258   4.264   1.203
54840SOL    HW266418   0.319   4.401   1.225
54841SOL     OW66419   1.978  11.533   2.147
54841SOL    HW166420   2.038  11.463   2.119
54841SOL    HW266421   2.025  11.578   2.217
54842SOL     OW66422   9.267  11.419   5.845
54842SOL    HW166423   9.325  11.343   5.856
54842SOL    HW266424   9.190  11.398   5.898
54843SOL     OW66425  12.614   5.604   5.483
54843SOL    HW166426  12.550   5.671   5.505
54843SOL    HW266427  12.562   5.530   5.452
54844SOL     OW66428   9.129  11.538  12.353
54844SOL    HW166429   9.070  11.521  12.279
54844SOL    HW266430   9.201  11.588  12.315
54845SOL     OW66431   5.650  13.489   4.975
54845SOL    HW166432   5.707  13.536   4.915
54845SOL    HW266433   5.669  13.396   4.959
54846SOL     OW66434  11.961  14.615   0.142
54846SOL    HW166435  11.966  14.703   0.105
54846SOL    HW266436  11.994  14.624   0.231
54847SOL     OW66437  12.540   4.460   3.090
54847SOL    HW166438  12.488   4.433   3.166
54847SOL    HW266439  12.610   4.514   3.128
54848SOL     OW66440   8.676   2.182  13.062
54848SOL    HW166441   8.632   2.104  13.029
54848SOL    HW266442   8.615   2.221  13.124
54849SOL     OW66443   5.181  11.381  12.583
54849SOL    HW166444   5.258  11.324  12.582
54849SOL    HW266445   5.116  11.334  12.530
54850SOL     OW66446  13.942  13.034   5.597
54850SOL    HW166447  14.037  13.023   5.594
54850SOL    HW266448  13.907  12.947   5.579
54851SOL     OW66449   6.320   6.776   6.127
54851SOL    HW166450   6.326   6.716   6.052
54851SOL    HW266451   6.385   6.743   6.189
54852SOL     OW66452   2.085   3.226   7.418
54852SOL    HW166453   2.158   3.171   7.390
54852SOL    HW266454   2.061   3.275   7.339
54853SOL     OW66455   0.857  14.278   2.357
54853SOL    HW166456   0.897  14.248   2.439
54853SOL    HW266457   0.925  14.331   2.315
54854SOL     OW66458  12.023   2.475  12.565
54854SOL    HW166459  12.050   2.417  12.494
54854SOL    HW266460  12.027   2.563  12.526
54855SOL     OW66461  12.274  11.059   6.629
54855SOL    HW166462  12.254  10.968   6.610
54855SOL    HW266463  12.204  11.109   6.587
54856SOL     OW66464  11.628   3.261   9.626
54856SOL    HW166465  11.609   3.224   9.540
54856SOL    HW266466  11.645   3.353   9.609
54857SOL     OW66467  14.735  13.132   7.346
54857SOL    HW166468  14.669  13.123   7.277
54857SOL    HW266469  14.762  13.042   7.366
54858SOL     OW66470   5.610   5.932   0.026
54858SOL    HW166471   5.586   5.887  14.823
54858SOL    HW266472   5.694   5.894   0.051
54859SOL     OW66473   5.693  12.516   5.002
54859SOL    HW166474   5.729  12.514   4.914
54859SOL    HW266475   5.766  12.489   5.058
54860SOL     OW66476  12.998   5.930  11.304
54860SOL    HW166477  12.959   5.844  11.318
54860SOL    HW266478  12.935   5.991  11.340
54861SOL     OW66479   5.887  14.158  12.043
54861SOL    HW166480   5.915  14.245  12.072
54861SOL    HW266481   5.801  14.145  12.082
54862SOL     OW66482  10.606   7.143   6.815
54862SOL    HW166483  10.585   7.201   6.742
54862SOL    HW266484  10.525   7.137   6.866
54863SOL     OW66485  10.531   7.958   2.890
54863SOL    HW166486  10.464   8.005   2.940
54863SOL    HW266487  10.604   7.948   2.952
54864SOL     OW66488   3.452   2.019   7.225
54864SOL    HW166489   3.533   2.009   7.174
54864SOL    HW266490   3.397   1.946   7.196
54865SOL     OW66491   5.413  10.491  12.786
54865SOL    HW166492   5.450  10.552  12.723
54865SOL    HW266493   5.489  10.444  12.821
54866SOL     OW66494   4.753   0.968  14.120
54866SOL    HW166495   4.706   0.992  14.040
54866SOL    HW266496   4.845   0.966  14.094
54867SOL     OW66497   0.624   7.471   2.910
54867SOL    HW166498   0.646   7.380   2.929
54867SOL    HW266499   0.647   7.484   2.818
54868SOL     OW66500   0.706   8.230   3.757
54868SOL    HW166501   0.718   8.321   3.783
54868SOL    HW266502   0.783   8.208   3.706
54869SOL     OW66503  12.578   3.840   0.572
54869SOL    HW166504  12.595   3.822   0.665
54869SOL    HW266505  12.540   3.759   0.538
54870SOL     OW66506   8.042  10.873   2.891
54870SOL    HW166507   7.948  10.855   2.897
54870SOL    HW266508   8.049  10.968   2.898
54871SOL     OW66509  11.074   0.686  10.462
54871SOL    HW166510  10.988   0.663  10.427
54871SOL    HW266511  11.121   0.725  10.388
54872SOL     OW66512  11.642  14.165   3.475
54872SOL    HW166513  11.632  14.075   3.444
54872SOL    HW266514  11.553  14.200   3.477
54873SOL     OW66515  13.820   2.952   0.486
54873SOL    HW166516  13.906   2.933   0.525
54873SOL    HW266517  13.835   2.945   0.392
54874SOL     OW66518  11.403  12.210  11.441
54874SOL    HW166519  11.463  12.199  11.514
54874SOL    HW266520  11.362  12.124  11.429
54875SOL     OW66521  11.999   6.106   5.969
54875SOL    HW166522  12.028   6.129   5.881
54875SOL    HW266523  12.050   6.162   6.027
54876SOL     OW66524   8.295   9.214   8.704
54876SOL    HW166525   8.342   9.297   8.712
54876SOL    HW266526   8.266   9.194   8.793
54877SOL     OW66527   5.675   9.399   4.668
54877SOL    HW166528   5.663   9.489   4.699
54877SOL    HW266529   5.636   9.345   4.736
54878SOL     OW66530  11.097   4.915  10.680
54878SOL    HW166531  11.093   4.884  10.770
54878SOL    HW266532  11.145   4.997  10.685
54879SOL     OW66533   8.456   7.082   8.230
54879SOL    HW166534   8.418   7.159   8.187
54879SOL    HW266535   8.480   7.024   8.159
54880SOL     OW66536   0.292   8.791  12.132
54880SOL    HW166537   0.383   8.819  12.124
54880SOL    HW266538   0.270   8.804  12.225
54881SOL     OW66539  14.109  10.533   4.794
54881SOL    HW166540  14.067  10.500   4.714
54881SOL    HW266541  14.161  10.459   4.826
54882SOL     OW66542   5.594   1.994   0.933
54882SOL    HW166543   5.688   1.998   0.946
54882SOL    HW266544   5.583   1.950   0.848
54883SOL     OW66545  13.859   8.772   1.835
54883SOL    HW166546  13.906   8.845   1.794
54883SOL    HW266547  13.861   8.703   1.768
54884SOL     OW66548   6.320   6.679   0.355
54884SOL    HW166549   6.369   6.751   0.396
54884SOL    HW266550   6.276   6.720   0.280
54885SOL     OW66551   9.341   5.693  11.405
54885SOL    HW166552   9.383   5.772  11.438
54885SOL    HW266553   9.361   5.692  11.311
54886SOL     OW66554  10.345   4.433   1.453
54886SOL    HW166555  10.344   4.343   1.486
54886SOL    HW266556  10.424   4.438   1.399
54887SOL     OW66557   8.907   4.225   3.498
54887SOL    HW166558   8.836   4.207   3.435
54887SOL    HW266559   8.874   4.191   3.581
54888SOL     OW66560   5.067  10.108  13.954
54888SOL    HW166561   5.118  10.097  14.034
54888SOL    HW266562   5.079  10.200  13.930
54889SOL     OW66563   6.036   1.293   3.441
54889SOL    HW166564   6.023   1.359   3.509
54889SOL    HW266565   5.951   1.249   3.435
54890SOL     OW66566   4.095  13.560   7.581
54890SOL    HW166567   4.058  13.619   7.646
54890SOL    HW266568   4.190  13.572   7.589
54891SOL     OW66569  12.173   8.555   7.836
54891SOL    HW166570  12.160   8.510   7.920
54891SOL    HW266571  12.220   8.635   7.859
54892SOL     OW66572  14.462  11.368   2.995
54892SOL    HW166573  14.463  11.396   3.087
54892SOL    HW266574  14.553  11.347   2.976
54893SOL     OW66575  13.781  10.715  10.422
54893SOL    HW166576  13.794  10.665  10.341
54893SOL    HW266577  13.839  10.791  10.413
54894SOL     OW66578  14.799   9.441   7.595
54894SOL    HW166579  14.736   9.465   7.527
54894SOL    HW266580  14.770   9.490   7.672
54895SOL     OW66581  14.204   7.749   3.430
54895SOL    HW166582  14.167   7.835   3.411
54895SOL    HW266583  14.295   7.755   3.399
54896SOL     OW66584  10.634   0.354   4.819
54896SOL    HW166585  10.669   0.374   4.906
54896SOL    HW266586  10.711   0.337   4.766
54897SOL     OW66587   2.606   9.041   0.707
54897SOL    HW166588   2.516   9.021   0.734
54897SOL    HW266589   2.648   9.075   0.786
54898SOL     OW66590   9.767   4.265   2.801
54898SOL    HW166591   9.777   4.342   2.856
54898SOL    HW266592   9.673   4.256   2.787
54899SOL     OW66593   7.253   0.956   1.257
54899SOL    HW166594   7.262   0.908   1.174
54899SOL    HW266595   7.201   1.033   1.235
54900SOL     OW66596   4.179   9.818  11.608
54900SOL    HW166597   4.187   9.780  11.696
54900SOL    HW266598   4.108   9.769  11.567
54901SOL     OW66599   0.211   6.873   9.009
54901SOL    HW166600   0.159   6.816   8.952
54901SOL    HW266601   0.147   6.919   9.062
54902SOL     OW66602   8.025   7.875   3.632
54902SOL    HW166603   8.007   7.783   3.649
54902SOL    HW266604   8.031   7.915   3.719
54903SOL     OW66605   0.464  11.608   6.570
54903SOL    HW166606   0.405  11.542   6.607
54903SOL    HW266607   0.407  11.682   6.550
54904SOL     OW66608   8.323   9.519   9.447
54904SOL    HW166609   8.415   9.511   9.472
54904SOL    HW266610   8.306   9.613   9.448
54905SOL     OW66611   1.915   5.440   9.583
54905SOL    HW166612   1.837   5.495   9.594
54905SOL    HW266613   1.976   5.496   9.535
54906SOL     OW66614   0.087   9.550   4.495
54906SOL    HW166615   0.131   9.636   4.503
54906SOL    HW266616   0.141   9.492   4.548
54907SOL     OW66617   6.815   0.067   8.007
54907SOL    HW166618   6.740   0.110   8.047
54907SOL    HW266619   6.882   0.135   8.002
54908SOL     OW66620   0.676   6.476   2.741
54908SOL    HW166621   0.712   6.463   2.653
54908SOL    HW266622   0.590   6.518   2.726
54909SOL     OW66623   8.325   2.623   3.331
54909SOL    HW166624   8.418   2.605   3.346
54909SOL    HW266625   8.304   2.574   3.251
54910SOL     OW66626  12.089  10.300   8.887
54910SOL    HW166627  12.060  10.226   8.834
54910SOL    HW266628  12.020  10.366   8.876
54911SOL     OW66629   0.428   3.951   7.500
54911SOL    HW166630   0.335   3.929   7.494
54911SOL    HW266631   0.439   4.025   7.441
54912SOL     OW66632   6.731   2.125  12.405
54912SOL    HW166633   6.824   2.108  12.421
54912SOL    HW266634   6.685   2.063  12.462
54913SOL     OW66635   5.534  10.405  11.403
54913SOL    HW166636   5.452  10.401  11.453
54913SOL    HW266637   5.573  10.319  11.413
54914SOL     OW66638   4.047  13.398  14.457
54914SOL    HW166639   4.001  13.323  14.418
54914SOL    HW266640   4.116  13.359  14.510
54915SOL     OW66641   7.857   0.756   1.747
54915SOL    HW166642   7.840   0.662   1.733
54915SOL    HW266643   7.819   0.774   1.833
54916SOL     OW66644   6.422  14.454   5.850
54916SOL    HW166645   6.486  14.491   5.911
54916SOL    HW266646   6.429  14.359   5.863
54917SOL     OW66647  13.395  10.048   7.923
54917SOL    HW166648  13.391  10.133   7.879
54917SOL    HW266649  13.488  10.036   7.944
54918SOL     OW66650   3.328   5.413   6.435
54918SOL    HW166651   3.236   5.432   6.451
54918SOL    HW266652   3.375   5.492   6.462
54919SOL     OW66653   0.099   4.885  13.986
54919SOL    HW166654   0.006   4.881  14.009
54919SOL    HW266655   0.116   4.802  13.941
54920SOL     OW66656  13.492   0.962  10.739
54920SOL    HW166657  13.478   0.926  10.652
54920SOL    HW266658  13.405   0.960  10.780
54921SOL     OW66659   7.889   9.205  13.658
54921SOL    HW166660   7.960   9.214  13.594
54921SOL    HW266661   7.871   9.111  13.660
54922SOL     OW66662   7.811  10.304  13.393
54922SOL    HW166663   7.833  10.362  13.465
54922SOL    HW266664   7.876  10.322  13.325
54923SOL     OW66665   9.645   2.919   6.567
54923SOL    HW166666   9.562   2.942   6.610
54923SOL    HW266667   9.624   2.919   6.474
54924SOL     OW66668   2.190  12.557  13.740
54924SOL    HW166669   2.270  12.603  13.716
54924SOL    HW266670   2.195  12.546  13.834
54925SOL     OW66671  14.772   6.912   0.717
54925SOL    HW166672  14.752   6.924   0.624
54925SOL    HW266673  14.702   6.957   0.763
54926SOL     OW66674  11.885   5.512   9.636
54926SOL    HW166675  11.857   5.427   9.669
54926SOL    HW266676  11.978   5.501   9.617
54927SOL     OW66677   8.147   1.697   4.493
54927SOL    HW166678   8.159   1.745   4.410
54927SOL    HW266679   8.199   1.618   4.482
54928SOL     OW66680  11.104   6.099  10.785
54928SOL    HW166681  11.128   6.029  10.845
54928SOL    HW266682  11.024   6.068  10.742
54929SOL     OW66683   2.598   6.840   7.879
54929SOL    HW166684   2.555   6.754   7.880
54929SOL    HW266685   2.564   6.883   7.801
54930SOL     OW66686   3.515   0.700   2.928
54930SOL    HW166687   3.590   0.727   2.981
54930SOL    HW266688   3.492   0.614   2.962
54931SOL     OW66689  12.820  11.994  13.402
54931SOL    HW166690  12.767  12.057  13.355
54931SOL    HW266691  12.898  12.043  13.428
54932SOL     OW66692  12.751   0.341  14.466
54932SOL    HW166693  12.715   0.427  14.489
54932SOL    HW266694  12.676   0.294  14.429
54933SOL     OW66695  10.773   1.299   6.875
54933SOL    HW166696  10.834   1.263   6.939
54933SOL    HW266697  10.688   1.296   6.918
54934SOL     OW66698  10.624   9.605  13.466
54934SOL    HW166699  10.600   9.515  13.486
54934SOL    HW266700  10.540   9.649  13.449
54935SOL     OW66701   3.305   5.414   7.618
54935SOL    HW166702   3.258   5.486   7.660
54935SOL    HW266703   3.374   5.391   7.680
54936SOL     OW66704   7.501   9.109   4.726
54936SOL    HW166705   7.437   9.060   4.674
54936SOL    HW266706   7.583   9.062   4.711
54937SOL     OW66707   0.701   3.453   9.316
54937SOL    HW166708   0.671   3.544   9.317
54937SOL    HW266709   0.629   3.405   9.276
54938SOL     OW66710   9.081  10.587  11.195
54938SOL    HW166711   9.071  10.492  11.198
54938SOL    HW266712   9.002  10.621  11.237
54939SOL     OW66713   2.005   1.364  13.448
54939SOL    HW166714   2.026   1.280  13.489
54939SOL    HW266715   2.066   1.426  13.488
54940SOL     OW66716   1.432   2.383   9.831
54940SOL    HW166717   1.429   2.288   9.825
54940SOL    HW266718   1.517   2.402   9.871
54941SOL     OW66719   6.157   6.370  11.915
54941SOL    HW166720   6.104   6.292  11.931
54941SOL    HW266721   6.094   6.435  11.884
54942SOL     OW66722   9.624   3.295  11.019
54942SOL    HW166723   9.575   3.214  11.036
54942SOL    HW266724   9.693   3.269  10.957
54943SOL     OW66725   4.105  12.206  10.056
54943SOL    HW166726   4.124  12.137  10.120
54943SOL    HW266727   4.015  12.190  10.030
54944SOL     OW66728   8.429  12.669   2.469
54944SOL    HW166729   8.441  12.763   2.480
54944SOL    HW266730   8.519  12.635   2.460
54945SOL     OW66731   9.818  11.116   8.374
54945SOL    HW166732   9.806  11.026   8.342
54945SOL    HW266733   9.741  11.134   8.427
54946SOL     OW66734   0.946  14.622   6.903
54946SOL    HW166735   0.868  14.567   6.900
54946SOL    HW266736   0.956  14.645   6.996
54947SOL     OW66737   7.454   9.506   3.639
54947SOL    HW166738   7.463   9.456   3.558
54947SOL    HW266739   7.537   9.492   3.686
54948SOL     OW66740  11.148   6.255   2.928
54948SOL    HW166741  11.081   6.214   2.873
54948SOL    HW266742  11.099   6.295   2.999
54949SOL     OW66743  13.561   8.546   4.895
54949SOL    HW166744  13.654   8.535   4.874
54949SOL    HW266745  13.532   8.618   4.838
54950SOL     OW66746   4.994  11.617   8.500
54950SOL    HW166747   4.903  11.642   8.517
54950SOL    HW266748   5.027  11.587   8.585
54951SOL     OW66749   2.447   7.303   8.020
54951SOL    HW166750   2.356   7.334   8.012
54951SOL    HW266751   2.496   7.357   7.958
54952SOL     OW66752   9.462  12.420   9.383
54952SOL    HW166753   9.486  12.512   9.375
54952SOL    HW266754   9.536  12.379   9.427
54953SOL     OW66755  14.814   4.318  12.897
54953SOL    HW166756  14.849   4.285  12.814
54953SOL    HW266757  14.845   4.255  12.962
54954SOL     OW66758  13.176   6.533   7.697
54954SOL    HW166759  13.096   6.489   7.727
54954SOL    HW266760  13.161   6.550   7.604
54955SOL     OW66761   4.711  11.025   2.235
54955SOL    HW166762   4.644  10.957   2.234
54955SOL    HW266763   4.696  11.073   2.316
54956SOL     OW66764   2.301  13.188   3.010
54956SOL    HW166765   2.376  13.226   2.963
54956SOL    HW266766   2.268  13.121   2.950
54957SOL     OW66767  12.746   2.958  10.285
54957SOL    HW166768  12.759   2.930  10.194
54957SOL    HW266769  12.744   3.054  10.280
54958SOL     OW66770   1.442   4.129  11.860
54958SOL    HW166771   1.386   4.206  11.853
54958SOL    HW266772   1.393   4.060  11.814
54959SOL     OW66773   5.527   1.349  11.352
54959SOL    HW166774   5.549   1.260  11.327
54959SOL    HW266775   5.595   1.373  11.416
54960SOL     OW66776  12.691   0.003   8.403
54960SOL    HW166777  12.675  14.859   8.494
54960SOL    HW266778  12.668   0.096   8.395
54961SOL     OW66779   5.663   8.888  12.894
54961SOL    HW166780   5.742   8.879  12.948
54961SOL    HW266781   5.643   8.799  12.865
54962SOL     OW66782   8.903   6.362   7.188
54962SOL    HW166783   8.853   6.286   7.158
54962SOL    HW266784   8.855   6.393   7.265
54963SOL     OW66785   5.638  11.312   6.289
54963SOL    HW166786   5.641  11.362   6.370
54963SOL    HW266787   5.549  11.275   6.287
54964SOL     OW66788   0.202  10.524   4.591
54964SOL    HW166789   0.265  10.497   4.524
54964SOL    HW266790   0.202  10.619   4.588
54965SOL     OW66791   3.172   7.264   3.539
54965SOL    HW166792   3.166   7.219   3.623
54965SOL    HW266793   3.262   7.248   3.510
54966SOL     OW66794   5.597   6.871   9.250
54966SOL    HW166795   5.541   6.920   9.191
54966SOL    HW266796   5.551   6.788   9.263
54967SOL     OW66797  10.131  10.490  10.577
54967SOL    HW166798  10.146  10.401  10.610
54967SOL    HW266799  10.036  10.502  10.583
54968SOL     OW66800   2.821   1.620   3.299
54968SOL    HW166801   2.912   1.597   3.282
54968SOL    HW266802   2.817   1.635   3.393
54969SOL     OW66803   6.921  14.181   3.058
54969SOL    HW166804   6.887  14.167   3.146
54969SOL    HW266805   6.941  14.094   3.025
54970SOL     OW66806   8.280   8.295   6.610
54970SOL    HW166807   8.249   8.216   6.567
54970SOL    HW266808   8.255   8.366   6.550
54971SOL     OW66809   1.906   0.224   2.485
54971SOL    HW166810   1.880   0.180   2.566
54971SOL    HW266811   1.954   0.301   2.515
54972SOL     OW66812   6.385   5.404  11.049
54972SOL    HW166813   6.419   5.324  11.089
54972SOL    HW266814   6.318   5.435  11.109
54973SOL     OW66815   9.919   2.082   0.087
54973SOL    HW166816   9.853   2.100   0.021
54973SOL    HW266817   9.949   2.169   0.115
54974SOL     OW66818  10.973  13.757  12.403
54974SOL    HW166819  10.920  13.785  12.478
54974SOL    HW266820  10.917  13.768  12.327
54975SOL     OW66821   6.573  12.298   4.699
54975SOL    HW166822   6.651  12.334   4.657
54975SOL    HW266823   6.509  12.290   4.628
54976SOL     OW66824  13.135   8.699   4.795
54976SOL    HW166825  13.096   8.674   4.712
54976SOL    HW266826  13.061   8.737   4.845
54977SOL     OW66827  12.373  11.988   8.468
54977SOL    HW166828  12.384  12.071   8.516
54977SOL    HW266829  12.439  11.991   8.399
54978SOL     OW66830  13.450   5.829   9.835
54978SOL    HW166831  13.456   5.738   9.864
54978SOL    HW266832  13.414   5.876   9.910
54979SOL     OW66833  11.766   3.126   4.954
54979SOL    HW166834  11.843   3.097   5.003
54979SOL    HW266835  11.794   3.205   4.908
54980SOL     OW66836   9.792  12.516   7.698
54980SOL    HW166837   9.799  12.486   7.607
54980SOL    HW266838   9.823  12.606   7.696
54981SOL     OW66839  10.125   5.025  13.750
54981SOL    HW166840  10.180   5.003  13.825
54981SOL    HW266841  10.182   5.017  13.674
54982SOL     OW66842  14.835  12.403  11.959
54982SOL    HW166843  14.757  12.348  11.965
54982SOL    HW266844  14.873  12.401  12.047
54983SOL     OW66845   9.108   6.946   6.289
54983SOL    HW166846   9.125   6.897   6.209
54983SOL    HW266847   9.036   6.901   6.331
54984SOL     OW66848   7.873   0.726  14.794
54984SOL    HW166849   7.962   0.758  14.809
54984SOL    HW266850   7.872   0.697  14.703
54985SOL     OW66851  10.270  12.088  12.902
54985SOL    HW166852  10.333  12.133  12.958
54985SOL    HW266853  10.185  12.110  12.940
54986SOL     OW66854   8.728  13.459   7.278
54986SOL    HW166855   8.804  13.423   7.233
54986SOL    HW266856   8.653  13.414   7.238
54987SOL     OW66857   0.227  14.590   4.938
54987SOL    HW166858   0.154  14.594   5.000
54987SOL    HW266859   0.201  14.522   4.876
54988SOL     OW66860  12.935   6.383   1.036
54988SOL    HW166861  12.899   6.459   1.083
54988SOL    HW266862  13.010   6.356   1.090
54989SOL     OW66863   3.080   9.553   6.560
54989SOL    HW166864   3.070   9.477   6.617
54989SOL    HW266865   2.991   9.581   6.540
54990SOL     OW66866  10.101   5.734  14.570
54990SOL    HW166867  10.165   5.770  14.631
54990SOL    HW266868  10.090   5.643  14.597
54991SOL     OW66869  11.701   7.709   1.766
54991SOL    HW166870  11.713   7.673   1.678
54991SOL    HW266871  11.606   7.708   1.780
54992SOL     OW66872   1.667   6.153  12.703
54992SOL    HW166873   1.652   6.060  12.720
54992SOL    HW266874   1.726   6.181  12.773
54993SOL     OW66875   6.994  11.031   3.856
54993SOL    HW166876   7.057  11.101   3.839
54993SOL    HW266877   6.957  11.011   3.771
54994SOL     OW66878   2.723   3.775  14.158
54994SOL    HW166879   2.726   3.681  14.137
54994SOL    HW266880   2.797   3.788  14.217
54995SOL     OW66881   1.706   8.882   3.538
54995SOL    HW166882   1.727   8.975   3.541
54995SOL    HW266883   1.765   8.846   3.472
54996SOL     OW66884  14.100   4.118   8.518
54996SOL    HW166885  14.101   4.145   8.609
54996SOL    HW266886  14.043   4.181   8.474
54997SOL     OW66887   1.744  10.017  12.752
54997SOL    HW166888   1.759   9.942  12.809
54997SOL    HW266889   1.774  10.092  12.804
54998SOL     OW66890   6.385   7.151  10.138
54998SOL    HW166891   6.318   7.154  10.206
54998SOL    HW266892   6.456   7.100  10.177
54999SOL     OW66893   7.386  13.873   0.141
54999SOL    HW166894   7.384  13.923   0.223
54999SOL    HW266895   7.458  13.913   0.091
55000SOL     OW66896  13.515  12.854  11.223
55000SOL    HW166897  13.522  12.920  11.154
55000SOL    HW266898  13.428  12.817  11.213
55001SOL     OW66899   0.471   6.674  11.772
55001SOL    HW166900   0.428   6.706  11.852
55001SOL    HW266901   0.489   6.582  11.790
55002SOL     OW66902  11.782   8.952  10.611
55002SOL    HW166903  11.770   8.859  10.632
55002SOL    HW266904  11.714   8.971  10.547
55003SOL     OW66905   8.896   3.042   8.453
55003SOL    HW166906   8.807   3.041   8.488
55003SOL    HW266907   8.947   3.091   8.518
55004SOL     OW66908   6.322   6.392   4.456
55004SOL    HW166909   6.351   6.480   4.480
55004SOL    HW266910   6.374   6.369   4.379
55005SOL     OW66911  11.335  12.880   9.157
55005SOL    HW166912  11.354  12.964   9.116
55005SOL    HW266913  11.289  12.903   9.238
55006SOL     OW66914   5.660  13.921  12.386
55006SOL    HW166915   5.615  13.852  12.434
55006SOL    HW266916   5.750  13.918  12.417
55007SOL     OW66917  13.222   4.746   9.382
55007SOL    HW166918  13.311   4.737   9.416
55007SOL    HW266919  13.228   4.716   9.291
55008SOL     OW66920   4.291   3.253   5.640
55008SOL    HW166921   4.288   3.322   5.706
55008SOL    HW266922   4.365   3.276   5.584
55009SOL     OW66923   6.664  13.071  11.265
55009SOL    HW166924   6.570  13.061  11.276
55009SOL    HW266925   6.693  12.987  11.228
55010SOL     OW66926  10.254  12.309  12.262
55010SOL    HW166927  10.215  12.260  12.334
55010SOL    HW266928  10.330  12.352  12.301
55011SOL     OW66929  11.411   5.993   1.743
55011SOL    HW166930  11.379   5.993   1.834
55011SOL    HW266931  11.370   5.916   1.704
55012SOL     OW66932   9.499   0.559   3.861
55012SOL    HW166933   9.527   0.583   3.773
55012SOL    HW266934   9.512   0.464   3.865
55013SOL     OW66935  10.514   9.695   2.569
55013SOL    HW166936  10.553   9.664   2.487
55013SOL    HW266937  10.562   9.648   2.637
55014SOL     OW66938   8.629   4.352   2.355
55014SOL    HW166939   8.600   4.289   2.422
55014SOL    HW266940   8.635   4.435   2.402
55015SOL     OW66941   7.356  11.933   5.090
55015SOL    HW166942   7.394  12.010   5.047
55015SOL    HW266943   7.262  11.944   5.079
55016SOL     OW66944  11.749   7.710   2.430
55016SOL    HW166945  11.783   7.684   2.515
55016SOL    HW266946  11.744   7.629   2.379
55017SOL     OW66947   9.882   6.564   8.773
55017SOL    HW166948   9.882   6.660   8.776
55017SOL    HW266949   9.895   6.537   8.864
55018SOL     OW66950   1.336   3.266   0.506
55018SOL    HW166951   1.415   3.222   0.538
55018SOL    HW266952   1.368   3.343   0.459
55019SOL     OW66953   4.320  14.616   4.120
55019SOL    HW166954   4.320  14.695   4.173
55019SOL    HW266955   4.283  14.549   4.176
55020SOL     OW66956   3.902  11.745   5.132
55020SOL    HW166957   3.968  11.723   5.066
55020SOL    HW266958   3.818  11.724   5.090
55021SOL     OW66959   1.772   4.712   9.481
55021SOL    HW166960   1.784   4.749   9.569
55021SOL    HW266961   1.777   4.788   9.423
55022SOL     OW66962  12.970  12.881   1.077
55022SOL    HW166963  12.961  12.793   1.039
55022SOL    HW266964  13.044  12.919   1.029
55023SOL     OW66965   1.117   5.572   5.132
55023SOL    HW166966   1.157   5.553   5.047
55023SOL    HW266967   1.109   5.487   5.175
55024SOL     OW66968  11.833   8.682   8.242
55024SOL    HW166969  11.848   8.604   8.189
55024SOL    HW266970  11.921   8.718   8.256
55025SOL     OW66971   4.722  13.926   1.264
55025SOL    HW166972   4.750  14.018   1.262
55025SOL    HW266973   4.671  13.915   1.183
55026SOL     OW66974   9.682   1.723   9.450
55026SOL    HW166975   9.605   1.724   9.507
55026SOL    HW266976   9.723   1.638   9.466
55027SOL     OW66977   1.787   7.042   6.052
55027SOL    HW166978   1.860   7.078   6.002
55027SOL    HW266979   1.714   7.102   6.035
55028SOL     OW66980  13.775   6.359  10.925
55028SOL    HW166981  13.776   6.292  10.993
55028SOL    HW266982  13.802   6.439  10.971
55029SOL     OW66983  10.930   6.206   8.881
55029SOL    HW166984  10.967   6.189   8.794
55029SOL    HW266985  10.859   6.141   8.890
55030SOL     OW66986   5.631  14.466   8.559
55030SOL    HW166987   5.602  14.430   8.643
55030SOL    HW266988   5.559  14.449   8.499
55031SOL     OW66989   1.842   3.456   0.308
55031SOL    HW166990   1.854   3.389   0.241
55031SOL    HW266991   1.859   3.411   0.391
55032SOL     OW66992   5.809   8.848  13.499
55032SOL    HW166993   5.887   8.793  13.487
55032SOL    HW266994   5.843   8.937  13.502
55033SOL     OW66995  10.329   9.855   5.360
55033SOL    HW166996  10.308   9.867   5.452
55033SOL    HW266997  10.348   9.943   5.327
55034SOL     OW66998   4.395   4.923   1.386
55034SOL    HW166999   4.300   4.932   1.380
55034SOL    HW267000   4.426   4.930   1.296
55035SOL     OW67001   8.124  13.541   3.632
55035SOL    HW167002   8.057  13.560   3.697
55035SOL    HW267003   8.206  13.564   3.675
55036SOL     OW67004  13.656   6.343   4.461
55036SOL    HW167005  13.680   6.434   4.442
55036SOL    HW267006  13.644   6.342   4.556
55037SOL     OW67007   4.397   1.161  13.694
55037SOL    HW167008   4.373   1.251  13.715
55037SOL    HW267009   4.315   1.119  13.669
55038SOL     OW67010  12.906   9.091   6.774
55038SOL    HW167011  12.991   9.067   6.739
55038SOL    HW267012  12.876   9.163   6.718
55039SOL     OW67013   6.433   5.051   6.815
55039SOL    HW167014   6.468   5.126   6.768
55039SOL    HW267015   6.455   5.068   6.907
55040SOL     OW67016   3.529  12.497  13.148
55040SOL    HW167017   3.552  12.482  13.056
55040SOL    HW267018   3.607  12.470  13.197
55041SOL     OW67019  13.198   2.992   2.381
55041SOL    HW167020  13.230   2.914   2.336
55041SOL    HW267021  13.277   3.044   2.397
55042SOL     OW67022  13.575  14.396   7.838
55042SOL    HW167023  13.589  14.478   7.887
55042SOL    HW267024  13.485  14.402   7.808
55043SOL     OW67025   3.905   9.322   0.318
55043SOL    HW167026   3.871   9.322   0.228
55043SOL    HW267027   3.969   9.251   0.319
55044SOL     OW67028  13.626   1.275   2.543
55044SOL    HW167029  13.689   1.282   2.615
55044SOL    HW267030  13.566   1.348   2.556
55045SOL     OW67031   6.958   2.503  13.867
55045SOL    HW167032   6.960   2.599  13.861
55045SOL    HW267033   6.865   2.481  13.865
55046SOL     OW67034  10.681   5.807   6.609
55046SOL    HW167035  10.772   5.779   6.609
55046SOL    HW267036  10.672   5.860   6.688
55047SOL     OW67037   3.594   9.288   3.784
55047SOL    HW167038   3.581   9.277   3.690
55047SOL    HW267039   3.515   9.331   3.815
55048SOL     OW67040  11.874   2.007   1.037
55048SOL    HW167041  11.795   1.975   1.081
55048SOL    HW267042  11.842   2.054   0.961
55049SOL     OW67043   5.091   3.537   9.685
55049SOL    HW167044   5.111   3.609   9.625
55049SOL    HW267045   5.156   3.470   9.666
55050SOL     OW67046   4.737  13.831   0.440
55050SOL    HW167047   4.674  13.769   0.402
55050SOL    HW267048   4.813  13.778   0.460
55051SOL     OW67049   8.460  11.392  13.892
55051SOL    HW167050   8.529  11.411  13.955
55051SOL    HW267051   8.379  11.392  13.944
55052SOL     OW67052   3.127   6.897  12.940
55052SOL    HW167053   3.221   6.901  12.923
55052SOL    HW267054   3.104   6.986  12.966
55053SOL     OW67055   7.803   6.656   4.359
55053SOL    HW167056   7.724   6.603   4.351
55053SOL    HW267057   7.871   6.593   4.386
55054SOL     OW67058  11.556   9.548  13.177
55054SOL    HW167059  11.588   9.526  13.264
55054SOL    HW267060  11.490   9.616  13.192
55055SOL     OW67061  11.227  14.216   8.085
55055SOL    HW167062  11.197  14.205   7.994
55055SOL    HW267063  11.150  14.197   8.138
55056SOL     OW67064   7.388  11.289  12.690
55056SOL    HW167065   7.428  11.206  12.666
55056SOL    HW267066   7.356  11.326  12.608
55057SOL     OW67067   2.001  12.903   9.339
55057SOL    HW167068   1.933  12.869   9.280
55057SOL    HW267069   1.970  12.991   9.362
55058SOL     OW67070   8.258   5.484   4.037
55058SOL    HW167071   8.229   5.409   4.088
55058SOL    HW267072   8.271   5.450   3.949
55059SOL     OW67073   1.071  12.812   2.284
55059SOL    HW167074   1.060  12.902   2.253
55059SOL    HW267075   1.166  12.799   2.288
55060SOL     OW67076  10.435  13.506   3.045
55060SOL    HW167077  10.361  13.469   2.997
55060SOL    HW267078  10.405  13.512   3.136
55061SOL     OW67079   7.243   2.426   3.612
55061SOL    HW167080   7.208   2.514   3.616
55061SOL    HW267081   7.297   2.426   3.532
55062SOL     OW67082  12.830  13.715  12.281
55062SOL    HW167083  12.886  13.774  12.231
55062SOL    HW267084  12.780  13.773  12.340
55063SOL     OW67085  10.684   9.934   5.865
55063SOL    HW167086  10.658   9.896   5.949
55063SOL    HW267087  10.623  10.007   5.852
55064SOL     OW67088   3.795  11.243   7.980
55064SOL    HW167089   3.858  11.315   7.977
55064SOL    HW267090   3.759  11.246   8.068
55065SOL     OW67091   3.639   5.954  12.397
55065SOL    HW167092   3.641   5.944  12.302
55065SOL    HW267093   3.730   5.972  12.421
55066SOL     OW67094   6.163   6.494   0.533
55066SOL    HW167095   6.236   6.542   0.493
55066SOL    HW267096   6.183   6.493   0.626
55067SOL     OW67097   7.882   6.873   1.095
55067SOL    HW167098   7.973   6.894   1.072
55067SOL    HW267099   7.876   6.895   1.188
55068SOL     OW67100   7.506   3.276   6.330
55068SOL    HW167101   7.461   3.195   6.356
55068SOL    HW267102   7.583   3.280   6.387
55069SOL     OW67103  14.855   8.929   0.954
55069SOL    HW167104   0.012   8.984   1.024
55069SOL    HW267105  14.761   8.948   0.952
55070SOL     OW67106   8.344  14.873   7.211
55070SOL    HW167107   8.314   0.062   7.273
55070SOL    HW267108   8.266  14.822   7.190
55071SOL     OW67109  12.134  13.500   5.208
55071SOL    HW167110  12.117  13.576   5.264
55071SOL    HW267111  12.150  13.428   5.270
55072SOL     OW67112   9.938   2.143   5.287
55072SOL    HW167113  10.005   2.125   5.221
55072SOL    HW267114   9.855   2.131   5.241
55073SOL     OW67115   7.177   9.924   2.544
55073SOL    HW167116   7.206   9.837   2.572
55073SOL    HW267117   7.258   9.972   2.528
55074SOL     OW67118  11.420   8.145   9.255
55074SOL    HW167119  11.340   8.194   9.275
55074SOL    HW267120  11.468   8.201   9.194
55075SOL     OW67121  11.556   0.583   3.674
55075SOL    HW167122  11.626   0.529   3.637
55075SOL    HW267123  11.546   0.655   3.611
55076SOL     OW67124  14.416   9.202  13.476
55076SOL    HW167125  14.351   9.215  13.406
55076SOL    HW267126  14.479   9.273  13.464
55077SOL     OW67127   0.685   6.460   1.241
55077SOL    HW167128   0.662   6.538   1.292
55077SOL    HW267129   0.701   6.392   1.307
55078SOL     OW67130   2.543   8.537   7.572
55078SOL    HW167131   2.508   8.470   7.513
55078SOL    HW267132   2.632   8.553   7.540
55079SOL     OW67133  10.676  12.331   5.974
55079SOL    HW167134  10.684  12.256   5.915
55079SOL    HW267135  10.596  12.315   6.023
55080SOL     OW67136  13.406  12.376   4.670
55080SOL    HW167137  13.423  12.293   4.716
55080SOL    HW267138  13.317  12.399   4.695
55081SOL     OW67139  10.234   7.058   9.185
55081SOL    HW167140  10.142   7.080   9.198
55081SOL    HW267141  10.244   6.971   9.224
55082SOL     OW67142  11.222   9.366   6.493
55082SOL    HW167143  11.237   9.359   6.398
55082SOL    HW267144  11.182   9.282   6.517
55083SOL     OW67145   6.029  13.499   1.698
55083SOL    HW167146   6.122  13.480   1.694
55083SOL    HW267147   5.999  13.499   1.607
55084SOL     OW67148   2.836   4.597   7.332
55084SOL    HW167149   2.832   4.674   7.390
55084SOL    HW267150   2.880   4.530   7.385
55085SOL     OW67151   0.860  10.384   9.622
55085SOL    HW167152   0.842  10.306   9.569
55085SOL    HW267153   0.792  10.383   9.689
55086SOL     OW67154   1.732  14.261   7.154
55086SOL    HW167155   1.706  14.345   7.116
55086SOL    HW267156   1.708  14.196   7.088
55087SOL     OW67157   4.161   8.291   6.254
55087SOL    HW167158   4.250   8.263   6.274
55087SOL    HW267159   4.141   8.250   6.170
55088SOL     OW67160  10.744   4.146  11.201
55088SOL    HW167161  10.745   4.236  11.169
55088SOL    HW267162  10.662   4.138  11.250
55089SOL     OW67163  11.578   0.955   7.827
55089SOL    HW167164  11.527   0.893   7.880
55089SOL    HW267165  11.639   0.901   7.778
55090SOL     OW67166   6.155   4.700   4.199
55090SOL    HW167167   6.094   4.635   4.165
55090SOL    HW267168   6.165   4.763   4.128
55091SOL     OW67169  12.767   3.050  12.243
55091SOL    HW167170  12.802   3.081  12.327
55091SOL    HW267171  12.791   2.957  12.239
55092SOL     OW67172   0.177   0.608   5.067
55092SOL    HW167173   0.092   0.651   5.053
55092SOL    HW267174   0.224   0.667   5.126
55093SOL     OW67175   3.167   1.400  13.091
55093SOL    HW167176   3.261   1.408  13.104
55093SOL    HW267177   3.158   1.339  13.018
55094SOL     OW67178   8.928   7.531   3.365
55094SOL    HW167179   8.958   7.447   3.401
55094SOL    HW267180   8.983   7.544   3.288
55095SOL     OW67181   9.866   5.903  12.575
55095SOL    HW167182   9.849   5.917  12.481
55095SOL    HW267183   9.816   5.825  12.597
55096SOL     OW67184   0.065   2.997  12.372
55096SOL    HW167185   0.033   3.003  12.463
55096SOL    HW267186   0.131   2.928  12.375
55097SOL     OW67187   1.839   7.986  10.729
55097SOL    HW167188   1.879   8.057  10.780
55097SOL    HW267189   1.894   7.910  10.748
55098SOL     OW67190  13.173   3.423   2.044
55098SOL    HW167191  13.087   3.453   2.013
55098SOL    HW267192  13.159   3.406   2.138
55099SOL     OW67193  11.153   6.472   6.265
55099SOL    HW167194  11.141   6.380   6.288
55099SOL    HW267195  11.118   6.520   6.340
55100SOL     OW67196   0.692   6.819   4.582
55100SOL    HW167197   0.641   6.896   4.556
55100SOL    HW267198   0.779   6.835   4.547
55101SOL     OW67199   1.120  10.157   8.992
55101SOL    HW167200   1.191  10.221   8.987
55101SOL    HW267201   1.056  10.195   9.052
55102SOL     OW67202   9.678   3.244   9.614
55102SOL    HW167203   9.702   3.332   9.585
55102SOL    HW267204   9.583   3.247   9.622
55103SOL     OW67205   8.275   1.849  11.325
55103SOL    HW167206   8.191   1.806  11.342
55103SOL    HW267207   8.335   1.777  11.305
55104SOL     OW67208  10.179   1.418   5.436
55104SOL    HW167209  10.141   1.346   5.384
55104SOL    HW267210  10.270   1.423   5.405
55105SOL     OW67211   6.826  14.177   4.121
55105SOL    HW167212   6.804  14.206   4.210
55105SOL    HW267213   6.749  14.199   4.069
55106SOL     OW67214   2.275  13.195  12.690
55106SOL    HW167215   2.182  13.184  12.668
55106SOL    HW267216   2.290  13.289  12.686
55107SOL     OW67217  10.025  11.226  12.738
55107SOL    HW167218  10.101  11.184  12.779
55107SOL    HW267219   9.958  11.158  12.738
55108SOL     OW67220  10.801   3.940  14.375
55108SOL    HW167221  10.780   3.847  14.389
55108SOL    HW267222  10.802   3.977  14.463
55109SOL     OW67223  12.273   8.887  14.637
55109SOL    HW167224  12.202   8.896  14.574
55109SOL    HW267225  12.278   8.972  14.681
55110SOL     OW67226  12.042   8.892   9.426
55110SOL    HW167227  12.008   8.981   9.434
55110SOL    HW267228  11.998   8.842   9.496
55111SOL     OW67229  11.848  10.708  14.201
55111SOL    HW167230  11.841  10.678  14.111
55111SOL    HW267231  11.758  10.715  14.232
55112SOL     OW67232   1.598   0.505   6.770
55112SOL    HW167233   1.506   0.514   6.747
55112SOL    HW267234   1.598   0.469   6.858
55113SOL     OW67235   6.737  12.263   3.504
55113SOL    HW167236   6.732  12.288   3.412
55113SOL    HW267237   6.716  12.343   3.552
55114SOL     OW67238   1.444  14.650  10.566
55114SOL    HW167239   1.520  14.593  10.569
55114SOL    HW267240   1.469  14.722  10.507
55115SOL     OW67241  10.140  14.265  11.972
55115SOL    HW167242  10.216  14.214  11.945
55115SOL    HW267243  10.096  14.210  12.037
55116SOL     OW67244   1.313   0.971  14.315
55116SOL    HW167245   1.300   0.885  14.276
55116SOL    HW267246   1.234   0.987  14.366
55117SOL     OW67247   5.022   3.267  13.482
55117SOL    HW167248   5.040   3.198  13.545
55117SOL    HW267249   5.030   3.349  13.531
55118SOL     OW67250  11.677  14.781   4.830
55118SOL    HW167251  11.723  14.703   4.798
55118SOL    HW267252  11.733  14.854   4.803
55119SOL     OW67253   1.856   0.545   0.842
55119SOL    HW167254   1.829   0.633   0.818
55119SOL    HW267255   1.950   0.542   0.823
55120SOL     OW67256   4.173  13.895  12.612
55120SOL    HW167257   4.083  13.912  12.583
55120SOL    HW267258   4.200  13.976  12.655
55121SOL     OW67259  10.036  13.289   1.407
55121SOL    HW167260  10.100  13.349   1.368
55121SOL    HW267261   9.955  13.305   1.358
55122SOL     OW67262   3.845   0.790  14.869
55122SOL    HW167263   3.776   0.799   0.056
55122SOL    HW267264   3.876   0.700   0.002
55123SOL     OW67265   3.793   7.520   8.376
55123SOL    HW167266   3.881   7.536   8.342
55123SOL    HW267267   3.796   7.550   8.466
55124SOL     OW67268  13.178  12.699   2.993
55124SOL    HW167269  13.120  12.623   2.986
55124SOL    HW267270  13.264  12.666   2.968
55125SOL     OW67271  13.790   6.162  14.776
55125SOL    HW167272  13.868   6.209  14.804
55125SOL    HW267273  13.820   6.105  14.705
55126SOL     OW67274   8.013  12.760  10.182
55126SOL    HW167275   8.052  12.712  10.255
55126SOL    HW267276   8.074  12.832  10.164
55127SOL     OW67277   6.566   3.026  13.029
55127SOL    HW167278   6.615   3.107  13.042
55127SOL    HW267279   6.595   2.969  13.101
55128SOL     OW67280   4.698   6.930   3.683
55128SOL    HW167281   4.715   6.889   3.767
55128SOL    HW267282   4.603   6.945   3.683
55129SOL     OW67283  11.049   9.220   8.935
55129SOL    HW167284  11.109   9.215   8.860
55129SOL    HW267285  10.962   9.205   8.897
55130SOL     OW67286   6.325  13.654   1.094
55130SOL    HW167287   6.271  13.709   1.151
55130SOL    HW267288   6.291  13.669   1.006
55131SOL     OW67289   7.737   1.075  12.662
55131SOL    HW167290   7.666   1.139  12.671
55131SOL    HW267291   7.765   1.083  12.571
55132SOL     OW67292   1.426   0.389  11.592
55132SOL    HW167293   1.371   0.423  11.662
55132SOL    HW267294   1.441   0.298  11.615
55133SOL     OW67295   5.373   9.092  12.986
55133SOL    HW167296   5.309   9.156  13.017
55133SOL    HW267297   5.438   9.087  13.056
55134SOL     OW67298   2.210   3.193   7.144
55134SOL    HW167299   2.296   3.183   7.184
55134SOL    HW267300   2.215   3.142   7.063
55135SOL     OW67301   3.734   8.399  13.444
55135SOL    HW167302   3.738   8.318  13.393
55135SOL    HW267303   3.732   8.469  13.378
55136SOL     OW67304   5.550  12.704  14.427
55136SOL    HW167305   5.532  12.648  14.503
55136SOL    HW267306   5.588  12.783  14.464
55137SOL     OW67307  14.595   9.127   3.801
55137SOL    HW167308  14.546   9.187   3.856
55137SOL    HW267309  14.531   9.092   3.739
55138SOL     OW67310  12.622   0.842   5.007
55138SOL    HW167311  12.532   0.872   4.995
55138SOL    HW267312  12.664   0.912   5.057
55139SOL     OW67313   1.002  10.192   1.575
55139SOL    HW167314   1.081  10.139   1.566
55139SOL    HW267315   1.030  10.281   1.555
55140SOL     OW67316   5.390   2.506   9.610
55140SOL    HW167317   5.486   2.506   9.607
55140SOL    HW267318   5.364   2.543   9.526
55141SOL     OW67319   5.872  12.917  13.105
55141SOL    HW167320   5.808  12.945  13.170
55141SOL    HW267321   5.951  12.897  13.156
55142SOL     OW67322   2.433  10.215   2.753
55142SOL    HW167323   2.484  10.296   2.748
55142SOL    HW267324   2.489  10.154   2.801
55143SOL     OW67325   3.261   2.712  11.410
55143SOL    HW167326   3.349   2.713  11.448
55143SOL    HW267327   3.229   2.801  11.419
55144SOL     OW67328  10.226   3.165   3.066
55144SOL    HW167329  10.159   3.118   3.015
55144SOL    HW267330  10.228   3.253   3.028
55145SOL     OW67331   9.329   9.612  10.526
55145SOL    HW167332   9.307   9.530  10.482
55145SOL    HW267333   9.249   9.664  10.520
55146SOL     OW67334   4.075   0.515   7.915
55146SOL    HW167335   4.110   0.487   8.000
55146SOL    HW267336   4.092   0.442   7.856
55147SOL     OW67337  13.387   2.676   7.877
55147SOL    HW167338  13.394   2.687   7.972
55147SOL    HW267339  13.440   2.746   7.841
55148SOL     OW67340   8.617  13.456   6.629
55148SOL    HW167341   8.704  13.441   6.591
55148SOL    HW267342   8.634  13.481   6.720
55149SOL     OW67343   5.865   5.832   8.483
55149SOL    HW167344   5.903   5.895   8.544
55149SOL    HW267345   5.861   5.750   8.532
55150SOL     OW67346  13.298   3.930   3.070
55150SOL    HW167347  13.377   3.957   3.116
55150SOL    HW267348  13.278   4.003   3.011
55151SOL     OW67349  14.002   5.011   1.876
55151SOL    HW167350  13.975   5.099   1.849
55151SOL    HW267351  13.923   4.958   1.867
55152SOL     OW67352   5.870   1.103   6.777
55152SOL    HW167353   5.934   1.122   6.709
55152SOL    HW267354   5.900   1.152   6.854
55153SOL     OW67355   0.300  13.168  11.340
55153SOL    HW167356   0.360  13.148  11.411
55153SOL    HW267357   0.338  13.125  11.263
55154SOL     OW67358   4.875   7.804  10.807
55154SOL    HW167359   4.795   7.821  10.858
55154SOL    HW267360   4.883   7.881  10.750
55155SOL     OW67361   8.256  12.239  13.861
55155SOL    HW167362   8.168  12.273  13.848
55155SOL    HW267363   8.293  12.233  13.773
55156SOL     OW67364   5.219   0.254   7.516
55156SOL    HW167365   5.143   0.309   7.537
55156SOL    HW267366   5.216   0.183   7.581
55157SOL     OW67367   9.611  13.719   5.757
55157SOL    HW167368   9.678  13.704   5.691
55157SOL    HW267369   9.571  13.633   5.771
55158SOL     OW67370  14.182   7.918   0.785
55158SOL    HW167371  14.273   7.946   0.794
55158SOL    HW267372  14.182   7.826   0.813
55159SOL     OW67373   8.537   7.663  12.547
55159SOL    HW167374   8.551   7.718  12.470
55159SOL    HW267375   8.572   7.578  12.523
55160SOL     OW67376   7.443  14.265   2.138
55160SOL    HW167377   7.476  14.218   2.062
55160SOL    HW267378   7.349  14.274   2.122
55161SOL     OW67379  12.116   0.968   4.079
55161SOL    HW167380  12.182   0.901   4.096
55161SOL    HW267381  12.047   0.950   4.144
55162SOL     OW67382  10.524  14.824  12.404
55162SOL    HW167383  10.573   0.019  12.442
55162SOL    HW267384  10.588  14.753  12.398
55163SOL     OW67385  14.000  10.164  10.206
55163SOL    HW167386  14.090  10.182  10.179
55163SOL    HW267387  13.977  10.237  10.263
55164SOL     OW67388   8.047   8.865   0.773
55164SOL    HW167389   7.961   8.836   0.742
55164SOL    HW267390   8.054   8.956   0.743
55165SOL     OW67391   8.750   7.044  11.739
55165SOL    HW167392   8.825   7.055  11.797
55165SOL    HW267393   8.682   7.101  11.776
55166SOL     OW67394  10.302   9.091   9.351
55166SOL    HW167395  10.325   9.000   9.333
55166SOL    HW267396  10.237   9.086   9.421
55167SOL     OW67397  12.917   5.080   0.066
55167SOL    HW167398  12.900   5.172   0.084
55167SOL    HW267399  12.917   5.038   0.152
55168SOL     OW67400  10.970   7.941   5.547
55168SOL    HW167401  11.042   7.945   5.610
55168SOL    HW267402  10.905   8.003   5.580
55169SOL     OW67403  10.492   2.177   9.183
55169SOL    HW167404  10.452   2.107   9.234
55169SOL    HW267405  10.455   2.166   9.095
55170SOL     OW67406   8.384   0.707   4.046
55170SOL    HW167407   8.462   0.716   3.991
55170SOL    HW267408   8.340   0.629   4.014
55171SOL     OW67409   2.416  11.848  12.656
55171SOL    HW167410   2.482  11.814  12.595
55171SOL    HW267411   2.430  11.799  12.737
55172SOL     OW67412   6.916   9.339   8.142
55172SOL    HW167413   6.897   9.251   8.175
55172SOL    HW267414   6.830   9.382   8.137
55173SOL     OW67415  12.405   7.206   8.391
55173SOL    HW167416  12.407   7.111   8.387
55173SOL    HW267417  12.497   7.232   8.397
55174SOL     OW67418   2.491  13.859   8.041
55174SOL    HW167419   2.448  13.836   8.123
55174SOL    HW267420   2.427  13.840   7.973
55175SOL     OW67421  14.751   8.112   0.805
55175SOL    HW167422  14.811   8.169   0.756
55175SOL    HW267423  14.742   8.154   0.890
55176SOL     OW67424   5.643   4.667   2.749
55176SOL    HW167425   5.653   4.685   2.842
55176SOL    HW267426   5.575   4.599   2.745
55177SOL     OW67427   1.269   0.961  13.186
55177SOL    HW167428   1.321   0.911  13.249
55177SOL    HW267429   1.274   1.051  13.216
55178SOL     OW67430   9.093  11.432   5.581
55178SOL    HW167431   9.007  11.458   5.615
55178SOL    HW267432   9.091  11.337   5.581
55179SOL     OW67433  13.434   3.474  11.556
55179SOL    HW167434  13.500   3.543  11.550
55179SOL    HW267435  13.423   3.460  11.650
55180SOL     OW67436   0.547  10.865  14.410
55180SOL    HW167437   0.628  10.898  14.371
55180SOL    HW267438   0.542  10.910  14.495
55181SOL     OW67439   5.931  12.717   9.040
55181SOL    HW167440   5.877  12.639   9.051
55181SOL    HW267441   5.935  12.730   8.945
55182SOL     OW67442   4.407   1.199   0.388
55182SOL    HW167443   4.481   1.217   0.447
55182SOL    HW267444   4.447   1.155   0.313
55183SOL     OW67445  14.143   8.799   1.058
55183SOL    HW167446  14.156   8.726   1.120
55183SOL    HW267447  14.148   8.877   1.112
55184SOL     OW67448   5.557   5.918  10.066
55184SOL    HW167449   5.473   5.872  10.073
55184SOL    HW267450   5.545   5.980   9.995
55185SOL     OW67451  12.798   5.195   8.946
55185SOL    HW167452  12.782   5.263   8.879
55185SOL    HW267453  12.717   5.144   8.948
55186SOL     OW67454   3.193   8.215   6.680
55186SOL    HW167455   3.241   8.246   6.603
55186SOL    HW267456   3.108   8.189   6.646
55187SOL     OW67457   8.237  13.530  10.442
55187SOL    HW167458   8.275  13.510  10.357
55187SOL    HW267459   8.162  13.586  10.423
55188SOL     OW67460  12.492   4.197  11.144
55188SOL    HW167461  12.494   4.211  11.239
55188SOL    HW267462  12.533   4.112  11.131
55189SOL     OW67463  10.210  11.349   3.283
55189SOL    HW167464  10.289  11.365   3.231
55189SOL    HW267465  10.167  11.276   3.240
55190SOL     OW67466   7.998  12.044   3.791
55190SOL    HW167467   7.925  12.089   3.750
55190SOL    HW267468   8.050  12.010   3.718
55191SOL     OW67469   8.202   3.874  12.225
55191SOL    HW167470   8.222   3.951  12.172
55191SOL    HW267471   8.165   3.811  12.164
55192SOL     OW67472   0.523  11.523   8.114
55192SOL    HW167473   0.447  11.480   8.152
55192SOL    HW267474   0.534  11.603   8.166
55193SOL     OW67475   5.626   1.662   3.855
55193SOL    HW167476   5.608   1.639   3.764
55193SOL    HW267477   5.641   1.578   3.899
55194SOL     OW67478   9.193  12.536   6.953
55194SOL    HW167479   9.145  12.455   6.939
55194SOL    HW267480   9.207  12.572   6.866
55195SOL     OW67481   6.754   6.557   5.299
55195SOL    HW167482   6.767   6.523   5.388
55195SOL    HW267483   6.832   6.528   5.251
55196SOL     OW67484  14.569   1.591   6.746
55196SOL    HW167485  14.493   1.621   6.697
55196SOL    HW267486  14.536   1.578   6.836
55197SOL     OW67487  14.853  11.624   6.887
55197SOL    HW167488  14.839  11.567   6.811
55197SOL    HW267489  14.795  11.588   6.954
55198SOL     OW67490   7.464   4.477   2.206
55198SOL    HW167491   7.374   4.490   2.175
55198SOL    HW267492   7.458   4.486   2.301
55199SOL     OW67493   3.627   8.879   5.605
55199SOL    HW167494   3.631   8.860   5.699
55199SOL    HW267495   3.535   8.895   5.587
55200SOL     OW67496   8.659  11.031  14.403
55200SOL    HW167497   8.649  10.940  14.376
55200SOL    HW267498   8.710  11.027  14.484
55201SOL     OW67499   5.172   2.179  12.912
55201SOL    HW167500   5.170   2.225  12.828
55201SOL    HW267501   5.180   2.087  12.888
55202SOL     OW67502   9.207  13.264  12.940
55202SOL    HW167503   9.125  13.303  12.972
55202SOL    HW267504   9.266  13.338  12.928
55203SOL     OW67505  13.363   1.448   3.824
55203SOL    HW167506  13.285   1.393   3.826
55203SOL    HW267507  13.398   1.444   3.913
55204SOL     OW67508  11.975   6.077  12.591
55204SOL    HW167509  12.007   6.146  12.649
55204SOL    HW267510  11.880   6.092  12.586
55205SOL     OW67511   4.322   8.028   4.767
55205SOL    HW167512   4.323   8.072   4.851
55205SOL    HW267513   4.336   7.935   4.788
55206SOL     OW67514  12.835  10.965   9.981
55206SOL    HW167515  12.897  10.918   9.925
55206SOL    HW267516  12.835  11.054   9.948
55207SOL     OW67517  14.212   4.368   2.101
55207SOL    HW167518  14.132   4.359   2.050
55207SOL    HW267519  14.190   4.433   2.168
55208SOL     OW67520   3.917   8.068  12.142
55208SOL    HW167521   3.956   7.992  12.100
55208SOL    HW267522   3.823   8.049  12.143
55209SOL     OW67523  12.314   7.576   0.050
55209SOL    HW167524  12.401   7.582   0.089
55209SOL    HW267525  12.255   7.608   0.118
55210SOL     OW67526   5.898   1.307   5.237
55210SOL    HW167527   5.882   1.345   5.323
55210SOL    HW267528   5.989   1.279   5.240
55211SOL     OW67529  11.379  12.977   3.360
55211SOL    HW167530  11.286  12.995   3.367
55211SOL    HW267531  11.422  13.057   3.391
55212SOL     OW67532   5.246  11.888   6.888
55212SOL    HW167533   5.298  11.885   6.968
55212SOL    HW267534   5.301  11.845   6.822
55213SOL     OW67535   0.186  11.654   3.138
55213SOL    HW167536   0.132  11.699   3.073
55213SOL    HW267537   0.213  11.573   3.094
55214SOL     OW67538   6.832   3.129   5.805
55214SOL    HW167539   6.817   3.224   5.806
55214SOL    HW267540   6.777   3.096   5.876
55215SOL     OW67541  13.084   9.587   5.950
55215SOL    HW167542  13.071   9.680   5.968
55215SOL    HW267543  13.156   9.561   6.009
55216SOL     OW67544   2.581  14.486  12.429
55216SOL    HW167545   2.504  14.493  12.486
55216SOL    HW267546   2.549  14.511  12.342
55217SOL     OW67547  14.744   0.461   4.970
55217SOL    HW167548  14.772   0.387   5.024
55217SOL    HW267549  14.781   0.537   5.015
55218SOL     OW67550   0.056   6.833   4.149
55218SOL    HW167551   0.134   6.789   4.113
55218SOL    HW267552   0.003   6.762   4.184
55219SOL     OW67553  11.704   7.340   3.826
55219SOL    HW167554  11.761   7.264   3.837
55219SOL    HW267555  11.731   7.401   3.895
55220SOL     OW67556   1.333  10.580  10.647
55220SOL    HW167557   1.323  10.639  10.572
55220SOL    HW267558   1.369  10.635  10.716
55221SOL     OW67559   5.844  11.409   8.226
55221SOL    HW167560   5.760  11.370   8.249
55221SOL    HW267561   5.909  11.341   8.248
55222SOL     OW67562   5.919  12.627  10.266
55222SOL    HW167563   5.919  12.537  10.232
55222SOL    HW267564   5.993  12.669  10.223
55223SOL     OW67565  11.126  12.042   6.696
55223SOL    HW167566  11.196  12.072   6.754
55223SOL    HW267567  11.152  12.072   6.609
55224SOL     OW67568   8.939  13.388   0.206
55224SOL    HW167569   9.010  13.324   0.193
55224SOL    HW267570   8.965  13.438   0.283
55225SOL     OW67571   5.350   7.576   6.589
55225SOL    HW167572   5.429   7.617   6.553
55225SOL    HW267573   5.367   7.570   6.683
55226SOL     OW67574   5.619   1.727  14.261
55226SOL    HW167575   5.637   1.676  14.182
55226SOL    HW267576   5.611   1.817  14.230
55227SOL     OW67577   2.005   0.166   8.402
55227SOL    HW167578   2.077   0.118   8.363
55227SOL    HW267579   2.022   0.257   8.379
55228SOL     OW67580  11.810  10.700   5.942
55228SOL    HW167581  11.873  10.629   5.925
55228SOL    HW267582  11.778  10.725   5.855
55229SOL     OW67583  14.050   0.912  12.603
55229SOL    HW167584  14.069   0.945  12.515
55229SOL    HW267585  13.962   0.945  12.623
55230SOL     OW67586   3.286  11.303   4.640
55230SOL    HW167587   3.375  11.308   4.606
55230SOL    HW267588   3.273  11.385   4.688
55231SOL     OW67589  11.624  14.743  10.432
55231SOL    HW167590  11.674  14.666  10.406
55231SOL    HW267591  11.619  14.737  10.527
55232SOL     OW67592   9.456   7.413  11.789
55232SOL    HW167593   9.529   7.390  11.846
55232SOL    HW267594   9.448   7.508  11.797
55233SOL     OW67595  14.836   1.356   4.669
55233SOL    HW167596   0.047   1.329   4.648
55233SOL    HW267597  14.780   1.288   4.630
55234SOL     OW67598   1.615   3.785   0.538
55234SOL    HW167599   1.674   3.713   0.561
55234SOL    HW267600   1.550   3.745   0.481
55235SOL     OW67601   5.537   9.505   3.920
55235SOL    HW167602   5.611   9.511   3.980
55235SOL    HW267603   5.469   9.459   3.970
55236SOL     OW67604   7.618  14.675   4.349
55236SOL    HW167605   7.550  14.722   4.398
55236SOL    HW267606   7.578  14.657   4.264
55237SOL     OW67607   5.082   2.317  14.044
55237SOL    HW167608   5.146   2.335  13.975
55237SOL    HW267609   5.118   2.241  14.090
55238SOL     OW67610  14.362   1.393  13.187
55238SOL    HW167611  14.358   1.301  13.161
55238SOL    HW267612  14.443   1.425  13.149
55239SOL     OW67613   4.927   6.556   6.806
55239SOL    HW167614   4.888   6.472   6.830
55239SOL    HW267615   4.910   6.613   6.881
55240SOL     OW67616   9.200  13.943  14.440
55240SOL    HW167617   9.122  13.956  14.386
55240SOL    HW267618   9.247  13.871  14.398
55241SOL     OW67619  13.993   7.360  11.553
55241SOL    HW167620  14.031   7.323  11.633
55241SOL    HW267621  13.925   7.420  11.584
55242SOL     OW67622   1.118  11.403   6.766
55242SOL    HW167623   1.124  11.319   6.812
55242SOL    HW267624   1.039  11.444   6.801
55243SOL     OW67625   7.341   9.691   0.311
55243SOL    HW167626   7.380   9.775   0.335
55243SOL    HW267627   7.261   9.686   0.362
55244SOL     OW67628  13.783   5.772   1.621
55244SOL    HW167629  13.767   5.826   1.698
55244SOL    HW267630  13.801   5.834   1.550
55245SOL     OW67631   4.474   1.073   7.709
55245SOL    HW167632   4.554   1.035   7.746
55245SOL    HW267633   4.410   1.002   7.710
55246SOL     OW67634   7.811  11.958   1.200
55246SOL    HW167635   7.880  11.924   1.257
55246SOL    HW267636   7.774  11.880   1.159
55247SOL     OW67637  12.026  11.822   6.401
55247SOL    HW167638  11.981  11.829   6.485
55247SOL    HW267639  12.118  11.839   6.422
55248SOL     OW67640   6.783   4.756  11.332
55248SOL    HW167641   6.839   4.810  11.389
55248SOL    HW267642   6.698   4.756  11.376
55249SOL     OW67643   6.339  12.182  14.511
55249SOL    HW167644   6.421  12.231  14.519
55249SOL    HW267645   6.340  12.121  14.584
55250SOL     OW67646  14.381   4.434   0.032
55250SOL    HW167647  14.435   4.378   0.088
55250SOL    HW267648  14.336   4.373  14.852
55251SOL     OW67649   4.929  12.868   6.770
55251SOL    HW167650   4.955  12.790   6.819
55251SOL    HW267651   5.011  12.914   6.752
55252SOL     OW67652  14.797   7.745   0.424
55252SOL    HW167653  14.862   7.714   0.361
55252SOL    HW267654  14.724   7.683   0.416
55253SOL     OW67655   1.531  11.077   9.209
55253SOL    HW167656   1.468  11.144   9.236
55253SOL    HW267657   1.613  11.102   9.253
55254SOL     OW67658   9.655   2.935   6.252
55254SOL    HW167659   9.573   2.952   6.206
55254SOL    HW267660   9.723   2.947   6.186
55255SOL     OW67661   3.893  14.187  10.137
55255SOL    HW167662   3.927  14.128  10.070
55255SOL    HW267663   3.968  14.240  10.162
55256SOL     OW67664  12.858   8.578  14.339
55256SOL    HW167665  12.806   8.649  14.301
55256SOL    HW267666  12.901   8.618  14.415
55257SOL     OW67667   6.259  11.884  11.019
55257SOL    HW167668   6.348  11.871  11.052
55257SOL    HW267669   6.270  11.932  10.937
55258SOL     OW67670   9.862   1.076   9.371
55258SOL    HW167671   9.872   1.165   9.337
55258SOL    HW267672   9.772   1.073   9.403
55259SOL     OW67673   3.694   7.783   9.312
55259SOL    HW167674   3.785   7.799   9.285
55259SOL    HW267675   3.648   7.765   9.231
55260SOL     OW67676  10.402  14.382   8.879
55260SOL    HW167677  10.482  14.342   8.913
55260SOL    HW267678  10.387  14.458   8.935
55261SOL     OW67679   4.308   2.414   5.807
55261SOL    HW167680   4.265   2.456   5.732
55261SOL    HW267681   4.297   2.320   5.792
55262SOL     OW67682  12.396   7.698   7.056
55262SOL    HW167683  12.313   7.744   7.061
55262SOL    HW267684  12.451   7.741   7.121
55263SOL     OW67685  12.386  13.667  12.562
55263SOL    HW167686  12.373  13.757  12.530
55263SOL    HW267687  12.474  13.644  12.533
55264SOL     OW67688   4.467  13.400   8.472
55264SOL    HW167689   4.453  13.322   8.524
55264SOL    HW267690   4.561  13.416   8.476
55265SOL     OW67691   5.875  11.039  10.593
55265SOL    HW167692   5.905  11.116  10.545
55265SOL    HW267693   5.900  11.056  10.684
55266SOL     OW67694   4.656  14.731   7.337
55266SOL    HW167695   4.607  14.728   7.255
55266SOL    HW267696   4.650  14.643   7.372
55267SOL     OW67697   7.977   3.239  13.925
55267SOL    HW167698   8.010   3.293  13.853
55267SOL    HW267699   8.031   3.160  13.922
55268SOL     OW67700   3.982   8.986   2.963
55268SOL    HW167701   4.052   8.971   3.026
55268SOL    HW267702   3.929   8.907   2.966
55269SOL     OW67703   1.451   8.327   1.182
55269SOL    HW167704   1.437   8.415   1.215
55269SOL    HW267705   1.363   8.293   1.163
55270SOL     OW67706   3.074  14.083   0.881
55270SOL    HW167707   3.084  14.167   0.926
55270SOL    HW267708   3.137  14.088   0.809
55271SOL     OW67709   7.197   3.592   2.171
55271SOL    HW167710   7.253   3.522   2.139
55271SOL    HW267711   7.255   3.651   2.218
55272SOL     OW67712   6.354  13.684  10.009
55272SOL    HW167713   6.304  13.627  10.067
55272SOL    HW267714   6.297  13.699   9.933
55273SOL     OW67715   2.669  12.871  10.882
55273SOL    HW167716   2.690  12.960  10.911
55273SOL    HW267717   2.645  12.881  10.790
55274SOL     OW67718   9.335   1.319   3.782
55274SOL    HW167719   9.398   1.268   3.832
55274SOL    HW267720   9.342   1.287   3.692
55275SOL     OW67721   0.222  11.479   5.859
55275SOL    HW167722   0.291  11.481   5.926
55275SOL    HW267723   0.236  11.397   5.812
55276SOL     OW67724  14.623   0.848   6.992
55276SOL    HW167725  14.553   0.913   6.993
55276SOL    HW267726  14.585   0.771   7.034
55277SOL     OW67727  10.998  12.636  10.644
55277SOL    HW167728  10.994  12.692  10.721
55277SOL    HW267729  10.915  12.651  10.599
55278SOL     OW67730   7.503  12.928   4.019
55278SOL    HW167731   7.503  12.856   4.082
55278SOL    HW267732   7.445  12.994   4.057
55279SOL     OW67733   7.121   0.906   3.489
55279SOL    HW167734   7.206   0.926   3.528
55279SOL    HW267735   7.081   0.991   3.471
55280SOL     OW67736   8.337   7.790   4.304
55280SOL    HW167737   8.288   7.709   4.317
55280SOL    HW267738   8.425   7.770   4.337
55281SOL     OW67739   9.350   8.280   4.372
55281SOL    HW167740   9.306   8.284   4.287
55281SOL    HW267741   9.283   8.305   4.435
55282SOL     OW67742   4.939   2.279   7.150
55282SOL    HW167743   4.984   2.238   7.076
55282SOL    HW267744   4.962   2.372   7.144
55283SOL     OW67745   7.036   0.235   7.906
55283SOL    HW167746   7.116   0.276   7.873
55283SOL    HW267747   6.970   0.255   7.839
55284SOL     OW67748  13.910  10.899  10.577
55284SOL    HW167749  13.830  10.848  10.589
55284SOL    HW267750  13.921  10.948  10.659
55285SOL     OW67751  13.651   0.113   6.599
55285SOL    HW167752  13.630   0.050   6.668
55285SOL    HW267753  13.659   0.196   6.645
55286SOL     OW67754  13.770  14.663   7.467
55286SOL    HW167755  13.745  14.700   7.382
55286SOL    HW267756  13.844  14.606   7.448
55287SOL     OW67757   5.960   3.413   7.530
55287SOL    HW167758   6.049   3.435   7.559
55287SOL    HW267759   5.962   3.424   7.435
55288SOL     OW67760   9.091  10.098   4.868
55288SOL    HW167761   9.137  10.060   4.943
55288SOL    HW267762   9.110  10.039   4.795
55289SOL     OW67763   5.580   2.548  11.779
55289SOL    HW167764   5.553   2.477  11.721
55289SOL    HW267765   5.514   2.616  11.765
55290SOL     OW67766  10.023   3.595  11.288
55290SOL    HW167767  10.017   3.514  11.338
55290SOL    HW267768  10.116   3.608  11.272
55291SOL     OW67769  10.290   6.539   2.953
55291SOL    HW167770  10.375   6.542   2.910
55291SOL    HW267771  10.231   6.503   2.887
55292SOL     OW67772  13.051   8.056   2.683
55292SOL    HW167773  13.067   8.098   2.767
55292SOL    HW267774  12.969   8.096   2.651
55293SOL     OW67775   9.845   2.449   9.287
55293SOL    HW167776   9.863   2.493   9.204
55293SOL    HW267777   9.769   2.395   9.270
55294SOL     OW67778  12.277   7.804   7.893
55294SOL    HW167779  12.272   7.855   7.974
55294SOL    HW267780  12.334   7.855   7.835
55295SOL     OW67781   5.087   9.286   8.808
55295SOL    HW167782   5.031   9.209   8.796
55295SOL    HW267783   5.035   9.359   8.776
55296SOL     OW67784   0.978  12.344  13.494
55296SOL    HW167785   0.889  12.364  13.522
55296SOL    HW267786   1.014  12.428  13.466
55297SOL     OW67787  10.706   8.920   8.505
55297SOL    HW167788  10.658   8.948   8.427
55297SOL    HW267789  10.652   8.850   8.542
55298SOL     OW67790   2.757   7.133   0.497
55298SOL    HW167791   2.742   7.165   0.586
55298SOL    HW267792   2.832   7.183   0.465
55299SOL     OW67793  10.677   4.343   3.248
55299SOL    HW167794  10.599   4.363   3.299
55299SOL    HW267795  10.661   4.255   3.213
55300SOL     OW67796   5.356  14.290   9.257
55300SOL    HW167797   5.450  14.282   9.241
55300SOL    HW267798   5.316  14.268   9.172
55301SOL     OW67799   7.311   8.558   3.446
55301SOL    HW167800   7.217   8.560   3.431
55301SOL    HW267801   7.349   8.582   3.362
55302SOL     OW67802   1.171   1.774   5.949
55302SOL    HW167803   1.147   1.689   5.912
55302SOL    HW267804   1.108   1.788   6.020
55303SOL     OW67805   0.623   6.788   6.078
55303SOL    HW167806   0.664   6.719   6.130
55303SOL    HW267807   0.534   6.756   6.061
55304SOL     OW67808  11.522   5.065   4.873
55304SOL    HW167809  11.529   5.063   4.778
55304SOL    HW267810  11.580   5.137   4.899
55305SOL     OW67811  13.389   2.145  10.600
55305SOL    HW167812  13.340   2.221  10.568
55305SOL    HW267813  13.410   2.166  10.691
55306SOL     OW67814   2.915   5.230  13.925
55306SOL    HW167815   2.876   5.169  13.988
55306SOL    HW267816   2.972   5.177  13.871
55307SOL     OW67817  11.482  10.086   1.374
55307SOL    HW167818  11.540  10.011   1.363
55307SOL    HW267819  11.541  10.162   1.380
55308SOL     OW67820  10.461   2.537   5.650
55308SOL    HW167821  10.470   2.520   5.744
55308SOL    HW267822  10.538   2.496   5.611
55309SOL     OW67823   2.170   5.593  11.658
55309SOL    HW167824   2.219   5.513  11.638
55309SOL    HW267825   2.079   5.572  11.635
55310SOL     OW67826   5.054   0.753  11.835
55310SOL    HW167827   5.095   0.704  11.764
55310SOL    HW267828   5.057   0.694  11.910
55311SOL     OW67829   2.081   6.251  14.432
55311SOL    HW167830   2.133   6.173  14.412
55311SOL    HW267831   2.069   6.293  14.347
55312SOL     OW67832   7.141  11.331   0.692
55312SOL    HW167833   7.065  11.361   0.742
55312SOL    HW267834   7.207  11.310   0.758
55313SOL     OW67835   5.026  14.558   1.789
55313SOL    HW167836   4.933  14.539   1.775
55313SOL    HW267837   5.059  14.484   1.840
55314SOL     OW67838   7.199   1.778  12.460
55314SOL    HW167839   7.231   1.781  12.551
55314SOL    HW267840   7.262   1.829  12.411
55315SOL     OW67841   8.594   1.708   9.522
55315SOL    HW167842   8.528   1.746   9.463
55315SOL    HW267843   8.545   1.644   9.575
55316SOL     OW67844  14.099  10.698   7.706
55316SOL    HW167845  14.015  10.678   7.664
55316SOL    HW267846  14.162  10.641   7.663
55317SOL     OW67847  10.070   9.885   8.540
55317SOL    HW167848  10.150   9.842   8.512
55317SOL    HW267849  10.000   9.838   8.494
55318SOL     OW67850  10.903  13.860  10.414
55318SOL    HW167851  10.942  13.832  10.497
55318SOL    HW267852  10.938  13.798  10.349
55319SOL     OW67853  10.459   4.344   6.691
55319SOL    HW167854  10.383   4.390   6.655
55319SOL    HW267855  10.456   4.258   6.651
55320SOL     OW67856   4.147   5.321   8.298
55320SOL    HW167857   4.089   5.264   8.349
55320SOL    HW267858   4.135   5.408   8.337
55321SOL     OW67859   9.327   3.954   8.278
55321SOL    HW167860   9.335   3.945   8.373
55321SOL    HW267861   9.233   3.952   8.262
55322SOL     OW67862   5.184   0.809  12.465
55322SOL    HW167863   5.263   0.826  12.414
55322SOL    HW267864   5.168   0.715  12.453
55323SOL     OW67865  10.531   8.395  12.371
55323SOL    HW167866  10.489   8.481  12.364
55323SOL    HW267867  10.516   8.354  12.285
55324SOL     OW67868   4.133   0.872   2.886
55324SOL    HW167869   4.228   0.881   2.876
55324SOL    HW267870   4.105   0.822   2.810
55325SOL     OW67871   7.279   0.709   7.088
55325SOL    HW167872   7.231   0.769   7.032
55325SOL    HW267873   7.269   0.745   7.176
55326SOL     OW67874   5.660   2.825   6.475
55326SOL    HW167875   5.700   2.739   6.457
55326SOL    HW267876   5.568   2.814   6.451
55327SOL     OW67877   4.096   2.127   5.226
55327SOL    HW167878   4.134   2.205   5.184
55327SOL    HW267879   4.151   2.055   5.196
55328SOL     OW67880  14.555   0.181   7.103
55328SOL    HW167881  14.530   0.230   7.181
55328SOL    HW267882  14.643   0.212   7.082
55329SOL     OW67883  10.799   2.011   2.748
55329SOL    HW167884  10.749   1.932   2.769
55329SOL    HW267885  10.884   1.979   2.718
55330SOL     OW67886   2.859  14.320   3.861
55330SOL    HW167887   2.804  14.282   3.792
55330SOL    HW267888   2.948  14.294   3.837
55331SOL     OW67889   5.953   7.430   0.560
55331SOL    HW167890   5.972   7.486   0.635
55331SOL    HW267891   6.038   7.409   0.522
55332SOL     OW67892   6.505   8.219  10.962
55332SOL    HW167893   6.454   8.255  10.889
55332SOL    HW267894   6.439   8.191  11.026
55333SOL     OW67895   8.086   9.202   1.750
55333SOL    HW167896   8.023   9.204   1.822
55333SOL    HW267897   8.125   9.115   1.756
55334SOL     OW67898   7.550   2.403   1.885
55334SOL    HW167899   7.521   2.398   1.977
55334SOL    HW267900   7.488   2.463   1.844
55335SOL     OW67901   8.161   2.475   7.531
55335SOL    HW167902   8.088   2.450   7.474
55335SOL    HW267903   8.194   2.391   7.565
55336SOL     OW67904   8.942   2.185   9.842
55336SOL    HW167905   8.888   2.192   9.921
55336SOL    HW267906   9.032   2.191   9.875
55337SOL     OW67907   1.316   0.259   8.319
55337SOL    HW167908   1.366   0.251   8.400
55337SOL    HW267909   1.225   0.255   8.347
55338SOL     OW67910   2.815   8.218   9.990
55338SOL    HW167911   2.862   8.296   9.958
55338SOL    HW267912   2.752   8.252  10.054
55339SOL     OW67913   1.288   7.646   9.891
55339SOL    HW167914   1.292   7.551   9.883
55339SOL    HW267915   1.292   7.663   9.985
55340SOL     OW67916   2.080   2.705  13.951
55340SOL    HW167917   1.991   2.702  13.986
55340SOL    HW267918   2.136   2.718  14.028
55341SOL     OW67919   9.840   5.755   2.187
55341SOL    HW167920   9.750   5.725   2.199
55341SOL    HW267921   9.831   5.845   2.155
55342SOL     OW67922   5.744   6.394   6.162
55342SOL    HW167923   5.815   6.349   6.208
55342SOL    HW267924   5.665   6.370   6.211
55343SOL     OW67925  10.465   1.145   8.434
55343SOL    HW167926  10.555   1.147   8.468
55343SOL    HW267927  10.469   1.196   8.353
55344SOL     OW67928  12.203   5.197   9.302
55344SOL    HW167929  12.294   5.221   9.285
55344SOL    HW267930  12.172   5.263   9.364
55345SOL     OW67931   8.051  11.879   7.868
55345SOL    HW167932   8.097  11.833   7.938
55345SOL    HW267933   8.102  11.958   7.852
55346SOL     OW67934  11.475   1.597   2.827
55346SOL    HW167935  11.399   1.650   2.850
55346SOL    HW267936  11.530   1.599   2.906
55347SOL     OW67937   4.560  13.029   2.510
55347SOL    HW167938   4.655  13.031   2.497
55347SOL    HW267939   4.539  13.116   2.545
55348SOL     OW67940   4.569   0.631   0.601
55348SOL    HW167941   4.618   0.549   0.608
55348SOL    HW267942   4.524   0.640   0.685
55349SOL     OW67943   0.623   2.445   4.224
55349SOL    HW167944   0.582   2.391   4.156
55349SOL    HW267945   0.679   2.506   4.175
55350SOL     OW67946  11.182   4.594   7.740
55350SOL    HW167947  11.268   4.598   7.782
55350SOL    HW267948  11.197   4.547   7.658
55351SOL     OW67949   1.185   5.460   9.379
55351SOL    HW167950   1.180   5.555   9.369
55351SOL    HW267951   1.210   5.447   9.471
55352SOL     OW67952   0.808   4.394   4.910
55352SOL    HW167953   0.885   4.448   4.896
55352SOL    HW267954   0.832   4.336   4.983
55353SOL     OW67955   5.284   6.721   9.894
55353SOL    HW167956   5.197   6.753   9.920
55353SOL    HW267957   5.332   6.801   9.870
55354SOL     OW67958   1.031   1.681   6.571
55354SOL    HW167959   1.000   1.624   6.642
55354SOL    HW267960   1.080   1.624   6.513
55355SOL     OW67961   4.889   0.362   3.415
55355SOL    HW167962   4.885   0.281   3.465
55355SOL    HW267963   4.956   0.414   3.460
55356SOL     OW67964   2.796   3.370   3.876
55356SOL    HW167965   2.798   3.414   3.791
55356SOL    HW267966   2.733   3.298   3.865
55357SOL     OW67967   5.446   6.805  11.495
55357SOL    HW167968   5.524   6.855  11.469
55357SOL    HW267969   5.480   6.735  11.550
55358SOL     OW67970   5.528   4.125   3.305
55358SOL    HW167971   5.501   4.212   3.275
55358SOL    HW267972   5.445   4.080   3.323
55359SOL     OW67973  14.405   3.897   7.069
55359SOL    HW167974  14.348   3.969   7.096
55359SOL    HW267975  14.374   3.874   6.981
55360SOL     OW67976  12.007  10.571  11.117
55360SOL    HW167977  11.979  10.526  11.197
55360SOL    HW267978  12.092  10.608  11.139
55361SOL     OW67979   3.553   7.857  10.442
55361SOL    HW167980   3.508   7.848  10.358
55361SOL    HW267981   3.492   7.821  10.506
55362SOL     OW67982  14.104   5.012   7.482
55362SOL    HW167983  14.021   5.053   7.507
55362SOL    HW267984  14.089   4.918   7.492
55363SOL     OW67985   4.180  10.301  10.107
55363SOL    HW167986   4.137  10.242  10.170
55363SOL    HW267987   4.273  10.295  10.130
55364SOL     OW67988   5.140   7.573   8.903
55364SOL    HW167989   5.168   7.619   8.982
55364SOL    HW267990   5.106   7.489   8.935
55365SOL     OW67991   2.156   7.449   4.626
55365SOL    HW167992   2.220   7.445   4.555
55365SOL    HW267993   2.207   7.436   4.706
55366SOL     OW67994   8.521   2.100  12.244
55366SOL    HW167995   8.480   2.014  12.252
55366SOL    HW267996   8.458   2.161  12.284
55367SOL     OW67997   2.470  14.228  11.875
55367SOL    HW167998   2.514  14.313  11.875
55367SOL    HW267999   2.528  14.170  11.827
55368SOL     OW68000   3.849  14.074   4.756
55368SOL    HW168001   3.943  14.067   4.740
55368SOL    HW268002   3.842  14.096   4.849
55369SOL     OW68003  14.761   5.256   5.625
55369SOL    HW168004  14.819   5.240   5.700
55369SOL    HW268005  14.794   5.199   5.556
55370SOL     OW68006   4.227   9.207  12.459
55370SOL    HW168007   4.227   9.112  12.474
55370SOL    HW268008   4.230   9.217  12.364
55371SOL     OW68009   9.930   0.569  14.747
55371SOL    HW168010   9.842   0.600  14.768
55371SOL    HW268011   9.987   0.644  14.766
55372SOL     OW68012   9.822   6.931  13.800
55372SOL    HW168013   9.828   6.935  13.705
55372SOL    HW268014   9.749   6.988  13.823
55373SOL     OW68015   1.185   7.065   8.417
55373SOL    HW168016   1.248   7.025   8.357
55373SOL    HW268017   1.176   7.155   8.387
55374SOL     OW68018   8.169  13.738   0.475
55374SOL    HW168019   8.140  13.656   0.436
55374SOL    HW268020   8.264  13.734   0.473
55375SOL     OW68021  12.222   8.953   1.813
55375SOL    HW168022  12.299   9.006   1.835
55375SOL    HW268023  12.161   9.014   1.772
55376SOL     OW68024  14.387  14.261   8.345
55376SOL    HW168025  14.327  14.244   8.418
55376SOL    HW268026  14.413  14.353   8.357
55377SOL     OW68027   4.629   1.811   5.566
55377SOL    HW168028   4.698   1.780   5.625
55377SOL    HW268029   4.554   1.754   5.585
55378SOL     OW68030   1.484   8.261   5.659
55378SOL    HW168031   1.461   8.313   5.582
55378SOL    HW268032   1.402   8.217   5.683
55379SOL     OW68033   8.128   9.125   9.235
55379SOL    HW168034   8.046   9.144   9.280
55379SOL    HW268035   8.197   9.155   9.295
55380SOL     OW68036   8.258   1.461  11.411
55380SOL    HW168037   8.284   1.545  11.449
55380SOL    HW268038   8.330   1.437  11.353
55381SOL     OW68039  13.136  11.220   6.025
55381SOL    HW168040  13.155  11.268   6.106
55381SOL    HW268041  13.203  11.152   6.021
55382SOL     OW68042  11.426   6.077  10.203
55382SOL    HW168043  11.334   6.049  10.207
55382SOL    HW268044  11.476   5.995  10.207
55383SOL     OW68045  12.729  10.629  10.691
55383SOL    HW168046  12.749  10.536  10.683
55383SOL    HW268047  12.763  10.668  10.611
55384SOL     OW68048  10.575   6.064   2.526
55384SOL    HW168049  10.517   6.085   2.453
55384SOL    HW268050  10.625   5.988   2.495
55385SOL     OW68051   2.605   6.178   6.702
55385SOL    HW168052   2.674   6.206   6.762
55385SOL    HW268053   2.535   6.242   6.713
55386SOL     OW68054   5.389  12.980   8.691
55386SOL    HW168055   5.445  12.974   8.768
55386SOL    HW268056   5.414  12.905   8.637
55387SOL     OW68057  14.712  10.286  13.106
55387SOL    HW168058  14.674  10.356  13.053
55387SOL    HW268059  14.699  10.315  13.196
55388SOL     OW68060   9.862   9.725   7.815
55388SOL    HW168061   9.920   9.716   7.739
55388SOL    HW268062   9.919   9.749   7.887
55389SOL     OW68063   3.121   9.174   1.585
55389SOL    HW168064   3.028   9.173   1.560
55389SOL    HW268065   3.164   9.224   1.515
55390SOL     OW68066   2.944   1.752   2.120
55390SOL    HW168067   2.859   1.708   2.132
55390SOL    HW268068   2.976   1.766   2.209
55391SOL     OW68069   5.104   8.975   4.182
55391SOL    HW168070   5.042   8.903   4.193
55391SOL    HW268071   5.187   8.940   4.212
55392SOL     OW68072   4.292  14.114  11.572
55392SOL    HW168073   4.206  14.138  11.608
55392SOL    HW268074   4.354  14.135  11.642
55393SOL     OW68075   2.169   2.722   4.025
55393SOL    HW168076   2.247   2.775   4.009
55393SOL    HW268077   2.099   2.766   3.976
55394SOL     OW68078   1.197   9.809   9.355
55394SOL    HW168079   1.196   9.807   9.260
55394SOL    HW268080   1.279   9.853   9.378
55395SOL     OW68081  11.692   9.902  14.132
55395SOL    HW168082  11.734   9.948  14.060
55395SOL    HW268083  11.611   9.867  14.095
55396SOL     OW68084  10.437  13.561  11.747
55396SOL    HW168085  10.441  13.466  11.736
55396SOL    HW268086  10.490  13.595  11.675
55397SOL     OW68087   4.521   8.333  11.129
55397SOL    HW168088   4.500   8.416  11.172
55397SOL    HW268089   4.614   8.340  11.108
55398SOL     OW68090  10.716   5.294   6.484
55398SOL    HW168091  10.646   5.248   6.529
55398SOL    HW268092  10.794   5.275   6.537
55399SOL     OW68093  12.296   7.979  11.271
55399SOL    HW168094  12.280   7.887  11.250
55399SOL    HW268095  12.210   8.016  11.286
55400SOL     OW68096   4.745   3.750  10.862
55400SOL    HW168097   4.811   3.701  10.912
55400SOL    HW268098   4.667   3.694  10.863
55401SOL     OW68099   1.603   5.124   3.823
55401SOL    HW168100   1.564   5.067   3.890
55401SOL    HW268101   1.529   5.153   3.771
55402SOL     OW68102  12.886  12.832   2.503
55402SOL    HW168103  12.883  12.914   2.552
55402SOL    HW268104  12.979  12.813   2.492
55403SOL     OW68105   0.959   9.450  12.810
55403SOL    HW168106   0.928   9.495  12.888
55403SOL    HW268107   0.882   9.403  12.777
55404SOL     OW68108  13.407   0.235   3.894
55404SOL    HW168109  13.459   0.166   3.935
55404SOL    HW268110  13.358   0.274   3.966
55405SOL     OW68111  13.532  10.191  12.549
55405SOL    HW168112  13.440  10.166  12.560
55405SOL    HW268113  13.580  10.131  12.607
55406SOL     OW68114   5.400   5.904  12.750
55406SOL    HW168115   5.368   5.959  12.822
55406SOL    HW268116   5.402   5.963  12.674
55407SOL     OW68117   6.746   8.859   2.292
55407SOL    HW168118   6.748   8.882   2.199
55407SOL    HW268119   6.813   8.916   2.331
55408SOL     OW68120   7.627   9.852  11.194
55408SOL    HW168121   7.572   9.776  11.216
55408SOL    HW268122   7.565   9.917  11.162
55409SOL     OW68123   4.977   6.819   4.843
55409SOL    HW168124   5.009   6.742   4.890
55409SOL    HW268125   4.885   6.827   4.870
55410SOL     OW68126  12.037  11.019   1.440
55410SOL    HW168127  12.072  10.931   1.427
55410SOL    HW268128  12.058  11.065   1.358
55411SOL     OW68129   1.422   6.665   3.259
55411SOL    HW168130   1.397   6.751   3.227
55411SOL    HW268131   1.511   6.652   3.228
55412SOL     OW68132   2.586  12.295   4.403
55412SOL    HW168133   2.632  12.211   4.401
55412SOL    HW268134   2.498  12.272   4.434
55413SOL     OW68135   7.351  12.683   1.754
55413SOL    HW168136   7.385  12.769   1.730
55413SOL    HW268137   7.429  12.627   1.755
55414SOL     OW68138   1.909   0.278  11.701
55414SOL    HW168139   1.976   0.222  11.662
55414SOL    HW268140   1.826   0.241  11.672
55415SOL     OW68141  14.613   6.852  10.821
55415SOL    HW168142  14.591   6.781  10.760
55415SOL    HW268143  14.676   6.814  10.882
55416SOL     OW68144   7.795   5.913  11.070
55416SOL    HW168145   7.819   5.916  10.977
55416SOL    HW268146   7.851   5.845  11.107
55417SOL     OW68147   5.620   1.387  10.953
55417SOL    HW168148   5.562   1.312  10.968
55417SOL    HW268149   5.683   1.356  10.888
55418SOL     OW68150  14.498   6.462  10.205
55418SOL    HW168151  14.458   6.468  10.292
55418SOL    HW268152  14.477   6.374  10.175
55419SOL     OW68153   3.975   3.329   6.006
55419SOL    HW168154   3.927   3.300   5.929
55419SOL    HW268155   3.975   3.424   6.000
55420SOL     OW68156   3.398  11.544   6.785
55420SOL    HW168157   3.455  11.527   6.860
55420SOL    HW268158   3.458  11.542   6.710
55421SOL     OW68159  13.174   9.116   3.485
55421SOL    HW168160  13.124   9.047   3.442
55421SOL    HW268161  13.257   9.074   3.510
55422SOL     OW68162   6.683   8.309  12.743
55422SOL    HW168163   6.717   8.280  12.828
55422SOL    HW268164   6.752   8.366  12.709
55423SOL     OW68165  14.128  14.838  11.695
55423SOL    HW168166  14.106  14.859  11.604
55423SOL    HW268167  14.124  14.742  11.698
55424SOL     OW68168   7.436   3.443   8.624
55424SOL    HW168169   7.364   3.393   8.662
55424SOL    HW268170   7.501   3.449   8.694
55425SOL     OW68171  10.755   5.909   4.495
55425SOL    HW168172  10.756   5.949   4.408
55425SOL    HW268173  10.686   5.843   4.490
55426SOL     OW68174   6.642  11.787   7.517
55426SOL    HW168175   6.606  11.733   7.588
55426SOL    HW268176   6.703  11.729   7.471
55427SOL     OW68177   2.901  12.665   9.930
55427SOL    HW168178   2.914  12.737   9.992
55427SOL    HW268179   2.986  12.654   9.887
55428SOL     OW68180   6.071   7.322  13.908
55428SOL    HW168181   6.096   7.331  14.000
55428SOL    HW268182   6.149   7.284  13.866
55429SOL     OW68183   8.167   6.414  11.745
55429SOL    HW168184   8.242   6.431  11.688
55429SOL    HW268185   8.140   6.501  11.775
55430SOL     OW68186  12.776  10.737  10.169
55430SOL    HW168187  12.771  10.780  10.083
55430SOL    HW268188  12.818  10.653  10.151
55431SOL     OW68189   8.350  11.837   2.707
55431SOL    HW168190   8.432  11.847   2.755
55431SOL    HW268191   8.373  11.783   2.631
55432SOL     OW68192   8.106   5.740   3.136
55432SOL    HW168193   8.067   5.658   3.104
55432SOL    HW268194   8.080   5.805   3.071
55433SOL     OW68195   0.729   5.448   2.163
55433SOL    HW168196   0.684   5.464   2.246
55433SOL    HW268197   0.665   5.471   2.095
55434SOL     OW68198  10.187   3.663   1.638
55434SOL    HW168199  10.143   3.600   1.581
55434SOL    HW268200  10.244   3.712   1.579
55435SOL     OW68201   3.446   6.493   5.561
55435SOL    HW168202   3.525   6.546   5.573
55435SOL    HW268203   3.454   6.422   5.625
55436SOL     OW68204   5.695   8.137   4.791
55436SOL    HW168205   5.766   8.150   4.853
55436SOL    HW268206   5.714   8.198   4.720
55437SOL     OW68207   2.993   6.330   6.097
55437SOL    HW168208   2.989   6.236   6.117
55437SOL    HW268209   2.935   6.371   6.161
55438SOL     OW68210   0.424   0.812  13.983
55438SOL    HW168211   0.419   0.780  13.893
55438SOL    HW268212   0.429   0.732  14.036
55439SOL     OW68213   6.980   5.931  14.710
55439SOL    HW168214   6.941   6.019  14.712
55439SOL    HW268215   7.066   5.943  14.751
55440SOL     OW68216  14.458  11.485   4.521
55440SOL    HW168217  14.484  11.397   4.496
55440SOL    HW268218  14.409  11.519   4.446
55441SOL     OW68219   2.705   5.684   9.646
55441SOL    HW168220   2.781   5.735   9.616
55441SOL    HW268221   2.692   5.618   9.578
55442SOL     OW68222   0.451  12.048  11.919
55442SOL    HW168223   0.442  12.114  11.988
55442SOL    HW268224   0.533  12.003  11.940
55443SOL     OW68225   7.721   0.938   8.550
55443SOL    HW168226   7.770   0.955   8.631
55443SOL    HW268227   7.787   0.915   8.486
55444SOL     OW68228  14.809   3.936   1.710
55444SOL    HW168229  14.719   3.927   1.742
55444SOL    HW268230  14.801   3.939   1.615
55445SOL     OW68231  14.840  11.246  12.340
55445SOL    HW168232  14.863  11.167  12.389
55445SOL    HW268233   0.045  11.295  12.334
55446SOL     OW68234   2.112   3.302   0.324
55446SOL    HW168235   2.136   3.245   0.397
55446SOL    HW268236   2.096   3.242   0.251
55447SOL     OW68237  12.338   1.393   4.742
55447SOL    HW168238  12.266   1.446   4.774
55447SOL    HW268239  12.312   1.368   4.653
55448SOL     OW68240  10.647   0.216   8.131
55448SOL    HW168241  10.739   0.234   8.110
55448SOL    HW268242  10.625   0.280   8.199
55449SOL     OW68243   7.246  10.009   5.219
55449SOL    HW168244   7.263  10.103   5.215
55449SOL    HW268245   7.244   9.989   5.313
55450SOL     OW68246   7.188   2.441   5.224
55450SOL    HW168247   7.157   2.352   5.204
55450SOL    HW268248   7.151   2.461   5.310
55451SOL     OW68249  13.937   5.125   8.193
55451SOL    HW168250  13.994   5.179   8.138
55451SOL    HW268251  13.855   5.118   8.143
55452SOL     OW68252   5.503   0.935   1.437
55452SOL    HW168253   5.490   0.982   1.520
55452SOL    HW268254   5.559   0.993   1.385
55453SOL     OW68255   3.223   3.097   9.021
55453SOL    HW168256   3.259   3.024   9.071
55453SOL    HW268257   3.283   3.107   8.947
55454SOL     OW68258   1.516   6.710   9.714
55454SOL    HW168259   1.464   6.787   9.690
55454SOL    HW268260   1.601   6.725   9.673
55455SOL     OW68261  14.702   4.991  13.767
55455SOL    HW168262  14.699   4.903  13.728
55455SOL    HW268263  14.794   5.016  13.762
55456SOL     OW68264  11.619   8.453   4.284
55456SOL    HW168265  11.705   8.462   4.327
55456SOL    HW268266  11.624   8.512   4.208
55457SOL     OW68267  11.359  13.356   9.322
55457SOL    HW168268  11.345  13.450   9.338
55457SOL    HW268269  11.444  13.352   9.278
55458SOL     OW68270   7.360   1.201   5.820
55458SOL    HW168271   7.324   1.115   5.842
55458SOL    HW268272   7.297   1.238   5.758
55459SOL     OW68273  12.692  10.701  13.144
55459SOL    HW168274  12.773  10.657  13.169
55459SOL    HW268275  12.697  10.787  13.186
55460SOL     OW68276   9.506   7.474  13.951
55460SOL    HW168277   9.563   7.539  13.993
55460SOL    HW268278   9.426   7.475  14.004
55461SOL     OW68279  12.524   8.043   7.966
55461SOL    HW168280  12.498   7.992   8.042
55461SOL    HW268281  12.581   7.984   7.916
55462SOL     OW68282  12.546  12.892   6.384
55462SOL    HW168283  12.459  12.889   6.344
55462SOL    HW268284  12.543  12.969   6.442
55463SOL     OW68285  12.063   5.019   3.569
55463SOL    HW168286  12.019   5.013   3.484
55463SOL    HW268287  12.053   4.931   3.607
55464SOL     OW68288   2.497   2.380   2.229
55464SOL    HW168289   2.479   2.294   2.268
55464SOL    HW268290   2.591   2.378   2.211
55465SOL     OW68291   4.761   8.432   8.731
55465SOL    HW168292   4.668   8.408   8.741
55465SOL    HW268293   4.774   8.502   8.794
55466SOL     OW68294  13.883   1.234  11.168
55466SOL    HW168295  13.823   1.289  11.117
55466SOL    HW268296  13.825   1.174  11.215
55467SOL     OW68297  10.865  12.538  14.582
55467SOL    HW168298  10.960  12.548  14.588
55467SOL    HW268299  10.848  12.450  14.615
55468SOL     OW68300   0.119   3.307  10.176
55468SOL    HW168301   0.125   3.265  10.262
55468SOL    HW268302   0.194   3.367  10.174
55469SOL     OW68303   3.613   8.294   8.856
55469SOL    HW168304   3.663   8.349   8.917
55469SOL    HW268305   3.651   8.315   8.770
55470SOL     OW68306  12.337  14.716   0.287
55470SOL    HW168307  12.412  14.725   0.228
55470SOL    HW268308  12.339  14.796   0.340
55471SOL     OW68309   8.054  14.133   0.891
55471SOL    HW168310   8.098  14.049   0.881
55471SOL    HW268311   8.002  14.124   0.971
55472SOL     OW68312  11.327   3.493   9.691
55472SOL    HW168313  11.262   3.514   9.758
55472SOL    HW268314  11.392   3.562   9.698
55473SOL     OW68315   3.299  12.041   3.313
55473SOL    HW168316   3.314  11.947   3.325
55473SOL    HW268317   3.204  12.048   3.302
55474SOL     OW68318  12.431  12.664  14.417
55474SOL    HW168319  12.405  12.742  14.368
55474SOL    HW268320  12.358  12.603  14.407
55475SOL     OW68321   7.674  10.850   7.636
55475SOL    HW168322   7.690  10.939   7.668
55475SOL    HW268323   7.585  10.852   7.601
55476SOL     OW68324   6.897   1.585   3.483
55476SOL    HW168325   6.883   1.592   3.577
55476SOL    HW268326   6.839   1.652   3.445
55477SOL     OW68327   8.289   7.394   1.431
55477SOL    HW168328   8.198   7.391   1.460
55477SOL    HW268329   8.293   7.331   1.359
55478SOL     OW68330   4.033  13.153   0.553
55478SOL    HW168331   3.988  13.214   0.611
55478SOL    HW268332   3.977  13.149   0.475
55479SOL     OW68333   9.719   4.425  11.921
55479SOL    HW168334   9.700   4.485  11.849
55479SOL    HW268335   9.642   4.430  11.978
55480SOL     OW68336   2.340  12.937   0.059
55480SOL    HW168337   2.364  12.960  14.847
55480SOL    HW268338   2.340  13.020   0.106
55481SOL     OW68339  14.843   6.750  13.144
55481SOL    HW168340  14.774   6.753  13.210
55481SOL    HW268341   0.037   6.799  13.182
55482SOL     OW68342  12.036   0.347  11.492
55482SOL    HW168343  12.049   0.353  11.587
55482SOL    HW268344  12.002   0.258  11.479
55483SOL     OW68345   8.709   7.449   1.592
55483SOL    HW168346   8.736   7.537   1.565
55483SOL    HW268347   8.791   7.407   1.621
55484SOL     OW68348   9.956   4.910   0.831
55484SOL    HW168349   9.977   4.972   0.761
55484SOL    HW268350   9.865   4.930   0.854
55485SOL     OW68351   3.139  12.318   6.354
55485SOL    HW168352   3.221  12.282   6.387
55485SOL    HW268353   3.071  12.265   6.396
55486SOL     OW68354   9.404   1.301   4.810
55486SOL    HW168355   9.442   1.364   4.870
55486SOL    HW268356   9.477   1.245   4.784
55487SOL     OW68357   6.284   7.692   7.753
55487SOL    HW168358   6.323   7.643   7.681
55487SOL    HW268359   6.247   7.770   7.712
55488SOL     OW68360   4.808   8.954   7.631
55488SOL    HW168361   4.813   8.958   7.727
55488SOL    HW268362   4.757   8.875   7.614
55489SOL     OW68363  12.220   3.923   1.855
55489SOL    HW168364  12.233   3.935   1.761
55489SOL    HW268365  12.308   3.925   1.892
55490SOL     OW68366   3.703  10.697  11.232
55490SOL    HW168367   3.660  10.766  11.182
55490SOL    HW268368   3.645  10.682  11.307
55491SOL     OW68369  10.621   3.029   1.755
55491SOL    HW168370  10.634   2.934   1.749
55491SOL    HW268371  10.526   3.040   1.747
55492SOL     OW68372  11.224   7.414   7.270
55492SOL    HW168373  11.169   7.472   7.218
55492SOL    HW268374  11.295   7.471   7.301
55493SOL     OW68375   1.751   1.014   6.842
55493SOL    HW168376   1.782   0.924   6.843
55493SOL    HW268377   1.660   1.009   6.872
55494SOL     OW68378   1.591  10.226  13.137
55494SOL    HW168379   1.554  10.181  13.213
55494SOL    HW268380   1.685  10.208  13.141
55495SOL     OW68381  14.001   4.246   4.258
55495SOL    HW168382  14.082   4.204   4.287
55495SOL    HW268383  14.013   4.339   4.278
55496SOL     OW68384   5.616   8.425   2.417
55496SOL    HW168385   5.674   8.474   2.359
55496SOL    HW268386   5.577   8.359   2.361
55497SOL     OW68387   6.090   7.343   7.526
55497SOL    HW168388   6.047   7.360   7.442
55497SOL    HW268389   6.161   7.283   7.504
55498SOL     OW68390  13.268   7.460   3.648
55498SOL    HW168391  13.210   7.511   3.704
55498SOL    HW268392  13.225   7.376   3.638
55499SOL     OW68393  13.610  14.311  12.467
55499SOL    HW168394  13.661  14.230  12.463
55499SOL    HW268395  13.535  14.295  12.410
55500SOL     OW68396   9.275   6.420  14.238
55500SOL    HW168397   9.323   6.359  14.294
55500SOL    HW268398   9.322   6.416  14.154
55501SOL     OW68399   2.843  10.193   9.110
55501SOL    HW168400   2.931  10.197   9.073
55501SOL    HW268401   2.793  10.139   9.049
55502SOL     OW68402   9.090   8.444   7.205
55502SOL    HW168403   9.020   8.490   7.158
55502SOL    HW268404   9.069   8.457   7.297
55503SOL     OW68405   5.477   2.734  12.460
55503SOL    HW168406   5.495   2.705  12.549
55503SOL    HW268407   5.406   2.797  12.469
55504SOL     OW68408   8.937   8.604  10.083
55504SOL    HW168409   9.032   8.604  10.071
55504SOL    HW268410   8.905   8.668  10.019
55505SOL     OW68411   4.341   9.658   2.643
55505SOL    HW168412   4.302   9.618   2.721
55505SOL    HW268413   4.266   9.678   2.587
55506SOL     OW68414   4.434  11.696  11.826
55506SOL    HW168415   4.418  11.601  11.827
55506SOL    HW268416   4.424  11.721  11.734
55507SOL     OW68417   2.413   2.662   1.487
55507SOL    HW168418   2.415   2.752   1.455
55507SOL    HW268419   2.321   2.636   1.479
55508SOL     OW68420   0.161   4.379   5.908
55508SOL    HW168421   0.226   4.310   5.896
55508SOL    HW268422   0.160   4.396   6.002
55509SOL     OW68423  11.742  13.886  12.466
55509SOL    HW168424  11.711  13.823  12.531
55509SOL    HW268425  11.685  13.872  12.390
55510SOL     OW68426  10.107   9.434   7.815
55510SOL    HW168427  10.051   9.424   7.892
55510SOL    HW268428  10.179   9.373   7.830
55511SOL     OW68429  14.613  13.926  14.219
55511SOL    HW168430  14.670  13.854  14.245
55511SOL    HW268431  14.547  13.931  14.288
55512SOL     OW68432  13.674   3.824   2.130
55512SOL    HW168433  13.634   3.741   2.104
55512SOL    HW268434  13.622   3.853   2.206
55513SOL     OW68435  11.731   7.335   5.039
55513SOL    HW168436  11.733   7.358   4.946
55513SOL    HW268437  11.725   7.240   5.039
55514SOL     OW68438   0.122   3.908   3.165
55514SOL    HW168439   0.213   3.886   3.144
55514SOL    HW268440   0.071   3.870   3.094
55515SOL     OW68441   1.326   2.550   8.123
55515SOL    HW168442   1.390   2.620   8.138
55515SOL    HW268443   1.324   2.501   8.205
55516SOL     OW68444   7.550   0.053   6.866
55516SOL    HW168445   7.618   0.107   6.826
55516SOL    HW268446   7.578   0.040   6.956
55517SOL     OW68447  10.845  13.970   5.178
55517SOL    HW168448  10.912  13.970   5.246
55517SOL    HW268449  10.808  14.059   5.182
55518SOL     OW68450   4.241   0.596  10.524
55518SOL    HW168451   4.243   0.654  10.601
55518SOL    HW268452   4.241   0.508  10.561
55519SOL     OW68453  11.649   6.306  12.839
55519SOL    HW168454  11.587   6.355  12.785
55519SOL    HW268455  11.621   6.323  12.929
55520SOL     OW68456   2.037  13.320  14.869
55520SOL    HW168457   2.054  13.286   0.079
55520SOL    HW268458   1.961  13.377   0.003
55521SOL     OW68459  12.739   6.086   9.493
55521SOL    HW168460  12.737   6.064   9.586
55521SOL    HW268461  12.825   6.127   9.480
55522SOL     OW68462   2.485   2.050  11.810
55522SOL    HW168463   2.499   2.138  11.844
55522SOL    HW268464   2.541   2.045  11.732
55523SOL     OW68465  14.389  14.511   5.776
55523SOL    HW168466  14.483  14.493   5.767
55523SOL    HW268467  14.381  14.551   5.862
55524SOL     OW68468   8.569   9.683   5.267
55524SOL    HW168469   8.504   9.738   5.222
55524SOL    HW268470   8.524   9.600   5.281
55525SOL     OW68471   3.811   8.924   2.525
55525SOL    HW168472   3.767   8.854   2.574
55525SOL    HW268473   3.753   8.942   2.451
55526SOL     OW68474   2.136   8.709  12.747
55526SOL    HW168475   2.129   8.766  12.670
55526SOL    HW268476   2.073   8.745  12.810
55527SOL     OW68477   3.407  10.707   4.568
55527SOL    HW168478   3.446  10.770   4.508
55527SOL    HW268479   3.425  10.621   4.529
55528SOL     OW68480  12.533  13.062   5.219
55528SOL    HW168481  12.607  13.102   5.265
55528SOL    HW268482  12.554  13.071   5.126
55529SOL     OW68483  11.533   6.217   5.777
55529SOL    HW168484  11.562   6.281   5.712
55529SOL    HW268485  11.449   6.250   5.807
55530SOL     OW68486   7.826  10.385  10.560
55530SOL    HW168487   7.808  10.475  10.586
55530SOL    HW268488   7.764  10.332  10.612
55531SOL     OW68489   0.611  14.747   3.010
55531SOL    HW168490   0.612  14.837   3.041
55531SOL    HW268491   0.528  14.738   2.963
55532SOL     OW68492   2.903   0.124   5.853
55532SOL    HW168493   2.884   0.155   5.765
55532SOL    HW268494   2.964   0.051   5.840
55533SOL     OW68495   1.692  10.683   9.094
55533SOL    HW168496   1.752  10.642   9.032
55533SOL    HW268497   1.712  10.643   9.178
55534SOL     OW68498   6.388  13.353   8.258
55534SOL    HW168499   6.376  13.260   8.235
55534SOL    HW268500   6.474  13.375   8.223
55535SOL     OW68501   3.494   3.495   3.555
55535SOL    HW168502   3.426   3.553   3.590
55535SOL    HW268503   3.530   3.451   3.633
55536SOL     OW68504   0.098   7.023   7.683
55536SOL    HW168505   0.054   7.089   7.629
55536SOL    HW268506   0.173   6.996   7.630
55537SOL     OW68507   1.156   5.753   5.845
55537SOL    HW168508   1.201   5.800   5.774
55537SOL    HW268509   1.074   5.800   5.856
55538SOL     OW68510   8.742   3.629   6.589
55538SOL    HW168511   8.724   3.718   6.557
55538SOL    HW268512   8.739   3.637   6.684
55539SOL     OW68513  14.062  12.446  10.016
55539SOL    HW168514  14.008  12.399   9.953
55539SOL    HW268515  14.000  12.473  10.084
55540SOL     OW68516   0.348   8.452   0.577
55540SOL    HW168517   0.400   8.524   0.541
55540SOL    HW268518   0.410   8.379   0.585
55541SOL     OW68519  10.828  10.177   7.154
55541SOL    HW168520  10.911  10.181   7.106
55541SOL    HW268521  10.852  10.197   7.245
55542SOL     OW68522  14.555   8.759  12.456
55542SOL    HW168523  14.531   8.769  12.548
55542SOL    HW268524  14.547   8.665  12.439
55543SOL     OW68525  10.968  13.381   8.081
55543SOL    HW168526  10.873  13.370   8.072
55543SOL    HW268527  10.980  13.417   8.169
55544SOL     OW68528   3.397   0.686   1.909
55544SOL    HW168529   3.436   0.635   1.839
55544SOL    HW268530   3.448   0.767   1.911
55545SOL     OW68531  11.893  12.201   5.304
55545SOL    HW168532  11.916  12.224   5.215
55545SOL    HW268533  11.898  12.105   5.307
55546SOL     OW68534   3.571  13.920   9.730
55546SOL    HW168535   3.607  13.930   9.818
55546SOL    HW268536   3.549  13.827   9.722
55547SOL     OW68537  12.304  12.473   1.209
55547SOL    HW168538  12.298  12.452   1.116
55547SOL    HW268539  12.376  12.536   1.215
55548SOL     OW68540   8.441   9.192   4.499
55548SOL    HW168541   8.376   9.245   4.451
55548SOL    HW268542   8.473   9.130   4.434
55549SOL     OW68543   5.178  12.907   8.438
55549SOL    HW168544   5.271  12.897   8.456
55549SOL    HW268545   5.137  12.911   8.525
55550SOL     OW68546  11.685   4.156   0.201
55550SOL    HW168547  11.638   4.137   0.120
55550SOL    HW268548  11.711   4.248   0.192
55551SOL     OW68549   8.256   4.303   1.122
55551SOL    HW168550   8.223   4.244   1.055
55551SOL    HW268551   8.188   4.304   1.189
55552SOL     OW68552   9.639  12.907   4.196
55552SOL    HW168553   9.720  12.904   4.247
55552SOL    HW268554   9.647  12.986   4.143
55553SOL     OW68555   4.155  13.368   3.081
55553SOL    HW168556   4.220  13.298   3.076
55553SOL    HW268557   4.184  13.431   3.015
55554SOL     OW68558   8.940  12.642  13.831
55554SOL    HW168559   8.964  12.723  13.786
55554SOL    HW268560   8.850  12.625  13.803
55555SOL     OW68561  12.972  10.110   1.328
55555SOL    HW168562  13.033  10.171   1.371
55555SOL    HW268563  12.941  10.158   1.251
55556SOL     OW68564   2.466   7.575   9.803
55556SOL    HW168565   2.440   7.645   9.742
55556SOL    HW268566   2.466   7.617   9.889
55557SOL     OW68567   1.525   7.506   9.197
55557SOL    HW168568   1.553   7.454   9.273
55557SOL    HW268569   1.466   7.448   9.149
55558SOL     OW68570   2.006   9.787   4.251
55558SOL    HW168571   1.924   9.787   4.301
55558SOL    HW268572   2.075   9.780   4.317
55559SOL     OW68573   5.525   0.731  11.580
55559SOL    HW168574   5.492   0.798  11.520
55559SOL    HW268575   5.523   0.650  11.528
55560SOL     OW68576   3.071  10.386   5.064
55560SOL    HW168577   3.056  10.424   4.978
55560SOL    HW268578   3.074  10.462   5.123
55561SOL     OW68579   6.487   2.413   9.153
55561SOL    HW168580   6.436   2.409   9.072
55561SOL    HW268581   6.527   2.326   9.161
55562SOL     OW68582   9.756   2.939  14.680
55562SOL    HW168583   9.709   2.869  14.725
55562SOL    HW268584   9.694   2.973  14.615
55563SOL     OW68585   2.505   0.932   2.472
55563SOL    HW168586   2.461   0.987   2.537
55563SOL    HW268587   2.589   0.975   2.457
55564SOL     OW68588   3.968   7.797  10.311
55564SOL    HW168589   3.994   7.707  10.329
55564SOL    HW268590   3.899   7.789  10.245
55565SOL     OW68591  11.415  11.484  10.938
55565SOL    HW168592  11.342  11.422  10.942
55565SOL    HW268593  11.458  11.477  11.023
55566SOL     OW68594  11.178   7.534   8.091
55566SOL    HW168595  11.195   7.450   8.132
55566SOL    HW268596  11.167   7.595   8.164
55567SOL     OW68597   0.261   2.318   7.204
55567SOL    HW168598   0.188   2.338   7.263
55567SOL    HW268599   0.328   2.281   7.261
55568SOL     OW68600   3.563  12.964   5.830
55568SOL    HW168601   3.549  13.000   5.917
55568SOL    HW268602   3.516  13.024   5.771
55569SOL     OW68603   7.083   4.245   1.007
55569SOL    HW168604   7.087   4.161   1.052
55569SOL    HW268605   7.040   4.304   1.069
55570SOL     OW68606   6.101  13.988  11.172
55570SOL    HW168607   6.130  14.061  11.117
55570SOL    HW268608   6.113  13.911  11.117
55571SOL     OW68609  11.457   3.227  11.217
55571SOL    HW168610  11.484   3.209  11.307
55571SOL    HW268611  11.451   3.141  11.176
55572SOL     OW68612   4.021   8.099  12.627
55572SOL    HW168613   3.959   8.038  12.586
55572SOL    HW268614   3.981   8.119  12.712
55573SOL     OW68615   6.084   3.639   1.853
55573SOL    HW168616   6.171   3.674   1.872
55573SOL    HW268617   6.026   3.685   1.914
55574SOL     OW68618   6.479   7.828   9.360
55574SOL    HW168619   6.445   7.874   9.284
55574SOL    HW268620   6.573   7.845   9.358
55575SOL     OW68621  11.482   8.455   2.184
55575SOL    HW168622  11.472   8.443   2.089
55575SOL    HW268623  11.565   8.502   2.193
55576SOL     OW68624   7.534  14.731   6.242
55576SOL    HW168625   7.479  14.742   6.320
55576SOL    HW268626   7.581  14.814   6.235
55577SOL     OW68627   0.838   4.778   8.095
55577SOL    HW168628   0.747   4.776   8.068
55577SOL    HW268629   0.886   4.806   8.017
55578SOL     OW68630   7.163   7.429   2.490
55578SOL    HW168631   7.089   7.477   2.527
55578SOL    HW268632   7.239   7.484   2.509
55579SOL     OW68633   3.903   2.899  13.890
55579SOL    HW168634   3.858   2.849  13.821
55579SOL    HW268635   3.855   2.981  13.894
55580SOL     OW68636   4.952  14.664  12.134
55580SOL    HW168637   4.935  14.739  12.077
55580SOL    HW268638   4.961  14.590  12.075
55581SOL     OW68639  11.163  11.664   1.339
55581SOL    HW168640  11.242  11.663   1.284
55581SOL    HW268641  11.100  11.715   1.288
55582SOL     OW68642  10.208   9.014   6.107
55582SOL    HW168643  10.238   8.927   6.133
55582SOL    HW268644  10.275   9.073   6.141
55583SOL     OW68645  14.317  13.406   8.828
55583SOL    HW168646  14.387  13.454   8.783
55583SOL    HW268647  14.253  13.472   8.853
55584SOL     OW68648  14.876   3.191   9.585
55584SOL    HW168649  14.799   3.236   9.549
55584SOL    HW268650   0.016   3.235   9.668
55585SOL     OW68651   3.188   7.474   9.365
55585SOL    HW168652   3.245   7.521   9.304
55585SOL    HW268653   3.103   7.472   9.322
55586SOL     OW68654   6.085   8.848  12.800
55586SOL    HW168655   6.119   8.935  12.780
55586SOL    HW268656   6.130   8.823  12.881
55587SOL     OW68657  10.869  11.335   9.077
55587SOL    HW168658  10.802  11.385   9.124
55587SOL    HW268659  10.879  11.382   8.994
55588SOL     OW68660   5.983   4.361   9.422
55588SOL    HW168661   6.039   4.292   9.386
55588SOL    HW268662   5.997   4.356   9.517
55589SOL     OW68663  11.205   8.340   5.472
55589SOL    HW168664  11.211   8.371   5.562
55589SOL    HW268665  11.113   8.353   5.449
55590SOL     OW68666  12.763   6.505   3.621
55590SOL    HW168667  12.773   6.498   3.526
55590SOL    HW268668  12.727   6.593   3.634
55591SOL     OW68669   6.166   4.231  13.057
55591SOL    HW168670   6.170   4.295  13.128
55591SOL    HW268671   6.153   4.284  12.978
55592SOL     OW68672   5.303   8.366   8.216
55592SOL    HW168673   5.330   8.281   8.179
55592SOL    HW268674   5.209   8.356   8.232
55593SOL     OW68675   2.683   4.196   9.967
55593SOL    HW168676   2.744   4.244  10.022
55593SOL    HW268677   2.601   4.195  10.017
55594SOL     OW68678  11.764   5.557   6.149
55594SOL    HW168679  11.776   5.567   6.243
55594SOL    HW268680  11.852   5.542   6.115
55595SOL     OW68681  11.754  14.680   1.139
55595SOL    HW168682  11.663  14.665   1.166
55595SOL    HW268683  11.762  14.635   1.055
55596SOL     OW68684   6.095  10.917  12.190
55596SOL    HW168685   6.181  10.959  12.185
55596SOL    HW268686   6.091  10.861  12.113
55597SOL     OW68687  13.138   3.138   3.240
55597SOL    HW168688  13.217   3.115   3.288
55597SOL    HW268689  13.108   3.219   3.281
55598SOL     OW68690  14.630   2.003  11.167
55598SOL    HW168691  14.590   2.085  11.196
55598SOL    HW268692  14.659   2.021  11.078
55599SOL     OW68693  11.247   4.191   0.375
55599SOL    HW168694  11.164   4.174   0.419
55599SOL    HW268695  11.303   4.118   0.400
55600SOL     OW68696   1.669  12.903   7.207
55600SOL    HW168697   1.706  12.831   7.157
55600SOL    HW268698   1.723  12.908   7.286
55601SOL     OW68699   6.819  11.422   4.748
55601SOL    HW168700   6.863  11.358   4.693
55601SOL    HW268701   6.736  11.440   4.703
55602SOL     OW68702  14.275   7.344  14.015
55602SOL    HW168703  14.298   7.433  13.988
55602SOL    HW268704  14.348   7.290  13.986
55603SOL     OW68705   3.973   2.642   5.972
55603SOL    HW168706   4.026   2.570   6.006
55603SOL    HW268707   3.969   2.705   6.044
55604SOL     OW68708  10.409  11.770   8.085
55604SOL    HW168709  10.334  11.805   8.037
55604SOL    HW268710  10.463  11.728   8.019
55605SOL     OW68711  13.106  10.111  14.335
55605SOL    HW168712  13.190  10.076  14.304
55605SOL    HW268713  13.041  10.046  14.309
55606SOL     OW68714  12.517  12.759   2.106
55606SOL    HW168715  12.482  12.844   2.080
55606SOL    HW268716  12.604  12.779   2.142
55607SOL     OW68717  10.094   5.124  13.136
55607SOL    HW168718  10.069   5.054  13.075
55607SOL    HW268719  10.012   5.169  13.157
55608SOL     OW68720   6.124   1.773  11.074
55608SOL    HW168721   6.108   1.828  11.150
55608SOL    HW268722   6.173   1.829  11.013
55609SOL     OW68723  10.460  10.471   4.261
55609SOL    HW168724  10.419  10.454   4.346
55609SOL    HW268725  10.475  10.384   4.224
55610SOL     OW68726   3.665   1.334   3.700
55610SOL    HW168727   3.685   1.242   3.682
55610SOL    HW268728   3.741   1.366   3.749
55611SOL     OW68729   4.379   8.238   9.542
55611SOL    HW168730   4.428   8.220   9.623
55611SOL    HW268731   4.364   8.151   9.504
55612SOL     OW68732   3.350   0.584  10.853
55612SOL    HW168733   3.441   0.614  10.842
55612SOL    HW268734   3.348   0.543  10.939
55613SOL     OW68735   7.202   3.848  10.479
55613SOL    HW168736   7.279   3.886  10.436
55613SOL    HW268737   7.180   3.772  10.425
55614SOL     OW68738   9.021  13.390   6.986
55614SOL    HW168739   9.115  13.378   7.002
55614SOL    HW268740   9.016  13.443   6.907
55615SOL     OW68741  11.822   5.752   3.718
55615SOL    HW168742  11.787   5.839   3.704
55615SOL    HW268743  11.911   5.756   3.681
55616SOL     OW68744   0.189   7.613  11.301
55616SOL    HW168745   0.094   7.625  11.291
55616SOL    HW268746   0.225   7.640  11.217
55617SOL     OW68747   3.955  13.174   6.499
55617SOL    HW168748   3.942  13.168   6.594
55617SOL    HW268749   4.046  13.150   6.485
55618SOL     OW68750   2.362  12.577   0.613
55618SOL    HW168751   2.371  12.534   0.528
55618SOL    HW268752   2.288  12.637   0.602
55619SOL     OW68753   5.297  13.603   1.432
55619SOL    HW168754   5.348  13.644   1.502
55619SOL    HW268755   5.339  13.519   1.417
55620SOL     OW68756   1.694   0.993  13.920
55620SOL    HW168757   1.763   1.016  13.858
55620SOL    HW268758   1.657   1.077  13.947
55621SOL     OW68759   5.666   9.451  12.973
55621SOL    HW168760   5.743   9.421  12.926
55621SOL    HW268761   5.595   9.446  12.909
55622SOL     OW68762   5.331   8.578   3.800
55622SOL    HW168763   5.369   8.521   3.867
55622SOL    HW268764   5.265   8.629   3.847
55623SOL     OW68765   0.818   8.786   5.547
55623SOL    HW168766   0.912   8.783   5.564
55623SOL    HW268767   0.810   8.835   5.465
55624SOL     OW68768  10.980   6.563   8.314
55624SOL    HW168769  10.900   6.615   8.319
55624SOL    HW268770  10.965   6.503   8.241
55625SOL     OW68771   8.426   9.105   6.232
55625SOL    HW168772   8.404   9.063   6.149
55625SOL    HW268773   8.359   9.075   6.292
55626SOL     OW68774   6.269   5.866   8.654
55626SOL    HW168775   6.252   5.783   8.697
55626SOL    HW268776   6.309   5.843   8.570
55627SOL     OW68777  12.267   6.889   8.495
55627SOL    HW168778  12.207   6.883   8.421
55627SOL    HW268779  12.214   6.927   8.566
55628SOL     OW68780   6.981   0.271  10.214
55628SOL    HW168781   6.994   0.228  10.298
55628SOL    HW268782   7.052   0.238  10.159
55629SOL     OW68783   6.479   0.218   8.545
55629SOL    HW168784   6.546   0.242   8.608
55629SOL    HW268785   6.471   0.294   8.487
55630SOL     OW68786   1.147  10.019  14.012
55630SOL    HW168787   1.063  10.013  13.966
55630SOL    HW268788   1.189   9.935  13.996
55631SOL     OW68789  10.493   1.066   4.599
55631SOL    HW168790  10.401   1.075   4.576
55631SOL    HW268791  10.533   1.025   4.523
55632SOL     OW68792   3.122  12.395  14.814
55632SOL    HW168793   3.039  12.362  14.778
55632SOL    HW268794   3.179  12.318  14.818
55633SOL     OW68795   9.231  12.375  10.327
55633SOL    HW168796   9.217  12.437  10.255
55633SOL    HW268797   9.326  12.372  10.338
55634SOL     OW68798   1.133   8.099   6.351
55634SOL    HW168799   1.058   8.083   6.409
55634SOL    HW268800   1.146   8.194   6.355
55635SOL     OW68801   2.620  12.839   6.208
55635SOL    HW168802   2.715  12.822   6.208
55635SOL    HW268803   2.606  12.894   6.286
55636SOL     OW68804   3.481  14.732   2.041
55636SOL    HW168805   3.532  14.718   1.961
55636SOL    HW268806   3.391  14.708   2.017
55637SOL     OW68807  10.602  10.073   9.590
55637SOL    HW168808  10.624   9.993   9.637
55637SOL    HW268809  10.506  10.071   9.584
55638SOL     OW68810  11.325   7.997   4.642
55638SOL    HW168811  11.396   8.001   4.706
55638SOL    HW268812  11.283   7.913   4.657
55639SOL     OW68813  13.870  13.021   9.994
55639SOL    HW168814  13.790  12.985   9.955
55639SOL    HW268815  13.839  13.096  10.045
55640SOL     OW68816   5.761  12.296  12.662
55640SOL    HW168817   5.801  12.382  12.647
55640SOL    HW268818   5.681  12.315  12.710
55641SOL     OW68819  12.574   2.025   4.817
55641SOL    HW168820  12.546   1.966   4.887
55641SOL    HW268821  12.660   1.991   4.790
55642SOL     OW68822  12.365   7.033  13.101
55642SOL    HW168823  12.284   6.985  13.084
55642SOL    HW268824  12.343   7.092  13.173
55643SOL     OW68825  13.441   7.101   2.888
55643SOL    HW168826  13.509   7.098   2.820
55643SOL    HW268827  13.486   7.072   2.967
55644SOL     OW68828   4.137   4.314  13.434
55644SOL    HW168829   4.094   4.379  13.490
55644SOL    HW268830   4.186   4.366  13.371
55645SOL     OW68831  10.908   2.792   0.113
55645SOL    HW168832  10.893   2.847   0.037
55645SOL    HW268833  10.942   2.851   0.180
55646SOL     OW68834   0.024   8.294   0.635
55646SOL    HW168835   0.058   8.364   0.691
55646SOL    HW268836  14.855   8.339   0.565
55647SOL     OW68837  12.768  13.869  11.843
55647SOL    HW168838  12.689  13.920  11.827
55647SOL    HW268839  12.737  13.787  11.881
55648SOL     OW68840  12.083  14.310   8.704
55648SOL    HW168841  12.109  14.225   8.739
55648SOL    HW268842  12.075  14.297   8.610
55649SOL     OW68843   8.718   6.901   4.228
55649SOL    HW168844   8.702   6.813   4.263
55649SOL    HW268845   8.657   6.909   4.156
55650SOL     OW68846   1.637  12.238   8.022
55650SOL    HW168847   1.638  12.217   7.928
55650SOL    HW268848   1.615  12.155   8.064
55651SOL     OW68849   1.322  13.086   5.699
55651SOL    HW168850   1.361  13.133   5.625
55651SOL    HW268851   1.233  13.067   5.670
55652SOL     OW68852  10.681  11.335  11.365
55652SOL    HW168853  10.724  11.377  11.440
55652SOL    HW268854  10.655  11.249  11.397
55653SOL     OW68855   0.566   0.673   4.720
55653SOL    HW168856   0.638   0.616   4.696
55653SOL    HW268857   0.597   0.721   4.796
55654SOL     OW68858   3.044   0.696   7.537
55654SOL    HW168859   3.041   0.787   7.568
55654SOL    HW268860   2.982   0.650   7.592
55655SOL     OW68861   3.995   4.952   6.845
55655SOL    HW168862   4.042   5.004   6.911
55655SOL    HW268863   3.950   4.884   6.896
55656SOL     OW68864  14.416  11.512   8.024
55656SOL    HW168865  14.453  11.573   7.960
55656SOL    HW268866  14.461  11.533   8.106
55657SOL     OW68867   4.105  13.169   5.873
55657SOL    HW168868   4.059  13.104   5.820
55657SOL    HW268869   4.145  13.119   5.944
55658SOL     OW68870   9.652   8.626  12.299
55658SOL    HW168871   9.669   8.714  12.265
55658SOL    HW268872   9.606   8.582  12.228
55659SOL     OW68873   1.121   0.673   5.982
55659SOL    HW168874   1.159   0.586   5.975
55659SOL    HW268875   1.155   0.721   5.907
55660SOL     OW68876   5.199   7.270   6.124
55660SOL    HW168877   5.232   7.355   6.153
55660SOL    HW268878   5.232   7.262   6.034
55661SOL     OW68879   5.744   1.257   1.070
55661SOL    HW168880   5.759   1.191   1.002
55661SOL    HW268881   5.788   1.335   1.038
55662SOL     OW68882   3.678  12.613   5.188
55662SOL    HW168883   3.669  12.562   5.108
55662SOL    HW268884   3.770  12.605   5.212
55663SOL     OW68885   5.781   0.042  11.404
55663SOL    HW168886   5.847   0.109  11.387
55663SOL    HW268887   5.798   0.014  11.494
55664SOL     OW68888   8.901  10.824   3.020
55664SOL    HW168889   8.815  10.865   3.033
55664SOL    HW268890   8.926  10.848   2.931
55665SOL     OW68891   2.383  13.262  13.781
55665SOL    HW168892   2.365  13.226  13.868
55665SOL    HW268893   2.326  13.212  13.723
55666SOL     OW68894   6.517  14.183  12.239
55666SOL    HW168895   6.454  14.114  12.221
55666SOL    HW268896   6.583  14.141  12.294
55667SOL     OW68897   3.601  10.165   6.927
55667SOL    HW168898   3.517  10.205   6.946
55667SOL    HW268899   3.595  10.139   6.835
55668SOL     OW68900   8.050   8.226   0.377
55668SOL    HW168901   8.121   8.279   0.342
55668SOL    HW268902   8.000   8.199   0.300
55669SOL     OW68903  12.578   3.787   3.161
55669SOL    HW168904  12.609   3.784   3.251
55669SOL    HW268905  12.629   3.720   3.116
55670SOL     OW68906   5.248   5.369   2.218
55670SOL    HW168907   5.168   5.316   2.213
55670SOL    HW268908   5.252   5.413   2.133
55671SOL     OW68909   4.127   6.031   1.881
55671SOL    HW168910   4.198   6.086   1.917
55671SOL    HW268911   4.168   5.946   1.867
55672SOL     OW68912  12.218   8.051   6.614
55672SOL    HW168913  12.171   7.996   6.677
55672SOL    HW268914  12.201   8.011   6.529
55673SOL     OW68915  10.557  13.017  11.930
55673SOL    HW168916  10.581  12.997  12.020
55673SOL    HW268917  10.515  12.937  11.898
55674SOL     OW68918   0.598   4.481   6.257
55674SOL    HW168919   0.649   4.416   6.210
55674SOL    HW268920   0.547   4.431   6.320
55675SOL     OW68921   8.763   7.397   0.953
55675SOL    HW168922   8.791   7.452   1.027
55675SOL    HW268923   8.669   7.386   0.966
55676SOL     OW68924   3.982  14.291  10.650
55676SOL    HW168925   4.021  14.212  10.612
55676SOL    HW268926   3.907  14.311  10.594
55677SOL     OW68927   5.599   8.779   5.622
55677SOL    HW168928   5.555   8.859   5.649
55677SOL    HW268929   5.691   8.793   5.646
55678SOL     OW68930   2.872  12.134   8.446
55678SOL    HW168931   2.778  12.130   8.429
55678SOL    HW268932   2.882  12.210   8.504
55679SOL     OW68933   5.367   5.075  11.835
55679SOL    HW168934   5.378   5.169  11.822
55679SOL    HW268935   5.280   5.057  11.801
55680SOL     OW68936  12.539   4.748   8.044
55680SOL    HW168937  12.531   4.813   8.114
55680SOL    HW268938  12.595   4.680   8.080
55681SOL     OW68939   4.503   0.913   6.378
55681SOL    HW168940   4.477   0.895   6.287
55681SOL    HW268941   4.582   0.860   6.391
55682SOL     OW68942   8.774   7.402   3.661
55682SOL    HW168943   8.750   7.492   3.641
55682SOL    HW268944   8.702   7.349   3.624
55683SOL     OW68945   7.665   3.061  12.362
55683SOL    HW168946   7.575   3.029  12.357
55683SOL    HW268947   7.659   3.141  12.415
55684SOL     OW68948   3.469   9.221   6.529
55684SOL    HW168949   3.451   9.285   6.598
55684SOL    HW268950   3.497   9.143   6.577
55685SOL     OW68951   4.074   0.440   9.487
55685SOL    HW168952   3.995   0.477   9.526
55685SOL    HW268953   4.117   0.515   9.445
55686SOL     OW68954   9.233   8.532  12.094
55686SOL    HW168955   9.161   8.595  12.107
55686SOL    HW268956   9.261   8.510  12.183
55687SOL     OW68957   8.359  12.680   4.295
55687SOL    HW168958   8.368  12.672   4.200
55687SOL    HW268959   8.297  12.753   4.306
55688SOL     OW68960  10.873  12.189  10.545
55688SOL    HW168961  10.816  12.209  10.471
55688SOL    HW268962  10.962  12.202  10.510
55689SOL     OW68963   6.746   9.376  11.461
55689SOL    HW168964   6.804   9.446  11.493
55689SOL    HW268965   6.659   9.400  11.492
55690SOL     OW68966  12.560   7.596   0.231
55690SOL    HW168967  12.607   7.610   0.149
55690SOL    HW268968  12.539   7.684   0.262
55691SOL     OW68969   7.742   0.889   6.754
55691SOL    HW168970   7.785   0.811   6.719
55691SOL    HW268971   7.654   0.887   6.715
55692SOL     OW68972   7.493   3.228   1.118
55692SOL    HW168973   7.580   3.198   1.092
55692SOL    HW268974   7.484   3.315   1.079
55693SOL     OW68975   4.106  14.405   6.828
55693SOL    HW168976   4.102  14.376   6.737
55693SOL    HW268977   4.199  14.401   6.851
55694SOL     OW68978  11.558   4.735  14.067
55694SOL    HW168979  11.509   4.653  14.066
55694SOL    HW268980  11.587   4.744  14.158
55695SOL     OW68981   1.506  11.602  13.189
55695SOL    HW168982   1.415  11.588  13.215
55695SOL    HW268983   1.526  11.691  13.216
55696SOL     OW68984  14.372   0.561   4.494
55696SOL    HW168985  14.455   0.529   4.461
55696SOL    HW268986  14.388   0.578   4.587
55697SOL     OW68987   1.503   9.652  12.811
55697SOL    HW168988   1.493   9.745  12.790
55697SOL    HW268989   1.535   9.651  12.901
55698SOL     OW68990   8.035   2.784   1.190
55698SOL    HW168991   8.040   2.758   1.282
55698SOL    HW268992   8.097   2.727   1.145
55699SOL     OW68993   0.947  14.353   5.810
55699SOL    HW168994   0.877  14.290   5.830
55699SOL    HW268995   1.002  14.352   5.888
55700SOL     OW68996  12.668   2.209  12.039
55700SOL    HW168997  12.697   2.294  12.073
55700SOL    HW268998  12.690   2.147  12.108
55701SOL     OW68999   1.590  11.585   8.601
55701SOL    HW169000   1.656  11.520   8.576
55701SOL    HW269001   1.575  11.635   8.522
55702SOL     OW69002  14.665   6.167   1.640
55702SOL    HW169003  14.632   6.201   1.723
55702SOL    HW269004  14.636   6.231   1.575
55703SOL     OW69005   3.552   6.437  14.141
55703SOL    HW169006   3.592   6.444  14.228
55703SOL    HW269007   3.581   6.351  14.108
55704SOL     OW69008   5.568   8.535   4.079
55704SOL    HW169009   5.515   8.602   4.121
55704SOL    HW269010   5.508   8.462   4.064
55705SOL     OW69011  12.416   0.055   2.394
55705SOL    HW169012  12.486   0.121   2.389
55705SOL    HW269013  12.419   0.012   2.309
55706SOL     OW69014   6.975   7.988   2.542
55706SOL    HW169015   7.014   7.932   2.475
55706SOL    HW269016   7.029   7.975   2.619
55707SOL     OW69017  14.072   6.446  11.575
55707SOL    HW169018  14.027   6.365  11.551
55707SOL    HW269019  14.119   6.471  11.495
55708SOL     OW69020  10.247  14.509  11.278
55708SOL    HW169021  10.163  14.478  11.312
55708SOL    HW269022  10.310  14.491  11.349
55709SOL     OW69023   9.561   1.591  10.452
55709SOL    HW169024   9.626   1.545  10.506
55709SOL    HW269025   9.611   1.623  10.377
55710SOL     OW69026  13.065   8.293  13.061
55710SOL    HW169027  13.109   8.267  13.141
55710SOL    HW269028  13.045   8.211  13.016
55711SOL     OW69029   7.082   8.688   5.901
55711SOL    HW169030   7.160   8.687   5.957
55711SOL    HW269031   7.010   8.707   5.960
55712SOL     OW69032  10.781   3.795   8.151
55712SOL    HW169033  10.742   3.845   8.079
55712SOL    HW269034  10.863   3.760   8.114
55713SOL     OW69035   8.788   7.474  12.735
55713SOL    HW169036   8.814   7.565  12.720
55713SOL    HW269037   8.744   7.447  12.655
55714SOL     OW69038   0.696   7.830  14.204
55714SOL    HW169039   0.646   7.795  14.277
55714SOL    HW269040   0.634   7.882  14.154
55715SOL     OW69041  14.541   3.876   8.868
55715SOL    HW169042  14.601   3.807   8.839
55715SOL    HW269043  14.575   3.902   8.954
55716SOL     OW69044   0.413   0.920  12.141
55716SOL    HW169045   0.400   0.956  12.229
55716SOL    HW269046   0.483   0.856  12.151
55717SOL     OW69047   1.453   2.523   0.210
55717SOL    HW169048   1.491   2.501   0.125
55717SOL    HW269049   1.359   2.531   0.192
55718SOL     OW69050   0.434  14.627   5.107
55718SOL    HW169051   0.360  14.590   5.058
55718SOL    HW269052   0.432  14.720   5.086
55719SOL     OW69053   6.326   2.925  10.183
55719SOL    HW169054   6.252   2.876  10.148
55719SOL    HW269055   6.293   3.014  10.193
55720SOL     OW69056  10.951  14.031   5.720
55720SOL    HW169057  10.861  14.058   5.736
55720SOL    HW269058  11.002  14.111   5.730
55721SOL     OW69059   4.391   4.807   7.336
55721SOL    HW169060   4.379   4.896   7.302
55721SOL    HW269061   4.462   4.815   7.400
55722SOL     OW69062  13.525  10.528  14.771
55722SOL    HW169063  13.534  10.587  14.845
55722SOL    HW269064  13.540  10.584  14.694
55723SOL     OW69065   1.775   9.338   7.180
55723SOL    HW169066   1.845   9.322   7.117
55723SOL    HW269067   1.742   9.426   7.158
55724SOL     OW69068   3.691   6.287   3.933
55724SOL    HW169069   3.690   6.220   4.001
55724SOL    HW269070   3.700   6.238   3.851
55725SOL     OW69071   2.006  13.875   4.312
55725SOL    HW169072   2.091  13.898   4.347
55725SOL    HW269073   1.983  13.792   4.354
55726SOL     OW69074   9.621  11.810   8.361
55726SOL    HW169075   9.589  11.858   8.285
55726SOL    HW269076   9.558  11.739   8.372
55727SOL     OW69077  10.963   8.710   7.762
55727SOL    HW169078  10.956   8.734   7.854
55727SOL    HW269079  11.027   8.772   7.726
55728SOL     OW69080   9.657   8.778   7.663
55728SOL    HW169081   9.665   8.769   7.568
55728SOL    HW269082   9.574   8.825   7.676
55729SOL     OW69083   3.149   5.828   9.312
55729SOL    HW169084   3.150   5.842   9.217
55729SOL    HW269085   3.171   5.735   9.322
55730SOL     OW69086   2.503   1.280   0.723
55730SOL    HW169087   2.475   1.354   0.776
55730SOL    HW269088   2.598   1.280   0.730
55731SOL     OW69089  10.319   0.389  13.965
55731SOL    HW169090  10.412   0.372  13.979
55731SOL    HW269091  10.311   0.403  13.870
55732SOL     OW69092   6.294   6.143   8.701
55732SOL    HW169093   6.270   6.156   8.609
55732SOL    HW269094   6.303   6.048   8.710
55733SOL     OW69095   2.301   8.987  14.658
55733SOL    HW169096   2.396   9.002  14.663
55733SOL    HW269097   2.292   8.912  14.600
55734SOL     OW69098   6.981  12.419   2.119
55734SOL    HW169099   6.965  12.330   2.089
55734SOL    HW269100   6.902  12.467   2.095
55735SOL     OW69101   1.493  12.489  12.035
55735SOL    HW169102   1.462  12.411  11.988
55735SOL    HW269103   1.557  12.528  11.976
55736SOL     OW69104   8.824  13.170   7.946
55736SOL    HW169105   8.862  13.106   7.886
55736SOL    HW269106   8.881  13.168   8.022
55737SOL     OW69107   6.110   3.749  14.724
55737SOL    HW169108   6.053   3.675  14.745
55737SOL    HW269109   6.049   3.820  14.699
55738SOL     OW69110  14.630   6.625  14.541
55738SOL    HW169111  14.628   6.662  14.453
55738SOL    HW269112  14.578   6.685  14.594
55739SOL     OW69113   1.312  13.858  11.440
55739SOL    HW169114   1.267  13.940  11.422
55739SOL    HW269115   1.242  13.793  11.450
55740SOL     OW69116  13.137   3.424  12.675
55740SOL    HW169117  13.061   3.443  12.730
55740SOL    HW269118  13.120   3.472  12.594
55741SOL     OW69119   6.069   5.195   2.139
55741SOL    HW169120   6.072   5.111   2.186
55741SOL    HW269121   6.015   5.252   2.195
55742SOL     OW69122   6.323  13.879   1.656
55742SOL    HW169123   6.252  13.916   1.605
55742SOL    HW269124   6.403  13.906   1.610
55743SOL     OW69125   5.722   6.987   8.467
55743SOL    HW169126   5.791   7.053   8.475
55743SOL    HW269127   5.714   6.950   8.555
55744SOL     OW69128  10.719   6.098   7.451
55744SOL    HW169129  10.628   6.087   7.480
55744SOL    HW269130  10.719   6.181   7.404
55745SOL     OW69131   6.125  12.235   8.004
55745SOL    HW169132   6.215  12.257   8.029
55745SOL    HW269133   6.133  12.206   7.913
55746SOL     OW69134  12.338   5.573  11.430
55746SOL    HW169135  12.300   5.485  11.435
55746SOL    HW269136  12.325   5.600  11.339
55747SOL     OW69137   5.550   9.991   5.005
55747SOL    HW169138   5.561   9.987   5.100
55747SOL    HW269139   5.540   9.900   4.978
55748SOL     OW69140  11.263   6.595  14.014
55748SOL    HW169141  11.209   6.658  14.060
55748SOL    HW269142  11.313   6.551  14.083
55749SOL     OW69143   0.717   1.541   6.904
55749SOL    HW169144   0.724   1.602   6.977
55749SOL    HW269145   0.757   1.460   6.936
55750SOL     OW69146  11.042  12.222   3.396
55750SOL    HW169147  10.960  12.233   3.444
55750SOL    HW269148  11.047  12.299   3.339
55751SOL     OW69149   7.232  12.874  10.037
55751SOL    HW169150   7.243  12.963  10.002
55751SOL    HW269151   7.222  12.887  10.131
55752SOL     OW69152  10.052  14.672   4.439
55752SOL    HW169153  10.104  14.722   4.376
55752SOL    HW269154  10.001  14.611   4.385
55753SOL     OW69155  12.276  10.258   8.376
55753SOL    HW169156  12.287  10.311   8.454
55753SOL    HW269157  12.183  10.264   8.355
55754SOL     OW69158   0.266   6.519   5.052
55754SOL    HW169159   0.343   6.472   5.019
55754SOL    HW269160   0.256   6.593   4.991
55755SOL     OW69161   6.795   8.709  14.399
55755SOL    HW169162   6.819   8.690  14.489
55755SOL    HW269163   6.829   8.635  14.349
55756SOL     OW69164   9.891  11.295   9.523
55756SOL    HW169165   9.862  11.205   9.511
55756SOL    HW269166   9.946  11.313   9.447
55757SOL     OW69167   4.971   4.583   9.200
55757SOL    HW169168   5.052   4.575   9.150
55757SOL    HW269169   4.912   4.518   9.161
55758SOL     OW69170  11.409   7.673  10.629
55758SOL    HW169171  11.425   7.641  10.540
55758SOL    HW269172  11.496   7.684  10.667
55759SOL     OW69173   5.772   2.224  11.107
55759SOL    HW169174   5.732   2.309  11.088
55759SOL    HW269175   5.849   2.246  11.160
55760SOL     OW69176   1.972   1.309   3.925
55760SOL    HW169177   1.933   1.293   3.839
55760SOL    HW269178   1.905   1.280   3.987
55761SOL     OW69179   4.601  12.009   9.195
55761SOL    HW169180   4.588  12.031   9.103
55761SOL    HW269181   4.602  12.094   9.240
55762SOL     OW69182  14.366   2.905  12.611
55762SOL    HW169183  14.318   2.937  12.535
55762SOL    HW269184  14.447   2.955  12.610
55763SOL     OW69185   5.081   5.099   1.978
55763SOL    HW169186   5.038   5.145   2.051
55763SOL    HW269187   5.107   5.015   2.016
55764SOL     OW69188   8.626   1.543   8.720
55764SOL    HW169189   8.649   1.532   8.812
55764SOL    HW269190   8.636   1.456   8.682
55765SOL     OW69191   2.889   3.219  13.671
55765SOL    HW169192   2.902   3.125  13.656
55765SOL    HW269193   2.958   3.243  13.733
55766SOL     OW69194   7.972   8.423   4.696
55766SOL    HW169195   8.007   8.339   4.725
55766SOL    HW269196   7.935   8.404   4.609
55767SOL     OW69197  12.783   2.100  12.270
55767SOL    HW169198  12.808   2.071  12.357
55767SOL    HW269199  12.849   2.165  12.246
55768SOL     OW69200   4.900   5.551   1.059
55768SOL    HW169201   4.846   5.475   1.081
55768SOL    HW269202   4.866   5.582   0.976
55769SOL     OW69203   9.816   9.852   9.047
55769SOL    HW169204   9.755   9.791   9.089
55769SOL    HW269205   9.760   9.917   9.006
55770SOL     OW69206   1.297   0.670   7.309
55770SOL    HW169207   1.324   0.670   7.217
55770SOL    HW269208   1.208   0.703   7.308
55771SOL     OW69209   6.320   4.039  13.179
55771SOL    HW169210   6.263   4.087  13.119
55771SOL    HW269211   6.272   3.958  13.199
55772SOL     OW69212  14.035   7.241   0.531
55772SOL    HW169213  13.953   7.290   0.528
55772SOL    HW269214  14.101   7.303   0.498
55773SOL     OW69215  10.494  11.939  11.435
55773SOL    HW169216  10.404  11.921  11.461
55773SOL    HW269217  10.487  12.016  11.378
55774SOL     OW69218   5.251   7.601   1.748
55774SOL    HW169219   5.179   7.539   1.763
55774SOL    HW269220   5.251   7.656   1.826
55775SOL     OW69221   6.403   0.564   6.585
55775SOL    HW169222   6.318   0.608   6.588
55775SOL    HW269223   6.424   0.545   6.677
55776SOL     OW69224  13.899   7.818  14.150
55776SOL    HW169225  13.901   7.912  14.166
55776SOL    HW269226  13.885   7.810  14.056
55777SOL     OW69227   5.979   4.757   5.248
55777SOL    HW169228   5.954   4.673   5.209
55777SOL    HW269229   5.938   4.756   5.335
55778SOL     OW69230   3.521   5.786   4.152
55778SOL    HW169231   3.571   5.709   4.181
55778SOL    HW269232   3.430   5.756   4.150
55779SOL     OW69233  14.225  11.620   3.285
55779SOL    HW169234  14.200  11.674   3.210
55779SOL    HW269235  14.227  11.681   3.359
55780SOL     OW69236   7.164  10.452   2.668
55780SOL    HW169237   7.167  10.467   2.762
55780SOL    HW269238   7.150  10.358   2.658
55781SOL     OW69239  12.005  13.184  10.228
55781SOL    HW169240  11.953  13.215  10.301
55781SOL    HW269241  12.096  13.202  10.253
55782SOL     OW69242  13.300  11.942   8.631
55782SOL    HW169243  13.376  11.938   8.573
55782SOL    HW269244  13.325  11.892   8.708
55783SOL     OW69245   1.955   9.202   9.544
55783SOL    HW169246   1.944   9.297   9.551
55783SOL    HW269247   1.928   9.169   9.630
55784SOL     OW69248   9.978  12.645   1.971
55784SOL    HW169249   9.939  12.564   1.940
55784SOL    HW269250   9.926  12.670   2.047
55785SOL     OW69251  11.683   0.837  12.290
55785SOL    HW169252  11.649   0.766  12.235
55785SOL    HW269253  11.762   0.867  12.243
55786SOL     OW69254   5.449   0.872   9.082
55786SOL    HW169255   5.530   0.870   9.031
55786SOL    HW269256   5.429   0.965   9.092
55787SOL     OW69257   5.840  13.215  12.433
55787SOL    HW169258   5.766  13.275  12.445
55787SOL    HW269259   5.890  13.222  12.514
55788SOL     OW69260   3.913   7.420   1.794
55788SOL    HW169261   3.920   7.325   1.803
55788SOL    HW269262   3.985   7.454   1.846
55789SOL     OW69263   1.897   8.166   8.804
55789SOL    HW169264   1.961   8.177   8.875
55789SOL    HW269265   1.950   8.148   8.726
55790SOL     OW69266   0.076   6.434  14.003
55790SOL    HW169267   0.054   6.342  13.989
55790SOL    HW269268   0.020   6.481  13.940
55791SOL     OW69269   4.741  12.785   1.261
55791SOL    HW169270   4.791  12.717   1.306
55791SOL    HW269271   4.805  12.855   1.245
55792SOL     OW69272   4.485   4.256   6.418
55792SOL    HW169273   4.436   4.324   6.465
55792SOL    HW269274   4.562   4.302   6.384
55793SOL     OW69275  13.867   8.052   3.418
55793SOL    HW169276  13.800   7.990   3.390
55793SOL    HW269277  13.884   8.030   3.510
55794SOL     OW69278   5.273   3.384   9.339
55794SOL    HW169279   5.257   3.291   9.349
55794SOL    HW269280   5.272   3.419   9.428
55795SOL     OW69281   8.017   2.207  11.503
55795SOL    HW169282   8.028   2.180  11.412
55795SOL    HW269283   7.926   2.183  11.524
55796SOL     OW69284   2.210   1.394   8.398
55796SOL    HW169285   2.136   1.377   8.455
55796SOL    HW269286   2.194   1.338   8.321
55797SOL     OW69287  11.320   5.134   6.928
55797SOL    HW169288  11.295   5.217   6.889
55797SOL    HW269289  11.399   5.153   6.978
55798SOL     OW69290   8.369   7.579   8.179
55798SOL    HW169291   8.274   7.574   8.167
55798SOL    HW269292   8.404   7.583   8.090
55799SOL     OW69293   1.586  13.352  10.864
55799SOL    HW169294   1.532  13.274  10.851
55799SOL    HW269295   1.608  13.381  10.775
55800SOL     OW69296  13.444   3.635   7.909
55800SOL    HW169297  13.427   3.586   7.989
55800SOL    HW269298  13.357   3.651   7.871
55801SOL     OW69299  11.028   0.596   6.384
55801SOL    HW169300  11.012   0.670   6.441
55801SOL    HW269301  10.964   0.605   6.313
55802SOL     OW69302   8.501  14.129  13.581
55802SOL    HW169303   8.537  14.217  13.568
55802SOL    HW269304   8.577  14.072  13.579
55803SOL     OW69305   3.661  11.578   9.334
55803SOL    HW169306   3.661  11.547   9.243
55803SOL    HW269307   3.752  11.567   9.362
55804SOL     OW69308   8.478   6.745   2.026
55804SOL    HW169309   8.443   6.740   2.115
55804SOL    HW269310   8.565   6.706   2.032
55805SOL     OW69311   7.643  13.572   2.157
55805SOL    HW169312   7.626  13.605   2.245
55805SOL    HW269313   7.669  13.481   2.170
55806SOL     OW69314   1.315   4.845   1.359
55806SOL    HW169315   1.329   4.917   1.297
55806SOL    HW269316   1.351   4.877   1.441
55807SOL     OW69317  11.714  11.051   3.112
55807SOL    HW169318  11.754  10.999   3.043
55807SOL    HW269319  11.639  10.999   3.141
55808SOL     OW69320   0.545   7.445   8.226
55808SOL    HW169321   0.563   7.529   8.269
55808SOL    HW269322   0.557   7.380   8.294
55809SOL     OW69323  13.148   9.181  11.212
55809SOL    HW169324  13.222   9.144  11.163
55809SOL    HW269325  13.096   9.105  11.238
55810SOL     OW69326   4.800  13.336   4.916
55810SOL    HW169327   4.710  13.343   4.948
55810SOL    HW269328   4.792  13.286   4.834
55811SOL     OW69329   5.085   9.232  11.208
55811SOL    HW169330   5.094   9.187  11.292
55811SOL    HW269331   5.152   9.193  11.152
55812SOL     OW69332   1.325  11.724   4.251
55812SOL    HW169333   1.280  11.749   4.331
55812SOL    HW269334   1.343  11.807   4.206
55813SOL     OW69335   5.903   7.924   8.390
55813SOL    HW169336   5.947   7.859   8.445
55813SOL    HW269337   5.834   7.875   8.346
55814SOL     OW69338  13.679  13.552  14.153
55814SOL    HW169339  13.682  13.473  14.207
55814SOL    HW269340  13.603  13.600  14.185
55815SOL     OW69341   4.943  13.052  11.101
55815SOL    HW169342   4.867  13.064  11.043
55815SOL    HW269343   4.972  13.141  11.122
55816SOL     OW69344   1.061   7.277  10.215
55816SOL    HW169345   1.105   7.287  10.130
55816SOL    HW269346   1.023   7.189  10.212
55817SOL     OW69347  12.178   5.846  12.093
55817SOL    HW169348  12.182   5.942  12.089
55817SOL    HW269349  12.267   5.818  12.072
55818SOL     OW69350   3.456   6.523   6.319
55818SOL    HW169351   3.523   6.462   6.349
55818SOL    HW269352   3.501   6.583   6.260
55819SOL     OW69353   0.528  11.336   8.658
55819SOL    HW169354   0.500  11.246   8.643
55819SOL    HW269355   0.623  11.331   8.669
55820SOL     OW69356   1.427  14.313   0.593
55820SOL    HW169357   1.451  14.401   0.563
55820SOL    HW269358   1.333  14.319   0.610
55821SOL     OW69359   0.699   3.649   2.916
55821SOL    HW169360   0.747   3.711   2.971
55821SOL    HW269361   0.693   3.692   2.831
55822SOL     OW69362   7.402   8.859   6.906
55822SOL    HW169363   7.477   8.834   6.959
55822SOL    HW269364   7.364   8.775   6.878
55823SOL     OW69365   7.050  14.229   7.303
55823SOL    HW169366   7.047  14.151   7.359
55823SOL    HW269367   7.025  14.196   7.216
55824SOL     OW69368   0.819  11.197   9.796
55824SOL    HW169369   0.789  11.206   9.886
55824SOL    HW269370   0.898  11.144   9.802
55825SOL     OW69371  11.087   8.456   3.389
55825SOL    HW169372  11.123   8.429   3.473
55825SOL    HW269373  11.137   8.534   3.366
55826SOL     OW69374   8.607  13.573   2.217
55826SOL    HW169375   8.598  13.632   2.142
55826SOL    HW269376   8.698  13.583   2.245
55827SOL     OW69377  13.133   8.834   3.231
55827SOL    HW169378  13.157   8.745   3.205
55827SOL    HW269379  13.206   8.888   3.201
55828SOL     OW69380   7.691   6.913   5.610
55828SOL    HW169381   7.645   6.995   5.626
55828SOL    HW269382   7.626   6.857   5.568
55829SOL     OW69383   7.924   0.838  11.449
55829SOL    HW169384   7.867   0.790  11.509
55829SOL    HW269385   7.900   0.930  11.460
55830SOL     OW69386  13.983  12.911   1.443
55830SOL    HW169387  13.887  12.913   1.447
55830SOL    HW269388  14.003  12.843   1.378
55831SOL     OW69389   5.775  10.042  12.257
55831SOL    HW169390   5.791  10.134  12.275
55831SOL    HW269391   5.857  10.011  12.218
55832SOL     OW69392   5.526  11.088  11.942
55832SOL    HW169393   5.558  11.024  12.005
55832SOL    HW269394   5.575  11.168  11.961
55833SOL     OW69395   8.959   0.921   0.244
55833SOL    HW169396   9.028   0.949   0.304
55833SOL    HW269397   8.975   0.828   0.230
55834SOL     OW69398  13.215  13.795  13.350
55834SOL    HW169399  13.158  13.736  13.399
55834SOL    HW269400  13.276  13.830  13.415
55835SOL     OW69401   0.657   1.956  10.783
55835SOL    HW169402   0.739   1.962  10.832
55835SOL    HW269403   0.635   2.046  10.761
55836SOL     OW69404  11.286  10.107  12.525
55836SOL    HW169405  11.343  10.063  12.462
55836SOL    HW269406  11.224  10.040  12.552
55837SOL     OW69407  11.939   9.908   2.356
55837SOL    HW169408  11.963   9.838   2.416
55837SOL    HW269409  11.859   9.878   2.314
55838SOL     OW69410   1.348   8.033   5.960
55838SOL    HW169411   1.294   8.099   5.915
55838SOL    HW269412   1.289   7.995   6.025
55839SOL     OW69413  10.712   3.124   9.578
55839SOL    HW169414  10.726   3.142   9.485
55839SOL    HW269415  10.799   3.104   9.612
55840SOL     OW69416   7.425   9.329   7.042
55840SOL    HW169417   7.360   9.380   7.090
55840SOL    HW269418   7.384   9.244   7.029
55841SOL     OW69419   8.665  12.962   1.865
55841SOL    HW169420   8.715  13.044   1.856
55841SOL    HW269421   8.582  12.989   1.904
55842SOL     OW69422   6.387   1.837   1.446
55842SOL    HW169423   6.329   1.868   1.516
55842SOL    HW269424   6.421   1.753   1.479
55843SOL     OW69425   9.267  10.336   3.854
55843SOL    HW169426   9.222  10.295   3.927
55843SOL    HW269427   9.262  10.430   3.871
55844SOL     OW69428   5.013   9.006   6.240
55844SOL    HW169429   5.101   9.045   6.247
55844SOL    HW269430   4.953   9.080   6.249
55845SOL     OW69431  11.627  13.961   0.824
55845SOL    HW169432  11.567  14.025   0.864
55845SOL    HW269433  11.660  13.909   0.897
55846SOL     OW69434   9.866   0.588  10.740
55846SOL    HW169435   9.839   0.597  10.649
55846SOL    HW269436   9.857   0.495  10.759
55847SOL     OW69437   2.568   0.512  11.188
55847SOL    HW169438   2.503   0.559  11.241
55847SOL    HW269439   2.608   0.451  11.249
55848SOL     OW69440   5.980  13.381   5.130
55848SOL    HW169441   5.982  13.296   5.174
55848SOL    HW269442   6.012  13.363   5.041
55849SOL     OW69443   2.341   3.014   7.495
55849SOL    HW169444   2.321   2.969   7.578
55849SOL    HW269445   2.290   2.965   7.430
55850SOL     OW69446   5.625   4.817  12.014
55850SOL    HW169447   5.578   4.791  12.094
55850SOL    HW269448   5.677   4.893  12.041
55851SOL     OW69449   2.942   3.406   6.485
55851SOL    HW169450   2.859   3.390   6.530
55851SOL    HW269451   2.962   3.323   6.443
55852SOL     OW69452   0.365  13.047   1.205
55852SOL    HW169453   0.323  12.990   1.140
55852SOL    HW269454   0.295  13.070   1.266
55853SOL     OW69455  11.039   3.529   9.817
55853SOL    HW169456  10.996   3.456   9.863
55853SOL    HW269457  11.042   3.599   9.881
55854SOL     OW69458  11.328  13.113  13.383
55854SOL    HW169459  11.291  13.174  13.446
55854SOL    HW269460  11.354  13.036  13.435
55855SOL     OW69461  11.002  11.698   4.490
55855SOL    HW169462  10.923  11.730   4.534
55855SOL    HW269463  11.029  11.771   4.434
55856SOL     OW69464  12.231  13.669   7.562
55856SOL    HW169465  12.313  13.718   7.560
55856SOL    HW269466  12.238  13.607   7.490
55857SOL     OW69467   9.180   1.033   0.002
55857SOL    HW169468   9.100   1.047   0.052
55857SOL    HW269469   9.187   1.110  14.823
55858SOL     OW69470   2.486   9.793   0.275
55858SOL    HW169471   2.543   9.743   0.216
55858SOL    HW269472   2.402   9.795   0.231
55859SOL     OW69473   6.394   3.880  13.424
55859SOL    HW169474   6.384   3.956  13.368
55859SOL    HW269475   6.329   3.892  13.494
55860SOL     OW69476   5.153  10.090   5.695
55860SOL    HW169477   5.073  10.039   5.705
55860SOL    HW269478   5.173  10.122   5.784
55861SOL     OW69479   7.066   5.796   2.853
55861SOL    HW169480   7.141   5.747   2.818
55861SOL    HW269481   7.001   5.729   2.872
55862SOL     OW69482   1.706   7.245  11.499
55862SOL    HW169483   1.787   7.247  11.447
55862SOL    HW269484   1.658   7.170  11.465
55863SOL     OW69485   9.240   4.888   8.315
55863SOL    HW169486   9.262   4.804   8.355
55863SOL    HW269487   9.215   4.944   8.388
55864SOL     OW69488   8.651  11.286   9.276
55864SOL    HW169489   8.713  11.327   9.215
55864SOL    HW269490   8.684  11.197   9.286
55865SOL     OW69491   2.915   6.182  10.161
55865SOL    HW169492   2.999   6.149  10.129
55865SOL    HW269493   2.878   6.231  10.088
55866SOL     OW69494   4.043  13.665   9.028
55866SOL    HW169495   4.044  13.578   8.989
55866SOL    HW269496   4.072  13.724   8.959
55867SOL     OW69497   3.754   0.200   8.522
55867SOL    HW169498   3.708   0.142   8.584
55867SOL    HW269499   3.836   0.154   8.504
55868SOL     OW69500   4.224   5.578   8.411
55868SOL    HW169501   4.281   5.654   8.428
55868SOL    HW269502   4.174   5.603   8.334
55869SOL     OW69503   1.286   6.271  10.127
55869SOL    HW169504   1.242   6.355  10.116
55869SOL    HW269505   1.233   6.225  10.193
55870SOL     OW69506   9.516   7.910  14.600
55870SOL    HW169507   9.476   7.838  14.551
55870SOL    HW269508   9.572   7.954  14.536
55871SOL     OW69509   5.411   4.315   0.487
55871SOL    HW169510   5.438   4.358   0.568
55871SOL    HW269511   5.326   4.276   0.508
55872SOL     OW69512   9.338   3.189   8.792
55872SOL    HW169513   9.390   3.196   8.712
55872SOL    HW269514   9.268   3.254   8.780
55873SOL     OW69515   5.353   1.404   3.196
55873SOL    HW169516   5.328   1.317   3.166
55873SOL    HW269517   5.427   1.429   3.140
55874SOL     OW69518   6.480   8.940  11.493
55874SOL    HW169519   6.507   8.893  11.572
55874SOL    HW269520   6.456   9.027  11.525
55875SOL     OW69521  14.580  12.575  12.443
55875SOL    HW169522  14.522  12.650  12.437
55875SOL    HW269523  14.668  12.611  12.437
55876SOL     OW69524   1.824   7.149   9.395
55876SOL    HW169525   1.834   7.058   9.366
55876SOL    HW269526   1.729   7.163   9.397
55877SOL     OW69527  11.000   1.624  14.641
55877SOL    HW169528  11.008   1.531  14.658
55877SOL    HW269529  11.038   1.666  14.718
55878SOL     OW69530  13.912   5.024  14.083
55878SOL    HW169531  13.870   5.050  14.165
55878SOL    HW269532  13.841   5.020  14.019
55879SOL     OW69533   7.480  13.227   4.301
55879SOL    HW169534   7.440  13.151   4.344
55879SOL    HW269535   7.439  13.230   4.215
55880SOL     OW69536  14.287  14.347   7.020
55880SOL    HW169537  14.363  14.395   6.987
55880SOL    HW269538  14.227  14.342   6.946
55881SOL     OW69539   6.543  11.693   3.632
55881SOL    HW169540   6.603  11.744   3.686
55881SOL    HW269541   6.585  11.608   3.623
55882SOL     OW69542   9.754  10.866   5.896
55882SOL    HW169543   9.792  10.862   5.983
55882SOL    HW269544   9.827  10.845   5.837
55883SOL     OW69545  12.371   5.517   9.216
55883SOL    HW169546  12.372   5.612   9.203
55883SOL    HW269547  12.397   5.505   9.308
55884SOL     OW69548  14.294   3.112  12.861
55884SOL    HW169549  14.365   3.171  12.835
55884SOL    HW269550  14.234   3.167  12.910
55885SOL     OW69551   7.497   2.883   4.323
55885SOL    HW169552   7.501   2.907   4.230
55885SOL    HW269553   7.465   2.962   4.366
55886SOL     OW69554   0.253  12.561   7.941
55886SOL    HW169555   0.265  12.647   7.900
55886SOL    HW269556   0.257  12.499   7.869
55887SOL     OW69557   0.803   3.237   0.016
55887SOL    HW169558   0.783   3.295  14.820
55887SOL    HW269559   0.874   3.181  14.861
55888SOL     OW69560  13.237   6.494   2.265
55888SOL    HW169561  13.318   6.464   2.224
55888SOL    HW269562  13.170   6.436   2.230
55889SOL     OW69563   6.436  11.438   8.218
55889SOL    HW169564   6.465  11.412   8.305
55889SOL    HW269565   6.341  11.445   8.224
55890SOL     OW69566  14.544   8.575   5.407
55890SOL    HW169567  14.623   8.622   5.378
55890SOL    HW269568  14.473   8.635   5.388
55891SOL     OW69569   4.507   1.373  11.894
55891SOL    HW169570   4.480   1.315  11.965
55891SOL    HW269571   4.530   1.314  11.822
55892SOL     OW69572   4.785   7.231  14.335
55892SOL    HW169573   4.826   7.282  14.265
55892SOL    HW269574   4.752   7.297  14.396
55893SOL     OW69575  12.640   8.237   8.110
55893SOL    HW169576  12.578   8.303   8.081
55893SOL    HW269577  12.618   8.159   8.059
55894SOL     OW69578   6.227   3.950   2.687
55894SOL    HW169579   6.241   3.891   2.761
55894SOL    HW269580   6.279   4.028   2.708
55895SOL     OW69581  12.037   7.220  12.725
55895SOL    HW169582  12.106   7.252  12.666
55895SOL    HW269583  11.987   7.158  12.672
55896SOL     OW69584  14.303   5.680  10.442
55896SOL    HW169585  14.263   5.752  10.490
55896SOL    HW269586  14.238   5.609  10.446
55897SOL     OW69587   1.566   6.334   1.210
55897SOL    HW169588   1.559   6.371   1.298
55897SOL    HW269589   1.599   6.245   1.225
55898SOL     OW69590   0.356   3.901  14.804
55898SOL    HW169591   0.287   3.947  14.853
55898SOL    HW269592   0.328   3.906  14.713
55899SOL     OW69593   9.066   2.378   7.549
55899SOL    HW169594   9.122   2.444   7.589
55899SOL    HW269595   9.001   2.429   7.500
55900SOL     OW69596  14.109  11.866  10.796
55900SOL    HW169597  14.102  11.845  10.703
55900SOL    HW269598  14.019  11.877  10.825
55901SOL     OW69599   6.546   2.852  10.381
55901SOL    HW169600   6.528   2.758  10.389
55901SOL    HW269601   6.490   2.881  10.308
55902SOL     OW69602  10.010  11.421   6.580
55902SOL    HW169603   9.925  11.423   6.536
55902SOL    HW269604  10.074  11.411   6.510
55903SOL     OW69605  12.415  13.714   2.836
55903SOL    HW169606  12.383  13.629   2.808
55903SOL    HW269607  12.427  13.764   2.754
55904SOL     OW69608   4.621   4.946  14.124
55904SOL    HW169609   4.695   4.997  14.092
55904SOL    HW269610   4.608   4.976  14.214
55905SOL     OW69611  12.673  10.074   4.934
55905SOL    HW169612  12.583  10.044   4.945
55905SOL    HW269613  12.726  10.006   4.975
55906SOL     OW69614   1.033  14.421  12.907
55906SOL    HW169615   1.048  14.453  12.996
55906SOL    HW269616   1.077  14.485  12.850
55907SOL     OW69617   1.095   2.295   5.535
55907SOL    HW169618   1.161   2.311   5.468
55907SOL    HW269619   1.039   2.227   5.498
55908SOL     OW69620   2.795  11.599   0.680
55908SOL    HW169621   2.731  11.622   0.613
55908SOL    HW269622   2.832  11.683   0.707
55909SOL     OW69623   9.278   0.860  11.988
55909SOL    HW169624   9.263   0.910  12.068
55909SOL    HW269625   9.204   0.800  11.982
55910SOL     OW69626   5.828   6.787   9.147
55910SOL    HW169627   5.749   6.807   9.198
55910SOL    HW269628   5.840   6.692   9.156
55911SOL     OW69629   0.597   5.434  13.255
55911SOL    HW169630   0.688   5.403  13.250
55911SOL    HW269631   0.603   5.523  13.287
55912SOL     OW69632  13.735   4.025   3.135
55912SOL    HW169633  13.645   4.043   3.162
55912SOL    HW269634  13.729   3.946   3.080
55913SOL     OW69635  13.490   2.839   0.373
55913SOL    HW169636  13.544   2.761   0.358
55913SOL    HW269637  13.400   2.805   0.380
55914SOL     OW69638  13.579   2.630   5.575
55914SOL    HW169639  13.547   2.539   5.576
55914SOL    HW269640  13.533   2.671   5.502
55915SOL     OW69641   1.147   8.332   8.837
55915SOL    HW169642   1.089   8.286   8.777
55915SOL    HW269643   1.227   8.347   8.787
55916SOL     OW69644  14.827   6.810   7.890
55916SOL    HW169645  14.864   6.736   7.940
55916SOL    HW269646  14.795   6.771   7.809
55917SOL     OW69647  10.686   6.956   8.712
55917SOL    HW169648  10.681   6.865   8.739
55917SOL    HW269649  10.771   6.986   8.742
55918SOL     OW69650   9.217   3.992   3.638
55918SOL    HW169651   9.219   3.915   3.695
55918SOL    HW269652   9.160   3.968   3.566
55919SOL     OW69653   0.492   6.224  10.806
55919SOL    HW169654   0.466   6.208  10.715
55919SOL    HW269655   0.486   6.139  10.848
55920SOL     OW69656   7.856   0.309  10.714
55920SOL    HW169657   7.912   0.381  10.744
55920SOL    HW269658   7.839   0.258  10.793
55921SOL     OW69659   0.803  13.123   6.433
55921SOL    HW169660   0.811  13.098   6.341
55921SOL    HW269661   0.830  13.214   6.436
55922SOL     OW69662   0.828  14.490  14.510
55922SOL    HW169663   0.920  14.464  14.524
55922SOL    HW269664   0.794  14.505  14.598
55923SOL     OW69665  11.786   4.893  12.812
55923SOL    HW169666  11.736   4.972  12.791
55923SOL    HW269667  11.739   4.853  12.886
55924SOL     OW69668   3.825   3.773  12.455
55924SOL    HW169669   3.869   3.824  12.522
55924SOL    HW269670   3.855   3.810  12.372
55925SOL     OW69671   3.266   8.640   7.267
55925SOL    HW169672   3.333   8.677   7.325
55925SOL    HW269673   3.277   8.545   7.275
55926SOL     OW69674   4.118  11.340   2.047
55926SOL    HW169675   4.178  11.414   2.045
55926SOL    HW269676   4.147  11.284   1.975
55927SOL     OW69677   3.806   0.391   2.429
55927SOL    HW169678   3.711   0.379   2.429
55927SOL    HW269679   3.835   0.343   2.351
55928SOL     OW69680   6.987  12.320   3.993
55928SOL    HW169681   6.898  12.329   3.961
55928SOL    HW269682   7.031  12.268   3.925
55929SOL     OW69683   0.028  13.493   3.243
55929SOL    HW169684   0.072  13.437   3.307
55929SOL    HW269685   0.064  13.580   3.258
55930SOL     OW69686   3.957   7.128  13.097
55930SOL    HW169687   3.898   7.184  13.046
55930SOL    HW269688   4.020   7.189  13.135
55931SOL     OW69689   8.442   1.966   6.188
55931SOL    HW169690   8.536   1.985   6.187
55931SOL    HW269691   8.413   1.982   6.099
55932SOL     OW69692  12.650   3.942   2.292
55932SOL    HW169693  12.674   3.967   2.203
55932SOL    HW269694  12.607   3.857   2.282
55933SOL     OW69695  11.210  12.722   5.389
55933SOL    HW169696  11.118  12.695   5.391
55933SOL    HW269697  11.259  12.640   5.383
55934SOL     OW69698   2.388   7.614  13.684
55934SOL    HW169699   2.435   7.633  13.765
55934SOL    HW269700   2.453   7.624  13.615
55935SOL     OW69701   4.109   8.545   8.949
55935SOL    HW169702   4.118   8.640   8.947
55935SOL    HW269703   4.078   8.525   9.037
55936SOL     OW69704   9.017  11.154   0.595
55936SOL    HW169705   9.103  11.192   0.577
55936SOL    HW269706   9.036  11.068   0.631
55937SOL     OW69707   2.937   3.663  11.707
55937SOL    HW169708   2.979   3.598  11.651
55937SOL    HW269709   2.897   3.611  11.778
55938SOL     OW69710   2.824   6.500  12.604
55938SOL    HW169711   2.844   6.555  12.528
55938SOL    HW269712   2.893   6.520  12.667
55939SOL     OW69713   4.860   8.832  13.451
55939SOL    HW169714   4.795   8.765  13.429
55939SOL    HW269715   4.890   8.864  13.366
55940SOL     OW69716   2.209  13.266   0.518
55940SOL    HW169717   2.211  13.361   0.504
55940SOL    HW269718   2.128  13.237   0.477
55941SOL     OW69719   7.356   9.879   5.649
55941SOL    HW169720   7.442   9.885   5.692
55941SOL    HW269721   7.375   9.838   5.564
55942SOL     OW69722   5.343   2.000   9.594
55942SOL    HW169723   5.427   1.972   9.557
55942SOL    HW269724   5.335   1.950   9.676
55943SOL     OW69725   4.926  12.309  11.280
55943SOL    HW169726   4.963  12.256  11.210
55943SOL    HW269727   4.990  12.379  11.294
55944SOL     OW69728  12.104  14.459  12.620
55944SOL    HW169729  12.168  14.497  12.559
55944SOL    HW269730  12.062  14.388  12.570
55945SOL     OW69731   0.995  12.857   4.069
55945SOL    HW169732   1.087  12.873   4.048
55945SOL    HW269733   0.987  12.761   4.072
55946SOL     OW69734   9.196   4.342   5.622
55946SOL    HW169735   9.167   4.326   5.532
55946SOL    HW269736   9.270   4.282   5.634
55947SOL     OW69737   4.773   8.808   6.889
55947SOL    HW169738   4.824   8.886   6.866
55947SOL    HW269739   4.733   8.781   6.806
55948SOL     OW69740   7.583   8.965   5.761
55948SOL    HW169741   7.586   9.026   5.834
55948SOL    HW269742   7.541   8.886   5.797
55949SOL     OW69743   2.681  11.074  10.835
55949SOL    HW169744   2.592  11.051  10.861
55949SOL    HW269745   2.732  11.065  10.916
55950SOL     OW69746   9.267   3.915  10.254
55950SOL    HW169747   9.233   3.991  10.301
55950SOL    HW269748   9.322   3.870  10.318
55951SOL     OW69749   3.037  12.155   7.788
55951SOL    HW169750   2.981  12.205   7.729
55951SOL    HW269751   2.981  12.133   7.862
55952SOL     OW69752  10.788   6.997   1.648
55952SOL    HW169753  10.853   7.058   1.613
55952SOL    HW269754  10.825   6.911   1.631
55953SOL     OW69755   5.735  11.483   7.429
55953SOL    HW169756   5.776  11.407   7.387
55953SOL    HW269757   5.805  11.548   7.434
55954SOL     OW69758   1.091  12.548  12.255
55954SOL    HW169759   1.016  12.495  12.280
55954SOL    HW269760   1.130  12.575  12.338
55955SOL     OW69761   9.961  14.797   7.413
55955SOL    HW169762   9.899  14.803   7.486
55955SOL    HW269763   9.977   0.010   7.387
55956SOL     OW69764  13.235   4.667   1.212
55956SOL    HW169765  13.186   4.616   1.148
55956SOL    HW269766  13.229   4.615   1.293
55957SOL     OW69767  10.906  14.735   5.028
55957SOL    HW169768  10.968  14.740   5.101
55957SOL    HW269769  10.960  14.736   4.950
55958SOL     OW69770   0.443   2.151   6.607
55958SOL    HW169771   0.437   2.221   6.542
55958SOL    HW269772   0.385   2.082   6.574
55959SOL     OW69773   9.327  12.175  12.246
55959SOL    HW169774   9.275  12.235  12.300
55959SOL    HW269775   9.276  12.164  12.166
55960SOL     OW69776   5.350   7.993  10.411
55960SOL    HW169777   5.381   7.907  10.439
55960SOL    HW269778   5.255   7.984  10.405
55961SOL     OW69779  14.826   9.742  12.870
55961SOL    HW169780  14.736   9.746  12.902
55961SOL    HW269781   0.002   9.738  12.949
55962SOL     OW69782   6.235  14.273   4.791
55962SOL    HW169783   6.301  14.255   4.858
55962SOL    HW269784   6.202  14.187   4.766
55963SOL     OW69785   6.224   5.516   0.550
55963SOL    HW169786   6.195   5.598   0.510
55963SOL    HW269787   6.213   5.531   0.645
55964SOL     OW69788   5.294   2.517   8.480
55964SOL    HW169789   5.209   2.484   8.509
55964SOL    HW269790   5.291   2.514   8.385
55965SOL     OW69791   1.785   6.972   7.206
55965SOL    HW169792   1.711   6.948   7.150
55965SOL    HW269793   1.843   6.896   7.204
55966SOL     OW69794   7.928  13.403  12.833
55966SOL    HW169795   7.988  13.334  12.862
55966SOL    HW269796   7.874  13.422  12.910
55967SOL     OW69797   3.626   7.509   2.784
55967SOL    HW169798   3.574   7.534   2.860
55967SOL    HW269799   3.595   7.421   2.761
55968SOL     OW69800   1.108   8.984   6.881
55968SOL    HW169801   1.078   8.924   6.949
55968SOL    HW269802   1.078   9.070   6.910
55969SOL     OW69803   2.723  12.254   5.837
55969SOL    HW169804   2.803  12.237   5.786
55969SOL    HW269805   2.725  12.349   5.853
55970SOL     OW69806  14.072   2.681   9.461
55970SOL    HW169807  14.114   2.749   9.408
55970SOL    HW269808  14.136   2.610   9.464
55971SOL     OW69809   0.321   6.736   6.706
55971SOL    HW169810   0.298   6.701   6.619
55971SOL    HW269811   0.276   6.678   6.767
55972SOL     OW69812  14.392   1.789   4.392
55972SOL    HW169813  14.346   1.867   4.423
55972SOL    HW269814  14.423   1.745   4.471
55973SOL     OW69815  12.611   4.257   4.523
55973SOL    HW169816  12.538   4.315   4.501
55973SOL    HW269817  12.568   4.176   4.551
55974SOL     OW69818   7.381   6.957   4.503
55974SOL    HW169819   7.341   7.016   4.439
55974SOL    HW269820   7.400   6.877   4.454
55975SOL     OW69821   4.285   1.059   5.420
55975SOL    HW169822   4.234   1.004   5.480
55975SOL    HW269823   4.220   1.098   5.362
55976SOL     OW69824   7.416  12.117  10.112
55976SOL    HW169825   7.504  12.138  10.144
55976SOL    HW269826   7.415  12.151  10.022
55977SOL     OW69827  11.475   6.598   2.872
55977SOL    HW169828  11.481   6.686   2.908
55977SOL    HW269829  11.439   6.545   2.944
55978SOL     OW69830  12.398   7.617  13.877
55978SOL    HW169831  12.375   7.572  13.958
55978SOL    HW269832  12.332   7.588  13.814
55979SOL     OW69833   4.018   0.238   3.157
55979SOL    HW169834   4.064   0.263   3.078
55979SOL    HW269835   4.076   0.263   3.229
55980SOL     OW69836   1.877  11.586   5.530
55980SOL    HW169837   1.854  11.631   5.611
55980SOL    HW269838   1.907  11.657   5.472
55981SOL     OW69839   7.822   1.837   4.226
55981SOL    HW169840   7.786   1.868   4.309
55981SOL    HW269841   7.844   1.745   4.243
55982SOL     OW69842   4.818   3.662   0.877
55982SOL    HW169843   4.904   3.675   0.918
55982SOL    HW269844   4.771   3.606   0.938
55983SOL     OW69845  11.807   0.789   9.106
55983SOL    HW169846  11.793   0.847   9.181
55983SOL    HW269847  11.776   0.703   9.137
55984SOL     OW69848  14.298   3.681   1.893
55984SOL    HW169849  14.258   3.677   1.980
55984SOL    HW269850  14.245   3.746   1.846
55985SOL     OW69851   9.428  10.632   0.942
55985SOL    HW169852   9.358  10.698   0.943
55985SOL    HW269853   9.392  10.560   0.891
55986SOL     OW69854  11.260   8.746   3.046
55986SOL    HW169855  11.267   8.807   2.973
55986SOL    HW269856  11.336   8.689   3.038
55987SOL     OW69857  12.563   5.576   7.383
55987SOL    HW169858  12.658   5.562   7.386
55987SOL    HW269859  12.535   5.576   7.474
55988SOL     OW69860   5.079   4.745   3.121
55988SOL    HW169861   5.158   4.755   3.068
55988SOL    HW269862   5.112   4.718   3.207
55989SOL     OW69863   0.072   7.887   2.406
55989SOL    HW169864   0.137   7.909   2.340
55989SOL    HW269865  14.877   7.947   2.389
55990SOL     OW69866   5.097  14.238  12.576
55990SOL    HW169867   5.010  14.216  12.609
55990SOL    HW269868   5.137  14.291  12.645
55991SOL     OW69869  14.035   1.700   9.195
55991SOL    HW169870  13.989   1.777   9.162
55991SOL    HW269871  14.039   1.713   9.290
55992SOL     OW69872  11.238   6.854  12.508
55992SOL    HW169873  11.229   6.763  12.481
55992SOL    HW269874  11.331   6.874  12.496
55993SOL     OW69875   1.406   4.064   3.323
55993SOL    HW169876   1.363   3.980   3.312
55993SOL    HW269877   1.357   4.108   3.392
55994SOL     OW69878   5.609   0.660   8.711
55994SOL    HW169879   5.569   0.689   8.628
55994SOL    HW269880   5.536   0.658   8.773
55995SOL     OW69881   0.925  14.264  11.310
55995SOL    HW169882   0.975  14.230  11.236
55995SOL    HW269883   0.923  14.359  11.296
55996SOL     OW69884  13.862   0.814  13.516
55996SOL    HW169885  13.833   0.834  13.605
55996SOL    HW269886  13.785   0.777  13.473
55997SOL     OW69887   5.443  12.363   6.534
55997SOL    HW169888   5.374  12.422   6.564
55997SOL    HW269889   5.456  12.303   6.607
55998SOL     OW69890  10.515   8.917   2.035
55998SOL    HW169891  10.432   8.950   2.070
55998SOL    HW269892  10.563   8.996   2.010
55999SOL     OW69893  14.131   9.391   6.994
55999SOL    HW169894  14.103   9.315   6.944
55999SOL    HW269895  14.199   9.358   7.052
56000SOL     OW69896   8.229   9.810   2.790
56000SOL    HW169897   8.194   9.819   2.878
56000SOL    HW269898   8.233   9.899   2.756
56001SOL     OW69899  13.841   7.217   8.296
56001SOL    HW169900  13.791   7.203   8.377
56001SOL    HW269901  13.890   7.136   8.284
56002SOL     OW69902   9.725   2.924   0.519
56002SOL    HW169903   9.711   2.829   0.520
56002SOL    HW269904   9.669   2.957   0.589
56003SOL     OW69905  14.518  10.491   7.816
56003SOL    HW169906  14.464  10.549   7.761
56003SOL    HW269907  14.600  10.483   7.768
56004SOL     OW69908  13.048   6.122   2.632
56004SOL    HW169909  13.114   6.062   2.596
56004SOL    HW269910  12.965   6.077   2.620
56005SOL     OW69911   7.378   0.189   7.377
56005SOL    HW169912   7.317   0.116   7.369
56005SOL    HW269913   7.423   0.174   7.460
56006SOL     OW69914   7.858   8.939  13.681
56006SOL    HW169915   7.769   8.909  13.661
56006SOL    HW269916   7.914   8.866  13.657
56007SOL     OW69917   3.367   7.847  10.227
56007SOL    HW169918   3.342   7.836  10.136
56007SOL    HW269919   3.291   7.890  10.268
56008SOL     OW69920   6.628   6.904   5.776
56008SOL    HW169921   6.670   6.850   5.709
56008SOL    HW269922   6.691   6.906   5.848
56009SOL     OW69923   0.035   6.528  11.940
56009SOL    HW169924   0.073   6.558  11.858
56009SOL    HW269925  14.860   6.452  11.917
56010SOL     OW69926   6.308   5.921   0.033
56010SOL    HW169927   6.293   5.907  14.817
56010SOL    HW269928   6.249   5.993   0.056
56011SOL     OW69929  10.107  13.757   4.282
56011SOL    HW169930  10.086  13.848   4.301
56011SOL    HW269931  10.126  13.718   4.368
56012SOL     OW69932   7.359   8.145  14.477
56012SOL    HW169933   7.427   8.192  14.429
56012SOL    HW269934   7.378   8.052  14.461
56013SOL     OW69935   9.976  13.686   2.472
56013SOL    HW169936   9.930  13.764   2.440
56013SOL    HW269937   9.992  13.634   2.393
56014SOL     OW69938   7.238  10.305   3.907
56014SOL    HW169939   7.143  10.307   3.918
56014SOL    HW269940   7.261  10.213   3.914
56015SOL     OW69941   1.693  11.047   4.467
56015SOL    HW169942   1.787  11.061   4.460
56015SOL    HW269943   1.675  11.047   4.561
56016SOL     OW69944  10.032  10.913   9.032
56016SOL    HW169945  10.116  10.958   9.041
56016SOL    HW269946   9.999  10.907   9.122
56017SOL     OW69947   0.533   0.197   0.738
56017SOL    HW169948   0.587   0.121   0.757
56017SOL    HW269949   0.528   0.244   0.820
56018SOL     OW69950   9.397   2.088   9.204
56018SOL    HW169951   9.473   2.052   9.249
56018SOL    HW269952   9.327   2.086   9.270
56019SOL     OW69953   3.095   9.538   0.543
56019SOL    HW169954   3.165   9.599   0.568
56019SOL    HW269955   3.133   9.486   0.473
56020SOL     OW69956   5.190   8.224  14.368
56020SOL    HW169957   5.255   8.233  14.438
56020SOL    HW269958   5.164   8.132  14.373
56021SOL     OW69959   8.941  11.978   1.115
56021SOL    HW169960   8.952  11.884   1.097
56021SOL    HW269961   8.994  12.022   1.049
56022SOL     OW69962   1.144   3.496  10.349
56022SOL    HW169963   1.163   3.468  10.439
56022SOL    HW269964   1.219   3.464  10.298
56023SOL     OW69965   2.543   2.128  13.021
56023SOL    HW169966   2.549   2.069  13.096
56023SOL    HW269967   2.464   2.100  12.975
56024SOL     OW69968  11.955   2.683  12.384
56024SOL    HW169969  11.895   2.701  12.456
56024SOL    HW269970  12.002   2.765  12.370
56025SOL     OW69971   2.174   5.011   0.259
56025SOL    HW169972   2.223   4.933   0.285
56025SOL    HW269973   2.230   5.084   0.284
56026SOL     OW69974   2.074   7.804  10.083
56026SOL    HW169975   2.049   7.712  10.093
56026SOL    HW269976   2.086   7.815   9.989
56027SOL     OW69977   8.541  10.321  10.837
56027SOL    HW169978   8.571  10.232  10.818
56027SOL    HW269979   8.610  10.377  10.800
56028SOL     OW69980  11.910   8.287   0.854
56028SOL    HW169981  11.930   8.200   0.888
56028SOL    HW269982  11.994   8.333   0.856
56029SOL     OW69983   2.348   3.929   7.032
56029SOL    HW169984   2.300   3.904   6.953
56029SOL    HW269985   2.437   3.895   7.017
56030SOL     OW69986  12.242   1.916   4.266
56030SOL    HW169987  12.235   1.981   4.336
56030SOL    HW269988  12.331   1.884   4.272
56031SOL     OW69989   1.835  11.893   2.811
56031SOL    HW169990   1.848  11.933   2.725
56031SOL    HW269991   1.907  11.928   2.864
56032SOL     OW69992   8.795   1.659   1.285
56032SOL    HW169993   8.872   1.683   1.233
56032SOL    HW269994   8.724   1.712   1.248
56033SOL     OW69995   2.137  13.640   8.042
56033SOL    HW169996   2.158  13.624   8.134
56033SOL    HW269997   2.137  13.553   8.002
56034SOL     OW69998  12.085   3.638   0.409
56034SOL    HW169999  12.149   3.700   0.375
56034SOL    HW270000  12.062   3.673   0.495
56035SOL     OW70001   4.214   6.276   6.057
56035SOL    HW170002   4.254   6.200   6.098
56035SOL    HW270003   4.219   6.258   5.963
56036SOL     OW70004  12.220  11.650   4.209
56036SOL    HW170005  12.185  11.625   4.123
56036SOL    HW270006  12.309  11.679   4.190
56037SOL     OW70007   3.526   8.992  10.975
56037SOL    HW170008   3.576   8.932  11.031
56037SOL    HW270009   3.583   9.068  10.966
56038SOL     OW70010  11.062   9.197   7.833
56038SOL    HW170011  11.026   9.168   7.917
56038SOL    HW270012  11.146   9.153   7.827
56039SOL     OW70013   4.943   0.943   8.824
56039SOL    HW170014   4.939   0.956   8.729
56039SOL    HW270015   5.018   0.994   8.853
56040SOL     OW70016  12.921   1.567  14.787
56040SOL    HW170017  12.893   1.505  14.855
56040SOL    HW270018  13.015   1.577  14.802
56041SOL     OW70019  10.964   1.034  10.603
56041SOL    HW170020  11.008   0.977  10.666
56041SOL    HW270021  10.883   0.988  10.581
56042SOL     OW70022   8.387   1.612  14.774
56042SOL    HW170023   8.418   1.543  14.832
56042SOL    HW270024   8.428   1.692  14.807
56043SOL     OW70025   8.069  10.712  10.124
56043SOL    HW170026   8.144  10.764  10.154
56043SOL    HW270027   8.033  10.674  10.204
56044SOL     OW70028   3.106   3.692   7.162
56044SOL    HW170029   3.059   3.764   7.119
56044SOL    HW270030   3.189   3.686   7.115
56045SOL     OW70031   3.193  10.758   4.924
56045SOL    HW170032   3.160  10.775   5.012
56045SOL    HW270033   3.117  10.768   4.867
56046SOL     OW70034  13.041  14.308   2.166
56046SOL    HW170035  13.058  14.242   2.099
56046SOL    HW270036  13.104  14.289   2.235
56047SOL     OW70037   0.195  13.497  14.082
56047SOL    HW170038   0.141  13.433  14.129
56047SOL    HW270039   0.268  13.446  14.048
56048SOL     OW70040   2.764  14.428   6.318
56048SOL    HW170041   2.853  14.391   6.318
56048SOL    HW270042   2.778  14.521   6.303
56049SOL     OW70043  14.752   5.391   4.583
56049SOL    HW170044  14.817   5.321   4.572
56049SOL    HW270045  14.774   5.454   4.515
56050SOL     OW70046   1.749   4.997   1.040
56050SOL    HW170047   1.809   4.941   1.089
56050SOL    HW270048   1.748   5.079   1.090
56051SOL     OW70049   4.260  14.733  10.307
56051SOL    HW170050   4.246  14.819  10.345
56051SOL    HW270051   4.254  14.672  10.381
56052SOL     OW70052  10.033  10.784  12.833
56052SOL    HW170053  10.112  10.825  12.869
56052SOL    HW270054   9.976  10.858  12.810
56053SOL     OW70055  14.325   4.054   1.740
56053SOL    HW170056  14.248   4.037   1.794
56053SOL    HW270057  14.315   3.994   1.666
56054SOL     OW70058   7.606   1.566   8.210
56054SOL    HW170059   7.541   1.568   8.140
56054SOL    HW270060   7.555   1.557   8.291
56055SOL     OW70061  13.825   6.040   0.867
56055SOL    HW170062  13.877   5.959   0.875
56055SOL    HW270063  13.835   6.082   0.952
56056SOL     OW70064   7.908   9.499   1.898
56056SOL    HW170065   7.909   9.433   1.968
56056SOL    HW270066   7.996   9.535   1.898
56057SOL     OW70067  14.581   1.540  14.805
56057SOL    HW170068  14.628   1.465  14.769
56057SOL    HW270069  14.607   1.543   0.019
56058SOL     OW70070   3.473   8.678   2.874
56058SOL    HW170071   3.410   8.612   2.846
56058SOL    HW270072   3.458   8.687   2.968
56059SOL     OW70073   5.581  11.795   2.794
56059SOL    HW170074   5.616  11.709   2.817
56059SOL    HW270075   5.573  11.792   2.698
56060SOL     OW70076   5.123   6.343   1.509
56060SOL    HW170077   5.205   6.332   1.462
56060SOL    HW270078   5.115   6.265   1.563
56061SOL     OW70079  11.774   7.920   1.078
56061SOL    HW170080  11.703   7.956   1.131
56061SOL    HW270081  11.771   7.826   1.094
56062SOL     OW70082  11.672   0.854   2.903
56062SOL    HW170083  11.614   0.829   2.975
56062SOL    HW270084  11.673   0.777   2.846
56063SOL     OW70085   3.171   0.493  14.491
56063SOL    HW170086   3.180   0.544  14.572
56063SOL    HW270087   3.077   0.476  14.484
56064SOL     OW70088   3.972   5.383   1.820
56064SOL    HW170089   4.054   5.382   1.869
56064SOL    HW270090   3.998   5.385   1.728
56065SOL     OW70091  13.664   5.252   8.232
56065SOL    HW170092  13.624   5.180   8.281
56065SOL    HW270093  13.695   5.312   8.300
56066SOL     OW70094  10.827   6.286   8.412
56066SOL    HW170095  10.921   6.272   8.397
56066SOL    HW270096  10.795   6.201   8.443
56067SOL     OW70097   9.018   5.732  11.227
56067SOL    HW170098   8.949   5.695  11.172
56067SOL    HW270099   9.041   5.661  11.287
56068SOL     OW70100   5.408  11.621   6.927
56068SOL    HW170101   5.363  11.678   6.989
56068SOL    HW270102   5.495  11.609   6.965
56069SOL     OW70103  10.655   6.481   1.503
56069SOL    HW170104  10.730   6.427   1.526
56069SOL    HW270105  10.647   6.543   1.576
56070SOL     OW70106   9.818   1.258  13.435
56070SOL    HW170107   9.856   1.195  13.374
56070SOL    HW270108   9.763   1.206  13.493
56071SOL     OW70109  10.902   2.499   7.460
56071SOL    HW170110  10.864   2.411   7.456
56071SOL    HW270111  10.850   2.550   7.399
56072SOL     OW70112   1.419   7.216   2.754
56072SOL    HW170113   1.505   7.215   2.795
56072SOL    HW270114   1.377   7.296   2.786
56073SOL     OW70115   3.758   1.519   9.890
56073SOL    HW170116   3.847   1.554   9.892
56073SOL    HW270117   3.716   1.563   9.816
56074SOL     OW70118   7.289   2.021   1.525
56074SOL    HW170119   7.339   2.102   1.525
56074SOL    HW270120   7.346   1.957   1.482
56075SOL     OW70121   0.593  13.221   4.188
56075SOL    HW170122   0.664  13.159   4.204
56075SOL    HW270123   0.522  13.189   4.244
56076SOL     OW70124   7.016   3.017   6.319
56076SOL    HW170125   7.015   3.020   6.224
56076SOL    HW270126   6.954   3.085   6.346
56077SOL     OW70127   5.105   6.934   1.887
56077SOL    HW170128   5.114   7.012   1.941
56077SOL    HW270129   5.033   6.885   1.927
56078SOL     OW70130  10.925  12.850   2.007
56078SOL    HW170131  10.930  12.940   1.976
56078SOL    HW270132  10.890  12.801   1.933
56079SOL     OW70133   1.994   4.208   0.673
56079SOL    HW170134   2.087   4.203   0.653
56079SOL    HW270135   1.985   4.166   0.758
56080SOL     OW70136   2.589  12.341   3.176
56080SOL    HW170137   2.626  12.260   3.212
56080SOL    HW270138   2.650  12.409   3.202
56081SOL     OW70139  12.131  11.008   2.682
56081SOL    HW170140  12.153  10.949   2.754
56081SOL    HW270141  12.111  10.951   2.609
56082SOL     OW70142   0.994   9.027  11.736
56082SOL    HW170143   0.946   9.014  11.655
56082SOL    HW270144   1.086   9.020  11.710
56083SOL     OW70145  12.912   5.418   2.729
56083SOL    HW170146  12.829   5.389   2.768
56083SOL    HW270147  12.974   5.416   2.802
56084SOL     OW70148  14.221   2.121  12.888
56084SOL    HW170149  14.130   2.146  12.879
56084SOL    HW270150  14.234   2.112  12.983
56085SOL     OW70151  13.370  13.492   7.272
56085SOL    HW170152  13.279  13.478   7.298
56085SOL    HW270153  13.372  13.471   7.179
56086SOL     OW70154   8.290  14.263  11.669
56086SOL    HW170155   8.319  14.220  11.588
56086SOL    HW270156   8.342  14.343  11.674
56087SOL     OW70157  14.614   3.111   6.051
56087SOL    HW170158  14.706   3.089   6.062
56087SOL    HW270159  14.571   3.077   6.129
56088SOL     OW70160  13.112  14.448  10.799
56088SOL    HW170161  13.039  14.488  10.751
56088SOL    HW270162  13.078  14.432  10.886
56089SOL     OW70163  11.651   3.071   8.015
56089SOL    HW170164  11.615   3.029   7.937
56089SOL    HW270165  11.626   3.163   8.007
56090SOL     OW70166   5.670  10.077   3.922
56090SOL    HW170167   5.624  10.124   3.852
56090SOL    HW270168   5.732  10.021   3.876
56091SOL     OW70169   5.876   6.436   7.682
56091SOL    HW170170   5.832   6.517   7.656
56091SOL    HW270171   5.960   6.438   7.636
56092SOL     OW70172  10.776   5.605   2.876
56092SOL    HW170173  10.827   5.537   2.921
56092SOL    HW270174  10.734   5.559   2.803
56093SOL     OW70175   3.741  10.311  11.442
56093SOL    HW170176   3.812  10.375  11.430
56093SOL    HW270177   3.784  10.236  11.484
56094SOL     OW70178   5.999   4.863   3.718
56094SOL    HW170179   6.061   4.928   3.752
56094SOL    HW270180   5.923   4.870   3.776
56095SOL     OW70181   2.666   1.919   9.358
56095SOL    HW170182   2.707   1.833   9.371
56095SOL    HW270183   2.686   1.968   9.437
56096SOL     OW70184  14.725   8.260   9.748
56096SOL    HW170185  14.808   8.278   9.792
56096SOL    HW270186  14.660   8.256   9.819
56097SOL     OW70187   6.516   7.756   8.134
56097SOL    HW170188   6.434   7.713   8.110
56097SOL    HW270189   6.565   7.689   8.182
56098SOL     OW70190   3.673  14.302  10.159
56098SOL    HW170191   3.753  14.249  10.163
56098SOL    HW270192   3.652  14.308  10.066
56099SOL     OW70193  12.927  14.081   1.487
56099SOL    HW170194  13.010  14.036   1.503
56099SOL    HW270195  12.864  14.011   1.471
56100SOL     OW70196   7.723  11.981  12.275
56100SOL    HW170197   7.807  12.023  12.292
56100SOL    HW270198   7.663  12.021  12.338
56101SOL     OW70199   0.617   5.990  14.496
56101SOL    HW170200   0.570   6.002  14.579
56101SOL    HW270201   0.677   5.917  14.513
56102SOL     OW70202   3.993   4.313   7.194
56102SOL    HW170203   4.075   4.362   7.199
56102SOL    HW270204   4.020   4.222   7.180
56103SOL     OW70205  14.411  11.898  10.745
56103SOL    HW170206  14.478  11.831  10.739
56103SOL    HW270207  14.341  11.868  10.687
56104SOL     OW70208  11.816   1.730  14.254
56104SOL    HW170209  11.875   1.663  14.290
56104SOL    HW270210  11.772   1.686  14.181
56105SOL     OW70211   4.283   2.218   1.090
56105SOL    HW170212   4.293   2.141   1.033
56105SOL    HW270213   4.295   2.185   1.178
56106SOL     OW70214  10.304   2.471  10.189
56106SOL    HW170215  10.232   2.447  10.130
56106SOL    HW270216  10.379   2.484  10.130
56107SOL     OW70217  13.479   4.261   6.781
56107SOL    HW170218  13.450   4.169   6.784
56107SOL    HW270219  13.398   4.311   6.772
56108SOL     OW70220  12.454   1.959  12.644
56108SOL    HW170221  12.445   2.054  12.635
56108SOL    HW270222  12.528   1.937  12.588
56109SOL     OW70223   6.281   3.924  11.494
56109SOL    HW170224   6.362   3.908  11.447
56109SOL    HW270225   6.225   3.970  11.431
56110SOL     OW70226   7.818  11.068   9.175
56110SOL    HW170227   7.812  11.153   9.131
56110SOL    HW270228   7.727  11.043   9.192
56111SOL     OW70229  13.467   7.146  12.381
56111SOL    HW170230  13.482   7.228  12.429
56111SOL    HW270231  13.417   7.092  12.443
56112SOL     OW70232   9.817   2.100   0.875
56112SOL    HW170233   9.778   2.142   0.799
56112SOL    HW270234   9.813   2.006   0.855
56113SOL     OW70235   9.697   6.019   1.443
56113SOL    HW170236   9.728   6.028   1.533
56113SOL    HW270237   9.733   5.935   1.413
56114SOL     OW70238   7.776  13.997  11.315
56114SOL    HW170239   7.865  13.977  11.287
56114SOL    HW270240   7.754  14.077  11.268
56115SOL     OW70241   2.695   4.304   5.451
56115SOL    HW170242   2.618   4.248   5.458
56115SOL    HW270243   2.686   4.347   5.366
56116SOL     OW70244   9.536  13.823   7.691
56116SOL    HW170245   9.566  13.853   7.776
56116SOL    HW270246   9.443  13.803   7.703
56117SOL     OW70247   1.162   9.544   8.414
56117SOL    HW170248   1.099   9.615   8.423
56117SOL    HW270249   1.133   9.495   8.337
56118SOL     OW70250   6.885   6.958   4.490
56118SOL    HW170251   6.791   6.969   4.505
56118SOL    HW270252   6.911   6.891   4.553
56119SOL     OW70253   5.536  10.780   9.788
56119SOL    HW170254   5.488  10.714   9.838
56119SOL    HW270255   5.588  10.826   9.853
56120SOL     OW70256   4.793   5.349  12.590
56120SOL    HW170257   4.886   5.334  12.580
56120SOL    HW270258   4.787   5.431  12.638
56121SOL     OW70259   1.187   7.278   7.553
56121SOL    HW170260   1.248   7.252   7.623
56121SOL    HW270261   1.110   7.311   7.599
56122SOL     OW70262   3.128  10.573   8.709
56122SOL    HW170263   3.107  10.563   8.801
56122SOL    HW270264   3.131  10.667   8.694
56123SOL     OW70265   8.005   1.214   5.296
56123SOL    HW170266   8.019   1.147   5.362
56123SOL    HW270267   8.052   1.291   5.328
56124SOL     OW70268   9.849   5.659   1.903
56124SOL    HW170269   9.871   5.745   1.938
56124SOL    HW270270   9.805   5.614   1.975
56125SOL     OW70271   1.020   1.771   8.204
56125SOL    HW170272   1.041   1.864   8.214
56125SOL    HW270273   0.926   1.766   8.218
56126SOL     OW70274  10.187   6.762   8.124
56126SOL    HW170275  10.221   6.673   8.110
56126SOL    HW270276  10.105   6.764   8.074
56127SOL     OW70277   5.467   1.581  10.343
56127SOL    HW170278   5.528   1.593  10.271
56127SOL    HW270279   5.519   1.542  10.413
56128SOL     OW70280   8.762  13.686   0.474
56128SOL    HW170281   8.825  13.654   0.410
56128SOL    HW270282   8.812  13.690   0.556
56129SOL     OW70283   3.625   9.677   7.331
56129SOL    HW170284   3.691   9.745   7.344
56129SOL    HW270285   3.637   9.619   7.406
56130SOL     OW70286  14.595   1.800  12.137
56130SOL    HW170287  14.526   1.743  12.170
56130SOL    HW270288  14.554   1.886  12.130
56131SOL     OW70289   8.169   4.885  14.797
56131SOL    HW170290   8.111   4.913  14.726
56131SOL    HW270291   8.116   4.891  14.876
56132SOL     OW70292  14.483  10.588   5.966
56132SOL    HW170293  14.400  10.635   5.954
56132SOL    HW270294  14.492  10.535   5.887
56133SOL     OW70295   8.837  11.640  11.240
56133SOL    HW170296   8.794  11.720  11.271
56133SOL    HW270297   8.803  11.626  11.152
56134SOL     OW70298  13.914   9.849   7.165
56134SOL    HW170299  13.851   9.870   7.234
56134SOL    HW270300  13.891   9.759   7.139
56135SOL     OW70301   7.069   2.162   1.782
56135SOL    HW170302   7.096   2.252   1.765
56135SOL    HW270303   7.103   2.142   1.869
56136SOL     OW70304   5.993   2.123   9.861
56136SOL    HW170305   6.035   2.055   9.808
56136SOL    HW270306   6.011   2.098   9.951
56137SOL     OW70307   0.578   4.053   8.156
56137SOL    HW170308   0.607   4.032   8.245
56137SOL    HW270309   0.638   4.122   8.127
56138SOL     OW70310  13.050  10.241  10.542
56138SOL    HW170311  13.090  10.326  10.526
56138SOL    HW270312  13.051  10.197  10.457
56139SOL     OW70313  11.062   2.639   1.527
56139SOL    HW170314  11.118   2.568   1.496
56139SOL    HW270315  10.990   2.595   1.571
56140SOL     OW70316  10.156  11.886   5.869
56140SOL    HW170317  10.230  11.829   5.850
56140SOL    HW270318  10.176  11.967   5.822
56141SOL     OW70319   8.806  11.015   5.564
56141SOL    HW170320   8.783  10.986   5.475
56141SOL    HW270321   8.769  11.103   5.570
56142SOL     OW70322   7.887   4.390   1.648
56142SOL    HW170323   7.901   4.482   1.672
56142SOL    HW270324   7.837   4.354   1.722
56143SOL     OW70325   7.757  11.528   7.571
56143SOL    HW170326   7.820  11.469   7.531
56143SOL    HW270327   7.746  11.599   7.507
56144SOL     OW70328   3.171   5.390   5.952
56144SOL    HW170329   3.255   5.353   5.980
56144SOL    HW270330   3.184   5.413   5.861
56145SOL     OW70331   8.525   5.321   6.810
56145SOL    HW170332   8.445   5.324   6.758
56145SOL    HW270333   8.494   5.316   6.901
56146SOL     OW70334   1.095   8.509  14.613
56146SOL    HW170335   1.184   8.533  14.588
56146SOL    HW270336   1.094   8.414  14.611
56147SOL     OW70337   7.184   6.707   2.783
56147SOL    HW170338   7.276   6.721   2.803
56147SOL    HW270339   7.148   6.795   2.775
56148SOL     OW70340  12.807   5.686   9.011
56148SOL    HW170341  12.845   5.751   8.951
56148SOL    HW270342  12.713   5.688   8.993
56149SOL     OW70343   9.857   7.105   0.050
56149SOL    HW170344   9.861   7.129  14.835
56149SOL    HW270345   9.925   7.158   0.091
56150SOL     OW70346  14.846   3.951  12.965
56150SOL    HW170347  14.801   3.888  13.021
56150SOL    HW270348  14.849   4.032  13.016
56151SOL     OW70349   3.850  14.554  10.015
56151SOL    HW170350   3.924  14.542   9.955
56151SOL    HW270351   3.818  14.642   9.996
56152SOL     OW70352   2.246   4.674   4.320
56152SOL    HW170353   2.274   4.592   4.361
56152SOL    HW270354   2.256   4.657   4.226
56153SOL     OW70355  10.626   1.071   6.292
56153SOL    HW170356  10.709   1.107   6.325
56153SOL    HW270357  10.565   1.083   6.365
56154SOL     OW70358   1.590  10.998   0.633
56154SOL    HW170359   1.595  10.918   0.581
56154SOL    HW270360   1.500  10.999   0.666
56155SOL     OW70361   8.025  13.987   9.327
56155SOL    HW170362   8.051  14.050   9.394
56155SOL    HW270363   8.066  13.905   9.354
56156SOL     OW70364  10.061   9.920   9.116
56156SOL    HW170365   9.970   9.889   9.111
56156SOL    HW270366  10.088   9.928   9.024
56157SOL     OW70367  13.429  11.685   9.133
56157SOL    HW170368  13.469  11.677   9.219
56157SOL    HW270369  13.372  11.609   9.125
56158SOL     OW70370  14.234   2.547  10.704
56158SOL    HW170371  14.252   2.473  10.762
56158SOL    HW270372  14.208   2.507  10.621
56159SOL     OW70373   7.182   3.609   9.813
56159SOL    HW170374   7.187   3.596   9.718
56159SOL    HW270375   7.251   3.672   9.833
56160SOL     OW70376   0.766   3.915   0.394
56160SOL    HW170377   0.676   3.939   0.375
56160SOL    HW270378   0.759   3.842   0.457
56161SOL     OW70379   4.574   0.362   0.888
56161SOL    HW170380   4.607   0.331   0.972
56161SOL    HW270381   4.549   0.453   0.904
56162SOL     OW70382   8.272   3.590   8.248
56162SOL    HW170383   8.330   3.524   8.286
56162SOL    HW270384   8.290   3.588   8.154
56163SOL     OW70385  11.547  11.636   0.051
56163SOL    HW170386  11.540  11.672  14.840
56163SOL    HW270387  11.637  11.603   0.057
56164SOL     OW70388   4.874  13.060   1.766
56164SOL    HW170389   4.967  13.079   1.780
56164SOL    HW270390   4.856  13.090   1.677
56165SOL     OW70391  13.978   3.817   8.120
56165SOL    HW170392  13.999   3.734   8.164
56165SOL    HW270393  14.048   3.877   8.147
56166SOL     OW70394   9.204   7.152   3.828
56166SOL    HW170395   9.182   7.174   3.918
56166SOL    HW270396   9.298   7.134   3.829
56167SOL     OW70397   9.629   1.630   6.635
56167SOL    HW170398   9.551   1.686   6.635
56167SOL    HW270399   9.595   1.543   6.612
56168SOL     OW70400   0.003   4.621   2.101
56168SOL    HW170401   0.051   4.616   2.019
56168SOL    HW270402   0.046   4.691   2.151
56169SOL     OW70403  14.621   8.510  12.121
56169SOL    HW170404  14.556   8.549  12.179
56169SOL    HW270405  14.580   8.430  12.089
56170SOL     OW70406   5.110   1.201   4.273
56170SOL    HW170407   5.076   1.255   4.344
56170SOL    HW270408   5.134   1.264   4.205
56171SOL     OW70409  12.983  14.167   4.192
56171SOL    HW170410  12.978  14.083   4.146
56171SOL    HW270411  12.927  14.155   4.268
56172SOL     OW70412  14.053   9.892  11.085
56172SOL    HW170413  14.079   9.975  11.126
56172SOL    HW270414  13.980   9.916  11.027
56173SOL     OW70415   6.460   9.489  14.739
56173SOL    HW170416   6.529   9.452  14.793
56173SOL    HW270417   6.483   9.582  14.731
56174SOL     OW70418   9.582  14.414   0.702
56174SOL    HW170419   9.544  14.502   0.711
56174SOL    HW270420   9.538  14.362   0.769
56175SOL     OW70421  10.065   7.899   0.599
56175SOL    HW170422   9.991   7.858   0.645
56175SOL    HW270423  10.029   7.982   0.566
56176SOL     OW70424   1.913   6.456   7.937
56176SOL    HW170425   1.850   6.501   7.881
56176SOL    HW270426   1.998   6.486   7.906
56177SOL     OW70427   0.109   6.908  11.922
56177SOL    HW170428   0.042   6.840  11.929
56177SOL    HW270429   0.115   6.927  11.828
56178SOL     OW70430   9.739  12.810  10.271
56178SOL    HW170431   9.734  12.716  10.290
56178SOL    HW270432   9.667  12.848  10.322
56179SOL     OW70433   2.521   9.694   3.117
56179SOL    HW170434   2.458   9.725   3.182
56179SOL    HW270435   2.468   9.659   3.046
56180SOL     OW70436   7.789  11.975  14.187
56180SOL    HW170437   7.810  12.068  14.192
56180SOL    HW270438   7.846  11.934  14.252
56181SOL     OW70439   5.756  10.046  10.126
56181SOL    HW170440   5.771  10.137  10.151
56181SOL    HW270441   5.791   9.995  10.199
56182SOL     OW70442   3.800  13.306   6.340
56182SOL    HW170443   3.846  13.263   6.412
56182SOL    HW270444   3.761  13.383   6.379
56183SOL     OW70445   5.775   7.643  14.244
56183SOL    HW170446   5.793   7.723  14.293
56183SOL    HW270447   5.747   7.673  14.158
56184SOL     OW70448   8.302  12.979   7.194
56184SOL    HW170449   8.239  13.036   7.151
56184SOL    HW270450   8.331  12.919   7.125
56185SOL     OW70451   7.844   9.608   2.674
56185SOL    HW170452   7.872   9.636   2.587
56185SOL    HW270453   7.789   9.680   2.705
56186SOL     OW70454   7.725   3.623   4.405
56186SOL    HW170455   7.790   3.557   4.382
56186SOL    HW270456   7.663   3.577   4.461
56187SOL     OW70457   2.057   9.347  13.210
56187SOL    HW170458   2.081   9.433  13.246
56187SOL    HW270459   1.980   9.321  13.261
56188SOL     OW70460   7.796   1.843   1.899
56188SOL    HW170461   7.816   1.757   1.935
56188SOL    HW270462   7.850   1.904   1.950
56189SOL     OW70463  11.510   1.729   0.004
56189SOL    HW170464  11.479   1.717  14.792
56189SOL    HW270465  11.521   1.640   0.038
56190SOL     OW70466   2.109  12.245  13.744
56190SOL    HW170467   2.114  12.330  13.789
56190SOL    HW270468   2.083  12.267  13.655
56191SOL     OW70469   3.257  11.921   8.464
56191SOL    HW170470   3.204  11.868   8.404
56191SOL    HW270471   3.347  11.896   8.444
56192SOL     OW70472  14.216   5.381  14.345
56192SOL    HW170473  14.233   5.340  14.430
56192SOL    HW270474  14.260   5.324  14.282
56193SOL     OW70475   0.706   3.685  14.353
56193SOL    HW170476   0.801   3.681  14.342
56193SOL    HW270477   0.674   3.604  14.314
56194SOL     OW70478   4.976  14.808  13.614
56194SOL    HW170479   5.062  14.793  13.654
56194SOL    HW270480   4.941   0.007  13.660
56195SOL     OW70481  14.317  11.285   8.955
56195SOL    HW170482  14.379  11.308   8.885
56195SOL    HW270483  14.366  11.300   9.036
56196SOL     OW70484   7.812   7.334   1.784
56196SOL    HW170485   7.783   7.316   1.695
56196SOL    HW270486   7.817   7.249   1.826
56197SOL     OW70487   5.421   3.080  13.273
56197SOL    HW170488   5.327   3.100  13.271
56197SOL    HW270489   5.463   3.165  13.285
56198SOL     OW70490   6.676   8.627  10.301
56198SOL    HW170491   6.645   8.717  10.291
56198SOL    HW270492   6.626   8.592  10.375
56199SOL     OW70493  12.768  14.124   9.269
56199SOL    HW170494  12.700  14.126   9.337
56199SOL    HW270495  12.848  14.101   9.316
56200SOL     OW70496   3.352   3.761   8.314
56200SOL    HW170497   3.298   3.699   8.265
56200SOL    HW270498   3.300   3.842   8.315
56201SOL     OW70499  14.190   5.907   9.392
56201SOL    HW170500  14.157   5.845   9.457
56201SOL    HW270501  14.235   5.853   9.328
56202SOL     OW70502  13.058   1.635  13.657
56202SOL    HW170503  13.017   1.550  13.639
56202SOL    HW270504  13.104   1.656  13.575
56203SOL     OW70505   5.008  11.090   7.840
56203SOL    HW170506   4.941  11.157   7.829
56203SOL    HW270507   4.999  11.034   7.763
56204SOL     OW70508   0.395  11.233   5.272
56204SOL    HW170509   0.490  11.231   5.285
56204SOL    HW270510   0.378  11.318   5.232
56205SOL     OW70511  12.763   8.238  13.342
56205SOL    HW170512  12.786   8.166  13.284
56205SOL    HW270513  12.732   8.307  13.283
56206SOL     OW70514   0.781  12.658  10.218
56206SOL    HW170515   0.826  12.629  10.139
56206SOL    HW270516   0.750  12.577  10.259
56207SOL     OW70517   5.684   7.440  12.396
56207SOL    HW170518   5.658   7.443  12.489
56207SOL    HW270519   5.602   7.427  12.349
56208SOL     OW70520   8.867  11.950   2.523
56208SOL    HW170521   8.932  11.920   2.586
56208SOL    HW270522   8.894  11.911   2.440
56209SOL     OW70523  12.520   0.423   0.542
56209SOL    HW170524  12.515   0.426   0.446
56209SOL    HW270525  12.614   0.429   0.560
56210SOL     OW70526   4.381  11.599   9.887
56210SOL    HW170527   4.447  11.626   9.823
56210SOL    HW270528   4.392  11.505   9.895
56211SOL     OW70529  11.016  13.593   7.867
56211SOL    HW170530  10.969  13.629   7.942
56211SOL    HW270531  11.027  13.500   7.888
56212SOL     OW70532  14.244   1.067   8.560
56212SOL    HW170533  14.183   1.064   8.634
56212SOL    HW270534  14.190   1.096   8.486
56213SOL     OW70535  13.473   5.580   9.919
56213SOL    HW170536  13.538   5.559   9.986
56213SOL    HW270537  13.451   5.496   9.879
56214SOL     OW70538   4.212   4.549   2.334
56214SOL    HW170539   4.136   4.607   2.331
56214SOL    HW270540   4.217   4.511   2.246
56215SOL     OW70541  10.479  12.311  14.674
56215SOL    HW170542  10.415  12.379  14.695
56215SOL    HW270543  10.463  12.242  14.738
56216SOL     OW70544   7.803  13.646  10.479
56216SOL    HW170545   7.775  13.666  10.569
56216SOL    HW270546   7.809  13.551  10.477
56217SOL     OW70547   4.437  13.532   1.246
56217SOL    HW170548   4.426  13.442   1.215
56217SOL    HW270549   4.522  13.532   1.290
56218SOL     OW70550   2.944  11.118  14.620
56218SOL    HW170551   2.960  11.024  14.608
56218SOL    HW270552   3.025  11.151  14.656
56219SOL     OW70553   4.005   7.976   9.984
56219SOL    HW170554   3.961   8.000   9.902
56219SOL    HW270555   4.005   7.881   9.984
56220SOL     OW70556   1.469   2.664  14.283
56220SOL    HW170557   1.422   2.647  14.365
56220SOL    HW270558   1.537   2.726  14.307
56221SOL     OW70559   3.028  10.871  14.626
56221SOL    HW170560   3.034  10.777  14.640
56221SOL    HW270561   3.110  10.893  14.581
56222SOL     OW70562   6.839   5.815   1.707
56222SOL    HW170563   6.914   5.756   1.707
56222SOL    HW270564   6.814   5.823   1.799
56223SOL     OW70565   8.270   3.652   3.433
56223SOL    HW170566   8.312   3.691   3.510
56223SOL    HW270567   8.265   3.559   3.453
56224SOL     OW70568  12.335  12.347   0.978
56224SOL    HW170569  12.311  12.377   0.890
56224SOL    HW270570  12.423  12.310   0.968
56225SOL     OW70571   7.146   3.479  11.409
56225SOL    HW170572   7.108   3.555  11.453
56225SOL    HW270573   7.156   3.507  11.318
56226SOL     OW70574   7.491  10.949   0.708
56226SOL    HW170575   7.533  10.868   0.736
56226SOL    HW270576   7.430  10.922   0.640
56227SOL     OW70577   9.502   2.327  11.992
56227SOL    HW170578   9.572   2.263  12.001
56227SOL    HW270579   9.430   2.279  11.952
56228SOL     OW70580   2.256   0.728   6.601
56228SOL    HW170581   2.254   0.644   6.556
56228SOL    HW270582   2.262   0.792   6.529
56229SOL     OW70583  14.676   2.759  10.783
56229SOL    HW170584  14.595   2.766  10.732
56229SOL    HW270585  14.744   2.796  10.726
56230SOL     OW70586   8.924  12.490   5.424
56230SOL    HW170587   8.987  12.560   5.412
56230SOL    HW270588   8.864  12.522   5.492
56231SOL     OW70589   2.181   3.785   5.661
56231SOL    HW170590   2.136   3.772   5.578
56231SOL    HW270591   2.245   3.714   5.665
56232SOL     OW70592  13.273  10.708   8.123
56232SOL    HW170593  13.281  10.613   8.126
56232SOL    HW270594  13.190  10.723   8.078
56233SOL     OW70595   6.655   4.638   8.080
56233SOL    HW170596   6.673   4.646   8.173
56233SOL    HW270597   6.566   4.605   8.075
56234SOL     OW70598   3.058   7.956   2.625
56234SOL    HW170599   3.124   8.019   2.597
56234SOL    HW270600   3.107   7.877   2.648
56235SOL     OW70601  13.990  14.054   2.759
56235SOL    HW170602  14.056  14.118   2.788
56235SOL    HW270603  13.936  14.102   2.696
56236SOL     OW70604   3.966   0.048  10.234
56236SOL    HW170605   3.965   0.144  10.236
56236SOL    HW270606   4.020   0.024  10.310
56237SOL     OW70607   0.420   4.572  10.793
56237SOL    HW170608   0.349   4.508  10.791
56237SOL    HW270609   0.396   4.638  10.728
56238SOL     OW70610   2.707   2.171   6.243
56238SOL    HW170611   2.759   2.194   6.166
56238SOL    HW270612   2.765   2.114   6.294
56239SOL     OW70613   4.337   4.913  12.888
56239SOL    HW170614   4.345   4.865  12.970
56239SOL    HW270615   4.256   4.963  12.896
56240SOL     OW70616   0.593   4.699   7.040
56240SOL    HW170617   0.511   4.740   7.069
56240SOL    HW270618   0.657   4.770   7.042
56241SOL     OW70619  11.928  14.598  12.210
56241SOL    HW170620  12.017  14.571  12.232
56241SOL    HW270621  11.915  14.681  12.257
56242SOL     OW70622  11.520   0.950   5.515
56242SOL    HW170623  11.458   0.971   5.585
56242SOL    HW270624  11.467   0.904   5.449
56243SOL     OW70625   7.199   8.976   7.644
56243SOL    HW170626   7.237   8.888   7.644
56243SOL    HW270627   7.196   9.002   7.736
56244SOL     OW70628  13.316   1.691   1.439
56244SOL    HW170629  13.357   1.625   1.382
56244SOL    HW270630  13.324   1.773   1.390
56245SOL     OW70631   7.635   4.877   5.289
56245SOL    HW170632   7.622   4.953   5.346
56245SOL    HW270633   7.548   4.861   5.251
56246SOL     OW70634   4.857   9.682   2.249
56246SOL    HW170635   4.793   9.738   2.293
56246SOL    HW270636   4.852   9.599   2.297
56247SOL     OW70637   8.768   8.609   7.260
56247SOL    HW170638   8.825   8.674   7.301
56247SOL    HW270639   8.679   8.635   7.286
56248SOL     OW70640  11.846   5.081  13.512
56248SOL    HW170641  11.776   5.025  13.543
56248SOL    HW270642  11.925   5.027  13.517
56249SOL     OW70643   3.581   6.377  14.425
56249SOL    HW170644   3.513   6.316  14.397
56249SOL    HW270645   3.551   6.407  14.511
56250SOL     OW70646   4.334   4.911  12.548
56250SOL    HW170647   4.341   4.954  12.463
56250SOL    HW270648   4.419   4.870  12.562
56251SOL     OW70649   5.756  14.186   8.567
56251SOL    HW170650   5.737  14.117   8.504
56251SOL    HW270651   5.709  14.263   8.534
56252SOL     OW70652   5.180   6.053   4.220
56252SOL    HW170653   5.177   6.062   4.125
56252SOL    HW270654   5.217   5.966   4.235
56253SOL     OW70655   6.407   4.704   9.109
56253SOL    HW170656   6.372   4.689   9.197
56253SOL    HW270657   6.498   4.677   9.114
56254SOL     OW70658  10.372   3.909   4.719
56254SOL    HW170659  10.307   3.961   4.768
56254SOL    HW270660  10.343   3.916   4.628
56255SOL     OW70661  12.302   6.185   3.453
56255SOL    HW170662  12.369   6.218   3.394
56255SOL    HW270663  12.269   6.106   3.411
56256SOL     OW70664   5.032   3.559   3.221
56256SOL    HW170665   5.051   3.466   3.209
56256SOL    HW270666   5.004   3.566   3.313
56257SOL     OW70667   3.421   6.397   1.005
56257SOL    HW170668   3.495   6.389   1.066
56257SOL    HW270669   3.385   6.308   1.001
56258SOL     OW70670  12.972  13.835   3.751
56258SOL    HW170671  12.997  13.887   3.675
56258SOL    HW270672  12.951  13.899   3.818
56259SOL     OW70673  13.620   0.091   4.004
56259SOL    HW170674  13.666   0.164   4.045
56259SOL    HW270675  13.647   0.095   3.912
56260SOL     OW70676   0.961  12.303  14.645
56260SOL    HW170677   0.895  12.241  14.614
56260SOL    HW270678   0.983  12.355  14.567
56261SOL     OW70679   5.975   6.894   9.436
56261SOL    HW170680   6.040   6.856   9.377
56261SOL    HW270681   5.935   6.819   9.479
56262SOL     OW70682  13.280   1.222   6.594
56262SOL    HW170683  13.269   1.278   6.671
56262SOL    HW270684  13.242   1.138   6.619
56263SOL     OW70685   6.493   7.326   7.223
56263SOL    HW170686   6.580   7.362   7.242
56263SOL    HW270687   6.510   7.257   7.160
56264SOL     OW70688   0.560   3.089   7.587
56264SOL    HW170689   0.554   3.185   7.589
56264SOL    HW270690   0.484   3.062   7.536
56265SOL     OW70691   0.138   8.837   7.007
56265SOL    HW170692   0.152   8.874   7.094
56265SOL    HW270693   0.043   8.823   7.002
56266SOL     OW70694   7.974   1.613   9.609
56266SOL    HW170695   7.942   1.658   9.531
56266SOL    HW270696   7.897   1.568   9.644
56267SOL     OW70697   1.519  13.407   7.178
56267SOL    HW170698   1.471  13.328   7.152
56267SOL    HW270699   1.518  13.462   7.100
56268SOL     OW70700  12.995   3.345   2.239
56268SOL    HW170701  13.013   3.298   2.321
56268SOL    HW270702  12.979   3.435   2.265
56269SOL     OW70703  14.155  14.268  10.232
56269SOL    HW170704  14.096  14.267  10.156
56269SOL    HW270705  14.141  14.355  10.271
56270SOL     OW70706   2.027  14.120  12.723
56270SOL    HW170707   2.062  14.050  12.667
56270SOL    HW270708   2.080  14.115  12.803
56271SOL     OW70709   5.851   9.012   1.797
56271SOL    HW170710   5.857   9.107   1.792
56271SOL    HW270711   5.942   8.983   1.812
56272SOL     OW70712   9.155   0.287  10.342
56272SOL    HW170713   9.202   0.267  10.261
56272SOL    HW270714   9.127   0.201  10.375
56273SOL     OW70715  11.808  13.467   2.215
56273SOL    HW170716  11.731  13.417   2.240
56273SOL    HW270717  11.872  13.401   2.188
56274SOL     OW70718   5.018   9.669  12.452
56274SOL    HW170719   5.047   9.601  12.392
56274SOL    HW270720   5.055   9.644  12.537
56275SOL     OW70721   6.076   4.906   2.613
56275SOL    HW170722   6.100   4.814   2.597
56275SOL    HW270723   6.072   4.913   2.708
56276SOL     OW70724   2.756   5.468   4.258
56276SOL    HW170725   2.809   5.399   4.296
56276SOL    HW270726   2.728   5.433   4.173
56277SOL     OW70727  11.569   1.341   5.804
56277SOL    HW170728  11.477   1.322   5.823
56277SOL    HW270729  11.567   1.431   5.771
56278SOL     OW70730   5.385   5.238   5.107
56278SOL    HW170731   5.304   5.192   5.128
56278SOL    HW270732   5.385   5.244   5.012
56279SOL     OW70733   5.069  13.031   5.716
56279SOL    HW170734   4.984  13.000   5.683
56279SOL    HW270735   5.121  13.043   5.637
56280SOL     OW70736   3.835  11.815  14.334
56280SOL    HW170737   3.741  11.820  14.314
56280SOL    HW270738   3.838  11.801  14.429
56281SOL     OW70739   0.267  10.668   8.963
56281SOL    HW170740   0.310  10.646   8.880
56281SOL    HW270741   0.251  10.583   9.004
56282SOL     OW70742   4.234   4.633   7.952
56282SOL    HW170743   4.214   4.593   7.867
56282SOL    HW270744   4.241   4.559   8.012
56283SOL     OW70745  12.735  11.549   4.847
56283SOL    HW170746  12.676  11.558   4.922
56283SOL    HW270747  12.703  11.612   4.783
56284SOL     OW70748  13.530  10.747   0.414
56284SOL    HW170749  13.503  10.668   0.463
56284SOL    HW270750  13.617  10.767   0.448
56285SOL     OW70751  13.790   8.202   7.747
56285SOL    HW170752  13.821   8.113   7.758
56285SOL    HW270753  13.706   8.204   7.794
56286SOL     OW70754   6.563  11.136   1.822
56286SOL    HW170755   6.577  11.042   1.832
56286SOL    HW270756   6.639  11.167   1.771
56287SOL     OW70757  11.609   0.267   6.368
56287SOL    HW170758  11.672   0.324   6.324
56287SOL    HW270759  11.526   0.314   6.362
56288SOL     OW70760  12.897   9.281   7.646
56288SOL    HW170761  12.975   9.307   7.597
56288SOL    HW270762  12.829   9.270   7.579
56289SOL     OW70763   0.242  12.164   2.001
56289SOL    HW170764   0.254  12.084   2.052
56289SOL    HW270765   0.155  12.154   1.962
56290SOL     OW70766  10.992   2.504   6.546
56290SOL    HW170767  10.927   2.540   6.607
56290SOL    HW270768  10.945   2.494   6.464
56291SOL     OW70769  14.505   3.186  12.421
56291SOL    HW170770  14.535   3.158  12.508
56291SOL    HW270771  14.453   3.264  12.439
56292SOL     OW70772  10.605  11.851  10.196
56292SOL    HW170773  10.628  11.816  10.110
56292SOL    HW270774  10.641  11.789  10.259
56293SOL     OW70775   9.839  13.522  14.405
56293SOL    HW170776   9.778  13.589  14.374
56293SOL    HW270777   9.898  13.568  14.464
56294SOL     OW70778  14.370  11.360  12.519
56294SOL    HW170779  14.368  11.333  12.427
56294SOL    HW270780  14.319  11.441  12.521
56295SOL     OW70781   2.736   1.705   4.625
56295SOL    HW170782   2.670   1.764   4.589
56295SOL    HW270783   2.765   1.653   4.550
56296SOL     OW70784  11.580   1.452   9.383
56296SOL    HW170785  11.587   1.387   9.313
56296SOL    HW270786  11.516   1.415   9.444
56297SOL     OW70787   1.571   3.453  10.843
56297SOL    HW170788   1.514   3.519  10.803
56297SOL    HW270789   1.607   3.496  10.921
56298SOL     OW70790  14.780  11.143   2.714
56298SOL    HW170791  14.733  11.101   2.642
56298SOL    HW270792  14.872  11.131   2.693
56299SOL     OW70793   3.058   7.366   1.977
56299SOL    HW170794   3.105   7.440   2.016
56299SOL    HW270795   3.123   7.297   1.970
56300SOL     OW70796   3.362   2.665   2.308
56300SOL    HW170797   3.319   2.646   2.391
56300SOL    HW270798   3.384   2.579   2.272
56301SOL     OW70799  10.814  11.089   1.298
56301SOL    HW170800  10.819  11.114   1.391
56301SOL    HW270801  10.729  11.048   1.289
56302SOL     OW70802   8.498  12.142   8.032
56302SOL    HW170803   8.452  12.151   8.115
56302SOL    HW270804   8.577  12.195   8.043
56303SOL     OW70805   6.861   0.038   2.201
56303SOL    HW170806   6.859  14.834   2.251
56303SOL    HW270807   6.858   0.107   2.267
56304SOL     OW70808   4.356  14.112   8.772
56304SOL    HW170809   4.327  14.114   8.681
56304SOL    HW270810   4.278  14.138   8.822
56305SOL     OW70811  14.748   9.212   1.979
56305SOL    HW170812  14.765   9.235   1.887
56305SOL    HW270813  14.829   9.235   2.025
56306SOL     OW70814   9.446  11.894   4.656
56306SOL    HW170815   9.479  11.923   4.741
56306SOL    HW270816   9.383  11.962   4.631
56307SOL     OW70817   0.415   8.171   3.685
56307SOL    HW170818   0.508   8.194   3.693
56307SOL    HW270819   0.408   8.131   3.599
56308SOL     OW70820   9.401  14.763   0.959
56308SOL    HW170821   9.419  14.712   0.879
56308SOL    HW270822   9.402  14.854   0.930
56309SOL     OW70823  13.958   2.096   8.941
56309SOL    HW170824  13.922   2.023   8.992
56309SOL    HW270825  13.882   2.131   8.893
56310SOL     OW70826   3.141  14.802  13.686
56310SOL    HW170827   3.161  14.842  13.770
56310SOL    HW270828   3.100  14.718  13.708
56311SOL     OW70829   1.361   0.277   3.769
56311SOL    HW170830   1.281   0.312   3.807
56311SOL    HW270831   1.374   0.193   3.813
56312SOL     OW70832   3.274   2.513  13.791
56312SOL    HW170833   3.354   2.563  13.806
56312SOL    HW270834   3.230   2.559  13.719
56313SOL     OW70835  11.187   3.439   6.842
56313SOL    HW170836  11.183   3.345   6.825
56313SOL    HW270837  11.196   3.446   6.937
56314SOL     OW70838   6.071   0.164  14.528
56314SOL    HW170839   6.031   0.245  14.497
56314SOL    HW270840   6.001   0.120  14.577
56315SOL     OW70841   5.028   3.733  11.424
56315SOL    HW170842   4.944   3.742  11.469
56315SOL    HW270843   5.093   3.743  11.494
56316SOL     OW70844   5.757  12.327  13.349
56316SOL    HW170845   5.683  12.386  13.362
56316SOL    HW270846   5.782  12.299  13.437
56317SOL     OW70847   5.943   8.072   8.167
56317SOL    HW170848   5.912   8.022   8.242
56317SOL    HW270849   6.020   8.119   8.200
56318SOL     OW70850   2.349  11.976   3.688
56318SOL    HW170851   2.348  11.889   3.729
56318SOL    HW270852   2.349  12.037   3.761
56319SOL     OW70853   9.045   5.236   0.306
56319SOL    HW170854   8.972   5.185   0.271
56319SOL    HW270855   9.102   5.251   0.231
56320SOL     OW70856  12.699   2.018   1.517
56320SOL    HW170857  12.646   2.073   1.458
56320SOL    HW270858  12.690   2.060   1.602
56321SOL     OW70859  10.349   4.840  12.289
56321SOL    HW170860  10.406   4.764  12.300
56321SOL    HW270861  10.360   4.866  12.197
56322SOL     OW70862  10.302   5.028   9.032
56322SOL    HW170863  10.303   4.987   8.946
56322SOL    HW270864  10.267   5.116   9.017
56323SOL     OW70865   8.026   3.719   5.742
56323SOL    HW170866   7.946   3.769   5.731
56323SOL    HW270867   8.049   3.690   5.654
56324SOL     OW70868  11.413  11.846   2.349
56324SOL    HW170869  11.346  11.845   2.418
56324SOL    HW270870  11.422  11.938   2.325
56325SOL     OW70871   9.163  12.593  10.635
56325SOL    HW170872   9.174  12.595  10.730
56325SOL    HW270873   9.140  12.502  10.616
56326SOL     OW70874  10.841   1.557   4.006
56326SOL    HW170875  10.791   1.618   3.951
56326SOL    HW270876  10.787   1.545   4.084
56327SOL     OW70877   9.484   0.858  10.374
56327SOL    HW170878   9.529   0.921  10.318
56327SOL    HW270879   9.512   0.880  10.463
56328SOL     OW70880  10.221  14.773  10.666
56328SOL    HW170881  10.201  14.860  10.631
56328SOL    HW270882  10.303  14.749  10.624
56329SOL     OW70883  10.729   5.100   1.053
56329SOL    HW170884  10.644   5.064   1.075
56329SOL    HW270885  10.764   5.132   1.136
56330SOL     OW70886   0.982  14.654   9.908
56330SOL    HW170887   0.917  14.705   9.957
56330SOL    HW270888   1.035  14.612   9.976
56331SOL     OW70889   9.752   2.475   0.047
56331SOL    HW170890   9.847   2.485   0.042
56331SOL    HW270891   9.739   2.394   0.098
56332SOL     OW70892   6.419  13.322  10.711
56332SOL    HW170893   6.511  13.316  10.737
56332SOL    HW270894   6.422  13.340  10.617
56333SOL     OW70895   9.296  10.609   3.829
56333SOL    HW170896   9.312  10.578   3.740
56333SOL    HW270897   9.368  10.670   3.846
56334SOL     OW70898  13.220  14.414  12.416
56334SOL    HW170899  13.221  14.414  12.512
56334SOL    HW270900  13.197  14.503  12.392
56335SOL     OW70901  12.475   0.406  13.424
56335SOL    HW170902  12.534   0.336  13.450
56335SOL    HW270903  12.390   0.364  13.413
56336SOL     OW70904  14.379  14.766  14.609
56336SOL    HW170905  14.325  14.691  14.583
56336SOL    HW270906  14.430  14.788  14.531
56337SOL     OW70907  13.025   7.858   7.178
56337SOL    HW170908  12.984   7.836   7.094
56337SOL    HW270909  13.118   7.861   7.159
56338SOL     OW70910   8.159   3.631  13.741
56338SOL    HW170911   8.123   3.597  13.824
56338SOL    HW270912   8.093   3.694  13.712
56339SOL     OW70913  11.650   8.102   7.805
56339SOL    HW170914  11.574   8.134   7.755
56339SOL    HW270915  11.718   8.168   7.789
56340SOL     OW70916   4.112  11.528   6.556
56340SOL    HW170917   4.062  11.570   6.626
56340SOL    HW270918   4.060  11.452   6.531
56341SOL     OW70919  11.961  11.220   2.493
56341SOL    HW170920  12.040  11.168   2.480
56341SOL    HW270921  11.993  11.304   2.527
56342SOL     OW70922   5.978  11.575  13.126
56342SOL    HW170923   5.938  11.657  13.096
56342SOL    HW270924   5.910  11.532  13.178
56343SOL     OW70925   2.554  12.367  13.473
56343SOL    HW170926   2.620  12.374  13.404
56343SOL    HW270927   2.561  12.277  13.505
56344SOL     OW70928  10.293  13.880   8.108
56344SOL    HW170929  10.329  13.949   8.052
56344SOL    HW270930  10.358  13.810   8.105
56345SOL     OW70931   4.378  10.880  11.841
56345SOL    HW170932   4.323  10.867  11.918
56345SOL    HW270933   4.331  10.946  11.789
56346SOL     OW70934  13.715   4.978   7.401
56346SOL    HW170935  13.667   5.047   7.353
56346SOL    HW270936  13.760   5.025   7.471
56347SOL     OW70937   3.788   4.369  13.408
56347SOL    HW170938   3.827   4.423  13.476
56347SOL    HW270939   3.810   4.414  13.326
56348SOL     OW70940  10.884  12.774   6.351
56348SOL    HW170941  10.846  12.728   6.427
56348SOL    HW270942  10.810  12.784   6.291
56349SOL     OW70943   9.008  11.239   1.353
56349SOL    HW170944   9.043  11.186   1.281
56349SOL    HW270945   9.082  11.293   1.380
56350SOL     OW70946  11.386   9.168  13.520
56350SOL    HW170947  11.328   9.093  13.533
56350SOL    HW270948  11.353   9.211  13.442
56351SOL     OW70949   0.622  12.315   4.559
56351SOL    HW170950   0.569  12.279   4.488
56351SOL    HW270951   0.574  12.393   4.587
56352SOL     OW70952  13.161   2.206  12.477
56352SOL    HW170953  13.170   2.239  12.388
56352SOL    HW270954  13.075   2.163  12.478
56353SOL     OW70955  14.176   0.653   9.140
56353SOL    HW170956  14.233   0.616   9.207
56353SOL    HW270957  14.091   0.664   9.183
56354SOL     OW70958   8.649  13.284  14.110
56354SOL    HW170959   8.627  13.357  14.052
56354SOL    HW270960   8.716  13.319  14.169
56355SOL     OW70961   1.766   4.552   7.831
56355SOL    HW170962   1.826   4.536   7.758
56355SOL    HW270963   1.681   4.520   7.799
56356SOL     OW70964   0.425   3.040   4.986
56356SOL    HW170965   0.436   2.978   5.058
56356SOL    HW270966   0.381   3.115   5.025
56357SOL     OW70967  13.430   8.516  13.819
56357SOL    HW170968  13.369   8.580  13.784
56357SOL    HW270969  13.416   8.438  13.767
56358SOL     OW70970   4.554  10.898  14.503
56358SOL    HW170971   4.491  10.826  14.497
56358SOL    HW270972   4.521  10.953  14.575
56359SOL     OW70973  12.847   2.776  12.282
56359SOL    HW170974  12.788   2.702  12.272
56359SOL    HW270975  12.916   2.760  12.218
56360SOL     OW70976   6.499  12.663   5.519
56360SOL    HW170977   6.553  12.612   5.580
56360SOL    HW270978   6.464  12.598   5.457
56361SOL     OW70979  11.759   6.768   5.365
56361SOL    HW170980  11.694   6.748   5.298
56361SOL    HW270981  11.840   6.785   5.317
56362SOL     OW70982  11.152  12.274   7.967
56362SOL    HW170983  11.195  12.359   7.965
56362SOL    HW270984  11.223  12.211   7.974
56363SOL     OW70985  10.963   6.954   8.292
56363SOL    HW170986  11.019   7.000   8.354
56363SOL    HW270987  11.025   6.907   8.235
56364SOL     OW70988   1.523  14.542   6.648
56364SOL    HW170989   1.454  14.608   6.655
56364SOL    HW270990   1.488  14.467   6.697
56365SOL     OW70991   7.804   2.307   9.888
56365SOL    HW170992   7.794   2.225   9.840
56365SOL    HW270993   7.894   2.334   9.871
56366SOL     OW70994   2.001   3.877  14.692
56366SOL    HW170995   2.018   3.854  14.784
56366SOL    HW270996   1.907   3.866  14.681
56367SOL     OW70997  10.229   0.539   8.218
56367SOL    HW170998  10.154   0.584   8.179
56367SOL    HW270999  10.235   0.457   8.170
56368SOL     OW71000  10.061  14.163  12.592
56368SOL    HW171001   9.976  14.198  12.564
56368SOL    HW271002  10.048  14.142  12.685
56369SOL     OW71003   9.458   4.567   3.656
56369SOL    HW171004   9.435   4.567   3.563
56369SOL    HW271005   9.384   4.610   3.699
56370SOL     OW71006   6.474  11.528   9.542
56370SOL    HW171007   6.489  11.549   9.634
56370SOL    HW271008   6.491  11.434   9.536
56371SOL     OW71009   0.784  10.638   7.750
56371SOL    HW171010   0.872  10.637   7.786
56371SOL    HW271011   0.767  10.547   7.727
56372SOL     OW71012   7.159   9.140   0.802
56372SOL    HW171013   7.153   9.175   0.713
56372SOL    HW271014   7.068   9.123   0.827
56373SOL     OW71015  13.090   9.695  13.639
56373SOL    HW171016  13.158   9.723  13.701
56373SOL    HW271017  13.014   9.749  13.660
56374SOL     OW71018   6.937   9.730   5.417
56374SOL    HW171019   6.881   9.706   5.343
56374SOL    HW271020   6.915   9.666   5.485
56375SOL     OW71021   8.106  11.415   3.291
56375SOL    HW171022   8.112  11.478   3.363
56375SOL    HW271023   8.073  11.467   3.217
56376SOL     OW71024  12.769  14.342   9.430
56376SOL    HW171025  12.783  14.391   9.510
56376SOL    HW271026  12.703  14.276   9.453
56377SOL     OW71027   3.272   9.129   1.195
56377SOL    HW171028   3.289   9.039   1.223
56377SOL    HW271029   3.245   9.174   1.276
56378SOL     OW71030  14.262   0.292   3.090
56378SOL    HW171031  14.310   0.309   3.171
56378SOL    HW271032  14.273   0.372   3.038
56379SOL     OW71033   9.810   6.344   1.606
56379SOL    HW171034   9.750   6.391   1.663
56379SOL    HW271035   9.842   6.412   1.545
56380SOL     OW71036   0.077   3.266   4.653
56380SOL    HW171037   0.007   3.248   4.716
56380SOL    HW271038   0.040   3.329   4.592
56381SOL     OW71039  14.635   6.092  10.246
56381SOL    HW171040  14.700   6.104  10.315
56381SOL    HW271041  14.579   6.021  10.278
56382SOL     OW71042   2.159   9.397   1.941
56382SOL    HW171043   2.129   9.457   2.009
56382SOL    HW271044   2.083   9.342   1.922
56383SOL     OW71045  13.071  11.668  11.862
56383SOL    HW171046  13.051  11.759  11.882
56383SOL    HW271047  13.014  11.647  11.788
56384SOL     OW71048   3.241   3.307  14.284
56384SOL    HW171049   3.246   3.247  14.359
56384SOL    HW271050   3.254   3.251  14.208
56385SOL     OW71051   4.231  12.791   5.719
56385SOL    HW171052   4.248  12.753   5.633
56385SOL    HW271053   4.196  12.718   5.771
56386SOL     OW71054   4.980   0.268   3.178
56386SOL    HW171055   4.938   0.317   3.249
56386SOL    HW271056   4.929   0.187   3.173
56387SOL     OW71057   2.074  13.731   3.276
56387SOL    HW171058   2.057  13.649   3.230
56387SOL    HW271059   2.135  13.778   3.219
56388SOL     OW71060   8.296  11.793   9.004
56388SOL    HW171061   8.277  11.702   9.027
56388SOL    HW271062   8.365  11.788   8.938
56389SOL     OW71063  13.633  12.249  12.670
56389SOL    HW171064  13.627  12.338  12.636
56389SOL    HW271065  13.720  12.244  12.710
56390SOL     OW71066   0.702   8.863  14.833
56390SOL    HW171067   0.752   8.866  14.752
56390SOL    HW271068   0.709   8.951  14.870
56391SOL     OW71069   2.590   5.599   6.661
56391SOL    HW171070   2.511   5.632   6.618
56391SOL    HW271071   2.615   5.668   6.721
56392SOL     OW71072   2.976   2.252   6.498
56392SOL    HW171073   2.900   2.305   6.524
56392SOL    HW271074   3.048   2.288   6.551
56393SOL     OW71075  13.083   9.453  12.420
56393SOL    HW171076  13.140   9.453  12.343
56393SOL    HW271077  13.006   9.503  12.392
56394SOL     OW71078   2.706   4.738   0.887
56394SOL    HW171079   2.619   4.756   0.923
56394SOL    HW271080   2.756   4.817   0.908
56395SOL     OW71081   7.678   5.711  13.539
56395SOL    HW171082   7.716   5.659  13.610
56395SOL    HW271083   7.660   5.796  13.579
56396SOL     OW71084   8.901   5.196   1.581
56396SOL    HW171085   8.919   5.290   1.584
56396SOL    HW271086   8.902   5.168   1.673
56397SOL     OW71087  14.461   6.802  14.644
56397SOL    HW171088  14.393   6.865  14.618
56397SOL    HW271089  14.481   6.826  14.735
56398SOL     OW71090   7.018  14.110  11.206
56398SOL    HW171091   6.927  14.132  11.227
56398SOL    HW271092   7.037  14.161  11.127
56399SOL     OW71093   1.356  13.070   9.164
56399SOL    HW171094   1.331  13.007   9.097
56399SOL    HW271095   1.293  13.142   9.154
56400SOL     OW71096  14.548   3.824   2.471
56400SOL    HW171097  14.574   3.914   2.453
56400SOL    HW271098  14.628   3.780   2.500
56401SOL     OW71099  13.418   5.390  11.891
56401SOL    HW171100  13.416   5.327  11.819
56401SOL    HW271101  13.378   5.343  11.965
56402SOL     OW71102  13.709   9.636   6.050
56402SOL    HW171103  13.737   9.630   5.959
56402SOL    HW271104  13.631   9.692   6.048
56403SOL     OW71105   6.047   6.163  10.060
56403SOL    HW171106   6.064   6.220   9.985
56403SOL    HW271107   5.963   6.122  10.041
56404SOL     OW71108  12.592  14.397   2.124
56404SOL    HW171109  12.625  14.322   2.174
56404SOL    HW271110  12.520  14.361   2.072
56405SOL     OW71111   3.432  13.118  10.847
56405SOL    HW171112   3.437  13.023  10.837
56405SOL    HW271113   3.446  13.153  10.759
56406SOL     OW71114   3.426   3.775   1.877
56406SOL    HW171115   3.338   3.762   1.912
56406SOL    HW271116   3.448   3.865   1.903
56407SOL     OW71117   0.568   4.474  14.402
56407SOL    HW171118   0.631   4.440  14.339
56407SOL    HW271119   0.567   4.410  14.473
56408SOL     OW71120   2.551  13.640   1.983
56408SOL    HW171121   2.518  13.716   2.031
56408SOL    HW271122   2.630  13.614   2.030
56409SOL     OW71123   0.855   4.850   4.574
56409SOL    HW171124   0.892   4.883   4.655
56409SOL    HW271125   0.799   4.920   4.542
56410SOL     OW71126  11.334   8.445   3.694
56410SOL    HW171127  11.388   8.419   3.769
56410SOL    HW271128  11.299   8.530   3.719
56411SOL     OW71129  10.676  14.010   8.772
56411SOL    HW171130  10.610  14.076   8.751
56411SOL    HW271131  10.674  14.005   8.868
56412SOL     OW71132  10.992  11.860  13.474
56412SOL    HW171133  11.060  11.875  13.539
56412SOL    HW271134  11.032  11.803  13.409
56413SOL     OW71135   6.584   6.088   7.746
56413SOL    HW171136   6.546   6.170   7.715
56413SOL    HW271137   6.582   6.030   7.670
56414SOL     OW71138   3.522   2.771   8.373
56414SOL    HW171139   3.438   2.728   8.392
56414SOL    HW271140   3.567   2.775   8.457
56415SOL     OW71141  12.499  10.022   3.984
56415SOL    HW171142  12.492  10.093   4.048
56415SOL    HW271143  12.499   9.942   4.037
56416SOL     OW71144   6.150   7.276   7.947
56416SOL    HW171145   6.107   7.202   7.989
56416SOL    HW271146   6.234   7.284   7.993
56417SOL     OW71147   2.131   0.716  11.952
56417SOL    HW171148   2.209   0.749  11.997
56417SOL    HW271149   2.058   0.760  11.997
56418SOL     OW71150   5.956   3.052  12.806
56418SOL    HW171151   5.866   3.019  12.804
56418SOL    HW271152   5.947   3.146  12.790
56419SOL     OW71153  10.124   4.989   8.760
56419SOL    HW171154  10.109   4.912   8.815
56419SOL    HW271155  10.042   4.999   8.711
56420SOL     OW71156   4.961   3.187   0.294
56420SOL    HW171157   5.049   3.169   0.328
56420SOL    HW271158   4.952   3.282   0.301
56421SOL     OW71159  11.492   8.745   9.786
56421SOL    HW171160  11.423   8.694   9.743
56421SOL    HW271161  11.515   8.693   9.863
56422SOL     OW71162   7.659   3.379   2.335
56422SOL    HW171163   7.683   3.294   2.298
56422SOL    HW271164   7.735   3.405   2.387
56423SOL     OW71165  10.428   6.370   0.558
56423SOL    HW171166  10.394   6.401   0.474
56423SOL    HW271167  10.352   6.333   0.603
56424SOL     OW71168   8.145   2.093   6.408
56424SOL    HW171169   8.084   2.064   6.340
56424SOL    HW271170   8.114   2.179   6.434
56425SOL     OW71171  12.339   6.242  12.155
56425SOL    HW171172  12.394   6.165  12.166
56425SOL    HW271173  12.335   6.256  12.061
56426SOL     OW71174   8.263   0.735  10.089
56426SOL    HW171175   8.229   0.809  10.140
56426SOL    HW271176   8.200   0.665  10.103
56427SOL     OW71177   8.878   8.084  13.907
56427SOL    HW171178   8.853   8.081  13.999
56427SOL    HW271179   8.830   8.012  13.866
56428SOL     OW71180   8.257   7.456  11.645
56428SOL    HW171181   8.225   7.544  11.625
56428SOL    HW271182   8.210   7.431  11.724
56429SOL     OW71183   8.410   0.998  11.693
56429SOL    HW171184   8.352   1.023  11.765
56429SOL    HW271185   8.442   1.081  11.658
56430SOL     OW71186  14.298   5.008   6.431
56430SOL    HW171187  14.343   5.075   6.482
56430SOL    HW271188  14.232   5.056   6.381
56431SOL     OW71189   2.115   9.453  12.174
56431SOL    HW171190   2.204   9.426  12.194
56431SOL    HW271191   2.113   9.463  12.079
56432SOL     OW71192   2.680  10.023  14.777
56432SOL    HW171193   2.661   9.983  14.692
56432SOL    HW271194   2.744   9.964  14.817
56433SOL     OW71195  13.133   1.704  12.766
56433SOL    HW171196  13.157   1.618  12.732
56433SOL    HW271197  13.081   1.685  12.845
56434SOL     OW71198   4.500  12.455   3.202
56434SOL    HW171199   4.562  12.518   3.239
56434SOL    HW271200   4.420  12.468   3.253
56435SOL     OW71201   8.406   9.316  11.599
56435SOL    HW171202   8.402   9.233  11.552
56435SOL    HW271203   8.487   9.357  11.569
56436SOL     OW71204   5.725   0.486   0.752
56436SOL    HW171205   5.675   0.460   0.830
56436SOL    HW271206   5.690   0.571   0.728
56437SOL     OW71207   0.724   6.547   5.507
56437SOL    HW171208   0.679   6.630   5.494
56437SOL    HW271209   0.701   6.495   5.430
56438SOL     OW71210   0.483   3.163  11.176
56438SOL    HW171211   0.527   3.207  11.250
56438SOL    HW271212   0.460   3.234  11.116
56439SOL     OW71213  12.024  11.614   3.237
56439SOL    HW171214  12.009  11.531   3.192
56439SOL    HW271215  12.102  11.599   3.291
56440SOL     OW71216  11.389  11.193   4.120
56440SOL    HW171217  11.424  11.137   4.189
56440SOL    HW271218  11.327  11.138   4.073
56441SOL     OW71219   8.717   4.716  12.301
56441SOL    HW171220   8.641   4.661  12.320
56441SOL    HW271221   8.761   4.728  12.385
56442SOL     OW71222  14.285   4.350   9.514
56442SOL    HW171223  14.268   4.265   9.475
56442SOL    HW271224  14.210   4.404   9.488
56443SOL     OW71225  11.965   1.228   8.105
56443SOL    HW171226  12.028   1.285   8.062
56443SOL    HW271227  11.882   1.274   8.098
56444SOL     OW71228   6.036   1.371   0.097
56444SOL    HW171229   5.995   1.308   0.038
56444SOL    HW271230   6.019   1.456   0.057
56445SOL     OW71231  13.331   3.149   5.327
56445SOL    HW171232  13.301   3.196   5.249
56445SOL    HW271233  13.306   3.206   5.400
56446SOL     OW71234  13.037   2.079  12.732
56446SOL    HW171235  13.003   2.030  12.807
56446SOL    HW271236  13.039   2.016  12.660
56447SOL     OW71237   9.002   8.054  14.780
56447SOL    HW171238   8.965   7.994  14.844
56447SOL    HW271239   9.096   8.054  14.799
56448SOL     OW71240   6.318  14.038   9.214
56448SOL    HW171241   6.228  14.047   9.244
56448SOL    HW271242   6.370  14.083   9.281
56449SOL     OW71243   7.111  14.219  14.387
56449SOL    HW171244   7.111  14.133  14.345
56449SOL    HW271245   7.021  14.249  14.381
56450SOL     OW71246  10.720   0.858  14.574
56450SOL    HW171247  10.759   0.794  14.515
56450SOL    HW271248  10.664   0.911  14.517
56451SOL     OW71249   4.962  13.048  13.149
56451SOL    HW171250   4.986  12.977  13.208
56451SOL    HW271251   4.881  13.083  13.185
56452SOL     OW71252  14.539  10.383   2.391
56452SOL    HW171253  14.609  10.445   2.411
56452SOL    HW271254  14.568  10.300   2.430
56453SOL     OW71255   9.753   4.834   1.515
56453SOL    HW171256   9.725   4.925   1.522
56453SOL    HW271257   9.719   4.804   1.431
56454SOL     OW71258   7.932   0.702   5.702
56454SOL    HW171259   7.943   0.671   5.612
56454SOL    HW271260   7.841   0.681   5.723
56455SOL     OW71261  14.008   6.862   2.231
56455SOL    HW171262  14.054   6.894   2.154
56455SOL    HW271263  13.927   6.913   2.233
56456SOL     OW71264   3.919   6.715  10.955
56456SOL    HW171265   3.955   6.626  10.950
56456SOL    HW271266   3.950   6.758  10.874
56457SOL     OW71267  12.996  13.038   4.572
56457SOL    HW171268  13.041  13.047   4.656
56457SOL    HW271269  13.065  13.017   4.510
56458SOL     OW71270   5.978   8.736  11.766
56458SOL    HW171271   5.975   8.642  11.787
56458SOL    HW271272   5.903   8.749  11.708
56459SOL     OW71273   3.688   2.161   1.804
56459SOL    HW171274   3.626   2.144   1.876
56459SOL    HW271275   3.709   2.254   1.812
56460SOL     OW71276   3.340   4.501   9.519
56460SOL    HW171277   3.365   4.583   9.476
56460SOL    HW271278   3.416   4.479   9.574
56461SOL     OW71279  10.301   0.780  14.261
56461SOL    HW171280  10.380   0.814  14.220
56461SOL    HW271281  10.229   0.823  14.215
56462SOL     OW71282   1.080  13.258  13.793
56462SOL    HW171283   1.085  13.221  13.881
56462SOL    HW271284   1.169  13.289  13.775
56463SOL     OW71285   2.210   2.929  11.169
56463SOL    HW171286   2.179   3.010  11.130
56463SOL    HW271287   2.226   2.950  11.261
56464SOL     OW71288  10.668   8.071  10.753
56464SOL    HW171289  10.620   8.122  10.688
56464SOL    HW271290  10.760   8.096  10.740
56465SOL     OW71291  13.495  11.943  11.363
56465SOL    HW171292  13.539  11.932  11.447
56465SOL    HW271293  13.551  12.002  11.314
56466SOL     OW71294   7.413  11.478   2.142
56466SOL    HW171295   7.419  11.510   2.052
56466SOL    HW271296   7.468  11.538   2.192
56467SOL     OW71297   0.329   7.566   1.185
56467SOL    HW171298   0.357   7.484   1.145
56467SOL    HW271299   0.240   7.549   1.217
56468SOL     OW71300   3.304  11.549  12.952
56468SOL    HW171301   3.322  11.642  12.945
56468SOL    HW271302   3.279  11.522  12.864
56469SOL     OW71303  12.847  11.598   8.563
56469SOL    HW171304  12.930  11.586   8.517
56469SOL    HW271305  12.822  11.689   8.546
56470SOL     OW71306   5.302   2.522  12.858
56470SOL    HW171307   5.387   2.509  12.900
56470SOL    HW271308   5.290   2.445  12.803
56471SOL     OW71309   3.730   6.126   3.691
56471SOL    HW171310   3.821   6.140   3.665
56471SOL    HW271311   3.680   6.183   3.633
56472SOL     OW71312   0.339  12.176  12.856
56472SOL    HW171313   0.271  12.130  12.907
56472SOL    HW271314   0.413  12.184  12.916
56473SOL     OW71315   7.684  12.622  14.059
56473SOL    HW171316   7.768  12.589  14.090
56473SOL    HW271317   7.624  12.612  14.133
56474SOL     OW71318   6.640   9.939   0.125
56474SOL    HW171319   6.605  10.025   0.149
56474SOL    HW271320   6.610   9.881   0.195
56475SOL     OW71321   4.157   8.632   0.682
56475SOL    HW171322   4.078   8.582   0.660
56475SOL    HW271323   4.123   8.712   0.723
56476SOL     OW71324  11.094   0.004   3.396
56476SOL    HW171325  11.015   0.051   3.423
56476SOL    HW271326  11.091   0.005   3.300
56477SOL     OW71327   5.486  11.006  11.602
56477SOL    HW171328   5.450  10.919  11.586
56477SOL    HW271329   5.541  10.996  11.679
56478SOL     OW71330   4.619  10.956   5.189
56478SOL    HW171331   4.685  11.024   5.176
56478SOL    HW271332   4.665  10.874   5.169
56479SOL     OW71333  10.922   1.693   1.878
56479SOL    HW171334  10.913   1.621   1.940
56479SOL    HW271335  10.837   1.736   1.879
56480SOL     OW71336   2.322  11.447   0.792
56480SOL    HW171337   2.402  11.434   0.843
56480SOL    HW271338   2.259  11.386   0.829
56481SOL     OW71339   4.042   8.298   5.236
56481SOL    HW171340   4.089   8.237   5.179
56481SOL    HW271341   3.998   8.358   5.175
56482SOL     OW71342  12.585   6.908  11.654
56482SOL    HW171343  12.654   6.950  11.603
56482SOL    HW271344  12.619   6.906  11.743
56483SOL     OW71345   1.402  12.620  14.117
56483SOL    HW171346   1.354  12.619  14.034
56483SOL    HW271347   1.336  12.645  14.183
56484SOL     OW71348  12.476  14.002   8.760
56484SOL    HW171349  12.486  13.931   8.697
56484SOL    HW271350  12.437  13.961   8.837
56485SOL     OW71351   1.840  11.990  13.653
56485SOL    HW171352   1.901  11.929  13.693
56485SOL    HW271353   1.882  12.076  13.663
56486SOL     OW71354   1.147  10.680  14.346
56486SOL    HW171355   1.100  10.619  14.403
56486SOL    HW271356   1.179  10.625  14.274
56487SOL     OW71357   3.050   1.687   9.263
56487SOL    HW171358   3.016   1.681   9.353
56487SOL    HW271359   3.019   1.772   9.232
56488SOL     OW71360   7.883  11.008  11.984
56488SOL    HW171361   7.959  11.038  11.934
56488SOL    HW271362   7.828  11.085  11.991
56489SOL     OW71363   8.986  10.866  14.366
56489SOL    HW171364   8.963  10.774  14.349
56489SOL    HW271365   8.914  10.916  14.328
56490SOL     OW71366  10.228   5.355   4.425
56490SOL    HW171367  10.305   5.324   4.472
56490SOL    HW271368  10.264   5.409   4.354
56491SOL     OW71369   7.498   4.505   4.387
56491SOL    HW171370   7.487   4.559   4.465
56491SOL    HW271371   7.576   4.541   4.344
56492SOL     OW71372   3.994  14.026   0.943
56492SOL    HW171373   3.907  14.002   0.912
56492SOL    HW271374   4.022  13.950   0.995
56493SOL     OW71375   7.405   2.502   5.367
56493SOL    HW171376   7.457   2.558   5.309
56493SOL    HW271377   7.328   2.480   5.315
56494SOL     OW71378   7.790  13.444   1.860
56494SOL    HW171379   7.832  13.449   1.946
56494SOL    HW271380   7.759  13.354   1.854
56495SOL     OW71381   9.569   4.440  12.213
56495SOL    HW171382   9.480   4.429  12.180
56495SOL    HW271383   9.590   4.356  12.254
56496SOL     OW71384   5.791   0.320   0.234
56496SOL    HW171385   5.787   0.271   0.316
56496SOL    HW271386   5.846   0.396   0.254
56497SOL     OW71387   7.148   2.176   2.423
56497SOL    HW171388   7.187   2.090   2.441
56497SOL    HW271389   7.111   2.204   2.506
56498SOL     OW71390   9.121   7.018  12.473
56498SOL    HW171391   9.060   7.070  12.526
56498SOL    HW271392   9.163   7.081  12.416
56499SOL     OW71393   0.173   1.729   5.503
56499SOL    HW171394   0.165   1.671   5.426
56499SOL    HW271395   0.084   1.736   5.537
56500SOL     OW71396  10.072   5.926   5.861
56500SOL    HW171397  10.055   5.901   5.770
56500SOL    HW271398   9.990   5.908   5.907
56501SOL     OW71399  14.181   7.354   4.560
56501SOL    HW171400  14.127   7.433   4.565
56501SOL    HW271401  14.269   7.387   4.543
56502SOL     OW71402   8.886   7.121   2.822
56502SOL    HW171403   8.825   7.077   2.881
56502SOL    HW271404   8.851   7.105   2.735
56503SOL     OW71405  12.948   2.469   6.059
56503SOL    HW171406  12.882   2.537   6.042
56503SOL    HW271407  12.988   2.495   6.143
56504SOL     OW71408  13.769   8.520  14.082
56504SOL    HW171409  13.780   8.541  14.174
56504SOL    HW271410  13.780   8.425  14.077
56505SOL     OW71411   3.570  11.578   8.242
56505SOL    HW171412   3.657  11.618   8.247
56505SOL    HW271413   3.587  11.486   8.221
56506SOL     OW71414  11.386  12.670   3.796
56506SOL    HW171415  11.369  12.707   3.710
56506SOL    HW271416  11.442  12.594   3.779
56507SOL     OW71417   3.081  10.438   7.689
56507SOL    HW171418   3.010  10.441   7.753
56507SOL    HW271419   3.073  10.353   7.647
56508SOL     OW71420   5.053   1.927  12.906
56508SOL    HW171421   4.989   1.898  12.841
56508SOL    HW271422   5.098   1.848  12.933
56509SOL     OW71423   5.778  10.540   5.704
56509SOL    HW171424   5.747  10.571   5.789
56509SOL    HW271425   5.823  10.458   5.723
56510SOL     OW71426   1.374  11.411   3.699
56510SOL    HW171427   1.329  11.475   3.754
56510SOL    HW271428   1.429  11.465   3.641
56511SOL     OW71429   2.714   7.942   0.222
56511SOL    HW171430   2.654   7.970   0.153
56511SOL    HW271431   2.801   7.944   0.182
56512SOL     OW71432  14.304   6.467  13.336
56512SOL    HW171433  14.352   6.521  13.273
56512SOL    HW271434  14.221   6.447  13.292
56513SOL     OW71435   0.298   4.344   4.571
56513SOL    HW171436   0.248   4.361   4.492
56513SOL    HW271437   0.249   4.276   4.616
56514SOL     OW71438  14.276  13.849  11.908
56514SOL    HW171439  14.270  13.935  11.867
56514SOL    HW271440  14.258  13.788  11.837
56515SOL     OW71441   7.071  12.121   8.077
56515SOL    HW171442   7.008  12.124   8.005
56515SOL    HW271443   7.041  12.049   8.132
56516SOL     OW71444   6.439  13.155   3.522
56516SOL    HW171445   6.523  13.137   3.479
56516SOL    HW271446   6.430  13.250   3.516
56517SOL     OW71447   3.068   3.514  11.479
56517SOL    HW171448   2.995   3.457  11.456
56517SOL    HW271449   3.070   3.580  11.410
56518SOL     OW71450   4.291   7.919   9.014
56518SOL    HW171451   4.370   7.937   9.066
56518SOL    HW271452   4.304   7.830   8.981
56519SOL     OW71453   3.783   0.952   8.561
56519SOL    HW171454   3.765   0.971   8.653
56519SOL    HW271455   3.799   0.858   8.558
56520SOL     OW71456  12.607  13.515  11.118
56520SOL    HW171457  12.695  13.552  11.109
56520SOL    HW271458  12.584  13.529  11.210
56521SOL     OW71459   5.131   1.914   6.451
56521SOL    HW171460   5.140   1.841   6.512
56521SOL    HW271461   5.066   1.971   6.491
56522SOL     OW71462  10.918  10.758  12.090
56522SOL    HW171463  10.985  10.742  12.156
56522SOL    HW271464  10.848  10.696  12.112
56523SOL     OW71465   7.989   2.344  14.871
56523SOL    HW171466   7.896   2.367  14.870
56523SOL    HW271467   8.034   2.427   0.008
56524SOL     OW71468  10.957  14.549   0.057
56524SOL    HW171469  10.884  14.538   0.119
56524SOL    HW271470  11.007  14.468   0.066
56525SOL     OW71471   5.441   1.699   2.331
56525SOL    HW171472   5.471   1.787   2.309
56525SOL    HW271473   5.351   1.711   2.360
56526SOL     OW71474   8.737  13.538  10.882
56526SOL    HW171475   8.659  13.488  10.858
56526SOL    HW271476   8.755  13.512  10.973
56527SOL     OW71477   0.248   3.290   8.319
56527SOL    HW171478   0.297   3.330   8.247
56527SOL    HW271479   0.208   3.364   8.364
56528SOL     OW71480  13.300  12.531   2.708
56528SOL    HW171481  13.340  12.531   2.621
56528SOL    HW271482  13.343  12.603   2.754
56529SOL     OW71483   1.553   2.166   0.964
56529SOL    HW171484   1.538   2.099   0.897
56529SOL    HW271485   1.608   2.122   1.029
56530SOL     OW71486   3.239   8.809   2.268
56530SOL    HW171487   3.296   8.827   2.194
56530SOL    HW271488   3.209   8.896   2.296
56531SOL     OW71489  11.538   3.895   9.899
56531SOL    HW171490  11.470   3.926   9.838
56531SOL    HW271491  11.620   3.926   9.860
56532SOL     OW71492   5.515   2.386   8.112
56532SOL    HW171493   5.466   2.331   8.051
56532SOL    HW271494   5.590   2.417   8.061
56533SOL     OW71495   9.669   8.329  12.806
56533SOL    HW171496   9.641   8.301  12.893
56533SOL    HW271497   9.764   8.335  12.811
56534SOL     OW71498   4.753   6.341   9.394
56534SOL    HW171499   4.802   6.335   9.476
56534SOL    HW271500   4.671   6.385   9.418
56535SOL     OW71501   0.707   3.091   1.407
56535SOL    HW171502   0.780   3.074   1.466
56535SOL    HW271503   0.638   3.031   1.436
56536SOL     OW71504  11.544   3.426   7.087
56536SOL    HW171505  11.547   3.332   7.068
56536SOL    HW271506  11.633   3.456   7.068
56537SOL     OW71507   4.318   3.055   4.704
56537SOL    HW171508   4.259   2.988   4.669
56537SOL    HW271509   4.405   3.024   4.681
56538SOL     OW71510  13.336  12.419   5.725
56538SOL    HW171511  13.243  12.418   5.700
56538SOL    HW271512  13.349  12.335   5.770
56539SOL     OW71513  10.013  10.070   9.946
56539SOL    HW171514  10.026  10.163   9.928
56539SOL    HW271515   9.936  10.045   9.894
56540SOL     OW71516   6.197   5.270   9.747
56540SOL    HW171517   6.109   5.300   9.766
56540SOL    HW271518   6.199   5.258   9.652
56541SOL     OW71519  11.733   0.187  14.398
56541SOL    HW171520  11.795   0.257  14.414
56541SOL    HW271521  11.649   0.231  14.385
56542SOL     OW71522   4.467   4.069   7.698
56542SOL    HW171523   4.393   4.045   7.643
56542SOL    HW271524   4.442   4.153   7.736
56543SOL     OW71525   4.322   4.962  11.535
56543SOL    HW171526   4.364   5.047  11.541
56543SOL    HW271527   4.242   4.970  11.586
56544SOL     OW71528   3.096   5.202   5.221
56544SOL    HW171529   3.129   5.292   5.227
56544SOL    HW271530   3.161   5.149   5.267
56545SOL     OW71531  10.069   4.956   5.809
56545SOL    HW171532  10.080   5.034   5.864
56545SOL    HW271533   9.984   4.968   5.766
56546SOL     OW71534  12.415   7.576   4.592
56546SOL    HW171535  12.504   7.550   4.570
56546SOL    HW271536  12.401   7.657   4.542
56547SOL     OW71537   2.015   7.770   0.258
56547SOL    HW171538   1.990   7.849   0.306
56547SOL    HW271539   1.954   7.703   0.288
56548SOL     OW71540  10.683  14.816   5.386
56548SOL    HW171541  10.604  14.868   5.404
56548SOL    HW271542  10.689  14.815   5.291
56549SOL     OW71543   5.676   4.300   9.301
56549SOL    HW171544   5.610   4.317   9.369
56549SOL    HW271545   5.651   4.214   9.266
56550SOL     OW71546   0.263  13.730  11.300
56550SOL    HW171547   0.333  13.777  11.346
56550SOL    HW271548   0.285  13.638  11.312
56551SOL     OW71549   4.926   7.008  14.172
56551SOL    HW171550   4.959   7.027  14.260
56551SOL    HW271551   4.974   7.068  14.115
56552SOL     OW71552   3.440   7.597   0.873
56552SOL    HW171553   3.490   7.595   0.955
56552SOL    HW271554   3.448   7.687   0.843
56553SOL     OW71555   8.738   2.283   4.113
56553SOL    HW171556   8.668   2.339   4.078
56553SOL    HW271557   8.699   2.240   4.189
56554SOL     OW71558   6.390   1.301   9.497
56554SOL    HW171559   6.484   1.311   9.515
56554SOL    HW271560   6.387   1.272   9.406
56555SOL     OW71561   5.290  13.893  11.971
56555SOL    HW171562   5.222  13.932  11.915
56555SOL    HW271563   5.285  13.943  12.052
56556SOL     OW71564  14.332   8.907   8.814
56556SOL    HW171565  14.308   8.977   8.874
56556SOL    HW271566  14.249   8.880   8.774
56557SOL     OW71567   4.943   5.747   6.978
56557SOL    HW171568   4.939   5.733   6.884
56557SOL    HW271569   5.008   5.815   6.990
56558SOL     OW71570  11.324  13.419   0.665
56558SOL    HW171571  11.378  13.351   0.623
56558SOL    HW271572  11.280  13.462   0.592
56559SOL     OW71573  11.868  14.711   6.331
56559SOL    HW171574  11.803  14.656   6.286
56559SOL    HW271575  11.824  14.739   6.411
56560SOL     OW71576   7.906  13.394  14.249
56560SOL    HW171577   7.830  13.445  14.222
56560SOL    HW271578   7.956  13.453  14.305
56561SOL     OW71579  13.423   9.703   4.991
56561SOL    HW171580  13.434   9.635   4.924
56561SOL    HW271581  13.391   9.656   5.067
56562SOL     OW71582   5.577  10.823  14.683
56562SOL    HW171583   5.595  10.787  14.597
56562SOL    HW271584   5.554  10.915  14.666
56563SOL     OW71585   8.202  14.019   6.097
56563SOL    HW171586   8.230  13.929   6.077
56563SOL    HW271587   8.204  14.023   6.193
56564SOL     OW71588  11.799   9.522  14.686
56564SOL    HW171589  11.717   9.558  14.653
56564SOL    HW271590  11.855   9.598  14.702
56565SOL     OW71591  14.315   8.240   9.027
56565SOL    HW171592  14.319   8.283   8.941
56565SOL    HW271593  14.369   8.162   9.018
56566SOL     OW71594   1.142  13.396   9.930
56566SOL    HW171595   1.082  13.446   9.875
56566SOL    HW271596   1.109  13.306   9.927
56567SOL     OW71597  13.021  11.671   3.283
56567SOL    HW171598  13.065  11.667   3.368
56567SOL    HW271599  13.090  11.652   3.219
56568SOL     OW71600   7.936  12.628   1.418
56568SOL    HW171601   7.937  12.543   1.464
56568SOL    HW271602   8.002  12.680   1.463
56569SOL     OW71603   0.960   8.099   6.759
56569SOL    HW171604   0.956   8.098   6.854
56569SOL    HW271605   0.953   8.191   6.735
56570SOL     OW71606   0.478  10.267  11.216
56570SOL    HW171607   0.534  10.221  11.153
56570SOL    HW271608   0.532  10.278  11.294
56571SOL     OW71609   4.582   1.177  11.715
56571SOL    HW171610   4.544   1.116  11.652
56571SOL    HW271611   4.649   1.126  11.761
56572SOL     OW71612  12.661   2.152  13.158
56572SOL    HW171613  12.691   2.229  13.208
56572SOL    HW271614  12.594   2.187  13.099
56573SOL     OW71615  13.967   4.437   7.380
56573SOL    HW171616  13.917   4.483   7.447
56573SOL    HW271617  14.005   4.506   7.326
56574SOL     OW71618   6.647   5.292   7.223
56574SOL    HW171619   6.702   5.366   7.248
56574SOL    HW271620   6.626   5.250   7.307
56575SOL     OW71621   4.630   5.144   4.694
56575SOL    HW171622   4.704   5.205   4.689
56575SOL    HW271623   4.573   5.170   4.622
56576SOL     OW71624   4.182  14.208  11.228
56576SOL    HW171625   4.132  14.287  11.208
56576SOL    HW271626   4.124  14.155  11.281
56577SOL     OW71627   7.890   2.320  12.802
56577SOL    HW171628   7.897   2.370  12.884
56577SOL    HW271629   7.911   2.384  12.734
56578SOL     OW71630  14.384   4.806   6.117
56578SOL    HW171631  14.348   4.878   6.065
56578SOL    HW271632  14.312   4.780   6.174
56579SOL     OW71633   4.350   6.275   3.360
56579SOL    HW171634   4.436   6.238   3.344
56579SOL    HW271635   4.358   6.319   3.444
56580SOL     OW71636  11.646   6.180  10.089
56580SOL    HW171637  11.657   6.275  10.087
56580SOL    HW271638  11.565   6.166  10.137
56581SOL     OW71639   7.833   5.653   3.940
56581SOL    HW171640   7.830   5.559   3.955
56581SOL    HW271641   7.913   5.682   3.985
56582SOL     OW71642   2.653   3.393   1.585
56582SOL    HW171643   2.728   3.354   1.629
56582SOL    HW271644   2.689   3.467   1.536
56583SOL     OW71645   3.503  13.501  10.780
56583SOL    HW171646   3.536  13.582  10.741
56583SOL    HW271647   3.512  13.514  10.874
56584SOL     OW71648   3.061  10.231   0.517
56584SOL    HW171649   2.990  10.168   0.502
56584SOL    HW271650   3.109  10.233   0.434
56585SOL     OW71651  10.092   8.128   7.168
56585SOL    HW171652  10.150   8.110   7.242
56585SOL    HW271653  10.141   8.189   7.113
56586SOL     OW71654  13.843   4.281   8.489
56586SOL    HW171655  13.793   4.345   8.538
56586SOL    HW271656  13.839   4.201   8.542
56587SOL     OW71657  13.092  10.206   8.444
56587SOL    HW171658  13.044  10.258   8.508
56587SOL    HW271659  13.060  10.116   8.458
56588SOL     OW71660  10.260   4.924  10.739
56588SOL    HW171661  10.264   5.007  10.692
56588SOL    HW271662  10.205   4.868  10.684
56589SOL     OW71663   7.354  13.816   1.934
56589SOL    HW171664   7.329  13.734   1.891
56589SOL    HW271665   7.450  13.814   1.936
56590SOL     OW71666  10.511   3.904   8.609
56590SOL    HW171667  10.582   3.960   8.640
56590SOL    HW271668  10.484   3.944   8.526
56591SOL     OW71669   2.471  12.610   7.151
56591SOL    HW171670   2.443  12.523   7.124
56591SOL    HW271671   2.552  12.626   7.104
56592SOL     OW71672   4.656  12.026  13.959
56592SOL    HW171673   4.691  11.960  14.019
56592SOL    HW271674   4.608  12.087  14.015
56593SOL     OW71675   4.387   4.033  14.106
56593SOL    HW171676   4.387   4.089  14.029
56593SOL    HW271677   4.322   3.965  14.087
56594SOL     OW71678   9.958   5.852   7.266
56594SOL    HW171679   9.962   5.779   7.328
56594SOL    HW271680  10.000   5.818   7.187
56595SOL     OW71681   6.969   6.928  13.494
56595SOL    HW171682   6.912   7.005  13.493
56595SOL    HW271683   6.967   6.894  13.405
56596SOL     OW71684  13.786   7.469   1.935
56596SOL    HW171685  13.818   7.547   1.980
56596SOL    HW271686  13.778   7.495   1.844
56597SOL     OW71687  12.137   0.483   3.541
56597SOL    HW171688  12.223   0.464   3.580
56597SOL    HW271689  12.102   0.397   3.517
56598SOL     OW71690   3.213   5.074  13.912
56598SOL    HW171691   3.228   5.007  13.979
56598SOL    HW271692   3.242   5.033  13.830
56599SOL     OW71693   3.020   8.883   1.674
56599SOL    HW171694   3.051   8.852   1.759
56599SOL    HW271695   3.067   8.965   1.659
56600SOL     OW71696  10.538   5.683   1.567
56600SOL    HW171697  10.596   5.642   1.632
56600SOL    HW271698  10.451   5.680   1.607
56601SOL     OW71699  11.007   7.756  12.081
56601SOL    HW171700  10.940   7.777  12.145
56601SOL    HW271701  10.979   7.801  12.001
56602SOL     OW71702   7.417  12.860   3.759
56602SOL    HW171703   7.323  12.861   3.745
56602SOL    HW271704   7.428  12.888   3.850
56603SOL     OW71705   2.302  12.781   7.725
56603SOL    HW171706   2.364  12.723   7.770
56603SOL    HW271707   2.217  12.761   7.765
56604SOL     OW71708   9.877   6.974   7.026
56604SOL    HW171709   9.822   6.903   7.058
56604SOL    HW271710   9.902   6.947   6.937
56605SOL     OW71711  10.319   6.324   5.078
56605SOL    HW171712  10.268   6.243   5.071
56605SOL    HW271713  10.254   6.391   5.100
56606SOL     OW71714   4.832   3.851  13.903
56606SOL    HW171715   4.860   3.842  13.812
56606SOL    HW271716   4.778   3.774  13.919
56607SOL     OW71717   7.355   9.971   4.947
56607SOL    HW171718   7.308   9.986   5.029
56607SOL    HW271719   7.290   9.935   4.887
56608SOL     OW71720  13.558  13.282   5.158
56608SOL    HW171721  13.607  13.360   5.131
56608SOL    HW271722  13.624  13.225   5.198
56609SOL     OW71723   5.325   1.590   2.855
56609SOL    HW171724   5.265   1.516   2.843
56609SOL    HW271725   5.409   1.558   2.822
56610SOL     OW71726   3.761   0.166   6.074
56610SOL    HW171727   3.751   0.258   6.048
56610SOL    HW271728   3.856   0.153   6.080
56611SOL     OW71729  13.999   6.107   9.303
56611SOL    HW171730  14.067   6.044   9.328
56611SOL    HW271731  13.960   6.071   9.223
56612SOL     OW71732  12.777  14.800   7.495
56612SOL    HW171733  12.856  14.794   7.440
56612SOL    HW271734  12.725  14.869   7.453
56613SOL     OW71735   4.891   9.030  12.084
56613SOL    HW171736   4.825   8.980  12.133
56613SOL    HW271737   4.933   8.965  12.028
56614SOL     OW71738   6.452   3.204  10.990
56614SOL    HW171739   6.508   3.234  10.918
56614SOL    HW271740   6.407   3.284  11.020
56615SOL     OW71741  12.000   3.156   0.399
56615SOL    HW171742  12.041   3.240   0.422
56615SOL    HW271743  12.072   3.099   0.374
56616SOL     OW71744  14.842   5.988   2.417
56616SOL    HW171745   0.018   5.947   2.485
56616SOL    HW271746   0.003   5.958   2.335
56617SOL     OW71747   9.979   7.189   6.375
56617SOL    HW171748  10.049   7.192   6.440
56617SOL    HW271749  10.007   7.250   6.307
56618SOL     OW71750   1.924   7.795   8.096
56618SOL    HW171751   1.935   7.885   8.126
56618SOL    HW271752   1.854   7.759   8.150
56619SOL     OW71753   4.017   2.188   0.857
56619SOL    HW171754   4.064   2.256   0.906
56619SOL    HW271755   4.034   2.108   0.905
56620SOL     OW71756   2.390   9.135   0.373
56620SOL    HW171757   2.329   9.206   0.392
56620SOL    HW271758   2.385   9.125   0.278
56621SOL     OW71759   3.257  14.762  12.630
56621SOL    HW171760   3.228  14.701  12.698
56621SOL    HW271761   3.211  14.843  12.649
56622SOL     OW71762   2.122  11.979   6.123
56622SOL    HW171763   2.206  11.992   6.079
56622SOL    HW271764   2.109  11.884   6.120
56623SOL     OW71765  13.735   2.062   9.827
56623SOL    HW171766  13.784   1.981   9.812
56623SOL    HW271767  13.657   2.033   9.876
56624SOL     OW71768   9.606  14.464   9.402
56624SOL    HW171769   9.513  14.477   9.421
56624SOL    HW271770   9.608  14.393   9.338
56625SOL     OW71771   0.610  13.173   7.312
56625SOL    HW171772   0.582  13.091   7.273
56625SOL    HW271773   0.663  13.216   7.245
56626SOL     OW71774   8.055   5.207  10.444
56626SOL    HW171775   8.080   5.297  10.424
56626SOL    HW271776   8.131   5.155  10.419
56627SOL     OW71777   4.247  10.941   0.357
56627SOL    HW171778   4.169  10.967   0.407
56627SOL    HW271779   4.319  10.948   0.420
56628SOL     OW71780   1.815   6.913  13.339
56628SOL    HW171781   1.904   6.882  13.321
56628SOL    HW271782   1.809   6.996  13.292
56629SOL     OW71783   9.474   5.872  13.071
56629SOL    HW171784   9.507   5.960  13.054
56629SOL    HW271785   9.384   5.873  13.039
56630SOL     OW71786   2.568   5.847   0.254
56630SOL    HW171787   2.577   5.784   0.183
56630SOL    HW271788   2.478   5.879   0.247
56631SOL     OW71789   1.419   0.025  11.893
56631SOL    HW171790   1.361  14.828  11.908
56631SOL    HW271791   1.404   0.049  11.801
56632SOL     OW71792   3.020   5.707   2.642
56632SOL    HW171793   3.008   5.797   2.671
56632SOL    HW271794   3.102   5.708   2.593
56633SOL     OW71795   4.574   1.136   6.488
56633SOL    HW171796   4.557   1.050   6.450
56633SOL    HW271797   4.662   1.131   6.524
56634SOL     OW71798   4.975  12.884   2.062
56634SOL    HW171799   5.022  12.935   1.996
56634SOL    HW271800   4.895  12.855   2.018
56635SOL     OW71801   1.032   4.755  12.836
56635SOL    HW171802   1.096   4.684  12.834
56635SOL    HW271803   1.082   4.833  12.861
56636SOL     OW71804   9.437   5.158   6.530
56636SOL    HW171805   9.422   5.072   6.570
56636SOL    HW271806   9.509   5.195   6.580
56637SOL     OW71807   1.980  11.356   9.579
56637SOL    HW171808   2.037  11.327   9.650
56637SOL    HW271809   2.031  11.341   9.500
56638SOL     OW71810  12.467   2.625   2.561
56638SOL    HW171811  12.455   2.709   2.517
56638SOL    HW271812  12.550   2.592   2.526
56639SOL     OW71813   8.487  14.789   0.206
56639SOL    HW171814   8.493  14.784   0.302
56639SOL    HW271815   8.413  14.733   0.184
56640SOL     OW71816   8.447   0.606   9.929
56640SOL    HW171817   8.456   0.662   9.852
56640SOL    HW271818   8.389   0.654   9.987
56641SOL     OW71819   1.545   6.993   3.978
56641SOL    HW171820   1.558   7.004   4.072
56641SOL    HW271821   1.631   6.968   3.944
56642SOL     OW71822   5.889   9.836   8.557
56642SOL    HW171823   5.801   9.870   8.570
56642SOL    HW271824   5.878   9.765   8.493
56643SOL     OW71825   6.548   6.571  10.393
56643SOL    HW171826   6.514   6.653  10.428
56643SOL    HW271827   6.472   6.528  10.355
56644SOL     OW71828   6.735   0.541   8.023
56644SOL    HW171829   6.738   0.452   7.987
56644SOL    HW271830   6.826   0.570   8.024
56645SOL     OW71831   3.886   0.305   5.818
56645SOL    HW171832   3.826   0.346   5.881
56645SOL    HW271833   3.839   0.307   5.735
56646SOL     OW71834   1.010   5.112   8.360
56646SOL    HW171835   0.938   5.174   8.351
56646SOL    HW271836   1.051   5.134   8.443
56647SOL     OW71837  10.831   8.853   7.418
56647SOL    HW171838  10.901   8.914   7.442
56647SOL    HW271839  10.778   8.844   7.498
56648SOL     OW71840   1.513   8.314   2.977
56648SOL    HW171841   1.420   8.292   2.989
56648SOL    HW271842   1.560   8.236   3.006
56649SOL     OW71843   0.673   3.320   7.811
56649SOL    HW171844   0.724   3.248   7.847
56649SOL    HW271845   0.738   3.374   7.766
56650SOL     OW71846   3.988  11.028  12.443
56650SOL    HW171847   4.024  10.969  12.509
56650SOL    HW271848   3.989  11.114  12.486
56651SOL     OW71849  10.556  13.022  10.910
56651SOL    HW171850  10.617  12.979  10.970
56651SOL    HW271851  10.501  13.076  10.966
56652SOL     OW71852   8.063   2.606   0.167
56652SOL    HW171853   8.152   2.625   0.195
56652SOL    HW271854   8.013   2.600   0.248
56653SOL     OW71855  12.339  12.319  10.117
56653SOL    HW171856  12.432  12.301  10.131
56653SOL    HW271857  12.330  12.414  10.127
56654SOL     OW71858   8.665   3.525  12.635
56654SOL    HW171859   8.647   3.433  12.654
56654SOL    HW271860   8.685   3.564  12.720
56655SOL     OW71861   4.681   7.581  10.224
56655SOL    HW171862   4.727   7.522  10.165
56655SOL    HW271863   4.612   7.526  10.262
56656SOL     OW71864   5.307  12.601  13.077
56656SOL    HW171865   5.246  12.648  13.020
56656SOL    HW271866   5.388  12.652  13.073
56657SOL     OW71867   2.343   1.891   1.597
56657SOL    HW171868   2.300   1.935   1.524
56657SOL    HW271869   2.437   1.901   1.579
56658SOL     OW71870  13.672  13.564   5.603
56658SOL    HW171871  13.635  13.629   5.663
56658SOL    HW271872  13.641  13.480   5.636
56659SOL     OW71873   7.370   0.995   8.387
56659SOL    HW171874   7.448   0.985   8.442
56659SOL    HW271875   7.302   0.945   8.432
56660SOL     OW71876   4.582  11.215   4.942
56660SOL    HW171877   4.620  11.217   5.030
56660SOL    HW271878   4.506  11.157   4.950
56661SOL     OW71879   4.146   6.209   6.695
56661SOL    HW171880   4.166   6.120   6.723
56661SOL    HW271881   4.231   6.247   6.673
56662SOL     OW71882  10.940   4.160   2.667
56662SOL    HW171883  10.961   4.130   2.578
56662SOL    HW271884  10.848   4.135   2.678
56663SOL     OW71885   7.449   8.763   0.724
56663SOL    HW171886   7.417   8.708   0.653
56663SOL    HW271887   7.461   8.703   0.797
56664SOL     OW71888   7.032   9.793   6.919
56664SOL    HW171889   7.092   9.798   6.845
56664SOL    HW271890   6.950   9.760   6.882
56665SOL     OW71891  11.255  14.665   3.801
56665SOL    HW171892  11.200  14.678   3.723
56665SOL    HW271893  11.193  14.644   3.871
56666SOL     OW71894   3.920  12.679  13.059
56666SOL    HW171895   3.933  12.641  13.146
56666SOL    HW271896   3.885  12.766  13.076
56667SOL     OW71897  12.110   1.879  10.785
56667SOL    HW171898  12.104   1.784  10.783
56667SOL    HW271899  12.135   1.904  10.696
56668SOL     OW71900  14.371   4.740  10.273
56668SOL    HW171901  14.316   4.687  10.330
56668SOL    HW271902  14.460   4.719  10.299
56669SOL     OW71903   9.762   9.949  11.206
56669SOL    HW171904   9.839   9.901  11.177
56669SOL    HW271905   9.792  10.001  11.281
56670SOL     OW71906   0.493   6.774  14.156
56670SOL    HW171907   0.543   6.705  14.198
56670SOL    HW271908   0.540   6.794  14.075
56671SOL     OW71909   7.337  13.040   6.456
56671SOL    HW171910   7.271  13.097   6.417
56671SOL    HW271911   7.287  12.966   6.491
56672SOL     OW71912   6.070   4.982  10.844
56672SOL    HW171913   5.996   4.968  10.903
56672SOL    HW271914   6.130   4.910  10.864
56673SOL     OW71915   2.863  11.168   5.289
56673SOL    HW171916   2.841  11.254   5.322
56673SOL    HW271917   2.779  11.130   5.262
56674SOL     OW71918  10.502   0.111   0.526
56674SOL    HW171919  10.576   0.058   0.556
56674SOL    HW271920  10.443   0.114   0.600
56675SOL     OW71921   9.339   6.284   6.151
56675SOL    HW171922   9.417   6.285   6.097
56675SOL    HW271923   9.283   6.217   6.112
56676SOL     OW71924  12.858   6.551   1.238
56676SOL    HW171925  12.779   6.606   1.236
56676SOL    HW271926  12.920   6.600   1.292
56677SOL     OW71927   5.011  14.230   4.231
56677SOL    HW171928   4.980  14.273   4.151
56677SOL    HW271929   5.021  14.139   4.206
56678SOL     OW71930  11.985   7.986  13.210
56678SOL    HW171931  12.043   8.045  13.161
56678SOL    HW271932  11.899   8.029  13.207
56679SOL     OW71933  13.240   6.453  11.347
56679SOL    HW171934  13.186   6.420  11.276
56679SOL    HW271935  13.195   6.532  11.377
56680SOL     OW71936  12.208   4.841  12.968
56680SOL    HW171937  12.146   4.910  12.943
56680SOL    HW271938  12.167   4.760  12.938
56681SOL     OW71939   8.678   8.739  13.972
56681SOL    HW171940   8.721   8.729  14.057
56681SOL    HW271941   8.678   8.650  13.935
56682SOL     OW71942   5.853  12.399  13.810
56682SOL    HW171943   5.930  12.346  13.790
56682SOL    HW271944   5.782  12.358  13.761
56683SOL     OW71945   3.889   3.824   7.155
56683SOL    HW171946   3.920   3.827   7.065
56683SOL    HW271947   3.838   3.904   7.166
56684SOL     OW71948   9.504  14.269   0.904
56684SOL    HW171949   9.548  14.184   0.896
56684SOL    HW271950   9.504  14.287   0.998
56685SOL     OW71951   4.150   9.076   9.581
56685SOL    HW171952   4.115   9.049   9.666
56685SOL    HW271953   4.216   9.142   9.603
56686SOL     OW71954  12.434   3.937   5.248
56686SOL    HW171955  12.342   3.911   5.248
56686SOL    HW271956  12.451   3.970   5.336
56687SOL     OW71957   6.015  12.216  11.113
56687SOL    HW171958   6.009  12.135  11.062
56687SOL    HW271959   6.052  12.280  11.052
56688SOL     OW71960   9.801  10.123   2.170
56688SOL    HW171961   9.835  10.149   2.256
56688SOL    HW271962   9.821  10.196   2.113
56689SOL     OW71963   3.337   1.498   9.921
56689SOL    HW171964   3.296   1.428   9.869
56689SOL    HW271965   3.300   1.579   9.886
56690SOL     OW71966   1.290   2.835  12.993
56690SOL    HW171967   1.297   2.808  12.902
56690SOL    HW271968   1.373   2.808  13.032
56691SOL     OW71969  10.807  10.537  12.965
56691SOL    HW171970  10.721  10.571  12.992
56691SOL    HW271971  10.804  10.444  12.986
56692SOL     OW71972   3.756   6.418   8.533
56692SOL    HW171973   3.813   6.404   8.458
56692SOL    HW271974   3.803   6.379   8.607
56693SOL     OW71975  10.100   3.078   1.073
56693SOL    HW171976  10.029   3.112   1.128
56693SOL    HW271977  10.115   3.148   1.009
56694SOL     OW71978   6.443   0.933   9.090
56694SOL    HW171979   6.423   0.839   9.098
56694SOL    HW271980   6.536   0.936   9.070
56695SOL     OW71981   5.406   2.794   0.799
56695SOL    HW171982   5.401   2.876   0.749
56695SOL    HW271983   5.339   2.803   0.866
56696SOL     OW71984   2.094   8.513  11.875
56696SOL    HW171985   2.073   8.502  11.967
56696SOL    HW271986   2.133   8.600  11.869
56697SOL     OW71987   2.411   4.826   1.851
56697SOL    HW171988   2.367   4.781   1.779
56697SOL    HW271989   2.343   4.878   1.893
56698SOL     OW71990  13.717   6.593   4.459
56698SOL    HW171991  13.804   6.631   4.448
56698SOL    HW271992  13.664   6.634   4.390
56699SOL     OW71993  13.566   5.749   2.740
56699SOL    HW171994  13.492   5.759   2.800
56699SOL    HW271995  13.639   5.721   2.796
56700SOL     OW71996   5.815   9.748   0.994
56700SOL    HW171997   5.768   9.788   1.068
56700SOL    HW271998   5.761   9.769   0.917
56701SOL     OW71999   7.808   8.903   7.748
56701SOL    HW172000   7.736   8.856   7.789
56701SOL    HW272001   7.818   8.982   7.801
56702SOL     OW72002   8.065   7.107   7.051
56702SOL    HW172003   8.128   7.167   7.012
56702SOL    HW272004   7.980   7.133   7.015
56703SOL     OW72005   0.371  10.673  13.945
56703SOL    HW172006   0.302  10.608  13.952
56703SOL    HW272007   0.383  10.685  13.850
56704SOL     OW72008   5.314   8.490   9.150
56704SOL    HW172009   5.311   8.436   9.071
56704SOL    HW272010   5.241   8.551   9.140
56705SOL     OW72011   3.698  12.137  10.690
56705SOL    HW172012   3.729  12.147  10.600
56705SOL    HW272013   3.650  12.218  10.708
56706SOL     OW72014   0.328  14.431   2.733
56706SOL    HW172015   0.294  14.403   2.818
56706SOL    HW272016   0.416  14.396   2.729
56707SOL     OW72017   2.331   7.157  10.336
56707SOL    HW172018   2.306   7.155  10.428
56707SOL    HW272019   2.356   7.248  10.320
56708SOL     OW72020   7.968  12.176  11.687
56708SOL    HW172021   8.015  12.092  11.683
56708SOL    HW272022   7.975  12.212  11.599
56709SOL     OW72023  14.499  13.726   6.366
56709SOL    HW172024  14.493  13.672   6.288
56709SOL    HW272025  14.436  13.688   6.427
56710SOL     OW72026   8.026   4.614   9.641
56710SOL    HW172027   7.984   4.699   9.630
56710SOL    HW272028   8.041   4.607   9.736
56711SOL     OW72029  13.593   2.743  10.394
56711SOL    HW172030  13.605   2.651  10.418
56711SOL    HW272031  13.610   2.746  10.300
56712SOL     OW72032   7.690   8.939  10.357
56712SOL    HW172033   7.753   8.933  10.285
56712SOL    HW272034   7.693   8.853  10.399
56713SOL     OW72035  11.474   6.136  13.021
56713SOL    HW172036  11.526   6.089  12.955
56713SOL    HW272037  11.531   6.140  13.098
56714SOL     OW72038   3.352  13.657  12.579
56714SOL    HW172039   3.428  13.660  12.521
56714SOL    HW272040   3.387  13.633  12.664
56715SOL     OW72041  11.382   1.187   7.668
56715SOL    HW172042  11.384   1.220   7.758
56715SOL    HW272043  11.326   1.110   7.672
56716SOL     OW72044   6.724  10.030   2.944
56716SOL    HW172045   6.680   9.979   2.876
56716SOL    HW272046   6.738  10.116   2.903
56717SOL     OW72047   0.895   2.591   5.409
56717SOL    HW172048   0.857   2.513   5.369
56717SOL    HW272049   0.824   2.628   5.462
56718SOL     OW72050  14.241   3.999  12.522
56718SOL    HW172051  14.263   3.966  12.609
56718SOL    HW272052  14.237   3.921  12.467
56719SOL     OW72053  13.022   6.470  13.501
56719SOL    HW172054  13.017   6.377  13.479
56719SOL    HW272055  13.033   6.514  13.417
56720SOL     OW72056   2.306   5.780  14.720
56720SOL    HW172057   2.231   5.731  14.756
56720SOL    HW272058   2.297   5.867  14.758
56721SOL     OW72059   6.001   3.347  13.565
56721SOL    HW172060   6.065   3.404  13.609
56721SOL    HW272061   6.050   3.308  13.492
56722SOL     OW72062   8.935   7.867  13.119
56722SOL    HW172063   9.018   7.884  13.073
56722SOL    HW272064   8.917   7.774  13.101
56723SOL     OW72065  12.201  12.398   9.059
56723SOL    HW172066  12.148  12.464   9.014
56723SOL    HW272067  12.169  12.315   9.024
56724SOL     OW72068   3.899   2.542   7.889
56724SOL    HW172069   3.938   2.578   7.969
56724SOL    HW272070   3.830   2.484   7.921
56725SOL     OW72071  12.806   7.485   1.391
56725SOL    HW172072  12.857   7.452   1.466
56725SOL    HW272073  12.735   7.422   1.380
56726SOL     OW72074   1.944   9.531   4.820
56726SOL    HW172075   1.962   9.604   4.760
56726SOL    HW272076   1.850   9.536   4.836
56727SOL     OW72077  10.294   7.147   0.390
56727SOL    HW172078  10.274   7.141   0.483
56727SOL    HW272079  10.262   7.233   0.363
56728SOL     OW72080  14.634   8.533   4.839
56728SOL    HW172081  14.566   8.522   4.772
56728SOL    HW272082  14.585   8.549   4.919
56729SOL     OW72083  12.664  13.642   5.075
56729SOL    HW172084  12.606  13.575   5.038
56729SOL    HW272085  12.690  13.694   4.999
56730SOL     OW72086  14.339   9.897   1.747
56730SOL    HW172087  14.376   9.923   1.832
56730SOL    HW272088  14.252   9.938   1.746
56731SOL     OW72089   3.720   7.776   7.362
56731SOL    HW172090   3.796   7.766   7.304
56731SOL    HW272091   3.687   7.687   7.374
56732SOL     OW72092  10.520  12.739  13.250
56732SOL    HW172093  10.426  12.725  13.263
56732SOL    HW272094  10.545  12.800  13.319
56733SOL     OW72095   4.160   3.686   8.513
56733SOL    HW172096   4.225   3.647   8.454
56733SOL    HW272097   4.079   3.639   8.492
56734SOL     OW72098  14.101   0.106   8.977
56734SOL    HW172099  14.008   0.102   8.998
56734SOL    HW272100  14.130   0.190   9.012
56735SOL     OW72101   0.757   2.641   6.863
56735SOL    HW172102   0.820   2.713   6.860
56735SOL    HW272103   0.781   2.590   6.940
56736SOL     OW72104   2.987   9.587   4.735
56736SOL    HW172105   3.001   9.657   4.670
56736SOL    HW272106   3.021   9.508   4.692
56737SOL     OW72107   2.566   6.286  11.305
56737SOL    HW172108   2.632   6.217  11.302
56737SOL    HW272109   2.522   6.281  11.220
56738SOL     OW72110  14.697   9.285   8.474
56738SOL    HW172111  14.642   9.222   8.428
56738SOL    HW272112  14.654   9.370   8.458
56739SOL     OW72113   2.141   7.156  14.069
56739SOL    HW172114   2.100   7.200  13.994
56739SOL    HW272115   2.222   7.119  14.033
56740SOL     OW72116   7.849   0.585  11.197
56740SOL    HW172117   7.905   0.661  11.179
56740SOL    HW272118   7.886   0.547  11.277
56741SOL     OW72119   4.888   5.051  11.943
56741SOL    HW172120   4.964   5.001  11.914
56741SOL    HW272121   4.920   5.140  11.952
56742SOL     OW72122   6.478   1.218   3.184
56742SOL    HW172123   6.454   1.131   3.152
56742SOL    HW272124   6.408   1.240   3.246
56743SOL     OW72125   2.558   5.237   8.888
56743SOL    HW172126   2.465   5.251   8.903
56743SOL    HW272127   2.561   5.165   8.825
56744SOL     OW72128   3.663   6.668   5.887
56744SOL    HW172129   3.569   6.668   5.902
56744SOL    HW272130   3.702   6.650   5.973
56745SOL     OW72131   0.870  14.819   4.988
56745SOL    HW172132   0.813  14.743   4.995
56745SOL    HW272133   0.879  14.834   4.894
56746SOL     OW72134   0.572   1.978   6.777
56746SOL    HW172135   0.486   1.942   6.799
56746SOL    HW272136   0.554   2.041   6.707
56747SOL     OW72137  13.366   1.345   5.583
56747SOL    HW172138  13.411   1.270   5.545
56747SOL    HW272139  13.436   1.400   5.618
56748SOL     OW72140   6.931  13.040   1.331
56748SOL    HW172141   6.900  13.004   1.248
56748SOL    HW272142   6.992  12.974   1.364
56749SOL     OW72143   4.127   8.438  11.973
56749SOL    HW172144   4.122   8.403  12.062
56749SOL    HW272145   4.036   8.440  11.943
56750SOL     OW72146   8.946   0.824  10.260
56750SOL    HW172147   8.882   0.882  10.301
56750SOL    HW272148   9.027   0.838  10.310
56751SOL     OW72149  14.841   4.335   9.310
56751SOL    HW172150  14.767   4.373   9.358
56751SOL    HW272151   0.035   4.397   9.324
56752SOL     OW72152   1.913  10.275   7.026
56752SOL    HW172153   1.980  10.314   6.969
56752SOL    HW272154   1.863  10.350   7.059
56753SOL     OW72155   4.723   8.884   4.866
56753SOL    HW172156   4.771   8.803   4.851
56753SOL    HW272157   4.790   8.952   4.866
56754SOL     OW72158   9.044   5.077   2.204
56754SOL    HW172159   8.977   5.143   2.185
56754SOL    HW272160   8.997   4.994   2.202
56755SOL     OW72161   7.422   9.231   8.113
56755SOL    HW172162   7.483   9.243   8.186
56755SOL    HW272163   7.350   9.180   8.149
56756SOL     OW72164   7.360  10.997   5.545
56756SOL    HW172165   7.274  10.999   5.588
56756SOL    HW272166   7.395  11.086   5.556
56757SOL     OW72167   3.628  11.524   5.254
56757SOL    HW172168   3.637  11.586   5.182
56757SOL    HW272169   3.648  11.575   5.333
56758SOL     OW72170  13.916   5.827   4.825
56758SOL    HW172171  13.943   5.829   4.917
56758SOL    HW272172  13.850   5.895   4.818
56759SOL     OW72173   3.210  13.110   8.072
56759SOL    HW172174   3.267  13.170   8.024
56759SOL    HW272175   3.146  13.079   8.007
56760SOL     OW72176   9.529   3.003  11.688
56760SOL    HW172177   9.622   3.008  11.708
56760SOL    HW272178   9.500   3.094  11.687
56761SOL     OW72179   9.511   4.627  13.711
56761SOL    HW172180   9.526   4.617  13.805
56761SOL    HW272181   9.417   4.609  13.700
56762SOL     OW72182   8.919   7.223   7.504
56762SOL    HW172183   8.861   7.169   7.557
56762SOL    HW272184   8.860   7.268   7.443
56763SOL     OW72185  13.525   3.094   1.179
56763SOL    HW172186  13.514   3.174   1.128
56763SOL    HW272187  13.590   3.043   1.131
56764SOL     OW72188  12.758  13.513  14.092
56764SOL    HW172189  12.813  13.435  14.083
56764SOL    HW272190  12.792  13.559  14.169
56765SOL     OW72191   4.989  10.924  12.270
56765SOL    HW172192   5.066  10.944  12.323
56765SOL    HW272193   4.930  10.999  12.284
56766SOL     OW72194   1.521  13.881   3.610
56766SOL    HW172195   1.602  13.919   3.578
56766SOL    HW272196   1.547  13.797   3.648
56767SOL     OW72197  10.951  10.351   6.098
56767SOL    HW172198  10.997  10.338   6.015
56767SOL    HW272199  10.923  10.263   6.123
56768SOL     OW72200   8.680  14.267  12.668
56768SOL    HW172201   8.745  14.331  12.699
56768SOL    HW272202   8.609  14.321  12.634
56769SOL     OW72203  11.884   9.751   6.569
56769SOL    HW172204  11.829   9.673   6.556
56769SOL    HW272205  11.826   9.824   6.549
56770SOL     OW72206   4.418   4.972   6.295
56770SOL    HW172207   4.490   4.936   6.243
56770SOL    HW272208   4.340   4.959   6.242
56771SOL     OW72209   1.209  14.463   6.883
56771SOL    HW172210   1.148  14.450   6.956
56771SOL    HW272211   1.163  14.521   6.823
56772SOL     OW72212   0.143   3.912   3.941
56772SOL    HW172213   0.051   3.941   3.941
56772SOL    HW272214   0.194   3.991   3.957
56773SOL     OW72215  14.236  12.929   5.681
56773SOL    HW172216  14.287  12.918   5.601
56773SOL    HW272217  14.251  12.848   5.730
56774SOL     OW72218   7.458   8.425   3.914
56774SOL    HW172219   7.547   8.460   3.927
56774SOL    HW272220   7.446   8.428   3.819
56775SOL     OW72221   6.179  10.795   2.193
56775SOL    HW172222   6.230  10.775   2.271
56775SOL    HW272223   6.089  10.799   2.224
56776SOL     OW72224   7.519   7.733   9.071
56776SOL    HW172225   7.451   7.800   9.063
56776SOL    HW272226   7.509   7.701   9.161
56777SOL     OW72227  12.168   2.233   6.527
56777SOL    HW172228  12.077   2.222   6.553
56777SOL    HW272229  12.207   2.146   6.539
56778SOL     OW72230  12.205   5.575   7.720
56778SOL    HW172231  12.115   5.573   7.752
56778SOL    HW272232  12.198   5.597   7.628
56779SOL     OW72233   4.804   1.990   1.444
56779SOL    HW172234   4.821   1.967   1.535
56779SOL    HW272235   4.841   1.918   1.393
56780SOL     OW72236  14.855   5.248   8.464
56780SOL    HW172237  14.762   5.269   8.472
56780SOL    HW272238  14.868   5.175   8.525
56781SOL     OW72239   3.006   9.051   4.886
56781SOL    HW172240   3.057   8.975   4.916
56781SOL    HW272241   2.918   9.017   4.873
56782SOL     OW72242   4.377   3.417  14.106
56782SOL    HW172243   4.294   3.386  14.070
56782SOL    HW272244   4.362   3.418  14.201
56783SOL     OW72245   9.336   8.384  11.444
56783SOL    HW172246   9.359   8.296  11.475
56783SOL    HW272247   9.249   8.373  11.406
56784SOL     OW72248   8.869   6.102   6.479
56784SOL    HW172249   8.861   6.030   6.542
56784SOL    HW272250   8.827   6.069   6.400
56785SOL     OW72251  13.397   1.038   1.361
56785SOL    HW172252  13.374   1.125   1.394
56785SOL    HW272253  13.493   1.037   1.360
56786SOL     OW72254   5.414   4.060   8.542
56786SOL    HW172255   5.413   4.129   8.476
56786SOL    HW272256   5.489   4.081   8.597
56787SOL     OW72257   4.639   9.850   1.551
56787SOL    HW172258   4.653   9.846   1.645
56787SOL    HW272259   4.679   9.933   1.524
56788SOL     OW72260  14.542   1.342   3.765
56788SOL    HW172261  14.542   1.436   3.782
56788SOL    HW272262  14.556   1.303   3.851
56789SOL     OW72263   7.904   8.373   1.960
56789SOL    HW172264   7.887   8.287   1.922
56789SOL    HW272265   7.966   8.356   2.031
56790SOL     OW72266   4.140  13.536   1.155
56790SOL    HW172267   4.171  13.597   1.222
56790SOL    HW272268   4.055  13.506   1.187
56791SOL     OW72269   4.136  14.676   4.411
56791SOL    HW172270   4.175  14.589   4.400
56791SOL    HW272271   4.210  14.736   4.401
56792SOL     OW72272   0.963   1.031   9.903
56792SOL    HW172273   0.954   1.084   9.982
56792SOL    HW272274   0.885   0.975   9.902
56793SOL     OW72275  12.501   4.668   7.538
56793SOL    HW172276  12.509   4.667   7.633
56793SOL    HW272277  12.417   4.711   7.521
56794SOL     OW72278   6.367  12.901  11.978
56794SOL    HW172279   6.304  12.859  11.919
56794SOL    HW272280   6.315  12.929  12.053
56795SOL     OW72281   8.648   6.975   8.434
56795SOL    HW172282   8.580   7.021   8.384
56795SOL    HW272283   8.603   6.944   8.512
56796SOL     OW72284   8.561   9.718   2.115
56796SOL    HW172285   8.511   9.645   2.078
56796SOL    HW272286   8.495   9.781   2.142
56797SOL     OW72287  14.779  10.719   9.890
56797SOL    HW172288  14.842  10.738   9.959
56797SOL    HW272289  14.696  10.707   9.936
56798SOL     OW72290  14.228   5.587   0.310
56798SOL    HW172291  14.255   5.590   0.402
56798SOL    HW272292  14.167   5.513   0.306
56799SOL     OW72293  12.701  14.727  12.442
56799SOL    HW172294  12.650  14.803  12.411
56799SOL    HW272295  12.760  14.707  12.369
56800SOL     OW72296   0.971   8.405   5.685
56800SOL    HW172297   0.995   8.497   5.672
56800SOL    HW272298   0.915   8.405   5.763
56801SOL     OW72299   7.552   5.012  12.228
56801SOL    HW172300   7.535   4.988  12.137
56801SOL    HW272301   7.635   4.970  12.249
56802SOL     OW72302  12.542   5.078   4.684
56802SOL    HW172303  12.476   5.030   4.633
56802SOL    HW272304  12.522   5.058   4.775
56803SOL     OW72305   3.160  11.314   2.078
56803SOL    HW172306   3.205  11.317   2.162
56803SOL    HW272307   3.143  11.221   2.062
56804SOL     OW72308   5.384   3.053   6.524
56804SOL    HW172309   5.408   2.995   6.451
56804SOL    HW272310   5.320   3.003   6.574
56805SOL     OW72311   7.095   7.334   4.033
56805SOL    HW172312   7.047   7.300   3.958
56805SOL    HW272313   7.127   7.420   4.005
56806SOL     OW72314  10.112  13.257   3.090
56806SOL    HW172315  10.114  13.244   3.185
56806SOL    HW272316  10.095  13.170   3.054
56807SOL     OW72317   0.978   9.126  10.036
56807SOL    HW172318   1.034   9.144  10.111
56807SOL    HW272319   0.955   9.034  10.044
56808SOL     OW72320  11.489  11.473   8.931
56808SOL    HW172321  11.416  11.429   8.974
56808SOL    HW272322  11.533  11.521   9.001
56809SOL     OW72323   2.989  13.539   4.946
56809SOL    HW172324   2.931  13.579   5.011
56809SOL    HW272325   3.068  13.594   4.948
56810SOL     OW72326  14.542   3.900  14.215
56810SOL    HW172327  14.633   3.904  14.244
56810SOL    HW272328  14.515   3.991  14.204
56811SOL     OW72329   2.333   4.884   2.808
56811SOL    HW172330   2.385   4.823   2.860
56811SOL    HW272331   2.391   4.911   2.737
56812SOL     OW72332   1.752  13.197   9.912
56812SOL    HW172333   1.716  13.196  10.001
56812SOL    HW272334   1.800  13.280   9.907
56813SOL     OW72335   7.350   9.248   0.141
56813SOL    HW172336   7.398   9.329   0.126
56813SOL    HW272337   7.419   9.183   0.160
56814SOL     OW72338   9.677   4.950   0.894
56814SOL    HW172339   9.681   4.855   0.907
56814SOL    HW272340   9.583   4.969   0.893
56815SOL     OW72341  14.223   6.805  14.166
56815SOL    HW172342  14.136   6.789  14.130
56815SOL    HW272343  14.258   6.878  14.115
56816SOL     OW72344   4.666   8.784   0.186
56816SOL    HW172345   4.675   8.691   0.208
56816SOL    HW272346   4.699   8.830   0.263
56817SOL     OW72347  12.222  11.164   9.692
56817SOL    HW172348  12.219  11.069   9.687
56817SOL    HW272349  12.281  11.190   9.620
56818SOL     OW72350   3.693   2.087   3.081
56818SOL    HW172351   3.777   2.043   3.066
56818SOL    HW272352   3.682   2.144   3.005
56819SOL     OW72353   0.164   1.101   3.101
56819SOL    HW172354   0.096   1.135   3.044
56819SOL    HW272355   0.123   1.098   3.188
56820SOL     OW72356   6.977  12.046   6.569
56820SOL    HW172357   6.983  12.002   6.485
56820SOL    HW272358   6.981  12.139   6.548
56821SOL     OW72359   9.255   6.601   1.954
56821SOL    HW172360   9.246   6.626   2.046
56821SOL    HW272361   9.167   6.614   1.917
56822SOL     OW72362   8.149  10.369   8.685
56822SOL    HW172363   8.235  10.331   8.704
56822SOL    HW272364   8.123  10.328   8.603
56823SOL     OW72365  10.487   1.827   6.690
56823SOL    HW172366  10.529   1.799   6.608
56823SOL    HW272367  10.506   1.756   6.752
56824SOL     OW72368  11.409  10.010   8.760
56824SOL    HW172369  11.432   9.971   8.675
56824SOL    HW272370  11.372   9.938   8.810
56825SOL     OW72371   9.424   9.333   5.821
56825SOL    HW172372   9.446   9.424   5.840
56825SOL    HW272373   9.329   9.331   5.818
56826SOL     OW72374   6.055   9.957  13.958
56826SOL    HW172375   5.987  10.024  13.972
56826SOL    HW272376   6.054   9.942  13.864
56827SOL     OW72377   8.270  14.611   0.251
56827SOL    HW172378   8.237  14.658   0.327
56827SOL    HW272379   8.198  14.612   0.188
56828SOL     OW72380   3.186   1.033   4.143
56828SOL    HW172381   3.183   1.040   4.048
56828SOL    HW272382   3.102   1.068   4.172
56829SOL     OW72383   9.937  12.800  13.331
56829SOL    HW172384   9.978  12.757  13.406
56829SOL    HW272385   9.843  12.791  13.347
56830SOL     OW72386   5.895   7.504  14.510
56830SOL    HW172387   5.904   7.435  14.444
56830SOL    HW272388   5.979   7.550  14.509
56831SOL     OW72389  12.825   6.500   0.277
56831SOL    HW172390  12.884   6.426   0.293
56831SOL    HW272391  12.821   6.546   0.361
56832SOL     OW72392  11.364   8.953   0.903
56832SOL    HW172393  11.345   9.007   0.826
56832SOL    HW272394  11.388   9.015   0.971
56833SOL     OW72395  13.420  12.727   0.680
56833SOL    HW172396  13.391  12.795   0.741
56833SOL    HW272397  13.356  12.730   0.609
56834SOL     OW72398   4.767   0.855  10.786
56834SOL    HW172399   4.831   0.791  10.756
56834SOL    HW272400   4.701   0.857  10.716
56835SOL     OW72401   7.681   8.052  10.274
56835SOL    HW172402   7.713   7.964  10.254
56835SOL    HW272403   7.752   8.110  10.245
56836SOL     OW72404  11.948   1.960   2.193
56836SOL    HW172405  12.017   2.001   2.141
56836SOL    HW272406  11.913   2.031   2.247
56837SOL     OW72407   1.616   9.879   3.833
56837SOL    HW172408   1.659   9.891   3.918
56837SOL    HW272409   1.570   9.796   3.841
56838SOL     OW72410   2.518   2.051   1.943
56838SOL    HW172411   2.469   2.115   1.891
56838SOL    HW272412   2.470   1.969   1.931
56839SOL     OW72413  12.637   5.047   2.072
56839SOL    HW172414  12.715   4.992   2.067
56839SOL    HW272415  12.637   5.095   1.989
56840SOL     OW72416  14.010  10.725   0.394
56840SOL    HW172417  14.062  10.803   0.373
56840SOL    HW272418  14.025  10.666   0.320
56841SOL     OW72419   9.017   5.938   9.673
56841SOL    HW172420   9.076   5.893   9.613
56841SOL    HW272421   8.941   5.880   9.681
56842SOL     OW72422   3.065   1.381   3.248
56842SOL    HW172423   3.029   1.448   3.189
56842SOL    HW272424   3.010   1.304   3.233
56843SOL     OW72425   9.841  14.043   4.319
56843SOL    HW172426   9.790  14.106   4.267
56843SOL    HW272427   9.801  14.046   4.406
56844SOL     OW72428   9.114  11.126  12.938
56844SOL    HW172429   9.109  11.221  12.925
56844SOL    HW272430   9.165  11.094  12.865
56845SOL     OW72431  10.451  14.803   6.696
56845SOL    HW172432  10.494  14.746   6.632
56845SOL    HW272433  10.468  14.761   6.780
56846SOL     OW72434   9.671   9.482   1.000
56846SOL    HW172435   9.694   9.575   1.002
56846SOL    HW272436   9.709   9.449   0.919
56847SOL     OW72437  11.602   2.831   4.593
56847SOL    HW172438  11.671   2.870   4.539
56847SOL    HW272439  11.640   2.750   4.626
56848SOL     OW72440   8.117   0.859   2.715
56848SOL    HW172441   8.039   0.894   2.673
56848SOL    HW272442   8.164   0.936   2.748
56849SOL     OW72443   6.202   2.551  13.355
56849SOL    HW172444   6.268   2.484  13.336
56849SOL    HW272445   6.128   2.503  13.391
56850SOL     OW72446   7.393   5.604   2.113
56850SOL    HW172447   7.327   5.672   2.102
56850SOL    HW272448   7.436   5.597   2.028
56851SOL     OW72449   3.854   5.770  11.494
56851SOL    HW172450   3.867   5.737  11.405
56851SOL    HW272451   3.776   5.826  11.487
56852SOL     OW72452   5.201   2.136   6.704
56852SOL    HW172453   5.217   2.042   6.703
56852SOL    HW272454   5.276   2.174   6.658
56853SOL     OW72455   1.153   7.130  14.175
56853SOL    HW172456   1.200   7.205  14.211
56853SOL    HW272457   1.096   7.100  14.246
56854SOL     OW72458   2.253  13.958   7.088
56854SOL    HW172459   2.323  14.023   7.087
56854SOL    HW272460   2.295  13.877   7.114
56855SOL     OW72461  11.915   8.870  13.930
56855SOL    HW172462  11.865   8.797  13.968
56855SOL    HW272463  12.000   8.832  13.909
56856SOL     OW72464   0.721   7.609  11.835
56856SOL    HW172465   0.626   7.597  11.824
56856SOL    HW272466   0.756   7.520  11.833
56857SOL     OW72467   6.145  12.483   5.236
56857SOL    HW172468   6.110  12.427   5.306
56857SOL    HW272469   6.078  12.549   5.222
56858SOL     OW72470   4.571  14.361  12.850
56858SOL    HW172471   4.475  14.362  12.852
56858SOL    HW272472   4.596  14.318  12.932
56859SOL     OW72473   7.601  11.770   3.303
56859SOL    HW172474   7.507  11.782   3.309
56859SOL    HW272475   7.617  11.687   3.348
56860SOL     OW72476  12.391   4.264   7.130
56860SOL    HW172477  12.313   4.317   7.115
56860SOL    HW272478  12.368   4.177   7.097
56861SOL     OW72479  12.610  10.395   7.397
56861SOL    HW172480  12.534  10.415   7.343
56861SOL    HW272481  12.684  10.396   7.337
56862SOL     OW72482   0.845   6.226   7.934
56862SOL    HW172483   0.866   6.154   7.993
56862SOL    HW272484   0.756   6.209   7.904
56863SOL     OW72485  13.167  11.898   4.245
56863SOL    HW172486  13.107  11.965   4.212
56863SOL    HW272487  13.141  11.818   4.199
56864SOL     OW72488   7.246   0.220  10.106
56864SOL    HW172489   7.323   0.164  10.114
56864SOL    HW272490   7.276   0.296  10.057
56865SOL     OW72491   0.689   7.126  13.466
56865SOL    HW172492   0.605   7.091  13.494
56865SOL    HW272493   0.672   7.219  13.448
56866SOL     OW72494  10.492   7.682   6.447
56866SOL    HW172495  10.437   7.761   6.448
56866SOL    HW272496  10.482   7.645   6.535
56867SOL     OW72497  14.034   0.432   8.466
56867SOL    HW172498  13.955   0.418   8.413
56867SOL    HW272499  14.010   0.399   8.553
56868SOL     OW72500   7.949   4.105   7.414
56868SOL    HW172501   7.911   4.162   7.480
56868SOL    HW272502   8.037   4.085   7.446
56869SOL     OW72503  11.366   6.935   3.569
56869SOL    HW172504  11.324   6.954   3.653
56869SOL    HW272505  11.434   6.872   3.590
56870SOL     OW72506   9.581   9.065  12.143
56870SOL    HW172507   9.510   9.083  12.204
56870SOL    HW272508   9.557   9.113  12.063
56871SOL     OW72509   5.725   3.972   6.730
56871SOL    HW172510   5.756   3.885   6.706
56871SOL    HW272511   5.660   3.957   6.799
56872SOL     OW72512   6.950  12.507   9.163
56872SOL    HW172513   6.962  12.422   9.206
56872SOL    HW272514   6.881  12.493   9.098
56873SOL     OW72515   5.940  11.957   3.510
56873SOL    HW172516   6.007  11.948   3.442
56873SOL    HW272517   5.895  12.038   3.488
56874SOL     OW72518   4.876  11.052  14.769
56874SOL    HW172519   4.899  11.128  14.822
56874SOL    HW272520   4.801  11.013  14.814
56875SOL     OW72521   8.094  14.005   2.632
56875SOL    HW172522   8.185  14.030   2.648
56875SOL    HW272523   8.054  14.004   2.720
56876SOL     OW72524   6.235  11.340   9.624
56876SOL    HW172525   6.324  11.342   9.588
56876SOL    HW272526   6.182  11.299   9.555
56877SOL     OW72527  12.412  10.055   7.880
56877SOL    HW172528  12.349  10.077   7.950
56877SOL    HW272529  12.357  10.020   7.809
56878SOL     OW72530  12.405  14.403   9.741
56878SOL    HW172531  12.485  14.391   9.792
56878SOL    HW272532  12.435  14.424   9.653
56879SOL     OW72533  12.181   2.646   4.125
56879SOL    HW172534  12.128   2.725   4.116
56879SOL    HW272535  12.251   2.671   4.185
56880SOL     OW72536   2.726   0.420  10.418
56880SOL    HW172537   2.781   0.498  10.422
56880SOL    HW272538   2.763   0.361  10.483
56881SOL     OW72539   5.865   5.621   1.039
56881SOL    HW172540   5.926   5.599   1.109
56881SOL    HW272541   5.778   5.606   1.077
56882SOL     OW72542   9.933   6.930   1.659
56882SOL    HW172543   9.983   7.009   1.679
56882SOL    HW272544   9.847   6.944   1.699
56883SOL     OW72545   9.597   6.865  10.011
56883SOL    HW172546   9.575   6.907   9.928
56883SOL    HW272547   9.662   6.923  10.050
56884SOL     OW72548  13.267   5.368   3.152
56884SOL    HW172549  13.259   5.307   3.079
56884SOL    HW272550  13.187   5.355   3.203
56885SOL     OW72551  11.035   1.568   8.265
56885SOL    HW172552  11.123   1.605   8.259
56885SOL    HW272553  11.050   1.473   8.268
56886SOL     OW72554  14.153   6.031   9.725
56886SOL    HW172555  14.069   6.000   9.758
56886SOL    HW272556  14.184   5.959   9.670
56887SOL     OW72557   2.639  13.653   2.713
56887SOL    HW172558   2.566  13.626   2.658
56887SOL    HW272559   2.681  13.724   2.664
56888SOL     OW72560   1.651  11.164   0.399
56888SOL    HW172561   1.609  11.221   0.334
56888SOL    HW272562   1.595  11.086   0.403
56889SOL     OW72563   0.545   6.286   7.531
56889SOL    HW172564   0.594   6.342   7.591
56889SOL    HW272565   0.610   6.258   7.466
56890SOL     OW72566   6.563   7.205  10.590
56890SOL    HW172567   6.497   7.269  10.564
56890SOL    HW272568   6.626   7.205  10.518
56891SOL     OW72569   2.909   7.635   6.078
56891SOL    HW172570   2.973   7.567   6.097
56891SOL    HW272571   2.948   7.685   6.006
56892SOL     OW72572   5.254  13.568   6.741
56892SOL    HW172573   5.270  13.487   6.693
56892SOL    HW272574   5.176  13.552   6.793
56893SOL     OW72575   2.255  11.072   1.052
56893SOL    HW172576   2.328  11.025   1.012
56893SOL    HW272577   2.283  11.088   1.142
56894SOL     OW72578   1.223  13.592   0.820
56894SOL    HW172579   1.232  13.540   0.740
56894SOL    HW272580   1.313  13.611   0.846
56895SOL     OW72581   5.693   9.140   6.928
56895SOL    HW172582   5.738   9.176   7.005
56895SOL    HW272583   5.651   9.060   6.960
56896SOL     OW72584   4.307  12.916   7.522
56896SOL    HW172585   4.336  12.932   7.432
56896SOL    HW272586   4.387  12.916   7.574
56897SOL     OW72587  10.549   2.442   3.368
56897SOL    HW172588  10.461   2.480   3.364
56897SOL    HW272589  10.582   2.467   3.454
56898SOL     OW72590  13.427   6.819   5.487
56898SOL    HW172591  13.511   6.814   5.532
56898SOL    HW272592  13.380   6.890   5.532
56899SOL     OW72593   2.634  14.154   9.585
56899SOL    HW172594   2.565  14.220   9.593
56899SOL    HW272595   2.707  14.201   9.545
56900SOL     OW72596   7.876   7.952   1.682
56900SOL    HW172597   7.936   8.020   1.653
56900SOL    HW272598   7.930   7.874   1.691
56901SOL     OW72599  13.276   5.542   5.764
56901SOL    HW172600  13.209   5.478   5.787
56901SOL    HW272601  13.286   5.533   5.669
56902SOL     OW72602   5.006  12.581  14.387
56902SOL    HW172603   5.091  12.542  14.407
56902SOL    HW272604   5.022  12.637  14.311
56903SOL     OW72605   0.716  12.427  13.193
56903SOL    HW172606   0.716  12.486  13.118
56903SOL    HW272607   0.624  12.426  13.222
56904SOL     OW72608   1.887  13.212   6.716
56904SOL    HW172609   1.877  13.216   6.621
56904SOL    HW272610   1.981  13.213   6.731
56905SOL     OW72611   8.699   4.979  11.253
56905SOL    HW172612   8.730   4.927  11.179
56905SOL    HW272613   8.716   5.070  11.227
56906SOL     OW72614  14.596   2.118  12.436
56906SOL    HW172615  14.672   2.141  12.383
56906SOL    HW272616  14.521   2.148  12.384
56907SOL     OW72617   4.907  13.908   5.342
56907SOL    HW172618   4.825  13.911   5.293
56907SOL    HW272619   4.969  13.867   5.282
56908SOL     OW72620   7.776  11.394   0.266
56908SOL    HW172621   7.752  11.352   0.349
56908SOL    HW272622   7.763  11.327   0.200
56909SOL     OW72623   2.777   4.875  11.739
56909SOL    HW172624   2.734   4.882  11.653
56909SOL    HW272625   2.783   4.966  11.769
56910SOL     OW72626  14.347   2.416   8.914
56910SOL    HW172627  14.304   2.433   8.998
56910SOL    HW272628  14.324   2.326   8.893
56911SOL     OW72629   5.269  10.379   1.427
56911SOL    HW172630   5.338  10.435   1.462
56911SOL    HW272631   5.190  10.434   1.429
56912SOL     OW72632  11.515   5.014   8.304
56912SOL    HW172633  11.427   4.976   8.306
56912SOL    HW272634  11.502   5.103   8.270
56913SOL     OW72635   5.500   3.073   0.767
56913SOL    HW172636   5.541   3.158   0.781
56913SOL    HW272637   5.437   3.064   0.839
56914SOL     OW72638   3.428   0.473   7.287
56914SOL    HW172639   3.416   0.383   7.256
56914SOL    HW272640   3.345   0.495   7.329
56915SOL     OW72641   1.863  13.276   7.302
56915SOL    HW172642   1.863  13.371   7.311
56915SOL    HW272643   1.854  13.261   7.208
56916SOL     OW72644   3.915   8.503  11.486
56916SOL    HW172645   3.985   8.468  11.540
56916SOL    HW272646   3.857   8.548  11.548
56917SOL     OW72647   7.018  11.500  13.926
56917SOL    HW172648   6.938  11.492  13.874
56917SOL    HW272649   7.037  11.411  13.955
56918SOL     OW72650   6.824  12.653   0.144
56918SOL    HW172651   6.869  12.731   0.176
56918SOL    HW272652   6.778  12.681   0.065
56919SOL     OW72653  14.050   9.815   4.674
56919SOL    HW172654  14.117   9.845   4.735
56919SOL    HW272655  13.974   9.797   4.729
56920SOL     OW72656  14.145  13.282   0.496
56920SOL    HW172657  14.187  13.293   0.582
56920SOL    HW272658  14.197  13.336   0.437
56921SOL     OW72659   0.971  11.985   2.543
56921SOL    HW172660   0.936  12.074   2.538
56921SOL    HW272661   1.038  11.981   2.475
56922SOL     OW72662   5.526   7.109   8.289
56922SOL    HW172663   5.605   7.130   8.339
56922SOL    HW272664   5.525   7.013   8.286
56923SOL     OW72665   2.288   7.695   0.698
56923SOL    HW172666   2.320   7.783   0.680
56923SOL    HW272667   2.219   7.708   0.763
56924SOL     OW72668  14.257   3.535   7.426
56924SOL    HW172669  14.223   3.581   7.503
56924SOL    HW272670  14.237   3.443   7.441
56925SOL     OW72671  13.733   3.991   9.376
56925SOL    HW172672  13.646   3.965   9.405
56925SOL    HW272673  13.728   4.086   9.369
56926SOL     OW72674  14.463   7.701   3.316
56926SOL    HW172675  14.450   7.680   3.223
56926SOL    HW272676  14.551   7.739   3.319
56927SOL     OW72677   3.850  11.977   8.687
56927SOL    HW172678   3.878  12.020   8.769
56927SOL    HW272679   3.759  12.003   8.676
56928SOL     OW72680   2.077   5.354   6.799
56928SOL    HW172681   1.984   5.358   6.776
56928SOL    HW272682   2.084   5.404   6.880
56929SOL     OW72683   5.175   0.069   8.260
56929SOL    HW172684   5.188   0.140   8.198
56929SOL    HW272685   5.083   0.076   8.286
56930SOL     OW72686  12.177  10.465  14.595
56930SOL    HW172687  12.116  10.481  14.523
56930SOL    HW272688  12.264  10.482  14.559
56931SOL     OW72689  12.861   3.265   3.725
56931SOL    HW172690  12.814   3.270   3.808
56931SOL    HW272691  12.793   3.254   3.659
56932SOL     OW72692   1.946   6.420   5.785
56932SOL    HW172693   2.020   6.383   5.739
56932SOL    HW272694   1.979   6.503   5.821
56933SOL     OW72695  12.489  10.095  13.893
56933SOL    HW172696  12.489  10.004  13.863
56933SOL    HW272697  12.401  10.127  13.873
56934SOL     OW72698   0.067   5.008  10.736
56934SOL    HW172699   0.037   4.921  10.709
56934SOL    HW272700  14.872   5.042  10.789
56935SOL     OW72701   6.984   3.095   1.265
56935SOL    HW172702   6.911   3.136   1.312
56935SOL    HW272703   7.010   3.160   1.200
56936SOL     OW72704   1.872  12.082  14.223
56936SOL    HW172705   1.898  12.030  14.299
56936SOL    HW272706   1.830  12.159  14.260
56937SOL     OW72707  11.911   0.936   0.320
56937SOL    HW172708  11.956   0.993   0.257
56937SOL    HW272709  11.818   0.953   0.305
56938SOL     OW72710   0.809   5.414  12.617
56938SOL    HW172711   0.885   5.468  12.595
56938SOL    HW272712   0.801   5.353  12.544
56939SOL     OW72713   7.841  10.398   0.640
56939SOL    HW172714   7.919  10.424   0.690
56939SOL    HW272715   7.794  10.339   0.699
56940SOL     OW72716   3.726   3.293  10.155
56940SOL    HW172717   3.668   3.288  10.231
56940SOL    HW272718   3.793   3.227  10.171
56941SOL     OW72719   6.345   1.740  14.212
56941SOL    HW172720   6.421   1.749  14.269
56941SOL    HW272721   6.336   1.826  14.171
56942SOL     OW72722  10.756  10.577  11.402
56942SOL    HW172723  10.663  10.555  11.401
56942SOL    HW272724  10.768  10.630  11.480
56943SOL     OW72725  12.935   0.829  13.468
56943SOL    HW172726  12.924   0.758  13.530
56943SOL    HW272727  12.855   0.828  13.415
56944SOL     OW72728   9.364   0.529   1.818
56944SOL    HW172729   9.427   0.598   1.796
56944SOL    HW272730   9.418   0.452   1.834
56945SOL     OW72731  10.848  12.143   0.965
56945SOL    HW172732  10.787  12.181   0.902
56945SOL    HW272733  10.799  12.074   1.008
56946SOL     OW72734   0.198  10.820   8.484
56946SOL    HW172735   0.243  10.764   8.547
56946SOL    HW272736   0.113  10.838   8.523
56947SOL     OW72737   7.916   0.235  12.676
56947SOL    HW172738   7.836   0.182  12.674
56947SOL    HW272739   7.967   0.203  12.602
56948SOL     OW72740   3.943  10.950   3.057
56948SOL    HW172741   3.947  11.025   3.116
56948SOL    HW272742   3.959  10.874   3.113
56949SOL     OW72743  10.325   3.427  13.892
56949SOL    HW172744  10.412   3.463  13.910
56949SOL    HW272745  10.265   3.498  13.915
56950SOL     OW72746   8.399   0.028   3.812
56950SOL    HW172747   8.334  14.856   3.860
56950SOL    HW272748   8.482  14.861   3.830
56951SOL     OW72749   7.226  13.182   0.597
56951SOL    HW172750   7.257  13.202   0.686
56951SOL    HW272751   7.238  13.087   0.588
56952SOL     OW72752   1.768   5.818  10.690
56952SOL    HW172753   1.752   5.832  10.596
56952SOL    HW272754   1.692   5.767  10.719
56953SOL     OW72755   6.792   8.154  12.951
56953SOL    HW172756   6.837   8.072  12.971
56953SOL    HW272757   6.709   8.149  12.998
56954SOL     OW72758  10.492   6.677   9.347
56954SOL    HW172759  10.488   6.582   9.354
56954SOL    HW272760  10.539   6.705   9.426
56955SOL     OW72761  13.783   1.780   2.871
56955SOL    HW172762  13.743   1.747   2.791
56955SOL    HW272763  13.712   1.777   2.936
56956SOL     OW72764  11.589   8.836  14.362
56956SOL    HW172765  11.527   8.906  14.384
56956SOL    HW272766  11.542   8.755  14.384
56957SOL     OW72767   8.412   5.288   4.419
56957SOL    HW172768   8.495   5.333   4.401
56957SOL    HW272769   8.438   5.200   4.446
56958SOL     OW72770   0.724   3.952   0.023
56958SOL    HW172771   0.801   3.903  14.871
56958SOL    HW272772   0.683   3.896   0.089
56959SOL     OW72773  14.669   5.506  14.717
56959SOL    HW172774  14.612   5.491  14.792
56959SOL    HW272775  14.610   5.516  14.643
56960SOL     OW72776   6.522  14.067   6.243
56960SOL    HW172777   6.538  14.005   6.172
56960SOL    HW272778   6.484  14.014   6.313
56961SOL     OW72779   9.071   3.700   5.594
56961SOL    HW172780   9.096   3.622   5.545
56961SOL    HW272781   9.046   3.667   5.680
56962SOL     OW72782  10.160  14.256   4.018
56962SOL    HW172783  10.185  14.173   4.059
56962SOL    HW272784  10.098  14.231   3.949
56963SOL     OW72785  13.009  10.436   5.855
56963SOL    HW172786  13.098  10.411   5.829
56963SOL    HW272787  12.969  10.470   5.775
56964SOL     OW72788  14.150   4.187  12.867
56964SOL    HW172789  14.105   4.268  12.843
56964SOL    HW272790  14.099   4.118  12.825
56965SOL     OW72791  10.522   8.960  13.920
56965SOL    HW172792  10.439   8.931  13.882
56965SOL    HW272793  10.554   8.884  13.969
56966SOL     OW72794   9.316   6.648   6.424
56966SOL    HW172795   9.297   6.592   6.348
56966SOL    HW272796   9.237   6.643   6.478
56967SOL     OW72797   9.167   2.724   2.890
56967SOL    HW172798   9.126   2.674   2.820
56967SOL    HW272799   9.109   2.799   2.904
56968SOL     OW72800  13.431   3.035   2.824
56968SOL    HW172801  13.399   2.950   2.794
56968SOL    HW272802  13.412   3.036   2.918
56969SOL     OW72803   5.444   2.365   5.447
56969SOL    HW172804   5.533   2.372   5.482
56969SOL    HW272805   5.451   2.397   5.356
56970SOL     OW72806   9.644   8.966   5.619
56970SOL    HW172807   9.662   8.880   5.581
56970SOL    HW272808   9.582   8.948   5.690
56971SOL     OW72809  10.328  12.986   8.387
56971SOL    HW172810  10.359  12.906   8.345
56971SOL    HW272811  10.335  12.967   8.481
56972SOL     OW72812   7.253   0.904  11.094
56972SOL    HW172813   7.259   0.845  11.018
56972SOL    HW272814   7.266   0.992  11.057
56973SOL     OW72815   8.218   3.427  14.623
56973SOL    HW172816   8.281   3.497  14.638
56973SOL    HW272817   8.220   3.414  14.528
56974SOL     OW72818   7.842   4.316  13.386
56974SOL    HW172819   7.776   4.307  13.316
56974SOL    HW272820   7.920   4.273  13.351
56975SOL     OW72821   9.606   8.113   7.059
56975SOL    HW172822   9.546   8.080   7.125
56975SOL    HW272823   9.596   8.053   6.985
56976SOL     OW72824   6.419  11.806  13.676
56976SOL    HW172825   6.507  11.842  13.683
56976SOL    HW272826   6.405  11.760  13.759
56977SOL     OW72827   6.313   5.693   8.051
56977SOL    HW172828   6.363   5.765   8.013
56977SOL    HW272829   6.361   5.614   8.027
56978SOL     OW72830   2.025   1.565  12.625
56978SOL    HW172831   1.957   1.602  12.680
56978SOL    HW272832   2.020   1.614  12.543
56979SOL     OW72833   5.828  14.121   4.290
56979SOL    HW172834   5.910  14.129   4.339
56979SOL    HW272835   5.848  14.160   4.204
56980SOL     OW72836   1.350  13.690   6.006
56980SOL    HW172837   1.299  13.755   5.959
56980SOL    HW272838   1.291  13.656   6.073
56981SOL     OW72839   7.961  12.933   0.089
56981SOL    HW172840   7.967  13.008   0.148
56981SOL    HW272841   7.990  12.967   0.004
56982SOL     OW72842  14.078  11.615   6.570
56982SOL    HW172843  14.015  11.656   6.510
56982SOL    HW272844  14.047  11.524   6.578
56983SOL     OW72845  14.184   2.965   2.386
56983SOL    HW172846  14.097   2.997   2.362
56983SOL    HW272847  14.240   2.991   2.314
56984SOL     OW72848  11.324  12.637  11.419
56984SOL    HW172849  11.238  12.605  11.443
56984SOL    HW272850  11.333  12.616  11.326
56985SOL     OW72851   1.315   7.429   6.170
56985SOL    HW172852   1.267   7.485   6.231
56985SOL    HW272853   1.314   7.343   6.211
56986SOL     OW72854   3.198  11.520   6.427
56986SOL    HW172855   3.195  11.545   6.335
56986SOL    HW272856   3.125  11.566   6.467
56987SOL     OW72857  11.572   2.271   8.288
56987SOL    HW172858  11.543   2.220   8.363
56987SOL    HW272859  11.650   2.225   8.256
56988SOL     OW72860   8.263  10.861  12.349
56988SOL    HW172861   8.205  10.794  12.314
56988SOL    HW272862   8.250  10.936  12.292
56989SOL     OW72863   1.059   6.971   9.129
56989SOL    HW172864   1.099   6.960   9.043
56989SOL    HW272865   1.073   7.063   9.151
56990SOL     OW72866   4.610  10.686  12.659
56990SOL    HW172867   4.702  10.667  12.680
56990SOL    HW272868   4.569  10.600  12.651
56991SOL     OW72869   6.353   8.687   3.609
56991SOL    HW172870   6.418   8.619   3.629
56991SOL    HW272871   6.375   8.759   3.667
56992SOL     OW72872   3.914  12.615   7.706
56992SOL    HW172873   3.958  12.540   7.745
56992SOL    HW272874   3.985  12.675   7.683
56993SOL     OW72875   5.021   0.713  14.690
56993SOL    HW172876   5.084   0.727  14.761
56993SOL    HW272877   4.957   0.652  14.727
56994SOL     OW72878   6.217  10.225   9.449
56994SOL    HW172879   6.152  10.281   9.490
56994SOL    HW272880   6.176  10.195   9.368
56995SOL     OW72881   4.070   1.621   0.298
56995SOL    HW172882   4.060   1.641   0.392
56995SOL    HW272883   4.001   1.672   0.256
56996SOL     OW72884  12.116   6.037  13.658
56996SOL    HW172885  12.172   6.035  13.735
56996SOL    HW272886  12.027   6.036  13.692
56997SOL     OW72887  14.649   4.599   4.539
56997SOL    HW172888  14.671   4.666   4.474
56997SOL    HW272889  14.608   4.529   4.488
56998SOL     OW72890  14.760  12.997  14.437
56998SOL    HW172891  14.695  12.958  14.495
56998SOL    HW272892  14.733  12.971  14.349
56999SOL     OW72893   0.158   8.236  12.453
56999SOL    HW172894   0.192   8.268  12.537
56999SOL    HW272895   0.072   8.278  12.444
57000SOL     OW72896  11.475   8.327   6.900
57000SOL    HW172897  11.567   8.338   6.923
57000SOL    HW272898  11.428   8.350   6.980
57001SOL     OW72899  11.650   2.000   3.470
57001SOL    HW172900  11.742   2.001   3.498
57001SOL    HW272901  11.611   2.075   3.516
57002SOL     OW72902   9.690   0.427   4.795
57002SOL    HW172903   9.725   0.516   4.800
57002SOL    HW272904   9.766   0.371   4.790
57003SOL     OW72905   5.802   2.308   6.835
57003SOL    HW172906   5.852   2.360   6.897
57003SOL    HW272907   5.822   2.217   6.859
57004SOL     OW72908   1.116   6.923  10.755
57004SOL    HW172909   1.190   6.967  10.797
57004SOL    HW272910   1.106   6.841  10.802
57005SOL     OW72911  13.461   1.895   3.691
57005SOL    HW172912  13.490   1.829   3.754
57005SOL    HW272913  13.365   1.896   3.701
57006SOL     OW72914   1.241   5.497   1.695
57006SOL    HW172915   1.305   5.549   1.743
57006SOL    HW272916   1.275   5.492   1.606
57007SOL     OW72917   1.400   3.715   7.025
57007SOL    HW172918   1.334   3.669   6.974
57007SOL    HW272919   1.465   3.742   6.961
57008SOL     OW72920   7.284   4.126   1.995
57008SOL    HW172921   7.197   4.136   1.956
57008SOL    HW272922   7.306   4.033   1.982
57009SOL     OW72923  14.427  10.400  10.723
57009SOL    HW172924  14.338  10.422  10.748
57009SOL    HW272925  14.481  10.437  10.792
57010SOL     OW72926   0.432  11.678   7.747
57010SOL    HW172927   0.383  11.607   7.704
57010SOL    HW272928   0.522  11.645   7.752
57011SOL     OW72929  14.246   0.706   7.946
57011SOL    HW172930  14.319   0.660   7.987
57011SOL    HW272931  14.257   0.691   7.853
57012SOL     OW72932   7.361   9.972   3.387
57012SOL    HW172933   7.295  10.021   3.436
57012SOL    HW272934   7.404   9.916   3.452
57013SOL     OW72935  10.937   7.169   9.206
57013SOL    HW172936  10.907   7.096   9.152
57013SOL    HW272937  10.927   7.137   9.296
57014SOL     OW72938   6.343   3.316   7.324
57014SOL    HW172939   6.358   3.367   7.404
57014SOL    HW272940   6.290   3.373   7.268
57015SOL     OW72941   9.082   4.197  14.749
57015SOL    HW172942   9.094   4.102  14.748
57015SOL    HW272943   9.003   4.212  14.801
57016SOL     OW72944   1.604  13.348   5.387
57016SOL    HW172945   1.680  13.404   5.406
57016SOL    HW272946   1.614  13.274   5.447
57017SOL     OW72947   6.591   6.438   7.745
57017SOL    HW172948   6.680   6.469   7.759
57017SOL    HW272949   6.596   6.386   7.665
57018SOL     OW72950  12.455   4.647   1.314
57018SOL    HW172951  12.484   4.730   1.276
57018SOL    HW272952  12.535   4.606   1.347
57019SOL     OW72953  12.886  12.470  13.001
57019SOL    HW172954  12.802  12.451  12.959
57019SOL    HW272955  12.871  12.551  13.049
57020SOL     OW72956   0.889  11.611   3.166
57020SOL    HW172957   0.851  11.680   3.221
57020SOL    HW272958   0.974  11.646   3.139
57021SOL     OW72959  14.798  13.169   4.768
57021SOL    HW172960  14.826  13.171   4.676
57021SOL    HW272961  14.708  13.139   4.764
57022SOL     OW72962  11.840  13.427   6.363
57022SOL    HW172963  11.771  13.365   6.385
57022SOL    HW272964  11.898  13.379   6.304
57023SOL     OW72965   9.366   1.166   9.242
57023SOL    HW172966   9.280   1.152   9.283
57023SOL    HW272967   9.414   1.085   9.260
57024SOL     OW72968   1.348   0.708  11.298
57024SOL    HW172969   1.396   0.640  11.344
57024SOL    HW272970   1.278   0.734  11.358
57025SOL     OW72971   6.754   4.270   4.598
57025SOL    HW172972   6.743   4.251   4.691
57025SOL    HW272973   6.665   4.277   4.564
57026SOL     OW72974   4.775   6.440   3.796
57026SOL    HW172975   4.756   6.355   3.837
57026SOL    HW272976   4.729   6.436   3.712
57027SOL     OW72977   2.521   1.099   7.974
57027SOL    HW172978   2.532   1.139   7.887
57027SOL    HW272979   2.590   1.139   8.027
57028SOL     OW72980  12.698   4.267   7.527
57028SOL    HW172981  12.752   4.237   7.600
57028SOL    HW272982  12.608   4.249   7.555
57029SOL     OW72983  14.473  14.740   1.002
57029SOL    HW172984  14.425  14.683   0.941
57029SOL    HW272985  14.493  14.818   0.951
57030SOL     OW72986  12.635  11.280   9.612
57030SOL    HW172987  12.564  11.310   9.555
57030SOL    HW272988  12.591  11.259   9.695
57031SOL     OW72989  11.075   5.696  11.327
57031SOL    HW172990  11.152   5.672  11.378
57031SOL    HW272991  11.004   5.643  11.364
57032SOL     OW72992  10.331   9.598   4.086
57032SOL    HW172993  10.395   9.668   4.076
57032SOL    HW272994  10.378   9.519   4.060
57033SOL     OW72995   7.228   0.228   1.979
57033SOL    HW172996   7.297   0.198   2.039
57033SOL    HW272997   7.206   0.150   1.928
57034SOL     OW72998   0.516  11.585   8.541
57034SOL    HW172999   0.525  11.498   8.581
57034SOL    HW273000   0.606  11.618   8.534
57035SOL     OW73001  14.223  10.813   5.141
57035SOL    HW173002  14.262  10.900   5.133
57035SOL    HW273003  14.282  10.765   5.199
57036SOL     OW73004   5.564  11.038   8.044
57036SOL    HW173005   5.532  10.982   8.114
57036SOL    HW273006   5.498  11.107   8.035
57037SOL     OW73007   9.494  14.600   4.814
57037SOL    HW173008   9.483  14.554   4.897
57037SOL    HW273009   9.418  14.574   4.762
57038SOL     OW73010  14.443   3.507  14.784
57038SOL    HW173011  14.446   3.449  14.859
57038SOL    HW273012  14.434   3.595  14.821
57039SOL     OW73013   4.359  14.465   4.620
57039SOL    HW173014   4.449  14.490   4.639
57039SOL    HW273015   4.305  14.530   4.665
57040SOL     OW73016   9.566  14.877  13.969
57040SOL    HW173017   9.661   0.012  13.970
57040SOL    HW273018   9.544  14.870  13.876
57041SOL     OW73019  13.594  13.663   8.987
57041SOL    HW173020  13.684  13.674   8.955
57041SOL    HW273021  13.552  13.610   8.919
57042SOL     OW73022   5.470  12.915   7.520
57042SOL    HW173023   5.404  12.846   7.521
57042SOL    HW273024   5.429  12.987   7.568
57043SOL     OW73025   9.289  10.804   5.237
57043SOL    HW173026   9.298  10.899   5.241
57043SOL    HW273027   9.249  10.780   5.321
57044SOL     OW73028   1.230   4.071   5.108
57044SOL    HW173029   1.209   4.012   5.035
57044SOL    HW273030   1.324   4.058   5.122
57045SOL     OW73031   7.289   6.373  14.656
57045SOL    HW173032   7.334   6.366  14.740
57045SOL    HW273033   7.312   6.292  14.610
57046SOL     OW73034   8.813   2.727   4.618
57046SOL    HW173035   8.863   2.809   4.616
57046SOL    HW273036   8.721   2.755   4.621
57047SOL     OW73037  13.936   4.576   6.926
57047SOL    HW173038  13.876   4.529   6.868
57047SOL    HW273039  13.884   4.649   6.960
57048SOL     OW73040   4.142   8.533   6.148
57048SOL    HW173041   4.145   8.448   6.191
57048SOL    HW273042   4.126   8.596   6.219
57049SOL     OW73043   7.479  13.352   0.379
57049SOL    HW173044   7.526  13.336   0.461
57049SOL    HW273045   7.412  13.416   0.402
57050SOL     OW73046   8.744  13.378  13.633
57050SOL    HW173047   8.833  13.413  13.631
57050SOL    HW273048   8.701  13.420  13.558
57051SOL     OW73049   5.226   2.574   7.536
57051SOL    HW173050   5.204   2.505   7.473
57051SOL    HW273051   5.257   2.647   7.482
57052SOL     OW73052   9.330  11.093   1.573
57052SOL    HW173053   9.405  11.034   1.571
57052SOL    HW273054   9.306  11.105   1.481
57053SOL     OW73055  14.268   0.241  14.050
57053SOL    HW173056  14.213   0.314  14.078
57053SOL    HW273057  14.286   0.191  14.130
57054SOL     OW73058  13.707   7.918  12.960
57054SOL    HW173059  13.732   7.993  13.014
57054SOL    HW273060  13.773   7.851  12.979
57055SOL     OW73061  11.317   0.407   7.597
57055SOL    HW173062  11.349   0.320   7.574
57055SOL    HW273063  11.235   0.390   7.644
57056SOL     OW73064   4.960  11.898   2.691
57056SOL    HW173065   4.920  11.978   2.656
57056SOL    HW273066   5.037  11.930   2.738
57057SOL     OW73067  13.644   3.055  10.285
57057SOL    HW173068  13.673   2.980  10.232
57057SOL    HW273069  13.725   3.090  10.322
57058SOL     OW73070   2.653   5.417  11.843
57058SOL    HW173071   2.628   5.408  11.935
57058SOL    HW273072   2.637   5.509  11.823
57059SOL     OW73073   8.516   6.322   8.591
57059SOL    HW173074   8.429   6.353   8.618
57059SOL    HW273075   8.558   6.400   8.554
57060SOL     OW73076   3.299  12.517   9.709
57060SOL    HW173077   3.283  12.476   9.794
57060SOL    HW273078   3.325  12.606   9.730
57061SOL     OW73079   1.621   5.232   7.646
57061SOL    HW173080   1.706   5.190   7.656
57061SOL    HW273081   1.566   5.190   7.712
57062SOL     OW73082  14.418  14.521   8.445
57062SOL    HW173083  14.496  14.513   8.500
57062SOL    HW273084  14.347  14.542   8.506
57063SOL     OW73085   4.961   2.423   2.014
57063SOL    HW173086   4.885   2.423   2.072
57063SOL    HW273087   5.025   2.368   2.058
57064SOL     OW73088  14.638  11.789   5.264
57064SOL    HW173089  14.685  11.727   5.320
57064SOL    HW273090  14.575  11.735   5.217
57065SOL     OW73091  12.050   9.362   4.043
57065SOL    HW173092  11.990   9.391   4.112
57065SOL    HW273093  12.109   9.435   4.029
57066SOL     OW73094  10.650  10.296  14.457
57066SOL    HW173095  10.738  10.334  14.464
57066SOL    HW273096  10.650  10.225  14.522
57067SOL     OW73097   8.346  10.158   0.249
57067SOL    HW173098   8.310  10.246   0.239
57067SOL    HW273099   8.272  10.105   0.280
57068SOL     OW73100   3.818   6.052  11.876
57068SOL    HW173101   3.857   5.967  11.855
57068SOL    HW273102   3.736   6.031  11.919
57069SOL     OW73103  11.991  13.057   2.631
57069SOL    HW173104  11.938  13.122   2.677
57069SOL    HW273105  12.015  12.994   2.699
57070SOL     OW73106   3.363  12.810   9.424
57070SOL    HW173107   3.311  12.801   9.504
57070SOL    HW273108   3.400  12.898   9.429
57071SOL     OW73109  13.940   2.502   4.557
57071SOL    HW173110  13.982   2.459   4.631
57071SOL    HW273111  14.003   2.496   4.485
57072SOL     OW73112   1.025   5.309   7.979
57072SOL    HW173113   0.939   5.270   7.990
57072SOL    HW273114   1.087   5.238   7.998
57073SOL     OW73115   6.407  12.096   1.017
57073SOL    HW173116   6.388  12.042   0.941
57073SOL    HW273117   6.499  12.078   1.036
57074SOL     OW73118   7.102   7.966   8.157
57074SOL    HW173119   7.011   7.944   8.180
57074SOL    HW273120   7.094   8.043   8.101
57075SOL     OW73121  11.355   4.833   2.657
57075SOL    HW173122  11.357   4.794   2.570
57075SOL    HW273123  11.445   4.858   2.675
57076SOL     OW73124   2.978   0.251   8.978
57076SOL    HW173125   2.904   0.290   9.025
57076SOL    HW273126   2.939   0.182   8.925
57077SOL     OW73127  10.649   1.451  13.873
57077SOL    HW173128  10.694   1.532  13.851
57077SOL    HW273129  10.634   1.456  13.967
57078SOL     OW73130   7.374   0.119   7.878
57078SOL    HW173131   7.331   0.042   7.841
57078SOL    HW273132   7.317   0.146   7.950
57079SOL     OW73133   8.867  11.861   3.616
57079SOL    HW173134   8.922  11.812   3.555
57079SOL    HW273135   8.786  11.877   3.569
57080SOL     OW73136  10.722   9.183   6.804
57080SOL    HW173137  10.658   9.148   6.742
57080SOL    HW273138  10.783   9.110   6.819
57081SOL     OW73139   7.163  11.025  12.457
57081SOL    HW173140   7.138  11.051  12.368
57081SOL    HW273141   7.178  10.931  12.451
57082SOL     OW73142   6.944   6.890   9.909
57082SOL    HW173143   6.988   6.971   9.935
57082SOL    HW273144   6.852   6.904   9.933
57083SOL     OW73145   7.175  11.349  14.266
57083SOL    HW173146   7.112  11.315  14.202
57083SOL    HW273147   7.248  11.289  14.262
57084SOL     OW73148   7.689   0.426   4.818
57084SOL    HW173149   7.716   0.426   4.910
57084SOL    HW273150   7.594   0.436   4.820
57085SOL     OW73151  11.057   1.928   2.152
57085SOL    HW173152  11.083   1.837   2.166
57085SOL    HW273153  11.079   1.945   2.060
57086SOL     OW73154   7.107  12.820  10.781
57086SOL    HW173155   7.122  12.875  10.858
57086SOL    HW273156   7.012  12.812  10.775
57087SOL     OW73157  11.473  14.352   9.923
57087SOL    HW173158  11.474  14.420   9.855
57087SOL    HW273159  11.408  14.382   9.986
57088SOL     OW73160   1.776   5.551   0.446
57088SOL    HW173161   1.804   5.511   0.363
57088SOL    HW273162   1.857   5.585   0.483
57089SOL     OW73163   8.590   2.570   3.370
57089SOL    HW173164   8.650   2.515   3.420
57089SOL    HW273165   8.624   2.566   3.280
57090SOL     OW73166  10.980   0.694  11.165
57090SOL    HW173167  11.019   0.650  11.089
57090SOL    HW273168  10.930   0.766  11.128
57091SOL     OW73169   5.121   5.977  14.007
57091SOL    HW173170   5.031   6.009  14.004
57091SOL    HW273171   5.160   6.022  14.082
57092SOL     OW73172   1.715   4.203  13.744
57092SOL    HW173173   1.726   4.168  13.832
57092SOL    HW273174   1.805   4.217  13.713
57093SOL     OW73175   3.771  13.610  14.368
57093SOL    HW173176   3.712  13.670  14.413
57093SOL    HW273177   3.800  13.549  14.435
57094SOL     OW73178  14.058  13.921  13.822
57094SOL    HW173179  13.968  13.924  13.789
57094SOL    HW273180  14.083  13.829  13.813
57095SOL     OW73181   8.486  12.121  10.628
57095SOL    HW173182   8.500  12.103  10.721
57095SOL    HW273183   8.400  12.163  10.624
57096SOL     OW73184   1.692   2.393   9.908
57096SOL    HW173185   1.740   2.341   9.972
57096SOL    HW273186   1.699   2.343   9.827
57097SOL     OW73187   6.308   2.760   8.332
57097SOL    HW173188   6.379   2.808   8.292
57097SOL    HW273189   6.341   2.670   8.339
57098SOL     OW73190   0.060   5.285   1.800
57098SOL    HW173191   0.039   5.195   1.778
57098SOL    HW273192   0.097   5.281   1.888
57099SOL     OW73193   5.263  13.434  10.180
57099SOL    HW173194   5.218  13.364  10.228
57099SOL    HW273195   5.254  13.511  10.236
57100SOL     OW73196  10.635   7.874   7.187
57100SOL    HW173197  10.675   7.873   7.274
57100SOL    HW273198  10.704   7.845   7.128
57101SOL     OW73199  12.586   4.488  11.638
57101SOL    HW173200  12.545   4.512  11.554
57101SOL    HW273201  12.673   4.527  11.634
57102SOL     OW73202  14.345   2.783   6.159
57102SOL    HW173203  14.370   2.697   6.126
57102SOL    HW273204  14.344   2.773   6.254
57103SOL     OW73205  13.624   8.375   1.068
57103SOL    HW173206  13.636   8.428   1.147
57103SOL    HW273207  13.698   8.400   1.011
57104SOL     OW73208  13.227   7.553   7.530
57104SOL    HW173209  13.154   7.511   7.576
57104SOL    HW273210  13.209   7.535   7.437
57105SOL     OW73211   6.761   4.045   0.089
57105SOL    HW173212   6.743   4.078   0.001
57105SOL    HW273213   6.854   4.022   0.088
57106SOL     OW73214   4.408   5.299   1.701
57106SOL    HW173215   4.494   5.320   1.737
57106SOL    HW273216   4.421   5.214   1.658
57107SOL     OW73217  12.777   9.079   7.016
57107SOL    HW173218  12.828   9.149   7.056
57107SOL    HW273219  12.829   9.053   6.940
57108SOL     OW73220   0.213  10.152  14.609
57108SOL    HW173221   0.201  10.226  14.550
57108SOL    HW273222   0.139  10.158  14.671
57109SOL     OW73223   5.246   3.794  10.437
57109SOL    HW173224   5.174   3.731  10.445
57109SOL    HW273225   5.317   3.745  10.396
57110SOL     OW73226   8.524  11.265   8.386
57110SOL    HW173227   8.529  11.360   8.396
57110SOL    HW273228   8.431  11.247   8.373
57111SOL     OW73229   0.014   1.818   1.481
57111SOL    HW173230  14.829   1.760   1.525
57111SOL    HW273231   0.090   1.820   1.539
57112SOL     OW73232   3.598   3.061   2.379
57112SOL    HW173233   3.540   3.096   2.447
57112SOL    HW273234   3.629   3.139   2.332
57113SOL     OW73235   0.940   7.631  12.718
57113SOL    HW173236   0.947   7.726  12.730
57113SOL    HW273237   0.923   7.620  12.625
57114SOL     OW73238   3.149   5.707  14.422
57114SOL    HW173239   3.118   5.796  14.403
57114SOL    HW273240   3.085   5.650  14.379
57115SOL     OW73241   6.380   5.324   5.717
57115SOL    HW173242   6.371   5.248   5.774
57115SOL    HW273243   6.459   5.368   5.748
57116SOL     OW73244  10.288   0.437   2.807
57116SOL    HW173245  10.334   0.473   2.731
57116SOL    HW273246  10.253   0.354   2.777
57117SOL     OW73247   1.194   4.200   5.750
57117SOL    HW173248   1.243   4.136   5.800
57117SOL    HW273249   1.246   4.215   5.672
57118SOL     OW73250   6.796   2.178   1.862
57118SOL    HW173251   6.866   2.144   1.807
57118SOL    HW273252   6.840   2.216   1.938
57119SOL     OW73253   6.928   4.727  11.084
57119SOL    HW173254   6.999   4.726  11.148
57119SOL    HW273255   6.853   4.762  11.131
57120SOL     OW73256  11.321   0.343   3.956
57120SOL    HW173257  11.261   0.319   4.027
57120SOL    HW273258  11.265   0.347   3.878
57121SOL     OW73259   3.980   4.724  12.335
57121SOL    HW173260   4.006   4.633  12.317
57121SOL    HW273261   4.038   4.751  12.406
57122SOL     OW73262  12.645   9.990   6.686
57122SOL    HW173263  12.705  10.044   6.737
57122SOL    HW273264  12.701   9.939   6.628
57123SOL     OW73265   4.593  12.302   9.816
57123SOL    HW173266   4.517  12.244   9.823
57123SOL    HW273267   4.599  12.322   9.723
57124SOL     OW73268  13.228  12.941  12.864
57124SOL    HW173269  13.230  13.033  12.890
57124SOL    HW273270  13.190  12.942  12.776
57125SOL     OW73271   1.224   3.478   6.359
57125SOL    HW173272   1.183   3.531   6.291
57125SOL    HW273273   1.315   3.470   6.332
57126SOL     OW73274  13.788   8.279   5.253
57126SOL    HW173275  13.881   8.301   5.255
57126SOL    HW273276  13.778   8.222   5.177
57127SOL     OW73277  13.791   5.422  11.323
57127SOL    HW173278  13.799   5.393  11.414
57127SOL    HW273279  13.746   5.351  11.279
57128SOL     OW73280   3.085   6.092  12.945
57128SOL    HW173281   3.006   6.066  12.993
57128SOL    HW273282   3.157   6.056  12.995
57129SOL     OW73283   6.798  12.908   1.139
57129SOL    HW173284   6.732  12.921   1.072
57129SOL    HW273285   6.748  12.897   1.220
57130SOL     OW73286   6.382   0.971   4.238
57130SOL    HW173287   6.422   0.898   4.191
57130SOL    HW273288   6.441   0.987   4.311
57131SOL     OW73289   3.925   6.452  12.138
57131SOL    HW173290   3.985   6.385  12.172
57131SOL    HW273291   3.870   6.406  12.075
57132SOL     OW73292   0.877   0.176  14.183
57132SOL    HW173293   0.790   0.137  14.187
57132SOL    HW273294   0.935   0.102  14.164
57133SOL     OW73295  10.533   9.181   0.882
57133SOL    HW173296  10.474   9.106   0.883
57133SOL    HW273297  10.482   9.251   0.923
57134SOL     OW73298  10.469   1.990   5.138
57134SOL    HW173299  10.423   2.012   5.057
57134SOL    HW273300  10.561   1.989   5.114
57135SOL     OW73301  14.081   1.418   7.525
57135SOL    HW173302  14.070   1.325   7.545
57135SOL    HW273303  14.018   1.463   7.581
57136SOL     OW73304  10.547   0.866   7.269
57136SOL    HW173305  10.599   0.835   7.344
57136SOL    HW273306  10.594   0.833   7.193
57137SOL     OW73307  12.662   3.663  12.223
57137SOL    HW173308  12.571   3.654  12.195
57137SOL    HW273309  12.708   3.590  12.181
57138SOL     OW73310  10.510   3.347   8.503
57138SOL    HW173311  10.588   3.400   8.517
57138SOL    HW273312  10.536   3.259   8.532
57139SOL     OW73313  11.789   8.163  10.893
57139SOL    HW173314  11.701   8.129  10.908
57139SOL    HW273315  11.783   8.255  10.918
57140SOL     OW73316  12.550   3.196  11.054
57140SOL    HW173317  12.591   3.281  11.069
57140SOL    HW273318  12.457   3.211  11.069
57141SOL     OW73319   9.663   2.170   2.139
57141SOL    HW173320   9.697   2.114   2.069
57141SOL    HW273321   9.738   2.187   2.195
57142SOL     OW73322  14.160   0.834   2.852
57142SOL    HW173323  14.101   0.855   2.924
57142SOL    HW273324  14.160   0.738   2.849
57143SOL     OW73325   3.122   0.740   5.526
57143SOL    HW173326   3.153   0.700   5.445
57143SOL    HW273327   3.048   0.795   5.500
57144SOL     OW73328   9.485   1.872  11.993
57144SOL    HW173329   9.414   1.935  11.987
57144SOL    HW273330   9.451   1.792  11.952
57145SOL     OW73331   2.169   9.027  10.275
57145SOL    HW173332   2.261   9.045  10.253
57145SOL    HW273333   2.129   9.005  10.191
57146SOL     OW73334   6.193  12.464   3.952
57146SOL    HW173335   6.241  12.383   3.970
57146SOL    HW273336   6.247  12.510   3.888
57147SOL     OW73337  11.488   7.180  11.530
57147SOL    HW173338  11.424   7.117  11.565
57147SOL    HW273339  11.549   7.127  11.479
57148SOL     OW73340   5.452  11.924  10.539
57148SOL    HW173341   5.427  11.847  10.590
57148SOL    HW273342   5.377  11.941  10.482
57149SOL     OW73343  11.752   5.555   8.868
57149SOL    HW173344  11.778   5.574   8.778
57149SOL    HW273345  11.835   5.552   8.917
57150SOL     OW73346  12.834   7.281   6.176
57150SOL    HW173347  12.815   7.352   6.237
57150SOL    HW273348  12.909   7.313   6.126
57151SOL     OW73349   2.980  12.969   3.775
57151SOL    HW173350   2.905  12.911   3.764
57151SOL    HW273351   3.006  12.957   3.866
57152SOL     OW73352   5.159  10.562  12.896
57152SOL    HW173353   5.247  10.529  12.875
57152SOL    HW273354   5.122  10.495  12.954
57153SOL     OW73355  14.423   6.076  13.725
57153SOL    HW173356  14.371   6.152  13.751
57153SOL    HW273357  14.413   6.014  13.797
57154SOL     OW73358   6.770  13.298   8.052
57154SOL    HW173359   6.717  13.356   8.107
57154SOL    HW273360   6.859  13.312   8.082
57155SOL     OW73361   1.633  10.446   7.336
57155SOL    HW173362   1.651  10.352   7.349
57155SOL    HW273363   1.640  10.484   7.424
57156SOL     OW73364  11.818  12.821   1.221
57156SOL    HW173365  11.859  12.907   1.214
57156SOL    HW273366  11.749  12.832   1.286
57157SOL     OW73367   9.181   2.987   4.746
57157SOL    HW173368   9.186   2.920   4.814
57157SOL    HW273369   9.096   3.030   4.761
57158SOL     OW73370   3.615   1.205   6.563
57158SOL    HW173371   3.598   1.256   6.642
57158SOL    HW273372   3.676   1.137   6.592
57159SOL     OW73373   2.094   8.188   6.467
57159SOL    HW173374   2.159   8.120   6.485
57159SOL    HW273375   2.043   8.153   6.393
57160SOL     OW73376   9.510   3.437  14.284
57160SOL    HW173377   9.451   3.510  14.305
57160SOL    HW273378   9.462   3.385  14.221
57161SOL     OW73379   5.625   5.369  13.272
57161SOL    HW173380   5.667   5.307  13.211
57161SOL    HW273381   5.550   5.321  13.307
57162SOL     OW73382   4.261   2.649  10.541
57162SOL    HW173383   4.172   2.615  10.531
57162SOL    HW273384   4.251   2.744  10.540
57163SOL     OW73385   8.069  12.990   8.955
57163SOL    HW173386   8.016  12.911   8.944
57163SOL    HW273387   8.022  13.057   8.905
57164SOL     OW73388   8.620   3.645  14.200
57164SOL    HW173389   8.534   3.672  14.167
57164SOL    HW273390   8.616   3.549  14.202
57165SOL     OW73391  10.730  12.046   6.594
57165SOL    HW173392  10.802  11.983   6.602
57165SOL    HW273393  10.773  12.131   6.590
57166SOL     OW73394   4.605   2.623   2.543
57166SOL    HW173395   4.684   2.670   2.516
57166SOL    HW273396   4.539   2.691   2.556
57167SOL     OW73397   0.405   3.950   9.973
57167SOL    HW173398   0.336   3.884   9.981
57167SOL    HW273399   0.462   3.917   9.903
57168SOL     OW73400   3.466   7.178   4.609
57168SOL    HW173401   3.529   7.249   4.597
57168SOL    HW273402   3.385   7.222   4.637
57169SOL     OW73403   8.670   0.291   6.780
57169SOL    HW173404   8.615   0.217   6.805
57169SOL    HW273405   8.682   0.281   6.685
57170SOL     OW73406   5.970  10.859   1.494
57170SOL    HW173407   5.960  10.933   1.434
57170SOL    HW273408   6.014  10.792   1.443
57171SOL     OW73409   6.996   1.273  13.001
57171SOL    HW173410   6.945   1.304  12.926
57171SOL    HW273411   7.054   1.207  12.964
57172SOL     OW73412   1.822   5.296   2.994
57172SOL    HW173413   1.755   5.348   2.950
57172SOL    HW273414   1.799   5.205   2.975
57173SOL     OW73415  10.592   2.486   6.928
57173SOL    HW173416  10.549   2.405   6.900
57173SOL    HW273417  10.519   2.546   6.946
57174SOL     OW73418  13.516   2.064  12.145
57174SOL    HW173419  13.426   2.034  12.157
57174SOL    HW273420  13.518   2.099  12.056
57175SOL     OW73421  11.124   8.811   5.550
57175SOL    HW173422  11.172   8.793   5.631
57175SOL    HW273423  11.168   8.757   5.484
57176SOL     OW73424   0.267   9.100   3.103
57176SOL    HW173425   0.322   9.143   3.038
57176SOL    HW273426   0.250   9.013   3.067
57177SOL     OW73427  14.547   3.611   8.390
57177SOL    HW173428  14.506   3.571   8.313
57177SOL    HW273429  14.540   3.705   8.374
57178SOL     OW73430   7.157   5.431  13.796
57178SOL    HW173431   7.217   5.505  13.787
57178SOL    HW273432   7.164   5.406  13.888
57179SOL     OW73433   6.065   4.113   1.266
57179SOL    HW173434   6.114   4.109   1.183
57179SOL    HW273435   6.100   4.040   1.318
57180SOL     OW73436   5.218  10.206  13.211
57180SOL    HW173437   5.291  10.265  13.232
57180SOL    HW273438   5.259  10.120  13.204
57181SOL     OW73439  13.077   9.187   5.060
57181SOL    HW173440  13.120   9.253   5.115
57181SOL    HW273441  13.148   9.143   5.014
57182SOL     OW73442   7.213   9.394   4.908
57182SOL    HW173443   7.179   9.442   4.832
57182SOL    HW273444   7.135   9.364   4.954
57183SOL     OW73445   5.621   4.103   4.865
57183SOL    HW173446   5.651   4.145   4.946
57183SOL    HW273447   5.609   4.011   4.889
57184SOL     OW73448   2.409   7.533   1.948
57184SOL    HW173449   2.455   7.615   1.966
57184SOL    HW273450   2.452   7.468   2.003
57185SOL     OW73451  11.392   3.252  10.834
57185SOL    HW173452  11.452   3.234  10.907
57185SOL    HW273453  11.438   3.316  10.780
57186SOL     OW73454   7.262  10.417  11.633
57186SOL    HW173455   7.316  10.375  11.565
57186SOL    HW273456   7.305  10.501  11.649
57187SOL     OW73457   8.063   9.031   0.263
57187SOL    HW173458   8.003   9.100   0.237
57187SOL    HW273459   8.081   9.048   0.355
57188SOL     OW73460   9.047   6.633  11.962
57188SOL    HW173461   9.086   6.549  11.940
57188SOL    HW273462   8.989   6.653  11.889
57189SOL     OW73463  12.003   1.088   1.330
57189SOL    HW173464  11.986   1.181   1.346
57189SOL    HW273465  12.077   1.068   1.388
57190SOL     OW73466   5.177   9.750   1.970
57190SOL    HW173467   5.183   9.758   2.065
57190SOL    HW273468   5.125   9.825   1.943
57191SOL     OW73469  11.385   0.289   1.288
57191SOL    HW173470  11.430   0.283   1.372
57191SOL    HW273471  11.365   0.199   1.265
57192SOL     OW73472  11.801   6.083  10.295
57192SOL    HW173473  11.757   6.116  10.373
57192SOL    HW273474  11.750   6.118  10.222
57193SOL     OW73475   4.827  12.056   6.787
57193SOL    HW173476   4.753  12.108   6.758
57193SOL    HW273477   4.787  11.978   6.826
57194SOL     OW73478  14.400   8.336  11.509
57194SOL    HW173479  14.432   8.292  11.431
57194SOL    HW273480  14.447   8.420  11.510
57195SOL     OW73481   6.510  13.258   2.854
57195SOL    HW173482   6.539  13.193   2.918
57195SOL    HW273483   6.484  13.334   2.907
57196SOL     OW73484   8.487  13.538  11.231
57196SOL    HW173485   8.520  13.591  11.158
57196SOL    HW273486   8.438  13.467  11.190
57197SOL     OW73487   9.115   7.629   1.977
57197SOL    HW173488   9.067   7.696   2.026
57197SOL    HW273489   9.168   7.584   2.043
57198SOL     OW73490   6.699   3.669   4.819
57198SOL    HW173491   6.682   3.736   4.885
57198SOL    HW273492   6.613   3.644   4.787
57199SOL     OW73493  14.432  13.245   0.332
57199SOL    HW173494  14.506  13.195   0.299
57199SOL    HW273495  14.391  13.188   0.397
57200SOL     OW73496  12.589   7.572   7.980
57200SOL    HW173497  12.663   7.534   8.027
57200SOL    HW273498  12.566   7.650   8.030
57201SOL     OW73499   0.810  12.881   7.052
57201SOL    HW173500   0.760  12.801   7.040
57201SOL    HW273501   0.801  12.902   7.145
57202SOL     OW73502   1.697   6.504  14.223
57202SOL    HW173503   1.727   6.415  14.208
57202SOL    HW273504   1.769   6.547  14.268
57203SOL     OW73505  14.367   4.477   1.756
57203SOL    HW173506  14.329   4.552   1.802
57203SOL    HW273507  14.460   4.499   1.749
57204SOL     OW73508   0.624   7.004   0.260
57204SOL    HW173509   0.636   6.989   0.166
57204SOL    HW273510   0.645   6.920   0.301
57205SOL     OW73511   0.500   1.071   8.803
57205SOL    HW173512   0.413   1.035   8.821
57205SOL    HW273513   0.545   1.001   8.755
57206SOL     OW73514   5.396  14.123   8.865
57206SOL    HW173515   5.365  14.209   8.894
57206SOL    HW273516   5.478  14.110   8.912
57207SOL     OW73517   2.921  12.126   6.494
57207SOL    HW173518   2.893  12.062   6.429
57207SOL    HW273519   2.962  12.073   6.563
57208SOL     OW73520   6.968   7.293  11.500
57208SOL    HW173521   6.880   7.256  11.490
57208SOL    HW273522   7.017   7.225  11.548
57209SOL     OW73523   5.587   8.588  11.304
57209SOL    HW173524   5.650   8.639  11.254
57209SOL    HW273525   5.640   8.523  11.350
57210SOL     OW73526  14.580   9.946  13.128
57210SOL    HW173527  14.668   9.984  13.126
57210SOL    HW273528  14.529  10.006  13.182
57211SOL     OW73529   1.232   9.735  11.793
57211SOL    HW173530   1.221   9.641  11.776
57211SOL    HW273531   1.226   9.743  11.888
57212SOL     OW73532   0.174   6.089   9.766
57212SOL    HW173533   0.196   6.013   9.819
57212SOL    HW273534   0.159   6.159   9.830
57213SOL     OW73535   1.061   1.057  11.069
57213SOL    HW173536   1.065   1.094  10.980
57213SOL    HW273537   1.111   0.976  11.062
57214SOL     OW73538   7.749   7.613   1.796
57214SOL    HW173539   7.794   7.528   1.802
57214SOL    HW273540   7.815   7.673   1.762
57215SOL     OW73541   4.208  13.831  13.440
57215SOL    HW173542   4.124  13.822  13.396
57215SOL    HW273543   4.195  13.904  13.501
57216SOL     OW73544   1.838  10.644   4.775
57216SOL    HW173545   1.876  10.574   4.829
57216SOL    HW273546   1.749  10.615   4.757
57217SOL     OW73547   1.610   5.613  13.984
57217SOL    HW173548   1.680   5.665  13.944
57217SOL    HW273549   1.657   5.555  14.045
57218SOL     OW73550   2.284   1.371  10.168
57218SOL    HW173551   2.304   1.450  10.118
57218SOL    HW273552   2.192   1.381  10.192
57219SOL     OW73553  12.594   2.661  11.882
57219SOL    HW173554  12.520   2.697  11.834
57219SOL    HW273555  12.665   2.658  11.818
57220SOL     OW73556   6.064   5.461   5.244
57220SOL    HW173557   5.977   5.485   5.212
57220SOL    HW273558   6.068   5.500   5.332
57221SOL     OW73559   6.060  12.975   2.477
57221SOL    HW173560   6.155  12.968   2.482
57221SOL    HW273561   6.043  13.069   2.486
57222SOL     OW73562   8.369   9.987  11.748
57222SOL    HW173563   8.341  10.006  11.837
57222SOL    HW273564   8.324   9.906  11.725
57223SOL     OW73565  13.846  13.747  14.402
57223SOL    HW173566  13.798  13.673  14.439
57223SOL    HW273567  13.849  13.730  14.308
57224SOL     OW73568   4.566   1.057   9.770
57224SOL    HW173569   4.579   1.009   9.852
57224SOL    HW273570   4.496   1.009   9.726
57225SOL     OW73571   8.741  10.692  12.284
57225SOL    HW173572   8.778  10.724  12.367
57225SOL    HW273573   8.781  10.606  12.272
57226SOL     OW73574   2.385  12.838  12.455
57226SOL    HW173575   2.412  12.930  12.454
57226SOL    HW273576   2.329  12.830  12.532
57227SOL     OW73577   6.377   1.306   4.465
57227SOL    HW173578   6.339   1.353   4.539
57227SOL    HW273579   6.347   1.216   4.476
57228SOL     OW73580  10.687   5.354   0.613
57228SOL    HW173581  10.663   5.423   0.675
57228SOL    HW273582  10.768   5.317   0.648
57229SOL     OW73583   6.188   2.565   8.106
57229SOL    HW173584   6.111   2.509   8.113
57229SOL    HW273585   6.213   2.582   8.196
57230SOL     OW73586   0.105   8.112  13.063
57230SOL    HW173587   0.124   8.098  12.970
57230SOL    HW273588   0.043   8.184  13.064
57231SOL     OW73589   7.219  12.529   5.455
57231SOL    HW173590   7.196  12.500   5.366
57231SOL    HW273591   7.142  12.578   5.485
57232SOL     OW73592  11.444   4.383   0.110
57232SOL    HW173593  11.379   4.345   0.051
57232SOL    HW273594  11.421   4.349   0.196
57233SOL     OW73595   6.907   3.964   3.517
57233SOL    HW173596   6.821   3.978   3.558
57233SOL    HW273597   6.913   3.870   3.505
57234SOL     OW73598   7.212   1.310  13.410
57234SOL    HW173599   7.238   1.398  13.383
57234SOL    HW273600   7.151   1.281  13.341
57235SOL     OW73601  14.144  10.930  12.452
57235SOL    HW173602  14.122  10.838  12.469
57235SOL    HW273603  14.219  10.926  12.392
57236SOL     OW73604   3.426  11.043   3.912
57236SOL    HW173605   3.517  11.047   3.880
57236SOL    HW273606   3.428  10.975   3.979
57237SOL     OW73607   0.682  10.050   7.902
57237SOL    HW173608   0.657  10.047   7.810
57237SOL    HW273609   0.734  10.130   7.911
57238SOL     OW73610  11.796   2.107   6.787
57238SOL    HW173611  11.821   2.155   6.865
57238SOL    HW273612  11.701   2.105   6.788
57239SOL     OW73613   9.132   2.515  10.379
57239SOL    HW173614   9.119   2.420  10.386
57239SOL    HW273615   9.084   2.540  10.300
57240SOL     OW73616  11.028   4.825   0.496
57240SOL    HW173617  10.949   4.848   0.448
57240SOL    HW273618  11.075   4.908   0.506
57241SOL     OW73619   7.195  10.590   5.313
57241SOL    HW173620   7.238  10.649   5.250
57241SOL    HW273621   7.258  10.583   5.385
57242SOL     OW73622   6.103  10.544   2.103
57242SOL    HW173623   6.017  10.561   2.064
57242SOL    HW273624   6.130  10.629   2.138
57243SOL     OW73625   9.230   0.475   6.023
57243SOL    HW173626   9.193   0.417   5.955
57243SOL    HW273627   9.308   0.512   5.982
57244SOL     OW73628  10.815   4.392   9.307
57244SOL    HW173629  10.843   4.372   9.397
57244SOL    HW273630  10.860   4.328   9.253
57245SOL     OW73631   9.627   1.802   8.985
57245SOL    HW173632   9.545   1.780   8.940
57245SOL    HW273633   9.696   1.778   8.922
57246SOL     OW73634  14.287   9.052   3.788
57246SOL    HW173635  14.218   9.052   3.854
57246SOL    HW273636  14.264   9.124   3.729
57247SOL     OW73637   9.220   9.276  12.147
57247SOL    HW173638   9.190   9.225  12.072
57247SOL    HW273639   9.281   9.340  12.110
57248SOL     OW73640  12.686  12.223   3.508
57248SOL    HW173641  12.673  12.162   3.435
57248SOL    HW273642  12.622  12.196   3.574
57249SOL     OW73643   6.999   8.507   2.178
57249SOL    HW173644   6.974   8.558   2.255
57249SOL    HW273645   7.004   8.416   2.209
57250SOL     OW73646   0.757  14.318   6.153
57250SOL    HW173647   0.794  14.231   6.172
57250SOL    HW273648   0.788  14.373   6.224
57251SOL     OW73649   9.614  12.562  13.730
57251SOL    HW173650   9.549  12.546  13.799
57251SOL    HW273651   9.634  12.475  13.696
57252SOL     OW73652   3.684   0.651   9.757
57252SOL    HW173653   3.746   0.591   9.799
57252SOL    HW273654   3.715   0.738   9.782
57253SOL     OW73655  10.828   5.658  13.049
57253SOL    HW173656  10.909   5.619  13.015
57253SOL    HW273657  10.858   5.720  13.116
57254SOL     OW73658  12.154   1.903  10.509
57254SOL    HW173659  12.138   1.856  10.427
57254SOL    HW273660  12.086   1.970  10.512
57255SOL     OW73661   0.322   2.852   9.357
57255SOL    HW173662   0.362   2.766   9.349
57255SOL    HW273663   0.330   2.891   9.270
57256SOL     OW73664  12.733   8.621   3.816
57256SOL    HW173665  12.739   8.623   3.720
57256SOL    HW273666  12.821   8.644   3.845
57257SOL     OW73667   5.868   6.394   6.712
57257SOL    HW173668   5.813   6.462   6.672
57257SOL    HW273669   5.899   6.432   6.794
57258SOL     OW73670  14.471   2.060  11.768
57258SOL    HW173671  14.478   2.148  11.732
57258SOL    HW273672  14.559   2.042  11.802
57259SOL     OW73673   4.435   1.701   7.216
57259SOL    HW173674   4.524   1.729   7.238
57259SOL    HW273675   4.390   1.782   7.192
57260SOL     OW73676   2.683   0.117   4.412
57260SOL    HW173677   2.763   0.063   4.418
57260SOL    HW273678   2.630   0.073   4.346
57261SOL     OW73679   0.002   8.483   1.870
57261SOL    HW173680   0.084   8.526   1.847
57261SOL    HW273681   0.018   8.390   1.850
57262SOL     OW73682  14.050   3.239  10.958
57262SOL    HW173683  14.120   3.296  10.989
57262SOL    HW273684  13.985   3.298  10.921
57263SOL     OW73685   5.119   4.302   8.973
57263SOL    HW173686   5.143   4.314   8.881
57263SOL    HW273687   5.125   4.208   8.987
57264SOL     OW73688  12.245   4.169  10.096
57264SOL    HW173689  12.297   4.106  10.047
57264SOL    HW273690  12.309   4.226  10.139
57265SOL     OW73691  11.850   9.364   3.480
57265SOL    HW173692  11.891   9.445   3.448
57265SOL    HW273693  11.923   9.310   3.509
57266SOL     OW73694  10.351   6.900  11.762
57266SOL    HW173695  10.299   6.960  11.708
57266SOL    HW273696  10.415   6.863  11.700
57267SOL     OW73697   4.859   2.261   5.180
57267SOL    HW173698   4.898   2.173   5.174
57267SOL    HW273699   4.846   2.275   5.274
57268SOL     OW73700  13.793   4.680  13.372
57268SOL    HW173701  13.805   4.676  13.466
57268SOL    HW273702  13.698   4.676  13.359
57269SOL     OW73703   1.950   2.874   5.754
57269SOL    HW173704   1.856   2.863   5.738
57269SOL    HW273705   1.990   2.797   5.714
57270SOL     OW73706  14.484   8.807   4.032
57270SOL    HW173707  14.541   8.860   3.976
57270SOL    HW273708  14.426   8.871   4.074
57271SOL     OW73709  14.058   2.170   7.828
57271SOL    HW173710  14.016   2.215   7.901
57271SOL    HW273711  13.988   2.161   7.763
57272SOL     OW73712  10.790  11.021  12.086
57272SOL    HW173713  10.767  11.038  11.994
57272SOL    HW273714  10.827  10.932  12.085
57273SOL     OW73715  13.868  12.233  12.778
57273SOL    HW173716  13.928  12.301  12.805
57273SOL    HW273717  13.920  12.153  12.776
57274SOL     OW73718   5.639   3.055   9.353
57274SOL    HW173719   5.548   3.040   9.327
57274SOL    HW273720   5.672   2.968   9.375
57275SOL     OW73721  14.878  13.920  12.002
57275SOL    HW173722  14.821  13.965  12.065
57275SOL    HW273723   0.088  13.951  12.023
57276SOL     OW73724   9.258   8.809   7.856
57276SOL    HW173725   9.318   8.865   7.806
57276SOL    HW273726   9.293   8.811   7.945
57277SOL     OW73727   6.608   5.356  12.751
57277SOL    HW173728   6.522   5.313  12.755
57277SOL    HW273729   6.609   5.413  12.828
57278SOL     OW73730   4.275  11.435   2.313
57278SOL    HW173731   4.184  11.457   2.332
57278SOL    HW273732   4.313  11.516   2.279
57279SOL     OW73733   5.921   6.481   0.002
57279SOL    HW173734   5.983   6.497  14.808
57279SOL    HW273735   5.878   6.399  14.857
57280SOL     OW73736  12.318   6.927   0.592
57280SOL    HW173737  12.283   6.972   0.515
57280SOL    HW273738  12.400   6.889   0.562
57281SOL     OW73739  11.394   2.193   1.266
57281SOL    HW173740  11.313   2.234   1.236
57281SOL    HW273741  11.373   2.100   1.271
57282SOL     OW73742   0.482  10.856   7.177
57282SOL    HW173743   0.544  10.867   7.105
57282SOL    HW273744   0.497  10.767   7.209
57283SOL     OW73745   3.127   3.866   3.194
57283SOL    HW173746   3.158   3.933   3.255
57283SOL    HW273747   3.182   3.876   3.117
57284SOL     OW73748   1.190   1.428   6.056
57284SOL    HW173749   1.179   1.398   5.966
57284SOL    HW273750   1.105   1.413   6.097
57285SOL     OW73751   6.687   2.481   9.507
57285SOL    HW173752   6.648   2.478   9.595
57285SOL    HW273753   6.617   2.515   9.451
57286SOL     OW73754  10.117   7.393   8.973
57286SOL    HW173755  10.143   7.439   9.053
57286SOL    HW273756  10.191   7.336   8.953
57287SOL     OW73757  10.225   6.202  14.192
57287SOL    HW173758  10.159   6.259  14.231
57287SOL    HW273759  10.216   6.119  14.238
57288SOL     OW73760   3.166  12.853  10.196
57288SOL    HW173761   3.086  12.824  10.151
57288SOL    HW273762   3.219  12.892  10.127
57289SOL     OW73763  14.315   9.116  12.566
57289SOL    HW173764  14.255   9.190  12.577
57289SOL    HW273765  14.396   9.145  12.608
57290SOL     OW73766  10.972   1.550  14.205
57290SOL    HW173767  10.999   1.592  14.287
57290SOL    HW273768  10.880   1.528  14.218
57291SOL     OW73769   1.758   2.681   2.885
57291SOL    HW173770   1.724   2.705   2.971
57291SOL    HW273771   1.702   2.609   2.856
57292SOL     OW73772   6.330   2.201  14.599
57292SOL    HW173773   6.310   2.176  14.689
57292SOL    HW273774   6.368   2.289  14.607
57293SOL     OW73775   9.778  14.421   0.498
57293SOL    HW173776   9.733  14.505   0.487
57293SOL    HW273777   9.743  14.385   0.579
57294SOL     OW73778   9.342   0.653   4.290
57294SOL    HW173779   9.386   0.653   4.205
57294SOL    HW273780   9.313   0.744   4.301
57295SOL     OW73781  10.886   3.844   5.133
57295SOL    HW173782  10.800   3.884   5.125
57295SOL    HW273783  10.934   3.901   5.193
57296SOL     OW73784  13.863   5.755   6.270
57296SOL    HW173785  13.842   5.807   6.347
57296SOL    HW273786  13.853   5.664   6.299
57297SOL     OW73787   7.169   0.078  11.392
57297SOL    HW173788   7.153   0.151  11.333
57297SOL    HW273789   7.091   0.023  11.383
57298SOL     OW73790   3.336   7.619  14.604
57298SOL    HW173791   3.364   7.651  14.518
57298SOL    HW273792   3.360   7.526  14.604
57299SOL     OW73793   6.292   7.136   3.058
57299SOL    HW173794   6.327   7.141   2.969
57299SOL    HW273795   6.345   7.197   3.108
57300SOL     OW73796  13.346   4.545   2.777
57300SOL    HW173797  13.408   4.614   2.801
57300SOL    HW273798  13.357   4.534   2.683
57301SOL     OW73799  11.380  14.609  13.836
57301SOL    HW173800  11.475  14.616  13.823
57301SOL    HW273801  11.370  14.551  13.912
57302SOL     OW73802   6.680   2.332   5.746
57302SOL    HW173803   6.671   2.334   5.842
57302SOL    HW273804   6.754   2.274   5.729
57303SOL     OW73805   6.591   0.761   9.570
57303SOL    HW173806   6.601   0.784   9.663
57303SOL    HW273807   6.497   0.742   9.560
57304SOL     OW73808  14.201   3.713   6.243
57304SOL    HW173809  14.114   3.678   6.264
57304SOL    HW273810  14.244   3.642   6.195
57305SOL     OW73811   8.373   4.534   7.421
57305SOL    HW173812   8.405   4.615   7.460
57305SOL    HW273813   8.302   4.506   7.479
57306SOL     OW73814   1.884   2.575   0.980
57306SOL    HW173815   1.835   2.496   0.959
57306SOL    HW273816   1.938   2.592   0.903
57307SOL     OW73817  10.455  14.363   0.277
57307SOL    HW173818  10.436  14.448   0.237
57307SOL    HW273819  10.510  14.317   0.214
57308SOL     OW73820   5.936   1.965   9.310
57308SOL    HW173821   5.974   2.021   9.242
57308SOL    HW273822   6.005   1.957   9.376
57309SOL     OW73823   7.856  14.849   2.499
57309SOL    HW173824   7.858  14.778   2.435
57309SOL    HW273825   7.802  14.815   2.571
57310SOL     OW73826   0.774   4.144   7.344
57310SOL    HW173827   0.687   4.163   7.311
57310SOL    HW273828   0.833   4.186   7.282
57311SOL     OW73829  12.677  14.751   2.716
57311SOL    HW173830  12.607  14.816   2.706
57311SOL    HW273831  12.637  14.669   2.687
57312SOL     OW73832   5.882   5.654   4.464
57312SOL    HW173833   5.877   5.742   4.500
57312SOL    HW273834   5.860   5.597   4.538
57313SOL     OW73835   4.739   2.712  10.214
57313SOL    HW173836   4.662   2.749  10.257
57313SOL    HW273837   4.728   2.617  10.222
57314SOL     OW73838   9.246  12.930   5.743
57314SOL    HW173839   9.289  12.847   5.722
57314SOL    HW273840   9.189  12.908   5.818
57315SOL     OW73841  10.669   3.452  10.196
57315SOL    HW173842  10.618   3.499  10.129
57315SOL    HW273843  10.604   3.405  10.247
57316SOL     OW73844   1.633   2.041   5.736
57316SOL    HW173845   1.631   2.130   5.702
57316SOL    HW273846   1.577   1.990   5.677
57317SOL     OW73847   4.120  13.551  12.921
57317SOL    HW173848   4.179  13.595  12.981
57317SOL    HW273849   4.087  13.475  12.969
57318SOL     OW73850   6.699   0.821   2.685
57318SOL    HW173851   6.765   0.773   2.634
57318SOL    HW273852   6.743   0.903   2.709
57319SOL     OW73853   2.622   2.609   8.493
57319SOL    HW173854   2.640   2.611   8.399
57319SOL    HW273855   2.655   2.523   8.521
57320SOL     OW73856   2.967   1.919   9.199
57320SOL    HW173857   2.991   2.010   9.180
57320SOL    HW273858   2.872   1.917   9.190
57321SOL     OW73859  13.716   2.273   9.577
57321SOL    HW173860  13.682   2.252   9.664
57321SOL    HW273861  13.638   2.286   9.523
57322SOL     OW73862   8.187   4.533   9.037
57322SOL    HW173863   8.218   4.623   9.033
57322SOL    HW273864   8.129   4.530   9.112
57323SOL     OW73865  11.664  11.169  13.866
57323SOL    HW173866  11.577  11.139  13.839
57323SOL    HW273867  11.680  11.247  13.814
57324SOL     OW73868   4.341  10.494  11.144
57324SOL    HW173869   4.331  10.493  11.239
57324SOL    HW273870   4.296  10.574  11.115
57325SOL     OW73871   5.155   4.032  11.310
57325SOL    HW173872   5.238   3.992  11.337
57325SOL    HW273873   5.111   4.054  11.392
57326SOL     OW73874  14.142   3.583  11.132
57326SOL    HW173875  14.140   3.663  11.079
57326SOL    HW273876  14.054   3.548  11.126
57327SOL     OW73877   2.655   2.623   8.174
57327SOL    HW173878   2.623   2.605   8.086
57327SOL    HW273879   2.746   2.650   8.162
57328SOL     OW73880  11.609  12.542   5.979
57328SOL    HW173881  11.544  12.490   6.026
57328SOL    HW273882  11.659  12.478   5.929
57329SOL     OW73883   6.549  13.631   8.465
57329SOL    HW173884   6.634  13.672   8.481
57329SOL    HW273885   6.570  13.546   8.426
57330SOL     OW73886   8.608   1.976   4.127
57330SOL    HW173887   8.582   1.889   4.156
57330SOL    HW273888   8.691   1.963   4.081
57331SOL     OW73889  12.625   6.038   0.164
57331SOL    HW173890  12.694   5.986   0.123
57331SOL    HW273891  12.619   6.004   0.253
57332SOL     OW73892   7.220   9.196   2.743
57332SOL    HW173893   7.242   9.104   2.759
57332SOL    HW273894   7.238   9.240   2.826
57333SOL     OW73895  10.031  11.275   6.798
57333SOL    HW173896   9.964  11.206   6.805
57333SOL    HW273897  10.024  11.306   6.708
57334SOL     OW73898   9.415   9.016   0.027
57334SOL    HW173899   9.353   9.011   0.100
57334SOL    HW273900   9.412   8.929  14.865
57335SOL     OW73901   7.817   6.320   7.391
57335SOL    HW173902   7.759   6.396   7.384
57335SOL    HW273903   7.760   6.249   7.422
57336SOL     OW73904   9.697  10.499   6.241
57336SOL    HW173905   9.717  10.532   6.328
57336SOL    HW273906   9.601  10.494   6.239
57337SOL     OW73907   3.480  11.564   2.043
57337SOL    HW173908   3.458  11.514   1.965
57337SOL    HW273909   3.403  11.558   2.099
57338SOL     OW73910   0.979  14.681  11.568
57338SOL    HW173911   0.988  14.594  11.606
57338SOL    HW273912   1.034  14.737  11.622
57339SOL     OW73913   3.805   9.259   2.551
57339SOL    HW173914   3.853   9.176   2.544
57339SOL    HW273915   3.823   9.305   2.469
57340SOL     OW73916  11.201   2.139   0.442
57340SOL    HW173917  11.125   2.187   0.476
57340SOL    HW273918  11.193   2.146   0.347
57341SOL     OW73919   7.462   9.898   2.704
57341SOL    HW173920   7.541   9.862   2.745
57341SOL    HW273921   7.419   9.947   2.774
57342SOL     OW73922   6.312   2.139   2.682
57342SOL    HW173923   6.244   2.154   2.617
57342SOL    HW273924   6.294   2.051   2.716
57343SOL     OW73925   0.481   7.105   3.120
57343SOL    HW173926   0.451   7.155   3.044
57343SOL    HW273927   0.560   7.061   3.090
57344SOL     OW73928   7.154   5.984   1.751
57344SOL    HW173929   7.200   6.062   1.782
57344SOL    HW273930   7.098   5.959   1.824
57345SOL     OW73931   9.822  14.304  10.224
57345SOL    HW173932   9.834  14.386  10.273
57345SOL    HW273933   9.805  14.333  10.134
57346SOL     OW73934   9.247   9.957  12.032
57346SOL    HW173935   9.271   9.927  12.120
57346SOL    HW273936   9.153   9.942  12.026
57347SOL     OW73937   9.594   0.662  11.436
57347SOL    HW173938   9.547   0.730  11.485
57347SOL    HW273939   9.534   0.640  11.364
57348SOL     OW73940   9.032   5.715   3.478
57348SOL    HW173941   9.041   5.676   3.565
57348SOL    HW273942   9.035   5.810   3.494
57349SOL     OW73943  14.495   2.021   3.213
57349SOL    HW173944  14.492   2.112   3.244
57349SOL    HW273945  14.516   1.970   3.292
57350SOL     OW73946   8.261   7.271  14.341
57350SOL    HW173947   8.254   7.336  14.411
57350SOL    HW273948   8.353   7.271  14.317
57351SOL     OW73949   3.872   4.702   1.361
57351SOL    HW173950   3.904   4.612   1.365
57351SOL    HW273951   3.823   4.705   1.279
57352SOL     OW73952   0.640   4.332  11.993
57352SOL    HW173953   0.672   4.414  12.032
57352SOL    HW273954   0.549   4.325  12.023
57353SOL     OW73955   3.482   7.634   3.636
57353SOL    HW173956   3.473   7.557   3.580
57353SOL    HW273957   3.565   7.673   3.609
57354SOL     OW73958  13.533  11.209   4.807
57354SOL    HW173959  13.489  11.137   4.763
57354SOL    HW273960  13.626  11.194   4.793
57355SOL     OW73961   2.737  11.474   3.738
57355SOL    HW173962   2.733  11.442   3.648
57355SOL    HW273963   2.803  11.544   3.736
57356SOL     OW73964  13.197   2.303   8.527
57356SOL    HW173965  13.287   2.319   8.553
57356SOL    HW273966  13.160   2.252   8.599
57357SOL     OW73967   5.756  14.395   3.759
57357SOL    HW173968   5.773  14.331   3.690
57357SOL    HW273969   5.747  14.342   3.838
57358SOL     OW73970   8.207   5.433  11.237
57358SOL    HW173971   8.288   5.384  11.250
57358SOL    HW273972   8.223   5.517  11.280
57359SOL     OW73973   9.055   2.152   3.153
57359SOL    HW173974   9.069   2.188   3.240
57359SOL    HW273975   9.036   2.059   3.168
57360SOL     OW73976  14.368   1.796   3.878
57360SOL    HW173977  14.413   1.848   3.944
57360SOL    HW273978  14.437   1.767   3.818
57361SOL     OW73979   2.664  14.711   6.835
57361SOL    HW173980   2.591  14.705   6.896
57361SOL    HW273981   2.738  14.674   6.883
57362SOL     OW73982   0.593   7.467   9.539
57362SOL    HW173983   0.670   7.481   9.594
57362SOL    HW273984   0.525   7.521   9.579
57363SOL     OW73985   5.780  13.929  14.468
57363SOL    HW173986   5.741  13.971  14.391
57363SOL    HW273987   5.740  13.974  14.542
57364SOL     OW73988   9.496   5.098  11.067
57364SOL    HW173989   9.401   5.091  11.069
57364SOL    HW273990   9.524   5.022  11.016
57365SOL     OW73991   1.185   1.544  13.547
57365SOL    HW173992   1.122   1.570  13.615
57365SOL    HW273993   1.269   1.540  13.593
57366SOL     OW73994   9.513   8.669  14.024
57366SOL    HW173995   9.453   8.715  14.083
57366SOL    HW273996   9.520   8.581  14.061
57367SOL     OW73997  10.729  12.857  11.039
57367SOL    HW173998  10.810  12.830  11.082
57367SOL    HW273999  10.671  12.782  11.047
57368SOL     OW74000  14.469   1.780  14.478
57368SOL    HW174001  14.562   1.768  14.498
57368SOL    HW274002  14.465   1.864  14.432
57369SOL     OW74003  13.350   7.626   3.210
57369SOL    HW174004  13.313   7.635   3.122
57369SOL    HW274005  13.303   7.551   3.248
57370SOL     OW74006   7.989  10.790   3.242
57370SOL    HW174007   8.019  10.878   3.265
57370SOL    HW274008   7.955  10.754   3.324
57371SOL     OW74009  10.048   9.961   3.336
57371SOL    HW174010   9.974   9.982   3.394
57371SOL    HW274011  10.124   9.956   3.394
57372SOL     OW74012   6.891   8.976  13.524
57372SOL    HW174013   6.985   8.964  13.533
57372SOL    HW274014   6.871   8.948  13.435
57373SOL     OW74015  13.530   7.287  13.429
57373SOL    HW174016  13.615   7.313  13.465
57373SOL    HW274017  13.504   7.212  13.483
57374SOL     OW74018   1.532  14.620   5.072
57374SOL    HW174019   1.601  14.685   5.059
57374SOL    HW274020   1.529  14.571   4.990
57375SOL     OW74021   2.336   3.272   3.375
57375SOL    HW174022   2.407   3.275   3.312
57375SOL    HW274023   2.270   3.332   3.341
57376SOL     OW74024   0.321  13.517  12.756
57376SOL    HW174025   0.247  13.532  12.698
57376SOL    HW274026   0.330  13.421  12.759
57377SOL     OW74027   2.049   6.349  12.992
57377SOL    HW174028   2.072   6.393  13.073
57377SOL    HW274029   2.121   6.288  12.976
57378SOL     OW74030  10.176  11.576  10.382
57378SOL    HW174031  10.081  11.574  10.399
57378SOL    HW274032  10.183  11.565  10.287
57379SOL     OW74033   2.726   1.743   0.719
57379SOL    HW174034   2.681   1.694   0.651
57379SOL    HW274035   2.810   1.767   0.680
57380SOL     OW74036  13.423   9.992  10.709
57380SOL    HW174037  13.369   9.963  10.782
57380SOL    HW274038  13.485   9.920  10.694
57381SOL     OW74039   3.746   7.472  14.293
57381SOL    HW174040   3.784   7.496  14.208
57381SOL    HW274041   3.653   7.459  14.275
57382SOL     OW74042   5.737  10.743   4.258
57382SOL    HW174043   5.805  10.804   4.287
57382SOL    HW274044   5.706  10.779   4.175
57383SOL     OW74045   3.715  10.422   2.373
57383SOL    HW174046   3.622  10.443   2.362
57383SOL    HW274047   3.756  10.504   2.400
57384SOL     OW74048   5.087   3.216  10.791
57384SOL    HW174049   5.163   3.207  10.850
57384SOL    HW274050   5.097   3.302  10.751
57385SOL     OW74051   4.933  13.570   9.323
57385SOL    HW174052   4.867  13.584   9.392
57385SOL    HW274053   4.896  13.614   9.247
57386SOL     OW74054  12.600  11.946   8.246
57386SOL    HW174055  12.657  11.952   8.169
57386SOL    HW274056  12.536  11.879   8.222
57387SOL     OW74057  14.445   4.272  10.970
57387SOL    HW174058  14.482   4.214  11.038
57387SOL    HW274059  14.441   4.358  11.012
57388SOL     OW74060   8.319   7.228   5.256
57388SOL    HW174061   8.329   7.243   5.350
57388SOL    HW274062   8.313   7.133   5.248
57389SOL     OW74063  12.208   8.123   2.915
57389SOL    HW174064  12.275   8.174   2.869
57389SOL    HW274065  12.188   8.175   2.993
57390SOL     OW74066  12.943   3.290   5.979
57390SOL    HW174067  12.997   3.228   5.930
57390SOL    HW274068  13.005   3.356   6.010
57391SOL     OW74069   8.417  11.007  14.695
57391SOL    HW174070   8.504  11.017  14.655
57391SOL    HW274071   8.361  11.065  14.644
57392SOL     OW74072  14.409   4.533   3.672
57392SOL    HW174073  14.464   4.457   3.653
57392SOL    HW274074  14.363   4.511   3.753
57393SOL     OW74075   3.550   6.460   9.211
57393SOL    HW174076   3.531   6.385   9.268
57393SOL    HW274077   3.595   6.421   9.135
57394SOL     OW74078   6.833  12.975   2.492
57394SOL    HW174079   6.921  12.941   2.472
57394SOL    HW274080   6.840  13.069   2.473
57395SOL     OW74081   5.058   0.784  12.822
57395SOL    HW174082   5.094   0.843  12.756
57395SOL    HW274083   4.968   0.815  12.836
57396SOL     OW74084   8.214  13.889   3.198
57396SOL    HW174085   8.132  13.864   3.155
57396SOL    HW274086   8.227  13.822   3.265
57397SOL     OW74087   4.319  10.011   8.417
57397SOL    HW174088   4.380   9.978   8.351
57397SOL    HW274089   4.351   9.975   8.500
57398SOL     OW74090   6.331   5.193   8.520
57398SOL    HW174091   6.405   5.133   8.527
57398SOL    HW274092   6.341   5.234   8.434
57399SOL     OW74093  12.922   8.463   4.741
57399SOL    HW174094  12.956   8.376   4.762
57399SOL    HW274095  12.851   8.477   4.803
57400SOL     OW74096   6.909  11.017   0.104
57400SOL    HW174097   6.998  10.982   0.100
57400SOL    HW274098   6.910  11.092   0.044
57401SOL     OW74099  12.962  11.493  10.292
57401SOL    HW174100  12.947  11.531  10.379
57401SOL    HW274101  13.057  11.486  10.285
57402SOL     OW74102   6.466   7.355   4.512
57402SOL    HW174103   6.539   7.417   4.517
57402SOL    HW274104   6.468   7.308   4.595
57403SOL     OW74105   6.384  11.592   0.628
57403SOL    HW174106   6.315  11.533   0.598
57403SOL    HW274107   6.413  11.555   0.711
57404SOL     OW74108  11.708   6.504   0.786
57404SOL    HW174109  11.646   6.448   0.740
57404SOL    HW274110  11.705   6.475   0.877
57405SOL     OW74111  11.407   6.200  11.940
57405SOL    HW174112  11.394   6.176  11.848
57405SOL    HW274113  11.465   6.275  11.938
57406SOL     OW74114   7.369   8.151   9.177
57406SOL    HW174115   7.428   8.216   9.215
57406SOL    HW274116   7.283   8.194   9.178
57407SOL     OW74117   7.981   8.523   6.682
57407SOL    HW174118   7.915   8.572   6.732
57407SOL    HW274119   8.054   8.513   6.743
57408SOL     OW74120  11.290  13.633   9.366
57408SOL    HW174121  11.321  13.679   9.444
57408SOL    HW274122  11.194  13.635   9.373
57409SOL     OW74123   3.342   9.509   2.360
57409SOL    HW174124   3.418   9.458   2.388
57409SOL    HW274125   3.358   9.597   2.395
57410SOL     OW74126   3.286  13.768   7.360
57410SOL    HW174127   3.267  13.676   7.344
57410SOL    HW274128   3.199  13.809   7.364
57411SOL     OW74129  10.859   9.157  11.130
57411SOL    HW174130  10.910   9.109  11.196
57411SOL    HW274131  10.924   9.197  11.073
57412SOL     OW74132   3.464  14.599   9.984
57412SOL    HW174133   3.425  14.656   9.918
57412SOL    HW274134   3.523  14.542   9.934
57413SOL     OW74135   8.403   3.177  14.574
57413SOL    HW174136   8.442   3.137  14.496
57413SOL    HW274137   8.341   3.241  14.540
57414SOL     OW74138   6.741   1.856  14.601
57414SOL    HW174139   6.729   1.934  14.653
57414SOL    HW274140   6.733   1.885  14.510
57415SOL     OW74141   7.839   5.490   4.490
57415SOL    HW174142   7.893   5.525   4.561
57415SOL    HW274143   7.892   5.419   4.452
57416SOL     OW74144   7.878  11.303   4.902
57416SOL    HW174145   7.869  11.372   4.968
57416SOL    HW274146   7.973  11.290   4.895
57417SOL     OW74147   8.524  12.656   9.961
57417SOL    HW174148   8.528  12.702   9.877
57417SOL    HW274149   8.432  12.630   9.969
57418SOL     OW74150  10.855   1.885   9.159
57418SOL    HW174151  10.774   1.849   9.122
57418SOL    HW274152  10.924   1.849   9.104
57419SOL     OW74153  13.207  13.763  13.083
57419SOL    HW174154  13.118  13.795  13.073
57419SOL    HW274155  13.227  13.775  13.176
57420SOL     OW74156  13.522   2.204  14.075
57420SOL    HW174157  13.428   2.194  14.088
57420SOL    HW274158  13.530   2.253  13.993
57421SOL     OW74159   4.562  13.075   0.890
57421SOL    HW174160   4.587  13.080   0.798
57421SOL    HW274161   4.471  13.045   0.889
57422SOL     OW74162   1.624   0.898   8.707
57422SOL    HW174163   1.531   0.881   8.694
57422SOL    HW274164   1.628   0.992   8.727
57423SOL     OW74165   3.706  13.373   2.458
57423SOL    HW174166   3.624  13.385   2.410
57423SOL    HW274167   3.702  13.282   2.489
57424SOL     OW74168  11.255   1.469   8.827
57424SOL    HW174169  11.332   1.439   8.778
57424SOL    HW274170  11.188   1.483   8.760
57425SOL     OW74171   4.729  12.780  13.428
57425SOL    HW174172   4.752  12.709  13.488
57425SOL    HW274173   4.651  12.820  13.467
57426SOL     OW74174   3.866   9.394   9.579
57426SOL    HW174175   3.831   9.480   9.556
57426SOL    HW274176   3.916   9.409   9.659
57427SOL     OW74177  10.286   6.472  10.240
57427SOL    HW174178  10.357   6.408  10.238
57427SOL    HW274179  10.262   6.484  10.148
57428SOL     OW74180  14.614   5.496  13.671
57428SOL    HW174181  14.668   5.428  13.631
57428SOL    HW274182  14.664   5.526  13.747
57429SOL     OW74183   8.422   6.637  12.582
57429SOL    HW174184   8.501   6.619  12.632
57429SOL    HW274185   8.444   6.712  12.527
57430SOL     OW74186   7.573   4.624   5.950
57430SOL    HW174187   7.536   4.538   5.928
57430SOL    HW274188   7.501   4.670   5.993
57431SOL     OW74189   7.102  12.119   2.495
57431SOL    HW174190   7.046  12.076   2.431
57431SOL    HW274191   7.175  12.154   2.444
57432SOL     OW74192   9.732   4.453   1.840
57432SOL    HW174193   9.738   4.378   1.781
57432SOL    HW274194   9.639   4.472   1.846
57433SOL     OW74195   7.017   9.181   7.769
57433SOL    HW174196   7.074   9.152   7.697
57433SOL    HW274197   6.957   9.108   7.782
57434SOL     OW74198   0.323   8.679  13.029
57434SOL    HW174199   0.292   8.705  12.943
57434SOL    HW274200   0.351   8.761  13.070
57435SOL     OW74201   2.734   9.415   5.360
57435SOL    HW174202   2.775   9.352   5.301
57435SOL    HW274203   2.659   9.449   5.310
57436SOL     OW74204  12.736  11.209  14.816
57436SOL    HW174205  12.670  11.142  14.798
57436SOL    HW274206  12.693  11.291  14.792
57437SOL     OW74207   6.681   4.855  14.497
57437SOL    HW174208   6.636   4.901  14.568
57437SOL    HW274209   6.648   4.897  14.417
57438SOL     OW74210  13.853   2.607   3.368
57438SOL    HW174211  13.898   2.538   3.417
57438SOL    HW274212  13.898   2.609   3.283
57439SOL     OW74213   3.135  11.036   2.554
57439SOL    HW174214   3.094  10.969   2.498
57439SOL    HW274215   3.094  11.118   2.527
57440SOL     OW74216   6.183  14.391   6.813
57440SOL    HW174217   6.207  14.481   6.836
57440SOL    HW274218   6.109  14.370   6.870
57441SOL     OW74219   2.781   9.962   2.796
57441SOL    HW174220   2.798   9.894   2.861
57441SOL    HW274221   2.714  10.017   2.836
57442SOL     OW74222   0.784   5.302   3.384
57442SOL    HW174223   0.821   5.383   3.419
57442SOL    HW274224   0.714   5.331   3.325
57443SOL     OW74225  10.059  10.569  10.999
57443SOL    HW174226  10.096  10.657  10.994
57443SOL    HW274227  10.037  10.558  11.092
57444SOL     OW74228   5.594   4.094   8.751
57444SOL    HW174229   5.685   4.066   8.758
57444SOL    HW274230   5.583   4.159   8.820
57445SOL     OW74231   1.248   1.564   2.402
57445SOL    HW174232   1.275   1.575   2.493
57445SOL    HW274233   1.260   1.471   2.384
57446SOL     OW74234   2.343  13.865   0.130
57446SOL    HW174235   2.387  13.788   0.168
57446SOL    HW274236   2.315  13.916   0.206
57447SOL     OW74237   0.043  14.730   9.710
57447SOL    HW174238   0.015  14.640   9.721
57447SOL    HW274239   0.127  14.736   9.756
57448SOL     OW74240   0.740  13.816   7.035
57448SOL    HW174241   0.686  13.756   7.087
57448SOL    HW274242   0.713  13.904   7.064
57449SOL     OW74243   3.062   4.731   8.448
57449SOL    HW174244   3.106   4.744   8.532
57449SOL    HW274245   3.005   4.807   8.438
57450SOL     OW74246  13.449  11.777   3.595
57450SOL    HW174247  13.373  11.827   3.626
57450SOL    HW274248  13.411  11.705   3.545
57451SOL     OW74249   1.621   1.294   3.698
57451SOL    HW174250   1.592   1.223   3.640
57451SOL    HW274251   1.543   1.346   3.714
57452SOL     OW74252   1.928   4.026   4.187
57452SOL    HW174253   1.941   3.931   4.185
57452SOL    HW274254   1.878   4.045   4.107
57453SOL     OW74255   5.336  14.126   5.229
57453SOL    HW174256   5.349  14.032   5.241
57453SOL    HW274257   5.347  14.141   5.135
57454SOL     OW74258   3.876  13.673   5.976
57454SOL    HW174259   3.905  13.584   5.995
57454SOL    HW274260   3.882  13.681   5.881
57455SOL     OW74261   5.333   6.077  10.824
57455SOL    HW174262   5.338   5.981  10.822
57455SOL    HW274263   5.306   6.098  10.913
57456SOL     OW74264   1.928  14.837   7.145
57456SOL    HW174265   1.888   0.043   7.171
57456SOL    HW274266   1.887  14.773   7.202
57457SOL     OW74267   8.045  14.088  13.863
57457SOL    HW174268   8.084  14.140  13.793
57457SOL    HW274269   8.012  14.153  13.926
57458SOL     OW74270   8.568  12.526  11.409
57458SOL    HW174271   8.576  12.515  11.504
57458SOL    HW274272   8.498  12.590  11.398
57459SOL     OW74273  12.816   3.598  12.453
57459SOL    HW174274  12.768   3.627  12.531
57459SOL    HW274275  12.757   3.619  12.380
57460SOL     OW74276   2.925  10.951   5.501
57460SOL    HW174277   2.837  10.928   5.531
57460SOL    HW274278   2.910  11.011   5.427
57461SOL     OW74279  11.449  12.317  12.678
57461SOL    HW174280  11.472  12.272  12.759
57461SOL    HW274281  11.518  12.381  12.665
57462SOL     OW74282   2.836   6.848   2.858
57462SOL    HW174283   2.823   6.940   2.838
57462SOL    HW274284   2.749   6.816   2.885
57463SOL     OW74285   6.711  12.793   8.580
57463SOL    HW174286   6.680  12.702   8.585
57463SOL    HW274287   6.664  12.838   8.651
57464SOL     OW74288   9.306   6.876   7.055
57464SOL    HW174289   9.347   6.833   6.980
57464SOL    HW274290   9.219   6.902   7.025
57465SOL     OW74291  10.358   5.962   2.665
57465SOL    HW174292  10.407   6.019   2.605
57465SOL    HW274293  10.419   5.892   2.686
57466SOL     OW74294   7.390   8.126   7.553
57466SOL    HW174295   7.475   8.082   7.551
57466SOL    HW274296   7.332   8.063   7.595
57467SOL     OW74297   5.596   0.598   9.507
57467SOL    HW174298   5.691   0.592   9.511
57467SOL    HW274299   5.577   0.620   9.415
57468SOL     OW74300  10.420   4.033   3.347
57468SOL    HW174301  10.343   3.978   3.331
57468SOL    HW274302  10.492   3.984   3.307
57469SOL     OW74303  13.631  12.876   5.713
57469SOL    HW174304  13.597  12.800   5.761
57469SOL    HW274305  13.703  12.840   5.661
57470SOL     OW74306   4.297   9.275  10.663
57470SOL    HW174307   4.350   9.254  10.740
57470SOL    HW274308   4.226   9.329  10.697
57471SOL     OW74309   1.607   0.776   0.412
57471SOL    HW174310   1.574   0.854   0.368
57471SOL    HW274311   1.692   0.758   0.370
57472SOL     OW74312   2.818  10.944   6.943
57472SOL    HW174313   2.747  10.914   7.000
57472SOL    HW274314   2.894  10.947   7.000
57473SOL     OW74315   7.329   0.084  10.463
57473SOL    HW174316   7.342   0.179  10.458
57473SOL    HW274317   7.374   0.049  10.386
57474SOL     OW74318  10.058   9.074   3.557
57474SOL    HW174319  10.113   8.995   3.553
57474SOL    HW274320  10.077   9.119   3.474
57475SOL     OW74321   7.972  12.430   1.113
57475SOL    HW174322   7.893  12.376   1.125
57475SOL    HW274323   8.035  12.392   1.174
57476SOL     OW74324  13.530  12.850  13.915
57476SOL    HW174325  13.500  12.939  13.897
57476SOL    HW274326  13.474  12.819  13.986
57477SOL     OW74327   0.362  12.906   5.641
57477SOL    HW174328   0.388  12.998   5.642
57477SOL    HW274329   0.355  12.882   5.733
57478SOL     OW74330   8.746  10.698  14.707
57478SOL    HW174331   8.785  10.675  14.791
57478SOL    HW274332   8.672  10.637  14.697
57479SOL     OW74333  10.917   1.718   4.907
57479SOL    HW174334  10.972   1.672   4.970
57479SOL    HW274335  10.889   1.649   4.846
57480SOL     OW74336   4.385  14.612   3.725
57480SOL    HW174337   4.299  14.595   3.687
57480SOL    HW274338   4.436  14.533   3.704
57481SOL     OW74339   8.330   9.485  14.301
57481SOL    HW174340   8.370   9.401  14.324
57481SOL    HW274341   8.382   9.517  14.227
57482SOL     OW74342   3.679   5.025  12.543
57482SOL    HW174343   3.677   4.938  12.505
57482SOL    HW274344   3.764   5.061  12.517
57483SOL     OW74345   5.710   2.379   1.047
57483SOL    HW174346   5.801   2.367   1.071
57483SOL    HW274347   5.709   2.456   0.990
57484SOL     OW74348   4.697  12.005  11.738
57484SOL    HW174349   4.701  11.914  11.709
57484SOL    HW274350   4.780  12.018  11.785
57485SOL     OW74351  12.125   7.276   7.743
57485SOL    HW174352  12.180   7.343   7.784
57485SOL    HW274353  12.084   7.320   7.669
57486SOL     OW74354  11.647   4.168   9.107
57486SOL    HW174355  11.727   4.218   9.126
57486SOL    HW274356  11.666   4.079   9.138
57487SOL     OW74357  14.149   5.575   3.371
57487SOL    HW174358  14.212   5.530   3.316
57487SOL    HW274359  14.111   5.642   3.314
57488SOL     OW74360   7.155   3.427  10.185
57488SOL    HW174361   7.134   3.384  10.103
57488SOL    HW274362   7.069   3.451  10.222
57489SOL     OW74363   1.203  11.140  10.324
57489SOL    HW174364   1.250  11.129  10.407
57489SOL    HW274365   1.252  11.086  10.261
57490SOL     OW74366   4.461  13.805   7.696
57490SOL    HW174367   4.455  13.815   7.791
57490SOL    HW274368   4.419  13.721   7.677
57491SOL     OW74369   2.135   4.764   5.979
57491SOL    HW174370   2.105   4.705   6.048
57491SOL    HW274371   2.230   4.761   5.984
57492SOL     OW74372   7.271  12.209  12.355
57492SOL    HW174373   7.222  12.254  12.287
57492SOL    HW274374   7.267  12.117  12.330
57493SOL     OW74375   5.363   9.364   6.146
57493SOL    HW174376   5.400   9.430   6.204
57493SOL    HW274377   5.431   9.297   6.140
57494SOL     OW74378  12.828   7.544   8.150
57494SOL    HW174379  12.875   7.467   8.119
57494SOL    HW274380  12.877   7.574   8.226
57495SOL     OW74381   0.306  10.905  10.448
57495SOL    HW174382   0.322  10.810  10.450
57495SOL    HW274383   0.376  10.940  10.394
57496SOL     OW74384   4.001   4.744   3.968
57496SOL    HW174385   3.951   4.822   3.993
57496SOL    HW274386   3.952   4.708   3.894
57497SOL     OW74387   9.845   9.735   6.122
57497SOL    HW174388   9.900   9.778   6.057
57497SOL    HW274389   9.886   9.649   6.134
57498SOL     OW74390   7.344  13.916  10.802
57498SOL    HW174391   7.336  13.981  10.732
57498SOL    HW274392   7.370  13.836  10.757
57499SOL     OW74393   1.275  11.967  13.212
57499SOL    HW174394   1.329  12.046  13.204
57499SOL    HW274395   1.191  11.992  13.173
57500SOL     OW74396   6.488   4.905   7.538
57500SOL    HW174397   6.520   4.890   7.627
57500SOL    HW274398   6.467   4.818   7.505
57501SOL     OW74399   6.984   6.971   7.585
57501SOL    HW174400   6.930   6.932   7.654
57501SOL    HW274401   6.924   7.026   7.535
57502SOL     OW74402   0.179   1.201  12.609
57502SOL    HW174403   0.139   1.285  12.585
57502SOL    HW274404   0.132   1.136  12.557
57503SOL     OW74405  12.757  11.589  13.136
57503SOL    HW174406  12.821  11.660  13.131
57503SOL    HW274407  12.782  11.539  13.213
57504SOL     OW74408   0.806   0.804   2.210
57504SOL    HW174409   0.792   0.767   2.123
57504SOL    HW274410   0.888   0.765   2.241
57505SOL     OW74411   0.398   0.684  14.736
57505SOL    HW174412   0.441   0.650  14.814
57505SOL    HW274413   0.410   0.779  14.741
57506SOL     OW74414  13.311  12.225  11.095
57506SOL    HW174415  13.221  12.209  11.125
57506SOL    HW274416  13.301  12.259  11.006
57507SOL     OW74417   9.020   5.326  11.927
57507SOL    HW174418   8.998   5.282  11.845
57507SOL    HW274419   9.085   5.391  11.902
57508SOL     OW74420   0.083   3.364  14.212
57508SOL    HW174421   0.152   3.428  14.228
57508SOL    HW274422   0.102   3.329  14.125
57509SOL     OW74423   2.095   6.476   1.028
57509SOL    HW174424   2.066   6.467   1.119
57509SOL    HW274425   2.070   6.565   1.004
57510SOL     OW74426   7.111   5.151  11.599
57510SOL    HW174427   7.097   5.230  11.651
57510SOL    HW274428   7.168   5.180  11.528
57511SOL     OW74429  12.569   1.977   2.230
57511SOL    HW174430  12.511   1.960   2.304
57511SOL    HW274431  12.513   1.965   2.153
57512SOL     OW74432   4.091   8.186   8.955
57512SOL    HW174433   4.053   8.155   9.037
57512SOL    HW274434   4.015   8.211   8.902
57513SOL     OW74435   7.952   8.120  11.997
57513SOL    HW174436   7.974   8.091  12.085
57513SOL    HW274437   7.971   8.045  11.941
57514SOL     OW74438   4.282   2.445   3.126
57514SOL    HW174439   4.240   2.417   3.045
57514SOL    HW274440   4.217   2.503   3.167
57515SOL     OW74441  12.762   2.876  10.025
57515SOL    HW174442  12.697   2.823   9.980
57515SOL    HW274443  12.839   2.875   9.968
57516SOL     OW74444  13.126  13.609  14.346
57516SOL    HW174445  13.185  13.647  14.411
57516SOL    HW274446  13.077  13.542  14.395
57517SOL     OW74447   6.137   1.078   7.553
57517SOL    HW174448   6.221   1.082   7.509
57517SOL    HW274449   6.152   1.121   7.638
57518SOL     OW74450   4.413   7.759  13.893
57518SOL    HW174451   4.353   7.684  13.893
57518SOL    HW274452   4.495   7.725  13.857
57519SOL     OW74453   6.748  13.077   3.696
57519SOL    HW174454   6.679  13.011   3.703
57519SOL    HW274455   6.712  13.154   3.740
57520SOL     OW74456   7.676   3.651   8.429
57520SOL    HW174457   7.739   3.627   8.497
57520SOL    HW274458   7.672   3.747   8.432
57521SOL     OW74459  10.017  12.196   0.294
57521SOL    HW174460   9.972  12.119   0.262
57521SOL    HW274461  10.029  12.251   0.216
57522SOL     OW74462  12.393  10.286  12.075
57522SOL    HW174463  12.402  10.368  12.026
57522SOL    HW274464  12.331  10.306  12.144
57523SOL     OW74465   2.792   0.582   8.744
57523SOL    HW174466   2.739   0.505   8.726
57523SOL    HW274467   2.878   0.562   8.705
57524SOL     OW74468  13.022   8.673  12.872
57524SOL    HW174469  13.098   8.657  12.816
57524SOL    HW274470  12.951   8.623  12.831
57525SOL     OW74471   3.464   2.108   6.585
57525SOL    HW174472   3.492   2.033   6.638
57525SOL    HW274473   3.543   2.160   6.573
57526SOL     OW74474  10.885  14.693   0.764
57526SOL    HW174475  10.865  14.703   0.857
57526SOL    HW274476  10.964  14.745   0.751
57527SOL     OW74477   5.540   6.147   7.674
57527SOL    HW174478   5.570   6.164   7.763
57527SOL    HW274479   5.505   6.058   7.677
57528SOL     OW74480   1.034   8.075   7.013
57528SOL    HW174481   1.052   7.987   7.047
57528SOL    HW274482   1.058   8.134   7.085
57529SOL     OW74483   7.687  11.176  12.985
57529SOL    HW174484   7.661  11.268  12.988
57529SOL    HW274485   7.657  11.140  13.068
57530SOL     OW74486   2.406  10.718  12.695
57530SOL    HW174487   2.447  10.733  12.780
57530SOL    HW274488   2.346  10.791  12.683
57531SOL     OW74489   7.550  12.181  13.488
57531SOL    HW174490   7.561  12.207  13.580
57531SOL    HW274491   7.555  12.264  13.440
57532SOL     OW74492  10.360   1.000  13.719
57532SOL    HW174493  10.368   1.001  13.624
57532SOL    HW274494  10.449   1.018  13.751
57533SOL     OW74495   7.072  12.695   6.192
57533SOL    HW174496   6.983  12.660   6.193
57533SOL    HW274497   7.124  12.625   6.152
57534SOL     OW74498  11.736  12.659  12.312
57534SOL    HW174499  11.804  12.716  12.346
57534SOL    HW274500  11.666  12.664  12.378
57535SOL     OW74501   7.373   7.877   5.585
57535SOL    HW174502   7.463   7.896   5.556
57535SOL    HW274503   7.376   7.883   5.680
57536SOL     OW74504  14.292   5.656   0.888
57536SOL    HW174505  14.221   5.591   0.883
57536SOL    HW274506  14.349   5.625   0.957
57537SOL     OW74507   4.805   2.533   7.448
57537SOL    HW174508   4.816   2.550   7.354
57537SOL    HW274509   4.893   2.541   7.484
57538SOL     OW74510   1.680   2.865   5.391
57538SOL    HW174511   1.763   2.897   5.426
57538SOL    HW274512   1.696   2.773   5.372
57539SOL     OW74513   6.473   0.506   5.467
57539SOL    HW174514   6.567   0.496   5.481
57539SOL    HW274515   6.461   0.493   5.372
57540SOL     OW74516   7.451  10.001   0.898
57540SOL    HW174517   7.521   9.942   0.871
57540SOL    HW274518   7.455  10.003   0.993
57541SOL     OW74519   7.583  14.435   3.071
57541SOL    HW174520   7.638  14.502   3.112
57541SOL    HW274521   7.566  14.372   3.141
57542SOL     OW74522   8.878  11.706   9.509
57542SOL    HW174523   8.892  11.666   9.594
57542SOL    HW274524   8.798  11.758   9.519
57543SOL     OW74525   4.223   2.382   0.263
57543SOL    HW174526   4.316   2.377   0.240
57543SOL    HW274527   4.188   2.453   0.209
57544SOL     OW74528   5.005   7.146   1.014
57544SOL    HW174529   5.014   7.166   0.921
57544SOL    HW274530   5.061   7.070   1.028
57545SOL     OW74531  11.189   7.657   2.739
57545SOL    HW174532  11.102   7.619   2.750
57545SOL    HW274533  11.191   7.732   2.798
57546SOL     OW74534   8.823  13.090   0.625
57546SOL    HW174535   8.844  13.106   0.718
57546SOL    HW274536   8.909  13.084   0.583
57547SOL     OW74537   0.198   7.352   3.839
57547SOL    HW174538   0.201   7.292   3.765
57547SOL    HW274539   0.286   7.347   3.878
57548SOL     OW74540   9.624   7.979   4.688
57548SOL    HW174541   9.688   7.971   4.759
57548SOL    HW274542   9.545   7.937   4.721
57549SOL     OW74543   3.210   0.073  13.914
57549SOL    HW174544   3.275   0.002  13.913
57549SOL    HW274545   3.191   0.086  14.007
57550SOL     OW74546  13.602   9.748  11.661
57550SOL    HW174547  13.677   9.763  11.604
57550SOL    HW274548  13.564   9.836  11.674
57551SOL     OW74549  11.929   1.851   9.391
57551SOL    HW174550  11.967   1.931   9.428
57551SOL    HW274551  11.953   1.782   9.454
57552SOL     OW74552  11.839   8.572  13.438
57552SOL    HW174553  11.897   8.611  13.504
57552SOL    HW274554  11.756   8.618  13.448
57553SOL     OW74555   3.780   7.671   1.758
57553SOL    HW174556   3.838   7.596   1.773
57553SOL    HW274557   3.823   7.721   1.689
57554SOL     OW74558   5.284   6.590   5.080
57554SOL    HW174559   5.348   6.621   5.015
57554SOL    HW274560   5.337   6.566   5.156
57555SOL     OW74561  10.008  10.791   4.625
57555SOL    HW174562  10.042  10.701   4.619
57555SOL    HW274563  10.078  10.845   4.590
57556SOL     OW74564   0.685   3.913   4.806
57556SOL    HW174565   0.692   4.006   4.784
57556SOL    HW274566   0.610   3.909   4.866
57557SOL     OW74567  12.335  12.853  14.218
57557SOL    HW174568  12.249  12.880  14.186
57557SOL    HW274569  12.389  12.931  14.211
57558SOL     OW74570   4.486   2.400  13.187
57558SOL    HW174571   4.514   2.309  13.176
57558SOL    HW274572   4.567   2.451  13.186
57559SOL     OW74573   2.818  12.301  12.476
57559SOL    HW174574   2.767  12.282  12.397
57559SOL    HW274575   2.894  12.243  12.469
57560SOL     OW74576   1.444   5.546   1.341
57560SOL    HW174577   1.464   5.521   1.251
57560SOL    HW274578   1.363   5.596   1.334
57561SOL     OW74579   2.471   9.228   9.870
57561SOL    HW174580   2.469   9.157   9.806
57561SOL    HW274581   2.397   9.284   9.845
57562SOL     OW74582   7.633   0.951   9.976
57562SOL    HW174583   7.581   0.881  10.017
57562SOL    HW274584   7.607   1.030  10.022
57563SOL     OW74585   2.743  11.928   6.684
57563SOL    HW174586   2.655  11.951   6.653
57563SOL    HW274587   2.798  11.934   6.605
57564SOL     OW74588   5.472   7.969   4.850
57564SOL    HW174589   5.509   7.945   4.935
57564SOL    HW274590   5.521   8.047   4.823
57565SOL     OW74591   3.422   1.427  13.103
57565SOL    HW174592   3.452   1.369  13.033
57565SOL    HW274593   3.455   1.386  13.183
57566SOL     OW74594   0.880   9.112   3.262
57566SOL    HW174595   0.924   9.037   3.223
57566SOL    HW274596   0.794   9.113   3.219
57567SOL     OW74597   2.473   6.837   2.121
57567SOL    HW174598   2.527   6.759   2.110
57567SOL    HW274599   2.452   6.864   2.031
57568SOL     OW74600  13.022   9.287   8.899
57568SOL    HW174601  13.065   9.221   8.954
57568SOL    HW274602  13.001   9.241   8.818
57569SOL     OW74603   2.137  10.027   4.618
57569SOL    HW174604   2.097  10.009   4.703
57569SOL    HW274605   2.201  10.096   4.636
57570SOL     OW74606   6.890   1.058   2.234
57570SOL    HW174607   6.926   1.007   2.161
57570SOL    HW274608   6.892   1.148   2.204
57571SOL     OW74609  13.199   1.872  10.679
57571SOL    HW174610  13.269   1.934  10.698
57571SOL    HW274611  13.162   1.902  10.596
57572SOL     OW74612   5.473   9.541   6.352
57572SOL    HW174613   5.502   9.632   6.362
57572SOL    HW274614   5.447   9.514   6.440
57573SOL     OW74615  10.250  10.904   7.160
57573SOL    HW174616  10.207  10.844   7.221
57573SOL    HW274617  10.315  10.850   7.115
57574SOL     OW74618  13.329   2.398  11.969
57574SOL    HW174619  13.319   2.479  12.019
57574SOL    HW274620  13.323   2.425  11.877
57575SOL     OW74621   3.274   0.712   4.760
57575SOL    HW174622   3.223   0.778   4.808
57575SOL    HW274623   3.331   0.763   4.703
57576SOL     OW74624   6.432  14.716   8.310
57576SOL    HW174625   6.393  14.635   8.277
57576SOL    HW274626   6.369  14.750   8.373
57577SOL     OW74627   3.613  14.633  14.024
57577SOL    HW174628   3.608  14.543  14.057
57577SOL    HW274629   3.700  14.638  13.983
57578SOL     OW74630   3.634   3.503   1.822
57578SOL    HW174631   3.658   3.411   1.832
57578SOL    HW274632   3.546   3.501   1.783
57579SOL     OW74633   5.173  13.846   7.500
57579SOL    HW174634   5.173  13.751   7.503
57579SOL    HW274635   5.135  13.868   7.415
57580SOL     OW74636   1.193  10.767  11.478
57580SOL    HW174637   1.232  10.680  11.485
57580SOL    HW274638   1.234  10.818  11.548
57581SOL     OW74639   0.377   7.595  14.129
57581SOL    HW174640   0.282   7.603  14.142
57581SOL    HW274641   0.414   7.607  14.217
57582SOL     OW74642   0.900   0.813   9.560
57582SOL    HW174643   0.914   0.907   9.574
57582SOL    HW274644   0.888   0.804   9.466
57583SOL     OW74645   0.046   4.726   0.331
57583SOL    HW174646   0.131   4.735   0.287
57583SOL    HW274647   0.058   4.768   0.416
57584SOL     OW74648   6.294   7.739  11.772
57584SOL    HW174649   6.281   7.665  11.831
57584SOL    HW274650   6.274   7.816  11.826
57585SOL     OW74651   1.038   6.438   9.129
57585SOL    HW174652   1.005   6.383   9.058
57585SOL    HW274653   1.017   6.388   9.209
57586SOL     OW74654  10.800   6.636   5.261
57586SOL    HW174655  10.797   6.692   5.184
57586SOL    HW274656  10.792   6.695   5.335
57587SOL     OW74657   0.320   2.508   2.045
57587SOL    HW174658   0.229   2.494   2.017
57587SOL    HW274659   0.318   2.488   2.139
57588SOL     OW74660  12.504   7.735   5.999
57588SOL    HW174661  12.509   7.647   5.961
57588SOL    HW274662  12.428   7.732   6.057
57589SOL     OW74663  13.280  12.770   9.493
57589SOL    HW174664  13.332  12.709   9.544
57589SOL    HW274665  13.208  12.795   9.550
57590SOL     OW74666  10.998   2.060  14.764
57590SOL    HW174667  10.979   2.025  14.677
57590SOL    HW274668  11.028   2.149  14.748
57591SOL     OW74669  12.268   4.191  12.040
57591SOL    HW174670  12.240   4.108  12.080
57591SOL    HW274671  12.318   4.235  12.109
57592SOL     OW74672   8.780  12.218   9.728
57592SOL    HW174673   8.866  12.187   9.700
57592SOL    HW274674   8.800  12.296   9.780
57593SOL     OW74675  11.501   4.650  10.570
57593SOL    HW174676  11.553   4.657  10.490
57593SOL    HW274677  11.486   4.556  10.581
57594SOL     OW74678   7.995   4.935   6.263
57594SOL    HW174679   8.007   4.842   6.283
57594SOL    HW274680   7.962   4.972   6.345
57595SOL     OW74681   5.352   8.781   5.239
57595SOL    HW174682   5.398   8.702   5.211
57595SOL    HW274683   5.376   8.847   5.173
57596SOL     OW74684   4.314   3.696  12.944
57596SOL    HW174685   4.238   3.754  12.938
57596SOL    HW274686   4.381   3.749  12.986
57597SOL     OW74687   6.524  14.279   6.071
57597SOL    HW174688   6.555  14.211   6.131
57597SOL    HW274689   6.440  14.307   6.107
57598SOL     OW74690  10.997   0.162   5.827
57598SOL    HW174691  11.024   0.108   5.753
57598SOL    HW274692  10.986   0.250   5.790
57599SOL     OW74693  10.992   2.014  14.466
57599SOL    HW174694  11.075   2.009  14.420
57599SOL    HW274695  10.953   1.927  14.456
57600SOL     OW74696   0.424   3.781   8.295
57600SOL    HW174697   0.378   3.816   8.219
57600SOL    HW274698   0.516   3.793   8.274
57601SOL     OW74699   4.594  12.239  11.788
57601SOL    HW174700   4.591  12.269  11.878
57601SOL    HW274701   4.636  12.153  11.792
57602SOL     OW74702  12.084   9.315   6.169
57602SOL    HW174703  12.147   9.331   6.239
57602SOL    HW274704  12.112   9.374   6.098
57603SOL     OW74705   6.803   0.571  12.527
57603SOL    HW174706   6.713   0.574  12.558
57603SOL    HW274707   6.854   0.614  12.596
57604SOL     OW74708  12.601  10.305  11.692
57604SOL    HW174709  12.506  10.310  11.695
57604SOL    HW274710  12.620  10.213  11.675
57605SOL     OW74711   9.685   8.588   6.487
57605SOL    HW174712   9.780   8.594   6.482
57605SOL    HW274713   9.654   8.678   6.474
57606SOL     OW74714   1.097   3.575  13.966
57606SOL    HW174715   1.063   3.656  14.004
57606SOL    HW274716   1.097   3.591  13.872
57607SOL     OW74717  11.627   0.136   8.889
57607SOL    HW174718  11.682   0.063   8.861
57607SOL    HW274719  11.575   0.158   8.811
57608SOL     OW74720  11.886   5.121   8.858
57608SOL    HW174721  11.871   5.041   8.908
57608SOL    HW274722  11.978   5.143   8.875
57609SOL     OW74723   1.365  13.978   7.578
57609SOL    HW174724   1.335  14.061   7.616
57609SOL    HW274725   1.359  13.991   7.483
57610SOL     OW74726   9.118  10.322  11.193
57610SOL    HW174727   9.092  10.307  11.284
57610SOL    HW274728   9.124  10.234  11.154
57611SOL     OW74729   0.356   1.211  10.674
57611SOL    HW174730   0.282   1.260  10.709
57611SOL    HW274731   0.369   1.140  10.737
57612SOL     OW74732   5.573  12.217   6.144
57612SOL    HW174733   5.507  12.150   6.162
57612SOL    HW274734   5.535  12.298   6.179
57613SOL     OW74735   7.145  11.369   9.092
57613SOL    HW174736   7.190  11.448   9.062
57613SOL    HW274737   7.082  11.348   9.024
57614SOL     OW74738   4.473  12.401  10.853
57614SOL    HW174739   4.538  12.356  10.799
57614SOL    HW274740   4.457  12.341  10.926
57615SOL     OW74741  12.376   8.851   6.649
57615SOL    HW174742  12.307   8.786   6.668
57615SOL    HW274743  12.445   8.800   6.607
57616SOL     OW74744   8.297   4.289   9.875
57616SOL    HW174745   8.262   4.243   9.951
57616SOL    HW274746   8.392   4.290   9.889
57617SOL     OW74747   5.071  10.803  13.013
57617SOL    HW174748   5.063  10.765  13.101
57617SOL    HW274749   5.144  10.756  12.973
57618SOL     OW74750  13.637  11.826  11.862
57618SOL    HW174751  13.697  11.757  11.891
57618SOL    HW274752  13.550  11.794  11.885
57619SOL     OW74753   4.884   2.738   0.205
57619SOL    HW174754   4.847   2.821   0.236
57619SOL    HW274755   4.809   2.689   0.172
57620SOL     OW74756  12.627   7.093   8.031
57620SOL    HW174757  12.645   7.069   7.941
57620SOL    HW274758  12.555   7.156   8.025
57621SOL     OW74759   4.366   9.387   5.422
57621SOL    HW174760   4.284   9.349   5.451
57621SOL    HW274761   4.410   9.316   5.375
57622SOL     OW74762  12.285   8.332   6.551
57622SOL    HW174763  12.374   8.366   6.559
57622SOL    HW274764  12.292   8.239   6.571
57623SOL     OW74765  13.578   5.837   3.313
57623SOL    HW174766  13.552   5.751   3.346
57623SOL    HW274767  13.578   5.893   3.391
57624SOL     OW74768   9.323   9.020   4.938
57624SOL    HW174769   9.239   8.994   4.974
57624SOL    HW274770   9.302   9.063   4.855
57625SOL     OW74771  12.277  12.489   4.900
57625SOL    HW174772  12.315  12.517   4.816
57625SOL    HW274773  12.312  12.401   4.914
57626SOL     OW74774  10.956   2.845  12.551
57626SOL    HW174775  10.908   2.762  12.551
57626SOL    HW274776  11.017   2.837  12.625
57627SOL     OW74777   1.752  13.966   8.941
57627SOL    HW174778   1.798  13.973   8.857
57627SOL    HW274779   1.680  14.029   8.934
57628SOL     OW74780   5.208   6.242   2.060
57628SOL    HW174781   5.219   6.336   2.047
57628SOL    HW274782   5.202   6.206   1.972
57629SOL     OW74783  13.873  12.699   4.249
57629SOL    HW174784  13.807  12.631   4.261
57629SOL    HW274785  13.933  12.663   4.184
57630SOL     OW74786  14.450   9.794   1.536
57630SOL    HW174787  14.410   9.852   1.601
57630SOL    HW274788  14.544   9.800   1.553
57631SOL     OW74789  12.898   5.207   1.956
57631SOL    HW174790  12.803   5.220   1.958
57631SOL    HW274791  12.931   5.251   2.034
57632SOL     OW74792   4.539  14.812  14.848
57632SOL    HW174793   4.552   0.029  14.848
57632SOL    HW274794   4.498  14.794  14.763
57633SOL     OW74795  10.674   7.481   9.112
57633SOL    HW174796  10.644   7.440   9.193
57633SOL    HW274797  10.595   7.497   9.061
57634SOL     OW74798   6.217  14.441   6.442
57634SOL    HW174799   6.181  14.514   6.392
57634SOL    HW274800   6.145  14.412   6.498
57635SOL     OW74801  12.554   2.761   0.299
57635SOL    HW174802  12.562   2.834   0.361
57635SOL    HW274803  12.627   2.774   0.238
57636SOL     OW74804   0.749  12.947   4.752
57636SOL    HW174805   0.730  12.884   4.683
57636SOL    HW274806   0.844  12.953   4.753
57637SOL     OW74807  10.954  14.045   4.003
57637SOL    HW174808  10.881  14.106   4.018
57637SOL    HW274809  10.925  13.962   4.040
57638SOL     OW74810  12.521   1.863   7.964
57638SOL    HW174811  12.498   1.949   7.928
57638SOL    HW274812  12.615   1.855   7.946
57639SOL     OW74813   5.096   1.679   8.639
57639SOL    HW174814   5.017   1.725   8.667
57639SOL    HW274815   5.160   1.696   8.708
57640SOL     OW74816   7.757   4.615  11.431
57640SOL    HW174817   7.796   4.535  11.396
57640SOL    HW274818   7.780   4.614  11.524
57641SOL     OW74819   5.589   8.544   8.044
57641SOL    HW174820   5.651   8.528   8.116
57641SOL    HW274821   5.644   8.564   7.969
57642SOL     OW74822  12.640   8.225  14.754
57642SOL    HW174823  12.728   8.208  14.790
57642SOL    HW274824  12.610   8.140  14.723
57643SOL     OW74825  10.080   0.520   6.083
57643SOL    HW174826  10.037   0.603   6.099
57643SOL    HW274827  10.162   0.543   6.040
57644SOL     OW74828   3.638   1.392   8.595
57644SOL    HW174829   3.622   1.461   8.532
57644SOL    HW274830   3.563   1.395   8.654
57645SOL     OW74831   4.466   2.319   0.508
57645SOL    HW174832   4.416   2.384   0.457
57645SOL    HW274833   4.557   2.347   0.499
57646SOL     OW74834   6.655   8.576   2.613
57646SOL    HW174835   6.658   8.482   2.630
57646SOL    HW274836   6.683   8.585   2.522
57647SOL     OW74837  10.262   9.042  10.097
57647SOL    HW174838  10.316   9.054  10.175
57647SOL    HW274839  10.246   8.947  10.094
57648SOL     OW74840   9.503   1.991   7.444
57648SOL    HW174841   9.526   2.065   7.499
57648SOL    HW274842   9.474   1.923   7.506
57649SOL     OW74843   9.638   6.465   5.565
57649SOL    HW174844   9.605   6.555   5.567
57649SOL    HW274845   9.722   6.469   5.611
57650SOL     OW74846   2.612   1.194   6.612
57650SOL    HW174847   2.669   1.247   6.556
57650SOL    HW274848   2.649   1.106   6.607
57651SOL     OW74849  12.354   2.590   8.988
57651SOL    HW174850  12.313   2.540   9.058
57651SOL    HW274851  12.298   2.574   8.912
57652SOL     OW74852   9.433  13.180   0.509
57652SOL    HW174853   9.485  13.107   0.477
57652SOL    HW274854   9.436  13.245   0.438
57653SOL     OW74855   1.066   4.551  14.159
57653SOL    HW174856   1.031   4.610  14.225
57653SOL    HW274857   1.025   4.579  14.077
57654SOL     OW74858   1.169  14.803   8.436
57654SOL    HW174859   1.219  14.722   8.424
57654SOL    HW274860   1.204  14.863   8.369
57655SOL     OW74861  11.858   7.867   7.071
57655SOL    HW174862  11.953   7.873   7.065
57655SOL    HW274863  11.841   7.824   7.155
57656SOL     OW74864  13.512   6.780  10.960
57656SOL    HW174865  13.416   6.786  10.970
57656SOL    HW274866  13.535   6.698  11.003
57657SOL     OW74867   3.798  12.747   7.953
57657SOL    HW174868   3.828  12.753   7.862
57657SOL    HW274869   3.838  12.821   7.997
57658SOL     OW74870   9.201   6.212   3.309
57658SOL    HW174871   9.218   6.136   3.253
57658SOL    HW274872   9.238   6.286   3.261
57659SOL     OW74873   3.326  14.343   6.535
57659SOL    HW174874   3.259  14.411   6.531
57659SOL    HW274875   3.300  14.279   6.469
57660SOL     OW74876   9.988  12.327  14.318
57660SOL    HW174877  10.060  12.344  14.258
57660SOL    HW274878   9.920  12.287  14.264
57661SOL     OW74879   0.442  10.090   3.161
57661SOL    HW174880   0.434  10.183   3.182
57661SOL    HW274881   0.360  10.052   3.193
57662SOL     OW74882   5.097   1.837  10.862
57662SOL    HW174883   5.159   1.908  10.848
57662SOL    HW274884   5.141   1.778  10.923
57663SOL     OW74885   9.975   1.311   2.279
57663SOL    HW174886   9.950   1.385   2.224
57663SOL    HW274887   9.927   1.324   2.361
57664SOL     OW74888   3.467   5.657   3.196
57664SOL    HW174889   3.398   5.592   3.215
57664SOL    HW274890   3.544   5.605   3.176
57665SOL     OW74891   3.685  10.623  11.620
57665SOL    HW174892   3.771  10.622  11.578
57665SOL    HW274893   3.690  10.556  11.687
57666SOL     OW74894   6.182   4.159   4.972
57666SOL    HW174895   6.090   4.134   4.981
57666SOL    HW274896   6.198   4.219   5.044
57667SOL     OW74897   6.367   9.254   4.733
57667SOL    HW174898   6.424   9.181   4.709
57667SOL    HW274899   6.376   9.262   4.828
57668SOL     OW74900   8.649  13.933   3.327
57668SOL    HW174901   8.693  14.013   3.353
57668SOL    HW274902   8.706  13.863   3.357
57669SOL     OW74903  12.213  12.966   9.583
57669SOL    HW174904  12.119  12.985   9.588
57669SOL    HW274905  12.242  13.006   9.501
57670SOL     OW74906  11.459   2.047  13.232
57670SOL    HW174907  11.508   2.074  13.310
57670SOL    HW274908  11.417   1.965  13.257
57671SOL     OW74909   1.269   8.107  12.111
57671SOL    HW174910   1.182   8.145  12.099
57671SOL    HW274911   1.274   8.037  12.046
57672SOL     OW74912   3.484  12.839  13.585
57672SOL    HW174913   3.408  12.891  13.606
57672SOL    HW274914   3.538  12.842  13.665
57673SOL     OW74915  12.639   6.181  11.324
57673SOL    HW174916  12.583   6.258  11.335
57673SOL    HW274917  12.586   6.120  11.273
57674SOL     OW74918   5.926   3.797   7.352
57674SOL    HW174919   5.836   3.825   7.336
57674SOL    HW274920   5.952   3.752   7.273
57675SOL     OW74921   8.068   0.508   1.523
57675SOL    HW174922   8.103   0.430   1.480
57675SOL    HW274923   7.985   0.479   1.561
57676SOL     OW74924  11.078   0.188   7.447
57676SOL    HW174925  11.164   0.146   7.454
57676SOL    HW274926  11.075   0.223   7.358
57677SOL     OW74927   6.814   5.033  10.028
57677SOL    HW174928   6.813   5.086  10.108
57677SOL    HW274929   6.779   5.091   9.960
57678SOL     OW74930   4.671   1.815   7.305
57678SOL    HW174931   4.729   1.741   7.320
57678SOL    HW274932   4.706   1.859   7.228
57679SOL     OW74933  12.650  12.608   9.565
57679SOL    HW174934  12.712  12.679   9.549
57679SOL    HW274935  12.570  12.653   9.594
57680SOL     OW74936   6.283   9.678   2.652
57680SOL    HW174937   6.207   9.623   2.634
57680SOL    HW274938   6.256   9.733   2.726
57681SOL     OW74939   3.268  11.931   9.888
57681SOL    HW174940   3.217  11.981   9.824
57681SOL    HW274941   3.352  11.915   9.845
57682SOL     OW74942   7.942   1.565  12.256
57682SOL    HW174943   7.960   1.555  12.350
57682SOL    HW274944   7.920   1.658  12.246
57683SOL     OW74945  12.976   5.864   6.569
57683SOL    HW174946  13.002   5.837   6.658
57683SOL    HW274947  12.910   5.931   6.583
57684SOL     OW74948  11.623   5.059  14.859
57684SOL    HW174949  11.621   5.034  14.767
57684SOL    HW274950  11.570   4.993   0.025
57685SOL     OW74951  11.891  13.332  10.442
57685SOL    HW174952  11.806  13.289  10.446
57685SOL    HW274953  11.900  13.376  10.526
57686SOL     OW74954   6.576  12.000   5.408
57686SOL    HW174955   6.607  12.085   5.440
57686SOL    HW274956   6.629  11.982   5.330
57687SOL     OW74957  11.129   7.863  13.489
57687SOL    HW174958  11.049   7.915  13.495
57687SOL    HW274959  11.193   7.923  13.448
57688SOL     OW74960   7.803   5.621   2.261
57688SOL    HW174961   7.746   5.566   2.208
57688SOL    HW274962   7.755   5.631   2.344
57689SOL     OW74963   7.502   5.759  11.334
57689SOL    HW174964   7.413   5.722  11.334
57689SOL    HW274965   7.498   5.832  11.273
57690SOL     OW74966   0.201   5.160   7.143
57690SOL    HW174967   0.283   5.115   7.121
57690SOL    HW274968   0.229   5.235   7.195
57691SOL     OW74969   5.019   7.100  11.088
57691SOL    HW174970   4.999   7.011  11.118
57691SOL    HW274971   4.999   7.156  11.163
57692SOL     OW74972   3.980   0.493   1.460
57692SOL    HW174973   4.024   0.461   1.539
57692SOL    HW274974   4.025   0.450   1.388
57693SOL     OW74975   7.591  11.707   5.604
57693SOL    HW174976   7.565  11.661   5.524
57693SOL    HW274977   7.675  11.746   5.582
57694SOL     OW74978  10.328  12.145   3.143
57694SOL    HW174979  10.356  12.053   3.136
57694SOL    HW274980  10.233  12.141   3.131
57695SOL     OW74981  14.776  14.769   6.361
57695SOL    HW174982  14.845  14.727   6.413
57695SOL    HW274983  14.694  14.732   6.394
57696SOL     OW74984   8.408  10.921   8.288
57696SOL    HW174985   8.467  10.891   8.357
57696SOL    HW274986   8.360  10.994   8.327
57697SOL     OW74987  12.183  10.398  12.926
57697SOL    HW174988  12.108  10.371  12.874
57697SOL    HW274989  12.183  10.494  12.921
57698SOL     OW74990  11.724   0.039  14.023
57698SOL    HW174991  11.673   0.049  13.943
57698SOL    HW274992  11.728  14.822  14.037
57699SOL     OW74993  12.715   8.784   3.145
57699SOL    HW174994  12.625   8.799   3.114
57699SOL    HW274995  12.733   8.860   3.202
57700SOL     OW74996  10.844   5.270   9.728
57700SOL    HW174997  10.911   5.202   9.728
57700SOL    HW274998  10.766   5.226   9.762
57701SOL     OW74999   1.718   0.195  14.014
57701SOL    HW175000   1.727   0.203  13.919
57701SOL    HW275001   1.779   0.125  14.038
57702SOL     OW75002   1.413  14.298  13.246
57702SOL    HW175003   1.440  14.252  13.326
57702SOL    HW275004   1.369  14.377  13.278
57703SOL     OW75005   8.356  13.924   3.631
57703SOL    HW175006   8.263  13.923   3.606
57703SOL    HW275007   8.385  13.834   3.619
57704SOL     OW75008  13.743  11.557   9.014
57704SOL    HW175009  13.826  11.513   9.033
57704SOL    HW275010  13.698  11.497   8.955
57705SOL     OW75011   6.623   2.999  10.655
57705SOL    HW175012   6.590   2.954  10.577
57705SOL    HW275013   6.717   2.981  10.655
57706SOL     OW75014   4.643  11.482   7.376
57706SOL    HW175015   4.729  11.520   7.395
57706SOL    HW275016   4.595  11.554   7.335
57707SOL     OW75017  11.664   1.561   2.599
57707SOL    HW175018  11.596   1.594   2.657
57707SOL    HW275019  11.716   1.501   2.654
57708SOL     OW75020  12.568   4.132  13.275
57708SOL    HW175021  12.499   4.196  13.296
57708SOL    HW275022  12.641   4.186  13.245
57709SOL     OW75023   9.857  14.650   9.672
57709SOL    HW175024   9.896  14.737   9.674
57709SOL    HW275025   9.865  14.623   9.580
57710SOL     OW75026   7.167   1.851   3.703
57710SOL    HW175027   7.215   1.934   3.696
57710SOL    HW275028   7.193   1.815   3.787
57711SOL     OW75029   7.327   6.780   2.332
57711SOL    HW175030   7.337   6.856   2.390
57711SOL    HW275031   7.360   6.706   2.384
57712SOL     OW75032   5.391   8.908   0.897
57712SOL    HW175033   5.382   8.894   0.803
57712SOL    HW275034   5.462   8.850   0.923
57713SOL     OW75035   7.670   3.406   2.765
57713SOL    HW175036   7.726   3.482   2.780
57713SOL    HW275037   7.596   3.439   2.715
57714SOL     OW75038   5.887   7.743  12.046
57714SOL    HW175039   5.802   7.776  12.016
57714SOL    HW275040   5.935   7.724  11.965
57715SOL     OW75041   2.114   3.843  11.754
57715SOL    HW175042   2.124   3.863  11.847
57715SOL    HW275043   2.164   3.763  11.740
57716SOL     OW75044   3.719   2.259   2.097
57716SOL    HW175045   3.756   2.309   2.024
57716SOL    HW275046   3.625   2.274   2.091
57717SOL     OW75047  12.343  14.444   7.462
57717SOL    HW175048  12.392  14.495   7.398
57717SOL    HW275049  12.313  14.509   7.526
57718SOL     OW75050   0.112   0.727   0.451
57718SOL    HW175051   0.165   0.688   0.382
57718SOL    HW275052   0.112   0.663   0.522
57719SOL     OW75053   2.873   2.323   4.673
57719SOL    HW175054   2.929   2.316   4.597
57719SOL    HW275055   2.923   2.283   4.744
57720SOL     OW75056  12.478  13.163   8.071
57720SOL    HW175057  12.525  13.101   8.126
57720SOL    HW275058  12.501  13.137   7.981
57721SOL     OW75059   4.541   5.785   6.592
57721SOL    HW175060   4.517   5.693   6.608
57721SOL    HW275061   4.631   5.781   6.562
57722SOL     OW75062  12.005  14.547   4.457
57722SOL    HW175063  12.045  14.584   4.379
57722SOL    HW275064  11.911  14.557   4.444
57723SOL     OW75065  14.099  12.292   8.545
57723SOL    HW175066  14.068  12.219   8.492
57723SOL    HW275067  14.145  12.349   8.483
57724SOL     OW75068   8.853   0.689   5.076
57724SOL    HW175069   8.878   0.665   4.987
57724SOL    HW275070   8.928   0.666   5.129
57725SOL     OW75071   0.790  10.014   9.410
57725SOL    HW175072   0.817   9.954   9.341
57725SOL    HW275073   0.860  10.079   9.414
57726SOL     OW75074   0.865   7.567  14.126
57726SOL    HW175075   0.866   7.621  14.204
57726SOL    HW275076   0.780   7.584  14.085
57727SOL     OW75077  13.523   6.571   1.379
57727SOL    HW175078  13.520   6.561   1.474
57727SOL    HW275079  13.462   6.643   1.361
57728SOL     OW75080   9.095   7.677   0.928
57728SOL    HW175081   9.108   7.583   0.914
57728SOL    HW275082   9.043   7.705   0.852
57729SOL     OW75083   1.855   2.659  13.702
57729SOL    HW175084   1.829   2.687  13.789
57729SOL    HW275085   1.834   2.566  13.699
57730SOL     OW75086   7.517  11.936   2.990
57730SOL    HW175087   7.529  11.851   2.947
57730SOL    HW275088   7.426  11.935   3.019
57731SOL     OW75089   8.901   4.729   2.499
57731SOL    HW175090   8.912   4.815   2.458
57731SOL    HW275091   8.951   4.669   2.443
57732SOL     OW75092   9.739   8.490  12.528
57732SOL    HW175093   9.656   8.472  12.572
57732SOL    HW275094   9.714   8.510  12.438
57733SOL     OW75095   2.774   8.294  10.740
57733SOL    HW175096   2.835   8.237  10.787
57733SOL    HW275097   2.730   8.344  10.808
57734SOL     OW75098  12.099  13.527  11.796
57734SOL    HW175099  12.059  13.567  11.719
57734SOL    HW275100  12.037  13.543  11.867
57735SOL     OW75101   0.189  11.721   1.618
57735SOL    HW175102   0.249  11.658   1.577
57735SOL    HW275103   0.240  11.758   1.690
57736SOL     OW75104  11.045   6.734   4.275
57736SOL    HW175105  11.113   6.727   4.209
57736SOL    HW275106  10.974   6.782   4.233
57737SOL     OW75107   4.113   1.720  12.724
57737SOL    HW175108   4.155   1.801  12.751
57737SOL    HW275109   4.021   1.732  12.748
57738SOL     OW75110  12.345   8.622  10.184
57738SOL    HW175111  12.388   8.705  10.205
57738SOL    HW275112  12.308   8.592  10.267
57739SOL     OW75113  12.883   7.750   3.654
57739SOL    HW175114  12.890   7.845   3.653
57739SOL    HW275115  12.790   7.732   3.663
57740SOL     OW75116  13.924  12.834  10.970
57740SOL    HW175117  13.955  12.901  10.908
57740SOL    HW275118  13.885  12.766  10.915
57741SOL     OW75119   7.130   0.794   3.135
57741SOL    HW175120   7.208   0.759   3.091
57741SOL    HW275121   7.143   0.772   3.228
57742SOL     OW75122   0.435   3.254   2.514
57742SOL    HW175123   0.375   3.188   2.549
57742SOL    HW275124   0.491   3.206   2.453
57743SOL     OW75125   5.130   2.875   0.856
57743SOL    HW175126   5.189   2.942   0.890
57743SOL    HW275127   5.052   2.880   0.912
57744SOL     OW75128  12.587  14.170   2.658
57744SOL    HW175129  12.621  14.082   2.676
57744SOL    HW275130  12.656  14.212   2.606
57745SOL     OW75131   1.616   9.221  11.874
57745SOL    HW175132   1.532   9.266  11.863
57745SOL    HW275133   1.613   9.185  11.963
57746SOL     OW75134   2.839   9.901   1.485
57746SOL    HW175135   2.803   9.813   1.486
57746SOL    HW275136   2.838   9.926   1.392
57747SOL     OW75137  11.254   7.752   8.982
57747SOL    HW175138  11.321   7.714   8.925
57747SOL    HW275139  11.302   7.810   9.041
57748SOL     OW75140   9.267  14.631  14.150
57748SOL    HW175141   9.249  14.614  14.242
57748SOL    HW275142   9.183  14.622  14.106
57749SOL     OW75143   7.455   4.720   2.389
57749SOL    HW175144   7.523   4.655   2.406
57749SOL    HW275145   7.500   4.804   2.387
57750SOL     OW75146   3.630   8.651   4.685
57750SOL    HW175147   3.583   8.717   4.635
57750SOL    HW275148   3.618   8.677   4.777
57751SOL     OW75149  10.539   5.937   6.102
57751SOL    HW175150  10.482   5.933   6.025
57751SOL    HW275151  10.528   5.851   6.144
57752SOL     OW75152  12.054   8.474   1.130
57752SOL    HW175153  12.107   8.527   1.189
57752SOL    HW275154  12.016   8.537   1.068
57753SOL     OW75155   3.506   2.596   7.954
57753SOL    HW175156   3.446   2.653   8.003
57753SOL    HW275157   3.582   2.652   7.935
57754SOL     OW75158   5.469  12.080  13.431
57754SOL    HW175159   5.430  12.096  13.345
57754SOL    HW275160   5.448  12.158  13.482
57755SOL     OW75161   3.008   1.079   2.900
57755SOL    HW175162   3.003   1.046   2.810
57755SOL    HW275163   2.992   1.173   2.892
57756SOL     OW75164  10.079   4.038   2.609
57756SOL    HW175165  10.107   3.955   2.571
57756SOL    HW275166  10.147   4.060   2.672
57757SOL     OW75167   0.243   6.901   2.590
57757SOL    HW175168   0.152   6.930   2.596
57757SOL    HW275169   0.254   6.842   2.664
57758SOL     OW75170   4.660   8.215   7.395
57758SOL    HW175171   4.649   8.252   7.483
57758SOL    HW275172   4.667   8.291   7.338
57759SOL     OW75173   1.877  10.165   9.759
57759SOL    HW175174   1.928  10.094   9.798
57759SOL    HW275175   1.796  10.167   9.810
57760SOL     OW75176   3.279   0.338   0.990
57760SOL    HW175177   3.295   0.280   1.064
57760SOL    HW275178   3.275   0.426   1.028
57761SOL     OW75179  12.790   7.242   4.342
57761SOL    HW175180  12.853   7.182   4.381
57761SOL    HW275181  12.709   7.192   4.336
57762SOL     OW75182   1.586   3.826   4.263
57762SOL    HW175183   1.533   3.823   4.343
57762SOL    HW275184   1.674   3.803   4.292
57763SOL     OW75185   5.248  10.313   0.481
57763SOL    HW175186   5.291  10.233   0.450
57763SOL    HW275187   5.318  10.379   0.482
57764SOL     OW75188   2.972   2.845   9.105
57764SOL    HW175189   2.932   2.786   9.170
57764SOL    HW275190   3.066   2.829   9.112
57765SOL     OW75191   8.283  10.676   9.407
57765SOL    HW175192   8.304  10.590   9.370
57765SOL    HW275193   8.193  10.693   9.378
57766SOL     OW75194  12.674  12.037  12.746
57766SOL    HW175195  12.692  12.120  12.703
57766SOL    HW275196  12.731  12.036  12.823
57767SOL     OW75197   5.112   8.523   1.947
57767SOL    HW175198   5.038   8.469   1.975
57767SOL    HW275199   5.163   8.536   2.027
57768SOL     OW75200   3.622  14.739   8.500
57768SOL    HW175201   3.596  14.818   8.548
57768SOL    HW275202   3.607  14.668   8.563
57769SOL     OW75203   0.610   2.774   1.297
57769SOL    HW175204   0.691   2.816   1.265
57769SOL    HW275205   0.545   2.793   1.229
57770SOL     OW75206  13.227   3.344  12.298
57770SOL    HW175207  13.265   3.390  12.223
57770SOL    HW275208  13.164   3.406  12.335
57771SOL     OW75209   8.885   9.249   4.109
57771SOL    HW175210   8.905   9.336   4.074
57771SOL    HW275211   8.971   9.211   4.129
57772SOL     OW75212   1.674  10.577   7.829
57772SOL    HW175213   1.600  10.615   7.781
57772SOL    HW275214   1.728  10.652   7.852
57773SOL     OW75215  14.248   8.939  14.047
57773SOL    HW175216  14.248   8.847  14.076
57773SOL    HW275217  14.264   8.934  13.953
57774SOL     OW75218  12.700  12.253   6.468
57774SOL    HW175219  12.674  12.288   6.553
57774SOL    HW275220  12.701  12.329   6.410
57775SOL     OW75221   2.237   6.821  12.702
57775SOL    HW175222   2.213   6.882  12.632
57775SOL    HW275223   2.197   6.858  12.780
57776SOL     OW75224   5.448   6.300   0.005
57776SOL    HW175225   5.491   6.366  14.828
57776SOL    HW275226   5.510   6.284   0.076
57777SOL     OW75227   0.963  14.091   4.270
57777SOL    HW175228   1.041  14.069   4.321
57777SOL    HW275229   0.889  14.062   4.324
57778SOL     OW75230   8.800   2.487   2.869
57778SOL    HW175231   8.830   2.578   2.879
57778SOL    HW275232   8.864   2.447   2.810
57779SOL     OW75233   4.669  14.778  10.341
57779SOL    HW175234   4.605  14.789  10.270
57779SOL    HW275235   4.712  14.695  10.321
57780SOL     OW75236   4.027  11.087   2.483
57780SOL    HW175237   4.017  11.110   2.391
57780SOL    HW275238   4.074  11.161   2.522
57781SOL     OW75239   4.156   9.389  11.473
57781SOL    HW175240   4.117   9.476  11.485
57781SOL    HW275241   4.118   9.357  11.391
57782SOL     OW75242  10.999  13.242   0.735
57782SOL    HW175243  11.032  13.252   0.645
57782SOL    HW275244  11.078  13.235   0.789
57783SOL     OW75245   6.937   2.932   6.052
57783SOL    HW175246   6.957   2.897   5.965
57783SOL    HW275247   6.847   2.902   6.069
57784SOL     OW75248   9.595   0.601   9.844
57784SOL    HW175249   9.615   0.631   9.933
57784SOL    HW275250   9.654   0.527   9.830
57785SOL     OW75251   4.999  12.919   8.669
57785SOL    HW175252   4.998  12.912   8.765
57785SOL    HW275253   4.923  12.974   8.648
57786SOL     OW75254   3.359   5.749   8.342
57786SOL    HW175255   3.382   5.659   8.318
57786SOL    HW275256   3.411   5.803   8.282
57787SOL     OW75257  11.781   3.622   6.996
57787SOL    HW175258  11.826   3.585   7.072
57787SOL    HW275259  11.849   3.673   6.951
57788SOL     OW75260   1.247  12.005   5.389
57788SOL    HW175261   1.168  12.058   5.377
57788SOL    HW275262   1.244  11.978   5.480
57789SOL     OW75263  12.398  10.565  14.448
57789SOL    HW175264  12.486  10.546  14.482
57789SOL    HW275265  12.393  10.517  14.365
57790SOL     OW75266  14.275   3.354   6.765
57790SOL    HW175267  14.335   3.280   6.769
57790SOL    HW275268  14.188   3.314   6.765
57791SOL     OW75269   8.628   2.341   7.646
57791SOL    HW175270   8.676   2.304   7.573
57791SOL    HW275271   8.537   2.315   7.631
57792SOL     OW75272   4.956   2.864   1.425
57792SOL    HW175273   5.006   2.852   1.506
57792SOL    HW275274   4.877   2.810   1.437
57793SOL     OW75275   8.273   6.642  11.257
57793SOL    HW175276   8.195   6.588  11.243
57793SOL    HW275277   8.285   6.642  11.352
57794SOL     OW75278  11.358   4.536  11.146
57794SOL    HW175279  11.287   4.471  11.140
57794SOL    HW275280  11.438   4.485  11.134
57795SOL     OW75281  11.045  14.465   5.953
57795SOL    HW175282  11.054  14.446   6.047
57795SOL    HW275283  10.996  14.547   5.949
57796SOL     OW75284   7.777   2.779  11.725
57796SOL    HW175285   7.862   2.761  11.684
57796SOL    HW275286   7.734   2.841  11.666
57797SOL     OW75287   4.847   8.855   3.648
57797SOL    HW175288   4.918   8.791   3.649
57797SOL    HW275289   4.767   8.801   3.644
57798SOL     OW75290  14.233   5.980  12.459
57798SOL    HW175291  14.184   5.948  12.383
57798SOL    HW275292  14.175   5.963  12.533
57799SOL     OW75293   6.876   3.977   6.035
57799SOL    HW175294   6.902   4.060   6.075
57799SOL    HW275295   6.782   3.969   6.056
57800SOL     OW75296  11.783   1.430   4.314
57800SOL    HW175297  11.823   1.501   4.265
57800SOL    HW275298  11.709   1.401   4.260
57801SOL     OW75299   1.301   6.304   2.431
57801SOL    HW175300   1.217   6.348   2.418
57801SOL    HW275301   1.294   6.266   2.519
57802SOL     OW75302   8.076  10.139   0.945
57802SOL    HW175303   8.031  10.066   0.901
57802SOL    HW275304   8.041  10.218   0.903
57803SOL     OW75305   6.382  10.016   5.562
57803SOL    HW175306   6.413   9.953   5.496
57803SOL    HW275307   6.290  10.029   5.541
57804SOL     OW75308  11.333   1.030   1.484
57804SOL    HW175309  11.349   0.938   1.506
57804SOL    HW275310  11.327   1.075   1.569
57805SOL     OW75311   4.402   3.283   4.042
57805SOL    HW175312   4.476   3.327   4.001
57805SOL    HW275313   4.424   3.281   4.135
57806SOL     OW75314   6.523   2.829  10.901
57806SOL    HW175315   6.517   2.860  10.810
57806SOL    HW275316   6.436   2.795  10.920
57807SOL     OW75317  13.022  10.864   4.796
57807SOL    HW175318  13.041  10.905   4.880
57807SOL    HW275319  13.082  10.790   4.791
57808SOL     OW75320  14.160   8.919   8.383
57808SOL    HW175321  14.245   8.960   8.396
57808SOL    HW275322  14.105   8.989   8.346
57809SOL     OW75323  13.636   9.498  11.767
57809SOL    HW175324  13.644   9.574  11.709
57809SOL    HW275325  13.602   9.428  11.711
57810SOL     OW75326   4.245   0.272  12.921
57810SOL    HW175327   4.200   0.346  12.880
57810SOL    HW275328   4.178   0.204  12.926
57811SOL     OW75329   5.513  12.186   2.344
57811SOL    HW175330   5.523  12.124   2.272
57811SOL    HW275331   5.600  12.225   2.354
57812SOL     OW75332  11.101   9.084   5.513
57812SOL    HW175333  11.102   8.989   5.529
57812SOL    HW275334  11.098   9.092   5.418
57813SOL     OW75335   5.708   5.206  14.047
57813SOL    HW175336   5.704   5.169  13.959
57813SOL    HW275337   5.766   5.147  14.096
57814SOL     OW75338   4.595   2.600  13.377
57814SOL    HW175339   4.520   2.545  13.399
57814SOL    HW275340   4.561   2.665  13.316
57815SOL     OW75341   2.888   8.123   3.159
57815SOL    HW175342   2.804   8.155   3.126
57815SOL    HW275343   2.953   8.183   3.122
57816SOL     OW75344   9.610   9.032  12.689
57816SOL    HW175345   9.555   9.109  12.700
57816SOL    HW275346   9.550   8.964  12.658
57817SOL     OW75347  11.355   4.217   7.429
57817SOL    HW175348  11.271   4.196   7.388
57817SOL    HW275349  11.355   4.167   7.511
57818SOL     OW75350   8.581   5.161  14.606
57818SOL    HW175351   8.515   5.222  14.575
57818SOL    HW275352   8.547   5.128  14.689
57819SOL     OW75353  13.761   9.092   5.606
57819SOL    HW175354  13.771   8.998   5.618
57819SOL    HW275355  13.696   9.100   5.536
57820SOL     OW75356   8.362  14.401  13.400
57820SOL    HW175357   8.269  14.380  13.414
57820SOL    HW275358   8.384  14.461  13.471
57821SOL     OW75359  14.783  12.920   1.650
57821SOL    HW175360  14.768  12.914   1.744
57821SOL    HW275361  14.751  12.838   1.614
57822SOL     OW75362   8.702   2.581   0.813
57822SOL    HW175363   8.749   2.580   0.896
57822SOL    HW275364   8.610   2.573   0.837
57823SOL     OW75365  10.002   3.046   4.792
57823SOL    HW175366   9.933   3.111   4.800
57823SOL    HW275367   9.957   2.965   4.770
57824SOL     OW75368  13.238   9.398   7.294
57824SOL    HW175369  13.317   9.345   7.303
57824SOL    HW275370  13.188   9.382   7.374
57825SOL     OW75371   0.558   5.199   2.283
57825SOL    HW175372   0.537   5.290   2.304
57825SOL    HW275373   0.648   5.188   2.312
57826SOL     OW75374   0.776   7.738   4.853
57826SOL    HW175375   0.846   7.693   4.806
57826SOL    HW275376   0.820   7.779   4.928
57827SOL     OW75377   1.442   0.197   7.545
57827SOL    HW175378   1.359   0.187   7.498
57827SOL    HW275379   1.443   0.288   7.574
57828SOL     OW75380   5.680  11.537  12.916
57828SOL    HW175381   5.749  11.499  12.970
57828SOL    HW275382   5.665  11.472  12.846
57829SOL     OW75383   3.504   2.660  13.713
57829SOL    HW175384   3.546   2.593  13.660
57829SOL    HW275385   3.512   2.740  13.662
57830SOL     OW75386   1.571   4.944   5.794
57830SOL    HW175387   1.605   5.027   5.761
57830SOL    HW275388   1.647   4.903   5.836
57831SOL     OW75389   0.985   5.012  12.473
57831SOL    HW175390   1.049   4.971  12.415
57831SOL    HW275391   0.940   4.939  12.515
57832SOL     OW75392   9.096   2.022   8.683
57832SOL    HW175393   9.036   2.067   8.624
57832SOL    HW275394   9.121   2.088   8.747
57833SOL     OW75395  12.620   0.051   3.700
57833SOL    HW175396  12.577   0.107   3.635
57833SOL    HW275397  12.581  14.843   3.688
57834SOL     OW75398   2.842   5.294   9.493
57834SOL    HW175399   2.903   5.303   9.567
57834SOL    HW275400   2.898   5.293   9.416
57835SOL     OW75401   9.011   5.759   8.382
57835SOL    HW175402   8.929   5.777   8.337
57835SOL    HW275403   9.050   5.686   8.333
57836SOL     OW75404   4.207   5.651   4.008
57836SOL    HW175405   4.250   5.691   3.932
57836SOL    HW275406   4.114   5.671   3.996
57837SOL     OW75407   6.926  11.284  12.293
57837SOL    HW175408   6.947  11.243  12.377
57837SOL    HW275409   6.973  11.367  12.295
57838SOL     OW75410   6.898   4.519  12.874
57838SOL    HW175411   6.908   4.488  12.784
57838SOL    HW275412   6.877   4.440  12.925
57839SOL     OW75413   5.638  10.769   9.519
57839SOL    HW175414   5.576  10.781   9.592
57839SOL    HW275415   5.666  10.678   9.526
57840SOL     OW75416   3.133   1.246   3.495
57840SOL    HW175417   3.123   1.298   3.415
57840SOL    HW275418   3.227   1.235   3.504
57841SOL     OW75419  12.614  10.686   9.155
57841SOL    HW175420  12.600  10.593   9.175
57841SOL    HW275421  12.599  10.730   9.239
57842SOL     OW75422  11.413  12.024   1.496
57842SOL    HW175423  11.376  12.066   1.574
57842SOL    HW275424  11.438  11.937   1.526
57843SOL     OW75425  13.931   2.673   8.851
57843SOL    HW175426  13.981   2.663   8.770
57843SOL    HW275427  13.996   2.664   8.921
57844SOL     OW75428  14.852   1.552  12.438
57844SOL    HW175429  14.798   1.473  12.425
57844SOL    HW275430  14.834   1.579  12.528
57845SOL     OW75431  12.180   9.447  10.126
57845SOL    HW175432  12.145   9.489  10.047
57845SOL    HW275433  12.132   9.487  10.198
57846SOL     OW75434   5.649   0.455  10.787
57846SOL    HW175435   5.557   0.481  10.777
57846SOL    HW275436   5.683   0.514  10.854
57847SOL     OW75437  13.087   4.471   0.372
57847SOL    HW175438  13.055   4.405   0.311
57847SOL    HW275439  13.038   4.550   0.349
57848SOL     OW75440  11.994   7.384   3.831
57848SOL    HW175441  12.036   7.454   3.780
57848SOL    HW275442  11.951   7.430   3.904
57849SOL     OW75443   1.030   7.381   1.552
57849SOL    HW175444   1.089   7.331   1.608
57849SOL    HW275445   0.997   7.317   1.489
57850SOL     OW75446   2.061  12.429   2.688
57850SOL    HW175447   2.080  12.374   2.764
57850SOL    HW275448   2.059  12.368   2.615
57851SOL     OW75449   5.977   0.328   2.362
57851SOL    HW175450   5.915   0.305   2.431
57851SOL    HW275451   5.994   0.245   2.317
57852SOL     OW75452  11.819   3.238   3.363
57852SOL    HW175453  11.745   3.184   3.334
57852SOL    HW275454  11.781   3.300   3.425
57853SOL     OW75455   3.205   3.415   9.497
57853SOL    HW175456   3.116   3.384   9.511
57853SOL    HW275457   3.250   3.399   9.580
57854SOL     OW75458   3.598   0.654   8.934
57854SOL    HW175459   3.512   0.693   8.953
57854SOL    HW275460   3.652   0.728   8.907
57855SOL     OW75461   3.239  11.654   0.046
57855SOL    HW175462   3.320  11.679   0.091
57855SOL    HW275463   3.190  11.736   0.040
57856SOL     OW75464   9.031   8.897   4.235
57856SOL    HW175465   9.064   8.870   4.321
57856SOL    HW275466   8.962   8.961   4.255
57857SOL     OW75467   4.509   2.049   8.598
57857SOL    HW175468   4.435   2.087   8.646
57857SOL    HW275469   4.505   2.091   8.512
57858SOL     OW75470   7.362  11.619   0.320
57858SOL    HW175471   7.337  11.560   0.249
57858SOL    HW275472   7.454  11.640   0.303
57859SOL     OW75473   2.440   1.614   4.587
57859SOL    HW175474   2.396   1.626   4.671
57859SOL    HW275475   2.459   1.702   4.556
57860SOL     OW75476   2.528   8.221  13.935
57860SOL    HW175477   2.533   8.288  14.003
57860SOL    HW275478   2.501   8.269  13.856
57861SOL     OW75479  13.591   3.247   8.429
57861SOL    HW175480  13.532   3.311   8.470
57861SOL    HW275481  13.647   3.217   8.500
57862SOL     OW75482  11.786   2.128   0.060
57862SOL    HW175483  11.723   2.190   0.023
57862SOL    HW275484  11.827   2.087  14.861
57863SOL     OW75485  10.161  14.297   9.848
57863SOL    HW175486  10.182  14.384   9.815
57863SOL    HW275487  10.083  14.311   9.903
57864SOL     OW75488   7.621   1.942   0.114
57864SOL    HW175489   7.558   1.878   0.148
57864SOL    HW275490   7.700   1.928   0.165
57865SOL     OW75491   7.392  14.530   0.704
57865SOL    HW175492   7.434  14.543   0.619
57865SOL    HW275493   7.437  14.592   0.763
57866SOL     OW75494   5.584   7.072   5.786
57866SOL    HW175495   5.553   7.112   5.705
57866SOL    HW275496   5.660   7.021   5.761
57867SOL     OW75497   1.738   1.318   6.024
57867SOL    HW175498   1.643   1.321   6.039
57867SOL    HW275499   1.750   1.249   5.959
57868SOL     OW75500   5.743   8.206   1.280
57868SOL    HW175501   5.663   8.248   1.248
57868SOL    HW275502   5.765   8.142   1.212
57869SOL     OW75503   2.533  10.399   7.897
57869SOL    HW175504   2.586  10.462   7.848
57869SOL    HW275505   2.515  10.329   7.835
57870SOL     OW75506   0.720  12.138   6.052
57870SOL    HW175507   0.770  12.067   6.093
57870SOL    HW275508   0.634  12.133   6.093
57871SOL     OW75509   4.380  10.653  11.665
57871SOL    HW175510   4.387  10.710  11.741
57871SOL    HW275511   4.315  10.696  11.609
57872SOL     OW75512   0.493   3.635   5.619
57872SOL    HW175513   0.560   3.568   5.602
57872SOL    HW275514   0.542   3.717   5.624
57873SOL     OW75515   4.841  13.210   1.518
57873SOL    HW175516   4.754  13.247   1.530
57873SOL    HW275517   4.853  13.205   1.423
57874SOL     OW75518   7.666   6.744   3.306
57874SOL    HW175519   7.582   6.700   3.292
57874SOL    HW275520   7.711   6.691   3.371
57875SOL     OW75521  11.212   6.990   4.928
57875SOL    HW175522  11.140   7.016   4.986
57875SOL    HW275523  11.269   7.067   4.925
57876SOL     OW75524   7.164   0.859   2.258
57876SOL    HW175525   7.161   0.939   2.310
57876SOL    HW275526   7.250   0.821   2.277
57877SOL     OW75527   2.303   9.948  10.937
57877SOL    HW175528   2.257   9.864  10.941
57877SOL    HW275529   2.385   9.928  10.891
57878SOL     OW75530   5.670  12.129   0.405
57878SOL    HW175531   5.622  12.053   0.371
57878SOL    HW275532   5.761  12.113   0.379
57879SOL     OW75533   3.386   2.634  12.945
57879SOL    HW175534   3.339   2.658  13.025
57879SOL    HW275535   3.327   2.572  12.901
57880SOL     OW75536   6.641   5.343   2.115
57880SOL    HW175537   6.682   5.363   2.200
57880SOL    HW275538   6.548   5.333   2.136
57881SOL     OW75539   3.786  10.815   2.005
57881SOL    HW175540   3.762  10.794   2.096
57881SOL    HW275541   3.769  10.735   1.957
57882SOL     OW75542  12.389   6.554   1.934
57882SOL    HW175543  12.363   6.517   1.850
57882SOL    HW275544  12.484   6.553   1.933
57883SOL     OW75545   8.406   3.734   5.198
57883SOL    HW175546   8.330   3.785   5.226
57883SOL    HW275547   8.466   3.799   5.161
57884SOL     OW75548  12.403  11.641   7.632
57884SOL    HW175549  12.417  11.720   7.685
57884SOL    HW275550  12.492  11.608   7.614
57885SOL     OW75551   5.031   0.017   6.467
57885SOL    HW175552   5.001   0.100   6.504
57885SOL    HW275553   5.038  14.835   6.542
57886SOL     OW75554  10.530  14.807  10.741
57886SOL    HW175555  10.495   0.008  10.700
57886SOL    HW275556  10.560  14.753  10.667
57887SOL     OW75557   2.969   6.082   1.286
57887SOL    HW175558   3.026   6.136   1.342
57887SOL    HW275559   3.028   6.046   1.220
57888SOL     OW75560   5.121   1.806   7.523
57888SOL    HW175561   5.210   1.836   7.542
57888SOL    HW275562   5.113   1.811   7.428
57889SOL     OW75563   0.450  11.817  10.873
57889SOL    HW175564   0.483  11.733  10.903
57889SOL    HW275565   0.468  11.817  10.779
57890SOL     OW75566   2.456   2.186  13.536
57890SOL    HW175567   2.482   2.187  13.628
57890SOL    HW275568   2.537   2.207  13.488
57891SOL     OW75569   5.700   3.220   7.005
57891SOL    HW175570   5.674   3.243   6.916
57891SOL    HW275571   5.786   3.178   6.994
57892SOL     OW75572   6.715  13.021   8.038
57892SOL    HW175573   6.734  13.113   8.052
57892SOL    HW275574   6.630  13.019   7.995
57893SOL     OW75575   6.605   0.466   3.993
57893SOL    HW175576   6.619   0.553   3.957
57893SOL    HW275577   6.685   0.448   4.043
57894SOL     OW75578  12.234   0.967   2.827
57894SOL    HW175579  12.299   0.923   2.882
57894SOL    HW275580  12.192   1.030   2.885
57895SOL     OW75581   2.201   8.159   6.757
57895SOL    HW175582   2.131   8.116   6.806
57895SOL    HW275583   2.282   8.130   6.800
57896SOL     OW75584   5.758   4.205  10.231
57896SOL    HW175585   5.672   4.171  10.205
57896SOL    HW275586   5.810   4.202  10.151
57897SOL     OW75587   9.333   2.259   5.555
57897SOL    HW175588   9.258   2.318   5.544
57897SOL    HW275589   9.389   2.302   5.619
57898SOL     OW75590   9.907  11.653   5.397
57898SOL    HW175591   9.867  11.572   5.429
57898SOL    HW275592   9.837  11.698   5.350
57899SOL     OW75593  11.522   0.873  11.683
57899SOL    HW175594  11.509   0.930  11.759
57899SOL    HW275595  11.513   0.784  11.719
57900SOL     OW75596   5.200   0.723  12.171
57900SOL    HW175597   5.281   0.674  12.161
57900SOL    HW275598   5.132   0.668  12.131
57901SOL     OW75599  10.277   8.656  10.428
57901SOL    HW175600  10.193   8.652  10.383
57901SOL    HW275601  10.256   8.686  10.516
57902SOL     OW75602   0.225  13.835   9.182
57902SOL    HW175603   0.281  13.780   9.128
57902SOL    HW275604   0.154  13.778   9.209
57903SOL     OW75605   0.695   5.418   8.575
57903SOL    HW175606   0.615   5.373   8.602
57903SOL    HW275607   0.665   5.503   8.542
57904SOL     OW75608   8.053   7.917   9.227
57904SOL    HW175609   8.068   8.002   9.186
57904SOL    HW275610   7.967   7.925   9.269
57905SOL     OW75611  12.696  12.177  12.314
57905SOL    HW175612  12.653  12.093  12.329
57905SOL    HW275613  12.699  12.218  12.400
57906SOL     OW75614   3.202   4.373   5.977
57906SOL    HW175615   3.126   4.323   6.005
57906SOL    HW275616   3.276   4.315   5.993
57907SOL     OW75617   3.384  11.233   6.975
57907SOL    HW175618   3.369  11.199   7.064
57907SOL    HW275619   3.298  11.264   6.947
57908SOL     OW75620  12.984   2.897   2.021
57908SOL    HW175621  13.065   2.881   1.973
57908SOL    HW275622  12.978   2.992   2.027
57909SOL     OW75623   1.441  10.249   3.630
57909SOL    HW175624   1.432  10.339   3.662
57909SOL    HW275625   1.499  10.207   3.694
57910SOL     OW75626  13.394   5.179  10.272
57910SOL    HW175627  13.404   5.274  10.286
57910SOL    HW275628  13.305   5.169  10.238
57911SOL     OW75629   0.880  12.884   2.639
57911SOL    HW175630   0.947  12.832   2.593
57911SOL    HW275631   0.818  12.907   2.570
57912SOL     OW75632  14.254   3.673   2.445
57912SOL    HW175633  14.290   3.755   2.479
57912SOL    HW275634  14.331   3.622   2.420
57913SOL     OW75635   1.034   4.370   4.622
57913SOL    HW175636   1.097   4.384   4.693
57913SOL    HW275637   1.069   4.295   4.574
57914SOL     OW75638   4.566  10.568  10.379
57914SOL    HW175639   4.630  10.619  10.429
57914SOL    HW275640   4.609  10.551  10.295
57915SOL     OW75641  11.955   6.509   9.934
57915SOL    HW175642  11.897   6.554   9.995
57915SOL    HW275643  11.915   6.423   9.920
57916SOL     OW75644   3.085   2.212  11.249
57916SOL    HW175645   3.028   2.188  11.176
57916SOL    HW275646   3.079   2.307  11.255
57917SOL     OW75647  14.629  12.841   8.333
57917SOL    HW175648  14.723  12.860   8.339
57917SOL    HW275649  14.613  12.779   8.404
57918SOL     OW75650   2.914  12.954   4.885
57918SOL    HW175651   2.902  13.036   4.837
57918SOL    HW275652   2.839  12.948   4.944
57919SOL     OW75653   1.672  13.540   0.316
57919SOL    HW175654   1.600  13.584   0.271
57919SOL    HW275655   1.650  13.547   0.409
57920SOL     OW75656  13.069   7.225   1.801
57920SOL    HW175657  13.138   7.160   1.813
57920SOL    HW275658  12.988   7.174   1.803
57921SOL     OW75659   1.054   0.306  13.280
57921SOL    HW175660   1.112   0.246  13.235
57921SOL    HW275661   0.967   0.286  13.245
57922SOL     OW75662   0.268  13.677   1.411
57922SOL    HW175663   0.254  13.694   1.505
57922SOL    HW275664   0.277  13.582   1.405
57923SOL     OW75665   2.461   8.807  13.277
57923SOL    HW175666   2.407   8.885  13.263
57923SOL    HW275667   2.522   8.807  13.203
57924SOL     OW75668  11.685   3.406   4.112
57924SOL    HW175669  11.678   3.468   4.184
57924SOL    HW275670  11.598   3.407   4.072
57925SOL     OW75671   6.112   2.128   5.723
57925SOL    HW175672   6.191   2.082   5.753
57925SOL    HW275673   6.145   2.214   5.694
57926SOL     OW75674   4.885   0.594   2.322
57926SOL    HW175675   4.942   0.669   2.301
57926SOL    HW275676   4.800   0.617   2.285
57927SOL     OW75677  13.780  11.191   8.744
57927SOL    HW175678  13.853  11.207   8.803
57927SOL    HW275679  13.789  11.099   8.720
57928SOL     OW75680  11.598   4.114  14.068
57928SOL    HW175681  11.553   4.136  14.150
57928SOL    HW275682  11.658   4.044  14.091
57929SOL     OW75683   3.869   9.247   8.550
57929SOL    HW175684   3.841   9.216   8.465
57929SOL    HW275685   3.793   9.292   8.587
57930SOL     OW75686   1.832   2.045  13.819
57930SOL    HW175687   1.910   2.100  13.816
57930SOL    HW275688   1.783   2.068  13.740
57931SOL     OW75689   7.394   2.971   7.306
57931SOL    HW175690   7.322   3.031   7.326
57931SOL    HW275691   7.466   3.000   7.361
57932SOL     OW75692  12.433   9.356  10.991
57932SOL    HW175693  12.513   9.309  11.017
57932SOL    HW275694  12.463   9.421  10.928
57933SOL     OW75695  10.902  13.145  13.389
57933SOL    HW175696  10.949  13.089  13.451
57933SOL    HW275697  10.862  13.213  13.444
57934SOL     OW75698  11.512  11.604  12.425
57934SOL    HW175699  11.593  11.559  12.400
57934SOL    HW275700  11.506  11.591  12.520
57935SOL     OW75701   1.899   5.275   6.311
57935SOL    HW175702   1.837   5.315   6.250
57935SOL    HW275703   1.855   5.280   6.396
57936SOL     OW75704  11.043  11.805   1.115
57936SOL    HW175705  11.048  11.737   1.048
57936SOL    HW275706  11.099  11.876   1.082
57937SOL     OW75707   4.332   8.492   7.813
57937SOL    HW175708   4.335   8.421   7.877
57937SOL    HW275709   4.250   8.539   7.834
57938SOL     OW75710  11.010   5.838   0.767
57938SOL    HW175711  11.025   5.883   0.850
57938SOL    HW275712  11.097   5.810   0.738
57939SOL     OW75713   9.706   7.962  12.036
57939SOL    HW175714   9.624   7.997  12.000
57939SOL    HW275715   9.711   8.000  12.124
57940SOL     OW75716   1.079  10.141   0.497
57940SOL    HW175717   1.049  10.231   0.506
57940SOL    HW275718   1.063  10.102   0.583
57941SOL     OW75719   2.838  14.796   0.329
57941SOL    HW175720   2.747  14.778   0.307
57941SOL    HW275721   2.888  14.728   0.284
57942SOL     OW75722  12.310  11.205  10.939
57942SOL    HW175723  12.341  11.127  10.893
57942SOL    HW275724  12.215  11.206  10.924
57943SOL     OW75725   3.365  14.451   8.920
57943SOL    HW175726   3.446  14.445   8.970
57943SOL    HW275727   3.347  14.545   8.915
57944SOL     OW75728  14.561   6.862  10.254
57944SOL    HW175729  14.615   6.941  10.249
57944SOL    HW275730  14.485   6.886  10.307
57945SOL     OW75731   8.060   3.688   3.259
57945SOL    HW175732   8.065   3.593   3.259
57945SOL    HW275733   8.134   3.717   3.313
57946SOL     OW75734   5.305  12.082   8.137
57946SOL    HW175735   5.243  12.010   8.150
57946SOL    HW275736   5.258  12.159   8.171
57947SOL     OW75737   6.223   3.343   6.816
57947SOL    HW175738   6.132   3.343   6.785
57947SOL    HW275739   6.243   3.436   6.829
57948SOL     OW75740   3.901   4.026  11.780
57948SOL    HW175741   3.938   4.061  11.699
57948SOL    HW275742   3.837   4.092  11.808
57949SOL     OW75743  10.738  10.644   7.738
57949SOL    HW175744  10.739  10.729   7.782
57949SOL    HW275745  10.762  10.665   7.647
57950SOL     OW75746   2.052   8.154   3.031
57950SOL    HW175747   2.061   8.166   3.125
57950SOL    HW275748   2.027   8.240   2.997
57951SOL     OW75749   2.014   6.129   5.186
57951SOL    HW175750   2.014   6.054   5.246
57951SOL    HW275751   1.925   6.132   5.152
57952SOL     OW75752   4.869   1.421   4.290
57952SOL    HW175753   4.958   1.422   4.325
57952SOL    HW275754   4.840   1.512   4.295
57953SOL     OW75755   4.549   7.707   0.312
57953SOL    HW175756   4.520   7.616   0.320
57953SOL    HW275757   4.645   7.702   0.314
57954SOL     OW75758   4.678  13.615   2.647
57954SOL    HW175759   4.666  13.697   2.600
57954SOL    HW275760   4.697  13.551   2.578
57955SOL     OW75761  10.164  10.213  11.203
57955SOL    HW175762  10.167  10.168  11.119
57955SOL    HW275763  10.078  10.254  11.205
57956SOL     OW75764  11.364  14.755   0.827
57956SOL    HW175765  11.370  14.690   0.897
57956SOL    HW275766  11.391  14.707   0.748
57957SOL     OW75767  13.401   7.924   5.799
57957SOL    HW175768  13.384   7.948   5.890
57957SOL    HW275769  13.436   7.835   5.804
57958SOL     OW75770  11.652  10.606   8.812
57958SOL    HW175771  11.689  10.682   8.857
57958SOL    HW275772  11.558  10.609   8.833
57959SOL     OW75773  11.800  12.479   6.180
57959SOL    HW175774  11.740  12.494   6.107
57959SOL    HW275775  11.746  12.492   6.258
57960SOL     OW75776   5.320   7.175   9.593
57960SOL    HW175777   5.379   7.243   9.626
57960SOL    HW275778   5.378   7.103   9.567
57961SOL     OW75779  13.367   6.504   0.408
57961SOL    HW175780  13.417   6.487   0.488
57961SOL    HW275781  13.305   6.572   0.433
57962SOL     OW75782   8.632  12.485   3.892
57962SOL    HW175783   8.647  12.490   3.797
57962SOL    HW275784   8.714  12.516   3.931
57963SOL     OW75785   6.888  12.138   9.073
57963SOL    HW175786   6.862  12.194   9.147
57963SOL    HW275787   6.822  12.154   9.006
57964SOL     OW75788  14.343  11.630   6.426
57964SOL    HW175789  14.294  11.663   6.502
57964SOL    HW275790  14.305  11.676   6.351
57965SOL     OW75791  14.354   8.690   6.259
57965SOL    HW175792  14.421   8.650   6.205
57965SOL    HW275793  14.280   8.629   6.254
57966SOL     OW75794  12.304  13.061   9.366
57966SOL    HW175795  12.263  13.144   9.341
57966SOL    HW275796  12.396  13.072   9.342
57967SOL     OW75797   7.889  10.866  13.060
57967SOL    HW175798   7.891  10.830  12.971
57967SOL    HW275799   7.973  10.912  13.069
57968SOL     OW75800  11.025  13.152   5.867
57968SOL    HW175801  10.941  13.107   5.853
57968SOL    HW275802  11.001  13.245   5.873
57969SOL     OW75803  12.728   6.455  12.230
57969SOL    HW175804  12.732   6.361  12.248
57969SOL    HW275805  12.636   6.473  12.213
57970SOL     OW75806  12.810   8.069   6.300
57970SOL    HW175807  12.766   7.991   6.266
57970SOL    HW275808  12.861   8.102   6.226
57971SOL     OW75809   0.957  12.438   2.213
57971SOL    HW175810   0.889  12.415   2.276
57971SOL    HW275811   0.992  12.353   2.184
57972SOL     OW75812   2.130   4.910   1.415
57972SOL    HW175813   2.132   4.815   1.427
57972SOL    HW275814   2.088   4.944   1.495
57973SOL     OW75815   3.862   9.927   0.435
57973SOL    HW175816   3.792   9.906   0.373
57973SOL    HW275817   3.940   9.934   0.380
57974SOL     OW75818   4.942  12.837   4.885
57974SOL    HW175819   4.873  12.778   4.916
57974SOL    HW275820   5.023  12.789   4.900
57975SOL     OW75821   4.558   9.512   9.356
57975SOL    HW175822   4.653   9.520   9.364
57975SOL    HW275823   4.546   9.447   9.286
57976SOL     OW75824   1.695   0.112   6.418
57976SOL    HW175825   1.708   0.189   6.472
57976SOL    HW275826   1.603   0.117   6.391
57977SOL     OW75827   0.394  14.824  11.872
57977SOL    HW175828   0.425  14.871  11.795
57977SOL    HW275829   0.321  14.877  11.905
57978SOL     OW75830   7.022   0.465   3.042
57978SOL    HW175831   7.080   0.529   3.001
57978SOL    HW275832   6.940   0.513   3.056
57979SOL     OW75833  12.987   5.927  10.898
57979SOL    HW175834  13.002   5.938  10.804
57979SOL    HW275835  12.931   5.850  10.905
57980SOL     OW75836   2.077   6.877   4.037
57980SOL    HW175837   2.149   6.841   4.089
57980SOL    HW275838   2.027   6.930   4.099
57981SOL     OW75839   9.633   5.234  11.290
57981SOL    HW175840   9.577   5.303  11.326
57981SOL    HW275841   9.573   5.160  11.276
57982SOL     OW75842   7.884   8.058   5.809
57982SOL    HW175843   7.979   8.050   5.799
57982SOL    HW275844   7.857   8.116   5.737
57983SOL     OW75845   7.205   9.336  12.348
57983SOL    HW175846   7.155   9.313  12.270
57983SOL    HW275847   7.150   9.398  12.395
57984SOL     OW75848   9.839   5.356  12.627
57984SOL    HW175849   9.823   5.331  12.718
57984SOL    HW275850   9.842   5.273  12.580
57985SOL     OW75851   4.047   4.079  13.312
57985SOL    HW175852   4.061   4.161  13.360
57985SOL    HW275853   3.973   4.097  13.254
57986SOL     OW75854   2.840  12.745   3.929
57986SOL    HW175855   2.847  12.801   4.006
57986SOL    HW275856   2.807  12.662   3.963
57987SOL     OW75857   0.088   5.050   9.242
57987SOL    HW175858   0.051   5.088   9.322
57987SOL    HW275859   0.136   5.123   9.201
57988SOL     OW75860  13.168   9.929   1.205
57988SOL    HW175861  13.221   9.850   1.218
57988SOL    HW275862  13.082   9.906   1.242
57989SOL     OW75863   3.649  13.229  12.866
57989SOL    HW175864   3.568  13.279  12.856
57989SOL    HW275865   3.635  13.150  12.814
57990SOL     OW75866   1.004   1.708  12.785
57990SOL    HW175867   0.954   1.644  12.734
57990SOL    HW275868   1.070   1.655  12.830
57991SOL     OW75869  10.358   8.941   1.008
57991SOL    HW175870  10.401   8.874   0.954
57991SOL    HW275871  10.315   8.892   1.078
57992SOL     OW75872   1.317  11.688   1.119
57992SOL    HW175873   1.341  11.602   1.086
57992SOL    HW275874   1.222  11.683   1.132
57993SOL     OW75875   5.754   9.903   5.799
57993SOL    HW175876   5.700   9.975   5.833
57993SOL    HW275877   5.843   9.926   5.825
57994SOL     OW75878   6.503  13.663   4.019
57994SOL    HW175879   6.561  13.709   4.080
57994SOL    HW275880   6.562  13.628   3.952
57995SOL     OW75881  13.516   8.975   1.375
57995SOL    HW175882  13.579   9.002   1.442
57995SOL    HW275883  13.438   9.027   1.392
57996SOL     OW75884   3.389  14.139   3.597
57996SOL    HW175885   3.425  14.203   3.660
57996SOL    HW275886   3.429  14.164   3.514
57997SOL     OW75887  10.474   3.673   5.613
57997SOL    HW175888  10.522   3.599   5.575
57997SOL    HW275889  10.453   3.729   5.538
57998SOL     OW75890  10.455   2.391   9.549
57998SOL    HW175891  10.364   2.361   9.553
57998SOL    HW275892  10.481   2.376   9.458
57999SOL     OW75893   7.461  14.446   3.610
57999SOL    HW175894   7.395  14.497   3.658
57999SOL    HW275895   7.478  14.497   3.531
58000SOL     OW75896   6.146  10.751  14.673
58000SOL    HW175897   6.172  10.843  14.664
58000SOL    HW275898   6.226  10.707  14.701
58001SOL     OW75899   7.235   1.512   1.158
58001SOL    HW175900   7.170   1.485   1.223
58001SOL    HW275901   7.256   1.603   1.182
58002SOL     OW75902   3.738   4.786  14.668
58002SOL    HW175903   3.720   4.782  14.762
58002SOL    HW275904   3.833   4.787  14.662
58003SOL     OW75905  13.673   7.354   2.781
58003SOL    HW175906  13.667   7.258   2.779
58003SOL    HW275907  13.639   7.378   2.867
58004SOL     OW75908   3.823   1.234   6.075
58004SOL    HW175909   3.758   1.203   6.013
58004SOL    HW275910   3.905   1.235   6.025
58005SOL     OW75911   7.807   1.321   4.780
58005SOL    HW175912   7.880   1.295   4.723
58005SOL    HW275913   7.842   1.312   4.869
58006SOL     OW75914   5.223  12.992   2.426
58006SOL    HW175915   5.190  12.917   2.376
58006SOL    HW275916   5.205  13.067   2.370
58007SOL     OW75917   5.744   8.052  11.535
58007SOL    HW175918   5.744   8.060  11.631
58007SOL    HW275919   5.834   8.030  11.513
58008SOL     OW75920  11.585   8.279   9.904
58008SOL    HW175921  11.674   8.246   9.916
58008SOL    HW275922  11.530   8.201   9.909
58009SOL     OW75923  10.608  10.317   9.365
58009SOL    HW175924  10.664  10.243   9.343
58009SOL    HW275925  10.669  10.390   9.379
58010SOL     OW75926   3.833  13.230  12.276
58010SOL    HW175927   3.900  13.179  12.228
58010SOL    HW275928   3.848  13.320  12.248
58011SOL     OW75929  11.731   6.130   4.588
58011SOL    HW175930  11.644   6.170   4.591
58011SOL    HW275931  11.786   6.195   4.544
58012SOL     OW75932  10.821   3.397   5.897
58012SOL    HW175933  10.869   3.417   5.816
58012SOL    HW275934  10.774   3.478   5.917
58013SOL     OW75935   9.372  13.239   3.403
58013SOL    HW175936   9.433  13.184   3.354
58013SOL    HW275937   9.293  13.186   3.411
58014SOL     OW75938  11.832   8.223   9.277
58014SOL    HW175939  11.744   8.187   9.275
58014SOL    HW275940  11.851   8.236   9.370
58015SOL     OW75941   9.142  14.139   2.959
58015SOL    HW175942   9.122  14.058   2.912
58015SOL    HW275943   9.058  14.185   2.963
58016SOL     OW75944   4.090   2.967   5.360
58016SOL    HW175945   4.179   2.930   5.366
58016SOL    HW275946   4.096   3.051   5.405
58017SOL     OW75947   2.880  10.605  12.815
58017SOL    HW175948   2.798  10.571  12.851
58017SOL    HW275949   2.905  10.675  12.876
58018SOL     OW75950   2.555   0.983  13.465
58018SOL    HW175951   2.531   0.958  13.376
58018SOL    HW275952   2.617   0.915  13.493
58019SOL     OW75953  11.085   9.089   3.944
58019SOL    HW175954  11.046   9.009   3.978
58019SOL    HW275955  11.014   9.154   3.945
58020SOL     OW75956   4.368   8.742   2.323
58020SOL    HW175957   4.319   8.758   2.242
58020SOL    HW275958   4.404   8.654   2.312
58021SOL     OW75959   4.126   0.470   5.779
58021SOL    HW175960   4.066   0.527   5.731
58021SOL    HW275961   4.071   0.399   5.811
58022SOL     OW75962   5.102   2.129   6.993
58022SOL    HW175963   5.118   2.107   6.902
58022SOL    HW275964   5.189   2.140   7.032
58023SOL     OW75965   0.913  10.883  13.447
58023SOL    HW175966   0.885  10.924  13.365
58023SOL    HW275967   0.951  10.955  13.497
58024SOL     OW75968   0.924   9.382  10.906
58024SOL    HW175969   0.887   9.464  10.939
58024SOL    HW275970   0.983   9.410  10.835
58025SOL     OW75971   8.936   2.211   8.558
58025SOL    HW175972   9.014   2.267   8.554
58025SOL    HW275973   8.874   2.261   8.612
58026SOL     OW75974  11.636   0.996   0.240
58026SOL    HW175975  11.653   1.029   0.152
58026SOL    HW275976  11.573   0.925   0.228
58027SOL     OW75977  13.211   4.899   3.866
58027SOL    HW175978  13.161   4.823   3.838
58027SOL    HW275979  13.249   4.933   3.784
58028SOL     OW75980  13.302   6.991   4.598
58028SOL    HW175981  13.314   6.994   4.503
58028SOL    HW275982  13.311   6.898   4.620
58029SOL     OW75983   9.038   5.305  11.242
58029SOL    HW175984   9.037   5.353  11.159
58029SOL    HW275985   8.970   5.238  11.232
58030SOL     OW75986   6.773   3.018   5.432
58030SOL    HW175987   6.709   3.073   5.477
58030SOL    HW275988   6.814   3.076   5.368
58031SOL     OW75989   2.910   7.546  10.134
58031SOL    HW175990   2.839   7.516  10.076
58031SOL    HW275991   2.985   7.491  10.110
58032SOL     OW75992   2.864   4.415  13.566
58032SOL    HW175993   2.915   4.335  13.584
58032SOL    HW275994   2.859   4.419  13.471
58033SOL     OW75995   1.817   4.477  11.234
58033SOL    HW175996   1.904   4.480  11.274
58033SOL    HW275997   1.833   4.475  11.139
58034SOL     OW75998  14.657  13.750   7.552
58034SOL    HW175999  14.590  13.682   7.558
58034SOL    HW276000  14.730  13.716   7.605
58035SOL     OW76001   4.084   6.941  14.739
58035SOL    HW176002   4.052   6.921  14.651
58035SOL    HW276003   4.006   6.959  14.790
58036SOL     OW76004   6.445   2.975  11.858
58036SOL    HW176005   6.464   3.052  11.804
58036SOL    HW276006   6.351   2.961  11.846
58037SOL     OW76007  10.001   0.004   3.765
58037SOL    HW176008   9.953  14.810   3.724
58037SOL    HW276009  10.068  14.838   3.818
58038SOL     OW76010   1.979  11.546  14.389
58038SOL    HW176011   2.044  11.533  14.458
58038SOL    HW276012   1.910  11.482  14.408
58039SOL     OW76013   4.594  10.914   7.081
58039SOL    HW176014   4.606  10.896   7.174
58039SOL    HW276015   4.516  10.969   7.077
58040SOL     OW76016   0.795  14.007   9.091
58040SOL    HW176017   0.787  14.055   9.009
58040SOL    HW276018   0.832  14.070   9.152
58041SOL     OW76019  11.497  10.231   0.334
58041SOL    HW176020  11.497  10.145   0.376
58041SOL    HW276021  11.422  10.229   0.275
58042SOL     OW76022  14.777  12.784   3.760
58042SOL    HW176023  14.846  12.845   3.735
58042SOL    HW276024  14.707  12.800   3.697
58043SOL     OW76025  10.651   4.525   6.846
58043SOL    HW176026  10.581   4.465   6.820
58043SOL    HW276027  10.676   4.496   6.934
58044SOL     OW76028   1.061  14.365   4.304
58044SOL    HW176029   1.134  14.322   4.348
58044SOL    HW276030   1.008  14.293   4.269
58045SOL     OW76031   2.629   6.341   9.366
58045SOL    HW176032   2.720   6.316   9.381
58045SOL    HW276033   2.599   6.374   9.450
58046SOL     OW76034   5.039   8.150  13.004
58046SOL    HW176035   5.009   8.222  13.060
58046SOL    HW276036   5.028   8.071  13.057
58047SOL     OW76037   6.238   8.876   6.656
58047SOL    HW176038   6.235   8.884   6.560
58047SOL    HW276039   6.304   8.940   6.683
58048SOL     OW76040   4.463  14.243  12.058
58048SOL    HW176041   4.516  14.164  12.068
58048SOL    HW276042   4.398  14.237  12.129
58049SOL     OW76043   7.208   3.217  10.919
58049SOL    HW176044   7.231   3.209  10.827
58049SOL    HW276045   7.146   3.146  10.934
58050SOL     OW76046   9.722   9.332  12.040
58050SOL    HW176047   9.680   9.271  11.980
58050SOL    HW276048   9.814   9.334  12.011
58051SOL     OW76049   2.751   8.375   3.768
58051SOL    HW176050   2.672   8.412   3.809
58051SOL    HW276051   2.823   8.413   3.819
58052SOL     OW76052  14.026   9.208   4.322
58052SOL    HW176053  14.066   9.126   4.350
58052SOL    HW276054  14.083   9.276   4.359
58053SOL     OW76055   3.385   4.862   6.610
58053SOL    HW176056   3.300   4.843   6.570
58053SOL    HW276057   3.409   4.948   6.577
58054SOL     OW76058   6.488   3.808  14.294
58054SOL    HW176059   6.431   3.880  14.265
58054SOL    HW276060   6.451   3.782  14.378
58055SOL     OW76061   5.296   1.609  10.006
58055SOL    HW176062   5.251   1.533  10.042
58055SOL    HW276063   5.384   1.578   9.986
58056SOL     OW76064  14.861  10.566  13.004
58056SOL    HW176065   0.033  10.599  12.928
58056SOL    HW276066  14.805  10.639  13.030
58057SOL     OW76067   1.661  13.170   0.090
58057SOL    HW176068   1.729  13.211   0.144
58057SOL    HW276069   1.628  13.242   0.036
58058SOL     OW76070   2.875  13.485  14.766
58058SOL    HW176071   2.884  13.429  14.688
58058SOL    HW276072   2.862  13.573  14.730
58059SOL     OW76073   0.698   0.944   1.050
58059SOL    HW176074   0.783   0.908   1.027
58059SOL    HW276075   0.682   0.913   1.139
58060SOL     OW76076   5.821  14.695  12.577
58060SOL    HW176077   5.754  14.753  12.614
58060SOL    HW276078   5.900  14.713  12.629
58061SOL     OW76079   4.290  11.500   4.067
58061SOL    HW176080   4.304  11.410   4.037
58061SOL    HW276081   4.329  11.502   4.154
58062SOL     OW76082   9.682   6.576   1.748
58062SOL    HW176083   9.738   6.548   1.821
58062SOL    HW276084   9.611   6.624   1.790
58063SOL     OW76085   8.806   3.441  14.469
58063SOL    HW176086   8.843   3.373  14.412
58063SOL    HW276087   8.874   3.508  14.474
58064SOL     OW76088   3.855   5.085  10.787
58064SOL    HW176089   3.893   5.096  10.874
58064SOL    HW276090   3.844   4.991  10.777
58065SOL     OW76091   1.088  12.935  10.584
58065SOL    HW176092   1.016  12.886  10.545
58065SOL    HW276093   1.137  12.870  10.635
58066SOL     OW76094   7.727  12.785  13.065
58066SOL    HW176095   7.785  12.710  13.081
58066SOL    HW276096   7.668  12.785  13.140
58067SOL     OW76097   7.180   0.591   9.865
58067SOL    HW176098   7.243   0.544   9.919
58067SOL    HW276099   7.168   0.535   9.788
58068SOL     OW76100  13.881   8.427   0.956
58068SOL    HW176101  13.932   8.479   1.019
58068SOL    HW276102  13.901   8.336   0.978
58069SOL     OW76103   7.433  12.639  13.301
58069SOL    HW176104   7.427  12.636  13.206
58069SOL    HW276105   7.467  12.553  13.327
58070SOL     OW76106  10.469   8.089   5.220
58070SOL    HW176107  10.536   8.098   5.288
58070SOL    HW276108  10.406   8.025   5.256
58071SOL     OW76109  10.900   7.817  10.380
58071SOL    HW176110  10.853   7.773  10.451
58071SOL    HW276111  10.833   7.871  10.337
58072SOL     OW76112  11.364   8.048   7.988
58072SOL    HW176113  11.390   8.134   8.023
58072SOL    HW276114  11.290   8.068   7.930
58073SOL     OW76115   8.740   7.207   0.623
58073SOL    HW176116   8.799   7.142   0.584
58073SOL    HW276117   8.795   7.283   0.640
58074SOL     OW76118  14.449  11.099  10.305
58074SOL    HW176119  14.440  11.026  10.366
58074SOL    HW276120  14.360  11.115  10.273
58075SOL     OW76121   7.893   4.207   5.730
58075SOL    HW176122   7.815   4.207   5.675
58075SOL    HW276123   7.882   4.282   5.788
58076SOL     OW76124  12.989   3.877  10.228
58076SOL    HW176125  12.919   3.921  10.275
58076SOL    HW276126  12.979   3.905  10.137
58077SOL     OW76127   7.022   7.880   8.530
58077SOL    HW176128   6.963   7.807   8.509
58077SOL    HW276129   7.105   7.837   8.550
58078SOL     OW76130  10.045  10.665   6.056
58078SOL    HW176131   9.961  10.623   6.038
58078SOL    HW276132  10.036  10.700   6.145
58079SOL     OW76133   3.827   6.973   5.543
58079SOL    HW176134   3.771   6.898   5.523
58079SOL    HW276135   3.912   6.935   5.566
58080SOL     OW76136   7.586   3.714   7.581
58080SOL    HW176137   7.660   3.775   7.585
58080SOL    HW276138   7.626   3.630   7.558
58081SOL     OW76139   6.860   5.051   1.011
58081SOL    HW176140   6.785   5.109   1.027
58081SOL    HW276141   6.823   4.977   0.963
58082SOL     OW76142   7.344  12.713   2.806
58082SOL    HW176143   7.329  12.700   2.713
58082SOL    HW276144   7.321  12.629   2.846
58083SOL     OW76145  11.595  10.591   7.065
58083SOL    HW176146  11.549  10.574   6.982
58083SOL    HW276147  11.526  10.597   7.130
58084SOL     OW76148   5.757   7.902   2.933
58084SOL    HW176149   5.665   7.922   2.917
58084SOL    HW276150   5.777   7.945   3.016
58085SOL     OW76151  11.944  13.024   7.798
58085SOL    HW176152  11.940  13.105   7.748
58085SOL    HW276153  12.035  12.994   7.789
58086SOL     OW76154  11.790   7.123   4.292
58086SOL    HW176155  11.812   7.207   4.333
58086SOL    HW276156  11.696   7.114   4.308
58087SOL     OW76157  13.673   1.528  14.471
58087SOL    HW176158  13.634   1.442  14.457
58087SOL    HW276159  13.606   1.590  14.442
58088SOL     OW76160  13.979   1.338   4.013
58088SOL    HW176161  13.939   1.407   4.065
58088SOL    HW276162  14.014   1.384   3.936
58089SOL     OW76163   1.524   7.315  10.599
58089SOL    HW176164   1.595   7.371  10.633
58089SOL    HW276165   1.543   7.307  10.506
58090SOL     OW76166   5.364   8.474   5.264
58090SOL    HW176167   5.384   8.471   5.358
58090SOL    HW276168   5.394   8.390   5.230
58091SOL     OW76169  10.221   5.519   2.619
58091SOL    HW176170  10.265   5.438   2.645
58091SOL    HW276171  10.243   5.581   2.688
58092SOL     OW76172   4.186   3.343   6.355
58092SOL    HW176173   4.107   3.388   6.385
58092SOL    HW276174   4.178   3.255   6.390
58093SOL     OW76175   1.688   0.327  12.969
58093SOL    HW176176   1.641   0.340  13.051
58093SOL    HW276177   1.626   0.355  12.901
58094SOL     OW76178  12.942   3.649   5.709
58094SOL    HW176179  12.860   3.626   5.754
58094SOL    HW276180  12.938   3.603   5.626
58095SOL     OW76181   0.605   5.447   6.913
58095SOL    HW176182   0.592   5.382   6.844
58095SOL    HW276183   0.516   5.470   6.941
58096SOL     OW76184   2.338  11.602   5.408
58096SOL    HW176185   2.297  11.618   5.322
58096SOL    HW276186   2.366  11.511   5.405
58097SOL     OW76187   4.869   1.410   1.891
58097SOL    HW176188   4.953   1.429   1.932
58097SOL    HW276189   4.845   1.491   1.846
58098SOL     OW76190  13.947   9.530   3.515
58098SOL    HW176191  13.950   9.565   3.604
58098SOL    HW276192  13.854   9.519   3.496
58099SOL     OW76193   6.810   3.644  12.383
58099SOL    HW176194   6.743   3.700  12.423
58099SOL    HW276195   6.850   3.698  12.316
58100SOL     OW76196  14.709   3.619   1.578
58100SOL    HW176197  14.633   3.614   1.520
58100SOL    HW276198  14.673   3.643   1.664
58101SOL     OW76199   0.035   8.869   6.008
58101SOL    HW176200   0.066   8.792   6.055
58101SOL    HW276201   0.064   8.856   5.918
58102SOL     OW76202  14.423   9.800   4.578
58102SOL    HW176203  14.480   9.873   4.602
58102SOL    HW276204  14.463   9.764   4.499
58103SOL     OW76205   0.861   8.363  13.675
58103SOL    HW176206   0.881   8.430  13.609
58103SOL    HW276207   0.910   8.391  13.753
58104SOL     OW76208  11.216   8.394   6.452
58104SOL    HW176209  11.168   8.320   6.413
58104SOL    HW276210  11.166   8.471   6.426
58105SOL     OW76211   8.614   9.506   8.644
58105SOL    HW176212   8.639   9.598   8.659
58105SOL    HW276213   8.696   9.464   8.619
58106SOL     OW76214   8.847   8.094   9.347
58106SOL    HW176215   8.862   8.126   9.436
58106SOL    HW276216   8.932   8.057   9.321
58107SOL     OW76217  14.102   1.034   2.296
58107SOL    HW176218  14.058   0.962   2.251
58107SOL    HW276219  14.120   1.098   2.227
58108SOL     OW76220  14.560   3.448  11.236
58108SOL    HW176221  14.650   3.471  11.215
58108SOL    HW276222  14.536   3.381  11.172
58109SOL     OW76223   3.485   3.580   5.000
58109SOL    HW176224   3.546   3.651   5.017
58109SOL    HW276225   3.416   3.619   4.947
58110SOL     OW76226  10.104   2.291  10.009
58110SOL    HW176227  10.035   2.245  10.056
58110SOL    HW276228  10.156   2.222   9.967
58111SOL     OW76229   0.495  14.317   6.470
58111SOL    HW176230   0.547  14.238   6.460
58111SOL    HW276231   0.404  14.287   6.469
58112SOL     OW76232   5.061   8.266   9.973
58112SOL    HW176233   5.064   8.244  10.066
58112SOL    HW276234   4.971   8.248   9.946
58113SOL     OW76235  11.081   9.508  10.321
58113SOL    HW176236  11.119   9.591  10.293
58113SOL    HW276237  10.988   9.527  10.335
58114SOL     OW76238  11.124   6.302   0.346
58114SOL    HW176239  11.075   6.335   0.421
58114SOL    HW276240  11.099   6.360   0.274
58115SOL     OW76241   8.166   8.476   6.411
58115SOL    HW176242   8.236   8.527   6.371
58115SOL    HW276243   8.129   8.425   6.339
58116SOL     OW76244   2.470   7.542  10.614
58116SOL    HW176245   2.541   7.591  10.655
58116SOL    HW276246   2.418   7.509  10.687
58117SOL     OW76247   4.430  12.633   0.207
58117SOL    HW176248   4.522  12.636   0.233
58117SOL    HW276249   4.426  12.569   0.136
58118SOL     OW76250   5.743   2.923  11.933
58118SOL    HW176251   5.824   2.945  11.979
58118SOL    HW276252   5.675   2.930  11.999
58119SOL     OW76253  12.726   5.312   1.434
58119SOL    HW176254  12.821   5.311   1.447
58119SOL    HW276255  12.702   5.220   1.421
58120SOL     OW76256   5.970   3.342  13.979
58120SOL    HW176257   5.918   3.298  13.912
58120SOL    HW276258   6.041   3.281  13.999
58121SOL     OW76259  13.881  10.074  12.888
58121SOL    HW176260  13.943  10.002  12.901
58121SOL    HW276261  13.935  10.153  12.884
58122SOL     OW76262  14.464  12.698  13.548
58122SOL    HW176263  14.374  12.668  13.566
58122SOL    HW276264  14.471  12.697  13.453
58123SOL     OW76265   9.045   2.045  11.253
58123SOL    HW176266   9.003   2.117  11.301
58123SOL    HW276267   8.977   1.978  11.246
58124SOL     OW76268   3.298   0.278   9.984
58124SOL    HW176269   3.337   0.342  10.043
58124SOL    HW276270   3.293   0.198  10.035
58125SOL     OW76271  14.398   1.197  14.647
58125SOL    HW176272  14.326   1.175  14.706
58125SOL    HW276273  14.432   1.113  14.618
58126SOL     OW76274   8.465  11.161   6.384
58126SOL    HW176275   8.402  11.111   6.435
58126SOL    HW276276   8.508  11.096   6.328
58127SOL     OW76277   7.459   5.905   0.679
58127SOL    HW176278   7.418   5.860   0.753
58127SOL    HW276279   7.416   5.869   0.601
58128SOL     OW76280   7.337   7.822   9.456
58128SOL    HW176281   7.249   7.785   9.462
58128SOL    HW276282   7.380   7.771   9.387
58129SOL     OW76283   9.225   4.853   9.146
58129SOL    HW176284   9.176   4.773   9.163
58129SOL    HW276285   9.252   4.883   9.233
58130SOL     OW76286  14.282  11.752   5.679
58130SOL    HW176287  14.221  11.738   5.751
58130SOL    HW276288  14.248  11.698   5.608
58131SOL     OW76289   4.040  10.689   6.169
58131SOL    HW176290   3.964  10.746   6.176
58131SOL    HW276291   4.060  10.664   6.259
58132SOL     OW76292   7.762   1.098   2.327
58132SOL    HW176293   7.762   1.155   2.251
58132SOL    HW276294   7.753   1.010   2.291
58133SOL     OW76295   4.474   2.783   0.152
58133SOL    HW176296   4.389   2.778   0.107
58133SOL    HW276297   4.490   2.877   0.162
58134SOL     OW76298   9.466   9.203   4.587
58134SOL    HW176299   9.523   9.267   4.544
58134SOL    HW276300   9.522   9.128   4.603
58135SOL     OW76301   8.780  14.024   5.969
58135SOL    HW176302   8.731  13.973   6.033
58135SOL    HW276303   8.849  14.067   6.020
58136SOL     OW76304  11.397   6.820   6.154
58136SOL    HW176305  11.304   6.837   6.170
58136SOL    HW276306  11.408   6.832   6.060
58137SOL     OW76307  14.774   7.680   8.198
58137SOL    HW176308  14.827   7.603   8.178
58137SOL    HW276309  14.691   7.643   8.231
58138SOL     OW76310   4.444   0.592   6.398
58138SOL    HW176311   4.409   0.595   6.486
58138SOL    HW276312   4.382   0.643   6.345
58139SOL     OW76313   8.667  11.132   3.298
58139SOL    HW176314   8.630  11.080   3.368
58139SOL    HW276315   8.595  11.144   3.236
58140SOL     OW76316  12.233   4.524  10.234
58140SOL    HW176317  12.154   4.477  10.261
58140SOL    HW276318  12.295   4.455  10.209
58141SOL     OW76319   2.280  12.566  13.458
58141SOL    HW176320   2.242  12.549  13.545
58141SOL    HW276321   2.228  12.512  13.398
58142SOL     OW76322   8.604   0.563   6.677
58142SOL    HW176323   8.635   0.479   6.710
58142SOL    HW276324   8.679   0.623   6.689
58143SOL     OW76325  13.162   4.243  10.905
58143SOL    HW176326  13.170   4.217  10.813
58143SOL    HW276327  13.214   4.178  10.952
58144SOL     OW76328  13.320   1.085   1.653
58144SOL    HW176329  13.274   1.156   1.699
58144SOL    HW276330  13.250   1.036   1.609
58145SOL     OW76331   3.267   9.039   1.794
58145SOL    HW176332   3.277   9.112   1.855
58145SOL    HW276333   3.230   9.078   1.715
58146SOL     OW76334  13.488  10.596  11.719
58146SOL    HW176335  13.492  10.538  11.642
58146SOL    HW276336  13.482  10.684  11.681
58147SOL     OW76337  10.793   2.077   5.648
58147SOL    HW176338  10.809   2.157   5.599
58147SOL    HW276339  10.876   2.029   5.644
58148SOL     OW76340  11.361   4.562   0.717
58148SOL    HW176341  11.455   4.551   0.734
58148SOL    HW276342  11.353   4.651   0.683
58149SOL     OW76343   9.393   9.630  10.226
58149SOL    HW176344   9.324   9.664  10.282
58149SOL    HW276345   9.353   9.556  10.180
58150SOL     OW76346   2.431   4.453   6.763
58150SOL    HW176347   2.382   4.472   6.683
58150SOL    HW276348   2.415   4.360   6.779
58151SOL     OW76349   9.101   1.810   1.817
58151SOL    HW176350   9.041   1.770   1.880
58151SOL    HW276351   9.073   1.776   1.732
58152SOL     OW76352   4.843  10.992   4.618
58152SOL    HW176353   4.926  11.011   4.661
58152SOL    HW276354   4.866  10.938   4.542
58153SOL     OW76355   1.061   4.883  14.009
58153SOL    HW176356   1.155   4.868  14.006
58153SOL    HW276357   1.050   4.977  14.002
58154SOL     OW76358  13.091  12.925  10.099
58154SOL    HW176359  13.162  12.943  10.036
58154SOL    HW276360  13.068  13.011  10.134
58155SOL     OW76361   8.821  10.827   4.867
58155SOL    HW176362   8.877  10.860   4.938
58155SOL    HW276363   8.877  10.765   4.819
58156SOL     OW76364   9.464  10.426   5.276
58156SOL    HW176365   9.500  10.344   5.242
58156SOL    HW276366   9.482  10.423   5.370
58157SOL     OW76367  12.969  14.816  14.835
58157SOL    HW176368  13.012  14.786   0.038
58157SOL    HW276369  12.930   0.022  14.858
58158SOL     OW76370   5.612   5.625  11.923
58158SOL    HW176371   5.695   5.578  11.922
58158SOL    HW276372   5.623   5.696  11.860
58159SOL     OW76373  13.374  14.670   5.353
58159SOL    HW176374  13.432  14.744   5.370
58159SOL    HW276375  13.406  14.633   5.271
58160SOL     OW76376   5.473   3.603   3.773
58160SOL    HW176377   5.390   3.558   3.788
58160SOL    HW276378   5.448   3.695   3.761
58161SOL     OW76379   0.822   7.494   0.150
58161SOL    HW176380   0.748   7.555   0.156
58161SOL    HW276381   0.789   7.413   0.190
58162SOL     OW76382   6.481  11.150  14.854
58162SOL    HW176383   6.408  11.140   0.036
58162SOL    HW276384   6.548  11.089   0.009
58163SOL     OW76385  10.568  13.258   8.378
58163SOL    HW176386  10.518  13.177   8.364
58163SOL    HW276387  10.657  13.237   8.348
58164SOL     OW76388  10.885  12.163   4.917
58164SOL    HW176389  10.973  12.130   4.899
58164SOL    HW276390  10.841  12.160   4.832
58165SOL     OW76391   2.181  13.829   5.400
58165SOL    HW176392   2.159  13.792   5.486
58165SOL    HW276393   2.120  13.788   5.339
58166SOL     OW76394   4.274  12.314   0.964
58166SOL    HW176395   4.322  12.356   0.892
58166SOL    HW276396   4.193  12.281   0.923
58167SOL     OW76397   7.026   5.384   9.653
58167SOL    HW176398   7.090   5.429   9.708
58167SOL    HW276399   6.944   5.432   9.668
58168SOL     OW76400   2.038   5.166   3.186
58168SOL    HW176401   1.968   5.108   3.219
58168SOL    HW276402   2.002   5.202   3.105
58169SOL     OW76403   0.133   4.031   5.306
58169SOL    HW176404   0.165   4.040   5.396
58169SOL    HW276405   0.189   4.090   5.255
58170SOL     OW76406  13.582  10.941  14.804
58170SOL    HW176407  13.554  11.026  14.770
58170SOL    HW276408  13.676  10.951  14.820
58171SOL     OW76409  10.403  14.812   9.189
58171SOL    HW176410  10.492  14.837   9.213
58171SOL    HW276411  10.414  14.760   9.109
58172SOL     OW76412  13.831   8.813  14.859
58172SOL    HW176413  13.814   8.734  14.808
58172SOL    HW276414  13.888   8.784   0.052
58173SOL     OW76415  12.473  10.548   4.675
58173SOL    HW176416  12.552  10.603   4.678
58173SOL    HW276417  12.445  10.543   4.766
58174SOL     OW76418  10.910  10.811   1.165
58174SOL    HW176419  10.817  10.820   1.185
58174SOL    HW276420  10.954  10.875   1.220
58175SOL     OW76421  12.477   9.004   6.278
58175SOL    HW176422  12.433   8.921   6.261
58175SOL    HW276423  12.569   8.987   6.254
58176SOL     OW76424   5.956  14.678   2.289
58176SOL    HW176425   5.980  14.663   2.381
58176SOL    HW276426   6.007  14.613   2.240
58177SOL     OW76427   1.235   2.121  13.743
58177SOL    HW176428   1.217   2.031  13.713
58177SOL    HW276429   1.329   2.121  13.763
58178SOL     OW76430   3.703  12.088   0.917
58178SOL    HW176431   3.785  12.118   0.956
58178SOL    HW276432   3.637  12.147   0.953
58179SOL     OW76433   8.761   9.025  14.571
58179SOL    HW176434   8.721   8.938  14.579
58179SOL    HW276435   8.691   9.080  14.534
58180SOL     OW76436   0.239   0.948   0.373
58180SOL    HW176437   0.177   0.881   0.401
58180SOL    HW276438   0.190   1.001   0.310
58181SOL     OW76439   1.421   5.195   0.612
58181SOL    HW176440   1.477   5.271   0.629
58181SOL    HW276441   1.424   5.144   0.693
58182SOL     OW76442   8.663   5.838   3.719
58182SOL    HW176443   8.716   5.812   3.794
58182SOL    HW276444   8.675   5.933   3.713
58183SOL     OW76445  10.063  10.833  14.418
58183SOL    HW176446  10.048  10.873  14.332
58183SOL    HW276447   9.992  10.769  14.427
58184SOL     OW76448   8.603   2.700   9.767
58184SOL    HW176449   8.567   2.643   9.700
58184SOL    HW276450   8.580   2.789   9.738
58185SOL     OW76451   1.406  10.692   1.464
58185SOL    HW176452   1.492  10.700   1.505
58185SOL    HW276453   1.400  10.768   1.406
58186SOL     OW76454  12.717   4.122   0.192
58186SOL    HW176455  12.737   4.038   0.234
58186SOL    HW276456  12.624   4.134   0.207
58187SOL     OW76457  12.662  10.670  13.812
58187SOL    HW176458  12.679  10.579  13.789
58187SOL    HW276459  12.737  10.696  13.865
58188SOL     OW76460   1.344   0.866  12.568
58188SOL    HW176461   1.274   0.931  12.576
58188SOL    HW276462   1.423   0.918  12.553
58189SOL     OW76463  12.724  11.411  14.031
58189SOL    HW176464  12.695  11.324  14.004
58189SOL    HW276465  12.698  11.417  14.123
58190SOL     OW76466   4.626   4.525   2.308
58190SOL    HW176467   4.564   4.547   2.239
58190SOL    HW276468   4.652   4.434   2.290
58191SOL     OW76469  11.118  10.091  10.054
58191SOL    HW176470  11.183  10.112   9.986
58191SOL    HW276471  11.167  10.044  10.121
58192SOL     OW76472   8.393  12.596   9.384
58192SOL    HW176473   8.476  12.567   9.422
58192SOL    HW276474   8.393  12.691   9.394
58193SOL     OW76475   1.368  11.949   9.771
58193SOL    HW176476   1.410  11.867   9.744
58193SOL    HW276477   1.320  11.978   9.693
58194SOL     OW76478  13.323   7.056   5.678
58194SOL    HW176479  13.338   7.087   5.767
58194SOL    HW276480  13.235   7.018   5.680
58195SOL     OW76481   0.679   5.510   0.558
58195SOL    HW176482   0.615   5.578   0.540
58195SOL    HW276483   0.642   5.431   0.519
58196SOL     OW76484  13.781   7.319   9.269
58196SOL    HW176485  13.789   7.258   9.342
58196SOL    HW276486  13.793   7.405   9.309
58197SOL     OW76487   5.987   2.816  12.119
58197SOL    HW176488   5.929   2.743  12.139
58197SOL    HW276489   6.075   2.784  12.142
58198SOL     OW76490   8.846  11.396   4.226
58198SOL    HW176491   8.787  11.470   4.242
58198SOL    HW276492   8.867  11.401   4.133
58199SOL     OW76493   7.693   4.273  11.591
58199SOL    HW176494   7.607   4.311  11.611
58199SOL    HW276495   7.699   4.276  11.496
58200SOL     OW76496   3.410   9.465   5.931
58200SOL    HW176497   3.480   9.463   5.996
58200SOL    HW276498   3.330   9.457   5.982
58201SOL     OW76499   9.953  11.948   3.517
58201SOL    HW176500   9.920  12.012   3.580
58201SOL    HW276501   9.941  11.989   3.432
58202SOL     OW76502   0.472   6.802   0.658
58202SOL    HW176503   0.498   6.722   0.613
58202SOL    HW276504   0.485   6.871   0.593
58203SOL     OW76505   2.960   8.047  13.259
58203SOL    HW176506   2.967   8.118  13.196
58203SOL    HW276507   2.957   8.090  13.344
58204SOL     OW76508   6.395   7.875   3.342
58204SOL    HW176509   6.479   7.913   3.315
58204SOL    HW276510   6.354   7.943   3.395
58205SOL     OW76511  12.825  10.473  14.392
58205SOL    HW176512  12.870  10.410  14.448
58205SOL    HW276513  12.842  10.558  14.432
58206SOL     OW76514  14.197   4.016   9.676
58206SOL    HW176515  14.153   4.060   9.603
58206SOL    HW276516  14.229   4.087   9.731
58207SOL     OW76517   4.177  11.509  10.164
58207SOL    HW176518   4.159  11.584  10.220
58207SOL    HW276519   4.269  11.519  10.139
58208SOL     OW76520   6.387  12.746   7.464
58208SOL    HW176521   6.328  12.681   7.426
58208SOL    HW276522   6.395  12.813   7.397
58209SOL     OW76523   2.650  13.147  13.636
58209SOL    HW176524   2.573  13.174  13.687
58209SOL    HW276525   2.616  13.135  13.547
58210SOL     OW76526   1.250   9.638  14.430
58210SOL    HW176527   1.160   9.604  14.434
58210SOL    HW276528   1.292   9.604  14.509
58211SOL     OW76529   1.346  14.300   5.311
58211SOL    HW176530   1.308  14.344   5.387
58211SOL    HW276531   1.347  14.366   5.243
58212SOL     OW76532  14.491   7.732   0.128
58212SOL    HW176533  14.505   7.826   0.127
58212SOL    HW276534  14.510   7.704   0.038
58213SOL     OW76535  14.035  13.380  10.549
58213SOL    HW176536  14.016  13.425  10.466
58213SOL    HW276537  14.011  13.289  10.532
58214SOL     OW76538   0.989   2.188   3.028
58214SOL    HW176539   1.062   2.148   2.981
58214SOL    HW276540   0.937   2.114   3.059
58215SOL     OW76541  11.142   0.251   0.347
58215SOL    HW176542  11.236   0.235   0.337
58215SOL    HW276543  11.110   0.178   0.399
58216SOL     OW76544   9.358   8.890   7.379
58216SOL    HW176545   9.311   8.809   7.396
58216SOL    HW276546   9.303   8.937   7.316
58217SOL     OW76547   7.924   4.326   9.640
58217SOL    HW176548   7.923   4.421   9.654
58217SOL    HW276549   8.014   4.300   9.660
58218SOL     OW76550   7.744   9.267   5.234
58218SOL    HW176551   7.696   9.244   5.155
58218SOL    HW276552   7.677   9.274   5.302
58219SOL     OW76553  10.601  11.174   9.207
58219SOL    HW176554  10.612  11.254   9.259
58219SOL    HW276555  10.596  11.104   9.272
58220SOL     OW76556  13.771  14.652  13.018
58220SOL    HW176557  13.704  14.678  12.955
58220SOL    HW276558  13.722  14.618  13.093
58221SOL     OW76559   9.973   4.547   0.948
58221SOL    HW176560   9.977   4.574   0.856
58221SOL    HW276561  10.018   4.618   0.995
58222SOL     OW76562  12.567   3.803   3.727
58222SOL    HW176563  12.586   3.881   3.779
58222SOL    HW276564  12.632   3.739   3.756
58223SOL     OW76565   9.428   2.476   0.911
58223SOL    HW176566   9.394   2.407   0.854
58223SOL    HW276567   9.439   2.434   0.996
58224SOL     OW76568   1.026  14.721   7.705
58224SOL    HW176569   0.986  14.639   7.735
58224SOL    HW276570   1.115  14.719   7.740
58225SOL     OW76571   7.452  11.632  11.673
58225SOL    HW176572   7.433  11.725  11.663
58225SOL    HW276573   7.381  11.599  11.729
58226SOL     OW76574   9.902   7.676  13.437
58226SOL    HW176575   9.987   7.712  13.465
58226SOL    HW276576   9.902   7.586  13.469
58227SOL     OW76577   4.720   8.838   9.572
58227SOL    HW176578   4.702   8.759   9.623
58227SOL    HW276579   4.642   8.892   9.581
58228SOL     OW76580   5.068   2.187   0.455
58228SOL    HW176581   5.083   2.199   0.549
58228SOL    HW276582   4.975   2.166   0.448
58229SOL     OW76583   5.201  11.449  11.868
58229SOL    HW176584   5.251  11.371  11.846
58229SOL    HW276585   5.157  11.427  11.950
58230SOL     OW76586  14.122   2.005   9.934
58230SOL    HW176587  14.134   2.038  10.023
58230SOL    HW276588  14.081   2.078   9.887
58231SOL     OW76589   1.907   7.780   9.420
58231SOL    HW176590   1.950   7.831   9.352
58231SOL    HW276591   1.824   7.826   9.436
58232SOL     OW76592  12.673  13.642   0.816
58232SOL    HW176593  12.670  13.737   0.799
58232SOL    HW276594  12.760  13.627   0.851
58233SOL     OW76595   2.177   4.539  10.958
58233SOL    HW176596   2.101   4.520  10.903
58233SOL    HW276597   2.204   4.454  10.992
58234SOL     OW76598   0.709   8.762  13.518
58234SOL    HW176599   0.753   8.847  13.523
58234SOL    HW276600   0.764   8.703  13.570
58235SOL     OW76601   6.174   0.426   8.337
58235SOL    HW176602   6.110   0.423   8.266
58235SOL    HW276603   6.252   0.464   8.297
58236SOL     OW76604  12.422   7.754   9.084
58236SOL    HW176605  12.340   7.776   9.039
58236SOL    HW276606  12.396   7.693   9.153
58237SOL     OW76607   4.886  13.321  10.624
58237SOL    HW176608   4.811  13.382  10.624
58237SOL    HW276609   4.947  13.359  10.687
58238SOL     OW76610   7.421   0.831   9.652
58238SOL    HW176611   7.400   0.827   9.745
58238SOL    HW276612   7.398   0.920   9.626
58239SOL     OW76613   6.852   7.566  14.753
58239SOL    HW176614   6.879   7.475  14.746
58239SOL    HW276615   6.842   7.595  14.663
58240SOL     OW76616  11.008   3.290   8.624
58240SOL    HW176617  11.045   3.276   8.711
58240SOL    HW276618  10.996   3.385   8.617
58241SOL     OW76619   4.667   0.934   8.141
58241SOL    HW176620   4.585   0.953   8.187
58241SOL    HW276621   4.672   1.001   8.073
58242SOL     OW76622   5.472   5.174  14.358
58242SOL    HW176623   5.397   5.131  14.316
58242SOL    HW276624   5.438   5.256  14.391
58243SOL     OW76625  12.178   0.731   3.243
58243SOL    HW176626  12.151   0.724   3.151
58243SOL    HW276627  12.105   0.695   3.293
58244SOL     OW76628  11.196   3.276  14.637
58244SOL    HW176629  11.251   3.255  14.712
58244SOL    HW276630  11.255   3.271  14.562
58245SOL     OW76631   6.072  10.136   1.852
58245SOL    HW176632   6.014  10.067   1.883
58245SOL    HW276633   6.146  10.090   1.812
58246SOL     OW76634  14.110   4.313   1.365
58246SOL    HW176635  14.103   4.406   1.386
58246SOL    HW276636  14.158   4.309   1.283
58247SOL     OW76637   6.274   1.927  12.458
58247SOL    HW176638   6.215   1.995  12.425
58247SOL    HW276639   6.327   1.971  12.524
58248SOL     OW76640   7.360  13.973   4.457
58248SOL    HW176641   7.391  13.907   4.518
58248SOL    HW276642   7.293  14.021   4.505
58249SOL     OW76643   1.646  11.682  12.144
58249SOL    HW176644   1.695  11.736  12.206
58249SOL    HW276645   1.681  11.593  12.157
58250SOL     OW76646  13.429   6.284   2.233
58250SOL    HW176647  13.406   6.253   2.321
58250SOL    HW276648  13.473   6.367   2.247
58251SOL     OW76649   2.525   8.996   4.419
58251SOL    HW176650   2.619   8.980   4.417
58251SOL    HW276651   2.487   8.926   4.367
58252SOL     OW76652   4.825  11.262  11.294
58252SOL    HW176653   4.782  11.219  11.367
58252SOL    HW276654   4.898  11.205  11.271
58253SOL     OW76655  12.598   2.679   3.072
58253SOL    HW176656  12.626   2.610   3.012
58253SOL    HW276657  12.581   2.754   3.015
58254SOL     OW76658   9.432  10.926   2.531
58254SOL    HW176659   9.506  10.980   2.558
58254SOL    HW276660   9.461  10.836   2.547
58255SOL     OW76661   6.660  13.042   6.458
58255SOL    HW176662   6.747  13.058   6.495
58255SOL    HW276663   6.610  13.120   6.478
58256SOL     OW76664   7.880  14.225   8.699
58256SOL    HW176665   7.847  14.315   8.697
58256SOL    HW276666   7.821  14.179   8.758
58257SOL     OW76667  10.571   0.520  14.216
58257SOL    HW176668  10.553   0.426  14.210
58257SOL    HW276669  10.575   0.538  14.310
58258SOL     OW76670   4.806   3.254   4.091
58258SOL    HW176671   4.837   3.302   4.168
58258SOL    HW276672   4.752   3.318   4.043
58259SOL     OW76673   5.529   4.754  14.363
58259SOL    HW176674   5.586   4.785  14.434
58259SOL    HW276675   5.552   4.810  14.289
58260SOL     OW76676   3.193  10.207   3.236
58260SOL    HW176677   3.115  10.212   3.180
58260SOL    HW276678   3.224  10.297   3.241
58261SOL     OW76679  10.578   0.821   5.886
58261SOL    HW176680  10.596   0.827   5.980
58261SOL    HW276681  10.662   0.796   5.847
58262SOL     OW76682  12.231  14.122  14.454
58262SOL    HW176683  12.273  14.186  14.511
58262SOL    HW276684  12.260  14.037  14.488
58263SOL     OW76685   9.743  11.289   6.126
58263SOL    HW176686   9.745  11.245   6.041
58263SOL    HW276687   9.816  11.252   6.175
58264SOL     OW76688  13.530   1.133  12.203
58264SOL    HW176689  13.541   1.162  12.294
58264SOL    HW276690  13.462   1.189  12.168
58265SOL     OW76691  14.727   6.898   7.074
58265SOL    HW176692  14.653   6.957   7.061
58265SOL    HW276693  14.801   6.944   7.036
58266SOL     OW76694   8.440   3.929  11.798
58266SOL    HW176695   8.430   4.013  11.753
58266SOL    HW276696   8.375   3.872  11.757
58267SOL     OW76697   7.110   4.809  14.351
58267SOL    HW176698   7.095   4.813  14.257
58267SOL    HW276699   7.037   4.858  14.389
58268SOL     OW76700   2.029   7.908   3.922
58268SOL    HW176701   2.000   7.881   4.008
58268SOL    HW276702   1.955   7.887   3.864
58269SOL     OW76703   5.629   0.102  14.816
58269SOL    HW176704   5.705   0.087  14.760
58269SOL    HW276705   5.631   0.030   0.002
58270SOL     OW76706  13.238   8.083  14.311
58270SOL    HW176707  13.262   8.021  14.380
58270SOL    HW276708  13.203   8.029  14.241
58271SOL     OW76709   5.732   4.771  10.746
58271SOL    HW176710   5.747   4.831  10.673
58271SOL    HW276711   5.637   4.763  10.751
58272SOL     OW76712   0.565  13.444   0.162
58272SOL    HW176713   0.524  13.492   0.091
58272SOL    HW276714   0.657  13.439   0.137
58273SOL     OW76715   8.473   3.024   4.851
58273SOL    HW176716   8.444   3.096   4.908
58273SOL    HW276717   8.509   3.067   4.774
58274SOL     OW76718   9.791   8.741   3.642
58274SOL    HW176719   9.761   8.655   3.669
58274SOL    HW276720   9.713   8.797   3.648
58275SOL     OW76721   7.675  13.340  14.653
58275SOL    HW176722   7.599  13.295  14.691
58275SOL    HW276723   7.751  13.297  14.693
58276SOL     OW76724  12.330   4.539   0.682
58276SOL    HW176725  12.329   4.627   0.719
58276SOL    HW276726  12.254   4.496   0.722
58277SOL     OW76727  10.889   3.395  11.211
58277SOL    HW176728  10.888   3.489  11.192
58277SOL    HW276729  10.851   3.387  11.298
58278SOL     OW76730  14.768   6.741   2.236
58278SOL    HW176731  14.814   6.825   2.243
58278SOL    HW276732  14.704   6.743   2.307
58279SOL     OW76733  11.059   2.595   8.382
58279SOL    HW176734  11.102   2.568   8.301
58279SOL    HW276735  11.029   2.514   8.422
58280SOL     OW76736   4.174  10.363  11.693
58280SOL    HW176737   4.229  10.309  11.750
58280SOL    HW276738   4.229  10.380  11.617
58281SOL     OW76739  13.033  10.684   3.819
58281SOL    HW176740  13.090  10.722   3.751
58281SOL    HW276741  13.060  10.728   3.900
58282SOL     OW76742   0.101   7.293   5.011
58282SOL    HW176743   0.136   7.219   5.061
58282SOL    HW276744   0.057   7.251   4.936
58283SOL     OW76745  13.771  14.032  10.026
58283SOL    HW176746  13.690  14.008  10.071
58283SOL    HW276747  13.840  14.017  10.091
58284SOL     OW76748  13.955  11.131  12.208
58284SOL    HW176749  13.899  11.200  12.173
58284SOL    HW276750  13.912  11.103  12.288
58285SOL     OW76751   0.057   8.986  10.997
58285SOL    HW176752   0.105   9.069  11.010
58285SOL    HW276753   0.005   8.976  11.076
58286SOL     OW76754   4.849   3.845   9.567
58286SOL    HW176755   4.908   3.784   9.522
58286SOL    HW276756   4.860   3.928   9.522
58287SOL     OW76757  14.627   3.932  12.526
58287SOL    HW176758  14.679   3.950  12.448
58287SOL    HW276759  14.604   4.019  12.560
58288SOL     OW76760  10.593   4.195  14.403
58288SOL    HW176761  10.513   4.165  14.446
58288SOL    HW276762  10.591   4.152  14.317
58289SOL     OW76763   2.326   6.822   6.437
58289SOL    HW176764   2.354   6.830   6.528
58289SOL    HW276765   2.346   6.731   6.414
58290SOL     OW76766   7.691  10.079   4.505
58290SOL    HW176767   7.653  10.037   4.582
58290SOL    HW276768   7.697  10.172   4.529
58291SOL     OW76769   7.561  10.975  12.360
58291SOL    HW176770   7.497  11.044  12.341
58291SOL    HW276771   7.646  11.018  12.349
58292SOL     OW76772   2.412  10.734  14.218
58292SOL    HW176773   2.330  10.780  14.236
58292SOL    HW276774   2.384  10.646  14.192
58293SOL     OW76775  11.587   9.867   1.258
58293SOL    HW176776  11.618   9.781   1.286
58293SOL    HW276777  11.558   9.854   1.168
58294SOL     OW76778   1.636   1.272   2.374
58294SOL    HW176779   1.682   1.288   2.456
58294SOL    HW276780   1.618   1.178   2.375
58295SOL     OW76781   1.776   8.681   4.532
58295SOL    HW176782   1.830   8.654   4.607
58295SOL    HW276783   1.804   8.623   4.461
58296SOL     OW76784   4.846   8.039   4.081
58296SOL    HW176785   4.751   8.027   4.074
58296SOL    HW276786   4.875   7.967   4.137
58297SOL     OW76787   3.211  11.778   4.302
58297SOL    HW176788   3.155  11.720   4.250
58297SOL    HW276789   3.265  11.719   4.354
58298SOL     OW76790   0.971   7.688  10.495
58298SOL    HW176791   0.976   7.593  10.496
58298SOL    HW276792   0.891   7.709  10.543
58299SOL     OW76793  12.997  13.275   6.687
58299SOL    HW176794  13.088  13.250   6.675
58299SOL    HW276795  12.979  13.257   6.780
58300SOL     OW76796   2.253  12.662  14.082
58300SOL    HW176797   2.295  12.587  14.040
58300SOL    HW276798   2.165  12.665  14.045
58301SOL     OW76799   7.269  13.783   4.873
58301SOL    HW176800   7.266  13.864   4.924
58301SOL    HW276801   7.273  13.713   4.938
58302SOL     OW76802   4.697  12.995   7.306
58302SOL    HW176803   4.726  13.019   7.218
58302SOL    HW276804   4.725  13.069   7.361
58303SOL     OW76805  11.197  13.529   6.893
58303SOL    HW176806  11.208  13.620   6.920
58303SOL    HW276807  11.267  13.481   6.937
58304SOL     OW76808   9.541   5.980   9.260
58304SOL    HW176809   9.541   5.907   9.199
58304SOL    HW276810   9.517   6.056   9.206
58305SOL     OW76811   8.602   3.264   0.070
58305SOL    HW176812   8.695   3.266   0.093
58305SOL    HW276813   8.594   3.195   0.005
58306SOL     OW76814   3.679   5.475   6.149
58306SOL    HW176815   3.676   5.483   6.245
58306SOL    HW276816   3.751   5.532   6.123
58307SOL     OW76817  13.851   4.566  10.905
58307SOL    HW176818  13.810   4.652  10.896
58307SOL    HW276819  13.858   4.552  10.999
58308SOL     OW76820  14.697   5.400  10.290
58308SOL    HW176821  14.703   5.307  10.314
58308SOL    HW276822  14.605   5.422  10.303
58309SOL     OW76823  12.588   7.347  13.115
58309SOL    HW176824  12.561   7.439  13.112
58309SOL    HW276825  12.579   7.316  13.025
58310SOL     OW76826   4.265   5.574  13.855
58310SOL    HW176827   4.170   5.569  13.844
58310SOL    HW276828   4.284   5.668  13.861
58311SOL     OW76829   6.244   3.505   6.336
58311SOL    HW176830   6.289   3.426   6.304
58311SOL    HW276831   6.152   3.488   6.317
58312SOL     OW76832  13.034   7.492   5.274
58312SOL    HW176833  12.957   7.547   5.263
58312SOL    HW276834  13.091   7.541   5.333
58313SOL     OW76835   6.687  10.682   5.711
58313SOL    HW176836   6.655  10.594   5.691
58313SOL    HW276837   6.685  10.687   5.806
58314SOL     OW76838   4.084   8.140  13.163
58314SOL    HW176839   4.168   8.117  13.123
58314SOL    HW276840   4.095   8.121  13.256
58315SOL     OW76841   5.621   1.323   0.343
58315SOL    HW176842   5.609   1.331   0.437
58315SOL    HW276843   5.533   1.320   0.307
58316SOL     OW76844   4.384   6.947   6.512
58316SOL    HW176845   4.366   6.893   6.588
58316SOL    HW276846   4.479   6.943   6.502
58317SOL     OW76847  12.726  10.924   3.194
58317SOL    HW176848  12.811  10.895   3.160
58317SOL    HW276849  12.719  10.882   3.280
58318SOL     OW76850  10.586   4.711  13.105
58318SOL    HW176851  10.650   4.659  13.153
58318SOL    HW276852  10.508   4.711  13.162
58319SOL     OW76853   5.884   5.616   9.141
58319SOL    HW176854   5.893   5.618   9.237
58319SOL    HW276855   5.790   5.607   9.126
58320SOL     OW76856   6.557  11.472   5.315
58320SOL    HW176857   6.579  11.471   5.222
58320SOL    HW276858   6.494  11.400   5.325
58321SOL     OW76859   3.177   4.041   1.642
58321SOL    HW176860   3.258   4.090   1.630
58321SOL    HW276861   3.113   4.106   1.671
58322SOL     OW76862  13.806   1.981   1.563
58322SOL    HW176863  13.853   2.063   1.575
58322SOL    HW276864  13.782   1.954   1.651
58323SOL     OW76865  14.593   2.123  14.646
58323SOL    HW176866  14.501   2.138  14.622
58323SOL    HW276867  14.635   2.207  14.632
58324SOL     OW76868  11.323   2.328  13.717
58324SOL    HW176869  11.247   2.280  13.686
58324SOL    HW276870  11.371   2.265  13.772
58325SOL     OW76871  13.296   8.387  10.445
58325SOL    HW176872  13.263   8.299  10.462
58325SOL    HW276873  13.378   8.374  10.398
58326SOL     OW76874   4.817  12.424   8.291
58326SOL    HW176875   4.850  12.502   8.247
58326SOL    HW276876   4.722  12.431   8.284
58327SOL     OW76877   0.748  11.542   2.277
58327SOL    HW176878   0.817  11.478   2.294
58327SOL    HW276879   0.795  11.625   2.268
58328SOL     OW76880   8.413   6.288   2.987
58328SOL    HW176881   8.364   6.207   3.001
58328SOL    HW276882   8.459   6.302   3.070
58329SOL     OW76883   3.793   7.667  10.601
58329SOL    HW176884   3.868   7.641  10.548
58329SOL    HW276885   3.746   7.731  10.548
58330SOL     OW76886   3.430   1.506  10.628
58330SOL    HW176887   3.481   1.426  10.626
58330SOL    HW276888   3.495   1.576  10.636
58331SOL     OW76889   9.912  10.900  10.746
58331SOL    HW176890   9.947  10.899  10.835
58331SOL    HW276891   9.928  10.989  10.715
58332SOL     OW76892   0.813   3.347   2.930
58332SOL    HW176893   0.767   3.381   2.853
58332SOL    HW276894   0.805   3.252   2.923
58333SOL     OW76895  12.258   2.419   2.502
58333SOL    HW176896  12.338   2.471   2.496
58333SOL    HW276897  12.254   2.392   2.594
58334SOL     OW76898   8.687   0.592   5.695
58334SOL    HW176899   8.602   0.581   5.653
58334SOL    HW276900   8.687   0.529   5.767
58335SOL     OW76901   3.340  10.175  12.978
58335SOL    HW176902   3.404  10.170  13.049
58335SOL    HW276903   3.262  10.214  13.019
58336SOL     OW76904   4.392  13.532  11.626
58336SOL    HW176905   4.322  13.518  11.689
58336SOL    HW276906   4.461  13.470  11.651
58337SOL     OW76907   0.146  12.527   6.893
58337SOL    HW176908   0.123  12.455   6.952
58337SOL    HW276909   0.166  12.600   6.951
58338SOL     OW76910   7.476  13.890  12.774
58338SOL    HW176911   7.431  13.806  12.780
58338SOL    HW276912   7.466  13.928  12.862
58339SOL     OW76913  12.729   0.013   9.383
58339SOL    HW176914  12.661   0.061   9.429
58339SOL    HW276915  12.682  14.832   9.323
58340SOL     OW76916   4.284  13.326   0.566
58340SOL    HW176917   4.317  13.237   0.553
58340SOL    HW276918   4.190  13.315   0.582
58341SOL     OW76919   0.259   2.925  11.700
58341SOL    HW176920   0.194   2.994  11.687
58341SOL    HW276921   0.270   2.919  11.795
58342SOL     OW76922   3.416   2.103   3.346
58342SOL    HW176923   3.510   2.088   3.358
58342SOL    HW276924   3.377   2.015   3.352
58343SOL     OW76925   1.125   4.254  13.887
58343SOL    HW176926   1.149   4.337  13.846
58343SOL    HW276927   1.037   4.269  13.921
58344SOL     OW76928   0.391   9.089   2.123
58344SOL    HW176929   0.416   8.997   2.129
58344SOL    HW276930   0.342   9.095   2.041
58345SOL     OW76931  10.562   6.940   2.922
58345SOL    HW176932  10.471   6.967   2.931
58345SOL    HW276933  10.575   6.875   2.991
58346SOL     OW76934   6.763   3.812   5.808
58346SOL    HW176935   6.762   3.855   5.894
58346SOL    HW276936   6.808   3.874   5.751
58347SOL     OW76937   2.751   9.543   9.046
58347SOL    HW176938   2.828   9.577   9.092
58347SOL    HW276939   2.746   9.451   9.072
58348SOL     OW76940   8.789   7.864   6.699
58348SOL    HW176941   8.760   7.878   6.609
58348SOL    HW276942   8.849   7.790   6.694
58349SOL     OW76943   2.873   4.511   9.071
58349SOL    HW176944   2.850   4.499   9.164
58349SOL    HW276945   2.879   4.423   9.036
58350SOL     OW76946   5.510  12.730   7.217
58350SOL    HW176947   5.452  12.665   7.256
58350SOL    HW276948   5.533  12.789   7.289
58351SOL     OW76949   7.981   6.536  11.133
58351SOL    HW176950   7.903   6.536  11.077
58351SOL    HW276951   7.964   6.605  11.197
58352SOL     OW76952   4.549   0.425   7.060
58352SOL    HW176953   4.550   0.366   7.136
58352SOL    HW276954   4.641   0.441   7.041
58353SOL     OW76955  12.829  14.045  10.797
58353SOL    HW176956  12.766  14.016  10.731
58353SOL    HW276957  12.914  14.020  10.762
58354SOL     OW76958   6.297  14.011   9.721
58354SOL    HW176959   6.257  14.093   9.751
58354SOL    HW276960   6.237  13.943   9.752
58355SOL     OW76961   2.709   9.441   6.353
58355SOL    HW176962   2.653   9.366   6.333
58355SOL    HW276963   2.692   9.503   6.282
58356SOL     OW76964   5.051   5.918   9.571
58356SOL    HW176965   5.104   5.886   9.645
58356SOL    HW276966   5.112   5.920   9.497
58357SOL     OW76967   9.814   3.881   2.002
58357SOL    HW176968   9.869   3.956   2.026
58357SOL    HW276969   9.739   3.886   2.062
58358SOL     OW76970  11.288   0.349   5.036
58358SOL    HW176971  11.311   0.431   5.079
58358SOL    HW276972  11.261   0.291   5.107
58359SOL     OW76973  11.948   0.210   9.040
58359SOL    HW176974  11.872   0.157   9.017
58359SOL    HW276975  12.009   0.149   9.081
58360SOL     OW76976   9.091  14.441   2.110
58360SOL    HW176977   9.081  14.462   2.017
58360SOL    HW276978   9.026  14.372   2.126
58361SOL     OW76979  13.083   9.130   0.904
58361SOL    HW176980  13.108   9.218   0.877
58361SOL    HW276981  13.166   9.085   0.918
58362SOL     OW76982  13.730   1.043   9.322
58362SOL    HW176983  13.754   1.005   9.407
58362SOL    HW276984  13.635   1.052   9.326
58363SOL     OW76985  13.325   4.150  10.292
58363SOL    HW176986  13.378   4.075  10.266
58363SOL    HW276987  13.236   4.126  10.266
58364SOL     OW76988   4.138   5.358   5.762
58364SOL    HW176989   4.221   5.379   5.805
58364SOL    HW276990   4.137   5.414   5.684
58365SOL     OW76991  12.542   9.446   7.105
58365SOL    HW176992  12.607   9.376   7.102
58365SOL    HW276993  12.488   9.426   7.182
58366SOL     OW76994  10.580   4.893   2.143
58366SOL    HW176995  10.502   4.929   2.100
58366SOL    HW276996  10.547   4.829   2.205
58367SOL     OW76997   5.885   1.284  13.002
58367SOL    HW176998   5.822   1.291  12.930
58367SOL    HW276999   5.966   1.255  12.959
58368SOL     OW77000   6.076  12.627   0.884
58368SOL    HW177001   6.150  12.688   0.877
58368SOL    HW277002   6.002  12.675   0.847
58369SOL     OW77003  11.411   5.804   0.407
58369SOL    HW177004  11.457   5.876   0.364
58369SOL    HW277005  11.336   5.786   0.350
58370SOL     OW77006   2.252   3.664   8.263
58370SOL    HW177007   2.193   3.673   8.189
58370SOL    HW277008   2.298   3.581   8.247
58371SOL     OW77009   1.983  10.611   4.100
58371SOL    HW177010   1.985  10.543   4.032
58371SOL    HW277011   1.995  10.563   4.182
58372SOL     OW77012  13.433   7.889   0.627
58372SOL    HW177013  13.386   7.878   0.709
58372SOL    HW277014  13.483   7.970   0.638
58373SOL     OW77015  14.395  11.271   9.212
58373SOL    HW177016  14.349  11.325   9.276
58373SOL    HW277017  14.376  11.181   9.238
58374SOL     OW77018  14.552  11.048   9.774
58374SOL    HW177019  14.644  11.073   9.760
58374SOL    HW277020  14.503  11.128   9.752
58375SOL     OW77021   6.983  14.617   8.714
58375SOL    HW177022   6.889  14.627   8.730
58375SOL    HW277023   7.017  14.706   8.718
58376SOL     OW77024   0.609   1.798   3.930
58376SOL    HW177025   0.537   1.837   3.882
58376SOL    HW277026   0.643   1.730   3.871
58377SOL     OW77027  14.870   5.118   5.980
58377SOL    HW177028   0.023   5.200   5.940
58377SOL    HW277029  14.832   5.145   6.064
58378SOL     OW77030   6.003   6.215  14.394
58378SOL    HW177031   6.009   6.124  14.364
58378SOL    HW277032   5.926   6.216  14.451
58379SOL     OW77033  14.320   5.153  13.556
58379SOL    HW177034  14.336   5.233  13.605
58379SOL    HW277035  14.381   5.158  13.482
58380SOL     OW77036   9.164   1.159   8.127
58380SOL    HW177037   9.205   1.088   8.176
58380SOL    HW277038   9.093   1.116   8.079
58381SOL     OW77039   1.758   8.943   4.984
58381SOL    HW177040   1.752   8.999   5.061
58381SOL    HW277041   1.789   8.859   5.017
58382SOL     OW77042  14.515  12.812   2.536
58382SOL    HW177043  14.528  12.806   2.442
58382SOL    HW277044  14.433  12.860   2.547
58383SOL     OW77045   5.009   6.185   2.798
58383SOL    HW177046   5.086   6.241   2.811
58383SOL    HW277047   5.032   6.102   2.840
58384SOL     OW77048   7.311   0.700   8.843
58384SOL    HW177049   7.353   0.765   8.787
58384SOL    HW277050   7.218   0.719   8.835
58385SOL     OW77051   1.075   1.509   6.341
58385SOL    HW177052   1.024   1.444   6.391
58385SOL    HW277053   1.165   1.481   6.351
58386SOL     OW77054   3.800   0.962   4.511
58386SOL    HW177055   3.733   0.909   4.553
58386SOL    HW277056   3.762   0.985   4.426
58387SOL     OW77057   4.402  14.585  13.217
58387SOL    HW177058   4.333  14.613  13.156
58387SOL    HW277059   4.355  14.566  13.298
58388SOL     OW77060   9.993   0.755   5.752
58388SOL    HW177061   9.969   0.804   5.673
58388SOL    HW277062  10.088   0.765   5.758
58389SOL     OW77063  11.795  11.340   9.189
58389SOL    HW177064  11.802  11.431   9.218
58389SOL    HW277065  11.869  11.327   9.129
58390SOL     OW77066   7.923  10.957   7.376
58390SOL    HW177067   7.952  11.033   7.426
58390SOL    HW277068   7.934  10.883   7.436
58391SOL     OW77069  12.796   8.861   4.369
58391SOL    HW177070  12.831   8.788   4.317
58391SOL    HW277071  12.866   8.926   4.369
58392SOL     OW77072   6.278   7.565  13.995
58392SOL    HW177073   6.237   7.564  13.909
58392SOL    HW277074   6.362   7.520  13.982
58393SOL     OW77075   7.249   4.645   7.545
58393SOL    HW177076   7.332   4.596   7.541
58393SOL    HW277077   7.246   4.680   7.633
58394SOL     OW77078   5.594   7.072   2.164
58394SOL    HW177079   5.619   7.052   2.254
58394SOL    HW277080   5.522   7.011   2.145
58395SOL     OW77081   1.978  13.334   1.568
58395SOL    HW177082   1.984  13.427   1.546
58395SOL    HW277083   1.958  13.291   1.485
58396SOL     OW77084   6.566  12.915  14.381
58396SOL    HW177085   6.519  12.872  14.452
58396SOL    HW277086   6.640  12.858  14.362
58397SOL     OW77087  12.981   0.770  11.348
58397SOL    HW177088  13.063   0.812  11.322
58397SOL    HW277089  12.984   0.684  11.305
58398SOL     OW77090   2.601  10.383   1.307
58398SOL    HW177091   2.687  10.367   1.345
58398SOL    HW277092   2.601  10.333   1.225
58399SOL     OW77093  11.234  11.261  12.435
58399SOL    HW177094  11.251  11.349  12.402
58399SOL    HW277095  11.252  11.267  12.529
58400SOL     OW77096  14.363   0.079   4.947
58400SOL    HW177097  14.409  14.876   4.969
58400SOL    HW277098  14.395   0.143   5.010
58401SOL     OW77099  13.018   3.104   3.007
58401SOL    HW177100  13.068   3.099   3.089
58401SOL    HW277101  13.064   3.046   2.947
58402SOL     OW77102   6.160   8.476   3.887
58402SOL    HW177103   6.205   8.414   3.831
58402SOL    HW277104   6.141   8.427   3.967
58403SOL     OW77105   8.402   6.853   1.788
58403SOL    HW177106   8.404   6.829   1.880
58403SOL    HW277107   8.494   6.850   1.760
58404SOL     OW77108   7.735   3.317   0.464
58404SOL    HW177109   7.756   3.274   0.381
58404SOL    HW277110   7.762   3.253   0.531
58405SOL     OW77111   6.482  10.365   6.712
58405SOL    HW177112   6.434  10.287   6.740
58405SOL    HW277113   6.530  10.337   6.635
58406SOL     OW77114   3.227   9.793   1.936
58406SOL    HW177115   3.142   9.754   1.916
58406SOL    HW277116   3.284   9.718   1.956
58407SOL     OW77117   4.871   3.786   0.185
58407SOL    HW177118   4.778   3.780   0.206
58407SOL    HW277119   4.884   3.722   0.115
58408SOL     OW77120   3.482   6.584  12.848
58408SOL    HW177121   3.464   6.515  12.784
58408SOL    HW277122   3.508   6.537  12.927
58409SOL     OW77123   8.677  12.095  11.752
58409SOL    HW177124   8.603  12.155  11.759
58409SOL    HW277125   8.649  12.030  11.688
58410SOL     OW77126   5.052  11.289   5.311
58410SOL    HW177127   5.134  11.246   5.331
58410SOL    HW277128   4.985  11.224   5.329
58411SOL     OW77129   6.498  11.851   9.024
58411SOL    HW177130   6.420  11.802   8.997
58411SOL    HW277131   6.529  11.893   8.944
58412SOL     OW77132   3.672  10.229   4.958
58412SOL    HW177133   3.596  10.222   5.015
58412SOL    HW277134   3.636  10.242   4.871
58413SOL     OW77135   3.467   9.938  12.050
58413SOL    HW177136   3.544   9.902  12.004
58413SOL    HW277137   3.395   9.928  11.987
58414SOL     OW77138  13.673   6.723   0.218
58414SOL    HW177139  13.760   6.761   0.210
58414SOL    HW277140  13.688   6.629   0.216
58415SOL     OW77141  10.940  11.298   9.496
58415SOL    HW177142  11.000  11.268   9.428
58415SOL    HW277143  10.940  11.393   9.488
58416SOL     OW77144   9.001   6.859   8.895
58416SOL    HW177145   8.910   6.854   8.867
58416SOL    HW277146   9.011   6.788   8.958
58417SOL     OW77147   6.330  12.756   1.066
58417SOL    HW177148   6.314  12.774   0.974
58417SOL    HW277149   6.409  12.806   1.088
58418SOL     OW77150   3.677   6.485  10.913
58418SOL    HW177151   3.747   6.421  10.921
58418SOL    HW277152   3.620   6.450  10.844
58419SOL     OW77153  11.327  10.225   8.040
58419SOL    HW177154  11.318  10.171   8.118
58419SOL    HW277155  11.255  10.289   8.047
58420SOL     OW77156   0.194   3.787   5.545
58420SOL    HW177157   0.197   3.697   5.576
58420SOL    HW277158   0.111   3.793   5.496
58421SOL     OW77159   5.248  11.735   7.983
58421SOL    HW177160   5.295  11.775   7.910
58421SOL    HW277161   5.159  11.724   7.951
58422SOL     OW77162  13.023   1.841  14.754
58422SOL    HW177163  13.033   1.752  14.789
58422SOL    HW277164  12.936   1.840  14.713
58423SOL     OW77165   3.784   3.584  14.133
58423SOL    HW177166   3.844   3.654  14.156
58423SOL    HW277167   3.703   3.605  14.179
58424SOL     OW77168   3.531  11.113   7.368
58424SOL    HW177169   3.454  11.065   7.338
58424SOL    HW277170   3.520  11.119   7.463
58425SOL     OW77171   9.129  14.430   7.527
58425SOL    HW177172   9.048  14.379   7.537
58425SOL    HW277173   9.187  14.372   7.478
58426SOL     OW77174   2.609   0.377  14.528
58426SOL    HW177175   2.590   0.386  14.435
58426SOL    HW277176   2.523   0.382  14.570
58427SOL     OW77177   8.270  14.635  14.693
58427SOL    HW177178   8.213  14.616  14.619
58427SOL    HW277179   8.319  14.554  14.708
58428SOL     OW77180  10.959   9.239   9.565
58428SOL    HW177181  10.889   9.304   9.561
58428SOL    HW277182  11.003   9.257   9.648
58429SOL     OW77183   7.451  12.765   6.576
58429SOL    HW177184   7.513  12.825   6.618
58429SOL    HW277185   7.376  12.763   6.634
58430SOL     OW77186  13.952   9.300   5.682
58430SOL    HW177187  14.020   9.240   5.711
58430SOL    HW277188  13.907   9.254   5.612
58431SOL     OW77189  13.627   1.116   0.922
58431SOL    HW177190  13.644   1.073   0.837
58431SOL    HW277191  13.572   1.053   0.969
58432SOL     OW77192   1.352   2.234   8.581
58432SOL    HW177193   1.274   2.290   8.585
58432SOL    HW277194   1.400   2.266   8.504
58433SOL     OW77195   7.653   1.561   2.437
58433SOL    HW177196   7.657   1.537   2.529
58433SOL    HW277197   7.624   1.482   2.392
58434SOL     OW77198  13.889   6.019  14.563
58434SOL    HW177199  13.879   5.926  14.581
58434SOL    HW277200  13.924   6.023  14.474
58435SOL     OW77201   5.045   0.126   1.120
58435SOL    HW177202   5.052   0.084   1.206
58435SOL    HW277203   4.968   0.087   1.080
58436SOL     OW77204   5.211   0.672   0.377
58436SOL    HW177205   5.300   0.650   0.349
58436SOL    HW277206   5.219   0.685   0.472
58437SOL     OW77207   3.914  11.805  12.351
58437SOL    HW177208   3.907  11.879  12.412
58437SOL    HW277209   3.899  11.728  12.406
58438SOL     OW77210   3.280  13.622   1.089
58438SOL    HW177211   3.341  13.671   1.145
58438SOL    HW277212   3.261  13.542   1.138
58439SOL     OW77213  14.180   8.638   9.079
58439SOL    HW177214  14.239   8.605   9.012
58439SOL    HW277215  14.213   8.726   9.099
58440SOL     OW77216   2.161  14.604  11.855
58440SOL    HW177217   2.137  14.621  11.764
58440SOL    HW277218   2.173  14.509  11.859
58441SOL     OW77219  12.842   0.540   6.252
58441SOL    HW177220  12.754   0.505   6.263
58441SOL    HW277221  12.853   0.601   6.325
58442SOL     OW77222   3.395  10.894  10.400
58442SOL    HW177223   3.326  10.894  10.333
58442SOL    HW277224   3.362  10.835  10.468
58443SOL     OW77225   7.327  12.769   8.923
58443SOL    HW177226   7.266  12.708   8.965
58443SOL    HW277227   7.274  12.847   8.904
58444SOL     OW77228   1.722   4.787  10.737
58444SOL    HW177229   1.726   4.719  10.804
58444SOL    HW277230   1.634   4.779  10.700
58445SOL     OW77231   7.110   9.356   1.663
58445SOL    HW177232   7.183   9.359   1.601
58445SOL    HW277233   7.148   9.382   1.746
58446SOL     OW77234  12.653   3.136   8.427
58446SOL    HW177235  12.576   3.180   8.388
58446SOL    HW277236  12.661   3.055   8.377
58447SOL     OW77237   8.093  10.929  10.816
58447SOL    HW177238   8.010  10.938  10.769
58447SOL    HW277239   8.133  10.851  10.778
58448SOL     OW77240   2.771  10.316   5.092
58448SOL    HW177241   2.732  10.242   5.139
58448SOL    HW277242   2.866  10.299   5.095
58449SOL     OW77243   0.682   4.116   5.085
58449SOL    HW177244   0.707   4.024   5.092
58449SOL    HW277245   0.765   4.161   5.067
58450SOL     OW77246   5.395   0.891   4.875
58450SOL    HW177247   5.382   0.814   4.819
58450SOL    HW277248   5.333   0.880   4.947
58451SOL     OW77249   0.268   6.012   5.492
58451SOL    HW177250   0.197   6.052   5.442
58451SOL    HW277251   0.235   5.925   5.514
58452SOL     OW77252  11.666   6.977   6.993
58452SOL    HW177253  11.729   6.922   7.041
58452SOL    HW277254  11.715   7.057   6.974
58453SOL     OW77255   1.116  14.294   9.002
58453SOL    HW177256   1.064  14.309   8.922
58453SOL    HW277257   1.107  14.375   9.051
58454SOL     OW77258  14.334   6.217   8.190
58454SOL    HW177259  14.385   6.214   8.109
58454SOL    HW277260  14.345   6.130   8.229
58455SOL     OW77261   6.914  10.856   4.604
58455SOL    HW177262   6.848  10.892   4.545
58455SOL    HW277263   6.863  10.809   4.671
58456SOL     OW77264  11.487   3.608   0.915
58456SOL    HW177265  11.534   3.672   0.969
58456SOL    HW277266  11.455   3.543   0.978
58457SOL     OW77267   6.645  13.225   7.396
58457SOL    HW177268   6.589  13.280   7.451
58457SOL    HW277269   6.592  13.148   7.376
58458SOL     OW77270   4.122  13.901  13.132
58458SOL    HW177271   4.184  13.935  13.067
58458SOL    HW277272   4.066  13.841  13.084
58459SOL     OW77273  10.387   8.041   1.667
58459SOL    HW177274  10.326   8.114   1.657
58459SOL    HW277275  10.331   7.964   1.676
58460SOL     OW77276  14.857  10.856  12.138
58460SOL    HW177277   0.007  10.945  12.116
58460SOL    HW277278   0.033  10.800  12.082
58461SOL     OW77279   6.748  11.350  13.094
58461SOL    HW177280   6.718  11.283  13.155
58461SOL    HW277281   6.667  11.380  13.051
58462SOL     OW77282   0.889   9.879   1.499
58462SOL    HW177283   0.836   9.942   1.451
58462SOL    HW277284   0.912   9.923   1.580
58463SOL     OW77285  10.520  14.548   5.275
58463SOL    HW177286  10.562  14.625   5.237
58463SOL    HW277287  10.563  14.537   5.360
58464SOL     OW77288  13.222  10.171   1.079
58464SOL    HW177289  13.143  10.224   1.089
58464SOL    HW277290  13.191  10.080   1.080
58465SOL     OW77291  11.298  11.632   7.211
58465SOL    HW177292  11.334  11.676   7.288
58465SOL    HW277293  11.216  11.593   7.242
58466SOL     OW77294  12.048  11.121  10.878
58466SOL    HW177295  12.048  11.215  10.858
58466SOL    HW277296  11.956  11.099  10.888
58467SOL     OW77297   2.268   4.865   3.725
58467SOL    HW177298   2.207   4.866   3.799
58467SOL    HW277299   2.290   4.773   3.713
58468SOL     OW77300  10.602   7.865   9.884
58468SOL    HW177301  10.530   7.803   9.871
58468SOL    HW277302  10.681   7.811   9.876
58469SOL     OW77303   1.340   9.798   1.423
58469SOL    HW177304   1.276   9.727   1.420
58469SOL    HW277305   1.413   9.768   1.368
58470SOL     OW77306   8.269  11.238   6.680
58470SOL    HW177307   8.222  11.248   6.598
58470SOL    HW277308   8.223  11.167   6.725
58471SOL     OW77309   0.492   8.570  12.121
58471SOL    HW177310   0.474   8.562  12.214
58471SOL    HW277311   0.513   8.481  12.092
58472SOL     OW77312  10.592   4.343   7.385
58472SOL    HW177313  10.547   4.396   7.319
58472SOL    HW277314  10.566   4.382   7.468
58473SOL     OW77315   1.063   7.662  13.266
58473SOL    HW177316   0.991   7.715  13.231
58473SOL    HW277317   1.103   7.717  13.333
58474SOL     OW77318   6.004   6.316   9.356
58474SOL    HW177319   6.046   6.338   9.273
58474SOL    HW277320   6.061   6.353   9.423
58475SOL     OW77321   9.348   2.794  10.414
58475SOL    HW177322   9.335   2.889  10.415
58475SOL    HW277323   9.324   2.768  10.325
58476SOL     OW77324  14.447  13.214  11.282
58476SOL    HW177325  14.496  13.287  11.321
58476SOL    HW277326  14.356  13.243  11.284
58477SOL     OW77327   5.132   7.274   3.595
58477SOL    HW177328   5.088   7.246   3.515
58477SOL    HW277329   5.224   7.254   3.580
58478SOL     OW77330  11.004  10.515   6.318
58478SOL    HW177331  10.982  10.463   6.395
58478SOL    HW277332  10.990  10.455   6.245
58479SOL     OW77333   4.012   8.165   3.084
58479SOL    HW177334   4.077   8.235   3.073
58479SOL    HW277335   4.003   8.127   2.996
58480SOL     OW77336   0.653   9.343  13.031
58480SOL    HW177337   0.618   9.422  12.990
58480SOL    HW277338   0.709   9.375  13.102
58481SOL     OW77339   7.211   6.646   4.139
58481SOL    HW177340   7.138   6.657   4.200
58481SOL    HW277341   7.199   6.717   4.075
58482SOL     OW77342  13.717   8.452   9.053
58482SOL    HW177343  13.723   8.499   9.136
58482SOL    HW277344  13.806   8.453   9.017
58483SOL     OW77345  12.659   5.174   2.350
58483SOL    HW177346  12.582   5.230   2.354
58483SOL    HW277347  12.645   5.118   2.273
58484SOL     OW77348   0.416   5.176   5.859
58484SOL    HW177349   0.420   5.173   5.763
58484SOL    HW277350   0.413   5.270   5.879
58485SOL     OW77351   6.770   7.195   7.783
58485SOL    HW177352   6.715   7.197   7.705
58485SOL    HW277353   6.755   7.279   7.825
58486SOL     OW77354   5.050   4.435   1.748
58486SOL    HW177355   4.973   4.384   1.721
58486SOL    HW277356   5.072   4.487   1.670
58487SOL     OW77357   1.046  14.545  13.184
58487SOL    HW177358   1.042  14.639  13.166
58487SOL    HW277359   1.110  14.536  13.255
58488SOL     OW77360  13.414  10.236   6.627
58488SOL    HW177361  13.503  10.271   6.613
58488SOL    HW277362  13.372  10.243   6.541
58489SOL     OW77363   1.979   3.518   2.252
58489SOL    HW177364   1.889   3.552   2.255
58489SOL    HW277365   1.974   3.432   2.292
58490SOL     OW77366   7.785   4.329  10.482
58490SOL    HW177367   7.724   4.259  10.508
58490SOL    HW277368   7.801   4.377  10.562
58491SOL     OW77369   0.104   7.726   5.144
58491SOL    HW177370   0.162   7.651   5.131
58491SOL    HW277371   0.160   7.795   5.180
58492SOL     OW77372   0.248   3.799  13.096
58492SOL    HW177373   0.293   3.787  13.180
58492SOL    HW277374   0.252   3.713  13.054
58493SOL     OW77375  10.522   4.737   2.336
58493SOL    HW177376  10.545   4.760   2.426
58493SOL    HW277377  10.426   4.737   2.335
58494SOL     OW77378   5.441   8.345   3.943
58494SOL    HW177379   5.377   8.275   3.928
58494SOL    HW277380   5.507   8.331   3.875
58495SOL     OW77381   3.751   3.452   8.827
58495SOL    HW177382   3.740   3.535   8.873
58495SOL    HW277383   3.664   3.432   8.791
58496SOL     OW77384  13.612   7.829   1.958
58496SOL    HW177385  13.696   7.785   1.971
58496SOL    HW277386  13.552   7.760   1.929
58497SOL     OW77387   9.089  12.680   7.557
58497SOL    HW177388   9.031  12.700   7.483
58497SOL    HW277389   9.126  12.595   7.535
58498SOL     OW77390  13.182   8.930   6.081
58498SOL    HW177391  13.164   8.906   5.989
58498SOL    HW277392  13.263   8.884   6.102
58499SOL     OW77393   9.837   1.360  11.092
58499SOL    HW177394   9.804   1.445  11.064
58499SOL    HW277395   9.794   1.343  11.176
58500SOL     OW77396   8.243  12.551   2.691
58500SOL    HW177397   8.234  12.466   2.735
58500SOL    HW277398   8.318  12.540   2.632
58501SOL     OW77399   8.161  14.597   7.617
58501SOL    HW177400   8.147  14.588   7.711
58501SOL    HW277401   8.249  14.560   7.602
58502SOL     OW77402  12.754   5.973   7.864
58502SOL    HW177403  12.833   5.977   7.810
58502SOL    HW277404  12.684   5.952   7.803
58503SOL     OW77405  12.211   9.745   8.931
58503SOL    HW177406  12.263   9.776   8.857
58503SOL    HW277407  12.253   9.783   9.007
58504SOL     OW77408  10.833  14.647  14.687
58504SOL    HW177409  10.868  14.573  14.638
58504SOL    HW277410  10.888  14.653  14.765
58505SOL     OW77411  13.136   6.408  12.807
58505SOL    HW177412  13.076   6.337  12.784
58505SOL    HW277413  13.204   6.367  12.860
58506SOL     OW77414   1.619   7.837   5.469
58506SOL    HW177415   1.672   7.906   5.428
58506SOL    HW277416   1.683   7.772   5.497
58507SOL     OW77417   2.791   4.012   8.368
58507SOL    HW177418   2.763   4.055   8.287
58507SOL    HW277419   2.783   4.079   8.435
58508SOL     OW77420   2.912   6.960   7.545
58508SOL    HW177421   2.998   6.919   7.546
58508SOL    HW277422   2.858   6.901   7.492
58509SOL     OW77423   9.055   7.628   5.424
58509SOL    HW177424   9.108   7.683   5.482
58509SOL    HW277425   9.113   7.612   5.349
58510SOL     OW77426  11.034   2.811   3.716
58510SOL    HW177427  11.097   2.739   3.718
58510SOL    HW277428  10.965   2.781   3.655
58511SOL     OW77429  10.972  12.037   1.383
58511SOL    HW177430  11.012  12.011   1.299
58511SOL    HW277431  10.984  11.960   1.439
58512SOL     OW77432   9.865   7.204   2.637
58512SOL    HW177433   9.845   7.233   2.726
58512SOL    HW277434   9.924   7.271   2.603
58513SOL     OW77435   5.290  11.758   4.496
58513SOL    HW177436   5.319  11.849   4.488
58513SOL    HW277437   5.367  11.706   4.476
58514SOL     OW77438   6.572  12.749   4.067
58514SOL    HW177439   6.567  12.837   4.105
58514SOL    HW277440   6.553  12.690   4.140
58515SOL     OW77441  11.325   3.261   1.118
58515SOL    HW177442  11.247   3.222   1.157
58515SOL    HW277443  11.332   3.219   1.032
58516SOL     OW77444   3.669   4.509  12.061
58516SOL    HW177445   3.722   4.529  11.984
58516SOL    HW277446   3.675   4.587  12.116
58517SOL     OW77447  11.926   5.245   6.228
58517SOL    HW177448  11.941   5.162   6.182
58517SOL    HW277449  11.834   5.242   6.253
58518SOL     OW77450  14.443   4.911   1.239
58518SOL    HW177451  14.365   4.876   1.281
58518SOL    HW277452  14.513   4.898   1.303
58519SOL     OW77453   9.041   4.002   9.176
58519SOL    HW177454   9.132   3.997   9.205
58519SOL    HW277455   9.006   3.915   9.192
58520SOL     OW77456   3.274  11.557   1.503
58520SOL    HW177457   3.360  11.582   1.536
58520SOL    HW277458   3.281  11.462   1.488
58521SOL     OW77459  11.912   2.304   1.320
58521SOL    HW177460  11.848   2.245   1.279
58521SOL    HW277461  11.878   2.392   1.302
58522SOL     OW77462  11.343   5.959   4.834
58522SOL    HW177463  11.324   5.932   4.923
58522SOL    HW277464  11.377   5.881   4.791
58523SOL     OW77465   4.624   3.829  10.371
58523SOL    HW177466   4.719   3.840  10.363
58523SOL    HW277467   4.594   3.816  10.281
58524SOL     OW77468   9.982   3.413   7.991
58524SOL    HW177469   9.945   3.373   8.070
58524SOL    HW277470  10.003   3.502   8.017
58525SOL     OW77471  14.663   9.138   2.905
58525SOL    HW177472  14.694   9.214   2.955
58525SOL    HW277473  14.678   9.063   2.963
58526SOL     OW77474  10.440   6.880   0.186
58526SOL    HW177475  10.476   6.963   0.217
58526SOL    HW277476  10.442   6.823   0.263
58527SOL     OW77477   9.543   0.568   3.131
58527SOL    HW177478   9.546   0.621   3.052
58527SOL    HW277479   9.460   0.522   3.127
58528SOL     OW77480  12.385   4.080  14.508
58528SOL    HW177481  12.320   4.011  14.490
58528SOL    HW277482  12.443   4.041  14.573
58529SOL     OW77483   7.850   6.772   5.778
58529SOL    HW177484   7.812   6.785   5.691
58529SOL    HW277485   7.843   6.857   5.821
58530SOL     OW77486  12.314  13.469   2.770
58530SOL    HW177487  12.234  13.495   2.725
58530SOL    HW277488  12.291  13.391   2.820
58531SOL     OW77489   9.611  11.899   0.496
58531SOL    HW177490   9.698  11.938   0.485
58531SOL    HW277491   9.562  11.965   0.546
58532SOL     OW77492  11.406   8.822   9.493
58532SOL    HW177493  11.369   8.783   9.572
58532SOL    HW277494  11.435   8.748   9.441
58533SOL     OW77495   5.266   2.419  13.841
58533SOL    HW177496   5.203   2.448  13.775
58533SOL    HW277497   5.314   2.498  13.865
58534SOL     OW77498   8.084   7.495   5.657
58534SOL    HW177499   8.123   7.502   5.570
58534SOL    HW277500   8.134   7.556   5.711
58535SOL     OW77501   1.841   3.586  14.698
58535SOL    HW177502   1.934   3.588  14.720
58535SOL    HW277503   1.798   3.564  14.781
58536SOL     OW77504  11.499   3.260   6.679
58536SOL    HW177505  11.577   3.298   6.719
58536SOL    HW277506  11.457   3.333   6.634
58537SOL     OW77507   4.274   4.281   4.222
58537SOL    HW177508   4.288   4.317   4.134
58537SOL    HW277509   4.206   4.336   4.260
58538SOL     OW77510   1.713  14.552  12.069
58538SOL    HW177511   1.730  14.611  11.995
58538SOL    HW277512   1.625  14.519  12.055
58539SOL     OW77513   2.905   9.682  14.422
58539SOL    HW177514   2.973   9.645  14.478
58539SOL    HW277515   2.902   9.623  14.347
58540SOL     OW77516  11.395  12.754   2.340
58540SOL    HW177517  11.488  12.747   2.318
58540SOL    HW277518  11.387  12.839   2.383
58541SOL     OW77519   2.816   7.256  11.521
58541SOL    HW177520   2.727   7.281  11.496
58541SOL    HW277521   2.872   7.319  11.476
58542SOL     OW77522   3.514   7.862  12.972
58542SOL    HW177523   3.519   7.794  12.905
58542SOL    HW277524   3.455   7.928  12.934
58543SOL     OW77525   2.756   0.526   5.951
58543SOL    HW177526   2.789   0.449   5.905
58543SOL    HW277527   2.792   0.600   5.902
58544SOL     OW77528   0.462  14.519  13.725
58544SOL    HW177529   0.448  14.456  13.796
58544SOL    HW277530   0.554  14.544  13.732
58545SOL     OW77531  10.820   5.761   6.117
58545SOL    HW177532  10.797   5.699   6.048
58545SOL    HW277533  10.796   5.718   6.198
58546SOL     OW77534   2.059  11.248   5.070
58546SOL    HW177535   2.134  11.192   5.092
58546SOL    HW277536   1.983  11.190   5.078
58547SOL     OW77537   3.367   7.174  12.992
58547SOL    HW177538   3.425   7.098  13.003
58547SOL    HW277539   3.410   7.227  12.925
58548SOL     OW77540   4.665  12.124   0.440
58548SOL    HW177541   4.585  12.172   0.422
58548SOL    HW277542   4.725  12.150   0.370
58549SOL     OW77543   2.216   3.565   6.417
58549SOL    HW177544   2.268   3.517   6.353
58549SOL    HW277545   2.251   3.539   6.502
58550SOL     OW77546   6.118   3.340  10.501
58550SOL    HW177547   6.033   3.349  10.544
58550SOL    HW277548   6.097   3.301  10.416
58551SOL     OW77549  14.539   5.030   6.273
58551SOL    HW177550  14.473   5.041   6.341
58551SOL    HW277551  14.498   4.971   6.209
58552SOL     OW77552   6.549  12.468  11.549
58552SOL    HW177553   6.544  12.564  11.541
58552SOL    HW277554   6.613  12.442  11.484
58553SOL     OW77555   7.283   4.471  13.048
58553SOL    HW177556   7.339   4.529  13.100
58553SOL    HW277557   7.331   4.459  12.966
58554SOL     OW77558   1.668  12.978  10.619
58554SOL    HW177559   1.760  12.951  10.611
58554SOL    HW277560   1.633  12.923  10.689
58555SOL     OW77561   7.518  14.628   7.776
58555SOL    HW177562   7.435  14.673   7.759
58555SOL    HW277563   7.527  14.628   7.871
58556SOL     OW77564   9.238  12.728  11.179
58556SOL    HW177565   9.234  12.712  11.085
58556SOL    HW277566   9.243  12.641  11.218
58557SOL     OW77567   8.616  10.687   3.813
58557SOL    HW177568   8.601  10.761   3.873
58557SOL    HW277569   8.707  10.662   3.829
58558SOL     OW77570   4.477   6.224   8.699
58558SOL    HW177571   4.530   6.186   8.769
58558SOL    HW277572   4.535   6.229   8.624
58559SOL     OW77573   5.768  10.927  11.757
58559SOL    HW177574   5.854  10.918  11.716
58559SOL    HW277575   5.783  10.905  11.849
58560SOL     OW77576   8.971   8.757   0.598
58560SOL    HW177577   9.033   8.685   0.605
58560SOL    HW277578   8.976   8.801   0.683
58561SOL     OW77579   9.586   9.549   5.375
58561SOL    HW177580   9.678   9.535   5.399
58561SOL    HW277581   9.574   9.497   5.296
58562SOL     OW77582   2.315   6.336   8.479
58562SOL    HW177583   2.364   6.275   8.423
58562SOL    HW277584   2.383   6.392   8.517
58563SOL     OW77585   9.971   9.423  10.018
58563SOL    HW177586  10.020   9.349   9.981
58563SOL    HW277587  10.037   9.478  10.058
58564SOL     OW77588  12.166   2.916   6.644
58564SOL    HW177589  12.231   2.985   6.654
58564SOL    HW277590  12.185   2.877   6.559
58565SOL     OW77591  12.276   4.729  11.887
58565SOL    HW177592  12.338   4.656  11.890
58565SOL    HW277593  12.195   4.690  11.854
58566SOL     OW77594  10.955   2.263   9.071
58566SOL    HW177595  10.909   2.347   9.070
58566SOL    HW277596  11.005   2.262   8.989
58567SOL     OW77597  13.024   0.477  13.804
58567SOL    HW177598  13.003   0.570  13.791
58567SOL    HW277599  13.117   0.470  13.780
58568SOL     OW77600  13.060   4.813   9.780
58568SOL    HW177601  13.045   4.796   9.686
58568SOL    HW277602  12.972   4.810   9.818
58569SOL     OW77603  12.439  12.631   6.539
58569SOL    HW177604  12.410  12.722   6.535
58569SOL    HW277605  12.534  12.636   6.534
58570SOL     OW77606  12.577   8.545   0.468
58570SOL    HW177607  12.580   8.606   0.394
58570SOL    HW277608  12.517   8.476   0.439
58571SOL     OW77609  11.967   8.806  12.873
58571SOL    HW177610  12.051   8.844  12.848
58571SOL    HW277611  11.921   8.793  12.790
58572SOL     OW77612   6.276   6.278  12.691
58572SOL    HW177613   6.216   6.210  12.660
58572SOL    HW277614   6.267   6.277  12.786
58573SOL     OW77615   0.853  14.303  12.303
58573SOL    HW177616   0.892  14.227  12.346
58573SOL    HW277617   0.834  14.273  12.214
58574SOL     OW77618  14.689   5.773   3.138
58574SOL    HW177619  14.739   5.846   3.103
58574SOL    HW277620  14.646   5.734   3.062
58575SOL     OW77621   5.207   2.327  12.676
58575SOL    HW177622   5.200   2.261  12.608
58575SOL    HW277623   5.171   2.406  12.636
58576SOL     OW77624   7.781   2.078   2.413
58576SOL    HW177625   7.761   2.007   2.352
58576SOL    HW277626   7.873   2.097   2.398
58577SOL     OW77627   7.002  11.830   0.290
58577SOL    HW177628   7.069  11.827   0.221
58577SOL    HW277629   7.015  11.916   0.331
58578SOL     OW77630   0.519   2.818   9.585
58578SOL    HW177631   0.453   2.771   9.533
58578SOL    HW277632   0.517   2.907   9.550
58579SOL     OW77633   6.643   5.228   8.751
58579SOL    HW177634   6.622   5.241   8.659
58579SOL    HW277635   6.600   5.146   8.775
58580SOL     OW77636   0.410  13.175   1.875
58580SOL    HW177637   0.432  13.268   1.869
58580SOL    HW277638   0.369  13.155   1.791
58581SOL     OW77639   8.458  14.149   1.872
58581SOL    HW177640   8.410  14.231   1.875
58581SOL    HW277641   8.393  14.084   1.846
58582SOL     OW77642   2.730   6.007  10.556
58582SOL    HW177643   2.756   6.072  10.491
58582SOL    HW277644   2.765   5.925  10.523
58583SOL     OW77645  14.734  12.097   8.119
58583SOL    HW177646  14.730  12.005   8.142
58583SOL    HW277647  14.727  12.143   8.202
58584SOL     OW77648  13.500   5.814   1.979
58584SOL    HW177649  13.421   5.776   2.016
58584SOL    HW277650  13.508   5.899   2.022
58585SOL     OW77651  10.665   5.037   8.320
58585SOL    HW177652  10.708   4.996   8.395
58585SOL    HW277653  10.659   5.130   8.344
58586SOL     OW77654   7.023  11.821   4.422
58586SOL    HW177655   7.062  11.749   4.472
58586SOL    HW277656   6.931  11.820   4.447
58587SOL     OW77657   8.826   3.659   3.941
58587SOL    HW177658   8.874   3.739   3.919
58587SOL    HW277659   8.779   3.680   4.022
58588SOL     OW77660   8.902  12.399  13.105
58588SOL    HW177661   8.849  12.319  13.105
58588SOL    HW277662   8.867  12.451  13.177
58589SOL     OW77663   0.465   0.196  10.237
58589SOL    HW177664   0.386   0.243  10.211
58589SOL    HW277665   0.534   0.262  10.238
58590SOL     OW77666   6.034   7.865   5.909
58590SOL    HW177667   6.115   7.815   5.919
58590SOL    HW277668   6.062   7.957   5.913
58591SOL     OW77669   7.027   9.284   7.184
58591SOL    HW177670   6.970   9.357   7.159
58591SOL    HW277671   7.002   9.212   7.126
58592SOL     OW77672  11.789   9.977   0.065
58592SOL    HW177673  11.763  10.059   0.106
58592SOL    HW277674  11.750   9.982  14.855
58593SOL     OW77675   3.885   7.894  11.231
58593SOL    HW177676   3.941   7.886  11.155
58593SOL    HW277677   3.913   7.823  11.290
58594SOL     OW77678   3.167   4.095   1.022
58594SOL    HW177679   3.192   4.125   0.935
58594SOL    HW277680   3.234   4.031   1.046
58595SOL     OW77681   3.343   1.276  13.715
58595SOL    HW177682   3.430   1.300  13.683
58595SOL    HW277683   3.321   1.343  13.779
58596SOL     OW77684  13.570  11.759  10.684
58596SOL    HW177685  13.509  11.792  10.618
58596SOL    HW277686  13.584  11.833  10.743
58597SOL     OW77687  14.475   6.026   0.439
58597SOL    HW177688  14.422   6.101   0.464
58597SOL    HW277689  14.412   5.965   0.399
58598SOL     OW77690   4.907   7.228  13.928
58598SOL    HW177691   4.853   7.281  13.868
58598SOL    HW277692   4.897   7.271  14.013
58599SOL     OW77693   2.809  10.800   3.803
58599SOL    HW177694   2.742  10.779   3.739
58599SOL    HW277695   2.845  10.716   3.830
58600SOL     OW77696   6.721   6.568  11.839
58600SOL    HW177697   6.745   6.615  11.760
58600SOL    HW277698   6.703   6.479  11.809
58601SOL     OW77699   3.313   2.162   2.618
58601SOL    HW177700   3.252   2.207   2.675
58601SOL    HW277701   3.382   2.129   2.676
58602SOL     OW77702  12.462  13.101  14.300
58602SOL    HW177703  12.448  13.134  14.389
58602SOL    HW277704  12.416  13.163  14.244
58603SOL     OW77705  11.963  11.530   5.846
58603SOL    HW177706  11.997  11.610   5.886
58603SOL    HW277707  12.041  11.474   5.837
58604SOL     OW77708   9.007   2.960   5.369
58604SOL    HW177709   8.945   2.946   5.440
58604SOL    HW277710   8.968   3.029   5.316
58605SOL     OW77711  11.384  10.248   8.920
58605SOL    HW177712  11.352  10.165   8.885
58605SOL    HW277713  11.413  10.296   8.842
58606SOL     OW77714  12.539  14.647   1.358
58606SOL    HW177715  12.618  14.596   1.374
58606SOL    HW277716  12.571  14.731   1.324
58607SOL     OW77717   4.928   3.481   8.011
58607SOL    HW177718   4.942   3.387   8.020
58607SOL    HW277719   4.850   3.499   8.064
58608SOL     OW77720   5.822   4.181   1.381
58608SOL    HW177721   5.908   4.154   1.349
58608SOL    HW277722   5.771   4.100   1.385
58609SOL     OW77723   0.972  11.094   7.363
58609SOL    HW177724   0.994  11.187   7.360
58609SOL    HW277725   0.890  11.090   7.412
58610SOL     OW77726  13.141  12.109   6.145
58610SOL    HW177727  13.150  12.195   6.104
58610SOL    HW277728  13.154  12.126   6.239
58611SOL     OW77729   1.735   6.565  13.031
58611SOL    HW177730   1.742   6.621  13.107
58611SOL    HW277731   1.762   6.478  13.062
58612SOL     OW77732   5.756   7.131   9.218
58612SOL    HW177733   5.720   7.049   9.186
58612SOL    HW277734   5.847   7.131   9.189
58613SOL     OW77735   5.418  11.975   1.156
58613SOL    HW177736   5.454  12.038   1.093
58613SOL    HW277737   5.458  11.891   1.130
58614SOL     OW77738  13.996  10.317  11.873
58614SOL    HW177739  13.901  10.319  11.880
58614SOL    HW277740  14.025  10.265  11.949
58615SOL     OW77741  14.757  10.738  10.801
58615SOL    HW177742  14.688  10.786  10.847
58615SOL    HW277743  14.710  10.685  10.736
58616SOL     OW77744   4.249   2.958  10.411
58616SOL    HW177745   4.218   3.001  10.331
58616SOL    HW277746   4.327   3.007  10.436
58617SOL     OW77747  13.982   1.651   0.238
58617SOL    HW177748  13.983   1.593   0.314
58617SOL    HW277749  14.072   1.649   0.205
58618SOL     OW77750   9.137   0.677   2.237
58618SOL    HW177751   9.221   0.657   2.276
58618SOL    HW277752   9.112   0.761   2.277
58619SOL     OW77753  11.993   1.412  10.937
58619SOL    HW177754  11.904   1.380  10.952
58619SOL    HW277755  12.049   1.352  10.987
58620SOL     OW77756   1.383   4.043  12.143
58620SOL    HW177757   1.335   3.963  12.122
58620SOL    HW277758   1.475   4.019  12.134
58621SOL     OW77759   2.706   2.980   2.143
58621SOL    HW177760   2.693   2.886   2.126
58621SOL    HW277761   2.666   3.023   2.068
58622SOL     OW77762  11.234  13.952  11.740
58622SOL    HW177763  11.304  14.008  11.706
58622SOL    HW277764  11.263  13.930  11.829
58623SOL     OW77765   4.009   7.375   7.709
58623SOL    HW177766   3.951   7.302   7.689
58623SOL    HW277767   4.076   7.373   7.641
58624SOL     OW77768   2.690   4.346   0.920
58624SOL    HW177769   2.762   4.309   0.971
58624SOL    HW277770   2.731   4.412   0.865
58625SOL     OW77771   8.831   2.304   2.578
58625SOL    HW177772   8.768   2.367   2.541
58625SOL    HW277773   8.875   2.268   2.501
58626SOL     OW77774  14.121   1.809  14.385
58626SOL    HW177775  14.043   1.840  14.340
58626SOL    HW277776  14.088   1.753  14.455
58627SOL     OW77777   0.775  14.503  12.014
58627SOL    HW177778   0.709  14.460  11.959
58627SOL    HW277779   0.855  14.454  11.997
58628SOL     OW77780   7.755   0.717  11.590
58628SOL    HW177781   7.726   0.797  11.634
58628SOL    HW277782   7.728   0.647  11.649
58629SOL     OW77783   6.106   4.449  14.688
58629SOL    HW177784   6.067   4.514  14.630
58629SOL    HW277785   6.195   4.436  14.655
58630SOL     OW77786  14.797  14.055   4.046
58630SOL    HW177787  14.757  13.970   4.064
58630SOL    HW277788  14.730  14.104   3.999
58631SOL     OW77789  10.713  12.760   8.000
58631SOL    HW177790  10.726  12.666   7.986
58631SOL    HW277791  10.687  12.767   8.092
58632SOL     OW77792   1.309  14.012   5.474
58632SOL    HW177793   1.377  14.049   5.418
58632SOL    HW277794   1.356  13.957   5.536
58633SOL     OW77795   0.743   4.227   4.329
58633SOL    HW177796   0.792   4.264   4.403
58633SOL    HW277797   0.710   4.143   4.362
58634SOL     OW77798   9.392  10.845  12.577
58634SOL    HW177799   9.352  10.792  12.508
58634SOL    HW277800   9.485  10.819  12.575
58635SOL     OW77801   4.364  12.435  11.234
58635SOL    HW177802   4.452  12.430  11.197
58635SOL    HW277803   4.375  12.408  11.325
58636SOL     OW77804   8.890  12.964   8.621
58636SOL    HW177805   8.847  12.990   8.703
58636SOL    HW277806   8.839  13.007   8.552
58637SOL     OW77807   6.914  11.550   7.670
58637SOL    HW177808   6.894  11.504   7.589
58637SOL    HW277809   6.831  11.589   7.698
58638SOL     OW77810   4.540  12.512   8.310
58638SOL    HW177811   4.492  12.592   8.333
58638SOL    HW277812   4.506  12.489   8.223
58639SOL     OW77813   8.247   0.523   9.663
58639SOL    HW177814   8.208   0.591   9.717
58639SOL    HW277815   8.317   0.567   9.615
58640SOL     OW77816  13.060  11.121  13.759
58640SOL    HW177817  12.994  11.088  13.821
58640SOL    HW277818  13.025  11.204  13.728
58641SOL     OW77819   0.942  13.588  10.045
58641SOL    HW177820   0.981  13.669  10.079
58641SOL    HW277821   0.977  13.581   9.956
58642SOL     OW77822  10.630   5.846   5.211
58642SOL    HW177823  10.552   5.795   5.193
58642SOL    HW277824  10.601   5.937   5.209
58643SOL     OW77825   2.985  14.356   6.795
58643SOL    HW177826   3.030  14.292   6.740
58643SOL    HW277827   3.053  14.392   6.852
58644SOL     OW77828   9.622   5.499  13.603
58644SOL    HW177829   9.638   5.566  13.669
58644SOL    HW277830   9.644   5.416  13.646
58645SOL     OW77831  10.716   3.053  10.063
58645SOL    HW177832  10.625   3.080  10.073
58645SOL    HW277833  10.763   3.134  10.042
58646SOL     OW77834   9.279  12.906  12.825
58646SOL    HW177835   9.342  12.969  12.790
58646SOL    HW277836   9.200  12.921  12.773
58647SOL     OW77837   8.066  10.307   1.937
58647SOL    HW177838   8.038  10.268   1.854
58647SOL    HW277839   8.161  10.295   1.939
58648SOL     OW77840  10.130   1.552   7.097
58648SOL    HW177841  10.042   1.516   7.109
58648SOL    HW277842  10.116   1.645   7.080
58649SOL     OW77843  14.226  12.114  13.006
58649SOL    HW177844  14.189  12.201  12.992
58649SOL    HW277845  14.308  12.130  13.054
58650SOL     OW77846  10.022   1.151   9.828
58650SOL    HW177847   9.997   1.093   9.756
58650SOL    HW277848  10.115   1.132   9.843
58651SOL     OW77849   7.387   4.640   8.416
58651SOL    HW177850   7.353   4.659   8.329
58651SOL    HW277851   7.480   4.660   8.411
58652SOL     OW77852  12.359   3.493  14.334
58652SOL    HW177853  12.298   3.562  14.309
58652SOL    HW277854  12.394   3.460  14.252
58653SOL     OW77855  14.516  13.265  14.209
58653SOL    HW177856  14.548  13.354  14.194
58653SOL    HW277857  14.427  13.266  14.174
58654SOL     OW77858   0.096  14.278   0.894
58654SOL    HW177859   0.025  14.339   0.874
58654SOL    HW277860   0.053  14.193   0.901
58655SOL     OW77861   9.238   9.744   3.925
58655SOL    HW177862   9.222   9.756   4.019
58655SOL    HW277863   9.326   9.707   3.921
58656SOL     OW77864   5.817   5.327   6.454
58656SOL    HW177865   5.836   5.244   6.499
58656SOL    HW277866   5.728   5.316   6.420
58657SOL     OW77867  11.937   6.404   7.745
58657SOL    HW177868  11.883   6.482   7.758
58657SOL    HW277869  11.978   6.389   7.831
58658SOL     OW77870  13.651   0.112   3.731
58658SOL    HW177871  13.661   0.019   3.714
58658SOL    HW277872  13.701   0.155   3.661
58659SOL     OW77873   2.388  10.830   5.079
58659SOL    HW177874   2.324  10.793   5.018
58659SOL    HW277875   2.471  10.826   5.033
58660SOL     OW77876   0.940   0.470  14.860
58660SOL    HW177877   0.894   0.474  14.777
58660SOL    HW277878   1.025   0.510  14.842
58661SOL     OW77879   9.934   8.048   9.106
58661SOL    HW177880  10.005   7.988   9.083
58661SOL    HW277881   9.973   8.135   9.098
58662SOL     OW77882  14.750   7.033   0.388
58662SOL    HW177883  14.737   6.948   0.346
58662SOL    HW277884  14.751   7.096   0.316
58663SOL     OW77885   5.935   5.649   2.598
58663SOL    HW177886   5.966   5.561   2.615
58663SOL    HW277887   5.851   5.637   2.555
58664SOL     OW77888   5.111  11.426  11.213
58664SOL    HW177889   5.046  11.496  11.219
58664SOL    HW277890   5.070  11.361  11.156
58665SOL     OW77891   1.982   0.562   5.573
58665SOL    HW177892   1.928   0.553   5.495
58665SOL    HW277893   2.028   0.646   5.561
58666SOL     OW77894   6.989  13.012   6.794
58666SOL    HW177895   7.033  13.063   6.861
58666SOL    HW277896   6.903  13.053   6.786
58667SOL     OW77897  13.819   5.661   4.444
58667SOL    HW177898  13.787   5.635   4.358
58667SOL    HW277899  13.859   5.747   4.430
58668SOL     OW77900   4.331   2.904   4.062
58668SOL    HW177901   4.368   2.932   3.978
58668SOL    HW277902   4.239   2.928   4.057
58669SOL     OW77903   5.807   3.563   8.995
58669SOL    HW177904   5.722   3.532   8.962
58669SOL    HW277905   5.861   3.574   8.917
58670SOL     OW77906   2.639   8.720   9.882
58670SOL    HW177907   2.566   8.669   9.918
58670SOL    HW277908   2.626   8.716   9.787
58671SOL     OW77909   7.800   7.200   7.063
58671SOL    HW177910   7.800   7.295   7.073
58671SOL    HW277911   7.708   7.177   7.052
58672SOL     OW77912  12.754   0.641   2.656
58672SOL    HW177913  12.831   0.691   2.682
58672SOL    HW277914  12.702   0.702   2.605
58673SOL     OW77915  13.170   0.803  11.671
58673SOL    HW177916  13.121   0.881  11.699
58673SOL    HW277917  13.103   0.736  11.656
58674SOL     OW77918  10.828   1.973  11.309
58674SOL    HW177919  10.804   1.935  11.225
58674SOL    HW277920  10.745   1.996  11.350
58675SOL     OW77921   6.329  13.183  14.468
58675SOL    HW177922   6.293  13.203  14.555
58675SOL    HW277923   6.258  13.136  14.423
58676SOL     OW77924  14.560  14.090   4.828
58676SOL    HW177925  14.473  14.100   4.788
58676SOL    HW277926  14.620  14.083   4.754
58677SOL     OW77927   2.920   0.630  13.796
58677SOL    HW177928   2.958   0.596  13.715
58677SOL    HW277929   2.991   0.626  13.860
58678SOL     OW77930  11.733   9.798  12.323
58678SOL    HW177931  11.792   9.778  12.250
58678SOL    HW277932  11.738   9.721  12.380
58679SOL     OW77933   6.953   4.505   4.743
58679SOL    HW177934   6.980   4.439   4.680
58679SOL    HW277935   7.016   4.576   4.733
58680SOL     OW77936   0.715   4.331   8.513
58680SOL    HW177937   0.647   4.292   8.458
58680SOL    HW277938   0.701   4.426   8.505
58681SOL     OW77939   9.632   0.981   1.799
58681SOL    HW177940   9.696   0.946   1.860
58681SOL    HW277941   9.656   0.943   1.714
58682SOL     OW77942   5.057   7.640  14.052
58682SOL    HW177943   4.989   7.704  14.074
58682SOL    HW277944   5.037   7.614  13.962
58683SOL     OW77945   8.033  13.147  12.306
58683SOL    HW177946   7.991  13.233  12.317
58683SOL    HW277947   8.051  13.141  12.213
58684SOL     OW77948   6.070   7.979   4.416
58684SOL    HW177949   5.983   8.018   4.419
58684SOL    HW277950   6.130   8.054   4.411
58685SOL     OW77951  12.133   1.543  13.369
58685SOL    HW177952  12.074   1.474  13.340
58685SOL    HW277953  12.137   1.532  13.464
58686SOL     OW77954   5.893   6.130   7.675
58686SOL    HW177955   5.806   6.134   7.716
58686SOL    HW277956   5.908   6.220   7.644
58687SOL     OW77957   1.915  10.144   3.571
58687SOL    HW177958   1.959  10.220   3.607
58687SOL    HW277959   1.823  10.168   3.568
58688SOL     OW77960  12.261   3.459   5.320
58688SOL    HW177961  12.171   3.426   5.314
58688SOL    HW277962  12.298   3.442   5.233
58689SOL     OW77963  13.176  10.661   5.822
58689SOL    HW177964  13.101  10.720   5.818
58689SOL    HW277965  13.161  10.599   5.751
58690SOL     OW77966  13.560   5.700   8.840
58690SOL    HW177967  13.484   5.669   8.889
58690SOL    HW277968  13.570   5.636   8.769
58691SOL     OW77969   6.264   6.242   7.844
58691SOL    HW177970   6.292   6.178   7.780
58691SOL    HW277971   6.207   6.194   7.904
58692SOL     OW77972   5.533  10.421   0.652
58692SOL    HW177973   5.540  10.508   0.612
58692SOL    HW277974   5.459  10.429   0.713
58693SOL     OW77975   4.875   1.764   8.785
58693SOL    HW177976   4.867   1.855   8.813
58693SOL    HW277977   4.787   1.738   8.760
58694SOL     OW77978   5.787   2.802  13.766
58694SOL    HW177979   5.743   2.885  13.787
58694SOL    HW277980   5.865   2.801  13.822
58695SOL     OW77981   7.308   4.772   2.158
58695SOL    HW177982   7.342   4.724   2.234
58695SOL    HW277983   7.385   4.787   2.104
58696SOL     OW77984   2.260   4.576   8.492
58696SOL    HW177985   2.246   4.529   8.574
58696SOL    HW277986   2.348   4.612   8.499
58697SOL     OW77987  11.226  11.275  10.973
58697SOL    HW177988  11.246  11.249  11.063
58697SOL    HW277989  11.133  11.255  10.962
58698SOL     OW77990  14.835   3.361   2.567
58698SOL    HW177991  14.801   3.349   2.479
58698SOL    HW277992   0.036   3.307   2.570
58699SOL     OW77993   3.327   6.108   1.821
58699SOL    HW177994   3.350   6.188   1.774
58699SOL    HW277995   3.233   6.099   1.809
58700SOL     OW77996   5.662   5.888   4.410
58700SOL    HW177997   5.625   5.825   4.472
58700SOL    HW277998   5.660   5.972   4.457
58701SOL     OW77999  10.170   1.397   3.318
58701SOL    HW178000  10.166   1.311   3.361
58701SOL    HW278001  10.263   1.411   3.300
58702SOL     OW78002  13.767   3.498   4.245
58702SOL    HW178003  13.848   3.546   4.227
58702SOL    HW278004  13.714   3.509   4.167
58703SOL     OW78005   0.492   6.459   3.298
58703SOL    HW178006   0.417   6.493   3.345
58703SOL    HW278007   0.539   6.536   3.267
58704SOL     OW78008   4.718   3.087   4.324
58704SOL    HW178009   4.738   3.123   4.238
58704SOL    HW278010   4.644   3.028   4.308
58705SOL     OW78011   6.033   9.224  12.087
58705SOL    HW178012   6.097   9.279  12.043
58705SOL    HW278013   6.068   9.135  12.078
58706SOL     OW78014  13.773   8.041   3.915
58706SOL    HW178015  13.723   8.083   3.845
58706SOL    HW278016  13.756   8.095   3.992
58707SOL     OW78017  13.959   7.062   0.304
58707SOL    HW178018  13.986   7.104   0.385
58707SOL    HW278019  13.921   7.133   0.252
58708SOL     OW78020  14.332   1.040   5.630
58708SOL    HW178021  14.261   1.005   5.577
58708SOL    HW278022  14.387   0.964   5.651
58709SOL     OW78023  13.368   6.671  14.820
58709SOL    HW178024  13.295   6.721  14.783
58709SOL    HW278025  13.356   6.583  14.786
58710SOL     OW78026   1.844   6.778   5.230
58710SOL    HW178027   1.893   6.747   5.306
58710SOL    HW278028   1.783   6.707   5.209
58711SOL     OW78029  12.454  10.595   4.356
58711SOL    HW178030  12.398  10.579   4.433
58711SOL    HW278031  12.513  10.665   4.384
58712SOL     OW78032   4.966   3.739   7.359
58712SOL    HW178033   4.897   3.694   7.312
58712SOL    HW278034   5.040   3.678   7.358
58713SOL     OW78035   6.030  12.022   0.961
58713SOL    HW178036   6.074  11.961   0.903
58713SOL    HW278037   5.950  11.976   0.987
58714SOL     OW78038   1.035  10.889   7.856
58714SOL    HW178039   0.952  10.922   7.890
58714SOL    HW278040   1.026  10.793   7.861
58715SOL     OW78041   2.396  13.254  10.479
58715SOL    HW178042   2.330  13.195  10.443
58715SOL    HW278043   2.429  13.208  10.557
58716SOL     OW78044   1.984   9.440  14.746
58716SOL    HW178045   2.036   9.498  14.691
58716SOL    HW278046   1.984   9.356  14.699
58717SOL     OW78047   1.038  10.905   6.379
58717SOL    HW178048   0.957  10.947   6.349
58717SOL    HW278049   1.035  10.817   6.343
58718SOL     OW78050   1.382  14.405   0.070
58718SOL    HW178051   1.415  14.396   0.159
58718SOL    HW278052   1.287  14.403   0.079
58719SOL     OW78053  10.845   9.969   4.432
58719SOL    HW178054  10.781   9.946   4.364
58719SOL    HW278055  10.883   9.885   4.458
58720SOL     OW78056   0.262  14.576   5.771
58720SOL    HW178057   0.201  14.635   5.726
58720SOL    HW278058   0.211  14.542   5.845
58721SOL     OW78059   8.222  13.155   4.149
58721SOL    HW178060   8.228  13.201   4.065
58721SOL    HW278061   8.131  13.167   4.176
58722SOL     OW78062  10.378   2.389   4.432
58722SOL    HW178063  10.419   2.409   4.347
58722SOL    HW278064  10.347   2.299   4.423
58723SOL     OW78065   8.669  10.872  11.561
58723SOL    HW178066   8.614  10.815  11.508
58723SOL    HW278067   8.609  10.909  11.626
58724SOL     OW78068  11.740   0.099  10.949
58724SOL    HW178069  11.748   0.054  10.865
58724SOL    HW278070  11.744   0.192  10.927
58725SOL     OW78071   6.200   2.364   0.880
58725SOL    HW178072   6.268   2.377   0.946
58725SOL    HW278073   6.240   2.393   0.798
58726SOL     OW78074   3.280   3.167  14.039
58726SOL    HW178075   3.314   3.157  13.950
58726SOL    HW278076   3.221   3.093  14.050
58727SOL     OW78077  13.488   3.367  12.401
58727SOL    HW178078  13.484   3.422  12.479
58727SOL    HW278079  13.400   3.331  12.394
58728SOL     OW78080   4.627   9.419  13.929
58728SOL    HW178081   4.567   9.360  13.975
58728SOL    HW278082   4.714   9.388  13.954
58729SOL     OW78083  14.138   0.186   7.034
58729SOL    HW178084  14.200   0.218   6.970
58729SOL    HW278085  14.107   0.102   6.998
58730SOL     OW78086  14.828   4.485  11.205
58730SOL    HW178087  14.760   4.503  11.271
58730SOL    HW278088  14.850   4.393  11.217
58731SOL     OW78089   1.129   5.627  14.415
58731SOL    HW178090   1.085   5.550  14.449
58731SOL    HW278091   1.161   5.601  14.329
58732SOL     OW78092   3.813   3.422   0.368
58732SOL    HW178093   3.723   3.422   0.401
58732SOL    HW278094   3.846   3.509   0.388
58733SOL     OW78095  14.774   5.748   8.715
58733SOL    HW178096  14.817   5.802   8.649
58733SOL    HW278097  14.804   5.659   8.697
58734SOL     OW78098   8.824   9.075  10.108
58734SOL    HW178099   8.869   8.999  10.071
58734SOL    HW278100   8.890   9.145  10.106
58735SOL     OW78101   9.837   0.137  13.624
58735SOL    HW178102   9.898   0.208  13.641
58735SOL    HW278103   9.891   0.067  13.588
58736SOL     OW78104   8.064   2.300   3.514
58736SOL    HW178105   8.055   2.395   3.507
58736SOL    HW278106   8.000   2.265   3.452
58737SOL     OW78107  12.319  10.046  10.917
58737SOL    HW178108  12.323  10.138  10.892
58737SOL    HW278109  12.323  10.047  11.013
58738SOL     OW78110  10.382   7.286   8.664
58738SOL    HW178111  10.431   7.297   8.746
58738SOL    HW278112  10.419   7.207   8.624
58739SOL     OW78113  14.244   8.060  13.371
58739SOL    HW178114  14.270   7.971  13.349
58739SOL    HW278115  14.303   8.085  13.443
58740SOL     OW78116  10.625   5.040   2.957
58740SOL    HW178117  10.718   5.018   2.946
58740SOL    HW278118  10.587   5.029   2.870
58741SOL     OW78119   1.629   8.542   2.809
58741SOL    HW178120   1.556   8.552   2.748
58741SOL    HW278121   1.602   8.471   2.867
58742SOL     OW78122   4.348   5.368   8.560
58742SOL    HW178123   4.439   5.368   8.531
58742SOL    HW278124   4.297   5.390   8.482
58743SOL     OW78125  12.754  11.758   2.308
58743SOL    HW178126  12.658  11.759   2.310
58743SOL    HW278127  12.779  11.697   2.377
58744SOL     OW78128   7.181   3.613   7.213
58744SOL    HW178129   7.156   3.525   7.183
58744SOL    HW278130   7.247   3.597   7.281
58745SOL     OW78131   0.287  12.337  12.458
58745SOL    HW178132   0.274  12.243  12.445
58745SOL    HW278133   0.314  12.369  12.372
58746SOL     OW78134   2.457   4.379  11.165
58746SOL    HW178135   2.443   4.311  11.231
58746SOL    HW278136   2.498   4.450  11.213
58747SOL     OW78137   3.440   5.255  13.288
58747SOL    HW178138   3.346   5.268  13.274
58747SOL    HW278139   3.463   5.183  13.229
58748SOL     OW78140   3.560   3.183   9.850
58748SOL    HW178141   3.598   3.222   9.929
58748SOL    HW278142   3.621   3.205   9.780
58749SOL     OW78143   7.524  12.115  12.457
58749SOL    HW178144   7.503  12.034  12.502
58749SOL    HW278145   7.439  12.154  12.436
58750SOL     OW78146   6.166   9.442  13.281
58750SOL    HW178147   6.256   9.474  13.275
58750SOL    HW278148   6.125   9.468  13.199
58751SOL     OW78149   5.235   8.335  14.124
58751SOL    HW178150   5.197   8.305  14.207
58751SOL    HW278151   5.254   8.255  14.076
58752SOL     OW78152  14.116   8.879   9.379
58752SOL    HW178153  14.178   8.951   9.386
58752SOL    HW278154  14.054   8.907   9.311
58753SOL     OW78155  10.056   5.979  10.864
58753SOL    HW178156  10.015   6.051  10.914
58753SOL    HW278157  10.105   6.024  10.795
58754SOL     OW78158   7.749   4.005   3.026
58754SOL    HW178159   7.789   4.069   2.968
58754SOL    HW278160   7.822   3.946   3.049
58755SOL     OW78161   3.316   0.386   0.107
58755SOL    HW178162   3.345   0.309   0.156
58755SOL    HW278163   3.281   0.445   0.173
58756SOL     OW78164   3.938   0.128   6.574
58756SOL    HW178165   3.925   0.045   6.527
58756SOL    HW278166   3.852   0.168   6.577
58757SOL     OW78167   7.807  12.677  13.383
58757SOL    HW178168   7.827  12.584  13.395
58757SOL    HW278169   7.859  12.722  13.449
58758SOL     OW78170  10.717   8.833   9.893
58758SOL    HW178171  10.801   8.879   9.891
58758SOL    HW278172  10.739   8.745   9.923
58759SOL     OW78173   6.670   5.625   3.253
58759SOL    HW178174   6.676   5.604   3.346
58759SOL    HW278175   6.745   5.581   3.213
58760SOL     OW78176   2.628  14.609   4.765
58760SOL    HW178177   2.643  14.695   4.727
58760SOL    HW278178   2.597  14.555   4.692
58761SOL     OW78179  12.434  12.111   5.554
58761SOL    HW178180  12.431  12.109   5.458
58761SOL    HW278181  12.528  12.104   5.575
58762SOL     OW78182   2.576  12.254  12.767
58762SOL    HW178183   2.565  12.211  12.682
58762SOL    HW278184   2.644  12.319  12.752
58763SOL     OW78185   3.784   3.024  12.247
58763SOL    HW178186   3.778   3.119  12.261
58763SOL    HW278187   3.732   2.986  12.318
58764SOL     OW78188   6.263   5.613   8.838
58764SOL    HW178189   6.321   5.541   8.812
58764SOL    HW278190   6.201   5.572   8.899
58765SOL     OW78191  13.030  12.056   3.874
58765SOL    HW178192  12.972  12.113   3.822
58765SOL    HW278193  13.108  12.045   3.819
58766SOL     OW78194  11.401   4.399   4.185
58766SOL    HW178195  11.495   4.400   4.205
58766SOL    HW278196  11.365   4.334   4.245
58767SOL     OW78197   5.282   2.948  14.247
58767SOL    HW178198   5.215   2.906  14.192
58767SOL    HW278199   5.240   3.029  14.277
58768SOL     OW78200   7.429  14.493   9.051
58768SOL    HW178201   7.336  14.471   9.045
58768SOL    HW278202   7.467  14.422   9.103
58769SOL     OW78203   3.778   1.879   7.943
58769SOL    HW178204   3.730   1.829   7.877
58769SOL    HW278205   3.811   1.956   7.895
58770SOL     OW78206  10.975   0.701   9.913
58770SOL    HW178207  10.979   0.618   9.960
58770SOL    HW278208  10.979   0.768   9.982
58771SOL     OW78209   1.363  11.065  14.324
58771SOL    HW178210   1.366  10.997  14.391
58771SOL    HW278211   1.411  11.027  14.250
58772SOL     OW78212   7.410   1.027   8.882
58772SOL    HW178213   7.418   1.044   8.788
58772SOL    HW278214   7.497   0.995   8.908
58773SOL     OW78215   9.976  13.603  14.877
58773SOL    HW178216   9.975  13.523  14.824
58773SOL    HW278217  10.014  13.576   0.083
58774SOL     OW78218   1.813  11.575   9.311
58774SOL    HW178219   1.792  11.488   9.344
58774SOL    HW278220   1.769  11.635   9.371
58775SOL     OW78221  10.379   2.026   2.395
58775SOL    HW178222  10.420   2.087   2.457
58775SOL    HW278223  10.427   1.944   2.407
58776SOL     OW78224  14.606   7.784   5.469
58776SOL    HW178225  14.641   7.790   5.380
58776SOL    HW278226  14.659   7.717   5.512
58777SOL     OW78227   0.421  11.438  12.795
58777SOL    HW178228   0.388  11.399  12.876
58777SOL    HW278229   0.498  11.385  12.773
58778SOL     OW78230   9.103   6.974   8.684
58778SOL    HW178231   9.050   6.933   8.753
58778SOL    HW278232   9.047   6.970   8.606
58779SOL     OW78233   2.072   8.357  11.271
58779SOL    HW178234   2.011   8.402  11.330
58779SOL    HW278235   2.108   8.286  11.324
58780SOL     OW78236   0.617   0.371  11.797
58780SOL    HW178237   0.562   0.368  11.718
58780SOL    HW278238   0.592   0.293  11.847
58781SOL     OW78239   5.599  14.087   7.550
58781SOL    HW178240   5.613  14.138   7.629
58781SOL    HW278241   5.633  14.000   7.571
58782SOL     OW78242   1.033   1.893   3.444
58782SOL    HW178243   0.987   1.825   3.493
58782SOL    HW278244   0.985   1.900   3.361
58783SOL     OW78245   8.351   6.687   9.519
58783SOL    HW178246   8.386   6.627   9.584
58783SOL    HW278247   8.402   6.670   9.440
58784SOL     OW78248   7.442  13.217  14.290
58784SOL    HW178249   7.398  13.248  14.211
58784SOL    HW278250   7.443  13.122  14.282
58785SOL     OW78251  12.954   5.266   1.684
58785SOL    HW178252  12.963   5.362   1.687
58785SOL    HW278253  12.925   5.242   1.772
58786SOL     OW78254  13.158  13.983   3.232
58786SOL    HW178255  13.126  13.895   3.211
58786SOL    HW278256  13.103  14.041   3.179
58787SOL     OW78257   7.239   1.611   3.523
58787SOL    HW178258   7.327   1.616   3.560
58787SOL    HW278259   7.190   1.679   3.570
58788SOL     OW78260  13.302  10.092  11.962
58788SOL    HW178261  13.336  10.148  11.893
58788SOL    HW278262  13.208  10.111  11.965
58789SOL     OW78263   9.159  11.717   6.253
58789SOL    HW178264   9.240  11.671   6.229
58789SOL    HW278265   9.111  11.724   6.170
58790SOL     OW78266   5.390  14.207  14.787
58790SOL    HW178267   5.363  14.224  14.697
58790SOL    HW278268   5.457  14.274  14.804
58791SOL     OW78269   3.965   3.139  10.195
58791SOL    HW178270   3.956   3.157  10.289
58791SOL    HW278271   4.056   3.159  10.175
58792SOL     OW78272   8.078   4.904   8.016
58792SOL    HW178273   8.058   4.956   8.094
58792SOL    HW278274   8.117   4.967   7.955
58793SOL     OW78275   9.346  14.788  12.363
58793SOL    HW178276   9.378  14.751  12.281
58793SOL    HW278277   9.390  14.872  12.371
58794SOL     OW78278   4.726   2.040   0.752
58794SOL    HW178279   4.675   2.083   0.821
58794SOL    HW278280   4.813   2.031   0.789
58795SOL     OW78281   3.692  13.255   6.067
58795SOL    HW178282   3.643  13.173   6.075
58795SOL    HW278283   3.706  13.283   6.157
58796SOL     OW78284   1.265   6.558   8.634
58796SOL    HW178285   1.323   6.532   8.706
58796SOL    HW278286   1.237   6.646   8.657
58797SOL     OW78287   1.896   3.400  11.405
58797SOL    HW178288   1.911   3.494  11.411
58797SOL    HW278289   1.982   3.360  11.420
58798SOL     OW78290   8.909   1.087   2.547
58798SOL    HW178291   8.867   1.124   2.470
58798SOL    HW278292   8.898   1.153   2.615
58799SOL     OW78293  13.377   3.424   1.858
58799SOL    HW178294  13.415   3.336   1.853
58799SOL    HW278295  13.306   3.416   1.921
58800SOL     OW78296  12.247  14.496   3.523
58800SOL    HW178297  12.293  14.549   3.457
58800SOL    HW278298  12.316  14.465   3.581
58801SOL     OW78299   9.531  14.427   9.694
58801SOL    HW178300   9.555  14.473   9.774
58801SOL    HW278301   9.604  14.444   9.634
58802SOL     OW78302   5.131   1.662  12.892
58802SOL    HW178303   5.065   1.595  12.872
58802SOL    HW278304   5.177   1.628  12.969
58803SOL     OW78305  11.321   5.424   6.082
58803SOL    HW178306  11.412   5.450   6.096
58803SOL    HW278307  11.270   5.497   6.117
58804SOL     OW78308   0.779  14.031   1.272
58804SOL    HW178309   0.832  14.012   1.195
58804SOL    HW278310   0.690  14.007   1.247
58805SOL     OW78311   4.242   0.244  10.208
58805SOL    HW178312   4.307   0.243  10.278
58805SOL    HW278313   4.286   0.290  10.136
58806SOL     OW78314   4.543   9.390   7.943
58806SOL    HW178315   4.546   9.381   8.038
58806SOL    HW278316   4.568   9.303   7.911
58807SOL     OW78317  10.674   6.721   6.419
58807SOL    HW178318  10.589   6.701   6.381
58807SOL    HW278319  10.736   6.709   6.347
58808SOL     OW78320  14.184   3.416   1.020
58808SOL    HW178321  14.231   3.443   1.098
58808SOL    HW278322  14.235   3.343   0.985
58809SOL     OW78323   7.778   1.778   6.815
58809SOL    HW178324   7.723   1.701   6.804
58809SOL    HW278325   7.867   1.745   6.818
58810SOL     OW78326  12.523  12.100   9.796
58810SOL    HW178327  12.562  12.110   9.883
58810SOL    HW278328  12.595  12.120   9.735
58811SOL     OW78329   5.678   8.568  12.546
58811SOL    HW178330   5.706   8.610  12.628
58811SOL    HW278331   5.596   8.525  12.568
58812SOL     OW78332   8.914   8.574   2.835
58812SOL    HW178333   9.008   8.586   2.827
58812SOL    HW278334   8.899   8.555   2.927
58813SOL     OW78335   5.143   6.886   2.247
58813SOL    HW178336   5.106   6.810   2.201
58813SOL    HW278337   5.104   6.882   2.335
58814SOL     OW78338   8.782   8.247  12.358
58814SOL    HW178339   8.812   8.156  12.360
58814SOL    HW278340   8.725   8.255  12.435
58815SOL     OW78341   6.966  11.321   5.905
58815SOL    HW178342   6.923  11.245   5.865
58815SOL    HW278343   7.058  11.311   5.880
58816SOL     OW78344   2.034   6.602  12.894
58816SOL    HW178345   1.952   6.564  12.925
58816SOL    HW278346   2.094   6.528  12.886
58817SOL     OW78347  13.687  13.684  11.365
58817SOL    HW178348  13.728  13.720  11.285
58817SOL    HW278349  13.761  13.667  11.423
58818SOL     OW78350  11.004   5.145   1.879
58818SOL    HW178351  10.992   5.238   1.856
58818SOL    HW278352  11.096   5.139   1.906
58819SOL     OW78353   0.063  13.772   4.178
58819SOL    HW178354   0.107  13.825   4.111
58819SOL    HW278355   0.132  13.749   4.240
58820SOL     OW78356  13.541   4.238   6.383
58820SOL    HW178357  13.509   4.148   6.375
58820SOL    HW278358  13.605   4.234   6.454
58821SOL     OW78359   6.138   0.936   6.852
58821SOL    HW178360   6.195   0.996   6.803
58821SOL    HW278361   6.172   0.937   6.941
58822SOL     OW78362   8.615   1.047   2.560
58822SOL    HW178363   8.595   0.977   2.498
58822SOL    HW278364   8.708   1.035   2.580
58823SOL     OW78365   9.365   0.985  11.385
58823SOL    HW178366   9.437   0.929  11.356
58823SOL    HW278367   9.296   0.925  11.413
58824SOL     OW78368   3.767  10.621  14.468
58824SOL    HW178369   3.693  10.657  14.517
58824SOL    HW278370   3.809  10.697  14.428
58825SOL     OW78371   3.405   7.078   8.847
58825SOL    HW178372   3.391   7.172   8.859
58825SOL    HW278373   3.449   7.050   8.927
58826SOL     OW78374  14.864  14.792  13.028
58826SOL    HW178375  14.797  14.859  13.040
58826SOL    HW278376   0.024  14.780  13.115
58827SOL     OW78377   8.863  10.945   6.237
58827SOL    HW178378   8.799  10.889   6.195
58827SOL    HW278379   8.839  11.034   6.209
58828SOL     OW78380   7.307   5.092  12.793
58828SOL    HW178381   7.242   5.092  12.722
58828SOL    HW278382   7.380   5.041  12.758
58829SOL     OW78383  14.565   0.755   6.408
58829SOL    HW178384  14.549   0.843   6.441
58829SOL    HW278385  14.507   0.699   6.461
58830SOL     OW78386   6.587   2.503   4.306
58830SOL    HW178387   6.625   2.454   4.234
58830SOL    HW278388   6.568   2.589   4.269
58831SOL     OW78389  10.402   6.694   7.121
58831SOL    HW178390  10.339   6.765   7.109
58831SOL    HW278391  10.357   6.615   7.091
58832SOL     OW78392  13.686   1.993  12.844
58832SOL    HW178393  13.700   1.905  12.880
58832SOL    HW278394  13.685   1.980  12.749
58833SOL     OW78395   8.863   7.243   6.478
58833SOL    HW178396   8.955   7.247   6.455
58833SOL    HW278397   8.830   7.165   6.433
58834SOL     OW78398   4.222   1.080   2.648
58834SOL    HW178399   4.197   1.122   2.731
58834SOL    HW278400   4.302   1.031   2.669
58835SOL     OW78401  10.811   2.832  10.248
58835SOL    HW178402  10.826   2.907  10.191
58835SOL    HW278403  10.860   2.760  10.206
58836SOL     OW78404   4.105   9.684   2.528
58836SOL    HW178405   4.073   9.608   2.576
58836SOL    HW278406   4.089   9.663   2.436
58837SOL     OW78407   6.975  14.017  12.392
58837SOL    HW178408   6.940  13.933  12.424
58837SOL    HW278409   7.068  14.014  12.413
58838SOL     OW78410  10.822  13.086   0.870
58838SOL    HW178411  10.844  12.994   0.860
58838SOL    HW278412  10.881  13.131   0.810
58839SOL     OW78413  14.688   4.001   2.908
58839SOL    HW178414  14.782   4.019   2.916
58839SOL    HW278415  14.654   4.014   2.997
58840SOL     OW78416   0.920   6.255   6.756
58840SOL    HW178417   0.836   6.213   6.737
58840SOL    HW278418   0.934   6.240   6.849
58841SOL     OW78419   2.092  13.229  14.214
58841SOL    HW178420   2.024  13.164  14.233
58841SOL    HW278421   2.156  13.217  14.283
58842SOL     OW78422  10.483  10.965   9.981
58842SOL    HW178423  10.570  10.957   9.941
58842SOL    HW278424  10.493  10.928  10.068
58843SOL     OW78425   5.747  10.382  13.584
58843SOL    HW178426   5.789  10.452  13.634
58843SOL    HW278427   5.661  10.417  13.561
58844SOL     OW78428   8.448  13.689   0.439
58844SOL    HW178429   8.518  13.726   0.493
58844SOL    HW278430   8.463  13.595   0.441
58845SOL     OW78431  13.106  11.809   7.413
58845SOL    HW178432  13.117  11.798   7.319
58845SOL    HW278433  13.155  11.737   7.452
58846SOL     OW78434   0.478   4.602  13.712
58846SOL    HW178435   0.434   4.611  13.628
58846SOL    HW278436   0.528   4.683  13.721
58847SOL     OW78437   6.416   7.446   5.056
58847SOL    HW178438   6.460   7.369   5.091
58847SOL    HW278439   6.487   7.503   5.025
58848SOL     OW78440   2.948   9.206   6.872
58848SOL    HW178441   3.039   9.188   6.849
58848SOL    HW278442   2.917   9.264   6.802
58849SOL     OW78443  14.415   4.667   8.340
58849SOL    HW178444  14.329   4.665   8.299
58849SOL    HW278445  14.412   4.598   8.406
58850SOL     OW78446  12.904  10.457   3.837
58850SOL    HW178447  12.851  10.460   3.917
58850SOL    HW278448  12.948  10.542   3.835
58851SOL     OW78449   2.973   1.556  10.884
58851SOL    HW178450   3.062   1.553  10.848
58851SOL    HW278451   2.919   1.515  10.816
58852SOL     OW78452   3.663  12.427   7.297
58852SOL    HW178453   3.680  12.518   7.272
58852SOL    HW278454   3.731  12.407   7.361
58853SOL     OW78455  13.814   7.292   8.020
58853SOL    HW178456  13.895   7.319   7.976
58853SOL    HW278457  13.839   7.280   8.111
58854SOL     OW78458   1.803   6.303   7.104
58854SOL    HW178459   1.773   6.309   7.195
58854SOL    HW278460   1.732   6.342   7.053
58855SOL     OW78461  11.443  11.998   3.949
58855SOL    HW178462  11.352  12.003   3.979
58855SOL    HW278463  11.479  11.922   3.995
58856SOL     OW78464  14.584   8.049  12.914
58856SOL    HW178465  14.539   8.003  12.843
58856SOL    HW278466  14.526   8.121  12.937
58857SOL     OW78467   2.105  13.035   7.309
58857SOL    HW178468   2.104  12.968   7.378
58857SOL    HW278469   2.033  13.093   7.331
58858SOL     OW78470   5.984   0.401   8.096
58858SOL    HW178471   5.891   0.405   8.075
58858SOL    HW278472   6.014   0.492   8.086
58859SOL     OW78473   9.226   2.109   8.377
58859SOL    HW178474   9.222   2.205   8.382
58859SOL    HW278475   9.145   2.084   8.332
58860SOL     OW78476   8.883  11.659   7.926
58860SOL    HW178477   8.977  11.652   7.942
58860SOL    HW278478   8.859  11.743   7.966
58861SOL     OW78479  13.422  14.113   5.547
58861SOL    HW178480  13.363  14.061   5.493
58861SOL    HW278481  13.457  14.179   5.488
58862SOL     OW78482   4.823   6.751   0.694
58862SOL    HW178483   4.794   6.802   0.770
58862SOL    HW278484   4.908   6.715   0.720
58863SOL     OW78485   0.659   4.682   8.802
58863SOL    HW178486   0.743   4.719   8.776
58863SOL    HW278487   0.681   4.614   8.867
58864SOL     OW78488   9.350   1.070   8.993
58864SOL    HW178489   9.319   1.136   8.930
58864SOL    HW278490   9.349   1.115   9.077
58865SOL     OW78491   4.069   2.028   2.515
58865SOL    HW178492   4.162   2.014   2.493
58865SOL    HW278493   4.027   2.045   2.431
58866SOL     OW78494   5.007   7.556   4.619
58866SOL    HW178495   5.046   7.479   4.578
58866SOL    HW278496   5.000   7.533   4.711
58867SOL     OW78497  12.015  12.600   4.490
58867SOL    HW178498  12.013  12.543   4.567
58867SOL    HW278499  12.069  12.674   4.517
58868SOL     OW78500  12.318   3.731   8.990
58868SOL    HW178501  12.391   3.792   8.992
58868SOL    HW278502  12.300   3.711   9.082
58869SOL     OW78503  14.847   7.176   2.389
58869SOL    HW178504   0.040   7.204   2.449
58869SOL    HW278505  14.810   7.258   2.356
58870SOL     OW78506   0.580   4.925  10.083
58870SOL    HW178507   0.513   4.883  10.136
58870SOL    HW278508   0.531   4.983  10.024
58871SOL     OW78509   8.851   6.222  10.386
58871SOL    HW178510   8.870   6.129  10.391
58871SOL    HW278511   8.798   6.241  10.464
58872SOL     OW78512   5.508  12.228  14.214
58872SOL    HW178513   5.465  12.158  14.165
58872SOL    HW278514   5.599  12.199  14.224
58873SOL     OW78515  11.046   7.122   2.146
58873SOL    HW178516  11.053   7.187   2.216
58873SOL    HW278517  11.037   7.174   2.066
58874SOL     OW78518   5.129  13.855   3.223
58874SOL    HW178519   5.178  13.804   3.288
58874SOL    HW278520   5.114  13.793   3.151
58875SOL     OW78521   4.335   6.789   1.530
58875SOL    HW178522   4.351   6.772   1.623
58875SOL    HW278523   4.339   6.884   1.523
58876SOL     OW78524  10.584  14.239  14.577
58876SOL    HW178525  10.614  14.301  14.644
58876SOL    HW278526  10.601  14.153  14.616
58877SOL     OW78527  14.658  12.027   4.638
58877SOL    HW178528  14.749  12.043   4.665
58877SOL    HW278529  14.605  12.056   4.711
58878SOL     OW78530  11.366   0.910  12.568
58878SOL    HW178531  11.278   0.895  12.603
58878SOL    HW278532  11.421   0.921  12.645
58879SOL     OW78533  13.223   7.928   2.420
58879SOL    HW178534  13.140   7.900   2.380
58879SOL    HW278535  13.196   7.968   2.503
58880SOL     OW78536   6.818   5.625   8.437
58880SOL    HW178537   6.826   5.570   8.359
58880SOL    HW278538   6.739   5.677   8.421
58881SOL     OW78539   6.516   9.845   6.915
58881SOL    HW178540   6.537   9.771   6.858
58881SOL    HW278541   6.420   9.845   6.920
58882SOL     OW78542   9.334   0.102  14.711
58882SOL    HW178543   9.352   0.008  14.718
58882SOL    HW278544   9.410   0.144  14.751
58883SOL     OW78545   3.439  13.650   2.039
58883SOL    HW178546   3.493  13.729   2.035
58883SOL    HW278547   3.351  13.682   2.058
58884SOL     OW78548   0.266   6.431   7.077
58884SOL    HW178549   0.356   6.413   7.049
58884SOL    HW278550   0.234   6.347   7.109
58885SOL     OW78551   8.518   1.117   1.786
58885SOL    HW178552   8.536   1.057   1.713
58885SOL    HW278553   8.438   1.164   1.760
58886SOL     OW78554   8.016   0.558  11.458
58886SOL    HW178555   8.078   0.562  11.530
58886SOL    HW278556   7.970   0.642  11.460
58887SOL     OW78557   7.237  11.738   2.828
58887SOL    HW178558   7.211  11.823   2.793
58887SOL    HW278559   7.187  11.730   2.909
58888SOL     OW78560  11.739   9.650   0.885
58888SOL    HW178561  11.756   9.598   0.963
58888SOL    HW278562  11.782   9.603   0.814
58889SOL     OW78563  12.039  11.570   9.150
58889SOL    HW178564  12.044  11.650   9.098
58889SOL    HW278565  12.083  11.592   9.232
58890SOL     OW78566  12.207   7.699   3.068
58890SOL    HW178567  12.266   7.645   3.015
58890SOL    HW278568  12.121   7.658   3.057
58891SOL     OW78569   5.842  11.375   0.811
58891SOL    HW178570   5.882  11.352   0.727
58891SOL    HW278571   5.789  11.452   0.792
58892SOL     OW78572   2.849   0.848   5.470
58892SOL    HW178573   2.763   0.876   5.438
58892SOL    HW278574   2.849   0.873   5.562
58893SOL     OW78575  10.524  13.824  13.341
58893SOL    HW178576  10.456  13.887  13.363
58893SOL    HW278577  10.477  13.750  13.302
58894SOL     OW78578   4.863  14.363   6.251
58894SOL    HW178579   4.937  14.414   6.284
58894SOL    HW278580   4.816  14.423   6.194
58895SOL     OW78581  10.040  14.393  10.722
58895SOL    HW178582   9.983  14.343  10.780
58895SOL    HW278583  10.072  14.329  10.658
58896SOL     OW78584   4.835   7.144  12.073
58896SOL    HW178585   4.832   7.103  11.986
58896SOL    HW278586   4.919   7.118  12.109
58897SOL     OW78587  13.212   9.315   0.543
58897SOL    HW178588  13.118   9.302   0.536
58897SOL    HW278589  13.238   9.352   0.458
58898SOL     OW78590  11.361  10.242   8.445
58898SOL    HW178591  11.359  10.338   8.446
58898SOL    HW278592  11.269  10.216   8.455
58899SOL     OW78593   2.894   4.036  14.725
58899SOL    HW178594   2.828   4.073  14.784
58899SOL    HW278595   2.848   4.022  14.642
58900SOL     OW78596   4.112   2.665  11.999
58900SOL    HW178597   4.147   2.753  12.010
58900SOL    HW278598   4.124   2.645  11.907
58901SOL     OW78599   4.790   8.143   0.381
58901SOL    HW178600   4.799   8.173   0.290
58901SOL    HW278601   4.696   8.135   0.395
58902SOL     OW78602   5.659   0.005  14.547
58902SOL    HW178603   5.619   0.090  14.534
58902SOL    HW278604   5.588  14.820  14.535
58903SOL     OW78605   1.452  11.884   1.970
58903SOL    HW178606   1.415  11.826   1.904
58903SOL    HW278607   1.466  11.828   2.047
58904SOL     OW78608  14.048   9.381   9.612
58904SOL    HW178609  14.032   9.462   9.564
58904SOL    HW278610  14.122   9.340   9.566
58905SOL     OW78611  11.114   4.956   6.599
58905SOL    HW178612  11.200   4.928   6.565
58905SOL    HW278613  11.063   4.875   6.603
58906SOL     OW78614   1.419   6.427   7.486
58906SOL    HW178615   1.477   6.381   7.546
58906SOL    HW278616   1.331   6.406   7.516
58907SOL     OW78617   8.872   0.838  13.093
58907SOL    HW178618   8.884   0.746  13.068
58907SOL    HW278619   8.821   0.833  13.174
58908SOL     OW78620   7.879  11.771  14.631
58908SOL    HW178621   7.930  11.786  14.711
58908SOL    HW278622   7.836  11.855  14.615
58909SOL     OW78623   6.998   3.280   2.959
58909SOL    HW178624   6.975   3.257   3.049
58909SOL    HW278625   7.088   3.250   2.949
58910SOL     OW78626   9.721   5.240  12.255
58910SOL    HW178627   9.648   5.269  12.310
58910SOL    HW278628   9.681   5.225  12.169
58911SOL     OW78629  14.395  14.264   9.323
58911SOL    HW178630  14.325  14.326   9.303
58911SOL    HW278631  14.356  14.178   9.307
58912SOL     OW78632  14.112   3.404   1.980
58912SOL    HW178633  14.070   3.448   1.906
58912SOL    HW278634  14.054   3.331   2.000
58913SOL     OW78635   0.942   3.833   0.662
58913SOL    HW178636   1.015   3.772   0.668
58913SOL    HW278637   0.868   3.780   0.635
58914SOL     OW78638  14.295   6.937   1.089
58914SOL    HW178639  14.269   6.961   1.178
58914SOL    HW278640  14.257   6.851   1.075
58915SOL     OW78641   9.447   8.581   4.166
58915SOL    HW178642   9.391   8.523   4.114
58915SOL    HW278643   9.508   8.619   4.103
58916SOL     OW78644  10.184  12.668  10.287
58916SOL    HW178645  10.238  12.677  10.208
58916SOL    HW278646  10.108  12.723  10.271
58917SOL     OW78647   1.152   2.789   0.626
58917SOL    HW178648   1.057   2.801   0.632
58917SOL    HW278649   1.164   2.694   0.619
58918SOL     OW78650   4.517  13.463   4.502
58918SOL    HW178651   4.520  13.484   4.596
58918SOL    HW278652   4.511  13.367   4.499
58919SOL     OW78653   3.822   5.826   1.809
58919SOL    HW178654   3.838   5.849   1.901
58919SOL    HW278655   3.900   5.780   1.781
58920SOL     OW78656   0.569  13.969  12.830
58920SOL    HW178657   0.654  13.999  12.797
58920SOL    HW278658   0.590  13.907  12.899
58921SOL     OW78659   3.361   3.203  13.136
58921SOL    HW178660   3.411   3.198  13.055
58921SOL    HW278661   3.388   3.285  13.177
58922SOL     OW78662  10.417  11.147  11.974
58922SOL    HW178663  10.480  11.189  11.915
58922SOL    HW278664  10.413  11.056  11.945
58923SOL     OW78665  14.492   3.030   1.940
58923SOL    HW178666  14.397   3.034   1.925
58923SOL    HW278667  14.527   2.986   1.863
58924SOL     OW78668  12.360  10.125   7.476
58924SOL    HW178669  12.450  10.095   7.465
58924SOL    HW278670  12.333  10.087   7.560
58925SOL     OW78671   1.966   7.215   5.952
58925SOL    HW178672   1.932   7.304   5.961
58925SOL    HW278673   2.060   7.228   5.935
58926SOL     OW78674   0.993   4.696   3.106
58926SOL    HW178675   0.977   4.636   3.179
58926SOL    HW278676   1.024   4.639   3.035
58927SOL     OW78677   6.604  14.373   8.282
58927SOL    HW178678   6.679  14.355   8.226
58927SOL    HW278679   6.542  14.303   8.263
58928SOL     OW78680   1.708   9.494  14.812
58928SOL    HW178681   1.676   9.503   0.025
58928SOL    HW278682   1.802   9.482  14.822
58929SOL     OW78683   1.529  11.615   9.744
58929SOL    HW178684   1.592  11.549   9.772
58929SOL    HW278685   1.449  11.565   9.728
58930SOL     OW78686   7.211  11.158   9.243
58930SOL    HW178687   7.187  11.231   9.186
58930SOL    HW278688   7.192  11.189   9.331
58931SOL     OW78689  10.032  13.529   3.270
58931SOL    HW178690  10.124  13.537   3.294
58931SOL    HW278691   9.990  13.488   3.345
58932SOL     OW78692   2.173   2.463   4.096
58932SOL    HW178693   2.156   2.403   4.023
58932SOL    HW278694   2.190   2.548   4.055
58933SOL     OW78695  11.081   6.597  10.166
58933SOL    HW178696  11.156   6.605  10.226
58933SOL    HW278697  11.111   6.635  10.084
58934SOL     OW78698   8.067   6.745   1.323
58934SOL    HW178699   8.025   6.831   1.323
58934SOL    HW278700   8.135   6.751   1.391
58935SOL     OW78701  14.872   4.312   3.199
58935SOL    HW178702   0.089   4.322   3.190
58935SOL    HW278703  14.845   4.391   3.247
58936SOL     OW78704  13.979  10.539   4.541
58936SOL    HW178705  13.930  10.458   4.528
58936SOL    HW278706  14.062  10.524   4.495
58937SOL     OW78707   1.721   1.932  13.532
58937SOL    HW178708   1.813   1.946  13.556
58937SOL    HW278709   1.695   2.013  13.488
58938SOL     OW78710  13.616   8.621   7.984
58938SOL    HW178711  13.574   8.640   8.068
58938SOL    HW278712  13.694   8.571   8.007
58939SOL     OW78713   9.660   3.694   0.476
58939SOL    HW178714   9.609   3.774   0.463
58939SOL    HW278715   9.707   3.682   0.393
58940SOL     OW78716  11.897   0.522  13.988
58940SOL    HW178717  11.825   0.531  14.051
58940SOL    HW278718  11.907   0.610  13.951
58941SOL     OW78719  10.033   4.117   2.343
58941SOL    HW178720  10.016   4.101   2.436
58941SOL    HW278721  10.123   4.149   2.341
58942SOL     OW78722   3.899   1.570  14.094
58942SOL    HW178723   3.850   1.631  14.150
58942SOL    HW278724   3.960   1.526  14.154
58943SOL     OW78725   0.283   2.245   0.239
58943SOL    HW178726   0.327   2.184   0.297
58943SOL    HW278727   0.231   2.190   0.181
58944SOL     OW78728  12.278  12.873   6.528
58944SOL    HW178729  12.254  12.958   6.564
58944SOL    HW278730  12.215  12.858   6.457
58945SOL     OW78731   9.374   3.869   3.054
58945SOL    HW178732   9.335   3.940   3.004
58945SOL    HW278733   9.303   3.838   3.111
58946SOL     OW78734   7.352   2.448   5.844
58946SOL    HW178735   7.427   2.474   5.898
58946SOL    HW278736   7.352   2.510   5.772
58947SOL     OW78737   4.215  10.820  14.211
58947SOL    HW178738   4.125  10.845  14.193
58947SOL    HW278739   4.266  10.864  14.143
58948SOL     OW78740  13.188   8.976   7.157
58948SOL    HW178741  13.156   8.897   7.200
58948SOL    HW278742  13.283   8.965   7.154
58949SOL     OW78743   6.787   3.693   9.820
58949SOL    HW178744   6.829   3.650   9.745
58949SOL    HW278745   6.859   3.734   9.868
58950SOL     OW78746   0.789  14.655   8.445
58950SOL    HW178747   0.874  14.685   8.412
58950SOL    HW278748   0.772  14.712   8.521
58951SOL     OW78749   0.075  10.155   9.349
58951SOL    HW178750   0.167  10.177   9.365
58951SOL    HW278751   0.026  10.227   9.387
58952SOL     OW78752   4.505   9.494  13.189
58952SOL    HW178753   4.512   9.410  13.234
58952SOL    HW278754   4.593   9.531  13.195
58953SOL     OW78755  14.040  13.829   2.517
58953SOL    HW178756  14.043  13.924   2.533
58953SOL    HW278757  13.981  13.818   2.443
58954SOL     OW78758   5.825   1.488   1.797
58954SOL    HW178759   5.843   1.394   1.802
58954SOL    HW278760   5.822   1.506   1.703
58955SOL     OW78761   8.710   5.106  10.908
58955SOL    HW178762   8.629   5.146  10.879
58955SOL    HW278763   8.688   5.013  10.920
58956SOL     OW78764   3.487   6.038   2.806
58956SOL    HW178765   3.444   6.122   2.821
58956SOL    HW278766   3.450   6.005   2.724
58957SOL     OW78767  10.301  11.551  14.258
58957SOL    HW178768  10.227  11.497  14.234
58957SOL    HW278769  10.350  11.498  14.321
58958SOL     OW78770   8.147  13.132   3.234
58958SOL    HW178771   8.139  13.190   3.310
58958SOL    HW278772   8.097  13.177   3.166
58959SOL     OW78773  13.799  14.324   1.910
58959SOL    HW178774  13.868  14.291   1.854
58959SOL    HW278775  13.783  14.253   1.973
58960SOL     OW78776  10.637  11.132   2.397
58960SOL    HW178777  10.616  11.044   2.366
58960SOL    HW278778  10.580  11.190   2.346
58961SOL     OW78779  13.038   6.552   9.497
58961SOL    HW178780  13.059   6.645   9.504
58961SOL    HW278781  12.956   6.542   9.546
58962SOL     OW78782   5.537   0.952   2.433
58962SOL    HW178783   5.511   1.042   2.451
58962SOL    HW278784   5.480   0.925   2.361
58963SOL     OW78785   9.252   9.373  10.909
58963SOL    HW178786   9.247   9.313  10.834
58963SOL    HW278787   9.295   9.451  10.874
58964SOL     OW78788   6.374   6.663   5.050
58964SOL    HW178789   6.377   6.569   5.030
58964SOL    HW278790   6.466   6.687   5.062
58965SOL     OW78791   0.952   0.715   4.733
58965SOL    HW178792   0.869   0.687   4.771
58965SOL    HW278793   0.954   0.675   4.647
58966SOL     OW78794  11.512  10.200   0.879
58966SOL    HW178795  11.521  10.270   0.814
58966SOL    HW278796  11.466  10.130   0.833
58967SOL     OW78797  13.151  11.268  11.659
58967SOL    HW178798  13.073  11.284  11.606
58967SOL    HW278799  13.199  11.351  11.658
58968SOL     OW78800   5.504  14.310   4.184
58968SOL    HW178801   5.484  14.372   4.253
58968SOL    HW278802   5.455  14.231   4.208
58969SOL     OW78803  10.428   1.978   7.162
58969SOL    HW178804  10.383   2.019   7.088
58969SOL    HW278805  10.472   1.902   7.125
58970SOL     OW78806   9.473   5.576   4.567
58970SOL    HW178807   9.378   5.576   4.576
58970SOL    HW278808   9.504   5.518   4.636
58971SOL     OW78809  13.076  11.783   5.750
58971SOL    HW178810  13.139  11.746   5.811
58971SOL    HW278811  13.000  11.804   5.804
58972SOL     OW78812   6.431   7.698   1.118
58972SOL    HW178813   6.415   7.663   1.030
58972SOL    HW278814   6.525   7.714   1.120
58973SOL     OW78815  13.300   4.488  14.847
58973SOL    HW178816  13.360   4.525  14.783
58973SOL    HW278817  13.266   4.409  14.806
58974SOL     OW78818  10.801   8.614   8.666
58974SOL    HW178819  10.851   8.538   8.638
58974SOL    HW278820  10.744   8.634   8.592
58975SOL     OW78821   8.617   1.957  12.578
58975SOL    HW178822   8.559   1.882  12.568
58975SOL    HW278823   8.598   1.991  12.665
58976SOL     OW78824  11.687  10.425   6.668
58976SOL    HW178825  11.609  10.474   6.694
58976SOL    HW278826  11.714  10.378   6.748
58977SOL     OW78827   6.566   5.707   4.969
58977SOL    HW178828   6.515   5.681   5.046
58977SOL    HW278829   6.608   5.626   4.939
58978SOL     OW78830   3.225  11.654   4.033
58978SOL    HW178831   3.267  11.569   4.048
58978SOL    HW278832   3.288  11.718   4.067
58979SOL     OW78833   6.769   8.119  10.089
58979SOL    HW178834   6.819   8.185  10.041
58979SOL    HW278835   6.717   8.169  10.152
58980SOL     OW78836  12.645  13.527   9.046
58980SOL    HW178837  12.571  13.564   9.095
58980SOL    HW278838  12.683  13.462   9.105
58981SOL     OW78839  13.481   7.801   6.913
58981SOL    HW178840  13.541   7.749   6.860
58981SOL    HW278841  13.519   7.799   7.001
58982SOL     OW78842  10.585  13.453   0.710
58982SOL    HW178843  10.661  13.448   0.768
58982SOL    HW278844  10.520  13.503   0.760
58983SOL     OW78845   3.707   9.591   4.772
58983SOL    HW178846   3.789   9.599   4.724
58983SOL    HW278847   3.644   9.561   4.706
58984SOL     OW78848  12.641  12.252  14.178
58984SOL    HW178849  12.659  12.158  14.176
58984SOL    HW278850  12.635  12.273  14.271
58985SOL     OW78851   9.043   7.281   7.747
58985SOL    HW178852   8.997   7.275   7.664
58985SOL    HW278853   9.008   7.360   7.788
58986SOL     OW78854   5.000   8.213  14.767
58986SOL    HW178855   5.066   8.171  14.712
58986SOL    HW278856   4.930   8.236  14.706
58987SOL     OW78857   5.439   7.703   5.930
58987SOL    HW178858   5.361   7.647   5.930
58987SOL    HW278859   5.507   7.650   5.888
58988SOL     OW78860   4.835  11.097   8.078
58988SOL    HW178861   4.773  11.157   8.037
58988SOL    HW278862   4.906  11.087   8.014
58989SOL     OW78863  12.415   1.504   6.130
58989SOL    HW178864  12.487   1.568   6.124
58989SOL    HW278865  12.459   1.420   6.144
58990SOL     OW78866   2.422   5.551   2.517
58990SOL    HW178867   2.332   5.519   2.525
58990SOL    HW278868   2.422   5.603   2.436
58991SOL     OW78869  10.264   4.989   6.984
58991SOL    HW178870  10.184   5.026   6.946
58991SOL    HW278871  10.238   4.901   7.011
58992SOL     OW78872  13.620  12.830   5.153
58992SOL    HW178873  13.667  12.802   5.075
58992SOL    HW278874  13.549  12.766   5.163
58993SOL     OW78875  14.524  10.110   9.018
58993SOL    HW178876  14.466  10.099   9.093
58993SOL    HW278877  14.579  10.031   9.018
58994SOL     OW78878   4.664   2.554   1.265
58994SOL    HW178879   4.703   2.602   1.339
58994SOL    HW278880   4.638   2.470   1.302
58995SOL     OW78881  10.499   7.368   0.584
58995SOL    HW178882  10.522   7.331   0.669
58995SOL    HW278883  10.514   7.462   0.594
58996SOL     OW78884   6.935   8.965   5.447
58996SOL    HW178885   7.009   8.991   5.392
58996SOL    HW278886   6.877   9.041   5.448
58997SOL     OW78887   0.549  10.062   4.734
58997SOL    HW178888   0.529  10.143   4.687
58997SOL    HW278889   0.546   9.994   4.667
58998SOL     OW78890   5.490   9.827   6.343
58998SOL    HW178891   5.505   9.836   6.248
58998SOL    HW278892   5.546   9.895   6.382
58999SOL     OW78893   0.380   2.409   5.245
58999SOL    HW178894   0.377   2.313   5.244
58999SOL    HW278895   0.317   2.435   5.312
59000SOL     OW78896  12.322   8.857   2.440
59000SOL    HW178897  12.357   8.902   2.516
59000SOL    HW278898  12.264   8.790   2.476
59001SOL     OW78899   2.027   1.987   3.937
59001SOL    HW178900   2.071   1.994   3.852
59001SOL    HW278901   1.938   1.960   3.916
59002SOL     OW78902   3.064   6.184   4.261
59002SOL    HW178903   3.046   6.120   4.330
59002SOL    HW278904   3.064   6.268   4.306
59003SOL     OW78905  10.774   0.429   7.648
59003SOL    HW178906  10.713   0.389   7.586
59003SOL    HW278907  10.740   0.517   7.662
59004SOL     OW78908  14.418   8.072   0.481
59004SOL    HW178909  14.474   8.002   0.514
59004SOL    HW278910  14.464   8.107   0.406
59005SOL     OW78911   7.389   1.830  10.790
59005SOL    HW178912   7.461   1.775  10.758
59005SOL    HW278913   7.319   1.768  10.809
59006SOL     OW78914  13.100  12.018   0.360
59006SOL    HW178915  13.151  11.946   0.322
59006SOL    HW278916  13.093  11.997   0.453
59007SOL     OW78917   7.883  14.050   3.417
59007SOL    HW178918   7.809  13.994   3.393
59007SOL    HW278919   7.888  14.114   3.347
59008SOL     OW78920   0.143  10.287   8.094
59008SOL    HW178921   0.063  10.304   8.044
59008SOL    HW278922   0.207  10.260   8.028
59009SOL     OW78923   5.747  13.349  13.699
59009SOL    HW178924   5.832  13.394  13.693
59009SOL    HW278925   5.769  13.257  13.706
59010SOL     OW78926  14.483   6.054   7.451
59010SOL    HW178927  14.467   6.144   7.480
59010SOL    HW278928  14.411   6.035   7.392
59011SOL     OW78929  10.801  13.993   7.767
59011SOL    HW178930  10.772  13.981   7.677
59011SOL    HW278931  10.726  13.968   7.821
59012SOL     OW78932   7.613  11.594   2.316
59012SOL    HW178933   7.618  11.690   2.323
59012SOL    HW278934   7.687  11.562   2.367
59013SOL     OW78935   8.675   4.293   2.659
59013SOL    HW178936   8.744   4.229   2.643
59013SOL    HW278937   8.722   4.376   2.671
59014SOL     OW78938   0.355  12.375  12.196
59014SOL    HW178939   0.401  12.291  12.189
59014SOL    HW278940   0.364  12.414  12.109
59015SOL     OW78941   6.970   4.274   9.055
59015SOL    HW178942   7.024   4.223   8.994
59015SOL    HW278943   7.032   4.311   9.117
59016SOL     OW78944   2.066   1.963  11.032
59016SOL    HW178945   2.058   2.016  11.111
59016SOL    HW278946   2.135   2.006  10.981
59017SOL     OW78947   5.179   1.825  14.808
59017SOL    HW178948   5.230   1.744  14.799
59017SOL    HW278949   5.099   1.798  14.854
59018SOL     OW78950   3.220   8.501   8.662
59018SOL    HW178951   3.278   8.427   8.678
59018SOL    HW278952   3.248   8.536   8.577
59019SOL     OW78953   7.259   3.400   0.901
59019SOL    HW178954   7.180   3.453   0.890
59019SOL    HW278955   7.321   3.457   0.945
59020SOL     OW78956  11.850   7.289  13.473
59020SOL    HW178957  11.861   7.205  13.430
59020SOL    HW278958  11.940   7.320  13.488
59021SOL     OW78959   3.011   6.633   7.179
59021SOL    HW178960   3.079   6.700   7.188
59021SOL    HW278961   3.009   6.612   7.086
59022SOL     OW78962   8.486   9.528   1.012
59022SOL    HW178963   8.541   9.463   1.056
59022SOL    HW278964   8.547   9.593   0.979
59023SOL     OW78965  12.284   0.388   1.321
59023SOL    HW178966  12.236   0.306   1.331
59023SOL    HW278967  12.223   0.455   1.353
59024SOL     OW78968   6.976  13.620   0.109
59024SOL    HW178969   6.949  13.702   0.067
59024SOL    HW278970   7.046  13.587   0.054
59025SOL     OW78971   0.539  14.529  14.305
59025SOL    HW178972   0.515  14.437  14.303
59025SOL    HW278973   0.626  14.532  14.264
59026SOL     OW78974   2.620   9.013   8.174
59026SOL    HW178975   2.612   8.949   8.103
59026SOL    HW278976   2.645   9.094   8.131
59027SOL     OW78977  14.115   6.854   3.135
59027SOL    HW178978  14.143   6.885   3.221
59027SOL    HW278979  14.193   6.863   3.079
59028SOL     OW78980   9.498   4.931  10.270
59028SOL    HW178981   9.443   4.962  10.342
59028SOL    HW278982   9.437   4.886  10.212
59029SOL     OW78983  13.996   7.072  12.825
59029SOL    HW178984  13.932   7.005  12.849
59029SOL    HW278985  14.030   7.044  12.740
59030SOL     OW78986  13.568   0.272  14.214
59030SOL    HW178987  13.522   0.237  14.138
59030SOL    HW278988  13.640   0.211  14.229
59031SOL     OW78989   8.621   3.989  13.424
59031SOL    HW178990   8.653   3.928  13.358
59031SOL    HW278991   8.700   4.023  13.466
59032SOL     OW78992   3.981  14.777   8.111
59032SOL    HW178993   3.966  14.734   8.026
59032SOL    HW278994   3.894  14.803   8.140
59033SOL     OW78995   8.368   7.402   0.450
59033SOL    HW178996   8.402   7.373   0.366
59033SOL    HW278997   8.402   7.338   0.513
59034SOL     OW78998   9.174   0.026   9.290
59034SOL    HW178999   9.134   0.091   9.233
59034SOL    HW279000   9.145   0.049   9.378
59035SOL     OW79001   9.839   3.804  12.338
59035SOL    HW179002   9.841   3.852  12.256
59035SOL    HW279003   9.931   3.799  12.366
59036SOL     OW79004  12.963   5.620   4.002
59036SOL    HW179005  12.929   5.658   4.083
59036SOL    HW279006  13.040   5.570   4.029
59037SOL     OW79007   8.836   9.816   9.254
59037SOL    HW179008   8.917   9.867   9.244
59037SOL    HW279009   8.806   9.834   9.343
59038SOL     OW79010   4.364  14.349   6.944
59038SOL    HW179011   4.415  14.330   7.023
59038SOL    HW279012   4.429  14.376   6.879
59039SOL     OW79013   2.813  10.993   4.047
59039SOL    HW179014   2.802  10.919   3.987
59039SOL    HW279015   2.774  11.067   4.001
59040SOL     OW79016   9.018   6.906   2.081
59040SOL    HW179017   9.079   6.861   2.022
59040SOL    HW279018   8.940   6.921   2.027
59041SOL     OW79019   3.878   2.642  12.194
59041SOL    HW179020   3.821   2.571  12.164
59041SOL    HW279021   3.889   2.698  12.117
59042SOL     OW79022  12.011   8.285   8.633
59042SOL    HW179023  11.936   8.259   8.686
59042SOL    HW279024  12.085   8.281   8.694
59043SOL     OW79025   2.729   8.455   0.400
59043SOL    HW179026   2.659   8.441   0.336
59043SOL    HW279027   2.720   8.381   0.461
59044SOL     OW79028   7.727  11.487   3.259
59044SOL    HW179029   7.807  11.510   3.211
59044SOL    HW279030   7.753  11.493   3.351
59045SOL     OW79031  10.877   4.866  10.521
59045SOL    HW179032  10.955   4.894  10.569
59045SOL    HW279033  10.911   4.807  10.454
59046SOL     OW79034   7.948   3.896   6.503
59046SOL    HW179035   7.940   3.966   6.568
59046SOL    HW279036   7.859   3.860   6.496
59047SOL     OW79037   6.520   7.535   9.388
59047SOL    HW179038   6.526   7.517   9.294
59047SOL    HW279039   6.588   7.600   9.405
59048SOL     OW79040  14.498   8.593   9.644
59048SOL    HW179041  14.469   8.670   9.595
59048SOL    HW279042  14.593   8.595   9.637
59049SOL     OW79043  10.774  12.675   6.585
59049SOL    HW179044  10.762  12.704   6.676
59049SOL    HW279045  10.751  12.582   6.586
59050SOL     OW79046  11.223   8.429   5.117
59050SOL    HW179047  11.132   8.458   5.119
59050SOL    HW279048  11.223   8.355   5.056
59051SOL     OW79049   9.613   7.890  12.701
59051SOL    HW179050   9.618   7.977  12.741
59051SOL    HW279051   9.522   7.882  12.672
59052SOL     OW79052  14.701   5.757   7.306
59052SOL    HW179053  14.625   5.704   7.280
59052SOL    HW279054  14.693   5.837   7.255
59053SOL     OW79055   9.110   9.755   3.026
59053SOL    HW179056   9.087   9.846   3.009
59053SOL    HW279057   9.026   9.710   3.035
59054SOL     OW79058   7.354   3.795  10.875
59054SOL    HW179059   7.433   3.747  10.852
59054SOL    HW279060   7.377   3.887  10.861
59055SOL     OW79061   2.844   3.582  11.944
59055SOL    HW179062   2.757   3.553  11.972
59055SOL    HW279063   2.904   3.516  11.979
59056SOL     OW79064   6.183  14.142  10.170
59056SOL    HW179065   6.256  14.164  10.111
59056SOL    HW279066   6.136  14.072  10.123
59057SOL     OW79067   0.077   4.698   5.816
59057SOL    HW179068   0.048   4.675   5.904
59057SOL    HW279069   0.019   4.651   5.757
59058SOL     OW79070   3.655   0.878   3.524
59058SOL    HW179071   3.613   0.860   3.440
59058SOL    HW279072   3.704   0.798   3.544
59059SOL     OW79073   2.162   7.429  11.851
59059SOL    HW179074   2.074   7.457  11.826
59059SOL    HW279075   2.148   7.374  11.929
59060SOL     OW79076   4.805   3.027   6.359
59060SOL    HW179077   4.747   2.977   6.416
59060SOL    HW279078   4.781   3.119   6.374
59061SOL     OW79079   4.172   6.513  13.531
59061SOL    HW179080   4.137   6.462  13.604
59061SOL    HW279081   4.217   6.449  13.476
59062SOL     OW79082   9.543   9.384   8.746
59062SOL    HW179083   9.601   9.391   8.669
59062SOL    HW279084   9.527   9.290   8.755
59063SOL     OW79085   3.342   7.189  13.301
59063SOL    HW179086   3.336   7.186  13.205
59063SOL    HW279087   3.386   7.107  13.325
59064SOL     OW79088   8.131   7.603  14.266
59064SOL    HW179089   8.080   7.523  14.254
59064SOL    HW279090   8.100   7.662  14.197
59065SOL     OW79091   8.068   6.178  12.351
59065SOL    HW179092   8.078   6.253  12.292
59065SOL    HW279093   8.155   6.137  12.353
59066SOL     OW79094   5.223  13.254  12.888
59066SOL    HW179095   5.172  13.197  12.830
59066SOL    HW279096   5.308  13.263  12.845
59067SOL     OW79097  11.135   0.564   9.282
59067SOL    HW179098  11.119   0.587   9.190
59067SOL    HW279099  11.116   0.645   9.330
59068SOL     OW79100   6.323   1.396   6.565
59068SOL    HW179101   6.406   1.428   6.601
59068SOL    HW279102   6.347   1.354   6.482
59069SOL     OW79103  14.728   3.955   7.022
59069SOL    HW179104  14.636   3.934   7.003
59069SOL    HW279105  14.725   3.999   7.107
59070SOL     OW79106  13.846   5.906   6.493
59070SOL    HW179107  13.754   5.923   6.509
59070SOL    HW279108  13.878   5.870   6.576
59071SOL     OW79109   6.352  14.870   7.510
59071SOL    HW179110   6.277   0.027   7.462
59071SOL    HW279111   6.314  14.833   7.589
59072SOL     OW79112   3.104   8.344  14.454
59072SOL    HW179113   3.036   8.410  14.445
59072SOL    HW279114   3.111   8.328  14.548
59073SOL     OW79115   6.793  12.611   6.996
59073SOL    HW179116   6.846  12.667   6.940
59073SOL    HW279117   6.846  12.532   7.008
59074SOL     OW79118   8.930   4.030  11.496
59074SOL    HW179119   8.966   4.111  11.460
59074SOL    HW279120   8.857   4.058  11.552
59075SOL     OW79121  14.462   3.296  11.919
59075SOL    HW179122  14.493   3.208  11.898
59075SOL    HW279123  14.535   3.337  11.964
59076SOL     OW79124  13.320   1.450   2.389
59076SOL    HW179125  13.368   1.444   2.472
59076SOL    HW279126  13.358   1.526   2.345
59077SOL     OW79127   4.479   8.783   3.957
59077SOL    HW179128   4.403   8.727   3.940
59077SOL    HW279129   4.472   8.805   4.050
59078SOL     OW79130   0.077  13.510   3.840
59078SOL    HW179131  14.867  13.541   3.863
59078SOL    HW279132   0.088  13.536   3.748
59079SOL     OW79133  14.484  12.188  12.625
59079SOL    HW179134  14.438  12.270  12.642
59079SOL    HW279135  14.518  12.161  12.710
59080SOL     OW79136  12.923   8.900  11.767
59080SOL    HW179137  12.844   8.922  11.816
59080SOL    HW279138  12.947   8.981  11.722
59081SOL     OW79139   4.814   8.369   8.456
59081SOL    HW179140   4.757   8.436   8.418
59081SOL    HW279141   4.809   8.385   8.550
59082SOL     OW79142   0.464  14.777  11.318
59082SOL    HW179143   0.505  14.858  11.348
59082SOL    HW279144   0.382  14.807  11.277
59083SOL     OW79145   1.604   8.123   8.865
59083SOL    HW179146   1.574   8.141   8.954
59083SOL    HW279147   1.698   8.136   8.868
59084SOL     OW79148   8.459   3.826   6.959
59084SOL    HW179149   8.463   3.744   7.009
59084SOL    HW279150   8.460   3.799   6.867
59085SOL     OW79151   3.009  12.843   7.233
59085SOL    HW179152   2.916  12.836   7.254
59085SOL    HW279153   3.021  12.786   7.158
59086SOL     OW79154   4.063  11.617  13.375
59086SOL    HW179155   4.084  11.691  13.318
59086SOL    HW279156   3.968  11.615  13.378
59087SOL     OW79157   7.936  13.490   4.606
59087SOL    HW179158   8.031  13.484   4.614
59087SOL    HW279159   7.910  13.410   4.561
59088SOL     OW79160  10.707  12.473   0.783
59088SOL    HW179161  10.651  12.550   0.786
59088SOL    HW279162  10.663  12.413   0.723
59089SOL     OW79163   9.154   5.529   3.028
59089SOL    HW179164   9.174   5.444   3.066
59089SOL    HW279165   9.239   5.573   3.019
59090SOL     OW79166  12.442  14.620   7.836
59090SOL    HW179167  12.484  14.627   7.922
59090SOL    HW279168  12.461  14.532   7.806
59091SOL     OW79169  13.975   3.762   1.855
59091SOL    HW179170  13.983   3.692   1.791
59091SOL    HW279171  13.961   3.717   1.938
59092SOL     OW79172   2.717   5.189   1.223
59092SOL    HW179173   2.664   5.205   1.145
59092SOL    HW279174   2.659   5.140   1.282
59093SOL     OW79175  12.826  12.934  12.642
59093SOL    HW179176  12.824  12.994  12.567
59093SOL    HW279177  12.918  12.908  12.648
59094SOL     OW79178   6.439  13.276  12.399
59094SOL    HW179179   6.389  13.197  12.419
59094SOL    HW279180   6.530  13.247  12.398
59095SOL     OW79181   6.565   2.217   9.484
59095SOL    HW179182   6.564   2.311   9.465
59095SOL    HW279183   6.477   2.187   9.460
59096SOL     OW79184  10.080   3.300  11.097
59096SOL    HW179185  10.052   3.311  11.188
59096SOL    HW279186  10.029   3.366  11.049
59097SOL     OW79187  11.835  12.957   2.436
59097SOL    HW179188  11.865  12.867   2.450
59097SOL    HW279189  11.870  13.006   2.510
59098SOL     OW79190   6.602  14.375   8.938
59098SOL    HW179191   6.509  14.397   8.937
59098SOL    HW279192   6.640  14.438   8.999
59099SOL     OW79193   6.869   8.622  14.649
59099SOL    HW179194   6.844   8.616  14.741
59099SOL    HW279195   6.962   8.599  14.648
59100SOL     OW79196   8.612  12.567   6.997
59100SOL    HW179197   8.601  12.506   6.924
59100SOL    HW279198   8.695  12.542   7.037
59101SOL     OW79199  13.199  12.130   6.762
59101SOL    HW179200  13.282  12.175   6.777
59101SOL    HW279201  13.222  12.038   6.755
59102SOL     OW79202   4.681   3.047   3.462
59102SOL    HW179203   4.717   2.978   3.518
59102SOL    HW279204   4.690   3.013   3.373
59103SOL     OW79205  11.993   0.850   6.770
59103SOL    HW179206  12.081   0.826   6.742
59103SOL    HW279207  11.960   0.773   6.817
59104SOL     OW79208   6.282   4.868   8.727
59104SOL    HW179209   6.221   4.905   8.662
59104SOL    HW279210   6.239   4.883   8.811
59105SOL     OW79211   6.073   9.200   2.307
59105SOL    HW179212   6.059   9.116   2.263
59105SOL    HW279213   6.091   9.177   2.398
59106SOL     OW79214   2.491   9.144   8.900
59106SOL    HW179215   2.501   9.225   8.851
59106SOL    HW279216   2.449   9.084   8.838
59107SOL     OW79217  12.051  12.674   9.739
59107SOL    HW179218  12.087  12.627   9.664
59107SOL    HW279219  12.126  12.718   9.779
59108SOL     OW79220   3.276   9.107  13.509
59108SOL    HW179221   3.258   9.190  13.467
59108SOL    HW279222   3.253   9.121  13.601
59109SOL     OW79223   5.362   3.335   4.310
59109SOL    HW179224   5.336   3.315   4.400
59109SOL    HW279225   5.358   3.431   4.305
59110SOL     OW79226   3.886   2.060   4.825
59110SOL    HW179227   3.849   2.147   4.805
59110SOL    HW279228   3.835   2.028   4.898
59111SOL     OW79229  14.088   6.693   2.499
59111SOL    HW179230  14.077   6.600   2.482
59111SOL    HW279231  14.142   6.725   2.427
59112SOL     OW79232   0.155  10.057   3.242
59112SOL    HW179233   0.107   9.974   3.241
59112SOL    HW279234   0.086  10.124   3.251
59113SOL     OW79235   2.089   6.181   0.416
59113SOL    HW179236   2.052   6.236   0.347
59113SOL    HW279237   2.180   6.169   0.392
59114SOL     OW79238   2.518  11.370  13.089
59114SOL    HW179239   2.531  11.291  13.141
59114SOL    HW279240   2.514  11.340  12.998
59115SOL     OW79241  11.252   1.518   6.917
59115SOL    HW179242  11.261   1.514   6.822
59115SOL    HW279243  11.341   1.534   6.949
59116SOL     OW79244   2.058   0.212   3.686
59116SOL    HW179245   1.978   0.245   3.726
59116SOL    HW279246   2.102   0.290   3.652
59117SOL     OW79247   0.986   8.527  13.885
59117SOL    HW179248   0.943   8.473  13.951
59117SOL    HW279249   1.059   8.569  13.931
59118SOL     OW79250  11.525  10.130   9.160
59118SOL    HW179251  11.491  10.047   9.195
59118SOL    HW279252  11.467  10.150   9.087
59119SOL     OW79253  10.584   8.920   6.000
59119SOL    HW179254  10.674   8.896   5.980
59119SOL    HW279255  10.578   9.013   5.978
59120SOL     OW79256   7.106   5.961   2.471
59120SOL    HW179257   7.171   5.901   2.507
59120SOL    HW279258   7.126   6.045   2.511
59121SOL     OW79259  12.937  11.835   7.878
59121SOL    HW179260  13.010  11.881   7.921
59121SOL    HW279261  12.887  11.903   7.834
59122SOL     OW79262  13.878  13.192   1.934
59122SOL    HW179263  13.863  13.154   2.021
59122SOL    HW279264  13.899  13.116   1.878
59123SOL     OW79265   1.135   8.136  13.551
59123SOL    HW179266   1.150   8.230  13.564
59123SOL    HW279267   1.055   8.131  13.498
59124SOL     OW79268  12.671  12.322   6.726
59124SOL    HW179269  12.756  12.292   6.757
59124SOL    HW279270  12.609  12.293   6.794
59125SOL     OW79271   3.418  10.024   2.302
59125SOL    HW179272   3.385  10.044   2.214
59125SOL    HW279273   3.373  10.087   2.358
59126SOL     OW79274  11.780   4.360   2.763
59126SOL    HW179275  11.858   4.390   2.809
59126SOL    HW279276  11.715   4.347   2.831
59127SOL     OW79277  10.054   6.487  11.280
59127SOL    HW179278  10.073   6.519  11.368
59127SOL    HW279279  10.003   6.556  11.239
59128SOL     OW79280  14.702  14.696   2.207
59128SOL    HW179281  14.707  14.615   2.157
59128SOL    HW279282  14.766  14.754   2.166
59129SOL     OW79283  14.009  11.158   4.115
59129SOL    HW179284  14.036  11.106   4.190
59129SOL    HW279285  14.063  11.125   4.042
59130SOL     OW79286  12.943  10.429  13.950
59130SOL    HW179287  12.876  10.366  13.926
59130SOL    HW279288  12.977  10.398  14.034
59131SOL     OW79289   2.241   7.847   4.340
59131SOL    HW179290   2.284   7.804   4.266
59131SOL    HW279291   2.249   7.785   4.412
59132SOL     OW79292   4.401  10.556   1.384
59132SOL    HW179293   4.386  10.618   1.313
59132SOL    HW279294   4.402  10.611   1.463
59133SOL     OW79295   1.668   7.395  10.136
59133SOL    HW179296   1.722   7.358  10.205
59133SOL    HW279297   1.655   7.487  10.163
59134SOL     OW79298   6.745   4.084  12.653
59134SOL    HW179299   6.687   4.018  12.692
59134SOL    HW279300   6.779   4.042  12.574
59135SOL     OW79301   5.144  11.846   4.080
59135SOL    HW179302   5.091  11.772   4.110
59135SOL    HW279303   5.234  11.814   4.084
59136SOL     OW79304  13.806   7.698   0.713
59136SOL    HW179305  13.827   7.689   0.620
59136SOL    HW279306  13.712   7.680   0.719
59137SOL     OW79307   7.462   4.843  12.436
59137SOL    HW179308   7.448   4.907  12.366
59137SOL    HW279309   7.551   4.858  12.466
59138SOL     OW79310  12.902  12.866   6.427
59138SOL    HW179311  12.836  12.845   6.360
59138SOL    HW279312  12.851  12.895   6.503
59139SOL     OW79313   6.500   1.469   1.154
59139SOL    HW179314   6.484   1.480   1.247
59139SOL    HW279315   6.476   1.379   1.136
59140SOL     OW79316   0.272  11.421   3.021
59140SOL    HW179317   0.330  11.465   2.959
59140SOL    HW279318   0.267  11.330   2.989
59141SOL     OW79319  13.972   5.206   6.439
59141SOL    HW179320  13.937   5.250   6.516
59141SOL    HW279321  13.933   5.118   6.442
59142SOL     OW79322   4.447   5.047   7.978
59142SOL    HW179323   4.490   5.088   8.052
59142SOL    HW279324   4.362   5.090   7.972
59143SOL     OW79325  10.633   0.413  13.007
59143SOL    HW179326  10.546   0.399  13.044
59143SOL    HW279327  10.622   0.487  12.946
59144SOL     OW79328   9.561   9.370   4.407
59144SOL    HW179329   9.648   9.344   4.374
59144SOL    HW279330   9.579   9.440   4.469
59145SOL     OW79331  14.671  12.839  12.838
59145SOL    HW179332  14.691  12.933  12.839
59145SOL    HW279333  14.728  12.801  12.904
59146SOL     OW79334   8.483   4.118  12.443
59146SOL    HW179335   8.504   4.025  12.444
59146SOL    HW279336   8.484   4.145  12.535
59147SOL     OW79337   7.074   0.591   1.768
59147SOL    HW179338   7.157   0.634   1.791
59147SOL    HW279339   7.051   0.540   1.845
59148SOL     OW79340   8.564   6.624  11.514
59148SOL    HW179341   8.567   6.601  11.421
59148SOL    HW279342   8.558   6.720  11.514
59149SOL     OW79343   8.788   3.907  12.843
59149SOL    HW179344   8.719   3.974  12.845
59149SOL    HW279345   8.830   3.919  12.758
59150SOL     OW79346  11.339  14.296   4.228
59150SOL    HW179347  11.362  14.327   4.141
59150SOL    HW279348  11.253  14.254   4.217
59151SOL     OW79349  13.741   9.317   4.143
59151SOL    HW179350  13.793   9.397   4.134
59151SOL    HW279351  13.799   9.255   4.186
59152SOL     OW79352   0.165   3.196   2.250
59152SOL    HW179353   0.192   3.110   2.218
59152SOL    HW279354   0.157   3.250   2.172
59153SOL     OW79355   0.392   6.209   0.577
59153SOL    HW179356   0.443   6.231   0.655
59153SOL    HW279357   0.319   6.271   0.578
59154SOL     OW79358   3.028   5.278  14.739
59154SOL    HW179359   3.058   5.237  14.820
59154SOL    HW279360   3.109   5.309  14.697
59155SOL     OW79361   8.384   7.077   8.847
59155SOL    HW179362   8.410   7.106   8.934
59155SOL    HW279363   8.320   7.143   8.818
59156SOL     OW79364   4.565  14.226   2.033
59156SOL    HW179365   4.471  14.230   2.048
59156SOL    HW279366   4.603  14.264   2.113
59157SOL     OW79367   9.186   3.381  13.029
59157SOL    HW179368   9.122   3.433  12.980
59157SOL    HW279369   9.270   3.404  12.990
59158SOL     OW79370   3.509   7.718   9.486
59158SOL    HW179371   3.569   7.660   9.533
59158SOL    HW279372   3.559   7.746   9.409
59159SOL     OW79373   3.601   7.282   7.516
59159SOL    HW179374   3.510   7.287   7.546
59159SOL    HW279375   3.643   7.223   7.578
59160SOL     OW79376   2.684   0.575   3.172
59160SOL    HW179377   2.719   0.510   3.111
59160SOL    HW279378   2.756   0.636   3.186
59161SOL     OW79379  14.017  11.072   2.728
59161SOL    HW179380  13.949  11.128   2.689
59161SOL    HW279381  14.010  10.990   2.680
59162SOL     OW79382  13.723   8.077  13.970
59162SOL    HW179383  13.698   7.986  13.950
59162SOL    HW279384  13.675   8.129  13.906
59163SOL     OW79385   8.108  10.602   7.081
59163SOL    HW179386   8.138  10.680   7.129
59163SOL    HW279387   8.187  10.550   7.068
59164SOL     OW79388   8.553   3.581   2.419
59164SOL    HW179389   8.507   3.569   2.503
59164SOL    HW279390   8.516   3.661   2.383
59165SOL     OW79391   9.549  10.747   3.727
59165SOL    HW179392   9.573  10.662   3.691
59165SOL    HW279393   9.628  10.800   3.719
59166SOL     OW79394  14.794  12.270   9.717
59166SOL    HW179395  14.749  12.328   9.656
59166SOL    HW279396  14.729  12.204   9.740
59167SOL     OW79397   4.645   2.337   1.920
59167SOL    HW179398   4.697   2.364   1.844
59167SOL    HW279399   4.660   2.242   1.927
59168SOL     OW79400   2.457   5.724  12.966
59168SOL    HW179401   2.475   5.709  13.059
59168SOL    HW279402   2.435   5.638  12.931
59169SOL     OW79403   2.271   8.810   8.984
59169SOL    HW179404   2.354   8.855   8.973
59169SOL    HW279405   2.246   8.827   9.075
59170SOL     OW79406   5.000   3.132   7.493
59170SOL    HW179407   5.070   3.121   7.557
59170SOL    HW279408   5.028   3.080   7.418
59171SOL     OW79409   9.633   2.721   8.099
59171SOL    HW179410   9.581   2.717   8.180
59171SOL    HW279411   9.650   2.629   8.078
59172SOL     OW79412  10.603   8.798   1.626
59172SOL    HW179413  10.654   8.874   1.652
59172SOL    HW279414  10.640   8.771   1.542
59173SOL     OW79415   4.716  13.920   8.181
59173SOL    HW179416   4.776  13.849   8.158
59173SOL    HW279417   4.714  13.975   8.102
59174SOL     OW79418   9.861  10.263   6.070
59174SOL    HW179419   9.867  10.359   6.074
59174SOL    HW279420   9.770  10.247   6.046
59175SOL     OW79421   7.858   2.122  12.618
59175SOL    HW179422   7.851   2.044  12.673
59175SOL    HW279423   7.870   2.194  12.680
59176SOL     OW79424  12.991   1.755  10.867
59176SOL    HW179425  13.052   1.777  10.797
59176SOL    HW279426  12.905   1.782  10.834
59177SOL     OW79427   7.255   3.016   8.289
59177SOL    HW179428   7.336   3.007   8.238
59177SOL    HW279429   7.280   2.989   8.377
59178SOL     OW79430  11.206   1.584   0.584
59178SOL    HW179431  11.245   1.649   0.642
59178SOL    HW279432  11.118   1.569   0.620
59179SOL     OW79433   2.070   9.456   2.306
59179SOL    HW179434   2.050   9.544   2.338
59179SOL    HW279435   1.991   9.406   2.323
59180SOL     OW79436   8.216   4.613   3.859
59180SOL    HW179437   8.300   4.603   3.813
59180SOL    HW279438   8.164   4.539   3.829
59181SOL     OW79439  12.415   2.030   3.058
59181SOL    HW179440  12.510   2.041   3.055
59181SOL    HW279441  12.385   2.102   3.114
59182SOL     OW79442   9.701   6.131   5.557
59182SOL    HW179443   9.790   6.139   5.591
59182SOL    HW279444   9.699   6.188   5.480
59183SOL     OW79445   5.321  14.243   7.199
59183SOL    HW179446   5.345  14.185   7.271
59183SOL    HW279447   5.287  14.185   7.131
59184SOL     OW79448  14.876   2.953  12.633
59184SOL    HW179449  14.795   2.970  12.682
59184SOL    HW279450   0.017   2.861  12.649
59185SOL     OW79451  14.414   7.210  11.350
59185SOL    HW179452  14.453   7.234  11.266
59185SOL    HW279453  14.322   7.236  11.343
59186SOL     OW79454   2.628   4.307   3.820
59186SOL    HW179455   2.697   4.335   3.880
59186SOL    HW279456   2.586   4.234   3.865
59187SOL     OW79457  10.867  13.056   4.117
59187SOL    HW179458  10.955  13.022   4.134
59187SOL    HW279459  10.878  13.111   4.039
59188SOL     OW79460   9.307   8.699  14.209
59188SOL    HW179461   9.277   8.622  14.257
59188SOL    HW279462   9.229   8.754  14.200
59189SOL     OW79463   0.508  14.785   6.497
59189SOL    HW179464   0.504  14.739   6.413
59189SOL    HW279465   0.520  14.716   6.562
59190SOL     OW79466  11.974   7.142  14.730
59190SOL    HW179467  12.000   7.123  14.640
59190SOL    HW279468  12.044   7.105  14.783
59191SOL     OW79469   5.418   6.630   2.988
59191SOL    HW179470   5.512   6.626   2.970
59191SOL    HW279471   5.387   6.542   2.969
59192SOL     OW79472   7.438   6.564  12.380
59192SOL    HW179473   7.503   6.510  12.336
59192SOL    HW279474   7.424   6.638  12.321
59193SOL     OW79475   9.500   8.125   5.932
59193SOL    HW179476   9.587   8.122   5.972
59193SOL    HW279477   9.486   8.036   5.899
59194SOL     OW79478  12.438   1.911   1.952
59194SOL    HW179479  12.510   1.953   1.904
59194SOL    HW279480  12.437   1.821   1.919
59195SOL     OW79481   1.330   0.434  13.588
59195SOL    HW179482   1.312   0.468  13.675
59195SOL    HW279483   1.251   0.386  13.564
59196SOL     OW79484   3.644  10.723   8.733
59196SOL    HW179485   3.561  10.764   8.708
59196SOL    HW279486   3.619  10.642   8.777
59197SOL     OW79487   2.614   0.938   6.039
59197SOL    HW179488   2.591   1.029   6.059
59197SOL    HW279489   2.706   0.931   6.064
59198SOL     OW79490   2.540  14.843  13.847
59198SOL    HW179491   2.446  14.827  13.852
59198SOL    HW279492   2.570  14.787  13.774
59199SOL     OW79493  13.113   4.927   8.816
59199SOL    HW179494  13.057   4.883   8.880
59199SOL    HW279495  13.098   5.020   8.831
59200SOL     OW79496   5.225  10.964   7.927
59200SOL    HW179497   5.284  10.978   7.852
59200SOL    HW279498   5.148  11.017   7.906
59201SOL     OW79499  13.471  10.263  10.634
59201SOL    HW179500  13.425  10.183  10.661
59201SOL    HW279501  13.557  10.233  10.605
59202SOL     OW79502  10.971   1.085   8.871
59202SOL    HW179503  10.999   1.135   8.947
59202SOL    HW279504  10.906   1.141   8.828
59203SOL     OW79505  11.964  12.587  14.587
59203SOL    HW179506  11.965  12.505  14.537
59203SOL    HW279507  11.985  12.561  14.677
59204SOL     OW79508   7.603  10.357  12.620
59204SOL    HW179509   7.622  10.300  12.545
59204SOL    HW279510   7.524  10.320  12.659
59205SOL     OW79511   5.353   6.815   8.934
59205SOL    HW179512   5.258   6.821   8.921
59205SOL    HW279513   5.375   6.889   8.990
59206SOL     OW79514  14.471   4.232  13.274
59206SOL    HW179515  14.477   4.270  13.186
59206SOL    HW279516  14.514   4.296  13.331
59207SOL     OW79517  11.359  14.829  11.789
59207SOL    HW179518  11.316   0.016  11.731
59207SOL    HW279519  11.304  14.751  11.782
59208SOL     OW79520  14.290   3.490   5.184
59208SOL    HW179521  14.351   3.446   5.244
59208SOL    HW279522  14.320   3.581   5.184
59209SOL     OW79523   6.338  12.305   0.174
59209SOL    HW179524   6.397  12.234   0.146
59209SOL    HW279525   6.285  12.325   0.097
59210SOL     OW79526   8.186   9.757   5.386
59210SOL    HW179527   8.253   9.819   5.356
59210SOL    HW279528   8.103   9.802   5.371
59211SOL     OW79529   0.588   6.704   7.630
59211SOL    HW179530   0.570   6.621   7.674
59211SOL    HW279531   0.502   6.746   7.623
59212SOL     OW79532   0.764  12.456   1.274
59212SOL    HW179533   0.709  12.488   1.346
59212SOL    HW279534   0.703  12.406   1.219
59213SOL     OW79535   6.259  11.030   0.891
59213SOL    HW179536   6.170  11.027   0.927
59213SOL    HW279537   6.250  11.076   0.808
59214SOL     OW79538   1.511   5.885   0.928
59214SOL    HW179539   1.432   5.937   0.942
59214SOL    HW279540   1.572   5.946   0.886
59215SOL     OW79541  13.444   8.718   0.206
59215SOL    HW179542  13.517   8.681   0.255
59215SOL    HW279543  13.383   8.645   0.195
59216SOL     OW79544   6.349   8.929  10.340
59216SOL    HW179545   6.351   8.877  10.260
59216SOL    HW279546   6.256   8.946  10.355
59217SOL     OW79547   9.876   1.057   5.223
59217SOL    HW179548   9.799   1.053   5.280
59217SOL    HW279549   9.840   1.068   5.135
59218SOL     OW79550   0.209   3.153   9.980
59218SOL    HW179551   0.172   3.203  10.053
59218SOL    HW279552   0.185   3.204   9.902
59219SOL     OW79553   9.808  10.836   4.412
59219SOL    HW179554   9.871  10.797   4.473
59219SOL    HW279555   9.854  10.838   4.328
59220SOL     OW79556  13.505   0.744   9.012
59220SOL    HW179557  13.505   0.675   8.945
59220SOL    HW279558  13.472   0.701   9.091
59221SOL     OW79559   6.054   5.612   8.084
59221SOL    HW179560   6.043   5.707   8.080
59221SOL    HW279561   6.143   5.597   8.052
59222SOL     OW79562   2.122   5.146  11.835
59222SOL    HW179563   2.149   5.216  11.775
59222SOL    HW279564   2.027   5.145  11.829
59223SOL     OW79565   8.415  12.855  11.769
59223SOL    HW179566   8.432  12.867  11.676
59223SOL    HW279567   8.348  12.786  11.772
59224SOL     OW79568  13.115   4.015  13.540
59224SOL    HW179569  13.209   4.000  13.535
59224SOL    HW279570  13.090   3.985  13.627
59225SOL     OW79571  13.726  12.098  14.085
59225SOL    HW179572  13.651  12.059  14.041
59225SOL    HW279573  13.802  12.070  14.034
59226SOL     OW79574   7.513  13.224   5.596
59226SOL    HW179575   7.480  13.153   5.540
59226SOL    HW279576   7.490  13.196   5.685
59227SOL     OW79577   2.675   3.528  13.205
59227SOL    HW179578   2.687   3.531  13.110
59227SOL    HW279579   2.741   3.467  13.237
59228SOL     OW79580   0.717   8.280  10.878
59228SOL    HW179581   0.750   8.299  10.965
59228SOL    HW279582   0.795   8.265  10.825
59229SOL     OW79583  13.684   5.298   9.941
59229SOL    HW179584  13.769   5.278   9.980
59229SOL    HW279585  13.622   5.244   9.991
59230SOL     OW79586   6.601  11.849   2.068
59230SOL    HW179587   6.521  11.896   2.045
59230SOL    HW279588   6.577  11.798   2.146
59231SOL     OW79589   3.788   1.630   8.042
59231SOL    HW179590   3.814   1.567   7.975
59231SOL    HW279591   3.793   1.715   7.998
59232SOL     OW79592  10.828  12.369  13.391
59232SOL    HW179593  10.878  12.305  13.440
59232SOL    HW279594  10.892  12.410  13.332
59233SOL     OW79595  12.126   5.612   1.693
59233SOL    HW179596  12.161   5.663   1.766
59233SOL    HW279597  12.070   5.673   1.645
59234SOL     OW79598   4.071  11.036   3.673
59234SOL    HW179599   4.073  11.078   3.586
59234SOL    HW279600   3.998  10.974   3.667
59235SOL     OW79601   6.602   0.600   0.807
59235SOL    HW179602   6.533   0.548   0.768
59235SOL    HW279603   6.683   0.554   0.785
59236SOL     OW79604  14.080   6.646   5.007
59236SOL    HW179605  14.040   6.713   5.061
59236SOL    HW279606  14.006   6.593   4.975
59237SOL     OW79607   4.696  11.006   0.068
59237SOL    HW179608   4.729  10.939   0.127
59237SOL    HW279609   4.613  11.034   0.107
59238SOL     OW79610   7.714  13.442  10.064
59238SOL    HW179611   7.678  13.499  10.133
59238SOL    HW279612   7.637  13.398  10.028
59239SOL     OW79613   8.169   1.945   7.026
59239SOL    HW179614   8.183   1.851   7.012
59239SOL    HW279615   8.162   1.955   7.121
59240SOL     OW79616   4.173  10.307   8.074
59240SOL    HW179617   4.203  10.397   8.085
59240SOL    HW279618   4.078  10.314   8.061
59241SOL     OW79619  10.638   3.923   7.951
59241SOL    HW179620  10.639   3.842   7.900
59241SOL    HW279621  10.640   3.993   7.885
59242SOL     OW79622  13.318  12.453   6.989
59242SOL    HW179623  13.223  12.448   6.992
59242SOL    HW279624  13.348  12.363   7.001
59243SOL     OW79625   6.028   6.869  11.537
59243SOL    HW179626   5.998   6.778  11.533
59243SOL    HW279627   5.977   6.914  11.469
59244SOL     OW79628  11.580   6.353   7.919
59244SOL    HW179629  11.591   6.442   7.885
59244SOL    HW279630  11.593   6.296   7.844
59245SOL     OW79631   1.543   9.769  12.051
59245SOL    HW179632   1.619   9.804  12.096
59245SOL    HW279633   1.489   9.846  12.031
59246SOL     OW79634  14.782  10.757   0.739
59246SOL    HW179635  14.832  10.781   0.661
59246SOL    HW279636  14.750  10.841   0.773
59247SOL     OW79637   8.076   9.437   9.418
59247SOL    HW179638   8.164   9.474   9.420
59247SOL    HW279639   8.018   9.512   9.434
59248SOL     OW79640   3.319   8.097   5.192
59248SOL    HW179641   3.332   8.131   5.281
59248SOL    HW279642   3.263   8.021   5.203
59249SOL     OW79643  13.112  12.600   7.221
59249SOL    HW179644  13.124  12.532   7.156
59249SOL    HW279645  13.166  12.673   7.190
59250SOL     OW79646   5.515   7.642   9.078
59250SOL    HW179647   5.465   7.647   9.159
59250SOL    HW279648   5.602   7.611   9.105
59251SOL     OW79649   8.480  14.631   1.461
59251SOL    HW179650   8.506  14.697   1.526
59251SOL    HW279651   8.520  14.661   1.379
59252SOL     OW79652   3.450   6.175  12.889
59252SOL    HW179653   3.473   6.138  12.804
59252SOL    HW279654   3.403   6.104  12.934
59253SOL     OW79655   9.980   4.780  12.716
59253SOL    HW179656   9.917   4.832  12.667
59253SOL    HW279657  10.005   4.710  12.656
59254SOL     OW79658  11.610  10.592  12.846
59254SOL    HW179659  11.652  10.589  12.760
59254SOL    HW279660  11.596  10.501  12.869
59255SOL     OW79661   1.187   6.758   5.054
59255SOL    HW179662   1.225   6.671   5.069
59255SOL    HW279663   1.107   6.758   5.107
59256SOL     OW79664   7.212  13.015   1.183
59256SOL    HW179665   7.140  13.011   1.120
59256SOL    HW279666   7.291  13.014   1.129
59257SOL     OW79667   8.931  14.164  12.985
59257SOL    HW179668   8.967  14.154  12.897
59257SOL    HW279669   8.971  14.093  13.035
59258SOL     OW79670   4.918  13.007  10.024
59258SOL    HW179671   4.963  12.950  10.086
59258SOL    HW279672   4.985  13.035   9.962
59259SOL     OW79673   9.856   0.660  14.230
59259SOL    HW179674   9.860   0.647  14.135
59259SOL    HW279675   9.916   0.594  14.266
59260SOL     OW79676   4.715   7.247  11.654
59260SOL    HW179677   4.805   7.252  11.622
59260SOL    HW279678   4.722   7.202  11.738
59261SOL     OW79679  13.246   4.759  13.233
59261SOL    HW179680  13.278   4.734  13.147
59261SOL    HW279681  13.151   4.745  13.228
59262SOL     OW79682   2.566  12.236   7.709
59262SOL    HW179683   2.626  12.298   7.750
59262SOL    HW279684   2.607  12.150   7.724
59263SOL     OW79685   5.011   7.865   9.469
59263SOL    HW179686   4.969   7.807   9.533
59263SOL    HW279687   4.953   7.863   9.393
59264SOL     OW79688  14.247   2.833   3.681
59264SOL    HW179689  14.318   2.820   3.617
59264SOL    HW279690  14.265   2.920   3.718
59265SOL     OW79691   2.867  12.981  12.613
59265SOL    HW179692   2.872  13.039  12.690
59265SOL    HW279693   2.801  12.915  12.638
59266SOL     OW79694   7.961   6.345   0.047
59266SOL    HW179695   8.031   6.287   0.019
59266SOL    HW279696   7.896   6.340  14.855
59267SOL     OW79697  10.318  11.764   0.732
59267SOL    HW179698  10.290  11.714   0.655
59267SOL    HW279699  10.360  11.698   0.788
59268SOL     OW79700   5.395  13.405  12.548
59268SOL    HW179701   5.310  13.365  12.566
59268SOL    HW279702   5.380  13.461  12.472
59269SOL     OW79703  13.038   9.438   2.147
59269SOL    HW179704  13.041   9.427   2.052
59269SOL    HW279705  13.110   9.497   2.168
59270SOL     OW79706   3.191   5.932  13.606
59270SOL    HW179707   3.104   5.970  13.617
59270SOL    HW279708   3.251   6.006  13.613
59271SOL     OW79709   3.280   2.348  12.434
59271SOL    HW179710   3.186   2.352  12.447
59271SOL    HW279711   3.314   2.317  12.518
59272SOL     OW79712   8.089  13.466   4.182
59272SOL    HW179713   7.997  13.478   4.206
59272SOL    HW279714   8.128  13.425   4.259
59273SOL     OW79715   9.900   6.015   0.708
59273SOL    HW179716   9.928   6.009   0.799
59273SOL    HW279717   9.845   6.093   0.704
59274SOL     OW79718  12.424  10.496   3.138
59274SOL    HW179719  12.370  10.575   3.130
59274SOL    HW279720  12.408  10.465   3.227
59275SOL     OW79721   6.156  11.743   9.800
59275SOL    HW179722   6.221  11.814   9.798
59275SOL    HW279723   6.208  11.663   9.802
59276SOL     OW79724  13.994   7.423   6.057
59276SOL    HW179725  13.967   7.513   6.040
59276SOL    HW279726  13.955   7.402   6.142
59277SOL     OW79727  14.617   9.240   8.742
59277SOL    HW179728  14.650   9.254   8.653
59277SOL    HW279729  14.556   9.166   8.734
59278SOL     OW79730   6.685  10.112   4.545
59278SOL    HW179731   6.699  10.055   4.469
59278SOL    HW279732   6.591  10.128   4.546
59279SOL     OW79733   5.204   1.005   8.847
59279SOL    HW179734   5.202   1.100   8.854
59279SOL    HW279735   5.296   0.984   8.827
59280SOL     OW79736   1.352   6.200  13.396
59280SOL    HW179737   1.366   6.258  13.471
59280SOL    HW279738   1.260   6.212  13.372
59281SOL     OW79739  11.707   6.284  11.405
59281SOL    HW179740  11.725   6.248  11.318
59281SOL    HW279741  11.788   6.328  11.431
59282SOL     OW79742  12.291   8.912   4.055
59282SOL    HW179743  12.328   8.842   4.001
59282SOL    HW279744  12.273   8.982   3.993
59283SOL     OW79745   3.000   0.128  11.574
59283SOL    HW179746   3.013   0.222  11.567
59283SOL    HW279747   3.084   0.090  11.547
59284SOL     OW79748   7.682  13.966   1.621
59284SOL    HW179749   7.751  13.900   1.631
59284SOL    HW279750   7.611  13.920   1.575
59285SOL     OW79751   2.659   0.781   9.581
59285SOL    HW179752   2.616   0.846   9.527
59285SOL    HW279753   2.610   0.700   9.566
59286SOL     OW79754   2.170   0.891  13.884
59286SOL    HW179755   2.124   0.863  13.804
59286SOL    HW279756   2.255   0.922  13.853
59287SOL     OW79757   1.413   9.447   6.650
59287SOL    HW179758   1.454   9.361   6.658
59287SOL    HW279759   1.352   9.437   6.577
59288SOL     OW79760   8.636   1.271   7.177
59288SOL    HW179761   8.696   1.272   7.102
59288SOL    HW279762   8.575   1.200   7.158
59289SOL     OW79763  14.524   3.961   3.852
59289SOL    HW179764  14.456   3.895   3.837
59289SOL    HW279765  14.519   4.018   3.775
59290SOL     OW79766  10.286   1.020  12.680
59290SOL    HW179767  10.360   0.972  12.641
59290SOL    HW279768  10.215   1.009  12.616
59291SOL     OW79769  13.744   9.719   1.520
59291SOL    HW179770  13.709   9.809   1.521
59291SOL    HW279771  13.793   9.714   1.438
59292SOL     OW79772  13.407   5.732  14.015
59292SOL    HW179773  13.460   5.799  14.060
59292SOL    HW279774  13.339   5.709  14.078
59293SOL     OW79775   8.545   9.459  12.865
59293SOL    HW179776   8.593   9.475  12.784
59293SOL    HW279777   8.466   9.513  12.857
59294SOL     OW79778   6.610  11.915  14.480
59294SOL    HW179779   6.680  11.851  14.489
59294SOL    HW279780   6.543  11.870  14.428
59295SOL     OW79781  14.004   5.997   1.618
59295SOL    HW179782  13.935   6.062   1.635
59295SOL    HW279783  14.035   5.972   1.705
59296SOL     OW79784  10.045  13.359  10.453
59296SOL    HW179785  10.130  13.316  10.449
59296SOL    HW279786  10.014  13.361  10.363
59297SOL     OW79787   9.191   7.109  10.059
59297SOL    HW179788   9.192   7.197  10.095
59297SOL    HW279789   9.101   7.096  10.028
59298SOL     OW79790   3.742   8.846   1.389
59298SOL    HW179791   3.788   8.909   1.444
59298SOL    HW279792   3.657   8.833   1.432
59299SOL     OW79793   1.269   8.247  11.790
59299SOL    HW179794   1.230   8.161  11.807
59299SOL    HW279795   1.214   8.286  11.723
59300SOL     OW79796   7.104   5.067   4.009
59300SOL    HW179797   7.145   5.135   4.063
59300SOL    HW279798   7.030   5.035   4.063
59301SOL     OW79799   9.942   1.703   5.745
59301SOL    HW179800   9.855   1.664   5.755
59301SOL    HW279801   9.926   1.797   5.736
59302SOL     OW79802  11.831   9.026   4.349
59302SOL    HW179803  11.787   8.959   4.297
59302SOL    HW279804  11.869   8.978   4.423
59303SOL     OW79805   4.210   6.702   1.051
59303SOL    HW179806   4.177   6.620   1.015
59303SOL    HW279807   4.301   6.706   1.023
59304SOL     OW79808  11.825  14.216  13.503
59304SOL    HW179809  11.914  14.251  13.494
59304SOL    HW279810  11.784  14.234  13.418
59305SOL     OW79811   1.549  11.910  12.054
59305SOL    HW179812   1.563  11.963  12.133
59305SOL    HW279813   1.596  11.829  12.070
59306SOL     OW79814   8.152  11.103  13.603
59306SOL    HW179815   8.177  11.129  13.692
59306SOL    HW279816   8.122  11.013  13.611
59307SOL     OW79817   4.638   8.475   4.192
59307SOL    HW179818   4.567   8.467   4.128
59307SOL    HW279819   4.712   8.429   4.152
59308SOL     OW79820   8.343   7.625   1.291
59308SOL    HW179821   8.334   7.553   1.354
59308SOL    HW279822   8.261   7.626   1.243
59309SOL     OW79823   7.419   0.734   4.646
59309SOL    HW179824   7.337   0.743   4.597
59309SOL    HW279825   7.403   0.662   4.707
59310SOL     OW79826  14.877   5.970   6.946
59310SOL    HW179827   0.091   5.984   6.921
59310SOL    HW279828  14.841   5.918   6.875
59311SOL     OW79829  14.741   2.700   4.869
59311SOL    HW179830  14.834   2.715   4.888
59311SOL    HW279831  14.740   2.617   4.821
59312SOL     OW79832   8.340  13.264   1.262
59312SOL    HW179833   8.317  13.171   1.257
59312SOL    HW279834   8.268  13.304   1.310
59313SOL     OW79835   5.331   4.932  12.789
59313SOL    HW179836   5.250   4.902  12.831
59313SOL    HW279837   5.339   5.024  12.816
59314SOL     OW79838   5.009   8.625   7.353
59314SOL    HW179839   4.940   8.665   7.301
59314SOL    HW279840   4.964   8.572   7.419
59315SOL     OW79841   6.925  11.380   4.018
59315SOL    HW179842   6.972  11.317   4.073
59315SOL    HW279843   6.989  11.448   3.998
59316SOL     OW79844   8.412   2.280  11.622
59316SOL    HW179845   8.373   2.255  11.538
59316SOL    HW279846   8.415   2.198  11.672
59317SOL     OW79847   9.441   3.520   9.814
59317SOL    HW179848   9.427   3.611   9.842
59317SOL    HW279849   9.516   3.525   9.754
59318SOL     OW79850   7.210  10.534   8.920
59318SOL    HW179851   7.281  10.590   8.953
59318SOL    HW279852   7.252  10.476   8.857
59319SOL     OW79853  10.709   5.495  14.617
59319SOL    HW179854  10.772   5.475  14.548
59319SOL    HW279855  10.759   5.546  14.681
59320SOL     OW79856  10.258   5.589   8.398
59320SOL    HW179857  10.222   5.616   8.483
59320SOL    HW279858  10.187   5.540   8.357
59321SOL     OW79859   9.712   8.015   3.957
59321SOL    HW179860   9.738   7.947   4.019
59321SOL    HW279861   9.658   7.970   3.893
59322SOL     OW79862  11.116   6.011   5.469
59322SOL    HW179863  11.207   5.984   5.456
59322SOL    HW279864  11.075   5.997   5.383
59323SOL     OW79865   0.603   7.849   8.827
59323SOL    HW179866   0.562   7.777   8.779
59323SOL    HW279867   0.653   7.806   8.896
59324SOL     OW79868  11.243  11.838   0.664
59324SOL    HW179869  11.246  11.859   0.757
59324SOL    HW279870  11.150  11.826   0.645
59325SOL     OW79871   3.143   4.513   5.440
59325SOL    HW179872   3.088   4.446   5.398
59325SOL    HW279873   3.219   4.465   5.472
59326SOL     OW79874  12.130   0.416   8.888
59326SOL    HW179875  12.115   0.502   8.848
59326SOL    HW279876  12.138   0.435   8.982
59327SOL     OW79877   9.371   6.637  13.908
59327SOL    HW179878   9.297   6.629  13.848
59327SOL    HW279879   9.444   6.664  13.852
59328SOL     OW79880   3.997  12.612   1.513
59328SOL    HW179881   4.036  12.532   1.547
59328SOL    HW279882   3.943  12.645   1.585
59329SOL     OW79883   9.324   4.274   8.456
59329SOL    HW179884   9.264   4.238   8.390
59329SOL    HW279885   9.274   4.271   8.538
59330SOL     OW79886   1.225   9.208  12.607
59330SOL    HW179887   1.189   9.162  12.531
59330SOL    HW279888   1.176   9.290  12.610
59331SOL     OW79889  14.612   4.809  13.151
59331SOL    HW179890  14.541   4.761  13.194
59331SOL    HW279891  14.674   4.829  13.222
59332SOL     OW79892   6.280  13.121  10.938
59332SOL    HW179893   6.354  13.110  10.879
59332SOL    HW279894   6.256  13.213  10.931
59333SOL     OW79895   8.144  13.491   9.490
59333SOL    HW179896   8.218  13.431   9.497
59333SOL    HW279897   8.125  13.494   9.396
59334SOL     OW79898   0.202  12.144  11.039
59334SOL    HW179899   0.201  12.053  11.069
59334SOL    HW279900   0.261  12.189  11.099
59335SOL     OW79901   7.659  12.719   0.826
59335SOL    HW179902   7.718  12.650   0.798
59335SOL    HW279903   7.694  12.798   0.785
59336SOL     OW79904   5.270   7.787   7.465
59336SOL    HW179905   5.256   7.880   7.449
59336SOL    HW279906   5.353   7.767   7.422
59337SOL     OW79907  13.500   1.898   0.566
59337SOL    HW179908  13.549   1.866   0.490
59337SOL    HW279909  13.566   1.936   0.623
59338SOL     OW79910  12.303   5.733   9.853
59338SOL    HW179911  12.278   5.777   9.771
59338SOL    HW279912  12.257   5.783   9.921
59339SOL     OW79913   0.704   2.790  13.390
59339SOL    HW179914   0.797   2.793  13.414
59339SOL    HW279915   0.687   2.875  13.350
59340SOL     OW79916  12.059  13.593  14.616
59340SOL    HW179917  11.988  13.554  14.667
59340SOL    HW279918  12.027  13.680  14.593
59341SOL     OW79919   1.347   1.774  12.360
59341SOL    HW179920   1.434   1.764  12.399
59341SOL    HW279921   1.331   1.690  12.317
59342SOL     OW79922   6.417   3.593   1.747
59342SOL    HW179923   6.388   3.614   1.659
59342SOL    HW279924   6.373   3.657   1.803
59343SOL     OW79925  12.438  12.288   2.296
59343SOL    HW179926  12.472  12.295   2.385
59343SOL    HW279927  12.373  12.357   2.289
59344SOL     OW79928   6.282   2.278   8.513
59344SOL    HW179929   6.254   2.186   8.504
59344SOL    HW279930   6.203   2.324   8.542
59345SOL     OW79931   8.847   4.004   2.635
59345SOL    HW179932   8.941   4.021   2.623
59345SOL    HW279933   8.810   4.015   2.547
59346SOL     OW79934  11.447   7.350   7.904
59346SOL    HW179935  11.431   7.262   7.870
59346SOL    HW279936  11.528   7.342   7.955
59347SOL     OW79937   2.564   8.364   0.206
59347SOL    HW179938   2.525   8.324   0.128
59347SOL    HW279939   2.522   8.450   0.212
59348SOL     OW79940   3.138  13.016  12.167
59348SOL    HW179941   3.222  13.043  12.205
59348SOL    HW279942   3.072  13.062  12.220
59349SOL     OW79943   2.162   1.531   9.200
59349SOL    HW179944   2.152   1.441   9.169
59349SOL    HW279945   2.111   1.584   9.139
59350SOL     OW79946  11.389  10.615   4.883
59350SOL    HW179947  11.417  10.687   4.827
59350SOL    HW279948  11.401  10.537   4.828
59351SOL     OW79949  13.736   8.432   6.008
59351SOL    HW179950  13.659   8.393   5.967
59351SOL    HW279951  13.714   8.438   6.101
59352SOL     OW79952   4.550   8.493   8.401
59352SOL    HW179953   4.531   8.577   8.442
59352SOL    HW279954   4.465   8.463   8.368
59353SOL     OW79955   2.313   9.042   3.636
59353SOL    HW179956   2.236   8.993   3.608
59353SOL    HW279957   2.280   9.104   3.701
59354SOL     OW79958  13.783   4.325   9.490
59354SOL    HW179959  13.734   4.369   9.421
59354SOL    HW279960  13.875   4.343   9.470
59355SOL     OW79961  13.265   2.614  14.531
59355SOL    HW179962  13.281   2.671  14.607
59355SOL    HW279963  13.201   2.550  14.561
59356SOL     OW79964   8.816   0.051  11.039
59356SOL    HW179965   8.860   0.099  11.109
59356SOL    HW279966   8.822  14.837  11.066
59357SOL     OW79967   8.930   0.765   5.584
59357SOL    HW179968   8.855   0.731   5.535
59357SOL    HW279969   8.980   0.688   5.609
59358SOL     OW79970   9.443  11.318   6.450
59358SOL    HW179971   9.362  11.281   6.486
59358SOL    HW279972   9.505  11.315   6.523
59359SOL     OW79973   4.931   0.539  11.502
59359SOL    HW179974   4.888   0.481  11.439
59359SOL    HW279975   4.861   0.597  11.533
59360SOL     OW79976  14.270   6.963  11.046
59360SOL    HW179977  14.351   6.991  11.090
59360SOL    HW279978  14.297   6.942  10.957
59361SOL     OW79979   0.669   0.112   7.016
59361SOL    HW179980   0.702   0.151   6.936
59361SOL    HW279981   0.740   0.121   7.079
59362SOL     OW79982   7.913  11.786  14.347
59362SOL    HW179983   7.877  11.717  14.291
59362SOL    HW279984   7.888  11.759  14.436
59363SOL     OW79985   4.326   2.663  13.821
59363SOL    HW179986   4.381   2.652  13.898
59363SOL    HW279987   4.261   2.592  13.828
59364SOL     OW79988   9.141   0.392   2.338
59364SOL    HW179989   9.162   0.442   2.260
59364SOL    HW279990   9.050   0.415   2.358
59365SOL     OW79991  12.981   5.555   6.184
59365SOL    HW179992  13.015   5.588   6.267
59365SOL    HW279993  12.909   5.496   6.210
59366SOL     OW79994  12.546   0.527   9.717
59366SOL    HW179995  12.478   0.561   9.659
59366SOL    HW279996  12.621   0.584   9.701
59367SOL     OW79997  12.146   5.561   3.327
59367SOL    HW179998  12.203   5.570   3.404
59367SOL    HW279999  12.195   5.505   3.267
59368SOL     OW80000  10.790  14.350  13.756
59368SOL    HW180001  10.724  14.405  13.714
59368SOL    HW280002  10.755  14.333  13.843
59369SOL     OW80003  13.995   7.840   9.814
59369SOL    HW180004  13.960   7.882   9.893
59369SOL    HW280005  13.920   7.791   9.778
59370SOL     OW80006  14.225   6.309   7.751
59370SOL    HW180007  14.165   6.317   7.826
59370SOL    HW280008  14.231   6.215   7.735
59371SOL     OW80009   7.316  14.638   3.756
59371SOL    HW180010   7.265  14.562   3.784
59371SOL    HW280011   7.329  14.689   3.836
59372SOL     OW80012   3.135  13.804  14.437
59372SOL    HW180013   3.220  13.823  14.396
59372SOL    HW280014   3.071  13.841  14.376
59373SOL     OW80015   2.316   0.671   7.098
59373SOL    HW180016   2.336   0.721   7.019
59373SOL    HW280017   2.396   0.677   7.152
59374SOL     OW80018   6.224   4.325   8.871
59374SOL    HW180019   6.263   4.271   8.939
59374SOL    HW280020   6.297   4.353   8.817
59375SOL     OW80021   1.186   2.456  14.647
59375SOL    HW180022   1.111   2.424  14.697
59375SOL    HW280023   1.223   2.378  14.607
59376SOL     OW80024   5.978  14.835  10.723
59376SOL    HW180025   5.918  14.764  10.700
59376SOL    HW280026   5.928   0.011  10.785
59377SOL     OW80027   6.163   6.249   8.110
59377SOL    HW180028   6.213   6.331   8.104
59377SOL    HW280029   6.074   6.274   8.083
59378SOL     OW80030   8.320  13.904   9.064
59378SOL    HW180031   8.231  13.935   9.045
59378SOL    HW280032   8.314  13.809   9.055
59379SOL     OW80033   8.518   1.571  14.289
59379SOL    HW180034   8.466   1.575  14.369
59379SOL    HW280035   8.471   1.626  14.227
59380SOL     OW80036   1.312   3.946   1.701
59380SOL    HW180037   1.243   3.885   1.729
59380SOL    HW280038   1.284   3.977   1.615
59381SOL     OW80039   9.031   6.367   8.885
59381SOL    HW180040   9.063   6.433   8.824
59381SOL    HW280041   8.944   6.399   8.912
59382SOL     OW80042   3.146  12.598   1.216
59382SOL    HW180043   3.114  12.544   1.144
59382SOL    HW280044   3.067  12.630   1.259
59383SOL     OW80045  12.179  10.336   2.745
59383SOL    HW180046  12.184  10.295   2.832
59383SOL    HW280047  12.114  10.283   2.698
59384SOL     OW80048   9.244  13.394   8.908
59384SOL    HW180049   9.156  13.426   8.929
59384SOL    HW280050   9.289  13.470   8.871
59385SOL     OW80051   1.012   5.777  13.545
59385SOL    HW180052   0.922   5.772  13.579
59385SOL    HW280053   1.064   5.805  13.620
59386SOL     OW80054   2.535  11.088   8.715
59386SOL    HW180055   2.526  11.131   8.630
59386SOL    HW280056   2.626  11.058   8.716
59387SOL     OW80057   9.606   1.791   1.454
59387SOL    HW180058   9.533   1.852   1.459
59387SOL    HW280059   9.622   1.765   1.545
59388SOL     OW80060   0.952   7.097   2.434
59388SOL    HW180061   0.859   7.077   2.429
59388SOL    HW280062   0.964   7.171   2.375
59389SOL     OW80063   4.667   6.634  12.034
59389SOL    HW180064   4.595   6.585  12.074
59389SOL    HW280065   4.629   6.668  11.953
59390SOL     OW80066   7.616   4.595   1.567
59390SOL    HW180067   7.661   4.590   1.483
59390SOL    HW280068   7.686   4.600   1.632
59391SOL     OW80069  12.879   0.161   2.479
59391SOL    HW180070  12.954   0.217   2.460
59391SOL    HW280071  12.913   0.096   2.541
59392SOL     OW80072   2.215   9.820  13.225
59392SOL    HW180073   2.270   9.757  13.270
59392SOL    HW280074   2.161   9.768  13.166
59393SOL     OW80075   4.750   6.273  11.056
59393SOL    HW180076   4.676   6.302  11.109
59393SOL    HW280077   4.756   6.337  10.985
59394SOL     OW80078  12.777   9.525   2.730
59394SOL    HW180079  12.857   9.476   2.711
59394SOL    HW280080  12.802   9.589   2.796
59395SOL     OW80081  12.462   6.963   8.701
59395SOL    HW180082  12.412   6.903   8.646
59395SOL    HW280083  12.399   6.996   8.765
59396SOL     OW80084  10.428   8.137   6.215
59396SOL    HW180085  10.487   8.085   6.270
59396SOL    HW280086  10.412   8.216   6.266
59397SOL     OW80087  10.360   9.294   9.100
59397SOL    HW180088  10.295   9.286   9.170
59397SOL    HW280089  10.443   9.307   9.146
59398SOL     OW80090  14.478   5.948   2.907
59398SOL    HW180091  14.428   5.987   2.836
59398SOL    HW280092  14.569   5.968   2.886
59399SOL     OW80093   6.908   5.292  10.495
59399SOL    HW180094   6.890   5.381  10.464
59399SOL    HW280095   7.003   5.287  10.499
59400SOL     OW80096  13.794   0.372  12.488
59400SOL    HW180097  13.722   0.432  12.467
59400SOL    HW280098  13.809   0.323  12.407
59401SOL     OW80099  13.733  13.605   0.722
59401SOL    HW180100  13.807  13.641   0.673
59401SOL    HW280101  13.683  13.681   0.751
59402SOL     OW80102   7.173   3.469   1.770
59402SOL    HW180103   7.236   3.504   1.833
59402SOL    HW280104   7.178   3.528   1.695
59403SOL     OW80105  11.097   3.218   6.369
59403SOL    HW180106  11.042   3.181   6.438
59403SOL    HW280107  11.103   3.148   6.303
59404SOL     OW80108   2.907   4.322  14.638
59404SOL    HW180109   2.918   4.360  14.725
59404SOL    HW280110   2.892   4.229  14.654
59405SOL     OW80111   5.732  14.558   3.471
59405SOL    HW180112   5.637  14.542   3.478
59405SOL    HW280113   5.766  14.533   3.557
59406SOL     OW80114   0.612  12.689   2.817
59406SOL    HW180115   0.538  12.637   2.847
59406SOL    HW280116   0.575  12.750   2.753
59407SOL     OW80117   2.354   7.942   7.557
59407SOL    HW180118   2.427   7.965   7.500
59407SOL    HW280119   2.276   7.963   7.504
59408SOL     OW80120   5.061   3.572   1.682
59408SOL    HW180121   5.118   3.552   1.756
59408SOL    HW280122   5.116   3.560   1.605
59409SOL     OW80123   9.431  11.174   3.493
59409SOL    HW180124   9.418  11.213   3.406
59409SOL    HW280125   9.353  11.120   3.506
59410SOL     OW80126  14.188   9.908   5.870
59410SOL    HW180127  14.157   9.989   5.909
59410SOL    HW280128  14.109   9.861   5.844
59411SOL     OW80129  12.555   8.013  11.941
59411SOL    HW180130  12.530   7.954  12.012
59411SOL    HW280131  12.619   8.072  11.982
59412SOL     OW80132   6.953  12.260   7.871
59412SOL    HW180133   6.992  12.209   7.800
59412SOL    HW280134   6.942  12.348   7.835
59413SOL     OW80135  11.632  13.475  10.475
59413SOL    HW180136  11.660  13.565  10.462
59413SOL    HW280137  11.537  13.477  10.457
59414SOL     OW80138   8.446   9.891   7.208
59414SOL    HW180139   8.403   9.952   7.149
59414SOL    HW280140   8.413   9.805   7.181
59415SOL     OW80141   4.513   8.507   9.551
59415SOL    HW180142   4.452   8.433   9.545
59415SOL    HW280143   4.563   8.503   9.470
59416SOL     OW80144   2.471   0.594  11.646
59416SOL    HW180145   2.395   0.572  11.700
59416SOL    HW280146   2.441   0.579  11.556
59417SOL     OW80147  14.214  12.408   7.988
59417SOL    HW180148  14.174  12.345   7.928
59417SOL    HW280149  14.139  12.450   8.031
59418SOL     OW80150  10.499   3.512  10.662
59418SOL    HW180151  10.405   3.512  10.646
59418SOL    HW280152  10.532   3.588  10.614
59419SOL     OW80153  11.408  10.411   8.713
59419SOL    HW180154  11.403  10.497   8.754
59419SOL    HW280155  11.470  10.423   8.641
59420SOL     OW80156   5.653  13.678   9.173
59420SOL    HW180157   5.557  13.674   9.164
59420SOL    HW280158   5.667  13.732   9.251
59421SOL     OW80159   8.609  12.666   2.233
59421SOL    HW180160   8.630  12.682   2.141
59421SOL    HW280161   8.680  12.609   2.264
59422SOL     OW80162   7.373  11.007  12.639
59422SOL    HW180163   7.385  10.914  12.657
59422SOL    HW280164   7.326  11.009  12.556
59423SOL     OW80165   3.048   1.256  10.760
59423SOL    HW180166   3.095   1.339  10.759
59423SOL    HW280167   3.063   1.221  10.847
59424SOL     OW80168   8.878   6.659  11.088
59424SOL    HW180169   8.812   6.615  11.036
59424SOL    HW280170   8.841   6.664  11.176
59425SOL     OW80171   8.537   0.027  12.545
59425SOL    HW180172   8.503   0.104  12.591
59425SOL    HW280173   8.628   0.050  12.524
59426SOL     OW80174   6.319   4.790  14.550
59426SOL    HW180175   6.232   4.751  14.555
59426SOL    HW280176   6.376   4.726  14.593
59427SOL     OW80177   5.482   9.963   0.753
59427SOL    HW180178   5.391   9.942   0.775
59427SOL    HW280179   5.485   9.961   0.658
59428SOL     OW80180   2.074  12.108  11.717
59428SOL    HW180181   2.142  12.042  11.724
59428SOL    HW280182   1.995  12.065  11.748
59429SOL     OW80183   3.223   9.981   6.469
59429SOL    HW180184   3.272  10.061   6.453
59429SOL    HW280185   3.239   9.927   6.391
59430SOL     OW80186  10.232   9.883  10.994
59430SOL    HW180187  10.302   9.881  11.059
59430SOL    HW280188  10.224   9.975  10.969
59431SOL     OW80189   8.002   5.167   2.989
59431SOL    HW180190   8.049   5.089   2.959
59431SOL    HW280191   8.011   5.229   2.917
59432SOL     OW80192  11.476   8.378  14.336
59432SOL    HW180193  11.567   8.381  14.305
59432SOL    HW280194  11.475   8.434  14.413
59433SOL     OW80195   4.081   3.046   7.005
59433SOL    HW180196   4.026   3.119   6.975
59433SOL    HW280197   4.041   3.017   7.087
59434SOL     OW80198  14.829  11.114  13.833
59434SOL    HW180199  14.823  11.173  13.908
59434SOL    HW280200  14.874  11.165  13.766
59435SOL     OW80201  11.481   6.501   1.969
59435SOL    HW180202  11.455   6.451   1.892
59435SOL    HW280203  11.452   6.448   2.043
59436SOL     OW80204   7.038   7.059   7.097
59436SOL    HW180205   7.057   6.998   7.168
59436SOL    HW280206   7.105   7.041   7.031
59437SOL     OW80207   4.127   0.075  10.490
59437SOL    HW180208   4.046   0.050  10.534
59437SOL    HW280209   4.196   0.032  10.541
59438SOL     OW80210   4.444   2.298   9.271
59438SOL    HW180211   4.527   2.322   9.310
59438SOL    HW280212   4.378   2.340   9.325
59439SOL     OW80213   6.497  12.444   9.649
59439SOL    HW180214   6.474  12.478   9.562
59439SOL    HW280215   6.413  12.429   9.692
59440SOL     OW80216   8.478  14.573  13.227
59440SOL    HW180217   8.532  14.616  13.293
59440SOL    HW280218   8.449  14.492  13.269
59441SOL     OW80219  14.568   7.347   4.046
59441SOL    HW180220  14.539   7.410   3.980
59441SOL    HW280221  14.662   7.339   4.031
59442SOL     OW80222  14.361   5.693  11.168
59442SOL    HW180223  14.399   5.780  11.174
59442SOL    HW280224  14.333   5.673  11.258
59443SOL     OW80225  10.921   8.889   3.684
59443SOL    HW180226  10.921   8.857   3.775
59443SOL    HW280227  10.911   8.810   3.631
59444SOL     OW80228  13.700   3.400   7.751
59444SOL    HW180229  13.755   3.322   7.754
59444SOL    HW280230  13.709   3.440   7.838
59445SOL     OW80231   6.496  10.749  11.278
59445SOL    HW180232   6.569  10.807  11.300
59445SOL    HW280233   6.429  10.769  11.343
59446SOL     OW80234   0.673   8.100   5.686
59446SOL    HW180235   0.730   8.067   5.617
59446SOL    HW280236   0.717   8.076   5.768
59447SOL     OW80237  11.423  10.845  11.392
59447SOL    HW180238  11.415  10.938  11.371
59447SOL    HW280239  11.516  10.834  11.412
59448SOL     OW80240   9.539  11.044   3.124
59448SOL    HW180241   9.445  11.053   3.141
59448SOL    HW280242   9.564  10.966   3.173
59449SOL     OW80243   8.372   4.998  13.807
59449SOL    HW180244   8.318   4.971  13.881
59449SOL    HW280245   8.387   4.917  13.758
59450SOL     OW80246   9.682   0.100   3.339
59450SOL    HW180247   9.778   0.097   3.335
59450SOL    HW280248   9.658   0.023   3.391
59451SOL     OW80249  10.650  10.887   7.887
59451SOL    HW180250  10.737  10.914   7.917
59451SOL    HW280251  10.596  10.886   7.966
59452SOL     OW80252   3.538  11.358   4.280
59452SOL    HW180253   3.584  11.344   4.197
59452SOL    HW280254   3.602  11.401   4.337
59453SOL     OW80255  11.302   5.714   6.288
59453SOL    HW180256  11.219   5.751   6.319
59453SOL    HW280257  11.351   5.788   6.253
59454SOL     OW80258   6.541   8.235   9.384
59454SOL    HW180259   6.582   8.222   9.470
59454SOL    HW280260   6.593   8.181   9.325
59455SOL     OW80261   1.380   0.102   8.929
59455SOL    HW180262   1.388   0.021   8.979
59455SOL    HW280263   1.289   0.104   8.899
59456SOL     OW80264  12.535   3.426   7.212
59456SOL    HW180265  12.465   3.491   7.213
59456SOL    HW280266  12.490   3.342   7.216
59457SOL     OW80267   7.604   2.502  10.684
59457SOL    HW180268   7.598   2.487  10.779
59457SOL    HW280269   7.522   2.546  10.661
59458SOL     OW80270   7.943  13.746  14.734
59458SOL    HW180271   7.915  13.677  14.793
59458SOL    HW280272   7.968  13.818  14.791
59459SOL     OW80273   8.943   8.941  14.381
59459SOL    HW180274   8.868   8.974  14.430
59459SOL    HW280275   9.011   8.929  14.447
59460SOL     OW80276   2.707  12.534   2.195
59460SOL    HW180277   2.702  12.584   2.277
59460SOL    HW280278   2.709  12.600   2.126
59461SOL     OW80279   7.019   3.702   6.506
59461SOL    HW180280   7.106   3.732   6.479
59461SOL    HW280281   7.020   3.608   6.488
59462SOL     OW80282  14.287  12.515   7.474
59462SOL    HW180283  14.208  12.498   7.526
59462SOL    HW280284  14.341  12.437   7.487
59463SOL     OW80285   0.221  13.328   4.747
59463SOL    HW180286   0.170  13.301   4.823
59463SOL    HW280287   0.212  13.423   4.744
59464SOL     OW80288   6.224   7.153   5.222
59464SOL    HW180289   6.308   7.120   5.255
59464SOL    HW280290   6.169   7.075   5.214
59465SOL     OW80291   0.819   0.782  12.053
59465SOL    HW180292   0.898   0.765  12.001
59465SOL    HW280293   0.755   0.812  11.988
59466SOL     OW80294  13.538   3.164  11.460
59466SOL    HW180295  13.567   3.227  11.525
59466SOL    HW280296  13.462   3.204  11.419
59467SOL     OW80297  14.527  14.295  11.076
59467SOL    HW180298  14.452  14.247  11.041
59467SOL    HW280299  14.589  14.227  11.102
59468SOL     OW80300   4.502   2.535  11.287
59468SOL    HW180301   4.445   2.597  11.242
59468SOL    HW280302   4.448   2.456  11.297
59469SOL     OW80303   1.541   3.458  14.509
59469SOL    HW180304   1.480   3.393  14.473
59469SOL    HW280305   1.619   3.450  14.454
59470SOL     OW80306   6.570   2.866  12.327
59470SOL    HW180307   6.566   2.891  12.235
59470SOL    HW280308   6.554   2.947  12.375
59471SOL     OW80309   0.279  14.492  12.916
59471SOL    HW180310   0.282  14.535  13.002
59471SOL    HW280311   0.223  14.550  12.863
59472SOL     OW80312   7.959  13.801   6.740
59472SOL    HW180313   7.957  13.812   6.835
59472SOL    HW280314   8.039  13.846   6.712
59473SOL     OW80315   5.363   0.351   0.492
59473SOL    HW180316   5.310   0.331   0.569
59473SOL    HW280317   5.447   0.307   0.508
59474SOL     OW80318   4.685   8.110   9.757
59474SOL    HW180319   4.718   8.141   9.841
59474SOL    HW280320   4.698   8.184   9.697
59475SOL     OW80321   5.765  13.662   8.049
59475SOL    HW180322   5.763  13.584   7.993
59475SOL    HW280323   5.674  13.674   8.075
59476SOL     OW80324   4.649   3.763   4.440
59476SOL    HW180325   4.629   3.844   4.488
59476SOL    HW280326   4.744   3.756   4.445
59477SOL     OW80327  11.765   9.417  12.769
59477SOL    HW180328  11.674   9.389  12.771
59477SOL    HW280329  11.782   9.449  12.857
59478SOL     OW80330   1.891   3.917   3.618
59478SOL    HW180331   1.934   4.001   3.601
59478SOL    HW280332   1.807   3.923   3.573
59479SOL     OW80333  14.672  14.571  12.382
59479SOL    HW180334  14.616  14.611  12.315
59479SOL    HW280335  14.755  14.554  12.337
59480SOL     OW80336  14.224   3.886   1.530
59480SOL    HW180337  14.170   3.816   1.494
59480SOL    HW280338  14.174   3.966   1.511
59481SOL     OW80339   8.641  12.146  13.143
59481SOL    HW180340   8.686  12.096  13.211
59481SOL    HW280341   8.707  12.158  13.074
59482SOL     OW80342  12.133   7.048   8.662
59482SOL    HW180343  12.090   6.974   8.705
59482SOL    HW280344  12.164   7.103   8.734
59483SOL     OW80345  10.384   9.355   1.747
59483SOL    HW180346  10.433   9.282   1.709
59483SOL    HW280347  10.345   9.319   1.826
59484SOL     OW80348   3.595   9.510  12.125
59484SOL    HW180349   3.640   9.450  12.185
59484SOL    HW280350   3.623   9.597  12.153
59485SOL     OW80351   7.948   3.648   3.690
59485SOL    HW180352   8.023   3.595   3.718
59485SOL    HW280353   7.922   3.610   3.606
59486SOL     OW80354   7.744   9.590   9.905
59486SOL    HW180355   7.711   9.666   9.857
59486SOL    HW280356   7.828   9.619   9.942
59487SOL     OW80357   2.408   8.902  13.644
59487SOL    HW180358   2.389   8.990  13.612
59487SOL    HW280359   2.452   8.858  13.570
59488SOL     OW80360   8.191  10.572   0.458
59488SOL    HW180361   8.150  10.656   0.436
59488SOL    HW280362   8.175  10.517   0.381
59489SOL     OW80363  14.858   0.420   2.357
59489SOL    HW180364  14.817   0.366   2.425
59489SOL    HW280365  14.792   0.428   2.289
59490SOL     OW80366   3.846   7.028  13.945
59490SOL    HW180367   3.838   7.088  13.871
59490SOL    HW280368   3.862   7.085  14.020
59491SOL     OW80369   1.836   6.812  14.753
59491SOL    HW180370   1.857   6.807  14.660
59491SOL    HW280371   1.799   6.726  14.774
59492SOL     OW80372  14.319   4.029   4.998
59492SOL    HW180373  14.337   4.123   5.007
59492SOL    HW280374  14.278   4.021   4.912
59493SOL     OW80375   6.170  14.659  11.225
59493SOL    HW180376   6.185  14.568  11.250
59493SOL    HW280377   6.098  14.688  11.280
59494SOL     OW80378   5.953   9.460  13.944
59494SOL    HW180379   5.990   9.541  13.910
59494SOL    HW280380   6.014   9.433  14.013
59495SOL     OW80381  11.838   4.154   2.547
59495SOL    HW180382  11.853   4.217   2.618
59495SOL    HW280383  11.742   4.145   2.542
59496SOL     OW80384   4.271  14.287   3.799
59496SOL    HW180385   4.213  14.225   3.755
59496SOL    HW280386   4.219  14.324   3.870
59497SOL     OW80387   5.324   4.325  12.287
59497SOL    HW180388   5.357   4.408  12.253
59497SOL    HW280389   5.400   4.284  12.329
59498SOL     OW80390   3.228  10.583  10.253
59498SOL    HW180391   3.194  10.623  10.334
59498SOL    HW280392   3.187  10.634  10.183
59499SOL     OW80393   3.971   3.731   1.112
59499SOL    HW180394   4.022   3.794   1.163
59499SOL    HW280395   3.890   3.720   1.161
59500SOL     OW80396   6.964   3.499  13.018
59500SOL    HW180397   6.909   3.544  13.082
59500SOL    HW280398   7.054   3.515  13.048
59501SOL     OW80399   5.069   2.172   1.705
59501SOL    HW180400   5.129   2.214   1.766
59501SOL    HW280401   5.119   2.100   1.666
59502SOL     OW80402   0.096   1.347  10.692
59502SOL    HW180403   0.075   1.435  10.661
59502SOL    HW280404   0.118   1.358  10.785
59503SOL     OW80405  11.815   0.749  11.315
59503SOL    HW180406  11.877   0.797  11.261
59503SOL    HW280407  11.755   0.708  11.252
59504SOL     OW80408   8.129   7.894   5.176
59504SOL    HW180409   8.109   7.806   5.210
59504SOL    HW280410   8.069   7.904   5.102
59505SOL     OW80411   8.611   3.931   2.798
59505SOL    HW180412   8.654   3.891   2.873
59505SOL    HW280413   8.683   3.966   2.745
59506SOL     OW80414   0.967   4.661  13.885
59506SOL    HW180415   0.987   4.751  13.909
59506SOL    HW280416   0.951   4.665  13.790
59507SOL     OW80417   0.947  10.338  12.021
59507SOL    HW180418   0.918  10.291  11.942
59507SOL    HW280419   1.039  10.314  12.030
59508SOL     OW80420   0.430   9.557   2.911
59508SOL    HW180421   0.478   9.546   2.829
59508SOL    HW280422   0.459   9.642   2.945
59509SOL     OW80423  10.554  11.184   2.807
59509SOL    HW180424  10.585  11.241   2.877
59509SOL    HW280425  10.634  11.157   2.761
59510SOL     OW80426   6.139   2.228  10.475
59510SOL    HW180427   6.084   2.160  10.515
59510SOL    HW280428   6.222   2.222  10.522
59511SOL     OW80429   6.304   4.732   5.442
59511SOL    HW180430   6.222   4.737   5.393
59511SOL    HW280431   6.372   4.749   5.377
59512SOL     OW80432  14.821   5.490  10.972
59512SOL    HW180433  14.861   5.421  10.919
59512SOL    HW280434  14.728   5.467  10.974
59513SOL     OW80435  13.491  10.619   4.227
59513SOL    HW180436  13.582  10.636   4.250
59513SOL    HW280437  13.478  10.666   4.144
59514SOL     OW80438  14.100  14.696  12.687
59514SOL    HW180439  14.073  14.605  12.672
59514SOL    HW280440  14.192  14.699  12.660
59515SOL     OW80441   1.333   2.646   2.692
59515SOL    HW180442   1.278   2.580   2.735
59515SOL    HW280443   1.392   2.595   2.637
59516SOL     OW80444   3.327  13.999  10.807
59516SOL    HW180445   3.377  14.048  10.872
59516SOL    HW280446   3.378  14.010  10.726
59517SOL     OW80447  14.854   8.264  14.790
59517SOL    HW180448   0.033   8.214  14.848
59517SOL    HW280449   0.036   8.308  14.730
59518SOL     OW80450  10.116   4.284  10.234
59518SOL    HW180451  10.021   4.296  10.228
59518SOL    HW280452  10.127   4.215  10.299
59519SOL     OW80453   8.731  10.349   4.255
59519SOL    HW180454   8.780  10.407   4.197
59519SOL    HW280455   8.639  10.361   4.229
59520SOL     OW80456  11.900   7.340   2.577
59520SOL    HW180457  11.906   7.328   2.672
59520SOL    HW280458  11.890   7.251   2.543
59521SOL     OW80459  12.699   8.111  13.627
59521SOL    HW180460  12.604   8.100  13.620
59521SOL    HW280461  12.727   8.132  13.538
59522SOL     OW80462  13.148  14.339   4.010
59522SOL    HW180463  13.098  14.274   4.061
59522SOL    HW280464  13.145  14.418   4.064
59523SOL     OW80465   7.878   6.453   0.520
59523SOL    HW180466   7.896   6.385   0.455
59523SOL    HW280467   7.785   6.444   0.539
59524SOL     OW80468  11.238  13.683   5.785
59524SOL    HW180469  11.175  13.698   5.855
59524SOL    HW280470  11.267  13.592   5.798
59525SOL     OW80471   5.994   8.968   3.291
59525SOL    HW180472   6.081   8.927   3.293
59525SOL    HW280473   5.942   8.913   3.233
59526SOL     OW80474  14.477   9.491   9.835
59526SOL    HW180475  14.427   9.566   9.803
59526SOL    HW280476  14.465   9.424   9.768
59527SOL     OW80477  12.418  12.492   3.931
59527SOL    HW180478  12.395  12.486   4.023
59527SOL    HW280479  12.472  12.415   3.914
59528SOL     OW80480   1.627   6.968   5.617
59528SOL    HW180481   1.544   6.928   5.591
59528SOL    HW280482   1.693   6.924   5.564
59529SOL     OW80483   9.019   0.673  14.398
59529SOL    HW180484   9.022   0.580  14.421
59529SOL    HW280485   8.931   0.701  14.424
59530SOL     OW80486   1.636  13.998   4.907
59530SOL    HW180487   1.599  14.007   4.820
59530SOL    HW280488   1.618  14.082   4.950
59531SOL     OW80489   7.091  11.646   1.650
59531SOL    HW180490   7.174  11.657   1.695
59531SOL    HW280491   7.114  11.611   1.564
59532SOL     OW80492   6.568   4.744   1.274
59532SOL    HW180493   6.658   4.712   1.281
59532SOL    HW280494   6.535   4.706   1.192
59533SOL     OW80495   9.733   3.214   6.882
59533SOL    HW180496   9.662   3.167   6.926
59533SOL    HW280497   9.813   3.178   6.921
59534SOL     OW80498   8.463   5.602   9.291
59534SOL    HW180499   8.370   5.578   9.285
59534SOL    HW280500   8.464   5.696   9.277
59535SOL     OW80501   7.923   1.911   5.833
59535SOL    HW180502   7.994   1.934   5.774
59535SOL    HW280503   7.861   1.984   5.827
59536SOL     OW80504   3.642   2.225   8.157
59536SOL    HW180505   3.623   2.132   8.173
59536SOL    HW280506   3.562   2.258   8.117
59537SOL     OW80507  10.334   3.616   6.978
59537SOL    HW180508  10.287   3.534   6.992
59537SOL    HW280509  10.361   3.613   6.886
59538SOL     OW80510  12.374   1.936  11.179
59538SOL    HW180511  12.451   1.913  11.127
59538SOL    HW280512  12.410   1.979  11.256
59539SOL     OW80513  13.489   2.779   4.333
59539SOL    HW180514  13.420   2.827   4.289
59539SOL    HW280515  13.449   2.694   4.355
59540SOL     OW80516  14.031   9.253   2.676
59540SOL    HW180517  13.942   9.233   2.704
59540SOL    HW280518  14.080   9.269   2.757
59541SOL     OW80519   0.196  13.346   7.678
59541SOL    HW180520   0.137  13.332   7.603
59541SOL    HW280521   0.277  13.302   7.653
59542SOL     OW80522   1.515   4.037  13.183
59542SOL    HW180523   1.555   4.123  13.172
59542SOL    HW280524   1.421   4.053  13.175
59543SOL     OW80525   9.436   7.930   9.079
59543SOL    HW180526   9.344   7.954   9.065
59543SOL    HW280527   9.436   7.886   9.164
59544SOL     OW80528  14.082   1.138   7.528
59544SOL    HW180529  14.076   1.049   7.495
59544SOL    HW280530  14.070   1.130   7.623
59545SOL     OW80531   3.198   9.898   6.959
59545SOL    HW180532   3.127   9.955   6.989
59545SOL    HW280533   3.248   9.879   7.038
59546SOL     OW80534   9.490  13.760   2.635
59546SOL    HW180535   9.502  13.785   2.543
59546SOL    HW280536   9.409  13.802   2.661
59547SOL     OW80537   5.462  13.622   1.684
59547SOL    HW180538   5.506  13.707   1.684
59547SOL    HW280539   5.531  13.559   1.702
59548SOL     OW80540   6.456  11.825   0.790
59548SOL    HW180541   6.551  11.828   0.782
59548SOL    HW280542   6.430  11.749   0.738
59549SOL     OW80543   5.908   2.596  14.597
59549SOL    HW180544   5.943   2.508  14.611
59549SOL    HW280545   5.815   2.588  14.618
59550SOL     OW80546   6.817  14.418  14.773
59550SOL    HW180547   6.791  14.510  14.769
59550SOL    HW280548   6.898  14.418  14.824
59551SOL     OW80549   2.795  12.440   4.494
59551SOL    HW180550   2.737  12.369   4.468
59551SOL    HW280551   2.862  12.397   4.548
59552SOL     OW80552   1.498   7.176   3.508
59552SOL    HW180553   1.509   7.099   3.453
59552SOL    HW280554   1.403   7.188   3.514
59553SOL     OW80555  10.922   5.270  13.352
59553SOL    HW180556  10.831   5.292  13.371
59553SOL    HW280557  10.940   5.192  13.405
59554SOL     OW80558  14.027   3.068  14.136
59554SOL    HW180559  14.109   3.063  14.086
59554SOL    HW280560  13.993   2.979  14.137
59555SOL     OW80561  10.511   6.226   9.130
59555SOL    HW180562  10.483   6.156   9.070
59555SOL    HW280563  10.502   6.306   9.079
59556SOL     OW80564   2.973   7.106   4.846
59556SOL    HW180565   3.039   7.080   4.782
59556SOL    HW280566   2.954   7.027   4.896
59557SOL     OW80567   7.118   3.887  12.886
59557SOL    HW180568   7.029   3.855  12.873
59557SOL    HW280569   7.157   3.886  12.798
59558SOL     OW80570   3.127   6.243   0.604
59558SOL    HW180571   3.161   6.167   0.556
59558SOL    HW280572   3.202   6.302   0.612
59559SOL     OW80573  14.120   7.484   1.200
59559SOL    HW180574  14.064   7.408   1.216
59559SOL    HW280575  14.209   7.452   1.212
59560SOL     OW80576   8.101   7.194   5.096
59560SOL    HW180577   8.177   7.194   5.154
59560SOL    HW280578   8.034   7.243   5.144
59561SOL     OW80579   4.611  12.816   7.686
59561SOL    HW180580   4.689  12.779   7.645
59561SOL    HW280581   4.609  12.907   7.658
59562SOL     OW80582  14.257   5.223   3.042
59562SOL    HW180583  14.269   5.315   3.067
59562SOL    HW280584  14.184   5.193   3.096
59563SOL     OW80585   0.094   8.437   5.299
59563SOL    HW180586   0.148   8.371   5.342
59563SOL    HW280587   0.117   8.431   5.207
59564SOL     OW80588   9.212  14.603   3.739
59564SOL    HW180589   9.154  14.565   3.806
59564SOL    HW280590   9.156  14.614   3.662
59565SOL     OW80591  12.783   8.037  13.156
59565SOL    HW180592  12.863   8.025  13.104
59565SOL    HW280593  12.782   7.961  13.215
59566SOL     OW80594   7.518  10.283   9.962
59566SOL    HW180595   7.604  10.318   9.986
59566SOL    HW280596   7.465  10.361   9.944
59567SOL     OW80597   2.078   8.773  14.504
59567SOL    HW180598   2.162   8.739  14.534
59567SOL    HW280599   2.085   8.774  14.408
59568SOL     OW80600  13.961  11.479  14.032
59568SOL    HW180601  14.031  11.415  14.044
59568SOL    HW280602  14.005  11.564  14.038
59569SOL     OW80603   7.520  10.223   7.331
59569SOL    HW180604   7.614  10.206   7.325
59569SOL    HW280605   7.480  10.143   7.297
59570SOL     OW80606  10.188   9.355  12.766
59570SOL    HW180607  10.131   9.392  12.699
59570SOL    HW280608  10.265   9.412  12.766
59571SOL     OW80609   2.290   1.717  12.233
59571SOL    HW180610   2.266   1.783  12.298
59571SOL    HW280611   2.210   1.706  12.181
59572SOL     OW80612   2.823   1.076   7.412
59572SOL    HW180613   2.914   1.099   7.433
59572SOL    HW280614   2.797   1.015   7.481
59573SOL     OW80615  13.905   9.843   0.077
59573SOL    HW180616  13.917   9.924   0.028
59573SOL    HW280617  13.881   9.778   0.011
59574SOL     OW80618   8.036  13.065   3.815
59574SOL    HW180619   8.073  13.005   3.751
59574SOL    HW280620   8.109  13.122   3.840
59575SOL     OW80621   7.916  11.506   9.332
59575SOL    HW180622   7.909  11.466   9.246
59575SOL    HW280623   7.965  11.442   9.384
59576SOL     OW80624   4.016  11.436   7.770
59576SOL    HW180625   3.999  11.436   7.865
59576SOL    HW280626   4.103  11.475   7.762
59577SOL     OW80627   7.819  14.795   3.388
59577SOL    HW180628   7.843  14.722   3.447
59577SOL    HW280629   7.880  14.864   3.412
59578SOL     OW80630   1.573   4.593  11.816
59578SOL    HW180631   1.608   4.507  11.837
59578SOL    HW280632   1.533   4.583  11.730
59579SOL     OW80633   9.237  13.148   7.316
59579SOL    HW180634   9.324  13.178   7.290
59579SOL    HW280635   9.250  13.107   7.402
59580SOL     OW80636   6.438   4.343  10.380
59580SOL    HW180637   6.512   4.288  10.404
59580SOL    HW280638   6.368   4.282  10.357
59581SOL     OW80639   6.164   1.411   8.112
59581SOL    HW180640   6.191   1.320   8.100
59581SOL    HW280641   6.068   1.408   8.111
59582SOL     OW80642  10.331   7.166  11.148
59582SOL    HW180643  10.334   7.164  11.053
59582SOL    HW280644  10.360   7.079  11.175
59583SOL     OW80645   8.874  13.101   8.374
59583SOL    HW180646   8.785  13.072   8.398
59583SOL    HW280647   8.895  13.052   8.295
59584SOL     OW80648   1.641  11.938   6.377
59584SOL    HW180649   1.552  11.907   6.359
59584SOL    HW280650   1.628  12.020   6.425
59585SOL     OW80651  11.694   5.705  10.872
59585SOL    HW180652  11.605   5.738  10.885
59585SOL    HW280653  11.682   5.617  10.835
59586SOL     OW80654   8.868   4.844   2.213
59586SOL    HW180655   8.814   4.767   2.199
59586SOL    HW280656   8.809   4.908   2.253
59587SOL     OW80657  11.859   1.435   1.944
59587SOL    HW180658  11.869   1.450   2.038
59587SOL    HW280659  11.896   1.513   1.903
59588SOL     OW80660   5.538   7.172  12.596
59588SOL    HW180661   5.622   7.139  12.629
59588SOL    HW280662   5.521   7.119  12.518
59589SOL     OW80663  11.530   4.127  10.609
59589SOL    HW180664  11.446   4.087  10.586
59589SOL    HW280665  11.541   4.107  10.702
59590SOL     OW80666   0.560  13.459  11.594
59590SOL    HW180667   0.568  13.553  11.606
59590SOL    HW280668   0.519  13.427  11.674
59591SOL     OW80669   5.193   7.012   5.706
59591SOL    HW180670   5.252   7.008   5.631
59591SOL    HW280671   5.128   6.944   5.689
59592SOL     OW80672  13.002   7.619   4.302
59592SOL    HW180673  12.935   7.585   4.361
59592SOL    HW280674  13.018   7.547   4.241
59593SOL     OW80675   3.542   9.631   3.953
59593SOL    HW180676   3.491   9.704   3.987
59593SOL    HW280677   3.548   9.648   3.859
59594SOL     OW80678  14.039   9.964   0.814
59594SOL    HW180679  13.952   9.928   0.799
59594SOL    HW280680  14.099   9.895   0.785
59595SOL     OW80681   7.907  14.009   9.106
59595SOL    HW180682   7.960  13.983   9.182
59595SOL    HW280683   7.836  14.060   9.143
59596SOL     OW80684  10.644   1.705   6.512
59596SOL    HW180685  10.701   1.749   6.449
59596SOL    HW280686  10.621   1.622   6.470
59597SOL     OW80687  10.901   0.989   8.018
59597SOL    HW180688  10.852   0.943   8.086
59597SOL    HW280689  10.937   0.920   7.962
59598SOL     OW80690  13.874   6.788  10.827
59598SOL    HW180691  13.891   6.713  10.883
59598SOL    HW280692  13.827   6.850  10.882
59599SOL     OW80693   3.608   9.979   8.365
59599SOL    HW180694   3.689  10.007   8.324
59599SOL    HW280695   3.606   9.884   8.352
59600SOL     OW80696   8.977  10.455   5.735
59600SOL    HW180697   8.997  10.365   5.708
59600SOL    HW280698   9.063  10.495   5.752
59601SOL     OW80699  14.717   8.682   1.664
59601SOL    HW180700  14.741   8.650   1.751
59601SOL    HW280701  14.796   8.724   1.631
59602SOL     OW80702  10.520   9.139   7.310
59602SOL    HW180703  10.443   9.108   7.264
59602SOL    HW280704  10.542   9.068   7.371
59603SOL     OW80705  11.415  10.543   0.844
59603SOL    HW180706  11.483  10.490   0.804
59603SOL    HW280707  11.341  10.483   0.856
59604SOL     OW80708  13.071   0.443   4.323
59604SOL    HW180709  13.037   0.443   4.412
59604SOL    HW280710  13.150   0.498   4.327
59605SOL     OW80711   6.081   5.973   9.122
59605SOL    HW180712   6.075   5.910   9.195
59605SOL    HW280713   6.172   5.967   9.092
59606SOL     OW80714  13.067   5.955   6.185
59606SOL    HW180715  13.012   5.923   6.113
59606SOL    HW280716  13.141   5.997   6.140
59607SOL     OW80717   5.961  12.146   0.706
59607SOL    HW180718   5.957  12.154   0.801
59607SOL    HW280719   5.985  12.234   0.676
59608SOL     OW80720  10.552   0.815   5.562
59608SOL    HW180721  10.621   0.822   5.627
59608SOL    HW280722  10.548   0.902   5.521
59609SOL     OW80723   1.474  11.805   9.366
59609SOL    HW180724   1.542  11.789   9.432
59609SOL    HW280725   1.522  11.811   9.284
59610SOL     OW80726  10.872   9.540   6.310
59610SOL    HW180727  10.803   9.515   6.371
59610SOL    HW280728  10.953   9.512   6.352
59611SOL     OW80729  14.831   9.779  11.079
59611SOL    HW180730  14.739   9.805  11.078
59611SOL    HW280731  14.830   9.686  11.058
59612SOL     OW80732  10.649   8.326  10.255
59612SOL    HW180733  10.584   8.263  10.223
59612SOL    HW280734  10.598   8.395  10.297
59613SOL     OW80735   0.248   4.342  12.923
59613SOL    HW180736   0.295   4.398  12.984
59613SOL    HW280737   0.285   4.255  12.936
59614SOL     OW80738   4.824   0.373   7.370
59614SOL    HW180739   4.860   0.373   7.281
59614SOL    HW280740   4.842   0.285   7.403
59615SOL     OW80741   3.872   0.808   7.629
59615SOL    HW180742   3.794   0.852   7.596
59615SOL    HW280743   3.841   0.723   7.661
59616SOL     OW80744   1.296  10.267   5.929
59616SOL    HW180745   1.267  10.357   5.912
59616SOL    HW280746   1.383  10.262   5.889
59617SOL     OW80747  10.280   6.844  12.004
59617SOL    HW180748  10.288   6.889  11.920
59617SOL    HW280749  10.195   6.800  12.000
59618SOL     OW80750   3.417  10.431   6.879
59618SOL    HW180751   3.396  10.407   6.789
59618SOL    HW280752   3.408  10.526   6.881
59619SOL     OW80753   6.986  12.770  10.175
59619SOL    HW180754   6.969  12.773  10.270
59619SOL    HW280755   7.081  12.759  10.168
59620SOL     OW80756   1.385   3.235  11.764
59620SOL    HW180757   1.329   3.157  11.767
59620SOL    HW280758   1.452   3.215  11.699
59621SOL     OW80759   4.068   4.304   4.551
59621SOL    HW180760   4.030   4.254   4.479
59621SOL    HW280761   4.009   4.379   4.561
59622SOL     OW80762   8.599   1.623   5.514
59622SOL    HW180763   8.560   1.568   5.446
59622SOL    HW280764   8.526   1.646   5.572
59623SOL     OW80765  11.217  11.042   7.030
59623SOL    HW180766  11.222  10.963   6.976
59623SOL    HW280767  11.286  11.099   6.995
59624SOL     OW80768   4.803   1.869   8.272
59624SOL    HW180769   4.727   1.815   8.293
59624SOL    HW280770   4.820   1.919   8.352
59625SOL     OW80771  14.567   2.394  12.636
59625SOL    HW180772  14.541   2.407  12.545
59625SOL    HW280773  14.576   2.482  12.671
59626SOL     OW80774  13.695  10.327   6.572
59626SOL    HW180775  13.679  10.386   6.499
59626SOL    HW280776  13.692  10.239   6.533
59627SOL     OW80777  14.133   4.843  12.397
59627SOL    HW180778  14.134   4.931  12.360
59627SOL    HW280779  14.121   4.785  12.322
59628SOL     OW80780  14.414   5.952   2.140
59628SOL    HW180781  14.350   5.889   2.106
59628SOL    HW280782  14.496   5.930   2.096
59629SOL     OW80783   1.800  13.515   8.580
59629SOL    HW180784   1.713  13.554   8.565
59629SOL    HW280785   1.852  13.587   8.617
59630SOL     OW80786  10.110   2.707   5.376
59630SOL    HW180787  10.176   2.640   5.392
59630SOL    HW280788  10.159   2.782   5.341
59631SOL     OW80789  13.145   0.153  13.430
59631SOL    HW180790  13.118   0.138  13.521
59631SOL    HW280791  13.146   0.249  13.422
59632SOL     OW80792   0.815  11.945  13.355
59632SOL    HW180793   0.824  11.851  13.372
59632SOL    HW280794   0.727  11.954  13.319
59633SOL     OW80795   9.202   9.866  13.117
59633SOL    HW180796   9.191   9.816  13.199
59633SOL    HW280797   9.296   9.862  13.099
59634SOL     OW80798   7.998  13.981   4.795
59634SOL    HW180799   8.058  13.915   4.828
59634SOL    HW280800   8.017  13.986   4.701
59635SOL     OW80801  11.875   7.488   3.331
59635SOL    HW180802  11.823   7.486   3.251
59635SOL    HW280803  11.811   7.509   3.400
59636SOL     OW80804  12.502   3.560   2.574
59636SOL    HW180805  12.435   3.492   2.568
59636SOL    HW280806  12.584   3.512   2.585
59637SOL     OW80807   1.368   7.946  13.058
59637SOL    HW180808   1.282   7.915  13.029
59637SOL    HW280809   1.359   7.957  13.153
59638SOL     OW80810  11.713   3.039  13.145
59638SOL    HW180811  11.793   3.089  13.126
59638SOL    HW280812  11.668   3.091  13.212
59639SOL     OW80813   0.483  11.526   2.523
59639SOL    HW180814   0.440  11.610   2.538
59639SOL    HW280815   0.563  11.548   2.475
59640SOL     OW80816  13.182   6.214   9.145
59640SOL    HW180817  13.091   6.185   9.135
59640SOL    HW280818  13.180   6.272   9.221
59641SOL     OW80819   3.916   2.287   3.670
59641SOL    HW180820   3.836   2.235   3.664
59641SOL    HW280821   3.940   2.307   3.580
59642SOL     OW80822   1.468   7.246  12.357
59642SOL    HW180823   1.395   7.277  12.410
59642SOL    HW280824   1.433   7.171  12.309
59643SOL     OW80825   9.239   0.935   1.501
59643SOL    HW180826   9.249   0.980   1.417
59643SOL    HW280827   9.211   1.003   1.561
59644SOL     OW80828  11.062   8.902   5.058
59644SOL    HW180829  11.040   8.981   5.107
59644SOL    HW280830  11.158   8.900   5.058
59645SOL     OW80831   4.404   0.067   3.730
59645SOL    HW180832   4.498   0.065   3.747
59645SOL    HW280833   4.374  14.857   3.754
59646SOL     OW80834   9.617   4.914   0.019
59646SOL    HW180835   9.626   4.935   0.111
59646SOL    HW280836   9.658   4.828   0.010
59647SOL     OW80837   3.136   9.344  14.710
59647SOL    HW180838   3.206   9.279  14.716
59647SOL    HW280839   3.061   9.303  14.753
59648SOL     OW80840   2.629   0.470   0.089
59648SOL    HW180841   2.595   0.407   0.152
59648SOL    HW280842   2.551   0.513   0.054
59649SOL     OW80843   3.716   2.614  10.650
59649SOL    HW180844   3.724   2.519  10.654
59649SOL    HW280845   3.641   2.635  10.707
59650SOL     OW80846   5.745   0.487   8.516
59650SOL    HW180847   5.696   0.552   8.566
59650SOL    HW280848   5.810   0.537   8.467
59651SOL     OW80849   3.141  13.787   9.955
59651SOL    HW180850   3.173  13.782   9.865
59651SOL    HW280851   3.192  13.720  10.002
59652SOL     OW80852   6.021   6.769   6.249
59652SOL    HW180853   6.043   6.793   6.159
59652SOL    HW280854   6.104   6.774   6.296
59653SOL     OW80855   7.474  11.080   9.178
59653SOL    HW180856   7.383  11.092   9.205
59653SOL    HW280857   7.525  11.123   9.247
59654SOL     OW80858  13.280   6.851  12.016
59654SOL    HW180859  13.302   6.928  12.068
59654SOL    HW280860  13.251   6.887  11.932
59655SOL     OW80861   1.994  13.912  10.815
59655SOL    HW180862   1.954  13.938  10.898
59655SOL    HW280863   2.076  13.961  10.811
59656SOL     OW80864   7.248   7.257   5.480
59656SOL    HW180865   7.190   7.246   5.556
59656SOL    HW280866   7.336   7.260   5.518
59657SOL     OW80867   9.302   5.470  12.791
59657SOL    HW180868   9.282   5.541  12.730
59657SOL    HW280869   9.379   5.500  12.838
59658SOL     OW80870  11.649  10.737  13.983
59658SOL    HW180871  11.567  10.716  14.029
59658SOL    HW280872  11.657  10.668  13.917
59659SOL     OW80873  12.566   9.737  11.740
59659SOL    HW180874  12.561   9.710  11.648
59659SOL    HW280875  12.483   9.782  11.756
59660SOL     OW80876   9.884   8.514   7.641
59660SOL    HW180877   9.879   8.522   7.546
59660SOL    HW280878   9.900   8.421   7.657
59661SOL     OW80879  10.511   5.605   6.494
59661SOL    HW180880  10.599   5.621   6.530
59661SOL    HW280881  10.521   5.525   6.442
59662SOL     OW80882   5.228  14.290   4.500
59662SOL    HW180883   5.258  14.339   4.423
59662SOL    HW280884   5.279  14.209   4.498
59663SOL     OW80885   1.322   8.663  10.268
59663SOL    HW180886   1.239   8.693  10.232
59663SOL    HW280887   1.388   8.716  10.224
59664SOL     OW80888   1.270   2.058   0.611
59664SOL    HW180889   1.350   2.053   0.559
59664SOL    HW280890   1.296   2.028   0.699
59665SOL     OW80891   5.586   1.496   8.273
59665SOL    HW180892   5.677   1.469   8.261
59665SOL    HW280893   5.589   1.556   8.347
59666SOL     OW80894   5.880   3.160   1.766
59666SOL    HW180895   5.903   3.212   1.689
59666SOL    HW280896   5.908   3.215   1.840
59667SOL     OW80897   0.886   4.909   3.892
59667SOL    HW180898   0.901   4.815   3.891
59667SOL    HW280899   0.883   4.935   3.800
59668SOL     OW80900   6.240   0.787   7.957
59668SOL    HW180901   6.203   0.829   8.034
59668SOL    HW280902   6.181   0.810   7.886
59669SOL     OW80903   4.940  12.552   7.072
59669SOL    HW180904   4.882  12.541   6.996
59669SOL    HW280905   5.006  12.484   7.062
59670SOL     OW80906   1.165  11.751  13.344
59670SOL    HW180907   1.212  11.823  13.303
59670SOL    HW280908   1.077  11.783  13.358
59671SOL     OW80909   1.635   9.039   0.681
59671SOL    HW180910   1.557   9.005   0.725
59671SOL    HW280911   1.702   9.041   0.750
59672SOL     OW80912   5.352  14.222   9.621
59672SOL    HW180913   5.350  14.310   9.584
59672SOL    HW280914   5.401  14.230   9.703
59673SOL     OW80915   3.766   2.764  12.646
59673SOL    HW180916   3.728   2.751  12.559
59673SOL    HW280917   3.760   2.679  12.688
59674SOL     OW80918  11.879   6.679  10.154
59674SOL    HW180919  11.887   6.771  10.128
59674SOL    HW280920  11.921   6.673  10.239
59675SOL     OW80921   4.402  14.810  14.628
59675SOL    HW180922   4.368   0.021  14.616
59675SOL    HW280923   4.346  14.756  14.572
59676SOL     OW80924  14.287   7.572   4.278
59676SOL    HW180925  14.338   7.609   4.206
59676SOL    HW280926  14.220   7.638   4.295
59677SOL     OW80927   1.760   0.960  14.714
59677SOL    HW180928   1.808   0.960  14.632
59677SOL    HW280929   1.677   0.918  14.694
59678SOL     OW80930   5.527   2.101  14.702
59678SOL    HW180931   5.548   2.069  14.790
59678SOL    HW280932   5.505   2.022  14.653
59679SOL     OW80933   8.953   3.974   4.581
59679SOL    HW180934   8.875   3.927   4.552
59679SOL    HW280935   8.932   4.003   4.670
59680SOL     OW80936   0.520   3.117   1.807
59680SOL    HW180937   0.511   3.043   1.868
59680SOL    HW280938   0.541   3.076   1.723
59681SOL     OW80939  14.657   6.413  13.657
59681SOL    HW180940  14.684   6.329  13.695
59681SOL    HW280941  14.688   6.408  13.566
59682SOL     OW80942   3.386   6.397   6.701
59682SOL    HW180943   3.406   6.488   6.677
59682SOL    HW280944   3.315   6.372   6.642
59683SOL     OW80945   4.145   8.909  14.151
59683SOL    HW180946   4.186   8.880  14.233
59683SOL    HW280947   4.065   8.858  14.145
59684SOL     OW80948   4.307   8.741   9.999
59684SOL    HW180949   4.355   8.696   9.930
59684SOL    HW280950   4.228   8.773   9.957
59685SOL     OW80951   0.937   1.425  14.419
59685SOL    HW180952   0.959   1.351  14.476
59685SOL    HW280953   0.921   1.498  14.478
59686SOL     OW80954   3.771   8.027   5.650
59686SOL    HW180955   3.830   8.101   5.639
59686SOL    HW280956   3.693   8.051   5.600
59687SOL     OW80957  10.359   0.715  13.851
59687SOL    HW180958  10.445   0.756  13.859
59687SOL    HW280959  10.305   0.782  13.808
59688SOL     OW80960  14.727   6.739  12.083
59688SOL    HW180961  14.771   6.663  12.045
59688SOL    HW280962  14.634   6.723  12.067
59689SOL     OW80963   3.322  13.332   8.591
59689SOL    HW180964   3.233  13.295   8.596
59689SOL    HW280965   3.319  13.391   8.516
59690SOL     OW80966   4.215   8.244   1.146
59690SOL    HW180967   4.222   8.334   1.115
59690SOL    HW280968   4.121   8.226   1.146
59691SOL     OW80969   0.072   8.303  11.899
59691SOL    HW180970   0.079   8.281  11.806
59691SOL    HW280971   0.008   8.241  11.933
59692SOL     OW80972   6.060   9.568   0.703
59692SOL    HW180973   6.067   9.553   0.609
59692SOL    HW280974   6.128   9.511   0.741
59693SOL     OW80975   4.621  10.056  11.253
59693SOL    HW180976   4.640   9.965  11.273
59693SOL    HW280977   4.574  10.088  11.331
59694SOL     OW80978  10.624  14.676  10.519
59694SOL    HW180979  10.717  14.652  10.517
59694SOL    HW280980  10.617  14.749  10.458
59695SOL     OW80981  13.307  10.004  14.802
59695SOL    HW180982  13.292  10.088  14.759
59695SOL    HW280983  13.346  10.026   0.009
59696SOL     OW80984  12.824   6.405   6.380
59696SOL    HW180985  12.745   6.356   6.357
59696SOL    HW280986  12.893   6.339   6.384
59697SOL     OW80987  14.326   4.863   3.256
59697SOL    HW180988  14.389   4.805   3.299
59697SOL    HW280989  14.287   4.913   3.327
59698SOL     OW80990   6.271   8.311   9.322
59698SOL    HW180991   6.366   8.312   9.319
59698SOL    HW280992   6.244   8.398   9.292
59699SOL     OW80993   1.368  14.694  13.048
59699SOL    HW180994   1.423  14.725  12.976
59699SOL    HW280995   1.344  14.604  13.024
59700SOL     OW80996   8.969   9.127  12.165
59700SOL    HW180997   9.037   9.091  12.221
59700SOL    HW280998   8.923   9.051  12.131
59701SOL     OW80999  13.075   0.437   6.469
59701SOL    HW181000  12.999   0.454   6.526
59701SOL    HW281001  13.036   0.417   6.384
59702SOL     OW81002   9.635   3.950   3.098
59702SOL    HW181003   9.696   3.878   3.084
59702SOL    HW281004   9.548   3.910   3.090
59703SOL     OW81005   6.557  10.705  13.250
59703SOL    HW181006   6.521  10.790  13.277
59703SOL    HW281007   6.650  10.713  13.267
59704SOL     OW81008   9.127  10.834   6.901
59704SOL    HW181009   9.049  10.862   6.853
59704SOL    HW281010   9.095  10.818   6.990
59705SOL     OW81011   1.361   5.349   7.995
59705SOL    HW181012   1.360   5.444   7.989
59705SOL    HW281013   1.329   5.329   8.083
59706SOL     OW81014   8.814   9.457  11.921
59706SOL    HW181015   8.808   9.399  11.997
59706SOL    HW281016   8.728   9.451  11.880
59707SOL     OW81017   3.347   5.073   9.298
59707SOL    HW181018   3.317   4.987   9.268
59707SOL    HW281019   3.329   5.072   9.392
59708SOL     OW81020  14.685   5.088  10.823
59708SOL    HW181021  14.645   5.089  10.910
59708SOL    HW281022  14.614   5.111  10.763
59709SOL     OW81023  11.642   5.604   0.786
59709SOL    HW181024  11.694   5.528   0.762
59709SOL    HW281025  11.687   5.678   0.746
59710SOL     OW81026   6.869   0.250   7.344
59710SOL    HW181027   6.942   0.228   7.402
59710SOL    HW281028   6.833   0.165   7.317
59711SOL     OW81029   2.720   1.777   2.923
59711SOL    HW181030   2.693   1.787   3.015
59711SOL    HW281031   2.815   1.763   2.928
59712SOL     OW81032  10.369  14.756   2.024
59712SOL    HW181033  10.373  14.676   1.971
59712SOL    HW281034  10.312  14.815   1.974
59713SOL     OW81035  11.956  10.604   9.243
59713SOL    HW181036  11.978  10.607   9.150
59713SOL    HW281037  11.974  10.514   9.269
59714SOL     OW81038   6.590   4.962   2.194
59714SOL    HW181039   6.576   5.025   2.265
59714SOL    HW281040   6.538   4.885   2.220
59715SOL     OW81041  11.780   4.880   1.152
59715SOL    HW181042  11.701   4.882   1.206
59715SOL    HW281043  11.803   4.972   1.140
59716SOL     OW81044  12.477   7.356  14.500
59716SOL    HW181045  12.469   7.269  14.539
59716SOL    HW281046  12.387   7.383  14.483
59717SOL     OW81047  14.026   0.019   6.820
59717SOL    HW181048  13.953   0.069   6.858
59717SOL    HW281049  13.993  14.868   6.735
59718SOL     OW81050   0.254   4.110   2.638
59718SOL    HW181051   0.231   4.027   2.680
59718SOL    HW281052   0.176   4.164   2.648
59719SOL     OW81053  14.147  11.231   5.982
59719SOL    HW181054  14.197  11.154   6.008
59719SOL    HW281055  14.181  11.253   5.895
59720SOL     OW81056   3.761  12.191  13.708
59720SOL    HW181057   3.697  12.236  13.763
59720SOL    HW281058   3.769  12.103  13.745
59721SOL     OW81059  11.782   5.199   5.777
59721SOL    HW181060  11.839   5.208   5.700
59721SOL    HW281061  11.712   5.140   5.748
59722SOL     OW81062   2.826   4.735   4.509
59722SOL    HW181063   2.848   4.648   4.542
59722SOL    HW281064   2.834   4.727   4.414
59723SOL     OW81065  13.838   3.949   0.906
59723SOL    HW181066  13.846   3.993   0.822
59723SOL    HW281067  13.908   3.987   0.960
59724SOL     OW81068  10.658   9.958  14.203
59724SOL    HW181069  10.625   9.868  14.209
59724SOL    HW281070  10.740   9.957  14.252
59725SOL     OW81071   6.234   8.072   0.178
59725SOL    HW181072   6.140   8.055   0.187
59725SOL    HW281073   6.248   8.080   0.084
59726SOL     OW81074  14.553   3.671   6.521
59726SOL    HW181075  14.461   3.644   6.525
59726SOL    HW281076  14.569   3.713   6.605
59727SOL     OW81077   9.686  10.786   3.335
59727SOL    HW181078   9.764  10.813   3.287
59727SOL    HW281079   9.669  10.697   3.305
59728SOL     OW81080  12.248  14.378   6.087
59728SOL    HW181081  12.337  14.375   6.052
59728SOL    HW281082  12.195  14.335   6.020
59729SOL     OW81083   0.374   6.912  11.419
59729SOL    HW181084   0.306   6.902  11.486
59729SOL    HW281085   0.450   6.867  11.456
59730SOL     OW81086   5.579   2.897   9.915
59730SOL    HW181087   5.566   2.959   9.987
59730SOL    HW281088   5.514   2.924   9.850
59731SOL     OW81089   2.708   6.516   5.072
59731SOL    HW181090   2.643   6.537   5.139
59731SOL    HW281091   2.782   6.574   5.091
59732SOL     OW81092   3.214   6.672   4.923
59732SOL    HW181093   3.124   6.696   4.945
59732SOL    HW281094   3.220   6.683   4.828
59733SOL     OW81095   8.804   8.256   5.269
59733SOL    HW181096   8.808   8.349   5.247
59733SOL    HW281097   8.784   8.255   5.362
59734SOL     OW81098   9.214   2.364   8.294
59734SOL    HW181099   9.294   2.413   8.276
59734SOL    HW281100   9.187   2.330   8.209
59735SOL     OW81101   1.393   5.786   3.806
59735SOL    HW181102   1.466   5.758   3.862
59735SOL    HW281103   1.346   5.850   3.859
59736SOL     OW81104   5.802   1.592   7.890
59736SOL    HW181105   5.847   1.641   7.958
59736SOL    HW281106   5.869   1.531   7.857
59737SOL     OW81107   4.223   3.418  10.341
59737SOL    HW181108   4.205   3.480  10.271
59737SOL    HW281109   4.156   3.350  10.331
59738SOL     OW81110   4.476   3.427   8.190
59738SOL    HW181111   4.398   3.408   8.137
59738SOL    HW281112   4.448   3.497   8.249
59739SOL     OW81113   7.931   2.373  13.871
59739SOL    HW181114   7.891   2.413  13.794
59739SOL    HW281115   7.881   2.409  13.945
59740SOL     OW81116  14.851   0.926   3.301
59740SOL    HW181117  14.756   0.934   3.293
59740SOL    HW281118   0.002   1.008   3.341
59741SOL     OW81119   6.566   5.112   0.253
59741SOL    HW181120   6.634   5.057   0.292
59741SOL    HW281121   6.608   5.197   0.241
59742SOL     OW81122   8.813  11.076   7.900
59742SOL    HW181123   8.805  11.044   7.990
59742SOL    HW281124   8.805  11.171   7.907
59743SOL     OW81125   2.609  12.677   2.419
59743SOL    HW181126   2.550  12.752   2.415
59743SOL    HW281127   2.672  12.699   2.487
59744SOL     OW81128  11.914   1.393   2.271
59744SOL    HW181129  11.818   1.388   2.274
59744SOL    HW281130  11.935   1.476   2.313
59745SOL     OW81131  14.690   2.935   8.074
59745SOL    HW181132  14.657   2.857   8.031
59745SOL    HW281133  14.616   2.966   8.127
59746SOL     OW81134  14.407  14.414   4.532
59746SOL    HW181135  14.366  14.426   4.446
59746SOL    HW281136  14.499  14.436   4.518
59747SOL     OW81137   0.521  10.180   9.633
59747SOL    HW181138   0.535  10.089   9.660
59747SOL    HW281139   0.576  10.232   9.692
59748SOL     OW81140  12.272   0.557   6.455
59748SOL    HW181141  12.224   0.639   6.439
59748SOL    HW281142  12.206   0.496   6.486
59749SOL     OW81143   1.102   7.962   1.522
59749SOL    HW181144   1.043   7.926   1.588
59749SOL    HW281145   1.083   8.056   1.521
59750SOL     OW81146  13.338   1.604   1.152
59750SOL    HW181147  13.357   1.658   1.074
59750SOL    HW281148  13.366   1.516   1.127
59751SOL     OW81149   6.143   3.685  12.145
59751SOL    HW181150   6.153   3.780  12.143
59751SOL    HW281151   6.229   3.651  12.117
59752SOL     OW81152   3.301  12.024  10.761
59752SOL    HW181153   3.251  12.062  10.689
59752SOL    HW281154   3.265  11.936  10.771
59753SOL     OW81155  10.406   2.078   5.961
59753SOL    HW181156  10.490   2.124   5.959
59753SOL    HW281157  10.377   2.078   5.870
59754SOL     OW81158  11.445   6.064   0.068
59754SOL    HW181159  11.437   6.140   0.011
59754SOL    HW281160  11.359   6.056   0.109
59755SOL     OW81161   5.140   4.196   0.561
59755SOL    HW181162   5.076   4.252   0.517
59755SOL    HW281163   5.159   4.127   0.497
59756SOL     OW81164  12.864   8.252   9.735
59756SOL    HW181165  12.838   8.225   9.823
59756SOL    HW281166  12.935   8.314   9.748
59757SOL     OW81167   2.585   0.519  12.723
59757SOL    HW181168   2.510   0.523  12.783
59757SOL    HW281169   2.646   0.584  12.757
59758SOL     OW81170  12.866   3.621   9.357
59758SOL    HW181171  12.904   3.680   9.422
59758SOL    HW281172  12.772   3.625   9.375
59759SOL     OW81173  14.401   6.828  13.798
59759SOL    HW181174  14.413   6.756  13.736
59759SOL    HW281175  14.474   6.820  13.859
59760SOL     OW81176  12.860  10.040   8.615
59760SOL    HW181177  12.801  10.078   8.680
59760SOL    HW281178  12.919   9.984   8.666
59761SOL     OW81179   5.843  13.577  14.663
59761SOL    HW181180   5.892  13.622  14.595
59761SOL    HW281181   5.792  13.511  14.617
59762SOL     OW81182   6.448   9.964   8.254
59762SOL    HW181183   6.444   9.873   8.226
59762SOL    HW281184   6.360   9.998   8.238
59763SOL     OW81185   2.972   3.164   6.353
59763SOL    HW181186   2.961   3.074   6.383
59763SOL    HW281187   3.003   3.155   6.263
59764SOL     OW81188  12.562   6.548  10.701
59764SOL    HW181189  12.622   6.503  10.760
59764SOL    HW281190  12.599   6.534  10.614
59765SOL     OW81191   7.147  14.482  13.729
59765SOL    HW181192   7.177  14.469  13.819
59765SOL    HW281193   7.157  14.397  13.687
59766SOL     OW81194  12.193  11.023   6.058
59766SOL    HW181195  12.227  10.986   6.139
59766SOL    HW281196  12.099  11.006   6.062
59767SOL     OW81197  13.551   4.834  11.902
59767SOL    HW181198  13.595   4.816  11.985
59767SOL    HW281199  13.569   4.757  11.849
59768SOL     OW81200   9.143   0.678   3.732
59768SOL    HW181201   9.062   0.630   3.716
59768SOL    HW281202   9.204   0.643   3.667
59769SOL     OW81203   6.105   3.305   1.888
59769SOL    HW181204   6.111   3.209   1.888
59769SOL    HW281205   6.148   3.331   1.806
59770SOL     OW81206   8.315   2.206   9.850
59770SOL    HW181207   8.397   2.175   9.810
59770SOL    HW281208   8.250   2.140   9.825
59771SOL     OW81209  13.024  14.496  14.532
59771SOL    HW181210  13.017  14.517  14.626
59771SOL    HW281211  13.033  14.400  14.530
59772SOL     OW81212   8.552   5.654   8.226
59772SOL    HW181213   8.620   5.621   8.168
59772SOL    HW281214   8.487   5.584   8.228
59773SOL     OW81215  12.830   1.257   5.312
59773SOL    HW181216  12.771   1.185   5.291
59773SOL    HW281217  12.815   1.321   5.242
59774SOL     OW81218  11.476  10.600   0.200
59774SOL    HW181219  11.391  10.633   0.231
59774SOL    HW281220  11.468  10.599   0.105
59775SOL     OW81221  14.319   7.442  10.295
59775SOL    HW181222  14.337   7.395  10.213
59775SOL    HW281223  14.374   7.520  10.290
59776SOL     OW81224   4.685   6.086   0.815
59776SOL    HW181225   4.591   6.077   0.829
59776SOL    HW281226   4.725   6.037   0.886
59777SOL     OW81227  11.662  11.184   9.745
59777SOL    HW181228  11.714  11.206   9.822
59777SOL    HW281229  11.696  11.241   9.676
59778SOL     OW81230  13.314   2.613  12.184
59778SOL    HW181231  13.307   2.698  12.227
59778SOL    HW281232  13.337   2.552  12.253
59779SOL     OW81233   4.937   4.895   9.475
59779SOL    HW181234   4.915   4.802   9.477
59779SOL    HW281235   4.853   4.940   9.487
59780SOL     OW81236   3.845  13.187   8.829
59780SOL    HW181237   3.758  13.172   8.865
59780SOL    HW281238   3.905  13.155   8.896
59781SOL     OW81239  14.228  12.335   0.481
59781SOL    HW181240  14.254  12.422   0.450
59781SOL    HW281241  14.303  12.305   0.533
59782SOL     OW81242   0.403   4.515   4.260
59782SOL    HW181243   0.474   4.558   4.308
59782SOL    HW281244   0.429   4.423   4.256
59783SOL     OW81245   7.247  13.103   9.081
59783SOL    HW181246   7.262  13.061   9.165
59783SOL    HW281247   7.181  13.048   9.038
59784SOL     OW81248   6.513   0.614   2.434
59784SOL    HW181249   6.512   0.536   2.377
59784SOL    HW281250   6.442   0.599   2.496
59785SOL     OW81251  10.427  10.714  14.462
59785SOL    HW181252  10.358  10.686  14.523
59785SOL    HW281253  10.435  10.808  14.477
59786SOL     OW81254   6.782   2.266   8.387
59786SOL    HW181255   6.759   2.189   8.334
59786SOL    HW281256   6.713   2.270   8.454
59787SOL     OW81257   9.008   8.695   5.781
59787SOL    HW181258   8.996   8.789   5.767
59787SOL    HW281259   8.950   8.673   5.853
59788SOL     OW81260   7.770  11.728  10.687
59788SOL    HW181261   7.843  11.725  10.624
59788SOL    HW281262   7.803  11.681  10.764
59789SOL     OW81263   7.044   5.318   4.640
59789SOL    HW181264   6.961   5.335   4.594
59789SOL    HW281265   7.069   5.403   4.675
59790SOL     OW81266   8.311   4.348   3.295
59790SOL    HW181267   8.325   4.256   3.274
59790SOL    HW281268   8.297   4.390   3.210
59791SOL     OW81269   8.970   4.656  10.640
59791SOL    HW181270   8.999   4.739  10.601
59791SOL    HW281271   9.047   4.622  10.684
59792SOL     OW81272  11.152   7.267   9.504
59792SOL    HW181273  11.227   7.284   9.447
59792SOL    HW281274  11.189   7.222   9.580
59793SOL     OW81275   1.007  13.637  13.109
59793SOL    HW181276   1.078  13.602  13.162
59793SOL    HW281277   1.039  13.631  13.019
59794SOL     OW81278   3.484   6.610  14.739
59794SOL    HW181279   3.402   6.649  14.771
59794SOL    HW281280   3.501   6.538  14.800
59795SOL     OW81281   3.318  11.040   9.094
59795SOL    HW181282   3.301  11.072   9.006
59795SOL    HW281283   3.410  11.013   9.093
59796SOL     OW81284  12.521  14.875  12.283
59796SOL    HW181285  12.562  14.815  12.221
59796SOL    HW281286  12.498   0.074  12.230
59797SOL     OW81287   0.664  13.511   1.969
59797SOL    HW181288   0.588  13.501   2.026
59797SOL    HW281289   0.734  13.464   2.013
59798SOL     OW81290  14.345  11.190  12.290
59798SOL    HW181291  14.299  11.109  12.265
59798SOL    HW281292  14.437  11.165  12.295
59799SOL     OW81293  11.701  12.278   2.302
59799SOL    HW181294  11.729  12.364   2.271
59799SOL    HW281295  11.772  12.248   2.360
59800SOL     OW81296  13.338   0.233   8.555
59800SOL    HW181297  13.248   0.204   8.567
59800SOL    HW281298  13.374   0.237   8.643
59801SOL     OW81299  12.724   3.574   3.823
59801SOL    HW181300  12.812   3.581   3.784
59801SOL    HW281301  12.738   3.529   3.906
59802SOL     OW81302   2.600   4.366   8.551
59802SOL    HW181303   2.508   4.347   8.569
59802SOL    HW281304   2.601   4.459   8.530
59803SOL     OW81305  11.553   4.629  10.247
59803SOL    HW181306  11.649   4.636  10.250
59803SOL    HW281307  11.525   4.708  10.201
59804SOL     OW81308   2.786   1.313   0.218
59804SOL    HW181309   2.868   1.363   0.220
59804SOL    HW281310   2.759   1.315   0.126
59805SOL     OW81311   0.917   5.595   7.902
59805SOL    HW181312   0.935   5.516   7.952
59805SOL    HW281313   0.871   5.564   7.824
59806SOL     OW81314   8.258   1.484   5.934
59806SOL    HW181315   8.307   1.553   5.890
59806SOL    HW281316   8.166   1.508   5.923
59807SOL     OW81317   9.562  10.349   8.581
59807SOL    HW181318   9.469  10.351   8.556
59807SOL    HW281319   9.580  10.257   8.598
59808SOL     OW81320   1.494   0.203  13.564
59808SOL    HW181321   1.572   0.193  13.619
59808SOL    HW281322   1.461   0.290  13.586
59809SOL     OW81323   2.265  14.835   6.222
59809SOL    HW181324   2.280  14.742   6.241
59809SOL    HW281325   2.201  14.863   6.288
59810SOL     OW81326   2.115   3.423   1.989
59810SOL    HW181327   2.043   3.400   1.931
59810SOL    HW281328   2.075   3.469   2.062
59811SOL     OW81329  11.435   2.289   1.715
59811SOL    HW181330  11.484   2.316   1.793
59811SOL    HW281331  11.353   2.255   1.749
59812SOL     OW81332   2.448   5.784   8.341
59812SOL    HW181333   2.498   5.734   8.406
59812SOL    HW281334   2.471   5.743   8.257
59813SOL     OW81335   0.198  10.960   9.425
59813SOL    HW181336   0.216  10.974   9.332
59813SOL    HW281337   0.104  10.980   9.434
59814SOL     OW81338   9.431   8.452   1.233
59814SOL    HW181339   9.472   8.380   1.282
59814SOL    HW281340   9.397   8.511   1.301
59815SOL     OW81341  12.039  12.098   1.827
59815SOL    HW181342  12.067  12.100   1.919
59815SOL    HW281343  12.059  12.186   1.795
59816SOL     OW81344   3.696   6.459   1.413
59816SOL    HW181345   3.657   6.439   1.497
59816SOL    HW281346   3.760   6.529   1.432
59817SOL     OW81347   0.980   0.600  13.320
59817SOL    HW181348   1.063   0.647  13.307
59817SOL    HW281349   1.000   0.509  13.302
59818SOL     OW81350   8.627   2.845   3.393
59818SOL    HW181351   8.695   2.859   3.459
59818SOL    HW281352   8.602   2.753   3.404
59819SOL     OW81353   8.167   2.681   4.027
59819SOL    HW181354   8.255   2.714   4.011
59819SOL    HW281355   8.168   2.655   4.119
59820SOL     OW81356   7.924  10.224   9.825
59820SOL    HW181357   7.858  10.163   9.859
59820SOL    HW281358   7.957  10.269   9.903
59821SOL     OW81359   4.083   1.463   7.188
59821SOL    HW181360   4.176   1.454   7.165
59821SOL    HW281361   4.059   1.549   7.154
59822SOL     OW81362   3.033   4.441   8.640
59822SOL    HW181363   3.079   4.366   8.677
59822SOL    HW281364   3.039   4.509   8.706
59823SOL     OW81365   3.833   8.152  14.069
59823SOL    HW181366   3.801   8.122  14.154
59823SOL    HW281367   3.761   8.132  14.008
59824SOL     OW81368  13.581   6.172   7.045
59824SOL    HW181369  13.505   6.115   7.060
59824SOL    HW281370  13.563   6.249   7.099
59825SOL     OW81371  14.007   1.396   5.179
59825SOL    HW181372  13.948   1.322   5.192
59825SOL    HW281373  14.031   1.424   5.267
59826SOL     OW81374   8.678   6.373   2.003
59826SOL    HW181375   8.757   6.360   2.055
59826SOL    HW281376   8.710   6.379   1.913
59827SOL     OW81377   7.550   3.444   0.231
59827SOL    HW181378   7.603   3.506   0.181
59827SOL    HW281379   7.603   3.423   0.308
59828SOL     OW81380  12.370  13.211   4.928
59828SOL    HW181381  12.443  13.155   4.954
59828SOL    HW281382  12.293  13.167   4.963
59829SOL     OW81383   0.485   6.667  12.662
59829SOL    HW181384   0.433   6.717  12.724
59829SOL    HW281385   0.515   6.591  12.712
59830SOL     OW81386  12.712  13.274   1.310
59830SOL    HW181387  12.634  13.219   1.306
59830SOL    HW281388  12.748  13.270   1.221
59831SOL     OW81389   5.453   5.629  10.210
59831SOL    HW181390   5.464   5.593  10.297
59831SOL    HW281391   5.372   5.591  10.177
59832SOL     OW81392  14.625  11.052  11.560
59832SOL    HW181393  14.706  11.096  11.535
59832SOL    HW281394  14.645  11.010  11.643
59833SOL     OW81395   6.914  10.283   8.813
59833SOL    HW181396   6.969  10.271   8.736
59833SOL    HW281397   6.952  10.226   8.880
59834SOL     OW81398   4.792  10.025  12.543
59834SOL    HW181399   4.752   9.961  12.602
59834SOL    HW281400   4.838   9.972  12.478
59835SOL     OW81401  10.382   9.268  11.697
59835SOL    HW181402  10.399   9.320  11.775
59835SOL    HW281403  10.289   9.284  11.678
59836SOL     OW81404   6.103   1.579   3.305
59836SOL    HW181405   6.038   1.510   3.293
59836SOL    HW281406   6.158   1.548   3.378
59837SOL     OW81407   8.642   5.789  11.579
59837SOL    HW181408   8.635   5.729  11.504
59837SOL    HW281409   8.572   5.853  11.566
59838SOL     OW81410   0.248   5.539  10.492
59838SOL    HW181411   0.215   5.485  10.420
59838SOL    HW281412   0.343   5.530  10.487
59839SOL     OW81413   2.046   2.278   1.922
59839SOL    HW181414   2.133   2.311   1.946
59839SOL    HW281415   2.010   2.243   2.003
59840SOL     OW81416   4.778   7.248   5.434
59840SOL    HW181417   4.864   7.209   5.451
59840SOL    HW281418   4.797   7.340   5.418
59841SOL     OW81419  11.684   5.294   4.915
59841SOL    HW181420  11.736   5.370   4.940
59841SOL    HW281421  11.703   5.281   4.822
59842SOL     OW81422   0.029   1.704  11.683
59842SOL    HW181423  14.844   1.766  11.645
59842SOL    HW281424   0.006   1.620  11.644
59843SOL     OW81425   4.478   9.855   7.733
59843SOL    HW181426   4.571   9.847   7.712
59843SOL    HW281427   4.464   9.949   7.741
59844SOL     OW81428  13.939  12.047   1.566
59844SOL    HW181429  13.967  12.121   1.619
59844SOL    HW281430  13.850  12.028   1.596
59845SOL     OW81431   9.290  13.277   6.577
59845SOL    HW181432   9.235  13.240   6.645
59845SOL    HW281433   9.344  13.342   6.621
59846SOL     OW81434   0.848  14.262   4.614
59846SOL    HW181435   0.766  14.307   4.598
59846SOL    HW281436   0.899  14.323   4.667
59847SOL     OW81437   4.498   9.680  11.219
59847SOL    HW181438   4.507   9.601  11.272
59847SOL    HW281439   4.570   9.737  11.247
59848SOL     OW81440   4.242   9.072   3.837
59848SOL    HW181441   4.248   9.145   3.898
59848SOL    HW281442   4.292   9.002   3.878
59849SOL     OW81443   0.386   1.363   2.499
59849SOL    HW181444   0.293   1.365   2.475
59849SOL    HW281445   0.428   1.421   2.436
59850SOL     OW81446  12.300  11.802   4.772
59850SOL    HW181447  12.219  11.838   4.736
59850SOL    HW281448  12.277  11.712   4.797
59851SOL     OW81449   0.501   0.294   3.472
59851SOL    HW181450   0.511   0.336   3.557
59851SOL    HW281451   0.479   0.203   3.492
59852SOL     OW81452   9.132   5.057   8.539
59852SOL    HW181453   9.061   5.073   8.602
59852SOL    HW281454   9.207   5.033   8.593
59853SOL     OW81455   7.340   0.805  14.614
59853SOL    HW181456   7.359   0.752  14.537
59853SOL    HW281457   7.361   0.894  14.588
59854SOL     OW81458   0.466   1.048   8.370
59854SOL    HW181459   0.484   1.033   8.277
59854SOL    HW281460   0.539   1.103   8.399
59855SOL     OW81461  14.849   8.402   1.053
59855SOL    HW181462  14.812   8.486   1.025
59855SOL    HW281463  14.862   8.411   1.147
59856SOL     OW81464  14.739   0.678   6.199
59856SOL    HW181465  14.698   0.708   6.280
59856SOL    HW281466  14.773   0.591   6.220
59857SOL     OW81467   5.927   7.374  10.498
59857SOL    HW181468   5.905   7.339  10.411
59857SOL    HW281469   6.003   7.429  10.483
59858SOL     OW81470  11.225  10.659   6.091
59858SOL    HW181471  11.180  10.712   6.156
59858SOL    HW281472  11.226  10.712   6.011
59859SOL     OW81473   9.919   4.423   7.098
59859SOL    HW181474   9.959   4.484   7.036
59859SOL    HW281475   9.939   4.460   7.184
59860SOL     OW81476   0.919  11.658   4.311
59860SOL    HW181477   0.910  11.741   4.264
59860SOL    HW281478   0.972  11.680   4.388
59861SOL     OW81479  13.965  14.511   5.589
59861SOL    HW181480  14.041  14.567   5.577
59861SOL    HW281481  13.933  14.494   5.500
59862SOL     OW81482  13.807  12.098   6.643
59862SOL    HW181483  13.841  12.160   6.708
59862SOL    HW281484  13.860  12.113   6.565
59863SOL     OW81485   1.569   6.113   2.048
59863SOL    HW181486   1.517   6.046   2.091
59863SOL    HW281487   1.573   6.185   2.111
59864SOL     OW81488   3.960   5.493   6.383
59864SOL    HW181489   3.978   5.562   6.448
59864SOL    HW281490   3.905   5.430   6.430
59865SOL     OW81491   1.745   8.394   3.066
59865SOL    HW181492   1.686   8.458   3.106
59865SOL    HW281493   1.688   8.335   3.018
59866SOL     OW81494  11.094  10.363   5.242
59866SOL    HW181495  11.038  10.349   5.165
59866SOL    HW281496  11.037  10.344   5.316
59867SOL     OW81497   5.506  12.129  10.210
59867SOL    HW181498   5.414  12.117  10.233
59867SOL    HW281499   5.533  12.205  10.261
59868SOL     OW81500   3.483   0.415  11.074
59868SOL    HW181501   3.437   0.395  11.155
59868SOL    HW281502   3.558   0.468  11.101
59869SOL     OW81503   7.344   5.697  14.458
59869SOL    HW181504   7.420   5.730  14.506
59869SOL    HW281505   7.313   5.623  14.509
59870SOL     OW81506  13.183   9.923   7.116
59870SOL    HW181507  13.163   9.843   7.165
59870SOL    HW281508  13.228   9.979   7.179
59871SOL     OW81509   0.558  14.860   5.344
59871SOL    HW181510   0.641   0.007   5.303
59871SOL    HW281511   0.563  14.765   5.354
59872SOL     OW81512   9.983   7.367  10.145
59872SOL    HW181513   9.915   7.376  10.079
59872SOL    HW281514   9.986   7.273  10.164
59873SOL     OW81515   8.846   2.988   3.241
59873SOL    HW181516   8.818   3.023   3.326
59873SOL    HW281517   8.865   3.065   3.188
59874SOL     OW81518  12.023  11.547   5.522
59874SOL    HW181519  12.063  11.496   5.592
59874SOL    HW281520  11.929  11.537   5.535
59875SOL     OW81521   1.798   8.657   7.551
59875SOL    HW181522   1.743   8.729   7.521
59875SOL    HW281523   1.780   8.651   7.645
59876SOL     OW81524   5.975   6.767  13.999
59876SOL    HW181525   6.037   6.695  13.997
59876SOL    HW281526   5.899   6.735  13.950
59877SOL     OW81527   6.224  11.298   9.077
59877SOL    HW181528   6.290  11.247   9.029
59877SOL    HW281529   6.265  11.384   9.088
59878SOL     OW81530   7.167   5.446   6.477
59878SOL    HW181531   7.170   5.483   6.565
59878SOL    HW281532   7.234   5.378   6.477
59879SOL     OW81533   7.430   4.374  11.729
59879SOL    HW181534   7.385   4.356  11.647
59879SOL    HW281535   7.399   4.306  11.789
59880SOL     OW81536  14.536   7.939  11.754
59880SOL    HW181537  14.447   7.946  11.720
59880SOL    HW281538  14.589   7.911  11.679
59881SOL     OW81539   5.575   3.097  14.711
59881SOL    HW181540   5.538   3.161  14.771
59881SOL    HW281541   5.628   3.040  14.767
59882SOL     OW81542   5.977   9.636   3.818
59882SOL    HW181543   5.985   9.678   3.904
59882SOL    HW281544   6.004   9.545   3.832
59883SOL     OW81545  12.089  12.750   0.638
59883SOL    HW181546  12.094  12.761   0.543
59883SOL    HW281547  12.074  12.839   0.671
59884SOL     OW81548   5.104   1.539  11.431
59884SOL    HW181549   5.175   1.484  11.465
59884SOL    HW281550   5.132   1.628  11.450
59885SOL     OW81551   5.669   2.960   0.587
59885SOL    HW181552   5.607   3.006   0.644
59885SOL    HW281553   5.752   2.962   0.635
59886SOL     OW81554   8.842   3.017   1.752
59886SOL    HW181555   8.904   2.968   1.806
59886SOL    HW281556   8.817   3.092   1.805
59887SOL     OW81557  13.544  12.759   7.182
59887SOL    HW181558  13.551  12.843   7.228
59887SOL    HW281559  13.629  12.717   7.197
59888SOL     OW81560   5.819   4.031  14.483
59888SOL    HW181561   5.723   4.033  14.485
59888SOL    HW281562   5.842   4.046  14.391
59889SOL     OW81563   8.225   8.891   6.354
59889SOL    HW181564   8.166   8.847   6.416
59889SOL    HW281565   8.201   8.853   6.269
59890SOL     OW81566   0.913  12.821  14.566
59890SOL    HW181567   0.865  12.758  14.620
59890SOL    HW281568   1.004  12.811  14.594
59891SOL     OW81569   9.167  11.385   0.006
59891SOL    HW181570   9.088  11.367   0.058
59891SOL    HW281571   9.231  11.415   0.070
59892SOL     OW81572   7.027   5.999   0.335
59892SOL    HW181573   7.000   5.998   0.427
59892SOL    HW281574   7.112   6.044   0.337
59893SOL     OW81575  13.130   3.492  11.040
59893SOL    HW181576  13.050   3.462  10.998
59893SOL    HW281577  13.190   3.417  11.035
59894SOL     OW81578  13.856  10.248   9.466
59894SOL    HW181579  13.905  10.180   9.420
59894SOL    HW281580  13.834  10.209   9.550
59895SOL     OW81581   3.040   3.512   0.834
59895SOL    HW181582   3.046   3.588   0.892
59895SOL    HW281583   2.956   3.523   0.788
59896SOL     OW81584   0.449   7.936   7.917
59896SOL    HW181585   0.369   7.956   7.869
59896SOL    HW281586   0.428   7.858   7.969
59897SOL     OW81587   1.734   0.592   7.775
59897SOL    HW181588   1.768   0.536   7.844
59897SOL    HW281589   1.707   0.672   7.820
59898SOL     OW81590   6.181   1.597   7.457
59898SOL    HW181591   6.272   1.585   7.432
59898SOL    HW281592   6.157   1.683   7.421
59899SOL     OW81593  12.698   0.734   4.185
59899SOL    HW181594  12.734   0.647   4.170
59899SOL    HW281595  12.730   0.787   4.111
59900SOL     OW81596   6.552   8.834  12.699
59900SOL    HW181597   6.524   8.785  12.776
59900SOL    HW281598   6.548   8.926  12.726
59901SOL     OW81599   8.462   9.161   6.948
59901SOL    HW181600   8.465   9.096   7.019
59901SOL    HW281601   8.533   9.134   6.889
59902SOL     OW81602   5.819   2.788   0.271
59902SOL    HW181603   5.821   2.726   0.199
59902SOL    HW281604   5.736   2.835   0.260
59903SOL     OW81605   3.558   8.728  14.850
59903SOL    HW181606   3.504   8.746   0.050
59903SOL    HW281607   3.533   8.795  14.787
59904SOL     OW81608   5.896  11.022   3.658
59904SOL    HW181609   5.829  11.088   3.671
59904SOL    HW281610   5.971  11.070   3.624
59905SOL     OW81611  13.408   0.832  14.738
59905SOL    HW181612  13.358   0.769  14.687
59905SOL    HW281613  13.378   0.918  14.707
59906SOL     OW81614  11.450   7.392   4.420
59906SOL    HW181615  11.475   7.483   4.404
59906SOL    HW281616  11.356   7.389   4.401
59907SOL     OW81617  11.790   8.228   6.966
59907SOL    HW181618  11.873   8.270   6.945
59907SOL    HW281619  11.770   8.257   7.054
59908SOL     OW81620  14.081  11.164   8.775
59908SOL    HW181621  14.089  11.079   8.818
59908SOL    HW281622  14.127  11.153   8.692
59909SOL     OW81623   9.434   1.457  14.760
59909SOL    HW181624   9.525   1.437  14.741
59909SOL    HW281625   9.435   1.545  14.797
59910SOL     OW81626  10.700  14.209   9.116
59910SOL    HW181627  10.682  14.282   9.057
59910SOL    HW281628  10.672  14.240   9.202
59911SOL     OW81629   2.962  13.309   9.571
59911SOL    HW181630   2.960  13.401   9.597
59911SOL    HW281631   2.949  13.310   9.476
59912SOL     OW81632  12.904   9.871   9.942
59912SOL    HW181633  12.882   9.963   9.928
59912SOL    HW281634  12.821   9.831   9.969
59913SOL     OW81635   1.474   4.154   3.646
59913SOL    HW181636   1.384   4.121   3.640
59913SOL    HW281637   1.519   4.090   3.701
59914SOL     OW81638   9.159   6.767  11.365
59914SOL    HW181639   9.107   6.752  11.444
59914SOL    HW281640   9.166   6.862  11.359
59915SOL     OW81641   6.842  12.166   3.740
59915SOL    HW181642   6.811  12.199   3.656
59915SOL    HW281643   6.778  12.198   3.804
59916SOL     OW81644  12.016   1.527   7.567
59916SOL    HW181645  11.949   1.538   7.500
59916SOL    HW281646  12.010   1.434   7.592
59917SOL     OW81647   8.901   2.846   7.337
59917SOL    HW181648   8.900   2.751   7.331
59917SOL    HW281649   8.820   2.869   7.382
59918SOL     OW81650   0.531  13.709   0.450
59918SOL    HW181651   0.612  13.746   0.484
59918SOL    HW281652   0.491  13.780   0.401
59919SOL     OW81653   5.847   4.856   7.681
59919SOL    HW181654   5.790   4.916   7.632
59919SOL    HW281655   5.911   4.826   7.617
59920SOL     OW81656  12.385   6.750   6.428
59920SOL    HW181657  12.463   6.805   6.429
59920SOL    HW281658  12.412   6.671   6.382
59921SOL     OW81659  14.153   9.034   7.535
59921SOL    HW181660  14.183   9.069   7.452
59921SOL    HW281661  14.181   8.943   7.535
59922SOL     OW81662   1.626   1.704   5.498
59922SOL    HW181663   1.620   1.639   5.569
59922SOL    HW281664   1.565   1.773   5.523
59923SOL     OW81665   8.747   9.858  12.690
59923SOL    HW181666   8.776   9.827  12.776
59923SOL    HW281667   8.652   9.862  12.697
59924SOL     OW81668  11.712   5.768  14.601
59924SOL    HW181669  11.652   5.784  14.674
59924SOL    HW281670  11.702   5.844  14.545
59925SOL     OW81671   6.761   9.442   4.949
59925SOL    HW181672   6.796   9.513   5.003
59925SOL    HW281673   6.820   9.439   4.873
59926SOL     OW81674   2.158   0.048  14.701
59926SOL    HW181675   2.074   0.093  14.698
59926SOL    HW281676   2.196   0.072  14.785
59927SOL     OW81677   6.041  11.349  14.208
59927SOL    HW181678   6.049  11.353  14.303
59927SOL    HW281679   6.070  11.435  14.177
59928SOL     OW81680   8.787   9.204  14.216
59928SOL    HW181681   8.809   9.131  14.159
59928SOL    HW281682   8.705   9.179  14.258
59929SOL     OW81683   5.633   3.154  12.550
59929SOL    HW181684   5.632   3.059  12.535
59929SOL    HW281685   5.662   3.191  12.466
59930SOL     OW81686  11.334   5.997  13.531
59930SOL    HW181687  11.366   5.985  13.442
59930SOL    HW281688  11.308   5.910  13.560
59931SOL     OW81689   3.993  10.476   7.387
59931SOL    HW181690   4.088  10.462   7.379
59931SOL    HW281691   3.958  10.453   7.301
59932SOL     OW81692   5.939   8.347   9.566
59932SOL    HW181693   5.895   8.329   9.483
59932SOL    HW281694   6.013   8.287   9.569
59933SOL     OW81695  14.336   3.582  11.312
59933SOL    HW181696  14.413   3.528  11.300
59933SOL    HW281697  14.276   3.554  11.242
59934SOL     OW81698   7.217   7.058   6.892
59934SOL    HW181699   7.261   7.100   6.818
59934SOL    HW281700   7.285   7.006   6.934
59935SOL     OW81701  12.530   3.638  10.460
59935SOL    HW181702  12.542   3.596  10.544
59935SOL    HW281703  12.558   3.573  10.396
59936SOL     OW81704   4.436  12.219   3.757
59936SOL    HW181705   4.439  12.140   3.811
59936SOL    HW281706   4.344  12.245   3.759
59937SOL     OW81707   3.439  14.632   5.560
59937SOL    HW181708   3.521  14.647   5.513
59937SOL    HW281709   3.370  14.654   5.497
59938SOL     OW81710   0.178   9.951  11.181
59938SOL    HW181711   0.095   9.903  11.175
59938SOL    HW281712   0.237   9.903  11.124
59939SOL     OW81713  13.753   2.075  12.269
59939SOL    HW181714  13.666   2.063  12.230
59939SOL    HW281715  13.761   2.170  12.281
59940SOL     OW81716   6.991   0.627   0.401
59940SOL    HW181717   7.051   0.563   0.438
59940SOL    HW281718   7.045   0.678   0.341
59941SOL     OW81719  10.992   5.508   4.252
59941SOL    HW181720  10.901   5.482   4.266
59941SOL    HW281721  11.000   5.523   4.158
59942SOL     OW81722   3.917   6.674  10.380
59942SOL    HW181723   3.908   6.749  10.321
59942SOL    HW281724   3.989   6.700  10.439
59943SOL     OW81725   9.806   1.279   4.471
59943SOL    HW181726   9.787   1.304   4.381
59943SOL    HW281727   9.731   1.310   4.522
59944SOL     OW81728   7.584   0.547   2.008
59944SOL    HW181729   7.495   0.573   1.983
59944SOL    HW281730   7.572   0.468   2.059
59945SOL     OW81731  11.726   3.609  14.442
59945SOL    HW181732  11.634   3.615  14.468
59945SOL    HW281733  11.740   3.516  14.424
59946SOL     OW81734  11.354  13.555   5.398
59946SOL    HW181735  11.322  13.644   5.413
59946SOL    HW281736  11.312  13.527   5.317
59947SOL     OW81737  11.363  12.497   0.100
59947SOL    HW181738  11.284  12.445   0.112
59947SOL    HW281739  11.369  12.512   0.006
59948SOL     OW81740   8.898   1.331   9.587
59948SOL    HW181741   8.922   1.424   9.589
59948SOL    HW281742   8.928   1.300   9.502
59949SOL     OW81743   4.324  12.003  13.543
59949SOL    HW181744   4.358  12.065  13.608
59949SOL    HW281745   4.319  11.920  13.590
59950SOL     OW81746  13.915   5.438  12.849
59950SOL    HW181747  13.980   5.383  12.807
59950SOL    HW281748  13.952   5.526  12.844
59951SOL     OW81749   5.343   8.536   0.684
59951SOL    HW181750   5.428   8.576   0.668
59951SOL    HW281751   5.280   8.592   0.639
59952SOL     OW81752   0.112   0.123   5.614
59952SOL    HW181753   0.149   0.193   5.667
59952SOL    HW281754   0.188   0.081   5.573
59953SOL     OW81755  13.468  10.120   8.685
59953SOL    HW181756  13.557  10.122   8.652
59953SOL    HW281757  13.460  10.200   8.737
59954SOL     OW81758   9.447  12.526  13.978
59954SOL    HW181759   9.484  12.527  14.066
59954SOL    HW281760   9.392  12.447  13.976
59955SOL     OW81761  11.135   2.802   9.869
59955SOL    HW181762  11.128   2.883   9.818
59955SOL    HW281763  11.226   2.799   9.898
59956SOL     OW81764  10.879   6.229  13.589
59956SOL    HW181765  10.786   6.235  13.613
59956SOL    HW281766  10.913   6.317  13.605
59957SOL     OW81767   3.870   2.380  14.142
59957SOL    HW181768   3.919   2.441  14.196
59957SOL    HW281769   3.835   2.315  14.203
59958SOL     OW81770   8.131   9.898  14.523
59958SOL    HW181771   8.202   9.955  14.492
59958SOL    HW281772   8.141   9.818  14.471
59959SOL     OW81773   8.509   8.751  12.551
59959SOL    HW181774   8.498   8.754  12.646
59959SOL    HW281775   8.435   8.700  12.520
59960SOL     OW81776  14.735   0.122   7.329
59960SOL    HW181777  14.802   0.075   7.279
59960SOL    HW281778  14.676   0.053   7.360
59961SOL     OW81779   5.935  13.467   7.283
59961SOL    HW181780   6.002  13.532   7.263
59961SOL    HW281781   5.923  13.473   7.378
59962SOL     OW81782  13.947   2.932   0.991
59962SOL    HW181783  13.901   3.006   0.952
59962SOL    HW281784  13.971   2.876   0.916
59963SOL     OW81785   7.117   6.974   2.748
59963SOL    HW181786   7.174   7.003   2.819
59963SOL    HW281787   7.116   7.046   2.686
59964SOL     OW81788  12.175   0.446   5.155
59964SOL    HW181789  12.239   0.481   5.094
59964SOL    HW281790  12.188   0.496   5.236
59965SOL     OW81791   8.167  10.976   6.694
59965SOL    HW181792   8.187  10.942   6.781
59965SOL    HW281793   8.226  10.930   6.635
59966SOL     OW81794   0.028   2.968  10.337
59966SOL    HW181795   0.072   3.022  10.402
59966SOL    HW281796  14.817   3.005  10.331
59967SOL     OW81797  13.949   3.345  12.384
59967SOL    HW181798  13.913   3.434  12.383
59967SOL    HW281799  14.020   3.349  12.448
59968SOL     OW81800   3.270   9.472  12.069
59968SOL    HW181801   3.239   9.429  12.148
59968SOL    HW281802   3.364   9.483  12.083
59969SOL     OW81803   1.573  13.108  12.007
59969SOL    HW181804   1.655  13.125  11.963
59969SOL    HW281805   1.506  13.149  11.952
59970SOL     OW81806   9.313  13.084   2.779
59970SOL    HW181807   9.221  13.091   2.755
59970SOL    HW281808   9.360  13.085   2.695
59971SOL     OW81809  11.288  10.121   4.779
59971SOL    HW181810  11.380  10.092   4.778
59971SOL    HW281811  11.243  10.054   4.830
59972SOL     OW81812   0.935   2.696   6.272
59972SOL    HW181813   0.988   2.758   6.221
59972SOL    HW281814   0.928   2.619   6.215
59973SOL     OW81815   9.978   3.061   2.846
59973SOL    HW181816   9.899   3.114   2.854
59973SOL    HW281817  10.011   3.081   2.758
59974SOL     OW81818   0.061   7.390   8.532
59974SOL    HW181819  14.855   7.388   8.579
59974SOL    HW281820   0.103   7.307   8.557
59975SOL     OW81821  10.231   1.301   6.969
59975SOL    HW181822  10.285   1.318   7.046
59975SOL    HW281823  10.225   1.206   6.965
59976SOL     OW81824   2.136   3.211   8.022
59976SOL    HW181825   2.131   3.133   7.968
59976SOL    HW281826   2.198   3.268   7.977
59977SOL     OW81827   9.916  13.833  14.760
59977SOL    HW181828   9.913  13.906  14.822
59977SOL    HW281829   9.954  13.761  14.810
59978SOL     OW81830   3.666  11.402  14.442
59978SOL    HW181831   3.760  11.414  14.455
59978SOL    HW281832   3.645  11.457  14.367
59979SOL     OW81833   2.273   6.250   9.833
59979SOL    HW181834   2.332   6.295   9.894
59979SOL    HW281835   2.265   6.161   9.868
59980SOL     OW81836  12.208   8.493  11.052
59980SOL    HW181837  12.221   8.443  11.133
59980SOL    HW281838  12.177   8.579  11.082
59981SOL     OW81839   4.126   3.937   2.235
59981SOL    HW181840   4.080   3.991   2.171
59981SOL    HW281841   4.102   3.974   2.320
59982SOL     OW81842  10.082  13.274  12.360
59982SOL    HW181843  10.034  13.298  12.440
59982SOL    HW281844  10.089  13.179  12.364
59983SOL     OW81845   2.503   4.600  12.500
59983SOL    HW181846   2.556   4.521  12.513
59983SOL    HW281847   2.566   4.667  12.474
59984SOL     OW81848   3.181  14.842   0.491
59984SOL    HW181849   3.089  14.866   0.486
59984SOL    HW281850   3.228   0.048   0.492
59985SOL     OW81851   0.928   5.916   1.730
59985SOL    HW181852   0.973   5.946   1.651
59985SOL    HW281853   0.995   5.919   1.798
59986SOL     OW81854   3.493   4.342   2.406
59986SOL    HW181855   3.403   4.342   2.438
59986SOL    HW281856   3.489   4.386   2.321
59987SOL     OW81857   5.332  12.100   0.123
59987SOL    HW181858   5.378  12.035   0.177
59987SOL    HW281859   5.359  12.184   0.161
59988SOL     OW81860   8.225   3.301   8.897
59988SOL    HW181861   8.226   3.310   8.802
59988SOL    HW281862   8.167   3.227   8.914
59989SOL     OW81863   6.805  14.025   6.485
59989SOL    HW181864   6.782  14.102   6.433
59989SOL    HW281865   6.724  13.975   6.492
59990SOL     OW81866   1.458   5.226   0.348
59990SOL    HW181867   1.485   5.151   0.295
59990SOL    HW281868   1.422   5.187   0.427
59991SOL     OW81869  11.536   2.500   5.388
59991SOL    HW181870  11.530   2.585   5.345
59991SOL    HW281871  11.579   2.443   5.324
59992SOL     OW81872  14.428   1.624   0.268
59992SOL    HW181873  14.405   1.706   0.310
59992SOL    HW281874  14.371   1.559   0.309
59993SOL     OW81875   2.392  11.482  12.718
59993SOL    HW181876   2.349  11.398  12.728
59993SOL    HW281877   2.330  11.536  12.669
59994SOL     OW81878   1.537  12.572   2.757
59994SOL    HW181879   1.446  12.571   2.727
59994SOL    HW281880   1.548  12.487   2.800
59995SOL     OW81881   4.986   1.037   8.557
59995SOL    HW181882   5.046   1.109   8.539
59995SOL    HW281883   4.994   0.979   8.482
59996SOL     OW81884   1.812   5.176   8.469
59996SOL    HW181885   1.862   5.160   8.389
59996SOL    HW281886   1.826   5.268   8.489
59997SOL     OW81887   1.615   0.374   6.239
59997SOL    HW181888   1.619   0.424   6.321
59997SOL    HW281889   1.669   0.424   6.178
59998SOL     OW81890   4.996  11.469   1.411
59998SOL    HW181891   4.912  11.452   1.370
59998SOL    HW281892   4.992  11.421   1.494
59999SOL     OW81893  12.765   5.027   2.569
59999SOL    HW181894  12.723   5.111   2.547
59999SOL    HW281895  12.692   4.967   2.581
60000SOL     OW81896   8.961  11.621  12.852
60000SOL    HW181897   8.969  11.700  12.904
60000SOL    HW281898   8.915  11.649  12.773
60001SOL     OW81899   1.001   0.545   1.777
60001SOL    HW181900   0.998   0.508   1.865
60001SOL    HW281901   0.995   0.639   1.790
60002SOL     OW81902  13.114   4.547   9.963
60002SOL    HW181903  13.155   4.632   9.979
60002SOL    HW281904  13.024   4.567   9.939
60003SOL     OW81905   4.011   1.554   9.408
60003SOL    HW181906   3.921   1.586   9.411
60003SOL    HW281907   4.054   1.609   9.343
60004SOL     OW81908   0.216   1.723  13.826
60004SOL    HW181909   0.214   1.778  13.904
60004SOL    HW281910   0.133   1.676  13.827
60005SOL     OW81911   7.273   8.397   6.334
60005SOL    HW181912   7.282   8.411   6.428
60005SOL    HW281913   7.182   8.422   6.315
60006SOL     OW81914  14.644   3.618  12.327
60006SOL    HW181915  14.554   3.633  12.299
60006SOL    HW281916  14.639   3.542  12.383
60007SOL     OW81917   1.118   3.140  12.095
60007SOL    HW181918   1.042   3.136  12.038
60007SOL    HW281919   1.081   3.146  12.183
60008SOL     OW81920   2.542  13.896  14.387
60008SOL    HW181921   2.576  13.985  14.389
60008SOL    HW281922   2.581  13.857  14.308
60009SOL     OW81923   6.253   4.753  10.464
60009SOL    HW181924   6.287   4.706  10.540
60009SOL    HW281925   6.312   4.828  10.455
60010SOL     OW81926   5.890   5.236  12.367
60010SOL    HW181927   5.837   5.316  12.359
60010SOL    HW281928   5.946   5.237  12.289
60011SOL     OW81929   9.409   7.704   1.238
60011SOL    HW181930   9.374   7.621   1.205
60011SOL    HW281931   9.486   7.679   1.289
60012SOL     OW81932   6.192  12.616  14.058
60012SOL    HW181933   6.195  12.601  13.964
60012SOL    HW281934   6.103  12.595  14.083
60013SOL     OW81935   3.846   0.319   8.003
60013SOL    HW181936   3.895   0.383   8.053
60013SOL    HW281937   3.910   0.282   7.942
60014SOL     OW81938   5.955   8.988   2.125
60014SOL    HW181939   5.968   9.061   2.065
60014SOL    HW281940   5.878   8.943   2.091
60015SOL     OW81941   6.006  13.154   5.730
60015SOL    HW181942   6.027  13.227   5.672
60015SOL    HW281943   5.967  13.089   5.672
60016SOL     OW81944   2.945   2.274   5.775
60016SOL    HW181945   2.953   2.360   5.734
60016SOL    HW281946   3.036   2.245   5.788
60017SOL     OW81947   4.640   4.010   3.115
60017SOL    HW181948   4.632   3.944   3.046
60017SOL    HW281949   4.631   3.960   3.196
60018SOL     OW81950  10.027   3.575   6.096
60018SOL    HW181951  10.088   3.648   6.088
60018SOL    HW281952  10.073   3.500   6.057
60019SOL     OW81953  12.213   2.456  12.204
60019SOL    HW181954  12.292   2.504  12.230
60019SOL    HW281955  12.245   2.390  12.142
60020SOL     OW81956   6.643   1.512  11.740
60020SOL    HW181957   6.611   1.423  11.755
60020SOL    HW281958   6.648   1.550  11.828
60021SOL     OW81959   3.353   3.174   8.286
60021SOL    HW181960   3.338   3.171   8.191
60021SOL    HW281961   3.336   3.265   8.310
60022SOL     OW81962  14.753   6.790  14.166
60022SOL    HW181963  14.665   6.769  14.196
60022SOL    HW281964  14.811   6.754  14.233
60023SOL     OW81965  14.706   8.999   1.298
60023SOL    HW181966  14.639   9.053   1.256
60023SOL    HW281967  14.789   9.041   1.274
60024SOL     OW81968   5.543  12.985   9.164
60024SOL    HW181969   5.596  13.057   9.200
60024SOL    HW281970   5.459  13.026   9.142
60025SOL     OW81971   6.028   8.463  10.128
60025SOL    HW181972   6.047   8.503  10.044
60025SOL    HW281973   5.937   8.434  10.121
60026SOL     OW81974   8.650   3.189   7.886
60026SOL    HW181975   8.629   3.218   7.797
60026SOL    HW281976   8.565   3.191   7.932
60027SOL     OW81977   8.796  14.213   1.372
60027SOL    HW181978   8.742  14.202   1.293
60027SOL    HW281979   8.752  14.160   1.439
60028SOL     OW81980   5.351   3.572  13.943
60028SOL    HW181981   5.367   3.536  13.855
60028SOL    HW281982   5.280   3.635  13.930
60029SOL     OW81983   8.029   1.400  11.240
60029SOL    HW181984   7.951   1.431  11.287
60029SOL    HW281985   8.102   1.444  11.283
60030SOL     OW81986  14.349   1.709   6.624
60030SOL    HW181987  14.257   1.682   6.630
60030SOL    HW281988  14.347   1.804   6.632
60031SOL     OW81989   0.450  11.605  12.567
60031SOL    HW181990   0.393  11.558  12.506
60031SOL    HW281991   0.458  11.546  12.642
60032SOL     OW81992  14.590   0.564   9.549
60032SOL    HW181993  14.520   0.502   9.531
60032SOL    HW281994  14.645   0.561   9.470
60033SOL     OW81995   9.240  13.880   2.718
60033SOL    HW181996   9.220  13.830   2.797
60033SOL    HW281997   9.166  13.865   2.659
60034SOL     OW81998   8.904  12.948   6.896
60034SOL    HW181999   8.892  12.853   6.890
60034SOL    HW282000   8.992  12.959   6.931
60035SOL     OW82001  12.176   5.961   7.756
60035SOL    HW182002  12.202   6.053   7.764
60035SOL    HW282003  12.117   5.947   7.830
60036SOL     OW82004   4.430   7.526  11.297
60036SOL    HW182005   4.482   7.526  11.378
60036SOL    HW282006   4.355   7.581  11.318
60037SOL     OW82007  10.173  13.133  11.199
60037SOL    HW182008  10.263  13.144  11.231
60037SOL    HW282009  10.173  13.044  11.162
60038SOL     OW82010   2.113   6.137   2.306
60038SOL    HW182011   2.073   6.050   2.294
60038SOL    HW282012   2.046   6.198   2.276
60039SOL     OW82013   9.497   8.794   9.930
60039SOL    HW182014   9.551   8.716   9.943
60039SOL    HW282015   9.550   8.851   9.875
60040SOL     OW82016   2.785  12.724   2.658
60040SOL    HW182017   2.862  12.780   2.666
60040SOL    HW282018   2.818  12.645   2.615
60041SOL     OW82019   9.166   9.326   3.221
60041SOL    HW182020   9.129   9.248   3.262
60041SOL    HW282021   9.103   9.396   3.241
60042SOL     OW82022   7.679   3.498  13.941
60042SOL    HW182023   7.594   3.498  13.985
60042SOL    HW282024   7.716   3.411  13.960
60043SOL     OW82025   5.662   5.106   4.263
60043SOL    HW182026   5.750   5.069   4.263
60043SOL    HW282027   5.674   5.194   4.298
60044SOL     OW82028   1.449   1.239   0.693
60044SOL    HW182029   1.400   1.158   0.705
60044SOL    HW282030   1.529   1.212   0.647
60045SOL     OW82031   3.984   4.755   0.128
60045SOL    HW182032   3.910   4.816   0.125
60045SOL    HW282033   3.993   4.734   0.221
60046SOL     OW82034   9.119   4.161   4.402
60046SOL    HW182035   9.070   4.081   4.420
60046SOL    HW282036   9.061   4.232   4.431
60047SOL     OW82037   1.691  10.432   2.709
60047SOL    HW182038   1.609  10.476   2.686
60047SOL    HW282039   1.668  10.340   2.716
60048SOL     OW82040   0.823   9.375  14.550
60048SOL    HW182041   0.845   9.285  14.576
60048SOL    HW282042   0.843   9.427  14.628
60049SOL     OW82043   1.105   3.313  12.493
60049SOL    HW182044   1.105   3.394  12.443
60049SOL    HW282045   1.190   3.273  12.474
60050SOL     OW82046  10.267   0.510   6.323
60050SOL    HW182047  10.205   0.583   6.313
60050SOL    HW282048  10.345   0.537   6.275
60051SOL     OW82049   2.418   3.833   5.952
60051SOL    HW182050   2.472   3.791   5.885
60051SOL    HW282051   2.481   3.873   6.012
60052SOL     OW82052  11.075   6.031  11.509
60052SOL    HW182053  11.134   6.089  11.557
60052SOL    HW282054  11.094   5.944  11.545
60053SOL     OW82055   6.545  10.722  10.845
60053SOL    HW182056   6.565  10.636  10.881
60053SOL    HW282057   6.620  10.743  10.789
60054SOL     OW82058  10.517   7.499  12.358
60054SOL    HW182059  10.611   7.478  12.359
60054SOL    HW282060  10.510   7.571  12.295
60055SOL     OW82061  12.630   2.874  11.637
60055SOL    HW182062  12.597   2.958  11.606
60055SOL    HW282063  12.668   2.833  11.559
60056SOL     OW82064   3.092   2.830   2.337
60056SOL    HW182065   3.046   2.903   2.294
60056SOL    HW282066   3.158   2.803   2.273
60057SOL     OW82067   5.284   9.887   8.173
60057SOL    HW182068   5.301   9.975   8.207
60057SOL    HW282069   5.251   9.838   8.249
60058SOL     OW82070   7.373   1.822   0.980
60058SOL    HW182071   7.442   1.855   1.038
60058SOL    HW282072   7.293   1.860   1.015
60059SOL     OW82073   8.306   7.508   3.529
60059SOL    HW182074   8.355   7.490   3.610
60059SOL    HW282075   8.368   7.490   3.459
60060SOL     OW82076   3.645   0.996   9.162
60060SOL    HW182077   3.644   1.045   9.080
60060SOL    HW282078   3.725   1.024   9.206
60061SOL     OW82079   5.338   7.225  14.294
60061SOL    HW182080   5.414   7.268  14.254
60061SOL    HW282081   5.316   7.280  14.368
60062SOL     OW82082  14.130   3.184   7.631
60062SOL    HW182083  14.135   3.274   7.665
60062SOL    HW282084  14.217   3.168   7.593
60063SOL     OW82085   7.472   1.048  11.786
60063SOL    HW182086   7.432   1.042  11.873
60063SOL    HW282087   7.416   0.993  11.731
60064SOL     OW82088   9.567  12.046  14.492
60064SOL    HW182089   9.662  12.061  14.491
60064SOL    HW282090   9.539  12.065  14.402
60065SOL     OW82091   7.919   2.070  13.367
60065SOL    HW182092   7.929   2.137  13.435
60065SOL    HW282093   8.004   2.066  13.324
60066SOL     OW82094   3.108   3.531   4.262
60066SOL    HW182095   3.191   3.494   4.291
60066SOL    HW282096   3.058   3.457   4.229
60067SOL     OW82097  11.712   8.861   7.445
60067SOL    HW182098  11.679   8.951   7.452
60067SOL    HW282099  11.634   8.806   7.451
60068SOL     OW82100   1.266  10.763   3.972
60068SOL    HW182101   1.284  10.806   3.888
60068SOL    HW282102   1.250  10.835   4.033
60069SOL     OW82103  10.508   5.539   0.046
60069SOL    HW182104  10.507   5.528   0.141
60069SOL    HW282105  10.416   5.548   0.021
60070SOL     OW82106   7.354  10.996   9.617
60070SOL    HW182107   7.340  11.085   9.584
60070SOL    HW282108   7.377  10.945   9.540
60071SOL     OW82109   9.277   1.952  10.337
60071SOL    HW182110   9.356   1.899  10.336
60071SOL    HW282111   9.217   1.909  10.276
60072SOL     OW82112   9.061  14.389  11.923
60072SOL    HW182113   9.119  14.330  11.971
60072SOL    HW282114   9.022  14.335  11.854
60073SOL     OW82115  14.653   4.356   9.917
60073SOL    HW182116  14.708   4.434   9.918
60073SOL    HW282117  14.681   4.308   9.839
60074SOL     OW82118   8.677   5.334   3.218
60074SOL    HW182119   8.713   5.413   3.257
60074SOL    HW282120   8.707   5.336   3.127
60075SOL     OW82121  11.645   0.071  14.635
60075SOL    HW182122  11.603   0.154  14.656
60075SOL    HW282123  11.710   0.094  14.568
60076SOL     OW82124   5.126   1.482   0.989
60076SOL    HW182125   5.037   1.473   1.022
60076SOL    HW282126   5.162   1.558   1.036
60077SOL     OW82127   8.585  13.914   8.319
60077SOL    HW182128   8.591  13.820   8.336
60077SOL    HW282129   8.673  13.947   8.338
60078SOL     OW82130   8.742   7.061  10.103
60078SOL    HW182131   8.674   7.126  10.092
60078SOL    HW282132   8.711   6.984  10.054
60079SOL     OW82133  13.734  14.829  14.029
60079SOL    HW182134  13.743  14.769  14.103
60079SOL    HW282135  13.781   0.030  14.056
60080SOL     OW82136   9.226   0.303   2.100
60080SOL    HW182137   9.287   0.238   2.065
60080SOL    HW282138   9.150   0.252   2.129
60081SOL     OW82139   2.853  14.387  11.642
60081SOL    HW182140   2.944  14.402  11.670
60081SOL    HW282141   2.861  14.332  11.564
60082SOL     OW82142  11.588   7.514   0.255
60082SOL    HW182143  11.585   7.423   0.224
60082SOL    HW282144  11.674   7.546   0.226
60083SOL     OW82145   0.736   9.662   9.905
60083SOL    HW182146   0.692   9.651   9.820
60083SOL    HW282147   0.819   9.616   9.895
60084SOL     OW82148   0.366   9.312   9.632
60084SOL    HW182149   0.345   9.340   9.543
60084SOL    HW282150   0.428   9.240   9.620
60085SOL     OW82151   4.463   7.232   2.617
60085SOL    HW182152   4.373   7.204   2.631
60085SOL    HW282153   4.475   7.306   2.676
60086SOL     OW82154   1.382   6.780   6.832
60086SOL    HW182155   1.430   6.771   6.750
60086SOL    HW282156   1.337   6.864   6.824
60087SOL     OW82157   3.295  14.262   6.262
60087SOL    HW182158   3.274  14.185   6.208
60087SOL    HW282159   3.387  14.280   6.242
60088SOL     OW82160   8.582   1.752   2.830
60088SOL    HW182161   8.535   1.681   2.786
60088SOL    HW282162   8.668   1.714   2.850
60089SOL     OW82163   0.092  10.988  14.617
60089SOL    HW182164   0.127  10.947  14.696
60089SOL    HW282165  14.875  10.973  14.623
60090SOL     OW82166   5.813  13.253   2.348
60090SOL    HW182167   5.795  13.215   2.434
60090SOL    HW282168   5.775  13.192   2.285
60091SOL     OW82169   3.850  13.476   8.710
60091SOL    HW182170   3.917  13.489   8.777
60091SOL    HW282171   3.810  13.392   8.733
60092SOL     OW82172   0.497  10.049   8.985
60092SOL    HW182173   0.449   9.976   9.023
60092SOL    HW282174   0.499  10.031   8.891
60093SOL     OW82175  13.748   7.750   4.435
60093SOL    HW182176  13.749   7.657   4.409
60093SOL    HW282177  13.790   7.750   4.521
60094SOL     OW82178  12.231  14.631   6.967
60094SOL    HW182179  12.197  14.575   7.038
60094SOL    HW282180  12.227  14.720   7.002
60095SOL     OW82181  14.277  10.054   2.973
60095SOL    HW182182  14.330  10.007   3.037
60095SOL    HW282183  14.333  10.126   2.944
60096SOL     OW82184   2.397   0.110  13.105
60096SOL    HW182185   2.477   0.059  13.096
60096SOL    HW282186   2.337   0.072  13.041
60097SOL     OW82187   9.584   5.155  12.019
60097SOL    HW182188   9.543   5.079  11.977
60097SOL    HW282189   9.665   5.169  11.969
60098SOL     OW82190   8.984   3.447   2.879
60098SOL    HW182191   9.031   3.370   2.846
60098SOL    HW282192   9.043   3.484   2.945
60099SOL     OW82193  14.693   8.219   2.442
60099SOL    HW182194  14.757   8.186   2.380
60099SOL    HW282195  14.669   8.305   2.409
60100SOL     OW82196   6.678   7.176   6.248
60100SOL    HW182197   6.696   7.162   6.155
60100SOL    HW282198   6.754   7.138   6.292
60101SOL     OW82199  11.935   4.705  14.580
60101SOL    HW182200  11.966   4.616  14.565
60101SOL    HW282201  11.892   4.702  14.666
60102SOL     OW82202  14.121   5.373   4.476
60102SOL    HW182203  14.052   5.309   4.462
60102SOL    HW282204  14.081   5.440   4.532
60103SOL     OW82205  13.671   0.039  13.065
60103SOL    HW182206  13.728   0.114  13.084
60103SOL    HW282207  13.730  14.850  13.029
60104SOL     OW82208   3.278   0.011   1.411
60104SOL    HW182209   3.204  14.855   1.462
60104SOL    HW282210   3.345   0.031   1.476
60105SOL     OW82211   2.383   2.685   5.393
60105SOL    HW182212   2.394   2.723   5.305
60105SOL    HW282213   2.459   2.627   5.404
60106SOL     OW82214  10.091  10.067  12.153
60106SOL    HW182215  10.042   9.989  12.176
60106SOL    HW282216  10.077  10.127  12.226
60107SOL     OW82217   0.335   9.019   6.147
60107SOL    HW182218   0.368   8.938   6.107
60107SOL    HW282219   0.266   8.989   6.207
60108SOL     OW82220   1.193   5.122   0.188
60108SOL    HW182221   1.185   5.031   0.159
60108SOL    HW282222   1.232   5.116   0.275
60109SOL     OW82223   3.732   1.572  10.965
60109SOL    HW182224   3.750   1.663  10.939
60109SOL    HW282225   3.817   1.529  10.961
60110SOL     OW82226   7.611  13.371   1.389
60110SOL    HW182227   7.601  13.431   1.463
60110SOL    HW282228   7.689  13.403   1.343
60111SOL     OW82229   0.051   1.089   0.231
60111SOL    HW182230  14.840   1.115   0.207
60111SOL    HW282231   0.104   1.115   0.156
60112SOL     OW82232   3.191   3.063   6.158
60112SOL    HW182233   3.256   3.133   6.164
60112SOL    HW282234   3.150   3.075   6.073
60113SOL     OW82235   3.037   0.328   4.699
60113SOL    HW182236   3.080   0.372   4.625
60113SOL    HW282237   2.945   0.324   4.674
60114SOL     OW82238  10.012  11.805   8.162
60114SOL    HW182239  10.024  11.733   8.100
60114SOL    HW282240   9.964  11.766   8.234
60115SOL     OW82241   4.008   5.492   6.811
60115SOL    HW182242   4.086   5.544   6.798
60115SOL    HW282243   3.936   5.546   6.779
60116SOL     OW82244   6.003   2.812  13.937
60116SOL    HW182245   6.098   2.803  13.928
60116SOL    HW282246   5.981   2.760  14.015
60117SOL     OW82247   7.251   0.459   7.939
60117SOL    HW182248   7.323   0.449   8.002
60117SOL    HW282249   7.271   0.540   7.892
60118SOL     OW82250   4.357   5.452   5.948
60118SOL    HW182251   4.421   5.398   5.995
60118SOL    HW282252   4.313   5.502   6.018
60119SOL     OW82253  13.968   8.678  10.015
60119SOL    HW182254  13.962   8.693   9.921
60119SOL    HW282255  13.929   8.756  10.054
60120SOL     OW82256   5.719   0.609   3.263
60120SOL    HW182257   5.792   0.553   3.287
60120SOL    HW282258   5.652   0.591   3.329
60121SOL     OW82259   4.346  11.370   6.652
60121SOL    HW182260   4.379  11.383   6.741
60121SOL    HW282261   4.277  11.436   6.643
60122SOL     OW82262  13.570   8.015   1.664
60122SOL    HW182263  13.525   8.029   1.747
60122SOL    HW282264  13.526   8.074   1.602
60123SOL     OW82265  11.219   9.759   0.170
60123SOL    HW182266  11.204   9.687   0.109
60123SOL    HW282267  11.271   9.720   0.240
60124SOL     OW82268   9.579   0.498  10.163
60124SOL    HW182269   9.665   0.481  10.199
60124SOL    HW282270   9.527   0.528  10.238
60125SOL     OW82271  11.487   4.888   8.572
60125SOL    HW182272  11.432   4.966   8.565
60125SOL    HW282273  11.478   4.846   8.486
60126SOL     OW82274   7.178   4.723   1.486
60126SOL    HW182275   7.162   4.747   1.395
60126SOL    HW282276   7.106   4.664   1.508
60127SOL     OW82277   5.235   6.573  14.504
60127SOL    HW182278   5.153   6.578  14.456
60127SOL    HW282279   5.231   6.490  14.550
60128SOL     OW82280   5.077  13.071   0.808
60128SOL    HW182281   5.105  13.120   0.731
60128SOL    HW282282   5.048  12.986   0.773
60129SOL     OW82283  12.197   6.927  14.057
60129SOL    HW182284  12.249   6.852  14.029
60129SOL    HW282285  12.197   6.921  14.153
60130SOL     OW82286  10.861   9.448   2.232
60130SOL    HW182287  10.915   9.387   2.284
60130SOL    HW282288  10.889   9.433   2.142
60131SOL     OW82289   4.534   7.074   0.006
60131SOL    HW182290   4.551   6.981   0.017
60131SOL    HW282291   4.443   7.080  14.857
60132SOL     OW82292   4.857   0.900  12.048
60132SOL    HW182293   4.832   0.953  11.973
60132SOL    HW282294   4.946   0.870  12.027
60133SOL     OW82295   3.292  11.232   8.243
60133SOL    HW182296   3.259  11.153   8.199
60133SOL    HW282297   3.228  11.300   8.221
60134SOL     OW82298  13.424   0.922   3.405
60134SOL    HW182299  13.452   0.833   3.425
60134SOL    HW282300  13.445   0.935   3.313
60135SOL     OW82301   1.810  14.787   3.362
60135SOL    HW182302   1.893  14.791   3.410
60135SOL    HW282303   1.779   0.000   3.360
60136SOL     OW82304   8.430   0.742  13.554
60136SOL    HW182305   8.396   0.830  13.575
60136SOL    HW282306   8.435   0.740  13.459
60137SOL     OW82307  14.684   6.420   9.235
60137SOL    HW182308  14.594   6.388   9.234
60137SOL    HW282309  14.736   6.347   9.201
60138SOL     OW82310   3.831  12.494   4.267
60138SOL    HW182311   3.778  12.429   4.221
60138SOL    HW282312   3.792  12.578   4.244
60139SOL     OW82313   8.705   0.009   5.069
60139SOL    HW182314   8.756   0.025   4.990
60139SOL    HW282315   8.682   0.097   5.100
60140SOL     OW82316  12.767   7.376   7.594
60140SOL    HW182317  12.858   7.357   7.571
60140SOL    HW282318  12.725   7.291   7.600
60141SOL     OW82319   4.444  11.618   1.585
60141SOL    HW182320   4.359  11.596   1.623
60141SOL    HW282321   4.440  11.584   1.496
60142SOL     OW82322  12.104  14.704   7.303
60142SOL    HW182323  12.154  14.739   7.230
60142SOL    HW282324  12.163  14.709   7.378
60143SOL     OW82325  12.507   2.492  13.197
60143SOL    HW182326  12.510   2.471  13.290
60143SOL    HW282327  12.463   2.577  13.193
60144SOL     OW82328  13.827   3.529   5.418
60144SOL    HW182329  13.759   3.510   5.483
60144SOL    HW282330  13.883   3.452   5.418
60145SOL     OW82331   7.341  14.300  12.491
60145SOL    HW182332   7.359  14.290  12.398
60145SOL    HW282333   7.368  14.216  12.530
60146SOL     OW82334   1.523   0.242   4.670
60146SOL    HW182335   1.508   0.322   4.619
60146SOL    HW282336   1.441   0.230   4.719
60147SOL     OW82337   8.528  14.196   0.031
60147SOL    HW182338   8.548  14.281   0.069
60147SOL    HW282339   8.518  14.137   0.106
60148SOL     OW82340   0.607   2.139   0.169
60148SOL    HW182341   0.542   2.095   0.225
60148SOL    HW282342   0.566   2.141   0.083
60149SOL     OW82343  10.824   3.188   6.452
60149SOL    HW182344  10.829   3.165   6.359
60149SOL    HW282345  10.758   3.128   6.487
60150SOL     OW82346  12.491   1.004   8.922
60150SOL    HW182347  12.510   0.991   9.015
60150SOL    HW282348  12.432   0.933   8.899
60151SOL     OW82349  13.285   9.779   6.873
60151SOL    HW182350  13.245   9.800   6.958
60151SOL    HW282351  13.225   9.717   6.833
60152SOL     OW82352   8.127   4.294   8.440
60152SOL    HW182353   8.117   4.226   8.506
60152SOL    HW282354   8.046   4.292   8.389
60153SOL     OW82355   2.215  12.230   7.000
60153SOL    HW182356   2.234  12.187   6.916
60153SOL    HW282357   2.297  12.274   7.023
60154SOL     OW82358  10.085   5.223  14.092
60154SOL    HW182359  10.157   5.252  14.036
60154SOL    HW282360  10.109   5.254  14.180
60155SOL     OW82361   4.404   1.537   0.438
60155SOL    HW182362   4.490   1.507   0.409
60155SOL    HW282363   4.383   1.481   0.513
60156SOL     OW82364   2.072  13.358  10.442
60156SOL    HW182365   2.125  13.317  10.374
60156SOL    HW282366   2.132  13.416  10.488
60157SOL     OW82367   7.826  10.740   9.606
60157SOL    HW182368   7.831  10.719   9.700
60157SOL    HW282369   7.742  10.784   9.596
60158SOL     OW82370  10.743   7.437   1.552
60158SOL    HW182371  10.837   7.418   1.556
60158SOL    HW282372  10.732   7.513   1.609
60159SOL     OW82373  12.407   6.594   6.827
60159SOL    HW182374  12.402   6.678   6.781
60159SOL    HW282375  12.457   6.613   6.906
60160SOL     OW82376   1.146   4.329   4.203
60160SOL    HW182377   1.242   4.329   4.204
60160SOL    HW282378   1.121   4.346   4.294
60161SOL     OW82379   6.225   2.236   6.807
60161SOL    HW182380   6.289   2.167   6.785
60161SOL    HW282381   6.140   2.197   6.784
60162SOL     OW82382  13.871   1.901   0.161
60162SOL    HW182383  13.922   1.823   0.182
60162SOL    HW282384  13.925   1.949   0.099
60163SOL     OW82385  10.578  11.547   2.542
60163SOL    HW182386  10.633  11.619   2.512
60163SOL    HW282387  10.493  11.562   2.500
60164SOL     OW82388   2.065  13.357   6.994
60164SOL    HW182389   2.086  13.370   6.901
60164SOL    HW282390   2.019  13.272   6.997
60165SOL     OW82391  10.137   2.158   3.178
60165SOL    HW182392  10.083   2.175   3.255
60165SOL    HW282393  10.227   2.174   3.207
60166SOL     OW82394   1.975   8.683   4.714
60166SOL    HW182395   2.042   8.715   4.653
60166SOL    HW282396   2.021   8.616   4.766
60167SOL     OW82397   8.412  14.685   9.574
60167SOL    HW182398   8.400  14.605   9.626
60167SOL    HW282399   8.421  14.755   9.639
60168SOL     OW82400   7.515  13.078   7.139
60168SOL    HW182401   7.608  13.067   7.161
60168SOL    HW282402   7.472  13.094   7.223
60169SOL     OW82403   0.576  12.426   5.478
60169SOL    HW182404   0.578  12.429   5.573
60169SOL    HW282405   0.616  12.508   5.450
60170SOL     OW82406   8.360  14.847   4.142
60170SOL    HW182407   8.364  14.757   4.174
60170SOL    HW282408   8.322  14.840   4.054
60171SOL     OW82409   3.395   9.372  13.129
60171SOL    HW182410   3.353   9.434  13.069
60171SOL    HW282411   3.453   9.426  13.183
60172SOL     OW82412  10.149   9.450   4.691
60172SOL    HW182413  10.135   9.520   4.628
60172SOL    HW282414  10.149   9.494   4.776
60173SOL     OW82415  11.616  11.580  10.446
60173SOL    HW182416  11.687  11.557  10.506
60173SOL    HW282417  11.608  11.504  10.388
60174SOL     OW82418  11.547  12.675  13.645
60174SOL    HW182419  11.573  12.715  13.728
60174SOL    HW282420  11.614  12.704  13.583
60175SOL     OW82421   0.168   9.483   8.917
60175SOL    HW182422   0.137   9.487   9.008
60175SOL    HW282423   0.108   9.422   8.875
60176SOL     OW82424   4.720  12.342  14.180
60176SOL    HW182425   4.633  12.304  14.176
60176SOL    HW282426   4.776  12.272  14.214
60177SOL     OW82427  10.788   2.293  13.359
60177SOL    HW182428  10.772   2.271  13.267
60177SOL    HW282429  10.831   2.379  13.355
60178SOL     OW82430   0.214   3.261   6.418
60178SOL    HW182431   0.289   3.276   6.476
60178SOL    HW282432   0.139   3.295   6.466
60179SOL     OW82433  10.621  11.855   1.051
60179SOL    HW182434  10.554  11.842   1.118
60179SOL    HW282435  10.573  11.892   0.976
60180SOL     OW82436   7.856   8.551   3.855
60180SOL    HW182437   7.781   8.549   3.914
60180SOL    HW282438   7.844   8.474   3.799
60181SOL     OW82439  12.396  12.906   9.082
60181SOL    HW182440  12.465  12.864   9.133
60181SOL    HW282441  12.315  12.880   9.126
60182SOL     OW82442   3.876   9.306   9.217
60182SOL    HW182443   3.868   9.241   9.287
60182SOL    HW282444   3.957   9.353   9.237
60183SOL     OW82445  14.604   8.640  11.331
60183SOL    HW182446  14.664   8.566  11.324
60183SOL    HW282447  14.535   8.610  11.391
60184SOL     OW82448   6.494   3.380   3.671
60184SOL    HW182449   6.544   3.404   3.593
60184SOL    HW282450   6.424   3.323   3.638
60185SOL     OW82451   1.828   4.222  13.131
60185SOL    HW182452   1.877   4.178  13.062
60185SOL    HW282453   1.895   4.253  13.193
60186SOL     OW82454   0.696   5.267  14.568
60186SOL    HW182455   0.605   5.256  14.597
60186SOL    HW282456   0.704   5.209  14.492
60187SOL     OW82457   9.603   2.990   8.148
60187SOL    HW182458   9.654   2.914   8.177
60187SOL    HW282459   9.663   3.041   8.094
60188SOL     OW82460   8.472  12.329  11.084
60188SOL    HW182461   8.501  12.411  11.042
60188SOL    HW282462   8.376  12.333  11.081
60189SOL     OW82463  11.877   3.966   5.553
60189SOL    HW182464  11.823   4.017   5.492
60189SOL    HW282465  11.966   3.973   5.518
60190SOL     OW82466  12.080  12.564   2.991
60190SOL    HW182467  12.068  12.614   3.072
60190SOL    HW282468  12.102  12.476   3.020
60191SOL     OW82469  11.968  14.568  11.681
60191SOL    HW182470  12.032  14.542  11.615
60191SOL    HW282471  12.010  14.639  11.729
60192SOL     OW82472  11.531  11.192  12.296
60192SOL    HW182473  11.445  11.154  12.277
60192SOL    HW282474  11.541  11.262  12.232
60193SOL     OW82475   5.879  10.969   2.300
60193SOL    HW182476   5.876  10.999   2.391
60193SOL    HW282477   5.915  10.880   2.306
60194SOL     OW82478   9.561  13.294   9.992
60194SOL    HW182479   9.647  13.334   9.983
60194SOL    HW282480   9.580  13.205  10.021
60195SOL     OW82481  10.072   9.156  13.222
60195SOL    HW182482  10.103   9.223  13.160
60195SOL    HW282483   9.996   9.118  13.178
60196SOL     OW82484   3.804   8.725  11.337
60196SOL    HW182485   3.762   8.779  11.404
60196SOL    HW282486   3.840   8.650  11.386
60197SOL     OW82487  13.108  10.812   4.063
60197SOL    HW182488  13.083  10.904   4.053
60197SOL    HW282489  13.134  10.805   4.154
60198SOL     OW82490   7.123   1.822   2.723
60198SOL    HW182491   7.030   1.830   2.747
60198SOL    HW282492   7.168   1.873   2.790
60199SOL     OW82493   8.030   4.280  11.386
60199SOL    HW182494   7.990   4.347  11.330
60199SOL    HW282495   7.979   4.201  11.367
60200SOL     OW82496   5.940  13.708  14.433
60200SOL    HW182497   5.959  13.704  14.340
60200SOL    HW282498   5.891  13.790  14.445
60201SOL     OW82499   2.857   1.565  12.615
60201SOL    HW182500   2.921   1.601  12.555
60201SOL    HW282501   2.889   1.589  12.702
60202SOL     OW82502  11.297   3.633   3.741
60202SOL    HW182503  11.240   3.592   3.676
60202SOL    HW282504  11.248   3.630   3.823
60203SOL     OW82505   1.789   1.815   9.103
60203SOL    HW182506   1.775   1.909   9.107
60203SOL    HW282507   1.784   1.794   9.009
60204SOL     OW82508   4.102  13.659  11.654
60204SOL    HW182509   4.120  13.681  11.563
60204SOL    HW282510   4.071  13.568  11.650
60205SOL     OW82511   8.491   0.955   1.548
60205SOL    HW182512   8.504   0.906   1.467
60205SOL    HW282513   8.487   1.046   1.520
60206SOL     OW82514   1.651  11.644   4.528
60206SOL    HW182515   1.598  11.640   4.608
60206SOL    HW282516   1.725  11.586   4.544
60207SOL     OW82517   1.514   4.970  12.471
60207SOL    HW182518   1.475   4.999  12.389
60207SOL    HW282519   1.587   4.914  12.445
60208SOL     OW82520   9.036  12.645  12.192
60208SOL    HW182521   8.950  12.685  12.175
60208SOL    HW282522   9.058  12.601  12.111
60209SOL     OW82523   2.344   9.628   9.790
60209SOL    HW182524   2.398   9.654   9.716
60209SOL    HW282525   2.335   9.533   9.781
60210SOL     OW82526  10.005  11.624   4.436
60210SOL    HW182527   9.968  11.536   4.425
60210SOL    HW282528  10.098  11.608   4.452
60211SOL     OW82529   3.393   8.800  14.176
60211SOL    HW182530   3.466   8.791  14.237
60211SOL    HW282531   3.362   8.889  14.189
60212SOL     OW82532   9.152   8.358   4.538
60212SOL    HW182533   9.116   8.445   4.556
60212SOL    HW282534   9.206   8.338   4.614
60213SOL     OW82535   5.708   8.368  10.040
60213SOL    HW182536   5.692   8.293   9.982
60213SOL    HW282537   5.676   8.443   9.990
60214SOL     OW82538   1.159   9.792   0.288
60214SOL    HW182539   1.191   9.854   0.353
60214SOL    HW282540   1.238   9.753   0.251
60215SOL     OW82541   7.959   0.282   2.331
60215SOL    HW182542   8.004   0.257   2.251
60215SOL    HW282543   7.869   0.303   2.303
60216SOL     OW82544   9.787   3.769  12.956
60216SOL    HW182545   9.738   3.694  12.990
60216SOL    HW282546   9.721   3.835  12.936
60217SOL     OW82547   7.826   6.511   1.689
60217SOL    HW182548   7.782   6.426   1.690
60217SOL    HW282549   7.914   6.493   1.720
60218SOL     OW82550   5.514   6.307  13.492
60218SOL    HW182551   5.539   6.269  13.408
60218SOL    HW282552   5.423   6.334  13.479
60219SOL     OW82553   9.299   6.072   0.789
60219SOL    HW182554   9.242   6.149   0.778
60219SOL    HW282555   9.364   6.081   0.719
60220SOL     OW82556   6.830   0.408   0.746
60220SOL    HW182557   6.777   0.348   0.799
60220SOL    HW282558   6.920   0.390   0.773
60221SOL     OW82559   8.508   0.402   5.530
60221SOL    HW182560   8.495   0.392   5.436
60221SOL    HW282561   8.520   0.313   5.562
60222SOL     OW82562   3.109  13.109   2.665
60222SOL    HW182563   3.201  13.084   2.654
60222SOL    HW282564   3.113  13.201   2.693
60223SOL     OW82565  13.751   6.323   4.082
60223SOL    HW182566  13.730   6.284   3.997
60223SOL    HW282567  13.814   6.392   4.062
60224SOL     OW82568  13.157  14.669   8.245
60224SOL    HW182569  13.226  14.632   8.189
60224SOL    HW282570  13.200  14.684   8.329
60225SOL     OW82571   7.713   4.727  10.695
60225SOL    HW182572   7.802   4.745  10.724
60225SOL    HW282573   7.677   4.813  10.673
60226SOL     OW82574   0.258   2.002   5.867
60226SOL    HW182575   0.317   1.927   5.858
60226SOL    HW282576   0.231   2.000   5.959
60227SOL     OW82577  12.640   0.107   7.356
60227SOL    HW182578  12.662   0.123   7.264
60227SOL    HW282579  12.545   0.121   7.361
60228SOL     OW82580   6.453  14.620   9.790
60228SOL    HW182581   6.543  14.652   9.796
60228SOL    HW282582   6.439  14.571   9.872
60229SOL     OW82583   5.979   2.659   4.987
60229SOL    HW182584   6.052   2.703   4.944
60229SOL    HW282585   6.015   2.628   5.070
60230SOL     OW82586   9.762   0.168  14.719
60230SOL    HW182587   9.683   0.197  14.766
60230SOL    HW282588   9.823   0.241  14.727
60231SOL     OW82589   9.875  11.991   7.757
60231SOL    HW182590   9.817  11.995   7.680
60231SOL    HW282591   9.959  11.961   7.721
60232SOL     OW82592  10.381   1.971   7.913
60232SOL    HW182593  10.400   1.922   7.833
60232SOL    HW282594  10.395   2.062   7.889
60233SOL     OW82595   8.803   4.559  11.165
60233SOL    HW182596   8.881   4.545  11.111
60233SOL    HW282597   8.746   4.484  11.144
60234SOL     OW82598   1.263   2.374   2.357
60234SOL    HW182599   1.191   2.311   2.366
60234SOL    HW282600   1.316   2.362   2.436
60235SOL     OW82601   4.560   7.027   4.099
60235SOL    HW182602   4.530   6.947   4.142
60235SOL    HW282603   4.643   7.002   4.057
60236SOL     OW82604  13.021   1.239  14.780
60236SOL    HW182605  13.058   1.308  14.726
60236SOL    HW282606  12.987   1.284  14.858
60237SOL     OW82607  12.754   4.795   5.636
60237SOL    HW182608  12.841   4.804   5.676
60237SOL    HW282609  12.697   4.772   5.709
60238SOL     OW82610   9.466   0.194   3.208
60238SOL    HW182611   9.474   0.148   3.125
60238SOL    HW282612   9.527   0.149   3.267
60239SOL     OW82613  13.066  10.430   0.352
60239SOL    HW182614  12.999  10.400   0.414
60239SOL    HW282615  13.035  10.398   0.267
60240SOL     OW82616   8.129   9.805  11.756
60240SOL    HW182617   8.143   9.801  11.851
60240SOL    HW282618   8.034   9.808  11.746
60241SOL     OW82619   0.160  14.394   4.730
60241SOL    HW182620   0.150  14.348   4.813
60241SOL    HW282621   0.238  14.354   4.690
60242SOL     OW82622   8.536   9.008   8.334
60242SOL    HW182623   8.577   9.060   8.265
60242SOL    HW282624   8.443   9.030   8.329
60243SOL     OW82625  12.329   3.791  11.315
60243SOL    HW182626  12.281   3.714  11.285
60243SOL    HW282627  12.360   3.768  11.402
60244SOL     OW82628  12.739  12.699   1.411
60244SOL    HW182629  12.702  12.618   1.376
60244SOL    HW282630  12.664  12.755   1.426
60245SOL     OW82631   8.562  10.602   0.679
60245SOL    HW182632   8.524  10.565   0.758
60245SOL    HW282633   8.556  10.531   0.614
60246SOL     OW82634   7.870  12.795   6.606
60246SOL    HW182635   7.799  12.744   6.645
60246SOL    HW282636   7.850  12.797   6.512
60247SOL     OW82637   3.930   0.632  10.333
60247SOL    HW182638   3.941   0.708  10.391
60247SOL    HW282639   3.836   0.628  10.318
60248SOL     OW82640   2.468   6.667   9.212
60248SOL    HW182641   2.471   6.701   9.123
60248SOL    HW282642   2.532   6.596   9.212
60249SOL     OW82643   2.546  10.910  14.374
60249SOL    HW182644   2.558  10.874  14.462
60249SOL    HW282645   2.492  10.844  14.329
60250SOL     OW82646   3.625   7.335  10.249
60250SOL    HW182647   3.576   7.417  10.248
60250SOL    HW282648   3.693   7.348  10.182
60251SOL     OW82649  13.253   6.843   2.892
60251SOL    HW182650  13.264   6.934   2.863
60251SOL    HW282651  13.164   6.840   2.927
60252SOL     OW82652   1.184   8.242  14.524
60252SOL    HW182653   1.160   8.163  14.573
60252SOL    HW282654   1.279   8.248  14.533
60253SOL     OW82655   7.483  10.550   3.074
60253SOL    HW182656   7.518  10.602   3.146
60253SOL    HW282657   7.492  10.459   3.104
60254SOL     OW82658  13.539   6.682  11.663
60254SOL    HW182659  13.462   6.735  11.683
60254SOL    HW282660  13.604   6.746  11.632
60255SOL     OW82661  13.387  12.455   2.116
60255SOL    HW182662  13.309  12.489   2.159
60255SOL    HW282663  13.364  12.366   2.090
60256SOL     OW82664   2.963   9.805   6.683
60256SOL    HW182665   2.994   9.882   6.635
60256SOL    HW282666   3.002   9.731   6.637
60257SOL     OW82667   3.984   1.532  13.294
60257SOL    HW182668   3.975   1.609  13.350
60257SOL    HW282669   4.056   1.554  13.235
60258SOL     OW82670   9.129   7.742   1.206
60258SOL    HW182671   9.098   7.739   1.116
60258SOL    HW282672   9.224   7.726   1.199
60259SOL     OW82673   2.648   6.693   4.054
60259SOL    HW182674   2.610   6.679   3.967
60259SOL    HW282675   2.648   6.606   4.095
60260SOL     OW82676   1.668   1.303  14.543
60260SOL    HW182677   1.631   1.352  14.616
60260SOL    HW282678   1.616   1.223  14.539
60261SOL     OW82679   6.170   6.962   0.609
60261SOL    HW182680   6.097   7.011   0.571
60261SOL    HW282681   6.144   6.945   0.699
60262SOL     OW82682  11.631  14.179   7.284
60262SOL    HW182683  11.595  14.139   7.205
60262SOL    HW282684  11.724  14.190   7.265
60263SOL     OW82685  10.604  14.711   1.631
60263SOL    HW182686  10.634  14.622   1.611
60263SOL    HW282687  10.662  14.740   1.701
60264SOL     OW82688   5.046  10.361   7.734
60264SOL    HW182689   5.057  10.295   7.666
60264SOL    HW282690   5.009  10.437   7.689
60265SOL     OW82691   1.828   0.415   1.850
60265SOL    HW182692   1.888   0.341   1.842
60265SOL    HW282693   1.744   0.375   1.871
60266SOL     OW82694   9.728  10.335   8.851
60266SOL    HW182695   9.665  10.356   8.782
60266SOL    HW282696   9.753  10.419   8.887
60267SOL     OW82697   4.617   2.726  11.436
60267SOL    HW182698   4.552   2.676  11.388
60267SOL    HW282699   4.701   2.695  11.403
60268SOL     OW82700  12.630   6.797   0.876
60268SOL    HW182701  12.578   6.875   0.896
60268SOL    HW282702  12.721   6.824   0.886
60269SOL     OW82703  12.497  10.125   4.508
60269SOL    HW182704  12.404  10.105   4.500
60269SOL    HW282705  12.539  10.076   4.438
60270SOL     OW82706   9.138   5.489   0.889
60270SOL    HW182707   9.140   5.411   0.945
60270SOL    HW282708   9.065   5.540   0.924
60271SOL     OW82709   1.156   3.333  11.723
60271SOL    HW182710   1.109   3.251  11.740
60271SOL    HW282711   1.246   3.316  11.753
60272SOL     OW82712  13.656   8.222   5.649
60272SOL    HW182713  13.627   8.303   5.608
60272SOL    HW282714  13.741   8.205   5.609
60273SOL     OW82715   5.966   2.239   2.937
60273SOL    HW182716   5.882   2.254   2.894
60273SOL    HW282717   5.984   2.146   2.921
60274SOL     OW82718   3.738   8.790   6.612
60274SOL    HW182719   3.739   8.820   6.703
60274SOL    HW282720   3.731   8.871   6.560
60275SOL     OW82721   2.952  13.870   7.602
60275SOL    HW182722   3.041  13.901   7.587
60275SOL    HW282723   2.909  13.943   7.648
60276SOL     OW82724   2.464   9.918   9.057
60276SOL    HW182725   2.414   9.900   8.978
60276SOL    HW282726   2.454   9.839   9.110
60277SOL     OW82727   5.651   1.849  12.883
60277SOL    HW182728   5.653   1.901  12.963
60277SOL    HW282729   5.564   1.809  12.883
60278SOL     OW82730   9.349  10.201   9.342
60278SOL    HW182731   9.301  10.178   9.421
60278SOL    HW282732   9.415  10.132   9.334
60279SOL     OW82733   4.389   8.886   6.785
60279SOL    HW182734   4.454   8.932   6.839
60279SOL    HW282735   4.310   8.940   6.792
60280SOL     OW82736   6.992  10.350   6.904
60280SOL    HW182737   7.011  10.261   6.875
60280SOL    HW282738   6.966  10.340   6.996
60281SOL     OW82739   8.287   1.535  14.067
60281SOL    HW182740   8.333   1.558  13.986
60281SOL    HW282741   8.254   1.619  14.099
60282SOL     OW82742   8.397   5.769   4.353
60282SOL    HW182743   8.335   5.706   4.393
60282SOL    HW282744   8.450   5.715   4.294
60283SOL     OW82745   5.337  12.728   3.831
60283SOL    HW182746   5.317  12.656   3.771
60283SOL    HW282747   5.384  12.686   3.903
60284SOL     OW82748   4.469   3.992  13.687
60284SOL    HW182749   4.439   3.925  13.748
60284SOL    HW282750   4.392   4.047  13.672
60285SOL     OW82751  10.187   7.810  10.539
60285SOL    HW182752  10.098   7.819  10.503
60285SOL    HW282753  10.244   7.844  10.471
60286SOL     OW82754   8.979   9.358   6.249
60286SOL    HW182755   8.936   9.322   6.327
60286SOL    HW282756   8.972   9.288   6.184
60287SOL     OW82757   7.941  14.541   9.139
60287SOL    HW182758   7.958  14.605   9.208
60287SOL    HW282759   7.941  14.593   9.058
60288SOL     OW82760   8.494  12.829   8.287
60288SOL    HW182761   8.518  12.792   8.201
60288SOL    HW282762   8.399  12.823   8.290
60289SOL     OW82763   6.616  12.096   0.425
60289SOL    HW182764   6.674  12.139   0.362
60289SOL    HW282765   6.650  12.007   0.431
60290SOL     OW82766   0.019  10.672   6.950
60290SOL    HW182767   0.100  10.623   6.933
60290SOL    HW282768   0.010  10.730   6.874
60291SOL     OW82769  14.777  11.954   1.853
60291SOL    HW182770  14.829  11.877   1.878
60291SOL    HW282771  14.838  12.008   1.803
60292SOL     OW82772  13.471   6.591   5.002
60292SOL    HW182773  13.395   6.624   4.955
60292SOL    HW282774  13.535   6.571   4.933
60293SOL     OW82775   3.009   0.325   2.544
60293SOL    HW182776   3.085   0.341   2.489
60293SOL    HW282777   3.030   0.243   2.590
60294SOL     OW82778  12.068   6.405   2.103
60294SOL    HW182779  12.113   6.336   2.053
60294SOL    HW282780  11.983   6.413   2.061
60295SOL     OW82781  13.443   8.657  13.068
60295SOL    HW182782  13.393   8.584  13.034
60295SOL    HW282783  13.408   8.672  13.156
60296SOL     OW82784  13.466   6.649   1.651
60296SOL    HW182785  13.389   6.706   1.650
60296SOL    HW282786  13.434   6.566   1.687
60297SOL     OW82787   9.828   8.455   5.777
60297SOL    HW182788   9.783   8.400   5.713
60297SOL    HW282789   9.766   8.525   5.795
60298SOL     OW82790   7.063   3.876  11.056
60298SOL    HW182791   7.090   3.834  10.974
60298SOL    HW282792   6.968   3.882  11.050
60299SOL     OW82793  12.345   5.409   0.634
60299SOL    HW182794  12.369   5.447   0.718
60299SOL    HW282795  12.425   5.367   0.603
60300SOL     OW82796   0.453   5.954   7.401
60300SOL    HW182797   0.381   6.010   7.370
60300SOL    HW282798   0.524   5.971   7.340
60301SOL     OW82799   3.943   2.941   6.631
60301SOL    HW182800   3.924   2.883   6.558
60301SOL    HW282801   3.990   2.886   6.694
60302SOL     OW82802  14.129  13.754  13.287
60302SOL    HW182803  14.038  13.781  13.301
60302SOL    HW282804  14.181  13.827  13.320
60303SOL     OW82805  13.442   9.816  11.924
60303SOL    HW182806  13.528   9.851  11.948
60303SOL    HW282807  13.384   9.892  11.923
60304SOL     OW82808   8.691   7.427   7.594
60304SOL    HW182809   8.742   7.500   7.560
60304SOL    HW282810   8.751   7.384   7.656
60305SOL     OW82811   7.114   4.210  14.497
60305SOL    HW182812   7.032   4.236  14.456
60305SOL    HW282813   7.152   4.291  14.530
60306SOL     OW82814  10.832   3.629  10.339
60306SOL    HW182815  10.854   3.694  10.272
60306SOL    HW282816  10.790   3.557  10.290
60307SOL     OW82817   2.970   5.304   3.827
60307SOL    HW182818   3.004   5.218   3.851
60307SOL    HW282819   2.876   5.290   3.816
60308SOL     OW82820   9.174  14.171  13.935
60308SOL    HW182821   9.195  14.120  13.857
60308SOL    HW282822   9.208  14.259  13.917
60309SOL     OW82823   8.290   2.755  12.657
60309SOL    HW182824   8.260   2.682  12.711
60309SOL    HW282825   8.210   2.795  12.623
60310SOL     OW82826   2.620   1.026  10.832
60310SOL    HW182827   2.681   0.967  10.876
60310SOL    HW282828   2.534   0.999  10.865
60311SOL     OW82829   8.862  12.660   0.287
60311SOL    HW182830   8.843  12.567   0.270
60311SOL    HW282831   8.831  12.705   0.208
60312SOL     OW82832  10.158  14.318  14.167
60312SOL    HW182833  10.096  14.246  14.157
60312SOL    HW282834  10.109  14.386  14.213
60313SOL     OW82835   3.888   5.436  11.431
60313SOL    HW182836   3.906   5.419  11.339
60313SOL    HW282837   3.970   5.415  11.476
60314SOL     OW82838   5.840   5.529   9.395
60314SOL    HW182839   5.926   5.502   9.429
60314SOL    HW282840   5.784   5.533   9.473
60315SOL     OW82841   7.809   4.428   3.084
60315SOL    HW182842   7.792   4.515   3.120
60315SOL    HW282843   7.855   4.445   3.002
60316SOL     OW82844   4.827   4.326   5.772
60316SOL    HW182845   4.770   4.270   5.720
60316SOL    HW282846   4.892   4.266   5.810
60317SOL     OW82847  10.443   9.905  11.209
60317SOL    HW182848  10.489   9.828  11.176
60317SOL    HW282849  10.512   9.969  11.227
60318SOL     OW82850  11.300   3.012   4.894
60318SOL    HW182851  11.360   2.941   4.916
60318SOL    HW282852  11.298   3.012   4.798
60319SOL     OW82853   4.744  14.700  11.097
60319SOL    HW182854   4.742  14.788  11.135
60319SOL    HW282855   4.668  14.656  11.135
60320SOL     OW82856   4.902   2.235  12.122
60320SOL    HW182857   4.978   2.285  12.093
60320SOL    HW282858   4.827   2.281  12.085
60321SOL     OW82859  11.473  12.070  14.687
60321SOL    HW182860  11.426  12.001  14.640
60321SOL    HW282861  11.519  12.024  14.757
60322SOL     OW82862   3.214   4.617   6.721
60322SOL    HW182863   3.197   4.608   6.814
60322SOL    HW282864   3.160   4.692   6.694
60323SOL     OW82865   5.980   5.247  12.932
60323SOL    HW182866   6.011   5.287  12.851
60323SOL    HW282867   6.020   5.299  13.002
60324SOL     OW82868   6.488  14.857   4.810
60324SOL    HW182869   6.444  14.774   4.829
60324SOL    HW282870   6.490  14.861   4.714
60325SOL     OW82871   2.833  12.439  12.765
60325SOL    HW182872   2.816  12.498  12.691
60325SOL    HW282873   2.893  12.488  12.821
60326SOL     OW82874  13.162  13.973   5.675
60326SOL    HW182875  13.173  13.956   5.582
60326SOL    HW282876  13.082  14.026   5.681
60327SOL     OW82877  13.613   7.163   4.318
60327SOL    HW182878  13.530   7.173   4.365
60327SOL    HW282879  13.614   7.072   4.290
60328SOL     OW82880  11.104   9.017  10.566
60328SOL    HW182881  11.120   9.083  10.498
60328SOL    HW282882  11.187   9.010  10.613
60329SOL     OW82883   6.092  10.917   8.530
60329SOL    HW182884   6.162  10.888   8.588
60329SOL    HW282885   6.040  10.838   8.514
60330SOL     OW82886   2.820  12.066   9.123
60330SOL    HW182887   2.844  11.986   9.076
60330SOL    HW282888   2.730  12.083   9.095
60331SOL     OW82889   1.415   9.124  11.228
60331SOL    HW182890   1.461   9.071  11.162
60331SOL    HW282891   1.365   9.061  11.279
60332SOL     OW82892  11.908   9.018   0.236
60332SOL    HW182893  11.919   8.945   0.175
60332SOL    HW282894  11.984   9.075   0.218
60333SOL     OW82895  10.871   0.298  10.428
60333SOL    HW182896  10.877   0.202  10.425
60333SOL    HW282897  10.935   0.328  10.363
60334SOL     OW82898  10.890  10.516   4.246
60334SOL    HW182899  10.827  10.535   4.177
60334SOL    HW282900  10.861  10.432   4.283
60335SOL     OW82901   0.525   2.112   5.874
60335SOL    HW182902   0.505   2.038   5.816
60335SOL    HW282903   0.502   2.081   5.961
60336SOL     OW82904  10.128  14.871   6.031
60336SOL    HW182905  10.164  14.790   6.068
60336SOL    HW282906  10.038  14.874   6.064
60337SOL     OW82907   8.204   0.112   0.871
60337SOL    HW182908   8.174   0.078   0.955
60337SOL    HW282909   8.154   0.193   0.859
60338SOL     OW82910  12.856   7.307   9.924
60338SOL    HW182911  12.819   7.338   9.842
60338SOL    HW282912  12.836   7.214   9.926
60339SOL     OW82913   1.437   8.003   3.178
60339SOL    HW182914   1.396   7.944   3.241
60339SOL    HW282915   1.472   7.945   3.110
60340SOL     OW82916  12.804   8.985   1.350
60340SOL    HW182917  12.792   8.981   1.256
60340SOL    HW282918  12.767   9.068   1.377
60341SOL     OW82919  13.610   4.484   9.297
60341SOL    HW182920  13.612   4.579   9.297
60341SOL    HW282921  13.517   4.462   9.305
60342SOL     OW82922   2.773   0.208   7.753
60342SOL    HW182923   2.866   0.230   7.750
60342SOL    HW282924   2.750   0.213   7.846
60343SOL     OW82925   8.242   1.841   7.974
60343SOL    HW182926   8.272   1.820   8.063
60343SOL    HW282927   8.305   1.906   7.943
60344SOL     OW82928  12.886   2.942   0.667
60344SOL    HW182929  12.952   2.933   0.737
60344SOL    HW282930  12.804   2.956   0.714
60345SOL     OW82931  12.675   0.768  10.841
60345SOL    HW182932  12.659   0.842  10.898
60345SOL    HW282933  12.636   0.693  10.886
60346SOL     OW82934   8.710   1.409  14.135
60346SOL    HW182935   8.644   1.474  14.157
60346SOL    HW282936   8.793   1.457  14.136
60347SOL     OW82937   8.728   7.604  12.976
60347SOL    HW182938   8.756   7.543  12.907
60347SOL    HW282939   8.785   7.584  13.050
60348SOL     OW82940   3.528  12.230   9.781
60348SOL    HW182941   3.581  12.152   9.798
60348SOL    HW282942   3.499  12.220   9.690
60349SOL     OW82943   4.376   2.871   5.351
60349SOL    HW182944   4.445   2.934   5.329
60349SOL    HW282945   4.391   2.851   5.444
60350SOL     OW82946   7.598  14.288   0.765
60350SOL    HW182947   7.654  14.358   0.799
60350SOL    HW282948   7.649  14.208   0.775
60351SOL     OW82949   8.811   5.533   9.875
60351SOL    HW182950   8.791   5.552   9.783
60351SOL    HW282951   8.829   5.439   9.877
60352SOL     OW82952   4.294   2.170  14.205
60352SOL    HW182953   4.217   2.144  14.154
60352SOL    HW282954   4.366   2.168  14.142
60353SOL     OW82955  13.339   6.264   8.424
60353SOL    HW182956  13.332   6.343   8.477
60353SOL    HW282957  13.305   6.289   8.339
60354SOL     OW82958   5.607   5.042  12.559
60354SOL    HW182959   5.662   5.077  12.629
60354SOL    HW282960   5.601   4.948  12.578
60355SOL     OW82961   3.734   2.863   0.786
60355SOL    HW182962   3.667   2.795   0.790
60355SOL    HW282963   3.702   2.924   0.720
60356SOL     OW82964   7.294   1.306   1.586
60356SOL    HW182965   7.240   1.229   1.571
60356SOL    HW282966   7.232   1.379   1.589
60357SOL     OW82967  10.763  11.837   1.484
60357SOL    HW182968  10.842  11.798   1.521
60357SOL    HW282969  10.764  11.810   1.392
60358SOL     OW82970   0.330   4.723  11.490
60358SOL    HW182971   0.260   4.716  11.554
60358SOL    HW282972   0.400   4.667  11.524
60359SOL     OW82973  13.843   4.181  13.474
60359SOL    HW182974  13.865   4.091  13.500
60359SOL    HW282975  13.811   4.221  13.554
60360SOL     OW82976   2.291  13.148   4.083
60360SOL    HW182977   2.377  13.144   4.041
60360SOL    HW282978   2.293  13.229   4.134
60361SOL     OW82979  10.643  11.890   6.354
60361SOL    HW182980  10.650  11.931   6.440
60361SOL    HW282981  10.657  11.796   6.370
60362SOL     OW82982   5.855  10.555  12.330
60362SOL    HW182983   5.895  10.522  12.249
60362SOL    HW282984   5.925  10.604  12.373
60363SOL     OW82985  14.289   1.349  13.489
60363SOL    HW182986  14.361   1.368  13.549
60363SOL    HW282987  14.323   1.373  13.403
60364SOL     OW82988   9.822   5.337   1.271
60364SOL    HW182989   9.910   5.370   1.254
60364SOL    HW282990   9.817   5.254   1.224
60365SOL     OW82991   8.236   2.595  12.398
60365SOL    HW182992   8.172   2.657  12.363
60365SOL    HW282993   8.310   2.601  12.338
60366SOL     OW82994   6.488   0.300   9.062
60366SOL    HW182995   6.519   0.338   9.144
60366SOL    HW282996   6.475   0.207   9.082
60367SOL     OW82997  13.912   2.968  10.995
60367SOL    HW182998  13.938   2.876  11.009
60367SOL    HW282999  13.977   3.001  10.933
60368SOL     OW83000  14.722  13.473  11.245
60368SOL    HW183001  14.769  13.390  11.237
60368SOL    HW283002  14.791  13.539  11.257
60369SOL     OW83003   1.298  11.476   9.664
60369SOL    HW183004   1.215  11.437   9.690
60369SOL    HW283005   1.349  11.402   9.631
60370SOL     OW83006   7.238   1.900   5.274
60370SOL    HW183007   7.283   1.981   5.297
60370SOL    HW283008   7.307   1.841   5.245
60371SOL     OW83009   9.757   2.168   7.785
60371SOL    HW183010   9.818   2.094   7.797
60371SOL    HW283011   9.688   2.133   7.729
60372SOL     OW83012   1.031   8.894   0.945
60372SOL    HW183013   1.043   8.865   0.855
60372SOL    HW283014   1.084   8.833   0.997
60373SOL     OW83015  11.043   4.771   9.476
60373SOL    HW183016  10.950   4.794   9.486
60373SOL    HW283017  11.055   4.694   9.531
60374SOL     OW83018  10.674  12.208   3.241
60374SOL    HW183019  10.680  12.159   3.160
60374SOL    HW283020  10.602  12.269   3.228
60375SOL     OW83021   6.444  13.621   4.468
60375SOL    HW183022   6.439  13.529   4.493
60375SOL    HW283023   6.491  13.663   4.541
60376SOL     OW83024  13.789   8.497   3.314
60376SOL    HW183025  13.709   8.458   3.278
60376SOL    HW283026  13.840   8.522   3.237
60377SOL     OW83027  14.589   8.352   9.438
60377SOL    HW183028  14.539   8.391   9.366
60377SOL    HW283029  14.592   8.420   9.505
60378SOL     OW83030  12.438   8.097  14.434
60378SOL    HW183031  12.509   8.139  14.386
60378SOL    HW283032  12.482   8.033  14.490
60379SOL     OW83033   9.047  11.152   3.886
60379SOL    HW183034   9.068  11.081   3.946
60379SOL    HW283035   8.959  11.180   3.912
60380SOL     OW83036   4.368   7.206  10.948
60380SOL    HW183037   4.453   7.241  10.921
60380SOL    HW283038   4.347   7.139  10.883
60381SOL     OW83039  10.895   4.932   9.086
60381SOL    HW183040  10.886   4.905   8.994
60381SOL    HW283041  10.959   4.871   9.123
60382SOL     OW83042   0.283   1.533   5.996
60382SOL    HW183043   0.197   1.495   5.978
60382SOL    HW283044   0.290   1.531   6.092
60383SOL     OW83045   4.760   9.457  10.520
60383SOL    HW183046   4.713   9.540  10.527
60383SOL    HW283047   4.693   9.390  10.538
60384SOL     OW83048   2.090   6.952   1.176
60384SOL    HW183049   2.085   6.910   1.090
60384SOL    HW283050   2.142   6.892   1.229
60385SOL     OW83051   1.402   1.264  12.175
60385SOL    HW183052   1.396   1.209  12.252
60385SOL    HW283053   1.311   1.286  12.153
60386SOL     OW83054   8.408   2.028  13.652
60386SOL    HW183055   8.356   2.023  13.573
60386SOL    HW283056   8.465   1.951  13.649
60387SOL     OW83057   2.928  13.453  12.093
60387SOL    HW183058   2.926  13.369  12.140
60387SOL    HW283059   2.889  13.515  12.155
60388SOL     OW83060  13.230   9.178   5.457
60388SOL    HW183061  13.249   9.141   5.544
60388SOL    HW283062  13.254   9.109   5.396
60389SOL     OW83063   4.397  11.185   0.541
60389SOL    HW183064   4.356  11.187   0.627
60389SOL    HW283065   4.324  11.188   0.479
60390SOL     OW83066   7.577  14.590  11.505
60390SOL    HW183067   7.544  14.534  11.575
60390SOL    HW283068   7.519  14.667  11.506
60391SOL     OW83069  13.984   0.545   2.441
60391SOL    HW183070  14.001   0.451   2.441
60391SOL    HW283071  13.944   0.563   2.356
60392SOL     OW83072  11.820  12.643   9.897
60392SOL    HW183073  11.819  12.634   9.992
60392SOL    HW283074  11.892  12.703   9.879
60393SOL     OW83075   3.333   7.673   6.949
60393SOL    HW183076   3.401   7.727   6.989
60393SOL    HW283077   3.381   7.601   6.908
60394SOL     OW83078   7.850  11.078  12.266
60394SOL    HW183079   7.879  11.028  12.190
60394SOL    HW283080   7.867  11.021  12.341
60395SOL     OW83081   7.695   2.326  12.517
60395SOL    HW183082   7.654   2.341  12.603
60395SOL    HW283083   7.750   2.250  12.530
60396SOL     OW83084   2.842   6.231   7.943
60396SOL    HW183085   2.833   6.324   7.921
60396SOL    HW283086   2.917   6.201   7.892
60397SOL     OW83087   2.260  13.537  13.277
60397SOL    HW183088   2.322  13.609  13.278
60397SOL    HW283089   2.290  13.477  13.346
60398SOL     OW83090   6.009  10.362   1.309
60398SOL    HW183091   6.007  10.309   1.389
60398SOL    HW283092   6.057  10.309   1.246
60399SOL     OW83093  10.016  12.049  14.444
60399SOL    HW183094  10.056  11.964  14.461
60399SOL    HW283095   9.958  12.064  14.519
60400SOL     OW83096  12.506   6.553   1.637
60400SOL    HW183097  12.439   6.581   1.575
60400SOL    HW283098  12.566   6.499   1.585
60401SOL     OW83099  13.876   2.025   5.582
60401SOL    HW183100  13.894   2.050   5.492
60401SOL    HW283101  13.828   1.942   5.575
60402SOL     OW83102   0.146  12.450   3.335
60402SOL    HW183103   0.160  12.356   3.343
60402SOL    HW283104   0.077  12.459   3.269
60403SOL     OW83105  10.610   0.383   6.135
60403SOL    HW183106  10.594   0.404   6.227
60403SOL    HW283107  10.530   0.337   6.107
60404SOL     OW83108   7.321   9.536   4.593
60404SOL    HW183109   7.381   9.589   4.540
60404SOL    HW283110   7.378   9.481   4.646
60405SOL     OW83111   1.720   0.962   0.902
60405SOL    HW183112   1.756   1.040   0.860
60405SOL    HW283113   1.749   0.889   0.847
60406SOL     OW83114  11.072   2.321   0.789
60406SOL    HW183115  11.118   2.304   0.707
60406SOL    HW283116  11.141   2.330   0.855
60407SOL     OW83117  13.185   3.240  10.731
60407SOL    HW183118  13.162   3.194  10.650
60407SOL    HW283119  13.161   3.331  10.714
60408SOL     OW83120  14.515   8.525  14.175
60408SOL    HW183121  14.588   8.531  14.114
60408SOL    HW283122  14.486   8.434  14.168
60409SOL     OW83123  12.206   6.259   6.737
60409SOL    HW183124  12.212   6.190   6.671
60409SOL    HW283125  12.115   6.289   6.731
60410SOL     OW83126   0.819  10.962   8.035
60410SOL    HW183127   0.777  11.030   7.981
60410SOL    HW283128   0.895  11.005   8.073
60411SOL     OW83129   4.224   4.328   7.791
60411SOL    HW183130   4.200   4.261   7.855
60411SOL    HW283131   4.312   4.356   7.819
60412SOL     OW83132   3.802   5.831   6.292
60412SOL    HW183133   3.890   5.870   6.293
60412SOL    HW283134   3.807   5.761   6.227
60413SOL     OW83135  13.391   1.926   0.196
60413SOL    HW183136  13.402   1.834   0.222
60413SOL    HW283137  13.423   1.977   0.271
60414SOL     OW83138   8.567   9.610  14.146
60414SOL    HW183139   8.605   9.534  14.102
60414SOL    HW283140   8.639   9.647  14.197
60415SOL     OW83141   1.341   0.643   3.179
60415SOL    HW183142   1.399   0.652   3.103
60415SOL    HW283143   1.353   0.724   3.228
60416SOL     OW83144   2.275   9.310   3.180
60416SOL    HW183145   2.333   9.270   3.245
60416SOL    HW283146   2.196   9.257   3.182
60417SOL     OW83147   0.356   7.519  12.696
60417SOL    HW183148   0.400   7.564  12.623
60417SOL    HW283149   0.330   7.434  12.659
60418SOL     OW83150   9.136  13.469   4.189
60418SOL    HW183151   9.222  13.511   4.195
60418SOL    HW283152   9.152  13.378   4.215
60419SOL     OW83153  12.863   4.028  14.216
60419SOL    HW183154  12.909   4.018  14.299
60419SOL    HW283155  12.916   4.090  14.166
60420SOL     OW83156   8.673   6.084   2.835
60420SOL    HW183157   8.732   6.115   2.767
60420SOL    HW283158   8.725   6.021   2.884
60421SOL     OW83159  12.239   2.827  10.040
60421SOL    HW183160  12.178   2.888   9.999
60421SOL    HW283161  12.232   2.844  10.134
60422SOL     OW83162   8.408   8.126   1.564
60422SOL    HW183163   8.348   8.089   1.501
60422SOL    HW283164   8.483   8.067   1.564
60423SOL     OW83165   5.632   1.749   2.998
60423SOL    HW183166   5.579   1.739   2.919
60423SOL    HW283167   5.719   1.717   2.973
60424SOL     OW83168  13.119   7.406   9.937
60424SOL    HW183169  13.026   7.400   9.916
60424SOL    HW283170  13.129   7.494   9.974
60425SOL     OW83171  14.063  13.350   5.444
60425SOL    HW183172  13.980  13.374   5.402
60425SOL    HW283173  14.038  13.319   5.531
60426SOL     OW83174  14.087  12.804   3.207
60426SOL    HW183175  14.138  12.865   3.154
60426SOL    HW283176  14.149  12.772   3.273
60427SOL     OW83177  11.055  12.386  12.326
60427SOL    HW183178  11.008  12.317  12.372
60427SOL    HW283179  11.141  12.388  12.368
60428SOL     OW83180   2.370  11.290   1.892
60428SOL    HW183181   2.301  11.234   1.857
60428SOL    HW283182   2.449  11.262   1.845
60429SOL     OW83183   2.972   3.945   4.781
60429SOL    HW183184   2.951   3.945   4.875
60429SOL    HW283185   3.064   3.968   4.777
60430SOL     OW83186   4.626   9.470   8.686
60430SOL    HW183187   4.556   9.417   8.646
60430SOL    HW283188   4.598   9.560   8.672
60431SOL     OW83189   0.287   1.002   6.414
60431SOL    HW183190   0.241   0.921   6.434
60431SOL    HW283191   0.371   0.974   6.376
60432SOL     OW83192  10.940   8.907   6.446
60432SOL    HW183193  10.962   8.953   6.527
60432SOL    HW283194  10.891   8.830   6.475
60433SOL     OW83195  11.181  12.257   5.575
60433SOL    HW183196  11.237  12.180   5.578
60433SOL    HW283197  11.150  12.260   5.484
60434SOL     OW83198   1.346  10.735   5.732
60434SOL    HW183199   1.337  10.773   5.819
60434SOL    HW283200   1.350  10.811   5.673
60435SOL     OW83201   2.498  12.867   9.340
60435SOL    HW183202   2.463  12.787   9.303
60435SOL    HW283203   2.487  12.856   9.435
60436SOL     OW83204   9.369   9.663   4.329
60436SOL    HW183205   9.405   9.708   4.252
60436SOL    HW283206   9.433   9.596   4.350
60437SOL     OW83207   0.512  12.606  14.212
60437SOL    HW183208   0.562  12.687  14.207
60437SOL    HW283209   0.520  12.578  14.304
60438SOL     OW83210   4.913   9.773   3.151
60438SOL    HW183211   4.930   9.681   3.167
60438SOL    HW283212   4.894   9.810   3.237
60439SOL     OW83213  12.837   5.269   8.659
60439SOL    HW183214  12.815   5.342   8.601
60439SOL    HW283215  12.796   5.193   8.620
60440SOL     OW83216   9.142   5.691   0.669
60440SOL    HW183217   9.225   5.727   0.639
60440SOL    HW283218   9.165   5.632   0.740
60441SOL     OW83219   0.457   1.072   4.938
60441SOL    HW183220   0.384   1.013   4.917
60441SOL    HW283221   0.483   1.108   4.854
60442SOL     OW83222   3.089   6.770   3.576
60442SOL    HW183223   3.016   6.818   3.538
60442SOL    HW283224   3.080   6.681   3.542
60443SOL     OW83225   1.987   4.947  11.609
60443SOL    HW183226   2.055   4.987  11.663
60443SOL    HW283227   1.909   4.949  11.665
60444SOL     OW83228   9.751  13.616   2.636
60444SOL    HW183229   9.833  13.643   2.594
60444SOL    HW283230   9.684  13.666   2.591
60445SOL     OW83231  14.236  14.625  11.947
60445SOL    HW183232  14.326  14.653  11.964
60445SOL    HW283233  14.226  14.629  11.852
60446SOL     OW83234  10.188   6.865   4.616
60446SOL    HW183235  10.208   6.953   4.650
60446SOL    HW283236  10.222   6.805   4.682
60447SOL     OW83237   3.753  11.706  10.478
60447SOL    HW183238   3.791  11.730  10.562
60447SOL    HW283239   3.781  11.615  10.464
60448SOL     OW83240  10.632   7.584  10.338
60448SOL    HW183241  10.540   7.578  10.364
60448SOL    HW283242  10.678   7.610  10.418
60449SOL     OW83243   0.358   7.140   6.211
60449SOL    HW183244   0.340   7.184   6.294
60449SOL    HW283245   0.273   7.103   6.185
60450SOL     OW83246   6.596   2.175   1.603
60450SOL    HW183247   6.548   2.094   1.620
60450SOL    HW283248   6.573   2.232   1.677
60451SOL     OW83249   0.911   4.752  12.259
60451SOL    HW183250   0.851   4.827  12.255
60451SOL    HW283251   0.888   4.707  12.340
60452SOL     OW83252   0.098   4.071   4.226
60452SOL    HW183253   0.174   4.073   4.167
60452SOL    HW283254   0.060   4.158   4.218
60453SOL     OW83255  10.558   2.608  10.573
60453SOL    HW183256  10.529   2.562  10.494
60453SOL    HW283257  10.633   2.660  10.544
60454SOL     OW83258   1.404   8.505   2.437
60454SOL    HW183259   1.421   8.434   2.499
60454SOL    HW283260   1.487   8.518   2.391
60455SOL     OW83261   2.768   0.886   4.468
60455SOL    HW183262   2.762   0.838   4.551
60455SOL    HW283263   2.701   0.955   4.475
60456SOL     OW83264  11.521   0.902   2.663
60456SOL    HW183265  11.535   0.826   2.607
60456SOL    HW283266  11.584   0.891   2.735
60457SOL     OW83267   5.109   7.892  12.522
60457SOL    HW183268   5.018   7.865  12.509
60457SOL    HW283269   5.112   7.925  12.612
60458SOL     OW83270  11.514   3.699   2.262
60458SOL    HW183271  11.540   3.759   2.332
60458SOL    HW283272  11.596   3.673   2.220
60459SOL     OW83273   7.401  12.443   2.534
60459SOL    HW183274   7.317  12.400   2.547
60459SOL    HW283275   7.461  12.371   2.514
60460SOL     OW83276  10.225  13.996  13.540
60460SOL    HW183277  10.240  13.927  13.604
60460SOL    HW283278  10.265  14.074  13.578
60461SOL     OW83279   7.109  12.753   2.984
60461SOL    HW183280   7.059  12.671   2.985
60461SOL    HW283281   7.139  12.761   2.893
60462SOL     OW83282  12.142   8.105   4.179
60462SOL    HW183283  12.183   8.177   4.131
60462SOL    HW283284  12.116   8.144   4.263
60463SOL     OW83285   8.169  11.953   1.588
60463SOL    HW183286   8.142  11.901   1.664
60463SOL    HW283287   8.087  11.989   1.554
60464SOL     OW83288   6.014   9.065   1.463
60464SOL    HW183289   5.950   9.102   1.524
60464SOL    HW283290   6.094   9.055   1.514
60465SOL     OW83291   1.428   4.626   8.264
60465SOL    HW183292   1.464   4.551   8.216
60465SOL    HW283293   1.337   4.601   8.283
60466SOL     OW83294  13.376   2.662   7.547
60466SOL    HW183295  13.364   2.639   7.639
60466SOL    HW283296  13.305   2.617   7.502
60467SOL     OW83297   6.940   3.364   8.414
60467SOL    HW183298   6.994   3.348   8.492
60467SOL    HW283299   6.925   3.458   8.414
60468SOL     OW83300  11.691   8.596  11.295
60468SOL    HW183301  11.657   8.671  11.344
60468SOL    HW283302  11.657   8.520  11.343
60469SOL     OW83303  10.371   2.279   6.854
60469SOL    HW183304  10.277   2.294   6.866
60469SOL    HW283305  10.378   2.184   6.842
60470SOL     OW83306   0.951  14.067  12.427
60470SOL    HW183307   0.969  13.973  12.419
60470SOL    HW283308   1.035  14.105  12.451
60471SOL     OW83309   4.470   1.095  14.338
60471SOL    HW183310   4.471   1.074  14.431
60471SOL    HW283311   4.558   1.071  14.307
60472SOL     OW83312   8.604   4.078   2.041
60472SOL    HW183313   8.628   3.991   2.070
60472SOL    HW283314   8.508   4.080   2.047
60473SOL     OW83315   6.999  13.914  11.689
60473SOL    HW183316   6.969  13.848  11.627
60473SOL    HW283317   7.072  13.958  11.645
60474SOL     OW83318  11.406  12.445   9.166
60474SOL    HW183319  11.330  12.503   9.158
60474SOL    HW283320  11.480  12.498   9.137
60475SOL     OW83321   3.031   0.050   2.596
60475SOL    HW183322   2.954   0.048   2.653
60475SOL    HW283323   3.019  14.854   2.536
60476SOL     OW83324   3.686   5.520   0.676
60476SOL    HW183325   3.745   5.557   0.611
60476SOL    HW283326   3.720   5.432   0.693
60477SOL     OW83327  11.559   2.359   3.761
60477SOL    HW183328  11.504   2.316   3.695
60477SOL    HW283329  11.591   2.438   3.717
60478SOL     OW83330   9.263   1.581   7.193
60478SOL    HW183331   9.213   1.558   7.271
60478SOL    HW283332   9.332   1.515   7.188
60479SOL     OW83333   3.051  12.831   8.331
60479SOL    HW183334   2.971  12.813   8.381
60479SOL    HW283335   3.119  12.782   8.378
60480SOL     OW83336   3.797   9.525   0.967
60480SOL    HW183337   3.866   9.562   0.912
60480SOL    HW283338   3.841   9.461   1.022
60481SOL     OW83339   5.887  10.973   9.704
60481SOL    HW183340   5.876  10.950   9.612
60481SOL    HW283341   5.876  10.890   9.751
60482SOL     OW83342   9.027   8.190   0.348
60482SOL    HW183343   9.026   8.283   0.324
60482SOL    HW283344   8.970   8.184   0.425
60483SOL     OW83345   6.220   5.871   3.329
60483SOL    HW183346   6.145   5.815   3.311
60483SOL    HW283347   6.183   5.959   3.341
60484SOL     OW83348   9.227  10.713  10.163
60484SOL    HW183349   9.300  10.717  10.225
60484SOL    HW283350   9.250  10.642  10.103
60485SOL     OW83351   6.274  13.874  14.048
60485SOL    HW183352   6.317  13.877  13.963
60485SOL    HW283353   6.232  13.960  14.058
60486SOL     OW83354   9.262  11.125   6.622
60486SOL    HW183355   9.176  11.125   6.580
60486SOL    HW283356   9.275  11.034   6.649
60487SOL     OW83357  14.677  13.004  13.351
60487SOL    HW183358  14.690  12.952  13.430
60487SOL    HW283359  14.754  13.060  13.346
60488SOL     OW83360  13.013   6.855   8.416
60488SOL    HW183361  13.076   6.857   8.488
60488SOL    HW283362  12.931   6.826   8.457
60489SOL     OW83363   1.709  14.056   6.100
60489SOL    HW183364   1.661  13.975   6.116
60489SOL    HW283365   1.659  14.100   6.030
60490SOL     OW83366   5.482  11.804  12.116
60490SOL    HW183367   5.482  11.899  12.125
60490SOL    HW283368   5.493  11.788  12.022
60491SOL     OW83369   3.475   2.501  14.466
60491SOL    HW183370   3.441   2.446  14.537
60491SOL    HW283371   3.569   2.508  14.483
60492SOL     OW83372  12.964  13.407  14.466
60492SOL    HW183373  13.002  13.379  14.549
60492SOL    HW283374  12.896  13.343  14.448
60493SOL     OW83375   8.282  13.299  14.554
60493SOL    HW183376   8.246  13.387  14.547
60493SOL    HW283377   8.374  13.311  14.577
60494SOL     OW83378   0.187   8.622   7.487
60494SOL    HW183379   0.155   8.710   7.508
60494SOL    HW283380   0.256   8.636   7.422
60495SOL     OW83381   3.597   9.744   6.746
60495SOL    HW183382   3.618   9.780   6.832
60495SOL    HW283383   3.512   9.783   6.725
60496SOL     OW83384   7.425  10.997   0.376
60496SOL    HW183385   7.478  11.076   0.370
60496SOL    HW283386   7.334  11.029   0.377
60497SOL     OW83387   5.649  12.424   4.032
60497SOL    HW183388   5.743  12.443   4.031
60497SOL    HW283389   5.619  12.443   3.943
60498SOL     OW83390  10.694   4.763   7.582
60498SOL    HW183391  10.732   4.755   7.495
60498SOL    HW283392  10.641   4.684   7.593
60499SOL     OW83393   4.881   6.506   9.649
60499SOL    HW183394   4.822   6.435   9.674
60499SOL    HW283395   4.888   6.560   9.728
60500SOL     OW83396  13.544   3.281   9.167
60500SOL    HW183397  13.633   3.254   9.146
60500SOL    HW283398  13.553   3.366   9.209
60501SOL     OW83399  12.905   4.157   0.518
60501SOL    HW183400  12.875   4.071   0.489
60501SOL    HW283401  12.999   4.148   0.528
60502SOL     OW83402  14.145   6.362   4.085
60502SOL    HW183403  14.141   6.269   4.064
60502SOL    HW283404  14.188   6.402   4.009
60503SOL     OW83405  12.690   2.741  10.434
60503SOL    HW183406  12.702   2.822  10.384
60503SOL    HW283407  12.768   2.688  10.414
60504SOL     OW83408   0.764   3.652   0.554
60504SOL    HW183409   0.683   3.625   0.511
60504SOL    HW283410   0.801   3.571   0.589
60505SOL     OW83411   8.986  10.591   4.792
60505SOL    HW183412   9.045  10.580   4.866
60505SOL    HW283413   8.978  10.503   4.754
60506SOL     OW83414  13.731   8.489   4.248
60506SOL    HW183415  13.673   8.493   4.324
60506SOL    HW283416  13.750   8.581   4.227
60507SOL     OW83417   3.703   9.178  10.926
60507SOL    HW183418   3.785   9.128  10.925
60507SOL    HW283419   3.730   9.268  10.945
60508SOL     OW83420   1.336   9.104   3.240
60508SOL    HW183421   1.377   9.173   3.292
60508SOL    HW283422   1.386   9.103   3.159
60509SOL     OW83423   1.749   0.201   6.954
60509SOL    HW183424   1.771   0.111   6.977
60509SOL    HW283425   1.698   0.194   6.874
60510SOL     OW83426   8.727  10.514  14.134
60510SOL    HW183427   8.638  10.480  14.122
60510SOL    HW283428   8.732  10.589  14.074
60511SOL     OW83429   6.512  12.688   3.804
60511SOL    HW183430   6.518  12.697   3.899
60511SOL    HW283431   6.421  12.666   3.788
60512SOL     OW83432   9.610  10.887   5.409
60512SOL    HW183433   9.611  10.793   5.395
60512SOL    HW283434   9.546  10.900   5.479
60513SOL     OW83435   3.404   5.163   3.742
60513SOL    HW183436   3.362   5.109   3.809
60513SOL    HW283437   3.333   5.217   3.707
60514SOL     OW83438   4.720  14.600   7.963
60514SOL    HW183439   4.732  14.657   7.888
60514SOL    HW283440   4.633  14.622   7.997
60515SOL     OW83441   6.229   7.282   1.691
60515SOL    HW183442   6.180   7.228   1.753
60515SOL    HW283443   6.315   7.290   1.730
60516SOL     OW83444   4.475  11.666   3.519
60516SOL    HW183445   4.480  11.576   3.549
60516SOL    HW283446   4.566  11.694   3.509
60517SOL     OW83447   2.463  12.983   5.160
60517SOL    HW183448   2.402  12.914   5.185
60517SOL    HW283449   2.518  12.996   5.237
60518SOL     OW83450   2.681   2.094  11.616
60518SOL    HW183451   2.770   2.097  11.649
60518SOL    HW283452   2.687   2.047  11.533
60519SOL     OW83453   7.715   4.244   9.802
60519SOL    HW183454   7.797   4.274   9.763
60519SOL    HW283455   7.702   4.156   9.766
60520SOL     OW83456   7.027   2.414   8.589
60520SOL    HW183457   6.949   2.465   8.610
60520SOL    HW283458   7.100   2.467   8.621
60521SOL     OW83459   3.082  12.398  12.484
60521SOL    HW183460   2.995  12.402  12.445
60521SOL    HW283461   3.137  12.356  12.418
60522SOL     OW83462   9.179  11.506   9.792
60522SOL    HW183463   9.127  11.478   9.868
60522SOL    HW283464   9.270  11.497   9.821
60523SOL     OW83465  11.131  13.356   4.411
60523SOL    HW183466  11.067  13.401   4.465
60523SOL    HW283467  11.080  13.316   4.341
60524SOL     OW83468   6.647   9.384   5.893
60524SOL    HW183469   6.729   9.425   5.920
60524SOL    HW283470   6.618   9.434   5.817
60525SOL     OW83471   4.225   9.154   7.543
60525SOL    HW183472   4.273   9.235   7.527
60525SOL    HW283473   4.228   9.142   7.638
60526SOL     OW83474   3.481   9.269   4.673
60526SOL    HW183475   3.452   9.349   4.629
60526SOL    HW283476   3.437   9.270   4.758
60527SOL     OW83477   5.430  12.793   8.508
60527SOL    HW183478   5.493  12.741   8.558
60527SOL    HW283479   5.366  12.729   8.477
60528SOL     OW83480   0.826   2.458   7.521
60528SOL    HW183481   0.920   2.451   7.504
60528SOL    HW283482   0.794   2.518   7.454
60529SOL     OW83483   1.456   3.718   5.034
60529SOL    HW183484   1.453   3.660   5.110
60529SOL    HW283485   1.374   3.702   4.988
60530SOL     OW83486   7.066   4.880  14.063
60530SOL    HW183487   7.005   4.809  14.042
60530SOL    HW283488   7.078   4.926  13.980
60531SOL     OW83489   2.571   5.786  14.198
60531SOL    HW183490   2.581   5.804  14.291
60531SOL    HW283491   2.556   5.692  14.193
60532SOL     OW83492   4.470   2.438   3.581
60532SOL    HW183493   4.394   2.411   3.633
60532SOL    HW283494   4.460   2.392   3.498
60533SOL     OW83495   3.374  11.313   2.597
60533SOL    HW183496   3.352  11.222   2.617
60533SOL    HW283497   3.322  11.364   2.659
60534SOL     OW83498  11.235  11.559   2.111
60534SOL    HW183499  11.283  11.491   2.064
60534SOL    HW283500  11.163  11.582   2.053
60535SOL     OW83501   6.012   6.279  13.768
60535SOL    HW183502   6.079   6.324  13.718
60535SOL    HW283503   6.036   6.294  13.860
60536SOL     OW83504   8.614  14.327  11.037
60536SOL    HW183505   8.520  14.308  11.035
60536SOL    HW283506   8.653  14.259  10.981
60537SOL     OW83507   2.858  14.718   4.512
60537SOL    HW183508   2.860  14.637   4.461
60537SOL    HW283509   2.940  14.717   4.562
60538SOL     OW83510   1.645  14.768  13.357
60538SOL    HW183511   1.566  14.763  13.304
60538SOL    HW283512   1.658  14.862  13.373
60539SOL     OW83513   3.372   5.281  11.632
60539SOL    HW183514   3.361   5.221  11.558
60539SOL    HW283515   3.452   5.329  11.613
60540SOL     OW83516  10.073   4.156   9.659
60540SOL    HW183517  10.104   4.210   9.587
60540SOL    HW283518   9.982   4.136   9.636
60541SOL     OW83519   8.114  11.282   6.439
60541SOL    HW183520   8.099  11.376   6.445
60541SOL    HW283521   8.026  11.245   6.436
60542SOL     OW83522   4.465   7.782   0.041
60542SOL    HW183523   4.510   7.861   0.010
60542SOL    HW283524   4.470   7.788   0.136
60543SOL     OW83525   2.103   3.235   8.653
60543SOL    HW183526   2.108   3.158   8.597
60543SOL    HW283527   2.157   3.213   8.729
60544SOL     OW83528   1.521   0.151   5.040
60544SOL    HW183529   1.488   0.093   4.971
60544SOL    HW283530   1.444   0.169   5.095
60545SOL     OW83531   6.820   2.547   4.098
60545SOL    HW183532   6.849   2.608   4.165
60545SOL    HW283533   6.791   2.602   4.026
60546SOL     OW83534   8.572  13.364   5.860
60546SOL    HW183535   8.481  13.350   5.835
60546SOL    HW283536   8.622  13.342   5.782
60547SOL     OW83537   3.680   7.613  13.593
60547SOL    HW183538   3.674   7.587  13.501
60547SOL    HW283539   3.720   7.700  13.591
60548SOL     OW83540  13.242   3.517   6.315
60548SOL    HW183541  13.164   3.573   6.320
60548SOL    HW283542  13.308   3.572   6.273
60549SOL     OW83543  14.418  11.719  14.224
60549SOL    HW183544  14.499  11.750  14.183
60549SOL    HW283545  14.388  11.648  14.168
60550SOL     OW83546   2.640   0.206   7.181
60550SOL    HW183547   2.723   0.246   7.208
60550SOL    HW283548   2.576   0.277   7.190
60551SOL     OW83549  11.131  14.497  10.355
60551SOL    HW183550  11.042  14.467  10.338
60551SOL    HW283551  11.123  14.592  10.362
60552SOL     OW83552  12.788  12.045   2.543
60552SOL    HW183553  12.782  12.065   2.450
60552SOL    HW283554  12.738  11.964   2.554
60553SOL     OW83555   8.887   5.846   8.973
60553SOL    HW183556   8.794   5.837   8.951
60553SOL    HW283557   8.901   5.940   8.979
60554SOL     OW83558   9.439   7.681   8.315
60554SOL    HW183559   9.534   7.671   8.306
60554SOL    HW283560   9.426   7.701   8.408
60555SOL     OW83561  14.215  10.093   9.814
60555SOL    HW183562  14.231  10.187   9.820
60555SOL    HW283563  14.291  10.052   9.856
60556SOL     OW83564   5.914   2.581   8.441
60556SOL    HW183565   5.987   2.636   8.468
60556SOL    HW283566   5.839   2.614   8.490
60557SOL     OW83567  13.286   5.906  12.763
60557SOL    HW183568  13.362   5.951  12.725
60557SOL    HW283569  13.318   5.819  12.784
60558SOL     OW83570   9.671   8.806   9.730
60558SOL    HW183571   9.726   8.735   9.696
60558SOL    HW283572   9.727   8.883   9.727
60559SOL     OW83573   3.241   2.618   8.101
60559SOL    HW183574   3.213   2.700   8.060
60559SOL    HW283575   3.192   2.550   8.054
60560SOL     OW83576   4.320  11.644   5.817
60560SOL    HW183577   4.296  11.715   5.876
60560SOL    HW283578   4.259  11.651   5.744
60561SOL     OW83579   1.974   2.795   1.278
60561SOL    HW183580   1.960   2.839   1.194
60561SOL    HW283581   1.964   2.864   1.343
60562SOL     OW83582   0.040   0.359  11.233
60562SOL    HW183583   0.025   0.380  11.141
60562SOL    HW283584  14.833   0.328  11.264
60563SOL     OW83585  11.839   1.369   2.886
60563SOL    HW183586  11.779   1.297   2.904
60563SOL    HW283587  11.795   1.447   2.921
60564SOL     OW83588   4.075   3.611  11.397
60564SOL    HW183589   4.100   3.532  11.350
60564SOL    HW283590   4.037   3.668  11.330
60565SOL     OW83591  14.644   8.059   9.590
60565SOL    HW183592  14.666   8.130   9.650
60565SOL    HW283593  14.559   8.027   9.620
60566SOL     OW83594  12.574  10.328  14.619
60566SOL    HW183595  12.489  10.299  14.588
60566SOL    HW283596  12.637  10.284  14.562
60567SOL     OW83597   5.067   6.889   8.996
60567SOL    HW183598   5.100   6.957   8.937
60567SOL    HW283599   5.070   6.929   9.083
60568SOL     OW83600  10.404   2.912  11.642
60568SOL    HW183601  10.426   2.819  11.646
60568SOL    HW283602  10.335   2.923  11.708
60569SOL     OW83603   0.369   2.922   7.303
60569SOL    HW183604   0.282   2.897   7.273
60569SOL    HW283605   0.355   3.002   7.354
60570SOL     OW83606   4.004   2.780   5.729
60570SOL    HW183607   3.979   2.864   5.768
60570SOL    HW283608   3.986   2.715   5.796
60571SOL     OW83609  13.508  14.079   5.096
60571SOL    HW183610  13.445  14.151   5.102
60571SOL    HW283611  13.494  14.042   5.009
60572SOL     OW83612   8.315  12.038   0.137
60572SOL    HW183613   8.305  12.044   0.042
60572SOL    HW283614   8.272  12.116   0.171
60573SOL     OW83615  10.677  11.870   5.258
60573SOL    HW183616  10.682  11.833   5.346
60573SOL    HW283617  10.602  11.826   5.218
60574SOL     OW83618   3.457   3.943  10.077
60574SOL    HW183619   3.458   3.947   9.981
60574SOL    HW283620   3.431   4.031  10.104
60575SOL     OW83621  12.155   5.647   4.496
60575SOL    HW183622  12.171   5.647   4.590
60575SOL    HW283623  12.121   5.735   4.478
60576SOL     OW83624   9.262   9.395   7.360
60576SOL    HW183625   9.230   9.410   7.271
60576SOL    HW283626   9.352   9.428   7.359
60577SOL     OW83627  12.816   8.116  12.557
60577SOL    HW183628  12.754   8.183  12.529
60577SOL    HW283629  12.765   8.035  12.557
60578SOL     OW83630   5.229   7.076   1.405
60578SOL    HW183631   5.145   7.116   1.379
60578SOL    HW283632   5.213   7.045   1.494
60579SOL     OW83633   1.636  14.467  10.630
60579SOL    HW183634   1.581  14.452  10.707
60579SOL    HW283635   1.710  14.518  10.664
60580SOL     OW83636   4.605   5.663   5.201
60580SOL    HW183637   4.599   5.691   5.110
60580SOL    HW283638   4.553   5.727   5.249
60581SOL     OW83639  13.982  12.138   4.628
60581SOL    HW183640  13.996  12.143   4.534
60581SOL    HW283641  14.007  12.225   4.660
60582SOL     OW83642   0.072   6.746  10.567
60582SOL    HW183643   0.028   6.791  10.495
60582SOL    HW283644   0.052   6.800  10.644
60583SOL     OW83645   0.887   6.794   3.661
60583SOL    HW183646   0.944   6.747   3.721
60583SOL    HW283647   0.858   6.727   3.598
60584SOL     OW83648  11.517   9.733   1.036
60584SOL    HW183649  11.480   9.646   1.049
60584SOL    HW283650  11.555   9.731   0.948
60585SOL     OW83651   2.420   3.791   0.295
60585SOL    HW183652   2.338   3.779   0.344
60585SOL    HW283653   2.481   3.828   0.359
60586SOL     OW83654   8.049   3.175   4.804
60586SOL    HW183655   8.030   3.198   4.895
60586SOL    HW283656   8.094   3.091   4.809
60587SOL     OW83657  13.036   1.531   1.218
60587SOL    HW183658  12.969   1.599   1.225
60587SOL    HW283659  13.119   1.578   1.222
60588SOL     OW83660   3.634  10.073  14.102
60588SOL    HW183661   3.561  10.017  14.129
60588SOL    HW283662   3.629  10.074  14.007
60589SOL     OW83663   5.689  10.592   8.652
60589SOL    HW183664   5.728  10.541   8.581
60589SOL    HW283665   5.748  10.579   8.726
60590SOL     OW83666   7.294   5.262  11.355
60590SOL    HW183667   7.220   5.312  11.321
60590SOL    HW283668   7.369   5.291  11.304
60591SOL     OW83669  12.476   6.576  11.974
60591SOL    HW183670  12.445   6.662  12.002
60591SOL    HW283671  12.437   6.564  11.887
60592SOL     OW83672   5.406  11.455   5.996
60592SOL    HW183673   5.381  11.532   5.944
60592SOL    HW283674   5.499  11.469   6.016
60593SOL     OW83675   5.311  10.975  12.655
60593SOL    HW183676   5.302  10.975  12.750
60593SOL    HW283677   5.320  11.068  12.632
60594SOL     OW83678   7.572   8.136   8.958
60594SOL    HW183679   7.640   8.070   8.968
60594SOL    HW283680   7.509   8.116   9.027
60595SOL     OW83681  12.293   1.192   9.328
60595SOL    HW183682  12.233   1.264   9.309
60595SOL    HW283683  12.358   1.230   9.387
60596SOL     OW83684  10.150   7.833  10.079
60596SOL    HW183685  10.126   7.924  10.098
60596SOL    HW283686  10.241   7.825  10.107
60597SOL     OW83687   5.408  14.778   7.999
60597SOL    HW183688   5.326  14.752   7.958
60597SOL    HW283689   5.428  14.864   7.961
60598SOL     OW83690   4.022   4.741   7.404
60598SOL    HW183691   4.089   4.804   7.379
60598SOL    HW283692   4.063   4.655   7.393
60599SOL     OW83693   1.570   2.407  10.266
60599SOL    HW183694   1.627   2.472  10.223
60599SOL    HW283695   1.482   2.429  10.236
60600SOL     OW83696   9.087   2.429   8.639
60600SOL    HW183697   9.071   2.482   8.717
60600SOL    HW283698   9.101   2.493   8.569
60601SOL     OW83699  11.862   3.590   9.679
60601SOL    HW183700  11.789   3.553   9.630
60601SOL    HW283701  11.823   3.623   9.760
60602SOL     OW83702   3.500   7.090   1.166
60602SOL    HW183703   3.582   7.111   1.122
60602SOL    HW283704   3.446   7.169   1.155
60603SOL     OW83705   1.725  11.622   4.086
60603SOL    HW183706   1.692  11.709   4.062
60603SOL    HW283707   1.672  11.596   4.161
60604SOL     OW83708   3.909  13.000  14.497
60604SOL    HW183709   3.998  12.996  14.462
60604SOL    HW283710   3.888  12.909  14.520
60605SOL     OW83711   0.528   4.291   2.031
60605SOL    HW183712   0.601   4.264   2.086
60605SOL    HW283713   0.568   4.348   1.965
60606SOL     OW83714   1.523   2.264  11.643
60606SOL    HW183715   1.611   2.295  11.664
60606SOL    HW283716   1.489   2.228  11.725
60607SOL     OW83717   9.474  10.646   9.101
60607SOL    HW183718   9.483  10.626   9.194
60607SOL    HW283719   9.558  10.620   9.062
60608SOL     OW83720   3.925   5.863   4.992
60608SOL    HW183721   3.959   5.952   4.985
60608SOL    HW283722   4.000   5.811   5.022
60609SOL     OW83723   3.788  11.730  11.120
60609SOL    HW183724   3.723  11.795  11.144
60609SOL    HW283725   3.864  11.782  11.091
60610SOL     OW83726   7.370   3.180  11.579
60610SOL    HW183727   7.371   3.086  11.561
60610SOL    HW283728   7.345   3.186  11.671
60611SOL     OW83729   8.755   7.490  14.395
60611SOL    HW183730   8.808   7.497  14.316
60611SOL    HW283731   8.818   7.476  14.466
60612SOL     OW83732   4.104   2.827   2.855
60612SOL    HW183733   4.147   2.868   2.930
60612SOL    HW283734   4.120   2.886   2.782
60613SOL     OW83735  14.339   7.227   2.168
60613SOL    HW183736  14.252   7.206   2.202
60613SOL    HW283737  14.331   7.316   2.133
60614SOL     OW83738   5.851   0.498   2.852
60614SOL    HW183739   5.923   0.561   2.849
60614SOL    HW283740   5.781   0.544   2.899
60615SOL     OW83741   4.369   7.105   8.318
60615SOL    HW183742   4.275   7.090   8.334
60615SOL    HW283743   4.375   7.198   8.296
60616SOL     OW83744   6.779   1.243   8.502
60616SOL    HW183745   6.844   1.276   8.563
60616SOL    HW283746   6.774   1.149   8.520
60617SOL     OW83747  12.967   5.957  14.325
60617SOL    HW183748  13.010   5.970  14.240
60617SOL    HW283749  12.966   6.044  14.365
60618SOL     OW83750   8.266   7.627   8.784
60618SOL    HW183751   8.220   7.577   8.851
60618SOL    HW283752   8.357   7.599   8.791
60619SOL     OW83753   5.892   5.509  11.304
60619SOL    HW183754   5.813   5.561  11.317
60619SOL    HW283755   5.872   5.424  11.343
60620SOL     OW83756   3.278   0.696   7.007
60620SOL    HW183757   3.333   0.697   6.928
60620SOL    HW283758   3.339   0.717   7.078
60621SOL     OW83759  14.663   2.750   7.615
60621SOL    HW183760  14.686   2.669   7.568
60621SOL    HW283761  14.746   2.797   7.623
60622SOL     OW83762   2.431  13.071  13.195
60622SOL    HW183763   2.474  13.008  13.137
60622SOL    HW283764   2.399  13.140  13.137
60623SOL     OW83765   6.254  12.571   7.929
60623SOL    HW183766   6.271  12.477   7.932
60623SOL    HW283767   6.159  12.579   7.938
60624SOL     OW83768   2.882   5.635  14.310
60624SOL    HW183769   2.852   5.567  14.249
60624SOL    HW283770   2.888   5.714  14.256
60625SOL     OW83771   4.189   8.768  12.167
60625SOL    HW183772   4.160   8.690  12.213
60625SOL    HW283773   4.172   8.749  12.074
60626SOL     OW83774  12.630   2.958   5.495
60626SOL    HW183775  12.709   2.917   5.460
60626SOL    HW283776  12.584   2.888   5.540
60627SOL     OW83777   1.000   7.553   9.906
60627SOL    HW183778   1.021   7.641   9.875
60627SOL    HW283779   0.945   7.567   9.983
60628SOL     OW83780  12.070   0.106  10.634
60628SOL    HW183781  12.134   0.126  10.702
60628SOL    HW283782  12.106   0.031  10.587
60629SOL     OW83783   9.407   9.355   4.169
60629SOL    HW183784   9.443   9.343   4.257
60629SOL    HW283785   9.466   9.305   4.112
60630SOL     OW83786  10.983   7.811   0.244
60630SOL    HW183787  11.046   7.865   0.291
60630SOL    HW283788  10.996   7.723   0.278
60631SOL     OW83789  14.131   5.327   8.052
60631SOL    HW183790  14.071   5.390   8.012
60631SOL    HW283791  14.164   5.371   8.130
60632SOL     OW83792   0.443   7.668   5.702
60632SOL    HW183793   0.428   7.761   5.715
60632SOL    HW283794   0.536   7.660   5.685
60633SOL     OW83795  10.405  12.546   1.152
60633SOL    HW183796  10.323  12.504   1.123
60633SOL    HW283797  10.473  12.500   1.102
60634SOL     OW83798  11.760   1.245   7.260
60634SOL    HW183799  11.666   1.240   7.242
60634SOL    HW283800  11.769   1.213   7.350
60635SOL     OW83801   3.990   8.641   3.357
60635SOL    HW183802   3.970   8.567   3.415
60635SOL    HW283803   3.947   8.716   3.398
60636SOL     OW83804   5.166   0.113   7.263
60636SOL    HW183805   5.254   0.100   7.298
60636SOL    HW283806   5.134   0.193   7.305
60637SOL     OW83807   2.759   0.248   0.710
60637SOL    HW183808   2.678   0.259   0.760
60637SOL    HW283809   2.823   0.303   0.755
60638SOL     OW83810   2.806   0.276  10.063
60638SOL    HW183811   2.711   0.283  10.068
60638SOL    HW283812   2.833   0.243  10.149
60639SOL     OW83813  10.800   5.195   3.121
60639SOL    HW183814  10.824   5.163   3.034
60639SOL    HW283815  10.705   5.192   3.123
60640SOL     OW83816  12.117   4.514   3.794
60640SOL    HW183817  12.145   4.520   3.886
60640SOL    HW283818  12.084   4.425   3.784
60641SOL     OW83819   8.997   9.672   2.520
60641SOL    HW183820   9.061   9.725   2.568
60641SOL    HW283821   8.974   9.601   2.580
60642SOL     OW83822   5.273   5.915  11.395
60642SOL    HW183823   5.262   5.911  11.300
60642SOL    HW283824   5.184   5.915  11.430
60643SOL     OW83825   4.284   8.828   8.632
60643SOL    HW183826   4.272   8.900   8.571
60643SOL    HW283827   4.196   8.807   8.663
60644SOL     OW83828   5.639  12.807   5.121
60644SOL    HW183829   5.678  12.723   5.096
60644SOL    HW283830   5.627  12.854   5.038
60645SOL     OW83831  10.139  13.893   7.819
60645SOL    HW183832  10.079  13.908   7.892
60645SOL    HW283833  10.124  13.967   7.760
60646SOL     OW83834   1.693  13.153   5.546
60646SOL    HW183835   1.757  13.168   5.615
60646SOL    HW283836   1.663  13.063   5.562
60647SOL     OW83837  10.077  12.650   7.890
60647SOL    HW183838  10.018  12.609   7.953
60647SOL    HW283839  10.148  12.586   7.880
60648SOL     OW83840   8.489  14.406  13.860
60648SOL    HW183841   8.397  14.407  13.887
60648SOL    HW283842   8.513  14.314  13.858
60649SOL     OW83843   9.580   6.225   8.288
60649SOL    HW183844   9.619   6.161   8.229
60649SOL    HW283845   9.527   6.280   8.231
60650SOL     OW83846   8.182  13.947  11.587
60650SOL    HW183847   8.094  13.910  11.588
60650SOL    HW283848   8.240  13.872  11.601
60651SOL     OW83849   6.654   9.398   0.888
60651SOL    HW183850   6.615   9.316   0.917
60651SOL    HW283851   6.748   9.382   0.888
60652SOL     OW83852  12.003   2.452   2.420
60652SOL    HW183853  12.006   2.485   2.330
60652SOL    HW283854  12.095   2.448   2.447
60653SOL     OW83855   7.772   5.010  10.086
60653SOL    HW183856   7.838   5.060  10.133
60653SOL    HW283857   7.691   5.061  10.096
60654SOL     OW83858   1.311   8.998  12.761
60654SOL    HW183859   1.258   9.060  12.710
60654SOL    HW283860   1.330   9.043  12.843
60655SOL     OW83861  11.703   2.096   4.346
60655SOL    HW183862  11.663   2.009   4.343
60655SOL    HW283863  11.790   2.081   4.383
60656SOL     OW83864   7.109   5.757  12.261
60656SOL    HW183865   7.154   5.824  12.211
60656SOL    HW283866   7.176   5.723  12.321
60657SOL     OW83867   9.100   3.602  14.808
60657SOL    HW183868   9.142   3.581  14.724
60657SOL    HW283869   9.118   3.695  14.821
60658SOL     OW83870  14.621   8.865   6.342
60658SOL    HW183871  14.683   8.933   6.316
60658SOL    HW283872  14.535   8.900   6.318
60659SOL     OW83873  13.836   5.728   8.820
60659SOL    HW183874  13.741   5.729   8.832
60659SOL    HW283875  13.868   5.797   8.878
60660SOL     OW83876  11.742   3.344  11.252
60660SOL    HW183877  11.803   3.304  11.190
60660SOL    HW283878  11.657   3.338  11.209
60661SOL     OW83879   2.045  12.803  13.062
60661SOL    HW183880   2.093  12.756  13.130
60661SOL    HW283881   2.098  12.881  13.045
60662SOL     OW83882  12.779  12.054   6.119
60662SOL    HW183883  12.823  12.082   6.199
60662SOL    HW283884  12.706  12.000   6.148
60663SOL     OW83885   7.790  10.060   9.213
60663SOL    HW183886   7.819   9.970   9.199
60663SOL    HW283887   7.786  10.069   9.309
60664SOL     OW83888   1.560   1.140   9.301
60664SOL    HW183889   1.598   1.225   9.323
60664SOL    HW283890   1.481   1.133   9.354
60665SOL     OW83891   5.110   2.009   9.158
60665SOL    HW183892   5.026   1.967   9.178
60665SOL    HW283893   5.145   2.036   9.242
60666SOL     OW83894   9.626  10.207   5.192
60666SOL    HW183895   9.589  10.119   5.182
60666SOL    HW283896   9.686  10.216   5.119
60667SOL     OW83897  14.755   2.508   9.624
60667SOL    HW183898  14.747   2.596   9.660
60667SOL    HW283899  14.850   2.496   9.611
60668SOL     OW83900   3.843   4.556  10.482
60668SOL    HW183901   3.910   4.498  10.519
60668SOL    HW283902   3.843   4.537  10.388
60669SOL     OW83903   6.084   4.395   0.849
60669SOL    HW183904   6.163   4.346   0.828
60669SOL    HW283905   6.050   4.352   0.928
60670SOL     OW83906   9.505  10.042   0.221
60670SOL    HW183907   9.443   9.970   0.208
60670SOL    HW283908   9.480  10.081   0.305
60671SOL     OW83909   1.432   8.814   2.426
60671SOL    HW183910   1.521   8.784   2.408
60671SOL    HW283911   1.424   8.808   2.521
60672SOL     OW83912  12.369  11.678   7.247
60672SOL    HW183913  12.422  11.751   7.215
60672SOL    HW283914  12.322  11.713   7.323
60673SOL     OW83915  14.328   5.163   7.511
60673SOL    HW183916  14.240   5.137   7.483
60673SOL    HW283917  14.315   5.247   7.556
60674SOL     OW83918   1.354   4.967  10.459
60674SOL    HW183919   1.317   5.010  10.535
60674SOL    HW283920   1.282   4.963  10.396
60675SOL     OW83921  10.546   1.586   3.951
60675SOL    HW183922  10.565   1.513   3.892
60675SOL    HW283923  10.617   1.649   3.936
60676SOL     OW83924   1.191  14.455   0.465
60676SOL    HW183925   1.194  14.517   0.392
60676SOL    HW283926   1.160  14.373   0.425
60677SOL     OW83927   9.474   6.647  12.745
60677SOL    HW183928   9.475   6.570  12.688
60677SOL    HW283929   9.492   6.612  12.833
60678SOL     OW83930   5.651   4.950  13.354
60678SOL    HW183931   5.734   4.997  13.358
60678SOL    HW283932   5.593   4.998  13.413
60679SOL     OW83933   6.602   3.490   5.748
60679SOL    HW183934   6.569   3.417   5.696
60679SOL    HW283935   6.679   3.455   5.792
60680SOL     OW83936  14.111   2.758   4.993
60680SOL    HW183937  14.039   2.743   4.932
60680SOL    HW283938  14.190   2.736   4.943
60681SOL     OW83939   3.056   2.557  13.603
60681SOL    HW183940   3.005   2.490  13.648
60681SOL    HW283941   2.991   2.615  13.564
60682SOL     OW83942   2.942   3.997   5.079
60682SOL    HW183943   2.978   4.086   5.084
60682SOL    HW283944   2.875   3.994   5.148
60683SOL     OW83945   3.176  14.855  11.168
60683SOL    HW183946   3.253  14.837  11.114
60683SOL    HW283947   3.186   0.070  11.192
60684SOL     OW83948   9.795   1.962   2.925
60684SOL    HW183949   9.829   1.900   2.860
60684SOL    HW283950   9.813   1.921   3.009
60685SOL     OW83951  14.786   4.084   3.862
60685SOL    HW183952  14.750   4.150   3.921
60685SOL    HW283953  14.716   4.020   3.852
60686SOL     OW83954   8.661  12.779   6.810
60686SOL    HW183955   8.669  12.723   6.888
60686SOL    HW283956   8.663  12.868   6.845
60687SOL     OW83957   7.213   3.691   0.837
60687SOL    HW183958   7.123   3.725   0.832
60687SOL    HW283959   7.267   3.767   0.855
60688SOL     OW83960   3.221   2.585  14.594
60688SOL    HW183961   3.204   2.640  14.518
60688SOL    HW283962   3.308   2.612  14.624
60689SOL     OW83963   1.187   7.433  14.862
60689SOL    HW183964   1.209   7.340  14.866
60689SOL    HW283965   1.270   7.476  14.838
60690SOL     OW83966  12.392   8.094   9.115
60690SOL    HW183967  12.356   8.072   9.029
60690SOL    HW283968  12.417   8.010   9.153
60691SOL     OW83969  14.813   7.207   4.805
60691SOL    HW183970  14.765   7.287   4.822
60691SOL    HW283971  14.790   7.184   4.715
60692SOL     OW83972   3.271   3.548  12.828
60692SOL    HW183973   3.347   3.491  12.821
60692SOL    HW283974   3.281   3.592  12.913
60693SOL     OW83975   5.427  12.659  12.344
60693SOL    HW183976   5.468  12.635  12.261
60693SOL    HW283977   5.490  12.633  12.411
60694SOL     OW83978   5.340  14.170  11.587
60694SOL    HW183979   5.358  14.180  11.681
60694SOL    HW283980   5.427  14.169  11.546
60695SOL     OW83981   8.151   1.158   4.262
60695SOL    HW183982   8.197   1.082   4.225
60695SOL    HW283983   8.158   1.225   4.195
60696SOL     OW83984   5.381   6.057   9.437
60696SOL    HW183985   5.310   6.103   9.482
60696SOL    HW283986   5.459   6.078   9.488
60697SOL     OW83987  10.603   8.440  13.051
60697SOL    HW183988  10.563   8.433  13.138
60697SOL    HW283989  10.546   8.388  12.994
60698SOL     OW83990   6.488   9.749  14.674
60698SOL    HW183991   6.477   9.773  14.582
60698SOL    HW283992   6.572   9.788  14.698
60699SOL     OW83993   0.978   7.994   4.354
60699SOL    HW183994   1.057   8.005   4.301
60699SOL    HW283995   1.011   7.967   4.440
60700SOL     OW83996   4.251   5.308   3.037
60700SOL    HW183997   4.256   5.361   2.957
60700SOL    HW283998   4.338   5.269   3.045
60701SOL     OW83999   6.325   9.553  10.480
60701SOL    HW184000   6.344   9.522  10.568
60701SOL    HW284001   6.395   9.517  10.426
60702SOL     OW84002  12.370  10.751   8.182
60702SOL    HW184003  12.434  10.684   8.158
60702SOL    HW284004  12.362  10.743   8.277
60703SOL     OW84005   4.556  13.311  11.464
60703SOL    HW184006   4.617  13.239  11.482
60703SOL    HW284007   4.511  13.284  11.383
60704SOL     OW84008   3.641   8.750  12.468
60704SOL    HW184009   3.626   8.753  12.373
60704SOL    HW284010   3.665   8.840  12.490
60705SOL     OW84011  10.750   5.654   7.524
60705SOL    HW184012  10.655   5.664   7.520
60705SOL    HW284013  10.782   5.694   7.443
60706SOL     OW84014   2.392   6.982   6.227
60706SOL    HW184015   2.347   6.922   6.286
60706SOL    HW284016   2.361   7.069   6.253
60707SOL     OW84017  14.348  11.899   7.428
60707SOL    HW184018  14.360  11.862   7.341
60707SOL    HW284019  14.394  11.983   7.425
60708SOL     OW84020  11.826   9.012   8.580
60708SOL    HW184021  11.785   9.004   8.666
60708SOL    HW284022  11.776   8.953   8.524
60709SOL     OW84023  14.206  10.979   6.229
60709SOL    HW184024  14.268  10.914   6.263
60709SOL    HW284025  14.262  11.049   6.194
60710SOL     OW84026   9.350  11.326   1.300
60710SOL    HW184027   9.339  11.417   1.271
60710SOL    HW284028   9.399  11.333   1.382
60711SOL     OW84029   6.596   8.597   1.206
60711SOL    HW184030   6.555   8.646   1.277
60711SOL    HW284031   6.581   8.505   1.228
60712SOL     OW84032  13.919   4.616   6.000
60712SOL    HW184033  13.825   4.631   5.994
60712SOL    HW284034  13.951   4.681   6.061
60713SOL     OW84035   2.653   0.293  12.090
60713SOL    HW184036   2.687   0.370  12.045
60713SOL    HW284037   2.712   0.222  12.064
60714SOL     OW84038  13.246   9.336  13.242
60714SOL    HW184039  13.248   9.427  13.213
60714SOL    HW284040  13.245   9.284  13.161
60715SOL     OW84041   8.652  10.735   7.413
60715SOL    HW184042   8.618  10.787   7.340
60715SOL    HW284043   8.732  10.781   7.440
60716SOL     OW84044   9.653   3.085   2.805
60716SOL    HW184045   9.564   3.101   2.836
60716SOL    HW284046   9.641   3.049   2.717
60717SOL     OW84047   1.072   3.383   8.871
60717SOL    HW184048   1.150   3.410   8.918
60717SOL    HW284049   1.090   3.405   8.779
60718SOL     OW84050   5.155  13.755   5.928
60718SOL    HW184051   5.212  13.694   5.881
60718SOL    HW284052   5.203  13.837   5.928
60719SOL     OW84053   6.152   4.022   1.675
60719SOL    HW184054   6.214   4.092   1.696
60719SOL    HW284055   6.122   3.990   1.760
60720SOL     OW84056   9.703  14.319   9.185
60720SOL    HW184057   9.787  14.321   9.230
60720SOL    HW284058   9.722  14.285   9.098
60721SOL     OW84059   8.902   7.800   2.067
60721SOL    HW184060   8.813   7.764   2.066
60721SOL    HW284061   8.920   7.816   2.160
60722SOL     OW84062  14.802   6.470  13.366
60722SOL    HW184063  14.786   6.416  13.288
60722SOL    HW284064   0.017   6.456  13.386
60723SOL     OW84065   2.143   2.605   9.014
60723SOL    HW184066   2.178   2.560   9.091
60723SOL    HW284067   2.159   2.697   9.031
60724SOL     OW84068   6.506  12.747  10.873
60724SOL    HW184069   6.502  12.841  10.890
60724SOL    HW284070   6.460  12.708  10.947
60725SOL     OW84071   4.398   5.977   0.243
60725SOL    HW184072   4.339   5.936   0.306
60725SOL    HW284073   4.400   5.917   0.168
60726SOL     OW84074   3.061   3.689   1.474
60726SOL    HW184075   2.992   3.729   1.528
60726SOL    HW284076   3.050   3.595   1.486
60727SOL     OW84077   3.218   0.888   7.736
60727SOL    HW184078   3.277   0.867   7.807
60727SOL    HW284079   3.133   0.901   7.779
60728SOL     OW84080   8.039  10.307  10.714
60728SOL    HW184081   7.994  10.292  10.797
60728SOL    HW284082   7.971  10.336  10.654
60729SOL     OW84083   8.420  10.972  10.713
60729SOL    HW184084   8.416  11.064  10.688
60729SOL    HW284085   8.328  10.943  10.713
60730SOL     OW84086  11.800   0.026  12.631
60730SOL    HW184087  11.864   0.067  12.689
60730SOL    HW284088  11.825  14.812  12.628
60731SOL     OW84089   3.870  13.231   3.430
60731SOL    HW184090   3.815  13.295   3.385
60731SOL    HW284091   3.917  13.186   3.360
60732SOL     OW84092  12.866  11.862   6.583
60732SOL    HW184093  12.780  11.824   6.602
60732SOL    HW284094  12.897  11.812   6.508
60733SOL     OW84095   1.120  14.474   3.032
60733SOL    HW184096   1.133  14.390   2.987
60733SOL    HW284097   1.171  14.466   3.113
60734SOL     OW84098   9.130   7.663  12.510
60734SOL    HW184099   9.205   7.717  12.483
60734SOL    HW284100   9.066   7.675  12.440
60735SOL     OW84101   8.167   4.615   4.122
60735SOL    HW184102   8.122   4.532   4.133
60735SOL    HW284103   8.185   4.620   4.028
60736SOL     OW84104  12.299  14.209   6.676
60736SOL    HW184105  12.282  14.228   6.769
60736SOL    HW284106  12.368  14.271   6.651
60737SOL     OW84107  10.230  13.757   5.151
60737SOL    HW184108  10.317  13.746   5.189
60737SOL    HW284109  10.229  13.700   5.074
60738SOL     OW84110   4.976  10.428  12.522
60738SOL    HW184111   4.938  10.455  12.438
60738SOL    HW284112   5.027  10.350  12.501
60739SOL     OW84113  12.599  13.592   8.360
60739SOL    HW184114  12.665  13.621   8.297
60739SOL    HW284115  12.558  13.517   8.318
60740SOL     OW84116  13.944   4.729   8.936
60740SOL    HW184117  13.968   4.803   8.881
60740SOL    HW284118  13.992   4.743   9.018
60741SOL     OW84119  13.301  12.567   7.886
60741SOL    HW184120  13.210  12.567   7.915
60741SOL    HW284121  13.337  12.649   7.920
60742SOL     OW84122  10.777   4.750   6.706
60742SOL    HW184123  10.732   4.676   6.746
60742SOL    HW284124  10.813   4.800   6.779
60743SOL     OW84125   4.359   4.315  11.916
60743SOL    HW184126   4.283   4.261  11.895
60743SOL    HW284127   4.360   4.319  12.012
60744SOL     OW84128   1.324  12.248   2.749
60744SOL    HW184129   1.402  12.193   2.745
60744SOL    HW284130   1.251  12.187   2.750
60745SOL     OW84131  12.020   1.415   1.264
60745SOL    HW184132  12.002   1.402   1.171
60745SOL    HW284133  11.934   1.409   1.306
60746SOL     OW84134   1.033  11.717  11.405
60746SOL    HW184135   1.058  11.644  11.461
60746SOL    HW284136   1.035  11.793  11.464
60747SOL     OW84137  12.348  13.910   3.654
60747SOL    HW184138  12.431  13.928   3.611
60747SOL    HW284139  12.286  13.898   3.582
60748SOL     OW84140   1.291  12.676   5.833
60748SOL    HW184141   1.198  12.680   5.811
60748SOL    HW284142   1.299  12.600   5.890
60749SOL     OW84143   8.705   2.158   2.086
60749SOL    HW184144   8.767   2.151   2.014
60749SOL    HW284145   8.661   2.073   2.088
60750SOL     OW84146   1.404   5.214   2.276
60750SOL    HW184147   1.483   5.167   2.249
60750SOL    HW284148   1.354   5.150   2.326
60751SOL     OW84149   8.899  12.232   0.631
60751SOL    HW184150   8.981  12.232   0.582
60751SOL    HW284151   8.876  12.140   0.639
60752SOL     OW84152   3.163  14.581   0.758
60752SOL    HW184153   3.242  14.634   0.762
60752SOL    HW284154   3.092  14.640   0.781
60753SOL     OW84155   0.156  11.646   3.947
60753SOL    HW184156   0.140  11.647   4.041
60753SOL    HW284157   0.251  11.655   3.939
60754SOL     OW84158   9.353   9.147   1.692
60754SOL    HW184159   9.428   9.101   1.729
60754SOL    HW284160   9.385   9.182   1.609
60755SOL     OW84161   8.736  11.880   8.028
60755SOL    HW184162   8.647  11.876   8.064
60755SOL    HW284163   8.755  11.973   8.021
60756SOL     OW84164   2.279   8.414   0.103
60756SOL    HW184165   2.192   8.452   0.089
60756SOL    HW284166   2.338   8.490   0.106
60757SOL     OW84167   4.895  12.468   5.910
60757SOL    HW184168   4.989  12.447   5.905
60757SOL    HW284169   4.881  12.529   5.838
60758SOL     OW84170   9.341  14.648   3.346
60758SOL    HW184171   9.366  14.691   3.428
60758SOL    HW284172   9.423  14.645   3.296
60759SOL     OW84173   8.491   2.380   0.150
60759SOL    HW184174   8.449   2.383   0.064
60759SOL    HW284175   8.584   2.389   0.131
60760SOL     OW84176  14.709   3.348  14.746
60760SOL    HW184177  14.613   3.343  14.751
60760SOL    HW284178  14.735   3.263  14.711
60761SOL     OW84179  10.031  14.765   1.442
60761SOL    HW184180   9.967  14.827   1.476
60761SOL    HW284181  10.102  14.819   1.407
60762SOL     OW84182   0.562   8.844   8.289
60762SOL    HW184183   0.539   8.765   8.241
60762SOL    HW284184   0.604   8.901   8.224
60763SOL     OW84185   3.067   3.603   9.188
60763SOL    HW184186   3.050   3.524   9.136
60763SOL    HW284187   2.999   3.602   9.255
60764SOL     OW84188   7.626   2.562   4.586
60764SOL    HW184189   7.664   2.622   4.522
60764SOL    HW284190   7.671   2.479   4.571
60765SOL     OW84191   6.248   3.251  13.939
60765SOL    HW184192   6.342   3.245  13.922
60765SOL    HW284193   6.228   3.174  13.993
60766SOL     OW84194  10.006   4.080   0.695
60766SOL    HW184195  10.100   4.094   0.683
60766SOL    HW284196   9.967   4.166   0.680
60767SOL     OW84197   3.658  12.815   7.525
60767SOL    HW184198   3.679  12.903   7.493
60767SOL    HW284199   3.667  12.759   7.447
60768SOL     OW84200   7.188  11.510   1.918
60768SOL    HW184201   7.141  11.558   1.986
60768SOL    HW284202   7.274  11.553   1.913
60769SOL     OW84203   0.768   2.230   5.929
60769SOL    HW184204   0.800   2.263   5.845
60769SOL    HW284205   0.692   2.176   5.906
60770SOL     OW84206   0.648   7.357  12.886
60770SOL    HW184207   0.722   7.416  12.904
60770SOL    HW284208   0.597   7.357  12.967
60771SOL     OW84209   0.702   9.913   3.770
60771SOL    HW184210   0.636   9.970   3.730
60771SOL    HW284211   0.785   9.959   3.759
60772SOL     OW84212   0.639   4.010   4.455
60772SOL    HW184213   0.621   4.042   4.543
60772SOL    HW284214   0.592   3.927   4.450
60773SOL     OW84215   1.732   0.016   9.119
60773SOL    HW184216   1.691   0.095   9.154
60773SOL    HW284217   1.770   0.043   9.035
60774SOL     OW84218   9.311  14.109   4.448
60774SOL    HW184219   9.301  14.027   4.399
60774SOL    HW284220   9.356  14.083   4.529
60775SOL     OW84221   3.942   8.234   5.654
60775SOL    HW184222   3.957   8.298   5.584
60775SOL    HW284223   3.875   8.274   5.709
60776SOL     OW84224  11.335   2.347   9.586
60776SOL    HW184225  11.368   2.369   9.499
60776SOL    HW284226  11.288   2.425   9.615
60777SOL     OW84227  13.835   8.052   1.590
60777SOL    HW184228  13.894   8.099   1.649
60777SOL    HW284229  13.752   8.047   1.638
60778SOL     OW84230   2.229   1.919  12.443
60778SOL    HW184231   2.150   1.870  12.467
60778SOL    HW284232   2.229   1.993  12.504
60779SOL     OW84233  11.439   6.964   1.065
60779SOL    HW184234  11.396   6.886   1.101
60779SOL    HW284235  11.499   6.931   0.999
60780SOL     OW84236  14.740  13.583  13.492
60780SOL    HW184237  14.656  13.570  13.535
60780SOL    HW284238  14.721  13.577  13.399
60781SOL     OW84239   1.580   0.359   2.751
60781SOL    HW184240   1.651   0.395   2.698
60781SOL    HW284241   1.584   0.408   2.833
60782SOL     OW84242   6.685  14.008  12.334
60782SOL    HW184243   6.696  13.997  12.428
60782SOL    HW284244   6.654  13.922  12.304
60783SOL     OW84245   8.522   3.880   8.550
60783SOL    HW184246   8.489   3.937   8.619
60783SOL    HW284247   8.465   3.898   8.475
60784SOL     OW84248   1.123   2.373   8.596
60784SOL    HW184249   1.045   2.331   8.561
60784SOL    HW284250   1.089   2.439   8.657
60785SOL     OW84251   6.198   8.004   6.159
60785SOL    HW184252   6.244   7.919   6.159
60785SOL    HW284253   6.225   8.045   6.241
60786SOL     OW84254   3.345   7.577   8.499
60786SOL    HW184255   3.286   7.503   8.485
60786SOL    HW284256   3.418   7.562   8.440
60787SOL     OW84257   1.102   8.358  11.603
60787SOL    HW184258   1.069   8.440  11.641
60787SOL    HW284259   1.026   8.322  11.557
60788SOL     OW84260  10.867   4.501  11.461
60788SOL    HW184261  10.893   4.414  11.432
60788SOL    HW284262  10.829   4.487  11.548
60789SOL     OW84263   8.524  12.942   4.357
60789SOL    HW184264   8.584  12.982   4.294
60789SOL    HW284265   8.509  12.854   4.323
60790SOL     OW84266   8.337  11.300   3.290
60790SOL    HW184267   8.249  11.326   3.262
60790SOL    HW284268   8.383  11.382   3.306
60791SOL     OW84269  12.848   8.765  13.990
60791SOL    HW184270  12.792   8.762  14.067
60791SOL    HW284271  12.795   8.810  13.924
60792SOL     OW84272   2.307   6.396   3.181
60792SOL    HW184273   2.319   6.303   3.160
60792SOL    HW284274   2.349   6.407   3.266
60793SOL     OW84275   4.871   4.646   1.499
60793SOL    HW184276   4.887   4.572   1.441
60793SOL    HW284277   4.890   4.723   1.446
60794SOL     OW84278   7.891   4.125   3.960
60794SOL    HW184279   7.799   4.139   3.937
60794SOL    HW284280   7.890   4.116   4.055
60795SOL     OW84281   0.117  11.105   4.728
60795SOL    HW184282   0.140  11.194   4.701
60795SOL    HW284283   0.180  11.050   4.682
60796SOL     OW84284   0.890   1.990  12.719
60796SOL    HW184285   0.857   2.018  12.805
60796SOL    HW284286   0.936   1.908  12.737
60797SOL     OW84287   7.438   5.023  10.531
60797SOL    HW184288   7.440   5.104  10.480
60797SOL    HW284289   7.450   4.954  10.466
60798SOL     OW84290   9.345  10.183  11.460
60798SOL    HW184291   9.366  10.259  11.406
60798SOL    HW284292   9.374  10.108  11.408
60799SOL     OW84293   3.278   3.828   1.142
60799SOL    HW184294   3.285   3.737   1.171
60799SOL    HW284295   3.222   3.870   1.207
60800SOL     OW84296   3.470   3.110   1.511
60800SOL    HW184297   3.420   3.191   1.524
60800SOL    HW284298   3.539   3.133   1.450
60801SOL     OW84299  12.436   9.546   0.964
60801SOL    HW184300  12.443   9.571   0.872
60801SOL    HW284301  12.518   9.500   0.982
60802SOL     OW84302   1.307   3.894   3.726
60802SOL    HW184303   1.390   3.861   3.759
60802SOL    HW284304   1.317   3.894   3.631
60803SOL     OW84305  13.922   4.861   3.257
60803SOL    HW184306  13.955   4.821   3.337
60803SOL    HW284307  13.827   4.844   3.260
60804SOL     OW84308   2.374  13.410   0.963
60804SOL    HW184309   2.424  13.485   0.931
60804SOL    HW284310   2.439  13.348   0.993
60805SOL     OW84311   5.746   7.935   8.942
60805SOL    HW184312   5.757   8.016   8.892
60805SOL    HW284313   5.657   7.905   8.919
60806SOL     OW84314   5.061   9.924   9.632
60806SOL    HW184315   5.069   9.991   9.700
60806SOL    HW284316   5.108   9.961   9.557
60807SOL     OW84317   2.257  10.195  10.830
60807SOL    HW184318   2.342  10.215  10.790
60807SOL    HW284319   2.262  10.101  10.850
60808SOL     OW84320   6.557  11.061  10.657
60808SOL    HW184321   6.505  11.138  10.633
60808SOL    HW284322   6.537  11.045  10.749
60809SOL     OW84323   4.814   3.218  10.738
60809SOL    HW184324   4.797   3.174  10.655
60809SOL    HW284325   4.909   3.215  10.748
60810SOL     OW84326   9.240  14.144  12.921
60810SOL    HW184327   9.159  14.097  12.898
60810SOL    HW284328   9.306  14.075  12.929
60811SOL     OW84329   7.428   3.198  12.915
60811SOL    HW184330   7.506   3.172  12.865
60811SOL    HW284331   7.449   3.285  12.948
60812SOL     OW84332  11.861   1.689   0.139
60812SOL    HW184333  11.929   1.727   0.195
60812SOL    HW284334  11.865   1.741   0.058
60813SOL     OW84335  12.418   9.673  13.573
60813SOL    HW184336  12.387   9.602  13.630
60813SOL    HW284337  12.423   9.749  13.630
60814SOL     OW84338  11.216   6.913   8.094
60814SOL    HW184339  11.145   6.892   8.034
60814SOL    HW284340  11.270   6.834   8.097
60815SOL     OW84341   9.476   1.944  12.514
60815SOL    HW184342   9.474   2.036  12.487
60815SOL    HW284343   9.462   1.947  12.609
60816SOL     OW84344  14.177   1.760   4.893
60816SOL    HW184345  14.196   1.709   4.814
60816SOL    HW284346  14.208   1.706   4.965
60817SOL     OW84347   4.850   1.365   5.156
60817SOL    HW184348   4.921   1.407   5.109
60817SOL    HW284349   4.852   1.274   5.127
60818SOL     OW84350   9.957   7.918   5.285
60818SOL    HW184351  10.053   7.913   5.275
60818SOL    HW284352   9.943   7.926   5.379
60819SOL     OW84353   2.174  12.740   9.458
60819SOL    HW184354   2.226  12.704   9.387
60819SOL    HW284355   2.123  12.810   9.417
60820SOL     OW84356  11.636  12.737   1.707
60820SOL    HW184357  11.646  12.679   1.631
60820SOL    HW284358  11.658  12.824   1.675
60821SOL     OW84359   7.517   0.129   9.327
60821SOL    HW184360   7.444   0.172   9.283
60821SOL    HW284361   7.563   0.083   9.258
60822SOL     OW84362  10.811   7.060  13.540
60822SOL    HW184363  10.813   6.971  13.504
60822SOL    HW284364  10.878   7.107  13.490
60823SOL     OW84365   7.982   9.424   0.388
60823SOL    HW184366   8.016   9.391   0.471
60823SOL    HW284367   7.894   9.388   0.382
60824SOL     OW84368  12.141   5.609   8.458
60824SOL    HW184369  12.233   5.598   8.432
60824SOL    HW284370  12.096   5.537   8.415
60825SOL     OW84371  13.922   3.346   6.632
60825SOL    HW184372  13.980   3.283   6.674
60825SOL    HW284373  13.872   3.384   6.704
60826SOL     OW84374   7.488  11.421   6.798
60826SOL    HW184375   7.448  11.418   6.711
60826SOL    HW284376   7.427  11.374   6.854
60827SOL     OW84377   0.360   0.853   9.406
60827SOL    HW184378   0.381   0.768   9.446
60827SOL    HW284379   0.414   0.855   9.327
60828SOL     OW84380  14.076  12.099   1.839
60828SOL    HW184381  13.983  12.079   1.854
60828SOL    HW284382  14.118  12.013   1.832
60829SOL     OW84383   1.838   1.476   2.965
60829SOL    HW184384   1.872   1.500   2.879
60829SOL    HW284385   1.802   1.557   3.001
60830SOL     OW84386   0.472   0.394  11.566
60830SOL    HW184387   0.383   0.371  11.539
60830SOL    HW284388   0.529   0.344  11.507
60831SOL     OW84389  14.108  10.427   9.161
60831SOL    HW184390  14.150  10.459   9.081
60831SOL    HW284391  14.050  10.357   9.132
60832SOL     OW84392   2.802   7.504  12.443
60832SOL    HW184393   2.845   7.464  12.518
60832SOL    HW284394   2.824   7.446  12.370
60833SOL     OW84395   7.416  12.452   4.274
60833SOL    HW184396   7.469  12.393   4.327
60833SOL    HW284397   7.336  12.465   4.324
60834SOL     OW84398   7.669   2.091   5.713
60834SOL    HW184399   7.603   2.023   5.699
60834SOL    HW284400   7.624   2.173   5.695
60835SOL     OW84401   6.773  13.837   8.853
60835SOL    HW184402   6.746  13.781   8.780
60835SOL    HW284403   6.761  13.926   8.821
60836SOL     OW84404   3.467  14.568  13.090
60836SOL    HW184405   3.491  14.583  12.998
60836SOL    HW284406   3.538  14.514  13.125
60837SOL     OW84407   2.306   8.783   1.852
60837SOL    HW184408   2.289   8.760   1.760
60837SOL    HW284409   2.253   8.861   1.868
60838SOL     OW84410   7.133   1.807   8.048
60838SOL    HW184411   7.141   1.740   8.115
60838SOL    HW284412   7.107   1.886   8.096
60839SOL     OW84413   4.904   6.647   4.272
60839SOL    HW184414   4.885   6.736   4.302
60839SOL    HW284415   4.887   6.649   4.178
60840SOL     OW84416  10.976   2.999   5.193
60840SOL    HW184417  10.881   2.985   5.196
60840SOL    HW284418  11.002   3.005   5.285
60841SOL     OW84419   2.408  11.315   3.684
60841SOL    HW184420   2.344  11.370   3.730
60841SOL    HW284421   2.474  11.296   3.751
60842SOL     OW84422  11.677   6.810  12.180
60842SOL    HW184423  11.711   6.896  12.205
60842SOL    HW284424  11.722   6.790  12.097
60843SOL     OW84425   6.879   6.152   0.152
60843SOL    HW184426   6.932   6.144   0.073
60843SOL    HW284427   6.915   6.087   0.212
60844SOL     OW84428   3.120   3.926   1.319
60844SOL    HW184429   3.075   4.010   1.315
60844SOL    HW284430   3.087   3.885   1.399
60845SOL     OW84431  14.735   5.125   1.954
60845SOL    HW184432  14.707   5.126   1.863
60845SOL    HW284433  14.711   5.212   1.987
60846SOL     OW84434   7.917   4.602   8.321
60846SOL    HW184435   7.953   4.655   8.392
60846SOL    HW284436   7.961   4.635   8.243
60847SOL     OW84437   6.019   2.028   2.155
60847SOL    HW184438   6.080   1.959   2.131
60847SOL    HW284439   5.975   1.995   2.234
60848SOL     OW84440   2.854   8.477   5.980
60848SOL    HW184441   2.776   8.532   5.972
60848SOL    HW284442   2.835   8.400   5.927
60849SOL     OW84443  11.737   6.572   9.537
60849SOL    HW184444  11.649   6.541   9.514
60849SOL    HW284445  11.729   6.604   9.626
60850SOL     OW84446   4.746   7.100   2.219
60850SOL    HW184447   4.732   7.062   2.305
60850SOL    HW284448   4.669   7.157   2.205
60851SOL     OW84449   2.983   8.127  13.635
60851SOL    HW184450   3.010   8.219  13.630
60851SOL    HW284451   2.919   8.124  13.707
60852SOL     OW84452   8.034   5.664   9.473
60852SOL    HW184453   7.955   5.713   9.496
60852SOL    HW284454   8.065   5.628   9.556
60853SOL     OW84455   2.478  14.598   2.898
60853SOL    HW184456   2.537  14.551   2.839
60853SOL    HW284457   2.507  14.573   2.986
60854SOL     OW84458   7.543  10.035  10.111
60854SOL    HW184459   7.453  10.001  10.107
60854SOL    HW284460   7.535  10.128  10.094
60855SOL     OW84461   1.886   9.614   6.268
60855SOL    HW184462   1.980   9.600   6.279
60855SOL    HW284463   1.847   9.589   6.352
60856SOL     OW84464   4.706  10.291   9.707
60856SOL    HW184465   4.694  10.231   9.781
60856SOL    HW284466   4.617  10.319   9.685
60857SOL     OW84467   1.646   7.404   3.355
60857SOL    HW184468   1.605   7.348   3.421
60857SOL    HW284469   1.669   7.484   3.402
60858SOL     OW84470   9.006   5.261   6.301
60858SOL    HW184471   9.057   5.199   6.248
60858SOL    HW284472   8.927   5.212   6.324
60859SOL     OW84473  14.274  12.240   4.721
60859SOL    HW184474  14.326  12.320   4.725
60859SOL    HW284475  14.278  12.214   4.628
60860SOL     OW84476  12.064   5.770   7.078
60860SOL    HW184477  12.067   5.810   6.991
60860SOL    HW284478  12.031   5.839   7.135
60861SOL     OW84479  14.594   2.698   0.419
60861SOL    HW184480  14.648   2.662   0.349
60861SOL    HW284481  14.653   2.753   0.470
60862SOL     OW84482   9.860   1.484   5.982
60862SOL    HW184483   9.821   1.571   5.987
60862SOL    HW284484   9.821   1.445   5.904
60863SOL     OW84485  13.384  10.866  11.876
60863SOL    HW184486  13.471  10.865  11.917
60863SOL    HW284487  13.334  10.929  11.928
60864SOL     OW84488   2.771   7.157   0.762
60864SOL    HW184489   2.860   7.188   0.749
60864SOL    HW284490   2.780   7.065   0.785
60865SOL     OW84491  10.510   8.278   5.786
60865SOL    HW184492  10.450   8.299   5.715
60865SOL    HW284493  10.468   8.206   5.833
60866SOL     OW84494  13.209   8.582   3.164
60866SOL    HW184495  13.221   8.494   3.198
60866SOL    HW284496  13.129   8.578   3.112
60867SOL     OW84497  14.034   2.717  11.059
60867SOL    HW184498  14.001   2.629  11.077
60867SOL    HW284499  14.116   2.722  11.109
60868SOL     OW84500   6.018  10.987   3.310
60868SOL    HW184501   6.019  11.012   3.402
60868SOL    HW284502   6.073  11.052   3.267
60869SOL     OW84503   9.077   2.628   7.985
60869SOL    HW184504   8.988   2.646   8.016
60869SOL    HW284505   9.067   2.553   7.927
60870SOL     OW84506   0.732  12.890   5.475
60870SOL    HW184507   0.814  12.881   5.427
60870SOL    HW284508   0.708  12.982   5.466
60871SOL     OW84509  11.110  11.349  12.123
60871SOL    HW184510  11.165  11.408  12.174
60871SOL    HW284511  11.157  11.337  12.041
60872SOL     OW84512  13.793  13.563  13.356
60872SOL    HW184513  13.721  13.608  13.400
60872SOL    HW284514  13.787  13.592  13.265
60873SOL     OW84515   9.310  10.807   0.311
60873SOL    HW184516   9.387  10.843   0.266
60873SOL    HW284517   9.346  10.743   0.372
60874SOL     OW84518   5.331   8.462   7.967
60874SOL    HW184519   5.293   8.449   8.054
60874SOL    HW284520   5.425   8.473   7.983
60875SOL     OW84521   2.974  11.159  10.150
60875SOL    HW184522   3.068  11.139  10.150
60875SOL    HW284523   2.967  11.241  10.102
60876SOL     OW84524  12.569   9.681  10.474
60876SOL    HW184525  12.660   9.652  10.467
60876SOL    HW284526  12.575   9.775  10.488
60877SOL     OW84527  10.318   0.798   6.483
60877SOL    HW184528  10.316   0.809   6.388
60877SOL    HW284529  10.407   0.770   6.502
60878SOL     OW84530   7.895   3.641   2.405
60878SOL    HW184531   7.986   3.613   2.416
60878SOL    HW284532   7.888   3.721   2.456
60879SOL     OW84533   5.478   0.433   3.265
60879SOL    HW184534   5.419   0.362   3.290
60879SOL    HW284535   5.559   0.390   3.238
60880SOL     OW84536   7.206   3.018   0.684
60880SOL    HW184537   7.187   3.087   0.747
60880SOL    HW284538   7.266   3.058   0.621
60881SOL     OW84539   7.169   9.598  10.084
60881SOL    HW184540   7.180   9.568  10.174
60881SOL    HW284541   7.099   9.543  10.049
60882SOL     OW84542   3.213   4.770   5.012
60882SOL    HW184543   3.166   4.852   5.025
60882SOL    HW284544   3.232   4.739   5.101
60883SOL     OW84545   4.307   3.557   1.848
60883SOL    HW184546   4.262   3.493   1.903
60883SOL    HW284547   4.246   3.631   1.842
60884SOL     OW84548   3.791  11.332   4.682
60884SOL    HW184549   3.776  11.295   4.769
60884SOL    HW284550   3.878  11.371   4.687
60885SOL     OW84551   8.994  10.869   9.315
60885SOL    HW184552   9.031  10.797   9.265
60885SOL    HW284553   9.005  10.842   9.407
60886SOL     OW84554   6.320   6.334   1.162
60886SOL    HW184555   6.233   6.311   1.193
60886SOL    HW284556   6.305   6.392   1.087
60887SOL     OW84557   9.051   3.152  10.128
60887SOL    HW184558   9.061   3.204  10.048
60887SOL    HW284559   9.113   3.189  10.189
60888SOL     OW84560   3.423   0.909   6.660
60888SOL    HW184561   3.485   0.918   6.588
60888SOL    HW284562   3.424   0.815   6.681
60889SOL     OW84563  13.009   9.663   0.417
60889SOL    HW184564  12.954   9.740   0.402
60889SOL    HW284565  13.089   9.698   0.456
60890SOL     OW84566   3.057   4.457   7.727
60890SOL    HW184567   2.979   4.512   7.715
60890SOL    HW284568   3.049   4.390   7.660
60891SOL     OW84569  11.563  12.446   4.972
60891SOL    HW184570  11.557  12.353   4.950
60891SOL    HW284571  11.563  12.448   5.067
60892SOL     OW84572  14.235  12.823  13.787
60892SOL    HW184573  14.154  12.863  13.817
60892SOL    HW284574  14.238  12.738  13.832
60893SOL     OW84575   1.860   0.323   5.643
60893SOL    HW184576   1.895   0.409   5.619
60893SOL    HW284577   1.765   0.334   5.636
60894SOL     OW84578  13.643   7.677   5.346
60894SOL    HW184579  13.614   7.633   5.426
60894SOL    HW284580  13.577   7.652   5.281
60895SOL     OW84581   9.607   1.834   8.364
60895SOL    HW184582   9.513   1.819   8.374
60895SOL    HW284583   9.645   1.746   8.359
60896SOL     OW84584  12.373   0.921  14.660
60896SOL    HW184585  12.282   0.921  14.628
60896SOL    HW284586  12.370   0.872  14.742
60897SOL     OW84587  11.729   3.656  11.909
60897SOL    HW184588  11.713   3.573  11.954
60897SOL    HW284589  11.793   3.634  11.841
60898SOL     OW84590   2.830   2.914  12.001
60898SOL    HW184591   2.850   2.986  11.942
60898SOL    HW284592   2.905   2.910  12.062
60899SOL     OW84593   8.215  14.400  13.907
60899SOL    HW184594   8.209  14.354  13.990
60899SOL    HW284595   8.172  14.484  13.923
60900SOL     OW84596   0.820   6.082   4.197
60900SOL    HW184597   0.863   6.004   4.161
60900SOL    HW284598   0.728   6.057   4.207
60901SOL     OW84599   6.056   5.283   3.822
60901SOL    HW184600   6.009   5.241   3.894
60901SOL    HW284601   6.103   5.212   3.779
60902SOL     OW84602  10.213   2.572   3.850
60902SOL    HW184603  10.129   2.614   3.864
60902SOL    HW284604  10.278   2.640   3.868
60903SOL     OW84605   8.514   0.588   7.587
60903SOL    HW184606   8.600   0.590   7.545
60903SOL    HW284607   8.454   0.616   7.519
60904SOL     OW84608   3.109   5.144  12.769
60904SOL    HW184609   3.044   5.108  12.829
60904SOL    HW284610   3.064   5.219  12.728
60905SOL     OW84611  14.800   6.646  14.727
60905SOL    HW184612  14.762   6.641  14.639
60905SOL    HW284613   0.015   6.625  14.714
60906SOL     OW84614  14.099   0.254   5.078
60906SOL    HW184615  14.004   0.248   5.087
60906SOL    HW284616  14.122   0.190   5.010
60907SOL     OW84617   8.077   1.482  10.631
60907SOL    HW184618   8.106   1.531  10.554
60907SOL    HW284619   8.114   1.529  10.705
60908SOL     OW84620   2.960   3.312   2.192
60908SOL    HW184621   2.891   3.373   2.167
60908SOL    HW284622   2.991   3.275   2.109
60909SOL     OW84623  10.998   8.521   4.572
60909SOL    HW184624  10.911   8.559   4.561
60909SOL    HW284625  11.010   8.515   4.667
60910SOL     OW84626  10.735  14.184   4.826
60910SOL    HW184627  10.713  14.094   4.802
60910SOL    HW284628  10.787  14.216   4.752
60911SOL     OW84629   7.288   9.415   7.611
60911SOL    HW184630   7.302   9.429   7.705
60911SOL    HW284631   7.296   9.320   7.600
60912SOL     OW84632  10.210  11.056   4.788
60912SOL    HW184633  10.231  10.997   4.716
60912SOL    HW284634  10.136  11.107   4.756
60913SOL     OW84635  14.133  14.874   1.025
60913SOL    HW184636  14.064  14.809   1.037
60913SOL    HW284637  14.206  14.826   0.986
60914SOL     OW84638  10.870   0.448   5.801
60914SOL    HW184639  10.820   0.373   5.768
60914SOL    HW284640  10.844   0.521   5.745
60915SOL     OW84641   4.125   9.259   3.077
60915SOL    HW184642   4.069   9.332   3.052
60915SOL    HW284643   4.084   9.222   3.155
60916SOL     OW84644  12.231   3.245   4.934
60916SOL    HW184645  12.190   3.177   4.988
60916SOL    HW284646  12.168   3.316   4.933
60917SOL     OW84647   8.426  14.070   3.323
60917SOL    HW184648   8.500  14.012   3.341
60917SOL    HW284649   8.349  14.012   3.322
60918SOL     OW84650   3.063  11.572  11.699
60918SOL    HW184651   3.148  11.608  11.674
60918SOL    HW284652   3.084  11.506  11.766
60919SOL     OW84653   0.959   3.866   9.656
60919SOL    HW184654   1.013   3.908   9.589
60919SOL    HW284655   0.927   3.786   9.615
60920SOL     OW84656   2.505   3.831   8.717
60920SOL    HW184657   2.534   3.797   8.633
60920SOL    HW284658   2.410   3.819   8.716
60921SOL     OW84659  12.389  10.609   1.482
60921SOL    HW184660  12.318  10.673   1.485
60921SOL    HW284661  12.348  10.529   1.448
60922SOL     OW84662   5.350   4.894   4.482
60922SOL    HW184663   5.305   4.921   4.401
60922SOL    HW284664   5.351   4.798   4.476
60923SOL     OW84665   2.660   0.837   1.763
60923SOL    HW184666   2.566   0.854   1.753
60923SOL    HW284667   2.665   0.751   1.803
60924SOL     OW84668   3.874   5.087   2.686
60924SOL    HW184669   3.934   5.093   2.761
60924SOL    HW284670   3.795   5.131   2.716
60925SOL     OW84671  11.832  11.377  10.386
60925SOL    HW184672  11.901  11.417  10.333
60925SOL    HW284673  11.754  11.380  10.329
60926SOL     OW84674   1.645   6.178   3.195
60926SOL    HW184675   1.569   6.162   3.251
60926SOL    HW284676   1.615   6.242   3.130
60927SOL     OW84677   8.536  14.487   9.817
60927SOL    HW184678   8.604  14.435   9.774
60927SOL    HW284679   8.460  14.480   9.760
60928SOL     OW84680   0.102  13.394   6.432
60928SOL    HW184681   0.037  13.324   6.441
60928SOL    HW284682   0.129  13.413   6.521
60929SOL     OW84683  10.986   8.033  13.168
60929SOL    HW184684  10.965   8.023  13.261
60929SOL    HW284685  10.912   8.082  13.132
60930SOL     OW84686   9.277  12.389   9.596
60930SOL    HW184687   9.317  12.398   9.510
60930SOL    HW284688   9.235  12.473   9.612
60931SOL     OW84689  11.845  14.667  13.446
60931SOL    HW184690  11.759  14.626  13.439
60931SOL    HW284691  11.867  14.691  13.356
60932SOL     OW84692   4.692  11.836   6.592
60932SOL    HW184693   4.605  11.862   6.562
60932SOL    HW284694   4.675  11.769   6.659
60933SOL     OW84695   0.169   6.671   0.796
60933SOL    HW184696   0.080   6.642   0.774
60933SOL    HW284697   0.202   6.711   0.715
60934SOL     OW84698   7.401  11.313   5.623
60934SOL    HW184699   7.440  11.337   5.539
60934SOL    HW284700   7.439  11.375   5.686
60935SOL     OW84701  12.921   6.922  13.129
60935SOL    HW184702  12.977   6.855  13.091
60935SOL    HW284703  12.938   7.000  13.078
60936SOL     OW84704   1.718   0.217  13.719
60936SOL    HW184705   1.782   0.287  13.702
60936SOL    HW284706   1.763   0.137  13.692
60937SOL     OW84707   7.380   2.578   4.832
60937SOL    HW184708   7.393   2.513   4.763
60937SOL    HW284709   7.467   2.611   4.851
60938SOL     OW84710  13.884   4.234   3.834
60938SOL    HW184711  13.833   4.239   3.753
60938SOL    HW284712  13.975   4.233   3.805
60939SOL     OW84713   0.327   1.745   7.251
60939SOL    HW184714   0.278   1.807   7.306
60939SOL    HW284715   0.260   1.703   7.197
60940SOL     OW84716   8.271  10.151  10.855
60940SOL    HW184717   8.290  10.194  10.938
60940SOL    HW284718   8.227  10.218  10.803
60941SOL     OW84719   7.316   5.099   8.363
60941SOL    HW184720   7.262   5.040   8.415
60941SOL    HW284721   7.342   5.047   8.287
60942SOL     OW84722   5.576  12.888   3.794
60942SOL    HW184723   5.488  12.855   3.808
60942SOL    HW284724   5.614  12.829   3.729
60943SOL     OW84725   7.079   6.178   8.394
60943SOL    HW184726   7.149   6.156   8.456
60943SOL    HW284727   7.013   6.221   8.447
60944SOL     OW84728  13.093   5.931   8.068
60944SOL    HW184729  13.116   5.838   8.063
60944SOL    HW284730  13.106   5.954   8.160
60945SOL     OW84731   8.293   5.289   2.807
60945SOL    HW184732   8.314   5.245   2.724
60945SOL    HW284733   8.372   5.277   2.860
60946SOL     OW84734  14.022   9.969   6.547
60946SOL    HW184735  14.058   9.987   6.634
60946SOL    HW284736  14.029  10.052   6.501
60947SOL     OW84737   3.280   3.653   2.365
60947SOL    HW184738   3.239   3.567   2.353
60947SOL    HW284739   3.324   3.647   2.450
60948SOL     OW84740   0.598  10.300  13.146
60948SOL    HW184741   0.526  10.245  13.114
60948SOL    HW284742   0.614  10.361  13.074
60949SOL     OW84743   0.778   2.106   9.539
60949SOL    HW184744   0.724   2.073   9.467
60949SOL    HW284745   0.774   2.038   9.606
60950SOL     OW84746  14.338   3.695   4.844
60950SOL    HW184747  14.323   3.624   4.906
60950SOL    HW284748  14.251   3.711   4.806
60951SOL     OW84749   3.266   4.030  13.974
60951SOL    HW184750   3.269   4.001  13.883
60951SOL    HW284751   3.214   4.111  13.972
60952SOL     OW84752  14.434   2.249   3.952
60952SOL    HW184753  14.422   2.181   4.018
60952SOL    HW284754  14.527   2.244   3.929
60953SOL     OW84755   8.077  12.145   9.393
60953SOL    HW184756   8.002  12.108   9.348
60953SOL    HW284757   8.151  12.125   9.336
60954SOL     OW84758  11.338   1.057   9.705
60954SOL    HW184759  11.357   0.974   9.749
60954SOL    HW284760  11.357   1.040   9.612
60955SOL     OW84761  10.682   0.869   6.123
60955SOL    HW184762  10.678   0.936   6.191
60955SOL    HW284763  10.765   0.885   6.078
60956SOL     OW84764   6.077   5.614   1.226
60956SOL    HW184765   6.100   5.564   1.305
60956SOL    HW284766   6.149   5.677   1.216
60957SOL     OW84767   3.588  13.943   9.990
60957SOL    HW184768   3.496  13.917  10.001
60957SOL    HW284769   3.619  13.962  10.078
60958SOL     OW84770   6.086   4.848   1.795
60958SOL    HW184771   6.133   4.882   1.871
60958SOL    HW284772   6.138   4.876   1.719
60959SOL     OW84773  14.014   3.577   2.397
60959SOL    HW184774  14.101   3.604   2.426
60959SOL    HW284775  14.027   3.490   2.359
60960SOL     OW84776   7.380  14.039  12.576
60960SOL    HW184777   7.434  14.021  12.653
60960SOL    HW284778   7.292  14.011  12.601
60961SOL     OW84779   2.805   2.459   8.769
60961SOL    HW184780   2.848   2.544   8.763
60961SOL    HW284781   2.870   2.397   8.737
60962SOL     OW84782   5.759   0.500  10.494
60962SOL    HW184783   5.671   0.509  10.532
60962SOL    HW284784   5.746   0.446  10.417
60963SOL     OW84785   8.852   4.192   4.791
60963SOL    HW184786   8.763   4.171   4.818
60963SOL    HW284787   8.908   4.156   4.860
60964SOL     OW84788  13.379  12.786   3.178
60964SOL    HW184789  13.301  12.738   3.148
60964SOL    HW284790  13.389  12.856   3.114
60965SOL     OW84791   9.834   9.043   3.265
60965SOL    HW184792   9.859   9.123   3.313
60965SOL    HW284793   9.917   8.998   3.250
60966SOL     OW84794  14.336   2.831   4.598
60966SOL    HW184795  14.248   2.866   4.603
60966SOL    HW284796  14.350   2.813   4.505
60967SOL     OW84797   7.252   3.077   9.990
60967SOL    HW184798   7.271   2.990   9.955
60967SOL    HW284799   7.314   3.089  10.061
60968SOL     OW84800   8.191   1.805   4.247
60968SOL    HW184801   8.237   1.881   4.211
60968SOL    HW284802   8.257   1.736   4.248
60969SOL     OW84803   1.328   3.479  10.589
60969SOL    HW184804   1.371   3.564  10.603
60969SOL    HW284805   1.396   3.424  10.552
60970SOL     OW84806   4.837  11.613   0.341
60970SOL    HW184807   4.797  11.545   0.395
60970SOL    HW284808   4.803  11.695   0.377
60971SOL     OW84809   1.933   6.626   9.458
60971SOL    HW184810   1.942   6.582   9.374
60971SOL    HW284811   2.014   6.605   9.505
60972SOL     OW84812  14.288   0.092   2.802
60972SOL    HW184813  14.319   0.045   2.880
60972SOL    HW284814  14.357   0.078   2.737
60973SOL     OW84815   4.299  12.332   7.814
60973SOL    HW184816   4.340  12.417   7.799
60973SOL    HW284817   4.370  12.276   7.844
60974SOL     OW84818  10.972  10.234   3.033
60974SOL    HW184819  11.027  10.237   2.955
60974SOL    HW284820  10.961  10.141   3.053
60975SOL     OW84821  14.774   8.391   0.402
60975SOL    HW184822  14.716   8.467   0.404
60975SOL    HW284823  14.755   8.348   0.319
60976SOL     OW84824  14.476   3.376   8.523
60976SOL    HW184825  14.394   3.392   8.569
60976SOL    HW284826  14.497   3.459   8.481
60977SOL     OW84827   5.049   3.681   5.820
60977SOL    HW184828   5.073   3.774   5.810
60977SOL    HW284829   4.971   3.682   5.875
60978SOL     OW84830   6.928  10.125   7.379
60978SOL    HW184831   7.003  10.066   7.386
60978SOL    HW284832   6.964  10.211   7.399
60979SOL     OW84833  13.605   0.141   0.128
60979SOL    HW184834  13.516   0.161   0.157
60979SOL    HW284835  13.661   0.168   0.202
60980SOL     OW84836   4.772   6.048  10.311
60980SOL    HW184837   4.833   6.120  10.329
60980SOL    HW284838   4.822   5.969  10.332
60981SOL     OW84839   0.835  10.645  13.917
60981SOL    HW184840   0.924  10.642  13.883
60981SOL    HW284841   0.786  10.582  13.864
60982SOL     OW84842   3.667   3.756  11.305
60982SOL    HW184843   3.596   3.701  11.272
60982SOL    HW284844   3.736   3.749  11.239
60983SOL     OW84845  13.917   2.243   8.034
60983SOL    HW184846  13.827   2.218   8.052
60983SOL    HW284847  13.952   2.270   8.119
60984SOL     OW84848   4.952   7.087  14.850
60984SOL    HW184849   5.000   7.034  14.786
60984SOL    HW284850   4.879   7.125  14.801
60985SOL     OW84851  12.161   8.384   0.831
60985SOL    HW184852  12.215   8.463   0.830
60985SOL    HW284853  12.216   8.319   0.875
60986SOL     OW84854   6.870  14.571   6.447
60986SOL    HW184855   6.954  14.609   6.418
60986SOL    HW284856   6.844  14.515   6.375
60987SOL     OW84857   9.373   8.987  11.344
60987SOL    HW184858   9.360   8.930  11.420
60987SOL    HW284859   9.311   9.058  11.356
60988SOL     OW84860  12.466  12.015  13.478
60988SOL    HW184861  12.384  12.029  13.526
60988SOL    HW284862  12.442  12.023  13.386
60989SOL     OW84863   4.977  14.626   9.430
60989SOL    HW184864   4.990  14.636   9.335
60989SOL    HW284865   4.890  14.589   9.439
60990SOL     OW84866   4.186  12.090   2.978
60990SOL    HW184867   4.272  12.062   2.946
60990SOL    HW284868   4.195  12.183   2.995
60991SOL     OW84869   1.247   8.863   9.362
60991SOL    HW184870   1.325   8.918   9.351
60991SOL    HW284871   1.248   8.805   9.287
60992SOL     OW84872  12.292   3.918   1.287
60992SOL    HW184873  12.286   3.830   1.325
60992SOL    HW284874  12.369   3.957   1.328
60993SOL     OW84875   3.331  14.360  12.082
60993SOL    HW184876   3.306  14.412  12.006
60993SOL    HW284877   3.255  14.364  12.140
60994SOL     OW84878  11.926  14.728  13.690
60994SOL    HW184879  11.897  14.715  13.600
60994SOL    HW284880  11.846  14.749  13.738
60995SOL     OW84881  12.486  11.576   9.764
60995SOL    HW184882  12.400  11.587   9.804
60995SOL    HW284883  12.503  11.482   9.767
60996SOL     OW84884   5.526   7.960  12.933
60996SOL    HW184885   5.591   8.023  12.904
60996SOL    HW284886   5.565   7.875  12.915
60997SOL     OW84887   8.204  11.604   4.501
60997SOL    HW184888   8.278  11.604   4.562
60997SOL    HW284889   8.227  11.538   4.436
60998SOL     OW84890   9.254  11.681   0.020
60998SOL    HW184891   9.193  11.639  14.838
60998SOL    HW284892   9.213  11.764   0.043
60999SOL     OW84893   6.312  13.639   5.929
60999SOL    HW184894   6.379  13.680   5.875
60999SOL    HW284895   6.285  13.561   5.879
61000SOL     OW84896   9.774  10.200   1.563
61000SOL    HW184897   9.854  10.186   1.513
61000SOL    HW284898   9.706  10.150   1.517
61001SOL     OW84899  12.536   1.640   9.542
61001SOL    HW184900  12.609   1.694   9.512
61001SOL    HW284901  12.559   1.617   9.632
61002SOL     OW84902  13.415   6.692   3.536
61002SOL    HW184903  13.425   6.629   3.466
61002SOL    HW284904  13.462   6.770   3.506
61003SOL     OW84905   5.521   9.439  10.848
61003SOL    HW184906   5.459   9.370  10.824
61003SOL    HW284907   5.606   9.408  10.815
61004SOL     OW84908   0.216   4.191  13.352
61004SOL    HW184909   0.274   4.252  13.398
61004SOL    HW284910   0.274   4.120  13.323
61005SOL     OW84911   2.082  12.637   4.653
61005SOL    HW184912   2.073  12.648   4.558
61005SOL    HW284913   2.177  12.634   4.667
61006SOL     OW84914   4.483  11.623   0.499
61006SOL    HW184915   4.540  11.689   0.458
61006SOL    HW284916   4.437  11.671   0.568
61007SOL     OW84917   1.592   0.173   2.314
61007SOL    HW184918   1.659   0.217   2.261
61007SOL    HW284919   1.529   0.242   2.336
61008SOL     OW84920   8.942   0.362   0.166
61008SOL    HW184921   8.928   0.346   0.259
61008SOL    HW284922   8.969   0.277   0.131
61009SOL     OW84923   0.275   9.899   9.028
61009SOL    HW184924   0.202   9.874   9.085
61009SOL    HW284925   0.274   9.834   8.957
61010SOL     OW84926   9.338   5.361   8.766
61010SOL    HW184927   9.299   5.434   8.813
61010SOL    HW284928   9.383   5.310   8.833
61011SOL     OW84929  13.757   7.326   2.178
61011SOL    HW184930  13.752   7.385   2.102
61011SOL    HW284931  13.673   7.280   2.178
61012SOL     OW84932   7.880   9.751   3.081
61012SOL    HW184933   7.888   9.716   3.170
61012SOL    HW284934   7.796   9.715   3.049
61013SOL     OW84935   7.182   3.448   1.312
61013SOL    HW184936   7.136   3.374   1.351
61013SOL    HW284937   7.273   3.438   1.343
61014SOL     OW84938   3.138  12.411   7.177
61014SOL    HW184939   3.138  12.340   7.112
61014SOL    HW284940   3.230  12.421   7.201
61015SOL     OW84941   7.361   9.243   2.252
61015SOL    HW184942   7.305   9.216   2.179
61015SOL    HW284943   7.317   9.209   2.330
61016SOL     OW84944  12.665  12.674  11.636
61016SOL    HW184945  12.658  12.712  11.724
61016SOL    HW284946  12.584  12.624  11.625
61017SOL     OW84947   6.107   9.020  13.375
61017SOL    HW184948   6.045   9.062  13.435
61017SOL    HW284949   6.189   9.065  13.391
61018SOL     OW84950  13.977   3.020   1.377
61018SOL    HW184951  14.017   2.955   1.319
61018SOL    HW284952  13.937   3.084   1.317
61019SOL     OW84953   9.338  14.054  14.150
61019SOL    HW184954   9.306  13.965  14.137
61019SOL    HW284955   9.281  14.108  14.094
61020SOL     OW84956   7.855  11.094   0.859
61020SOL    HW184957   7.930  11.110   0.917
61020SOL    HW284958   7.842  10.999   0.861
61021SOL     OW84959   9.022  12.269   3.971
61021SOL    HW184960   9.068  12.206   4.026
61021SOL    HW284961   8.968  12.216   3.913
61022SOL     OW84962   7.198   3.724   5.927
61022SOL    HW184963   7.145   3.645   5.929
61022SOL    HW284964   7.286   3.694   5.907
61023SOL     OW84965   4.967   0.126   9.788
61023SOL    HW184966   4.888   0.074   9.773
61023SOL    HW284967   5.008   0.131   9.701
61024SOL     OW84968   6.925  13.297  10.271
61024SOL    HW184969   6.944  13.277  10.180
61024SOL    HW284970   6.978  13.375  10.291
61025SOL     OW84971   8.836  11.788   1.501
61025SOL    HW184972   8.773  11.802   1.571
61025SOL    HW284973   8.821  11.697   1.473
61026SOL     OW84974   2.726   3.919   0.390
61026SOL    HW184975   2.664   3.988   0.364
61026SOL    HW284976   2.812   3.960   0.380
61027SOL     OW84977   2.144   6.162  13.761
61027SOL    HW184978   2.184   6.248  13.748
61027SOL    HW284979   2.215   6.108  13.797
61028SOL     OW84980   3.954  12.344   5.940
61028SOL    HW184981   4.004  12.423   5.961
61028SOL    HW284982   3.880  12.346   6.001
61029SOL     OW84983   1.737   5.244   6.528
61029SOL    HW184984   1.755   5.150   6.523
61029SOL    HW284985   1.782   5.273   6.607
61030SOL     OW84986   4.076  11.256   0.136
61030SOL    HW184987   4.047  11.347   0.136
61030SOL    HW284988   3.994  11.206   0.137
61031SOL     OW84989   0.600   6.484   0.156
61031SOL    HW184990   0.566   6.568   0.125
61031SOL    HW284991   0.544   6.461   0.230
61032SOL     OW84992   3.511   5.929  14.311
61032SOL    HW184993   3.468   5.923  14.226
61032SOL    HW284994   3.589   5.874  14.303
61033SOL     OW84995   7.711   0.913  11.766
61033SOL    HW184996   7.617   0.930  11.768
61033SOL    HW284997   7.748   0.986  11.717
61034SOL     OW84998   2.298  13.090   7.548
61034SOL    HW184999   2.373  13.031   7.542
61034SOL    HW285000   2.222  13.036   7.526
61035SOL     OW85001   0.367   1.452   7.281
61035SOL    HW185002   0.400   1.403   7.356
61035SOL    HW285003   0.398   1.541   7.295
61036SOL     OW85004   4.363  14.135   5.560
61036SOL    HW185005   4.359  14.224   5.594
61036SOL    HW285006   4.313  14.139   5.478
61037SOL     OW85007  10.308  12.968   4.813
61037SOL    HW185008  10.397  12.957   4.780
61037SOL    HW285009  10.313  13.046   4.869
61038SOL     OW85010   1.725   0.943   7.572
61038SOL    HW185011   1.645   0.897   7.547
61038SOL    HW285012   1.703   1.036   7.562
61039SOL     OW85013  10.592   0.638   7.730
61039SOL    HW185014  10.585   0.663   7.822
61039SOL    HW285015  10.510   0.590   7.712
61040SOL     OW85016   6.820   5.711   5.081
61040SOL    HW185017   6.756   5.747   5.019
61040SOL    HW285018   6.895   5.689   5.026
61041SOL     OW85019  10.529   7.293   3.148
61041SOL    HW185020  10.548   7.387   3.151
61041SOL    HW285021  10.613   7.252   3.129
61042SOL     OW85022   0.214  12.273   1.520
61042SOL    HW185023   0.217  12.312   1.432
61042SOL    HW285024   0.293  12.220   1.526
61043SOL     OW85025   2.071   0.448   8.059
61043SOL    HW185026   2.098   0.515   7.997
61043SOL    HW285027   2.073   0.366   8.009
61044SOL     OW85028   0.138   3.304   5.431
61044SOL    HW185029   0.182   3.382   5.467
61044SOL    HW285030   0.051   3.336   5.406
61045SOL     OW85031  10.763  14.068   1.686
61045SOL    HW185032  10.856  14.061   1.664
61045SOL    HW285033  10.744  13.988   1.735
61046SOL     OW85034   0.156   9.260   5.449
61046SOL    HW185035   0.193   9.190   5.504
61046SOL    HW285036   0.223   9.276   5.383
61047SOL     OW85037   5.216   3.481  10.529
61047SOL    HW185038   5.311   3.480  10.515
61047SOL    HW285039   5.184   3.404  10.482
61048SOL     OW85040  10.967   2.768   8.752
61048SOL    HW185041  10.877   2.798   8.765
61048SOL    HW285042  10.958   2.675   8.730
61049SOL     OW85043  10.882   0.845  13.115
61049SOL    HW185044  10.817   0.800  13.168
61049SOL    HW285045  10.957   0.785  13.112
61050SOL     OW85046   5.360   3.020   5.222
61050SOL    HW185047   5.329   2.950   5.165
61050SOL    HW285048   5.357   3.098   5.167
61051SOL     OW85049   3.283   1.734   1.732
61051SOL    HW185050   3.344   1.680   1.782
61051SOL    HW285051   3.200   1.726   1.779
61052SOL     OW85052  13.169  13.813  10.954
61052SOL    HW185053  13.256  13.796  10.918
61052SOL    HW285054  13.139  13.891  10.907
61053SOL     OW85055  11.250   4.821   7.280
61053SOL    HW185056  11.315   4.769   7.327
61053SOL    HW285057  11.217   4.883   7.345
61054SOL     OW85058  14.635   8.117   0.284
61054SOL    HW185059  14.675   8.166   0.213
61054SOL    HW285060  14.709   8.081   0.333
61055SOL     OW85061   3.071   6.663   9.456
61055SOL    HW185062   3.016   6.659   9.378
61055SOL    HW285063   3.148   6.713   9.428
61056SOL     OW85064   9.208   4.341   9.684
61056SOL    HW185065   9.258   4.289   9.622
61056SOL    HW285066   9.160   4.277   9.736
61057SOL     OW85067   6.120   2.944   1.490
61057SOL    HW185068   6.199   2.898   1.464
61057SOL    HW285069   6.083   2.979   1.409
61058SOL     OW85070  11.162   6.724   2.971
61058SOL    HW185071  11.122   6.713   3.057
61058SOL    HW285072  11.123   6.656   2.917
61059SOL     OW85073  12.335  14.637  13.227
61059SOL    HW185074  12.285  14.577  13.283
61059SOL    HW285075  12.421  14.596  13.218
61060SOL     OW85076   3.042   1.104   8.339
61060SOL    HW185077   3.008   1.193   8.327
61060SOL    HW285078   3.135   1.111   8.316
61061SOL     OW85079  13.964   8.349   4.217
61061SOL    HW185080  13.959   8.281   4.284
61061SOL    HW285081  13.877   8.390   4.218
61062SOL     OW85082  11.854   5.076   0.435
61062SOL    HW185083  11.822   5.104   0.349
61062SOL    HW285084  11.948   5.091   0.433
61063SOL     OW85085   8.022   4.037   8.264
61063SOL    HW185086   8.003   3.970   8.198
61063SOL    HW285087   7.986   4.118   8.226
61064SOL     OW85088  14.602  11.117   5.793
61064SOL    HW185089  14.539  11.048   5.813
61064SOL    HW285090  14.685  11.083   5.827
61065SOL     OW85091   4.919   7.023   3.569
61065SOL    HW185092   4.840   6.995   3.616
61065SOL    HW285093   4.915   6.977   3.486
61066SOL     OW85094   7.236   6.864   4.773
61066SOL    HW185095   7.332   6.858   4.772
61066SOL    HW285096   7.212   6.874   4.681
61067SOL     OW85097   5.214   2.007   2.730
61067SOL    HW185098   5.128   2.034   2.696
61067SOL    HW285099   5.194   1.938   2.793
61068SOL     OW85100   2.409   0.717   2.640
61068SOL    HW185101   2.447   0.779   2.578
61068SOL    HW285102   2.465   0.639   2.634
61069SOL     OW85103  11.994   3.154   3.081
61069SOL    HW185104  11.994   3.110   3.166
61069SOL    HW285105  11.952   3.238   3.097
61070SOL     OW85106   4.745  11.468   6.481
61070SOL    HW185107   4.786  11.447   6.565
61070SOL    HW285108   4.809  11.438   6.416
61071SOL     OW85109  10.807   2.225   6.152
61071SOL    HW185110  10.857   2.269   6.221
61071SOL    HW285111  10.721   2.267   6.154
61072SOL     OW85112   1.730  10.863   7.794
61072SOL    HW185113   1.663  10.880   7.728
61072SOL    HW285114   1.685  10.877   7.878
61073SOL     OW85115   1.647   9.546   1.100
61073SOL    HW185116   1.732   9.504   1.110
61073SOL    HW285117   1.621   9.529   1.010
61074SOL     OW85118  14.618   9.536   4.095
61074SOL    HW185119  14.578   9.503   4.176
61074SOL    HW285120  14.582   9.480   4.026
61075SOL     OW85121   0.582  14.068   0.189
61075SOL    HW185122   0.505  14.011   0.182
61075SOL    HW285123   0.656  14.008   0.182
61076SOL     OW85124   2.005  12.108  10.223
61076SOL    HW185125   2.064  12.163  10.172
61076SOL    HW285126   2.056  12.029  10.242
61077SOL     OW85127   9.791   2.755  12.858
61077SOL    HW185128   9.739   2.830  12.887
61077SOL    HW285129   9.740   2.715  12.789
61078SOL     OW85130  12.347   3.068  11.833
61078SOL    HW185131  12.389   3.083  11.748
61078SOL    HW285132  12.406   3.109  11.896
61079SOL     OW85133   5.379   7.102  14.775
61079SOL    HW185134   5.474   7.089  14.785
61079SOL    HW285135   5.359   7.175  14.833
61080SOL     OW85136   4.083   2.170   2.132
61080SOL    HW185137   4.083   2.182   2.037
61080SOL    HW285138   4.029   2.242   2.165
61081SOL     OW85139   4.974  10.637   2.426
61081SOL    HW185140   5.012  10.565   2.476
61081SOL    HW285141   4.947  10.597   2.343
61082SOL     OW85142   7.781  10.729  11.946
61082SOL    HW185143   7.800  10.821  11.959
61082SOL    HW285144   7.826  10.684  12.017
61083SOL     OW85145   4.564   4.662   2.956
61083SOL    HW185146   4.641   4.643   2.902
61083SOL    HW285147   4.490   4.630   2.904
61084SOL     OW85148   6.989   7.678   3.140
61084SOL    HW185149   7.040   7.623   3.081
61084SOL    HW285150   6.934   7.731   3.081
61085SOL     OW85151   8.110   9.544   2.757
61085SOL    HW185152   8.017   9.559   2.771
61085SOL    HW285153   8.152   9.626   2.783
61086SOL     OW85154  11.047   2.998  10.294
61086SOL    HW185155  11.107   2.957  10.356
61086SOL    HW285156  11.043   2.935  10.222
61087SOL     OW85157   8.832   6.811   4.763
61087SOL    HW185158   8.847   6.882   4.826
61087SOL    HW285159   8.743   6.780   4.781
61088SOL     OW85160   3.482  11.891   8.307
61088SOL    HW185161   3.474  11.939   8.225
61088SOL    HW285162   3.531  11.813   8.284
61089SOL     OW85163   2.744   6.518  12.132
61089SOL    HW185164   2.656   6.496  12.164
61089SOL    HW285165   2.741   6.497  12.038
61090SOL     OW85166   2.228  11.546   1.620
61090SOL    HW185167   2.242  11.614   1.554
61090SOL    HW285168   2.263  11.583   1.701
61091SOL     OW85169   5.495   8.243   1.552
61091SOL    HW185170   5.507   8.164   1.605
61091SOL    HW285171   5.527   8.218   1.465
61092SOL     OW85172   2.503   5.071   6.794
61092SOL    HW185173   2.577   5.093   6.851
61092SOL    HW285174   2.466   5.156   6.769
61093SOL     OW85175   4.476   5.596   2.851
61093SOL    HW185176   4.524   5.553   2.922
61093SOL    HW285177   4.409   5.533   2.826
61094SOL     OW85178   2.725   0.794  13.102
61094SOL    HW185179   2.753   0.722  13.159
61094SOL    HW285180   2.804   0.848  13.091
61095SOL     OW85181   0.420   5.404   7.636
61095SOL    HW185182   0.328   5.419   7.658
61095SOL    HW285183   0.435   5.312   7.658
61096SOL     OW85184  11.797  10.403   3.053
61096SOL    HW185185  11.882  10.447   3.055
61096SOL    HW285186  11.814  10.318   3.096
61097SOL     OW85187   3.740   0.110   1.352
61097SOL    HW185188   3.684   0.083   1.279
61097SOL    HW285189   3.765   0.200   1.331
61098SOL     OW85190   1.154  11.056  11.728
61098SOL    HW185191   1.227  11.034  11.670
61098SOL    HW285192   1.138  11.149  11.713
61099SOL     OW85193   3.435  13.815   5.273
61099SOL    HW185194   3.423  13.808   5.368
61099SOL    HW285195   3.419  13.727   5.240
61100SOL     OW85196   2.010   5.801   8.711
61100SOL    HW185197   2.069   5.805   8.635
61100SOL    HW285198   1.958   5.881   8.705
61101SOL     OW85199  10.408   3.187   7.071
61101SOL    HW185200  10.324   3.232   7.080
61101SOL    HW285201  10.410   3.124   7.144
61102SOL     OW85202   6.068  14.353   3.113
61102SOL    HW185203   6.045  14.372   3.022
61102SOL    HW285204   6.014  14.413   3.164
61103SOL     OW85205  11.873  12.448   9.205
61103SOL    HW185206  11.834  12.494   9.131
61103SOL    HW285207  11.868  12.355   9.181
61104SOL     OW85208   9.773  13.290   7.654
61104SOL    HW185209   9.866  13.304   7.674
61104SOL    HW285210   9.736  13.378   7.650
61105SOL     OW85211   9.174   4.069  12.550
61105SOL    HW185212   9.264   4.034  12.550
61105SOL    HW285213   9.153   4.078  12.457
61106SOL     OW85214   9.746   8.282  13.822
61106SOL    HW185215   9.655   8.279  13.852
61106SOL    HW285216   9.784   8.200  13.855
61107SOL     OW85217   1.079  12.636   9.728
61107SOL    HW185218   1.055  12.715   9.776
61107SOL    HW285219   1.156  12.662   9.677
61108SOL     OW85220   0.599   6.729   5.302
61108SOL    HW185221   0.517   6.687   5.326
61108SOL    HW285222   0.604   6.806   5.359
61109SOL     OW85223   1.359  10.043   5.167
61109SOL    HW185224   1.369  10.101   5.242
61109SOL    HW285225   1.280  10.075   5.122
61110SOL     OW85226   9.610   3.402   1.837
61110SOL    HW185227   9.634   3.494   1.843
61110SOL    HW285228   9.628   3.366   1.924
61111SOL     OW85229   7.725   6.460   7.026
61111SOL    HW185230   7.708   6.539   6.975
61111SOL    HW285231   7.772   6.402   6.965
61112SOL     OW85232  13.173   5.474  10.294
61112SOL    HW185233  13.260   5.508  10.272
61112SOL    HW285234  13.118   5.552  10.299
61113SOL     OW85235   8.855   5.637   6.354
61113SOL    HW185236   8.849   5.592   6.439
61113SOL    HW285237   8.924   5.590   6.308
61114SOL     OW85238  12.265   8.205   3.628
61114SOL    HW185239  12.312   8.253   3.560
61114SOL    HW285240  12.329   8.142   3.662
61115SOL     OW85241   9.914  11.986   0.193
61115SOL    HW185242   9.940  11.912   0.248
61115SOL    HW285243   9.818  11.984   0.194
61116SOL     OW85244   0.360   1.377   3.897
61116SOL    HW185245   0.268   1.397   3.913
61116SOL    HW285246   0.369   1.285   3.921
61117SOL     OW85247   1.204  10.549   5.419
61117SOL    HW185248   1.275  10.565   5.357
61117SOL    HW285249   1.248  10.531   5.502
61118SOL     OW85250  10.540  12.437   8.062
61118SOL    HW185251  10.627  12.437   8.103
61118SOL    HW285252  10.540  12.362   8.003
61119SOL     OW85253   1.178   3.413   5.313
61119SOL    HW185254   1.221   3.390   5.230
61119SOL    HW285255   1.150   3.504   5.301
61120SOL     OW85256   6.358  14.402  12.172
61120SOL    HW185257   6.428  14.351  12.213
61120SOL    HW285258   6.318  14.341  12.109
61121SOL     OW85259  10.391  13.124   9.181
61121SOL    HW185260  10.479  13.085   9.187
61121SOL    HW285261  10.353  13.110   9.268
61122SOL     OW85262   2.407  13.912   6.052
61122SOL    HW185263   2.420  13.967   5.975
61122SOL    HW285264   2.313  13.890   6.050
61123SOL     OW85265   3.615  12.074   8.521
61123SOL    HW185266   3.587  12.158   8.485
61123SOL    HW285267   3.574  12.008   8.465
61124SOL     OW85268   3.417   0.927  13.105
61124SOL    HW185269   3.385   0.861  13.043
61124SOL    HW285270   3.508   0.943  13.078
61125SOL     OW85271  13.410  10.312   9.158
61125SOL    HW185272  13.487  10.293   9.212
61125SOL    HW285273  13.335  10.295   9.214
61126SOL     OW85274   9.575   7.507   7.193
61126SOL    HW185275   9.577   7.505   7.098
61126SOL    HW285276   9.550   7.419   7.219
61127SOL     OW85277  11.989   8.073   1.081
61127SOL    HW185278  12.006   8.139   1.148
61127SOL    HW285279  11.898   8.047   1.094
61128SOL     OW85280  14.416   5.030  12.439
61128SOL    HW185281  14.458   5.107  12.476
61128SOL    HW285282  14.322   5.044  12.453
61129SOL     OW85283   9.386   3.965  12.117
61129SOL    HW185284   9.333   3.897  12.159
61129SOL    HW285285   9.381   3.945  12.023
61130SOL     OW85286   8.697   5.640  12.477
61130SOL    HW185287   8.642   5.602  12.545
61130SOL    HW285288   8.666   5.601  12.396
61131SOL     OW85289   9.965   8.027   7.633
61131SOL    HW185290   9.884   8.013   7.683
61131SOL    HW285291   9.936   8.030   7.541
61132SOL     OW85292   7.839   3.653  11.077
61132SOL    HW185293   7.825   3.561  11.098
61132SOL    HW285294   7.918   3.677  11.126
61133SOL     OW85295  11.260  12.032  13.756
61133SOL    HW185296  11.286  12.064  13.670
61133SOL    HW285297  11.330  12.061  13.815
61134SOL     OW85298   0.704  13.917   8.306
61134SOL    HW185299   0.766  13.990   8.304
61134SOL    HW285300   0.749  13.846   8.259
61135SOL     OW85301  12.654  10.160  14.134
61135SOL    HW185302  12.660  10.252  14.108
61135SOL    HW285303  12.598  10.120  14.068
61136SOL     OW85304  12.878   4.392   7.093
61136SOL    HW185305  12.943   4.331   7.061
61136SOL    HW285306  12.818   4.339   7.146
61137SOL     OW85307  14.574   6.493   1.793
61137SOL    HW185308  14.666   6.477   1.815
61137SOL    HW285309  14.564   6.588   1.801
61138SOL     OW85310   2.626   7.257  13.864
61138SOL    HW185311   2.714   7.287  13.888
61138SOL    HW285312   2.641   7.173  13.820
61139SOL     OW85313  13.317   9.061  10.113
61139SOL    HW185314  13.289   8.976  10.149
61139SOL    HW285315  13.322   9.119  10.189
61140SOL     OW85316  11.646   1.292   9.160
61140SOL    HW185317  11.719   1.353   9.169
61140SOL    HW285318  11.678   1.224   9.102
61141SOL     OW85319   7.746  11.423   5.313
61141SOL    HW185320   7.656  11.399   5.333
61141SOL    HW285321   7.782  11.454   5.396
61142SOL     OW85322  12.758  14.096   4.380
61142SOL    HW185323  12.677  14.045   4.384
61142SOL    HW285324  12.729  14.187   4.387
61143SOL     OW85325   6.870   8.955   7.798
61143SOL    HW185326   6.872   8.906   7.716
61143SOL    HW285327   6.777   8.970   7.815
61144SOL     OW85328   5.694   1.593   1.557
61144SOL    HW185329   5.654   1.618   1.473
61144SOL    HW285330   5.778   1.638   1.559
61145SOL     OW85331   4.832  10.338   2.211
61145SOL    HW185332   4.838  10.430   2.188
61145SOL    HW285333   4.772  10.336   2.286
61146SOL     OW85334  14.432   6.792  12.135
61146SOL    HW185335  14.347   6.755  12.113
61146SOL    HW285336  14.426   6.884  12.109
61147SOL     OW85337   7.172  10.119  13.950
61147SOL    HW185338   7.088  10.111  13.906
61147SOL    HW285339   7.233  10.073  13.892
61148SOL     OW85340   4.260  14.483   7.961
61148SOL    HW185341   4.282  14.401   7.917
61148SOL    HW285342   4.164  14.484   7.962
61149SOL     OW85343  12.834  14.125  14.677
61149SOL    HW185344  12.795  14.084  14.600
61149SOL    HW285345  12.929  14.124  14.660
61150SOL     OW85346   9.867   0.846   3.128
61150SOL    HW185347   9.959   0.870   3.138
61150SOL    HW285348   9.831   0.913   3.069
61151SOL     OW85349   4.835   6.992  12.366
61151SOL    HW185350   4.788   7.066  12.328
61151SOL    HW285351   4.770   6.944  12.416
61152SOL     OW85352   0.399   5.952   5.807
61152SOL    HW185353   0.409   5.968   5.900
61152SOL    HW285354   0.382   6.038   5.769
61153SOL     OW85355   2.256   4.383   4.681
61153SOL    HW185356   2.258   4.477   4.698
61153SOL    HW285357   2.294   4.344   4.760
61154SOL     OW85358   6.351   5.733   4.539
61154SOL    HW185359   6.393   5.721   4.453
61154SOL    HW285360   6.263   5.763   4.518
61155SOL     OW85361   5.301  14.019   7.024
61155SOL    HW185362   5.291  13.970   6.942
61155SOL    HW285363   5.393  14.044   7.027
61156SOL     OW85364  10.483   5.170  11.756
61156SOL    HW185365  10.443   5.104  11.700
61156SOL    HW285366  10.570   5.185  11.718
61157SOL     OW85367   1.902   0.368   7.504
61157SOL    HW185368   1.980   0.320   7.533
61157SOL    HW285369   1.936   0.453   7.475
61158SOL     OW85370   6.862  13.020   4.496
61158SOL    HW185371   6.885  13.111   4.513
61158SOL    HW285372   6.772  13.012   4.526
61159SOL     OW85373  10.811   9.787  11.462
61159SOL    HW185374  10.754   9.712  11.477
61159SOL    HW285375  10.757   9.863  11.484
61160SOL     OW85376   5.271   8.905   8.779
61160SOL    HW185377   5.246   8.984   8.731
61160SOL    HW285378   5.225   8.834   8.734
61161SOL     OW85379  14.281  11.650  11.666
61161SOL    HW185380  14.239  11.564  11.662
61161SOL    HW285381  14.215  11.707  11.707
61162SOL     OW85382  12.490  12.942   9.869
61162SOL    HW185383  12.408  12.894   9.866
61162SOL    HW285384  12.482  12.999   9.945
61163SOL     OW85385   3.208   2.293   9.192
61163SOL    HW185386   3.301   2.298   9.217
61163SOL    HW285387   3.205   2.327   9.103
61164SOL     OW85388  10.659   6.580   6.975
61164SOL    HW185389  10.676   6.615   6.888
61164SOL    HW285390  10.591   6.636   7.011
61165SOL     OW85391   1.287  11.762   6.817
61165SOL    HW185392   1.194  11.738   6.815
61165SOL    HW285393   1.286  11.856   6.834
61166SOL     OW85394   6.395   9.647  13.228
61166SOL    HW185395   6.452   9.629  13.153
61166SOL    HW285396   6.447   9.704  13.284
61167SOL     OW85397   6.274  10.845   7.774
61167SOL    HW185398   6.281  10.774   7.837
61167SOL    HW285399   6.311  10.810   7.693
61168SOL     OW85400   3.744   2.063   3.471
61168SOL    HW185401   3.708   2.147   3.498
61168SOL    HW285402   3.808   2.041   3.538
61169SOL     OW85403   2.808   5.472   1.172
61169SOL    HW185404   2.861   5.431   1.104
61169SOL    HW285405   2.800   5.405   1.240
61170SOL     OW85406  10.313  14.144  10.296
61170SOL    HW185407  10.404  14.144  10.268
61170SOL    HW285408  10.313  14.195  10.377
61171SOL     OW85409   0.662   4.763   5.223
61171SOL    HW185410   0.690   4.788   5.311
61171SOL    HW285411   0.743   4.767   5.171
61172SOL     OW85412   4.413   8.083   1.952
61172SOL    HW185413   4.503   8.074   1.984
61172SOL    HW285414   4.418   8.061   1.859
61173SOL     OW85415  14.221  13.083  11.107
61173SOL    HW185416  14.291  13.035  11.151
61173SOL    HW285417  14.243  13.077  11.014
61174SOL     OW85418   9.496   6.232   8.894
61174SOL    HW185419   9.554   6.186   8.834
61174SOL    HW285420   9.552   6.255   8.968
61175SOL     OW85421   1.120   9.876   6.979
61175SOL    HW185422   1.171   9.954   6.958
61175SOL    HW285423   1.184   9.805   6.979
61176SOL     OW85424   7.628  13.730   1.951
61176SOL    HW185425   7.702  13.711   1.892
61176SOL    HW285426   7.631  13.659   2.016
61177SOL     OW85427   5.480   1.499   2.480
61177SOL    HW185428   5.519   1.537   2.559
61177SOL    HW285429   5.489   1.567   2.414
61178SOL     OW85430  11.070   9.185   7.077
61178SOL    HW185431  10.979   9.210   7.093
61178SOL    HW285432  11.104   9.252   7.017
61179SOL     OW85433   4.213   0.324   2.966
61179SOL    HW185434   4.285   0.341   3.027
61179SOL    HW285435   4.221   0.393   2.900
61180SOL     OW85436  11.910  10.605   0.006
61180SOL    HW185437  11.921  10.699   0.023
61180SOL    HW285438  11.996  10.567   0.026
61181SOL     OW85439   3.414   4.184  11.527
61181SOL    HW185440   3.449   4.094  11.528
61181SOL    HW285441   3.330   4.178  11.572
61182SOL     OW85442   4.932   5.147   5.362
61182SOL    HW185443   4.873   5.072   5.359
61182SOL    HW285444   5.011   5.118   5.317
61183SOL     OW85445  12.428   1.037   9.898
61183SOL    HW185446  12.515   1.000   9.882
61183SOL    HW285447  12.430   1.122   9.853
61184SOL     OW85448  14.259  14.195  11.198
61184SOL    HW185449  14.187  14.255  11.216
61184SOL    HW285450  14.314  14.198  11.276
61185SOL     OW85451  13.140   5.037   7.998
61185SOL    HW185452  13.138   4.942   7.988
61185SOL    HW285453  13.052   5.060   8.028
61186SOL     OW85454   4.719   6.499  10.069
61186SOL    HW185455   4.640   6.444  10.070
61186SOL    HW285456   4.790   6.438  10.045
61187SOL     OW85457   7.826  13.972   9.933
61187SOL    HW185458   7.807  13.925   9.852
61187SOL    HW285459   7.829  14.064   9.907
61188SOL     OW85460   5.848   3.833   2.891
61188SOL    HW185461   5.869   3.904   2.952
61188SOL    HW285462   5.910   3.763   2.912
61189SOL     OW85463  10.674  11.777   2.410
61189SOL    HW185464  10.665  11.748   2.320
61189SOL    HW285465  10.717  11.862   2.403
61190SOL     OW85466   5.203  11.584   7.487
61190SOL    HW185467   5.220  11.655   7.424
61190SOL    HW285468   5.283  11.532   7.487
61191SOL     OW85469   3.981   6.020   5.826
61191SOL    HW185470   4.053   5.971   5.867
61191SOL    HW285471   3.983   5.992   5.734
61192SOL     OW85472  11.988   0.551   3.974
61192SOL    HW185473  11.957   0.474   3.926
61192SOL    HW285474  11.908   0.598   3.999
61193SOL     OW85475   0.472   9.930   8.033
61193SOL    HW185476   0.538   9.975   7.980
61193SOL    HW285477   0.521   9.896   8.108
61194SOL     OW85478   0.709   5.809   2.000
61194SOL    HW185479   0.727   5.837   1.910
61194SOL    HW285480   0.761   5.867   2.055
61195SOL     OW85481   1.193  10.397   7.896
61195SOL    HW185482   1.263  10.351   7.851
61195SOL    HW285483   1.124  10.331   7.907
61196SOL     OW85484   9.792   9.720   7.101
61196SOL    HW185485   9.733   9.788   7.133
61196SOL    HW285486   9.839   9.690   7.179
61197SOL     OW85487  11.257   9.602   6.722
61197SOL    HW185488  11.296   9.688   6.741
61197SOL    HW285489  11.168   9.609   6.757
61198SOL     OW85490   7.008   7.579   6.764
61198SOL    HW185491   6.933   7.608   6.711
61198SOL    HW285492   6.983   7.491   6.794
61199SOL     OW85493   8.073  11.619   2.522
61199SOL    HW185494   8.088  11.709   2.549
61199SOL    HW285495   8.102  11.617   2.430
61200SOL     OW85496  14.497   9.538  13.596
61200SOL    HW185497  14.519   9.602  13.528
61200SOL    HW285498  14.555   9.464  13.579
61201SOL     OW85499   4.009  13.577   4.763
61201SOL    HW185500   4.035  13.588   4.672
61201SOL    HW285501   3.922  13.616   4.769
61202SOL     OW85502  13.848  14.172   4.313
61202SOL    HW185503  13.752  14.183   4.310
61202SOL    HW285504  13.875  14.223   4.390
61203SOL     OW85505  13.951   8.526   5.585
61203SOL    HW185506  13.896   8.447   5.580
61203SOL    HW285507  13.939   8.558   5.675
61204SOL     OW85508   7.319   7.677   0.271
61204SOL    HW185509   7.247   7.648   0.215
61204SOL    HW285510   7.369   7.597   0.289
61205SOL     OW85511  10.692   9.378   1.835
61205SOL    HW185512  10.700   9.463   1.879
61205SOL    HW285513  10.682   9.399   1.743
61206SOL     OW85514   3.454   3.647   7.484
61206SOL    HW185515   3.366   3.614   7.502
61206SOL    HW285516   3.504   3.570   7.458
61207SOL     OW85517   1.835  13.505   2.012
61207SOL    HW185518   1.779  13.577   1.985
61207SOL    HW285519   1.835  13.445   1.937
61208SOL     OW85520   2.751  13.946   5.032
61208SOL    HW185521   2.748  14.002   4.955
61208SOL    HW285522   2.712  13.998   5.102
61209SOL     OW85523   1.018   4.395  10.993
61209SOL    HW185524   0.998   4.316  11.043
61209SOL    HW285525   0.994   4.373  10.903
61210SOL     OW85526   7.309  12.433   4.886
61210SOL    HW185527   7.378  12.445   4.821
61210SOL    HW285528   7.278  12.522   4.904
61211SOL     OW85529   5.774  10.596   6.211
61211SOL    HW185530   5.762  10.542   6.289
61211SOL    HW285531   5.819  10.538   6.149
61212SOL     OW85532   6.556   3.797   3.069
61212SOL    HW185533   6.607   3.753   3.137
61212SOL    HW285534   6.512   3.726   3.022
61213SOL     OW85535  10.246   8.161   6.557
61213SOL    HW185536  10.317   8.223   6.571
61213SOL    HW285537  10.197   8.162   6.640
61214SOL     OW85538   8.520  12.468  10.224
61214SOL    HW185539   8.432  12.431  10.223
61214SOL    HW285540   8.527  12.518  10.142
61215SOL     OW85541  11.685   4.787   5.547
61215SOL    HW185542  11.763   4.843   5.553
61215SOL    HW285543  11.720   4.698   5.544
61216SOL     OW85544  12.056   2.065   1.805
61216SOL    HW185545  12.086   2.026   1.888
61216SOL    HW285546  12.131   2.115   1.774
61217SOL     OW85547  13.486   0.683   8.566
61217SOL    HW185548  13.471   0.646   8.479
61217SOL    HW285549  13.581   0.693   8.572
61218SOL     OW85550  10.988   0.147   2.441
61218SOL    HW185551  11.055   0.184   2.498
61218SOL    HW285552  10.937   0.090   2.498
61219SOL     OW85553   8.692   7.240  14.555
61219SOL    HW185554   8.687   7.170  14.620
61219SOL    HW285555   8.631   7.307  14.586
61220SOL     OW85556   2.243   8.425  14.270
61220SOL    HW185557   2.220   8.432  14.362
61220SOL    HW285558   2.259   8.331  14.256
61221SOL     OW85559   4.060  10.243   6.870
61221SOL    HW185560   3.978  10.290   6.881
61221SOL    HW285561   4.041  10.178   6.802
61222SOL     OW85562   8.212  13.456   1.031
61222SOL    HW185563   8.231  13.362   1.041
61222SOL    HW285564   8.168  13.462   0.946
61223SOL     OW85565  10.567  11.893   4.734
61223SOL    HW185566  10.621  11.971   4.744
61223SOL    HW285567  10.482  11.917   4.772
61224SOL     OW85568  13.007   7.304   2.396
61224SOL    HW185569  12.937   7.243   2.418
61224SOL    HW285570  13.060   7.259   2.331
61225SOL     OW85571   4.618  11.564   0.899
61225SOL    HW185572   4.553  11.587   0.966
61225SOL    HW285573   4.593  11.476   0.871
61226SOL     OW85574   9.550   5.651  11.178
61226SOL    HW185575   9.637   5.611  11.171
61226SOL    HW285576   9.550   5.718  11.109
61227SOL     OW85577   4.036  10.965  13.793
61227SOL    HW185578   4.111  10.913  13.762
61227SOL    HW285579   3.976  10.902  13.830
61228SOL     OW85580   4.429   4.567   2.519
61228SOL    HW185581   4.351   4.568   2.464
61228SOL    HW285582   4.502   4.557   2.457
61229SOL     OW85583  13.561   5.108   8.466
61229SOL    HW185584  13.638   5.089   8.520
61229SOL    HW285585  13.494   5.135   8.528
61230SOL     OW85586  13.296  11.245   6.806
61230SOL    HW185587  13.218  11.218   6.759
61230SOL    HW285588  13.310  11.176   6.871
61231SOL     OW85589   9.921  14.197  14.698
61231SOL    HW185590   9.980  14.261  14.659
61231SOL    HW285591   9.878  14.155  14.624
61232SOL     OW85592   7.497  11.436   8.917
61232SOL    HW185593   7.441  11.514   8.920
61232SOL    HW285594   7.537  11.433   9.004
61233SOL     OW85595   0.127  12.889  12.412
61233SOL    HW185596   0.160  12.974  12.381
61233SOL    HW285597   0.140  12.830  12.338
61234SOL     OW85598   3.962   4.383   0.303
61234SOL    HW185599   3.997   4.294   0.303
61234SOL    HW285600   4.023   4.432   0.358
61235SOL     OW85601   1.571   6.053  11.712
61235SOL    HW185602   1.589   6.111  11.786
61235SOL    HW285603   1.646   6.065  11.653
61236SOL     OW85604  14.498   4.004  11.715
61236SOL    HW185605  14.534   3.944  11.650
61236SOL    HW285606  14.403   4.003  11.698
61237SOL     OW85607  11.736   1.875   7.851
61237SOL    HW185608  11.709   1.807   7.789
61237SOL    HW285609  11.747   1.829   7.934
61238SOL     OW85610   7.369   1.065  13.520
61238SOL    HW185611   7.366   1.149  13.565
61238SOL    HW285612   7.365   1.087  13.427
61239SOL     OW85613  10.361   8.157   5.546
61239SOL    HW185614  10.291   8.180   5.606
61239SOL    HW285615  10.391   8.241   5.511
61240SOL     OW85616  10.396  12.577   3.322
61240SOL    HW185617  10.394  12.486   3.352
61240SOL    HW285618  10.475  12.583   3.268
61241SOL     OW85619  13.902   8.448  10.143
61241SOL    HW185620  13.918   8.389  10.069
61241SOL    HW285621  13.946   8.529  10.118
61242SOL     OW85622   6.536   9.116  12.733
61242SOL    HW185623   6.604   9.184  12.735
61242SOL    HW285624   6.464   9.153  12.783
61243SOL     OW85625   7.110   0.679   5.759
61243SOL    HW185626   7.179   0.712   5.701
61243SOL    HW285627   7.120   0.584   5.755
61244SOL     OW85628  13.821   7.089  10.652
61244SOL    HW185629  13.892   7.029  10.628
61244SOL    HW285630  13.766   7.093  10.574
61245SOL     OW85631  10.518   8.310  12.056
61245SOL    HW185632  10.423   8.321  12.063
61245SOL    HW285633  10.531   8.215  12.054
61246SOL     OW85634   9.947   5.980  13.065
61246SOL    HW185635   9.871   5.925  13.047
61246SOL    HW285636   9.951   6.039  12.990
61247SOL     OW85637  11.021   9.094   2.095
61247SOL    HW185638  10.935   9.122   2.065
61247SOL    HW285639  11.031   9.134   2.181
61248SOL     OW85640   8.038   5.996  11.446
61248SOL    HW185641   8.076   6.067  11.498
61248SOL    HW285642   7.945   6.019  11.438
61249SOL     OW85643   5.289   9.248  11.591
61249SOL    HW185644   5.344   9.261  11.668
61249SOL    HW285645   5.296   9.330  11.542
61250SOL     OW85646  10.839   2.053  13.470
61250SOL    HW185647  10.880   2.012  13.394
61250SOL    HW285648  10.807   2.137  13.438
61251SOL     OW85649   7.511   4.158  13.148
61251SOL    HW185650   7.435   4.167  13.090
61251SOL    HW285651   7.506   4.068  13.180
61252SOL     OW85652   8.556   4.995   6.627
61252SOL    HW185653   8.479   5.014   6.574
61252SOL    HW285654   8.520   4.953   6.705
61253SOL     OW85655   9.896   9.298  11.435
61253SOL    HW185656   9.812   9.271  11.396
61253SOL    HW285657   9.929   9.365  11.376
61254SOL     OW85658   2.058   4.298   2.918
61254SOL    HW185659   2.020   4.281   2.831
61254SOL    HW285660   2.107   4.219   2.938
61255SOL     OW85661   1.192  11.246   4.034
61255SOL    HW185662   1.250  11.208   4.101
61255SOL    HW285663   1.183  11.337   4.060
61256SOL     OW85664   3.208  13.991   0.329
61256SOL    HW185665   3.189  13.930   0.258
61256SOL    HW285666   3.281  13.950   0.376
61257SOL     OW85667   7.144   8.722   6.570
61257SOL    HW185668   7.194   8.793   6.530
61257SOL    HW285669   7.194   8.698   6.648
61258SOL     OW85670  10.779   4.802   3.634
61258SOL    HW185671  10.796   4.744   3.559
61258SOL    HW285672  10.820   4.885   3.610
61259SOL     OW85673   2.927   0.980   4.268
61259SOL    HW185674   2.880   1.024   4.198
61259SOL    HW285675   2.859   0.949   4.327
61260SOL     OW85676   3.835   9.523   5.286
61260SOL    HW185677   3.751   9.513   5.240
61260SOL    HW285678   3.900   9.514   5.217
61261SOL     OW85679  10.730   7.788  12.867
61261SOL    HW185680  10.704   7.866  12.915
61261SOL    HW285681  10.650   7.736  12.859
61262SOL     OW85682   1.628   5.801  14.373
61262SOL    HW185683   1.575   5.871  14.333
61262SOL    HW285684   1.623   5.818  14.467
61263SOL     OW85685   5.285   2.523   8.207
61263SOL    HW185686   5.231   2.497   8.132
61263SOL    HW285687   5.375   2.517   8.176
61264SOL     OW85688  10.275   5.310  13.890
61264SOL    HW185689  10.310   5.239  13.943
61264SOL    HW285690  10.352   5.358  13.860
61265SOL     OW85691   6.875  12.348   1.256
61265SOL    HW185692   6.918  12.432   1.241
61265SOL    HW285693   6.800  12.370   1.312
61266SOL     OW85694  12.646   7.165   6.593
61266SOL    HW185695  12.686   7.094   6.643
61266SOL    HW285696  12.720   7.218   6.563
61267SOL     OW85697   3.240   5.828  11.185
61267SOL    HW185698   3.261   5.875  11.105
61267SOL    HW285699   3.193   5.892  11.239
61268SOL     OW85700   2.032   1.830  11.385
61268SOL    HW185701   1.979   1.905  11.414
61268SOL    HW285702   1.998   1.756  11.436
61269SOL     OW85703  10.918  14.340  11.803
61269SOL    HW185704  10.888  14.405  11.868
61269SOL    HW285705  10.966  14.276  11.855
61270SOL     OW85706   4.724   7.193   4.919
61270SOL    HW185707   4.672   7.135   4.864
61270SOL    HW285708   4.665   7.218   4.990
61271SOL     OW85709   9.088   2.145   3.494
61271SOL    HW185710   9.151   2.216   3.494
61271SOL    HW285711   9.018   2.174   3.553
61272SOL     OW85712   9.496   7.436   5.818
61272SOL    HW185713   9.501   7.491   5.739
61272SOL    HW285714   9.556   7.478   5.880
61273SOL     OW85715  14.545   6.133   8.725
61273SOL    HW185716  14.544   6.229   8.732
61273SOL    HW285717  14.628   6.114   8.681
61274SOL     OW85718  14.138   7.637   5.638
61274SOL    HW185719  14.056   7.591   5.619
61274SOL    HW285720  14.112   7.726   5.657
61275SOL     OW85721   4.659   2.081   1.854
61275SOL    HW185722   4.740   2.088   1.804
61275SOL    HW285723   4.592   2.060   1.789
61276SOL     OW85724   9.496   9.307   6.223
61276SOL    HW185725   9.413   9.352   6.210
61276SOL    HW285726   9.472   9.217   6.244
61277SOL     OW85727   4.867  12.927  11.823
61277SOL    HW185728   4.797  12.921  11.887
61277SOL    HW285729   4.832  12.983  11.754
61278SOL     OW85730   0.763  11.353  13.815
61278SOL    HW185731   0.763  11.271  13.864
61278SOL    HW285732   0.750  11.327  13.724
61279SOL     OW85733   2.702   6.424  13.574
61279SOL    HW185734   2.693   6.517  13.553
61279SOL    HW285735   2.779   6.396  13.525
61280SOL     OW85736   3.245  10.171   9.443
61280SOL    HW185737   3.252  10.183   9.538
61280SOL    HW285738   3.176  10.231   9.416
61281SOL     OW85739   8.667   2.113   7.940
61281SOL    HW185740   8.737   2.056   7.908
61281SOL    HW285741   8.697   2.201   7.918
61282SOL     OW85742   4.405  13.707   8.925
61282SOL    HW185743   4.434  13.793   8.896
61282SOL    HW285744   4.381  13.662   8.845
61283SOL     OW85745   5.658   5.227   4.703
61283SOL    HW185746   5.736   5.232   4.758
61283SOL    HW285747   5.637   5.134   4.700
61284SOL     OW85748   7.966  10.412   7.248
61284SOL    HW185749   8.021  10.478   7.205
61284SOL    HW285750   8.011  10.330   7.233
61285SOL     OW85751  11.188   5.302   8.505
61285SOL    HW185752  11.095   5.321   8.493
61285SOL    HW285753  11.234   5.370   8.457
61286SOL     OW85754   3.650   3.734   9.213
61286SOL    HW185755   3.741   3.722   9.186
61286SOL    HW285756   3.656   3.799   9.284
61287SOL     OW85757   4.258  10.753   0.035
61287SOL    HW185758   4.294  10.834   0.069
61287SOL    HW285759   4.296  10.744  14.825
61288SOL     OW85760   8.308   4.977  11.640
61288SOL    HW185761   8.259   4.999  11.561
61288SOL    HW285762   8.368   4.907  11.612
61289SOL     OW85763   4.528   4.131   5.324
61289SOL    HW185764   4.491   4.103   5.408
61289SOL    HW285765   4.532   4.227   5.330
61290SOL     OW85766   5.851   3.013  14.854
61290SOL    HW185767   5.814   2.946  14.796
61290SOL    HW285768   5.896   2.963   0.044
61291SOL     OW85769   2.191  11.114   3.994
61291SOL    HW185770   2.211  11.062   4.072
61291SOL    HW285771   2.129  11.180   4.024
61292SOL     OW85772   0.255   4.944  14.184
61292SOL    HW185773   0.194   4.915  14.117
61292SOL    HW285774   0.340   4.944  14.141
61293SOL     OW85775   4.905  12.950   8.958
61293SOL    HW185776   4.851  13.026   8.981
61293SOL    HW285777   4.844  12.891   8.912
61294SOL     OW85778  13.023   7.368   9.033
61294SOL    HW185779  13.094   7.418   8.995
61294SOL    HW285780  12.995   7.419   9.109
61295SOL     OW85781   0.523   6.843   9.094
61295SOL    HW185782   0.613   6.876   9.096
61295SOL    HW285783   0.494   6.860   9.004
61296SOL     OW85784   6.822   4.578  12.501
61296SOL    HW185785   6.740   4.569  12.549
61296SOL    HW285786   6.838   4.491  12.464
61297SOL     OW85787   9.747  11.828   5.657
61297SOL    HW185788   9.743  11.918   5.692
61297SOL    HW285789   9.660  11.812   5.622
61298SOL     OW85790   0.293  10.603   0.933
61298SOL    HW185791   0.202  10.633   0.931
61298SOL    HW285792   0.334  10.657   1.000
61299SOL     OW85793  13.769  12.537  13.462
61299SOL    HW185794  13.675  12.519  13.462
61299SOL    HW285795  13.792  12.540  13.369
61300SOL     OW85796  13.160  10.766   4.393
61300SOL    HW185797  13.212  10.687   4.404
61300SOL    HW285798  13.069  10.736   4.390
61301SOL     OW85799   5.750  12.658   9.714
61301SOL    HW185800   5.797  12.647   9.632
61301SOL    HW285801   5.803  12.610   9.778
61302SOL     OW85802   1.054   6.397  11.530
61302SOL    HW185803   1.095   6.314  11.507
61302SOL    HW285804   1.089   6.418  11.617
61303SOL     OW85805   0.587   5.905   8.207
61303SOL    HW185806   0.642   5.890   8.130
61303SOL    HW285807   0.643   5.952   8.268
61304SOL     OW85808   4.603   4.611   5.118
61304SOL    HW185809   4.534   4.621   5.184
61304SOL    HW285810   4.676   4.664   5.150
61305SOL     OW85811   1.405   1.251  12.498
61305SOL    HW185812   1.374   1.214  12.581
61305SOL    HW285813   1.483   1.301  12.522
61306SOL     OW85814   6.720   4.558  14.204
61306SOL    HW185815   6.658   4.536  14.274
61306SOL    HW285816   6.796   4.595  14.250
61307SOL     OW85817  14.495   6.582   6.871
61307SOL    HW185818  14.404   6.607   6.857
61307SOL    HW285819  14.519   6.623   6.954
61308SOL     OW85820   6.093   9.601  12.132
61308SOL    HW185821   6.106   9.587  12.038
61308SOL    HW285822   6.126   9.521  12.173
61309SOL     OW85823  10.553  10.611  13.987
61309SOL    HW185824  10.498  10.586  13.913
61309SOL    HW285825  10.500  10.674  14.036
61310SOL     OW85826   8.948   3.364  13.928
61310SOL    HW185827   9.026   3.314  13.951
61310SOL    HW285828   8.958   3.384  13.835
61311SOL     OW85829   8.639  13.064   3.039
61311SOL    HW185830   8.583  13.021   3.104
61311SOL    HW285831   8.649  13.154   3.072
61312SOL     OW85832   1.148   2.713   3.755
61312SOL    HW185833   1.089   2.701   3.681
61312SOL    HW285834   1.189   2.798   3.740
61313SOL     OW85835   2.770   1.094  12.569
61313SOL    HW185836   2.742   1.184  12.584
61313SOL    HW285837   2.763   1.052  12.654
61314SOL     OW85838  10.833   8.641  14.587
61314SOL    HW185839  10.899   8.596  14.534
61314SOL    HW285840  10.855   8.618  14.678
61315SOL     OW85841  11.515   1.329  10.163
61315SOL    HW185842  11.538   1.356  10.074
61315SOL    HW285843  11.466   1.247  10.152
61316SOL     OW85844   6.953   2.899   7.716
61316SOL    HW185845   6.950   2.886   7.811
61316SOL    HW285846   6.868   2.939   7.696
61317SOL     OW85847  14.859   9.929   0.139
61317SOL    HW185848  14.765   9.915   0.148
61317SOL    HW285849   0.013   9.936   0.229
61318SOL     OW85850   6.266   2.893  14.872
61318SOL    HW185851   6.348   2.933  14.842
61318SOL    HW285852   6.216   2.967   0.031
61319SOL     OW85853  11.404   2.233  14.433
61319SOL    HW185854  11.393   2.227  14.338
61319SOL    HW285855  11.427   2.144  14.460
61320SOL     OW85856  14.448  11.978   9.014
61320SOL    HW185857  14.402  12.036   8.953
61320SOL    HW285858  14.401  11.894   9.005
61321SOL     OW85859   6.084  14.169   4.037
61321SOL    HW185860   6.178  14.149   4.038
61321SOL    HW285861   6.069  14.217   4.118
61322SOL     OW85862  12.572   3.807   5.054
61322SOL    HW185863  12.517   3.835   5.127
61322SOL    HW285864  12.528   3.839   4.976
61323SOL     OW85865  11.470   0.990   8.429
61323SOL    HW185866  11.531   1.035   8.370
61323SOL    HW285867  11.482   0.897   8.410
61324SOL     OW85868  14.648  12.312   0.596
61324SOL    HW185869  14.658  12.293   0.503
61324SOL    HW285870  14.566  12.268   0.621
61325SOL     OW85871  13.420  14.812   9.770
61325SOL    HW185872  13.494  14.780   9.718
61325SOL    HW285873  13.376  14.733   9.801
61326SOL     OW85874  11.655   1.217   9.705
61326SOL    HW185875  11.714   1.284   9.671
61326SOL    HW285876  11.699   1.134   9.684
61327SOL     OW85877   9.895   5.128   7.682
61327SOL    HW185878   9.881   5.042   7.721
61327SOL    HW285879   9.870   5.117   7.590
61328SOL     OW85880   8.535   0.798   0.896
61328SOL    HW185881   8.507   0.852   0.970
61328SOL    HW285882   8.523   0.854   0.820
61329SOL     OW85883   2.965  14.305  13.735
61329SOL    HW185884   2.885  14.354  13.717
61329SOL    HW285885   3.033  14.350  13.685
61330SOL     OW85886   1.830   0.176   2.760
61330SOL    HW185887   1.858   0.169   2.851
61330SOL    HW285888   1.735   0.162   2.762
61331SOL     OW85889   6.425   0.568  11.070
61331SOL    HW185890   6.337   0.533  11.085
61331SOL    HW285891   6.483   0.492  11.074
61332SOL     OW85892   1.737   6.893  14.189
61332SOL    HW185893   1.742   6.979  14.147
61332SOL    HW285894   1.806   6.841  14.148
61333SOL     OW85895   5.047   5.534   0.244
61333SOL    HW185896   4.972   5.581   0.209
61333SOL    HW285897   5.102   5.603   0.282
61334SOL     OW85898   4.495  14.164   2.419
61334SOL    HW185899   4.440  14.089   2.398
61334SOL    HW285900   4.434  14.234   2.441
61335SOL     OW85901   4.177   6.421  10.441
61335SOL    HW185902   4.232   6.361  10.391
61335SOL    HW285903   4.102   6.368  10.469
61336SOL     OW85904   0.456   2.373   3.873
61336SOL    HW185905   0.501   2.379   3.789
61336SOL    HW285906   0.420   2.461   3.887
61337SOL     OW85907   7.040   8.585   7.919
61337SOL    HW185908   7.115   8.530   7.941
61337SOL    HW285909   7.052   8.665   7.970
61338SOL     OW85910   7.499   7.966  10.722
61338SOL    HW185911   7.473   8.033  10.785
61338SOL    HW285912   7.553   7.905  10.773
61339SOL     OW85913  14.056   9.596  13.935
61339SOL    HW185914  14.139   9.591  13.983
61339SOL    HW285915  14.072   9.547  13.855
61340SOL     OW85916  10.385   0.373   1.887
61340SOL    HW185917  10.304   0.419   1.908
61340SOL    HW285918  10.420   0.420   1.811
61341SOL     OW85919   8.451   9.055  12.299
61341SOL    HW185920   8.508   8.984  12.269
61341SOL    HW285921   8.510   9.124  12.327
61342SOL     OW85922  11.125  10.187   7.088
61342SOL    HW185923  11.122  10.226   7.001
61342SOL    HW285924  11.152  10.096   7.073
61343SOL     OW85925   3.992  12.344   1.629
61343SOL    HW185926   4.055  12.282   1.592
61343SOL    HW285927   3.930  12.290   1.678
61344SOL     OW85928   2.982  14.045  11.103
61344SOL    HW185929   3.068  14.039  11.145
61344SOL    HW285930   2.992  13.999  11.020
61345SOL     OW85931  11.210  14.549  11.004
61345SOL    HW185932  11.181  14.461  10.983
61345SOL    HW285933  11.259  14.540  11.085
61346SOL     OW85934   1.363  12.189   3.144
61346SOL    HW185935   1.340  12.262   3.086
61346SOL    HW285936   1.457  12.177   3.131
61347SOL     OW85937   6.184  11.870   5.380
61347SOL    HW185938   6.106  11.815   5.369
61347SOL    HW285939   6.256  11.808   5.391
61348SOL     OW85940   6.395   2.146   2.059
61348SOL    HW185941   6.336   2.208   2.100
61348SOL    HW285942   6.482   2.171   2.091
61349SOL     OW85943   5.224  11.271   7.804
61349SOL    HW185944   5.241  11.357   7.843
61349SOL    HW285945   5.161  11.230   7.864
61350SOL     OW85946   4.434   7.863   2.601
61350SOL    HW185947   4.445   7.953   2.633
61350SOL    HW285948   4.481   7.809   2.664
61351SOL     OW85949   7.447   9.364   4.758
61351SOL    HW185950   7.362   9.355   4.800
61351SOL    HW285951   7.481   9.275   4.753
61352SOL     OW85952   4.303   8.999   1.588
61352SOL    HW185953   4.387   8.967   1.623
61352SOL    HW285954   4.261   8.920   1.553
61353SOL     OW85955   1.673  14.137   9.407
61353SOL    HW185956   1.676  14.084   9.486
61353SOL    HW285957   1.653  14.074   9.337
61354SOL     OW85958   3.007  12.810  13.941
61354SOL    HW185959   3.087  12.832  13.988
61354SOL    HW285960   2.969  12.737  13.991
61355SOL     OW85961  13.584  11.011  11.178
61355SOL    HW185962  13.590  11.062  11.097
61355SOL    HW285963  13.548  11.071  11.242
61356SOL     OW85964   9.356  12.582   5.261
61356SOL    HW185965   9.444  12.548   5.249
61356SOL    HW285966   9.349  12.655   5.200
61357SOL     OW85967   1.534   6.998   4.271
61357SOL    HW185968   1.525   7.093   4.268
61357SOL    HW285969   1.543   6.977   4.365
61358SOL     OW85970   4.714  10.781   0.928
61358SOL    HW185971   4.634  10.737   0.956
61358SOL    HW285972   4.785  10.731   0.968
61359SOL     OW85973   4.933  13.667  13.808
61359SOL    HW185974   4.921  13.749  13.855
61359SOL    HW285975   4.875  13.673  13.733
61360SOL     OW85976   5.500   9.063   9.686
61360SOL    HW185977   5.552   9.017   9.620
61360SOL    HW285978   5.561   9.079   9.758
61361SOL     OW85979   4.290  12.472   5.693
61361SOL    HW185980   4.211  12.425   5.667
61361SOL    HW285981   4.313  12.434   5.778
61362SOL     OW85982  12.591   4.128   8.700
61362SOL    HW185983  12.589   4.127   8.604
61362SOL    HW285984  12.653   4.059   8.723
61363SOL     OW85985   9.238   9.905   5.037
61363SOL    HW185986   9.207   9.820   5.068
61363SOL    HW285987   9.279   9.886   4.952
61364SOL     OW85988   4.165  10.584   6.918
61364SOL    HW185989   4.232  10.651   6.916
61364SOL    HW285990   4.082  10.632   6.910
61365SOL     OW85991   6.597  11.700  13.093
61365SOL    HW185992   6.548  11.667  13.168
61365SOL    HW285993   6.649  11.772  13.127
61366SOL     OW85994   8.609  12.600   5.961
61366SOL    HW185995   8.630  12.507   5.967
61366SOL    HW285996   8.583  12.613   5.869
61367SOL     OW85997   8.813  11.334   0.570
61367SOL    HW185998   8.885  11.280   0.603
61367SOL    HW285999   8.747  11.331   0.639
61368SOL     OW86000   6.617   5.272   5.062
61368SOL    HW186001   6.536   5.304   5.022
61368SOL    HW286002   6.682   5.339   5.041
61369SOL     OW86003  12.931   9.693   8.976
61369SOL    HW186004  12.957   9.728   8.890
61369SOL    HW286005  12.945   9.599   8.969
61370SOL     OW86006  11.033   0.060   1.098
61370SOL    HW186007  11.123   0.055   1.068
61370SOL    HW286008  11.002   0.145   1.068
61371SOL     OW86009   4.613  12.651  10.957
61371SOL    HW186010   4.700  12.629  10.990
61371SOL    HW286011   4.573  12.567  10.936
61372SOL     OW86012   6.477   6.668   2.298
61372SOL    HW186013   6.537   6.684   2.225
61372SOL    HW286014   6.400   6.629   2.257
61373SOL     OW86015   3.582  12.861   6.995
61373SOL    HW186016   3.564  12.922   6.923
61373SOL    HW286017   3.639  12.910   7.054
61374SOL     OW86018  13.263  11.554  13.932
61374SOL    HW186019  13.334  11.492  13.950
61374SOL    HW286020  13.195  11.530  13.995
61375SOL     OW86021   1.714   2.340   1.759
61375SOL    HW186022   1.761   2.403   1.814
61375SOL    HW286023   1.689   2.269   1.819
61376SOL     OW86024   5.997   5.124   5.811
61376SOL    HW186025   5.957   5.092   5.730
61376SOL    HW286026   6.088   5.092   5.807
61377SOL     OW86027  14.283  12.069   9.938
61377SOL    HW186028  14.337  12.148   9.934
61377SOL    HW286029  14.345  11.997   9.931
61378SOL     OW86030  14.726   7.240   2.008
61378SOL    HW186031  14.815   7.275   2.012
61378SOL    HW286032  14.687   7.282   1.931
61379SOL     OW86033  12.871  12.794   1.632
61379SOL    HW186034  12.843  12.753   1.551
61379SOL    HW286035  12.964  12.771   1.641
61380SOL     OW86036  12.187   2.172   9.228
61380SOL    HW186037  12.282   2.164   9.220
61380SOL    HW286038  12.169   2.265   9.214
61381SOL     OW86039  10.052  11.413   9.957
61381SOL    HW186040  10.110  11.475  10.001
61381SOL    HW286041  10.051  11.337  10.015
61382SOL     OW86042   1.941   3.095   8.918
61382SOL    HW186043   2.035   3.101   8.902
61382SOL    HW286044   1.932   3.110   9.013
61383SOL     OW86045  14.656   7.872  11.493
61383SOL    HW186046  14.601   7.836  11.423
61383SOL    HW286047  14.704   7.797  11.527
61384SOL     OW86048   1.251   7.441   8.524
61384SOL    HW186049   1.226   7.531   8.502
61384SOL    HW286050   1.186   7.414   8.590
61385SOL     OW86051   5.114   2.467  14.365
61385SOL    HW186052   5.121   2.532  14.435
61385SOL    HW286053   5.113   2.518  14.284
61386SOL     OW86054  12.866  13.953   8.131
61386SOL    HW186055  12.952  13.911   8.136
61386SOL    HW286056  12.804  13.882   8.148
61387SOL     OW86057  10.840   1.457   4.796
61387SOL    HW186058  10.908   1.390   4.804
61387SOL    HW286059  10.758   1.407   4.793
61388SOL     OW86060  14.283  13.903   0.264
61388SOL    HW186061  14.320  13.989   0.286
61388SOL    HW286062  14.302  13.849   0.341
61389SOL     OW86063  11.923   8.283   0.357
61389SOL    HW186064  11.989   8.329   0.304
61389SOL    HW286065  11.906   8.203   0.308
61390SOL     OW86066   2.634   9.807  12.563
61390SOL    HW186067   2.664   9.760  12.485
61390SOL    HW286068   2.574   9.873  12.528
61391SOL     OW86069   4.937  10.618   8.807
61391SOL    HW186070   4.878  10.679   8.762
61391SOL    HW286071   5.014  10.613   8.752
61392SOL     OW86072   4.594  14.135  13.511
61392SOL    HW186073   4.689  14.142  13.512
61392SOL    HW286074   4.576  14.060  13.453
61393SOL     OW86075  11.842   3.221  13.967
61393SOL    HW186076  11.809   3.164  14.036
61393SOL    HW286077  11.903   3.280  14.011
61394SOL     OW86078   0.413   3.947   9.241
61394SOL    HW186079   0.379   3.950   9.152
61394SOL    HW286080   0.436   3.856   9.255
61395SOL     OW86081   2.420   1.366   5.457
61395SOL    HW186082   2.333   1.380   5.420
61395SOL    HW286083   2.473   1.337   5.382
61396SOL     OW86084   8.724   4.596   3.294
61396SOL    HW186085   8.739   4.602   3.388
61396SOL    HW286086   8.659   4.664   3.276
61397SOL     OW86087  12.331   6.026   0.419
61397SOL    HW186088  12.293   6.024   0.331
61397SOL    HW286089  12.291   5.952   0.464
61398SOL     OW86090   4.625   6.587   4.690
61398SOL    HW186091   4.646   6.629   4.773
61398SOL    HW286092   4.705   6.541   4.665
61399SOL     OW86093  10.060   0.537  13.123
61399SOL    HW186094  10.032   0.449  13.102
61399SOL    HW286095  10.077   0.579  13.039
61400SOL     OW86096   8.177   0.646   2.242
61400SOL    HW186097   8.167   0.635   2.336
61400SOL    HW286098   8.261   0.605   2.222
61401SOL     OW86099   4.195  14.212   2.228
61401SOL    HW186100   4.121  14.154   2.247
61401SOL    HW286101   4.222  14.244   2.314
61402SOL     OW86102   7.727  11.203   6.145
61402SOL    HW186103   7.808  11.166   6.181
61402SOL    HW286104   7.754  11.287   6.108
61403SOL     OW86105   9.343  12.194   5.645
61403SOL    HW186106   9.290  12.123   5.608
61403SOL    HW286107   9.323  12.270   5.590
61404SOL     OW86108   8.678   4.506   7.578
61404SOL    HW186109   8.756   4.559   7.597
61404SOL    HW286110   8.652   4.534   7.490
61405SOL     OW86111  14.504   2.121   6.741
61405SOL    HW186112  14.442   2.156   6.805
61405SOL    HW286113  14.533   2.038   6.779
61406SOL     OW86114   4.544   2.564   5.393
61406SOL    HW186115   4.557   2.505   5.467
61406SOL    HW286116   4.471   2.527   5.345
61407SOL     OW86117  13.294   4.929   9.798
61407SOL    HW186118  13.203   4.902   9.814
61407SOL    HW286119  13.347   4.864   9.845
61408SOL     OW86120  11.863   7.433  11.436
61408SOL    HW186121  11.784   7.449  11.489
61408SOL    HW286122  11.909   7.363  11.483
61409SOL     OW86123   7.501   2.119  13.517
61409SOL    HW186124   7.440   2.158  13.580
61409SOL    HW286125   7.445   2.087  13.446
61410SOL     OW86126  12.887   4.703   7.723
61410SOL    HW186127  12.839   4.785   7.730
61410SOL    HW286128  12.911   4.697   7.630
61411SOL     OW86129   3.970   9.962   6.228
61411SOL    HW186130   3.895   9.991   6.175
61411SOL    HW286131   3.933   9.901   6.291
61412SOL     OW86132   1.175  14.199  12.806
61412SOL    HW186133   1.196  14.114  12.845
61412SOL    HW286134   1.121  14.243  12.872
61413SOL     OW86135   5.136  12.755  12.918
61413SOL    HW186136   5.158  12.842  12.951
61413SOL    HW286137   5.136  12.765  12.823
61414SOL     OW86138   1.759  14.381   0.661
61414SOL    HW186139   1.687  14.398   0.601
61414SOL    HW286140   1.718  14.379   0.748
61415SOL     OW86141   8.352   6.045  14.260
61415SOL    HW186142   8.369   6.064  14.168
61415SOL    HW286143   8.392   6.117  14.308
61416SOL     OW86144  11.076   4.254  11.751
61416SOL    HW186145  11.048   4.345  11.762
61416SOL    HW286146  11.091   4.245  11.657
61417SOL     OW86147   5.309  10.057   6.188
61417SOL    HW186148   5.233  10.016   6.230
61417SOL    HW286149   5.358   9.983   6.151
61418SOL     OW86150  10.490  11.641   4.063
61418SOL    HW186151  10.404  11.600   4.058
61418SOL    HW286152  10.535  11.613   3.984
61419SOL     OW86153  12.924  10.163  13.300
61419SOL    HW186154  13.006  10.138  13.258
61419SOL    HW286155  12.856  10.131  13.240
61420SOL     OW86156   7.470  13.131   8.268
61420SOL    HW186157   7.523  13.103   8.194
61420SOL    HW286158   7.471  13.227   8.263
61421SOL     OW86159   0.917  12.540   3.087
61421SOL    HW186160   0.829  12.551   3.123
61421SOL    HW286161   0.939  12.625   3.049
61422SOL     OW86162   1.910   9.689   6.761
61422SOL    HW186163   1.971   9.651   6.698
61422SOL    HW286164   1.853   9.615   6.786
61423SOL     OW86165   7.252  11.510  11.828
61423SOL    HW186166   7.166  11.468  11.829
61423SOL    HW286167   7.239  11.593  11.874
61424SOL     OW86168   2.768  12.389   3.496
61424SOL    HW186169   2.701  12.361   3.559
61424SOL    HW286170   2.817  12.457   3.543
61425SOL     OW86171  11.606   4.561   2.070
61425SOL    HW186172  11.578   4.651   2.091
61425SOL    HW286173  11.528   4.508   2.086
61426SOL     OW86174   4.067  11.582   0.670
61426SOL    HW186175   4.160  11.573   0.650
61426SOL    HW286176   4.029  11.498   0.647
61427SOL     OW86177   3.235   9.268   5.289
61427SOL    HW186178   3.208   9.360   5.295
61427SOL    HW286179   3.308   9.261   5.350
61428SOL     OW86180  10.436   5.304  14.355
61428SOL    HW186181  10.471   5.336  14.438
61428SOL    HW286182  10.344   5.330  14.356
61429SOL     OW86183   0.348   8.465   6.232
61429SOL    HW186184   0.317   8.460   6.323
61429SOL    HW286185   0.428   8.516   6.237
61430SOL     OW86186   9.168  12.734  12.415
61430SOL    HW186187   9.151  12.678  12.339
61430SOL    HW286188   9.081  12.765  12.441
61431SOL     OW86189  14.763   4.037   6.519
61431SOL    HW186190  14.727   4.039   6.607
61431SOL    HW286191  14.688   4.020   6.462
61432SOL     OW86192   6.404   5.450  13.231
61432SOL    HW186193   6.339   5.518  13.248
61432SOL    HW286194   6.482   5.498  13.205
61433SOL     OW86195  11.454   1.516   8.187
61433SOL    HW186196  11.375   1.562   8.212
61433SOL    HW286197  11.468   1.539   8.095
61434SOL     OW86198   4.722   3.037   1.228
61434SOL    HW186199   4.690   3.012   1.141
61434SOL    HW286200   4.808   3.077   1.211
61435SOL     OW86201   0.637   6.568  13.568
61435SOL    HW186202   0.722   6.572  13.525
61435SOL    HW286203   0.632   6.650  13.618
61436SOL     OW86204   2.948   3.483  14.391
61436SOL    HW186205   2.974   3.550  14.328
61436SOL    HW286206   2.852   3.483  14.388
61437SOL     OW86207  14.142   3.453   4.469
61437SOL    HW186208  14.160   3.414   4.383
61437SOL    HW286209  14.227   3.487   4.498
61438SOL     OW86210  12.542   1.266   0.817
61438SOL    HW186211  12.518   1.237   0.729
61438SOL    HW286212  12.554   1.185   0.867
61439SOL     OW86213   4.889   2.144   6.028
61439SOL    HW186214   4.885   2.212   5.961
61439SOL    HW286215   4.800   2.140   6.063
61440SOL     OW86216   0.859   5.490   5.437
61440SOL    HW186217   0.923   5.534   5.492
61440SOL    HW286218   0.820   5.424   5.494
61441SOL     OW86219   2.650  12.579   5.915
61441SOL    HW186220   2.630  12.547   6.003
61441SOL    HW286221   2.728  12.634   5.927
61442SOL     OW86222   4.900   8.784   4.206
61442SOL    HW186223   4.860   8.793   4.120
61442SOL    HW286224   4.827   8.766   4.265
61443SOL     OW86225  11.007  11.509   4.665
61443SOL    HW186226  11.010  11.574   4.595
61443SOL    HW286227  11.062  11.438   4.634
61444SOL     OW86228   3.592  11.405   5.826
61444SOL    HW186229   3.627  11.373   5.743
61444SOL    HW286230   3.663  11.391   5.889
61445SOL     OW86231   2.566   6.314  10.664
61445SOL    HW186232   2.474   6.292  10.677
61445SOL    HW286233   2.602   6.238  10.618
61446SOL     OW86234   5.782   6.005   7.342
61446SOL    HW186235   5.873   5.989   7.316
61446SOL    HW286236   5.771   6.100   7.332
61447SOL     OW86237   4.604  13.118  12.560
61447SOL    HW186238   4.537  13.086  12.499
61447SOL    HW286239   4.566  13.106  12.647
61448SOL     OW86240   1.194   2.652  13.951
61448SOL    HW186241   1.123   2.688  13.898
61448SOL    HW286242   1.152   2.583  14.002
61449SOL     OW86243  13.927   7.138   2.811
61449SOL    HW186244  13.943   7.146   2.906
61449SOL    HW286245  13.947   7.224   2.776
61450SOL     OW86246   6.670   8.466  13.755
61450SOL    HW186247   6.714   8.465  13.840
61450SOL    HW286248   6.642   8.376  13.742
61451SOL     OW86249   7.832   8.505   6.414
61451SOL    HW186250   7.758   8.463   6.457
61451SOL    HW286251   7.902   8.504   6.479
61452SOL     OW86252  12.112  10.373   9.476
61452SOL    HW186253  12.059  10.385   9.397
61452SOL    HW286254  12.098  10.281   9.501
61453SOL     OW86255  10.028   5.489   2.372
61453SOL    HW186256  10.031   5.507   2.466
61453SOL    HW286257  10.049   5.395   2.364
61454SOL     OW86258  14.242   3.244   8.238
61454SOL    HW186259  14.196   3.312   8.189
61454SOL    HW286260  14.173   3.184   8.265
61455SOL     OW86261  13.278  13.340   2.854
61455SOL    HW186262  13.283  13.425   2.898
61455SOL    HW286263  13.355  13.338   2.797
61456SOL     OW86264   2.038   8.109   9.846
61456SOL    HW186265   2.053   8.081   9.756
61456SOL    HW286266   1.995   8.195   9.838
61457SOL     OW86267  12.715  10.435   6.043
61457SOL    HW186268  12.702  10.529   6.032
61457SOL    HW286269  12.641  10.395   5.996
61458SOL     OW86270  10.863   2.845   4.328
61458SOL    HW186271  10.856   2.930   4.285
61458SOL    HW286272  10.895   2.864   4.415
61459SOL     OW86273   2.609  10.076   4.676
61459SOL    HW186274   2.663   9.998   4.667
61459SOL    HW286275   2.551  10.074   4.600
61460SOL     OW86276  14.324   1.419  14.220
61460SOL    HW186277  14.303   1.388  14.308
61460SOL    HW286278  14.256   1.381  14.165
61461SOL     OW86279  11.951   3.336   5.604
61461SOL    HW186280  12.011   3.307   5.535
61461SOL    HW286281  11.958   3.431   5.605
61462SOL     OW86282   6.333  10.851   0.694
61462SOL    HW186283   6.303  10.909   0.764
61462SOL    HW286284   6.379  10.781   0.740
61463SOL     OW86285   0.619   4.506   1.836
61463SOL    HW186286   0.648   4.582   1.887
61463SOL    HW286287   0.549   4.541   1.780
61464SOL     OW86288   0.646  10.023   6.603
61464SOL    HW186289   0.668  10.114   6.583
61464SOL    HW286290   0.551  10.022   6.612
61465SOL     OW86291   7.804  10.497   7.433
61465SOL    HW186292   7.874  10.491   7.368
61465SOL    HW286293   7.811  10.417   7.484
61466SOL     OW86294   0.405   6.063  11.644
61466SOL    HW186295   0.387   6.152  11.674
61466SOL    HW286296   0.500   6.059  11.637
61467SOL     OW86297   5.567   1.243   7.682
61467SOL    HW186298   5.661   1.234   7.665
61467SOL    HW286299   5.560   1.315   7.744
61468SOL     OW86300   3.808  12.508   3.784
61468SOL    HW186301   3.723  12.552   3.783
61468SOL    HW286302   3.868  12.574   3.819
61469SOL     OW86303   4.722   5.578  11.053
61469SOL    HW186304   4.732   5.672  11.038
61469SOL    HW286305   4.742   5.539  10.968
61470SOL     OW86306   6.258  14.321   9.161
61470SOL    HW186307   6.311  14.352   9.087
61470SOL    HW286308   6.322  14.300   9.229
61471SOL     OW86309  10.934   2.053   9.813
61471SOL    HW186310  10.886   2.023   9.736
61471SOL    HW286311  10.989   2.125   9.780
61472SOL     OW86312   5.656   9.635   5.212
61472SOL    HW186313   5.679   9.662   5.301
61472SOL    HW286314   5.619   9.548   5.223
61473SOL     OW86315  13.101   8.474   6.894
61473SOL    HW186316  13.079   8.383   6.913
61473SOL    HW286317  13.143   8.506   6.975
61474SOL     OW86318  12.170   4.855   6.199
61474SOL    HW186319  12.136   4.876   6.113
61474SOL    HW286320  12.206   4.937   6.232
61475SOL     OW86321   1.134  10.714   7.543
61475SOL    HW186322   1.219  10.757   7.553
61475SOL    HW286323   1.112  10.725   7.451
61476SOL     OW86324  10.608  11.614  14.791
61476SOL    HW186325  10.522  11.586  14.822
61476SOL    HW286326  10.642  11.539  14.744
61477SOL     OW86327   6.083   6.899   4.285
61477SOL    HW186328   6.074   6.991   4.309
61477SOL    HW286329   6.123   6.858   4.363
61478SOL     OW86330   1.744   1.907   0.310
61478SOL    HW186331   1.772   1.828   0.356
61478SOL    HW286332   1.817   1.928   0.252
61479SOL     OW86333  14.523  12.662  10.039
61479SOL    HW186334  14.465  12.592  10.008
61479SOL    HW286335  14.587  12.673   9.968
61480SOL     OW86336  14.168   7.294  11.342
61480SOL    HW186337  14.139   7.206  11.319
61480SOL    HW286338  14.107   7.322  11.410
61481SOL     OW86339   2.372   4.011   1.680
61481SOL    HW186340   2.438   4.071   1.713
61481SOL    HW286341   2.387   3.930   1.729
61482SOL     OW86342   7.098   0.359   3.283
61482SOL    HW186343   7.082   0.409   3.203
61482SOL    HW286344   7.073   0.269   3.260
61483SOL     OW86345  12.483   3.348  11.469
61483SOL    HW186346  12.416   3.405  11.507
61483SOL    HW286347  12.566   3.391  11.488
61484SOL     OW86348   5.053   5.291   7.737
61484SOL    HW186349   4.982   5.230   7.755
61484SOL    HW286350   5.132   5.244   7.763
61485SOL     OW86351   1.451  10.844   8.263
61485SOL    HW186352   1.389  10.876   8.197
61485SOL    HW286353   1.401  10.780   8.313
61486SOL     OW86354  13.351   5.219  11.682
61486SOL    HW186355  13.321   5.167  11.608
61486SOL    HW286356  13.283   5.209  11.749
61487SOL     OW86357   9.888  10.554  14.456
61487SOL    HW186358   9.971  10.507  14.463
61487SOL    HW286359   9.828  10.504  14.512
61488SOL     OW86360   2.879   6.929   7.840
61488SOL    HW186361   2.791   6.894   7.858
61488SOL    HW286362   2.890   6.918   7.745
61489SOL     OW86363  14.441  14.865   3.001
61489SOL    HW186364  14.414  14.774   2.997
61489SOL    HW286365  14.443   0.008   3.095
61490SOL     OW86366  12.228   4.098   4.271
61490SOL    HW186367  12.182   4.070   4.191
61490SOL    HW286368  12.185   4.179   4.296
61491SOL     OW86369   5.865   6.886   3.280
61491SOL    HW186370   5.901   6.878   3.192
61491SOL    HW286371   5.819   6.970   3.280
61492SOL     OW86372  13.996   5.409  11.850
61492SOL    HW186373  13.952   5.326  11.867
61492SOL    HW286374  13.930   5.476  11.868
61493SOL     OW86375   0.068   5.044  13.637
61493SOL    HW186376   0.010   5.104  13.589
61493SOL    HW286377   0.085   4.973  13.575
61494SOL     OW86378   2.598   6.836   0.106
61494SOL    HW186379   2.573   6.776   0.176
61494SOL    HW286380   2.568   6.922   0.135
61495SOL     OW86381   4.702   2.170  14.773
61495SOL    HW186382   4.728   2.226  14.846
61495SOL    HW286383   4.658   2.229  14.712
61496SOL     OW86384  14.199   0.752   7.652
61496SOL    HW186385  14.213   0.662   7.681
61496SOL    HW286386  14.242   0.757   7.567
61497SOL     OW86387  10.716   8.011   2.257
61497SOL    HW186388  10.711   8.048   2.169
61497SOL    HW286389  10.695   8.084   2.315
61498SOL     OW86390  11.374   7.200   9.016
61498SOL    HW186391  11.342   7.150   9.091
61498SOL    HW286392  11.296   7.221   8.965
61499SOL     OW86393  14.035   2.384   1.733
61499SOL    HW186394  13.989   2.441   1.672
61499SOL    HW286395  14.128   2.400   1.716
61500SOL     OW86396   0.712   5.615   7.260
61500SOL    HW186397   0.650   5.632   7.331
61500SOL    HW286398   0.687   5.676   7.191
61501SOL     OW86399   1.570   0.338   7.293
61501SOL    HW186400   1.638   0.270   7.295
61501SOL    HW286401   1.568   0.372   7.382
61502SOL     OW86402  14.315   0.923  13.506
61502SOL    HW186403  14.378   0.950  13.572
61502SOL    HW286404  14.359   0.853  13.457
61503SOL     OW86405   3.148   9.178  12.803
61503SOL    HW186406   3.072   9.216  12.847
61503SOL    HW286407   3.169   9.100  12.855
61504SOL     OW86408  10.674   4.706   8.801
61504SOL    HW186409  10.670   4.612   8.817
61504SOL    HW286410  10.715   4.715   8.715
61505SOL     OW86411   8.296   8.913   3.869
61505SOL    HW186412   8.208   8.933   3.901
61505SOL    HW286413   8.354   8.933   3.944
61506SOL     OW86414  11.973   5.969   7.955
61506SOL    HW186415  11.915   6.043   7.968
61506SOL    HW286416  11.916   5.892   7.961
61507SOL     OW86417   7.347   1.571   8.669
61507SOL    HW186418   7.266   1.521   8.654
61507SOL    HW286419   7.378   1.541   8.754
61508SOL     OW86420   6.615  14.013   3.185
61508SOL    HW186421   6.580  14.094   3.221
61508SOL    HW286422   6.708  14.014   3.207
61509SOL     OW86423   7.434  12.538   3.190
61509SOL    HW186424   7.450  12.607   3.254
61509SOL    HW286425   7.462  12.457   3.233
61510SOL     OW86426   0.552  12.737   0.794
61510SOL    HW186427   0.603  12.811   0.761
61510SOL    HW286428   0.472  12.738   0.742
61511SOL     OW86429  13.459  12.422  14.662
61511SOL    HW186430  13.418  12.360  14.602
61511SOL    HW286431  13.459  12.377  14.747
61512SOL     OW86432  13.355  11.753  11.102
61512SOL    HW186433  13.412  11.683  11.071
61512SOL    HW286434  13.274  11.709  11.128
61513SOL     OW86435   0.351   4.892   7.763
61513SOL    HW186436   0.280   4.891   7.827
61513SOL    HW286437   0.379   4.983   7.758
61514SOL     OW86438   7.806  10.542   4.386
61514SOL    HW186439   7.870  10.480   4.420
61514SOL    HW286440   7.845  10.628   4.401
61515SOL     OW86441  11.425   5.273   9.299
61515SOL    HW186442  11.392   5.198   9.249
61515SOL    HW286443  11.474   5.233   9.371
61516SOL     OW86444  10.488   3.393   3.585
61516SOL    HW186445  10.427   3.329   3.621
61516SOL    HW286446  10.502   3.456   3.655
61517SOL     OW86447   9.448   9.901   2.501
61517SOL    HW186448   9.475   9.950   2.579
61517SOL    HW286449   9.426   9.968   2.437
61518SOL     OW86450   4.991   6.095   6.307
61518SOL    HW186451   4.919   6.078   6.368
61518SOL    HW286452   5.024   6.182   6.332
61519SOL     OW86453   9.282   3.138   9.055
61519SOL    HW186454   9.291   3.133   8.960
61519SOL    HW286455   9.293   3.231   9.075
61520SOL     OW86456   5.776   4.151   3.397
61520SOL    HW186457   5.691   4.133   3.357
61520SOL    HW286458   5.834   4.083   3.362
61521SOL     OW86459   5.583   1.539   0.971
61521SOL    HW186460   5.581   1.465   1.032
61521SOL    HW286461   5.663   1.524   0.920
61522SOL     OW86462  12.876  13.481  12.684
61522SOL    HW186463  12.967  13.510  12.692
61522SOL    HW286464  12.876  13.391  12.718
61523SOL     OW86465   1.795  12.716   8.330
61523SOL    HW186466   1.844  12.774   8.389
61523SOL    HW286467   1.823  12.628   8.355
61524SOL     OW86468   1.376   7.086   4.712
61524SOL    HW186469   1.300   7.040   4.747
61524SOL    HW286470   1.386   7.163   4.768
61525SOL     OW86471   3.382   9.411  10.101
61525SOL    HW186472   3.431   9.402  10.019
61525SOL    HW286473   3.401   9.331  10.150
61526SOL     OW86474   7.901   6.368   1.279
61526SOL    HW186475   7.841   6.443   1.277
61526SOL    HW286476   7.948   6.372   1.197
61527SOL     OW86477  13.501  11.015   1.694
61527SOL    HW186478  13.540  10.980   1.615
61527SOL    HW286479  13.435  11.077   1.663
61528SOL     OW86480  14.471  12.002   5.340
61528SOL    HW186481  14.398  11.972   5.287
61528SOL    HW286482  14.541  11.939   5.324
61529SOL     OW86483   4.225   4.593  11.543
61529SOL    HW186484   4.193   4.507  11.515
61529SOL    HW286485   4.243   4.640  11.462
61530SOL     OW86486   2.127   8.630   0.413
61530SOL    HW186487   2.116   8.652   0.505
61530SOL    HW286488   2.038   8.611   0.382
61531SOL     OW86489   9.186   5.347  12.171
61531SOL    HW186490   9.147   5.318  12.089
61531SOL    HW286491   9.227   5.268  12.207
61532SOL     OW86492   9.627   3.986   5.959
61532SOL    HW186493   9.650   3.967   6.050
61532SOL    HW286494   9.685   4.057   5.933
61533SOL     OW86495   8.185   5.216   0.715
61533SOL    HW186496   8.225   5.298   0.743
61533SOL    HW286497   8.243   5.148   0.750
61534SOL     OW86498   8.626   5.461   3.825
61534SOL    HW186499   8.641   5.393   3.759
61534SOL    HW286500   8.691   5.441   3.894
61535SOL     OW86501   5.734   9.271   4.035
61535SOL    HW186502   5.826   9.248   4.049
61535SOL    HW286503   5.713   9.238   3.948
61536SOL     OW86504   1.496   1.925   6.488
61536SOL    HW186505   1.486   1.852   6.549
61536SOL    HW286506   1.412   1.931   6.444
61537SOL     OW86507  10.750   3.445  13.628
61537SOL    HW186508  10.765   3.440  13.534
61537SOL    HW286509  10.669   3.396  13.643
61538SOL     OW86510  13.330   7.941   6.597
61538SOL    HW186511  13.305   7.852   6.573
61538SOL    HW286512  13.310   7.994   6.520
61539SOL     OW86513   9.383  11.654   8.391
61539SOL    HW186514   9.350  11.601   8.319
61539SOL    HW286515   9.351  11.611   8.471
61540SOL     OW86516   3.436  10.467   4.116
61540SOL    HW186517   3.470  10.497   4.200
61540SOL    HW286518   3.453  10.373   4.115
61541SOL     OW86519  14.626   4.180  12.639
61541SOL    HW186520  14.620   4.245  12.569
61541SOL    HW286521  14.563   4.208  12.705
61542SOL     OW86522   4.870  13.221   9.813
61542SOL    HW186523   4.910  13.182   9.734
61542SOL    HW286524   4.941  13.225   9.876
61543SOL     OW86525  13.483   3.738  12.270
61543SOL    HW186526  13.560   3.794  12.277
61543SOL    HW286527  13.447   3.757  12.183
61544SOL     OW86528   9.752  13.837  12.147
61544SOL    HW186529   9.734  13.812  12.056
61544SOL    HW286530   9.788  13.925  12.142
61545SOL     OW86531   3.221   7.354   2.430
61545SOL    HW186532   3.177   7.280   2.388
61545SOL    HW286533   3.150   7.412   2.457
61546SOL     OW86534   4.737   7.319   1.391
61546SOL    HW186535   4.676   7.368   1.445
61546SOL    HW286536   4.741   7.367   1.308
61547SOL     OW86537   3.719   2.510   6.141
61547SOL    HW186538   3.744   2.486   6.052
61547SOL    HW286539   3.680   2.597   6.132
61548SOL     OW86540   3.970   0.989  13.426
61548SOL    HW186541   4.058   0.993  13.462
61548SOL    HW286542   3.950   0.895  13.420
61549SOL     OW86543   7.415  12.612   5.814
61549SOL    HW186544   7.435  12.690   5.867
61549SOL    HW286545   7.324  12.593   5.834
61550SOL     OW86546   3.055   4.671  11.683
61550SOL    HW186547   3.005   4.591  11.667
61550SOL    HW286548   3.031   4.697  11.772
61551SOL     OW86549   1.225   3.961   9.540
61551SOL    HW186550   1.309   3.916   9.544
61551SOL    HW286551   1.245   4.053   9.558
61552SOL     OW86552   6.073  14.733   9.377
61552SOL    HW186553   6.107  14.813   9.417
61552SOL    HW286554   5.978  14.742   9.384
61553SOL     OW86555   3.226  14.268   5.376
61553SOL    HW186556   3.167  14.193   5.378
61553SOL    HW286557   3.298  14.243   5.435
61554SOL     OW86558   3.104  10.827   5.638
61554SOL    HW186559   3.036  10.864   5.582
61554SOL    HW286560   3.064  10.822   5.725
61555SOL     OW86561   6.639   4.289   3.156
61555SOL    HW186562   6.562   4.299   3.211
61555SOL    HW286563   6.672   4.202   3.177
61556SOL     OW86564   0.523  13.315  11.851
61556SOL    HW186565   0.600  13.262  11.830
61556SOL    HW286566   0.450  13.266  11.814
61557SOL     OW86567   7.613   4.204  12.043
61557SOL    HW186568   7.541   4.265  12.060
61557SOL    HW286569   7.616   4.197  11.947
61558SOL     OW86570   4.693   7.613   3.066
61558SOL    HW186571   4.623   7.674   3.091
61558SOL    HW286572   4.702   7.556   3.142
61559SOL     OW86573   9.779   1.844  11.507
61559SOL    HW186574   9.730   1.787  11.448
61559SOL    HW286575   9.745   1.823  11.594
61560SOL     OW86576  12.386   3.386   0.776
61560SOL    HW186577  12.367   3.398   0.683
61560SOL    HW286578  12.464   3.440   0.792
61561SOL     OW86579   8.015  14.255   7.320
61561SOL    HW186580   7.961  14.176   7.324
61561SOL    HW286581   8.025  14.282   7.411
61562SOL     OW86582   0.932  10.590   9.137
61562SOL    HW186583   0.917  10.683   9.121
61562SOL    HW286584   0.919  10.578   9.231
61563SOL     OW86585   1.700   4.171   1.703
61563SOL    HW186586   1.714   4.097   1.763
61563SOL    HW286587   1.606   4.169   1.685
61564SOL     OW86588   8.993   8.609   9.485
61564SOL    HW186589   9.035   8.553   9.420
61564SOL    HW286590   8.984   8.554   9.563
61565SOL     OW86591  11.165   8.522   6.085
61565SOL    HW186592  11.153   8.575   6.165
61565SOL    HW286593  11.103   8.560   6.023
61566SOL     OW86594  13.304   6.308  13.847
61566SOL    HW186595  13.341   6.308  13.936
61566SOL    HW286596  13.209   6.308  13.861
61567SOL     OW86597   0.971   2.208  11.115
61567SOL    HW186598   1.035   2.186  11.183
61567SOL    HW286599   0.903   2.258  11.161
61568SOL     OW86600  12.113  12.553   9.328
61568SOL    HW186601  12.096  12.521   9.416
61568SOL    HW286602  12.067  12.491   9.271
61569SOL     OW86603   2.951  11.155   8.083
61569SOL    HW186604   3.024  11.095   8.096
61569SOL    HW286605   2.986  11.242   8.104
61570SOL     OW86606   6.128   0.384   6.281
61570SOL    HW186607   6.208   0.423   6.317
61570SOL    HW286608   6.147   0.291   6.275
61571SOL     OW86609  10.978   9.503   0.158
61571SOL    HW186610  11.066   9.522   0.125
61571SOL    HW286611  10.939   9.449   0.089
61572SOL     OW86612   0.404   5.490  12.417
61572SOL    HW186613   0.440   5.425  12.478
61572SOL    HW286614   0.378   5.439  12.340
61573SOL     OW86615   1.885   8.685   1.825
61573SOL    HW186616   1.941   8.656   1.753
61573SOL    HW286617   1.806   8.718   1.782
61574SOL     OW86618   2.919  10.504  11.466
61574SOL    HW186619   2.931  10.482  11.558
61574SOL    HW286620   2.834  10.468  11.443
61575SOL     OW86621   9.497   7.593   1.636
61575SOL    HW186622   9.491   7.513   1.584
61575SOL    HW286623   9.566   7.645   1.593
61576SOL     OW86624   4.585  14.545   1.544
61576SOL    HW186625   4.554  14.471   1.491
61576SOL    HW286626   4.513  14.561   1.606
61577SOL     OW86627  10.178   2.492   9.023
61577SOL    HW186628  10.192   2.412   8.972
61577SOL    HW286629  10.096   2.528   8.990
61578SOL     OW86630  14.081   9.595   7.259
61578SOL    HW186631  14.117   9.658   7.196
61578SOL    HW286632  14.030   9.535   7.205
61579SOL     OW86633  10.901  11.202   4.726
61579SOL    HW186634  10.878  11.220   4.635
61579SOL    HW286635  10.914  11.288   4.765
61580SOL     OW86636   0.061  14.755  13.893
61580SOL    HW186637   0.129  14.811  13.930
61580SOL    HW286638   0.108  14.694  13.835
61581SOL     OW86639   8.306  11.062   4.685
61581SOL    HW186640   8.384  11.009   4.673
61581SOL    HW286641   8.323  11.111   4.766
61582SOL     OW86642   9.277  10.151   9.969
61582SOL    HW186643   9.223  10.174  10.045
61582SOL    HW286644   9.365  10.141  10.005
61583SOL     OW86645   7.692   8.659   2.725
61583SOL    HW186646   7.758   8.707   2.775
61583SOL    HW286647   7.725   8.660   2.635
61584SOL     OW86648   4.429   6.082   5.817
61584SOL    HW186649   4.445   6.176   5.822
61584SOL    HW286650   4.492   6.043   5.877
61585SOL     OW86651  11.403   8.727  12.347
61585SOL    HW186652  11.366   8.802  12.300
61585SOL    HW286653  11.378   8.651  12.294
61586SOL     OW86654  14.066  11.875  14.821
61586SOL    HW186655  14.139  11.819  14.795
61586SOL    HW286656  13.989  11.819  14.814
61587SOL     OW86657  10.146   8.097   5.095
61587SOL    HW186658  10.216   8.087   5.160
61587SOL    HW286659  10.135   8.009   5.059
61588SOL     OW86660  10.683   1.604   1.373
61588SOL    HW186661  10.657   1.680   1.321
61588SOL    HW286662  10.744   1.556   1.317
61589SOL     OW86663   5.437   7.954   5.286
61589SOL    HW186664   5.512   7.936   5.229
61589SOL    HW286665   5.470   8.015   5.352
61590SOL     OW86666   8.140   6.030  14.599
61590SOL    HW186667   8.076   5.988  14.543
61590SOL    HW286668   8.164   6.110  14.552
61591SOL     OW86669  10.912  14.605   1.991
61591SOL    HW186670  10.909  14.547   2.067
61591SOL    HW286671  10.825  14.599   1.952
61592SOL     OW86672   0.170   8.122   4.173
61592SOL    HW186673   0.153   8.156   4.261
61592SOL    HW286674   0.198   8.197   4.122
61593SOL     OW86675  10.934  10.153  11.367
61593SOL    HW186676  10.876  10.224  11.340
61593SOL    HW286677  10.970  10.119  11.284
61594SOL     OW86678   5.872  10.234  13.407
61594SOL    HW186679   5.820  10.154  13.399
61594SOL    HW286680   5.841  10.276  13.487
61595SOL     OW86681   2.446   6.875   4.122
61595SOL    HW186682   2.510   6.808   4.097
61595SOL    HW286683   2.434   6.927   4.043
61596SOL     OW86684   9.605  13.600   8.008
61596SOL    HW186685   9.526  13.547   8.005
61596SOL    HW286686   9.598  13.658   7.933
61597SOL     OW86687   1.359  14.529   5.560
61597SOL    HW186688   1.380  14.610   5.514
61597SOL    HW286689   1.278  14.548   5.606
61598SOL     OW86690   9.500   9.835  10.500
61598SOL    HW186691   9.493   9.890  10.422
61598SOL    HW286692   9.478   9.747  10.470
61599SOL     OW86693  11.645  12.249   3.147
61599SOL    HW186694  11.560  12.222   3.182
61599SOL    HW286695  11.682  12.170   3.109
61600SOL     OW86696   4.413   4.809  11.071
61600SOL    HW186697   4.447   4.786  10.985
61600SOL    HW286698   4.467   4.884  11.099
61601SOL     OW86699  12.804   8.242   7.804
61601SOL    HW186700  12.843   8.329   7.797
61601SOL    HW286701  12.760   8.242   7.888
61602SOL     OW86702   3.569   7.906   1.781
61602SOL    HW186703   3.573   7.863   1.867
61602SOL    HW286704   3.482   7.946   1.778
61603SOL     OW86705   3.460   5.438   7.388
61603SOL    HW186706   3.385   5.434   7.448
61603SOL    HW286707   3.494   5.527   7.398
61604SOL     OW86708   5.342  11.116   4.786
61604SOL    HW186709   5.377  11.140   4.701
61604SOL    HW286710   5.402  11.050   4.820
61605SOL     OW86711   2.129   3.611   4.534
61605SOL    HW186712   2.054   3.668   4.518
61605SOL    HW286713   2.167   3.596   4.448
61606SOL     OW86714   8.808   2.085   1.380
61606SOL    HW186715   8.730   2.100   1.326
61606SOL    HW286716   8.773   2.054   1.464
61607SOL     OW86717  13.538   2.276   8.407
61607SOL    HW186718  13.522   2.320   8.491
61607SOL    HW286719  13.542   2.183   8.429
61608SOL     OW86720   1.481   4.752   5.474
61608SOL    HW186721   1.420   4.787   5.539
61608SOL    HW286722   1.565   4.791   5.496
61609SOL     OW86723   5.473   7.585   5.177
61609SOL    HW186724   5.408   7.617   5.114
61609SOL    HW286725   5.480   7.491   5.158
61610SOL     OW86726  14.752   7.242   3.277
61610SOL    HW186727  14.688   7.313   3.276
61610SOL    HW286728  14.789   7.244   3.365
61611SOL     OW86729   5.330   3.848   8.422
61611SOL    HW186730   5.362   3.921   8.476
61611SOL    HW286731   5.410   3.805   8.391
61612SOL     OW86732   0.827   0.753  13.937
61612SOL    HW186733   0.905   0.806  13.950
61612SOL    HW286734   0.814   0.752  13.842
61613SOL     OW86735  12.745  12.871  14.549
61613SOL    HW186736  12.731  12.951  14.601
61613SOL    HW286737  12.715  12.894  14.461
61614SOL     OW86738  13.075  14.408   5.408
61614SOL    HW186739  13.058  14.468   5.336
61614SOL    HW286740  13.004  14.344   5.404
61615SOL     OW86741   2.688   5.916   3.515
61615SOL    HW186742   2.611   5.923   3.459
61615SOL    HW286743   2.667   5.971   3.591
61616SOL     OW86744   8.386  10.807   0.069
61616SOL    HW186745   8.421  10.861  14.875
61616SOL    HW286746   8.369  10.722   0.028
61617SOL     OW86747  14.668  13.332   4.098
61617SOL    HW186748  14.698  13.423   4.092
61617SOL    HW286749  14.658  13.304   4.007
61618SOL     OW86750  10.265   4.094   6.046
61618SOL    HW186751  10.305   4.154   6.109
61618SOL    HW286752  10.264   4.143   5.964
61619SOL     OW86753   2.136   4.011   5.059
61619SOL    HW186754   2.143   3.915   5.062
61619SOL    HW286755   2.052   4.030   5.099
61620SOL     OW86756  10.915   4.880   0.164
61620SOL    HW186757  10.836   4.826   0.170
61620SOL    HW286758  10.948   4.865   0.075
61621SOL     OW86759   5.391  11.249   8.066
61621SOL    HW186760   5.308  11.256   8.114
61621SOL    HW286761   5.392  11.326   8.010
61622SOL     OW86762   1.934   5.264   3.780
61622SOL    HW186763   1.880   5.248   3.702
61622SOL    HW286764   1.907   5.350   3.810
61623SOL     OW86765   2.330   8.160  14.253
61623SOL    HW186766   2.382   8.107  14.191
61623SOL    HW286767   2.390   8.176  14.326
61624SOL     OW86768   9.933   8.815   3.387
61624SOL    HW186769   9.897   8.779   3.305
61624SOL    HW286770   9.874   8.782   3.455
61625SOL     OW86771  13.801   6.496   2.479
61625SOL    HW186772  13.858   6.518   2.406
61625SOL    HW286773  13.821   6.563   2.545
61626SOL     OW86774  10.946   6.774   6.918
61626SOL    HW186775  10.902   6.857   6.939
61626SOL    HW286776  10.876   6.717   6.887
61627SOL     OW86777   3.698   4.177   5.773
61627SOL    HW186778   3.634   4.114   5.741
61627SOL    HW286779   3.728   4.223   5.694
61628SOL     OW86780  13.941  10.884  12.002
61628SOL    HW186781  13.896  10.863  12.084
61628SOL    HW286782  13.964  10.977  12.010
61629SOL     OW86783   9.261  10.115   1.769
61629SOL    HW186784   9.223  10.045   1.716
61629SOL    HW286785   9.333  10.073   1.817
61630SOL     OW86786   6.817  12.121   4.505
61630SOL    HW186787   6.795  12.038   4.463
61630SOL    HW286788   6.758  12.185   4.465
61631SOL     OW86789   8.581   8.170   2.949
61631SOL    HW186790   8.572   8.212   2.863
61631SOL    HW286791   8.493   8.174   2.986
61632SOL     OW86792   4.049  14.106  13.595
61632SOL    HW186793   4.121  14.167  13.578
61632SOL    HW286794   4.023  14.075  13.508
61633SOL     OW86795  13.199   3.864   6.130
61633SOL    HW186796  13.106   3.870   6.109
61633SOL    HW286797  13.239   3.826   6.052
61634SOL     OW86798   3.022   7.061   1.995
61634SOL    HW186799   3.088   7.003   2.033
61634SOL    HW286800   3.008   7.028   1.907
61635SOL     OW86801   1.214   7.246  11.397
61635SOL    HW186802   1.222   7.159  11.436
61635SOL    HW286803   1.139   7.285  11.441
61636SOL     OW86804   9.222  12.875   7.710
61636SOL    HW186805   9.317  12.881   7.709
61636SOL    HW286806   9.203  12.796   7.660
61637SOL     OW86807   2.969   4.204   3.026
61637SOL    HW186808   2.903   4.165   3.083
61637SOL    HW286809   3.043   4.223   3.084
61638SOL     OW86810   8.806   7.880   2.753
61638SOL    HW186811   8.750   7.877   2.830
61638SOL    HW286812   8.799   7.793   2.714
61639SOL     OW86813  11.220   9.654  10.841
61639SOL    HW186814  11.172   9.735  10.825
61639SOL    HW286815  11.312   9.679  10.829
61640SOL     OW86816  14.490   3.307   9.136
61640SOL    HW186817  14.442   3.356   9.069
61640SOL    HW286818  14.574   3.287   9.096
61641SOL     OW86819   6.699  12.258   5.481
61641SOL    HW186820   6.639  12.330   5.462
61641SOL    HW286821   6.767  12.265   5.413
61642SOL     OW86822  13.459   8.603   2.247
61642SOL    HW186823  13.538   8.592   2.300
61642SOL    HW286824  13.453   8.698   2.233
61643SOL     OW86825  11.333   7.357   1.671
61643SOL    HW186826  11.331   7.306   1.752
61643SOL    HW286827  11.378   7.301   1.608
61644SOL     OW86828  14.859  11.565   7.675
61644SOL    HW186829  14.837  11.544   7.585
61644SOL    HW286830  14.877  11.659   7.674
61645SOL     OW86831   9.839  13.013   5.036
61645SOL    HW186832   9.888  13.095   5.031
61645SOL    HW286833   9.879  12.956   4.970
61646SOL     OW86834   9.943   7.436   8.744
61646SOL    HW186835   9.946   7.346   8.710
61646SOL    HW286836   9.993   7.432   8.825
61647SOL     OW86837   3.736   3.940   3.033
61647SOL    HW186838   3.688   3.916   2.954
61647SOL    HW286839   3.762   3.856   3.071
61648SOL     OW86840  11.250   8.682   5.765
61648SOL    HW186841  11.321   8.661   5.704
61648SOL    HW286842  11.204   8.599   5.778
61649SOL     OW86843   0.206  12.803  11.739
61649SOL    HW186844   0.161  12.755  11.670
61649SOL    HW286845   0.299  12.783  11.727
61650SOL     OW86846   3.913   2.542   7.466
61650SOL    HW186847   3.977   2.585   7.409
61650SOL    HW286848   3.842   2.515   7.407
61651SOL     OW86849   1.260   9.747  13.795
61651SOL    HW186850   1.286   9.775  13.883
61651SOL    HW286851   1.284   9.655  13.790
61652SOL     OW86852   7.116  12.916   4.013
61652SOL    HW186853   7.163  12.833   4.023
61652SOL    HW286854   7.027  12.897   4.043
61653SOL     OW86855   9.931  13.804  13.662
61653SOL    HW186856   9.947  13.786  13.569
61653SOL    HW286857  10.018  13.817  13.700
61654SOL     OW86858   6.044  10.140  10.626
61654SOL    HW186859   6.112  10.129  10.559
61654SOL    HW286860   6.088  10.120  10.708
61655SOL     OW86861  14.864   6.113   5.702
61655SOL    HW186862   0.001   6.041   5.764
61655SOL    HW286863  14.865   6.071   5.616
61656SOL     OW86864   8.624  13.005   1.121
61656SOL    HW186865   8.610  13.069   1.051
61656SOL    HW286866   8.671  13.053   1.188
61657SOL     OW86867  14.696   1.924   4.239
61657SOL    HW186868  14.717   1.855   4.301
61657SOL    HW286869  14.781   1.952   4.204
61658SOL     OW86870   8.756  14.470   1.802
61658SOL    HW186871   8.685  14.528   1.830
61658SOL    HW286872   8.715  14.411   1.739
61659SOL     OW86873   1.627  11.802   4.895
61659SOL    HW186874   1.555  11.742   4.915
61659SOL    HW286875   1.593  11.888   4.919
61660SOL     OW86876  11.783   2.799  13.839
61660SOL    HW186877  11.725   2.724  13.837
61660SOL    HW286878  11.804   2.816  13.747
61661SOL     OW86879   2.220   2.368   1.150
61661SOL    HW186880   2.214   2.464   1.157
61661SOL    HW286881   2.279   2.343   1.221
61662SOL     OW86882   8.611  10.713   9.323
61662SOL    HW186883   8.670  10.699   9.249
61662SOL    HW286884   8.629  10.640   9.382
61663SOL     OW86885   0.684   4.165   5.653
61663SOL    HW186886   0.738   4.220   5.595
61663SOL    HW286887   0.611   4.138   5.597
61664SOL     OW86888  11.350  13.754   8.043
61664SOL    HW186889  11.273  13.726   8.093
61664SOL    HW286890  11.424  13.734   8.100
61665SOL     OW86891   4.077  11.668  14.471
61665SOL    HW186892   4.073  11.734  14.540
61665SOL    HW286893   4.149  11.611  14.496
61666SOL     OW86894   1.646  10.077  10.424
61666SOL    HW186895   1.739  10.060  10.415
61666SOL    HW286896   1.627  10.060  10.516
61667SOL     OW86897  10.149   3.463  13.075
61667SOL    HW186898  10.222   3.474  13.136
61667SOL    HW286899  10.140   3.548  13.033
61668SOL     OW86900   8.406   5.208   9.342
61668SOL    HW186901   8.440   5.215   9.253
61668SOL    HW286902   8.323   5.162   9.332
61669SOL     OW86903   9.715   1.770  10.308
61669SOL    HW186904   9.684   1.860  10.310
61669SOL    HW286905   9.807   1.775  10.333
61670SOL     OW86906  11.743   8.690  14.051
61670SOL    HW186907  11.813   8.626  14.068
61670SOL    HW286908  11.671   8.638  14.016
61671SOL     OW86909  11.112   5.341   3.882
61671SOL    HW186910  11.053   5.411   3.909
61671SOL    HW286911  11.186   5.348   3.941
61672SOL     OW86912   4.281   9.652   4.110
61672SOL    HW186913   4.259   9.681   4.021
61672SOL    HW286914   4.342   9.717   4.142
61673SOL     OW86915  10.445   9.271  10.499
61673SOL    HW186916  10.353   9.297  10.490
61673SOL    HW286917  10.475   9.259  10.409
61674SOL     OW86918  14.490   9.132   0.276
61674SOL    HW186919  14.409   9.139   0.326
61674SOL    HW286920  14.560   9.144   0.341
61675SOL     OW86921   5.632  11.387   5.540
61675SOL    HW186922   5.551  11.359   5.497
61675SOL    HW286923   5.692  11.314   5.529
61676SOL     OW86924  14.272   2.174   8.821
61676SOL    HW186925  14.180   2.157   8.839
61676SOL    HW286926  14.319   2.105   8.869
61677SOL     OW86927   4.519  14.059   5.155
61677SOL    HW186928   4.504  14.116   5.079
61677SOL    HW286929   4.584  13.996   5.125
61678SOL     OW86930   0.040   5.512   6.124
61678SOL    HW186931   0.109   5.486   6.184
61678SOL    HW286932   0.068   5.477   6.039
61679SOL     OW86933   2.961  10.807   5.877
61679SOL    HW186934   3.020  10.825   5.951
61679SOL    HW286935   2.946  10.713   5.881
61680SOL     OW86936   6.829  12.015   2.304
61680SOL    HW186937   6.869  11.963   2.235
61680SOL    HW286938   6.763  12.068   2.260
61681SOL     OW86939   5.097   0.975   6.523
61681SOL    HW186940   5.107   0.951   6.431
61681SOL    HW286941   5.153   0.913   6.570
61682SOL     OW86942   4.152   1.540   2.929
61682SOL    HW186943   4.176   1.604   2.997
61682SOL    HW286944   4.062   1.515   2.951
61683SOL     OW86945   8.675  11.916   1.299
61683SOL    HW186946   8.729  11.959   1.233
61683SOL    HW286947   8.737  11.873   1.357
61684SOL     OW86948   7.017  12.819  14.667
61684SOL    HW186949   7.004  12.901  14.716
61684SOL    HW286950   7.109  12.797  14.681
61685SOL     OW86951   1.416  13.374  12.947
61685SOL    HW186952   1.326  13.405  12.945
61685SOL    HW286953   1.464  13.437  12.893
61686SOL     OW86954   8.665  11.609  10.573
61686SOL    HW186955   8.736  11.604  10.636
61686SOL    HW286956   8.708  11.607  10.487
61687SOL     OW86957   5.520  11.375  13.261
61687SOL    HW186958   5.482  11.454  13.298
61687SOL    HW286959   5.462  11.352  13.188
61688SOL     OW86960   8.040  10.279  14.842
61688SOL    HW186961   7.972  10.276   0.032
61688SOL    HW286962   8.051  10.188  14.815
61689SOL     OW86963   1.808   7.675   9.656
61689SOL    HW186964   1.859   7.706   9.582
61689SOL    HW286965   1.809   7.580   9.647
61690SOL     OW86966   9.445   8.974  13.879
61690SOL    HW186967   9.533   8.938  13.870
61690SOL    HW286968   9.392   8.926  13.815
61691SOL     OW86969   1.660  11.284   6.059
61691SOL    HW186970   1.565  11.272   6.052
61691SOL    HW286971   1.691  11.203   6.100
61692SOL     OW86972  11.757  12.635   4.491
61692SOL    HW186973  11.847  12.611   4.470
61692SOL    HW286974  11.764  12.693   4.567
61693SOL     OW86975  10.396   1.736  12.673
61693SOL    HW186976  10.430   1.789  12.601
61693SOL    HW286977  10.452   1.658  12.675
61694SOL     OW86978   1.063   3.672   5.365
61694SOL    HW186979   1.025   3.693   5.450
61694SOL    HW286980   1.080   3.756   5.324
61695SOL     OW86981   7.817   6.444   6.564
61695SOL    HW186982   7.802   6.513   6.628
61695SOL    HW286983   7.729   6.419   6.534
61696SOL     OW86984   7.025   1.926   9.703
61696SOL    HW186985   7.109   1.879   9.698
61696SOL    HW286986   6.995   1.930   9.612
61697SOL     OW86987   1.844   8.260   9.170
61697SOL    HW186988   1.912   8.327   9.176
61697SOL    HW286989   1.857   8.206   9.248
61698SOL     OW86990   9.676   8.714   5.507
61698SOL    HW186991   9.636   8.648   5.451
61698SOL    HW286992   9.743   8.666   5.556
61699SOL     OW86993   1.410   0.602   3.686
61699SOL    HW186994   1.321   0.615   3.652
61699SOL    HW286995   1.402   0.620   3.780
61700SOL     OW86996   7.729  13.054  10.349
61700SOL    HW186997   7.782  12.986  10.391
61700SOL    HW286998   7.769  13.136  10.375
61701SOL     OW86999   6.566   0.984  11.978
61701SOL    HW187000   6.616   0.987  12.059
61701SOL    HW287001   6.596   1.060  11.928
61702SOL     OW87002   9.952  11.448   5.180
61702SOL    HW187003   9.868  11.480   5.149
61702SOL    HW287004   9.931  11.403   5.262
61703SOL     OW87005   7.139   8.471   7.353
61703SOL    HW187006   7.104   8.554   7.321
61703SOL    HW287007   7.089   8.453   7.433
61704SOL     OW87008   3.926  13.750   2.339
61704SOL    HW187009   3.859  13.775   2.275
61704SOL    HW287010   3.875  13.718   2.414
61705SOL     OW87011  11.458  10.595   6.820
61705SOL    HW187012  11.451  10.555   6.733
61705SOL    HW287013  11.471  10.688   6.803
61706SOL     OW87014  13.657  13.511   6.015
61706SOL    HW187015  13.732  13.524   5.958
61706SOL    HW287016  13.584  13.554   5.970
61707SOL     OW87017   4.381   0.323  11.956
61707SOL    HW187018   4.418   0.252  11.903
61707SOL    HW287019   4.292   0.294  11.977
61708SOL     OW87020   9.054   6.496   7.830
61708SOL    HW187021   9.110   6.528   7.760
61708SOL    HW287022   8.965   6.508   7.797
61709SOL     OW87023   8.793   6.807   1.412
61709SOL    HW187024   8.726   6.751   1.450
61709SOL    HW287025   8.775   6.806   1.318
61710SOL     OW87026   7.873   0.273   6.059
61710SOL    HW187027   7.918   0.313   5.985
61710SOL    HW287028   7.863   0.344   6.123
61711SOL     OW87029  10.516   9.230   9.401
61711SOL    HW187030  10.440   9.181   9.370
61711SOL    HW287031  10.535   9.194   9.488
61712SOL     OW87032  13.333  11.740   4.742
61712SOL    HW187033  13.427  11.758   4.737
61712SOL    HW287034  13.304  11.739   4.651
61713SOL     OW87035   4.151   0.460  14.216
61713SOL    HW187036   4.131   0.552  14.197
61713SOL    HW287037   4.092   0.410  14.160
61714SOL     OW87038  13.818   7.962   8.270
61714SOL    HW187039  13.812   7.908   8.349
61714SOL    HW287040  13.786   7.905   8.200
61715SOL     OW87041  11.026  10.030   2.644
61715SOL    HW187042  11.077  10.000   2.569
61715SOL    HW287043  11.085  10.088   2.692
61716SOL     OW87044   4.122   4.136   4.884
61716SOL    HW187045   4.104   4.230   4.872
61716SOL    HW287046   4.036   4.095   4.878
61717SOL     OW87047  11.191   3.022  11.298
61717SOL    HW187048  11.255   2.954  11.316
61717SOL    HW287049  11.216   3.055  11.211
61718SOL     OW87050   2.972   4.477   4.612
61718SOL    HW187051   2.996   4.515   4.697
61718SOL    HW287052   3.013   4.390   4.613
61719SOL     OW87053   4.225   6.277  13.152
61719SOL    HW187054   4.257   6.194  13.118
61719SOL    HW287055   4.245   6.341  13.084
61720SOL     OW87056   9.291  13.305  11.695
61720SOL    HW187057   9.246  13.227  11.728
61720SOL    HW287058   9.330  13.344  11.773
61721SOL     OW87059   7.480  12.143  11.691
61721SOL    HW187060   7.469  12.187  11.775
61721SOL    HW287061   7.404  12.085  11.684
61722SOL     OW87062   1.773   0.437  10.492
61722SOL    HW187063   1.843   0.459  10.430
61722SOL    HW287064   1.694   0.475  10.453
61723SOL     OW87065  13.262  13.043  14.080
61723SOL    HW187066  13.282  12.964  14.130
61723SOL    HW287067  13.220  13.102  14.143
61724SOL     OW87068  14.689   2.988   5.338
61724SOL    HW187069  14.653   2.905   5.369
61724SOL    HW287070  14.681   3.048   5.412
61725SOL     OW87071  13.280   1.128   0.020
61725SOL    HW187072  13.370   1.106  14.873
61725SOL    HW287073  13.254   1.196  14.835
61726SOL     OW87074   1.592   4.857  14.794
61726SOL    HW187075   1.672   4.808  14.775
61726SOL    HW287076   1.622   4.938  14.836
61727SOL     OW87077  11.011   9.501   1.333
61727SOL    HW187078  11.028   9.407   1.329
61727SOL    HW287079  10.915   9.508   1.327
61728SOL     OW87080  13.436   7.756  11.717
61728SOL    HW187081  13.500   7.787  11.653
61728SOL    HW287082  13.365   7.720  11.664
61729SOL     OW87083  11.499   2.143   6.525
61729SOL    HW187084  11.502   2.130   6.620
61729SOL    HW287085  11.452   2.067   6.492
61730SOL     OW87086  13.312   6.090   7.069
61730SOL    HW187087  13.284   6.001   7.087
61730SOL    HW287088  13.243   6.127   7.014
61731SOL     OW87089  11.714   7.671  14.392
61731SOL    HW187090  11.690   7.741  14.452
61731SOL    HW287091  11.793   7.632  14.430
61732SOL     OW87092   1.148   6.104   3.926
61732SOL    HW187093   1.136   6.176   3.987
61732SOL    HW287094   1.236   6.070   3.945
61733SOL     OW87095   2.207   5.806  14.053
61733SOL    HW187096   2.135   5.743  14.060
61733SOL    HW287097   2.285   5.752  14.047
61734SOL     OW87098   6.636  12.788   1.370
61734SOL    HW187099   6.570  12.856   1.354
61734SOL    HW287100   6.671  12.808   1.457
61735SOL     OW87101   2.299   5.185   5.653
61735SOL    HW187102   2.257   5.150   5.575
61735SOL    HW287103   2.256   5.140   5.726
61736SOL     OW87104   0.796   7.451   0.537
61736SOL    HW187105   0.852   7.426   0.610
61736SOL    HW287106   0.853   7.503   0.480
61737SOL     OW87107   4.362   3.399   7.736
61737SOL    HW187108   4.388   3.458   7.807
61737SOL    HW287109   4.402   3.315   7.759
61738SOL     OW87110  13.913  10.727   8.902
61738SOL    HW187111  13.916  10.648   8.849
61738SOL    HW287112  13.885  10.697   8.989
61739SOL     OW87113   7.410   6.002   4.091
61739SOL    HW187114   7.447   5.938   4.153
61739SOL    HW287115   7.444   6.086   4.120
61740SOL     OW87116  13.193   1.901   5.462
61740SOL    HW187117  13.209   1.893   5.368
61740SOL    HW287118  13.133   1.829   5.482
61741SOL     OW87119  11.767   3.659   4.315
61741SOL    HW187120  11.705   3.729   4.336
61741SOL    HW287121  11.796   3.679   4.226
61742SOL     OW87122  10.325  13.273   5.827
61742SOL    HW187123  10.266  13.347   5.838
61742SOL    HW287124  10.276  13.211   5.774
61743SOL     OW87125  10.099  13.639  12.001
61743SOL    HW187126  10.152  13.662  11.924
61743SOL    HW287127  10.137  13.558  12.034
61744SOL     OW87128   4.913   8.781  14.311
61744SOL    HW187129   4.863   8.713  14.357
61744SOL    HW287130   4.928   8.744  14.224
61745SOL     OW87131   1.473  11.276  10.538
61745SOL    HW187132   1.420  11.336  10.592
61745SOL    HW287133   1.478  11.319  10.453
61746SOL     OW87134  11.644   4.939   6.192
61746SOL    HW187135  11.672   4.918   6.281
61746SOL    HW287136  11.573   5.002   6.203
61747SOL     OW87137   5.908  13.245   8.970
61747SOL    HW187138   5.882  13.222   9.059
61747SOL    HW287139   5.825  13.263   8.925
61748SOL     OW87140   8.099  13.527   1.261
61748SOL    HW187141   8.159  13.505   1.190
61748SOL    HW287142   8.148  13.506   1.341
61749SOL     OW87143  11.900  11.978   1.401
61749SOL    HW187144  11.909  12.066   1.439
61749SOL    HW287145  11.917  11.919   1.474
61750SOL     OW87146   7.621   0.325   6.322
61750SOL    HW187147   7.598   0.391   6.256
61750SOL    HW287148   7.642   0.375   6.401
61751SOL     OW87149   1.537   9.808   7.498
61751SOL    HW187150   1.481   9.782   7.425
61751SOL    HW287151   1.625   9.810   7.460
61752SOL     OW87152   4.126   1.683  13.722
61752SOL    HW187153   4.077   1.692  13.640
61752SOL    HW287154   4.163   1.594  13.718
61753SOL     OW87155   0.257   7.021  10.712
61753SOL    HW187156   0.171   7.035  10.752
61753SOL    HW287157   0.316   7.010  10.785
61754SOL     OW87158  12.713   9.157   2.404
61754SOL    HW187159  12.620   9.168   2.423
61754SOL    HW287160  12.751   9.244   2.416
61755SOL     OW87161   9.476   9.276   1.477
61755SOL    HW187162   9.533   9.211   1.435
61755SOL    HW287163   9.389   9.259   1.441
61756SOL     OW87164  10.973  10.183  13.818
61756SOL    HW187165  10.896  10.176  13.762
61756SOL    HW287166  11.045  10.150  13.765
61757SOL     OW87167  11.410  10.653   8.928
61757SOL    HW187168  11.342  10.615   8.984
61757SOL    HW287169  11.384  10.745   8.919
61758SOL     OW87170  13.694   0.251   7.853
61758SOL    HW187171  13.620   0.253   7.914
61758SOL    HW287172  13.658   0.213   7.772
61759SOL     OW87173   2.939   7.416  12.687
61759SOL    HW187174   3.007   7.389  12.748
61759SOL    HW287175   2.931   7.510  12.701
61760SOL     OW87176  14.846   2.530  12.207
61760SOL    HW187177   0.063   2.524  12.222
61760SOL    HW287178  14.813   2.578  12.283
61761SOL     OW87179   5.017  12.286   6.719
61761SOL    HW187180   4.962  12.349   6.672
61761SOL    HW287181   4.960  12.210   6.732
61762SOL     OW87182   5.813   0.607   1.079
61762SOL    HW187183   5.750   0.677   1.065
61762SOL    HW287184   5.777   0.557   1.152
61763SOL     OW87185   5.714   5.771   1.587
61763SOL    HW187186   5.682   5.836   1.524
61763SOL    HW287187   5.804   5.753   1.560
61764SOL     OW87188   6.903  10.104  13.382
61764SOL    HW187189   6.912  10.152  13.464
61764SOL    HW287190   6.984  10.053  13.375
61765SOL     OW87191   4.004   7.984   4.981
61765SOL    HW187192   4.081   8.012   5.030
61765SOL    HW287193   4.007   8.034   4.899
61766SOL     OW87194   0.019  14.154   3.664
61766SOL    HW187195   0.070  14.230   3.692
61766SOL    HW287196  14.807  14.173   3.692
61767SOL     OW87197   0.731   4.468   5.418
61767SOL    HW187198   0.671   4.412   5.368
61767SOL    HW287199   0.785   4.407   5.468
61768SOL     OW87200   8.267  14.366   6.161
61768SOL    HW187201   8.335  14.332   6.103
61768SOL    HW287202   8.305  14.361   6.249
61769SOL     OW87203  12.199   1.961   5.130
61769SOL    HW187204  12.117   1.919   5.156
61769SOL    HW287205  12.191   1.973   5.036
61770SOL     OW87206  14.656   0.357   7.617
61770SOL    HW187207  14.633   0.434   7.670
61770SOL    HW287208  14.631   0.282   7.671
61771SOL     OW87209   6.276   8.642   8.105
61771SOL    HW187210   6.352   8.701   8.103
61771SOL    HW287211   6.308   8.563   8.147
61772SOL     OW87212   7.536  13.957   6.717
61772SOL    HW187213   7.485  13.879   6.700
61772SOL    HW287214   7.480  14.030   6.690
61773SOL     OW87215   4.081   9.060   0.407
61773SOL    HW187216   4.029   8.981   0.392
61773SOL    HW287217   4.124   9.044   0.491
61774SOL     OW87218  14.872  10.641   5.224
61774SOL    HW187219   0.067  10.595   5.181
61774SOL    HW287220  14.850  10.712   5.163
61775SOL     OW87221   6.319  13.528   4.150
61775SOL    HW187222   6.387  13.582   4.109
61775SOL    HW287223   6.363  13.485   4.223
61776SOL     OW87224  14.845  12.106   4.939
61776SOL    HW187225   0.023  12.060   4.876
61776SOL    HW287226   0.024  12.174   4.976
61777SOL     OW87227  14.045   2.109   6.491
61777SOL    HW187228  14.041   2.061   6.574
61777SOL    HW287229  13.954   2.113   6.461
61778SOL     OW87230   6.054   8.735   0.635
61778SOL    HW187231   6.030   8.828   0.640
61778SOL    HW287232   6.097   8.717   0.719
61779SOL     OW87233   9.304  13.872   0.321
61779SOL    HW187234   9.293  13.780   0.346
61779SOL    HW287235   9.236  13.888   0.256
61780SOL     OW87236   4.347  14.141  13.835
61780SOL    HW187237   4.281  14.140  13.905
61780SOL    HW287238   4.382  14.052  13.835
61781SOL     OW87239  10.112  13.634   7.632
61781SOL    HW187240  10.184  13.696   7.621
61781SOL    HW287241  10.077  13.653   7.718
61782SOL     OW87242   2.149  11.242   0.833
61782SOL    HW187243   2.160  11.184   0.908
61782SOL    HW287244   2.070  11.211   0.789
61783SOL     OW87245   1.187   5.699  13.345
61783SOL    HW187246   1.147   5.727  13.427
61783SOL    HW287247   1.202   5.605  13.356
61784SOL     OW87248  13.488  11.644   1.036
61784SOL    HW187249  13.564  11.689   0.998
61784SOL    HW287250  13.460  11.582   0.968
61785SOL     OW87251   7.848  13.263   1.022
61785SOL    HW187252   7.927  13.212   1.003
61785SOL    HW287253   7.808  13.276   0.936
61786SOL     OW87254   8.355   6.183   4.615
61786SOL    HW187255   8.421   6.206   4.680
61786SOL    HW287256   8.272   6.183   4.663
61787SOL     OW87257   2.775  13.560   0.507
61787SOL    HW187258   2.782  13.641   0.556
61787SOL    HW287259   2.718  13.504   0.560
61788SOL     OW87260  10.753  14.611   6.751
61788SOL    HW187261  10.670  14.642   6.714
61788SOL    HW287262  10.817  14.678   6.727
61789SOL     OW87263  14.333   1.482   8.125
61789SOL    HW187264  14.376   1.460   8.042
61789SOL    HW287265  14.403   1.477   8.190
61790SOL     OW87266   7.045   6.224   3.577
61790SOL    HW187267   7.117   6.174   3.538
61790SOL    HW287268   6.969   6.203   3.523
61791SOL     OW87269   7.960  11.753   5.808
61791SOL    HW187270   7.985  11.841   5.835
61791SOL    HW287271   8.025  11.695   5.847
61792SOL     OW87272   4.455   5.831   9.141
61792SOL    HW187273   4.525   5.767   9.152
61792SOL    HW287274   4.376   5.784   9.167
61793SOL     OW87275  11.509  10.356   3.705
61793SOL    HW187276  11.604  10.358   3.695
61793SOL    HW287277  11.482  10.280   3.652
61794SOL     OW87278   3.742   2.953   6.050
61794SOL    HW187279   3.716   2.967   5.959
61794SOL    HW287280   3.826   2.998   6.058
61795SOL     OW87281  12.324   4.496   1.983
61795SOL    HW187282  12.236   4.457   1.986
61795SOL    HW287283  12.381   4.426   2.015
61796SOL     OW87284  12.252  14.508   0.526
61796SOL    HW187285  12.330  14.515   0.581
61796SOL    HW287286  12.284  14.470   0.444
61797SOL     OW87287   7.873   8.663  12.039
61797SOL    HW187288   7.791   8.616  12.055
61797SOL    HW287289   7.927   8.600  11.992
61798SOL     OW87290   8.253  12.511   8.560
61798SOL    HW187291   8.192  12.448   8.596
61798SOL    HW287292   8.254  12.493   8.466
61799SOL     OW87293   7.452  11.253   9.550
61799SOL    HW187294   7.511  11.248   9.475
61799SOL    HW287295   7.494  11.315   9.609
61800SOL     OW87296   8.068   4.490   1.939
61800SOL    HW187297   8.103   4.501   1.851
61800SOL    HW287298   8.120   4.420   1.977
61801SOL     OW87299   7.272  13.519   4.060
61801SOL    HW187300   7.349  13.546   4.010
61801SOL    HW287301   7.204  13.507   3.994
61802SOL     OW87302  11.135  13.042   7.362
61802SOL    HW187303  11.083  12.968   7.330
61802SOL    HW287304  11.224  13.008   7.366
61803SOL     OW87305   4.472   8.900   8.229
61803SOL    HW187306   4.516   8.865   8.306
61803SOL    HW287307   4.399   8.951   8.264
61804SOL     OW87308   4.938  14.542   5.284
61804SOL    HW187309   4.863  14.589   5.320
61804SOL    HW287310   5.014  14.590   5.317
61805SOL     OW87311  14.185   1.422  12.507
61805SOL    HW187312  14.128   1.416  12.430
61805SOL    HW287313  14.233   1.503  12.495
61806SOL     OW87314  10.932   1.961  10.190
61806SOL    HW187315  10.900   1.894  10.250
61806SOL    HW287316  11.027   1.949  10.189
61807SOL     OW87317   4.891  14.503   2.072
61807SOL    HW187318   4.858  14.590   2.094
61807SOL    HW287319   4.835  14.473   2.001
61808SOL     OW87320   9.271  12.561   7.914
61808SOL    HW187321   9.228  12.646   7.917
61808SOL    HW287322   9.216  12.503   7.967
61809SOL     OW87323  10.857  11.523   2.731
61809SOL    HW187324  10.881  11.461   2.662
61809SOL    HW287325  10.847  11.607   2.685
61810SOL     OW87326   6.915   9.771   5.841
61810SOL    HW187327   6.996   9.762   5.790
61810SOL    HW287328   6.919   9.859   5.877
61811SOL     OW87329  11.065   7.655  13.698
61811SOL    HW187330  11.103   7.734  13.659
61811SOL    HW287331  11.131   7.626  13.761
61812SOL     OW87332   2.493   5.550  14.032
61812SOL    HW187333   2.474   5.463  13.997
61812SOL    HW287334   2.424   5.565  14.097
61813SOL     OW87335   1.907   3.372   0.580
61813SOL    HW187336   1.972   3.313   0.542
61813SOL    HW287337   1.948   3.402   0.661
61814SOL     OW87338   4.609   0.766   0.176
61814SOL    HW187339   4.681   0.821   0.206
61814SOL    HW287340   4.543   0.827   0.143
61815SOL     OW87341   7.907   3.749   0.915
61815SOL    HW187342   7.877   3.835   0.943
61815SOL    HW287343   7.989   3.766   0.868
61816SOL     OW87344   6.091  13.234   2.621
61816SOL    HW187345   6.043  13.291   2.681
61816SOL    HW287346   6.130  13.166   2.677
61817SOL     OW87347   1.349   1.584  14.712
61817SOL    HW187348   1.385   1.660  14.667
61817SOL    HW287349   1.385   1.588  14.800
61818SOL     OW87350   2.651   5.492   3.951
61818SOL    HW187351   2.611   5.489   3.864
61818SOL    HW287352   2.685   5.403   3.965
61819SOL     OW87353   4.541   2.452   4.489
61819SOL    HW187354   4.624   2.409   4.473
61819SOL    HW287355   4.544   2.532   4.437
61820SOL     OW87356  13.107   0.467  14.756
61820SOL    HW187357  13.040   0.416  14.710
61820SOL    HW287358  13.108   0.432  14.845
61821SOL     OW87359   0.113   1.491   4.075
61821SOL    HW187360   0.051   1.547   4.123
61821SOL    HW287361   0.195   1.540   4.077
61822SOL     OW87362   2.487   4.136  12.076
61822SOL    HW187363   2.425   4.198  12.038
61822SOL    HW287364   2.564   4.142  12.019
61823SOL     OW87365  10.770   9.489   9.626
61823SOL    HW187366  10.836   9.554   9.650
61823SOL    HW287367  10.698   9.540   9.588
61824SOL     OW87368   8.834  10.244   6.164
61824SOL    HW187369   8.748  10.285   6.150
61824SOL    HW287370   8.878  10.302   6.226
61825SOL     OW87371   9.167   9.232  11.287
61825SOL    HW187372   9.145   9.291  11.215
61825SOL    HW287373   9.083   9.215  11.330
61826SOL     OW87374   2.328   6.633  12.900
61826SOL    HW187375   2.378   6.575  12.843
61826SOL    HW287376   2.281   6.691  12.840
61827SOL     OW87377   6.720   6.189   7.276
61827SOL    HW187378   6.799   6.142   7.304
61827SOL    HW287379   6.740   6.220   7.188
61828SOL     OW87380  12.278  10.255   6.216
61828SOL    HW187381  12.372  10.243   6.225
61828SOL    HW287382  12.249  10.286   6.303
61829SOL     OW87383   4.775   2.530  13.136
61829SOL    HW187384   4.811   2.614  13.161
61829SOL    HW287385   4.843   2.466  13.160
61830SOL     OW87386   0.247   7.779  10.326
61830SOL    HW187387   0.291   7.813  10.404
61830SOL    HW287388   0.202   7.855  10.289
61831SOL     OW87389  13.390   0.075   8.175
61831SOL    HW187390  13.407   0.006   8.239
61831SOL    HW287391  13.295   0.080   8.169
61832SOL     OW87392   9.330   7.761   4.687
61832SOL    HW187393   9.301   7.851   4.678
61832SOL    HW287394   9.261   7.718   4.736
61833SOL     OW87395   4.112   1.978   0.280
61833SOL    HW187396   4.139   1.991   0.370
61833SOL    HW287397   4.102   1.883   0.271
61834SOL     OW87398   0.207   6.852   2.058
61834SOL    HW187399   0.148   6.882   2.127
61834SOL    HW287400   0.271   6.797   2.102
61835SOL     OW87401   2.631   4.235   3.305
61835SOL    HW187402   2.630   4.194   3.392
61835SOL    HW287403   2.638   4.162   3.244
61836SOL     OW87404  10.032   8.000   3.477
61836SOL    HW187405  10.068   7.952   3.551
61836SOL    HW287406   9.979   7.935   3.430
61837SOL     OW87407  12.021  11.386  10.797
61837SOL    HW187408  11.982  11.345  10.720
61837SOL    HW287409  12.106  11.418  10.767
61838SOL     OW87410   0.425  11.697   4.292
61838SOL    HW187411   0.451  11.784   4.260
61838SOL    HW287412   0.330  11.698   4.287
61839SOL     OW87413   2.927   8.426   8.186
61839SOL    HW187414   2.873   8.404   8.262
61839SOL    HW287415   3.002   8.367   8.194
61840SOL     OW87416   9.353  13.824   5.849
61840SOL    HW187417   9.364  13.860   5.937
61840SOL    HW287418   9.440  13.792   5.826
61841SOL     OW87419  11.090  14.560  11.749
61841SOL    HW187420  11.160  14.496  11.739
61841SOL    HW287421  11.032  14.545  11.674
61842SOL     OW87422   0.867   9.805   0.713
61842SOL    HW187423   0.884   9.899   0.724
61842SOL    HW287424   0.941   9.762   0.755
61843SOL     OW87425   5.270  10.148  12.140
61843SOL    HW187426   5.290  10.190  12.223
61843SOL    HW287427   5.346  10.169  12.084
61844SOL     OW87428   3.223   0.108   2.340
61844SOL    HW187429   3.181   0.064   2.266
61844SOL    HW287430   3.232   0.040   2.406
61845SOL     OW87431  11.636  11.714  13.071
61845SOL    HW187432  11.625  11.740  12.979
61845SOL    HW287433  11.670  11.624  13.067
61846SOL     OW87434  12.498   7.315   9.153
61846SOL    HW187435  12.491   7.221   9.169
61846SOL    HW287436  12.429   7.334   9.089
61847SOL     OW87437  10.850   0.014   7.393
61847SOL    HW187438  10.926   0.053   7.436
61847SOL    HW287439  10.778   0.029   7.454
61848SOL     OW87440  10.004   6.718  12.281
61848SOL    HW187441   9.939   6.693  12.348
61848SOL    HW287442  10.087   6.723  12.329
61849SOL     OW87443  10.655  10.178  14.040
61849SOL    HW187444  10.667  10.097  14.089
61849SOL    HW287445  10.631  10.243  14.106
61850SOL     OW87446   2.275  11.028  13.115
61850SOL    HW187447   2.370  11.014  13.108
61850SOL    HW287448   2.241  11.003  13.029
61851SOL     OW87449   4.985   9.225   1.377
61851SOL    HW187450   4.969   9.260   1.464
61851SOL    HW287451   5.066   9.175   1.386
61852SOL     OW87452   6.348   9.897   2.364
61852SOL    HW187453   6.313   9.942   2.287
61852SOL    HW287454   6.336   9.804   2.345
61853SOL     OW87455  13.761   0.567   1.727
61853SOL    HW187456  13.735   0.635   1.789
61853SOL    HW287457  13.726   0.596   1.643
61854SOL     OW87458  12.324  13.825   8.329
61854SOL    HW187459  12.350  13.917   8.324
61854SOL    HW287460  12.234  13.828   8.360
61855SOL     OW87461   3.317  10.798   2.183
61855SOL    HW187462   3.280  10.770   2.099
61855SOL    HW287463   3.244  10.839   2.229
61856SOL     OW87464   1.930   9.111   9.791
61856SOL    HW187465   1.845   9.067   9.783
61856SOL    HW287466   1.947   9.113   9.885
61857SOL     OW87467   1.926   5.193  11.017
61857SOL    HW187468   1.917   5.124  10.951
61857SOL    HW287469   2.001   5.166  11.070
61858SOL     OW87470   0.626   5.042   0.116
61858SOL    HW187471   0.533   5.060   0.102
61858SOL    HW287472   0.642   4.960   0.069
61859SOL     OW87473   7.667   4.886   8.841
61859SOL    HW187474   7.747   4.864   8.887
61859SOL    HW287475   7.684   4.863   8.750
61860SOL     OW87476   1.400  11.786   2.641
61860SOL    HW187477   1.431  11.826   2.560
61860SOL    HW287478   1.466  11.808   2.706
61861SOL     OW87479  14.679   8.524  13.966
61861SOL    HW187480  14.657   8.458  13.900
61861SOL    HW287481  14.692   8.604  13.916
61862SOL     OW87482  13.960   5.225  10.379
61862SOL    HW187483  13.948   5.156  10.444
61862SOL    HW287484  14.027   5.191  10.320
61863SOL     OW87485   4.464  10.210   1.946
61863SOL    HW187486   4.509  10.158   1.879
61863SOL    HW287487   4.407  10.269   1.897
61864SOL     OW87488  11.899   5.667  10.118
61864SOL    HW187489  11.832   5.600  10.128
61864SOL    HW287490  11.920   5.668  10.025
61865SOL     OW87491   7.516   6.338   5.030
61865SOL    HW187492   7.506   6.296   5.115
61865SOL    HW287493   7.431   6.379   5.014
61866SOL     OW87494   4.906   5.238   0.695
61866SOL    HW187495   4.909   5.284   0.611
61866SOL    HW287496   4.997   5.228   0.721
61867SOL     OW87497   1.200   5.575   3.742
61867SOL    HW187498   1.183   5.554   3.650
61867SOL    HW287499   1.195   5.671   3.745
61868SOL     OW87500   5.892   0.084   7.787
61868SOL    HW187501   5.853   0.012   7.737
61868SOL    HW287502   5.878   0.161   7.732
61869SOL     OW87503  11.601   1.145  13.781
61869SOL    HW187504  11.631   1.067  13.734
61869SOL    HW287505  11.518   1.118  13.821
61870SOL     OW87506   1.161   5.646   9.129
61870SOL    HW187507   1.092   5.582   9.112
61870SOL    HW287508   1.145   5.677   9.218
61871SOL     OW87509   6.118   6.664   7.178
61871SOL    HW187510   6.182   6.664   7.250
61871SOL    HW287511   6.043   6.617   7.213
61872SOL     OW87512  14.616   4.406   9.107
61872SOL    HW187513  14.700   4.365   9.087
61872SOL    HW287514  14.622   4.494   9.070
61873SOL     OW87515   0.727   4.901   2.428
61873SOL    HW187516   0.799   4.844   2.402
61873SOL    HW287517   0.687   4.929   2.346
61874SOL     OW87518   0.466   2.482   6.708
61874SOL    HW187519   0.548   2.456   6.666
61874SOL    HW287520   0.421   2.399   6.727
61875SOL     OW87521  10.300  10.425  10.925
61875SOL    HW187522  10.325  10.481  10.852
61875SOL    HW287523  10.223  10.467  10.963
61876SOL     OW87524   1.548  12.906   5.523
61876SOL    HW187525   1.476  12.962   5.492
61876SOL    HW287526   1.512  12.860   5.599
61877SOL     OW87527  10.651   9.390  14.256
61877SOL    HW187528  10.714   9.327  14.220
61877SOL    HW287529  10.615   9.347  14.333
61878SOL     OW87530   1.607   3.890   3.774
61878SOL    HW187531   1.659   3.856   3.701
61878SOL    HW287532   1.603   3.817   3.836
61879SOL     OW87533   4.078   5.105   2.029
61879SOL    HW187534   4.107   5.015   2.045
61879SOL    HW287535   4.030   5.129   2.108
61880SOL     OW87536   6.967   3.516   0.931
61880SOL    HW187537   6.985   3.449   0.864
61880SOL    HW287538   6.892   3.565   0.896
61881SOL     OW87539  14.472   5.468   4.929
61881SOL    HW187540  14.488   5.373   4.930
61881SOL    HW287541  14.379   5.476   4.907
61882SOL     OW87542  13.471   1.288  11.482
61882SOL    HW187543  13.483   1.371  11.436
61882SOL    HW287544  13.471   1.312  11.575
61883SOL     OW87545   5.119   3.620   2.008
61883SOL    HW187546   5.078   3.592   2.089
61883SOL    HW287547   5.076   3.703   1.986
61884SOL     OW87548  10.858   7.799   2.370
61884SOL    HW187549  10.799   7.735   2.332
61884SOL    HW287550  10.833   7.882   2.329
61885SOL     OW87551  11.236  10.397   7.256
61885SOL    HW187552  11.182  10.331   7.213
61885SOL    HW287553  11.184  10.426   7.330
61886SOL     OW87554   3.318   7.070   0.135
61886SOL    HW187555   3.396   7.017   0.120
61886SOL    HW287556   3.288   7.095   0.048
61887SOL     OW87557   5.249   4.522  12.705
61887SOL    HW187558   5.218   4.448  12.652
61887SOL    HW287559   5.173   4.546  12.758
61888SOL     OW87560   1.159   3.496   6.626
61888SOL    HW187561   1.168   3.498   6.531
61888SOL    HW287562   1.218   3.426   6.654
61889SOL     OW87563   3.470   4.960   5.613
61889SOL    HW187564   3.539   4.914   5.566
61889SOL    HW287565   3.497   4.958   5.705
61890SOL     OW87566   3.574  10.793  10.013
61890SOL    HW187567   3.637  10.865  10.014
61890SOL    HW287568   3.625  10.717  10.041
61891SOL     OW87569   1.748  11.781   3.705
61891SOL    HW187570   1.716  11.777   3.794
61891SOL    HW287571   1.689  11.841   3.660
61892SOL     OW87572  12.726   5.758   8.558
61892SOL    HW187573  12.729   5.805   8.641
61892SOL    HW287574  12.703   5.824   8.493
61893SOL     OW87575   3.542   2.504   1.159
61893SOL    HW187576   3.487   2.431   1.133
61893SOL    HW287577   3.596   2.522   1.082
61894SOL     OW87578   1.732  12.633   6.341
61894SOL    HW187579   1.676  12.557   6.321
61894SOL    HW287580   1.670  12.706   6.351
61895SOL     OW87581  12.111   9.303   9.402
61895SOL    HW187582  12.167   9.289   9.326
61895SOL    HW287583  12.169   9.344   9.467
61896SOL     OW87584  10.648   8.343   4.486
61896SOL    HW187585  10.611   8.419   4.531
61896SOL    HW287586  10.672   8.376   4.399
61897SOL     OW87587  14.645   1.144   0.114
61897SOL    HW187588  14.655   1.219   0.055
61897SOL    HW287589  14.589   1.083   0.065
61898SOL     OW87590  12.598  14.711  10.308
61898SOL    HW187591  12.526  14.751  10.261
61898SOL    HW287592  12.583  14.617  10.300
61899SOL     OW87593   9.419   5.694   0.496
61899SOL    HW187594   9.502   5.723   0.534
61899SOL    HW287595   9.416   5.738   0.410
61900SOL     OW87596  13.913  13.152   2.245
61900SOL    HW187597  13.912  13.066   2.287
61900SOL    HW287598  14.005  13.168   2.225
61901SOL     OW87599   8.025   0.619  12.421
61901SOL    HW187600   8.118   0.639  12.418
61901SOL    HW287601   7.986   0.693  12.468
61902SOL     OW87602   6.622   4.182  13.125
61902SOL    HW187603   6.558   4.129  13.079
61902SOL    HW287604   6.703   4.131  13.122
61903SOL     OW87605  12.548   5.723   8.946
61903SOL    HW187606  12.508   5.809   8.928
61903SOL    HW287607  12.524   5.704   9.036
61904SOL     OW87608   4.748   5.163   6.038
61904SOL    HW187609   4.790   5.219   5.973
61904SOL    HW287610   4.666   5.135   5.997
61905SOL     OW87611  14.698   5.398   3.056
61905SOL    HW187612  14.786   5.368   3.079
61905SOL    HW287613  14.650   5.397   3.139
61906SOL     OW87614   5.750  13.377  14.476
61906SOL    HW187615   5.676  13.329  14.440
61906SOL    HW287616   5.827  13.335  14.437
61907SOL     OW87617   3.613   4.641   5.359
61907SOL    HW187618   3.676   4.714   5.352
61907SOL    HW287619   3.579   4.648   5.448
61908SOL     OW87620  12.047   9.126  14.197
61908SOL    HW187621  11.992   9.048  14.201
61908SOL    HW287622  11.990   9.197  14.225
61909SOL     OW87623   4.504   7.523   6.096
61909SOL    HW187624   4.572   7.465   6.131
61909SOL    HW287625   4.498   7.593   6.161
61910SOL     OW87626   5.907   5.310   1.349
61910SOL    HW187627   5.898   5.305   1.444
61910SOL    HW287628   5.835   5.257   1.315
61911SOL     OW87629   1.593   8.021  10.155
61911SOL    HW187630   1.669   7.994  10.103
61911SOL    HW287631   1.623   8.016  10.246
61912SOL     OW87632   3.791  12.856   0.746
61912SOL    HW187633   3.804  12.763   0.727
61912SOL    HW287634   3.710  12.878   0.701
61913SOL     OW87635   9.105  11.392  12.866
61913SOL    HW187636   9.129  11.391  12.773
61913SOL    HW287637   9.050  11.469  12.876
61914SOL     OW87638   9.024   9.102   3.427
61914SOL    HW187639   9.076   9.022   3.414
61914SOL    HW287640   9.047   9.130   3.516
61915SOL     OW87641  12.538  12.666   5.955
61915SOL    HW187642  12.565  12.755   5.978
61915SOL    HW287643  12.568  12.655   5.864
61916SOL     OW87644   8.037   1.197   1.231
61916SOL    HW187645   8.116   1.203   1.178
61916SOL    HW287646   8.059   1.134   1.300
61917SOL     OW87647  10.091   1.302   5.833
61917SOL    HW187648  10.003   1.264   5.834
61917SOL    HW287649  10.085   1.377   5.774
61918SOL     OW87650   8.381  10.277   9.085
61918SOL    HW187651   8.385  10.206   9.021
61918SOL    HW287652   8.290  10.277   9.115
61919SOL     OW87653   1.793  13.487   9.890
61919SOL    HW187654   1.878  13.500   9.933
61919SOL    HW287655   1.735  13.548   9.935
61920SOL     OW87656  13.649   4.247   3.660
61920SOL    HW187657  13.557   4.236   3.636
61920SOL    HW287658  13.695   4.179   3.610
61921SOL     OW87659   5.957   9.203   9.249
61921SOL    HW187660   5.977   9.126   9.303
61921SOL    HW287661   5.874   9.235   9.284
61922SOL     OW87662   6.453  12.951   7.230
61922SOL    HW187663   6.416  13.039   7.242
61922SOL    HW287664   6.377  12.896   7.207
61923SOL     OW87665  13.494   9.535   5.515
61923SOL    HW187666  13.497   9.461   5.576
61923SOL    HW287667  13.436   9.599   5.556
61924SOL     OW87668   4.971   4.551   7.416
61924SOL    HW187669   5.062   4.555   7.387
61924SOL    HW287670   4.948   4.641   7.437
61925SOL     OW87671   7.957  11.217   4.494
61925SOL    HW187672   7.866  11.208   4.522
61925SOL    HW287673   7.992  11.290   4.546
61926SOL     OW87674   4.410   0.988   9.274
61926SOL    HW187675   4.418   1.055   9.341
61926SOL    HW287676   4.410   0.905   9.323
61927SOL     OW87677   5.924   5.659  12.559
61927SOL    HW187678   5.991   5.607  12.604
61927SOL    HW287679   5.850   5.599  12.551
61928SOL     OW87680   0.021   5.234   2.368
61928SOL    HW187681   0.059   5.152   2.336
61928SOL    HW287682   0.079   5.302   2.334
61929SOL     OW87683  13.542   3.901   1.914
61929SOL    HW187684  13.596   3.865   1.844
61929SOL    HW287685  13.596   3.892   1.993
61930SOL     OW87686   7.269   3.903   4.822
61930SOL    HW187687   7.307   3.929   4.905
61930SOL    HW287688   7.293   3.972   4.761
61931SOL     OW87689   5.873  14.478   1.276
61931SOL    HW187690   5.934  14.508   1.209
61931SOL    HW287691   5.787  14.505   1.243
61932SOL     OW87692   6.303   4.516   8.406
61932SOL    HW187693   6.239   4.562   8.353
61932SOL    HW287694   6.263   4.431   8.424
61933SOL     OW87695   2.451  12.204   0.629
61933SOL    HW187696   2.432  12.269   0.562
61933SOL    HW287697   2.485  12.129   0.581
61934SOL     OW87698   7.005   0.943  10.814
61934SOL    HW187699   7.008   0.868  10.755
61934SOL    HW287700   7.071   1.003  10.779
61935SOL     OW87701   8.069   6.690   5.539
61935SOL    HW187702   8.022   6.773   5.530
61935SOL    HW287703   8.009   6.634   5.588
61936SOL     OW87704   3.593   5.895   7.184
61936SOL    HW187705   3.624   5.808   7.159
61936SOL    HW287706   3.672   5.950   7.183
61937SOL     OW87707   3.435  10.753  12.615
61937SOL    HW187708   3.426  10.661  12.593
61937SOL    HW287709   3.346  10.786  12.617
61938SOL     OW87710   2.470  11.297   8.138
61938SOL    HW187711   2.427  11.359   8.079
61938SOL    HW287712   2.406  11.226   8.149
61939SOL     OW87713   9.306   2.169   5.268
61939SOL    HW187714   9.366   2.216   5.326
61939SOL    HW287715   9.287   2.230   5.197
61940SOL     OW87716  10.548   8.902   4.974
61940SOL    HW187717  10.550   8.868   5.063
61940SOL    HW287718  10.514   8.991   4.983
61941SOL     OW87719  13.632   3.342   4.882
61941SOL    HW187720  13.694   3.269   4.875
61941SOL    HW287721  13.683   3.419   4.857
61942SOL     OW87722   8.790   2.081   3.406
61942SOL    HW187723   8.742   2.052   3.483
61942SOL    HW287724   8.838   2.158   3.435
61943SOL     OW87725   4.604   7.925  14.643
61943SOL    HW187726   4.588   8.005  14.594
61943SOL    HW287727   4.629   7.954  14.731
61944SOL     OW87728   9.554  14.006   3.080
61944SOL    HW187729   9.624  13.941   3.070
61944SOL    HW287730   9.535  14.035   2.991
61945SOL     OW87731  13.797  13.286  12.756
61945SOL    HW187732  13.877  13.251  12.795
61945SOL    HW287733  13.736  13.293  12.829
61946SOL     OW87734  14.214   1.594   4.673
61946SOL    HW187735  14.170   1.593   4.587
61946SOL    HW287736  14.163   1.532   4.726
61947SOL     OW87737  12.066  14.785  11.805
61947SOL    HW187738  11.983  14.832  11.808
61947SOL    HW287739  12.098  14.787  11.895
61948SOL     OW87740   0.993   9.869   1.211
61948SOL    HW187741   0.991   9.860   1.306
61948SOL    HW287742   0.901   9.864   1.184
61949SOL     OW87743   5.939   0.929   6.098
61949SOL    HW187744   5.916   0.855   6.155
61949SOL    HW287745   5.905   0.904   6.012
61950SOL     OW87746   1.583  13.617   7.584
61950SOL    HW187747   1.496  13.584   7.605
61950SOL    HW287748   1.579  13.639   7.491
61951SOL     OW87749  10.964   8.811   4.023
61951SOL    HW187750  10.973   8.718   4.003
61951SOL    HW287751  11.018   8.824   4.101
61952SOL     OW87752  11.527   2.494   7.324
61952SOL    HW187753  11.479   2.415   7.349
61952SOL    HW287754  11.463   2.565   7.331
61953SOL     OW87755   5.895  13.833  13.617
61953SOL    HW187756   5.888  13.738  13.609
61953SOL    HW287757   5.805  13.864  13.622
61954SOL     OW87758   3.273   3.286   4.090
61954SOL    HW187759   3.199   3.226   4.089
61954SOL    HW287760   3.286   3.308   4.182
61955SOL     OW87761   6.772  12.755  14.781
61955SOL    HW187762   6.717  12.722  14.710
61955SOL    HW287763   6.853  12.781  14.738
61956SOL     OW87764   1.709   9.134   3.044
61956SOL    HW187765   1.770   9.068   3.011
61956SOL    HW287766   1.637   9.134   2.981
61957SOL     OW87767   9.263  14.358   1.794
61957SOL    HW187768   9.325  14.297   1.834
61957SOL    HW287769   9.284  14.355   1.701
61958SOL     OW87770  14.772   8.996  11.220
61958SOL    HW187771  14.694   8.983  11.274
61958SOL    HW287772  14.844   9.001  11.283
61959SOL     OW87773   8.287  11.533   8.373
61959SOL    HW187774   8.380  11.555   8.364
61959SOL    HW287775   8.272  11.528   8.467
61960SOL     OW87776  13.941   4.736  13.634
61960SOL    HW187777  13.927   4.643  13.654
61960SOL    HW287778  14.011   4.736  13.569
61961SOL     OW87779   5.669  12.064   3.704
61961SOL    HW187780   5.720  12.038   3.626
61961SOL    HW287781   5.591  12.106   3.668
61962SOL     OW87782   2.686   4.037   3.140
61962SOL    HW187783   2.658   4.069   3.054
61962SOL    HW287784   2.748   3.967   3.121
61963SOL     OW87785   8.880  14.435  12.715
61963SOL    HW187786   8.953  14.400  12.665
61963SOL    HW287787   8.905  14.525  12.735
61964SOL     OW87788   1.090  11.660  13.943
61964SOL    HW187789   1.064  11.746  13.975
61964SOL    HW287790   1.131  11.677  13.859
61965SOL     OW87791   6.848   4.270  11.933
61965SOL    HW187792   6.912   4.275  11.863
61965SOL    HW287793   6.899   4.284  12.013
61966SOL     OW87794   5.872   5.374   3.620
61966SOL    HW187795   5.823   5.307   3.667
61966SOL    HW287796   5.896   5.438   3.686
61967SOL     OW87797   4.139   7.928   2.026
61967SOL    HW187798   4.136   7.853   2.085
61967SOL    HW287799   4.232   7.940   2.007
61968SOL     OW87800   1.913   7.477  11.718
61968SOL    HW187801   1.826   7.441  11.708
61968SOL    HW287802   1.955   7.464  11.633
61969SOL     OW87803   6.788   5.543  13.480
61969SOL    HW187804   6.752   5.567  13.565
61969SOL    HW287805   6.848   5.471  13.498
61970SOL     OW87806  12.792   6.283  11.877
61970SOL    HW187807  12.785   6.376  11.895
61970SOL    HW287808  12.759   6.273  11.787
61971SOL     OW87809  11.622   8.148   9.440
61971SOL    HW187810  11.568   8.100   9.503
61971SOL    HW287811  11.568   8.154   9.362
61972SOL     OW87812  12.595  12.629   7.166
61972SOL    HW187813  12.523  12.597   7.112
61972SOL    HW287814  12.625  12.552   7.215
61973SOL     OW87815  10.344   6.170  13.648
61973SOL    HW187816  10.291   6.177  13.569
61973SOL    HW287817  10.341   6.258  13.687
61974SOL     OW87818  10.803   3.689   1.811
61974SOL    HW187819  10.774   3.628   1.879
61974SOL    HW287820  10.864   3.638   1.758
61975SOL     OW87821   6.416  13.102   9.670
61975SOL    HW187822   6.491  13.159   9.651
61975SOL    HW287823   6.454  13.015   9.683
61976SOL     OW87824   1.582  11.044   1.823
61976SOL    HW187825   1.498  11.030   1.781
61976SOL    HW287826   1.609  10.958   1.854
61977SOL     OW87827   6.535   5.106  12.227
61977SOL    HW187828   6.544   5.189  12.179
61977SOL    HW287829   6.479   5.128  12.301
61978SOL     OW87830   2.193   2.888   5.948
61978SOL    HW187831   2.129   2.944   5.990
61978SOL    HW287832   2.157   2.871   5.861
61979SOL     OW87833  14.847   1.825   7.161
61979SOL    HW187834   0.045   1.799   7.109
61979SOL    HW287835  14.859   1.781   7.245
61980SOL     OW87836   0.452   0.749  13.716
61980SOL    HW187837   0.528   0.691  13.711
61980SOL    HW287838   0.388   0.710  13.658
61981SOL     OW87839   4.935   1.862   9.346
61981SOL    HW187840   5.021   1.831   9.372
61981SOL    HW287841   4.874   1.806   9.393
61982SOL     OW87842  14.704   7.605   6.334
61982SOL    HW187843  14.662   7.576   6.253
61982SOL    HW287844  14.770   7.668   6.306
61983SOL     OW87845  14.406  13.943  11.508
61983SOL    HW187846  14.497  13.925  11.485
61983SOL    HW287847  14.381  13.872  11.567
61984SOL     OW87848   1.715   0.898  14.197
61984SOL    HW187849   1.707   0.936  14.110
61984SOL    HW287850   1.809   0.891  14.212
61985SOL     OW87851  10.666   0.276   1.728
61985SOL    HW187852  10.597   0.212   1.747
61985SOL    HW287853  10.746   0.235   1.762
61986SOL     OW87854   5.591   5.794   1.009
61986SOL    HW187855   5.652   5.842   0.954
61986SOL    HW287856   5.528   5.860   1.039
61987SOL     OW87857   4.351  12.332   8.693
61987SOL    HW187858   4.393  12.337   8.779
61987SOL    HW287859   4.258  12.319   8.713
61988SOL     OW87860   6.869   4.264  13.603
61988SOL    HW187861   6.802   4.224  13.548
61988SOL    HW287862   6.912   4.328  13.546
61989SOL     OW87863   7.462   2.847   1.497
61989SOL    HW187864   7.467   2.846   1.402
61989SOL    HW287865   7.551   2.829   1.526
61990SOL     OW87866  13.638   2.526   3.524
61990SOL    HW187867  13.712   2.580   3.495
61990SOL    HW287868  13.653   2.441   3.483
61991SOL     OW87869  12.308   1.248   3.139
61991SOL    HW187870  12.225   1.215   3.104
61991SOL    HW287871  12.334   1.318   3.079
61992SOL     OW87872   0.411   8.905   0.101
61992SOL    HW187873   0.459   8.903   0.019
61992SOL    HW287874   0.329   8.951   0.080
61993SOL     OW87875   0.004  12.719   5.162
61993SOL    HW187876   0.008  12.626   5.185
61993SOL    HW287877   0.059  12.727   5.085
61994SOL     OW87878   8.044  13.264   9.168
61994SOL    HW187879   7.964  13.316   9.170
61994SOL    HW287880   8.033  13.205   9.094
61995SOL     OW87881   3.960  11.976   6.362
61995SOL    HW187882   3.975  11.996   6.269
61995SOL    HW287883   3.868  11.952   6.367
61996SOL     OW87884   5.127  10.058   1.107
61996SOL    HW187885   5.177  10.137   1.122
61996SOL    HW287886   5.131  10.011   1.190
61997SOL     OW87887   7.117   3.525   4.761
61997SOL    HW187888   7.162   3.458   4.814
61997SOL    HW287889   7.025   3.498   4.763
61998SOL     OW87890   8.048  10.932   4.680
61998SOL    HW187891   8.020  11.008   4.730
61998SOL    HW287892   8.132  10.957   4.643
61999SOL     OW87893   2.099  12.675   6.754
61999SOL    HW187894   2.190  12.673   6.786
61999SOL    HW287895   2.099  12.614   6.680
62000SOL     OW87896  13.255   0.859  13.148
62000SOL    HW187897  13.338   0.869  13.103
62000SOL    HW287898  13.191   0.901  13.091
62001SOL     OW87899   4.859   4.727  10.243
62001SOL    HW187900   4.863   4.754  10.334
62001SOL    HW287901   4.892   4.802  10.194
62002SOL     OW87902   4.283   2.430  11.612
62002SOL    HW187903   4.262   2.338  11.628
62002SOL    HW287904   4.236   2.452  11.531
62003SOL     OW87905   8.350  13.946  14.433
62003SOL    HW187906   8.428  13.939  14.378
62003SOL    HW287907   8.341  14.040  14.450
62004SOL     OW87908  12.346   4.116  13.654
62004SOL    HW187909  12.306   4.166  13.725
62004SOL    HW287910  12.287   4.129  13.579
62005SOL     OW87911   3.236  10.843  13.804
62005SOL    HW187912   3.282  10.787  13.866
62005SOL    HW287913   3.186  10.904  13.859
62006SOL     OW87914  13.478   8.176   9.808
62006SOL    HW187915  13.497   8.205   9.897
62006SOL    HW287916  13.551   8.208   9.756
62007SOL     OW87917  14.518  13.590  10.772
62007SOL    HW187918  14.480  13.603  10.858
62007SOL    HW287919  14.462  13.640  10.713
62008SOL     OW87920  12.637   2.602   3.917
62008SOL    HW187921  12.574   2.544   3.873
62008SOL    HW287922  12.583   2.661   3.969
62009SOL     OW87923   9.376   6.514   8.923
62009SOL    HW187924   9.436   6.442   8.942
62009SOL    HW287925   9.302   6.499   8.982
62010SOL     OW87926   0.054  10.159   1.331
62010SOL    HW187927   0.060  10.100   1.257
62010SOL    HW287928   0.142  10.159   1.369
62011SOL     OW87929  10.427   0.425   3.347
62011SOL    HW187930  10.370   0.426   3.271
62011SOL    HW287931  10.369   0.414   3.422
62012SOL     OW87932   7.338  10.913   7.889
62012SOL    HW187933   7.394  10.978   7.933
62012SOL    HW287934   7.373  10.829   7.916
62013SOL     OW87935   5.686   3.400   4.745
62013SOL    HW187936   5.779   3.382   4.760
62013SOL    HW287937   5.677   3.405   4.650
62014SOL     OW87938   8.530   1.509   6.178
62014SOL    HW187939   8.512   1.455   6.256
62014SOL    HW287940   8.517   1.449   6.104
62015SOL     OW87941  10.195   4.939   3.456
62015SOL    HW187942  10.133   4.883   3.409
62015SOL    HW287943  10.226   5.001   3.389
62016SOL     OW87944   9.699   4.368   3.345
62016SOL    HW187945   9.791   4.394   3.351
62016SOL    HW287946   9.702   4.273   3.336
62017SOL     OW87947   4.581   3.856   5.206
62017SOL    HW187948   4.608   3.772   5.169
62017SOL    HW287949   4.560   3.836   5.297
62018SOL     OW87950   9.342   6.608   5.243
62018SOL    HW187951   9.298   6.556   5.176
62018SOL    HW287952   9.300   6.582   5.325
62019SOL     OW87953  14.007   6.116   5.128
62019SOL    HW187954  14.047   6.127   5.042
62019SOL    HW287955  13.914   6.131   5.113
62020SOL     OW87956  14.707   0.539   0.288
62020SOL    HW187957  14.798   0.562   0.267
62020SOL    HW287958  14.712   0.496   0.374
62021SOL     OW87959   1.064   3.383   5.938
62021SOL    HW187960   1.041   3.458   5.992
62021SOL    HW287961   0.990   3.323   5.947
62022SOL     OW87962   6.880   1.958  13.366
62022SOL    HW187963   6.847   1.901  13.436
62022SOL    HW287964   6.804   2.008  13.338
62023SOL     OW87965   1.043   5.855   5.012
62023SOL    HW187966   1.078   5.788   4.954
62023SOL    HW287967   0.949   5.858   4.992
62024SOL     OW87968   1.508   3.364   0.761
62024SOL    HW187969   1.431   3.348   0.814
62024SOL    HW287970   1.582   3.357   0.823
62025SOL     OW87971  11.849   7.715   8.794
62025SOL    HW187972  11.858   7.619   8.797
62025SOL    HW287973  11.780   7.730   8.730
62026SOL     OW87974   2.408   7.319   2.620
62026SOL    HW187975   2.392   7.277   2.704
62026SOL    HW287976   2.503   7.326   2.613
62027SOL     OW87977   4.986   3.168   5.529
62027SOL    HW187978   4.917   3.108   5.558
62027SOL    HW287979   5.067   3.128   5.560
62028SOL     OW87980   0.723   5.007   5.678
62028SOL    HW187981   0.748   5.046   5.762
62028SOL    HW287982   0.724   4.912   5.696
62029SOL     OW87983  11.515   0.475   4.207
62029SOL    HW187984  11.446   0.538   4.229
62029SOL    HW287985  11.579   0.525   4.156
62030SOL     OW87986  13.111  12.030   9.558
62030SOL    HW187987  13.154  11.945   9.555
62030SOL    HW287988  13.018  12.011   9.547
62031SOL     OW87989   3.188   0.439   6.621
62031SOL    HW187990   3.125   0.429   6.550
62031SOL    HW287991   3.149   0.504   6.679
62032SOL     OW87992  13.699   8.357   6.757
62032SOL    HW187993  13.691   8.447   6.790
62032SOL    HW287994  13.614   8.339   6.716
62033SOL     OW87995   6.828  14.129   1.044
62033SOL    HW187996   6.873  14.072   0.982
62033SOL    HW287997   6.898  14.178   1.086
62034SOL     OW87998   6.670  11.554   5.526
62034SOL    HW187999   6.747  11.501   5.547
62034SOL    HW288000   6.634  11.513   5.447
62035SOL     OW88001  10.431   8.721  14.456
62035SOL    HW188002  10.392   8.680  14.378
62035SOL    HW288003  10.427   8.653  14.523
62036SOL     OW88004   3.547  12.040   1.709
62036SOL    HW188005   3.585  12.008   1.627
62036SOL    HW288006   3.472  11.983   1.724
62037SOL     OW88007   5.028   9.018   2.185
62037SOL    HW188008   5.018   9.110   2.207
62037SOL    HW288009   4.963   8.973   2.239
62038SOL     OW88010   2.683   7.675   2.639
62038SOL    HW188011   2.706   7.693   2.730
62038SOL    HW288012   2.746   7.610   2.610
62039SOL     OW88013   9.843  10.735   7.684
62039SOL    HW188014   9.790  10.718   7.762
62039SOL    HW288015   9.934  10.723   7.713
62040SOL     OW88016  11.513   2.615   0.398
62040SOL    HW188017  11.452   2.553   0.356
62040SOL    HW288018  11.572   2.559   0.448
62041SOL     OW88019   4.622   4.963  12.833
62041SOL    HW188020   4.529   4.983  12.841
62041SOL    HW288021   4.637   4.952  12.739
62042SOL     OW88022  13.845   6.514   2.987
62042SOL    HW188023  13.905   6.546   2.920
62042SOL    HW288024  13.825   6.591   3.040
62043SOL     OW88025  11.652   0.818   9.794
62043SOL    HW188026  11.746   0.799   9.795
62043SOL    HW288027  11.612   0.740   9.756
62044SOL     OW88028  10.695   0.329   3.865
62044SOL    HW188029  10.644   0.302   3.941
62044SOL    HW288030  10.781   0.291   3.879
62045SOL     OW88031   3.129  13.814  12.670
62045SOL    HW188032   3.207  13.758  12.667
62045SOL    HW288033   3.162  13.902  12.648
62046SOL     OW88034   8.570  13.662  11.488
62046SOL    HW188035   8.602  13.741  11.443
62046SOL    HW288036   8.517  13.618  11.422
62047SOL     OW88037   9.365  14.660   8.655
62047SOL    HW188038   9.321  14.684   8.737
62047SOL    HW288039   9.437  14.603   8.681
62048SOL     OW88040   2.562   6.243   0.576
62048SOL    HW188041   2.563   6.331   0.612
62048SOL    HW288042   2.645   6.236   0.528
62049SOL     OW88043   4.271  11.650   3.270
62049SOL    HW188044   4.200  11.711   3.288
62049SOL    HW288045   4.320  11.645   3.352
62050SOL     OW88046   9.811   4.708  13.432
62050SOL    HW188047   9.881   4.678  13.489
62050SOL    HW288048   9.855   4.741  13.354
62051SOL     OW88049   9.575  10.450   6.800
62051SOL    HW188050   9.664  10.458   6.836
62051SOL    HW288051   9.589  10.428   6.708
62052SOL     OW88052   5.974   7.771  11.770
62052SOL    HW188053   6.037   7.741  11.705
62052SOL    HW288054   5.984   7.867  11.772
62053SOL     OW88055   6.959   2.284  14.516
62053SOL    HW188056   7.042   2.252  14.481
62053SOL    HW288057   6.898   2.282  14.442
62054SOL     OW88058   0.354   4.061   2.976
62054SOL    HW188059   0.307   4.024   2.901
62054SOL    HW288060   0.397   3.987   3.017
62055SOL     OW88061  11.797   8.545   2.533
62055SOL    HW188062  11.844   8.589   2.604
62055SOL    HW288063  11.750   8.473   2.576
62056SOL     OW88064  11.218   4.503   6.580
62056SOL    HW188065  11.256   4.476   6.663
62056SOL    HW288066  11.288   4.552   6.536
62057SOL     OW88067   9.392  12.089   9.525
62057SOL    HW188068   9.420  12.020   9.586
62057SOL    HW288069   9.297  12.075   9.516
62058SOL     OW88070   6.739   9.904   4.367
62058SOL    HW188071   6.824   9.900   4.323
62058SOL    HW288072   6.675   9.914   4.296
62059SOL     OW88073   0.866   9.525   0.999
62059SOL    HW188074   0.815   9.545   1.079
62059SOL    HW288075   0.946   9.576   1.009
62060SOL     OW88076   5.851   6.077   5.734
62060SOL    HW188077   5.887   6.025   5.805
62060SOL    HW288078   5.868   6.026   5.655
62061SOL     OW88079  11.959   4.304   7.575
62061SOL    HW188080  12.017   4.276   7.647
62061SOL    HW288081  12.011   4.367   7.525
62062SOL     OW88082   6.762   7.907  11.489
62062SOL    HW188083   6.775   7.992  11.531
62062SOL    HW288084   6.731   7.850  11.560
62063SOL     OW88085   7.771   0.154  13.907
62063SOL    HW188086   7.772   0.094  13.982
62063SOL    HW288087   7.680   0.183  13.901
62064SOL     OW88088  12.997  13.007   1.814
62064SOL    HW188089  13.073  13.031   1.761
62064SOL    HW288090  12.944  12.953   1.755
62065SOL     OW88091   8.841  13.945   5.393
62065SOL    HW188092   8.773  13.904   5.446
62065SOL    HW288093   8.849  14.033   5.430
62066SOL     OW88094  13.249  11.962   3.667
62066SOL    HW188095  13.178  11.899   3.679
62066SOL    HW288096  13.221  12.017   3.595
62067SOL     OW88097  12.858   9.402   3.518
62067SOL    HW188098  12.810   9.365   3.591
62067SOL    HW288099  12.803   9.386   3.442
62068SOL     OW88100   9.952   5.407   4.430
62068SOL    HW188101   9.929   5.331   4.377
62068SOL    HW288102  10.047   5.401   4.442
62069SOL     OW88103   6.003   1.745  10.628
62069SOL    HW188104   5.967   1.739  10.717
62069SOL    HW288105   6.090   1.708  10.635
62070SOL     OW88106   7.198   8.651   1.192
62070SOL    HW188107   7.103   8.639   1.202
62070SOL    HW288108   7.233   8.562   1.187
62071SOL     OW88109   7.977  12.293   3.997
62071SOL    HW188110   7.902  12.312   4.053
62071SOL    HW288111   7.957  12.336   3.913
62072SOL     OW88112   7.819   6.864  13.260
62072SOL    HW188113   7.867   6.834  13.337
62072SOL    HW288114   7.813   6.786  13.204
62073SOL     OW88115   6.246   5.544   2.063
62073SOL    HW188116   6.166   5.561   2.013
62073SOL    HW288117   6.241   5.605   2.137
62074SOL     OW88118  11.108   6.754   1.053
62074SOL    HW188119  11.097   6.844   1.081
62074SOL    HW288120  11.045   6.704   1.106
62075SOL     OW88121  13.563  12.040   3.902
62075SOL    HW188122  13.537  11.975   3.968
62075SOL    HW288123  13.608  11.990   3.835
62076SOL     OW88124  13.019   3.602   5.965
62076SOL    HW188125  13.002   3.643   5.880
62076SOL    HW288126  12.957   3.644   6.025
62077SOL     OW88127   2.737  10.570   9.464
62077SOL    HW188128   2.803  10.638   9.477
62077SOL    HW288129   2.666  10.593   9.524
62078SOL     OW88130   8.895  13.217  11.115
62078SOL    HW188131   8.959  13.280  11.082
62078SOL    HW288132   8.850  13.263  11.185
62079SOL     OW88133  11.506   7.376  11.051
62079SOL    HW188134  11.494   7.440  11.121
62079SOL    HW288135  11.579   7.412  10.999
62080SOL     OW88136   2.529   8.416   9.468
62080SOL    HW188137   2.585   8.376   9.402
62080SOL    HW288138   2.481   8.484   9.420
62081SOL     OW88139  12.411  10.353   5.094
62081SOL    HW188140  12.329  10.360   5.143
62081SOL    HW288141  12.388  10.306   5.014
62082SOL     OW88142  12.239   5.102   6.240
62082SOL    HW188143  12.231   5.167   6.170
62082SOL    HW288144  12.248   5.154   6.320
62083SOL     OW88145  13.569   3.706   5.544
62083SOL    HW188146  13.630   3.642   5.580
62083SOL    HW288147  13.517   3.656   5.480
62084SOL     OW88148   2.803   0.185  13.939
62084SOL    HW188149   2.771   0.096  13.925
62084SOL    HW288150   2.805   0.195  14.034
62085SOL     OW88151   9.951   0.501   4.136
62085SOL    HW188152   9.858   0.515   4.150
62085SOL    HW288153   9.960   0.406   4.126
62086SOL     OW88154  10.857  14.811  10.001
62086SOL    HW188155  10.923  14.877  10.022
62086SOL    HW288156  10.836  14.826   9.909
62087SOL     OW88157   2.427   4.702   5.071
62087SOL    HW188158   2.431   4.606   5.064
62087SOL    HW288159   2.460   4.720   5.159
62088SOL     OW88160   4.313   9.534   7.944
62088SOL    HW188161   4.393   9.485   7.923
62088SOL    HW288162   4.295   9.514   8.035
62089SOL     OW88163   4.977  11.821  11.848
62089SOL    HW188164   4.934  11.759  11.789
62089SOL    HW288165   5.071  11.806  11.834
62090SOL     OW88166   0.765   7.244   2.977
62090SOL    HW188167   0.852   7.264   2.944
62090SOL    HW288168   0.762   7.285   3.063
62091SOL     OW88169   4.923   7.917   3.592
62091SOL    HW188170   5.013   7.890   3.608
62091SOL    HW288171   4.902   7.978   3.662
62092SOL     OW88172   0.123  14.570   2.101
62092SOL    HW188173   0.070  14.580   2.022
62092SOL    HW288174   0.179  14.494   2.083
62093SOL     OW88175   4.907   1.115   5.101
62093SOL    HW188176   4.971   1.108   5.172
62093SOL    HW288177   4.959   1.100   5.022
62094SOL     OW88178  10.379   0.957  11.275
62094SOL    HW188179  10.290   0.974  11.306
62094SOL    HW288180  10.369   0.885  11.213
62095SOL     OW88181   3.515   8.682   2.029
62095SOL    HW188182   3.569   8.643   2.098
62095SOL    HW288183   3.525   8.623   1.955
62096SOL     OW88184   5.958  13.276   8.458
62096SOL    HW188185   6.018  13.327   8.404
62096SOL    HW288186   5.993  13.187   8.456
62097SOL     OW88187   8.230  12.864   3.258
62097SOL    HW188188   8.173  12.789   3.242
62097SOL    HW288189   8.173  12.940   3.248
62098SOL     OW88190   1.442   4.549   9.014
62098SOL    HW188191   1.500   4.610   8.967
62098SOL    HW288192   1.446   4.578   9.105
62099SOL     OW88193  11.573   6.593   8.124
62099SOL    HW188194  11.604   6.681   8.143
62099SOL    HW288195  11.477   6.600   8.127
62100SOL     OW88196  13.330   6.691   1.193
62100SOL    HW188197  13.382   6.766   1.166
62100SOL    HW288198  13.381   6.615   1.164
62101SOL     OW88199  10.102   0.131  11.072
62101SOL    HW188200  10.126   0.193  11.004
62101SOL    HW288201  10.153   0.053  11.053
62102SOL     OW88202   7.368  12.892   0.524
62102SOL    HW188203   7.399  12.829   0.588
62102SOL    HW288204   7.326  12.839   0.457
62103SOL     OW88205   0.867   2.553   9.160
62103SOL    HW188206   0.793   2.505   9.195
62103SOL    HW288207   0.939   2.489   9.158
62104SOL     OW88208   7.091   0.189   0.899
62104SOL    HW188209   7.144   0.189   0.979
62104SOL    HW288210   7.141   0.137   0.837
62105SOL     OW88211   0.568   7.497  11.046
62105SOL    HW188212   0.637   7.556  11.015
62105SOL    HW288213   0.614   7.416  11.068
62106SOL     OW88214   6.397   2.172   1.065
62106SOL    HW188215   6.388   2.268   1.065
62106SOL    HW288216   6.411   2.150   1.157
62107SOL     OW88217   8.607   4.602   2.451
62107SOL    HW188218   8.629   4.647   2.533
62107SOL    HW288219   8.511   4.609   2.445
62108SOL     OW88220   3.565   8.444   7.734
62108SOL    HW188221   3.599   8.450   7.824
62108SOL    HW288222   3.505   8.518   7.727
62109SOL     OW88223   3.676   9.482  10.893
62109SOL    HW188224   3.710   9.525  10.814
62109SOL    HW288225   3.704   9.539  10.965
62110SOL     OW88226  10.334   3.470  13.578
62110SOL    HW188227  10.243   3.459  13.551
62110SOL    HW288228  10.374   3.520  13.506
62111SOL     OW88229  13.697   7.126   1.783
62111SOL    HW188230  13.643   7.201   1.809
62111SOL    HW288231  13.741   7.099   1.863
62112SOL     OW88232  10.047  13.177  14.301
62112SOL    HW188233   9.981  13.136  14.247
62112SOL    HW288234  10.108  13.217  14.239
62113SOL     OW88235   2.157   0.587   3.179
62113SOL    HW188236   2.152   0.629   3.093
62113SOL    HW288237   2.189   0.655   3.237
62114SOL     OW88238   9.924   2.776  11.577
62114SOL    HW188239   9.871   2.755  11.654
62114SOL    HW288240   9.994   2.832  11.611
62115SOL     OW88241   1.947   8.797   6.958
62115SOL    HW188242   1.940   8.773   6.865
62115SOL    HW288243   1.975   8.716   7.002
62116SOL     OW88244  11.192   8.167   0.584
62116SOL    HW188245  11.105   8.127   0.584
62116SOL    HW288246  11.244   8.111   0.641
62117SOL     OW88247   3.130   7.167   1.291
62117SOL    HW188248   3.182   7.199   1.217
62117SOL    HW288249   3.048   7.215   1.286
62118SOL     OW88250   7.861   9.234  14.707
62118SOL    HW188251   7.911   9.311  14.680
62118SOL    HW288252   7.790   9.269  14.760
62119SOL     OW88253   7.559   8.263   1.957
62119SOL    HW188254   7.627   8.250   2.024
62119SOL    HW288255   7.490   8.311   2.002
62120SOL     OW88256   6.646   3.808   2.229
62120SOL    HW188257   6.647   3.729   2.175
62120SOL    HW288258   6.623   3.878   2.168
62121SOL     OW88259  11.982   3.696   3.450
62121SOL    HW188260  11.944   3.738   3.373
62121SOL    HW288261  12.020   3.768   3.501
62122SOL     OW88262   8.819   2.808  10.413
62122SOL    HW188263   8.837   2.902  10.405
62122SOL    HW288264   8.903   2.769  10.436
62123SOL     OW88265  14.316   0.914   6.289
62123SOL    HW188266  14.325   0.819   6.282
62123SOL    HW288267  14.396   0.942   6.335
62124SOL     OW88268  12.519  10.116   9.928
62124SOL    HW188269  12.471  10.185   9.883
62124SOL    HW288270  12.523  10.044   9.865
62125SOL     OW88271   4.614   2.057   0.505
62125SOL    HW188272   4.565   2.135   0.530
62125SOL    HW288273   4.653   2.027   0.587
62126SOL     OW88274  12.988   7.046   2.854
62126SOL    HW188275  13.014   7.126   2.809
62126SOL    HW288276  12.921   7.008   2.797
62127SOL     OW88277   8.878   9.279   7.919
62127SOL    HW188278   8.785   9.261   7.911
62127SOL    HW288279   8.885   9.375   7.911
62128SOL     OW88280  11.256   6.635  11.919
62128SOL    HW188281  11.177   6.670  11.961
62128SOL    HW288282  11.301   6.587  11.988
62129SOL     OW88283  13.031   0.012  14.346
62129SOL    HW188284  13.077   0.048  14.422
62129SOL    HW288285  13.052  14.796  14.348
62130SOL     OW88286   2.478  13.492  12.992
62130SOL    HW188287   2.517  13.408  12.966
62130SOL    HW288288   2.384  13.475  12.993
62131SOL     OW88289  13.820   0.280   4.024
62131SOL    HW188290  13.897   0.311   4.070
62131SOL    HW288291  13.844   0.283   3.932
62132SOL     OW88292   8.638   9.325   4.902
62132SOL    HW188293   8.683   9.366   4.828
62132SOL    HW288294   8.602   9.244   4.867
62133SOL     OW88295   6.693   4.790   4.248
62133SOL    HW188296   6.668   4.736   4.173
62133SOL    HW288297   6.714   4.727   4.317
62134SOL     OW88298   0.888   7.088  10.354
62134SOL    HW188299   0.813   7.030  10.341
62134SOL    HW288300   0.955   7.033  10.394
62135SOL     OW88301  10.517  14.608   3.664
62135SOL    HW188302  10.477  14.695   3.673
62135SOL    HW288303  10.612  14.626   3.661
62136SOL     OW88304  14.823   3.243   5.135
62136SOL    HW188305  14.821   3.158   5.180
62136SOL    HW288306  14.830   3.307   5.205
62137SOL     OW88307   6.251  12.951   4.860
62137SOL    HW188308   6.156  12.947   4.869
62137SOL    HW288309   6.281  12.861   4.878
62138SOL     OW88310   4.031  10.111   5.420
62138SOL    HW188311   3.944  10.083   5.391
62138SOL    HW288312   4.035  10.088   5.512
62139SOL     OW88313   8.952   5.357   4.225
62139SOL    HW188314   8.872   5.402   4.254
62139SOL    HW288315   9.019   5.384   4.287
62140SOL     OW88316  13.181   4.583   3.306
62140SOL    HW188317  13.199   4.661   3.254
62140SOL    HW288318  13.169   4.514   3.241
62141SOL     OW88319   1.442  10.978  13.871
62141SOL    HW188320   1.460  10.961  13.778
62141SOL    HW288321   1.350  11.004  13.874
62142SOL     OW88322   0.895   0.216   9.102
62142SOL    HW188323   0.951   0.261   9.166
62142SOL    HW288324   0.915   0.258   9.019
62143SOL     OW88325  13.705   9.744   5.681
62143SOL    HW188326  13.702   9.739   5.586
62143SOL    HW288327  13.760   9.670   5.708
62144SOL     OW88328   9.606   4.833   9.593
62144SOL    HW188329   9.562   4.806   9.512
62144SOL    HW288330   9.695   4.853   9.566
62145SOL     OW88331   6.772  14.285   8.069
62145SOL    HW188332   6.770  14.194   8.038
62145SOL    HW288333   6.861  14.315   8.052
62146SOL     OW88334   7.707   2.992  14.826
62146SOL    HW188335   7.631   2.946  14.793
62146SOL    HW288336   7.721   3.064  14.765
62147SOL     OW88337   0.306   0.550  13.949
62147SOL    HW188338   0.258   0.585  13.873
62147SOL    HW288339   0.340   0.466  13.919
62148SOL     OW88340  12.256  13.002   2.421
62148SOL    HW188341  12.340  12.984   2.463
62148SOL    HW288342  12.191  12.989   2.490
62149SOL     OW88343   5.509   2.228  13.849
62149SOL    HW188344   5.582   2.235  13.788
62149SOL    HW288345   5.451   2.300  13.826
62150SOL     OW88346   1.668   7.129  11.199
62150SOL    HW188347   1.632   7.047  11.231
62150SOL    HW288348   1.593   7.175  11.161
62151SOL     OW88349  12.390   1.901   6.733
62151SOL    HW188350  12.367   1.969   6.797
62151SOL    HW288351  12.481   1.920   6.710
62152SOL     OW88352   4.218   0.956   1.843
62152SOL    HW188353   4.221   0.959   1.747
62152SOL    HW288354   4.258   1.039   1.870
62153SOL     OW88355   6.365   6.090   5.047
62153SOL    HW188356   6.460   6.086   5.052
62153SOL    HW288357   6.336   6.001   5.065
62154SOL     OW88358  13.752  10.320   1.989
62154SOL    HW188359  13.727  10.412   1.989
62154SOL    HW288360  13.716  10.285   2.071
62155SOL     OW88361   5.449   9.207   0.681
62155SOL    HW188362   5.461   9.217   0.587
62155SOL    HW288363   5.504   9.132   0.705
62156SOL     OW88364   6.251   8.356   4.813
62156SOL    HW188365   6.298   8.436   4.787
62156SOL    HW288366   6.267   8.349   4.907
62157SOL     OW88367   9.096   1.858  14.205
62157SOL    HW188368   9.159   1.807  14.155
62157SOL    HW288369   9.144   1.938  14.228
62158SOL     OW88370   3.805   0.592  12.311
62158SOL    HW188371   3.849   0.657  12.256
62158SOL    HW288372   3.741   0.552  12.252
62159SOL     OW88373  10.350  12.834   5.486
62159SOL    HW188374  10.418  12.769   5.473
62159SOL    HW288375  10.306  12.807   5.567
62160SOL     OW88376   9.612   7.256  10.072
62160SOL    HW188377   9.662   7.175  10.058
62160SOL    HW288378   9.592   7.287   9.984
62161SOL     OW88379   2.502  11.911   0.825
62161SOL    HW188380   2.550  11.950   0.752
62161SOL    HW288381   2.430  11.863   0.783
62162SOL     OW88382   7.973   9.576  10.901
62162SOL    HW188383   8.042   9.612  10.957
62162SOL    HW288384   7.902   9.641  10.905
62163SOL     OW88385  13.709   5.001   8.885
62163SOL    HW188386  13.795   5.032   8.914
62163SOL    HW288387  13.648   5.069   8.913
62164SOL     OW88388   8.381  13.459  13.208
62164SOL    HW188389   8.331  13.440  13.287
62164SOL    HW288390   8.328  13.424  13.136
62165SOL     OW88391   5.704   1.701   9.773
62165SOL    HW188392   5.792   1.669   9.792
62165SOL    HW288393   5.715   1.763   9.701
62166SOL     OW88394   2.767   5.261   6.757
62166SOL    HW188395   2.801   5.215   6.833
62166SOL    HW288396   2.845   5.297   6.714
62167SOL     OW88397   8.714  10.519   2.077
62167SOL    HW188398   8.652  10.507   2.005
62167SOL    HW288399   8.800  10.521   2.036
62168SOL     OW88400  10.170   0.131  12.228
62168SOL    HW188401  10.209   0.152  12.313
62168SOL    HW288402  10.105   0.200  12.214
62169SOL     OW88403  11.392   2.915   6.367
62169SOL    HW188404  11.403   2.821   6.377
62169SOL    HW288405  11.309   2.925   6.321
62170SOL     OW88406   5.032   1.945   4.258
62170SOL    HW188407   4.987   1.922   4.339
62170SOL    HW288408   5.098   2.009   4.284
62171SOL     OW88409   8.995   0.368  11.225
62171SOL    HW188410   8.910   0.346  11.187
62171SOL    HW288411   9.026   0.285  11.263
62172SOL     OW88412  11.355  11.801   7.020
62172SOL    HW188413  11.323  11.736   7.083
62172SOL    HW288414  11.374  11.878   7.074
62173SOL     OW88415   3.879  12.283   0.385
62173SOL    HW188416   3.893  12.189   0.385
62173SOL    HW288417   3.941  12.317   0.321
62174SOL     OW88418  10.335   4.509   9.362
62174SOL    HW188419  10.391   4.432   9.356
62174SOL    HW288420  10.354   4.546   9.449
62175SOL     OW88421   8.223  10.016   4.419
62175SOL    HW188422   8.227  10.068   4.499
62175SOL    HW288423   8.248  10.077   4.349
62176SOL     OW88424   1.595   2.031  12.356
62176SOL    HW188425   1.521   2.029  12.295
62176SOL    HW288426   1.576   2.104  12.414
62177SOL     OW88427   6.048   0.690   2.895
62177SOL    HW188428   6.043   0.743   2.975
62177SOL    HW288429   6.140   0.694   2.869
62178SOL     OW88430   7.621  10.344   1.638
62178SOL    HW188431   7.527  10.338   1.659
62178SOL    HW288432   7.647  10.254   1.622
62179SOL     OW88433  10.431   9.828   1.171
62179SOL    HW188434  10.386   9.785   1.098
62179SOL    HW288435  10.446   9.757   1.234
62180SOL     OW88436   6.329   3.762   4.143
62180SOL    HW188437   6.279   3.844   4.136
62180SOL    HW288438   6.347   3.737   4.052
62181SOL     OW88439  11.727   9.060  11.940
62181SOL    HW188440  11.666   9.017  11.879
62181SOL    HW288441  11.679   9.064  12.023
62182SOL     OW88442  10.383   9.429   2.364
62182SOL    HW188443  10.464   9.470   2.332
62182SOL    HW288444  10.329   9.502   2.393
62183SOL     OW88445  14.020   7.697   0.054
62183SOL    HW188446  14.108   7.685   0.091
62183SOL    HW288447  13.986   7.775   0.098
62184SOL     OW88448   8.847   8.234   9.885
62184SOL    HW188449   8.914   8.206   9.947
62184SOL    HW288450   8.805   8.310   9.926
62185SOL     OW88451  14.575   2.380   5.566
62185SOL    HW188452  14.501   2.356   5.510
62185SOL    HW288453  14.647   2.396   5.506
62186SOL     OW88454   3.698   4.776  12.382
62186SOL    HW188455   3.657   4.796  12.298
62186SOL    HW288456   3.789   4.757  12.361
62187SOL     OW88457   9.871  13.051  14.098
62187SOL    HW188458   9.847  13.110  14.027
62187SOL    HW288459   9.878  12.965  14.057
62188SOL     OW88460  12.335   2.769   7.487
62188SOL    HW188461  12.279   2.842   7.462
62188SOL    HW288462  12.382   2.746   7.407
62189SOL     OW88463   2.066  14.297  12.252
62189SOL    HW188464   2.160  14.278  12.250
62189SOL    HW288465   2.045  14.306  12.345
62190SOL     OW88466  14.255  13.766   2.341
62190SOL    HW188467  14.178  13.762   2.398
62190SOL    HW288468  14.266  13.859   2.323
62191SOL     OW88469   7.153   1.759   0.469
62191SOL    HW188470   7.229   1.702   0.451
62191SOL    HW288471   7.144   1.756   0.565
62192SOL     OW88472   9.317  11.202   3.858
62192SOL    HW188473   9.335  11.269   3.792
62192SOL    HW288474   9.226  11.216   3.883
62193SOL     OW88475   3.235   5.836   0.063
62193SOL    HW188476   3.298   5.787   0.117
62193SOL    HW288477   3.288   5.901   0.018
62194SOL     OW88478   0.235   7.013   3.847
62194SOL    HW188479   0.141   7.011   3.832
62194SOL    HW288480   0.244   7.032   3.941
62195SOL     OW88481   5.729   7.970   7.118
62195SOL    HW188482   5.816   7.939   7.142
62195SOL    HW288483   5.718   7.943   7.027
62196SOL     OW88484   6.774  11.653   1.341
62196SOL    HW188485   6.814  11.738   1.361
62196SOL    HW288486   6.765  11.610   1.426
62197SOL     OW88487   4.615   0.219  14.263
62197SOL    HW188488   4.597   0.260  14.348
62197SOL    HW288489   4.540   0.162  14.247
62198SOL     OW88490   9.611   9.569   6.929
62198SOL    HW188491   9.554   9.505   6.972
62198SOL    HW288492   9.642   9.625   7.000
62199SOL     OW88493   3.679  12.468   1.508
62199SOL    HW188494   3.678  12.395   1.447
62199SOL    HW288495   3.734  12.439   1.581
62200SOL     OW88496  11.287  10.627   1.208
62200SOL    HW188497  11.246  10.608   1.292
62200SOL    HW288498  11.315  10.541   1.175
62201SOL     OW88499   9.987   0.144  14.201
62201SOL    HW188500   9.932   0.163  14.277
62201SOL    HW288501  10.062   0.204  14.211
62202SOL     OW88502  10.844   0.017  14.087
62202SOL    HW188503  10.753   0.012  14.118
62202SOL    HW288504  10.836   0.056  13.999
62203SOL     OW88505   9.210  11.591   3.016
62203SOL    HW188506   9.186  11.664   3.074
62203SOL    HW288507   9.295  11.562   3.048
62204SOL     OW88508  13.893   4.447   2.356
62204SOL    HW188509  13.918   4.473   2.445
62204SOL    HW288510  13.920   4.356   2.348
62205SOL     OW88511   1.399   9.540   8.242
62205SOL    HW188512   1.346   9.580   8.311
62205SOL    HW288513   1.412   9.610   8.178
62206SOL     OW88514   3.094   5.809   3.004
62206SOL    HW188515   3.050   5.876   2.953
62206SOL    HW288516   3.188   5.824   2.988
62207SOL     OW88517  14.550   5.271   8.161
62207SOL    HW188518  14.456   5.289   8.157
62207SOL    HW288519  14.579   5.275   8.069
62208SOL     OW88520  14.207   3.051   8.661
62208SOL    HW188521  14.268   3.056   8.735
62208SOL    HW288522  14.258   3.010   8.591
62209SOL     OW88523   2.134  13.948  12.545
62209SOL    HW188524   2.113  13.926  12.454
62209SOL    HW288525   2.213  13.897  12.564
62210SOL     OW88526  12.947   9.977  12.954
62210SOL    HW188527  12.921  10.027  12.877
62210SOL    HW288528  12.953   9.887  12.923
62211SOL     OW88529   9.554   4.317   8.034
62211SOL    HW188530   9.512   4.233   8.050
62211SOL    HW288531   9.555   4.326   7.939
62212SOL     OW88532  11.391   8.502   2.994
62212SOL    HW188533  11.483   8.473   3.000
62212SOL    HW288534  11.342   8.421   2.976
62213SOL     OW88535  13.499  11.554   3.923
62213SOL    HW188536  13.496  11.570   4.018
62213SOL    HW288537  13.429  11.608   3.887
62214SOL     OW88538   0.628  10.772   8.078
62214SOL    HW188539   0.682  10.693   8.088
62214SOL    HW288540   0.691  10.843   8.071
62215SOL     OW88541  10.516   8.017   8.528
62215SOL    HW188542  10.466   8.098   8.525
62215SOL    HW288543  10.496   7.974   8.444
62216SOL     OW88544   2.265   3.583   1.661
62216SOL    HW188545   2.206   3.518   1.625
62216SOL    HW288546   2.294   3.634   1.585
62217SOL     OW88547  13.014  10.057   6.680
62217SOL    HW188548  13.048  10.058   6.590
62217SOL    HW288549  13.080  10.102   6.731
62218SOL     OW88550   9.764   0.122   4.299
62218SOL    HW188551   9.692   0.078   4.253
62218SOL    HW288552   9.753   0.096   4.391
62219SOL     OW88553  13.939   8.728   6.133
62219SOL    HW188554  13.866   8.788   6.148
62219SOL    HW288555  13.942   8.673   6.212
62220SOL     OW88556  13.630   1.717   9.762
62220SOL    HW188557  13.617   1.693   9.670
62220SOL    HW288558  13.543   1.741   9.793
62221SOL     OW88559   9.218  11.614  13.954
62221SOL    HW188560   9.266  11.558  14.014
62221SOL    HW288561   9.152  11.657  14.009
62222SOL     OW88562   6.596  14.836   3.945
62222SOL    HW188563   6.653  14.789   4.005
62222SOL    HW288564   6.621  14.805   3.858
62223SOL     OW88565   2.061   9.325  14.035
62223SOL    HW188566   2.127   9.389  14.006
62223SOL    HW288567   2.017   9.298  13.955
62224SOL     OW88568   3.709  12.392  11.924
62224SOL    HW188569   3.736  12.410  12.014
62224SOL    HW288570   3.747  12.306  11.904
62225SOL     OW88571  14.492  10.784  14.138
62225SOL    HW188572  14.581  10.782  14.102
62225SOL    HW288573  14.437  10.807  14.063
62226SOL     OW88574  13.196   7.783  13.470
62226SOL    HW188575  13.108   7.744  13.473
62226SOL    HW288576  13.197   7.832  13.388
62227SOL     OW88577  14.202   0.551   3.857
62227SOL    HW188578  14.124   0.577   3.906
62227SOL    HW288579  14.241   0.481   3.910
62228SOL     OW88580   0.281   2.115   9.871
62228SOL    HW188581   0.202   2.105   9.818
62228SOL    HW288582   0.325   2.193   9.834
62229SOL     OW88583   5.161   6.355   0.845
62229SOL    HW188584   5.103   6.280   0.851
62229SOL    HW288585   5.210   6.342   0.764
62230SOL     OW88586  12.116  11.544  11.698
62230SOL    HW188587  12.093  11.609  11.632
62230SOL    HW288588  12.039  11.540  11.755
62231SOL     OW88589   8.080   9.136   7.054
62231SOL    HW188590   8.083   9.067   7.120
62231SOL    HW288591   8.080   9.218   7.104
62232SOL     OW88592   0.248  11.505   7.623
62232SOL    HW188593   0.217  11.416   7.606
62232SOL    HW288594   0.170  11.553   7.652
62233SOL     OW88595   5.849   1.144  13.632
62233SOL    HW188596   5.766   1.124  13.590
62233SOL    HW288597   5.909   1.164  13.560
62234SOL     OW88598  14.053  14.475   6.759
62234SOL    HW188599  13.987  14.531   6.717
62234SOL    HW288600  14.005  14.396   6.784
62235SOL     OW88601   1.445   1.189   6.565
62235SOL    HW188602   1.529   1.158   6.532
62235SOL    HW288603   1.458   1.200   6.659
62236SOL     OW88604   5.871  11.135  10.837
62236SOL    HW188605   5.831  11.134  10.924
62236SOL    HW288606   5.832  11.212  10.794
62237SOL     OW88607   2.862  13.140   1.808
62237SOL    HW188608   2.815  13.219   1.834
62237SOL    HW288609   2.904  13.164   1.725
62238SOL     OW88610  14.109   3.697  12.480
62238SOL    HW188611  14.174   3.666  12.417
62238SOL    HW288612  14.029   3.650  12.458
62239SOL     OW88613   5.402   7.845   8.366
62239SOL    HW188614   5.381   7.858   8.274
62239SOL    HW288615   5.323   7.871   8.414
62240SOL     OW88616   5.843  11.233   9.760
62240SOL    HW188617   5.849  11.249   9.854
62240SOL    HW288618   5.849  11.138   9.751
62241SOL     OW88619  14.561   5.203  11.040
62241SOL    HW188620  14.546   5.270  11.107
62241SOL    HW288621  14.530   5.122  11.080
62242SOL     OW88622  12.329  11.126  11.220
62242SOL    HW188623  12.339  11.172  11.137
62242SOL    HW288624  12.270  11.054  11.201
62243SOL     OW88625  14.650   2.775   1.649
62243SOL    HW188626  14.580   2.841   1.652
62243SOL    HW288627  14.614   2.705   1.594
62244SOL     OW88628   8.843  10.705   3.292
62244SOL    HW188629   8.845  10.746   3.378
62244SOL    HW288630   8.896  10.762   3.237
62245SOL     OW88631  10.523   0.391   7.536
62245SOL    HW188632  10.471   0.311   7.540
62245SOL    HW288633  10.483   0.442   7.466
62246SOL     OW88634   6.890   9.446   9.678
62246SOL    HW188635   6.974   9.435   9.722
62246SOL    HW288636   6.828   9.393   9.729
62247SOL     OW88637   8.597   1.922   0.221
62247SOL    HW188638   8.645   2.004   0.231
62247SOL    HW288639   8.574   1.896   0.310
62248SOL     OW88640   1.106   2.085   3.811
62248SOL    HW188641   1.075   1.995   3.823
62248SOL    HW288642   1.090   2.103   3.718
62249SOL     OW88643  11.526   0.288   1.529
62249SOL    HW188644  11.514   0.207   1.577
62249SOL    HW288645  11.601   0.273   1.473
62250SOL     OW88646   3.171   2.640   5.456
62250SOL    HW188647   3.251   2.692   5.467
62250SOL    HW288648   3.147   2.652   5.364
62251SOL     OW88649   6.020  10.515   3.752
62251SOL    HW188650   6.053  10.462   3.679
62251SOL    HW288651   5.988  10.595   3.710
62252SOL     OW88652   4.629  11.464  11.579
62252SOL    HW188653   4.566  11.474  11.508
62252SOL    HW288654   4.714  11.482  11.539
62253SOL     OW88655   3.272  14.139   2.556
62253SOL    HW188656   3.347  14.086   2.582
62253SOL    HW288657   3.275  14.215   2.614
62254SOL     OW88658   4.740   6.966   0.861
62254SOL    HW188659   4.657   7.010   0.876
62254SOL    HW288660   4.797   7.034   0.825
62255SOL     OW88661  10.359  14.115  11.897
62255SOL    HW188662  10.423  14.139  11.964
62255SOL    HW288663  10.346  14.021  11.909
62256SOL     OW88664   5.619  13.537  12.227
62256SOL    HW188665   5.592  13.522  12.317
62256SOL    HW288666   5.554  13.598  12.192
62257SOL     OW88667   9.098   7.164   2.176
62257SOL    HW188668   9.055   7.088   2.137
62257SOL    HW288669   9.029   7.230   2.181
62258SOL     OW88670   3.098   7.019   6.894
62258SOL    HW188671   3.050   6.939   6.916
62258SOL    HW288672   3.188   7.001   6.918
62259SOL     OW88673   6.987   6.447   5.611
62259SOL    HW188674   7.054   6.382   5.591
62259SOL    HW288675   6.909   6.395   5.634
62260SOL     OW88676   2.543   9.351   3.026
62260SOL    HW188677   2.601   9.291   3.074
62260SOL    HW288678   2.459   9.343   3.070
62261SOL     OW88679   6.642  12.176  12.938
62261SOL    HW188680   6.589  12.140  12.866
62261SOL    HW288681   6.577  12.211  13.000
62262SOL     OW88682  14.418  10.380  14.477
62262SOL    HW188683  14.442  10.473  14.470
62262SOL    HW288684  14.371  10.374  14.560
62263SOL     OW88685   5.810   4.820  14.726
62263SOL    HW188686   5.804   4.873  14.805
62263SOL    HW288687   5.784   4.732  14.755
62264SOL     OW88688   1.353   7.567   7.665
62264SOL    HW188689   1.354   7.661   7.682
62264SOL    HW288690   1.442   7.547   7.636
62265SOL     OW88691   2.732  10.532   4.358
62265SOL    HW188692   2.648  10.576   4.357
62265SOL    HW288693   2.735  10.483   4.275
62266SOL     OW88694  11.784   8.015   0.182
62266SOL    HW188695  11.814   7.955   0.250
62266SOL    HW288696  11.732   8.080   0.229
62267SOL     OW88697   1.759  12.974   0.964
62267SOL    HW188698   1.675  13.014   0.987
62267SOL    HW288699   1.823  13.018   1.021
62268SOL     OW88700  10.440   1.850   1.441
62268SOL    HW188701  10.396   1.787   1.498
62268SOL    HW288702  10.370   1.904   1.406
62269SOL     OW88703   2.030   6.800   4.575
62269SOL    HW188704   2.041   6.774   4.667
62269SOL    HW288705   1.956   6.747   4.544
62270SOL     OW88706   8.887   8.361   4.371
62270SOL    HW188707   8.954   8.429   4.375
62270SOL    HW288708   8.821   8.389   4.435
62271SOL     OW88709   5.823   3.537   0.515
62271SOL    HW188710   5.763   3.513   0.585
62271SOL    HW288711   5.851   3.626   0.538
62272SOL     OW88712   8.789   2.919  10.126
62272SOL    HW188713   8.704   2.898  10.163
62272SOL    HW288714   8.812   3.004  10.163
62273SOL     OW88715  10.191   0.358   5.080
62273SOL    HW188716  10.149   0.279   5.113
62273SOL    HW288717  10.196   0.345   4.985
62274SOL     OW88718   9.434   2.715   8.304
62274SOL    HW188719   9.469   2.637   8.348
62274SOL    HW288720   9.434   2.783   8.371
62275SOL     OW88721   2.424   0.637  13.410
62275SOL    HW188722   2.337   0.602  13.426
62275SOL    HW288723   2.475   0.563  13.377
62276SOL     OW88724   0.986   4.117  11.797
62276SOL    HW188725   1.045   4.153  11.731
62276SOL    HW288726   0.957   4.193  11.847
62277SOL     OW88727   6.829   4.221  12.869
62277SOL    HW188728   6.788   4.155  12.813
62277SOL    HW288729   6.841   4.177  12.954
62278SOL     OW88730   0.996   0.875   5.754
62278SOL    HW188731   1.048   0.936   5.702
62278SOL    HW288732   1.050   0.856   5.830
62279SOL     OW88733   2.163  13.476  13.035
62279SOL    HW188734   2.201  13.504  13.118
62279SOL    HW288735   2.129  13.388  13.052
62280SOL     OW88736   2.215   9.934   3.106
62280SOL    HW188737   2.150   9.982   3.158
62280SOL    HW288738   2.199   9.962   3.016
62281SOL     OW88739   3.914   8.871   5.472
62281SOL    HW188740   3.945   8.800   5.528
62281SOL    HW288741   3.821   8.852   5.459
62282SOL     OW88742   1.410   1.619  14.152
62282SOL    HW188743   1.459   1.552  14.200
62282SOL    HW288744   1.326   1.625  14.197
62283SOL     OW88745   0.081  14.722   0.524
62283SOL    HW188746   0.071  14.700   0.431
62283SOL    HW288747   0.117  14.811   0.523
62284SOL     OW88748   1.367   7.782  13.495
62284SOL    HW188749   1.458   7.795  13.468
62284SOL    HW288750   1.373   7.742  13.582
62285SOL     OW88751  12.791   9.847   6.266
62285SOL    HW188752  12.782   9.830   6.360
62285SOL    HW288753  12.830   9.767   6.231
62286SOL     OW88754  12.495   3.078   4.830
62286SOL    HW188755  12.417   3.125   4.860
62286SOL    HW288756  12.500   3.001   4.887
62287SOL     OW88757   7.855  12.702  12.744
62287SOL    HW188758   7.832  12.786  12.702
62287SOL    HW288759   7.949  12.706  12.755
62288SOL     OW88760  14.812   2.788   2.322
62288SOL    HW188761  14.806   2.758   2.413
62288SOL    HW288762  14.730   2.760   2.282
62289SOL     OW88763   3.676   3.431   9.630
62289SOL    HW188764   3.630   3.430   9.546
62289SOL    HW288765   3.768   3.433   9.606
62290SOL     OW88766  14.583   6.638   9.564
62290SOL    HW188767  14.516   6.591   9.514
62290SOL    HW288768  14.606   6.713   9.509
62291SOL     OW88769   8.230  13.552   1.518
62291SOL    HW188770   8.153  13.556   1.574
62291SOL    HW288771   8.250  13.644   1.498
62292SOL     OW88772   5.129   5.897  10.673
62292SOL    HW188773   5.054   5.840  10.687
62292SOL    HW288774   5.201   5.838  10.654
62293SOL     OW88775   3.947   5.370  13.060
62293SOL    HW188776   3.939   5.420  12.979
62293SOL    HW288777   3.922   5.432  13.128
62294SOL     OW88778  11.372  11.612   5.107
62294SOL    HW188779  11.382  11.706   5.124
62294SOL    HW288780  11.445  11.591   5.050
62295SOL     OW88781   2.055   1.263   1.532
62295SOL    HW188782   2.109   1.256   1.611
62295SOL    HW288783   2.019   1.175   1.519
62296SOL     OW88784   6.854  11.716   7.112
62296SOL    HW188785   6.867  11.648   7.046
62296SOL    HW288786   6.787  11.774   7.074
62297SOL     OW88787  10.861   5.983   5.997
62297SOL    HW188788  10.848   5.907   6.054
62297SOL    HW288789  10.815   5.961   5.917
62298SOL     OW88790   1.647   8.939  11.040
62298SOL    HW188791   1.618   8.980  10.959
62298SOL    HW288792   1.713   9.000  11.075
62299SOL     OW88793  10.714   3.302   3.688
62299SOL    HW188794  10.742   3.213   3.669
62299SOL    HW288795  10.639   3.316   3.631
62300SOL     OW88796  12.123   3.509   9.973
62300SOL    HW188797  12.207   3.540   9.937
62300SOL    HW288798  12.082   3.588  10.008
62301SOL     OW88799   5.149  12.438   3.143
62301SOL    HW188800   5.130  12.353   3.102
62301SOL    HW288801   5.147  12.501   3.071
62302SOL     OW88802   6.332   1.626   8.216
62302SOL    HW188803   6.308   1.631   8.308
62302SOL    HW288804   6.279   1.554   8.181
62303SOL     OW88805   6.926  14.771   1.493
62303SOL    HW188806   6.835  14.784   1.519
62303SOL    HW288807   6.967  14.730   1.570
62304SOL     OW88808  11.122   5.849   1.734
62304SOL    HW188809  11.093   5.892   1.653
62304SOL    HW288810  11.041   5.813   1.771
62305SOL     OW88811   8.931   2.991   4.580
62305SOL    HW188812   8.880   3.024   4.507
62305SOL    HW288813   8.948   3.069   4.634
62306SOL     OW88814   3.468   7.508   3.380
62306SOL    HW188815   3.449   7.420   3.411
62306SOL    HW288816   3.548   7.499   3.330
62307SOL     OW88817  12.120  13.192  12.569
62307SOL    HW188818  12.045  13.149  12.529
62307SOL    HW288819  12.097  13.199  12.662
62308SOL     OW88820   4.177   5.984   1.147
62308SOL    HW188821   4.193   5.892   1.126
62308SOL    HW288822   4.168   5.985   1.243
62309SOL     OW88823   8.793   7.487   9.270
62309SOL    HW188824   8.837   7.571   9.261
62309SOL    HW288825   8.864   7.425   9.291
62310SOL     OW88826   2.368   0.990  13.679
62310SOL    HW188827   2.379   1.078  13.714
62310SOL    HW288828   2.423   0.987  13.602
62311SOL     OW88829   7.225  11.376   6.943
62311SOL    HW188830   7.197  11.456   6.899
62311SOL    HW288831   7.198  11.305   6.884
62312SOL     OW88832   7.279  11.334   3.149
62312SOL    HW188833   7.332  11.413   3.138
62312SOL    HW288834   7.190  11.366   3.163
62313SOL     OW88835  13.159  12.228  12.443
62313SOL    HW188836  13.093  12.167  12.410
62313SOL    HW288837  13.241  12.177  12.443
62314SOL     OW88838   6.109   3.098   8.137
62314SOL    HW188839   6.143   3.187   8.140
62314SOL    HW288840   6.179   3.047   8.096
62315SOL     OW88841   0.607   5.248   6.496
62315SOL    HW188842   0.621   5.330   6.449
62315SOL    HW288843   0.654   5.183   6.445
62316SOL     OW88844   0.094   9.338   2.780
62316SOL    HW188845   0.101   9.381   2.866
62316SOL    HW288846   0.184   9.334   2.748
62317SOL     OW88847   4.130  12.920   4.791
62317SOL    HW188848   4.209  12.892   4.837
62317SOL    HW288849   4.080  12.969   4.856
62318SOL     OW88850  11.985   1.844   5.255
62318SOL    HW188851  11.958   1.765   5.208
62318SOL    HW288852  11.904   1.883   5.285
62319SOL     OW88853   8.867   2.673  13.753
62319SOL    HW188854   8.850   2.701  13.664
62319SOL    HW288855   8.929   2.738  13.787
62320SOL     OW88856   4.492   8.160   4.361
62320SOL    HW188857   4.554   8.098   4.401
62320SOL    HW288858   4.489   8.134   4.269
62321SOL     OW88859  10.740  12.858   4.874
62321SOL    HW188860  10.664  12.848   4.817
62321SOL    HW288861  10.772  12.768   4.887
62322SOL     OW88862   2.270  12.885  10.810
62322SOL    HW188863   2.181  12.900  10.842
62322SOL    HW288864   2.295  12.801  10.848
62323SOL     OW88865   7.089   6.108   3.996
62323SOL    HW188866   7.124   6.186   3.955
62323SOL    HW288867   7.161   6.076   4.051
62324SOL     OW88868   9.417   5.560  13.440
62324SOL    HW188869   9.466   5.606  13.372
62324SOL    HW288870   9.474   5.561  13.516
62325SOL     OW88871   3.402   9.434   7.330
62325SOL    HW188872   3.335   9.463   7.269
62325SOL    HW288873   3.477   9.490   7.312
62326SOL     OW88874  12.434  10.847   0.288
62326SOL    HW188875  12.506  10.818   0.232
62326SOL    HW288876  12.364  10.783   0.272
62327SOL     OW88877   2.065   9.224  11.805
62327SOL    HW188878   2.049   9.198  11.896
62327SOL    HW288879   2.114   9.306  11.812
62328SOL     OW88880   3.851   3.113   4.143
62328SOL    HW188881   3.803   3.194   4.161
62328SOL    HW288882   3.801   3.070   4.074
62329SOL     OW88883   2.891   1.189   8.706
62329SOL    HW188884   2.929   1.247   8.773
62329SOL    HW288885   2.826   1.243   8.662
62330SOL     OW88886   5.144   7.847  13.303
62330SOL    HW188887   5.188   7.903  13.240
62330SOL    HW288888   5.184   7.870  13.387
62331SOL     OW88889   4.380  14.767  13.780
62331SOL    HW188890   4.325  14.790  13.705
62331SOL    HW288891   4.360  14.676  13.798
62332SOL     OW88892   8.723  14.106   7.630
62332SOL    HW188893   8.640  14.115   7.676
62332SOL    HW288894   8.770  14.036   7.676
62333SOL     OW88895   5.910   0.614   5.175
62333SOL    HW188896   5.821   0.645   5.158
62333SOL    HW288897   5.924   0.629   5.268
62334SOL     OW88898  13.501   6.651   7.684
62334SOL    HW188899  13.549   6.644   7.767
62334SOL    HW288900  13.432   6.715   7.701
62335SOL     OW88901  10.954  11.191  14.392
62335SOL    HW188902  10.966  11.243  14.471
62335SOL    HW288903  11.017  11.227  14.330
62336SOL     OW88904  10.702  12.924   0.596
62336SOL    HW188905  10.680  12.875   0.516
62336SOL    HW288906  10.784  12.885   0.627
62337SOL     OW88907  12.520   2.014  10.822
62337SOL    HW188908  12.527   2.109  10.817
62337SOL    HW288909  12.523   1.985  10.731
62338SOL     OW88910   9.370   3.188   3.538
62338SOL    HW188911   9.333   3.102   3.555
62338SOL    HW288912   9.429   3.174   3.463
62339SOL     OW88913   1.604   2.862  13.907
62339SOL    HW188914   1.543   2.896  13.973
62339SOL    HW288915   1.577   2.904  13.825
62340SOL     OW88916   8.140   4.633  14.633
62340SOL    HW188917   8.063   4.594  14.676
62340SOL    HW288918   8.191   4.670  14.705
62341SOL     OW88919   6.483  10.590   3.539
62341SOL    HW188920   6.403  10.565   3.493
62341SOL    HW288921   6.498  10.519   3.602
62342SOL     OW88922  13.738   6.877   8.752
62342SOL    HW188923  13.768   6.846   8.838
62342SOL    HW288924  13.809   6.856   8.693
62343SOL     OW88925  10.555   3.081   0.595
62343SOL    HW188926  10.486   3.015   0.600
62343SOL    HW288927  10.607   3.068   0.674
62344SOL     OW88928  11.644  13.939   6.562
62344SOL    HW188929  11.617  13.973   6.648
62344SOL    HW288930  11.562  13.930   6.513
62345SOL     OW88931   2.683   5.352   2.857
62345SOL    HW188932   2.767   5.356   2.903
62345SOL    HW288933   2.685   5.424   2.795
62346SOL     OW88934   3.837  10.860  14.358
62346SOL    HW188935   3.871  10.852  14.269
62346SOL    HW288936   3.822  10.954  14.370
62347SOL     OW88937  10.954   5.286   2.166
62347SOL    HW188938  11.020   5.220   2.145
62347SOL    HW288939  10.965   5.353   2.099
62348SOL     OW88940   2.636   7.525   4.472
62348SOL    HW188941   2.637   7.543   4.566
62348SOL    HW288942   2.717   7.477   4.455
62349SOL     OW88943  10.059   3.224  13.006
62349SOL    HW188944  10.103   3.307  13.024
62349SOL    HW288945  10.083   3.203  12.916
62350SOL     OW88946   4.673   9.454  12.628
62350SOL    HW188947   4.658   9.534  12.678
62350SOL    HW288948   4.587   9.413  12.621
62351SOL     OW88949  10.815  10.811   0.051
62351SOL    HW188950  10.849  10.831  14.841
62351SOL    HW288951  10.786  10.895   0.085
62352SOL     OW88952  10.141   0.964   4.999
62352SOL    HW188953  10.206   1.034   5.001
62352SOL    HW288954  10.095   0.976   4.916
62353SOL     OW88955   9.581   3.548   5.325
62353SOL    HW188956   9.545   3.627   5.366
62353SOL    HW288957   9.591   3.571   5.233
62354SOL     OW88958  11.070   3.598   4.510
62354SOL    HW188959  10.999   3.588   4.575
62354SOL    HW288960  11.048   3.679   4.464
62355SOL     OW88961   1.488   9.695   1.810
62355SOL    HW188962   1.401   9.685   1.772
62355SOL    HW288963   1.538   9.621   1.774
62356SOL     OW88964   1.160   0.268   8.774
62356SOL    HW188965   1.221   0.337   8.801
62356SOL    HW288966   1.089   0.315   8.731
62357SOL     OW88967   8.995   0.325   3.767
62357SOL    HW188968   8.979   0.380   3.691
62357SOL    HW288969   9.089   0.307   3.766
62358SOL     OW88970  13.327   6.826   7.141
62358SOL    HW188971  13.252   6.851   7.195
62358SOL    HW288972  13.343   6.734   7.162
62359SOL     OW88973  14.368   1.900   9.855
62359SOL    HW188974  14.364   1.820   9.908
62359SOL    HW288975  14.287   1.946   9.874
62360SOL     OW88976  10.330   1.207   5.732
62360SOL    HW188977  10.357   1.296   5.708
62360SOL    HW288978  10.239   1.216   5.761
62361SOL     OW88979  13.416  11.629   4.185
62361SOL    HW188980  13.430  11.622   4.279
62361SOL    HW288981  13.440  11.719   4.163
62362SOL     OW88982  11.594  13.615  13.028
62362SOL    HW188983  11.549  13.531  13.015
62362SOL    HW288984  11.525  13.675  13.054
62363SOL     OW88985   2.100   0.457  13.920
62363SOL    HW188986   2.040   0.383  13.924
62363SOL    HW288987   2.043   0.534  13.918
62364SOL     OW88988   5.337   0.180   6.371
62364SOL    HW188989   5.399   0.112   6.399
62364SOL    HW288990   5.254   0.133   6.360
62365SOL     OW88991   9.758   0.369   9.822
62365SOL    HW188992   9.824   0.436   9.840
62365SOL    HW288993   9.766   0.352   9.728
62366SOL     OW88994   7.733  11.744  12.481
62366SOL    HW188995   7.668  11.690  12.526
62366SOL    HW288996   7.747  11.818  12.539
62367SOL     OW88997   9.891  12.577   5.077
62367SOL    HW188998   9.886  12.657   5.129
62367SOL    HW288999   9.974  12.536   5.105
62368SOL     OW89000   3.327   5.548   2.718
62368SOL    HW189001   3.308   5.566   2.626
62368SOL    HW289002   3.402   5.603   2.739
62369SOL     OW89003   8.248  10.569   0.026
62369SOL    HW189004   8.167  10.609   0.059
62369SOL    HW289005   8.224  10.478   0.008
62370SOL     OW89006   6.916  12.870  13.728
62370SOL    HW189007   6.959  12.796  13.686
62370SOL    HW289008   6.823  12.858  13.708
62371SOL     OW89009   5.432  10.360  14.728
62371SOL    HW189010   5.390  10.423  14.669
62371SOL    HW289011   5.371  10.287  14.733
62372SOL     OW89012   7.388   2.532  14.826
62372SOL    HW189013   7.322   2.545   0.017
62372SOL    HW289014   7.348   2.470  14.765
62373SOL     OW89015   3.739  13.308   6.924
62373SOL    HW189016   3.740  13.396   6.886
62373SOL    HW289017   3.649  13.278   6.915
62374SOL     OW89018   9.863   3.990  11.949
62374SOL    HW189019   9.785   3.951  11.910
62374SOL    HW289020   9.837   4.009  12.040
62375SOL     OW89021   1.336  12.920  13.309
62375SOL    HW189022   1.302  12.988  13.252
62375SOL    HW289023   1.264  12.859  13.320
62376SOL     OW89024   1.524   6.705   6.597
62376SOL    HW189025   1.498   6.735   6.510
62376SOL    HW289026   1.522   6.609   6.591
62377SOL     OW89027   2.033   9.578  13.369
62377SOL    HW189028   2.073   9.655  13.409
62377SOL    HW289029   1.940   9.584  13.392
62378SOL     OW89030  14.263   1.849   6.004
62378SOL    HW189031  14.268   1.917   6.070
62378SOL    HW289032  14.188   1.874   5.950
62379SOL     OW89033   2.138   9.921   1.225
62379SOL    HW189034   2.137   9.965   1.310
62379SOL    HW289035   2.213   9.861   1.230
62380SOL     OW89036   8.154   0.535  14.850
62380SOL    HW189037   8.248   0.528  14.832
62380SOL    HW289038   8.116   0.459  14.806
62381SOL     OW89039  13.224  13.424  10.302
62381SOL    HW189040  13.233  13.331  10.284
62381SOL    HW289041  13.285  13.441  10.374
62382SOL     OW89042  11.135  12.400   0.291
62382SOL    HW189043  11.194  12.425   0.363
62382SOL    HW289044  11.164  12.312   0.266
62383SOL     OW89045   0.557   0.925   3.811
62383SOL    HW189046   0.641   0.917   3.857
62383SOL    HW289047   0.576   0.895   3.722
62384SOL     OW89048   8.518  12.149   8.521
62384SOL    HW189049   8.570  12.229   8.512
62384SOL    HW289050   8.549  12.092   8.452
62385SOL     OW89051  10.296   0.977   0.029
62385SOL    HW189052  10.390   0.967   0.044
62385SOL    HW289053  10.263   0.887   0.026
62386SOL     OW89054   5.226  10.274   9.522
62386SOL    HW189055   5.230  10.280   9.617
62386SOL    HW289056   5.261  10.357   9.491
62387SOL     OW89057   5.219   3.610  11.230
62387SOL    HW189058   5.277   3.683  11.208
62387SOL    HW289059   5.136   3.652  11.253
62388SOL     OW89060  12.309   4.337   8.704
62388SOL    HW189061  12.265   4.319   8.787
62388SOL    HW289062  12.399   4.357   8.729
62389SOL     OW89063   8.919  13.538   5.332
62389SOL    HW189064   8.974  13.462   5.351
62389SOL    HW289065   8.886  13.565   5.418
62390SOL     OW89066   5.191   6.555   7.674
62390SOL    HW189067   5.178   6.622   7.742
62390SOL    HW289068   5.281   6.527   7.685
62391SOL     OW89069   1.450   6.336  12.153
62391SOL    HW189070   1.375   6.279  12.133
62391SOL    HW289071   1.415   6.401  12.213
62392SOL     OW89072  13.833   9.566   0.221
62392SOL    HW189073  13.754   9.582   0.272
62392SOL    HW289074  13.812   9.597   0.133
62393SOL     OW89075   4.894  13.824  12.668
62393SOL    HW189076   4.914  13.892  12.732
62393SOL    HW289077   4.887  13.743  12.720
62394SOL     OW89078  14.705  14.768   0.101
62394SOL    HW189079  14.690  14.860   0.082
62394SOL    HW289080  14.702  14.725   0.015
62395SOL     OW89081   7.240   9.665   2.597
62395SOL    HW189082   7.336   9.660   2.601
62395SOL    HW289083   7.213   9.577   2.568
62396SOL     OW89084   5.051   1.250   9.849
62396SOL    HW189085   5.102   1.314   9.898
62396SOL    HW289086   5.100   1.236   9.768
62397SOL     OW89087   5.292   8.922   7.529
62397SOL    HW189088   5.371   8.933   7.582
62397SOL    HW289089   5.306   8.980   7.454
62398SOL     OW89090  10.287  11.032   9.090
62398SOL    HW189091  10.319  11.081   9.014
62398SOL    HW289092  10.353  10.964   9.104
62399SOL     OW89093   5.801   4.085   2.818
62399SOL    HW189094   5.867   4.102   2.885
62399SOL    HW289095   5.795   3.990   2.813
62400SOL     OW89096   9.596   7.588   4.047
62400SOL    HW189097   9.645   7.557   4.123
62400SOL    HW289098   9.530   7.521   4.031
62401SOL     OW89099  10.407   9.997   6.945
62401SOL    HW189100  10.362   9.942   7.008
62401SOL    HW289101  10.455  10.061   6.997
62402SOL     OW89102  14.194  13.012  10.337
62402SOL    HW189103  14.282  13.013  10.300
62402SOL    HW289104  14.164  13.102  10.331
62403SOL     OW89105  13.117   3.139  12.626
62403SOL    HW189106  13.145   3.102  12.542
62403SOL    HW289107  13.124   3.233  12.614
62404SOL     OW89108   7.577   0.260   0.165
62404SOL    HW189109   7.641   0.204   0.120
62404SOL    HW289110   7.612   0.271   0.253
62405SOL     OW89111  12.064  13.443   8.405
62405SOL    HW189112  12.069  13.436   8.309
62405SOL    HW289113  12.029  13.530   8.421
62406SOL     OW89114  12.793  13.633   4.452
62406SOL    HW189115  12.771  13.578   4.527
62406SOL    HW289116  12.865  13.689   4.483
62407SOL     OW89117   0.688   5.795   8.497
62407SOL    HW189118   0.608   5.777   8.545
62407SOL    HW289119   0.707   5.887   8.516
62408SOL     OW89120  12.462   2.142   9.245
62408SOL    HW189121  12.523   2.208   9.277
62408SOL    HW289122  12.518   2.074   9.207
62409SOL     OW89123   3.912  13.821   0.286
62409SOL    HW189124   4.002  13.836   0.256
62409SOL    HW289125   3.922  13.797   0.379
62410SOL     OW89126   5.788   5.858  12.928
62410SOL    HW189127   5.751   5.844  12.841
62410SOL    HW289128   5.846   5.934  12.918
62411SOL     OW89129   0.172  13.848   4.709
62411SOL    HW189130   0.151  13.910   4.779
62411SOL    HW289131   0.118  13.772   4.728
62412SOL     OW89132  12.793   4.310   5.875
62412SOL    HW189133  12.766   4.220   5.855
62412SOL    HW289134  12.883   4.316   5.842
62413SOL     OW89135  10.652   0.791   4.187
62413SOL    HW189136  10.715   0.719   4.179
62413SOL    HW289137  10.695   0.866   4.146
62414SOL     OW89138   1.866   2.981   8.699
62414SOL    HW189139   1.795   2.924   8.729
62414SOL    HW289140   1.894   3.027   8.777
62415SOL     OW89141   4.929   9.779   2.800
62415SOL    HW189142   4.980   9.852   2.834
62415SOL    HW289143   4.848   9.818   2.767
62416SOL     OW89144   1.368  11.377  14.577
62416SOL    HW189145   1.369  11.307  14.642
62416SOL    HW289146   1.387  11.456  14.627
62417SOL     OW89147  13.341  12.390   9.425
62417SOL    HW189148  13.276  12.382   9.355
62417SOL    HW289149  13.416  12.340   9.393
62418SOL     OW89150   1.493  13.051   4.111
62418SOL    HW189151   1.574  13.002   4.124
62418SOL    HW289152   1.522  13.138   4.082
62419SOL     OW89153   1.792  13.072   3.605
62419SOL    HW189154   1.711  13.118   3.584
62419SOL    HW289155   1.817  13.105   3.691
62420SOL     OW89156   7.677   6.108  11.566
62420SOL    HW189157   7.698   6.199  11.591
62420SOL    HW289158   7.705   6.101  11.475
62421SOL     OW89159  11.860   7.042  11.286
62421SOL    HW189160  11.776   7.044  11.331
62421SOL    HW289161  11.849   6.978  11.216
62422SOL     OW89162  14.245   2.626   7.879
62422SOL    HW189163  14.276   2.543   7.844
62422SOL    HW289164  14.274   2.692   7.815
62423SOL     OW89165   7.436   8.536   5.397
62423SOL    HW189166   7.509   8.479   5.423
62423SOL    HW289167   7.360   8.477   5.392
62424SOL     OW89168  10.933  12.792   0.674
62424SOL    HW189169  11.020  12.831   0.668
62424SOL    HW289170  10.944  12.704   0.637
62425SOL     OW89171   7.699  12.389   1.206
62425SOL    HW189172   7.670  12.470   1.248
62425SOL    HW289173   7.666  12.319   1.262
62426SOL     OW89174   2.486   0.517   2.958
62426SOL    HW189175   2.529   0.445   2.910
62426SOL    HW289176   2.555   0.551   3.015
62427SOL     OW89177   4.919   1.302  12.404
62427SOL    HW189178   4.870   1.230  12.364
62427SOL    HW289179   4.990   1.319  12.342
62428SOL     OW89180   7.179   9.876   6.690
62428SOL    HW189181   7.153   9.872   6.598
62428SOL    HW289182   7.272   9.896   6.688
62429SOL     OW89183   2.003   3.872   0.106
62429SOL    HW189184   1.943   3.822   0.161
62429SOL    HW289185   2.083   3.878   0.157
62430SOL     OW89186  14.822   7.760  14.352
62430SOL    HW189187  14.870   7.758  14.269
62430SOL    HW289188  14.749   7.820  14.336
62431SOL     OW89189  13.403  11.378   0.157
62431SOL    HW189190  13.444  11.447   0.209
62431SOL    HW289191  13.398  11.415   0.068
62432SOL     OW89192   3.625   6.445   9.650
62432SOL    HW189193   3.655   6.445   9.741
62432SOL    HW289194   3.705   6.433   9.599
62433SOL     OW89195   8.795  12.119  13.638
62433SOL    HW189196   8.717  12.071  13.662
62433SOL    HW289197   8.863  12.053  13.628
62434SOL     OW89198  13.971   3.910  13.973
62434SOL    HW189199  14.060   3.933  13.999
62434SOL    HW289200  13.972   3.814  13.966
62435SOL     OW89201  11.119  14.227   3.288
62435SOL    HW189202  11.206  14.255   3.259
62435SOL    HW289203  11.093  14.159   3.226
62436SOL     OW89204   7.143   4.357   9.245
62436SOL    HW189205   7.127   4.432   9.303
62436SOL    HW289206   7.217   4.311   9.285
62437SOL     OW89207   8.457   3.754   6.686
62437SOL    HW189208   8.492   3.784   6.602
62437SOL    HW289209   8.362   3.751   6.673
62438SOL     OW89210  10.129  10.374   6.314
62438SOL    HW189211  10.061  10.439   6.334
62438SOL    HW289212  10.127  10.367   6.219
62439SOL     OW89213  12.004  14.618   5.927
62439SOL    HW189214  12.050  14.545   5.887
62439SOL    HW289215  12.013  14.604   6.021
62440SOL     OW89216  11.528   5.953   9.412
62440SOL    HW189217  11.548   6.004   9.333
62440SOL    HW289218  11.563   5.866   9.393
62441SOL     OW89219   6.724   2.838   0.352
62441SOL    HW189220   6.656   2.900   0.378
62441SOL    HW289221   6.709   2.824   0.259
62442SOL     OW89222   7.700  13.180   1.828
62442SOL    HW189223   7.666  13.157   1.742
62442SOL    HW289224   7.622  13.191   1.883
62443SOL     OW89225  11.241   2.613   6.567
62443SOL    HW189226  11.170   2.551   6.551
62443SOL    HW289227  11.204   2.676   6.629
62444SOL     OW89228   4.515  14.859  10.099
62444SOL    HW189229   4.452  14.802  10.143
62444SOL    HW289230   4.483  14.865  10.009
62445SOL     OW89231   9.901   8.807  12.749
62445SOL    HW189232   9.859   8.870  12.808
62445SOL    HW289233   9.965   8.859  12.701
62446SOL     OW89234   1.097   3.250  13.192
62446SOL    HW189235   1.163   3.225  13.127
62446SOL    HW289236   1.141   3.238  13.276
62447SOL     OW89237  14.120   3.974   1.925
62447SOL    HW189238  14.068   3.903   1.886
62447SOL    HW289239  14.055   4.040   1.950
62448SOL     OW89240   9.227   6.676   4.464
62448SOL    HW189241   9.191   6.710   4.545
62448SOL    HW289242   9.256   6.587   4.486
62449SOL     OW89243   1.796  12.880   4.378
62449SOL    HW189244   1.720  12.835   4.415
62449SOL    HW289245   1.765  12.968   4.357
62450SOL     OW89246   3.136  14.419  10.557
62450SOL    HW189247   3.090  14.502  10.546
62450SOL    HW289248   3.226  14.438  10.531
62451SOL     OW89249  13.361   6.528   8.943
62451SOL    HW189250  13.413   6.523   8.863
62451SOL    HW289251  13.344   6.621   8.954
62452SOL     OW89252   7.551  13.848   3.884
62452SOL    HW189253   7.505  13.891   3.957
62452SOL    HW289254   7.513  13.760   3.881
62453SOL     OW89255   5.240   7.055  12.596
62453SOL    HW189256   5.193   7.052  12.512
62453SOL    HW289257   5.242   7.147  12.619
62454SOL     OW89258   9.016   8.470  11.004
62454SOL    HW189259   8.963   8.543  10.971
62454SOL    HW289260   9.015   8.407  10.932
62455SOL     OW89261   6.608   2.233   5.994
62455SOL    HW189262   6.691   2.204   6.032
62455SOL    HW289263   6.541   2.180   6.038
62456SOL     OW89264   5.728  14.220  12.530
62456SOL    HW189265   5.640  14.183  12.532
62456SOL    HW289266   5.718  14.307  12.567
62457SOL     OW89267   1.713   4.575  12.494
62457SOL    HW189268   1.658   4.573  12.416
62457SOL    HW289269   1.702   4.488  12.534
62458SOL     OW89270   5.813   2.433   0.436
62458SOL    HW189271   5.864   2.512   0.456
62458SOL    HW289272   5.751   2.425   0.508
62459SOL     OW89273   7.810   4.280   5.318
62459SOL    HW189274   7.903   4.299   5.332
62459SOL    HW289275   7.784   4.338   5.246
62460SOL     OW89276  10.728  14.180   7.236
62460SOL    HW189277  10.742  14.218   7.322
62460SOL    HW289278  10.783  14.102   7.234
62461SOL     OW89279  12.292  12.359   3.123
62461SOL    HW189280  12.286  12.344   3.028
62461SOL    HW289281  12.385  12.378   3.138
62462SOL     OW89282  13.835   5.378   6.159
62462SOL    HW189283  13.758   5.405   6.110
62462SOL    HW289284  13.833   5.433   6.238
62463SOL     OW89285  13.737   0.422   3.015
62463SOL    HW189286  13.820   0.464   3.038
62463SOL    HW289287  13.698   0.479   2.948
62464SOL     OW89288   6.155   1.388   0.753
62464SOL    HW189289   6.239   1.406   0.710
62464SOL    HW289290   6.142   1.294   0.741
62465SOL     OW89291   3.080   4.923   1.432
62465SOL    HW189292   3.048   5.000   1.385
62465SOL    HW289293   3.130   4.959   1.506
62466SOL     OW89294  12.575   9.894   3.705
62466SOL    HW189295  12.566   9.858   3.793
62466SOL    HW289296  12.608   9.820   3.652
62467SOL     OW89297   7.026  13.116   2.050
62467SOL    HW189298   7.040  13.098   2.143
62467SOL    HW289299   7.114  13.132   2.015
62468SOL     OW89300   3.328   3.054  10.988
62468SOL    HW189301   3.384   2.977  10.994
62468SOL    HW289302   3.363   3.103  10.914
62469SOL     OW89303   6.918  12.939   1.846
62469SOL    HW189304   6.961  13.015   1.885
62469SOL    HW289305   6.840  12.927   1.899
62470SOL     OW89306  10.839   3.913   8.758
62470SOL    HW189307  10.785   3.988   8.733
62470SOL    HW289308  10.928   3.948   8.764
62471SOL     OW89309   3.890   2.514  12.442
62471SOL    HW189310   3.906   2.533  12.350
62471SOL    HW289311   3.972   2.535  12.486
62472SOL     OW89312   0.608   2.974   3.625
62472SOL    HW189313   0.608   3.070   3.625
62472SOL    HW289314   0.690   2.950   3.583
62473SOL     OW89315  13.084  10.065   5.782
62473SOL    HW189316  13.031  10.109   5.848
62473SOL    HW289317  13.045  10.091   5.699
62474SOL     OW89318   1.226   2.437   7.040
62474SOL    HW189319   1.194   2.363   7.091
62474SOL    HW289320   1.277   2.489   7.102
62475SOL     OW89321  13.633   8.930  11.872
62475SOL    HW189322  13.582   9.009  11.855
62475SOL    HW289323  13.579   8.878  11.932
62476SOL     OW89324  13.778  11.875  13.655
62476SOL    HW189325  13.763  11.833  13.739
62476SOL    HW289326  13.810  11.805  13.598
62477SOL     OW89327   4.141   2.116   4.498
62477SOL    HW189328   4.230   2.080   4.490
62477SOL    HW289329   4.136   2.181   4.428
62478SOL     OW89330   2.775   3.357   9.988
62478SOL    HW189331   2.687   3.388  10.009
62478SOL    HW289332   2.778   3.267  10.021
62479SOL     OW89333   0.705   8.028  12.755
62479SOL    HW189334   0.641   8.011  12.686
62479SOL    HW289335   0.789   8.004  12.717
62480SOL     OW89336  14.066   3.128   4.794
62480SOL    HW189337  14.158   3.139   4.818
62480SOL    HW289338  14.055   3.183   4.716
62481SOL     OW89339  13.336   4.495  12.270
62481SOL    HW189340  13.349   4.587  12.293
62481SOL    HW289341  13.257   4.495  12.216
62482SOL     OW89342   7.134  12.124  12.936
62482SOL    HW189343   7.067  12.190  12.956
62482SOL    HW289344   7.146  12.077  13.019
62483SOL     OW89345   0.990  11.834   8.641
62483SOL    HW189346   1.047  11.908   8.659
62483SOL    HW289347   0.917  11.844   8.702
62484SOL     OW89348   7.681   3.673   8.858
62484SOL    HW189349   7.687   3.729   8.936
62484SOL    HW289350   7.631   3.597   8.887
62485SOL     OW89351   3.466  11.964  14.187
62485SOL    HW189352   3.404  12.037  14.188
62485SOL    HW289353   3.482  11.949  14.094
62486SOL     OW89354   9.788   8.202  11.865
62486SOL    HW189355   9.761   8.121  11.907
62486SOL    HW289356   9.711   8.231  11.816
62487SOL     OW89357   1.293   0.012   1.854
62487SOL    HW189358   1.309  14.837   1.776
62487SOL    HW289359   1.298  14.828   1.927
62488SOL     OW89360   4.637   9.156  12.676
62488SOL    HW189361   4.572   9.226  12.672
62488SOL    HW289362   4.654   9.134  12.585
62489SOL     OW89363   1.997   0.559  10.722
62489SOL    HW189364   2.073   0.592  10.675
62489SOL    HW289365   1.922   0.602  10.681
62490SOL     OW89366  12.447   7.202  12.891
62490SOL    HW189367  12.477   7.134  12.830
62490SOL    HW289368  12.406   7.153  12.962
62491SOL     OW89369   9.303  10.885   5.857
62491SOL    HW189370   9.306  10.826   5.932
62491SOL    HW289371   9.223  10.936   5.870
62492SOL     OW89372   9.331  14.177  14.394
62492SOL    HW189373   9.343  14.082  14.385
62492SOL    HW289374   9.239  14.188  14.414
62493SOL     OW89375   4.287  13.030   0.512
62493SOL    HW189376   4.261  12.938   0.500
62493SOL    HW289377   4.204  13.077   0.521
62494SOL     OW89378   3.249   9.546   7.737
62494SOL    HW189379   3.288   9.535   7.824
62494SOL    HW289380   3.172   9.489   7.737
62495SOL     OW89381  13.720   5.584   9.568
62495SOL    HW189382  13.759   5.557   9.485
62495SOL    HW289383  13.715   5.503   9.619
62496SOL     OW89384  14.260  10.743   4.816
62496SOL    HW189385  14.284  10.769   4.728
62496SOL    HW289386  14.196  10.672   4.804
62497SOL     OW89387   9.606   6.907   1.035
62497SOL    HW189388   9.606   6.839   1.102
62497SOL    HW289389   9.663   6.872   0.966
62498SOL     OW89390  14.334   4.409   8.037
62498SOL    HW189391  14.419   4.389   8.076
62498SOL    HW289392  14.325   4.504   8.046
62499SOL     OW89393   0.360  10.111  12.623
62499SOL    HW189394   0.334  10.019  12.636
62499SOL    HW289395   0.277  10.156  12.606
62500SOL     OW89396  10.571  12.677  12.372
62500SOL    HW189397  10.638  12.736  12.339
62500SOL    HW289398  10.505  12.734  12.412
62501SOL     OW89399  12.847  12.222   0.807
62501SOL    HW189400  12.776  12.166   0.774
62501SOL    HW289401  12.855  12.200   0.899
62502SOL     OW89402   0.778   1.828   4.554
62502SOL    HW189403   0.722   1.754   4.575
62502SOL    HW289404   0.857   1.813   4.606
62503SOL     OW89405   2.975   4.267  11.646
62503SOL    HW189406   3.009   4.303  11.728
62503SOL    HW289407   3.018   4.182  11.636
62504SOL     OW89408   4.965   3.482   2.208
62504SOL    HW189409   4.877   3.479   2.244
62504SOL    HW289410   4.987   3.391   2.189
62505SOL     OW89411  14.157   0.887   6.903
62505SOL    HW189412  14.119   0.879   6.815
62505SOL    HW289413  14.103   0.954   6.946
62506SOL     OW89414   7.757  11.705   8.643
62506SOL    HW189415   7.804  11.787   8.630
62506SOL    HW289416   7.798  11.644   8.581
62507SOL     OW89417  13.636   5.171  12.469
62507SOL    HW189418  13.606   5.200  12.383
62507SOL    HW289419  13.624   5.248  12.525
62508SOL     OW89420   1.984  10.958  13.729
62508SOL    HW189421   1.947  11.018  13.664
62508SOL    HW289422   1.987  11.008  13.810
62509SOL     OW89423   2.824  10.102  13.313
62509SOL    HW189424   2.756  10.036  13.298
62509SOL    HW289425   2.792  10.154  13.386
62510SOL     OW89426   1.927   3.928   8.246
62510SOL    HW189427   1.994   3.995   8.257
62510SOL    HW289428   1.852   3.960   8.297
62511SOL     OW89429   3.907   2.952  11.115
62511SOL    HW189430   3.954   2.873  11.141
62511SOL    HW289431   3.868   2.984  11.196
62512SOL     OW89432  11.052   5.606   7.237
62512SOL    HW189433  11.046   5.537   7.303
62512SOL    HW289434  11.069   5.686   7.288
62513SOL     OW89435   4.813   3.997   7.387
62513SOL    HW189436   4.869   3.921   7.369
62513SOL    HW289437   4.785   3.985   7.477
62514SOL     OW89438   7.399  12.882  14.172
62514SOL    HW189439   7.370  12.852  14.086
62514SOL    HW289440   7.487  12.916  14.156
62515SOL     OW89441  11.255   4.066   3.899
62515SOL    HW189442  11.302   4.146   3.877
62515SOL    HW289443  11.261   4.012   3.820
62516SOL     OW89444  13.615   0.998   5.401
62516SOL    HW189445  13.616   0.928   5.335
62516SOL    HW289446  13.573   1.072   5.357
62517SOL     OW89447   6.650   9.393   4.056
62517SOL    HW189448   6.658   9.307   4.098
62517SOL    HW289449   6.557   9.415   4.063
62518SOL     OW89450  11.412  11.849  14.312
62518SOL    HW189451  11.487  11.791  14.295
62518SOL    HW289452  11.394  11.837  14.405
62519SOL     OW89453   5.866  12.966   5.600
62519SOL    HW189454   5.883  12.938   5.510
62519SOL    HW289455   5.773  12.946   5.614
62520SOL     OW89456   6.803   0.660   6.362
62520SOL    HW189457   6.812   0.566   6.345
62520SOL    HW289458   6.867   0.701   6.304
62521SOL     OW89459  13.190   6.739   0.430
62521SOL    HW189460  13.250   6.752   0.357
62521SOL    HW289461  13.233   6.781   0.505
62522SOL     OW89462   8.767  10.682   0.467
62522SOL    HW189463   8.811  10.745   0.409
62522SOL    HW289464   8.674  10.689   0.444
62523SOL     OW89465   0.083  14.674  13.317
62523SOL    HW189466  14.867  14.656  13.322
62523SOL    HW289467   0.122  14.590  13.293
62524SOL     OW89468   4.399  14.851  10.577
62524SOL    HW189469   4.468  14.795  10.540
62524SOL    HW289470   4.439   0.060  10.585
62525SOL     OW89471   0.215  11.171   6.506
62525SOL    HW189472   0.146  11.127   6.457
62525SOL    HW289473   0.169  11.223   6.572
62526SOL     OW89474   8.543  13.129   3.896
62526SOL    HW189475   8.569  13.214   3.933
62526SOL    HW289476   8.625  13.091   3.863
62527SOL     OW89477   7.440  14.767   4.854
62527SOL    HW189478   7.483  14.831   4.797
62527SOL    HW289479   7.512  14.713   4.887
62528SOL     OW89480   9.460   8.242   4.953
62528SOL    HW189481   9.421   8.184   5.017
62528SOL    HW289482   9.552   8.250   4.980
62529SOL     OW89483   6.695  13.696   3.059
62529SOL    HW189484   6.609  13.732   3.077
62529SOL    HW289485   6.747  13.770   3.029
62530SOL     OW89486   6.632   1.847  12.216
62530SOL    HW189487   6.650   1.755  12.236
62530SOL    HW289488   6.600   1.883  12.298
62531SOL     OW89489  12.411   8.773  11.455
62531SOL    HW189490  12.388   8.758  11.547
62531SOL    HW289491  12.327   8.771  11.409
62532SOL     OW89492  10.366  11.516  14.862
62532SOL    HW189493  10.310  11.580  14.817
62532SOL    HW289494  10.340  11.523   0.076
62533SOL     OW89495   5.915  12.998  10.714
62533SOL    HW189496   5.854  12.936  10.675
62533SOL    HW289497   5.860  13.051  10.772
62534SOL     OW89498   7.592   4.321   7.054
62534SOL    HW189499   7.672   4.351   7.096
62534SOL    HW289500   7.523   4.376   7.090
62535SOL     OW89501   8.887   1.653   1.955
62535SOL    HW189502   8.931   1.606   2.025
62535SOL    HW289503   8.835   1.720   1.999
62536SOL     OW89504   0.524   9.608   9.430
62536SOL    HW189505   0.443   9.628   9.478
62536SOL    HW289506   0.505   9.633   9.340
62537SOL     OW89507   5.451  11.473   7.491
62537SOL    HW189508   5.546  11.478   7.482
62537SOL    HW289509   5.435  11.386   7.528
62538SOL     OW89510  13.488  13.035   6.541
62538SOL    HW189511  13.561  13.079   6.584
62538SOL    HW289512  13.419  13.032   6.607
62539SOL     OW89513   8.740   0.696   1.209
62539SOL    HW189514   8.730   0.623   1.148
62539SOL    HW289515   8.783   0.658   1.286
62540SOL     OW89516  12.760   8.940  10.234
62540SOL    HW189517  12.851   8.963  10.215
62540SOL    HW289518  12.722   8.922  10.147
62541SOL     OW89519   2.253   5.615  10.201
62541SOL    HW189520   2.336   5.644  10.164
62541SOL    HW289521   2.236   5.676  10.273
62542SOL     OW89522   7.752  11.005  11.643
62542SOL    HW189523   7.781  11.096  11.644
62542SOL    HW289524   7.826  10.956  11.606
62543SOL     OW89525  10.475   5.863   4.409
62543SOL    HW189526  10.413   5.795   4.435
62543SOL    HW289527  10.509   5.834   4.325
62544SOL     OW89528   6.395  11.638  10.079
62544SOL    HW189529   6.434  11.720  10.107
62544SOL    HW289530   6.451  11.570  10.119
62545SOL     OW89531   5.837   6.964  14.743
62545SOL    HW189532   5.917   7.003  14.778
62545SOL    HW289533   5.863   6.933  14.655
62546SOL     OW89534   6.451   0.780   0.155
62546SOL    HW189535   6.418   0.745   0.238
62546SOL    HW289536   6.385   0.755   0.091
62547SOL     OW89537  11.142  10.151  12.225
62547SOL    HW189538  11.225  10.178  12.264
62547SOL    HW289539  11.167  10.100  12.148
62548SOL     OW89540   8.990   4.480  14.108
62548SOL    HW189541   8.964   4.446  14.023
62548SOL    HW289542   8.908   4.502  14.152
62549SOL     OW89543  13.800   3.058   4.326
62549SOL    HW189544  13.837   3.141   4.295
62549SOL    HW289545  13.754   3.023   4.250
62550SOL     OW89546  11.800   7.687  14.082
62550SOL    HW189547  11.814   7.689  14.177
62550SOL    HW289548  11.758   7.771  14.063
62551SOL     OW89549   2.286  10.942   9.641
62551SOL    HW189550   2.315  10.889   9.715
62551SOL    HW289551   2.203  10.902   9.614
62552SOL     OW89552   0.891   9.601   1.313
62552SOL    HW189553   0.833   9.667   1.274
62552SOL    HW289554   0.835   9.552   1.372
62553SOL     OW89555   3.742   5.889   3.887
62553SOL    HW189556   3.791   5.970   3.872
62553SOL    HW289557   3.659   5.918   3.924
62554SOL     OW89558   6.458   6.732   7.386
62554SOL    HW189559   6.516   6.788   7.438
62554SOL    HW289560   6.439   6.657   7.444
62555SOL     OW89561  10.761   9.622   1.986
62555SOL    HW189562  10.791   9.645   2.073
62555SOL    HW289563  10.835   9.640   1.929
62556SOL     OW89564  13.068  13.825   8.269
62556SOL    HW189565  13.062  13.855   8.360
62556SOL    HW289566  13.042  13.733   8.273
62557SOL     OW89567   9.752  10.780  11.897
62557SOL    HW189568   9.779  10.791  11.806
62557SOL    HW289569   9.726  10.689  11.904
62558SOL     OW89570  10.227   9.656   2.056
62558SOL    HW189571  10.279   9.575   2.056
62558SOL    HW289572  10.141   9.629   2.023
62559SOL     OW89573   9.255  11.670  10.524
62559SOL    HW189574   9.160  11.668  10.535
62559SOL    HW289575   9.290  11.642  10.608
62560SOL     OW89576  14.714   8.167   1.053
62560SOL    HW189577  14.773   8.107   1.099
62560SOL    HW289578  14.760   8.252   1.056
62561SOL     OW89579   9.030   9.252   8.269
62561SOL    HW189580   9.050   9.236   8.362
62561SOL    HW289581   8.996   9.342   8.267
62562SOL     OW89582   1.677   7.536  14.450
62562SOL    HW189583   1.679   7.462  14.511
62562SOL    HW289584   1.608   7.593  14.483
62563SOL     OW89585   1.392   0.579   7.050
62563SOL    HW189586   1.466   0.519   7.052
62563SOL    HW289587   1.329   0.537   6.991
62564SOL     OW89588   6.236   0.290  13.655
62564SOL    HW189589   6.220   0.197  13.672
62564SOL    HW289590   6.331   0.300  13.666
62565SOL     OW89591   5.579   3.318   0.839
62565SOL    HW189592   5.494   3.361   0.830
62565SOL    HW289593   5.622   3.365   0.911
62566SOL     OW89594   4.756  11.243   8.580
62566SOL    HW189595   4.683  11.265   8.523
62566SOL    HW289596   4.725  11.262   8.669
62567SOL     OW89597  10.033  14.785   2.595
62567SOL    HW189598  10.001  14.860   2.646
62567SOL    HW289599  10.091  14.823   2.529
62568SOL     OW89600  11.221   8.757  13.724
62568SOL    HW189601  11.242   8.807  13.803
62568SOL    HW289602  11.215   8.666  13.754
62569SOL     OW89603  14.595  12.655   1.599
62569SOL    HW189604  14.659  12.650   1.669
62569SOL    HW289605  14.571  12.564   1.581
62570SOL     OW89606  13.804   6.039   3.089
62570SOL    HW189607  13.877   6.090   3.055
62570SOL    HW289608  13.767   6.094   3.159
62571SOL     OW89609   3.716  14.640   9.255
62571SOL    HW189610   3.731  14.712   9.194
62571SOL    HW289611   3.625  14.651   9.283
62572SOL     OW89612   4.625   1.255   0.555
62572SOL    HW189613   4.686   1.252   0.629
62572SOL    HW289614   4.673   1.298   0.485
62573SOL     OW89615   9.163   0.847   5.069
62573SOL    HW189616   9.189   0.925   5.118
62573SOL    HW289617   9.206   0.775   5.115
62574SOL     OW89618   4.350  13.298   0.178
62574SOL    HW189619   4.288  13.273   0.109
62574SOL    HW289620   4.436  13.283   0.138
62575SOL     OW89621  11.817  10.878  14.486
62575SOL    HW189622  11.904  10.902  14.452
62575SOL    HW289623  11.799  10.793  14.445
62576SOL     OW89624   1.993   3.237   6.350
62576SOL    HW189625   2.079   3.228   6.309
62576SOL    HW289626   2.012   3.276   6.435
62577SOL     OW89627   5.117   8.905   7.788
62577SOL    HW189628   5.155   8.922   7.702
62577SOL    HW289629   5.177   8.843   7.829
62578SOL     OW89630  12.965   8.248   1.752
62578SOL    HW189631  13.006   8.308   1.814
62578SOL    HW289632  12.997   8.276   1.666
62579SOL     OW89633   1.731   8.153   8.000
62579SOL    HW189634   1.659   8.170   8.061
62579SOL    HW289635   1.808   8.147   8.055
62580SOL     OW89636  10.635   3.576  14.869
62580SOL    HW189637  10.569   3.619   0.046
62580SOL    HW289638  10.719   3.604   0.029
62581SOL     OW89639   3.089   2.941  11.084
62581SOL    HW189640   3.018   2.991  11.045
62581SOL    HW289641   3.168   2.973  11.040
62582SOL     OW89642   4.090  13.070   4.565
62582SOL    HW189643   4.007  13.106   4.596
62582SOL    HW289644   4.119  13.012   4.636
62583SOL     OW89645   4.313   7.981  11.603
62583SOL    HW189646   4.302   7.973  11.698
62583SOL    HW289647   4.313   8.075  11.586
62584SOL     OW89648  12.142   5.466   9.058
62584SOL    HW189649  12.149   5.541   8.998
62584SOL    HW289650  12.214   5.478   9.120
62585SOL     OW89651   0.539   8.879   1.045
62585SOL    HW189652   0.494   8.945   1.098
62585SOL    HW289653   0.565   8.927   0.966
62586SOL     OW89654   4.528   2.125  10.640
62586SOL    HW189655   4.599   2.068  10.668
62586SOL    HW289656   4.545   2.209  10.682
62587SOL     OW89657   5.549  13.656  14.851
62587SOL    HW189658   5.466  13.635   0.017
62587SOL    HW289659   5.542  13.749  14.830
62588SOL     OW89660   5.554   3.231   1.334
62588SOL    HW189661   5.564   3.255   1.426
62588SOL    HW289662   5.469   3.186   1.330
62589SOL     OW89663  13.610  13.326   7.235
62589SOL    HW189664  13.535  13.369   7.277
62589SOL    HW289665  13.641  13.264   7.301
62590SOL     OW89666  10.115   9.851   1.274
62590SOL    HW189667  10.209   9.862   1.262
62590SOL    HW289668  10.078   9.871   1.187
62591SOL     OW89669   1.673   3.271   0.987
62591SOL    HW189670   1.671   3.211   1.061
62591SOL    HW289671   1.740   3.235   0.929
62592SOL     OW89672   0.993   5.396   0.925
62592SOL    HW189673   0.924   5.355   0.977
62592SOL    HW289674   0.945   5.439   0.853
62593SOL     OW89675   8.804   1.374   6.654
62593SOL    HW189676   8.793   1.453   6.601
62593SOL    HW289677   8.817   1.406   6.743
62594SOL     OW89678   6.169   7.814   1.752
62594SOL    HW189679   6.209   7.787   1.835
62594SOL    HW289680   6.175   7.736   1.696
62595SOL     OW89681  10.193   1.780  13.629
62595SOL    HW189682  10.183   1.703  13.573
62595SOL    HW289683  10.251   1.838  13.580
62596SOL     OW89684  10.486   5.061   1.159
62596SOL    HW189685  10.536   5.040   1.238
62596SOL    HW289686  10.426   4.987   1.148
62597SOL     OW89687   0.201  11.690   8.219
62597SOL    HW189688   0.285  11.685   8.264
62597SOL    HW289689   0.141  11.641   8.274
62598SOL     OW89690   1.491   8.352   1.833
62598SOL    HW189691   1.457   8.276   1.880
62598SOL    HW289692   1.586   8.344   1.841
62599SOL     OW89693   3.635   9.141  14.062
62599SOL    HW189694   3.652   9.227  14.023
62599SOL    HW289695   3.718   9.094  14.053
62600SOL     OW89696   0.870  13.840   5.067
62600SOL    HW189697   0.904  13.890   4.992
62600SOL    HW289698   0.787  13.884   5.089
62601SOL     OW89699   4.836   1.881   1.706
62601SOL    HW189700   4.780   1.806   1.728
62601SOL    HW289701   4.905   1.879   1.773
62602SOL     OW89702   6.572   5.258  13.681
62602SOL    HW189703   6.641   5.283  13.742
62602SOL    HW289704   6.619   5.224  13.604
62603SOL     OW89705   1.081   2.452  11.888
62603SOL    HW189706   1.067   2.514  11.817
62603SOL    HW289707   1.134   2.500  11.952
62604SOL     OW89708   9.181   7.582   4.833
62604SOL    HW189709   9.097   7.537   4.843
62604SOL    HW289710   9.247   7.514   4.848
62605SOL     OW89711   4.191  11.208  12.960
62605SOL    HW189712   4.164  11.244  13.045
62605SOL    HW289713   4.176  11.280  12.898
62606SOL     OW89714  14.007  14.650  12.065
62606SOL    HW189715  13.975  14.739  12.077
62606SOL    HW289716  14.089  14.659  12.018
62607SOL     OW89717  11.679   5.986  14.474
62607SOL    HW189718  11.684   6.073  14.513
62607SOL    HW289719  11.647   6.002  14.385
62608SOL     OW89720   5.808  11.930   2.656
62608SOL    HW189721   5.729  11.980   2.678
62608SOL    HW289722   5.790  11.892   2.570
62609SOL     OW89723  12.165  10.764   0.824
62609SOL    HW189724  12.180  10.769   0.730
62609SOL    HW289725  12.102  10.692   0.835
62610SOL     OW89726  10.257   0.152  11.776
62610SOL    HW189727  10.285   0.180  11.689
62610SOL    HW289728  10.182   0.095  11.761
62611SOL     OW89729   0.266   8.194   7.402
62611SOL    HW189730   0.240   8.262   7.339
62611SOL    HW289731   0.231   8.225   7.486
62612SOL     OW89732   1.536   6.293   5.832
62612SOL    HW189733   1.481   6.292   5.911
62612SOL    HW289734   1.600   6.224   5.847
62613SOL     OW89735   4.419   0.659   7.094
62613SOL    HW189736   4.460   0.572   7.097
62613SOL    HW289737   4.492   0.720   7.106
62614SOL     OW89738   3.994   9.694   3.371
62614SOL    HW189739   3.951   9.751   3.435
62614SOL    HW289740   3.999   9.609   3.415
62615SOL     OW89741  14.810   6.353   0.905
62615SOL    HW189742  14.802   6.443   0.936
62615SOL    HW289743   0.025   6.343   0.883
62616SOL     OW89744  14.338   2.508  11.400
62616SOL    HW189745  14.396   2.491  11.475
62616SOL    HW289746  14.353   2.600  11.379
62617SOL     OW89747   0.633   9.380  12.199
62617SOL    HW189748   0.684   9.459  12.183
62617SOL    HW289749   0.542   9.410  12.206
62618SOL     OW89750   8.408   1.214   8.064
62618SOL    HW189751   8.411   1.310   8.069
62618SOL    HW289752   8.403   1.186   8.156
62619SOL     OW89753   1.314  14.398  11.152
62619SOL    HW189754   1.388  14.412  11.093
62619SOL    HW289755   1.238  14.424  11.100
62620SOL     OW89756   4.669  12.782   2.473
62620SOL    HW189757   4.753  12.826   2.486
62620SOL    HW289758   4.607  12.853   2.455
62621SOL     OW89759   3.403   4.611  11.331
62621SOL    HW189760   3.345   4.570  11.395
62621SOL    HW289761   3.491   4.597  11.366
62622SOL     OW89762   0.142   1.543   7.527
62622SOL    HW189763   0.215   1.491   7.495
62622SOL    HW289764   0.165   1.564   7.617
62623SOL     OW89765  13.000  11.810   6.825
62623SOL    HW189766  12.966  11.828   6.737
62623SOL    HW289767  13.093  11.834   6.820
62624SOL     OW89768   1.968  14.059   7.700
62624SOL    HW189769   2.038  14.079   7.763
62624SOL    HW289770   1.887  14.082   7.746
62625SOL     OW89771   4.260   9.265   1.276
62625SOL    HW189772   4.240   9.200   1.208
62625SOL    HW289773   4.328   9.224   1.330
62626SOL     OW89774  13.723   7.232   1.408
62626SOL    HW189775  13.776   7.184   1.471
62626SOL    HW289776  13.681   7.301   1.459
62627SOL     OW89777  14.492  13.655   0.731
62627SOL    HW189778  14.516  13.721   0.795
62627SOL    HW289779  14.570  13.645   0.676
62628SOL     OW89780   1.544   5.677   5.448
62628SOL    HW189781   1.578   5.591   5.424
62628SOL    HW289782   1.479   5.697   5.380
62629SOL     OW89783   4.787  10.880  13.014
62629SOL    HW189784   4.877  10.849  13.023
62629SOL    HW289785   4.796  10.972  12.989
62630SOL     OW89786   7.887   8.319  11.008
62630SOL    HW189787   7.965   8.374  11.014
62630SOL    HW289788   7.858   8.308  11.099
62631SOL     OW89789   1.319   6.347   4.281
62631SOL    HW189790   1.296   6.265   4.324
62631SOL    HW289791   1.395   6.380   4.329
62632SOL     OW89792   4.386  12.150  14.410
62632SOL    HW189793   4.450  12.220  14.420
62632SOL    HW289794   4.311  12.178  14.463
62633SOL     OW89795   7.952   0.194   1.042
62633SOL    HW189796   7.858   0.208   1.035
62633SOL    HW289797   7.990   0.251   0.974
62634SOL     OW89798   9.207   5.849  13.466
62634SOL    HW189799   9.129   5.880  13.420
62634SOL    HW289800   9.248   5.788  13.405
62635SOL     OW89801   9.964   9.873   6.664
62635SOL    HW189802   9.976   9.934   6.591
62635SOL    HW289803   9.870   9.873   6.680
62636SOL     OW89804  12.481   4.603   6.129
62636SOL    HW189805  12.473   4.517   6.088
62636SOL    HW289806  12.431   4.596   6.210
62637SOL     OW89807  14.060   5.376   5.344
62637SOL    HW189808  14.089   5.293   5.380
62637SOL    HW289809  14.042   5.357   5.252
62638SOL     OW89810  14.555  12.947   6.018
62638SOL    HW189811  14.621  12.900   5.966
62638SOL    HW289812  14.585  13.038   6.018
62639SOL     OW89813   2.749   7.707   9.535
62639SOL    HW189814   2.797   7.762   9.598
62639SOL    HW289815   2.777   7.618   9.555
62640SOL     OW89816   0.280  12.577  10.668
62640SOL    HW189817   0.372  12.572  10.642
62640SOL    HW289818   0.248  12.658  10.630
62641SOL     OW89819   1.904   8.174   9.431
62641SOL    HW189820   1.968   8.148   9.497
62641SOL    HW289821   1.838   8.223   9.481
62642SOL     OW89822   9.667  10.187   4.126
62642SOL    HW189823   9.697  10.275   4.152
62642SOL    HW289824   9.745  10.146   4.088
62643SOL     OW89825  11.475  11.371   9.904
62643SOL    HW189826  11.450  11.320   9.981
62643SOL    HW289827  11.552  11.326   9.869
62644SOL     OW89828   5.440   8.199  10.588
62644SOL    HW189829   5.412   8.144  10.514
62644SOL    HW289830   5.392   8.165  10.663
62645SOL     OW89831   7.783   7.546   7.761
62645SOL    HW189832   7.714   7.602   7.726
62645SOL    HW289833   7.752   7.457   7.744
62646SOL     OW89834   8.673  12.395   8.899
62646SOL    HW189835   8.750  12.453   8.898
62646SOL    HW289836   8.621  12.422   8.824
62647SOL     OW89837   3.248   0.736   4.144
62647SOL    HW189838   3.206   0.811   4.101
62647SOL    HW289839   3.330   0.772   4.179
62648SOL     OW89840   4.742   3.459   5.764
62648SOL    HW189841   4.791   3.378   5.749
62648SOL    HW289842   4.680   3.437   5.834
62649SOL     OW89843   3.401   8.943  11.704
62649SOL    HW189844   3.359   8.979  11.626
62649SOL    HW289845   3.392   8.849  11.695
62650SOL     OW89846  11.080   0.700  12.365
62650SOL    HW189847  11.129   0.780  12.348
62650SOL    HW289848  11.148   0.634  12.383
62651SOL     OW89849   8.957  14.727   6.667
62651SOL    HW189850   9.038  14.771   6.692
62651SOL    HW289851   8.924  14.778   6.593
62652SOL     OW89852   5.414   3.164   9.790
62652SOL    HW189853   5.412   3.233   9.856
62652SOL    HW289854   5.491   3.184   9.737
62653SOL     OW89855   9.345   8.228   9.304
62653SOL    HW189856   9.400   8.153   9.324
62653SOL    HW289857   9.393   8.278   9.238
62654SOL     OW89858   7.276  12.046   8.793
62654SOL    HW189859   7.303  12.122   8.846
62654SOL    HW289860   7.314  12.061   8.707
62655SOL     OW89861  14.871   0.217   9.732
62655SOL    HW189862  14.784   0.189   9.760
62655SOL    HW289863   0.039   0.239   9.813
62656SOL     OW89864   2.999   0.551   3.366
62656SOL    HW189865   3.090   0.566   3.392
62656SOL    HW289866   2.984   0.458   3.383
62657SOL     OW89867   7.224  10.540   8.484
62657SOL    HW189868   7.169  10.520   8.560
62657SOL    HW289869   7.231  10.456   8.438
62658SOL     OW89870   7.231   5.217  14.767
62658SOL    HW189871   7.248   5.226  14.861
62658SOL    HW289872   7.166   5.148  14.761
62659SOL     OW89873  13.309  14.265   5.114
62659SOL    HW189874  13.331  14.299   5.201
62659SOL    HW289875  13.227  14.308   5.092
62660SOL     OW89876   2.233   2.552  10.569
62660SOL    HW189877   2.173   2.488  10.532
62660SOL    HW289878   2.317   2.508  10.572
62661SOL     OW89879   2.040   1.985   1.884
62661SOL    HW189880   2.027   2.067   1.931
62661SOL    HW289881   1.980   1.989   1.810
62662SOL     OW89882   3.705  13.188   0.839
62662SOL    HW189883   3.713  13.093   0.830
62662SOL    HW289884   3.679  13.202   0.930
62663SOL     OW89885   9.353  13.766  14.294
62663SOL    HW189886   9.439  13.783  14.256
62663SOL    HW289887   9.333  13.676  14.270
62664SOL     OW89888  14.368  10.872   6.431
62664SOL    HW189889  14.420  10.792   6.443
62664SOL    HW289890  14.433  10.940   6.413
62665SOL     OW89891  12.121  12.891   6.853
62665SOL    HW189892  12.070  12.846   6.920
62665SOL    HW289893  12.209  12.899   6.891
62666SOL     OW89894   1.631  14.607   2.383
62666SOL    HW189895   1.653  14.522   2.343
62666SOL    HW289896   1.700  14.621   2.448
62667SOL     OW89897   5.647   5.688  10.743
62667SOL    HW189898   5.599   5.694  10.825
62667SOL    HW289899   5.685   5.774  10.730
62668SOL     OW89900  11.847   4.654   1.029
62668SOL    HW189901  11.813   4.731   1.076
62668SOL    HW289902  11.863   4.589   1.097
62669SOL     OW89903   7.325   5.169   3.256
62669SOL    HW189904   7.261   5.102   3.279
62669SOL    HW289905   7.386   5.170   3.329
62670SOL     OW89906   9.941   7.965   8.141
62670SOL    HW189907   9.953   7.937   8.050
62670SOL    HW289908   9.957   7.886   8.193
62671SOL     OW89909   6.522  10.778   5.316
62671SOL    HW189910   6.612  10.751   5.331
62671SOL    HW289911   6.470  10.699   5.328
62672SOL     OW89912   1.904   4.397  10.986
62672SOL    HW189913   1.971   4.333  11.010
62672SOL    HW289914   1.841   4.348  10.933
62673SOL     OW89915   6.981   9.186   4.966
62673SOL    HW189916   6.983   9.258   5.029
62673SOL    HW289917   6.899   9.141   4.985
62674SOL     OW89918  12.289   7.886   4.158
62674SOL    HW189919  12.356   7.916   4.097
62674SOL    HW289920  12.231   7.962   4.170
62675SOL     OW89921   3.201  13.083   0.273
62675SOL    HW189922   3.123  13.072   0.327
62675SOL    HW289923   3.185  13.164   0.225
62676SOL     OW89924   0.097  13.735   2.934
62676SOL    HW189925   0.023  13.695   2.978
62676SOL    HW289926   0.061  13.774   2.854
62677SOL     OW89927   6.469  13.487   9.809
62677SOL    HW189928   6.410  13.546   9.856
62677SOL    HW289929   6.413  13.445   9.744
62678SOL     OW89930  12.246   4.077   6.956
62678SOL    HW189931  12.228   3.986   6.978
62678SOL    HW289932  12.292   4.073   6.872
62679SOL     OW89933   0.899   2.636   1.703
62679SOL    HW189934   0.994   2.632   1.717
62679SOL    HW289935   0.883   2.574   1.633
62680SOL     OW89936   5.760   1.503  14.725
62680SOL    HW189937   5.736   1.465  14.809
62680SOL    HW289938   5.811   1.435  14.681
62681SOL     OW89939   9.622   2.578   2.506
62681SOL    HW189940   9.572   2.659   2.500
62681SOL    HW289941   9.631   2.548   2.416
62682SOL     OW89942  13.056   1.224   4.876
62682SOL    HW189943  13.146   1.255   4.878
62682SOL    HW289944  13.062   1.131   4.899
62683SOL     OW89945   5.786   6.668   8.841
62683SOL    HW189946   5.694   6.643   8.851
62683SOL    HW289947   5.834   6.585   8.850
62684SOL     OW89948   7.864   0.737   7.985
62684SOL    HW189949   7.875   0.704   8.074
62684SOL    HW289950   7.953   0.758   7.956
62685SOL     OW89951   3.648   6.201   9.331
62685SOL    HW189952   3.584   6.150   9.381
62685SOL    HW289953   3.674   6.144   9.259
62686SOL     OW89954  13.791   4.299   7.243
62686SOL    HW189955  13.731   4.371   7.261
62686SOL    HW289956  13.874   4.327   7.282
62687SOL     OW89957  11.537  10.295   2.989
62687SOL    HW189958  11.540  10.206   3.024
62687SOL    HW289959  11.615  10.337   3.025
62688SOL     OW89960   1.638   3.776   1.572
62688SOL    HW189961   1.570   3.714   1.601
62688SOL    HW289962   1.600   3.817   1.494
62689SOL     OW89963   0.685  10.279   9.846
62689SOL    HW189964   0.665  10.219   9.917
62689SOL    HW289965   0.646  10.362   9.874
62690SOL     OW89966   5.127  10.721   9.508
62690SOL    HW189967   5.071  10.652   9.542
62690SOL    HW289968   5.135  10.784   9.580
62691SOL     OW89969  13.419   8.319   2.364
62691SOL    HW189970  13.365   8.280   2.433
62691SOL    HW289971  13.376   8.402   2.344
62692SOL     OW89972   1.729  11.492   0.006
62692SOL    HW189973   1.757  11.541   0.083
62692SOL    HW289974   1.637  11.473   0.021
62693SOL     OW89975  13.314  13.244   7.385
62693SOL    HW189976  13.356  13.326   7.358
62693SOL    HW289977  13.223  13.254   7.359
62694SOL     OW89978  12.078   9.493  12.456
62694SOL    HW189979  11.986   9.493  12.430
62694SOL    HW289980  12.078   9.528  12.546
62695SOL     OW89981  13.261   8.530  11.952
62695SOL    HW189982  13.250   8.437  11.935
62695SOL    HW289983  13.186   8.572  11.911
62696SOL     OW89984  14.694  11.494  14.304
62696SOL    HW189985  14.749  11.571  14.317
62696SOL    HW289986  14.656  11.506  14.217
62697SOL     OW89987   6.493   1.026   1.125
62697SOL    HW189988   6.557   1.058   1.188
62697SOL    HW289989   6.545   0.989   1.054
62698SOL     OW89990   9.764   3.173   1.389
62698SOL    HW189991   9.780   3.230   1.464
62698SOL    HW289992   9.764   3.084   1.426
62699SOL     OW89993   9.908   9.092   0.665
62699SOL    HW189994   9.965   9.140   0.605
62699SOL    HW289995   9.865   9.026   0.610
62700SOL     OW89996   0.472   0.917   0.888
62700SOL    HW189997   0.405   0.894   0.952
62700SOL    HW289998   0.551   0.932   0.940
62701SOL     OW89999   6.392   3.889  11.240
62701SOL    HW190000   6.460   3.826  11.215
62701SOL    HW290001   6.326   3.882  11.170
62702SOL     OW90002   4.988  13.592   4.391
62702SOL    HW190003   5.000  13.628   4.479
62702SOL    HW290004   4.896  13.609   4.370
62703SOL     OW90005  11.188   4.841   6.029
62703SOL    HW190006  11.268   4.840   5.977
62703SOL    HW290007  11.151   4.753   6.017
62704SOL     OW90008   1.103  14.755   9.684
62704SOL    HW190009   1.052  14.761   9.765
62704SOL    HW290010   1.140  14.842   9.672
62705SOL     OW90011  11.193   6.661   7.006
62705SOL    HW190012  11.240   6.701   7.080
62705SOL    HW290013  11.129   6.726   6.980
62706SOL     OW90014  10.684   2.672   9.907
62706SOL    HW190015  10.641   2.652   9.823
62706SOL    HW290016  10.777   2.678   9.885
62707SOL     OW90017   7.675  10.305   2.292
62707SOL    HW190018   7.698  10.227   2.242
62707SOL    HW290019   7.735  10.372   2.260
62708SOL     OW90020   3.855   3.162   8.152
62708SOL    HW190021   3.904   3.091   8.112
62708SOL    HW290022   3.772   3.165   8.104
62709SOL     OW90023  11.852   2.463   7.028
62709SOL    HW190024  11.803   2.468   6.946
62709SOL    HW290025  11.820   2.537   7.080
62710SOL     OW90026  12.347   0.544   7.508
62710SOL    HW190027  12.428   0.507   7.474
62710SOL    HW290028  12.353   0.533   7.603
62711SOL     OW90029  10.402   8.989  11.738
62711SOL    HW190030  10.362   8.942  11.665
62711SOL    HW290031  10.395   9.081  11.715
62712SOL     OW90032   7.808   1.695  14.461
62712SOL    HW190033   7.813   1.600  14.450
62712SOL    HW290034   7.780   1.707  14.552
62713SOL     OW90035   3.973  11.960   2.089
62713SOL    HW190036   3.903  11.991   2.031
62713SOL    HW290037   3.960  12.008   2.171
62714SOL     OW90038   6.234   1.725   6.004
62714SOL    HW190039   6.237   1.630   6.014
62714SOL    HW290040   6.325   1.753   6.013
62715SOL     OW90041   4.216   1.696   3.130
62715SOL    HW190042   4.263   1.632   3.183
62715SOL    HW290043   4.161   1.743   3.193
62716SOL     OW90044   0.497  12.597  13.949
62716SOL    HW190045   0.510  12.691  13.933
62716SOL    HW290046   0.502  12.589  14.045
62717SOL     OW90047   1.180   9.754   8.806
62717SOL    HW190048   1.122   9.704   8.864
62717SOL    HW290049   1.135   9.838   8.795
62718SOL     OW90050   5.999   6.998   0.325
62718SOL    HW190051   5.915   7.040   0.308
62718SOL    HW290052   5.978   6.920   0.376
62719SOL     OW90053   3.069  10.675   9.433
62719SOL    HW190054   3.078  10.590   9.476
62719SOL    HW290055   3.149  10.684   9.381
62720SOL     OW90056   4.144   6.772   0.589
62720SOL    HW190057   4.166   6.714   0.516
62720SOL    HW290058   4.229   6.804   0.621
62721SOL     OW90059  11.517  13.707   9.211
62721SOL    HW190060  11.558  13.621   9.220
62721SOL    HW290061  11.430  13.697   9.251
62722SOL     OW90062   4.338  14.730   6.641
62722SOL    HW190063   4.341  14.690   6.554
62722SOL    HW290064   4.306  14.819   6.626
62723SOL     OW90065  12.182  13.423  12.410
62723SOL    HW190066  12.129  13.486  12.460
62723SOL    HW290067  12.179  13.343  12.462
62724SOL     OW90068   9.974   7.997  12.738
62724SOL    HW190069  10.059   8.039  12.726
62724SOL    HW290070   9.932   8.047  12.808
62725SOL     OW90071  10.123   9.479   1.735
62725SOL    HW190072  10.213   9.447   1.741
62725SOL    HW290073  10.122   9.532   1.655
62726SOL     OW90074   0.827   5.791   9.755
62726SOL    HW190075   0.819   5.875   9.710
62726SOL    HW290076   0.828   5.813   9.848
62727SOL     OW90077  12.052   9.238   1.810
62727SOL    HW190078  11.966   9.279   1.817
62727SOL    HW290079  12.110   9.296   1.859
62728SOL     OW90080  14.563   0.230   9.691
62728SOL    HW190081  14.495   0.236   9.759
62728SOL    HW290082  14.552   0.143   9.653
62729SOL     OW90083   0.482   4.591  14.039
62729SOL    HW190084   0.440   4.645  14.106
62729SOL    HW290085   0.430   4.605  13.960
62730SOL     OW90086  12.544  10.719  10.000
62730SOL    HW190087  12.537  10.785  10.069
62730SOL    HW290088  12.457  10.679   9.996
62731SOL     OW90089   2.683   5.501   9.460
62731SOL    HW190090   2.743   5.428   9.472
62731SOL    HW290091   2.607   5.463   9.416
62732SOL     OW90092   0.896  11.765   2.188
62732SOL    HW190093   0.976  11.804   2.153
62732SOL    HW290094   0.903  11.778   2.283
62733SOL     OW90095   8.213   2.300   1.079
62733SOL    HW190096   8.234   2.348   1.160
62733SOL    HW290097   8.122   2.273   1.090
62734SOL     OW90098   1.979  14.367   2.485
62734SOL    HW190099   2.043  14.427   2.447
62734SOL    HW290100   1.919  14.423   2.533
62735SOL     OW90101  10.236   2.285   7.605
62735SOL    HW190102  10.237   2.289   7.510
62735SOL    HW290103  10.152   2.244   7.627
62736SOL     OW90104  13.143   5.357  13.778
62736SOL    HW190105  13.187   5.293  13.835
62736SOL    HW290106  13.183   5.343  13.692
62737SOL     OW90107   8.479  11.954   6.778
62737SOL    HW190108   8.526  12.005   6.845
62737SOL    HW290109   8.387  11.973   6.795
62738SOL     OW90110   9.520   1.417   8.985
62738SOL    HW190111   9.499   1.422   9.079
62738SOL    HW290112   9.508   1.507   8.953
62739SOL     OW90113  12.329   7.425  12.832
62739SOL    HW190114  12.298   7.411  12.743
62739SOL    HW290115  12.357   7.338  12.862
62740SOL     OW90116   2.517  13.285   6.325
62740SOL    HW190117   2.525  13.229   6.402
62740SOL    HW290118   2.424  13.308   6.321
62741SOL     OW90119  10.179   9.299  10.453
62741SOL    HW190120  10.091   9.290  10.417
62741SOL    HW290121  10.166   9.311  10.547
62742SOL     OW90122   7.597   1.243   6.467
62742SOL    HW190123   7.629   1.331   6.487
62742SOL    HW290124   7.585   1.202   6.553
62743SOL     OW90125  11.906  12.159  12.326
62743SOL    HW190126  11.864  12.091  12.378
62743SOL    HW290127  11.994  12.168  12.364
62744SOL     OW90128   1.580   8.653   4.876
62744SOL    HW190129   1.671   8.669   4.849
62744SOL    HW290130   1.583   8.652   4.972
62745SOL     OW90131   5.306  10.928   3.685
62745SOL    HW190132   5.246  10.870   3.637
62745SOL    HW290133   5.275  10.924   3.776
62746SOL     OW90134  12.625  14.087   9.714
62746SOL    HW190135  12.690  14.021   9.740
62746SOL    HW290136  12.587  14.117   9.797
62747SOL     OW90137   8.175   5.966  11.936
62747SOL    HW190138   8.257   5.943  11.979
62747SOL    HW290139   8.155   5.892  11.880
62748SOL     OW90140  11.500  13.160   8.088
62748SOL    HW190141  11.571  13.174   8.026
62748SOL    HW290142  11.421  13.186   8.041
62749SOL     OW90143   5.767  14.841  13.824
62749SOL    HW190144   5.852   0.007  13.835
62749SOL    HW290145   5.708   0.008  13.885
62750SOL     OW90146   4.721   8.152   3.113
62750SOL    HW190147   4.664   8.215   3.158
62750SOL    HW290148   4.750   8.092   3.182
62751SOL     OW90149  10.349  14.786  11.876
62751SOL    HW190150  10.337  14.806  11.969
62751SOL    HW290151  10.329  14.868  11.831
62752SOL     OW90152   5.117  12.075   4.647
62752SOL    HW190153   5.059  12.085   4.571
62752SOL    HW290154   5.068  12.017   4.706
62753SOL     OW90155   5.963   5.137  13.674
62753SOL    HW190156   5.990   5.228  13.667
62753SOL    HW290157   6.042   5.087  13.653
62754SOL     OW90158   5.847  12.326   5.761
62754SOL    HW190159   5.935  12.363   5.762
62754SOL    HW290160   5.815  12.337   5.850
62755SOL     OW90161  13.610  12.983   9.913
62755SOL    HW190162  13.548  13.047   9.948
62755SOL    HW290163  13.571  12.954   9.831
62756SOL     OW90164   8.396   2.504   2.816
62756SOL    HW190165   8.415   2.594   2.790
62756SOL    HW290166   8.396   2.505   2.911
62757SOL     OW90167   5.494  10.937  14.219
62757SOL    HW190168   5.572  10.991  14.227
62757SOL    HW290169   5.426  10.985  14.266
62758SOL     OW90170   7.471   7.864  10.357
62758SOL    HW190171   7.529   7.906  10.294
62758SOL    HW290172   7.456   7.777  10.322
62759SOL     OW90173   6.845   9.143   8.313
62759SOL    HW190174   6.831   9.224   8.362
62759SOL    HW290175   6.828   9.073   8.377
62760SOL     OW90176   8.769  12.083  10.816
62760SOL    HW190177   8.792  12.025  10.744
62760SOL    HW290178   8.685  12.050  10.848
62761SOL     OW90179   1.354   4.951  14.355
62761SOL    HW190180   1.427   5.003  14.388
62761SOL    HW290181   1.300   4.934  14.433
62762SOL     OW90182   9.747   9.869  12.624
62762SOL    HW190183   9.670   9.875  12.681
62762SOL    HW290184   9.804   9.807  12.669
62763SOL     OW90185   3.004  10.293   5.876
62763SOL    HW190186   3.023  10.265   5.786
62763SOL    HW290187   3.090  10.307   5.916
62764SOL     OW90188   3.241   8.391  13.238
62764SOL    HW190189   3.156   8.353  13.216
62764SOL    HW290190   3.232   8.484  13.219
62765SOL     OW90191  12.704   2.532   6.793
62765SOL    HW190192  12.625   2.565   6.837
62765SOL    HW290193  12.707   2.581   6.711
62766SOL     OW90194   3.180   9.898   9.457
62766SOL    HW190195   3.090   9.930   9.444
62766SOL    HW290196   3.231   9.978   9.468
62767SOL     OW90197  12.761   2.325   1.616
62767SOL    HW190198  12.719   2.345   1.533
62767SOL    HW290199  12.694   2.342   1.683
62768SOL     OW90200  13.209   0.515  11.036
62768SOL    HW190201  13.263   0.518  11.114
62768SOL    HW290202  13.253   0.572  10.973
62769SOL     OW90203   6.567   8.820   1.407
62769SOL    HW190204   6.632   8.789   1.470
62769SOL    HW290205   6.522   8.892   1.452
62770SOL     OW90206   9.933   8.524   2.592
62770SOL    HW190207   9.973   8.553   2.510
62770SOL    HW290208   9.839   8.532   2.578
62771SOL     OW90209   6.129  11.652   4.248
62771SOL    HW190210   6.221  11.627   4.238
62771SOL    HW290211   6.124  11.695   4.333
62772SOL     OW90212   3.578  12.975   1.555
62772SOL    HW190213   3.605  12.971   1.647
62772SOL    HW290214   3.508  12.910   1.548
62773SOL     OW90215  13.643   8.394  13.198
62773SOL    HW190216  13.564   8.348  13.173
62773SOL    HW290217  13.656   8.371  13.291
62774SOL     OW90218  14.353  11.387  13.454
62774SOL    HW190219  14.417  11.454  13.428
62774SOL    HW290220  14.309  11.364  13.372
62775SOL     OW90221   9.737   4.821   5.854
62775SOL    HW190222   9.786   4.865   5.923
62775SOL    HW290223   9.645   4.828   5.882
62776SOL     OW90224   0.773   1.952  13.582
62776SOL    HW190225   0.792   1.858  13.572
62776SOL    HW290226   0.823   1.993  13.511
62777SOL     OW90227   3.678   6.044  13.445
62777SOL    HW190228   3.762   6.089  13.454
62777SOL    HW290229   3.616   6.112  13.421
62778SOL     OW90230   3.566   4.449   4.972
62778SOL    HW190231   3.560   4.539   4.942
62778SOL    HW290232   3.514   4.448   5.053
62779SOL     OW90233   1.310   3.486   2.394
62779SOL    HW190234   1.260   3.490   2.313
62779SOL    HW290235   1.299   3.396   2.425
62780SOL     OW90236  11.495   4.455  14.150
62780SOL    HW190237  11.549   4.450  14.228
62780SOL    HW290238  11.552   4.425  14.079
62781SOL     OW90239  11.065   1.885   8.440
62781SOL    HW190240  10.987   1.831   8.451
62781SOL    HW290241  11.122   1.860   8.512
62782SOL     OW90242   7.258  10.000   3.904
62782SOL    HW190243   7.269   9.949   3.984
62782SOL    HW290244   7.348  10.022   3.877
62783SOL     OW90245   5.170   9.467   8.353
62783SOL    HW190246   5.209   9.533   8.410
62783SOL    HW290247   5.093   9.509   8.315
62784SOL     OW90248  13.752   7.313   6.561
62784SOL    HW190249  13.798   7.358   6.631
62784SOL    HW290250  13.694   7.251   6.605
62785SOL     OW90251  12.907   3.904   4.619
62785SOL    HW190252  12.999   3.883   4.598
62785SOL    HW290253  12.880   3.961   4.547
62786SOL     OW90254  12.711  13.178   6.019
62786SOL    HW190255  12.747  13.206   5.935
62786SOL    HW290256  12.747  13.239   6.082
62787SOL     OW90257  10.249   6.490   5.618
62787SOL    HW190258  10.302   6.548   5.565
62787SOL    HW290259  10.305   6.465   5.692
62788SOL     OW90260  13.881  12.227   5.802
62788SOL    HW190261  13.847  12.228   5.892
62788SOL    HW290262  13.875  12.135   5.776
62789SOL     OW90263   9.036  14.358   6.678
62789SOL    HW190264   9.113  14.388   6.630
62789SOL    HW290265   9.021  14.426   6.744
62790SOL     OW90266   5.299  10.515   4.783
62790SOL    HW190267   5.252  10.598   4.773
62790SOL    HW290268   5.232  10.453   4.813
62791SOL     OW90269   2.399  11.960   2.909
62791SOL    HW190270   2.320  11.972   2.857
62791SOL    HW290271   2.374  11.987   2.998
62792SOL     OW90272   8.430   2.002   6.912
62792SOL    HW190273   8.350   2.019   6.962
62792SOL    HW290274   8.406   1.935   6.848
62793SOL     OW90275   1.838   1.943  14.225
62793SOL    HW190276   1.751   1.906  14.241
62793SOL    HW290277   1.822   2.036  14.211
62794SOL     OW90278   6.078   9.198   2.822
62794SOL    HW190279   6.107   9.240   2.741
62794SOL    HW290280   6.024   9.264   2.865
62795SOL     OW90281   4.031   2.513   4.859
62795SOL    HW190282   4.046   2.426   4.821
62795SOL    HW290283   4.118   2.549   4.873
62796SOL     OW90284   3.980   9.365   1.081
62796SOL    HW190285   3.948   9.278   1.105
62796SOL    HW290286   4.075   9.357   1.087
62797SOL     OW90287   2.437   9.615   8.038
62797SOL    HW190288   2.524   9.606   8.000
62797SOL    HW290289   2.425   9.535   8.090
62798SOL     OW90290   0.193   6.877   8.638
62798SOL    HW190291   0.271   6.830   8.668
62798SOL    HW290292   0.164   6.927   8.714
62799SOL     OW90293  11.037   1.560   5.081
62799SOL    HW190294  11.034   1.469   5.112
62799SOL    HW290295  11.076   1.608   5.154
62800SOL     OW90296  12.466   8.595   9.455
62800SOL    HW190297  12.426   8.643   9.528
62800SOL    HW290298  12.415   8.514   9.449
62801SOL     OW90299   3.707   2.998  10.420
62801SOL    HW190300   3.625   2.949  10.428
62801SOL    HW290301   3.767   2.937  10.377
62802SOL     OW90302   5.977   8.665   2.525
62802SOL    HW190303   5.951   8.732   2.462
62802SOL    HW290304   6.073   8.663   2.519
62803SOL     OW90305  11.186   7.359  11.277
62803SOL    HW190306  11.179   7.297  11.204
62803SOL    HW290307  11.227   7.309  11.347
62804SOL     OW90308   1.812   5.332   2.278
62804SOL    HW190309   1.788   5.375   2.196
62804SOL    HW290310   1.783   5.241   2.267
62805SOL     OW90311  10.427   7.998  13.260
62805SOL    HW190312  10.516   7.993  13.295
62805SOL    HW290313  10.411   8.092  13.249
62806SOL     OW90314   0.852   7.840   7.894
62806SOL    HW190315   0.788   7.882   7.951
62806SOL    HW290316   0.799   7.786   7.835
62807SOL     OW90317   0.897  10.454  11.614
62807SOL    HW190318   0.958  10.492  11.676
62807SOL    HW290319   0.940  10.373  11.584
62808SOL     OW90320   3.688   0.576  11.496
62808SOL    HW190321   3.759   0.520  11.527
62808SOL    HW290322   3.731   0.657  11.467
62809SOL     OW90323   1.315   0.710   2.333
62809SOL    HW190324   1.228   0.673   2.322
62809SOL    HW290325   1.300   0.801   2.357
62810SOL     OW90326   6.459  10.872   8.941
62810SOL    HW190327   6.430  10.920   9.019
62810SOL    HW290328   6.439  10.781   8.960
62811SOL     OW90329  13.456   7.951  10.133
62811SOL    HW190330  13.425   7.982  10.048
62811SOL    HW290331  13.452   7.855  10.126
62812SOL     OW90332  12.135   4.234   2.813
62812SOL    HW190333  12.113   4.255   2.903
62812SOL    HW290334  12.136   4.318   2.767
62813SOL     OW90335   2.388   9.390   4.963
62813SOL    HW190336   2.406   9.407   4.871
62813SOL    HW290337   2.434   9.460   5.010
62814SOL     OW90338   5.512   3.062   7.163
62814SOL    HW190339   5.572   3.012   7.218
62814SOL    HW290340   5.569   3.114   7.107
62815SOL     OW90341   2.996   5.337   9.725
62815SOL    HW190342   2.952   5.259   9.759
62815SOL    HW290343   2.965   5.408   9.781
62816SOL     OW90344   8.277  10.884  10.431
62816SOL    HW190345   8.318  10.820  10.372
62816SOL    HW290346   8.283  10.967  10.384
62817SOL     OW90347  11.625   7.647  11.472
62817SOL    HW190348  11.629   7.646  11.568
62817SOL    HW290349  11.709   7.685  11.445
62818SOL     OW90350   9.406   0.319  13.488
62818SOL    HW190351   9.364   0.354  13.410
62818SOL    HW290352   9.342   0.258  13.525
62819SOL     OW90353  10.482   2.148   0.300
62819SOL    HW190354  10.547   2.080   0.314
62819SOL    HW290355  10.402   2.101   0.277
62820SOL     OW90356   9.410  13.098   9.039
62820SOL    HW190357   9.363  13.099   8.955
62820SOL    HW290358   9.405  13.007   9.068
62821SOL     OW90359  12.277   1.296   8.222
62821SOL    HW190360  12.220   1.281   8.298
62821SOL    HW290361  12.282   1.391   8.215
62822SOL     OW90362  12.241  10.680   1.159
62822SOL    HW190363  12.159  10.650   1.197
62822SOL    HW290364  12.248  10.633   1.076
62823SOL     OW90365   9.786   9.443   3.867
62823SOL    HW190366   9.852   9.494   3.821
62823SOL    HW290367   9.830   9.362   3.891
62824SOL     OW90368   1.346   9.047  11.644
62824SOL    HW190369   1.330   9.036  11.738
62824SOL    HW290370   1.441   9.053  11.636
62825SOL     OW90371   8.756   9.831   1.947
62825SOL    HW190372   8.734   9.751   1.900
62825SOL    HW290373   8.720   9.817   2.035
62826SOL     OW90374  14.829   9.851   2.354
62826SOL    HW190375  14.760   9.916   2.369
62826SOL    HW290376   0.026   9.883   2.406
62827SOL     OW90377   5.305   1.160  12.465
62827SOL    HW190378   5.322   1.088  12.405
62827SOL    HW290379   5.299   1.237  12.408
62828SOL     OW90380   1.918   6.909  13.632
62828SOL    HW190381   1.852   6.893  13.566
62828SOL    HW290382   1.984   6.841  13.618
62829SOL     OW90383   6.570   9.255   8.937
62829SOL    HW190384   6.505   9.319   8.907
62829SOL    HW290385   6.571   9.264   9.032
62830SOL     OW90386  12.925  13.063   2.649
62830SOL    HW190387  12.976  13.095   2.723
62830SOL    HW290388  12.875  13.138   2.619
62831SOL     OW90389   0.191   2.259  14.802
62831SOL    HW190390   0.185   2.308  14.720
62831SOL    HW290391   0.251   2.310  14.856
62832SOL     OW90392   9.720   4.186  13.617
62832SOL    HW190393   9.791   4.149  13.670
62832SOL    HW290394   9.696   4.267  13.661
62833SOL     OW90395  10.959   9.847  10.989
62833SOL    HW190396  11.015   9.907  11.039
62833SOL    HW290397  10.895   9.816  11.052
62834SOL     OW90398  11.051  10.072   6.123
62834SOL    HW190399  11.077   9.983   6.145
62834SOL    HW290400  11.132  10.123   6.126
62835SOL     OW90401  12.176   2.806   8.820
62835SOL    HW190402  12.246   2.866   8.796
62835SOL    HW290403  12.215   2.719   8.812
62836SOL     OW90404   1.220   7.136  13.499
62836SOL    HW190405   1.151   7.172  13.554
62836SOL    HW290406   1.301   7.170  13.537
62837SOL     OW90407   5.790   4.330   7.506
62837SOL    HW190408   5.754   4.329   7.595
62837SOL    HW290409   5.713   4.323   7.450
62838SOL     OW90410  10.073   1.335   0.587
62838SOL    HW190411  10.035   1.396   0.650
62838SOL    HW290412  10.059   1.376   0.502
62839SOL     OW90413   4.570   3.765   6.070
62839SOL    HW190414   4.627   3.840   6.091
62839SOL    HW290415   4.577   3.707   6.145
62840SOL     OW90416  13.042   8.179   1.049
62840SOL    HW190417  12.961   8.140   1.016
62840SOL    HW290418  13.013   8.253   1.103
62841SOL     OW90419   8.672  10.053  10.298
62841SOL    HW190420   8.584  10.032  10.266
62841SOL    HW290421   8.702   9.972  10.339
62842SOL     OW90422   4.318  14.387   8.278
62842SOL    HW190423   4.232  14.346   8.291
62842SOL    HW290424   4.377  14.313   8.266
62843SOL     OW90425  11.980  13.896   5.681
62843SOL    HW190426  11.899  13.864   5.720
62843SOL    HW290427  12.030  13.817   5.661
62844SOL     OW90428  14.647  10.193   8.390
62844SOL    HW190429  14.740  10.202   8.367
62844SOL    HW290430  14.628  10.269   8.445
62845SOL     OW90431  10.854  10.571  14.695
62845SOL    HW190432  10.915  10.543  14.763
62845SOL    HW290433  10.886  10.529  14.615
62846SOL     OW90434  12.266   0.099   8.721
62846SOL    HW190435  12.279   0.114   8.627
62846SOL    HW290436  12.320   0.166   8.764
62847SOL     OW90437   8.041  14.593   5.630
62847SOL    HW190438   8.034  14.622   5.539
62847SOL    HW290439   8.072  14.503   5.623
62848SOL     OW90440  13.997  12.282   0.327
62848SOL    HW190441  14.074  12.300   0.381
62848SOL    HW290442  14.015  12.197   0.287
62849SOL     OW90443   5.941  12.753  11.149
62849SOL    HW190444   6.019  12.773  11.201
62849SOL    HW290445   5.878  12.720  11.213
62850SOL     OW90446  10.093   1.364   1.580
62850SOL    HW190447  10.090   1.283   1.530
62850SOL    HW290448  10.096   1.433   1.514
62851SOL     OW90449   6.801   6.561  12.828
62851SOL    HW190450   6.832   6.624  12.763
62851SOL    HW290451   6.776   6.614  12.903
62852SOL     OW90452  11.849   2.770   5.355
62852SOL    HW190453  11.813   2.852   5.321
62852SOL    HW290454  11.853   2.783   5.449
62853SOL     OW90455  12.661  13.339   6.711
62853SOL    HW190456  12.667  13.421   6.661
62853SOL    HW290457  12.619  13.278   6.651
62854SOL     OW90458  11.655   5.978  14.190
62854SOL    HW190459  11.662   6.055  14.133
62854SOL    HW290460  11.568   5.943  14.171
62855SOL     OW90461   7.796   3.863   5.698
62855SOL    HW190462   7.834   3.933   5.752
62855SOL    HW290463   7.702   3.881   5.698
62856SOL     OW90464  13.727   8.676   5.134
62856SOL    HW190465  13.674   8.728   5.073
62856SOL    HW290466  13.818   8.693   5.108
62857SOL     OW90467   4.801   1.323   8.949
62857SOL    HW190468   4.764   1.235   8.935
62857SOL    HW290469   4.859   1.336   8.873
62858SOL     OW90470   0.920   5.358   9.371
62858SOL    HW190471   0.944   5.266   9.360
62858SOL    HW290472   0.999   5.407   9.347
62859SOL     OW90473   6.611   4.094   5.159
62859SOL    HW190474   6.525   4.061   5.133
62859SOL    HW290475   6.621   4.068   5.250
62860SOL     OW90476   0.315   1.052  11.892
62860SOL    HW190477   0.224   1.026  11.877
62860SOL    HW290478   0.337   1.014  11.977
62861SOL     OW90479   7.405   1.873  14.008
62861SOL    HW190480   7.466   1.931  13.962
62861SOL    HW290481   7.323   1.882  13.959
62862SOL     OW90482   1.025  11.938  14.015
62862SOL    HW190483   0.953  11.942  13.952
62862SOL    HW290484   1.032  12.028  14.049
62863SOL     OW90485  12.506   9.704   9.617
62863SOL    HW190486  12.452   9.644   9.565
62863SOL    HW290487  12.589   9.709   9.569
62864SOL     OW90488  13.731  13.728   6.291
62864SOL    HW190489  13.649  13.710   6.245
62864SOL    HW290490  13.734  13.664   6.362
62865SOL     OW90491   5.040  14.836   5.021
62865SOL    HW190492   5.070   0.031   4.967
62865SOL    HW290493   5.100  14.764   5.000
62866SOL     OW90494   2.613  13.318   0.303
62866SOL    HW190495   2.615  13.357   0.390
62866SOL    HW290496   2.670  13.374   0.250
62867SOL     OW90497   2.977  12.118   2.740
62867SOL    HW190498   3.046  12.053   2.723
62867SOL    HW290499   3.000  12.154   2.826
62868SOL     OW90500  11.764  10.940  10.864
62868SOL    HW190501  11.804  10.859  10.832
62868SOL    HW290502  11.755  10.927  10.959
62869SOL     OW90503  10.154  14.316   4.816
62869SOL    HW190504  10.060  14.306   4.800
62869SOL    HW290505  10.167  14.410   4.827
62870SOL     OW90506   7.844   6.528   8.639
62870SOL    HW190507   7.776   6.462   8.651
62870SOL    HW290508   7.832   6.558   8.548
62871SOL     OW90509  12.467   5.717  11.996
62871SOL    HW190510  12.445   5.683  12.083
62871SOL    HW290511  12.495   5.640  11.947
62872SOL     OW90512   3.279   4.389   0.717
62872SOL    HW190513   3.324   4.461   0.673
62872SOL    HW290514   3.198   4.426   0.749
62873SOL     OW90515   5.161   8.751   3.936
62873SOL    HW190516   5.210   8.833   3.926
62873SOL    HW290517   5.171   8.729   4.029
62874SOL     OW90518   3.143   6.323   9.018
62874SOL    HW190519   3.093   6.382   8.961
62874SOL    HW290520   3.190   6.382   9.078
62875SOL     OW90521  12.936   2.485  14.264
62875SOL    HW190522  13.028   2.479  14.239
62875SOL    HW290523  12.888   2.461  14.184
62876SOL     OW90524   3.788  12.692   0.448
62876SOL    HW190525   3.880  12.666   0.446
62876SOL    HW290526   3.759  12.671   0.536
62877SOL     OW90527  14.223   6.698  12.929
62877SOL    HW190528  14.280   6.709  12.852
62877SOL    HW290529  14.147   6.650  12.895
62878SOL     OW90530   3.776   5.187   6.084
62878SOL    HW190531   3.838   5.251   6.119
62878SOL    HW290532   3.691   5.231   6.087
62879SOL     OW90533  14.197   9.703   2.614
62879SOL    HW190534  14.183   9.719   2.520
62879SOL    HW290535  14.125   9.748   2.657
62880SOL     OW90536  13.874   9.254   6.728
62880SOL    HW190537  13.788   9.265   6.767
62880SOL    HW290538  13.879   9.160   6.706
62881SOL     OW90539  12.096   8.517   6.494
62881SOL    HW190540  12.176   8.465   6.487
62881SOL    HW290541  12.121   8.591   6.550
62882SOL     OW90542  11.278   8.241   3.216
62882SOL    HW190543  11.343   8.177   3.245
62882SOL    HW290544  11.251   8.287   3.296
62883SOL     OW90545   4.584  14.276   8.239
62883SOL    HW190546   4.556  14.273   8.148
62883SOL    HW290547   4.672  14.314   8.236
62884SOL     OW90548   0.040   0.676  11.903
62884SOL    HW190549  14.828   0.684  11.871
62884SOL    HW290550   0.058   0.759  11.947
62885SOL     OW90551  10.477   7.300   7.559
62885SOL    HW190552  10.561   7.344   7.543
62885SOL    HW290553  10.412   7.356   7.518
62886SOL     OW90554  11.316  10.172   6.198
62886SOL    HW190555  11.338  10.264   6.185
62886SOL    HW290556  11.385  10.124   6.153
62887SOL     OW90557   7.766   8.463   5.424
62887SOL    HW190558   7.767   8.419   5.338
62887SOL    HW290559   7.778   8.556   5.403
62888SOL     OW90560   8.524   8.258   9.545
62888SOL    HW190561   8.589   8.329   9.549
62888SOL    HW290562   8.521   8.223   9.634
62889SOL     OW90563   5.692   2.976   3.925
62889SOL    HW190564   5.657   2.888   3.941
62889SOL    HW290565   5.776   2.962   3.883
62890SOL     OW90566   7.450   4.668   1.805
62890SOL    HW190567   7.500   4.744   1.835
62890SOL    HW290568   7.492   4.642   1.723
62891SOL     OW90569   7.164  11.975   4.241
62891SOL    HW190570   7.235  11.983   4.304
62891SOL    HW290571   7.097  11.924   4.287
62892SOL     OW90572  11.368   7.779   9.415
62892SOL    HW190573  11.289   7.833   9.405
62892SOL    HW290574  11.410   7.782   9.329
62893SOL     OW90575  13.680   1.086   1.477
62893SOL    HW190576  13.647   1.139   1.550
62893SOL    HW290577  13.774   1.080   1.492
62894SOL     OW90578  13.357   8.369   2.974
62894SOL    HW190579  13.287   8.434   2.971
62894SOL    HW290580  13.399   8.374   2.888
62895SOL     OW90581  12.859  14.527   4.825
62895SOL    HW190582  12.796  14.469   4.869
62895SOL    HW290583  12.808  14.602   4.797
62896SOL     OW90584  11.466   7.240   5.693
62896SOL    HW190585  11.511   7.324   5.700
62896SOL    HW290586  11.398   7.243   5.760
62897SOL     OW90587  11.878   9.476   8.116
62897SOL    HW190588  11.816   9.464   8.188
62897SOL    HW290589  11.850   9.413   8.050
62898SOL     OW90590  13.862   3.046  10.047
62898SOL    HW190591  13.943   3.012  10.086
62898SOL    HW290592  13.862   3.012   9.958
62899SOL     OW90593  11.435  13.024  12.039
62899SOL    HW190594  11.359  12.989  11.992
62899SOL    HW290595  11.462  12.952  12.097
62900SOL     OW90596  10.505   7.289  10.485
62900SOL    HW190597  10.493   7.325  10.397
62900SOL    HW290598  10.416   7.275  10.518
62901SOL     OW90599   8.423   6.887   0.485
62901SOL    HW190600   8.356   6.820   0.490
62901SOL    HW290601   8.478   6.872   0.562
62902SOL     OW90602   6.098   6.513   9.559
62902SOL    HW190603   6.173   6.570   9.544
62902SOL    HW290604   6.137   6.431   9.590
62903SOL     OW90605  10.979  13.672   4.176
62903SOL    HW190606  11.045  13.699   4.240
62903SOL    HW290607  10.897  13.711   4.206
62904SOL     OW90608   9.870   8.371  10.289
62904SOL    HW190609   9.936   8.419  10.338
62904SOL    HW290610   9.790   8.423  10.298
62905SOL     OW90611  14.524  12.729  14.708
62905SOL    HW190612  14.567  12.792  14.651
62905SOL    HW290613  14.455  12.780  14.752
62906SOL     OW90614   4.025  10.586   1.007
62906SOL    HW190615   3.959  10.647   1.040
62906SOL    HW290616   3.999  10.569   0.916
62907SOL     OW90617  12.419  10.861  12.385
62907SOL    HW190618  12.490  10.805  12.417
62907SOL    HW290619  12.415  10.933  12.447
62908SOL     OW90620  10.815  13.277   4.418
62908SOL    HW190621  10.826  13.183   4.422
62908SOL    HW290622  10.850  13.302   4.333
62909SOL     OW90623  11.869   1.119   9.900
62909SOL    HW190624  11.837   1.209   9.887
62909SOL    HW290625  11.872   1.082   9.812
62910SOL     OW90626   3.151  14.842   1.051
62910SOL    HW190627   3.185  14.752   1.057
62910SOL    HW290628   3.225   0.020   1.076
62911SOL     OW90629  13.934  12.135   6.385
62911SOL    HW190630  14.000  12.082   6.339
62911SOL    HW290631  13.907  12.200   6.320
62912SOL     OW90632  12.492  12.817   4.164
62912SOL    HW190633  12.496  12.859   4.250
62912SOL    HW290634  12.526  12.729   4.179
62913SOL     OW90635   6.685   7.781   5.768
62913SOL    HW190636   6.713   7.694   5.796
62913SOL    HW290637   6.766   7.826   5.743
62914SOL     OW90638  14.605  14.324   5.008
62914SOL    HW190639  14.615  14.251   5.070
62914SOL    HW290640  14.572  14.283   4.928
62915SOL     OW90641  10.432   2.770  10.054
62915SOL    HW190642  10.417   2.804   9.966
62915SOL    HW290643  10.513   2.720  10.046
62916SOL     OW90644  13.027   8.296  11.452
62916SOL    HW190645  13.050   8.389  11.456
62916SOL    HW290646  13.081   8.262  11.382
62917SOL     OW90647   9.345   6.552   2.484
62917SOL    HW190648   9.391   6.613   2.542
62917SOL    HW290649   9.415   6.510   2.434
62918SOL     OW90650   8.061  10.932   8.487
62918SOL    HW190651   7.996  10.875   8.446
62918SOL    HW290652   8.068  11.007   8.428
62919SOL     OW90653   9.892   7.658   5.538
62919SOL    HW190654   9.871   7.579   5.489
62919SOL    HW290655   9.961   7.701   5.487
62920SOL     OW90656   8.446   2.978   3.525
62920SOL    HW190657   8.520   2.935   3.481
62920SOL    HW290658   8.389   3.007   3.454
62921SOL     OW90659   7.272  13.272  14.096
62921SOL    HW190660   7.269  13.207  14.025
62921SOL    HW290661   7.181  13.282  14.123
62922SOL     OW90662  14.018   0.496   6.870
62922SOL    HW190663  14.081   0.543   6.926
62922SOL    HW290664  14.072   0.432   6.823
62923SOL     OW90665  14.399   3.197   5.854
62923SOL    HW190666  14.390   3.144   5.933
62923SOL    HW290667  14.410   3.133   5.784
62924SOL     OW90668   0.767   9.626  12.918
62924SOL    HW190669   0.738   9.656  13.004
62924SOL    HW290670   0.685   9.606  12.871
62925SOL     OW90671   7.066   6.374   5.313
62925SOL    HW190672   7.060   6.287   5.274
62925SOL    HW290673   7.121   6.362   5.390
62926SOL     OW90674  10.751   2.448   2.276
62926SOL    HW190675  10.666   2.467   2.237
62926SOL    HW290676  10.732   2.382   2.343
62927SOL     OW90677  11.974   6.694  14.703
62927SOL    HW190678  12.010   6.627  14.646
62927SOL    HW290679  11.928   6.754  14.644
62928SOL     OW90680  12.133   4.708   1.126
62928SOL    HW190681  12.166   4.791   1.161
62928SOL    HW290682  12.087   4.732   1.046
62929SOL     OW90683   3.864   2.986   3.307
62929SOL    HW190684   3.837   2.894   3.316
62929SOL    HW290685   3.784   3.032   3.281
62930SOL     OW90686  12.046   7.829  13.979
62930SOL    HW190687  11.968   7.782  14.010
62930SOL    HW290688  12.035   7.834  13.884
62931SOL     OW90689   2.008  12.036  11.433
62931SOL    HW190690   2.050  12.095  11.370
62931SOL    HW290691   2.051  12.055  11.516
62932SOL     OW90692  11.754   3.340   6.735
62932SOL    HW190693  11.720   3.430   6.739
62932SOL    HW290694  11.839   3.348   6.693
62933SOL     OW90695   6.128  11.001  12.709
62933SOL    HW190696   6.103  10.964  12.625
62933SOL    HW290697   6.085  10.946  12.774
62934SOL     OW90698   8.480   0.317   7.617
62934SOL    HW190699   8.528   0.398   7.630
62934SOL    HW290700   8.464   0.283   7.705
62935SOL     OW90701   5.093  12.016   3.775
62935SOL    HW190702   5.052  11.987   3.856
62935SOL    HW290703   5.040  11.977   3.705
62936SOL     OW90704   7.729  14.697   4.882
62936SOL    HW190705   7.773  14.708   4.797
62936SOL    HW290706   7.749  14.778   4.929
62937SOL     OW90707  12.549   6.200  14.579
62937SOL    HW190708  12.544   6.293  14.603
62937SOL    HW290709  12.637   6.173  14.605
62938SOL     OW90710   7.162   5.073  12.127
62938SOL    HW190711   7.144   4.988  12.168
62938SOL    HW290712   7.088   5.087  12.068
62939SOL     OW90713   9.142  12.497   5.074
62939SOL    HW190714   9.211  12.475   5.136
62939SOL    HW290715   9.187  12.513   4.991
62940SOL     OW90716  10.573  11.035   4.709
62940SOL    HW190717  10.564  10.941   4.724
62940SOL    HW290718  10.641  11.063   4.770
62941SOL     OW90719  11.204   0.381   2.562
62941SOL    HW190720  11.138   0.446   2.538
62941SOL    HW290721  11.220   0.396   2.655
62942SOL     OW90722   8.841   8.906   4.947
62942SOL    HW190723   8.914   8.930   4.890
62942SOL    HW290724   8.882   8.870   5.025
62943SOL     OW90725   2.025   3.851   1.786
62943SOL    HW190726   2.004   3.800   1.707
62943SOL    HW290727   1.963   3.821   1.852
62944SOL     OW90728   4.397   2.017   3.601
62944SOL    HW190729   4.478   2.054   3.637
62944SOL    HW290730   4.336   2.019   3.674
62945SOL     OW90731  13.142   0.239   1.738
62945SOL    HW190732  13.092   0.251   1.819
62945SOL    HW290733  13.095   0.291   1.673
62946SOL     OW90734   6.550  13.584   1.655
62946SOL    HW190735   6.466  13.579   1.701
62946SOL    HW290736   6.604  13.517   1.696
62947SOL     OW90737  10.701   4.102   4.522
62947SOL    HW190738  10.752   4.069   4.596
62947SOL    HW290739  10.740   4.187   4.502
62948SOL     OW90740   0.812   0.633   0.996
62948SOL    HW190741   0.806   0.538   0.988
62948SOL    HW290742   0.864   0.648   1.075
62949SOL     OW90743  13.755   4.946  12.316
62949SOL    HW190744  13.682   4.965  12.257
62949SOL    HW290745  13.811   5.022  12.310
62950SOL     OW90746  11.472   8.124   2.904
62950SOL    HW190747  11.449   8.208   2.943
62950SOL    HW290748  11.526   8.147   2.828
62951SOL     OW90749  10.409  11.409  12.126
62951SOL    HW190750  10.429  11.317  12.105
62951SOL    HW290751  10.475  11.459  12.077
62952SOL     OW90752  12.836  10.094   8.345
62952SOL    HW190753  12.797  10.017   8.304
62952SOL    HW290754  12.835  10.073   8.439
62953SOL     OW90755  14.353  13.627   7.014
62953SOL    HW190756  14.280  13.685   7.032
62953SOL    HW290757  14.321  13.540   7.036
62954SOL     OW90758   4.493   6.487  14.686
62954SOL    HW190759   4.560   6.534  14.637
62954SOL    HW290760   4.526   6.487  14.776
62955SOL     OW90761  11.674   8.508   7.729
62955SOL    HW190762  11.750   8.555   7.693
62955SOL    HW290763  11.706   8.420   7.747
62956SOL     OW90764   8.230  14.501   2.735
62956SOL    HW190765   8.186  14.506   2.650
62956SOL    HW290766   8.166  14.535   2.797
62957SOL     OW90767   1.553  14.187  12.956
62957SOL    HW190768   1.589  14.271  12.987
62957SOL    HW290769   1.627  14.143  12.914
62958SOL     OW90770   8.606  11.405   4.439
62958SOL    HW190771   8.638  11.477   4.385
62958SOL    HW290772   8.682  11.347   4.449
62959SOL     OW90773   2.371   4.048  13.586
62959SOL    HW190774   2.437   4.049  13.516
62959SOL    HW290775   2.376   3.961  13.624
62960SOL     OW90776   4.321  12.680   4.252
62960SOL    HW190777   4.298  12.622   4.180
62960SOL    HW290778   4.416  12.687   4.249
62961SOL     OW90779  11.617   0.238   5.766
62961SOL    HW190780  11.680   0.302   5.799
62961SOL    HW290781  11.660   0.197   5.692
62962SOL     OW90782   7.304   1.031   6.546
62962SOL    HW190783   7.366   0.959   6.554
62962SOL    HW290784   7.221   0.994   6.574
62963SOL     OW90785   0.167   8.603  11.976
62963SOL    HW190786   0.207   8.517  11.992
62963SOL    HW290787   0.206   8.660  12.041
62964SOL     OW90788   4.297   3.601   6.626
62964SOL    HW190789   4.257   3.634   6.707
62964SOL    HW290790   4.347   3.524   6.654
62965SOL     OW90791   4.659  14.154  11.658
62965SOL    HW190792   4.682  14.061  11.652
62965SOL    HW290793   4.645  14.181  11.567
62966SOL     OW90794   0.351   2.888   0.817
62966SOL    HW190795   0.377   2.973   0.850
62966SOL    HW290796   0.287   2.907   0.748
62967SOL     OW90797   2.264   6.796   0.303
62967SOL    HW190798   2.229   6.768   0.388
62967SOL    HW290799   2.192   6.843   0.261
62968SOL     OW90800   7.879   8.251   0.158
62968SOL    HW190801   7.927   8.333   0.149
62968SOL    HW290802   7.788   8.277   0.170
62969SOL     OW90803   7.961   1.293   0.570
62969SOL    HW190804   7.997   1.260   0.653
62969SOL    HW290805   7.910   1.220   0.536
62970SOL     OW90806   9.730   8.126   0.792
62970SOL    HW190807   9.687   8.068   0.854
62970SOL    HW290808   9.660   8.152   0.731
62971SOL     OW90809   9.709   8.906  12.453
62971SOL    HW190810   9.709   8.956  12.535
62971SOL    HW290811   9.690   8.816  12.479
62972SOL     OW90812   5.860   0.284   4.672
62972SOL    HW190813   5.824   0.199   4.699
62972SOL    HW290814   5.805   0.311   4.599
62973SOL     OW90815   3.683   5.130   0.926
62973SOL    HW190816   3.718   5.197   0.985
62973SOL    HW290817   3.697   5.047   0.971
62974SOL     OW90818   4.098   8.294  12.279
62974SOL    HW190819   4.028   8.229  12.286
62974SOL    HW290820   4.167   8.261  12.336
62975SOL     OW90821   4.025   9.337   3.936
62975SOL    HW190822   3.993   9.255   3.974
62975SOL    HW290823   4.115   9.344   3.967
62976SOL     OW90824  10.285  11.194   1.159
62976SOL    HW190825  10.301  11.238   1.076
62976SOL    HW290826  10.191  11.207   1.175
62977SOL     OW90827  13.634   6.439   0.065
62977SOL    HW190828  13.637   6.504  14.872
62977SOL    HW290829  13.724   6.433   0.096
62978SOL     OW90830   4.116   5.862   7.953
62978SOL    HW190831   4.207   5.876   7.928
62978SOL    HW290832   4.106   5.767   7.953
62979SOL     OW90833  10.412   5.768  10.656
62979SOL    HW190834  10.354   5.758  10.732
62979SOL    HW290835  10.355   5.798  10.586
62980SOL     OW90836   0.315  10.786  10.998
62980SOL    HW190837   0.314  10.844  11.074
62980SOL    HW290838   0.403  10.795  10.961
62981SOL     OW90839   3.308   8.984   8.002
62981SOL    HW190840   3.322   9.036   8.081
62981SOL    HW290841   3.214   8.983   7.989
62982SOL     OW90842   3.621  13.791  11.993
62982SOL    HW190843   3.643  13.701  11.968
62982SOL    HW290844   3.619  13.839  11.911
62983SOL     OW90845   4.420  11.806   4.581
62983SOL    HW190846   4.390  11.851   4.502
62983SOL    HW290847   4.500  11.851   4.605
62984SOL     OW90848   2.629  12.590   7.672
62984SOL    HW190849   2.535  12.584   7.689
62984SOL    HW290850   2.671  12.569   7.755
62985SOL     OW90851   6.938   9.138   1.573
62985SOL    HW190852   6.964   9.167   1.485
62985SOL    HW290853   6.991   9.191   1.632
62986SOL     OW90854  10.850   3.667   7.194
62986SOL    HW190855  10.759   3.645   7.174
62986SOL    HW290856  10.897   3.584   7.187
62987SOL     OW90857  12.673   3.487   4.768
62987SOL    HW190858  12.701   3.556   4.708
62987SOL    HW290859  12.583   3.466   4.740
62988SOL     OW90860   0.156  11.757   2.066
62988SOL    HW190861   0.245  11.794   2.073
62988SOL    HW290862   0.103  11.812   2.123
62989SOL     OW90863   2.335   5.115   0.777
62989SOL    HW190864   2.361   5.201   0.744
62989SOL    HW290865   2.288   5.074   0.705
62990SOL     OW90866   0.134   5.903   1.909
62990SOL    HW190867   0.057   5.873   1.860
62990SOL    HW290868   0.162   5.983   1.865
62991SOL     OW90869   3.456   4.676   4.925
62991SOL    HW190870   3.397   4.721   4.985
62991SOL    HW290871   3.403   4.655   4.849
62992SOL     OW90872   1.669   7.721   0.533
62992SOL    HW190873   1.578   7.694   0.523
62992SOL    HW290874   1.682   7.723   0.628
62993SOL     OW90875   4.801  11.567   2.718
62993SOL    HW190876   4.752  11.647   2.737
62993SOL    HW290877   4.859  11.591   2.645
62994SOL     OW90878   7.939   9.316  14.400
62994SOL    HW190879   7.930   9.405  14.365
62994SOL    HW290880   7.999   9.326  14.474
62995SOL     OW90881  12.182  10.288  13.208
62995SOL    HW190882  12.209  10.380  13.214
62995SOL    HW290883  12.160  10.276  13.115
62996SOL     OW90884   1.919   5.352   3.396
62996SOL    HW190885   2.000   5.329   3.351
62996SOL    HW290886   1.884   5.268   3.426
62997SOL     OW90887  12.449  14.801  10.567
62997SOL    HW190888  12.521  14.778  10.508
62997SOL    HW290889  12.451   0.019  10.570
62998SOL     OW90890   5.792   4.513   8.072
62998SOL    HW190891   5.778   4.591   8.126
62998SOL    HW290892   5.798   4.546   7.983
62999SOL     OW90893   8.797  14.269   3.628
62999SOL    HW190894   8.727  14.204   3.635
62999SOL    HW290895   8.875  14.218   3.603
63000SOL     OW90896   4.358   0.936   4.015
63000SOL    HW190897   4.337   0.902   3.928
63000SOL    HW290898   4.435   0.886   4.042
63001SOL     OW90899  11.044   4.039   7.146
63001SOL    HW190900  10.999   3.999   7.221
63001SOL    HW290901  10.991   4.014   7.070
63002SOL     OW90902  11.013   6.553  13.162
63002SOL    HW190903  11.024   6.462  13.134
63002SOL    HW290904  11.042   6.554  13.253
63003SOL     OW90905   7.822   9.236   7.452
63003SOL    HW190906   7.828   9.141   7.443
63003SOL    HW290907   7.755   9.249   7.519
63004SOL     OW90908   0.968  10.180  10.482
63004SOL    HW190909   1.039  10.231  10.521
63004SOL    HW290910   1.003  10.091  10.478
63005SOL     OW90911  13.590   3.702  13.984
63005SOL    HW190912  13.569   3.785  13.941
63005SOL    HW290913  13.514   3.684  14.041
63006SOL     OW90914  12.117   3.489   3.289
63006SOL    HW190915  12.063   3.556   3.331
63006SOL    HW290916  12.189   3.473   3.350
63007SOL     OW90917  14.127   4.512  13.888
63007SOL    HW190918  14.094   4.491  13.976
63007SOL    HW290919  14.051   4.503  13.831
63008SOL     OW90920   8.614  10.070   4.608
63008SOL    HW190921   8.562  10.036   4.681
63008SOL    HW290922   8.615   9.999   4.544
63009SOL     OW90923  12.896   6.781   7.804
63009SOL    HW190924  12.805   6.758   7.825
63009SOL    HW290925  12.940   6.782   7.888
63010SOL     OW90926  11.420   6.825   2.992
63010SOL    HW190927  11.329   6.798   2.981
63010SOL    HW290928  11.429   6.902   2.936
63011SOL     OW90929  10.002   5.543   8.877
63011SOL    HW190930  10.011   5.479   8.805
63011SOL    HW290931   9.921   5.589   8.858
63012SOL     OW90932   2.782   8.920   1.533
63012SOL    HW190933   2.787   8.865   1.456
63012SOL    HW290934   2.867   8.909   1.576
63013SOL     OW90935   5.597   8.358   3.674
63013SOL    HW190936   5.674   8.399   3.713
63013SOL    HW290937   5.588   8.402   3.589
63014SOL     OW90938  14.716   9.686   0.731
63014SOL    HW190939  14.760   9.659   0.650
63014SOL    HW290940  14.685   9.604   0.770
63015SOL     OW90941  10.319  14.132  12.524
63015SOL    HW190942  10.374  14.162  12.596
63015SOL    HW290943  10.230  14.155  12.549
63016SOL     OW90944  12.540   0.313  11.481
63016SOL    HW190945  12.450   0.346  11.470
63016SOL    HW290946  12.595   0.384  11.447
63017SOL     OW90947   2.943  12.176   1.108
63017SOL    HW190948   2.954  12.127   1.190
63017SOL    HW290949   2.887  12.250   1.132
63018SOL     OW90950   4.546   0.511   0.209
63018SOL    HW190951   4.450   0.518   0.212
63018SOL    HW290952   4.577   0.601   0.198
63019SOL     OW90953  14.673  11.863  11.810
63019SOL    HW190954  14.740  11.902  11.866
63019SOL    HW290955  14.595  11.857  11.866
63020SOL     OW90956   4.000   3.672  14.673
63020SOL    HW190957   3.938   3.726  14.624
63020SOL    HW290958   3.985   3.583  14.641
63021SOL     OW90959   9.962   2.959   6.368
63021SOL    HW190960   9.909   2.917   6.436
63021SOL    HW290961   9.910   2.951   6.288
63022SOL     OW90962   1.878   2.403  12.824
63022SOL    HW190963   1.972   2.401  12.812
63022SOL    HW290964   1.852   2.492  12.801
63023SOL     OW90965   5.989  10.333   5.201
63023SOL    HW190966   5.896  10.309   5.197
63023SOL    HW290967   6.035  10.251   5.180
63024SOL     OW90968   9.058   3.538   6.728
63024SOL    HW190969   9.029   3.620   6.689
63024SOL    HW290970   8.983   3.479   6.719
63025SOL     OW90971   6.404   4.011  10.630
63025SOL    HW190972   6.486   4.041  10.592
63025SOL    HW290973   6.345   4.087  10.624
63026SOL     OW90974   5.732   3.909  11.369
63026SOL    HW190975   5.819   3.871  11.358
63026SOL    HW290976   5.732   3.988  11.314
63027SOL     OW90977  12.221   7.023   0.336
63027SOL    HW190978  12.166   7.100   0.352
63027SOL    HW290979  12.256   7.035   0.248
63028SOL     OW90980   6.728  13.977   9.205
63028SOL    HW190981   6.787  13.915   9.162
63028SOL    HW290982   6.708  14.041   9.137
63029SOL     OW90983  11.864   7.305   5.671
63029SOL    HW190984  11.845   7.346   5.586
63029SOL    HW290985  11.817   7.222   5.668
63030SOL     OW90986   1.943   3.145  12.805
63030SOL    HW190987   2.000   3.207  12.849
63030SOL    HW290988   1.860   3.150  12.852
63031SOL     OW90989  13.680   8.203   4.118
63031SOL    HW190990  13.621   8.180   4.190
63031SOL    HW290991  13.684   8.299   4.121
63032SOL     OW90992   5.123  13.963  11.351
63032SOL    HW190993   5.193  13.966  11.286
63032SOL    HW290994   5.042  13.969  11.299
63033SOL     OW90995   5.198   7.105   6.339
63033SOL    HW190996   5.202   7.150   6.255
63033SOL    HW290997   5.171   7.016   6.317
63034SOL     OW90998   5.209   0.729   2.788
63034SOL    HW190999   5.176   0.699   2.703
63034SOL    HW291000   5.165   0.672   2.851
63035SOL     OW91001   3.371  12.666   7.358
63035SOL    HW191002   3.323  12.741   7.392
63035SOL    HW291003   3.371  12.602   7.430
63036SOL     OW91004  12.071   5.409   2.511
63036SOL    HW191005  11.994   5.443   2.557
63036SOL    HW291006  12.146   5.443   2.560
63037SOL     OW91007   5.591   3.944   1.968
63037SOL    HW191008   5.635   4.002   2.030
63037SOL    HW291009   5.501   3.975   1.965
63038SOL     OW91010   0.009   6.185   3.603
63038SOL    HW191011   0.006   6.201   3.698
63038SOL    HW291012   0.072   6.114   3.593
63039SOL     OW91013  10.560   4.912   7.997
63039SOL    HW191014  10.653   4.906   7.975
63039SOL    HW291015  10.525   4.977   7.936
63040SOL     OW91016   0.163  12.475  11.768
63040SOL    HW191017   0.156  12.399  11.710
63040SOL    HW291018   0.091  12.464  11.831
63041SOL     OW91019   0.177   4.090  11.404
63041SOL    HW191020   0.263   4.132  11.402
63041SOL    HW291021   0.155   4.085  11.497
63042SOL     OW91022   9.428   1.376  10.872
63042SOL    HW191023   9.384   1.447  10.825
63042SOL    HW291024   9.391   1.379  10.960
63043SOL     OW91025   8.181   7.199   3.182
63043SOL    HW191026   8.140   7.148   3.112
63043SOL    HW291027   8.272   7.209   3.154
63044SOL     OW91028   8.444  12.473   6.353
63044SOL    HW191029   8.431  12.387   6.314
63044SOL    HW291030   8.357  12.511   6.359
63045SOL     OW91031   4.831   3.277   0.540
63045SOL    HW191032   4.850   3.275   0.447
63045SOL    HW291033   4.908   3.317   0.580
63046SOL     OW91034   0.254   0.621   5.792
63046SOL    HW191035   0.340   0.613   5.833
63046SOL    HW291036   0.192   0.619   5.865
63047SOL     OW91037   2.825   8.071   5.471
63047SOL    HW191038   2.750   8.089   5.414
63047SOL    HW291039   2.824   8.142   5.535
63048SOL     OW91040  13.693   7.265   5.455
63048SOL    HW191041  13.788   7.262   5.450
63048SOL    HW291042  13.671   7.221   5.537
63049SOL     OW91043   7.645   0.730   1.298
63049SOL    HW191044   7.559   0.701   1.328
63049SOL    HW291045   7.628   0.811   1.250
63050SOL     OW91046   5.910   0.810  12.943
63050SOL    HW191047   5.958   0.745  12.892
63050SOL    HW291048   5.856   0.857  12.879
63051SOL     OW91049   8.358  10.448  10.650
63051SOL    HW191050   8.421  10.507  10.608
63051SOL    HW291051   8.408  10.405  10.719
63052SOL     OW91052   0.139   0.317  12.924
63052SOL    HW191053   0.209   0.254  12.944
63052SOL    HW291054   0.148   0.333  12.830
63053SOL     OW91055   0.260   3.070   4.667
63053SOL    HW191056   0.214   3.154   4.677
63053SOL    HW291057   0.202   3.006   4.708
63054SOL     OW91058   9.529  10.285   2.139
63054SOL    HW191059   9.521  10.347   2.066
63054SOL    HW291060   9.610  10.236   2.120
63055SOL     OW91061   9.297   1.574  13.150
63055SOL    HW191062   9.386   1.560  13.183
63055SOL    HW291063   9.243   1.512  13.200
63056SOL     OW91064   7.041   7.599   7.932
63056SOL    HW191065   6.995   7.548   7.865
63056SOL    HW291066   6.975   7.661   7.964
63057SOL     OW91067   6.458  12.945   0.521
63057SOL    HW191068   6.369  12.918   0.542
63057SOL    HW291069   6.489  12.880   0.457
63058SOL     OW91070   3.013   1.781   3.706
63058SOL    HW191071   2.926   1.821   3.711
63058SOL    HW291072   3.068   1.835   3.763
63059SOL     OW91073   0.870   3.326  11.752
63059SOL    HW191074   0.847   3.261  11.685
63059SOL    HW291075   0.942   3.375  11.713
63060SOL     OW91076  14.595   3.970   6.300
63060SOL    HW191077  14.633   4.058   6.298
63060SOL    HW291078  14.599   3.940   6.209
63061SOL     OW91079  11.805  10.503   1.963
63061SOL    HW191080  11.783  10.432   1.902
63061SOL    HW291081  11.895  10.526   1.940
63062SOL     OW91082   3.087   6.272  14.569
63062SOL    HW191083   3.081   6.201  14.634
63062SOL    HW291084   3.019   6.251  14.505
63063SOL     OW91085  14.429   0.290  10.697
63063SOL    HW191086  14.453   0.371  10.653
63063SOL    HW291087  14.490   0.225  10.663
63064SOL     OW91088   5.978   7.716   5.690
63064SOL    HW191089   5.986   7.781   5.760
63064SOL    HW291090   5.970   7.768   5.610
63065SOL     OW91091   5.647   1.957   5.630
63065SOL    HW191092   5.734   1.993   5.644
63065SOL    HW291093   5.602   2.024   5.577
63066SOL     OW91094   9.620   9.843  13.483
63066SOL    HW191095   9.603   9.862  13.391
63066SOL    HW291096   9.689   9.905  13.509
63067SOL     OW91097  13.190   8.018   9.214
63067SOL    HW191098  13.225   8.061   9.292
63067SOL    HW291099  13.123   8.078   9.181
63068SOL     OW91100   6.458   6.498   4.731
63068SOL    HW191101   6.522   6.439   4.692
63068SOL    HW291102   6.417   6.447   4.801
63069SOL     OW91103   9.057   9.984   4.605
63069SOL    HW191104   9.078  10.076   4.588
63069SOL    HW291105   9.142   9.940   4.608
63070SOL     OW91106   8.005  13.146  11.861
63070SOL    HW191107   7.944  13.127  11.789
63070SOL    HW291108   7.949  13.158  11.938
63071SOL     OW91109  10.488  10.866  12.228
63071SOL    HW191110  10.459  10.899  12.142
63071SOL    HW291111  10.553  10.930  12.257
63072SOL     OW91112  13.835   9.843   2.694
63072SOL    HW191113  13.890   9.867   2.769
63072SOL    HW291114  13.817   9.926   2.650
63073SOL     OW91115   2.690   5.185   0.920
63073SOL    HW191116   2.633   5.252   0.957
63073SOL    HW291117   2.683   5.197   0.825
63074SOL     OW91118   0.600  12.737   5.640
63074SOL    HW191119   0.648  12.795   5.580
63074SOL    HW291120   0.515  12.780   5.650
63075SOL     OW91121   2.514   1.058   9.104
63075SOL    HW191122   2.485   0.972   9.135
63075SOL    HW291123   2.511   1.051   9.009
63076SOL     OW91124   4.870   4.866   4.307
63076SOL    HW191125   4.924   4.821   4.242
63076SOL    HW291126   4.851   4.799   4.372
63077SOL     OW91127   6.064   6.884   3.565
63077SOL    HW191128   6.088   6.957   3.509
63077SOL    HW291129   6.061   6.809   3.505
63078SOL     OW91130   2.220   1.565   2.353
63078SOL    HW191131   2.147   1.505   2.340
63078SOL    HW291132   2.192   1.623   2.424
63079SOL     OW91133   9.644  13.020   9.927
63079SOL    HW191134   9.710  12.958   9.895
63079SOL    HW291135   9.658  13.022  10.022
63080SOL     OW91136   3.045  10.326   9.346
63080SOL    HW191137   3.031  10.311   9.252
63080SOL    HW291138   2.963  10.298   9.387
63081SOL     OW91139   0.761   2.574  13.835
63081SOL    HW191140   0.793   2.497  13.882
63081SOL    HW291141   0.760   2.547  13.743
63082SOL     OW91142   5.142   8.400   1.729
63082SOL    HW191143   5.137   8.447   1.812
63082SOL    HW291144   5.086   8.324   1.741
63083SOL     OW91145  12.078   7.689   9.232
63083SOL    HW191146  12.083   7.631   9.308
63083SOL    HW291147  12.098   7.634   9.157
63084SOL     OW91148   1.441   1.016   5.120
63084SOL    HW191149   1.352   0.991   5.095
63084SOL    HW291150   1.482   1.044   5.039
63085SOL     OW91151   1.646   2.080   6.325
63085SOL    HW191152   1.666   2.152   6.384
63085SOL    HW291153   1.608   2.012   6.381
63086SOL     OW91154   9.161  10.298   2.041
63086SOL    HW191155   9.145  10.246   1.962
63086SOL    HW291156   9.121  10.247   2.112
63087SOL     OW91157   3.191   1.010  11.665
63087SOL    HW191158   3.259   1.004  11.732
63087SOL    HW291159   3.220   0.949  11.597
63088SOL     OW91160   4.311   6.397   9.713
63088SOL    HW191161   4.227   6.358   9.686
63088SOL    HW291162   4.289   6.445   9.793
63089SOL     OW91163   8.586   6.608   1.559
63089SOL    HW191164   8.550   6.520   1.554
63089SOL    HW291165   8.556   6.651   1.479
63090SOL     OW91166   1.485   1.665   6.662
63090SOL    HW191167   1.550   1.605   6.698
63090SOL    HW291168   1.432   1.611   6.604
63091SOL     OW91169   8.308  12.031  13.630
63091SOL    HW191170   8.342  12.119  13.612
63091SOL    HW291171   8.302  11.989  13.544
63092SOL     OW91172   4.073   1.820   7.378
63092SOL    HW191173   4.107   1.731   7.385
63092SOL    HW291174   4.138   1.873   7.425
63093SOL     OW91175  10.364  10.660   7.074
63093SOL    HW191176  10.456  10.638   7.060
63093SOL    HW291177  10.335  10.600   7.143
63094SOL     OW91178  10.931   6.499   8.911
63094SOL    HW191179  10.885   6.520   8.992
63094SOL    HW291180  10.917   6.405   8.899
63095SOL     OW91181  14.696   7.388   8.676
63095SOL    HW191182  14.696   7.463   8.735
63095SOL    HW291183  14.662   7.316   8.730
63096SOL     OW91184   7.578   4.713  13.806
63096SOL    HW191185   7.583   4.672  13.719
63096SOL    HW291186   7.488   4.745  13.812
63097SOL     OW91187   8.373   0.806  14.858
63097SOL    HW191188   8.277   0.808  14.853
63097SOL    HW291189   8.400   0.765  14.776
63098SOL     OW91190   0.529   0.778  10.951
63098SOL    HW191191   0.489   0.733  11.025
63098SOL    HW291192   0.526   0.715  10.880
63099SOL     OW91193   5.027   8.275  11.617
63099SOL    HW191194   5.051   8.363  11.646
63099SOL    HW291195   5.037   8.277  11.522
63100SOL     OW91196   5.291   4.139  13.096
63100SOL    HW191197   5.376   4.098  13.080
63100SOL    HW291198   5.285   4.209  13.031
63101SOL     OW91199   7.207   3.278  10.407
63101SOL    HW191200   7.177   3.341  10.342
63101SOL    HW291201   7.156   3.298  10.485
63102SOL     OW91202   6.096  12.237   3.402
63102SOL    HW191203   6.102  12.285   3.484
63102SOL    HW291204   6.002  12.230   3.385
63103SOL     OW91205  11.273  10.341  12.775
63103SOL    HW191206  11.268  10.354  12.681
63103SOL    HW291207  11.192  10.381  12.809
63104SOL     OW91208  13.991   2.854   3.267
63104SOL    HW191209  14.043   2.935   3.268
63104SOL    HW291210  13.937   2.859   3.345
63105SOL     OW91211  14.857   7.222   7.276
63105SOL    HW191212  14.847   7.224   7.371
63105SOL    HW291213  14.864   7.314   7.250
63106SOL     OW91214   7.007   6.100   0.834
63106SOL    HW191215   6.936   6.164   0.827
63106SOL    HW291216   7.087   6.153   0.842
63107SOL     OW91217   4.178  12.022  11.373
63107SOL    HW191218   4.124  12.030  11.452
63107SOL    HW291219   4.252  11.967  11.399
63108SOL     OW91220  10.116   3.884   0.326
63108SOL    HW191221  10.073   3.858   0.407
63108SOL    HW291222  10.162   3.965   0.348
63109SOL     OW91223   4.197   2.920   6.150
63109SOL    HW191224   4.256   2.989   6.182
63109SOL    HW291225   4.244   2.881   6.076
63110SOL     OW91226   4.732   5.176   9.711
63110SOL    HW191227   4.767   5.156   9.625
63110SOL    HW291228   4.645   5.136   9.711
63111SOL     OW91229   2.342   1.124   5.670
63111SOL    HW191230   2.353   1.218   5.686
63111SOL    HW291231   2.248   1.114   5.656
63112SOL     OW91232  10.158  13.044  12.493
63112SOL    HW191233  10.250  13.021  12.508
63112SOL    HW291234  10.124  12.970  12.444
63113SOL     OW91235  12.118   3.075   2.832
63113SOL    HW191236  12.188   3.136   2.808
63113SOL    HW291237  12.087   3.106   2.916
63114SOL     OW91238   1.989   3.945   9.834
63114SOL    HW191239   1.896   3.933   9.818
63114SOL    HW291240   1.996   4.032   9.874
63115SOL     OW91241   9.056   2.658   7.619
63115SOL    HW191242   9.091   2.719   7.684
63115SOL    HW291243   8.965   2.687   7.606
63116SOL     OW91244   6.883   9.810   9.807
63116SOL    HW191245   6.939   9.745   9.764
63116SOL    HW291246   6.793   9.781   9.789
63117SOL     OW91247   3.118   0.302   5.114
63117SOL    HW191248   3.046   0.272   5.170
63117SOL    HW291249   3.075   0.350   5.044
63118SOL     OW91250  14.638  14.413   9.973
63118SOL    HW191251  14.632  14.496  10.020
63118SOL    HW291252  14.561  14.363  10.002
63119SOL     OW91253   9.625  11.471  14.292
63119SOL    HW191254   9.641  11.557  14.252
63119SOL    HW291255   9.601  11.491  14.383
63120SOL     OW91256   8.872  12.292  12.380
63120SOL    HW191257   8.896  12.383  12.401
63120SOL    HW291258   8.896  12.282  12.288
63121SOL     OW91259  10.434   2.002   9.411
63121SOL    HW191260  10.456   2.036   9.497
63121SOL    HW291261  10.339   2.008   9.406
63122SOL     OW91262   9.998   3.341  11.371
63122SOL    HW191263   9.913   3.333  11.413
63122SOL    HW291264  10.046   3.262  11.397
63123SOL     OW91265   5.209   3.300   1.171
63123SOL    HW191266   5.119   3.267   1.161
63123SOL    HW291267   5.242   3.255   1.249
63124SOL     OW91268   7.574   3.766   0.437
63124SOL    HW191269   7.580   3.692   0.497
63124SOL    HW291270   7.484   3.764   0.404
63125SOL     OW91271   7.226   8.770   4.056
63125SOL    HW191272   7.314   8.778   4.093
63125SOL    HW291273   7.236   8.705   3.985
63126SOL     OW91274   6.025   3.704  13.739
63126SOL    HW191275   6.087   3.630  13.745
63126SOL    HW291276   6.015   3.719  13.645
63127SOL     OW91277  12.554   5.982   5.337
63127SOL    HW191278  12.508   5.900   5.353
63127SOL    HW291279  12.486   6.049   5.333
63128SOL     OW91280   3.896   1.129  12.697
63128SOL    HW191281   3.813   1.169  12.721
63128SOL    HW291282   3.875   1.036  12.686
63129SOL     OW91283   4.405  13.198   9.798
63129SOL    HW191284   4.477  13.135   9.800
63129SOL    HW291285   4.447  13.283   9.784
63130SOL     OW91286   3.018   7.728   6.691
63130SOL    HW191287   3.035   7.634   6.696
63130SOL    HW291288   3.103   7.768   6.706
63131SOL     OW91289  13.144   1.436  11.315
63131SOL    HW191290  13.057   1.473  11.322
63131SOL    HW291291  13.137   1.349  11.355
63132SOL     OW91292   9.444   8.867  12.374
63132SOL    HW191293   9.414   8.836  12.459
63132SOL    HW291294   9.537   8.884  12.386
63133SOL     OW91295   5.438   0.998   7.640
63133SOL    HW191296   5.471   1.088   7.641
63133SOL    HW291297   5.373   0.996   7.710
63134SOL     OW91298   3.130   1.975   3.405
63134SOL    HW191299   3.220   1.945   3.420
63134SOL    HW291300   3.120   1.973   3.310
63135SOL     OW91301   8.016   3.523  10.607
63135SOL    HW191302   8.079   3.547  10.675
63135SOL    HW291303   8.004   3.428  10.619
63136SOL     OW91304  12.669   6.522   2.916
63136SOL    HW191305  12.686   6.431   2.942
63136SOL    HW291306  12.577   6.523   2.891
63137SOL     OW91307  10.296  14.056   8.364
63137SOL    HW191308  10.281  13.979   8.309
63137SOL    HW291309  10.267  14.030   8.451
63138SOL     OW91310   1.192   1.054  13.638
63138SOL    HW191311   1.202   1.067  13.544
63138SOL    HW291312   1.280   1.064  13.674
63139SOL     OW91313  12.291   0.182  10.787
63139SOL    HW191314  12.324   0.101  10.824
63139SOL    HW291315  12.356   0.207  10.721
63140SOL     OW91316  11.241   2.679   4.962
63140SOL    HW191317  11.229   2.639   4.876
63140SOL    HW291318  11.333   2.705   4.964
63141SOL     OW91319  11.987   4.818   9.795
63141SOL    HW191320  11.954   4.899   9.834
63141SOL    HW291321  11.913   4.784   9.745
63142SOL     OW91322  13.176  10.526  10.789
63142SOL    HW191323  13.201  10.445  10.833
63142SOL    HW291324  13.175  10.502  10.696
63143SOL     OW91325   1.549  11.969  14.203
63143SOL    HW191326   1.520  11.885  14.240
63143SOL    HW291327   1.634  11.949  14.164
63144SOL     OW91328   3.825   5.486   5.087
63144SOL    HW191329   3.753   5.517   5.031
63144SOL    HW291330   3.897   5.471   5.026
63145SOL     OW91331  14.445  10.882   7.709
63145SOL    HW191332  14.483  10.925   7.786
63145SOL    HW291333  14.412  10.953   7.655
63146SOL     OW91334   3.997  12.865  12.431
63146SOL    HW191335   3.992  12.958  12.453
63146SOL    HW291336   4.057  12.828  12.496
63147SOL     OW91337   8.720   0.287   3.732
63147SOL    HW191338   8.808   0.325   3.726
63147SOL    HW291339   8.681   0.330   3.808
63148SOL     OW91340   3.175   0.014  12.237
63148SOL    HW191341   3.205   0.057  12.317
63148SOL    HW291342   3.247   0.027  12.175
63149SOL     OW91343   7.733  10.750   0.937
63149SOL    HW191344   7.687  10.683   0.888
63149SOL    HW291345   7.667  10.788   0.995
63150SOL     OW91346   0.597   3.688  14.719
63150SOL    HW191347   0.668   3.747  14.694
63150SOL    HW291348   0.551   3.736  14.789
63151SOL     OW91349   3.449   1.704  11.154
63151SOL    HW191350   3.472   1.785  11.199
63151SOL    HW291351   3.510   1.639  11.190
63152SOL     OW91352  12.738  12.735   6.194
63152SOL    HW191353  12.659  12.787   6.210
63152SOL    HW291354  12.771  12.766   6.110
63153SOL     OW91355   7.323   3.313   0.210
63153SOL    HW191356   7.400   3.368   0.222
63153SOL    HW291357   7.342   3.262   0.131
63154SOL     OW91358   4.209   8.105   6.016
63154SOL    HW191359   4.186   8.086   5.925
63154SOL    HW291360   4.304   8.118   6.015
63155SOL     OW91361   2.480   4.851  13.432
63155SOL    HW191362   2.462   4.945  13.434
63155SOL    HW291363   2.536   4.839  13.356
63156SOL     OW91364   6.683   6.230  12.233
63156SOL    HW191365   6.666   6.147  12.188
63156SOL    HW291366   6.751   6.209  12.297
63157SOL     OW91367   4.086  11.464  11.998
63157SOL    HW191368   4.085  11.419  11.913
63157SOL    HW291369   4.048  11.550  11.980
63158SOL     OW91370   5.416  12.352   3.289
63158SOL    HW191371   5.460  12.382   3.209
63158SOL    HW291372   5.342  12.299   3.257
63159SOL     OW91373   7.663   9.139   6.448
63159SOL    HW191374   7.681   9.138   6.542
63159SOL    HW291375   7.691   9.053   6.418
63160SOL     OW91376  13.733   0.177   0.371
63160SOL    HW191377  13.812   0.228   0.390
63160SOL    HW291378  13.663   0.222   0.418
63161SOL     OW91379  12.841   8.598   6.069
63161SOL    HW191380  12.757   8.642   6.063
63161SOL    HW291381  12.887   8.623   5.988
63162SOL     OW91382   6.705   6.472   2.952
63162SOL    HW191383   6.692   6.501   2.862
63162SOL    HW291384   6.705   6.553   3.003
63163SOL     OW91385   7.617   2.722   8.400
63163SOL    HW191386   7.640   2.814   8.385
63163SOL    HW291387   7.609   2.685   8.312
63164SOL     OW91388  14.669   1.216   4.505
63164SOL    HW191389  14.659   1.126   4.473
63164SOL    HW291390  14.719   1.260   4.437
63165SOL     OW91391   7.064  13.101   8.138
63165SOL    HW191392   7.134  13.096   8.073
63165SOL    HW291393   7.106  13.139   8.215
63166SOL     OW91394   2.740   4.323   4.612
63166SOL    HW191395   2.719   4.253   4.550
63166SOL    HW291396   2.807   4.375   4.568
63167SOL     OW91397   2.541   1.541  10.410
63167SOL    HW191398   2.556   1.556  10.317
63167SOL    HW291399   2.458   1.586  10.428
63168SOL     OW91400   3.776   0.492  14.052
63168SOL    HW191401   3.837   0.424  14.081
63168SOL    HW291402   3.797   0.506  13.960
63169SOL     OW91403   5.814  14.870   4.398
63169SOL    HW191404   5.757   0.003   4.322
63169SOL    HW291405   5.754  14.875   4.473
63170SOL     OW91406   5.345   5.832   2.146
63170SOL    HW191407   5.322   5.784   2.226
63170SOL    HW291408   5.355   5.923   2.174
63171SOL     OW91409   3.472   5.890   1.807
63171SOL    HW191410   3.462   5.861   1.716
63171SOL    HW291411   3.432   5.977   1.809
63172SOL     OW91412   1.658  11.322   5.131
63172SOL    HW191413   1.734  11.372   5.160
63172SOL    HW291414   1.612  11.381   5.071
63173SOL     OW91415   2.369   1.371  11.108
63173SOL    HW191416   2.276   1.383  11.127
63173SOL    HW291417   2.373   1.368  11.012
63174SOL     OW91418  11.178  14.536   4.522
63174SOL    HW191419  11.205  14.445   4.531
63174SOL    HW291420  11.260  14.586   4.518
63175SOL     OW91421   9.221   0.646   1.436
63175SOL    HW191422   9.256   0.695   1.362
63175SOL    HW291423   9.195   0.714   1.499
63176SOL     OW91424   9.794   1.470   7.081
63176SOL    HW191425   9.820   1.394   7.132
63176SOL    HW291426   9.839   1.460   6.998
63177SOL     OW91427   1.826   5.835   9.988
63177SOL    HW191428   1.887   5.813   9.918
63177SOL    HW291429   1.756   5.770   9.981
63178SOL     OW91430  13.122  14.827  10.264
63178SOL    HW191431  13.133   0.015  10.333
63178SOL    HW291432  13.179  14.856  10.193
63179SOL     OW91433   1.659   2.123   1.943
63179SOL    HW191434   1.747   2.117   1.980
63179SOL    HW291435   1.606   2.160   2.014
63180SOL     OW91436   6.199  12.276  11.772
63180SOL    HW191437   6.247  12.346  11.816
63180SOL    HW291438   6.268  12.225  11.728
63181SOL     OW91439  12.543   9.302  13.263
63181SOL    HW191440  12.529   9.276  13.354
63181SOL    HW291441  12.619   9.360  13.267
63182SOL     OW91442   2.534   9.847   7.335
63182SOL    HW191443   2.488   9.930   7.323
63182SOL    HW291444   2.566   9.825   7.248
63183SOL     OW91445   9.503   7.823   7.679
63183SOL    HW191446   9.476   7.734   7.658
63183SOL    HW291447   9.465   7.840   7.765
63184SOL     OW91448   5.731   1.085  11.256
63184SOL    HW191449   5.731   1.008  11.313
63184SOL    HW291450   5.673   1.061  11.183
63185SOL     OW91451  12.157   9.188   9.864
63185SOL    HW191452  12.227   9.248   9.890
63185SOL    HW291453  12.161   9.117   9.927
63186SOL     OW91454   0.284   9.980   3.505
63186SOL    HW191455   0.333   9.920   3.448
63186SOL    HW291456   0.254  10.049   3.446
63187SOL     OW91457   5.759   2.222   4.952
63187SOL    HW191458   5.730   2.207   4.862
63187SOL    HW291459   5.677   2.225   5.002
63188SOL     OW91460   2.903   9.195  10.303
63188SOL    HW191461   2.829   9.221  10.359
63188SOL    HW291462   2.872   9.117  10.257
63189SOL     OW91463  12.260   6.423   8.417
63189SOL    HW191464  12.305   6.499   8.380
63189SOL    HW291465  12.329   6.357   8.427
63190SOL     OW91466  14.092  12.681   9.621
63190SOL    HW191467  14.119  12.592   9.644
63190SOL    HW291468  14.011  12.669   9.570
63191SOL     OW91469   1.545   6.845  11.504
63191SOL    HW191470   1.599   6.860  11.582
63191SOL    HW291471   1.493   6.768  11.525
63192SOL     OW91472   6.563   1.830  11.092
63192SOL    HW191473   6.603   1.881  11.162
63192SOL    HW291474   6.469   1.849  11.099
63193SOL     OW91475  14.451  12.038  11.217
63193SOL    HW191476  14.430  11.978  11.145
63193SOL    HW291477  14.490  12.114  11.175
63194SOL     OW91478   9.289   4.038   9.696
63194SOL    HW191479   9.383   4.033   9.681
63194SOL    HW291480   9.252   3.972   9.637
63195SOL     OW91481  12.700   0.955  10.609
63195SOL    HW191482  12.693   0.920  10.698
63195SOL    HW291483  12.620   0.927  10.565
63196SOL     OW91484   9.651  10.618   4.374
63196SOL    HW191485   9.563  10.637   4.343
63196SOL    HW291486   9.687  10.704   4.398
63197SOL     OW91487   5.492   3.708  10.619
63197SOL    HW191488   5.565   3.746  10.571
63197SOL    HW291489   5.414   3.751  10.584
63198SOL     OW91490   6.343   3.218  12.526
63198SOL    HW191491   6.324   3.290  12.585
63198SOL    HW291492   6.267   3.213  12.469
63199SOL     OW91493   3.791   0.427  10.122
63199SOL    HW191494   3.868   0.404  10.174
63199SOL    HW291495   3.738   0.482  10.180
63200SOL     OW91496   4.411   2.381   4.725
63200SOL    HW191497   4.486   2.381   4.785
63200SOL    HW291498   4.448   2.405   4.640
63201SOL     OW91499   0.450  11.012   6.476
63201SOL    HW191500   0.373  11.057   6.511
63201SOL    HW291501   0.513  11.083   6.459
63202SOL     OW91502  12.763   6.447   4.467
63202SOL    HW191503  12.776   6.487   4.381
63202SOL    HW291504  12.697   6.502   4.509
63203SOL     OW91505  12.740   6.689  13.408
63203SOL    HW191506  12.668   6.752  13.404
63203SOL    HW291507  12.718   6.631  13.481
63204SOL     OW91508   9.589  13.090   1.678
63204SOL    HW191509   9.498  13.119   1.671
63204SOL    HW291510   9.638  13.171   1.691
63205SOL     OW91511  12.724   8.265   5.198
63205SOL    HW191512  12.817   8.245   5.184
63205SOL    HW291513  12.680   8.224   5.124
63206SOL     OW91514  13.022   2.776  12.982
63206SOL    HW191515  13.028   2.830  12.903
63206SOL    HW291516  12.958   2.709  12.960
63207SOL     OW91517   5.441  13.236   2.805
63207SOL    HW191518   5.374  13.168   2.795
63207SOL    HW291519   5.483  13.241   2.719
63208SOL     OW91520   6.589   6.887   7.537
63208SOL    HW191521   6.617   6.958   7.480
63208SOL    HW291522   6.642   6.897   7.616
63209SOL     OW91523   6.779   3.364   5.927
63209SOL    HW191524   6.840   3.435   5.945
63209SOL    HW291525   6.796   3.300   5.996
63210SOL     OW91526   8.882   9.149   1.713
63210SOL    HW191527   8.949   9.114   1.654
63210SOL    HW291528   8.800   9.109   1.684
63211SOL     OW91529   6.265   1.001   7.114
63211SOL    HW191530   6.224   1.004   7.201
63211SOL    HW291531   6.356   1.026   7.130
63212SOL     OW91532   7.651  12.669  11.733
63212SOL    HW191533   7.668  12.705  11.820
63212SOL    HW291534   7.666  12.575  11.743
63213SOL     OW91535  12.570   8.117   0.190
63213SOL    HW191536  12.555   8.118   0.285
63213SOL    HW291537  12.649   8.169   0.177
63214SOL     OW91538  13.630   4.612   5.997
63214SOL    HW191539  13.596   4.553   5.929
63214SOL    HW291540  13.615   4.565   6.079
63215SOL     OW91541   0.638   9.127   1.975
63215SOL    HW191542   0.547   9.157   1.969
63215SOL    HW291543   0.631   9.036   2.003
63216SOL     OW91544   4.936   9.380  12.670
63216SOL    HW191545   4.935   9.336  12.585
63216SOL    HW291546   4.844   9.399  12.688
63217SOL     OW91547  14.344  10.356  13.117
63217SOL    HW191548  14.286  10.422  13.080
63217SOL    HW291549  14.427  10.402  13.129
63218SOL     OW91550  14.115   6.146   0.209
63218SOL    HW191551  14.087   6.197   0.133
63218SOL    HW291552  14.152   6.211   0.269
63219SOL     OW91553   3.335   0.575   1.094
63219SOL    HW191554   3.412   0.589   1.149
63219SOL    HW291555   3.321   0.660   1.051
63220SOL     OW91556   6.885   0.458  13.995
63220SOL    HW191557   6.880   0.530  14.057
63220SOL    HW291558   6.973   0.422  14.008
63221SOL     OW91559   1.376   1.601   9.742
63221SOL    HW191560   1.447   1.537   9.751
63221SOL    HW291561   1.296   1.549   9.748
63222SOL     OW91562   9.335  14.116  14.731
63222SOL    HW191563   9.393  14.158  14.668
63222SOL    HW291564   9.385  14.116  14.813
63223SOL     OW91565   4.811   0.619   9.180
63223SOL    HW191566   4.755   0.542   9.181
63223SOL    HW291567   4.793   0.660   9.094
63224SOL     OW91568   2.126  13.167  11.967
63224SOL    HW191569   2.044  13.166  12.016
63224SOL    HW291570   2.133  13.079  11.931
63225SOL     OW91571   1.278  13.917   5.850
63225SOL    HW191572   1.208  13.937   5.787
63225SOL    HW291573   1.286  13.997   5.903
63226SOL     OW91574   8.720   0.957  13.375
63226SOL    HW191575   8.794   0.972  13.433
63226SOL    HW291576   8.712   1.038  13.325
63227SOL     OW91577  11.422   4.211   2.627
63227SOL    HW191578  11.491   4.165   2.676
63227SOL    HW291579  11.343   4.196   2.678
63228SOL     OW91580   0.290   9.794   2.744
63228SOL    HW191581   0.380   9.814   2.718
63228SOL    HW291582   0.280   9.701   2.726
63229SOL     OW91583   8.957  10.936  10.734
63229SOL    HW191584   8.914  10.985  10.663
63229SOL    HW291585   9.051  10.944  10.715
63230SOL     OW91586   9.169  13.304   0.572
63230SOL    HW191587   9.117  13.328   0.649
63230SOL    HW291588   9.258  13.293   0.605
63231SOL     OW91589  12.456   5.534  14.789
63231SOL    HW191590  12.542   5.569  14.769
63231SOL    HW291591  12.472   5.447  14.825
63232SOL     OW91592   9.205   5.069   5.242
63232SOL    HW191593   9.264   5.069   5.318
63232SOL    HW291594   9.117   5.071   5.280
63233SOL     OW91595   3.117   6.759  10.334
63233SOL    HW191596   3.054   6.829  10.317
63233SOL    HW291597   3.088   6.720  10.417
63234SOL     OW91598   2.412   5.726   0.949
63234SOL    HW191599   2.327   5.692   0.973
63234SOL    HW291600   2.406   5.743   0.855
63235SOL     OW91601   6.807   1.003  10.062
63235SOL    HW191602   6.849   0.917  10.053
63235SOL    HW291603   6.855   1.046  10.133
63236SOL     OW91604   5.901  11.756   1.096
63236SOL    HW191605   5.843  11.828   1.123
63236SOL    HW291606   5.897  11.756   1.000
63237SOL     OW91607   5.213   7.004   1.649
63237SOL    HW191608   5.184   6.977   1.737
63237SOL    HW291609   5.302   6.968   1.642
63238SOL     OW91610   5.918   4.666   0.961
63238SOL    HW191611   5.961   4.581   0.972
63238SOL    HW291612   5.985   4.723   0.923
63239SOL     OW91613   7.978   3.194  14.540
63239SOL    HW191614   8.032   3.178  14.618
63239SOL    HW291615   8.036   3.175  14.467
63240SOL     OW91616  10.436   2.222  11.707
63240SOL    HW191617  10.525   2.232  11.672
63240SOL    HW291618  10.435   2.276  11.786
63241SOL     OW91619  12.806  11.664  12.011
63241SOL    HW191620  12.866  11.719  11.961
63241SOL    HW291621  12.719  11.687  11.977
63242SOL     OW91622   5.407   2.171   7.972
63242SOL    HW191623   5.395   2.186   7.878
63242SOL    HW291624   5.379   2.081   7.986
63243SOL     OW91625   4.028  11.136   2.214
63243SOL    HW191626   4.058  11.218   2.175
63243SOL    HW291627   4.085  11.069   2.175
63244SOL     OW91628   2.508   0.769   7.709
63244SOL    HW191629   2.513   0.757   7.804
63244SOL    HW291630   2.416   0.792   7.693
63245SOL     OW91631   4.560  13.583  10.528
63245SOL    HW191632   4.530  13.630  10.606
63245SOL    HW291633   4.533  13.492  10.543
63246SOL     OW91634   4.132  14.705   0.666
63246SOL    HW191635   4.147  14.798   0.684
63246SOL    HW291636   4.218  14.671   0.640
63247SOL     OW91637   9.602  11.759  13.311
63247SOL    HW191638   9.646  11.743  13.394
63247SOL    HW291639   9.559  11.843  13.322
63248SOL     OW91640   2.398   9.379  12.227
63248SOL    HW191641   2.444   9.421  12.299
63248SOL    HW291642   2.359   9.300  12.266
63249SOL     OW91643   2.278   5.759  10.710
63249SOL    HW191644   2.203   5.713  10.747
63249SOL    HW291645   2.336   5.689  10.680
63250SOL     OW91646  11.210  13.382  11.934
63250SOL    HW191647  11.115  13.380  11.940
63250SOL    HW291648  11.241  13.363  12.023
63251SOL     OW91649   5.170   3.017  10.226
63251SOL    HW191650   5.184   2.986  10.136
63251SOL    HW291651   5.243   2.979  10.276
63252SOL     OW91652   2.111   8.275   8.270
63252SOL    HW191653   2.189   8.270   8.215
63252SOL    HW291654   2.064   8.352   8.238
63253SOL     OW91655   4.288   9.416   6.084
63253SOL    HW191656   4.237   9.439   6.007
63253SOL    HW291657   4.344   9.344   6.055
63254SOL     OW91658   8.137  11.031  12.774
63254SOL    HW191659   8.188  11.025  12.693
63254SOL    HW291660   8.053  11.068  12.747
63255SOL     OW91661  11.150  10.599   3.976
63255SOL    HW191662  11.088  10.564   4.040
63255SOL    HW291663  11.161  10.528   3.912
63256SOL     OW91664   0.788   7.660   9.244
63256SOL    HW191665   0.879   7.689   9.251
63256SOL    HW291666   0.737   7.737   9.268
63257SOL     OW91667   9.893  14.073   0.053
63257SOL    HW191668   9.903  14.097  14.838
63257SOL    HW291669   9.958  14.127   0.099
63258SOL     OW91670   9.286   1.628  10.444
63258SOL    HW191671   9.260   1.683  10.371
63258SOL    HW291672   9.382   1.636  10.447
63259SOL     OW91673   3.238   7.306   9.884
63259SOL    HW191674   3.193   7.355   9.815
63259SOL    HW291675   3.242   7.366   9.958
63260SOL     OW91676   8.591  11.154   7.318
63260SOL    HW191677   8.611  11.242   7.285
63260SOL    HW291678   8.594  11.098   7.240
63261SOL     OW91679   8.492  14.172   9.731
63261SOL    HW191680   8.407  14.127   9.729
63261SOL    HW291681   8.535  14.137   9.810
63262SOL     OW91682  11.045   8.582   3.666
63262SOL    HW191683  11.048   8.498   3.712
63262SOL    HW291684  11.115   8.633   3.707
63263SOL     OW91685  11.623   2.837   0.616
63263SOL    HW191686  11.684   2.763   0.620
63263SOL    HW291687  11.552   2.806   0.561
63264SOL     OW91688  11.758   4.859   2.905
63264SOL    HW191689  11.730   4.836   2.817
63264SOL    HW291690  11.749   4.954   2.909
63265SOL     OW91691   1.545   3.407   0.349
63265SOL    HW191692   1.535   3.363   0.265
63265SOL    HW291693   1.584   3.341   0.407
63266SOL     OW91694  12.363  14.740   3.377
63266SOL    HW191695  12.380  14.831   3.400
63266SOL    HW291696  12.303  14.745   3.303
63267SOL     OW91697  10.419  13.455  14.425
63267SOL    HW191698  10.395  13.426  14.513
63267SOL    HW291699  10.338  13.488  14.388
63268SOL     OW91700   9.892   8.072  14.577
63268SOL    HW191701   9.897   8.059  14.482
63268SOL    HW291702   9.805   8.109  14.592
63269SOL     OW91703  14.799   0.305   0.871
63269SOL    HW191704  14.739   0.293   0.944
63269SOL    HW291705  14.770   0.385   0.828
63270SOL     OW91706   7.309   3.764   0.364
63270SOL    HW191707   7.313   3.859   0.370
63270SOL    HW291708   7.216   3.745   0.351
63271SOL     OW91709  13.432   0.324   6.838
63271SOL    HW191710  13.342   0.345   6.811
63271SOL    HW291711  13.454   0.391   6.903
63272SOL     OW91712  10.539   0.064   4.908
63272SOL    HW191713  10.584   0.140   4.870
63272SOL    HW291714  10.488   0.100   4.980
63273SOL     OW91715   3.063  13.753  11.079
63273SOL    HW191716   2.982  13.743  11.030
63273SOL    HW291717   3.036  13.754  11.171
63274SOL     OW91718   5.176   4.838   8.056
63274SOL    HW191719   5.173   4.875   8.144
63274SOL    HW291720   5.090   4.856   8.019
63275SOL     OW91721   0.048  11.589   4.520
63275SOL    HW191722  14.866  11.664   4.515
63275SOL    HW291723  14.869  11.512   4.514
63276SOL     OW91724   9.428  14.108   3.663
63276SOL    HW191725   9.384  14.062   3.591
63276SOL    HW291726   9.367  14.178   3.686
63277SOL     OW91727  10.431   5.289   0.500
63277SOL    HW191728  10.441   5.246   0.416
63277SOL    HW291729  10.520   5.307   0.529
63278SOL     OW91730   1.622   1.771   6.234
63278SOL    HW191731   1.578   1.723   6.305
63278SOL    HW291732   1.552   1.797   6.175
63279SOL     OW91733   9.986   1.500  13.633
63279SOL    HW191734   9.908   1.504  13.577
63279SOL    HW291735  10.055   1.542  13.581
63280SOL     OW91736  11.213  11.198   5.191
63280SOL    HW191737  11.260  11.147   5.125
63280SOL    HW291738  11.174  11.132   5.248
63281SOL     OW91739   5.896  11.754  12.163
63281SOL    HW191740   5.837  11.818  12.203
63281SOL    HW291741   5.973  11.754  12.220
63282SOL     OW91742   6.890   6.137  11.276
63282SOL    HW191743   6.972   6.186  11.278
63282SOL    HW291744   6.881   6.102  11.364
63283SOL     OW91745   4.775  10.465  13.147
63283SOL    HW191746   4.830  10.407  13.198
63283SOL    HW291747   4.703  10.488  13.206
63284SOL     OW91748   5.602  11.764   5.996
63284SOL    HW191749   5.613  11.670   6.009
63284SOL    HW291750   5.674  11.789   5.938
63285SOL     OW91751  11.100   6.135  12.265
63285SOL    HW191752  11.071   6.214  12.219
63285SOL    HW291753  11.193   6.151  12.283
63286SOL     OW91754   1.772   0.859   1.980
63286SOL    HW191755   1.691   0.894   2.017
63286SOL    HW291756   1.768   0.882   1.887
63287SOL     OW91757   5.315   0.170   2.556
63287SOL    HW191758   5.291   0.262   2.559
63287SOL    HW291759   5.240   0.127   2.515
63288SOL     OW91760   7.926  12.995   3.473
63288SOL    HW191761   7.907  13.078   3.516
63288SOL    HW291762   7.895  13.007   3.383
63289SOL     OW91763   0.800  11.280  14.250
63289SOL    HW191764   0.784  11.273  14.156
63289SOL    HW291765   0.820  11.373  14.263
63290SOL     OW91766   8.258  14.247   2.254
63290SOL    HW191767   8.304  14.259   2.337
63290SOL    HW291768   8.235  14.154   2.252
63291SOL     OW91769   2.250   0.836   8.908
63291SOL    HW191770   2.243   0.783   8.828
63291SOL    HW291771   2.314   0.904   8.886
63292SOL     OW91772   6.356   6.275  11.321
63292SOL    HW191773   6.372   6.292  11.228
63292SOL    HW291774   6.444   6.277  11.360
63293SOL     OW91775   4.719   8.983   2.600
63293SOL    HW191776   4.628   9.003   2.579
63293SOL    HW291777   4.739   9.036   2.677
63294SOL     OW91778  10.648  10.032   9.028
63294SOL    HW191779  10.733  10.074   9.043
63294SOL    HW291780  10.670   9.946   8.991
63295SOL     OW91781   9.907   4.530   6.822
63295SOL    HW191782   9.892   4.468   6.751
63295SOL    HW291783   9.976   4.588   6.789
63296SOL     OW91784   3.281  14.000   1.213
63296SOL    HW191785   3.337  13.923   1.205
63296SOL    HW291786   3.333  14.071   1.175
63297SOL     OW91787   1.995   3.070   4.209
63297SOL    HW191788   2.021   3.102   4.122
63297SOL    HW291789   1.926   3.005   4.190
63298SOL     OW91790  13.712   8.217  12.330
63298SOL    HW191791  13.776   8.269  12.281
63298SOL    HW291792  13.738   8.126  12.314
63299SOL     OW91793   3.742   2.978  10.706
63299SOL    HW191794   3.820   3.012  10.750
63299SOL    HW291795   3.763   2.984  10.613
63300SOL     OW91796   7.632   3.820   2.813
63300SOL    HW191797   7.568   3.821   2.884
63300SOL    HW291798   7.584   3.785   2.738
63301SOL     OW91799   6.706  11.233   2.713
63301SOL    HW191800   6.731  11.303   2.773
63301SOL    HW291801   6.734  11.264   2.626
63302SOL     OW91802   6.956  14.457   7.606
63302SOL    HW191803   6.889  14.392   7.583
63302SOL    HW291804   7.039  14.410   7.599
63303SOL     OW91805  14.616   4.576   1.162
63303SOL    HW191806  14.605   4.671   1.165
63303SOL    HW291807  14.600   4.546   1.252
63304SOL     OW91808   3.520  13.912  13.120
63304SOL    HW191809   3.442  13.940  13.073
63304SOL    HW291810   3.557  13.842  13.066
63305SOL     OW91811   8.839   7.524  13.451
63305SOL    HW191812   8.912   7.462  13.458
63305SOL    HW291813   8.789   7.510  13.531
63306SOL     OW91814   0.352   1.345   5.519
63306SOL    HW191815   0.258   1.360   5.522
63306SOL    HW291816   0.367   1.277   5.584
63307SOL     OW91817  13.729   7.309   3.749
63307SOL    HW191818  13.729   7.312   3.844
63307SOL    HW291819  13.821   7.311   3.725
63308SOL     OW91820   8.819   6.788  14.410
63308SOL    HW191821   8.802   6.707  14.458
63308SOL    HW291822   8.772   6.777  14.327
63309SOL     OW91823   4.209   0.988  10.063
63309SOL    HW191824   4.248   1.040   9.994
63309SOL    HW291825   4.263   0.909  10.068
63310SOL     OW91826   2.889  10.981   6.618
63310SOL    HW191827   2.915  11.061   6.663
63310SOL    HW291828   2.960  10.964   6.556
63311SOL     OW91829   6.028  10.643   7.970
63311SOL    HW191830   6.025  10.737   7.953
63311SOL    HW291831   6.120  10.620   7.964
63312SOL     OW91832   3.011   4.998   8.802
63312SOL    HW191833   2.998   5.078   8.752
63312SOL    HW291834   3.004   5.025   8.893
63313SOL     OW91835   4.244   8.222   2.112
63313SOL    HW191836   4.309   8.168   2.067
63313SOL    HW291837   4.165   8.169   2.111
63314SOL     OW91838   0.873  12.395   8.704
63314SOL    HW191839   0.820  12.328   8.748
63314SOL    HW291840   0.954  12.350   8.681
63315SOL     OW91841   8.650  13.006   5.071
63315SOL    HW191842   8.583  13.069   5.046
63315SOL    HW291843   8.724  13.027   5.015
63316SOL     OW91844   2.220   0.589   3.824
63316SOL    HW191845   2.266   0.672   3.832
63316SOL    HW291846   2.263   0.531   3.888
63317SOL     OW91847  13.350  14.864   5.010
63317SOL    HW191848  13.397  14.800   4.957
63317SOL    HW291849  13.281   0.019   4.953
63318SOL     OW91850  12.680  13.551  11.427
63318SOL    HW191851  12.730  13.609  11.484
63318SOL    HW291852  12.590  13.558  11.458
63319SOL     OW91853   1.044   2.550  14.204
63319SOL    HW191854   1.132   2.528  14.231
63319SOL    HW291855   1.000   2.466  14.192
63320SOL     OW91856   1.227   2.418   4.148
63320SOL    HW191857   1.305   2.368   4.172
63320SOL    HW291858   1.199   2.379   4.065
63321SOL     OW91859  11.392  14.258  14.769
63321SOL    HW191860  11.444  14.283  14.846
63321SOL    HW291861  11.456  14.223  14.707
63322SOL     OW91862   3.994  14.873  12.585
63322SOL    HW191863   3.914   0.047  12.571
63322SOL    HW291864   4.014   0.006  12.678
63323SOL     OW91865  10.992   4.344   6.423
63323SOL    HW191866  11.059   4.394   6.469
63323SOL    HW291867  10.909   4.381   6.452
63324SOL     OW91868   4.327  13.608   8.684
63324SOL    HW191869   4.264  13.606   8.611
63324SOL    HW291870   4.305  13.532   8.737
63325SOL     OW91871  14.714   0.372  12.708
63325SOL    HW191872  14.671   0.414  12.633
63325SOL    HW291873  14.795   0.337  12.672
63326SOL     OW91874   9.670   8.895  13.735
63326SOL    HW191875   9.664   8.885  13.640
63326SOL    HW291876   9.683   8.806  13.768
63327SOL     OW91877   4.850   2.821   2.933
63327SOL    HW191878   4.864   2.745   2.876
63327SOL    HW291879   4.937   2.857   2.946
63328SOL     OW91880   6.331  12.155   7.242
63328SOL    HW191881   6.351  12.137   7.151
63328SOL    HW291882   6.403  12.116   7.292
63329SOL     OW91883  14.343  11.409  10.461
63329SOL    HW191884  14.261  11.444  10.426
63329SOL    HW291885  14.409  11.435  10.397
63330SOL     OW91886   1.327  14.494   5.909
63330SOL    HW191887   1.349  14.469   5.819
63330SOL    HW291888   1.253  14.439   5.932
63331SOL     OW91889   1.202   9.997   1.549
63331SOL    HW191890   1.265  10.042   1.605
63331SOL    HW291891   1.249   9.919   1.518
63332SOL     OW91892   3.971   0.212  12.932
63332SOL    HW191893   3.936   0.299  12.911
63332SOL    HW291894   3.956   0.202  13.026
63333SOL     OW91895   5.419   3.627  10.281
63333SOL    HW191896   5.442   3.656  10.193
63333SOL    HW291897   5.343   3.570  10.268
63334SOL     OW91898  11.456  12.470  13.490
63334SOL    HW191899  11.506  12.552  13.485
63334SOL    HW291900  11.365  12.499  13.500
63335SOL     OW91901   0.433  14.399  10.596
63335SOL    HW191902   0.527  14.419  10.594
63335SOL    HW291903   0.429  14.304  10.599
63336SOL     OW91904  11.124  14.423   6.215
63336SOL    HW191905  11.171  14.411   6.298
63336SOL    HW291906  11.032  14.409   6.237
63337SOL     OW91907  13.152   8.081   3.293
63337SOL    HW191908  13.179   8.057   3.381
63337SOL    HW291909  13.121   7.999   3.254
63338SOL     OW91910   5.301   9.443   7.374
63338SOL    HW191911   5.269   9.408   7.457
63338SOL    HW291912   5.327   9.533   7.394
63339SOL     OW91913   0.085   8.027   2.857
63339SOL    HW191914   0.158   8.089   2.867
63339SOL    HW291915   0.109   7.953   2.912
63340SOL     OW91916   8.528   1.886   4.614
63340SOL    HW191917   8.525   1.860   4.706
63340SOL    HW291918   8.620   1.875   4.589
63341SOL     OW91919  12.138  10.645   4.813
63341SOL    HW191920  12.233  10.658   4.823
63341SOL    HW291921  12.114  10.705   4.743
63342SOL     OW91922  11.780   0.709   0.394
63342SOL    HW191923  11.833   0.783   0.422
63342SOL    HW291924  11.730   0.742   0.319
63343SOL     OW91925  11.617   7.995   8.801
63343SOL    HW191926  11.534   8.022   8.760
63343SOL    HW291927  11.682   8.006   8.732
63344SOL     OW91928   5.522   2.736   0.204
63344SOL    HW191929   5.477   2.653   0.197
63344SOL    HW291930   5.514   2.761   0.296
63345SOL     OW91931  12.008  14.227   3.656
63345SOL    HW191932  11.949  14.299   3.633
63345SOL    HW291933  11.950  14.161   3.695
63346SOL     OW91934  11.045   2.381  14.118
63346SOL    HW191935  11.017   2.320  14.050
63346SOL    HW291936  11.017   2.467  14.086
63347SOL     OW91937   5.711  10.337  12.473
63347SOL    HW191938   5.781  10.383  12.427
63347SOL    HW291939   5.630  10.365  12.430
63348SOL     OW91940   6.675  11.117  11.151
63348SOL    HW191941   6.664  11.209  11.173
63348SOL    HW291942   6.641  11.070  11.226
63349SOL     OW91943  10.589  12.161   1.329
63349SOL    HW191944  10.583  12.216   1.251
63349SOL    HW291945  10.662  12.198   1.379
63350SOL     OW91946   7.164   9.891   4.770
63350SOL    HW191947   7.076   9.855   4.782
63350SOL    HW291948   7.179   9.888   4.676
63351SOL     OW91949  13.933  12.202   3.126
63351SOL    HW191950  13.919  12.109   3.140
63351SOL    HW291951  14.014  12.207   3.076
63352SOL     OW91952   3.489   7.590  10.233
63352SOL    HW191953   3.577   7.625  10.246
63352SOL    HW291954   3.431   7.665  10.243
63353SOL     OW91955  12.550   4.992  13.244
63353SOL    HW191956  12.501   5.022  13.168
63353SOL    HW291957  12.531   4.898  13.250
63354SOL     OW91958   3.079  13.832   9.156
63354SOL    HW191959   3.018  13.785   9.213
63354SOL    HW291960   3.047  13.923   9.158
63355SOL     OW91961   3.148   9.136   3.574
63355SOL    HW191962   3.147   9.041   3.580
63355SOL    HW291963   3.077   9.164   3.633
63356SOL     OW91964  12.299   9.443  13.395
63356SOL    HW191965  12.307   9.398  13.479
63356SOL    HW291966  12.372   9.504  13.393
63357SOL     OW91967   3.291  12.442   3.206
63357SOL    HW191968   3.320  12.420   3.295
63357SOL    HW291969   3.368  12.480   3.164
63358SOL     OW91970   7.095   5.599   4.769
63358SOL    HW191971   7.075   5.657   4.695
63358SOL    HW291972   7.163   5.645   4.818
63359SOL     OW91973   2.912   8.387  12.563
63359SOL    HW191974   2.965   8.358  12.637
63359SOL    HW291975   2.830   8.417  12.602
63360SOL     OW91976   1.344   2.180  13.319
63360SOL    HW191977   1.299   2.236  13.382
63360SOL    HW291978   1.276   2.122  13.285
63361SOL     OW91979   6.829  14.474  11.029
63361SOL    HW191980   6.836  14.565  11.002
63361SOL    HW291981   6.907  14.459  11.083
63362SOL     OW91982  12.025   1.956   7.816
63362SOL    HW191983  11.935   1.939   7.844
63362SOL    HW291984  12.017   1.995   7.729
63363SOL     OW91985  13.370   8.532   1.061
63363SOL    HW191986  13.411   8.617   1.081
63363SOL    HW291987  13.429   8.491   0.997
63364SOL     OW91988   4.016   4.942   0.969
63364SOL    HW191989   4.101   4.903   0.949
63364SOL    HW291990   3.980   4.965   0.883
63365SOL     OW91991  10.589   9.414   7.267
63365SOL    HW191992  10.537   9.343   7.306
63365SOL    HW291993  10.568   9.411   7.174
63366SOL     OW91994  13.297   9.617   4.483
63366SOL    HW191995  13.301   9.568   4.401
63366SOL    HW291996  13.342   9.699   4.465
63367SOL     OW91997   0.259  12.609  14.698
63367SOL    HW191998   0.277  12.518  14.719
63367SOL    HW291999   0.182  12.606  14.641
63368SOL     OW92000   0.032   1.243   7.202
63368SOL    HW192001   0.089   1.269   7.129
63368SOL    HW292002  14.875   1.326   7.236
63369SOL     OW92003   0.651   2.438   9.263
63369SOL    HW192004   0.656   2.379   9.188
63369SOL    HW292005   0.643   2.381   9.339
63370SOL     OW92006  11.048   9.844   9.152
63370SOL    HW192007  11.029   9.841   9.246
63370SOL    HW292008  11.050   9.937   9.130
63371SOL     OW92009   4.295   0.427   7.648
63371SOL    HW192010   4.260   0.341   7.625
63371SOL    HW292011   4.297   0.474   7.565
63372SOL     OW92012   6.655  13.921   7.180
63372SOL    HW192013   6.600  13.932   7.258
63372SOL    HW292014   6.622  13.987   7.118
63373SOL     OW92015   8.871   0.933   8.824
63373SOL    HW192016   8.896   0.883   8.902
63373SOL    HW292017   8.777   0.920   8.816
63374SOL     OW92018  11.943  14.037   8.634
63374SOL    HW192019  11.889  13.989   8.697
63374SOL    HW292020  11.886  14.052   8.559
63375SOL     OW92021  12.641  11.788   4.662
63375SOL    HW192022  12.658  11.848   4.734
63375SOL    HW292023  12.596  11.841   4.597
63376SOL     OW92024   4.721   2.096  13.332
63376SOL    HW192025   4.774   2.094  13.253
63376SOL    HW292026   4.644   2.147  13.308
63377SOL     OW92027   4.813  10.945   1.874
63377SOL    HW192028   4.853  10.934   1.960
63377SOL    HW292029   4.888  10.950   1.814
63378SOL     OW92030   8.383   0.231   0.229
63378SOL    HW192031   8.479   0.229   0.240
63378SOL    HW292032   8.370   0.240   0.135
63379SOL     OW92033   7.279   4.419   2.782
63379SOL    HW192034   7.187   4.391   2.776
63379SOL    HW292035   7.282   4.501   2.733
63380SOL     OW92036  12.653  10.633   5.791
63380SOL    HW192037  12.692  10.574   5.727
63380SOL    HW292038  12.720  10.642   5.859
63381SOL     OW92039   7.518   4.812  13.471
63381SOL    HW192040   7.496   4.904  13.489
63381SOL    HW292041   7.610   4.813  13.448
63382SOL     OW92042   6.074  10.396   0.233
63382SOL    HW192043   6.079  10.368   0.141
63382SOL    HW292044   6.003  10.343   0.270
63383SOL     OW92045   3.836   6.068  12.899
63383SOL    HW192046   3.784   6.007  12.952
63383SOL    HW292047   3.907   6.015  12.863
63384SOL     OW92048  14.210  14.034   9.054
63384SOL    HW192049  14.117  14.015   9.060
63384SOL    HW292050  14.247  14.000   9.135
63385SOL     OW92051  11.687  11.422   7.390
63385SOL    HW192052  11.686  11.329   7.413
63385SOL    HW292053  11.656  11.466   7.469
63386SOL     OW92054   5.282   2.236  12.176
63386SOL    HW192055   5.295   2.329  12.154
63386SOL    HW292056   5.220   2.237  12.249
63387SOL     OW92057   8.333  13.197   8.179
63387SOL    HW192058   8.385  13.258   8.232
63387SOL    HW292059   8.397  13.148   8.128
63388SOL     OW92060   7.238   2.648  10.931
63388SOL    HW192061   7.291   2.654  10.851
63388SOL    HW292062   7.174   2.579  10.912
63389SOL     OW92063   7.282   6.981   0.408
63389SOL    HW192064   7.222   6.916   0.374
63389SOL    HW292065   7.368   6.938   0.406
63390SOL     OW92066   3.987   0.949   3.731
63390SOL    HW192067   4.000   0.886   3.802
63390SOL    HW292068   4.022   1.031   3.764
63391SOL     OW92069   3.399   6.611  12.542
63391SOL    HW192070   3.313   6.608  12.500
63391SOL    HW292071   3.402   6.532  12.595
63392SOL     OW92072  10.187   4.894   8.329
63392SOL    HW192073  10.278   4.922   8.337
63392SOL    HW292074  10.178   4.825   8.396
63393SOL     OW92075   2.055  11.881   9.822
63393SOL    HW192076   2.137  11.843   9.854
63393SOL    HW292077   2.071  11.976   9.823
63394SOL     OW92078   7.549   4.630   0.368
63394SOL    HW192079   7.493   4.685   0.314
63394SOL    HW292080   7.632   4.626   0.320
63395SOL     OW92081  11.245  11.392   8.660
63395SOL    HW192082  11.266  11.334   8.587
63395SOL    HW292083  11.323  11.446   8.671
63396SOL     OW92084  11.588   2.873   7.029
63396SOL    HW192085  11.672   2.828   7.034
63396SOL    HW292086  11.548   2.841   6.948
63397SOL     OW92087   1.613   3.239   5.241
63397SOL    HW192088   1.696   3.232   5.192
63397SOL    HW292089   1.560   3.166   5.208
63398SOL     OW92090   6.136   9.127   8.074
63398SOL    HW192091   6.220   9.160   8.042
63398SOL    HW292092   6.154   9.097   8.163
63399SOL     OW92093   8.991   5.827   3.802
63399SOL    HW192094   8.985   5.914   3.763
63399SOL    HW292095   8.906   5.813   3.842
63400SOL     OW92096   1.188   8.242   2.375
63400SOL    HW192097   1.254   8.188   2.419
63400SOL    HW292098   1.206   8.230   2.282
63401SOL     OW92099   3.224  10.482   3.212
63401SOL    HW192100   3.320  10.493   3.216
63401SOL    HW292101   3.194  10.559   3.164
63402SOL     OW92102  10.068   3.095   0.212
63402SOL    HW192103  10.021   3.111   0.293
63402SOL    HW292104  10.007   3.046   0.158
63403SOL     OW92105  10.057   7.220  14.374
63403SOL    HW192106  10.122   7.166  14.328
63403SOL    HW292107   9.979   7.217  14.318
63404SOL     OW92108   8.324   7.335   7.628
63404SOL    HW192109   8.305   7.314   7.537
63404SOL    HW292110   8.247   7.384   7.658
63405SOL     OW92111   2.965  10.080  10.675
63405SOL    HW192112   3.025  10.007  10.658
63405SOL    HW292113   3.017  10.143  10.726
63406SOL     OW92114   6.775   6.774   4.061
63406SOL    HW192115   6.763   6.719   3.984
63406SOL    HW292116   6.685   6.799   4.086
63407SOL     OW92117   3.253   0.558  14.768
63407SOL    HW192118   3.275   0.497  14.839
63407SOL    HW292119   3.334   0.567  14.718
63408SOL     OW92120  13.152   7.667  10.035
63408SOL    HW192121  13.105   7.702  10.111
63408SOL    HW292122  13.245   7.673  10.059
63409SOL     OW92123   0.655  10.107  12.394
63409SOL    HW192124   0.599  10.137  12.465
63409SOL    HW292125   0.606  10.130  12.314
63410SOL     OW92126  13.700  14.739   0.017
63410SOL    HW192127  13.670  14.824   0.048
63410SOL    HW292128  13.709  14.750  14.800
63411SOL     OW92129  11.070   9.681   4.894
63411SOL    HW192130  11.117   9.609   4.934
63411SOL    HW292131  10.990   9.691   4.946
63412SOL     OW92132   1.667  14.527   1.592
63412SOL    HW192133   1.712  14.446   1.566
63412SOL    HW292134   1.731  14.574   1.644
63413SOL     OW92135  11.699   7.162  13.230
63413SOL    HW192136  11.730   7.099  13.295
63413SOL    HW292137  11.605   7.145  13.224
63414SOL     OW92138  13.341   0.456   6.588
63414SOL    HW192139  13.298   0.423   6.509
63414SOL    HW292140  13.396   0.528   6.557
63415SOL     OW92141  12.658   8.849   1.110
63415SOL    HW192142  12.729   8.796   1.144
63415SOL    HW292143  12.673   8.853   1.016
63416SOL     OW92144   1.669   1.189   7.104
63416SOL    HW192145   1.693   1.253   7.171
63416SOL    HW292146   1.752   1.152   7.075
63417SOL     OW92147   7.924   7.261  10.429
63417SOL    HW192148   7.945   7.353  10.439
63417SOL    HW292149   7.894   7.253  10.338
63418SOL     OW92150  10.062   4.730  11.547
63418SOL    HW192151  10.022   4.656  11.592
63418SOL    HW292152  10.155   4.710  11.545
63419SOL     OW92153   1.965   1.824  14.013
63419SOL    HW192154   1.927   1.861  14.093
63419SOL    HW292155   1.933   1.881  13.943
63420SOL     OW92156  13.203  10.987   1.212
63420SOL    HW192157  13.188  10.958   1.301
63420SOL    HW292158  13.117  10.985   1.171
63421SOL     OW92159   9.690   0.153   8.126
63421SOL    HW192160   9.660   0.242   8.108
63421SOL    HW292161   9.742   0.130   8.049
63422SOL     OW92162   3.990   8.068   0.886
63422SOL    HW192163   3.980   8.084   0.980
63422SOL    HW292164   3.933   7.993   0.868
63423SOL     OW92165   7.117  11.739   7.974
63423SOL    HW192166   7.194  11.687   7.999
63423SOL    HW292167   7.049  11.714   8.036
63424SOL     OW92168   3.838   7.996   0.290
63424SOL    HW192169   3.813   8.038   0.372
63424SOL    HW292170   3.768   7.933   0.272
63425SOL     OW92171   0.551   9.912   4.012
63425SOL    HW192172   0.472   9.919   3.959
63425SOL    HW292173   0.623   9.912   3.949
63426SOL     OW92174   6.866  13.295   4.523
63426SOL    HW192175   6.776  13.305   4.554
63426SOL    HW292176   6.917  13.357   4.575
63427SOL     OW92177   4.280   9.650  14.507
63427SOL    HW192178   4.245   9.731  14.470
63427SOL    HW292179   4.256   9.583  14.443
63428SOL     OW92180  12.725   9.555   1.045
63428SOL    HW192181  12.729   9.651   1.055
63428SOL    HW292182  12.772   9.521   1.121
63429SOL     OW92183   7.570   6.004   1.606
63429SOL    HW192184   7.622   5.969   1.534
63429SOL    HW292185   7.496   5.944   1.614
63430SOL     OW92186   9.016   4.185   3.790
63430SOL    HW192187   9.093   4.191   3.846
63430SOL    HW292188   9.009   4.270   3.748
63431SOL     OW92189  12.319   8.882  10.485
63431SOL    HW192190  12.229   8.911  10.468
63431SOL    HW292191  12.310   8.789  10.508
63432SOL     OW92192   3.470  11.562   6.522
63432SOL    HW192193   3.385  11.540   6.484
63432SOL    HW292194   3.512  11.477   6.536
63433SOL     OW92195   0.442   7.531   1.513
63433SOL    HW192196   0.428   7.466   1.443
63433SOL    HW292197   0.377   7.508   1.580
63434SOL     OW92198  11.146   5.344  13.503
63434SOL    HW192199  11.065   5.349  13.453
63434SOL    HW292200  11.178   5.435  13.506
63435SOL     OW92201   1.737   6.734  12.367
63435SOL    HW192202   1.782   6.707  12.448
63435SOL    HW292203   1.644   6.735  12.390
63436SOL     OW92204  10.439   2.208   7.755
63436SOL    HW192205  10.366   2.233   7.698
63436SOL    HW292206  10.434   2.270   7.828
63437SOL     OW92207   4.987   2.745  13.774
63437SOL    HW192208   5.036   2.702  13.704
63437SOL    HW292209   4.896   2.741  13.746
63438SOL     OW92210   1.463   6.501   0.906
63438SOL    HW192211   1.526   6.476   0.973
63438SOL    HW292212   1.505   6.573   0.858
63439SOL     OW92213   8.762   4.116   4.055
63439SOL    HW192214   8.740   4.183   3.990
63439SOL    HW292215   8.793   4.166   4.131
63440SOL     OW92216   1.024   8.570   6.555
63440SOL    HW192217   0.992   8.641   6.500
63440SOL    HW292218   1.075   8.614   6.623
63441SOL     OW92219   9.284  14.651   1.493
63441SOL    HW192220   9.243  14.735   1.511
63441SOL    HW292221   9.288  14.647   1.397
63442SOL     OW92222   7.152   5.781   8.701
63442SOL    HW192223   7.130   5.702   8.651
63442SOL    HW292224   7.067   5.823   8.717
63443SOL     OW92225   0.304   2.715   5.333
63443SOL    HW192226   0.287   2.624   5.360
63443SOL    HW292227   0.248   2.768   5.390
63444SOL     OW92228   0.091   7.629   3.666
63444SOL    HW192229   0.026   7.697   3.681
63444SOL    HW292230   0.043   7.546   3.676
63445SOL     OW92231   8.461  10.159   2.828
63445SOL    HW192232   8.421  10.169   2.742
63445SOL    HW292233   8.411  10.218   2.885
63446SOL     OW92234  13.390   5.269   5.156
63446SOL    HW192235  13.423   5.271   5.246
63446SOL    HW292236  13.303   5.232   5.162
63447SOL     OW92237   2.579   0.690   5.447
63447SOL    HW192238   2.589   0.611   5.500
63447SOL    HW292239   2.537   0.753   5.506
63448SOL     OW92240  14.501  12.861  14.441
63448SOL    HW192241  14.522  12.899  14.355
63448SOL    HW292242  14.407  12.844  14.437
63449SOL     OW92243   1.672   7.526   4.377
63449SOL    HW192244   1.683   7.611   4.335
63449SOL    HW292245   1.621   7.544   4.456
63450SOL     OW92246  10.675  12.892  11.687
63450SOL    HW192247  10.664  12.852  11.773
63450SOL    HW292248  10.754  12.945  11.695
63451SOL     OW92249  13.568   9.153   6.256
63451SOL    HW192250  13.485   9.171   6.210
63451SOL    HW292251  13.625   9.226   6.232
63452SOL     OW92252  10.003   3.612  10.362
63452SOL    HW192253   9.911   3.612  10.389
63452SOL    HW292254  10.026   3.520  10.354
63453SOL     OW92255   9.428   9.912  10.090
63453SOL    HW192256   9.520   9.898  10.066
63453SOL    HW292257   9.385   9.829  10.071
63454SOL     OW92258   2.036   5.766  14.870
63454SOL    HW192259   2.057   5.718   0.073
63454SOL    HW292260   1.956   5.815   0.014
63455SOL     OW92261   2.740   0.923   0.879
63455SOL    HW192262   2.694   0.968   0.808
63455SOL    HW292263   2.721   0.830   0.865
63456SOL     OW92264   7.018   6.579  12.532
63456SOL    HW192265   7.094   6.592  12.589
63456SOL    HW292266   6.979   6.497  12.561
63457SOL     OW92267   5.096   4.128   2.152
63457SOL    HW192268   5.018   4.093   2.195
63457SOL    HW292269   5.062   4.190   2.087
63458SOL     OW92270   0.091   4.633   1.817
63458SOL    HW192271   0.148   4.667   1.748
63458SOL    HW292272   0.125   4.546   1.836
63459SOL     OW92273   7.346   8.097   6.288
63459SOL    HW192274   7.372   8.053   6.369
63459SOL    HW292275   7.321   8.185   6.315
63460SOL     OW92276   8.564  13.954  14.267
63460SOL    HW192277   8.594  13.932  14.179
63460SOL    HW292278   8.644  13.956  14.320
63461SOL     OW92279   9.234  10.094   3.311
63461SOL    HW192280   9.261  10.038   3.238
63461SOL    HW292281   9.245  10.038   3.388
63462SOL     OW92282  11.376   2.408   6.717
63462SOL    HW192283  11.340   2.479   6.664
63462SOL    HW292284  11.324   2.331   6.693
63463SOL     OW92285  12.673  10.571   7.608
63463SOL    HW192286  12.649  10.511   7.537
63463SOL    HW292287  12.637  10.530   7.687
63464SOL     OW92288  14.168  14.334   5.401
63464SOL    HW192289  14.075  14.319   5.421
63464SOL    HW292290  14.193  14.407   5.458
63465SOL     OW92291  12.163   7.643   5.455
63465SOL    HW192292  12.224   7.571   5.439
63465SOL    HW292293  12.210   7.702   5.513
63466SOL     OW92294   1.549  12.521   4.348
63466SOL    HW192295   1.615  12.466   4.307
63466SOL    HW292296   1.574  12.610   4.324
63467SOL     OW92297   1.576  13.925   6.723
63467SOL    HW192298   1.585  13.833   6.698
63467SOL    HW292299   1.653  13.967   6.686
63468SOL     OW92300  14.009   0.009   0.628
63468SOL    HW192301  14.014   0.005   0.532
63468SOL    HW292302  13.916  14.874   0.648
63469SOL     OW92303  12.886   4.847  13.454
63469SOL    HW192304  12.968   4.840  13.504
63469SOL    HW292305  12.854   4.757  13.447
63470SOL     OW92306  10.950  12.154  10.197
63470SOL    HW192307  10.875  12.205  10.230
63470SOL    HW292308  10.943  12.070  10.242
63471SOL     OW92309   6.203   0.745  11.196
63471SOL    HW192310   6.288   0.716  11.161
63471SOL    HW292311   6.225   0.811  11.261
63472SOL     OW92312   5.993  12.077   7.758
63472SOL    HW192313   6.045  12.006   7.795
63472SOL    HW292314   5.904  12.041   7.750
63473SOL     OW92315  10.882   3.633   2.638
63473SOL    HW192316  10.960   3.631   2.582
63473SOL    HW292317  10.910   3.592   2.720
63474SOL     OW92318  13.626   7.195  11.160
63474SOL    HW192319  13.713   7.223  11.187
63474SOL    HW292320  13.607   7.249  11.083
63475SOL     OW92321   6.615   1.911   5.180
63475SOL    HW192322   6.648   1.829   5.143
63475SOL    HW292323   6.531   1.888   5.219
63476SOL     OW92324   8.513   2.917   1.035
63476SOL    HW192325   8.528   2.823   1.024
63476SOL    HW292326   8.419   2.928   1.017
63477SOL     OW92327   8.435   8.046   1.960
63477SOL    HW192328   8.391   8.076   2.040
63477SOL    HW292329   8.528   8.050   1.981
63478SOL     OW92330   1.869   4.895   2.158
63478SOL    HW192331   1.940   4.927   2.214
63478SOL    HW292332   1.802   4.863   2.220
63479SOL     OW92333   5.100   7.457   0.035
63479SOL    HW192334   5.060   7.488   0.117
63479SOL    HW292335   5.027   7.451  14.851
63480SOL     OW92336   3.640   3.532  12.237
63480SOL    HW192337   3.592   3.597  12.289
63480SOL    HW292338   3.710   3.582  12.195
63481SOL     OW92339   3.348  14.243   7.790
63481SOL    HW192340   3.288  14.169   7.775
63481SOL    HW292341   3.422  14.226   7.731
63482SOL     OW92342   8.667   2.220   5.300
63482SOL    HW192343   8.631   2.305   5.323
63482SOL    HW292344   8.703   2.232   5.212
63483SOL     OW92345   4.088   8.685  10.799
63483SOL    HW192346   4.109   8.683  10.705
63483SOL    HW292347   4.005   8.732  10.804
63484SOL     OW92348   1.682   6.318  10.719
63484SOL    HW192349   1.643   6.373  10.787
63484SOL    HW292350   1.717   6.380  10.655
63485SOL     OW92351  13.553  11.890  13.940
63485SOL    HW192352  13.465  11.855  13.928
63485SOL    HW292353  13.611  11.817  13.919
63486SOL     OW92354   8.186   3.661   2.027
63486SOL    HW192355   8.199   3.569   2.049
63486SOL    HW292356   8.262   3.685   1.974
63487SOL     OW92357   6.028   6.435   5.042
63487SOL    HW192358   5.942   6.401   5.067
63487SOL    HW292359   6.062   6.370   4.981
63488SOL     OW92360  12.458   6.581   0.963
63488SOL    HW192361  12.525   6.646   0.943
63488SOL    HW292362  12.478   6.507   0.905
63489SOL     OW92363   6.774  12.322  10.094
63489SOL    HW192364   6.720  12.290  10.022
63489SOL    HW292365   6.846  12.259  10.100
63490SOL     OW92366  11.448   8.548   0.735
63490SOL    HW192367  11.397   8.564   0.656
63490SOL    HW292368  11.441   8.454   0.750
63491SOL     OW92369   8.943  14.318   5.984
63491SOL    HW192370   8.984  14.238   5.949
63491SOL    HW292371   8.873  14.338   5.922
63492SOL     OW92372   4.129  14.269   6.353
63492SOL    HW192373   4.171  14.340   6.304
63492SOL    HW292374   4.101  14.207   6.286
63493SOL     OW92375   2.950   6.062   6.184
63493SOL    HW192376   3.005   6.000   6.136
63493SOL    HW292377   2.870   6.013   6.205
63494SOL     OW92378   1.836   8.742   9.630
63494SOL    HW192379   1.820   8.667   9.686
63494SOL    HW292380   1.805   8.817   9.681
63495SOL     OW92381   0.631   4.639   5.585
63495SOL    HW192382   0.688   4.714   5.564
63495SOL    HW292383   0.661   4.569   5.526
63496SOL     OW92384   5.143   9.217   0.898
63496SOL    HW192385   5.104   9.133   0.923
63496SOL    HW292386   5.225   9.221   0.947
63497SOL     OW92387   4.986   3.045   1.718
63497SOL    HW192388   5.070   3.006   1.692
63497SOL    HW292389   5.010   3.120   1.772
63498SOL     OW92390   1.227  13.213   8.762
63498SOL    HW192391   1.218  13.300   8.800
63498SOL    HW292392   1.301  13.220   8.702
63499SOL     OW92393   3.368  11.503  11.921
63499SOL    HW192394   3.456  11.469  11.903
63499SOL    HW292395   3.379  11.598  11.923
63500SOL     OW92396  14.594   0.148  14.563
63500SOL    HW192397  14.663   0.214  14.558
63500SOL    HW292398  14.550   0.165  14.646
63501SOL     OW92399  11.515  12.198  11.692
63501SOL    HW192400  11.436  12.159  11.731
63501SOL    HW292401  11.557  12.244  11.765
63502SOL     OW92402   2.328  14.101   1.562
63502SOL    HW192403   2.372  14.038   1.506
63502SOL    HW292404   2.384  14.178   1.561
63503SOL     OW92405  10.051   9.819  13.009
63503SOL    HW192406  10.104   9.767  13.068
63503SOL    HW292407  10.094   9.810  12.924
63504SOL     OW92408   7.628  11.527   4.333
63504SOL    HW192409   7.567  11.545   4.262
63504SOL    HW292410   7.713  11.553   4.299
63505SOL     OW92411   1.590   3.222   8.164
63505SOL    HW192412   1.620   3.162   8.096
63505SOL    HW292413   1.554   3.297   8.116
63506SOL     OW92414   3.351  14.774   3.434
63506SOL    HW192415   3.291  14.753   3.505
63506SOL    HW292416   3.394  14.691   3.413
63507SOL     OW92417   9.051   8.401   1.461
63507SOL    HW192418   9.126   8.460   1.468
63507SOL    HW292419   8.975   8.456   1.478
63508SOL     OW92420   5.904   5.076  13.353
63508SOL    HW192421   5.924   5.155  13.301
63508SOL    HW292422   5.990   5.044  13.381
63509SOL     OW92423   3.889   2.801  13.021
63509SOL    HW192424   3.949   2.765  13.085
63509SOL    HW292425   3.859   2.725  12.970
63510SOL     OW92426  10.533   4.034  11.948
63510SOL    HW192427  10.443   4.053  11.975
63510SOL    HW292428  10.545   3.941  11.967
63511SOL     OW92429   6.903   8.459   3.042
63511SOL    HW192430   6.935   8.450   3.132
63511SOL    HW292431   6.950   8.534   3.007
63512SOL     OW92432   5.810   8.036   9.185
63512SOL    HW192433   5.820   7.986   9.104
63512SOL    HW292434   5.801   7.969   9.253
63513SOL     OW92435   4.837   1.643  11.421
63513SOL    HW192436   4.855   1.702  11.494
63513SOL    HW292437   4.922   1.603  11.401
63514SOL     OW92438   2.498   3.858  11.631
63514SOL    HW192439   2.517   3.784  11.688
63514SOL    HW292440   2.584   3.883  11.595
63515SOL     OW92441   4.097  11.441  11.161
63515SOL    HW192442   4.090  11.427  11.066
63515SOL    HW292443   4.162  11.377  11.189
63516SOL     OW92444  14.692  13.017  12.183
63516SOL    HW192445  14.779  13.014  12.143
63516SOL    HW292446  14.641  12.952  12.136
63517SOL     OW92447   3.093  13.820   5.551
63517SOL    HW192448   3.065  13.850   5.638
63517SOL    HW292449   3.186  13.841   5.548
63518SOL     OW92450   4.518   9.795  13.181
63518SOL    HW192451   4.556   9.715  13.216
63518SOL    HW292452   4.571   9.865  13.219
63519SOL     OW92453   7.726  10.067  14.724
63519SOL    HW192454   7.781   9.998  14.689
63519SOL    HW292455   7.744  10.143  14.670
63520SOL     OW92456   2.503   2.219   0.128
63520SOL    HW192457   2.538   2.233   0.216
63520SOL    HW292458   2.432   2.282   0.120
63521SOL     OW92459  11.976   6.088  14.268
63521SOL    HW192460  11.909   6.050  14.325
63521SOL    HW292461  12.002   6.016  14.211
63522SOL     OW92462   7.084   8.845   4.305
63522SOL    HW192463   7.131   8.795   4.239
63522SOL    HW292464   7.138   8.839   4.384
63523SOL     OW92465  14.797  11.665  11.661
63523SOL    HW192466  14.774  11.745  11.708
63523SOL    HW292467  14.716  11.614  11.659
63524SOL     OW92468   4.569   3.960   9.430
63524SOL    HW192469   4.639   4.005   9.382
63524SOL    HW292470   4.611   3.933   9.512
63525SOL     OW92471  10.961   7.469   2.794
63525SOL    HW192472  10.885   7.518   2.826
63525SOL    HW292473  10.944   7.455   2.701
63526SOL     OW92474   4.125   1.741   9.597
63526SOL    HW192475   4.218   1.723   9.608
63526SOL    HW292476   4.097   1.681   9.528
63527SOL     OW92477  12.292   8.678  13.178
63527SOL    HW192478  12.384   8.669  13.202
63527SOL    HW292479  12.250   8.716  13.255
63528SOL     OW92480  11.965  13.810   2.669
63528SOL    HW192481  12.011  13.886   2.633
63528SOL    HW292482  12.025  13.774   2.735
63529SOL     OW92483   4.272   3.594   3.293
63529SOL    HW192484   4.311   3.513   3.327
63529SOL    HW292485   4.290   3.591   3.199
63530SOL     OW92486   0.401   5.629   2.858
63530SOL    HW192487   0.330   5.565   2.862
63530SOL    HW292488   0.359   5.713   2.878
63531SOL     OW92489  13.331  11.993   8.055
63531SOL    HW192490  13.319  12.016   7.963
63531SOL    HW292491  13.256  11.938   8.077
63532SOL     OW92492   0.791   8.159  11.534
63532SOL    HW192493   0.741   8.082  11.561
63532SOL    HW292494   0.772   8.225  11.602
63533SOL     OW92495   7.227   9.198   0.408
63533SOL    HW192496   7.286   9.201   0.332
63533SOL    HW292497   7.241   9.282   0.451
63534SOL     OW92498   6.976  11.894  12.344
63534SOL    HW192499   6.974  11.985  12.312
63534SOL    HW292500   6.900  11.853  12.303
63535SOL     OW92501  10.958  10.944  11.071
63535SOL    HW192502  11.004  10.861  11.085
63535SOL    HW292503  10.934  10.974  11.158
63536SOL     OW92504   5.303   9.091   4.553
63536SOL    HW192505   5.233   9.155   4.559
63536SOL    HW292506   5.303   9.063   4.461
63537SOL     OW92507   1.067  12.510   4.139
63537SOL    HW192508   1.019  12.540   4.062
63537SOL    HW292509   1.153  12.551   4.132
63538SOL     OW92510   2.201   9.057   9.616
63538SOL    HW192511   2.123   9.077   9.667
63538SOL    HW292512   2.184   8.970   9.579
63539SOL     OW92513   0.760  10.658   2.295
63539SOL    HW192514   0.780  10.667   2.388
63539SOL    HW292515   0.821  10.590   2.265
63540SOL     OW92516   1.825  12.617   5.624
63540SOL    HW192517   1.822  12.687   5.689
63540SOL    HW292518   1.754  12.558   5.649
63541SOL     OW92519   8.958   5.773   2.554
63541SOL    HW192520   9.036   5.736   2.595
63541SOL    HW292521   8.987   5.795   2.465
63542SOL     OW92522   0.249   3.249  13.129
63542SOL    HW192523   0.191   3.177  13.106
63542SOL    HW292524   0.332   3.228  13.087
63543SOL     OW92525   8.449   0.684  10.441
63543SOL    HW192526   8.360   0.695  10.408
63543SOL    HW292527   8.466   0.590  10.434
63544SOL     OW92528   8.819   5.095  11.893
63544SOL    HW192529   8.898   5.132  11.852
63544SOL    HW292530   8.747   5.138  11.848
63545SOL     OW92531   9.784  13.825  14.327
63545SOL    HW192532   9.722  13.786  14.264
63545SOL    HW292533   9.851  13.865  14.272
63546SOL     OW92534  12.752  11.820  11.598
63546SOL    HW192535  12.726  11.831  11.507
63546SOL    HW292536  12.683  11.863  11.649
63547SOL     OW92537  14.115   2.162   4.502
63547SOL    HW192538  14.032   2.134   4.539
63547SOL    HW292539  14.140   2.091   4.443
63548SOL     OW92540   3.591  11.238  12.287
63548SOL    HW192541   3.597  11.143  12.279
63548SOL    HW292542   3.565  11.252  12.378
63549SOL     OW92543  11.127   8.202  10.319
63549SOL    HW192544  11.195   8.230  10.258
63549SOL    HW292545  11.066   8.276  10.322
63550SOL     OW92546   6.442   8.978  13.702
63550SOL    HW192547   6.532   8.989  13.730
63550SOL    HW292548   6.428   8.883  13.705
63551SOL     OW92549  11.171   4.187   6.622
63551SOL    HW192550  11.098   4.207   6.564
63551SOL    HW292551  11.243   4.164   6.563
63552SOL     OW92552   3.359  10.229   0.291
63552SOL    HW192553   3.417  10.252   0.219
63552SOL    HW292554   3.273  10.219   0.251
63553SOL     OW92555   7.677   2.266   7.625
63553SOL    HW192556   7.692   2.232   7.713
63553SOL    HW292557   7.598   2.222   7.594
63554SOL     OW92558   6.059   6.794   2.367
63554SOL    HW192559   6.048   6.703   2.396
63554SOL    HW292560   6.045   6.846   2.446
63555SOL     OW92561   4.239  10.851   0.965
63555SOL    HW192562   4.191  10.804   0.897
63555SOL    HW292563   4.172  10.885   1.023
63556SOL     OW92564   6.930   5.304   1.429
63556SOL    HW192565   6.907   5.388   1.388
63556SOL    HW292566   6.849   5.253   1.426
63557SOL     OW92567  12.933   8.259   4.040
63557SOL    HW192568  12.981   8.285   3.961
63557SOL    HW292569  12.889   8.178   4.015
63558SOL     OW92570   5.461  10.782   4.378
63558SOL    HW192571   5.512  10.704   4.399
63558SOL    HW292572   5.525  10.853   4.379
63559SOL     OW92573  11.616  11.579   1.698
63559SOL    HW192574  11.560  11.503   1.717
63559SOL    HW292575  11.695  11.564   1.750
63560SOL     OW92576   8.772   7.539   5.116
63560SOL    HW192577   8.825   7.495   5.183
63560SOL    HW292578   8.723   7.605   5.164
63561SOL     OW92579   8.477   8.792  13.802
63561SOL    HW192580   8.491   8.881  13.768
63561SOL    HW292581   8.544   8.781  13.869
63562SOL     OW92582   9.165   5.059  13.982
63562SOL    HW192583   9.119   4.981  14.014
63562SOL    HW292584   9.222   5.084  14.055
63563SOL     OW92585  13.004   5.328   7.609
63563SOL    HW192586  12.963   5.244   7.593
63563SOL    HW292587  13.085   5.307   7.656
63564SOL     OW92588   1.714   6.645   4.845
63564SOL    HW192589   1.737   6.735   4.869
63564SOL    HW292590   1.683   6.606   4.927
63565SOL     OW92591   1.915   7.881   2.049
63565SOL    HW192592   1.941   7.794   2.080
63565SOL    HW292593   1.996   7.932   2.055
63566SOL     OW92594   3.149  12.710  14.339
63566SOL    HW192595   3.134  12.765  14.262
63566SOL    HW292596   3.242  12.688  14.334
63567SOL     OW92597  13.342   8.656  10.868
63567SOL    HW192598  13.308   8.607  10.793
63567SOL    HW292599  13.437   8.652  10.859
63568SOL     OW92600   0.545  14.030   9.590
63568SOL    HW192601   0.531  14.118   9.625
63568SOL    HW292602   0.633  14.007   9.620
63569SOL     OW92603   2.261   4.461   7.857
63569SOL    HW192604   2.237   4.541   7.810
63569SOL    HW292605   2.302   4.406   7.790
63570SOL     OW92606   2.493   9.249  13.063
63570SOL    HW192607   2.485   9.295  12.979
63570SOL    HW292608   2.570   9.193  13.052
63571SOL     OW92609  12.187   9.836   4.920
63571SOL    HW192610  12.145   9.913   4.881
63571SOL    HW292611  12.132   9.814   4.995
63572SOL     OW92612   5.905   6.622  11.826
63572SOL    HW192613   5.832   6.605  11.885
63572SOL    HW292614   5.895   6.556  11.756
63573SOL     OW92615   1.407   0.468  12.412
63573SOL    HW192616   1.489   0.440  12.372
63573SOL    HW292617   1.431   0.545  12.465
63574SOL     OW92618   5.772   4.730   4.551
63574SOL    HW192619   5.838   4.777   4.602
63574SOL    HW292620   5.714   4.798   4.517
63575SOL     OW92621   4.873  10.217   2.930
63575SOL    HW192622   4.809  10.210   3.001
63575SOL    HW292623   4.921  10.134   2.932
63576SOL     OW92624   4.497  13.254  13.404
63576SOL    HW192625   4.486  13.165  13.371
63576SOL    HW292626   4.448  13.256  13.486
63577SOL     OW92627   4.479  13.739   8.499
63577SOL    HW192628   4.468  13.794   8.576
63577SOL    HW292629   4.473  13.650   8.532
63578SOL     OW92630   0.884   2.888  12.180
63578SOL    HW192631   0.872   2.805  12.134
63578SOL    HW292632   0.828   2.950  12.133
63579SOL     OW92633   2.820   2.546   1.973
63579SOL    HW192634   2.850   2.479   1.912
63579SOL    HW292635   2.900   2.592   1.999
63580SOL     OW92636  12.948  13.816  13.055
63580SOL    HW192637  12.906  13.902  13.052
63580SOL    HW292638  12.905  13.766  12.985
63581SOL     OW92639   2.439  11.350   5.127
63581SOL    HW192640   2.406  11.348   5.037
63581SOL    HW292641   2.533  11.365   5.118
63582SOL     OW92642   9.331   9.256  13.773
63582SOL    HW192643   9.303   9.335  13.820
63582SOL    HW292644   9.306   9.184  13.831
63583SOL     OW92645  14.629  10.246   1.256
63583SOL    HW192646  14.543  10.288   1.261
63583SOL    HW292647  14.691  10.318   1.251
63584SOL     OW92648   9.871   7.157  11.920
63584SOL    HW192649   9.894   7.102  11.846
63584SOL    HW292650   9.881   7.101  11.996
63585SOL     OW92651  12.933   1.168   3.881
63585SOL    HW192652  12.917   1.078   3.853
63585SOL    HW292653  13.028   1.174   3.888
63586SOL     OW92654   5.017  11.706   7.145
63586SOL    HW192655   5.060  11.628   7.111
63586SOL    HW292656   5.076  11.778   7.123
63587SOL     OW92657   7.573  12.644  14.533
63587SOL    HW192658   7.581  12.700  14.610
63587SOL    HW292659   7.580  12.555  14.568
63588SOL     OW92660  13.584   0.749   7.978
63588SOL    HW192661  13.538   0.805   8.041
63588SOL    HW292662  13.665   0.724   8.022
63589SOL     OW92663  12.036   9.332   2.923
63589SOL    HW192664  11.954   9.353   2.968
63589SOL    HW292665  12.063   9.415   2.884
63590SOL     OW92666   1.885   0.930   0.475
63590SOL    HW192667   1.903   0.966   0.388
63590SOL    HW292668   1.931   0.847   0.477
63591SOL     OW92669  11.961   1.633   1.464
63591SOL    HW192670  11.985   1.577   1.391
63591SOL    HW292671  12.006   1.716   1.446
63592SOL     OW92672   9.051   4.661   9.654
63592SOL    HW192673   9.131   4.713   9.662
63592SOL    HW292674   9.075   4.575   9.689
63593SOL     OW92675   6.715   5.077  10.470
63593SOL    HW192676   6.780   5.133  10.512
63593SOL    HW292677   6.727   5.091  10.376
63594SOL     OW92678   7.887   2.422   4.031
63594SOL    HW192679   7.961   2.362   4.032
63594SOL    HW292680   7.904   2.481   3.958
63595SOL     OW92681   9.116   2.145   4.941
63595SOL    HW192682   9.025   2.150   4.910
63595SOL    HW292683   9.108   2.110   5.030
63596SOL     OW92684  13.493   5.793   4.262
63596SOL    HW192685  13.537   5.865   4.307
63596SOL    HW292686  13.513   5.716   4.315
63597SOL     OW92687  12.613   9.894   6.029
63597SOL    HW192688  12.704   9.874   6.051
63597SOL    HW292689  12.561   9.832   6.080
63598SOL     OW92690   7.634   6.269   5.656
63598SOL    HW192691   7.550   6.229   5.679
63598SOL    HW292692   7.689   6.256   5.733
63599SOL     OW92693   4.491   9.643   3.510
63599SOL    HW192694   4.448   9.721   3.475
63599SOL    HW292695   4.436   9.615   3.583
63600SOL     OW92696   7.667  11.413   8.687
63600SOL    HW192697   7.666  11.495   8.638
63600SOL    HW292698   7.609  11.428   8.761
63601SOL     OW92699   4.116   8.034   0.342
63601SOL    HW192700   4.025   8.033   0.372
63601SOL    HW292701   4.110   8.054   0.248
63602SOL     OW92702   8.126   0.019   9.479
63602SOL    HW192703   8.092   0.104   9.508
63602SOL    HW292704   8.221   0.032   9.473
63603SOL     OW92705   4.916  14.322   5.108
63603SOL    HW192706   4.835  14.355   5.070
63603SOL    HW292707   4.911  14.344   5.201
63604SOL     OW92708   0.053   4.198  13.566
63604SOL    HW192709   0.093   4.226  13.483
63604SOL    HW292710   0.099   4.117  13.589
63605SOL     OW92711   9.558   6.513  11.122
63605SOL    HW192712   9.619   6.473  11.184
63605SOL    HW292713   9.474   6.512  11.167
63606SOL     OW92714  11.734   1.660   9.207
63606SOL    HW192715  11.726   1.713   9.287
63606SOL    HW292716  11.656   1.604   9.209
63607SOL     OW92717  14.624   0.349   4.459
63607SOL    HW192718  14.611   0.259   4.489
63607SOL    HW292719  14.655   0.395   4.537
63608SOL     OW92720  12.540  13.135   9.621
63608SOL    HW192721  12.523  13.076   9.694
63608SOL    HW292722  12.619  13.182   9.646
63609SOL     OW92723   3.019   5.768   5.695
63609SOL    HW192724   2.967   5.688   5.688
63609SOL    HW292725   3.065   5.774   5.612
63610SOL     OW92726   8.599  10.313   9.520
63610SOL    HW192727   8.640  10.398   9.538
63610SOL    HW292728   8.623  10.294   9.430
63611SOL     OW92729   9.670  10.462   7.689
63611SOL    HW192730   9.737  10.517   7.649
63611SOL    HW292731   9.645  10.508   7.769
63612SOL     OW92732  11.082   8.896   7.018
63612SOL    HW192733  11.093   8.987   7.045
63612SOL    HW292734  11.006   8.865   7.068
63613SOL     OW92735   7.450   0.229   1.618
63613SOL    HW192736   7.443   0.260   1.708
63613SOL    HW292737   7.402   0.294   1.566
63614SOL     OW92738   0.619  12.173  10.756
63614SOL    HW192739   0.690  12.111  10.740
63614SOL    HW292740   0.607  12.218  10.672
63615SOL     OW92741   6.210   8.458   6.138
63615SOL    HW192742   6.207   8.554   6.142
63615SOL    HW292743   6.193   8.430   6.228
63616SOL     OW92744   3.551  13.998  14.636
63616SOL    HW192745   3.588  14.084  14.656
63616SOL    HW292746   3.458  14.015  14.621
63617SOL     OW92747   7.704  13.534   3.004
63617SOL    HW192748   7.784  13.540   2.952
63617SOL    HW292749   7.637  13.506   2.941
63618SOL     OW92750   3.312   3.014   7.851
63618SOL    HW192751   3.403   3.041   7.860
63618SOL    HW292752   3.316   2.921   7.827
63619SOL     OW92753  13.463   9.822   1.175
63619SOL    HW192754  13.519   9.844   1.249
63619SOL    HW292755  13.438   9.731   1.189
63620SOL     OW92756   9.862   6.077  14.509
63620SOL    HW192757   9.889   6.004  14.452
63620SOL    HW292758   9.784   6.113  14.467
63621SOL     OW92759  14.722   1.753   3.155
63621SOL    HW192760  14.630   1.766   3.178
63621SOL    HW292761  14.738   1.660   3.174
63622SOL     OW92762  12.637   8.323  12.440
63622SOL    HW192763  12.684   8.375  12.504
63622SOL    HW292764  12.643   8.374  12.359
63623SOL     OW92765   9.129   6.624  14.537
63623SOL    HW192766   9.188   6.667  14.475
63623SOL    HW292767   9.085   6.556  14.486
63624SOL     OW92768   9.386   6.279   8.625
63624SOL    HW192769   9.461   6.325   8.589
63624SOL    HW292770   9.401   6.279   8.719
63625SOL     OW92771   3.177   7.384   7.926
63625SOL    HW192772   3.189   7.477   7.906
63625SOL    HW292773   3.083   7.368   7.910
63626SOL     OW92774   2.096   5.499   7.046
63626SOL    HW192775   2.120   5.592   7.040
63626SOL    HW292776   2.000   5.499   7.047
63627SOL     OW92777   9.120   6.416   2.560
63627SOL    HW192778   9.125   6.440   2.652
63627SOL    HW292779   9.178   6.478   2.516
63628SOL     OW92780  11.044  14.493   5.351
63628SOL    HW192781  11.093  14.522   5.274
63628SOL    HW292782  11.016  14.574   5.394
63629SOL     OW92783  12.559   2.857   8.575
63629SOL    HW192784  12.612   2.802   8.632
63629SOL    HW292785  12.598   2.847   8.488
63630SOL     OW92786   5.902   8.197   6.617
63630SOL    HW192787   5.917   8.185   6.711
63630SOL    HW292788   5.808   8.183   6.605
63631SOL     OW92789   2.455  14.334   1.518
63631SOL    HW192790   2.484  14.343   1.427
63631SOL    HW292791   2.496  14.407   1.564
63632SOL     OW92792   6.930  14.186   8.900
63632SOL    HW192793   6.857  14.139   8.940
63632SOL    HW292794   6.905  14.278   8.905
63633SOL     OW92795   6.798  10.006   2.313
63633SOL    HW192796   6.807   9.973   2.224
63633SOL    HW292797   6.705  10.028   2.322
63634SOL     OW92798   9.213  11.618   4.332
63634SOL    HW192799   9.231  11.556   4.403
63634SOL    HW292800   9.214  11.704   4.375
63635SOL     OW92801  11.024   2.605   0.796
63635SOL    HW192802  10.984   2.632   0.713
63635SOL    HW292803  11.047   2.513   0.783
63636SOL     OW92804  10.599  12.358   2.148
63636SOL    HW192805  10.513  12.373   2.109
63636SOL    HW292806  10.660  12.371   2.076
63637SOL     OW92807   6.620   7.565   3.685
63637SOL    HW192808   6.548   7.507   3.709
63637SOL    HW292809   6.647   7.605   3.767
63638SOL     OW92810   4.041   2.454   5.467
63638SOL    HW192811   4.122   2.487   5.506
63638SOL    HW292812   4.066   2.432   5.377
63639SOL     OW92813   4.675  10.090   6.460
63639SOL    HW192814   4.761  10.100   6.499
63639SOL    HW292815   4.651  10.177   6.429
63640SOL     OW92816   3.616   5.384  13.039
63640SOL    HW192817   3.688   5.401  12.978
63640SOL    HW292818   3.640   5.301  13.082
63641SOL     OW92819  11.978  12.695   1.574
63641SOL    HW192820  12.032  12.732   1.644
63641SOL    HW292821  12.039  12.639   1.525
63642SOL     OW92822   6.435  14.804   8.573
63642SOL    HW192823   6.473  14.829   8.657
63642SOL    HW292824   6.383   0.003   8.546
63643SOL     OW92825   0.477   9.935  13.800
63643SOL    HW192826   0.388   9.967  13.808
63643SOL    HW292827   0.532  10.010  13.826
63644SOL     OW92828  14.258   4.208  10.508
63644SOL    HW192829  14.318   4.259  10.454
63644SOL    HW292830  14.270   4.242  10.596
63645SOL     OW92831   2.930  11.327   1.564
63645SOL    HW192832   3.015  11.301   1.529
63645SOL    HW292833   2.906  11.256   1.624
63646SOL     OW92834   4.059  14.673   9.081
63646SOL    HW192835   4.043  14.675   9.176
63646SOL    HW292836   4.094  14.759   9.061
63647SOL     OW92837   0.722   7.131  14.670
63647SOL    HW192838   0.679   7.073  14.733
63647SOL    HW292839   0.730   7.215  14.714
63648SOL     OW92840  12.250   2.346   0.398
63648SOL    HW192841  12.312   2.418   0.384
63648SOL    HW292842  12.164   2.386   0.385
63649SOL     OW92843   5.469   8.936   1.957
63649SOL    HW192844   5.384   8.924   2.001
63649SOL    HW292845   5.457   8.896   1.871
63650SOL     OW92846  10.615   7.738  13.991
63650SOL    HW192847  10.660   7.802  14.046
63650SOL    HW292848  10.685   7.691  13.947
63651SOL     OW92849   2.989   1.888  12.513
63651SOL    HW192850   3.069   1.863  12.468
63651SOL    HW292851   2.987   1.984  12.508
63652SOL     OW92852   2.986   5.841  10.556
63652SOL    HW192853   3.010   5.750  10.541
63652SOL    HW292854   2.945   5.869  10.474
63653SOL     OW92855  14.472  13.446  10.389
63653SOL    HW192856  14.448  13.464  10.298
63653SOL    HW292857  14.564  13.470  10.395
63654SOL     OW92858   2.855   9.902   7.935
63654SOL    HW192859   2.869   9.916   8.029
63654SOL    HW292860   2.861   9.989   7.897
63655SOL     OW92861   1.996   4.477   0.650
63655SOL    HW192862   2.026   4.470   0.560
63655SOL    HW292863   1.984   4.387   0.679
63656SOL     OW92864   2.331  12.764   5.233
63656SOL    HW192865   2.290  12.707   5.169
63656SOL    HW292866   2.291  12.740   5.316
63657SOL     OW92867   9.191   0.312   6.264
63657SOL    HW192868   9.276   0.345   6.293
63657SOL    HW292869   9.179   0.352   6.178
63658SOL     OW92870  14.602   7.333   1.153
63658SOL    HW192871  14.590   7.240   1.136
63658SOL    HW292872  14.656   7.364   1.081
63659SOL     OW92873   4.085   1.890   6.334
63659SOL    HW192874   4.178   1.867   6.328
63659SOL    HW292875   4.041   1.808   6.353
63660SOL     OW92876   1.478  14.730   3.856
63660SOL    HW192877   1.512  14.718   3.945
63660SOL    HW292878   1.410  14.797   3.865
63661SOL     OW92879   6.067   9.497   9.177
63661SOL    HW192880   6.091   9.405   9.169
63661SOL    HW292881   6.120   9.529   9.251
63662SOL     OW92882   6.465  12.084   3.498
63662SOL    HW192883   6.471  11.990   3.479
63662SOL    HW292884   6.555  12.115   3.489
63663SOL     OW92885   7.276  10.701   0.752
63663SOL    HW192886   7.257  10.682   0.844
63663SOL    HW292887   7.358  10.751   0.754
63664SOL     OW92888  12.532   4.041   5.496
63664SOL    HW192889  12.508   3.979   5.565
63664SOL    HW292890  12.511   4.127   5.533
63665SOL     OW92891  10.246   4.131   0.290
63665SOL    HW192892  10.261   4.106   0.199
63665SOL    HW292893  10.326   4.178   0.316
63666SOL     OW92894   6.440   5.784  10.033
63666SOL    HW192895   6.460   5.758   9.943
63666SOL    HW292896   6.402   5.871  10.025
63667SOL     OW92897  13.787   1.306   4.609
63667SOL    HW192898  13.728   1.324   4.536
63667SOL    HW292899  13.746   1.349   4.684
63668SOL     OW92900   0.299   4.969   8.132
63668SOL    HW192901   0.332   4.881   8.114
63668SOL    HW292902   0.301   4.976   8.228
63669SOL     OW92903   2.666   9.891   6.800
63669SOL    HW192904   2.649   9.977   6.763
63669SOL    HW292905   2.753   9.867   6.766
63670SOL     OW92906  13.205   4.989   4.962
63670SOL    HW192907  13.204   5.047   4.886
63670SOL    HW292908  13.246   4.908   4.930
63671SOL     OW92909   8.686   6.785   8.219
63671SOL    HW192910   8.599   6.748   8.232
63671SOL    HW292911   8.694   6.855   8.283
63672SOL     OW92912   6.040  13.839  11.614
63672SOL    HW192913   5.971  13.773  11.625
63672SOL    HW292914   5.995  13.915  11.577
63673SOL     OW92915   4.907   3.087  10.985
63673SOL    HW192916   4.995   3.092  11.023
63673SOL    HW292917   4.918   3.120  10.896
63674SOL     OW92918  10.262   5.385  12.856
63674SOL    HW192919  10.211   5.304  12.863
63674SOL    HW292920  10.209   5.442  12.802
63675SOL     OW92921   5.700   6.397  10.400
63675SOL    HW192922   5.789   6.430  10.394
63675SOL    HW292923   5.691   6.367  10.490
63676SOL     OW92924  13.985  14.693  14.404
63676SOL    HW192925  14.074  14.673  14.376
63676SOL    HW292926  13.995  14.766  14.466
63677SOL     OW92927   1.758  12.873   7.464
63677SOL    HW192928   1.792  12.884   7.553
63677SOL    HW292929   1.766  12.780   7.447
63678SOL     OW92930   1.481  13.083  13.063
63678SOL    HW192931   1.473  13.007  13.006
63678SOL    HW292932   1.575  13.091  13.080
63679SOL     OW92933   5.039   3.748   1.011
63679SOL    HW192934   4.988   3.796   1.077
63679SOL    HW292935   5.100   3.696   1.063
63680SOL     OW92936  10.054   0.017   6.485
63680SOL    HW192937  10.102   0.065   6.552
63680SOL    HW292938  10.016   0.085   6.429
63681SOL     OW92939  12.314   7.493   8.196
63681SOL    HW192940  12.406   7.476   8.215
63681SOL    HW292941  12.280   7.536   8.274
63682SOL     OW92942   8.180   2.526  13.931
63682SOL    HW192943   8.116   2.569  13.987
63682SOL    HW292944   8.209   2.450  13.980
63683SOL     OW92945   3.426   2.735   9.891
63683SOL    HW192946   3.439   2.810   9.949
63683SOL    HW292947   3.382   2.670   9.945
63684SOL     OW92948   6.227   6.082   5.948
63684SOL    HW192949   6.268   6.144   5.887
63684SOL    HW292950   6.133   6.087   5.927
63685SOL     OW92951  10.518   2.879   6.970
63685SOL    HW192952  10.483   2.956   6.925
63685SOL    HW292953  10.558   2.827   6.901
63686SOL     OW92954  11.458   8.386   6.345
63686SOL    HW192955  11.459   8.478   6.319
63686SOL    HW292956  11.375   8.376   6.392
63687SOL     OW92957   8.074   2.365   6.442
63687SOL    HW192958   8.102   2.428   6.509
63687SOL    HW292959   7.980   2.379   6.434
63688SOL     OW92960  10.196   6.414   2.326
63688SOL    HW192961  10.102   6.411   2.348
63688SOL    HW292962  10.221   6.505   2.339
63689SOL     OW92963  11.178   7.278  13.616
63689SOL    HW192964  11.244   7.209  13.614
63689SOL    HW292965  11.151   7.283  13.708
63690SOL     OW92966  14.057   8.474   7.992
63690SOL    HW192967  14.057   8.568   8.008
63690SOL    HW292968  14.034   8.465   7.899
63691SOL     OW92969   1.625   9.295  12.866
63691SOL    HW192970   1.550   9.322  12.919
63691SOL    HW292971   1.589   9.288  12.777
63692SOL     OW92972  12.225  11.859  11.484
63692SOL    HW192973  12.137  11.828  11.502
63692SOL    HW292974  12.278  11.825  11.556
63693SOL     OW92975   6.129  12.380   4.985
63693SOL    HW192976   6.223  12.369   4.966
63693SOL    HW292977   6.127  12.426   5.069
63694SOL     OW92978   8.909   8.972   2.951
63694SOL    HW192979   8.901   9.055   2.905
63694SOL    HW292980   9.003   8.958   2.959
63695SOL     OW92981   8.252   8.443  11.577
63695SOL    HW192982   8.170   8.451  11.529
63695SOL    HW292983   8.316   8.415  11.510
63696SOL     OW92984  13.627  13.649   9.983
63696SOL    HW192985  13.543  13.690   9.963
63696SOL    HW292986  13.638  13.582   9.916
63697SOL     OW92987   2.827  12.884   0.161
63697SOL    HW192988   2.792  12.936   0.233
63697SOL    HW292989   2.808  12.793   0.186
63698SOL     OW92990   0.017   0.159   4.782
63698SOL    HW192991  14.829   0.218   4.820
63698SOL    HW292992   0.085   0.152   4.849
63699SOL     OW92993   7.643  12.596  12.291
63699SOL    HW192994   7.677  12.508  12.308
63699SOL    HW292995   7.605  12.624  12.374
63700SOL     OW92996   9.042  11.162   5.527
63700SOL    HW192997   8.973  11.097   5.525
63700SOL    HW292998   9.106  11.132   5.463
63701SOL     OW92999  10.261   0.698   8.832
63701SOL    HW193000  10.220   0.747   8.761
63701SOL    HW293001  10.244   0.606   8.810
63702SOL     OW93002   9.763   4.669   7.029
63702SOL    HW193003   9.785   4.588   6.983
63702SOL    HW293004   9.747   4.732   6.958
63703SOL     OW93005   3.941  12.824  12.173
63703SOL    HW193006   3.934  12.835  12.268
63703SOL    HW293007   3.991  12.744  12.161
63704SOL     OW93008   9.577  13.571   9.095
63704SOL    HW193009   9.517  13.516   9.146
63704SOL    HW293010   9.532  13.655   9.087
63705SOL     OW93011   2.408   8.142   2.139
63705SOL    HW193012   2.477   8.181   2.085
63705SOL    HW293013   2.453   8.120   2.221
63706SOL     OW93014   9.035  13.106  10.763
63706SOL    HW193015   9.089  13.150  10.829
63706SOL    HW293016   8.946  13.109  10.799
63707SOL     OW93017   5.756   7.168   6.018
63707SOL    HW193018   5.715   7.122   6.091
63707SOL    HW293019   5.707   7.137   5.941
63708SOL     OW93020   6.916   3.723   3.173
63708SOL    HW193021   6.953   3.665   3.239
63708SOL    HW293022   6.963   3.806   3.184
63709SOL     OW93023   2.767   0.979   5.775
63709SOL    HW193024   2.752   1.006   5.865
63709SOL    HW293025   2.712   1.036   5.722
63710SOL     OW93026   6.784   1.027   6.072
63710SOL    HW193027   6.706   0.973   6.054
63710SOL    HW293028   6.820   0.990   6.153
63711SOL     OW93029  10.953   8.859   4.343
63711SOL    HW193030  11.044   8.887   4.338
63711SOL    HW293031  10.955   8.767   4.316
63712SOL     OW93032   9.829  11.198   0.483
63712SOL    HW193033   9.757  11.148   0.522
63712SOL    HW293034   9.908  11.154   0.512
63713SOL     OW93035   8.365  13.741   1.270
63713SOL    HW193036   8.407  13.658   1.292
63713SOL    HW293037   8.324  13.724   1.185
63714SOL     OW93038   1.960  13.898   9.279
63714SOL    HW193039   1.954  13.968   9.213
63714SOL    HW293040   1.881  13.846   9.265
63715SOL     OW93041  11.543   2.364   6.371
63715SOL    HW193042  11.506   2.293   6.424
63715SOL    HW293043  11.592   2.320   6.302
63716SOL     OW93044   3.225  10.620   2.829
63716SOL    HW193045   3.273  10.698   2.856
63716SOL    HW293046   3.241  10.613   2.734
63717SOL     OW93047   5.112   8.305   5.619
63717SOL    HW193048   5.121   8.339   5.531
63717SOL    HW293049   5.110   8.210   5.609
63718SOL     OW93050   5.920   1.402   3.159
63718SOL    HW193051   6.000   1.431   3.116
63718SOL    HW293052   5.899   1.318   3.118
63719SOL     OW93053   1.067   9.775   6.192
63719SOL    HW193054   1.138   9.804   6.135
63719SOL    HW293055   1.108   9.717   6.256
63720SOL     OW93056   2.944   7.852   5.358
63720SOL    HW193057   2.877   7.910   5.393
63720SOL    HW293058   2.895   7.777   5.324
63721SOL     OW93059   6.765   0.623   1.714
63721SOL    HW193060   6.772   0.528   1.698
63721SOL    HW293061   6.854   0.649   1.735
63722SOL     OW93062  13.242   8.881   0.277
63722SOL    HW193063  13.229   8.926   0.193
63722SOL    HW293064  13.311   8.818   0.260
63723SOL     OW93065  11.055   1.707   4.605
63723SOL    HW193066  11.032   1.698   4.512
63723SOL    HW293067  11.087   1.797   4.613
63724SOL     OW93068   7.043  14.069   7.545
63724SOL    HW193069   7.012  14.020   7.621
63724SOL    HW293070   7.076  14.151   7.583
63725SOL     OW93071   9.951   4.483   3.495
63725SOL    HW193072  10.011   4.531   3.552
63725SOL    HW293073  10.004   4.460   3.418
63726SOL     OW93074   2.037   8.463   1.229
63726SOL    HW193075   2.019   8.441   1.320
63726SOL    HW293076   2.132   8.473   1.224
63727SOL     OW93077   4.941   4.674   2.047
63727SOL    HW193078   4.892   4.661   1.966
63727SOL    HW293079   4.956   4.768   2.051
63728SOL     OW93080   5.560   9.219   8.657
63728SOL    HW193081   5.615   9.155   8.703
63728SOL    HW293082   5.502   9.165   8.603
63729SOL     OW93083  14.559   2.857  13.480
63729SOL    HW193084  14.526   2.905  13.557
63729SOL    HW293085  14.574   2.768  13.512
63730SOL     OW93086   3.183   0.454   4.187
63730SOL    HW193087   3.187   0.549   4.187
63730SOL    HW293088   3.100   0.434   4.230
63731SOL     OW93089   7.802  13.295   2.451
63731SOL    HW193090   7.771  13.329   2.535
63731SOL    HW293091   7.862  13.224   2.475
63732SOL     OW93092  11.566   4.576   6.712
63732SOL    HW193093  11.520   4.629   6.777
63732SOL    HW293094  11.527   4.602   6.628
63733SOL     OW93095   1.254   4.170  12.359
63733SOL    HW193096   1.220   4.092  12.402
63733SOL    HW293097   1.304   4.137  12.285
63734SOL     OW93098  11.046   7.711   1.211
63734SOL    HW193099  11.024   7.782   1.270
63734SOL    HW293100  11.020   7.631   1.258
63735SOL     OW93101   5.897   9.782  11.939
63735SOL    HW193102   5.986   9.748  11.932
63735SOL    HW293103   5.866   9.752  12.024
63736SOL     OW93104   8.989   7.700   0.672
63736SOL    HW193105   8.988   7.685   0.577
63736SOL    HW293106   8.915   7.758   0.687
63737SOL     OW93107   7.620  14.392  12.155
63737SOL    HW193108   7.593  14.467  12.101
63737SOL    HW293109   7.709  14.373  12.126
63738SOL     OW93110  13.657   6.667  12.740
63738SOL    HW193111  13.590   6.684  12.807
63738SOL    HW293112  13.672   6.573  12.745
63739SOL     OW93113   7.715   1.559  11.084
63739SOL    HW193114   7.712   1.465  11.064
63739SOL    HW293115   7.787   1.593  11.031
63740SOL     OW93116   5.198  11.040   6.099
63740SOL    HW193117   5.238  11.117   6.139
63740SOL    HW293118   5.242  10.966   6.141
63741SOL     OW93119   6.740   9.055   5.092
63741SOL    HW193120   6.647   9.035   5.103
63741SOL    HW293121   6.776   9.049   5.180
63742SOL     OW93122  10.715   6.196  14.038
63742SOL    HW193123  10.642   6.175  14.096
63742SOL    HW293124  10.756   6.274  14.077
63743SOL     OW93125   7.952   4.278   7.916
63743SOL    HW193126   7.977   4.324   7.836
63743SOL    HW293127   7.856   4.281   7.917
63744SOL     OW93128   7.520  10.827   9.048
63744SOL    HW193129   7.440  10.831   8.995
63744SOL    HW293130   7.511  10.899   9.110
63745SOL     OW93131   9.114  13.048  13.248
63745SOL    HW193132   9.151  12.974  13.199
63745SOL    HW293133   9.032  13.069  13.203
63746SOL     OW93134   1.102  10.785   2.210
63746SOL    HW193135   1.166  10.843   2.170
63746SOL    HW293136   1.133  10.774   2.300
63747SOL     OW93137  11.942  10.183   3.859
63747SOL    HW193138  11.863  10.136   3.883
63747SOL    HW293139  12.006  10.115   3.839
63748SOL     OW93140   2.698  13.651   3.428
63748SOL    HW193141   2.610  13.685   3.440
63748SOL    HW293142   2.756  13.720   3.462
63749SOL     OW93143  13.070   9.083   6.552
63749SOL    HW193144  13.074   9.014   6.486
63749SOL    HW293145  13.161   9.104   6.570
63750SOL     OW93146   1.472   0.703   8.290
63750SOL    HW193147   1.547   0.653   8.324
63750SOL    HW293148   1.478   0.692   8.195
63751SOL     OW93149   0.678  10.531   8.369
63751SOL    HW193150   0.656  10.493   8.454
63751SOL    HW293151   0.645  10.621   8.374
63752SOL     OW93152   3.304   6.577   9.853
63752SOL    HW193153   3.212   6.597   9.834
63752SOL    HW293154   3.300   6.498   9.908
63753SOL     OW93155   9.290   2.885  13.821
63753SOL    HW193156   9.293   2.906  13.728
63753SOL    HW293157   9.346   2.807  13.830
63754SOL     OW93158  11.306   5.562   2.672
63754SOL    HW193159  11.255   5.595   2.745
63754SOL    HW293160  11.241   5.527   2.611
63755SOL     OW93161   8.068   8.285   7.845
63755SOL    HW193162   8.021   8.357   7.887
63755SOL    HW293163   8.114   8.326   7.772
63756SOL     OW93164   4.643  14.853   8.248
63756SOL    HW193165   4.676  14.828   8.334
63756SOL    HW293166   4.597  14.775   8.216
63757SOL     OW93167  10.890  13.558  14.532
63757SOL    HW193168  10.883  13.463  14.521
63757SOL    HW293169  10.807  13.592  14.499
63758SOL     OW93170  13.120  14.611   8.852
63758SOL    HW193171  13.080  14.652   8.928
63758SOL    HW293172  13.047  14.573   8.804
63759SOL     OW93173   2.769   1.129   1.060
63759SOL    HW193174   2.742   1.059   1.000
63759SOL    HW293175   2.799   1.082   1.138
63760SOL     OW93176   6.307   8.022   8.455
63760SOL    HW193177   6.373   8.012   8.386
63760SOL    HW293178   6.224   8.015   8.408
63761SOL     OW93179   4.090   8.348   9.599
63761SOL    HW193180   4.161   8.285   9.587
63761SOL    HW293181   4.072   8.347   9.693
63762SOL     OW93182   6.045   2.681   5.361
63762SOL    HW193183   6.138   2.677   5.379
63762SOL    HW293184   6.027   2.602   5.310
63763SOL     OW93185   0.808   0.497  13.026
63763SOL    HW193186   0.885   0.553  13.015
63763SOL    HW293187   0.827   0.446  13.104
63764SOL     OW93188   7.050   3.322   7.398
63764SOL    HW193189   7.090   3.383   7.460
63764SOL    HW293190   6.956   3.326   7.417
63765SOL     OW93191   5.564  12.073   2.670
63765SOL    HW193192   5.497  12.005   2.683
63765SOL    HW293193   5.540  12.114   2.587
63766SOL     OW93194   0.994  10.011   7.256
63766SOL    HW193195   1.055   9.974   7.319
63766SOL    HW293196   0.978  10.100   7.288
63767SOL     OW93197   0.648   9.417   8.654
63767SOL    HW193198   0.686   9.496   8.692
63767SOL    HW293199   0.721   9.373   8.612
63768SOL     OW93200   8.232  11.757  12.663
63768SOL    HW193201   8.248  11.705  12.742
63768SOL    HW293202   8.179  11.700  12.607
63769SOL     OW93203   4.572  13.908   3.769
63769SOL    HW193204   4.640  13.893   3.704
63769SOL    HW293205   4.493  13.924   3.717
63770SOL     OW93206  14.851   2.835   0.468
63770SOL    HW193207  14.858   2.883   0.385
63770SOL    HW293208  14.830   2.902   0.533
63771SOL     OW93209   4.840  12.234   9.189
63771SOL    HW193210   4.924  12.279   9.197
63771SOL    HW293211   4.775  12.304   9.192
63772SOL     OW93212   6.590   2.991   2.687
63772SOL    HW193213   6.515   2.933   2.673
63772SOL    HW293214   6.663   2.946   2.644
63773SOL     OW93215   7.174   4.226   6.405
63773SOL    HW193216   7.263   4.209   6.436
63773SOL    HW293217   7.128   4.259   6.481
63774SOL     OW93218   4.700   1.661   1.847
63774SOL    HW193219   4.633   1.600   1.817
63774SOL    HW293220   4.688   1.664   1.942
63775SOL     OW93221   8.991   1.888   3.149
63775SOL    HW193222   8.959   1.814   3.099
63775SOL    HW293223   8.993   1.857   3.240
63776SOL     OW93224  10.132   7.485   2.668
63776SOL    HW193225  10.140   7.578   2.649
63776SOL    HW293226  10.096   7.481   2.757
63777SOL     OW93227   3.869   9.280   3.696
63777SOL    HW193228   3.782   9.320   3.703
63777SOL    HW293229   3.919   9.320   3.767
63778SOL     OW93230  10.623   6.102  14.864
63778SOL    HW193231  10.710   6.074   0.015
63778SOL    HW293232  10.582   6.022  14.831
63779SOL     OW93233   2.640  14.242   5.124
63779SOL    HW193234   2.623  14.222   5.216
63779SOL    HW293235   2.559  14.220   5.078
63780SOL     OW93236   8.198   2.384  13.140
63780SOL    HW193237   8.141   2.436  13.083
63780SOL    HW293238   8.279   2.435  13.145
63781SOL     OW93239  12.955   7.968   5.408
63781SOL    HW193240  12.973   7.963   5.314
63781SOL    HW293241  12.921   7.882   5.431
63782SOL     OW93242   8.762   0.991   5.652
63782SOL    HW193243   8.818   0.916   5.634
63782SOL    HW293244   8.758   1.039   5.569
63783SOL     OW93245   7.122   3.268   5.836
63783SOL    HW193246   7.217   3.259   5.833
63783SOL    HW293247   7.089   3.204   5.772
63784SOL     OW93248   8.422   0.882   5.554
63784SOL    HW193249   8.335   0.846   5.571
63784SOL    HW293250   8.460   0.894   5.641
63785SOL     OW93251   4.947  12.878  11.484
63785SOL    HW193252   4.856  12.852  11.501
63785SOL    HW293253   4.978  12.915  11.567
63786SOL     OW93254   5.469   4.005  12.069
63786SOL    HW193255   5.469   3.939  12.138
63786SOL    HW293256   5.520   3.965  11.998
63787SOL     OW93257  14.255   9.924   4.845
63787SOL    HW193258  14.206   9.974   4.911
63787SOL    HW293259  14.295   9.990   4.790
63788SOL     OW93260   2.383   7.317   2.940
63788SOL    HW193261   2.331   7.244   2.974
63788SOL    HW293262   2.473   7.295   2.963
63789SOL     OW93263   9.244   1.010   5.770
63789SOL    HW193264   9.178   0.954   5.810
63789SOL    HW293265   9.231   1.000   5.676
63790SOL     OW93266   5.239   6.739  12.220
63790SOL    HW193267   5.227   6.717  12.128
63790SOL    HW293268   5.329   6.770  12.227
63791SOL     OW93269   1.874   3.884   5.212
63791SOL    HW193270   1.869   3.800   5.165
63791SOL    HW293271   1.807   3.877   5.280
63792SOL     OW93272  14.764   7.553  12.175
63792SOL    HW193273  14.839   7.518  12.128
63792SOL    HW293274  14.759   7.501  12.256
63793SOL     OW93275   3.113   5.247   0.590
63793SOL    HW193276   3.133   5.182   0.522
63793SOL    HW293277   3.060   5.313   0.545
63794SOL     OW93278  12.783   7.448   0.987
63794SOL    HW193279  12.739   7.417   0.908
63794SOL    HW293280  12.871   7.472   0.956
63795SOL     OW93281   9.813   7.114  11.145
63795SOL    HW193282   9.781   7.199  11.119
63795SOL    HW293283   9.864   7.083  11.070
63796SOL     OW93284   8.595   2.394   6.671
63796SOL    HW193285   8.559   2.305   6.669
63796SOL    HW293286   8.586   2.425   6.581
63797SOL     OW93287   1.525   0.550   0.535
63797SOL    HW193288   1.433   0.552   0.509
63797SOL    HW293289   1.566   0.621   0.485
63798SOL     OW93290   8.943  12.290   4.996
63798SOL    HW193291   9.003  12.364   4.985
63798SOL    HW293292   8.991  12.227   5.050
63799SOL     OW93293   2.099  11.893   4.391
63799SOL    HW193294   2.151  11.953   4.445
63799SOL    HW293295   2.009  11.907   4.420
63800SOL     OW93296   4.345  13.459  13.960
63800SOL    HW193297   4.375  13.467  14.051
63800SOL    HW293298   4.284  13.533  13.949
63801SOL     OW93299   8.882  11.637  14.802
63801SOL    HW193300   8.845  11.701  14.741
63801SOL    HW293301   8.943  11.687  14.856
63802SOL     OW93302   0.278   4.405   3.284
63802SOL    HW193303   0.319   4.391   3.198
63802SOL    HW293304   0.321   4.341   3.342
63803SOL     OW93305   8.900   3.066  10.414
63803SOL    HW193306   8.848   3.143  10.438
63803SOL    HW293307   8.958   3.097  10.345
63804SOL     OW93308   0.402   4.789  10.292
63804SOL    HW193309   0.482   4.784  10.345
63804SOL    HW293310   0.331   4.769  10.353
63805SOL     OW93311   3.069  12.430   4.535
63805SOL    HW193312   3.087  12.478   4.616
63805SOL    HW293313   3.152  12.431   4.487
63806SOL     OW93314   9.122   6.055   8.326
63806SOL    HW193315   9.029   6.068   8.307
63806SOL    HW293316   9.124   5.994   8.400
63807SOL     OW93317   1.754  11.683   6.469
63807SOL    HW193318   1.664  11.665   6.495
63807SOL    HW293319   1.763  11.778   6.477
63808SOL     OW93320  12.676   2.172  14.866
63808SOL    HW193321  12.718   2.257  14.849
63808SOL    HW293322  12.652   2.139  14.779
63809SOL     OW93323   7.858   8.310   6.194
63809SOL    HW193324   7.908   8.254   6.253
63809SOL    HW293325   7.823   8.379   6.250
63810SOL     OW93326   7.082  14.237  12.731
63810SOL    HW193327   6.993  14.232  12.695
63810SOL    HW293328   7.120  14.152  12.711
63811SOL     OW93329   4.639  13.541   0.709
63811SOL    HW193330   4.710  13.488   0.674
63811SOL    HW293331   4.655  13.543   0.804
63812SOL     OW93332   5.432  13.260   1.625
63812SOL    HW193333   5.516  13.215   1.640
63812SOL    HW293334   5.446  13.310   1.545
63813SOL     OW93335   2.758  12.487  11.309
63813SOL    HW193336   2.742  12.581  11.305
63813SOL    HW293337   2.688  12.449  11.256
63814SOL     OW93338   4.760   3.300   6.208
63814SOL    HW193339   4.713   3.338   6.134
63814SOL    HW293340   4.702   3.314   6.283
63815SOL     OW93341   8.869  11.550   0.853
63815SOL    HW193342   8.813  11.594   0.917
63815SOL    HW293343   8.850  11.457   0.865
63816SOL     OW93344  12.913  12.864  13.618
63816SOL    HW193345  12.875  12.779  13.597
63816SOL    HW293346  12.838  12.916  13.649
63817SOL     OW93347   1.569   7.706   0.026
63817SOL    HW193348   1.557   7.760   0.104
63817SOL    HW293349   1.664   7.699   0.016
63818SOL     OW93350  13.534   5.081   2.168
63818SOL    HW193351  13.564   5.159   2.123
63818SOL    HW293352  13.477   5.114   2.238
63819SOL     OW93353   2.871   0.728   5.786
63819SOL    HW193354   2.951   0.722   5.838
63819SOL    HW293355   2.847   0.821   5.789
63820SOL     OW93356   7.917   0.999   2.600
63820SOL    HW193357   7.907   1.087   2.564
63820SOL    HW293358   7.855   0.945   2.552
63821SOL     OW93359   3.072  11.702   3.247
63821SOL    HW193360   3.146  11.721   3.305
63821SOL    HW293361   3.055  11.609   3.260
63822SOL     OW93362  10.337  10.797   1.016
63822SOL    HW193363  10.419  10.752   0.997
63822SOL    HW293364  10.276  10.766   0.949
63823SOL     OW93365  13.981   8.452   8.976
63823SOL    HW193366  14.006   8.361   8.997
63823SOL    HW293367  14.043   8.505   9.027
63824SOL     OW93368   8.435  14.613   5.346
63824SOL    HW193369   8.523  14.616   5.308
63824SOL    HW293370   8.381  14.568   5.280
63825SOL     OW93371   2.238  12.866  13.611
63825SOL    HW193372   2.291  12.817  13.673
63825SOL    HW293373   2.157  12.815  13.603
63826SOL     OW93374  13.063   8.021   1.866
63826SOL    HW193375  13.136   8.020   1.804
63826SOL    HW293376  13.010   8.095   1.838
63827SOL     OW93377  14.873   4.232   2.719
63827SOL    HW193378   0.030   4.184   2.794
63827SOL    HW293379  14.779   4.237   2.736
63828SOL     OW93380  10.929   1.889   3.798
63828SOL    HW193381  10.889   1.976   3.796
63828SOL    HW293382  11.021   1.904   3.779
63829SOL     OW93383   8.868  11.240  12.232
63829SOL    HW193384   8.820  11.162  12.260
63829SOL    HW293385   8.960  11.213  12.234
63830SOL     OW93386   8.781   4.830   6.552
63830SOL    HW193387   8.695   4.872   6.556
63830SOL    HW293388   8.771   4.762   6.485
63831SOL     OW93389   0.062   4.775  13.568
63831SOL    HW193390   0.038   4.757  13.477
63831SOL    HW293391   0.142   4.725  13.582
63832SOL     OW93392   8.827   9.546   5.389
63832SOL    HW193393   8.772   9.612   5.348
63832SOL    HW293394   8.774   9.513   5.462
63833SOL     OW93395   5.580  13.878   1.719
63833SOL    HW193396   5.592  13.915   1.631
63833SOL    HW293397   5.651  13.917   1.771
63834SOL     OW93398   3.560  10.771   0.886
63834SOL    HW193399   3.632  10.824   0.921
63834SOL    HW293400   3.603  10.694   0.850
63835SOL     OW93401   0.622   4.990   4.886
63835SOL    HW193402   0.700   4.937   4.903
63835SOL    HW293403   0.572   4.939   4.822
63836SOL     OW93404   6.940   3.173  10.778
63836SOL    HW193405   6.929   3.153  10.685
63836SOL    HW293406   6.976   3.092  10.815
63837SOL     OW93407  12.526  14.274   7.931
63837SOL    HW193408  12.471  14.197   7.949
63837SOL    HW293409  12.605  14.260   7.983
63838SOL     OW93410   5.303   6.035   3.754
63838SOL    HW193411   5.293   6.109   3.814
63838SOL    HW293412   5.389   5.998   3.776
63839SOL     OW93413   2.396   5.438   1.960
63839SOL    HW193414   2.309   5.466   1.934
63839SOL    HW293415   2.380   5.371   2.027
63840SOL     OW93416   9.128   7.088  11.099
63840SOL    HW193417   9.194   7.066  11.034
63840SOL    HW293418   9.049   7.108  11.048
63841SOL     OW93419   0.979   5.699   6.917
63841SOL    HW193420   1.052   5.760   6.911
63841SOL    HW293421   1.010   5.628   6.973
63842SOL     OW93422   1.967   7.337   9.272
63842SOL    HW193423   1.912   7.387   9.211
63842SOL    HW293424   1.904   7.289   9.326
63843SOL     OW93425   7.894   1.332   9.926
63843SOL    HW193426   7.959   1.310   9.859
63843SOL    HW293427   7.816   1.356   9.876
63844SOL     OW93428  12.271   6.561   2.285
63844SOL    HW193429  12.204   6.628   2.295
63844SOL    HW293430  12.239   6.506   2.213
63845SOL     OW93431   4.495   6.868   5.104
63845SOL    HW193432   4.427   6.934   5.117
63845SOL    HW293433   4.544   6.868   5.186
63846SOL     OW93434  11.551   8.292  10.550
63846SOL    HW193435  11.555   8.349  10.473
63846SOL    HW293436  11.458   8.289  10.573
63847SOL     OW93437   8.598  13.867   4.941
63847SOL    HW193438   8.556  13.794   4.986
63847SOL    HW293439   8.552  13.874   4.858
63848SOL     OW93440   2.491   0.916  13.208
63848SOL    HW193441   2.418   0.871  13.164
63848SOL    HW293442   2.569   0.884  13.164
63849SOL     OW93443  11.988   0.041   6.978
63849SOL    HW193444  11.967   0.117   6.924
63849SOL    HW293445  12.083   0.033   6.973
63850SOL     OW93446  14.359  12.709   8.485
63850SOL    HW193447  14.343  12.800   8.460
63850SOL    HW293448  14.445  12.711   8.527
63851SOL     OW93449   6.536   7.387  10.827
63851SOL    HW193450   6.511   7.376  10.735
63851SOL    HW293451   6.601   7.457  10.826
63852SOL     OW93452   0.891   6.104  12.158
63852SOL    HW193453   0.796   6.101  12.166
63852SOL    HW293454   0.907   6.131  12.068
63853SOL     OW93455  13.862   0.318  13.137
63853SOL    HW193456  13.777   0.330  13.179
63853SOL    HW293457  13.926   0.337  13.205
63854SOL     OW93458  10.080  11.957   9.293
63854SOL    HW193459  10.026  11.960   9.372
63854SOL    HW293460  10.037  11.891   9.238
63855SOL     OW93461   1.789  14.267  13.360
63855SOL    HW193462   1.862  14.227  13.313
63855SOL    HW293463   1.743  14.318  13.293
63856SOL     OW93464   0.708   9.682   1.548
63856SOL    HW193465   0.668   9.729   1.474
63856SOL    HW293466   0.786   9.733   1.569
63857SOL     OW93467  10.231  13.487   2.302
63857SOL    HW193468  10.277  13.446   2.228
63857SOL    HW293469  10.286  13.467   2.377
63858SOL     OW93470   1.336  10.978  10.128
63858SOL    HW193471   1.313  10.924  10.053
63858SOL    HW293472   1.420  10.943  10.158
63859SOL     OW93473   3.405   4.445   5.559
63859SOL    HW193474   3.417   4.534   5.593
63859SOL    HW293475   3.492   4.407   5.560
63860SOL     OW93476   8.626  13.691   4.340
63860SOL    HW193477   8.595  13.641   4.264
63860SOL    HW293478   8.574  13.771   4.339
63861SOL     OW93479   7.634   1.512   9.346
63861SOL    HW193480   7.672   1.426   9.329
63861SOL    HW293481   7.706   1.574   9.328
63862SOL     OW93482   2.240   8.634   1.622
63862SOL    HW193483   2.231   8.666   1.532
63862SOL    HW293484   2.202   8.547   1.620
63863SOL     OW93485  14.792  12.055  10.785
63863SOL    HW193486  14.778  11.981  10.843
63863SOL    HW293487  14.718  12.113  10.802
63864SOL     OW93488   7.205  13.151   3.355
63864SOL    HW193489   7.198  13.098   3.276
63864SOL    HW293490   7.222  13.088   3.425
63865SOL     OW93491  13.820  13.162  13.031
63865SOL    HW193492  13.746  13.107  13.004
63865SOL    HW293493  13.864  13.111  13.099
63866SOL     OW93494   2.363  14.170  11.192
63866SOL    HW193495   2.342  14.117  11.114
63866SOL    HW293496   2.341  14.113  11.265
63867SOL     OW93497   1.903   9.570  13.835
63867SOL    HW193498   1.813   9.599  13.818
63867SOL    HW293499   1.900   9.476  13.823
63868SOL     OW93500   2.179   5.226   3.638
63868SOL    HW193501   2.216   5.314   3.630
63868SOL    HW293502   2.118   5.233   3.712
63869SOL     OW93503   1.519  14.131   4.701
63869SOL    HW193504   1.517  14.225   4.683
63869SOL    HW293505   1.426  14.105   4.705
63870SOL     OW93506  14.127   1.770  10.218
63870SOL    HW193507  14.078   1.731  10.146
63870SOL    HW293508  14.187   1.832  10.177
63871SOL     OW93509  10.801   2.109   2.379
63871SOL    HW193510  10.741   2.087   2.450
63871SOL    HW293511  10.875   2.151   2.423
63872SOL     OW93512   0.644  12.000  10.429
63872SOL    HW193513   0.572  12.061  10.413
63872SOL    HW293514   0.721  12.055  10.439
63873SOL     OW93515  14.231   6.866   7.058
63873SOL    HW193516  14.135   6.866   7.052
63873SOL    HW293517  14.253   6.953   7.089
63874SOL     OW93518  10.509   9.644   9.260
63874SOL    HW193519  10.544   9.556   9.251
63874SOL    HW293520  10.482   9.668   9.171
63875SOL     OW93521   9.780   7.178  13.979
63875SOL    HW193522   9.824   7.218  13.904
63875SOL    HW293523   9.849   7.129  14.024
63876SOL     OW93524  10.238   5.935  13.080
63876SOL    HW193525  10.282   5.930  13.165
63876SOL    HW293526  10.145   5.943  13.102
63877SOL     OW93527   4.131   7.154  14.354
63877SOL    HW193528   4.079   7.210  14.411
63877SOL    HW293529   4.151   7.077  14.407
63878SOL     OW93530  11.559   5.633   5.347
63878SOL    HW193531  11.494   5.567   5.370
63878SOL    HW293532  11.566   5.688   5.425
63879SOL     OW93533   4.734   3.635   7.232
63879SOL    HW193534   4.651   3.637   7.280
63879SOL    HW293535   4.740   3.545   7.200
63880SOL     OW93536   6.818   0.868   9.127
63880SOL    HW193537   6.816   0.894   9.219
63880SOL    HW293538   6.889   0.805   9.122
63881SOL     OW93539  14.707  12.662  11.961
63881SOL    HW193540  14.651  12.730  11.998
63881SOL    HW293541  14.693  12.586  12.018
63882SOL     OW93542  13.348   2.971   3.338
63882SOL    HW193543  13.423   2.932   3.382
63882SOL    HW293544  13.275   2.959   3.399
63883SOL     OW93545   1.066   5.882   0.684
63883SOL    HW193546   1.030   5.862   0.598
63883SOL    HW293547   1.154   5.845   0.683
63884SOL     OW93548   5.152   5.162  13.376
63884SOL    HW193549   5.069   5.199  13.406
63884SOL    HW293550   5.215   5.184  13.445
63885SOL     OW93551  11.467   8.682  13.065
63885SOL    HW193552  11.423   8.598  13.051
63885SOL    HW293553  11.560   8.663  13.051
63886SOL     OW93554   3.796  11.258  11.058
63886SOL    HW193555   3.775  11.321  11.127
63886SOL    HW293556   3.724  11.195  11.061
63887SOL     OW93557  10.017   1.980   8.809
63887SOL    HW193558  10.021   1.963   8.715
63887SOL    HW293559   9.928   2.011   8.824
63888SOL     OW93560   7.370   5.044   9.328
63888SOL    HW193561   7.369   5.138   9.340
63888SOL    HW293562   7.458   5.017   9.355
63889SOL     OW93563   3.534  14.350  11.091
63889SOL    HW193564   3.504  14.269  11.049
63889SOL    HW293565   3.527  14.333  11.185
63890SOL     OW93566   6.125   0.069   7.950
63890SOL    HW193567   6.045   0.102   7.908
63890SOL    HW293568   6.151  14.873   7.896
63891SOL     OW93569   0.923   5.809   6.276
63891SOL    HW193570   0.859   5.794   6.206
63891SOL    HW293571   0.878   5.865   6.339
63892SOL     OW93572  11.540   4.789   1.629
63892SOL    HW193573  11.605   4.748   1.686
63892SOL    HW293574  11.531   4.878   1.664
63893SOL     OW93575  11.810  11.020   5.154
63893SOL    HW193576  11.770  10.955   5.212
63893SOL    HW293577  11.778  11.104   5.186
63894SOL     OW93578   7.771   9.345  11.060
63894SOL    HW193579   7.688   9.326  11.017
63894SOL    HW293580   7.797   9.430  11.025
63895SOL     OW93581  12.917  11.548   6.882
63895SOL    HW193582  12.917  11.506   6.796
63895SOL    HW293583  12.942  11.639   6.865
63896SOL     OW93584   2.549  10.956   9.205
63896SOL    HW193585   2.519  10.923   9.290
63896SOL    HW293586   2.528  11.049   9.206
63897SOL     OW93587   9.155   2.331   0.228
63897SOL    HW193588   9.062   2.332   0.248
63897SOL    HW293589   9.190   2.259   0.281
63898SOL     OW93590  11.562   6.003  12.313
63898SOL    HW193591  11.604   5.985  12.397
63898SOL    HW293592  11.623   5.972  12.247
63899SOL     OW93593   7.065  14.206   6.175
63899SOL    HW193594   7.127  14.189   6.246
63899SOL    HW293595   7.107  14.170   6.097
63900SOL     OW93596   6.909   4.904   6.277
63900SOL    HW193597   6.990   4.878   6.233
63900SOL    HW293598   6.934   4.978   6.332
63901SOL     OW93599   3.860  11.908   3.597
63901SOL    HW193600   3.953  11.929   3.607
63901SOL    HW293601   3.860  11.819   3.563
63902SOL     OW93602   6.661   4.583  11.921
63902SOL    HW193603   6.667   4.553  11.830
63902SOL    HW293604   6.748   4.619  11.940
63903SOL     OW93605  13.002  13.047   5.733
63903SOL    HW193606  13.078  13.022   5.680
63903SOL    HW293607  12.954  12.966   5.746
63904SOL     OW93608   8.603  12.787   1.482
63904SOL    HW193609   8.547  12.839   1.540
63904SOL    HW293610   8.549  12.771   1.405
63905SOL     OW93611   5.209   5.115   6.718
63905SOL    HW193612   5.232   5.137   6.808
63905SOL    HW293613   5.116   5.137   6.711
63906SOL     OW93614   7.287  14.300   4.916
63906SOL    HW193615   7.350  14.261   4.977
63906SOL    HW293616   7.339  14.323   4.839
63907SOL     OW93617   8.742  13.012   8.848
63907SOL    HW193618   8.738  13.048   8.937
63907SOL    HW293619   8.687  12.934   8.851
63908SOL     OW93620  11.598   1.706   9.455
63908SOL    HW193621  11.521   1.757   9.431
63908SOL    HW293622  11.578   1.617   9.427
63909SOL     OW93623   3.173   4.788   0.376
63909SOL    HW193624   3.259   4.798   0.416
63909SOL    HW293625   3.170   4.697   0.347
63910SOL     OW93626   1.194  13.293   9.137
63910SOL    HW193627   1.182  13.334   9.052
63910SOL    HW293628   1.159  13.356   9.200
63911SOL     OW93629   9.723  13.427   2.861
63911SOL    HW193630   9.648  13.375   2.832
63911SOL    HW293631   9.750  13.476   2.784
63912SOL     OW93632   7.534   9.094  12.427
63912SOL    HW193633   7.558   9.023  12.486
63912SOL    HW293634   7.554   9.174  12.476
63913SOL     OW93635  14.370   5.926   6.238
63913SOL    HW193636  14.303   5.861   6.254
63913SOL    HW293637  14.402   5.907   6.149
63914SOL     OW93638   1.481   1.385  12.820
63914SOL    HW193639   1.495   1.476  12.792
63914SOL    HW293640   1.569   1.350  12.831
63915SOL     OW93641   6.975   0.891   4.120
63915SOL    HW193642   7.062   0.932   4.121
63915SOL    HW293643   6.990   0.802   4.152
63916SOL     OW93644  11.048  12.868  12.105
63916SOL    HW193645  11.078  12.876  12.015
63916SOL    HW293646  11.089  12.942  12.151
63917SOL     OW93647  14.724   5.488   8.969
63917SOL    HW193648  14.727   5.465   8.876
63917SOL    HW293649  14.665   5.424   9.008
63918SOL     OW93650  12.489   8.387   7.358
63918SOL    HW193651  12.552   8.325   7.321
63918SOL    HW293652  12.468   8.352   7.444
63919SOL     OW93653   4.426   9.240   5.069
63919SOL    HW193654   4.510   9.268   5.106
63919SOL    HW293655   4.420   9.147   5.092
63920SOL     OW93656   4.421   9.960   2.726
63920SOL    HW193657   4.404   9.953   2.820
63920SOL    HW293658   4.426   9.869   2.696
63921SOL     OW93659   4.352   6.736  13.663
63921SOL    HW193660   4.399   6.671  13.714
63921SOL    HW293661   4.298   6.685  13.602
63922SOL     OW93662   5.692   4.453   5.605
63922SOL    HW193663   5.667   4.365   5.633
63922SOL    HW293664   5.782   4.463   5.637
63923SOL     OW93665   0.216   5.434  11.170
63923SOL    HW193666   0.308   5.458  11.183
63923SOL    HW293667   0.218   5.342  11.146
63924SOL     OW93668   6.933   8.743   9.001
63924SOL    HW193669   6.961   8.834   8.996
63924SOL    HW293670   7.011   8.692   8.981
63925SOL     OW93671  10.811  11.734  12.624
63925SOL    HW193672  10.791  11.643  12.603
63925SOL    HW293673  10.903  11.745  12.598
63926SOL     OW93674   8.563   8.273   9.812
63926SOL    HW193675   8.644   8.276   9.863
63926SOL    HW293676   8.515   8.351   9.840
63927SOL     OW93677   0.345   9.963   5.493
63927SOL    HW193678   0.309   9.920   5.416
63927SOL    HW293679   0.270   9.977   5.551
63928SOL     OW93680  13.550   3.933  13.847
63928SOL    HW193681  13.582   4.021  13.823
63928SOL    HW293682  13.507   3.946  13.931
63929SOL     OW93683   7.494  11.476   6.043
63929SOL    HW193684   7.496  11.528   5.963
63929SOL    HW293685   7.511  11.386   6.014
63930SOL     OW93686   7.881   1.843   0.181
63930SOL    HW193687   7.927   1.927   0.180
63930SOL    HW293688   7.945   1.780   0.145
63931SOL     OW93689  12.158  10.035   3.522
63931SOL    HW193690  12.237   9.985   3.543
63931SOL    HW293691  12.181  10.125   3.543
63932SOL     OW93692   8.812   3.957  10.552
63932SOL    HW193693   8.755   4.020  10.596
63932SOL    HW293694   8.898   3.968  10.592
63933SOL     OW93695   2.020  11.278   6.366
63933SOL    HW193696   2.021  11.307   6.275
63933SOL    HW293697   2.074  11.342   6.412
63934SOL     OW93698  14.326  13.642   2.120
63934SOL    HW193699  14.303  13.678   2.205
63934SOL    HW293700  14.422  13.639   2.120
63935SOL     OW93701  10.928  13.039   0.375
63935SOL    HW193702  10.918  12.950   0.341
63935SOL    HW293703  10.996  13.031   0.442
63936SOL     OW93704   2.695   5.321  14.372
63936SOL    HW193705   2.713   5.369  14.291
63936SOL    HW293706   2.772   5.338  14.427
63937SOL     OW93707   1.270   5.060   5.154
63937SOL    HW193708   1.340   5.027   5.098
63937SOL    HW293709   1.310   5.069   5.241
63938SOL     OW93710   3.038   6.728   8.444
63938SOL    HW193711   2.984   6.806   8.431
63938SOL    HW293712   3.058   6.728   8.538
63939SOL     OW93713  10.223   4.947   3.743
63939SOL    HW193714  10.145   4.918   3.791
63939SOL    HW293715  10.204   4.927   3.652
63940SOL     OW93716   0.551  10.605   4.879
63940SOL    HW193717   0.562  10.516   4.911
63940SOL    HW293718   0.590  10.660   4.946
63941SOL     OW93719   8.009   4.229   2.579
63941SOL    HW193720   7.988   4.223   2.672
63941SOL    HW293721   8.104   4.223   2.575
63942SOL     OW93722   7.010   8.096  11.530
63942SOL    HW193723   7.082   8.157  11.548
63942SOL    HW293724   7.047   8.033  11.468
63943SOL     OW93725  10.101   5.297  10.440
63943SOL    HW193726  10.017   5.286  10.484
63943SOL    HW293727  10.137   5.208  10.435
63944SOL     OW93728   9.599   1.096   9.455
63944SOL    HW193729   9.601   1.026   9.520
63944SOL    HW293730   9.507   1.102   9.428
63945SOL     OW93731   9.309   7.830   5.823
63945SOL    HW193732   9.397   7.867   5.816
63945SOL    HW293733   9.293   7.823   5.917
63946SOL     OW93734   0.822  10.532   3.719
63946SOL    HW193735   0.730  10.554   3.731
63946SOL    HW293736   0.829  10.503   3.628
63947SOL     OW93737   1.813  12.482   8.485
63947SOL    HW193738   1.719  12.472   8.474
63947SOL    HW293739   1.833  12.438   8.568
63948SOL     OW93740   1.242   6.072   2.332
63948SOL    HW193741   1.310   6.022   2.377
63948SOL    HW293742   1.258   6.163   2.358
63949SOL     OW93743   3.515   2.760   9.643
63949SOL    HW193744   3.604   2.788   9.663
63949SOL    HW293745   3.480   2.729   9.727
63950SOL     OW93746   4.977   0.725  10.613
63950SOL    HW193747   4.981   0.657  10.546
63950SOL    HW293748   5.046   0.787  10.590
63951SOL     OW93749   1.719   1.628   2.586
63951SOL    HW193750   1.690   1.687   2.517
63951SOL    HW293751   1.670   1.657   2.664
63952SOL     OW93752   6.681  10.627   0.242
63952SOL    HW193753   6.755  10.659   0.294
63952SOL    HW293754   6.690  10.670   0.157
63953SOL     OW93755   0.207  10.654   9.342
63953SOL    HW193756   0.131  10.606   9.312
63953SOL    HW293757   0.226  10.716   9.272
63954SOL     OW93758   5.831   8.657  14.316
63954SOL    HW193759   5.737   8.671  14.307
63954SOL    HW293760   5.838   8.589  14.384
63955SOL     OW93761   5.806   9.787   6.780
63955SOL    HW193762   5.710   9.782   6.786
63955SOL    HW293763   5.829   9.715   6.721
63956SOL     OW93764   4.211   1.732  11.695
63956SOL    HW193765   4.181   1.665  11.634
63956SOL    HW293766   4.276   1.688  11.749
63957SOL     OW93767  12.296   2.154   9.590
63957SOL    HW193768  12.304   2.250   9.593
63957SOL    HW293769  12.214   2.135   9.635
63958SOL     OW93770   2.838   2.713  12.189
63958SOL    HW193771   2.776   2.749  12.126
63958SOL    HW293772   2.786   2.650  12.240
63959SOL     OW93773  12.760  12.915   9.111
63959SOL    HW193774  12.742  12.992   9.165
63959SOL    HW293775  12.682  12.860   9.121
63960SOL     OW93776   2.137  13.879  14.804
63960SOL    HW193777   2.212  13.893  14.862
63960SOL    HW293778   2.135  13.784  14.790
63961SOL     OW93779   9.874  11.256   9.106
63961SOL    HW193780   9.802  11.215   9.156
63961SOL    HW293781   9.931  11.293   9.173
63962SOL     OW93782   1.471  14.032  11.262
63962SOL    HW193783   1.462  14.006  11.171
63962SOL    HW293784   1.419  13.968  11.311
63963SOL     OW93785  13.931   3.647   4.506
63963SOL    HW193786  13.999   3.592   4.469
63963SOL    HW293787  13.849   3.606   4.478
63964SOL     OW93788   5.291   1.064  14.794
63964SOL    HW193789   5.338   0.991  14.835
63964SOL    HW293790   5.351   1.138  14.802
63965SOL     OW93791   6.835   5.973   3.027
63965SOL    HW193792   6.779   5.939   3.096
63965SOL    HW293793   6.855   5.897   2.972
63966SOL     OW93794   5.565   0.666   9.232
63966SOL    HW193795   5.510   0.742   9.217
63966SOL    HW293796   5.520   0.594   9.187
63967SOL     OW93797   7.015   0.033   2.866
63967SOL    HW193798   6.981  14.845   2.804
63967SOL    HW293799   6.992  14.876   2.952
63968SOL     OW93800   6.318   1.172  11.800
63968SOL    HW193801   6.331   1.078  11.815
63968SOL    HW293802   6.232   1.178  11.758
63969SOL     OW93803   2.647   5.384  10.802
63969SOL    HW193804   2.711   5.315  10.817
63969SOL    HW293805   2.699   5.460  10.776
63970SOL     OW93806   7.204   8.928   3.698
63970SOL    HW193807   7.299   8.917   3.700
63970SOL    HW293808   7.178   8.900   3.610
63971SOL     OW93809   8.695   7.079   6.015
63971SOL    HW193810   8.673   6.992   6.047
63971SOL    HW293811   8.623   7.103   5.958
63972SOL     OW93812  14.868   6.207  12.102
63972SOL    HW193813   0.070   6.170  12.139
63972SOL    HW293814  14.808   6.215  12.176
63973SOL     OW93815  11.397  10.091   5.900
63973SOL    HW193816  11.475  10.093   5.954
63973SOL    HW293817  11.376   9.998   5.890
63974SOL     OW93818   6.886   5.753   9.078
63974SOL    HW193819   6.943   5.706   9.018
63974SOL    HW293820   6.904   5.714   9.164
63975SOL     OW93821  11.980  11.301   9.469
63975SOL    HW193822  12.024  11.339   9.546
63975SOL    HW293823  11.889  11.327   9.479
63976SOL     OW93824   3.822   5.194   1.952
63976SOL    HW193825   3.827   5.270   1.893
63976SOL    HW293826   3.911   5.161   1.956
63977SOL     OW93827  14.465   9.181   9.938
63977SOL    HW193828  14.414   9.251   9.896
63977SOL    HW293829  14.541   9.225   9.975
63978SOL     OW93830   1.350   5.954   4.092
63978SOL    HW193831   1.294   5.915   4.159
63978SOL    HW293832   1.415   6.005   4.141
63979SOL     OW93833   4.346  12.194   3.501
63979SOL    HW193834   4.327  12.108   3.464
63979SOL    HW293835   4.394  12.175   3.581
63980SOL     OW93836  12.854  12.565   7.727
63980SOL    HW193837  12.884  12.656   7.735
63980SOL    HW293838  12.894  12.534   7.646
63981SOL     OW93839  11.078  14.332   7.661
63981SOL    HW193840  11.077  14.289   7.576
63981SOL    HW293841  11.162  14.308   7.700
63982SOL     OW93842   2.809   4.874   5.512
63982SOL    HW193843   2.823   4.912   5.426
63982SOL    HW293844   2.824   4.780   5.499
63983SOL     OW93845   0.206  10.868   9.129
63983SOL    HW193846   0.243  10.951   9.103
63983SOL    HW293847   0.219  10.810   9.054
63984SOL     OW93848  14.807  13.182  11.858
63984SOL    HW193849  14.843  13.128  11.787
63984SOL    HW293850   0.003  13.196  11.917
63985SOL     OW93851   1.588   9.820   0.949
63985SOL    HW193852   1.674   9.813   0.990
63985SOL    HW293853   1.605   9.863   0.865
63986SOL     OW93854   7.482   7.703   9.962
63986SOL    HW193855   7.406   7.661  10.002
63986SOL    HW293856   7.468   7.693   9.868
63987SOL     OW93857   4.002  10.841   8.524
63987SOL    HW193858   3.994  10.865   8.617
63987SOL    HW293859   3.911  10.834   8.493
63988SOL     OW93860   9.855  10.779   7.417
63988SOL    HW193861   9.854  10.799   7.511
63988SOL    HW293862   9.900  10.854   7.377
63989SOL     OW93863  10.765   9.913   2.678
63989SOL    HW193864  10.843   9.968   2.674
63989SOL    HW293865  10.777   9.861   2.758
63990SOL     OW93866  13.520  14.346   9.402
63990SOL    HW193867  13.600  14.392   9.377
63990SOL    HW293868  13.472  14.334   9.319
63991SOL     OW93869  10.127   1.325   2.813
63991SOL    HW193870  10.112   1.402   2.868
63991SOL    HW293871  10.188   1.271   2.863
63992SOL     OW93872   7.917   8.108  10.559
63992SOL    HW193873   7.856   8.181  10.554
63992SOL    HW293874   7.920   8.086  10.652
63993SOL     OW93875   7.534  12.764   0.273
63993SOL    HW193876   7.445  12.746   0.242
63993SOL    HW293877   7.559  12.685   0.321
63994SOL     OW93878   2.828   9.480  11.106
63994SOL    HW193879   2.820   9.564  11.151
63994SOL    HW293880   2.802   9.499  11.016
63995SOL     OW93881   1.243   8.987  14.318
63995SOL    HW193882   1.163   8.935  14.308
63995SOL    HW293883   1.239   9.019  14.408
63996SOL     OW93884   2.535   0.084   9.473
63996SOL    HW193885   2.529   0.110   9.565
63996SOL    HW293886   2.596   0.010   9.474
63997SOL     OW93887   8.331  10.001   3.139
63997SOL    HW193888   8.365  10.082   3.101
63997SOL    HW293889   8.406   9.941   3.140
63998SOL     OW93890   8.019   9.362  10.139
63998SOL    HW193891   7.958   9.394  10.205
63998SOL    HW293892   7.975   9.285  10.101
63999SOL     OW93893   8.914  10.327   7.523
63999SOL    HW193894   8.936  10.238   7.551
63999SOL    HW293895   8.849  10.357   7.587
64000SOL     OW93896   7.591   3.531   0.575
64000SOL    HW193897   7.502   3.497   0.570
64000SOL    HW293898   7.645   3.461   0.537
64001SOL     OW93899   3.230   8.185  11.519
64001SOL    HW193900   3.303   8.192  11.581
64001SOL    HW293901   3.159   8.147  11.570
64002SOL     OW93902   8.177   2.007  13.923
64002SOL    HW193903   8.144   1.935  13.870
64002SOL    HW293904   8.168   2.084  13.867
64003SOL     OW93905  12.272   3.419   3.077
64003SOL    HW193906  12.238   3.332   3.058
64003SOL    HW293907  12.221   3.448   3.154
64004SOL     OW93908  13.897   5.077  14.345
64004SOL    HW193909  13.934   5.064  14.433
64004SOL    HW293910  13.831   5.144  14.356
64005SOL     OW93911   3.958   1.316   4.643
64005SOL    HW193912   3.872   1.297   4.607
64005SOL    HW293913   3.963   1.412   4.646
64006SOL     OW93914   0.186  10.305  10.353
64006SOL    HW193915   0.264  10.310  10.298
64006SOL    HW293916   0.174  10.211  10.369
64007SOL     OW93917  11.016   7.081   6.929
64007SOL    HW193918  11.083   7.077   6.997
64007SOL    HW293919  11.007   7.175   6.910
64008SOL     OW93920   3.553   9.789   7.822
64008SOL    HW193921   3.550   9.754   7.733
64008SOL    HW293922   3.539   9.883   7.811
64009SOL     OW93923   3.311   8.096   5.734
64009SOL    HW193924   3.365   8.036   5.787
64009SOL    HW293925   3.223   8.085   5.768
64010SOL     OW93926  10.546  14.151  12.721
64010SOL    HW193927  10.522  14.197  12.802
64010SOL    HW293928  10.612  14.087  12.749
64011SOL     OW93929   3.824   0.075   3.709
64011SOL    HW193930   3.758   0.140   3.733
64011SOL    HW293931   3.806   0.055   3.617
64012SOL     OW93932   8.359  14.469   7.506
64012SOL    HW193933   8.366  14.384   7.550
64012SOL    HW293934   8.403  14.456   7.422
64013SOL     OW93935  13.976   8.220   4.471
64013SOL    HW193936  13.902   8.257   4.520
64013SOL    HW293937  14.012   8.153   4.530
64014SOL     OW93938   8.141   7.214   0.323
64014SOL    HW193939   8.200   7.271   0.371
64014SOL    HW293940   8.187   7.130   0.318
64015SOL     OW93941   4.600   3.208   7.466
64015SOL    HW193942   4.674   3.226   7.524
64015SOL    HW293943   4.541   3.283   7.478
64016SOL     OW93944   6.870  14.106   0.599
64016SOL    HW193945   6.925  14.168   0.646
64016SOL    HW293946   6.786  14.151   0.588
64017SOL     OW93947  13.197   0.188   1.094
64017SOL    HW193948  13.219   0.234   1.175
64017SOL    HW293949  13.111   0.221   1.070
64018SOL     OW93950  11.138  11.109   1.058
64018SOL    HW193951  11.195  11.036   1.084
64018SOL    HW293952  11.196  11.184   1.052
64019SOL     OW93953   7.222   7.100   7.603
64019SOL    HW193954   7.255   7.024   7.650
64019SOL    HW293955   7.127   7.098   7.616
64020SOL     OW93956   1.665   0.854  11.340
64020SOL    HW193957   1.695   0.842  11.249
64020SOL    HW293958   1.642   0.765  11.368
64021SOL     OW93959   2.620   5.460  12.670
64021SOL    HW193960   2.674   5.392  12.712
64021SOL    HW293961   2.683   5.521  12.632
64022SOL     OW93962   7.131   4.558   9.411
64022SOL    HW193963   7.168   4.644   9.431
64022SOL    HW293964   7.039   4.565   9.437
64023SOL     OW93965   2.802  14.544  13.831
64023SOL    HW193966   2.724  14.591  13.802
64023SOL    HW293967   2.785  14.522  13.922
64024SOL     OW93968   0.798   0.259   7.816
64024SOL    HW193969   0.829   0.271   7.726
64024SOL    HW293970   0.716   0.308   7.821
64025SOL     OW93971   3.732  14.179   3.286
64025SOL    HW193972   3.734  14.120   3.211
64025SOL    HW293973   3.717  14.121   3.362
64026SOL     OW93974  11.604   4.369  13.912
64026SOL    HW193975  11.527   4.353  13.858
64026SOL    HW293976  11.641   4.282  13.928
64027SOL     OW93977  11.045   1.371   5.485
64027SOL    HW193978  11.055   1.466   5.490
64027SOL    HW293979  11.135   1.338   5.480
64028SOL     OW93980   9.807   8.755   3.155
64028SOL    HW193981   9.783   8.845   3.133
64028SOL    HW293982   9.809   8.709   3.071
64029SOL     OW93983   1.145  12.061   9.115
64029SOL    HW193984   1.076  12.016   9.163
64029SOL    HW293985   1.179  12.125   9.178
64030SOL     OW93986   8.487   6.850   4.097
64030SOL    HW193987   8.478   6.792   4.172
64030SOL    HW293988   8.397   6.868   4.070
64031SOL     OW93989  12.902  11.429   7.623
64031SOL    HW193990  12.923  11.465   7.537
64031SOL    HW293991  12.956  11.480   7.684
64032SOL     OW93992  12.677   0.395   4.110
64032SOL    HW193993  12.712   0.321   4.062
64032SOL    HW293994  12.711   0.384   4.199
64033SOL     OW93995  12.654   9.064   4.482
64033SOL    HW193996  12.602   9.055   4.403
64033SOL    HW293997  12.726   9.001   4.471
64034SOL     OW93998  10.125   9.297  14.794
64034SOL    HW193999  10.197   9.270  14.736
64034SOL    HW294000  10.107   9.219  14.847
64035SOL     OW94001  10.292   7.603   0.748
64035SOL    HW194002  10.287   7.632   0.839
64035SOL    HW294003  10.201   7.589   0.722
64036SOL     OW94004   8.305  10.630  11.844
64036SOL    HW194005   8.268  10.565  11.784
64036SOL    HW294006   8.229  10.666  11.890
64037SOL     OW94007   0.803   4.021  10.609
64037SOL    HW194008   0.781   4.109  10.642
64037SOL    HW294009   0.771   4.021  10.519
64038SOL     OW94010  11.915   3.926   0.439
64038SOL    HW194011  11.967   3.937   0.518
64038SOL    HW294012  11.849   3.861   0.462
64039SOL     OW94013   7.810  11.969  13.157
64039SOL    HW194014   7.813  12.032  13.228
64039SOL    HW294015   7.869  12.004  13.091
64040SOL     OW94016   7.749   6.584   2.836
64040SOL    HW194017   7.752   6.492   2.808
64040SOL    HW294018   7.757   6.579   2.932
64041SOL     OW94019  14.746   5.486   1.810
64041SOL    HW194020  14.819   5.426   1.795
64041SOL    HW294021  14.717   5.467   1.899
64042SOL     OW94022   5.872  13.274   6.270
64042SOL    HW194023   5.900  13.238   6.186
64042SOL    HW294024   5.903  13.211   6.335
64043SOL     OW94025  11.641  10.920   8.270
64043SOL    HW194026  11.627  10.946   8.180
64043SOL    HW294027  11.656  10.825   8.266
64044SOL     OW94028  10.171  13.647  11.147
64044SOL    HW194029  10.121  13.588  11.202
64044SOL    HW294030  10.155  13.616  11.058
64045SOL     OW94031   9.043   1.267   1.291
64045SOL    HW194032   9.022   1.267   1.197
64045SOL    HW294033   8.969   1.223   1.332
64046SOL     OW94034   4.054  11.950   7.446
64046SOL    HW194035   4.037  11.949   7.540
64046SOL    HW294036   4.050  12.042   7.421
64047SOL     OW94037   2.241   5.986   9.952
64047SOL    HW194038   2.276   5.905   9.914
64047SOL    HW294039   2.154   5.962   9.983
64048SOL     OW94040  10.102   0.527  13.455
64048SOL    HW194041  10.018   0.567  13.478
64048SOL    HW294042  10.085   0.479  13.375
64049SOL     OW94043   2.967  11.469   6.977
64049SOL    HW194044   2.927  11.493   6.894
64049SOL    HW294045   2.984  11.552   7.021
64050SOL     OW94046  13.451   2.944   6.858
64050SOL    HW194047  13.367   2.986   6.840
64050SOL    HW294048  13.436   2.851   6.839
64051SOL     OW94049   9.567  10.116   7.390
64051SOL    HW194050   9.645  10.076   7.430
64051SOL    HW294051   9.533  10.048   7.333
64052SOL     OW94052   5.251  13.614   7.665
64052SOL    HW194053   5.282  13.523   7.666
64052SOL    HW294054   5.330  13.666   7.658
64053SOL     OW94055  14.497  10.254   6.348
64053SOL    HW194056  14.540  10.198   6.283
64053SOL    HW294057  14.404  10.233   6.339
64054SOL     OW94058   4.220   5.338   1.014
64054SOL    HW194059   4.191   5.282   1.087
64054SOL    HW294060   4.306   5.304   0.990
64055SOL     OW94061   8.296  12.091   2.591
64055SOL    HW194062   8.225  12.058   2.536
64055SOL    HW294063   8.329  12.013   2.636
64056SOL     OW94064  12.821   2.388   5.800
64056SOL    HW194065  12.859   2.332   5.732
64056SOL    HW294066  12.819   2.333   5.878
64057SOL     OW94067   2.182  12.850  12.717
64057SOL    HW194068   2.158  12.943  12.717
64057SOL    HW294069   2.216  12.834  12.805
64058SOL     OW94070  10.880   4.756   6.319
64058SOL    HW194071  10.901   4.840   6.278
64058SOL    HW294072  10.918   4.762   6.406
64059SOL     OW94073  14.449  12.390   7.839
64059SOL    HW194074  14.476  12.480   7.856
64059SOL    HW294075  14.363  12.382   7.880
64060SOL     OW94076  13.155  11.388  13.396
64060SOL    HW194077  13.190  11.439  13.469
64060SOL    HW294078  13.151  11.298  13.430
64061SOL     OW94079  12.337   9.535   4.657
64061SOL    HW194080  12.305   9.465   4.715
64061SOL    HW294081  12.333   9.496   4.570
64062SOL     OW94082   2.318   6.667  12.071
64062SOL    HW194083   2.298   6.649  12.163
64062SOL    HW294084   2.307   6.583  12.027
64063SOL     OW94085  11.826   2.075   4.960
64063SOL    HW194086  11.841   2.154   4.908
64063SOL    HW294087  11.738   2.046   4.934
64064SOL     OW94088   9.858  10.437   4.693
64064SOL    HW194089   9.789  10.413   4.632
64064SOL    HW294090   9.932  10.463   4.638
64065SOL     OW94091   1.973  13.633  10.835
64065SOL    HW194092   1.987  13.726  10.817
64065SOL    HW294093   2.009  13.619  10.923
64066SOL     OW94094   1.051   9.802  14.655
64066SOL    HW194095   1.101   9.762  14.584
64066SOL    HW294096   1.116   9.851  14.705
64067SOL     OW94097   9.391   7.806   6.103
64067SOL    HW194098   9.425   7.896   6.101
64067SOL    HW294099   9.317   7.809   6.164
64068SOL     OW94100   3.519   6.022   3.994
64068SOL    HW194101   3.494   6.098   4.047
64068SOL    HW294102   3.506   5.948   4.052
64069SOL     OW94103  14.219  10.790   8.364
64069SOL    HW194104  14.208  10.859   8.298
64069SOL    HW294105  14.139  10.738   8.359
64070SOL     OW94106  13.051   7.031  10.291
64070SOL    HW194107  13.101   7.071  10.220
64070SOL    HW294108  13.085   7.071  10.371
64071SOL     OW94109   2.582   5.633   1.904
64071SOL    HW194110   2.559   5.712   1.952
64071SOL    HW294111   2.508   5.574   1.916
64072SOL     OW94112  12.880   1.930  14.248
64072SOL    HW194113  12.842   2.000  14.195
64072SOL    HW294114  12.876   1.852  14.193
64073SOL     OW94115  11.543   3.693   3.948
64073SOL    HW194116  11.495   3.763   3.992
64073SOL    HW294117  11.490   3.615   3.962
64074SOL     OW94118   7.591   6.360   6.748
64074SOL    HW194119   7.654   6.433   6.742
64074SOL    HW294120   7.551   6.357   6.661
64075SOL     OW94121   5.273   3.034   5.508
64075SOL    HW194122   5.276   3.027   5.413
64075SOL    HW294123   5.282   2.944   5.539
64076SOL     OW94124   5.578   0.332   0.067
64076SOL    HW194125   5.657   0.328   0.120
64076SOL    HW294126   5.579   0.252   0.015
64077SOL     OW94127  13.276   6.564   5.504
64077SOL    HW194128  13.241   6.528   5.422
64077SOL    HW294129  13.309   6.650   5.480
64078SOL     OW94130  13.238   2.283  12.200
64078SOL    HW194131  13.280   2.338  12.266
64078SOL    HW294132  13.279   2.309  12.117
64079SOL     OW94133   3.784   8.462  14.093
64079SOL    HW194134   3.744   8.481  14.178
64079SOL    HW294135   3.810   8.370  14.098
64080SOL     OW94136   4.738   0.809  12.273
64080SOL    HW194137   4.797   0.848  12.208
64080SOL    HW294138   4.662   0.780  12.222
64081SOL     OW94139   2.268   6.787   0.753
64081SOL    HW194140   2.295   6.697   0.733
64081SOL    HW294141   2.275   6.833   0.669
64082SOL     OW94142   2.670   3.033   8.509
64082SOL    HW194143   2.733   3.101   8.530
64082SOL    HW294144   2.602   3.078   8.457
64083SOL     OW94145   1.830   6.080   4.370
64083SOL    HW194146   1.888   6.134   4.318
64083SOL    HW294147   1.795   6.139   4.437
64084SOL     OW94148   9.700  14.114   9.576
64084SOL    HW194149   9.736  14.026   9.563
64084SOL    HW294150   9.735  14.143   9.660
64085SOL     OW94151   8.719  10.127   2.282
64085SOL    HW194152   8.708  10.172   2.365
64085SOL    HW294153   8.784  10.059   2.300
64086SOL     OW94154   1.322  13.522   6.600
64086SOL    HW194155   1.257  13.506   6.533
64086SOL    HW294156   1.365  13.438   6.614
64087SOL     OW94157  13.944   8.123   6.059
64087SOL    HW194158  13.897   8.039   6.058
64087SOL    HW294159  14.020   8.107   6.115
64088SOL     OW94160   8.045   0.858   4.294
64088SOL    HW194161   8.076   0.767   4.298
64088SOL    HW294162   8.116   0.906   4.251
64089SOL     OW94163   7.917   4.836   1.903
64089SOL    HW194164   7.878   4.835   1.991
64089SOL    HW294165   8.004   4.799   1.915
64090SOL     OW94166  12.471   3.621   6.791
64090SOL    HW194167  12.564   3.622   6.769
64090SOL    HW294168  12.466   3.662   6.878
64091SOL     OW94169   0.062  11.575   0.686
64091SOL    HW194170  14.865  11.630   0.663
64091SOL    HW294171   0.136  11.636   0.691
64092SOL     OW94172   7.000   5.703  11.304
64092SOL    HW194173   6.986   5.711  11.398
64092SOL    HW294174   6.921   5.740  11.264
64093SOL     OW94175   1.708   7.030   0.861
64093SOL    HW194176   1.727   6.955   0.804
64093SOL    HW294177   1.733   7.001   0.949
64094SOL     OW94178   8.602   7.781  13.719
64094SOL    HW194179   8.542   7.749  13.651
64094SOL    HW294180   8.607   7.710  13.782
64095SOL     OW94181   2.979   5.735   8.745
64095SOL    HW194182   3.013   5.648   8.765
64095SOL    HW294183   2.981   5.741   8.650
64096SOL     OW94184   8.399   7.809   8.337
64096SOL    HW194185   8.402   7.723   8.295
64096SOL    HW294186   8.349   7.793   8.418
64097SOL     OW94187   9.109  12.012  13.685
64097SOL    HW194188   9.120  11.923  13.652
64097SOL    HW294189   9.180  12.022  13.750
64098SOL     OW94190  11.932   4.365  13.126
64098SOL    HW194191  11.955   4.451  13.090
64098SOL    HW294192  11.903   4.384  13.215
64099SOL     OW94193   7.817  13.686  12.733
64099SOL    HW194194   7.789  13.776  12.716
64099SOL    HW294195   7.793  13.670  12.825
64100SOL     OW94196   3.547   4.618  14.258
64100SOL    HW194197   3.642   4.624  14.267
64100SOL    HW294198   3.531   4.622  14.164
64101SOL     OW94199   2.519   5.945   2.613
64101SOL    HW194200   2.517   5.934   2.518
64101SOL    HW294201   2.427   5.942   2.640
64102SOL     OW94202  13.151  12.562  12.083
64102SOL    HW194203  13.091  12.528  12.017
64102SOL    HW294204  13.112  12.645  12.111
64103SOL     OW94205  13.136   1.754   6.672
64103SOL    HW194206  13.220   1.722   6.706
64103SOL    HW294207  13.098   1.678   6.627
64104SOL     OW94208  10.123   1.710   3.606
64104SOL    HW194209  10.197   1.762   3.574
64104SOL    HW294210  10.163   1.633   3.646
64105SOL     OW94211  10.095   5.643   1.781
64105SOL    HW194212  10.141   5.569   1.821
64105SOL    HW294213  10.015   5.653   1.833
64106SOL     OW94214   7.567   1.892   8.684
64106SOL    HW194215   7.584   1.829   8.754
64106SOL    HW294216   7.532   1.969   8.729
64107SOL     OW94217   6.485  12.680  13.669
64107SOL    HW194218   6.456  12.620  13.600
64107SOL    HW294219   6.522  12.624  13.737
64108SOL     OW94220   3.596  14.545  14.498
64108SOL    HW194221   3.522  14.497  14.536
64108SOL    HW294222   3.633  14.485  14.433
64109SOL     OW94223  14.812   6.373   8.006
64109SOL    HW194224  14.873   6.300   7.994
64109SOL    HW294225  14.748   6.362   7.936
64110SOL     OW94226  12.074   5.451   3.601
64110SOL    HW194227  12.163   5.425   3.578
64110SOL    HW294228  12.079   5.544   3.618
64111SOL     OW94229   7.131   5.807  13.098
64111SOL    HW194230   7.104   5.718  13.120
64111SOL    HW294231   7.114   5.857  13.178
64112SOL     OW94232  10.183   8.879   5.302
64112SOL    HW194233  10.196   8.844   5.213
64112SOL    HW294234  10.092   8.859   5.322
64113SOL     OW94235   9.232   6.413   0.820
64113SOL    HW194236   9.167   6.360   0.773
64113SOL    HW294237   9.233   6.496   0.773
64114SOL     OW94238   0.062  12.489  14.512
64114SOL    HW194239   0.110  12.489  14.429
64114SOL    HW294240  14.871  12.423  14.500
64115SOL     OW94241  11.283  13.641   4.923
64115SOL    HW194242  11.233  13.559   4.919
64115SOL    HW294243  11.218  13.710   4.908
64116SOL     OW94244  10.388  10.346   3.566
64116SOL    HW194245  10.419  10.381   3.483
64116SOL    HW294246  10.455  10.373   3.630
64117SOL     OW94247   4.164   6.838   3.673
64117SOL    HW194248   4.251   6.829   3.714
64117SOL    HW294249   4.144   6.931   3.679
64118SOL     OW94250  10.491  10.574   9.790
64118SOL    HW194251  10.465  10.485   9.766
64118SOL    HW294252  10.444  10.592   9.871
64119SOL     OW94253   2.218  11.729   6.224
64119SOL    HW194254   2.225  11.648   6.275
64119SOL    HW294255   2.295  11.780   6.250
64120SOL     OW94256   8.469   7.659  13.308
64120SOL    HW194257   8.482   7.578  13.259
64120SOL    HW294258   8.391   7.698  13.270
64121SOL     OW94259   7.649   0.018   7.949
64121SOL    HW194260   7.556   0.042   7.945
64121SOL    HW294261   7.675   0.011   7.857
64122SOL     OW94262  11.403  11.210  10.121
64122SOL    HW194263  11.334  11.234  10.183
64122SOL    HW294264  11.443  11.132  10.160
64123SOL     OW94265  10.861   8.893   5.993
64123SOL    HW194266  10.946   8.907   5.950
64123SOL    HW294267  10.859   8.958   6.063
64124SOL     OW94268  10.511   8.515  10.404
64124SOL    HW194269  10.441   8.579  10.392
64124SOL    HW294270  10.539   8.526  10.494
64125SOL     OW94271   6.810  13.317   7.760
64125SOL    HW194272   6.830  13.232   7.720
64125SOL    HW294273   6.796  13.298   7.853
64126SOL     OW94274   4.612   5.180   6.865
64126SOL    HW194275   4.627   5.192   6.772
64126SOL    HW294276   4.698   5.156   6.900
64127SOL     OW94277   1.836   1.545   6.498
64127SOL    HW194278   1.893   1.622   6.494
64127SOL    HW294279   1.885   1.481   6.549
64128SOL     OW94280  12.803  14.124   2.434
64128SOL    HW194281  12.818  14.063   2.506
64128SOL    HW294282  12.849  14.204   2.461
64129SOL     OW94283   9.752   7.070   2.089
64129SOL    HW194284   9.665   7.030   2.088
64129SOL    HW294285   9.738   7.158   2.056
64130SOL     OW94286  10.702   0.714  10.063
64130SOL    HW194287  10.745   0.730   9.979
64130SOL    HW294288  10.661   0.797  10.085
64131SOL     OW94289  12.815   0.994  12.726
64131SOL    HW194290  12.774   0.935  12.789
64131SOL    HW294291  12.890   0.945  12.693
64132SOL     OW94292   7.842   4.029   0.898
64132SOL    HW194293   7.793   4.100   0.856
64132SOL    HW294294   7.855   4.059   0.988
64133SOL     OW94295   1.080   0.646   2.740
64133SOL    HW194296   1.024   0.602   2.803
64133SOL    HW294297   1.169   0.624   2.767
64134SOL     OW94298   0.076  14.059   1.583
64134SOL    HW194299   0.098  14.034   1.493
64134SOL    HW294300   0.122  13.994   1.637
64135SOL     OW94301  11.327   2.305   2.430
64135SOL    HW194302  11.247   2.253   2.423
64135SOL    HW294303  11.396   2.244   2.405
64136SOL     OW94304   4.372   7.613  12.580
64136SOL    HW194305   4.305   7.670  12.542
64136SOL    HW294306   4.350   7.525  12.549
64137SOL     OW94307   4.016   5.813  11.751
64137SOL    HW194308   3.974   5.785  11.670
64137SOL    HW294309   4.110   5.806  11.734
64138SOL     OW94310   2.807   7.771   4.321
64138SOL    HW194311   2.828   7.813   4.237
64138SOL    HW294312   2.834   7.680   4.310
64139SOL     OW94313   3.979  11.486   8.035
64139SOL    HW194314   3.934  11.509   8.117
64139SOL    HW294315   4.057  11.437   8.064
64140SOL     OW94316   0.982  14.411   4.830
64140SOL    HW194317   0.930  14.367   4.897
64140SOL    HW294318   0.972  14.504   4.849
64141SOL     OW94319  12.902   6.507   5.444
64141SOL    HW194320  12.899   6.510   5.348
64141SOL    HW294321  12.898   6.413   5.465
64142SOL     OW94322   2.536   5.255  14.617
64142SOL    HW194323   2.576   5.292  14.538
64142SOL    HW294324   2.491   5.176  14.586
64143SOL     OW94325   8.420   2.451   7.874
64143SOL    HW194326   8.515   2.445   7.888
64143SOL    HW294327   8.402   2.385   7.808
64144SOL     OW94328   2.962   9.800  12.141
64144SOL    HW194329   3.011   9.881  12.152
64144SOL    HW294330   2.910   9.814  12.062
64145SOL     OW94331   7.201   9.748   5.141
64145SOL    HW194332   7.277   9.750   5.082
64145SOL    HW294333   7.199   9.834   5.181
64146SOL     OW94334   3.792   9.195   6.967
64146SOL    HW194335   3.852   9.145   7.023
64146SOL    HW294336   3.849   9.242   6.907
64147SOL     OW94337   0.686  10.580   0.999
64147SOL    HW194338   0.688  10.630   1.081
64147SOL    HW294339   0.676  10.647   0.931
64148SOL     OW94340   7.440   3.105   9.166
64148SOL    HW194341   7.467   3.024   9.123
64148SOL    HW294342   7.505   3.169   9.140
64149SOL     OW94343  13.452   6.577  12.478
64149SOL    HW194344  13.525   6.521  12.453
64149SOL    HW294345  13.490   6.641  12.538
64150SOL     OW94346   5.647  10.779  10.066
64150SOL    HW194347   5.713  10.746  10.127
64150SOL    HW294348   5.563  10.754  10.106
64151SOL     OW94349   1.578  11.935  10.542
64151SOL    HW194350   1.664  11.978  10.551
64151SOL    HW294351   1.561  11.936  10.448
64152SOL     OW94352   8.462  11.672  11.022
64152SOL    HW194353   8.414  11.618  10.958
64152SOL    HW294354   8.554  11.655  11.003
64153SOL     OW94355   5.352   4.241   2.669
64153SOL    HW194356   5.425   4.259   2.609
64153SOL    HW294357   5.289   4.193   2.615
64154SOL     OW94358   3.173   0.430  10.714
64154SOL    HW194359   3.237   0.498  10.735
64154SOL    HW294360   3.162   0.382  10.796
64155SOL     OW94361   9.763   5.086   7.966
64155SOL    HW194362   9.819   5.149   7.919
64155SOL    HW294363   9.674   5.105   7.933
64156SOL     OW94364   1.964   5.842  13.309
64156SOL    HW194365   2.046   5.855  13.262
64156SOL    HW294366   1.979   5.883  13.395
64157SOL     OW94367   6.471   0.374  12.314
64157SOL    HW194368   6.534   0.314  12.274
64157SOL    HW294369   6.387   0.329  12.306
64158SOL     OW94370   2.903   8.450  13.823
64158SOL    HW194371   2.894   8.399  13.903
64158SOL    HW294372   2.821   8.498  13.816
64159SOL     OW94373  12.436  11.605  13.916
64159SOL    HW194374  12.386  11.673  13.870
64159SOL    HW294375  12.413  11.617  14.008
64160SOL     OW94376   4.355   2.823   0.414
64160SOL    HW194377   4.364   2.916   0.436
64160SOL    HW294378   4.392   2.816   0.326
64161SOL     OW94379   1.354   6.841   3.821
64161SOL    HW194380   1.299   6.776   3.865
64161SOL    HW294381   1.399   6.887   3.892
64162SOL     OW94382  12.781   6.344   9.046
64162SOL    HW194383  12.819   6.346   9.134
64162SOL    HW294384  12.856   6.339   8.987
64163SOL     OW94385   4.041   4.994   9.350
64163SOL    HW194386   4.107   5.062   9.365
64163SOL    HW294387   4.079   4.938   9.282
64164SOL     OW94388   1.996   7.974   9.217
64164SOL    HW194389   1.918   7.949   9.169
64164SOL    HW294390   1.968   8.047   9.273
64165SOL     OW94391   0.148   3.241  13.602
64165SOL    HW194392   0.087   3.174  13.572
64165SOL    HW294393   0.092   3.305  13.647
64166SOL     OW94394   6.909   5.674  14.777
64166SOL    HW194395   6.948   5.686  14.863
64166SOL    HW294396   6.932   5.753  14.729
64167SOL     OW94397   7.122  10.300  13.213
64167SOL    HW194398   7.102  10.241  13.285
64167SOL    HW294399   7.037  10.322  13.175
64168SOL     OW94400  14.338   2.269   5.462
64168SOL    HW194401  14.304   2.311   5.383
64168SOL    HW294402  14.266   2.214   5.492
64169SOL     OW94403  11.224   4.810   0.009
64169SOL    HW194404  11.248   4.771   0.092
64169SOL    HW294405  11.221   4.904   0.026
64170SOL     OW94406   4.388  13.266  14.338
64170SOL    HW194407   4.452  13.250  14.408
64170SOL    HW294408   4.334  13.338  14.371
64171SOL     OW94409   9.765   1.942  12.527
64171SOL    HW194410   9.761   2.016  12.587
64171SOL    HW294411   9.678   1.904  12.530
64172SOL     OW94412   3.043   5.489   8.803
64172SOL    HW194413   3.002   5.432   8.868
64172SOL    HW294414   3.113   5.436   8.765
64173SOL     OW94415   4.479   5.264   6.383
64173SOL    HW194416   4.492   5.169   6.387
64173SOL    HW294417   4.415   5.276   6.313
64174SOL     OW94418   6.488   7.948   7.958
64174SOL    HW194419   6.523   7.925   7.872
64174SOL    HW294420   6.493   7.867   8.008
64175SOL     OW94421   3.981  11.677   2.188
64175SOL    HW194422   3.892  11.646   2.205
64175SOL    HW294423   3.971  11.768   2.163
64176SOL     OW94424   0.974  14.627   4.453
64176SOL    HW194425   1.040  14.596   4.391
64176SOL    HW294426   0.984  14.570   4.529
64177SOL     OW94427   1.928   1.165  14.201
64177SOL    HW194428   1.991   1.235  14.183
64177SOL    HW294429   1.844   1.209  14.208
64178SOL     OW94430   1.611  10.267   4.594
64178SOL    HW194431   1.588  10.216   4.672
64178SOL    HW294432   1.625  10.202   4.526
64179SOL     OW94433   2.132   4.920   1.725
64179SOL    HW194434   2.042   4.924   1.758
64179SOL    HW294435   2.145   4.829   1.699
64180SOL     OW94436   6.625   5.694   3.946
64180SOL    HW194437   6.614   5.599   3.947
64180SOL    HW294438   6.578   5.723   3.868
64181SOL     OW94439   4.717  10.132   4.906
64181SOL    HW194440   4.704  10.101   4.995
64181SOL    HW294441   4.630  10.127   4.865
64182SOL     OW94442  10.254  11.136   8.379
64182SOL    HW194443  10.188  11.188   8.334
64182SOL    HW294444  10.214  11.112   8.462
64183SOL     OW94445  11.687   5.552   4.265
64183SOL    HW194446  11.651   5.534   4.178
64183SOL    HW294447  11.727   5.639   4.257
64184SOL     OW94448   1.261   9.594   1.699
64184SOL    HW194449   1.252   9.589   1.604
64184SOL    HW294450   1.258   9.504   1.729
64185SOL     OW94451   8.885   0.348   5.174
64185SOL    HW194452   8.916   0.438   5.175
64185SOL    HW294453   8.957   0.297   5.212
64186SOL     OW94454  10.034   7.791   6.654
64186SOL    HW194455  10.010   7.748   6.736
64186SOL    HW294456  10.021   7.885   6.671
64187SOL     OW94457   7.253  13.946   1.486
64187SOL    HW194458   7.170  13.939   1.438
64187SOL    HW294459   7.226  13.959   1.577
64188SOL     OW94460  10.737   4.975  12.578
64188SOL    HW194461  10.655   5.025  12.579
64188SOL    HW294462  10.787   5.010  12.652
64189SOL     OW94463  11.048  11.586  14.356
64189SOL    HW194464  11.074  11.675  14.331
64189SOL    HW294465  11.080  11.531  14.285
64190SOL     OW94466   1.740   5.269  13.739
64190SOL    HW194467   1.754   5.175  13.747
64190SOL    HW294468   1.782   5.292  13.656
64191SOL     OW94469   8.554   2.827   4.625
64191SOL    HW194470   8.537   2.921   4.630
64191SOL    HW294471   8.492   2.788   4.687
64192SOL     OW94472  13.120  12.209  11.458
64192SOL    HW194473  13.159  12.133  11.414
64192SOL    HW294474  13.164  12.212  11.543
64193SOL     OW94475   1.968   1.422   8.581
64193SOL    HW194476   2.008   1.506   8.605
64193SOL    HW294477   1.904   1.445   8.513
64194SOL     OW94478  12.345  13.411   4.256
64194SOL    HW194479  12.334  13.341   4.319
64194SOL    HW294480  12.369  13.488   4.309
64195SOL     OW94481   7.381   2.900  14.131
64195SOL    HW194482   7.441   2.965  14.167
64195SOL    HW294483   7.294   2.930  14.158
64196SOL     OW94484  10.389   6.983   1.685
64196SOL    HW194485  10.331   7.048   1.647
64196SOL    HW294486  10.367   6.982   1.779
64197SOL     OW94487  13.885   5.697   3.805
64197SOL    HW194488  13.850   5.629   3.863
64197SOL    HW294489  13.839   5.683   3.722
64198SOL     OW94490   7.419   2.403   8.009
64198SOL    HW194491   7.433   2.378   7.917
64198SOL    HW294492   7.323   2.404   8.019
64199SOL     OW94493   7.512   7.311   2.848
64199SOL    HW194494   7.421   7.300   2.876
64199SOL    HW294495   7.515   7.398   2.808
64200SOL     OW94496   7.392   7.274   4.220
64200SOL    HW194497   7.369   7.359   4.182
64200SOL    HW294498   7.467   7.293   4.277
64201SOL     OW94499  14.277  10.149   8.228
64201SOL    HW194500  14.361  10.153   8.182
64201SOL    HW294501  14.279  10.224   8.288
64202SOL     OW94502  12.539  12.528   0.803
64202SOL    HW194503  12.618  12.541   0.751
64202SOL    HW294504  12.566  12.471   0.875
64203SOL     OW94505   6.263   1.669  12.255
64203SOL    HW194506   6.300   1.749  12.291
64203SOL    HW294507   6.323   1.644  12.185
64204SOL     OW94508   3.307   8.687   4.835
64204SOL    HW194509   3.383   8.743   4.854
64204SOL    HW294510   3.288   8.645   4.918
64205SOL     OW94511   5.731   2.973  10.843
64205SOL    HW194512   5.707   3.028  10.917
64205SOL    HW294513   5.666   2.902  10.844
64206SOL     OW94514   0.477   4.013   3.795
64206SOL    HW194515   0.522   3.995   3.878
64206SOL    HW294516   0.498   4.104   3.776
64207SOL     OW94517  13.520  14.819  10.819
64207SOL    HW194518  13.532   0.035  10.838
64207SOL    HW294519  13.503  14.816  10.724
64208SOL     OW94520   0.221   8.794   3.612
64208SOL    HW194521   0.144   8.836   3.652
64208SOL    HW294522   0.292   8.856   3.628
64209SOL     OW94523   5.408  13.209   7.260
64209SOL    HW194524   5.483  13.151   7.273
64209SOL    HW294525   5.446  13.296   7.254
64210SOL     OW94526   1.092   8.658  10.595
64210SOL    HW194527   1.087   8.662  10.690
64210SOL    HW294528   1.166   8.714  10.572
64211SOL     OW94529  13.518   8.764  10.270
64211SOL    HW194530  13.518   8.857  10.296
64211SOL    HW294531  13.425   8.744  10.257
64212SOL     OW94532  14.591  13.900  12.574
64212SOL    HW194533  14.600  13.838  12.646
64212SOL    HW294534  14.524  13.862  12.517
64213SOL     OW94535  14.227   2.413  13.031
64213SOL    HW194536  14.315   2.388  13.001
64213SOL    HW294537  14.237   2.503  13.062
64214SOL     OW94538  13.246   3.559   8.475
64214SOL    HW194539  13.189   3.508   8.533
64214SOL    HW294540  13.334   3.544   8.509
64215SOL     OW94541   3.762  12.904   3.800
64215SOL    HW194542   3.806  12.896   3.885
64215SOL    HW294543   3.815  12.968   3.752
64216SOL     OW94544   8.458   0.042   6.482
64216SOL    HW194545   8.365   0.044   6.459
64216SOL    HW294546   8.474   0.128   6.522
64217SOL     OW94547   1.072  11.931   1.187
64217SOL    HW194548   1.042  11.842   1.167
64217SOL    HW294549   1.010  11.964   1.252
64218SOL     OW94550   8.677   5.086   1.501
64218SOL    HW194551   8.640   5.172   1.480
64218SOL    HW294552   8.754   5.105   1.554
64219SOL     OW94553   6.825  11.918   5.839
64219SOL    HW194554   6.826  11.983   5.768
64219SOL    HW294555   6.791  11.838   5.798
64220SOL     OW94556  13.862   9.556   5.247
64220SOL    HW194557  13.922   9.578   5.318
64220SOL    HW294558  13.910   9.577   5.167
64221SOL     OW94559   8.397  11.915  13.853
64221SOL    HW194560   8.351  11.834  13.876
64221SOL    HW294561   8.335  11.962  13.797
64222SOL     OW94562   7.528   1.944   1.188
64222SOL    HW194563   7.598   1.993   1.230
64222SOL    HW294564   7.471   2.010   1.150
64223SOL     OW94565   2.003   0.607   7.408
64223SOL    HW194566   2.008   0.591   7.314
64223SOL    HW294567   2.095   0.615   7.436
64224SOL     OW94568   0.061   4.072  14.572
64224SOL    HW194569   0.111   3.993  14.593
64224SOL    HW294570   0.000   4.083  14.644
64225SOL     OW94571   1.700   7.953   2.235
64225SOL    HW194572   1.765   7.925   2.171
64225SOL    HW294573   1.751   7.986   2.309
64226SOL     OW94574   9.167  11.741   6.794
64226SOL    HW194575   9.171  11.801   6.720
64226SOL    HW294576   9.163  11.799   6.871
64227SOL     OW94577  12.113  13.299   2.536
64227SOL    HW194578  12.086  13.208   2.548
64227SOL    HW294579  12.112  13.336   2.625
64228SOL     OW94580   6.342   6.833   5.436
64228SOL    HW194581   6.429   6.800   5.413
64228SOL    HW294582   6.289   6.754   5.451
64229SOL     OW94583  14.012  12.967  13.833
64229SOL    HW194584  13.932  12.923  13.862
64229SOL    HW294585  13.988  13.059  13.825
64230SOL     OW94586   8.531   2.640   1.035
64230SOL    HW194587   8.550   2.564   1.090
64230SOL    HW294588   8.454   2.614   0.985
64231SOL     OW94589  12.234   5.390   9.506
64231SOL    HW194590  12.322   5.416   9.480
64231SOL    HW294591  12.181   5.469   9.495
64232SOL     OW94592   4.548   1.115   0.166
64232SOL    HW194593   4.635   1.090   0.197
64232SOL    HW294594   4.562   1.151   0.079
64233SOL     OW94595  11.198   9.367   9.462
64233SOL    HW194596  11.182   9.349   9.369
64233SOL    HW294597  11.124   9.327   9.508
64234SOL     OW94598   5.255   0.010   3.530
64234SOL    HW194599   5.178  14.846   3.570
64234SOL    HW294600   5.274   0.085   3.588
64235SOL     OW94601   3.747  10.590   1.387
64235SOL    HW194602   3.716  10.540   1.462
64235SOL    HW294603   3.823  10.541   1.356
64236SOL     OW94604   0.643  12.174   2.748
64236SOL    HW194605   0.676  12.262   2.730
64236SOL    HW294606   0.550  12.186   2.765
64237SOL     OW94607   4.195   8.433  12.850
64237SOL    HW194608   4.221   8.461  12.762
64237SOL    HW294609   4.117   8.485  12.870
64238SOL     OW94610  13.041   0.312  12.259
64238SOL    HW194611  12.993   0.256  12.320
64238SOL    HW294612  13.102   0.253  12.216
64239SOL     OW94613   8.950   0.297   1.059
64239SOL    HW194614   8.890   0.363   1.024
64239SOL    HW294615   8.899   0.216   1.060
64240SOL     OW94616   4.485   2.728   9.522
64240SOL    HW194617   4.572   2.768   9.516
64240SOL    HW294618   4.476   2.677   9.442
64241SOL     OW94619  12.149   9.054  12.839
64241SOL    HW194620  12.196   8.972  12.855
64241SOL    HW294621  12.216   9.122  12.839
64242SOL     OW94622   6.345  13.050   4.645
64242SOL    HW194623   6.294  13.128   4.622
64242SOL    HW294624   6.301  13.014   4.722
64243SOL     OW94625  14.759  11.612   5.415
64243SOL    HW194626  14.801  11.576   5.493
64243SOL    HW294627  14.787  11.554   5.344
64244SOL     OW94628  10.419   3.273   2.701
64244SOL    HW194629  10.413   3.179   2.717
64244SOL    HW294630  10.474   3.279   2.623
64245SOL     OW94631  13.356  12.759  13.038
64245SOL    HW194632  13.320  12.809  12.964
64245SOL    HW294633  13.283  12.706  13.069
64246SOL     OW94634  14.650   1.856  13.729
64246SOL    HW194635  14.647   1.838  13.823
64246SOL    HW294636  14.734   1.899  13.715
64247SOL     OW94637  11.618  11.510   3.444
64247SOL    HW194638  11.606  11.424   3.486
64247SOL    HW294639  11.583  11.498   3.356
64248SOL     OW94640   5.287   2.327  13.495
64248SOL    HW194641   5.334   2.252  13.534
64248SOL    HW294642   5.342   2.354  13.422
64249SOL     OW94643   7.775  10.291   7.094
64249SOL    HW194644   7.789  10.226   7.164
64249SOL    HW294645   7.796  10.374   7.136
64250SOL     OW94646   6.103   3.441   4.999
64250SOL    HW194647   6.016   3.455   5.037
64250SOL    HW294648   6.107   3.347   4.981
64251SOL     OW94649   5.231   7.119  10.940
64251SOL    HW194650   5.231   7.024  10.946
64251SOL    HW294651   5.170   7.147  11.008
64252SOL     OW94652  12.396   5.365   6.988
64252SOL    HW194653  12.459   5.311   6.939
64252SOL    HW294654  12.428   5.363   7.078
64253SOL     OW94655  13.793   5.023  11.432
64253SOL    HW194656  13.734   5.097  11.420
64253SOL    HW294657  13.855   5.052  11.499
64254SOL     OW94658   2.398   9.527   2.403
64254SOL    HW194659   2.372   9.597   2.343
64254SOL    HW294660   2.472   9.563   2.451
64255SOL     OW94661   6.383   3.535  13.917
64255SOL    HW194662   6.332   3.466  13.959
64255SOL    HW294663   6.339   3.551  13.834
64256SOL     OW94664  14.853  12.994   0.548
64256SOL    HW194665  14.842  13.089   0.556
64256SOL    HW294666  14.773  12.957   0.586
64257SOL     OW94667  14.846   4.789  10.140
64257SOL    HW194668   0.014   4.867  10.109
64257SOL    HW294669   0.037   4.724  10.154
64258SOL     OW94670  11.392   9.451  11.602
64258SOL    HW194671  11.424   9.495  11.523
64258SOL    HW294672  11.297   9.447  11.590
64259SOL     OW94673  12.882  11.586   0.077
64259SOL    HW194674  12.907  11.557  14.867
64259SOL    HW294675  12.964  11.588   0.126
64260SOL     OW94676   1.574   4.912  14.132
64260SOL    HW194677   1.594   4.825  14.167
64260SOL    HW294678   1.587   4.971  14.206
64261SOL     OW94679   1.005   7.225  14.827
64261SOL    HW194680   1.061   7.233   0.027
64261SOL    HW294681   0.952   7.305  14.827
64262SOL     OW94682  12.974   3.878   0.788
64262SOL    HW194683  12.900   3.934   0.812
64262SOL    HW294684  13.052   3.931   0.805
64263SOL     OW94685   7.532  12.790   7.193
64263SOL    HW194686   7.627  12.794   7.189
64263SOL    HW294687   7.503  12.877   7.165
64264SOL     OW94688   3.124  10.056  13.648
64264SOL    HW194689   3.100  10.021  13.563
64264SOL    HW294690   3.062  10.127  13.664
64265SOL     OW94691   7.804   4.167   2.410
64265SOL    HW194692   7.738   4.200   2.471
64265SOL    HW294693   7.888   4.182   2.454
64266SOL     OW94694  11.090   1.546   0.919
64266SOL    HW194695  11.114   1.464   0.876
64266SOL    HW294696  10.994   1.545   0.922
64267SOL     OW94697   8.165   5.758   0.601
64267SOL    HW194698   8.174   5.687   0.538
64267SOL    HW294699   8.209   5.726   0.680
64268SOL     OW94700   0.866   7.819  11.294
64268SOL    HW194701   0.899   7.730  11.309
64268SOL    HW294702   0.894   7.840  11.205
64269SOL     OW94703  10.975   5.108  14.246
64269SOL    HW194704  10.929   5.027  14.270
64269SOL    HW294705  10.963   5.116  14.152
64270SOL     OW94706   0.419   0.727   5.568
64270SOL    HW194707   0.503   0.681   5.566
64270SOL    HW294708   0.365   0.677   5.630
64271SOL     OW94709  12.512   7.386  10.330
64271SOL    HW194710  12.550   7.433  10.256
64271SOL    HW294711  12.448   7.446  10.367
64272SOL     OW94712   7.121   1.098  12.716
64272SOL    HW194713   7.143   1.172  12.772
64272SOL    HW294714   7.052   1.052  12.763
64273SOL     OW94715  10.454  12.158   9.117
64273SOL    HW194716  10.511  12.128   9.047
64273SOL    HW294717  10.366  12.143   9.084
64274SOL     OW94718   6.701   7.363   2.937
64274SOL    HW194719   6.618   7.384   2.894
64274SOL    HW294720   6.731   7.283   2.894
64275SOL     OW94721  10.537  11.063   3.938
64275SOL    HW194722  10.511  11.126   4.005
64275SOL    HW294723  10.575  11.116   3.868
64276SOL     OW94724   1.634   7.786  13.388
64276SOL    HW194725   1.664   7.850  13.324
64276SOL    HW294726   1.669   7.702  13.357
64277SOL     OW94727   9.597   2.614   7.571
64277SOL    HW194728   9.564   2.605   7.660
64277SOL    HW294729   9.686   2.581   7.574
64278SOL     OW94730   9.136   7.919   5.311
64278SOL    HW194731   9.135   7.847   5.249
64278SOL    HW294732   9.107   7.995   5.261
64279SOL     OW94733   6.856   6.035   6.504
64279SOL    HW194734   6.930   6.030   6.564
64279SOL    HW294735   6.894   6.017   6.418
64280SOL     OW94736  12.015   9.062  13.744
64280SOL    HW194737  11.957   9.027  13.812
64280SOL    HW294738  12.013   9.157  13.758
64281SOL     OW94739   5.966   5.312  14.343
64281SOL    HW194740   6.007   5.226  14.334
64281SOL    HW294741   5.897   5.299  14.408
64282SOL     OW94742   7.910   5.978   5.865
64282SOL    HW194743   7.958   5.912   5.915
64282SOL    HW294744   7.895   5.937   5.780
64283SOL     OW94745   2.606   2.862  10.680
64283SOL    HW194746   2.513   2.874  10.696
64283SOL    HW294747   2.637   2.948  10.651
64284SOL     OW94748   3.971   4.568   4.496
64284SOL    HW194749   3.960   4.662   4.505
64284SOL    HW294750   3.884   4.532   4.514
64285SOL     OW94751  11.037   8.370   0.354
64285SOL    HW194752  10.953   8.325   0.359
64285SOL    HW294753  11.100   8.302   0.331
64286SOL     OW94754   0.028   4.456   6.246
64286SOL    HW194755   0.103   4.398   6.232
64286SOL    HW294756  14.856   4.415   6.317
64287SOL     OW94757   2.647  14.326   1.297
64287SOL    HW194758   2.733  14.342   1.259
64287SOL    HW294759   2.665  14.275   1.376
64288SOL     OW94760  10.342   3.906   3.999
64288SOL    HW194761  10.362   3.915   3.906
64288SOL    HW294762  10.276   3.973   4.017
64289SOL     OW94763   4.888  14.318   3.989
64289SOL    HW194764   4.804  14.321   3.944
64289SOL    HW294765   4.949  14.361   3.929
64290SOL     OW94766  12.813   6.857   4.299
64290SOL    HW194767  12.900   6.897   4.301
64290SOL    HW294768  12.759   6.914   4.354
64291SOL     OW94769   2.996  13.806  14.718
64291SOL    HW194770   3.001  13.720  14.677
64291SOL    HW294771   2.964  13.863  14.649
64292SOL     OW94772  10.482  11.412   1.773
64292SOL    HW194773  10.518  11.470   1.706
64292SOL    HW294774  10.404  11.456   1.805
64293SOL     OW94775   0.767   4.278   8.108
64293SOL    HW194776   0.778   4.365   8.147
64293SOL    HW294777   0.829   4.277   8.035
64294SOL     OW94778   2.836   4.419   8.445
64294SOL    HW194779   2.905   4.429   8.511
64294SOL    HW294780   2.773   4.360   8.486
64295SOL     OW94781  10.243   6.811   0.602
64295SOL    HW194782  10.278   6.776   0.684
64295SOL    HW294783  10.226   6.903   0.620
64296SOL     OW94784   0.684   9.332   1.808
64296SOL    HW194785   0.662   9.260   1.868
64296SOL    HW294786   0.670   9.295   1.721
64297SOL     OW94787   7.303   0.086  12.466
64297SOL    HW194788   7.313   0.177  12.493
64297SOL    HW294789   7.254   0.045  12.537
64298SOL     OW94790   2.881   2.141   3.989
64298SOL    HW194791   2.802   2.111   4.032
64298SOL    HW294792   2.859   2.141   3.896
64299SOL     OW94793  10.004   9.893   5.714
64299SOL    HW194794   9.958   9.883   5.630
64299SOL    HW294795   9.992   9.808   5.757
64300SOL     OW94796   3.624  10.125   1.681
64300SOL    HW194797   3.662  10.063   1.619
64300SOL    HW294798   3.676  10.114   1.761
64301SOL     OW94799   3.968   7.563   8.875
64301SOL    HW194800   4.007   7.610   8.949
64301SOL    HW294801   4.006   7.476   8.878
64302SOL     OW94802   0.326  10.722   5.193
64302SOL    HW194803   0.307  10.814   5.177
64302SOL    HW294804   0.331  10.716   5.289
64303SOL     OW94805   7.872   4.004  12.383
64303SOL    HW194806   7.911   4.051  12.308
64303SOL    HW294807   7.838   3.923  12.345
64304SOL     OW94808   3.529   7.237   6.466
64304SOL    HW194809   3.443   7.194   6.471
64304SOL    HW294810   3.512   7.328   6.491
64305SOL     OW94811  12.886  12.148   4.863
64305SOL    HW194812  12.880  12.088   4.789
64305SOL    HW294813  12.845  12.102   4.936
64306SOL     OW94814   6.697   8.850   0.379
64306SOL    HW194815   6.682   8.762   0.344
64306SOL    HW294816   6.617   8.869   0.428
64307SOL     OW94817   4.848   5.307  14.512
64307SOL    HW194818   4.829   5.399  14.527
64307SOL    HW294819   4.805   5.286  14.429
64308SOL     OW94820  12.527   4.180   5.130
64308SOL    HW194821  12.511   4.086   5.137
64308SOL    HW294822  12.469   4.219   5.196
64309SOL     OW94823   8.233   6.725   1.060
64309SOL    HW194824   8.199   6.689   1.142
64309SOL    HW294825   8.319   6.684   1.050
64310SOL     OW94826   6.680   6.880   6.287
64310SOL    HW194827   6.764   6.838   6.274
64310SOL    HW294828   6.657   6.916   6.202
64311SOL     OW94829   7.840   7.168   8.344
64311SOL    HW194830   7.839   7.198   8.435
64311SOL    HW294831   7.772   7.100   8.341
64312SOL     OW94832   5.295   1.353  11.493
64312SOL    HW194833   5.373   1.335  11.441
64312SOL    HW294834   5.329   1.381  11.578
64313SOL     OW94835   9.728   9.458   4.952
64313SOL    HW194836   9.795   9.456   5.021
64313SOL    HW294837   9.739   9.376   4.905
64314SOL     OW94838   7.538   5.637  14.066
64314SOL    HW194839   7.520   5.557  14.018
64314SOL    HW294840   7.625   5.664  14.036
64315SOL     OW94841  14.207   5.208   2.774
64315SOL    HW194842  14.205   5.237   2.865
64315SOL    HW294843  14.300   5.194   2.755
64316SOL     OW94844   2.639  10.944  10.568
64316SOL    HW194845   2.692  10.968  10.493
64316SOL    HW294846   2.677  10.993  10.641
64317SOL     OW94847  10.668   5.290   2.862
64317SOL    HW194848  10.757   5.304   2.831
64317SOL    HW294849  10.647   5.201   2.834
64318SOL     OW94850   3.353  12.914  12.329
64318SOL    HW194851   3.410  12.907  12.253
64318SOL    HW294852   3.271  12.872  12.302
64319SOL     OW94853   6.292   7.231   7.384
64319SOL    HW194854   6.300   7.137   7.368
64319SOL    HW294855   6.380   7.266   7.370
64320SOL     OW94856   0.741   0.246  10.096
64320SOL    HW194857   0.836   0.252  10.108
64320SOL    HW294858   0.705   0.256  10.184
64321SOL     OW94859  11.500   4.892   0.181
64321SOL    HW194860  11.450   4.812   0.165
64321SOL    HW294861  11.569   4.865   0.243
64322SOL     OW94862   6.185  10.034   8.264
64322SOL    HW194863   6.131  10.088   8.206
64322SOL    HW294864   6.144   9.948   8.263
64323SOL     OW94865   0.639   2.154   6.336
64323SOL    HW194866   0.557   2.194   6.307
64323SOL    HW294867   0.689   2.227   6.372
64324SOL     OW94868   0.320  11.022   7.381
64324SOL    HW194869   0.373  10.973   7.317
64324SOL    HW294870   0.309  10.962   7.454
64325SOL     OW94871   0.730   8.465   1.991
64325SOL    HW194872   0.701   8.380   2.023
64325SOL    HW294873   0.813   8.481   2.037
64326SOL     OW94874   9.404   9.858   6.855
64326SOL    HW194875   9.365   9.775   6.828
64326SOL    HW294876   9.395   9.858   6.951
64327SOL     OW94877   8.332   8.761   4.928
64327SOL    HW194878   8.265   8.702   4.892
64327SOL    HW294879   8.321   8.753   5.023
64328SOL     OW94880   0.309  11.043   0.904
64328SOL    HW194881   0.310  11.045   0.809
64328SOL    HW294882   0.384  10.988   0.928
64329SOL     OW94883   7.552   4.637  11.778
64329SOL    HW194884   7.543   4.676  11.691
64329SOL    HW294885   7.512   4.550  11.770
64330SOL     OW94886  14.356   6.792   9.323
64330SOL    HW194887  14.410   6.810   9.245
64330SOL    HW294888  14.266   6.794   9.291
64331SOL     OW94889   7.666   4.681   0.121
64331SOL    HW194890   7.736   4.738   0.152
64331SOL    HW294891   7.603   4.739   0.078
64332SOL     OW94892  11.779  10.979  10.513
64332SOL    HW194893  11.782  10.935  10.597
64332SOL    HW294894  11.809  11.068  10.531
64333SOL     OW94895  14.044  11.384  11.269
64333SOL    HW194896  13.988  11.423  11.336
64333SOL    HW294897  14.098  11.321  11.317
64334SOL     OW94898   7.083   1.108   1.518
64334SOL    HW194899   7.085   1.155   1.435
64334SOL    HW294900   7.024   1.034   1.502
64335SOL     OW94901   7.497  13.973   3.115
64335SOL    HW194902   7.405  13.966   3.090
64335SOL    HW294903   7.543  13.912   3.057
64336SOL     OW94904   3.132   3.875  12.803
64336SOL    HW194905   3.075   3.804  12.771
64336SOL    HW294906   3.189   3.895  12.729
64337SOL     OW94907   4.776   8.644  11.399
64337SOL    HW194908   4.742   8.583  11.464
64337SOL    HW294909   4.860   8.606  11.371
64338SOL     OW94910   3.308   4.339   4.905
64338SOL    HW194911   3.328   4.384   4.823
64338SOL    HW294912   3.393   4.316   4.942
64339SOL     OW94913   8.112   9.782  10.031
64339SOL    HW194914   8.158   9.831   9.964
64339SOL    HW294915   8.049   9.844  10.068
64340SOL     OW94916   0.444  10.742  12.726
64340SOL    HW194917   0.499  10.672  12.761
64340SOL    HW294918   0.504  10.795  12.673
64341SOL     OW94919   1.543  10.119  11.009
64341SOL    HW194920   1.465  10.158  10.968
64341SOL    HW294921   1.534  10.025  10.993
64342SOL     OW94922   3.301   9.056  12.467
64342SOL    HW194923   3.215   9.036  12.505
64342SOL    HW294924   3.291   9.038  12.374
64343SOL     OW94925   3.561   8.214   4.976
64343SOL    HW194926   3.579   8.270   4.901
64343SOL    HW294927   3.647   8.200   5.017
64344SOL     OW94928   2.449   5.949  12.790
64344SOL    HW194929   2.544   5.939  12.782
64344SOL    HW294930   2.420   5.867  12.829
64345SOL     OW94931   2.011   5.924   5.366
64345SOL    HW194932   2.102   5.904   5.391
64345SOL    HW294933   1.958   5.866   5.422
64346SOL     OW94934   2.961   7.408   9.190
64346SOL    HW194935   2.905   7.373   9.259
64346SOL    HW294936   2.984   7.333   9.137
64347SOL     OW94937  11.843   9.574  10.243
64347SOL    HW194938  11.923   9.616  10.274
64347SOL    HW294939  11.806   9.636  10.180
64348SOL     OW94940   8.095   0.411   7.306
64348SOL    HW194941   8.009   0.370   7.318
64348SOL    HW294942   8.155   0.354   7.353
64349SOL     OW94943   9.116  13.088   4.685
64349SOL    HW194944   9.051  13.059   4.621
64349SOL    HW294945   9.102  13.031   4.760
64350SOL     OW94946   0.180   3.049   6.234
64350SOL    HW194947   0.221   3.096   6.306
64350SOL    HW294948   0.087   3.064   6.245
64351SOL     OW94949   4.121  10.034  13.845
64351SOL    HW194950   4.026  10.036  13.855
64351SOL    HW294951   4.139  10.084  13.766
64352SOL     OW94952   3.238   2.654  12.533
64352SOL    HW194953   3.272   2.715  12.598
64352SOL    HW294954   3.148   2.682  12.518
64353SOL     OW94955   7.362   4.092  10.861
64353SOL    HW194956   7.269   4.095  10.881
64353SOL    HW294957   7.377   4.164  10.800
64354SOL     OW94958   1.947  13.219   0.465
64354SOL    HW194959   1.936  13.204   0.559
64354SOL    HW294960   1.858  13.230   0.432
64355SOL     OW94961   2.748   3.633   1.510
64355SOL    HW194962   2.795   3.696   1.564
64355SOL    HW294963   2.717   3.683   1.435
64356SOL     OW94964   9.501   0.075  11.945
64356SOL    HW194965   9.471   0.057  11.856
64356SOL    HW294966   9.541   0.161  11.940
64357SOL     OW94967   1.709   9.075   6.835
64357SOL    HW194968   1.788   9.126   6.856
64357SOL    HW294969   1.695   9.020   6.913
64358SOL     OW94970  11.848   2.769   1.403
64358SOL    HW194971  11.811   2.691   1.361
64358SOL    HW294972  11.942   2.754   1.402
64359SOL     OW94973  10.383   1.132   5.019
64359SOL    HW194974  10.403   1.041   5.043
64359SOL    HW294975  10.468   1.176   5.021
64360SOL     OW94976   6.394   1.355   7.086
64360SOL    HW194977   6.370   1.341   6.995
64360SOL    HW294978   6.350   1.436   7.110
64361SOL     OW94979   0.771   1.506   8.456
64361SOL    HW194980   0.824   1.427   8.450
64361SOL    HW294981   0.806   1.553   8.531
64362SOL     OW94982   5.600  14.514   6.309
64362SOL    HW194983   5.641  14.434   6.275
64362SOL    HW294984   5.534  14.536   6.243
64363SOL     OW94985   4.895   7.139  10.844
64363SOL    HW194986   4.952   7.148  10.920
64363SOL    HW294987   4.950   7.097  10.778
64364SOL     OW94988   8.871   4.357   0.009
64364SOL    HW194989   8.928   4.428   0.038
64364SOL    HW294990   8.811   4.398  14.824
64365SOL     OW94991  13.209   9.080   6.912
64365SOL    HW194992  13.227   9.171   6.933
64365SOL    HW294993  13.203   9.036   6.997
64366SOL     OW94994  11.548   2.169   5.883
64366SOL    HW194995  11.577   2.096   5.938
64366SOL    HW294996  11.587   2.151   5.798
64367SOL     OW94997   2.048   9.364   7.835
64367SOL    HW194998   2.131   9.316   7.830
64367SOL    HW294999   2.053   9.412   7.918
64368SOL     OW95000   9.618   6.956   2.629
64368SOL    HW195001   9.701   6.997   2.652
64368SOL    HW295002   9.561   7.030   2.607
64369SOL     OW95003   2.557  11.042   2.194
64369SOL    HW195004   2.549  11.124   2.243
64369SOL    HW295005   2.469  11.006   2.193
64370SOL     OW95006   3.712   9.354  10.132
64370SOL    HW195007   3.633   9.399  10.101
64370SOL    HW295008   3.679   9.274  10.173
64371SOL     OW95009  10.760   3.914  13.516
64371SOL    HW195010  10.720   3.988  13.561
64371SOL    HW295011  10.773   3.848  13.585
64372SOL     OW95012   1.971   5.386  12.414
64372SOL    HW195013   1.953   5.362  12.323
64372SOL    HW295014   1.884   5.402  12.452
64373SOL     OW95015   1.103  12.600   6.023
64373SOL    HW195016   1.068  12.677   6.067
64373SOL    HW295017   1.064  12.602   5.935
64374SOL     OW95018   9.188  13.396   7.495
64374SOL    HW195019   9.250  13.444   7.550
64374SOL    HW295020   9.216  13.305   7.501
64375SOL     OW95021  14.128  12.981   1.051
64375SOL    HW195022  14.064  12.933   1.104
64375SOL    HW295023  14.097  12.970   0.961
64376SOL     OW95024   6.363  14.518  14.672
64376SOL    HW195025   6.373  14.456  14.600
64376SOL    HW295026   6.364  14.604  14.630
64377SOL     OW95027   4.228   9.828   4.830
64377SOL    HW195028   4.297   9.771   4.797
64377SOL    HW295029   4.274   9.893   4.883
64378SOL     OW95030   8.936   5.929   3.240
64378SOL    HW195031   8.989   5.958   3.314
64378SOL    HW295032   8.851   5.909   3.278
64379SOL     OW95033   7.123   4.633  10.288
64379SOL    HW195034   7.031   4.625  10.264
64379SOL    HW295035   7.122   4.680  10.372
64380SOL     OW95036  10.925  10.921   7.967
64380SOL    HW195037  11.019  10.905   7.964
64380SOL    HW295038  10.918  11.016   7.973
64381SOL     OW95039   9.674   0.499   5.076
64381SOL    HW195040   9.672   0.428   5.012
64381SOL    HW295041   9.585   0.534   5.078
64382SOL     OW95042  10.667   4.141   7.784
64382SOL    HW195043  10.658   4.226   7.826
64382SOL    HW295044  10.761   4.130   7.771
64383SOL     OW95045   9.966  10.833  13.435
64383SOL    HW195046   9.874  10.855  13.421
64383SOL    HW295047   9.991  10.780  13.359
64384SOL     OW95048   0.773   4.334   4.051
64384SOL    HW195049   0.781   4.285   4.133
64384SOL    HW295050   0.851   4.389   4.048
64385SOL     OW95051   0.191   2.912   3.307
64385SOL    HW195052   0.204   2.991   3.360
64385SOL    HW295053   0.279   2.891   3.274
64386SOL     OW95054  14.672   2.200   8.412
64386SOL    HW195055  14.737   2.239   8.469
64386SOL    HW295056  14.617   2.147   8.470
64387SOL     OW95057  12.264   7.735  14.656
64387SOL    HW195058  12.350   7.751  14.617
64387SOL    HW295059  12.281   7.676  14.729
64388SOL     OW95060  10.064  10.006   0.012
64388SOL    HW195061  10.025   9.995  14.802
64388SOL    HW295062   9.990  10.016   0.071
64389SOL     OW95063   6.052   2.003   2.833
64389SOL    HW195064   6.061   1.923   2.884
64389SOL    HW295065   6.047   1.974   2.742
64390SOL     OW95066   4.641  13.338   4.091
64390SOL    HW195067   4.641  13.284   4.171
64390SOL    HW295068   4.713  13.303   4.039
64391SOL     OW95069   9.438  11.907  11.837
64391SOL    HW195070   9.467  11.816  11.830
64391SOL    HW295071   9.435  11.939  11.747
64392SOL     OW95072  12.306   0.594   7.189
64392SOL    HW195073  12.240   0.557   7.247
64392SOL    HW295074  12.267   0.593   7.102
64393SOL     OW95075  12.420  11.172   1.443
64393SOL    HW195076  12.377  11.116   1.507
64393SOL    HW295077  12.358  11.244   1.429
64394SOL     OW95078   8.754   2.363   8.714
64394SOL    HW195079   8.760   2.456   8.692
64394SOL    HW295080   8.781   2.358   8.806
64395SOL     OW95081   3.232   6.869  14.670
64395SOL    HW195082   3.142   6.901  14.679
64395SOL    HW295083   3.235   6.792  14.726
64396SOL     OW95084   6.323   1.979   6.670
64396SOL    HW195085   6.400   1.963   6.724
64396SOL    HW295086   6.351   1.958   6.581
64397SOL     OW95087  12.234   9.681   6.591
64397SOL    HW195088  12.187   9.607   6.553
64397SOL    HW295089  12.180   9.707   6.667
64398SOL     OW95090   7.871  10.166   5.896
64398SOL    HW195091   7.938  10.194   5.959
64398SOL    HW295092   7.789  10.197   5.934
64399SOL     OW95093  12.581   5.279   0.543
64399SOL    HW195094  12.647   5.223   0.585
64399SOL    HW295095  12.605   5.279   0.450
64400SOL     OW95096  11.902   5.642   6.361
64400SOL    HW195097  11.995   5.662   6.364
64400SOL    HW295098  11.874   5.645   6.453
64401SOL     OW95099   6.604   0.445   5.889
64401SOL    HW195100   6.566   0.511   5.947
64401SOL    HW295101   6.619   0.492   5.807
64402SOL     OW95102   8.188  11.022   6.164
64402SOL    HW195103   8.134  11.033   6.242
64402SOL    HW295104   8.142  11.071   6.096
64403SOL     OW95105  10.267   3.238   0.670
64403SOL    HW195106  10.183   3.219   0.713
64403SOL    HW295107  10.300   3.153   0.644
64404SOL     OW95108   2.484   6.186  14.013
64404SOL    HW195109   2.514   6.138  13.936
64404SOL    HW295110   2.562   6.194  14.068
64405SOL     OW95111   8.324   3.834  13.324
64405SOL    HW195112   8.392   3.804  13.384
64405SOL    HW295113   8.349   3.798  13.239
64406SOL     OW95114  11.068   8.820  14.494
64406SOL    HW195115  10.999   8.886  14.485
64406SOL    HW295116  11.070   8.801  14.587
64407SOL     OW95117  11.435   1.799   5.250
64407SOL    HW195118  11.459   1.741   5.177
64407SOL    HW295119  11.488   1.769   5.323
64408SOL     OW95120  14.058   0.660   4.471
64408SOL    HW195121  14.025   0.620   4.551
64408SOL    HW295122  14.134   0.712   4.500
64409SOL     OW95123   3.915   4.918   6.452
64409SOL    HW195124   3.844   4.906   6.390
64409SOL    HW295125   3.883   4.985   6.512
64410SOL     OW95126   7.649  12.849   0.503
64410SOL    HW195127   7.621  12.826   0.414
64410SOL    HW295128   7.579  12.906   0.536
64411SOL     OW95129   4.323   7.614  10.176
64411SOL    HW195130   4.243   7.569  10.149
64411SOL    HW295131   4.393   7.549  10.164
64412SOL     OW95132   8.856  11.113   4.292
64412SOL    HW195133   8.944  11.078   4.277
64412SOL    HW295134   8.869  11.208   4.299
64413SOL     OW95135  11.470  10.158   9.574
64413SOL    HW195136  11.375  10.148   9.565
64413SOL    HW295137  11.493  10.106   9.651
64414SOL     OW95138   3.968   0.458   7.452
64414SOL    HW195139   4.036   0.428   7.391
64414SOL    HW295140   3.949   0.381   7.506
64415SOL     OW95141  13.021  10.860   0.450
64415SOL    HW195142  13.077  10.935   0.469
64415SOL    HW295143  13.078  10.784   0.461
64416SOL     OW95144  10.783   1.478   3.540
64416SOL    HW195145  10.872   1.510   3.552
64416SOL    HW295146  10.779   1.454   3.447
64417SOL     OW95147   5.042  11.531   2.831
64417SOL    HW195148   4.959  11.529   2.785
64417SOL    HW295149   5.087  11.451   2.804
64418SOL     OW95150   9.478  12.754   6.196
64418SOL    HW195151   9.535  12.825   6.226
64418SOL    HW295152   9.534  12.676   6.199
64419SOL     OW95153  12.225  13.219   7.007
64419SOL    HW195154  12.212  13.310   6.980
64419SOL    HW295155  12.176  13.168   6.943
64420SOL     OW95156  12.031   1.047   7.879
64420SOL    HW195157  12.092   0.998   7.935
64420SOL    HW295158  11.997   1.117   7.935
64421SOL     OW95159   0.649  11.922  13.639
64421SOL    HW195160   0.630  11.944  13.548
64421SOL    HW295161   0.564  11.896  13.675
64422SOL     OW95162   7.784   5.716   0.973
64422SOL    HW195163   7.846   5.690   1.040
64422SOL    HW295164   7.835   5.770   0.912
64423SOL     OW95165   2.235  13.404   5.968
64423SOL    HW195166   2.179  13.463   5.918
64423SOL    HW295167   2.183  13.324   5.978
64424SOL     OW95168   6.911   7.489   8.274
64424SOL    HW195169   6.866   7.406   8.267
64424SOL    HW295170   6.976   7.488   8.203
64425SOL     OW95171   0.428  12.310   1.838
64425SOL    HW195172   0.487  12.235   1.849
64425SOL    HW295173   0.360  12.296   1.904
64426SOL     OW95174   7.210   2.872   7.107
64426SOL    HW195175   7.175   2.809   7.169
64426SOL    HW295176   7.288   2.907   7.150
64427SOL     OW95177  13.966   2.685   9.205
64427SOL    HW195178  14.046   2.727   9.173
64427SOL    HW295179  13.969   2.698   9.300
64428SOL     OW95180  12.426  12.775   9.612
64428SOL    HW195181  12.344  12.823   9.603
64428SOL    HW295182  12.487  12.839   9.649
64429SOL     OW95183  11.169   4.163   7.953
64429SOL    HW195184  11.262   4.141   7.965
64429SOL    HW295185  11.152   4.231   8.019
64430SOL     OW95186   0.829   1.494  10.857
64430SOL    HW195187   0.906   1.438  10.864
64430SOL    HW295188   0.810   1.519  10.948
64431SOL     OW95189   2.588  10.003   1.887
64431SOL    HW195190   2.605   9.910   1.872
64431SOL    HW295191   2.599  10.043   1.801
64432SOL     OW95192   5.666   8.985   6.595
64432SOL    HW195193   5.585   9.036   6.605
64432SOL    HW295194   5.675   8.939   6.678
64433SOL     OW95195  14.837  13.963  13.407
64433SOL    HW195196  14.830  14.045  13.455
64433SOL    HW295197  14.748  13.943  13.379
64434SOL     OW95198   8.884  13.746  10.772
64434SOL    HW195199   8.954  13.708  10.719
64434SOL    HW295200   8.843  13.671  10.815
64435SOL     OW95201   5.458   5.178   7.871
64435SOL    HW195202   5.545   5.140   7.882
64435SOL    HW295203   5.474   5.272   7.865
64436SOL     OW95204   2.195   7.769   4.607
64436SOL    HW195205   2.272   7.776   4.664
64436SOL    HW295206   2.168   7.678   4.615
64437SOL     OW95207  10.869   5.454   7.687
64437SOL    HW195208  10.827   5.507   7.619
64437SOL    HW295209  10.828   5.368   7.679
64438SOL     OW95210   9.008  13.516   0.426
64438SOL    HW195211   8.986  13.455   0.497
64438SOL    HW295212   9.099  13.540   0.442
64439SOL     OW95213   9.520   2.577  12.097
64439SOL    HW195214   9.515   2.625  12.014
64439SOL    HW295215   9.504   2.485  12.072
64440SOL     OW95216   1.319   6.681   8.363
64440SOL    HW195217   1.261   6.621   8.410
64440SOL    HW295218   1.323   6.644   8.274
64441SOL     OW95219   7.389   5.325   9.079
64441SOL    HW195220   7.408   5.415   9.104
64441SOL    HW295221   7.295   5.322   9.065
64442SOL     OW95222   4.913   9.850   0.173
64442SOL    HW195223   4.931   9.770   0.222
64442SOL    HW295224   4.976   9.850   0.102
64443SOL     OW95225  14.827  12.832   9.575
64443SOL    HW195226   0.020  12.890   9.547
64443SOL    HW295227  14.834  12.756   9.518
64444SOL     OW95228   6.445   2.674  12.747
64444SOL    HW195229   6.447   2.767  12.723
64444SOL    HW295230   6.412   2.674  12.837
64445SOL     OW95231   4.732   2.160  12.320
64445SOL    HW195232   4.804   2.191  12.266
64445SOL    HW295233   4.717   2.230  12.382
64446SOL     OW95234  10.300   5.652  14.039
64446SOL    HW195235  10.363   5.591  14.000
64446SOL    HW295236  10.248   5.682  13.965
64447SOL     OW95237   4.005   6.880   9.144
64447SOL    HW195238   4.021   6.938   9.069
64447SOL    HW295239   4.091   6.843   9.164
64448SOL     OW95240  11.844  10.025   7.846
64448SOL    HW195241  11.798  10.100   7.809
64448SOL    HW295242  11.850   9.963   7.773
64449SOL     OW95243   0.764   1.056   0.467
64449SOL    HW195244   0.691   1.024   0.520
64449SOL    HW295245   0.800   0.977   0.426
64450SOL     OW95246   6.995   5.684  10.594
64450SOL    HW195247   6.911   5.657  10.558
64450SOL    HW295248   7.021   5.759  10.540
64451SOL     OW95249  12.678  11.583   7.092
64451SOL    HW195250  12.767  11.554   7.069
64451SOL    HW295251  12.686  11.614   7.182
64452SOL     OW95252  11.479  13.107  12.960
64452SOL    HW195253  11.526  13.097  13.043
64452SOL    HW295254  11.398  13.057  12.972
64453SOL     OW95255   0.430   3.915   5.746
64453SOL    HW195256   0.356   3.856   5.728
64453SOL    HW295257   0.408   3.955   5.831
64454SOL     OW95258   9.072  13.283   3.592
64454SOL    HW195259   9.080  13.369   3.551
64454SOL    HW295260   8.999  13.293   3.653
64455SOL     OW95261   9.039   1.835  13.389
64455SOL    HW195262   8.978   1.882  13.330
64455SOL    HW295263   9.122   1.882  13.379
64456SOL     OW95264  14.673   5.230  11.859
64456SOL    HW195265  14.748   5.289  11.853
64456SOL    HW295266  14.685   5.166  11.789
64457SOL     OW95267   7.598   2.473  10.984
64457SOL    HW195268   7.544   2.504  11.056
64457SOL    HW295269   7.688   2.487  11.013
64458SOL     OW95270   3.917   2.503  11.029
64458SOL    HW195271   3.981   2.432  11.021
64458SOL    HW295272   3.832   2.459  11.034
64459SOL     OW95273  14.617  13.155   6.268
64459SOL    HW195274  14.620  13.060   6.279
64459SOL    HW295275  14.636  13.168   6.175
64460SOL     OW95276   4.769   0.150   0.254
64460SOL    HW195277   4.808   0.234   0.279
64460SOL    HW295278   4.675   0.161   0.270
64461SOL     OW95279   4.854   0.039   5.213
64461SOL    HW195280   4.799   0.107   5.174
64461SOL    HW295281   4.918   0.018   5.146
64462SOL     OW95282  13.775   0.083   6.932
64462SOL    HW195283  13.684   0.054   6.922
64462SOL    HW295284  13.778   0.122   7.020
64463SOL     OW95285  12.389   8.758  14.855
64463SOL    HW195286  12.379   8.662  14.856
64463SOL    HW295287  12.358   8.783  14.767
64464SOL     OW95288   3.225   6.736  11.355
64464SOL    HW195289   3.213   6.677  11.429
64464SOL    HW295290   3.247   6.678  11.282
64465SOL     OW95291  13.729   8.847  13.872
64465SOL    HW195292  13.804   8.793  13.894
64465SOL    HW295293  13.749   8.883  13.786
64466SOL     OW95294   8.103  13.823   6.994
64466SOL    HW195295   8.124  13.742   6.948
64466SOL    HW295296   8.186  13.850   7.033
64467SOL     OW95297   6.175   4.842   5.771
64467SOL    HW195298   6.208   4.753   5.757
64467SOL    HW295299   6.221   4.895   5.706
64468SOL     OW95300   6.256  11.515   9.827
64468SOL    HW195301   6.256  11.483   9.917
64468SOL    HW295302   6.268  11.437   9.774
64469SOL     OW95303  14.678   3.089   3.093
64469SOL    HW195304  14.701   3.166   3.041
64469SOL    HW295305  14.641   3.125   3.174
64470SOL     OW95306  14.803  12.405  11.324
64470SOL    HW195307  14.773  12.496  11.323
64470SOL    HW295308  14.725  12.355  11.347
64471SOL     OW95309   4.422   6.491   6.268
64471SOL    HW195310   4.471   6.572   6.283
64471SOL    HW295311   4.403   6.491   6.175
64472SOL     OW95312   9.076   2.498  13.780
64472SOL    HW195313   8.992   2.537  13.806
64472SOL    HW295314   9.069   2.486  13.686
64473SOL     OW95315   7.938   5.895  10.266
64473SOL    HW195316   7.989   5.957  10.319
64473SOL    HW295317   7.872   5.861  10.326
64474SOL     OW95318   4.509  13.971   9.102
64474SOL    HW195319   4.416  13.980   9.083
64474SOL    HW295320   4.534  14.055   9.142
64475SOL     OW95321   3.191  12.170   0.103
64475SOL    HW195322   3.180  12.245   0.162
64475SOL    HW295323   3.286  12.159   0.095
64476SOL     OW95324   6.966   1.250  14.007
64476SOL    HW195325   6.883   1.295  13.992
64476SOL    HW295326   7.017   1.266  13.928
64477SOL     OW95327  11.350  12.181  13.531
64477SOL    HW195328  11.402  12.117  13.482
64477SOL    HW295329  11.305  12.232  13.463
64478SOL     OW95330  11.348   8.878  10.030
64478SOL    HW195331  11.435   8.873   9.990
64478SOL    HW295332  11.305   8.950   9.984
64479SOL     OW95333   0.186  10.372   7.639
64479SOL    HW195334   0.181  10.310   7.566
64479SOL    HW295335   0.270  10.415   7.628
64480SOL     OW95336   5.352   9.983  13.114
64480SOL    HW195337   5.412  10.009  13.045
64480SOL    HW295338   5.338   9.889  13.099
64481SOL     OW95339  11.904   9.984  14.284
64481SOL    HW195340  11.822   9.955  14.245
64481SOL    HW295341  11.920   9.922  14.356
64482SOL     OW95342   9.213   2.662   7.383
64482SOL    HW195343   9.229   2.755   7.366
64482SOL    HW295344   9.152   2.661   7.456
64483SOL     OW95345  10.462   0.277   9.533
64483SOL    HW195346  10.403   0.204   9.518
64483SOL    HW295347  10.546   0.249   9.496
64484SOL     OW95348   3.971   7.535  10.466
64484SOL    HW195349   4.060   7.536  10.502
64484SOL    HW295350   3.933   7.454  10.500
64485SOL     OW95351  10.660  12.378  10.586
64485SOL    HW195352  10.747  12.340  10.583
64485SOL    HW295353  10.673  12.472  10.573
64486SOL     OW95354  13.584   5.204  10.682
64486SOL    HW195355  13.663   5.164  10.717
64486SOL    HW295356  13.599   5.208  10.588
64487SOL     OW95357   9.695   7.719  13.991
64487SOL    HW195358   9.780   7.713  13.949
64487SOL    HW295359   9.644   7.777  13.934
64488SOL     OW95360  10.816  12.926   3.826
64488SOL    HW195361  10.901  12.953   3.791
64488SOL    HW295362  10.753  12.986   3.787
64489SOL     OW95363   7.694   8.812  13.995
64489SOL    HW195364   7.705   8.719  14.014
64489SOL    HW295365   7.603   8.821  13.967
64490SOL     OW95366   0.992   9.495  14.369
64490SOL    HW195367   0.946   9.579  14.372
64490SOL    HW295368   0.956   9.444  14.442
64491SOL     OW95369  12.993   9.132  11.607
64491SOL    HW195370  12.963   9.172  11.688
64491SOL    HW295371  13.088   9.147  11.606
64492SOL     OW95372   7.060   5.785   4.180
64492SOL    HW195373   6.993   5.819   4.240
64492SOL    HW295374   7.012   5.734   4.116
64493SOL     OW95375  10.970   3.780  12.281
64493SOL    HW195376  10.957   3.847  12.349
64493SOL    HW295377  10.907   3.804  12.212
64494SOL     OW95378   4.588   7.076   5.535
64494SOL    HW195379   4.530   7.141   5.575
64494SOL    HW295380   4.632   7.123   5.464
64495SOL     OW95381   2.139   8.608   9.343
64495SOL    HW195382   2.215   8.562   9.307
64495SOL    HW295383   2.121   8.563   9.425
64496SOL     OW95384  12.122   5.522  10.978
64496SOL    HW195385  12.047   5.579  10.997
64496SOL    HW295386  12.086   5.434  10.984
64497SOL     OW95387   6.299   3.790   4.517
64497SOL    HW195388   6.343   3.706   4.527
64497SOL    HW295389   6.232   3.774   4.451
64498SOL     OW95390   5.941   0.408  12.993
64498SOL    HW195391   5.905   0.469  13.057
64498SOL    HW295392   6.003   0.354  13.043
64499SOL     OW95393  12.989   9.813   6.811
64499SOL    HW195394  12.980   9.837   6.903
64499SOL    HW295395  13.008   9.896   6.766
64500SOL     OW95396  11.333  10.723  13.462
64500SOL    HW195397  11.301  10.665  13.532
64500SOL    HW295398  11.302  10.810  13.486
64501SOL     OW95399   0.178  11.174   2.866
64501SOL    HW195400   0.208  11.097   2.914
64501SOL    HW295401   0.167  11.144   2.776
64502SOL     OW95402   8.995   9.674  10.813
64502SOL    HW195403   9.062   9.680  10.880
64502SOL    HW295404   8.965   9.582  10.816
64503SOL     OW95405  11.207  12.055  11.107
64503SOL    HW195406  11.289  12.015  11.078
64503SOL    HW295407  11.214  12.055  11.202
64504SOL     OW95408   9.607   3.508   5.937
64504SOL    HW195409   9.604   3.474   6.026
64504SOL    HW295410   9.680   3.570   5.937
64505SOL     OW95411   8.903   9.728   8.525
64505SOL    HW195412   8.887   9.732   8.619
64505SOL    HW295413   8.857   9.803   8.489
64506SOL     OW95414   2.668   3.125   1.913
64506SOL    HW195415   2.594   3.158   1.862
64506SOL    HW295416   2.739   3.187   1.895
64507SOL     OW95417   3.746  10.969   7.985
64507SOL    HW195418   3.755  11.064   7.972
64507SOL    HW295419   3.688  10.941   7.914
64508SOL     OW95420   5.169   4.504   4.581
64508SOL    HW195421   5.198   4.447   4.510
64508SOL    HW295422   5.229   4.579   4.577
64509SOL     OW95423   8.036  13.081   7.541
64509SOL    HW195424   7.982  13.130   7.480
64509SOL    HW295425   8.023  12.989   7.516
64510SOL     OW95426   9.049   9.605   1.715
64510SOL    HW195427   8.981   9.552   1.673
64510SOL    HW295428   9.131   9.560   1.695
64511SOL     OW95429   1.688   2.331   6.422
64511SOL    HW195430   1.638   2.299   6.497
64511SOL    HW295431   1.749   2.395   6.459
64512SOL     OW95432  10.879   3.975   0.070
64512SOL    HW195433  10.867   3.937  14.861
64512SOL    HW295434  10.839   3.911   0.130
64513SOL     OW95435   6.058   7.045  12.627
64513SOL    HW195436   6.020   6.994  12.556
64513SOL    HW295437   6.136   6.996  12.653
64514SOL     OW95438  10.853   6.841   4.531
64514SOL    HW195439  10.817   6.929   4.520
64514SOL    HW295440  10.798   6.786   4.475
64515SOL     OW95441   7.548   5.368   0.170
64515SOL    HW195442   7.551   5.325   0.084
64515SOL    HW295443   7.560   5.297   0.233
64516SOL     OW95444  13.661  12.075   0.935
64516SOL    HW195445  13.642  12.064   0.842
64516SOL    HW295446  13.747  12.117   0.937
64517SOL     OW95447   9.088   8.083   4.046
64517SOL    HW195448   9.168   8.059   3.999
64517SOL    HW295449   9.018   8.034   4.002
64518SOL     OW95450   9.033   9.615  13.940
64518SOL    HW195451   8.948   9.657  13.929
64518SOL    HW295452   9.013   9.529  13.976
64519SOL     OW95453   0.426  13.166   5.709
64519SOL    HW195454   0.490  13.101   5.741
64519SOL    HW295455   0.443  13.244   5.763
64520SOL     OW95456   4.583   4.158  11.717
64520SOL    HW195457   4.616   4.244  11.744
64520SOL    HW295458   4.492   4.157  11.748
64521SOL     OW95459   3.770   9.783   9.217
64521SOL    HW195460   3.730   9.823   9.140
64521SOL    HW295461   3.859   9.817   9.219
64522SOL     OW95462   3.744  11.983  13.439
64522SOL    HW195463   3.838  12.004  13.440
64522SOL    HW295464   3.712  12.021  13.357
64523SOL     OW95465   7.814   0.312  12.127
64523SOL    HW195466   7.765   0.253  12.183
64523SOL    HW295467   7.905   0.287  12.139
64524SOL     OW95468   5.287  11.953   4.844
64524SOL    HW195469   5.223  11.985   4.781
64524SOL    HW295470   5.241  11.951   4.928
64525SOL     OW95471   4.129  13.384   6.268
64525SOL    HW195472   4.078  13.325   6.323
64525SOL    HW295473   4.200  13.330   6.234
64526SOL     OW95474   5.850  14.374   7.948
64526SOL    HW195475   5.859  14.280   7.968
64526SOL    HW295476   5.916  14.416   8.003
64527SOL     OW95477   7.191   0.450   2.505
64527SOL    HW195478   7.260   0.512   2.529
64527SOL    HW295479   7.110   0.495   2.527
64528SOL     OW95480  13.514  14.549  14.216
64528SOL    HW195481  13.580  14.572  14.281
64528SOL    HW295482  13.451  14.495  14.264
64529SOL     OW95483  12.208   6.522   1.175
64529SOL    HW195484  12.114   6.525   1.193
64529SOL    HW295485  12.240   6.451   1.232
64530SOL     OW95486  11.932  14.212   4.250
64530SOL    HW195487  12.019  14.222   4.212
64530SOL    HW295488  11.905  14.123   4.226
64531SOL     OW95489   0.178  12.404   3.943
64531SOL    HW195490   0.137  12.476   3.991
64531SOL    HW295491   0.117  12.385   3.872
64532SOL     OW95492   5.236   4.907   1.097
64532SOL    HW195493   5.313   4.907   1.154
64532SOL    HW295494   5.198   4.820   1.109
64533SOL     OW95495   2.514  13.397   0.565
64533SOL    HW195496   2.452  13.329   0.591
64533SOL    HW295497   2.543  13.435   0.648
64534SOL     OW95498   5.893   2.383   9.658
64534SOL    HW195499   5.925   2.301   9.697
64534SOL    HW295500   5.942   2.452   9.703
64535SOL     OW95501   0.958   8.170   8.105
64535SOL    HW195502   0.929   8.137   8.190
64535SOL    HW295503   1.033   8.115   8.083
64536SOL     OW95504   4.700   9.077  12.909
64536SOL    HW195505   4.792   9.096  12.927
64536SOL    HW295506   4.687   9.106  12.818
64537SOL     OW95507   7.126  11.743   9.944
64537SOL    HW195508   7.038  11.718   9.972
64537SOL    HW295509   7.122  11.741   9.848
64538SOL     OW95510  12.525   8.121   6.890
64538SOL    HW195511  12.481   8.206   6.892
64538SOL    HW295512  12.545   8.102   6.982
64539SOL     OW95513   7.963  12.491   2.711
64539SOL    HW195514   7.932  12.578   2.735
64539SOL    HW295515   8.052  12.505   2.678
64540SOL     OW95516  12.763   6.986  14.437
64540SOL    HW195517  12.686   6.952  14.392
64540SOL    HW295518  12.750   7.080  14.440
64541SOL     OW95519   0.736   1.194   1.044
64541SOL    HW195520   0.666   1.238   1.093
64541SOL    HW295521   0.724   1.101   1.063
64542SOL     OW95522  10.311   7.034   6.681
64542SOL    HW195523  10.395   7.000   6.651
64542SOL    HW295524  10.329   7.068   6.768
64543SOL     OW95525   9.949   8.434   6.435
64543SOL    HW195526   9.861   8.399   6.448
64543SOL    HW295527  10.002   8.359   6.409
64544SOL     OW95528  12.182   0.149   6.270
64544SOL    HW195529  12.178   0.121   6.362
64544SOL    HW295530  12.254   0.098   6.233
64545SOL     OW95531   4.190  13.051  12.889
64545SOL    HW195532   4.121  13.001  12.845
64545SOL    HW295533   4.243  12.985  12.933
64546SOL     OW95534  11.835   8.441  12.596
64546SOL    HW195535  11.760   8.487  12.632
64546SOL    HW295536  11.882   8.406  12.672
64547SOL     OW95537  11.871   3.665  14.671
64547SOL    HW195538  11.929   3.591  14.688
64547SOL    HW295539  11.839   3.650  14.582
64548SOL     OW95540  10.641   0.074   6.198
64548SOL    HW195541  10.731   0.055   6.173
64548SOL    HW295542  10.599   0.102   6.117
64549SOL     OW95543   9.576   4.100  11.056
64549SOL    HW195544   9.641   4.164  11.085
64549SOL    HW295545   9.610   4.016  11.085
64550SOL     OW95546   4.945  11.914   2.000
64550SOL    HW195547   5.013  11.854   2.031
64550SOL    HW295548   4.988  11.966   1.932
64551SOL     OW95549  13.656   2.344  12.324
64551SOL    HW195550  13.673   2.330  12.418
64551SOL    HW295551  13.566   2.378  12.322
64552SOL     OW95552  13.246   8.626   3.488
64552SOL    HW195553  13.168   8.590   3.446
64552SOL    HW295554  13.217   8.709   3.525
64553SOL     OW95555   9.758   4.206   1.706
64553SOL    HW195556   9.703   4.164   1.640
64553SOL    HW295557   9.844   4.166   1.696
64554SOL     OW95558  14.190   4.478  13.288
64554SOL    HW195559  14.124   4.425  13.244
64554SOL    HW295560  14.214   4.428  13.366
64555SOL     OW95561   7.473  14.016   7.992
64555SOL    HW195562   7.560  14.044   8.022
64555SOL    HW295563   7.413  14.048   8.059
64556SOL     OW95564   2.269  14.765  13.897
64556SOL    HW195565   2.224  14.688  13.863
64556SOL    HW295566   2.290  14.742  13.988
64557SOL     OW95567   3.864   3.699  12.890
64557SOL    HW195568   3.888   3.714  12.981
64557SOL    HW295569   3.807   3.622  12.893
64558SOL     OW95570   2.684   9.301   8.789
64558SOL    HW195571   2.755   9.365   8.796
64558SOL    HW295572   2.667   9.295   8.695
64559SOL     OW95573   2.160  12.168  12.193
64559SOL    HW195574   2.132  12.191  12.282
64559SOL    HW295575   2.080  12.137  12.150
64560SOL     OW95576   1.754   1.355   2.630
64560SOL    HW195577   1.737   1.444   2.601
64560SOL    HW295578   1.839   1.359   2.674
64561SOL     OW95579  10.962  11.055   9.941
64561SOL    HW195580  11.043  11.014   9.971
64561SOL    HW295581  10.989  11.106   9.864
64562SOL     OW95582   5.796   2.343  10.743
64562SOL    HW195583   5.765   2.333  10.653
64562SOL    HW295584   5.836   2.258  10.764
64563SOL     OW95585  11.651  12.913   0.348
64563SOL    HW195586  11.625  12.830   0.309
64563SOL    HW295587  11.644  12.976   0.276
64564SOL     OW95588   4.052   4.772   3.227
64564SOL    HW195589   3.978   4.725   3.187
64564SOL    HW295590   4.011   4.837   3.284
64565SOL     OW95591  12.006  11.796   8.991
64565SOL    HW195592  12.100  11.789   8.978
64565SOL    HW295593  11.990  11.889   9.006
64566SOL     OW95594   1.497   0.565   5.481
64566SOL    HW195595   1.405   0.576   5.457
64566SOL    HW295596   1.512   0.628   5.552
64567SOL     OW95597  13.255  14.684   2.499
64567SOL    HW195598  13.239  14.590   2.490
64567SOL    HW295599  13.280  14.696   2.591
64568SOL     OW95600   9.969   9.562   1.935
64568SOL    HW195601  10.027   9.528   1.866
64568SOL    HW295602   9.882   9.560   1.895
64569SOL     OW95603  12.626   0.631  11.791
64569SOL    HW195604  12.577   0.602  11.868
64569SOL    HW295605  12.561   0.675  11.737
64570SOL     OW95606   2.979   0.444   4.363
64570SOL    HW195607   2.897   0.492   4.368
64570SOL    HW295608   3.040   0.494   4.417
64571SOL     OW95609  13.408  12.564  12.022
64571SOL    HW195610  13.447  12.651  12.025
64571SOL    HW295611  13.314  12.579  12.031
64572SOL     OW95612   6.341   9.430   8.820
64572SOL    HW195613   6.339   9.514   8.774
64572SOL    HW295614   6.337   9.365   8.750
64573SOL     OW95615   5.667  11.803   8.174
64573SOL    HW195616   5.577  11.772   8.179
64573SOL    HW295617   5.660  11.899   8.173
64574SOL     OW95618   4.086  10.109   7.094
64574SOL    HW195619   4.064  10.154   7.013
64574SOL    HW295620   4.012  10.051   7.111
64575SOL     OW95621   6.546   1.812   2.367
64575SOL    HW195622   6.641   1.822   2.369
64575SOL    HW295623   6.512   1.900   2.385
64576SOL     OW95624   2.762   6.661  14.514
64576SOL    HW195625   2.809   6.661  14.597
64576SOL    HW295626   2.797   6.736  14.466
64577SOL     OW95627   8.289   9.103   8.328
64577SOL    HW195628   8.241   9.080   8.407
64577SOL    HW295629   8.308   9.196   8.338
64578SOL     OW95630   0.020  13.316   5.431
64578SOL    HW195631   0.063  13.242   5.387
64578SOL    HW295632  14.842  13.354   5.364
64579SOL     OW95633   3.497   5.518  10.004
64579SOL    HW195634   3.438   5.565   9.945
64579SOL    HW295635   3.585   5.540   9.974
64580SOL     OW95636  11.439   0.584   3.920
64580SOL    HW195637  11.482   0.593   3.835
64580SOL    HW295638  11.416   0.491   3.926
64581SOL     OW95639   3.611   2.164   0.754
64581SOL    HW195640   3.543   2.158   0.688
64581SOL    HW295641   3.654   2.079   0.752
64582SOL     OW95642   5.917  13.841   3.092
64582SOL    HW195643   5.924  13.845   2.997
64582SOL    HW295644   5.932  13.931   3.121
64583SOL     OW95645   1.334   9.131   8.447
64583SOL    HW195646   1.383   9.176   8.379
64583SOL    HW295647   1.400   9.095   8.505
64584SOL     OW95648   6.105   5.788   3.060
64584SOL    HW195649   6.062   5.778   2.975
64584SOL    HW295650   6.199   5.780   3.040
64585SOL     OW95651   7.337   4.621  14.436
64585SOL    HW195652   7.311   4.712  14.423
64585SOL    HW295653   7.362   4.590  14.348
64586SOL     OW95654   4.273   9.486  11.031
64586SOL    HW195655   4.341   9.480  10.965
64586SOL    HW295656   4.301   9.556  11.089
64587SOL     OW95657   5.327   4.012   9.222
64587SOL    HW195658   5.376   3.989   9.143
64587SOL    HW295659   5.237   3.985   9.204
64588SOL     OW95660   4.901   6.506  13.687
64588SOL    HW195661   4.945   6.592  13.688
64588SOL    HW295662   4.963   6.447  13.731
64589SOL     OW95663   0.848   0.479  14.588
64589SOL    HW195664   0.941   0.496  14.574
64589SOL    HW295665   0.826   0.411  14.525
64590SOL     OW95666   1.363   7.485   2.842
64590SOL    HW195667   1.440   7.540   2.830
64590SOL    HW295668   1.292   7.532   2.800
64591SOL     OW95669   8.328  12.812   5.802
64591SOL    HW195670   8.371  12.895   5.823
64591SOL    HW295671   8.393  12.763   5.753
64592SOL     OW95672   1.894  10.400   5.172
64592SOL    HW195673   1.881  10.337   5.243
64592SOL    HW295674   1.964  10.457   5.204
64593SOL     OW95675   6.859  14.031   1.515
64593SOL    HW195676   6.917  13.984   1.455
64593SOL    HW295677   6.817  13.962   1.567
64594SOL     OW95678  13.475   9.679  14.510
64594SOL    HW195679  13.533   9.697  14.585
64594SOL    HW295680  13.412   9.751  14.511
64595SOL     OW95681  12.295  13.990   9.825
64595SOL    HW195682  12.334  13.980   9.912
64595SOL    HW295683  12.250  14.075   9.830
64596SOL     OW95684  10.360   7.547   2.962
64596SOL    HW195685  10.357   7.636   2.926
64596SOL    HW295686  10.394   7.493   2.890
64597SOL     OW95687   3.241   7.010  11.335
64597SOL    HW195688   3.254   7.045  11.247
64597SOL    HW295689   3.244   6.915  11.324
64598SOL     OW95690  10.863  11.467  10.295
64598SOL    HW195691  10.934  11.468  10.230
64598SOL    HW295692  10.899  11.514  10.370
64599SOL     OW95693  10.303   7.597   3.570
64599SOL    HW195694  10.343   7.677   3.605
64599SOL    HW295695  10.339   7.589   3.482
64600SOL     OW95696   2.542   1.130   0.445
64600SOL    HW195697   2.518   1.195   0.512
64600SOL    HW295698   2.493   1.157   0.368
64601SOL     OW95699   4.701   4.170   1.061
64601SOL    HW195700   4.776   4.117   1.089
64601SOL    HW295701   4.693   4.152   0.967
64602SOL     OW95702   2.671  10.476  10.269
64602SOL    HW195703   2.674  10.571  10.276
64602SOL    HW295704   2.581  10.456  10.243
64603SOL     OW95705   8.488   4.542  13.844
64603SOL    HW195706   8.524   4.479  13.782
64603SOL    HW295707   8.410   4.577  13.801
64604SOL     OW95708   7.656  13.219   5.199
64604SOL    HW195709   7.658  13.310   5.170
64604SOL    HW295710   7.712  13.173   5.137
64605SOL     OW95711   0.785   2.972   0.262
64605SOL    HW195712   0.859   3.023   0.296
64605SOL    HW295713   0.826   2.898   0.217
64606SOL     OW95714  12.648   2.569   5.552
64606SOL    HW195715  12.564   2.606   5.526
64606SOL    HW295716  12.652   2.485   5.505
64607SOL     OW95717   5.016   5.775   1.171
64607SOL    HW195718   5.064   5.816   1.099
64607SOL    HW295719   4.987   5.691   1.135
64608SOL     OW95720  13.090   7.612   3.789
64608SOL    HW195721  13.106   7.669   3.865
64608SOL    HW295722  13.013   7.650   3.746
64609SOL     OW95723   7.293   5.366   2.197
64609SOL    HW195724   7.198   5.366   2.183
64609SOL    HW295725   7.320   5.457   2.183
64610SOL     OW95726   0.902   4.678   9.314
64610SOL    HW195727   0.965   4.743   9.346
64610SOL    HW295728   0.827   4.687   9.374
64611SOL     OW95729   7.626  13.513   1.658
64611SOL    HW195730   7.694  13.503   1.725
64611SOL    HW295731   7.543  13.505   1.707
64612SOL     OW95732  12.465   0.017   2.651
64612SOL    HW195733  12.434   0.018   2.560
64612SOL    HW295734  12.512   0.100   2.661
64613SOL     OW95735  13.599   8.893   9.689
64613SOL    HW195736  13.549   8.833   9.744
64613SOL    HW295737  13.630   8.961   9.749
64614SOL     OW95738   5.300   9.337   3.430
64614SOL    HW195739   5.309   9.244   3.446
64614SOL    HW295740   5.216   9.346   3.384
64615SOL     OW95741  11.442   8.683   6.309
64615SOL    HW195742  11.444   8.774   6.280
64615SOL    HW295743  11.444   8.632   6.227
64616SOL     OW95744  11.094   8.608   9.006
64616SOL    HW195745  11.111   8.654   8.923
64616SOL    HW295746  11.006   8.637   9.031
64617SOL     OW95747   0.934   8.543  13.268
64617SOL    HW195748   0.955   8.455  13.237
64617SOL    HW295749   0.921   8.594  13.189
64618SOL     OW95750  12.348   3.921  13.455
64618SOL    HW195751  12.327   3.967  13.536
64618SOL    HW295752  12.436   3.951  13.433
64619SOL     OW95753   1.929  13.376  12.485
64619SOL    HW195754   1.836  13.396  12.501
64619SOL    HW295755   1.972  13.392  12.569
64620SOL     OW95756   4.392   5.930   4.672
64620SOL    HW195757   4.418   5.838   4.679
64620SOL    HW295758   4.429   5.960   4.590
64621SOL     OW95759   0.386  12.101  10.317
64621SOL    HW195760   0.395  12.194  10.297
64621SOL    HW295761   0.294  12.081  10.301
64622SOL     OW95762   2.281   9.179  12.321
64622SOL    HW195763   2.259   9.105  12.264
64622SOL    HW295764   2.222   9.170  12.396
64623SOL     OW95765   6.245   9.717   4.279
64623SOL    HW195766   6.219   9.806   4.255
64623SOL    HW295767   6.253   9.719   4.375
64624SOL     OW95768  12.170  11.156  10.416
64624SOL    HW195769  12.160  11.108  10.333
64624SOL    HW295770  12.247  11.211  10.403
64625SOL     OW95771   6.760  12.931   9.507
64625SOL    HW195772   6.704  12.996   9.467
64625SOL    HW295773   6.702  12.882   9.565
64626SOL     OW95774   9.169  12.268   2.166
64626SOL    HW195775   9.196  12.183   2.131
64626SOL    HW295776   9.195  12.265   2.259
64627SOL     OW95777   0.228  11.784   5.758
64627SOL    HW195778   0.251  11.851   5.821
64627SOL    HW295779   0.252  11.701   5.801
64628SOL     OW95780   1.687   3.853   7.776
64628SOL    HW195781   1.747   3.781   7.797
64628SOL    HW295782   1.605   3.810   7.754
64629SOL     OW95783   6.232  14.232  13.281
64629SOL    HW195784   6.324  14.256  13.270
64629SOL    HW295785   6.184  14.301  13.234
64630SOL     OW95786  13.793  10.047  14.451
64630SOL    HW195787  13.723  10.066  14.513
64630SOL    HW295788  13.828   9.962  14.480
64631SOL     OW95789   1.576   4.474   6.886
64631SOL    HW195790   1.527   4.523   6.820
64631SOL    HW295791   1.524   4.483   6.966
64632SOL     OW95792  10.477  13.178   2.490
64632SOL    HW195793  10.385  13.152   2.484
64632SOL    HW295794  10.520  13.106   2.536
64633SOL     OW95795   0.414   7.774   0.814
64633SOL    HW195796   0.463   7.692   0.812
64633SOL    HW295797   0.454   7.824   0.885
64634SOL     OW95798   9.282   8.051  14.704
64634SOL    HW195799   9.365   8.004  14.696
64634SOL    HW295800   9.242   8.045  14.617
64635SOL     OW95801   9.774  13.903  11.002
64635SOL    HW195802   9.789  13.995  11.025
64635SOL    HW295803   9.722  13.869  11.075
64636SOL     OW95804   9.866  14.220  14.201
64636SOL    HW195805   9.784  14.187  14.166
64636SOL    HW295806   9.841  14.273  14.277
64637SOL     OW95807   0.227   1.632   2.721
64637SOL    HW195808   0.137   1.627   2.688
64637SOL    HW295809   0.257   1.541   2.722
64638SOL     OW95810   7.185   0.354  12.750
64638SOL    HW195811   7.172   0.291  12.821
64638SOL    HW295812   7.203   0.437  12.795
64639SOL     OW95813   1.297   3.832  13.075
64639SOL    HW195814   1.219   3.797  13.032
64639SOL    HW295815   1.328   3.900  13.014
64640SOL     OW95816  14.544   8.712   7.600
64640SOL    HW195817  14.559   8.806   7.605
64640SOL    HW295818  14.596   8.684   7.524
64641SOL     OW95819   0.288   6.544   3.895
64641SOL    HW195820   0.374   6.558   3.855
64641SOL    HW295821   0.231   6.521   3.821
64642SOL     OW95822  11.531  12.321   1.917
64642SOL    HW195823  11.464  12.323   1.985
64642SOL    HW295824  11.578  12.403   1.927
64643SOL     OW95825   4.772   3.421   8.757
64643SOL    HW195826   4.754   3.433   8.664
64643SOL    HW295827   4.689   3.446   8.800
64644SOL     OW95828   3.557   5.745   8.843
64644SOL    HW195829   3.486   5.786   8.893
64644SOL    HW295830   3.554   5.788   8.758
64645SOL     OW95831   3.023   7.615   0.711
64645SOL    HW195832   3.025   7.680   0.782
64645SOL    HW295833   3.102   7.634   0.660
64646SOL     OW95834   9.521   6.133   2.487
64646SOL    HW195835   9.473   6.159   2.566
64646SOL    HW295836   9.561   6.050   2.510
64647SOL     OW95837  14.568  13.840   0.900
64647SOL    HW195838  14.544  13.931   0.913
64647SOL    HW295839  14.628  13.819   0.972
64648SOL     OW95840   8.280   1.076   3.843
64648SOL    HW195841   8.237   1.084   3.758
64648SOL    HW295842   8.267   1.161   3.885
64649SOL     OW95843   9.445   6.511   7.849
64649SOL    HW195844   9.375   6.480   7.792
64649SOL    HW295845   9.452   6.604   7.830
64650SOL     OW95846   3.973  11.533   4.455
64650SOL    HW195847   4.020  11.606   4.414
64650SOL    HW295848   3.994  11.540   4.548
64651SOL     OW95849   0.914   1.469   2.510
64651SOL    HW195850   0.845   1.520   2.468
64651SOL    HW295851   0.968   1.439   2.437
64652SOL     OW95852   3.791   2.060  11.764
64652SOL    HW195853   3.822   2.028  11.679
64652SOL    HW295854   3.820   1.994  11.826
64653SOL     OW95855   9.582  13.629   3.635
64653SOL    HW195856   9.644  13.609   3.564
64653SOL    HW295857   9.508  13.570   3.619
64654SOL     OW95858   3.249   1.399   2.767
64654SOL    HW195859   3.308   1.406   2.692
64654SOL    HW295860   3.308   1.390   2.842
64655SOL     OW95861  10.306   9.804   8.374
64655SOL    HW195862  10.334   9.895   8.365
64655SOL    HW295863  10.373   9.753   8.328
64656SOL     OW95864   3.562   4.535  14.550
64656SOL    HW195865   3.549   4.548  14.456
64656SOL    HW295866   3.474   4.523  14.584
64657SOL     OW95867   0.136   5.000  13.130
64657SOL    HW195868   0.059   5.018  13.075
64657SOL    HW295869   0.163   4.912  13.104
64658SOL     OW95870  10.112  11.347   0.469
64658SOL    HW195871  10.045  11.381   0.408
64658SOL    HW295872  10.063  11.294   0.531
64659SOL     OW95873  12.397   0.268   0.068
64659SOL    HW195874  12.335   0.279  14.873
64659SOL    HW295875  12.341   0.265   0.146
64660SOL     OW95876   3.488   4.911  10.160
64660SOL    HW195877   3.506   4.965  10.237
64660SOL    HW295878   3.412   4.953  10.119
64661SOL     OW95879   8.034   2.813  13.934
64661SOL    HW195880   8.078   2.787  13.854
64661SOL    HW295881   7.944   2.830  13.907
64662SOL     OW95882   2.446   0.420   2.315
64662SOL    HW195883   2.538   0.397   2.302
64662SOL    HW295884   2.408   0.418   2.228
64663SOL     OW95885   8.964  12.757   1.364
64663SOL    HW195886   8.931  12.761   1.274
64663SOL    HW295887   8.910  12.820   1.412
64664SOL     OW95888   9.910   0.175   1.185
64664SOL    HW195889   9.867   0.259   1.201
64664SOL    HW295890   9.958   0.188   1.103
64665SOL     OW95891   4.674  13.453  13.403
64665SOL    HW195892   4.614  13.523  13.378
64665SOL    HW295893   4.619  13.375  13.408
64666SOL     OW95894   8.212  11.351  12.063
64666SOL    HW195895   8.127  11.394  12.071
64666SOL    HW295896   8.270  11.418  12.026
64667SOL     OW95897   9.345   4.333  12.502
64667SOL    HW195898   9.419   4.308  12.447
64667SOL    HW295899   9.311   4.250  12.535
64668SOL     OW95900   7.986   0.728   5.213
64668SOL    HW195901   7.908   0.780   5.190
64668SOL    HW295902   7.987   0.658   5.148
64669SOL     OW95903  10.704   3.721   1.558
64669SOL    HW195904  10.734   3.634   1.531
64669SOL    HW295905  10.728   3.727   1.650
64670SOL     OW95906  13.036   1.983   9.956
64670SOL    HW195907  13.104   1.920   9.978
64670SOL    HW295908  13.075   2.069   9.975
64671SOL     OW95909   3.040   3.421   2.640
64671SOL    HW195910   3.095   3.391   2.567
64671SOL    HW295911   2.956   3.443   2.600
64672SOL     OW95912   2.030   5.808   4.791
64672SOL    HW195913   1.995   5.784   4.705
64672SOL    HW295914   2.108   5.860   4.772
64673SOL     OW95915  13.948  10.483   8.781
64673SOL    HW195916  13.966  10.445   8.695
64673SOL    HW295917  13.876  10.431   8.816
64674SOL     OW95918  11.047   2.795   7.620
64674SOL    HW195919  11.045   2.851   7.543
64674SOL    HW295920  11.125   2.823   7.668
64675SOL     OW95921   2.135   8.684  14.192
64675SOL    HW195922   2.194   8.610  14.207
64675SOL    HW295923   2.160   8.719  14.107
64676SOL     OW95924   2.682   3.072   5.807
64676SOL    HW195925   2.688   3.149   5.864
64676SOL    HW295926   2.588   3.053   5.802
64677SOL     OW95927   4.758  10.984   6.053
64677SOL    HW195928   4.781  10.930   5.978
64677SOL    HW295929   4.677  11.027   6.028
64678SOL     OW95930  13.274   2.021   0.493
64678SOL    HW195931  13.290   2.100   0.440
64678SOL    HW295932  13.362   1.992   0.518
64679SOL     OW95933   7.801  10.650  10.648
64679SOL    HW195934   7.718  10.697  10.645
64679SOL    HW295935   7.829  10.657  10.739
64680SOL     OW95936   6.420  14.068  13.488
64680SOL    HW195937   6.328  14.061  13.515
64680SOL    HW295938   6.417  14.070  13.393
64681SOL     OW95939  10.782  10.634   8.094
64681SOL    HW195940  10.820  10.683   8.021
64681SOL    HW295941  10.855  10.621   8.155
64682SOL     OW95942   3.652   9.813   2.205
64682SOL    HW195943   3.572   9.863   2.192
64682SOL    HW295944   3.689   9.847   2.286
64683SOL     OW95945   8.881   5.115   1.843
64683SOL    HW195946   8.924   5.044   1.892
64683SOL    HW295947   8.886   5.191   1.901
64684SOL     OW95948   0.599  11.611  11.912
64684SOL    HW195949   0.514  11.636  11.876
64684SOL    HW295950   0.581  11.533  11.964
64685SOL     OW95951  14.771   5.592   7.974
64685SOL    HW195952  14.779   5.631   8.061
64685SOL    HW295953  14.768   5.667   7.914
64686SOL     OW95954   2.116   3.882   7.457
64686SOL    HW195955   2.178   3.903   7.387
64686SOL    HW295956   2.056   3.957   7.459
64687SOL     OW95957   9.768   3.557  11.156
64687SOL    HW195958   9.776   3.486  11.093
64687SOL    HW295959   9.857   3.569  11.190
64688SOL     OW95960   7.204  13.999  10.444
64688SOL    HW195961   7.239  14.030  10.527
64688SOL    HW295962   7.209  14.074  10.385
64689SOL     OW95963   4.342   8.572  11.869
64689SOL    HW195964   4.271   8.524  11.913
64689SOL    HW295965   4.299   8.616  11.796
64690SOL     OW95966  11.212   5.219   4.953
64690SOL    HW195967  11.237   5.272   4.877
64690SOL    HW295968  11.231   5.275   5.028
64691SOL     OW95969   3.741   1.087   5.540
64691SOL    HW195970   3.652   1.114   5.560
64691SOL    HW295971   3.740   0.991   5.551
64692SOL     OW95972  10.968  13.606   0.225
64692SOL    HW195973  11.049  13.583   0.180
64692SOL    HW295974  10.987  13.688   0.269
64693SOL     OW95975   8.582  14.229   8.186
64693SOL    HW195976   8.668  14.268   8.201
64693SOL    HW295977   8.547  14.214   8.274
64694SOL     OW95978   1.420  11.213  14.780
64694SOL    HW195979   1.469  11.166  14.848
64694SOL    HW295980   1.348  11.154  14.758
64695SOL     OW95981   2.462   4.754   1.111
64695SOL    HW195982   2.524   4.782   1.179
64695SOL    HW295983   2.405   4.830   1.098
64696SOL     OW95984   0.164   0.566   4.435
64696SOL    HW195985   0.233   0.588   4.497
64696SOL    HW295986   0.178   0.473   4.416
64697SOL     OW95987   5.629   3.585   3.540
64697SOL    HW195988   5.552   3.555   3.589
64697SOL    HW295989   5.644   3.674   3.571
64698SOL     OW95990  10.302  10.496  11.604
64698SOL    HW195991  10.288  10.503  11.699
64698SOL    HW295992  10.325  10.404  11.591
64699SOL     OW95993   3.721   6.832   6.335
64699SOL    HW195994   3.768   6.902   6.291
64699SOL    HW295995   3.778   6.805   6.406
64700SOL     OW95996   2.276   8.204  10.941
64700SOL    HW195997   2.202   8.147  10.963
64700SOL    HW295998   2.347   8.143  10.920
64701SOL     OW95999   0.259  10.360   6.669
64701SOL    HW196000   0.320  10.307   6.618
64701SOL    HW296001   0.189  10.299   6.693
64702SOL     OW96002  13.428   1.747   6.406
64702SOL    HW196003  13.380   1.826   6.430
64702SOL    HW296004  13.512   1.778   6.373
64703SOL     OW96005   6.599   2.140  14.431
64703SOL    HW196006   6.549   2.154  14.350
64703SOL    HW296007   6.577   2.215  14.486
64704SOL     OW96008  11.206  12.622   2.603
64704SOL    HW196009  11.266  12.674   2.550
64704SOL    HW296010  11.227  12.531   2.581
64705SOL     OW96011  10.103   2.383   8.742
64705SOL    HW196012  10.025   2.351   8.786
64705SOL    HW296013  10.079   2.387   8.649
64706SOL     OW96014   9.230   4.982   9.949
64706SOL    HW196015   9.259   5.073   9.959
64706SOL    HW296016   9.135   4.986   9.960
64707SOL     OW96017   6.546  13.143   7.667
64707SOL    HW196018   6.640  13.126   7.661
64707SOL    HW296019   6.537  13.237   7.653
64708SOL     OW96020   7.534   2.846  11.273
64708SOL    HW196021   7.526   2.941  11.275
64708SOL    HW296022   7.627   2.830  11.263
64709SOL     OW96023  10.990  10.722   4.943
64709SOL    HW196024  10.900  10.709   4.913
64709SOL    HW296025  11.022  10.797   4.894
64710SOL     OW96026  10.787  13.624   4.841
64710SOL    HW196027  10.841  13.604   4.918
64710SOL    HW296028  10.728  13.693   4.871
64711SOL     OW96029   5.576   8.188   7.143
64711SOL    HW196030   5.633   8.115   7.120
64711SOL    HW296031   5.598   8.208   7.234
64712SOL     OW96032   0.564   3.055   7.915
64712SOL    HW196033   0.560   3.151   7.910
64712SOL    HW296034   0.518   3.026   7.835
64713SOL     OW96035  12.602   4.959   6.543
64713SOL    HW196036  12.568   4.870   6.547
64713SOL    HW296037  12.697   4.948   6.538
64714SOL     OW96038  14.610   9.106   9.317
64714SOL    HW196039  14.641   9.192   9.347
64714SOL    HW296040  14.683   9.047   9.337
64715SOL     OW96041  14.814  11.457   9.260
64715SOL    HW196042  14.760  11.501   9.194
64715SOL    HW296043  14.751  11.417   9.320
64716SOL     OW96044   3.015  11.917  13.846
64716SOL    HW196045   2.942  11.951  13.795
64716SOL    HW296046   3.093  11.951  13.802
64717SOL     OW96047   3.958   8.051   2.222
64717SOL    HW196048   4.026   7.985   2.239
64717SOL    HW296049   3.942   8.045   2.128
64718SOL     OW96050  10.582   6.765  14.860
64718SOL    HW196051  10.530   6.806   0.052
64718SOL    HW296052  10.660   6.732   0.026
64719SOL     OW96053  12.961   1.575   4.666
64719SOL    HW196054  12.879   1.613   4.632
64719SOL    HW296055  12.949   1.481   4.659
64720SOL     OW96056   8.725   3.225  12.806
64720SOL    HW196057   8.722   3.149  12.747
64720SOL    HW296058   8.818   3.244  12.816
64721SOL     OW96059   7.022   0.900   7.286
64721SOL    HW196060   7.075   0.824   7.311
64721SOL    HW296061   6.940   0.889   7.335
64722SOL     OW96062   4.232   8.634   8.130
64722SOL    HW196063   4.169   8.625   8.202
64722SOL    HW296064   4.271   8.547   8.122
64723SOL     OW96065   6.925   6.572   5.919
64723SOL    HW196066   6.893   6.482   5.907
64723SOL    HW296067   7.017   6.568   5.891
64724SOL     OW96068   6.007  12.381   8.205
64724SOL    HW196069   6.046  12.343   8.126
64724SOL    HW296070   5.914  12.359   8.197
64725SOL     OW96071   3.159   5.963   6.551
64725SOL    HW196072   3.167   5.885   6.496
64725SOL    HW296073   3.167   6.036   6.490
64726SOL     OW96074   0.748   4.796   8.513
64726SOL    HW196075   0.804   4.826   8.440
64726SOL    HW296076   0.805   4.802   8.590
64727SOL     OW96077   9.542   8.355   9.710
64727SOL    HW196078   9.538   8.260   9.693
64727SOL    HW296079   9.631   8.370   9.742
64728SOL     OW96080   2.164  13.988  14.555
64728SOL    HW196081   2.138  13.956  14.641
64728SOL    HW296082   2.223  13.922  14.521
64729SOL     OW96083  10.024   0.787  10.837
64729SOL    HW196084   9.971   0.822  10.909
64729SOL    HW296085   9.977   0.710  10.807
64730SOL     OW96086   1.786   2.069   3.348
64730SOL    HW196087   1.771   2.158   3.317
64730SOL    HW296088   1.789   2.076   3.443
64731SOL     OW96089   8.895   7.714  12.380
64731SOL    HW196090   8.811   7.755  12.356
64731SOL    HW296091   8.875   7.621  12.386
64732SOL     OW96092  11.164  11.516  13.903
64732SOL    HW196093  11.083  11.544  13.945
64732SOL    HW296094  11.230  11.519  13.973
64733SOL     OW96095   6.294  10.639   7.965
64733SOL    HW196096   6.317  10.546   7.974
64733SOL    HW296097   6.370  10.685   8.001
64734SOL     OW96098   6.796   5.146   2.745
64734SOL    HW196099   6.819   5.100   2.664
64734SOL    HW296100   6.737   5.216   2.718
64735SOL     OW96101   7.098  12.486  11.321
64735SOL    HW196102   7.018  12.480  11.373
64735SOL    HW296103   7.070  12.519  11.236
64736SOL     OW96104   3.566   6.318  13.560
64736SOL    HW196105   3.652   6.357  13.571
64736SOL    HW296106   3.519   6.379  13.503
64737SOL     OW96107   8.955   4.060  14.335
64737SOL    HW196108   9.041   4.039  14.371
64737SOL    HW296109   8.909   3.975  14.331
64738SOL     OW96110   0.611   4.267   3.820
64738SOL    HW196111   0.676   4.272   3.890
64738SOL    HW296112   0.639   4.335   3.757
64739SOL     OW96113   2.553   7.786  10.293
64739SOL    HW196114   2.614   7.714  10.311
64739SOL    HW296115   2.547   7.833  10.376
64740SOL     OW96116  11.512   0.577   3.034
64740SOL    HW196117  11.554   0.540   2.957
64740SOL    HW296118  11.524   0.511   3.102
64741SOL     OW96119  13.967   7.938   2.557
64741SOL    HW196120  13.968   7.995   2.480
64741SOL    HW296121  14.023   7.984   2.620
64742SOL     OW96122  13.933  14.676   1.590
64742SOL    HW196123  13.996  14.648   1.656
64742SOL    HW296124  13.873  14.735   1.636
64743SOL     OW96125  13.847   9.631   2.445
64743SOL    HW196126  13.892   9.716   2.445
64743SOL    HW296127  13.851   9.602   2.537
64744SOL     OW96128   0.146   4.525   9.362
64744SOL    HW196129   0.162   4.583   9.288
64744SOL    HW296130   0.206   4.555   9.430
64745SOL     OW96131   4.714   4.624  14.219
64745SOL    HW196132   4.797   4.668  14.238
64745SOL    HW296133   4.653   4.657  14.285
64746SOL     OW96134   7.699  12.624   3.979
64746SOL    HW196135   7.760  12.677   3.927
64746SOL    HW296136   7.620  12.677   3.983
64747SOL     OW96137   0.989   7.677   1.156
64747SOL    HW196138   1.060   7.695   1.217
64747SOL    HW296139   0.961   7.763   1.125
64748SOL     OW96140   7.527  13.477  10.735
64748SOL    HW196141   7.505  13.415  10.804
64748SOL    HW296142   7.572  13.425  10.669
64749SOL     OW96143  13.582   4.339   5.677
64749SOL    HW196144  13.527   4.329   5.754
64749SOL    HW296145  13.531   4.299   5.606
64750SOL     OW96146   2.768   9.016   1.007
64750SOL    HW196147   2.737   8.939   0.960
64750SOL    HW296148   2.793   9.078   0.938
64751SOL     OW96149  11.632   3.604   7.354
64751SOL    HW196150  11.580   3.666   7.303
64751SOL    HW296151  11.684   3.660   7.412
64752SOL     OW96152   9.925  12.352   6.894
64752SOL    HW196153   9.859  12.332   6.827
64752SOL    HW296154   9.899  12.300   6.970
64753SOL     OW96155  12.676  13.013   8.181
64753SOL    HW196156  12.724  13.010   8.264
64753SOL    HW296157  12.685  12.924   8.145
64754SOL     OW96158   4.418   9.895   1.336
64754SOL    HW196159   4.458   9.915   1.251
64754SOL    HW296160   4.488   9.853   1.386
64755SOL     OW96161   9.772   2.838   9.018
64755SOL    HW196162   9.694   2.790   8.989
64755SOL    HW296163   9.787   2.809   9.108
64756SOL     OW96164  10.141   1.571  11.049
64756SOL    HW196165  10.097   1.587  10.966
64756SOL    HW296166  10.231   1.548  11.024
64757SOL     OW96167   3.495  14.713   5.240
64757SOL    HW196168   3.433  14.641   5.233
64757SOL    HW296169   3.463  14.778   5.177
64758SOL     OW96170   5.122   6.389   6.816
64758SOL    HW196171   5.084   6.467   6.777
64758SOL    HW296172   5.063   6.318   6.792
64759SOL     OW96173  12.175  10.675   5.771
64759SOL    HW196174  12.189  10.634   5.686
64759SOL    HW296175  12.247  10.739   5.778
64760SOL     OW96176   4.507   7.874  11.441
64760SOL    HW196177   4.490   7.884  11.347
64760SOL    HW296178   4.427   7.906  11.484
64761SOL     OW96179  10.675   1.617   0.082
64761SOL    HW196180  10.652   1.707   0.060
64761SOL    HW296181  10.636   1.565   0.011
64762SOL     OW96182  13.735   8.487   2.718
64762SOL    HW196183  13.765   8.396   2.721
64762SOL    HW296184  13.782   8.530   2.790
64763SOL     OW96185   7.399   2.683   2.153
64763SOL    HW196186   7.391   2.758   2.094
64763SOL    HW296187   7.327   2.693   2.215
64764SOL     OW96188  11.055   4.789  11.787
64764SOL    HW196189  11.030   4.865  11.735
64764SOL    HW296190  11.037   4.815  11.877
64765SOL     OW96191   8.670   5.932  10.604
64765SOL    HW196192   8.681   5.844  10.570
64765SOL    HW296193   8.620   5.979  10.536
64766SOL     OW96194  14.616   0.550  13.127
64766SOL    HW196195  14.558   0.489  13.172
64766SOL    HW296196  14.675   0.494  13.077
64767SOL     OW96197   9.912   6.699  11.157
64767SOL    HW196198   9.827   6.730  11.190
64767SOL    HW296199   9.914   6.728  11.066
64768SOL     OW96200  12.838   4.069   3.110
64768SOL    HW196201  12.885   4.141   3.069
64768SOL    HW296202  12.747   4.083   3.086
64769SOL     OW96203   9.642  13.539   7.638
64769SOL    HW196204   9.601  13.625   7.650
64769SOL    HW296205   9.729  13.560   7.603
64770SOL     OW96206  11.861  11.027  10.238
64770SOL    HW196207  11.801  10.961  10.203
64770SOL    HW296208  11.837  11.036  10.330
64771SOL     OW96209   0.799   8.605  10.242
64771SOL    HW196210   0.788   8.622  10.149
64771SOL    HW296211   0.802   8.510  10.250
64772SOL     OW96212  12.837   3.872   5.613
64772SOL    HW196213  12.861   3.801   5.672
64772SOL    HW296214  12.809   3.828   5.533
64773SOL     OW96215   0.742   0.843   2.801
64773SOL    HW196216   0.746   0.756   2.761
64773SOL    HW296217   0.683   0.892   2.744
64774SOL     OW96218   6.055   0.960  14.746
64774SOL    HW196219   5.994   0.939  14.675
64774SOL    HW296220   6.141   0.956  14.705
64775SOL     OW96221  14.066   3.192   9.861
64775SOL    HW196222  14.134   3.259   9.872
64775SOL    HW296223  14.109   3.124   9.809
64776SOL     OW96224  10.147   6.517  11.796
64776SOL    HW196225  10.128   6.611  11.798
64776SOL    HW296226  10.072   6.477  11.839
64777SOL     OW96227   6.761   9.815  12.752
64777SOL    HW196228   6.821   9.780  12.818
64777SOL    HW296229   6.774   9.760  12.675
64778SOL     OW96230   5.511  12.395   7.486
64778SOL    HW196231   5.522  12.411   7.580
64778SOL    HW296232   5.578  12.331   7.464
64779SOL     OW96233   1.224  10.915   4.455
64779SOL    HW196234   1.224  11.005   4.488
64779SOL    HW296235   1.192  10.863   4.529
64780SOL     OW96236   1.151   3.378   3.890
64780SOL    HW196237   1.102   3.410   3.966
64780SOL    HW296238   1.083   3.363   3.823
64781SOL     OW96239  10.539   7.522   5.930
64781SOL    HW196240  10.534   7.542   6.023
64781SOL    HW296241  10.591   7.593   5.893
64782SOL     OW96242   1.988   9.148   1.429
64782SOL    HW196243   2.062   9.159   1.489
64782SOL    HW296244   1.959   9.058   1.443
64783SOL     OW96245   2.468  12.458   6.458
64783SOL    HW196246   2.551  12.498   6.432
64783SOL    HW296247   2.428  12.430   6.376
64784SOL     OW96248   8.312  12.245  12.792
64784SOL    HW196249   8.386  12.263  12.735
64784SOL    HW296250   8.349  12.243  12.880
64785SOL     OW96251   0.739   0.418   2.905
64785SOL    HW196252   0.730   0.511   2.925
64785SOL    HW296253   0.833   0.401   2.911
64786SOL     OW96254   4.600   5.918  14.590
64786SOL    HW196255   4.686   5.877  14.599
64786SOL    HW296256   4.609   5.977  14.515
64787SOL     OW96257   4.100   5.529  11.023
64787SOL    HW196258   4.115   5.623  11.020
64787SOL    HW296259   4.083   5.505  10.932
64788SOL     OW96260   3.979   6.064   5.531
64788SOL    HW196261   4.027   6.046   5.450
64788SOL    HW296262   3.955   6.156   5.524
64789SOL     OW96263   8.196   9.229   3.205
64789SOL    HW196264   8.239   9.178   3.274
64789SOL    HW296265   8.215   9.320   3.228
64790SOL     OW96266  11.361   6.188  12.218
64790SOL    HW196267  11.394   6.187  12.128
64790SOL    HW296268  11.421   6.131  12.266
64791SOL     OW96269  11.443   0.206   8.296
64791SOL    HW196270  11.529   0.236   8.324
64791SOL    HW296271  11.418   0.140   8.360
64792SOL     OW96272   5.564   8.668   9.556
64792SOL    HW196273   5.545   8.624   9.639
64792SOL    HW296274   5.579   8.598   9.494
64793SOL     OW96275   0.976  11.282   1.377
64793SOL    HW196276   1.001  11.358   1.429
64793SOL    HW296277   1.059  11.246   1.345
64794SOL     OW96278  14.437   1.594  12.433
64794SOL    HW196279  14.391   1.678  12.440
64794SOL    HW296280  14.528   1.615  12.453
64795SOL     OW96281  11.986  11.981   7.636
64795SOL    HW196282  12.063  11.994   7.691
64795SOL    HW296283  11.914  12.016   7.688
64796SOL     OW96284   1.632   3.218  10.232
64796SOL    HW196285   1.600   3.130  10.212
64796SOL    HW296286   1.721   3.204  10.265
64797SOL     OW96287   8.705  12.440   4.250
64797SOL    HW196288   8.758  12.519   4.239
64797SOL    HW296289   8.632  12.468   4.305
64798SOL     OW96290  13.195  10.056   4.528
64798SOL    HW196291  13.132  10.122   4.556
64798SOL    HW296292  13.230  10.021   4.610
64799SOL     OW96293   4.652   0.686   1.610
64799SOL    HW196294   4.649   0.591   1.596
64799SOL    HW296295   4.730   0.700   1.663
64800SOL     OW96296  10.234  13.170  10.473
64800SOL    HW196297  10.220  13.136  10.385
64800SOL    HW296298  10.203  13.101  10.531
64801SOL     OW96299   6.795  14.452  13.005
64801SOL    HW196300   6.754  14.499  13.078
64801SOL    HW296301   6.728  14.391  12.975
64802SOL     OW96302   5.104   8.822   6.449
64802SOL    HW196303   5.080   8.756   6.384
64802SOL    HW296304   5.160   8.775   6.511
64803SOL     OW96305   3.054   9.947   2.915
64803SOL    HW196306   3.149   9.950   2.907
64803SOL    HW296307   3.027   9.873   2.862
64804SOL     OW96308   2.579  11.200   9.773
64804SOL    HW196309   2.574  11.227   9.681
64804SOL    HW296310   2.611  11.277   9.819
64805SOL     OW96311   1.653   7.923   9.375
64805SOL    HW196312   1.618   7.880   9.453
64805SOL    HW296313   1.598   8.001   9.365
64806SOL     OW96314   2.510   6.843  10.031
64806SOL    HW196315   2.425   6.857   9.989
64806SOL    HW296316   2.561   6.795   9.967
64807SOL     OW96317  13.464   0.593   8.301
64807SOL    HW196318  13.394   0.531   8.279
64807SOL    HW296319  13.544   0.541   8.295
64808SOL     OW96320   4.961   2.749   8.934
64808SOL    HW196321   4.971   2.844   8.946
64808SOL    HW296322   5.010   2.730   8.854
64809SOL     OW96323   0.085  13.661  12.639
64809SOL    HW196324   0.099  13.742  12.591
64809SOL    HW296325  14.873  13.669  12.672
64810SOL     OW96326  14.310  12.465  11.143
64810SOL    HW196327  14.244  12.439  11.207
64810SOL    HW296328  14.296  12.407  11.068
64811SOL     OW96329   3.811   2.279   1.220
64811SOL    HW196330   3.831   2.367   1.189
64811SOL    HW296331   3.764   2.238   1.147
64812SOL     OW96332   6.480   7.041   6.422
64812SOL    HW196333   6.462   6.947   6.420
64812SOL    HW296334   6.564   7.051   6.377
64813SOL     OW96335   4.365   3.171   8.928
64813SOL    HW196336   4.309   3.246   8.905
64813SOL    HW296337   4.436   3.174   8.865
64814SOL     OW96338   0.783   3.357  14.358
64814SOL    HW196339   0.703   3.379  14.311
64814SOL    HW296340   0.758   3.284  14.415
64815SOL     OW96341  12.527   1.897   5.878
64815SOL    HW196342  12.445   1.862   5.842
64815SOL    HW296343  12.509   1.991   5.889
64816SOL     OW96344  11.818   0.447   6.242
64816SOL    HW196345  11.903   0.402   6.237
64816SOL    HW296346  11.837   0.529   6.286
64817SOL     OW96347   3.696   9.323  14.698
64817SOL    HW196348   3.647   9.263  14.642
64817SOL    HW296349   3.765   9.359  14.641
64818SOL     OW96350   0.183  11.178   2.345
64818SOL    HW196351   0.171  11.157   2.252
64818SOL    HW296352   0.194  11.273   2.347
64819SOL     OW96353  10.005  13.162  11.684
64819SOL    HW196354  10.057  13.230  11.641
64819SOL    HW296355  10.066  13.119  11.744
64820SOL     OW96356   4.260   8.942   4.681
64820SOL    HW196357   4.265   8.925   4.587
64820SOL    HW296358   4.341   8.905   4.716
64821SOL     OW96359  12.313   5.136   3.528
64821SOL    HW196360  12.230   5.110   3.567
64821SOL    HW296361  12.361   5.054   3.516
64822SOL     OW96362   0.289   5.406   0.193
64822SOL    HW196363   0.257   5.493   0.213
64822SOL    HW296364   0.211   5.351   0.192
64823SOL     OW96365   4.319  12.932   8.821
64823SOL    HW196366   4.351  13.007   8.872
64823SOL    HW296367   4.371  12.933   8.741
64824SOL     OW96368  14.664   5.389   7.436
64824SOL    HW196369  14.753   5.424   7.432
64824SOL    HW296370  14.674   5.301   7.473
64825SOL     OW96371   2.353  10.609  13.199
64825SOL    HW196372   2.263  10.629  13.173
64825SOL    HW296373   2.353  10.514  13.215
64826SOL     OW96374   1.142   0.726  10.516
64826SOL    HW196375   1.126   0.799  10.576
64826SOL    HW296376   1.110   0.649  10.562
64827SOL     OW96377  10.277  12.214   5.313
64827SOL    HW196378  10.355  12.158   5.318
64827SOL    HW296379  10.295  12.286   5.374
64828SOL     OW96380   1.833  14.837  10.040
64828SOL    HW196381   1.894  14.816  10.111
64828SOL    HW296382   1.883   0.016   9.981
64829SOL     OW96383   0.438  11.572   3.898
64829SOL    HW196384   0.493  11.536   3.828
64829SOL    HW296385   0.494  11.568   3.976
64830SOL     OW96386   9.273   5.916   4.821
64830SOL    HW196387   9.201   5.961   4.865
64830SOL    HW296388   9.309   5.857   4.887
64831SOL     OW96389  12.405   5.859   8.519
64831SOL    HW196390  12.388   5.938   8.570
64831SOL    HW296391  12.322   5.812   8.518
64832SOL     OW96392   6.350   2.231   4.036
64832SOL    HW196393   6.437   2.250   4.072
64832SOL    HW296394   6.301   2.195   4.111
64833SOL     OW96395   9.551   8.289  10.920
64833SOL    HW196396   9.477   8.324  10.969
64833SOL    HW296397   9.591   8.366  10.879
64834SOL     OW96398   0.863  13.267   1.462
64834SOL    HW196399   0.768  13.264   1.476
64834SOL    HW296400   0.881  13.357   1.438
64835SOL     OW96401   2.772  11.025  12.857
64835SOL    HW196402   2.750  10.956  12.795
64835SOL    HW296403   2.808  11.095  12.802
64836SOL     OW96404  12.391   1.934  10.205
64836SOL    HW196405  12.371   1.919  10.113
64836SOL    HW296406  12.485   1.915  10.213
64837SOL     OW96407   7.259   0.708  12.350
64837SOL    HW196408   7.281   0.732  12.440
64837SOL    HW296409   7.324   0.754  12.297
64838SOL     OW96410   3.175  14.241   4.702
64838SOL    HW196411   3.126  14.260   4.782
64838SOL    HW296412   3.113  14.192   4.648
64839SOL     OW96413   8.421  13.794   9.301
64839SOL    HW196414   8.423  13.857   9.373
64839SOL    HW296415   8.400  13.846   9.224
64840SOL     OW96416  13.731   3.172   8.170
64840SOL    HW196417  13.681   3.212   8.242
64840SOL    HW296418  13.770   3.094   8.209
64841SOL     OW96419  11.507   9.714  14.014
64841SOL    HW196420  11.535   9.679  13.929
64841SOL    HW296421  11.417   9.745  13.998
64842SOL     OW96422   3.837   5.200   4.891
64842SOL    HW196423   3.876   5.197   4.803
64842SOL    HW296424   3.767   5.264   4.883
64843SOL     OW96425   5.682   7.350   9.049
64843SOL    HW196426   5.609   7.333   8.989
64843SOL    HW296427   5.689   7.270   9.101
64844SOL     OW96428   2.935   7.025   8.793
64844SOL    HW196429   3.014   7.039   8.846
64844SOL    HW296430   2.939   7.094   8.726
64845SOL     OW96431   1.438  11.010   6.354
64845SOL    HW196432   1.404  10.934   6.306
64845SOL    HW296433   1.402  11.000   6.442
64846SOL     OW96434  11.875   1.380   6.966
64846SOL    HW196435  11.811   1.330   7.017
64846SOL    HW296436  11.948   1.393   7.027
64847SOL     OW96437   1.780   2.376  12.163
64847SOL    HW196438   1.872   2.401  12.155
64847SOL    HW296439   1.768   2.309  12.096
64848SOL     OW96440  12.648   0.170   4.749
64848SOL    HW196441  12.570   0.167   4.805
64848SOL    HW296442  12.614   0.188   4.662
64849SOL     OW96443   3.748   1.959   4.369
64849SOL    HW196444   3.786   2.018   4.433
64849SOL    HW296445   3.820   1.901   4.344
64850SOL     OW96446   6.525  10.272  11.767
64850SOL    HW196447   6.551  10.349  11.817
64850SOL    HW296448   6.444  10.243  11.809
64851SOL     OW96449   2.241   2.049   0.363
64851SOL    HW196450   2.256   2.009   0.448
64851SOL    HW296451   2.327   2.051   0.321
64852SOL     OW96452  13.382  10.528   5.347
64852SOL    HW196453  13.324  10.544   5.272
64852SOL    HW296454  13.447  10.466   5.314
64853SOL     OW96455   4.029   4.300   9.923
64853SOL    HW196456   4.103   4.331   9.974
64853SOL    HW296457   4.061   4.222   9.878
64854SOL     OW96458  10.328   8.365   1.987
64854SOL    HW196459  10.236   8.385   2.002
64854SOL    HW296460  10.343   8.387   1.895
64855SOL     OW96461   7.571  10.616   0.072
64855SOL    HW196462   7.500  10.555   0.093
64855SOL    HW296463   7.535  10.671   0.003
64856SOL     OW96464  11.845   6.430   6.931
64856SOL    HW196465  11.927   6.477   6.946
64856SOL    HW296466  11.865   6.369   6.860
64857SOL     OW96467  12.008  14.411   7.442
64857SOL    HW196468  12.065  14.340   7.414
64857SOL    HW296469  12.047  14.490   7.405
64858SOL     OW96470   6.229  10.668  12.167
64858SOL    HW196471   6.220  10.673  12.262
64858SOL    HW296472   6.272  10.751  12.143
64859SOL     OW96473  14.528   9.770   7.236
64859SOL    HW196474  14.492   9.770   7.325
64859SOL    HW296475  14.505   9.684   7.200
64860SOL     OW96476   3.642   9.102   1.281
64860SOL    HW196477   3.633   9.151   1.199
64860SOL    HW296478   3.721   9.137   1.322
64861SOL     OW96479   0.350   9.858  11.416
64861SOL    HW196480   0.319   9.911  11.342
64861SOL    HW296481   0.416   9.800  11.377
64862SOL     OW96482   9.043   1.021  12.197
64862SOL    HW196483   9.006   1.011  12.285
64862SOL    HW296484   8.978   1.072  12.149
64863SOL     OW96485   1.500  10.011   6.699
64863SOL    HW196486   1.585   9.969   6.688
64863SOL    HW296487   1.506  10.092   6.649
64864SOL     OW96488   9.419   7.647   9.642
64864SOL    HW196489   9.358   7.704   9.689
64864SOL    HW296490   9.506   7.675   9.672
64865SOL     OW96491   8.378  10.289   7.861
64865SOL    HW196492   8.383  10.358   7.927
64865SOL    HW296493   8.449  10.309   7.800
64866SOL     OW96494   4.637   7.232  10.030
64866SOL    HW196495   4.646   7.140  10.008
64866SOL    HW296496   4.718   7.272   9.998
64867SOL     OW96497   1.614  14.281   6.456
64867SOL    HW196498   1.567  14.281   6.539
64867SOL    HW296499   1.643  14.190   6.445
64868SOL     OW96500  13.474   8.082   6.996
64868SOL    HW196501  13.567   8.097   7.011
64868SOL    HW296502  13.468   7.993   6.962
64869SOL     OW96503  14.480   4.513  12.730
64869SOL    HW196504  14.498   4.587  12.671
64869SOL    HW296505  14.432   4.451  12.676
64870SOL     OW96506   4.020  13.466   6.691
64870SOL    HW196507   3.965  13.541   6.668
64870SOL    HW296508   3.959  13.393   6.697
64871SOL     OW96509  12.662  10.230   9.056
64871SOL    HW196510  12.704  10.207   9.138
64871SOL    HW296511  12.704  10.175   8.990
64872SOL     OW96512   4.148  12.901   3.157
64872SOL    HW196513   4.243  12.898   3.164
64872SOL    HW296514   4.123  12.814   3.126
64873SOL     OW96515   7.405   4.276  14.685
64873SOL    HW196516   7.402   4.366  14.716
64873SOL    HW296517   7.318   4.241  14.702
64874SOL     OW96518  10.517   6.567   1.045
64874SOL    HW196519  10.501   6.516   1.124
64874SOL    HW296520  10.468   6.648   1.058
64875SOL     OW96521   9.533   7.515   8.799
64875SOL    HW196522   9.522   7.487   8.890
64875SOL    HW296523   9.467   7.466   8.750
64876SOL     OW96524   9.503   5.193  14.089
64876SOL    HW196525   9.537   5.276  14.121
64876SOL    HW296526   9.485   5.209  13.996
64877SOL     OW96527   5.149   7.117   3.212
64877SOL    HW196528   5.061   7.143   3.184
64877SOL    HW296529   5.134   7.047   3.276
64878SOL     OW96530   1.823   7.044   5.282
64878SOL    HW196531   1.846   6.954   5.305
64878SOL    HW296532   1.733   7.039   5.251
64879SOL     OW96533   5.961   2.863   7.877
64879SOL    HW196534   6.008   2.857   7.960
64879SOL    HW296535   5.871   2.839   7.899
64880SOL     OW96536   8.251   8.667  11.165
64880SOL    HW196537   8.325   8.719  11.198
64880SOL    HW296538   8.251   8.682  11.071
64881SOL     OW96539  13.941   1.391   3.497
64881SOL    HW196540  13.871   1.355   3.552
64881SOL    HW296541  14.015   1.333   3.512
64882SOL     OW96542   2.700   0.455   1.547
64882SOL    HW196543   2.737   0.410   1.470
64882SOL    HW296544   2.712   0.548   1.528
64883SOL     OW96545   2.895   0.073   0.557
64883SOL    HW196546   2.845   0.134   0.611
64883SOL    HW296547   2.832   0.040   0.493
64884SOL     OW96548  12.078  14.043  13.681
64884SOL    HW196549  12.154  13.996  13.648
64884SOL    HW296550  12.080  14.128  13.636
64885SOL     OW96551  14.249   7.396   5.950
64885SOL    HW196552  14.165   7.418   5.991
64885SOL    HW296553  14.274   7.475   5.901
64886SOL     OW96554   1.859   2.416   7.749
64886SOL    HW196555   1.816   2.468   7.681
64886SOL    HW296556   1.937   2.467   7.771
64887SOL     OW96557   3.508   6.593  10.355
64887SOL    HW196558   3.484   6.627  10.269
64887SOL    HW296559   3.427   6.596  10.406
64888SOL     OW96560  12.866   5.837   8.811
64888SOL    HW196561  12.892   5.778   8.740
64888SOL    HW296562  12.925   5.912   8.802
64889SOL     OW96563   3.996   4.402  14.750
64889SOL    HW196564   4.090   4.390  14.764
64889SOL    HW296565   3.986   4.401  14.655
64890SOL     OW96566  11.013   9.647   2.556
64890SOL    HW196567  11.042   9.654   2.465
64890SOL    HW296568  11.075   9.700   2.606
64891SOL     OW96569   5.153  11.695  11.038
64891SOL    HW196570   5.075  11.695  11.093
64891SOL    HW296571   5.134  11.758  10.969
64892SOL     OW96572  10.057   3.737   7.872
64892SOL    HW196573  10.119   3.766   7.805
64892SOL    HW296574   9.978   3.787   7.856
64893SOL     OW96575   6.782   6.519  14.670
64893SOL    HW196576   6.759   6.524  14.577
64893SOL    HW296577   6.878   6.524  14.671
64894SOL     OW96578   6.149   8.075   4.801
64894SOL    HW196579   6.198   8.128   4.737
64894SOL    HW296580   6.175   7.985   4.782
64895SOL     OW96581   3.730   5.711   4.795
64895SOL    HW196582   3.718   5.757   4.712
64895SOL    HW296583   3.795   5.763   4.842
64896SOL     OW96584  13.211   3.730   7.158
64896SOL    HW196585  13.280   3.664   7.147
64896SOL    HW296586  13.174   3.712   7.244
64897SOL     OW96587  11.287   4.382   2.377
64897SOL    HW196588  11.293   4.331   2.458
64897SOL    HW296589  11.308   4.319   2.307
64898SOL     OW96590   1.346   6.424   3.401
64898SOL    HW196591   1.418   6.475   3.365
64898SOL    HW296592   1.370   6.333   3.385
64899SOL     OW96593  11.527   7.280  13.522
64899SOL    HW196594  11.458   7.215  13.532
64899SOL    HW296595  11.608   7.230  13.517
64900SOL     OW96596   9.230  11.897   5.616
64900SOL    HW196597   9.219  11.816   5.666
64900SOL    HW296598   9.144  11.939   5.618
64901SOL     OW96599   5.475  10.945   4.953
64901SOL    HW196600   5.433  10.865   4.985
64901SOL    HW296601   5.470  11.006   5.026
64902SOL     OW96602  12.030  13.077   1.264
64902SOL    HW196603  12.045  13.128   1.184
64902SOL    HW296604  11.945  13.107   1.296
64903SOL     OW96605   3.797   3.452   3.943
64903SOL    HW196606   3.766   3.402   4.018
64903SOL    HW296607   3.718   3.482   3.899
64904SOL     OW96608  10.368  13.623   4.126
64904SOL    HW196609  10.303  13.568   4.169
64904SOL    HW296610  10.405  13.676   4.196
64905SOL     OW96611   9.930   2.088  10.153
64905SOL    HW196612   9.854   2.068  10.098
64905SOL    HW296613   9.962   2.002  10.182
64906SOL     OW96614   9.558  12.093  13.527
64906SOL    HW196615   9.496  12.085  13.455
64906SOL    HW296616   9.532  12.024  13.589
64907SOL     OW96617   1.439   7.193   0.919
64907SOL    HW196618   1.495   7.118   0.902
64907SOL    HW296619   1.500   7.265   0.935
64908SOL     OW96620  10.060   5.735  10.255
64908SOL    HW196621   9.979   5.688  10.278
64908SOL    HW296622  10.113   5.670  10.208
64909SOL     OW96623   3.259   9.817   8.924
64909SOL    HW196624   3.211   9.836   9.004
64909SOL    HW296625   3.193   9.785   8.863
64910SOL     OW96626   8.127  14.260   4.129
64910SOL    HW196627   8.157  14.322   4.062
64910SOL    HW296628   8.141  14.173   4.090
64911SOL     OW96629  11.087   2.236   9.660
64911SOL    HW196630  11.117   2.291   9.587
64911SOL    HW296631  11.149   2.253   9.730
64912SOL     OW96632  10.944   2.119  13.015
64912SOL    HW196633  10.854   2.118  12.982
64912SOL    HW296634  10.938   2.083  13.103
64913SOL     OW96635   9.151  13.472   2.160
64913SOL    HW196636   9.129  13.380   2.147
64913SOL    HW296637   9.169  13.480   2.253
64914SOL     OW96638   0.233   0.399  10.520
64914SOL    HW196639   0.297   0.437  10.580
64914SOL    HW296640   0.205   0.318  10.562
64915SOL     OW96641   3.633   1.125   8.906
64915SOL    HW196642   3.655   1.216   8.926
64915SOL    HW296643   3.538   1.125   8.898
64916SOL     OW96644   2.411   6.966  14.416
64916SOL    HW196645   2.433   6.909  14.489
64916SOL    HW296646   2.338   6.922  14.372
64917SOL     OW96647  11.929   5.358   9.260
64917SOL    HW196648  11.951   5.266   9.274
64917SOL    HW296649  12.000   5.391   9.205
64918SOL     OW96650  13.430  11.558  13.062
64918SOL    HW196651  13.341  11.557  13.027
64918SOL    HW296652  13.420  11.540  13.155
64919SOL     OW96653   2.540   3.440   4.326
64919SOL    HW196654   2.538   3.535   4.314
64919SOL    HW296655   2.563   3.428   4.418
64920SOL     OW96656  10.739  13.860  14.257
64920SOL    HW196657  10.703  13.930  14.203
64920SOL    HW296658  10.779  13.800  14.194
64921SOL     OW96659   0.054  10.477   0.487
64921SOL    HW196660   0.075  10.388   0.516
64921SOL    HW296661  14.842  10.471   0.453
64922SOL     OW96662  12.680   3.858  10.942
64922SOL    HW196663  12.621   3.883  10.871
64922SOL    HW296664  12.630   3.873  11.022
64923SOL     OW96665   2.484   6.678   3.380
64923SOL    HW196666   2.558   6.719   3.425
64923SOL    HW296667   2.420   6.748   3.371
64924SOL     OW96668   4.347   5.748  13.322
64924SOL    HW196669   4.268   5.768  13.272
64924SOL    HW296670   4.315   5.710  13.404
64925SOL     OW96671  14.511  10.359   9.107
64925SOL    HW196672  14.526  10.282   9.052
64925SOL    HW296673  14.599  10.386   9.133
64926SOL     OW96674   8.456  13.557  14.217
64926SOL    HW196675   8.419  13.488  14.161
64926SOL    HW296676   8.381  13.591  14.266
64927SOL     OW96677   1.711   9.700  10.073
64927SOL    HW196678   1.645   9.658  10.128
64927SOL    HW296679   1.662   9.766  10.023
64928SOL     OW96680  12.406   3.954   3.310
64928SOL    HW196681  12.417   3.862   3.331
64928SOL    HW296682  12.339   3.955   3.241
64929SOL     OW96683  10.726   1.976   3.417
64929SOL    HW196684  10.797   1.998   3.477
64929SOL    HW296685  10.686   1.898   3.454
64930SOL     OW96686  10.717   2.998   5.122
64930SOL    HW196687  10.709   3.074   5.180
64930SOL    HW296688  10.635   2.951   5.133
64931SOL     OW96689   1.511   0.544   1.372
64931SOL    HW196690   1.490   0.619   1.428
64931SOL    HW296691   1.599   0.518   1.399
64932SOL     OW96692   6.989  10.174  13.634
64932SOL    HW196693   6.995  10.265  13.663
64932SOL    HW296694   6.946  10.129  13.706
64933SOL     OW96695   1.583   0.573   3.996
64933SOL    HW196696   1.488   0.560   3.992
64933SOL    HW296697   1.616   0.537   3.914
64934SOL     OW96698   1.907  14.206   8.407
64934SOL    HW196699   1.950  14.232   8.325
64934SOL    HW296700   1.947  14.261   8.474
64935SOL     OW96701  12.140   5.340   1.709
64935SOL    HW196702  12.130   5.289   1.629
64935SOL    HW296703  12.138   5.431   1.680
64936SOL     OW96704  10.811   2.494  14.459
64936SOL    HW196705  10.776   2.540  14.382
64936SOL    HW296706  10.826   2.405  14.429
64937SOL     OW96707  11.981   2.510   8.765
64937SOL    HW196708  11.910   2.553   8.718
64937SOL    HW296709  11.941   2.483   8.848
64938SOL     OW96710   8.600   6.857   0.066
64938SOL    HW196711   8.631   6.770   0.038
64938SOL    HW296712   8.602   6.854   0.161
64939SOL     OW96713   8.072  10.812  13.583
64939SOL    HW196714   8.109  10.773  13.662
64939SOL    HW296715   7.981  10.784  13.583
64940SOL     OW96716   7.132   2.752   0.619
64940SOL    HW196717   7.156   2.835   0.661
64940SOL    HW296718   7.068   2.776   0.553
64941SOL     OW96719   8.623   9.351  11.449
64941SOL    HW196720   8.673   9.398  11.382
64941SOL    HW296721   8.673   9.271  11.464
64942SOL     OW96722   5.610   3.734   4.561
64942SOL    HW196723   5.699   3.750   4.529
64942SOL    HW296724   5.563   3.814   4.540
64943SOL     OW96725  14.812   3.652   9.088
64943SOL    HW196726  14.807   3.645   8.993
64943SOL    HW296727  14.855   3.736   9.103
64944SOL     OW96728  13.471   0.258  14.587
64944SOL    HW196729  13.459   0.270  14.681
64944SOL    HW296730  13.561   0.226  14.579
64945SOL     OW96731  11.483   3.112  11.847
64945SOL    HW196732  11.454   3.051  11.779
64945SOL    HW296733  11.495   3.057  11.924
64946SOL     OW96734   7.513   4.061   0.232
64946SOL    HW196735   7.531   4.008   0.154
64946SOL    HW296736   7.440   4.117   0.205
64947SOL     OW96737   0.187   7.801   0.320
64947SOL    HW196738   0.253   7.858   0.279
64947SOL    HW296739   0.232   7.765   0.397
64948SOL     OW96740   4.707  10.890   6.443
64948SOL    HW196741   4.753  10.964   6.403
64948SOL    HW296742   4.683  10.834   6.368
64949SOL     OW96743   8.679   8.710   5.568
64949SOL    HW196744   8.589   8.718   5.533
64949SOL    HW296745   8.730   8.771   5.514
64950SOL     OW96746   9.243   0.158   0.929
64950SOL    HW196747   9.203   0.160   1.017
64950SOL    HW296748   9.168   0.160   0.869
64951SOL     OW96749  11.160  10.364   3.381
64951SOL    HW196750  11.225  10.345   3.313
64951SOL    HW296751  11.125  10.279   3.406
64952SOL     OW96752  10.735   3.949  10.042
64952SOL    HW196753  10.790   4.007  10.094
64952SOL    HW296754  10.645   3.967  10.071
64953SOL     OW96755   5.665  12.715  10.059
64953SOL    HW196756   5.645  12.666  10.139
64953SOL    HW296757   5.600  12.684   9.996
64954SOL     OW96758   1.510   6.186  13.161
64954SOL    HW196759   1.467   6.123  13.103
64954SOL    HW296760   1.464   6.177  13.245
64955SOL     OW96761   5.696   7.039  14.311
64955SOL    HW196762   5.790   7.038  14.291
64955SOL    HW296763   5.655   7.065  14.228
64956SOL     OW96764   0.855  12.799  11.033
64956SOL    HW196765   0.928  12.780  11.092
64956SOL    HW296766   0.777  12.775  11.083
64957SOL     OW96767   8.490  11.007  12.773
64957SOL    HW196768   8.522  11.087  12.816
64957SOL    HW296769   8.467  10.949  12.845
64958SOL     OW96770  12.264  12.378   2.033
64958SOL    HW196771  12.212  12.416   2.104
64958SOL    HW296772  12.238  12.286   2.031
64959SOL     OW96773   0.179   2.433   4.885
64959SOL    HW196774   0.155   2.345   4.916
64959SOL    HW296775   0.142   2.439   4.797
64960SOL     OW96776  11.190  12.588   9.398
64960SOL    HW196777  11.188  12.630   9.312
64960SOL    HW296778  11.245  12.646   9.451
64961SOL     OW96779   8.828   8.644  10.888
64961SOL    HW196780   8.799   8.595  10.811
64961SOL    HW296781   8.885   8.712  10.852
64962SOL     OW96782   5.622   7.105  12.102
64962SOL    HW196783   5.643   7.153  12.023
64962SOL    HW296784   5.708   7.081  12.139
64963SOL     OW96785   2.662  13.434  14.515
64963SOL    HW196786   2.640  13.377  14.589
64963SOL    HW296787   2.578  13.450  14.472
64964SOL     OW96788   9.972   5.190   9.893
64964SOL    HW196789   9.947   5.185   9.801
64964SOL    HW296790   9.929   5.114   9.933
64965SOL     OW96791  11.441  11.369  13.656
64965SOL    HW196792  11.367  11.366  13.594
64965SOL    HW296793  11.447  11.279  13.689
64966SOL     OW96794  13.808   4.459   0.456
64966SOL    HW196795  13.756   4.390   0.413
64966SOL    HW296796  13.826   4.522   0.386
64967SOL     OW96797   5.679   3.244   2.121
64967SOL    HW196798   5.765   3.286   2.126
64967SOL    HW296799   5.648   3.265   2.033
64968SOL     OW96800   1.100   7.708  13.809
64968SOL    HW196801   1.085   7.645  13.880
64968SOL    HW296802   1.195   7.717  13.805
64969SOL     OW96803   6.328   4.880   1.473
64969SOL    HW196804   6.303   4.959   1.521
64969SOL    HW296805   6.345   4.911   1.384
64970SOL     OW96806  11.757   0.729   3.418
64970SOL    HW196807  11.810   0.673   3.474
64970SOL    HW296808  11.797   0.816   3.425
64971SOL     OW96809  12.440  13.260  11.352
64971SOL    HW196810  12.428  13.349  11.384
64971SOL    HW296811  12.498  13.219  11.416
64972SOL     OW96812   2.564   6.886   4.624
64972SOL    HW196813   2.478   6.879   4.582
64972SOL    HW296814   2.557   6.830   4.702
64973SOL     OW96815   7.534   8.683  14.264
64973SOL    HW196816   7.602   8.683  14.332
64973SOL    HW296817   7.559   8.613  14.204
64974SOL     OW96818   4.565   4.511   3.400
64974SOL    HW196819   4.473   4.537   3.401
64974SOL    HW296820   4.587   4.505   3.308
64975SOL     OW96821   4.655  11.301   9.604
64975SOL    HW196822   4.701  11.370   9.558
64975SOL    HW296823   4.601  11.258   9.537
64976SOL     OW96824   4.435   8.117   2.648
64976SOL    HW196825   4.405   8.116   2.557
64976SOL    HW296826   4.396   8.195   2.686
64977SOL     OW96827  14.267   0.361   2.792
64977SOL    HW196828  14.278   0.266   2.798
64977SOL    HW296829  14.327   0.387   2.722
64978SOL     OW96830   5.681   5.326   4.462
64978SOL    HW196831   5.672   5.286   4.549
64978SOL    HW296832   5.599   5.375   4.451
64979SOL     OW96833   3.268   5.278  14.598
64979SOL    HW196834   3.327   5.203  14.586
64979SOL    HW296835   3.278   5.328  14.517
64980SOL     OW96836   9.859   9.042  13.085
64980SOL    HW196837   9.861   9.058  12.991
64980SOL    HW296838   9.835   8.950  13.094
64981SOL     OW96839  11.506  13.725   5.663
64981SOL    HW196840  11.517  13.820   5.650
64981SOL    HW296841  11.412  13.711   5.649
64982SOL     OW96842   0.830   1.629   2.930
64982SOL    HW196843   0.744   1.658   2.959
64982SOL    HW296844   0.811   1.559   2.867
64983SOL     OW96845   2.855  14.595   7.504
64983SOL    HW196846   2.914  14.585   7.578
64983SOL    HW296847   2.823  14.506   7.486
64984SOL     OW96848  13.678   9.285  10.084
64984SOL    HW196849  13.692   9.374  10.117
64984SOL    HW296850  13.759   9.239  10.103
64985SOL     OW96851   7.488   5.224  10.359
64985SOL    HW196852   7.570   5.228  10.407
64985SOL    HW296853   7.448   5.310  10.371
64986SOL     OW96854   4.130   8.339  10.760
64986SOL    HW196855   4.154   8.254  10.796
64986SOL    HW296856   4.149   8.401  10.831
64987SOL     OW96857   8.049  11.011   1.498
64987SOL    HW196858   7.965  10.983   1.537
64987SOL    HW296859   8.114  10.987   1.563
64988SOL     OW96860   5.463   6.230  12.038
64988SOL    HW196861   5.406   6.154  12.023
64988SOL    HW296862   5.552   6.195  12.032
64989SOL     OW96863   0.646   6.929  14.859
64989SOL    HW196864   0.610   6.842  14.875
64989SOL    HW296865   0.740   6.914  14.848
64990SOL     OW96866   7.281   9.196  12.596
64990SOL    HW196867   7.277   9.160  12.507
64990SOL    HW296868   7.316   9.285  12.584
64991SOL     OW96869  12.149   2.395   5.390
64991SOL    HW196870  12.070   2.440   5.361
64991SOL    HW296871  12.125   2.302   5.391
64992SOL     OW96872  12.470  10.310   2.651
64992SOL    HW196873  12.522  10.353   2.719
64992SOL    HW296874  12.380  10.318   2.681
64993SOL     OW96875  14.047  14.325   3.662
64993SOL    HW196876  13.952  14.309   3.656
64993SOL    HW296877  14.061  14.355   3.751
64994SOL     OW96878   6.365  12.469  11.870
64994SOL    HW196879   6.396  12.504  11.786
64994SOL    HW296880   6.445  12.439  11.914
64995SOL     OW96881  14.433   0.886  12.247
64995SOL    HW196882  14.378   0.858  12.320
64995SOL    HW296883  14.454   0.804  12.201
64996SOL     OW96884   8.940   7.415   3.883
64996SOL    HW196885   8.895   7.374   3.810
64996SOL    HW296886   8.919   7.359   3.958
64997SOL     OW96887  11.807  11.608  13.751
64997SOL    HW196888  11.793  11.559  13.670
64997SOL    HW296889  11.723  11.650  13.769
64998SOL     OW96890   2.871   5.991  14.511
64998SOL    HW196891   2.914   5.953  14.434
64998SOL    HW296892   2.939   5.992  14.578
64999SOL     OW96893   7.040   3.255   4.514
64999SOL    HW196894   6.956   3.265   4.469
64999SOL    HW296895   7.091   3.332   4.489
65000SOL     OW96896   8.213   8.190   8.235
65000SOL    HW196897   8.304   8.165   8.220
65000SOL    HW296898   8.204   8.191   8.330
65001SOL     OW96899   3.079  14.586  13.821
65001SOL    HW196900   2.990  14.564  13.795
65001SOL    HW296901   3.074  14.599  13.916
65002SOL     OW96902   9.994   7.797  14.281
65002SOL    HW196903  10.026   7.724  14.229
65002SOL    HW296904  10.052   7.801  14.357
65003SOL     OW96905   8.612  10.963   2.663
65003SOL    HW196906   8.701  10.928   2.665
65003SOL    HW296907   8.557  10.888   2.643
65004SOL     OW96908   4.625   0.542   5.749
65004SOL    HW196909   4.613   0.633   5.723
65004SOL    HW296910   4.536   0.507   5.755
65005SOL     OW96911   0.245   1.887   3.467
65005SOL    HW196912   0.219   1.856   3.381
65005SOL    HW296913   0.247   1.809   3.522
65006SOL     OW96914   6.529   4.903   7.245
65006SOL    HW196915   6.617   4.872   7.267
65006SOL    HW296916   6.470   4.849   7.298
65007SOL     OW96917   5.229  11.982  13.114
65007SOL    HW196918   5.197  11.996  13.025
65007SOL    HW296919   5.250  12.070  13.146
65008SOL     OW96920   7.603  13.772   7.458
65008SOL    HW196921   7.629  13.864   7.449
65008SOL    HW296922   7.561  13.768   7.545
65009SOL     OW96923  10.983   1.791   2.483
65009SOL    HW196924  11.023   1.844   2.552
65009SOL    HW296925  11.039   1.805   2.406
65010SOL     OW96926   5.292   5.892   1.416
65010SOL    HW196927   5.383   5.865   1.428
65010SOL    HW296928   5.295   5.962   1.352
65011SOL     OW96929  13.105  13.448   7.231
65011SOL    HW196930  13.037  13.450   7.163
65011SOL    HW296931  13.071  13.388   7.297
65012SOL     OW96932   3.285   5.701  12.699
65012SOL    HW196933   3.232   5.759  12.644
65012SOL    HW296934   3.342   5.655  12.637
65013SOL     OW96935   1.945   7.971  13.811
65013SOL    HW196936   2.022   7.927  13.848
65013SOL    HW296937   1.892   7.900  13.774
65014SOL     OW96938  11.076   9.634   6.497
65014SOL    HW196939  11.139   9.568   6.527
65014SOL    HW296940  11.130   9.699   6.452
65015SOL     OW96941  10.478   4.523   7.202
65015SOL    HW196942  10.443   4.600   7.157
65015SOL    HW296943  10.567   4.513   7.168
65016SOL     OW96944   9.886  10.707  12.353
65016SOL    HW196945   9.943  10.635  12.324
65016SOL    HW296946   9.942  10.785  12.349
65017SOL     OW96947  10.588   0.984  14.810
65017SOL    HW196948  10.546   1.060  14.769
65017SOL    HW296949  10.615   0.928  14.738
65018SOL     OW96950  12.998   1.223   6.284
65018SOL    HW196951  12.975   1.296   6.227
65018SOL    HW296952  13.088   1.201   6.260
65019SOL     OW96953   0.945  10.718   2.912
65019SOL    HW196954   0.953  10.797   2.966
65019SOL    HW296955   0.876  10.667   2.954
65020SOL     OW96956   3.240   3.297   3.222
65020SOL    HW196957   3.295   3.371   3.247
65020SOL    HW296958   3.150   3.329   3.234
65021SOL     OW96959   0.782   6.226   7.417
65021SOL    HW196960   0.854   6.198   7.361
65021SOL    HW296961   0.803   6.190   7.503
65022SOL     OW96962  11.162  12.351   8.851
65022SOL    HW196963  11.152  12.445   8.841
65022SOL    HW296964  11.114  12.313   8.778
65023SOL     OW96965   1.529  10.042  11.871
65023SOL    HW196966   1.579  10.122  11.887
65023SOL    HW296967   1.448  10.053  11.920
65024SOL     OW96968   5.782   1.669   5.120
65024SOL    HW196969   5.772   1.615   5.198
65024SOL    HW296970   5.806   1.608   5.051
65025SOL     OW96971   5.127   2.716   3.912
65025SOL    HW196972   5.085   2.794   3.876
65025SOL    HW296973   5.177   2.679   3.840
65026SOL     OW96974   7.052   8.395   6.875
65026SOL    HW196975   7.109   8.424   6.946
65026SOL    HW296976   7.091   8.313   6.845
65027SOL     OW96977  11.157   0.556   5.903
65027SOL    HW196978  11.201   0.471   5.912
65027SOL    HW296979  11.084   0.539   5.843
65028SOL     OW96980   8.396  14.174  10.973
65028SOL    HW196981   8.365  14.185  10.883
65028SOL    HW296982   8.398  14.079  10.986
65029SOL     OW96983   9.753   1.022   7.753
65029SOL    HW196984   9.766   1.086   7.684
65029SOL    HW296985   9.659   1.025   7.772
65030SOL     OW96986   3.179   4.182   5.579
65030SOL    HW196987   3.139   4.102   5.545
65030SOL    HW296988   3.242   4.208   5.512
65031SOL     OW96989   5.101   1.081   5.333
65031SOL    HW196990   5.101   1.163   5.382
65031SOL    HW296991   5.044   1.023   5.383
65032SOL     OW96992  14.453  11.055   5.409
65032SOL    HW196993  14.473  10.996   5.336
65032SOL    HW296994  14.445  10.997   5.484
65033SOL     OW96995   3.951   4.626   4.997
65033SOL    HW196996   3.987   4.656   5.080
65033SOL    HW296997   3.903   4.701   4.963
65034SOL     OW96998   3.376   0.121  12.086
65034SOL    HW196999   3.427   0.059  12.033
65034SOL    HW297000   3.332   0.177  12.022
65035SOL     OW97001   7.600   7.118   4.084
65035SOL    HW197002   7.509   7.149   4.087
65035SOL    HW297003   7.600   7.038   4.137
65036SOL     OW97004  11.962  11.645   5.245
65036SOL    HW197005  11.890  11.583   5.235
65036SOL    HW297006  12.024  11.601   5.303
65037SOL     OW97007   5.968   8.208   5.271
65037SOL    HW197008   5.943   8.288   5.224
65037SOL    HW297009   5.973   8.141   5.203
65038SOL     OW97010  10.714   7.796   6.068
65038SOL    HW197011  10.691   7.827   5.981
65038SOL    HW297012  10.633   7.756   6.101
65039SOL     OW97013   8.336   5.995   7.231
65039SOL    HW197014   8.307   6.056   7.299
65039SOL    HW297015   8.304   6.033   7.149
65040SOL     OW97016  11.599  11.538  13.411
65040SOL    HW197017  11.535  11.510  13.476
65040SOL    HW297018  11.610  11.463  13.353
65041SOL     OW97019   3.517  12.778   2.142
65041SOL    HW197020   3.549  12.868   2.141
65041SOL    HW297021   3.478  12.766   2.228
65042SOL     OW97022  10.392  13.004   4.248
65042SOL    HW197023  10.403  12.944   4.174
65042SOL    HW297024  10.321  12.965   4.299
65043SOL     OW97025  13.799   1.823   8.219
65043SOL    HW197026  13.746   1.760   8.267
65043SOL    HW297027  13.880   1.777   8.199
65044SOL     OW97028   9.088   4.333   3.331
65044SOL    HW197029   9.037   4.305   3.407
65044SOL    HW297030   9.177   4.343   3.364
65045SOL     OW97031  11.234   8.361   6.735
65045SOL    HW197032  11.326   8.352   6.760
65045SOL    HW297033  11.237   8.390   6.643
65046SOL     OW97034   3.737   2.069   5.763
65046SOL    HW197035   3.693   2.077   5.848
65046SOL    HW297036   3.820   2.025   5.783
65047SOL     OW97037   5.306   8.630   0.294
65047SOL    HW197038   5.348   8.662   0.215
65047SOL    HW297039   5.364   8.561   0.327
65048SOL     OW97040   9.903  10.511  13.241
65048SOL    HW197041   9.824  10.478  13.197
65048SOL    HW297042   9.875  10.528  13.331
65049SOL     OW97043   9.403   7.666  12.408
65049SOL    HW197044   9.415   7.755  12.375
65049SOL    HW297045   9.402   7.611  12.330
65050SOL     OW97046   0.275   4.289  14.450
65050SOL    HW197047   0.299   4.378  14.474
65050SOL    HW297048   0.349   4.256  14.399
65051SOL     OW97049   6.693  10.039   7.478
65051SOL    HW197050   6.693  10.107   7.546
65051SOL    HW297051   6.773  10.057   7.428
65052SOL     OW97052  14.316   8.717   5.387
65052SOL    HW197053  14.340   8.797   5.340
65052SOL    HW297054  14.224   8.730   5.412
65053SOL     OW97055  11.375   6.673   1.463
65053SOL    HW197056  11.465   6.683   1.494
65053SOL    HW297057  11.349   6.585   1.490
65054SOL     OW97058   8.808  10.699   2.511
65054SOL    HW197059   8.734  10.643   2.531
65054SOL    HW297060   8.776  10.758   2.443
65055SOL     OW97061  12.721   6.926   8.219
65055SOL    HW197062  12.660   6.935   8.293
65055SOL    HW297063  12.685   6.984   8.152
65056SOL     OW97064  11.277   4.193   8.937
65056SOL    HW197065  11.255   4.267   8.993
65056SOL    HW297066  11.195   4.144   8.930
65057SOL     OW97067   4.634   6.448   0.458
65057SOL    HW197068   4.629   6.543   0.447
65057SOL    HW297069   4.558   6.427   0.513
65058SOL     OW97070   1.934   1.441   4.835
65058SOL    HW197071   1.882   1.388   4.775
65058SOL    HW297072   1.934   1.392   4.917
65059SOL     OW97073   1.484   6.377   2.234
65059SOL    HW197074   1.406   6.407   2.281
65059SOL    HW297075   1.477   6.418   2.147
65060SOL     OW97076  11.655  12.838   3.811
65060SOL    HW197077  11.641  12.812   3.720
65060SOL    HW297078  11.709  12.768   3.848
65061SOL     OW97079   4.957   4.435  11.804
65061SOL    HW197080   4.931   4.357  11.853
65061SOL    HW297081   4.945   4.507  11.866
65062SOL     OW97082   7.679   6.233   2.519
65062SOL    HW197083   7.698   6.139   2.520
65062SOL    HW297084   7.588   6.238   2.491
65063SOL     OW97085  13.562  13.473  12.708
65063SOL    HW197086  13.547  13.418  12.785
65063SOL    HW297087  13.631  13.429  12.660
65064SOL     OW97088   9.246   4.674   0.652
65064SOL    HW197089   9.274   4.756   0.610
65064SOL    HW297090   9.161   4.697   0.692
65065SOL     OW97091   4.024   7.605   8.254
65065SOL    HW197092   4.018   7.683   8.309
65065SOL    HW297093   4.116   7.599   8.231
65066SOL     OW97094   2.142   0.493   0.823
65066SOL    HW197095   2.199   0.551   0.873
65066SOL    HW297096   2.201   0.446   0.764
65067SOL     OW97097   2.888   8.518   3.518
65067SOL    HW197098   2.921   8.438   3.478
65067SOL    HW297099   2.826   8.488   3.584
65068SOL     OW97100  13.426  12.576   9.631
65068SOL    HW197101  13.394  12.524   9.557
65068SOL    HW297102  13.482  12.516   9.679
65069SOL     OW97103  14.475  10.603   8.385
65069SOL    HW197104  14.384  10.616   8.411
65069SOL    HW297105  14.501  10.686   8.345
65070SOL     OW97106   2.540   2.441   3.983
65070SOL    HW197107   2.495   2.453   3.899
65070SOL    HW297108   2.479   2.476   4.048
65071SOL     OW97109   5.444  10.490   2.295
65071SOL    HW197110   5.525  10.439   2.294
65071SOL    HW297111   5.386  10.446   2.233
65072SOL     OW97112   3.708   7.236  12.977
65072SOL    HW197113   3.638   7.301  12.974
65072SOL    HW297114   3.666   7.153  12.955
65073SOL     OW97115  13.109   2.941   3.485
65073SOL    HW197116  13.102   3.035   3.503
65073SOL    HW297117  13.053   2.927   3.409
65074SOL     OW97118  12.171   2.362   4.320
65074SOL    HW197119  12.172   2.339   4.227
65074SOL    HW297120  12.262   2.380   4.342
65075SOL     OW97121   4.409   0.268   5.261
65075SOL    HW197122   4.323   0.310   5.266
65075SOL    HW297123   4.392   0.181   5.226
65076SOL     OW97124   9.755  12.640   7.415
65076SOL    HW197125   9.752  12.550   7.382
65076SOL    HW297126   9.669  12.653   7.455
65077SOL     OW97127   6.730  11.840   0.784
65077SOL    HW197128   6.739  11.890   0.865
65077SOL    HW297129   6.813  11.852   0.739
65078SOL     OW97130  13.251   2.722   0.393
65078SOL    HW197131  13.264   2.629   0.414
65078SOL    HW297132  13.157   2.735   0.398
65079SOL     OW97133   8.736   7.991  14.647
65079SOL    HW197134   8.716   8.050  14.575
65079SOL    HW297135   8.830   7.972  14.637
65080SOL     OW97136   3.332   3.250  10.526
65080SOL    HW197137   3.263   3.309  10.497
65080SOL    HW297138   3.406   3.270  10.468
65081SOL     OW97139  14.364   7.495   4.788
65081SOL    HW197140  14.359   7.478   4.694
65081SOL    HW297141  14.352   7.409   4.829
65082SOL     OW97142   6.559  10.557   3.274
65082SOL    HW197143   6.589  10.618   3.341
65082SOL    HW297144   6.490  10.506   3.316
65083SOL     OW97145  12.198   9.233   5.544
65083SOL    HW197146  12.121   9.280   5.512
65083SOL    HW297147  12.271   9.270   5.495
65084SOL     OW97148  10.095   3.146   8.043
65084SOL    HW197149  10.127   3.064   8.007
65084SOL    HW297150  10.000   3.135   8.046
65085SOL     OW97151   4.066  14.827   4.637
65085SOL    HW197152   4.078  14.767   4.563
65085SOL    HW297153   3.992   0.004   4.612
65086SOL     OW97154   9.243  12.400   1.119
65086SOL    HW197155   9.166  12.427   1.169
65086SOL    HW297156   9.316  12.446   1.162
65087SOL     OW97157   7.833   3.615   2.764
65087SOL    HW197158   7.788   3.700   2.774
65087SOL    HW297159   7.926   3.638   2.760
65088SOL     OW97160  12.327   0.520  14.680
65088SOL    HW197161  12.419   0.498  14.690
65088SOL    HW297162  12.289   0.445  14.632
65089SOL     OW97163   2.226   4.782  14.009
65089SOL    HW197164   2.137   4.807  14.034
65089SOL    HW297165   2.242   4.827  13.927
65090SOL     OW97166  11.497   1.834   3.325
65090SOL    HW197167  11.560   1.766   3.301
65090SOL    HW297168  11.548   1.898   3.373
65091SOL     OW97169   2.278   1.705   9.829
65091SOL    HW197170   2.185   1.726   9.828
65091SOL    HW297171   2.309   1.724   9.741
65092SOL     OW97172  12.067   0.590   1.195
65092SOL    HW197173  12.080   0.525   1.127
65092SOL    HW297174  12.091   0.673   1.154
65093SOL     OW97175   8.292   1.965  10.611
65093SOL    HW197176   8.290   1.967  10.516
65093SOL    HW297177   8.228   1.898  10.635
65094SOL     OW97178   1.586   4.607  14.207
65094SOL    HW197179   1.612   4.610  14.299
65094SOL    HW297180   1.496   4.640  14.206
65095SOL     OW97181  10.861   4.470   7.417
65095SOL    HW197182  10.870   4.511   7.503
65095SOL    HW297183  10.779   4.421   7.423
65096SOL     OW97184   3.874   1.773   1.775
65096SOL    HW197185   3.896   1.855   1.731
65096SOL    HW297186   3.781   1.781   1.795
65097SOL     OW97187   5.820  14.083  10.248
65097SOL    HW197188   5.869  14.078  10.166
65097SOL    HW297189   5.886  14.070  10.316
65098SOL     OW97190   9.779   6.649   0.792
65098SOL    HW197191   9.859   6.627   0.744
65098SOL    HW297192   9.714   6.586   0.762
65099SOL     OW97193   5.196   0.825  11.107
65099SOL    HW197194   5.115   0.795  11.148
65099SOL    HW297195   5.201   0.918  11.129
65100SOL     OW97196  13.199   2.122   0.754
65100SOL    HW197197  13.195   2.048   0.693
65100SOL    HW297198  13.282   2.164   0.736
65101SOL     OW97199  13.949   9.048   0.453
65101SOL    HW197200  13.977   9.014   0.368
65101SOL    HW297201  13.925   8.970   0.503
65102SOL     OW97202   7.780  13.938  10.800
65102SOL    HW197203   7.715  13.939  10.870
65102SOL    HW297204   7.763  13.857  10.752
65103SOL     OW97205   5.286  14.008  13.532
65103SOL    HW197206   5.320  13.932  13.484
65103SOL    HW297207   5.363  14.045  13.575
65104SOL     OW97208  11.688  13.926  13.245
65104SOL    HW197209  11.609  13.971  13.214
65104SOL    HW297210  11.657  13.874  13.320
65105SOL     OW97211  11.850  10.737   9.887
65105SOL    HW197212  11.855  10.702   9.798
65105SOL    HW297213  11.875  10.829   9.879
65106SOL     OW97214   2.105  12.939   5.429
65106SOL    HW197215   2.017  12.929   5.394
65106SOL    HW297216   2.102  12.897   5.515
65107SOL     OW97217   6.264   6.783   9.630
65107SOL    HW197218   6.182   6.770   9.677
65107SOL    HW297219   6.244   6.849   9.563
65108SOL     OW97220  10.676   6.240   3.538
65108SOL    HW197221  10.760   6.284   3.525
65108SOL    HW297222  10.652   6.208   3.451
65109SOL     OW97223  13.004   5.058  13.750
65109SOL    HW197224  13.039   5.091  13.667
65109SOL    HW297225  12.964   4.974  13.727
65110SOL     OW97226  11.571   2.357  13.112
65110SOL    HW197227  11.606   2.273  13.082
65110SOL    HW297228  11.638   2.421  13.088
65111SOL     OW97229  12.844   0.445   5.057
65111SOL    HW197230  12.838   0.534   5.021
65111SOL    HW297231  12.814   0.388   4.986
65112SOL     OW97232  12.822  12.748   9.412
65112SOL    HW197233  12.876  12.776   9.487
65112SOL    HW297234  12.849  12.805   9.341
65113SOL     OW97235   7.542   0.740  10.108
65113SOL    HW197236   7.583   0.654  10.117
65113SOL    HW297237   7.510   0.760  10.196
65114SOL     OW97238  10.648   5.354  10.744
65114SOL    HW197239  10.695   5.399  10.814
65114SOL    HW297240  10.555   5.374  10.761
65115SOL     OW97241   2.017   2.258   2.814
65115SOL    HW197242   1.984   2.226   2.898
65115SOL    HW297243   1.939   2.280   2.764
65116SOL     OW97244   7.435  10.631  11.280
65116SOL    HW197245   7.429  10.538  11.300
65116SOL    HW297246   7.378  10.644  11.204
65117SOL     OW97247  14.747   6.324   6.788
65117SOL    HW197248  14.718   6.310   6.878
65117SOL    HW297249  14.668   6.351   6.741
65118SOL     OW97250   7.685   4.657   4.309
65118SOL    HW197251   7.708   4.699   4.225
65118SOL    HW297252   7.713   4.720   4.375
65119SOL     OW97253  13.069   1.782   8.124
65119SOL    HW197254  13.068   1.686   8.120
65119SOL    HW297255  13.157   1.806   8.096
65120SOL     OW97256  13.445  11.138   6.315
65120SOL    HW197257  13.461  11.090   6.234
65120SOL    HW297258  13.525  11.188   6.329
65121SOL     OW97259   5.266   3.123   1.374
65121SOL    HW197260   5.278   3.028   1.373
65121SOL    HW297261   5.289   3.149   1.463
65122SOL     OW97262   7.726   6.860   7.035
65122SOL    HW197263   7.641   6.854   7.078
65122SOL    HW297264   7.789   6.847   7.106
65123SOL     OW97265   3.414  10.267   5.722
65123SOL    HW197266   3.482  10.201   5.734
65123SOL    HW297267   3.437  10.310   5.640
65124SOL     OW97268   5.467  12.741  13.323
65124SOL    HW197269   5.402  12.719  13.390
65124SOL    HW297270   5.457  12.835  13.310
65125SOL     OW97271   4.625   7.889  12.747
65125SOL    HW197272   4.629   7.921  12.838
65125SOL    HW297273   4.713   7.853  12.731
65126SOL     OW97274  13.751   2.909   3.634
65126SOL    HW197275  13.829   2.931   3.585
65126SOL    HW297276  13.782   2.893   3.723
65127SOL     OW97277  14.845   7.178   9.913
65127SOL    HW197278  14.857   7.249   9.977
65127SOL    HW297279  14.784   7.118   9.955
65128SOL     OW97280   0.202  11.016  11.502
65128SOL    HW197281   0.119  11.065  11.506
65128SOL    HW297282   0.230  11.025  11.411
65129SOL     OW97283  11.284   6.641   8.121
65129SOL    HW197284  11.229   6.619   8.046
65129SOL    HW297285  11.261   6.576   8.187
65130SOL     OW97286  13.628  13.006   0.911
65130SOL    HW197287  13.594  13.042   0.830
65130SOL    HW297288  13.562  13.027   0.977
65131SOL     OW97289   1.207   8.665   2.079
65131SOL    HW197290   1.286   8.628   2.118
65131SOL    HW297291   1.231   8.682   1.988
65132SOL     OW97292  13.816   5.194   2.256
65132SOL    HW197293  13.798   5.101   2.243
65132SOL    HW297294  13.792   5.210   2.347
65133SOL     OW97295   9.539  13.436  14.123
65133SOL    HW197296   9.524  13.376  14.196
65133SOL    HW297297   9.481  13.404  14.054
65134SOL     OW97298   4.551  12.176   6.219
65134SOL    HW197299   4.574  12.132   6.301
65134SOL    HW297300   4.623  12.237   6.203
65135SOL     OW97301  13.052  11.434  14.146
65135SOL    HW197302  12.957  11.437  14.132
65135SOL    HW297303  13.076  11.343  14.130
65136SOL     OW97304   1.072  10.629  10.758
65136SOL    HW197305   1.163  10.628  10.727
65136SOL    HW297306   1.041  10.539  10.743
65137SOL     OW97307  11.583   3.215  13.846
65137SOL    HW197308  11.656   3.261  13.887
65137SOL    HW297309  11.541   3.280  13.790
65138SOL     OW97310   3.940  11.459   5.789
65138SOL    HW197311   4.030  11.483   5.812
65138SOL    HW297312   3.906  11.536   5.743
65139SOL     OW97313  10.119  10.079   3.650
65139SOL    HW197314  10.068  10.120   3.720
65139SOL    HW297315  10.210  10.096   3.673
65140SOL     OW97316   6.910  13.976   5.276
65140SOL    HW197317   6.880  14.065   5.294
65140SOL    HW297318   6.857  13.947   5.202
65141SOL     OW97319   5.556  14.021   2.928
65141SOL    HW197320   5.537  14.025   3.021
65141SOL    HW297321   5.505  14.093   2.891
65142SOL     OW97322   2.094   6.615   5.010
65142SOL    HW197323   2.106   6.616   4.915
65142SOL    HW297324   2.177   6.648   5.045
65143SOL     OW97325   4.496   9.374  13.545
65143SOL    HW197326   4.507   9.361  13.639
65143SOL    HW297327   4.452   9.458  13.538
65144SOL     OW97328  10.251   1.500  14.707
65144SOL    HW197329  10.266   1.416  14.750
65144SOL    HW297330  10.215   1.479  14.622
65145SOL     OW97331  11.594   3.117   1.807
65145SOL    HW197332  11.574   3.071   1.725
65145SOL    HW297333  11.688   3.105   1.819
65146SOL     OW97334   6.037  11.657   6.135
65146SOL    HW197335   5.991  11.740   6.129
65146SOL    HW297336   6.070  11.641   6.047
65147SOL     OW97337  11.405   5.907  11.191
65147SOL    HW197338  11.434   5.997  11.176
65147SOL    HW297339  11.312   5.916  11.214
65148SOL     OW97340  12.511  10.610   1.804
65148SOL    HW197341  12.461  10.673   1.751
65148SOL    HW297342  12.590  10.657   1.829
65149SOL     OW97343   8.723  14.056  14.738
65149SOL    HW197344   8.640  14.084  14.777
65149SOL    HW297345   8.716  13.961  14.733
65150SOL     OW97346   0.471   0.048   4.545
65150SOL    HW197347   0.385   0.035   4.586
65150SOL    HW297348   0.484   0.143   4.548
65151SOL     OW97349   3.330  11.214   0.827
65151SOL    HW197350   3.341  11.209   0.922
65151SOL    HW297351   3.400  11.159   0.792
65152SOL     OW97352   1.669   1.312  10.519
65152SOL    HW197353   1.577   1.338  10.526
65152SOL    HW297354   1.697   1.299  10.610
65153SOL     OW97355   3.084   9.915   0.377
65153SOL    HW197356   3.055   9.830   0.345
65153SOL    HW297357   3.005   9.970   0.373
65154SOL     OW97358   7.062   0.349  13.591
65154SOL    HW197359   7.090   0.411  13.658
65154SOL    HW297360   7.057   0.400  13.511
65155SOL     OW97361   1.369  10.260   8.977
65155SOL    HW197362   1.424  10.333   8.946
65155SOL    HW297363   1.392  10.252   9.069
65156SOL     OW97364   2.778   9.808  11.903
65156SOL    HW197365   2.768   9.888  11.851
65156SOL    HW297366   2.865   9.776  11.880
65157SOL     OW97367   6.448  10.844   2.644
65157SOL    HW197368   6.544  10.850   2.636
65157SOL    HW297369   6.425  10.914   2.704
65158SOL     OW97370   1.894   3.034   7.340
65158SOL    HW197371   1.978   3.050   7.383
65158SOL    HW297372   1.896   3.088   7.261
65159SOL     OW97373   0.087   8.919  13.369
65159SOL    HW197374   0.033   8.954  13.440
65159SOL    HW297375   0.173   8.906  13.409
65160SOL     OW97376   4.646  10.454   5.971
65160SOL    HW197377   4.714  10.391   5.946
65160SOL    HW297378   4.617  10.424   6.058
65161SOL     OW97379  10.458   0.427   7.976
65161SOL    HW197380  10.412   0.383   8.048
65161SOL    HW297381  10.406   0.406   7.899
65162SOL     OW97382  11.105  11.038  14.865
65162SOL    HW197383  11.033  11.099  14.874
65162SOL    HW297384  11.158  11.073  14.793
65163SOL     OW97385  13.232   2.555   8.302
65163SOL    HW197386  13.199   2.639   8.270
65163SOL    HW297387  13.284   2.578   8.380
65164SOL     OW97388  13.036   7.018  14.368
65164SOL    HW197389  12.984   7.060  14.299
65164SOL    HW297390  12.979   6.950  14.402
65165SOL     OW97391   0.984  10.225   9.386
65165SOL    HW197392   0.928  10.231   9.308
65165SOL    HW297393   1.073  10.235   9.352
65166SOL     OW97394   8.639   7.535   8.845
65166SOL    HW197395   8.618   7.516   8.754
65166SOL    HW297396   8.560   7.510   8.894
65167SOL     OW97397  13.658  10.374   7.654
65167SOL    HW197398  13.658  10.306   7.587
65167SOL    HW297399  13.744  10.369   7.694
65168SOL     OW97400  13.128   0.933   3.142
65168SOL    HW197401  13.137   0.844   3.177
65168SOL    HW297402  13.045   0.964   3.178
65169SOL     OW97403   0.264   7.001   6.627
65169SOL    HW197404   0.174   6.981   6.650
65169SOL    HW297405   0.312   6.920   6.644
65170SOL     OW97406   4.670   1.724   2.986
65170SOL    HW197407   4.664   1.671   3.066
65170SOL    HW297408   4.763   1.742   2.976
65171SOL     OW97409  14.508   9.104   2.699
65171SOL    HW197410  14.543   9.145   2.621
65171SOL    HW297411  14.577   9.115   2.765
65172SOL     OW97412   5.175  11.129   7.230
65172SOL    HW197413   5.233  11.069   7.182
65172SOL    HW297414   5.091  11.123   7.183
65173SOL     OW97415   0.248   1.404  13.844
65173SOL    HW197416   0.211   1.323  13.880
65173SOL    HW297417   0.183   1.471  13.862
65174SOL     OW97418   3.460  11.688  13.261
65174SOL    HW197419   3.514  11.741  13.203
65174SOL    HW297420   3.502  11.694  13.347
65175SOL     OW97421   9.218  13.849   4.344
65175SOL    HW197422   9.292  13.828   4.287
65175SOL    HW297423   9.216  13.777   4.407
65176SOL     OW97424  11.888   3.933   4.209
65176SOL    HW197425  11.896   3.940   4.304
65176SOL    HW297426  11.967   3.886   4.182
65177SOL     OW97427   0.496   6.630   3.704
65177SOL    HW197428   0.539   6.682   3.772
65177SOL    HW297429   0.521   6.672   3.622
65178SOL     OW97430  10.589   2.834  13.289
65178SOL    HW197431  10.534   2.896  13.242
65178SOL    HW297432  10.666   2.884  13.315
65179SOL     OW97433  14.384  11.282  13.847
65179SOL    HW197434  14.415  11.195  13.823
65179SOL    HW297435  14.433  11.342  13.790
65180SOL     OW97436   6.342  11.921  10.560
65180SOL    HW197437   6.307  11.961  10.639
65180SOL    HW297438   6.429  11.890  10.585
65181SOL     OW97439  12.396   2.811   0.983
65181SOL    HW197440  12.364   2.758   0.910
65181SOL    HW297441  12.329   2.878   0.995
65182SOL     OW97442  11.418  14.858  14.304
65182SOL    HW197443  11.358   0.046  14.266
65182SOL    HW297444  11.401  14.862  14.398
65183SOL     OW97445  13.107   5.643   4.377
65183SOL    HW197446  13.155   5.723   4.395
65183SOL    HW297447  13.035   5.670   4.320
65184SOL     OW97448   4.218   7.331  14.666
65184SOL    HW197449   4.124   7.315  14.665
65184SOL    HW297450   4.234   7.375  14.750
65185SOL     OW97451  13.268   2.881  13.042
65185SOL    HW197452  13.309   2.918  12.964
65185SOL    HW297453  13.183   2.850  13.011
65186SOL     OW97454   9.548   2.320   9.224
65186SOL    HW197455   9.485   2.264   9.180
65186SOL    HW297456   9.507   2.407   9.224
65187SOL     OW97457  14.676   2.250   9.828
65187SOL    HW197458  14.629   2.236   9.910
65187SOL    HW297459  14.608   2.244   9.760
65188SOL     OW97460   8.840   3.249   3.440
65188SOL    HW197461   8.927   3.277   3.412
65188SOL    HW297462   8.855   3.200   3.521
65189SOL     OW97463  13.045   8.896   8.589
65189SOL    HW197464  12.988   8.885   8.665
65189SOL    HW297465  13.133   8.900   8.626
65190SOL     OW97466  13.440   5.734   6.251
65190SOL    HW197467  13.393   5.702   6.174
65190SOL    HW297468  13.509   5.669   6.265
65191SOL     OW97469   6.345   7.838   7.495
65191SOL    HW197470   6.256   7.826   7.528
65191SOL    HW297471   6.341   7.811   7.404
65192SOL     OW97472  13.282   2.760   2.234
65192SOL    HW197473  13.283   2.669   2.207
65192SOL    HW297474  13.299   2.810   2.154
65193SOL     OW97475  11.609  14.569   0.511
65193SOL    HW197476  11.571  14.572   0.423
65193SOL    HW297477  11.539  14.536   0.567
65194SOL     OW97478   5.452   0.413  10.543
65194SOL    HW197479   5.439   0.318  10.552
65194SOL    HW297480   5.392   0.452  10.607
65195SOL     OW97481   1.810  12.490  13.319
65195SOL    HW197482   1.764  12.573  13.310
65195SOL    HW297483   1.807  12.451  13.232
65196SOL     OW97484   6.607  13.805   5.365
65196SOL    HW197485   6.543  13.745   5.405
65196SOL    HW297486   6.583  13.891   5.399
65197SOL     OW97487   6.770   3.445  11.615
65197SOL    HW197488   6.787   3.523  11.562
65197SOL    HW297489   6.677   3.450  11.636
65198SOL     OW97490  11.881   5.680   5.856
65198SOL    HW197491  11.915   5.699   5.769
65198SOL    HW297492  11.819   5.750   5.874
65199SOL     OW97493   5.804  12.164  11.802
65199SOL    HW197494   5.859  12.164  11.724
65199SOL    HW297495   5.744  12.237  11.790
65200SOL     OW97496  10.957   8.259   4.881
65200SOL    HW197497  10.952   8.213   4.797
65200SOL    HW297498  11.036   8.225   4.923
65201SOL     OW97499   8.590   1.496   0.321
65201SOL    HW197500   8.629   1.548   0.391
65201SOL    HW297501   8.662   1.440   0.289
65202SOL     OW97502  10.165  13.500   3.894
65202SOL    HW197503  10.231  13.448   3.940
65202SOL    HW297504  10.125  13.554   3.962
65203SOL     OW97505   9.588   7.760   2.712
65203SOL    HW197506   9.495   7.747   2.733
65203SOL    HW297507   9.624   7.803   2.790
65204SOL     OW97508  10.676   8.021  11.232
65204SOL    HW197509  10.666   8.072  11.152
65204SOL    HW297510  10.591   7.980  11.246
65205SOL     OW97511  11.241  12.609  12.585
65205SOL    HW197512  11.320  12.593  12.636
65205SOL    HW297513  11.174  12.553  12.625
65206SOL     OW97514   6.277   3.362  11.506
65206SOL    HW197515   6.248   3.341  11.418
65206SOL    HW297516   6.235   3.446  11.526
65207SOL     OW97517   1.905   2.850   3.151
65207SOL    HW197518   1.989   2.816   3.121
65207SOL    HW297519   1.895   2.934   3.106
65208SOL     OW97520   5.822  11.954   4.258
65208SOL    HW197521   5.909  11.928   4.230
65208SOL    HW297522   5.768  11.875   4.248
65209SOL     OW97523  14.104   2.591  13.370
65209SOL    HW197524  14.142   2.558  13.451
65209SOL    HW297525  14.179   2.620  13.318
65210SOL     OW97526   2.776   6.551  13.836
65210SOL    HW197527   2.760   6.506  13.753
65210SOL    HW297528   2.692   6.592  13.857
65211SOL     OW97529   1.729   3.487  10.276
65211SOL    HW197530   1.667   3.417  10.257
65211SOL    HW297531   1.720   3.549  10.204
65212SOL     OW97532   6.968  14.130   0.358
65212SOL    HW197533   6.981  14.039   0.330
65212SOL    HW297534   6.932  14.122   0.446
65213SOL     OW97535  14.754   5.090   6.617
65213SOL    HW197536  14.717   5.002   6.622
65213SOL    HW297537  14.787   5.098   6.527
65214SOL     OW97538   7.973   9.069   8.189
65214SOL    HW197539   7.983   9.149   8.241
65214SOL    HW297540   8.057   9.060   8.143
65215SOL     OW97541   3.551   1.086   1.900
65215SOL    HW197542   3.636   1.103   1.859
65215SOL    HW297543   3.496   1.057   1.827
65216SOL     OW97544   8.452   8.821   3.218
65216SOL    HW197545   8.445   8.897   3.277
65216SOL    HW297546   8.459   8.859   3.131
65217SOL     OW97547   5.511  12.265  14.725
65217SOL    HW197548   5.420  12.249  14.747
65217SOL    HW297549   5.512  12.277  14.630
65218SOL     OW97550  14.214  12.589   2.542
65218SOL    HW197551  14.155  12.646   2.592
65218SOL    HW297552  14.161  12.561   2.467
65219SOL     OW97553  12.012  13.767   4.946
65219SOL    HW197554  11.980  13.822   4.874
65219SOL    HW297555  11.933  13.733   4.987
65220SOL     OW97556   0.179   5.005   5.592
65220SOL    HW197557   0.198   4.960   5.674
65220SOL    HW297558   0.254   4.986   5.536
65221SOL     OW97559  12.003  10.752  10.143
65221SOL    HW197560  12.088  10.713  10.122
65221SOL    HW297561  11.962  10.767  10.058
65222SOL     OW97562  13.318  13.850  14.860
65222SOL    HW197563  13.383  13.913   0.015
65222SOL    HW297564  13.235  13.880   0.018
65223SOL     OW97565   9.877   0.783   6.400
65223SOL    HW197566   9.795   0.798   6.353
65223SOL    HW297567   9.944   0.783   6.331
65224SOL     OW97568  12.689   2.134   5.593
65224SOL    HW197569  12.772   2.177   5.613
65224SOL    HW297570  12.714   2.055   5.545
65225SOL     OW97571   4.203   7.898   9.673
65225SOL    HW197572   4.261   7.928   9.742
65225SOL    HW297573   4.242   7.932   9.592
65226SOL     OW97574   5.033   2.495   0.953
65226SOL    HW197575   5.124   2.465   0.963
65226SOL    HW297576   5.034   2.546   0.872
65227SOL     OW97577  11.650   3.084   3.822
65227SOL    HW197578  11.573   3.074   3.879
65227SOL    HW297579  11.677   3.175   3.834
65228SOL     OW97580   7.961   6.674  14.094
65228SOL    HW197581   7.981   6.633  14.010
65228SOL    HW297582   7.923   6.759  14.072
65229SOL     OW97583   8.931   1.613   4.956
65229SOL    HW197584   9.020   1.648   4.954
65229SOL    HW297585   8.934   1.534   4.903
65230SOL     OW97586   8.747   3.692   3.664
65230SOL    HW197587   8.691   3.616   3.677
65230SOL    HW297588   8.775   3.718   3.752
65231SOL     OW97589   7.560  11.551  14.499
65231SOL    HW197590   7.605  11.513  14.574
65231SOL    HW297591   7.622  11.542  14.426
65232SOL     OW97592  10.580   8.547   4.634
65232SOL    HW197593  10.605   8.594   4.714
65232SOL    HW297594  10.485   8.557   4.628
65233SOL     OW97595   9.741   4.126   4.331
65233SOL    HW197596   9.754   4.063   4.260
65233SOL    HW297597   9.652   4.157   4.319
65234SOL     OW97598   3.902  12.702  14.289
65234SOL    HW197599   3.828  12.666  14.337
65234SOL    HW297600   3.935  12.628  14.237
65235SOL     OW97601  14.597  14.611  10.687
65235SOL    HW197602  14.525  14.581  10.631
65235SOL    HW297603  14.554  14.653  10.761
65236SOL     OW97604   1.713   3.868   3.057
65236SOL    HW197605   1.782   3.911   3.106
65236SOL    HW297606   1.742   3.777   3.048
65237SOL     OW97607  11.771   1.329   0.168
65237SOL    HW197608  11.730   1.410   0.138
65237SOL    HW297609  11.838   1.358   0.229
65238SOL     OW97610  14.463  13.436   1.942
65238SOL    HW197611  14.432  13.416   2.030
65238SOL    HW297612  14.517  13.361   1.917
65239SOL     OW97613  12.970  11.212  14.665
65239SOL    HW197614  13.023  11.158  14.722
65239SOL    HW297615  12.880  11.191  14.688
65240SOL     OW97616   1.190   2.770  12.709
65240SOL    HW197617   1.099   2.794  12.689
65240SOL    HW297618   1.184   2.680  12.740
65241SOL     OW97619  12.909  13.973   6.803
65241SOL    HW197620  12.959  13.893   6.784
65241SOL    HW297621  12.928  14.031   6.729
65242SOL     OW97622   7.961  13.763   2.237
65242SOL    HW197623   7.976  13.669   2.239
65242SOL    HW297624   7.880  13.774   2.187
65243SOL     OW97625   6.330   8.284  12.052
65243SOL    HW197626   6.419   8.280  12.018
65243SOL    HW297627   6.275   8.286  11.973
65244SOL     OW97628   0.444   9.280   4.184
65244SOL    HW197629   0.376   9.213   4.182
65244SOL    HW297630   0.527   9.231   4.181
65245SOL     OW97631  13.350   0.018   5.888
65245SOL    HW197632  13.254   0.023   5.881
65245SOL    HW297633  13.365  14.847   5.969
65246SOL     OW97634   9.678   2.985   8.760
65246SOL    HW197635   9.702   3.004   8.851
65246SOL    HW297636   9.624   2.906   8.766
65247SOL     OW97637  13.018   7.548   7.720
65247SOL    HW197638  12.935   7.501   7.727
65247SOL    HW297639  13.004   7.629   7.769
65248SOL     OW97640   8.923   5.607   4.079
65248SOL    HW197641   8.885   5.562   4.154
65248SOL    HW297642   9.012   5.572   4.072
65249SOL     OW97643  11.830   6.224   0.525
65249SOL    HW197644  11.803   6.216   0.616
65249SOL    HW297645  11.898   6.292   0.526
65250SOL     OW97646  13.058  13.743   7.079
65250SOL    HW197647  13.068  13.685   7.003
65250SOL    HW297648  13.147  13.776   7.095
65251SOL     OW97649   6.630   4.510   9.882
65251SOL    HW197650   6.597   4.464   9.959
65251SOL    HW297651   6.675   4.587   9.917
65252SOL     OW97652   1.235   6.894   2.808
65252SOL    HW197653   1.209   6.903   2.716
65252SOL    HW297654   1.173   6.949   2.856
65253SOL     OW97655   2.390   1.586   6.744
65253SOL    HW197656   2.392   1.492   6.728
65253SOL    HW297657   2.479   1.607   6.770
65254SOL     OW97658  10.014   9.529   3.670
65254SOL    HW197659  10.038   9.621   3.682
65254SOL    HW297660  10.074   9.481   3.727
65255SOL     OW97661   7.860  11.594  10.867
65255SOL    HW197662   7.859  11.503  10.838
65255SOL    HW297663   7.948  11.606  10.905
65256SOL     OW97664   6.550   1.034  10.170
65256SOL    HW197665   6.614   1.003  10.106
65256SOL    HW297666   6.510   0.954  10.204
65257SOL     OW97667   1.667   7.715   3.993
65257SOL    HW197668   1.722   7.738   3.918
65257SOL    HW297669   1.628   7.631   3.970
65258SOL     OW97670  10.125   5.968   2.442
65258SOL    HW197671  10.088   5.901   2.499
65258SOL    HW297672  10.151   6.039   2.501
65259SOL     OW97673  11.609  13.364  12.312
65259SOL    HW197674  11.569  13.281  12.286
65259SOL    HW297675  11.625  13.355  12.406
65260SOL     OW97676   5.655  11.481   1.059
65260SOL    HW197677   5.672  11.387   1.064
65260SOL    HW297678   5.653  11.499   0.965
65261SOL     OW97679   8.458   7.151   0.566
65261SOL    HW197680   8.546   7.121   0.585
65261SOL    HW297681   8.421   7.083   0.509
65262SOL     OW97682   8.526   7.937   0.573
65262SOL    HW197683   8.439   7.954   0.610
65262SOL    HW297684   8.508   7.902   0.486
65263SOL     OW97685  10.523   9.359   7.016
65263SOL    HW197686  10.475   9.408   6.950
65263SOL    HW297687  10.499   9.268   7.001
65264SOL     OW97688   2.571  10.605  11.395
65264SOL    HW197689   2.490  10.648  11.368
65264SOL    HW297690   2.637  10.637  11.334
65265SOL     OW97691  12.922   4.005   0.056
65265SOL    HW197692  12.858   3.933   0.057
65265SOL    HW297693  12.883   4.072   0.112
65266SOL     OW97694   7.428   3.488   6.515
65266SOL    HW197695   7.369   3.415   6.533
65266SOL    HW297696   7.503   3.473   6.572
65267SOL     OW97697   2.503   9.893  14.579
65267SOL    HW197698   2.436   9.903  14.512
65267SOL    HW297699   2.535   9.804  14.568
65268SOL     OW97700   0.499   8.798  12.720
65268SOL    HW197701   0.430   8.814  12.784
65268SOL    HW297702   0.550   8.879  12.718
65269SOL     OW97703   3.523  13.206  11.173
65269SOL    HW197704   3.476  13.220  11.090
65269SOL    HW297705   3.574  13.286  11.185
65270SOL     OW97706   0.120   9.911   5.287
65270SOL    HW197707   0.033   9.878   5.312
65270SOL    HW297708   0.125   9.895   5.192
65271SOL     OW97709   7.577   2.276   9.015
65271SOL    HW197710   7.541   2.314   9.095
65271SOL    HW297711   7.672   2.281   9.028
65272SOL     OW97712   9.675   7.145   7.631
65272SOL    HW197713   9.732   7.150   7.555
65272SOL    HW297714   9.614   7.218   7.620
65273SOL     OW97715   6.109   4.942   4.568
65273SOL    HW197716   6.041   4.907   4.625
65273SOL    HW297717   6.184   4.956   4.625
65274SOL     OW97718  13.798   0.688  12.213
65274SOL    HW197719  13.795   0.696  12.118
65274SOL    HW297720  13.886   0.655  12.231
65275SOL     OW97721   1.365   3.231  12.430
65275SOL    HW197722   1.369   3.156  12.488
65275SOL    HW297723   1.451   3.234  12.388
65276SOL     OW97724   3.908   6.086   6.689
65276SOL    HW197725   3.844   6.092   6.619
65276SOL    HW297726   3.976   6.149   6.666
65277SOL     OW97727  10.422  14.234   2.946
65277SOL    HW197728  10.416  14.198   3.035
65277SOL    HW297729  10.364  14.310   2.947
65278SOL     OW97730  10.720   4.461  12.492
65278SOL    HW197731  10.729   4.366  12.487
65278SOL    HW297732  10.810   4.494  12.494
65279SOL     OW97733   7.249   6.931   8.858
65279SOL    HW197734   7.212   7.018   8.870
65279SOL    HW297735   7.196   6.891   8.789
65280SOL     OW97736  14.056  10.107   8.460
65280SOL    HW197737  14.031  10.199   8.470
65280SOL    HW297738  14.151  10.110   8.448
65281SOL     OW97739   1.464   6.756   6.315
65281SOL    HW197740   1.553   6.790   6.330
65281SOL    HW297741   1.478   6.677   6.264
65282SOL     OW97742   3.056  14.083   5.489
65282SOL    HW197743   3.070  13.989   5.479
65282SOL    HW297744   2.987  14.089   5.556
65283SOL     OW97745  14.606  11.080  10.091
65283SOL    HW197746  14.567  11.118  10.170
65283SOL    HW297747  14.545  11.104  10.021
65284SOL     OW97748   2.426  10.065  13.624
65284SOL    HW197749   2.513  10.103  13.638
65284SOL    HW297750   2.397  10.039  13.712
65285SOL     OW97751   9.011   3.336   1.208
65285SOL    HW197752   8.978   3.322   1.296
65285SOL    HW297753   9.106   3.343   1.218
65286SOL     OW97754   4.781   1.510   0.117
65286SOL    HW197755   4.695   1.538   0.087
65286SOL    HW297756   4.791   1.421   0.081
65287SOL     OW97757   6.897  12.761   5.776
65287SOL    HW197758   6.970  12.806   5.820
65287SOL    HW297759   6.819  12.801   5.813
65288SOL     OW97760   6.681   7.938   2.329
65288SOL    HW197761   6.624   7.977   2.263
65288SOL    HW297762   6.768   7.971   2.308
65289SOL     OW97763   7.190   0.347   7.209
65289SOL    HW197764   7.142   0.416   7.254
65289SOL    HW297765   7.236   0.300   7.278
65290SOL     OW97766   3.598  13.718   5.561
65290SOL    HW197767   3.656  13.791   5.583
65290SOL    HW297768   3.657  13.646   5.542
65291SOL     OW97769   1.407  10.942  11.938
65291SOL    HW197770   1.392  10.974  11.849
65291SOL    HW297771   1.354  10.862  11.944
65292SOL     OW97772  11.675  13.187   4.486
65292SOL    HW197773  11.736  13.232   4.427
65292SOL    HW297774  11.635  13.258   4.537
65293SOL     OW97775  12.342   1.584   8.903
65293SOL    HW197776  12.389   1.654   8.948
65293SOL    HW297777  12.388   1.574   8.820
65294SOL     OW97778   8.840   4.293   1.750
65294SOL    HW197779   8.780   4.362   1.778
65294SOL    HW297780   8.785   4.215   1.740
65295SOL     OW97781   7.229  10.167   1.622
65295SOL    HW197782   7.175  10.123   1.688
65295SOL    HW297783   7.274  10.236   1.670
65296SOL     OW97784  11.881   1.857   8.465
65296SOL    HW197785  11.881   1.933   8.523
65296SOL    HW297786  11.819   1.796   8.505
65297SOL     OW97787  11.465   9.763   8.438
65297SOL    HW197788  11.494   9.852   8.459
65297SOL    HW297789  11.370   9.772   8.428
65298SOL     OW97790  10.583  12.805   8.241
65298SOL    HW197791  10.661  12.843   8.282
65298SOL    HW297792  10.533  12.769   8.314
65299SOL     OW97793   5.836   9.653   2.402
65299SOL    HW197794   5.775   9.684   2.335
65299SOL    HW297795   5.824   9.558   2.403
65300SOL     OW97796   5.589   3.828   8.602
65300SOL    HW197797   5.542   3.749   8.627
65300SOL    HW297798   5.571   3.890   8.673
65301SOL     OW97799   6.569  10.805  12.532
65301SOL    HW197800   6.635  10.776  12.470
65301SOL    HW297801   6.616  10.815  12.615
65302SOL     OW97802  14.316   8.270   5.944
65302SOL    HW197803  14.286   8.200   6.002
65302SOL    HW297804  14.235   8.307   5.907
65303SOL     OW97805  13.310   9.870  14.565
65303SOL    HW197806  13.305   9.943  14.504
65303SOL    HW297807  13.295   9.909  14.651
65304SOL     OW97808   5.109   1.253  14.217
65304SOL    HW197809   5.062   1.334  14.196
65304SOL    HW297810   5.088   1.193  14.146
65305SOL     OW97811  14.273   0.742   5.051
65305SOL    HW197812  14.227   0.659   5.063
65305SOL    HW297813  14.208   0.800   5.011
65306SOL     OW97814   6.323  10.684   3.787
65306SOL    HW197815   6.281  10.729   3.713
65306SOL    HW297816   6.381  10.620   3.746
65307SOL     OW97817   8.245   8.123   2.122
65307SOL    HW197818   8.214   8.182   2.191
65307SOL    HW297819   8.175   8.058   2.113
65308SOL     OW97820   4.898   4.343   9.102
65308SOL    HW197821   4.831   4.300   9.049
65308SOL    HW297822   4.978   4.337   9.049
65309SOL     OW97823  14.851   4.409  10.636
65309SOL    HW197824  14.859   4.352  10.712
65309SOL    HW297825  14.775   4.377  10.588
65310SOL     OW97826   2.077   6.304   4.881
65310SOL    HW197827   2.076   6.397   4.900
65310SOL    HW297828   1.984   6.280   4.871
65311SOL     OW97829  13.088  14.549   3.832
65311SOL    HW197830  13.044  14.584   3.910
65311SOL    HW297831  13.106  14.458   3.853
65312SOL     OW97832  12.370   6.235  14.875
65312SOL    HW197833  12.430   6.198   0.063
65312SOL    HW297834  12.426   6.289  14.819
65313SOL     OW97835   1.079  13.019   5.589
65313SOL    HW197836   1.129  12.942   5.562
65313SOL    HW297837   1.079  13.076   5.512
65314SOL     OW97838  12.224   0.354   6.920
65314SOL    HW197839  12.211   0.443   6.887
65314SOL    HW297840  12.296   0.319   6.867
65315SOL     OW97841   3.422   4.143   9.587
65315SOL    HW197842   3.509   4.182   9.587
65315SOL    HW297843   3.380   4.180   9.509
65316SOL     OW97844  12.825   5.114   5.717
65316SOL    HW197845  12.892   5.047   5.706
65316SOL    HW297846  12.754   5.069   5.763
65317SOL     OW97847   4.918   6.298  11.949
65317SOL    HW197848   4.831   6.336  11.942
65317SOL    HW297849   4.977   6.373  11.952
65318SOL     OW97850   1.387   5.077   9.083
65318SOL    HW197851   1.331   5.018   9.032
65318SOL    HW297852   1.335   5.156   9.093
65319SOL     OW97853   2.947  13.983   0.445
65319SOL    HW197854   2.922  13.899   0.407
65319SOL    HW297855   3.041  13.991   0.429
65320SOL     OW97856   0.899   2.919  10.056
65320SOL    HW197857   0.993   2.910  10.041
65320SOL    HW297858   0.869   2.971   9.982
65321SOL     OW97859   5.594   6.050   3.746
65321SOL    HW197860   5.658   6.111   3.707
65321SOL    HW297861   5.623   6.039   3.836
65322SOL     OW97862   9.082   7.313   8.962
65322SOL    HW197863   9.136   7.259   8.904
65322SOL    HW297864   9.035   7.372   8.903
65323SOL     OW97865   6.622   2.619   9.051
65323SOL    HW197866   6.570   2.562   9.108
65323SOL    HW297867   6.668   2.559   8.992
65324SOL     OW97868  11.005   3.018   2.209
65324SOL    HW197869  10.950   3.075   2.262
65324SOL    HW297870  11.069   2.983   2.271
65325SOL     OW97871   8.830   0.893   3.782
65325SOL    HW197872   8.911   0.850   3.808
65325SOL    HW297873   8.840   0.910   3.689
65326SOL     OW97874   2.207   5.018   5.857
65326SOL    HW197875   2.169   4.938   5.892
65326SOL    HW297876   2.242   5.063   5.934
65327SOL     OW97877   9.838   0.587   5.264
65327SOL    HW197878   9.812   0.673   5.298
65327SOL    HW297879   9.776   0.568   5.194
65328SOL     OW97880   8.581   5.250   2.850
65328SOL    HW197881   8.676   5.259   2.840
65328SOL    HW297882   8.565   5.156   2.846
65329SOL     OW97883  10.664   4.130  14.066
65329SOL    HW197884  10.620   4.210  14.093
65329SOL    HW297885  10.595   4.073  14.034
65330SOL     OW97886  14.468   3.821  13.104
65330SOL    HW197887  14.555   3.834  13.141
65330SOL    HW297888  14.473   3.862  13.017
65331SOL     OW97889   4.756   4.042   0.470
65331SOL    HW197890   4.780   3.950   0.484
65331SOL    HW297891   4.786   4.086   0.550
65332SOL     OW97892  12.573   0.917  11.270
65332SOL    HW197893  12.607   0.869  11.345
65332SOL    HW297894  12.607   0.870  11.194
65333SOL     OW97895   7.129   9.507   3.959
65333SOL    HW197896   7.215   9.475   3.987
65333SOL    HW297897   7.067   9.464   4.018
65334SOL     OW97898   0.759   7.693  12.520
65334SOL    HW197899   0.666   7.709  12.534
65334SOL    HW297900   0.762   7.622  12.456
65335SOL     OW97901  11.975   9.131   3.928
65335SOL    HW197902  11.994   9.207   3.982
65335SOL    HW297903  11.934   9.167   3.849
65336SOL     OW97904   5.580   3.566  14.837
65336SOL    HW197905   5.633   3.641  14.811
65336SOL    HW297906   5.606   3.549   0.050
65337SOL     OW97907   7.665   6.709  13.470
65337SOL    HW197908   7.738   6.764  13.444
65337SOL    HW297909   7.588   6.765  13.461
65338SOL     OW97910  10.358   7.115  13.716
65338SOL    HW197911  10.449   7.109  13.689
65338SOL    HW297912  10.359   7.168  13.795
65339SOL     OW97913   2.157   7.779   6.369
65339SOL    HW197914   2.190   7.824   6.292
65339SOL    HW297915   2.062   7.778   6.358
65340SOL     OW97916   0.612   4.457  12.420
65340SOL    HW197917   0.650   4.374  12.449
65340SOL    HW297918   0.517   4.442  12.420
65341SOL     OW97919   7.837   2.530  14.696
65341SOL    HW197920   7.773   2.504  14.763
65341SOL    HW297921   7.790   2.593  14.642
65342SOL     OW97922  11.095   4.161   3.615
65342SOL    HW197923  11.029   4.126   3.675
65342SOL    HW297924  11.112   4.089   3.554
65343SOL     OW97925   3.803  11.707  14.593
65343SOL    HW197926   3.779  11.672  14.679
65343SOL    HW297927   3.887  11.665  14.572
65344SOL     OW97928   9.467  14.214  13.189
65344SOL    HW197929   9.477  14.286  13.251
65344SOL    HW297930   9.471  14.135  13.242
65345SOL     OW97931   9.890   1.649  12.132
65345SOL    HW197932   9.921   1.608  12.051
65345SOL    HW297933   9.964   1.701  12.162
65346SOL     OW97934   6.042  11.237  14.762
65346SOL    HW197935   5.957  11.193  14.759
65346SOL    HW297936   6.081  11.220  14.677
65347SOL     OW97937   5.106   2.355   3.086
65347SOL    HW197938   5.153   2.306   3.018
65347SOL    HW297939   5.016   2.363   3.053
65348SOL     OW97940  11.169  14.626   1.848
65348SOL    HW197941  11.214  14.575   1.780
65348SOL    HW297942  11.089  14.576   1.865
65349SOL     OW97943   9.395   7.197   0.329
65349SOL    HW197944   9.400   7.109   0.290
65349SOL    HW297945   9.341   7.247   0.268
65350SOL     OW97946  12.229   8.045   8.544
65350SOL    HW197947  12.185   7.975   8.496
65350SOL    HW297948  12.159   8.089   8.592
65351SOL     OW97949  14.744  11.386   0.782
65351SOL    HW197950  14.822  11.439   0.770
65351SOL    HW297951  14.775  11.296   0.773
65352SOL     OW97952   5.324   8.839  11.386
65352SOL    HW197953   5.323   8.789  11.305
65352SOL    HW297954   5.357   8.778  11.452
65353SOL     OW97955   4.135  13.257   9.797
65353SOL    HW197956   4.135  13.347   9.764
65353SOL    HW297957   4.227  13.236   9.808
65354SOL     OW97958  14.259   8.407   2.479
65354SOL    HW197959  14.166   8.386   2.470
65354SOL    HW297960  14.278   8.467   2.407
65355SOL     OW97961   9.127   4.461   9.010
65355SOL    HW197962   9.083   4.381   9.035
65355SOL    HW297963   9.206   4.432   8.963
65356SOL     OW97964   3.219   8.898   3.920
65356SOL    HW197965   3.213   8.878   4.014
65356SOL    HW297966   3.311   8.924   3.907
65357SOL     OW97967  13.798   1.018   4.852
65357SOL    HW197968  13.797   0.932   4.893
65357SOL    HW297969  13.760   1.005   4.765
65358SOL     OW97970  10.434  13.685  12.753
65358SOL    HW197971  10.370  13.625  12.714
65358SOL    HW297972  10.504  13.629  12.785
65359SOL     OW97973   0.604   6.824   6.702
65359SOL    HW197974   0.600   6.857   6.612
65359SOL    HW297975   0.523   6.774   6.712
65360SOL     OW97976   2.365   8.585  12.022
65360SOL    HW197977   2.319   8.585  12.105
65360SOL    HW297978   2.411   8.501  12.019
65361SOL     OW97979  11.920   2.255   4.422
65361SOL    HW197980  11.987   2.252   4.353
65361SOL    HW297981  11.844   2.293   4.380
65362SOL     OW97982  12.074  10.067   8.705
65362SOL    HW197983  12.168  10.077   8.722
65362SOL    HW297984  12.070  10.005   8.633
65363SOL     OW97985   9.410   2.789   1.424
65363SOL    HW197986   9.428   2.862   1.482
65363SOL    HW297987   9.419   2.825   1.335
65364SOL     OW97988  11.064   7.313   2.354
65364SOL    HW197989  11.006   7.370   2.405
65364SOL    HW297990  11.124   7.276   2.419
65365SOL     OW97991   0.136   9.541   5.144
65365SOL    HW197992   0.119   9.459   5.098
65365SOL    HW297993   0.227   9.561   5.124
65366SOL     OW97994   8.437   9.948  10.183
65366SOL    HW197995   8.458   9.855  10.170
65366SOL    HW297996   8.352   9.960  10.140
65367SOL     OW97997  14.172  14.591   1.731
65367SOL    HW197998  14.165  14.517   1.671
65367SOL    HW297999  14.158  14.553   1.818
65368SOL     OW98000   8.394   5.447   8.199
65368SOL    HW198001   8.314   5.406   8.166
65368SOL    HW298002   8.460   5.379   8.193
65369SOL     OW98003   8.195  10.738  10.646
65369SOL    HW198004   8.225  10.777  10.564
65369SOL    HW298005   8.213  10.645  10.637
65370SOL     OW98006   5.904   7.053  13.959
65370SOL    HW198007   5.933   6.962  13.964
65370SOL    HW298008   5.982   7.101  13.933
65371SOL     OW98009   4.760   1.296  13.762
65371SOL    HW198010   4.832   1.276  13.702
65371SOL    HW298011   4.696   1.343  13.709
65372SOL     OW98012   5.052   4.115   6.489
65372SOL    HW198013   4.973   4.080   6.530
65372SOL    HW298014   5.019   4.169   6.417
65373SOL     OW98015   2.372   8.751   0.667
65373SOL    HW198016   2.453   8.701   0.667
65373SOL    HW298017   2.341   8.746   0.758
65374SOL     OW98018   8.616   9.082   5.501
65374SOL    HW198019   8.695   9.047   5.460
65374SOL    HW298020   8.544   9.029   5.465
65375SOL     OW98021   0.568   3.135  13.589
65375SOL    HW198022   0.621   3.116  13.667
65375SOL    HW298023   0.632   3.148  13.519
65376SOL     OW98024   4.043   4.762  11.656
65376SOL    HW198025   4.109   4.716  11.604
65376SOL    HW298026   4.075   4.757  11.746
65377SOL     OW98027   6.186   4.843  11.167
65377SOL    HW198028   6.198   4.784  11.093
65377SOL    HW298029   6.091   4.852  11.176
65378SOL     OW98030  13.323  11.030  12.153
65378SOL    HW198031  13.355  11.086  12.082
65378SOL    HW298032  13.403  10.999  12.197
65379SOL     OW98033   6.991   8.893   3.995
65379SOL    HW198034   7.080   8.862   4.012
65379SOL    HW298035   6.935   8.826   4.034
65380SOL     OW98036   3.908   1.807   5.866
65380SOL    HW198037   3.985   1.811   5.923
65380SOL    HW298038   3.884   1.714   5.865
65381SOL     OW98039  12.749   3.257  12.662
65381SOL    HW198040  12.753   3.176  12.713
65381SOL    HW298041  12.800   3.320  12.713
65382SOL     OW98042   4.312   4.040  13.273
65382SOL    HW198043   4.232   4.080  13.306
65382SOL    HW298044   4.284   3.989  13.197
65383SOL     OW98045   3.002   9.168  14.531
65383SOL    HW198046   3.069   9.235  14.515
65383SOL    HW298047   3.034   9.090  14.487
65384SOL     OW98048   4.908   3.295   9.938
65384SOL    HW198049   4.996   3.328   9.954
65384SOL    HW298050   4.881   3.335   9.855
65385SOL     OW98051  12.601   1.147  11.970
65385SOL    HW198052  12.543   1.135  12.044
65385SOL    HW298053  12.682   1.181  12.009
65386SOL     OW98054  12.322  10.551   2.453
65386SOL    HW198055  12.401  10.544   2.400
65386SOL    HW298056  12.292  10.461   2.463
65387SOL     OW98057   9.521   2.634   5.178
65387SOL    HW198058   9.542   2.727   5.174
65387SOL    HW298059   9.452   2.628   5.245
65388SOL     OW98060  11.749   2.260   5.538
65388SOL    HW198061  11.670   2.266   5.485
65388SOL    HW298062  11.815   2.308   5.489
65389SOL     OW98063  14.673   4.756  10.994
65389SOL    HW198064  14.766   4.741  10.976
65389SOL    HW298065  14.628   4.690  10.943
65390SOL     OW98066   2.079   3.919  13.772
65390SOL    HW198067   2.135   3.867  13.829
65390SOL    HW298068   1.992   3.914  13.812
65391SOL     OW98069   2.878   2.752   8.140
65391SOL    HW198070   2.892   2.806   8.218
65391SOL    HW298071   2.940   2.787   8.075
65392SOL     OW98072   0.228   3.614   8.463
65392SOL    HW198073   0.296   3.547   8.468
65392SOL    HW298074   0.264   3.679   8.403
65393SOL     OW98075  12.408   7.144   3.805
65393SOL    HW198076  12.396   7.218   3.745
65393SOL    HW298077  12.321   7.107   3.816
65394SOL     OW98078   8.642  11.344   6.901
65394SOL    HW198079   8.715  11.402   6.879
65394SOL    HW298080   8.680  11.279   6.961
65395SOL     OW98081  14.109  13.284  13.571
65395SOL    HW198082  14.203  13.272  13.580
65395SOL    HW298083  14.100  13.368  13.525
65396SOL     OW98084   3.220   2.452   7.056
65396SOL    HW198085   3.271   2.494   7.124
65396SOL    HW298086   3.268   2.371   7.037
65397SOL     OW98087  10.884  10.528   3.947
65397SOL    HW198088  10.910  10.609   3.904
65397SOL    HW298089  10.793  10.543   3.974
65398SOL     OW98090  13.798  11.787   8.792
65398SOL    HW198091  13.756  11.718   8.742
65398SOL    HW298092  13.742  11.798   8.869
65399SOL     OW98093   6.124  11.305   6.836
65399SOL    HW198094   6.124  11.251   6.915
65399SOL    HW298095   6.199  11.364   6.846
65400SOL     OW98096  13.340   6.574   8.021
65400SOL    HW198097  13.285   6.652   8.032
65400SOL    HW298098  13.426   6.610   7.998
65401SOL     OW98099   4.203   5.518  12.870
65401SOL    HW198100   4.226   5.552  12.956
65401SOL    HW298101   4.185   5.596  12.818
65402SOL     OW98102   5.633  10.978   5.241
65402SOL    HW198103   5.609  10.900   5.292
65402SOL    HW298104   5.711  10.952   5.193
65403SOL     OW98105   1.341   7.547  13.346
65403SOL    HW198106   1.391   7.499  13.280
65403SOL    HW298107   1.347   7.638  13.320
65404SOL     OW98108   6.769   5.989   8.474
65404SOL    HW198109   6.684   6.026   8.498
65404SOL    HW298110   6.830   6.027   8.537
65405SOL     OW98111   0.206   9.997   8.698
65405SOL    HW198112   0.294  10.032   8.712
65405SOL    HW298113   0.208   9.911   8.740
65406SOL     OW98114   1.750   4.951   5.252
65406SOL    HW198115   1.717   4.864   5.231
65406SOL    HW298116   1.740   4.958   5.347
65407SOL     OW98117   0.441  11.638   0.908
65407SOL    HW198118   0.348  11.618   0.902
65407SOL    HW298119   0.484  11.552   0.910
65408SOL     OW98120   7.239   4.006   7.210
65408SOL    HW198121   7.173   3.944   7.182
65408SOL    HW298122   7.218   4.023   7.302
65409SOL     OW98123   6.236   9.416  12.693
65409SOL    HW198124   6.178   9.443  12.622
65409SOL    HW298125   6.217   9.323  12.705
65410SOL     OW98126   6.397   8.420   8.154
65410SOL    HW198127   6.401   8.379   8.068
65410SOL    HW298128   6.488   8.438   8.177
65411SOL     OW98129   9.342   5.593  12.153
65411SOL    HW198130   9.407   5.560  12.092
65411SOL    HW298131   9.288   5.517  12.174
65412SOL     OW98132   0.409   2.728   7.806
65412SOL    HW198133   0.501   2.754   7.802
65412SOL    HW298134   0.363   2.809   7.828
65413SOL     OW98135  12.276  10.970   5.141
65413SOL    HW198136  12.187  10.980   5.109
65413SOL    HW298137  12.271  10.898   5.204
65414SOL     OW98138   7.705  11.166   4.606
65414SOL    HW198139   7.686  11.176   4.699
65414SOL    HW298140   7.641  11.223   4.562
65415SOL     OW98141   9.117   1.201   3.917
65415SOL    HW198142   9.170   1.257   3.860
65415SOL    HW298143   9.178   1.134   3.949
65416SOL     OW98144  11.543   7.636   7.652
65416SOL    HW198145  11.620   7.587   7.621
65416SOL    HW298146  11.580   7.712   7.698
65417SOL     OW98147  12.971   2.471   5.536
65417SOL    HW198148  12.905   2.458   5.605
65417SOL    HW298149  13.050   2.498   5.583
65418SOL     OW98150   2.774   0.411  12.993
65418SOL    HW198151   2.811   0.489  12.953
65418SOL    HW298152   2.681   0.413  12.969
65419SOL     OW98153   7.209   9.818  11.019
65419SOL    HW198154   7.176   9.873  11.090
65419SOL    HW298155   7.303   9.833  11.018
65420SOL     OW98156  14.248  12.552   4.610
65420SOL    HW198157  14.162  12.531   4.576
65420SOL    HW298158  14.233  12.582   4.699
65421SOL     OW98159   1.011  11.666   1.144
65421SOL    HW198160   0.935  11.652   1.201
65421SOL    HW298161   0.986  11.626   1.061
65422SOL     OW98162  11.340  11.741  13.126
65422SOL    HW198163  11.384  11.669  13.080
65422SOL    HW298164  11.398  11.816  13.115
65423SOL     OW98165   3.327   5.098   4.901
65423SOL    HW198166   3.248   5.080   4.952
65423SOL    HW298167   3.347   5.190   4.920
65424SOL     OW98168   9.896   9.709   0.325
65424SOL    HW198169   9.943   9.668   0.252
65424SOL    HW298170   9.806   9.718   0.292
65425SOL     OW98171   8.699   1.727   6.952
65425SOL    HW198172   8.650   1.685   6.881
65425SOL    HW298173   8.632   1.747   7.018
65426SOL     OW98174   7.030   4.138   3.710
65426SOL    HW198175   6.994   4.091   3.635
65426SOL    HW298176   7.079   4.211   3.672
65427SOL     OW98177   7.666  11.256  14.372
65427SOL    HW198178   7.653  11.337  14.322
65427SOL    HW298179   7.683  11.285  14.461
65428SOL     OW98180  14.170   2.848   7.282
65428SOL    HW198181  14.130   2.780   7.228
65428SOL    HW298182  14.135   2.833   7.370
65429SOL     OW98183   7.361  11.861   9.391
65429SOL    HW198184   7.368  11.831   9.301
65429SOL    HW298185   7.395  11.789   9.444
65430SOL     OW98186  13.247  10.906  11.243
65430SOL    HW198187  13.321  10.953  11.282
65430SOL    HW298188  13.247  10.932  11.151
65431SOL     OW98189   1.367   9.432  12.912
65431SOL    HW198190   1.286   9.479  12.930
65431SOL    HW298191   1.420   9.495  12.863
65432SOL     OW98192   1.989   4.511   2.347
65432SOL    HW198193   2.061   4.548   2.295
65432SOL    HW298194   1.988   4.562   2.427
65433SOL     OW98195   0.125   8.100   3.512
65433SOL    HW198196   0.204   8.048   3.523
65433SOL    HW298197   0.062   8.041   3.472
65434SOL     OW98198   1.442   5.857   2.144
65434SOL    HW198199   1.369   5.798   2.122
65434SOL    HW298200   1.491   5.812   2.212
65435SOL     OW98201  13.901   5.405   7.653
65435SOL    HW198202  13.945   5.420   7.737
65435SOL    HW298203  13.941   5.468   7.593
65436SOL     OW98204   1.963   8.362   0.011
65436SOL    HW198205   1.942   8.319   0.094
65436SOL    HW298206   2.029   8.306  14.848
65437SOL     OW98207  11.944  11.073  11.924
65437SOL    HW198208  11.922  11.114  12.008
65437SOL    HW298209  12.038  11.053  11.931
65438SOL     OW98210   2.023  11.612   2.817
65438SOL    HW198211   1.950  11.640   2.872
65438SOL    HW298212   2.012  11.662   2.736
65439SOL     OW98213   7.998   8.986  10.647
65439SOL    HW198214   7.976   9.034  10.726
65439SOL    HW298215   8.059   8.918  10.677
65440SOL     OW98216  14.648   6.284   9.857
65440SOL    HW198217  14.631   6.273   9.764
65440SOL    HW298218  14.636   6.196   9.895
65441SOL     OW98219  14.617  12.941  14.205
65441SOL    HW198220  14.572  13.012  14.161
65441SOL    HW298221  14.651  12.886  14.134
65442SOL     OW98222   3.473   7.072   1.995
65442SOL    HW198223   3.553   7.052   2.044
65442SOL    HW298224   3.424   6.990   1.994
65443SOL     OW98225   1.861  10.656   0.255
65443SOL    HW198226   1.861  10.714   0.331
65443SOL    HW298227   1.954  10.633   0.242
65444SOL     OW98228   5.031  11.690   9.375
65444SOL    HW198229   5.105  11.716   9.430
65444SOL    HW298230   5.061  11.701   9.285
65445SOL     OW98231   5.990   4.321   3.779
65445SOL    HW198232   5.950   4.404   3.804
65445SOL    HW298233   5.920   4.273   3.734
65446SOL     OW98234  11.776  12.802   7.821
65446SOL    HW198235  11.839  12.871   7.845
65446SOL    HW298236  11.706  12.849   7.776
65447SOL     OW98237   3.728   4.659   1.137
65447SOL    HW198238   3.645   4.664   1.184
65447SOL    HW298239   3.724   4.732   1.075
65448SOL     OW98240  14.752   1.583   9.354
65448SOL    HW198241  14.794   1.619   9.276
65448SOL    HW298242  14.814   1.600   9.424
65449SOL     OW98243  12.116  13.781  13.446
65449SOL    HW198244  12.194  13.803  13.395
65449SOL    HW298245  12.051  13.847  13.422
65450SOL     OW98246   8.965  13.440   1.469
65450SOL    HW198247   8.883  13.393   1.465
65450SOL    HW298248   9.017  13.393   1.534
65451SOL     OW98249   6.027   2.495  13.913
65451SOL    HW198250   5.972   2.489  13.991
65451SOL    HW298251   5.988   2.433  13.852
65452SOL     OW98252  12.399   4.176   9.844
65452SOL    HW198253  12.454   4.252   9.824
65452SOL    HW298254  12.448   4.127   9.910
65453SOL     OW98255  14.278   7.281   1.575
65453SOL    HW198256  14.271   7.360   1.521
65453SOL    HW298257  14.345   7.228   1.532
65454SOL     OW98258   3.519   7.409   3.954
65454SOL    HW198259   3.567   7.341   4.002
65454SOL    HW298260   3.583   7.447   3.894
65455SOL     OW98261   2.702   9.158   6.958
65455SOL    HW198262   2.736   9.120   7.039
65455SOL    HW298263   2.779   9.191   6.913
65456SOL     OW98264   1.945   4.351   0.941
65456SOL    HW198265   1.924   4.379   0.852
65456SOL    HW298266   1.988   4.426   0.980
65457SOL     OW98267  11.513   9.025   2.017
65457SOL    HW198268  11.558   8.975   1.949
65457SOL    HW298269  11.467   8.960   2.070
65458SOL     OW98270   6.266   2.509   0.050
65458SOL    HW198271   6.215   2.429   0.062
65458SOL    HW298272   6.217   2.559  14.862
65459SOL     OW98273  11.691  14.280   9.741
65459SOL    HW198274  11.625  14.303   9.806
65459SOL    HW298275  11.640  14.248   9.666
65460SOL     OW98276   1.535   3.746   0.859
65460SOL    HW198277   1.566   3.741   0.768
65460SOL    HW298278   1.548   3.657   0.893
65461SOL     OW98279  11.570   9.956   6.078
65461SOL    HW198280  11.574   9.861   6.091
65461SOL    HW298281  11.593   9.992   6.164
65462SOL     OW98282   7.594   4.077  14.466
65462SOL    HW198283   7.572   4.051  14.555
65462SOL    HW298284   7.690   4.080  14.464
65463SOL     OW98285   6.977   4.533   1.089
65463SOL    HW198286   7.059   4.581   1.077
65463SOL    HW298287   6.977   4.506   1.180
65464SOL     OW98288   7.424   5.722   5.987
65464SOL    HW198289   7.462   5.634   5.992
65464SOL    HW298290   7.429   5.755   6.077
65465SOL     OW98291   3.626   3.712   0.232
65465SOL    HW198292   3.695   3.715   0.166
65465SOL    HW298293   3.672   3.706   0.315
65466SOL     OW98294  13.145  13.440   7.989
65466SOL    HW198295  13.231  13.447   7.948
65466SOL    HW298296  13.131  13.347   8.000
65467SOL     OW98297  14.120  12.206   2.305
65467SOL    HW198298  14.034  12.205   2.347
65467SOL    HW298299  14.153  12.116   2.316
65468SOL     OW98300   7.419  11.255  11.853
65468SOL    HW198301   7.503  11.246  11.808
65468SOL    HW298302   7.373  11.324  11.804
65469SOL     OW98303  13.099  14.707   6.091
65469SOL    HW198304  13.158  14.654   6.038
65469SOL    HW298305  13.088  14.788   6.041
65470SOL     OW98306   6.181   0.122   0.590
65470SOL    HW198307   6.198   0.157   0.678
65470SOL    HW298308   6.268   0.104   0.555
65471SOL     OW98309   7.577  10.739   8.416
65471SOL    HW198310   7.514  10.788   8.364
65471SOL    HW298311   7.530  10.719   8.497
65472SOL     OW98312   9.662   7.231   8.594
65472SOL    HW198313   9.679   7.293   8.523
65472SOL    HW298314   9.652   7.147   8.549
65473SOL     OW98315  10.521   0.515  14.551
65473SOL    HW198316  10.545   0.426  14.577
65473SOL    HW298317  10.515   0.563  14.634
65474SOL     OW98318   5.704   4.100  13.974
65474SOL    HW198319   5.767   4.037  13.940
65474SOL    HW298320   5.625   4.048  13.991
65475SOL     OW98321   1.222   2.523   0.775
65475SOL    HW198322   1.256   2.451   0.827
65475SOL    HW298323   1.132   2.534   0.807
65476SOL     OW98324   6.222   3.363   5.802
65476SOL    HW198325   6.149   3.310   5.834
65476SOL    HW298326   6.218   3.443   5.854
65477SOL     OW98327   1.190   1.350   9.490
65477SOL    HW198328   1.100   1.364   9.462
65477SOL    HW298329   1.194   1.382   9.580
65478SOL     OW98330   8.167  10.124  13.640
65478SOL    HW198331   8.111  10.110  13.717
65478SOL    HW298332   8.146  10.213  13.611
65479SOL     OW98333   2.189   5.364  14.522
65479SOL    HW198334   2.100   5.379  14.552
65479SOL    HW298335   2.233   5.449  14.534
65480SOL     OW98336  11.361  12.162   1.727
65480SOL    HW198337  11.309  12.125   1.798
65480SOL    HW298338  11.388  12.248   1.759
65481SOL     OW98339   3.518  12.613  10.007
65481SOL    HW198340   3.478  12.579  10.087
65481SOL    HW298341   3.449  12.609   9.942
65482SOL     OW98342  13.151   8.754   1.591
65482SOL    HW198343  13.208   8.809   1.645
65482SOL    HW298344  13.085   8.815   1.556
65483SOL     OW98345   6.610   0.858  13.739
65483SOL    HW198346   6.533   0.913  13.753
65483SOL    HW298347   6.684   0.913  13.765
65484SOL     OW98348   1.800   0.438  12.322
65484SOL    HW198349   1.726   0.386  12.353
65484SOL    HW298350   1.761   0.521  12.295
65485SOL     OW98351   2.684   2.704   5.474
65485SOL    HW198352   2.668   2.651   5.396
65485SOL    HW298353   2.673   2.795   5.445
65486SOL     OW98354   5.891  10.839   6.347
65486SOL    HW198355   5.843  10.778   6.292
65486SOL    HW298356   5.863  10.926   6.317
65487SOL     OW98357  13.375   1.905   3.247
65487SOL    HW198358  13.426   1.860   3.314
65487SOL    HW298359  13.439   1.929   3.180
65488SOL     OW98360  10.344   9.508  13.561
65488SOL    HW198361  10.249   9.505  13.575
65488SOL    HW298362  10.381   9.475  13.643
65489SOL     OW98363  13.891   0.697   6.086
65489SOL    HW198364  13.834   0.683   6.011
65489SOL    HW298365  13.980   0.685   6.052
65490SOL     OW98366   6.785   7.114   8.914
65490SOL    HW198367   6.823   7.076   8.835
65490SOL    HW298368   6.694   7.082   8.914
65491SOL     OW98369  12.374   0.195   0.674
65491SOL    HW198370  12.418   0.259   0.617
65491SOL    HW298371  12.292   0.238   0.699
65492SOL     OW98372   4.571  14.077  10.345
65492SOL    HW198373   4.520  13.996  10.353
65492SOL    HW298374   4.656  14.048  10.312
65493SOL     OW98375   6.489   7.143  11.696
65493SOL    HW198376   6.463   7.216  11.639
65493SOL    HW298377   6.418   7.080  11.689
65494SOL     OW98378   2.139   5.211   3.949
65494SOL    HW198379   2.140   5.306   3.937
65494SOL    HW298380   2.058   5.183   3.906
65495SOL     OW98381   1.038   6.231  14.306
65495SOL    HW198382   1.008   6.322  14.301
65495SOL    HW298383   1.109   6.232  14.371
65496SOL     OW98384   8.635   5.972  12.655
65496SOL    HW198385   8.541   5.958  12.669
65496SOL    HW298386   8.670   5.984  12.743
65497SOL     OW98387   3.120   3.420   1.595
65497SOL    HW198388   3.040   3.376   1.623
65497SOL    HW298389   3.178   3.416   1.671
65498SOL     OW98390   5.026  10.348   5.363
65498SOL    HW198391   5.046  10.267   5.316
65498SOL    HW298392   5.089  10.351   5.434
65499SOL     OW98393  12.112   1.860   3.661
65499SOL    HW198394  12.092   1.796   3.593
65499SOL    HW298395  12.197   1.833   3.695
65500SOL     OW98396  12.715   8.298   8.678
65500SOL    HW198397  12.621   8.279   8.681
65500SOL    HW298398  12.737   8.322   8.767
65501SOL     OW98399   4.527  12.931  14.327
65501SOL    HW198400   4.445  12.958  14.285
65501SOL    HW298401   4.563  13.012  14.362
65502SOL     OW98402   0.391   3.805   3.084
65502SOL    HW198403   0.358   3.720   3.114
65502SOL    HW298404   0.417   3.790   2.993
65503SOL     OW98405  13.927   7.639   7.547
65503SOL    HW198406  13.967   7.711   7.499
65503SOL    HW298407  13.906   7.574   7.479
65504SOL     OW98408  11.690   4.783   4.684
65504SOL    HW198409  11.694   4.874   4.653
65504SOL    HW298410  11.680   4.731   4.605
65505SOL     OW98411   1.913  12.562   0.303
65505SOL    HW198412   1.881  12.648   0.331
65505SOL    HW298413   1.879  12.501   0.368
65506SOL     OW98414  13.176   4.714  14.594
65506SOL    HW198415  13.189   4.750  14.681
65506SOL    HW298416  13.084   4.689  14.592
65507SOL     OW98417   6.803   4.410   4.990
65507SOL    HW198418   6.843   4.449   4.912
65507SOL    HW298419   6.847   4.451   5.063
65508SOL     OW98420  10.467   3.370   9.287
65508SOL    HW198421  10.493   3.459   9.310
65508SOL    HW298422  10.408   3.342   9.357
65509SOL     OW98423   6.913  14.053   3.749
65509SOL    HW198424   6.846  14.109   3.709
65509SOL    HW298425   6.863  13.984   3.793
65510SOL     OW98426   2.969   8.858  14.725
65510SOL    HW198427   2.907   8.830  14.792
65510SOL    HW298428   3.053   8.860  14.769
65511SOL     OW98429   4.754   3.312  12.268
65511SOL    HW198430   4.673   3.350  12.235
65511SOL    HW298431   4.808   3.300  12.189
65512SOL     OW98432  11.978   4.534   8.569
65512SOL    HW198433  12.023   4.471   8.512
65512SOL    HW298434  11.906   4.566   8.515
65513SOL     OW98435  12.394  10.520   0.029
65513SOL    HW198436  12.365  10.611   0.017
65513SOL    HW298437  12.483  10.519  14.870
65514SOL     OW98438   6.633   4.126   0.372
65514SOL    HW198439   6.721   4.163   0.377
65514SOL    HW298440   6.609   4.134   0.280
65515SOL     OW98441   8.887   3.276   8.979
65515SOL    HW198442   8.980   3.292   8.963
65515SOL    HW298443   8.864   3.337   9.049
65516SOL     OW98444   1.175   5.274  11.244
65516SOL    HW198445   1.258   5.240  11.277
65516SOL    HW298446   1.127   5.196  11.215
65517SOL     OW98447  14.871  10.672   6.135
65517SOL    HW198448  14.814  10.743   6.106
65517SOL    HW298449  14.812  10.599   6.153
65518SOL     OW98450   7.361   1.998   8.279
65518SOL    HW198451   7.289   1.990   8.341
65518SOL    HW298452   7.430   1.942   8.315
65519SOL     OW98453  13.282   1.143  14.200
65519SOL    HW198454  13.292   1.096  14.118
65519SOL    HW298455  13.328   1.089  14.264
65520SOL     OW98456  12.161   8.974   5.493
65520SOL    HW198457  12.229   8.928   5.542
65520SOL    HW298458  12.186   9.066   5.499
65521SOL     OW98459   9.489  11.862   5.602
65521SOL    HW198460   9.396  11.881   5.614
65521SOL    HW298461   9.494  11.818   5.518
65522SOL     OW98462   9.631  12.634   5.234
65522SOL    HW198463   9.629  12.729   5.231
65522SOL    HW298464   9.718  12.610   5.202
65523SOL     OW98465  11.411   9.710   2.642
65523SOL    HW198466  11.419   9.789   2.589
65523SOL    HW298467  11.452   9.641   2.589
65524SOL     OW98468   2.606   1.576   0.560
65524SOL    HW198469   2.668   1.517   0.517
65524SOL    HW298470   2.576   1.528   0.637
65525SOL     OW98471   1.055  10.682  10.145
65525SOL    HW198472   1.059  10.772  10.113
65525SOL    HW298473   1.057  10.628  10.066
65526SOL     OW98474   2.923   2.591   0.454
65526SOL    HW198475   2.836   2.629   0.468
65526SOL    HW298476   2.982   2.647   0.505
65527SOL     OW98477  10.163   8.414  12.683
65527SOL    HW198478  10.194   8.491  12.636
65527SOL    HW298479  10.072   8.434  12.705
65528SOL     OW98480   5.132  11.362   0.523
65528SOL    HW198481   5.186  11.367   0.444
65528SOL    HW298482   5.164  11.284   0.569
65529SOL     OW98483   5.061  10.519  14.400
65529SOL    HW198484   5.010  10.582  14.349
65529SOL    HW298485   5.001  10.488  14.467
65530SOL     OW98486   5.970  14.147   1.501
65530SOL    HW198487   5.953  14.056   1.524
65530SOL    HW298488   6.062  14.148   1.474
65531SOL     OW98489   4.183  13.272  12.324
65531SOL    HW198490   4.169  13.362  12.353
65531SOL    HW298491   4.199  13.278  12.230
65532SOL     OW98492   9.596   8.996   6.439
65532SOL    HW198493   9.508   9.009   6.403
65532SOL    HW298494   9.615   9.078   6.485
65533SOL     OW98495   9.693   3.334   3.316
65533SOL    HW198496   9.750   3.327   3.239
65533SOL    HW298497   9.735   3.279   3.382
65534SOL     OW98498   8.993   5.769  13.158
65534SOL    HW198499   8.974   5.684  13.119
65534SOL    HW298500   9.057   5.751  13.227
65535SOL     OW98501   5.579  13.557  13.737
65535SOL    HW198502   5.632  13.478  13.749
65535SOL    HW298503   5.591  13.580  13.645
65536SOL     OW98504   4.168   6.160  12.654
65536SOL    HW198505   4.138   6.251  12.648
65536SOL    HW298506   4.194   6.150  12.746
65537SOL     OW98507   6.532   5.853   3.724
65537SOL    HW198508   6.439   5.871   3.713
65537SOL    HW298509   6.575   5.937   3.706
65538SOL     OW98510   3.068   6.568   7.846
65538SOL    HW198511   3.111   6.651   7.823
65538SOL    HW298512   3.093   6.508   7.776
65539SOL     OW98513  14.694   8.659  12.908
65539SOL    HW198514  14.614   8.660  12.961
65539SOL    HW298515  14.675   8.599  12.836
65540SOL     OW98516  11.427  11.876   9.777
65540SOL    HW198517  11.362  11.819   9.818
65540SOL    HW298518  11.469  11.922   9.850
65541SOL     OW98519   2.452   3.398   3.610
65541SOL    HW198520   2.472   3.305   3.616
65541SOL    HW298521   2.404   3.407   3.528
65542SOL     OW98522   5.054   8.774   5.110
65542SOL    HW198523   5.117   8.799   5.178
65542SOL    HW298524   4.997   8.710   5.152
65543SOL     OW98525  13.087  13.181   0.203
65543SOL    HW198526  13.110  13.253   0.144
65543SOL    HW298527  12.992  13.177   0.200
65544SOL     OW98528   8.072   0.748  13.666
65544SOL    HW198529   8.164   0.744  13.694
65544SOL    HW298530   8.066   0.688  13.592
65545SOL     OW98531  13.961   5.239  12.584
65545SOL    HW198532  13.910   5.167  12.623
65545SOL    HW298533  14.033   5.195  12.539
65546SOL     OW98534   6.316  14.659   5.161
65546SOL    HW198535   6.280  14.666   5.249
65546SOL    HW298536   6.241  14.636   5.106
65547SOL     OW98537  10.726   9.543  10.615
65547SOL    HW198538  10.703   9.453  10.640
65547SOL    HW298539  10.773   9.578  10.691
65548SOL     OW98540  14.756   5.502   3.436
65548SOL    HW198541  14.833   5.453   3.465
65548SOL    HW298542  14.699   5.504   3.513
65549SOL     OW98543   5.243   0.256  11.285
65549SOL    HW198544   5.187   0.239  11.208
65549SOL    HW298545   5.329   0.223  11.260
65550SOL     OW98546   5.885   9.135   2.575
65550SOL    HW198547   5.830   9.079   2.631
65550SOL    HW298548   5.832   9.153   2.498
65551SOL     OW98549  14.500  12.338   7.573
65551SOL    HW198550  14.584  12.377   7.550
65551SOL    HW298551  14.481  12.372   7.660
65552SOL     OW98552   3.937   0.722   7.237
65552SOL    HW198553   3.898   0.766   7.162
65552SOL    HW298554   3.957   0.634   7.206
65553SOL     OW98555   7.647   8.899   5.327
65553SOL    HW198556   7.599   8.904   5.245
65553SOL    HW298557   7.584   8.865   5.390
65554SOL     OW98558  11.532   7.337   0.995
65554SOL    HW198559  11.462   7.319   1.057
65554SOL    HW298560  11.575   7.416   1.029
65555SOL     OW98561   0.089  14.498   3.051
65555SOL    HW198562   0.065  14.554   3.125
65555SOL    HW298563   0.016  14.436   3.043
65556SOL     OW98564  10.831   7.767   9.630
65556SOL    HW198565  10.922   7.797   9.626
65556SOL    HW298566  10.834   7.692   9.689
65557SOL     OW98567   9.575  11.525  10.817
65557SOL    HW198568   9.616  11.459  10.872
65557SOL    HW298569   9.645  11.557  10.760
65558SOL     OW98570   6.865   7.605  10.414
65558SOL    HW198571   6.903   7.524  10.447
65558SOL    HW298572   6.887   7.606  10.321
65559SOL     OW98573  14.558   1.089  10.182
65559SOL    HW198574  14.491   1.157  10.175
65559SOL    HW298575  14.583   1.071  10.092
65560SOL     OW98576   0.601   3.450   4.633
65560SOL    HW198577   0.590   3.545   4.633
65560SOL    HW298578   0.512   3.416   4.635
65561SOL     OW98579  10.647  13.730  10.288
65561SOL    HW198580  10.734  13.713  10.253
65561SOL    HW298581  10.657  13.809  10.341
65562SOL     OW98582  10.698   2.463  13.984
65562SOL    HW198583  10.607   2.438  13.968
65562SOL    HW298584  10.750   2.388  13.957
65563SOL     OW98585   3.276   1.337   8.366
65563SOL    HW198586   3.228   1.339   8.449
65563SOL    HW298587   3.316   1.423   8.359
65564SOL     OW98588  12.015   2.938  12.388
65564SOL    HW198589  11.934   2.933  12.338
65564SOL    HW298590  12.038   3.030  12.390
65565SOL     OW98591   9.173   6.341  10.419
65565SOL    HW198592   9.132   6.317  10.336
65565SOL    HW298593   9.253   6.290  10.423
65566SOL     OW98594   8.940   1.260  12.713
65566SOL    HW198595   8.888   1.333  12.750
65566SOL    HW298596   9.016   1.254  12.770
65567SOL     OW98597   6.816   8.405   9.213
65567SOL    HW198598   6.775   8.492   9.210
65567SOL    HW298599   6.868   8.406   9.293
65568SOL     OW98600   9.061   3.354  11.611
65568SOL    HW198601   8.982   3.335  11.561
65568SOL    HW298602   9.127   3.294  11.576
65569SOL     OW98603   4.959   5.473   4.216
65569SOL    HW198604   4.888   5.419   4.251
65569SOL    HW298605   4.982   5.432   4.133
65570SOL     OW98606   9.562  12.839  13.674
65570SOL    HW198607   9.583  12.749  13.697
65570SOL    HW298608   9.472  12.835  13.641
65571SOL     OW98609  10.210   7.907   7.554
65571SOL    HW198610  10.176   7.821   7.579
65571SOL    HW298611  10.140   7.968   7.578
65572SOL     OW98612   0.471   4.395   0.769
65572SOL    HW198613   0.489   4.343   0.691
65572SOL    HW298614   0.404   4.346   0.816
65573SOL     OW98615   3.151  12.876   1.396
65573SOL    HW198616   3.236  12.858   1.436
65573SOL    HW298617   3.096  12.801   1.420
65574SOL     OW98618  11.797  11.164   7.661
65574SOL    HW198619  11.866  11.106   7.693
65574SOL    HW298620  11.731  11.163   7.731
65575SOL     OW98621   5.728  12.080  10.908
65575SOL    HW198622   5.708  12.133  10.985
65575SOL    HW298623   5.813  12.040  10.928
65576SOL     OW98624   8.504  10.464   1.908
65576SOL    HW198625   8.411  10.482   1.899
65576SOL    HW298626   8.532  10.435   1.821
65577SOL     OW98627   4.203   1.840  14.621
65577SOL    HW198628   4.119   1.811  14.658
65577SOL    HW298629   4.178   1.902  14.552
65578SOL     OW98630  14.208   8.191   2.989
65578SOL    HW198631  14.270   8.259   3.016
65578SOL    HW298632  14.209   8.128   3.061
65579SOL     OW98633   9.889   1.333   9.325
65579SOL    HW198634   9.969   1.386   9.325
65579SOL    HW298635   9.864   1.329   9.232
65580SOL     OW98636   4.695  13.373   8.743
65580SOL    HW198637   4.608  13.341   8.768
65580SOL    HW298638   4.696  13.367   8.648
65581SOL     OW98639   8.778  11.640  13.855
65581SOL    HW198640   8.757  11.702  13.926
65581SOL    HW298641   8.804  11.696  13.782
65582SOL     OW98642   1.355   1.968   1.105
65582SOL    HW198643   1.339   1.919   1.187
65582SOL    HW298644   1.417   2.036   1.130
65583SOL     OW98645   2.275   8.011   3.913
65583SOL    HW198646   2.186   7.979   3.932
65583SOL    HW298647   2.261   8.085   3.854
65584SOL     OW98648  13.889   2.594   0.532
65584SOL    HW198649  13.840   2.664   0.575
65584SOL    HW298650  13.929   2.544   0.603
65585SOL     OW98651  11.271   7.296  10.993
65585SOL    HW198652  11.364   7.318  10.992
65585SOL    HW298653  11.227   7.373  10.957
65586SOL     OW98654   0.915  10.805   1.904
65586SOL    HW198655   0.907  10.849   1.819
65586SOL    HW298656   0.985  10.852   1.949
65587SOL     OW98657   1.340  11.123   9.871
65587SOL    HW198658   1.422  11.159   9.903
65587SOL    HW298659   1.274  11.159   9.930
65588SOL     OW98660  12.436  11.513  14.525
65588SOL    HW198661  12.399  11.434  14.565
65588SOL    HW298662  12.409  11.508  14.433
65589SOL     OW98663   7.041   5.322  12.754
65589SOL    HW198664   7.080   5.276  12.829
65589SOL    HW298665   6.993   5.395  12.793
65590SOL     OW98666  13.020   3.632   0.495
65590SOL    HW198667  13.105   3.667   0.523
65590SOL    HW298668  13.039   3.589   0.411
65591SOL     OW98669  13.574  12.355   3.052
65591SOL    HW198670  13.480  12.362   3.072
65591SOL    HW298671  13.618  12.375   3.135
65592SOL     OW98672   4.031   1.664   0.880
65592SOL    HW198673   3.943   1.634   0.859
65592SOL    HW298674   4.017   1.745   0.929
65593SOL     OW98675   2.676  11.248   5.537
65593SOL    HW198676   2.771  11.252   5.542
65593SOL    HW298677   2.648  11.231   5.627
65594SOL     OW98678   8.801   7.650   1.135
65594SOL    HW198679   8.711   7.678   1.152
65594SOL    HW298680   8.838   7.718   1.079
65595SOL     OW98681   8.933  11.704  12.574
65595SOL    HW198682   8.948  11.777  12.515
65595SOL    HW298683   8.949  11.626  12.520
65596SOL     OW98684   2.387  11.077   6.017
65596SOL    HW198685   2.318  11.075   6.084
65596SOL    HW298686   2.405  11.170   6.004
65597SOL     OW98687   8.357  13.619  10.900
65597SOL    HW198688   8.276  13.575  10.922
65597SOL    HW298689   8.363  13.612  10.805
65598SOL     OW98690   2.771   0.875   3.018
65598SOL    HW198691   2.850   0.832   3.050
65598SOL    HW298692   2.778   0.872   2.923
65599SOL     OW98693   8.586   3.127  12.437
65599SOL    HW198694   8.538   3.045  12.424
65599SOL    HW298695   8.659   3.102  12.494
65600SOL     OW98696   2.312   8.373   6.608
65600SOL    HW198697   2.256   8.295   6.618
65600SOL    HW298698   2.401   8.338   6.606
65601SOL     OW98699  11.373   4.785  13.567
65601SOL    HW198700  11.357   4.697  13.532
65601SOL    HW298701  11.348   4.780  13.659
65602SOL     OW98702  10.953   1.387   2.628
65602SOL    HW198703  10.903   1.468   2.615
65602SOL    HW298704  10.971   1.356   2.540
65603SOL     OW98705   6.662   3.606  12.974
65603SOL    HW198706   6.689   3.562  13.055
65603SOL    HW298707   6.660   3.699  12.997
65604SOL     OW98708  11.736  14.844  12.133
65604SOL    HW198709  11.642  14.833  12.119
65604SOL    HW298710  11.777  14.808  12.055
65605SOL     OW98711   0.276   8.775   1.828
65605SOL    HW198712   0.291   8.802   1.737
65605SOL    HW298713   0.257   8.681   1.821
65606SOL     OW98714   7.251   5.461   3.978
65606SOL    HW198715   7.207   5.511   3.909
65606SOL    HW298716   7.305   5.398   3.931
65607SOL     OW98717   9.582   8.946   5.043
65607SOL    HW198718   9.559   9.016   5.104
65607SOL    HW298719   9.504   8.934   4.990
65608SOL     OW98720  12.851   1.460  11.695
65608SOL    HW198721  12.784   1.436  11.630
65608SOL    HW298722  12.802   1.472  11.776
65609SOL     OW98723  13.624   8.832   1.983
65609SOL    HW198724  13.571   8.753   1.972
65609SOL    HW298725  13.711   8.806   1.952
65610SOL     OW98726  10.571  13.497   6.738
65610SOL    HW198727  10.487  13.465   6.772
65610SOL    HW298728  10.620  13.523   6.816
65611SOL     OW98729   4.666   0.370   7.983
65611SOL    HW198730   4.750   0.327   7.967
65611SOL    HW298731   4.689   0.452   8.026
65612SOL     OW98732   8.861   3.833   9.280
65612SOL    HW198733   8.833   3.903   9.339
65612SOL    HW298734   8.839   3.752   9.327
65613SOL     OW98735   8.356  14.407   4.890
65613SOL    HW198736   8.329  14.442   4.975
65613SOL    HW298737   8.351  14.482   4.831
65614SOL     OW98738  10.851   8.832   0.371
65614SOL    HW198739  10.912   8.770   0.332
65614SOL    HW298740  10.818   8.884   0.298
65615SOL     OW98741   1.643  11.878  12.685
65615SOL    HW198742   1.608  11.824  12.614
65615SOL    HW298743   1.566  11.904  12.736
65616SOL     OW98744   7.021  14.662  10.273
65616SOL    HW198745   7.070  14.694  10.197
65616SOL    HW298746   6.985  14.741  10.313
65617SOL     OW98747   3.477   1.771   2.143
65617SOL    HW198748   3.469   1.676   2.138
65617SOL    HW298749   3.557   1.787   2.193
65618SOL     OW98750   7.947   1.443   8.826
65618SOL    HW198751   7.992   1.371   8.870
65618SOL    HW298752   7.962   1.519   8.881
65619SOL     OW98753   9.381   9.229   8.189
65619SOL    HW198754   9.475   9.221   8.205
65619SOL    HW298755   9.342   9.233   8.277
65620SOL     OW98756  12.070   8.962  10.968
65620SOL    HW198757  12.018   9.031  10.927
65620SOL    HW298758  12.156   8.969  10.928
65621SOL     OW98759   4.030   2.884   3.688
65621SOL    HW198760   3.952   2.934   3.662
65621SOL    HW298761   4.095   2.906   3.622
65622SOL     OW98762   3.793  11.973  14.740
65622SOL    HW198763   3.712  12.010  14.704
65622SOL    HW298764   3.792  11.881  14.712
65623SOL     OW98765   0.067   9.212   9.955
65623SOL    HW198766   0.070   9.274   9.881
65623SOL    HW298767   0.026   9.134   9.918
65624SOL     OW98768   6.331  11.731   3.467
65624SOL    HW198769   6.405  11.698   3.518
65624SOL    HW298770   6.283  11.652   3.441
65625SOL     OW98771   2.835   6.738   3.187
65625SOL    HW198772   2.748   6.755   3.151
65625SOL    HW298773   2.872   6.825   3.202
65626SOL     OW98774  13.160   4.401   0.873
65626SOL    HW198775  13.246   4.362   0.889
65626SOL    HW298776  13.155   4.412   0.778
65627SOL     OW98777  14.139   5.641   8.476
65627SOL    HW198778  14.117   5.588   8.553
65627SOL    HW298779  14.137   5.731   8.508
65628SOL     OW98780   2.563  11.800  13.644
65628SOL    HW198781   2.567  11.751  13.725
65628SOL    HW298782   2.481  11.771  13.603
65629SOL     OW98783   2.298   0.663  14.563
65629SOL    HW198784   2.251   0.622  14.637
65629SOL    HW298785   2.242   0.648  14.488
65630SOL     OW98786   1.142   7.971   7.326
65630SOL    HW198787   1.075   8.040   7.323
65630SOL    HW298788   1.104   7.904   7.383
65631SOL     OW98789  14.783   0.994  12.089
65631SOL    HW198790  14.799   0.948  12.171
65631SOL    HW298791  14.701   0.957  12.057
65632SOL     OW98792   6.693   8.802   6.005
65632SOL    HW198793   6.690   8.710   5.981
65632SOL    HW298794   6.602   8.825   6.023
65633SOL     OW98795   0.260  14.448  14.412
65633SOL    HW198796   0.279  14.449  14.318
65633SOL    HW298797   0.170  14.479  14.419
65634SOL     OW98798  10.816  10.540  10.829
65634SOL    HW198799  10.864  10.558  10.910
65634SOL    HW298800  10.856  10.598  10.764
65635SOL     OW98801  10.404   6.686   6.319
65635SOL    HW198802  10.362   6.740   6.386
65635SOL    HW298803  10.342   6.615   6.302
65636SOL     OW98804  14.225   2.416   9.922
65636SOL    HW198805  14.255   2.328   9.947
65636SOL    HW298806  14.275   2.437   9.844
65637SOL     OW98807  14.237  14.084   9.977
65637SOL    HW198808  14.205  14.094  10.067
65637SOL    HW298809  14.317  14.033   9.985
65638SOL     OW98810   9.808   4.081   3.973
65638SOL    HW198811   9.834   4.021   4.042
65638SOL    HW298812   9.865   4.060   3.899
65639SOL     OW98813   2.748   8.134  13.777
65639SOL    HW198814   2.683   8.156  13.844
65639SOL    HW298815   2.702   8.076  13.716
65640SOL     OW98816  13.575  10.214   4.347
65640SOL    HW198817  13.601  10.178   4.263
65640SOL    HW298818  13.480  10.202   4.351
65641SOL     OW98819   6.731  12.540   0.846
65641SOL    HW198820   6.642  12.575   0.843
65641SOL    HW298821   6.771  12.567   0.764
65642SOL     OW98822  13.358  14.056  11.288
65642SOL    HW198823  13.267  14.025  11.281
65642SOL    HW298824  13.409  13.987  11.245
65643SOL     OW98825   8.542   6.282   4.794
65643SOL    HW198826   8.503   6.365   4.821
65643SOL    HW298827   8.585   6.248   4.872
65644SOL     OW98828   4.965   5.834   4.183
65644SOL    HW198829   5.016   5.796   4.112
65644SOL    HW298830   4.946   5.924   4.155
65645SOL     OW98831   9.256   5.145   9.095
65645SOL    HW198832   9.328   5.162   9.035
65645SOL    HW298833   9.229   5.055   9.075
65646SOL     OW98834   0.453   5.646   0.489
65646SOL    HW198835   0.399   5.576   0.525
65646SOL    HW298836   0.448   5.717   0.554
65647SOL     OW98837   6.369  10.689   6.020
65647SOL    HW198838   6.331  10.694   5.932
65647SOL    HW298839   6.308  10.740   6.075
65648SOL     OW98840   9.994  10.640   8.681
65648SOL    HW198841   9.967  10.588   8.757
65648SOL    HW298842   9.979  10.582   8.606
65649SOL     OW98843   2.858   6.007  13.094
65649SOL    HW198844   2.831   5.933  13.041
65649SOL    HW298845   2.777   6.052  13.118
65650SOL     OW98846   4.736   8.363  11.386
65650SOL    HW198847   4.663   8.413  11.349
65650SOL    HW298848   4.694   8.293  11.436
65651SOL     OW98849   7.836   8.818  11.476
65651SOL    HW198850   7.881   8.821  11.561
65651SOL    HW298851   7.903   8.784  11.416
65652SOL     OW98852   2.327   7.832   7.149
65652SOL    HW198853   2.339   7.802   7.059
65652SOL    HW298854   2.250   7.889   7.146
65653SOL     OW98855   3.439   4.581   6.495
65653SOL    HW198856   3.401   4.627   6.571
65653SOL    HW298857   3.382   4.605   6.422
65654SOL     OW98858  14.210   8.439   5.390
65654SOL    HW198859  14.163   8.466   5.469
65654SOL    HW298860  14.254   8.518   5.359
65655SOL     OW98861   2.981   4.000  14.295
65655SOL    HW198862   3.054   4.049  14.332
65655SOL    HW298863   2.951   4.054  14.222
65656SOL     OW98864   1.173  14.240  14.317
65656SOL    HW198865   1.206  14.151  14.315
65656SOL    HW298866   1.251  14.295  14.306
65657SOL     OW98867   2.760   6.066   1.116
65657SOL    HW198868   2.813   6.038   1.042
65657SOL    HW298869   2.813   6.046   1.193
65658SOL     OW98870   0.048   5.393  11.891
65658SOL    HW198871   0.033   5.483  11.864
65658SOL    HW298872   0.138   5.374  11.864
65659SOL     OW98873   9.615   7.915   6.623
65659SOL    HW198874   9.600   8.003   6.588
65659SOL    HW298875   9.689   7.881   6.572
65660SOL     OW98876   2.631   4.744  14.181
65660SOL    HW198877   2.647   4.817  14.242
65660SOL    HW298878   2.716   4.727  14.141
65661SOL     OW98879   5.705   4.701  11.571
65661SOL    HW198880   5.627   4.659  11.608
65661SOL    HW298881   5.675   4.737  11.488
65662SOL     OW98882   8.954   9.589   9.172
65662SOL    HW198883   8.906   9.667   9.201
65662SOL    HW298884   8.887   9.532   9.133
65663SOL     OW98885   7.341   6.915  14.569
65663SOL    HW198886   7.426   6.925  14.612
65663SOL    HW298887   7.362   6.911  14.475
65664SOL     OW98888   8.941  14.415  13.116
65664SOL    HW198889   8.896  14.339  13.153
65664SOL    HW298890   8.968  14.388  13.029
65665SOL     OW98891  11.705  13.255   0.073
65665SOL    HW198892  11.659  13.334   0.043
65665SOL    HW298893  11.728  13.209  14.870
65666SOL     OW98894  10.726   7.742  13.198
65666SOL    HW198895  10.805   7.723  13.147
65666SOL    HW298896  10.679   7.659  13.200
65667SOL     OW98897   7.183   1.717   0.743
65667SOL    HW198898   7.179   1.761   0.828
65667SOL    HW298899   7.122   1.643   0.751
65668SOL     OW98900   1.432   7.843   1.644
65668SOL    HW198901   1.389   7.928   1.639
65668SOL    HW298902   1.454   7.821   1.554
65669SOL     OW98903   7.919  12.796   5.645
65669SOL    HW198904   7.852  12.729   5.658
65669SOL    HW298905   7.973  12.792   5.723
65670SOL     OW98906   3.618   3.527   5.542
65670SOL    HW198907   3.575   3.442   5.553
65670SOL    HW298908   3.643   3.529   5.450
65671SOL     OW98909   4.411   7.171   6.668
65671SOL    HW198910   4.459   7.233   6.614
65671SOL    HW298911   4.392   7.098   6.609
65672SOL     OW98912   4.991  10.039   7.051
65672SOL    HW198913   5.025  10.056   7.139
65672SOL    HW298914   4.909   9.993   7.067
65673SOL     OW98915   5.653  12.652   1.603
65673SOL    HW198916   5.582  12.681   1.547
65673SOL    HW298917   5.656  12.717   1.674
65674SOL     OW98918   8.065  10.601   4.274
65674SOL    HW198919   8.146  10.572   4.231
65674SOL    HW298920   8.070  10.697   4.273
65675SOL     OW98921   4.761   3.257  14.446
65675SOL    HW198922   4.793   3.331  14.496
65675SOL    HW298923   4.729   3.195  14.512
65676SOL     OW98924   9.813  12.392  10.161
65676SOL    HW198925   9.830  12.303  10.130
65676SOL    HW298926   9.761  12.380  10.241
65677SOL     OW98927   5.113   7.116   8.393
65677SOL    HW198928   5.174   7.177   8.435
65677SOL    HW298929   5.028   7.136   8.433
65678SOL     OW98930   0.895   3.119  11.934
65678SOL    HW198931   0.827   3.139  11.999
65678SOL    HW298932   0.898   3.197  11.879
65679SOL     OW98933  14.057   6.914  10.681
65679SOL    HW198934  14.003   6.866  10.744
65679SOL    HW298935  14.146   6.908  10.716
65680SOL     OW98936   8.790   4.795   8.759
65680SOL    HW198937   8.738   4.767   8.834
65680SOL    HW298938   8.857   4.727   8.750
65681SOL     OW98939   3.634   9.352   9.095
65681SOL    HW198940   3.711   9.339   9.150
65681SOL    HW298941   3.565   9.379   9.156
65682SOL     OW98942   3.576   9.285   3.525
65682SOL    HW198943   3.557   9.349   3.456
65682SOL    HW298944   3.508   9.218   3.515
65683SOL     OW98945   4.498   7.501   7.233
65683SOL    HW198946   4.552   7.475   7.159
65683SOL    HW298947   4.508   7.596   7.237
65684SOL     OW98948   1.170   3.355   1.403
65684SOL    HW198949   1.266   3.356   1.405
65684SOL    HW298950   1.147   3.425   1.341
65685SOL     OW98951   4.837  10.282   2.669
65685SOL    HW198952   4.831  10.233   2.751
65685SOL    HW298953   4.931  10.300   2.658
65686SOL     OW98954  11.461  11.830   4.170
65686SOL    HW198955  11.448  11.863   4.259
65686SOL    HW298956  11.550  11.793   4.172
65687SOL     OW98957  12.489   7.881  13.788
65687SOL    HW198958  12.463   7.791  13.811
65687SOL    HW298959  12.530   7.915  13.867
65688SOL     OW98960   5.199   3.156   0.431
65688SOL    HW198961   5.182   3.072   0.474
65688SOL    HW298962   5.287   3.181   0.460
65689SOL     OW98963  12.824  11.298   6.993
65689SOL    HW198964  12.856  11.381   6.957
65689SOL    HW298965  12.738  11.320   7.029
65690SOL     OW98966  11.998   7.942   0.389
65690SOL    HW198967  12.068   8.007   0.385
65690SOL    HW298968  12.043   7.858   0.395
65691SOL     OW98969   1.912   9.414   4.068
65691SOL    HW198970   1.932   9.442   4.157
65691SOL    HW298971   1.877   9.325   4.079
65692SOL     OW98972  14.475   3.677   5.843
65692SOL    HW198973  14.445   3.589   5.866
65692SOL    HW298974  14.496   3.671   5.749
65693SOL     OW98975   8.219   6.023  11.186
65693SOL    HW198976   8.154   6.033  11.256
65693SOL    HW298977   8.202   5.937  11.149
65694SOL     OW98978   1.944   8.143  12.965
65694SOL    HW198979   1.964   8.229  13.002
65694SOL    HW298980   1.849   8.136  12.972
65695SOL     OW98981  12.162   4.448   9.896
65695SOL    HW198982  12.153   4.358   9.863
65695SOL    HW298983  12.174   4.438   9.990
65696SOL     OW98984  14.347  10.886  12.265
65696SOL    HW198985  14.430  10.883  12.218
65696SOL    HW298986  14.316  10.795  12.264
65697SOL     OW98987   2.413   0.340   8.353
65697SOL    HW198988   2.507   0.348   8.363
65697SOL    HW298989   2.389   0.266   8.409
65698SOL     OW98990  10.392  11.438  13.607
65698SOL    HW198991  10.350  11.520  13.634
65698SOL    HW298992  10.355  11.421  13.520
65699SOL     OW98993   7.799  12.506   0.725
65699SOL    HW198994   7.888  12.491   0.758
65699SOL    HW298995   7.809  12.511   0.630
65700SOL     OW98996  11.325   9.752   1.288
65700SOL    HW198997  11.363   9.784   1.207
65700SOL    HW298998  11.323   9.828   1.346
65701SOL     OW98999   4.224  12.850  11.000
65701SOL    HW199000   4.308  12.894  11.011
65701SOL    HW299001   4.231  12.770  11.052
65702SOL     OW99002   4.488   2.580   0.349
65702SOL    HW199003   4.487   2.659   0.295
65702SOL    HW299004   4.536   2.605   0.428
65703SOL     OW99005   6.300  10.568  14.142
65703SOL    HW199006   6.344  10.484  14.152
65703SOL    HW299007   6.301  10.584  14.047
65704SOL     OW99008  13.019   9.546   3.091
65704SOL    HW199009  13.063   9.627   3.115
65704SOL    HW299010  13.014   9.496   3.173
65705SOL     OW99011   1.190  14.419   7.813
65705SOL    HW199012   1.256  14.487   7.802
65705SOL    HW299013   1.112  14.466   7.843
65706SOL     OW99014  12.174   6.830   9.026
65706SOL    HW199015  12.184   6.925   9.017
65706SOL    HW299016  12.184   6.813   9.119
65707SOL     OW99017  13.359   4.332  12.704
65707SOL    HW199018  13.271   4.365  12.726
65707SOL    HW299019  13.403   4.406  12.664
65708SOL     OW99020   1.482   3.528   6.162
65708SOL    HW199021   1.535   3.461   6.118
65708SOL    HW299022   1.544   3.573   6.219
65709SOL     OW99023   8.460  10.647   9.705
65709SOL    HW199024   8.430  10.698   9.780
65709SOL    HW299025   8.406  10.678   9.632
65710SOL     OW99026   0.263  10.502   8.207
65710SOL    HW199027   0.285  10.465   8.292
65710SOL    HW299028   0.186  10.453   8.179
65711SOL     OW99029  14.473  12.269  14.836
65711SOL    HW199030  14.441  12.318  14.761
65711SOL    HW299031  14.401  12.269   0.021
65712SOL     OW99032  11.574   3.791  14.819
65712SOL    HW199033  11.641   3.743  14.868
65712SOL    HW299034  11.568   3.876  14.863
65713SOL     OW99035  10.075   6.516   7.464
65713SOL    HW199036   9.984   6.546   7.472
65713SOL    HW299037  10.126   6.596   7.463
65714SOL     OW99038  11.119   5.900  12.127
65714SOL    HW199039  11.102   5.990  12.153
65714SOL    HW299040  11.093   5.848  12.203
65715SOL     OW99041   9.119   5.556  11.413
65715SOL    HW199042   9.142   5.467  11.440
65715SOL    HW299043   9.202   5.599  11.395
65716SOL     OW99044   6.955   2.308   3.982
65716SOL    HW199045   6.959   2.377   4.048
65716SOL    HW299046   7.037   2.259   3.994
65717SOL     OW99047  13.497   7.252   9.940
65717SOL    HW199048  13.580   7.205   9.939
65717SOL    HW299049  13.473   7.256  10.033
65718SOL     OW99050   9.093   3.977  13.280
65718SOL    HW199051   9.187   3.972  13.298
65718SOL    HW299052   9.083   3.943  13.191
65719SOL     OW99053   1.173   5.075   0.450
65719SOL    HW199054   1.078   5.085   0.454
65719SOL    HW299055   1.205   5.116   0.531
65720SOL     OW99056   6.870   3.604   1.440
65720SOL    HW199057   6.903   3.555   1.515
65720SOL    HW299058   6.945   3.613   1.382
65721SOL     OW99059   0.732  14.486   5.669
65721SOL    HW199060   0.801  14.444   5.721
65721SOL    HW299061   0.655  14.482   5.725
65722SOL     OW99062  13.838   7.664  12.284
65722SOL    HW199063  13.822   7.673  12.190
65722SOL    HW299064  13.823   7.752  12.319
65723SOL     OW99065   0.076  11.507   6.368
65723SOL    HW199066   0.012  11.493   6.298
65723SOL    HW299067   0.157  11.468   6.335
65724SOL     OW99068   6.653   0.515  11.993
65724SOL    HW199069   6.705   0.484  12.067
65724SOL    HW299070   6.670   0.452  11.924
65725SOL     OW99071  13.341   2.528  13.415
65725SOL    HW199072  13.305   2.471  13.347
65725SOL    HW299073  13.367   2.608  13.368
65726SOL     OW99074   3.891   8.336   1.489
65726SOL    HW199075   3.838   8.399   1.440
65726SOL    HW299076   3.837   8.257   1.492
65727SOL     OW99077   5.094  13.655  13.139
65727SOL    HW199078   5.036  13.721  13.177
65727SOL    HW299079   5.052  13.571  13.161
65728SOL     OW99080   3.817  10.737   5.862
65728SOL    HW199081   3.845  10.647   5.875
65728SOL    HW299082   3.757  10.733   5.787
65729SOL     OW99083  12.027   7.190   4.683
65729SOL    HW199084  12.104   7.234   4.647
65729SOL    HW299085  12.006   7.122   4.620
65730SOL     OW99086   2.925   6.124   8.879
65730SOL    HW199087   3.002   6.076   8.851
65730SOL    HW299088   2.952   6.216   8.878
65731SOL     OW99089   5.059  12.515  13.652
65731SOL    HW199090   5.051  12.419  13.652
65731SOL    HW299091   4.968  12.545  13.658
65732SOL     OW99092  12.256  11.945   7.708
65732SOL    HW199093  12.268  11.996   7.789
65732SOL    HW299094  12.190  11.880   7.731
65733SOL     OW99095   0.223   5.658   7.887
65733SOL    HW199096   0.258   5.742   7.856
65733SOL    HW299097   0.300   5.601   7.895
65734SOL     OW99098  12.363   0.277   6.649
65734SOL    HW199099  12.329   0.341   6.587
65734SOL    HW299100  12.454   0.303   6.663
65735SOL     OW99101   9.364  13.915   0.996
65735SOL    HW199102   9.458  13.930   0.994
65735SOL    HW299103   9.355  13.822   1.019
65736SOL     OW99104   8.975  14.366  13.504
65736SOL    HW199105   8.935  14.292  13.458
65736SOL    HW299106   9.020  14.415  13.435
65737SOL     OW99107   6.616   9.145   3.115
65737SOL    HW199108   6.710   9.146   3.097
65737SOL    HW299109   6.609   9.170   3.207
65738SOL     OW99110  12.812   1.915   2.896
65738SOL    HW199111  12.807   1.839   2.839
65738SOL    HW299112  12.903   1.942   2.894
65739SOL     OW99113  14.552   0.278   0.324
65739SOL    HW199114  14.615   0.283   0.396
65739SOL    HW299115  14.531   0.370   0.304
65740SOL     OW99116  10.996   9.442  14.206
65740SOL    HW199117  10.938   9.462  14.133
65740SOL    HW299118  10.948   9.472  14.284
65741SOL     OW99119  12.236   4.819   8.367
65741SOL    HW199120  12.244   4.767   8.287
65741SOL    HW299121  12.322   4.811   8.409
65742SOL     OW99122   9.625  11.656   2.290
65742SOL    HW199123   9.656  11.586   2.233
65742SOL    HW299124   9.690  11.660   2.361
65743SOL     OW99125   4.879   5.053  14.647
65743SOL    HW199126   4.917   5.080  14.730
65743SOL    HW299127   4.878   5.133  14.594
65744SOL     OW99128  10.997  11.230   8.452
65744SOL    HW199129  10.969  11.183   8.373
65744SOL    HW299130  10.998  11.164   8.521
65745SOL     OW99131   9.249   9.486   2.542
65745SOL    HW199132   9.244   9.406   2.489
65745SOL    HW299133   9.287   9.551   2.483
65746SOL     OW99134  10.809   7.158  11.957
65746SOL    HW199135  10.829   7.149  12.050
65746SOL    HW299136  10.891   7.137  11.912
65747SOL     OW99137   2.596   4.498  13.558
65747SOL    HW199138   2.687   4.507  13.586
65747SOL    HW299139   2.560   4.431  13.617
65748SOL     OW99140  11.789  10.342  14.793
65748SOL    HW199141  11.818  10.432  14.810
65748SOL    HW299142  11.791  10.300   0.002
65749SOL     OW99143   1.532  11.166  11.363
65749SOL    HW199144   1.584  11.245  11.352
65749SOL    HW299145   1.513  11.163  11.457
65750SOL     OW99146   0.728  10.728   1.239
65750SOL    HW199147   0.768  10.675   1.309
65750SOL    HW299148   0.643  10.754   1.274
65751SOL     OW99149   8.311  10.446   6.019
65751SOL    HW199150   8.402  10.450   5.990
65751SOL    HW299151   8.314  10.470   6.112
65752SOL     OW99152   5.692  10.363  14.002
65752SOL    HW199153   5.602  10.330  14.002
65752SOL    HW299154   5.686  10.448  13.957
65753SOL     OW99155  12.423   7.924   3.010
65753SOL    HW199156  12.366   7.897   3.082
65753SOL    HW299157  12.367   7.919   2.933
65754SOL     OW99158   3.312   2.089  14.737
65754SOL    HW199159   3.231   2.140  14.743
65754SOL    HW299160   3.283   1.998  14.733
65755SOL     OW99161  10.255   6.000  11.175
65755SOL    HW199162  10.214   5.971  11.093
65755SOL    HW299163  10.233   6.093  11.181
65756SOL     OW99164   8.844   2.391   3.451
65756SOL    HW199165   8.860   2.421   3.540
65756SOL    HW299166   8.910   2.437   3.398
65757SOL     OW99167   2.615   9.405  14.220
65757SOL    HW199168   2.579   9.393  14.308
65757SOL    HW299169   2.658   9.321  14.200
65758SOL     OW99170   5.914   8.892   1.224
65758SOL    HW199171   5.957   8.919   1.305
65758SOL    HW299172   5.833   8.943   1.222
65759SOL     OW99173  11.318   6.954  12.780
65759SOL    HW199174  11.321   6.951  12.876
65759SOL    HW299175  11.300   6.864  12.754
65760SOL     OW99176   1.670  12.514  12.236
65760SOL    HW199177   1.613  12.529  12.311
65760SOL    HW299178   1.611  12.501  12.162
65761SOL     OW99179   6.890   6.069   5.470
65761SOL    HW199180   6.912   6.022   5.390
65761SOL    HW299181   6.971   6.116   5.493
65762SOL     OW99182   2.478   3.437   5.225
65762SOL    HW199183   2.410   3.374   5.248
65762SOL    HW299184   2.510   3.408   5.139
65763SOL     OW99185   2.468   8.322   4.744
65763SOL    HW199186   2.523   8.260   4.793
65763SOL    HW299187   2.508   8.326   4.658
65764SOL     OW99188   6.011   8.186   6.380
65764SOL    HW199189   5.973   8.194   6.468
65764SOL    HW299190   6.093   8.139   6.394
65765SOL     OW99191   5.823   4.376  13.931
65765SOL    HW199192   5.814   4.282  13.945
65765SOL    HW299193   5.783   4.392  13.846
65766SOL     OW99194   0.682   7.665  14.808
65766SOL    HW199195   0.685   7.720   0.009
65766SOL    HW299196   0.594   7.628  14.808
65767SOL     OW99197   3.371   8.307   8.758
65767SOL    HW199198   3.459   8.284   8.790
65767SOL    HW299199   3.311   8.255   8.812
65768SOL     OW99200  12.217  12.174   9.445
65768SOL    HW199201  12.214  12.122   9.525
65768SOL    HW299202  12.301  12.219   9.448
65769SOL     OW99203   4.822  14.481  11.657
65769SOL    HW199204   4.863  14.401  11.690
65769SOL    HW299205   4.804  14.462  11.565
65770SOL     OW99206   1.138   2.147   1.014
65770SOL    HW199207   1.078   2.072   1.010
65770SOL    HW299208   1.221   2.110   1.043
65771SOL     OW99209   0.670  14.384   0.789
65771SOL    HW199210   0.580  14.353   0.778
65771SOL    HW299211   0.721  14.305   0.805
65772SOL     OW99212   5.138  14.610  10.873
65772SOL    HW199213   5.162  14.518  10.870
65772SOL    HW299214   5.219  14.657  10.852
65773SOL     OW99215  11.206  14.822   0.155
65773SOL    HW199216  11.189  14.798   0.246
65773SOL    HW299217  11.144  14.768   0.104
65774SOL     OW99218   9.349   4.530   5.387
65774SOL    HW199219   9.366   4.436   5.393
65774SOL    HW299220   9.397   4.567   5.461
65775SOL     OW99221  10.351  14.285  11.659
65775SOL    HW199222  10.402  14.277  11.739
65775SOL    HW299223  10.298  14.363  11.671
65776SOL     OW99224  10.430   5.709   4.854
65776SOL    HW199225  10.411   5.769   4.926
65776SOL    HW299226  10.347   5.700   4.807
65777SOL     OW99227  11.863   9.654  11.745
65777SOL    HW199228  11.903   9.567  11.752
65777SOL    HW299229  11.793   9.643  11.681
65778SOL     OW99230   0.695  11.163   6.085
65778SOL    HW199231   0.676  11.072   6.061
65778SOL    HW299232   0.779  11.181   6.043
65779SOL     OW99233   1.282   0.135   0.873
65779SOL    HW199234   1.237   0.062   0.830
65779SOL    HW299235   1.373   0.108   0.878
65780SOL     OW99236   8.472  13.434   4.515
65780SOL    HW199237   8.524  13.514   4.526
65780SOL    HW299238   8.531  13.374   4.469
65781SOL     OW99239   8.271   9.931  12.830
65781SOL    HW199240   8.351   9.882  12.809
65781SOL    HW299241   8.208   9.864  12.856
65782SOL     OW99242   8.464   5.756   1.415
65782SOL    HW199243   8.412   5.680   1.442
65782SOL    HW299244   8.488   5.799   1.497
65783SOL     OW99245   1.734   8.025  14.150
65783SOL    HW199246   1.709   7.933  14.156
65783SOL    HW299247   1.651   8.071  14.132
65784SOL     OW99248  14.152  13.549   9.850
65784SOL    HW199249  14.094  13.542   9.925
65784SOL    HW299250  14.198  13.631   9.863
65785SOL     OW99251   4.518   7.181  13.183
65785SOL    HW199252   4.544   7.155  13.095
65785SOL    HW299253   4.552   7.270  13.192
65786SOL     OW99254   3.076   0.878   6.475
65786SOL    HW199255   3.133   0.822   6.423
65786SOL    HW299256   3.135   0.933   6.526
65787SOL     OW99257   8.818  13.887   1.307
65787SOL    HW199258   8.913  13.875   1.301
65787SOL    HW299259   8.797  13.944   1.234
65788SOL     OW99260   9.613   2.629   7.249
65788SOL    HW199261   9.675   2.626   7.322
65788SOL    HW299262   9.559   2.706   7.266
65789SOL     OW99263  12.607   9.472   4.352
65789SOL    HW199264  12.542   9.409   4.322
65789SOL    HW299265  12.678   9.419   4.387
65790SOL     OW99266   2.337   8.675   7.376
65790SOL    HW199267   2.327   8.672   7.471
65790SOL    HW299268   2.327   8.768   7.355
65791SOL     OW99269  13.020  13.999  13.314
65791SOL    HW199270  13.077  13.929  13.346
65791SOL    HW299271  13.064  14.031  13.235
65792SOL     OW99272   1.514   7.477   0.252
65792SOL    HW199273   1.579   7.487   0.182
65792SOL    HW299274   1.524   7.387   0.281
65793SOL     OW99275  12.643  11.255  11.270
65793SOL    HW199276  12.671  11.346  11.282
65793SOL    HW299277  12.548  11.259  11.266
65794SOL     OW99278  13.976   0.784   7.859
65794SOL    HW199279  13.994   0.874   7.832
65794SOL    HW299280  14.062   0.743   7.869
65795SOL     OW99281  11.769   5.934   7.648
65795SOL    HW199282  11.680   5.959   7.674
65795SOL    HW299283  11.813   6.017   7.631
65796SOL     OW99284  13.621   1.651   1.314
65796SOL    HW199285  13.630   1.560   1.341
65796SOL    HW299286  13.551   1.650   1.249
65797SOL     OW99287   0.802   8.365   6.150
65797SOL    HW199288   0.804   8.355   6.055
65797SOL    HW299289   0.873   8.427   6.169
65798SOL     OW99290   5.461  11.601   5.625
65798SOL    HW199291   5.519  11.675   5.608
65798SOL    HW299292   5.517  11.536   5.668
65799SOL     OW99293   4.689   8.237  12.937
65799SOL    HW199294   4.593   8.241  12.937
65799SOL    HW299295   4.713   8.231  12.845
65800SOL     OW99296   6.540   1.413  10.097
65800SOL    HW199297   6.452   1.440  10.122
65800SOL    HW299298   6.526   1.338  10.038
65801SOL     OW99299   7.975   8.982  12.865
65801SOL    HW199300   8.002   9.059  12.815
65801SOL    HW299301   7.913   8.937  12.808
65802SOL     OW99302  12.877   4.059  10.915
65802SOL    HW199303  12.811   3.991  10.929
65802SOL    HW299304  12.840   4.137  10.956
65803SOL     OW99305   5.757   8.831   2.667
65803SOL    HW199306   5.695   8.762   2.645
65803SOL    HW299307   5.843   8.796   2.641
65804SOL     OW99308   1.769  12.171  11.523
65804SOL    HW199309   1.718  12.108  11.573
65804SOL    HW299310   1.837  12.118  11.481
65805SOL     OW99311   5.468   9.361   8.914
65805SOL    HW199312   5.392   9.333   8.965
65805SOL    HW299313   5.489   9.285   8.858
65806SOL     OW99314   1.862   8.975  10.148
65806SOL    HW199315   1.835   8.968  10.240
65806SOL    HW299316   1.816   9.054  10.117
65807SOL     OW99317  10.061   5.436   8.328
65807SOL    HW199318  10.134   5.374   8.322
65807SOL    HW299319   9.987   5.383   8.357
65808SOL     OW99320   1.076  11.726   7.159
65808SOL    HW199321   1.132  11.671   7.104
65808SOL    HW299322   1.118  11.724   7.245
65809SOL     OW99323   6.448   1.956   3.558
65809SOL    HW199324   6.393   2.022   3.601
65809SOL    HW299325   6.495   1.914   3.630
65810SOL     OW99326   8.133   1.026   1.413
65810SOL    HW199327   8.085   0.944   1.426
65810SOL    HW299328   8.216   1.013   1.460
65811SOL     OW99329  11.918   7.010   1.151
65811SOL    HW199330  11.919   7.056   1.067
65811SOL    HW299331  11.916   7.079   1.217
65812SOL     OW99332   5.703  10.415   4.415
65812SOL    HW199333   5.611  10.442   4.418
65812SOL    HW299334   5.700  10.321   4.402
65813SOL     OW99335   8.550  12.858  10.138
65813SOL    HW199336   8.544  12.775  10.089
65813SOL    HW299337   8.641  12.885  10.126
65814SOL     OW99338   2.122  12.238  13.158
65814SOL    HW199339   2.146  12.219  13.248
65814SOL    HW299340   2.105  12.153  13.119
65815SOL     OW99341   6.126  12.715   2.880
65815SOL    HW199342   6.142  12.675   2.966
65815SOL    HW299343   6.139  12.643   2.818
65816SOL     OW99344  12.251   2.994   3.265
65816SOL    HW199345  12.170   3.027   3.304
65816SOL    HW299346  12.223   2.929   3.201
65817SOL     OW99347   1.175   1.866   4.210
65817SOL    HW199348   1.130   1.924   4.272
65817SOL    HW299349   1.106   1.809   4.176
65818SOL     OW99350  11.050  13.234   0.225
65818SOL    HW199351  11.139  13.244   0.259
65818SOL    HW299352  11.004  13.185   0.293
65819SOL     OW99353  10.862   6.815  12.459
65819SOL    HW199354  10.771   6.820  12.432
65819SOL    HW299355  10.873   6.887  12.522
65820SOL     OW99356   5.357   1.754   6.136
65820SOL    HW199357   5.350   1.848   6.153
65820SOL    HW299358   5.272   1.730   6.100
65821SOL     OW99359   3.027  10.965   3.767
65821SOL    HW199360   2.950  10.915   3.795
65821SOL    HW299361   2.996  11.056   3.764
65822SOL     OW99362   0.734   9.237   0.021
65822SOL    HW199363   0.713   9.176   0.092
65822SOL    HW299364   0.679   9.210  14.826
65823SOL     OW99365  11.607   9.660   9.122
65823SOL    HW199366  11.611   9.719   9.047
65823SOL    HW299367  11.514   9.656   9.146
65824SOL     OW99368  12.000   6.366  13.340
65824SOL    HW199369  11.936   6.429  13.373
65824SOL    HW299370  12.085   6.402  13.367
65825SOL     OW99371  11.117   3.316   0.140
65825SOL    HW199372  11.080   3.270   0.065
65825SOL    HW299373  11.153   3.397   0.104
65826SOL     OW99374   5.528   6.307   0.409
65826SOL    HW199375   5.453   6.261   0.446
65826SOL    HW299376   5.580   6.333   0.486
65827SOL     OW99377  13.024  10.397  11.714
65827SOL    HW199378  13.007  10.460  11.785
65827SOL    HW299379  13.025  10.451  11.635
65828SOL     OW99380  13.810  12.678  10.792
65828SOL    HW199381  13.801  12.659  10.698
65828SOL    HW299382  13.785  12.597  10.835
65829SOL     OW99383   9.704  11.648   3.099
65829SOL    HW199384   9.747  11.619   3.179
65829SOL    HW299385   9.715  11.743   3.099
65830SOL     OW99386   0.544   9.650  13.879
65830SOL    HW199387   0.594   9.648  13.960
65830SOL    HW299388   0.524   9.743  13.865
65831SOL     OW99389  13.900   8.699   2.422
65831SOL    HW199390  13.965   8.727   2.486
65831SOL    HW299391  13.817   8.699   2.471
65832SOL     OW99392   0.133  12.705   6.212
65832SOL    HW199393   0.067  12.694   6.143
65832SOL    HW299394   0.081  12.710   6.293
65833SOL     OW99395  10.589   6.694  14.551
65833SOL    HW199396  10.594   6.617  14.494
65833SOL    HW299397  10.600   6.768  14.491
65834SOL     OW99398  14.147   1.336   9.177
65834SOL    HW199399  14.220   1.275   9.163
65834SOL    HW299400  14.147   1.390   9.097
65835SOL     OW99401   1.197   3.796   2.208
65835SOL    HW199402   1.226   3.812   2.298
65835SOL    HW299403   1.232   3.870   2.159
65836SOL     OW99404   6.726   8.157   5.566
65836SOL    HW199405   6.657   8.094   5.586
65836SOL    HW299406   6.763   8.126   5.483
65837SOL     OW99407  13.177  14.273   5.670
65837SOL    HW199408  13.162  14.295   5.578
65837SOL    HW299409  13.203  14.180   5.668
65838SOL     OW99410   8.527   8.570   1.838
65838SOL    HW199411   8.516   8.652   1.791
65838SOL    HW299412   8.526   8.503   1.770
65839SOL     OW99413   6.438   5.515  10.804
65839SOL    HW199414   6.352   5.537  10.769
65839SOL    HW299415   6.419   5.466  10.884
65840SOL     OW99416   1.419  10.195   5.402
65840SOL    HW199417   1.453  10.281   5.377
65840SOL    HW299418   1.364  10.213   5.479
65841SOL     OW99419  14.672   9.499   7.338
65841SOL    HW199420  14.658   9.462   7.250
65841SOL    HW299421  14.731   9.572   7.324
65842SOL     OW99422  14.611  13.373   8.500
65842SOL    HW199423  14.679  13.383   8.433
65842SOL    HW299424  14.617  13.281   8.526
65843SOL     OW99425   9.571   2.808  10.077
65843SOL    HW199426   9.504   2.853  10.128
65843SOL    HW299427   9.643   2.870  10.070
65844SOL     OW99428  11.761  12.949  13.979
65844SOL    HW199429  11.679  12.982  14.017
65844SOL    HW299430  11.829  12.999  14.024
65845SOL     OW99431   1.792   2.251   8.196
65845SOL    HW199432   1.755   2.321   8.142
65845SOL    HW299433   1.854   2.206   8.139
65846SOL     OW99434   1.440  10.452  11.062
65846SOL    HW199435   1.447  10.365  11.102
65846SOL    HW299436   1.348  10.476  11.073
65847SOL     OW99437  14.061   8.930   8.962
65847SOL    HW199438  14.015   8.846   8.950
65847SOL    HW299439  14.046   8.976   8.879
65848SOL     OW99440   5.454   0.732  11.864
65848SOL    HW199441   5.477   0.738  11.772
65848SOL    HW299442   5.431   0.640  11.877
65849SOL     OW99443  14.153  12.972   4.117
65849SOL    HW199444  14.207  12.894   4.133
65849SOL    HW299445  14.084  12.942   4.059
65850SOL     OW99446   3.001   8.329  13.091
65850SOL    HW199447   2.944   8.355  13.164
65850SOL    HW299448   2.980   8.391  13.021
65851SOL     OW99449  13.228   8.287   1.568
65851SOL    HW199450  13.189   8.375   1.570
65851SOL    HW299451  13.278   8.285   1.487
65852SOL     OW99452   5.779  13.234   7.226
65852SOL    HW199453   5.853  13.292   7.242
65852SOL    HW299454   5.799  13.192   7.142
65853SOL     OW99455   5.130   8.119   5.356
65853SOL    HW199456   5.168   8.053   5.415
65853SOL    HW299457   5.043   8.085   5.336
65854SOL     OW99458   1.074   6.155  10.265
65854SOL    HW199459   1.099   6.070  10.300
65854SOL    HW299460   0.979   6.154  10.263
65855SOL     OW99461  13.276   5.532   1.687
65855SOL    HW199462  13.356   5.581   1.704
65855SOL    HW299463  13.301   5.466   1.622
65856SOL     OW99464  14.370   7.515   1.790
65856SOL    HW199465  14.324   7.506   1.707
65856SOL    HW299466  14.426   7.437   1.796
65857SOL     OW99467  10.949  10.381   5.638
65857SOL    HW199468  10.913  10.434   5.710
65857SOL    HW299469  10.883  10.312   5.626
65858SOL     OW99470   0.938   2.342   0.750
65858SOL    HW199471   0.848   2.310   0.750
65858SOL    HW299472   0.936   2.420   0.805
65859SOL     OW99473   5.920   2.197   5.178
65859SOL    HW199474   5.864   2.146   5.236
65859SOL    HW299475   5.891   2.174   5.090
65860SOL     OW99476  14.071  11.689   6.837
65860SOL    HW199477  14.019  11.768   6.823
65860SOL    HW299478  14.118  11.676   6.754
65861SOL     OW99479  11.029  10.528  12.607
65861SOL    HW199480  11.034  10.622  12.593
65861SOL    HW299481  11.072  10.490  12.531
65862SOL     OW99482  11.720   6.598   2.750
65862SOL    HW199483  11.627   6.593   2.772
65862SOL    HW299484  11.758   6.519   2.790
65863SOL     OW99485  13.920   0.949   5.884
65863SOL    HW199486  13.946   1.041   5.875
65863SOL    HW299487  13.998   0.900   5.858
65864SOL     OW99488   9.722   4.278   6.929
65864SOL    HW199489   9.803   4.325   6.951
65864SOL    HW299490   9.680   4.333   6.862
65865SOL     OW99491  13.845   0.222   9.130
65865SOL    HW199492  13.839   0.317   9.134
65865SOL    HW299493  13.802   0.191   9.210
65866SOL     OW99494   7.917   7.526   2.093
65866SOL    HW199495   7.904   7.530   2.188
65866SOL    HW299496   7.922   7.433   2.073
65867SOL     OW99497   6.512   8.944   1.757
65867SOL    HW199498   6.588   9.000   1.741
65867SOL    HW299499   6.503   8.943   1.852
65868SOL     OW99500   6.655  12.946  10.253
65868SOL    HW199501   6.634  12.860  10.216
65868SOL    HW299502   6.724  12.929  10.317
65869SOL     OW99503   3.641  10.897   0.574
65869SOL    HW199504   3.667  10.805   0.575
65869SOL    HW299505   3.553  10.898   0.611
65870SOL     OW99506   1.038   2.814   6.031
65870SOL    HW199507   1.022   2.762   5.953
65870SOL    HW299508   1.132   2.832   6.029
65871SOL     OW99509  13.972   1.206   5.514
65871SOL    HW199510  14.049   1.171   5.469
65871SOL    HW299511  13.905   1.138   5.505
65872SOL     OW99512   2.560   3.225  13.991
65872SOL    HW199513   2.557   3.140  14.035
65872SOL    HW299514   2.619   3.212  13.917
65873SOL     OW99515   7.631   3.202  13.569
65873SOL    HW199516   7.677   3.118  13.573
65873SOL    HW299517   7.700   3.266  13.548
65874SOL     OW99518   0.404   3.332  13.508
65874SOL    HW199519   0.314   3.310  13.531
65874SOL    HW299520   0.456   3.261  13.545
65875SOL     OW99521  11.135  12.005   9.826
65875SOL    HW199522  11.072  12.073   9.848
65875SOL    HW299523  11.199  12.048   9.770
65876SOL     OW99524  11.143   5.937  11.239
65876SOL    HW199525  11.086   5.982  11.302
65876SOL    HW299526  11.131   5.844  11.258
65877SOL     OW99527  14.596   6.119   5.789
65877SOL    HW199528  14.619   6.112   5.882
65877SOL    HW299529  14.679   6.144   5.747
65878SOL     OW99530   4.953   8.785   2.980
65878SOL    HW199531   4.970   8.878   2.965
65878SOL    HW299532   4.886   8.783   3.048
65879SOL     OW99533  14.587   6.764   0.490
65879SOL    HW199534  14.641   6.732   0.418
65879SOL    HW299535  14.520   6.819   0.447
65880SOL     OW99536   5.027  12.687   7.866
65880SOL    HW199537   5.027  12.783   7.865
65880SOL    HW299538   5.031  12.665   7.959
65881SOL     OW99539   0.653  11.639   7.360
65881SOL    HW199540   0.569  11.594   7.350
65881SOL    HW299541   0.681  11.615   7.449
65882SOL     OW99542   2.247   2.790   9.794
65882SOL    HW199543   2.321   2.849   9.780
65882SOL    HW299544   2.186   2.840   9.847
65883SOL     OW99545   7.555  14.756  12.550
65883SOL    HW199546   7.590  14.767  12.461
65883SOL    HW299547   7.469  14.717  12.537
65884SOL     OW99548  12.355  12.817  11.481
65884SOL    HW199549  12.307  12.741  11.514
65884SOL    HW299550  12.287  12.881  11.459
65885SOL     OW99551   4.595   6.786   8.453
65885SOL    HW199552   4.524   6.803   8.514
65885SOL    HW299553   4.648   6.719   8.495
65886SOL     OW99554   1.019  13.322  12.263
65886SOL    HW199555   0.924  13.334  12.261
65886SOL    HW299556   1.033  13.243  12.210
65887SOL     OW99557   3.407   4.017   1.368
65887SOL    HW199558   3.372   3.935   1.334
65887SOL    HW299559   3.495   4.024   1.329
65888SOL     OW99560   1.979   9.800   8.377
65888SOL    HW199561   1.951   9.710   8.361
65888SOL    HW299562   1.924   9.830   8.449
65889SOL     OW99563   9.465   0.937  14.607
65889SOL    HW199564   9.393   0.990  14.574
65889SOL    HW299565   9.433   0.847  14.600
65890SOL     OW99566  10.628   5.028  14.138
65890SOL    HW199567  10.621   4.959  14.204
65890SOL    HW299568  10.722   5.041  14.126
65891SOL     OW99569   2.278   0.458   5.384
65891SOL    HW199570   2.248   0.547   5.369
65891SOL    HW299571   2.276   0.447   5.479
65892SOL     OW99572  12.528  10.803  10.981
65892SOL    HW199573  12.459  10.746  10.949
65892SOL    HW299574  12.609  10.752  10.969
65893SOL     OW99575  14.601  11.698   1.468
65893SOL    HW199576  14.514  11.668   1.497
65893SOL    HW299577  14.654  11.698   1.547
65894SOL     OW99578   4.146  12.773   9.755
65894SOL    HW199579   4.105  12.792   9.839
65894SOL    HW299580   4.195  12.692   9.770
65895SOL     OW99581  11.239   2.023   1.638
65895SOL    HW199582  11.204   1.968   1.708
65895SOL    HW299583  11.235   2.112   1.673
65896SOL     OW99584   8.826   7.687   6.190
65896SOL    HW199585   8.733   7.673   6.172
65896SOL    HW299586   8.863   7.599   6.187
65897SOL     OW99587   8.116   8.130  10.095
65897SOL    HW199588   8.207   8.157  10.087
65897SOL    HW299589   8.112   8.043  10.055
65898SOL     OW99590  10.416   1.580  12.356
65898SOL    HW199591  10.461   1.599  12.439
65898SOL    HW299592  10.484   1.542  12.300
65899SOL     OW99593   8.140  14.346   7.780
65899SOL    HW199594   8.190  14.382   7.853
65899SOL    HW299595   8.204  14.293   7.731
65900SOL     OW99596  14.860   8.413   7.413
65900SOL    HW199597   0.025   8.490   7.451
65900SOL    HW299598  14.780   8.401   7.465
65901SOL     OW99599  10.759   5.524   0.401
65901SOL    HW199600  10.741   5.490   0.489
65901SOL    HW299601  10.674   5.552   0.368
65902SOL     OW99602   0.645   6.966   7.053
65902SOL    HW199603   0.689   6.888   7.085
65902SOL    HW299604   0.567   6.933   7.008
65903SOL     OW99605   4.734  11.733  10.410
65903SOL    HW199606   4.722  11.712  10.318
65903SOL    HW299607   4.686  11.665  10.458
65904SOL     OW99608  14.440   7.015   1.823
65904SOL    HW199609  14.502   6.941   1.824
65904SOL    HW299610  14.387   7.001   1.744
65905SOL     OW99611   8.175   7.674   2.972
65905SOL    HW199612   8.135   7.610   3.032
65905SOL    HW299613   8.259   7.695   3.012
65906SOL     OW99614   2.212   3.076   4.818
65906SOL    HW199615   2.272   3.034   4.757
65906SOL    HW299616   2.125   3.059   4.783
65907SOL     OW99617   1.997   6.965   6.853
65907SOL    HW199618   1.906   6.977   6.825
65907SOL    HW299619   2.037   6.914   6.782
65908SOL     OW99620   3.679   0.203   6.577
65908SOL    HW199621   3.616   0.201   6.504
65908SOL    HW299622   3.626   0.191   6.655
65909SOL     OW99623   6.449  12.254   5.224
65909SOL    HW199624   6.385  12.189   5.196
65909SOL    HW299625   6.512  12.258   5.152
65910SOL     OW99626   2.036   3.766   6.352
65910SOL    HW199627   2.069   3.805   6.271
65910SOL    HW299628   2.097   3.695   6.371
65911SOL     OW99629   6.237  14.766   7.731
65911SOL    HW199630   6.172  14.696   7.733
65911SOL    HW299631   6.299  14.743   7.799
65912SOL     OW99632   3.796  11.856  12.097
65912SOL    HW199633   3.817  11.831  12.187
65912SOL    HW299634   3.880  11.879  12.058
65913SOL     OW99635   3.228   7.400   0.458
65913SOL    HW199636   3.241   7.432   0.369
65913SOL    HW299637   3.285   7.455   0.512
65914SOL     OW99638  13.668   4.931   5.332
65914SOL    HW199639  13.698   5.018   5.307
65914SOL    HW299640  13.663   4.933   5.428
65915SOL     OW99641  11.084   8.039  12.565
65915SOL    HW199642  11.020   7.975  12.595
65915SOL    HW299643  11.082   8.109  12.630
65916SOL     OW99644   7.359  11.944   7.906
65916SOL    HW199645   7.321  12.032   7.911
65916SOL    HW299646   7.293  11.888   7.947
65917SOL     OW99647   9.476   2.996   1.075
65917SOL    HW199648   9.452   2.933   1.007
65917SOL    HW299649   9.422   3.073   1.056
65918SOL     OW99650   0.274  10.463   5.574
65918SOL    HW199651   0.288  10.388   5.517
65918SOL    HW299652   0.180  10.479   5.571
65919SOL     OW99653  11.121   1.862   8.041
65919SOL    HW199654  11.027   1.855   8.060
65919SOL    HW299655  11.125   1.887   7.949
65920SOL     OW99656   1.536   5.378   2.483
65920SOL    HW199657   1.466   5.422   2.531
65920SOL    HW299658   1.491   5.331   2.413
65921SOL     OW99659  13.202   4.268   9.950
65921SOL    HW199660  13.177   4.360   9.956
65921SOL    HW299661  13.167   4.227  10.029
65922SOL     OW99662  13.741   4.614  14.100
65922SOL    HW199663  13.818   4.657  14.136
65922SOL    HW299664  13.678   4.685  14.085
65923SOL     OW99665   1.102  12.198   2.181
65923SOL    HW199666   1.098  12.139   2.256
65923SOL    HW299667   1.189  12.184   2.143
65924SOL     OW99668  10.670   5.665   3.206
65924SOL    HW199669  10.716   5.736   3.251
65924SOL    HW299670  10.709   5.585   3.241
65925SOL     OW99671   6.384   6.405  13.204
65925SOL    HW199672   6.434   6.341  13.255
65925SOL    HW299673   6.414   6.391  13.114
65926SOL     OW99674   3.820  14.771   2.867
65926SOL    HW199675   3.833  14.847   2.811
65926SOL    HW299676   3.810  14.807   2.955
65927SOL     OW99677  11.382  11.945   0.437
65927SOL    HW199678  11.338  12.029   0.427
65927SOL    HW299679  11.344  11.908   0.516
65928SOL     OW99680  10.780   2.810   7.053
65928SOL    HW199681  10.695   2.832   7.016
65928SOL    HW299682  10.843   2.844   6.989
65929SOL     OW99683  12.788   1.755   4.508
65929SOL    HW199684  12.694   1.739   4.502
65929SOL    HW299685  12.824   1.713   4.430
65930SOL     OW99686   6.517   1.540   3.598
65930SOL    HW199687   6.533   1.447   3.612
65930SOL    HW299688   6.461   1.566   3.671
65931SOL     OW99689  13.114   3.670   6.567
65931SOL    HW199690  13.076   3.680   6.655
65931SOL    HW299691  13.206   3.693   6.578
65932SOL     OW99692   1.034  14.687  10.852
65932SOL    HW199693   1.010  14.633  10.777
65932SOL    HW299694   1.110  14.737  10.822
65933SOL     OW99695   9.030   3.709  11.768
65933SOL    HW199696   9.019   3.614  11.766
65933SOL    HW299697   8.992   3.735  11.851
65934SOL     OW99698   5.002   3.534  13.561
65934SOL    HW199699   4.988   3.540  13.467
65934SOL    HW299700   5.077   3.590  13.578
65935SOL     OW99701   6.527   7.897   0.764
65935SOL    HW199702   6.530   7.992   0.773
65935SOL    HW299703   6.607   7.876   0.716
65936SOL     OW99704   2.261   2.322   4.749
65936SOL    HW199705   2.290   2.408   4.718
65936SOL    HW299706   2.166   2.321   4.731
65937SOL     OW99707   2.109   7.229   1.128
65937SOL    HW199708   2.109   7.140   1.163
65937SOL    HW299709   2.102   7.217   1.033
65938SOL     OW99710  10.842  12.445   7.871
65938SOL    HW199711  10.840  12.420   7.964
65938SOL    HW299712  10.917  12.504   7.864
65939SOL     OW99713  10.611   7.684   8.577
65939SOL    HW199714  10.563   7.699   8.658
65939SOL    HW299715  10.543   7.681   8.509
65940SOL     OW99716  13.469  14.685   3.438
65940SOL    HW199717  13.509  14.710   3.355
65940SOL    HW299718  13.444  14.593   3.428
65941SOL     OW99719  10.302  11.617   4.367
65941SOL    HW199720  10.392  11.629   4.336
65941SOL    HW299721  10.290  11.686   4.432
65942SOL     OW99722   0.265  10.892   3.359
65942SOL    HW199723   0.184  10.880   3.309
65942SOL    HW299724   0.278  10.987   3.360
65943SOL     OW99725   0.981   9.246   3.671
65943SOL    HW199726   1.063   9.219   3.629
65943SOL    HW299727   0.928   9.166   3.672
65944SOL     OW99728   8.757   5.341  11.465
65944SOL    HW199729   8.768   5.397  11.388
65944SOL    HW299730   8.821   5.270  11.452
65945SOL     OW99731   1.724  13.426   4.693
65945SOL    HW199732   1.713  13.444   4.786
65945SOL    HW299733   1.668  13.490   4.649
65946SOL     OW99734  14.420  12.591  10.289
65946SOL    HW199735  14.441  12.638  10.209
65946SOL    HW299736  14.400  12.660  10.353
65947SOL     OW99737   5.471   6.818   0.800
65947SOL    HW199738   5.564   6.837   0.814
65947SOL    HW299739   5.431   6.828   0.886
65948SOL     OW99740   8.899   7.886   5.621
65948SOL    HW199741   8.982   7.931   5.604
65948SOL    HW299742   8.925   7.805   5.665
65949SOL     OW99743   3.063   5.447   6.473
65949SOL    HW199744   3.040   5.446   6.380
65949SOL    HW299745   3.007   5.515   6.511
65950SOL     OW99746  11.918   6.566   7.458
65950SOL    HW199747  11.879   6.540   7.375
65950SOL    HW299748  11.981   6.635   7.435
65951SOL     OW99749  10.047  13.358  14.504
65951SOL    HW199750  10.055  13.279  14.450
65951SOL    HW299751   9.960  13.393  14.483
65952SOL     OW99752   9.209  10.796   9.796
65952SOL    HW199753   9.255  10.712   9.805
65952SOL    HW299754   9.275  10.861   9.821
65953SOL     OW99755  11.946  11.156  12.190
65953SOL    HW199756  11.915  11.091  12.253
65953SOL    HW299757  11.951  11.238  12.240
65954SOL     OW99758   7.463  14.734   6.534
65954SOL    HW199759   7.394  14.753   6.598
65954SOL    HW299760   7.489  14.819   6.500
65955SOL     OW99761  10.000  13.835   4.565
65955SOL    HW199762  10.038  13.923   4.567
65955SOL    HW299763   9.930  13.838   4.630
65956SOL     OW99764   1.409   7.658   3.782
65956SOL    HW199765   1.448   7.598   3.844
65956SOL    HW299766   1.321   7.674   3.816
65957SOL     OW99767  10.028   2.448   0.428
65957SOL    HW199768  10.030   2.414   0.518
65957SOL    HW299769  10.113   2.488   0.416
65958SOL     OW99770   0.906  11.251   7.748
65958SOL    HW199771   0.921  11.274   7.657
65958SOL    HW299772   0.987  11.275   7.793
65959SOL     OW99773   8.297   0.651   9.074
65959SOL    HW199774   8.310   0.722   9.011
65959SOL    HW299775   8.231   0.595   9.033
65960SOL     OW99776  14.242   7.816   2.528
65960SOL    HW199777  14.195   7.736   2.503
65960SOL    HW299778  14.182   7.861   2.588
65961SOL     OW99779   3.924   8.088  13.703
65961SOL    HW199780   3.971   8.047  13.776
65961SOL    HW299781   3.883   8.165  13.741
65962SOL     OW99782   0.641   8.332  12.048
65962SOL    HW199783   0.721   8.316  12.098
65962SOL    HW299784   0.581   8.264  12.077
65963SOL     OW99785  14.735   7.968   3.461
65963SOL    HW199786  14.750   7.968   3.366
65963SOL    HW299787  14.671   8.038   3.475
65964SOL     OW99788  10.116   2.655   8.704
65964SOL    HW199789  10.126   2.570   8.746
65964SOL    HW299790  10.197   2.667   8.653
65965SOL     OW99791   5.892  12.694   8.769
65965SOL    HW199792   5.851  12.611   8.796
65965SOL    HW299793   5.918  12.679   8.678
65966SOL     OW99794   5.518  11.160  14.867
65966SOL    HW199795   5.451  11.109   0.035
65966SOL    HW299796   5.524  11.242   0.039
65967SOL     OW99797   2.144   2.900  12.506
65967SOL    HW199798   2.178   2.970  12.561
65967SOL    HW299799   2.170   2.925  12.417
65968SOL     OW99800  12.650   5.134  11.166
65968SOL    HW199801  12.567   5.150  11.121
65968SOL    HW299802  12.716   5.138  11.097
65969SOL     OW99803   7.766   9.175   1.698
65969SOL    HW199804   7.760   9.088   1.739
65969SOL    HW299805   7.676   9.208   1.699
65970SOL     OW99806   3.996   8.684   3.747
65970SOL    HW199807   3.966   8.596   3.725
65970SOL    HW299808   3.917   8.730   3.776
65971SOL     OW99809   1.706   7.700   8.253
65971SOL    HW199810   1.709   7.723   8.346
65971SOL    HW299811   1.695   7.605   8.252
65972SOL     OW99812   7.596  13.159   6.765
65972SOL    HW199813   7.688  13.149   6.738
65972SOL    HW299814   7.571  13.072   6.796
65973SOL     OW99815  10.944   6.502  13.663
65973SOL    HW199816  10.911   6.585  13.695
65973SOL    HW299817  10.997   6.467  13.735
65974SOL     OW99818   8.630   4.733   3.968
65974SOL    HW199819   8.556   4.691   4.011
65974SOL    HW299820   8.700   4.667   3.971
65975SOL     OW99821   5.037   2.396   6.094
65975SOL    HW199822   5.059   2.405   6.001
65975SOL    HW299823   5.016   2.303   6.104
65976SOL     OW99824   6.356   4.464   6.806
65976SOL    HW199825   6.396   4.378   6.821
65976SOL    HW299826   6.384   4.516   6.882
65977SOL     OW99827  10.136   1.004  13.880
65977SOL    HW199828  10.206   1.003  13.815
65977SOL    HW299829  10.088   1.085  13.864
65978SOL     OW99830   8.842  13.500  11.963
65978SOL    HW199831   8.783  13.439  12.007
65978SOL    HW299832   8.787  13.574  11.939
65979SOL     OW99833   7.039  12.192  14.780
65979SOL    HW199834   7.080  12.106  14.786
65979SOL    HW299835   6.950  12.177  14.812
65980SOL     OW99836   0.712  14.336   4.972
65980SOL    HW199837   0.658  14.274   4.922
65980SOL    HW299838   0.763  14.280   5.031
65981SOL     OW99839  10.081  12.483   5.400
65981SOL    HW199840  10.043  12.518   5.481
65981SOL    HW299841  10.035  12.401   5.386
65982SOL     OW99842   2.304   7.110   7.316
65982SOL    HW199843   2.302   7.106   7.411
65982SOL    HW299844   2.340   7.026   7.289
65983SOL     OW99845   8.287   4.312   0.015
65983SOL    HW199846   8.222   4.357   0.070
65983SOL    HW299847   8.266   4.219   0.026
65984SOL     OW99848   9.530   4.507   9.633
65984SOL    HW199849   9.539   4.418   9.666
65984SOL    HW299850   9.620   4.537   9.618
65985SOL     OW99851  11.670  11.026   8.997
65985SOL    HW199852  11.702  10.940   9.023
65985SOL    HW299853  11.615  11.054   9.069
65986SOL     OW99854  11.069  10.767  13.905
65986SOL    HW199855  11.051  10.696  13.966
65986SOL    HW299856  11.000  10.758  13.838
65987SOL     OW99857   2.419   4.826   8.984
65987SOL    HW199858   2.488   4.762   9.001
65987SOL    HW299859   2.416   4.880   9.063
65988SOL     OW99860  11.871   6.845   4.241
65988SOL    HW199861  11.930   6.829   4.167
65988SOL    HW299862  11.850   6.938   4.236
65989SOL     OW99863   3.278   7.250   5.890
65989SOL    HW199864   3.261   7.176   5.949
65989SOL    HW299865   3.373   7.257   5.888
65990SOL     OW99866  12.366   0.549   3.296
65990SOL    HW199867  12.293   0.610   3.283
65990SOL    HW299868  12.330   0.478   3.349
65991SOL     OW99869   7.349   5.525   6.246
65991SOL    HW199870   7.387   5.555   6.328
65991SOL    HW299871   7.424   5.509   6.189
65992SOL     OW99872  11.785   7.128  10.785
65992SOL    HW199873  11.772   7.167  10.698
65992SOL    HW299874  11.701   7.139  10.829
65993SOL     OW99875   7.376  11.578   7.906
65993SOL    HW199876   7.452  11.571   7.964
65993SOL    HW299877   7.327  11.497   7.920
65994SOL     OW99878  11.873  11.865  12.234
65994SOL    HW199879  11.820  11.896  12.307
65994SOL    HW299880  11.879  11.771  12.247
65995SOL     OW99881   2.857   9.624   7.131
65995SOL    HW199882   2.927   9.650   7.191
65995SOL    HW299883   2.903   9.603   7.049
65996SOL     OW99884   5.669  10.313   7.429
65996SOL    HW199885   5.579  10.284   7.414
65996SOL    HW299886   5.723  10.243   7.392
65997SOL     OW99887  13.773   5.612  10.618
65997SOL    HW199888  13.780   5.643  10.528
65997SOL    HW299889  13.679   5.610  10.636
65998SOL     OW99890  11.401  12.562  13.058
65998SOL    HW199891  11.436  12.571  13.147
65998SOL    HW299892  11.352  12.480  13.060
65999SOL     OW99893   2.683  14.715   9.241
65999SOL    HW199894   2.590  14.695   9.231
65999SOL    HW299895   2.700  14.784   9.177
66000SOL     OW99896  10.089   9.063   5.017
66000SOL    HW199897  10.103   9.129   5.084
66000SOL    HW299898   9.996   9.040   5.024
66001SOL     OW99899   2.191   6.391  10.276
66001SOL    HW199900   2.223   6.303  10.255
66001SOL    HW299901   2.097   6.379  10.291
66002SOL     OW99902  11.367   5.664   2.070
66002SOL    HW199903  11.373   5.675   2.165
66002SOL    HW299904  11.457   5.650   2.042
66003SOL     OW99905   9.781   1.047   1.335
66003SOL    HW199906   9.731   1.084   1.262
66003SOL    HW299907   9.864   1.095   1.334
66004SOL     OW99908   6.192  12.242  12.468
66004SOL    HW199909   6.154  12.209  12.386
66004SOL    HW299910   6.159  12.182  12.535
66005SOL     OW99911   7.521   3.792  12.465
66005SOL    HW199912   7.536   3.842  12.385
66005SOL    HW299913   7.529   3.856  12.536
66006SOL     OW99914   5.315   3.388   5.505
66006SOL    HW199915   5.243   3.450   5.521
66006SOL    HW299916   5.294   3.313   5.560
66007SOL     OW99917   8.650   1.987   1.624
66007SOL    HW199918   8.688   1.910   1.664
66007SOL    HW299919   8.582   1.953   1.565
66008SOL     OW99920  13.179   7.670   5.738
66008SOL    HW199921  13.272   7.691   5.735
66008SOL    HW299922  13.164   7.616   5.660
66009SOL     OW99923   0.976   1.287   7.892
66009SOL    HW199924   0.899   1.343   7.905
66009SOL    HW299925   0.972   1.224   7.963
66010SOL     OW99926   6.244  12.634   3.744
66010SOL    HW199927   6.185  12.594   3.679
66010SOL    HW299928   6.191  12.703   3.784
66011SOL     OW99929   8.305   5.123   6.936
66011SOL    HW199930   8.298   5.038   6.980
66011SOL    HW299931   8.397   5.147   6.945
66012SOL     OW99932   7.114   1.546   2.082
66012SOL    HW199933   7.153   1.623   2.123
66012SOL    HW299934   7.067   1.581   2.006
66013SOL     OW99935  13.902   1.763   4.024
66013SOL    HW199936  13.887   1.803   3.938
66013SOL    HW299937  13.883   1.832   4.087
66014SOL     OW99938  14.320  13.365   7.446
66014SOL    HW199939  14.280  13.423   7.511
66014SOL    HW299940  14.379  13.422   7.396
66015SOL     OW99941  11.306  10.964  10.930
66015SOL    HW199942  11.256  11.021  10.871
66015SOL    HW299943  11.372  11.021  10.969
66016SOL     OW99944   5.654  10.764   2.774
66016SOL    HW199945   5.651  10.756   2.679
66016SOL    HW299946   5.607  10.687   2.807
66017SOL     OW99947  14.792   0.078   0.474
66017SOL    HW199948  14.730   0.009   0.450
66017SOL    HW299949  14.827   0.050   0.559
66018SOL     OW99950  14.705   5.128  10.345
66018SOL    HW199951  14.647   5.079  10.286
66018SOL    HW299952  14.757   5.060  10.389
66019SOL     OW99953   4.339   4.081  11.003
66019SOL    HW199954   4.431   4.097  10.985
66019SOL    HW299955   4.303   4.168  11.024
66020SOL     OW99956  13.356   6.980   7.575
66020SOL    HW199957  13.350   6.907   7.637
66020SOL    HW299958  13.440   7.022   7.595
66021SOL     OW99959  10.694  14.143  10.695
66021SOL    HW199960  10.618  14.185  10.655
66021SOL    HW299961  10.672  14.049  10.696
66022SOL     OW99962   0.751  13.600   5.122
66022SOL    HW199963   0.802  13.681   5.122
66022SOL    HW299964   0.724  13.589   5.031
66023SOL     OW99965  10.643   9.571   2.348
66023SOL    HW199966  10.644   9.657   2.305
66023SOL    HW299967  10.716   9.524   2.307
66024SOL     OW99968   8.018  12.747   2.209
66024SOL    HW199969   8.056  12.674   2.161
66024SOL    HW299970   8.092  12.796   2.243
66025SOL     OW99971   8.188  12.820  12.596
66025SOL    HW199972   8.127  12.857  12.532
66025SOL    HW299973   8.263  12.879  12.596
66026SOL     OW99974  14.536   7.553   8.236
66026SOL    HW199975  14.476   7.548   8.310
66026SOL    HW299976  14.481   7.534   8.160
66027SOL     OW99977   5.579   8.039  13.218
66027SOL    HW199978   5.674   8.041  13.208
66027SOL    HW299979   5.548   7.995  13.139
66028SOL     OW99980   8.253   0.395  12.101
66028SOL    HW199981   8.285   0.483  12.081
66028SOL    HW299982   8.291   0.374  12.186
66029SOL     OW99983  14.020  12.673  13.600
66029SOL    HW199984  13.936  12.630  13.583
66029SOL    HW299985  14.014  12.701  13.691
66030SOL     OW99986   1.105   8.923   8.560
66030SOL    HW199987   1.179   8.880   8.603
66030SOL    HW299988   1.093   8.875   8.479
66031SOL     OW99989   3.332   8.372   5.603
66031SOL    HW199990   3.391   8.416   5.664
66031SOL    HW299991   3.247   8.374   5.647
66032SOL     OW99992   8.407  13.916   1.477
66032SOL    HW199993   8.398  13.853   1.406
66032SOL    HW299994   8.317  13.934   1.504
66033SOL     OW99995   2.920   9.947   7.457
66033SOL    HW199996   2.830   9.941   7.487
66033SOL    HW299997   2.965   9.873   7.498
66034SOL     OW99998   6.416   4.447   8.721
66034SOL    HW199999   6.415   4.460   8.626
66034SOL    HW2    0   6.457   4.525   8.757
66035SOL     OW    1   9.046   8.026   3.155
66035SOL    HW1    2   9.063   8.038   3.248
66035SOL    HW2    3   8.996   7.944   3.150
66036SOL     OW    4  12.354   9.772   2.266
66036SOL    HW1    5  12.265   9.777   2.301
66036SOL    HW2    6  12.400   9.711   2.325
66037SOL     OW    7  10.344  10.594  10.095
66037SOL    HW1    8  10.286  10.667  10.111
66037SOL    HW2    9  10.308  10.522  10.147
66038SOL     OW   10   8.546   5.784   9.787
66038SOL    HW1   11   8.545   5.873   9.822
66038SOL    HW2   12   8.614   5.786   9.719
66039SOL     OW   13  10.989  12.610  11.999
66039SOL    HW1   14  11.015  12.527  11.960
66039SOL    HW2   15  11.071  12.655  12.017
66040SOL     OW   16  13.306   1.870  12.867
66040SOL    HW1   17  13.228   1.819  12.844
66040SOL    HW2   18  13.321   1.926  12.791
66041SOL     OW   19   8.339   0.215   2.177
66041SOL    HW1   20   8.302   0.298   2.206
66041SOL    HW2   21   8.282   0.186   2.106
66042SOL     OW   22  11.815   5.141   1.051
66042SOL    HW1   23  11.880   5.183   1.106
66042SOL    HW2   24  11.865   5.101   0.980
66043SOL     OW   25   2.275   1.440  12.646
66043SOL    HW1   26   2.344   1.438  12.580
66043SOL    HW2   27   2.227   1.521  12.628
66044SOL     OW   28   7.925   1.495   6.212
66044SOL    HW1   29   7.963   1.534   6.133
66044SOL    HW2   30   7.858   1.436   6.179
66045SOL     OW   31  11.149   2.740   0.439
66045SOL    HW1   32  11.192   2.714   0.358
66045SOL    HW2   33  11.100   2.819   0.417
66046SOL     OW   34   1.812   6.066   9.032
66046SOL    HW1   35   1.780   5.982   8.999
66046SOL    HW2   36   1.800   6.060   9.127
66047SOL     OW   37   3.577   1.136   2.804
66047SOL    HW1   38   3.671   1.120   2.799
66047SOL    HW2   39   3.569   1.230   2.819
66048SOL     OW   40   6.311   8.440   1.820
66048SOL    HW1   41   6.383   8.383   1.793
66048SOL    HW2   42   6.353   8.517   1.857
66049SOL     OW   43  13.032   4.068   1.865
66049SOL    HW1   44  13.104   4.060   1.802
66049SOL    HW2   45  13.072   4.046   1.949
66050SOL     OW   46   0.393   0.785   6.048
66050SOL    HW1   47   0.420   0.756   6.135
66050SOL    HW2   48   0.306   0.747   6.036
66051SOL     OW   49   0.614  13.078  14.433
66051SOL    HW1   50   0.616  13.174  14.431
66051SOL    HW2   51   0.534  13.056  14.481
66052SOL     OW   52   4.165  11.690  14.040
66052SOL    HW1   53   4.219  11.721  14.113
66052SOL    HW2   54   4.214  11.616  14.003
66053SOL     OW   55  11.757   0.129  12.944
66053SOL    HW1   56  11.721   0.146  13.031
66053SOL    HW2   57  11.768   0.034  12.940
66054SOL     OW   58  12.031   2.677   6.724
66054SOL    HW1   59  12.065   2.612   6.786
66054SOL    HW2   60  12.091   2.751   6.732
66055SOL     OW   61  13.345   4.469  13.053
66055SOL    HW1   62  13.301   4.389  13.026
66055SOL    HW2   63  13.391   4.445  13.133
66056SOL     OW   64   3.010   4.893   0.595
66056SOL    HW1   65   3.036   4.855   0.511
66056SOL    HW2   66   2.962   4.972   0.572
66057SOL     OW   67  10.540   6.372   1.276
66057SOL    HW1   68  10.591   6.292   1.268
66057SOL    HW2   69  10.578   6.417   1.351
66058SOL     OW   70   8.114   1.743   0.029
66058SOL    HW1   71   8.111   1.664  14.852
66058SOL    HW2   72   8.202   1.743   0.065
66059SOL     OW   73   0.700   0.530   3.538
66059SOL    HW1   74   0.668   0.574   3.458
66059SOL    HW2   75   0.677   0.438   3.525
66060SOL     OW   76  12.423   8.348   8.963
66060SOL    HW1   77  12.423   8.279   8.897
66060SOL    HW2   78  12.439   8.303   9.046
66061SOL     OW   79   9.632   2.039   9.576
66061SOL    HW1   80   9.663   2.036   9.485
66061SOL    HW2   81   9.712   2.045   9.628
66062SOL     OW   82  12.041   6.872  11.606
66062SOL    HW1   83  12.030   6.780  11.580
66062SOL    HW2   84  12.126   6.875  11.649
66063SOL     OW   85   9.269  13.901  12.506
66063SOL    HW1   86   9.211  13.848  12.451
66063SOL    HW2   87   9.352  13.854  12.505
66064SOL     OW   88   3.208   6.575   8.819
66064SOL    HW1   89   3.265   6.608   8.888
66064SOL    HW2   90   3.178   6.653   8.773
66065SOL     OW   91   1.448  11.825   0.921
66065SOL    HW1   92   1.370  11.870   0.889
66065SOL    HW2   93   1.416  11.768   0.991
66066SOL     OW   94  10.905   1.076  12.533
66066SOL    HW1   95  10.885   1.004  12.473
66066SOL    HW2   96  10.914   1.153  12.477
66067SOL     OW   97   0.018   5.850   4.127
66067SOL    HW1   98   0.063   5.919   4.077
66067SOL    HW2   99   0.047   5.863   4.217
66068SOL     OW  100  13.535   2.096   4.894
66068SOL    HW1  101  13.495   2.133   4.972
66068SOL    HW2  102  13.625   2.075   4.921
66069SOL     OW  103  12.792   8.076   7.500
66069SOL    HW1  104  12.877   8.045   7.469
66069SOL    HW2  105  12.769   8.016   7.572
66070SOL     OW  106  12.301   8.580   5.760
66070SOL    HW1  107  12.330   8.589   5.669
66070SOL    HW2  108  12.270   8.490   5.767
66071SOL     OW  109   2.670  12.497  10.005
66071SOL    HW1  110   2.746  12.551   9.984
66071SOL    HW2  111   2.673  12.425   9.942
66072SOL     OW  112  13.816   1.949  13.107
66072SOL    HW1  113  13.875   1.946  13.183
66072SOL    HW2  114  13.846   2.024  13.056
66073SOL     OW  115   9.812  11.982   2.181
66073SOL    HW1  116   9.871  11.936   2.241
66073SOL    HW2  117   9.865  12.000   2.104
66074SOL     OW  118   2.090   8.501   4.962
66074SOL    HW1  119   2.048   8.446   5.028
66074SOL    HW2  120   2.152   8.554   5.013
66075SOL     OW  121  12.775   2.263   6.033
66075SOL    HW1  122  12.827   2.339   6.058
66075SOL    HW2  123  12.687   2.281   6.066
66076SOL     OW  124  12.882   3.670  10.770
66076SOL    HW1  125  12.870   3.683  10.864
66076SOL    HW2  126  12.799   3.630  10.741
66077SOL     OW  127  14.810  10.899   1.161
66077SOL    HW1  128  14.874  10.960   1.198
66077SOL    HW2  129  14.725  10.936   1.184
66078SOL     OW  130  12.011  14.565   9.932
66078SOL    HW1  131  11.972  14.479   9.947
66078SOL    HW2  132  11.940  14.627   9.950
66079SOL     OW  133   8.890  11.014   1.513
66079SOL    HW1  134   8.893  11.108   1.498
66079SOL    HW2  135   8.952  10.999   1.584
66080SOL     OW  136  13.237   0.707   8.615
66080SOL    HW1  137  13.328   0.682   8.599
66080SOL    HW2  138  13.195   0.625   8.643
66081SOL     OW  139   5.292   0.523   7.263
66081SOL    HW1  140   5.372   0.533   7.211
66081SOL    HW2  141   5.284   0.428   7.276
66082SOL     OW  142   7.785   1.824   4.624
66082SOL    HW1  143   7.723   1.847   4.554
66082SOL    HW2  144   7.853   1.891   4.619
66083SOL     OW  145   6.377   8.908   1.998
66083SOL    HW1  146   6.315   8.864   2.055
66083SOL    HW2  147   6.375   8.999   2.025
66084SOL     OW  148  12.871   0.651  14.736
66084SOL    HW1  149  12.945   0.634  14.795
66084SOL    HW2  150  12.909   0.650  14.649
66085SOL     OW  151  10.401   2.442  14.255
66085SOL    HW1  152  10.451   2.454  14.175
66085SOL    HW2  153  10.461   2.396  14.314
66086SOL     OW  154  12.637   3.585  10.018
66086SOL    HW1  155  12.724   3.559   9.988
66086SOL    HW2  156  12.627   3.544  10.104
66087SOL     OW  157   6.677  11.192  11.893
66087SOL    HW1  158   6.666  11.097  11.898
66087SOL    HW2  159   6.695  11.208  11.800
66088SOL     OW  160   4.452   9.958   6.375
66088SOL    HW1  161   4.520  10.017   6.407
66088SOL    HW2  162   4.500   9.883   6.339
66089SOL     OW  163   3.209  11.450   0.709
66089SOL    HW1  164   3.274  11.389   0.744
66089SOL    HW2  165   3.139  11.393   0.677
66090SOL     OW  166  14.335  11.110  12.628
66090SOL    HW1  167  14.351  11.196  12.588
66090SOL    HW2  168  14.254  11.080  12.588
66091SOL     OW  169  10.733   3.174   8.612
66091SOL    HW1  170  10.722   3.134   8.698
66091SOL    HW2  171  10.826   3.198   8.609
66092SOL     OW  172   2.955   5.740  13.520
66092SOL    HW1  173   3.031   5.795  13.541
66092SOL    HW2  174   2.946   5.746  13.425
66093SOL     OW  175   7.663   5.307  10.969
66093SOL    HW1  176   7.719   5.384  10.962
66093SOL    HW2  177   7.599   5.316  10.898
66094SOL     OW  178   8.118  10.240   6.117
66094SOL    HW1  179   8.147  10.319   6.161
66094SOL    HW2  180   8.182  10.174   6.141
66095SOL     OW  181   4.965   1.621   7.631
66095SOL    HW1  182   5.033   1.680   7.598
66095SOL    HW2  183   4.941   1.657   7.716
66096SOL     OW  184   1.315   1.890   5.158
66096SOL    HW1  185   1.322   1.808   5.208
66096SOL    HW2  186   1.396   1.894   5.107
66097SOL     OW  187   9.091   7.387   0.905
66097SOL    HW1  188   9.035   7.309   0.903
66097SOL    HW2  189   9.172   7.357   0.946
66098SOL     OW  190   2.199   9.196   2.908
66098SOL    HW1  191   2.217   9.157   2.993
66098SOL    HW2  192   2.280   9.185   2.858
66099SOL     OW  193  10.081  12.405   9.780
66099SOL    HW1  194  10.058  12.442   9.866
66099SOL    HW2  195  10.011  12.434   9.722
66100SOL     OW  196  11.105   9.692   3.089
66100SOL    HW1  197  11.061   9.720   3.010
66100SOL    HW2  198  11.037   9.653   3.143
66101SOL     OW  199   9.456  12.952  14.740
66101SOL    HW1  200   9.457  12.857  14.728
66101SOL    HW2  201   9.520  12.968  14.809
66102SOL     OW  202   1.985   1.848  12.584
66102SOL    HW1  203   2.035   1.859  12.665
66102SOL    HW2  204   1.918   1.916  12.588
66103SOL     OW  205   3.042   9.372   2.520
66103SOL    HW1  206   3.064   9.456   2.560
66103SOL    HW2  207   3.089   9.372   2.437
66104SOL     OW  208  11.524   9.633   8.828
66104SOL    HW1  209  11.460   9.678   8.884
66104SOL    HW2  210  11.472   9.569   8.780
66105SOL     OW  211   9.365   1.886   3.164
66105SOL    HW1  212   9.319   1.896   3.080
66105SOL    HW2  213   9.329   1.805   3.202
66106SOL     OW  214   2.168  11.312  12.657
66106SOL    HW1  215   2.130  11.400  12.656
66106SOL    HW2  216   2.114  11.262  12.595
66107SOL     OW  217   3.731   1.590   9.410
66107SOL    HW1  218   3.737   1.504   9.451
66107SOL    HW2  219   3.658   1.583   9.348
66108SOL     OW  220  12.383  10.573  11.994
66108SOL    HW1  221  12.414  10.645  12.049
66108SOL    HW2  222  12.299  10.604  11.959
66109SOL     OW  223   2.104   0.981   4.005
66109SOL    HW1  224   2.073   1.027   3.927
66109SOL    HW2  225   2.199   0.988   4.002
66110SOL     OW  226   2.871  12.918   4.137
66110SOL    HW1  227   2.914  12.916   4.222
66110SOL    HW2  228   2.834  13.006   4.130
66111SOL     OW  229   9.225   1.077   5.222
66111SOL    HW1  230   9.158   1.145   5.220
66111SOL    HW2  231   9.299   1.115   5.174
66112SOL     OW  232  10.171  12.108   7.797
66112SOL    HW1  233  10.184  12.062   7.714
66112SOL    HW2  234  10.196  12.198   7.779
66113SOL     OW  235   8.839  10.645   0.078
66113SOL    HW1  236   8.818  10.552   0.092
66113SOL    HW2  237   8.879  10.673   0.160
66114SOL     OW  238  10.849   9.326  13.430
66114SOL    HW1  239  10.885   9.411  13.454
66114SOL    HW2  240  10.925   9.268  13.427
66115SOL     OW  241  11.311   3.076   8.042
66115SOL    HW1  242  11.365   3.006   8.005
66115SOL    HW2  243  11.369   3.152   8.046
66116SOL     OW  244   0.961  14.595  12.219
66116SOL    HW1  245   0.944  14.501  12.219
66116SOL    HW2  246   0.920  14.628  12.139
66117SOL     OW  247  13.442   6.704   0.890
66117SOL    HW1  248  13.439   6.766   0.963
66117SOL    HW2  249  13.427   6.619   0.930
66118SOL     OW  250   6.274  13.944  11.677
66118SOL    HW1  251   6.305  13.964  11.589
66118SOL    HW2  252   6.193  13.894  11.664
66119SOL     OW  253  10.195   2.326   9.551
66119SOL    HW1  254  10.127   2.352   9.612
66119SOL    HW2  255  10.148   2.291   9.475
66120SOL     OW  256  12.809   0.768  14.170
66120SOL    HW1  257  12.797   0.704  14.100
66120SOL    HW2  258  12.871   0.831  14.134
66121SOL     OW  259   7.471  12.383   7.076
66121SOL    HW1  260   7.484  12.454   7.139
66121SOL    HW2  261   7.390  12.341   7.104
66122SOL     OW  262   7.269  12.240   2.811
66122SOL    HW1  263   7.272  12.279   2.899
66122SOL    HW2  264   7.357  12.205   2.797
66123SOL     OW  265   6.789   3.254  14.472
66123SOL    HW1  266   6.714   3.312  14.485
66123SOL    HW2  267   6.847   3.273  14.546
66124SOL     OW  268  10.844  13.820  11.624
66124SOL    HW1  269  10.878  13.902  11.658
66124SOL    HW2  270  10.750  13.835  11.614
66125SOL     OW  271   3.864   2.130   7.834
66125SOL    HW1  272   3.958   2.131   7.855
66125SOL    HW2  273   3.827   2.199   7.888
66126SOL     OW  274   8.909   5.661   0.543
66126SOL    HW1  275   8.892   5.577   0.586
66126SOL    HW2  276   8.994   5.689   0.580
66127SOL     OW  277  14.752   7.787  13.393
66127SOL    HW1  278  14.676   7.742  13.430
66127SOL    HW2  279  14.784   7.727  13.326
66128SOL     OW  280   0.646   2.420   5.474
66128SOL    HW1  281   0.637   2.505   5.516
66128SOL    HW2  282   0.575   2.417   5.410
66129SOL     OW  283   7.004  11.548  14.376
66129SOL    HW1  284   7.067  11.477  14.364
66129SOL    HW2  285   7.008  11.597  14.294
66130SOL     OW  286  14.513   2.240  11.268
66130SOL    HW1  287  14.461   2.309  11.227
66130SOL    HW2  288  14.453   2.198  11.329
66131SOL     OW  289   9.114   1.963   0.341
66131SOL    HW1  290   9.119   1.976   0.246
66131SOL    HW2  291   9.062   2.036   0.373
66132SOL     OW  292  13.789  11.807  12.966
66132SOL    HW1  293  13.860  11.871  12.961
66132SOL    HW2  294  13.793  11.773  13.055
66133SOL     OW  295  10.846   8.802  12.459
66133SOL    HW1  296  10.924   8.773  12.412
66133SOL    HW2  297  10.773   8.755  12.417
66134SOL     OW  298  11.919   0.834  10.478
66134SOL    HW1  299  11.864   0.911  10.465
66134SOL    HW2  300  12.007   0.870  10.489
66135SOL     OW  301  13.777  13.509   5.339
66135SOL    HW1  302  13.739  13.574   5.280
66135SOL    HW2  303  13.708  13.493   5.404
66136SOL     OW  304   2.593   5.869   8.085
66136SOL    HW1  305   2.608   5.939   8.021
66136SOL    HW2  306   2.680   5.838   8.109
66137SOL     OW  307   4.730  14.247   6.958
66137SOL    HW1  308   4.651  14.244   7.012
66137SOL    HW2  309   4.701  14.286   6.876
66138SOL     OW  310  11.042   1.130   9.942
66138SOL    HW1  311  11.110   1.195   9.928
66138SOL    HW2  312  10.962   1.170   9.908
66139SOL     OW  313   6.394   3.134  12.113
66139SOL    HW1  314   6.451   3.064  12.082
66139SOL    HW2  315   6.416   3.145  12.205
66140SOL     OW  316  14.451   2.284   6.502
66140SOL    HW1  317  14.520   2.268   6.439
66140SOL    HW2  318  14.460   2.213   6.566
66141SOL     OW  319   6.681   4.425   9.458
66141SOL    HW1  320   6.681   4.350   9.399
66141SOL    HW2  321   6.619   4.401   9.527
66142SOL     OW  322   2.444   8.562   7.157
66142SOL    HW1  323   2.538   8.569   7.175
66142SOL    HW2  324   2.402   8.606   7.231
66143SOL     OW  325   6.914  12.877  13.415
66143SOL    HW1  326   6.968  12.867  13.494
66143SOL    HW2  327   6.833  12.916  13.446
66144SOL     OW  328   6.134   1.401  14.149
66144SOL    HW1  329   6.092   1.338  14.207
66144SOL    HW2  330   6.203   1.441  14.202
66145SOL     OW  331  14.321   4.929   4.273
66145SOL    HW1  332  14.372   4.979   4.209
66145SOL    HW2  333  14.374   4.932   4.353
66146SOL     OW  334   7.233   0.033   6.240
66146SOL    HW1  335   7.222   0.062   6.150
66146SOL    HW2  336   7.279   0.105   6.283
66147SOL     OW  337   1.156  10.831  14.585
66147SOL    HW1  338   1.161  10.805  14.493
66147SOL    HW2  339   1.067  10.810  14.612
66148SOL     OW  340   2.926   2.656  14.579
66148SOL    HW1  341   2.931   2.742  14.537
66148SOL    HW2  342   3.016   2.635  14.603
66149SOL     OW  343   9.540   5.599  14.379
66149SOL    HW1  344   9.548   5.541  14.303
66149SOL    HW2  345   9.627   5.601  14.417
66150SOL     OW  346  13.722   5.011   4.762
66150SOL    HW1  347  13.653   5.063   4.803
66150SOL    HW2  348  13.675   4.938   4.721
66151SOL     OW  349   2.343   7.553   4.836
66151SOL    HW1  350   2.398   7.606   4.778
66151SOL    HW2  351   2.375   7.463   4.824
66152SOL     OW  352   2.075  12.520   5.658
66152SOL    HW1  353   1.984  12.543   5.640
66152SOL    HW2  354   2.126  12.587   5.613
66153SOL     OW  355   9.704  11.053   2.567
66153SOL    HW1  356   9.707  11.019   2.656
66153SOL    HW2  357   9.776  11.007   2.522
66154SOL     OW  358   2.821  14.406  12.300
66154SOL    HW1  359   2.748  14.468  12.295
66154SOL    HW2  360   2.812  14.353  12.221
66155SOL     OW  361  10.566   2.776  12.605
66155SOL    HW1  362  10.601   2.814  12.524
66155SOL    HW2  363  10.636   2.719  12.637
66156SOL     OW  364   4.739   6.251   9.676
66156SOL    HW1  365   4.686   6.327   9.697
66156SOL    HW2  366   4.729   6.193   9.752
66157SOL     OW  367   6.765   2.366   5.129
66157SOL    HW1  368   6.820   2.413   5.065
66157SOL    HW2  369   6.722   2.298   5.077
66158SOL     OW  370   4.169   2.452   6.665
66158SOL    HW1  371   4.185   2.516   6.734
66158SOL    HW2  372   4.090   2.406   6.692
66159SOL     OW  373  11.105  12.440  13.640
66159SOL    HW1  374  11.168  12.512  13.633
66159SOL    HW2  375  11.116  12.391  13.559
66160SOL     OW  376   2.901   6.657   7.514
66160SOL    HW1  377   2.964   6.588   7.494
66160SOL    HW2  378   2.821   6.611   7.537
66161SOL     OW  379  12.791   3.422   4.059
66161SOL    HW1  380  12.869   3.462   4.099
66161SOL    HW2  381  12.794   3.331   4.087
66162SOL     OW  382   7.755   1.120  14.131
66162SOL    HW1  383   7.833   1.154  14.175
66162SOL    HW2  384   7.756   1.163  14.045
66163SOL     OW  385   7.119  12.662   4.254
66163SOL    HW1  386   7.088  12.728   4.316
66163SOL    HW2  387   7.109  12.579   4.301
66164SOL     OW  388   5.988  14.416   8.341
66164SOL    HW1  389   6.060  14.354   8.326
66164SOL    HW2  390   5.911  14.371   8.308
66165SOL     OW  391   8.902  10.214   8.225
66165SOL    HW1  392   8.883  10.299   8.265
66165SOL    HW2  393   8.918  10.233   8.133
66166SOL     OW  394   3.485   3.806  13.489
66166SOL    HW1  395   3.451   3.870  13.551
66166SOL    HW2  396   3.457   3.839  13.403
66167SOL     OW  397   4.336   8.685  10.624
66167SOL    HW1  398   4.277   8.617  10.592
66167SOL    HW2  399   4.293   8.721  10.702
66168SOL     OW  400   7.395   8.713  11.755
66168SOL    HW1  401   7.347   8.631  11.741
66168SOL    HW2  402   7.486   8.691  11.736
66169SOL     OW  403  13.314   1.465   9.426
66169SOL    HW1  404  13.352   1.415   9.354
66169SOL    HW2  405  13.325   1.556   9.400
66170SOL     OW  406   0.081   0.835  13.859
66170SOL    HW1  407   0.053   0.780  13.932
66170SOL    HW2  408   0.108   0.773  13.791
66171SOL     OW  409   9.591   3.213   8.932
66171SOL    HW1  410   9.502   3.244   8.918
66171SOL    HW2  411   9.612   3.162   8.853
66172SOL     OW  412   4.613   9.288   2.641
66172SOL    HW1  413   4.589   9.238   2.563
66172SOL    HW2  414   4.676   9.352   2.609
66173SOL     OW  415   2.978   1.324   8.923
66173SOL    HW1  416   3.041   1.385   8.961
66173SOL    HW2  417   2.988   1.245   8.976
66174SOL     OW  418  13.011  14.103   6.585
66174SOL    HW1  419  13.080  14.168   6.575
66174SOL    HW2  420  13.045  14.025   6.541
66175SOL     OW  421   6.406   6.190   9.380
66175SOL    HW1  422   6.482   6.155   9.427
66175SOL    HW2  423   6.343   6.212   9.448
66176SOL     OW  424   4.431   0.325   3.988
66176SOL    HW1  425   4.474   0.401   3.948
66176SOL    HW2  426   4.341   0.329   3.957
66177SOL     OW  427  13.602   2.744   3.245
66177SOL    HW1  428  13.669   2.679   3.268
66177SOL    HW2  429  13.633   2.826   3.283
66178SOL     OW  430  10.598  10.608  10.173
66178SOL    HW1  431  10.616  10.701  10.157
66178SOL    HW2  432  10.505  10.598  10.157
66179SOL     OW  433   4.389   2.475   1.849
66179SOL    HW1  434   4.481   2.500   1.859
66179SOL    HW2  435   4.340   2.546   1.890
66180SOL     OW  436   7.944   1.621  11.855
66180SOL    HW1  437   7.905   1.537  11.878
66180SOL    HW2  438   8.021   1.628  11.911
66181SOL     OW  439   6.515   6.632  13.561
66181SOL    HW1  440   6.470   6.646  13.478
66181SOL    HW2  441   6.448   6.646  13.628
66182SOL     OW  442   9.949   1.772   1.722
66182SOL    HW1  443   9.987   1.815   1.800
66182SOL    HW2  444   9.928   1.845   1.663
66183SOL     OW  445  11.937   1.839   4.904
66183SOL    HW1  446  11.910   1.927   4.931
66183SOL    HW2  447  12.013   1.853   4.848
66184SOL     OW  448   4.155   3.435   4.964
66184SOL    HW1  449   4.169   3.383   4.885
66184SOL    HW2  450   4.172   3.375   5.037
66185SOL     OW  451   6.376   8.470   0.531
66185SOL    HW1  452   6.339   8.558   0.527
66185SOL    HW2  453   6.327   8.420   0.465
66186SOL     OW  454   6.222  13.502  14.768
66186SOL    HW1  455   6.312  13.469  14.764
66186SOL    HW2  456   6.205  13.535  14.680
66187SOL     OW  457   0.444  11.890  12.187
66187SOL    HW1  458   0.479  11.818  12.239
66187SOL    HW2  459   0.505  11.898  12.114
66188SOL     OW  460  12.487   8.946   4.918
66188SOL    HW1  461  12.492   9.024   4.863
66188SOL    HW2  462  12.559   8.955   4.980
66189SOL     OW  463   8.499  14.521  12.105
66189SOL    HW1  464   8.459  14.582  12.044
66189SOL    HW2  465   8.470  14.434  12.076
66190SOL     OW  466   3.513   6.483   2.042
66190SOL    HW1  467   3.437   6.455   2.094
66190SOL    HW2  468   3.481   6.485   1.952
66191SOL     OW  469  12.597   6.517  13.584
66191SOL    HW1  470  12.573   6.493  13.674
66191SOL    HW2  471  12.577   6.439  13.533
66192SOL     OW  472  13.300   2.307  14.750
66192SOL    HW1  473  13.211   2.309  14.783
66192SOL    HW2  474  13.310   2.220  14.712
66193SOL     OW  475   6.668   3.276   5.148
66193SOL    HW1  476   6.681   3.299   5.240
66193SOL    HW2  477   6.755   3.251   5.117
66194SOL     OW  478  13.816  11.711   5.023
66194SOL    HW1  479  13.875  11.767   4.972
66194SOL    HW2  480  13.790  11.642   4.962
66195SOL     OW  481  11.654   2.006  10.343
66195SOL    HW1  482  11.646   2.098  10.368
66195SOL    HW2  483  11.578   1.964  10.385
66196SOL     OW  484  12.907   1.962  12.957
66196SOL    HW1  485  12.835   2.024  12.969
66196SOL    HW2  486  12.870   1.878  12.984
66197SOL     OW  487  11.274   4.741   4.482
66197SOL    HW1  488  11.194   4.778   4.445
66197SOL    HW2  489  11.332   4.730   4.407
66198SOL     OW  490  12.731   9.639  14.138
66198SOL    HW1  491  12.718   9.596  14.222
66198SOL    HW2  492  12.740   9.732  14.159
66199SOL     OW  493   7.090  12.225   9.496
66199SOL    HW1  494   7.169  12.276   9.481
66199SOL    HW2  495   7.116  12.134   9.480
66200SOL     OW  496   6.281   8.144  12.617
66200SOL    HW1  497   6.321   8.063  12.587
66200SOL    HW2  498   6.189   8.136  12.594
66201SOL     OW  499   8.780   8.407   3.228
66201SOL    HW1  500   8.786   8.350   3.305
66201SOL    HW2  501   8.798   8.348   3.154
66202SOL     OW  502   8.155   6.064  13.391
66202SOL    HW1  503   8.243   6.041  13.421
66202SOL    HW2  504   8.124   5.986  13.344
66203SOL     OW  505   7.992   6.516  13.858
66203SOL    HW1  506   7.921   6.494  13.798
66203SOL    HW2  507   8.067   6.467  13.824
66204SOL     OW  508  13.237   8.974  13.271
66204SOL    HW1  509  13.272   9.016  13.193
66204SOL    HW2  510  13.253   9.037  13.342
66205SOL     OW  511   3.838  13.513   3.602
66205SOL    HW1  512   3.878  13.437   3.560
66205SOL    HW2  513   3.911  13.559   3.642
66206SOL     OW  514  10.584   0.382  11.654
66206SOL    HW1  515  10.668   0.406  11.614
66206SOL    HW2  516  10.566   0.453  11.716
66207SOL     OW  517   1.589  13.075  11.036
66207SOL    HW1  518   1.676  13.107  11.011
66207SOL    HW2  519   1.595  12.980  11.024
66208SOL     OW  520   4.222  14.498  10.123
66208SOL    HW1  521   4.251  14.432  10.186
66208SOL    HW2  522   4.206  14.577  10.175
66209SOL     OW  523  14.306   8.381   0.469
66209SOL    HW1  524  14.249   8.316   0.511
66209SOL    HW2  525  14.390   8.371   0.513
66210SOL     OW  526   5.102   1.577   8.968
66210SOL    HW1  527   5.044   1.639   8.924
66210SOL    HW2  528   5.043   1.524   9.022
66211SOL     OW  529   2.029   3.053   1.818
66211SOL    HW1  530   2.068   3.042   1.905
66211SOL    HW2  531   2.043   2.969   1.775
66212SOL     OW  532  14.676   9.792   1.706
66212SOL    HW1  533  14.627   9.860   1.752
66212SOL    HW2  534  14.640   9.710   1.736
66213SOL     OW  535   1.814   3.109   3.078
66213SOL    HW1  536   1.723   3.139   3.079
66213SOL    HW2  537   1.865   3.183   3.112
66214SOL     OW  538   2.927  13.980   3.278
66214SOL    HW1  539   2.950  13.893   3.246
66214SOL    HW2  540   2.938  14.038   3.202
66215SOL     OW  541  13.067   3.735   4.429
66215SOL    HW1  542  12.989   3.682   4.443
66215SOL    HW2  543  13.134   3.671   4.403
66216SOL     OW  544   7.047   7.898   1.590
66216SOL    HW1  545   7.139   7.874   1.580
66216SOL    HW2  546   7.048   7.990   1.616
66217SOL     OW  547  10.634   3.247   7.501
66217SOL    HW1  548  10.689   3.215   7.572
66217SOL    HW2  549  10.680   3.222   7.421
66218SOL     OW  550   1.202   2.224  12.682
66218SOL    HW1  551   1.260   2.273  12.623
66218SOL    HW2  552   1.221   2.132  12.662
66219SOL     OW  553   5.071   5.157   8.628
66219SOL    HW1  554   5.096   5.209   8.551
66219SOL    HW2  555   5.017   5.086   8.592
66220SOL     OW  556  12.784   2.739  11.129
66220SOL    HW1  557  12.862   2.765  11.080
66220SOL    HW2  558  12.771   2.647  11.106
66221SOL     OW  559   7.120   3.726   5.282
66221SOL    HW1  560   7.056   3.684   5.224
66221SOL    HW2  561   7.073   3.736   5.365
66222SOL     OW  562  14.285   5.762   7.472
66222SOL    HW1  563  14.220   5.693   7.486
66222SOL    HW2  564  14.368   5.724   7.502
66223SOL     OW  565  13.491   1.315   5.882
66223SOL    HW1  566  13.582   1.331   5.855
66223SOL    HW2  567  13.452   1.402   5.887
66224SOL     OW  568  14.338   6.180  11.560
66224SOL    HW1  569  14.426   6.202  11.531
66224SOL    HW2  570  14.344   6.180  11.656
66225SOL     OW  571   3.868   5.749  11.186
66225SOL    HW1  572   3.909   5.732  11.101
66225SOL    HW2  573   3.781   5.711  11.179
66226SOL     OW  574   2.144   1.734   5.046
66226SOL    HW1  575   2.191   1.705   4.968
66226SOL    HW2  576   2.201   1.801   5.084
66227SOL     OW  577   1.155   5.020   5.568
66227SOL    HW1  578   1.112   4.944   5.529
66227SOL    HW2  579   1.235   4.985   5.607
66228SOL     OW  580   0.109  14.772   7.647
66228SOL    HW1  581   0.201  14.788   7.629
66228SOL    HW2  582   0.063  14.848   7.610
66229SOL     OW  583   8.064   8.131   1.609
66229SOL    HW1  584   8.110   8.072   1.549
66229SOL    HW2  585   8.125   8.145   1.681
66230SOL     OW  586   0.221   1.173   1.519
66230SOL    HW1  587   0.245   1.209   1.604
66230SOL    HW2  588   0.126   1.161   1.523
66231SOL     OW  589   0.279   8.489   1.901
66231SOL    HW1  590   0.292   8.463   1.992
66231SOL    HW2  591   0.314   8.416   1.849
66232SOL     OW  592   5.776  10.741   6.848
66232SOL    HW1  593   5.862  10.783   6.856
66232SOL    HW2  594   5.775  10.675   6.916
66233SOL     OW  595  13.511   0.527  13.590
66233SOL    HW1  596  13.461   0.478  13.524
66233SOL    HW2  597  13.603   0.514  13.566
66234SOL     OW  598   1.750   0.399   4.210
66234SOL    HW1  599   1.821   0.420   4.149
66234SOL    HW2  600   1.671   0.413   4.159
66235SOL     OW  601   3.190  14.652  14.839
66235SOL    HW1  602   3.270  14.699  14.863
66235SOL    HW2  603   3.215  14.560  14.841
66236SOL     OW  604   6.274  10.814   8.682
66236SOL    HW1  605   6.206  10.748   8.688
66236SOL    HW2  606   6.319  10.811   8.767
66237SOL     OW  607  13.041   9.531  14.850
66237SOL    HW1  608  13.031   9.497   0.062
66237SOL    HW2  609  13.103   9.471  14.809
66238SOL     OW  610  13.460  11.730   6.385
66238SOL    HW1  611  13.493  11.641   6.373
66238SOL    HW2  612  13.444  11.762   6.296
66239SOL     OW  613   1.387   8.524   8.372
66239SOL    HW1  614   1.306   8.547   8.326
66239SOL    HW2  615   1.358   8.462   8.439
66240SOL     OW  616   0.798  10.628  13.383
66240SOL    HW1  617   0.827  10.616  13.293
66240SOL    HW2  618   0.847  10.704  13.414
66241SOL     OW  619  13.381   6.849   5.959
66241SOL    HW1  620  13.367   6.936   5.995
66241SOL    HW2  621  13.462   6.856   5.908
66242SOL     OW  622  10.926   7.842  12.681
66242SOL    HW1  623  10.872   7.819  12.757
66242SOL    HW2  624  10.871   7.824  12.606
66243SOL     OW  625   4.284   2.348   9.866
66243SOL    HW1  626   4.193   2.337   9.837
66243SOL    HW2  627   4.277   2.388   9.953
66244SOL     OW  628   1.615  11.880   3.459
66244SOL    HW1  629   1.525  11.908   3.478
66244SOL    HW2  630   1.657  11.958   3.422
66245SOL     OW  631   1.804   8.137   1.884
66245SOL    HW1  632   1.882   8.179   1.848
66245SOL    HW2  633   1.831   8.047   1.902
66246SOL     OW  634  12.095   5.200   9.840
66246SOL    HW1  635  12.156   5.135   9.875
66246SOL    HW2  636  12.112   5.279   9.892
66247SOL     OW  637  14.731   8.007  10.298
66247SOL    HW1  638  14.749   8.011  10.204
66247SOL    HW2  639  14.643   7.970  10.303
66248SOL     OW  640   4.211   4.061   7.947
66248SOL    HW1  641   4.128   4.053   7.900
66248SOL    HW2  642   4.250   3.974   7.942
66249SOL     OW  643  11.964   7.804  12.901
66249SOL    HW1  644  12.034   7.869  12.898
66249SOL    HW2  645  11.884   7.854  12.884
66250SOL     OW  646  10.917   8.246   3.288
66250SOL    HW1  647  10.952   8.166   3.328
66250SOL    HW2  648  10.988   8.310   3.296
66251SOL     OW  649  13.976  11.484   3.078
66251SOL    HW1  650  13.941  11.525   2.999
66251SOL    HW2  651  14.008  11.399   3.049
66252SOL     OW  652   0.295   4.663   1.433
66252SOL    HW1  653   0.230   4.695   1.372
66252SOL    HW2  654   0.368   4.635   1.377
66253SOL     OW  655   3.433  14.685  11.437
66253SOL    HW1  656   3.421  14.756  11.374
66253SOL    HW2  657   3.351  14.681  11.485
66254SOL     OW  658  13.286   9.649   9.012
66254SOL    HW1  659  13.285   9.710   9.085
66254SOL    HW2  660  13.344   9.689   8.947
66255SOL     OW  661   7.368   1.579  13.926
66255SOL    HW1  662   7.427   1.506  13.943
66255SOL    HW2  663   7.393   1.645  13.990
66256SOL     OW  664  13.223   7.088  13.669
66256SOL    HW1  665  13.312   7.058  13.684
66256SOL    HW2  666  13.168   7.018  13.706
66257SOL     OW  667   0.035   4.041   6.085
66257SOL    HW1  668   0.021   3.985   6.008
66257SOL    HW2  669  14.828   4.084   6.099
66258SOL     OW  670  12.778  11.908   4.170
66258SOL    HW1  671  12.826  11.866   4.098
66258SOL    HW2  672  12.739  11.835   4.218
66259SOL     OW  673   6.935  11.659   3.678
66259SOL    HW1  674   6.987  11.632   3.754
66259SOL    HW2  675   6.877  11.727   3.711
66260SOL     OW  676  10.583  10.363  12.365
66260SOL    HW1  677  10.498  10.341  12.402
66260SOL    HW2  678  10.643  10.360  12.439
66261SOL     OW  679  11.221   8.253   2.965
66261SOL    HW1  680  11.238   8.252   3.059
66261SOL    HW2  681  11.177   8.169   2.948
66262SOL     OW  682   5.066   0.939  13.120
66262SOL    HW1  683   5.144   0.968  13.073
66262SOL    HW2  684   5.055   0.847  13.094
66263SOL     OW  685  12.152   8.534   2.192
66263SOL    HW1  686  12.218   8.603   2.179
66263SOL    HW2  687  12.070   8.573   2.161
66264SOL     OW  688  10.795   9.547   2.927
66264SOL    HW1  689  10.864   9.519   2.987
66264SOL    HW2  690  10.738   9.471   2.920
66265SOL     OW  691   1.516   7.619  10.095
66265SOL    HW1  692   1.566   7.691  10.135
66265SOL    HW2  693   1.574   7.585  10.027
66266SOL     OW  694   5.521   7.306   0.573
66266SOL    HW1  695   5.559   7.347   0.495
66266SOL    HW2  696   5.593   7.304   0.636
66267SOL     OW  697  14.141  11.111   9.088
66267SOL    HW1  698  14.209  11.151   9.035
66267SOL    HW2  699  14.126  11.025   9.049
66268SOL     OW  700   9.572  11.593   1.736
66268SOL    HW1  701   9.592  11.679   1.698
66268SOL    HW2  702   9.480  11.598   1.760
66269SOL     OW  703   0.586   9.838   5.517
66269SOL    HW1  704   0.595   9.817   5.609
66269SOL    HW2  705   0.506   9.891   5.511
66270SOL     OW  706  13.185  14.693  12.351
66270SOL    HW1  707  13.152  14.717  12.265
66270SOL    HW2  708  13.112  14.708  12.410
66271SOL     OW  709   6.885  13.469   2.100
66271SOL    HW1  710   6.934  13.424   2.031
66271SOL    HW2  711   6.953  13.511   2.153
66272SOL     OW  712  10.929  13.318  10.912
66272SOL    HW1  713  10.894  13.281  10.831
66272SOL    HW2  714  10.987  13.250  10.947
66273SOL     OW  715   1.550  13.215   3.534
66273SOL    HW1  716   1.491  13.161   3.481
66273SOL    HW2  717   1.518  13.203   3.624
66274SOL     OW  718   0.651   0.034  14.169
66274SOL    HW1  719   0.576  14.864  14.134
66274SOL    HW2  720   0.678  14.861  14.245
66275SOL     OW  721   0.248  14.368   2.472
66275SOL    HW1  722   0.270  14.380   2.564
66275SOL    HW2  723   0.192  14.443   2.451
66276SOL     OW  724  11.604  12.553  11.458
66276SOL    HW1  725  11.637  12.463  11.456
66276SOL    HW2  726  11.516  12.546  11.422
66277SOL     OW  727   7.969   1.686   0.698
66277SOL    HW1  728   7.896   1.652   0.749
66277SOL    HW2  729   7.946   1.777   0.680
66278SOL     OW  730  11.778   2.228   0.911
66278SOL    HW1  731  11.762   2.252   1.002
66278SOL    HW2  732  11.751   2.305   0.861
66279SOL     OW  733  12.953   2.440   3.309
66279SOL    HW1  734  13.020   2.508   3.315
66279SOL    HW2  735  12.903   2.462   3.231
66280SOL     OW  736   8.817  14.561  10.047
66280SOL    HW1  737   8.889  14.526   9.993
66280SOL    HW2  738   8.787  14.638   9.999
66281SOL     OW  739   2.518   3.114   7.862
66281SOL    HW1  740   2.476   3.033   7.892
66281SOL    HW2  741   2.524   3.169   7.940
66282SOL     OW  742   1.355   1.533   7.630
66282SOL    HW1  743   1.280   1.563   7.682
66282SOL    HW2  744   1.423   1.597   7.649
66283SOL     OW  745   5.000   7.729  11.527
66283SOL    HW1  746   4.970   7.813  11.561
66283SOL    HW2  747   4.926   7.670  11.541
66284SOL     OW  748   5.697  10.009  13.414
66284SOL    HW1  749   5.731   9.920  13.404
66284SOL    HW2  750   5.602   9.999  13.408
66285SOL     OW  751   9.350   4.874   1.840
66285SOL    HW1  752   9.368   4.950   1.896
66285SOL    HW2  753   9.309   4.910   1.762
66286SOL     OW  754  10.547   3.481   1.913
66286SOL    HW1  755  10.535   3.554   1.974
66286SOL    HW2  756  10.486   3.414   1.944
66287SOL     OW  757   6.082  12.787   3.895
66287SOL    HW1  758   6.105  12.816   3.983
66287SOL    HW2  759   5.989  12.769   3.900
66288SOL     OW  760   5.851   2.699  10.567
66288SOL    HW1  761   5.936   2.741  10.582
66288SOL    HW2  762   5.872   2.607  10.554
66289SOL     OW  763   4.044   2.235   9.812
66289SOL    HW1  764   3.978   2.169   9.793
66289SOL    HW2  765   3.995   2.317   9.823
66290SOL     OW  766   4.223  13.924   7.942
66290SOL    HW1  767   4.248  14.017   7.946
66290SOL    HW2  768   4.296  13.878   7.983
66291SOL     OW  769  12.590  10.170   6.019
66291SOL    HW1  770  12.584  10.075   6.026
66291SOL    HW2  771  12.574  10.202   6.108
66292SOL     OW  772  12.170   4.181  10.545
66292SOL    HW1  773  12.184   4.115  10.476
66292SOL    HW2  774  12.256   4.190  10.586
66293SOL     OW  775   7.096  10.686   3.039
66293SOL    HW1  776   7.075  10.673   3.131
66293SOL    HW2  777   7.014  10.715   2.999
66294SOL     OW  778  13.121   2.848  13.486
66294SOL    HW1  779  13.077   2.843  13.401
66294SOL    HW2  780  13.157   2.760  13.499
66295SOL     OW  781  10.312   0.936   8.967
66295SOL    HW1  782  10.300   0.868   8.901
66295SOL    HW2  783  10.270   0.902   9.046
66296SOL     OW  784   3.645   2.397   9.986
66296SOL    HW1  785   3.555   2.367   9.976
66296SOL    HW2  786   3.697   2.316   9.992
66297SOL     OW  787   0.577   6.211   2.782
66297SOL    HW1  788   0.610   6.299   2.766
66297SOL    HW2  789   0.483   6.222   2.797
66298SOL     OW  790  13.064   7.042   8.866
66298SOL    HW1  791  13.079   7.136   8.859
66298SOL    HW2  792  13.147   7.006   8.897
66299SOL     OW  793   0.407   4.318   3.065
66299SOL    HW1  794   0.379   4.228   3.049
66299SOL    HW2  795   0.462   4.340   2.990
66300SOL     OW  796   9.829  13.247  12.964
66300SOL    HW1  797   9.737  13.224  12.976
66300SOL    HW2  798   9.874  13.162  12.960
66301SOL     OW  799  11.871   9.304  12.006
66301SOL    HW1  800  11.924   9.290  12.084
66301SOL    HW2  801  11.844   9.216  11.979
66302SOL     OW  802   2.690   7.017   8.603
66302SOL    HW1  803   2.679   7.009   8.698
66302SOL    HW2  804   2.757   7.084   8.592
66303SOL     OW  805  12.391   9.864   5.776
66303SOL    HW1  806  12.403   9.782   5.727
66303SOL    HW2  807  12.465   9.866   5.836
66304SOL     OW  808   6.453   0.407   7.529
66304SOL    HW1  809   6.470   0.469   7.600
66304SOL    HW2  810   6.532   0.411   7.475
66305SOL     OW  811  13.854   3.812   3.692
66305SOL    HW1  812  13.839   3.805   3.786
66305SOL    HW2  813  13.771   3.787   3.652
66306SOL     OW  814   8.695   3.881   0.836
66306SOL    HW1  815   8.702   3.786   0.841
66306SOL    HW2  816   8.716   3.902   0.745
66307SOL     OW  817   0.268   7.689   0.549
66307SOL    HW1  818   0.254   7.603   0.590
66307SOL    HW2  819   0.253   7.752   0.619
66308SOL     OW  820   5.604  13.368   9.240
66308SOL    HW1  821   5.569  13.429   9.305
66308SOL    HW2  822   5.560  13.392   9.158
66309SOL     OW  823   0.372   7.977   0.242
66309SOL    HW1  824   0.396   8.008   0.329
66309SOL    HW2  825   0.322   8.048   0.203
66310SOL     OW  826   4.537   5.389   3.764
66310SOL    HW1  827   4.491   5.440   3.697
66310SOL    HW2  828   4.533   5.443   3.843
66311SOL     OW  829   1.547  12.638   8.447
66311SOL    HW1  830   1.616  12.687   8.403
66311SOL    HW2  831   1.511  12.699   8.511
66312SOL     OW  832   3.074  10.089   5.622
66312SOL    HW1  833   3.120  10.032   5.559
66312SOL    HW2  834   2.994  10.041   5.644
66313SOL     OW  835   6.843   5.408  11.495
66313SOL    HW1  836   6.925   5.392  11.447
66313SOL    HW2  837   6.791   5.329  11.482
66314SOL     OW  838   9.064   8.386  12.327
66314SOL    HW1  839   9.002   8.444  12.283
66314SOL    HW2  840   9.018   8.357  12.406
66315SOL     OW  841   8.240  13.854  12.973
66315SOL    HW1  842   8.333  13.878  12.969
66315SOL    HW2  843   8.209  13.867  12.883
66316SOL     OW  844   4.110   1.621   7.655
66316SOL    HW1  845   4.180   1.588   7.599
66316SOL    HW2  846   4.146   1.617   7.744
66317SOL     OW  847  13.608   3.348  12.761
66317SOL    HW1  848  13.555   3.384  12.689
66317SOL    HW2  849  13.544   3.326  12.829
66318SOL     OW  850  14.639   2.293   4.355
66318SOL    HW1  851  14.585   2.215   4.338
66318SOL    HW2  852  14.712   2.260   4.408
66319SOL     OW  853  10.544   1.116  11.745
66319SOL    HW1  854  10.460   1.095  11.704
66319SOL    HW2  855  10.590   1.032  11.751
66320SOL     OW  856   3.066   4.974   7.497
66320SOL    HW1  857   2.994   5.035   7.480
66320SOL    HW2  858   3.118   5.018   7.565
66321SOL     OW  859   1.303   4.145  11.111
66321SOL    HW1  860   1.361   4.069  11.114
66321SOL    HW2  861   1.217   4.109  11.089
66322SOL     OW  862   7.096   1.058   0.010
66322SOL    HW1  863   7.093   0.983  14.829
66322SOL    HW2  864   7.126   1.130  14.832
66323SOL     OW  865   9.205   3.033   6.335
66323SOL    HW1  866   9.199   2.970   6.408
66323SOL    HW2  867   9.293   3.069   6.342
66324SOL     OW  868  12.656  12.448  13.792
66324SOL    HW1  869  12.739  12.402  13.802
66324SOL    HW2  870  12.596  12.401  13.850
66325SOL     OW  871  11.884   8.105  12.894
66325SOL    HW1  872  11.947   8.093  12.823
66325SOL    HW2  873  11.866   8.199  12.894
66326SOL     OW  874   9.900   4.700   5.656
66326SOL    HW1  875   9.815   4.672   5.623
66326SOL    HW2  876   9.880   4.746   5.737
66327SOL     OW  877  11.331   5.438   3.082
66327SOL    HW1  878  11.367   5.416   2.996
66327SOL    HW2  879  11.392   5.501   3.119
66328SOL     OW  880  14.402  10.514  10.006
66328SOL    HW1  881  14.427  10.475  10.090
66328SOL    HW2  882  14.438  10.602  10.009
66329SOL     OW  883   2.270   6.697   4.212
66329SOL    HW1  884   2.323   6.686   4.291
66329SOL    HW2  885   2.323   6.753   4.155
66330SOL     OW  886   8.446  13.116   0.120
66330SOL    HW1  887   8.382  13.067   0.068
66330SOL    HW2  888   8.518  13.055   0.132
66331SOL     OW  889   3.154   9.150   2.683
66331SOL    HW1  890   3.165   9.165   2.777
66331SOL    HW2  891   3.158   9.237   2.644
66332SOL     OW  892   1.193   4.767  11.517
66332SOL    HW1  893   1.145   4.849  11.504
66332SOL    HW2  894   1.178   4.718  11.436
66333SOL     OW  895  12.180  10.860   5.377
66333SOL    HW1  896  12.221  10.938   5.416
66333SOL    HW2  897  12.201  10.790   5.438
66334SOL     OW  898  12.973  14.759   6.662
66334SOL    HW1  899  12.958  14.715   6.746
66334SOL    HW2  900  13.041  14.707   6.620
66335SOL     OW  901  13.881  13.050  11.376
66335SOL    HW1  902  13.830  12.985  11.328
66335SOL    HW2  903  13.935  12.998  11.437
66336SOL     OW  904   0.146  13.911   3.694
66336SOL    HW1  905   0.219  13.958   3.653
66336SOL    HW2  906   0.107  13.974   3.754
66337SOL     OW  907   0.370   8.970   9.367
66337SOL    HW1  908   0.385   8.878   9.346
66337SOL    HW2  909   0.379   9.016   9.284
66338SOL     OW  910  11.021  12.467   6.823
66338SOL    HW1  911  11.099  12.508   6.785
66338SOL    HW2  912  10.967  12.541   6.852
66339SOL     OW  913   0.729   0.404   5.227
66339SOL    HW1  914   0.735   0.365   5.314
66339SOL    HW2  915   0.777   0.344   5.170
66340SOL     OW  916  11.172   6.443   1.124
66340SOL    HW1  917  11.187   6.378   1.193
66340SOL    HW2  918  11.077   6.443   1.111
66341SOL     OW  919  10.964  11.463  12.536
66341SOL    HW1  920  10.962  11.441  12.443
66341SOL    HW2  921  11.003  11.387  12.579
66342SOL     OW  922   4.720  12.806   3.714
66342SOL    HW1  923   4.792  12.868   3.728
66342SOL    HW2  924   4.722  12.749   3.791
66343SOL     OW  925   9.765   6.417   3.362
66343SOL    HW1  926   9.846   6.467   3.369
66343SOL    HW2  927   9.701   6.467   3.413
66344SOL     OW  928   5.724   1.834  12.287
66344SOL    HW1  929   5.804   1.783  12.279
66344SOL    HW2  930   5.700   1.827  12.380
66345SOL     OW  931  13.001   4.745   6.283
66345SOL    HW1  932  13.089   4.768   6.254
66345SOL    HW2  933  12.981   4.663   6.237
66346SOL     OW  934  11.654  10.625   7.641
66346SOL    HW1  935  11.594  10.614   7.715
66346SOL    HW2  936  11.724  10.563   7.658
66347SOL     OW  937   3.682  13.656   4.501
66347SOL    HW1  938   3.675  13.751   4.507
66347SOL    HW2  939   3.612  13.623   4.558
66348SOL     OW  940   8.539  13.343  10.827
66348SOL    HW1  941   8.489  13.343  10.908
66348SOL    HW2  942   8.481  13.383  10.762
66349SOL     OW  943   2.036  14.385  11.540
66349SOL    HW1  944   2.051  14.333  11.619
66349SOL    HW2  945   2.037  14.322  11.468
66350SOL     OW  946  13.236   5.691   6.004
66350SOL    HW1  947  13.309   5.699   5.943
66350SOL    HW2  948  13.214   5.598   6.004
66351SOL     OW  949   4.572  10.831   9.230
66351SOL    HW1  950   4.645  10.784   9.192
66351SOL    HW2  951   4.539  10.886   9.159
66352SOL     OW  952  14.261  10.152   2.327
66352SOL    HW1  953  14.185  10.126   2.274
66352SOL    HW2  954  14.325  10.184   2.264
66353SOL     OW  955   3.079   4.081   4.522
66353SOL    HW1  956   3.026   4.051   4.595
66353SOL    HW2  957   3.029   4.057   4.444
66354SOL     OW  958   0.043   2.057   9.281
66354SOL    HW1  959  14.871   2.014   9.212
66354SOL    HW2  960   0.079   1.985   9.333
66355SOL     OW  961  13.016   8.493   3.404
66355SOL    HW1  962  12.957   8.537   3.342
66355SOL    HW2  963  13.084   8.456   3.348
66356SOL     OW  964  12.774   5.304   5.109
66356SOL    HW1  965  12.832   5.371   5.144
66356SOL    HW2  966  12.725   5.347   5.039
66357SOL     OW  967  10.772   9.236   6.522
66357SOL    HW1  968  10.835   9.196   6.583
66357SOL    HW2  969  10.777   9.330   6.541
66358SOL     OW  970  13.961   5.657  13.393
66358SOL    HW1  971  13.988   5.615  13.474
66358SOL    HW2  972  14.002   5.605  13.324
66359SOL     OW  973   9.670   9.342   8.166
66359SOL    HW1  974   9.751   9.386   8.190
66359SOL    HW2  975   9.603   9.411   8.169
66360SOL     OW  976  10.040  13.953   9.810
66360SOL    HW1  977  10.022  13.868   9.771
66360SOL    HW2  978  10.051  13.935   9.903
66361SOL     OW  979   5.305   9.224   9.726
66361SOL    HW1  980   5.317   9.301   9.670
66361SOL    HW2  981   5.387   9.175   9.717
66362SOL     OW  982   2.929   5.590   9.192
66362SOL    HW1  983   2.840   5.623   9.204
66362SOL    HW2  984   2.968   5.648   9.126
66363SOL     OW  985   1.444  13.718   9.766
66363SOL    HW1  986   1.425  13.633   9.807
66363SOL    HW2  987   1.528  13.705   9.722
66364SOL     OW  988  12.248  10.075   1.024
66364SOL    HW1  989  12.259  10.129   0.946
66364SOL    HW2  990  12.267   9.986   0.993
66365SOL     OW  991   8.921  11.746   1.966
66365SOL    HW1  992   8.914  11.808   1.894
66365SOL    HW2  993   8.970  11.794   2.034
66366SOL     OW  994  10.741   0.060  11.756
66366SOL    HW1  995  10.700   0.057  11.669
66366SOL    HW2  996  10.707  14.861  11.802
66367SOL     OW  997   8.756  10.308   0.127
66367SOL    HW1  998   8.660  10.305   0.126
66367SOL    HW2  999   8.782  10.266   0.045
66368SOL     OW 1000   1.353   3.366   9.658
66368SOL    HW1 1001   1.371   3.418   9.736
66368SOL    HW2 1002   1.271   3.401   9.624
66369SOL     OW 1003  13.872   1.346  11.798
66369SOL    HW1 1004  13.812   1.420  11.797
66369SOL    HW2 1005  13.822   1.276  11.841
66370SOL     OW 1006   2.673   7.113   7.453
66370SOL    HW1 1007   2.740   7.102   7.386
66370SOL    HW2 1008   2.640   7.202   7.439
66371SOL     OW 1009   9.690   9.035   4.638
66371SOL    HW1 1010   9.649   8.949   4.646
66371SOL    HW2 1011   9.776   9.018   4.599
66372SOL     OW 1012  12.156   5.811   1.073
66372SOL    HW1 1013  12.109   5.842   0.996
66372SOL    HW2 1014  12.181   5.890   1.120
66373SOL     OW 1015  10.420   2.646   2.610
66373SOL    HW1 1016  10.416   2.694   2.528
66373SOL    HW2 1017  10.445   2.557   2.585
66374SOL     OW 1018  10.406  12.669  13.549
66374SOL    HW1 1019  10.358  12.710  13.476
66374SOL    HW2 1020  10.455  12.597  13.509
66375SOL     OW 1021   7.055   0.879  14.673
66375SOL    HW1 1022   7.033   0.898  14.582
66375SOL    HW2 1023   7.147   0.853  14.671
66376SOL     OW 1024   4.852   1.026   5.472
66376SOL    HW1 1025   4.845   1.110   5.427
66376SOL    HW2 1026   4.762   0.996   5.482
66377SOL     OW 1027   2.401   5.380   0.704
66377SOL    HW1 1028   2.404   5.469   0.740
66377SOL    HW2 1029   2.312   5.371   0.670
66378SOL     OW 1030   9.807   6.242  14.740
66378SOL    HW1 1031   9.774   6.317  14.692
66378SOL    HW2 1032   9.867   6.198  14.679
66379SOL     OW 1033  14.354   6.230   5.741
66379SOL    HW1 1034  14.444   6.208   5.761
66379SOL    HW2 1035  14.359   6.312   5.692
66380SOL     OW 1036   9.599   9.700   0.559
66380SOL    HW1 1037   9.554   9.778   0.593
66380SOL    HW2 1038   9.624   9.725   0.469
66381SOL     OW 1039  10.561   0.515   8.469
66381SOL    HW1 1040  10.652   0.543   8.457
66381SOL    HW2 1041  10.523   0.582   8.527
66382SOL     OW 1042  14.455   9.288   6.923
66382SOL    HW1 1043  14.438   9.367   6.871
66382SOL    HW2 1044  14.550   9.276   6.917
66383SOL     OW 1045   2.231  11.347   2.552
66383SOL    HW1 1046   2.202  11.438   2.539
66383SOL    HW2 1047   2.294  11.352   2.624
66384SOL     OW 1048   9.384   6.663   1.188
66384SOL    HW1 1049   9.329   6.593   1.152
66384SOL    HW2 1050   9.402   6.720   1.114
66385SOL     OW 1051   6.170  11.716  14.858
66385SOL    HW1 1052   6.244  11.658   0.000
66385SOL    HW2 1053   6.198  11.766  14.782
66386SOL     OW 1054   8.003   7.975   0.449
66386SOL    HW1 1055   7.935   7.949   0.387
66386SOL    HW2 1056   8.023   8.066   0.425
66387SOL     OW 1057  13.020   7.436   2.003
66387SOL    HW1 1058  13.071   7.388   2.067
66387SOL    HW2 1059  13.025   7.383   1.923
66388SOL     OW 1060  11.215   4.514   0.971
66388SOL    HW1 1061  11.247   4.570   0.900
66388SOL    HW2 1062  11.222   4.567   1.050
66389SOL     OW 1063   7.324  12.065   0.275
66389SOL    HW1 1064   7.273  12.026   0.204
66389SOL    HW2 1065   7.362  11.990   0.321
66390SOL     OW 1066   9.063   5.631   5.475
66390SOL    HW1 1067   8.976   5.646   5.438
66390SOL    HW2 1068   9.050   5.563   5.542
66391SOL     OW 1069  10.952   2.893   8.194
66391SOL    HW1 1070  10.913   2.807   8.212
66391SOL    HW2 1071  10.879   2.946   8.161
66392SOL     OW 1072  12.080  10.855   8.100
66392SOL    HW1 1073  12.018  10.900   8.157
66392SOL    HW2 1074  12.160  10.849   8.152
66393SOL     OW 1075   0.426   8.638   2.369
66393SOL    HW1 1076   0.500   8.686   2.333
66393SOL    HW2 1077   0.461   8.551   2.389
66394SOL     OW 1078   7.510   0.941   8.113
66394SOL    HW1 1079   7.466   0.974   8.192
66394SOL    HW2 1080   7.603   0.958   8.128
66395SOL     OW 1081   1.467  12.138  13.272
66395SOL    HW1 1082   1.533  12.122  13.340
66395SOL    HW2 1083   1.482  12.228  13.244
66396SOL     OW 1084  13.749   8.287  14.232
66396SOL    HW1 1085  13.783   8.335  14.308
66396SOL    HW2 1086  13.655   8.280  14.248
66397SOL     OW 1087  10.411   6.464  13.518
66397SOL    HW1 1088  10.401   6.389  13.459
66397SOL    HW2 1089  10.346   6.450  13.587
66398SOL     OW 1090   9.373   2.482   0.143
66398SOL    HW1 1091   9.422   2.457   0.221
66398SOL    HW2 1092   9.298   2.422   0.141
66399SOL     OW 1093   7.168   6.689  14.467
66399SOL    HW1 1094   7.221   6.747  14.521
66399SOL    HW2 1095   7.088   6.739  14.449
66400SOL     OW 1096  12.186   5.594   5.337
66400SOL    HW1 1097  12.108   5.646   5.353
66400SOL    HW2 1098  12.154   5.516   5.292
66401SOL     OW 1099  12.671  14.508   5.845
66401SOL    HW1 1100  12.722  14.483   5.923
66401SOL    HW2 1101  12.620  14.583   5.873
66402SOL     OW 1102   4.884   5.368   0.470
66402SOL    HW1 1103   4.803   5.409   0.442
66402SOL    HW2 1104   4.934   5.355   0.390
66403SOL     OW 1105   5.682   9.806  14.390
66403SOL    HW1 1106   5.618   9.878  14.387
66403SOL    HW2 1107   5.672   9.762  14.306
66404SOL     OW 1108   4.613   1.463   1.128
66404SOL    HW1 1109   4.638   1.387   1.181
66404SOL    HW2 1110   4.518   1.455   1.116
66405SOL     OW 1111   7.894   1.191   9.182
66405SOL    HW1 1112   7.921   1.102   9.156
66405SOL    HW2 1113   7.804   1.181   9.213
66406SOL     OW 1114   2.591   3.328   4.999
66406SOL    HW1 1115   2.556   3.293   4.917
66406SOL    HW2 1116   2.686   3.331   4.985
66407SOL     OW 1117   8.296   3.516  13.490
66407SOL    HW1 1118   8.307   3.574  13.566
66407SOL    HW2 1119   8.367   3.542  13.431
66408SOL     OW 1120  13.602   9.270   9.458
66408SOL    HW1 1121  13.668   9.200   9.465
66408SOL    HW2 1122  13.520   9.223   9.444
66409SOL     OW 1123   3.020  10.081   7.046
66409SOL    HW1 1124   3.027  10.170   7.011
66409SOL    HW2 1125   2.928  10.073   7.071
66410SOL     OW 1126   4.025  12.849   3.427
66410SOL    HW1 1127   4.089  12.903   3.475
66410SOL    HW2 1128   4.024  12.886   3.339
66411SOL     OW 1129   4.875  12.755   2.781
66411SOL    HW1 1130   4.879  12.701   2.860
66411SOL    HW2 1131   4.831  12.699   2.717
66412SOL     OW 1132  12.633   0.380   1.768
66412SOL    HW1 1133  12.698   0.331   1.717
66412SOL    HW2 1134  12.562   0.317   1.783
66413SOL     OW 1135   1.743  11.410  14.356
66413SOL    HW1 1136   1.674  11.359  14.399
66413SOL    HW2 1137   1.758  11.366  14.273
66414SOL     OW 1138   0.048  13.655  13.729
66414SOL    HW1 1139   0.116  13.604  13.686
66414SOL    HW2 1140  14.856  13.661  13.664
66415SOL     OW 1141   2.801   5.514   5.224
66415SOL    HW1 1142   2.807   5.445   5.157
66415SOL    HW2 1143   2.773   5.467   5.303
66416SOL     OW 1144   9.925   6.216  12.309
66416SOL    HW1 1145   9.859   6.285  12.316
66416SOL    HW2 1146   9.933   6.200  12.215
66417SOL     OW 1147  10.262   6.780   8.400
66417SOL    HW1 1148  10.245   6.792   8.306
66417SOL    HW2 1149  10.175   6.774   8.440
66418SOL     OW 1150   7.221   6.598   5.586
66418SOL    HW1 1151   7.129   6.574   5.592
66418SOL    HW2 1152   7.238   6.652   5.663
66419SOL     OW 1153   1.855   2.539   2.118
66419SOL    HW1 1154   1.850   2.544   2.023
66419SOL    HW2 1155   1.938   2.496   2.136
66420SOL     OW 1156  13.015   4.928  11.576
66420SOL    HW1 1157  13.047   4.845  11.538
66420SOL    HW2 1158  12.920   4.920  11.575
66421SOL     OW 1159  13.645  11.549   0.214
66421SOL    HW1 1160  13.688  11.472   0.178
66421SOL    HW2 1161  13.683  11.559   0.302
66422SOL     OW 1162   5.435   4.445   0.707
66422SOL    HW1 1163   5.507   4.407   0.758
66422SOL    HW2 1164   5.458   4.537   0.697
66423SOL     OW 1165   0.779  12.544   7.832
66423SOL    HW1 1166   0.841  12.507   7.895
66423SOL    HW2 1167   0.723  12.601   7.885
66424SOL     OW 1168   9.450  10.061  13.584
66424SOL    HW1 1169   9.488   9.974  13.573
66424SOL    HW2 1170   9.416  10.062  13.673
66425SOL     OW 1171   7.562   4.100   1.986
66425SOL    HW1 1172   7.625   4.066   1.922
66425SOL    HW2 1173   7.491   4.035   1.985
66426SOL     OW 1174   7.907   5.007   0.549
66426SOL    HW1 1175   7.921   5.087   0.499
66426SOL    HW2 1176   7.986   4.998   0.603
66427SOL     OW 1177   0.740   1.361   9.638
66427SOL    HW1 1178   0.656   1.328   9.606
66427SOL    HW2 1179   0.805   1.306   9.595
66428SOL     OW 1180   2.155  10.418  12.594
66428SOL    HW1 1181   2.240  10.405  12.636
66428SOL    HW2 1182   2.106  10.337  12.614
66429SOL     OW 1183   0.426  14.755   9.013
66429SOL    HW1 1184   0.451  14.680   8.960
66429SOL    HW2 1185   0.452  14.732   9.102
66430SOL     OW 1186   8.522   4.681  12.025
66430SOL    HW1 1187   8.487   4.760  12.067
66430SOL    HW2 1188   8.589   4.714  11.965
66431SOL     OW 1189  14.828  11.129  11.186
66431SOL    HW1 1190  14.817  11.224  11.195
66431SOL    HW2 1191  14.752  11.100  11.135
66432SOL     OW 1192  11.303  11.566   4.077
66432SOL    HW1 1193  11.335  11.639   4.130
66432SOL    HW2 1194  11.382  11.515   4.057
66433SOL     OW 1195   3.366   9.332   5.572
66433SOL    HW1 1196   3.411   9.415   5.581
66433SOL    HW2 1197   3.287   9.340   5.625
66434SOL     OW 1198   9.308   0.051   0.185
66434SOL    HW1 1199   9.298   0.144   0.205
66434SOL    HW2 1200   9.402   0.034   0.192
66435SOL     OW 1201  10.223   9.847   4.460
66435SOL    HW1 1202  10.274   9.867   4.538
66435SOL    HW2 1203  10.192   9.933   4.429
66436SOL     OW 1204   4.809   5.329   0.124
66436SOL    HW1 1205   4.830   5.382   0.047
66436SOL    HW2 1206   4.714   5.318   0.120
66437SOL     OW 1207  11.858   2.460   5.328
66437SOL    HW1 1208  11.817   2.445   5.243
66437SOL    HW2 1209  11.815   2.539   5.361
66438SOL     OW 1210   6.191   1.012  14.467
66438SOL    HW1 1211   6.111   0.961  14.477
66438SOL    HW2 1212   6.180   1.059  14.384
66439SOL     OW 1213   8.280  13.943   1.805
66439SOL    HW1 1214   8.249  13.956   1.715
66439SOL    HW2 1215   8.208  13.899   1.849
66440SOL     OW 1216   7.841   3.757   5.455
66440SOL    HW1 1217   7.840   3.824   5.523
66440SOL    HW2 1218   7.933   3.740   5.439
66441SOL     OW 1219   3.080   7.501   3.530
66441SOL    HW1 1220   3.072   7.526   3.622
66441SOL    HW2 1221   3.111   7.410   3.532
66442SOL     OW 1222   0.773   6.542   3.012
66442SOL    HW1 1223   0.739   6.565   2.926
66442SOL    HW2 1224   0.746   6.452   3.027
66443SOL     OW 1225   4.371  10.766   6.839
66443SOL    HW1 1226   4.426  10.794   6.912
66443SOL    HW2 1227   4.434  10.735   6.773
66444SOL     OW 1228   1.156   5.110   8.096
66444SOL    HW1 1229   1.112   5.083   8.176
66444SOL    HW2 1230   1.234   5.054   8.091
66445SOL     OW 1231  10.271   3.629   8.954
66445SOL    HW1 1232  10.315   3.661   8.875
66445SOL    HW2 1233  10.307   3.541   8.967
66446SOL     OW 1234   0.568   5.416   9.167
66446SOL    HW1 1235   0.613   5.335   9.142
66446SOL    HW2 1236   0.589   5.427   9.260
66447SOL     OW 1237   4.793   1.290  14.536
66447SOL    HW1 1238   4.882   1.323  14.546
66447SOL    HW2 1239   4.771   1.307  14.444
66448SOL     OW 1240  13.383  12.047   8.938
66448SOL    HW1 1241  13.353  12.136   8.954
66448SOL    HW2 1242  13.310  12.005   8.892
66449SOL     OW 1243   6.247   7.650   1.983
66449SOL    HW1 1244   6.293   7.605   2.054
66449SOL    HW2 1245   6.159   7.667   2.018
66450SOL     OW 1246   4.494  11.583   9.458
66450SOL    HW1 1247   4.424  11.643   9.435
66450SOL    HW2 1248   4.574  11.626   9.430
66451SOL     OW 1249   3.554   6.272   7.008
66451SOL    HW1 1250   3.531   6.225   7.088
66451SOL    HW2 1251   3.472   6.310   6.978
66452SOL     OW 1252   8.991  13.308   2.782
66452SOL    HW1 1253   9.019  13.226   2.743
66452SOL    HW2 1254   8.918  13.337   2.728
66453SOL     OW 1255   8.323   4.419   6.307
66453SOL    HW1 1256   8.294   4.432   6.217
66453SOL    HW2 1257   8.245   4.433   6.360
66454SOL     OW 1258   2.730   7.138  11.213
66454SOL    HW1 1259   2.778   7.056  11.207
66454SOL    HW2 1260   2.642   7.113  11.242
66455SOL     OW 1261   8.606  10.029  10.876
66455SOL    HW1 1262   8.615   9.935  10.892
66455SOL    HW2 1263   8.575  10.065  10.960
66456SOL     OW 1264   5.904   3.082   7.708
66456SOL    HW1 1265   5.938   3.069   7.620
66456SOL    HW2 1266   5.965   3.035   7.765
66457SOL     OW 1267  11.990  12.648  13.089
66457SOL    HW1 1268  12.076  12.613  13.064
66457SOL    HW2 1269  11.983  12.630  13.182
66458SOL     OW 1270  10.812   1.844   5.171
66458SOL    HW1 1271  10.759   1.918   5.142
66458SOL    HW2 1272  10.836   1.799   5.090
66459SOL     OW 1273   0.980  10.545   2.531
66459SOL    HW1 1274   1.006  10.458   2.562
66459SOL    HW2 1275   1.002  10.545   2.438
66460SOL     OW 1276   1.721   9.261   1.352
66460SOL    HW1 1277   1.799   9.251   1.407
66460SOL    HW2 1278   1.745   9.328   1.288
66461SOL     OW 1279   7.248  12.641  11.952
66461SOL    HW1 1280   7.170  12.692  11.973
66461SOL    HW2 1281   7.287  12.688  11.878
66462SOL     OW 1282   2.378  11.862   6.981
66462SOL    HW1 1283   2.462  11.839   6.942
66462SOL    HW2 1284   2.319  11.875   6.907
66463SOL     OW 1285   3.644  10.806  13.479
66463SOL    HW1 1286   3.578  10.799  13.410
66463SOL    HW2 1287   3.717  10.852  13.438
66464SOL     OW 1288   7.316   1.621  12.966
66464SOL    HW1 1289   7.292   1.607  12.874
66464SOL    HW2 1290   7.257   1.564  13.015
66465SOL     OW 1291   9.140   1.933   7.836
66465SOL    HW1 1292   9.174   2.010   7.789
66465SOL    HW2 1293   9.050   1.957   7.857
66466SOL     OW 1294   8.189   8.936  11.458
66466SOL    HW1 1295   8.153   8.858  11.417
66466SOL    HW2 1296   8.232   8.984  11.387
66467SOL     OW 1297  14.626   1.598  10.531
66467SOL    HW1 1298  14.571   1.672  10.557
66467SOL    HW2 1299  14.658   1.620  10.444
66468SOL     OW 1300  11.485   6.201  14.382
66468SOL    HW1 1301  11.541   6.219  14.457
66468SOL    HW2 1302  11.536   6.230  14.306
66469SOL     OW 1303   2.235  13.505  14.383
66469SOL    HW1 1304   2.236  13.598  14.359
66469SOL    HW2 1305   2.142  13.481  14.382
66470SOL     OW 1306  13.453   1.559  12.563
66470SOL    HW1 1307  13.457   1.594  12.652
66470SOL    HW2 1308  13.460   1.465  12.574
66471SOL     OW 1309  11.404   6.492  12.796
66471SOL    HW1 1310  11.352   6.488  12.715
66471SOL    HW2 1311  11.362   6.430  12.855
66472SOL     OW 1312   0.429  10.840   4.215
66472SOL    HW1 1313   0.490  10.781   4.258
66472SOL    HW2 1314   0.345  10.793   4.217
66473SOL     OW 1315   2.423   2.449   0.743
66473SOL    HW1 1316   2.502   2.487   0.704
66473SOL    HW2 1317   2.450   2.422   0.830
66474SOL     OW 1318   0.715   4.429   6.674
66474SOL    HW1 1319   0.715   4.384   6.590
66474SOL    HW2 1320   0.637   4.484   6.673
66475SOL     OW 1321   7.847   7.779   3.217
66475SOL    HW1 1322   7.927   7.734   3.191
66475SOL    HW2 1323   7.810   7.724   3.286
66476SOL     OW 1324   8.314   5.432   3.767
66476SOL    HW1 1325   8.327   5.415   3.674
66476SOL    HW2 1326   8.403   5.432   3.803
66477SOL     OW 1327   5.151  10.855   3.912
66477SOL    HW1 1328   5.147  10.937   3.962
66477SOL    HW2 1329   5.207  10.797   3.965
66478SOL     OW 1330  10.566   1.324  12.032
66478SOL    HW1 1331  10.479   1.292  12.009
66478SOL    HW2 1332  10.573   1.409  11.989
66479SOL     OW 1333  10.464   1.516   0.836
66479SOL    HW1 1334  10.421   1.510   0.921
66479SOL    HW2 1335  10.434   1.439   0.788
66480SOL     OW 1336  14.623  12.388  10.235
66480SOL    HW1 1337  14.542  12.439  10.234
66480SOL    HW2 1338  14.649  12.381  10.143
66481SOL     OW 1339  14.469   6.681  11.121
66481SOL    HW1 1340  14.442   6.761  11.076
66481SOL    HW2 1341  14.564   6.679  11.111
66482SOL     OW 1342   0.394   4.907   9.311
66482SOL    HW1 1343   0.490   4.911   9.309
66482SOL    HW2 1344   0.366   4.996   9.292
66483SOL     OW 1345  12.597  11.171   8.609
66483SOL    HW1 1346  12.640  11.256   8.615
66483SOL    HW2 1347  12.504  11.191   8.614
66484SOL     OW 1348   8.907   8.570   7.041
66484SOL    HW1 1349   8.831   8.583   7.097
66484SOL    HW2 1350   8.870   8.554   6.954
66485SOL     OW 1351   2.893   3.287   1.683
66485SOL    HW1 1352   2.909   3.277   1.777
66485SOL    HW2 1353   2.931   3.209   1.643
66486SOL     OW 1354   1.224   2.019   8.411
66486SOL    HW1 1355   1.253   1.931   8.388
66486SOL    HW2 1356   1.293   2.054   8.467
66487SOL     OW 1357  10.363  12.758  11.871
66487SOL    HW1 1358  10.366  12.756  11.967
66487SOL    HW2 1359  10.392  12.671  11.844
66488SOL     OW 1360   2.736  11.025   7.425
66488SOL    HW1 1361   2.736  11.055   7.516
66488SOL    HW2 1362   2.643  11.014   7.404
66489SOL     OW 1363   0.124   2.447   8.848
66489SOL    HW1 1364   0.206   2.482   8.814
66489SOL    HW2 1365   0.135   2.352   8.842
66490SOL     OW 1366   3.188  14.404  13.018
66490SOL    HW1 1367   3.245  14.333  13.048
66490SOL    HW2 1368   3.162  14.450  13.097
66491SOL     OW 1369  13.068   9.882   0.111
66491SOL    HW1 1370  13.054   9.935   0.190
66491SOL    HW2 1371  13.151   9.838   0.126
66492SOL     OW 1372   9.757   4.690   0.943
66492SOL    HW1 1373   9.834   4.637   0.965
66492SOL    HW2 1374   9.686   4.627   0.935
66493SOL     OW 1375   9.918  10.281  13.447
66493SOL    HW1 1376   9.971  10.201  13.446
66493SOL    HW2 1377   9.949  10.329  13.524
66494SOL     OW 1378  14.202   6.483  10.093
66494SOL    HW1 1379  14.283   6.522  10.127
66494SOL    HW2 1380  14.222   6.466  10.001
66495SOL     OW 1381   3.100   6.093   5.040
66495SOL    HW1 1382   3.074   6.018   4.986
66495SOL    HW2 1383   3.118   6.056   5.126
66496SOL     OW 1384   9.658  12.306  13.614
66496SOL    HW1 1385   9.617  12.225  13.585
66496SOL    HW2 1386   9.694  12.344  13.534
66497SOL     OW 1387   9.156   5.054   6.171
66497SOL    HW1 1388   9.142   5.013   6.085
66497SOL    HW2 1389   9.199   5.137   6.150
66498SOL     OW 1390   7.246   5.440  14.601
66498SOL    HW1 1391   7.259   5.366  14.662
66498SOL    HW2 1392   7.165   5.418  14.555
66499SOL     OW 1393   7.060   2.805   3.919
66499SOL    HW1 1394   7.099   2.849   3.994
66499SOL    HW2 1395   6.966   2.816   3.931
66500SOL     OW 1396  14.617   8.562   0.747
66500SOL    HW1 1397  14.580   8.483   0.708
66500SOL    HW2 1398  14.542   8.607   0.785
66501SOL     OW 1399   5.636   6.219  14.380
66501SOL    HW1 1400   5.650   6.308  14.411
66501SOL    HW2 1401   5.543   6.202  14.398
66502SOL     OW 1402  14.257  11.575  12.380
66502SOL    HW1 1403  14.181  11.629  12.358
66502SOL    HW2 1404  14.292  11.548  12.296
66503SOL     OW 1405  11.017  13.349   1.141
66503SOL    HW1 1406  11.067  13.288   1.196
66503SOL    HW2 1407  10.926  13.328   1.160
66504SOL     OW 1408  10.846   4.300   8.451
66504SOL    HW1 1409  10.912   4.305   8.382
66504SOL    HW2 1410  10.890   4.331   8.529
66505SOL     OW 1411  12.187  13.422   1.976
66505SOL    HW1 1412  12.238  13.494   2.013
66505SOL    HW2 1413  12.121  13.403   2.043
66506SOL     OW 1414   8.570   8.828   1.742
66506SOL    HW1 1415   8.660   8.797   1.739
66506SOL    HW2 1416   8.574   8.917   1.709
66507SOL     OW 1417   8.431   3.162   0.385
66507SOL    HW1 1418   8.514   3.206   0.400
66507SOL    HW2 1419   8.365   3.222   0.419
66508SOL     OW 1420  14.520   5.650   5.141
66508SOL    HW1 1421  14.506   5.588   5.069
66508SOL    HW2 1422  14.450   5.631   5.203
66509SOL     OW 1423   1.365   0.127   9.446
66509SOL    HW1 1424   1.312   0.178   9.385
66509SOL    HW2 1425   1.376   0.183   9.522
66510SOL     OW 1426  10.411   9.173  13.479
66510SOL    HW1 1427  10.416   9.119  13.400
66510SOL    HW2 1428  10.343   9.238  13.459
66511SOL     OW 1429   9.823   3.495  11.958
66511SOL    HW1 1430   9.758   3.506  12.027
66511SOL    HW2 1431   9.803   3.564  11.895
66512SOL     OW 1432   3.970   4.046   0.509
66512SOL    HW1 1433   4.036   4.068   0.443
66512SOL    HW2 1434   4.014   4.061   0.593
66513SOL     OW 1435   8.320   1.206   3.047
66513SOL    HW1 1436   8.399   1.152   3.054
66513SOL    HW2 1437   8.309   1.244   3.133
66514SOL     OW 1438   7.804   6.266   2.274
66514SOL    HW1 1439   7.746   6.242   2.346
66514SOL    HW2 1440   7.759   6.337   2.229
66515SOL     OW 1441   7.196   2.689  11.759
66515SOL    HW1 1442   7.201   2.604  11.716
66515SOL    HW2 1443   7.124   2.680  11.822
66516SOL     OW 1444  10.226   8.337   5.999
66516SOL    HW1 1445  10.132   8.325   6.016
66516SOL    HW2 1446  10.247   8.422   6.037
66517SOL     OW 1447  12.213   7.282   2.707
66517SOL    HW1 1448  12.121   7.272   2.732
66517SOL    HW2 1449  12.218   7.246   2.618
66518SOL     OW 1450  13.591   1.071   1.987
66518SOL    HW1 1451  13.652   1.123   2.039
66518SOL    HW2 1452  13.525   1.134   1.957
66519SOL     OW 1453   4.385   7.193   8.816
66519SOL    HW1 1454   4.340   7.109   8.818
66519SOL    HW2 1455   4.427   7.196   8.730
66520SOL     OW 1456   2.075   4.820   9.974
66520SOL    HW1 1457   2.159   4.850  10.010
66520SOL    HW2 1458   2.025   4.900   9.959
66521SOL     OW 1459  12.288   7.042  10.971
66521SOL    HW1 1460  12.312   6.961  11.015
66521SOL    HW2 1461  12.195   7.054  10.992
66522SOL     OW 1462   9.547   4.069   0.247
66522SOL    HW1 1463   9.575   3.991   0.295
66522SOL    HW2 1464   9.453   4.076   0.266
66523SOL     OW 1465   1.422   7.144   2.494
66523SOL    HW1 1466   1.516   7.158   2.484
66523SOL    HW2 1467   1.405   7.155   2.588
66524SOL     OW 1468   4.413   9.994  10.043
66524SOL    HW1 1469   4.348   9.969   9.977
66524SOL    HW2 1470   4.497   9.975  10.002
66525SOL     OW 1471   6.107   2.501  11.358
66525SOL    HW1 1472   6.061   2.476  11.438
66525SOL    HW2 1473   6.051   2.471  11.287
66526SOL     OW 1474   9.281   3.783   6.320
66526SOL    HW1 1475   9.346   3.777   6.250
66526SOL    HW2 1476   9.275   3.877   6.339
66527SOL     OW 1477  10.126  14.439   2.134
66527SOL    HW1 1478  10.104  14.505   2.068
66527SOL    HW2 1479  10.042  14.415   2.174
66528SOL     OW 1480   7.331   7.118   3.955
66528SOL    HW1 1481   7.257   7.105   3.897
66528SOL    HW2 1482   7.294   7.161   4.032
66529SOL     OW 1483   3.073   6.979   0.920
66529SOL    HW1 1484   3.141   6.955   0.983
66529SOL    HW2 1485   3.121   7.017   0.846
66530SOL     OW 1486  11.512   9.363   2.776
66530SOL    HW1 1487  11.498   9.271   2.752
66530SOL    HW2 1488  11.494   9.412   2.696
66531SOL     OW 1489   6.858   8.345   0.246
66531SOL    HW1 1490   6.870   8.263   0.293
66531SOL    HW2 1491   6.903   8.410   0.301
66532SOL     OW 1492   5.040   7.338  11.630
66532SOL    HW1 1493   4.985   7.381  11.696
66532SOL    HW2 1494   5.129   7.362  11.655
66533SOL     OW 1495   3.659  10.479   0.793
66533SOL    HW1 1496   3.696  10.396   0.824
66533SOL    HW2 1497   3.625  10.459   0.706
66534SOL     OW 1498  10.817   8.542   7.584
66534SOL    HW1 1499  10.860   8.577   7.662
66534SOL    HW2 1500  10.739   8.497   7.618
66535SOL     OW 1501   4.782   6.201  14.674
66535SOL    HW1 1502   4.816   6.269  14.733
66535SOL    HW2 1503   4.813   6.227  14.588
66536SOL     OW 1504   2.757  11.207   3.884
66536SOL    HW1 1505   2.668  11.238   3.865
66536SOL    HW2 1506   2.812  11.249   3.818
66537SOL     OW 1507  12.552   8.635  13.284
66537SOL    HW1 1508  12.607   8.683  13.223
66537SOL    HW2 1509  12.553   8.687  13.364
66538SOL     OW 1510   8.032   3.381   6.042
66538SOL    HW1 1511   8.066   3.448   5.982
66538SOL    HW2 1512   7.989   3.317   5.984
66539SOL     OW 1513   2.220   5.894   1.236
66539SOL    HW1 1514   2.217   5.828   1.305
66539SOL    HW2 1515   2.141   5.946   1.249
66540SOL     OW 1516  11.440   7.359  12.952
66540SOL    HW1 1517  11.412   7.363  12.861
66540SOL    HW2 1518  11.363   7.326  12.999
66541SOL     OW 1519  12.087   1.250  10.611
66541SOL    HW1 1520  12.143   1.300  10.551
66541SOL    HW2 1521  12.000   1.289  10.600
66542SOL     OW 1522  11.929   2.179   2.637
66542SOL    HW1 1523  11.999   2.244   2.637
66542SOL    HW2 1524  11.943   2.129   2.718
66543SOL     OW 1525   5.748  12.190   2.896
66543SOL    HW1 1526   5.684  12.127   2.929
66543SOL    HW2 1527   5.721  12.207   2.806
66544SOL     OW 1528   7.966   4.409   4.631
66544SOL    HW1 1529   8.014   4.343   4.582
66544SOL    HW2 1530   8.006   4.408   4.718
66545SOL     OW 1531  10.888   0.077   6.078
66545SOL    HW1 1532  10.934   0.094   5.996
66545SOL    HW2 1533  10.928   0.136   6.141
66546SOL     OW 1534  11.984   3.880   1.438
66546SOL    HW1 1535  12.010   3.963   1.478
66546SOL    HW2 1536  11.889   3.879   1.447
66547SOL     OW 1537   6.174   9.306   6.814
66547SOL    HW1 1538   6.112   9.232   6.815
66547SOL    HW2 1539   6.259   9.265   6.797
66548SOL     OW 1540  13.362   6.945   3.785
66548SOL    HW1 1541  13.328   7.005   3.718
66548SOL    HW2 1542  13.285   6.900   3.819
66549SOL     OW 1543  11.123   6.845   5.398
66549SOL    HW1 1544  11.197   6.886   5.444
66549SOL    HW2 1545  11.051   6.850   5.461
66550SOL     OW 1546  12.230   9.990   8.394
66550SOL    HW1 1547  12.171  10.048   8.346
66550SOL    HW2 1548  12.306  10.045   8.413
66551SOL     OW 1549   7.579   9.210   4.997
66551SOL    HW1 1550   7.603   9.128   5.040
66551SOL    HW2 1551   7.521   9.183   4.926
66552SOL     OW 1552   5.704   6.883   8.719
66552SOL    HW1 1553   5.737   6.958   8.768
66552SOL    HW2 1554   5.701   6.812   8.783
66553SOL     OW 1555   0.990   4.341   3.576
66553SOL    HW1 1556   0.919   4.356   3.513
66553SOL    HW2 1557   0.991   4.420   3.630
66554SOL     OW 1558   1.492   3.735   9.290
66554SOL    HW1 1559   1.429   3.663   9.287
66554SOL    HW2 1560   1.468   3.784   9.369
66555SOL     OW 1561   4.907   0.405   9.885
66555SOL    HW1 1562   4.916   0.442   9.798
66555SOL    HW2 1563   4.904   0.310   9.871
66556SOL     OW 1564  11.312   0.993   5.097
66556SOL    HW1 1565  11.339   1.082   5.074
66556SOL    HW2 1566  11.230   1.004   5.145
66557SOL     OW 1567   2.835   7.622   8.197
66557SOL    HW1 1568   2.863   7.682   8.128
66557SOL    HW2 1569   2.907   7.623   8.261
66558SOL     OW 1570   4.195  10.689   5.559
66558SOL    HW1 1571   4.130  10.759   5.548
66558SOL    HW2 1572   4.149  10.622   5.610
66559SOL     OW 1573   2.301   6.563   9.883
66559SOL    HW1 1574   2.390   6.593   9.900
66559SOL    HW2 1575   2.257   6.569   9.968
66560SOL     OW 1576   6.713  12.835   3.246
66560SOL    HW1 1577   6.660  12.911   3.225
66560SOL    HW2 1578   6.673  12.799   3.326
66561SOL     OW 1579   3.126  14.152   5.856
66561SOL    HW1 1580   3.134  14.209   5.780
66561SOL    HW2 1581   3.105  14.211   5.928
66562SOL     OW 1582   6.772   8.932   1.222
66562SOL    HW1 1583   6.743   8.846   1.253
66562SOL    HW2 1584   6.718   8.994   1.271
66563SOL     OW 1585  11.160   2.807   2.575
66563SOL    HW1 1586  11.078   2.802   2.525
66563SOL    HW2 1587  11.193   2.718   2.576
66564SOL     OW 1588   5.270  13.872   8.884
66564SOL    HW1 1589   5.324  13.819   8.824
66564SOL    HW2 1590   5.325  13.946   8.907
66565SOL     OW 1591   4.114   1.106   0.921
66565SOL    HW1 1592   4.066   1.182   0.952
66565SOL    HW2 1593   4.194   1.142   0.883
66566SOL     OW 1594   7.473   2.913   0.945
66566SOL    HW1 1595   7.527   2.966   0.887
66566SOL    HW2 1596   7.432   2.976   1.005
66567SOL     OW 1597   7.078   5.026  13.785
66567SOL    HW1 1598   6.984   5.030  13.767
66567SOL    HW2 1599   7.115   5.101  13.738
66568SOL     OW 1600  12.091   3.786   4.077
66568SOL    HW1 1601  12.172   3.763   4.031
66568SOL    HW2 1602  12.028   3.720   4.049
66569SOL     OW 1603  13.186   6.277   1.564
66569SOL    HW1 1604  13.186   6.225   1.484
66569SOL    HW2 1605  13.113   6.242   1.615
66570SOL     OW 1606  13.833   0.272   1.447
66570SOL    HW1 1607  13.899   0.204   1.435
66570SOL    HW2 1608  13.815   0.271   1.541
66571SOL     OW 1609   4.255  10.541   4.839
66571SOL    HW1 1610   4.313  10.617   4.845
66571SOL    HW2 1611   4.279  10.498   4.757
66572SOL     OW 1612  14.735   4.535   6.999
66572SOL    HW1 1613  14.778   4.616   6.973
66572SOL    HW2 1614  14.762   4.522   7.090
66573SOL     OW 1615   1.603   6.869   2.540
66573SOL    HW1 1616   1.636   6.780   2.555
66573SOL    HW2 1617   1.521   6.873   2.589
66574SOL     OW 1618  12.132   9.535   7.103
66574SOL    HW1 1619  12.038   9.544   7.089
66574SOL    HW2 1620  12.150   9.442   7.086
66575SOL     OW 1621   2.356   2.153  11.366
66575SOL    HW1 1622   2.394   2.217  11.425
66575SOL    HW2 1623   2.327   2.082  11.423
66576SOL     OW 1624   2.203   4.494  13.673
66576SOL    HW1 1625   2.245   4.415  13.640
66576SOL    HW2 1626   2.271   4.561  13.668
66577SOL     OW 1627   4.094  10.379   2.534
66577SOL    HW1 1628   4.065  10.388   2.625
66577SOL    HW2 1629   4.183  10.414   2.534
66578SOL     OW 1630   0.145   4.944   3.086
66578SOL    HW1 1631   0.124   4.866   3.138
66578SOL    HW2 1632   0.238   4.935   3.065
66579SOL     OW 1633   8.134  12.254   8.680
66579SOL    HW1 1634   8.062  12.299   8.724
66579SOL    HW2 1635   8.179  12.205   8.749
66580SOL     OW 1636   3.509   7.264   9.237
66580SOL    HW1 1637   3.478   7.304   9.318
66580SOL    HW2 1638   3.484   7.326   9.169
66581SOL     OW 1639  12.728   9.606   2.488
66581SOL    HW1 1640  12.786   9.537   2.456
66581SOL    HW2 1641  12.732   9.599   2.583
66582SOL     OW 1642   7.105   4.529   5.088
66582SOL    HW1 1643   7.151   4.584   5.024
66582SOL    HW2 1644   7.046   4.589   5.134
66583SOL     OW 1645  10.924   3.945   2.858
66583SOL    HW1 1646  11.002   3.890   2.864
66583SOL    HW2 1647  10.945   4.010   2.791
66584SOL     OW 1648   2.518   4.856   5.310
66584SOL    HW1 1649   2.523   4.945   5.344
66584SOL    HW2 1650   2.459   4.810   5.370
66585SOL     OW 1651   5.089  10.876   7.378
66585SOL    HW1 1652   5.164  10.912   7.332
66585SOL    HW2 1653   5.058  10.804   7.323
66586SOL     OW 1654  12.415   0.850  10.069
66586SOL    HW1 1655  12.434   0.774  10.014
66586SOL    HW2 1656  12.402   0.922  10.007
66587SOL     OW 1657   5.742   3.853   6.346
66587SOL    HW1 1658   5.667   3.874   6.402
66587SOL    HW2 1659   5.708   3.787   6.285
66588SOL     OW 1660   9.710   9.973   4.308
66588SOL    HW1 1661   9.676  10.052   4.265
66588SOL    HW2 1662   9.738   9.916   4.236
66589SOL     OW 1663   1.227   1.956   7.221
66589SOL    HW1 1664   1.153   2.013   7.199
66589SOL    HW2 1665   1.240   1.903   7.143
66590SOL     OW 1666  13.762   3.886   1.732
66590SOL    HW1 1667  13.825   3.850   1.795
66590SOL    HW2 1668  13.809   3.957   1.689
66591SOL     OW 1669   5.599   2.250   2.231
66591SOL    HW1 1670   5.578   2.343   2.239
66591SOL    HW2 1671   5.554   2.209   2.306
66592SOL     OW 1672   9.974   4.901  10.797
66592SOL    HW1 1673   9.938   4.843  10.730
66592SOL    HW2 1674  10.001   4.842  10.868
66593SOL     OW 1675   9.792   4.001  14.244
66593SOL    HW1 1676   9.761   4.042  14.325
66593SOL    HW2 1677   9.801   3.909  14.266
66594SOL     OW 1678   1.264   9.989   2.073
66594SOL    HW1 1679   1.261  10.032   2.159
66594SOL    HW2 1680   1.261   9.895   2.094
66595SOL     OW 1681   6.073   0.115   1.683
66595SOL    HW1 1682   6.165   0.143   1.682
66595SOL    HW2 1683   6.071   0.038   1.627
66596SOL     OW 1684   5.934  10.732   3.609
66596SOL    HW1 1685   5.874  10.807   3.603
66596SOL    HW2 1686   5.934  10.695   3.521
66597SOL     OW 1687  11.701   0.951  13.600
66597SOL    HW1 1688  11.706   0.894  13.676
66597SOL    HW2 1689  11.640   0.907  13.540
66598SOL     OW 1690  10.959  11.023   8.683
66598SOL    HW1 1691  10.968  10.934   8.717
66598SOL    HW2 1692  10.925  11.074   8.757
66599SOL     OW 1693   4.172   8.813   7.056
66599SOL    HW1 1694   4.219   8.761   6.991
66599SOL    HW2 1695   4.236   8.878   7.086
66600SOL     OW 1696   2.139   5.663   1.417
66600SOL    HW1 1697   2.092   5.725   1.472
66600SOL    HW2 1698   2.073   5.599   1.391
66601SOL     OW 1699   1.460   1.760   0.670
66601SOL    HW1 1700   1.394   1.773   0.738
66601SOL    HW2 1701   1.409   1.744   0.591
66602SOL     OW 1702   5.662   3.901   5.607
66602SOL    HW1 1703   5.620   3.846   5.673
66602SOL    HW2 1704   5.596   3.965   5.582
66603SOL     OW 1705  11.353   0.781   1.579
66603SOL    HW1 1706  11.367   0.751   1.668
66603SOL    HW2 1707  11.321   0.704   1.532
66604SOL     OW 1708   6.716   1.653  13.328
66604SOL    HW1 1709   6.739   1.718  13.394
66604SOL    HW2 1710   6.760   1.573  13.357
66605SOL     OW 1711  12.232   3.166   1.954
66605SOL    HW1 1712  12.137   3.159   1.947
66605SOL    HW2 1713  12.256   3.101   2.020
66606SOL     OW 1714   4.550   7.931   6.518
66606SOL    HW1 1715   4.644   7.939   6.504
66606SOL    HW2 1716   4.541   7.865   6.587
66607SOL     OW 1717   7.808  14.232   9.863
66607SOL    HW1 1718   7.858  14.312   9.878
66607SOL    HW2 1719   7.725  14.262   9.826
66608SOL     OW 1720  11.598  11.717   9.061
66608SOL    HW1 1721  11.618  11.747   8.972
66608SOL    HW2 1722  11.557  11.793   9.103
66609SOL     OW 1723  11.990  11.427   7.416
66609SOL    HW1 1724  11.913  11.438   7.360
66609SOL    HW2 1725  12.028  11.344   7.388
66610SOL     OW 1726   8.048   1.261  13.134
66610SOL    HW1 1727   7.969   1.248  13.082
66610SOL    HW2 1728   8.085   1.344  13.102
66611SOL     OW 1729  14.622   1.743   8.760
66611SOL    HW1 1730  14.573   1.663   8.746
66611SOL    HW2 1731  14.693   1.718   8.819
66612SOL     OW 1732   6.999   6.324   4.685
66612SOL    HW1 1733   7.042   6.243   4.712
66612SOL    HW2 1734   7.003   6.380   4.763
66613SOL     OW 1735   4.097  13.836   5.022
66613SOL    HW1 1736   4.119  13.881   4.941
66613SOL    HW2 1737   4.097  13.904   5.089
66614SOL     OW 1738   6.192   4.604   3.493
66614SOL    HW1 1739   6.184   4.677   3.431
66614SOL    HW2 1740   6.240   4.641   3.567
66615SOL     OW 1741  12.051   6.660   5.689
66615SOL    HW1 1742  12.139   6.640   5.722
66615SOL    HW2 1743  12.040   6.754   5.706
66616SOL     OW 1744  10.474   1.220   3.582
66616SOL    HW1 1745  10.537   1.151   3.562
66616SOL    HW2 1746  10.393   1.192   3.538
66617SOL     OW 1747   6.659   4.614  10.956
66617SOL    HW1 1748   6.655   4.649  10.867
66617SOL    HW2 1749   6.659   4.692  11.012
66618SOL     OW 1750  13.359   2.345   4.786
66618SOL    HW1 1751  13.384   2.255   4.805
66618SOL    HW2 1752  13.373   2.355   4.692
66619SOL     OW 1753  10.928   0.089   3.021
66619SOL    HW1 1754  10.948   0.007   3.067
66619SOL    HW2 1755  10.913   0.062   2.930
66620SOL     OW 1756  12.630   9.259   6.298
66620SOL    HW1 1757  12.598   9.263   6.388
66620SOL    HW2 1758  12.645   9.166   6.282
66621SOL     OW 1759   2.224   2.472   5.653
66621SOL    HW1 1760   2.225   2.380   5.679
66621SOL    HW2 1761   2.279   2.475   5.575
66622SOL     OW 1762   5.749   9.113   4.746
66622SOL    HW1 1763   5.747   9.147   4.835
66622SOL    HW2 1764   5.839   9.082   4.734
66623SOL     OW 1765   9.623   1.716  10.711
66623SOL    HW1 1766   9.629   1.644  10.774
66623SOL    HW2 1767   9.578   1.678  10.636
66624SOL     OW 1768   5.248  11.113   5.490
66624SOL    HW1 1769   5.293  11.151   5.564
66624SOL    HW2 1770   5.294  11.030   5.473
66625SOL     OW 1771   2.330  12.025  11.375
66625SOL    HW1 1772   2.281  12.006  11.295
66625SOL    HW2 1773   2.351  11.939  11.411
66626SOL     OW 1774   6.826   2.737  12.335
66626SOL    HW1 1775   6.874   2.811  12.298
66626SOL    HW2 1776   6.740   2.772  12.355
66627SOL     OW 1777  13.495   5.914   9.236
66627SOL    HW1 1778  13.539   5.893   9.318
66627SOL    HW2 1779  13.513   5.839   9.180
66628SOL     OW 1780   6.490   7.497   9.650
66628SOL    HW1 1781   6.407   7.528   9.685
66628SOL    HW2 1782   6.477   7.495   9.555
66629SOL     OW 1783  13.667   6.053   2.325
66629SOL    HW1 1784  13.718   6.111   2.268
66629SOL    HW2 1785  13.619   6.111   2.382
66630SOL     OW 1786  11.251   1.822   4.108
66630SOL    HW1 1787  11.165   1.850   4.139
66630SOL    HW2 1788  11.308   1.896   4.126
66631SOL     OW 1789   3.627   5.318   9.072
66631SOL    HW1 1790   3.627   5.392   9.010
66631SOL    HW2 1791   3.695   5.341   9.136
66632SOL     OW 1792  14.358  14.339  12.924
66632SOL    HW1 1793  14.400  14.268  12.973
66632SOL    HW2 1794  14.403  14.338  12.839
66633SOL     OW 1795   3.407   4.205   6.010
66633SOL    HW1 1796   3.380   4.142   5.943
66633SOL    HW2 1797   3.497   4.180   6.031
66634SOL     OW 1798   7.800   1.871   0.962
66634SOL    HW1 1799   7.805   1.894   1.054
66634SOL    HW2 1800   7.811   1.776   0.960
66635SOL     OW 1801   2.277   0.742   9.389
66635SOL    HW1 1802   2.301   0.687   9.464
66635SOL    HW2 1803   2.185   0.722   9.374
66636SOL     OW 1804   8.175   7.142   9.415
66636SOL    HW1 1805   8.191   7.172   9.325
66636SOL    HW2 1806   8.136   7.218   9.458
66637SOL     OW 1807   5.374   2.614   9.870
66637SOL    HW1 1808   5.360   2.613   9.776
66637SOL    HW2 1809   5.438   2.685   9.884
66638SOL     OW 1810   4.429  14.852   3.175
66638SOL    HW1 1811   4.419  14.806   3.258
66638SOL    HW2 1812   4.339  14.874   3.149
66639SOL     OW 1813   8.083  14.608  13.269
66639SOL    HW1 1814   8.056  14.662  13.343
66639SOL    HW2 1815   8.139  14.665  13.217
66640SOL     OW 1816   2.673   8.710  10.659
66640SOL    HW1 1817   2.595   8.763  10.675
66640SOL    HW2 1818   2.705   8.688  10.746
66641SOL     OW 1819   5.979   1.907  12.578
66641SOL    HW1 1820   5.988   1.817  12.608
66641SOL    HW2 1821   6.064   1.928  12.538
66642SOL     OW 1822   3.053   5.434   1.034
66642SOL    HW1 1823   3.135   5.384   1.030
66642SOL    HW2 1824   3.025   5.441   0.943
66643SOL     OW 1825   4.343   4.400   4.638
66643SOL    HW1 1826   4.362   4.458   4.564
66643SOL    HW2 1827   4.249   4.380   4.629
66644SOL     OW 1828  13.361  10.792   2.816
66644SOL    HW1 1829  13.381  10.823   2.727
66644SOL    HW2 1830  13.403  10.856   2.873
66645SOL     OW 1831   5.611   3.801  14.372
66645SOL    HW1 1832   5.673   3.738  14.410
66645SOL    HW2 1833   5.555   3.747  14.316
66646SOL     OW 1834   9.665   9.698  11.236
66646SOL    HW1 1835   9.692   9.787  11.256
66646SOL    HW2 1836   9.641   9.700  11.143
66647SOL     OW 1837   2.749   7.593   5.675
66647SOL    HW1 1838   2.800   7.673   5.683
66647SOL    HW2 1839   2.810   7.530   5.636
66648SOL     OW 1840   1.073   4.774   1.523
66648SOL    HW1 1841   1.087   4.825   1.444
66648SOL    HW2 1842   1.067   4.683   1.493
66649SOL     OW 1843  14.664  13.913   5.026
66649SOL    HW1 1844  14.694  13.837   4.977
66649SOL    HW2 1845  14.614  13.965   4.962
66650SOL     OW 1846   3.222   8.213  12.043
66650SOL    HW1 1847   3.139   8.196  12.088
66650SOL    HW2 1848   3.241   8.305  12.062
66651SOL     OW 1849   0.226   9.239  10.662
66651SOL    HW1 1850   0.215   9.211  10.571
66651SOL    HW2 1851   0.148   9.204  10.707
66652SOL     OW 1852   1.922   6.355   1.356
66652SOL    HW1 1853   1.842   6.400   1.384
66652SOL    HW2 1854   1.937   6.289   1.423
66653SOL     OW 1855   3.541  10.889  11.866
66653SOL    HW1 1856   3.474  10.821  11.866
66653SOL    HW2 1857   3.612  10.853  11.919
66654SOL     OW 1858  12.975   5.480   7.828
66654SOL    HW1 1859  12.956   5.426   7.750
66654SOL    HW2 1860  13.020   5.557   7.793
66655SOL     OW 1861  14.805   2.059   7.813
66655SOL    HW1 1862  14.806   2.006   7.733
66655SOL    HW2 1863  14.712   2.067   7.836
66656SOL     OW 1864   7.947   9.751   0.521
66656SOL    HW1 1865   8.042   9.763   0.526
66656SOL    HW2 1866   7.935   9.663   0.485
66657SOL     OW 1867   7.569   6.042   0.969
66657SOL    HW1 1868   7.483   6.083   0.969
66657SOL    HW2 1869   7.627   6.109   0.932
66658SOL     OW 1870   9.441   7.718   2.063
66658SOL    HW1 1871   9.442   7.757   2.151
66658SOL    HW2 1872   9.377   7.770   2.014
66659SOL     OW 1873  10.765   9.421  11.627
66659SOL    HW1 1874  10.720   9.341  11.602
66659SOL    HW2 1875  10.710   9.458  11.696
66660SOL     OW 1876   4.440  11.204  11.545
66660SOL    HW1 1877   4.535  11.203  11.548
66660SOL    HW2 1878   4.417  11.297  11.541
66661SOL     OW 1879   4.815   5.760  13.209
66661SOL    HW1 1880   4.818   5.665  13.197
66661SOL    HW2 1881   4.755   5.772  13.283
66662SOL     OW 1882   8.513   1.266   0.544
66662SOL    HW1 1883   8.419   1.284   0.533
66662SOL    HW2 1884   8.532   1.199   0.479
66663SOL     OW 1885   4.798   4.089   4.348
66663SOL    HW1 1886   4.704   4.103   4.346
66663SOL    HW2 1887   4.834   4.172   4.379
66664SOL     OW 1888   1.214   6.126   4.450
66664SOL    HW1 1889   1.154   6.070   4.401
66664SOL    HW2 1890   1.238   6.072   4.526
66665SOL     OW 1891  12.354   3.062  10.531
66665SOL    HW1 1892  12.430   3.039  10.584
66665SOL    HW2 1893  12.283   3.009  10.566
66666SOL     OW 1894   8.022   9.112   5.267
66666SOL    HW1 1895   8.010   9.135   5.360
66666SOL    HW2 1896   7.945   9.150   5.223
66667SOL     OW 1897   9.600   8.819   6.679
66667SOL    HW1 1898   9.508   8.796   6.692
66667SOL    HW2 1899   9.602   8.864   6.594
66668SOL     OW 1900   9.845  12.738   9.888
66668SOL    HW1 1901   9.906  12.669   9.913
66668SOL    HW2 1902   9.758  12.699   9.899
66669SOL     OW 1903  13.743  10.819  12.494
66669SOL    HW1 1904  13.705  10.766  12.564
66669SOL    HW2 1905  13.739  10.909  12.527
66670SOL     OW 1906   5.638   7.884   8.564
66670SOL    HW1 1907   5.594   7.814   8.514
66670SOL    HW2 1908   5.659   7.843   8.648
66671SOL     OW 1909   5.910   4.276  11.639
66671SOL    HW1 1910   5.911   4.355  11.694
66671SOL    HW2 1911   6.001   4.264  11.613
66672SOL     OW 1912   8.683  11.070   1.999
66672SOL    HW1 1913   8.640  10.989   2.028
66672SOL    HW2 1914   8.727  11.102   2.078
66673SOL     OW 1915  14.076   9.907   9.287
66673SOL    HW1 1916  14.145   9.890   9.351
66673SOL    HW2 1917  14.120   9.899   9.202
66674SOL     OW 1918  14.706  14.324   7.187
66674SOL    HW1 1919  14.667  14.271   7.117
66674SOL    HW2 1920  14.746  14.398   7.141
66675SOL     OW 1921   6.068  12.061  13.540
66675SOL    HW1 1922   6.143  12.082  13.596
66675SOL    HW2 1923   6.107  12.015  13.466
66676SOL     OW 1924   3.278  13.248   9.228
66676SOL    HW1 1925   3.191  13.270   9.263
66676SOL    HW2 1926   3.278  13.153   9.223
66677SOL     OW 1927   3.599   2.959   1.930
66677SOL    HW1 1928   3.692   2.942   1.921
66677SOL    HW2 1929   3.577   2.931   2.019
66678SOL     OW 1930   0.108   4.014   0.702
66678SOL    HW1 1931   0.048   3.947   0.735
66678SOL    HW2 1932   0.150   3.974   0.626
66679SOL     OW 1933   6.337   7.824  14.471
66679SOL    HW1 1934   6.350   7.797  14.380
66679SOL    HW2 1935   6.421   7.806  14.514
66680SOL     OW 1936  10.363   5.422   7.193
66680SOL    HW1 1937  10.384   5.330   7.174
66680SOL    HW2 1938  10.269   5.429   7.175
66681SOL     OW 1939  10.759   7.912   8.504
66681SOL    HW1 1940  10.672   7.949   8.519
66681SOL    HW2 1941  10.753   7.823   8.539
66682SOL     OW 1942   0.232   0.332  10.222
66682SOL    HW1 1943   0.181   0.253  10.201
66682SOL    HW2 1944   0.191   0.367  10.300
66683SOL     OW 1945   8.203   6.199  12.790
66683SOL    HW1 1946   8.264   6.271  12.772
66683SOL    HW2 1947   8.136   6.206  12.722
66684SOL     OW 1948   8.276   4.659   4.475
66684SOL    HW1 1949   8.197   4.638   4.426
66684SOL    HW2 1950   8.244   4.697   4.557
66685SOL     OW 1951   7.792   3.747  11.464
66685SOL    HW1 1952   7.737   3.700  11.526
66685SOL    HW2 1953   7.747   3.829  11.449
66686SOL     OW 1954   0.690   8.888   9.432
66686SOL    HW1 1955   0.762   8.829   9.408
66686SOL    HW2 1956   0.619   8.864   9.372
66687SOL     OW 1957  10.507  10.892  11.581
66687SOL    HW1 1958  10.540  10.810  11.618
66687SOL    HW2 1959  10.434  10.917  11.638
66688SOL     OW 1960   7.820  14.328  12.926
66688SOL    HW1 1961   7.808  14.414  12.885
66688SOL    HW2 1962   7.755  14.272  12.885
66689SOL     OW 1963   5.234   0.220   3.957
66689SOL    HW1 1964   5.181   0.284   3.911
66689SOL    HW2 1965   5.303   0.196   3.895
66690SOL     OW 1966   6.845  10.068  14.559
66690SOL    HW1 1967   6.813  10.098  14.644
66690SOL    HW2 1968   6.844   9.973  14.565
66691SOL     OW 1969   3.358   3.456   2.901
66691SOL    HW1 1970   3.271   3.447   2.940
66691SOL    HW2 1971   3.387   3.543   2.927
66692SOL     OW 1972   1.254   3.803  12.103
66692SOL    HW1 1973   1.195   3.754  12.161
66692SOL    HW2 1974   1.335   3.751  12.101
66693SOL     OW 1975   7.340   0.010   6.728
66693SOL    HW1 1976   7.406   0.001   6.796
66693SOL    HW2 1977   7.363   0.091   6.683
66694SOL     OW 1978   9.978   5.574   0.379
66694SOL    HW1 1979   9.886   5.560   0.358
66694SOL    HW2 1980  10.008   5.492   0.418
66695SOL     OW 1981   9.873   3.047   9.569
66695SOL    HW1 1982   9.899   3.015   9.656
66695SOL    HW2 1983   9.791   3.094   9.585
66696SOL     OW 1984  11.066   0.737  14.642
66696SOL    HW1 1985  11.085   0.646  14.667
66696SOL    HW2 1986  10.977   0.752  14.675
66697SOL     OW 1987   5.201  11.701   2.609
66697SOL    HW1 1988   5.251  11.654   2.542
66697SOL    HW2 1989   5.109  11.684   2.587
66698SOL     OW 1990  10.129  12.658   3.367
66698SOL    HW1 1991  10.076  12.643   3.288
66698SOL    HW2 1992  10.214  12.620   3.346
66699SOL     OW 1993   6.705   9.758   8.459
66699SOL    HW1 1994   6.630   9.701   8.444
66699SOL    HW2 1995   6.667   9.841   8.487
66700SOL     OW 1996  10.296   4.301   6.239
66700SOL    HW1 1997  10.357   4.357   6.190
66700SOL    HW2 1998  10.353   4.242   6.289
66701SOL     OW 1999   7.109   0.975  13.849
66701SOL    HW1 2000   7.178   1.037  13.873
66701SOL    HW2 2001   7.132   0.945  13.761
66702SOL     OW 2002  13.991  14.736  13.853
66702SOL    HW1 2003  13.989  14.812  13.910
66702SOL    HW2 2004  13.971  14.662  13.911
66703SOL     OW 2005  10.774   6.145   6.271
66703SOL    HW1 2006  10.734   6.179   6.351
66703SOL    HW2 2007  10.725   6.064   6.253
66704SOL     OW 2008  12.486   0.488   0.269
66704SOL    HW1 2009  12.434   0.408   0.283
66704SOL    HW2 2010  12.426   0.548   0.225
66705SOL     OW 2011  11.548   5.693   8.126
66705SOL    HW1 2012  11.564   5.604   8.157
66705SOL    HW2 2013  11.525   5.683   8.034
66706SOL     OW 2014  14.125   2.567   8.358
66706SOL    HW1 2015  14.118   2.627   8.284
66706SOL    HW2 2016  14.109   2.480   8.321
66707SOL     OW 2017  10.316   0.125   7.847
66707SOL    HW1 2018  10.313   0.080   7.762
66707SOL    HW2 2019  10.333   0.217   7.825
66708SOL     OW 2020  14.488   0.402  14.011
66708SOL    HW1 2021  14.409   0.349  14.021
66708SOL    HW2 2022  14.484   0.434  13.921
66709SOL     OW 2023  11.739   4.739   7.968
66709SOL    HW1 2024  11.820   4.750   7.918
66709SOL    HW2 2025  11.722   4.645   7.964
66710SOL     OW 2026   4.354   0.509   8.542
66710SOL    HW1 2027   4.356   0.414   8.535
66710SOL    HW2 2028   4.370   0.541   8.453
66711SOL     OW 2029   3.673   4.776   4.425
66711SOL    HW1 2030   3.716   4.856   4.394
66711SOL    HW2 2031   3.671   4.786   4.520
66712SOL     OW 2032   0.649   6.191   9.078
66712SOL    HW1 2033   0.597   6.249   9.023
66712SOL    HW2 2034   0.606   6.196   9.164
66713SOL     OW 2035   3.962  14.705   6.158
66713SOL    HW1 2036   3.927  14.728   6.072
66713SOL    HW2 2037   3.998  14.617   6.146
66714SOL     OW 2038  12.625   7.085   3.493
66714SOL    HW1 2039  12.685   7.032   3.440
66714SOL    HW2 2040  12.640   7.055   3.583
66715SOL     OW 2041   1.739  11.126   6.443
66715SOL    HW1 2042   1.794  11.201   6.464
66715SOL    HW2 2043   1.654  11.163   6.422
66716SOL     OW 2044   3.267   4.542   4.005
66716SOL    HW1 2045   3.355   4.578   4.016
66716SOL    HW2 2046   3.274   4.486   3.927
66717SOL     OW 2047   5.585   4.120   7.131
66717SOL    HW1 2048   5.596   4.212   7.107
66717SOL    HW2 2049   5.672   4.093   7.162
66718SOL     OW 2050   7.536   2.680   8.839
66718SOL    HW1 2051   7.623   2.643   8.824
66718SOL    HW2 2052   7.505   2.706   8.752
66719SOL     OW 2053   8.427  10.735  11.488
66719SOL    HW1 2054   8.364  10.785  11.540
66719SOL    HW2 2055   8.386  10.726  11.402
66720SOL     OW 2056  11.073   4.418  10.851
66720SOL    HW1 2057  11.007   4.463  10.798
66720SOL    HW2 2058  11.030   4.337  10.878
66721SOL     OW 2059   0.017  12.102   1.230
66721SOL    HW1 2060   0.035  12.018   1.272
66721SOL    HW2 2061  14.851  12.080   1.148
66722SOL     OW 2062   2.458   5.331   3.000
66722SOL    HW1 2063   2.532   5.320   2.940
66722SOL    HW2 2064   2.437   5.424   2.997
66723SOL     OW 2065   7.760   5.110   9.716
66723SOL    HW1 2066   7.789   5.148   9.799
66723SOL    HW2 2067   7.698   5.042   9.742
66724SOL     OW 2068  13.857   0.719   1.241
66724SOL    HW1 2069  13.895   0.676   1.317
66724SOL    HW2 2070  13.762   0.713   1.254
66725SOL     OW 2071  10.442  12.447   0.117
66725SOL    HW1 2072  10.421  12.491   0.035
66725SOL    HW2 2073  10.530  12.477   0.139
66726SOL     OW 2074   2.560   9.246   6.716
66726SOL    HW1 2075   2.491   9.313   6.718
66726SOL    HW2 2076   2.589   9.238   6.807
66727SOL     OW 2077  10.748  11.920  13.442
66727SOL    HW1 2078  10.837  11.888  13.457
66727SOL    HW2 2079  10.736  11.988  13.508
66728SOL     OW 2080  13.845   0.284   8.278
66728SOL    HW1 2081  13.871   0.237   8.199
66728SOL    HW2 2082  13.866   0.224   8.350
66729SOL     OW 2083   3.280  14.560   5.769
66729SOL    HW1 2084   3.259  14.477   5.727
66729SOL    HW2 2085   3.312  14.616   5.698
66730SOL     OW 2086  13.796   0.666   6.910
66730SOL    HW1 2087  13.765   0.703   6.828
66730SOL    HW2 2088  13.869   0.609   6.885
66731SOL     OW 2089  10.268   8.316   7.080
66731SOL    HW1 2090  10.321   8.330   7.159
66731SOL    HW2 2091  10.289   8.392   7.025
66732SOL     OW 2092   9.511  11.350   9.035
66732SOL    HW1 2093   9.551  11.420   8.983
66732SOL    HW2 2094   9.499  11.278   8.973
66733SOL     OW 2095   5.079   4.560   8.690
66733SOL    HW1 2096   5.003   4.607   8.724
66733SOL    HW2 2097   5.149   4.626   8.688
66734SOL     OW 2098  10.091  13.455   2.589
66734SOL    HW1 2099  10.070  13.529   2.531
66734SOL    HW2 2100  10.072  13.488   2.677
66735SOL     OW 2101  10.100   2.154  14.109
66735SOL    HW1 2102  10.140   2.111  14.184
66735SOL    HW2 2103  10.006   2.155  14.129
66736SOL     OW 2104  14.003  10.839   2.540
66736SOL    HW1 2105  14.077  10.780   2.554
66736SOL    HW2 2106  13.929  10.781   2.523
66737SOL     OW 2107  11.596  11.863   4.902
66737SOL    HW1 2108  11.523  11.880   4.843
66737SOL    HW2 2109  11.672  11.900   4.856
66738SOL     OW 2110   9.409   5.395   2.788
66738SOL    HW1 2111   9.322   5.399   2.750
66738SOL    HW2 2112   9.435   5.303   2.780
66739SOL     OW 2113   0.764  13.472   3.720
66739SOL    HW1 2114   0.856  13.489   3.701
66739SOL    HW2 2115   0.765  13.397   3.779
66740SOL     OW 2116   2.929   2.171   7.583
66740SOL    HW1 2117   2.892   2.167   7.671
66740SOL    HW2 2118   2.913   2.084   7.546
66741SOL     OW 2119   3.829   2.786   7.693
66741SOL    HW1 2120   3.865   2.712   7.741
66741SOL    HW2 2121   3.904   2.825   7.648
66742SOL     OW 2122   9.468   2.020   0.525
66742SOL    HW1 2123   9.435   1.947   0.473
66742SOL    HW2 2124   9.523   2.070   0.465
66743SOL     OW 2125   9.257   7.063   3.244
66743SOL    HW1 2126   9.224   7.152   3.259
66743SOL    HW2 2127   9.349   7.067   3.272
66744SOL     OW 2128   0.378  14.418   0.163
66744SOL    HW1 2129   0.461  14.383   0.193
66744SOL    HW2 2130   0.386  14.513   0.175
66745SOL     OW 2131  12.851   6.720  11.110
66745SOL    HW1 2132  12.937   6.760  11.098
66745SOL    HW2 2133  12.821   6.700  11.022
66746SOL     OW 2134  12.278   2.183  10.620
66746SOL    HW1 2135  12.262   2.108  10.563
66746SOL    HW2 2136  12.273   2.148  10.709
66747SOL     OW 2137  13.639  12.978  12.969
66747SOL    HW1 2138  13.666  12.887  12.983
66747SOL    HW2 2139  13.574  12.973  12.899
66748SOL     OW 2140   5.102  10.472   6.700
66748SOL    HW1 2141   5.055  10.402   6.745
66748SOL    HW2 2142   5.034  10.520   6.653
66749SOL     OW 2143  11.860   9.847   4.558
66749SOL    HW1 2144  11.796   9.788   4.518
66749SOL    HW2 2145  11.823   9.935   4.546
66750SOL     OW 2146  13.294  11.282   1.651
66750SOL    HW1 2147  13.341  11.251   1.574
66750SOL    HW2 2148  13.334  11.366   1.672
66751SOL     OW 2149  12.302   9.411   0.049
66751SOL    HW1 2150  12.221   9.462   0.047
66751SOL    HW2 2151  12.330   9.415   0.141
66752SOL     OW 2152   2.900  14.529   9.303
66752SOL    HW1 2153   2.841  14.598   9.273
66752SOL    HW2 2154   2.973  14.576   9.344
66753SOL     OW 2155   9.303  13.847  14.000
66753SOL    HW1 2156   9.396  13.849  13.976
66753SOL    HW2 2157   9.257  13.836  13.917
66754SOL     OW 2158  14.202   7.393  14.473
66754SOL    HW1 2159  14.132   7.393  14.538
66754SOL    HW2 2160  14.259   7.466  14.498
66755SOL     OW 2161   9.998  14.016  11.338
66755SOL    HW1 2162   9.902  14.021  11.344
66755SOL    HW2 2163  10.017  14.013  11.245
66756SOL     OW 2164   9.834   0.316  12.551
66756SOL    HW1 2165   9.788   0.266  12.483
66756SOL    HW2 2166   9.791   0.292  12.632
66757SOL     OW 2167   3.538   5.245  12.611
66757SOL    HW1 2168   3.608   5.304  12.584
66757SOL    HW2 2169   3.572   5.157  12.595
66758SOL     OW 2170  14.331   8.209  10.963
66758SOL    HW1 2171  14.270   8.254  11.022
66758SOL    HW2 2172  14.281   8.196  10.883
66759SOL     OW 2173  12.349  13.875   4.840
66759SOL    HW1 2174  12.276  13.938   4.842
66759SOL    HW2 2175  12.318  13.802   4.894
66760SOL     OW 2176  13.805   5.486   9.339
66760SOL    HW1 2177  13.872   5.531   9.286
66760SOL    HW2 2178  13.848   5.405   9.366
66761SOL     OW 2179   5.553  11.756  12.374
66761SOL    HW1 2180   5.601  11.837  12.395
66761SOL    HW2 2181   5.529  11.766  12.282
66762SOL     OW 2182   3.216  10.682  12.927
66762SOL    HW1 2183   3.260  10.754  12.882
66762SOL    HW2 2184   3.125  10.711  12.936
66763SOL     OW 2185  11.683  13.476   2.901
66763SOL    HW1 2186  11.651  13.562   2.927
66763SOL    HW2 2187  11.658  13.418   2.973
66764SOL     OW 2188  10.972   1.436  10.601
66764SOL    HW1 2189  10.893   1.403  10.645
66764SOL    HW2 2190  10.995   1.516  10.649
66765SOL     OW 2191  10.878   9.093   6.190
66765SOL    HW1 2192  10.925   9.145   6.125
66765SOL    HW2 2193  10.947   9.052   6.243
66766SOL     OW 2194   9.434   0.507   8.418
66766SOL    HW1 2195   9.461   0.445   8.486
66766SOL    HW2 2196   9.340   0.520   8.433
66767SOL     OW 2197  12.711   8.963   0.847
66767SOL    HW1 2198  12.772   8.910   0.795
66767SOL    HW2 2199  12.629   8.960   0.798
66768SOL     OW 2200   9.223  10.252   4.590
66768SOL    HW1 2201   9.207  10.325   4.530
66768SOL    HW2 2202   9.187  10.281   4.674
66769SOL     OW 2203   2.414   5.096  13.445
66769SOL    HW1 2204   2.430   5.191  13.445
66769SOL    HW2 2205   2.322   5.088  13.471
66770SOL     OW 2206   9.999   4.504  10.508
66770SOL    HW1 2207   9.921   4.448  10.514
66770SOL    HW2 2208  10.072   4.442  10.501
66771SOL     OW 2209   7.842   6.953   3.978
66771SOL    HW1 2210   7.807   7.007   3.906
66771SOL    HW2 2211   7.766   6.905   4.011
66772SOL     OW 2212  10.687  12.409   9.852
66772SOL    HW1 2213  10.648  12.469   9.788
66772SOL    HW2 2214  10.617  12.347   9.873
66773SOL     OW 2215   8.766  13.534   1.883
66773SOL    HW1 2216   8.794  13.492   1.965
66773SOL    HW2 2217   8.733  13.620   1.910
66774SOL     OW 2218  11.834  11.530   1.893
66774SOL    HW1 2219  11.820  11.435   1.884
66774SOL    HW2 2220  11.929  11.539   1.899
66775SOL     OW 2221   6.013   8.532   4.374
66775SOL    HW1 2222   6.049   8.490   4.452
66775SOL    HW2 2223   5.981   8.460   4.320
66776SOL     OW 2224  10.203   6.896   7.676
66776SOL    HW1 2225  10.245   6.828   7.729
66776SOL    HW2 2226  10.251   6.976   7.697
66777SOL     OW 2227   2.897   6.756   8.203
66777SOL    HW1 2228   2.968   6.732   8.262
66777SOL    HW2 2229   2.850   6.674   8.188
66778SOL     OW 2230  10.924   4.486   0.909
66778SOL    HW1 2231  10.942   4.400   0.872
66778SOL    HW2 2232  11.007   4.515   0.946
66779SOL     OW 2233   0.193   7.441   0.669
66779SOL    HW1 2234   0.183   7.377   0.740
66779SOL    HW2 2235   0.171   7.393   0.590
66780SOL     OW 2236  13.000  10.432   8.585
66780SOL    HW1 2237  12.971  10.516   8.620
66780SOL    HW2 2238  13.082  10.451   8.540
66781SOL     OW 2239  12.834   9.663   3.878
66781SOL    HW1 2240  12.908   9.603   3.867
66781SOL    HW2 2241  12.802   9.646   3.966
66782SOL     OW 2242   0.174  11.449  12.961
66782SOL    HW1 2243   0.178  11.358  12.930
66782SOL    HW2 2244   0.179  11.502  12.882
66783SOL     OW 2245   4.228   5.326   3.821
66783SOL    HW1 2246   4.245   5.361   3.908
66783SOL    HW2 2247   4.212   5.402   3.766
66784SOL     OW 2248   8.935   5.894   0.830
66784SOL    HW1 2249   8.964   5.979   0.861
66784SOL    HW2 2250   8.937   5.900   0.734
66785SOL     OW 2251   3.464   8.744   3.145
66785SOL    HW1 2252   3.531   8.692   3.190
66785SOL    HW2 2253   3.409   8.778   3.215
66786SOL     OW 2254   0.879   5.383   2.642
66786SOL    HW1 2255   0.886   5.388   2.737
66786SOL    HW2 2256   0.786   5.375   2.625
66787SOL     OW 2257  10.769   4.357  12.178
66787SOL    HW1 2258  10.688   4.401  12.201
66787SOL    HW2 2259  10.744   4.266  12.163
66788SOL     OW 2260  13.818  12.011   1.865
66788SOL    HW1 2261  13.760  12.021   1.790
66788SOL    HW2 2262  13.792  12.081   1.925
66789SOL     OW 2263   2.659   7.985   2.970
66789SOL    HW1 2264   2.635   7.924   3.040
66789SOL    HW2 2265   2.751   7.965   2.951
66790SOL     OW 2266   1.139  14.414   2.719
66790SOL    HW1 2267   1.060  14.433   2.769
66790SOL    HW2 2268   1.113  14.347   2.656
66791SOL     OW 2269   7.224   3.381  12.863
66791SOL    HW1 2270   7.279   3.342  12.794
66791SOL    HW2 2271   7.277   3.454  12.896
66792SOL     OW 2272  13.361  12.218  11.659
66792SOL    HW1 2273  13.410  12.236  11.739
66792SOL    HW2 2274  13.331  12.127  11.669
66793SOL     OW 2275  10.368   8.717  14.835
66793SOL    HW1 2276  10.389   8.795   0.008
66793SOL    HW2 2277  10.275   8.727  14.813
66794SOL     OW 2278   6.926   9.080   8.972
66794SOL    HW1 2279   6.986   9.146   9.008
66794SOL    HW2 2280   6.858   9.070   9.038
66795SOL     OW 2281   7.195  10.397   2.394
66795SOL    HW1 2282   7.197  10.433   2.483
66795SOL    HW2 2283   7.125  10.447   2.350
66796SOL     OW 2284   8.938   9.321   0.738
66796SOL    HW1 2285   8.900   9.236   0.717
66796SOL    HW2 2286   8.968   9.356   0.654
66797SOL     OW 2287  12.096   4.175  10.890
66797SOL    HW1 2288  12.030   4.230  10.849
66797SOL    HW2 2289  12.161   4.237  10.924
66798SOL     OW 2290  12.767   0.177   8.174
66798SOL    HW1 2291  12.715   0.127   8.237
66798SOL    HW2 2292  12.717   0.258   8.161
66799SOL     OW 2293   2.610  10.296   3.553
66799SOL    HW1 2294   2.631  10.207   3.525
66799SOL    HW2 2295   2.515  10.298   3.559
66800SOL     OW 2296  11.866  11.612   3.501
66800SOL    HW1 2297  11.913  11.586   3.422
66800SOL    HW2 2298  11.773  11.606   3.477
66801SOL     OW 2299   3.373  13.881   5.548
66801SOL    HW1 2300   3.373  13.963   5.597
66801SOL    HW2 2301   3.462  13.848   5.558
66802SOL     OW 2302   5.362   5.976   5.250
66802SOL    HW1 2303   5.287   6.028   5.278
66802SOL    HW2 2304   5.387   6.013   5.165
66803SOL     OW 2305   2.488  13.668  13.196
66803SOL    HW1 2306   2.546  13.605  13.239
66803SOL    HW2 2307   2.471  13.630  13.110
66804SOL     OW 2308  10.244  13.986   8.613
66804SOL    HW1 2309  10.181  14.050   8.646
66804SOL    HW2 2310  10.204  13.901   8.631
66805SOL     OW 2311   5.661  10.771  12.281
66805SOL    HW1 2312   5.679  10.679  12.297
66805SOL    HW2 2313   5.598  10.796  12.349
66806SOL     OW 2314   4.993  14.498  12.340
66806SOL    HW1 2315   5.009  14.564  12.273
66806SOL    HW2 2316   4.898  14.485  12.339
66807SOL     OW 2317   7.990  12.140   1.491
66807SOL    HW1 2318   7.895  12.149   1.487
66807SOL    HW2 2319   8.020  12.165   1.404
66808SOL     OW 2320   4.819   6.824   5.961
66808SOL    HW1 2321   4.803   6.911   5.925
66808SOL    HW2 2322   4.913   6.811   5.953
66809SOL     OW 2323   5.834   9.066   0.072
66809SOL    HW1 2324   5.778   9.090  14.875
66809SOL    HW2 2325   5.919   9.047   0.033
66810SOL     OW 2326   7.499  13.380   2.871
66810SOL    HW1 2327   7.494  13.295   2.915
66810SOL    HW2 2328   7.427  13.379   2.809
66811SOL     OW 2329   5.875  12.520   2.721
66811SOL    HW1 2330   5.907  12.497   2.807
66811SOL    HW2 2331   5.911  12.607   2.703
66812SOL     OW 2332  11.854   2.262  10.018
66812SOL    HW1 2333  11.785   2.309  10.064
66812SOL    HW2 2334  11.811   2.226   9.940
66813SOL     OW 2335   9.067   8.542  10.332
66813SOL    HW1 2336   9.015   8.566  10.256
66813SOL    HW2 2337   9.018   8.577  10.407
66814SOL     OW 2338   3.595   0.574   5.546
66814SOL    HW1 2339   3.571   0.664   5.568
66814SOL    HW2 2340   3.540   0.551   5.472
66815SOL     OW 2341   1.559   4.329   5.918
66815SOL    HW1 2342   1.490   4.290   5.971
66815SOL    HW2 2343   1.534   4.421   5.911
66816SOL     OW 2344   0.280   7.208   1.870
66816SOL    HW1 2345   0.275   7.174   1.959
66816SOL    HW2 2346   0.353   7.270   1.872
66817SOL     OW 2347   4.938  10.007  11.539
66817SOL    HW1 2348   4.954  10.058  11.460
66817SOL    HW2 2349   4.954   9.917  11.513
66818SOL     OW 2350  12.222   2.106   1.461
66818SOL    HW1 2351  12.169   2.074   1.388
66818SOL    HW2 2352  12.175   2.182   1.494
66819SOL     OW 2353   0.267  12.188   8.953
66819SOL    HW1 2354   0.246  12.223   8.867
66819SOL    HW2 2355   0.237  12.097   8.950
66820SOL     OW 2356   0.716   4.508   3.162
66820SOL    HW1 2357   0.625   4.480   3.170
66820SOL    HW2 2358   0.712   4.586   3.105
66821SOL     OW 2359   5.381   6.573   0.776
66821SOL    HW1 2360   5.314   6.567   0.708
66821SOL    HW2 2361   5.421   6.659   0.762
66822SOL     OW 2362   9.041  14.606  14.009
66822SOL    HW1 2363   9.005  14.670  13.947
66822SOL    HW2 2364   8.973  14.598  14.076
66823SOL     OW 2365  11.006  10.941   6.783
66823SOL    HW1 2366  11.026  10.956   6.691
66823SOL    HW2 2367  10.957  11.018   6.810
66824SOL     OW 2368   5.514   5.083  13.558
66824SOL    HW1 2369   5.587   5.142  13.575
66824SOL    HW2 2370   5.436   5.135  13.575
66825SOL     OW 2371   0.755  12.127   8.731
66825SOL    HW1 2372   0.849  12.111   8.741
66825SOL    HW2 2373   0.714  12.060   8.786
66826SOL     OW 2374  12.123  10.396   3.791
66826SOL    HW1 2375  12.080  10.481   3.801
66826SOL    HW2 2376  12.055  10.332   3.813
66827SOL     OW 2377  11.103   7.766   9.735
66827SOL    HW1 2378  11.172   7.716   9.691
66827SOL    HW2 2379  11.149   7.835   9.783
66828SOL     OW 2380   3.409  14.697   0.819
66828SOL    HW1 2381   3.457  14.758   0.763
66828SOL    HW2 2382   3.438  14.717   0.908
66829SOL     OW 2383   7.926   3.874  12.748
66829SOL    HW1 2384   7.996   3.906  12.691
66829SOL    HW2 2385   7.968   3.808  12.803
66830SOL     OW 2386   5.321   5.871   6.027
66830SOL    HW1 2387   5.331   5.808   6.099
66830SOL    HW2 2388   5.227   5.891   6.027
66831SOL     OW 2389  11.748   8.470   2.281
66831SOL    HW1 2390  11.759   8.503   2.370
66831SOL    HW2 2391  11.803   8.391   2.277
66832SOL     OW 2392   4.849   5.134  10.377
66832SOL    HW1 2393   4.865   5.110  10.286
66832SOL    HW2 2394   4.758   5.108  10.393
66833SOL     OW 2395   8.310   2.992   2.950
66833SOL    HW1 2396   8.353   3.003   3.035
66833SOL    HW2 2397   8.307   2.897   2.936
66834SOL     OW 2398   6.387  13.216   9.283
66834SOL    HW1 2399   6.345  13.135   9.313
66834SOL    HW2 2400   6.442  13.243   9.357
66835SOL     OW 2401   5.964   1.235  11.204
66835SOL    HW1 2402   5.937   1.234  11.113
66835SOL    HW2 2403   5.902   1.177  11.248
66836SOL     OW 2404   6.346   5.868   5.463
66836SOL    HW1 2405   6.365   5.811   5.537
66836SOL    HW2 2406   6.427   5.869   5.412
66837SOL     OW 2407  14.292   7.966   7.274
66837SOL    HW1 2408  14.239   8.023   7.218
66837SOL    HW2 2409  14.375   7.956   7.227
66838SOL     OW 2410  11.608   5.401  14.802
66838SOL    HW1 2411  11.625   5.431   0.014
66838SOL    HW2 2412  11.614   5.306  14.807
66839SOL     OW 2413   8.726  13.981  13.632
66839SOL    HW1 2414   8.820  13.992  13.620
66839SOL    HW2 2415   8.715  13.891  13.661
66840SOL     OW 2416   3.435  14.877   4.980
66840SOL    HW1 2417   3.364  14.865   4.918
66840SOL    HW2 2418   3.424   0.088   5.013
66841SOL     OW 2419   9.516   7.087   0.812
66841SOL    HW1 2420   9.451   7.132   0.759
66841SOL    HW2 2421   9.514   6.997   0.782
66842SOL     OW 2422  11.388  13.013   6.141
66842SOL    HW1 2423  11.444  12.938   6.160
66842SOL    HW2 2424  11.448  13.079   6.107
66843SOL     OW 2425   4.040   1.343   0.347
66843SOL    HW1 2426   4.075   1.431   0.340
66843SOL    HW2 2427   3.965   1.341   0.288
66844SOL     OW 2428  10.951   7.898  11.833
66844SOL    HW1 2429  10.978   7.853  11.753
66844SOL    HW2 2430  10.933   7.988  11.805
66845SOL     OW 2431   8.740   8.030   2.533
66845SOL    HW1 2432   8.717   8.114   2.572
66845SOL    HW2 2433   8.732   7.967   2.605
66846SOL     OW 2434   4.877   3.335   6.686
66846SOL    HW1 2435   4.967   3.359   6.667
66846SOL    HW2 2436   4.881   3.241   6.705
66847SOL     OW 2437  13.313   9.552   5.773
66847SOL    HW1 2438  13.261   9.587   5.846
66847SOL    HW2 2439  13.362   9.480   5.811
66848SOL     OW 2440   9.373   4.982  13.469
66848SOL    HW1 2441   9.443   4.945  13.523
66848SOL    HW2 2442   9.410   5.065  13.437
66849SOL     OW 2443   7.839   6.344   4.198
66849SOL    HW1 2444   7.859   6.399   4.123
66849SOL    HW2 2445   7.829   6.256   4.162
66850SOL     OW 2446   3.797   5.201  12.808
66850SOL    HW1 2447   3.702   5.198  12.807
66850SOL    HW2 2448   3.823   5.201  12.716
66851SOL     OW 2449   5.359   1.789  13.034
66851SOL    HW1 2450   5.352   1.869  13.085
66851SOL    HW2 2451   5.433   1.742  13.072
66852SOL     OW 2452  12.676  13.816   6.738
66852SOL    HW1 2453  12.724  13.895   6.763
66852SOL    HW2 2454  12.621  13.796   6.813
66853SOL     OW 2455   3.989  11.843   7.755
66853SOL    HW1 2456   3.953  11.766   7.712
66853SOL    HW2 2457   4.082  11.842   7.732
66854SOL     OW 2458   1.150  14.406  12.385
66854SOL    HW1 2459   1.067  14.391  12.340
66854SOL    HW2 2460   1.167  14.325  12.432
66855SOL     OW 2461   4.556   0.438  12.748
66855SOL    HW1 2462   4.529   0.356  12.790
66855SOL    HW2 2463   4.476   0.489  12.743
66856SOL     OW 2464  12.439   2.241   5.548
66856SOL    HW1 2465  12.425   2.295   5.626
66856SOL    HW2 2466  12.520   2.194   5.566
66857SOL     OW 2467   6.367   3.018   3.719
66857SOL    HW1 2468   6.373   3.024   3.624
66857SOL    HW2 2469   6.324   3.099   3.746
66858SOL     OW 2470  10.683   3.083  12.940
66858SOL    HW1 2471  10.746   3.132  12.887
66858SOL    HW2 2472  10.725   2.998  12.955
66859SOL     OW 2473  10.032   0.778   6.600
66859SOL    HW1 2474  10.120   0.769   6.563
66859SOL    HW2 2475   9.974   0.774   6.525
66860SOL     OW 2476   0.295  14.728   9.887
66860SOL    HW1 2477   0.340  14.701   9.967
66860SOL    HW2 2478   0.309  14.823   9.883
66861SOL     OW 2479  13.789   9.836   0.755
66861SOL    HW1 2480  13.810   9.751   0.793
66861SOL    HW2 2481  13.726   9.875   0.816
66862SOL     OW 2482   6.907  10.241   5.259
66862SOL    HW1 2483   6.940  10.206   5.176
66862SOL    HW2 2484   6.909  10.167   5.319
66863SOL     OW 2485   0.959   0.832  14.471
66863SOL    HW1 2486   0.908   0.781  14.408
66863SOL    HW2 2487   1.002   0.899  14.418
66864SOL     OW 2488   4.578  10.405   6.754
66864SOL    HW1 2489   4.605  10.439   6.669
66864SOL    HW2 2490   4.483  10.415   6.755
66865SOL     OW 2491  12.806   2.058   7.245
66865SOL    HW1 2492  12.839   2.135   7.291
66865SOL    HW2 2493  12.885   2.011   7.217
66866SOL     OW 2494  14.087   0.039  11.133
66866SOL    HW1 2495  14.013   0.097  11.111
66866SOL    HW2 2496  14.054  14.861  11.203
66867SOL     OW 2497  10.028  12.281   7.463
66867SOL    HW1 2498  10.067  12.360   7.500
66867SOL    HW2 2499  10.101  12.233   7.425
66868SOL     OW 2500   7.966  12.709   1.088
66868SOL    HW1 2501   7.918  12.730   1.168
66868SOL    HW2 2502   7.979  12.614   1.091
66869SOL     OW 2503  12.178  11.006   0.216
66869SOL    HW1 2504  12.114  10.979   0.281
66869SOL    HW2 2505  12.262  10.989   0.257
66870SOL     OW 2506  13.504   3.616   2.025
66870SOL    HW1 2507  13.461   3.564   1.957
66870SOL    HW2 2508  13.462   3.702   2.021
66871SOL     OW 2509   4.813   6.694   0.113
66871SOL    HW1 2510   4.873   6.685   0.039
66871SOL    HW2 2511   4.811   6.788   0.130
66872SOL     OW 2512   7.968   1.233   6.062
66872SOL    HW1 2513   7.938   1.289   5.990
66872SOL    HW2 2514   7.899   1.239   6.128
66873SOL     OW 2515  13.661   4.385  14.552
66873SOL    HW1 2516  13.624   4.348  14.632
66873SOL    HW2 2517  13.745   4.422  14.579
66874SOL     OW 2518  10.667   0.558   7.206
66874SOL    HW1 2519  10.689   0.612   7.282
66874SOL    HW2 2520  10.579   0.524   7.225
66875SOL     OW 2521   0.598  12.040   5.204
66875SOL    HW1 2522   0.511  12.031   5.244
66875SOL    HW2 2523   0.582  12.044   5.110
66876SOL     OW 2524   5.806   8.098   5.504
66876SOL    HW1 2525   5.844   8.091   5.592
66876SOL    HW2 2526   5.877   8.132   5.450
66877SOL     OW 2527  11.676   0.026   8.130
66877SOL    HW1 2528  11.749   0.087   8.137
66877SOL    HW2 2529  11.699  14.832   8.189
66878SOL     OW 2530   6.043  13.256   7.956
66878SOL    HW1 2531   6.060  13.170   7.992
66878SOL    HW2 2532   5.948  13.267   7.963
66879SOL     OW 2533  14.472   4.763   6.492
66879SOL    HW1 2534  14.536   4.757   6.421
66879SOL    HW2 2535  14.418   4.839   6.470
66880SOL     OW 2536  11.723   4.272   0.752
66880SOL    HW1 2537  11.677   4.264   0.668
66880SOL    HW2 2538  11.654   4.270   0.817
66881SOL     OW 2539   5.472  11.269  12.303
66881SOL    HW1 2540   5.492  11.352  12.258
66881SOL    HW2 2541   5.539  11.209  12.273
66882SOL     OW 2542   7.031   7.551   3.497
66882SOL    HW1 2543   7.037   7.514   3.408
66882SOL    HW2 2544   6.961   7.501   3.539
66883SOL     OW 2545   0.498   4.054   0.990
66883SOL    HW1 2546   0.424   4.088   0.940
66883SOL    HW2 2547   0.574   4.100   0.955
66884SOL     OW 2548   7.864   3.117   6.780
66884SOL    HW1 2549   7.897   3.117   6.690
66884SOL    HW2 2550   7.889   3.202   6.815
66885SOL     OW 2551  12.051  13.384  14.115
66885SOL    HW1 2552  12.020  13.443  14.046
66885SOL    HW2 2553  12.010  13.300  14.095
66886SOL     OW 2554   1.565   2.340  14.553
66886SOL    HW1 2555   1.643   2.394  14.571
66886SOL    HW2 2556   1.597   2.272  14.494
66887SOL     OW 2557  10.011   1.980   4.403
66887SOL    HW1 2558  10.006   2.063   4.357
66887SOL    HW2 2559  10.087   1.989   4.461
66888SOL     OW 2560   9.277   4.931   4.077
66888SOL    HW1 2561   9.350   4.910   4.018
66888SOL    HW2 2562   9.320   4.946   4.162
66889SOL     OW 2563   0.515   1.817   8.708
66889SOL    HW1 2564   0.598   1.861   8.724
66889SOL    HW2 2565   0.534   1.724   8.720
66890SOL     OW 2566   0.391  10.583   4.382
66890SOL    HW1 2567   0.479  10.615   4.403
66890SOL    HW2 2568   0.405  10.519   4.312
66891SOL     OW 2569   5.574   6.837   7.629
66891SOL    HW1 2570   5.663   6.842   7.594
66891SOL    HW2 2571   5.563   6.919   7.677
66892SOL     OW 2572   6.596   0.320  14.716
66892SOL    HW1 2573   6.505   0.334  14.689
66892SOL    HW2 2574   6.601   0.362  14.802
66893SOL     OW 2575   1.734   3.908  13.283
66893SOL    HW1 2576   1.676   3.958  13.225
66893SOL    HW2 2577   1.706   3.932  13.371
66894SOL     OW 2578   4.346   1.061  14.654
66894SOL    HW1 2579   4.438   1.050  14.630
66894SOL    HW2 2580   4.349   1.097  14.743
66895SOL     OW 2581   4.392   0.822  11.920
66895SOL    HW1 2582   4.475   0.779  11.898
66895SOL    HW2 2583   4.418   0.895  11.976
66896SOL     OW 2584   2.106   0.053   7.370
66896SOL    HW1 2585   2.062   0.019   7.292
66896SOL    HW2 2586   2.138  14.852   7.416
66897SOL     OW 2587   2.362   9.818   8.822
66897SOL    HW1 2588   2.404   9.875   8.757
66897SOL    HW2 2589   2.337   9.740   8.773
66898SOL     OW 2590   9.431   2.866   7.575
66898SOL    HW1 2591   9.444   2.887   7.667
66898SOL    HW2 2592   9.464   2.777   7.566
66899SOL     OW 2593   2.238   5.728   4.137
66899SOL    HW1 2594   2.197   5.799   4.186
66899SOL    HW2 2595   2.323   5.716   4.179
66900SOL     OW 2596   6.606   3.314   2.206
66900SOL    HW1 2597   6.682   3.372   2.209
66900SOL    HW2 2598   6.643   3.226   2.219
66901SOL     OW 2599   2.272  12.326  11.131
66901SOL    HW1 2600   2.267  12.348  11.224
66901SOL    HW2 2601   2.188  12.355  11.095
66902SOL     OW 2602  11.911  10.861  11.144
66902SOL    HW1 2603  11.937  10.771  11.165
66902SOL    HW2 2604  11.993  10.904  11.118
66903SOL     OW 2605  14.570   5.694   9.196
66903SOL    HW1 2606  14.595   5.745   9.273
66903SOL    HW2 2607  14.621   5.732   9.124
66904SOL     OW 2608  13.436   4.324   4.638
66904SOL    HW1 2609  13.342   4.334   4.658
66904SOL    HW2 2610  13.474   4.290   4.719
66905SOL     OW 2611   2.696  11.442  10.573
66905SOL    HW1 2612   2.616  11.390  10.567
66905SOL    HW2 2613   2.766  11.376  10.576
66906SOL     OW 2614   3.549   0.087   5.919
66906SOL    HW1 2615   3.600   0.065   5.842
66906SOL    HW2 2616   3.614   0.103   5.987
66907SOL     OW 2617  11.792   7.066   1.952
66907SOL    HW1 2618  11.866   7.036   1.899
66907SOL    HW2 2619  11.823   7.060   2.043
66908SOL     OW 2620   9.635  10.957  12.066
66908SOL    HW1 2621   9.586  10.898  12.123
66908SOL    HW2 2622   9.680  10.900  12.003
66909SOL     OW 2623   9.006  11.381   3.596
66909SOL    HW1 2624   9.021  11.286   3.603
66909SOL    HW2 2625   9.061  11.408   3.523
66910SOL     OW 2626   7.032  12.676  13.595
66910SOL    HW1 2627   7.055  12.583  13.599
66910SOL    HW2 2628   7.109  12.717  13.554
66911SOL     OW 2629   0.649  13.382  10.399
66911SOL    HW1 2630   0.683  13.325  10.469
66911SOL    HW2 2631   0.628  13.321  10.328
66912SOL     OW 2632  14.322   5.861   9.155
66912SOL    HW1 2633  14.365   5.930   9.104
66912SOL    HW2 2634  14.376   5.783   9.139
66913SOL     OW 2635  13.900   9.265  11.676
66913SOL    HW1 2636  13.918   9.189  11.731
66913SOL    HW2 2637  13.913   9.341  11.734
66914SOL     OW 2638   1.416   2.975   1.085
66914SOL    HW1 2639   1.500   2.939   1.113
66914SOL    HW2 2640   1.391   2.922   1.010
66915SOL     OW 2641  13.004   9.525   8.758
66915SOL    HW1 2642  12.995   9.443   8.806
66915SOL    HW2 2643  13.014   9.498   8.666
66916SOL     OW 2644  12.809   8.834   1.732
66916SOL    HW1 2645  12.844   8.893   1.666
66916SOL    HW2 2646  12.874   8.765   1.741
66917SOL     OW 2647   8.299   5.927   1.271
66917SOL    HW1 2648   8.209   5.894   1.270
66917SOL    HW2 2649   8.350   5.856   1.310
66918SOL     OW 2650  13.692   1.914   6.661
66918SOL    HW1 2651  13.603   1.912   6.696
66918SOL    HW2 2652  13.748   1.908   6.739
66919SOL     OW 2653   4.026   1.702   6.108
66919SOL    HW1 2654   3.963   1.692   6.180
66919SOL    HW2 2655   4.075   1.620   6.107
66920SOL     OW 2656  12.716   4.908   7.419
66920SOL    HW1 2657  12.696   4.839   7.355
66920SOL    HW2 2658  12.658   4.980   7.396
66921SOL     OW 2659   5.817   0.297   7.630
66921SOL    HW1 2660   5.821   0.351   7.550
66921SOL    HW2 2661   5.748   0.337   7.682
66922SOL     OW 2662   7.478   4.658  13.126
66922SOL    HW1 2663   7.427   4.730  13.163
66922SOL    HW2 2664   7.565   4.667  13.165
66923SOL     OW 2665   4.873  12.021   1.429
66923SOL    HW1 2666   4.892  11.933   1.459
66923SOL    HW2 2667   4.938  12.039   1.361
66924SOL     OW 2668   6.156   2.763   9.782
66924SOL    HW1 2669   6.066   2.730   9.781
66924SOL    HW2 2670   6.210   2.684   9.777
66925SOL     OW 2671   0.384   2.700   1.666
66925SOL    HW1 2672   0.374   2.639   1.739
66925SOL    HW2 2673   0.450   2.660   1.610
66926SOL     OW 2674   0.549   6.970   9.633
66926SOL    HW1 2675   0.556   7.012   9.548
66926SOL    HW2 2676   0.639   6.944   9.654
66927SOL     OW 2677   1.437  10.057  12.308
66927SOL    HW1 2678   1.421  10.126  12.243
66927SOL    HW2 2679   1.360  10.060  12.365
66928SOL     OW 2680   5.964   6.143   1.087
66928SOL    HW1 2681   5.991   6.162   1.177
66928SOL    HW2 2682   5.893   6.205   1.071
66929SOL     OW 2683   9.287   3.881   1.008
66929SOL    HW1 2684   9.380   3.873   0.989
66929SOL    HW2 2685   9.264   3.797   1.050
66930SOL     OW 2686   8.851   2.554   7.310
66930SOL    HW1 2687   8.778   2.564   7.248
66930SOL    HW2 2688   8.905   2.485   7.272
66931SOL     OW 2689  11.274   2.391   3.967
66931SOL    HW1 2690  11.220   2.459   4.007
66931SOL    HW2 2691  11.359   2.400   4.009
66932SOL     OW 2692   4.612  13.031  14.655
66932SOL    HW1 2693   4.646  12.954  14.701
66932SOL    HW2 2694   4.675  13.047  14.584
66933SOL     OW 2695   1.046   8.565  12.296
66933SOL    HW1 2696   1.070   8.555  12.389
66933SOL    HW2 2697   1.089   8.491  12.253
66934SOL     OW 2698   4.883   2.067  13.092
66934SOL    HW1 2699   4.962   2.058  13.039
66934SOL    HW2 2700   4.860   1.978  13.116
66935SOL     OW 2701   5.982  14.268   9.146
66935SOL    HW1 2702   5.980  14.173   9.133
66935SOL    HW2 2703   6.072  14.286   9.175
66936SOL     OW 2704   1.484   5.178   6.114
66936SOL    HW1 2705   1.567   5.185   6.067
66936SOL    HW2 2706   1.503   5.208   6.203
66937SOL     OW 2707   2.011   8.927   2.762
66937SOL    HW1 2708   2.013   9.022   2.750
66937SOL    HW2 2709   1.976   8.893   2.680
66938SOL     OW 2710   7.911   3.479  14.566
66938SOL    HW1 2711   7.980   3.521  14.618
66938SOL    HW2 2712   7.947   3.393  14.544
66939SOL     OW 2713   5.058   5.829  12.408
66939SOL    HW1 2714   5.120   5.902  12.402
66939SOL    HW2 2715   5.058   5.791  12.320
66940SOL     OW 2716   3.540  10.380   6.450
66940SOL    HW1 2717   3.569  10.440   6.381
66940SOL    HW2 2718   3.618  10.367   6.504
66941SOL     OW 2719   4.569  12.286   1.977
66941SOL    HW1 2720   4.657  12.255   1.996
66941SOL    HW2 2721   4.579  12.379   1.957
66942SOL     OW 2722   0.343   6.846   1.336
66942SOL    HW1 2723   0.325   6.900   1.413
66942SOL    HW2 2724   0.309   6.897   1.263
66943SOL     OW 2725  14.472   2.729   9.579
66943SOL    HW1 2726  14.532   2.799   9.603
66943SOL    HW2 2727  14.479   2.722   9.484
66944SOL     OW 2728   2.765  12.713   1.074
66944SOL    HW1 2729   2.718  12.670   1.002
66944SOL    HW2 2730   2.856  12.715   1.045
66945SOL     OW 2731   4.636   1.042  13.051
66945SOL    HW1 2732   4.579   1.119  13.047
66945SOL    HW2 2733   4.701   1.057  12.982
66946SOL     OW 2734   2.516   1.519   6.471
66946SOL    HW1 2735   2.602   1.509   6.511
66946SOL    HW2 2736   2.460   1.459   6.520
66947SOL     OW 2737   8.584  13.727   0.201
66947SOL    HW1 2738   8.539  13.700   0.281
66947SOL    HW2 2739   8.620  13.646   0.165
66948SOL     OW 2740  10.938   5.430   5.751
66948SOL    HW1 2741  10.889   5.465   5.825
66948SOL    HW2 2742  10.891   5.461   5.673
66949SOL     OW 2743   2.672   6.485   9.121
66949SOL    HW1 2744   2.636   6.461   9.036
66949SOL    HW2 2745   2.675   6.403   9.170
66950SOL     OW 2746  11.687   3.500   2.555
66950SOL    HW1 2747  11.676   3.595   2.543
66950SOL    HW2 2748  11.775   3.490   2.592
66951SOL     OW 2749  10.854   5.927   2.052
66951SOL    HW1 2750  10.822   5.980   2.126
66951SOL    HW2 2751  10.776   5.909   2.000
66952SOL     OW 2752   1.207   3.546  12.307
66952SOL    HW1 2753   1.207   3.486  12.233
66952SOL    HW2 2754   1.299   3.557  12.329
66953SOL     OW 2755   1.527   6.896  11.233
66953SOL    HW1 2756   1.450   6.849  11.201
66953SOL    HW2 2757   1.542   6.861  11.321
66954SOL     OW 2758  14.014   5.218   4.851
66954SOL    HW1 2759  14.076   5.146   4.861
66954SOL    HW2 2760  13.938   5.192   4.904
66955SOL     OW 2761  12.911   2.650  10.239
66955SOL    HW1 2762  12.840   2.635  10.177
66955SOL    HW2 2763  12.982   2.593  10.208
66956SOL     OW 2764   4.491  13.504   2.429
66956SOL    HW1 2765   4.481  13.597   2.411
66956SOL    HW2 2766   4.584  13.487   2.419
66957SOL     OW 2767  10.949   6.726  11.927
66957SOL    HW1 2768  10.927   6.777  11.849
66957SOL    HW2 2769  10.910   6.775  11.999
66958SOL     OW 2770   4.475   8.155   5.959
66958SOL    HW1 2771   4.477   8.076   5.905
66958SOL    HW2 2772   4.563   8.192   5.950
66959SOL     OW 2773   2.639   1.557  14.344
66959SOL    HW1 2774   2.566   1.525  14.397
66959SOL    HW2 2775   2.618   1.649  14.327
66960SOL     OW 2776  12.074  13.271  14.819
66960SOL    HW1 2777  12.162  13.308  14.819
66960SOL    HW2 2778  12.016  13.347  14.827
66961SOL     OW 2779   6.203   9.145   9.887
66961SOL    HW1 2780   6.139   9.110   9.949
66961SOL    HW2 2781   6.181   9.238   9.880
66962SOL     OW 2782   5.709   9.078   0.750
66962SOL    HW1 2783   5.803   9.062   0.756
66962SOL    HW2 2784   5.689   9.137   0.822
66963SOL     OW 2785   5.085  11.247   9.876
66963SOL    HW1 2786   5.152  11.243   9.807
66963SOL    HW2 2787   5.095  11.164   9.923
66964SOL     OW 2788  13.539   6.549  10.447
66964SOL    HW1 2789  13.624   6.514  10.422
66964SOL    HW2 2790  13.554   6.596  10.529
66965SOL     OW 2791   6.527  10.274   5.207
66965SOL    HW1 2792   6.438  10.276   5.172
66965SOL    HW2 2793   6.582  10.252   5.131
66966SOL     OW 2794  12.838  13.693  11.099
66966SOL    HW1 2795  12.921  13.714  11.142
66966SOL    HW2 2796  12.860  13.680  11.007
66967SOL     OW 2797   8.575   7.344   7.986
66967SOL    HW1 2798   8.601   7.434   8.004
66967SOL    HW2 2799   8.493   7.333   8.034
66968SOL     OW 2800   2.121  14.497   9.575
66968SOL    HW1 2801   2.112  14.495   9.670
66968SOL    HW2 2802   2.049  14.552   9.545
66969SOL     OW 2803  11.011  13.686   9.359
66969SOL    HW1 2804  10.990  13.779   9.359
66969SOL    HW2 2805  10.927  13.642   9.343
66970SOL     OW 2806   5.951   5.909   0.590
66970SOL    HW1 2807   5.960   5.836   0.651
66970SOL    HW2 2808   5.968   5.987   0.643
66971SOL     OW 2809  13.595   1.204   6.135
66971SOL    HW1 2810  13.586   1.282   6.080
66971SOL    HW2 2811  13.632   1.138   6.077
66972SOL     OW 2812   8.642  11.351   6.498
66972SOL    HW1 2813   8.581  11.421   6.478
66972SOL    HW2 2814   8.606  11.273   6.456
66973SOL     OW 2815   8.172   9.991   6.922
66973SOL    HW1 2816   8.079   9.982   6.939
66973SOL    HW2 2817   8.184   9.954   6.834
66974SOL     OW 2818  11.322  13.955   0.324
66974SOL    HW1 2819  11.387  13.895   0.362
66974SOL    HW2 2820  11.359  14.042   0.338
66975SOL     OW 2821  14.502  11.390  14.831
66975SOL    HW1 2822  14.595  11.367  14.833
66975SOL    HW2 2823  14.466  11.343  14.756
66976SOL     OW 2824   5.088   0.218  11.034
66976SOL    HW1 2825   5.070   0.124  11.037
66976SOL    HW2 2826   5.001   0.259  11.042
66977SOL     OW 2827   6.974   7.131   6.624
66977SOL    HW1 2828   6.987   7.140   6.530
66977SOL    HW2 2829   6.895   7.182   6.642
66978SOL     OW 2830   7.369   0.154   9.565
66978SOL    HW1 2831   7.402   0.115   9.484
66978SOL    HW2 2832   7.274   0.162   9.551
66979SOL     OW 2833  14.304  14.434   9.704
66979SOL    HW1 2834  14.214  14.461   9.690
66979SOL    HW2 2835  14.344  14.506   9.753
66980SOL     OW 2836  13.351  11.143  12.717
66980SOL    HW1 2837  13.371  11.050  12.732
66980SOL    HW2 2838  13.352  11.152  12.622
66981SOL     OW 2839   7.255  10.664  13.308
66981SOL    HW1 2840   7.340  10.685  13.270
66981SOL    HW2 2841   7.197  10.655  13.232
66982SOL     OW 2842   4.321   2.516   3.999
66982SOL    HW1 2843   4.383   2.576   4.040
66982SOL    HW2 2844   4.269   2.571   3.940
66983SOL     OW 2845  12.710   4.904   0.328
66983SOL    HW1 2846  12.673   4.891   0.415
66983SOL    HW2 2847  12.799   4.935   0.345
66984SOL     OW 2848   6.627  11.291   5.710
66984SOL    HW1 2849   6.669  11.208   5.685
66984SOL    HW2 2850   6.687  11.359   5.678
66985SOL     OW 2851  10.383   3.820   4.287
66985SOL    HW1 2852  10.460   3.875   4.297
66985SOL    HW2 2853  10.352   3.837   4.198
66986SOL     OW 2854   4.438  10.321  12.201
66986SOL    HW1 2855   4.495  10.247  12.181
66986SOL    HW2 2856   4.497  10.389  12.235
66987SOL     OW 2857   1.631   6.287   7.374
66987SOL    HW1 2858   1.585   6.204   7.360
66987SOL    HW2 2859   1.561   6.352   7.382
66988SOL     OW 2860   3.534   1.078   4.787
66988SOL    HW1 2861   3.529   1.080   4.692
66988SOL    HW2 2862   3.459   1.129   4.817
66989SOL     OW 2863   0.236   9.666   4.229
66989SOL    HW1 2864   0.229   9.689   4.322
66989SOL    HW2 2865   0.233   9.750   4.183
66990SOL     OW 2866   6.901   9.793   3.292
66990SOL    HW1 2867   6.983   9.787   3.340
66990SOL    HW2 2868   6.922   9.763   3.204
66991SOL     OW 2869   2.997   5.776   0.195
66991SOL    HW1 2870   2.966   5.753   0.108
66991SOL    HW2 2871   3.084   5.814   0.179
66992SOL     OW 2872  11.689   5.770  12.475
66992SOL    HW1 2873  11.725   5.718  12.403
66992SOL    HW2 2874  11.762   5.776  12.538
66993SOL     OW 2875  10.028  13.764  12.254
66993SOL    HW1 2876  10.070  13.705  12.192
66993SOL    HW2 2877   9.935  13.740  12.251
66994SOL     OW 2878   0.915  13.026  13.289
66994SOL    HW1 2879   0.998  13.062  13.322
66994SOL    HW2 2880   0.940  12.943  13.247
66995SOL     OW 2881  13.412  10.546  12.451
66995SOL    HW1 2882  13.343  10.487  12.483
66995SOL    HW2 2883  13.398  10.550  12.357
66996SOL     OW 2884  12.719  10.743   3.426
66996SOL    HW1 2885  12.624  10.742   3.434
66996SOL    HW2 2886  12.751  10.733   3.515
66997SOL     OW 2887  13.846   9.953   8.388
66997SOL    HW1 2888  13.819   9.990   8.304
66997SOL    HW2 2889  13.921  10.006   8.414
66998SOL     OW 2890   6.975   3.833   9.586
66998SOL    HW1 2891   7.010   3.744   9.591
66998SOL    HW2 2892   7.010   3.868   9.504
66999SOL     OW 2893  13.302   7.718   4.537
66999SOL    HW1 2894  13.233   7.660   4.571
66999SOL    HW2 2895  13.269   7.806   4.552
67000SOL     OW 2896   2.665   5.136   2.140
67000SOL    HW1 2897   2.646   5.228   2.123
67000SOL    HW2 2898   2.747   5.138   2.189
67001SOL     OW 2899   0.118   8.687   6.465
67001SOL    HW1 2900   0.180   8.718   6.531
67001SOL    HW2 2901   0.093   8.599   6.496
67002SOL     OW 2902   5.006   2.957   5.720
67002SOL    HW1 2903   4.968   2.940   5.806
67002SOL    HW2 2904   5.092   2.915   5.722
67003SOL     OW 2905  10.750   2.982  13.532
67003SOL    HW1 2906  10.777   3.023  13.450
67003SOL    HW2 2907  10.813   2.912  13.546
67004SOL     OW 2908  11.863   0.770  10.988
67004SOL    HW1 2909  11.830   0.771  10.898
67004SOL    HW2 2910  11.909   0.853  10.998
67005SOL     OW 2911   3.072  12.711  13.345
67005SOL    HW1 2912   3.100  12.695  13.435
67005SOL    HW2 2913   2.999  12.652  13.332
67006SOL     OW 2914  10.900   7.345   9.771
67006SOL    HW1 2915  10.988   7.334   9.737
67006SOL    HW2 2916  10.905   7.423   9.827
67007SOL     OW 2917   9.097  12.616   3.419
67007SOL    HW1 2918   9.175  12.659   3.382
67007SOL    HW2 2919   9.121  12.523   3.424
67008SOL     OW 2920   9.419   6.205  11.559
67008SOL    HW1 2921   9.433   6.126  11.508
67008SOL    HW2 2922   9.324   6.214  11.564
67009SOL     OW 2923   1.617   7.639  11.716
67009SOL    HW1 2924   1.609   7.544  11.727
67009SOL    HW2 2925   1.636   7.672  11.804
67010SOL     OW 2926  10.225   2.450   3.037
67010SOL    HW1 2927  10.229   2.355   3.033
67010SOL    HW2 2928  10.292   2.480   2.974
67011SOL     OW 2929  12.676  11.343  12.890
67011SOL    HW1 2930  12.610  11.405  12.922
67011SOL    HW2 2931  12.626  11.263  12.874
67012SOL     OW 2932   8.699  13.173  14.433
67012SOL    HW1 2933   8.653  13.180  14.518
67012SOL    HW2 2934   8.679  13.256  14.389
67013SOL     OW 2935   7.277  11.113  14.628
67013SOL    HW1 2936   7.272  11.207  14.611
67013SOL    HW2 2937   7.330  11.106  14.708
67014SOL     OW 2938   9.552   1.322   4.541
67014SOL    HW1 2939   9.475   1.270   4.565
67014SOL    HW2 2940   9.518   1.387   4.481
67015SOL     OW 2941   8.802  10.277  11.226
67015SOL    HW1 2942   8.745  10.354  11.233
67015SOL    HW2 2943   8.874  10.295  11.286
67016SOL     OW 2944   0.528   3.901   6.135
67016SOL    HW1 2945   0.448   3.929   6.091
67016SOL    HW2 2946   0.576   3.851   6.068
67017SOL     OW 2947   7.805   3.765   6.916
67017SOL    HW1 2948   7.732   3.825   6.901
67017SOL    HW2 2949   7.837   3.743   6.829
67018SOL     OW 2950  12.756  12.927  10.465
67018SOL    HW1 2951  12.749  13.003  10.522
67018SOL    HW2 2952  12.817  12.868  10.511
67019SOL     OW 2953  10.320   1.883   4.514
67019SOL    HW1 2954  10.269   1.925   4.584
67019SOL    HW2 2955  10.368   1.814   4.558
67020SOL     OW 2956   5.975   8.724   4.672
67020SOL    HW1 2957   5.969   8.670   4.751
67020SOL    HW2 2958   5.892   8.709   4.626
67021SOL     OW 2959  13.921   0.009   0.154
67021SOL    HW1 2960  13.930  14.793   0.134
67021SOL    HW2 2961  13.833   0.017   0.192
67022SOL     OW 2962   5.828   6.180  13.239
67022SOL    HW1 2963   5.817   6.086  13.246
67022SOL    HW2 2964   5.920   6.193  13.216
67023SOL     OW 2965   8.752   4.968  12.336
67023SOL    HW1 2966   8.690   4.973  12.409
67023SOL    HW2 2967   8.751   4.876  12.310
67024SOL     OW 2968   1.367  11.682   6.172
67024SOL    HW1 2969   1.375  11.771   6.138
67024SOL    HW2 2970   1.377  11.626   6.095
67025SOL     OW 2971   4.224  11.391   5.859
67025SOL    HW1 2972   4.287  11.463   5.868
67025SOL    HW2 2973   4.231  11.343   5.941
67026SOL     OW 2974   9.215   7.130   8.041
67026SOL    HW1 2975   9.253   7.071   8.106
67026SOL    HW2 2976   9.153   7.076   7.992
67027SOL     OW 2977   9.348  13.643  11.481
67027SOL    HW1 2978   9.309  13.560  11.508
67027SOL    HW2 2979   9.365  13.632  11.387
67028SOL     OW 2980   3.918  11.865   7.064
67028SOL    HW1 2981   3.879  11.913   7.137
67028SOL    HW2 2982   3.979  11.928   7.024
67029SOL     OW 2983  11.511  14.623   8.305
67029SOL    HW1 2984  11.588  14.572   8.278
67029SOL    HW2 2985  11.441  14.595   8.246
67030SOL     OW 2986  13.252   7.493   9.483
67030SOL    HW1 2987  13.346   7.488   9.468
67030SOL    HW2 2988  13.231   7.411   9.529
67031SOL     OW 2989  11.540   2.068   8.009
67031SOL    HW1 2990  11.557   1.993   7.952
67031SOL    HW2 2991  11.536   2.031   8.097
67032SOL     OW 2992  11.613   1.424   7.599
67032SOL    HW1 2993  11.650   1.376   7.525
67032SOL    HW2 2994  11.557   1.360   7.643
67033SOL     OW 2995  11.272   2.843  13.798
67033SOL    HW1 2996  11.351   2.841  13.744
67033SOL    HW2 2997  11.239   2.753  13.795
67034SOL     OW 2998   6.089   7.527   4.111
67034SOL    HW1 2999   6.071   7.605   4.163
67034SOL    HW2 3000   6.004   7.499   4.079
67035SOL     OW 3001   6.936   4.496   8.880
67035SOL    HW1 3002   6.934   4.539   8.965
67035SOL    HW2 3003   6.882   4.418   8.891
67036SOL     OW 3004   1.890   1.997   5.787
67036SOL    HW1 3005   1.912   1.993   5.694
67036SOL    HW2 3006   1.802   2.034   5.790
67037SOL     OW 3007   5.057   1.579   0.056
67037SOL    HW1 3008   4.961   1.585   0.051
67037SOL    HW2 3009   5.076   1.486   0.046
67038SOL     OW 3010   3.088   1.960   0.956
67038SOL    HW1 3011   3.162   2.005   0.915
67038SOL    HW2 3012   3.114   1.950   1.047
67039SOL     OW 3013   2.835   4.062   0.716
67039SOL    HW1 3014   2.898   3.992   0.698
67039SOL    HW2 3015   2.854   4.129   0.651
67040SOL     OW 3016   9.059   0.829   9.996
67040SOL    HW1 3017   9.035   0.779  10.075
67040SOL    HW2 3018   9.055   0.920  10.023
67041SOL     OW 3019  13.892   7.282  11.139
67041SOL    HW1 3020  13.899   7.354  11.077
67041SOL    HW2 3021  13.969   7.227  11.121
67042SOL     OW 3022   4.176  13.792  13.799
67042SOL    HW1 3023   4.102  13.851  13.787
67042SOL    HW2 3024   4.140  13.718  13.849
67043SOL     OW 3025   9.369   6.373  13.984
67043SOL    HW1 3026   9.364   6.467  13.968
67043SOL    HW2 3027   9.444   6.343  13.933
67044SOL     OW 3028   4.927  12.746  10.528
67044SOL    HW1 3029   4.845  12.774  10.486
67044SOL    HW2 3030   4.901  12.716  10.615
67045SOL     OW 3031   6.051  12.095   7.034
67045SOL    HW1 3032   6.118  12.161   7.048
67045SOL    HW2 3033   6.084  12.017   7.079
67046SOL     OW 3034   0.373   8.882  12.414
67046SOL    HW1 3035   0.408   8.813  12.470
67046SOL    HW2 3036   0.446   8.908  12.358
67047SOL     OW 3037  13.781  10.979   8.326
67047SOL    HW1 3038  13.802  11.041   8.256
67047SOL    HW2 3039  13.707  10.929   8.293
67048SOL     OW 3040   4.900   2.547   7.831
67048SOL    HW1 3041   4.872   2.455   7.837
67048SOL    HW2 3042   4.820   2.596   7.848
67049SOL     OW 3043   1.641   9.149  12.153
67049SOL    HW1 3044   1.620   9.139  12.246
67049SOL    HW2 3045   1.692   9.071  12.131
67050SOL     OW 3046  13.978   4.376  13.020
67050SOL    HW1 3047  13.931   4.294  13.034
67050SOL    HW2 3048  13.914   4.444  13.038
67051SOL     OW 3049   1.707   1.265  10.791
67051SOL    HW1 3050   1.652   1.321  10.846
67051SOL    HW2 3051   1.789   1.256  10.840
67052SOL     OW 3052  14.349  11.923   0.542
67052SOL    HW1 3053  14.322  11.858   0.607
67052SOL    HW2 3054  14.302  11.898   0.462
67053SOL     OW 3055   4.704  14.334  12.455
67053SOL    HW1 3056   4.640  14.266  12.432
67053SOL    HW2 3057   4.739  14.307  12.540
67054SOL     OW 3058   6.438   7.800   1.581
67054SOL    HW1 3059   6.471   7.711   1.578
67054SOL    HW2 3060   6.343   7.790   1.569
67055SOL     OW 3061   4.706  11.696   4.187
67055SOL    HW1 3062   4.758  11.692   4.107
67055SOL    HW2 3063   4.745  11.629   4.244
67056SOL     OW 3064   7.236   0.161   5.445
67056SOL    HW1 3065   7.324   0.140   5.474
67056SOL    HW2 3066   7.233   0.257   5.447
67057SOL     OW 3067   5.670   0.854   8.899
67057SOL    HW1 3068   5.728   0.929   8.884
67057SOL    HW2 3069   5.714   0.781   8.857
67058SOL     OW 3070   7.514  12.085   1.865
67058SOL    HW1 3071   7.563  12.136   1.801
67058SOL    HW2 3072   7.538  12.124   1.950
67059SOL     OW 3073   5.584   3.469   9.568
67059SOL    HW1 3074   5.675   3.494   9.582
67059SOL    HW2 3075   5.586   3.373   9.562
67060SOL     OW 3076   2.216   3.977   9.634
67060SOL    HW1 3077   2.133   4.025   9.631
67060SOL    HW2 3078   2.190   3.885   9.640
67061SOL     OW 3079  12.631   1.706  14.100
67061SOL    HW1 3080  12.603   1.776  14.041
67061SOL    HW2 3081  12.576   1.716  14.178
67062SOL     OW 3082   1.414   1.995   4.662
67062SOL    HW1 3083   1.440   1.904   4.680
67062SOL    HW2 3084   1.324   2.001   4.693
67063SOL     OW 3085   5.053  13.029   8.185
67063SOL    HW1 3086   5.118  12.975   8.231
67063SOL    HW2 3087   5.104  13.095   8.139
67064SOL     OW 3088  11.011   7.165   1.888
67064SOL    HW1 3089  11.009   7.260   1.879
67064SOL    HW2 3090  11.075   7.136   1.823
67065SOL     OW 3091  12.502   7.385   4.882
67065SOL    HW1 3092  12.519   7.354   4.793
67065SOL    HW2 3093  12.456   7.468   4.869
67066SOL     OW 3094   1.097   9.170  13.340
67066SOL    HW1 3095   1.149   9.092  13.320
67066SOL    HW2 3096   1.119   9.191  13.431
67067SOL     OW 3097   4.875  10.911  10.386
67067SOL    HW1 3098   4.800  10.957  10.423
67067SOL    HW2 3099   4.951  10.961  10.415
67068SOL     OW 3100   5.527   6.599   9.825
67068SOL    HW1 3101   5.450   6.636   9.868
67068SOL    HW2 3102   5.576   6.675   9.795
67069SOL     OW 3103   9.758   5.090   2.604
67069SOL    HW1 3104   9.728   5.053   2.687
67069SOL    HW2 3105   9.733   5.183   2.609
67070SOL     OW 3106   6.240   9.779   5.989
67070SOL    HW1 3107   6.245   9.863   5.942
67070SOL    HW2 3108   6.300   9.790   6.063
67071SOL     OW 3109   3.073  14.819   2.147
67071SOL    HW1 3110   3.048   0.024   2.106
67071SOL    HW2 3111   3.043  14.751   2.087
67072SOL     OW 3112  12.366  11.413  11.748
67072SOL    HW1 3113  12.290  11.471  11.747
67072SOL    HW2 3114  12.330  11.325  11.756
67073SOL     OW 3115   7.806   3.391  12.895
67073SOL    HW1 3116   7.884   3.336  12.886
67073SOL    HW2 3117   7.840   3.481  12.894
67074SOL     OW 3118  11.850   8.732   0.080
67074SOL    HW1 3119  11.792   8.709   0.007
67074SOL    HW2 3120  11.796   8.725   0.158
67075SOL     OW 3121  10.406   5.069   9.345
67075SOL    HW1 3122  10.473   5.025   9.293
67075SOL    HW2 3123  10.354   5.119   9.282
67076SOL     OW 3124   1.637  12.920   5.991
67076SOL    HW1 3125   1.614  13.008   5.961
67076SOL    HW2 3126   1.678  12.934   6.077
67077SOL     OW 3127   1.060   0.046  11.123
67077SOL    HW1 3128   1.152   0.041  11.096
67077SOL    HW2 3129   1.045  14.844  11.172
67078SOL     OW 3130   9.809   3.796  10.190
67078SOL    HW1 3131   9.726   3.756  10.165
67078SOL    HW2 3132   9.874   3.754  10.134
67079SOL     OW 3133   7.667   8.331   4.772
67079SOL    HW1 3134   7.599   8.353   4.708
67079SOL    HW2 3135   7.699   8.416   4.803
67080SOL     OW 3136   4.265   4.946   5.656
67080SOL    HW1 3137   4.269   4.928   5.562
67080SOL    HW2 3138   4.338   5.005   5.672
67081SOL     OW 3139   4.980   5.793  11.923
67081SOL    HW1 3140   4.994   5.878  11.964
67081SOL    HW2 3141   4.912   5.808  11.857
67082SOL     OW 3142  11.298   1.914   6.432
67082SOL    HW1 3143  11.225   1.903   6.371
67082SOL    HW2 3144  11.307   1.828   6.474
67083SOL     OW 3145   1.270   5.496   0.161
67083SOL    HW1 3146   1.262   5.507   0.256
67083SOL    HW2 3147   1.180   5.492   0.130
67084SOL     OW 3148   6.279  12.471   5.936
67084SOL    HW1 3149   6.261  12.377   5.933
67084SOL    HW2 3150   6.246  12.499   6.022
67085SOL     OW 3151   0.587   9.378  10.399
67085SOL    HW1 3152   0.643   9.358  10.323
67085SOL    HW2 3153   0.561   9.293  10.433
67086SOL     OW 3154   2.121   4.956   5.193
67086SOL    HW1 3155   2.181   5.020   5.154
67086SOL    HW2 3156   2.143   4.956   5.286
67087SOL     OW 3157  10.014   6.007   0.074
67087SOL    HW1 3158  10.077   6.004   0.146
67087SOL    HW2 3159  10.051   6.070   0.013
67088SOL     OW 3160   7.582   3.395  10.872
67088SOL    HW1 3161   7.627   3.335  10.932
67088SOL    HW2 3162   7.508   3.428  10.923
67089SOL     OW 3163   6.668   8.918  14.015
67089SOL    HW1 3164   6.719   8.899  13.936
67089SOL    HW2 3165   6.617   8.839  14.031
67090SOL     OW 3166  10.231  11.815   2.556
67090SOL    HW1 3167  10.290  11.890   2.555
67090SOL    HW2 3168  10.223  11.792   2.648
67091SOL     OW 3169   0.334   3.989   8.467
67091SOL    HW1 3170   0.255   3.938   8.452
67091SOL    HW2 3171   0.406   3.930   8.444
67092SOL     OW 3172   0.276   0.225   7.439
67092SOL    HW1 3173   0.359   0.221   7.486
67092SOL    HW2 3174   0.260   0.318   7.425
67093SOL     OW 3175   3.756   9.913   4.770
67093SOL    HW1 3176   3.817   9.882   4.837
67093SOL    HW2 3177   3.670   9.907   4.812
67094SOL     OW 3178  12.571  11.822   1.385
67094SOL    HW1 3179  12.486  11.796   1.421
67094SOL    HW2 3180  12.595  11.749   1.328
67095SOL     OW 3181   7.668   4.136   1.129
67095SOL    HW1 3182   7.614   4.123   1.206
67095SOL    HW2 3183   7.745   4.082   1.145
67096SOL     OW 3184   9.181   9.386  12.627
67096SOL    HW1 3185   9.137   9.465  12.660
67096SOL    HW2 3186   9.123   9.353  12.559
67097SOL     OW 3187   0.551  13.882   1.113
67097SOL    HW1 3188   0.506  13.799   1.102
67097SOL    HW2 3189   0.517  13.937   1.042
67098SOL     OW 3190   3.516  13.361   1.606
67098SOL    HW1 3191   3.544  13.319   1.524
67098SOL    HW2 3192   3.495  13.287   1.664
67099SOL     OW 3193   9.841   9.248  12.577
67099SOL    HW1 3194   9.821   9.201  12.496
67099SOL    HW2 3195   9.926   9.289  12.560
67100SOL     OW 3196   3.237  12.561   1.824
67100SOL    HW1 3197   3.280  12.499   1.765
67100SOL    HW2 3198   3.307  12.620   1.853
67101SOL     OW 3199  13.499  11.713   1.414
67101SOL    HW1 3200  13.460  11.778   1.355
67101SOL    HW2 3201  13.589  11.704   1.383
67102SOL     OW 3202   0.808  12.619   6.846
67102SOL    HW1 3203   0.753  12.544   6.824
67102SOL    HW2 3204   0.773  12.650   6.930
67103SOL     OW 3205   7.975   2.844   3.862
67103SOL    HW1 3206   8.020   2.782   3.919
67103SOL    HW2 3207   7.920   2.896   3.921
67104SOL     OW 3208  11.253  11.224   2.157
67104SOL    HW1 3209  11.302  11.303   2.133
67104SOL    HW2 3210  11.194  11.252   2.226
67105SOL     OW 3211  11.754   1.924   2.820
67105SOL    HW1 3212  11.787   1.837   2.841
67105SOL    HW2 3213  11.661   1.910   2.802
67106SOL     OW 3214  12.731   1.537  14.582
67106SOL    HW1 3215  12.778   1.575  14.508
67106SOL    HW2 3216  12.797   1.527  14.650
67107SOL     OW 3217  12.155   4.438   8.184
67107SOL    HW1 3218  12.214   4.389   8.126
67107SOL    HW2 3219  12.189   4.527   8.184
67108SOL     OW 3220   2.796  10.576  14.598
67108SOL    HW1 3221   2.756  10.532  14.523
67108SOL    HW2 3222   2.741  10.653  14.612
67109SOL     OW 3223  12.774   5.819  10.628
67109SOL    HW1 3224  12.828   5.747  10.659
67109SOL    HW2 3225  12.719   5.781  10.560
67110SOL     OW 3226   9.042   5.604  10.047
67110SOL    HW1 3227   8.947   5.590  10.044
67110SOL    HW2 3228   9.067   5.613   9.955
67111SOL     OW 3229   1.144   9.751  10.732
67111SOL    HW1 3230   1.159   9.843  10.755
67111SOL    HW2 3231   1.126   9.753  10.637
67112SOL     OW 3232   9.724  12.891   8.942
67112SOL    HW1 3233   9.679  12.807   8.954
67112SOL    HW2 3234   9.668  12.938   8.880
67113SOL     OW 3235   5.537   3.936   6.939
67113SOL    HW1 3236   5.538   3.991   7.017
67113SOL    HW2 3237   5.521   3.848   6.972
67114SOL     OW 3238   6.084  11.178   8.655
67114SOL    HW1 3239   6.097  11.249   8.591
67114SOL    HW2 3240   6.083  11.098   8.602
67115SOL     OW 3241   3.378  12.521   6.621
67115SOL    HW1 3242   3.407  12.461   6.689
67115SOL    HW2 3243   3.284  12.505   6.612
67116SOL     OW 3244  13.387   2.647  12.827
67116SOL    HW1 3245  13.292   2.656  12.821
67116SOL    HW2 3246  13.421   2.725  12.783
67117SOL     OW 3247  13.118   5.479   1.203
67117SOL    HW1 3248  13.114   5.559   1.254
67117SOL    HW2 3249  13.209   5.474   1.173
67118SOL     OW 3250  12.717   8.639   6.805
67118SOL    HW1 3251  12.742   8.547   6.803
67118SOL    HW2 3252  12.662   8.647   6.883
67119SOL     OW 3253  10.131  12.787   4.343
67119SOL    HW1 3254  10.039  12.764   4.348
67119SOL    HW2 3255  10.161  12.789   4.434
67120SOL     OW 3256   0.538   0.887   6.349
67120SOL    HW1 3257   0.531   0.795   6.375
67120SOL    HW2 3258   0.597   0.886   6.274
67121SOL     OW 3259   8.283  13.834  11.983
67121SOL    HW1 3260   8.338  13.865  11.911
67121SOL    HW2 3261   8.336  13.768  12.027
67122SOL     OW 3262  10.418   3.780  13.677
67122SOL    HW1 3263  10.491   3.719  13.684
67122SOL    HW2 3264  10.352   3.734  13.625
67123SOL     OW 3265   2.910   4.400   2.457
67123SOL    HW1 3266   2.941   4.445   2.536
67123SOL    HW2 3267   2.815   4.409   2.461
67124SOL     OW 3268   6.925  12.295  12.981
67124SOL    HW1 3269   6.837  12.259  12.969
67124SOL    HW2 3270   6.920  12.342  13.064
67125SOL     OW 3271  13.853   6.545  13.115
67125SOL    HW1 3272  13.759   6.525  13.117
67125SOL    HW2 3273  13.858   6.639  13.129
67126SOL     OW 3274  12.663   8.318   3.220
67126SOL    HW1 3275  12.655   8.225   3.240
67126SOL    HW2 3276  12.580   8.341   3.179
67127SOL     OW 3277   3.662   5.217   4.533
67127SOL    HW1 3278   3.575   5.204   4.571
67127SOL    HW2 3279   3.649   5.211   4.439
67128SOL     OW 3280  13.265   4.921  11.300
67128SOL    HW1 3281  13.236   4.962  11.218
67128SOL    HW2 3282  13.334   4.861  11.273
67129SOL     OW 3283   6.852   5.871   3.721
67129SOL    HW1 3284   6.908   5.851   3.796
67129SOL    HW2 3285   6.775   5.817   3.733
67130SOL     OW 3286  10.171  10.266   3.242
67130SOL    HW1 3287  10.139  10.299   3.326
67130SOL    HW2 3288  10.095  10.226   3.201
67131SOL     OW 3289   0.452  14.366  13.204
67131SOL    HW1 3290   0.524  14.412  13.161
67131SOL    HW2 3291   0.430  14.295  13.143
67132SOL     OW 3292   9.869   8.921   2.490
67132SOL    HW1 3293   9.919   8.853   2.445
67132SOL    HW2 3294   9.853   8.886   2.578
67133SOL     OW 3295   6.205  10.823  10.657
67133SOL    HW1 3296   6.244  10.907  10.630
67133SOL    HW2 3297   6.170  10.841  10.744
67134SOL     OW 3298   9.672   9.109   5.380
67134SOL    HW1 3299   9.742   9.173   5.370
67134SOL    HW2 3300   9.677   9.082   5.472
67135SOL     OW 3301   2.628   0.181   3.858
67135SOL    HW1 3302   2.559   0.161   3.795
67135SOL    HW2 3303   2.649   0.273   3.843
67136SOL     OW 3304   8.067  13.354   6.601
67136SOL    HW1 3305   8.148  13.333   6.647
67136SOL    HW2 3306   8.094  13.412   6.530
67137SOL     OW 3307   8.734  14.053   1.095
67137SOL    HW1 3308   8.692  14.135   1.069
67137SOL    HW2 3309   8.713  13.992   1.024
67138SOL     OW 3310  10.855   3.259   1.740
67138SOL    HW1 3311  10.944   3.256   1.776
67138SOL    HW2 3312  10.861   3.208   1.659
67139SOL     OW 3313  13.957   2.585   1.582
67139SOL    HW1 3314  14.016   2.583   1.506
67139SOL    HW2 3315  13.962   2.675   1.613
67140SOL     OW 3316   3.291   0.577  12.031
67140SOL    HW1 3317   3.333   0.533  11.957
67140SOL    HW2 3318   3.326   0.666  12.029
67141SOL     OW 3319   4.420  11.736  10.230
67141SOL    HW1 3320   4.404  11.698  10.317
67141SOL    HW2 3321   4.500  11.692  10.200
67142SOL     OW 3322  11.383  14.583   0.003
67142SOL    HW1 3323  11.452  14.587  14.814
67142SOL    HW2 3324  11.412  14.642   0.072
67143SOL     OW 3325   8.381   0.240   9.617
67143SOL    HW1 3326   8.455   0.264   9.673
67143SOL    HW2 3327   8.305   0.274   9.663
67144SOL     OW 3328   5.851   8.120  13.845
67144SOL    HW1 3329   5.911   8.050  13.870
67144SOL    HW2 3330   5.805   8.087  13.768
67145SOL     OW 3331   2.113  13.756  10.183
67145SOL    HW1 3332   2.054  13.684  10.206
67145SOL    HW2 3333   2.131  13.744  10.089
67146SOL     OW 3334   0.566   3.839   6.889
67146SOL    HW1 3335   0.571   3.820   6.982
67146SOL    HW2 3336   0.575   3.934   6.883
67147SOL     OW 3337  12.032   8.747   4.021
67147SOL    HW1 3338  12.051   8.773   4.111
67147SOL    HW2 3339  12.032   8.651   4.023
67148SOL     OW 3340   3.019  13.787   6.026
67148SOL    HW1 3341   3.059  13.735   6.095
67148SOL    HW2 3342   2.977  13.860   6.072
67149SOL     OW 3343  10.425   8.206   8.138
67149SOL    HW1 3344  10.370   8.278   8.107
67149SOL    HW2 3345  10.363   8.143   8.176
67150SOL     OW 3346   9.029   5.455   1.478
67150SOL    HW1 3347   9.102   5.515   1.495
67150SOL    HW2 3348   9.071   5.378   1.438
67151SOL     OW 3349   1.350  14.017  13.155
67151SOL    HW1 3350   1.395  14.088  13.111
67151SOL    HW2 3351   1.283  14.060  13.209
67152SOL     OW 3352   2.609   2.895  12.933
67152SOL    HW1 3353   2.688   2.931  12.893
67152SOL    HW2 3354   2.640   2.826  12.991
67153SOL     OW 3355  14.460   1.642   7.754
67153SOL    HW1 3356  14.376   1.685   7.771
67153SOL    HW2 3357  14.463   1.570   7.817
67154SOL     OW 3358  12.202   3.359  12.898
67154SOL    HW1 3359  12.200   3.338  12.991
67154SOL    HW2 3360  12.294   3.377  12.879
67155SOL     OW 3361   6.623   5.442   4.252
67155SOL    HW1 3362   6.543   5.495   4.246
67155SOL    HW2 3363   6.594   5.353   4.229
67156SOL     OW 3364   9.801   2.148   4.698
67156SOL    HW1 3365   9.716   2.167   4.738
67156SOL    HW2 3366   9.820   2.225   4.645
67157SOL     OW 3367   2.942  14.389  14.341
67157SOL    HW1 3368   2.882  14.390  14.415
67157SOL    HW2 3369   2.982  14.302  14.343
67158SOL     OW 3370   2.496   5.041  13.800
67158SOL    HW1 3371   2.414   5.004  13.769
67158SOL    HW2 3372   2.534   5.084  13.723
67159SOL     OW 3373   7.030   1.975   8.407
67159SOL    HW1 3374   7.037   2.024   8.488
67159SOL    HW2 3375   6.957   1.915   8.421
67160SOL     OW 3376   8.332  11.385   2.352
67160SOL    HW1 3377   8.322  11.335   2.271
67160SOL    HW2 3378   8.291  11.469   2.333
67161SOL     OW 3379   3.331   1.082  11.938
67161SOL    HW1 3380   3.366   1.152  11.883
67161SOL    HW2 3381   3.382   1.086  12.018
67162SOL     OW 3382   6.674   6.823   0.621
67162SOL    HW1 3383   6.587   6.857   0.601
67162SOL    HW2 3384   6.725   6.900   0.645
67163SOL     OW 3385  10.178   7.678  12.327
67163SOL    HW1 3386  10.082   7.681  12.328
67163SOL    HW2 3387  10.199   7.613  12.260
67164SOL     OW 3388  12.687   2.632   1.073
67164SOL    HW1 3389  12.637   2.597   0.999
67164SOL    HW2 3390  12.653   2.721   1.085
67165SOL     OW 3391  12.066  14.495   7.700
67165SOL    HW1 3392  12.104  14.411   7.727
67165SOL    HW2 3393  12.053  14.486   7.606
67166SOL     OW 3394   6.372   8.012   4.604
67166SOL    HW1 3395   6.344   7.965   4.682
67166SOL    HW2 3396   6.379   7.946   4.536
67167SOL     OW 3397   8.903   0.856   0.633
67167SOL    HW1 3398   8.844   0.818   0.569
67167SOL    HW2 3399   8.979   0.797   0.634
67168SOL     OW 3400   4.755   2.928   1.678
67168SOL    HW1 3401   4.842   2.967   1.685
67168SOL    HW2 3402   4.748   2.870   1.753
67169SOL     OW 3403   5.361  10.756  11.615
67169SOL    HW1 3404   5.381  10.679  11.669
67169SOL    HW2 3405   5.278  10.788  11.649
67170SOL     OW 3406   0.789   3.682   5.737
67170SOL    HW1 3407   0.761   3.593   5.718
67170SOL    HW2 3408   0.875   3.690   5.695
67171SOL     OW 3409   8.420   1.584   9.047
67171SOL    HW1 3410   8.392   1.512   9.104
67171SOL    HW2 3411   8.414   1.549   8.959
67172SOL     OW 3412   5.018   7.556   6.910
67172SOL    HW1 3413   5.055   7.530   6.994
67172SOL    HW2 3414   4.938   7.505   6.901
67173SOL     OW 3415   6.769  14.375   9.572
67173SOL    HW1 3416   6.771  14.379   9.667
67173SOL    HW2 3417   6.761  14.282   9.552
67174SOL     OW 3418   3.423   2.213  12.640
67174SOL    HW1 3419   3.393   2.279  12.703
67174SOL    HW2 3420   3.514   2.236  12.622
67175SOL     OW 3421   8.465   7.884   6.765
67175SOL    HW1 3422   8.466   7.975   6.737
67175SOL    HW2 3423   8.525   7.881   6.840
67176SOL     OW 3424  11.590   5.015   5.693
67176SOL    HW1 3425  11.503   5.016   5.653
67176SOL    HW2 3426  11.636   4.943   5.649
67177SOL     OW 3427  14.373   3.940   0.354
67177SOL    HW1 3428  14.365   3.882   0.278
67177SOL    HW2 3429  14.444   4.000   0.331
67178SOL     OW 3430  14.664   8.835   9.024
67178SOL    HW1 3431  14.744   8.802   9.065
67178SOL    HW2 3432  14.593   8.791   9.071
67179SOL     OW 3433  14.372   5.970   4.547
67179SOL    HW1 3434  14.399   6.047   4.596
67179SOL    HW2 3435  14.310   6.003   4.483
67180SOL     OW 3436  12.928  13.965   7.623
67180SOL    HW1 3437  12.942  14.025   7.549
67180SOL    HW2 3438  12.981  14.001   7.693
67181SOL     OW 3439   7.359   8.128  10.226
67181SOL    HW1 3440   7.443   8.107  10.186
67181SOL    HW2 3441   7.340   8.217  10.197
67182SOL     OW 3442   2.587   2.950   6.462
67182SOL    HW1 3443   2.603   3.032   6.416
67182SOL    HW2 3444   2.604   2.882   6.397
67183SOL     OW 3445  10.942  11.425  14.577
67183SOL    HW1 3446  10.989  11.454  14.655
67183SOL    HW2 3447  10.988  11.466  14.504
67184SOL     OW 3448  14.426   0.334   9.461
67184SOL    HW1 3449  14.482   0.264   9.495
67184SOL    HW2 3450  14.429   0.323   9.366
67185SOL     OW 3451   0.473  13.636   5.110
67185SOL    HW1 3452   0.447  13.645   5.018
67185SOL    HW2 3453   0.569  13.638   5.108
67186SOL     OW 3454   8.664  11.653   7.757
67186SOL    HW1 3455   8.685  11.727   7.699
67186SOL    HW2 3456   8.740  11.645   7.813
67187SOL     OW 3457  12.753   6.740   2.766
67187SOL    HW1 3458  12.747   6.668   2.829
67187SOL    HW2 3459  12.738   6.819   2.818
67188SOL     OW 3460  11.598  14.690  14.701
67188SOL    HW1 3461  11.637  14.670  14.616
67188SOL    HW2 3462  11.592  14.786  14.703
67189SOL     OW 3463   3.334   2.448   2.736
67189SOL    HW1 3464   3.352   2.504   2.812
67189SOL    HW2 3465   3.258   2.396   2.761
67190SOL     OW 3466   5.402  14.458  13.521
67190SOL    HW1 3467   5.382  14.478  13.612
67190SOL    HW2 3468   5.343  14.513  13.470
67191SOL     OW 3469  14.081   5.077   5.478
67191SOL    HW1 3470  14.132   5.063   5.558
67191SOL    HW2 3471  14.060   4.988   5.448
67192SOL     OW 3472   2.893   2.114   6.871
67192SOL    HW1 3473   2.920   2.094   6.960
67192SOL    HW2 3474   2.968   2.159   6.833
67193SOL     OW 3475  13.142   0.272   2.501
67193SOL    HW1 3476  13.107   0.356   2.530
67193SOL    HW2 3477  13.235   0.276   2.526
67194SOL     OW 3478  14.449  10.146  13.277
67194SOL    HW1 3479  14.524  10.202  13.299
67194SOL    HW2 3480  14.393  10.202  13.223
67195SOL     OW 3481   6.881  11.419   5.610
67195SOL    HW1 3482   6.925  11.431   5.695
67195SOL    HW2 3483   6.949  11.382   5.554
67196SOL     OW 3484   7.655  10.016   1.667
67196SOL    HW1 3485   7.708  10.008   1.747
67196SOL    HW2 3486   7.575   9.967   1.687
67197SOL     OW 3487  13.081   4.060   2.585
67197SOL    HW1 3488  13.014   4.110   2.538
67197SOL    HW2 3489  13.139   4.127   2.623
67198SOL     OW 3490   1.370  13.215   6.712
67198SOL    HW1 3491   1.401  13.154   6.779
67198SOL    HW2 3492   1.327  13.160   6.647
67199SOL     OW 3493   9.703  11.253   1.167
67199SOL    HW1 3494   9.717  11.254   1.262
67199SOL    HW2 3495   9.710  11.161   1.143
67200SOL     OW 3496  13.882  13.458   0.956
67200SOL    HW1 3497  13.840  13.477   0.873
67200SOL    HW2 3498  13.859  13.367   0.975
67201SOL     OW 3499  13.660   0.307   4.261
67201SOL    HW1 3500  13.691   0.306   4.170
67201SOL    HW2 3501  13.739   0.301   4.313
67202SOL     OW 3502   3.909  13.305   7.170
67202SOL    HW1 3503   3.815  13.304   7.152
67202SOL    HW2 3504   3.949  13.312   7.083
67203SOL     OW 3505   5.076   7.478   2.909
67203SOL    HW1 3506   5.152   7.524   2.873
67203SOL    HW2 3507   5.090   7.480   3.004
67204SOL     OW 3508  12.467   1.579  11.503
67204SOL    HW1 3509  12.448   1.574  11.410
67204SOL    HW2 3510  12.399   1.636  11.539
67205SOL     OW 3511  10.351  12.428  11.535
67205SOL    HW1 3512  10.264  12.465  11.553
67205SOL    HW2 3513  10.332  12.346  11.490
67206SOL     OW 3514   7.661  13.387   3.256
67206SOL    HW1 3515   7.683  13.297   3.233
67206SOL    HW2 3516   7.679  13.437   3.177
67207SOL     OW 3517   1.520  14.547   6.338
67207SOL    HW1 3518   1.540  14.637   6.365
67207SOL    HW2 3519   1.565  14.492   6.403
67208SOL     OW 3520   9.228   0.933   2.537
67208SOL    HW1 3521   9.138   0.936   2.505
67208SOL    HW2 3522   9.250   1.024   2.555
67209SOL     OW 3523   7.869   8.834   7.117
67209SOL    HW1 3524   7.876   8.855   7.210
67209SOL    HW2 3525   7.924   8.757   7.106
67210SOL     OW 3526   2.058   2.636   7.227
67210SOL    HW1 3527   2.089   2.547   7.209
67210SOL    HW2 3528   1.999   2.656   7.155
67211SOL     OW 3529   8.213   4.672   6.968
67211SOL    HW1 3530   8.267   4.643   7.041
67211SOL    HW2 3531   8.128   4.631   6.983
67212SOL     OW 3532  11.097   3.564   5.319
67212SOL    HW1 3533  11.030   3.559   5.387
67212SOL    HW2 3534  11.079   3.489   5.262
67213SOL     OW 3535   0.401  11.935   6.093
67213SOL    HW1 3536   0.404  12.031   6.093
67213SOL    HW2 3537   0.317  11.913   6.134
67214SOL     OW 3538  11.247   6.272   5.371
67214SOL    HW1 3539  11.254   6.320   5.454
67214SOL    HW2 3540  11.191   6.197   5.391
67215SOL     OW 3541   4.288   1.241   8.770
67215SOL    HW1 3542   4.282   1.146   8.759
67215SOL    HW2 3543   4.322   1.252   8.859
67216SOL     OW 3544   9.337  12.761   5.020
67216SOL    HW1 3545   9.316  12.691   4.959
67216SOL    HW2 3546   9.353  12.838   4.964
67217SOL     OW 3547  12.530   5.985   6.371
67217SOL    HW1 3548  12.446   5.940   6.378
67217SOL    HW2 3549  12.579   5.935   6.305
67218SOL     OW 3550   7.878   5.216  12.982
67218SOL    HW1 3551   7.972   5.221  12.997
67218SOL    HW2 3552   7.840   5.211  13.070
67219SOL     OW 3553  10.857   5.507   2.523
67219SOL    HW1 3554  10.908   5.586   2.541
67219SOL    HW2 3555  10.865   5.454   2.603
67220SOL     OW 3556   7.501   1.267   4.776
67220SOL    HW1 3557   7.584   1.267   4.824
67220SOL    HW2 3558   7.509   1.341   4.715
67221SOL     OW 3559   1.770   4.188   7.729
67221SOL    HW1 3560   1.814   4.173   7.813
67221SOL    HW2 3561   1.687   4.230   7.753
67222SOL     OW 3562   8.161  12.548  11.240
67222SOL    HW1 3563   8.238  12.602  11.258
67222SOL    HW2 3564   8.197  12.460  11.224
67223SOL     OW 3565   5.752  12.638   3.250
67223SOL    HW1 3566   5.660  12.657   3.272
67223SOL    HW2 3567   5.764  12.677   3.164
67224SOL     OW 3568   3.286   7.426   4.389
67224SOL    HW1 3569   3.374   7.465   4.390
67224SOL    HW2 3570   3.232   7.490   4.343
67225SOL     OW 3571  12.754  12.417   1.621
67225SOL    HW1 3572  12.713  12.352   1.679
67225SOL    HW2 3573  12.723  12.501   1.655
67226SOL     OW 3574   8.154   5.063  13.010
67226SOL    HW1 3575   8.215   5.135  13.026
67226SOL    HW2 3576   8.112   5.048  13.095
67227SOL     OW 3577   3.677   7.152   8.817
67227SOL    HW1 3578   3.583   7.143   8.804
67227SOL    HW2 3579   3.711   7.177   8.730
67228SOL     OW 3580  14.504   4.321   1.973
67228SOL    HW1 3581  14.409   4.333   1.983
67228SOL    HW2 3582  14.540   4.409   1.981
67229SOL     OW 3583   8.649  10.163   6.826
67229SOL    HW1 3584   8.690  10.170   6.739
67229SOL    HW2 3585   8.722  10.150   6.886
67230SOL     OW 3586   8.646   3.359   6.493
67230SOL    HW1 3587   8.581   3.401   6.549
67230SOL    HW2 3588   8.637   3.403   6.408
67231SOL     OW 3589  14.306   9.607  10.402
67231SOL    HW1 3590  14.397   9.618  10.430
67231SOL    HW2 3591  14.261   9.684  10.435
67232SOL     OW 3592   0.340   6.109  10.588
67232SOL    HW1 3593   0.273   6.095  10.655
67232SOL    HW2 3594   0.298   6.168  10.525
67233SOL     OW 3595  10.088   8.631   8.470
67233SOL    HW1 3596  10.072   8.700   8.534
67233SOL    HW2 3597  10.076   8.674   8.385
67234SOL     OW 3598  12.777   6.204  14.259
67234SOL    HW1 3599  12.741   6.282  14.216
67234SOL    HW2 3600  12.810   6.150  14.187
67235SOL     OW 3601   4.598  14.741   9.337
67235SOL    HW1 3602   4.644  14.673   9.386
67235SOL    HW2 3603   4.634  14.736   9.249
67236SOL     OW 3604   3.632  10.073   7.837
67236SOL    HW1 3605   3.560  10.125   7.801
67236SOL    HW2 3606   3.657  10.118   7.917
67237SOL     OW 3607  10.292  10.924   2.449
67237SOL    HW1 3608  10.323  11.003   2.493
67237SOL    HW2 3609  10.369  10.890   2.403
67238SOL     OW 3610   3.005   2.593  11.998
67238SOL    HW1 3611   3.095   2.621  12.013
67238SOL    HW2 3612   2.954   2.638  12.065
67239SOL     OW 3613   5.705   5.057  12.129
67239SOL    HW1 3614   5.701   5.120  12.058
67239SOL    HW2 3615   5.724   5.110  12.207
67240SOL     OW 3616   5.468   0.437   5.837
67240SOL    HW1 3617   5.414   0.359   5.841
67240SOL    HW2 3618   5.521   0.434   5.917
67241SOL     OW 3619   1.007   4.798  10.535
67241SOL    HW1 3620   0.950   4.734  10.493
67241SOL    HW2 3621   0.949   4.848  10.592
67242SOL     OW 3622   6.322  12.699   4.839
67242SOL    HW1 3623   6.321  12.631   4.907
67242SOL    HW2 3624   6.359  12.655   4.762
67243SOL     OW 3625   8.078   4.059  13.071
67243SOL    HW1 3626   7.999   4.067  13.018
67243SOL    HW2 3627   8.074   3.969  13.106
67244SOL     OW 3628   2.751   1.809   5.130
67244SOL    HW1 3629   2.792   1.821   5.216
67244SOL    HW2 3630   2.664   1.775   5.150
67245SOL     OW 3631   3.606   7.983  13.403
67245SOL    HW1 3632   3.659   7.923  13.456
67245SOL    HW2 3633   3.555   7.925  13.346
67246SOL     OW 3634   5.107  10.649   4.333
67246SOL    HW1 3635   5.173  10.579   4.334
67246SOL    HW2 3636   5.154  10.726   4.301
67247SOL     OW 3637   2.625  10.224   9.264
67247SOL    HW1 3638   2.571  10.237   9.186
67247SOL    HW2 3639   2.713  10.249   9.237
67248SOL     OW 3640  10.224  13.558   5.517
67248SOL    HW1 3641  10.282  13.633   5.504
67248SOL    HW2 3642  10.136  13.596   5.523
67249SOL     OW 3643  10.804   3.149   6.165
67249SOL    HW1 3644  10.719   3.107   6.162
67249SOL    HW2 3645  10.824   3.170   6.074
67250SOL     OW 3646   2.452  11.465  13.615
67250SOL    HW1 3647   2.441  11.547  13.566
67250SOL    HW2 3648   2.542  11.438  13.597
67251SOL     OW 3649   3.932   4.130   9.270
67251SOL    HW1 3650   4.025   4.134   9.247
67251SOL    HW2 3651   3.929   4.077   9.350
67252SOL     OW 3652   5.719   1.311  10.038
67252SOL    HW1 3653   5.647   1.358  10.079
67252SOL    HW2 3654   5.797   1.338  10.087
67253SOL     OW 3655   3.336   2.734   1.406
67253SOL    HW1 3656   3.259   2.708   1.356
67253SOL    HW2 3657   3.403   2.751   1.339
67254SOL     OW 3658   1.199   8.807   5.370
67254SOL    HW1 3659   1.158   8.728   5.335
67254SOL    HW2 3660   1.153   8.879   5.325
67255SOL     OW 3661   9.445  13.849   4.570
67255SOL    HW1 3662   9.381  13.778   4.576
67255SOL    HW2 3663   9.529  13.807   4.592
67256SOL     OW 3664   6.106  14.208  13.770
67256SOL    HW1 3665   6.171  14.246  13.828
67256SOL    HW2 3666   6.022  14.244  13.800
67257SOL     OW 3667  11.418  11.385   1.712
67257SOL    HW1 3668  11.448  11.300   1.680
67257SOL    HW2 3669  11.344  11.407   1.657
67258SOL     OW 3670  12.355  13.388   8.982
67258SOL    HW1 3671  12.326  13.306   9.023
67258SOL    HW2 3672  12.446  13.371   8.957
67259SOL     OW 3673   4.614  14.537   7.533
67259SOL    HW1 3674   4.657  14.451   7.531
67259SOL    HW2 3675   4.523  14.519   7.509
67260SOL     OW 3676   8.119   4.211  12.688
67260SOL    HW1 3677   8.201   4.170  12.717
67260SOL    HW2 3678   8.147   4.279  12.627
67261SOL     OW 3679  10.547   3.139   7.975
67261SOL    HW1 3680  10.502   3.190   8.043
67261SOL    HW2 3681  10.478   3.086   7.935
67262SOL     OW 3682   1.246   7.944  14.360
67262SOL    HW1 3683   1.299   7.904  14.291
67262SOL    HW2 3684   1.160   7.958  14.319
67263SOL     OW 3685   3.501  11.623   1.646
67263SOL    HW1 3686   3.553  11.553   1.688
67263SOL    HW2 3687   3.566  11.677   1.602
67264SOL     OW 3688   6.456  11.110   5.007
67264SOL    HW1 3689   6.397  11.116   4.932
67264SOL    HW2 3690   6.502  11.027   4.996
67265SOL     OW 3691  12.697   8.781  13.112
67265SOL    HW1 3692  12.643   8.842  13.062
67265SOL    HW2 3693  12.787   8.809  13.096
67266SOL     OW 3694   8.686  10.557   9.535
67266SOL    HW1 3695   8.781  10.548   9.543
67266SOL    HW2 3696   8.661  10.609   9.612
67267SOL     OW 3697   2.500   0.785   7.296
67267SOL    HW1 3698   2.515   0.710   7.353
67267SOL    HW2 3699   2.586   0.805   7.259
67268SOL     OW 3700  10.628   4.379   7.953
67268SOL    HW1 3701  10.588   4.463   7.932
67268SOL    HW2 3702  10.659   4.390   8.043
67269SOL     OW 3703  13.950   2.240   7.442
67269SOL    HW1 3704  13.935   2.277   7.355
67269SOL    HW2 3705  14.045   2.225   7.446
67270SOL     OW 3706   5.215  14.708   1.905
67270SOL    HW1 3707   5.253  14.630   1.946
67270SOL    HW2 3708   5.142  14.675   1.852
67271SOL     OW 3709   2.557   3.182   6.746
67271SOL    HW1 3710   2.624   3.153   6.684
67271SOL    HW2 3711   2.581   3.141   6.829
67272SOL     OW 3712   3.177   6.400   9.510
67272SOL    HW1 3713   3.147   6.490   9.524
67272SOL    HW2 3714   3.247   6.407   9.446
67273SOL     OW 3715   9.965   8.447  14.408
67273SOL    HW1 3716   9.897   8.416  14.348
67273SOL    HW2 3717  10.046   8.410  14.373
67274SOL     OW 3718  10.453  12.091  13.961
67274SOL    HW1 3719  10.374  12.044  13.931
67274SOL    HW2 3720  10.438  12.182  13.935
67275SOL     OW 3721   1.360   0.020   4.850
67275SOL    HW1 3722   1.300   0.077   4.802
67275SOL    HW2 3723   1.306  14.825   4.880
67276SOL     OW 3724  14.860   6.992  13.981
67276SOL    HW1 3725  14.787   6.947  14.024
67276SOL    HW2 3726   0.061   6.954  14.021
67277SOL     OW 3727   9.616   7.934   0.969
67277SOL    HW1 3728   9.599   7.866   1.034
67277SOL    HW2 3729   9.571   8.011   1.003
67278SOL     OW 3730   2.134   2.163   3.322
67278SOL    HW1 3731   2.169   2.208   3.245
67278SOL    HW2 3732   2.121   2.233   3.386
67279SOL     OW 3733  12.028   5.225   1.943
67279SOL    HW1 3734  12.081   5.164   1.892
67279SOL    HW2 3735  12.019   5.302   1.886
67280SOL     OW 3736   1.547  12.536   0.313
67280SOL    HW1 3737   1.536  12.606   0.378
67280SOL    HW2 3738   1.462  12.491   0.312
67281SOL     OW 3739   0.533   7.756   0.545
67281SOL    HW1 3740   0.456   7.699   0.543
67281SOL    HW2 3741   0.548   7.773   0.638
67282SOL     OW 3742  13.244   6.149   1.941
67282SOL    HW1 3743  13.291   6.088   1.884
67282SOL    HW2 3744  13.271   6.235   1.911
67283SOL     OW 3745   1.830   0.294   3.813
67283SOL    HW1 3746   1.741   0.311   3.782
67283SOL    HW2 3747   1.867   0.381   3.829
67284SOL     OW 3748   5.181   1.274   8.900
67284SOL    HW1 3749   5.108   1.333   8.883
67284SOL    HW2 3750   5.251   1.331   8.933
67285SOL     OW 3751   6.172  12.908  10.786
67285SOL    HW1 3752   6.230  12.983  10.793
67285SOL    HW2 3753   6.088  12.945  10.758
67286SOL     OW 3754  12.093   9.569   7.966
67286SOL    HW1 3755  12.094   9.663   7.948
67286SOL    HW2 3756  12.014   9.555   8.017
67287SOL     OW 3757   3.560  12.010  12.488
67287SOL    HW1 3758   3.548  12.085  12.546
67287SOL    HW2 3759   3.485  12.014  12.428
67288SOL     OW 3760   6.280  11.798   5.992
67288SOL    HW1 3761   6.242  11.716   5.961
67288SOL    HW2 3762   6.329  11.833   5.918
67289SOL     OW 3763  11.589   0.056  11.171
67289SOL    HW1 3764  11.518   0.120  11.173
67289SOL    HW2 3765  11.613   0.049  11.079
67290SOL     OW 3766   7.291  10.179   2.876
67290SOL    HW1 3767   7.297  10.113   2.945
67290SOL    HW2 3768   7.285  10.262   2.923
67291SOL     OW 3769  12.103   2.043   8.993
67291SOL    HW1 3770  12.115   1.957   9.033
67291SOL    HW2 3771  12.129   2.105   9.062
67292SOL     OW 3772   0.300   8.304   8.280
67292SOL    HW1 3773   0.205   8.293   8.277
67292SOL    HW2 3774   0.315   8.395   8.254
67293SOL     OW 3775   1.816  14.795   8.199
67293SOL    HW1 3776   1.739  14.738   8.203
67293SOL    HW2 3777   1.800  14.852   8.124
67294SOL     OW 3778   5.583   3.487   8.877
67294SOL    HW1 3779   5.516   3.456   8.939
67294SOL    HW2 3780   5.533   3.534   8.810
67295SOL     OW 3781   6.083   6.818  13.705
67295SOL    HW1 3782   5.992   6.842  13.687
67295SOL    HW2 3783   6.133   6.896  13.680
67296SOL     OW 3784   5.535   6.886  14.471
67296SOL    HW1 3785   5.545   6.960  14.531
67296SOL    HW2 3786   5.610   6.893  14.412
67297SOL     OW 3787   8.820  10.976  12.959
67297SOL    HW1 3788   8.907  11.012  12.978
67297SOL    HW2 3789   8.833  10.929  12.876
67298SOL     OW 3790   8.346   8.216   0.334
67298SOL    HW1 3791   8.319   8.271   0.408
67298SOL    HW2 3792   8.436   8.243   0.315
67299SOL     OW 3793   3.290  10.390   7.395
67299SOL    HW1 3794   3.196  10.405   7.384
67299SOL    HW2 3795   3.327  10.413   7.310
67300SOL     OW 3796   4.395   9.958   8.688
67300SOL    HW1 3797   4.392  10.045   8.727
67300SOL    HW2 3798   4.405   9.898   8.762
67301SOL     OW 3799   7.351  11.770  13.507
67301SOL    HW1 3800   7.365  11.858  13.542
67301SOL    HW2 3801   7.303  11.724  13.576
67302SOL     OW 3802   7.064  10.245   1.393
67302SOL    HW1 3803   7.135  10.219   1.451
67302SOL    HW2 3804   6.984  10.229   1.444
67303SOL     OW 3805  10.206   6.082   0.266
67303SOL    HW1 3806  10.143   6.112   0.332
67303SOL    HW2 3807  10.218   6.158   0.209
67304SOL     OW 3808   0.035  12.953   7.648
67304SOL    HW1 3809   0.049  13.027   7.707
67304SOL    HW2 3810   0.022  12.878   7.705
67305SOL     OW 3811  14.283   4.555  12.393
67305SOL    HW1 3812  14.370   4.542  12.357
67305SOL    HW2 3813  14.223   4.524  12.325
67306SOL     OW 3814   5.347  13.129  12.323
67306SOL    HW1 3815   5.430  13.149  12.280
67306SOL    HW2 3816   5.349  13.034  12.337
67307SOL     OW 3817   0.666  11.691   0.600
67307SOL    HW1 3818   0.724  11.666   0.672
67307SOL    HW2 3819   0.598  11.745   0.642
67308SOL     OW 3820   7.274   9.035   9.445
67308SOL    HW1 3821   7.293   9.096   9.516
67308SOL    HW2 3822   7.217   8.969   9.485
67309SOL     OW 3823   5.377   7.714  11.555
67309SOL    HW1 3824   5.415   7.663  11.484
67309SOL    HW2 3825   5.346   7.795  11.513
67310SOL     OW 3826  14.333   0.917  11.307
67310SOL    HW1 3827  14.285   0.998  11.287
67310SOL    HW2 3828  14.371   0.890  11.224
67311SOL     OW 3829   9.211  10.972   2.138
67311SOL    HW1 3830   9.294  10.947   2.180
67311SOL    HW2 3831   9.144  10.925   2.188
67312SOL     OW 3832  11.370  13.513  11.497
67312SOL    HW1 3833  11.449  13.562  11.473
67312SOL    HW2 3834  11.298  13.570  11.470
67313SOL     OW 3835   3.591   8.562   6.569
67313SOL    HW1 3836   3.638   8.494   6.616
67313SOL    HW2 3837   3.630   8.644   6.598
67314SOL     OW 3838   4.501  11.158   9.373
67314SOL    HW1 3839   4.534  11.212   9.302
67314SOL    HW2 3840   4.569  11.093   9.388
67315SOL     OW 3841  11.207  10.967  10.033
67315SOL    HW1 3842  11.237  10.876  10.037
67315SOL    HW2 3843  11.285  11.018  10.013
67316SOL     OW 3844   3.716   7.944   4.027
67316SOL    HW1 3845   3.782   8.011   4.010
67316SOL    HW2 3846   3.717   7.933   4.123
67317SOL     OW 3847   7.229  12.422   3.751
67317SOL    HW1 3848   7.242  12.516   3.768
67317SOL    HW2 3849   7.188  12.389   3.831
67318SOL     OW 3850  11.090  13.257  14.554
67318SOL    HW1 3851  11.121  13.268  14.644
67318SOL    HW2 3852  10.998  13.281  14.557
67319SOL     OW 3853  12.945  10.224   5.002
67319SOL    HW1 3854  12.877  10.281   4.969
67319SOL    HW2 3855  12.904  10.138   5.007
67320SOL     OW 3856   7.355   4.963   8.985
67320SOL    HW1 3857   7.290   4.980   9.053
67320SOL    HW2 3858   7.422   4.910   9.029
67321SOL     OW 3859  10.086   7.523   5.007
67321SOL    HW1 3860  10.033   7.446   4.988
67321SOL    HW2 3861  10.166   7.487   5.046
67322SOL     OW 3862  14.319   5.442   1.351
67322SOL    HW1 3863  14.291   5.505   1.284
67322SOL    HW2 3864  14.240   5.427   1.404
67323SOL     OW 3865   4.552   3.395   4.870
67323SOL    HW1 3866   4.612   3.390   4.795
67323SOL    HW2 3867   4.465   3.379   4.832
67324SOL     OW 3868   5.067   2.206   0.720
67324SOL    HW1 3869   4.980   2.236   0.747
67324SOL    HW2 3870   5.095   2.147   0.791
67325SOL     OW 3871  10.061   4.806  13.284
67325SOL    HW1 3872  10.155   4.813  13.270
67325SOL    HW2 3873  10.030   4.752  13.211
67326SOL     OW 3874   4.260   9.835   9.908
67326SOL    HW1 3875   4.251   9.841   9.813
67326SOL    HW2 3876   4.323   9.765   9.922
67327SOL     OW 3877   6.552   7.014  11.248
67327SOL    HW1 3878   6.579   6.928  11.217
67327SOL    HW2 3879   6.574   7.073  11.176
67328SOL     OW 3880   7.712   8.351   7.140
67328SOL    HW1 3881   7.659   8.274   7.164
67328SOL    HW2 3882   7.772   8.318   7.073
67329SOL     OW 3883   2.792   5.015  12.515
67329SOL    HW1 3884   2.709   4.989  12.554
67329SOL    HW2 3885   2.855   4.952  12.550
67330SOL     OW 3886  11.686   6.288   9.004
67330SOL    HW1 3887  11.664   6.286   8.911
67330SOL    HW2 3888  11.745   6.363   9.013
67331SOL     OW 3889  14.203  12.015   1.460
67331SOL    HW1 3890  14.180  11.951   1.394
67331SOL    HW2 3891  14.134  12.008   1.526
67332SOL     OW 3892  13.054   8.725   8.018
67332SOL    HW1 3893  13.144   8.747   8.043
67332SOL    HW2 3894  13.021   8.804   7.976
67333SOL     OW 3895   2.920   8.526   4.197
67333SOL    HW1 3896   2.915   8.443   4.150
67333SOL    HW2 3897   3.013   8.549   4.197
67334SOL     OW 3898  14.025   7.869   4.695
67334SOL    HW1 3899  14.046   7.880   4.788
67334SOL    HW2 3900  13.944   7.919   4.683
67335SOL     OW 3901  11.659  11.330   3.794
67335SOL    HW1 3902  11.649  11.290   3.708
67335SOL    HW2 3903  11.700  11.415   3.777
67336SOL     OW 3904   5.039   3.634   8.247
67336SOL    HW1 3905   5.032   3.540   8.265
67336SOL    HW2 3906   5.080   3.638   8.160
67337SOL     OW 3907   1.256  10.270   9.303
67337SOL    HW1 3908   1.261  10.365   9.310
67337SOL    HW2 3909   1.344  10.244   9.274
67338SOL     OW 3910  14.398   9.173   0.005
67338SOL    HW1 3911  14.422   9.162   0.097
67338SOL    HW2 3912  14.302   9.175   0.006
67339SOL     OW 3913  12.120   3.318   9.777
67339SOL    HW1 3914  12.029   3.295   9.759
67339SOL    HW2 3915  12.114   3.395   9.834
67340SOL     OW 3916   4.331   8.936  13.923
67340SOL    HW1 3917   4.337   8.852  13.879
67340SOL    HW2 3918   4.294   8.916  14.009
67341SOL     OW 3919   5.859   6.001   2.349
67341SOL    HW1 3920   5.914   5.931   2.314
67341SOL    HW2 3921   5.921   6.068   2.378
67342SOL     OW 3922  10.425  11.526  13.948
67342SOL    HW1 3923  10.387  11.438  13.936
67342SOL    HW2 3924  10.452  11.527  14.040
67343SOL     OW 3925   2.807   8.474   4.460
67343SOL    HW1 3926   2.880   8.475   4.521
67343SOL    HW2 3927   2.847   8.471   4.373
67344SOL     OW 3928   7.021   9.397   5.150
67344SOL    HW1 3929   7.022   9.387   5.246
67344SOL    HW2 3930   6.996   9.489   5.136
67345SOL     OW 3931   2.375   0.216   8.600
67345SOL    HW1 3932   2.358   0.307   8.625
67345SOL    HW2 3933   2.323   0.164   8.660
67346SOL     OW 3934   0.532   1.895   7.490
67346SOL    HW1 3935   0.544   1.887   7.396
67346SOL    HW2 3936   0.521   1.805   7.522
67347SOL     OW 3937   6.630   1.770  11.927
67347SOL    HW1 3938   6.573   1.825  11.873
67347SOL    HW2 3939   6.651   1.825  12.003
67348SOL     OW 3940   5.712  10.128  13.689
67348SOL    HW1 3941   5.753  10.125  13.776
67348SOL    HW2 3942   5.726  10.218  13.659
67349SOL     OW 3943   2.347   5.427   5.063
67349SOL    HW1 3944   2.294   5.505   5.051
67349SOL    HW2 3945   2.436   5.454   5.039
67350SOL     OW 3946  11.005  14.414   1.516
67350SOL    HW1 3947  11.001  14.375   1.604
67350SOL    HW2 3948  11.083  14.376   1.476
67351SOL     OW 3949   1.055   4.165   9.102
67351SOL    HW1 3950   1.056   4.194   9.011
67351SOL    HW2 3951   1.064   4.246   9.152
67352SOL     OW 3952   6.225  10.306   5.354
67352SOL    HW1 3953   6.137  10.343   5.350
67352SOL    HW2 3954   6.215  10.218   5.318
67353SOL     OW 3955   0.277  11.391   8.189
67353SOL    HW1 3956   0.310  11.308   8.155
67353SOL    HW2 3957   0.269  11.378   8.283
67354SOL     OW 3958   3.963   1.769  13.481
67354SOL    HW1 3959   3.990   1.846  13.431
67354SOL    HW2 3960   3.873   1.789  13.507
67355SOL     OW 3961   5.606  11.378  12.704
67355SOL    HW1 3962   5.672  11.312  12.683
67355SOL    HW2 3963   5.620  11.447  12.639
67356SOL     OW 3964   6.896   5.729   3.941
67356SOL    HW1 3965   6.881   5.635   3.929
67356SOL    HW2 3966   6.810   5.764   3.965
67357SOL     OW 3967   6.947   1.991  12.483
67357SOL    HW1 3968   6.885   1.919  12.476
67357SOL    HW2 3969   7.033   1.948  12.488
67358SOL     OW 3970   3.285  10.442   9.220
67358SOL    HW1 3971   3.328  10.358   9.201
67358SOL    HW2 3972   3.209  10.418   9.273
67359SOL     OW 3973   4.579   6.796  14.352
67359SOL    HW1 3974   4.578   6.878  14.303
67359SOL    HW2 3975   4.636   6.813  14.427
67360SOL     OW 3976   1.358  10.660  13.809
67360SOL    HW1 3977   1.380  10.708  13.729
67360SOL    HW2 3978   1.266  10.635  13.797
67361SOL     OW 3979   4.388  11.963  12.822
67361SOL    HW1 3980   4.300  12.001  12.814
67361SOL    HW2 3981   4.444  12.039  12.841
67362SOL     OW 3982   9.633   8.935  11.224
67362SOL    HW1 3983   9.545   8.970  11.239
67362SOL    HW2 3984   9.689   9.013  11.218
67363SOL     OW 3985  14.048  14.084   6.205
67363SOL    HW1 3986  14.079  14.007   6.157
67363SOL    HW2 3987  13.961  14.061   6.235
67364SOL     OW 3988  11.417   3.689   8.951
67364SOL    HW1 3989  11.338   3.726   8.911
67364SOL    HW2 3990  11.488   3.745   8.920
67365SOL     OW 3991  12.181   9.439  14.614
67365SOL    HW1 3992  12.128   9.360  14.604
67365SOL    HW2 3993  12.256   9.411  14.666
67366SOL     OW 3994   7.876  11.852   7.148
67366SOL    HW1 3995   7.941  11.844   7.218
67366SOL    HW2 3996   7.850  11.944   7.150
67367SOL     OW 3997   5.353  12.120   3.724
67367SOL    HW1 3998   5.390  12.088   3.641
67367SOL    HW2 3999   5.265  12.083   3.726
67368SOL     OW 4000  13.546   9.361  13.755
67368SOL    HW1 4001  13.479   9.412  13.800
67368SOL    HW2 4002  13.604   9.426  13.716
67369SOL     OW 4003   5.074   8.728   9.647
67369SOL    HW1 4004   5.157   8.777   9.649
67369SOL    HW2 4005   5.032   8.750   9.731
67370SOL     OW 4006   8.439   9.914   9.181
67370SOL    HW1 4007   8.391   9.970   9.121
67370SOL    HW2 4008   8.502   9.867   9.126
67371SOL     OW 4009   2.735   3.422   8.030
67371SOL    HW1 4010   2.824   3.444   8.004
67371SOL    HW2 4011   2.705   3.496   8.082
67372SOL     OW 4012  14.184  10.711   4.246
67372SOL    HW1 4013  14.275  10.732   4.225
67372SOL    HW2 4014  14.189  10.638   4.308
67373SOL     OW 4015   7.817   4.462  10.710
67373SOL    HW1 4016   7.907   4.495  10.716
67373SOL    HW2 4017   7.762   4.537  10.730
67374SOL     OW 4018  10.735   3.822   6.175
67374SOL    HW1 4019  10.807   3.760   6.181
67374SOL    HW2 4020  10.662   3.779   6.219
67375SOL     OW 4021   4.410  13.726  12.512
67375SOL    HW1 4022   4.475  13.711  12.443
67375SOL    HW2 4023   4.365  13.806  12.485
67376SOL     OW 4024   5.722   1.448   0.112
67376SOL    HW1 4025   5.671   1.409   0.183
67376SOL    HW2 4026   5.794   1.494   0.157
67377SOL     OW 4027  14.619  11.030  11.005
67377SOL    HW1 4028  14.590  10.942  10.983
67377SOL    HW2 4029  14.538  11.082  11.007
67378SOL     OW 4030   5.606   0.519   7.198
67378SOL    HW1 4031   5.590   0.439   7.249
67378SOL    HW2 4032   5.670   0.567   7.250
67379SOL     OW 4033   0.524   8.017  14.533
67379SOL    HW1 4034   0.603   7.963  14.527
67379SOL    HW2 4035   0.536   8.084  14.465
67380SOL     OW 4036   2.462  14.205   1.129
67380SOL    HW1 4037   2.491  14.213   1.038
67380SOL    HW2 4038   2.533  14.243   1.180
67381SOL     OW 4039   0.379  13.396   5.311
67381SOL    HW1 4040   0.326  13.392   5.231
67381SOL    HW2 4041   0.361  13.314   5.356
67382SOL     OW 4042  10.115   4.549   7.308
67382SOL    HW1 4043  10.179   4.500   7.360
67382SOL    HW2 4044  10.155   4.557   7.222
67383SOL     OW 4045   0.300  10.959   7.909
67383SOL    HW1 4046   0.264  10.928   7.993
67383SOL    HW2 4047   0.375  10.902   7.893
67384SOL     OW 4048  11.252  12.347   5.035
67384SOL    HW1 4049  11.265  12.373   4.944
67384SOL    HW2 4050  11.173  12.392   5.062
67385SOL     OW 4051   6.290  11.449  11.737
67385SOL    HW1 4052   6.370  11.402  11.715
67385SOL    HW2 4053   6.294  11.529  11.684
67386SOL     OW 4054   3.263   8.390   1.417
67386SOL    HW1 4055   3.329   8.454   1.442
67386SOL    HW2 4056   3.312   8.317   1.379
67387SOL     OW 4057   5.738  14.521   0.870
67387SOL    HW1 4058   5.828  14.490   0.859
67387SOL    HW2 4059   5.689  14.480   0.798
67388SOL     OW 4060   1.716   7.987   0.871
67388SOL    HW1 4061   1.636   8.011   0.918
67388SOL    HW2 4062   1.715   8.043   0.794
67389SOL     OW 4063   4.415   0.272   8.000
67389SOL    HW1 4064   4.506   0.299   8.010
67389SOL    HW2 4065   4.417   0.204   7.933
67390SOL     OW 4066   4.413  11.383   1.394
67390SOL    HW1 4067   4.349  11.315   1.379
67390SOL    HW2 4068   4.490  11.337   1.428
67391SOL     OW 4069  12.017   2.493   3.519
67391SOL    HW1 4070  12.039   2.564   3.579
67391SOL    HW2 4071  12.075   2.507   3.444
67392SOL     OW 4072  12.544   2.422   5.831
67392SOL    HW1 4073  12.638   2.420   5.814
67392SOL    HW2 4074  12.528   2.509   5.868
67393SOL     OW 4075   1.341   4.370   2.765
67393SOL    HW1 4076   1.380   4.408   2.686
67393SOL    HW2 4077   1.298   4.290   2.735
67394SOL     OW 4078  14.659   8.757   1.378
67394SOL    HW1 4079  14.713   8.724   1.450
67394SOL    HW2 4080  14.695   8.844   1.359
67395SOL     OW 4081  12.871   2.057   8.585
67395SOL    HW1 4082  12.873   1.966   8.615
67395SOL    HW2 4083  12.913   2.054   8.498
67396SOL     OW 4084   9.883  13.022  10.465
67396SOL    HW1 4085   9.929  12.941  10.485
67396SOL    HW2 4086   9.891  13.031  10.370
67397SOL     OW 4087  12.209  12.801   9.232
67397SOL    HW1 4088  12.200  12.851   9.313
67397SOL    HW2 4089  12.193  12.710   9.258
67398SOL     OW 4090   5.083   1.227  13.543
67398SOL    HW1 4091   4.991   1.250  13.535
67398SOL    HW2 4092   5.110   1.207  13.453
67399SOL     OW 4093  12.452   0.542   1.147
67399SOL    HW1 4094  12.415   0.473   1.202
67399SOL    HW2 4095  12.508   0.593   1.206
67400SOL     OW 4096   0.222   2.046   7.030
67400SOL    HW1 4097   0.281   2.109   7.072
67400SOL    HW2 4098   0.177   2.003   7.104
67401SOL     OW 4099   3.631   1.204   2.516
67401SOL    HW1 4100   3.625   1.132   2.579
67401SOL    HW2 4101   3.709   1.252   2.540
67402SOL     OW 4102   4.426   4.650  11.826
67402SOL    HW1 4103   4.380   4.634  11.743
67402SOL    HW2 4104   4.376   4.602  11.891
67403SOL     OW 4105   3.868  10.262  12.935
67403SOL    HW1 4106   3.949  10.284  12.889
67403SOL    HW2 4107   3.801  10.316  12.892
67404SOL     OW 4108   4.446   9.840   8.928
67404SOL    HW1 4109   4.521   9.894   8.905
67404SOL    HW2 4110   4.446   9.837   9.023
67405SOL     OW 4111   3.975   6.181   6.307
67405SOL    HW1 4112   4.013   6.104   6.265
67405SOL    HW2 4113   4.037   6.204   6.376
67406SOL     OW 4114   4.716   5.875   7.219
67406SOL    HW1 4115   4.782   5.940   7.196
67406SOL    HW2 4116   4.705   5.822   7.139
67407SOL     OW 4117   4.651   2.225  11.144
67407SOL    HW1 4118   4.640   2.161  11.074
67407SOL    HW2 4119   4.568   2.224  11.192
67408SOL     OW 4120   6.973  11.876  12.619
67408SOL    HW1 4121   7.020  11.955  12.647
67408SOL    HW2 4122   6.979  11.878  12.523
67409SOL     OW 4123   8.626   6.799   5.091
67409SOL    HW1 4124   8.702   6.808   5.149
67409SOL    HW2 4125   8.560   6.758   5.146
67410SOL     OW 4126   2.522   9.175  13.363
67410SOL    HW1 4127   2.466   9.145  13.435
67410SOL    HW2 4128   2.490   9.127  13.287
67411SOL     OW 4129   5.140   6.859  13.077
67411SOL    HW1 4130   5.218   6.914  13.063
67411SOL    HW2 4131   5.169   6.770  13.057
67412SOL     OW 4132  13.737   8.569  10.436
67412SOL    HW1 4133  13.651   8.591  10.400
67412SOL    HW2 4134  13.739   8.473  10.437
67413SOL     OW 4135   6.770  10.857  13.926
67413SOL    HW1 4136   6.700  10.796  13.904
67413SOL    HW2 4137   6.847  10.801  13.942
67414SOL     OW 4138   2.758   0.324   9.140
67414SOL    HW1 4139   2.766   0.361   9.228
67414SOL    HW2 4140   2.722   0.396   9.088
67415SOL     OW 4141   8.673   2.273  12.631
67415SOL    HW1 4142   8.730   2.215  12.580
67415SOL    HW2 4143   8.731   2.318  12.692
67416SOL     OW 4144   5.983   7.293  12.697
67416SOL    HW1 4145   6.029   7.333  12.770
67416SOL    HW2 4146   6.031   7.213  12.679
67417SOL     OW 4147   9.253   9.676   6.337
67417SOL    HW1 4148   9.221   9.682   6.427
67417SOL    HW2 4149   9.175   9.655   6.286
67418SOL     OW 4150  10.010   2.816   8.376
67418SOL    HW1 4151  10.027   2.811   8.470
67418SOL    HW2 4152  10.026   2.728   8.343
67419SOL     OW 4153  10.785  14.513   0.256
67419SOL    HW1 4154  10.730  14.532   0.332
67419SOL    HW2 4155  10.772  14.419   0.239
67420SOL     OW 4156   6.798   8.928  14.759
67420SOL    HW1 4157   6.801   8.888  14.846
67420SOL    HW2 4158   6.887   8.920  14.726
67421SOL     OW 4159   3.033   8.240   8.628
67421SOL    HW1 4160   3.063   8.323   8.592
67421SOL    HW2 4161   3.017   8.185   8.551
67422SOL     OW 4162   2.625   1.884   0.028
67422SOL    HW1 4163   2.578   1.805   0.000
67422SOL    HW2 4164   2.565   1.956   0.008
67423SOL     OW 4165   8.914  13.893   4.814
67423SOL    HW1 4166   8.879  13.935   4.736
67423SOL    HW2 4167   8.838  13.877   4.870
67424SOL     OW 4168  13.575   9.043   7.443
67424SOL    HW1 4169  13.587   9.121   7.388
67424SOL    HW2 4170  13.664   9.008   7.454
67425SOL     OW 4171  13.065   0.251  11.416
67425SOL    HW1 4172  13.036   0.317  11.352
67425SOL    HW2 4173  13.034   0.168  11.380
67426SOL     OW 4174   0.661   3.722   3.413
67426SOL    HW1 4175   0.750   3.716   3.379
67426SOL    HW2 4176   0.672   3.720   3.508
67427SOL     OW 4177   6.673  14.675   2.844
67427SOL    HW1 4178   6.721  14.665   2.926
67427SOL    HW2 4179   6.586  14.639   2.862
67428SOL     OW 4180  13.816   0.065   3.001
67428SOL    HW1 4181  13.785   0.118   2.927
67428SOL    HW2 4182  13.911   0.080   3.003
67429SOL     OW 4183  10.748   4.185   6.934
67429SOL    HW1 4184  10.785   4.098   6.919
67429SOL    HW2 4185  10.669   4.169   6.986
67430SOL     OW 4186  10.412   9.946   7.951
67430SOL    HW1 4187  10.489   9.890   7.951
67430SOL    HW2 4188  10.346   9.896   7.903
67431SOL     OW 4189   7.106   5.900   5.048
67431SOL    HW1 4190   7.177   5.836   5.058
67431SOL    HW2 4191   7.116   5.933   4.959
67432SOL     OW 4192  12.811  12.100  13.873
67432SOL    HW1 4193  12.784  12.032  13.934
67432SOL    HW2 4194  12.734  12.116  13.819
67433SOL     OW 4195   7.756   7.926   8.763
67433SOL    HW1 4196   7.849   7.929   8.785
67433SOL    HW2 4197   7.735   8.015   8.734
67434SOL     OW 4198  12.155   6.442   7.295
67434SOL    HW1 4199  12.188   6.531   7.289
67434SOL    HW2 4200  12.169   6.405   7.207
67435SOL     OW 4201   5.143  13.379  14.386
67435SOL    HW1 4202   5.233  13.399  14.359
67435SOL    HW2 4203   5.117  13.307  14.329
67436SOL     OW 4204   8.413  11.097   5.610
67436SOL    HW1 4205   8.361  11.061   5.681
67436SOL    HW2 4206   8.412  11.029   5.543
67437SOL     OW 4207   8.120  14.128   2.883
67437SOL    HW1 4208   8.179  14.202   2.868
67437SOL    HW2 4209   8.112  14.123   2.978
67438SOL     OW 4210   5.104   5.987  10.242
67438SOL    HW1 4211   5.053   5.910  10.270
67438SOL    HW2 4212   5.181   5.987  10.299
67439SOL     OW 4213   7.861   1.604   0.988
67439SOL    HW1 4214   7.789   1.565   0.939
67439SOL    HW2 4215   7.879   1.540   1.057
67440SOL     OW 4216   0.012   1.132   2.294
67440SOL    HW1 4217  14.808   1.164   2.256
67440SOL    HW2 4218  14.874   1.039   2.312
67441SOL     OW 4219   0.585   0.742  12.710
67441SOL    HW1 4220   0.622   0.733  12.798
67441SOL    HW2 4221   0.660   0.728  12.651
67442SOL     OW 4222  10.015   2.890  10.479
67442SOL    HW1 4223  10.074   2.961  10.455
67442SOL    HW2 4224  10.072   2.815  10.493
67443SOL     OW 4225   2.204   6.622   3.731
67443SOL    HW1 4226   2.174   6.605   3.642
67443SOL    HW2 4227   2.124   6.617   3.784
67444SOL     OW 4228   0.384   8.454  13.700
67444SOL    HW1 4229   0.433   8.479  13.622
67444SOL    HW2 4230   0.347   8.536  13.732
67445SOL     OW 4231   7.634  12.144   8.225
67445SOL    HW1 4232   7.665  12.227   8.262
67445SOL    HW2 4233   7.685  12.133   8.144
67446SOL     OW 4234   1.427   9.397   2.288
67446SOL    HW1 4235   1.388   9.332   2.230
67446SOL    HW2 4236   1.362   9.411   2.356
67447SOL     OW 4237   2.020   7.097   8.357
67447SOL    HW1 4238   2.107   7.089   8.320
67447SOL    HW2 4239   2.015   7.188   8.386
67448SOL     OW 4240  14.419  12.098   2.075
67448SOL    HW1 4241  14.466  12.076   1.994
67448SOL    HW2 4242  14.394  12.189   2.064
67449SOL     OW 4243   8.146  11.146  10.029
67449SOL    HW1 4244   8.076  11.178   9.972
67449SOL    HW2 4245   8.127  11.183  10.115
67450SOL     OW 4246   2.187   4.334  11.570
67450SOL    HW1 4247   2.226   4.257  11.529
67450SOL    HW2 4248   2.117   4.299  11.626
67451SOL     OW 4249  10.119   5.250   3.547
67451SOL    HW1 4250  10.138   5.157   3.538
67451SOL    HW2 4251  10.110   5.282   3.457
67452SOL     OW 4252  10.459   5.972   6.549
67452SOL    HW1 4253  10.521   5.899   6.541
67452SOL    HW2 4254  10.448   6.003   6.459
67453SOL     OW 4255   6.555   1.302   8.206
67453SOL    HW1 4256   6.611   1.228   8.230
67453SOL    HW2 4257   6.610   1.356   8.150
67454SOL     OW 4258  11.490   4.748  11.261
67454SOL    HW1 4259  11.440   4.689  11.205
67454SOL    HW2 4260  11.575   4.756  11.218
67455SOL     OW 4261   2.199   0.444  10.141
67455SOL    HW1 4262   2.284   0.477  10.169
67455SOL    HW2 4263   2.201   0.351  10.164
67456SOL     OW 4264   2.131  10.892   3.816
67456SOL    HW1 4265   2.167  10.826   3.875
67456SOL    HW2 4266   2.133  10.973   3.867
67457SOL     OW 4267   3.264   2.033   5.752
67457SOL    HW1 4268   3.320   2.086   5.696
67457SOL    HW2 4269   3.319   1.960   5.779
67458SOL     OW 4270  14.472   4.071   8.135
67458SOL    HW1 4271  14.488   4.160   8.166
67458SOL    HW2 4272  14.559   4.035   8.118
67459SOL     OW 4273   2.355  10.700  13.535
67459SOL    HW1 4274   2.307  10.731  13.612
67459SOL    HW2 4275   2.323  10.755  13.464
67460SOL     OW 4276   3.835   1.209  14.453
67460SOL    HW1 4277   3.927   1.185  14.459
67460SOL    HW2 4278   3.791   1.150  14.514
67461SOL     OW 4279   7.495   2.441  10.392
67461SOL    HW1 4280   7.542   2.377  10.339
67461SOL    HW2 4281   7.482   2.398  10.477
67462SOL     OW 4282   3.572   7.468   2.197
67462SOL    HW1 4283   3.618   7.463   2.114
67462SOL    HW2 4284   3.489   7.423   2.181
67463SOL     OW 4285   2.549  12.427   1.345
67463SOL    HW1 4286   2.583  12.517   1.352
67463SOL    HW2 4287   2.559  12.391   1.433
67464SOL     OW 4288   0.451   1.895   7.895
67464SOL    HW1 4289   0.516   1.958   7.864
67464SOL    HW2 4290   0.443   1.912   7.988
67465SOL     OW 4291   2.903   2.171   5.111
67465SOL    HW1 4292   2.969   2.145   5.047
67465SOL    HW2 4293   2.856   2.091   5.132
67466SOL     OW 4294   9.375  11.696   9.405
67466SOL    HW1 4295   9.448  11.695   9.467
67466SOL    HW2 4296   9.373  11.786   9.372
67467SOL     OW 4297   3.209   9.988   8.490
67467SOL    HW1 4298   3.253  10.011   8.407
67467SOL    HW2 4299   3.245   9.902   8.513
67468SOL     OW 4300  10.546  14.699   0.367
67468SOL    HW1 4301  10.490  14.655   0.302
67468SOL    HW2 4302  10.606  14.752   0.315
67469SOL     OW 4303   3.442   0.979  11.394
67469SOL    HW1 4304   3.477   1.057  11.352
67469SOL    HW2 4305   3.458   0.993  11.487
67470SOL     OW 4306  14.124  13.962  12.838
67470SOL    HW1 4307  14.067  13.978  12.914
67470SOL    HW2 4308  14.072  13.988  12.763
67471SOL     OW 4309  13.984   4.696   2.750
67471SOL    HW1 4310  13.895   4.680   2.780
67471SOL    HW2 4311  14.010   4.777   2.794
67472SOL     OW 4312  11.370   2.096  10.078
67472SOL    HW1 4313  11.449   2.059  10.040
67472SOL    HW2 4314  11.328   2.142  10.005
67473SOL     OW 4315  14.876  11.486  12.522
67473SOL    HW1 4316   0.015  11.550  12.591
67473SOL    HW2 4317  14.847  11.408  12.568
67474SOL     OW 4318  11.330  12.180   8.657
67474SOL    HW1 4319  11.257  12.179   8.720
67474SOL    HW2 4320  11.374  12.096   8.669
67475SOL     OW 4321   2.362  12.006   6.024
67475SOL    HW1 4322   2.367  11.964   5.938
67475SOL    HW2 4323   2.356  12.100   6.005
67476SOL     OW 4324   5.873   4.131  12.876
67476SOL    HW1 4325   5.945   4.107  12.818
67476SOL    HW2 4326   5.870   4.227  12.872
67477SOL     OW 4327  10.129  11.115  10.973
67477SOL    HW1 4328  10.135  11.021  10.989
67477SOL    HW2 4329  10.097  11.152  11.056
67478SOL     OW 4330  12.881   5.542   9.247
67478SOL    HW1 4331  12.861   5.596   9.170
67478SOL    HW2 4332  12.863   5.600   9.321
67479SOL     OW 4333   9.449   6.648  10.731
67479SOL    HW1 4334   9.433   6.713  10.799
67479SOL    HW2 4335   9.521   6.684  10.679
67480SOL     OW 4336  11.164   7.099  14.857
67480SOL    HW1 4337  11.170   7.132   0.069
67480SOL    HW2 4338  11.146   7.005  14.868
67481SOL     OW 4339   9.874   9.065   8.763
67481SOL    HW1 4340   9.965   9.093   8.759
67481SOL    HW2 4341   9.856   9.055   8.856
67482SOL     OW 4342   0.294  11.336   4.062
67482SOL    HW1 4343   0.308  11.242   4.072
67482SOL    HW2 4344   0.374  11.376   4.096
67483SOL     OW 4345  13.210   6.435   9.325
67483SOL    HW1 4346  13.179   6.479   9.246
67483SOL    HW2 4347  13.162   6.476   9.397
67484SOL     OW 4348   7.247   4.550   0.665
67484SOL    HW1 4349   7.260   4.455   0.663
67484SOL    HW2 4350   7.315   4.582   0.725
67485SOL     OW 4351   7.640  11.271  10.156
67485SOL    HW1 4352   7.570  11.240  10.098
67485SOL    HW2 4353   7.687  11.192  10.182
67486SOL     OW 4354   3.197   6.571   5.504
67486SOL    HW1 4355   3.196   6.604   5.414
67486SOL    HW2 4356   3.289   6.559   5.524
67487SOL     OW 4357   4.641   8.465   6.968
67487SOL    HW1 4358   4.626   8.555   6.938
67487SOL    HW2 4359   4.652   8.414   6.888
67488SOL     OW 4360   1.954  13.640  12.939
67488SOL    HW1 4361   2.025  13.580  12.962
67488SOL    HW2 4362   1.994  13.727  12.945
67489SOL     OW 4363   8.670   4.021  10.157
67489SOL    HW1 4364   8.613   4.003  10.231
67489SOL    HW2 4365   8.741   3.957  10.165
67490SOL     OW 4366   6.737   5.269   6.133
67490SOL    HW1 4367   6.660   5.221   6.165
67490SOL    HW2 4368   6.742   5.246   6.041
67491SOL     OW 4369   9.995   6.759   5.958
67491SOL    HW1 4370  10.056   6.828   5.985
67491SOL    HW2 4371   9.916   6.805   5.932
67492SOL     OW 4372   9.333  13.141   6.885
67492SOL    HW1 4373   9.413  13.101   6.852
67492SOL    HW2 4374   9.359  13.231   6.907
67493SOL     OW 4375   1.640   9.519   7.840
67493SOL    HW1 4376   1.626   9.613   7.852
67493SOL    HW2 4377   1.551   9.483   7.832
67494SOL     OW 4378  11.359   4.018  10.412
67494SOL    HW1 4379  11.342   3.961  10.488
67494SOL    HW2 4380  11.393   3.958  10.345
67495SOL     OW 4381   0.052  12.684   2.881
67495SOL    HW1 4382  14.839  12.679   2.850
67495SOL    HW2 4383   0.089  12.758   2.834
67496SOL     OW 4384   6.517  14.306  13.277
67496SOL    HW1 4385   6.568  14.278  13.353
67496SOL    HW2 4386   6.507  14.400  13.288
67497SOL     OW 4387   4.648   8.369   5.514
67497SOL    HW1 4388   4.711   8.381   5.586
67497SOL    HW2 4389   4.593   8.448   5.518
67498SOL     OW 4390   1.836  10.868   4.028
67498SOL    HW1 4391   1.781  10.843   3.953
67498SOL    HW2 4392   1.888  10.790   4.046
67499SOL     OW 4393  11.162   6.322  11.268
67499SOL    HW1 4394  11.220   6.278  11.207
67499SOL    HW2 4395  11.206   6.315  11.353
67500SOL     OW 4396  13.004   6.118   1.731
67500SOL    HW1 4397  12.912   6.137   1.716
67500SOL    HW2 4398  13.027   6.167   1.810
67501SOL     OW 4399   7.633  12.259   4.310
67501SOL    HW1 4400   7.679  12.308   4.242
67501SOL    HW2 4401   7.574  12.201   4.262
67502SOL     OW 4402   6.536  12.620  14.389
67502SOL    HW1 4403   6.508  12.665  14.310
67502SOL    HW2 4404   6.613  12.570  14.363
67503SOL     OW 4405   1.638   6.268   0.384
67503SOL    HW1 4406   1.693   6.196   0.352
67503SOL    HW2 4407   1.617   6.243   0.474
67504SOL     OW 4408  13.040  12.408   0.851
67504SOL    HW1 4409  12.957  12.360   0.846
67504SOL    HW2 4410  13.099  12.359   0.794
67505SOL     OW 4411   2.068   8.602  11.427
67505SOL    HW1 4412   2.144   8.568  11.475
67505SOL    HW2 4413   2.005   8.625  11.496
67506SOL     OW 4414  10.877   1.566   8.760
67506SOL    HW1 4415  10.795   1.591   8.717
67506SOL    HW2 4416  10.894   1.636   8.822
67507SOL     OW 4417  13.257   1.999   1.656
67507SOL    HW1 4418  13.288   2.007   1.566
67507SOL    HW2 4419  13.163   1.983   1.648
67508SOL     OW 4420   2.376   3.801   7.769
67508SOL    HW1 4421   2.391   3.785   7.862
67508SOL    HW2 4422   2.307   3.867   7.766
67509SOL     OW 4423   9.116   1.803  10.180
67509SOL    HW1 4424   9.042   1.779  10.124
67509SOL    HW2 4425   9.186   1.743  10.154
67510SOL     OW 4426   9.929   0.738   9.036
67510SOL    HW1 4427  10.009   0.686   9.034
67510SOL    HW2 4428   9.956   0.824   9.067
67511SOL     OW 4429   0.536  12.536   4.855
67511SOL    HW1 4430   0.568  12.450   4.883
67511SOL    HW2 4431   0.544  12.591   4.933
67512SOL     OW 4432   2.734   2.738   7.553
67512SOL    HW1 4433   2.664   2.673   7.554
67512SOL    HW2 4434   2.743   2.764   7.462
67513SOL     OW 4435   4.132   5.418  11.829
67513SOL    HW1 4436   4.146   5.483  11.898
67513SOL    HW2 4437   4.158   5.335  11.869
67514SOL     OW 4438   6.108   9.152  10.903
67514SOL    HW1 4439   6.033   9.097  10.924
67514SOL    HW2 4440   6.184   9.095  10.917
67515SOL     OW 4441   7.760  13.110  10.678
67515SOL    HW1 4442   7.852  13.119  10.703
67515SOL    HW2 4443   7.712  13.114  10.760
67516SOL     OW 4444  14.838   7.118   3.773
67516SOL    HW1 4445  14.817   7.195   3.827
67516SOL    HW2 4446  14.755   7.073   3.762
67517SOL     OW 4447   6.176   3.118   5.192
67517SOL    HW1 4448   6.230   3.177   5.244
67517SOL    HW2 4449   6.222   3.034   5.196
67518SOL     OW 4450   6.126   4.493   4.419
67518SOL    HW1 4451   6.124   4.580   4.381
67518SOL    HW2 4452   6.035   4.475   4.444
67519SOL     OW 4453   3.320   3.976  13.694
67519SOL    HW1 4454   3.270   4.009  13.619
67519SOL    HW2 4455   3.407   4.014  13.683
67520SOL     OW 4456  11.750  11.537   0.972
67520SOL    HW1 4457  11.781  11.550   1.062
67520SOL    HW2 4458  11.744  11.626   0.936
67521SOL     OW 4459  11.380  11.812  14.018
67521SOL    HW1 4460  11.421  11.751  13.957
67521SOL    HW2 4461  11.315  11.859  13.965
67522SOL     OW 4462  14.487   7.856   8.158
67522SOL    HW1 4463  14.504   7.763   8.173
67522SOL    HW2 4464  14.495   7.895   8.245
67523SOL     OW 4465  10.505   3.610   7.987
67523SOL    HW1 4466  10.533   3.623   8.078
67523SOL    HW2 4467  10.409   3.603   7.992
67524SOL     OW 4468   3.482  13.613  10.472
67524SOL    HW1 4469   3.409  13.550  10.466
67524SOL    HW2 4470   3.512  13.622  10.381
67525SOL     OW 4471   4.549  13.936   5.509
67525SOL    HW1 4472   4.549  13.941   5.413
67525SOL    HW2 4473   4.464  13.971   5.535
67526SOL     OW 4474   0.482   8.761   4.780
67526SOL    HW1 4475   0.577   8.774   4.770
67526SOL    HW2 4476   0.443   8.846   4.760
67527SOL     OW 4477   7.011   4.310   1.311
67527SOL    HW1 4478   7.100   4.340   1.295
67527SOL    HW2 4479   7.019   4.248   1.384
67528SOL     OW 4480   7.210   9.751   1.253
67528SOL    HW1 4481   7.233   9.829   1.201
67528SOL    HW2 4482   7.257   9.679   1.209
67529SOL     OW 4483   5.362   2.724   9.362
67529SOL    HW1 4484   5.403   2.802   9.325
67529SOL    HW2 4485   5.291   2.703   9.301
67530SOL     OW 4486   5.818   7.249   7.228
67530SOL    HW1 4487   5.783   7.181   7.170
67530SOL    HW2 4488   5.774   7.233   7.312
67531SOL     OW 4489   1.822   2.314  14.358
67531SOL    HW1 4490   1.821   2.285  14.267
67531SOL    HW2 4491   1.788   2.240  14.408
67532SOL     OW 4492   3.995   7.582  11.642
67532SOL    HW1 4493   3.927   7.575  11.710
67532SOL    HW2 4494   4.049   7.505  11.654
67533SOL     OW 4495  13.252   9.831   7.999
67533SOL    HW1 4496  13.292   9.899   7.945
67533SOL    HW2 4497  13.216   9.878   8.074
67534SOL     OW 4498   5.742   5.221  13.059
67534SOL    HW1 4499   5.778   5.160  13.123
67534SOL    HW2 4500   5.815   5.276  13.033
67535SOL     OW 4501   4.367   4.878   3.434
67535SOL    HW1 4502   4.323   4.814   3.490
67535SOL    HW2 4503   4.414   4.825   3.370
67536SOL     OW 4504   3.675   8.357   0.018
67536SOL    HW1 4505   3.585   8.324   0.013
67536SOL    HW2 4506   3.729   8.278   0.014
67537SOL     OW 4507   3.380  14.064   5.772
67537SOL    HW1 4508   3.300  14.081   5.822
67537SOL    HW2 4509   3.425  13.995   5.821
67538SOL     OW 4510   7.464   0.762   3.516
67538SOL    HW1 4511   7.508   0.808   3.445
67538SOL    HW2 4512   7.384   0.727   3.476
67539SOL     OW 4513   1.341   9.785  13.403
67539SOL    HW1 4514   1.315   9.797  13.311
67539SOL    HW2 4515   1.262   9.802  13.453
67540SOL     OW 4516   2.723  12.293  11.489
67540SOL    HW1 4517   2.732  12.225  11.423
67540SOL    HW2 4518   2.746  12.374  11.444
67541SOL     OW 4519  14.400  10.117   7.522
67541SOL    HW1 4520  14.376  10.058   7.451
67541SOL    HW2 4521  14.433  10.059   7.591
67542SOL     OW 4522   6.802   0.152   7.702
67542SOL    HW1 4523   6.716   0.176   7.669
67542SOL    HW2 4524   6.785   0.083   7.767
67543SOL     OW 4525  14.613   5.360   8.452
67543SOL    HW1 4526  14.604   5.322   8.365
67543SOL    HW2 4527  14.529   5.346   8.494
67544SOL     OW 4528   2.795   1.991  10.827
67544SOL    HW1 4529   2.880   1.962  10.794
67544SOL    HW2 4530   2.814   2.029  10.912
67545SOL     OW 4531   4.378  14.372  14.267
67545SOL    HW1 4532   4.401  14.295  14.319
67545SOL    HW2 4533   4.300  14.344  14.218
67546SOL     OW 4534   8.907   1.250   3.666
67546SOL    HW1 4535   8.877   1.179   3.609
67546SOL    HW2 4536   8.950   1.207   3.739
67547SOL     OW 4537   1.602  14.654   4.124
67547SOL    HW1 4538   1.678  14.664   4.182
67547SOL    HW2 4539   1.573  14.564   4.137
67548SOL     OW 4540  13.127   0.832   9.692
67548SOL    HW1 4541  13.095   0.921   9.702
67548SOL    HW2 4542  13.175   0.814   9.773
67549SOL     OW 4543   4.980   3.143   6.124
67549SOL    HW1 4544   5.041   3.118   6.193
67549SOL    HW2 4545   4.900   3.170   6.170
67550SOL     OW 4546   5.449  11.339   2.799
67550SOL    HW1 4547   5.424  11.431   2.802
67550SOL    HW2 4548   5.514  11.334   2.729
67551SOL     OW 4549   8.256  12.795   4.662
67551SOL    HW1 4550   8.218  12.854   4.597
67551SOL    HW2 4551   8.190  12.726   4.673
67552SOL     OW 4552   0.850   6.602   4.812
67552SOL    HW1 4553   0.786   6.579   4.880
67552SOL    HW2 4554   0.803   6.591   4.730
67553SOL     OW 4555   6.279  11.760  11.758
67553SOL    HW1 4556   6.218  11.822  11.717
67553SOL    HW2 4557   6.242  11.744  11.845
67554SOL     OW 4558   9.842  10.228  12.149
67554SOL    HW1 4559   9.770  10.288  12.170
67554SOL    HW2 4560   9.916  10.285  12.128
67555SOL     OW 4561   3.863  11.105  12.145
67555SOL    HW1 4562   3.878  11.016  12.113
67555SOL    HW2 4563   3.865  11.096  12.240
67556SOL     OW 4564  13.089   1.239  10.214
67556SOL    HW1 4565  13.062   1.249  10.306
67556SOL    HW2 4566  13.162   1.300  10.205
67557SOL     OW 4567  12.441   8.152   3.866
67557SOL    HW1 4568  12.448   8.057   3.868
67557SOL    HW2 4569  12.529   8.182   3.844
67558SOL     OW 4570  10.315   3.705   0.691
67558SOL    HW1 4571  10.367   3.772   0.647
67558SOL    HW2 4572  10.367   3.625   0.683
67559SOL     OW 4573   6.264  14.310   6.196
67559SOL    HW1 4574   6.274  14.217   6.212
67559SOL    HW2 4575   6.291  14.352   6.278
67560SOL     OW 4576   2.987   4.074  13.437
67560SOL    HW1 4577   3.081   4.057  13.439
67560SOL    HW2 4578   2.969   4.120  13.518
67561SOL     OW 4579   3.172   9.876   5.487
67561SOL    HW1 4580   3.220   9.881   5.404
67561SOL    HW2 4581   3.234   9.836   5.548
67562SOL     OW 4582   9.573   8.221  12.415
67562SOL    HW1 4583   9.648   8.281  12.418
67562SOL    HW2 4584   9.497   8.279  12.416
67563SOL     OW 4585   3.880   5.241   1.119
67563SOL    HW1 4586   3.849   5.225   1.208
67563SOL    HW2 4587   3.847   5.328   1.097
67564SOL     OW 4588   5.591  13.535   1.058
67564SOL    HW1 4589   5.612  13.487   0.978
67564SOL    HW2 4590   5.567  13.623   1.027
67565SOL     OW 4591   8.383   8.629   0.516
67565SOL    HW1 4592   8.295   8.667   0.514
67565SOL    HW2 4593   8.373   8.549   0.568
67566SOL     OW 4594   1.318   3.175  13.634
67566SOL    HW1 4595   1.347   3.263  13.609
67566SOL    HW2 4596   1.296   3.133  13.551
67567SOL     OW 4597   9.390  12.335  11.985
67567SOL    HW1 4598   9.331  12.262  12.006
67567SOL    HW2 4599   9.465  12.293  11.942
67568SOL     OW 4600   2.829   2.793   3.108
67568SOL    HW1 4601   2.896   2.862   3.101
67568SOL    HW2 4602   2.803   2.777   3.017
67569SOL     OW 4603  14.294  11.379   8.314
67569SOL    HW1 4604  14.388  11.398   8.308
67569SOL    HW2 4605  14.280  11.307   8.252
67570SOL     OW 4606   0.197   1.344   5.221
67570SOL    HW1 4607   0.157   1.428   5.244
67570SOL    HW2 4608   0.155   1.319   5.139
67571SOL     OW 4609   0.091   8.037   1.387
67571SOL    HW1 4610   0.005   8.071   1.414
67571SOL    HW2 4611   0.081   7.942   1.393
67572SOL     OW 4612  12.240  11.603   6.562
67572SOL    HW1 4613  12.250  11.556   6.480
67572SOL    HW2 4614  12.209  11.537   6.624
67573SOL     OW 4615   3.314   1.436   0.481
67573SOL    HW1 4616   3.241   1.397   0.432
67573SOL    HW2 4617   3.288   1.428   0.573
67574SOL     OW 4618   0.679  13.450   0.888
67574SOL    HW1 4619   0.620  13.378   0.909
67574SOL    HW2 4620   0.661  13.471   0.796
67575SOL     OW 4621  13.273   3.796   4.088
67575SOL    HW1 4622  13.306   3.784   3.999
67575SOL    HW2 4623  13.222   3.877   4.084
67576SOL     OW 4624   7.748   7.053   0.654
67576SOL    HW1 4625   7.795   7.056   0.571
67576SOL    HW2 4626   7.803   7.101   0.715
67577SOL     OW 4627   7.654  14.373   6.703
67577SOL    HW1 4628   7.672  14.401   6.792
67577SOL    HW2 4629   7.738  14.342   6.670
67578SOL     OW 4630   8.678   7.823   3.357
67578SOL    HW1 4631   8.681   7.744   3.302
67578SOL    HW2 4632   8.765   7.828   3.397
67579SOL     OW 4633   1.526   1.450   8.578
67579SOL    HW1 4634   1.455   1.445   8.642
67579SOL    HW2 4635   1.564   1.537   8.592
67580SOL     OW 4636  12.548  11.351  10.245
67580SOL    HW1 4637  12.578  11.310  10.326
67580SOL    HW2 4638  12.480  11.413  10.274
67581SOL     OW 4639   9.193   1.195  13.731
67581SOL    HW1 4640   9.287   1.181  13.745
67581SOL    HW2 4641   9.151   1.144  13.800
67582SOL     OW 4642   1.467   2.805  10.583
67582SOL    HW1 4643   1.498   2.736  10.524
67582SOL    HW2 4644   1.464   2.884  10.528
67583SOL     OW 4645   2.280  12.323   8.860
67583SOL    HW1 4646   2.318  12.239   8.883
67583SOL    HW2 4647   2.323  12.348   8.778
67584SOL     OW 4648   5.112  14.724   0.885
67584SOL    HW1 4649   5.137  14.633   0.868
67584SOL    HW2 4650   5.062  14.721   0.966
67585SOL     OW 4651   3.429   7.902  11.757
67585SOL    HW1 4652   3.368   7.833  11.729
67585SOL    HW2 4653   3.512   7.878  11.716
67586SOL     OW 4654   4.175   4.510  11.247
67586SOL    HW1 4655   4.185   4.598  11.211
67586SOL    HW2 4656   4.092   4.513  11.295
67587SOL     OW 4657   0.494   3.439   2.090
67587SOL    HW1 4658   0.525   3.363   2.139
67587SOL    HW2 4659   0.507   3.513   2.149
67588SOL     OW 4660   3.566   8.121  12.491
67588SOL    HW1 4661   3.635   8.161  12.437
67588SOL    HW2 4662   3.614   8.072  12.558
67589SOL     OW 4663  10.599  13.028  14.675
67589SOL    HW1 4664  10.632  13.118  14.684
67589SOL    HW2 4665  10.678  12.974  14.672
67590SOL     OW 4666   9.043   7.620   2.846
67590SOL    HW1 4667   8.964   7.636   2.898
67590SOL    HW2 4668   9.011   7.612   2.756
67591SOL     OW 4669   3.322   3.307   9.723
67591SOL    HW1 4670   3.377   3.384   9.708
67591SOL    HW2 4671   3.383   3.233   9.720
67592SOL     OW 4672   4.944   2.044  11.555
67592SOL    HW1 4673   4.981   2.117  11.606
67592SOL    HW2 4674   4.914   2.085  11.474
67593SOL     OW 4675   0.886   8.321   5.159
67593SOL    HW1 4676   0.902   8.345   5.068
67593SOL    HW2 4677   0.935   8.385   5.210
67594SOL     OW 4678  12.568   4.083   9.397
67594SOL    HW1 4679  12.635   4.037   9.447
67594SOL    HW2 4680  12.596   4.175   9.397
67595SOL     OW 4681   1.796   8.717   2.628
67595SOL    HW1 4682   1.740   8.794   2.611
67595SOL    HW2 4683   1.740   8.658   2.677
67596SOL     OW 4684   0.119   8.514   1.559
67596SOL    HW1 4685   0.194   8.474   1.603
67596SOL    HW2 4686   0.054   8.444   1.554
67597SOL     OW 4687   7.087   1.049   6.247
67597SOL    HW1 4688   7.037   1.100   6.311
67597SOL    HW2 4689   7.120   1.113   6.185
67598SOL     OW 4690   3.997   5.214   0.867
67598SOL    HW1 4691   3.956   5.199   0.952
67598SOL    HW2 4692   4.082   5.254   0.887
67599SOL     OW 4693   9.728   4.361   3.909
67599SOL    HW1 4694   9.685   4.276   3.910
67599SOL    HW2 4695   9.723   4.392   4.000
67600SOL     OW 4696   1.120   4.254   9.856
67600SOL    HW1 4697   1.072   4.301   9.923
67600SOL    HW2 4698   1.164   4.183   9.903
67601SOL     OW 4699   3.701   6.069   6.141
67601SOL    HW1 4700   3.753   6.065   6.221
67601SOL    HW2 4701   3.723   6.153   6.103
67602SOL     OW 4702   5.073  10.554  12.168
67602SOL    HW1 4703   5.100  10.503  12.091
67602SOL    HW2 4704   5.140  10.621  12.178
67603SOL     OW 4705   2.088  13.454   8.611
67603SOL    HW1 4706   2.076  13.538   8.567
67603SOL    HW2 4707   2.103  13.476   8.703
67604SOL     OW 4708   7.097  12.339   1.442
67604SOL    HW1 4709   7.097  12.321   1.348
67604SOL    HW2 4710   7.005  12.351   1.465
67605SOL     OW 4711   2.075   7.053  11.764
67605SOL    HW1 4712   2.011   7.012  11.706
67605SOL    HW2 4713   2.120   6.980  11.806
67606SOL     OW 4714   6.125  11.578   5.881
67606SOL    HW1 4715   6.055  11.569   5.817
67606SOL    HW2 4716   6.182  11.503   5.865
67607SOL     OW 4717   2.143   9.432   8.877
67607SOL    HW1 4718   2.095   9.394   8.951
67607SOL    HW2 4719   2.203   9.494   8.917
67608SOL     OW 4720   4.364   4.647   7.701
67608SOL    HW1 4721   4.449   4.688   7.720
67608SOL    HW2 4722   4.385   4.574   7.643
67609SOL     OW 4723  11.669  11.459   5.082
67609SOL    HW1 4724  11.651  11.508   5.002
67609SOL    HW2 4725  11.596  11.397   5.088
67610SOL     OW 4726  10.096   9.449  12.520
67610SOL    HW1 4727  10.044   9.514  12.472
67610SOL    HW2 4728  10.184   9.457  12.484
67611SOL     OW 4729  12.809  10.477  12.925
67611SOL    HW1 4730  12.782  10.491  13.016
67611SOL    HW2 4731  12.861  10.555  12.904
67612SOL     OW 4732   4.161   8.877   7.495
67612SOL    HW1 4733   4.079   8.827   7.498
67612SOL    HW2 4734   4.169   8.906   7.405
67613SOL     OW 4735   8.538   4.728  11.519
67613SOL    HW1 4736   8.557   4.809  11.565
67613SOL    HW2 4737   8.614   4.672  11.537
67614SOL     OW 4738   0.990   5.160  14.284
67614SOL    HW1 4739   1.055   5.119  14.226
67614SOL    HW2 4740   0.924   5.195  14.224
67615SOL     OW 4741  10.766  10.970   4.958
67615SOL    HW1 4742  10.774  11.062   4.985
67615SOL    HW2 4743  10.844  10.953   4.906
67616SOL     OW 4744   2.657   3.397  12.012
67616SOL    HW1 4745   2.578   3.450  12.024
67616SOL    HW2 4746   2.659   3.378  11.918
67617SOL     OW 4747   8.111   6.292   1.436
67617SOL    HW1 4748   8.031   6.314   1.388
67617SOL    HW2 4749   8.122   6.364   1.499
67618SOL     OW 4750  13.124  13.670  11.965
67618SOL    HW1 4751  13.142  13.673  11.871
67618SOL    HW2 4752  13.089  13.582  11.979
67619SOL     OW 4753   0.390   5.738   6.290
67619SOL    HW1 4754   0.417   5.659   6.336
67619SOL    HW2 4755   0.370   5.801   6.360
67620SOL     OW 4756   9.844   0.212   2.484
67620SOL    HW1 4757   9.898   0.204   2.562
67620SOL    HW2 4758   9.760   0.246   2.515
67621SOL     OW 4759   2.902  11.287   1.184
67621SOL    HW1 4760   2.871  11.240   1.107
67621SOL    HW2 4761   2.906  11.378   1.157
67622SOL     OW 4762   8.592   9.331  11.823
67622SOL    HW1 4763   8.507   9.369  11.799
67622SOL    HW2 4764   8.592   9.245  11.780
67623SOL     OW 4765   1.176   0.161   7.425
67623SOL    HW1 4766   1.196   0.220   7.352
67623SOL    HW2 4767   1.081   0.170   7.436
67624SOL     OW 4768  14.201   5.829  13.795
67624SOL    HW1 4769  14.289   5.797  13.814
67624SOL    HW2 4770  14.199   5.843  13.701
67625SOL     OW 4771   6.829  10.066  13.117
67625SOL    HW1 4772   6.891  10.034  13.182
67625SOL    HW2 4773   6.833  10.162  13.127
67626SOL     OW 4774  12.855   7.688   5.477
67626SOL    HW1 4775  12.903   7.628   5.534
67626SOL    HW2 4776  12.765   7.684   5.509
67627SOL     OW 4777  11.196  10.724   4.633
67627SOL    HW1 4778  11.227  10.791   4.694
67627SOL    HW2 4779  11.104  10.745   4.618
67628SOL     OW 4780   3.281  11.469   5.437
67628SOL    HW1 4781   3.267  11.419   5.518
67628SOL    HW2 4782   3.307  11.556   5.467
67629SOL     OW 4783   1.301   7.664   2.014
67629SOL    HW1 4784   1.379   7.689   2.063
67629SOL    HW2 4785   1.263   7.747   1.983
67630SOL     OW 4786   6.355  13.169   3.841
67630SOL    HW1 4787   6.445  13.192   3.816
67630SOL    HW2 4788   6.341  13.216   3.923
67631SOL     OW 4789   8.479   7.786   0.341
67631SOL    HW1 4790   8.408   7.794   0.278
67631SOL    HW2 4791   8.543   7.728   0.299
67632SOL     OW 4792  11.653   8.171  13.754
67632SOL    HW1 4793  11.727   8.128  13.796
67632SOL    HW2 4794  11.578   8.113  13.771
67633SOL     OW 4795   3.909   0.470   8.238
67633SOL    HW1 4796   3.970   0.474   8.312
67633SOL    HW2 4797   3.859   0.551   8.244
67634SOL     OW 4798   3.525  10.520   8.883
67634SOL    HW1 4799   3.497  10.542   8.972
67634SOL    HW2 4800   3.613  10.483   8.894
67635SOL     OW 4801   9.235   6.033  12.407
67635SOL    HW1 4802   9.151   6.074  12.428
67635SOL    HW2 4803   9.300   6.096  12.436
67636SOL     OW 4804   6.466   9.157  10.490
67636SOL    HW1 4805   6.433   9.239  10.456
67636SOL    HW2 4806   6.427   9.090  10.433
67637SOL     OW 4807   6.256  13.355  12.664
67637SOL    HW1 4808   6.245  13.386  12.574
67637SOL    HW2 4809   6.332  13.296  12.660
67638SOL     OW 4810   2.787   5.154   0.191
67638SOL    HW1 4811   2.874   5.187   0.215
67638SOL    HW2 4812   2.780   5.173   0.098
67639SOL     OW 4813   0.124   8.428   8.638
67639SOL    HW1 4814   0.061   8.463   8.575
67639SOL    HW2 4815   0.209   8.454   8.604
67640SOL     OW 4816  14.676  11.919  12.342
67640SOL    HW1 4817  14.670  11.823  12.338
67640SOL    HW2 4818  14.585  11.949  12.345
67641SOL     OW 4819   6.929   7.067   5.096
67641SOL    HW1 4820   6.903   7.159   5.104
67641SOL    HW2 4821   6.906   7.044   5.006
67642SOL     OW 4822   9.663  10.772  14.138
67642SOL    HW1 4823   9.667  10.831  14.063
67642SOL    HW2 4824   9.698  10.824  14.211
67643SOL     OW 4825   8.910   7.122  10.924
67643SOL    HW1 4826   8.877   7.033  10.911
67643SOL    HW2 4827   8.837   7.168  10.966
67644SOL     OW 4828   5.779   1.817   1.234
67644SOL    HW1 4829   5.858   1.764   1.242
67644SOL    HW2 4830   5.740   1.788   1.151
67645SOL     OW 4831   9.438   0.124   8.280
67645SOL    HW1 4832   9.427   0.081   8.365
67645SOL    HW2 4833   9.528   0.103   8.254
67646SOL     OW 4834   1.067   6.633   8.132
67646SOL    HW1 4835   1.151   6.659   8.093
67646SOL    HW2 4836   1.070   6.537   8.135
67647SOL     OW 4837   1.699   6.653   3.955
67647SOL    HW1 4838   1.698   6.664   4.050
67647SOL    HW2 4839   1.621   6.600   3.936
67648SOL     OW 4840  13.096  11.164   6.633
67648SOL    HW1 4841  13.043  11.134   6.559
67648SOL    HW2 4842  13.038  11.160   6.708
67649SOL     OW 4843  12.546   2.414   1.445
67649SOL    HW1 4844  12.527   2.326   1.412
67649SOL    HW2 4845  12.615   2.447   1.388
67650SOL     OW 4846   1.259   6.541   3.823
67650SOL    HW1 4847   1.270   6.466   3.764
67650SOL    HW2 4848   1.328   6.602   3.798
67651SOL     OW 4849  11.986   9.298   6.790
67651SOL    HW1 4850  11.894   9.310   6.812
67651SOL    HW2 4851  11.989   9.298   6.694
67652SOL     OW 4852  11.263   6.003   8.638
67652SOL    HW1 4853  11.311   5.922   8.628
67652SOL    HW2 4854  11.330   6.070   8.648
67653SOL     OW 4855   0.691  12.824   6.373
67653SOL    HW1 4856   0.614  12.880   6.360
67653SOL    HW2 4857   0.750  12.847   6.302
67654SOL     OW 4858   9.197  10.942   8.989
67654SOL    HW1 4859   9.209  10.864   9.043
67654SOL    HW2 4860   9.127  10.992   9.032
67655SOL     OW 4861   4.526  10.268   8.858
67655SOL    HW1 4862   4.587  10.243   8.928
67655SOL    HW2 4863   4.571  10.339   8.812
67656SOL     OW 4864   5.565  13.746  10.096
67656SOL    HW1 4865   5.615  13.733  10.015
67656SOL    HW2 4866   5.474  13.757  10.067
67657SOL     OW 4867   4.769  10.539   2.875
67657SOL    HW1 4868   4.820  10.475   2.925
67657SOL    HW2 4869   4.765  10.502   2.787
67658SOL     OW 4870  10.999   4.283  12.640
67658SOL    HW1 4871  10.986   4.353  12.576
67658SOL    HW2 4872  11.093   4.265  12.636
67659SOL     OW 4873   5.060  14.584   8.249
67659SOL    HW1 4874   5.120  14.650   8.215
67659SOL    HW2 4875   5.053  14.519   8.179
67660SOL     OW 4876   0.067   0.681   3.189
67660SOL    HW1 4877   0.141   0.672   3.249
67660SOL    HW2 4878   0.047   0.775   3.191
67661SOL     OW 4879  12.456   0.860  13.489
67661SOL    HW1 4880  12.450   0.938  13.433
67661SOL    HW2 4881  12.422   0.889  13.573
67662SOL     OW 4882   9.593  10.015  12.427
67662SOL    HW1 4883   9.511  10.057  12.454
67662SOL    HW2 4884   9.622   9.966  12.505
67663SOL     OW 4885  14.578  12.075   9.727
67663SOL    HW1 4886  14.595  12.036   9.641
67663SOL    HW2 4887  14.537  12.005   9.777
67664SOL     OW 4888   6.489   4.050   9.531
67664SOL    HW1 4889   6.520   4.140   9.545
67664SOL    HW2 4890   6.568   4.000   9.513
67665SOL     OW 4891   1.185   3.123   9.355
67665SOL    HW1 4892   1.230   3.208   9.355
67665SOL    HW2 4893   1.190   3.094   9.264
67666SOL     OW 4894   5.372  13.472   0.703
67666SOL    HW1 4895   5.422  13.470   0.621
67666SOL    HW2 4896   5.438  13.465   0.772
67667SOL     OW 4897   4.975  10.627   5.793
67667SOL    HW1 4898   5.024  10.549   5.767
67667SOL    HW2 4899   4.968  10.679   5.714
67668SOL     OW 4900  14.638  10.489  14.817
67668SOL    HW1 4901  14.565  10.455  14.869
67668SOL    HW2 4902  14.683  10.411  14.784
67669SOL     OW 4903  10.871   6.408   3.466
67669SOL    HW1 4904  10.964   6.405   3.486
67669SOL    HW2 4905  10.859   6.493   3.423
67670SOL     OW 4906   9.063   8.019  11.714
67670SOL    HW1 4907   9.065   8.074  11.636
67670SOL    HW2 4908   9.040   7.932  11.682
67671SOL     OW 4909   9.360  13.467   3.546
67671SOL    HW1 4910   9.268  13.491   3.533
67671SOL    HW2 4911   9.368  13.382   3.503
67672SOL     OW 4912   9.329   2.530   7.182
67672SOL    HW1 4913   9.267   2.577   7.238
67672SOL    HW2 4914   9.413   2.571   7.201
67673SOL     OW 4915   8.994   9.888   5.367
67673SOL    HW1 4916   8.947   9.907   5.448
67673SOL    HW2 4917   9.035   9.803   5.383
67674SOL     OW 4918   0.149  11.444   0.059
67674SOL    HW1 4919   0.114  11.363   0.021
67674SOL    HW2 4920   0.180  11.418   0.146
67675SOL     OW 4921  10.277  11.409   4.555
67675SOL    HW1 4922  10.279  11.467   4.478
67675SOL    HW2 4923  10.341  11.340   4.534
67676SOL     OW 4924   4.887   8.784   7.155
67676SOL    HW1 4925   4.981   8.799   7.146
67676SOL    HW2 4926   4.852   8.795   7.066
67677SOL     OW 4927   1.481  13.247   2.704
67677SOL    HW1 4928   1.472  13.223   2.797
67677SOL    HW2 4929   1.508  13.166   2.662
67678SOL     OW 4930  10.805  13.661   2.430
67678SOL    HW1 4931  10.729  13.605   2.444
67678SOL    HW2 4932  10.846  13.667   2.516
67679SOL     OW 4933  11.827   8.237  10.592
67679SOL    HW1 4934  11.733   8.217  10.590
67679SOL    HW2 4935  11.854   8.213  10.681
67680SOL     OW 4936  13.866   6.248  14.159
67680SOL    HW1 4937  13.849   6.342  14.150
67680SOL    HW2 4938  13.804   6.207  14.098
67681SOL     OW 4939   0.809  10.313  10.931
67681SOL    HW1 4940   0.780  10.315  11.022
67681SOL    HW2 4941   0.731  10.290  10.882
67682SOL     OW 4942  11.845  12.031   8.770
67682SOL    HW1 4943  11.913  12.026   8.837
67682SOL    HW2 4944  11.804  12.117   8.784
67683SOL     OW 4945   1.016   5.164  13.787
67683SOL    HW1 4946   1.103   5.130  13.803
67683SOL    HW2 4947   0.998   5.141  13.695
67684SOL     OW 4948  10.957  11.827   9.676
67684SOL    HW1 4949  10.999  11.891   9.734
67684SOL    HW2 4950  10.964  11.866   9.589
67685SOL     OW 4951   2.249   5.835   3.143
67685SOL    HW1 4952   2.243   5.843   3.048
67685SOL    HW2 4953   2.231   5.742   3.160
67686SOL     OW 4954  13.895   8.237   2.699
67686SOL    HW1 4955  13.822   8.176   2.693
67686SOL    HW2 4956  13.924   8.230   2.790
67687SOL     OW 4957   7.393  11.680   7.356
67687SOL    HW1 4958   7.373  11.617   7.426
67687SOL    HW2 4959   7.367  11.635   7.275
67688SOL     OW 4960  12.895   1.149   0.350
67688SOL    HW1 4961  12.947   1.068   0.349
67688SOL    HW2 4962  12.948   1.210   0.401
67689SOL     OW 4963   8.212  14.877   7.482
67689SOL    HW1 4964   8.127  14.870   7.439
67689SOL    HW2 4965   8.205  14.819   7.557
67690SOL     OW 4966   5.981  11.967  10.949
67690SOL    HW1 4967   6.012  11.881  10.978
67690SOL    HW2 4968   6.022  11.979  10.863
67691SOL     OW 4969   8.630  10.927   8.103
67691SOL    HW1 4970   8.567  10.932   8.176
67691SOL    HW2 4971   8.587  10.975   8.032
67692SOL     OW 4972   7.975   9.456   1.386
67692SOL    HW1 4973   7.931   9.533   1.348
67692SOL    HW2 4974   7.953   9.459   1.479
67693SOL     OW 4975   3.504  14.036  12.687
67693SOL    HW1 4976   3.473  14.050  12.597
67693SOL    HW2 4977   3.589  13.994  12.676
67694SOL     OW 4978   2.578   4.533  10.958
67694SOL    HW1 4979   2.521   4.591  10.909
67694SOL    HW2 4980   2.522   4.496  11.027
67695SOL     OW 4981  10.430   6.164   8.628
67695SOL    HW1 4982  10.472   6.145   8.544
67695SOL    HW2 4983  10.478   6.240   8.662
67696SOL     OW 4984  13.498   6.013   4.453
67696SOL    HW1 4985  13.477   6.094   4.500
67696SOL    HW2 4986  13.582   5.985   4.491
67697SOL     OW 4987   6.961   7.915   5.798
67697SOL    HW1 4988   6.944   8.009   5.795
67697SOL    HW2 4989   7.028   7.905   5.866
67698SOL     OW 4990  14.642  11.631  14.720
67698SOL    HW1 4991  14.639  11.557  14.780
67698SOL    HW2 4992  14.552  11.641  14.690
67699SOL     OW 4993  12.031  13.558  13.862
67699SOL    HW1 4994  11.980  13.634  13.888
67699SOL    HW2 4995  12.111  13.594  13.824
67700SOL     OW 4996  10.844   7.035   3.986
67700SOL    HW1 4997  10.797   6.958   3.954
67700SOL    HW2 4998  10.915   7.048   3.923
67701SOL     OW 4999   9.178   8.048  12.793
67701SOL    HW1 5000   9.154   7.974  12.849
67701SOL    HW2 5001   9.246   8.014  12.735
67702SOL     OW 5002   1.721   8.863   8.302
67702SOL    HW1 5003   1.783   8.872   8.374
67702SOL    HW2 5004   1.649   8.811   8.339
67703SOL     OW 5005   3.374   7.536   0.050
67703SOL    HW1 5006   3.342   7.589  14.855
67703SOL    HW2 5007   3.326   7.567   0.126
67704SOL     OW 5008   8.052  10.938   1.229
67704SOL    HW1 5009   8.039  10.843   1.224
67704SOL    HW2 5010   8.053  10.957   1.323
67705SOL     OW 5011   9.395   9.551   0.387
67705SOL    HW1 5012   9.311   9.597   0.390
67705SOL    HW2 5013   9.455   9.609   0.433
67706SOL     OW 5014   0.003   2.587  10.951
67706SOL    HW1 5015   0.054   2.666  10.966
67706SOL    HW2 5016  14.812   2.614  10.890
67707SOL     OW 5017   2.384   7.308   8.780
67707SOL    HW1 5018   2.353   7.293   8.869
67707SOL    HW2 5019   2.339   7.388   8.753
67708SOL     OW 5020   2.347  14.276  14.250
67708SOL    HW1 5021   2.340  14.370  14.263
67708SOL    HW2 5022   2.355  14.266  14.155
67709SOL     OW 5023   4.721  10.295  12.535
67709SOL    HW1 5024   4.745  10.295  12.628
67709SOL    HW2 5025   4.758  10.213  12.501
67710SOL     OW 5026   8.620   3.499  13.122
67710SOL    HW1 5027   8.580   3.432  13.067
67710SOL    HW2 5028   8.607   3.467  13.212
67711SOL     OW 5029   9.072   4.449   4.987
67711SOL    HW1 5030   9.132   4.406   5.048
67711SOL    HW2 5031   9.094   4.542   4.994
67712SOL     OW 5032  13.113   7.614   3.387
67712SOL    HW1 5033  13.179   7.655   3.442
67712SOL    HW2 5034  13.111   7.668   3.308
67713SOL     OW 5035   1.358   2.671  10.807
67713SOL    HW1 5036   1.403   2.746  10.847
67713SOL    HW2 5037   1.399   2.662  10.721
67714SOL     OW 5038   6.403   4.116  12.796
67714SOL    HW1 5039   6.445   4.202  12.790
67714SOL    HW2 5040   6.456   4.059  12.741
67715SOL     OW 5041  14.594   4.981   7.137
67715SOL    HW1 5042  14.601   4.889   7.162
67715SOL    HW2 5043  14.682   5.005   7.108
67716SOL     OW 5044   4.042   3.842   4.864
67716SOL    HW1 5045   4.000   3.836   4.950
67716SOL    HW2 5046   4.118   3.785   4.871
67717SOL     OW 5047  14.788  13.447   9.135
67717SOL    HW1 5048  14.841  13.403   9.069
67717SOL    HW2 5049  14.732  13.506   9.085
67718SOL     OW 5050   3.176   7.793   4.017
67718SOL    HW1 5051   3.246   7.732   3.993
67718SOL    HW2 5052   3.206   7.878   3.985
67719SOL     OW 5053   0.853   1.900   6.765
67719SOL    HW1 5054   0.833   1.885   6.673
67719SOL    HW2 5055   0.768   1.914   6.807
67720SOL     OW 5056  11.611   4.635  11.583
67720SOL    HW1 5057  11.623   4.642  11.488
67720SOL    HW2 5058  11.521   4.603  11.593
67721SOL     OW 5059  12.578   6.555   3.282
67721SOL    HW1 5060  12.526   6.596   3.350
67721SOL    HW2 5061  12.669   6.576   3.305
67722SOL     OW 5062   0.899  11.614   4.796
67722SOL    HW1 5063   0.820  11.582   4.839
67722SOL    HW2 5064   0.891  11.709   4.798
67723SOL     OW 5065  12.233  13.036   1.843
67723SOL    HW1 5066  12.155  13.052   1.896
67723SOL    HW2 5067  12.211  12.961   1.788
67724SOL     OW 5068   2.802   0.445   0.460
67724SOL    HW1 5069   2.729   0.384   0.452
67724SOL    HW2 5070   2.878   0.390   0.477
67725SOL     OW 5071   2.415   5.726   6.101
67725SOL    HW1 5072   2.433   5.818   6.122
67725SOL    HW2 5073   2.436   5.719   6.007
67726SOL     OW 5074   6.598  14.501   0.438
67726SOL    HW1 5075   6.564  14.587   0.414
67726SOL    HW2 5076   6.693  14.513   0.445
67727SOL     OW 5077   2.794   2.092   0.918
67727SOL    HW1 5078   2.864   2.029   0.900
67727SOL    HW2 5079   2.825   2.174   0.880
67728SOL     OW 5080   9.710   3.166  13.281
67728SOL    HW1 5081   9.800   3.158  13.312
67728SOL    HW2 5082   9.656   3.141  13.356
67729SOL     OW 5083   4.390  13.406   7.338
67729SOL    HW1 5084   4.418  13.347   7.268
67729SOL    HW2 5085   4.296  13.415   7.325
67730SOL     OW 5086  12.841  12.423  13.296
67730SOL    HW1 5087  12.907  12.487  13.269
67730SOL    HW2 5088  12.855  12.413  13.390
67731SOL     OW 5089  10.843   9.704   9.063
67731SOL    HW1 5090  10.921   9.752   9.090
67731SOL    HW2 5091  10.814   9.659   9.143
67732SOL     OW 5092   2.733  14.206   9.061
67732SOL    HW1 5093   2.663  14.165   9.011
67732SOL    HW2 5094   2.717  14.180   9.152
67733SOL     OW 5095   6.584  12.366  11.938
67733SOL    HW1 5096   6.644  12.411  11.879
67733SOL    HW2 5097   6.589  12.275  11.912
67734SOL     OW 5098  14.138   4.708   8.227
67734SOL    HW1 5099  14.166   4.712   8.135
67734SOL    HW2 5100  14.058   4.656   8.225
67735SOL     OW 5101   9.450   8.769  14.753
67735SOL    HW1 5102   9.465   8.807  14.666
67735SOL    HW2 5103   9.417   8.681  14.735
67736SOL     OW 5104  12.058   1.727   7.026
67736SOL    HW1 5105  11.998   1.740   6.953
67736SOL    HW2 5106  12.103   1.811   7.036
67737SOL     OW 5107  11.308   2.240   8.128
67737SOL    HW1 5108  11.257   2.166   8.163
67737SOL    HW2 5109  11.398   2.208   8.125
67738SOL     OW 5110  12.801  14.599   7.669
67738SOL    HW1 5111  12.791  14.655   7.592
67738SOL    HW2 5112  12.741  14.527   7.654
67739SOL     OW 5113   6.426   0.267   3.391
67739SOL    HW1 5114   6.519   0.242   3.394
67739SOL    HW2 5115   6.423   0.354   3.431
67740SOL     OW 5116   2.028  14.493   1.969
67740SOL    HW1 5117   2.053  14.468   1.880
67740SOL    HW2 5118   1.938  14.462   1.979
67741SOL     OW 5119   2.523   5.137  14.245
67741SOL    HW1 5120   2.570   5.199  14.300
67741SOL    HW2 5121   2.464   5.092  14.305
67742SOL     OW 5122   5.530   3.589   0.557
67742SOL    HW1 5123   5.468   3.650   0.516
67742SOL    HW2 5124   5.590   3.646   0.606
67743SOL     OW 5125   0.234   5.669   0.258
67743SOL    HW1 5126   0.165   5.701   0.317
67743SOL    HW2 5127   0.314   5.710   0.290
67744SOL     OW 5128   7.619   8.865  11.220
67744SOL    HW1 5129   7.675   8.792  11.193
67744SOL    HW2 5130   7.679   8.935  11.244
67745SOL     OW 5131  10.503   3.087   5.450
67745SOL    HW1 5132  10.589   3.128   5.438
67745SOL    HW2 5133  10.522   3.006   5.499
67746SOL     OW 5134   2.801  13.789   8.817
67746SOL    HW1 5135   2.893  13.813   8.816
67746SOL    HW2 5136   2.796  13.712   8.760
67747SOL     OW 5137   7.572   1.490   0.890
67747SOL    HW1 5138   7.535   1.547   0.823
67747SOL    HW2 5139   7.496   1.454   0.936
67748SOL     OW 5140   6.559   3.377   1.419
67748SOL    HW1 5141   6.535   3.326   1.341
67748SOL    HW2 5142   6.500   3.344   1.487
67749SOL     OW 5143   0.383   7.803   1.444
67749SOL    HW1 5144   0.293   7.828   1.425
67749SOL    HW2 5145   0.379   7.709   1.459
67750SOL     OW 5146  10.151   6.851   5.079
67750SOL    HW1 5147  10.204   6.913   5.029
67750SOL    HW2 5148  10.210   6.815   5.144
67751SOL     OW 5149   0.258   5.709   7.267
67751SOL    HW1 5150   0.186   5.720   7.329
67751SOL    HW2 5151   0.282   5.616   7.275
67752SOL     OW 5152   7.670  12.934  14.150
67752SOL    HW1 5153   7.663  12.839  14.144
67752SOL    HW2 5154   7.754  12.954  14.109
67753SOL     OW 5155  14.779   8.810   3.436
67753SOL    HW1 5156  14.818   8.888   3.397
67753SOL    HW2 5157  14.790   8.822   3.530
67754SOL     OW 5158   8.914   3.420   8.358
67754SOL    HW1 5159   9.004   3.397   8.337
67754SOL    HW2 5160   8.864   3.392   8.282
67755SOL     OW 5161  12.664  14.459   8.424
67755SOL    HW1 5162  12.748  14.416   8.408
67755SOL    HW2 5163  12.627  14.411   8.499
67756SOL     OW 5164  10.544   4.648   5.421
67756SOL    HW1 5165  10.516   4.591   5.349
67756SOL    HW2 5166  10.501   4.610   5.499
67757SOL     OW 5167   0.684   7.322   1.191
67757SOL    HW1 5168   0.729   7.400   1.223
67757SOL    HW2 5169   0.720   7.307   1.104
67758SOL     OW 5170   9.745   2.793  11.783
67758SOL    HW1 5171   9.786   2.842  11.855
67758SOL    HW2 5172   9.654   2.784  11.810
67759SOL     OW 5173   7.365   1.365   9.808
67759SOL    HW1 5174   7.394   1.372   9.717
67759SOL    HW2 5175   7.396   1.445   9.850
67760SOL     OW 5176  13.429  12.536   5.444
67760SOL    HW1 5177  13.439  12.454   5.395
67760SOL    HW2 5178  13.472  12.519   5.528
67761SOL     OW 5179   2.471  13.174   6.602
67761SOL    HW1 5180   2.387  13.130   6.619
67761SOL    HW2 5181   2.484  13.230   6.679
67762SOL     OW 5182   6.848   6.347   4.462
67762SOL    HW1 5183   6.894   6.297   4.394
67762SOL    HW2 5184   6.904   6.337   4.540
67763SOL     OW 5185  13.405   9.517   1.581
67763SOL    HW1 5186  13.382   9.534   1.489
67763SOL    HW2 5187  13.500   9.520   1.582
67764SOL     OW 5188   4.552   9.039  11.154
67764SOL    HW1 5189   4.465   9.010  11.124
67764SOL    HW2 5190   4.589   8.962  11.196
67765SOL     OW 5191  13.366   3.991  14.093
67765SOL    HW1 5192  13.379   4.072  14.143
67765SOL    HW2 5193  13.390   3.922  14.155
67766SOL     OW 5194   3.017   7.285   0.739
67766SOL    HW1 5195   3.076   7.358   0.760
67766SOL    HW2 5196   3.011   7.286   0.644
67767SOL     OW 5197   0.466  12.189  13.234
67767SOL    HW1 5198   0.491  12.199  13.142
67767SOL    HW2 5199   0.441  12.277  13.262
67768SOL     OW 5200  11.789  11.134   2.116
67768SOL    HW1 5201  11.861  11.087   2.157
67768SOL    HW2 5202  11.726  11.065   2.093
67769SOL     OW 5203   0.909   9.242  12.172
67769SOL    HW1 5204   0.828   9.290  12.187
67769SOL    HW2 5205   0.974   9.311  12.153
67770SOL     OW 5206  13.247   8.764   9.912
67770SOL    HW1 5207  13.210   8.787   9.998
67770SOL    HW2 5208  13.330   8.722   9.933
67771SOL     OW 5209   6.629  11.948   1.192
67771SOL    HW1 5210   6.543  11.986   1.210
67771SOL    HW2 5211   6.610  11.856   1.172
67772SOL     OW 5212   5.956   7.683   3.612
67772SOL    HW1 5213   5.882   7.623   3.626
67772SOL    HW2 5214   6.023   7.628   3.572
67773SOL     OW 5215   7.485   4.882  12.741
67773SOL    HW1 5216   7.502   4.794  12.775
67773SOL    HW2 5217   7.420   4.868  12.672
67774SOL     OW 5218   9.902   4.357   3.122
67774SOL    HW1 5219   9.973   4.376   3.184
67774SOL    HW2 5220   9.944   4.308   3.051
67775SOL     OW 5221   0.104   0.769  10.455
67775SOL    HW1 5222   0.050   0.692  10.476
67775SOL    HW2 5223   0.045   0.827  10.407
67776SOL     OW 5224   4.655   4.846   3.627
67776SOL    HW1 5225   4.704   4.896   3.692
67776SOL    HW2 5226   4.577   4.816   3.674
67777SOL     OW 5227   2.175  12.576   5.050
67777SOL    HW1 5228   2.127  12.522   5.112
67777SOL    HW2 5229   2.208  12.515   4.985
67778SOL     OW 5230  11.439   0.192   1.819
67778SOL    HW1 5231  11.394   0.272   1.795
67778SOL    HW2 5232  11.405   0.126   1.759
67779SOL     OW 5233   2.174  10.873   1.692
67779SOL    HW1 5234   2.232  10.844   1.762
67779SOL    HW2 5235   2.187  10.808   1.623
67780SOL     OW 5236   3.395   2.920  13.245
67780SOL    HW1 5237   3.481   2.892  13.275
67780SOL    HW2 5238   3.412   2.991  13.183
67781SOL     OW 5239   7.222   1.213   8.445
67781SOL    HW1 5240   7.184   1.163   8.373
67781SOL    HW2 5241   7.314   1.186   8.447
67782SOL     OW 5242  10.755  10.427   1.487
67782SOL    HW1 5243  10.753  10.484   1.564
67782SOL    HW2 5244  10.827  10.461   1.434
67783SOL     OW 5245   7.822   0.235   5.328
67783SOL    HW1 5246   7.916   0.251   5.320
67783SOL    HW2 5247   7.813   0.183   5.408
67784SOL     OW 5248   4.482  11.512   6.448
67784SOL    HW1 5249   4.567  11.473   6.467
67784SOL    HW2 5250   4.422  11.471   6.510
67785SOL     OW 5251   4.254   1.452   1.366
67785SOL    HW1 5252   4.211   1.460   1.280
67785SOL    HW2 5253   4.253   1.541   1.402
67786SOL     OW 5254   6.544   5.923   6.294
67786SOL    HW1 5255   6.627   5.950   6.333
67786SOL    HW2 5256   6.549   5.953   6.203
67787SOL     OW 5257   5.862  12.758   7.710
67787SOL    HW1 5258   5.941  12.780   7.661
67787SOL    HW2 5259   5.857  12.824   7.779
67788SOL     OW 5260   5.895   0.068  14.725
67788SOL    HW1 5261   5.900   0.002  14.656
67788SOL    HW2 5262   5.922   0.021  14.804
67789SOL     OW 5263   4.013  14.277   0.985
67789SOL    HW1 5264   4.003  14.185   0.960
67789SOL    HW2 5265   4.082  14.310   0.927
67790SOL     OW 5266   6.411  14.761  14.422
67790SOL    HW1 5267   6.448  14.761  14.334
67790SOL    HW2 5268   6.468  14.819  14.473
67791SOL     OW 5269  10.017   7.488  10.979
67791SOL    HW1 5270  10.097   7.481  10.927
67791SOL    HW2 5271  10.046   7.525  11.063
67792SOL     OW 5272   5.618  12.878   2.322
67792SOL    HW1 5273   5.575  12.890   2.407
67792SOL    HW2 5274   5.562  12.816   2.275
67793SOL     OW 5275   3.564   2.477  12.749
67793SOL    HW1 5276   3.491   2.528  12.785
67793SOL    HW2 5277   3.551   2.480  12.654
67794SOL     OW 5278   0.712  12.129  12.332
67794SOL    HW1 5279   0.800  12.148  12.298
67794SOL    HW2 5280   0.716  12.037  12.357
67795SOL     OW 5281   9.960   7.468   2.097
67795SOL    HW1 5282   9.986   7.443   2.186
67795SOL    HW2 5283   9.997   7.556   2.085
67796SOL     OW 5284  12.997   8.643  11.813
67796SOL    HW1 5285  12.959   8.731  11.811
67796SOL    HW2 5286  12.929   8.586  11.777
67797SOL     OW 5287   7.312   3.031   6.672
67797SOL    HW1 5288   7.349   2.955   6.716
67797SOL    HW2 5289   7.237   3.055   6.726
67798SOL     OW 5290   5.068   9.651   9.198
67798SOL    HW1 5291   5.119   9.606   9.265
67798SOL    HW2 5292   5.070   9.743   9.223
67799SOL     OW 5293  10.793   6.650   1.084
67799SOL    HW1 5294  10.781   6.729   1.136
67799SOL    HW2 5295  10.705   6.623   1.060
67800SOL     OW 5296   6.543  12.753   0.298
67800SOL    HW1 5297   6.484  12.692   0.255
67800SOL    HW2 5298   6.591  12.699   0.361
67801SOL     OW 5299   2.250   1.404   3.174
67801SOL    HW1 5300   2.248   1.450   3.258
67801SOL    HW2 5301   2.316   1.449   3.122
67802SOL     OW 5302  14.595   6.491  12.100
67802SOL    HW1 5303  14.594   6.444  12.183
67802SOL    HW2 5304  14.506   6.479  12.065
67803SOL     OW 5305   9.896   1.446   6.773
67803SOL    HW1 5306   9.848   1.515   6.727
67803SOL    HW2 5307   9.935   1.393   6.703
67804SOL     OW 5308  13.233   2.066   9.332
67804SOL    HW1 5309  13.199   2.080   9.244
67804SOL    HW2 5310  13.315   2.116   9.334
67805SOL     OW 5311  10.793  11.251  10.528
67805SOL    HW1 5312  10.821  11.335  10.491
67805SOL    HW2 5313  10.868  11.193  10.516
67806SOL     OW 5314   8.958  14.054   3.574
67806SOL    HW1 5315   9.050  14.049   3.601
67806SOL    HW2 5316   8.909  14.028   3.652
67807SOL     OW 5317   4.577   7.217   3.354
67807SOL    HW1 5318   4.616   7.131   3.340
67807SOL    HW2 5319   4.483   7.201   3.349
67808SOL     OW 5320   9.555  12.264   8.300
67808SOL    HW1 5321   9.562  12.249   8.205
67808SOL    HW2 5322   9.630  12.319   8.321
67809SOL     OW 5323   5.799   6.940   6.210
67809SOL    HW1 5324   5.882   6.902   6.238
67809SOL    HW2 5325   5.799   6.931   6.115
67810SOL     OW 5326   8.559   0.650   4.930
67810SOL    HW1 5327   8.650   0.646   4.959
67810SOL    HW2 5328   8.526   0.731   4.970
67811SOL     OW 5329   9.067  11.062   1.739
67811SOL    HW1 5330   9.153  11.056   1.698
67811SOL    HW2 5331   9.034  11.148   1.714
67812SOL     OW 5332   0.710  11.119  11.158
67812SOL    HW1 5333   0.792  11.111  11.207
67812SOL    HW2 5334   0.730  11.081  11.072
67813SOL     OW 5335   3.056   7.229  13.382
67813SOL    HW1 5336   3.024   7.234  13.292
67813SOL    HW2 5337   3.149   7.207  13.373
67814SOL     OW 5338   9.679  11.975   9.364
67814SOL    HW1 5339   9.585  11.993   9.366
67814SOL    HW2 5340   9.714  12.036   9.299
67815SOL     OW 5341   3.100  10.244   8.509
67815SOL    HW1 5342   3.138  10.160   8.487
67815SOL    HW2 5343   3.028  10.255   8.447
67816SOL     OW 5344   9.569   6.727   8.849
67816SOL    HW1 5345   9.500   6.661   8.857
67816SOL    HW2 5346   9.595   6.746   8.939
67817SOL     OW 5347   2.848   6.873   9.724
67817SOL    HW1 5348   2.772   6.930   9.738
67817SOL    HW2 5349   2.882   6.901   9.639
67818SOL     OW 5350  11.414   1.485  11.927
67818SOL    HW1 5351  11.464   1.452  11.852
67818SOL    HW2 5352  11.407   1.579  11.911
67819SOL     OW 5353   3.156   4.227   8.786
67819SOL    HW1 5354   3.164   4.148   8.734
67819SOL    HW2 5355   3.107   4.200   8.864
67820SOL     OW 5356  10.444   8.290   8.585
67820SOL    HW1 5357  10.470   8.353   8.652
67820SOL    HW2 5358  10.370   8.332   8.541
67821SOL     OW 5359   6.772  11.725  12.211
67821SOL    HW1 5360   6.795  11.755  12.123
67821SOL    HW2 5361   6.706  11.658  12.196
67822SOL     OW 5362   6.685   8.940   2.722
67822SOL    HW1 5363   6.735   8.867   2.685
67822SOL    HW2 5364   6.688   9.008   2.655
67823SOL     OW 5365  12.398   1.568   0.879
67823SOL    HW1 5366  12.473   1.509   0.879
67823SOL    HW2 5367  12.400   1.610   0.965
67824SOL     OW 5368   4.498   7.810  13.287
67824SOL    HW1 5369   4.416   7.813  13.336
67824SOL    HW2 5370   4.472   7.806  13.195
67825SOL     OW 5371  12.751   4.319   2.972
67825SOL    HW1 5372  12.674   4.366   3.004
67825SOL    HW2 5373  12.715   4.245   2.923
67826SOL     OW 5374  13.466   1.016  14.363
67826SOL    HW1 5375  13.482   1.030  14.456
67826SOL    HW2 5376  13.463   0.920  14.354
67827SOL     OW 5377   1.722   5.360   2.017
67827SOL    HW1 5378   1.793   5.357   1.953
67827SOL    HW2 5379   1.643   5.348   1.965
67828SOL     OW 5380   0.602   1.600   5.430
67828SOL    HW1 5381   0.522   1.616   5.480
67828SOL    HW2 5382   0.657   1.546   5.487
67829SOL     OW 5383  12.071   9.389   0.446
67829SOL    HW1 5384  12.026   9.310   0.476
67829SOL    HW2 5385  12.086   9.440   0.526
67830SOL     OW 5386   9.806  11.682  12.959
67830SOL    HW1 5387   9.751  11.761  12.957
67830SOL    HW2 5388   9.775  11.629  12.885
67831SOL     OW 5389  11.300   4.763   0.572
67831SOL    HW1 5390  11.207   4.769   0.552
67831SOL    HW2 5391  11.332   4.692   0.516
67832SOL     OW 5392   6.664   4.677   3.976
67832SOL    HW1 5393   6.737   4.694   3.916
67832SOL    HW2 5394   6.685   4.593   4.016
67833SOL     OW 5395   0.650  14.852   4.744
67833SOL    HW1 5396   0.601  14.858   4.662
67833SOL    HW2 5397   0.593  14.803   4.803
67834SOL     OW 5398   5.271   5.643   9.265
67834SOL    HW1 5399   5.196   5.589   9.289
67834SOL    HW2 5400   5.347   5.595   9.298
67835SOL     OW 5401   1.652  10.365   3.170
67835SOL    HW1 5402   1.714  10.304   3.130
67835SOL    HW2 5403   1.663  10.446   3.122
67836SOL     OW 5404  14.017  10.678   2.828
67836SOL    HW1 5405  13.981  10.592   2.806
67836SOL    HW2 5406  13.944  10.739   2.815
67837SOL     OW 5407  14.780  13.920   9.662
67837SOL    HW1 5408  14.793  14.013   9.679
67837SOL    HW2 5409  14.758  13.915   9.569
67838SOL     OW 5410   3.228   8.035   4.715
67838SOL    HW1 5411   3.188   8.005   4.797
67838SOL    HW2 5412   3.273   8.116   4.738
67839SOL     OW 5413   8.531   7.769   1.165
67839SOL    HW1 5414   8.477   7.710   1.217
67839SOL    HW2 5415   8.495   7.765   1.077
67840SOL     OW 5416  10.074   6.612   3.906
67840SOL    HW1 5417  10.015   6.536   3.908
67840SOL    HW2 5418  10.048   6.663   3.983
67841SOL     OW 5419   5.414  12.522  11.692
67841SOL    HW1 5420   5.476  12.580  11.648
67841SOL    HW2 5421   5.454  12.435  11.685
67842SOL     OW 5422  10.957   5.659  10.835
67842SOL    HW1 5423  10.883   5.703  10.877
67842SOL    HW2 5424  11.035   5.699  10.874
67843SOL     OW 5425  11.463  12.314   6.046
67843SOL    HW1 5426  11.493  12.238   6.095
67843SOL    HW2 5427  11.385  12.283   5.999
67844SOL     OW 5428   0.938   7.894  13.895
67844SOL    HW1 5429   0.850   7.857  13.886
67844SOL    HW2 5430   0.996   7.821  13.877
67845SOL     OW 5431   6.177   4.787   7.623
67845SOL    HW1 5432   6.161   4.848   7.551
67845SOL    HW2 5433   6.124   4.710   7.601
67846SOL     OW 5434   5.092   2.808   8.463
67846SOL    HW1 5435   5.051   2.889   8.494
67846SOL    HW2 5436   5.177   2.836   8.429
67847SOL     OW 5437   8.312  10.566   6.256
67847SOL    HW1 5438   8.218  10.585   6.261
67847SOL    HW2 5439   8.351  10.647   6.224
67848SOL     OW 5440  10.157   0.630  14.044
67848SOL    HW1 5441  10.189   0.547  14.078
67848SOL    HW2 5442  10.223   0.658  13.981
67849SOL     OW 5443  12.202   8.032  14.330
67849SOL    HW1 5444  12.227   7.980  14.253
67849SOL    HW2 5445  12.285   8.048  14.375
67850SOL     OW 5446   2.753   6.809   2.245
67850SOL    HW1 5447   2.658   6.808   2.252
67850SOL    HW2 5448   2.777   6.717   2.231
67851SOL     OW 5449  11.584   3.889   4.312
67851SOL    HW1 5450  11.553   3.886   4.222
67851SOL    HW2 5451  11.548   3.971   4.347
67852SOL     OW 5452   7.101   3.089   1.865
67852SOL    HW1 5453   7.193   3.113   1.877
67852SOL    HW2 5454   7.084   3.105   1.772
67853SOL     OW 5455   1.738   9.367   8.056
67853SOL    HW1 5456   1.825   9.407   8.052
67853SOL    HW2 5457   1.694   9.399   7.977
67854SOL     OW 5458   2.940   3.813   6.279
67854SOL    HW1 5459   2.921   3.865   6.201
67854SOL    HW2 5460   2.857   3.772   6.302
67855SOL     OW 5461  10.941   9.882  12.871
67855SOL    HW1 5462  10.887   9.804  12.886
67855SOL    HW2 5463  10.951   9.922  12.958
67856SOL     OW 5464   0.276  11.600  14.717
67856SOL    HW1 5465   0.281  11.550  14.635
67856SOL    HW2 5466   0.229  11.543  14.777
67857SOL     OW 5467   3.985   9.652   4.684
67857SOL    HW1 5468   4.031   9.569   4.696
67857SOL    HW2 5469   4.035   9.697   4.615
67858SOL     OW 5470  12.092  14.627   6.199
67858SOL    HW1 5471  12.166  14.686   6.214
67858SOL    HW2 5472  12.024  14.659   6.258
67859SOL     OW 5473   6.926   2.539   9.463
67859SOL    HW1 5474   6.837   2.522   9.494
67859SOL    HW2 5475   6.965   2.451   9.453
67860SOL     OW 5476  13.921   0.012  12.132
67860SOL    HW1 5477  13.959   0.079  12.074
67860SOL    HW2 5478  13.881   0.062  12.203
67861SOL     OW 5479   3.861  10.803   7.387
67861SOL    HW1 5480   3.769  10.779   7.394
67861SOL    HW2 5481   3.860  10.895   7.362
67862SOL     OW 5482  14.501   1.215   6.615
67862SOL    HW1 5483  14.516   1.298   6.570
67862SOL    HW2 5484  14.535   1.230   6.703
67863SOL     OW 5485   2.133  10.110   1.469
67863SOL    HW1 5486   2.053  10.163   1.463
67863SOL    HW2 5487   2.200  10.163   1.425
67864SOL     OW 5488  13.549   9.969   2.030
67864SOL    HW1 5489  13.510   9.970   1.943
67864SOL    HW2 5490  13.520  10.051   2.070
67865SOL     OW 5491  13.092  12.743   1.939
67865SOL    HW1 5492  13.070  12.836   1.930
67865SOL    HW2 5493  13.063  12.720   2.028
67866SOL     OW 5494   3.451   4.434  12.746
67866SOL    HW1 5495   3.493   4.493  12.684
67866SOL    HW2 5496   3.367   4.412  12.707
67867SOL     OW 5497   5.174   5.636   9.670
67867SOL    HW1 5498   5.269   5.639   9.659
67867SOL    HW2 5499   5.156   5.705   9.734
67868SOL     OW 5500  11.054   0.018   0.467
67868SOL    HW1 5501  11.086   0.020   0.557
67868SOL    HW2 5502  11.035  14.803   0.451
67869SOL     OW 5503   6.079   3.126  10.290
67869SOL    HW1 5504   6.030   3.052  10.256
67869SOL    HW2 5505   6.033   3.150  10.371
67870SOL     OW 5506   0.227  13.445   9.436
67870SOL    HW1 5507   0.292  13.464   9.504
67870SOL    HW2 5508   0.259  13.365   9.394
67871SOL     OW 5509   5.198   6.696   3.823
67871SOL    HW1 5510   5.185   6.790   3.809
67871SOL    HW2 5511   5.292   6.688   3.842
67872SOL     OW 5512  10.566   7.333   6.640
67872SOL    HW1 5513  10.654   7.348   6.605
67872SOL    HW2 5514  10.511   7.321   6.563
67873SOL     OW 5515  12.827   7.370   3.316
67873SOL    HW1 5516  12.778   7.299   3.273
67873SOL    HW2 5517  12.783   7.450   3.288
67874SOL     OW 5518   1.134   3.930   4.761
67874SOL    HW1 5519   1.226   3.953   4.773
67874SOL    HW2 5520   1.124   3.918   4.666
67875SOL     OW 5521   6.099   0.769  12.038
67875SOL    HW1 5522   6.103   0.860  12.009
67875SOL    HW2 5523   6.191   0.740  12.037
67876SOL     OW 5524  12.156   7.349  13.888
67876SOL    HW1 5525  12.156   7.302  13.805
67876SOL    HW2 5526  12.136   7.440  13.865
67877SOL     OW 5527  13.556   5.055   7.141
67877SOL    HW1 5528  13.505   5.067   7.221
67877SOL    HW2 5529  13.500   5.002   7.084
67878SOL     OW 5530   4.733  13.726   6.452
67878SOL    HW1 5531   4.736  13.768   6.366
67878SOL    HW2 5532   4.653  13.760   6.492
67879SOL     OW 5533   6.256  13.760   3.402
67879SOL    HW1 5534   6.248  13.738   3.309
67879SOL    HW2 5535   6.243  13.676   3.448
67880SOL     OW 5536   4.622  14.461  12.093
67880SOL    HW1 5537   4.550  14.398  12.085
67880SOL    HW2 5538   4.645  14.482  12.003
67881SOL     OW 5539  14.860   2.387  12.669
67881SOL    HW1 5540  14.779   2.339  12.653
67881SOL    HW2 5541   0.050   2.337  12.623
67882SOL     OW 5542  10.835  11.673  11.409
67882SOL    HW1 5543  10.834  11.584  11.445
67882SOL    HW2 5544  10.747  11.685  11.373
67883SOL     OW 5545   3.766   1.816   3.357
67883SOL    HW1 5546   3.720   1.791   3.438
67883SOL    HW2 5547   3.781   1.910   3.366
67884SOL     OW 5548  13.291   4.946  11.895
67884SOL    HW1 5549  13.240   4.878  11.851
67884SOL    HW2 5550  13.380   4.912  11.898
67885SOL     OW 5551   8.147   7.924  10.302
67885SOL    HW1 5552   8.202   7.921  10.380
67885SOL    HW2 5553   8.185   7.993  10.247
67886SOL     OW 5554  14.475   5.870   5.344
67886SOL    HW1 5555  14.489   5.939   5.279
67886SOL    HW2 5556  14.425   5.803   5.298
67887SOL     OW 5557  13.548   4.370   7.966
67887SOL    HW1 5558  13.467   4.371   7.914
67887SOL    HW2 5559  13.585   4.283   7.950
67888SOL     OW 5560   5.923   8.712   7.280
67888SOL    HW1 5561   5.891   8.622   7.275
67888SOL    HW2 5562   6.007   8.705   7.326
67889SOL     OW 5563   5.749   7.139   6.401
67889SOL    HW1 5564   5.769   7.069   6.338
67889SOL    HW2 5565   5.663   7.171   6.375
67890SOL     OW 5566  13.917  13.270  13.827
67890SOL    HW1 5567  13.871  13.349  13.857
67890SOL    HW2 5568  13.897  13.264  13.734
67891SOL     OW 5569   8.266   7.917   3.926
67891SOL    HW1 5570   8.329   7.990   3.934
67891SOL    HW2 5571   8.320   7.839   3.939
67892SOL     OW 5572   8.607   5.243   0.966
67892SOL    HW1 5573   8.692   5.286   0.965
67892SOL    HW2 5574   8.598   5.206   0.878
67893SOL     OW 5575  12.880  10.465   0.013
67893SOL    HW1 5576  12.951  10.419   0.058
67893SOL    HW2 5577  12.912  10.554   0.004
67894SOL     OW 5578  12.346  12.685  11.106
67894SOL    HW1 5579  12.364  12.766  11.058
67894SOL    HW2 5580  12.261  12.655  11.074
67895SOL     OW 5581  14.708   3.237  14.168
67895SOL    HW1 5582  14.793   3.280  14.174
67895SOL    HW2 5583  14.701   3.186  14.248
67896SOL     OW 5584   9.232  11.054   7.252
67896SOL    HW1 5585   9.226  10.959   7.241
67896SOL    HW2 5586   9.143  11.080   7.276
67897SOL     OW 5587   4.340   5.110  10.885
67897SOL    HW1 5588   4.338   5.197  10.844
67897SOL    HW2 5589   4.249   5.089  10.903
67898SOL     OW 5590  14.083  10.206   1.120
67898SOL    HW1 5591  14.176  10.181   1.118
67898SOL    HW2 5592  14.083  10.301   1.114
67899SOL     OW 5593  13.359   9.619  12.447
67899SOL    HW1 5594  13.421   9.675  12.400
67899SOL    HW2 5595  13.282   9.674  12.459
67900SOL     OW 5596   9.720   7.977   7.771
67900SOL    HW1 5597   9.684   8.065   7.776
67900SOL    HW2 5598   9.647   7.923   7.738
67901SOL     OW 5599   3.285   0.280  13.032
67901SOL    HW1 5600   3.239   0.201  13.060
67901SOL    HW2 5601   3.320   0.259  12.946
67902SOL     OW 5602   9.860   6.712  10.591
67902SOL    HW1 5603   9.927   6.770  10.556
67902SOL    HW2 5604   9.900   6.625  10.589
67903SOL     OW 5605   9.358   1.915  11.042
67903SOL    HW1 5606   9.424   1.957  10.987
67903SOL    HW2 5607   9.278   1.917  10.989
67904SOL     OW 5608  12.106   8.699   1.841
67904SOL    HW1 5609  12.172   8.767   1.857
67904SOL    HW2 5610  12.040   8.715   1.908
67905SOL     OW 5611   8.385   8.456  11.310
67905SOL    HW1 5612   8.417   8.546  11.316
67905SOL    HW2 5613   8.371   8.441  11.216
67906SOL     OW 5614   3.927   1.264   9.019
67906SOL    HW1 5615   4.016   1.271   9.055
67906SOL    HW2 5616   3.940   1.254   8.925
67907SOL     OW 5617   8.050   8.585   1.845
67907SOL    HW1 5618   7.988   8.513   1.859
67907SOL    HW2 5619   8.089   8.601   1.931
67908SOL     OW 5620  12.891   8.472  12.727
67908SOL    HW1 5621  12.807   8.460  12.771
67908SOL    HW2 5622  12.868   8.502  12.639
67909SOL     OW 5623   8.439   4.299  10.819
67909SOL    HW1 5624   8.463   4.357  10.891
67909SOL    HW2 5625   8.345   4.316  10.805
67910SOL     OW 5626   1.560   1.003   2.363
67910SOL    HW1 5627   1.589   0.915   2.385
67910SOL    HW2 5628   1.484   1.018   2.420
67911SOL     OW 5629   2.100   8.112   9.003
67911SOL    HW1 5630   2.084   8.068   9.086
67911SOL    HW2 5631   2.062   8.053   8.937
67912SOL     OW 5632   3.998   0.117  14.626
67912SOL    HW1 5633   3.953   0.038  14.595
67912SOL    HW2 5634   4.052   0.143  14.552
67913SOL     OW 5635   6.213  12.058  10.781
67913SOL    HW1 5636   6.259  12.141  10.791
67913SOL    HW2 5637   6.142  12.077  10.719
67914SOL     OW 5638  14.032  14.672  10.445
67914SOL    HW1 5639  14.072  14.585  10.440
67914SOL    HW2 5640  14.087  14.720  10.506
67915SOL     OW 5641  12.453   0.238  11.087
67915SOL    HW1 5642  12.395   0.238  11.163
67915SOL    HW2 5643  12.398   0.263  11.014
67916SOL     OW 5644   8.579   2.251  11.914
67916SOL    HW1 5645   8.492   2.210  11.923
67916SOL    HW2 5646   8.639   2.177  11.907
67917SOL     OW 5647  12.910  11.698   9.422
67917SOL    HW1 5648  12.898  11.621   9.367
67917SOL    HW2 5649  12.855  11.682   9.499
67918SOL     OW 5650   3.569  12.442   4.451
67918SOL    HW1 5651   3.552  12.526   4.409
67918SOL    HW2 5652   3.651  12.454   4.498
67919SOL     OW 5653  14.124  12.337   6.177
67919SOL    HW1 5654  14.171  12.351   6.259
67919SOL    HW2 5655  14.036  12.371   6.195
67920SOL     OW 5656  12.378   7.676   9.537
67920SOL    HW1 5657  12.294   7.698   9.577
67920SOL    HW2 5658  12.436   7.748   9.561
67921SOL     OW 5659   3.787   0.170   5.420
67921SOL    HW1 5660   3.855   0.177   5.352
67921SOL    HW2 5661   3.705   0.165   5.371
67922SOL     OW 5662   4.261  13.558  11.898
67922SOL    HW1 5663   4.199  13.498  11.938
67922SOL    HW2 5664   4.209  13.609  11.836
67923SOL     OW 5665  11.673   2.050   2.573
67923SOL    HW1 5666  11.761   2.074   2.604
67923SOL    HW2 5667  11.623   2.033   2.652
67924SOL     OW 5668  14.205   7.421   6.893
67924SOL    HW1 5669  14.207   7.345   6.833
67924SOL    HW2 5670  14.291   7.461   6.883
67925SOL     OW 5671  11.537   6.464  11.989
67925SOL    HW1 5672  11.609   6.425  12.038
67925SOL    HW2 5673  11.509   6.538  12.043
67926SOL     OW 5674   3.695   4.941   6.274
67926SOL    HW1 5675   3.652   4.877   6.217
67926SOL    HW2 5676   3.715   5.015   6.217
67927SOL     OW 5677   8.929   9.519   3.204
67927SOL    HW1 5678   8.861   9.583   3.225
67927SOL    HW2 5679   8.891   9.466   3.134
67928SOL     OW 5680   2.583   7.247   1.740
67928SOL    HW1 5681   2.489   7.232   1.741
67928SOL    HW2 5682   2.614   7.201   1.663
67929SOL     OW 5683   9.882   1.505   8.427
67929SOL    HW1 5684   9.904   1.416   8.398
67929SOL    HW2 5685   9.926   1.563   8.365
67930SOL     OW 5686   6.113  13.987  13.240
67930SOL    HW1 5687   6.151  14.061  13.287
67930SOL    HW2 5688   6.110  13.916  13.304
67931SOL     OW 5689   4.114   0.203   0.482
67931SOL    HW1 5690   4.144   0.129   0.430
67931SOL    HW2 5691   4.035   0.234   0.437
67932SOL     OW 5692  12.405   0.631  10.460
67932SOL    HW1 5693  12.436   0.577  10.388
67932SOL    HW2 5694  12.413   0.721  10.428
67933SOL     OW 5695  11.201  14.753  13.706
67933SOL    HW1 5696  11.272  14.694  13.732
67933SOL    HW2 5697  11.121  14.706  13.732
67934SOL     OW 5698   4.790  11.877   9.601
67934SOL    HW1 5699   4.728  11.915   9.663
67934SOL    HW2 5700   4.868  11.932   9.608
67935SOL     OW 5701  10.955   9.637   5.186
67935SOL    HW1 5702  10.896   9.671   5.119
67935SOL    HW2 5703  10.972   9.712   5.243
67936SOL     OW 5704   6.981   9.021   2.394
67936SOL    HW1 5705   7.075   9.038   2.395
67936SOL    HW2 5706   6.942   9.098   2.435
67937SOL     OW 5707   9.479  13.958  13.384
67937SOL    HW1 5708   9.504  14.002  13.465
67937SOL    HW2 5709   9.383  13.954  13.389
67938SOL     OW 5710   3.240   7.830   0.666
67938SOL    HW1 5711   3.311   7.819   0.730
67938SOL    HW2 5712   3.285   7.844   0.583
67939SOL     OW 5713   1.446   8.711   3.504
67939SOL    HW1 5714   1.524   8.757   3.473
67939SOL    HW2 5715   1.422   8.756   3.585
67940SOL     OW 5716   0.954   9.793   3.264
67940SOL    HW1 5717   1.026   9.855   3.258
67940SOL    HW2 5718   0.994   9.713   3.297
67941SOL     OW 5719   2.224  12.979  12.972
67941SOL    HW1 5720   2.222  13.050  12.907
67941SOL    HW2 5721   2.295  12.922  12.943
67942SOL     OW 5722   8.300  11.823   4.678
67942SOL    HW1 5723   8.205  11.823   4.691
67942SOL    HW2 5724   8.321  11.913   4.655
67943SOL     OW 5725   5.166  11.062  12.872
67943SOL    HW1 5726   5.147  11.132  12.934
67943SOL    HW2 5727   5.125  10.984  12.910
67944SOL     OW 5728  12.484  12.211   9.470
67944SOL    HW1 5729  12.531  12.128   9.470
67944SOL    HW2 5730  12.552  12.276   9.449
67945SOL     OW 5731   6.516   6.445   6.691
67945SOL    HW1 5732   6.435   6.454   6.743
67945SOL    HW2 5733   6.560   6.369   6.729
67946SOL     OW 5734  10.341  11.891   9.406
67946SOL    HW1 5735  10.299  11.833   9.469
67946SOL    HW2 5736  10.269  11.937   9.364
67947SOL     OW 5737   3.655   8.271   2.565
67947SOL    HW1 5738   3.620   8.350   2.524
67947SOL    HW2 5739   3.726   8.243   2.507
67948SOL     OW 5740   0.514   9.973   9.354
67948SOL    HW1 5741   0.500   9.928   9.437
67948SOL    HW2 5742   0.604  10.004   9.359
67949SOL     OW 5743   8.350   5.492  14.276
67949SOL    HW1 5744   8.343   5.587  14.271
67949SOL    HW2 5745   8.281   5.466  14.337
67950SOL     OW 5746   0.615   2.785   8.594
67950SOL    HW1 5747   0.645   2.707   8.642
67950SOL    HW2 5748   0.606   2.755   8.504
67951SOL     OW 5749   3.048  14.145   4.091
67951SOL    HW1 5750   2.962  14.176   4.120
67951SOL    HW2 5751   3.028  14.070   4.034
67952SOL     OW 5752   9.688  12.504  14.168
67952SOL    HW1 5753   9.740  12.530  14.092
67952SOL    HW2 5754   9.677  12.409  14.158
67953SOL     OW 5755   0.188   4.259  10.198
67953SOL    HW1 5756   0.159   4.243  10.288
67953SOL    HW2 5757   0.113   4.235  10.144
67954SOL     OW 5758  14.076   8.081   2.317
67954SOL    HW1 5759  14.069   8.102   2.224
67954SOL    HW2 5760  14.038   8.157   2.361
67955SOL     OW 5761  13.149   7.854  10.955
67955SOL    HW1 5762  13.196   7.858  11.038
67955SOL    HW2 5763  13.130   7.761  10.943
67956SOL     OW 5764   8.669   7.995   6.928
67956SOL    HW1 5765   8.712   7.948   6.856
67956SOL    HW2 5766   8.739   8.012   6.991
67957SOL     OW 5767  11.218  14.064  11.150
67957SOL    HW1 5768  11.289  14.051  11.212
67957SOL    HW2 5769  11.166  13.984  11.156
67958SOL     OW 5770   8.966   0.776   3.385
67958SOL    HW1 5771   8.890   0.723   3.411
67958SOL    HW2 5772   9.027   0.712   3.347
67959SOL     OW 5773   2.024  10.275   6.220
67959SOL    HW1 5774   2.078  10.218   6.165
67959SOL    HW2 5775   2.058  10.363   6.204
67960SOL     OW 5776   1.469   9.652   5.814
67960SOL    HW1 5777   1.381   9.666   5.850
67960SOL    HW2 5778   1.454   9.619   5.726
67961SOL     OW 5779   5.063   2.517   7.104
67961SOL    HW1 5780   4.985   2.565   7.133
67961SOL    HW2 5781   5.120   2.516   7.181
67962SOL     OW 5782   5.577   7.349  13.541
67962SOL    HW1 5783   5.588   7.350  13.636
67962SOL    HW2 5784   5.535   7.265  13.523
67963SOL     OW 5785   4.997   6.991  13.781
67963SOL    HW1 5786   4.965   7.048  13.851
67963SOL    HW2 5787   4.963   7.030  13.701
67964SOL     OW 5788   3.372   1.115   8.817
67964SOL    HW1 5789   3.414   1.193   8.780
67964SOL    HW2 5790   3.323   1.148   8.892
67965SOL     OW 5791  11.116   3.149   4.616
67965SOL    HW1 5792  11.091   3.157   4.708
67965SOL    HW2 5793  11.172   3.225   4.600
67966SOL     OW 5794   5.821   9.829   0.337
67966SOL    HW1 5795   5.840   9.814   0.430
67966SOL    HW2 5796   5.817   9.741   0.299
67967SOL     OW 5797   6.338   0.780   0.800
67967SOL    HW1 5798   6.268   0.762   0.737
67967SOL    HW2 5799   6.412   0.729   0.767
67968SOL     OW 5800  11.664  13.860  10.954
67968SOL    HW1 5801  11.730  13.858  10.885
67968SOL    HW2 5802  11.581  13.872  10.908
67969SOL     OW 5803   2.171   1.350   5.813
67969SOL    HW1 5804   2.137   1.339   5.901
67969SOL    HW2 5805   2.113   1.297   5.758
67970SOL     OW 5806   2.352  11.205   7.046
67970SOL    HW1 5807   2.377  11.220   7.137
67970SOL    HW2 5808   2.383  11.116   7.028
67971SOL     OW 5809  12.718  11.327   4.550
67971SOL    HW1 5810  12.688  11.417   4.535
67971SOL    HW2 5811  12.697  11.310   4.642
67972SOL     OW 5812  13.201  11.467   4.663
67972SOL    HW1 5813  13.135  11.452   4.731
67972SOL    HW2 5814  13.193  11.560   4.642
67973SOL     OW 5815   0.767   7.505   1.719
67973SOL    HW1 5816   0.798   7.517   1.809
67973SOL    HW2 5817   0.791   7.415   1.697
67974SOL     OW 5818  13.467  12.067  10.120
67974SOL    HW1 5819  13.378  12.030  10.119
67974SOL    HW2 5820  13.454  12.159  10.143
67975SOL     OW 5821  13.750  11.519   9.980
67975SOL    HW1 5822  13.744  11.546   9.888
67975SOL    HW2 5823  13.810  11.444   9.978
67976SOL     OW 5824  11.722  12.524  13.106
67976SOL    HW1 5825  11.699  12.611  13.139
67976SOL    HW2 5826  11.801  12.538  13.054
67977SOL     OW 5827  13.265   9.692  13.891
67977SOL    HW1 5828  13.293   9.780  13.867
67977SOL    HW2 5829  13.239   9.699  13.983
67978SOL     OW 5830   1.824   9.915   1.531
67978SOL    HW1 5831   1.848   9.946   1.618
67978SOL    HW2 5832   1.892   9.852   1.508
67979SOL     OW 5833   0.350   1.040   2.794
67979SOL    HW1 5834   0.283   0.988   2.838
67979SOL    HW2 5835   0.342   1.016   2.702
67980SOL     OW 5836   1.743  11.905  10.870
67980SOL    HW1 5837   1.707  11.942  10.950
67980SOL    HW2 5838   1.821  11.857  10.898
67981SOL     OW 5839   7.027  12.718   8.749
67981SOL    HW1 5840   6.947  12.772   8.752
67981SOL    HW2 5841   7.070  12.744   8.668
67982SOL     OW 5842  11.731  13.273   5.271
67982SOL    HW1 5843  11.756  13.318   5.352
67982SOL    HW2 5844  11.655  13.321   5.239
67983SOL     OW 5845  10.742   1.958   4.037
67983SOL    HW1 5846  10.714   1.895   3.970
67983SOL    HW2 5847  10.753   2.040   3.991
67984SOL     OW 5848  10.323   1.297   0.365
67984SOL    HW1 5849  10.300   1.204   0.367
67984SOL    HW2 5850  10.291   1.327   0.279
67985SOL     OW 5851  11.859  11.111   4.806
67985SOL    HW1 5852  11.789  11.176   4.809
67985SOL    HW2 5853  11.864  11.085   4.714
67986SOL     OW 5854   4.790   9.302   1.863
67986SOL    HW1 5855   4.778   9.394   1.839
67986SOL    HW2 5856   4.754   9.253   1.789
67987SOL     OW 5857   4.075  14.859   3.804
67987SOL    HW1 5858   4.088  14.778   3.754
67987SOL    HW2 5859   3.989   0.012   3.776
67988SOL     OW 5860   9.581   6.912  14.114
67988SOL    HW1 5861   9.513   6.876  14.057
67988SOL    HW2 5862   9.567   7.007  14.110
67989SOL     OW 5863   1.228  10.720  12.789
67989SOL    HW1 5864   1.257  10.711  12.880
67989SOL    HW2 5865   1.283  10.790  12.753
67990SOL     OW 5866  10.946   6.595   3.749
67990SOL    HW1 5867  10.995   6.544   3.813
67990SOL    HW2 5868  10.856   6.566   3.758
67991SOL     OW 5869   0.532   6.428   6.710
67991SOL    HW1 5870   0.609   6.475   6.742
67991SOL    HW2 5871   0.520   6.357   6.773
67992SOL     OW 5872  14.483  13.656   9.260
67992SOL    HW1 5873  14.403  13.661   9.312
67992SOL    HW2 5874  14.552  13.640   9.324
67993SOL     OW 5875   2.304   9.953   5.234
67993SOL    HW1 5876   2.348  10.020   5.182
67993SOL    HW2 5877   2.241  10.001   5.287
67994SOL     OW 5878  13.774   4.842  10.847
67994SOL    HW1 5879  13.745   4.872  10.934
67994SOL    HW2 5880  13.806   4.921  10.804
67995SOL     OW 5881  12.486  10.880   2.796
67995SOL    HW1 5882  12.550  10.926   2.850
67995SOL    HW2 5883  12.537  10.816   2.747
67996SOL     OW 5884   2.836   1.781  14.226
67996SOL    HW1 5885   2.777   1.721  14.181
67996SOL    HW2 5886   2.900   1.723  14.269
67997SOL     OW 5887  14.834   0.911   8.421
67997SOL    HW1 5888  14.849   0.901   8.515
67997SOL    HW2 5889  14.801   0.826   8.392
67998SOL     OW 5890   6.026   8.983   4.217
67998SOL    HW1 5891   6.020   9.063   4.164
67998SOL    HW2 5892   6.120   8.961   4.215
67999SOL     OW 5893  14.717   5.727   9.417
67999SOL    HW1 5894  14.798   5.767   9.448
67999SOL    HW2 5895  14.718   5.639   9.455
68000SOL     OW 5896   3.903   6.721   7.297
68000SOL    HW1 5897   3.907   6.814   7.273
68000SOL    HW2 5898   3.834   6.716   7.363
68001SOL     OW 5899  10.211   9.229   3.712
68001SOL    HW1 5900  10.159   9.165   3.663
68001SOL    HW2 5901  10.161   9.243   3.793
68002SOL     OW 5902   5.372   1.059   7.193
68002SOL    HW1 5903   5.424   1.037   7.116
68002SOL    HW2 5904   5.393   0.990   7.256
68003SOL     OW 5905   7.271   3.857   9.539
68003SOL    HW1 5906   7.298   3.893   9.455
68003SOL    HW2 5907   7.209   3.921   9.574
68004SOL     OW 5908   5.406   3.147  13.865
68004SOL    HW1 5909   5.396   3.205  13.940
68004SOL    HW2 5910   5.409   3.205  13.790
68005SOL     OW 5911   3.970   0.543   2.064
68005SOL    HW1 5912   3.913   0.586   2.128
68005SOL    HW2 5913   3.990   0.612   2.000
68006SOL     OW 5914  11.891   4.941  14.776
68006SOL    HW1 5915  11.930   5.025  14.753
68006SOL    HW2 5916  11.800   4.948  14.748
68007SOL     OW 5917   5.668   7.629  10.429
68007SOL    HW1 5918   5.638   7.540  10.409
68007SOL    HW2 5919   5.657   7.676  10.346
68008SOL     OW 5920   0.097   7.372   2.841
68008SOL    HW1 5921   0.021   7.335   2.886
68008SOL    HW2 5922   0.158   7.396   2.911
68009SOL     OW 5923  14.776   4.547   4.255
68009SOL    HW1 5924  14.800   4.635   4.225
68009SOL    HW2 5925  14.680   4.545   4.248
68010SOL     OW 5926  12.427  11.980  14.216
68010SOL    HW1 5927  12.375  11.944  14.144
68010SOL    HW2 5928  12.518  11.972  14.186
68011SOL     OW 5929   8.957   2.130  14.453
68011SOL    HW1 5930   8.894   2.063  14.428
68011SOL    HW2 5931   9.038   2.082  14.473
68012SOL     OW 5932   9.002   1.349   8.260
68012SOL    HW1 5933   8.939   1.297   8.210
68012SOL    HW2 5934   9.088   1.318   8.229
68013SOL     OW 5935  13.315   7.992   4.610
68013SOL    HW1 5936  13.297   8.065   4.551
68013SOL    HW2 5937  13.360   8.033   4.684
68014SOL     OW 5938   0.743   4.217   9.708
68014SOL    HW1 5939   0.660   4.263   9.700
68014SOL    HW2 5940   0.798   4.254   9.639
68015SOL     OW 5941  13.950   6.389   6.210
68015SOL    HW1 5942  14.016   6.344   6.157
68015SOL    HW2 5943  13.868   6.346   6.187
68016SOL     OW 5944   4.598   9.139  12.400
68016SOL    HW1 5945   4.565   9.191  12.326
68016SOL    HW2 5946   4.538   9.065  12.405
68017SOL     OW 5947   4.072   0.203  10.941
68017SOL    HW1 5948   4.162   0.171  10.949
68017SOL    HW2 5949   4.033   0.189  11.028
68018SOL     OW 5950   6.443   0.946   8.225
68018SOL    HW1 5951   6.477   0.858   8.239
68018SOL    HW2 5952   6.520   1.000   8.211
68019SOL     OW 5953  13.067   2.379   8.831
68019SOL    HW1 5954  13.064   2.283   8.827
68019SOL    HW2 5955  13.159   2.400   8.843
68020SOL     OW 5956   6.833  13.332  13.804
68020SOL    HW1 5957   6.898  13.272  13.768
68020SOL    HW2 5958   6.784  13.279  13.867
68021SOL     OW 5959   3.117   9.497   5.270
68021SOL    HW1 5960   3.158   9.571   5.225
68021SOL    HW2 5961   3.056   9.461   5.205
68022SOL     OW 5962   8.906   3.839   0.544
68022SOL    HW1 5963   8.915   3.933   0.530
68022SOL    HW2 5964   8.852   3.809   0.471
68023SOL     OW 5965  12.951   2.167  14.623
68023SOL    HW1 5966  13.012   2.179  14.696
68023SOL    HW2 5967  12.953   2.073  14.605
68024SOL     OW 5968   6.159   3.640  11.193
68024SOL    HW1 5969   6.237   3.588  11.208
68024SOL    HW2 5970   6.136   3.625  11.101
68025SOL     OW 5971  13.671  12.079  13.521
68025SOL    HW1 5972  13.701  11.999  13.564
68025SOL    HW2 5973  13.614  12.048  13.450
68026SOL     OW 5974   6.509   0.048   4.539
68026SOL    HW1 5975   6.533   0.020   4.451
68026SOL    HW2 5976   6.441   0.114   4.526
68027SOL     OW 5977   0.234   7.458  13.381
68027SOL    HW1 5978   0.310   7.509  13.354
68027SOL    HW2 5979   0.183   7.519  13.435
68028SOL     OW 5980   3.347   4.274   9.341
68028SOL    HW1 5981   3.269   4.282   9.287
68028SOL    HW2 5982   3.355   4.358   9.386
68029SOL     OW 5983   8.837   1.054  10.633
68029SOL    HW1 5984   8.877   0.974  10.666
68029SOL    HW2 5985   8.755   1.061  10.683
68030SOL     OW 5986   7.091   0.600   5.280
68030SOL    HW1 5987   7.172   0.605   5.229
68030SOL    HW2 5988   7.022   0.622   5.217
68031SOL     OW 5989  10.421   8.630  10.914
68031SOL    HW1 5990  10.502   8.628  10.964
68031SOL    HW2 5991  10.405   8.723  10.896
68032SOL     OW 5992   3.127  14.365   6.008
68032SOL    HW1 5993   3.171  14.438   5.964
68032SOL    HW2 5994   3.091  14.404   6.088
68033SOL     OW 5995   1.389  11.536   2.474
68033SOL    HW1 5996   1.299  11.531   2.442
68033SOL    HW2 5997   1.395  11.622   2.515
68034SOL     OW 5998  11.647   9.251  10.502
68034SOL    HW1 5999  11.576   9.244  10.566
68034SOL    HW2 6000  11.642   9.170  10.451
68035SOL     OW 6001   3.481   3.906  14.057
68035SOL    HW1 6002   3.533   3.986  14.064
68035SOL    HW2 6003   3.396   3.935  14.025
68036SOL     OW 6004   7.789  12.587   3.333
68036SOL    HW1 6005   7.741  12.504   3.339
68036SOL    HW2 6006   7.721  12.654   3.332
68037SOL     OW 6007   9.316   8.614  10.914
68037SOL    HW1 6008   9.378   8.686  10.926
68037SOL    HW2 6009   9.346   8.547  10.976
68038SOL     OW 6010  13.813  14.472   3.071
68038SOL    HW1 6011  13.865  14.451   3.149
68038SOL    HW2 6012  13.874  14.518   3.013
68039SOL     OW 6013  14.186   8.056  11.899
68039SOL    HW1 6014  14.208   8.136  11.852
68039SOL    HW2 6015  14.218   7.985  11.843
68040SOL     OW 6016   8.135  10.801   9.741
68040SOL    HW1 6017   8.168  10.778   9.827
68040SOL    HW2 6018   8.043  10.776   9.743
68041SOL     OW 6019   1.549   8.708  13.274
68041SOL    HW1 6020   1.565   8.677  13.185
68041SOL    HW2 6021   1.520   8.798  13.264
68042SOL     OW 6022   6.515   6.910   3.973
68042SOL    HW1 6023   6.442   6.908   3.911
68042SOL    HW2 6024   6.475   6.891   4.058
68043SOL     OW 6025   1.026   5.505   5.671
68043SOL    HW1 6026   1.034   5.413   5.647
68043SOL    HW2 6027   0.955   5.507   5.736
68044SOL     OW 6028   8.556  11.559   8.392
68044SOL    HW1 6029   8.527  11.625   8.455
68044SOL    HW2 6030   8.617  11.605   8.335
68045SOL     OW 6031   9.141   4.014   1.203
68045SOL    HW1 6032   9.046   4.014   1.190
68045SOL    HW2 6033   9.177   4.003   1.115
68046SOL     OW 6034   9.315  11.397  11.650
68046SOL    HW1 6035   9.353  11.312  11.627
68046SOL    HW2 6036   9.385  11.460  11.633
68047SOL     OW 6037   9.246   5.732   3.315
68047SOL    HW1 6038   9.165   5.707   3.359
68047SOL    HW2 6039   9.314   5.722   3.382
68048SOL     OW 6040   0.171   3.564   0.496
68048SOL    HW1 6041   0.203   3.617   0.568
68048SOL    HW2 6042   0.078   3.586   0.490
68049SOL     OW 6043   0.188  11.404  12.266
68049SOL    HW1 6044   0.190  11.364  12.179
68049SOL    HW2 6045   0.140  11.486  12.254
68050SOL     OW 6046   8.918  11.193   9.409
68050SOL    HW1 6047   8.999  11.183   9.358
68050SOL    HW2 6048   8.945  11.246   9.484
68051SOL     OW 6049   7.641   1.555   1.708
68051SOL    HW1 6050   7.692   1.547   1.788
68051SOL    HW2 6051   7.705   1.552   1.638
68052SOL     OW 6052  14.637   6.533   2.492
68052SOL    HW1 6053  14.586   6.609   2.520
68052SOL    HW2 6054  14.574   6.460   2.497
68053SOL     OW 6055   5.753   1.423   9.530
68053SOL    HW1 6056   5.757   1.405   9.624
68053SOL    HW2 6057   5.798   1.349   9.489
68054SOL     OW 6058  14.401   3.748   5.145
68054SOL    HW1 6059  14.494   3.753   5.121
68054SOL    HW2 6060  14.360   3.818   5.094
68055SOL     OW 6061   9.702   9.909  13.846
68055SOL    HW1 6062   9.783   9.888  13.800
68055SOL    HW2 6063   9.698  10.004  13.845
68056SOL     OW 6064  10.176   4.282  13.051
68056SOL    HW1 6065  10.155   4.362  13.100
68056SOL    HW2 6066  10.265   4.295  13.020
68057SOL     OW 6067   2.958   5.198   8.592
68057SOL    HW1 6068   3.049   5.205   8.563
68057SOL    HW2 6069   2.913   5.266   8.543
68058SOL     OW 6070  12.708   1.770   2.110
68058SOL    HW1 6071  12.679   1.817   2.032
68058SOL    HW2 6072  12.724   1.839   2.175
68059SOL     OW 6073  12.797   7.030   5.880
68059SOL    HW1 6074  12.774   6.939   5.860
68059SOL    HW2 6075  12.794   7.035   5.975
68060SOL     OW 6076   0.387   5.432  13.490
68060SOL    HW1 6077   0.403   5.365  13.423
68060SOL    HW2 6078   0.339   5.386  13.559
68061SOL     OW 6079   0.391  12.940   5.932
68061SOL    HW1 6080   0.314  12.987   5.964
68061SOL    HW2 6081   0.464  12.977   5.982
68062SOL     OW 6082   1.439   0.802  12.997
68062SOL    HW1 6083   1.436   0.843  13.084
68062SOL    HW2 6084   1.462   0.873  12.938
68063SOL     OW 6085  10.973   8.159   7.626
68063SOL    HW1 6086  10.896   8.186   7.677
68063SOL    HW2 6087  10.993   8.234   7.570
68064SOL     OW 6088  14.463   3.698  12.546
68064SOL    HW1 6089  14.443   3.680  12.454
68064SOL    HW2 6090  14.529   3.767  12.542
68065SOL     OW 6091   9.544   4.999   9.299
68065SOL    HW1 6092   9.529   4.909   9.327
68065SOL    HW2 6093   9.551   4.995   9.204
68066SOL     OW 6094   2.832   9.523   7.619
68066SOL    HW1 6095   2.886   9.454   7.581
68066SOL    HW2 6096   2.780   9.556   7.545
68067SOL     OW 6097   9.446   0.522  11.941
68067SOL    HW1 6098   9.525   0.514  11.994
68067SOL    HW2 6099   9.374   0.514  12.004
68068SOL     OW 6100  11.438   4.990   6.689
68068SOL    HW1 6101  11.361   5.006   6.744
68068SOL    HW2 6102  11.421   5.039   6.609
68069SOL     OW 6103   4.072   0.874   0.458
68069SOL    HW1 6104   4.055   0.905   0.547
68069SOL    HW2 6105   4.157   0.830   0.464
68070SOL     OW 6106   1.148   9.476  10.189
68070SOL    HW1 6107   1.229   9.458  10.238
68070SOL    HW2 6108   1.166   9.557  10.142
68071SOL     OW 6109  12.062   1.468   7.133
68071SOL    HW1 6110  12.057   1.562   7.113
68071SOL    HW2 6111  12.135   1.461   7.194
68072SOL     OW 6112   3.862  11.968  13.949
68072SOL    HW1 6113   3.883  11.887  13.996
68072SOL    HW2 6114   3.851  11.941  13.858
68073SOL     OW 6115   9.440   0.908  10.658
68073SOL    HW1 6116   9.530   0.893  10.687
68073SOL    HW2 6117   9.386   0.858  10.720
68074SOL     OW 6118   1.581   1.866  13.212
68074SOL    HW1 6119   1.529   1.921  13.270
68074SOL    HW2 6120   1.654   1.836  13.266
68075SOL     OW 6121   3.289   2.920   4.509
68075SOL    HW1 6122   3.246   2.989   4.458
68075SOL    HW2 6123   3.347   2.968   4.569
68076SOL     OW 6124   3.679   3.279   0.161
68076SOL    HW1 6125   3.734   3.322   0.227
68076SOL    HW2 6126   3.654   3.196   0.202
68077SOL     OW 6127  10.706  10.831   2.791
68077SOL    HW1 6128  10.766  10.766   2.827
68077SOL    HW2 6129  10.733  10.913   2.831
68078SOL     OW 6130   8.544   4.113   9.714
68078SOL    HW1 6131   8.540   4.059   9.794
68078SOL    HW2 6132   8.466   4.087   9.665
68079SOL     OW 6133   5.183  11.801   9.576
68079SOL    HW1 6134   5.202  11.760   9.660
68079SOL    HW2 6135   5.116  11.866   9.596
68080SOL     OW 6136   4.046   1.455  14.289
68080SOL    HW1 6137   3.985   1.419  14.353
68080SOL    HW2 6138   4.072   1.380  14.235
68081SOL     OW 6139   4.231   9.576   6.945
68081SOL    HW1 6140   4.240   9.619   6.860
68081SOL    HW2 6141   4.199   9.488   6.925
68082SOL     OW 6142   1.319   5.233  12.078
68082SOL    HW1 6143   1.314   5.328  12.069
68082SOL    HW2 6144   1.287   5.198  11.995
68083SOL     OW 6145   1.547   9.887   9.136
68083SOL    HW1 6146   1.629   9.898   9.087
68083SOL    HW2 6147   1.543   9.794   9.155
68084SOL     OW 6148   9.649   5.206   4.824
68084SOL    HW1 6149   9.618   5.296   4.827
68084SOL    HW2 6150   9.744   5.212   4.829
68085SOL     OW 6151   3.268  12.051  12.072
68085SOL    HW1 6152   3.358  12.050  12.041
68085SOL    HW2 6153   3.230  12.130  12.034
68086SOL     OW 6154  12.699  12.560  10.605
68086SOL    HW1 6155  12.616  12.606  10.593
68086SOL    HW2 6156  12.765  12.627  10.591
68087SOL     OW 6157   2.532   9.958   1.145
68087SOL    HW1 6158   2.561   9.895   1.079
68087SOL    HW2 6159   2.455   9.999   1.106
68088SOL     OW 6160  14.022  14.780   6.064
68088SOL    HW1 6161  14.102  14.792   6.115
68088SOL    HW2 6162  13.987  14.869   6.054
68089SOL     OW 6163   4.888   8.001  11.645
68089SOL    HW1 6164   4.815   7.962  11.693
68089SOL    HW2 6165   4.879   8.095  11.658
68090SOL     OW 6166   8.512  10.625  10.501
68090SOL    HW1 6167   8.542  10.709  10.536
68090SOL    HW2 6168   8.460  10.648  10.424
68091SOL     OW 6169   1.937   9.510   3.007
68091SOL    HW1 6170   2.032   9.513   2.998
68091SOL    HW2 6171   1.904   9.511   2.917
68092SOL     OW 6172   2.455  13.426   4.776
68092SOL    HW1 6173   2.546  13.452   4.790
68092SOL    HW2 6174   2.408  13.509   4.767
68093SOL     OW 6175   2.005  10.452   4.324
68093SOL    HW1 6176   1.925  10.480   4.370
68093SOL    HW2 6177   1.999  10.356   4.324
68094SOL     OW 6178   5.486   0.200  11.131
68094SOL    HW1 6179   5.498   0.118  11.082
68094SOL    HW2 6180   5.564   0.205  11.187
68095SOL     OW 6181   2.598  10.876   1.761
68095SOL    HW1 6182   2.537  10.935   1.717
68095SOL    HW2 6183   2.574  10.789   1.729
68096SOL     OW 6184  11.234   7.114  12.331
68096SOL    HW1 6185  11.286   7.088  12.407
68096SOL    HW2 6186  11.177   7.184  12.363
68097SOL     OW 6187   5.839   2.016   6.754
68097SOL    HW1 6188   5.753   1.975   6.757
68097SOL    HW2 6189   5.898   1.952   6.793
68098SOL     OW 6190   0.652   9.372   8.975
68098SOL    HW1 6191   0.662   9.348   8.883
68098SOL    HW2 6192   0.587   9.442   8.975
68099SOL     OW 6193   8.679  10.459  10.597
68099SOL    HW1 6194   8.679  10.384  10.536
68099SOL    HW2 6195   8.618  10.521  10.559
68100SOL     OW 6196  10.195   2.050   5.197
68100SOL    HW1 6197  10.189   1.986   5.126
68100SOL    HW2 6198  10.220   2.132   5.154
68101SOL     OW 6199   9.603   8.210   7.795
68101SOL    HW1 6200   9.508   8.205   7.809
68101SOL    HW2 6201   9.624   8.302   7.811
68102SOL     OW 6202  13.482  13.268  10.144
68102SOL    HW1 6203  13.468  13.304  10.231
68102SOL    HW2 6204  13.394  13.265  10.106
68103SOL     OW 6205   0.374   8.509  13.428
68103SOL    HW1 6206   0.309   8.480  13.365
68103SOL    HW2 6207   0.427   8.573  13.380
68104SOL     OW 6208  11.455   9.033   8.355
68104SOL    HW1 6209  11.547   9.007   8.348
68104SOL    HW2 6210  11.427   9.049   8.265
68105SOL     OW 6211   5.884  12.582   9.484
68105SOL    HW1 6212   5.856  12.608   9.397
68105SOL    HW2 6213   5.925  12.497   9.472
68106SOL     OW 6214   6.998   4.656   4.215
68106SOL    HW1 6215   7.078   4.607   4.233
68106SOL    HW2 6216   6.932   4.615   4.271
68107SOL     OW 6217   9.152  12.332  14.737
68107SOL    HW1 6218   9.093  12.268  14.776
68107SOL    HW2 6219   9.238  12.291  14.741
68108SOL     OW 6220  14.785  12.937  14.769
68108SOL    HW1 6221  14.835  12.991  14.830
68108SOL    HW2 6222  14.713  12.993  14.740
68109SOL     OW 6223   9.712  10.397   3.404
68109SOL    HW1 6224   9.664  10.436   3.331
68109SOL    HW2 6225   9.727  10.307   3.377
68110SOL     OW 6226  13.154   2.790   6.635
68110SOL    HW1 6227  13.093   2.855   6.603
68110SOL    HW2 6228  13.195   2.831   6.712
68111SOL     OW 6229  11.820   6.057  13.849
68111SOL    HW1 6230  11.840   5.993  13.917
68111SOL    HW2 6231  11.736   6.030  13.813
68112SOL     OW 6232   0.374   3.695   8.809
68112SOL    HW1 6233   0.415   3.617   8.846
68112SOL    HW2 6234   0.427   3.716   8.732
68113SOL     OW 6235   9.638  11.195  12.699
68113SOL    HW1 6236   9.610  11.126  12.759
68113SOL    HW2 6237   9.615  11.163  12.612
68114SOL     OW 6238   1.185   6.761   2.181
68114SOL    HW1 6239   1.261   6.717   2.144
68114SOL    HW2 6240   1.189   6.850   2.147
68115SOL     OW 6241   7.282  12.007   1.958
68115SOL    HW1 6242   7.244  11.956   1.887
68115SOL    HW2 6243   7.368  12.033   1.926
68116SOL     OW 6244  13.760  12.116  14.671
68116SOL    HW1 6245  13.811  12.174  14.614
68116SOL    HW2 6246  13.713  12.058  14.610
68117SOL     OW 6247   8.230   0.269   7.485
68117SOL    HW1 6248   8.317   0.293   7.519
68117SOL    HW2 6249   8.231   0.174   7.481
68118SOL     OW 6250  12.112   8.749   0.703
68118SOL    HW1 6251  12.167   8.699   0.642
68118SOL    HW2 6252  12.143   8.723   0.790
68119SOL     OW 6253   1.856   6.570  14.482
68119SOL    HW1 6254   1.840   6.479  14.506
68119SOL    HW2 6255   1.790   6.620  14.532
68120SOL     OW 6256   9.311   7.194   1.451
68120SOL    HW1 6257   9.234   7.196   1.393
68120SOL    HW2 6258   9.274   7.183   1.539
68121SOL     OW 6259   9.205  10.625   7.811
68121SOL    HW1 6260   9.197  10.530   7.823
68121SOL    HW2 6261   9.246  10.634   7.725
68122SOL     OW 6262   9.858   0.659   2.094
68122SOL    HW1 6263   9.771   0.618   2.086
68122SOL    HW2 6264   9.841   0.741   2.140
68123SOL     OW 6265   4.630   0.718   2.257
68123SOL    HW1 6266   4.617   0.786   2.323
68123SOL    HW2 6267   4.580   0.643   2.290
68124SOL     OW 6268   3.577   0.592   1.301
68124SOL    HW1 6269   3.527   0.581   1.382
68124SOL    HW2 6270   3.603   0.685   1.302
68125SOL     OW 6271  10.999  12.565  11.316
68125SOL    HW1 6272  10.933  12.567  11.386
68125SOL    HW2 6273  10.959  12.510  11.248
68126SOL     OW 6274   4.101   9.722   8.657
68126SOL    HW1 6275   4.113   9.741   8.750
68126SOL    HW2 6276   4.109   9.627   8.650
68127SOL     OW 6277   4.060   9.431   9.786
68127SOL    HW1 6278   4.012   9.507   9.818
68127SOL    HW2 6279   4.021   9.357   9.833
68128SOL     OW 6280   9.503   7.391   1.451
68128SOL    HW1 6281   9.508   7.431   1.364
68128SOL    HW2 6282   9.439   7.321   1.442
68129SOL     OW 6283   1.810   1.544  13.080
68129SOL    HW1 6284   1.813   1.620  13.138
68129SOL    HW2 6285   1.825   1.469  13.137
68130SOL     OW 6286  14.036   0.498   7.990
68130SOL    HW1 6287  14.084   0.446   8.054
68130SOL    HW2 6288  14.086   0.579   7.981
68131SOL     OW 6289   8.651   9.449   2.741
68131SOL    HW1 6290   8.642   9.358   2.711
68131SOL    HW2 6291   8.571   9.466   2.790
68132SOL     OW 6292   8.474   4.871   8.552
68132SOL    HW1 6293   8.566   4.844   8.545
68132SOL    HW2 6294   8.477   4.967   8.549
68133SOL     OW 6295   9.702  12.729  10.675
68133SOL    HW1 6296   9.675  12.783  10.749
68133SOL    HW2 6297   9.620  12.707  10.630
68134SOL     OW 6298   4.378   7.332   9.855
68134SOL    HW1 6299   4.459   7.355   9.900
68134SOL    HW2 6300   4.399   7.338   9.762
68135SOL     OW 6301   6.316   0.089  12.085
68135SOL    HW1 6302   6.348   0.003  12.112
68135SOL    HW2 6303   6.289   0.131  12.167
68136SOL     OW 6304   7.401   1.554   6.015
68136SOL    HW1 6305   7.422   1.482   6.075
68136SOL    HW2 6306   7.309   1.541   5.993
68137SOL     OW 6307   1.828   9.893  13.552
68137SOL    HW1 6308   1.915   9.911  13.586
68137SOL    HW2 6309   1.770   9.907  13.627
68138SOL     OW 6310  10.987   4.568   1.610
68138SOL    HW1 6311  11.043   4.560   1.687
68138SOL    HW2 6312  10.958   4.659   1.611
68139SOL     OW 6313  10.249   1.628   8.259
68139SOL    HW1 6314  10.171   1.679   8.235
68139SOL    HW2 6315  10.237   1.607   8.351
68140SOL     OW 6316   8.091  13.853   8.283
68140SOL    HW1 6317   8.097  13.819   8.372
68140SOL    HW2 6318   8.153  13.800   8.233
68141SOL     OW 6319   4.009   7.831  12.021
68141SOL    HW1 6320   4.057   7.764  12.069
68141SOL    HW2 6321   3.931   7.786  11.989
68142SOL     OW 6322   3.195   7.145  14.756
68142SOL    HW1 6323   3.125   7.209  14.765
68142SOL    HW2 6324   3.159   7.077  14.700
68143SOL     OW 6325   8.236  12.568  13.201
68143SOL    HW1 6326   8.261  12.550  13.110
68143SOL    HW2 6327   8.195  12.487  13.231
68144SOL     OW 6328  14.490   0.264   3.572
68144SOL    HW1 6329  14.466   0.200   3.639
68144SOL    HW2 6330  14.562   0.314   3.611
68145SOL     OW 6331  13.541   8.660   5.838
68145SOL    HW1 6332  13.549   8.568   5.862
68145SOL    HW2 6333  13.624   8.681   5.796
68146SOL     OW 6334   0.595   7.591  13.550
68146SOL    HW1 6335   0.537   7.643  13.494
68146SOL    HW2 6336   0.536   7.534  13.600
68147SOL     OW 6337  11.243  14.723   2.358
68147SOL    HW1 6338  11.155  14.693   2.378
68147SOL    HW2 6339  11.233  14.780   2.282
68148SOL     OW 6340   8.134   9.642  11.142
68148SOL    HW1 6341   8.058   9.680  11.186
68148SOL    HW2 6342   8.168   9.578  11.204
68149SOL     OW 6343   4.621   7.623  12.166
68149SOL    HW1 6344   4.712   7.597  12.170
68149SOL    HW2 6345   4.573   7.549  12.204
68150SOL     OW 6346   3.952   5.458   0.095
68150SOL    HW1 6347   3.932   5.551   0.091
68150SOL    HW2 6348   4.020   5.445   0.028
68151SOL     OW 6349   5.475   8.868   9.363
68151SOL    HW1 6350   5.450   8.807   9.433
68151SOL    HW2 6351   5.520   8.814   9.299
68152SOL     OW 6352  11.978   9.416   9.106
68152SOL    HW1 6353  12.057   9.362   9.112
68152SOL    HW2 6354  11.992   9.487   9.169
68153SOL     OW 6355   2.687   4.898   0.554
68153SOL    HW1 6356   2.768   4.880   0.601
68153SOL    HW2 6357   2.705   4.978   0.504
68154SOL     OW 6358   6.571   9.175   0.991
68154SOL    HW1 6359   6.621   9.100   0.957
68154SOL    HW2 6360   6.583   9.171   1.086
68155SOL     OW 6361   3.592   4.225  12.743
68155SOL    HW1 6362   3.661   4.247  12.680
68155SOL    HW2 6363   3.557   4.310  12.770
68156SOL     OW 6364   2.674   8.140   4.839
68156SOL    HW1 6365   2.763   8.174   4.837
68156SOL    HW2 6366   2.682   8.052   4.876
68157SOL     OW 6367   9.065   8.517   0.951
68157SOL    HW1 6368   8.979   8.518   0.908
68157SOL    HW2 6369   9.045   8.503   1.044
68158SOL     OW 6370  13.505   3.427   9.479
68158SOL    HW1 6371  13.412   3.413   9.459
68158SOL    HW2 6372  13.545   3.446   9.394
68159SOL     OW 6373  10.468  14.034   5.095
68159SOL    HW1 6374  10.541  14.084   5.132
68159SOL    HW2 6375  10.474  14.049   5.001
68160SOL     OW 6376   2.397   6.293   1.131
68160SOL    HW1 6377   2.334   6.312   1.200
68160SOL    HW2 6378   2.369   6.208   1.096
68161SOL     OW 6379   6.568   1.931   7.450
68161SOL    HW1 6380   6.593   1.888   7.532
68161SOL    HW2 6381   6.615   2.014   7.451
68162SOL     OW 6382  12.500   0.898   6.634
68162SOL    HW1 6383  12.509   0.831   6.567
68162SOL    HW2 6384  12.457   0.971   6.590
68163SOL     OW 6385   1.091  10.307   0.892
68163SOL    HW1 6386   1.097  10.255   0.972
68163SOL    HW2 6387   1.041  10.385   0.918
68164SOL     OW 6388   6.167  12.239  12.074
68164SOL    HW1 6389   6.071  12.243  12.073
68164SOL    HW2 6390   6.189  12.177  12.004
68165SOL     OW 6391   1.546  10.383  12.928
68165SOL    HW1 6392   1.546  10.328  13.006
68165SOL    HW2 6393   1.590  10.464  12.955
68166SOL     OW 6394  11.432  12.736   3.511
68166SOL    HW1 6395  11.407  12.826   3.488
68166SOL    HW2 6396  11.523  12.743   3.538
68167SOL     OW 6397   5.737  13.448   6.638
68167SOL    HW1 6398   5.754  13.355   6.648
68167SOL    HW2 6399   5.720  13.479   6.727
68168SOL     OW 6400   7.915   2.290   4.319
68168SOL    HW1 6401   7.913   2.305   4.225
68168SOL    HW2 6402   7.938   2.198   4.328
68169SOL     OW 6403   6.745  11.656  14.456
68169SOL    HW1 6404   6.827  11.617  14.425
68169SOL    HW2 6405   6.680  11.632  14.390
68170SOL     OW 6406   3.185   0.392   3.910
68170SOL    HW1 6407   3.164   0.430   3.996
68170SOL    HW2 6408   3.145   0.453   3.848
68171SOL     OW 6409  14.034   2.139  11.951
68171SOL    HW1 6410  13.983   2.077  12.002
68171SOL    HW2 6411  14.123   2.102  11.950
68172SOL     OW 6412   3.809  13.595  11.600
68172SOL    HW1 6413   3.736  13.536  11.583
68172SOL    HW2 6414   3.841  13.570  11.687
68173SOL     OW 6415   1.146  11.382  11.915
68173SOL    HW1 6416   1.178  11.318  11.979
68173SOL    HW2 6417   1.075  11.428  11.959
68174SOL     OW 6418   4.734  14.544   9.454
68174SOL    HW1 6419   4.704  14.555   9.544
68174SOL    HW2 6420   4.772  14.457   9.451
68175SOL     OW 6421   9.155  14.172  10.980
68175SOL    HW1 6422   9.146  14.093  10.928
68175SOL    HW2 6423   9.066  14.199  11.001
68176SOL     OW 6424   9.127  13.030   8.478
68176SOL    HW1 6425   9.110  13.073   8.394
68176SOL    HW2 6426   9.043  12.992   8.504
68177SOL     OW 6427   8.535   7.388  11.365
68177SOL    HW1 6428   8.541   7.377  11.270
68177SOL    HW2 6429   8.448   7.354  11.388
68178SOL     OW 6430   5.198   8.381   3.017
68178SOL    HW1 6431   5.197   8.475   2.999
68178SOL    HW2 6432   5.124   8.367   3.077
68179SOL     OW 6433   9.718  10.598   5.399
68179SOL    HW1 6434   9.671  10.520   5.432
68179SOL    HW2 6435   9.808  10.585   5.427
68180SOL     OW 6436   6.097   1.124   0.722
68180SOL    HW1 6437   6.006   1.100   0.740
68180SOL    HW2 6438   6.111   1.099   0.631
68181SOL     OW 6439   7.165  10.031   3.634
68181SOL    HW1 6440   7.071  10.044   3.642
68181SOL    HW2 6441   7.196  10.022   3.724
68182SOL     OW 6442   9.572   3.057   8.472
68182SOL    HW1 6443   9.649   3.109   8.449
68182SOL    HW2 6444   9.505   3.085   8.410
68183SOL     OW 6445   5.197  12.515   9.672
68183SOL    HW1 6446   5.116  12.464   9.665
68183SOL    HW2 6447   5.253  12.462   9.729
68184SOL     OW 6448   7.822  12.040   6.564
68184SOL    HW1 6449   7.863  12.025   6.478
68184SOL    HW2 6450   7.788  12.129   6.559
68185SOL     OW 6451   6.480   9.210   8.386
68185SOL    HW1 6452   6.545   9.261   8.434
68185SOL    HW2 6453   6.501   9.119   8.406
68186SOL     OW 6454   4.528   5.273  10.638
68186SOL    HW1 6455   4.453   5.290  10.694
68186SOL    HW2 6456   4.529   5.345  10.575
68187SOL     OW 6457   5.289  11.638   1.558
68187SOL    HW1 6458   5.217  11.644   1.494
68187SOL    HW2 6459   5.285  11.722   1.605
68188SOL     OW 6460  14.428   1.386   1.965
68188SOL    HW1 6461  14.519   1.399   1.938
68188SOL    HW2 6462  14.411   1.458   2.026
68189SOL     OW 6463   8.743  12.251  14.179
68189SOL    HW1 6464   8.652  12.259  14.149
68189SOL    HW2 6465   8.785  12.330  14.147
68190SOL     OW 6466  11.715  14.738   7.722
68190SOL    HW1 6467  11.747  14.684   7.794
68190SOL    HW2 6468  11.766  14.710   7.647
68191SOL     OW 6469  13.075  12.348   8.857
68191SOL    HW1 6470  13.105  12.286   8.791
68191SOL    HW2 6471  12.980  12.349   8.848
68192SOL     OW 6472   0.875   9.167   6.468
68192SOL    HW1 6473   0.872   9.251   6.423
68192SOL    HW2 6474   0.912   9.187   6.554
68193SOL     OW 6475  14.002   0.234   6.279
68193SOL    HW1 6476  13.983   0.328   6.278
68193SOL    HW2 6477  13.920   0.193   6.307
68194SOL     OW 6478  13.649   8.982  11.049
68194SOL    HW1 6479  13.694   8.952  10.971
68194SOL    HW2 6480  13.716   8.982  11.117
68195SOL     OW 6481  10.357  14.023  10.666
68195SOL    HW1 6482  10.366  14.077  10.744
68195SOL    HW2 6483  10.382  13.935  10.694
68196SOL     OW 6484   1.667   1.113   0.581
68196SOL    HW1 6485   1.678   1.066   0.499
68196SOL    HW2 6486   1.756   1.122   0.615
68197SOL     OW 6487   0.315  14.088  12.459
68197SOL    HW1 6488   0.315  14.005  12.507
68197SOL    HW2 6489   0.243  14.137  12.498
68198SOL     OW 6490   9.002   4.171   3.144
68198SOL    HW1 6491   9.031   4.228   3.216
68198SOL    HW2 6492   8.975   4.231   3.075
68199SOL     OW 6493   1.532  11.043   3.962
68199SOL    HW1 6494   1.549  10.996   3.880
68199SOL    HW2 6495   1.544  11.135   3.939
68200SOL     OW 6496   8.442   3.537   5.678
68200SOL    HW1 6497   8.505   3.552   5.749
68200SOL    HW2 6498   8.471   3.596   5.608
68201SOL     OW 6499  10.539   0.273  14.193
68201SOL    HW1 6500  10.553   0.185  14.159
68201SOL    HW2 6501  10.490   0.260  14.274
68202SOL     OW 6502   8.425  12.224  11.390
68202SOL    HW1 6503   8.485  12.298  11.393
68202SOL    HW2 6504   8.387  12.227  11.302
68203SOL     OW 6505  14.725  12.227   3.040
68203SOL    HW1 6506  14.721  12.133   3.024
68203SOL    HW2 6507  14.749  12.265   2.955
68204SOL     OW 6508  14.792   6.211  12.857
68204SOL    HW1 6509  14.872   6.158  12.852
68204SOL    HW2 6510  14.725   6.158  12.814
68205SOL     OW 6511  13.531   7.609   0.750
68205SOL    HW1 6512  13.527   7.689   0.804
68205SOL    HW2 6513  13.542   7.538   0.813
68206SOL     OW 6514  11.792  14.170  12.084
68206SOL    HW1 6515  11.787  14.226  12.162
68206SOL    HW2 6516  11.859  14.211  12.029
68207SOL     OW 6517  12.614   6.681  11.269
68207SOL    HW1 6518  12.613   6.592  11.234
68207SOL    HW2 6519  12.700   6.715  11.245
68208SOL     OW 6520   3.654  10.761   8.147
68208SOL    HW1 6521   3.717  10.699   8.112
68208SOL    HW2 6522   3.678  10.845   8.107
68209SOL     OW 6523  12.439   7.441  10.630
68209SOL    HW1 6524  12.405   7.352  10.630
68209SOL    HW2 6525  12.398   7.483  10.554
68210SOL     OW 6526   7.141   9.577   7.379
68210SOL    HW1 6527   7.213   9.546   7.434
68210SOL    HW2 6528   7.062   9.547   7.424
68211SOL     OW 6529   9.200   0.352   2.914
68211SOL    HW1 6530   9.110   0.381   2.903
68211SOL    HW2 6531   9.242   0.370   2.830
68212SOL     OW 6532   1.046   3.762  13.013
68212SOL    HW1 6533   0.970   3.709  12.987
68212SOL    HW2 6534   1.009   3.833  13.066
68213SOL     OW 6535   7.124   8.514  14.687
68213SOL    HW1 6536   7.187   8.494  14.618
68213SOL    HW2 6537   7.159   8.471  14.765
68214SOL     OW 6538  13.142   1.703   8.696
68214SOL    HW1 6539  13.215   1.747   8.654
68214SOL    HW2 6540  13.179   1.620   8.728
68215SOL     OW 6541   7.906  12.902  10.494
68215SOL    HW1 6542   8.001  12.915  10.491
68215SOL    HW2 6543   7.887  12.889  10.587
68216SOL     OW 6544   6.442   2.081  11.496
68216SOL    HW1 6545   6.381   2.148  11.465
68216SOL    HW2 6546   6.517   2.087  11.438
68217SOL     OW 6547   8.225  13.722   9.730
68217SOL    HW1 6548   8.130  13.714   9.716
68217SOL    HW2 6549   8.260  13.638   9.701
68218SOL     OW 6550   0.518   4.517   1.327
68218SOL    HW1 6551   0.577   4.509   1.402
68218SOL    HW2 6552   0.526   4.433   1.281
68219SOL     OW 6553   2.732   1.570   3.564
68219SOL    HW1 6554   2.782   1.500   3.606
68219SOL    HW2 6555   2.645   1.532   3.551
68220SOL     OW 6556   6.673   1.530  13.074
68220SOL    HW1 6557   6.685   1.585  13.151
68220SOL    HW2 6558   6.685   1.440  13.105
68221SOL     OW 6559   7.003   1.812  12.916
68221SOL    HW1 6560   6.933   1.784  12.975
68221SOL    HW2 6561   7.046   1.884  12.962
68222SOL     OW 6562  12.902  14.242   8.776
68222SOL    HW1 6563  12.848  14.232   8.854
68222SOL    HW2 6564  12.872  14.174   8.716
68223SOL     OW 6565   8.888  12.421  13.970
68223SOL    HW1 6566   8.859  12.383  13.888
68223SOL    HW2 6567   8.927  12.505  13.945
68224SOL     OW 6568   5.479   2.150   8.759
68224SOL    HW1 6569   5.548   2.197   8.712
68224SOL    HW2 6570   5.442   2.215   8.819
68225SOL     OW 6571   9.261   7.296   5.829
68225SOL    HW1 6572   9.263   7.268   5.738
68225SOL    HW2 6573   9.335   7.355   5.839
68226SOL     OW 6574  12.031   8.049  10.233
68226SOL    HW1 6575  12.064   7.963  10.258
68226SOL    HW2 6576  12.105   8.108  10.249
68227SOL     OW 6577  13.029  13.550   8.252
68227SOL    HW1 6578  13.008  13.477   8.310
68227SOL    HW2 6579  13.086  13.512   8.185
68228SOL     OW 6580   6.469  13.272   4.229
68228SOL    HW1 6581   6.448  13.179   4.227
68228SOL    HW2 6582   6.548  13.280   4.177
68229SOL     OW 6583  10.017  11.432   0.225
68229SOL    HW1 6584  10.105  11.469   0.218
68229SOL    HW2 6585  10.018  11.357   0.166
68230SOL     OW 6586   1.669  10.582  10.469
68230SOL    HW1 6587   1.640  10.564  10.379
68230SOL    HW2 6588   1.724  10.660  10.461
68231SOL     OW 6589   7.720   9.523   6.768
68231SOL    HW1 6590   7.705   9.599   6.713
68231SOL    HW2 6591   7.658   9.458   6.737
68232SOL     OW 6592   6.770   5.876  10.302
68232SOL    HW1 6593   6.778   5.833  10.387
68232SOL    HW2 6594   6.842   5.840  10.250
68233SOL     OW 6595  13.155   7.388   8.419
68233SOL    HW1 6596  13.166   7.362   8.328
68233SOL    HW2 6597  13.178   7.309   8.469
68234SOL     OW 6598   4.686   2.279   3.278
68234SOL    HW1 6599   4.706   2.333   3.201
68234SOL    HW2 6600   4.590   2.274   3.279
68235SOL     OW 6601   3.694   0.105   1.850
68235SOL    HW1 6602   3.769   0.145   1.806
68235SOL    HW2 6603   3.700   0.135   1.941
68236SOL     OW 6604   7.945  13.306  13.353
68236SOL    HW1 6605   7.946  13.357  13.272
68236SOL    HW2 6606   7.930  13.216  13.324
68237SOL     OW 6607   6.516  11.472   2.472
68237SOL    HW1 6608   6.495  11.437   2.385
68237SOL    HW2 6609   6.441  11.448   2.526
68238SOL     OW 6610  11.068   7.573  11.383
68238SOL    HW1 6611  11.101   7.487  11.355
68238SOL    HW2 6612  11.145   7.629  11.388
68239SOL     OW 6613   5.755  10.045   2.360
68239SOL    HW1 6614   5.821   9.979   2.336
68239SOL    HW2 6615   5.748  10.038   2.456
68240SOL     OW 6616   4.700   2.937   8.406
68240SOL    HW1 6617   4.749   2.917   8.326
68240SOL    HW2 6618   4.655   3.019   8.387
68241SOL     OW 6619  12.931   7.117   8.340
68241SOL    HW1 6620  12.890   7.032   8.355
68241SOL    HW2 6621  12.925   7.161   8.425
68242SOL     OW 6622  11.556  11.483  12.683
68242SOL    HW1 6623  11.478  11.434  12.709
68242SOL    HW2 6624  11.613  11.417  12.644
68243SOL     OW 6625  12.578  13.754  14.492
68243SOL    HW1 6626  12.664  13.724  14.463
68243SOL    HW2 6627  12.557  13.697  14.567
68244SOL     OW 6628   9.769   2.338   9.991
68244SOL    HW1 6629   9.853   2.381   9.976
68244SOL    HW2 6630   9.704   2.407   9.982
68245SOL     OW 6631   0.785   0.162   0.188
68245SOL    HW1 6632   0.796   0.179   0.094
68245SOL    HW2 6633   0.871   0.180   0.226
68246SOL     OW 6634  10.479   8.250   2.604
68246SOL    HW1 6635  10.401   8.267   2.551
68246SOL    HW2 6636  10.498   8.157   2.589
68247SOL     OW 6637   3.753  14.805  11.710
68247SOL    HW1 6638   3.743  14.723  11.757
68247SOL    HW2 6639   3.703  14.792  11.629
68248SOL     OW 6640  13.639  14.640   7.927
68248SOL    HW1 6641  13.661  14.674   7.840
68248SOL    HW2 6642  13.564  14.693   7.955
68249SOL     OW 6643   6.921  11.927   9.753
68249SOL    HW1 6644   6.852  11.938   9.687
68249SOL    HW2 6645   6.902  11.842   9.793
68250SOL     OW 6646  12.248  11.470  10.744
68250SOL    HW1 6647  12.301  11.432  10.673
68250SOL    HW2 6648  12.309  11.478  10.817
68251SOL     OW 6649   9.131   4.816  11.777
68251SOL    HW1 6650   9.049   4.835  11.823
68251SOL    HW2 6651   9.178   4.899  11.776
68252SOL     OW 6652  11.162   6.070  14.151
68252SOL    HW1 6653  11.146   6.120  14.231
68252SOL    HW2 6654  11.089   6.093  14.093
68253SOL     OW 6655   6.507   2.460   2.654
68253SOL    HW1 6656   6.422   2.451   2.697
68253SOL    HW2 6657   6.551   2.377   2.670
68254SOL     OW 6658  13.655   1.664  14.061
68254SOL    HW1 6659  13.710   1.712  14.000
68254SOL    HW2 6660  13.713   1.639  14.133
68255SOL     OW 6661   2.054   0.650   8.500
68255SOL    HW1 6662   2.049   0.563   8.540
68255SOL    HW2 6663   1.968   0.688   8.517
68256SOL     OW 6664   7.131  10.955   1.065
68256SOL    HW1 6665   7.073  10.879   1.073
68256SOL    HW2 6666   7.195  10.944   1.134
68257SOL     OW 6667  12.341   1.535  13.010
68257SOL    HW1 6668  12.366   1.601  13.074
68257SOL    HW2 6669  12.308   1.462  13.062
68258SOL     OW 6670   9.287   0.343  10.550
68258SOL    HW1 6671   9.352   0.272  10.553
68258SOL    HW2 6672   9.240   0.327  10.468
68259SOL     OW 6673   6.247   1.509   3.517
68259SOL    HW1 6674   6.336   1.491   3.489
68259SOL    HW2 6675   6.255   1.527   3.611
68260SOL     OW 6676  12.013   3.951  10.088
68260SOL    HW1 6677  11.966   3.882  10.135
68260SOL    HW2 6678  12.078   3.904  10.036
68261SOL     OW 6679  14.268  10.238  10.133
68261SOL    HW1 6680  14.242  10.266  10.045
68261SOL    HW2 6681  14.300  10.318  10.175
68262SOL     OW 6682   7.796   1.257  11.011
68262SOL    HW1 6683   7.882   1.296  10.992
68262SOL    HW2 6684   7.753   1.252  10.926
68263SOL     OW 6685   1.794  10.166   2.527
68263SOL    HW1 6686   1.870  10.198   2.478
68263SOL    HW2 6687   1.776  10.079   2.490
68264SOL     OW 6688   6.186  13.018  11.185
68264SOL    HW1 6689   6.224  13.060  11.107
68264SOL    HW2 6690   6.094  13.044  11.184
68265SOL     OW 6691  12.395   4.372  14.135
68265SOL    HW1 6692  12.465   4.436  14.146
68265SOL    HW2 6693  12.316   4.425  14.125
68266SOL     OW 6694  11.308   6.277   3.302
68266SOL    HW1 6695  11.383   6.321   3.342
68266SOL    HW2 6696  11.343   6.194   3.269
68267SOL     OW 6697   9.628   4.521  14.431
68267SOL    HW1 6698   9.656   4.579  14.502
68267SOL    HW2 6699   9.542   4.556  14.405
68268SOL     OW 6700  12.224  14.604   8.431
68268SOL    HW1 6701  12.246  14.697   8.424
68268SOL    HW2 6702  12.162  14.600   8.503
68269SOL     OW 6703   7.716   2.347   2.716
68269SOL    HW1 6704   7.779   2.277   2.733
68269SOL    HW2 6705   7.681   2.327   2.629
68270SOL     OW 6706   0.081   2.618  11.817
68270SOL    HW1 6707   0.078   2.669  11.736
68270SOL    HW2 6708   0.158   2.651  11.863
68271SOL     OW 6709  12.106   3.572  10.734
68271SOL    HW1 6710  12.172   3.503  10.731
68271SOL    HW2 6711  12.134   3.635  10.668
68272SOL     OW 6712  10.823   2.263  11.364
68272SOL    HW1 6713  10.736   2.265  11.324
68272SOL    HW2 6714  10.882   2.244  11.291
68273SOL     OW 6715  11.815  11.689  13.390
68273SOL    HW1 6716  11.735  11.638  13.399
68273SOL    HW2 6717  11.794  11.756  13.324
68274SOL     OW 6718  10.121  13.176   4.390
68274SOL    HW1 6719  10.101  13.144   4.302
68274SOL    HW2 6720  10.054  13.136   4.445
68275SOL     OW 6721  10.617   2.115   2.573
68275SOL    HW1 6722  10.676   2.075   2.637
68275SOL    HW2 6723  10.564   2.176   2.625
68276SOL     OW 6724  11.263  11.680  11.726
68276SOL    HW1 6725  11.269  11.773  11.747
68276SOL    HW2 6726  11.253  11.677  11.631
68277SOL     OW 6727   1.348   1.184   4.112
68277SOL    HW1 6728   1.410   1.113   4.097
68277SOL    HW2 6729   1.297   1.155   4.188
68278SOL     OW 6730   4.224  11.957   1.225
68278SOL    HW1 6731   4.177  11.991   1.302
68278SOL    HW2 6732   4.285  11.893   1.261
68279SOL     OW 6733   6.277   6.535   2.087
68279SOL    HW1 6734   6.242   6.463   2.139
68279SOL    HW2 6735   6.348   6.495   2.036
68280SOL     OW 6736   2.295  14.405  13.131
68280SOL    HW1 6737   2.257  14.423  13.045
68280SOL    HW2 6738   2.363  14.471  13.141
68281SOL     OW 6739  10.838  11.219   5.313
68281SOL    HW1 6740  10.867  11.202   5.224
68281SOL    HW2 6741  10.775  11.150   5.332
68282SOL     OW 6742   9.323  11.170   8.343
68282SOL    HW1 6743   9.359  11.091   8.303
68282SOL    HW2 6744   9.229  11.165   8.323
68283SOL     OW 6745   8.906  14.442   0.646
68283SOL    HW1 6746   8.958  14.409   0.719
68283SOL    HW2 6747   8.829  14.482   0.688
68284SOL     OW 6748   3.889   0.856   6.292
68284SOL    HW1 6749   3.964   0.812   6.253
68284SOL    HW2 6750   3.899   0.842   6.386
68285SOL     OW 6751  14.307   4.019  10.877
68285SOL    HW1 6752  14.222   4.041  10.913
68285SOL    HW2 6753  14.360   4.097  10.890
68286SOL     OW 6754   8.403  11.507  11.943
68286SOL    HW1 6755   8.389  11.545  11.856
68286SOL    HW2 6756   8.455  11.428  11.926
68287SOL     OW 6757   7.227  11.108  13.987
68287SOL    HW1 6758   7.312  11.102  13.944
68287SOL    HW2 6759   7.212  11.021  14.024
68288SOL     OW 6760   3.876   2.894  11.496
68288SOL    HW1 6761   3.853   2.894  11.589
68288SOL    HW2 6762   3.827   2.820  11.459
68289SOL     OW 6763   6.521   2.569  14.047
68289SOL    HW1 6764   6.471   2.510  14.104
68289SOL    HW2 6765   6.571   2.624  14.106
68290SOL     OW 6766   2.304   2.737   5.651
68290SOL    HW1 6767   2.349   2.711   5.571
68290SOL    HW2 6768   2.253   2.659   5.676
68291SOL     OW 6769   3.288   9.046  14.205
68291SOL    HW1 6770   3.207   9.055  14.255
68291SOL    HW2 6771   3.262   9.060  14.114
68292SOL     OW 6772   2.240   3.154  11.751
68292SOL    HW1 6773   2.220   3.247  11.750
68292SOL    HW2 6774   2.298   3.140  11.677
68293SOL     OW 6775   6.910   9.017   9.684
68293SOL    HW1 6776   6.904   9.004   9.589
68293SOL    HW2 6777   6.821   9.002   9.716
68294SOL     OW 6778  12.838   9.303   4.437
68294SOL    HW1 6779  12.802   9.224   4.479
68294SOL    HW2 6780  12.917   9.322   4.487
68295SOL     OW 6781   6.527   1.104  11.287
68295SOL    HW1 6782   6.433   1.118  11.281
68295SOL    HW2 6783   6.537   1.045  11.362
68296SOL     OW 6784  12.606   1.266  14.585
68296SOL    HW1 6785  12.670   1.226  14.527
68296SOL    HW2 6786  12.624   1.359  14.581
68297SOL     OW 6787   8.528   6.376  13.945
68297SOL    HW1 6788   8.483   6.460  13.958
68297SOL    HW2 6789   8.621   6.399  13.943
68298SOL     OW 6790   4.598   4.994  10.109
68298SOL    HW1 6791   4.522   4.943  10.080
68298SOL    HW2 6792   4.582   5.009  10.202
68299SOL     OW 6793  10.708  10.609   0.765
68299SOL    HW1 6794  10.755  10.688   0.739
68299SOL    HW2 6795  10.634  10.604   0.704
68300SOL     OW 6796   3.150   0.882   1.390
68300SOL    HW1 6797   3.155   0.788   1.405
68300SOL    HW2 6798   3.238   0.914   1.412
68301SOL     OW 6799  14.872   3.989   2.473
68301SOL    HW1 6800   0.065   4.030   2.422
68301SOL    HW2 6801   0.008   3.895   2.461
68302SOL     OW 6802   4.968   3.185   1.203
68302SOL    HW1 6803   4.952   3.192   1.297
68302SOL    HW2 6804   5.029   3.111   1.195
68303SOL     OW 6805   4.531   3.293   1.692
68303SOL    HW1 6806   4.562   3.367   1.744
68303SOL    HW2 6807   4.535   3.323   1.602
68304SOL     OW 6808   4.569   1.333   6.806
68304SOL    HW1 6809   4.548   1.422   6.834
68304SOL    HW2 6810   4.505   1.313   6.738
68305SOL     OW 6811  12.799   1.922  13.224
68305SOL    HW1 6812  12.768   1.906  13.313
68305SOL    HW2 6813  12.747   1.995  13.192
68306SOL     OW 6814   4.100   8.517   1.431
68306SOL    HW1 6815   4.097   8.494   1.338
68306SOL    HW2 6816   4.047   8.450   1.474
68307SOL     OW 6817   7.761   6.165   7.148
68307SOL    HW1 6818   7.766   6.095   7.213
68307SOL    HW2 6819   7.817   6.234   7.183
68308SOL     OW 6820   4.290   6.907   7.671
68308SOL    HW1 6821   4.289   7.000   7.649
68308SOL    HW2 6822   4.202   6.890   7.706
68309SOL     OW 6823  11.835   5.259   9.729
68309SOL    HW1 6824  11.922   5.252   9.768
68309SOL    HW2 6825  11.824   5.176   9.682
68310SOL     OW 6826  12.454   4.558  13.837
68310SOL    HW1 6827  12.391   4.490  13.861
68310SOL    HW2 6828  12.456   4.617  13.913
68311SOL     OW 6829   4.774   5.457  11.777
68311SOL    HW1 6830   4.767   5.482  11.685
68311SOL    HW2 6831   4.868   5.452  11.793
68312SOL     OW 6832  12.578   1.400   6.481
68312SOL    HW1 6833  12.489   1.404   6.514
68312SOL    HW2 6834  12.612   1.316   6.512
68313SOL     OW 6835   3.835   4.881  11.961
68313SOL    HW1 6836   3.858   4.946  11.894
68313SOL    HW2 6837   3.798   4.808  11.912
68314SOL     OW 6838   5.904  13.290  10.347
68314SOL    HW1 6839   5.942  13.251  10.268
68314SOL    HW2 6840   5.832  13.231  10.370
68315SOL     OW 6841   2.820  13.290   8.511
68315SOL    HW1 6842   2.807  13.332   8.426
68315SOL    HW2 6843   2.746  13.229   8.520
68316SOL     OW 6844   9.012   0.859   9.261
68316SOL    HW1 6845   9.069   0.782   9.254
68316SOL    HW2 6846   9.043   0.919   9.193
68317SOL     OW 6847  12.147   4.761  10.399
68317SOL    HW1 6848  12.165   4.684  10.345
68317SOL    HW2 6849  12.203   4.749  10.476
68318SOL     OW 6850  10.142  14.538   6.490
68318SOL    HW1 6851  10.211  14.472   6.496
68318SOL    HW2 6852  10.167  14.592   6.415
68319SOL     OW 6853   8.552  13.893  12.641
68319SOL    HW1 6854   8.538  13.955  12.569
68319SOL    HW2 6855   8.477  13.834  12.638
68320SOL     OW 6856   5.603  12.398   7.758
68320SOL    HW1 6857   5.669  12.404   7.826
68320SOL    HW2 6858   5.578  12.305   7.756
68321SOL     OW 6859   3.314   1.591   7.551
68321SOL    HW1 6860   3.394   1.583   7.499
68321SOL    HW2 6861   3.264   1.659   7.507
68322SOL     OW 6862   6.861   6.026  14.342
68322SOL    HW1 6863   6.916   6.101  14.366
68322SOL    HW2 6864   6.913   5.949  14.366
68323SOL     OW 6865   4.581   7.076   6.874
68323SOL    HW1 6866   4.511   7.083   6.809
68323SOL    HW2 6867   4.564   7.148   6.935
68324SOL     OW 6868  14.257   8.938   3.457
68324SOL    HW1 6869  14.162   8.942   3.467
68324SOL    HW2 6870  14.271   8.879   3.383
68325SOL     OW 6871  10.229  10.247  13.182
68325SOL    HW1 6872  10.310  10.204  13.154
68325SOL    HW2 6873  10.205  10.201  13.263
68326SOL     OW 6874   9.185   0.022   1.508
68326SOL    HW1 6875   9.101   0.050   1.473
68326SOL    HW2 6876   9.194   0.070   1.590
68327SOL     OW 6877   9.491  12.308   7.511
68327SOL    HW1 6878   9.447  12.368   7.572
68327SOL    HW2 6879   9.484  12.222   7.553
68328SOL     OW 6880   9.072   2.757  10.527
68328SOL    HW1 6881   9.141   2.823  10.533
68328SOL    HW2 6882   9.100   2.697  10.459
68329SOL     OW 6883   1.842   7.837  11.113
68329SOL    HW1 6884   1.783   7.812  11.184
68329SOL    HW2 6885   1.885   7.917  11.145
68330SOL     OW 6886   3.412   6.805   4.036
68330SOL    HW1 6887   3.359   6.866   3.986
68330SOL    HW2 6888   3.437   6.738   3.973
68331SOL     OW 6889   7.779   1.900  14.740
68331SOL    HW1 6890   7.734   1.908  14.825
68331SOL    HW2 6891   7.854   1.958  14.747
68332SOL     OW 6892   2.022   6.503  12.014
68332SOL    HW1 6893   2.046   6.483  12.105
68332SOL    HW2 6894   2.087   6.457  11.961
68333SOL     OW 6895   7.004   7.229  12.143
68333SOL    HW1 6896   6.990   7.140  12.174
68333SOL    HW2 6897   7.086   7.225  12.094
68334SOL     OW 6898   2.023   8.223   7.713
68334SOL    HW1 6899   1.962   8.204   7.642
68334SOL    HW2 6900   1.980   8.292   7.764
68335SOL     OW 6901   3.835   9.526  13.517
68335SOL    HW1 6902   3.892   9.545  13.591
68335SOL    HW2 6903   3.845   9.602  13.459
68336SOL     OW 6904   7.672   3.742   6.490
68336SOL    HW1 6905   7.674   3.742   6.394
68336SOL    HW2 6906   7.598   3.799   6.512
68337SOL     OW 6907   6.992  14.719  11.610
68337SOL    HW1 6908   7.085  14.704  11.593
68337SOL    HW2 6909   6.962  14.641  11.656
68338SOL     OW 6910   2.173   0.027  11.762
68338SOL    HW1 6911   2.173   0.098  11.698
68338SOL    HW2 6912   2.220  14.833  11.719
68339SOL     OW 6913  10.410   8.197   9.067
68339SOL    HW1 6914  10.500   8.219   9.090
68339SOL    HW2 6915  10.418   8.135   8.995
68340SOL     OW 6916  11.184  10.500  10.936
68340SOL    HW1 6917  11.237  10.550  10.874
68340SOL    HW2 6918  11.175  10.414  10.896
68341SOL     OW 6919   6.901  13.841   4.388
68341SOL    HW1 6920   6.940  13.927   4.369
68341SOL    HW2 6921   6.974  13.780   4.383
68342SOL     OW 6922  10.922   4.188   9.142
68342SOL    HW1 6923  11.017   4.178   9.150
68342SOL    HW2 6924  10.886   4.127   9.206
68343SOL     OW 6925  13.899  12.560  10.559
68343SOL    HW1 6926  13.829  12.525  10.504
68343SOL    HW2 6927  13.939  12.629  10.506
68344SOL     OW 6928  14.792   0.856   2.699
68344SOL    HW1 6929  14.714   0.911   2.703
68344SOL    HW2 6930  14.825   0.855   2.789
68345SOL     OW 6931   0.402   7.880   8.394
68345SOL    HW1 6932   0.348   7.897   8.470
68345SOL    HW2 6933   0.381   7.951   8.333
68346SOL     OW 6934   7.475   8.531   3.651
68346SOL    HW1 6935   7.566   8.525   3.622
68346SOL    HW2 6936   7.427   8.565   3.575
68347SOL     OW 6937  13.639   6.211   8.408
68347SOL    HW1 6938  13.549   6.227   8.379
68347SOL    HW2 6939  13.633   6.130   8.459
68348SOL     OW 6940   2.615  14.524   8.339
68348SOL    HW1 6941   2.533  14.566   8.314
68348SOL    HW2 6942   2.632  14.555   8.428
68349SOL     OW 6943  11.530   3.165   6.969
68349SOL    HW1 6944  11.585   3.098   6.929
68349SOL    HW2 6945  11.467   3.189   6.901
68350SOL     OW 6946   5.405   2.122   5.558
68350SOL    HW1 6947   5.413   2.205   5.511
68350SOL    HW2 6948   5.409   2.147   5.651
68351SOL     OW 6949   2.636  10.745   2.761
68351SOL    HW1 6950   2.679  10.690   2.695
68351SOL    HW2 6951   2.559  10.780   2.717
68352SOL     OW 6952  12.267  14.711   7.531
68352SOL    HW1 6953  12.352  14.749   7.551
68352SOL    HW2 6954  12.207  14.753   7.592
68353SOL     OW 6955  13.785  13.174   4.323
68353SOL    HW1 6956  13.742  13.095   4.355
68353SOL    HW2 6957  13.714  13.227   4.286
68354SOL     OW 6958   0.214  12.851  10.603
68354SOL    HW1 6959   0.182  12.876  10.516
68354SOL    HW2 6960   0.156  12.898  10.663
68355SOL     OW 6961  11.074   9.352   4.220
68355SOL    HW1 6962  11.055   9.441   4.250
68355SOL    HW2 6963  11.041   9.350   4.130
68356SOL     OW 6964  11.633   8.199  11.625
68356SOL    HW1 6965  11.701   8.245  11.675
68356SOL    HW2 6966  11.551   8.227  11.666
68357SOL     OW 6967   3.652  10.146  13.579
68357SOL    HW1 6968   3.561  10.155  13.554
68357SOL    HW2 6969   3.688  10.082  13.517
68358SOL     OW 6970   0.395   5.901  13.181
68358SOL    HW1 6971   0.402   5.961  13.107
68358SOL    HW2 6972   0.364   5.955  13.254
68359SOL     OW 6973  10.739   3.826   8.993
68359SOL    HW1 6974  10.832   3.806   9.007
68359SOL    HW2 6975  10.733   3.844   8.899
68360SOL     OW 6976   8.802   4.483   3.769
68360SOL    HW1 6977   8.868   4.461   3.704
68360SOL    HW2 6978   8.852   4.503   3.848
68361SOL     OW 6979  13.160  14.357   6.643
68361SOL    HW1 6980  13.169  14.448   6.616
68361SOL    HW2 6981  13.135  14.363   6.736
68362SOL     OW 6982   4.746   2.514   4.239
68362SOL    HW1 6983   4.769   2.495   4.148
68362SOL    HW2 6984   4.793   2.447   4.290
68363SOL     OW 6985   3.714   5.010   4.999
68363SOL    HW1 6986   3.723   5.021   5.093
68363SOL    HW2 6987   3.760   5.085   4.961
68364SOL     OW 6988   3.631  10.948   1.263
68364SOL    HW1 6989   3.563  10.922   1.200
68364SOL    HW2 6990   3.655  11.037   1.236
68365SOL     OW 6991  10.561   8.142   4.258
68365SOL    HW1 6992  10.466   8.134   4.265
68365SOL    HW2 6993  10.593   8.119   4.345
68366SOL     OW 6994  14.527  13.402  12.953
68366SOL    HW1 6995  14.566  13.350  13.024
68366SOL    HW2 6996  14.437  13.372  12.948
68367SOL     OW 6997   8.666  14.592  13.934
68367SOL    HW1 6998   8.596  14.531  13.910
68367SOL    HW2 6999   8.742  14.562  13.884
68368SOL     OW 7000   6.479  11.733   1.121
68368SOL    HW1 7001   6.394  11.746   1.164
68368SOL    HW2 7002   6.460  11.674   1.048
68369SOL     OW 7003  12.453  13.667   9.414
68369SOL    HW1 7004  12.415  13.728   9.478
68369SOL    HW2 7005  12.398  13.589   9.421
68370SOL     OW 7006  14.649   3.001   5.786
68370SOL    HW1 7007  14.639   3.069   5.853
68370SOL    HW2 7008  14.595   2.928   5.817
68371SOL     OW 7009   2.185  14.421   7.536
68371SOL    HW1 7010   2.175  14.332   7.504
68371SOL    HW2 7011   2.278  14.441   7.524
68372SOL     OW 7012  11.908   6.925   3.116
68372SOL    HW1 7013  11.881   6.949   3.027
68372SOL    HW2 7014  11.943   6.837   3.107
68373SOL     OW 7015  13.227   9.913  10.907
68373SOL    HW1 7016  13.133   9.900  10.920
68373SOL    HW2 7017  13.267   9.836  10.946
68374SOL     OW 7018  13.992   4.547   2.121
68374SOL    HW1 7019  14.004   4.642   2.129
68374SOL    HW2 7020  13.948   4.522   2.202
68375SOL     OW 7021   5.576   1.219  14.451
68375SOL    HW1 7022   5.502   1.182  14.403
68375SOL    HW2 7023   5.545   1.305  14.480
68376SOL     OW 7024   8.609  14.193   2.287
68376SOL    HW1 7025   8.637  14.166   2.375
68376SOL    HW2 7026   8.590  14.286   2.296
68377SOL     OW 7027  14.572  10.652  12.669
68377SOL    HW1 7028  14.508  10.583  12.651
68377SOL    HW2 7029  14.519  10.730  12.683
68378SOL     OW 7030   7.715   6.076   0.361
68378SOL    HW1 7031   7.771   6.023   0.305
68378SOL    HW2 7032   7.721   6.035   0.447
68379SOL     OW 7033   6.206  12.387   9.040
68379SOL    HW1 7034   6.263  12.458   9.070
68379SOL    HW2 7035   6.157  12.361   9.118
68380SOL     OW 7036   8.023   4.390   6.817
68380SOL    HW1 7037   7.949   4.329   6.818
68380SOL    HW2 7038   8.010   4.445   6.894
68381SOL     OW 7039   8.329   2.808  10.526
68381SOL    HW1 7040   8.302   2.762  10.447
68381SOL    HW2 7041   8.419   2.781  10.541
68382SOL     OW 7042   8.096  12.758   3.690
68382SOL    HW1 7043   8.046  12.683   3.657
68382SOL    HW2 7044   8.174  12.761   3.634
68383SOL     OW 7045   5.956   4.763   5.936
68383SOL    HW1 7046   6.040   4.787   5.896
68383SOL    HW2 7047   5.940   4.830   6.001
68384SOL     OW 7048   9.859   1.134   5.651
68384SOL    HW1 7049   9.948   1.131   5.617
68384SOL    HW2 7050   9.803   1.119   5.575
68385SOL     OW 7051   4.787   8.839   6.254
68385SOL    HW1 7052   4.840   8.914   6.282
68385SOL    HW2 7053   4.845   8.763   6.263
68386SOL     OW 7054   6.622   7.423  14.741
68386SOL    HW1 7055   6.681   7.479  14.691
68386SOL    HW2 7056   6.585   7.481  14.808
68387SOL     OW 7057   8.219  14.641  11.718
68387SOL    HW1 7058   8.248  14.723  11.680
68387SOL    HW2 7059   8.295  14.583  11.713
68388SOL     OW 7060   6.752   0.401  13.718
68388SOL    HW1 7061   6.773   0.457  13.793
68388SOL    HW2 7062   6.826   0.412  13.658
68389SOL     OW 7063   9.402   3.058   6.716
68389SOL    HW1 7064   9.410   3.146   6.681
68389SOL    HW2 7065   9.352   3.010   6.650
68390SOL     OW 7066   0.439  10.397   7.522
68390SOL    HW1 7067   0.521  10.445   7.536
68390SOL    HW2 7068   0.457  10.343   7.445
68391SOL     OW 7069   2.050   0.062   5.300
68391SOL    HW1 7070   2.013   0.046   5.387
68391SOL    HW2 7071   2.049  14.855   5.257
68392SOL     OW 7072   1.867   9.547   1.472
68392SOL    HW1 7073   1.909   9.632   1.457
68392SOL    HW2 7074   1.938   9.483   1.463
68393SOL     OW 7075   5.220   7.072   4.603
68393SOL    HW1 7076   5.228   7.013   4.527
68393SOL    HW2 7077   5.309   7.085   4.633
68394SOL     OW 7078   4.303  11.975   5.736
68394SOL    HW1 7079   4.268  12.049   5.785
68394SOL    HW2 7080   4.374  11.940   5.790
68395SOL     OW 7081   3.916  12.267   9.610
68395SOL    HW1 7082   3.977  12.336   9.588
68395SOL    HW2 7083   3.830  12.302   9.587
68396SOL     OW 7084   8.608  11.967   9.194
68396SOL    HW1 7085   8.560  11.998   9.272
68396SOL    HW2 7086   8.601  12.039   9.132
68397SOL     OW 7087   0.392   1.536   8.896
68397SOL    HW1 7088   0.355   1.449   8.910
68397SOL    HW2 7089   0.483   1.519   8.869
68398SOL     OW 7090   2.862   5.652  14.835
68398SOL    HW1 7091   2.783   5.700  14.808
68398SOL    HW2 7092   2.918   5.652  14.757
68399SOL     OW 7093   9.942   6.311   5.891
68399SOL    HW1 7094   9.927   6.235   5.835
68399SOL    HW2 7095   9.892   6.381   5.850
68400SOL     OW 7096   8.960   3.286   5.700
68400SOL    HW1 7097   8.960   3.380   5.721
68400SOL    HW2 7098   9.047   3.271   5.663
68401SOL     OW 7099  12.524   6.347   4.668
68401SOL    HW1 7100  12.533   6.436   4.636
68401SOL    HW2 7101  12.508   6.356   4.761
68402SOL     OW 7102   9.113   0.071  10.473
68402SOL    HW1 7103   9.068   0.134  10.529
68402SOL    HW2 7104   9.050   0.000  10.461
68403SOL     OW 7105   8.922   3.519   9.638
68403SOL    HW1 7106   8.946   3.438   9.685
68403SOL    HW2 7107   8.831   3.535   9.663
68404SOL     OW 7108  10.965   0.111   6.964
68404SOL    HW1 7109  10.976   0.048   7.035
68404SOL    HW2 7110  10.903   0.175   6.998
68405SOL     OW 7111   4.468   0.305   5.537
68405SOL    HW1 7112   4.451   0.396   5.562
68405SOL    HW2 7113   4.458   0.303   5.442
68406SOL     OW 7114   3.226   0.049   1.867
68406SOL    HW1 7115   3.231   0.074   1.959
68406SOL    HW2 7116   3.161  14.856   1.864
68407SOL     OW 7117   0.533   0.186   0.010
68407SOL    HW1 7118   0.589   0.177   0.088
68407SOL    HW2 7119   0.579   0.137  14.819
68408SOL     OW 7120  11.312   3.897   6.272
68408SOL    HW1 7121  11.288   3.875   6.182
68408SOL    HW2 7122  11.326   3.812   6.314
68409SOL     OW 7123   0.341  12.843   4.848
68409SOL    HW1 7124   0.337  12.875   4.758
68409SOL    HW2 7125   0.434  12.840   4.869
68410SOL     OW 7126   8.441  11.092   4.207
68410SOL    HW1 7127   8.361  11.064   4.251
68410SOL    HW2 7128   8.512  11.051   4.256
68411SOL     OW 7129   7.883  12.326   4.450
68411SOL    HW1 7130   7.859  12.235   4.466
68411SOL    HW2 7131   7.820  12.355   4.384
68412SOL     OW 7132   3.081   7.918   9.425
68412SOL    HW1 7133   3.074   7.843   9.483
68412SOL    HW2 7134   3.015   7.979   9.456
68413SOL     OW 7135   9.967  10.252  13.857
68413SOL    HW1 7136   9.967  10.326  13.918
68413SOL    HW2 7137  10.030  10.277  13.790
68414SOL     OW 7138   3.273   1.751   9.860
68414SOL    HW1 7139   3.298   1.762   9.768
68414SOL    HW2 7140   3.244   1.838   9.888
68415SOL     OW 7141   4.243   8.881  14.406
68415SOL    HW1 7142   4.220   8.964  14.448
68415SOL    HW2 7143   4.338   8.879  14.406
68416SOL     OW 7144   7.658  11.948   7.959
68416SOL    HW1 7145   7.568  11.957   7.928
68416SOL    HW2 7146   7.697  11.883   7.901
68417SOL     OW 7147  10.604   6.262   1.679
68417SOL    HW1 7148  10.607   6.172   1.647
68417SOL    HW2 7149  10.554   6.310   1.612
68418SOL     OW 7150   9.804   9.080   7.708
68418SOL    HW1 7151   9.887   9.053   7.668
68418SOL    HW2 7152   9.813   9.053   7.800
68419SOL     OW 7153   9.242   3.464   5.506
68419SOL    HW1 7154   9.303   3.396   5.475
68419SOL    HW2 7155   9.237   3.450   5.601
68420SOL     OW 7156  14.767   8.730   9.789
68420SOL    HW1 7157  14.820   8.679   9.727
68420SOL    HW2 7158  14.778   8.685   9.873
68421SOL     OW 7159   5.497  10.447  12.368
68421SOL    HW1 7160   5.428  10.381  12.379
68421SOL    HW2 7161   5.501  10.461  12.273
68422SOL     OW 7162   3.918   2.935   8.350
68422SOL    HW1 7163   3.893   2.992   8.423
68422SOL    HW2 7164   4.009   2.913   8.368
68423SOL     OW 7165   6.747   9.352   7.661
68423SOL    HW1 7166   6.669   9.310   7.698
68423SOL    HW2 7167   6.809   9.355   7.733
68424SOL     OW 7168  14.657   0.432  14.338
68424SOL    HW1 7169  14.674   0.338  14.335
68424SOL    HW2 7170  14.704   0.467  14.262
68425SOL     OW 7171  14.273  14.390   4.766
68425SOL    HW1 7172  14.285  14.299   4.793
68425SOL    HW2 7173  14.329  14.401   4.690
68426SOL     OW 7174   6.665  10.743  14.808
68426SOL    HW1 7175   6.711  10.773  14.729
68426SOL    HW2 7176   6.696  10.803  14.877
68427SOL     OW 7177  11.812   5.572   8.302
68427SOL    HW1 7178  11.774   5.538   8.220
68427SOL    HW2 7179  11.902   5.539   8.302
68428SOL     OW 7180   3.972   5.509   0.808
68428SOL    HW1 7181   4.040   5.456   0.766
68428SOL    HW2 7182   3.914   5.445   0.849
68429SOL     OW 7183   9.407   9.666   2.379
68429SOL    HW1 7184   9.415   9.701   2.291
68429SOL    HW2 7185   9.445   9.734   2.435
68430SOL     OW 7186   0.599   1.134   2.883
68430SOL    HW1 7187   0.506   1.134   2.858
68430SOL    HW2 7188   0.643   1.093   2.808
68431SOL     OW 7189   9.294   0.142   7.456
68431SOL    HW1 7190   9.313   0.182   7.371
68431SOL    HW2 7191   9.199   0.137   7.460
68432SOL     OW 7192   2.975   4.867   0.210
68432SOL    HW1 7193   3.001   4.943   0.156
68432SOL    HW2 7194   3.057   4.838   0.251
68433SOL     OW 7195   0.536   4.766   2.544
68433SOL    HW1 7196   0.588   4.692   2.511
68433SOL    HW2 7197   0.588   4.843   2.523
68434SOL     OW 7198   8.687   3.178   2.707
68434SOL    HW1 7199   8.757   3.115   2.726
68434SOL    HW2 7200   8.658   3.209   2.792
68435SOL     OW 7201  12.173   0.939  11.499
68435SOL    HW1 7202  12.133   0.984  11.424
68435SOL    HW2 7203  12.248   0.994  11.523
68436SOL     OW 7204  12.259  11.773   8.565
68436SOL    HW1 7205  12.167  11.766   8.542
68436SOL    HW2 7206  12.291  11.847   8.513
68437SOL     OW 7207  13.553   1.930   8.088
68437SOL    HW1 7208  13.568   1.895   8.000
68437SOL    HW2 7209  13.624   1.894   8.140
68438SOL     OW 7210  13.530   0.947   3.160
68438SOL    HW1 7211  13.529   1.017   3.094
68438SOL    HW2 7212  13.621   0.944   3.190
68439SOL     OW 7213   6.818  13.072   7.629
68439SOL    HW1 7214   6.821  13.007   7.558
68439SOL    HW2 7215   6.871  13.033   7.699
68440SOL     OW 7216   3.255   5.040   3.460
68440SOL    HW1 7217   3.201   5.086   3.524
68440SOL    HW2 7218   3.345   5.068   3.480
68441SOL     OW 7219   6.425   9.384  14.092
68441SOL    HW1 7220   6.512   9.396  14.131
68441SOL    HW2 7221   6.434   9.307  14.036
68442SOL     OW 7222  13.879   9.617  11.258
68442SOL    HW1 7223  13.913   9.528  11.257
68442SOL    HW2 7224  13.925   9.661  11.186
68443SOL     OW 7225   9.390   5.082   2.397
68443SOL    HW1 7226   9.308   5.105   2.354
68443SOL    HW2 7227   9.457   5.124   2.345
68444SOL     OW 7228   6.279   9.601  12.393
68444SOL    HW1 7229   6.260   9.631  12.482
68444SOL    HW2 7230   6.212   9.536  12.374
68445SOL     OW 7231   0.800   7.169  12.748
68445SOL    HW1 7232   0.850   7.181  12.829
68445SOL    HW2 7233   0.742   7.244  12.744
68446SOL     OW 7234  10.178  14.290   8.703
68446SOL    HW1 7235  10.230  14.370   8.701
68446SOL    HW2 7236  10.126  14.293   8.622
68447SOL     OW 7237   4.286  13.834   6.109
68447SOL    HW1 7238   4.322  13.922   6.111
68447SOL    HW2 7239   4.246  13.826   6.022
68448SOL     OW 7240   6.123   2.851   5.690
68448SOL    HW1 7241   6.097   2.765   5.657
68448SOL    HW2 7242   6.102   2.849   5.784
68449SOL     OW 7243   2.699   0.595   9.846
68449SOL    HW1 7244   2.624   0.608   9.904
68449SOL    HW2 7245   2.733   0.683   9.830
68450SOL     OW 7246   1.605   8.591  12.204
68450SOL    HW1 7247   1.513   8.606  12.182
68450SOL    HW2 7248   1.603   8.531  12.278
68451SOL     OW 7249   4.125   9.419   1.455
68451SOL    HW1 7250   4.167   9.357   1.394
68451SOL    HW2 7251   4.085   9.485   1.398
68452SOL     OW 7252   5.887   6.192   4.555
68452SOL    HW1 7253   5.961   6.149   4.512
68452SOL    HW2 7254   5.889   6.282   4.522
68453SOL     OW 7255   0.348   5.401   7.961
68453SOL    HW1 7256   0.438   5.383   7.986
68453SOL    HW2 7257   0.310   5.314   7.943
68454SOL     OW 7258  10.439   7.500   1.027
68454SOL    HW1 7259  10.450   7.471   0.936
68454SOL    HW2 7260  10.453   7.594   1.023
68455SOL     OW 7261   9.817   0.150   6.666
68455SOL    HW1 7262   9.795   0.169   6.575
68455SOL    HW2 7263   9.903   0.190   6.679
68456SOL     OW 7264   2.838   7.300  12.232
68456SOL    HW1 7265   2.892   7.293  12.154
68456SOL    HW2 7266   2.871   7.231  12.290
68457SOL     OW 7267   0.264   8.793   3.335
68457SOL    HW1 7268   0.228   8.778   3.423
68457SOL    HW2 7269   0.355   8.766   3.342
68458SOL     OW 7270  13.326  10.685  13.985
68458SOL    HW1 7271  13.323  10.618  13.916
68458SOL    HW2 7272  13.339  10.635  14.066
68459SOL     OW 7273   5.945  10.903   4.306
68459SOL    HW1 7274   5.952  10.975   4.369
68459SOL    HW2 7275   5.988  10.936   4.227
68460SOL     OW 7276   0.960  14.511   7.911
68460SOL    HW1 7277   0.915  14.544   7.989
68460SOL    HW2 7278   0.890  14.480   7.854
68461SOL     OW 7279   2.104  14.449   1.685
68461SOL    HW1 7280   2.122  14.460   1.592
68461SOL    HW2 7281   2.042  14.519   1.706
68462SOL     OW 7282   6.502   6.613   5.652
68462SOL    HW1 7283   6.554   6.672   5.597
68462SOL    HW2 7284   6.465   6.549   5.590
68463SOL     OW 7285  12.167   0.172  10.114
68463SOL    HW1 7286  12.176   0.211  10.200
68463SOL    HW2 7287  12.175   0.245  10.053
68464SOL     OW 7288   4.457  13.068   1.413
68464SOL    HW1 7289   4.382  13.127   1.405
68464SOL    HW2 7290   4.520  13.099   1.348
68465SOL     OW 7291  12.868   9.398   2.386
68465SOL    HW1 7292  12.897   9.379   2.297
68465SOL    HW2 7293  12.948   9.414   2.435
68466SOL     OW 7294  13.702   4.683  10.169
68466SOL    HW1 7295  13.687   4.635  10.088
68466SOL    HW2 7296  13.689   4.619  10.238
68467SOL     OW 7297  10.898   8.018   1.188
68467SOL    HW1 7298  10.813   8.031   1.229
68467SOL    HW2 7299  10.961   8.031   1.259
68468SOL     OW 7300   6.911   4.715   6.507
68468SOL    HW1 7301   6.899   4.787   6.445
68468SOL    HW2 7302   6.950   4.645   6.455
68469SOL     OW 7303  14.211  12.604   1.518
68469SOL    HW1 7304  14.249  12.646   1.440
68469SOL    HW2 7305  14.264  12.636   1.591
68470SOL     OW 7306   1.665  14.427  13.157
68470SOL    HW1 7307   1.645  14.521  13.155
68470SOL    HW2 7308   1.579  14.385  13.160
68471SOL     OW 7309   4.455   8.474  12.173
68471SOL    HW1 7310   4.527   8.533  12.149
68471SOL    HW2 7311   4.417   8.514  12.251
68472SOL     OW 7312   9.850   2.757   7.922
68472SOL    HW1 7313   9.772   2.771   7.975
68472SOL    HW2 7314   9.844   2.823   7.853
68473SOL     OW 7315   9.471  11.346  13.047
68473SOL    HW1 7316   9.538  11.411  13.069
68473SOL    HW2 7317   9.470  11.344  12.951
68474SOL     OW 7318   5.481   3.944  13.968
68474SOL    HW1 7319   5.516   3.854  13.962
68474SOL    HW2 7320   5.418   3.940  14.040
68475SOL     OW 7321  14.348   9.316   0.554
68475SOL    HW1 7322  14.272   9.352   0.599
68475SOL    HW2 7323  14.319   9.230   0.523
68476SOL     OW 7324   8.656   0.110  14.328
68476SOL    HW1 7325   8.641   0.046  14.259
68476SOL    HW2 7326   8.728   0.075  14.380
68477SOL     OW 7327  11.503  11.927  11.450
68477SOL    HW1 7328  11.593  11.931  11.417
68477SOL    HW2 7329  11.463  11.854  11.402
68478SOL     OW 7330   2.469   2.616   4.181
68478SOL    HW1 7331   2.553   2.607   4.225
68478SOL    HW2 7332   2.404   2.602   4.251
68479SOL     OW 7333   5.657   8.208   1.977
68479SOL    HW1 7334   5.731   8.229   1.921
68479SOL    HW2 7335   5.606   8.289   1.980
68480SOL     OW 7336   8.415   5.561  14.694
68480SOL    HW1 7337   8.376   5.649  14.696
68480SOL    HW2 7338   8.374   5.518  14.619
68481SOL     OW 7339   4.391   4.261  13.912
68481SOL    HW1 7340   4.386   4.356  13.898
68481SOL    HW2 7341   4.474   4.236  13.871
68482SOL     OW 7342   0.055  10.228   6.789
68482SOL    HW1 7343   0.131  10.185   6.830
68482SOL    HW2 7344  14.870  10.158   6.775
68483SOL     OW 7345   5.719   4.600   7.389
68483SOL    HW1 7346   5.642   4.599   7.445
68483SOL    HW2 7347   5.724   4.689   7.357
68484SOL     OW 7348  13.943   6.203   3.695
68484SOL    HW1 7349  13.931   6.237   3.607
68484SOL    HW2 7350  13.866   6.233   3.743
68485SOL     OW 7351   4.405  14.747   3.426
68485SOL    HW1 7352   4.342  14.761   3.496
68485SOL    HW2 7353   4.448  14.664   3.448
68486SOL     OW 7354  10.021   2.624   0.016
68486SOL    HW1 7355  10.066   2.669   0.088
68486SOL    HW2 7356  10.081   2.629  14.820
68487SOL     OW 7357  12.778  10.926   5.719
68487SOL    HW1 7358  12.738  10.839   5.712
68487SOL    HW2 7359  12.853  10.913   5.777
68488SOL     OW 7360  10.529  11.245   5.233
68488SOL    HW1 7361  10.481  11.302   5.173
68488SOL    HW2 7362  10.605  11.297   5.260
68489SOL     OW 7363  11.109   2.739   7.333
68489SOL    HW1 7364  11.117   2.660   7.279
68489SOL    HW2 7365  11.027   2.728   7.380
68490SOL     OW 7366  14.824   0.201   3.737
68490SOL    HW1 7367  14.843   0.179   3.829
68490SOL    HW2 7368  14.798   0.293   3.740
68491SOL     OW 7369  13.912  14.655   8.980
68491SOL    HW1 7370  13.855  14.578   8.989
68491SOL    HW2 7371  13.853  14.730   8.986
68492SOL     OW 7372  13.622  10.978   9.391
68492SOL    HW1 7373  13.707  10.992   9.349
68492SOL    HW2 7374  13.604  11.061   9.436
68493SOL     OW 7375  14.464  10.001   5.147
68493SOL    HW1 7376  14.425  10.081   5.182
68493SOL    HW2 7377  14.558  10.021   5.140
68494SOL     OW 7378   5.460   0.259   1.312
68494SOL    HW1 7379   5.386   0.284   1.257
68494SOL    HW2 7380   5.479   0.169   1.288
68495SOL     OW 7381  11.023  11.074   2.079
68495SOL    HW1 7382  11.090  11.138   2.055
68495SOL    HW2 7383  11.007  11.091   2.172
68496SOL     OW 7384   3.337   0.576  14.297
68496SOL    HW1 7385   3.352   0.641  14.365
68496SOL    HW2 7386   3.254   0.534  14.322
68497SOL     OW 7387   2.734   3.626  12.913
68497SOL    HW1 7388   2.787   3.582  12.846
68497SOL    HW2 7389   2.790   3.698  12.943
68498SOL     OW 7390  11.315  10.190  11.210
68498SOL    HW1 7391  11.254  10.259  11.237
68498SOL    HW2 7392  11.392  10.237  11.178
68499SOL     OW 7393   5.474   2.092  12.016
68499SOL    HW1 7394   5.429   2.161  12.065
68499SOL    HW2 7395   5.415   2.017  12.022
68500SOL     OW 7396   7.698   2.940   9.338
68500SOL    HW1 7397   7.636   2.921   9.268
68500SOL    HW2 7398   7.650   2.922   9.419
68501SOL     OW 7399   6.515   4.345  13.687
68501SOL    HW1 7400   6.431   4.360  13.730
68501SOL    HW2 7401   6.498   4.273  13.627
68502SOL     OW 7402   0.592   2.797   7.406
68502SOL    HW1 7403   0.518   2.857   7.409
68502SOL    HW2 7404   0.566   2.729   7.345
68503SOL     OW 7405   8.663   4.754  12.884
68503SOL    HW1 7406   8.629   4.687  12.945
68503SOL    HW2 7407   8.724   4.706  12.828
68504SOL     OW 7408   1.857  11.567  12.828
68504SOL    HW1 7409   1.939  11.546  12.872
68504SOL    HW2 7410   1.790  11.554  12.895
68505SOL     OW 7411   1.687   9.580   7.106
68505SOL    HW1 7412   1.600   9.556   7.076
68505SOL    HW2 7413   1.707   9.661   7.059
68506SOL     OW 7414  13.589   7.546   8.966
68506SOL    HW1 7415  13.608   7.464   8.921
68506SOL    HW2 7416  13.659   7.554   9.032
68507SOL     OW 7417  11.807   9.240   3.208
68507SOL    HW1 7418  11.822   9.311   3.270
68507SOL    HW2 7419  11.714   9.220   3.217
68508SOL     OW 7420   4.202   5.600  12.073
68508SOL    HW1 7421   4.296   5.595  12.056
68508SOL    HW2 7422   4.182   5.694  12.068
68509SOL     OW 7423   8.512   5.104   0.636
68509SOL    HW1 7424   8.452   5.112   0.711
68509SOL    HW2 7425   8.498   5.014   0.604
68510SOL     OW 7426   4.788   4.602   2.836
68510SOL    HW1 7427   4.782   4.541   2.763
68510SOL    HW2 7428   4.851   4.562   2.896
68511SOL     OW 7429   9.623  13.259  11.839
68511SOL    HW1 7430   9.607  13.172  11.805
68511SOL    HW2 7431   9.718  13.271  11.831
68512SOL     OW 7432  11.161   3.873   5.035
68512SOL    HW1 7433  11.159   3.964   5.004
68512SOL    HW2 7434  11.069   3.850   5.048
68513SOL     OW 7435  13.175  14.304   9.150
68513SOL    HW1 7436  13.176  14.284   9.057
68513SOL    HW2 7437  13.176  14.399   9.154
68514SOL     OW 7438   0.234   2.033   2.689
68514SOL    HW1 7439   0.217   1.981   2.767
68514SOL    HW2 7440   0.154   2.023   2.636
68515SOL     OW 7441   2.124   0.228   2.044
68515SOL    HW1 7442   2.071   0.201   1.969
68515SOL    HW2 7443   2.068   0.213   2.120
68516SOL     OW 7444  12.983   1.974   5.214
68516SOL    HW1 7445  13.077   1.985   5.199
68516SOL    HW2 7446  12.951   2.062   5.235
68517SOL     OW 7447   8.394   4.065   0.609
68517SOL    HW1 7448   8.400   4.051   0.514
68517SOL    HW2 7449   8.386   3.977   0.646
68518SOL     OW 7450   8.046   4.688   6.492
68518SOL    HW1 7451   8.059   4.594   6.507
68518SOL    HW2 7452   8.115   4.730   6.542
68519SOL     OW 7453   2.304   8.560  13.098
68519SOL    HW1 7454   2.364   8.634  13.111
68519SOL    HW2 7455   2.361   8.484  13.091
68520SOL     OW 7456   0.650  12.307   4.929
68520SOL    HW1 7457   0.613  12.220   4.943
68520SOL    HW2 7458   0.743  12.298   4.949
68521SOL     OW 7459   4.306   6.029  13.081
68521SOL    HW1 7460   4.242   5.958  13.073
68521SOL    HW2 7461   4.391   5.987  13.072
68522SOL     OW 7462   4.199  13.161   7.650
68522SOL    HW1 7463   4.133  13.170   7.718
68522SOL    HW2 7464   4.217  13.067   7.647
68523SOL     OW 7465   5.447  11.553   9.299
68523SOL    HW1 7466   5.509  11.510   9.240
68523SOL    HW2 7467   5.479  11.534   9.387
68524SOL     OW 7468   5.561  12.785   0.906
68524SOL    HW1 7469   5.545  12.877   0.883
68524SOL    HW2 7470   5.656  12.774   0.894
68525SOL     OW 7471   5.352   2.721  11.778
68525SOL    HW1 7472   5.294   2.776  11.726
68525SOL    HW2 7473   5.298   2.647  11.804
68526SOL     OW 7474  11.165  11.284   4.582
68526SOL    HW1 7475  11.174  11.191   4.562
68526SOL    HW2 7476  11.141  11.324   4.498
68527SOL     OW 7477   6.455   1.196  12.302
68527SOL    HW1 7478   6.532   1.148  12.272
68527SOL    HW2 7479   6.482   1.233  12.386
68528SOL     OW 7480  12.003   9.739  13.457
68528SOL    HW1 7481  11.923   9.692  13.433
68528SOL    HW2 7482  12.034   9.696  13.536
68529SOL     OW 7483  14.388   1.506   6.340
68529SOL    HW1 7484  14.357   1.568   6.406
68529SOL    HW2 7485  14.325   1.514   6.268
68530SOL     OW 7486   4.120  12.721   4.571
68530SOL    HW1 7487   4.201  12.742   4.526
68530SOL    HW2 7488   4.121  12.776   4.650
68531SOL     OW 7489   0.365   8.654  11.648
68531SOL    HW1 7490   0.321   8.617  11.571
68531SOL    HW2 7491   0.366   8.748  11.632
68532SOL     OW 7492   4.578  11.867   8.741
68532SOL    HW1 7493   4.523  11.939   8.710
68532SOL    HW2 7494   4.659  11.910   8.768
68533SOL     OW 7495   7.622   6.350   4.356
68533SOL    HW1 7496   7.707   6.332   4.316
68533SOL    HW2 7497   7.614   6.284   4.425
68534SOL     OW 7498   4.289  14.761   5.982
68534SOL    HW1 7499   4.255  14.796   6.064
68534SOL    HW2 7500   4.348  14.828   5.950
68535SOL     OW 7501  12.618   3.987   6.396
68535SOL    HW1 7502  12.673   3.920   6.354
68535SOL    HW2 7503  12.605   4.053   6.328
68536SOL     OW 7504   5.351  13.760   4.126
68536SOL    HW1 7505   5.335  13.721   4.213
68536SOL    HW2 7506   5.443  13.743   4.109
68537SOL     OW 7507  12.331  12.784   0.145
68537SOL    HW1 7508  12.405  12.772   0.204
68537SOL    HW2 7509  12.365  12.759   0.059
68538SOL     OW 7510   2.591   7.476  10.895
68538SOL    HW1 7511   2.594   7.570  10.878
68538SOL    HW2 7512   2.653   7.462  10.967
68539SOL     OW 7513   7.440   5.981  12.652
68539SOL    HW1 7514   7.452   6.015  12.741
68539SOL    HW2 7515   7.508   5.914  12.642
68540SOL     OW 7516   4.154   3.477   8.286
68540SOL    HW1 7517   4.192   3.405   8.236
68540SOL    HW2 7518   4.067   3.446   8.310
68541SOL     OW 7519   6.018   8.015  11.535
68541SOL    HW1 7520   6.013   7.928  11.494
68541SOL    HW2 7521   6.112   8.031  11.545
68542SOL     OW 7522   0.516   1.501  12.155
68542SOL    HW1 7523   0.435   1.535  12.117
68542SOL    HW2 7524   0.490   1.420  12.199
68543SOL     OW 7525   1.417   8.777  14.371
68543SOL    HW1 7526   1.364   8.856  14.358
68543SOL    HW2 7527   1.468   8.768  14.290
68544SOL     OW 7528  14.870   9.421   6.788
68544SOL    HW1 7529   0.060   9.371   6.741
68544SOL    HW2 7530  14.850   9.494   6.729
68545SOL     OW 7531  10.839  11.060  14.092
68545SOL    HW1 7532  10.926  11.029  14.117
68545SOL    HW2 7533  10.855  11.128  14.027
68546SOL     OW 7534   7.204   5.267   1.367
68546SOL    HW1 7535   7.125   5.321   1.356
68546SOL    HW2 7536   7.264   5.323   1.417
68547SOL     OW 7537  14.097  13.778  10.512
68547SOL    HW1 7538  14.133  13.866  10.524
68547SOL    HW2 7539  14.173  13.725  10.487
68548SOL     OW 7540   4.346   5.294  14.092
68548SOL    HW1 7541   4.304   5.211  14.111
68548SOL    HW2 7542   4.284   5.340  14.036
68549SOL     OW 7543  10.950  11.257   0.023
68549SOL    HW1 7544  10.949  11.267   0.118
68549SOL    HW2 7545  10.990  11.338  14.868
68550SOL     OW 7546   9.401  11.047  11.715
68550SOL    HW1 7547   9.416  10.969  11.663
68550SOL    HW2 7548   9.482  11.098  11.706
68551SOL     OW 7549   7.214   9.296  12.869
68551SOL    HW1 7550   7.210   9.257  12.781
68551SOL    HW2 7551   7.288   9.252  12.911
68552SOL     OW 7552  13.566   9.933  14.113
68552SOL    HW1 7553  13.611   9.853  14.137
68552SOL    HW2 7554  13.629  10.003  14.132
68553SOL     OW 7555  13.075   7.259  12.099
68553SOL    HW1 7556  13.144   7.197  12.124
68553SOL    HW2 7557  13.108   7.344  12.127
68554SOL     OW 7558  14.090   9.662   9.481
68554SOL    HW1 7559  14.134   9.655   9.396
68554SOL    HW2 7560  14.105   9.752   9.509
68555SOL     OW 7561   4.004   0.735  11.251
68555SOL    HW1 7562   4.048   0.652  11.233
68555SOL    HW2 7563   4.075   0.798  11.264
68556SOL     OW 7564   9.887   4.954   8.592
68556SOL    HW1 7565   9.820   4.995   8.538
68556SOL    HW2 7566   9.838   4.908   8.660
68557SOL     OW 7567   7.790   1.233  10.282
68557SOL    HW1 7568   7.836   1.304  10.236
68557SOL    HW2 7569   7.827   1.235  10.370
68558SOL     OW 7570   3.984   8.336   9.889
68558SOL    HW1 7571   4.043   8.334   9.964
68558SOL    HW2 7572   3.909   8.388   9.919
68559SOL     OW 7573   5.944   8.358   5.675
68559SOL    HW1 7574   5.955   8.430   5.736
68559SOL    HW2 7575   5.915   8.285   5.729
68560SOL     OW 7576  14.650  11.708   8.592
68560SOL    HW1 7577  14.645  11.733   8.500
68560SOL    HW2 7578  14.670  11.790   8.638
68561SOL     OW 7579  11.805  11.818   7.208
68561SOL    HW1 7580  11.813  11.828   7.113
68561SOL    HW2 7581  11.896  11.820   7.239
68562SOL     OW 7582   6.851   3.659  11.428
68562SOL    HW1 7583   6.834   3.655  11.334
68562SOL    HW2 7584   6.900   3.741  11.440
68563SOL     OW 7585  12.044  11.542   0.920
68563SOL    HW1 7586  11.986  11.605   0.962
68563SOL    HW2 7587  12.008  11.531   0.832
68564SOL     OW 7588  10.197   1.564  10.073
68564SOL    HW1 7589  10.285   1.560  10.112
68564SOL    HW2 7590  10.213   1.590   9.983
68565SOL     OW 7591   6.001   0.124   3.550
68565SOL    HW1 7592   5.996   0.032   3.578
68565SOL    HW2 7593   6.088   0.131   3.509
68566SOL     OW 7594   7.735   3.083   3.179
68566SOL    HW1 7595   7.701   3.153   3.124
68566SOL    HW2 7596   7.814   3.053   3.133
68567SOL     OW 7597  14.330  13.044  10.075
68567SOL    HW1 7598  14.258  13.028  10.014
68567SOL    HW2 7599  14.393  13.094  10.023
68568SOL     OW 7600   3.863   1.690  12.424
68568SOL    HW1 7601   3.928   1.620  12.423
68568SOL    HW2 7602   3.892   1.749  12.494
68569SOL     OW 7603  12.841   2.480   7.090
68569SOL    HW1 7604  12.829   2.391   7.055
68569SOL    HW2 7605  12.936   2.493   7.090
68570SOL     OW 7606  14.446   5.106   9.316
68570SOL    HW1 7607  14.367   5.090   9.265
68570SOL    HW2 7608  14.516   5.066   9.265
68571SOL     OW 7609   5.781   0.550   7.456
68571SOL    HW1 7610   5.692   0.578   7.478
68571SOL    HW2 7611   5.834   0.580   7.530
68572SOL     OW 7612   1.990  13.694   7.688
68572SOL    HW1 7613   2.068  13.741   7.660
68572SOL    HW2 7614   1.992  13.612   7.638
68573SOL     OW 7615   9.144   4.543  12.628
68573SOL    HW1 7616   9.199   4.499  12.563
68573SOL    HW2 7617   9.117   4.624  12.584
68574SOL     OW 7618   0.230   0.107  12.606
68574SOL    HW1 7619   0.137   0.088  12.593
68574SOL    HW2 7620   0.271   0.084  12.523
68575SOL     OW 7621  12.571  12.240  10.596
68575SOL    HW1 7622  12.483  12.277  10.586
68575SOL    HW2 7623  12.625  12.289  10.535
68576SOL     OW 7624  12.219   1.770   2.233
68576SOL    HW1 7625  12.243   1.686   2.193
68576SOL    HW2 7626  12.133   1.753   2.274
68577SOL     OW 7627  11.697  13.182   7.908
68577SOL    HW1 7628  11.769  13.245   7.919
68577SOL    HW2 7629  11.702  13.157   7.815
68578SOL     OW 7630   4.417   2.899   1.280
68578SOL    HW1 7631   4.446   2.832   1.218
68578SOL    HW2 7632   4.485   2.900   1.347
68579SOL     OW 7633  13.534   5.769   3.994
68579SOL    HW1 7634  13.546   5.797   4.085
68579SOL    HW2 7635  13.582   5.687   3.988
68580SOL     OW 7636   0.946  13.959   4.588
68580SOL    HW1 7637   0.894  14.038   4.569
68580SOL    HW2 7638   1.016  13.990   4.646
68581SOL     OW 7639   9.635  14.050   2.276
68581SOL    HW1 7640   9.547  14.017   2.297
68581SOL    HW2 7641   9.653  14.114   2.346
68582SOL     OW 7642   5.630   2.200  11.775
68582SOL    HW1 7643   5.655   2.141  11.704
68582SOL    HW2 7644   5.587   2.144  11.839
68583SOL     OW 7645  11.549   0.374   6.613
68583SOL    HW1 7646  11.603   0.356   6.536
68583SOL    HW2 7647  11.459   0.377   6.580
68584SOL     OW 7648   2.790   8.818   5.538
68584SOL    HW1 7649   2.701   8.818   5.574
68584SOL    HW2 7650   2.846   8.795   5.613
68585SOL     OW 7651  11.820  13.801  11.862
68585SOL    HW1 7652  11.820  13.727  11.923
68585SOL    HW2 7653  11.831  13.762  11.776
68586SOL     OW 7654  14.155   6.620  12.382
68586SOL    HW1 7655  14.145   6.650  12.472
68586SOL    HW2 7656  14.152   6.525  12.387
68587SOL     OW 7657  14.049  11.650   4.331
68587SOL    HW1 7658  14.008  11.624   4.414
68587SOL    HW2 7659  14.138  11.614   4.336
68588SOL     OW 7660   5.360   8.751  10.116
68588SOL    HW1 7661   5.283   8.797  10.148
68588SOL    HW2 7662   5.341   8.732  10.024
68589SOL     OW 7663   6.596   5.043  14.305
68589SOL    HW1 7664   6.638   5.049  14.219
68589SOL    HW2 7665   6.508   5.010  14.286
68590SOL     OW 7666  12.841   3.974   1.697
68590SOL    HW1 7667  12.873   3.885   1.710
68590SOL    HW2 7668  12.873   4.022   1.773
68591SOL     OW 7669   8.535  11.238  12.914
68591SOL    HW1 7670   8.485  11.312  12.878
68591SOL    HW2 7671   8.541  11.256  13.008
68592SOL     OW 7672  14.854   0.988  13.161
68592SOL    HW1 7673  14.847   1.016  13.070
68592SOL    HW2 7674  14.784   0.922  13.171
68593SOL     OW 7675   2.217   5.209  13.192
68593SOL    HW1 7676   2.193   5.177  13.105
68593SOL    HW2 7677   2.309   5.236  13.183
68594SOL     OW 7678   5.213   4.680   1.577
68594SOL    HW1 7679   5.199   4.768   1.544
68594SOL    HW2 7680   5.261   4.635   1.507
68595SOL     OW 7681   5.757   9.563  13.213
68595SOL    HW1 7682   5.746   9.505  13.138
68595SOL    HW2 7683   5.801   9.508  13.279
68596SOL     OW 7684   3.175   3.790   1.996
68596SOL    HW1 7685   3.081   3.780   1.984
68596SOL    HW2 7686   3.186   3.877   2.034
68597SOL     OW 7687  13.417  12.273   3.851
68597SOL    HW1 7688  13.488  12.335   3.841
68597SOL    HW2 7689  13.458  12.194   3.886
68598SOL     OW 7690  13.582  11.881   4.362
68598SOL    HW1 7691  13.593  11.786   4.367
68598SOL    HW2 7692  13.603  11.911   4.451
68599SOL     OW 7693   6.423  10.692  11.814
68599SOL    HW1 7694   6.356  10.624  11.809
68599SOL    HW2 7695   6.491  10.654  11.870
68600SOL     OW 7696  11.418   7.196   3.460
68600SOL    HW1 7697  11.415   7.103   3.483
68600SOL    HW2 7698  11.474   7.200   3.383
68601SOL     OW 7699   7.282   2.676   7.913
68601SOL    HW1 7700   7.257   2.643   7.827
68601SOL    HW2 7701   7.238   2.618   7.975
68602SOL     OW 7702  14.600   5.535   2.671
68602SOL    HW1 7703  14.520   5.562   2.627
68602SOL    HW2 7704  14.641   5.473   2.611
68603SOL     OW 7705   3.114  13.034   8.559
68603SOL    HW1 7706   3.091  13.121   8.590
68603SOL    HW2 7707   3.141  13.047   8.468
68604SOL     OW 7708   9.374   7.589   5.275
68604SOL    HW1 7709   9.373   7.528   5.201
68604SOL    HW2 7710   9.342   7.671   5.239
68605SOL     OW 7711   8.254   3.686   7.934
68605SOL    HW1 7712   8.172   3.703   7.887
68605SOL    HW2 7713   8.318   3.743   7.891
68606SOL     OW 7714   6.128   8.523   9.124
68606SOL    HW1 7715   6.213   8.545   9.086
68606SOL    HW2 7716   6.069   8.517   9.048
68607SOL     OW 7717  11.412   4.808  12.938
68607SOL    HW1 7718  11.413   4.903  12.927
68607SOL    HW2 7719  11.392   4.775  12.850
68608SOL     OW 7720  11.666  13.764   2.239
68608SOL    HW1 7721  11.684  13.835   2.177
68608SOL    HW2 7722  11.570  13.756   2.238
68609SOL     OW 7723   6.860   3.041   8.748
68609SOL    HW1 7724   6.840   3.125   8.789
68609SOL    HW2 7725   6.819   3.046   8.662
68610SOL     OW 7726  12.316   5.194  12.268
68610SOL    HW1 7727  12.353   5.271  12.225
68610SOL    HW2 7728  12.371   5.121  12.238
68611SOL     OW 7729   6.090   6.503   6.253
68611SOL    HW1 7730   6.083   6.595   6.228
68611SOL    HW2 7731   6.099   6.505   6.349
68612SOL     OW 7732   4.278  13.876  14.741
68612SOL    HW1 7733   4.214  13.934  14.781
68612SOL    HW2 7734   4.358  13.929  14.734
68613SOL     OW 7735   6.447   7.250   4.752
68613SOL    HW1 7736   6.472   7.321   4.811
68613SOL    HW2 7737   6.432   7.176   4.810
68614SOL     OW 7738  13.038  14.637   0.372
68614SOL    HW1 7739  12.982  14.560   0.389
68614SOL    HW2 7740  13.038  14.684   0.455
68615SOL     OW 7741  10.606   4.316   2.862
68615SOL    HW1 7742  10.609   4.261   2.784
68615SOL    HW2 7743  10.588   4.256   2.934
68616SOL     OW 7744   1.300   5.098  13.209
68616SOL    HW1 7745   1.377   5.128  13.257
68616SOL    HW2 7746   1.271   5.175  13.159
68617SOL     OW 7747   6.172  10.806  13.910
68617SOL    HW1 7748   6.096  10.849  13.872
68617SOL    HW2 7749   6.169  10.717  13.875
68618SOL     OW 7750  13.335   3.901   5.274
68618SOL    HW1 7751  13.322   3.933   5.363
68618SOL    HW2 7752  13.270   3.831   5.264
68619SOL     OW 7753   9.678   8.762  13.394
68619SOL    HW1 7754   9.608   8.811  13.437
68619SOL    HW2 7755   9.728   8.828  13.346
68620SOL     OW 7756   7.984   3.440   2.949
68620SOL    HW1 7757   7.976   3.490   2.868
68620SOL    HW2 7758   7.915   3.475   3.006
68621SOL     OW 7759   3.044  14.512   4.636
68621SOL    HW1 7760   3.094  14.438   4.672
68621SOL    HW2 7761   3.007  14.555   4.713
68622SOL     OW 7762  10.590  13.927   4.796
68622SOL    HW1 7763  10.608  13.885   4.880
68622SOL    HW2 7764  10.496  13.919   4.785
68623SOL     OW 7765   8.876   4.351  12.979
68623SOL    HW1 7766   8.927   4.393  13.048
68623SOL    HW2 7767   8.940   4.331  12.910
68624SOL     OW 7768   4.591   6.503   6.594
68624SOL    HW1 7769   4.594   6.599   6.596
68624SOL    HW2 7770   4.672   6.477   6.551
68625SOL     OW 7771   0.266  14.491   6.281
68625SOL    HW1 7772   0.255  14.397   6.296
68625SOL    HW2 7773   0.244  14.503   6.189
68626SOL     OW 7774  14.696   0.019   8.877
68626SOL    HW1 7775  14.784   0.022   8.840
68626SOL    HW2 7776  14.682  14.805   8.900
68627SOL     OW 7777   6.627   5.617   9.060
68627SOL    HW1 7778   6.602   5.658   9.142
68627SOL    HW2 7779   6.722   5.632   9.053
68628SOL     OW 7780  10.204   9.460   3.883
68628SOL    HW1 7781  10.213   9.531   3.946
68628SOL    HW2 7782  10.281   9.468   3.827
68629SOL     OW 7783  10.468   8.608   6.575
68629SOL    HW1 7784  10.483   8.516   6.596
68629SOL    HW2 7785  10.440   8.648   6.657
68630SOL     OW 7786   9.528   4.018  14.772
68630SOL    HW1 7787   9.483   4.101  14.754
68630SOL    HW2 7788   9.608   4.043  14.818
68631SOL     OW 7789   7.033  10.787   7.157
68631SOL    HW1 7790   7.078  10.772   7.240
68631SOL    HW2 7791   7.064  10.716   7.100
68632SOL     OW 7792   0.383   5.139   9.688
68632SOL    HW1 7793   0.294   5.104   9.693
68632SOL    HW2 7794   0.420   5.120   9.775
68633SOL     OW 7795  13.365   6.206  10.304
68633SOL    HW1 7796  13.439   6.261  10.329
68633SOL    HW2 7797  13.401   6.117  10.298
68634SOL     OW 7798   2.694  12.095   0.054
68634SOL    HW1 7799   2.622  12.137   0.007
68634SOL    HW2 7800   2.703  12.009   0.013
68635SOL     OW 7801   0.856   1.896   5.785
68635SOL    HW1 7802   0.784   1.853   5.831
68635SOL    HW2 7803   0.903   1.945   5.853
68636SOL     OW 7804   0.148   3.531   2.707
68636SOL    HW1 7805   0.118   3.474   2.636
68636SOL    HW2 7806   0.144   3.475   2.785
68637SOL     OW 7807   7.634  12.132   0.386
68637SOL    HW1 7808   7.667  12.067   0.448
68637SOL    HW2 7809   7.551  12.161   0.424
68638SOL     OW 7810  13.025   1.119  14.398
68638SOL    HW1 7811  13.068   1.201  14.423
68638SOL    HW2 7812  13.032   1.116  14.303
68639SOL     OW 7813   3.638  10.974   7.079
68639SOL    HW1 7814   3.703  10.993   7.011
68639SOL    HW2 7815   3.570  11.041   7.066
68640SOL     OW 7816   3.436   3.486   5.938
68640SOL    HW1 7817   3.418   3.417   6.002
68640SOL    HW2 7818   3.379   3.467   5.864
68641SOL     OW 7819   3.337   4.104  13.159
68641SOL    HW1 7820   3.359   4.032  13.100
68641SOL    HW2 7821   3.366   4.183  13.113
68642SOL     OW 7822   0.052   2.656   6.553
68642SOL    HW1 7823  14.850   2.699   6.521
68642SOL    HW2 7824   0.096   2.723   6.606
68643SOL     OW 7825   4.781   6.893   7.191
68643SOL    HW1 7826   4.841   6.967   7.202
68643SOL    HW2 7827   4.768   6.860   7.280
68644SOL     OW 7828  10.892   9.381  13.744
68644SOL    HW1 7829  10.929   9.311  13.691
68644SOL    HW2 7830  10.873   9.340  13.828
68645SOL     OW 7831   8.272  12.951  10.284
68645SOL    HW1 7832   8.221  13.009  10.228
68645SOL    HW2 7833   8.335  12.908  10.225
68646SOL     OW 7834   6.474   6.358   2.012
68646SOL    HW1 7835   6.529   6.381   2.087
68646SOL    HW2 7836   6.520   6.397   1.937
68647SOL     OW 7837  14.430  13.680  13.228
68647SOL    HW1 7838  14.396  13.686  13.139
68647SOL    HW2 7839  14.352  13.688  13.284
68648SOL     OW 7840   1.380   5.784   5.199
68648SOL    HW1 7841   1.387   5.714   5.135
68648SOL    HW2 7842   1.287   5.792   5.217
68649SOL     OW 7843  14.743   0.328   1.791
68649SOL    HW1 7844  14.676   0.357   1.729
68649SOL    HW2 7845  14.697   0.272   1.853
68650SOL     OW 7846   9.348  11.948   2.920
68650SOL    HW1 7847   9.277  11.971   2.860
68650SOL    HW2 7848   9.403  11.887   2.870
68651SOL     OW 7849   0.540   8.128   4.150
68651SOL    HW1 7850   0.597   8.107   4.076
68651SOL    HW2 7851   0.480   8.054   4.156
68652SOL     OW 7852  13.591  12.790  10.613
68652SOL    HW1 7853  13.496  12.802  10.605
68652SOL    HW2 7854  13.603  12.754  10.701
68653SOL     OW 7855  14.421   9.154  11.589
68653SOL    HW1 7856  14.342   9.161  11.642
68653SOL    HW2 7857  14.490   9.134  11.651
68654SOL     OW 7858   9.594  11.128  10.934
68654SOL    HW1 7859   9.655  11.075  10.984
68654SOL    HW2 7860   9.586  11.210  10.984
68655SOL     OW 7861   2.506   9.666   9.167
68655SOL    HW1 7862   2.594   9.635   9.144
68655SOL    HW2 7863   2.474   9.602   9.231
68656SOL     OW 7864   9.286  12.621  10.884
68656SOL    HW1 7865   9.265  12.713  10.868
68656SOL    HW2 7866   9.370  12.608  10.841
68657SOL     OW 7867   6.765  10.356   3.135
68657SOL    HW1 7868   6.839  10.344   3.075
68657SOL    HW2 7869   6.745  10.449   3.129
68658SOL     OW 7870   8.511   4.762  14.286
68658SOL    HW1 7871   8.524   4.785  14.378
68658SOL    HW2 7872   8.473   4.841  14.247
68659SOL     OW 7873  13.929  13.995   0.965
68659SOL    HW1 7874  13.873  13.921   0.989
68659SOL    HW2 7875  13.898  14.021   0.878
68660SOL     OW 7876  10.435   1.152  11.469
68660SOL    HW1 7877  10.450   1.073  11.417
68660SOL    HW2 7878  10.503   1.213  11.441
68661SOL     OW 7879  10.523   2.654   2.217
68661SOL    HW1 7880  10.456   2.587   2.209
68661SOL    HW2 7881  10.481   2.725   2.266
68662SOL     OW 7882   6.197   4.265   4.687
68662SOL    HW1 7883   6.230   4.194   4.742
68662SOL    HW2 7884   6.193   4.341   4.746
68663SOL     OW 7885  12.935  11.320  11.500
68663SOL    HW1 7886  12.932  11.262  11.423
68663SOL    HW2 7887  12.845  11.323  11.531
68664SOL     OW 7888   5.462   1.102   2.059
68664SOL    HW1 7889   5.511   1.155   2.122
68664SOL    HW2 7890   5.398   1.054   2.111
68665SOL     OW 7891   2.971  13.024   2.952
68665SOL    HW1 7892   2.891  12.984   2.984
68665SOL    HW2 7893   2.950  13.117   2.945
68666SOL     OW 7894  12.896  14.759   9.558
68666SOL    HW1 7895  12.835  14.788   9.491
68666SOL    HW2 7896  12.975  14.733   9.509
68667SOL     OW 7897  10.792   2.602   2.569
68667SOL    HW1 7898  10.835   2.673   2.521
68667SOL    HW2 7899  10.715   2.581   2.517
68668SOL     OW 7900   2.398   2.541   3.196
68668SOL    HW1 7901   2.313   2.523   3.155
68668SOL    HW2 7902   2.447   2.590   3.129
68669SOL     OW 7903  11.007   1.296  14.039
68669SOL    HW1 7904  11.060   1.303  13.959
68669SOL    HW2 7905  10.996   1.386  14.069
68670SOL     OW 7906   8.257   2.768   4.514
68670SOL    HW1 7907   8.168   2.742   4.494
68670SOL    HW2 7908   8.283   2.712   4.587
68671SOL     OW 7909   9.747   7.831  11.252
68671SOL    HW1 7910   9.770   7.756  11.307
68671SOL    HW2 7911   9.677   7.800  11.196
68672SOL     OW 7912   9.415  10.201   6.885
68672SOL    HW1 7913   9.458  10.126   6.925
68672SOL    HW2 7914   9.486  10.264   6.869
68673SOL     OW 7915   1.944   9.614   3.644
68673SOL    HW1 7916   1.940   9.646   3.734
68673SOL    HW2 7917   1.854   9.586   3.625
68674SOL     OW 7918  11.315   7.249   4.912
68674SOL    HW1 7919  11.283   7.315   4.973
68674SOL    HW2 7920  11.358   7.299   4.843
68675SOL     OW 7921  10.145  14.452   8.009
68675SOL    HW1 7922  10.087  14.513   8.054
68675SOL    HW2 7923  10.178  14.394   8.078
68676SOL     OW 7924  13.432  14.359   4.898
68676SOL    HW1 7925  13.360  14.333   4.840
68676SOL    HW2 7926  13.395  14.348   4.986
68677SOL     OW 7927  12.493   1.861  13.107
68677SOL    HW1 7928  12.534   1.795  13.162
68677SOL    HW2 7929  12.565   1.903  13.061
68678SOL     OW 7930   0.422   4.832   5.701
68678SOL    HW1 7931   0.433   4.877   5.617
68678SOL    HW2 7932   0.412   4.740   5.678
68679SOL     OW 7933   1.791  13.487   2.571
68679SOL    HW1 7934   1.705  13.525   2.553
68679SOL    HW2 7935   1.773  13.409   2.622
68680SOL     OW 7936  14.660   9.782  14.296
68680SOL    HW1 7937  14.658   9.734  14.379
68680SOL    HW2 7938  14.735   9.747  14.250
68681SOL     OW 7939   9.392  14.187   3.227
68681SOL    HW1 7940   9.314  14.177   3.173
68681SOL    HW2 7941   9.450  14.117   3.200
68682SOL     OW 7942   7.977   8.430  11.926
68682SOL    HW1 7943   7.953   8.337  11.928
68682SOL    HW2 7944   8.071   8.430  11.947
68683SOL     OW 7945   1.656   7.650   4.902
68683SOL    HW1 7946   1.714   7.584   4.941
68683SOL    HW2 7947   1.617   7.694   4.977
68684SOL     OW 7948   1.183  12.407   0.761
68684SOL    HW1 7949   1.260  12.448   0.721
68684SOL    HW2 7950   1.197  12.416   0.855
68685SOL     OW 7951   7.004   4.752   8.337
68685SOL    HW1 7952   7.070   4.807   8.294
68685SOL    HW2 7953   6.995   4.675   8.280
68686SOL     OW 7954   7.859   2.197  14.158
68686SOL    HW1 7955   7.868   2.260  14.229
68686SOL    HW2 7956   7.788   2.232  14.104
68687SOL     OW 7957   7.263  12.904   6.196
68687SOL    HW1 7958   7.191  12.851   6.160
68687SOL    HW2 7959   7.257  12.892   6.290
68688SOL     OW 7960   6.995   5.322   6.233
68688SOL    HW1 7961   6.910   5.339   6.194
68688SOL    HW2 7962   6.981   5.247   6.291
68689SOL     OW 7963   6.188  10.531   1.685
68689SOL    HW1 7964   6.120  10.463   1.680
68689SOL    HW2 7965   6.146  10.609   1.650
68690SOL     OW 7966   6.672   9.781   7.137
68690SOL    HW1 7967   6.614   9.776   7.061
68690SOL    HW2 7968   6.732   9.853   7.116
68691SOL     OW 7969   5.091  14.317   6.502
68691SOL    HW1 7970   5.161  14.288   6.443
68691SOL    HW2 7971   5.069  14.405   6.471
68692SOL     OW 7972   1.398   8.630   9.959
68692SOL    HW1 7973   1.390   8.617   9.865
68692SOL    HW2 7974   1.348   8.710   9.976
68693SOL     OW 7975   4.920  14.397   4.463
68693SOL    HW1 7976   4.889  14.480   4.427
68693SOL    HW2 7977   4.982  14.364   4.398
68694SOL     OW 7978   7.245   6.196   7.810
68694SOL    HW1 7979   7.227   6.112   7.769
68694SOL    HW2 7980   7.292   6.174   7.891
68695SOL     OW 7981   5.624   7.795   5.138
68695SOL    HW1 7982   5.634   7.771   5.046
68695SOL    HW2 7983   5.588   7.716   5.180
68696SOL     OW 7984   1.724   4.114  14.531
68696SOL    HW1 7985   1.677   4.185  14.486
68696SOL    HW2 7986   1.808   4.109  14.487
68697SOL     OW 7987  12.807   0.871  13.016
68697SOL    HW1 7988  12.855   0.791  13.038
68697SOL    HW2 7989  12.746   0.882  13.089
68698SOL     OW 7990   1.667   6.445   9.514
68698SOL    HW1 7991   1.754   6.477   9.493
68698SOL    HW2 7992   1.607   6.501   9.464
68699SOL     OW 7993   6.987   7.555   5.501
68699SOL    HW1 7994   6.910   7.569   5.446
68699SOL    HW2 7995   7.018   7.643   5.521
68700SOL     OW 7996   5.572   5.577  12.194
68700SOL    HW1 7997   5.571   5.597  12.101
68700SOL    HW2 7998   5.483   5.595  12.224
68701SOL     OW 7999   5.318  12.333  13.001
68701SOL    HW1 8000   5.339  12.423  13.027
68701SOL    HW2 8001   5.239  12.342  12.947
68702SOL     OW 8002   0.213   0.658   1.197
68702SOL    HW1 8003   0.198   0.573   1.156
68702SOL    HW2 8004   0.197   0.643   1.290
68703SOL     OW 8005  14.142  11.039   4.346
68703SOL    HW1 8006  14.172  11.101   4.412
68703SOL    HW2 8007  14.096  10.971   4.395
68704SOL     OW 8008   3.628   2.702   1.612
68704SOL    HW1 8009   3.622   2.650   1.532
68704SOL    HW2 8010   3.677   2.781   1.587
68705SOL     OW 8011  10.477   1.993   3.306
68705SOL    HW1 8012  10.560   2.019   3.346
68705SOL    HW2 8013  10.436   2.075   3.279
68706SOL     OW 8014   5.108  12.163   5.777
68706SOL    HW1 8015   5.100  12.217   5.856
68706SOL    HW2 8016   5.175  12.208   5.725
68707SOL     OW 8017  10.614   0.504   5.889
68707SOL    HW1 8018  10.586   0.596   5.897
68707SOL    HW2 8019  10.586   0.463   5.971
68708SOL     OW 8020   7.978   4.937   5.976
68708SOL    HW1 8021   7.905   4.888   6.013
68708SOL    HW2 8022   8.043   4.940   6.046
68709SOL     OW 8023   4.168   8.301  14.151
68709SOL    HW1 8024   4.142   8.324  14.062
68709SOL    HW2 8025   4.261   8.326  14.157
68710SOL     OW 8026   5.103  11.117   3.537
68710SOL    HW1 8027   5.051  11.176   3.483
68710SOL    HW2 8028   5.170  11.174   3.577
68711SOL     OW 8029   7.051  14.499   3.578
68711SOL    HW1 8030   7.132  14.452   3.560
68711SOL    HW2 8031   7.061  14.582   3.532
68712SOL     OW 8032   3.506   5.091   0.585
68712SOL    HW1 8033   3.578   5.044   0.629
68712SOL    HW2 8034   3.473   5.151   0.652
68713SOL     OW 8035  11.369   2.811  11.376
68713SOL    HW1 8036  11.295   2.750  11.373
68713SOL    HW2 8037  11.408   2.805  11.289
68714SOL     OW 8038  12.393  13.575  13.200
68714SOL    HW1 8039  12.475  13.626  13.205
68714SOL    HW2 8040  12.406  13.517  13.124
68715SOL     OW 8041  10.411   5.492   6.819
68715SOL    HW1 8042  10.383   5.515   6.731
68715SOL    HW2 8043  10.359   5.415   6.841
68716SOL     OW 8044  12.367  13.143   5.740
68716SOL    HW1 8045  12.313  13.126   5.663
68716SOL    HW2 8046  12.337  13.080   5.805
68717SOL     OW 8047   0.318   6.745  13.088
68717SOL    HW1 8048   0.397   6.798  13.104
68717SOL    HW2 8049   0.245   6.801  13.114
68718SOL     OW 8050   4.185   8.511   8.522
68718SOL    HW1 8051   4.263   8.541   8.568
68718SOL    HW2 8052   4.127   8.479   8.592
68719SOL     OW 8053  11.822   1.028   5.287
68719SOL    HW1 8054  11.742   0.981   5.265
68719SOL    HW2 8055  11.844   1.078   5.209
68720SOL     OW 8056   5.467  11.109   9.366
68720SOL    HW1 8057   5.455  11.062   9.449
68720SOL    HW2 8058   5.559  11.137   9.367
68721SOL     OW 8059   7.729  12.639  12.032
68721SOL    HW1 8060   7.677  12.635  12.112
68721SOL    HW2 8061   7.735  12.548  12.003
68722SOL     OW 8062   1.589  10.801  12.701
68722SOL    HW1 8063   1.522  10.861  12.670
68722SOL    HW2 8064   1.566  10.717  12.662
68723SOL     OW 8065   1.666   2.469   6.158
68723SOL    HW1 8066   1.700   2.390   6.116
68723SOL    HW2 8067   1.659   2.446   6.251
68724SOL     OW 8068   7.581   6.606   4.098
68724SOL    HW1 8069   7.601   6.591   4.005
68724SOL    HW2 8070   7.485   6.608   4.101
68725SOL     OW 8071   7.110  12.120   4.627
68725SOL    HW1 8072   7.097  12.166   4.710
68725SOL    HW2 8073   7.025  12.125   4.584
68726SOL     OW 8074  10.846  10.252   0.410
68726SOL    HW1 8075  10.807  10.308   0.343
68726SOL    HW2 8076  10.807  10.166   0.394
68727SOL     OW 8077  11.587   4.719   3.890
68727SOL    HW1 8078  11.619   4.799   3.932
68727SOL    HW2 8079  11.493   4.717   3.912
68728SOL     OW 8080   3.499   7.962   6.376
68728SOL    HW1 8081   3.542   7.951   6.291
68728SOL    HW2 8082   3.481   8.055   6.382
68729SOL     OW 8083  14.039  12.962   9.402
68729SOL    HW1 8084  14.127  12.996   9.388
68729SOL    HW2 8085  14.016  12.989   9.490
68730SOL     OW 8086   8.938   3.686  13.856
68730SOL    HW1 8087   8.971   3.764  13.900
68730SOL    HW2 8088   8.920   3.624  13.927
68731SOL     OW 8089   4.961  11.624   3.982
68731SOL    HW1 8090   5.050  11.591   3.994
68731SOL    HW2 8091   4.945  11.615   3.888
68732SOL     OW 8092  13.463   5.146   1.729
68732SOL    HW1 8093  13.436   5.218   1.673
68732SOL    HW2 8094  13.418   5.069   1.693
68733SOL     OW 8095   0.042  14.712   2.806
68733SOL    HW1 8096  14.825  14.723   2.812
68733SOL    HW2 8097   0.064  14.653   2.878
68734SOL     OW 8098   8.862   1.120   6.585
68734SOL    HW1 8099   8.888   1.116   6.493
68734SOL    HW2 8100   8.848   1.213   6.602
68735SOL     OW 8101   2.238  10.375   7.095
68735SOL    HW1 8102   2.237  10.399   7.187
68735SOL    HW2 8103   2.291  10.295   7.091
68736SOL     OW 8104   4.159   6.442   6.395
68736SOL    HW1 8105   4.211   6.512   6.435
68736SOL    HW2 8106   4.220   6.396   6.338
68737SOL     OW 8107   4.699  14.842  10.870
68737SOL    HW1 8108   4.701  14.763  10.924
68737SOL    HW2 8109   4.716  14.811  10.781
68738SOL     OW 8110   8.915   6.587   2.297
68738SOL    HW1 8111   8.921   6.492   2.303
68738SOL    HW2 8112   9.005   6.615   2.280
68739SOL     OW 8113  11.348   8.860   4.716
68739SOL    HW1 8114  11.273   8.800   4.717
68739SOL    HW2 8115  11.308   8.947   4.714
68740SOL     OW 8116   0.713   9.858   1.126
68740SOL    HW1 8117   0.656   9.816   1.190
68740SOL    HW2 8118   0.655   9.882   1.054
68741SOL     OW 8119   2.923   0.893   3.362
68741SOL    HW1 8120   2.950   0.841   3.286
68741SOL    HW2 8121   2.827   0.889   3.361
68742SOL     OW 8122   6.178  12.060   3.023
68742SOL    HW1 8123   6.180  12.148   3.060
68742SOL    HW2 8124   6.094  12.056   2.976
68743SOL     OW 8125  14.563   2.774   6.505
68743SOL    HW1 8126  14.493   2.723   6.465
68743SOL    HW2 8127  14.623   2.793   6.433
68744SOL     OW 8128  14.829  10.580   9.252
68744SOL    HW1 8129  14.846  10.491   9.284
68744SOL    HW2 8130  14.779  10.567   9.172
68745SOL     OW 8131   2.224   4.044  10.681
68745SOL    HW1 8132   2.140   4.047  10.728
68745SOL    HW2 8133   2.260   4.132  10.690
68746SOL     OW 8134   3.874  11.391   0.403
68746SOL    HW1 8135   3.929  11.454   0.356
68746SOL    HW2 8136   3.819  11.444   0.460
68747SOL     OW 8137   3.403   4.407  11.763
68747SOL    HW1 8138   3.345   4.345  11.807
68747SOL    HW2 8139   3.392   4.488  11.813
68748SOL     OW 8140   4.552  11.368   1.896
68748SOL    HW1 8141   4.627  11.362   1.837
68748SOL    HW2 8142   4.533  11.278   1.922
68749SOL     OW 8143  10.508   2.195  12.012
68749SOL    HW1 8144  10.429   2.173  11.964
68749SOL    HW2 8145  10.512   2.290  12.012
68750SOL     OW 8146   0.413  11.324   1.967
68750SOL    HW1 8147   0.468  11.303   1.891
68750SOL    HW2 8148   0.468  11.303   2.043
68751SOL     OW 8149   0.600   6.949   7.841
68751SOL    HW1 8150   0.693   6.929   7.830
68751SOL    HW2 8151   0.569   6.885   7.904
68752SOL     OW 8152   9.859   7.865  13.234
68752SOL    HW1 8153   9.896   7.803  13.297
68752SOL    HW2 8154   9.765   7.845  13.233
68753SOL     OW 8155  11.080   0.521   9.576
68753SOL    HW1 8156  11.146   0.589   9.590
68753SOL    HW2 8157  11.070   0.516   9.481
68754SOL     OW 8158   3.564   1.246  13.284
68754SOL    HW1 8159   3.578   1.263  13.378
68754SOL    HW2 8160   3.631   1.182  13.261
68755SOL     OW 8161   4.061   2.734   0.292
68755SOL    HW1 8162   4.079   2.824   0.321
68755SOL    HW2 8163   4.021   2.692   0.368
68756SOL     OW 8164  11.388   2.704   7.247
68756SOL    HW1 8165  11.342   2.736   7.325
68756SOL    HW2 8166  11.438   2.780   7.216
68757SOL     OW 8167   1.352   1.617   8.096
68757SOL    HW1 8168   1.317   1.672   8.027
68757SOL    HW2 8169   1.276   1.572   8.132
68758SOL     OW 8170   9.758   7.328   1.976
68758SOL    HW1 8171   9.675   7.369   1.998
68758SOL    HW2 8172   9.824   7.379   2.023
68759SOL     OW 8173   8.684   6.984   2.434
68759SOL    HW1 8174   8.620   7.019   2.372
68759SOL    HW2 8175   8.635   6.919   2.485
68760SOL     OW 8176   6.793   6.966   5.336
68760SOL    HW1 8177   6.797   7.049   5.383
68760SOL    HW2 8178   6.840   6.982   5.254
68761SOL     OW 8179   4.184  12.572  11.115
68761SOL    HW1 8180   4.150  12.597  11.201
68761SOL    HW2 8181   4.261  12.519  11.134
68762SOL     OW 8182   1.664  10.611  13.028
68762SOL    HW1 8183   1.737  10.651  12.982
68762SOL    HW2 8184   1.703  10.577  13.109
68763SOL     OW 8185  14.103   5.589   2.337
68763SOL    HW1 8186  14.056   5.667   2.367
68763SOL    HW2 8187  14.080   5.580   2.245
68764SOL     OW 8188  12.274   1.335  13.725
68764SOL    HW1 8189  12.321   1.395  13.782
68764SOL    HW2 8190  12.301   1.248  13.755
68765SOL     OW 8191   5.248   0.451   2.568
68765SOL    HW1 8192   5.222   0.500   2.490
68765SOL    HW2 8193   5.168   0.439   2.617
68766SOL     OW 8194  12.998   7.715   0.585
68766SOL    HW1 8195  12.946   7.789   0.554
68766SOL    HW2 8196  13.076   7.716   0.528
68767SOL     OW 8197  12.197   6.707   4.149
68767SOL    HW1 8198  12.171   6.618   4.123
68767SOL    HW2 8199  12.141   6.764   4.098
68768SOL     OW 8200   5.058  14.252  13.908
68768SOL    HW1 8201   4.973  14.271  13.867
68768SOL    HW2 8202   5.041  14.260  14.002
68769SOL     OW 8203   1.707   4.278  12.168
68769SOL    HW1 8204   1.733   4.259  12.258
68769SOL    HW2 8205   1.772   4.341  12.138
68770SOL     OW 8206   2.275   9.687   7.790
68770SOL    HW1 8207   2.335   9.666   7.719
68770SOL    HW2 8208   2.330   9.689   7.868
68771SOL     OW 8209   0.362   8.642   4.142
68771SOL    HW1 8210   0.301   8.603   4.079
68771SOL    HW2 8211   0.418   8.569   4.169
68772SOL     OW 8212  10.173   2.614   7.407
68772SOL    HW1 8213  10.194   2.699   7.369
68772SOL    HW2 8214  10.130   2.635   7.490
68773SOL     OW 8215   6.455   7.248   3.528
68773SOL    HW1 8216   6.545   7.216   3.522
68773SOL    HW2 8217   6.452   7.294   3.612
68774SOL     OW 8218  12.150  13.644  11.348
68774SOL    HW1 8219  12.126  13.559  11.385
68774SOL    HW2 8220  12.148  13.703  11.423
68775SOL     OW 8221   2.548  13.252   2.228
68775SOL    HW1 8222   2.589  13.178   2.274
68775SOL    HW2 8223   2.466  13.266   2.274
68776SOL     OW 8224   8.136   9.566   7.843
68776SOL    HW1 8225   8.104   9.570   7.933
68776SOL    HW2 8226   8.059   9.540   7.792
68777SOL     OW 8227  10.695  12.413  13.701
68777SOL    HW1 8228  10.739  12.435  13.619
68777SOL    HW2 8229  10.766  12.393  13.762
68778SOL     OW 8230  14.196  13.315  11.252
68778SOL    HW1 8231  14.172  13.231  11.214
68778SOL    HW2 8232  14.165  13.380  11.190
68779SOL     OW 8233  10.881   1.630   3.060
68779SOL    HW1 8234  10.837   1.643   2.976
68779SOL    HW2 8235  10.848   1.701   3.116
68780SOL     OW 8236  10.075   8.504   0.832
68780SOL    HW1 8237  10.120   8.496   0.748
68780SOL    HW2 8238   9.984   8.519   0.808
68781SOL     OW 8239   2.473   4.173   5.373
68781SOL    HW1 8240   2.439   4.087   5.399
68781SOL    HW2 8241   2.476   4.169   5.277
68782SOL     OW 8242   4.516   1.635  14.586
68782SOL    HW1 8243   4.535   1.561  14.644
68782SOL    HW2 8244   4.510   1.710  14.645
68783SOL     OW 8245   2.381   7.082  13.980
68783SOL    HW1 8246   2.447   7.013  13.982
68783SOL    HW2 8247   2.427   7.160  14.013
68784SOL     OW 8248   2.046   1.620  11.565
68784SOL    HW1 8249   2.115   1.555  11.550
68784SOL    HW2 8250   1.997   1.586  11.639
68785SOL     OW 8251   2.327   1.094   3.273
68785SOL    HW1 8252   2.380   1.049   3.208
68785SOL    HW2 8253   2.349   1.187   3.262
68786SOL     OW 8254   8.268  13.472  12.198
68786SOL    HW1 8255   8.237  13.548  12.150
68786SOL    HW2 8256   8.241  13.397  12.144
68787SOL     OW 8257   8.543   2.252   4.619
68787SOL    HW1 8258   8.627   2.212   4.596
68787SOL    HW2 8259   8.479   2.205   4.567
68788SOL     OW 8260  11.621   8.973   9.940
68788SOL    HW1 8261  11.586   8.954   9.853
68788SOL    HW2 8262  11.595   9.063   9.958
68789SOL     OW 8263   2.172   2.803   1.664
68789SOL    HW1 8264   2.157   2.743   1.591
68789SOL    HW2 8265   2.258   2.778   1.698
68790SOL     OW 8266   6.383  13.647   1.396
68790SOL    HW1 8267   6.432  13.586   1.340
68790SOL    HW2 8268   6.444  13.667   1.467
68791SOL     OW 8269   5.233   0.854  10.009
68791SOL    HW1 8270   5.152   0.852   9.958
68791SOL    HW2 8271   5.209   0.820  10.095
68792SOL     OW 8272   8.038   1.512  12.501
68792SOL    HW1 8273   7.946   1.494  12.519
68792SOL    HW2 8274   8.083   1.483  12.580
68793SOL     OW 8275  10.583   0.163  13.634
68793SOL    HW1 8276  10.606   0.245  13.591
68793SOL    HW2 8277  10.599   0.180  13.727
68794SOL     OW 8278   5.682   6.427   9.629
68794SOL    HW1 8279   5.620   6.472   9.686
68794SOL    HW2 8280   5.723   6.361   9.684
68795SOL     OW 8281   6.499   6.252  12.970
68795SOL    HW1 8282   6.582   6.256  13.018
68795SOL    HW2 8283   6.518   6.198  12.894
68796SOL     OW 8284  10.210  13.913   9.344
68796SOL    HW1 8285  10.147  13.870   9.286
68796SOL    HW2 8286  10.206  13.862   9.425
68797SOL     OW 8287  13.005   2.283  13.016
68797SOL    HW1 8288  13.066   2.213  12.993
68797SOL    HW2 8289  12.956   2.298  12.935
68798SOL     OW 8290   9.090  10.984   4.110
68798SOL    HW1 8291   9.131  11.059   4.153
68798SOL    HW2 8292   9.163  10.933   4.076
68799SOL     OW 8293   4.064   5.129   0.408
68799SOL    HW1 8294   4.109   5.087   0.482
68799SOL    HW2 8295   3.990   5.071   0.389
68800SOL     OW 8296  13.205   7.797  12.868
68800SOL    HW1 8297  13.192   7.842  12.784
68800SOL    HW2 8298  13.164   7.711  12.854
68801SOL     OW 8299   0.625   4.264   0.299
68801SOL    HW1 8300   0.718   4.268   0.320
68801SOL    HW2 8301   0.620   4.291   0.207
68802SOL     OW 8302  12.147  12.647  11.572
68802SOL    HW1 8303  12.120  12.555  11.576
68802SOL    HW2 8304  12.123  12.683  11.658
68803SOL     OW 8305   5.514   1.217  14.814
68803SOL    HW1 8306   5.573   1.142  14.815
68803SOL    HW2 8307   5.565   1.289  14.851
68804SOL     OW 8308   6.545   7.636  13.042
68804SOL    HW1 8309   6.577   7.661  13.128
68804SOL    HW2 8310   6.551   7.540  13.042
68805SOL     OW 8311   8.175   4.246   4.287
68805SOL    HW1 8312   8.209   4.161   4.258
68805SOL    HW2 8313   8.247   4.284   4.337
68806SOL     OW 8314  13.953   9.565  12.799
68806SOL    HW1 8315  13.965   9.480  12.842
68806SOL    HW2 8316  13.938   9.542  12.707
68807SOL     OW 8317   4.723  11.467   3.107
68807SOL    HW1 8318   4.706  11.410   3.182
68807SOL    HW2 8319   4.655  11.444   3.044
68808SOL     OW 8320   0.818   4.512   7.318
68808SOL    HW1 8321   0.785   4.508   7.228
68808SOL    HW2 8322   0.912   4.495   7.310
68809SOL     OW 8323   1.758   1.495  12.010
68809SOL    HW1 8324   1.713   1.505  12.094
68809SOL    HW2 8325   1.720   1.416  11.972
68810SOL     OW 8326   1.138  13.218  11.479
68810SOL    HW1 8327   1.142  13.127  11.509
68810SOL    HW2 8328   1.211  13.227  11.418
68811SOL     OW 8329  12.464  13.513  10.364
68811SOL    HW1 8330  12.378  13.553  10.375
68811SOL    HW2 8331  12.524  13.587  10.357
68812SOL     OW 8332  14.198   5.969   4.316
68812SOL    HW1 8333  14.125   5.909   4.302
68812SOL    HW2 8334  14.156   6.053   4.336
68813SOL     OW 8335   2.141   7.948  12.540
68813SOL    HW1 8336   2.123   7.861  12.506
68813SOL    HW2 8337   2.061   7.973  12.586
68814SOL     OW 8338   5.215   4.890   7.023
68814SOL    HW1 8339   5.157   4.817   7.001
68814SOL    HW2 8340   5.296   4.872   6.975
68815SOL     OW 8341   0.197   8.951   7.250
68815SOL    HW1 8342   0.246   8.945   7.333
68815SOL    HW2 8343   0.116   8.997   7.274
68816SOL     OW 8344   0.872   3.418   5.014
68816SOL    HW1 8345   0.912   3.380   4.936
68816SOL    HW2 8346   0.795   3.364   5.030
68817SOL     OW 8347   0.276   3.808  11.346
68817SOL    HW1 8348   0.247   3.754  11.420
68817SOL    HW2 8349   0.257   3.898  11.374
68818SOL     OW 8350   6.911   0.494   9.970
68818SOL    HW1 8351   6.999   0.511   9.935
68818SOL    HW2 8352   6.866   0.447   9.900
68819SOL     OW 8353  12.180   0.977   8.775
68819SOL    HW1 8354  12.189   1.072   8.788
68819SOL    HW2 8355  12.095   0.955   8.815
68820SOL     OW 8356   9.567  10.863   7.677
68820SOL    HW1 8357   9.652  10.880   7.637
68820SOL    HW2 8358   9.587  10.834   7.766
68821SOL     OW 8359  11.691   6.867   5.829
68821SOL    HW1 8360  11.757   6.916   5.879
68821SOL    HW2 8361  11.607   6.896   5.865
68822SOL     OW 8362  10.714   6.047  13.247
68822SOL    HW1 8363  10.695   6.074  13.337
68822SOL    HW2 8364  10.798   6.002  13.253
68823SOL     OW 8365   4.536   4.976   8.824
68823SOL    HW1 8366   4.527   5.072   8.822
68823SOL    HW2 8367   4.552   4.952   8.732
68824SOL     OW 8368  12.335  11.171   5.817
68824SOL    HW1 8369  12.267  11.143   5.878
68824SOL    HW2 8370  12.332  11.106   5.747
68825SOL     OW 8371  13.233  11.271  10.296
68825SOL    HW1 8372  13.320  11.243  10.270
68825SOL    HW2 8373  13.230  11.364  10.277
68826SOL     OW 8374  12.381   5.766   5.465
68826SOL    HW1 8375  12.312   5.702   5.445
68826SOL    HW2 8376  12.335   5.840   5.504
68827SOL     OW 8377   1.744  11.923  11.226
68827SOL    HW1 8378   1.781  11.967  11.303
68827SOL    HW2 8379   1.656  11.896  11.254
68828SOL     OW 8380   1.410   7.308   1.578
68828SOL    HW1 8381   1.401   7.380   1.640
68828SOL    HW2 8382   1.328   7.260   1.584
68829SOL     OW 8383   4.311   5.801   7.272
68829SOL    HW1 8384   4.308   5.888   7.312
68829SOL    HW2 8385   4.284   5.815   7.181
68830SOL     OW 8386   9.860   1.693   1.229
68830SOL    HW1 8387   9.818   1.746   1.298
68830SOL    HW2 8388   9.790   1.674   1.167
68831SOL     OW 8389   4.217   6.265   8.631
68831SOL    HW1 8390   4.174   6.268   8.716
68831SOL    HW2 8391   4.309   6.247   8.651
68832SOL     OW 8392   2.763   3.233  11.694
68832SOL    HW1 8393   2.729   3.156  11.648
68832SOL    HW2 8394   2.830   3.197  11.753
68833SOL     OW 8395   2.804  11.305   4.873
68833SOL    HW1 8396   2.845  11.274   4.792
68833SOL    HW2 8397   2.761  11.227   4.909
68834SOL     OW 8398  10.156   1.255  10.114
68834SOL    HW1 8399  10.232   1.312  10.106
68834SOL    HW2 8400  10.192   1.167  10.119
68835SOL     OW 8401   3.982   0.000   8.581
68835SOL    HW1 8402   3.975   0.047   8.497
68835SOL    HW2 8403   4.047  14.809   8.564
68836SOL     OW 8404  13.377   0.333  10.494
68836SOL    HW1 8405  13.407   0.310  10.581
68836SOL    HW2 8406  13.328   0.414  10.506
68837SOL     OW 8407   0.234  14.069   9.825
68837SOL    HW1 8408   0.154  14.080   9.876
68837SOL    HW2 8409   0.245  13.974   9.818
68838SOL     OW 8410  10.428  14.324   9.580
68838SOL    HW1 8411  10.435  14.248   9.638
68838SOL    HW2 8412  10.388  14.289   9.500
68839SOL     OW 8413   7.073   2.863   6.720
68839SOL    HW1 8414   7.002   2.909   6.763
68839SOL    HW2 8415   7.095   2.918   6.644
68840SOL     OW 8416   6.093   0.714   5.575
68840SOL    HW1 8417   5.998   0.721   5.573
68840SOL    HW2 8418   6.110   0.620   5.565
68841SOL     OW 8419   9.510   8.873  14.298
68841SOL    HW1 8420   9.506   8.897  14.391
68841SOL    HW2 8421   9.452   8.797  14.291
68842SOL     OW 8422   5.942   0.074  13.539
68842SOL    HW1 8423   5.871   0.130  13.567
68842SOL    HW2 8424   5.906   0.023  13.466
68843SOL     OW 8425   5.313  12.839  12.085
68843SOL    HW1 8426   5.283  12.852  12.175
68843SOL    HW2 8427   5.259  12.766  12.053
68844SOL     OW 8428   1.384   1.456   7.149
68844SOL    HW1 8429   1.430   1.539   7.139
68844SOL    HW2 8430   1.297   1.481   7.181
68845SOL     OW 8431   6.403   7.886   1.998
68845SOL    HW1 8432   6.468   7.895   1.928
68845SOL    HW2 8433   6.376   7.795   1.995
68846SOL     OW 8434   8.769  13.688   9.391
68846SOL    HW1 8435   8.864  13.695   9.391
68846SOL    HW2 8436   8.738  13.778   9.379
68847SOL     OW 8437   1.698   7.116   2.460
68847SOL    HW1 8438   1.734   7.125   2.371
68847SOL    HW2 8439   1.681   7.022   2.470
68848SOL     OW 8440   1.663   1.698   3.161
68848SOL    HW1 8441   1.655   1.749   3.081
68848SOL    HW2 8442   1.631   1.756   3.230
68849SOL     OW 8443   5.366   5.227  10.176
68849SOL    HW1 8444   5.325   5.222  10.262
68849SOL    HW2 8445   5.425   5.152  10.173
68850SOL     OW 8446  10.826   6.439   1.916
68850SOL    HW1 8447  10.792   6.499   1.849
68850SOL    HW2 8448  10.756   6.376   1.929
68851SOL     OW 8449   8.308   4.166  12.929
68851SOL    HW1 8450   8.361   4.186  13.006
68851SOL    HW2 8451   8.228   4.126  12.965
68852SOL     OW 8452   7.100   6.937   6.402
68852SOL    HW1 8453   7.059   6.863   6.356
68852SOL    HW2 8454   7.156   6.895   6.467
68853SOL     OW 8455  10.281   1.030   6.290
68853SOL    HW1 8456  10.236   1.056   6.371
68853SOL    HW2 8457  10.305   1.113   6.249
68854SOL     OW 8458   2.943   9.492   0.765
68854SOL    HW1 8459   2.956   9.583   0.792
68854SOL    HW2 8460   2.976   9.489   0.675
68855SOL     OW 8461   2.205  14.460   7.109
68855SOL    HW1 8462   2.163  14.374   7.113
68855SOL    HW2 8463   2.143  14.515   7.060
68856SOL     OW 8464   5.330   3.649  13.012
68856SOL    HW1 8465   5.290   3.566  12.985
68856SOL    HW2 8466   5.401   3.622  13.070
68857SOL     OW 8467   9.235  13.095   1.291
68857SOL    HW1 8468   9.234  13.025   1.226
68857SOL    HW2 8469   9.226  13.175   1.240
68858SOL     OW 8470   7.737  10.822   7.111
68858SOL    HW1 8471   7.756  10.899   7.058
68858SOL    HW2 8472   7.783  10.836   7.193
68859SOL     OW 8473  11.325   6.311  13.231
68859SOL    HW1 8474  11.385   6.255  13.182
68859SOL    HW2 8475  11.375   6.338  13.308
68860SOL     OW 8476  11.838   0.805  12.938
68860SOL    HW1 8477  11.834   0.714  12.907
68860SOL    HW2 8478  11.818   0.857  12.860
68861SOL     OW 8479  10.407  11.939   7.421
68861SOL    HW1 8480  10.471  11.954   7.491
68861SOL    HW2 8481  10.460  11.932   7.342
68862SOL     OW 8482   7.795   1.998   8.534
68862SOL    HW1 8483   7.774   2.028   8.446
68862SOL    HW2 8484   7.730   1.931   8.553
68863SOL     OW 8485   9.901  14.714   3.340
68863SOL    HW1 8486   9.923  14.631   3.298
68863SOL    HW2 8487   9.965  14.776   3.306
68864SOL     OW 8488  11.674  13.189   3.074
68864SOL    HW1 8489  11.769  13.188   3.075
68864SOL    HW2 8490  11.649  13.230   3.156
68865SOL     OW 8491   1.229   9.284  11.552
68865SOL    HW1 8492   1.293   9.219  11.583
68865SOL    HW2 8493   1.174   9.236  11.491
68866SOL     OW 8494   9.502   7.674   4.307
68866SOL    HW1 8495   9.483   7.767   4.318
68866SOL    HW2 8496   9.508   7.662   4.212
68867SOL     OW 8497   4.047  10.478  14.129
68867SOL    HW1 8498   4.098  10.505  14.206
68867SOL    HW2 8499   4.070  10.385  14.118
68868SOL     OW 8500   4.580   7.237   2.940
68868SOL    HW1 8501   4.542   7.285   2.867
68868SOL    HW2 8502   4.667   7.275   2.952
68869SOL     OW 8503  12.844  12.492   9.266
68869SOL    HW1 8504  12.839  12.576   9.312
68869SOL    HW2 8505  12.924  12.498   9.214
68870SOL     OW 8506  12.504   9.105  13.910
68870SOL    HW1 8507  12.559   9.093  13.987
68870SOL    HW2 8508  12.558   9.155  13.849
68871SOL     OW 8509  10.187  11.410   2.659
68871SOL    HW1 8510  10.127  11.336   2.654
68871SOL    HW2 8511  10.212  11.427   2.568
68872SOL     OW 8512   1.810   9.382  11.794
68872SOL    HW1 8513   1.891   9.335  11.779
68872SOL    HW2 8514   1.751   9.317  11.834
68873SOL     OW 8515   4.990   2.211   2.271
68873SOL    HW1 8516   5.049   2.137   2.253
68873SOL    HW2 8517   4.914   2.171   2.313
68874SOL     OW 8518  12.821   2.287   6.826
68874SOL    HW1 8519  12.799   2.377   6.804
68874SOL    HW2 8520  12.779   2.272   6.911
68875SOL     OW 8521   0.782   9.039   8.221
68875SOL    HW1 8522   0.817   8.961   8.178
68875SOL    HW2 8523   0.815   9.112   8.168
68876SOL     OW 8524   2.961  10.878  11.590
68876SOL    HW1 8525   2.866  10.877  11.585
68876SOL    HW2 8526   2.990  10.833  11.510
68877SOL     OW 8527  12.276   9.236  14.051
68877SOL    HW1 8528  12.203   9.194  14.096
68877SOL    HW2 8529  12.319   9.165  14.002
68878SOL     OW 8530   2.353   8.903   6.423
68878SOL    HW1 8531   2.439   8.864   6.409
68878SOL    HW2 8532   2.327   8.872   6.510
68879SOL     OW 8533   6.273   1.724   6.347
68879SOL    HW1 8534   6.213   1.786   6.389
68879SOL    HW2 8535   6.359   1.766   6.353
68880SOL     OW 8536  10.047   7.217   0.879
68880SOL    HW1 8537   9.983   7.173   0.935
68880SOL    HW2 8538  10.000   7.232   0.797
68881SOL     OW 8539   1.808  10.180  11.075
68881SOL    HW1 8540   1.719  10.164  11.045
68881SOL    HW2 8541   1.829  10.267  11.041
68882SOL     OW 8542   1.835   1.772   7.758
68882SOL    HW1 8543   1.900   1.725   7.811
68882SOL    HW2 8544   1.877   1.782   7.673
68883SOL     OW 8545   7.400  11.274   1.349
68883SOL    HW1 8546   7.371  11.197   1.397
68883SOL    HW2 8547   7.493  11.281   1.370
68884SOL     OW 8548   9.064  12.345   6.779
68884SOL    HW1 8549   9.001  12.284   6.740
68884SOL    HW2 8550   9.062  12.422   6.721
68885SOL     OW 8551   5.805  12.431   3.398
68885SOL    HW1 8552   5.811  12.507   3.341
68885SOL    HW2 8553   5.801  12.467   3.486
68886SOL     OW 8554   9.924  14.326   6.819
68886SOL    HW1 8555   9.846  14.329   6.874
68886SOL    HW2 8556   9.897  14.367   6.737
68887SOL     OW 8557   1.817   4.924   8.557
68887SOL    HW1 8558   1.830   5.004   8.506
68887SOL    HW2 8559   1.884   4.864   8.524
68888SOL     OW 8560   6.959   9.176  10.165
68888SOL    HW1 8561   6.997   9.154  10.250
68888SOL    HW2 8562   7.033   9.172  10.104
68889SOL     OW 8563   3.534   6.740   8.682
68889SOL    HW1 8564   3.616   6.770   8.643
68889SOL    HW2 8565   3.467   6.796   8.642
68890SOL     OW 8566   3.372   3.930   7.683
68890SOL    HW1 8567   3.297   3.916   7.625
68890SOL    HW2 8568   3.446   3.943   7.624
68891SOL     OW 8569   2.644  13.294  12.961
68891SOL    HW1 8570   2.685  13.332  13.039
68891SOL    HW2 8571   2.711  13.300  12.893
68892SOL     OW 8572   7.845  14.221  13.173
68892SOL    HW1 8573   7.924  14.167  13.175
68892SOL    HW2 8574   7.846  14.262  13.086
68893SOL     OW 8575   0.641  11.822   9.907
68893SOL    HW1 8576   0.644  11.908   9.947
68893SOL    HW2 8577   0.568  11.828   9.844
68894SOL     OW 8578   8.414   1.858   9.086
68894SOL    HW1 8579   8.439   1.766   9.081
68894SOL    HW2 8580   8.463   1.901   9.015
68895SOL     OW 8581  14.609   5.953   4.400
68895SOL    HW1 8582  14.675   5.986   4.462
68895SOL    HW2 8583  14.526   5.979   4.438
68896SOL     OW 8584   4.996  10.560  10.236
68896SOL    HW1 8585   4.913  10.520  10.210
68896SOL    HW2 8586   5.061  10.490  10.226
68897SOL     OW 8587   0.757  13.194  13.090
68897SOL    HW1 8588   0.744  13.101  13.070
68897SOL    HW2 8589   0.849  13.200  13.115
68898SOL     OW 8590   6.571   2.921  12.076
68898SOL    HW1 8591   6.654   2.955  12.042
68898SOL    HW2 8592   6.519   2.903  11.998
68899SOL     OW 8593   3.796   2.234  14.376
68899SOL    HW1 8594   3.873   2.228  14.432
68899SOL    HW2 8595   3.766   2.143  14.366
68900SOL     OW 8596   8.141   2.230  13.773
68900SOL    HW1 8597   8.227   2.266  13.798
68900SOL    HW2 8598   8.078   2.291  13.810
68901SOL     OW 8599  10.487   4.827  11.291
68901SOL    HW1 8600  10.557   4.886  11.322
68901SOL    HW2 8601  10.417   4.886  11.263
68902SOL     OW 8602   8.027   9.847  12.471
68902SOL    HW1 8603   8.018   9.923  12.529
68902SOL    HW2 8604   7.957   9.859  12.406
68903SOL     OW 8605  10.008   8.690  14.841
68903SOL    HW1 8606  10.031   8.724  14.754
68903SOL    HW2 8607   9.996   8.769   0.017
68904SOL     OW 8608  12.315   2.334  14.412
68904SOL    HW1 8609  12.298   2.399  14.480
68904SOL    HW2 8610  12.320   2.251  14.459
68905SOL     OW 8611   4.990  14.033  12.888
68905SOL    HW1 8612   5.080  14.040  12.857
68905SOL    HW2 8613   4.997  13.995  12.975
68906SOL     OW 8614   9.342   1.337   5.990
68906SOL    HW1 8615   9.307   1.347   5.902
68906SOL    HW2 8616   9.265   1.338   6.047
68907SOL     OW 8617  11.856   2.177  13.742
68907SOL    HW1 8618  11.834   2.089  13.710
68907SOL    HW2 8619  11.908   2.216  13.672
68908SOL     OW 8620  13.116   0.757   7.051
68908SOL    HW1 8621  13.058   0.823   7.090
68908SOL    HW2 8622  13.146   0.705   7.126
68909SOL     OW 8623  11.145  12.298   6.283
68909SOL    HW1 8624  11.057  12.332   6.303
68909SOL    HW2 8625  11.131  12.233   6.215
68910SOL     OW 8626   0.353   1.594   1.402
68910SOL    HW1 8627   0.296   1.542   1.345
68910SOL    HW2 8628   0.320   1.683   1.393
68911SOL     OW 8629   1.298   6.866  13.351
68911SOL    HW1 8630   1.305   6.955  13.386
68911SOL    HW2 8631   1.375   6.855  13.296
68912SOL     OW 8632   7.015   9.406   5.680
68912SOL    HW1 8633   7.105   9.421   5.708
68912SOL    HW2 8634   7.024   9.360   5.596
68913SOL     OW 8635  14.412  12.702   1.310
68913SOL    HW1 8636  14.436  12.755   1.234
68913SOL    HW2 8637  14.495  12.684   1.353
68914SOL     OW 8638   8.542  10.336   4.689
68914SOL    HW1 8639   8.511  10.367   4.604
68914SOL    HW2 8640   8.618  10.282   4.669
68915SOL     OW 8641   0.994   2.036   1.783
68915SOL    HW1 8642   1.061   2.013   1.718
68915SOL    HW2 8643   0.953   2.114   1.748
68916SOL     OW 8644  14.733   2.957   0.704
68916SOL    HW1 8645  14.641   2.977   0.688
68916SOL    HW2 8646  14.741   2.954   0.799
68917SOL     OW 8647  10.625   1.805   9.036
68917SOL    HW1 8648  10.615   1.747   8.961
68917SOL    HW2 8649  10.554   1.781   9.095
68918SOL     OW 8650   5.919   2.877   3.850
68918SOL    HW1 8651   5.978   2.835   3.787
68918SOL    HW2 8652   5.945   2.841   3.935
68919SOL     OW 8653   7.453   7.626   3.656
68919SOL    HW1 8654   7.363   7.657   3.652
68919SOL    HW2 8655   7.485   7.657   3.740
68920SOL     OW 8656   7.784  12.917  11.088
68920SOL    HW1 8657   7.833  12.893  11.167
68920SOL    HW2 8658   7.838  12.884  11.016
68921SOL     OW 8659   7.121  12.352  12.192
68921SOL    HW1 8660   7.056  12.283  12.184
68921SOL    HW2 8661   7.070  12.432  12.207
68922SOL     OW 8662   6.659   6.871  10.033
68922SOL    HW1 8663   6.652   6.935   9.962
68922SOL    HW2 8664   6.657   6.925  10.113
68923SOL     OW 8665   6.694   7.596   0.927
68923SOL    HW1 8666   6.685   7.668   0.989
68923SOL    HW2 8667   6.607   7.583   0.891
68924SOL     OW 8668   5.982  10.384  12.602
68924SOL    HW1 8669   5.914  10.414  12.662
68924SOL    HW2 8670   5.934  10.340  12.532
68925SOL     OW 8671   7.913  12.446   5.103
68925SOL    HW1 8672   7.991  12.392   5.091
68925SOL    HW2 8673   7.893  12.439   5.197
68926SOL     OW 8674   8.164  11.272   3.782
68926SOL    HW1 8675   8.148  11.225   3.701
68926SOL    HW2 8676   8.236  11.224   3.824
68927SOL     OW 8677   0.394   9.441  10.761
68927SOL    HW1 8678   0.472   9.414  10.810
68927SOL    HW2 8679   0.367   9.362  10.714
68928SOL     OW 8680   2.992   2.115   0.598
68928SOL    HW1 8681   2.943   2.188   0.635
68928SOL    HW2 8682   2.983   2.124   0.504
68929SOL     OW 8683   4.684   7.713  14.459
68929SOL    HW1 8684   4.659   7.763  14.536
68929SOL    HW2 8685   4.633   7.752  14.388
68930SOL     OW 8686   8.975  10.223  12.955
68930SOL    HW1 8687   8.964  10.133  12.923
68930SOL    HW2 8688   8.894  10.242  13.002
68931SOL     OW 8689  11.515  11.451   5.707
68931SOL    HW1 8690  11.458  11.419   5.637
68931SOL    HW2 8691  11.477  11.535   5.733
68932SOL     OW 8692   4.159   3.942   8.462
68932SOL    HW1 8693   4.076   3.957   8.417
68932SOL    HW2 8694   4.155   3.850   8.491
68933SOL     OW 8695  10.263  10.924  10.318
68933SOL    HW1 8696  10.260  10.887  10.230
68933SOL    HW2 8697  10.243  11.017  10.305
68934SOL     OW 8698   2.136  13.156   5.622
68934SOL    HW1 8699   2.131  13.089   5.554
68934SOL    HW2 8700   2.213  13.131   5.674
68935SOL     OW 8701   7.593  14.658  13.139
68935SOL    HW1 8702   7.671  14.666  13.193
68935SOL    HW2 8703   7.623  14.615  13.059
68936SOL     OW 8704  12.795   1.514  13.079
68936SOL    HW1 8705  12.836   1.446  13.133
68936SOL    HW2 8706  12.864   1.579  13.068
68937SOL     OW 8707   0.721   3.266   8.199
68937SOL    HW1 8708   0.783   3.287   8.128
68937SOL    HW2 8709   0.684   3.182   8.174
68938SOL     OW 8710   7.221   2.309   4.096
68938SOL    HW1 8711   7.245   2.300   4.189
68938SOL    HW2 8712   7.285   2.371   4.061
68939SOL     OW 8713   2.991   2.579  14.241
68939SOL    HW1 8714   2.997   2.511  14.174
68939SOL    HW2 8715   3.034   2.655  14.203
68940SOL     OW 8716  12.394   2.648   5.307
68940SOL    HW1 8717  12.371   2.612   5.393
68940SOL    HW2 8718  12.393   2.743   5.319
68941SOL     OW 8719   3.132   2.263  14.711
68941SOL    HW1 8720   3.135   2.290  14.619
68941SOL    HW2 8721   3.038   2.251  14.729
68942SOL     OW 8722  10.353  12.433   5.558
68942SOL    HW1 8723  10.412  12.508   5.551
68942SOL    HW2 8724  10.266  12.471   5.548
68943SOL     OW 8725   0.564   0.022  10.451
68943SOL    HW1 8726   0.596  14.815  10.419
68943SOL    HW2 8727   0.546   0.072  10.371
68944SOL     OW 8728  10.832  10.476   4.609
68944SOL    HW1 8729  10.850  10.394   4.563
68944SOL    HW2 8730  10.865  10.461   4.697
68945SOL     OW 8731   5.731  11.666  13.726
68945SOL    HW1 8732   5.668  11.608  13.683
68945SOL    HW2 8733   5.724  11.749  13.678
68946SOL     OW 8734   2.134   3.797   1.275
68946SOL    HW1 8735   2.220   3.771   1.308
68946SOL    HW2 8736   2.120   3.884   1.312
68947SOL     OW 8737   6.440   0.766   3.331
68947SOL    HW1 8738   6.449   0.827   3.258
68947SOL    HW2 8739   6.490   0.689   3.305
68948SOL     OW 8740   0.553   2.213  10.688
68948SOL    HW1 8741   0.536   2.145  10.623
68948SOL    HW2 8742   0.529   2.295  10.645
68949SOL     OW 8743   3.868   0.202   7.609
68949SOL    HW1 8744   3.794   0.214   7.670
68949SOL    HW2 8745   3.827   0.169   7.529
68950SOL     OW 8746  12.697   2.557   2.481
68950SOL    HW1 8747  12.716   2.522   2.394
68950SOL    HW2 8748  12.774   2.608   2.504
68951SOL     OW 8749  10.057   7.572   4.310
68951SOL    HW1 8750  10.109   7.492   4.321
68951SOL    HW2 8751  10.115   7.632   4.263
68952SOL     OW 8752   5.264  12.592   8.431
68952SOL    HW1 8753   5.171  12.613   8.443
68952SOL    HW2 8754   5.266  12.532   8.356
68953SOL     OW 8755  13.113  14.398  13.071
68953SOL    HW1 8756  13.104  14.303  13.059
68953SOL    HW2 8757  13.063  14.436  12.999
68954SOL     OW 8758  13.048   2.745  11.080
68954SOL    HW1 8759  13.086   2.774  11.163
68954SOL    HW2 8760  13.088   2.660  11.063
68955SOL     OW 8761   7.320   0.826  12.892
68955SOL    HW1 8762   7.295   0.885  12.821
68955SOL    HW2 8763   7.393   0.775  12.857
68956SOL     OW 8764  10.040   0.986  10.366
68956SOL    HW1 8765  10.036   0.999  10.272
68956SOL    HW2 8766  10.123   1.025  10.392
68957SOL     OW 8767   6.098   1.855  11.882
68957SOL    HW1 8768   6.146   1.791  11.934
68957SOL    HW2 8769   6.065   1.806  11.807
68958SOL     OW 8770   4.842  11.891   8.291
68958SOL    HW1 8771   4.804  11.843   8.217
68958SOL    HW2 8772   4.803  11.850   8.368
68959SOL     OW 8773   7.535  14.383   8.326
68959SOL    HW1 8774   7.628  14.369   8.346
68959SOL    HW2 8775   7.489  14.320   8.381
68960SOL     OW 8776   8.497   9.559  11.148
68960SOL    HW1 8777   8.422   9.563  11.207
68960SOL    HW2 8778   8.573   9.554  11.205
68961SOL     OW 8779   7.054   4.366  11.751
68961SOL    HW1 8780   7.139   4.321  11.753
68961SOL    HW2 8781   7.062   4.435  11.817
68962SOL     OW 8782  10.451  11.592   9.614
68962SOL    HW1 8783  10.525  11.650   9.630
68962SOL    HW2 8784  10.477  11.508   9.651
68963SOL     OW 8785   5.748  10.877   9.045
68963SOL    HW1 8786   5.746  10.971   9.062
68963SOL    HW2 8787   5.703  10.838   9.121
68964SOL     OW 8788   4.487   6.785   4.199
68964SOL    HW1 8789   4.515   6.716   4.139
68964SOL    HW2 8790   4.494   6.745   4.286
68965SOL     OW 8791   1.331   6.432  12.699
68965SOL    HW1 8792   1.422   6.457  12.714
68965SOL    HW2 8793   1.292   6.434  12.786
68966SOL     OW 8794   7.525  12.640  14.276
68966SOL    HW1 8795   7.448  12.694  14.262
68966SOL    HW2 8796   7.544  12.649  14.369
68967SOL     OW 8797   5.142   3.292   3.196
68967SOL    HW1 8798   5.180   3.225   3.139
68967SOL    HW2 8799   5.058   3.313   3.155
68968SOL     OW 8800   3.916   8.436   3.511
68968SOL    HW1 8801   3.849   8.468   3.572
68968SOL    HW2 8802   3.876   8.361   3.469
68969SOL     OW 8803   9.534   9.317   2.536
68969SOL    HW1 8804   9.479   9.381   2.490
68969SOL    HW2 8805   9.515   9.332   2.629
68970SOL     OW 8806   7.819   1.987   6.452
68970SOL    HW1 8807   7.763   2.049   6.405
68970SOL    HW2 8808   7.771   1.905   6.449
68971SOL     OW 8809  14.671   2.052   2.793
68971SOL    HW1 8810  14.598   2.018   2.844
68971SOL    HW2 8811  14.714   2.115   2.850
68972SOL     OW 8812  11.928   2.543   9.936
68972SOL    HW1 8813  11.968   2.537  10.022
68972SOL    HW2 8814  11.887   2.457   9.923
68973SOL     OW 8815  13.253   6.679  11.077
68973SOL    HW1 8816  13.223   6.691  11.167
68973SOL    HW2 8817  13.337   6.633  11.086
68974SOL     OW 8818  10.149   7.666   9.864
68974SOL    HW1 8819  10.151   7.727   9.938
68974SOL    HW2 8820  10.100   7.591   9.896
68975SOL     OW 8821  13.812   2.277  13.083
68975SOL    HW1 8822  13.880   2.307  13.142
68975SOL    HW2 8823  13.737   2.259  13.140
68976SOL     OW 8824   3.376   5.719   5.892
68976SOL    HW1 8825   3.431   5.710   5.814
68976SOL    HW2 8826   3.286   5.712   5.858
68977SOL     OW 8827  14.155  11.149   0.499
68977SOL    HW1 8828  14.151  11.174   0.591
68977SOL    HW2 8829  14.222  11.081   0.495
68978SOL     OW 8830   4.530  13.378   9.076
68978SOL    HW1 8831   4.605  13.366   9.134
68978SOL    HW2 8832   4.488  13.459   9.107
68979SOL     OW 8833  11.997   9.035   6.861
68979SOL    HW1 8834  11.911   9.014   6.896
68979SOL    HW2 8835  11.986   9.121   6.821
68980SOL     OW 8836  13.166  12.366   6.041
68980SOL    HW1 8837  13.075  12.384   6.021
68980SOL    HW2 8838  13.205  12.452   6.055
68981SOL     OW 8839   3.444  13.282  10.620
68981SOL    HW1 8840   3.467  13.348  10.685
68981SOL    HW2 8841   3.413  13.332  10.544
68982SOL     OW 8842   4.054  13.480   2.740
68982SOL    HW1 8843   4.117  13.496   2.810
68982SOL    HW2 8844   4.098  13.418   2.681
68983SOL     OW 8845   8.460  13.063  11.979
68983SOL    HW1 8846   8.443  12.994  11.914
68983SOL    HW2 8847   8.553  13.054  11.999
68984SOL     OW 8848   5.813  12.235   4.408
68984SOL    HW1 8849   5.806  12.152   4.360
68984SOL    HW2 8850   5.722  12.263   4.421
68985SOL     OW 8851   8.007   9.143  11.461
68985SOL    HW1 8852   7.974   9.161  11.550
68985SOL    HW2 8853   8.070   9.072  11.474
68986SOL     OW 8854   6.759   1.192   5.257
68986SOL    HW1 8855   6.748   1.175   5.164
68986SOL    HW2 8856   6.805   1.116   5.291
68987SOL     OW 8857   6.324  12.259  11.133
68987SOL    HW1 8858   6.275  12.326  11.084
68987SOL    HW2 8859   6.267  12.238  11.207
68988SOL     OW 8860  11.128   0.831   2.480
68988SOL    HW1 8861  11.104   0.741   2.504
68988SOL    HW2 8862  11.166   0.867   2.560
68989SOL     OW 8863   8.915  12.791   7.366
68989SOL    HW1 8864   8.940  12.790   7.274
68989SOL    HW2 8865   8.868  12.873   7.378
68990SOL     OW 8866   5.498  14.746  13.670
68990SOL    HW1 8867   5.569  14.686  13.648
68990SOL    HW2 8868   5.493  14.743  13.766
68991SOL     OW 8869  12.121   9.574   5.725
68991SOL    HW1 8870  12.175   9.608   5.653
68991SOL    HW2 8871  12.184   9.557   5.796
68992SOL     OW 8872  11.620   6.211   4.180
68992SOL    HW1 8873  11.628   6.305   4.167
68992SOL    HW2 8874  11.536   6.200   4.225
68993SOL     OW 8875   2.921  10.548  12.016
68993SOL    HW1 8876   2.874  10.527  11.935
68993SOL    HW2 8877   3.007  10.506  12.005
68994SOL     OW 8878  11.717   1.138   2.869
68994SOL    HW1 8879  11.730   1.160   2.777
68994SOL    HW2 8880  11.689   1.046   2.868
68995SOL     OW 8881   7.811   5.129  13.228
68995SOL    HW1 8882   7.875   5.058  13.233
68995SOL    HW2 8883   7.731   5.087  13.196
68996SOL     OW 8884   7.165   7.121  14.681
68996SOL    HW1 8885   7.221   7.074  14.619
68996SOL    HW2 8886   7.226   7.170  14.736
68997SOL     OW 8887  11.207   4.429   7.991
68997SOL    HW1 8888  11.172   4.456   7.906
68997SOL    HW2 8889  11.295   4.466   7.994
68998SOL     OW 8890  12.728   3.636   6.742
68998SOL    HW1 8891  12.718   3.722   6.700
68998SOL    HW2 8892  12.791   3.651   6.812
68999SOL     OW 8893  10.549   8.056   1.900
68999SOL    HW1 8894  10.493   8.063   1.823
68999SOL    HW2 8895  10.627   8.107   1.878
69000SOL     OW 8896  11.208   7.602  14.196
69000SOL    HW1 8897  11.298   7.630  14.212
69000SOL    HW2 8898  11.197   7.523  14.249
69001SOL     OW 8899   7.578  12.961  13.640
69001SOL    HW1 8900   7.592  12.945  13.547
69001SOL    HW2 8901   7.552  12.876  13.675
69002SOL     OW 8902  12.119   5.948   2.250
69002SOL    HW1 8903  12.159   5.884   2.310
69002SOL    HW2 8904  12.084   6.016   2.307
69003SOL     OW 8905   1.975  10.575   5.878
69003SOL    HW1 8906   1.991  10.666   5.852
69003SOL    HW2 8907   1.952  10.580   5.971
69004SOL     OW 8908  11.596  11.577   4.816
69004SOL    HW1 8909  11.554  11.576   4.730
69004SOL    HW2 8910  11.598  11.670   4.840
69005SOL     OW 8911  10.923  12.352   2.792
69005SOL    HW1 8912  10.980  12.282   2.824
69005SOL    HW2 8913  10.916  12.335   2.698
69006SOL     OW 8914   9.860   1.849   5.303
69006SOL    HW1 8915   9.854   1.882   5.393
69006SOL    HW2 8916   9.948   1.811   5.297
69007SOL     OW 8917   9.114   8.388   9.335
69007SOL    HW1 8918   9.188   8.439   9.302
69007SOL    HW2 8919   9.142   8.297   9.325
69008SOL     OW 8920   2.221   7.516   8.734
69008SOL    HW1 8921   2.165   7.546   8.663
69008SOL    HW2 8922   2.179   7.551   8.813
69009SOL     OW 8923   4.827   9.625   0.950
69009SOL    HW1 8924   4.831   9.620   1.045
69009SOL    HW2 8925   4.735   9.642   0.930
69010SOL     OW 8926   4.301   3.304   6.690
69010SOL    HW1 8927   4.245   3.338   6.620
69010SOL    HW2 8928   4.268   3.345   6.769
69011SOL     OW 8929  14.697   5.737   5.751
69011SOL    HW1 8930  14.624   5.791   5.722
69011SOL    HW2 8931  14.679   5.650   5.716
69012SOL     OW 8932   1.403   1.757   3.853
69012SOL    HW1 8933   1.340   1.690   3.882
69012SOL    HW2 8934   1.386   1.832   3.911
69013SOL     OW 8935   9.091   8.842   3.803
69013SOL    HW1 8936   9.158   8.774   3.808
69013SOL    HW2 8937   9.096   8.887   3.887
69014SOL     OW 8938   5.336  14.348   8.982
69014SOL    HW1 8939   5.425  14.371   9.008
69014SOL    HW2 8940   5.300  14.429   8.946
69015SOL     OW 8941   8.859   2.499  13.428
69015SOL    HW1 8942   8.829   2.460  13.510
69015SOL    HW2 8943   8.952   2.481  13.424
69016SOL     OW 8944  11.020   6.939   9.465
69016SOL    HW1 8945  11.025   6.958   9.558
69016SOL    HW2 8946  10.928   6.916   9.449
69017SOL     OW 8947   3.371   7.056   7.484
69017SOL    HW1 8948   3.428   7.012   7.548
69017SOL    HW2 8949   3.405   7.028   7.399
69018SOL     OW 8950   1.633   3.117   5.731
69018SOL    HW1 8951   1.669   3.142   5.646
69018SOL    HW2 8952   1.548   3.160   5.734
69019SOL     OW 8953   8.002   3.118   8.262
69019SOL    HW1 8954   7.967   3.191   8.210
69019SOL    HW2 8955   8.013   3.047   8.200
69020SOL     OW 8956   4.637  14.150  10.736
69020SOL    HW1 8957   4.608  14.120  10.822
69020SOL    HW2 8958   4.720  14.105  10.722
69021SOL     OW 8959  10.708  13.579   9.634
69021SOL    HW1 8960  10.711  13.508   9.698
69021SOL    HW2 8961  10.734  13.537   9.552
69022SOL     OW 8962   8.238  12.990  12.143
69022SOL    HW1 8963   8.307  12.932  12.109
69022SOL    HW2 8964   8.275  13.025  12.224
69023SOL     OW 8965   3.947   8.964   1.617
69023SOL    HW1 8966   3.979   9.045   1.656
69023SOL    HW2 8967   4.025   8.911   1.603
69024SOL     OW 8968  10.246   4.161   1.282
69024SOL    HW1 8969  10.320   4.197   1.233
69024SOL    HW2 8970  10.284   4.131   1.364
69025SOL     OW 8971   4.522   4.439   0.242
69025SOL    HW1 8972   4.463   4.460   0.315
69025SOL    HW2 8973   4.523   4.519   0.189
69026SOL     OW 8974  11.161   1.302  13.378
69026SOL    HW1 8975  11.145   1.363  13.306
69026SOL    HW2 8976  11.076   1.291  13.419
69027SOL     OW 8977   8.803   5.100   0.250
69027SOL    HW1 8978   8.776   5.079   0.339
69027SOL    HW2 8979   8.774   5.025   0.197
69028SOL     OW 8980   3.063  11.993   4.421
69028SOL    HW1 8981   3.027  11.951   4.499
69028SOL    HW2 8982   3.106  11.922   4.374
69029SOL     OW 8983  10.920   0.913   5.025
69029SOL    HW1 8984  10.902   0.828   4.984
69029SOL    HW2 8985  10.878   0.977   4.968
69030SOL     OW 8986  14.642   7.796   6.528
69030SOL    HW1 8987  14.707   7.866   6.521
69030SOL    HW2 8988  14.669   7.732   6.461
69031SOL     OW 8989   5.471   6.763   3.605
69031SOL    HW1 8990   5.459   6.812   3.687
69031SOL    HW2 8991   5.564   6.741   3.604
69032SOL     OW 8992  10.835   7.532   3.421
69032SOL    HW1 8993  10.779   7.606   3.441
69032SOL    HW2 8994  10.840   7.482   3.503
69033SOL     OW 8995   2.638   9.671   6.214
69033SOL    HW1 8996   2.663   9.723   6.137
69033SOL    HW2 8997   2.543   9.664   6.207
69034SOL     OW 8998   7.218   4.402   2.091
69034SOL    HW1 8999   7.224   4.307   2.097
69034SOL    HW2 9000   7.185   4.418   2.002
69035SOL     OW 9001  11.261  14.650   8.449
69035SOL    HW1 9002  11.333  14.669   8.390
69035SOL    HW2 9003  11.242  14.557   8.435
69036SOL     OW 9004   5.218   8.182   6.087
69036SOL    HW1 9005   5.241   8.215   6.000
69036SOL    HW2 9006   5.300   8.188   6.137
69037SOL     OW 9007  11.076   7.033   1.523
69037SOL    HW1 9008  11.128   7.015   1.445
69037SOL    HW2 9009  11.136   7.014   1.596
69038SOL     OW 9010   6.061   0.699   4.947
69038SOL    HW1 9011   6.153   0.684   4.968
69038SOL    HW2 9012   6.014   0.679   5.028
69039SOL     OW 9013   4.821  13.201   7.497
69039SOL    HW1 9014   4.901  13.149   7.485
69039SOL    HW2 9015   4.850  13.279   7.544
69040SOL     OW 9016   5.150   8.155   4.995
69040SOL    HW1 9017   5.092   8.194   4.929
69040SOL    HW2 9018   5.106   8.074   5.021
69041SOL     OW 9019   6.558  10.868  14.459
69041SOL    HW1 9020   6.635  10.816  14.482
69041SOL    HW2 9021   6.512  10.815  14.394
69042SOL     OW 9022   5.825   8.218   6.172
69042SOL    HW1 9023   5.897   8.200   6.232
69042SOL    HW2 9024   5.798   8.308   6.193
69043SOL     OW 9025   5.469   0.022  12.990
69043SOL    HW1 9026   5.520   0.100  13.011
69043SOL    HW2 9027   5.389   0.055  12.951
69044SOL     OW 9028   2.399   3.006   5.517
69044SOL    HW1 9029   2.322   2.950   5.524
69044SOL    HW2 9030   2.466   2.950   5.480
69045SOL     OW 9031  13.602   0.909  11.926
69045SOL    HW1 9032  13.529   0.966  11.902
69045SOL    HW2 9033  13.563   0.840  11.980
69046SOL     OW 9034   3.729   9.098   3.325
69046SOL    HW1 9035   3.663   9.159   3.358
69046SOL    HW2 9036   3.740   9.034   3.396
69047SOL     OW 9037  13.004  14.809   5.449
69047SOL    HW1 9038  13.017  14.729   5.501
69047SOL    HW2 9039  12.935  14.786   5.387
69048SOL     OW 9040   8.884   5.857   6.613
69048SOL    HW1 9041   8.915   5.880   6.700
69048SOL    HW2 9042   8.812   5.796   6.627
69049SOL     OW 9043   2.299  11.169  14.832
69049SOL    HW1 9044   2.242  11.155  14.756
69049SOL    HW2 9045   2.248  11.136   0.029
69050SOL     OW 9046   4.582  11.913   7.687
69050SOL    HW1 9047   4.532  11.982   7.644
69050SOL    HW2 9048   4.607  11.950   7.772
69051SOL     OW 9049  12.550   4.352   7.961
69051SOL    HW1 9050  12.620   4.392   7.910
69051SOL    HW2 9051  12.472   4.361   7.905
69052SOL     OW 9052  13.363   8.882   4.136
69052SOL    HW1 9053  13.370   8.870   4.042
69052SOL    HW2 9054  13.391   8.799   4.173
69053SOL     OW 9055   1.355   0.289   9.955
69053SOL    HW1 9056   1.363   0.347  10.031
69053SOL    HW2 9057   1.445   0.259   9.939
69054SOL     OW 9058   1.179  12.565   5.376
69054SOL    HW1 9059   1.243  12.494   5.385
69054SOL    HW2 9060   1.160  12.569   5.283
69055SOL     OW 9061  13.184   9.135   4.211
69055SOL    HW1 9062  13.266   9.182   4.196
69055SOL    HW2 9063  13.204   9.044   4.189
69056SOL     OW 9064   1.912   2.385  13.538
69056SOL    HW1 9065   1.950   2.354  13.456
69056SOL    HW2 9066   1.987   2.418  13.588
69057SOL     OW 9067   1.350   0.499   6.340
69057SOL    HW1 9068   1.348   0.414   6.384
69057SOL    HW2 9069   1.333   0.479   6.248
69058SOL     OW 9070   6.544  13.915   1.504
69058SOL    HW1 9071   6.548  13.893   1.411
69058SOL    HW2 9072   6.557  14.010   1.506
69059SOL     OW 9073  11.645   1.603   5.716
69059SOL    HW1 9074  11.579   1.656   5.762
69059SOL    HW2 9075  11.729   1.634   5.749
69060SOL     OW 9076   8.533  13.537   5.529
69060SOL    HW1 9077   8.594  13.478   5.484
69060SOL    HW2 9078   8.449  13.492   5.526
69061SOL     OW 9079   0.808  13.621  10.301
69061SOL    HW1 9080   0.813  13.638  10.207
69061SOL    HW2 9081   0.748  13.547  10.310
69062SOL     OW 9082  10.725  10.023   5.473
69062SOL    HW1 9083  10.685  10.076   5.404
69062SOL    HW2 9084  10.816  10.051   5.476
69063SOL     OW 9085   8.192   2.822  14.277
69063SOL    HW1 9086   8.114   2.787  14.321
69063SOL    HW2 9087   8.170   2.914  14.261
69064SOL     OW 9088  11.548  10.926   5.638
69064SOL    HW1 9089  11.522  10.867   5.709
69064SOL    HW2 9090  11.593  10.998   5.682
69065SOL     OW 9091  12.809   5.336   0.065
69065SOL    HW1 9092  12.809   5.430   0.046
69065SOL    HW2 9093  12.788   5.294  14.859
69066SOL     OW 9094   7.166  11.350  12.838
69066SOL    HW1 9095   7.248  11.318  12.802
69066SOL    HW2 9096   7.191  11.415  12.903
69067SOL     OW 9097   0.771   0.932   5.504
69067SOL    HW1 9098   0.681   0.924   5.534
69067SOL    HW2 9099   0.823   0.933   5.585
69068SOL     OW 9100  12.521   4.665   2.275
69068SOL    HW1 9101  12.597   4.626   2.319
69068SOL    HW2 9102  12.549   4.677   2.185
69069SOL     OW 9103   4.895   3.678   3.843
69069SOL    HW1 9104   4.828   3.612   3.825
69069SOL    HW2 9105   4.953   3.636   3.906
69070SOL     OW 9106   5.427   3.899  12.898
69070SOL    HW1 9107   5.375   3.826  12.932
69070SOL    HW2 9108   5.404   3.904  12.805
69071SOL     OW 9109   8.281   5.820  13.746
69071SOL    HW1 9110   8.359   5.869  13.723
69071SOL    HW2 9111   8.307   5.764  13.819
69072SOL     OW 9112   9.975  12.973  13.122
69072SOL    HW1 9113   9.949  13.050  13.173
69072SOL    HW2 9114   9.972  12.900  13.185
69073SOL     OW 9115  13.632  14.786   9.995
69073SOL    HW1 9116  13.728  14.788  10.002
69073SOL    HW2 9117  13.605  14.872  10.028
69074SOL     OW 9118   9.050   6.752   1.085
69074SOL    HW1 9119   9.132   6.775   1.040
69074SOL    HW2 9120   9.075   6.682   1.146
69075SOL     OW 9121   5.645  11.514   6.095
69075SOL    HW1 9122   5.721  11.473   6.053
69075SOL    HW2 9123   5.653  11.492   6.187
69076SOL     OW 9124   6.629   9.766   1.693
69076SOL    HW1 9125   6.661   9.679   1.716
69076SOL    HW2 9126   6.544   9.772   1.736
69077SOL     OW 9127   0.205  12.516  14.255
69077SOL    HW1 9128   0.234  12.425  14.253
69077SOL    HW2 9129   0.285  12.567  14.263
69078SOL     OW 9130   6.879   1.176   6.375
69078SOL    HW1 9131   6.869   1.258   6.424
69078SOL    HW2 9132   6.879   1.108   6.443
69079SOL     OW 9133  11.042  13.712  10.609
69079SOL    HW1 9134  11.127  13.702  10.652
69079SOL    HW2 9135  10.979  13.680  10.673
69080SOL     OW 9136   6.459   5.710  11.887
69080SOL    HW1 9137   6.422   5.728  11.800
69080SOL    HW2 9138   6.512   5.631  11.875
69081SOL     OW 9139  12.250   9.088   6.520
69081SOL    HW1 9140  12.281   9.013   6.571
69081SOL    HW2 9141  12.269   9.064   6.429
69082SOL     OW 9142   9.780   0.757   9.658
69082SOL    HW1 9143   9.727   0.723   9.586
69082SOL    HW2 9144   9.829   0.830   9.619
69083SOL     OW 9145   6.577   4.210  14.586
69083SOL    HW1 9146   6.660   4.189  14.628
69083SOL    HW2 9147   6.589   4.187  14.494
69084SOL     OW 9148   3.330   4.902   4.718
69084SOL    HW1 9149   3.321   4.965   4.789
69084SOL    HW2 9150   3.244   4.862   4.709
69085SOL     OW 9151  13.297   0.935   7.266
69085SOL    HW1 9152  13.225   0.883   7.230
69085SOL    HW2 9153  13.362   0.870   7.295
69086SOL     OW 9154   7.326   4.142   7.477
69086SOL    HW1 9155   7.287   4.228   7.494
69086SOL    HW2 9156   7.410   4.162   7.435
69087SOL     OW 9157   5.577   3.059   8.165
69087SOL    HW1 9158   5.662   3.031   8.130
69087SOL    HW2 9159   5.600   3.120   8.235
69088SOL     OW 9160   9.880   2.809  13.550
69088SOL    HW1 9161   9.895   2.899  13.524
69088SOL    HW2 9162   9.916   2.756  13.479
69089SOL     OW 9163  13.475   5.970   8.755
69089SOL    HW1 9164  13.399   5.977   8.814
69089SOL    HW2 9165  13.514   5.886   8.778
69090SOL     OW 9166   0.398   1.010  10.859
69090SOL    HW1 9167   0.414   0.922  10.892
69090SOL    HW2 9168   0.328   1.044  10.913
69091SOL     OW 9169   5.421  10.535  11.136
69091SOL    HW1 9170   5.448  10.539  11.228
69091SOL    HW2 9171   5.480  10.597  11.092
69092SOL     OW 9172   0.380  11.803   2.413
69092SOL    HW1 9173   0.304  11.856   2.388
69092SOL    HW2 9174   0.445  11.820   2.346
69093SOL     OW 9175   3.676   2.109  14.088
69093SOL    HW1 9176   3.646   2.126  13.999
69093SOL    HW2 9177   3.612   2.153  14.144
69094SOL     OW 9178   1.869   9.035   9.359
69094SOL    HW1 9179   1.888   9.110   9.415
69094SOL    HW2 9180   1.791   8.995   9.398
69095SOL     OW 9181   5.590  11.236  10.041
69095SOL    HW1 9182   5.572  11.152  10.085
69095SOL    HW2 9183   5.683  11.233  10.022
69096SOL     OW 9184  10.930  13.624   3.108
69096SOL    HW1 9185  10.917  13.530   3.097
69096SOL    HW2 9186  10.877  13.646   3.185
69097SOL     OW 9187  13.439   4.033   6.077
69097SOL    HW1 9188  13.350   4.002   6.092
69097SOL    HW2 9189  13.477   3.970   6.016
69098SOL     OW 9190   8.331   9.522   7.675
69098SOL    HW1 9191   8.265   9.557   7.734
69098SOL    HW2 9192   8.293   9.440   7.641
69099SOL     OW 9193   5.342  14.173   3.897
69099SOL    HW1 9194   5.354  14.243   3.833
69099SOL    HW2 9195   5.358  14.214   3.982
69100SOL     OW 9196   4.217   0.591   0.247
69100SOL    HW1 9197   4.276   0.630   0.311
69100SOL    HW2 9198   4.203   0.659   0.182
69101SOL     OW 9199   2.878   3.662  11.295
69101SOL    HW1 9200   2.875   3.685  11.202
69101SOL    HW2 9201   2.856   3.569  11.297
69102SOL     OW 9202   3.418  13.710   8.212
69102SOL    HW1 9203   3.454  13.772   8.149
69102SOL    HW2 9204   3.341  13.754   8.249
69103SOL     OW 9205  14.360   0.352   0.621
69103SOL    HW1 9206  14.302   0.289   0.663
69103SOL    HW2 9207  14.355   0.430   0.676
69104SOL     OW 9208   6.765  12.789  12.672
69104SOL    HW1 9209   6.678  12.749  12.679
69104SOL    HW2 9210   6.822  12.730  12.722
69105SOL     OW 9211  14.196   6.123   3.973
69105SOL    HW1 9212  14.290   6.107   3.968
69105SOL    HW2 9213  14.156   6.036   3.974
69106SOL     OW 9214   1.932  12.909   1.387
69106SOL    HW1 9215   1.995  12.884   1.455
69106SOL    HW2 9216   1.972  12.879   1.305
69107SOL     OW 9217   2.541  10.246   6.886
69107SOL    HW1 9218   2.597  10.211   6.818
69107SOL    HW2 9219   2.465  10.282   6.839
69108SOL     OW 9220  11.221   5.746  14.008
69108SOL    HW1 9221  11.277   5.675  13.977
69108SOL    HW2 9222  11.275   5.824  14.000
69109SOL     OW 9223   0.067   7.814  14.602
69109SOL    HW1 9224   0.154   7.831  14.566
69109SOL    HW2 9225   0.008   7.822  14.527
69110SOL     OW 9226   0.452   5.471   1.034
69110SOL    HW1 9227   0.406   5.398   0.993
69110SOL    HW2 9228   0.409   5.482   1.119
69111SOL     OW 9229  12.367   7.147  10.245
69111SOL    HW1 9230  12.368   7.073  10.305
69111SOL    HW2 9231  12.424   7.212  10.287
69112SOL     OW 9232  11.726  10.695   9.346
69112SOL    HW1 9233  11.811  10.671   9.308
69112SOL    HW2 9234  11.665  10.634   9.306
69113SOL     OW 9235   9.962  12.150   8.304
69113SOL    HW1 9236   9.928  12.237   8.283
69113SOL    HW2 9237   9.985  12.112   8.220
69114SOL     OW 9238  13.574   0.160  13.438
69114SOL    HW1 9239  13.529   0.152  13.522
69114SOL    HW2 9240  13.561   0.076  13.395
69115SOL     OW 9241   1.292  11.146   3.779
69115SOL    HW1 9242   1.357  11.209   3.750
69115SOL    HW2 9243   1.261  11.179   3.863
69116SOL     OW 9244  10.780   9.105   1.039
69116SOL    HW1 9245  10.697   9.150   1.024
69116SOL    HW2 9246  10.814   9.086   0.952
69117SOL     OW 9247   7.888  12.099   2.137
69117SOL    HW1 9248   7.936  12.171   2.178
69117SOL    HW2 9249   7.828  12.069   2.205
69118SOL     OW 9250   9.475   4.588   1.808
69118SOL    HW1 9251   9.437   4.576   1.895
69118SOL    HW2 9252   9.452   4.677   1.783
69119SOL     OW 9253   5.560   6.311  14.046
69119SOL    HW1 9254   5.653   6.291  14.055
69119SOL    HW2 9255   5.519   6.226  14.028
69120SOL     OW 9256  13.405   7.689  10.153
69120SOL    HW1 9257  13.457   7.612  10.132
69120SOL    HW2 9258  13.377   7.676  10.243
69121SOL     OW 9259   6.695   4.583   6.442
69121SOL    HW1 9260   6.656   4.548   6.521
69121SOL    HW2 9261   6.778   4.621   6.471
69122SOL     OW 9262  14.072  11.455  11.640
69122SOL    HW1 9263  14.134  11.396  11.597
69122SOL    HW2 9264  14.038  11.404  11.713
69123SOL     OW 9265   7.674   4.904   5.014
69123SOL    HW1 9266   7.761   4.941   5.002
69123SOL    HW2 9267   7.654   4.921   5.107
69124SOL     OW 9268   7.457  13.533  10.434
69124SOL    HW1 9269   7.551  13.545  10.417
69124SOL    HW2 9270   7.451  13.445  10.471
69125SOL     OW 9271  10.685   9.812   3.774
69125SOL    HW1 9272  10.695   9.768   3.858
69125SOL    HW2 9273  10.711   9.746   3.709
69126SOL     OW 9274   7.413  13.552  14.736
69126SOL    HW1 9275   7.438  13.521  14.649
69126SOL    HW2 9276   7.429  13.478  14.794
69127SOL     OW 9277   2.521   6.168   1.590
69127SOL    HW1 9278   2.583   6.153   1.518
69127SOL    HW2 9279   2.439   6.128   1.559
69128SOL     OW 9280   8.788   9.939   5.552
69128SOL    HW1 9281   8.785   9.954   5.646
69128SOL    HW2 9282   8.700   9.907   5.530
69129SOL     OW 9283   0.290   2.402   3.495
69129SOL    HW1 9284   0.211   2.437   3.536
69129SOL    HW2 9285   0.266   2.312   3.472
69130SOL     OW 9286   7.150  11.687   9.673
69130SOL    HW1 9287   7.236  11.699   9.633
69130SOL    HW2 9288   7.088  11.715   9.606
69131SOL     OW 9289   5.589   5.513  11.589
69131SOL    HW1 9290   5.612   5.599  11.626
69131SOL    HW2 9291   5.615   5.518  11.498
69132SOL     OW 9292  10.969  12.278   6.648
69132SOL    HW1 9293  11.038  12.213   6.654
69132SOL    HW2 9294  10.978  12.331   6.727
69133SOL     OW 9295  12.825   1.773   3.213
69133SOL    HW1 9296  12.787   1.766   3.301
69133SOL    HW2 9297  12.751   1.797   3.157
69134SOL     OW 9298   8.558  10.449   7.665
69134SOL    HW1 9299   8.627  10.503   7.704
69134SOL    HW2 9300   8.564  10.467   7.571
69135SOL     OW 9301   7.242   0.422   9.440
69135SOL    HW1 9302   7.179   0.355   9.414
69135SOL    HW2 9303   7.253   0.477   9.362
69136SOL     OW 9304  12.901   5.573  14.178
69136SOL    HW1 9305  12.873   5.564  14.086
69136SOL    HW2 9306  12.892   5.485  14.214
69137SOL     OW 9307  10.645  12.978  10.534
69137SOL    HW1 9308  10.624  13.064  10.497
69137SOL    HW2 9309  10.567  12.925  10.517
69138SOL     OW 9310   7.159   0.319   8.198
69138SOL    HW1 9311   7.163   0.390   8.134
69138SOL    HW2 9312   7.132   0.243   8.147
69139SOL     OW 9313  14.035  12.721   9.030
69139SOL    HW1 9314  14.011  12.812   9.047
69139SOL    HW2 9315  14.084  12.695   9.108
69140SOL     OW 9316   9.442   3.680  12.017
69140SOL    HW1 9317   9.427   3.589  11.991
69140SOL    HW2 9318   9.492   3.674  12.098
69141SOL     OW 9319  13.507   2.005  13.443
69141SOL    HW1 9320  13.461   2.016  13.360
69141SOL    HW2 9321  13.470   2.073  13.500
69142SOL     OW 9322   0.210   8.331   7.176
69142SOL    HW1 9323   0.264   8.363   7.104
69142SOL    HW2 9324   0.165   8.408   7.209
69143SOL     OW 9325   2.351   8.022  13.081
69143SOL    HW1 9326   2.322   8.021  12.990
69143SOL    HW2 9327   2.272   8.036  13.132
69144SOL     OW 9328   8.403   3.323  12.499
69144SOL    HW1 9329   8.480   3.266  12.495
69144SOL    HW2 9330   8.333   3.272  12.458
69145SOL     OW 9331   9.454   2.242  12.750
69145SOL    HW1 9332   9.438   2.330  12.785
69145SOL    HW2 9333   9.418   2.183  12.816
69146SOL     OW 9334  14.494  13.675   4.521
69146SOL    HW1 9335  14.500  13.592   4.474
69146SOL    HW2 9336  14.520  13.741   4.456
69147SOL     OW 9337   7.240  12.812  13.448
69147SOL    HW1 9338   7.190  12.821  13.366
69147SOL    HW2 9339   7.323  12.772  13.421
69148SOL     OW 9340  13.190   2.456   1.222
69148SOL    HW1 9341  13.265   2.400   1.199
69148SOL    HW2 9342  13.121   2.429   1.162
69149SOL     OW 9343   9.577   0.052   6.833
69149SOL    HW1 9344   9.647   0.060   6.768
69149SOL    HW2 9345   9.620   0.067   6.917
69150SOL     OW 9346  11.382   4.164  13.876
69150SOL    HW1 9347  11.298   4.185  13.917
69150SOL    HW2 9348  11.435   4.127  13.947
69151SOL     OW 9349   2.692   5.661   0.462
69151SOL    HW1 9350   2.645   5.732   0.417
69151SOL    HW2 9351   2.768   5.705   0.501
69152SOL     OW 9352   2.536  11.525   1.970
69152SOL    HW1 9353   2.544  11.570   1.886
69152SOL    HW2 9354   2.511  11.435   1.946
69153SOL     OW 9355  11.457   8.059  10.010
69153SOL    HW1 9356  11.387   8.009   9.968
69153SOL    HW2 9357  11.486   8.003  10.082
69154SOL     OW 9358  13.234   1.131   5.308
69154SOL    HW1 9359  13.182   1.126   5.389
69154SOL    HW2 9360  13.173   1.164   5.242
69155SOL     OW 9361   2.968   2.378   1.266
69155SOL    HW1 9362   2.926   2.410   1.186
69155SOL    HW2 9363   2.908   2.402   1.336
69156SOL     OW 9364   8.757   8.123   7.519
69156SOL    HW1 9365   8.770   8.029   7.534
69156SOL    HW2 9366   8.836   8.150   7.472
69157SOL     OW 9367  13.951   4.241  14.533
69157SOL    HW1 9368  13.913   4.311  14.586
69157SOL    HW2 9369  13.877   4.206  14.483
69158SOL     OW 9370   3.834   2.436   2.409
69158SOL    HW1 9371   3.915   2.484   2.431
69158SOL    HW2 9372   3.801   2.480   2.331
69159SOL     OW 9373   3.547  13.183   1.385
69159SOL    HW1 9374   3.580  13.115   1.444
69159SOL    HW2 9375   3.453  13.168   1.382
69160SOL     OW 9376   0.099   3.550   8.143
69160SOL    HW1 9377   0.082   3.463   8.106
69160SOL    HW2 9378   0.048   3.552   8.224
69161SOL     OW 9379  14.302   9.290  14.293
69161SOL    HW1 9380  14.335   9.215  14.343
69161SOL    HW2 9381  14.346   9.282  14.208
69162SOL     OW 9382  13.692   6.196   3.837
69162SOL    HW1 9383  13.685   6.104   3.812
69162SOL    HW2 9384  13.621   6.239   3.788
69163SOL     OW 9385  14.019   7.040  12.542
69163SOL    HW1 9386  13.947   7.051  12.481
69163SOL    HW2 9387  14.092   7.089  12.504
69164SOL     OW 9388   0.321  14.512   4.211
69164SOL    HW1 9389   0.316  14.419   4.234
69164SOL    HW2 9390   0.347  14.556   4.292
69165SOL     OW 9391   5.737   2.491   5.049
69165SOL    HW1 9392   5.766   2.582   5.041
69165SOL    HW2 9393   5.793   2.443   4.987
69166SOL     OW 9394   5.949   2.048   7.604
69166SOL    HW1 9395   5.881   2.048   7.672
69166SOL    HW2 9396   5.940   2.132   7.560
69167SOL     OW 9397   8.179   2.219   7.390
69167SOL    HW1 9398   8.132   2.267   7.322
69167SOL    HW2 9399   8.129   2.138   7.401
69168SOL     OW 9400  11.249   4.281   8.672
69168SOL    HW1 9401  11.286   4.232   8.745
69168SOL    HW2 9402  11.323   4.330   8.636
69169SOL     OW 9403  13.325  12.400  10.867
69169SOL    HW1 9404  13.253  12.442  10.914
69169SOL    HW2 9405  13.397  12.463  10.874
69170SOL     OW 9406   9.504   6.055  13.467
69170SOL    HW1 9407   9.456   6.114  13.409
69170SOL    HW2 9408   9.443   6.039  13.539
69171SOL     OW 9409   4.068  10.350   5.995
69171SOL    HW1 9410   4.131  10.378   6.062
69171SOL    HW2 9411   4.089  10.404   5.919
69172SOL     OW 9412  14.777   4.850   5.077
69172SOL    HW1 9413  14.841   4.916   5.105
69172SOL    HW2 9414  14.824   4.797   5.013
69173SOL     OW 9415  11.144   5.329   0.152
69173SOL    HW1 9416  11.230   5.320   0.111
69173SOL    HW2 9417  11.125   5.422   0.150
69174SOL     OW 9418   6.096   5.131   7.847
69174SOL    HW1 9419   6.099   5.172   7.934
69174SOL    HW2 9420   6.047   5.193   7.793
69175SOL     OW 9421   7.628   4.748   3.210
69175SOL    HW1 9422   7.675   4.680   3.259
69175SOL    HW2 9423   7.535   4.730   3.227
69176SOL     OW 9424  12.041  13.206   6.798
69176SOL    HW1 9425  11.986  13.194   6.721
69176SOL    HW2 9426  12.011  13.288   6.837
69177SOL     OW 9427  13.139   9.819  14.182
69177SOL    HW1 9428  13.222   9.858  14.212
69177SOL    HW2 9429  13.076   9.891  14.190
69178SOL     OW 9430  13.633   0.448  10.331
69178SOL    HW1 9431  13.633   0.423  10.239
69178SOL    HW2 9432  13.560   0.510  10.340
69179SOL     OW 9433  10.485   5.622   2.955
69179SOL    HW1 9434  10.575   5.655   2.965
69179SOL    HW2 9435  10.479   5.550   3.018
69180SOL     OW 9436   1.246   8.103   8.963
69180SOL    HW1 9437   1.219   8.189   8.929
69180SOL    HW2 9438   1.306   8.123   9.034
69181SOL     OW 9439   0.366   1.737   5.105
69181SOL    HW1 9440   0.448   1.786   5.109
69181SOL    HW2 9441   0.391   1.651   5.072
69182SOL     OW 9442   4.000   7.555   9.853
69182SOL    HW1 9443   3.919   7.589   9.816
69182SOL    HW2 9444   4.059   7.548   9.778
69183SOL     OW 9445   9.708  14.534  14.857
69183SOL    HW1 9446   9.691  14.595  14.785
69183SOL    HW2 9447   9.658  14.455  14.833
69184SOL     OW 9448   6.384   5.323   4.944
69184SOL    HW1 9449   6.422   5.354   4.862
69184SOL    HW2 9450   6.335   5.398   4.978
69185SOL     OW 9451  14.082   7.011  11.322
69185SOL    HW1 9452  14.149   6.957  11.281
69185SOL    HW2 9453  14.080   6.981  11.413
69186SOL     OW 9454   3.789  14.490  14.298
69186SOL    HW1 9455   3.860  14.549  14.324
69186SOL    HW2 9456   3.833  14.423  14.245
69187SOL     OW 9457   3.736  11.616   0.241
69187SOL    HW1 9458   3.787  11.536   0.227
69187SOL    HW2 9459   3.787  11.667   0.304
69188SOL     OW 9460   4.487   9.919   0.174
69188SOL    HW1 9461   4.450   9.835   0.147
69188SOL    HW2 9462   4.554   9.938   0.108
69189SOL     OW 9463   0.185  12.834   7.994
69189SOL    HW1 9464   0.117  12.825   8.061
69189SOL    HW2 9465   0.149  12.788   7.918
69190SOL     OW 9466   0.821   9.136   9.307
69190SOL    HW1 9467   0.745   9.182   9.344
69190SOL    HW2 9468   0.802   9.044   9.321
69191SOL     OW 9469   6.709   0.946   7.382
69191SOL    HW1 9470   6.662   0.953   7.465
69191SOL    HW2 9471   6.676   1.019   7.329
69192SOL     OW 9472   7.484   9.655   5.008
69192SOL    HW1 9473   7.570   9.632   4.972
69192SOL    HW2 9474   7.445   9.572   5.034
69193SOL     OW 9475   0.887   6.676  11.442
69193SOL    HW1 9476   0.964   6.662  11.496
69193SOL    HW2 9477   0.895   6.765  11.409
69194SOL     OW 9478  12.644  13.451   4.618
69194SOL    HW1 9479  12.674  13.421   4.704
69194SOL    HW2 9480  12.689  13.393   4.555
69195SOL     OW 9481  12.940   2.672   2.468
69195SOL    HW1 9482  12.992   2.600   2.505
69195SOL    HW2 9483  12.946   2.660   2.373
69196SOL     OW 9484  13.033   8.550   7.529
69196SOL    HW1 9485  13.078   8.514   7.453
69196SOL    HW2 9486  12.947   8.575   7.497
69197SOL     OW 9487   0.434  12.512  13.160
69197SOL    HW1 9488   0.425  12.496  13.066
69197SOL    HW2 9489   0.351  12.482  13.197
69198SOL     OW 9490   9.958   4.934   1.237
69198SOL    HW1 9491   9.940   5.024   1.264
69198SOL    HW2 9492   9.876   4.887   1.254
69199SOL     OW 9493   3.367  10.832   0.203
69199SOL    HW1 9494   3.309  10.836   0.279
69199SOL    HW2 9495   3.389  10.740   0.195
69200SOL     OW 9496   1.494   6.360   4.050
69200SOL    HW1 9497   1.528   6.283   4.096
69200SOL    HW2 9498   1.475   6.422   4.120
69201SOL     OW 9499   2.977  14.091   4.567
69201SOL    HW1 9500   2.970  14.008   4.614
69201SOL    HW2 9501   2.907  14.087   4.502
69202SOL     OW 9502  13.944   9.489   7.480
69202SOL    HW1 9503  14.008   9.429   7.519
69202SOL    HW2 9504  13.995   9.541   7.418
69203SOL     OW 9505   7.029   5.193  11.085
69203SOL    HW1 9506   7.019   5.134  11.160
69203SOL    HW2 9507   7.123   5.191  11.066
69204SOL     OW 9508  13.811  12.654  11.930
69204SOL    HW1 9509  13.729  12.657  11.881
69204SOL    HW2 9510  13.873  12.613  11.870
69205SOL     OW 9511   6.716  13.785   4.135
69205SOL    HW1 9512   6.744  13.874   4.157
69205SOL    HW2 9513   6.783  13.729   4.172
69206SOL     OW 9514   0.750  11.329  10.749
69206SOL    HW1 9515   0.770  11.423  10.753
69206SOL    HW2 9516   0.807  11.289  10.814
69207SOL     OW 9517   1.115  11.486   8.229
69207SOL    HW1 9518   1.152  11.398   8.233
69207SOL    HW2 9519   1.155  11.526   8.152
69208SOL     OW 9520   1.831   6.132  12.464
69208SOL    HW1 9521   1.793   6.147  12.550
69208SOL    HW2 9522   1.758   6.139  12.403
69209SOL     OW 9523   1.418   7.387  13.559
69209SOL    HW1 9524   1.397   7.454  13.494
69209SOL    HW2 9525   1.502   7.352  13.530
69210SOL     OW 9526  11.828   9.770   4.187
69210SOL    HW1 9527  11.792   9.857   4.199
69210SOL    HW2 9528  11.827   9.731   4.274
69211SOL     OW 9529  11.112  11.469  14.798
69211SOL    HW1 9530  11.138  11.483   0.011
69211SOL    HW2 9531  11.194  11.471  14.748
69212SOL     OW 9532   3.693   9.793  14.820
69212SOL    HW1 9533   3.665   9.707  14.790
69212SOL    HW2 9534   3.628   9.853  14.784
69213SOL     OW 9535  13.370  12.359   6.419
69213SOL    HW1 9536  13.311  12.426   6.454
69213SOL    HW2 9537  13.319  12.278   6.424
69214SOL     OW 9538   7.134   2.337   6.315
69214SOL    HW1 9539   7.173   2.364   6.398
69214SOL    HW2 9540   7.178   2.392   6.249
69215SOL     OW 9541   5.790   9.960   4.581
69215SOL    HW1 9542   5.768   9.946   4.489
69215SOL    HW2 9543   5.857  10.028   4.580
69216SOL     OW 9544   1.924   7.392   8.412
69216SOL    HW1 9545   1.998   7.443   8.445
69216SOL    HW2 9546   1.909   7.426   8.323
69217SOL     OW 9547   6.386   1.084   0.791
69217SOL    HW1 9548   6.291   1.093   0.784
69217SOL    HW2 9549   6.405   0.999   0.751
69218SOL     OW 9550  14.058   3.211   7.365
69218SOL    HW1 9551  14.016   3.126   7.350
69218SOL    HW2 9552  14.097   3.203   7.452
69219SOL     OW 9553   0.599  10.913  12.901
69219SOL    HW1 9554   0.556  10.833  12.931
69219SOL    HW2 9555   0.688  10.907  12.936
69220SOL     OW 9556   7.579  12.239  13.751
69220SOL    HW1 9557   7.550  12.158  13.794
69220SOL    HW2 9558   7.545  12.309  13.807
69221SOL     OW 9559  10.822   1.302   4.364
69221SOL    HW1 9560  10.731   1.279   4.347
69221SOL    HW2 9561  10.872   1.259   4.295
69222SOL     OW 9562   1.406  12.341   9.549
69222SOL    HW1 9563   1.482  12.335   9.490
69222SOL    HW2 9564   1.354  12.412   9.512
69223SOL     OW 9565   6.595   8.243   9.683
69223SOL    HW1 9566   6.558   8.328   9.706
69223SOL    HW2 9567   6.520   8.184   9.680
69224SOL     OW 9568   8.594   0.082   4.143
69224SOL    HW1 9569   8.512   0.033   4.145
69224SOL    HW2 9570   8.568   0.171   4.120
69225SOL     OW 9571   4.068   1.655   5.516
69225SOL    HW1 9572   4.134   1.614   5.461
69225SOL    HW2 9573   4.098   1.641   5.606
69226SOL     OW 9574   4.971  13.076  10.619
69226SOL    HW1 9575   4.909  13.028  10.674
69226SOL    HW2 9576   4.934  13.164  10.612
69227SOL     OW 9577   8.022   2.924   2.399
69227SOL    HW1 9578   8.001   2.831   2.394
69227SOL    HW2 9579   7.937   2.968   2.395
69228SOL     OW 9580  11.622   4.133   3.131
69228SOL    HW1 9581  11.658   4.072   3.196
69228SOL    HW2 9582  11.527   4.121   3.138
69229SOL     OW 9583   4.619   3.554   0.514
69229SOL    HW1 9584   4.570   3.472   0.519
69229SOL    HW2 9585   4.563   3.618   0.558
69230SOL     OW 9586  10.997   0.147   5.100
69230SOL    HW1 9587  11.068   0.156   5.164
69230SOL    HW2 9588  11.041   0.124   5.019
69231SOL     OW 9589   6.248  13.356   0.988
69231SOL    HW1 9590   6.191  13.341   0.912
69231SOL    HW2 9591   6.245  13.451   1.000
69232SOL     OW 9592  14.135   8.729   3.652
69232SOL    HW1 9593  14.198   8.694   3.589
69232SOL    HW2 9594  14.165   8.818   3.668
69233SOL     OW 9595   2.110   1.375   5.390
69233SOL    HW1 9596   2.134   1.322   5.313
69233SOL    HW2 9597   2.112   1.314   5.463
69234SOL     OW 9598  13.495   9.052   1.904
69234SOL    HW1 9599  13.561   9.086   1.844
69234SOL    HW2 9600  13.535   8.974   1.943
69235SOL     OW 9601  13.607  12.967  11.837
69235SOL    HW1 9602  13.633  13.040  11.780
69235SOL    HW2 9603  13.639  12.889  11.792
69236SOL     OW 9604   4.459   7.368   1.240
69236SOL    HW1 9605   4.520   7.433   1.204
69236SOL    HW2 9606   4.385   7.368   1.179
69237SOL     OW 9607  10.431  13.280   7.717
69237SOL    HW1 9608  10.387  13.293   7.633
69237SOL    HW2 9609  10.361  13.288   7.782
69238SOL     OW 9610   6.453   7.201   5.631
69238SOL    HW1 9611   6.435   7.282   5.678
69238SOL    HW2 9612   6.423   7.132   5.691
69239SOL     OW 9613   7.518   7.462   9.020
69239SOL    HW1 9614   7.511   7.552   8.989
69239SOL    HW2 9615   7.494   7.467   9.113
69240SOL     OW 9616   9.995  13.707   5.531
69240SOL    HW1 9617   9.946  13.747   5.460
69240SOL    HW2 9618  10.025  13.781   5.584
69241SOL     OW 9619   6.534  11.025   3.233
69241SOL    HW1 9620   6.534  10.992   3.323
69241SOL    HW2 9621   6.480  10.963   3.185
69242SOL     OW 9622  13.238  11.607   7.570
69242SOL    HW1 9623  13.184  11.539   7.530
69242SOL    HW2 9624  13.194  11.626   7.653
69243SOL     OW 9625   1.512   1.878  11.806
69243SOL    HW1 9626   1.605   1.858  11.799
69243SOL    HW2 9627   1.469   1.805  11.761
69244SOL     OW 9628   5.759  13.293   8.241
69244SOL    HW1 9629   5.680  13.329   8.282
69244SOL    HW2 9630   5.821  13.285   8.313
69245SOL     OW 9631   7.386   0.065   2.151
69245SOL    HW1 9632   7.351   0.109   2.229
69245SOL    HW2 9633   7.436  14.869   2.186
69246SOL     OW 9634   2.518   1.539   0.832
69246SOL    HW1 9635   2.606   1.555   0.866
69246SOL    HW2 9636   2.462   1.596   0.885
69247SOL     OW 9637   0.523  13.723  12.461
69247SOL    HW1 9638   0.437  13.751  12.429
69247SOL    HW2 9639   0.575  13.803  12.463
69248SOL     OW 9640   5.610   2.373  12.007
69248SOL    HW1 9641   5.611   2.427  11.927
69248SOL    HW2 9642   5.580   2.287  11.978
69249SOL     OW 9643  10.999  11.029   2.496
69249SOL    HW1 9644  11.064  10.973   2.538
69249SOL    HW2 9645  11.049  11.104   2.463
69250SOL     OW 9646   0.718   5.180   1.020
69250SOL    HW1 9647   0.702   5.271   1.045
69250SOL    HW2 9648   0.750   5.139   1.101
69251SOL     OW 9649  11.136  10.961  14.109
69251SOL    HW1 9650  11.097  10.896  14.051
69251SOL    HW2 9651  11.226  10.969  14.078
69252SOL     OW 9652  14.092  11.681  10.325
69252SOL    HW1 9653  14.088  11.586  10.321
69252SOL    HW2 9654  14.036  11.711  10.254
69253SOL     OW 9655   7.389   1.661   9.108
69253SOL    HW1 9656   7.340   1.741   9.089
69253SOL    HW2 9657   7.472   1.693   9.144
69254SOL     OW 9658   7.800  12.154   5.982
69254SOL    HW1 9659   7.724  12.205   5.954
69254SOL    HW2 9660   7.784  12.067   5.947
69255SOL     OW 9661  11.189   4.764   6.342
69255SOL    HW1 9662  11.139   4.761   6.423
69255SOL    HW2 9663  11.140   4.711   6.280
69256SOL     OW 9664   6.898  11.004   7.848
69256SOL    HW1 9665   6.885  11.097   7.862
69256SOL    HW2 9666   6.928  10.997   7.757
69257SOL     OW 9667  13.357   4.505  11.909
69257SOL    HW1 9668  13.314   4.503  11.824
69257SOL    HW2 9669  13.285   4.499  11.972
69258SOL     OW 9670  11.471   5.870  12.607
69258SOL    HW1 9671  11.506   5.956  12.584
69258SOL    HW2 9672  11.525   5.808  12.560
69259SOL     OW 9673   9.009   0.124  14.023
69259SOL    HW1 9674   8.991   0.047  13.970
69259SOL    HW2 9675   9.089   0.161  13.985
69260SOL     OW 9676   6.332   3.623   9.488
69260SOL    HW1 9677   6.406   3.570   9.515
69260SOL    HW2 9678   6.267   3.560   9.456
69261SOL     OW 9679   7.982   4.210  10.334
69261SOL    HW1 9680   7.941   4.133  10.294
69261SOL    HW2 9681   7.912   4.253  10.383
69262SOL     OW 9682   0.066  11.677   7.235
69262SOL    HW1 9683   0.112  11.757   7.263
69262SOL    HW2 9684   0.134  11.610   7.233
69263SOL     OW 9685  10.083   8.766  10.609
69263SOL    HW1 9686  10.076   8.732  10.698
69263SOL    HW2 9687  10.141   8.842  10.617
69264SOL     OW 9688   6.741   0.711   0.316
69264SOL    HW1 9689   6.705   0.623   0.327
69264SOL    HW2 9690   6.836   0.700   0.320
69265SOL     OW 9691  10.813   1.487   6.009
69265SOL    HW1 9692  10.759   1.565   5.998
69265SOL    HW2 9693  10.842   1.489   6.100
69266SOL     OW 9694   0.085   2.188   6.716
69266SOL    HW1 9695   0.113   2.122   6.779
69266SOL    HW2 9696   0.000   2.156   6.683
69267SOL     OW 9697  12.543   5.997   8.344
69267SOL    HW1 9698  12.502   5.928   8.396
69267SOL    HW2 9699  12.517   5.976   8.254
69268SOL     OW 9700  12.552  10.410   1.990
69268SOL    HW1 9701  12.464  10.373   1.991
69268SOL    HW2 9702  12.550  10.475   1.919
69269SOL     OW 9703   4.720   7.383  12.448
69269SOL    HW1 9704   4.737   7.337  12.530
69269SOL    HW2 9705   4.660   7.326  12.400
69270SOL     OW 9706  10.958   2.221  11.095
69270SOL    HW1 9707  10.921   2.165  11.026
69270SOL    HW2 9708  10.975   2.304  11.051
69271SOL     OW 9709   8.662   5.909   4.193
69271SOL    HW1 9710   8.673   5.838   4.255
69271SOL    HW2 9711   8.626   5.981   4.244
69272SOL     OW 9712  12.997   8.902  12.067
69272SOL    HW1 9713  13.071   8.884  12.009
69272SOL    HW2 9714  12.919   8.887  12.012
69273SOL     OW 9715   5.216  14.867   2.317
69273SOL    HW1 9716   5.230  14.779   2.282
69273SOL    HW2 9717   5.301   0.032   2.309
69274SOL     OW 9718   7.164   3.078   9.190
69274SOL    HW1 9719   7.250   3.065   9.151
69274SOL    HW2 9720   7.147   3.171   9.179
69275SOL     OW 9721   1.731  10.213   5.572
69275SOL    HW1 9722   1.782  10.223   5.652
69275SOL    HW2 9723   1.663  10.280   5.578
69276SOL     OW 9724   0.785   7.335  10.199
69276SOL    HW1 9725   0.878   7.327  10.216
69276SOL    HW2 9726   0.772   7.291  10.115
69277SOL     OW 9727   9.297  10.793   8.447
69277SOL    HW1 9728   9.381  10.762   8.412
69277SOL    HW2 9729   9.318  10.831   8.532
69278SOL     OW 9730  13.801   4.558   6.584
69278SOL    HW1 9731  13.814   4.464   6.595
69278SOL    HW2 9732  13.781   4.589   6.673
69279SOL     OW 9733   9.408   0.296  13.139
69279SOL    HW1 9734   9.494   0.304  13.097
69279SOL    HW2 9735   9.387   0.203  13.132
69280SOL     OW 9736   0.396   2.908   4.199
69280SOL    HW1 9737   0.484   2.905   4.161
69280SOL    HW2 9738   0.411   2.915   4.293
69281SOL     OW 9739   2.268  13.135   1.110
69281SOL    HW1 9740   2.287  13.181   1.028
69281SOL    HW2 9741   2.289  13.044   1.091
69282SOL     OW 9742  10.374   3.538  12.800
69282SOL    HW1 9743  10.404   3.578  12.719
69282SOL    HW2 9744  10.338   3.610  12.851
69283SOL     OW 9745   6.935   7.872  13.591
69283SOL    HW1 9746   6.950   7.780  13.613
69283SOL    HW2 9747   6.895   7.909  13.669
69284SOL     OW 9748  12.418  14.304   0.070
69284SOL    HW1 9749  12.471  14.243   0.019
69284SOL    HW2 9750  12.331  14.264   0.072
69285SOL     OW 9751   6.865   4.197  14.683
69285SOL    HW1 9752   6.929   4.265  14.661
69285SOL    HW2 9753   6.904   4.116  14.650
69286SOL     OW 9754   8.005  10.453  14.421
69286SOL    HW1 9755   8.055  10.410  14.490
69286SOL    HW2 9756   8.017  10.547  14.438
69287SOL     OW 9757   4.377  10.444   3.723
69287SOL    HW1 9758   4.403  10.364   3.677
69287SOL    HW2 9759   4.453  10.467   3.776
69288SOL     OW 9760   6.382   1.665   6.796
69288SOL    HW1 9761   6.436   1.608   6.742
69288SOL    HW2 9762   6.419   1.752   6.784
69289SOL     OW 9763   0.777   6.453   6.010
69289SOL    HW1 9764   0.837   6.522   5.983
69289SOL    HW2 9765   0.700   6.465   5.954
69290SOL     OW 9766  13.136   0.748   9.020
69290SOL    HW1 9767  13.175   0.692   9.088
69290SOL    HW2 9768  13.046   0.762   9.049
69291SOL     OW 9769   1.891   4.898   1.864
69291SOL    HW1 9770   1.855   4.939   1.942
69291SOL    HW2 9771   1.921   4.812   1.894
69292SOL     OW 9772   8.497  11.726   4.333
69292SOL    HW1 9773   8.460  11.813   4.315
69292SOL    HW2 9774   8.441  11.690   4.401
69293SOL     OW 9775  14.589   8.197  14.727
69293SOL    HW1 9776  14.678   8.228  14.744
69293SOL    HW2 9777  14.586   8.112  14.772
69294SOL     OW 9778   8.699   3.855   4.571
69294SOL    HW1 9779   8.648   3.923   4.615
69294SOL    HW2 9780   8.655   3.773   4.593
69295SOL     OW 9781  14.085   4.587   7.713
69295SOL    HW1 9782  14.160   4.559   7.765
69295SOL    HW2 9783  14.037   4.506   7.694
69296SOL     OW 9784   8.157  13.498   3.129
69296SOL    HW1 9785   8.094  13.465   3.193
69296SOL    HW2 9786   8.203  13.568   3.176
69297SOL     OW 9787  13.833   0.571   7.630
69297SOL    HW1 9788  13.800   0.605   7.713
69297SOL    HW2 9789  13.892   0.499   7.655
69298SOL     OW 9790   4.332   6.950  12.613
69298SOL    HW1 9791   4.332   6.987  12.701
69298SOL    HW2 9792   4.261   6.996  12.568
69299SOL     OW 9793  14.660   3.989   5.080
69299SOL    HW1 9794  14.742   4.025   5.045
69299SOL    HW2 9795  14.680   3.897   5.097
69300SOL     OW 9796   1.370  11.445  10.725
69300SOL    HW1 9797   1.375  11.426  10.818
69300SOL    HW2 9798   1.316  11.524  10.720
69301SOL     OW 9799   6.625  13.977   4.427
69301SOL    HW1 9800   6.688  13.909   4.451
69301SOL    HW2 9801   6.673  14.033   4.366
69302SOL     OW 9802  14.519  10.746   7.392
69302SOL    HW1 9803  14.541  10.802   7.318
69302SOL    HW2 9804  14.475  10.671   7.354
69303SOL     OW 9805   5.859   8.090  14.170
69303SOL    HW1 9806   5.932   8.037  14.137
69303SOL    HW2 9807   5.782   8.054  14.127
69304SOL     OW 9808   2.399   6.884   0.970
69304SOL    HW1 9809   2.355   6.842   0.897
69304SOL    HW2 9810   2.429   6.811   1.025
69305SOL     OW 9811   9.541   7.930   5.748
69305SOL    HW1 9812   9.608   7.997   5.736
69305SOL    HW2 9813   9.588   7.847   5.733
69306SOL     OW 9814   7.539  12.708  10.527
69306SOL    HW1 9815   7.547  12.645  10.456
69306SOL    HW2 9816   7.464  12.678  10.578
69307SOL     OW 9817   3.810  14.816   9.923
69307SOL    HW1 9818   3.788  14.869   9.846
69307SOL    HW2 9819   3.759  14.855   9.995
69308SOL     OW 9820   5.052   6.210   0.440
69308SOL    HW1 9821   5.026   6.230   0.530
69308SOL    HW2 9822   4.994   6.265   0.386
69309SOL     OW 9823   3.093  14.558   8.147
69309SOL    HW1 9824   3.155  14.488   8.170
69309SOL    HW2 9825   3.013  14.512   8.123
69310SOL     OW 9826   9.697  11.071   2.060
69310SOL    HW1 9827   9.699  11.104   2.150
69310SOL    HW2 9828   9.613  11.099   2.025
69311SOL     OW 9829   6.899   1.694   9.833
69311SOL    HW1 9830   6.926   1.750   9.760
69311SOL    HW2 9831   6.930   1.739   9.911
69312SOL     OW 9832   3.785   3.634  14.858
69312SOL    HW1 9833   3.870   3.647  14.816
69312SOL    HW2 9834   3.758   3.546  14.834
69313SOL     OW 9835   5.215   6.986  10.668
69313SOL    HW1 9836   5.298   7.013  10.709
69313SOL    HW2 9837   5.173   6.930  10.733
69314SOL     OW 9838   7.606   7.806   2.287
69314SOL    HW1 9839   7.524   7.854   2.276
69314SOL    HW2 9840   7.655   7.857   2.352
69315SOL     OW 9841  10.109   4.355  13.663
69315SOL    HW1 9842  10.204   4.358  13.672
69315SOL    HW2 9843  10.095   4.308  13.580
69316SOL     OW 9844  10.429   8.494  14.624
69316SOL    HW1 9845  10.443   8.550  14.700
69316SOL    HW2 9846  10.439   8.405  14.658
69317SOL     OW 9847   8.039  12.485   0.867
69317SOL    HW1 9848   8.123  12.528   0.884
69317SOL    HW2 9849   8.006  12.460   0.954
69318SOL     OW 9850  11.427   8.853   2.628
69318SOL    HW1 9851  11.387   8.833   2.543
69318SOL    HW2 9852  11.484   8.778   2.645
69319SOL     OW 9853  14.301   6.136   7.239
69319SOL    HW1 9854  14.302   6.192   7.161
69319SOL    HW2 9855  14.326   6.195   7.310
69320SOL     OW 9856   5.917  10.794   5.875
69320SOL    HW1 9857   5.955  10.864   5.929
69320SOL    HW2 9858   5.946  10.814   5.786
69321SOL     OW 9859  10.872  14.366  11.160
69321SOL    HW1 9860  10.967  14.377  11.148
69321SOL    HW2 9861  10.862  14.273  11.180
69322SOL     OW 9862   7.001  12.990  12.286
69322SOL    HW1 9863   7.066  12.948  12.230
69322SOL    HW2 9864   6.949  12.918  12.322
69323SOL     OW 9865   6.427  12.018   8.760
69323SOL    HW1 9866   6.354  11.956   8.756
69323SOL    HW2 9867   6.491  11.983   8.698
69324SOL     OW 9868   8.301   5.527  10.945
69324SOL    HW1 9869   8.256   5.571  11.017
69324SOL    HW2 9870   8.393   5.552  10.956
69325SOL     OW 9871  11.145   3.174  11.515
69325SOL    HW1 9872  11.138   3.124  11.433
69325SOL    HW2 9873  11.231   3.215  11.511
69326SOL     OW 9874  10.918   6.643   4.955
69326SOL    HW1 9875  10.975   6.697   5.011
69326SOL    HW2 9876  10.895   6.700   4.882
69327SOL     OW 9877   5.576  13.837   6.731
69327SOL    HW1 9878   5.640  13.789   6.677
69327SOL    HW2 9879   5.628  13.904   6.775
69328SOL     OW 9880   3.656  14.398   1.199
69328SOL    HW1 9881   3.652  14.482   1.246
69328SOL    HW2 9882   3.684  14.421   1.111
69329SOL     OW 9883  13.008   8.309   0.339
69329SOL    HW1 9884  13.041   8.261   0.263
69329SOL    HW2 9885  13.042   8.260   0.414
69330SOL     OW 9886   8.781  13.881   0.827
69330SOL    HW1 9887   8.693  13.866   0.792
69330SOL    HW2 9888   8.834  13.809   0.793
69331SOL     OW 9889   0.833   4.640  14.734
69331SOL    HW1 9890   0.755   4.678  14.694
69331SOL    HW2 9891   0.803   4.555  14.767
69332SOL     OW 9892   0.172  14.458   6.704
69332SOL    HW1 9893   0.079  14.440   6.688
69332SOL    HW2 9894   0.171  14.515   6.782
69333SOL     OW 9895   8.735   8.475   4.580
69333SOL    HW1 9896   8.656   8.528   4.592
69333SOL    HW2 9897   8.721   8.399   4.637
69334SOL     OW 9898   3.034  10.951   3.020
69334SOL    HW1 9899   3.010  11.012   3.089
69334SOL    HW2 9900   2.994  10.988   2.941
69335SOL     OW 9901  11.827  10.118   9.631
69335SOL    HW1 9902  11.781  10.092   9.551
69335SOL    HW2 9903  11.910  10.154   9.601
69336SOL     OW 9904   8.128   9.414   7.134
69336SOL    HW1 9905   8.160   9.406   7.224
69336SOL    HW2 9906   8.048   9.467   7.142
69337SOL     OW 9907   0.181   3.788  12.779
69337SOL    HW1 9908   0.161   3.816  12.868
69337SOL    HW2 9909   0.113   3.724  12.758
69338SOL     OW 9910   3.684   8.474  10.823
69338SOL    HW1 9911   3.748   8.402  10.825
69338SOL    HW2 9912   3.642   8.470  10.909
69339SOL     OW 9913  11.258   3.299   3.374
69339SOL    HW1 9914  11.170   3.327   3.348
69339SOL    HW2 9915  11.306   3.292   3.292
69340SOL     OW 9916   8.383   9.501   2.389
69340SOL    HW1 9917   8.445   9.538   2.452
69340SOL    HW2 9918   8.306   9.557   2.394
69341SOL     OW 9919   9.786   4.394   0.531
69341SOL    HW1 9920   9.843   4.321   0.509
69341SOL    HW2 9921   9.783   4.395   0.626
69342SOL     OW 9922   4.387   1.845  13.235
69342SOL    HW1 9923   4.332   1.921  13.214
69342SOL    HW2 9924   4.442   1.835  13.157
69343SOL     OW 9925   1.114   5.762  10.967
69343SOL    HW1 9926   1.047   5.765  10.899
69343SOL    HW2 9927   1.132   5.853  10.988
69344SOL     OW 9928  13.366   7.567  12.337
69344SOL    HW1 9929  13.295   7.523  12.291
69344SOL    HW2 9930  13.444   7.516  12.316
69345SOL     OW 9931  12.243  10.585   6.297
69345SOL    HW1 9932  12.299  10.650   6.339
69345SOL    HW2 9933  12.240  10.610   6.205
69346SOL     OW 9934  10.401   6.704   0.398
69346SOL    HW1 9935  10.337   6.721   0.467
69346SOL    HW2 9936  10.486   6.721   0.438
69347SOL     OW 9937  14.390  10.199   0.727
69347SOL    HW1 9938  14.451  10.160   0.664
69347SOL    HW2 9939  14.379  10.132   0.794
69348SOL     OW 9940   8.921   7.797   3.478
69348SOL    HW1 9941   9.011   7.821   3.499
69348SOL    HW2 9942   8.926   7.707   3.446
69349SOL     OW 9943   3.267   9.107   4.294
69349SOL    HW1 9944   3.213   9.132   4.368
69349SOL    HW2 9945   3.247   9.171   4.226
69350SOL     OW 9946  11.083   3.966  10.268
69350SOL    HW1 9947  11.006   3.966  10.325
69350SOL    HW2 9948  11.104   4.059  10.256
69351SOL     OW 9949  11.899   8.262   9.820
69351SOL    HW1 9950  11.899   8.249   9.915
69351SOL    HW2 9951  11.873   8.177   9.784
69352SOL     OW 9952   7.405  10.701   8.618
69352SOL    HW1 9953   7.367  10.724   8.702
69352SOL    HW2 9954   7.334  10.656   8.571
69353SOL     OW 9955   4.817   9.833   4.810
69353SOL    HW1 9956   4.759   9.760   4.793
69353SOL    HW2 9957   4.759   9.908   4.823
69354SOL     OW 9958  12.182  10.041   9.759
69354SOL    HW1 9959  12.183  10.047   9.854
69354SOL    HW2 9960  12.166  10.130   9.729
69355SOL     OW 9961  11.488   1.295   1.884
69355SOL    HW1 9962  11.577   1.266   1.905
69355SOL    HW2 9963  11.471   1.365   1.947
69356SOL     OW 9964   6.208  10.544   4.280
69356SOL    HW1 9965   6.183  10.592   4.359
69356SOL    HW2 9966   6.161  10.588   4.210
69357SOL     OW 9967  12.487  14.167   4.615
69357SOL    HW1 9968  12.546  14.228   4.659
69357SOL    HW2 9969  12.543  14.118   4.555
69358SOL     OW 9970   5.078  10.363  13.047
69358SOL    HW1 9971   5.066  10.311  12.968
69358SOL    HW2 9972   5.122  10.304  13.109
69359SOL     OW 9973   0.079   0.125   1.538
69359SOL    HW1 9974   0.054   0.099   1.449
69359SOL    HW2 9975   0.017   0.080   1.595
69360SOL     OW 9976   3.144   2.756  11.669
69360SOL    HW1 9977   3.076   2.696  11.700
69360SOL    HW2 9978   3.225   2.705  11.677
69361SOL     OW 9979   5.464   7.089   4.675
69361SOL    HW1 9980   5.491   7.010   4.627
69361SOL    HW2 9981   5.517   7.089   4.754
69362SOL     OW 9982   3.859   2.220  10.975
69362SOL    HW1 9983   3.846   2.131  11.006
69362SOL    HW2 9984   3.933   2.214  10.915
69363SOL     OW 9985   0.555   1.844   1.160
69363SOL    HW1 9986   0.570   1.749   1.156
69363SOL    HW2 9987   0.469   1.853   1.199
69364SOL     OW 9988   9.995  12.909  12.848
69364SOL    HW1 9989   9.943  12.846  12.797
69364SOL    HW2 9990   9.985  12.881  12.939
69365SOL     OW 9991   4.852  11.327   9.960
69365SOL    HW1 9992   4.842  11.243  10.006
69365SOL    HW2 9993   4.934  11.318   9.911
69366SOL     OW 9994   2.707   4.121   8.669
69366SOL    HW1 9995   2.646   4.048   8.656
69366SOL    HW2 9996   2.659   4.198   8.640
69367SOL     OW 9997  13.042   1.099   0.689
69367SOL    HW1 9998  12.996   1.039   0.629
69367SOL    HW2 9999  12.973   1.135   0.744
69368SOL     OW10000   0.241  11.311   1.043
69368SOL    HW110001   0.260  11.238   0.984
69368SOL    HW210002   0.185  11.273   1.110
69369SOL     OW10003  11.329   7.188   4.113
69369SOL    HW110004  11.390   7.252   4.078
69369SOL    HW210005  11.384   7.113   4.137
69370SOL     OW10006   5.206   3.917   6.539
69370SOL    HW110007   5.138   3.979   6.512
69370SOL    HW210008   5.235   3.948   6.624
69371SOL     OW10009   6.599  14.311   2.642
69371SOL    HW110010   6.527  14.279   2.587
69371SOL    HW210011   6.678  14.283   2.595
69372SOL     OW10012   1.908  13.376  13.551
69372SOL    HW110013   1.816  13.352  13.553
69372SOL    HW210014   1.949  13.310  13.494
69373SOL     OW10015   4.882   7.085   6.454
69373SOL    HW110016   4.866   7.151   6.522
69373SOL    HW210017   4.937   7.131   6.389
69374SOL     OW10018   9.278  14.062   6.160
69374SOL    HW110019   9.316  14.147   6.138
69374SOL    HW210020   9.323  14.037   6.242
69375SOL     OW10021   1.231   4.790   1.070
69375SOL    HW110022   1.286   4.827   1.001
69375SOL    HW210023   1.293   4.762   1.137
69376SOL     OW10024   2.111   8.731  12.112
69376SOL    HW110025   2.177   8.688  12.167
69376SOL    HW210026   2.029   8.721  12.160
69377SOL     OW10027  10.078   5.203  11.973
69377SOL    HW110028  10.124   5.166  12.048
69377SOL    HW210029  10.141   5.261  11.932
69378SOL     OW10030   8.926  13.657  14.007
69378SOL    HW110031   8.934  13.562  13.994
69378SOL    HW210032   8.831  13.672  14.013
69379SOL     OW10033   5.956   0.772  11.021
69379SOL    HW110034   6.018   0.792  11.092
69379SOL    HW210035   6.010   0.736  10.951
69380SOL     OW10036   4.769   4.120  10.452
69380SOL    HW110037   4.769   4.053  10.520
69380SOL    HW210038   4.858   4.117  10.416
69381SOL     OW10039  11.564   7.185   0.310
69381SOL    HW110040  11.468   7.177   0.313
69381SOL    HW210041  11.582   7.214   0.220
69382SOL     OW10042   8.148   2.056   4.427
69382SOL    HW110043   8.243   2.057   4.434
69382SOL    HW210044   8.119   1.990   4.490
69383SOL     OW10045   8.502   0.366   4.159
69383SOL    HW110046   8.511   0.378   4.254
69383SOL    HW210047   8.413   0.396   4.140
69384SOL     OW10048   5.761   3.824  10.181
69384SOL    HW110049   5.713   3.748  10.148
69384SOL    HW210050   5.825   3.844  10.112
69385SOL     OW10051   7.649   8.149   1.063
69385SOL    HW110052   7.733   8.182   1.031
69385SOL    HW210053   7.584   8.209   1.026
69386SOL     OW10054   5.451  12.935  10.013
69386SOL    HW110055   5.532  12.890  10.036
69386SOL    HW210056   5.433  12.907   9.923
69387SOL     OW10057   2.382   3.966   5.520
69387SOL    HW110058   2.301   3.929   5.555
69387SOL    HW210059   2.431   3.891   5.487
69388SOL     OW10060   0.075  13.315  12.616
69388SOL    HW110061   0.019  13.393  12.615
69388SOL    HW210062   0.104  13.305  12.525
69389SOL     OW10063   2.739   5.315   4.800
69389SOL    HW110064   2.730   5.400   4.757
69389SOL    HW210065   2.659   5.268   4.777
69390SOL     OW10066   6.306   0.741   1.543
69390SOL    HW110067   6.336   0.765   1.631
69390SOL    HW210068   6.314   0.646   1.540
69391SOL     OW10069   9.824   3.109  11.667
69391SOL    HW110070   9.891   3.053  11.626
69391SOL    HW210071   9.872   3.188  11.693
69392SOL     OW10072  13.052   1.491   8.158
69392SOL    HW110073  12.964   1.480   8.193
69392SOL    HW210074  13.071   1.409   8.112
69393SOL     OW10075  12.374  10.209  13.432
69393SOL    HW110076  12.451  10.154  13.429
69393SOL    HW210077  12.408  10.298  13.426
69394SOL     OW10078  14.315   9.778  13.050
69394SOL    HW110079  14.250   9.824  13.103
69394SOL    HW210080  14.284   9.687  13.049
69395SOL     OW10081   6.419   6.710  11.487
69395SOL    HW110082   6.491   6.662  11.528
69395SOL    HW210083   6.408   6.670  11.401
69396SOL     OW10084   7.238  10.468  10.655
69396SOL    HW110085   7.306  10.530  10.628
69396SOL    HW210086   7.165  10.484  10.596
69397SOL     OW10087   0.074   4.996   2.241
69397SOL    HW110088   0.004   4.931   2.250
69397SOL    HW210089   0.095   4.995   2.148
69398SOL     OW10090   8.421   4.113   3.929
69398SOL    HW110091   8.447   4.192   3.977
69398SOL    HW210092   8.503   4.076   3.896
69399SOL     OW10093  12.785   8.628   7.475
69399SOL    HW110094  12.699   8.605   7.510
69399SOL    HW210095  12.783   8.597   7.385
69400SOL     OW10096   1.200  11.497   5.169
69400SOL    HW110097   1.176  11.578   5.214
69400SOL    HW210098   1.155  11.502   5.084
69401SOL     OW10099   6.660   0.239  12.918
69401SOL    HW110100   6.737   0.245  12.862
69401SOL    HW210101   6.683   0.172  12.983
69402SOL     OW10102   1.480   7.645   0.757
69402SOL    HW110103   1.570   7.676   0.750
69402SOL    HW210104   1.441   7.699   0.825
69403SOL     OW10105   6.534   2.665   3.883
69403SOL    HW110106   6.512   2.662   3.790
69403SOL    HW210107   6.497   2.584   3.919
69404SOL     OW10108   2.383   5.818   1.454
69404SOL    HW110109   2.467   5.784   1.484
69404SOL    HW210110   2.405   5.872   1.378
69405SOL     OW10111   9.548   7.794   3.877
69405SOL    HW110112   9.456   7.800   3.853
69405SOL    HW210113   9.552   7.720   3.938
69406SOL     OW10114  14.787   6.437   5.478
69406SOL    HW110115  14.797   6.526   5.444
69406SOL    HW210116  14.826   6.381   5.410
69407SOL     OW10117   9.263  10.952   4.791
69407SOL    HW110118   9.342  11.006   4.791
69407SOL    HW210119   9.295  10.862   4.799
69408SOL     OW10120   5.011   4.091   1.476
69408SOL    HW110121   5.091   4.110   1.525
69408SOL    HW210122   4.998   3.996   1.486
69409SOL     OW10123   5.618  11.957   1.518
69409SOL    HW110124   5.700  12.007   1.514
69409SOL    HW210125   5.549  12.021   1.505
69410SOL     OW10126  11.498  11.568   6.058
69410SOL    HW110127  11.546  11.493   6.023
69410SOL    HW210128  11.562  11.639   6.062
69411SOL     OW10129   4.164  13.014   9.211
69411SOL    HW110130   4.260  13.008   9.205
69411SOL    HW210131   4.147  13.036   9.302
69412SOL     OW10132   4.861  13.013  12.894
69412SOL    HW110133   4.831  12.955  12.964
69412SOL    HW210134   4.932  13.064  12.933
69413SOL     OW10135   0.300   0.063   0.400
69413SOL    HW110136   0.368   0.130   0.404
69413SOL    HW210137   0.233   0.099   0.342
69414SOL     OW10138   3.561   6.705  11.024
69414SOL    HW110139   3.624   6.641  10.992
69414SOL    HW210140   3.507   6.656  11.087
69415SOL     OW10141   6.905   6.049   8.203
69415SOL    HW110142   6.972   6.097   8.251
69415SOL    HW210143   6.872   5.985   8.266
69416SOL     OW10144   4.780   3.375   3.293
69416SOL    HW110145   4.713   3.430   3.254
69416SOL    HW210146   4.798   3.308   3.227
69417SOL     OW10147  10.857   4.709   2.820
69417SOL    HW110148  10.933   4.675   2.771
69417SOL    HW210149  10.852   4.653   2.898
69418SOL     OW10150  14.716  14.177  12.336
69418SOL    HW110151  14.649  14.241  12.359
69418SOL    HW210152  14.753  14.150  12.420
69419SOL     OW10153  10.535   7.364  12.773
69419SOL    HW110154  10.497   7.305  12.838
69419SOL    HW210155  10.478   7.354  12.696
69420SOL     OW10156   0.974  10.293  13.189
69420SOL    HW110157   1.044  10.229  13.202
69420SOL    HW210158   0.920  10.255  13.119
69421SOL     OW10159   7.356   3.109   4.433
69421SOL    HW110160   7.313   3.064   4.505
69421SOL    HW210161   7.309   3.192   4.424
69422SOL     OW10162   3.982   6.305   8.410
69422SOL    HW110163   4.009   6.277   8.322
69422SOL    HW210164   3.995   6.227   8.464
69423SOL     OW10165   6.765  13.060   1.554
69423SOL    HW110166   6.822  13.092   1.483
69423SOL    HW210167   6.795  12.971   1.571
69424SOL     OW10168   3.466   4.082   8.661
69424SOL    HW110169   3.536   4.023   8.632
69424SOL    HW210170   3.399   4.024   8.697
69425SOL     OW10171   0.085   4.546   2.849
69425SOL    HW110172   0.030   4.496   2.789
69425SOL    HW210173   0.163   4.568   2.798
69426SOL     OW10174   0.028   3.235  12.259
69426SOL    HW110175   0.028   3.147  12.297
69426SOL    HW210176   0.076   3.225  12.177
69427SOL     OW10177   4.194  10.793  11.530
69427SOL    HW110178   4.114  10.813  11.577
69427SOL    HW210179   4.204  10.864  11.467
69428SOL     OW10180   3.783   9.671  11.152
69428SOL    HW110181   3.837   9.743  11.121
69428SOL    HW210182   3.844   9.598  11.162
69429SOL     OW10183   9.165   1.404   7.007
69429SOL    HW110184   9.090   1.436   6.957
69429SOL    HW210185   9.178   1.469   7.075
69430SOL     OW10186   3.413  13.391   2.004
69430SOL    HW110187   3.422  13.483   1.980
69430SOL    HW210188   3.319  13.374   1.998
69431SOL     OW10189  13.635   9.714   5.381
69431SOL    HW110190  13.593   9.630   5.396
69431SOL    HW210191  13.713   9.693   5.330
69432SOL     OW10192   1.630   3.350   4.063
69432SOL    HW110193   1.621   3.258   4.039
69432SOL    HW210194   1.690   3.350   4.138
69433SOL     OW10195   1.556  11.266  10.011
69433SOL    HW110196   1.512  11.243  10.093
69433SOL    HW210197   1.522  11.352   9.989
69434SOL     OW10198   2.289  13.842   6.617
69434SOL    HW110199   2.320  13.892   6.541
69434SOL    HW210200   2.252  13.762   6.580
69435SOL     OW10201   6.211  13.011   1.252
69435SOL    HW110202   6.175  13.028   1.165
69435SOL    HW210203   6.189  12.919   1.269
69436SOL     OW10204  12.290   2.541   5.563
69436SOL    HW110205  12.228   2.553   5.634
69436SOL    HW210206  12.242   2.492   5.496
69437SOL     OW10207   6.744  10.112  14.812
69437SOL    HW110208   6.750  10.195  14.859
69437SOL    HW210209   6.713  10.050   0.001
69438SOL     OW10210   7.113   2.452  12.408
69438SOL    HW110211   7.174   2.447  12.482
69438SOL    HW210212   7.123   2.368  12.364
69439SOL     OW10213   9.002  14.518  14.565
69439SOL    HW110214   8.907  14.524  14.564
69439SOL    HW210215   9.024  14.487  14.653
69440SOL     OW10216   0.224   5.136   3.936
69440SOL    HW110217   0.304   5.094   3.969
69440SOL    HW210218   0.186   5.071   3.876
69441SOL     OW10219   4.636  13.040   9.836
69441SOL    HW110220   4.615  13.000   9.920
69441SOL    HW210221   4.731  13.051   9.838
69442SOL     OW10222  10.482   6.015  10.039
69442SOL    HW110223  10.399   6.003   9.992
69442SOL    HW210224  10.517   5.926  10.048
69443SOL     OW10225  13.999   1.961  10.376
69443SOL    HW110226  13.990   1.979  10.283
69443SOL    HW210227  14.087   1.924  10.385
69444SOL     OW10228   1.103  11.345   6.301
69444SOL    HW110229   1.042  11.417   6.288
69444SOL    HW210230   1.123  11.314   6.213
69445SOL     OW10231   4.500   9.607   5.052
69445SOL    HW110232   4.430   9.615   5.117
69445SOL    HW210233   4.571   9.563   5.098
69446SOL     OW10234   3.824   2.572   8.671
69446SOL    HW110235   3.897   2.560   8.611
69446SOL    HW210236   3.809   2.667   8.672
69447SOL     OW10237   3.779   2.222  12.527
69447SOL    HW110238   3.833   2.168  12.469
69447SOL    HW210239   3.810   2.311  12.512
69448SOL     OW10240   3.014   8.235   0.301
69448SOL    HW110241   2.956   8.311   0.292
69448SOL    HW210242   3.036   8.232   0.394
69449SOL     OW10243  12.804  10.124   1.532
69449SOL    HW110244  12.721  10.167   1.512
69449SOL    HW210245  12.857  10.136   1.453
69450SOL     OW10246  14.324   4.422   3.908
69450SOL    HW110247  14.373   4.355   3.956
69450SOL    HW210248  14.314   4.494   3.970
69451SOL     OW10249   3.561  12.695   4.440
69451SOL    HW110250   3.587  12.780   4.475
69451SOL    HW210251   3.465  12.696   4.444
69452SOL     OW10252  13.290   2.864  13.875
69452SOL    HW110253  13.199   2.894  13.869
69452SOL    HW210254  13.337   2.920  13.813
69453SOL     OW10255  14.697  10.430   7.089
69453SOL    HW110256  14.633  10.405   7.155
69453SOL    HW210257  14.679  10.523   7.072
69454SOL     OW10258   8.415   9.893  14.304
69454SOL    HW110259   8.352   9.870  14.372
69454SOL    HW210260   8.386   9.845  14.227
69455SOL     OW10261  10.559   3.338   4.815
69455SOL    HW110262  10.469   3.369   4.823
69455SOL    HW210263  10.555   3.245   4.838
69456SOL     OW10264   2.537   2.456  12.617
69456SOL    HW110265   2.520   2.462  12.711
69456SOL    HW210266   2.488   2.528  12.578
69457SOL     OW10267   2.252   8.885   8.485
69457SOL    HW110268   2.213   8.934   8.414
69457SOL    HW210269   2.344   8.877   8.461
69458SOL     OW10270  12.817   9.811   3.200
69458SOL    HW110271  12.784   9.894   3.233
69458SOL    HW210272  12.902   9.800   3.243
69459SOL     OW10273  12.342   8.359   8.388
69459SOL    HW110274  12.333   8.389   8.478
69459SOL    HW210275  12.344   8.439   8.336
69460SOL     OW10276   4.837   4.262  12.572
69460SOL    HW110277   4.843   4.242  12.666
69460SOL    HW210278   4.888   4.193  12.530
69461SOL     OW10279  13.717   0.955   8.326
69461SOL    HW110280  13.703   0.985   8.416
69461SOL    HW210281  13.631   0.924   8.297
69462SOL     OW10282  13.485   1.820   9.136
69462SOL    HW110283  13.546   1.893   9.125
69462SOL    HW210284  13.408   1.846   9.085
69463SOL     OW10285  12.600  11.356   0.623
69463SOL    HW110286  12.640  11.275   0.592
69463SOL    HW210287  12.580  11.340   0.715
69464SOL     OW10288  14.674   3.651  11.017
69464SOL    HW110289  14.719   3.714  10.962
69464SOL    HW210290  14.642   3.584  10.956
69465SOL     OW10291   9.832   3.500   0.731
69465SOL    HW110292   9.920   3.465   0.738
69465SOL    HW210293   9.837   3.564   0.660
69466SOL     OW10294   4.247   6.568  12.374
69466SOL    HW110295   4.241   6.617  12.292
69466SOL    HW210296   4.196   6.489  12.358
69467SOL     OW10297   5.794   1.695   0.471
69467SOL    HW110298   5.818   1.617   0.420
69467SOL    HW210299   5.702   1.710   0.448
69468SOL     OW10300  11.876  14.083  13.138
69468SOL    HW110301  11.808  14.039  13.190
69468SOL    HW210302  11.877  14.173  13.170
69469SOL     OW10303   3.433  13.923   8.880
69469SOL    HW110304   3.464  13.900   8.793
69469SOL    HW210305   3.489  13.995   8.908
69470SOL     OW10306   6.657  10.887  10.073
69470SOL    HW110307   6.664  10.938  10.153
69470SOL    HW210308   6.605  10.810  10.097
69471SOL     OW10309  12.992   0.277   4.058
69471SOL    HW110310  12.990   0.314   3.970
69471SOL    HW210311  12.991   0.354   4.116
69472SOL     OW10312   0.015   4.345   2.446
69472SOL    HW110313   0.010   4.327   2.540
69472SOL    HW210314   0.073   4.277   2.413
69473SOL     OW10315   8.334  11.142  11.956
69473SOL    HW110316   8.308  11.218  12.008
69473SOL    HW210317   8.394  11.093  12.013
69474SOL     OW10318  11.410   2.332   4.804
69474SOL    HW110319  11.474   2.274   4.762
69474SOL    HW210320  11.390   2.397   4.737
69475SOL     OW10321   3.247  12.625   5.795
69475SOL    HW110322   3.341  12.609   5.802
69475SOL    HW210323   3.222  12.580   5.714
69476SOL     OW10324  13.497   3.954  10.247
69476SOL    HW110325  13.591   3.945  10.266
69476SOL    HW210326  13.454   3.898  10.311
69477SOL     OW10327   5.683   5.387   6.991
69477SOL    HW110328   5.775   5.415   6.993
69477SOL    HW210329   5.652   5.412   6.904
69478SOL     OW10330   7.053  14.720   8.436
69478SOL    HW110331   6.977  14.704   8.491
69478SOL    HW210332   7.022  14.782   8.370
69479SOL     OW10333  12.439   3.194  13.424
69479SOL    HW110334  12.494   3.129  13.379
69479SOL    HW210335  12.349   3.169  13.401
69480SOL     OW10336  12.212   6.618   9.900
69480SOL    HW110337  12.197   6.711   9.919
69480SOL    HW210338  12.126   6.585   9.876
69481SOL     OW10339   4.988  12.663   5.672
69481SOL    HW110340   5.072  12.702   5.696
69481SOL    HW210341   4.926  12.736   5.675
69482SOL     OW10342   8.224   5.611  10.701
69482SOL    HW110343   8.253   5.569  10.782
69482SOL    HW210344   8.223   5.705  10.722
69483SOL     OW10345  13.516  14.179   5.785
69483SOL    HW110346  13.563  14.247   5.738
69483SOL    HW210347  13.464  14.134   5.718
69484SOL     OW10348   9.178   7.751   8.764
69484SOL    HW110349   9.199   7.706   8.846
69484SOL    HW210350   9.084   7.736   8.752
69485SOL     OW10351  14.212   0.150   6.087
69485SOL    HW110352  14.139   0.183   6.139
69485SOL    HW210353  14.286   0.147   6.148
69486SOL     OW10354   3.284  10.717  10.790
69486SOL    HW110355   3.268  10.623  10.789
69486SOL    HW210356   3.379  10.726  10.790
69487SOL     OW10357  13.707  10.479  10.942
69487SOL    HW110358  13.627  10.438  10.909
69487SOL    HW210359  13.721  10.440  11.028
69488SOL     OW10360   3.931   2.820   6.186
69488SOL    HW110361   4.004   2.866   6.144
69488SOL    HW210362   3.853   2.867   6.156
69489SOL     OW10363  13.256   9.201  13.470
69489SOL    HW110364  13.263   9.253  13.390
69489SOL    HW210365  13.237   9.265  13.539
69490SOL     OW10366   2.188  13.156   5.254
69490SOL    HW110367   2.178  13.110   5.338
69490SOL    HW210368   2.101  13.150   5.213
69491SOL     OW10369   3.572   5.736   7.854
69491SOL    HW110370   3.532   5.689   7.781
69491SOL    HW210371   3.567   5.828   7.830
69492SOL     OW10372   4.042  13.256  10.481
69492SOL    HW110373   3.952  13.224  10.473
69492SOL    HW210374   4.052  13.276  10.574
69493SOL     OW10375  10.095  13.066   4.126
69493SOL    HW110376  10.099  12.972   4.143
69493SOL    HW210377  10.062  13.073   4.036
69494SOL     OW10378   7.119  12.082   0.643
69494SOL    HW110379   7.204  12.125   0.655
69494SOL    HW210380   7.054  12.151   0.660
69495SOL     OW10381  10.163   8.502   2.991
69495SOL    HW110382  10.212   8.439   2.938
69495SOL    HW210383  10.173   8.585   2.944
69496SOL     OW10384  13.254  11.320   5.582
69496SOL    HW110385  13.253  11.393   5.520
69496SOL    HW210386  13.177  11.334   5.637
69497SOL     OW10387   0.756   5.998   3.674
69497SOL    HW110388   0.834   6.048   3.699
69497SOL    HW210389   0.769   5.911   3.713
69498SOL     OW10390   3.994  14.448   6.016
69498SOL    HW110391   4.081  14.434   6.052
69498SOL    HW210392   3.994  14.399   5.934
69499SOL     OW10393   4.998   5.575  11.150
69499SOL    HW110394   4.997   5.557  11.244
69499SOL    HW210395   4.907   5.568  11.122
69500SOL     OW10396   4.917   2.220  14.473
69500SOL    HW110397   4.929   2.254  14.384
69500SOL    HW210398   4.877   2.134  14.460
69501SOL     OW10399   6.754   1.630  12.820
69501SOL    HW110400   6.748   1.612  12.913
69501SOL    HW210401   6.680   1.687  12.802
69502SOL     OW10402  11.141   4.982  13.406
69502SOL    HW110403  11.079   4.993  13.478
69502SOL    HW210404  11.217   4.941  13.446
69503SOL     OW10405   1.234   7.599  11.559
69503SOL    HW110406   1.215   7.583  11.466
69503SOL    HW210407   1.270   7.516  11.590
69504SOL     OW10408   9.520   1.001   0.889
69504SOL    HW110409   9.426   0.984   0.900
69504SOL    HW210410   9.558   0.916   0.867
69505SOL     OW10411   1.431  10.814   6.889
69505SOL    HW110412   1.351  10.865   6.899
69505SOL    HW210413   1.468  10.809   6.977
69506SOL     OW10414   9.544   0.258   4.559
69506SOL    HW110415   9.631   0.225   4.539
69506SOL    HW210416   9.553   0.300   4.644
69507SOL     OW10417   6.346  12.101   0.551
69507SOL    HW110418   6.416  12.037   0.561
69507SOL    HW210419   6.388  12.178   0.513
69508SOL     OW10420  13.364  11.653  11.376
69508SOL    HW110421  13.368  11.719  11.445
69508SOL    HW210422  13.369  11.704  11.295
69509SOL     OW10423   2.266   2.466   7.682
69509SOL    HW110424   2.227   2.420   7.607
69509SOL    HW210425   2.292   2.396   7.742
69510SOL     OW10426   3.617  11.756  12.434
69510SOL    HW110427   3.584  11.757  12.344
69510SOL    HW210428   3.610  11.847  12.462
69511SOL     OW10429   8.042   6.812   3.461
69511SOL    HW110430   8.088   6.757   3.398
69511SOL    HW210431   8.041   6.899   3.420
69512SOL     OW10432   1.361  14.611   2.886
69512SOL    HW110433   1.283  14.555   2.881
69512SOL    HW210434   1.354  14.654   2.971
69513SOL     OW10435  12.281  11.428   2.705
69513SOL    HW110436  12.284  11.362   2.636
69513SOL    HW210437  12.365  11.419   2.750
69514SOL     OW10438   5.537  10.096  12.947
69514SOL    HW110439   5.541  10.189  12.924
69514SOL    HW210440   5.612  10.083  13.005
69515SOL     OW10441   6.716   7.832   6.088
69515SOL    HW110442   6.774   7.821   6.163
69515SOL    HW210443   6.714   7.746   6.046
69516SOL     OW10444   5.146  13.637  12.850
69516SOL    HW110445   5.087  13.562  12.847
69516SOL    HW210446   5.147  13.663  12.942
69517SOL     OW10447  12.278   4.784   0.789
69517SOL    HW110448  12.313   4.862   0.832
69517SOL    HW210449  12.187   4.779   0.819
69518SOL     OW10450  12.899   1.813  13.797
69518SOL    HW110451  12.819   1.785  13.753
69518SOL    HW210452  12.969   1.764  13.754
69519SOL     OW10453   1.787  12.802  13.120
69519SOL    HW110454   1.744  12.735  13.067
69519SOL    HW210455   1.877  12.806  13.086
69520SOL     OW10456   7.202   9.329  10.547
69520SOL    HW110457   7.230   9.240  10.527
69520SOL    HW210458   7.119   9.319  10.594
69521SOL     OW10459   0.228   8.218  10.214
69521SOL    HW110460   0.307   8.232  10.267
69521SOL    HW210461   0.182   8.146  10.258
69522SOL     OW10462   5.183   3.806   3.584
69522SOL    HW110463   5.119   3.788   3.515
69522SOL    HW210464   5.263   3.764   3.554
69523SOL     OW10465   2.208   9.795  14.030
69523SOL    HW110466   2.263   9.739  14.084
69523SOL    HW210467   2.269   9.861  13.996
69524SOL     OW10468  13.630  13.159   1.245
69524SOL    HW110469  13.657  13.233   1.191
69524SOL    HW210470  13.602  13.199   1.328
69525SOL     OW10471   9.617  13.325   3.795
69525SOL    HW110472   9.563  13.397   3.827
69525SOL    HW210473   9.705  13.361   3.789
69526SOL     OW10474   3.064  13.044  11.897
69526SOL    HW110475   3.077  12.950  11.881
69526SOL    HW210476   3.094  13.058  11.987
69527SOL     OW10477   9.157   5.017   9.438
69527SOL    HW110478   9.222   4.958   9.476
69527SOL    HW210479   9.088   5.022   9.504
69528SOL     OW10480   1.165  11.333  11.182
69528SOL    HW110481   1.246  11.342  11.133
69528SOL    HW210482   1.192  11.324  11.274
69529SOL     OW10483  11.627  10.852  12.930
69529SOL    HW110484  11.617  10.765  12.892
69529SOL    HW210485  11.709  10.885  12.893
69530SOL     OW10486   3.182   5.544   8.511
69530SOL    HW110487   3.269   5.549   8.550
69530SOL    HW210488   3.174   5.454   8.481
69531SOL     OW10489   2.149   4.631   2.675
69531SOL    HW110490   2.146   4.725   2.655
69531SOL    HW210491   2.065   4.597   2.644
69532SOL     OW10492  11.864   1.747   0.468
69532SOL    HW110493  11.790   1.778   0.416
69532SOL    HW210494  11.902   1.826   0.506
69533SOL     OW10495   3.192  13.604   0.419
69533SOL    HW110496   3.225  13.602   0.329
69533SOL    HW210497   3.119  13.543   0.419
69534SOL     OW10498   9.166   2.913  10.053
69534SOL    HW110499   9.142   2.967   9.977
69534SOL    HW210500   9.120   2.954  10.127
69535SOL     OW10501  14.056   8.319   5.207
69535SOL    HW110502  14.112   8.355   5.276
69535SOL    HW210503  14.073   8.225   5.208
69536SOL     OW10504   7.960   9.654   0.237
69536SOL    HW110505   7.971   9.569   0.277
69536SOL    HW210506   8.049   9.682   0.213
69537SOL     OW10507   1.326   3.380   2.874
69537SOL    HW110508   1.288   3.292   2.866
69537SOL    HW210509   1.365   3.396   2.788
69538SOL     OW10510   2.159   1.123   6.228
69538SOL    HW110511   2.203   1.146   6.310
69538SOL    HW210512   2.226   1.079   6.176
69539SOL     OW10513   9.916   0.178   5.426
69539SOL    HW110514   9.869   0.224   5.496
69539SOL    HW210515   9.853   0.113   5.394
69540SOL     OW10516   7.252   2.426  14.614
69540SOL    HW110517   7.246   2.345  14.563
69540SOL    HW210518   7.163   2.459  14.617
69541SOL     OW10519  14.020  14.506   7.184
69541SOL    HW110520  14.061  14.434   7.136
69541SOL    HW210521  13.969  14.463   7.252
69542SOL     OW10522  10.164   5.369   6.484
69542SOL    HW110523  10.170   5.459   6.451
69542SOL    HW210524  10.070   5.350   6.486
69543SOL     OW10525   5.932   6.084  12.896
69543SOL    HW110526   5.870   6.150  12.865
69543SOL    HW210527   6.014   6.132  12.908
69544SOL     OW10528   8.266  10.196   1.699
69544SOL    HW110529   8.239  10.112   1.661
69544SOL    HW210530   8.235  10.262   1.637
69545SOL     OW10531   0.919  11.105   0.782
69545SOL    HW110532   0.909  11.012   0.765
69545SOL    HW210533   0.991  11.110   0.845
69546SOL     OW10534   8.542   7.151   4.640
69546SOL    HW110535   8.483   7.080   4.664
69546SOL    HW210536   8.568   7.131   4.550
69547SOL     OW10537  11.387   8.781  10.502
69547SOL    HW110538  11.362   8.844  10.435
69547SOL    HW210539  11.359   8.820  10.585
69548SOL     OW10540   0.461   9.783  13.367
69548SOL    HW110541   0.523   9.789  13.439
69548SOL    HW210542   0.386   9.835  13.395
69549SOL     OW10543   2.918   7.564  13.065
69549SOL    HW110544   2.825   7.547  13.050
69549SOL    HW210545   2.942   7.627  12.997
69550SOL     OW10546   2.105   6.093  11.053
69550SOL    HW110547   2.013   6.114  11.070
69550SOL    HW210548   2.120   6.118  10.962
69551SOL     OW10549  12.734   9.766   9.464
69551SOL    HW110550  12.769   9.841   9.512
69551SOL    HW210551  12.758   9.782   9.373
69552SOL     OW10552   0.216  11.992  13.439
69552SOL    HW110553   0.158  12.061  13.408
69552SOL    HW210554   0.209  11.923  13.374
69553SOL     OW10555   3.024  12.743  11.043
69553SOL    HW110556   3.077  12.664  11.046
69553SOL    HW210557   3.022  12.769  10.951
69554SOL     OW10558   8.628   4.002  13.892
69554SOL    HW110559   8.579   3.953  13.958
69554SOL    HW210560   8.699   4.043  13.940
69555SOL     OW10561   4.923   8.880  10.750
69555SOL    HW110562   4.974   8.800  10.736
69555SOL    HW210563   4.858   8.856  10.816
69556SOL     OW10564   0.086   6.740   7.648
69556SOL    HW110565   0.039   6.822   7.662
69556SOL    HW210566   0.178   6.766   7.638
69557SOL     OW10567   2.790  11.603   7.544
69557SOL    HW110568   2.766  11.512   7.561
69557SOL    HW210569   2.706  11.650   7.544
69558SOL     OW10570  10.809  10.109   2.200
69558SOL    HW110571  10.747  10.167   2.245
69558SOL    HW210572  10.784  10.113   2.108
69559SOL     OW10573   5.423   1.635  14.827
69559SOL    HW110574   5.472   1.656  14.748
69559SOL    HW210575   5.475   1.672   0.021
69560SOL     OW10576   5.063  14.826  11.053
69560SOL    HW110577   5.057  14.769  10.977
69560SOL    HW210578   5.095  14.769  11.123
69561SOL     OW10579   0.609   3.896  10.788
69561SOL    HW110580   0.635   3.982  10.756
69561SOL    HW210581   0.594   3.845  10.708
69562SOL     OW10582   5.712  14.083  14.706
69562SOL    HW110583   5.681  14.173  14.698
69562SOL    HW210584   5.805  14.091  14.726
69563SOL     OW10585   3.849   2.401   8.386
69563SOL    HW110586   3.755   2.414   8.371
69563SOL    HW210587   3.886   2.489   8.384
69564SOL     OW10588  13.423   0.470   9.275
69564SOL    HW110589  13.343   0.510   9.240
69564SOL    HW210590  13.394   0.427   9.356
69565SOL     OW10591  13.381   5.234   2.890
69565SOL    HW110592  13.289   5.249   2.866
69565SOL    HW210593  13.429   5.300   2.840
69566SOL     OW10594   2.965   7.470   7.109
69566SOL    HW110595   3.021   7.545   7.130
69566SOL    HW210596   2.877   7.506   7.106
69567SOL     OW10597   6.082  12.482  13.522
69567SOL    HW110598   6.107  12.528  13.442
69567SOL    HW210599   6.146  12.412  13.531
69568SOL     OW10600   4.478  10.734  10.891
69568SOL    HW110601   4.408  10.720  10.827
69568SOL    HW210602   4.437  10.789  10.959
69569SOL     OW10603  11.654   1.914  12.818
69569SOL    HW110604  11.566   1.931  12.786
69569SOL    HW210605  11.711   1.960  12.757
69570SOL     OW10606  12.681   8.911   9.976
69570SOL    HW110607  12.588   8.892   9.963
69570SOL    HW210608  12.710   8.951   9.894
69571SOL     OW10609  12.537   0.423   7.247
69571SOL    HW110610  12.531   0.380   7.332
69571SOL    HW210611  12.461   0.480   7.243
69572SOL     OW10612   2.738   1.651   9.422
69572SOL    HW110613   2.698   1.592   9.358
69572SOL    HW210614   2.771   1.592   9.491
69573SOL     OW10615   9.177  11.162  14.709
69573SOL    HW110616   9.183  11.242  14.762
69573SOL    HW210617   9.262  11.119  14.721
69574SOL     OW10618   0.910   4.315   6.857
69574SOL    HW110619   0.862   4.283   6.780
69574SOL    HW210620   0.843   4.361   6.908
69575SOL     OW10621  11.712   2.718   4.331
69575SOL    HW110622  11.771   2.775   4.381
69575SOL    HW210623  11.735   2.733   4.240
69576SOL     OW10624  13.475  13.535  13.774
69576SOL    HW110625  13.417  13.476  13.821
69576SOL    HW210626  13.448  13.528  13.683
69577SOL     OW10627   6.069   9.635   2.174
69577SOL    HW110628   5.981   9.616   2.205
69577SOL    HW210629   6.057   9.675   2.088
69578SOL     OW10630   8.308   2.659   2.326
69578SOL    HW110631   8.352   2.661   2.241
69578SOL    HW210632   8.377   2.677   2.389
69579SOL     OW10633  12.600   7.428   0.784
69579SOL    HW110634  12.600   7.356   0.721
69579SOL    HW210635  12.609   7.507   0.730
69580SOL     OW10636   4.366   2.913   6.574
69580SOL    HW110637   4.375   2.879   6.663
69580SOL    HW210638   4.329   2.840   6.525
69581SOL     OW10639  14.864   0.275  14.550
69581SOL    HW110640  14.832   0.348  14.497
69581SOL    HW210641   0.040   0.316  14.618
69582SOL     OW10642   0.311   4.851   4.089
69582SOL    HW110643   0.302   4.760   4.060
69582SOL    HW210644   0.398   4.877   4.059
69583SOL     OW10645   1.755   9.128   8.243
69583SOL    HW110646   1.796   9.150   8.327
69583SOL    HW210647   1.723   9.039   8.255
69584SOL     OW10648   4.503   3.400   1.115
69584SOL    HW110649   4.464   3.326   1.160
69584SOL    HW210650   4.592   3.372   1.095
69585SOL     OW10651   0.877   3.041   6.281
69585SOL    HW110652   0.854   3.043   6.188
69585SOL    HW210653   0.811   2.985   6.320
69586SOL     OW10654   0.016   6.700  14.390
69586SOL    HW110655   0.063   6.667  14.467
69586SOL    HW210656   0.063   6.665  14.315
69587SOL     OW10657   5.548   7.612   9.772
69587SOL    HW110658   5.525   7.616   9.680
69587SOL    HW210659   5.641   7.587   9.773
69588SOL     OW10660   7.287   1.423   8.200
69588SOL    HW110661   7.347   1.390   8.133
69588SOL    HW210662   7.320   1.386   8.282
69589SOL     OW10663  11.787  10.204   9.883
69589SOL    HW110664  11.795  10.298   9.895
69589SOL    HW210665  11.795  10.191   9.788
69590SOL     OW10666   8.879   6.154   5.791
69590SOL    HW110667   8.812   6.129   5.855
69590SOL    HW210668   8.929   6.223   5.834
69591SOL     OW10669   0.683   4.539  10.718
69591SOL    HW110670   0.592   4.552  10.747
69591SOL    HW210671   0.706   4.452  10.750
69592SOL     OW10672   9.239   3.300  10.296
69592SOL    HW110673   9.277   3.319  10.211
69592SOL    HW210674   9.231   3.386  10.338
69593SOL     OW10675   7.597  10.322   8.636
69593SOL    HW110676   7.677  10.273   8.617
69593SOL    HW210677   7.626  10.411   8.654
69594SOL     OW10678   3.474   9.441   2.706
69594SOL    HW110679   3.552   9.495   2.692
69594SOL    HW210680   3.508   9.353   2.720
69595SOL     OW10681   2.297   4.349   3.888
69595SOL    HW110682   2.210   4.335   3.924
69595SOL    HW210683   2.323   4.263   3.854
69596SOL     OW10684   2.701  11.736   4.615
69596SOL    HW110685   2.644  11.734   4.692
69596SOL    HW210686   2.645  11.711   4.542
69597SOL     OW10687   1.271   3.638  13.703
69597SOL    HW110688   1.355   3.637  13.657
69597SOL    HW210689   1.213   3.585  13.648
69598SOL     OW10690   0.680  10.800   0.815
69598SOL    HW110691   0.727  10.831   0.737
69598SOL    HW210692   0.614  10.740   0.780
69599SOL     OW10693  11.293  14.029   6.682
69599SOL    HW110694  11.245  14.039   6.600
69599SOL    HW210695  11.356  14.102   6.683
69600SOL     OW10696  10.963  13.432  13.845
69600SOL    HW110697  10.939  13.345  13.813
69600SOL    HW210698  10.963  13.423  13.941
69601SOL     OW10699   7.216   7.293   1.029
69601SOL    HW110700   7.202   7.225   1.094
69601SOL    HW210701   7.163   7.267   0.954
69602SOL     OW10702   7.276  14.765   7.716
69602SOL    HW110703   7.231  14.695   7.764
69602SOL    HW210704   7.216  14.788   7.645
69603SOL     OW10705   0.773   4.908   5.423
69603SOL    HW110706   0.764   4.962   5.501
69603SOL    HW210707   0.800   4.969   5.354
69604SOL     OW10708   6.393   1.574   4.782
69604SOL    HW110709   6.416   1.663   4.755
69604SOL    HW210710   6.409   1.572   4.876
69605SOL     OW10711   4.844  10.565  12.695
69605SOL    HW110712   4.914  10.627  12.713
69605SOL    HW210713   4.883  10.500  12.636
69606SOL     OW10714   7.735   2.667   1.775
69606SOL    HW110715   7.809   2.606   1.779
69606SOL    HW210716   7.657   2.611   1.782
69607SOL     OW10717  11.267   8.061  10.871
69607SOL    HW110718  11.195   8.042  10.932
69607SOL    HW210719  11.264   7.988  10.808
69608SOL     OW10720  12.518  11.511  13.041
69608SOL    HW110721  12.606  11.535  13.068
69608SOL    HW210722  12.465  11.517  13.121
69609SOL     OW10723   9.130   3.768   4.060
69609SOL    HW110724   9.089   3.833   4.116
69609SOL    HW210725   9.223   3.792   4.059
69610SOL     OW10726  14.027   4.753   7.524
69610SOL    HW110727  13.933   4.772   7.534
69610SOL    HW210728  14.044   4.683   7.587
69611SOL     OW10729   6.284   6.057   7.636
69611SOL    HW110730   6.279   5.961   7.636
69611SOL    HW210731   6.286   6.081   7.544
69612SOL     OW10732   4.080   1.228   3.447
69612SOL    HW110733   4.001   1.178   3.425
69612SOL    HW210734   4.071   1.248   3.540
69613SOL     OW10735   5.561   5.332   0.766
69613SOL    HW110736   5.617   5.408   0.753
69613SOL    HW210737   5.596   5.265   0.706
69614SOL     OW10738   3.795   7.159   1.793
69614SOL    HW110739   3.746   7.143   1.712
69614SOL    HW210740   3.870   7.101   1.788
69615SOL     OW10741  14.641   7.859  12.012
69615SOL    HW110742  14.682   7.785  12.057
69615SOL    HW210743  14.618   7.823  11.926
69616SOL     OW10744  10.389   4.943   6.140
69616SOL    HW110745  10.371   4.851   6.120
69616SOL    HW210746  10.411   4.983   6.056
69617SOL     OW10747  10.615   9.096   2.398
69617SOL    HW110748  10.656   9.177   2.428
69617SOL    HW210749  10.551   9.075   2.466
69618SOL     OW10750  14.707  13.763   0.579
69618SOL    HW110751  14.685  13.853   0.556
69618SOL    HW210752  14.790  13.770   0.626
69619SOL     OW10753   2.794   2.086  13.840
69619SOL    HW110754   2.787   1.995  13.811
69619SOL    HW210755   2.801   2.080  13.935
69620SOL     OW10756   8.275  13.418   2.871
69620SOL    HW110757   8.224  13.351   2.826
69620SOL    HW210758   8.231  13.429   2.956
69621SOL     OW10759   0.870   4.127   6.042
69621SOL    HW110760   0.843   4.105   5.953
69621SOL    HW210761   0.914   4.048   6.074
69622SOL     OW10762   6.237  10.871   6.771
69622SOL    HW110763   6.323  10.913   6.779
69622SOL    HW210764   6.192  10.919   6.703
69623SOL     OW10765   9.547  11.287   4.482
69623SOL    HW110766   9.594  11.205   4.474
69623SOL    HW210767   9.587  11.331   4.558
69624SOL     OW10768   7.655   2.990   8.347
69624SOL    HW110769   7.641   3.022   8.258
69624SOL    HW210770   7.694   3.064   8.394
69625SOL     OW10771  11.855  14.120   9.874
69625SOL    HW110772  11.872  14.039   9.825
69625SOL    HW210773  11.813  14.178   9.811
69626SOL     OW10774  13.818   5.527   8.625
69626SOL    HW110775  13.856   5.611   8.649
69626SOL    HW210776  13.882   5.486   8.567
69627SOL     OW10777  12.230  11.381   9.065
69627SOL    HW110778  12.180  11.446   9.114
69627SOL    HW210779  12.166  11.313   9.044
69628SOL     OW10780   9.422  13.828   8.369
69628SOL    HW110781   9.448  13.848   8.459
69628SOL    HW210782   9.493  13.865   8.316
69629SOL     OW10783   7.801   0.101  10.182
69629SOL    HW110784   7.809   0.176  10.242
69629SOL    HW210785   7.791   0.025  10.239
69630SOL     OW10786  11.969   2.718   8.971
69630SOL    HW110787  12.050   2.743   8.927
69630SOL    HW210788  11.914   2.683   8.901
69631SOL     OW10789   9.726   7.157   5.214
69631SOL    HW110790   9.706   7.248   5.194
69631SOL    HW210791   9.814   7.160   5.253
69632SOL     OW10792  10.082   0.822   7.431
69632SOL    HW110793  10.002   0.835   7.380
69632SOL    HW210794  10.085   0.896   7.491
69633SOL     OW10795   9.937  12.410   9.156
69633SOL    HW110796   9.919  12.403   9.249
69633SOL    HW210797   9.910  12.499   9.133
69634SOL     OW10798   1.686   7.350  13.137
69634SOL    HW110799   1.595   7.377  13.153
69634SOL    HW210800   1.700   7.369  13.044
69635SOL     OW10801   6.218   5.976  12.418
69635SOL    HW110802   6.312   5.982  12.404
69635SOL    HW210803   6.189   5.907  12.359
69636SOL     OW10804   9.394   2.450  12.879
69636SOL    HW110805   9.360   2.525  12.832
69636SOL    HW210806   9.423   2.485  12.963
69637SOL     OW10807  13.183  10.714  11.791
69637SOL    HW110808  13.235  10.791  11.814
69637SOL    HW210809  13.133  10.694  11.870
69638SOL     OW10810   6.919  12.044   3.366
69638SOL    HW110811   6.850  12.090   3.412
69638SOL    HW210812   6.986  12.110   3.349
69639SOL     OW10813   5.552   2.754  12.971
69639SOL    HW110814   5.499   2.754  12.892
69639SOL    HW210815   5.492   2.729  13.041
69640SOL     OW10816  12.111   2.500   6.922
69640SOL    HW110817  12.020   2.485   6.946
69640SOL    HW210818  12.154   2.524   7.004
69641SOL     OW10819   6.024   3.510   4.518
69641SOL    HW110820   6.083   3.556   4.458
69641SOL    HW210821   6.070   3.510   4.602
69642SOL     OW10822  13.719   0.536   1.058
69642SOL    HW110823  13.748   0.628   1.055
69642SOL    HW210824  13.765   0.499   1.134
69643SOL     OW10825   2.768  10.870   4.702
69643SOL    HW110826   2.810  10.953   4.678
69643SOL    HW210827   2.780  10.814   4.626
69644SOL     OW10828   7.500  12.696  10.161
69644SOL    HW110829   7.583  12.712  10.206
69644SOL    HW210830   7.467  12.783  10.137
69645SOL     OW10831   7.329   0.963   0.192
69645SOL    HW110832   7.325   0.912   0.111
69645SOL    HW210833   7.237   0.979   0.214
69646SOL     OW10834  12.848   7.677  11.452
69646SOL    HW110835  12.812   7.628  11.378
69646SOL    HW210836  12.832   7.769  11.429
69647SOL     OW10837  10.989  14.613  12.922
69647SOL    HW110838  10.958  14.703  12.907
69647SOL    HW210839  10.953  14.563  12.849
69648SOL     OW10840   9.939   6.201   6.893
69648SOL    HW110841   9.876   6.130   6.897
69648SOL    HW210842   9.972   6.209   6.983
69649SOL     OW10843   1.870   1.115   9.323
69649SOL    HW110844   1.846   1.207   9.309
69649SOL    HW210845   1.856   1.073   9.238
69650SOL     OW10846   8.907   9.264   2.467
69650SOL    HW110847   8.924   9.341   2.413
69650SOL    HW210848   8.959   9.194   2.427
69651SOL     OW10849   6.684   1.423   4.971
69651SOL    HW110850   6.654   1.337   5.001
69651SOL    HW210851   6.735   1.405   4.892
69652SOL     OW10852   7.131  10.030  11.179
69652SOL    HW110853   7.054  10.070  11.138
69652SOL    HW210854   7.098   9.996  11.263
69653SOL     OW10855   9.687   7.319  14.654
69653SOL    HW110856   9.730   7.403  14.641
69653SOL    HW210857   9.751   7.254  14.625
69654SOL     OW10858   8.932   5.656   0.950
69654SOL    HW110859   8.954   5.735   0.901
69654SOL    HW210860   8.865   5.684   1.012
69655SOL     OW10861  12.951  13.672  10.111
69655SOL    HW110862  12.966  13.597  10.053
69655SOL    HW210863  13.030  13.677  10.165
69656SOL     OW10864   9.747   1.266   1.514
69656SOL    HW110865   9.743   1.174   1.488
69656SOL    HW210866   9.671   1.306   1.474
69657SOL     OW10867   0.127   6.184   7.950
69657SOL    HW110868   0.209   6.159   7.993
69657SOL    HW210869   0.147   6.182   7.857
69658SOL     OW10870   8.611  14.612   6.133
69658SOL    HW110871   8.644  14.633   6.220
69658SOL    HW210872   8.686  14.626   6.075
69659SOL     OW10873   3.976   2.246   4.042
69659SOL    HW110874   3.901   2.188   4.056
69659SOL    HW210875   4.007   2.226   3.954
69660SOL     OW10876   5.748  13.218   4.957
69660SOL    HW110877   5.723  13.201   5.048
69660SOL    HW210878   5.685  13.167   4.905
69661SOL     OW10879   8.406  12.608   7.950
69661SOL    HW110880   8.436  12.521   7.977
69661SOL    HW210881   8.317  12.593   7.918
69662SOL     OW10882   2.280   4.684   1.654
69662SOL    HW110883   2.332   4.645   1.584
69662SOL    HW210884   2.212   4.619   1.673
69663SOL     OW10885   6.518   6.958   1.185
69663SOL    HW110886   6.613   6.969   1.178
69663SOL    HW210887   6.490   6.932   1.097
69664SOL     OW10888  11.049  10.986   6.513
69664SOL    HW110889  11.132  10.938   6.513
69664SOL    HW210890  11.073  11.075   6.487
69665SOL     OW10891   8.457   9.092   8.991
69665SOL    HW110892   8.482   9.048   9.072
69665SOL    HW210893   8.538   9.094   8.939
69666SOL     OW10894   5.622   6.373   8.182
69666SOL    HW110895   5.606   6.401   8.092
69666SOL    HW210896   5.541   6.393   8.228
69667SOL     OW10897   3.172   7.883   8.148
69667SOL    HW110898   3.234   7.866   8.078
69667SOL    HW210899   3.226   7.908   8.223
69668SOL     OW10900   3.571   1.030  10.350
69668SOL    HW110901   3.490   1.042  10.300
69668SOL    HW210902   3.545   1.046  10.441
69669SOL     OW10903   4.762   7.215   3.788
69669SOL    HW110904   4.819   7.260   3.726
69669SOL    HW210905   4.763   7.123   3.760
69670SOL     OW10906  13.473  12.608   6.655
69670SOL    HW110907  13.454  12.644   6.742
69670SOL    HW210908  13.389  12.612   6.610
69671SOL     OW10909   9.921  11.463  14.143
69671SOL    HW110910   9.989  11.397  14.149
69671SOL    HW210911   9.908  11.491  14.234
69672SOL     OW10912   5.327   3.619   4.343
69672SOL    HW110913   5.357   3.677   4.274
69672SOL    HW210914   5.298   3.677   4.413
69673SOL     OW10915   6.684   6.651   4.991
69673SOL    HW110916   6.731   6.618   5.067
69673SOL    HW210917   6.692   6.581   4.926
69674SOL     OW10918   2.027  10.123   9.502
69674SOL    HW110919   1.995  10.126   9.411
69674SOL    HW210920   1.967  10.180   9.550
69675SOL     OW10921   6.912   5.563  13.857
69675SOL    HW110922   6.976   5.548  13.788
69675SOL    HW210923   6.891   5.657  13.850
69676SOL     OW10924   3.414   5.375  13.774
69676SOL    HW110925   3.501   5.399  13.804
69676SOL    HW210926   3.417   5.388  13.679
69677SOL     OW10927  11.643  13.507   8.334
69677SOL    HW110928  11.672  13.416   8.346
69677SOL    HW210929  11.605  13.509   8.247
69678SOL     OW10930  14.826  11.655  13.198
69678SOL    HW110931   0.012  11.612  13.256
69678SOL    HW210932  14.800  11.734  13.246
69679SOL     OW10933   0.820   5.800  11.671
69679SOL    HW110934   0.859   5.758  11.594
69679SOL    HW210935   0.749   5.742  11.696
69680SOL     OW10936   5.502   5.891   3.003
69680SOL    HW110937   5.515   5.958   2.936
69680SOL    HW210938   5.554   5.921   3.078
69681SOL     OW10939  11.801   7.697   5.312
69681SOL    HW110940  11.839   7.724   5.396
69681SOL    HW210941  11.872   7.708   5.249
69682SOL     OW10942  13.483   3.346   2.206
69682SOL    HW110943  13.500   3.267   2.155
69682SOL    HW210944  13.455   3.315   2.292
69683SOL     OW10945  11.363  11.045   0.110
69683SOL    HW110946  11.380  11.111   0.177
69683SOL    HW210947  11.273  11.060   0.083
69684SOL     OW10948   0.044   1.553  12.960
69684SOL    HW110949  14.877   1.625  13.006
69684SOL    HW210950   0.066   1.491  13.029
69685SOL     OW10951   6.239   8.127  14.533
69685SOL    HW110952   6.278   8.202  14.488
69685SOL    HW210953   6.283   8.051  14.495
69686SOL     OW10954  13.826  14.557   6.645
69686SOL    HW110955  13.838  14.651   6.630
69686SOL    HW210956  13.794  14.524   6.561
69687SOL     OW10957   8.505   0.830   7.240
69687SOL    HW110958   8.554   0.795   7.165
69687SOL    HW210959   8.554   0.800   7.316
69688SOL     OW10960   0.254   4.262  14.098
69688SOL    HW110961   0.177   4.229  14.143
69688SOL    HW210962   0.328   4.233  14.152
69689SOL     OW10963   6.451   9.076  14.268
69689SOL    HW110964   6.399   9.077  14.348
69689SOL    HW210965   6.541   9.068  14.297
69690SOL     OW10966  11.472   9.489   2.526
69690SOL    HW110967  11.537   9.444   2.472
69690SOL    HW210968  11.390   9.484   2.476
69691SOL     OW10969  13.878  11.879   1.074
69691SOL    HW110970  13.939  11.890   1.001
69691SOL    HW210971  13.797  11.847   1.032
69692SOL     OW10972   1.979   4.234   1.208
69692SOL    HW110973   1.885   4.236   1.224
69692SOL    HW210974   1.988   4.260   1.116
69693SOL     OW10975  14.050   2.663   8.596
69693SOL    HW110976  14.128   2.641   8.646
69693SOL    HW210977  14.054   2.607   8.519
69694SOL     OW10978  12.829   8.678  14.609
69694SOL    HW110979  12.824   8.614  14.680
69694SOL    HW210980  12.771   8.644  14.541
69695SOL     OW10981   2.111   9.982  11.572
69695SOL    HW110982   2.061   9.922  11.628
69695SOL    HW210983   2.200   9.979  11.608
69696SOL     OW10984   4.909   7.666   6.287
69696SOL    HW110985   4.839   7.612   6.324
69696SOL    HW210986   4.873   7.755   6.287
69697SOL     OW10987  10.222   1.575   9.130
69697SOL    HW110988  10.186   1.550   9.215
69697SOL    HW210989  10.177   1.656   9.108
69698SOL     OW10990  12.891   5.364  11.906
69698SOL    HW110991  12.854   5.332  11.824
69698SOL    HW210992  12.897   5.459  11.894
69699SOL     OW10993  12.586   7.562   5.559
69699SOL    HW110994  12.493   7.549   5.540
69699SOL    HW210995  12.600   7.515   5.641
69700SOL     OW10996   4.719  11.738   1.299
69700SOL    HW110997   4.767  11.788   1.232
69700SOL    HW210998   4.703  11.802   1.369
69701SOL     OW10999  11.786  12.194   5.838
69701SOL    HW111000  11.741  12.274   5.811
69701SOL    HW211001  11.858  12.224   5.893
69702SOL     OW11002   8.019   0.449   2.883
69702SOL    HW111003   7.951   0.383   2.871
69702SOL    HW211004   8.023   0.462   2.978
69703SOL     OW11005   8.173   8.112   5.405
69703SOL    HW111006   8.213   8.044   5.351
69703SOL    HW211007   8.246   8.159   5.443
69704SOL     OW11008   8.717   8.097  10.134
69704SOL    HW111009   8.795   8.116  10.186
69704SOL    HW211010   8.665   8.177  10.138
69705SOL     OW11011  12.624   4.635  10.371
69705SOL    HW111012  12.662   4.661  10.455
69705SOL    HW211013  12.570   4.559  10.392
69706SOL     OW11014   7.304   9.801   2.203
69706SOL    HW111015   7.331   9.879   2.251
69706SOL    HW211016   7.336   9.728   2.257
69707SOL     OW11017  12.117   0.752   3.836
69707SOL    HW111018  12.074   0.680   3.883
69707SOL    HW211019  12.100   0.829   3.890
69708SOL     OW11020   2.634   7.779   3.753
69708SOL    HW111021   2.555   7.726   3.761
69708SOL    HW211022   2.706   7.716   3.752
69709SOL     OW11023  14.287   4.510  10.426
69709SOL    HW111024  14.193   4.497  10.436
69709SOL    HW211025  14.323   4.486  10.512
69710SOL     OW11026  14.143   9.674  12.517
69710SOL    HW111027  14.095   9.743  12.471
69710SOL    HW211028  14.229   9.713  12.533
69711SOL     OW11029  11.461   4.206   8.039
69711SOL    HW111030  11.474   4.277   8.101
69711SOL    HW211031  11.468   4.126   8.092
69712SOL     OW11032   0.698  11.522   2.936
69712SOL    HW111033   0.730  11.437   2.967
69712SOL    HW211034   0.727  11.585   3.002
69713SOL     OW11035   3.980  12.858  14.825
69713SOL    HW111036   4.006  12.768  14.844
69713SOL    HW211037   3.891  12.865  14.860
69714SOL     OW11038   1.197   9.172   5.464
69714SOL    HW111039   1.107   9.142   5.462
69714SOL    HW211040   1.209   9.217   5.380
69715SOL     OW11041   2.739  13.322   5.698
69715SOL    HW111042   2.821  13.309   5.744
69715SOL    HW211043   2.759  13.387   5.630
69716SOL     OW11044   3.754  11.656   7.416
69716SOL    HW111045   3.786  11.658   7.506
69716SOL    HW211046   3.668  11.698   7.420
69717SOL     OW11047   9.748   2.716   1.251
69717SOL    HW111048   9.828   2.751   1.213
69717SOL    HW211049   9.695   2.691   1.175
69718SOL     OW11050   1.057  10.356  14.233
69718SOL    HW111051   0.965  10.334  14.218
69718SOL    HW211052   1.058  10.400  14.318
69719SOL     OW11053   0.627   7.353  10.409
69719SOL    HW111054   0.686   7.349  10.333
69719SOL    HW211055   0.637   7.443  10.441
69720SOL     OW11056   0.637  11.081  12.119
69720SOL    HW111057   0.711  11.035  12.159
69720SOL    HW211058   0.561  11.052  12.171
69721SOL     OW11059   1.910   8.346  13.195
69721SOL    HW111060   1.880   8.368  13.107
69721SOL    HW211061   1.924   8.431  13.237
69722SOL     OW11062   7.267   2.889   9.364
69722SOL    HW111063   7.236   2.962   9.310
69722SOL    HW211064   7.299   2.930   9.444
69723SOL     OW11065  11.881   8.388   6.168
69723SOL    HW111066  11.965   8.356   6.135
69723SOL    HW211067  11.851   8.450   6.101
69724SOL     OW11068  14.379   8.635   7.781
69724SOL    HW111069  14.437   8.655   7.707
69724SOL    HW211070  14.320   8.568   7.747
69725SOL     OW11071  12.706   8.270  10.184
69725SOL    HW111072  12.614   8.293  10.171
69725SOL    HW211073  12.722   8.285  10.277
69726SOL     OW11074  11.291   4.225   0.992
69726SOL    HW111075  11.249   4.223   1.078
69726SOL    HW211076  11.262   4.308   0.954
69727SOL     OW11077  11.053  14.141   4.266
69727SOL    HW111078  10.990  14.196   4.313
69727SOL    HW211079  11.025  14.145   4.175
69728SOL     OW11080  10.035   5.806  11.714
69728SOL    HW111081   9.979   5.729  11.726
69728SOL    HW211082  10.090   5.808  11.792
69729SOL     OW11083  11.888   9.017   4.781
69729SOL    HW111084  11.884   9.027   4.876
69729SOL    HW211085  11.802   8.983   4.757
69730SOL     OW11086   0.315  13.906   5.046
69730SOL    HW111087   0.272  13.906   5.132
69730SOL    HW211088   0.249  13.941   4.986
69731SOL     OW11089   4.451  12.729   8.087
69731SOL    HW111090   4.545  12.744   8.073
69731SOL    HW211091   4.434  12.645   8.044
69732SOL     OW11092  12.734   0.098   5.432
69732SOL    HW111093  12.766   0.133   5.349
69732SOL    HW211094  12.813   0.067   5.476
69733SOL     OW11095   5.774   3.378   3.136
69733SOL    HW111096   5.794   3.285   3.153
69733SOL    HW211097   5.679   3.380   3.125
69734SOL     OW11098   0.297   2.983   1.424
69734SOL    HW111099   0.273   2.907   1.372
69734SOL    HW211100   0.213   3.020   1.453
69735SOL     OW11101   3.315   3.403  13.797
69735SOL    HW111102   3.372   3.338  13.756
69735SOL    HW211103   3.376   3.465  13.838
69736SOL     OW11104   3.230  13.864   8.321
69736SOL    HW111105   3.217  13.842   8.413
69736SOL    HW211106   3.150  13.912   8.297
69737SOL     OW11107   7.359   9.257   3.262
69737SOL    HW111108   7.414   9.197   3.212
69737SOL    HW211109   7.271   9.244   3.226
69738SOL     OW11110   6.158   1.228   5.285
69738SOL    HW111111   6.233   1.284   5.265
69738SOL    HW211112   6.197   1.144   5.308
69739SOL     OW11113   1.364  12.843   2.332
69739SOL    HW111114   1.409  12.779   2.387
69739SOL    HW211115   1.434  12.903   2.304
69740SOL     OW11116   4.838  14.277   9.548
69740SOL    HW111117   4.777  14.203   9.545
69740SOL    HW211118   4.912  14.249   9.493
69741SOL     OW11119  13.614  10.384   5.925
69741SOL    HW111120  13.545  10.440   5.889
69741SOL    HW211121  13.569  10.303   5.950
69742SOL     OW11122   1.819  14.234   6.777
69742SOL    HW111123   1.800  14.301   6.711
69742SOL    HW211124   1.911  14.247   6.800
69743SOL     OW11125   7.635  11.832   4.114
69743SOL    HW111126   7.659  11.914   4.070
69743SOL    HW211127   7.637  11.766   4.045
69744SOL     OW11128  13.812   7.918   7.775
69744SOL    HW111129  13.727   7.918   7.732
69744SOL    HW211130  13.796   7.879   7.861
69745SOL     OW11131   4.151   5.083   7.851
69745SOL    HW111132   4.174   5.004   7.802
69745SOL    HW211133   4.059   5.098   7.830
69746SOL     OW11134   6.484  11.251   9.538
69746SOL    HW111135   6.448  11.164   9.559
69746SOL    HW211136   6.511  11.245   9.447
69747SOL     OW11137   8.090  12.648   6.111
69747SOL    HW111138   8.118  12.713   6.175
69747SOL    HW211139   7.998  12.630   6.133
69748SOL     OW11140  13.404   0.107   1.440
69748SOL    HW111141  13.348   0.042   1.482
69748SOL    HW211142  13.426   0.069   1.355
69749SOL     OW11143  12.003   1.974   6.394
69749SOL    HW111144  12.076   1.950   6.450
69749SOL    HW211145  11.979   1.893   6.349
69750SOL     OW11146  14.534   3.926  13.897
69750SOL    HW111147  14.456   3.883  13.863
69750SOL    HW211148  14.532   3.910  13.991
69751SOL     OW11149   0.543   9.704  11.282
69751SOL    HW111150   0.522   9.615  11.309
69751SOL    HW211151   0.638   9.708  11.282
69752SOL     OW11152  11.174   5.235  12.768
69752SOL    HW111153  11.204   5.286  12.843
69752SOL    HW211154  11.255   5.205  12.726
69753SOL     OW11155   4.695  10.566   0.072
69753SOL    HW111156   4.670  10.492   0.016
69753SOL    HW211157   4.788  10.580   0.053
69754SOL     OW11158   9.221   5.934   9.063
69754SOL    HW111159   9.203   5.987   8.986
69754SOL    HW211160   9.315   5.914   9.057
69755SOL     OW11161  13.788   6.362   0.943
69755SOL    HW111162  13.718   6.297   0.939
69755SOL    HW211163  13.753   6.437   0.894
69756SOL     OW11164  12.385  13.508   9.654
69756SOL    HW111165  12.293  13.521   9.632
69756SOL    HW211166  12.398  13.414   9.646
69757SOL     OW11167  12.344  13.643   8.131
69757SOL    HW111168  12.422  13.589   8.128
69757SOL    HW211169  12.365  13.712   8.194
69758SOL     OW11170   1.013  12.924   0.686
69758SOL    HW111171   0.934  12.969   0.715
69758SOL    HW211172   0.994  12.831   0.699
69759SOL     OW11173   3.933  11.753  10.015
69759SOL    HW111174   3.860  11.744  10.076
69759SOL    HW211175   4.011  11.732  10.066
69760SOL     OW11176  14.778  12.436   7.555
69760SOL    HW111177  14.772  12.413   7.648
69760SOL    HW211178  14.851  12.498   7.551
69761SOL     OW11179   6.796   9.001   2.057
69761SOL    HW111180   6.883   9.040   2.042
69761SOL    HW211181   6.742   9.074   2.085
69762SOL     OW11182   0.600   3.704  11.017
69762SOL    HW111183   0.625   3.762  10.945
69762SOL    HW211184   0.656   3.730  11.090
69763SOL     OW11185  13.357   6.964   6.912
69763SOL    HW111186  13.354   6.923   6.998
69763SOL    HW211187  13.338   7.057   6.929
69764SOL     OW11188   5.452  14.394   1.317
69764SOL    HW111189   5.477  14.449   1.392
69764SOL    HW211190   5.534  14.356   1.286
69765SOL     OW11191  10.693  14.312   8.434
69765SOL    HW111192  10.759  14.359   8.383
69765SOL    HW211193  10.702  14.221   8.406
69766SOL     OW11194  12.316   4.218   2.503
69766SOL    HW111195  12.325   4.126   2.526
69766SOL    HW211196  12.238   4.222   2.448
69767SOL     OW11197   0.740   8.850  14.289
69767SOL    HW111198   0.741   8.759  14.260
69767SOL    HW211199   0.754   8.901  14.209
69768SOL     OW11200   2.564  14.178   2.565
69768SOL    HW111201   2.640  14.142   2.610
69768SOL    HW211202   2.564  14.271   2.587
69769SOL     OW11203   9.709   9.980   9.996
69769SOL    HW111204   9.781   9.987  10.058
69769SOL    HW211205   9.751   9.960   9.913
69770SOL     OW11206  12.726   3.094  14.371
69770SOL    HW111207  12.798   3.082  14.309
69770SOL    HW211208  12.728   3.016  14.425
69771SOL     OW11209   9.907   7.339   5.473
69771SOL    HW111210   9.898   7.332   5.568
69771SOL    HW211211   9.905   7.248   5.442
69772SOL     OW11212   7.635   5.431   2.147
69772SOL    HW111213   7.640   5.473   2.061
69772SOL    HW211214   7.572   5.360   2.136
69773SOL     OW11215   3.886   7.716  11.433
69773SOL    HW111216   3.927   7.667  11.504
69773SOL    HW211217   3.806   7.752  11.473
69774SOL     OW11218   7.624  11.628  13.552
69774SOL    HW111219   7.545  11.655  13.505
69774SOL    HW211220   7.669  11.711  13.571
69775SOL     OW11221   2.986   8.295   3.406
69775SOL    HW111222   3.054   8.285   3.339
69775SOL    HW211223   2.964   8.205   3.431
69776SOL     OW11224   6.621   8.676   5.604
69776SOL    HW111225   6.701   8.712   5.643
69776SOL    HW211226   6.651   8.598   5.557
69777SOL     OW11227   9.050  11.114  11.740
69777SOL    HW111228   9.005  11.188  11.781
69777SOL    HW211229   8.998  11.038  11.765
69778SOL     OW11230  10.977   5.021  12.257
69778SOL    HW111231  11.008   4.965  12.185
69778SOL    HW211232  10.882   5.028  12.242
69779SOL     OW11233  13.812   6.013  10.641
69779SOL    HW111234  13.810   6.107  10.659
69779SOL    HW211235  13.865   5.977  10.712
69780SOL     OW11236   9.121   6.743   5.513
69780SOL    HW111237   9.170   6.777   5.588
69780SOL    HW211238   9.075   6.667   5.548
69781SOL     OW11239   6.166   2.152  12.375
69781SOL    HW111240   6.186   2.180  12.286
69781SOL    HW211241   6.122   2.227  12.415
69782SOL     OW11242   2.864  12.266   0.811
69782SOL    HW111243   2.921  12.243   0.737
69782SOL    HW211244   2.911  12.335   0.857
69783SOL     OW11245  13.059   8.554   9.532
69783SOL    HW111246  12.995   8.603   9.583
69783SOL    HW211247  13.096   8.490   9.594
69784SOL     OW11248   0.659   1.285   0.380
69784SOL    HW111249   0.698   1.201   0.402
69784SOL    HW211250   0.681   1.342   0.454
69785SOL     OW11251   8.924   6.122  14.591
69785SOL    HW111252   8.867   6.050  14.617
69785SOL    HW211253   8.875   6.169  14.524
69786SOL     OW11254   4.745   5.148   2.730
69786SOL    HW111255   4.776   5.082   2.668
69786SOL    HW211256   4.663   5.112   2.765
69787SOL     OW11257   1.082  14.427   7.121
69787SOL    HW111258   1.066  14.521   7.122
69787SOL    HW211259   1.000  14.388   7.152
69788SOL     OW11260   4.249   2.572   7.852
69788SOL    HW111261   4.246   2.518   7.931
69788SOL    HW211262   4.188   2.529   7.792
69789SOL     OW11263  10.602   0.650   7.998
69789SOL    HW111264  10.588   0.555   7.995
69789SOL    HW211265  10.566   0.677   8.082
69790SOL     OW11266  11.147  14.564  13.294
69790SOL    HW111267  11.072  14.584  13.350
69790SOL    HW211268  11.149  14.635  13.230
69791SOL     OW11269   5.246   4.144  12.030
69791SOL    HW111270   5.318   4.082  12.031
69791SOL    HW211271   5.239   4.174  12.121
69792SOL     OW11272   3.450  10.586  12.346
69792SOL    HW111273   3.381  10.634  12.300
69792SOL    HW211274   3.407  10.552  12.424
69793SOL     OW11275  14.763   2.683  12.013
69793SOL    HW111276  14.841   2.666  11.961
69793SOL    HW211277  14.766   2.618  12.083
69794SOL     OW11278   1.931  14.384   8.187
69794SOL    HW111279   1.910  14.377   8.094
69794SOL    HW211280   1.898  14.471   8.212
69795SOL     OW11281   5.402  12.550  13.682
69795SOL    HW111282   5.322  12.600  13.700
69795SOL    HW211283   5.473  12.614  13.689
69796SOL     OW11284   2.138  10.139   5.101
69796SOL    HW111285   2.124  10.144   5.195
69796SOL    HW211286   2.196  10.213   5.082
69797SOL     OW11287   3.469   6.775   2.930
69797SOL    HW111288   3.461   6.769   3.025
69797SOL    HW211289   3.382   6.753   2.898
69798SOL     OW11290   9.979   4.117   3.385
69798SOL    HW111291   9.886   4.118   3.364
69798SOL    HW211292  10.011   4.202   3.354
69799SOL     OW11293  12.136  13.746   2.887
69799SOL    HW111294  12.106  13.659   2.911
69799SOL    HW211295  12.232  13.740   2.891
69800SOL     OW11296   8.408   9.806   8.463
69800SOL    HW111297   8.445   9.803   8.375
69800SOL    HW211298   8.378   9.717   8.480
69801SOL     OW11299   8.479   0.295  11.875
69801SOL    HW111300   8.517   0.256  11.954
69801SOL    HW211301   8.433   0.222  11.832
69802SOL     OW11302   9.966  13.678  10.070
69802SOL    HW111303   9.985  13.772  10.072
69802SOL    HW211304   9.967  13.652  10.163
69803SOL     OW11305  11.756   0.525   7.434
69803SOL    HW111306  11.807   0.561   7.506
69803SOL    HW211307  11.785   0.573   7.357
69804SOL     OW11308   3.119   5.455  11.788
69804SOL    HW111309   3.154   5.367  11.804
69804SOL    HW211310   3.038   5.439  11.739
69805SOL     OW11311  11.989  10.906   1.900
69805SOL    HW111312  11.964  10.821   1.864
69805SOL    HW211313  11.967  10.968   1.830
69806SOL     OW11314   4.321   3.086   0.476
69806SOL    HW111315   4.307   3.067   0.569
69806SOL    HW211316   4.239   3.128   0.448
69807SOL     OW11317   0.102  13.087   7.877
69807SOL    HW111318   0.160  13.162   7.892
69807SOL    HW211319   0.112  13.033   7.956
69808SOL     OW11320  13.629  14.745   1.483
69808SOL    HW111321  13.611  14.671   1.540
69808SOL    HW211322  13.660  14.814   1.542
69809SOL     OW11323   9.412   9.191  13.513
69809SOL    HW111324   9.502   9.222  13.520
69809SOL    HW211325   9.372   9.214  13.597
69810SOL     OW11326   1.364   7.835   6.903
69810SOL    HW111327   1.331   7.843   6.993
69810SOL    HW211328   1.454   7.804   6.914
69811SOL     OW11329   8.993   2.587   6.280
69811SOL    HW111330   9.008   2.633   6.362
69811SOL    HW211331   9.010   2.495   6.301
69812SOL     OW11332   6.117   4.861   0.112
69812SOL    HW111333   6.111   4.889   0.021
69812SOL    HW211334   6.028   4.831   0.133
69813SOL     OW11335   2.005  14.490   7.775
69813SOL    HW111336   2.067  14.473   7.705
69813SOL    HW211337   1.940  14.549   7.736
69814SOL     OW11338  12.206  11.553   0.013
69814SOL    HW111339  12.232  11.613  14.821
69814SOL    HW211340  12.127  11.510  14.856
69815SOL     OW11341   2.485   1.786   7.055
69815SOL    HW111342   2.567   1.818   7.018
69815SOL    HW211343   2.512   1.725   7.124
69816SOL     OW11344   4.169   4.884   9.130
69816SOL    HW111345   4.110   4.834   9.074
69816SOL    HW211346   4.254   4.878   9.086
69817SOL     OW11347  13.826  12.195   6.090
69817SOL    HW111348  13.735  12.164   6.090
69817SOL    HW211349  13.825  12.269   6.150
69818SOL     OW11350   3.378   3.179  11.835
69818SOL    HW111351   3.333   3.254  11.796
69818SOL    HW211352   3.470   3.206  11.838
69819SOL     OW11353   1.793   5.383   6.772
69819SOL    HW111354   1.719   5.436   6.743
69819SOL    HW211355   1.805   5.407   6.864
69820SOL     OW11356   3.075   2.562  10.051
69820SOL    HW111357   3.018   2.562  10.127
69820SOL    HW211358   3.126   2.643  10.059
69821SOL     OW11359   9.788   1.810   7.719
69821SOL    HW111360   9.777   1.716   7.704
69821SOL    HW211361   9.882   1.824   7.709
69822SOL     OW11362   2.922  13.066  13.922
69822SOL    HW111363   3.008  13.099  13.896
69822SOL    HW211364   2.937  12.973  13.943
69823SOL     OW11365  10.752   5.379   2.300
69823SOL    HW111366  10.830   5.362   2.248
69823SOL    HW211367  10.784   5.428   2.375
69824SOL     OW11368  14.770   9.256  12.020
69824SOL    HW111369  14.831   9.201  12.070
69824SOL    HW211370  14.813   9.268  11.935
69825SOL     OW11371  12.703   3.921  11.387
69825SOL    HW111372  12.723   4.012  11.406
69825SOL    HW211373  12.772   3.871  11.432
69826SOL     OW11374   7.332   6.471  14.395
69826SOL    HW111375   7.332   6.421  14.476
69826SOL    HW211376   7.315   6.561  14.421
69827SOL     OW11377  13.667   5.017  13.363
69827SOL    HW111378  13.594   4.974  13.407
69827SOL    HW211379  13.658   4.992  13.271
69828SOL     OW11380   3.709   9.788  11.872
69828SOL    HW111381   3.780   9.725  11.861
69828SOL    HW211382   3.748   9.859  11.923
69829SOL     OW11383  10.351   4.507   5.812
69829SOL    HW111384  10.325   4.591   5.775
69829SOL    HW211385  10.393   4.529   5.895
69830SOL     OW11386  11.489   7.090   0.821
69830SOL    HW111387  11.572   7.043   0.829
69830SOL    HW211388  11.474   7.127   0.908
69831SOL     OW11389   2.880  14.504   5.371
69831SOL    HW111390   2.857  14.413   5.351
69831SOL    HW211391   2.939  14.498   5.445
69832SOL     OW11392   4.581  11.834  10.987
69832SOL    HW111393   4.572  11.919  11.030
69832SOL    HW211394   4.492  11.800  10.981
69833SOL     OW11395   0.827   4.012   9.111
69833SOL    HW111396   0.906   4.065   9.099
69833SOL    HW211397   0.760   4.075   9.137
69834SOL     OW11398   1.405   7.302  11.161
69834SOL    HW111399   1.347   7.244  11.112
69834SOL    HW211400   1.361   7.312  11.246
69835SOL     OW11401   7.553  11.384   6.344
69835SOL    HW111402   7.546  11.360   6.251
69835SOL    HW211403   7.532  11.304   6.391
69836SOL     OW11404   3.437   4.519   5.224
69836SOL    HW111405   3.519   4.556   5.258
69836SOL    HW211406   3.368   4.570   5.268
69837SOL     OW11407   4.270   8.103   4.508
69837SOL    HW111408   4.349   8.137   4.467
69837SOL    HW211409   4.296   8.084   4.598
69838SOL     OW11410   5.408   6.338   8.915
69838SOL    HW111411   5.479   6.305   8.861
69838SOL    HW211412   5.352   6.261   8.929
69839SOL     OW11413  12.527  14.835  13.550
69839SOL    HW111414  12.590   0.027  13.564
69839SOL    HW211415  12.488  14.855  13.465
69840SOL     OW11416   3.147   7.719   1.255
69840SOL    HW111417   3.061   7.678   1.247
69840SOL    HW211418   3.205   7.649   1.284
69841SOL     OW11419   1.866   4.353   1.556
69841SOL    HW111420   1.823   4.438   1.552
69841SOL    HW211421   1.816   4.303   1.620
69842SOL     OW11422   6.305  10.544  11.476
69842SOL    HW111423   6.275  10.556  11.386
69842SOL    HW211424   6.353  10.624  11.496
69843SOL     OW11425   9.697   8.135   9.634
69843SOL    HW111426   9.617   8.084   9.646
69843SOL    HW211427   9.755   8.078   9.583
69844SOL     OW11428  13.681   4.752   3.264
69844SOL    HW111429  13.620   4.781   3.195
69844SOL    HW211430  13.624   4.719   3.333
69845SOL     OW11431   9.891  10.951   9.273
69845SOL    HW111432   9.813  10.976   9.225
69845SOL    HW211433   9.870  10.968   9.365
69846SOL     OW11434   0.608  10.920   5.961
69846SOL    HW111435   0.595  10.900   5.868
69846SOL    HW211436   0.525  10.897   6.002
69847SOL     OW11437   4.106   3.438   2.230
69847SOL    HW111438   4.173   3.456   2.296
69847SOL    HW211439   4.083   3.524   2.196
69848SOL     OW11440   9.355   3.498   9.527
69848SOL    HW111441   9.333   3.425   9.584
69848SOL    HW211442   9.419   3.463   9.466
69849SOL     OW11443   5.522   7.245   9.839
69849SOL    HW111444   5.609   7.206   9.835
69849SOL    HW211445   5.483   7.209   9.919
69850SOL     OW11446   2.360   3.361  14.468
69850SOL    HW111447   2.346   3.439  14.415
69850SOL    HW211448   2.395   3.395  14.550
69851SOL     OW11449  10.508  10.661  11.730
69851SOL    HW111450  10.431  10.616  11.698
69851SOL    HW211451  10.533  10.614  11.809
69852SOL     OW11452   8.854   4.698   2.970
69852SOL    HW111453   8.765   4.707   3.004
69852SOL    HW211454   8.894   4.628   3.023
69853SOL     OW11455   7.221  14.568  14.276
69853SOL    HW111456   7.289  14.503  14.253
69853SOL    HW211457   7.138  14.522  14.262
69854SOL     OW11458   8.746   6.725   6.931
69854SOL    HW111459   8.798   6.682   6.999
69854SOL    HW211460   8.757   6.818   6.948
69855SOL     OW11461  10.033   8.691   9.422
69855SOL    HW111462  10.100   8.725   9.481
69855SOL    HW211463  10.076   8.687   9.337
69856SOL     OW11464   4.790   0.161   6.666
69856SOL    HW111465   4.879   0.186   6.691
69856SOL    HW211466   4.773   0.212   6.587
69857SOL     OW11467  13.628   7.860   2.251
69857SOL    HW111468  13.648   7.886   2.341
69857SOL    HW211469  13.670   7.927   2.197
69858SOL     OW11470   5.722  11.142   5.437
69858SOL    HW111471   5.710  11.068   5.497
69858SOL    HW211472   5.693  11.108   5.352
69859SOL     OW11473  13.636   8.599   1.237
69859SOL    HW111474  13.559   8.629   1.285
69859SOL    HW211475  13.708   8.651   1.272
69860SOL     OW11476  14.312   0.850   8.994
69860SOL    HW111477  14.284   0.844   8.903
69860SOL    HW211478  14.247   0.800   9.043
69861SOL     OW11479  14.045   8.189   4.853
69861SOL    HW111480  13.954   8.217   4.863
69861SOL    HW211481  14.076   8.235   4.775
69862SOL     OW11482   5.786   6.139  12.076
69862SOL    HW111483   5.876   6.106  12.078
69862SOL    HW211484   5.795   6.233  12.063
69863SOL     OW11485   8.519  14.487  11.398
69863SOL    HW111486   8.605  14.527  11.408
69863SOL    HW211487   8.534  14.393  11.407
69864SOL     OW11488   7.269   1.895   7.382
69864SOL    HW111489   7.283   1.879   7.476
69864SOL    HW211490   7.283   1.809   7.341
69865SOL     OW11491   8.184   1.542   2.567
69865SOL    HW111492   8.104   1.581   2.602
69865SOL    HW211493   8.155   1.495   2.489
69866SOL     OW11494  10.414  13.949  14.032
69866SOL    HW111495  10.386  13.933  13.942
69866SOL    HW211496  10.406  13.865  14.076
69867SOL     OW11497   7.694  11.778  11.859
69867SOL    HW111498   7.675  11.870  11.840
69867SOL    HW211499   7.748  11.781  11.939
69868SOL     OW11500   3.088  13.746  13.569
69868SOL    HW111501   3.057  13.673  13.517
69868SOL    HW211502   3.009  13.779  13.614
69869SOL     OW11503   1.320   3.158   3.145
69869SOL    HW111504   1.343   3.092   3.211
69869SOL    HW211505   1.265   3.221   3.192
69870SOL     OW11506  12.598   7.782   1.949
69870SOL    HW111507  12.554   7.769   2.033
69870SOL    HW211508  12.679   7.828   1.970
69871SOL     OW11509  14.449   8.967   5.312
69871SOL    HW111510  14.404   9.040   5.270
69871SOL    HW211511  14.526   8.952   5.257
69872SOL     OW11512  10.835  11.116   7.600
69872SOL    HW111513  10.818  11.132   7.693
69872SOL    HW211514  10.896  11.043   7.599
69873SOL     OW11515   8.785  13.094   2.166
69873SOL    HW111516   8.811  13.142   2.088
69873SOL    HW211517   8.696  13.124   2.184
69874SOL     OW11518  11.190   9.824   6.070
69874SOL    HW111519  11.135   9.762   6.022
69874SOL    HW211520  11.207   9.894   6.008
69875SOL     OW11521   4.054  12.590   0.442
69875SOL    HW111522   4.129  12.646   0.462
69875SOL    HW211523   4.047  12.531   0.516
69876SOL     OW11524   3.285  12.607  10.212
69876SOL    HW111525   3.254  12.696  10.233
69876SOL    HW211526   3.298  12.565  10.297
69877SOL     OW11527   7.258   2.636   2.919
69877SOL    HW111528   7.259   2.698   2.993
69877SOL    HW211529   7.351   2.625   2.897
69878SOL     OW11530  11.905  12.143   2.148
69878SOL    HW111531  11.878  12.051   2.144
69878SOL    HW211532  11.898  12.165   2.241
69879SOL     OW11533  13.289   9.419  12.641
69879SOL    HW111534  13.335   9.494  12.602
69879SOL    HW211535  13.209   9.412  12.589
69880SOL     OW11536   4.403  10.630   1.662
69880SOL    HW111537   4.455  10.701   1.699
69880SOL    HW211538   4.318  10.636   1.706
69881SOL     OW11539   1.696  13.798  11.351
69881SOL    HW111540   1.687  13.788  11.446
69881SOL    HW211541   1.740  13.882  11.340
69882SOL     OW11542  11.246   8.987   6.480
69882SOL    HW111543  11.194   8.917   6.519
69882SOL    HW211544  11.216   8.991   6.389
69883SOL     OW11545   5.341   3.255   8.139
69883SOL    HW111546   5.419   3.302   8.108
69883SOL    HW211547   5.374   3.198   8.210
69884SOL     OW11548  13.592   7.155   4.877
69884SOL    HW111549  13.568   7.067   4.847
69884SOL    HW211550  13.533   7.214   4.830
69885SOL     OW11551   0.230   2.328   3.069
69885SOL    HW111552   0.294   2.381   3.117
69885SOL    HW211553   0.231   2.364   2.980
69886SOL     OW11554  10.895   3.427  12.384
69886SOL    HW111555  10.841   3.406  12.460
69886SOL    HW211556  10.968   3.478  12.419
69887SOL     OW11557   5.251  10.275   4.069
69887SOL    HW111558   5.297  10.201   4.107
69887SOL    HW211559   5.265  10.266   3.974
69888SOL     OW11560  12.575   4.365   0.677
69888SOL    HW111561  12.514   4.313   0.730
69888SOL    HW211562  12.547   4.456   0.691
69889SOL     OW11563  12.631  14.219   1.778
69889SOL    HW111564  12.629  14.165   1.699
69889SOL    HW211565  12.570  14.291   1.760
69890SOL     OW11566   2.204   5.755   7.792
69890SOL    HW111567   2.109   5.768   7.791
69890SOL    HW211568   2.217   5.672   7.746
69891SOL     OW11569   4.210   0.069  12.100
69891SOL    HW111570   4.262   0.090  12.022
69891SOL    HW211571   4.137   0.131  12.097
69892SOL     OW11572  12.862   2.579   2.822
69892SOL    HW111573  12.791   2.515   2.813
69892SOL    HW211574  12.941   2.526   2.824
69893SOL     OW11575   4.203  13.482  10.972
69893SOL    HW111576   4.286  13.458  11.012
69893SOL    HW211577   4.177  13.563  11.016
69894SOL     OW11578   6.205   1.340  13.264
69894SOL    HW111579   6.134   1.403  13.253
69894SOL    HW211580   6.276   1.390  13.304
69895SOL     OW11581   0.944  10.514   0.960
69895SOL    HW111582   0.959  10.607   0.942
69895SOL    HW211583   0.849  10.507   0.969
69896SOL     OW11584   0.872   2.242   8.192
69896SOL    HW111585   0.938   2.176   8.171
69896SOL    HW211586   0.789   2.199   8.175
69897SOL     OW11587   6.078   1.863   6.525
69897SOL    HW111588   6.060   1.856   6.619
69897SOL    HW211589   6.000   1.827   6.482
69898SOL     OW11590  13.832   1.986   4.175
69898SOL    HW111591  13.801   2.049   4.110
69898SOL    HW211592  13.775   1.999   4.251
69899SOL     OW11593   6.919  12.223  14.538
69899SOL    HW111594   6.824  12.229  14.531
69899SOL    HW211595   6.940  12.259  14.624
69900SOL     OW11596   0.118   3.586   2.228
69900SOL    HW111597   0.098   3.500   2.191
69900SOL    HW211598   0.122   3.644   2.152
69901SOL     OW11599   8.524   9.771  10.963
69901SOL    HW111600   8.453   9.811  11.014
69901SOL    HW211601   8.554   9.698  11.017
69902SOL     OW11602   1.986  14.552   0.676
69902SOL    HW111603   2.006  14.512   0.760
69902SOL    HW211604   1.917  14.498   0.639
69903SOL     OW11605   7.488  13.983  13.734
69903SOL    HW111606   7.558  14.023  13.682
69903SOL    HW211607   7.456  13.910  13.681
69904SOL     OW11608   6.734   8.171  14.298
69904SOL    HW111609   6.773   8.145  14.216
69904SOL    HW211610   6.639   8.165  14.283
69905SOL     OW11611  10.868   3.881  14.688
69905SOL    HW111612  10.785   3.927  14.677
69905SOL    HW211613  10.846   3.789  14.677
69906SOL     OW11614   4.604  14.030  12.730
69906SOL    HW111615   4.639  14.036  12.819
69906SOL    HW211616   4.564  13.942  12.726
69907SOL     OW11617   0.960   5.121  10.411
69907SOL    HW111618   0.886   5.099  10.354
69907SOL    HW211619   0.974   5.042  10.464
69908SOL     OW11620   9.333   0.702  14.544
69908SOL    HW111621   9.251   0.727  14.587
69908SOL    HW211622   9.358   0.620  14.586
69909SOL     OW11623  12.521  12.854   8.780
69909SOL    HW111624  12.547  12.927   8.723
69909SOL    HW211625  12.487  12.896   8.859
69910SOL     OW11626   3.318  11.571   8.071
69910SOL    HW111627   3.391  11.615   8.113
69910SOL    HW211628   3.356  11.493   8.031
69911SOL     OW11629   6.296   2.389   2.805
69911SOL    HW111630   6.275   2.311   2.754
69911SOL    HW211631   6.261   2.370   2.892
69912SOL     OW11632  14.729  10.819  13.050
69912SOL    HW111633  14.711  10.888  13.114
69912SOL    HW211634  14.643  10.780  13.034
69913SOL     OW11635  11.337   4.164  12.121
69913SOL    HW111636  11.305   4.113  12.047
69913SOL    HW211637  11.433   4.160  12.113
69914SOL     OW11638   3.506   9.841   1.743
69914SOL    HW111639   3.451   9.918   1.759
69914SOL    HW211640   3.470   9.773   1.800
69915SOL     OW11641   4.020  10.056  12.576
69915SOL    HW111642   4.103  10.072  12.622
69915SOL    HW211643   3.979  10.142  12.570
69916SOL     OW11644  13.425  12.286   7.880
69916SOL    HW111645  13.395  12.369   7.918
69916SOL    HW211646  13.494  12.256   7.939
69917SOL     OW11647   1.461   7.163  11.870
69917SOL    HW111648   1.401   7.175  11.943
69917SOL    HW211649   1.543   7.133  11.910
69918SOL     OW11650   5.552   2.257   7.479
69918SOL    HW111651   5.584   2.174   7.444
69918SOL    HW211652   5.579   2.322   7.415
69919SOL     OW11653   4.288  13.980  10.234
69919SOL    HW111654   4.309  13.907  10.291
69919SOL    HW211655   4.199  13.963  10.204
69920SOL     OW11656   4.622  10.952   4.211
69920SOL    HW111657   4.594  11.041   4.231
69920SOL    HW211658   4.549  10.896   4.237
69921SOL     OW11659   9.408  11.295   3.241
69921SOL    HW111660   9.447  11.234   3.177
69921SOL    HW211661   9.430  11.382   3.208
69922SOL     OW11662  10.244  13.871   2.175
69922SOL    HW111663  10.212  13.804   2.114
69922SOL    HW211664  10.335  13.848   2.190
69923SOL     OW11665   4.979   5.812   8.634
69923SOL    HW111666   5.073   5.803   8.646
69923SOL    HW211667   4.941   5.777   8.714
69924SOL     OW11668   8.936   9.544   4.315
69924SOL    HW111669   8.882   9.507   4.245
69924SOL    HW211670   9.008   9.588   4.269
69925SOL     OW11671   3.822  11.866   4.536
69925SOL    HW111672   3.852  11.876   4.626
69925SOL    HW211673   3.741  11.816   4.542
69926SOL     OW11674  12.953   7.502   9.286
69926SOL    HW111675  12.916   7.414   9.294
69926SOL    HW211676  12.934   7.544   9.370
69927SOL     OW11677  14.080   7.852   7.863
69927SOL    HW111678  14.131   7.799   7.802
69927SOL    HW211679  13.998   7.869   7.816
69928SOL     OW11680   8.511  13.115  11.346
69928SOL    HW111681   8.482  13.120  11.255
69928SOL    HW211682   8.462  13.183  11.391
69929SOL     OW11683  13.006  12.200   5.757
69929SOL    HW111684  13.057  12.279   5.738
69929SOL    HW211685  12.939  12.230   5.819
69930SOL     OW11686   8.034  12.384   9.107
69930SOL    HW111687   7.975  12.331   9.053
69930SOL    HW211688   8.117  12.384   9.058
69931SOL     OW11689   5.294   1.236   6.428
69931SOL    HW111690   5.330   1.172   6.366
69931SOL    HW211691   5.199   1.225   6.421
69932SOL     OW11692  12.949   9.626  10.114
69932SOL    HW111693  12.996   9.544  10.103
69932SOL    HW211694  12.927   9.653  10.025
69933SOL     OW11695   5.942   9.321   3.751
69933SOL    HW111696   5.851   9.342   3.733
69933SOL    HW211697   5.987   9.334   3.668
69934SOL     OW11698  14.864   6.260   5.072
69934SOL    HW111699  14.846   6.327   5.006
69934SOL    HW211700  14.794   6.196   5.060
69935SOL     OW11701   8.541   7.442  13.159
69935SOL    HW111702   8.614   7.473  13.104
69935SOL    HW211703   8.578   7.370  13.209
69936SOL     OW11704   2.554   5.012  13.155
69936SOL    HW111705   2.513   5.099  13.157
69936SOL    HW211706   2.481   4.951  13.153
69937SOL     OW11707   0.191  10.005   7.897
69937SOL    HW111708   0.175  10.021   7.990
69937SOL    HW211709   0.280   9.969   7.894
69938SOL     OW11710   3.435  10.156   3.025
69938SOL    HW111711   3.499  10.174   3.094
69938SOL    HW211712   3.350  10.161   3.069
69939SOL     OW11713   2.339  12.375  12.293
69939SOL    HW111714   2.287  12.301  12.263
69939SOL    HW211715   2.377  12.412  12.214
69940SOL     OW11716  12.146   2.675   3.756
69940SOL    HW111717  12.127   2.636   3.841
69940SOL    HW211718  12.234   2.645   3.734
69941SOL     OW11719  10.163   1.467  13.830
69941SOL    HW111720  10.124   1.439  13.748
69941SOL    HW211721  10.098   1.525  13.869
69942SOL     OW11722   4.547   7.850  12.487
69942SOL    HW111723   4.591   7.845  12.571
69942SOL    HW211724   4.486   7.775  12.487
69943SOL     OW11725  13.355   7.219   4.427
69943SOL    HW111726  13.345   7.294   4.369
69943SOL    HW211727  13.295   7.236   4.500
69944SOL     OW11728   4.184   9.950   8.999
69944SOL    HW111729   4.090   9.957   8.980
69944SOL    HW211730   4.225  10.007   8.935
69945SOL     OW11731  10.199  13.448  12.181
69945SOL    HW111732  10.156  13.367  12.209
69945SOL    HW211733  10.262  13.467  12.250
69946SOL     OW11734  11.032  10.641  10.705
69946SOL    HW111735  11.041  10.567  10.646
69946SOL    HW211736  11.118  10.648  10.748
69947SOL     OW11737  10.357  11.817   8.742
69947SOL    HW111738  10.328  11.729   8.767
69947SOL    HW211739  10.283  11.874   8.766
69948SOL     OW11740  11.781  10.465   2.775
69948SOL    HW111741  11.843  10.427   2.713
69948SOL    HW211742  11.796  10.416   2.856
69949SOL     OW11743   1.590   9.698  14.381
69949SOL    HW111744   1.527   9.761  14.346
69949SOL    HW211745   1.542   9.616  14.387
69950SOL     OW11746   9.691   9.648  14.151
69950SOL    HW111747   9.781   9.630  14.180
69950SOL    HW211748   9.684   9.744  14.153
69951SOL     OW11749   6.731  13.456  14.681
69951SOL    HW111750   6.730  13.547  14.710
69951SOL    HW211751   6.717  13.461  14.586
69952SOL     OW11752   4.002  11.403   6.290
69952SOL    HW111753   3.941  11.344   6.246
69952SOL    HW211754   4.042  11.350   6.359
69953SOL     OW11755  11.128   2.344   5.043
69953SOL    HW111756  11.118   2.411   5.111
69953SOL    HW211757  11.204   2.372   4.992
69954SOL     OW11758   8.150   3.813   4.023
69954SOL    HW111759   8.160   3.878   3.953
69954SOL    HW211760   8.072   3.764   4.000
69955SOL     OW11761   0.048  12.681   0.913
69955SOL    HW111762   0.022  12.607   0.967
69955SOL    HW211763  14.845  12.706   0.867
69956SOL     OW11764   6.074  14.110   3.548
69956SOL    HW111765   6.136  14.121   3.476
69956SOL    HW211766   6.126  14.130   3.626
69957SOL     OW11767   4.089  10.331  12.803
69957SOL    HW111768   4.087  10.426  12.814
69957SOL    HW211769   4.133  10.299  12.882
69958SOL     OW11770   7.922  14.086  13.400
69958SOL    HW111771   7.977  14.077  13.478
69958SOL    HW211772   7.974  14.048  13.329
69959SOL     OW11773  10.993  12.961   7.100
69959SOL    HW111774  10.970  12.982   7.190
69959SOL    HW211775  10.912  12.976   7.051
69960SOL     OW11776  14.652   2.936   2.741
69960SOL    HW111777  14.684   3.026   2.749
69960SOL    HW211778  14.576   2.932   2.800
69961SOL     OW11779   6.625  10.268   9.036
69961SOL    HW111780   6.631  10.279   8.941
69961SOL    HW211781   6.652  10.353   9.072
69962SOL     OW11782   7.676   3.495   4.117
69962SOL    HW111783   7.755   3.476   4.168
69962SOL    HW211784   7.682   3.589   4.099
69963SOL     OW11785   2.974  12.498   1.656
69963SOL    HW111786   2.905  12.434   1.674
69963SOL    HW211787   3.020  12.508   1.740
69964SOL     OW11788   3.602  12.565  10.926
69964SOL    HW111789   3.671  12.602  10.983
69964SOL    HW211790   3.560  12.498  10.980
69965SOL     OW11791  10.622  13.780  12.610
69965SOL    HW111792  10.562  13.771  12.684
69965SOL    HW211793  10.580  13.844  12.552
69966SOL     OW11794  10.923   5.844   2.838
69966SOL    HW111795  10.865   5.769   2.853
69966SOL    HW211796  10.966   5.857   2.922
69967SOL     OW11797   0.598   3.395   7.398
69967SOL    HW111798   0.651   3.434   7.330
69967SOL    HW211799   0.567   3.469   7.451
69968SOL     OW11800   9.825   2.826   5.867
69968SOL    HW111801   9.786   2.811   5.780
69968SOL    HW211802   9.807   2.745   5.915
69969SOL     OW11803   8.115   4.144   1.764
69969SOL    HW111804   8.068   4.113   1.842
69969SOL    HW211805   8.069   4.224   1.739
69970SOL     OW11806   9.840  11.956   6.401
69970SOL    HW111807   9.792  11.947   6.483
69970SOL    HW211808   9.875  11.868   6.384
69971SOL     OW11809   5.492   7.961  14.873
69971SOL    HW111810   5.429   7.889  14.863
69971SOL    HW211811   5.549   7.954  14.796
69972SOL     OW11812   8.976  10.046   1.166
69972SOL    HW111813   8.992   9.956   1.139
69972SOL    HW211814   8.986  10.045   1.261
69973SOL     OW11815   5.525   2.437   1.528
69973SOL    HW111816   5.449   2.475   1.484
69973SOL    HW211817   5.490   2.363   1.578
69974SOL     OW11818   8.875   4.581  12.522
69974SOL    HW111819   8.942   4.517  12.495
69974SOL    HW211820   8.804   4.527  12.557
69975SOL     OW11821   3.522   8.990   7.842
69975SOL    HW111822   3.468   9.014   7.917
69975SOL    HW211823   3.610   8.979   7.879
69976SOL     OW11824  11.625  10.389   1.219
69976SOL    HW111825  11.674  10.328   1.164
69976SOL    HW211826  11.535  10.383   1.187
69977SOL     OW11827   7.636   6.096  13.398
69977SOL    HW111828   7.646   6.040  13.474
69977SOL    HW211829   7.696   6.169  13.413
69978SOL     OW11830   6.185   0.522  10.186
69978SOL    HW111831   6.130   0.599  10.188
69978SOL    HW211832   6.126   0.449  10.206
69979SOL     OW11833   2.135   5.943   8.007
69979SOL    HW111834   2.188   5.868   7.980
69979SOL    HW211835   2.153   5.952   8.101
69980SOL     OW11836   0.244   6.533   1.938
69980SOL    HW111837   0.217   6.448   1.971
69980SOL    HW211838   0.162   6.576   1.911
69981SOL     OW11839   4.457   4.734   3.769
69981SOL    HW111840   4.386   4.790   3.801
69981SOL    HW211841   4.415   4.676   3.705
69982SOL     OW11842   6.684   1.269  13.198
69982SOL    HW111843   6.591   1.276  13.217
69982SOL    HW211844   6.715   1.196  13.252
69983SOL     OW11845  10.555  14.467   9.301
69983SOL    HW111846  10.480  14.501   9.349
69983SOL    HW211847  10.563  14.376   9.331
69984SOL     OW11848  13.423   6.134   6.782
69984SOL    HW111849  13.347   6.188   6.806
69984SOL    HW211850  13.496   6.173   6.828
69985SOL     OW11851  10.538   7.390   1.269
69985SOL    HW111852  10.624   7.353   1.247
69985SOL    HW211853  10.506   7.429   1.188
69986SOL     OW11854   0.684   3.708   5.997
69986SOL    HW111855   0.710   3.697   5.905
69986SOL    HW211856   0.630   3.631   6.015
69987SOL     OW11857   0.127   3.366   3.361
69987SOL    HW111858   0.143   3.460   3.372
69987SOL    HW211859   0.050   3.361   3.304
69988SOL     OW11860  14.477   3.049   3.978
69988SOL    HW111861  14.483   2.985   3.907
69988SOL    HW211862  14.519   3.005   4.053
69989SOL     OW11863   0.504  13.241   0.973
69989SOL    HW111864   0.416  13.278   0.976
69989SOL    HW211865   0.492  13.152   0.941
69990SOL     OW11866   8.819   3.489   1.113
69990SOL    HW111867   8.889   3.431   1.142
69990SOL    HW211868   8.747   3.473   1.174
69991SOL     OW11869   6.162   2.804  13.147
69991SOL    HW111870   6.176   2.798  13.242
69991SOL    HW211871   6.074   2.841  13.138
69992SOL     OW11872   6.125   9.493   7.725
69992SOL    HW111873   6.201   9.539   7.688
69992SOL    HW211874   6.057   9.560   7.729
69993SOL     OW11875   5.655   8.408   7.672
69993SOL    HW111876   5.579   8.351   7.664
69993SOL    HW211877   5.730   8.349   7.663
69994SOL     OW11878   0.092  13.017   6.471
69994SOL    HW111879   0.016  13.072   6.491
69994SOL    HW211880   0.158  13.044   6.534
69995SOL     OW11881   0.668   8.358  13.297
69995SOL    HW111882   0.706   8.421  13.237
69995SOL    HW211883   0.613   8.303  13.242
69996SOL     OW11884  11.253  11.634   9.055
69996SOL    HW111885  11.229  11.691   8.983
69996SOL    HW211886  11.307  11.689   9.112
69997SOL     OW11887  10.323  12.374   0.458
69997SOL    HW111888  10.269  12.398   0.533
69997SOL    HW211889  10.282  12.418   0.384
69998SOL     OW11890   9.540   6.438   6.369
69998SOL    HW111891   9.514   6.391   6.449
69998SOL    HW211892   9.483   6.403   6.301
69999SOL     OW11893   2.096   5.282   9.721
69999SOL    HW111894   2.172   5.306   9.669
69999SOL    HW211895   2.021   5.318   9.673
70000SOL     OW11896   1.265   5.130   5.961
70000SOL    HW111897   1.226   5.217   5.955
70000SOL    HW211898   1.342   5.143   6.017
70001SOL     OW11899  14.787   8.313  13.100
70001SOL    HW111900  14.798   8.366  13.179
70001SOL    HW211901  14.693   8.309  13.087
70002SOL     OW11902   4.877   6.292   4.222
70002SOL    HW111903   4.855   6.339   4.302
70002SOL    HW211904   4.972   6.299   4.214
70003SOL     OW11905   2.256  10.126   1.924
70003SOL    HW111906   2.242  10.188   1.852
70003SOL    HW211907   2.348  10.100   1.915
70004SOL     OW11908   2.047   4.497   3.611
70004SOL    HW111909   2.097   4.440   3.552
70004SOL    HW211910   2.101   4.575   3.622
70005SOL     OW11911   2.251   9.830   1.861
70005SOL    HW111912   2.212   9.916   1.844
70005SOL    HW211913   2.345   9.845   1.855
70006SOL     OW11914   6.896   8.300   4.955
70006SOL    HW111915   6.803   8.290   4.975
70006SOL    HW211916   6.899   8.366   4.885
70007SOL     OW11917   6.001  13.740  11.955
70007SOL    HW111918   6.042  13.671  11.902
70007SOL    HW211919   5.916  13.704  11.980
70008SOL     OW11920  10.434  12.937  10.175
70008SOL    HW111921  10.491  12.924  10.251
70008SOL    HW211922  10.489  12.918  10.099
70009SOL     OW11923   1.572   8.916   3.221
70009SOL    HW111924   1.476   8.920   3.211
70009SOL    HW211925   1.605   8.986   3.165
70010SOL     OW11926   0.296   4.087  10.522
70010SOL    HW111927   0.278   4.131  10.605
70010SOL    HW211928   0.213   4.091  10.475
70011SOL     OW11929  10.893   2.856   6.488
70011SOL    HW111930  10.843   2.816   6.417
70011SOL    HW211931  10.837   2.925   6.521
70012SOL     OW11932   6.418   3.942   7.175
70012SOL    HW111933   6.505   3.925   7.212
70012SOL    HW211934   6.361   3.953   7.251
70013SOL     OW11935  13.757  14.027  14.456
70013SOL    HW111936  13.783  13.939  14.427
70013SOL    HW211937  13.771  14.026  14.551
70014SOL     OW11938   1.560   7.885  12.870
70014SOL    HW111939   1.634   7.842  12.914
70014SOL    HW211940   1.499   7.907  12.941
70015SOL     OW11941  13.672  13.179   6.662
70015SOL    HW111942  13.627  13.258   6.692
70015SOL    HW211943  13.752  13.175   6.715
70016SOL     OW11944   1.136   0.382   0.914
70016SOL    HW111945   1.157   0.448   0.980
70016SOL    HW211946   1.198   0.311   0.929
70017SOL     OW11947   8.459   1.631  10.486
70017SOL    HW111948   8.441   1.610  10.394
70017SOL    HW211949   8.528   1.697  10.482
70018SOL     OW11950  11.535   7.304   9.486
70018SOL    HW111951  11.528   7.378   9.546
70018SOL    HW211952  11.487   7.333   9.408
70019SOL     OW11953   9.414  11.505   7.299
70019SOL    HW111954   9.407  11.430   7.241
70019SOL    HW211955   9.338  11.560   7.277
70020SOL     OW11956  10.599   0.294   3.585
70020SOL    HW111957  10.596   0.287   3.681
70020SOL    HW211958  10.531   0.359   3.564
70021SOL     OW11959   2.306   1.382   1.118
70021SOL    HW111960   2.398   1.407   1.119
70021SOL    HW211961   2.273   1.410   1.204
70022SOL     OW11962   1.258  12.620  10.545
70022SOL    HW111963   1.244  12.674  10.624
70022SOL    HW211964   1.346  12.644  10.515
70023SOL     OW11965   0.274   0.291   9.292
70023SOL    HW111966   0.229   0.303   9.376
70023SOL    HW211967   0.232   0.215   9.252
70024SOL     OW11968   5.831   0.711   5.904
70024SOL    HW111969   5.760   0.687   5.963
70024SOL    HW211970   5.870   0.627   5.879
70025SOL     OW11971   3.414   6.364  12.666
70025SOL    HW111972   3.332   6.335  12.707
70025SOL    HW211973   3.438   6.291  12.608
70026SOL     OW11974   0.650  14.079   7.516
70026SOL    HW111975   0.650  13.995   7.562
70026SOL    HW211976   0.720  14.129   7.558
70027SOL     OW11977   7.692   1.672  10.135
70027SOL    HW111978   7.677   1.739  10.068
70027SOL    HW211979   7.651   1.593  10.100
70028SOL     OW11980   5.484   3.287   3.488
70028SOL    HW111981   5.512   3.261   3.400
70028SOL    HW211982   5.430   3.365   3.474
70029SOL     OW11983   1.945   8.174   2.261
70029SOL    HW111984   1.980   8.228   2.332
70029SOL    HW211985   2.023   8.133   2.223
70030SOL     OW11986   3.136   6.515   2.566
70030SOL    HW111987   3.117   6.553   2.652
70030SOL    HW211988   3.213   6.563   2.535
70031SOL     OW11989  11.135   5.373   9.272
70031SOL    HW111990  11.188   5.451   9.289
70031SOL    HW211991  11.142   5.360   9.177
70032SOL     OW11992   9.520   7.875  13.863
70032SOL    HW111993   9.470   7.818  13.803
70032SOL    HW211994   9.561   7.939  13.806
70033SOL     OW11995   1.170   0.462  14.689
70033SOL    HW111996   1.261   0.467  14.718
70033SOL    HW211997   1.158   0.537  14.631
70034SOL     OW11998  12.487   1.059   0.967
70034SOL    HW111999  12.522   1.060   1.057
70034SOL    HW212000  12.402   1.103   0.974
70035SOL     OW12001   7.365   8.231   9.511
70035SOL    HW112002   7.428   8.233   9.583
70035SOL    HW212003   7.417   8.248   9.433
70036SOL     OW12004  14.361   4.323   1.505
70036SOL    HW112005  14.276   4.279   1.509
70036SOL    HW212006  14.369   4.366   1.591
70037SOL     OW12007   2.840   6.463  14.158
70037SOL    HW112008   2.774   6.476  14.227
70037SOL    HW212009   2.891   6.544  14.158
70038SOL     OW12010  12.169   6.091  12.862
70038SOL    HW112011  12.171   6.184  12.886
70038SOL    HW212012  12.080   6.062  12.882
70039SOL     OW12013  14.267   6.854   8.204
70039SOL    HW112014  14.297   6.801   8.278
70039SOL    HW212015  14.334   6.843   8.137
70040SOL     OW12016  14.072   5.956   4.653
70040SOL    HW112017  14.123   5.891   4.604
70040SOL    HW212018  14.030   5.906   4.722
70041SOL     OW12019   4.430   2.125  11.295
70041SOL    HW112020   4.485   2.091  11.365
70041SOL    HW212021   4.404   2.048  11.245
70042SOL     OW12022   0.894   9.961  13.827
70042SOL    HW112023   0.961   9.985  13.763
70042SOL    HW212024   0.914   9.869  13.848
70043SOL     OW12025   6.851   1.067   4.750
70043SOL    HW112026   6.826   0.977   4.727
70043SOL    HW212027   6.857   1.113   4.666
70044SOL     OW12028   4.374  11.960   3.873
70044SOL    HW112029   4.294  11.911   3.891
70044SOL    HW212030   4.431  11.942   3.948
70045SOL     OW12031  12.287   9.864   2.873
70045SOL    HW112032  12.279   9.857   2.777
70045SOL    HW212033  12.326   9.951   2.887
70046SOL     OW12034   0.169   2.215  11.298
70046SOL    HW112035   0.200   2.255  11.217
70046SOL    HW212036   0.078   2.245  11.306
70047SOL     OW12037   9.124   4.621   4.346
70047SOL    HW112038   9.051   4.657   4.295
70047SOL    HW212039   9.099   4.637   4.437
70048SOL     OW12040  11.161  10.570  11.854
70048SOL    HW112041  11.238  10.599  11.904
70048SOL    HW212042  11.112  10.516  11.916
70049SOL     OW12043   9.891   8.860  12.238
70049SOL    HW112044   9.828   8.859  12.310
70049SOL    HW212045   9.838   8.863  12.159
70050SOL     OW12046   3.977  12.210   7.371
70050SOL    HW112047   4.069  12.235   7.365
70050SOL    HW212048   3.934  12.285   7.412
70051SOL     OW12049   8.326   3.008   4.426
70051SOL    HW112050   8.325   2.913   4.434
70051SOL    HW212051   8.245   3.036   4.469
70052SOL     OW12052  12.803   4.703  12.710
70052SOL    HW112053  12.718   4.731  12.676
70052SOL    HW212054  12.865   4.768  12.676
70053SOL     OW12055  11.605  10.908   1.129
70053SOL    HW112056  11.589  10.824   1.086
70053SOL    HW212057  11.528  10.920   1.185
70054SOL     OW12058  14.064   7.350  10.443
70054SOL    HW112059  14.146   7.351  10.393
70054SOL    HW212060  14.048   7.257  10.461
70055SOL     OW12061  14.218   0.273   5.332
70055SOL    HW112062  14.217   0.195   5.386
70055SOL    HW212063  14.157   0.255   5.261
70056SOL     OW12064   1.719   5.809  12.547
70056SOL    HW112065   1.773   5.850  12.616
70056SOL    HW212066   1.630   5.838  12.567
70057SOL     OW12067   8.471  11.563   6.401
70057SOL    HW112068   8.399  11.519   6.355
70057SOL    HW212069   8.493  11.638   6.345
70058SOL     OW12070   8.592   0.775   6.099
70058SOL    HW112071   8.604   0.693   6.147
70058SOL    HW212072   8.667   0.779   6.040
70059SOL     OW12073   4.396  11.078   7.308
70059SOL    HW112074   4.303  11.067   7.329
70059SOL    HW212075   4.439  11.090   7.393
70060SOL     OW12076   4.424  11.542   4.536
70060SOL    HW112077   4.432  11.637   4.550
70060SOL    HW212078   4.496  11.504   4.587
70061SOL     OW12079   4.688   4.418   6.313
70061SOL    HW112080   4.688   4.395   6.220
70061SOL    HW212081   4.763   4.477   6.323
70062SOL     OW12082   6.710   2.737   5.363
70062SOL    HW112083   6.752   2.727   5.277
70062SOL    HW212084   6.718   2.830   5.382
70063SOL     OW12085  14.573   8.336   7.213
70063SOL    HW112086  14.590   8.248   7.180
70063SOL    HW212087  14.611   8.336   7.301
70064SOL     OW12088   0.144  11.664   5.077
70064SOL    HW112089   0.093  11.745   5.083
70064SOL    HW212090   0.115  11.625   4.994
70065SOL     OW12091  14.587   8.235   4.329
70065SOL    HW112092  14.591   8.168   4.397
70065SOL    HW212093  14.677   8.242   4.298
70066SOL     OW12094  14.594   1.375   0.520
70066SOL    HW112095  14.677   1.405   0.485
70066SOL    HW212096  14.556   1.322   0.450
70067SOL     OW12097  12.798   3.899  12.109
70067SOL    HW112098  12.757   3.839  12.171
70067SOL    HW212099  12.883   3.920  12.148
70068SOL     OW12100   1.729  11.583   8.880
70068SOL    HW112101   1.823  11.569   8.889
70068SOL    HW212102   1.713  11.581   8.786
70069SOL     OW12103  13.890  14.398   5.003
70069SOL    HW112104  13.960  14.335   5.017
70069SOL    HW212105  13.823  14.348   4.955
70070SOL     OW12106  14.834   5.553  13.159
70070SOL    HW112107   0.003   5.482  13.115
70070SOL    HW212108  14.748   5.554  13.118
70071SOL     OW12109   9.245   2.191  13.541
70071SOL    HW112110   9.243   2.106  13.497
70071SOL    HW212111   9.217   2.172  13.630
70072SOL     OW12112   2.413  11.486  14.487
70072SOL    HW112113   2.485  11.477  14.550
70072SOL    HW212114   2.454  11.476  14.401
70073SOL     OW12115  11.322  14.337   2.856
70073SOL    HW112116  11.318  14.433   2.857
70073SOL    HW212117  11.415  14.316   2.864
70074SOL     OW12118  10.099   0.859   9.929
70074SOL    HW112119  10.156   0.783   9.941
70074SOL    HW212120  10.158   0.930   9.905
70075SOL     OW12121  10.238   5.600   8.967
70075SOL    HW112122  10.221   5.694   8.964
70075SOL    HW212123  10.152   5.559   8.953
70076SOL     OW12124  14.572   6.790   7.538
70076SOL    HW112125  14.619   6.867   7.567
70076SOL    HW212126  14.631   6.747   7.476
70077SOL     OW12127   5.134  13.216  13.567
70077SOL    HW112128   5.166  13.288  13.512
70077SOL    HW212129   5.039  13.231  13.574
70078SOL     OW12130  12.969   7.346  13.365
70078SOL    HW112131  13.028   7.271  13.371
70078SOL    HW212132  12.881   7.307  13.369
70079SOL     OW12133   2.638   6.976   1.359
70079SOL    HW112134   2.590   7.051   1.393
70079SOL    HW212135   2.620   6.976   1.265
70080SOL     OW12136  11.267   1.990   9.787
70080SOL    HW112137  11.262   2.081   9.816
70080SOL    HW212138  11.228   1.990   9.700
70081SOL     OW12139   5.273  13.548  10.681
70081SOL    HW112140   5.193  13.521  10.727
70081SOL    HW212141   5.344  13.507  10.730
70082SOL     OW12142   5.776   2.037   0.090
70082SOL    HW112143   5.835   2.105   0.058
70082SOL    HW212144   5.827   1.990   0.156
70083SOL     OW12145   4.965  14.758   0.045
70083SOL    HW112146   5.025  14.754   0.120
70083SOL    HW212147   5.004  14.698  14.858
70084SOL     OW12148   2.714   6.128  13.404
70084SOL    HW112149   2.664   6.201  13.367
70084SOL    HW212150   2.666   6.050  13.376
70085SOL     OW12151   1.777   8.923  10.396
70085SOL    HW112152   1.757   8.829  10.401
70085SOL    HW212153   1.852   8.934  10.455
70086SOL     OW12154   5.828   9.243   1.616
70086SOL    HW112155   5.815   9.337   1.631
70086SOL    HW212156   5.743   9.211   1.587
70087SOL     OW12157  13.963   0.235  10.384
70087SOL    HW112158  13.973   0.177  10.308
70087SOL    HW212159  14.038   0.213  10.440
70088SOL     OW12160   7.162  11.970   2.751
70088SOL    HW112161   7.114  11.999   2.673
70088SOL    HW212162   7.191  12.051   2.792
70089SOL     OW12163   7.334   4.377   5.616
70089SOL    HW112164   7.388   4.348   5.542
70089SOL    HW212165   7.253   4.409   5.576
70090SOL     OW12166  14.585   9.714  13.012
70090SOL    HW112167  14.492   9.698  13.028
70090SOL    HW212168  14.605   9.794  13.060
70091SOL     OW12169  12.691  10.718  11.815
70091SOL    HW112170  12.749  10.758  11.751
70091SOL    HW212171  12.722  10.751  11.900
70092SOL     OW12172   5.995  12.678   8.482
70092SOL    HW112173   6.014  12.584   8.485
70092SOL    HW212174   6.079  12.720   8.497
70093SOL     OW12175  11.930  12.476  11.657
70093SOL    HW112176  11.887  12.560  11.645
70093SOL    HW212177  12.003  12.495  11.716
70094SOL     OW12178   3.861   6.909  11.714
70094SOL    HW112179   3.789   6.850  11.694
70094SOL    HW212180   3.878   6.896  11.807
70095SOL     OW12181  13.071  13.156   7.986
70095SOL    HW112182  13.074  13.064   7.961
70095SOL    HW212183  12.984  13.186   7.961
70096SOL     OW12184   0.763   5.536   9.923
70096SOL    HW112185   0.808   5.517   9.841
70096SOL    HW212186   0.743   5.450   9.961
70097SOL     OW12187   9.752   8.508   3.740
70097SOL    HW112188   9.823   8.510   3.804
70097SOL    HW212189   9.721   8.418   3.741
70098SOL     OW12190   8.990  12.996  12.757
70098SOL    HW112191   8.929  12.932  12.794
70098SOL    HW212192   8.961  13.080  12.792
70099SOL     OW12193  10.236   8.243   7.406
70099SOL    HW112194  10.298   8.305   7.367
70099SOL    HW212195  10.283   8.206   7.481
70100SOL     OW12196   5.526   4.743   8.670
70100SOL    HW112197   5.459   4.771   8.732
70100SOL    HW212198   5.588   4.816   8.668
70101SOL     OW12199  13.305  10.853   2.392
70101SOL    HW112200  13.215  10.823   2.385
70101SOL    HW212201  13.354  10.796   2.332
70102SOL     OW12202   2.725   4.340   0.370
70102SOL    HW112203   2.778   4.282   0.424
70102SOL    HW212204   2.640   4.343   0.414
70103SOL     OW12205   0.043  13.294   7.456
70103SOL    HW112206   0.097  13.322   7.382
70103SOL    HW212207  14.851  13.241   7.417
70104SOL     OW12208   4.747   1.397   9.469
70104SOL    HW112209   4.748   1.363   9.559
70104SOL    HW212210   4.802   1.336   9.420
70105SOL     OW12211   6.027   9.550   7.157
70105SOL    HW112212   6.075   9.633   7.163
70105SOL    HW212213   5.995   9.535   7.246
70106SOL     OW12214   2.661   1.990   6.460
70106SOL    HW112215   2.590   2.040   6.502
70106SOL    HW212216   2.620   1.906   6.437
70107SOL     OW12217  12.223   1.943   8.235
70107SOL    HW112218  12.301   1.991   8.209
70107SOL    HW212219  12.240   1.853   8.207
70108SOL     OW12220   0.204   8.866   7.625
70108SOL    HW112221   0.252   8.949   7.627
70108SOL    HW212222   0.262   8.805   7.671
70109SOL     OW12223   5.982  11.010   1.266
70109SOL    HW112224   6.018  11.094   1.293
70109SOL    HW212225   5.986  11.011   1.171
70110SOL     OW12226   3.849   9.641  13.905
70110SOL    HW112227   3.838   9.694  13.826
70110SOL    HW212228   3.940   9.655  13.931
70111SOL     OW12229  11.111  12.354   0.789
70111SOL    HW112230  11.063  12.433   0.815
70111SOL    HW212231  11.126  12.307   0.871
70112SOL     OW12232   0.704  10.055   4.344
70112SOL    HW112233   0.701  10.010   4.428
70112SOL    HW212234   0.619  10.039   4.304
70113SOL     OW12235   6.731   1.940   9.846
70113SOL    HW112236   6.816   1.919   9.883
70113SOL    HW212237   6.682   1.978   9.919
70114SOL     OW12238   0.280   5.388   6.809
70114SOL    HW112239   0.211   5.324   6.830
70114SOL    HW212240   0.355   5.334   6.784
70115SOL     OW12241   7.336   8.567  11.110
70115SOL    HW112242   7.334   8.557  11.205
70115SOL    HW212243   7.402   8.505  11.081
70116SOL     OW12244   7.845   1.449   7.681
70116SOL    HW112245   7.919   1.406   7.723
70116SOL    HW212246   7.879   1.481   7.598
70117SOL     OW12247   9.854  13.451   0.823
70117SOL    HW112248   9.807  13.384   0.775
70117SOL    HW212249   9.787  13.516   0.847
70118SOL     OW12250  11.595  11.365  10.260
70118SOL    HW112251  11.516  11.325  10.296
70118SOL    HW212252  11.588  11.350  10.166
70119SOL     OW12253  12.886   3.288  14.062
70119SOL    HW112254  12.973   3.292  14.023
70119SOL    HW212255  12.828   3.322  13.994
70120SOL     OW12256   5.631   1.710   6.287
70120SOL    HW112257   5.626   1.736   6.195
70120SOL    HW212258   5.545   1.730   6.323
70121SOL     OW12259  12.460   4.470   4.395
70121SOL    HW112260  12.534   4.526   4.415
70121SOL    HW212261  12.385   4.530   4.387
70122SOL     OW12262   7.682   3.615  11.714
70122SOL    HW112263   7.606   3.674  11.712
70122SOL    HW212264   7.646   3.531  11.742
70123SOL     OW12265   3.247  11.442  14.341
70123SOL    HW112266   3.260  11.458  14.435
70123SOL    HW212267   3.259  11.528  14.301
70124SOL     OW12268   4.441   7.495   7.995
70124SOL    HW112269   4.355   7.456   7.979
70124SOL    HW212270   4.483   7.496   7.908
70125SOL     OW12271   9.583   9.788   1.484
70125SOL    HW112272   9.645   9.803   1.556
70125SOL    HW212273   9.613   9.708   1.442
70126SOL     OW12274   6.730   8.454   1.937
70126SOL    HW112275   6.661   8.426   1.876
70126SOL    HW212276   6.732   8.549   1.929
70127SOL     OW12277   8.639   0.448   1.148
70127SOL    HW112278   8.624   0.427   1.055
70127SOL    HW212279   8.567   0.405   1.194
70128SOL     OW12280   2.589  11.138   6.249
70128SOL    HW112281   2.571  11.045   6.258
70128SOL    HW212282   2.505  11.176   6.221
70129SOL     OW12283  13.827  12.585   0.420
70129SOL    HW112284  13.839  12.530   0.344
70129SOL    HW212285  13.780  12.530   0.483
70130SOL     OW12286   6.290   5.073   7.240
70130SOL    HW112287   6.379   5.040   7.229
70130SOL    HW212288   6.282   5.144   7.177
70131SOL     OW12289   7.056   5.896   9.447
70131SOL    HW112290   7.101   5.936   9.372
70131SOL    HW212291   6.970   5.937   9.448
70132SOL     OW12292   4.807   8.615   3.290
70132SOL    HW112293   4.858   8.691   3.263
70132SOL    HW212294   4.873   8.548   3.310
70133SOL     OW12295  14.196   9.560   8.739
70133SOL    HW112296  14.221   9.550   8.647
70133SOL    HW212297  14.256   9.503   8.787
70134SOL     OW12298   7.453   9.509  13.773
70134SOL    HW112299   7.392   9.474  13.837
70134SOL    HW212300   7.528   9.449  13.774
70135SOL     OW12301  13.941   5.891   5.419
70135SOL    HW112302  13.972   5.810   5.459
70135SOL    HW212303  14.002   5.958   5.451
70136SOL     OW12304   8.782  11.814  14.180
70136SOL    HW112305   8.773  11.740  14.240
70136SOL    HW212306   8.703  11.811  14.126
70137SOL     OW12307  13.721   5.912  12.841
70137SOL    HW112308  13.767   5.995  12.836
70137SOL    HW212309  13.650   5.927  12.904
70138SOL     OW12310   0.787   1.021   8.721
70138SOL    HW112311   0.817   0.957   8.656
70138SOL    HW212312   0.750   0.969   8.792
70139SOL     OW12313  12.527   9.016  11.587
70139SOL    HW112314  12.549   9.085  11.523
70139SOL    HW212315  12.524   8.936  11.535
70140SOL     OW12316   8.588  10.863   3.991
70140SOL    HW112317   8.674  10.859   4.032
70140SOL    HW212318   8.567  10.956   3.987
70141SOL     OW12319   9.292  13.698   7.664
70141SOL    HW112320   9.262  13.608   7.648
70141SOL    HW212321   9.233  13.752   7.611
70142SOL     OW12322   0.489   5.113   0.874
70142SOL    HW112323   0.558   5.110   0.940
70142SOL    HW212324   0.479   5.206   0.854
70143SOL     OW12325   0.870  11.488   8.347
70143SOL    HW112326   0.963  11.472   8.331
70143SOL    HW212327   0.841  11.536   8.269
70144SOL     OW12328   3.624   2.161   8.697
70144SOL    HW112329   3.654   2.232   8.755
70144SOL    HW212330   3.620   2.084   8.753
70145SOL     OW12331  14.849   6.293   9.020
70145SOL    HW112332  14.815   6.305   8.931
70145SOL    HW212333   0.028   6.216   9.014
70146SOL     OW12334  14.590  11.383   3.676
70146SOL    HW112335  14.621  11.381   3.585
70146SOL    HW212336  14.651  11.441   3.721
70147SOL     OW12337   7.080  10.536   3.615
70147SOL    HW112338   7.107  10.456   3.570
70147SOL    HW212339   7.082  10.512   3.708
70148SOL     OW12340  14.468   9.788   4.961
70148SOL    HW112341  14.457   9.817   5.052
70148SOL    HW212342  14.396   9.830   4.914
70149SOL     OW12343   8.372   0.427   1.572
70149SOL    HW112344   8.458   0.467   1.559
70149SOL    HW212345   8.322   0.491   1.623
70150SOL     OW12346  14.414   4.789   2.237
70150SOL    HW112347  14.387   4.849   2.306
70150SOL    HW212348  14.417   4.842   2.157
70151SOL     OW12349   1.444   7.433   9.746
70151SOL    HW112350   1.481   7.375   9.814
70151SOL    HW212351   1.473   7.520   9.772
70152SOL     OW12352  14.064  14.133  12.513
70152SOL    HW112353  13.975  14.123  12.479
70152SOL    HW212354  14.119  14.132  12.436
70153SOL     OW12355  11.148   9.985   3.151
70153SOL    HW112356  11.204  10.022   3.219
70153SOL    HW212357  11.206   9.969   3.078
70154SOL     OW12358  12.537  10.401   3.920
70154SOL    HW112359  12.501  10.486   3.896
70154SOL    HW212360  12.618  10.421   3.966
70155SOL     OW12361   0.299   0.666   6.381
70155SOL    HW112362   0.292   0.571   6.375
70155SOL    HW212363   0.230   0.692   6.442
70156SOL     OW12364  14.583  14.004   0.193
70156SOL    HW112365  14.641  14.076   0.166
70156SOL    HW212366  14.509  14.048   0.234
70157SOL     OW12367   2.861   1.376   8.324
70157SOL    HW112368   2.793   1.379   8.391
70157SOL    HW212369   2.912   1.455   8.338
70158SOL     OW12370  12.533  13.629  14.724
70158SOL    HW112371  12.576  13.558  14.773
70158SOL    HW212372  12.463  13.659  14.782
70159SOL     OW12373  13.962   9.680   6.158
70159SOL    HW112374  13.882   9.637   6.128
70159SOL    HW212375  13.954   9.771   6.127
70160SOL     OW12376   3.036  14.412   6.298
70160SOL    HW112377   3.081  14.478   6.350
70160SOL    HW212378   3.104  14.348   6.276
70161SOL     OW12379  12.901   2.890   6.502
70161SOL    HW112380  12.948   2.970   6.525
70161SOL    HW212381  12.810   2.910   6.522
70162SOL     OW12382  10.640   8.588  11.066
70162SOL    HW112383  10.685   8.604  11.149
70162SOL    HW212384  10.680   8.507  11.034
70163SOL     OW12385  13.305   4.573  11.378
70163SOL    HW112386  13.240   4.534  11.436
70163SOL    HW212387  13.318   4.508  11.309
70164SOL     OW12388  14.033   3.966   5.952
70164SOL    HW112389  14.071   4.053   5.940
70164SOL    HW212390  14.079   3.911   5.889
70165SOL     OW12391   6.174   7.968   8.892
70165SOL    HW112392   6.147   8.002   8.977
70165SOL    HW212393   6.179   7.873   8.904
70166SOL     OW12394  13.014   0.528  11.235
70166SOL    HW112395  12.940   0.471  11.212
70166SOL    HW212396  13.075   0.519  11.161
70167SOL     OW12397   6.203   4.267   2.735
70167SOL    HW112398   6.242   4.355   2.737
70167SOL    HW212399   6.240   4.222   2.811
70168SOL     OW12400  14.786   2.087   4.996
70168SOL    HW112401  14.843   2.035   4.940
70168SOL    HW212402  14.729   2.023   5.039
70169SOL     OW12403  10.024   0.481   1.755
70169SOL    HW112404  10.042   0.387   1.755
70169SOL    HW212405   9.930   0.487   1.772
70170SOL     OW12406  10.673  11.379  14.674
70170SOL    HW112407  10.665  11.284  14.663
70170SOL    HW212408  10.763  11.398  14.647
70171SOL     OW12409  10.622   2.343   9.325
70171SOL    HW112410  10.585   2.278   9.265
70171SOL    HW212411  10.700   2.301   9.360
70172SOL     OW12412  12.350   2.978   8.717
70172SOL    HW112413  12.411   2.956   8.647
70172SOL    HW212414  12.386   3.058   8.756
70173SOL     OW12415   1.992  10.904  12.986
70173SOL    HW112416   1.977  10.836  12.920
70173SOL    HW212417   2.003  10.984  12.935
70174SOL     OW12418   1.693  11.264   2.716
70174SOL    HW112419   1.779  11.228   2.735
70174SOL    HW212420   1.680  11.333   2.780
70175SOL     OW12421   5.743   8.642  12.806
70175SOL    HW112422   5.819   8.646  12.864
70175SOL    HW212423   5.696   8.564  12.834
70176SOL     OW12424   3.790   1.197   5.134
70176SOL    HW112425   3.795   1.132   5.065
70176SOL    HW212426   3.700   1.190   5.167
70177SOL     OW12427  14.164   1.588   2.554
70177SOL    HW112428  14.159   1.544   2.639
70177SOL    HW212429  14.075   1.618   2.536
70178SOL     OW12430   2.868  11.154   9.402
70178SOL    HW112431   2.908  11.193   9.324
70178SOL    HW212432   2.842  11.229   9.455
70179SOL     OW12433   7.663  11.886   0.024
70179SOL    HW112434   7.687  11.877   0.116
70179SOL    HW212435   7.617  11.804   0.003
70180SOL     OW12436   6.069   3.557  12.656
70180SOL    HW112437   6.099   3.593  12.573
70180SOL    HW212438   5.998   3.615  12.683
70181SOL     OW12439   7.642   4.533   2.469
70181SOL    HW112440   7.628   4.441   2.493
70181SOL    HW212441   7.734   4.549   2.487
70182SOL     OW12442  11.824  14.356   0.394
70182SOL    HW112443  11.919  14.344   0.392
70182SOL    HW212444  11.811  14.430   0.454
70183SOL     OW12445   2.068   2.521  10.003
70183SOL    HW112446   1.992   2.579  10.007
70183SOL    HW212447   2.098   2.514  10.093
70184SOL     OW12448   2.184   5.576   3.209
70184SOL    HW112449   2.117   5.584   3.141
70184SOL    HW212450   2.202   5.482   3.214
70185SOL     OW12451   2.856  11.983   8.836
70185SOL    HW112452   2.820  11.894   8.843
70185SOL    HW212453   2.927  11.974   8.772
70186SOL     OW12454   0.100  10.719   0.266
70186SOL    HW112455   0.180  10.690   0.222
70186SOL    HW212456   0.032  10.714   0.199
70187SOL     OW12457   7.190  14.322  12.038
70187SOL    HW112458   7.173  14.255  11.972
70187SOL    HW212459   7.104  14.346  12.071
70188SOL     OW12460   7.329  10.159   6.637
70188SOL    HW112461   7.252  10.191   6.590
70188SOL    HW212462   7.404  10.200   6.594
70189SOL     OW12463   4.350   5.880  13.640
70189SOL    HW112464   4.407   5.805  13.625
70189SOL    HW212465   4.408   5.956  13.635
70190SOL     OW12466   4.026   7.302  10.893
70190SOL    HW112467   3.951   7.247  10.914
70190SOL    HW212468   4.102   7.251  10.919
70191SOL     OW12469   2.209   6.269  11.498
70191SOL    HW112470   2.115   6.286  11.498
70191SOL    HW212471   2.234   6.271  11.405
70192SOL     OW12472   8.002   3.729   1.291
70192SOL    HW112473   8.029   3.764   1.206
70192SOL    HW212474   8.082   3.693   1.329
70193SOL     OW12475  10.450   1.145   6.074
70193SOL    HW112476  10.507   1.151   5.998
70193SOL    HW212477  10.510   1.139   6.148
70194SOL     OW12478  12.291   7.820  10.829
70194SOL    HW112479  12.358   7.792  10.767
70194SOL    HW212480  12.237   7.882  10.780
70195SOL     OW12481  14.077   8.344   8.656
70195SOL    HW112482  14.081   8.265   8.602
70195SOL    HW212483  13.984   8.357   8.674
70196SOL     OW12484   6.521  11.951  12.039
70196SOL    HW112485   6.436  11.919  12.009
70196SOL    HW212486   6.559  11.995  11.963
70197SOL     OW12487   8.151   7.114  13.120
70197SOL    HW112488   8.089   7.117  13.193
70197SOL    HW212489   8.176   7.205  13.105
70198SOL     OW12490   0.834  11.297   0.567
70198SOL    HW112491   0.880  11.249   0.636
70198SOL    HW212492   0.812  11.230   0.502
70199SOL     OW12493   0.102   8.998  11.407
70199SOL    HW112494   0.108   8.909  11.371
70199SOL    HW212495   0.190   9.018  11.438
70200SOL     OW12496  11.671  14.621   9.931
70200SOL    HW112497  11.743  14.684   9.930
70200SOL    HW212498  11.706  14.547   9.981
70201SOL     OW12499   6.752   5.055   5.941
70201SOL    HW112500   6.785   4.966   5.953
70201SOL    HW212501   6.773   5.076   5.850
70202SOL     OW12502   9.158  14.116   7.060
70202SOL    HW112503   9.155  14.208   7.033
70202SOL    HW212504   9.123  14.068   6.984
70203SOL     OW12505   8.430   8.849   0.726
70203SOL    HW112506   8.404   8.790   0.655
70203SOL    HW212507   8.524   8.832   0.738
70204SOL     OW12508   2.023  12.463   3.168
70204SOL    HW112509   2.113  12.437   3.150
70204SOL    HW212510   2.004  12.533   3.105
70205SOL     OW12511   8.982  13.241   3.050
70205SOL    HW112512   9.004  13.268   2.961
70205SOL    HW212513   8.901  13.286   3.071
70206SOL     OW12514  10.863   3.190  14.470
70206SOL    HW112515  10.832   3.268  14.515
70206SOL    HW212516  10.875   3.124  14.539
70207SOL     OW12517   1.070   5.002   1.729
70207SOL    HW112518   1.155   4.991   1.687
70207SOL    HW212519   1.054   5.097   1.725
70208SOL     OW12520   8.586   3.486   3.736
70208SOL    HW112521   8.636   3.418   3.782
70208SOL    HW212522   8.550   3.540   3.807
70209SOL     OW12523   9.864   4.890   7.782
70209SOL    HW112524   9.850   4.941   7.862
70209SOL    HW212525   9.835   4.802   7.805
70210SOL     OW12526  10.568   1.360   8.926
70210SOL    HW112527  10.487   1.311   8.939
70210SOL    HW212528  10.614   1.311   8.858
70211SOL     OW12529   6.637  13.826   7.744
70211SOL    HW112530   6.543  13.837   7.754
70211SOL    HW212531   6.660  13.756   7.806
70212SOL     OW12532  14.723  13.777   1.723
70212SOL    HW112533  14.650  13.839   1.734
70212SOL    HW212534  14.772  13.784   1.805
70213SOL     OW12535  14.288   4.434  13.652
70213SOL    HW112536  14.367   4.471  13.613
70213SOL    HW212537  14.262   4.498  13.720
70214SOL     OW12538   6.458   5.501  13.834
70214SOL    HW112539   6.518   5.429  13.814
70214SOL    HW212540   6.472   5.519  13.927
70215SOL     OW12541   2.839   6.954   9.044
70215SOL    HW112542   2.778   7.028   9.053
70215SOL    HW212543   2.849   6.944   8.949
70216SOL     OW12544   4.838   3.276   3.547
70216SOL    HW112545   4.839   3.324   3.464
70216SOL    HW212546   4.771   3.209   3.535
70217SOL     OW12547   4.755   3.458   9.452
70217SOL    HW112548   4.676   3.457   9.397
70217SOL    HW212549   4.809   3.527   9.414
70218SOL     OW12550   1.170  12.205   0.509
70218SOL    HW112551   1.132  12.270   0.568
70218SOL    HW212552   1.203  12.137   0.567
70219SOL     OW12553   5.773  11.236   1.062
70219SOL    HW112554   5.756  11.145   1.089
70219SOL    HW212555   5.826  11.229   0.983
70220SOL     OW12556   8.876   7.827   8.965
70220SOL    HW112557   8.785   7.856   8.967
70220SOL    HW212558   8.889   7.797   8.875
70221SOL     OW12559   1.064  11.077  11.081
70221SOL    HW112560   1.093  11.156  11.127
70221SOL    HW212561   1.028  11.110  10.998
70222SOL     OW12562  12.596   8.995   5.969
70222SOL    HW112563  12.511   9.035   5.954
70222SOL    HW212564  12.658   9.067   5.964
70223SOL     OW12565   3.785   3.268   7.521
70223SOL    HW112566   3.763   3.199   7.584
70223SOL    HW212567   3.839   3.329   7.571
70224SOL     OW12568  13.505  10.288   2.878
70224SOL    HW112569  13.438  10.263   2.943
70224SOL    HW212570  13.466  10.361   2.830
70225SOL     OW12571   6.057   9.210  10.376
70225SOL    HW112572   6.130   9.177  10.323
70225SOL    HW212573   6.086   9.198  10.467
70226SOL     OW12574  11.817   4.687  10.262
70226SOL    HW112575  11.899   4.667  10.307
70226SOL    HW212576  11.796   4.776  10.291
70227SOL     OW12577   8.749  11.060  10.251
70227SOL    HW112578   8.776  11.119  10.181
70227SOL    HW212579   8.755  10.973  10.211
70228SOL     OW12580   7.355   2.919   1.737
70228SOL    HW112581   7.369   3.012   1.752
70228SOL    HW212582   7.391   2.904   1.649
70229SOL     OW12583   2.152  13.478   3.816
70229SOL    HW112584   2.062  13.511   3.817
70229SOL    HW212585   2.196  13.527   3.886
70230SOL     OW12586   1.724   3.913   9.518
70230SOL    HW112587   1.684   3.948   9.437
70230SOL    HW212588   1.804   3.871   9.489
70231SOL     OW12589   6.701   3.274   8.289
70231SOL    HW112590   6.759   3.277   8.365
70231SOL    HW212591   6.621   3.318   8.318
70232SOL     OW12592  11.016   8.242  11.817
70232SOL    HW112593  10.947   8.226  11.752
70232SOL    HW212594  10.970   8.283  11.891
70233SOL     OW12595   0.645   4.947   7.385
70233SOL    HW112596   0.733   4.982   7.371
70233SOL    HW212597   0.593   4.984   7.313
70234SOL     OW12598   7.565   1.149   5.642
70234SOL    HW112599   7.501   1.137   5.572
70234SOL    HW212600   7.513   1.164   5.721
70235SOL     OW12601   0.238   6.371   8.369
70235SOL    HW112602   0.223   6.286   8.409
70235SOL    HW212603   0.307   6.412   8.422
70236SOL     OW12604   4.533  12.823   4.189
70236SOL    HW112605   4.616  12.791   4.223
70236SOL    HW212606   4.531  12.794   4.098
70237SOL     OW12607   3.299  11.920   0.306
70237SOL    HW112608   3.234  11.861   0.345
70237SOL    HW212609   3.320  11.982   0.376
70238SOL     OW12610  11.151   5.419  14.109
70238SOL    HW112611  11.172   5.501  14.064
70238SOL    HW212612  11.061   5.430  14.138
70239SOL     OW12613   0.587  11.260   9.307
70239SOL    HW112614   0.671  11.218   9.287
70239SOL    HW212615   0.533  11.245   9.229
70240SOL     OW12616   9.900   3.935   9.098
70240SOL    HW112617   9.953   3.872   9.049
70240SOL    HW212618   9.809   3.905   9.085
70241SOL     OW12619  11.557   7.699   6.132
70241SOL    HW112620  11.625   7.681   6.197
70241SOL    HW212621  11.533   7.790   6.147
70242SOL     OW12622  14.848   7.700   5.606
70242SOL    HW112623   0.031   7.646   5.556
70242SOL    HW212624  14.876   7.689   5.697
70243SOL     OW12625   1.946  14.288  12.954
70243SOL    HW112626   1.892  14.365  12.936
70243SOL    HW212627   2.024  14.301  12.901
70244SOL     OW12628   5.156   5.494  13.163
70244SOL    HW112629   5.242   5.476  13.125
70244SOL    HW212630   5.176   5.543  13.243
70245SOL     OW12631  11.791  12.351   4.813
70245SOL    HW112632  11.724  12.344   4.746
70245SOL    HW212633  11.778  12.437   4.851
70246SOL     OW12634   1.237  10.160   2.297
70246SOL    HW112635   1.233  10.149   2.392
70246SOL    HW212636   1.263  10.251   2.285
70247SOL     OW12637  13.393   2.438  12.393
70247SOL    HW112638  13.447   2.515  12.409
70247SOL    HW212639  13.354   2.418  12.477
70248SOL     OW12640   4.243   0.035  11.498
70248SOL    HW112641   4.207   0.012  11.583
70248SOL    HW212642   4.262  14.828  11.457
70249SOL     OW12643  10.438   4.649   2.942
70249SOL    HW112644  10.517   4.682   2.985
70249SOL    HW212645  10.387   4.728   2.922
70250SOL     OW12646  14.165  13.482  14.573
70250SOL    HW112647  14.153  13.533  14.654
70250SOL    HW212648  14.137  13.541  14.503
70251SOL     OW12649   4.726   2.006   3.465
70251SOL    HW112650   4.776   2.025   3.385
70251SOL    HW212651   4.635   2.004   3.436
70252SOL     OW12652   4.585  10.068   5.166
70252SOL    HW112653   4.595   9.996   5.228
70252SOL    HW212654   4.556  10.142   5.218
70253SOL     OW12655  10.454   2.105  10.617
70253SOL    HW112656  10.378   2.123  10.561
70253SOL    HW212657  10.525   2.155  10.577
70254SOL     OW12658   4.970   7.767   2.841
70254SOL    HW112659   4.990   7.805   2.926
70254SOL    HW212660   4.989   7.674   2.851
70255SOL     OW12661   1.890   9.922  14.475
70255SOL    HW112662   1.927   9.848  14.428
70255SOL    HW212663   1.964   9.958  14.526
70256SOL     OW12664   9.388  11.968  13.076
70256SOL    HW112665   9.340  11.982  12.995
70256SOL    HW212666   9.364  11.879  13.104
70257SOL     OW12667  14.400   6.200  10.140
70257SOL    HW112668  14.469   6.149  10.182
70257SOL    HW212669  14.401   6.170  10.049
70258SOL     OW12670  14.703   4.960   3.940
70258SOL    HW112671  14.742   5.044   3.913
70258SOL    HW212672  14.631   4.985   3.999
70259SOL     OW12673   3.311   0.902   1.771
70259SOL    HW112674   3.321   0.807   1.765
70259SOL    HW212675   3.360   0.936   1.696
70260SOL     OW12676   3.955   4.079  12.512
70260SOL    HW112677   4.046   4.058  12.533
70260SOL    HW212678   3.904   4.008  12.550
70261SOL     OW12679   8.327   6.979   4.421
70261SOL    HW112680   8.333   6.947   4.511
70261SOL    HW212681   8.274   6.914   4.375
70262SOL     OW12682   1.625  10.716   1.615
70262SOL    HW112683   1.635  10.660   1.693
70262SOL    HW212684   1.680  10.792   1.633
70263SOL     OW12685   9.232   7.415   2.462
70263SOL    HW112686   9.320   7.380   2.470
70263SOL    HW212687   9.181   7.368   2.528
70264SOL     OW12688  10.733   1.748  13.849
70264SOL    HW112689  10.664   1.768  13.913
70264SOL    HW212690  10.687   1.742  13.766
70265SOL     OW12691   3.803   2.680   8.298
70265SOL    HW112692   3.837   2.770   8.304
70265SOL    HW212693   3.709   2.691   8.289
70266SOL     OW12694   9.880   5.675   4.307
70266SOL    HW112695   9.815   5.624   4.258
70266SOL    HW212696   9.915   5.613   4.370
70267SOL     OW12697   3.720   6.730   9.924
70267SOL    HW112698   3.740   6.637   9.910
70267SOL    HW212699   3.672   6.755   9.845
70268SOL     OW12700   7.469  12.475   4.669
70268SOL    HW112701   7.523  12.401   4.641
70268SOL    HW212702   7.522  12.552   4.650
70269SOL     OW12703   0.012   9.682   2.162
70269SOL    HW112704  14.846   9.732   2.231
70269SOL    HW212705   0.087   9.736   2.137
70270SOL     OW12706   9.264   7.098   8.861
70270SOL    HW112707   9.207   7.058   8.795
70270SOL    HW212708   9.304   7.173   8.815
70271SOL     OW12709  12.551   7.234  13.858
70271SOL    HW112710  12.525   7.260  13.769
70271SOL    HW212711  12.470   7.204  13.899
70272SOL     OW12712  12.806   1.688  11.068
70272SOL    HW112713  12.878   1.726  11.018
70272SOL    HW212714  12.733   1.748  11.054
70273SOL     OW12715   0.115   2.267   6.262
70273SOL    HW112716   0.079   2.305   6.342
70273SOL    HW212717   0.069   2.312   6.191
70274SOL     OW12718   2.206   6.999  14.765
70274SOL    HW112719   2.194   6.909  14.735
70274SOL    HW212720   2.135   7.047  14.724
70275SOL     OW12721   9.049   6.033  10.928
70275SOL    HW112722   9.052   6.110  10.871
70275SOL    HW212723   8.979   5.979  10.891
70276SOL     OW12724  10.087   1.865  14.848
70276SOL    HW112725  10.066   1.934   0.033
70276SOL    HW212726  10.008   1.855  14.795
70277SOL     OW12727   1.961   7.261  13.463
70277SOL    HW112728   2.031   7.230  13.521
70277SOL    HW212729   1.984   7.226  13.377
70278SOL     OW12730   1.186  10.958   0.354
70278SOL    HW112731   1.175  11.037   0.301
70278SOL    HW212732   1.114  10.901   0.326
70279SOL     OW12733   3.506  12.955   5.509
70279SOL    HW112734   3.578  12.902   5.542
70279SOL    HW212735   3.510  12.945   5.414
70280SOL     OW12736  11.766  10.705   5.659
70280SOL    HW112737  11.710  10.653   5.601
70280SOL    HW212738  11.796  10.778   5.605
70281SOL     OW12739   6.611   0.223   5.174
70281SOL    HW112740   6.525   0.262   5.157
70281SOL    HW212741   6.669   0.267   5.112
70282SOL     OW12742   8.516   1.357  13.305
70282SOL    HW112743   8.555   1.286  13.253
70282SOL    HW212744   8.567   1.357  13.386
70283SOL     OW12745   4.267   4.327  11.071
70283SOL    HW112746   4.337   4.380  11.032
70283SOL    HW212747   4.237   4.379  11.146
70284SOL     OW12748  14.580   9.083   1.770
70284SOL    HW112749  14.627   9.103   1.850
70284SOL    HW212750  14.631   9.126   1.701
70285SOL     OW12751   4.235  10.852   3.063
70285SOL    HW112752   4.144  10.877   3.045
70285SOL    HW212753   4.232  10.758   3.079
70286SOL     OW12754  13.077   6.899  11.086
70286SOL    HW112755  13.115   6.983  11.110
70286SOL    HW212756  13.152   6.842  11.068
70287SOL     OW12757  11.612  13.610   5.432
70287SOL    HW112758  11.585  13.663   5.508
70287SOL    HW212759  11.532  13.563   5.407
70288SOL     OW12760  11.073   0.317   1.416
70288SOL    HW112761  10.982   0.321   1.446
70288SOL    HW212762  11.066   0.304   1.321
70289SOL     OW12763   3.925  12.548  14.618
70289SOL    HW112764   3.881  12.516  14.539
70289SOL    HW212765   3.995  12.604  14.585
70290SOL     OW12766   2.109  14.087   8.098
70290SOL    HW112767   2.031  14.132   8.065
70290SOL    HW212768   2.155  14.154   8.150
70291SOL     OW12769  12.919  13.533   1.421
70291SOL    HW112770  12.880  13.450   1.448
70291SOL    HW212771  12.845  13.586   1.393
70292SOL     OW12772  14.475  12.955   3.240
70292SOL    HW112773  14.455  13.001   3.158
70292SOL    HW212774  14.420  12.877   3.237
70293SOL     OW12775  11.880  10.394   0.685
70293SOL    HW112776  11.906  10.392   0.777
70293SOL    HW212777  11.854  10.485   0.669
70294SOL     OW12778   7.653   9.849   0.845
70294SOL    HW112779   7.659   9.837   0.750
70294SOL    HW212780   7.648   9.760   0.880
70295SOL     OW12781   3.947   2.600  11.648
70295SOL    HW112782   3.900   2.540  11.590
70295SOL    HW212783   4.039   2.578  11.636
70296SOL     OW12784   1.366   6.062  10.326
70296SOL    HW112785   1.461   6.050  10.325
70296SOL    HW212786   1.337   6.029  10.242
70297SOL     OW12787   2.666   3.999   6.554
70297SOL    HW112788   2.756   3.969   6.542
70297SOL    HW212789   2.613   3.939   6.502
70298SOL     OW12790   3.497  12.809   9.183
70298SOL    HW112791   3.458  12.800   9.270
70298SOL    HW212792   3.563  12.740   9.178
70299SOL     OW12793  11.359   2.281   7.361
70299SOL    HW112794  11.288   2.339   7.332
70299SOL    HW212795  11.325   2.239   7.440
70300SOL     OW12796  12.526   7.457  12.252
70300SOL    HW112797  12.440   7.459  12.292
70300SOL    HW212798  12.581   7.511  12.309
70301SOL     OW12799   4.557   4.287   8.174
70301SOL    HW112800   4.648   4.300   8.148
70301SOL    HW212801   4.556   4.199   8.212
70302SOL     OW12802  14.825   8.393  10.187
70302SOL    HW112803  14.828   8.372  10.094
70302SOL    HW212804   0.017   8.340  10.226
70303SOL     OW12805   3.681   6.307   8.290
70303SOL    HW112806   3.670   6.261   8.373
70303SOL    HW212807   3.627   6.386   8.299
70304SOL     OW12808   8.482   2.033   0.490
70304SOL    HW112809   8.485   2.128   0.481
70304SOL    HW212810   8.413   2.005   0.430
70305SOL     OW12811   1.708  10.347   1.887
70305SOL    HW112812   1.729  10.324   1.797
70305SOL    HW212813   1.630  10.295   1.908
70306SOL     OW12814   5.323   8.939   6.882
70306SOL    HW112815   5.398   8.927   6.941
70306SOL    HW212816   5.250   8.959   6.940
70307SOL     OW12817   8.098   1.157  11.126
70307SOL    HW112818   8.107   1.200  11.041
70307SOL    HW212819   8.066   1.226  11.184
70308SOL     OW12820  11.552   5.709   5.595
70308SOL    HW112821  11.493   5.666   5.657
70308SOL    HW212822  11.595   5.778   5.646
70309SOL     OW12823   2.387   1.039   3.632
70309SOL    HW112824   2.394   0.995   3.547
70309SOL    HW212825   2.313   1.100   3.621
70310SOL     OW12826  11.375  14.106   9.880
70310SOL    HW112827  11.414  14.186   9.914
70310SOL    HW212828  11.417  14.093   9.794
70311SOL     OW12829   4.464  13.378   6.649
70311SOL    HW112830   4.433  13.288   6.638
70311SOL    HW212831   4.387  13.433   6.633
70312SOL     OW12832   9.372   5.798   2.571
70312SOL    HW112833   9.409   5.862   2.632
70312SOL    HW212834   9.311   5.747   2.624
70313SOL     OW12835  13.228   8.175   5.040
70313SOL    HW112836  13.301   8.114   5.052
70313SOL    HW212837  13.266   8.262   5.057
70314SOL     OW12838   6.305   2.619  12.990
70314SOL    HW112839   6.255   2.538  12.977
70314SOL    HW212840   6.240   2.683  13.019
70315SOL     OW12841   5.292   5.200  12.905
70315SOL    HW112842   5.362   5.265  12.898
70315SOL    HW212843   5.212   5.251  12.912
70316SOL     OW12844   1.804  12.271   6.874
70316SOL    HW112845   1.750  12.271   6.795
70316SOL    HW212846   1.875  12.332   6.855
70317SOL     OW12847   3.056   0.630   6.749
70317SOL    HW112848   2.978   0.644   6.695
70317SOL    HW212849   3.045   0.690   6.823
70318SOL     OW12850   9.765   1.883   2.196
70318SOL    HW112851   9.799   1.924   2.117
70318SOL    HW212852   9.841   1.844   2.238
70319SOL     OW12853  13.690   3.082  11.941
70319SOL    HW112854  13.672   3.160  11.889
70319SOL    HW212855  13.673   3.109  12.031
70320SOL     OW12856   6.210   2.035  14.818
70320SOL    HW112857   6.282   1.972  14.826
70320SOL    HW212858   6.176   2.043   0.030
70321SOL     OW12859   0.465   3.829  12.453
70321SOL    HW112860   0.465   3.873  12.538
70321SOL    HW212861   0.513   3.887  12.395
70322SOL     OW12862  14.079   5.046   6.858
70322SOL    HW112863  14.011   5.108   6.887
70322SOL    HW212864  14.113   5.009   6.940
70323SOL     OW12865   2.582  10.147  11.170
70323SOL    HW112866   2.506  10.097  11.140
70323SOL    HW212867   2.652  10.082  11.179
70324SOL     OW12868  14.215   4.793  13.025
70324SOL    HW112869  14.137   4.816  12.975
70324SOL    HW212870  14.249   4.715  12.980
70325SOL     OW12871   7.212   7.000   3.299
70325SOL    HW112872   7.166   7.029   3.377
70325SOL    HW212873   7.305   7.001   3.324
70326SOL     OW12874   1.916  13.616   3.873
70326SOL    HW112875   1.904  13.579   3.960
70326SOL    HW212876   1.911  13.711   3.886
70327SOL     OW12877   1.357  13.075  11.189
70327SOL    HW112878   1.323  13.161  11.211
70327SOL    HW212879   1.426  13.092  11.124
70328SOL     OW12880  11.901   0.984  10.157
70328SOL    HW112881  11.813   0.982  10.194
70328SOL    HW212882  11.887   1.003  10.064
70329SOL     OW12883  11.060   3.799   5.421
70329SOL    HW112884  11.056   3.735   5.350
70329SOL    HW212885  11.127   3.862   5.394
70330SOL     OW12886  12.924  12.264   2.097
70330SOL    HW112887  12.868  12.340   2.080
70330SOL    HW212888  12.921  12.253   2.192
70331SOL     OW12889  13.067  10.747   2.477
70331SOL    HW112890  13.019  10.709   2.550
70331SOL    HW212891  13.036  10.838   2.472
70332SOL     OW12892   4.164   1.474  14.860
70332SOL    HW112893   4.205   1.455   0.067
70332SOL    HW212894   4.070   1.474   0.001
70333SOL     OW12895   3.845  11.167  14.778
70333SOL    HW112896   3.835  11.169  14.874
70333SOL    HW212897   3.766  11.211  14.745
70334SOL     OW12898   3.171   0.816  14.804
70334SOL    HW112899   3.094   0.818  14.862
70334SOL    HW212900   3.188   0.723  14.791
70335SOL     OW12901   8.443   0.330   6.100
70335SOL    HW112902   8.350   0.308   6.101
70335SOL    HW212903   8.488   0.247   6.114
70336SOL     OW12904  12.245  11.608   3.413
70336SOL    HW112905  12.262  11.666   3.488
70336SOL    HW212906  12.262  11.520   3.447
70337SOL     OW12907   6.216   3.282   3.575
70337SOL    HW112908   6.170   3.259   3.656
70337SOL    HW212909   6.253   3.200   3.544
70338SOL     OW12910   6.056  10.903  10.871
70338SOL    HW112911   6.097  10.930  10.953
70338SOL    HW212912   5.992  10.971  10.852
70339SOL     OW12913   3.643   6.170  14.058
70339SOL    HW112914   3.738   6.157  14.062
70339SOL    HW212915   3.607   6.081  14.058
70340SOL     OW12916   5.375  12.693   2.259
70340SOL    HW112917   5.410  12.672   2.172
70340SOL    HW212918   5.283  12.716   2.242
70341SOL     OW12919   4.790   8.897   1.684
70341SOL    HW112920   4.757   8.979   1.646
70341SOL    HW212921   4.799   8.916   1.777
70342SOL     OW12922   1.391  11.590   5.421
70342SOL    HW112923   1.422  11.630   5.340
70342SOL    HW212924   1.405  11.497   5.409
70343SOL     OW12925  10.305   8.073  10.815
70343SOL    HW112926  10.302   8.115  10.901
70343SOL    HW212927  10.362   7.997  10.827
70344SOL     OW12928  10.193   4.186   8.084
70344SOL    HW112929  10.282   4.152   8.083
70344SOL    HW212930  10.180   4.217   8.174
70345SOL     OW12931   2.101  14.808   1.499
70345SOL    HW112932   2.147  14.865   1.561
70345SOL    HW212933   2.035  14.765   1.552
70346SOL     OW12934   6.077   9.911  10.156
70346SOL    HW112935   6.157   9.867  10.185
70346SOL    HW212936   6.006   9.852  10.181
70347SOL     OW12937  11.389   5.606   5.073
70347SOL    HW112938  11.384   5.701   5.082
70347SOL    HW212939  11.470   5.582   5.117
70348SOL     OW12940   3.861  14.838   8.834
70348SOL    HW112941   3.879  14.837   8.740
70348SOL    HW212942   3.947  14.850   8.874
70349SOL     OW12943   4.291   9.271   9.119
70349SOL    HW112944   4.239   9.336   9.167
70349SOL    HW212945   4.261   9.278   9.028
70350SOL     OW12946   7.137   1.507   5.982
70350SOL    HW112947   7.065   1.452   5.954
70350SOL    HW212948   7.104   1.597   5.972
70351SOL     OW12949  14.375   4.455   5.939
70351SOL    HW112950  14.438   4.385   5.918
70351SOL    HW212951  14.293   4.409   5.956
70352SOL     OW12952   0.559  10.447   8.106
70352SOL    HW112953   0.466  10.452   8.128
70352SOL    HW212954   0.604  10.487   8.181
70353SOL     OW12955   1.324  13.011   8.528
70353SOL    HW112956   1.366  13.090   8.562
70353SOL    HW212957   1.395  12.962   8.486
70354SOL     OW12958  14.152   4.931  11.977
70354SOL    HW112959  14.060   4.911  11.994
70354SOL    HW212960  14.164   4.914  11.884
70355SOL     OW12961  14.324   8.860  11.864
70355SOL    HW112962  14.403   8.821  11.901
70355SOL    HW212963  14.254   8.837  11.926
70356SOL     OW12964   9.905  14.268   6.161
70356SOL    HW112965   9.911  14.359   6.133
70356SOL    HW212966   9.867  14.222   6.087
70357SOL     OW12967   2.967  10.847  13.355
70357SOL    HW112968   2.989  10.890  13.272
70357SOL    HW212969   3.020  10.767  13.355
70358SOL     OW12970   6.683   5.543  12.262
70358SOL    HW112971   6.754   5.541  12.326
70358SOL    HW212972   6.605   5.564  12.313
70359SOL     OW12973  10.001   0.641   3.468
70359SOL    HW112974  10.056   0.685   3.403
70359SOL    HW212975  10.041   0.662   3.552
70360SOL     OW12976  12.875   1.600   3.606
70360SOL    HW112977  12.804   1.540   3.584
70360SOL    HW212978  12.950   1.543   3.622
70361SOL     OW12979  11.043   1.500  12.022
70361SOL    HW112980  11.070   1.408  12.018
70361SOL    HW212981  11.011   1.511  12.112
70362SOL     OW12982  10.430   9.123   6.658
70362SOL    HW112983  10.384   9.045   6.626
70362SOL    HW212984  10.427   9.115   6.753
70363SOL     OW12985   7.186   4.163   6.001
70363SOL    HW112986   7.155   4.155   6.091
70363SOL    HW212987   7.282   4.156   6.008
70364SOL     OW12988   2.448  11.688   8.722
70364SOL    HW112989   2.489  11.622   8.667
70364SOL    HW212990   2.470  11.771   8.681
70365SOL     OW12991  11.095   1.195   9.102
70365SOL    HW112992  11.055   1.231   9.181
70365SOL    HW212993  11.174   1.247   9.088
70366SOL     OW12994   7.682   0.557  10.931
70366SOL    HW112995   7.650   0.470  10.955
70366SOL    HW212996   7.735   0.584  11.007
70367SOL     OW12997  10.134  12.655   6.059
70367SOL    HW112998  10.101  12.586   6.115
70367SOL    HW212999  10.068  12.724   6.065
70368SOL     OW13000  14.508   8.067  10.775
70368SOL    HW113001  14.487   8.133  10.841
70368SOL    HW213002  14.553   8.115  10.706
70369SOL     OW13003   1.814  12.690   2.797
70369SOL    HW113004   1.727  12.664   2.768
70369SOL    HW213005   1.859  12.717   2.717
70370SOL     OW13006   0.867   5.182  13.057
70370SOL    HW113007   0.961   5.177  13.041
70370SOL    HW213008   0.860   5.201  13.151
70371SOL     OW13009   0.737   7.897   0.355
70371SOL    HW113010   0.748   7.983   0.315
70371SOL    HW213011   0.647   7.898   0.390
70372SOL     OW13012   5.411   4.695   6.071
70372SOL    HW113013   5.476   4.668   6.135
70372SOL    HW213014   5.337   4.726   6.124
70373SOL     OW13015  11.188  11.710  11.131
70373SOL    HW113016  11.145  11.625  11.120
70373SOL    HW213017  11.116  11.770  11.152
70374SOL     OW13018   0.216   9.604   8.467
70374SOL    HW113019   0.291   9.643   8.422
70374SOL    HW213020   0.148   9.599   8.399
70375SOL     OW13021   5.706   3.675   1.076
70375SOL    HW113022   5.749   3.596   1.044
70375SOL    HW213023   5.768   3.712   1.139
70376SOL     OW13024   1.623   6.262  11.886
70376SOL    HW113025   1.562   6.280  11.957
70376SOL    HW213026   1.693   6.327  11.897
70377SOL     OW13027  11.610  10.293   3.348
70377SOL    HW113028  11.682  10.355   3.356
70377SOL    HW213029  11.646  10.210   3.381
70378SOL     OW13030  12.083   1.890  14.638
70378SOL    HW113031  12.109   1.798  14.639
70378SOL    HW213032  12.100   1.921  14.727
70379SOL     OW13033  10.994   4.685  14.618
70379SOL    HW113034  11.040   4.753  14.570
70379SOL    HW213035  11.058   4.652  14.681
70380SOL     OW13036   9.719  10.020   5.535
70380SOL    HW113037   9.630   9.998   5.560
70380SOL    HW213038   9.731   9.979   5.449
70381SOL     OW13039  13.372  10.784   4.804
70381SOL    HW113040  13.407  10.768   4.892
70381SOL    HW213041  13.314  10.710   4.788
70382SOL     OW13042  11.171  10.304   5.903
70382SOL    HW113043  11.237  10.264   5.958
70382SOL    HW213044  11.188  10.270   5.815
70383SOL     OW13045   3.698   3.393   2.396
70383SOL    HW113046   3.741   3.478   2.405
70383SOL    HW213047   3.633   3.407   2.327
70384SOL     OW13048  14.340   8.938  10.522
70384SOL    HW113049  14.391   9.018  10.520
70384SOL    HW213050  14.404   8.869  10.542
70385SOL     OW13051   2.326   7.178   6.430
70385SOL    HW113052   2.389   7.134   6.487
70385SOL    HW213053   2.246   7.182   6.481
70386SOL     OW13054  10.996   0.321  14.254
70386SOL    HW113055  10.940   0.362  14.321
70386SOL    HW213056  10.991   0.227  14.273
70387SOL     OW13057   1.684   0.001   7.954
70387SOL    HW113058   1.765   0.024   7.907
70387SOL    HW213059   1.633   0.082   7.954
70388SOL     OW13060  10.681  14.555   1.863
70388SOL    HW113061  10.592  14.576   1.835
70388SOL    HW213062  10.675  14.467   1.899
70389SOL     OW13063   2.102  10.355   8.188
70389SOL    HW113064   2.132  10.297   8.259
70389SOL    HW213065   2.182  10.400   8.160
70390SOL     OW13066   4.487  14.116   5.828
70390SOL    HW113067   4.525  14.034   5.861
70390SOL    HW213068   4.486  14.106   5.733
70391SOL     OW13069  11.804   8.227   4.562
70391SOL    HW113070  11.761   8.150   4.523
70391SOL    HW213071  11.872   8.190   4.619
70392SOL     OW13072   0.276   4.125   0.883
70392SOL    HW113073   0.214   4.118   0.955
70392SOL    HW213074   0.230   4.088   0.808
70393SOL     OW13075   2.893   7.068   4.499
70393SOL    HW113076   2.980   7.041   4.528
70393SOL    HW213077   2.833   7.035   4.565
70394SOL     OW13078   8.363   1.172  10.418
70394SOL    HW113079   8.404   1.120  10.487
70394SOL    HW213080   8.437   1.206  10.367
70395SOL     OW13081  13.149   4.254   4.663
70395SOL    HW113082  13.175   4.183   4.604
70395SOL    HW213083  13.158   4.217   4.751
70396SOL     OW13084   1.750  11.226   5.514
70396SOL    HW113085   1.788  11.304   5.555
70396SOL    HW213086   1.808  11.208   5.440
70397SOL     OW13087   4.298   9.846   7.976
70397SOL    HW113088   4.345   9.821   7.897
70397SOL    HW213089   4.269   9.763   8.014
70398SOL     OW13090   9.426  14.614   7.401
70398SOL    HW113091   9.334  14.639   7.413
70398SOL    HW213092   9.474  14.697   7.409
70399SOL     OW13093   7.336   3.870   7.892
70399SOL    HW113094   7.385   3.943   7.855
70399SOL    HW213095   7.375   3.792   7.852
70400SOL     OW13096  10.498   7.702   8.823
70400SOL    HW113097  10.412   7.744   8.819
70400SOL    HW213098  10.480   7.615   8.858
70401SOL     OW13099   6.682  13.056   5.428
70401SOL    HW113100   6.631  13.058   5.509
70401SOL    HW213101   6.770  13.085   5.455
70402SOL     OW13102   5.309  13.874   0.149
70402SOL    HW113103   5.221  13.908   0.131
70402SOL    HW213104   5.307  13.785   0.116
70403SOL     OW13105  10.446  10.749   2.760
70403SOL    HW113106  10.434  10.718   2.849
70403SOL    HW213107  10.541  10.759   2.751
70404SOL     OW13108   7.406   4.400   1.523
70404SOL    HW113109   7.399   4.377   1.615
70404SOL    HW213110   7.478   4.463   1.520
70405SOL     OW13111   1.900  13.985   6.677
70405SOL    HW113112   1.975  13.952   6.726
70405SOL    HW213113   1.871  14.063   6.725
70406SOL     OW13114  10.256  13.172   5.000
70406SOL    HW113115  10.221  13.183   5.089
70406SOL    HW213116  10.339  13.218   5.001
70407SOL     OW13117   3.798  14.281  11.359
70407SOL    HW113118   3.784  14.335  11.437
70407SOL    HW213119   3.828  14.343  11.292
70408SOL     OW13120  10.699   8.280   3.052
70408SOL    HW113121  10.642   8.335   2.998
70408SOL    HW213122  10.761   8.341   3.091
70409SOL     OW13123  11.116   5.972   1.463
70409SOL    HW113124  11.057   6.010   1.398
70409SOL    HW213125  11.146   6.047   1.514
70410SOL     OW13126   8.921  10.003   6.073
70410SOL    HW113127   8.880  10.080   6.112
70410SOL    HW213128   9.013  10.011   6.096
70411SOL     OW13129  11.045   9.742  10.494
70411SOL    HW113130  11.021   9.787  10.575
70411SOL    HW213131  11.094   9.807  10.444
70412SOL     OW13132   8.820  13.950   1.900
70412SOL    HW113133   8.859  13.925   1.816
70412SOL    HW213134   8.827  14.045   1.902
70413SOL     OW13135  10.480   3.185  10.095
70413SOL    HW113136  10.432   3.254  10.049
70413SOL    HW213137  10.419   3.112  10.102
70414SOL     OW13138   5.376   1.973  13.569
70414SOL    HW113139   5.319   1.920  13.625
70414SOL    HW213140   5.319   2.008  13.501
70415SOL     OW13141   4.101   8.972   9.836
70415SOL    HW113142   4.040   9.000   9.905
70415SOL    HW213143   4.181   9.021   9.854
70416SOL     OW13144  13.449  10.346   4.043
70416SOL    HW113145  13.478  10.304   4.123
70416SOL    HW213146  13.465  10.281   3.974
70417SOL     OW13147   1.624   1.600  12.258
70417SOL    HW113148   1.623   1.510  12.290
70417SOL    HW213149   1.535   1.632  12.273
70418SOL     OW13150  13.134  12.452   2.906
70418SOL    HW113151  13.167  12.363   2.919
70418SOL    HW213152  13.178  12.482   2.827
70419SOL     OW13153   3.952  10.713   4.354
70419SOL    HW113154   3.930  10.671   4.438
70419SOL    HW213155   3.923  10.650   4.288
70420SOL     OW13156   9.442  12.400   1.524
70420SOL    HW113157   9.503  12.469   1.498
70420SOL    HW213158   9.361  12.419   1.475
70421SOL     OW13159   7.780   3.812   0.223
70421SOL    HW113160   7.708   3.787   0.281
70421SOL    HW213161   7.797   3.733   0.172
70422SOL     OW13162  13.595   6.408   7.158
70422SOL    HW113163  13.647   6.418   7.078
70422SOL    HW213164  13.652   6.439   7.228
70423SOL     OW13165   3.646   1.748  13.507
70423SOL    HW113166   3.553   1.733  13.495
70423SOL    HW213167   3.658   1.747  13.602
70424SOL     OW13168   3.610  11.534   7.833
70424SOL    HW113169   3.567  11.452   7.855
70424SOL    HW213170   3.635  11.572   7.917
70425SOL     OW13171  13.747   7.120  14.642
70425SOL    HW113172  13.779   7.041  14.599
70425SOL    HW213173  13.688   7.088  14.710
70426SOL     OW13174  14.491   3.810   2.749
70426SOL    HW113175  14.501   3.789   2.656
70426SOL    HW213176  14.579   3.834   2.777
70427SOL     OW13177  11.427   7.641  10.340
70427SOL    HW113178  11.335   7.623  10.359
70427SOL    HW213179  11.449   7.579  10.271
70428SOL     OW13180   5.944   3.551   8.763
70428SOL    HW113181   5.920   3.597   8.683
70428SOL    HW213182   5.926   3.459   8.744
70429SOL     OW13183  13.256  11.703   3.105
70429SOL    HW113184  13.328  11.641   3.096
70429SOL    HW213185  13.297  11.782   3.141
70430SOL     OW13186   9.870   0.941   1.895
70430SOL    HW113187   9.923   0.911   1.822
70430SOL    HW213188   9.872   1.036   1.889
70431SOL     OW13189   7.181  13.873   8.742
70431SOL    HW113190   7.170  13.861   8.836
70431SOL    HW213191   7.160  13.966   8.728
70432SOL     OW13192   9.484   2.657   4.814
70432SOL    HW113193   9.525   2.743   4.820
70432SOL    HW213194   9.466   2.631   4.904
70433SOL     OW13195   4.639   0.754   9.739
70433SOL    HW113196   4.587   0.835   9.745
70433SOL    HW213197   4.658   0.746   9.645
70434SOL     OW13198   7.160   8.960   4.996
70434SOL    HW113199   7.125   9.041   4.960
70434SOL    HW213200   7.087   8.898   4.991
70435SOL     OW13201   8.007   5.982  12.915
70435SOL    HW113202   8.005   5.933  12.833
70435SOL    HW213203   8.099   6.005  12.926
70436SOL     OW13204   5.740  11.158  13.195
70436SOL    HW113205   5.665  11.101  13.183
70436SOL    HW213206   5.815  11.099  13.200
70437SOL     OW13207   4.558   8.335  12.547
70437SOL    HW113208   4.653   8.338  12.538
70437SOL    HW213209   4.538   8.242  12.561
70438SOL     OW13210   4.446   0.770  13.209
70438SOL    HW113211   4.528   0.735  13.242
70438SOL    HW213212   4.461   0.784  13.116
70439SOL     OW13213  12.866   5.957   4.424
70439SOL    HW113214  12.805   6.026   4.450
70439SOL    HW213215  12.861   5.892   4.493
70440SOL     OW13216   5.136   8.760  12.215
70440SOL    HW113217   5.179   8.759  12.130
70440SOL    HW213218   5.177   8.832  12.262
70441SOL     OW13219   2.289   1.026   6.696
70441SOL    HW113220   2.363   1.031   6.635
70441SOL    HW213221   2.264   0.934   6.696
70442SOL     OW13222   4.153   3.925  11.154
70442SOL    HW113223   4.179   3.834  11.136
70442SOL    HW213224   4.205   3.977  11.092
70443SOL     OW13225  14.163   5.896   8.539
70443SOL    HW113226  14.193   5.872   8.627
70443SOL    HW213227  14.163   5.992   8.538
70444SOL     OW13228   3.921  12.264   3.679
70444SOL    HW113229   3.870  12.337   3.715
70444SOL    HW213230   3.855  12.201   3.651
70445SOL     OW13231  12.953   3.024  10.975
70445SOL    HW113232  13.034   2.973  10.976
70445SOL    HW213233  12.946   3.061  11.062
70446SOL     OW13234  11.863   0.435   5.157
70446SOL    HW113235  11.954   0.416   5.183
70446SOL    HW213236  11.844   0.519   5.199
70447SOL     OW13237   0.492   2.857   5.187
70447SOL    HW113238   0.554   2.787   5.168
70447SOL    HW213239   0.423   2.815   5.237
70448SOL     OW13240   0.181   8.236   9.189
70448SOL    HW113241   0.101   8.219   9.239
70448SOL    HW213242   0.252   8.213   9.249
70449SOL     OW13243  13.933   8.004   7.241
70449SOL    HW113244  13.989   8.060   7.187
70449SOL    HW213245  13.980   7.921   7.248
70450SOL     OW13246  13.656   0.713   4.685
70450SOL    HW113247  13.690   0.624   4.678
70450SOL    HW213248  13.709   0.764   4.624
70451SOL     OW13249   4.082   5.914   6.281
70451SOL    HW113250   4.093   5.908   6.186
70451SOL    HW213251   4.168   5.939   6.314
70452SOL     OW13252  11.776   8.403  11.021
70452SOL    HW113253  11.850   8.408  11.082
70452SOL    HW213254  11.779   8.486  10.974
70453SOL     OW13255   1.535   9.463  14.597
70453SOL    HW113256   1.615   9.456  14.649
70453SOL    HW213257   1.483   9.529  14.643
70454SOL     OW13258  10.143   6.848   1.426
70454SOL    HW113259  10.057   6.840   1.467
70454SOL    HW213260  10.196   6.781   1.469
70455SOL     OW13261   8.637  11.245   5.616
70455SOL    HW113262   8.554  11.198   5.626
70455SOL    HW213263   8.611  11.334   5.595
70456SOL     OW13264  13.763   3.552   4.751
70456SOL    HW113265  13.828   3.505   4.700
70456SOL    HW213266  13.715   3.604   4.687
70457SOL     OW13267   1.126  11.064   2.843
70457SOL    HW113268   1.040  11.098   2.817
70457SOL    HW213269   1.134  10.981   2.797
70458SOL     OW13270   4.528   0.751  10.351
70458SOL    HW113271   4.596   0.817  10.332
70458SOL    HW213272   4.529   0.693  10.275
70459SOL     OW13273  12.637   4.837  11.092
70459SOL    HW113274  12.635   4.919  11.141
70459SOL    HW213275  12.546   4.821  11.068
70460SOL     OW13276   7.033   7.347   5.196
70460SOL    HW113277   7.083   7.411   5.147
70460SOL    HW213278   6.948   7.343   5.151
70461SOL     OW13279   9.808  10.106   9.235
70461SOL    HW113280   9.850  10.189   9.215
70461SOL    HW213281   9.876  10.040   9.220
70462SOL     OW13282   3.123   3.576  13.689
70462SOL    HW113283   3.177   3.500  13.712
70462SOL    HW213284   3.059   3.542  13.627
70463SOL     OW13285   9.308  13.119  13.524
70463SOL    HW113286   9.386  13.126  13.579
70463SOL    HW213287   9.312  13.031  13.487
70464SOL     OW13288  12.677   2.861  13.453
70464SOL    HW113289  12.735   2.787  13.469
70464SOL    HW213290  12.729   2.938  13.476
70465SOL     OW13291  12.942   0.644  13.092
70465SOL    HW113292  12.971   0.610  13.177
70465SOL    HW213293  12.997   0.599  13.028
70466SOL     OW13294  11.670   5.983   3.686
70466SOL    HW113295  11.702   6.051   3.745
70466SOL    HW213296  11.624   6.031   3.617
70467SOL     OW13297  11.377   8.753  14.774
70467SOL    HW113298  11.392   8.846  14.753
70467SOL    HW213299  11.449   8.730  14.833
70468SOL     OW13300  14.325  13.049   9.711
70468SOL    HW113301  14.329  13.132   9.662
70468SOL    HW213302  14.259  13.064   9.778
70469SOL     OW13303   9.050  13.582   2.563
70469SOL    HW113304   9.119  13.594   2.628
70469SOL    HW213305   9.030  13.489   2.566
70470SOL     OW13306   1.216  11.607   5.662
70470SOL    HW113307   1.274  11.552   5.609
70470SOL    HW213308   1.144  11.630   5.604
70471SOL     OW13309   3.060   2.342   4.485
70471SOL    HW113310   3.062   2.276   4.416
70471SOL    HW213311   3.079   2.425   4.441
70472SOL     OW13312   9.500   9.042   9.054
70472SOL    HW113313   9.501   8.949   9.034
70472SOL    HW213314   9.429   9.054   9.116
70473SOL     OW13315   0.543  13.736   4.581
70473SOL    HW113316   0.519  13.691   4.500
70473SOL    HW213317   0.638  13.744   4.576
70474SOL     OW13318   9.719  11.099  13.568
70474SOL    HW113319   9.742  11.131  13.481
70474SOL    HW213320   9.762  11.159  13.629
70475SOL     OW13321   6.179   6.738   6.696
70475SOL    HW113322   6.265   6.739   6.738
70475SOL    HW213323   6.119   6.773   6.763
70476SOL     OW13324   0.300   2.492  14.364
70476SOL    HW113325   0.357   2.548  14.311
70476SOL    HW213326   0.293   2.411  14.314
70477SOL     OW13327   2.644   3.354   5.733
70477SOL    HW113328   2.683   3.427   5.685
70477SOL    HW213329   2.578   3.318   5.674
70478SOL     OW13330   7.862   5.058   9.474
70478SOL    HW113331   7.812   5.090   9.550
70478SOL    HW213332   7.953   5.064   9.501
70479SOL     OW13333  14.101   1.594   6.613
70479SOL    HW113334  14.087   1.506   6.579
70479SOL    HW213335  14.027   1.645   6.580
70480SOL     OW13336  13.836   3.369  10.860
70480SOL    HW113337  13.770   3.311  10.822
70480SOL    HW213338  13.807   3.457  10.837
70481SOL     OW13339   2.753   4.447   4.040
70481SOL    HW113340   2.806   4.421   4.116
70481SOL    HW213341   2.803   4.517   3.999
70482SOL     OW13342   2.890  14.596  11.400
70482SOL    HW113343   2.830  14.618  11.470
70482SOL    HW213344   2.969  14.646  11.419
70483SOL     OW13345   0.538   6.155   0.204
70483SOL    HW113346   0.470   6.170   0.269
70483SOL    HW213347   0.517   6.215   0.133
70484SOL     OW13348  12.746   3.117   5.684
70484SOL    HW113349  12.727   3.054   5.754
70484SOL    HW213350  12.705   3.079   5.606
70485SOL     OW13351   8.916   9.015  13.127
70485SOL    HW113352   8.828   8.986  13.103
70485SOL    HW213353   8.919   9.008  13.222
70486SOL     OW13354   1.695   3.129   9.775
70486SOL    HW113355   1.689   3.037   9.799
70486SOL    HW213356   1.615   3.146   9.725
70487SOL     OW13357   1.197   0.819   9.079
70487SOL    HW113358   1.177   0.748   9.140
70487SOL    HW213359   1.293   0.819   9.074
70488SOL     OW13360   1.069   8.967   5.218
70488SOL    HW113361   1.035   9.044   5.173
70488SOL    HW213362   1.070   8.899   5.152
70489SOL     OW13363  13.433   3.602  14.403
70489SOL    HW113364  13.443   3.509  14.423
70489SOL    HW213365  13.369   3.633  14.468
70490SOL     OW13366   3.410  12.694   2.811
70490SOL    HW113367   3.506  12.696   2.809
70490SOL    HW213368   3.384  12.724   2.723
70491SOL     OW13369  14.293  10.720  10.527
70491SOL    HW113370  14.279  10.680  10.441
70491SOL    HW213371  14.257  10.656  10.589
70492SOL     OW13372   6.392  13.829  12.554
70492SOL    HW113373   6.379  13.912  12.508
70492SOL    HW213374   6.304  13.795  12.569
70493SOL     OW13375  11.366   2.951   4.635
70493SOL    HW113376  11.301   2.912   4.576
70493SOL    HW213377  11.444   2.897   4.622
70494SOL     OW13378  10.223   8.135   8.787
70494SOL    HW113379  10.175   8.101   8.863
70494SOL    HW213380  10.243   8.225   8.810
70495SOL     OW13381   5.844  13.450  10.070
70495SOL    HW113382   5.866  13.362  10.099
70495SOL    HW213383   5.749  13.457  10.084
70496SOL     OW13384  12.914   2.022   2.352
70496SOL    HW113385  12.849   2.063   2.408
70496SOL    HW213386  12.919   1.931   2.383
70497SOL     OW13387   9.516   7.439   2.023
70497SOL    HW113388   9.441   7.390   1.988
70497SOL    HW213389   9.479   7.524   2.048
70498SOL     OW13390   1.509   1.725   7.029
70498SOL    HW113391   1.527   1.801   6.973
70498SOL    HW213392   1.414   1.726   7.041
70499SOL     OW13393   5.926   8.427  13.228
70499SOL    HW113394   6.021   8.433  13.232
70499SOL    HW213395   5.902   8.369  13.300
70500SOL     OW13396  12.960   8.724  10.185
70500SOL    HW113397  12.988   8.806  10.146
70500SOL    HW213398  12.931   8.671  10.111
70501SOL     OW13399   9.508   0.419   7.582
70501SOL    HW113400   9.549   0.496   7.541
70501SOL    HW213401   9.414   0.430   7.565
70502SOL     OW13402   2.665   9.909   7.551
70502SOL    HW113403   2.619   9.884   7.471
70502SOL    HW213404   2.657   9.832   7.608
70503SOL     OW13405   1.307  12.809  11.225
70503SOL    HW113406   1.344  12.892  11.195
70503SOL    HW213407   1.285  12.761  11.145
70504SOL     OW13408   5.350   0.345   8.947
70504SOL    HW113409   5.429   0.291   8.956
70504SOL    HW213410   5.340   0.358   8.853
70505SOL     OW13411  11.680   8.587  10.245
70505SOL    HW113412  11.708   8.677  10.231
70505SOL    HW213413  11.629   8.565  10.167
70506SOL     OW13414   5.258   0.500   8.701
70506SOL    HW113415   5.246   0.561   8.774
70506SOL    HW213416   5.183   0.517   8.643
70507SOL     OW13417   2.063   1.785   7.553
70507SOL    HW113418   2.039   1.801   7.462
70507SOL    HW213419   2.141   1.839   7.567
70508SOL     OW13420  10.302   6.577   9.726
70508SOL    HW113421  10.392   6.567   9.757
70508SOL    HW213422  10.301   6.660   9.679
70509SOL     OW13423   3.868   5.635   6.060
70509SOL    HW113424   3.868   5.573   5.988
70509SOL    HW213425   3.954   5.678   6.056
70510SOL     OW13426  10.801  10.985  12.512
70510SOL    HW113427  10.869  11.037  12.555
70510SOL    HW213428  10.783  11.032  12.431
70511SOL     OW13429   2.277   7.652   6.011
70511SOL    HW113430   2.198   7.650   5.958
70511SOL    HW213431   2.340   7.599   5.963
70512SOL     OW13432  10.099  11.086  13.905
70512SOL    HW113433  10.124  11.038  13.826
70512SOL    HW213434  10.180  11.094  13.956
70513SOL     OW13435   9.640   3.911   2.216
70513SOL    HW113436   9.657   3.927   2.309
70513SOL    HW213437   9.564   3.853   2.215
70514SOL     OW13438   0.127   1.331   0.407
70514SOL    HW113439   0.126   1.272   0.332
70514SOL    HW213440   0.220   1.343   0.426
70515SOL     OW13441  12.236  12.773   4.206
70515SOL    HW113442  12.325  12.803   4.188
70515SOL    HW213443  12.201  12.838   4.267
70516SOL     OW13444  11.893  11.917   9.954
70516SOL    HW113445  11.865  11.995   9.906
70516SOL    HW213446  11.838  11.847   9.920
70517SOL     OW13447   5.003   4.669  10.928
70517SOL    HW113448   5.055   4.589  10.914
70517SOL    HW213449   5.038   4.706  11.009
70518SOL     OW13450   2.031   9.847  11.816
70518SOL    HW113451   1.961   9.782  11.822
70518SOL    HW213452   1.992   9.927  11.853
70519SOL     OW13453   7.662   1.277  10.755
70519SOL    HW113454   7.613   1.355  10.782
70519SOL    HW213455   7.607   1.203  10.780
70520SOL     OW13456   0.345   3.457  10.140
70520SOL    HW113457   0.409   3.526  10.155
70520SOL    HW213458   0.380   3.381  10.187
70521SOL     OW13459  13.758   7.870  12.547
70521SOL    HW113460  13.693   7.855  12.616
70521SOL    HW213461  13.824   7.802  12.561
70522SOL     OW13462  13.968  13.545   6.771
70522SOL    HW113463  14.039  13.594   6.728
70522SOL    HW213464  13.976  13.569   6.864
70523SOL     OW13465   2.854   1.784  10.032
70523SOL    HW113466   2.858   1.879  10.042
70523SOL    HW213467   2.760   1.765  10.022
70524SOL     OW13468   1.881  13.997   2.644
70524SOL    HW113469   1.864  13.905   2.664
70524SOL    HW213470   1.795  14.033   2.623
70525SOL     OW13471   9.445   3.454   7.032
70525SOL    HW113472   9.392   3.431   6.956
70525SOL    HW213473   9.530   3.479   6.995
70526SOL     OW13474   3.237   9.414   0.778
70526SOL    HW113475   3.179   9.445   0.709
70526SOL    HW213476   3.298   9.486   0.793
70527SOL     OW13477   5.352  12.228   9.864
70527SOL    HW113478   5.351  12.150   9.808
70527SOL    HW213479   5.295  12.206   9.938
70528SOL     OW13480   7.008  11.324   1.833
70528SOL    HW113481   7.086  11.279   1.802
70528SOL    HW213482   7.035  11.416   1.839
70529SOL     OW13483   3.016   2.108  13.229
70529SOL    HW113484   3.092   2.154  13.194
70529SOL    HW213485   2.986   2.053  13.156
70530SOL     OW13486   4.568   7.858  10.808
70530SOL    HW113487   4.480   7.857  10.844
70530SOL    HW213488   4.592   7.950  10.804
70531SOL     OW13489   9.380   8.108   9.974
70531SOL    HW113490   9.446   8.040   9.988
70531SOL    HW213491   9.361   8.142  10.061
70532SOL     OW13492  12.218   9.628   7.669
70532SOL    HW113493  12.178   9.694   7.612
70532SOL    HW213494  12.311   9.651   7.672
70533SOL     OW13495  13.702  14.727   0.760
70533SOL    HW113496  13.755  14.668   0.813
70533SOL    HW213497  13.631  14.673   0.728
70534SOL     OW13498   4.583   6.457   9.771
70534SOL    HW113499   4.593   6.542   9.813
70534SOL    HW213500   4.489   6.444   9.765
70535SOL     OW13501   1.586   7.298   4.637
70535SOL    HW113502   1.589   7.392   4.656
70535SOL    HW213503   1.596   7.256   4.722
70536SOL     OW13504   4.508   9.033   1.836
70536SOL    HW113505   4.500   9.127   1.821
70536SOL    HW213506   4.463   9.018   1.920
70537SOL     OW13507   2.523   8.377   7.793
70537SOL    HW113508   2.451   8.314   7.786
70537SOL    HW213509   2.518   8.428   7.713
70538SOL     OW13510   9.781   2.025   7.438
70538SOL    HW113511   9.772   2.115   7.406
70538SOL    HW213512   9.694   1.987   7.426
70539SOL     OW13513   5.193   9.079   1.406
70539SOL    HW113514   5.206   9.042   1.319
70539SOL    HW213515   5.277   9.120   1.428
70540SOL     OW13516  13.756  13.700   8.088
70540SOL    HW113517  13.726  13.767   8.027
70540SOL    HW213518  13.720  13.727   8.173
70541SOL     OW13519   5.863  14.267   1.966
70541SOL    HW113520   5.930  14.233   1.908
70541SOL    HW213521   5.886  14.359   1.978
70542SOL     OW13522   9.363   0.735   6.210
70542SOL    HW113523   9.372   0.661   6.150
70542SOL    HW213524   9.344   0.810   6.153
70543SOL     OW13525  10.255   2.076  10.437
70543SOL    HW113526  10.224   2.147  10.381
70543SOL    HW213527  10.181   2.056  10.494
70544SOL     OW13528  13.034   2.371   8.302
70544SOL    HW113529  13.047   2.319   8.381
70544SOL    HW213530  13.078   2.454   8.320
70545SOL     OW13531   2.284   8.851   3.329
70545SOL    HW113532   2.205   8.873   3.378
70545SOL    HW213533   2.262   8.771   3.282
70546SOL     OW13534   4.269   1.443  14.596
70546SOL    HW113535   4.240   1.449  14.687
70546SOL    HW213536   4.342   1.504  14.590
70547SOL     OW13537   8.534   3.273  12.995
70547SOL    HW113538   8.597   3.248  12.926
70547SOL    HW213539   8.501   3.190  13.028
70548SOL     OW13540   2.968  10.287   9.959
70548SOL    HW113541   2.980  10.376   9.924
70548SOL    HW213542   3.057  10.255   9.973
70549SOL     OW13543  10.220   0.294   4.810
70549SOL    HW113544  10.274   0.366   4.778
70549SOL    HW213545  10.264   0.215   4.780
70550SOL     OW13546  14.578   1.221   6.279
70550SOL    HW113547  14.653   1.228   6.338
70550SOL    HW213548  14.605   1.268   6.200
70551SOL     OW13549   0.425   6.508   8.556
70551SOL    HW113550   0.499   6.510   8.617
70551SOL    HW213551   0.348   6.501   8.613
70552SOL     OW13552   1.996  13.148  11.386
70552SOL    HW113553   2.050  13.214  11.343
70552SOL    HW213554   2.058  13.094  11.435
70553SOL     OW13555   6.039   0.517   1.296
70553SOL    HW113556   6.053   0.608   1.269
70553SOL    HW213557   5.966   0.487   1.241
70554SOL     OW13558   8.639   4.125   1.631
70554SOL    HW113559   8.557   4.161   1.665
70554SOL    HW213560   8.637   4.144   1.538
70555SOL     OW13561   9.183   2.680  12.479
70555SOL    HW113562   9.249   2.618  12.510
70555SOL    HW213563   9.222   2.719  12.400
70556SOL     OW13564   7.388  11.906  12.584
70556SOL    HW113565   7.381  11.840  12.653
70556SOL    HW213566   7.357  11.987  12.625
70557SOL     OW13567  12.718  13.042   3.653
70557SOL    HW113568  12.751  13.051   3.743
70557SOL    HW213569  12.657  13.115   3.643
70558SOL     OW13570   4.196   0.931   4.870
70558SOL    HW113571   4.108   0.961   4.847
70558SOL    HW213572   4.234   0.900   4.788
70559SOL     OW13573  13.519   6.021  12.631
70559SOL    HW113574  13.560   6.094  12.678
70559SOL    HW213575  13.552   5.943  12.675
70560SOL     OW13576  12.990   8.883   3.441
70560SOL    HW113577  12.910   8.932   3.420
70560SOL    HW213578  13.035   8.873   3.357
70561SOL     OW13579   3.296   6.534  13.689
70561SOL    HW113580   3.209   6.517  13.724
70561SOL    HW213581   3.345   6.572  13.761
70562SOL     OW13582   1.248   1.420   3.176
70562SOL    HW113583   1.171   1.428   3.120
70562SOL    HW213584   1.272   1.328   3.172
70563SOL     OW13585   3.154  10.061   1.733
70563SOL    HW113586   3.216   9.993   1.759
70563SOL    HW213587   3.196  10.104   1.658
70564SOL     OW13588  12.909  11.650  14.675
70564SOL    HW113589  12.946  11.729  14.714
70564SOL    HW213590  12.892  11.674  14.584
70565SOL     OW13591   7.285   5.684   0.169
70565SOL    HW113592   7.279   5.678   0.074
70565SOL    HW213593   7.312   5.597   0.197
70566SOL     OW13594   4.776   1.980   2.392
70566SOL    HW113595   4.706   2.024   2.439
70566SOL    HW213596   4.746   1.977   2.301
70567SOL     OW13597   0.021   8.442   2.989
70567SOL    HW113598  14.817   8.406   2.954
70567SOL    HW213599   0.081   8.368   2.991
70568SOL     OW13600  10.934   9.072  13.758
70568SOL    HW113601  10.850   9.038  13.725
70568SOL    HW213602  10.914   9.104  13.846
70569SOL     OW13603   1.891   2.707   2.360
70569SOL    HW113604   1.845   2.668   2.286
70569SOL    HW213605   1.867   2.653   2.435
70570SOL     OW13606   9.073   6.923   9.400
70570SOL    HW113607   9.111   6.928   9.312
70570SOL    HW213608   9.143   6.952   9.458
70571SOL     OW13609  13.429   2.567  13.109
70571SOL    HW113610  13.438   2.589  13.016
70571SOL    HW213611  13.404   2.649  13.151
70572SOL     OW13612   6.429  10.641   0.839
70572SOL    HW113613   6.371  10.569   0.864
70572SOL    HW213614   6.434  10.696   0.917
70573SOL     OW13615   3.286   7.661  11.755
70573SOL    HW113616   3.317   7.627  11.839
70573SOL    HW213617   3.194   7.683  11.771
70574SOL     OW13618   4.550   9.155  10.126
70574SOL    HW113619   4.549   9.102  10.206
70574SOL    HW213620   4.515   9.240  10.154
70575SOL     OW13621  11.985  11.610   0.552
70575SOL    HW113622  12.068  11.617   0.504
70575SOL    HW213623  11.918  11.625   0.485
70576SOL     OW13624  11.320   7.594   0.322
70576SOL    HW113625  11.414   7.596   0.303
70576SOL    HW213626  11.305   7.507   0.360
70577SOL     OW13627   2.398   8.256   0.915
70577SOL    HW113628   2.313   8.214   0.910
70577SOL    HW213629   2.461   8.184   0.924
70578SOL     OW13630   6.157   3.817   6.463
70578SOL    HW113631   6.228   3.801   6.400
70578SOL    HW213632   6.168   3.748   6.529
70579SOL     OW13633  11.084   8.922  12.250
70579SOL    HW113634  11.047   8.985  12.188
70579SOL    HW213635  11.118   8.976  12.321
70580SOL     OW13636   9.406   0.755   1.218
70580SOL    HW113637   9.397   0.846   1.187
70580SOL    HW213638   9.499   0.744   1.234
70581SOL     OW13639   7.560   0.375   0.443
70581SOL    HW113640   7.508   0.353   0.520
70581SOL    HW213641   7.645   0.403   0.478
70582SOL     OW13642  13.854  14.490  14.554
70582SOL    HW113643  13.761  14.510  14.567
70582SOL    HW213644  13.887  14.563  14.503
70583SOL     OW13645   6.984  13.090   5.917
70583SOL    HW113646   7.017  13.001   5.927
70583SOL    HW213647   6.956  13.115   6.005
70584SOL     OW13648   8.625  10.733   1.829
70584SOL    HW113649   8.617  10.727   1.734
70584SOL    HW213650   8.586  10.652   1.862
70585SOL     OW13651   7.294   4.048  14.410
70585SOL    HW113652   7.227   4.115  14.425
70585SOL    HW213653   7.327   4.026  14.497
70586SOL     OW13654   3.320  11.930  11.077
70586SOL    HW113655   3.394  11.924  11.138
70586SOL    HW213656   3.244  11.946  11.133
70587SOL     OW13657   4.222   6.533   9.914
70587SOL    HW113658   4.219   6.561  10.006
70587SOL    HW213659   4.165   6.595   9.868
70588SOL     OW13660  12.425   1.152   7.540
70588SOL    HW113661  12.427   1.090   7.466
70588SOL    HW213662  12.512   1.143   7.580
70589SOL     OW13663  14.250   0.465  14.733
70589SOL    HW113664  14.284   0.508  14.655
70589SOL    HW213665  14.183   0.405  14.699
70590SOL     OW13666  11.089  14.337   9.756
70590SOL    HW113667  11.004  14.324   9.798
70590SOL    HW213668  11.102  14.432   9.756
70591SOL     OW13669   8.794  10.251  10.452
70591SOL    HW113670   8.809  10.210  10.538
70591SOL    HW213671   8.739  10.189  10.405
70592SOL     OW13672   0.832   7.728   7.295
70592SOL    HW113673   0.766   7.696   7.233
70592SOL    HW213674   0.834   7.823   7.280
70593SOL     OW13675   3.266   1.396   5.832
70593SOL    HW113676   3.238   1.456   5.900
70593SOL    HW213677   3.340   1.440   5.789
70594SOL     OW13678   3.011   8.508   5.655
70594SOL    HW113679   3.011   8.570   5.728
70594SOL    HW213680   3.015   8.422   5.696
70595SOL     OW13681   5.039   4.671   4.078
70595SOL    HW113682   5.034   4.759   4.041
70595SOL    HW213683   4.971   4.622   4.033
70596SOL     OW13684  13.281  13.281   5.037
70596SOL    HW113685  13.358  13.256   5.089
70596SOL    HW213686  13.207  13.266   5.095
70597SOL     OW13687   1.261   2.333   6.671
70597SOL    HW113688   1.249   2.402   6.735
70597SOL    HW213689   1.177   2.286   6.669
70598SOL     OW13690   2.742   9.466   0.936
70598SOL    HW113691   2.818   9.454   0.879
70598SOL    HW213692   2.668   9.432   0.885
70599SOL     OW13693  10.750  12.217   4.672
70599SOL    HW113694  10.686  12.255   4.613
70599SOL    HW213695  10.829  12.269   4.659
70600SOL     OW13696   7.679  10.119   2.503
70600SOL    HW113697   7.659  10.146   2.592
70600SOL    HW213698   7.674  10.200   2.451
70601SOL     OW13699  13.749  14.298  10.035
70601SOL    HW113700  13.768  14.205  10.025
70601SOL    HW213701  13.829  14.343  10.007
70602SOL     OW13702   8.469   9.680   6.475
70602SOL    HW113703   8.424   9.687   6.559
70602SOL    HW213704   8.432   9.602   6.434
70603SOL     OW13705  10.760  13.739   0.584
70603SOL    HW113706  10.844  13.786   0.588
70603SOL    HW213707  10.780  13.651   0.616
70604SOL     OW13708  11.054   8.452  11.104
70604SOL    HW113709  11.093   8.538  11.121
70604SOL    HW213710  11.100   8.394  11.164
70605SOL     OW13711   7.591   3.646   0.827
70605SOL    HW113712   7.578   3.611   0.739
70605SOL    HW213713   7.684   3.637   0.843
70606SOL     OW13714   7.587   1.626  12.015
70606SOL    HW113715   7.653   1.577  11.965
70606SOL    HW213716   7.625   1.714  12.024
70607SOL     OW13717   7.980   2.590  14.154
70607SOL    HW113718   7.895   2.589  14.198
70607SOL    HW213719   7.972   2.658  14.087
70608SOL     OW13720   1.969   6.680   0.340
70608SOL    HW113721   1.992   6.707   0.251
70608SOL    HW213722   1.921   6.598   0.328
70609SOL     OW13723  12.984   1.727   5.421
70609SOL    HW113724  12.951   1.695   5.337
70609SOL    HW213725  12.986   1.650   5.477
70610SOL     OW13726   0.943   0.543   3.786
70610SOL    HW113727   0.885   0.498   3.725
70610SOL    HW213728   0.970   0.623   3.740
70611SOL     OW13729   3.090   0.562   5.323
70611SOL    HW113730   3.141   0.535   5.246
70611SOL    HW213731   3.077   0.481   5.372
70612SOL     OW13732   6.096  11.671  10.999
70612SOL    HW113733   6.143  11.754  11.012
70612SOL    HW213734   6.127  11.639  10.915
70613SOL     OW13735   8.460   1.751   8.679
70613SOL    HW113736   8.481   1.763   8.586
70613SOL    HW213737   8.535   1.703   8.714
70614SOL     OW13738   2.619  10.532   7.356
70614SOL    HW113739   2.587  10.620   7.338
70614SOL    HW213740   2.603  10.483   7.276
70615SOL     OW13741   7.331   5.219  13.671
70615SOL    HW113742   7.309   5.311  13.662
70615SOL    HW213743   7.337   5.205  13.766
70616SOL     OW13744   9.810  13.608   1.091
70616SOL    HW113745   9.718  13.635   1.090
70616SOL    HW213746   9.854  13.671   1.034
70617SOL     OW13747  10.782  10.389  10.073
70617SOL    HW113748  10.751  10.393   9.982
70617SOL    HW213749  10.703  10.399  10.126
70618SOL     OW13750  10.390   8.659  12.403
70618SOL    HW113751  10.302   8.653  12.364
70618SOL    HW213752  10.373   8.669  12.497
70619SOL     OW13753   8.747   2.055   3.144
70619SOL    HW113754   8.778   2.064   3.235
70619SOL    HW213755   8.821   2.017   3.097
70620SOL     OW13756   4.523   1.808   5.114
70620SOL    HW113757   4.492   1.883   5.063
70620SOL    HW213758   4.515   1.837   5.205
70621SOL     OW13759  14.181   5.045   4.532
70621SOL    HW113760  14.255   5.029   4.473
70621SOL    HW213761  14.202   5.128   4.574
70622SOL     OW13762  10.205   8.604   9.655
70622SOL    HW113763  10.244   8.647   9.730
70622SOL    HW213764  10.112   8.598   9.676
70623SOL     OW13765  13.908  10.163   1.856
70623SOL    HW113766  13.854  10.233   1.893
70623SOL    HW213767  13.851  10.086   1.854
70624SOL     OW13768  14.088   2.931   4.559
70624SOL    HW113769  14.094   3.023   4.535
70624SOL    HW213770  14.018   2.927   4.625
70625SOL     OW13771  13.932  10.119   2.553
70625SOL    HW113772  14.026  10.126   2.567
70625SOL    HW213773  13.923  10.074   2.469
70626SOL     OW13774  10.201  11.341   4.156
70626SOL    HW113775  10.135  11.380   4.213
70626SOL    HW213776  10.179  11.373   4.069
70627SOL     OW13777   6.731   1.186   3.313
70627SOL    HW113778   6.653   1.204   3.261
70627SOL    HW213779   6.800   1.175   3.248
70628SOL     OW13780  10.770   0.829   0.877
70628SOL    HW113781  10.723   0.868   0.803
70628SOL    HW213782  10.839   0.892   0.897
70629SOL     OW13783   1.073   9.294   3.304
70629SOL    HW113784   0.991   9.244   3.299
70629SOL    HW213785   1.128   9.244   3.364
70630SOL     OW13786  11.566   4.535   2.359
70630SOL    HW113787  11.519   4.452   2.358
70630SOL    HW213788  11.501   4.599   2.387
70631SOL     OW13789   0.177   8.813   4.875
70631SOL    HW113790   0.211   8.901   4.856
70631SOL    HW213791   0.179   8.768   4.791
70632SOL     OW13792   7.351   7.637  13.527
70632SOL    HW113793   7.320   7.553  13.495
70632SOL    HW213794   7.443   7.642  13.499
70633SOL     OW13795   5.544  10.181   8.307
70633SOL    HW113796   5.472  10.212   8.252
70633SOL    HW213797   5.503  10.154   8.389
70634SOL     OW13798  12.265   7.902   3.244
70634SOL    HW113799  12.243   7.820   3.201
70634SOL    HW213800  12.212   7.902   3.324
70635SOL     OW13801   9.201   5.784   9.562
70635SOL    HW113802   9.291   5.788   9.594
70635SOL    HW213803   9.204   5.829   9.478
70636SOL     OW13804  13.334  13.785   8.677
70636SOL    HW113805  13.397  13.841   8.631
70636SOL    HW213806  13.332  13.704   8.625
70637SOL     OW13807  11.256  12.715   0.382
70637SOL    HW113808  11.330  12.678   0.431
70637SOL    HW213809  11.180  12.699   0.438
70638SOL     OW13810   0.648   1.744   0.337
70638SOL    HW113811   0.615   1.655   0.325
70638SOL    HW213812   0.708   1.757   0.264
70639SOL     OW13813  10.030  14.666  11.601
70639SOL    HW113814  10.059  14.694  11.514
70639SOL    HW213815  10.101  14.612  11.634
70640SOL     OW13816  11.817   2.050   7.467
70640SOL    HW113817  11.762   2.126   7.487
70640SOL    HW213818  11.819   2.046   7.371
70641SOL     OW13819   1.510   3.282   6.376
70641SOL    HW113820   1.538   3.327   6.297
70641SOL    HW213821   1.540   3.338   6.448
70642SOL     OW13822   0.099  12.537   0.532
70642SOL    HW113823   0.076  12.493   0.614
70642SOL    HW213824   0.115  12.466   0.470
70643SOL     OW13825  14.140  13.121   4.733
70643SOL    HW113826  14.109  13.077   4.813
70643SOL    HW213827  14.098  13.074   4.662
70644SOL     OW13828   4.354   5.647   5.725
70644SOL    HW113829   4.377   5.566   5.770
70644SOL    HW213830   4.423   5.658   5.659
70645SOL     OW13831  13.722   6.880   0.961
70645SOL    HW113832  13.760   6.953   1.011
70645SOL    HW213833  13.798   6.828   0.934
70646SOL     OW13834   7.204   4.201   4.299
70646SOL    HW113835   7.266   4.168   4.235
70646SOL    HW213836   7.211   4.140   4.373
70647SOL     OW13837   7.175  13.956   5.111
70647SOL    HW113838   7.089  13.921   5.134
70647SOL    HW213839   7.204  14.005   5.188
70648SOL     OW13840   9.004  10.273  11.452
70648SOL    HW113841   9.045  10.193  11.485
70648SOL    HW213842   8.996  10.329  11.529
70649SOL     OW13843   4.205  10.182   2.808
70649SOL    HW113844   4.127  10.219   2.849
70649SOL    HW213845   4.176  10.096   2.777
70650SOL     OW13846  13.126   2.817   8.523
70650SOL    HW113847  13.092   2.869   8.596
70650SOL    HW213848  13.077   2.735   8.527
70651SOL     OW13849   5.797  11.230  14.521
70651SOL    HW113850   5.785  11.200  14.611
70651SOL    HW213851   5.811  11.149  14.471
70652SOL     OW13852  13.055  14.279   9.404
70652SOL    HW113853  12.974  14.329   9.409
70652SOL    HW213854  13.096  14.307   9.323
70653SOL     OW13855   4.485   7.186  10.474
70653SOL    HW113856   4.534   7.268  10.483
70653SOL    HW213857   4.551   7.120  10.454
70654SOL     OW13858   9.558   2.867   3.182
70654SOL    HW113859   9.464   2.854   3.178
70654SOL    HW213860   9.588   2.849   3.093
70655SOL     OW13861  13.519  13.352   9.697
70655SOL    HW113862  13.578  13.428   9.693
70655SOL    HW213863  13.556  13.290   9.634
70656SOL     OW13864   8.371  11.984  12.595
70656SOL    HW113865   8.337  11.896  12.609
70656SOL    HW213866   8.454  11.985  12.644
70657SOL     OW13867   9.825  12.538  13.114
70657SOL    HW113868   9.877  12.618  13.125
70657SOL    HW213869   9.856  12.502  13.031
70658SOL     OW13870   8.605   2.716   7.915
70658SOL    HW113871   8.563   2.800   7.897
70658SOL    HW213872   8.624   2.679   7.829
70659SOL     OW13873   2.642   0.944  14.712
70659SOL    HW113874   2.547   0.951  14.706
70659SOL    HW213875   2.659   0.850  14.711
70660SOL     OW13876  13.975  10.864   5.933
70660SOL    HW113877  13.965  10.948   5.888
70660SOL    HW213878  13.949  10.799   5.868
70661SOL     OW13879  10.202   8.248   9.348
70661SOL    HW113880  10.235   8.164   9.316
70661SOL    HW213881  10.165   8.290   9.270
70662SOL     OW13882  13.236   1.129   8.009
70662SOL    HW113883  13.159   1.183   8.027
70662SOL    HW213884  13.213   1.042   8.040
70663SOL     OW13885   9.553   4.120   1.056
70663SOL    HW113886   9.522   4.054   0.994
70663SOL    HW213887   9.508   4.200   1.030
70664SOL     OW13888   7.255  14.220   9.213
70664SOL    HW113889   7.279  14.152   9.150
70664SOL    HW213890   7.177  14.261   9.175
70665SOL     OW13891   9.246   4.350   2.565
70665SOL    HW113892   9.292   4.434   2.571
70665SOL    HW213893   9.243   4.331   2.471
70666SOL     OW13894   2.121   6.549   1.350
70666SOL    HW113895   2.044   6.493   1.358
70666SOL    HW213896   2.087   6.638   1.358
70667SOL     OW13897  14.188   5.571  10.791
70667SOL    HW113898  14.270   5.619  10.799
70667SOL    HW213899  14.149   5.574  10.878
70668SOL     OW13900   9.468   5.674   3.815
70668SOL    HW113901   9.459   5.611   3.886
70668SOL    HW213902   9.398   5.737   3.831
70669SOL     OW13903   4.958  14.001   3.380
70669SOL    HW113904   5.020  13.946   3.333
70669SOL    HW213905   4.925  14.063   3.315
70670SOL     OW13906   5.009   2.362   3.764
70670SOL    HW113907   5.087   2.386   3.814
70670SOL    HW213908   4.993   2.271   3.788
70671SOL     OW13909   0.495   8.433   6.725
70671SOL    HW113910   0.419   8.459   6.672
70671SOL    HW213911   0.569   8.438   6.664
70672SOL     OW13912  13.272   1.667   2.082
70672SOL    HW113913  13.316   1.741   2.039
70672SOL    HW213914  13.196   1.707   2.124
70673SOL     OW13915  13.649   1.326  13.788
70673SOL    HW113916  13.561   1.292  13.771
70673SOL    HW213917  13.635   1.403  13.843
70674SOL     OW13918  12.402   3.425   4.700
70674SOL    HW113919  12.371   3.353   4.646
70674SOL    HW213920  12.331   3.489   4.700
70675SOL     OW13921  10.392   4.600   6.272
70675SOL    HW113922  10.381   4.600   6.367
70675SOL    HW213923  10.303   4.610   6.238
70676SOL     OW13924   1.453   3.521   5.238
70676SOL    HW113925   1.421   3.487   5.154
70676SOL    HW213926   1.519   3.458   5.266
70677SOL     OW13927   9.418   3.405  12.843
70677SOL    HW113928   9.472   3.472  12.801
70677SOL    HW213929   9.481   3.342  12.878
70678SOL     OW13930  13.183   8.855  14.873
70678SOL    HW113931  13.251   8.872  14.808
70678SOL    HW213932  13.152   8.767  14.854
70679SOL     OW13933  11.394  12.436   6.266
70679SOL    HW113934  11.306  12.409   6.292
70679SOL    HW213935  11.419  12.372   6.198
70680SOL     OW13936   1.866   4.542   8.662
70680SOL    HW113937   1.920   4.589   8.599
70680SOL    HW213938   1.871   4.595   8.742
70681SOL     OW13939   7.619  14.828   2.335
70681SOL    HW113940   7.552  14.797   2.396
70681SOL    HW213941   7.644   0.037   2.369
70682SOL     OW13942   3.911   3.110   2.470
70682SOL    HW113943   3.964   3.030   2.475
70682SOL    HW213944   3.843   3.099   2.537
70683SOL     OW13945   6.621   5.917   1.591
70683SOL    HW113946   6.699   5.896   1.641
70683SOL    HW213947   6.640   5.888   1.502
70684SOL     OW13948  11.230   8.039   8.247
70684SOL    HW113949  11.307   7.983   8.259
70684SOL    HW213950  11.165   8.003   8.308
70685SOL     OW13951   9.462  12.529   3.944
70685SOL    HW113952   9.548  12.504   3.911
70685SOL    HW213953   9.455  12.623   3.926
70686SOL     OW13954  10.684  13.571   6.254
70686SOL    HW113955  10.678  13.645   6.315
70686SOL    HW213956  10.648  13.497   6.302
70687SOL     OW13957  12.533   3.460   3.598
70687SOL    HW113958  12.572   3.374   3.608
70687SOL    HW213959  12.597   3.520   3.637
70688SOL     OW13960  13.303  12.989   7.857
70688SOL    HW113961  13.251  12.979   7.777
70688SOL    HW213962  13.305  13.084   7.872
70689SOL     OW13963  13.097   8.413  11.047
70689SOL    HW113964  13.160   8.479  11.076
70689SOL    HW213965  13.023   8.423  11.108
70690SOL     OW13966   0.214   9.618  11.520
70690SOL    HW113967   0.242   9.536  11.561
70690SOL    HW213968   0.277   9.683  11.551
70691SOL     OW13969  14.256  10.295  12.126
70691SOL    HW113970  14.165  10.266  12.121
70691SOL    HW213971  14.276  10.327  12.037
70692SOL     OW13972   0.242   2.149  11.758
70692SOL    HW113973   0.191   2.225  11.784
70692SOL    HW213974   0.229   2.086  11.829
70693SOL     OW13975  11.026   7.759  10.773
70693SOL    HW113976  11.094   7.791  10.714
70693SOL    HW213977  10.996   7.838  10.819
70694SOL     OW13978   8.143   2.201   6.015
70694SOL    HW113979   8.124   2.117   6.057
70694SOL    HW213980   8.155   2.179   5.923
70695SOL     OW13981   4.417   4.452  12.600
70695SOL    HW113982   4.411   4.534  12.649
70695SOL    HW213983   4.496   4.462  12.547
70696SOL     OW13984   6.411   3.555   7.896
70696SOL    HW113985   6.334   3.504   7.870
70696SOL    HW213986   6.471   3.490   7.931
70697SOL     OW13987   2.908  11.692   6.177
70697SOL    HW113988   2.998  11.660   6.170
70697SOL    HW213989   2.915  11.786   6.162
70698SOL     OW13990   9.697   3.806  11.814
70698SOL    HW113991   9.603   3.819  11.829
70698SOL    HW213992   9.701   3.733  11.752
70699SOL     OW13993   7.190  13.978   1.739
70699SOL    HW113994   7.250  14.008   1.807
70699SOL    HW213995   7.140  13.908   1.780
70700SOL     OW13996   9.346   4.618   6.862
70700SOL    HW113997   9.283   4.603   6.792
70700SOL    HW213998   9.309   4.575   6.938
70701SOL     OW13999   6.455  14.217   2.359
70701SOL    HW114000   6.420  14.213   2.270
70701SOL    HW214001   6.456  14.311   2.381
70702SOL     OW14002   3.062   9.428   5.549
70702SOL    HW114003   3.054   9.333   5.555
70702SOL    HW214004   3.078   9.445   5.456
70703SOL     OW14005   5.358   3.216   2.259
70703SOL    HW114006   5.388   3.301   2.228
70703SOL    HW214007   5.434   3.158   2.249
70704SOL     OW14008   5.044   4.832   0.383
70704SOL    HW114009   5.126   4.873   0.356
70704SOL    HW214010   4.979   4.902   0.379
70705SOL     OW14011   2.224   7.727  10.505
70705SOL    HW114012   2.236   7.633  10.493
70705SOL    HW214013   2.166   7.753  10.433
70706SOL     OW14014   0.263  12.497  10.983
70706SOL    HW114015   0.358  12.486  10.978
70706SOL    HW214016   0.240  12.548  10.904
70707SOL     OW14017   3.924   7.186   7.279
70707SOL    HW114018   3.851   7.124   7.284
70707SOL    HW214019   3.993   7.147   7.332
70708SOL     OW14020   5.884   4.141   0.271
70708SOL    HW114021   5.791   4.143   0.294
70708SOL    HW214022   5.908   4.233   0.259
70709SOL     OW14023   4.079   3.454   0.204
70709SOL    HW114024   3.987   3.463   0.230
70709SOL    HW214025   4.115   3.542   0.212
70710SOL     OW14026   6.292   9.653   1.591
70710SOL    HW114027   6.225   9.585   1.578
70710SOL    HW214028   6.312   9.685   1.503
70711SOL     OW14029   3.576  11.537  14.228
70711SOL    HW114030   3.552  11.481  14.154
70711SOL    HW214031   3.503  11.597  14.238
70712SOL     OW14032  10.257   5.704   2.836
70712SOL    HW114033  10.342   5.712   2.879
70712SOL    HW214034  10.226   5.794   2.826
70713SOL     OW14035   2.062  13.934   1.107
70713SOL    HW114036   2.135  13.930   1.168
70713SOL    HW214037   2.090  13.881   1.032
70714SOL     OW14038   5.442  13.955   2.625
70714SOL    HW114039   5.512  14.013   2.594
70714SOL    HW214040   5.487  13.872   2.643
70715SOL     OW14041   0.562  13.153   2.273
70715SOL    HW114042   0.509  13.080   2.240
70715SOL    HW214043   0.525  13.230   2.230
70716SOL     OW14044  12.005   2.354  11.361
70716SOL    HW114045  11.921   2.319  11.391
70716SOL    HW214046  12.010   2.329  11.269
70717SOL     OW14047   6.109   0.959   5.695
70717SOL    HW114048   6.029   0.965   5.746
70717SOL    HW214049   6.122   0.865   5.681
70718SOL     OW14050   2.624   8.915   8.993
70718SOL    HW114051   2.568   8.990   8.974
70718SOL    HW214052   2.711   8.941   8.963
70719SOL     OW14053  12.069  12.677  14.347
70719SOL    HW114054  12.017  12.668  14.428
70719SOL    HW214055  12.010  12.648  14.278
70720SOL     OW14056  12.251  13.630  14.384
70720SOL    HW114057  12.249  13.657  14.476
70720SOL    HW214058  12.248  13.713  14.335
70721SOL     OW14059   7.742  10.110  11.226
70721SOL    HW114060   7.681  10.094  11.298
70721SOL    HW214061   7.741  10.029  11.175
70722SOL     OW14062  10.770   8.045   5.747
70722SOL    HW114063  10.708   7.985   5.788
70722SOL    HW214064  10.824   8.077   5.819
70723SOL     OW14065   3.858  11.291   7.191
70723SOL    HW114066   3.782  11.347   7.201
70723SOL    HW214067   3.932  11.346   7.215
70724SOL     OW14068   9.780  13.454   8.193
70724SOL    HW114069   9.700  13.403   8.205
70724SOL    HW214070   9.755  13.524   8.133
70725SOL     OW14071  10.058   5.648   8.613
70725SOL    HW114072  10.019   5.712   8.553
70725SOL    HW214073  10.003   5.571   8.605
70726SOL     OW14074   5.698  10.015   9.627
70726SOL    HW114075   5.694  10.060   9.711
70726SOL    HW214076   5.616   9.965   9.622
70727SOL     OW14077   6.062   6.616   4.838
70727SOL    HW114078   6.064   6.552   4.767
70727SOL    HW214079   6.051   6.563   4.917
70728SOL     OW14080   8.028   2.200   3.975
70728SOL    HW114081   8.009   2.133   4.040
70728SOL    HW214082   8.119   2.186   3.951
70729SOL     OW14083   4.832   2.229   6.593
70729SOL    HW114084   4.923   2.251   6.576
70729SOL    HW214085   4.783   2.274   6.524
70730SOL     OW14086   4.048   4.579   4.187
70730SOL    HW114087   3.971   4.590   4.242
70730SOL    HW214088   4.028   4.628   4.108
70731SOL     OW14089   5.947   0.513   6.777
70731SOL    HW114090   5.976   0.436   6.729
70731SOL    HW214091   5.909   0.478   6.858
70732SOL     OW14092   4.591   8.419  13.891
70732SOL    HW114093   4.616   8.444  13.802
70732SOL    HW214094   4.604   8.498  13.943
70733SOL     OW14095  13.904   6.066   9.834
70733SOL    HW114096  13.834   6.090   9.774
70733SOL    HW214097  13.887   6.117   9.913
70734SOL     OW14098  11.328   1.825  13.298
70734SOL    HW114099  11.279   1.806  13.218
70734SOL    HW214100  11.273   1.790  13.368
70735SOL     OW14101  11.524   9.223   1.692
70735SOL    HW114102  11.480   9.149   1.735
70735SOL    HW214103  11.480   9.231   1.608
70736SOL     OW14104   9.397  12.783  12.534
70736SOL    HW114105   9.315  12.771  12.486
70736SOL    HW214106   9.388  12.727  12.610
70737SOL     OW14107  12.276  10.801   0.526
70737SOL    HW114108  12.360  10.837   0.498
70737SOL    HW214109  12.267  10.720   0.477
70738SOL     OW14110   0.971   8.862   1.873
70738SOL    HW114111   1.060   8.826   1.874
70738SOL    HW214112   0.923   8.805   1.813
70739SOL     OW14113  11.714  11.932   7.429
70739SOL    HW114114  11.725  11.863   7.363
70739SOL    HW214115  11.789  11.991   7.414
70740SOL     OW14116   2.313  12.412   7.376
70740SOL    HW114117   2.333  12.505   7.390
70740SOL    HW214118   2.371  12.366   7.436
70741SOL     OW14119  11.192   0.083  11.624
70741SOL    HW114120  11.179   0.019  11.554
70741SOL    HW214121  11.240   0.155  11.582
70742SOL     OW14122  12.391   2.569  12.398
70742SOL    HW114123  12.356   2.657  12.384
70742SOL    HW214124  12.417   2.568  12.490
70743SOL     OW14125  13.861  13.172  13.548
70743SOL    HW114126  13.946  13.216  13.554
70743SOL    HW214127  13.814  13.218  13.478
70744SOL     OW14128   2.873   5.611  12.726
70744SOL    HW114129   2.936   5.674  12.761
70744SOL    HW214130   2.841   5.651  12.646
70745SOL     OW14131   1.093   2.518  12.527
70745SOL    HW114132   1.119   2.476  12.609
70745SOL    HW214133   1.175   2.528  12.478
70746SOL     OW14134  11.729  10.226   4.763
70746SOL    HW114135  11.808  10.232   4.817
70746SOL    HW214136  11.761  10.202   4.676
70747SOL     OW14137   4.941  12.834   0.682
70747SOL    HW114138   4.880  12.785   0.737
70747SOL    HW214139   4.886  12.877   0.617
70748SOL     OW14140   9.241   5.489  11.832
70748SOL    HW114141   9.331   5.465  11.855
70748SOL    HW214142   9.229   5.577  11.867
70749SOL     OW14143   3.091  10.422  14.462
70749SOL    HW114144   3.122  10.365  14.391
70749SOL    HW214145   3.054  10.361  14.526
70750SOL     OW14146   0.252  12.828  13.936
70750SOL    HW114147   0.272  12.819  13.843
70750SOL    HW214148   0.213  12.745  13.961
70751SOL     OW14149   5.983  14.747   5.850
70751SOL    HW114150   5.994  14.806   5.775
70751SOL    HW214151   6.072  14.724   5.876
70752SOL     OW14152  13.333  14.403  14.341
70752SOL    HW114153  13.303  14.371  14.426
70752SOL    HW214154  13.334  14.326  14.285
70753SOL     OW14155   2.596  14.547   1.633
70753SOL    HW114156   2.691  14.534   1.625
70753SOL    HW214157   2.582  14.565   1.725
70754SOL     OW14158   0.363  12.803   7.252
70754SOL    HW114159   0.405  12.757   7.324
70754SOL    HW214160   0.313  12.873   7.294
70755SOL     OW14161  14.221   9.087   7.278
70755SOL    HW114162  14.295   9.040   7.239
70755SOL    HW214163  14.221   9.172   7.234
70756SOL     OW14164   6.712  14.510   5.724
70756SOL    HW114165   6.650  14.502   5.652
70756SOL    HW214166   6.778  14.572   5.693
70757SOL     OW14167   0.772  10.940   2.311
70757SOL    HW114168   0.699  10.964   2.368
70757SOL    HW214169   0.753  10.851   2.283
70758SOL     OW14170  14.191  11.868   1.734
70758SOL    HW114171  14.272  11.904   1.698
70758SOL    HW214172  14.181  11.783   1.692
70759SOL     OW14173   6.224   1.178   4.154
70759SOL    HW114174   6.285   1.121   4.202
70759SOL    HW214175   6.143   1.175   4.205
70760SOL     OW14176  13.901  10.332  13.299
70760SOL    HW114177  13.845  10.302  13.226
70760SOL    HW214178  13.904  10.257  13.358
70761SOL     OW14179   2.251   6.979   7.556
70761SOL    HW114180   2.163   6.968   7.520
70761SOL    HW214181   2.237   7.015   7.643
70762SOL     OW14182   4.665   0.357  12.510
70762SOL    HW114183   4.622   0.361  12.596
70762SOL    HW214184   4.634   0.435  12.464
70763SOL     OW14185  12.762  12.041   5.128
70763SOL    HW114186  12.773  11.985   5.205
70763SOL    HW214187  12.721  12.120   5.162
70764SOL     OW14188   1.586   9.986  10.671
70764SOL    HW114189   1.538   9.989  10.754
70764SOL    HW214190   1.665   9.935  10.691
70765SOL     OW14191   0.926   4.759   7.369
70765SOL    HW114192   0.879   4.677   7.384
70765SOL    HW214193   0.954   4.753   7.277
70766SOL     OW14194  12.299   7.949  12.163
70766SOL    HW114195  12.326   7.877  12.106
70766SOL    HW214196  12.376   7.969  12.216
70767SOL     OW14197   9.356   3.307  13.427
70767SOL    HW114198   9.448   3.328  13.409
70767SOL    HW214199   9.307   3.372  13.377
70768SOL     OW14200   6.143  11.451   0.621
70768SOL    HW114201   6.155  11.512   0.694
70768SOL    HW214202   6.065  11.484   0.576
70769SOL     OW14203  11.511   7.080   9.632
70769SOL    HW114204  11.485   7.028   9.556
70769SOL    HW214205  11.514   7.170   9.600
70770SOL     OW14206  12.622  10.414   4.258
70770SOL    HW114207  12.560  10.470   4.306
70770SOL    HW214208  12.579  10.329   4.253
70771SOL     OW14209  11.939   4.500  12.461
70771SOL    HW114210  11.941   4.588  12.423
70771SOL    HW214211  12.026   4.489  12.500
70772SOL     OW14212  11.006   3.464  14.425
70772SOL    HW114213  10.992   3.479  14.331
70772SOL    HW214214  11.030   3.372  14.431
70773SOL     OW14215   7.061   2.861   8.848
70773SOL    HW114216   7.000   2.917   8.800
70773SOL    HW214217   7.058   2.895   8.938
70774SOL     OW14218   8.456   0.453   0.933
70774SOL    HW114219   8.479   0.460   0.840
70774SOL    HW214220   8.415   0.536   0.953
70775SOL     OW14221   1.468  12.463   3.652
70775SOL    HW114222   1.414  12.432   3.725
70775SOL    HW214223   1.556  12.431   3.673
70776SOL     OW14224   4.215   6.297   6.957
70776SOL    HW114225   4.251   6.358   7.021
70776SOL    HW214226   4.193   6.353   6.882
70777SOL     OW14227   9.719  12.990   2.036
70777SOL    HW114228   9.812  12.987   2.056
70777SOL    HW214229   9.705  13.077   1.999
70778SOL     OW14230   0.525   1.109  14.272
70778SOL    HW114231   0.557   1.045  14.208
70778SOL    HW214232   0.439   1.134  14.239
70779SOL     OW14233   5.764  11.165   6.028
70779SOL    HW114234   5.678  11.206   6.020
70779SOL    HW214235   5.758  11.111   6.106
70780SOL     OW14236   2.899   1.847   4.800
70780SOL    HW114237   2.967   1.803   4.750
70780SOL    HW214238   2.820   1.796   4.784
70781SOL     OW14239   2.435   7.003   9.159
70781SOL    HW114240   2.420   6.926   9.214
70781SOL    HW214241   2.393   6.982   9.076
70782SOL     OW14242  10.559   4.789   1.307
70782SOL    HW114243  10.515   4.784   1.223
70782SOL    HW214244  10.495   4.758   1.371
70783SOL     OW14245   2.493   3.352   3.159
70783SOL    HW114246   2.560   3.295   3.195
70783SOL    HW214247   2.529   3.382   3.076
70784SOL     OW14248  10.546  10.262  11.991
70784SOL    HW114249  10.487  10.188  12.004
70784SOL    HW214250  10.618  10.246  12.052
70785SOL     OW14251   3.965  14.767   2.137
70785SOL    HW114252   3.935  14.818   2.213
70785SOL    HW214253   3.979  14.832   2.069
70786SOL     OW14254   1.493   1.905   3.593
70786SOL    HW114255   1.508   1.994   3.625
70786SOL    HW214256   1.463   1.856   3.669
70787SOL     OW14257  10.472   7.813   4.403
70787SOL    HW114258  10.510   7.880   4.460
70787SOL    HW214259  10.386   7.795   4.441
70788SOL     OW14260  12.349  11.240  13.073
70788SOL    HW114261  12.270  11.193  13.098
70788SOL    HW214262  12.413  11.218  13.141
70789SOL     OW14263   0.776   7.420   6.112
70789SOL    HW114264   0.698   7.401   6.165
70789SOL    HW214265   0.748   7.488   6.051
70790SOL     OW14266  11.748   4.719   1.786
70790SOL    HW114267  11.735   4.754   1.874
70790SOL    HW214268  11.810   4.647   1.798
70791SOL     OW14269   7.542   1.878   9.976
70791SOL    HW114270   7.566   1.933  10.051
70791SOL    HW214271   7.485   1.934   9.923
70792SOL     OW14272   7.254  13.002   9.319
70792SOL    HW114273   7.171  12.979   9.361
70792SOL    HW214274   7.296  13.062   9.380
70793SOL     OW14275   5.707   5.038   0.871
70793SOL    HW114276   5.701   4.947   0.842
70793SOL    HW214277   5.692   5.090   0.792
70794SOL     OW14278   1.697   0.168   5.290
70794SOL    HW114279   1.782   0.135   5.261
70794SOL    HW214280   1.645   0.176   5.210
70795SOL     OW14281   0.052  14.127   6.598
70795SOL    HW114282  14.844  14.085   6.606
70795SOL    HW214283   0.033  14.221   6.603
70796SOL     OW14284  10.287   1.588   2.786
70796SOL    HW114285  10.217   1.650   2.806
70796SOL    HW214286  10.254   1.537   2.713
70797SOL     OW14287   4.971   9.973   2.284
70797SOL    HW114288   4.963  10.002   2.375
70797SOL    HW214289   4.881   9.970   2.252
70798SOL     OW14290   9.703   1.638  12.990
70798SOL    HW114291   9.646   1.593  13.052
70798SOL    HW214292   9.671   1.610  12.903
70799SOL     OW14293   5.629  10.346  12.881
70799SOL    HW114294   5.666  10.386  12.959
70799SOL    HW214295   5.701  10.343  12.818
70800SOL     OW14296   3.803  10.387   3.956
70800SOL    HW114297   3.783  10.426   3.871
70800SOL    HW214298   3.892  10.354   3.947
70801SOL     OW14299  11.500   2.387  13.377
70801SOL    HW114300  11.524   2.368  13.286
70801SOL    HW214301  11.425   2.445  13.369
70802SOL     OW14302   1.039   2.216   5.131
70802SOL    HW114303   1.043   2.122   5.113
70802SOL    HW214304   0.972   2.224   5.198
70803SOL     OW14305   6.590   0.770   6.498
70803SOL    HW114306   6.550   0.692   6.538
70803SOL    HW214307   6.664   0.736   6.448
70804SOL     OW14308   9.520   6.114   3.268
70804SOL    HW114309   9.497   6.101   3.360
70804SOL    HW214310   9.437   6.114   3.222
70805SOL     OW14311  12.148   2.884  13.019
70805SOL    HW114312  12.094   2.920  12.949
70805SOL    HW214313  12.101   2.805  13.047
70806SOL     OW14314   2.551   5.647  13.205
70806SOL    HW114315   2.477   5.645  13.266
70806SOL    HW214316   2.611   5.580  13.237
70807SOL     OW14317  14.631   0.667   0.552
70807SOL    HW114318  14.577   0.698   0.480
70807SOL    HW214319  14.703   0.729   0.557
70808SOL     OW14320  12.415   0.275   2.987
70808SOL    HW114321  12.483   0.342   2.995
70808SOL    HW214322  12.439   0.209   3.053
70809SOL     OW14323   5.197   2.887  13.530
70809SOL    HW114324   5.224   2.912  13.442
70809SOL    HW214325   5.185   2.792  13.525
70810SOL     OW14326   3.070   7.259  11.115
70810SOL    HW114327   3.153   7.215  11.096
70810SOL    HW214328   3.020   7.251  11.034
70811SOL     OW14329   2.399   4.441   7.222
70811SOL    HW114330   2.304   4.433   7.231
70811SOL    HW214331   2.425   4.362   7.175
70812SOL     OW14332  13.330   5.277   0.786
70812SOL    HW114333  13.421   5.279   0.755
70812SOL    HW214334  13.310   5.369   0.806
70813SOL     OW14335  13.076   3.757   8.329
70813SOL    HW114336  13.131   3.731   8.403
70813SOL    HW214337  13.112   3.710   8.254
70814SOL     OW14338  11.859   3.771   3.228
70814SOL    HW114339  11.833   3.854   3.268
70814SOL    HW214340  11.912   3.797   3.152
70815SOL     OW14341   4.038  11.204   1.018
70815SOL    HW114342   4.052  11.135   1.084
70815SOL    HW214343   4.007  11.157   0.941
70816SOL     OW14344   3.246   8.150  10.088
70816SOL    HW114345   3.315   8.176  10.149
70816SOL    HW214346   3.174   8.211  10.106
70817SOL     OW14347   2.380  10.468  14.154
70817SOL    HW114348   2.409  10.407  14.086
70817SOL    HW214349   2.298  10.430  14.186
70818SOL     OW14350  12.232  13.254   7.554
70818SOL    HW114351  12.198  13.165   7.544
70818SOL    HW214352  12.176  13.308   7.499
70819SOL     OW14353  12.505   1.466   7.137
70819SOL    HW114354  12.570   1.482   7.069
70819SOL    HW214355  12.477   1.553   7.165
70820SOL     OW14356  12.502  12.074   6.488
70820SOL    HW114357  12.567  12.144   6.484
70820SOL    HW214358  12.420  12.118   6.464
70821SOL     OW14359   5.888  13.071   4.130
70821SOL    HW114360   5.901  13.115   4.046
70821SOL    HW214361   5.825  13.125   4.176
70822SOL     OW14362  10.712   5.270  11.332
70822SOL    HW114363  10.709   5.270  11.428
70822SOL    HW214364  10.799   5.302  11.311
70823SOL     OW14365   2.566  14.718   8.879
70823SOL    HW114366   2.574  14.789   8.943
70823SOL    HW214367   2.599  14.641   8.924
70824SOL     OW14368  10.358   0.038   1.128
70824SOL    HW114369  10.304  14.866   1.190
70824SOL    HW214370  10.316   0.124   1.123
70825SOL     OW14371   0.303  12.276   4.957
70825SOL    HW114372   0.396  12.257   4.969
70825SOL    HW214373   0.279  12.328   5.034
70826SOL     OW14374   6.887  12.206  13.352
70826SOL    HW114375   6.858  12.142  13.287
70826SOL    HW214376   6.956  12.161  13.401
70827SOL     OW14377  12.624  13.656   3.788
70827SOL    HW114378  12.705  13.626   3.828
70827SOL    HW214379  12.609  13.743   3.826
70828SOL     OW14380   0.228  10.984   8.244
70828SOL    HW114381   0.188  10.948   8.323
70828SOL    HW214382   0.250  10.908   8.191
70829SOL     OW14383  10.173  14.697  11.104
70829SOL    HW114384  10.160  14.632  11.036
70829SOL    HW214385  10.196  14.647  11.182
70830SOL     OW14386   6.033   1.735  12.834
70830SOL    HW114387   6.046   1.695  12.748
70830SOL    HW214388   5.999   1.665  12.889
70831SOL     OW14389   8.714  13.523   4.722
70831SOL    HW114390   8.694  13.616   4.718
70831SOL    HW214391   8.774  13.508   4.648
70832SOL     OW14392   0.825   1.081   2.081
70832SOL    HW114393   0.842   1.013   2.147
70832SOL    HW214394   0.909   1.124   2.068
70833SOL     OW14395  14.720   0.506   3.158
70833SOL    HW114396  14.639   0.510   3.108
70833SOL    HW214397  14.770   0.582   3.130
70834SOL     OW14398  13.147   2.057   4.862
70834SOL    HW114399  13.166   2.025   4.950
70834SOL    HW214400  13.052   2.070   4.861
70835SOL     OW14401   8.832   7.784   5.310
70835SOL    HW114402   8.901   7.757   5.369
70835SOL    HW214403   8.784   7.852   5.357
70836SOL     OW14404   5.513   0.414   4.877
70836SOL    HW114405   5.548   0.472   4.810
70836SOL    HW214406   5.579   0.346   4.888
70837SOL     OW14407   5.583   6.053   7.073
70837SOL    HW114408   5.541   6.019   6.994
70837SOL    HW214409   5.560   5.991   7.142
70838SOL     OW14410  12.284   5.014   8.988
70838SOL    HW114411  12.267   5.100   8.949
70838SOL    HW214412  12.209   4.998   9.045
70839SOL     OW14413  12.587   2.656  13.673
70839SOL    HW114414  12.622   2.567  13.671
70839SOL    HW214415  12.633   2.702  13.603
70840SOL     OW14416   3.609   9.512  12.818
70840SOL    HW114417   3.516   9.508  12.839
70840SOL    HW214418   3.617   9.469  12.733
70841SOL     OW14419   0.832  14.786   5.621
70841SOL    HW114420   0.889  14.718   5.585
70841SOL    HW214421   0.743  14.753   5.604
70842SOL     OW14422   0.906   8.886   0.604
70842SOL    HW114423   0.999   8.873   0.621
70842SOL    HW214424   0.862   8.825   0.664
70843SOL     OW14425  11.667   3.475  13.104
70843SOL    HW114426  11.683   3.448  13.194
70843SOL    HW214427  11.612   3.553  13.112
70844SOL     OW14428  14.413  11.942   0.162
70844SOL    HW114429  14.405  12.024   0.209
70844SOL    HW214430  14.503  11.942   0.128
70845SOL     OW14431   0.178  11.253   9.694
70845SOL    HW114432   0.232  11.319   9.738
70845SOL    HW214433   0.111  11.303   9.648
70846SOL     OW14434   1.316   3.188   7.802
70846SOL    HW114435   1.364   3.146   7.731
70846SOL    HW214436   1.314   3.281   7.777
70847SOL     OW14437   6.827   4.981   0.391
70847SOL    HW114438   6.838   4.940   0.477
70847SOL    HW214439   6.914   5.014   0.369
70848SOL     OW14440   3.203   2.874   3.556
70848SOL    HW114441   3.116   2.896   3.589
70848SOL    HW214442   3.196   2.884   3.462
70849SOL     OW14443   8.418   4.182   8.027
70849SOL    HW114444   8.334   4.224   8.013
70849SOL    HW214445   8.478   4.226   7.966
70850SOL     OW14446   9.529   2.981   5.817
70850SOL    HW114447   9.491   3.062   5.851
70850SOL    HW214448   9.595   3.009   5.755
70851SOL     OW14449   5.781  12.973  11.636
70851SOL    HW114450   5.843  13.039  11.605
70851SOL    HW214451   5.706  13.022  11.668
70852SOL     OW14452   0.573  12.661   2.258
70852SOL    HW114453   0.639  12.730   2.266
70852SOL    HW214454   0.606  12.605   2.187
70853SOL     OW14455   7.005   0.013   6.489
70853SOL    HW114456   7.013  14.824   6.558
70853SOL    HW214457   7.093   0.019   6.451
70854SOL     OW14458  10.957  12.142  13.526
70854SOL    HW114459  10.977  12.060  13.481
70854SOL    HW214460  10.919  12.115  13.609
70855SOL     OW14461  14.037   2.029   1.267
70855SOL    HW114462  14.060   2.052   1.177
70855SOL    HW214463  14.002   2.110   1.304
70856SOL     OW14464   6.907   7.264   4.800
70856SOL    HW114465   6.890   7.170   4.808
70856SOL    HW214466   6.998   7.270   4.771
70857SOL     OW14467  12.994   8.449  13.701
70857SOL    HW114468  13.055   8.471  13.771
70857SOL    HW214469  12.921   8.406  13.745
70858SOL     OW14470   8.658   0.471   9.686
70858SOL    HW114471   8.671   0.555   9.731
70858SOL    HW214472   8.602   0.492   9.612
70859SOL     OW14473   1.918   0.852  10.043
70859SOL    HW114474   1.856   0.838   9.971
70859SOL    HW214475   1.864   0.878  10.117
70860SOL     OW14476   5.423   0.817   5.897
70860SOL    HW114477   5.362   0.757   5.941
70860SOL    HW214478   5.369   0.893   5.874
70861SOL     OW14479  14.792   8.646   3.115
70861SOL    HW114480  14.763   8.622   3.203
70861SOL    HW214481  14.826   8.565   3.078
70862SOL     OW14482  11.179   5.435   5.152
70862SOL    HW114483  11.126   5.513   5.167
70862SOL    HW214484  11.266   5.468   5.132
70863SOL     OW14485   2.246  14.252   0.527
70863SOL    HW114486   2.174  14.194   0.504
70863SOL    HW214487   2.284  14.213   0.606
70864SOL     OW14488  10.506   3.082   4.868
70864SOL    HW114489  10.580   3.032   4.833
70864SOL    HW214490  10.429   3.042   4.828
70865SOL     OW14491   6.579   3.909  10.047
70865SOL    HW114492   6.549   3.999  10.065
70865SOL    HW214493   6.534   3.884   9.966
70866SOL     OW14494   4.060   6.791   7.771
70866SOL    HW114495   3.983   6.785   7.716
70866SOL    HW214496   4.105   6.707   7.759
70867SOL     OW14497   7.581  11.087  13.231
70867SOL    HW114498   7.642  11.019  13.259
70867SOL    HW214499   7.571  11.144  13.307
70868SOL     OW14500   9.917   5.237  13.870
70868SOL    HW114501   9.969   5.228  13.790
70868SOL    HW214502   9.975   5.205  13.939
70869SOL     OW14503   6.072   9.651   0.992
70869SOL    HW114504   6.078   9.658   0.897
70869SOL    HW214505   5.983   9.680   1.013
70870SOL     OW14506  14.872   0.402  13.664
70870SOL    HW114507  14.849   0.325  13.716
70870SOL    HW214508  14.841   0.382  13.576
70871SOL     OW14509  12.868   6.142  14.741
70871SOL    HW114510  12.889   6.185  14.824
70871SOL    HW214511  12.857   6.050  14.764
70872SOL     OW14512   0.024  12.305  13.268
70872SOL    HW114513   0.101  12.337  13.315
70872SOL    HW214514  14.839  12.281  13.337
70873SOL     OW14515   0.689   0.315  10.378
70873SOL    HW114516   0.769   0.362  10.400
70873SOL    HW214517   0.688   0.240  10.438
70874SOL     OW14518   8.046   5.417   4.812
70874SOL    HW114519   8.015   5.501   4.779
70874SOL    HW214520   7.973   5.357   4.798
70875SOL     OW14521   5.711  13.347  11.194
70875SOL    HW114522   5.679  13.358  11.284
70875SOL    HW214523   5.802  13.379  11.198
70876SOL     OW14524  14.225  12.857  14.500
70876SOL    HW114525  14.241  12.943  14.461
70876SOL    HW214526  14.133  12.841  14.483
70877SOL     OW14527   4.080   6.807   2.075
70877SOL    HW114528   4.166   6.770   2.056
70877SOL    HW214529   4.078   6.815   2.171
70878SOL     OW14530   4.396   1.264  10.588
70878SOL    HW114531   4.321   1.322  10.574
70878SOL    HW214532   4.426   1.242  10.500
70879SOL     OW14533   0.157   0.466  14.630
70879SOL    HW114534   0.194   0.427  14.551
70879SOL    HW214535   0.227   0.523  14.663
70880SOL     OW14536   9.571  12.869   2.674
70880SOL    HW114537   9.592  12.907   2.759
70880SOL    HW214538   9.544  12.944   2.621
70881SOL     OW14539  14.097   0.905   8.305
70881SOL    HW114540  14.085   0.999   8.320
70881SOL    HW214541  14.017   0.877   8.260
70882SOL     OW14542   0.450   2.085  14.005
70882SOL    HW114543   0.465   2.102  13.912
70882SOL    HW214544   0.465   1.991  14.015
70883SOL     OW14545   2.693   0.605   7.474
70883SOL    HW114546   2.725   0.673   7.533
70883SOL    HW214547   2.608   0.580   7.511
70884SOL     OW14548   5.198   6.522   9.691
70884SOL    HW114549   5.212   6.595   9.751
70884SOL    HW214550   5.105   6.501   9.700
70885SOL     OW14551  14.823   2.251  12.278
70885SOL    HW114552  14.736   2.251  12.238
70885SOL    HW214553  14.862   2.334  12.250
70886SOL     OW14554   2.116   3.229   7.682
70886SOL    HW114555   2.072   3.233   7.597
70886SOL    HW214556   2.131   3.321   7.705
70887SOL     OW14557   9.978   7.146   8.664
70887SOL    HW114558  10.044   7.099   8.715
70887SOL    HW214559  10.000   7.125   8.573
70888SOL     OW14560  14.261  12.689   5.790
70888SOL    HW114561  14.262  12.631   5.714
70888SOL    HW214562  14.309  12.642   5.857
70889SOL     OW14563   9.649  11.524  12.770
70889SOL    HW114564   9.574  11.465  12.761
70889SOL    HW214565   9.613  11.611  12.750
70890SOL     OW14566   4.538   0.972  12.800
70890SOL    HW114567   4.558   0.959  12.707
70890SOL    HW214568   4.542   0.884  12.838
70891SOL     OW14569  14.826   6.649   2.885
70891SOL    HW114570  14.836   6.579   2.950
70891SOL    HW214571  14.835   6.605   2.801
70892SOL     OW14572   4.455  13.703   0.999
70892SOL    HW114573   4.436  13.641   1.070
70892SOL    HW214574   4.368  13.731   0.969
70893SOL     OW14575  10.055   4.719  11.933
70893SOL    HW114576   9.968   4.755  11.947
70893SOL    HW214577  10.109   4.795  11.911
70894SOL     OW14578   7.867  13.719   6.308
70894SOL    HW114579   7.879  13.806   6.347
70894SOL    HW214580   7.823  13.668   6.377
70895SOL     OW14581  10.932  13.576   9.973
70895SOL    HW114582  10.914  13.619   9.889
70895SOL    HW214583  10.996  13.507   9.952
70896SOL     OW14584   5.777   0.299  14.376
70896SOL    HW114585   5.694   0.298  14.423
70896SOL    HW214586   5.832   0.360  14.426
70897SOL     OW14587   8.340   2.360  14.783
70897SOL    HW114588   8.255   2.316  14.794
70897SOL    HW214589   8.363   2.343  14.691
70898SOL     OW14590   3.619   9.588   7.066
70898SOL    HW114591   3.649   9.676   7.040
70898SOL    HW214592   3.638   9.583   7.160
70899SOL     OW14593   9.978   1.469  10.205
70899SOL    HW114594  10.053   1.521  10.174
70899SOL    HW214595  10.005   1.378  10.195
70900SOL     OW14596   6.636  13.351   8.897
70900SOL    HW114597   6.571  13.416   8.870
70900SOL    HW214598   6.676  13.321   8.815
70901SOL     OW14599   3.936  13.773   6.552
70901SOL    HW114600   3.996  13.777   6.477
70901SOL    HW214601   3.983  13.817   6.623
70902SOL     OW14602   2.096   9.032  12.719
70902SOL    HW114603   2.134   9.119  12.730
70902SOL    HW214604   2.017   9.033  12.772
70903SOL     OW14605   3.005   0.569  12.732
70903SOL    HW114606   2.924   0.613  12.761
70903SOL    HW214607   2.993   0.555  12.639
70904SOL     OW14608   6.216  11.482   8.623
70904SOL    HW114609   6.162  11.504   8.699
70904SOL    HW214610   6.306  11.494   8.653
70905SOL     OW14611  10.548  10.424   5.393
70905SOL    HW114612  10.611  10.491   5.420
70905SOL    HW214613  10.478  10.429   5.459
70906SOL     OW14614  12.847   5.695  14.417
70906SOL    HW114615  12.882   5.651  14.339
70906SOL    HW214616  12.856   5.789  14.398
70907SOL     OW14617   0.113   8.771  12.638
70907SOL    HW114618   0.206   8.759  12.654
70907SOL    HW214619   0.095   8.718  12.560
70908SOL     OW14620   4.825  11.082  10.086
70908SOL    HW114621   4.908  11.037  10.105
70908SOL    HW214622   4.758  11.016  10.102
70909SOL     OW14623   3.101  10.088   0.765
70909SOL    HW114624   3.067  10.078   0.675
70909SOL    HW214625   3.025  10.117   0.815
70910SOL     OW14626  11.073  10.834   3.001
70910SOL    HW114627  11.018  10.806   3.074
70910SOL    HW214628  11.108  10.752   2.965
70911SOL     OW14629   8.431   6.758   3.790
70911SOL    HW114630   8.473   6.842   3.807
70911SOL    HW214631   8.339   6.779   3.773
70912SOL     OW14632   1.634   5.049   4.922
70912SOL    HW114633   1.708   5.007   4.965
70912SOL    HW214634   1.672   5.123   4.875
70913SOL     OW14635  10.368   6.880  13.546
70913SOL    HW114636  10.306   6.820  13.587
70913SOL    HW214637  10.349   6.965  13.585
70914SOL     OW14638  14.336  11.900   4.399
70914SOL    HW114639  14.379  11.857   4.326
70914SOL    HW214640  14.399  11.896   4.471
70915SOL     OW14641   0.180   5.634   8.141
70915SOL    HW114642   0.181   5.538   8.144
70915SOL    HW214643   0.205   5.655   8.051
70916SOL     OW14644  14.656   9.076  10.604
70916SOL    HW114645  14.633   9.069  10.511
70916SOL    HW214646  14.585   9.127  10.643
70917SOL     OW14647   3.368  10.382  14.687
70917SOL    HW114648   3.366  10.341  14.600
70917SOL    HW214649   3.342  10.473  14.671
70918SOL     OW14650   0.137   8.599  12.403
70918SOL    HW114651   0.229   8.598  12.427
70918SOL    HW214652   0.128   8.529  12.339
70919SOL     OW14653  12.164  14.420   3.822
70919SOL    HW114654  12.087  14.460   3.863
70919SOL    HW214655  12.128  14.354   3.762
70920SOL     OW14656   0.655   6.456   7.700
70920SOL    HW114657   0.729   6.503   7.739
70920SOL    HW214658   0.592   6.446   7.772
70921SOL     OW14659  11.347   0.612   4.493
70921SOL    HW114660  11.294   0.689   4.473
70921SOL    HW214661  11.391   0.633   4.575
70922SOL     OW14662   4.906  13.089   6.185
70922SOL    HW114663   4.943  13.054   6.104
70922SOL    HW214664   4.898  13.183   6.170
70923SOL     OW14665   6.937   7.454  11.936
70923SOL    HW114666   6.878   7.483  11.867
70923SOL    HW214667   7.024   7.484  11.909
70924SOL     OW14668  14.082   7.049   9.910
70924SOL    HW114669  14.112   6.966   9.948
70924SOL    HW214670  14.144   7.067   9.839
70925SOL     OW14671  11.437   4.824  10.761
70925SOL    HW114672  11.342   4.826  10.777
70925SOL    HW214673  11.447   4.769  10.684
70926SOL     OW14674   1.848   5.535   3.871
70926SOL    HW114675   1.847   5.617   3.822
70926SOL    HW214676   1.918   5.547   3.935
70927SOL     OW14677   7.750   7.936   9.067
70927SOL    HW114678   7.833   7.912   9.025
70927SOL    HW214679   7.702   7.854   9.076
70928SOL     OW14680   9.021   1.825  12.961
70928SOL    HW114681   8.950   1.779  13.005
70928SOL    HW214682   8.996   1.825  12.868
70929SOL     OW14683   2.715  13.754   8.295
70929SOL    HW114684   2.728  13.659   8.295
70929SOL    HW214685   2.782  13.788   8.235
70930SOL     OW14686   8.455   2.718   2.589
70930SOL    HW114687   8.509   2.732   2.667
70930SOL    HW214688   8.488   2.781   2.526
70931SOL     OW14689   7.982  11.052   9.617
70931SOL    HW114690   7.905  10.996   9.612
70931SOL    HW214691   8.044  11.013   9.556
70932SOL     OW14692   2.879   7.843   4.038
70932SOL    HW114693   2.969   7.823   4.014
70932SOL    HW214694   2.856   7.919   3.985
70933SOL     OW14695   3.921   7.584   7.557
70933SOL    HW114696   3.948   7.504   7.603
70933SOL    HW214697   3.872   7.553   7.481
70934SOL     OW14698  13.445  10.453   2.076
70934SOL    HW114699  13.400  10.376   2.111
70934SOL    HW214700  13.443  10.440   1.981
70935SOL     OW14701  14.101  12.360   5.215
70935SOL    HW114702  14.185  12.322   5.239
70935SOL    HW214703  14.039  12.320   5.277
70936SOL     OW14704   0.925   6.484  14.422
70936SOL    HW114705   0.999   6.518  14.373
70936SOL    HW214706   0.959   6.468  14.510
70937SOL     OW14707   4.224   4.844   8.325
70937SOL    HW114708   4.272   4.837   8.242
70937SOL    HW214709   4.291   4.837   8.392
70938SOL     OW14710  14.053   7.708   4.194
70938SOL    HW114711  14.049   7.762   4.273
70938SOL    HW214712  14.008   7.760   4.128
70939SOL     OW14713   1.332   8.425   4.297
70939SOL    HW114714   1.373   8.344   4.328
70939SOL    HW214715   1.376   8.495   4.345
70940SOL     OW14716   0.112   3.040   5.846
70940SOL    HW114717   0.154   2.986   5.913
70940SOL    HW214718   0.070   2.978   5.787
70941SOL     OW14719   2.908   9.668  13.684
70941SOL    HW114720   2.991   9.708  13.656
70941SOL    HW214721   2.935   9.590  13.733
70942SOL     OW14722   2.815   0.976  12.166
70942SOL    HW114723   2.865   0.985  12.085
70942SOL    HW214724   2.799   0.882  12.174
70943SOL     OW14725   3.913   5.631   3.591
70943SOL    HW114726   3.972   5.706   3.584
70943SOL    HW214727   3.826   5.669   3.605
70944SOL     OW14728   4.639  14.047   4.314
70944SOL    HW114729   4.649  14.025   4.221
70944SOL    HW214730   4.620  14.141   4.314
70945SOL     OW14731   4.314   6.133  13.858
70945SOL    HW114732   4.382   6.128  13.790
70945SOL    HW214733   4.340   6.067  13.922
70946SOL     OW14734  10.592   7.575  12.060
70946SOL    HW114735  10.597   7.485  12.028
70946SOL    HW214736  10.593   7.629  11.981
70947SOL     OW14737   3.581   4.226   0.691
70947SOL    HW114738   3.540   4.307   0.659
70947SOL    HW214739   3.541   4.157   0.638
70948SOL     OW14740   8.291   2.987   9.723
70948SOL    HW114741   8.226   3.036   9.673
70948SOL    HW214742   8.261   2.896   9.719
70949SOL     OW14743   9.916   3.729   2.662
70949SOL    HW114744   9.900   3.753   2.571
70949SOL    HW214745   9.898   3.635   2.665
70950SOL     OW14746   6.167  14.022   8.958
70950SOL    HW114747   6.186  14.022   9.052
70950SOL    HW214748   6.073  14.005   8.953
70951SOL     OW14749   7.414  13.100   3.616
70951SOL    HW114750   7.336  13.128   3.662
70951SOL    HW214751   7.385  13.028   3.560
70952SOL     OW14752   6.696  13.520   7.142
70952SOL    HW114753   6.735  13.445   7.099
70952SOL    HW214754   6.678  13.490   7.231
70953SOL     OW14755   7.358  10.489   3.761
70953SOL    HW114756   7.302  10.414   3.778
70953SOL    HW214757   7.414  10.462   3.688
70954SOL     OW14758   0.730   1.706   8.253
70954SOL    HW114759   0.642   1.722   8.288
70954SOL    HW214760   0.767   1.641   8.313
70955SOL     OW14761  13.786   3.178   9.095
70955SOL    HW114762  13.784   3.205   9.003
70955SOL    HW214763  13.826   3.091   9.094
70956SOL     OW14764   5.121   8.983  10.509
70956SOL    HW114765   5.099   9.008  10.599
70956SOL    HW214766   5.217   8.974  10.510
70957SOL     OW14767   5.781   9.241   0.955
70957SOL    HW114768   5.779   9.337   0.950
70957SOL    HW214769   5.868   9.221   0.989
70958SOL     OW14770  14.127  10.503   0.641
70958SOL    HW114771  14.121  10.408   0.655
70958SOL    HW214772  14.060  10.520   0.574
70959SOL     OW14773   8.999   3.936  13.971
70959SOL    HW114774   9.076   3.992  13.960
70959SOL    HW214775   8.937   3.991  14.021
70960SOL     OW14776  14.355   4.295  12.544
70960SOL    HW114777  14.288   4.343  12.495
70960SOL    HW214778  14.307   4.223  12.585
70961SOL     OW14779  11.418  12.179   9.234
70961SOL    HW114780  11.431  12.167   9.140
70961SOL    HW214781  11.430  12.272   9.249
70962SOL     OW14782   4.875   4.793   8.130
70962SOL    HW114783   4.931   4.743   8.189
70962SOL    HW214784   4.803   4.824   8.185
70963SOL     OW14785   2.194   1.774   4.735
70963SOL    HW114786   2.118   1.820   4.769
70963SOL    HW214787   2.260   1.843   4.723
70964SOL     OW14788  11.370   7.022  10.421
70964SOL    HW114789  11.276   7.031  10.433
70964SOL    HW214790  11.388   6.930  10.440
70965SOL     OW14791   1.956  10.465   2.700
70965SOL    HW114792   1.993  10.525   2.635
70965SOL    HW214793   1.862  10.469   2.684
70966SOL     OW14794   7.098   2.859   4.638
70966SOL    HW114795   7.137   2.843   4.552
70966SOL    HW214796   7.060   2.775   4.664
70967SOL     OW14797   5.446   2.324   6.205
70967SOL    HW114798   5.537   2.315   6.177
70967SOL    HW214799   5.409   2.236   6.197
70968SOL     OW14800  11.089  10.230   8.486
70968SOL    HW114801  11.072  10.262   8.575
70968SOL    HW214802  11.070  10.304   8.429
70969SOL     OW14803   1.629   7.425   8.239
70969SOL    HW114804   1.586   7.379   8.312
70969SOL    HW214805   1.561   7.482   8.204
70970SOL     OW14806   1.683  12.988   7.717
70970SOL    HW114807   1.638  12.909   7.746
70970SOL    HW214808   1.634  13.060   7.758
70971SOL     OW14809   6.686  13.513   2.835
70971SOL    HW114810   6.669  13.563   2.914
70971SOL    HW214811   6.632  13.554   2.767
70972SOL     OW14812   0.472   8.753  10.126
70972SOL    HW114813   0.484   8.668  10.168
70972SOL    HW214814   0.486   8.737  10.033
70973SOL     OW14815  13.667   6.702  12.079
70973SOL    HW114816  13.595   6.662  12.031
70973SOL    HW214817  13.625   6.768  12.135
70974SOL     OW14818   2.128  12.367   3.483
70974SOL    HW114819   2.047  12.417   3.487
70974SOL    HW214820   2.113  12.292   3.541
70975SOL     OW14821   1.246  10.657   8.358
70975SOL    HW114822   1.164  10.700   8.381
70975SOL    HW214823   1.296  10.655   8.440
70976SOL     OW14824   3.181   2.420   6.115
70976SOL    HW114825   3.087   2.438   6.120
70976SOL    HW214826   3.217   2.457   6.196
70977SOL     OW14827   7.864  10.209   2.080
70977SOL    HW114828   7.871  10.303   2.061
70977SOL    HW214829   7.922  10.167   2.016
70978SOL     OW14830   0.199   0.587  13.671
70978SOL    HW114831   0.122   0.533  13.688
70978SOL    HW214832   0.203   0.594  13.575
70979SOL     OW14833   8.568  12.531  12.543
70979SOL    HW114834   8.488  12.497  12.585
70979SOL    HW214835   8.637  12.512  12.606
70980SOL     OW14836  13.793  14.709   8.184
70980SOL    HW114837  13.848  14.637   8.214
70980SOL    HW214838  13.740  14.671   8.114
70981SOL     OW14839   5.831   7.370  14.288
70981SOL    HW114840   5.806   7.462  14.283
70981SOL    HW214841   5.876   7.352  14.206
70982SOL     OW14842  11.146  12.968   0.515
70982SOL    HW114843  11.222  12.959   0.458
70982SOL    HW214844  11.177  12.936   0.600
70983SOL     OW14845  13.623   3.041   6.501
70983SOL    HW114846  13.653   3.080   6.583
70983SOL    HW214847  13.544   2.992   6.525
70984SOL     OW14848   6.762  11.057   8.254
70984SOL    HW114849   6.819  11.134   8.251
70984SOL    HW214850   6.681  11.086   8.213
70985SOL     OW14851   9.751   6.288   8.515
70985SOL    HW114852   9.689   6.262   8.446
70985SOL    HW214853   9.732   6.381   8.530
70986SOL     OW14854   5.927   4.829   7.396
70986SOL    HW114855   5.970   4.872   7.322
70986SOL    HW214856   5.939   4.735   7.379
70987SOL     OW14857  13.072   4.675   3.743
70987SOL    HW114858  13.133   4.605   3.721
70987SOL    HW214859  13.022   4.690   3.662
70988SOL     OW14860  13.775   1.107   2.905
70988SOL    HW114861  13.853   1.162   2.897
70988SOL    HW214862  13.710   1.163   2.948
70989SOL     OW14863   9.686  14.837   5.015
70989SOL    HW114864   9.733   0.041   5.033
70989SOL    HW214865   9.615  14.864   4.956
70990SOL     OW14866   5.062   8.900   5.999
70990SOL    HW114867   5.117   8.823   6.016
70990SOL    HW214868   5.033   8.928   6.086
70991SOL     OW14869  11.525   9.360  12.854
70991SOL    HW114870  11.496   9.448  12.876
70991SOL    HW214871  11.499   9.307  12.930
70992SOL     OW14872   9.299  10.651   7.557
70992SOL    HW114873   9.369  10.657   7.492
70992SOL    HW214874   9.259  10.738   7.556
70993SOL     OW14875   7.906   8.832   1.755
70993SOL    HW114876   7.988   8.782   1.764
70993SOL    HW214877   7.921   8.888   1.679
70994SOL     OW14878  11.151  14.391   2.446
70994SOL    HW114879  11.244  14.416   2.449
70994SOL    HW214880  11.104  14.474   2.456
70995SOL     OW14881  13.083  11.406  12.201
70995SOL    HW114882  13.005  11.427  12.149
70995SOL    HW214883  13.145  11.371  12.138
70996SOL     OW14884   0.271  10.750  12.417
70996SOL    HW114885   0.183  10.723  12.394
70996SOL    HW214886   0.311  10.673  12.457
70997SOL     OW14887  12.909  12.324  13.996
70997SOL    HW114888  12.872  12.330  14.084
70997SOL    HW214889  12.860  12.254  13.953
70998SOL     OW14890  12.480   5.049  12.614
70998SOL    HW114891  12.534   5.067  12.691
70998SOL    HW214892  12.514   5.107  12.547
70999SOL     OW14893   6.431   9.205   7.570
70999SOL    HW114894   6.401   9.201   7.661
70999SOL    HW214895   6.424   9.298   7.547
71000SOL     OW14896   7.029   3.405   0.698
71000SOL    HW114897   7.003   3.350   0.624
71000SOL    HW214898   7.103   3.456   0.664
71001SOL     OW14899   1.945   2.744  14.534
71001SOL    HW114900   2.031   2.774  14.564
71001SOL    HW214901   1.962   2.706  14.448
71002SOL     OW14902   1.805   7.944   5.769
71002SOL    HW114903   1.842   7.997   5.698
71002SOL    HW214904   1.740   8.001   5.811
71003SOL     OW14905   9.277   3.040   7.881
71003SOL    HW114906   9.220   3.075   7.949
71003SOL    HW214907   9.218   2.991   7.823
71004SOL     OW14908   7.699   9.750  12.430
71004SOL    HW114909   7.680   9.664  12.392
71004SOL    HW214910   7.761   9.790  12.369
71005SOL     OW14911  10.605   3.225  10.378
71005SOL    HW114912  10.697   3.224  10.406
71005SOL    HW214913  10.599   3.155  10.312
71006SOL     OW14914   9.641   8.509   1.065
71006SOL    HW114915   9.569   8.473   1.117
71006SOL    HW214916   9.626   8.604   1.065
71007SOL     OW14917  13.880   1.898  11.092
71007SOL    HW114918  13.958   1.848  11.115
71007SOL    HW214919  13.842   1.924  11.177
71008SOL     OW14920  12.594  12.452   3.376
71008SOL    HW114921  12.579  12.395   3.300
71008SOL    HW214922  12.622  12.392   3.445
71009SOL     OW14923   8.871   9.638  10.433
71009SOL    HW114924   8.962   9.664  10.423
71009SOL    HW214925   8.827   9.715  10.468
71010SOL     OW14926   6.668   3.748   8.923
71010SOL    HW114927   6.748   3.754   8.870
71010SOL    HW214928   6.647   3.839   8.945
71011SOL     OW14929   7.074   7.767  13.283
71011SOL    HW114930   7.168   7.753  13.271
71011SOL    HW214931   7.042   7.795  13.197
71012SOL     OW14932   7.267  14.088   5.316
71012SOL    HW114933   7.211  14.117   5.387
71012SOL    HW214934   7.356  14.113   5.343
71013SOL     OW14935   7.122   2.465   8.962
71013SOL    HW114936   7.184   2.518   8.910
71013SOL    HW214937   7.048   2.523   8.977
71014SOL     OW14938  10.774   7.488   3.161
71014SOL    HW114939  10.812   7.493   3.249
71014SOL    HW214940  10.838   7.438   3.110
71015SOL     OW14941   6.142  11.914   7.414
71015SOL    HW114942   6.180  11.997   7.441
71015SOL    HW214943   6.107  11.875   7.494
71016SOL     OW14944   4.355   6.071   1.621
71016SOL    HW114945   4.350   5.983   1.657
71016SOL    HW214946   4.449   6.088   1.612
71017SOL     OW14947   3.821   5.318  13.656
71017SOL    HW114948   3.750   5.271  13.613
71017SOL    HW214949   3.780   5.356  13.735
71018SOL     OW14950   3.353   8.737   8.771
71018SOL    HW114951   3.407   8.766   8.698
71018SOL    HW214952   3.310   8.657   8.739
71019SOL     OW14953   2.601   4.173   1.795
71019SOL    HW114954   2.645   4.194   1.713
71019SOL    HW214955   2.602   4.255   1.845
71020SOL     OW14956   6.931  14.029  10.700
71020SOL    HW114957   6.977  14.109  10.728
71020SOL    HW214958   6.956  13.964  10.765
71021SOL     OW14959   0.330   4.591   2.607
71021SOL    HW114960   0.241   4.607   2.576
71021SOL    HW214961   0.380   4.666   2.577
71022SOL     OW14962   0.427  13.314   6.297
71022SOL    HW114963   0.368  13.331   6.371
71022SOL    HW214964   0.464  13.228   6.316
71023SOL     OW14965  11.998  12.193  10.662
71023SOL    HW114966  11.934  12.174  10.730
71023SOL    HW214967  12.002  12.288  10.657
71024SOL     OW14968  10.345  11.053   0.132
71024SOL    HW114969  10.284  10.979   0.131
71024SOL    HW214970  10.329  11.098   0.049
71025SOL     OW14971   7.123   2.113  14.084
71025SOL    HW114972   7.169   2.067  14.154
71025SOL    HW214973   7.139   2.205  14.101
71026SOL     OW14974  13.923   2.669  10.585
71026SOL    HW114975  13.887   2.597  10.636
71026SOL    HW214976  14.000   2.697  10.634
71027SOL     OW14977   3.619   8.015   1.085
71027SOL    HW114978   3.561   7.972   1.149
71027SOL    HW214979   3.573   8.095   1.060
71028SOL     OW14980   2.611   1.409   6.978
71028SOL    HW114981   2.630   1.473   6.910
71028SOL    HW214982   2.530   1.440   7.019
71029SOL     OW14983  12.073  12.794   1.802
71029SOL    HW114984  12.133  12.782   1.876
71029SOL    HW214985  11.996  12.835   1.841
71030SOL     OW14986  11.818   8.578  12.179
71030SOL    HW114987  11.897   8.544  12.221
71030SOL    HW214988  11.842   8.666  12.148
71031SOL     OW14989  14.026   8.397   6.162
71031SOL    HW114990  13.945   8.428   6.203
71031SOL    HW214991  13.999   8.325   6.106
71032SOL     OW14992   2.331   4.877  11.956
71032SOL    HW114993   2.244   4.912  11.973
71032SOL    HW214994   2.348   4.818  12.029
71033SOL     OW14995  12.635   8.949   9.057
71033SOL    HW114996  12.613   8.874   9.112
71033SOL    HW214997  12.730   8.960   9.067
71034SOL     OW14998  12.234  10.671   8.694
71034SOL    HW114999  12.301  10.625   8.746
71034SOL    HW215000  12.207  10.745   8.749
71035SOL     OW15001  12.862   7.242   9.370
71035SOL    HW115002  12.872   7.185   9.446
71035SOL    HW215003  12.777   7.284   9.383
71036SOL     OW15004   6.738   0.265  10.110
71036SOL    HW115005   6.830   0.266  10.136
71036SOL    HW215006   6.690   0.280  10.192
71037SOL     OW15007  11.084   1.949   2.703
71037SOL    HW115008  11.118   2.030   2.741
71037SOL    HW215009  11.158   1.889   2.705
71038SOL     OW15010  11.031  13.879  11.148
71038SOL    HW115011  10.964  13.834  11.200
71038SOL    HW215012  11.087  13.808  11.117
71039SOL     OW15013  13.972  11.425   6.857
71039SOL    HW115014  14.049  11.451   6.907
71039SOL    HW215015  13.993  11.447   6.767
71040SOL     OW15016   7.822  10.821   6.650
71040SOL    HW115017   7.793  10.742   6.605
71040SOL    HW215018   7.839  10.884   6.579
71041SOL     OW15019  13.038  14.860  13.916
71041SOL    HW115020  13.124  14.819  13.918
71041SOL    HW215021  12.993  14.826  13.993
71042SOL     OW15022  14.576   9.251  13.752
71042SOL    HW115023  14.644   9.249  13.685
71042SOL    HW215024  14.494   9.234  13.705
71043SOL     OW15025   5.537   2.739  10.885
71043SOL    HW115026   5.515   2.656  10.928
71043SOL    HW215027   5.544   2.802  10.956
71044SOL     OW15028  12.140  11.648  13.572
71044SOL    HW115029  12.164  11.703  13.498
71044SOL    HW215030  12.062  11.601  13.542
71045SOL     OW15031   8.900  12.729  13.112
71045SOL    HW115032   8.991  12.758  13.118
71045SOL    HW215033   8.887  12.673  13.189
71046SOL     OW15034  13.400   3.021   8.610
71046SOL    HW115035  13.457   2.950   8.582
71046SOL    HW215036  13.431   3.043   8.699
71047SOL     OW15037   2.889   8.617   0.767
71047SOL    HW115038   2.895   8.587   0.858
71047SOL    HW215039   2.813   8.571   0.731
71048SOL     OW15040  11.830   5.023   9.906
71048SOL    HW115041  11.898   5.085   9.879
71048SOL    HW215042  11.838   5.019  10.001
71049SOL     OW15043  10.343   6.323   0.992
71049SOL    HW115044  10.285   6.343   1.066
71049SOL    HW215045  10.427   6.363   1.016
71050SOL     OW15046   7.371   2.942   5.645
71050SOL    HW115047   7.368   2.961   5.738
71050SOL    HW215048   7.394   2.849   5.639
71051SOL     OW15049   2.147   1.098   4.912
71051SOL    HW115050   2.150   1.037   4.985
71051SOL    HW215051   2.226   1.080   4.861
71052SOL     OW15052   3.196   3.977   8.654
71052SOL    HW115053   3.114   3.928   8.659
71052SOL    HW215054   3.220   3.974   8.561
71053SOL     OW15055  10.065   6.238   3.168
71053SOL    HW115056  10.020   6.157   3.192
71053SOL    HW215057  10.065   6.238   3.072
71054SOL     OW15058   0.216   4.559  10.107
71054SOL    HW115059   0.153   4.547  10.036
71054SOL    HW215060   0.218   4.474  10.151
71055SOL     OW15061  13.893   9.331   4.523
71055SOL    HW115062  13.918   9.274   4.449
71055SOL    HW215063  13.977   9.357   4.562
71056SOL     OW15064  11.581  10.028   3.067
71056SOL    HW115065  11.565   9.995   3.155
71056SOL    HW215066  11.670  10.000   3.046
71057SOL     OW15067   9.951  12.857   6.068
71057SOL    HW115068   9.902  12.877   6.147
71057SOL    HW215069  10.000  12.937   6.049
71058SOL     OW15070   9.515  10.639   6.479
71058SOL    HW115071   9.450  10.576   6.512
71058SOL    HW215072   9.462  10.708   6.439
71059SOL     OW15073   2.104  12.327   7.246
71059SOL    HW115074   2.190  12.358   7.273
71059SOL    HW215075   2.119  12.285   7.161
71060SOL     OW15076   5.606   1.526   3.608
71060SOL    HW115077   5.575   1.446   3.652
71060SOL    HW215078   5.574   1.518   3.518
71061SOL     OW15079   2.513   7.123   7.047
71061SOL    HW115080   2.600   7.085   7.033
71061SOL    HW215081   2.474   7.069   7.115
71062SOL     OW15082  13.249   0.898   7.593
71062SOL    HW115083  13.155   0.880   7.587
71062SOL    HW215084  13.291   0.820   7.557
71063SOL     OW15085  12.280  14.198  12.248
71063SOL    HW115086  12.301  14.125  12.306
71063SOL    HW215087  12.321  14.175  12.164
71064SOL     OW15088  10.944   1.242  12.268
71064SOL    HW115089  11.000   1.213  12.197
71064SOL    HW215090  10.992   1.315  12.308
71065SOL     OW15091   8.676   0.607  11.683
71065SOL    HW115092   8.753   0.580  11.633
71065SOL    HW215093   8.675   0.703  11.675
71066SOL     OW15094   5.486  12.583   3.446
71066SOL    HW115095   5.479  12.518   3.376
71066SOL    HW215096   5.422  12.555   3.512
71067SOL     OW15097  11.246   1.625   1.905
71067SOL    HW115098  11.185   1.552   1.912
71067SOL    HW215099  11.279   1.620   1.815
71068SOL     OW15100   7.772   4.361   5.931
71068SOL    HW115101   7.809   4.437   5.886
71068SOL    HW215102   7.677   4.373   5.924
71069SOL     OW15103  12.544   9.005  12.649
71069SOL    HW115104  12.556   8.970  12.561
71069SOL    HW215105  12.513   8.930  12.700
71070SOL     OW15106  13.912  14.032  13.326
71070SOL    HW115107  13.861  14.111  13.340
71070SOL    HW215108  13.921  13.993  13.413
71071SOL     OW15109   7.584   1.068  11.053
71071SOL    HW115110   7.627   1.122  11.120
71071SOL    HW215111   7.630   0.985  11.056
71072SOL     OW15112   7.059   9.507   6.835
71072SOL    HW115113   6.971   9.542   6.851
71072SOL    HW215114   7.046   9.413   6.828
71073SOL     OW15115  14.121  12.791   3.571
71073SOL    HW115116  14.215  12.776   3.571
71073SOL    HW215117  14.107  12.857   3.639
71074SOL     OW15118   9.677   2.347   1.626
71074SOL    HW115119   9.707   2.394   1.548
71074SOL    HW215120   9.663   2.416   1.692
71075SOL     OW15121  11.766  10.230   7.670
71075SOL    HW115122  11.675  10.238   7.642
71075SOL    HW215123  11.799  10.320   7.671
71076SOL     OW15124   1.919   1.545  11.803
71076SOL    HW115125   1.861   1.538  11.879
71076SOL    HW215126   1.960   1.459  11.795
71077SOL     OW15127   9.521   6.696   2.671
71077SOL    HW115128   9.574   6.766   2.634
71077SOL    HW215129   9.562   6.676   2.755
71078SOL     OW15130   7.975   2.507   6.997
71078SOL    HW115131   8.032   2.468   6.931
71078SOL    HW215132   7.920   2.568   6.949
71079SOL     OW15133   3.677  13.533  12.109
71079SOL    HW115134   3.749  13.539  12.172
71079SOL    HW215135   3.599  13.517  12.162
71080SOL     OW15136   5.379   8.070   1.198
71080SOL    HW115137   5.307   8.019   1.163
71080SOL    HW215138   5.439   8.005   1.236
71081SOL     OW15139   6.649  12.199   9.418
71081SOL    HW115140   6.643  12.129   9.354
71081SOL    HW215141   6.560  12.209   9.452
71082SOL     OW15142   0.861  11.767   8.993
71082SOL    HW115143   0.892  11.698   9.051
71082SOL    HW215144   0.794  11.725   8.939
71083SOL     OW15145   0.934  10.816  10.528
71083SOL    HW115146   0.874  10.889  10.510
71083SOL    HW215147   0.881  10.753  10.576
71084SOL     OW15148  10.867   0.496  14.847
71084SOL    HW115149  10.901   0.485   0.058
71084SOL    HW215150  10.855   0.591  14.838
71085SOL     OW15151  14.613  10.541  13.830
71085SOL    HW115152  14.621  10.637  13.835
71085SOL    HW215153  14.518  10.525  13.829
71086SOL     OW15154   9.736   2.652   6.637
71086SOL    HW115155   9.676   2.717   6.601
71086SOL    HW215156   9.682   2.573   6.648
71087SOL     OW15157  13.201  11.147   9.200
71087SOL    HW115158  13.234  11.078   9.258
71087SOL    HW215159  13.249  11.136   9.118
71088SOL     OW15160  14.244   5.484   8.258
71088SOL    HW115161  14.306   5.542   8.214
71088SOL    HW215162  14.191   5.541   8.313
71089SOL     OW15163  11.529   1.952   8.266
71089SOL    HW115164  11.455   1.893   8.278
71089SOL    HW215165  11.534   2.003   8.346
71090SOL     OW15166   9.735   6.056  10.375
71090SOL    HW115167   9.815   6.012  10.344
71090SOL    HW215168   9.760   6.092  10.460
71091SOL     OW15169   5.169   9.900   1.327
71091SOL    HW115170   5.186   9.810   1.354
71091SOL    HW215171   5.136   9.943   1.405
71092SOL     OW15172   7.488  10.001  12.724
71092SOL    HW115173   7.576   9.962  12.722
71092SOL    HW215174   7.467  10.009  12.817
71093SOL     OW15175   7.144   3.996  11.723
71093SOL    HW115176   7.152   4.052  11.801
71093SOL    HW215177   7.050   3.993  11.706
71094SOL     OW15178   3.668  13.929  13.809
71094SOL    HW115179   3.605  13.999  13.829
71094SOL    HW215180   3.641  13.898  13.722
71095SOL     OW15181   7.656  10.989   9.580
71095SOL    HW115182   7.667  11.074   9.537
71095SOL    HW215183   7.626  11.010   9.668
71096SOL     OW15184   8.983   9.407   3.459
71096SOL    HW115185   9.039   9.476   3.494
71096SOL    HW215186   8.943   9.446   3.381
71097SOL     OW15187  10.852  14.598  10.185
71097SOL    HW115188  10.803  14.653  10.246
71097SOL    HW215189  10.873  14.657  10.112
71098SOL     OW15190   3.934  11.069   0.822
71098SOL    HW115191   3.889  11.111   0.748
71098SOL    HW215192   3.978  10.993   0.784
71099SOL     OW15193   2.576  14.815  13.353
71099SOL    HW115194   2.651  14.761  13.377
71099SOL    HW215195   2.614   0.011  13.304
71100SOL     OW15196   2.142   5.874  12.840
71100SOL    HW115197   2.137   5.960  12.882
71100SOL    HW215198   2.196   5.888  12.762
71101SOL     OW15199   4.818  10.832   8.584
71101SOL    HW115200   4.755  10.903   8.598
71101SOL    HW215201   4.865  10.856   8.504
71102SOL     OW15202   2.582   3.007   0.710
71102SOL    HW115203   2.520   2.942   0.676
71102SOL    HW215204   2.640   2.956   0.767
71103SOL     OW15205   8.755   0.223   7.604
71103SOL    HW115206   8.751   0.319   7.611
71103SOL    HW215207   8.663   0.196   7.596
71104SOL     OW15208  13.653   6.424  11.863
71104SOL    HW115209  13.718   6.448  11.797
71104SOL    HW215210  13.588   6.494  11.860
71105SOL     OW15211   3.721  10.227  12.117
71105SOL    HW115212   3.776  10.281  12.173
71105SOL    HW215213   3.632  10.252  12.139
71106SOL     OW15214   3.062   1.270   0.440
71106SOL    HW115215   2.988   1.211   0.454
71106SOL    HW215216   3.118   1.224   0.377
71107SOL     OW15217  10.352  10.521  13.766
71107SOL    HW115218  10.260  10.548  13.759
71107SOL    HW215219  10.348  10.431  13.798
71108SOL     OW15220   3.286   1.050  14.861
71108SOL    HW115221   3.246   1.069   0.069
71108SOL    HW215222   3.236   0.975  14.828
71109SOL     OW15223   1.048   7.287   3.858
71109SOL    HW115224   1.139   7.316   3.844
71109SOL    HW215225   1.005   7.306   3.775
71110SOL     OW15226   3.136  11.575  13.383
71110SOL    HW115227   3.118  11.642  13.317
71110SOL    HW215228   3.196  11.514  13.339
71111SOL     OW15229   4.950  10.442   9.305
71111SOL    HW115230   5.037  10.424   9.269
71111SOL    HW215231   4.890  10.397   9.246
71112SOL     OW15232   4.294  10.245   5.131
71112SOL    HW115233   4.328  10.220   5.046
71112SOL    HW215234   4.364  10.297   5.171
71113SOL     OW15235   4.667   1.530   8.517
71113SOL    HW115236   4.599   1.500   8.457
71113SOL    HW215237   4.633   1.611   8.554
71114SOL     OW15238   3.548  14.546   0.470
71114SOL    HW115239   3.599  14.558   0.550
71114SOL    HW215240   3.493  14.469   0.487
71115SOL     OW15241   9.960  12.559  14.795
71115SOL    HW115242  10.025  12.613  14.750
71115SOL    HW215243   9.880  12.612  14.793
71116SOL     OW15244  11.081  12.845  10.837
71116SOL    HW115245  11.117  12.897  10.766
71116SOL    HW215246  10.989  12.872  10.843
71117SOL     OW15247   0.157  11.456   7.939
71117SOL    HW115248   0.210  11.411   7.873
71117SOL    HW215249   0.198  11.433   8.023
71118SOL     OW15250  10.997  12.832  12.758
71118SOL    HW115251  10.956  12.761  12.708
71118SOL    HW215252  11.077  12.794  12.794
71119SOL     OW15253   4.865   6.038   9.301
71119SOL    HW115254   4.893   5.947   9.300
71119SOL    HW215255   4.848   6.057   9.393
71120SOL     OW15256  11.509   4.487   4.704
71120SOL    HW115257  11.419   4.455   4.713
71120SOL    HW215258  11.524   4.540   4.782
71121SOL     OW15259  11.526  11.156  11.297
71121SOL    HW115260  11.603  11.113  11.259
71121SOL    HW215261  11.562  11.222  11.356
71122SOL     OW15262  12.582   5.111   7.289
71122SOL    HW115263  12.526   5.049   7.242
71122SOL    HW215264  12.570   5.194   7.243
71123SOL     OW15265   8.731   3.507   5.876
71123SOL    HW115266   8.736   3.540   5.966
71123SOL    HW215267   8.755   3.582   5.822
71124SOL     OW15268   9.575   4.140   1.489
71124SOL    HW115269   9.501   4.200   1.500
71124SOL    HW215270   9.534   4.055   1.471
71125SOL     OW15271  11.166  12.476   8.294
71125SOL    HW115272  11.084  12.526   8.296
71125SOL    HW215273  11.202  12.493   8.206
71126SOL     OW15274  14.476   9.728  13.328
71126SOL    HW115275  14.571   9.729  13.340
71126SOL    HW215276  14.461   9.784  13.253
71127SOL     OW15277   5.435   3.404   9.125
71127SOL    HW115278   5.386   3.404   9.208
71127SOL    HW215279   5.464   3.314   9.114
71128SOL     OW15280   2.647   4.975   5.919
71128SOL    HW115281   2.706   4.903   5.942
71128SOL    HW215282   2.604   4.946   5.839
71129SOL     OW15283   9.522   9.026   6.970
71129SOL    HW115284   9.578   9.022   6.892
71129SOL    HW215285   9.450   8.966   6.951
71130SOL     OW15286   1.055   4.585  11.691
71130SOL    HW115287   1.112   4.649  11.648
71130SOL    HW215288   0.970   4.595  11.647
71131SOL     OW15289   4.849   8.806   8.744
71131SOL    HW115290   4.792   8.770   8.676
71131SOL    HW215291   4.796   8.802   8.824
71132SOL     OW15292   8.020  11.858   3.152
71132SOL    HW115293   7.928  11.869   3.128
71132SOL    HW215294   8.037  11.926   3.217
71133SOL     OW15295  10.647   4.822   0.877
71133SOL    HW115296  10.618   4.913   0.870
71133SOL    HW215297  10.701   4.808   0.799
71134SOL     OW15298  14.754  10.769   7.525
71134SOL    HW115299  14.763  10.841   7.463
71134SOL    HW215300  14.669  10.730   7.505
71135SOL     OW15301   2.007  10.689  13.447
71135SOL    HW115302   1.913  10.705  13.454
71135SOL    HW215303   2.037  10.751  13.380
71136SOL     OW15304   9.363   8.615   8.689
71136SOL    HW115305   9.397   8.587   8.774
71136SOL    HW215306   9.273   8.641   8.707
71137SOL     OW15307  14.188   8.019   2.750
71137SOL    HW115308  14.173   7.935   2.795
71137SOL    HW215309  14.184   8.084   2.820
71138SOL     OW15310   3.708   7.056   1.539
71138SOL    HW115311   3.710   7.148   1.512
71138SOL    HW215312   3.657   7.011   1.471
71139SOL     OW15313   1.422   0.896   6.576
71139SOL    HW115314   1.391   0.865   6.491
71139SOL    HW215315   1.364   0.969   6.597
71140SOL     OW15316  13.033   1.247   3.540
71140SOL    HW115317  13.072   1.280   3.459
71140SOL    HW215318  13.048   1.317   3.603
71141SOL     OW15319   2.694  12.562  12.561
71141SOL    HW115320   2.754  12.618  12.511
71141SOL    HW215321   2.710  12.474  12.527
71142SOL     OW15322  13.720   7.418   4.282
71142SOL    HW115323  13.780   7.456   4.217
71142SOL    HW215324  13.768   7.343   4.317
71143SOL     OW15325  10.091   5.506  12.685
71143SOL    HW115326  10.078   5.585  12.737
71143SOL    HW215327  10.006   5.492  12.641
71144SOL     OW15328  14.499   4.929  11.082
71144SOL    HW115329  14.577   4.885  11.050
71144SOL    HW215330  14.463   4.871  11.148
71145SOL     OW15331  13.128   7.652  11.348
71145SOL    HW115332  13.034   7.636  11.341
71145SOL    HW215333  13.136   7.735  11.395
71146SOL     OW15334   1.790   6.739  10.634
71146SOL    HW115335   1.697   6.764  10.640
71146SOL    HW215336   1.788   6.645  10.616
71147SOL     OW15337  13.281   9.665   9.495
71147SOL    HW115338  13.283   9.595   9.430
71147SOL    HW215339  13.235   9.627   9.570
71148SOL     OW15340   0.187   4.593   8.562
71148SOL    HW115341   0.180   4.581   8.657
71148SOL    HW215342   0.138   4.520   8.524
71149SOL     OW15343  11.302   9.831   1.653
71149SOL    HW115344  11.315   9.926   1.650
71149SOL    HW215345  11.218   9.820   1.696
71150SOL     OW15346   1.329   6.808   9.132
71150SOL    HW115347   1.326   6.717   9.103
71150SOL    HW215348   1.238   6.838   9.124
71151SOL     OW15349   2.031   4.382  10.671
71151SOL    HW115350   2.126   4.389  10.662
71151SOL    HW215351   1.999   4.472  10.666
71152SOL     OW15352   0.620   2.825   4.066
71152SOL    HW115353   0.671   2.864   3.995
71152SOL    HW215354   0.644   2.733   4.064
71153SOL     OW15355  14.412   3.500   8.927
71153SOL    HW115356  14.480   3.528   8.866
71153SOL    HW215357  14.331   3.505   8.876
71154SOL     OW15358  14.194  11.705   4.607
71154SOL    HW115359  14.208  11.789   4.563
71154SOL    HW215360  14.250  11.708   4.684
71155SOL     OW15361  11.701   7.905   6.327
71155SOL    HW115362  11.608   7.924   6.339
71155SOL    HW215363  11.745   7.989   6.343
71156SOL     OW15364  10.964   4.279  10.345
71156SOL    HW115365  10.875   4.279  10.308
71156SOL    HW215366  10.959   4.220  10.420
71157SOL     OW15367  13.498   5.423   9.235
71157SOL    HW115368  13.593   5.429   9.226
71157SOL    HW215369  13.484   5.349   9.295
71158SOL     OW15370   4.896  11.416   5.917
71158SOL    HW115371   4.918  11.330   5.954
71158SOL    HW215372   4.981  11.454   5.893
71159SOL     OW15373  11.117  10.251  11.750
71159SOL    HW115374  11.204  10.256  11.790
71159SOL    HW215375  11.070  10.185  11.800
71160SOL     OW15376  12.540  10.632   7.002
71160SOL    HW115377  12.570  10.693   7.069
71160SOL    HW215378  12.567  10.546   7.035
71161SOL     OW15379   9.731  14.846  14.537
71161SOL    HW115380   9.674  14.790  14.590
71161SOL    HW215381   9.742   0.048  14.589
71162SOL     OW15382   0.934   9.827   2.298
71162SOL    HW115383   0.868   9.784   2.351
71162SOL    HW215384   0.980   9.756   2.253
71163SOL     OW15385   3.563  11.103   9.587
71163SOL    HW115386   3.545  11.156   9.509
71163SOL    HW215387   3.655  11.077   9.577
71164SOL     OW15388   3.816  14.470  12.074
71164SOL    HW115389   3.721  14.457  12.078
71164SOL    HW215390   3.840  14.503  12.161
71165SOL     OW15391   6.008   6.904   7.113
71165SOL    HW115392   6.054   6.826   7.144
71165SOL    HW215393   6.077   6.960   7.078
71166SOL     OW15394   3.785   1.947   0.751
71166SOL    HW115395   3.797   1.943   0.657
71166SOL    HW215396   3.856   2.003   0.782
71167SOL     OW15397   3.470   5.595  12.511
71167SOL    HW115398   3.501   5.522  12.456
71167SOL    HW215399   3.480   5.563  12.601
71168SOL     OW15400  13.062   4.536   8.684
71168SOL    HW115401  13.030   4.613   8.637
71168SOL    HW215402  12.985   4.480   8.694
71169SOL     OW15403   5.947   1.507  13.342
71169SOL    HW115404   5.892   1.440  13.382
71169SOL    HW215405   5.950   1.577  13.407
71170SOL     OW15406   1.624  14.584   0.910
71170SOL    HW115407   1.597  14.500   0.948
71170SOL    HW215408   1.575  14.649   0.960
71171SOL     OW15409  13.297   1.774   5.181
71171SOL    HW115410  13.369   1.750   5.123
71171SOL    HW215411  13.262   1.691   5.212
71172SOL     OW15412  12.662   2.373   0.301
71172SOL    HW115413  12.717   2.445   0.270
71172SOL    HW215414  12.721   2.297   0.299
71173SOL     OW15415   8.144  12.309   7.532
71173SOL    HW115416   8.148  12.222   7.572
71173SOL    HW215417   8.207  12.361   7.582
71174SOL     OW15418   7.314   4.812   8.769
71174SOL    HW115419   7.346   4.854   8.690
71174SOL    HW215420   7.329   4.876   8.839
71175SOL     OW15421   9.501   1.732   5.784
71175SOL    HW115422   9.476   1.659   5.728
71175SOL    HW215423   9.451   1.806   5.750
71176SOL     OW15424   0.620  13.690  10.796
71176SOL    HW115425   0.640  13.597  10.801
71176SOL    HW215426   0.553  13.705  10.862
71177SOL     OW15427   5.536   0.329   6.934
71177SOL    HW115428   5.476   0.285   6.993
71177SOL    HW215429   5.594   0.260   6.902
71178SOL     OW15430  12.113   0.810  13.332
71178SOL    HW115431  12.027   0.775  13.356
71178SOL    HW215432  12.174   0.740  13.352
71179SOL     OW15433   4.668   7.822   8.969
71179SOL    HW115434   4.696   7.733   8.990
71179SOL    HW215435   4.597   7.841   9.030
71180SOL     OW15436   1.409   0.104  11.617
71180SOL    HW115437   1.317   0.130  11.612
71180SOL    HW215438   1.422   0.048  11.540
71181SOL     OW15439   3.103   5.764   8.274
71181SOL    HW115440   3.106   5.860   8.278
71181SOL    HW215441   3.193   5.737   8.294
71182SOL     OW15442   9.383   8.099   3.354
71182SOL    HW115443   9.375   8.179   3.407
71182SOL    HW215444   9.315   8.041   3.389
71183SOL     OW15445   6.894   6.126  12.438
71183SOL    HW115446   6.874   6.055  12.498
71183SOL    HW215447   6.910   6.083  12.354
71184SOL     OW15448   2.612   6.796   6.247
71184SOL    HW115449   2.568   6.879   6.232
71184SOL    HW215450   2.705   6.815   6.235
71185SOL     OW15451  10.410  11.916  12.284
71185SOL    HW115452  10.338  11.869  12.326
71185SOL    HW215453  10.489  11.872  12.314
71186SOL     OW15454   0.739   4.313  10.821
71186SOL    HW115455   0.741   4.296  10.915
71186SOL    HW215456   0.652   4.283  10.794
71187SOL     OW15457  11.946   1.375   6.457
71187SOL    HW115458  11.982   1.453   6.414
71187SOL    HW215459  11.971   1.385   6.549
71188SOL     OW15460  14.010   1.278   1.348
71188SOL    HW115461  14.083   1.324   1.390
71188SOL    HW215462  14.019   1.299   1.255
71189SOL     OW15463  11.390  12.677   9.959
71189SOL    HW115464  11.404  12.588   9.992
71189SOL    HW215465  11.314  12.710  10.007
71190SOL     OW15466   0.329   7.129   7.486
71190SOL    HW115467   0.411   7.122   7.536
71190SOL    HW215468   0.332   7.054   7.426
71191SOL     OW15469  12.017  14.152  14.269
71191SOL    HW115470  11.948  14.215  14.289
71191SOL    HW215471  12.086  14.171  14.333
71192SOL     OW15472  11.469   4.581  13.240
71192SOL    HW115473  11.392   4.554  13.190
71192SOL    HW215474  11.438   4.588  13.330
71193SOL     OW15475   8.380   7.443  10.706
71193SOL    HW115476   8.441   7.409  10.772
71193SOL    HW215477   8.431   7.445  10.625
71194SOL     OW15478   6.462   5.875  12.787
71194SOL    HW115479   6.370   5.880  12.814
71194SOL    HW215480   6.509   5.845  12.865
71195SOL     OW15481   3.857  13.794  11.404
71195SOL    HW115482   3.918  13.742  11.352
71195SOL    HW215483   3.844  13.743  11.484
71196SOL     OW15484  14.540  13.503   6.861
71196SOL    HW115485  14.491  13.580   6.886
71196SOL    HW215486  14.475  13.441   6.829
71197SOL     OW15487   2.046   5.825  11.019
71197SOL    HW115488   2.130   5.780  11.009
71197SOL    HW215489   2.069   5.917  11.035
71198SOL     OW15490  13.023  10.063  10.345
71198SOL    HW115491  12.934  10.045  10.316
71198SOL    HW215492  13.062   9.976  10.355
71199SOL     OW15493  11.232   5.385   9.001
71199SOL    HW115494  11.319   5.424   9.004
71199SOL    HW215495  11.173   5.458   8.982
71200SOL     OW15496   2.815   9.646   0.526
71200SOL    HW115497   2.791   9.554   0.535
71200SOL    HW215498   2.908   9.648   0.546
71201SOL     OW15499  13.601   0.189  10.027
71201SOL    HW115500  13.561   0.197  10.114
71201SOL    HW215501  13.530   0.211   9.966
71202SOL     OW15502  11.193   6.889  14.467
71202SOL    HW115503  11.208   6.827  14.538
71202SOL    HW215504  11.110   6.931  14.489
71203SOL     OW15505   7.078   1.080   3.181
71203SOL    HW115506   7.034   1.015   3.236
71203SOL    HW215507   7.171   1.069   3.200
71204SOL     OW15508   8.823   5.193   2.580
71204SOL    HW115509   8.836   5.208   2.674
71204SOL    HW215510   8.767   5.115   2.576
71205SOL     OW15511   6.124   1.516   5.303
71205SOL    HW115512   6.067   1.458   5.353
71205SOL    HW215513   6.065   1.562   5.243
71206SOL     OW15514   9.449  14.344  12.965
71206SOL    HW115515   9.478  14.298  13.044
71206SOL    HW215516   9.369  14.299  12.940
71207SOL     OW15517   3.847   9.043  12.180
71207SOL    HW115518   3.884   9.049  12.092
71207SOL    HW215519   3.825   9.133  12.203
71208SOL     OW15520  10.753   4.942  13.069
71208SOL    HW115521  10.842   4.911  13.085
71208SOL    HW215522  10.697   4.866  13.085
71209SOL     OW15523  11.938  14.232  11.622
71209SOL    HW115524  11.950  14.266  11.710
71209SOL    HW215525  12.019  14.184  11.603
71210SOL     OW15526   4.424   6.759  11.222
71210SOL    HW115527   4.479   6.742  11.298
71210SOL    HW215528   4.390   6.847  11.235
71211SOL     OW15529   9.324  11.521   4.112
71211SOL    HW115530   9.382  11.447   4.135
71211SOL    HW215531   9.270  11.534   4.190
71212SOL     OW15532  11.629   5.240   8.990
71212SOL    HW115533  11.622   5.271   9.080
71212SOL    HW215534  11.706   5.182   8.991
71213SOL     OW15535  13.154   9.470   9.620
71213SOL    HW115536  13.099   9.457   9.543
71213SOL    HW215537  13.193   9.385   9.637
71214SOL     OW15538  10.406  10.026   8.221
71214SOL    HW115539  10.442  10.109   8.188
71214SOL    HW215540  10.418   9.964   8.149
71215SOL     OW15541   1.466   3.666   0.335
71215SOL    HW115542   1.496   3.693   0.248
71215SOL    HW215543   1.499   3.577   0.345
71216SOL     OW15544   4.862  11.169   5.671
71216SOL    HW115545   4.783  11.148   5.722
71216SOL    HW215546   4.916  11.221   5.731
71217SOL     OW15547  12.224   2.584   5.094
71217SOL    HW115548  12.251   2.495   5.071
71217SOL    HW215549  12.272   2.603   5.174
71218SOL     OW15550   3.104   8.826   7.389
71218SOL    HW115551   3.161   8.763   7.344
71218SOL    HW215552   3.130   8.911   7.353
71219SOL     OW15553   4.223   0.711  12.529
71219SOL    HW115554   4.269   0.630  12.507
71219SOL    HW215555   4.194   0.745  12.444
71220SOL     OW15556   4.380   3.162   1.161
71220SOL    HW115557   4.378   3.136   1.069
71220SOL    HW215558   4.381   3.080   1.210
71221SOL     OW15559   5.439   9.357  12.826
71221SOL    HW115560   5.350   9.331  12.849
71221SOL    HW215561   5.481   9.275  12.798
71222SOL     OW15562   0.896   5.049   7.405
71222SOL    HW115563   0.914   4.955   7.397
71222SOL    HW215564   0.946   5.088   7.334
71223SOL     OW15565  12.673  13.832   4.279
71223SOL    HW115566  12.696  13.762   4.341
71223SOL    HW215567  12.624  13.788   4.210
71224SOL     OW15568   1.530  13.591   9.337
71224SOL    HW115569   1.533  13.637   9.421
71224SOL    HW215570   1.570  13.506   9.355
71225SOL     OW15571   1.497  13.955   8.135
71225SOL    HW115572   1.504  14.009   8.056
71225SOL    HW215573   1.587  13.927   8.154
71226SOL     OW15574  12.225   1.987   8.745
71226SOL    HW115575  12.200   2.074   8.715
71226SOL    HW215576  12.169   1.970   8.820
71227SOL     OW15577   3.047  11.856   5.859
71227SOL    HW115578   2.957  11.842   5.830
71227SOL    HW215579   3.040  11.865   5.954
71228SOL     OW15580   2.765  11.816  12.314
71228SOL    HW115581   2.759  11.836  12.221
71228SOL    HW215582   2.689  11.760  12.331
71229SOL     OW15583  12.468   6.674   9.393
71229SOL    HW115584  12.490   6.595   9.345
71229SOL    HW215585  12.468   6.647   9.485
71230SOL     OW15586  13.932   8.434   7.733
71230SOL    HW115587  13.870   8.363   7.745
71230SOL    HW215588  13.878   8.513   7.731
71231SOL     OW15589   6.601   0.300  10.364
71231SOL    HW115590   6.603   0.383  10.412
71231SOL    HW215591   6.527   0.308  10.304
71232SOL     OW15592   3.594   1.104   1.329
71232SOL    HW115593   3.539   1.180   1.308
71232SOL    HW215594   3.680   1.141   1.348
71233SOL     OW15595  11.563   2.864   9.734
71233SOL    HW115596  11.613   2.784   9.714
71233SOL    HW215597  11.625   2.921   9.779
71234SOL     OW15598   7.830   5.611  13.740
71234SOL    HW115599   7.899   5.546  13.729
71234SOL    HW215600   7.852   5.656  13.822
71235SOL     OW15601   5.998   3.881  10.481
71235SOL    HW115602   6.034   3.843  10.401
71235SOL    HW215603   5.966   3.967  10.454
71236SOL     OW15604  10.340  10.055   6.598
71236SOL    HW115605  10.390   9.984   6.557
71236SOL    HW215606  10.251  10.043   6.566
71237SOL     OW15607   0.932  13.373  14.083
71237SOL    HW115608   0.888  13.361  14.167
71237SOL    HW215609   1.024  13.352  14.101
71238SOL     OW15610   9.617   0.205  10.077
71238SOL    HW115611   9.544   0.214  10.015
71238SOL    HW215612   9.646   0.295  10.092
71239SOL     OW15613   9.923  12.850  13.939
71239SOL    HW115614  10.019  12.855  13.929
71239SOL    HW215615   9.889  12.880  13.855
71240SOL     OW15616   2.109  13.838  13.001
71240SOL    HW115617   2.176  13.847  12.933
71240SOL    HW215618   2.121  13.915  13.057
71241SOL     OW15619   3.485   1.122   4.533
71241SOL    HW115620   3.433   1.202   4.540
71241SOL    HW215621   3.493   1.107   4.439
71242SOL     OW15622  11.809  11.529  10.622
71242SOL    HW115623  11.887  11.565  10.663
71242SOL    HW215624  11.840  11.488  10.541
71243SOL     OW15625  14.154   0.857   5.530
71243SOL    HW115626  14.078   0.802   5.508
71243SOL    HW215627  14.209   0.854   5.452
71244SOL     OW15628   9.013  11.531  11.553
71244SOL    HW115629   9.108  11.524  11.561
71244SOL    HW215630   8.995  11.511  11.461
71245SOL     OW15631   9.469   7.604  10.515
71245SOL    HW115632   9.432   7.521  10.486
71245SOL    HW215633   9.415   7.670  10.471
71246SOL     OW15634   3.944  12.110   9.261
71246SOL    HW115635   3.878  12.128   9.328
71246SOL    HW215636   3.893  12.096   9.181
71247SOL     OW15637  12.253  11.041   4.184
71247SOL    HW115638  12.192  11.100   4.139
71247SOL    HW215639  12.322  11.098   4.216
71248SOL     OW15640  12.649   7.191   3.136
71248SOL    HW115641  12.586   7.168   3.204
71248SOL    HW215642  12.600   7.244   3.073
71249SOL     OW15643   1.747  10.480  13.241
71249SOL    HW115644   1.657  10.461  13.267
71249SOL    HW215645   1.800  10.417  13.290
71250SOL     OW15646   3.391  13.021   9.740
71250SOL    HW115647   3.467  13.014   9.797
71250SOL    HW215648   3.428  13.034   9.652
71251SOL     OW15649   1.580   3.046   4.021
71251SOL    HW115650   1.565   2.975   3.959
71251SOL    HW215651   1.494   3.086   4.033
71252SOL     OW15652   5.888  14.830  11.656
71252SOL    HW115653   5.926  14.764  11.598
71252SOL    HW215654   5.926  14.811  11.742
71253SOL     OW15655   2.872   9.639  13.102
71253SOL    HW115656   2.839   9.601  13.020
71253SOL    HW215657   2.794   9.667  13.148
71254SOL     OW15658  13.746  12.771  12.180
71254SOL    HW115659  13.661  12.799  12.146
71254SOL    HW215660  13.793  12.737  12.104
71255SOL     OW15661   4.221   2.026  10.660
71255SOL    HW115662   4.171   1.968  10.603
71255SOL    HW215663   4.305   2.038  10.616
71256SOL     OW15664   0.181  11.132   5.964
71256SOL    HW115665   0.240  11.115   6.038
71256SOL    HW215666   0.237  11.164   5.894
71257SOL     OW15667   7.897  13.647   0.915
71257SOL    HW115668   7.855  13.599   0.986
71257SOL    HW215669   7.955  13.583   0.874
71258SOL     OW15670   8.582   9.580   9.234
71258SOL    HW115671   8.557   9.646   9.169
71258SOL    HW215672   8.650   9.623   9.287
71259SOL     OW15673   7.045   6.366   2.749
71259SOL    HW115674   7.023   6.357   2.842
71259SOL    HW215675   7.123   6.422   2.749
71260SOL     OW15676   8.750   5.851   9.331
71260SOL    HW115677   8.671   5.858   9.278
71260SOL    HW215678   8.796   5.776   9.295
71261SOL     OW15679   6.302   0.166   9.401
71261SOL    HW115680   6.327   0.094   9.343
71261SOL    HW215681   6.289   0.124   9.486
71262SOL     OW15682   7.658  11.474  14.241
71262SOL    HW115683   7.736  11.512  14.199
71262SOL    HW215684   7.600  11.453  14.168
71263SOL     OW15685   0.573  10.165  14.163
71263SOL    HW115686   0.592  10.150  14.070
71263SOL    HW215687   0.618  10.095  14.208
71264SOL     OW15688  11.641   3.961   5.662
71264SOL    HW115689  11.731   3.932   5.643
71264SOL    HW215690  11.607   3.894   5.720
71265SOL     OW15691   0.650   9.822   8.213
71265SOL    HW115692   0.707   9.761   8.167
71265SOL    HW215693   0.710   9.888   8.249
71266SOL     OW15694   6.506  10.936   6.226
71266SOL    HW115695   6.549  10.852   6.208
71266SOL    HW215696   6.420  10.929   6.184
71267SOL     OW15697   5.945   4.447  10.098
71267SOL    HW115698   5.955   4.355  10.073
71267SOL    HW215699   5.851   4.457  10.114
71268SOL     OW15700   4.361   6.143   9.798
71268SOL    HW115701   4.347   6.234   9.771
71268SOL    HW215702   4.447   6.143   9.838
71269SOL     OW15703   2.405   0.690  11.374
71269SOL    HW115704   2.418   0.748  11.299
71269SOL    HW215705   2.310   0.677  11.378
71270SOL     OW15706  13.742  14.058   8.359
71270SOL    HW115707  13.659  14.104   8.369
71270SOL    HW215708  13.717  13.966   8.350
71271SOL     OW15709   3.438   6.659   0.363
71271SOL    HW115710   3.506   6.692   0.421
71271SOL    HW215711   3.397   6.739   0.327
71272SOL     OW15712   5.671  10.458   9.193
71272SOL    HW115713   5.753  10.487   9.233
71272SOL    HW215714   5.646  10.531   9.136
71273SOL     OW15715   9.712  14.687   4.072
71273SOL    HW115716   9.635  14.655   4.026
71273SOL    HW215717   9.713  14.781   4.054
71274SOL     OW15718   3.662   0.324   5.640
71274SOL    HW115719   3.621   0.397   5.593
71274SOL    HW215720   3.687   0.263   5.571
71275SOL     OW15721  13.376   4.209   8.274
71275SOL    HW115722  13.385   4.304   8.265
71275SOL    HW215723  13.308   4.198   8.340
71276SOL     OW15724  14.324   9.115   3.114
71276SOL    HW115725  14.383   9.046   3.085
71276SOL    HW215726  14.247   9.069   3.146
71277SOL     OW15727   1.961   6.263   4.238
71277SOL    HW115728   2.016   6.232   4.166
71277SOL    HW215729   1.964   6.358   4.232
71278SOL     OW15730   9.460  12.518   1.210
71278SOL    HW115731   9.425  12.586   1.266
71278SOL    HW215732   9.548  12.501   1.243
71279SOL     OW15733   1.818  10.847   6.383
71279SOL    HW115734   1.746  10.791   6.413
71279SOL    HW215735   1.798  10.933   6.420
71280SOL     OW15736   3.024   4.247   4.127
71280SOL    HW115737   3.025   4.302   4.049
71280SOL    HW215738   3.109   4.260   4.168
71281SOL     OW15739   1.577   3.013   8.568
71281SOL    HW115740   1.498   3.047   8.526
71281SOL    HW215741   1.640   3.085   8.562
71282SOL     OW15742  11.120   6.859  12.264
71282SOL    HW115743  11.185   6.790  12.274
71282SOL    HW215744  11.159   6.935  12.306
71283SOL     OW15745   4.997   8.861   0.684
71283SOL    HW115746   4.911   8.822   0.667
71283SOL    HW215747   5.058   8.811   0.630
71284SOL     OW15748  14.454   3.925  10.041
71284SOL    HW115749  14.448   4.015  10.011
71284SOL    HW215750  14.546   3.913  10.064
71285SOL     OW15751   2.016   5.037  12.611
71285SOL    HW115752   1.967   4.966  12.570
71285SOL    HW215753   1.950   5.095  12.647
71286SOL     OW15754  13.439   3.105   2.389
71286SOL    HW115755  13.507   3.125   2.453
71286SOL    HW215756  13.482   3.046   2.327
71287SOL     OW15757  11.920   3.998   4.478
71287SOL    HW115758  11.845   3.968   4.530
71287SOL    HW215759  11.918   4.093   4.486
71288SOL     OW15760   8.035   8.296   8.795
71288SOL    HW115761   8.074   8.210   8.811
71288SOL    HW215762   8.089   8.334   8.726
71289SOL     OW15763  14.265   9.715   7.017
71289SOL    HW115764  14.269   9.798   7.064
71289SOL    HW215765  14.352   9.676   7.028
71290SOL     OW15766   2.439   9.977  10.171
71290SOL    HW115767   2.442  10.032  10.093
71290SOL    HW215768   2.434   9.887  10.137
71291SOL     OW15769   9.470  11.093   5.287
71291SOL    HW115770   9.535  11.028   5.314
71291SOL    HW215771   9.472  11.092   5.192
71292SOL     OW15772   7.666   1.771   6.463
71292SOL    HW115773   7.653   1.757   6.557
71292SOL    HW215774   7.577   1.775   6.427
71293SOL     OW15775  12.174   9.377  12.764
71293SOL    HW115776  12.265   9.394  12.788
71293SOL    HW215777  12.130   9.460  12.781
71294SOL     OW15778   1.073   3.020   9.758
71294SOL    HW115779   1.123   2.967   9.821
71294SOL    HW215780   1.137   3.081   9.721
71295SOL     OW15781   5.057   5.457   4.776
71295SOL    HW115782   4.984   5.462   4.715
71295SOL    HW215783   5.131   5.426   4.724
71296SOL     OW15784  11.719   4.860   6.443
71296SOL    HW115785  11.765   4.918   6.504
71296SOL    HW215786  11.759   4.774   6.457
71297SOL     OW15787   1.636   0.658  13.163
71297SOL    HW115788   1.581   0.728  13.129
71297SOL    HW215789   1.622   0.661  13.258
71298SOL     OW15790  12.137   7.650   9.677
71298SOL    HW115791  12.058   7.630   9.727
71298SOL    HW215792  12.145   7.579   9.614
71299SOL     OW15793   4.531  10.149   0.840
71299SOL    HW115794   4.552  10.085   0.772
71299SOL    HW215795   4.540  10.234   0.797
71300SOL     OW15796   9.124   9.327   0.283
71300SOL    HW115797   9.121   9.400   0.222
71300SOL    HW215798   9.102   9.250   0.231
71301SOL     OW15799  13.160  13.561   8.872
71301SOL    HW115800  13.139  13.529   8.785
71301SOL    HW215801  13.076  13.561   8.919
71302SOL     OW15802  12.430  13.939   6.203
71302SOL    HW115803  12.380  13.862   6.231
71302SOL    HW215804  12.465  13.915   6.117
71303SOL     OW15805   1.523  11.554   6.383
71303SOL    HW115806   1.516  11.459   6.375
71303SOL    HW215807   1.462  11.587   6.317
71304SOL     OW15808   6.518   9.727   0.321
71304SOL    HW115809   6.464   9.726   0.399
71304SOL    HW215810   6.496   9.646   0.275
71305SOL     OW15811  11.203   7.933  10.181
71305SOL    HW115812  11.296   7.950  10.198
71305SOL    HW215813  11.161   7.940  10.267
71306SOL     OW15814   7.550   9.334   5.386
71306SOL    HW115815   7.508   9.294   5.462
71306SOL    HW215816   7.478   9.372   5.336
71307SOL     OW15817   6.411   9.114   6.823
71307SOL    HW115818   6.435   9.082   6.910
71307SOL    HW215819   6.468   9.067   6.763
71308SOL     OW15820  13.271   8.194   3.719
71308SOL    HW115821  13.276   8.287   3.699
71308SOL    HW215822  13.252   8.190   3.812
71309SOL     OW15823   5.077   6.649   3.569
71309SOL    HW115824   5.096   6.697   3.650
71309SOL    HW215825   5.158   6.602   3.550
71310SOL     OW15826   6.866   8.322   6.027
71310SOL    HW115827   6.809   8.395   6.003
71310SOL    HW215828   6.936   8.323   5.963
71311SOL     OW15829   8.304   3.418   3.239
71311SOL    HW115830   8.235   3.364   3.199
71311SOL    HW215831   8.329   3.479   3.169
71312SOL     OW15832   1.775   9.965  11.769
71312SOL    HW115833   1.691   9.997  11.801
71312SOL    HW215834   1.768   9.869  11.772
71313SOL     OW15835   4.392   0.899   0.096
71313SOL    HW115836   4.299   0.880   0.095
71313SOL    HW215837   4.400   0.981   0.145
71314SOL     OW15838  13.574   6.796  13.834
71314SOL    HW115839  13.549   6.725  13.775
71314SOL    HW215840  13.497   6.811  13.889
71315SOL     OW15841  14.540   0.903   3.022
71315SOL    HW115842  14.516   0.991   2.995
71315SOL    HW215843  14.480   0.883   3.095
71316SOL     OW15844  12.246  10.028   6.914
71316SOL    HW115845  12.198  10.022   6.832
71316SOL    HW215846  12.309   9.957   6.910
71317SOL     OW15847   0.790   5.391   8.856
71317SOL    HW115848   0.812   5.439   8.776
71317SOL    HW215849   0.809   5.299   8.835
71318SOL     OW15850   3.178   7.201  12.264
71318SOL    HW115851   3.102   7.155  12.298
71318SOL    HW215852   3.149   7.236  12.180
71319SOL     OW15853   2.293   7.203  10.593
71319SOL    HW115854   2.240   7.282  10.605
71319SOL    HW215855   2.378   7.224  10.631
71320SOL     OW15856   7.477   4.990   8.614
71320SOL    HW115857   7.562   4.948   8.604
71320SOL    HW215858   7.458   5.027   8.527
71321SOL     OW15859   9.761  13.421   2.247
71321SOL    HW115860   9.707  13.487   2.203
71321SOL    HW215861   9.850  13.455   2.241
71322SOL     OW15862   5.720   8.546   1.349
71322SOL    HW115863   5.649   8.491   1.381
71322SOL    HW215864   5.720   8.533   1.254
71323SOL     OW15865  11.542   9.882  13.002
71323SOL    HW115866  11.488   9.909  12.928
71323SOL    HW215867  11.480   9.840  13.062
71324SOL     OW15868   1.253  12.167   6.512
71324SOL    HW115869   1.176  12.187   6.458
71324SOL    HW215870   1.273  12.249   6.556
71325SOL     OW15871   3.099   9.720   3.901
71325SOL    HW115872   3.067   9.808   3.919
71325SOL    HW215873   3.193   9.723   3.919
71326SOL     OW15874   6.532   5.444   1.003
71326SOL    HW115875   6.504   5.493   1.081
71326SOL    HW215876   6.597   5.501   0.961
71327SOL     OW15877   7.170  12.709   1.474
71327SOL    HW115878   7.237  12.665   1.527
71327SOL    HW215879   7.200  12.699   1.384
71328SOL     OW15880  12.084   4.828  11.073
71328SOL    HW115881  12.020   4.772  11.028
71328SOL    HW215882  12.085   4.796  11.163
71329SOL     OW15883   7.379   9.384   7.882
71329SOL    HW115884   7.388   9.340   7.966
71329SOL    HW215885   7.313   9.452   7.898
71330SOL     OW15886  14.559  13.230   1.032
71330SOL    HW115887  14.471  13.264   1.044
71330SOL    HW215888  14.563  13.204   0.940
71331SOL     OW15889   3.989   9.486   3.036
71331SOL    HW115890   3.905   9.524   3.009
71331SOL    HW215891   4.054   9.537   2.987
71332SOL     OW15892   5.531   6.925   6.609
71332SOL    HW115893   5.441   6.928   6.576
71332SOL    HW215894   5.584   6.905   6.532
71333SOL     OW15895   9.125   4.967  14.336
71333SOL    HW115896   9.165   5.053  14.349
71333SOL    HW215897   9.179   4.907  14.387
71334SOL     OW15898   4.359   4.423   5.969
71334SOL    HW115899   4.327   4.421   6.059
71334SOL    HW215900   4.448   4.459   5.975
71335SOL     OW15901   5.235   9.911   7.597
71335SOL    HW115902   5.246  10.006   7.598
71335SOL    HW215903   5.147   9.897   7.633
71336SOL     OW15904   2.846   0.137  12.933
71336SOL    HW115905   2.929   0.091  12.920
71336SOL    HW215906   2.860   0.223  12.893
71337SOL     OW15907  13.443   6.166   9.137
71337SOL    HW115908  13.464   6.077   9.164
71337SOL    HW215909  13.349   6.164   9.117
71338SOL     OW15910   5.500   1.784   1.121
71338SOL    HW115911   5.511   1.709   1.063
71338SOL    HW215912   5.524   1.860   1.068
71339SOL     OW15913   2.127  10.735  13.695
71339SOL    HW115914   2.074  10.812  13.716
71339SOL    HW215915   2.084  10.695  13.620
71340SOL     OW15916   1.818  12.695   7.662
71340SOL    HW115917   1.749  12.729   7.720
71340SOL    HW215918   1.782  12.613   7.628
71341SOL     OW15919   5.936   9.614   5.187
71341SOL    HW115920   5.840   9.612   5.179
71341SOL    HW215921   5.952   9.625   5.281
71342SOL     OW15922   3.803   5.826   1.376
71342SOL    HW115923   3.845   5.782   1.302
71342SOL    HW215924   3.815   5.766   1.449
71343SOL     OW15925   4.205   3.986   7.206
71343SOL    HW115926   4.278   3.948   7.157
71343SOL    HW215927   4.131   3.984   7.145
71344SOL     OW15928  13.529   2.453   3.142
71344SOL    HW115929  13.565   2.519   3.083
71344SOL    HW215930  13.445   2.489   3.170
71345SOL     OW15931   6.946   6.570   0.222
71345SOL    HW115932   6.927   6.479   0.244
71345SOL    HW215933   6.885   6.621   0.275
71346SOL     OW15934   0.952   5.047   6.258
71346SOL    HW115935   1.031   5.081   6.300
71346SOL    HW215936   0.984   5.010   6.176
71347SOL     OW15937   6.277   8.372   6.650
71347SOL    HW115938   6.343   8.440   6.661
71347SOL    HW215939   6.315   8.295   6.692
71348SOL     OW15940  14.873   8.997   9.792
71348SOL    HW115941   0.078   8.980   9.745
71348SOL    HW215942  14.830   8.911   9.796
71349SOL     OW15943   4.626   0.807   9.466
71349SOL    HW115944   4.622   0.903   9.474
71349SOL    HW215945   4.715   0.790   9.435
71350SOL     OW15946   1.824   0.049   6.180
71350SOL    HW115947   1.748   0.044   6.122
71350SOL    HW215948   1.788   0.079   6.264
71351SOL     OW15949  11.049   4.089   0.550
71351SOL    HW115950  11.046   3.995   0.568
71351SOL    HW215951  11.102   4.125   0.622
71352SOL     OW15952   8.978   8.404   8.523
71352SOL    HW115953   8.930   8.345   8.465
71352SOL    HW215954   9.064   8.412   8.483
71353SOL     OW15955   3.190   2.858   9.821
71353SOL    HW115956   3.144   2.773   9.818
71353SOL    HW215957   3.282   2.835   9.836
71354SOL     OW15958   2.659   7.025  14.300
71354SOL    HW115959   2.731   6.966  14.321
71354SOL    HW215960   2.588   6.999  14.359
71355SOL     OW15961   0.344   0.998  11.343
71355SOL    HW115962   0.409   1.069  11.335
71355SOL    HW215963   0.272   1.037  11.391
71356SOL     OW15964  12.253  11.246   8.287
71356SOL    HW115965  12.302  11.240   8.368
71356SOL    HW215966  12.308  11.203   8.222
71357SOL     OW15967   7.684   9.716   6.580
71357SOL    HW115968   7.662   9.687   6.491
71357SOL    HW215969   7.600   9.736   6.620
71358SOL     OW15970   1.166   8.867   0.680
71358SOL    HW115971   1.179   8.785   0.632
71358SOL    HW215972   1.249   8.882   0.724
71359SOL     OW15973   9.193  13.855  14.708
71359SOL    HW115974   9.282  13.876  14.735
71359SOL    HW215975   9.183  13.897  14.623
71360SOL     OW15976   9.434   0.561   5.858
71360SOL    HW115977   9.489   0.628   5.900
71360SOL    HW215978   9.487   0.530   5.784
71361SOL     OW15979  10.662   1.008   3.559
71361SOL    HW115980  10.676   0.913   3.551
71361SOL    HW215981  10.731   1.047   3.505
71362SOL     OW15982  12.551   3.458  14.122
71362SOL    HW115983  12.509   3.374  14.136
71362SOL    HW215984  12.609   3.469  14.198
71363SOL     OW15985   2.050  10.480  12.109
71363SOL    HW115986   2.041  10.386  12.090
71363SOL    HW215987   2.145  10.494  12.115
71364SOL     OW15988  12.591   0.759   4.585
71364SOL    HW115989  12.550   0.678   4.556
71364SOL    HW215990  12.518   0.818   4.604
71365SOL     OW15991   9.324   2.734  10.702
71365SOL    HW115992   9.325   2.647  10.663
71365SOL    HW215993   9.349   2.793  10.630
71366SOL     OW15994   9.358   4.299   8.921
71366SOL    HW115995   9.427   4.260   8.867
71366SOL    HW215996   9.392   4.294   9.010
71367SOL     OW15997  13.617  11.622   7.408
71367SOL    HW115998  13.601  11.558   7.338
71367SOL    HW215999  13.708  11.605   7.435
71368SOL     OW16000   8.320   2.252  10.474
71368SOL    HW116001   8.391   2.307  10.440
71368SOL    HW216002   8.361   2.166  10.488
71369SOL     OW16003  14.503   7.825  10.402
71369SOL    HW116004  14.422   7.792  10.363
71369SOL    HW216005  14.527   7.759  10.467
71370SOL     OW16006   5.697  11.851   9.066
71370SOL    HW116007   5.690  11.814   8.978
71370SOL    HW216008   5.616  11.901   9.077
71371SOL     OW16009   6.790  12.031  13.148
71371SOL    HW116010   6.738  12.078  13.083
71371SOL    HW216011   6.828  11.958  13.100
71372SOL     OW16012   2.698  10.918  13.278
71372SOL    HW116013   2.653  10.834  13.286
71372SOL    HW216014   2.779  10.907  13.327
71373SOL     OW16015   5.922   0.958   1.250
71373SOL    HW116016   5.964   0.913   1.324
71373SOL    HW216017   5.995   0.996   1.201
71374SOL     OW16018   6.975   4.573   0.640
71374SOL    HW116019   6.966   4.492   0.689
71374SOL    HW216020   7.068   4.595   0.646
71375SOL     OW16021   9.420   0.463  11.694
71375SOL    HW116022   9.429   0.481  11.788
71375SOL    HW216023   9.344   0.515  11.668
71376SOL     OW16024   3.378   0.400   6.115
71376SOL    HW116025   3.286   0.391   6.089
71376SOL    HW216026   3.427   0.392   6.033
71377SOL     OW16027   1.015  13.007   3.052
71377SOL    HW116028   1.106  13.032   3.039
71377SOL    HW216029   1.014  12.964   3.138
71378SOL     OW16030  11.557  14.716   5.396
71378SOL    HW116031  11.557  14.631   5.441
71378SOL    HW216032  11.649  14.731   5.374
71379SOL     OW16033   2.760   0.109  11.716
71379SOL    HW116034   2.708   0.188  11.701
71379SOL    HW216035   2.848   0.133  11.687
71380SOL     OW16036   1.571   3.546   5.799
71380SOL    HW116037   1.495   3.504   5.839
71380SOL    HW216038   1.548   3.554   5.706
71381SOL     OW16039   6.557  11.776   8.326
71381SOL    HW116040   6.529  11.786   8.235
71381SOL    HW216041   6.483  11.734   8.370
71382SOL     OW16042  13.926   0.354   1.161
71382SOL    HW116043  14.002   0.300   1.177
71382SOL    HW216044  13.869   0.301   1.106
71383SOL     OW16045   4.685  10.500  13.707
71383SOL    HW116046   4.626  10.458  13.770
71383SOL    HW216047   4.654  10.590  13.701
71384SOL     OW16048  14.293  14.774  13.363
71384SOL    HW116049  14.248  14.690  13.355
71384SOL    HW216050  14.367  14.768  13.302
71385SOL     OW16051  10.561   9.362   9.826
71385SOL    HW116052  10.631   9.415   9.787
71385SOL    HW216053  10.604   9.282   9.856
71386SOL     OW16054  10.794   0.154   9.822
71386SOL    HW116055  10.773   0.069   9.784
71386SOL    HW216056  10.721   0.210   9.797
71387SOL     OW16057  12.157   3.153   3.994
71387SOL    HW116058  12.246   3.154   4.030
71387SOL    HW216059  12.133   3.245   3.987
71388SOL     OW16060  13.218   9.366   6.994
71388SOL    HW116061  13.138   9.382   6.944
71388SOL    HW216062  13.199   9.401   7.081
71389SOL     OW16063   9.353  12.280  10.024
71389SOL    HW116064   9.324  12.245   9.940
71389SOL    HW216065   9.302  12.360  10.036
71390SOL     OW16066   9.190   4.430   0.771
71390SOL    HW116067   9.216   4.515   0.737
71390SOL    HW216068   9.097   4.438   0.792
71391SOL     OW16069   0.239   4.788   6.757
71391SOL    HW116070   0.158   4.789   6.706
71391SOL    HW216071   0.216   4.746   6.840
71392SOL     OW16072  14.537   4.914   9.748
71392SOL    HW116073  14.491   4.967   9.682
71392SOL    HW216074  14.486   4.834   9.753
71393SOL     OW16075   2.946   1.800   4.261
71393SOL    HW116076   2.957   1.853   4.182
71393SOL    HW216077   3.035   1.793   4.296
71394SOL     OW16078   0.043   8.259   4.401
71394SOL    HW116079   0.092   8.268   4.482
71394SOL    HW216080   0.022   8.349   4.376
71395SOL     OW16081   4.952   6.729   9.819
71395SOL    HW116082   4.989   6.754   9.904
71395SOL    HW216083   4.932   6.812   9.776
71396SOL     OW16084  13.522   9.433  14.352
71396SOL    HW116085  13.595   9.385  14.391
71396SOL    HW216086  13.525   9.519  14.395
71397SOL     OW16087   0.325   0.736  10.026
71397SOL    HW116088   0.373   0.671  10.076
71397SOL    HW216089   0.269   0.685   9.968
71398SOL     OW16090  11.309   5.922   9.557
71398SOL    HW116091  11.377   5.940   9.492
71398SOL    HW216092  11.231   5.965   9.523
71399SOL     OW16093  10.895   5.525  11.437
71399SOL    HW116094  10.828   5.564  11.493
71399SOL    HW216095  10.857   5.525  11.350
71400SOL     OW16096  12.473   2.794   4.064
71400SOL    HW116097  12.406   2.812   3.998
71400SOL    HW216098  12.457   2.860   4.132
71401SOL     OW16099   0.863  12.773   8.319
71401SOL    HW116100   0.861  12.690   8.366
71401SOL    HW216101   0.783  12.818   8.345
71402SOL     OW16102  14.433   5.092   1.815
71402SOL    HW116103  14.424   5.096   1.720
71402SOL    HW216104  14.450   5.182   1.842
71403SOL     OW16105   4.284   8.893   0.884
71403SOL    HW116106   4.214   8.837   0.916
71403SOL    HW216107   4.364   8.842   0.899
71404SOL     OW16108  12.353   7.969   9.744
71404SOL    HW116109  12.373   8.031   9.815
71404SOL    HW216110  12.432   7.968   9.690
71405SOL     OW16111   6.773  12.526   5.290
71405SOL    HW116112   6.712  12.598   5.273
71405SOL    HW216113   6.787  12.528   5.385
71406SOL     OW16114   4.141  11.284   5.189
71406SOL    HW116115   4.069  11.345   5.204
71406SOL    HW216116   4.129  11.215   5.255
71407SOL     OW16117   6.830  14.432  10.559
71407SOL    HW116118   6.777  14.508  10.584
71407SOL    HW216119   6.813  14.422  10.465
71408SOL     OW16120  10.830  13.613   3.426
71408SOL    HW116121  10.865  13.674   3.492
71408SOL    HW216122  10.752  13.576   3.467
71409SOL     OW16123   1.368   2.197   2.682
71409SOL    HW116124   1.447   2.158   2.645
71409SOL    HW216125   1.297   2.142   2.651
71410SOL     OW16126  14.715   9.233   3.450
71410SOL    HW116127  14.735   9.277   3.368
71410SOL    HW216128  14.645   9.171   3.428
71411SOL     OW16129   1.191   0.912  10.084
71411SOL    HW116130   1.272   0.868  10.057
71411SOL    HW216131   1.163   0.960  10.007
71412SOL     OW16132   1.903   4.984   7.954
71412SOL    HW116133   1.977   4.987   8.015
71412SOL    HW216134   1.849   4.912   7.985
71413SOL     OW16135  12.762   6.768   1.511
71413SOL    HW116136  12.708   6.725   1.578
71413SOL    HW216137  12.716   6.752   1.429
71414SOL     OW16138   9.013   8.611  14.364
71414SOL    HW116139   8.963   8.549  14.311
71414SOL    HW216140   9.063   8.662  14.300
71415SOL     OW16141  12.243   9.897  14.455
71415SOL    HW116142  12.197   9.977  14.481
71415SOL    HW216143  12.302   9.924  14.385
71416SOL     OW16144   1.715  10.218  11.921
71416SOL    HW116145   1.705  10.282  11.992
71416SOL    HW216146   1.799  10.239  11.881
71417SOL     OW16147  11.579   4.438  12.113
71417SOL    HW116148  11.615   4.374  12.052
71417SOL    HW216149  11.536   4.503  12.058
71418SOL     OW16150   9.699   6.752   3.220
71418SOL    HW116151   9.724   6.760   3.312
71418SOL    HW216152   9.781   6.733   3.175
71419SOL     OW16153  11.949   3.328   4.569
71419SOL    HW116154  12.016   3.375   4.518
71419SOL    HW216155  11.866   3.353   4.528
71420SOL     OW16156  11.741   5.503  14.597
71420SOL    HW116157  11.679   5.475  14.665
71420SOL    HW216158  11.706   5.587  14.566
71421SOL     OW16159  12.854   2.671   8.321
71421SOL    HW116160  12.897   2.622   8.392
71421SOL    HW216161  12.905   2.650   8.243
71422SOL     OW16162  13.716  12.940   1.414
71422SOL    HW116163  13.697  12.969   1.324
71422SOL    HW216164  13.657  12.866   1.428
71423SOL     OW16165   1.775  14.087  14.413
71423SOL    HW116166   1.774  14.027  14.488
71423SOL    HW216167   1.798  14.032  14.338
71424SOL     OW16168   2.841   9.444  11.627
71424SOL    HW116169   2.789   9.395  11.691
71424SOL    HW216170   2.923   9.464  11.672
71425SOL     OW16171   8.888   6.311   3.495
71425SOL    HW116172   8.964   6.255   3.484
71425SOL    HW216173   8.894   6.376   3.426
71426SOL     OW16174   3.402  14.334   4.578
71426SOL    HW116175   3.408  14.429   4.568
71426SOL    HW216176   3.328  14.321   4.636
71427SOL     OW16177   5.317   3.786   0.535
71427SOL    HW116178   5.259   3.795   0.611
71427SOL    HW216179   5.295   3.860   0.479
71428SOL     OW16180  13.855   8.430  13.054
71428SOL    HW116181  13.800   8.432  12.976
71428SOL    HW216182  13.793   8.427  13.127
71429SOL     OW16183   1.980  12.002  13.013
71429SOL    HW116184   2.027  12.018  12.931
71429SOL    HW216185   1.893  11.973  12.985
71430SOL     OW16186   5.122  13.502   7.873
71430SOL    HW116187   5.174  13.571   7.832
71430SOL    HW216188   5.083  13.455   7.800
71431SOL     OW16189   5.587   3.677  11.278
71431SOL    HW116190   5.624   3.764  11.293
71431SOL    HW216191   5.663   3.621  11.261
71432SOL     OW16192   2.674   5.414   2.114
71432SOL    HW116193   2.733   5.406   2.188
71432SOL    HW216194   2.620   5.491   2.134
71433SOL     OW16195   6.210   6.562   1.627
71433SOL    HW116196   6.305   6.565   1.635
71433SOL    HW216197   6.181   6.647   1.661
71434SOL     OW16198   6.831  10.476  11.549
71434SOL    HW116199   6.882  10.460  11.628
71434SOL    HW216200   6.792  10.562  11.562
71435SOL     OW16201   9.038   2.991  10.998
71435SOL    HW116202   9.029   3.080  10.964
71435SOL    HW216203   9.112   2.954  10.951
71436SOL     OW16204  13.352   0.736   5.149
71436SOL    HW116205  13.397   0.819   5.141
71436SOL    HW216206  13.330   0.711   5.059
71437SOL     OW16207  10.239   8.249   1.337
71437SOL    HW116208  10.214   8.315   1.402
71437SOL    HW216209  10.331   8.269   1.317
71438SOL     OW16210   1.056   6.100   8.401
71438SOL    HW116211   1.132   6.068   8.451
71438SOL    HW216212   1.091   6.173   8.350
71439SOL     OW16213   1.857   0.757   3.738
71439SOL    HW116214   1.891   0.837   3.777
71439SOL    HW216215   1.773   0.783   3.699
71440SOL     OW16216   3.572   2.205  10.809
71440SOL    HW116217   3.516   2.189  10.733
71440SOL    HW216218   3.536   2.149  10.877
71441SOL     OW16219   8.629   2.621   7.662
71441SOL    HW116220   8.588   2.657   7.583
71441SOL    HW216221   8.611   2.527   7.658
71442SOL     OW16222   2.821   8.315  14.546
71442SOL    HW116223   2.855   8.278  14.465
71442SOL    HW216224   2.805   8.239  14.602
71443SOL     OW16225   8.160   1.210   4.639
71443SOL    HW116226   8.207   1.127   4.629
71443SOL    HW216227   8.188   1.243   4.724
71444SOL     OW16228   8.507   6.048   1.115
71444SOL    HW116229   8.563   5.979   1.079
71444SOL    HW216230   8.437   6.001   1.160
71445SOL     OW16231   2.529  12.983   2.901
71445SOL    HW116232   2.607  12.977   2.956
71445SOL    HW216233   2.521  12.896   2.862
71446SOL     OW16234   0.741   9.604   7.523
71446SOL    HW116235   0.677   9.647   7.468
71446SOL    HW216236   0.700   9.520   7.547
71447SOL     OW16237   5.649   6.318  10.656
71447SOL    HW116238   5.714   6.323  10.726
71447SOL    HW216239   5.567   6.343  10.698
71448SOL     OW16240   6.411   8.509   4.662
71448SOL    HW116241   6.360   8.470   4.591
71448SOL    HW216242   6.492   8.459   4.664
71449SOL     OW16243   0.243   1.290   4.332
71449SOL    HW116244   0.218   1.211   4.283
71449SOL    HW216245   0.311   1.330   4.278
71450SOL     OW16246  10.389   4.504   5.231
71450SOL    HW116247  10.356   4.568   5.169
71450SOL    HW216248  10.459   4.459   5.184
71451SOL     OW16249  13.488   2.869   7.299
71451SOL    HW116250  13.574   2.828   7.309
71451SOL    HW216251  13.503   2.944   7.242
71452SOL     OW16252   4.605   3.991   2.030
71452SOL    HW116253   4.665   3.931   1.985
71452SOL    HW216254   4.618   3.974   2.123
71453SOL     OW16255   3.504  14.143  10.595
71453SOL    HW116256   3.478  14.213  10.655
71453SOL    HW216257   3.501  14.182  10.508
71454SOL     OW16258   1.241   1.874   6.308
71454SOL    HW116259   1.268   1.805   6.248
71454SOL    HW216260   1.168   1.918   6.263
71455SOL     OW16261   9.886  12.151  13.187
71455SOL    HW116262   9.902  12.073  13.241
71455SOL    HW216263   9.793  12.147  13.166
71456SOL     OW16264   9.953   5.858   5.628
71456SOL    HW116265   9.860   5.841   5.618
71456SOL    HW216266   9.987   5.856   5.538
71457SOL     OW16267   3.150  10.498  13.149
71457SOL    HW116268   3.106  10.530  13.070
71457SOL    HW216269   3.235  10.541  13.147
71458SOL     OW16270  11.055   2.720  14.553
71458SOL    HW116271  11.021   2.631  14.553
71458SOL    HW216272  11.146   2.711  14.525
71459SOL     OW16273  12.272   4.000   1.589
71459SOL    HW116274  12.363   4.020   1.607
71459SOL    HW216275  12.237   4.080   1.549
71460SOL     OW16276  12.321   8.171   5.586
71460SOL    HW116277  12.380   8.096   5.582
71460SOL    HW216278  12.350   8.228   5.515
71461SOL     OW16279   9.439   2.282   4.381
71461SOL    HW116280   9.419   2.331   4.301
71461SOL    HW216281   9.461   2.349   4.445
71462SOL     OW16282   9.343   0.831   6.991
71462SOL    HW116283   9.276   0.858   7.053
71462SOL    HW216284   9.298   0.825   6.907
71463SOL     OW16285   6.799   6.760   3.396
71463SOL    HW116286   6.843   6.698   3.454
71463SOL    HW216287   6.715   6.778   3.439
71464SOL     OW16288   7.473  13.663   3.525
71464SOL    HW116289   7.557  13.709   3.519
71464SOL    HW216290   7.421  13.698   3.452
71465SOL     OW16291  13.939  14.153  13.596
71465SOL    HW116292  13.947  14.207  13.674
71465SOL    HW216293  13.860  14.185  13.553
71466SOL     OW16294   5.901   8.324  13.502
71466SOL    HW116295   5.827   8.377  13.532
71466SOL    HW216296   5.972   8.345  13.564
71467SOL     OW16297   8.971  12.788   5.389
71467SOL    HW116298   8.922  12.864   5.358
71467SOL    HW216299   9.055  12.794   5.344
71468SOL     OW16300   5.380   7.677   0.768
71468SOL    HW116301   5.389   7.666   0.863
71468SOL    HW216302   5.368   7.587   0.735
71469SOL     OW16303   8.404   8.676   5.528
71469SOL    HW116304   8.430   8.587   5.553
71469SOL    HW216305   8.333   8.663   5.465
71470SOL     OW16306  11.375   9.387  12.618
71470SOL    HW116307  11.416   9.466  12.583
71470SOL    HW216308  11.411   9.378  12.706
71471SOL     OW16309   8.868   7.317   2.221
71471SOL    HW116310   8.838   7.400   2.259
71471SOL    HW216311   8.834   7.319   2.131
71472SOL     OW16312   1.551   3.454   8.727
71472SOL    HW116313   1.594   3.370   8.745
71472SOL    HW216314   1.617   3.520   8.750
71473SOL     OW16315  10.515   3.777   0.896
71473SOL    HW116316  10.435   3.782   0.844
71473SOL    HW216317  10.518   3.686   0.926
71474SOL     OW16318   2.475   1.713   3.848
71474SOL    HW116319   2.420   1.635   3.850
71474SOL    HW216320   2.467   1.746   3.759
71475SOL     OW16321   3.669  12.158   5.759
71475SOL    HW116322   3.633  12.234   5.804
71475SOL    HW216323   3.710  12.193   5.681
71476SOL     OW16324   3.067   3.361   9.047
71476SOL    HW116325   2.991   3.342   8.993
71476SOL    HW216326   3.105   3.275   9.067
71477SOL     OW16327  13.810  11.513   3.295
71477SOL    HW116328  13.819  11.436   3.351
71477SOL    HW216329  13.882  11.506   3.232
71478SOL     OW16330   8.954   0.474   8.698
71478SOL    HW116331   8.940   0.494   8.791
71478SOL    HW216332   8.897   0.536   8.652
71479SOL     OW16333   1.874   7.076  12.408
71479SOL    HW116334   1.796   7.130  12.396
71479SOL    HW216335   1.892   7.040  12.321
71480SOL     OW16336  10.972   4.436   8.166
71480SOL    HW116337  11.057   4.435   8.122
71480SOL    HW216338  10.939   4.347   8.157
71481SOL     OW16339   9.248   2.993   1.807
71481SOL    HW116340   9.196   3.073   1.805
71481SOL    HW216341   9.185   2.923   1.821
71482SOL     OW16342   1.359  13.281  11.940
71482SOL    HW116343   1.307  13.230  12.003
71482SOL    HW216344   1.297  13.304  11.871
71483SOL     OW16345  10.786   2.909  11.946
71483SOL    HW116346  10.717   2.880  12.007
71483SOL    HW216347  10.867   2.878  11.987
71484SOL     OW16348  11.858   0.385  10.273
71484SOL    HW116349  11.870   0.327  10.348
71484SOL    HW216350  11.928   0.450  10.282
71485SOL     OW16351   6.582  14.150   7.363
71485SOL    HW116352   6.490  14.128   7.380
71485SOL    HW216353   6.630  14.103   7.431
71486SOL     OW16354   2.298   3.179  13.163
71486SOL    HW116355   2.249   3.215  13.236
71486SOL    HW216356   2.333   3.096  13.195
71487SOL     OW16357  13.193  11.384  10.561
71487SOL    HW116358  13.187  11.338  10.478
71487SOL    HW216359  13.287  11.385  10.581
71488SOL     OW16360  11.268  10.596  10.327
71488SOL    HW116361  11.299  10.557  10.245
71488SOL    HW216362  11.347  10.604  10.381
71489SOL     OW16363  11.257   5.952  10.617
71489SOL    HW116364  11.242   5.971  10.525
71489SOL    HW216365  11.179   5.986  10.662
71490SOL     OW16366   9.084   2.330   5.826
71490SOL    HW116367   9.069   2.397   5.893
71490SOL    HW216368   9.117   2.379   5.751
71491SOL     OW16369   7.550  10.953  11.849
71491SOL    HW116370   7.615  10.921  11.787
71491SOL    HW216371   7.573  11.045  11.862
71492SOL     OW16372  12.464  13.797  12.790
71492SOL    HW116373  12.392  13.754  12.837
71492SOL    HW216374  12.461  13.759  12.703
71493SOL     OW16375   3.109  14.536  14.087
71493SOL    HW116376   3.172  14.590  14.133
71493SOL    HW216377   3.049  14.504  14.155
71494SOL     OW16378   8.252   9.601  14.824
71494SOL    HW116379   8.303   9.561  14.753
71494SOL    HW216380   8.216   9.681  14.786
71495SOL     OW16381  10.114   9.648  11.948
71495SOL    HW116382  10.039   9.705  11.967
71495SOL    HW216383  10.094   9.612  11.861
71496SOL     OW16384  11.899   0.950  12.174
71496SOL    HW116385  11.856   0.941  12.089
71496SOL    HW216386  11.990   0.969  12.153
71497SOL     OW16387   0.093   8.583   7.206
71497SOL    HW116388   0.006   8.551   7.232
71497SOL    HW216389   0.096   8.672   7.240
71498SOL     OW16390  12.255   3.449  11.633
71498SOL    HW116391  12.216   3.514  11.692
71498SOL    HW216392  12.180   3.410  11.589
71499SOL     OW16393  11.833  14.060   3.793
71499SOL    HW116394  11.740  14.069   3.815
71499SOL    HW216395  11.868  14.000   3.859
71500SOL     OW16396   1.389   6.114   6.033
71500SOL    HW116397   1.407   6.020   6.027
71500SOL    HW216398   1.369   6.130   6.125
71501SOL     OW16399  11.231   8.038  13.929
71501SOL    HW116400  11.294   8.041  13.856
71501SOL    HW216401  11.221   7.945  13.948
71502SOL     OW16402  13.509   2.191   3.226
71502SOL    HW116403  13.416   2.208   3.210
71502SOL    HW216404  13.548   2.278   3.234
71503SOL     OW16405   8.306  14.158  11.416
71503SOL    HW116406   8.270  14.091  11.474
71503SOL    HW216407   8.237  14.173  11.351
71504SOL     OW16408   7.861  10.540  13.844
71504SOL    HW116409   7.803  10.491  13.786
71504SOL    HW216410   7.938  10.484  13.855
71505SOL     OW16411   3.380  10.158  10.755
71505SOL    HW116412   3.424  10.207  10.826
71505SOL    HW216413   3.452  10.121  10.704
71506SOL     OW16414  14.056   5.614  14.493
71506SOL    HW116415  14.096   5.620  14.406
71506SOL    HW216416  14.000   5.692  14.498
71507SOL     OW16417  11.571   8.782  11.489
71507SOL    HW116418  11.572   8.724  11.565
71507SOL    HW216419  11.591   8.868  11.526
71508SOL     OW16420   3.896   4.132   1.110
71508SOL    HW116421   3.909   4.063   1.045
71508SOL    HW216422   3.877   4.210   1.058
71509SOL     OW16423   2.374   5.287   1.706
71509SOL    HW116424   2.419   5.230   1.643
71509SOL    HW216425   2.444   5.335   1.749
71510SOL     OW16426   2.495   2.959   1.567
71510SOL    HW116427   2.424   3.016   1.538
71510SOL    HW216428   2.470   2.932   1.655
71511SOL     OW16429   1.320   4.908  14.812
71511SOL    HW116430   1.386   4.841  14.803
71511SOL    HW216431   1.268   4.881   0.010
71512SOL     OW16432   1.583   7.133   3.171
71512SOL    HW116433   1.616   7.201   3.229
71512SOL    HW216434   1.615   7.159   3.084
71513SOL     OW16435   2.019  11.088   0.624
71513SOL    HW116436   2.020  10.993   0.616
71513SOL    HW216437   2.050  11.119   0.539
71514SOL     OW16438   4.211   9.889   7.235
71514SOL    HW116439   4.212   9.958   7.301
71514SOL    HW216440   4.176   9.931   7.157
71515SOL     OW16441   8.380   1.998   1.985
71515SOL    HW116442   8.357   2.076   2.035
71515SOL    HW216443   8.444   1.952   2.041
71516SOL     OW16444   2.625  12.674   3.157
71516SOL    HW116445   2.684  12.653   3.085
71516SOL    HW216446   2.668  12.746   3.203
71517SOL     OW16447  11.404  14.335  11.298
71517SOL    HW116448  11.423  14.428  11.303
71517SOL    HW216449  11.447  14.297  11.374
71518SOL     OW16450   2.681   7.505   4.889
71518SOL    HW116451   2.724   7.590   4.892
71518SOL    HW216452   2.752   7.444   4.867
71519SOL     OW16453   4.373   4.860  14.017
71519SOL    HW116454   4.459   4.884  14.053
71519SOL    HW216455   4.311   4.916  14.063
71520SOL     OW16456   4.365   8.857  13.391
71520SOL    HW116457   4.427   8.806  13.339
71520SOL    HW216458   4.313   8.792  13.439
71521SOL     OW16459   4.679  10.225   0.472
71521SOL    HW116460   4.651  10.155   0.531
71521SOL    HW216461   4.740  10.183   0.412
71522SOL     OW16462   6.647   6.971  10.807
71522SOL    HW116463   6.574   6.992  10.749
71522SOL    HW216464   6.644   6.876  10.816
71523SOL     OW16465   0.520   2.022  13.472
71523SOL    HW116466   0.488   1.945  13.519
71523SOL    HW216467   0.610   1.999  13.447
71524SOL     OW16468  13.969   1.636  11.496
71524SOL    HW116469  13.944   1.574  11.427
71524SOL    HW216470  14.062   1.651  11.483
71525SOL     OW16471   9.825   6.980   5.667
71525SOL    HW116472   9.778   6.943   5.592
71525SOL    HW216473   9.756   7.006   5.728
71526SOL     OW16474  12.573   5.849   4.827
71526SOL    HW116475  12.532   5.916   4.773
71526SOL    HW216476  12.506   5.782   4.838
71527SOL     OW16477  12.935  14.212  13.441
71527SOL    HW116478  12.957  14.130  13.397
71527SOL    HW216479  12.966  14.201  13.530
71528SOL     OW16480   4.315  12.264   2.157
71528SOL    HW116481   4.370  12.208   2.103
71528SOL    HW216482   4.365  12.346   2.165
71529SOL     OW16483   2.257  11.612  11.153
71529SOL    HW116484   2.323  11.663  11.200
71529SOL    HW216485   2.205  11.571  11.223
71530SOL     OW16486   3.701   1.569  12.921
71530SOL    HW116487   3.768   1.553  12.988
71530SOL    HW216488   3.649   1.489  12.920
71531SOL     OW16489   2.099   9.832  14.259
71531SOL    HW116490   2.061   9.748  14.232
71531SOL    HW216491   2.123   9.875  14.177
71532SOL     OW16492   2.733  11.435  10.234
71532SOL    HW116493   2.790  11.411  10.308
71532SOL    HW216494   2.783  11.408  10.157
71533SOL     OW16495   8.551   9.320   5.167
71533SOL    HW116496   8.506   9.236   5.164
71533SOL    HW216497   8.588   9.331   5.080
71534SOL     OW16498   9.258   2.672   4.645
71534SOL    HW116499   9.337   2.685   4.698
71534SOL    HW216500   9.188   2.660   4.709
71535SOL     OW16501   8.929   6.997   8.488
71535SOL    HW116502   8.839   7.005   8.456
71535SOL    HW216503   8.983   7.006   8.410
71536SOL     OW16504   7.676  11.430   1.582
71536SOL    HW116505   7.670  11.358   1.519
71536SOL    HW216506   7.593  11.477   1.574
71537SOL     OW16507   1.971   9.612  14.106
71537SOL    HW116508   1.944   9.618  14.015
71537SOL    HW216509   1.980   9.518  14.123
71538SOL     OW16510   0.764   2.320   4.818
71538SOL    HW116511   0.762   2.298   4.911
71538SOL    HW216512   0.810   2.403   4.813
71539SOL     OW16513   2.222   1.282  12.336
71539SOL    HW116514   2.209   1.284  12.241
71539SOL    HW216515   2.286   1.351  12.353
71540SOL     OW16516   5.433   1.803   1.618
71540SOL    HW116517   5.502   1.819   1.554
71540SOL    HW216518   5.364   1.866   1.596
71541SOL     OW16519  12.220   3.228   6.334
71541SOL    HW116520  12.136   3.192   6.305
71541SOL    HW216521  12.218   3.319   6.306
71542SOL     OW16522   1.644  11.649   7.747
71542SOL    HW116523   1.671  11.579   7.808
71542SOL    HW216524   1.663  11.730   7.794
71543SOL     OW16525  14.471   3.540   9.589
71543SOL    HW116526  14.396   3.599   9.600
71543SOL    HW216527  14.521   3.549   9.670
71544SOL     OW16528   6.346   9.193  12.288
71544SOL    HW116529   6.400   9.263  12.324
71544SOL    HW216530   6.295   9.161  12.363
71545SOL     OW16531   2.822  14.341   7.393
71545SOL    HW116532   2.783  14.272   7.446
71545SOL    HW216533   2.763  14.351   7.318
71546SOL     OW16534   4.156  11.221  10.160
71546SOL    HW116535   4.128  11.178  10.079
71546SOL    HW216536   4.169  11.312  10.134
71547SOL     OW16537  12.688   4.620  13.664
71547SOL    HW116538  12.752   4.552  13.685
71547SOL    HW216539  12.609   4.595  13.711
71548SOL     OW16540  11.457   3.490   0.608
71548SOL    HW116541  11.470   3.396   0.620
71548SOL    HW216542  11.523   3.531   0.664
71549SOL     OW16543   1.030   7.831   9.845
71549SOL    HW116544   1.116   7.805   9.812
71549SOL    HW216545   1.048   7.878   9.926
71550SOL     OW16546   8.493   6.823  12.411
71550SOL    HW116547   8.505   6.798  12.320
71550SOL    HW216548   8.434   6.899  12.407
71551SOL     OW16549   3.197   8.358  10.694
71551SOL    HW116550   3.172   8.424  10.759
71551SOL    HW216551   3.283   8.386  10.663
71552SOL     OW16552   2.116  14.201   7.116
71552SOL    HW116553   2.134  14.107   7.111
71552SOL    HW216554   2.084  14.224   7.029
71553SOL     OW16555  10.341   1.510   7.602
71553SOL    HW116556  10.356   1.488   7.510
71553SOL    HW216557  10.388   1.592   7.615
71554SOL     OW16558   1.628   1.831   4.400
71554SOL    HW116559   1.585   1.746   4.387
71554SOL    HW216560   1.556   1.894   4.404
71555SOL     OW16561   5.138   0.061  10.021
71555SOL    HW116562   5.092   0.075   9.938
71555SOL    HW216563   5.146  14.843  10.028
71556SOL     OW16564   0.690   3.088   5.714
71556SOL    HW116565   0.677   3.056   5.804
71556SOL    HW216566   0.776   3.056   5.689
71557SOL     OW16567   3.023   3.726  14.277
71557SOL    HW116568   3.020   3.821  14.267
71557SOL    HW216569   3.107   3.709  14.320
71558SOL     OW16570  12.323   5.581   2.969
71558SOL    HW116571  12.342   5.622   2.885
71558SOL    HW216572  12.361   5.639   3.035
71559SOL     OW16573   1.388  11.355  11.036
71559SOL    HW116574   1.451  11.285  11.017
71559SOL    HW216575   1.438  11.436  11.030
71560SOL     OW16576  13.914  12.391  10.801
71560SOL    HW116577  13.952  12.453  10.739
71560SOL    HW216578  13.934  12.305  10.764
71561SOL     OW16579   2.128  12.842   7.094
71561SOL    HW116580   2.108  12.770   7.154
71561SOL    HW216581   2.131  12.919   7.151
71562SOL     OW16582  12.988   7.363  12.472
71562SOL    HW116583  13.000   7.296  12.405
71562SOL    HW216584  12.966   7.314  12.551
71563SOL     OW16585   7.746  13.888   4.783
71563SOL    HW116586   7.698  13.930   4.855
71563SOL    HW216587   7.836  13.919   4.793
71564SOL     OW16588   1.546   9.278   5.790
71564SOL    HW116589   1.503   9.226   5.857
71564SOL    HW216590   1.483   9.283   5.719
71565SOL     OW16591   7.263   5.938   7.702
71565SOL    HW116592   7.329   5.879   7.739
71565SOL    HW216593   7.303   5.971   7.622
71566SOL     OW16594   7.155   1.970   4.919
71566SOL    HW116595   7.229   2.029   4.934
71566SOL    HW216596   7.086   2.003   4.976
71567SOL     OW16597  10.081  11.902   6.133
71567SOL    HW116598  10.077  11.814   6.171
71567SOL    HW216599  10.114  11.889   6.044
71568SOL     OW16600  13.145  10.358   7.428
71568SOL    HW116601  13.112  10.268   7.421
71568SOL    HW216602  13.234  10.347   7.464
71569SOL     OW16603  12.598   6.299   0.462
71569SOL    HW116604  12.582   6.393   0.473
71569SOL    HW216605  12.528   6.257   0.512
71570SOL     OW16606   0.286   5.162  10.391
71570SOL    HW116607   0.221   5.224  10.357
71570SOL    HW216608   0.362   5.217  10.412
71571SOL     OW16609  13.092   1.024   9.319
71571SOL    HW116610  13.087   1.100   9.261
71571SOL    HW216611  13.089   1.061   9.407
71572SOL     OW16612  10.312  14.478   7.364
71572SOL    HW116613  10.220  14.456   7.351
71572SOL    HW216614  10.344  14.414   7.428
71573SOL     OW16615   1.569   9.045  10.166
71573SOL    HW116616   1.554   9.105  10.239
71573SOL    HW216617   1.596   8.963  10.208
71574SOL     OW16618   7.427   0.818  13.954
71574SOL    HW116619   7.398   0.909  13.954
71574SOL    HW216620   7.499   0.815  14.016
71575SOL     OW16621  10.861   0.750  12.584
71575SOL    HW116622  10.861   0.800  12.502
71575SOL    HW216623  10.849   0.659  12.556
71576SOL     OW16624  14.003  12.966  10.714
71576SOL    HW116625  13.944  12.980  10.640
71576SOL    HW216626  14.089  12.950  10.674
71577SOL     OW16627   2.820  14.442   5.037
71577SOL    HW116628   2.728  14.421   5.021
71577SOL    HW216629   2.828  14.439   5.133
71578SOL     OW16630   3.181   3.887   4.998
71578SOL    HW116631   3.233   3.966   5.013
71578SOL    HW216632   3.093   3.910   5.027
71579SOL     OW16633   7.214   4.804   9.346
71579SOL    HW116634   7.239   4.727   9.294
71579SOL    HW216635   7.259   4.877   9.304
71580SOL     OW16636   1.511  11.676   2.139
71580SOL    HW116637   1.460  11.596   2.144
71580SOL    HW216638   1.598  11.648   2.111
71581SOL     OW16639   4.765  11.102  11.541
71581SOL    HW116640   4.706  11.036  11.578
71581SOL    HW216641   4.848  11.088  11.586
71582SOL     OW16642   8.527   9.922   3.887
71582SOL    HW116643   8.504   9.830   3.872
71582SOL    HW216644   8.445   9.962   3.915
71583SOL     OW16645   6.147   9.721  12.602
71583SOL    HW116646   6.218   9.784  12.612
71583SOL    HW216647   6.067   9.773  12.612
71584SOL     OW16648  12.878   4.224  11.908
71584SOL    HW116649  12.812   4.234  11.840
71584SOL    HW216650  12.845   4.275  11.982
71585SOL     OW16651   2.763  12.316  11.807
71585SOL    HW116652   2.724  12.383  11.863
71585SOL    HW216653   2.752  12.351  11.718
71586SOL     OW16654   6.668  14.195   1.436
71586SOL    HW116655   6.742  14.136   1.454
71586SOL    HW216656   6.689  14.275   1.483
71587SOL     OW16657   8.990  10.268  12.523
71587SOL    HW116658   9.052  10.196  12.529
71587SOL    HW216659   8.913  10.230  12.479
71588SOL     OW16660  12.807   7.586  12.401
71588SOL    HW116661  12.733   7.595  12.460
71588SOL    HW216662  12.847   7.502  12.424
71589SOL     OW16663  10.514  11.094   8.281
71589SOL    HW116664  10.425  11.088   8.314
71589SOL    HW216665  10.564  11.134   8.353
71590SOL     OW16666   3.275  14.285  14.086
71590SOL    HW116667   3.223  14.364  14.072
71590SOL    HW216668   3.256  14.230  14.010
71591SOL     OW16669   1.445   4.114   9.117
71591SOL    HW116670   1.500   4.176   9.070
71591SOL    HW216671   1.388   4.076   9.050
71592SOL     OW16672  11.704   2.622   9.661
71592SOL    HW116673  11.690   2.547   9.720
71592SOL    HW216674  11.759   2.587   9.591
71593SOL     OW16675  11.207   0.082   6.813
71593SOL    HW116676  11.190   0.086   6.719
71593SOL    HW216677  11.123   0.100   6.854
71594SOL     OW16678   4.237   8.882  11.631
71594SOL    HW116679   4.268   8.910  11.717
71594SOL    HW216680   4.228   8.963  11.580
71595SOL     OW16681   4.644   1.306   4.561
71595SOL    HW116682   4.698   1.297   4.640
71595SOL    HW216683   4.607   1.394   4.566
71596SOL     OW16684   3.782   9.080   0.509
71596SOL    HW116685   3.728   9.115   0.438
71596SOL    HW216686   3.866   9.123   0.498
71597SOL     OW16687   9.465   0.790   8.537
71597SOL    HW116688   9.508   0.796   8.453
71597SOL    HW216689   9.459   0.697   8.556
71598SOL     OW16690   6.662  10.066   6.416
71598SOL    HW116691   6.670  10.088   6.509
71598SOL    HW216692   6.750  10.039   6.390
71599SOL     OW16693   3.888   3.589   6.229
71599SOL    HW116694   3.904   3.556   6.317
71599SOL    HW216695   3.797   3.565   6.210
71600SOL     OW16696  11.244  10.688   0.337
71600SOL    HW116697  11.182  10.634   0.386
71600SOL    HW216698  11.189  10.738   0.277
71601SOL     OW16699  10.604   9.401   9.221
71601SOL    HW116700  10.571   9.338   9.285
71601SOL    HW216701  10.695   9.376   9.207
71602SOL     OW16702   1.250   6.631  13.542
71602SOL    HW116703   1.275   6.683  13.466
71602SOL    HW216704   1.225   6.546  13.506
71603SOL     OW16705   7.079   3.643   3.390
71603SOL    HW116706   7.016   3.596   3.445
71603SOL    HW216707   7.147   3.672   3.451
71604SOL     OW16708   9.839   4.953   9.995
71604SOL    HW116709   9.767   4.992  10.045
71604SOL    HW216710   9.906   4.933  10.061
71605SOL     OW16711   2.309  13.798  11.894
71605SOL    HW116712   2.399  13.829  11.896
71605SOL    HW216713   2.308  13.724  11.955
71606SOL     OW16714   4.456  14.384   9.266
71606SOL    HW116715   4.476  14.295   9.296
71606SOL    HW216716   4.522  14.403   9.201
71607SOL     OW16717   2.351   1.172   0.062
71607SOL    HW116718   2.394   1.225   0.129
71607SOL    HW216719   2.370   1.082   0.088
71608SOL     OW16720   3.313   3.745   7.920
71608SOL    HW116721   3.241   3.775   7.864
71608SOL    HW216722   3.390   3.793   7.888
71609SOL     OW16723   3.929   1.811   9.111
71609SOL    HW116724   3.912   1.744   9.045
71609SOL    HW216725   3.995   1.771   9.169
71610SOL     OW16726  13.149   0.113  10.013
71610SOL    HW116727  13.170   0.138   9.923
71610SOL    HW216728  13.105   0.028  10.004
71611SOL     OW16729  14.727   5.985  14.329
71611SOL    HW116730  14.816   5.951  14.333
71611SOL    HW216731  14.735   6.076  14.360
71612SOL     OW16732   3.607   3.086   9.554
71612SOL    HW116733   3.677   3.098   9.490
71612SOL    HW216734   3.638   3.018   9.613
71613SOL     OW16735  12.115  11.533   6.133
71613SOL    HW116736  12.134  11.604   6.072
71613SOL    HW216737  12.042  11.565   6.186
71614SOL     OW16738   8.505   3.238   3.218
71614SOL    HW116739   8.552   3.256   3.300
71614SOL    HW216740   8.438   3.306   3.214
71615SOL     OW16741   0.942   5.296   6.107
71615SOL    HW116742   0.926   5.225   6.169
71615SOL    HW216743   0.953   5.374   6.162
71616SOL     OW16744   6.639   4.000   8.115
71616SOL    HW116745   6.554   3.967   8.086
71616SOL    HW216746   6.619   4.061   8.186
71617SOL     OW16747   8.098  14.616   1.501
71617SOL    HW116748   8.120  14.555   1.431
71617SOL    HW216749   8.145  14.583   1.578
71618SOL     OW16750   7.074   8.804  14.399
71618SOL    HW116751   7.001   8.847  14.443
71618SOL    HW216752   7.095   8.729  14.455
71619SOL     OW16753   0.447  14.077   2.225
71619SOL    HW116754   0.462  14.115   2.312
71619SOL    HW216755   0.516  14.114   2.170
71620SOL     OW16756  11.647  11.671   6.369
71620SOL    HW116757  11.628  11.648   6.460
71620SOL    HW216758  11.578  11.733   6.346
71621SOL     OW16759  13.802   4.197  12.530
71621SOL    HW116760  13.863   4.235  12.466
71621SOL    HW216761  13.730   4.260  12.534
71622SOL     OW16762  11.651  13.863   9.718
71622SOL    HW116763  11.732  13.889   9.674
71622SOL    HW216764  11.593  13.835   9.647
71623SOL     OW16765   9.703   2.921   1.443
71623SOL    HW116766   9.681   2.878   1.360
71623SOL    HW216767   9.741   2.852   1.497
71624SOL     OW16768   0.334   8.891  14.366
71624SOL    HW116769   0.308   8.979  14.338
71624SOL    HW216770   0.367   8.849  14.287
71625SOL     OW16771  10.582  11.936   1.881
71625SOL    HW116772  10.644  11.989   1.931
71625SOL    HW216773  10.584  11.972   1.793
71626SOL     OW16774  13.217   3.152   1.933
71626SOL    HW116775  13.227   3.239   1.970
71626SOL    HW216776  13.249   3.160   1.843
71627SOL     OW16777   9.727  13.005  14.357
71627SOL    HW116778   9.694  12.923  14.321
71627SOL    HW216779   9.800  13.028  14.300
71628SOL     OW16780   1.721  10.784   4.393
71628SOL    HW116781   1.661  10.760   4.323
71628SOL    HW216782   1.690  10.870   4.422
71629SOL     OW16783   9.386   5.064   4.978
71629SOL    HW116784   9.324   5.115   5.030
71629SOL    HW216785   9.424   5.127   4.917
71630SOL     OW16786   9.398  12.841   6.558
71630SOL    HW116787   9.334  12.901   6.596
71630SOL    HW216788   9.469  12.898   6.528
71631SOL     OW16789   1.011   4.078   4.158
71631SOL    HW116790   1.047   4.165   4.175
71631SOL    HW216791   0.973   4.051   4.242
71632SOL     OW16792   8.677  13.672  14.123
71632SOL    HW116793   8.598  13.640  14.166
71632SOL    HW216794   8.739  13.687  14.194
71633SOL     OW16795   5.477   2.207   5.086
71633SOL    HW116796   5.404   2.158   5.123
71633SOL    HW216797   5.460   2.298   5.113
71634SOL     OW16798   5.082   6.895   6.233
71634SOL    HW116799   5.044   6.959   6.172
71634SOL    HW216800   5.141   6.843   6.178
71635SOL     OW16801   2.743   2.891   2.585
71635SOL    HW116802   2.684   2.949   2.536
71635SOL    HW216803   2.709   2.803   2.568
71636SOL     OW16804  10.978   6.350  12.151
71636SOL    HW116805  10.909   6.416  12.152
71636SOL    HW216806  11.010   6.349  12.061
71637SOL     OW16807   9.337   7.852  10.385
71637SOL    HW116808   9.300   7.930  10.428
71637SOL    HW216809   9.272   7.827  10.320
71638SOL     OW16810   8.079   1.842   8.547
71638SOL    HW116811   8.124   1.905   8.491
71638SOL    HW216812   7.986   1.852   8.526
71639SOL     OW16813   8.347  14.767  14.145
71639SOL    HW116814   8.380  14.700  14.205
71639SOL    HW216815   8.288  14.820  14.198
71640SOL     OW16816   4.487   4.821   2.285
71640SOL    HW116817   4.494   4.752   2.219
71640SOL    HW216818   4.538   4.894   2.249
71641SOL     OW16819   8.641   6.403   6.238
71641SOL    HW116820   8.670   6.326   6.190
71641SOL    HW216821   8.564   6.434   6.191
71642SOL     OW16822   8.837   2.173   5.902
71642SOL    HW116823   8.893   2.105   5.941
71642SOL    HW216824   8.898   2.229   5.854
71643SOL     OW16825   7.487   9.859  11.558
71643SOL    HW116826   7.524   9.788  11.610
71643SOL    HW216827   7.396   9.865  11.586
71644SOL     OW16828  12.656   3.705   1.464
71644SOL    HW116829  12.666   3.763   1.389
71644SOL    HW216830  12.707   3.627   1.441
71645SOL     OW16831  12.798   0.132   6.675
71645SOL    HW116832  12.777   0.068   6.744
71645SOL    HW216833  12.893   0.134   6.672
71646SOL     OW16834   4.048   5.447  10.733
71646SOL    HW116835   4.023   5.414  10.647
71646SOL    HW216836   3.978   5.418  10.791
71647SOL     OW16837  10.723   8.290   7.121
71647SOL    HW116838  10.810   8.253   7.103
71647SOL    HW216839  10.741   8.369   7.171
71648SOL     OW16840   1.860  13.915  14.233
71648SOL    HW116841   1.872  13.921  14.138
71648SOL    HW216842   1.926  13.852  14.262
71649SOL     OW16843   2.023   5.012  13.260
71649SOL    HW116844   1.932   5.025  13.287
71649SOL    HW216845   2.053   5.100  13.235
71650SOL     OW16846   6.336   4.901  14.301
71650SOL    HW116847   6.334   4.880  14.394
71650SOL    HW216848   6.341   4.816  14.257
71651SOL     OW16849   3.988   2.421   2.069
71651SOL    HW116850   3.990   2.388   1.979
71651SOL    HW216851   3.905   2.466   2.076
71652SOL     OW16852   0.292  10.251  14.035
71652SOL    HW116853   0.288  10.182  13.969
71652SOL    HW216854   0.375  10.237  14.080
71653SOL     OW16855  11.948   8.872  11.611
71653SOL    HW116856  12.031   8.912  11.584
71653SOL    HW216857  11.884   8.907  11.549
71654SOL     OW16858   2.756   7.114  12.650
71654SOL    HW116859   2.668   7.077  12.659
71654SOL    HW216860   2.813   7.053  12.696
71655SOL     OW16861   6.834   5.033   2.093
71655SOL    HW116862   6.889   4.957   2.113
71655SOL    HW216863   6.751   5.015   2.136
71656SOL     OW16864   3.366   7.032   9.556
71656SOL    HW116865   3.355   7.123   9.529
71656SOL    HW216866   3.340   7.031   9.648
71657SOL     OW16867  12.953   8.907   5.474
71657SOL    HW116868  12.982   8.957   5.550
71657SOL    HW216869  12.860   8.926   5.466
71658SOL     OW16870   0.478  14.312   1.098
71658SOL    HW116871   0.444  14.332   1.186
71658SOL    HW216872   0.565  14.353   1.097
71659SOL     OW16873  14.349  12.094   7.773
71659SOL    HW116874  14.340  12.093   7.868
71659SOL    HW216875  14.407  12.167   7.755
71660SOL     OW16876   9.084  12.435   7.424
71660SOL    HW116877   9.110  12.449   7.333
71660SOL    HW216878   9.136  12.360   7.453
71661SOL     OW16879   9.045  13.432  13.635
71661SOL    HW116880   9.064  13.366  13.567
71661SOL    HW216881   9.089  13.398  13.713
71662SOL     OW16882   0.922   7.767   8.478
71662SOL    HW116883   0.902   7.765   8.384
71662SOL    HW216884   0.862   7.703   8.516
71663SOL     OW16885   9.166   0.754  14.750
71663SOL    HW116886   9.071   0.766  14.744
71663SOL    HW216887   9.195   0.821  14.812
71664SOL     OW16888  13.670  12.001   7.201
71664SOL    HW116889  13.708  11.915   7.219
71664SOL    HW216890  13.629  12.026   7.284
71665SOL     OW16891   4.506   8.034   4.094
71665SOL    HW116892   4.478   7.943   4.086
71665SOL    HW216893   4.466   8.079   4.020
71666SOL     OW16894   1.506  13.476   5.158
71666SOL    HW116895   1.426  13.526   5.172
71666SOL    HW216896   1.539  13.458   5.245
71667SOL     OW16897   9.244   6.839   6.640
71667SOL    HW116898   9.175   6.906   6.635
71667SOL    HW216899   9.201   6.758   6.613
71668SOL     OW16900   2.257   0.844   7.686
71668SOL    HW116901   2.174   0.819   7.727
71668SOL    HW216902   2.247   0.938   7.669
71669SOL     OW16903   5.953   6.256   2.940
71669SOL    HW116904   5.873   6.304   2.919
71669SOL    HW216905   5.947   6.175   2.890
71670SOL     OW16906  13.128   3.185   8.006
71670SOL    HW116907  13.092   3.241   7.938
71670SOL    HW216908  13.071   3.198   8.081
71671SOL     OW16909   7.271   8.485   4.468
71671SOL    HW116910   7.264   8.412   4.530
71671SOL    HW216911   7.184   8.492   4.429
71672SOL     OW16912   9.688   8.919   2.281
71672SOL    HW116913   9.678   9.009   2.251
71672SOL    HW216914   9.752   8.924   2.352
71673SOL     OW16915  11.813  14.458   9.274
71673SOL    HW116916  11.771  14.440   9.358
71673SOL    HW216917  11.821  14.554   9.271
71674SOL     OW16918   2.430   1.620   0.351
71674SOL    HW116919   2.506   1.610   0.409
71674SOL    HW216920   2.356   1.626   0.411
71675SOL     OW16921   2.052  12.725   4.384
71675SOL    HW116922   2.119  12.771   4.332
71675SOL    HW216923   1.989  12.793   4.407
71676SOL     OW16924   3.709  13.520   6.760
71676SOL    HW116925   3.650  13.509   6.685
71676SOL    HW216926   3.717  13.615   6.770
71677SOL     OW16927  13.796   5.428   5.112
71677SOL    HW116928  13.777   5.517   5.141
71677SOL    HW216929  13.886   5.431   5.083
71678SOL     OW16930   8.431  14.242  12.000
71678SOL    HW116931   8.442  14.167  11.942
71678SOL    HW216932   8.337  14.258  12.001
71679SOL     OW16933   8.573  14.218  11.424
71679SOL    HW116934   8.481  14.192  11.416
71679SOL    HW216935   8.620  14.136  11.441
71680SOL     OW16936   9.911   7.130   9.417
71680SOL    HW116937   9.950   7.042   9.425
71680SOL    HW216938   9.849   7.122   9.346
71681SOL     OW16939   5.458   8.692  13.212
71681SOL    HW116940   5.483   8.777  13.248
71681SOL    HW216941   5.540   8.642  13.209
71682SOL     OW16942  12.525   2.323  12.345
71682SOL    HW116943  12.614   2.357  12.353
71682SOL    HW216944  12.472   2.400  12.325
71683SOL     OW16945   8.793  10.981  14.645
71683SOL    HW116946   8.873  10.989  14.698
71683SOL    HW216947   8.756  10.897  14.670
71684SOL     OW16948  10.456  13.843  14.396
71684SOL    HW116949  10.447  13.789  14.317
71684SOL    HW216950  10.438  13.932  14.367
71685SOL     OW16951  11.628  11.642  14.273
71685SOL    HW116952  11.705  11.687  14.237
71685SOL    HW216953  11.598  11.586  14.202
71686SOL     OW16954   9.640  10.122  14.567
71686SOL    HW116955   9.584  10.050  14.540
71686SOL    HW216956   9.656  10.171  14.486
71687SOL     OW16957  13.261   3.185  14.616
71687SOL    HW116958  13.196   3.255  14.618
71687SOL    HW216959  13.297   3.183  14.705
71688SOL     OW16960  11.980   5.452  11.530
71688SOL    HW116961  12.050   5.410  11.581
71688SOL    HW216962  11.964   5.392  11.457
71689SOL     OW16963   7.777   1.590   2.104
71689SOL    HW116964   7.785   1.677   2.144
71689SOL    HW216965   7.723   1.540   2.166
71690SOL     OW16966   3.752   4.875  13.321
71690SOL    HW116967   3.671   4.871  13.269
71690SOL    HW216968   3.726   4.844  13.408
71691SOL     OW16969  14.307  14.747  10.170
71691SOL    HW116970  14.300  14.838  10.197
71691SOL    HW216971  14.311  14.697  10.251
71692SOL     OW16972  12.557   0.713   2.223
71692SOL    HW116973  12.625   0.713   2.156
71692SOL    HW216974  12.604   0.697   2.305
71693SOL     OW16975   8.623  14.064   4.473
71693SOL    HW116976   8.560  14.115   4.422
71693SOL    HW216977   8.706  14.111   4.461
71694SOL     OW16978   0.286   8.595   3.033
71694SOL    HW116979   0.206   8.567   2.988
71694SOL    HW216980   0.263   8.678   3.074
71695SOL     OW16981   5.036   8.007  10.354
71695SOL    HW116982   4.997   7.921  10.372
71695SOL    HW216983   5.003   8.029  10.266
71696SOL     OW16984   4.666   2.447  14.324
71696SOL    HW116985   4.738   2.390  14.298
71696SOL    HW216986   4.704   2.505  14.390
71697SOL     OW16987   0.273   1.754   0.750
71697SOL    HW116988   0.244   1.745   0.841
71697SOL    HW216989   0.356   1.707   0.746
71698SOL     OW16990  14.559   6.669  10.627
71698SOL    HW116991  14.488   6.607  10.641
71698SOL    HW216992  14.610   6.632  10.555
71699SOL     OW16993  11.449  12.478   5.591
71699SOL    HW116994  11.489  12.394   5.568
71699SOL    HW216995  11.358  12.471   5.561
71700SOL     OW16996  14.022  10.103   4.556
71700SOL    HW116997  14.011  10.013   4.585
71700SOL    HW216998  14.037  10.153   4.636
71701SOL     OW16999   6.720   7.672   6.768
71701SOL    HW117000   6.734   7.645   6.677
71701SOL    HW217001   6.630   7.645   6.788
71702SOL     OW17002   6.354   4.391   2.349
71702SOL    HW117003   6.416   4.394   2.422
71702SOL    HW217004   6.284   4.333   2.378
71703SOL     OW17005   7.552   7.826   3.327
71703SOL    HW117006   7.460   7.851   3.320
71703SOL    HW217007   7.555   7.734   3.300
71704SOL     OW17008   9.098   6.541   1.241
71704SOL    HW117009   9.127   6.466   1.189
71704SOL    HW217010   9.124   6.519   1.330
71705SOL     OW17011   4.175  11.681   7.057
71705SOL    HW117012   4.164  11.595   7.097
71705SOL    HW217013   4.097  11.730   7.081
71706SOL     OW17014   3.014  13.069  11.116
71706SOL    HW117015   3.018  12.976  11.095
71706SOL    HW217016   3.093  13.086  11.167
71707SOL     OW17017  14.251   3.412   4.925
71707SOL    HW117018  14.235   3.453   5.010
71707SOL    HW217019  14.339   3.376   4.932
71708SOL     OW17020   4.972   3.831   3.415
71708SOL    HW117021   4.909   3.832   3.487
71708SOL    HW217022   4.964   3.918   3.375
71709SOL     OW17023   1.543  14.164   5.905
71709SOL    HW117024   1.492  14.220   5.847
71709SOL    HW217025   1.593  14.108   5.846
71710SOL     OW17026   3.324   0.944   7.489
71710SOL    HW117027   3.284   0.914   7.571
71710SOL    HW217028   3.382   1.015   7.516
71711SOL     OW17029  12.974  10.533   9.428
71711SOL    HW117030  13.000  10.475   9.499
71711SOL    HW217031  12.889  10.569   9.457
71712SOL     OW17032  14.765   1.758   6.129
71712SOL    HW117033  14.729   1.712   6.204
71712SOL    HW217034  14.827   1.697   6.090
71713SOL     OW17035   7.664   8.500   0.285
71713SOL    HW117036   7.613   8.446   0.225
71713SOL    HW217037   7.660   8.455   0.369
71714SOL     OW17038   8.229   6.233   3.266
71714SOL    HW117039   8.308   6.181   3.278
71714SOL    HW217040   8.172   6.208   3.339
71715SOL     OW17041   7.472   9.162  13.676
71715SOL    HW117042   7.535   9.229  13.703
71715SOL    HW217043   7.504   9.132  13.591
71716SOL     OW17044  12.043  10.447   0.308
71716SOL    HW117045  12.032  10.355   0.333
71716SOL    HW217046  11.955  10.484   0.312
71717SOL     OW17047   8.246   8.468  11.989
71717SOL    HW117048   8.272   8.463  12.081
71717SOL    HW217049   8.314   8.420  11.942
71718SOL     OW17050   8.002   2.033   9.437
71718SOL    HW117051   8.081   1.981   9.450
71718SOL    HW217052   8.024   2.092   9.364
71719SOL     OW17053   8.982   6.182  11.809
71719SOL    HW117054   8.946   6.269  11.828
71719SOL    HW217055   8.908   6.122  11.823
71720SOL     OW17056   9.415   6.777   3.602
71720SOL    HW117057   9.416   6.864   3.562
71720SOL    HW217058   9.406   6.794   3.696
71721SOL     OW17059   0.982  12.453   8.006
71721SOL    HW117060   1.054  12.513   7.988
71721SOL    HW217061   0.984  12.391   7.934
71722SOL     OW17062   3.431  10.029   3.364
71722SOL    HW117063   3.358  10.087   3.342
71722SOL    HW217064   3.409   9.945   3.322
71723SOL     OW17065   4.944  13.218   3.700
71723SOL    HW117066   5.015  13.274   3.667
71723SOL    HW217067   4.865  13.255   3.662
71724SOL     OW17068   6.967   4.454  13.386
71724SOL    HW117069   7.027   4.398  13.336
71724SOL    HW217070   7.008   4.541  13.382
71725SOL     OW17071   0.219   6.570   4.159
71725SOL    HW117072   0.242   6.569   4.065
71725SOL    HW217073   0.304   6.576   4.203
71726SOL     OW17074  13.956  10.377   8.510
71726SOL    HW117075  13.955  10.447   8.445
71726SOL    HW217076  13.870  10.337   8.504
71727SOL     OW17077   0.743  10.960   4.901
71727SOL    HW117078   0.681  11.032   4.894
71727SOL    HW217079   0.731  10.910   4.819
71728SOL     OW17080   2.551  11.684   3.331
71728SOL    HW117081   2.508  11.606   3.367
71728SOL    HW217082   2.494  11.712   3.260
71729SOL     OW17083  10.577   1.429   3.710
71729SOL    HW117084  10.650   1.450   3.652
71729SOL    HW217085  10.534   1.353   3.669
71730SOL     OW17086   3.940   9.490   7.557
71730SOL    HW117087   3.999   9.484   7.632
71730SOL    HW217088   3.981   9.554   7.499
71731SOL     OW17089   8.253   1.754   5.150
71731SOL    HW117090   8.205   1.833   5.175
71731SOL    HW217091   8.344   1.783   5.141
71732SOL     OW17092  10.774   6.785   7.676
71732SOL    HW117093  10.706   6.826   7.622
71732SOL    HW217094  10.851   6.839   7.661
71733SOL     OW17095   0.159  14.176   5.473
71733SOL    HW117096   0.162  14.150   5.381
71733SOL    HW217097   0.074  14.219   5.483
71734SOL     OW17098   1.945   8.862   1.453
71734SOL    HW117099   1.897   8.782   1.430
71734SOL    HW217100   1.926   8.875   1.546
71735SOL     OW17101   3.392   6.149  14.412
71735SOL    HW117102   3.450   6.075  14.394
71735SOL    HW217103   3.390   6.156  14.507
71736SOL     OW17104   0.254  12.953   6.217
71736SOL    HW117105   0.221  12.974   6.304
71736SOL    HW217106   0.204  12.875   6.190
71737SOL     OW17107   2.774  13.448   2.547
71737SOL    HW117108   2.777  13.468   2.453
71737SOL    HW217109   2.727  13.521   2.586
71738SOL     OW17110   4.437   2.807  14.023
71738SOL    HW117111   4.364   2.823  14.083
71738SOL    HW217112   4.491   2.742  14.067
71739SOL     OW17113   2.883   2.883  12.799
71739SOL    HW117114   2.959   2.922  12.756
71739SOL    HW217115   2.833   2.842  12.728
71740SOL     OW17116  10.358   5.941   3.316
71740SOL    HW117117  10.306   5.973   3.390
71740SOL    HW217118  10.301   5.949   3.240
71741SOL     OW17119   7.510  10.076   8.149
71741SOL    HW117120   7.554  10.075   8.234
71741SOL    HW217121   7.426  10.118   8.165
71742SOL     OW17122   4.267  11.529  11.694
71742SOL    HW117123   4.213  11.456  11.724
71742SOL    HW217124   4.261  11.527  11.599
71743SOL     OW17125   6.312   7.554  13.700
71743SOL    HW117126   6.269   7.469  13.686
71743SOL    HW217127   6.403   7.539  13.676
71744SOL     OW17128   9.018   0.306   8.346
71744SOL    HW117129   9.036   0.264   8.430
71744SOL    HW217130   8.968   0.242   8.297
71745SOL     OW17131   6.412  13.537  12.807
71745SOL    HW117132   6.358  13.469  12.767
71745SOL    HW217133   6.497  13.529  12.764
71746SOL     OW17134   5.717  11.142   6.936
71746SOL    HW117135   5.787  11.090   6.974
71746SOL    HW217136   5.702  11.212   7.000
71747SOL     OW17137  12.871   9.639  12.345
71747SOL    HW117138  12.796   9.589  12.379
71747SOL    HW217139  12.833   9.696  12.278
71748SOL     OW17140   4.131  11.573   8.811
71748SOL    HW117141   4.201  11.545   8.752
71748SOL    HW217142   4.051  11.538   8.772
71749SOL     OW17143   1.603   6.164   2.348
71749SOL    HW117144   1.558   6.246   2.331
71749SOL    HW217145   1.533   6.100   2.359
71750SOL     OW17146   2.876  12.343   0.411
71750SOL    HW117147   2.814  12.390   0.466
71750SOL    HW217148   2.932  12.296   0.473
71751SOL     OW17149  13.014  12.139   4.180
71751SOL    HW117150  13.057  12.208   4.130
71751SOL    HW217151  12.947  12.104   4.121
71752SOL     OW17152   8.009  10.706  11.624
71752SOL    HW117153   8.057  10.623  11.625
71752SOL    HW217154   8.075  10.772  11.605
71753SOL     OW17155  13.898   0.584   2.752
71753SOL    HW117156  13.935   0.611   2.668
71753SOL    HW217157  13.892   0.489   2.746
71754SOL     OW17158  14.726  11.301   1.686
71754SOL    HW117159  14.695  11.218   1.650
71754SOL    HW217160  14.645  11.351   1.702
71755SOL     OW17161  11.281  12.283   6.616
71755SOL    HW117162  11.290  12.264   6.710
71755SOL    HW217163  11.232  12.365   6.613
71756SOL     OW17164   4.421  12.948   2.239
71756SOL    HW117165   4.470  12.975   2.317
71756SOL    HW217166   4.390  13.030   2.201
71757SOL     OW17167   2.480  12.898  14.376
71757SOL    HW117168   2.493  12.819  14.430
71757SOL    HW217169   2.551  12.956  14.400
71758SOL     OW17170   6.924   3.506  10.320
71758SOL    HW117171   6.900   3.546  10.403
71758SOL    HW217172   6.853   3.446  10.300
71759SOL     OW17173   8.863   1.790  11.158
71759SOL    HW117174   8.806   1.807  11.084
71759SOL    HW217175   8.805   1.793  11.234
71760SOL     OW17176  11.537  13.479  10.764
71760SOL    HW117177  11.541  13.447  10.674
71760SOL    HW217178  11.539  13.575  10.756
71761SOL     OW17179  11.779  11.269   2.699
71761SOL    HW117180  11.773  11.364   2.689
71761SOL    HW217181  11.781  11.236   2.609
71762SOL     OW17182   8.204  10.095   5.857
71762SOL    HW117183   8.175  10.055   5.939
71762SOL    HW217184   8.132  10.078   5.796
71763SOL     OW17185  11.710   4.808  11.984
71763SOL    HW117186  11.654   4.886  11.981
71763SOL    HW217187  11.707   4.780  12.075
71764SOL     OW17188  10.192   0.439  11.805
71764SOL    HW117189  10.174   0.350  11.835
71764SOL    HW217190  10.226   0.429  11.716
71765SOL     OW17191  13.991  12.613   3.976
71765SOL    HW117192  14.055  12.613   3.905
71765SOL    HW217193  13.981  12.520   3.999
71766SOL     OW17194   0.820   2.868   3.457
71766SOL    HW117195   0.903   2.829   3.486
71766SOL    HW217196   0.771   2.794   3.421
71767SOL     OW17197   0.110   0.770   0.953
71767SOL    HW117198   0.141   0.808   1.036
71767SOL    HW217199   0.088   0.680   0.975
71768SOL     OW17200  13.286   0.162   5.209
71768SOL    HW117201  13.328   0.127   5.287
71768SOL    HW217202  13.315   0.104   5.138
71769SOL     OW17203  13.297   7.838   0.844
71769SOL    HW117204  13.278   7.789   0.925
71769SOL    HW217205  13.260   7.925   0.859
71770SOL     OW17206  10.916  13.254   3.773
71770SOL    HW117207  10.864  13.311   3.830
71770SOL    HW217208  10.874  13.261   3.687
71771SOL     OW17209   0.264   7.303  12.559
71771SOL    HW117210   0.271   7.274  12.468
71771SOL    HW217211   0.189   7.254  12.593
71772SOL     OW17212   1.649   5.118  14.865
71772SOL    HW117213   1.575   5.178   0.002
71772SOL    HW217214   1.723   5.175  14.848
71773SOL     OW17215   1.226   2.011  13.107
71773SOL    HW117216   1.202   2.092  13.061
71773SOL    HW217217   1.186   1.942  13.055
71774SOL     OW17218  13.351   2.919   1.998
71774SOL    HW117219  13.298   2.862   1.942
71774SOL    HW217220  13.323   3.008   1.975
71775SOL     OW17221  12.665   0.772  13.360
71775SOL    HW117222  12.599   0.823  13.405
71775SOL    HW217223  12.621   0.737  13.283
71776SOL     OW17224  11.050  12.477   1.098
71776SOL    HW117225  11.015  12.523   1.021
71776SOL    HW217226  11.144  12.472   1.082
71777SOL     OW17227   7.682  12.316   5.507
71777SOL    HW117228   7.614  12.366   5.551
71777SOL    HW217229   7.637  12.271   5.435
71778SOL     OW17230   2.304   2.528   3.784
71778SOL    HW117231   2.210   2.507   3.792
71778SOL    HW217232   2.311   2.617   3.818
71779SOL     OW17233   6.729   9.795   9.423
71779SOL    HW117234   6.701   9.886   9.427
71779SOL    HW217235   6.722   9.764   9.513
71780SOL     OW17236   7.191  11.102   8.592
71780SOL    HW117237   7.190  11.110   8.497
71780SOL    HW217238   7.265  11.155   8.621
71781SOL     OW17239   4.813  11.320   0.424
71781SOL    HW117240   4.777  11.240   0.463
71781SOL    HW217241   4.896  11.334   0.470
71782SOL     OW17242   2.367  13.885   9.350
71782SOL    HW117243   2.444  13.887   9.407
71782SOL    HW217244   2.316  13.961   9.377
71783SOL     OW17245   0.460  14.571  11.744
71783SOL    HW117246   0.448  14.642  11.807
71783SOL    HW217247   0.378  14.569  11.694
71784SOL     OW17248   8.568   3.139  10.381
71784SOL    HW117249   8.567   3.134  10.476
71784SOL    HW217250   8.571   3.048  10.352
71785SOL     OW17251   7.002   7.408   8.728
71785SOL    HW117252   7.012   7.329   8.674
71785SOL    HW217253   6.952   7.379   8.804
71786SOL     OW17254  14.775  12.451   5.610
71786SOL    HW117255  14.745  12.383   5.551
71786SOL    HW217256  14.695  12.492   5.643
71787SOL     OW17257  12.349   4.989  10.153
71787SOL    HW117258  12.366   4.895  10.158
71787SOL    HW217259  12.362   5.011  10.060
71788SOL     OW17260   9.880   2.536   8.231
71788SOL    HW117261   9.972   2.563   8.233
71788SOL    HW217262   9.855   2.546   8.139
71789SOL     OW17263  10.335   0.891   8.492
71789SOL    HW117264  10.352   0.979   8.459
71789SOL    HW217265  10.414   0.867   8.541
71790SOL     OW17266   7.475   9.990   7.657
71790SOL    HW117267   7.438   9.938   7.728
71790SOL    HW217268   7.485   9.928   7.585
71791SOL     OW17269   8.766   4.673   3.558
71791SOL    HW117270   8.843   4.721   3.588
71791SOL    HW217271   8.761   4.596   3.615
71792SOL     OW17272   9.927   5.177  11.391
71792SOL    HW117273   9.841   5.200  11.356
71792SOL    HW217274   9.926   5.081  11.396
71793SOL     OW17275   9.127   7.122   0.739
71793SOL    HW117276   9.196   7.187   0.723
71793SOL    HW217277   9.095   7.099   0.652
71794SOL     OW17278  12.229  14.017   2.837
71794SOL    HW117279  12.155  13.959   2.856
71794SOL    HW217280  12.275  14.024   2.921
71795SOL     OW17281   2.071  10.617  13.118
71795SOL    HW117282   2.074  10.640  13.025
71795SOL    HW217283   2.031  10.694  13.160
71796SOL     OW17284   0.643   1.613   3.330
71796SOL    HW117285   0.575   1.566   3.378
71796SOL    HW217286   0.610   1.703   3.324
71797SOL     OW17287  13.922   5.692  11.292
71797SOL    HW117288  13.891   5.602  11.305
71797SOL    HW217289  13.844   5.746  11.307
71798SOL     OW17290   6.380   7.401   8.070
71798SOL    HW117291   6.346   7.490   8.057
71798SOL    HW217292   6.440   7.409   8.144
71799SOL     OW17293  13.295   8.451   0.206
71799SOL    HW117294  13.221   8.409   0.162
71799SOL    HW217295  13.372   8.424   0.155
71800SOL     OW17296   0.222   5.298   5.658
71800SOL    HW117297   0.268   5.374   5.623
71800SOL    HW217298   0.287   5.228   5.656
71801SOL     OW17299  12.907   2.610   5.226
71801SOL    HW117300  12.863   2.556   5.160
71801SOL    HW217301  12.911   2.554   5.304
71802SOL     OW17302   5.236  13.805  12.619
71802SOL    HW117303   5.152  13.826  12.577
71802SOL    HW217304   5.213  13.740  12.686
71803SOL     OW17305  13.015   7.887   5.149
71803SOL    HW117306  13.049   7.943   5.080
71803SOL    HW217307  13.092   7.846   5.188
71804SOL     OW17308   6.876  14.113   9.527
71804SOL    HW117309   6.954  14.102   9.474
71804SOL    HW217310   6.831  14.029   9.520
71805SOL     OW17311   6.463  14.671  10.887
71805SOL    HW117312   6.494  14.749  10.841
71805SOL    HW217313   6.414  14.623  10.821
71806SOL     OW17314  11.950   3.456   9.390
71806SOL    HW117315  11.881   3.438   9.455
71806SOL    HW217316  11.964   3.550   9.395
71807SOL     OW17317  11.031   2.561   2.931
71807SOL    HW117318  11.040   2.563   3.026
71807SOL    HW217319  10.998   2.648   2.908
71808SOL     OW17320  14.309   3.716   2.922
71808SOL    HW117321  14.377   3.756   2.868
71808SOL    HW217322  14.233   3.774   2.912
71809SOL     OW17323   0.629  12.993   1.119
71809SOL    HW117324   0.593  13.056   1.181
71809SOL    HW217325   0.712  13.032   1.091
71810SOL     OW17326   0.393   5.864   3.441
71810SOL    HW117327   0.395   5.772   3.468
71810SOL    HW217328   0.483   5.895   3.455
71811SOL     OW17329   3.186   7.719   6.270
71811SOL    HW117330   3.196   7.724   6.175
71811SOL    HW217331   3.213   7.806   6.302
71812SOL     OW17332   0.330   9.024   6.573
71812SOL    HW117333   0.300   9.035   6.483
71812SOL    HW217334   0.420   9.058   6.572
71813SOL     OW17335   3.860   6.378  13.596
71813SOL    HW117336   3.843   6.362  13.689
71813SOL    HW217337   3.907   6.461  13.594
71814SOL     OW17338  13.350  12.198  14.481
71814SOL    HW117339  13.378  12.107  14.476
71814SOL    HW217340  13.262  12.197  14.443
71815SOL     OW17341   9.536   2.371   1.151
71815SOL    HW117342   9.564   2.435   1.216
71815SOL    HW217343   9.610   2.363   1.091
71816SOL     OW17344  14.775   5.908  13.570
71816SOL    HW117345  14.777   5.840  13.503
71816SOL    HW217346  14.764   5.990  13.521
71817SOL     OW17347  11.916   8.056  13.853
71817SOL    HW117348  11.983   8.059  13.921
71817SOL    HW217349  11.927   7.969  13.813
71818SOL     OW17350   4.562   9.207   4.081
71818SOL    HW117351   4.470   9.183   4.072
71818SOL    HW217352   4.606   9.165   4.007
71819SOL     OW17353   4.454   8.103  13.337
71819SOL    HW117354   4.513   8.030  13.352
71819SOL    HW217355   4.397   8.074  13.266
71820SOL     OW17356   7.849   9.355   3.498
71820SOL    HW117357   7.756   9.335   3.499
71820SOL    HW217358   7.892   9.269   3.496
71821SOL     OW17359  14.795  14.368   1.315
71821SOL    HW117360  14.826  14.363   1.405
71821SOL    HW217361  14.864  14.327   1.263
71822SOL     OW17362  11.291   0.047   1.047
71822SOL    HW117363  11.370   0.031   1.099
71822SOL    HW217364  11.307  14.877   0.966
71823SOL     OW17365  13.316  14.272  14.618
71823SOL    HW117366  13.285  14.345  14.673
71823SOL    HW217367  13.403  14.253  14.652
71824SOL     OW17368   5.097   7.317   4.527
71824SOL    HW117369   5.096   7.228   4.563
71824SOL    HW217370   5.185   7.327   4.491
71825SOL     OW17371   8.514  12.671  12.919
71825SOL    HW117372   8.482  12.761  12.930
71825SOL    HW217373   8.437  12.622  12.891
71826SOL     OW17374  12.477   7.521   9.735
71826SOL    HW117375  12.436   7.547   9.652
71826SOL    HW217376  12.423   7.449   9.767
71827SOL     OW17377   1.338  10.867   5.135
71827SOL    HW117378   1.323  10.801   5.202
71827SOL    HW217379   1.407  10.923   5.171
71828SOL     OW17380   2.167   8.039  10.699
71828SOL    HW117381   2.106   8.096  10.747
71828SOL    HW217382   2.183   8.085  10.617
71829SOL     OW17383   2.535   3.577   1.751
71829SOL    HW117384   2.446   3.589   1.717
71829SOL    HW217385   2.574   3.510   1.695
71830SOL     OW17386   5.409  10.977  10.114
71830SOL    HW117387   5.418  10.883  10.130
71830SOL    HW217388   5.468  11.017  10.177
71831SOL     OW17389   9.266   9.527   0.904
71831SOL    HW117390   9.348   9.496   0.942
71831SOL    HW217391   9.250   9.469   0.830
71832SOL     OW17392   4.492   7.378   0.838
71832SOL    HW117393   4.486   7.449   0.774
71832SOL    HW217394   4.406   7.376   0.880
71833SOL     OW17395   7.391   1.092  13.933
71833SOL    HW117396   7.413   1.185  13.922
71833SOL    HW217397   7.344   1.088  14.016
71834SOL     OW17398  11.868   6.797   4.771
71834SOL    HW117399  11.783   6.801   4.727
71834SOL    HW217400  11.883   6.704   4.786
71835SOL     OW17401   9.517   8.474  13.447
71835SOL    HW117402   9.611   8.488  13.449
71835SOL    HW217403   9.480   8.559  13.423
71836SOL     OW17404  11.872  12.209  11.718
71836SOL    HW117405  11.802  12.243  11.773
71836SOL    HW217406  11.923  12.286  11.694
71837SOL     OW17407  12.368  10.741  14.631
71837SOL    HW117408  12.458  10.772  14.636
71837SOL    HW217409  12.371  10.665  14.573
71838SOL     OW17410  13.121   1.156  11.857
71838SOL    HW117411  13.081   1.088  11.802
71838SOL    HW217412  13.113   1.236  11.804
71839SOL     OW17413   6.580  10.440   0.594
71839SOL    HW117414   6.660  10.487   0.571
71839SOL    HW217415   6.510  10.499   0.566
71840SOL     OW17416  10.687  12.853   4.258
71840SOL    HW117417  10.636  12.823   4.182
71840SOL    HW217418  10.732  12.932   4.227
71841SOL     OW17419   7.406  14.486  10.818
71841SOL    HW117420   7.338  14.472  10.884
71841SOL    HW217421   7.444  14.571  10.840
71842SOL     OW17422  10.657   8.405   6.847
71842SOL    HW117423  10.692   8.329   6.894
71842SOL    HW217424  10.567   8.414   6.879
71843SOL     OW17425  11.438   5.011   0.557
71843SOL    HW117426  11.395   5.039   0.476
71843SOL    HW217427  11.421   4.917   0.561
71844SOL     OW17428  12.002   2.251  14.588
71844SOL    HW117429  11.933   2.251  14.523
71844SOL    HW217430  12.021   2.343  14.604
71845SOL     OW17431  12.825   9.003  11.347
71845SOL    HW117432  12.830   9.089  11.389
71845SOL    HW217433  12.736   8.998  11.314
71846SOL     OW17434  14.151   1.357  10.557
71846SOL    HW117435  14.220   1.308  10.601
71846SOL    HW217436  14.198   1.424  10.507
71847SOL     OW17437   7.874   9.955  12.944
71847SOL    HW117438   7.842   9.959  13.034
71847SOL    HW217439   7.953  10.009  12.944
71848SOL     OW17440   7.329   0.932   3.709
71848SOL    HW117441   7.383   0.886   3.645
71848SOL    HW217442   7.388   0.948   3.782
71849SOL     OW17443   5.300   1.734   4.542
71849SOL    HW117444   5.347   1.704   4.620
71849SOL    HW217445   5.341   1.686   4.470
71850SOL     OW17446   1.854   8.547   9.814
71850SOL    HW117447   1.861   8.584   9.901
71850SOL    HW217448   1.775   8.492   9.817
71851SOL     OW17449   6.496  12.725  11.490
71851SOL    HW117450   6.559  12.790  11.520
71851SOL    HW217451   6.465  12.758  11.406
71852SOL     OW17452   7.688  11.254   1.357
71852SOL    HW117453   7.782  11.270   1.345
71852SOL    HW217454   7.665  11.195   1.285
71853SOL     OW17455  10.043   2.781   7.621
71853SOL    HW117456  10.124   2.812   7.662
71853SOL    HW217457   9.977   2.847   7.644
71854SOL     OW17458   3.146  13.049   2.333
71854SOL    HW117459   3.227  13.097   2.348
71854SOL    HW217460   3.102  13.049   2.418
71855SOL     OW17461  14.704  11.454   3.422
71855SOL    HW117462  14.765  11.522   3.395
71855SOL    HW217463  14.745  11.372   3.394
71856SOL     OW17464   0.180   8.309  13.584
71856SOL    HW117465   0.229   8.390  13.594
71856SOL    HW217466   0.233   8.256  13.524
71857SOL     OW17467  14.252  12.288   0.889
71857SOL    HW117468  14.223  12.234   0.962
71857SOL    HW217469  14.312  12.351   0.928
71858SOL     OW17470   2.261   7.963   3.155
71858SOL    HW117471   2.190   8.014   3.192
71858SOL    HW217472   2.340   8.011   3.180
71859SOL     OW17473  12.356  10.197  10.599
71859SOL    HW117474  12.293  10.127  10.617
71859SOL    HW217475  12.427  10.155  10.551
71860SOL     OW17476   1.602   1.280   1.467
71860SOL    HW117477   1.573   1.242   1.550
71860SOL    HW217478   1.527   1.271   1.409
71861SOL     OW17479   7.617   3.257   3.020
71861SOL    HW117480   7.538   3.282   3.067
71861SOL    HW217481   7.610   3.303   2.936
71862SOL     OW17482   7.234   1.131   6.999
71862SOL    HW117483   7.212   1.121   7.091
71862SOL    HW217484   7.313   1.186   6.999
71863SOL     OW17485   2.488   9.937   8.621
71863SOL    HW117486   2.419   9.914   8.559
71863SOL    HW217487   2.570   9.913   8.576
71864SOL     OW17488  14.385  14.635   8.806
71864SOL    HW117489  14.480  14.638   8.802
71864SOL    HW217490  14.362  14.694   8.878
71865SOL     OW17491   7.626   0.495   8.687
71865SOL    HW117492   7.589   0.418   8.644
71865SOL    HW217493   7.616   0.478   8.780
71866SOL     OW17494   7.922   8.789   1.220
71866SOL    HW117495   7.892   8.700   1.240
71866SOL    HW217496   7.842   8.839   1.205
71867SOL     OW17497  13.690   7.420  14.640
71867SOL    HW117498  13.602   7.386  14.626
71867SOL    HW217499  13.744   7.342  14.653
71868SOL     OW17500   6.565   2.207   8.557
71868SOL    HW117501   6.562   2.113   8.538
71868SOL    HW217502   6.487   2.243   8.515
71869SOL     OW17503   7.639   9.643   3.944
71869SOL    HW117504   7.653   9.573   3.880
71869SOL    HW217505   7.637   9.599   4.028
71870SOL     OW17506   7.128  13.693   7.239
71870SOL    HW117507   7.118  13.752   7.165
71870SOL    HW217508   7.189  13.739   7.297
71871SOL     OW17509   2.768   3.398   4.532
71871SOL    HW117510   2.804   3.417   4.618
71871SOL    HW217511   2.788   3.475   4.479
71872SOL     OW17512  12.570   6.419   9.401
71872SOL    HW117513  12.526   6.334   9.411
71872SOL    HW217514  12.663   6.398   9.396
71873SOL     OW17515   4.617  14.467  10.805
71873SOL    HW117516   4.577  14.387  10.771
71873SOL    HW217517   4.668  14.439  10.881
71874SOL     OW17518   7.712   5.666   1.743
71874SOL    HW117519   7.790   5.700   1.787
71874SOL    HW217520   7.716   5.703   1.654
71875SOL     OW17521   6.767  12.272   1.006
71875SOL    HW117522   6.786  12.280   1.099
71875SOL    HW217523   6.747  12.361   0.978
71876SOL     OW17524  13.023  11.970  12.522
71876SOL    HW117525  13.059  11.930  12.601
71876SOL    HW217526  12.971  12.044  12.554
71877SOL     OW17527   3.404   8.119   2.201
71877SOL    HW117528   3.338   8.056   2.174
71877SOL    HW217529   3.486   8.070   2.201
71878SOL     OW17530  11.192   1.405  12.366
71878SOL    HW117531  11.255   1.335  12.385
71878SOL    HW217532  11.244   1.473  12.323
71879SOL     OW17533   8.845   4.020   1.256
71879SOL    HW117534   8.779   4.054   1.316
71879SOL    HW217535   8.823   3.928   1.245
71880SOL     OW17536   3.001  14.084  13.368
71880SOL    HW117537   2.975  14.055  13.281
71880SOL    HW217538   2.964  14.019  13.427
71881SOL     OW17539   9.994   2.831   1.111
71881SOL    HW117540  10.077   2.879   1.112
71881SOL    HW217541   9.927   2.900   1.114
71882SOL     OW17542  14.174   6.244   8.864
71882SOL    HW117543  14.080   6.235   8.880
71882SOL    HW217544  14.206   6.297   8.938
71883SOL     OW17545  12.514   8.022  13.148
71883SOL    HW117546  12.504   8.002  13.054
71883SOL    HW217547  12.607   8.041  13.158
71884SOL     OW17548  11.174   0.822  13.279
71884SOL    HW117549  11.195   0.739  13.322
71884SOL    HW217550  11.221   0.818  13.195
71885SOL     OW17551  13.621   8.949   1.113
71885SOL    HW117552  13.592   8.935   1.203
71885SOL    HW217553  13.697   8.891   1.104
71886SOL     OW17554   0.623   3.991   9.417
71886SOL    HW117555   0.601   4.074   9.460
71886SOL    HW217556   0.556   3.981   9.350
71887SOL     OW17557   1.852   2.075   3.628
71887SOL    HW117558   1.799   2.027   3.692
71887SOL    HW217559   1.875   2.157   3.671
71888SOL     OW17560   5.167  14.219  10.562
71888SOL    HW117561   5.087  14.230  10.511
71888SOL    HW217562   5.233  14.193  10.497
71889SOL     OW17563   3.891   5.659  12.607
71889SOL    HW117564   3.972   5.699  12.638
71889SOL    HW217565   3.837   5.733  12.580
71890SOL     OW17566   0.610   3.971   3.098
71890SOL    HW117567   0.553   3.899   3.123
71890SOL    HW217568   0.670   3.981   3.172
71891SOL     OW17569   1.670   7.363  11.752
71891SOL    HW117570   1.682   7.292  11.688
71891SOL    HW217571   1.651   7.317  11.834
71892SOL     OW17572   9.596  10.102   8.719
71892SOL    HW117573   9.620  10.075   8.808
71892SOL    HW217574   9.505  10.130   8.726
71893SOL     OW17575  14.752   9.328  14.790
71893SOL    HW117576  14.742   9.240  14.753
71893SOL    HW217577  14.694   9.383  14.738
71894SOL     OW17578   4.291  12.719  13.717
71894SOL    HW117579   4.235  12.788  13.752
71894SOL    HW217580   4.236  12.672  13.654
71895SOL     OW17581  12.430   1.393   0.225
71895SOL    HW117582  12.422   1.302   0.198
71895SOL    HW217583  12.499   1.393   0.291
71896SOL     OW17584   2.451   4.808   3.415
71896SOL    HW117585   2.540   4.841   3.430
71896SOL    HW217586   2.395   4.875   3.454
71897SOL     OW17587  10.692  11.862   0.366
71897SOL    HW117588  10.634  11.790   0.389
71897SOL    HW217589  10.780  11.831   0.387
71898SOL     OW17590   7.581   7.942   7.371
71898SOL    HW117591   7.675   7.929   7.357
71898SOL    HW217592   7.562   7.888   7.448
71899SOL     OW17593   4.537   9.913  13.721
71899SOL    HW117594   4.601   9.958  13.666
71899SOL    HW217595   4.567   9.823  13.725
71900SOL     OW17596  13.191  12.697  10.859
71900SOL    HW117597  13.158  12.645  10.932
71900SOL    HW217598  13.126  12.766  10.847
71901SOL     OW17599   5.907   7.027  11.322
71901SOL    HW117600   5.971   6.995  11.259
71901SOL    HW217601   5.824   7.026  11.274
71902SOL     OW17602   9.815  13.791   9.204
71902SOL    HW117603   9.804  13.885   9.210
71902SOL    HW217604   9.910  13.778   9.197
71903SOL     OW17605   6.772   8.462  14.290
71903SOL    HW117606   6.826   8.383  14.296
71903SOL    HW217607   6.686   8.431  14.262
71904SOL     OW17608   9.271   7.980   8.613
71904SOL    HW117609   9.247   7.895   8.649
71904SOL    HW217610   9.334   8.015   8.675
71905SOL     OW17611  10.076  12.869   0.052
71905SOL    HW117612  10.157  12.896   0.008
71905SOL    HW217613  10.006  12.895  14.870
71906SOL     OW17614   9.024   5.939  13.981
71906SOL    HW117615   9.070   6.022  13.970
71906SOL    HW217616   9.027   5.899  13.894
71907SOL     OW17617  12.620  12.855  12.344
71907SOL    HW117618  12.536  12.823  12.310
71907SOL    HW217619  12.599  12.941  12.382
71908SOL     OW17620   8.402   8.957   5.400
71908SOL    HW117621   8.328   8.923   5.450
71908SOL    HW217622   8.368   8.971   5.312
71909SOL     OW17623  12.753  10.763   4.229
71909SOL    HW117624  12.807  10.714   4.291
71909SOL    HW217625  12.802  10.844   4.213
71910SOL     OW17626  12.090   2.545  10.153
71910SOL    HW117627  12.168   2.543  10.098
71910SOL    HW217628  12.121   2.582  10.236
71911SOL     OW17629   9.555   5.397   8.548
71911SOL    HW117630   9.505   5.404   8.630
71911SOL    HW217631   9.539   5.480   8.503
71912SOL     OW17632   6.958   6.522   2.374
71912SOL    HW117633   6.972   6.616   2.364
71912SOL    HW217634   7.039   6.489   2.411
71913SOL     OW17635   8.112  14.033   8.914
71913SOL    HW117636   8.034  14.027   8.969
71913SOL    HW217637   8.095  13.975   8.840
71914SOL     OW17638   4.870   8.609   1.162
71914SOL    HW117639   4.954   8.655   1.164
71914SOL    HW217640   4.862   8.570   1.249
71915SOL     OW17641  14.030   5.711  12.457
71915SOL    HW117642  13.956   5.656  12.432
71915SOL    HW217643  14.033   5.704  12.553
71916SOL     OW17644   6.039   4.826  11.886
71916SOL    HW117645   6.098   4.811  11.812
71916SOL    HW217646   6.086   4.888  11.942
71917SOL     OW17647   4.645  11.238  14.341
71917SOL    HW117648   4.557  11.251  14.304
71917SOL    HW217649   4.673  11.154  14.305
71918SOL     OW17650   5.206   7.862   5.126
71918SOL    HW117651   5.243   7.778   5.098
71918SOL    HW217652   5.276   7.904   5.175
71919SOL     OW17653   2.659   0.943   5.111
71919SOL    HW117654   2.642   0.849   5.116
71919SOL    HW217655   2.614   0.980   5.188
71920SOL     OW17656  13.902  12.452   6.778
71920SOL    HW117657  13.943  12.484   6.859
71920SOL    HW217658  13.808  12.461   6.795
71921SOL     OW17659  12.035   0.880   0.829
71921SOL    HW117660  12.057   0.884   0.736
71921SOL    HW217661  12.061   0.792   0.857
71922SOL     OW17662   9.743   9.939   1.967
71922SOL    HW117663   9.758   9.982   2.051
71922SOL    HW217664   9.786   9.995   1.903
71923SOL     OW17665  12.910   5.773  13.234
71923SOL    HW117666  12.989   5.776  13.180
71923SOL    HW217667  12.934   5.719  13.309
71924SOL     OW17668  12.602   7.999   5.042
71924SOL    HW117669  12.659   7.980   4.968
71924SOL    HW217670  12.595   7.916   5.089
71925SOL     OW17671  10.845   6.962  10.207
71925SOL    HW117672  10.829   7.000  10.293
71925SOL    HW217673  10.916   7.015  10.170
71926SOL     OW17674   7.496   6.063  12.894
71926SOL    HW117675   7.527   6.153  12.900
71926SOL    HW217676   7.527   6.021  12.974
71927SOL     OW17677   6.743   2.134  13.181
71927SOL    HW117678   6.726   2.218  13.223
71927SOL    HW217679   6.749   2.156  13.088
71928SOL     OW17680  12.666  12.469   1.052
71928SOL    HW117681  12.620  12.527   1.112
71928SOL    HW217682  12.616  12.387   1.056
71929SOL     OW17683  10.475   4.187   9.827
71929SOL    HW117684  10.435   4.255   9.772
71929SOL    HW217685  10.419   4.184   9.904
71930SOL     OW17686  13.402   1.607  13.058
71930SOL    HW117687  13.458   1.529  13.063
71930SOL    HW217688  13.428   1.651  12.977
71931SOL     OW17689  14.248   3.712   3.332
71931SOL    HW117690  14.198   3.744   3.257
71931SOL    HW217691  14.185   3.712   3.404
71932SOL     OW17692  11.755   9.978   6.542
71932SOL    HW117693  11.696  10.001   6.614
71932SOL    HW217694  11.841  10.010   6.570
71933SOL     OW17695   2.348  11.563   7.374
71933SOL    HW117696   2.339  11.618   7.452
71933SOL    HW217697   2.259  11.557   7.338
71934SOL     OW17698   5.104   4.491  13.010
71934SOL    HW117699   5.104   4.406  12.966
71934SOL    HW217700   5.046   4.478  13.085
71935SOL     OW17701   7.397  11.949   3.896
71935SOL    HW117702   7.447  11.941   3.815
71935SOL    HW217703   7.412  12.038   3.926
71936SOL     OW17704  10.331  10.671   9.302
71936SOL    HW117705  10.237  10.671   9.319
71936SOL    HW217706  10.365  10.600   9.356
71937SOL     OW17707   7.259   6.854   9.712
71937SOL    HW117708   7.237   6.899   9.631
71937SOL    HW217709   7.340   6.895   9.742
71938SOL     OW17710  14.844   9.976  11.490
71938SOL    HW117711   0.033   9.987  11.558
71938SOL    HW217712  14.859   9.887  11.456
71939SOL     OW17713   0.620  11.237   6.427
71939SOL    HW117714   0.641  11.306   6.489
71939SOL    HW217715   0.604  11.283   6.344
71940SOL     OW17716  13.560  14.508  14.478
71940SOL    HW117717  13.546  14.588  14.530
71940SOL    HW217718  13.472  14.477  14.458
71941SOL     OW17719   8.004  13.283   8.580
71941SOL    HW117720   8.063  13.244   8.516
71941SOL    HW217721   7.930  13.314   8.529
71942SOL     OW17722   9.778   9.574   0.691
71942SOL    HW117723   9.802   9.497   0.639
71942SOL    HW217724   9.715   9.621   0.637
71943SOL     OW17725   3.228  12.290   4.160
71943SOL    HW117726   3.146  12.284   4.210
71943SOL    HW217727   3.272  12.207   4.177
71944SOL     OW17728   3.281  11.729  10.087
71944SOL    HW117729   3.301  11.773  10.170
71944SOL    HW217730   3.279  11.799  10.022
71945SOL     OW17731   4.640  14.039   0.660
71945SOL    HW117732   4.672  13.996   0.580
71945SOL    HW217733   4.560  13.990   0.682
71946SOL     OW17734   7.051  11.559   6.602
71946SOL    HW117735   7.054  11.654   6.590
71946SOL    HW217736   7.002  11.546   6.683
71947SOL     OW17737   6.923  12.060   1.597
71947SOL    HW117738   6.847  12.118   1.597
71947SOL    HW217739   6.924  12.022   1.509
71948SOL     OW17740   8.927  10.820   2.738
71948SOL    HW117741   9.009  10.828   2.689
71948SOL    HW217742   8.871  10.768   2.681
71949SOL     OW17743  13.257  14.508  14.767
71949SOL    HW117744  13.163  14.517  14.782
71949SOL    HW217745  13.297  14.563  14.835
71950SOL     OW17746   5.272   2.926  12.409
71950SOL    HW117747   5.180   2.944  12.389
71950SOL    HW217748   5.288   2.970  12.493
71951SOL     OW17749   5.942  13.109  11.185
71951SOL    HW117750   5.909  13.138  11.100
71951SOL    HW217751   5.912  13.176  11.246
71952SOL     OW17752   0.254   1.115   9.410
71952SOL    HW117753   0.257   1.132   9.316
71952SOL    HW217754   0.294   1.028   9.419
71953SOL     OW17755   6.341  10.248   7.297
71953SOL    HW117756   6.392  10.324   7.323
71953SOL    HW217757   6.402  10.175   7.303
71954SOL     OW17758   5.718   2.419  12.596
71954SOL    HW117759   5.663   2.444  12.521
71954SOL    HW217760   5.757   2.336  12.569
71955SOL     OW17761   5.837  12.575  12.693
71955SOL    HW117762   5.914  12.583  12.638
71955SOL    HW217763   5.864  12.609  12.779
71956SOL     OW17764   2.156  13.873  13.792
71956SOL    HW117765   2.157  13.932  13.717
71956SOL    HW217766   2.204  13.796  13.761
71957SOL     OW17767   2.232   7.357   3.213
71957SOL    HW117768   2.228   7.308   3.295
71957SOL    HW217769   2.325   7.374   3.200
71958SOL     OW17770   0.033   5.557  12.380
71958SOL    HW117771  14.869   5.620  12.321
71958SOL    HW217772   0.101   5.607  12.424
71959SOL     OW17773  11.392   8.754   1.597
71959SOL    HW117774  11.334   8.747   1.522
71959SOL    HW217775  11.472   8.708   1.570
71960SOL     OW17776   5.077   2.934   1.187
71960SOL    HW117777   5.023   2.900   1.258
71960SOL    HW217778   5.023   2.924   1.109
71961SOL     OW17779   7.939   5.199  13.633
71961SOL    HW117780   7.951   5.261  13.705
71961SOL    HW217781   7.855   5.157  13.652
71962SOL     OW17782  10.249   3.754  12.085
71962SOL    HW117783  10.278   3.777  12.173
71962SOL    HW217784  10.200   3.673  12.097
71963SOL     OW17785  13.375   6.814   8.955
71963SOL    HW117786  13.337   6.901   8.968
71963SOL    HW217787  13.405   6.787   9.042
71964SOL     OW17788  13.881   9.925   2.358
71964SOL    HW117789  13.787   9.910   2.369
71964SOL    HW217790  13.888   9.975   2.276
71965SOL     OW17791   8.221   0.609   7.758
71965SOL    HW117792   8.175   0.616   7.675
71965SOL    HW217793   8.256   0.520   7.759
71966SOL     OW17794   9.905  10.381   7.944
71966SOL    HW117795   9.871  10.304   7.989
71966SOL    HW217796   9.881  10.455   8.000
71967SOL     OW17797  12.410   5.765   6.483
71967SOL    HW117798  12.331   5.713   6.464
71967SOL    HW217799  12.458   5.711   6.546
71968SOL     OW17800   7.748  11.390   2.136
71968SOL    HW117801   7.771  11.312   2.185
71968SOL    HW217802   7.674  11.428   2.184
71969SOL     OW17803   7.375   3.910   3.266
71969SOL    HW117804   7.462   3.883   3.297
71969SOL    HW217805   7.367   4.001   3.295
71970SOL     OW17806   8.480   0.939  10.248
71970SOL    HW117807   8.491   0.852  10.285
71970SOL    HW217808   8.386   0.944  10.227
71971SOL     OW17809   0.835   4.224   9.434
71971SOL    HW117810   0.781   4.149   9.410
71971SOL    HW217811   0.806   4.294   9.375
71972SOL     OW17812   9.194   5.700   9.828
71972SOL    HW117813   9.190   5.728   9.736
71972SOL    HW217814   9.234   5.613   9.825
71973SOL     OW17815  11.674   7.029  12.403
71973SOL    HW117816  11.758   7.060  12.438
71973SOL    HW217817  11.658   7.085  12.327
71974SOL     OW17818   8.900   0.394   4.286
71974SOL    HW117819   8.926   0.450   4.212
71974SOL    HW217820   8.970   0.406   4.351
71975SOL     OW17821   9.560   6.310  13.801
71975SOL    HW117822   9.632   6.338  13.745
71975SOL    HW217823   9.489   6.287  13.740
71976SOL     OW17824   1.131   9.858   4.406
71976SOL    HW117825   1.210   9.911   4.416
71976SOL    HW217826   1.164   9.773   4.375
71977SOL     OW17827   7.917   2.463  10.349
71977SOL    HW117828   7.880   2.472  10.261
71977SOL    HW217829   8.004   2.424  10.335
71978SOL     OW17830  13.444  13.816   6.116
71978SOL    HW117831  13.445  13.861   6.031
71978SOL    HW217832  13.371  13.754   6.110
71979SOL     OW17833   6.634  14.479   3.664
71979SOL    HW117834   6.628  14.495   3.570
71979SOL    HW217835   6.543  14.485   3.695
71980SOL     OW17836  13.126   5.191  10.226
71980SOL    HW117837  13.098   5.213  10.315
71980SOL    HW217838  13.068   5.120  10.199
71981SOL     OW17839   1.518  12.265  10.541
71981SOL    HW117840   1.502  12.185  10.491
71981SOL    HW217841   1.450  12.266  10.608
71982SOL     OW17842   5.181   8.652   3.009
71982SOL    HW117843   5.109   8.714   2.994
71982SOL    HW217844   5.235   8.695   3.075
71983SOL     OW17845   4.452   5.158   4.507
71983SOL    HW117846   4.409   5.079   4.539
71983SOL    HW217847   4.495   5.132   4.426
71984SOL     OW17848   5.614   9.034   5.173
71984SOL    HW117849   5.629   9.069   5.261
71984SOL    HW217850   5.698   8.995   5.148
71985SOL     OW17851   8.725   5.876   8.436
71985SOL    HW117852   8.660   5.944   8.418
71985SOL    HW217853   8.776   5.909   8.510
71986SOL     OW17854  13.192   8.823   6.809
71986SOL    HW117855  13.190   8.914   6.839
71986SOL    HW217856  13.110   8.813   6.759
71987SOL     OW17857  10.357   1.824  10.593
71987SOL    HW117858  10.264   1.805  10.606
71987SOL    HW217859  10.365   1.917  10.616
71988SOL     OW17860   5.132   6.482  10.702
71988SOL    HW117861   5.217   6.523  10.688
71988SOL    HW217862   5.126   6.415  10.634
71989SOL     OW17863   9.279   2.166   4.589
71989SOL    HW117864   9.303   2.225   4.660
71989SOL    HW217865   9.306   2.212   4.509
71990SOL     OW17866  14.459   9.042   7.108
71990SOL    HW117867  14.480   8.966   7.054
71990SOL    HW217868  14.422   9.105   7.046
71991SOL     OW17869   5.364  13.573   6.362
71991SOL    HW117870   5.400  13.605   6.279
71991SOL    HW217871   5.382  13.479   6.360
71992SOL     OW17872  10.716   3.078   4.171
71992SOL    HW117873  10.792   3.122   4.132
71992SOL    HW217874  10.640   3.127   4.139
71993SOL     OW17875  12.791   1.740   0.876
71993SOL    HW117876  12.714   1.762   0.823
71993SOL    HW217877  12.804   1.647   0.861
71994SOL     OW17878   8.767   6.755   3.213
71994SOL    HW117879   8.812   6.786   3.292
71994SOL    HW217880   8.682   6.800   3.215
71995SOL     OW17881   0.015   2.374  10.314
71995SOL    HW117882   0.042   2.362  10.223
71995SOL    HW217883   0.049   2.297  10.360
71996SOL     OW17884   3.529  12.055   7.408
71996SOL    HW117885   3.487  12.120   7.464
71996SOL    HW217886   3.497  12.075   7.320
71997SOL     OW17887   6.530   3.132   9.205
71997SOL    HW117888   6.567   3.202   9.153
71997SOL    HW217889   6.538   3.054   9.150
71998SOL     OW17890  11.120   0.854  12.626
71998SOL    HW117891  11.027   0.833  12.632
71998SOL    HW217892  11.159   0.775  12.587
71999SOL     OW17893   8.160  13.754   8.518
71999SOL    HW117894   8.127  13.816   8.583
71999SOL    HW217895   8.246  13.729   8.550
72000SOL     OW17896  12.475   0.011   2.126
72000SOL    HW117897  12.500  14.822   2.062
72000SOL    HW217898  12.548   0.016   2.187
72001SOL     OW17899  10.042   8.178   1.066
72001SOL    HW117900  10.105   8.192   1.136
72001SOL    HW217901   9.993   8.260   1.060
72002SOL     OW17902   2.134   0.106   0.792
72002SOL    HW117903   2.084   0.068   0.720
72002SOL    HW217904   2.157   0.031   0.848
72003SOL     OW17905   0.063   9.248   2.451
72003SOL    HW117906   0.090   9.170   2.402
72003SOL    HW217907   0.050   9.217   2.540
72004SOL     OW17908   0.827   2.802   0.977
72004SOL    HW117909   0.859   2.762   1.058
72004SOL    HW217910   0.769   2.737   0.939
72005SOL     OW17911   0.784   8.537   7.602
72005SOL    HW117912   0.757   8.616   7.555
72005SOL    HW217913   0.772   8.467   7.538
72006SOL     OW17914  10.929   7.600   9.129
72006SOL    HW117915  10.919   7.664   9.199
72006SOL    HW217916  10.843   7.556   9.123
72007SOL     OW17917   7.405  11.458   0.782
72007SOL    HW117918   7.496  11.437   0.759
72007SOL    HW217919   7.382  11.395   0.850
72008SOL     OW17920   9.699  14.877   5.311
72008SOL    HW117921   9.664  14.787   5.308
72008SOL    HW217922   9.681   0.034   5.224
72009SOL     OW17923  13.731   4.215   6.638
72009SOL    HW117924  13.795   4.199   6.707
72009SOL    HW217925  13.647   4.194   6.677
72010SOL     OW17926   4.531   8.003  13.997
72010SOL    HW117927   4.588   8.013  13.921
72010SOL    HW217928   4.471   7.933  13.973
72011SOL     OW17929   9.762   5.749   4.023
72011SOL    HW117930   9.690   5.715   4.077
72011SOL    HW217931   9.838   5.697   4.048
72012SOL     OW17932   4.657   0.717  11.913
72012SOL    HW117933   4.684   0.625  11.913
72012SOL    HW217934   4.739   0.766  11.915
72013SOL     OW17935  11.992   0.617  11.795
72013SOL    HW117936  11.964   0.656  11.712
72013SOL    HW217937  11.920   0.559  11.819
72014SOL     OW17938   4.321   6.872   2.546
72014SOL    HW117939   4.282   6.786   2.531
72014SOL    HW217940   4.307   6.889   2.639
72015SOL     OW17941   6.384   0.652   3.778
72015SOL    HW117942   6.385   0.570   3.730
72015SOL    HW217943   6.292   0.679   3.780
72016SOL     OW17944   6.793   2.081   3.930
72016SOL    HW117945   6.808   2.168   3.968
72016SOL    HW217946   6.859   2.073   3.862
72017SOL     OW17947  14.034  14.300  14.137
72017SOL    HW117948  14.072  14.221  14.099
72017SOL    HW217949  13.979  14.268  14.209
72018SOL     OW17950   5.066  12.493   7.385
72018SOL    HW117951   4.973  12.505   7.367
72018SOL    HW217952   5.079  12.398   7.381
72019SOL     OW17953  10.404  12.293   3.366
72019SOL    HW117954  10.445  12.240   3.434
72019SOL    HW217955  10.395  12.234   3.291
72020SOL     OW17956   1.748   4.262   0.626
72020SOL    HW117957   1.731   4.249   0.533
72020SOL    HW217958   1.842   4.244   0.635
72021SOL     OW17959   0.529  12.483  10.970
72021SOL    HW117960   0.564  12.395  10.982
72021SOL    HW217961   0.604  12.536  10.945
72022SOL     OW17962   3.520  13.129   7.790
72022SOL    HW117963   3.487  13.173   7.868
72022SOL    HW217964   3.607  13.098   7.814
72023SOL     OW17965   3.582   3.476   0.471
72023SOL    HW117966   3.548   3.555   0.513
72023SOL    HW217967   3.518   3.408   0.493
72024SOL     OW17968  13.327   5.618   2.237
72024SOL    HW117969  13.236   5.614   2.207
72024SOL    HW217970  13.343   5.533   2.277
72025SOL     OW17971  14.266   8.442   1.817
72025SOL    HW117972  14.173   8.423   1.829
72025SOL    HW217973  14.268   8.528   1.775
72026SOL     OW17974   1.057  12.690   2.563
72026SOL    HW117975   1.063  12.713   2.470
72026SOL    HW217976   1.119  12.617   2.574
72027SOL     OW17977   7.716  13.767  11.788
72027SOL    HW117978   7.707  13.727  11.701
72027SOL    HW217979   7.733  13.860  11.770
72028SOL     OW17980  14.406   0.708  13.296
72028SOL    HW117981  14.325   0.742  13.257
72028SOL    HW217982  14.458   0.679  13.221
72029SOL     OW17983   5.478  14.843  11.630
72029SOL    HW117984   5.387  14.870  11.616
72029SOL    HW217985   5.505  14.803  11.547
72030SOL     OW17986  14.271   8.752   0.121
72030SOL    HW117987  14.293   8.721   0.208
72030SOL    HW217988  14.247   8.673   0.073
72031SOL     OW17989  10.052   8.626  13.964
72031SOL    HW117990  10.003   8.621  14.046
72031SOL    HW217991  10.082   8.537  13.948
72032SOL     OW17992  14.732   1.195  13.518
72032SOL    HW117993  14.723   1.202  13.423
72032SOL    HW217994  14.800   1.128  13.531
72033SOL     OW17995  10.128   2.606  14.123
72033SOL    HW117996  10.120   2.677  14.186
72033SOL    HW217997  10.054   2.617  14.064
72034SOL     OW17998   4.547  10.766  14.831
72034SOL    HW117999   4.590  10.702   0.010
72034SOL    HW218000   4.469  10.721  14.799
72035SOL     OW18001  13.557   8.250   9.173
72035SOL    HW118002  13.606   8.304   9.111
72035SOL    HW218003  13.510   8.188   9.118
72036SOL     OW18004   1.346  11.948   6.349
72036SOL    HW118005   1.321  12.024   6.402
72036SOL    HW218006   1.292  11.956   6.270
72037SOL     OW18007   5.957   6.081   9.529
72037SOL    HW118008   5.971   6.122   9.443
72037SOL    HW218009   5.961   5.987   9.512
72038SOL     OW18010   0.766  13.044  14.723
72038SOL    HW118011   0.812  13.122  14.690
72038SOL    HW218012   0.742  12.995  14.645
72039SOL     OW18013  14.114   1.497  13.171
72039SOL    HW118014  14.138   1.587  13.193
72039SOL    HW218015  14.194   1.447  13.182
72040SOL     OW18016  11.151  14.331  11.194
72040SOL    HW118017  11.243  14.341  11.218
72040SOL    HW218018  11.145  14.242  11.158
72041SOL     OW18019  14.692   6.618  11.754
72041SOL    HW118020  14.679   6.575  11.670
72041SOL    HW218021  14.750   6.559  11.803
72042SOL     OW18022   2.028   3.060  11.876
72042SOL    HW118023   2.101   3.091  11.824
72042SOL    HW218024   1.982   2.998  11.819
72043SOL     OW18025  13.225  11.041   7.693
72043SOL    HW118026  13.304  11.002   7.730
72043SOL    HW218027  13.204  11.113   7.751
72044SOL     OW18028  11.506  11.166   8.169
72044SOL    HW118029  11.494  11.141   8.261
72044SOL    HW218030  11.590  11.212   8.167
72045SOL     OW18031   3.264  10.319   1.505
72045SOL    HW118032   3.341  10.376   1.494
72045SOL    HW218033   3.190  10.375   1.481
72046SOL     OW18034   2.761   1.179  13.622
72046SOL    HW118035   2.694   1.116  13.596
72046SOL    HW218036   2.773   1.235  13.545
72047SOL     OW18037   0.510  12.053   8.486
72047SOL    HW118038   0.511  12.032   8.393
72047SOL    HW218039   0.597  12.089   8.503
72048SOL     OW18040   7.703   3.369  12.164
72048SOL    HW118041   7.666   3.356  12.251
72048SOL    HW218042   7.679   3.458  12.140
72049SOL     OW18043  13.973   0.286   7.201
72049SOL    HW118044  14.016   0.370   7.217
72049SOL    HW218045  14.028   0.243   7.136
72050SOL     OW18046  12.505   0.535  10.228
72050SOL    HW118047  12.452   0.590  10.170
72050SOL    HW218048  12.582   0.513  10.175
72051SOL     OW18049   1.114   7.589   1.431
72051SOL    HW118050   1.086   7.666   1.481
72051SOL    HW218051   1.066   7.516   1.469
72052SOL     OW18052   9.344   4.558   6.088
72052SOL    HW118053   9.290   4.483   6.063
72052SOL    HW218054   9.410   4.522   6.146
72053SOL     OW18055   1.547   6.976  12.559
72053SOL    HW118056   1.507   6.992  12.474
72053SOL    HW218057   1.538   7.060  12.605
72054SOL     OW18058   6.196  12.564   6.164
72054SOL    HW118059   6.247  12.645   6.162
72054SOL    HW218060   6.224  12.520   6.244
72055SOL     OW18061   8.426  10.287   3.101
72055SOL    HW118062   8.509  10.333   3.105
72055SOL    HW218063   8.359  10.355   3.109
72056SOL     OW18064  12.127   0.688   4.717
72056SOL    HW118065  12.046   0.649   4.685
72056SOL    HW218066  12.115   0.696   4.812
72057SOL     OW18067   3.018  10.831   0.836
72057SOL    HW118068   3.035  10.915   0.794
72057SOL    HW218069   3.037  10.846   0.928
72058SOL     OW18070   4.301   3.474   0.944
72058SOL    HW118071   4.225   3.441   0.993
72058SOL    HW218072   4.374   3.467   1.005
72059SOL     OW18073   1.324  12.059   4.280
72059SOL    HW118074   1.418  12.069   4.269
72059SOL    HW218075   1.301  12.122   4.348
72060SOL     OW18076   0.050   2.187  10.730
72060SOL    HW118077   0.134   2.229  10.747
72060SOL    HW218078   0.025   2.148  10.814
72061SOL     OW18079  11.720   1.973  14.278
72061SOL    HW118080  11.728   2.007  14.189
72061SOL    HW218081  11.733   1.878  14.269
72062SOL     OW18082  13.870   9.787  14.508
72062SOL    HW118083  13.827   9.719  14.456
72062SOL    HW218084  13.959   9.754  14.521
72063SOL     OW18085   3.508   5.139   8.284
72063SOL    HW118086   3.418   5.166   8.266
72063SOL    HW218087   3.527   5.072   8.218
72064SOL     OW18088   6.252  12.263  10.253
72064SOL    HW118089   6.302  12.342  10.233
72064SOL    HW218090   6.317  12.193  10.252
72065SOL     OW18091  14.462   2.007   1.247
72065SOL    HW118092  14.497   1.987   1.160
72065SOL    HW218093  14.518   2.076   1.281
72066SOL     OW18094   9.930   3.254  12.743
72066SOL    HW118095   9.835   3.251  12.754
72066SOL    HW218096   9.949   3.347  12.729
72067SOL     OW18097   8.794   7.646   3.904
72067SOL    HW118098   8.743   7.646   3.824
72067SOL    HW218099   8.838   7.561   3.905
72068SOL     OW18100   1.062   9.335   6.099
72068SOL    HW118101   1.109   9.301   6.023
72068SOL    HW218102   0.971   9.308   6.085
72069SOL     OW18103   7.852  14.276  11.013
72069SOL    HW118104   7.863  14.368  10.988
72069SOL    HW218105   7.839  14.279  11.108
72070SOL     OW18106   7.755   0.173  11.655
72070SOL    HW118107   7.695   0.223  11.711
72070SOL    HW218108   7.709   0.166  11.571
72071SOL     OW18109  14.217   7.609  12.447
72071SOL    HW118110  14.300   7.601  12.495
72071SOL    HW218111  14.201   7.520  12.414
72072SOL     OW18112  14.877   1.662   2.552
72072SOL    HW118113  14.820   1.737   2.536
72072SOL    HW218114  14.838   1.590   2.501
72073SOL     OW18115   2.376   7.545  11.737
72073SOL    HW118116   2.444   7.529  11.803
72073SOL    HW218117   2.294   7.522  11.780
72074SOL     OW18118   0.777   1.987   7.900
72074SOL    HW118119   0.772   2.043   7.823
72074SOL    HW218120   0.733   2.037   7.969
72075SOL     OW18121   6.199   9.637   9.581
72075SOL    HW118122   6.149   9.556   9.570
72075SOL    HW218123   6.147   9.690   9.641
72076SOL     OW18124   0.909  13.339   9.079
72076SOL    HW118125   0.967  13.284   9.133
72076SOL    HW218126   0.952  13.424   9.076
72077SOL     OW18127   3.071   0.509   6.140
72077SOL    HW118128   3.073   0.425   6.093
72077SOL    HW218129   3.009   0.495   6.211
72078SOL     OW18130   6.981  10.500   9.057
72078SOL    HW118131   7.052  10.521   8.997
72078SOL    HW218132   6.963  10.582   9.103
72079SOL     OW18133  10.300   1.849   8.884
72079SOL    HW118134  10.255   1.841   8.968
72079SOL    HW218135  10.231   1.834   8.819
72080SOL     OW18136   8.783   9.771   3.210
72080SOL    HW118137   8.706   9.811   3.170
72080SOL    HW218138   8.764   9.771   3.304
72081SOL     OW18139   6.744   2.717   4.454
72081SOL    HW118140   6.659   2.700   4.412
72081SOL    HW218141   6.799   2.749   4.383
72082SOL     OW18142  13.957   2.274  14.398
72082SOL    HW118143  13.912   2.278  14.314
72082SOL    HW218144  13.888   2.289  14.463
72083SOL     OW18145  11.819   0.060  11.831
72083SOL    HW118146  11.784   0.108  11.907
72083SOL    HW218147  11.764   0.087  11.758
72084SOL     OW18148   7.218  12.305   2.295
72084SOL    HW118149   7.297  12.325   2.245
72084SOL    HW218150   7.184  12.391   2.321
72085SOL     OW18151   5.830   2.495   7.716
72085SOL    HW118152   5.845   2.577   7.763
72085SOL    HW218153   5.903   2.488   7.655
72086SOL     OW18154   4.559   1.325   3.074
72086SOL    HW118155   4.468   1.329   3.105
72086SOL    HW218156   4.602   1.400   3.114
72087SOL     OW18157  13.506  12.236   4.463
72087SOL    HW118158  13.437  12.182   4.424
72087SOL    HW218159  13.460  12.295   4.523
72088SOL     OW18160   9.514  10.023  12.820
72088SOL    HW118161   9.490   9.985  12.904
72088SOL    HW218162   9.575  10.094  12.841
72089SOL     OW18163   4.014  13.847  11.832
72089SOL    HW118164   4.104  13.871  11.856
72089SOL    HW218165   4.024  13.766  11.781
72090SOL     OW18166  10.679   1.747  11.542
72090SOL    HW118167  10.698   1.704  11.458
72090SOL    HW218168  10.590   1.719  11.564
72091SOL     OW18169   3.182   1.886   3.067
72091SOL    HW118170   3.251   1.827   3.035
72091SOL    HW218171   3.215   1.973   3.047
72092SOL     OW18172   6.352  13.722   5.479
72092SOL    HW118173   6.321  13.802   5.435
72092SOL    HW218174   6.289  13.655   5.452
72093SOL     OW18175  14.598   7.722   2.335
72093SOL    HW118176  14.676   7.758   2.294
72093SOL    HW218177  14.626   7.638   2.372
72094SOL     OW18178   3.114  14.485  11.096
72094SOL    HW118179   3.019  14.485  11.102
72094SOL    HW218180   3.132  14.515  11.007
72095SOL     OW18181   5.622   1.054   6.708
72095SOL    HW118182   5.622   1.074   6.614
72095SOL    HW218183   5.711   1.074   6.736
72096SOL     OW18184  12.290  10.839   1.782
72096SOL    HW118185  12.366  10.893   1.761
72096SOL    HW218186  12.289  10.835   1.878
72097SOL     OW18187   5.799  11.290  11.734
72097SOL    HW118188   5.886  11.287  11.773
72097SOL    HW218189   5.766  11.201  11.742
72098SOL     OW18190   8.388   7.109  13.292
72098SOL    HW118191   8.317   7.113  13.228
72098SOL    HW218192   8.349   7.140  13.374
72099SOL     OW18193   9.757   6.047   8.059
72099SOL    HW118194   9.687   6.096   8.014
72099SOL    HW218195   9.812   6.115   8.098
72100SOL     OW18196   8.335  11.262   0.615
72100SOL    HW118197   8.402  11.275   0.549
72100SOL    HW218198   8.275  11.336   0.604
72101SOL     OW18199  12.337   9.401   9.532
72101SOL    HW118200  12.385   9.412   9.614
72101SOL    HW218201  12.403   9.413   9.464
72102SOL     OW18202   4.859  11.634   7.394
72102SOL    HW118203   4.824  11.723   7.390
72102SOL    HW218204   4.917  11.627   7.318
72103SOL     OW18205  10.706  13.317   2.945
72103SOL    HW118206  10.709  13.404   2.906
72103SOL    HW218207  10.791  13.278   2.924
72104SOL     OW18208   4.683   7.353  13.799
72104SOL    HW118209   4.643   7.374  13.714
72104SOL    HW218210   4.609   7.335  13.856
72105SOL     OW18211   9.590   4.267  14.277
72105SOL    HW118212   9.540   4.333  14.324
72105SOL    HW218213   9.660   4.316  14.234
72106SOL     OW18214  13.797   5.052   0.230
72106SOL    HW118215  13.799   5.140   0.194
72106SOL    HW218216  13.889   5.030   0.245
72107SOL     OW18217   4.161   3.033   2.668
72107SOL    HW118218   4.130   2.979   2.596
72107SOL    HW218219   4.243   3.071   2.636
72108SOL     OW18220  14.147   9.393   0.744
72108SOL    HW118221  14.096   9.355   0.815
72108SOL    HW218222  14.106   9.479   0.729
72109SOL     OW18223   3.726   4.359  11.067
72109SOL    HW118224   3.765   4.277  11.036
72109SOL    HW218225   3.675   4.334  11.144
72110SOL     OW18226  12.499   5.831   6.790
72110SOL    HW118227  12.514   5.891   6.717
72110SOL    HW218228  12.470   5.888   6.862
72111SOL     OW18229  10.216  14.113   6.211
72111SOL    HW118230  10.122  14.120   6.227
72111SOL    HW218231  10.240  14.195   6.167
72112SOL     OW18232  14.023   8.827   5.093
72112SOL    HW118233  14.104   8.864   5.057
72112SOL    HW218234  14.049   8.743   5.130
72113SOL     OW18235   3.978   0.743   4.577
72113SOL    HW118236   3.923   0.817   4.552
72113SOL    HW218237   3.973   0.740   4.672
72114SOL     OW18238   0.720  14.230  11.717
72114SOL    HW118239   0.680  14.147  11.690
72114SOL    HW218240   0.664  14.262  11.788
72115SOL     OW18241   3.814   7.854   1.155
72115SOL    HW118242   3.747   7.919   1.132
72115SOL    HW218243   3.847   7.883   1.240
72116SOL     OW18244   3.076   3.212   2.859
72116SOL    HW118245   3.088   3.283   2.795
72116SOL    HW218246   3.014   3.248   2.923
72117SOL     OW18247   0.564   4.875   9.690
72117SOL    HW118248   0.471   4.898   9.693
72117SOL    HW218249   0.580   4.832   9.774
72118SOL     OW18250   6.621   2.451   7.256
72118SOL    HW118251   6.700   2.479   7.302
72118SOL    HW218252   6.582   2.531   7.223
72119SOL     OW18253  12.997   9.240  10.266
72119SOL    HW118254  13.077   9.216  10.313
72119SOL    HW218255  13.029   9.280  10.184
72120SOL     OW18256   3.848  11.284   4.409
72120SOL    HW118257   3.885  11.371   4.398
72120SOL    HW218258   3.823  11.279   4.501
72121SOL     OW18259   7.225  11.790   6.608
72121SOL    HW118260   7.292  11.771   6.542
72121SOL    HW218261   7.231  11.885   6.621
72122SOL     OW18262   4.393   6.234   2.002
72122SOL    HW118263   4.331   6.296   1.964
72122SOL    HW218264   4.479   6.272   1.985
72123SOL     OW18265  14.840  13.252   0.694
72123SOL    HW118266   0.057  13.236   0.694
72123SOL    HW218267  14.832  13.347   0.696
72124SOL     OW18268  11.264  12.296   4.746
72124SOL    HW118269  11.265  12.280   4.652
72124SOL    HW218270  11.353  12.278   4.775
72125SOL     OW18271   9.397   8.295  13.262
72125SOL    HW118272   9.338   8.367  13.238
72125SOL    HW218273   9.417   8.311  13.354
72126SOL     OW18274  13.970   9.047   1.403
72126SOL    HW118275  14.044   9.024   1.346
72126SOL    HW218276  13.944   9.134   1.374
72127SOL     OW18277   1.961   9.654  12.608
72127SOL    HW118278   1.911   9.580  12.644
72127SOL    HW218279   2.023   9.613  12.548
72128SOL     OW18280  13.850   3.681  11.831
72128SOL    HW118281  13.774   3.682  11.888
72128SOL    HW218282  13.925   3.690  11.890
72129SOL     OW18283   9.539   3.071  13.907
72129SOL    HW118284   9.540   2.984  13.869
72129SOL    HW218285   9.602   3.121  13.856
72130SOL     OW18286  14.072   4.609  12.557
72130SOL    HW118287  14.044   4.526  12.597
72130SOL    HW218288  14.151   4.586  12.509
72131SOL     OW18289   2.576   3.752   5.499
72131SOL    HW118290   2.598   3.659   5.501
72131SOL    HW218291   2.620   3.785   5.421
72132SOL     OW18292  12.922   9.431   5.804
72132SOL    HW118293  12.993   9.480   5.846
72132SOL    HW218294  12.960   9.399   5.722
72133SOL     OW18295  10.378   5.849  14.375
72133SOL    HW118296  10.394   5.869  14.467
72133SOL    HW218297  10.461   5.814  14.343
72134SOL     OW18298   2.217   8.721  13.421
72134SOL    HW118299   2.292   8.734  13.364
72134SOL    HW218300   2.144   8.760  13.373
72135SOL     OW18301  14.383   1.360  11.024
72135SOL    HW118302  14.358   1.269  11.008
72135SOL    HW218303  14.478   1.358  11.031
72136SOL     OW18304   5.492   7.972  13.729
72136SOL    HW118305   5.577   8.004  13.698
72136SOL    HW218306   5.443   8.051  13.752
72137SOL     OW18307   1.936   3.400   4.066
72137SOL    HW118308   1.978   3.325   4.023
72137SOL    HW218309   1.992   3.418   4.142
72138SOL     OW18310   5.070   3.945  13.544
72138SOL    HW118311   5.079   4.021  13.486
72138SOL    HW218312   5.153   3.897  13.533
72139SOL     OW18313   0.338   6.474  13.347
72139SOL    HW118314   0.431   6.473  13.328
72139SOL    HW218315   0.333   6.491  13.442
72140SOL     OW18316  14.728  10.989   3.092
72140SOL    HW118317  14.640  10.965   3.123
72140SOL    HW218318  14.729  10.961   3.000
72141SOL     OW18319   9.102  13.875   1.203
72141SOL    HW118320   9.094  13.963   1.168
72141SOL    HW218321   9.106  13.818   1.126
72142SOL     OW18322   4.103   9.946   0.289
72142SOL    HW118323   4.095   9.922   0.196
72142SOL    HW218324   4.137   9.868   0.331
72143SOL     OW18325  11.395   2.043   4.154
72143SOL    HW118326  11.396   2.102   4.230
72143SOL    HW218327  11.461   2.080   4.095
72144SOL     OW18328  14.684  14.618   9.486
72144SOL    HW118329  14.730  14.567   9.420
72144SOL    HW218330  14.617  14.559   9.520
72145SOL     OW18331   7.572  10.009   6.420
72145SOL    HW118332   7.496   9.994   6.476
72145SOL    HW218333   7.647  10.004   6.479
72146SOL     OW18334   9.918   0.337  13.001
72146SOL    HW118335   9.936   0.256  13.049
72146SOL    HW218336   9.830   0.362  13.029
72147SOL     OW18337   5.168  10.055   5.301
72147SOL    HW118338   5.094  10.004   5.333
72147SOL    HW218339   5.184  10.021   5.213
72148SOL     OW18340   5.912   7.384   3.719
72148SOL    HW118341   5.985   7.381   3.658
72148SOL    HW218342   5.879   7.294   3.721
72149SOL     OW18343   2.658  10.954   1.435
72149SOL    HW118344   2.661  11.048   1.420
72149SOL    HW218345   2.566  10.936   1.457
72150SOL     OW18346  11.335   0.286  11.485
72150SOL    HW118347  11.265   0.349  11.498
72150SOL    HW218348  11.410   0.338  11.456
72151SOL     OW18349   0.952   4.241  13.068
72151SOL    HW118350   0.933   4.193  13.148
72151SOL    HW218351   0.977   4.329  13.098
72152SOL     OW18352   6.170  14.276  10.811
72152SOL    HW118353   6.161  14.268  10.906
72152SOL    HW218354   6.251  14.324  10.799
72153SOL     OW18355  12.604  10.682  10.406
72153SOL    HW118356  12.519  10.683  10.362
72153SOL    HW218357  12.668  10.702  10.338
72154SOL     OW18358   8.809   8.742   1.305
72154SOL    HW118359   8.758   8.806   1.356
72154SOL    HW218360   8.743   8.684   1.267
72155SOL     OW18361  12.684   4.438   3.732
72155SOL    HW118362  12.591   4.418   3.744
72155SOL    HW218363  12.729   4.367   3.778
72156SOL     OW18364   1.617  13.524   9.042
72156SOL    HW118365   1.658  13.610   9.040
72156SOL    HW218366   1.546  13.533   9.105
72157SOL     OW18367   0.712   0.862  11.458
72157SOL    HW118368   0.643   0.850  11.523
72157SOL    HW218369   0.719   0.957  11.446
72158SOL     OW18370   6.836   7.512   1.751
72158SOL    HW118371   6.865   7.583   1.809
72158SOL    HW218372   6.915   7.485   1.705
72159SOL     OW18373   1.417   9.343   1.507
72159SOL    HW118374   1.342   9.299   1.549
72159SOL    HW218375   1.377   9.398   1.439
72160SOL     OW18376   3.333   8.398   7.370
72160SOL    HW118377   3.428   8.414   7.369
72160SOL    HW218378   3.317   8.356   7.454
72161SOL     OW18379   1.484   4.743  10.633
72161SOL    HW118380   1.399   4.700  10.635
72161SOL    HW218381   1.465   4.836  10.644
72162SOL     OW18382   9.806  13.431  10.832
72162SOL    HW118383   9.805  13.377  10.911
72162SOL    HW218384   9.835  13.371  10.763
72163SOL     OW18385  11.337   0.452  11.927
72163SOL    HW118386  11.347   0.424  12.018
72163SOL    HW218387  11.388   0.389  11.876
72164SOL     OW18388  13.635   2.410   1.789
72164SOL    HW118389  13.649   2.387   1.880
72164SOL    HW218390  13.598   2.499   1.791
72165SOL     OW18391   4.276   8.814   9.563
72165SOL    HW118392   4.210   8.883   9.558
72165SOL    HW218393   4.348   8.852   9.614
72166SOL     OW18394  13.393   3.471   5.817
72166SOL    HW118395  13.430   3.388   5.787
72166SOL    HW218396  13.325   3.446   5.879
72167SOL     OW18397   6.971   5.594   2.565
72167SOL    HW118398   6.995   5.506   2.535
72167SOL    HW218399   6.925   5.633   2.491
72168SOL     OW18400   7.477  11.041  14.366
72168SOL    HW118401   7.550  11.103  14.359
72168SOL    HW218402   7.432  11.066  14.447
72169SOL     OW18403   9.935   5.159  10.920
72169SOL    HW118404  10.012   5.163  10.976
72169SOL    HW218405   9.956   5.094  10.853
72170SOL     OW18406  12.392   0.757   8.960
72170SOL    HW118407  12.423   0.668   8.946
72170SOL    HW218408  12.299   0.754   8.935
72171SOL     OW18409   9.257   6.200   2.435
72171SOL    HW118410   9.211   6.259   2.495
72171SOL    HW218411   9.349   6.222   2.447
72172SOL     OW18412  10.039   3.140  13.287
72172SOL    HW118413  10.070   3.131  13.197
72172SOL    HW218414  10.106   3.099  13.340
72173SOL     OW18415   8.496  10.540   0.249
72173SOL    HW118416   8.405  10.539   0.221
72173SOL    HW218417   8.543  10.492   0.181
72174SOL     OW18418  13.089   4.889  12.739
72174SOL    HW118419  13.138   4.808  12.721
72174SOL    HW218420  13.145   4.958  12.703
72175SOL     OW18421   6.606   7.739  14.490
72175SOL    HW118422   6.670   7.774  14.428
72175SOL    HW218423   6.623   7.645  14.493
72176SOL     OW18424   9.020   2.512   6.835
72176SOL    HW118425   9.069   2.561   6.901
72176SOL    HW218426   9.087   2.467   6.784
72177SOL     OW18427   7.332   1.114   5.493
72177SOL    HW118428   7.312   1.141   5.404
72177SOL    HW218429   7.264   1.156   5.547
72178SOL     OW18430  10.617   2.675   8.001
72178SOL    HW118431  10.663   2.666   8.085
72178SOL    HW218432  10.684   2.706   7.940
72179SOL     OW18433  10.974  12.696   7.829
72179SOL    HW118434  10.930  12.781   7.827
72179SOL    HW218435  11.049  12.710   7.887
72180SOL     OW18436   3.224   6.523   8.063
72180SOL    HW118437   3.139   6.535   8.022
72180SOL    HW218438   3.205   6.504   8.154
72181SOL     OW18439  14.539  14.053  13.634
72181SOL    HW118440  14.552  14.115  13.705
72181SOL    HW218441  14.456  14.010  13.653
72182SOL     OW18442   5.817  12.003  11.220
72182SOL    HW118443   5.751  12.070  11.201
72182SOL    HW218444   5.853  11.979  11.135
72183SOL     OW18445  10.564  12.446   9.127
72183SOL    HW118446  10.616  12.423   9.050
72183SOL    HW218447  10.494  12.380   9.129
72184SOL     OW18448   9.156  10.791  13.312
72184SOL    HW118449   9.201  10.832  13.238
72184SOL    HW218450   9.070  10.834  13.315
72185SOL     OW18451  13.432   9.160   2.944
72185SOL    HW118452  13.527   9.170   2.937
72185SOL    HW218453  13.399   9.249   2.958
72186SOL     OW18454  10.068   1.356  13.215
72186SOL    HW118455  10.084   1.368  13.309
72186SOL    HW218456  10.012   1.430  13.190
72187SOL     OW18457   3.786   1.842  10.894
72187SOL    HW118458   3.874   1.877  10.881
72187SOL    HW218459   3.747   1.898  10.961
72188SOL     OW18460  12.929  13.063  14.355
72188SOL    HW118461  12.837  13.074  14.378
72188SOL    HW218462  12.935  12.972  14.324
72189SOL     OW18463  12.408   7.780   4.418
72189SOL    HW118464  12.477   7.734   4.370
72189SOL    HW218465  12.366   7.835   4.352
72190SOL     OW18466   7.197   0.509   8.608
72190SOL    HW118467   7.108   0.543   8.617
72190SOL    HW218468   7.244   0.542   8.684
72191SOL     OW18469  14.498   6.485   1.091
72191SOL    HW118470  14.508   6.403   1.138
72191SOL    HW218471  14.442   6.539   1.147
72192SOL     OW18472   4.455   2.155   8.343
72192SOL    HW118473   4.462   2.250   8.351
72192SOL    HW218474   4.376   2.142   8.290
72193SOL     OW18475   0.226   7.562  10.098
72193SOL    HW118476   0.254   7.487  10.151
72193SOL    HW218477   0.255   7.639  10.149
72194SOL     OW18478  12.310  11.326   3.225
72194SOL    HW118479  12.358  11.244   3.208
72194SOL    HW218480  12.312  11.335   3.320
72195SOL     OW18481  12.426   4.770   4.754
72195SOL    HW118482  12.344   4.818   4.762
72195SOL    HW218483  12.407   4.683   4.788
72196SOL     OW18484   4.872   1.589   6.038
72196SOL    HW118485   4.803   1.541   5.993
72196SOL    HW218486   4.835   1.612   6.124
72197SOL     OW18487  12.105   0.780   8.342
72197SOL    HW118488  12.079   0.751   8.254
72197SOL    HW218489  12.110   0.876   8.335
72198SOL     OW18490   4.898  12.670   0.413
72198SOL    HW118491   4.969  12.706   0.360
72198SOL    HW218492   4.873  12.742   0.471
72199SOL     OW18493  10.806  11.503   6.162
72199SOL    HW118494  10.777  11.493   6.071
72199SOL    HW218495  10.774  11.424   6.206
72200SOL     OW18496   8.949  10.676   7.111
72200SOL    HW118497   8.890  10.613   7.152
72200SOL    HW218498   8.892  10.751   7.091
72201SOL     OW18499   3.227  14.644   2.631
72201SOL    HW118500   3.190  14.730   2.614
72201SOL    HW218501   3.303  14.661   2.687
72202SOL     OW18502   6.834   9.783  14.518
72202SOL    HW118503   6.788   9.712  14.473
72202SOL    HW218504   6.916   9.744  14.547
72203SOL     OW18505  13.476   9.455   2.957
72203SOL    HW118506  13.472   9.465   3.052
72203SOL    HW218507  13.555   9.502   2.931
72204SOL     OW18508   0.802   6.397   9.736
72204SOL    HW118509   0.724   6.445   9.709
72204SOL    HW218510   0.864   6.408   9.664
72205SOL     OW18511  13.274   5.066  12.643
72205SOL    HW118512  13.366   5.037  12.639
72205SOL    HW218513  13.272   5.144  12.588
72206SOL     OW18514  14.586   7.687  10.620
72206SOL    HW118515  14.547   7.600  10.623
72206SOL    HW218516  14.547   7.733  10.695
72207SOL     OW18517   5.240   2.254   3.548
72207SOL    HW118518   5.162   2.306   3.568
72207SOL    HW218519   5.245   2.191   3.619
72208SOL     OW18520   9.682   0.872   1.552
72208SOL    HW118521   9.721   0.934   1.490
72208SOL    HW218522   9.740   0.795   1.548
72209SOL     OW18523  11.049   4.136   1.795
72209SOL    HW118524  10.974   4.088   1.761
72209SOL    HW218525  11.070   4.201   1.728
72210SOL     OW18526   6.830  14.407  11.793
72210SOL    HW118527   6.830  14.320  11.752
72210SOL    HW218528   6.746  14.446  11.767
72211SOL     OW18529   1.906   3.476   6.218
72211SOL    HW118530   1.926   3.395   6.265
72211SOL    HW218531   1.933   3.546   6.277
72212SOL     OW18532   7.923   8.535   8.890
72212SOL    HW118533   7.936   8.440   8.883
72212SOL    HW218534   7.832   8.548   8.865
72213SOL     OW18535   4.813   1.028  11.540
72213SOL    HW118536   4.835   1.004  11.450
72213SOL    HW218537   4.735   1.083  11.531
72214SOL     OW18538   8.696  13.363   2.659
72214SOL    HW118539   8.640  13.339   2.734
72214SOL    HW218540   8.704  13.283   2.608
72215SOL     OW18541   2.283  11.794   4.703
72215SOL    HW118542   2.342  11.856   4.745
72215SOL    HW218543   2.322  11.708   4.720
72216SOL     OW18544  13.721   8.242   4.554
72216SOL    HW118545  13.686   8.216   4.469
72216SOL    HW218546  13.644   8.249   4.610
72217SOL     OW18547   7.314   0.606   1.984
72217SOL    HW118548   7.272   0.605   2.070
72217SOL    HW218549   7.293   0.692   1.948
72218SOL     OW18550   2.739  10.316   7.524
72218SOL    HW118551   2.657  10.328   7.572
72218SOL    HW218552   2.724  10.362   7.441
72219SOL     OW18553   9.421   1.273   0.715
72219SOL    HW118554   9.338   1.273   0.764
72219SOL    HW218555   9.474   1.207   0.759
72220SOL     OW18556  12.617   0.889   6.272
72220SOL    HW118557  12.564   0.829   6.323
72220SOL    HW218558  12.685   0.834   6.233
72221SOL     OW18559   9.523   8.349   9.105
72221SOL    HW118560   9.569   8.268   9.129
72221SOL    HW218561   9.575   8.418   9.145
72222SOL     OW18562   8.377   6.156  13.999
72222SOL    HW118563   8.366   6.121  13.910
72222SOL    HW218564   8.437   6.230  13.988
72223SOL     OW18565   4.931   8.435   4.063
72223SOL    HW118566   4.984   8.431   3.984
72223SOL    HW218567   4.994   8.426   4.135
72224SOL     OW18568   4.638  14.563   9.720
72224SOL    HW118569   4.702  14.505   9.762
72224SOL    HW218570   4.560  14.556   9.775
72225SOL     OW18571  10.587  13.673  14.833
72225SOL    HW118572  10.516  13.658   0.017
72225SOL    HW218573  10.544  13.704  14.753
72226SOL     OW18574   8.735   8.394  10.314
72226SOL    HW118575   8.825   8.360  10.313
72226SOL    HW218576   8.697   8.359  10.395
72227SOL     OW18577  11.608   7.479   9.690
72227SOL    HW118578  11.668   7.405   9.685
72227SOL    HW218579  11.664   7.556   9.680
72228SOL     OW18580   6.369   1.708  13.877
72228SOL    HW118581   6.329   1.749  13.953
72228SOL    HW218582   6.296   1.670  13.828
72229SOL     OW18583   3.811   7.982  10.917
72229SOL    HW118584   3.737   7.931  10.883
72229SOL    HW218585   3.884   7.921  10.919
72230SOL     OW18586   3.864   8.413   8.308
72230SOL    HW118587   3.785   8.363   8.326
72230SOL    HW218588   3.876   8.405   8.213
72231SOL     OW18589  13.157   4.493   4.549
72231SOL    HW118590  13.080   4.548   4.562
72231SOL    HW218591  13.129   4.405   4.575
72232SOL     OW18592  14.791   0.282   7.031
72232SOL    HW118593   0.008   0.279   7.047
72232SOL    HW218594  14.771   0.375   7.024
72233SOL     OW18595   8.578   5.525   0.473
72233SOL    HW118596   8.605   5.609   0.435
72233SOL    HW218597   8.487   5.539   0.500
72234SOL     OW18598   6.518  12.702  11.867
72234SOL    HW118599   6.438  12.669  11.827
72234SOL    HW218600   6.496  12.791  11.895
72235SOL     OW18601   2.261   7.857   8.120
72235SOL    HW118602   2.302   7.943   8.110
72235SOL    HW218603   2.248   7.826   8.030
72236SOL     OW18604   8.863   8.799   1.986
72236SOL    HW118605   8.860   8.775   1.893
72236SOL    HW218606   8.821   8.885   1.990
72237SOL     OW18607  11.185   5.199   3.002
72237SOL    HW118608  11.223   5.171   2.919
72237SOL    HW218609  11.219   5.287   3.017
72238SOL     OW18610  12.470  10.375   8.578
72238SOL    HW118611  12.540  10.358   8.514
72238SOL    HW218612  12.516  10.384   8.661
72239SOL     OW18613   9.790   4.104   5.499
72239SOL    HW118614   9.738   4.027   5.481
72239SOL    HW218615   9.747   4.145   5.574
72240SOL     OW18616  10.160   3.164   2.349
72240SOL    HW118617  10.155   3.104   2.423
72240SOL    HW218618  10.068   3.176   2.322
72241SOL     OW18619   0.819  10.595   6.403
72241SOL    HW118620   0.777  10.664   6.352
72241SOL    HW218621   0.779  10.602   6.490
72242SOL     OW18622   5.122   3.247  12.174
72242SOL    HW118623   5.217   3.243  12.173
72242SOL    HW218624   5.102   3.340  12.183
72243SOL     OW18625   0.632  11.082   3.690
72243SOL    HW118626   0.681  11.116   3.615
72243SOL    HW218627   0.664  10.993   3.701
72244SOL     OW18628   3.433   6.292   2.870
72244SOL    HW118629   3.351   6.314   2.913
72244SOL    HW218630   3.501   6.327   2.928
72245SOL     OW18631   4.309   5.510   8.066
72245SOL    HW118632   4.323   5.557   7.984
72245SOL    HW218633   4.375   5.545   8.126
72246SOL     OW18634   7.234   1.537  10.226
72246SOL    HW118635   7.195   1.452  10.208
72246SOL    HW218636   7.235   1.543  10.321
72247SOL     OW18637   5.428   4.516   5.837
72247SOL    HW118638   5.396   4.566   5.762
72247SOL    HW218639   5.435   4.579   5.908
72248SOL     OW18640   9.703   3.767   9.813
72248SOL    HW118641   9.753   3.762   9.732
72248SOL    HW218642   9.769   3.768   9.882
72249SOL     OW18643   6.882   0.445   4.078
72249SOL    HW118644   6.956   0.505   4.092
72249SOL    HW218645   6.903   0.368   4.131
72250SOL     OW18646   1.825  11.089   5.052
72250SOL    HW118647   1.752  11.142   5.085
72250SOL    HW218648   1.854  11.135   4.974
72251SOL     OW18649  12.135  14.467  12.894
72251SOL    HW118650  12.200  14.536  12.905
72251SOL    HW218651  12.117  14.465  12.800
72252SOL     OW18652  12.796   4.202  13.537
72252SOL    HW118653  12.775   4.201  13.443
72252SOL    HW218654  12.838   4.117  13.552
72253SOL     OW18655   4.319   5.740  10.098
72253SOL    HW118656   4.268   5.795  10.157
72253SOL    HW218657   4.329   5.792  10.019
72254SOL     OW18658   5.568   9.539  11.538
72254SOL    HW118659   5.593   9.521  11.629
72254SOL    HW218660   5.642   9.507  11.486
72255SOL     OW18661   5.000  10.495   1.435
72255SOL    HW118662   4.950  10.422   1.399
72255SOL    HW218663   4.978  10.496   1.529
72256SOL     OW18664   1.044  10.159   7.900
72256SOL    HW118665   1.047  10.067   7.924
72256SOL    HW218666   1.000  10.160   7.814
72257SOL     OW18667   9.630   2.882  14.300
72257SOL    HW118668   9.629   2.788  14.315
72257SOL    HW218669   9.610   2.921  14.385
72258SOL     OW18670   9.696  11.241  10.601
72258SOL    HW118671   9.787  11.224  10.623
72258SOL    HW218672   9.653  11.255  10.685
72259SOL     OW18673   9.393  13.951   5.540
72259SOL    HW118674   9.334  13.970   5.613
72259SOL    HW218675   9.375  14.019   5.475
72260SOL     OW18676   0.705  11.534   7.094
72260SOL    HW118677   0.729  11.609   7.148
72260SOL    HW218678   0.622  11.559   7.054
72261SOL     OW18679   2.335  14.325  11.607
72261SOL    HW118680   2.373  14.408  11.578
72261SOL    HW218681   2.352  14.264  11.536
72262SOL     OW18682  13.844   8.548   4.862
72262SOL    HW118683  13.910   8.560   4.930
72262SOL    HW218684  13.890   8.567   4.780
72263SOL     OW18685  10.970   3.970   8.335
72263SOL    HW118686  10.970   4.013   8.421
72263SOL    HW218687  10.907   3.898   8.345
72264SOL     OW18688   9.112  14.578   4.739
72264SOL    HW118689   9.032  14.534   4.767
72264SOL    HW218690   9.179  14.509   4.739
72265SOL     OW18691   2.196   3.737  14.012
72265SOL    HW118692   2.278   3.693  13.990
72265SOL    HW218693   2.128   3.676  13.985
72266SOL     OW18694   2.995   1.433   4.538
72266SOL    HW118695   2.996   1.472   4.450
72266SOL    HW218696   2.982   1.339   4.522
72267SOL     OW18697   0.144   5.470  10.042
72267SOL    HW118698   0.118   5.427   9.961
72267SOL    HW218699   0.112   5.559  10.034
72268SOL     OW18700   4.987  11.748  12.532
72268SOL    HW118701   4.974  11.674  12.472
72268SOL    HW218702   5.019  11.708  12.612
72269SOL     OW18703  11.085   1.900  13.642
72269SOL    HW118704  10.990   1.901  13.656
72269SOL    HW218705  11.097   1.847  13.563
72270SOL     OW18706   0.389  12.323   2.788
72270SOL    HW118707   0.363  12.398   2.733
72270SOL    HW218708   0.312  12.305   2.841
72271SOL     OW18709   0.787  13.247   8.822
72271SOL    HW118710   0.787  13.339   8.796
72271SOL    HW218711   0.802  13.249   8.917
72272SOL     OW18712   8.450   1.790  14.108
72272SOL    HW118713   8.356   1.783  14.126
72272SOL    HW218714   8.463   1.882  14.087
72273SOL     OW18715  12.413   8.656   7.317
72273SOL    HW118716  12.318   8.658   7.303
72273SOL    HW218717  12.433   8.565   7.337
72274SOL     OW18718   9.759  10.476  12.564
72274SOL    HW118719   9.847  10.514  12.573
72274SOL    HW218720   9.707  10.517  12.633
72275SOL     OW18721  12.762   5.549  11.705
72275SOL    HW118722  12.812   5.630  11.691
72275SOL    HW218723  12.670   5.576  11.695
72276SOL     OW18724   1.514   5.852   7.269
72276SOL    HW118725   1.590   5.826   7.320
72276SOL    HW218726   1.541   5.932   7.223
72277SOL     OW18727   7.749  13.248   0.772
72277SOL    HW118728   7.736  13.291   0.687
72277SOL    HW218729   7.700  13.167   0.767
72278SOL     OW18730   6.569  14.648  13.106
72278SOL    HW118731   6.580  14.727  13.053
72278SOL    HW218732   6.477  14.625  13.095
72279SOL     OW18733   4.785  11.140  12.921
72279SOL    HW118734   4.738  11.180  12.848
72279SOL    HW218735   4.800  11.213  12.982
72280SOL     OW18736   5.948   3.116   9.554
72280SOL    HW118737   5.912   3.067   9.628
72280SOL    HW218738   5.982   3.197   9.593
72281SOL     OW18739   2.198   5.398  12.808
72281SOL    HW118740   2.111   5.433  12.829
72281SOL    HW218741   2.192   5.372  12.716
72282SOL     OW18742  10.585   0.096   0.267
72282SOL    HW118743  10.558   0.114   0.358
72282SOL    HW218744  10.676   0.067   0.274
72283SOL     OW18745  11.415   5.108  12.953
72283SOL    HW118746  11.466   5.130  13.030
72283SOL    HW218747  11.478   5.112  12.880
72284SOL     OW18748   4.966  11.308   3.083
72284SOL    HW118749   4.916  11.389   3.093
72284SOL    HW218750   4.916  11.257   3.019
72285SOL     OW18751  13.998  12.979   0.806
72285SOL    HW118752  13.932  13.047   0.816
72285SOL    HW218753  14.015  12.977   0.711
72286SOL     OW18754   4.569   1.834   5.879
72286SOL    HW118755   4.618   1.813   5.958
72286SOL    HW218756   4.627   1.809   5.807
72287SOL     OW18757  11.752  11.256  10.010
72287SOL    HW118758  11.780  11.341  10.046
72287SOL    HW218759  11.782  11.192  10.075
72288SOL     OW18760  11.554   8.033  10.493
72288SOL    HW118761  11.536   8.127  10.492
72288SOL    HW218762  11.536   8.006  10.583
72289SOL     OW18763  10.013   6.780   4.417
72289SOL    HW118764   9.964   6.727   4.480
72289SOL    HW218765  10.082   6.820   4.470
72290SOL     OW18766   1.882   7.686  13.764
72290SOL    HW118767   1.857   7.607  13.812
72290SOL    HW218768   1.912   7.655  13.679
72291SOL     OW18769  14.608  11.239   0.552
72291SOL    HW118770  14.608  11.328   0.586
72291SOL    HW218771  14.551  11.243   0.475
72292SOL     OW18772  13.619  12.588   1.199
72292SOL    HW118773  13.563  12.570   1.275
72292SOL    HW218774  13.613  12.510   1.145
72293SOL     OW18775   0.306  12.678   1.250
72293SOL    HW118776   0.320  12.611   1.183
72293SOL    HW218777   0.393  12.697   1.284
72294SOL     OW18778   3.055   0.351  12.352
72294SOL    HW118779   3.139   0.323  12.389
72294SOL    HW218780   3.011   0.269  12.328
72295SOL     OW18781  13.156  13.658   2.448
72295SOL    HW118782  13.229  13.719   2.459
72295SOL    HW218783  13.173  13.589   2.512
72296SOL     OW18784   9.190  11.392   7.547
72296SOL    HW118785   9.286  11.394   7.547
72296SOL    HW218786   9.167  11.375   7.639
72297SOL     OW18787   1.558  14.351   1.281
72297SOL    HW118788   1.504  14.414   1.328
72297SOL    HW218789   1.549  14.375   1.188
72298SOL     OW18790   2.777   3.252  12.572
72298SOL    HW118791   2.782   3.247  12.668
72298SOL    HW218792   2.733   3.335  12.555
72299SOL     OW18793  13.461   8.319  12.250
72299SOL    HW118794  13.454   8.406  12.289
72299SOL    HW218795  13.548   8.288  12.275
72300SOL     OW18796  14.788  11.938   8.682
72300SOL    HW118797  14.729  12.006   8.650
72300SOL    HW218798  14.783  11.944   8.778
72301SOL     OW18799   0.287   5.801  11.507
72301SOL    HW118800   0.240   5.726  11.469
72301SOL    HW218801   0.258   5.804  11.598
72302SOL     OW18802   5.620   5.764   3.938
72302SOL    HW118803   5.563   5.814   3.996
72302SOL    HW218804   5.705   5.806   3.947
72303SOL     OW18805   8.483   4.000  10.357
72303SOL    HW118806   8.411   4.052  10.321
72303SOL    HW218807   8.470   3.912  10.319
72304SOL     OW18808   0.222   3.833   7.206
72304SOL    HW118809   0.166   3.882   7.267
72304SOL    HW218810   0.160   3.783   7.152
72305SOL     OW18811   2.838   3.643   6.769
72305SOL    HW118812   2.925   3.606   6.750
72305SOL    HW218813   2.782   3.566   6.782
72306SOL     OW18814  13.686   2.078   3.664
72306SOL    HW118815  13.673   2.106   3.755
72306SOL    HW218816  13.605   2.034   3.640
72307SOL     OW18817   4.534   6.828   9.243
72307SOL    HW118818   4.548   6.918   9.274
72307SOL    HW218819   4.572   6.827   9.155
72308SOL     OW18820   3.966   6.052   8.529
72308SOL    HW118821   4.040   6.003   8.565
72308SOL    HW218822   3.893   5.989   8.531
72309SOL     OW18823   1.966   5.141   2.001
72309SOL    HW118824   1.940   5.233   2.011
72309SOL    HW218825   2.028   5.142   1.928
72310SOL     OW18826   9.437   6.639   1.492
72310SOL    HW118827   9.497   6.614   1.422
72310SOL    HW218828   9.401   6.723   1.465
72311SOL     OW18829   1.372   2.948   3.311
72311SOL    HW118830   1.447   2.899   3.276
72311SOL    HW218831   1.349   2.901   3.392
72312SOL     OW18832   2.618   7.443  11.815
72312SOL    HW118833   2.713   7.442  11.826
72312SOL    HW218834   2.591   7.353  11.833
72313SOL     OW18835   1.741   4.681   6.057
72313SOL    HW118836   1.669   4.640   6.009
72313SOL    HW218837   1.719   4.668   6.149
72314SOL     OW18838   9.185   9.815   9.544
72314SOL    HW118839   9.159   9.767   9.623
72314SOL    HW218840   9.227   9.750   9.489
72315SOL     OW18841  11.777  13.813   0.975
72315SOL    HW118842  11.805  13.745   0.914
72315SOL    HW218843  11.741  13.765   1.049
72316SOL     OW18844  13.728  12.529   5.103
72316SOL    HW118845  13.795  12.494   5.044
72316SOL    HW218846  13.649  12.534   5.048
72317SOL     OW18847  10.188   0.331   3.143
72317SOL    HW118848  10.193   0.427   3.145
72317SOL    HW218849  10.103   0.313   3.103
72318SOL     OW18850   0.409   4.655   9.499
72318SOL    HW118851   0.405   4.714   9.424
72318SOL    HW218852   0.372   4.705   9.572
72319SOL     OW18853  12.330   0.183   4.394
72319SOL    HW118854  12.325   0.088   4.408
72319SOL    HW218855  12.290   0.197   4.308
72320SOL     OW18856   2.278   3.624   0.740
72320SOL    HW118857   2.366   3.621   0.703
72320SOL    HW218858   2.292   3.634   0.834
72321SOL     OW18859   4.523   9.593   7.554
72321SOL    HW118860   4.567   9.648   7.620
72321SOL    HW218861   4.502   9.654   7.483
72322SOL     OW18862   1.926  11.990  12.247
72322SOL    HW118863   1.957  11.900  12.258
72322SOL    HW218864   1.849  11.995  12.303
72323SOL     OW18865  14.574  10.664   8.695
72323SOL    HW118866  14.646  10.726   8.705
72323SOL    HW218867  14.543  10.678   8.605
72324SOL     OW18868   8.058   8.735   3.308
72324SOL    HW118869   8.114   8.669   3.268
72324SOL    HW218870   7.991   8.754   3.243
72325SOL     OW18871  13.465  14.298   7.138
72325SOL    HW118872  13.549  14.344   7.143
72325SOL    HW218873  13.422  14.336   7.062
72326SOL     OW18874   5.889   0.249   2.723
72326SOL    HW118875   5.870   0.323   2.780
72326SOL    HW218876   5.829   0.260   2.649
72327SOL     OW18877   9.710   2.185   0.650
72327SOL    HW118878   9.618   2.163   0.658
72327SOL    HW218879   9.712   2.280   0.641
72328SOL     OW18880   1.657   6.440  11.648
72328SOL    HW118881   1.655   6.398  11.735
72328SOL    HW218882   1.735   6.495  11.650
72329SOL     OW18883   6.073   9.278   6.252
72329SOL    HW118884   6.058   9.226   6.331
72329SOL    HW218885   6.150   9.237   6.211
72330SOL     OW18886  10.869  10.012  12.339
72330SOL    HW118887  10.882   9.992  12.432
72330SOL    HW218888  10.946  10.062  12.315
72331SOL     OW18889  12.544   7.832   0.401
72331SOL    HW118890  12.535   7.925   0.382
72331SOL    HW218891  12.635   7.822   0.428
72332SOL     OW18892  12.661   1.374  11.495
72332SOL    HW118893  12.580   1.425  11.499
72332SOL    HW218894  12.658   1.317  11.571
72333SOL     OW18895   0.326   7.474   6.374
72333SOL    HW118896   0.305   7.403   6.435
72333SOL    HW218897   0.283   7.551   6.411
72334SOL     OW18898  14.855   6.575   1.127
72334SOL    HW118899   0.063   6.588   1.168
72334SOL    HW218900  14.800   6.644   1.164
72335SOL     OW18901   2.418   3.262   4.799
72335SOL    HW118902   2.334   3.217   4.809
72335SOL    HW218903   2.395   3.350   4.770
72336SOL     OW18904  13.836  10.347  11.252
72336SOL    HW118905  13.763  10.320  11.309
72336SOL    HW218906  13.852  10.438  11.277
72337SOL     OW18907   2.377   4.542   0.869
72337SOL    HW118908   2.444   4.528   0.803
72337SOL    HW218909   2.353   4.635   0.859
72338SOL     OW18910  11.963   9.099   9.011
72338SOL    HW118911  11.910   9.153   9.070
72338SOL    HW218912  11.903   9.072   8.942
72339SOL     OW18913   0.053  13.219  14.153
72339SOL    HW118914  14.844  13.194  14.185
72339SOL    HW218915   0.098  13.136  14.138
72340SOL     OW18916   8.600   0.672   7.031
72340SOL    HW118917   8.605   0.579   7.053
72340SOL    HW218918   8.645   0.678   6.947
72341SOL     OW18919   6.514   3.891   0.427
72341SOL    HW118920   6.550   3.860   0.344
72341SOL    HW218921   6.568   3.967   0.449
72342SOL     OW18922  13.746  11.266   2.808
72342SOL    HW118923  13.680  11.327   2.843
72342SOL    HW218924  13.769  11.303   2.723
72343SOL     OW18925  11.836   2.780  11.323
72343SOL    HW118926  11.919   2.756  11.282
72343SOL    HW218927  11.819   2.709  11.385
72344SOL     OW18928  10.999  13.286   2.433
72344SOL    HW118929  10.961  13.235   2.505
72344SOL    HW218930  11.043  13.359   2.477
72345SOL     OW18931   9.906  11.839  11.038
72345SOL    HW118932   9.822  11.815  11.076
72345SOL    HW218933   9.883  11.890  10.960
72346SOL     OW18934  11.818  10.741   9.612
72346SOL    HW118935  11.742  10.797   9.629
72346SOL    HW218936  11.812  10.721   9.518
72347SOL     OW18937   4.509   0.739  12.935
72347SOL    HW118938   4.551   0.672  12.988
72347SOL    HW218939   4.455   0.691  12.873
72348SOL     OW18940   9.090   3.142   8.089
72348SOL    HW118941   9.039   3.068   8.122
72348SOL    HW218942   9.025   3.200   8.049
72349SOL     OW18943   7.695   2.450   8.788
72349SOL    HW118944   7.619   2.408   8.829
72349SOL    HW218945   7.749   2.377   8.758
72350SOL     OW18946   9.538   0.773  11.929
72350SOL    HW118947   9.456   0.822  11.930
72350SOL    HW218948   9.511   0.681  11.933
72351SOL     OW18949  14.799   0.430  14.073
72351SOL    HW118950  14.712   0.433  14.034
72351SOL    HW218951  14.832   0.342  14.054
72352SOL     OW18952  10.766   9.068  13.212
72352SOL    HW118953  10.785   9.011  13.137
72352SOL    HW218954  10.843   9.058  13.269
72353SOL     OW18955   8.466  11.545   4.113
72353SOL    HW118956   8.472  11.596   4.194
72353SOL    HW218957   8.384  11.497   4.121
72354SOL     OW18958   9.241  14.680   9.771
72354SOL    HW118959   9.282  14.662   9.856
72354SOL    HW218960   9.209  14.770   9.780
72355SOL     OW18961   0.724  10.723   9.521
72355SOL    HW118962   0.635  10.707   9.552
72355SOL    HW218963   0.738  10.816   9.538
72356SOL     OW18964  14.316   2.791   3.267
72356SOL    HW118965  14.221   2.793   3.256
72356SOL    HW218966  14.332   2.854   3.338
72357SOL     OW18967  11.537   8.290   6.599
72357SOL    HW118968  11.489   8.308   6.518
72357SOL    HW218969  11.533   8.372   6.648
72358SOL     OW18970   5.581  13.977   4.294
72358SOL    HW118971   5.594  13.895   4.341
72358SOL    HW218972   5.669  14.012   4.281
72359SOL     OW18973   7.957   0.205   8.980
72359SOL    HW118974   7.964   0.134   9.044
72359SOL    HW218975   7.887   0.177   8.921
72360SOL     OW18976   7.950   4.075   1.966
72360SOL    HW118977   7.901   4.141   2.015
72360SOL    HW218978   7.976   4.010   2.032
72361SOL     OW18979  13.639  11.043  10.020
72361SOL    HW118980  13.661  10.974   9.958
72361SOL    HW218981  13.724  11.083  10.042
72362SOL     OW18982  13.627   1.283   1.701
72362SOL    HW118983  13.597   1.269   1.790
72362SOL    HW218984  13.714   1.320   1.710
72363SOL     OW18985   4.795   9.175   4.992
72363SOL    HW118986   4.793   9.115   5.066
72363SOL    HW218987   4.871   9.231   5.007
72364SOL     OW18988  13.296   0.426  10.073
72364SOL    HW118989  13.250   0.392   9.996
72364SOL    HW218990  13.301   0.352  10.133
72365SOL     OW18991   1.092   4.466   2.899
72365SOL    HW118992   1.181   4.464   2.862
72365SOL    HW218993   1.039   4.506   2.830
72366SOL     OW18994  12.100   6.731  14.398
72366SOL    HW118995  12.066   6.820  14.399
72366SOL    HW218996  12.195   6.741  14.411
72367SOL     OW18997   9.393   3.881   3.967
72367SOL    HW118998   9.407   3.969   3.932
72367SOL    HW218999   9.453   3.875   4.041
72368SOL     OW19000   8.831   7.588  11.803
72368SOL    HW119001   8.833   7.493  11.807
72368SOL    HW219002   8.911   7.613  11.756
72369SOL     OW19003  13.598  13.678   9.434
72369SOL    HW119004  13.545  13.745   9.390
72369SOL    HW219005  13.588  13.600   9.380
72370SOL     OW19006  14.441   9.870  12.056
72370SOL    HW119007  14.383   9.817  12.002
72370SOL    HW219008  14.471   9.811  12.125
72371SOL     OW19009   4.059  10.690  10.742
72371SOL    HW119010   4.064  10.604  10.783
72371SOL    HW219011   4.026  10.748  10.810
72372SOL     OW19012  12.919  13.737   2.572
72372SOL    HW119013  12.999  13.714   2.524
72372SOL    HW219014  12.950  13.781   2.651
72373SOL     OW19015   6.393  11.230   3.069
72373SOL    HW119016   6.417  11.323   3.064
72373SOL    HW219017   6.442  11.197   3.144
72374SOL     OW19018   9.746  13.538  12.241
72374SOL    HW119019   9.748  13.628  12.208
72374SOL    HW219020   9.739  13.484  12.163
72375SOL     OW19021  12.741   2.161   7.643
72375SOL    HW119022  12.818   2.121   7.682
72375SOL    HW219023  12.770   2.189   7.556
72376SOL     OW19024  10.598   5.074   2.698
72376SOL    HW119025  10.664   5.102   2.635
72376SOL    HW219026  10.547   5.007   2.652
72377SOL     OW19027   9.439   0.846   7.704
72377SOL    HW119028   9.488   0.778   7.751
72377SOL    HW219029   9.491   0.863   7.625
72378SOL     OW19030   3.618  13.912  10.256
72378SOL    HW119031   3.528  13.929  10.282
72378SOL    HW219032   3.668  13.918  10.337
72379SOL     OW19033  10.684  10.933   2.087
72379SOL    HW119034  10.761  10.899   2.041
72379SOL    HW219035  10.697  11.027   2.091
72380SOL     OW19036   2.470   8.882   2.688
72380SOL    HW119037   2.552   8.871   2.737
72380SOL    HW219038   2.402   8.886   2.755
72381SOL     OW19039   0.952   0.789   5.008
72381SOL    HW119040   0.893   0.846   5.057
72381SOL    HW219041   0.920   0.792   4.918
72382SOL     OW19042   0.833   2.352   9.811
72382SOL    HW119043   0.848   2.258   9.813
72382SOL    HW219044   0.909   2.390   9.854
72383SOL     OW19045   7.807  13.382  10.318
72383SOL    HW119046   7.896  13.348  10.313
72383SOL    HW219047   7.784  13.400  10.227
72384SOL     OW19048  13.245   7.158   9.337
72384SOL    HW119049  13.183   7.172   9.409
72384SOL    HW219050  13.190   7.129   9.264
72385SOL     OW19051  11.831  11.924   1.807
72385SOL    HW119052  11.772  11.998   1.793
72385SOL    HW219053  11.916  11.965   1.824
72386SOL     OW19054   8.726   1.589   8.979
72386SOL    HW119055   8.756   1.576   9.069
72386SOL    HW219056   8.635   1.617   8.988
72387SOL     OW19057   6.580  13.965  11.698
72387SOL    HW119058   6.503  13.911  11.678
72387SOL    HW219059   6.550  14.026  11.766
72388SOL     OW19060  11.762  12.942   9.836
72388SOL    HW119061  11.688  12.976   9.786
72388SOL    HW219062  11.722  12.894   9.908
72389SOL     OW19063   6.467   7.225  13.481
72389SOL    HW119064   6.527   7.294  13.454
72389SOL    HW219065   6.516   7.144  13.466
72390SOL     OW19066   8.201   8.248   2.395
72390SOL    HW119067   8.144   8.172   2.405
72390SOL    HW219068   8.222   8.274   2.484
72391SOL     OW19069  14.846   3.565  13.170
72391SOL    HW119070   0.011   3.509  13.235
72391SOL    HW219071   0.040   3.593  13.113
72392SOL     OW19072  14.722  14.037  11.134
72392SOL    HW119073  14.750  14.049  11.225
72392SOL    HW219074  14.803  14.029  11.084
72393SOL     OW19075   7.327   3.443  10.716
72393SOL    HW119076   7.358   3.454  10.806
72393SOL    HW219077   7.390   3.382  10.677
72394SOL     OW19078  10.398   3.184  12.449
72394SOL    HW119079  10.442   3.203  12.366
72394SOL    HW219080  10.311   3.224  12.439
72395SOL     OW19081  14.122   7.297   3.954
72395SOL    HW119082  14.139   7.285   4.048
72395SOL    HW219083  14.185   7.238   3.912
72396SOL     OW19084   7.633  12.382  10.169
72396SOL    HW119085   7.611  12.399  10.078
72396SOL    HW219086   7.656  12.289  10.171
72397SOL     OW19087  13.793  10.217   1.586
72397SOL    HW119088  13.806  10.307   1.616
72397SOL    HW219089  13.877  10.191   1.548
72398SOL     OW19090   1.222  11.072   9.565
72398SOL    HW119091   1.265  10.986   9.561
72398SOL    HW219092   1.292  11.132   9.592
72399SOL     OW19093   0.255  13.305   2.960
72399SOL    HW119094   0.301  13.241   2.906
72399SOL    HW219095   0.248  13.265   3.046
72400SOL     OW19096  13.695  10.457   1.463
72400SOL    HW119097  13.607  10.461   1.425
72400SOL    HW219098  13.724  10.368   1.446
72401SOL     OW19099  11.928   5.739   5.600
72401SOL    HW119100  11.952   5.758   5.509
72401SOL    HW219101  12.002   5.689   5.634
72402SOL     OW19102  10.117  12.486   2.980
72402SOL    HW119103  10.090  12.478   2.888
72402SOL    HW219104  10.054  12.545   3.019
72403SOL     OW19105  13.895  10.274   7.909
72403SOL    HW119106  13.960  10.244   7.972
72403SOL    HW219107  13.945  10.296   7.831
72404SOL     OW19108   7.626   0.124   4.896
72404SOL    HW119109   7.614   0.181   4.820
72404SOL    HW219110   7.577   0.168   4.966
72405SOL     OW19111   0.485   8.530   2.748
72405SOL    HW119112   0.494   8.625   2.758
72405SOL    HW219113   0.500   8.496   2.837
72406SOL     OW19114   1.478   5.191   7.421
72406SOL    HW119115   1.408   5.191   7.485
72406SOL    HW219116   1.557   5.208   7.472
72407SOL     OW19117   1.096  11.863   0.361
72407SOL    HW119118   1.025  11.802   0.341
72407SOL    HW219119   1.076  11.941   0.309
72408SOL     OW19120  14.530  10.772   9.981
72408SOL    HW119121  14.505  10.857   9.944
72408SOL    HW219122  14.544  10.791  10.074
72409SOL     OW19123   4.906   4.121  11.456
72409SOL    HW119124   4.862   4.045  11.493
72409SOL    HW219125   4.845   4.153  11.388
72410SOL     OW19126   5.536   9.541   6.818
72410SOL    HW119127   5.613   9.484   6.817
72410SOL    HW219128   5.481   9.508   6.746
72411SOL     OW19129   2.019  13.201  13.391
72411SOL    HW119130   2.003  13.230  13.301
72411SOL    HW219131   2.090  13.137  13.383
72412SOL     OW19132  12.723  10.918   3.929
72412SOL    HW119133  12.780  10.995   3.927
72412SOL    HW219134  12.634  10.954   3.934
72413SOL     OW19135  11.247  13.230   3.148
72413SOL    HW119136  11.321  13.218   3.208
72413SOL    HW219137  11.192  13.154   3.163
72414SOL     OW19138   3.800   0.037  10.598
72414SOL    HW119139   3.755  14.854  10.540
72414SOL    HW219140   3.775   0.124  10.567
72415SOL     OW19141   8.035   9.778  12.798
72415SOL    HW119142   8.011   9.752  12.710
72415SOL    HW219143   7.963   9.833  12.828
72416SOL     OW19144   1.632   4.487   0.543
72416SOL    HW119145   1.667   4.420   0.601
72416SOL    HW219146   1.621   4.564   0.599
72417SOL     OW19147   4.106  10.779   9.214
72417SOL    HW119148   4.104  10.754   9.121
72417SOL    HW219149   4.193  10.752   9.244
72418SOL     OW19150  14.594   7.297   8.397
72418SOL    HW119151  14.604   7.364   8.329
72418SOL    HW219152  14.643   7.332   8.472
72419SOL     OW19153   2.328   2.311   9.305
72419SOL    HW119154   2.282   2.240   9.260
72419SOL    HW219155   2.409   2.271   9.337
72420SOL     OW19156   8.638   6.840  13.463
72420SOL    HW119157   8.708   6.875  13.518
72420SOL    HW219158   8.559   6.850  13.516
72421SOL     OW19159  10.752  13.053   5.628
72421SOL    HW119160  10.691  13.092   5.566
72421SOL    HW219161  10.738  13.101   5.710
72422SOL     OW19162  10.804   2.735  11.619
72422SOL    HW119163  10.811   2.647  11.655
72422SOL    HW219164  10.858   2.790  11.676
72423SOL     OW19165  11.940   4.183   9.992
72423SOL    HW119166  11.972   4.104  10.035
72423SOL    HW219167  11.997   4.195   9.916
72424SOL     OW19168   1.710   1.134   6.583
72424SOL    HW119169   1.800   1.146   6.551
72424SOL    HW219170   1.720   1.084   6.664
72425SOL     OW19171   1.157   9.653  12.908
72425SOL    HW119172   1.100   9.728  12.891
72425SOL    HW219173   1.122   9.583  12.853
72426SOL     OW19174   8.351   2.130  11.899
72426SOL    HW119175   8.270   2.079  11.903
72426SOL    HW219176   8.323   2.221  11.911
72427SOL     OW19177   1.180   3.135  13.897
72427SOL    HW119178   1.206   3.173  13.814
72427SOL    HW219179   1.254   3.149  13.956
72428SOL     OW19180   3.729   7.999   8.363
72428SOL    HW119181   3.725   7.925   8.303
72428SOL    HW219182   3.803   8.051   8.332
72429SOL     OW19183   8.331   4.675   8.174
72429SOL    HW119184   8.291   4.726   8.104
72429SOL    HW219185   8.300   4.716   8.255
72430SOL     OW19186   8.472   5.294  10.995
72430SOL    HW119187   8.471   5.295  11.090
72430SOL    HW219188   8.397   5.349  10.969
72431SOL     OW19189  14.762   6.783   0.245
72431SOL    HW119190  14.826   6.714   0.259
72431SOL    HW219191  14.791   6.827   0.165
72432SOL     OW19192   8.983  14.116   6.599
72432SOL    HW119193   9.007  14.201   6.635
72432SOL    HW219194   8.960  14.135   6.508
72433SOL     OW19195   7.461   4.218   6.436
72433SOL    HW119196   7.538   4.184   6.391
72433SOL    HW219197   7.477   4.202   6.529
72434SOL     OW19198   8.233   7.411   1.024
72434SOL    HW119199   8.244   7.506   1.022
72434SOL    HW219200   8.204   7.389   0.936
72435SOL     OW19201  13.240   8.685  11.693
72435SOL    HW119202  13.281   8.598  11.702
72435SOL    HW219203  13.155   8.676  11.735
72436SOL     OW19204   8.065  13.737  10.081
72436SOL    HW119205   7.992  13.708  10.028
72436SOL    HW219206   8.043  13.709  10.170
72437SOL     OW19207   8.422  11.313   1.301
72437SOL    HW119208   8.489  11.363   1.256
72437SOL    HW219209   8.454  11.305   1.391
72438SOL     OW19210  14.072   8.811   6.563
72438SOL    HW119211  14.083   8.736   6.505
72438SOL    HW219212  14.158   8.825   6.602
72439SOL     OW19213   9.964   6.958  11.713
72439SOL    HW119214  10.053   6.960  11.676
72439SOL    HW219215   9.907   6.962  11.636
72440SOL     OW19216   5.242  13.952   7.750
72440SOL    HW119217   5.155  13.940   7.789
72440SOL    HW219218   5.225  13.972   7.658
72441SOL     OW19219  11.500  11.551  13.848
72441SOL    HW119220  11.531  11.622  13.792
72441SOL    HW219221  11.484  11.478  13.788
72442SOL     OW19222  10.240   5.708  10.872
72442SOL    HW119223  10.317   5.716  10.928
72442SOL    HW219224  10.189   5.787  10.890
72443SOL     OW19225   8.193  10.862   2.321
72443SOL    HW119226   8.238  10.800   2.263
72443SOL    HW219227   8.186  10.942   2.270
72444SOL     OW19228   9.343   8.058   6.638
72444SOL    HW119229   9.340   8.041   6.544
72444SOL    HW219230   9.320   7.975   6.679
72445SOL     OW19231  12.484   1.212   5.142
72445SOL    HW119232  12.519   1.280   5.084
72445SOL    HW219233  12.399   1.245   5.170
72446SOL     OW19234   7.610   0.540  14.393
72446SOL    HW119235   7.671   0.476  14.430
72446SOL    HW219236   7.597   0.511  14.302
72447SOL     OW19237  11.152  13.022  12.311
72447SOL    HW119238  11.099  13.069  12.375
72447SOL    HW219239  11.141  12.930  12.335
72448SOL     OW19240   7.266   5.567  11.494
72448SOL    HW119241   7.219   5.535  11.417
72448SOL    HW219242   7.205   5.628  11.536
72449SOL     OW19243  12.600  12.406  11.830
72449SOL    HW119244  12.615  12.387  11.922
72449SOL    HW219245  12.671  12.466  11.806
72450SOL     OW19246   0.598   5.396   2.532
72450SOL    HW119247   0.585   5.331   2.601
72450SOL    HW219248   0.516   5.446   2.530
72451SOL     OW19249  10.252  14.358   6.060
72451SOL    HW119250  10.264  14.449   6.084
72451SOL    HW219251  10.334  14.333   6.017
72452SOL     OW19252   3.382  14.740   6.745
72452SOL    HW119253   3.413  14.772   6.660
72452SOL    HW219254   3.385  14.817   6.802
72453SOL     OW19255  10.531   9.533   8.953
72453SOL    HW119256  10.626   9.517   8.958
72453SOL    HW219257  10.495   9.491   9.031
72454SOL     OW19258   2.760  13.763   1.077
72454SOL    HW119259   2.854  13.752   1.084
72454SOL    HW219260   2.730  13.685   1.030
72455SOL     OW19261   6.388   5.221   4.447
72455SOL    HW119262   6.309   5.171   4.468
72455SOL    HW219263   6.434   5.167   4.383
72456SOL     OW19264   9.898   2.474   5.096
72456SOL    HW119265   9.900   2.567   5.118
72456SOL    HW219266   9.961   2.434   5.156
72457SOL     OW19267   4.254   0.776   8.409
72457SOL    HW119268   4.211   0.753   8.491
72457SOL    HW219269   4.183   0.786   8.346
72458SOL     OW19270   9.234   3.994   6.686
72458SOL    HW119271   9.263   4.051   6.757
72458SOL    HW219272   9.152   3.956   6.718
72459SOL     OW19273  11.032  13.182   6.915
72459SOL    HW119274  11.098  13.198   6.848
72459SOL    HW219275  11.082  13.152   6.991
72460SOL     OW19276   5.468   5.895   7.744
72460SOL    HW119277   5.460   5.921   7.836
72460SOL    HW219278   5.408   5.822   7.735
72461SOL     OW19279   9.096   8.127   9.990
72461SOL    HW119280   9.060   8.039   9.984
72461SOL    HW219281   9.187   8.119   9.960
72462SOL     OW19282  13.846  11.861   7.765
72462SOL    HW119283  13.769  11.805   7.757
72462SOL    HW219284  13.883  11.863   7.676
72463SOL     OW19285   6.265   3.966  11.758
72463SOL    HW119286   6.305   3.933  11.677
72463SOL    HW219287   6.318   4.041  11.783
72464SOL     OW19288   0.014   1.525   6.099
72464SOL    HW119289   0.090   1.500   6.152
72464SOL    HW219290  14.832   1.451   6.107
72465SOL     OW19291   6.427   2.362  10.609
72465SOL    HW119292   6.442   2.456  10.595
72465SOL    HW219293   6.418   2.353  10.703
72466SOL     OW19294   9.080   2.176  10.640
72466SOL    HW119295   9.075   2.271  10.641
72466SOL    HW219296   9.173   2.157  10.652
72467SOL     OW19297   2.047   3.760  14.413
72467SOL    HW119298   1.996   3.693  14.368
72467SOL    HW219299   2.032   3.744  14.506
72468SOL     OW19300   0.705  11.271   8.171
72468SOL    HW119301   0.693  11.215   8.094
72468SOL    HW219302   0.660  11.353   8.148
72469SOL     OW19303   2.901  14.118   6.508
72469SOL    HW119304   2.836  14.079   6.568
72469SOL    HW219305   2.961  14.166   6.564
72470SOL     OW19306   9.129  11.234   4.808
72470SOL    HW119307   9.044  11.268   4.779
72470SOL    HW219308   9.127  11.142   4.782
72471SOL     OW19309   6.914  12.152   2.014
72471SOL    HW119310   6.919  12.063   2.050
72471SOL    HW219311   6.878  12.139   1.926
72472SOL     OW19312   8.927   4.546   0.795
72472SOL    HW119313   8.924   4.586   0.708
72472SOL    HW219314   8.836   4.521   0.814
72473SOL     OW19315  14.830   4.458   1.014
72473SOL    HW119316  14.808   4.466   0.921
72473SOL    HW219317  14.758   4.502   1.059
72474SOL     OW19318   3.143  13.531  11.391
72474SOL    HW119319   3.206  13.603  11.392
72474SOL    HW219320   3.057  13.574  11.399
72475SOL     OW19321   1.151   0.470  12.474
72475SOL    HW119322   1.112   0.468  12.386
72475SOL    HW219323   1.245   0.481  12.458
72476SOL     OW19324   2.469   2.530  12.886
72476SOL    HW119325   2.385   2.489  12.906
72476SOL    HW219326   2.448   2.623  12.873
72477SOL     OW19327   9.915  13.043   8.429
72477SOL    HW119328   9.862  13.052   8.508
72477SOL    HW219329   9.925  13.132   8.396
72478SOL     OW19330   4.243   5.979   3.199
72478SOL    HW119331   4.202   6.004   3.115
72478SOL    HW219332   4.193   5.903   3.228
72479SOL     OW19333  12.028   7.877   4.016
72479SOL    HW119334  12.104   7.819   4.011
72479SOL    HW219335  12.053   7.943   4.081
72480SOL     OW19336   9.355   8.738  13.742
72480SOL    HW119337   9.330   8.656  13.785
72480SOL    HW219338   9.410   8.711  13.668
72481SOL     OW19339  11.629   2.339   0.469
72481SOL    HW119340  11.715   2.297   0.460
72481SOL    HW219341  11.571   2.286   0.415
72482SOL     OW19342   7.884   8.602   8.488
72482SOL    HW119343   7.935   8.610   8.568
72482SOL    HW219344   7.949   8.599   8.418
72483SOL     OW19345  10.028  14.493   7.233
72483SOL    HW119346   9.944  14.538   7.246
72483SOL    HW219347  10.078  14.551   7.177
72484SOL     OW19348   3.215   5.828  11.586
72484SOL    HW119349   3.196   5.875  11.668
72484SOL    HW219350   3.290   5.873  11.549
72485SOL     OW19351   1.953   9.520   8.355
72485SOL    HW119352   1.924   9.442   8.403
72485SOL    HW219353   2.048   9.518   8.361
72486SOL     OW19354  11.207   3.948   3.454
72486SOL    HW119355  11.160   3.869   3.479
72486SOL    HW219356  11.177   3.967   3.365
72487SOL     OW19357   8.305   2.942  10.747
72487SOL    HW119358   8.332   2.873  10.808
72487SOL    HW219359   8.286   2.896  10.665
72488SOL     OW19360   6.586   5.294   9.028
72488SOL    HW119361   6.611   5.386   9.017
72488SOL    HW219362   6.622   5.250   8.951
72489SOL     OW19363   0.564   0.121   6.264
72489SOL    HW119364   0.472   0.118   6.288
72489SOL    HW219365   0.564   0.151   6.172
72490SOL     OW19366   7.637   5.774  12.735
72490SOL    HW119367   7.693   5.738  12.803
72490SOL    HW219368   7.548   5.765  12.770
72491SOL     OW19369  13.986   2.454  13.649
72491SOL    HW119370  14.071   2.455  13.606
72491SOL    HW219371  13.975   2.544  13.682
72492SOL     OW19372  13.405   5.750  13.759
72492SOL    HW119373  13.417   5.664  13.719
72492SOL    HW219374  13.413   5.733  13.853
72493SOL     OW19375   6.576   6.823   3.539
72493SOL    HW119376   6.503   6.862   3.491
72493SOL    HW219377   6.608   6.893   3.596
72494SOL     OW19378  11.705  12.893  10.897
72494SOL    HW119379  11.763  12.920  10.968
72494SOL    HW219380  11.619  12.928  10.922
72495SOL     OW19381   0.902   9.576   5.914
72495SOL    HW119382   0.977   9.558   5.969
72495SOL    HW219383   0.826   9.558   5.969
72496SOL     OW19384  11.499  13.235   3.420
72496SOL    HW119385  11.497  13.233   3.516
72496SOL    HW219386  11.571  13.295   3.399
72497SOL     OW19387   0.981   5.241  11.498
72497SOL    HW119388   0.929   5.250  11.418
72497SOL    HW219389   1.050   5.179  11.475
72498SOL     OW19390  14.717   9.641   9.329
72498SOL    HW119391  14.676   9.698   9.264
72498SOL    HW219392  14.773   9.700   9.381
72499SOL     OW19393   9.978   2.157   8.229
72499SOL    HW119394  10.054   2.104   8.252
72499SOL    HW219395   9.936   2.176   8.313
72500SOL     OW19396   3.913   4.717  13.508
72500SOL    HW119397   3.957   4.738  13.426
72500SOL    HW219398   3.868   4.798  13.532
72501SOL     OW19399   4.056   3.770   2.986
72501SOL    HW119400   4.023   3.834   3.050
72501SOL    HW219401   3.978   3.741   2.939
72502SOL     OW19402   0.535   6.795   2.007
72502SOL    HW119403   0.501   6.706   2.003
72502SOL    HW219404   0.615   6.793   1.954
72503SOL     OW19405   3.699   3.795  13.801
72503SOL    HW119406   3.662   3.853  13.735
72503SOL    HW219407   3.686   3.841  13.884
72504SOL     OW19408   5.684  11.166  11.043
72504SOL    HW119409   5.593  11.142  11.059
72504SOL    HW219410   5.713  11.207  11.124
72505SOL     OW19411  10.250  14.282   8.182
72505SOL    HW119412  10.321  14.342   8.205
72505SOL    HW219413  10.265  14.205   8.237
72506SOL     OW19414   6.204   0.481   5.898
72506SOL    HW119415   6.204   0.510   5.807
72506SOL    HW219416   6.200   0.386   5.892
72507SOL     OW19417  14.832   3.804   3.585
72507SOL    HW119418  14.867   3.874   3.640
72507SOL    HW219419  14.765   3.762   3.639
72508SOL     OW19420   2.469   9.023   9.705
72508SOL    HW119421   2.386   9.031   9.657
72508SOL    HW219422   2.497   8.933   9.690
72509SOL     OW19423   1.169  13.762  12.051
72509SOL    HW119424   1.122  13.729  11.975
72509SOL    HW219425   1.152  13.697  12.119
72510SOL     OW19426   7.629   8.199   6.389
72510SOL    HW119427   7.649   8.263   6.458
72510SOL    HW219428   7.546   8.160   6.417
72511SOL     OW19429   1.717  12.038  14.002
72511SOL    HW119430   1.746  12.092  13.928
72511SOL    HW219431   1.783  12.053  14.069
72512SOL     OW19432   8.867  12.990  10.986
72512SOL    HW119433   8.801  13.022  10.925
72512SOL    HW219434   8.884  13.063  11.045
72513SOL     OW19435   2.241   3.773   9.333
72513SOL    HW119436   2.173   3.713   9.302
72513SOL    HW219437   2.319   3.748   9.284
72514SOL     OW19438  12.541   1.668   4.003
72514SOL    HW119439  12.615   1.707   3.956
72514SOL    HW219440  12.526   1.584   3.960
72515SOL     OW19441   1.454   0.831   9.065
72515SOL    HW119442   1.521   0.795   9.122
72515SOL    HW219443   1.483   0.921   9.048
72516SOL     OW19444  10.429  14.210  10.854
72516SOL    HW119445  10.437  14.299  10.820
72516SOL    HW219446  10.379  14.220  10.935
72517SOL     OW19447   5.643   7.891  10.538
72517SOL    HW119448   5.698   7.861  10.610
72517SOL    HW219449   5.609   7.810  10.499
72518SOL     OW19450  14.724   3.036  10.925
72518SOL    HW119451  14.634   3.024  10.894
72518SOL    HW219452  14.728   2.986  11.006
72519SOL     OW19453   8.543  14.732   8.928
72519SOL    HW119454   8.584  14.787   8.994
72519SOL    HW219455   8.466  14.694   8.971
72520SOL     OW19456   4.505   3.592   3.641
72520SOL    HW119457   4.429   3.570   3.696
72520SOL    HW219458   4.511   3.687   3.645
72521SOL     OW19459  14.539   9.029   3.400
72521SOL    HW119460  14.582   8.946   3.419
72521SOL    HW219461  14.455   9.024   3.445
72522SOL     OW19462  11.101   1.220   9.589
72522SOL    HW119463  11.099   1.133   9.630
72522SOL    HW219464  11.161   1.271   9.643
72523SOL     OW19465  13.948  12.363   4.974
72523SOL    HW119466  13.950  12.276   4.935
72523SOL    HW219467  14.016  12.361   5.041
72524SOL     OW19468   9.481   0.310   7.261
72524SOL    HW119469   9.447   0.358   7.186
72524SOL    HW219470   9.458   0.365   7.336
72525SOL     OW19471  11.397   8.177  12.920
72525SOL    HW119472  11.459   8.107  12.938
72525SOL    HW219473  11.317   8.131  12.893
72526SOL     OW19474  12.010   6.535  10.377
72526SOL    HW119475  11.918   6.522  10.400
72526SOL    HW219476  12.058   6.509  10.455
72527SOL     OW19477  11.340  11.444  14.635
72527SOL    HW119478  11.361  11.440  14.541
72527SOL    HW219479  11.405  11.387  14.675
72528SOL     OW19480  10.273   5.020  13.515
72528SOL    HW119481  10.233   5.002  13.429
72528SOL    HW219482  10.346   5.078  13.496
72529SOL     OW19483  13.364   8.414   4.181
72529SOL    HW119484  13.332   8.328   4.156
72529SOL    HW219485  13.415   8.398   4.260
72530SOL     OW19486   6.036   1.218  10.733
72530SOL    HW119487   6.116   1.249  10.776
72530SOL    HW219488   5.991   1.166  10.800
72531SOL     OW19489  12.847   7.436  10.166
72531SOL    HW119490  12.854   7.421  10.071
72531SOL    HW219491  12.801   7.359  10.198
72532SOL     OW19492   9.996  11.019   2.827
72532SOL    HW119493   9.984  10.925   2.815
72532SOL    HW219494  10.087  11.029   2.852
72533SOL     OW19495  12.819   2.932   8.005
72533SOL    HW119496  12.767   2.852   8.016
72533SOL    HW219497  12.908   2.901   7.990
72534SOL     OW19498   4.167   6.262  10.713
72534SOL    HW119499   4.137   6.353  10.710
72534SOL    HW219500   4.260   6.268  10.736
72535SOL     OW19501   5.360   4.484  11.372
72535SOL    HW119502   5.428   4.531  11.421
72535SOL    HW219503   5.300   4.553  11.343
72536SOL     OW19504   4.501  12.598   2.597
72536SOL    HW119505   4.440  12.662   2.559
72536SOL    HW219506   4.586  12.622   2.562
72537SOL     OW19507  12.225   2.236   8.104
72537SOL    HW119508  12.225   2.181   8.025
72537SOL    HW219509  12.302   2.207   8.153
72538SOL     OW19510   6.866   6.456  12.100
72538SOL    HW119511   6.839   6.459  12.008
72538SOL    HW219512   6.855   6.365  12.126
72539SOL     OW19513  11.980   9.451   0.175
72539SOL    HW119514  11.888   9.466   0.198
72539SOL    HW219515  12.029   9.498   0.243
72540SOL     OW19516   7.932   5.989   0.211
72540SOL    HW119517   8.013   5.970   0.260
72540SOL    HW219518   7.963   6.013   0.124
72541SOL     OW19519   8.793   8.574   9.830
72541SOL    HW119520   8.876   8.539   9.798
72541SOL    HW219521   8.764   8.510   9.895
72542SOL     OW19522   1.773  13.385   0.828
72542SOL    HW119523   1.806  13.302   0.794
72542SOL    HW219524   1.710  13.415   0.763
72543SOL     OW19525   3.080   7.452   6.704
72543SOL    HW119526   3.105   7.370   6.746
72543SOL    HW219527   3.063   7.428   6.613
72544SOL     OW19528  14.704   5.404   6.816
72544SOL    HW119529  14.621   5.361   6.796
72544SOL    HW219530  14.683   5.467   6.885
72545SOL     OW19531   3.137   9.556   8.526
72545SOL    HW119532   3.129   9.589   8.437
72545SOL    HW219533   3.230   9.534   8.536
72546SOL     OW19534   8.545   3.991   5.983
72546SOL    HW119535   8.492   4.062   6.019
72546SOL    HW219536   8.588   4.030   5.907
72547SOL     OW19537   3.333   2.882  14.667
72547SOL    HW119538   3.391   2.819  14.710
72547SOL    HW219539   3.364   2.967  14.697
72548SOL     OW19540   0.395   7.832   3.835
72548SOL    HW119541   0.347   7.756   3.868
72548SOL    HW219542   0.388   7.897   3.905
72549SOL     OW19543   3.700   6.687  11.616
72549SOL    HW119544   3.762   6.637  11.564
72549SOL    HW219545   3.626   6.703  11.557
72550SOL     OW19546   2.277   6.156  12.623
72550SOL    HW119547   2.267   6.240  12.579
72550SOL    HW219548   2.343   6.109  12.572
72551SOL     OW19549   8.489   9.823   6.881
72551SOL    HW119550   8.517   9.888   6.816
72551SOL    HW219551   8.558   9.824   6.947
72552SOL     OW19552  10.229   0.785   0.980
72552SOL    HW119553  10.224   0.877   1.003
72552SOL    HW219554  10.201   0.782   0.888
72553SOL     OW19555  10.425   3.872   7.245
72553SOL    HW119556  10.510   3.858   7.288
72553SOL    HW219557  10.395   3.785   7.222
72554SOL     OW19558  12.971   8.587   8.520
72554SOL    HW119559  13.027   8.643   8.574
72554SOL    HW219560  13.018   8.578   8.437
72555SOL     OW19561   4.965   3.515   6.968
72555SOL    HW119562   5.011   3.546   6.890
72555SOL    HW219563   5.035   3.495   7.031
72556SOL     OW19564   0.981  13.914   6.377
72556SOL    HW119565   0.918  13.846   6.402
72556SOL    HW219566   1.040  13.921   6.452
72557SOL     OW19567   9.247   5.129  11.961
72557SOL    HW119568   9.155   5.152  11.954
72557SOL    HW219569   9.281   5.139  11.872
72558SOL     OW19570   9.428   3.352   2.683
72558SOL    HW119571   9.393   3.286   2.742
72558SOL    HW219572   9.410   3.436   2.726
72559SOL     OW19573   8.931   7.446   1.292
72559SOL    HW119574   8.987   7.496   1.351
72559SOL    HW219575   8.898   7.510   1.229
72560SOL     OW19576   9.713   7.463  11.558
72560SOL    HW119577   9.637   7.405  11.555
72560SOL    HW219578   9.787   7.405  11.572
72561SOL     OW19579   3.661   4.467  13.799
72561SOL    HW119580   3.722   4.528  13.758
72561SOL    HW219581   3.712   4.388  13.813
72562SOL     OW19582   8.528   7.046   7.002
72562SOL    HW119583   8.617   7.014   6.992
72562SOL    HW219584   8.537   7.129   7.048
72563SOL     OW19585   9.142   4.864   6.598
72563SOL    HW119586   9.071   4.902   6.649
72563SOL    HW219587   9.098   4.822   6.523
72564SOL     OW19588  13.168   4.317   1.459
72564SOL    HW119589  13.175   4.338   1.366
72564SOL    HW219590  13.082   4.276   1.469
72565SOL     OW19591  13.193  11.188  12.973
72565SOL    HW119592  13.237  11.176  12.888
72565SOL    HW219593  13.136  11.263  12.960
72566SOL     OW19594   7.170   3.705   8.211
72566SOL    HW119595   7.246   3.735   8.161
72566SOL    HW219596   7.125   3.645   8.153
72567SOL     OW19597   9.104   2.958   7.093
72567SOL    HW119598   9.147   2.945   7.177
72567SOL    HW219599   9.034   3.020   7.111
72568SOL     OW19600   0.410   2.716  14.178
72568SOL    HW119601   0.448   2.784  14.122
72568SOL    HW219602   0.478   2.648  14.181
72569SOL     OW19603   8.516   5.334  13.815
72569SOL    HW119604   8.556   5.256  13.853
72569SOL    HW219605   8.429   5.339  13.856
72570SOL     OW19606   9.402   7.637   0.533
72570SOL    HW119607   9.330   7.575   0.546
72570SOL    HW219608   9.382   7.709   0.593
72571SOL     OW19609  13.557   3.364   4.104
72571SOL    HW119610  13.596   3.278   4.085
72571SOL    HW219611  13.515   3.353   4.189
72572SOL     OW19612   8.640  13.550   6.928
72572SOL    HW119613   8.567  13.565   6.988
72572SOL    HW219614   8.678  13.467   6.957
72573SOL     OW19615  11.643   1.550   2.321
72573SOL    HW119616  11.631   1.642   2.299
72573SOL    HW219617  11.658   1.549   2.415
72574SOL     OW19618   6.258   2.564   1.526
72574SOL    HW119619   6.168   2.532   1.513
72574SOL    HW219620   6.271   2.558   1.621
72575SOL     OW19621   5.256  11.848   6.369
72575SOL    HW119622   5.170  11.839   6.328
72575SOL    HW219623   5.318  11.832   6.298
72576SOL     OW19624  12.771   8.348   8.963
72576SOL    HW119625  12.726   8.418   9.009
72576SOL    HW219626  12.784   8.280   9.030
72577SOL     OW19627  14.320   4.120   2.526
72577SOL    HW119628  14.321   4.215   2.516
72577SOL    HW219629  14.412   4.096   2.538
72578SOL     OW19630  12.806   3.094  12.897
72578SOL    HW119631  12.859   3.034  12.843
72578SOL    HW219632  12.855   3.104  12.978
72579SOL     OW19633   4.840  14.735   3.832
72579SOL    HW119634   4.909  14.705   3.773
72579SOL    HW219635   4.837  14.669   3.901
72580SOL     OW19636   7.204   2.908   4.165
72580SOL    HW119637   7.264   2.980   4.148
72580SOL    HW219638   7.236   2.868   4.246
72581SOL     OW19639   5.136   1.265   5.572
72581SOL    HW119640   5.141   1.317   5.652
72581SOL    HW219641   5.042   1.259   5.553
72582SOL     OW19642   5.038   5.044   3.226
72582SOL    HW119643   5.077   5.074   3.144
72582SOL    HW219644   5.045   4.948   3.221
72583SOL     OW19645   7.169  13.534   2.209
72583SOL    HW119646   7.152  13.494   2.294
72583SOL    HW219647   7.159  13.628   2.225
72584SOL     OW19648   3.819  10.578   4.556
72584SOL    HW119649   3.869  10.496   4.550
72584SOL    HW219650   3.734  10.551   4.590
72585SOL     OW19651   7.769   5.756  12.480
72585SOL    HW119652   7.710   5.800  12.418
72585SOL    HW219653   7.717   5.746  12.559
72586SOL     OW19654   7.011   5.715   9.687
72586SOL    HW119655   7.039   5.749   9.603
72586SOL    HW219656   7.091   5.705   9.738
72587SOL     OW19657  13.338   6.543   7.175
72587SOL    HW119658  13.401   6.470   7.174
72587SOL    HW219659  13.271   6.515   7.237
72588SOL     OW19660  14.844  13.816  10.728
72588SOL    HW119661   0.044  13.862  10.696
72588SOL    HW219662  14.866  13.789  10.817
72589SOL     OW19663   1.475   0.201   8.521
72589SOL    HW119664   1.525   0.150   8.457
72589SOL    HW219665   1.539   0.220   8.590
72590SOL     OW19666   1.190   5.184   9.618
72590SOL    HW119667   1.227   5.272   9.625
72590SOL    HW219668   1.222   5.151   9.534
72591SOL     OW19669   2.772  13.900  13.498
72591SOL    HW119670   2.734  13.961  13.434
72591SOL    HW219671   2.697  13.848  13.528
72592SOL     OW19672   3.879  14.253   4.465
72592SOL    HW119673   3.811  14.196   4.428
72592SOL    HW219674   3.832  14.316   4.518
72593SOL     OW19675   5.333   4.471   3.550
72593SOL    HW119676   5.306   4.417   3.475
72593SOL    HW219677   5.342   4.559   3.514
72594SOL     OW19678   1.336  14.643   6.138
72594SOL    HW119679   1.355  14.596   6.057
72594SOL    HW219680   1.414  14.629   6.192
72595SOL     OW19681   5.350   0.926  12.262
72595SOL    HW119682   5.296   0.877  12.200
72595SOL    HW219683   5.440   0.909  12.234
72596SOL     OW19684  13.081   3.207   2.468
72596SOL    HW119685  13.129   3.137   2.424
72596SOL    HW219686  13.123   3.214   2.554
72597SOL     OW19687   8.399   0.151   8.633
72597SOL    HW119688   8.462   0.191   8.573
72597SOL    HW219689   8.429   0.061   8.644
72598SOL     OW19690   0.117   7.618  13.595
72598SOL    HW119691   0.029   7.613  13.633
72598SOL    HW219692   0.176   7.600  13.668
72599SOL     OW19693  11.432   4.790   4.238
72599SOL    HW119694  11.417   4.867   4.183
72599SOL    HW219695  11.454   4.721   4.176
72600SOL     OW19696  11.830   0.174   5.007
72600SOL    HW119697  11.924   0.160   5.011
72600SOL    HW219698  11.816   0.255   5.057
72601SOL     OW19699   1.701   5.637  12.123
72601SOL    HW119700   1.717   5.678  12.038
72601SOL    HW219701   1.668   5.550  12.103
72602SOL     OW19702  14.733   1.479   0.775
72602SOL    HW119703  14.706   1.425   0.701
72602SOL    HW219704  14.828   1.470   0.778
72603SOL     OW19705   8.522  14.113  10.014
72603SOL    HW119706   8.483  14.196  10.045
72603SOL    HW219707   8.477  14.046  10.065
72604SOL     OW19708  14.223   4.591   3.126
72604SOL    HW119709  14.276   4.601   3.047
72604SOL    HW219710  14.236   4.672   3.175
72605SOL     OW19711  12.476   1.173   8.688
72605SOL    HW119712  12.507   1.130   8.768
72605SOL    HW219713  12.386   1.199   8.708
72606SOL     OW19714  13.041  13.845  11.645
72606SOL    HW119715  13.069  13.920  11.698
72606SOL    HW219716  13.106  13.777  11.662
72607SOL     OW19717  13.873  12.987   7.464
72607SOL    HW119718  13.958  13.011   7.502
72607SOL    HW219719  13.879  12.892   7.451
72608SOL     OW19720   1.347   4.718  13.376
72608SOL    HW119721   1.430   4.743  13.334
72608SOL    HW219722   1.281   4.770  13.332
72609SOL     OW19723  11.748   6.727  11.318
72609SOL    HW119724  11.693   6.648  11.313
72609SOL    HW219725  11.836   6.694  11.330
72610SOL     OW19726  10.074  10.616   9.461
72610SOL    HW119727  10.136  10.659   9.520
72610SOL    HW219728   9.995  10.671   9.465
72611SOL     OW19729   8.140   8.899   5.513
72611SOL    HW119730   8.136   8.879   5.606
72611SOL    HW219731   8.064   8.954   5.497
72612SOL     OW19732   4.195   1.412   2.673
72612SOL    HW119733   4.186   1.433   2.766
72612SOL    HW219734   4.227   1.322   2.671
72613SOL     OW19735   3.420   4.056   2.220
72613SOL    HW119736   3.466   4.136   2.196
72613SOL    HW219737   3.489   3.989   2.223
72614SOL     OW19738   8.135   4.543  13.989
72614SOL    HW119739   8.074   4.488  14.039
72614SOL    HW219740   8.222   4.509  14.012
72615SOL     OW19741  13.568   3.317  13.882
72615SOL    HW119742  13.476   3.331  13.860
72615SOL    HW219743  13.587   3.228  13.852
72616SOL     OW19744   0.439   7.099  11.776
72616SOL    HW119745   0.467   7.095  11.867
72616SOL    HW219746   0.514   7.066  11.726
72617SOL     OW19747   4.694   1.114  10.544
72617SOL    HW119748   4.731   1.180  10.603
72617SOL    HW219749   4.647   1.165  10.478
72618SOL     OW19750   0.481   0.667   3.872
72618SOL    HW119751   0.552   0.641   3.931
72618SOL    HW219752   0.517   0.742   3.824
72619SOL     OW19753   0.979   2.572   0.890
72619SOL    HW119754   0.911   2.619   0.842
72619SOL    HW219755   1.020   2.639   0.945
72620SOL     OW19756   0.842  14.678   3.555
72620SOL    HW119757   0.781  14.658   3.483
72620SOL    HW219758   0.907  14.736   3.515
72621SOL     OW19759   6.285   1.647  11.938
72621SOL    HW119760   6.374   1.674  11.959
72621SOL    HW219761   6.294   1.559  11.901
72622SOL     OW19762  11.458  14.579   9.721
72622SOL    HW119763  11.386  14.636   9.748
72622SOL    HW219764  11.536  14.619   9.760
72623SOL     OW19765  13.095   9.896   4.346
72623SOL    HW119766  13.130   9.954   4.414
72623SOL    HW219767  13.166   9.886   4.284
72624SOL     OW19768  11.102   5.944   3.638
72624SOL    HW119769  11.174   5.992   3.596
72624SOL    HW219770  11.135   5.855   3.648
72625SOL     OW19771  14.841   1.192   2.907
72625SOL    HW119772  14.831   1.221   2.816
72625SOL    HW219773  14.775   1.242   2.955
72626SOL     OW19774  13.450   8.601   8.750
72626SOL    HW119775  13.365   8.642   8.765
72626SOL    HW219776  13.499   8.620   8.830
72627SOL     OW19777   0.122  14.201  13.297
72627SOL    HW119778   0.205  14.167  13.331
72627SOL    HW219779   0.056  14.142  13.333
72628SOL     OW19780   5.406   5.350   3.107
72628SOL    HW119781   5.355   5.368   3.186
72628SOL    HW219782   5.344   5.360   3.035
72629SOL     OW19783   2.926   0.843   0.373
72629SOL    HW119784   2.927   0.929   0.332
72629SOL    HW219785   2.837   0.812   0.361
72630SOL     OW19786  14.349   7.287   9.623
72630SOL    HW119787  14.369   7.295   9.530
72630SOL    HW219788  14.256   7.308   9.630
72631SOL     OW19789   6.929   1.177   8.243
72631SOL    HW119790   6.995   1.240   8.214
72631SOL    HW219791   6.892   1.215   8.323
72632SOL     OW19792  14.449  10.457   7.434
72632SOL    HW119793  14.433  10.382   7.377
72632SOL    HW219794  14.536  10.442   7.471
72633SOL     OW19795   5.510   2.350  10.885
72633SOL    HW119796   5.583   2.326  10.827
72633SOL    HW219797   5.534   2.436  10.920
72634SOL     OW19798  13.740   6.065  12.149
72634SOL    HW119799  13.666   6.093  12.096
72634SOL    HW219800  13.704   6.052  12.237
72635SOL     OW19801   5.538   9.181   6.197
72635SOL    HW119802   5.623   9.188   6.241
72635SOL    HW219803   5.552   9.115   6.129
72636SOL     OW19804  14.704   2.513   4.246
72636SOL    HW119805  14.795   2.503   4.219
72636SOL    HW219806  14.683   2.432   4.292
72637SOL     OW19807  12.643   4.892   1.512
72637SOL    HW119808  12.642   4.986   1.528
72637SOL    HW219809  12.625   4.882   1.419
72638SOL     OW19810  11.935   2.924   7.181
72638SOL    HW119811  12.029   2.908   7.185
72638SOL    HW219812  11.922   2.972   7.099
72639SOL     OW19813   8.949   4.657   8.179
72639SOL    HW119814   8.947   4.665   8.083
72639SOL    HW219815   9.041   4.646   8.200
72640SOL     OW19816   5.015  11.563   0.681
72640SOL    HW119817   5.067  11.641   0.694
72640SOL    HW219818   5.067  11.508   0.623
72641SOL     OW19819  11.297   8.038  11.408
72641SOL    HW119820  11.271   7.975  11.341
72641SOL    HW219821  11.375   8.001  11.448
72642SOL     OW19822   9.343  14.824   3.860
72642SOL    HW119823   9.303  14.754   3.808
72642SOL    HW219824   9.291   0.024   3.840
72643SOL     OW19825   2.848   3.819  13.481
72643SOL    HW119826   2.874   3.886  13.544
72643SOL    HW219827   2.923   3.811  13.422
72644SOL     OW19828   6.091   8.166   1.177
72644SOL    HW119829   6.099   8.093   1.116
72644SOL    HW219830   6.173   8.214   1.167
72645SOL     OW19831   4.202   8.942   5.169
72645SOL    HW119832   4.289   8.960   5.203
72645SOL    HW219833   4.146   9.009   5.208
72646SOL     OW19834  14.097   6.026  11.801
72646SOL    HW119835  14.179   6.075  11.792
72646SOL    HW219836  14.094   6.001  11.893
72647SOL     OW19837   8.000   9.262   2.964
72647SOL    HW119838   8.076   9.204   2.970
72647SOL    HW219839   8.024   9.340   3.014
72648SOL     OW19840  13.754   8.872   3.070
72648SOL    HW119841  13.800   8.790   3.089
72648SOL    HW219842  13.688   8.879   3.139
72649SOL     OW19843   9.113   7.511  10.346
72649SOL    HW119844   9.079   7.422  10.359
72649SOL    HW219845   9.141   7.539  10.433
72650SOL     OW19846  11.381   5.918  14.192
72650SOL    HW119847  11.295   5.957  14.207
72650SOL    HW219848  11.377   5.834  14.238
72651SOL     OW19849   0.275   0.525  14.311
72651SOL    HW119850   0.333   0.526  14.387
72651SOL    HW219851   0.333   0.515  14.236
72652SOL     OW19852   8.057  12.880  11.932
72652SOL    HW119853   7.991  12.950  11.937
72652SOL    HW219854   8.131  12.913  11.982
72653SOL     OW19855   2.861  12.687  11.595
72653SOL    HW119856   2.833  12.761  11.540
72653SOL    HW219857   2.850  12.718  11.684
72654SOL     OW19858   1.099   4.176   4.877
72654SOL    HW119859   1.091   4.098   4.821
72654SOL    HW219860   1.192   4.198   4.872
72655SOL     OW19861   6.241   1.363   5.572
72655SOL    HW119862   6.293   1.398   5.645
72655SOL    HW219863   6.301   1.366   5.498
72656SOL     OW19864   2.260   5.309   3.223
72656SOL    HW119865   2.184   5.250   3.229
72656SOL    HW219866   2.281   5.311   3.129
72657SOL     OW19867  12.314  13.045   0.263
72657SOL    HW119868  12.336  12.963   0.220
72657SOL    HW219869  12.284  13.020   0.350
72658SOL     OW19870  12.984   6.244   3.067
72658SOL    HW119871  13.006   6.337   3.074
72658SOL    HW219872  12.927   6.228   3.142
72659SOL     OW19873   0.738  12.039   3.736
72659SOL    HW119874   0.719  11.982   3.661
72659SOL    HW219875   0.709  11.989   3.812
72660SOL     OW19876   2.907   7.307  13.873
72660SOL    HW119877   2.938   7.286  13.785
72660SOL    HW219878   2.983   7.292  13.930
72661SOL     OW19879  12.916   8.068   6.774
72661SOL    HW119880  12.827   8.038   6.753
72661SOL    HW219881  12.937   8.131   6.705
72662SOL     OW19882   1.256   5.969   8.576
72662SOL    HW119883   1.338   5.999   8.536
72662SOL    HW219884   1.249   5.877   8.550
72663SOL     OW19885  14.165   0.955  10.550
72663SOL    HW119886  14.229   0.983  10.615
72663SOL    HW219887  14.181   1.012  10.475
72664SOL     OW19888   0.769  13.499   8.475
72664SOL    HW119889   0.791  13.460   8.391
72664SOL    HW219890   0.850  13.495   8.526
72665SOL     OW19891   7.738  13.845  14.571
72665SOL    HW119892   7.803  13.826  14.638
72665SOL    HW219893   7.703  13.760  14.546
72666SOL     OW19894   5.031  11.803  10.808
72666SOL    HW119895   4.964  11.838  10.750
72666SOL    HW219896   5.029  11.709  10.794
72667SOL     OW19897   0.619   7.937  11.346
72667SOL    HW119898   0.592   7.937  11.255
72667SOL    HW219899   0.712   7.963  11.344
72668SOL     OW19900  14.540   6.698   7.116
72668SOL    HW119901  14.580   6.657   7.192
72668SOL    HW219902  14.599   6.770   7.093
72669SOL     OW19903  10.531  10.384   4.948
72669SOL    HW119904  10.518  10.447   5.019
72669SOL    HW219905  10.469  10.314   4.967
72670SOL     OW19906   6.642   3.833   1.229
72670SOL    HW119907   6.702   3.803   1.160
72670SOL    HW219908   6.619   3.752   1.276
72671SOL     OW19909   3.293   6.391   6.964
72671SOL    HW119910   3.310   6.395   6.870
72671SOL    HW219911   3.245   6.472   6.983
72672SOL     OW19912  11.154  12.797  10.369
72672SOL    HW119913  11.176  12.760  10.454
72672SOL    HW219914  11.070  12.840  10.383
72673SOL     OW19915  10.051   8.359   2.017
72673SOL    HW119916   9.999   8.292   2.061
72673SOL    HW219917  10.038   8.438   2.069
72674SOL     OW19918   3.972   8.954   4.096
72674SOL    HW119919   3.926   8.888   4.149
72674SOL    HW219920   3.977   8.916   4.009
72675SOL     OW19921   3.582   8.210   3.187
72675SOL    HW119922   3.566   8.230   3.095
72675SOL    HW219923   3.674   8.233   3.201
72676SOL     OW19924   4.679   2.093  11.712
72676SOL    HW119925   4.616   2.161  11.691
72676SOL    HW219926   4.754   2.110  11.655
72677SOL     OW19927   1.760  12.366   4.301
72677SOL    HW119928   1.821  12.402   4.237
72677SOL    HW219929   1.815  12.333   4.372
72678SOL     OW19930   2.610  13.601   6.870
72678SOL    HW119931   2.613  13.692   6.900
72678SOL    HW219932   2.690  13.590   6.819
72679SOL     OW19933  12.662   0.411   7.007
72679SOL    HW119934  12.608   0.410   7.086
72679SOL    HW219935  12.729   0.477   7.024
72680SOL     OW19936  11.821   5.138   4.083
72680SOL    HW119937  11.885   5.205   4.060
72680SOL    HW219938  11.839   5.118   4.174
72681SOL     OW19939  10.156   8.902   4.814
72681SOL    HW119940  10.122   8.961   4.882
72681SOL    HW219941  10.230   8.949   4.776
72682SOL     OW19942   2.463   1.343   4.744
72682SOL    HW119943   2.549   1.301   4.733
72682SOL    HW219944   2.467   1.421   4.690
72683SOL     OW19945  12.883   1.557  13.391
72683SOL    HW119946  12.925   1.477  13.361
72683SOL    HW219947  12.953   1.621  13.396
72684SOL     OW19948   4.914  12.864   2.512
72684SOL    HW119949   4.986  12.864   2.450
72684SOL    HW219950   4.955  12.881   2.597
72685SOL     OW19951  14.447  10.429   3.875
72685SOL    HW119952  14.362  10.417   3.832
72685SOL    HW219953  14.497  10.351   3.852
72686SOL     OW19954  12.357   3.166   5.866
72686SOL    HW119955  12.290   3.233   5.848
72686SOL    HW219956  12.343   3.100   5.799
72687SOL     OW19957   6.175  14.664   3.003
72687SOL    HW119958   6.146  14.755   2.992
72687SOL    HW219959   6.100  14.612   2.976
72688SOL     OW19960   5.841   0.139  14.161
72688SOL    HW119961   5.804   0.175  14.242
72688SOL    HW219962   5.931   0.117  14.184
72689SOL     OW19963  10.234   3.518  10.496
72689SOL    HW119964  10.168   3.516  10.566
72689SOL    HW219965  10.228   3.607  10.462
72690SOL     OW19966   5.557   2.389   0.593
72690SOL    HW119967   5.526   2.475   0.565
72690SOL    HW219968   5.478   2.344   0.624
72691SOL     OW19969   3.822  13.331   8.086
72691SOL    HW119970   3.773  13.362   8.162
72691SOL    HW219971   3.817  13.403   8.023
72692SOL     OW19972   2.361  12.906   6.424
72692SOL    HW119973   2.311  12.836   6.383
72692SOL    HW219974   2.308  12.931   6.501
72693SOL     OW19975  11.894  11.582   3.782
72693SOL    HW119976  11.923  11.672   3.799
72693SOL    HW219977  11.893  11.576   3.686
72694SOL     OW19978   8.080  11.817   0.850
72694SOL    HW119979   8.009  11.783   0.905
72694SOL    HW219980   8.155  11.823   0.908
72695SOL     OW19981   0.477  13.848   7.249
72695SOL    HW119982   0.490  13.882   7.338
72695SOL    HW219983   0.471  13.926   7.194
72696SOL     OW19984  10.662  11.504   5.282
72696SOL    HW119985  10.740  11.493   5.228
72696SOL    HW219986  10.696  11.520   5.370
72697SOL     OW19987  10.722   2.516   3.059
72697SOL    HW119988  10.720   2.421   3.051
72697SOL    HW219989  10.814   2.540   3.046
72698SOL     OW19990   9.922  13.102   3.820
72698SOL    HW119991   9.877  13.118   3.737
72698SOL    HW219992  10.015  13.114   3.800
72699SOL     OW19993  10.449  13.810   4.329
72699SOL    HW119994  10.390  13.813   4.404
72699SOL    HW219995  10.537  13.809   4.368
72700SOL     OW19996   4.562   0.773   4.189
72700SOL    HW119997   4.511   0.696   4.215
72700SOL    HW219998   4.625   0.739   4.125
72701SOL     OW19999  12.475   2.275   2.725
72701SOL    HW120000  12.478   2.256   2.631
72701SOL    HW220001  12.402   2.223   2.758
72702SOL     OW20002  12.340   9.395   8.297
72702SOL    HW120003  12.390   9.448   8.360
72702SOL    HW220004  12.266   9.450   8.272
72703SOL     OW20005   7.999  14.106  10.802
72703SOL    HW120006   7.969  14.163  10.873
72703SOL    HW220007   7.923  14.050  10.782
72704SOL     OW20008  10.672  14.656   4.586
72704SOL    HW120009  10.612  14.690   4.653
72704SOL    HW220010  10.646  14.565   4.576
72705SOL     OW20011  10.845   7.828   0.539
72705SOL    HW120012  10.906   7.868   0.602
72705SOL    HW220013  10.767   7.884   0.543
72706SOL     OW20014   5.027   1.520   5.038
72706SOL    HW120015   5.096   1.544   5.100
72706SOL    HW220016   5.061   1.548   4.953
72707SOL     OW20017   8.573   2.958   9.662
72707SOL    HW120018   8.619   3.042   9.663
72707SOL    HW220019   8.484   2.979   9.691
72708SOL     OW20020   6.812  14.325   2.446
72708SOL    HW120021   6.876  14.389   2.478
72708SOL    HW220022   6.803  14.345   2.353
72709SOL     OW20023  14.631   7.792   1.179
72709SOL    HW120024  14.702   7.771   1.118
72709SOL    HW220025  14.552   7.787   1.125
72710SOL     OW20026   7.742  12.843   6.361
72710SOL    HW120027   7.678  12.905   6.396
72710SOL    HW220028   7.784  12.890   6.289
72711SOL     OW20029   9.083  12.322  11.279
72711SOL    HW120030   9.163  12.374  11.284
72711SOL    HW220031   9.023  12.375  11.226
72712SOL     OW20032  10.932  12.156  11.716
72712SOL    HW120033  10.899  12.235  11.759
72712SOL    HW220034  10.929  12.176  11.623
72713SOL     OW20035   2.341  14.274   7.982
72713SOL    HW120036   2.399  14.339   7.941
72713SOL    HW220037   2.342  14.297   8.075
72714SOL     OW20038   7.863  14.401   2.086
72714SOL    HW120039   7.853  14.329   2.149
72714SOL    HW220040   7.785  14.396   2.031
72715SOL     OW20041   7.237   0.506  11.991
72715SOL    HW120042   7.223   0.600  11.986
72715SOL    HW220043   7.327   0.497  12.023
72716SOL     OW20044   7.467   6.522   2.707
72716SOL    HW120045   7.498   6.560   2.789
72716SOL    HW220046   7.465   6.428   2.724
72717SOL     OW20047   1.222  12.936  13.657
72717SOL    HW120048   1.216  12.966  13.747
72717SOL    HW220049   1.313  12.908  13.646
72718SOL     OW20050   3.011   9.913  14.776
72718SOL    HW120051   2.966   9.902  14.692
72718SOL    HW220052   2.942   9.901  14.842
72719SOL     OW20053   1.044   5.898  14.609
72719SOL    HW120054   1.091   5.977  14.636
72719SOL    HW220055   1.105   5.851  14.554
72720SOL     OW20056   2.184   6.112  14.723
72720SOL    HW120057   2.221   6.115  14.811
72720SOL    HW220058   2.251   6.152  14.667
72721SOL     OW20059  11.226   7.721   9.985
72721SOL    HW120060  11.186   7.788  10.041
72721SOL    HW220061  11.201   7.638  10.024
72722SOL     OW20062   4.414  13.563   0.564
72722SOL    HW120063   4.489  13.547   0.622
72722SOL    HW220064   4.376  13.477   0.550
72723SOL     OW20065  13.914   0.092   8.486
72723SOL    HW120066  13.934   0.026   8.552
72723SOL    HW220067  13.821   0.080   8.467
72724SOL     OW20068   7.353   1.321   7.795
72724SOL    HW120069   7.280   1.378   7.775
72724SOL    HW220070   7.425   1.353   7.740
72725SOL     OW20071   4.477   9.035  14.597
72725SOL    HW120072   4.386   9.066  14.595
72725SOL    HW220073   4.475   8.962  14.659
72726SOL     OW20074  13.342   3.878   2.207
72726SOL    HW120075  13.391   3.814   2.258
72726SOL    HW220076  13.299   3.825   2.139
72727SOL     OW20077   2.414   0.678  10.776
72727SOL    HW120078   2.348   0.646  10.715
72727SOL    HW220079   2.491   0.697  10.722
72728SOL     OW20080   1.865   5.614   5.226
72728SOL    HW120081   1.837   5.705   5.217
72728SOL    HW220082   1.959   5.615   5.210
72729SOL     OW20083   2.417  14.703  14.123
72729SOL    HW120084   2.472  14.776  14.151
72729SOL    HW220085   2.469  14.625  14.145
72730SOL     OW20086  11.871  12.369   3.252
72730SOL    HW120087  11.842  12.440   3.195
72730SOL    HW220088  11.800  12.306   3.251
72731SOL     OW20089   0.827   7.526   1.999
72731SOL    HW120090   0.780   7.467   2.058
72731SOL    HW220091   0.828   7.610   2.045
72732SOL     OW20092   0.926   2.998  13.945
72732SOL    HW120093   0.916   3.034  14.033
72732SOL    HW220094   1.017   3.015  13.922
72733SOL     OW20095  10.307   7.301  13.939
72733SOL    HW120096  10.306   7.251  14.020
72733SOL    HW220097  10.350   7.383  13.961
72734SOL     OW20098   4.737   6.118   2.929
72734SOL    HW120099   4.745   6.072   3.013
72734SOL    HW220100   4.826   6.145   2.907
72735SOL     OW20101   7.752   2.079  11.559
72735SOL    HW120102   7.670   2.125  11.579
72735SOL    HW220103   7.729   2.017  11.490
72736SOL     OW20104  14.718  14.834   6.866
72736SOL    HW120105  14.627  14.832   6.837
72736SOL    HW220106  14.714  14.860   6.958
72737SOL     OW20107   9.570   1.264   6.114
72737SOL    HW120108   9.485   1.283   6.075
72737SOL    HW220109   9.623   1.230   6.041
72738SOL     OW20110  14.674  12.666  11.316
72738SOL    HW120111  14.596  12.657  11.261
72738SOL    HW220112  14.734  12.720  11.263
72739SOL     OW20113  14.810  14.471  13.821
72739SOL    HW120114   0.014  14.515  13.798
72739SOL    HW220115  14.833  14.379  13.829
72740SOL     OW20116  11.205   8.307   8.256
72740SOL    HW120117  11.179   8.217   8.238
72740SOL    HW220118  11.205   8.349   8.170
72741SOL     OW20119   2.606  14.105  12.277
72741SOL    HW120120   2.636  14.099  12.368
72741SOL    HW220121   2.511  14.112  12.284
72742SOL     OW20122  13.231  11.953   9.877
72742SOL    HW120123  13.208  12.007   9.801
72742SOL    HW220124  13.281  11.880   9.840
72743SOL     OW20125   2.133   9.756   9.892
72743SOL    HW120126   2.208   9.716   9.847
72743SOL    HW220127   2.114   9.697   9.965
72744SOL     OW20128   6.276   1.242   8.367
72744SOL    HW120129   6.267   1.325   8.319
72744SOL    HW220130   6.286   1.176   8.298
72745SOL     OW20131   9.075  12.992  10.532
72745SOL    HW120132   9.057  13.025  10.620
72745SOL    HW220133   9.099  13.070  10.482
72746SOL     OW20134  13.706  14.574   3.898
72746SOL    HW120135  13.799  14.597   3.904
72746SOL    HW220136  13.692  14.513   3.971
72747SOL     OW20137   6.816   2.068  10.596
72747SOL    HW120138   6.821   2.064  10.692
72747SOL    HW220139   6.832   1.977  10.569
72748SOL     OW20140   1.634   5.838   6.256
72748SOL    HW120141   1.544   5.809   6.268
72748SOL    HW220142   1.661   5.801   6.172
72749SOL     OW20143   8.821   8.208  10.823
72749SOL    HW120144   8.905   8.251  10.810
72749SOL    HW220145   8.765   8.275  10.860
72750SOL     OW20146   8.022  13.776   1.333
72750SOL    HW120147   7.930  13.793   1.317
72750SOL    HW220148   8.034  13.683   1.311
72751SOL     OW20149   3.395   9.758   2.455
72751SOL    HW120150   3.396   9.836   2.399
72751SOL    HW220151   3.380   9.792   2.543
72752SOL     OW20152   9.701   8.533   0.571
72752SOL    HW120153   9.645   8.591   0.519
72752SOL    HW220154   9.681   8.445   0.538
72753SOL     OW20155   1.967   9.338   9.098
72753SOL    HW120156   2.032   9.301   9.157
72753SOL    HW220157   1.914   9.395   9.154
72754SOL     OW20158   5.615   8.025   8.340
72754SOL    HW120159   5.523   8.019   8.315
72754SOL    HW220160   5.621   7.977   8.423
72755SOL     OW20161   2.886   5.599   6.668
72755SOL    HW120162   2.932   5.558   6.741
72755SOL    HW220163   2.794   5.579   6.683
72756SOL     OW20164  12.581   4.589   9.977
72756SOL    HW120165  12.490   4.618   9.977
72756SOL    HW220166  12.614   4.615  10.063
72757SOL     OW20167   5.350  10.390   5.941
72757SOL    HW120168   5.311  10.476   5.921
72757SOL    HW220169   5.428  10.411   5.992
72758SOL     OW20170  10.984  10.452   4.849
72758SOL    HW120171  11.048  10.390   4.884
72758SOL    HW220172  10.978  10.520   4.916
72759SOL     OW20173   3.877   9.430  12.007
72759SOL    HW120174   3.853   9.381  12.086
72759SOL    HW220175   3.862   9.521  12.031
72760SOL     OW20176   8.297  12.442   3.061
72760SOL    HW120177   8.214  12.394   3.060
72760SOL    HW220178   8.271  12.535   3.060
72761SOL     OW20179   5.922  12.745   2.553
72761SOL    HW120180   5.943  12.835   2.531
72761SOL    HW220181   5.827  12.745   2.568
72762SOL     OW20182   2.396   0.867   8.285
72762SOL    HW120183   2.336   0.919   8.338
72762SOL    HW220184   2.358   0.780   8.282
72763SOL     OW20185   7.196   2.969   1.377
72763SOL    HW120186   7.262   3.036   1.359
72763SOL    HW220187   7.112   3.011   1.355
72764SOL     OW20188   7.826   0.699   5.990
72764SOL    HW120189   7.792   0.787   6.010
72764SOL    HW220190   7.785   0.676   5.907
72765SOL     OW20191   1.665  13.409  12.530
72765SOL    HW120192   1.631  13.376  12.447
72765SOL    HW220193   1.599  13.383  12.595
72766SOL     OW20194   0.008   7.764   1.031
72766SOL    HW120195   0.039   7.850   1.059
72766SOL    HW220196   0.069   7.738   0.962
72767SOL     OW20197  10.707  12.726   2.756
72767SOL    HW120198  10.798  12.754   2.747
72767SOL    HW220199  10.712  12.631   2.763
72768SOL     OW20200   2.570   0.196   2.019
72768SOL    HW120201   2.555   0.290   2.009
72768SOL    HW220202   2.633   0.174   1.950
72769SOL     OW20203  10.872   3.033   1.583
72769SOL    HW120204  10.927   2.970   1.629
72769SOL    HW220205  10.792   3.038   1.635
72770SOL     OW20206  11.952   3.869  11.029
72770SOL    HW120207  11.862   3.871  11.060
72770SOL    HW220208  12.005   3.885  11.107
72771SOL     OW20209   6.226  10.993  10.389
72771SOL    HW120210   6.222  10.990  10.293
72771SOL    HW220211   6.314  10.964  10.411
72772SOL     OW20212   0.262   9.766   6.404
72772SOL    HW120213   0.336   9.720   6.445
72772SOL    HW220214   0.229   9.705   6.339
72773SOL     OW20215  13.461   5.905   9.583
72773SOL    HW120216  13.545   5.898   9.538
72773SOL    HW220217  13.479   5.877   9.672
72774SOL     OW20218   2.786   9.483  14.683
72774SOL    HW120219   2.782   9.423  14.609
72774SOL    HW220220   2.874   9.520  14.679
72775SOL     OW20221  12.382  10.123  11.859
72775SOL    HW120222  12.328  10.063  11.910
72775SOL    HW220223  12.429  10.174  11.925
72776SOL     OW20224   6.444  10.936  13.322
72776SOL    HW120225   6.470  10.944  13.414
72776SOL    HW220226   6.391  11.014  13.306
72777SOL     OW20227   8.432  10.614  10.046
72777SOL    HW120228   8.422  10.521  10.065
72777SOL    HW220229   8.525  10.625  10.028
72778SOL     OW20230   4.803  10.967   8.315
72778SOL    HW120231   4.802  10.986   8.221
72778SOL    HW220232   4.896  10.968   8.338
72779SOL     OW20233   0.428   7.554  14.863
72779SOL    HW120234   0.446   7.530   0.077
72779SOL    HW220235   0.354   7.614  14.868
72780SOL     OW20236  14.564   5.232  12.546
72780SOL    HW120237  14.610   5.316  12.555
72780SOL    HW220238  14.472   5.255  12.539
72781SOL     OW20239   2.902   1.271   6.056
72781SOL    HW120240   2.846   1.339   6.093
72781SOL    HW220241   2.981   1.274   6.109
72782SOL     OW20242   0.021   3.700   9.432
72782SOL    HW120243   0.015   3.644   9.355
72782SOL    HW220244   0.103   3.749   9.420
72783SOL     OW20245  10.572   9.527  10.258
72783SOL    HW120246  10.535   9.615  10.249
72783SOL    HW220247  10.496   9.469  10.264
72784SOL     OW20248  12.976   5.297   0.558
72784SOL    HW120249  13.032   5.368   0.588
72784SOL    HW220250  12.925   5.335   0.486
72785SOL     OW20251   8.968  13.040   7.743
72785SOL    HW120252   8.945  13.102   7.674
72785SOL    HW220253   9.050  13.000   7.713
72786SOL     OW20254   3.696  12.219   4.530
72786SOL    HW120255   3.690  12.139   4.477
72786SOL    HW220256   3.647  12.284   4.481
72787SOL     OW20257   4.316  10.573   7.997
72787SOL    HW120258   4.347  10.663   8.007
72787SOL    HW220259   4.383  10.531   7.944
72788SOL     OW20260   9.898   9.424   5.153
72788SOL    HW120261   9.985   9.451   5.182
72788SOL    HW220262   9.860   9.381   5.230
72789SOL     OW20263   3.490   8.937  13.767
72789SOL    HW120264   3.527   8.895  13.689
72789SOL    HW220265   3.485   9.030  13.743
72790SOL     OW20266   0.120  14.644   8.591
72790SOL    HW120267   0.115  14.553   8.622
72790SOL    HW220268   0.205  14.650   8.549
72791SOL     OW20269   8.535   2.092  14.797
72791SOL    HW120270   8.548   2.184  14.821
72791SOL    HW220271   8.505   2.096  14.706
72792SOL     OW20272   2.994   6.677   0.465
72792SOL    HW120273   2.925   6.743   0.461
72792SOL    HW220274   3.007   6.663   0.559
72793SOL     OW20275   1.426   0.805   5.632
72793SOL    HW120276   1.425   0.829   5.539
72793SOL    HW220277   1.347   0.752   5.644
72794SOL     OW20278  14.225   2.013   3.159
72794SOL    HW120279  14.223   2.106   3.137
72794SOL    HW220280  14.316   1.996   3.184
72795SOL     OW20281  13.955   2.081  11.695
72795SOL    HW120282  13.921   1.993  11.706
72795SOL    HW220283  13.998   2.101  11.778
72796SOL     OW20284   5.285  11.127   2.479
72796SOL    HW120285   5.200  11.090   2.452
72796SOL    HW220286   5.342  11.051   2.486
72797SOL     OW20287   6.642   8.421  10.107
72797SOL    HW120288   6.600   8.484  10.049
72797SOL    HW220289   6.682   8.474  10.176
72798SOL     OW20290   6.529  13.622  13.771
72798SOL    HW120291   6.608  13.663  13.738
72798SOL    HW220292   6.485  13.588  13.692
72799SOL     OW20293   8.546   7.917   6.328
72799SOL    HW120294   8.640   7.904   6.319
72799SOL    HW220295   8.517   7.941   6.241
72800SOL     OW20296  13.751   1.260   5.236
72800SOL    HW120297  13.735   1.264   5.330
72800SOL    HW220298  13.714   1.177   5.208
72801SOL     OW20299  12.691   8.219   7.298
72801SOL    HW120300  12.729   8.157   7.360
72801SOL    HW220301  12.766   8.257   7.252
72802SOL     OW20302   5.157  13.368   3.561
72802SOL    HW120303   5.186  13.380   3.651
72802SOL    HW220304   5.205  13.435   3.511
72803SOL     OW20305   4.793   2.196   9.914
72803SOL    HW120306   4.713   2.188   9.861
72803SOL    HW220307   4.840   2.269   9.874
72804SOL     OW20308   0.772  12.855  12.110
72804SOL    HW120309   0.748  12.763  12.095
72804SOL    HW220310   0.868  12.856  12.107
72805SOL     OW20311   1.979   1.445   3.450
72805SOL    HW120312   1.952   1.388   3.378
72805SOL    HW220313   1.923   1.523   3.441
72806SOL     OW20314   5.703   2.444   2.982
72806SOL    HW120315   5.779   2.426   2.927
72806SOL    HW220316   5.627   2.428   2.926
72807SOL     OW20317   9.004  10.580   7.442
72807SOL    HW120318   9.089  10.560   7.404
72807SOL    HW220319   8.971  10.496   7.474
72808SOL     OW20320  12.285   0.724   6.710
72808SOL    HW120321  12.336   0.804   6.692
72808SOL    HW220322  12.282   0.679   6.626
72809SOL     OW20323  14.787  12.625  13.343
72809SOL    HW120324  14.775  12.569  13.420
72809SOL    HW220325  14.699  12.633  13.306
72810SOL     OW20326   3.292   4.516  14.651
72810SOL    HW120327   3.292   4.600  14.696
72810SOL    HW220328   3.324   4.453  14.715
72811SOL     OW20329   7.879   7.767   9.945
72811SOL    HW120330   7.865   7.691  10.001
72811SOL    HW220331   7.809   7.828   9.968
72812SOL     OW20332   8.353  13.129   4.443
72812SOL    HW120333   8.353  13.145   4.537
72812SOL    HW220334   8.420  13.062   4.430
72813SOL     OW20335   8.729   5.230   8.352
72813SOL    HW120336   8.760   5.142   8.371
72813SOL    HW220337   8.804   5.274   8.313
72814SOL     OW20338   7.463   1.051   7.459
72814SOL    HW120339   7.533   1.084   7.514
72814SOL    HW220340   7.491   1.071   7.370
72815SOL     OW20341   0.523   9.451  13.491
72815SOL    HW120342   0.445   9.501  13.515
72815SOL    HW220343   0.490   9.364  13.468
72816SOL     OW20344  13.735   4.923   2.264
72816SOL    HW120345  13.656   4.955   2.220
72816SOL    HW220346  13.726   4.828   2.261
72817SOL     OW20347  10.354  14.337   6.455
72817SOL    HW120348  10.418  14.306   6.391
72817SOL    HW220349  10.372  14.285   6.534
72818SOL     OW20350   8.199   7.698  13.404
72818SOL    HW120351   8.135   7.627  13.404
72818SOL    HW220352   8.270   7.668  13.460
72819SOL     OW20353   5.653   2.329   9.453
72819SOL    HW120354   5.618   2.409   9.414
72819SOL    HW220355   5.719   2.359   9.515
72820SOL     OW20356  13.785  10.988   0.099
72820SOL    HW120357  13.717  11.051   0.122
72820SOL    HW220358  13.853  11.001   0.164
72821SOL     OW20359   3.007   5.760   5.108
72821SOL    HW120360   2.914   5.774   5.124
72821SOL    HW220361   3.027   5.814   5.032
72822SOL     OW20362   5.908   5.256  12.627
72822SOL    HW120363   5.831   5.207  12.657
72822SOL    HW220364   5.899   5.258  12.531
72823SOL     OW20365   3.058   0.238   1.202
72823SOL    HW120366   3.093   0.174   1.140
72823SOL    HW220367   3.115   0.231   1.278
72824SOL     OW20368   7.559   9.270   8.329
72824SOL    HW120369   7.529   9.233   8.413
72824SOL    HW220370   7.584   9.360   8.350
72825SOL     OW20371  10.679   3.715   6.902
72825SOL    HW120372  10.660   3.652   6.832
72825SOL    HW220373  10.673   3.664   6.982
72826SOL     OW20374   4.875   9.415   0.243
72826SOL    HW120375   4.786   9.442   0.221
72826SOL    HW220376   4.900   9.356   0.172
72827SOL     OW20377  14.617  10.157  10.362
72827SOL    HW120378  14.559  10.085  10.335
72827SOL    HW220379  14.589  10.231  10.307
72828SOL     OW20380  13.452  13.763  10.882
72828SOL    HW120381  13.462  13.773  10.976
72828SOL    HW220382  13.465  13.669  10.866
72829SOL     OW20383   1.300   9.710   5.588
72829SOL    HW120384   1.376   9.751   5.546
72829SOL    HW220385   1.239   9.693   5.516
72830SOL     OW20386   7.175  14.009  14.724
72830SOL    HW120387   7.171  13.963  14.640
72830SOL    HW220388   7.234  13.957  14.777
72831SOL     OW20389  10.812   7.704   0.049
72831SOL    HW120390  10.786   7.770  14.863
72831SOL    HW220391  10.887   7.742   0.094
72832SOL     OW20392   9.951  14.534  12.294
72832SOL    HW120393   9.875  14.565  12.245
72832SOL    HW220394   9.920  14.457  12.341
72833SOL     OW20395   0.743  14.748   1.074
72833SOL    HW120396   0.684  14.815   1.111
72833SOL    HW220397   0.828  14.768   1.112
72834SOL     OW20398   0.959  11.346   2.274
72834SOL    HW120399   0.966  11.251   2.283
72834SOL    HW220400   0.970  11.362   2.180
72835SOL     OW20401   0.292  11.224  10.062
72835SOL    HW120402   0.205  11.184  10.056
72835SOL    HW220403   0.351  11.152  10.082
72836SOL     OW20404   1.681   2.775   8.591
72836SOL    HW120405   1.765   2.814   8.567
72836SOL    HW220406   1.621   2.849   8.597
72837SOL     OW20407  14.444   8.378   0.012
72837SOL    HW120408  14.486   8.307  14.840
72837SOL    HW220409  14.423   8.338   0.096
72838SOL     OW20410  14.355   0.167   8.753
72838SOL    HW120411  14.260   0.163   8.749
72838SOL    HW220412  14.374   0.217   8.832
72839SOL     OW20413   7.080   1.107   8.716
72839SOL    HW120414   7.023   1.069   8.783
72839SOL    HW220415   7.063   1.055   8.637
72840SOL     OW20416   2.049   9.016  13.282
72840SOL    HW120417   2.008   9.103  13.278
72840SOL    HW220418   1.981   8.959  13.319
72841SOL     OW20419   9.196   8.073   1.091
72841SOL    HW120420   9.248   8.037   1.163
72841SOL    HW220421   9.149   8.147   1.131
72842SOL     OW20422  10.468   9.707   3.185
72842SOL    HW120423  10.521   9.768   3.236
72842SOL    HW220424  10.378   9.723   3.214
72843SOL     OW20425   3.828  14.168  12.019
72843SOL    HW120426   3.921  14.151  12.008
72843SOL    HW220427   3.821  14.263  12.025
72844SOL     OW20428   9.690   3.765   8.211
72844SOL    HW120429   9.613   3.708   8.205
72844SOL    HW220430   9.659   3.840   8.263
72845SOL     OW20431   2.305   5.648   3.437
72845SOL    HW120432   2.382   5.698   3.408
72845SOL    HW220433   2.264   5.618   3.356
72846SOL     OW20434   8.661   0.895  11.637
72846SOL    HW120435   8.690   0.958  11.571
72846SOL    HW220436   8.572   0.924  11.660
72847SOL     OW20437   3.453   2.325  12.172
72847SOL    HW120438   3.412   2.365  12.095
72847SOL    HW220439   3.380   2.299  12.228
72848SOL     OW20440  13.131  13.456   3.140
72848SOL    HW120441  13.103  13.398   3.070
72848SOL    HW220442  13.165  13.398   3.208
72849SOL     OW20443   6.289  12.860   4.393
72849SOL    HW120444   6.299  12.887   4.484
72849SOL    HW220445   6.264  12.768   4.397
72850SOL     OW20446   3.502   1.743  10.052
72850SOL    HW120447   3.430   1.721   9.992
72850SOL    HW220448   3.555   1.807  10.005
72851SOL     OW20449   0.311  14.113   4.229
72851SOL    HW120450   0.268  14.173   4.290
72851SOL    HW220451   0.350  14.045   4.285
72852SOL     OW20452   0.775   6.234  14.021
72852SOL    HW120453   0.720   6.214  14.098
72852SOL    HW220454   0.716   6.280  13.961
72853SOL     OW20455   1.512  10.974  13.083
72853SOL    HW120456   1.520  10.893  13.033
72853SOL    HW220457   1.588  10.974  13.141
72854SOL     OW20458  10.032   5.056   6.832
72854SOL    HW120459   9.962   5.037   6.894
72854SOL    HW220460   9.989   5.104   6.761
72855SOL     OW20461   3.408   6.876  13.604
72855SOL    HW120462   3.335   6.865  13.543
72855SOL    HW220463   3.385   6.822  13.680
72856SOL     OW20464   7.772  14.699   5.347
72856SOL    HW120465   7.739  14.617   5.310
72856SOL    HW220466   7.717  14.716   5.423
72857SOL     OW20467   3.786   3.534  11.444
72857SOL    HW120468   3.877   3.561  11.435
72857SOL    HW220469   3.736   3.613  11.421
72858SOL     OW20470   7.454  12.445  10.726
72858SOL    HW120471   7.373  12.497  10.726
72858SOL    HW220472   7.516  12.496  10.674
72859SOL     OW20473   1.023   6.273   3.073
72859SOL    HW120474   1.045   6.348   3.128
72859SOL    HW220475   0.927   6.269   3.075
72860SOL     OW20476  11.714   1.222   3.582
72860SOL    HW120477  11.652   1.180   3.522
72860SOL    HW220478  11.800   1.206   3.543
72861SOL     OW20479   8.412  10.438  12.162
72861SOL    HW120480   8.490  10.444  12.107
72861SOL    HW220481   8.418  10.516  12.219
72862SOL     OW20482   3.464   0.030   3.964
72862SOL    HW120483   3.528   0.034   4.035
72862SOL    HW220484   3.379   0.036   4.007
72863SOL     OW20485   1.737   4.739   2.385
72863SOL    HW120486   1.652   4.776   2.407
72863SOL    HW220487   1.718   4.649   2.358
72864SOL     OW20488  11.438  13.127  12.355
72864SOL    HW120489  11.360  13.091  12.313
72864SOL    HW220490  11.510  13.072  12.322
72865SOL     OW20491  12.902   3.068   4.819
72865SOL    HW120492  12.981   3.043   4.770
72865SOL    HW220493  12.880   2.990   4.869
72866SOL     OW20494   1.090   1.050   7.391
72866SOL    HW120495   1.136   1.086   7.315
72866SOL    HW220496   1.088   0.955   7.375
72867SOL     OW20497   2.236  13.780   2.575
72867SOL    HW120498   2.164  13.720   2.595
72867SOL    HW220499   2.196  13.848   2.520
72868SOL     OW20500   0.215   7.270   9.820
72868SOL    HW120501   0.152   7.203   9.845
72868SOL    HW220502   0.164   7.351   9.815
72869SOL     OW20503  10.709   5.638   5.008
72869SOL    HW120504  10.687   5.674   4.923
72869SOL    HW220505  10.764   5.704   5.049
72870SOL     OW20506   5.927   5.345   6.027
72870SOL    HW120507   6.007   5.398   6.038
72870SOL    HW220508   5.955   5.270   5.975
72871SOL     OW20509   4.176   3.083   2.993
72871SOL    HW120510   4.187   3.171   3.030
72871SOL    HW220511   4.122   3.097   2.914
72872SOL     OW20512   0.692  11.110  11.680
72872SOL    HW120513   0.735  11.164  11.746
72872SOL    HW220514   0.608  11.153  11.664
72873SOL     OW20515   8.270   1.823   0.621
72873SOL    HW120516   8.178   1.838   0.600
72873SOL    HW220517   8.284   1.730   0.603
72874SOL     OW20518   6.238   8.099   2.072
72874SOL    HW120519   6.262   8.019   2.027
72874SOL    HW220520   6.183   8.071   2.145
72875SOL     OW20521  12.280   6.698   2.712
72875SOL    HW120522  12.362   6.681   2.666
72875SOL    HW220523  12.305   6.752   2.787
72876SOL     OW20524   2.100   6.834   6.635
72876SOL    HW120525   2.070   6.879   6.556
72876SOL    HW220526   2.135   6.751   6.604
72877SOL     OW20527   1.027  12.311  13.756
72877SOL    HW120528   1.022  12.327  13.662
72877SOL    HW220529   1.113  12.271  13.769
72878SOL     OW20530  12.768  13.479  11.865
72878SOL    HW120531  12.755  13.551  11.927
72878SOL    HW220532  12.798  13.521  11.785
72879SOL     OW20533   5.826   4.955  11.754
72879SOL    HW120534   5.897   4.937  11.816
72879SOL    HW220535   5.818   4.875  11.702
72880SOL     OW20536   1.305   3.973   7.054
72880SOL    HW120537   1.340   3.904   6.998
72880SOL    HW220538   1.303   3.935   7.142
72881SOL     OW20539  11.141   7.534   3.729
72881SOL    HW120540  11.055   7.506   3.698
72881SOL    HW220541  11.197   7.458   3.715
72882SOL     OW20542   2.739   5.449  14.136
72882SOL    HW120543   2.764   5.446  14.044
72882SOL    HW220544   2.668   5.512  14.140
72883SOL     OW20545  11.685   8.317   1.013
72883SOL    HW120546  11.758   8.286   0.960
72883SOL    HW220547  11.607   8.277   0.974
72884SOL     OW20548   1.086   0.260   4.150
72884SOL    HW120549   1.118   0.211   4.225
72884SOL    HW220550   0.998   0.227   4.136
72885SOL     OW20551  11.577   9.039   9.552
72885SOL    HW120552  11.516   8.965   9.549
72885SOL    HW220553  11.663   9.000   9.540
72886SOL     OW20554   4.255   4.364   3.240
72886SOL    HW120555   4.206   4.361   3.158
72886SOL    HW220556   4.260   4.457   3.262
72887SOL     OW20557   0.422   2.484  10.705
72887SOL    HW120558   0.420   2.445  10.618
72887SOL    HW220559   0.346   2.446  10.750
72888SOL     OW20560  13.268  11.947   1.666
72888SOL    HW120561  13.303  12.028   1.627
72888SOL    HW220562  13.180  11.971   1.695
72889SOL     OW20563   9.623   3.996   0.580
72889SOL    HW120564   9.533   3.971   0.599
72889SOL    HW220565   9.658   4.025   0.664
72890SOL     OW20566  11.156   9.044   6.229
72890SOL    HW120567  11.192   9.129   6.205
72890SOL    HW220568  11.156   8.994   6.148
72891SOL     OW20569   0.270   1.837   4.309
72891SOL    HW120570   0.236   1.755   4.272
72891SOL    HW220571   0.362   1.839   4.282
72892SOL     OW20572  11.416   2.824   8.025
72892SOL    HW120573  11.413   2.770   8.104
72892SOL    HW220574  11.495   2.796   7.979
72893SOL     OW20575   5.645   1.819   7.809
72893SOL    HW120576   5.690   1.735   7.808
72893SOL    HW220577   5.571   1.808   7.750
72894SOL     OW20578   1.268   2.596   9.780
72894SOL    HW120579   1.336   2.529   9.778
72894SOL    HW220580   1.272   2.637   9.693
72895SOL     OW20581   4.977   8.004   2.620
72895SOL    HW120582   4.885   8.017   2.646
72895SOL    HW220583   5.027   8.032   2.696
72896SOL     OW20584   5.691  11.951  10.165
72896SOL    HW120585   5.619  12.009  10.191
72896SOL    HW220586   5.761  12.010  10.139
72897SOL     OW20587  14.517  10.183   8.108
72897SOL    HW120588  14.559  10.104   8.143
72897SOL    HW220589  14.558  10.255   8.155
72898SOL     OW20590   2.826  13.891  11.293
72898SOL    HW120591   2.748  13.905  11.240
72898SOL    HW220592   2.882  13.966  11.273
72899SOL     OW20593  11.356   2.018  13.734
72899SOL    HW120594  11.434   2.018  13.680
72899SOL    HW220595  11.283   2.028  13.672
72900SOL     OW20596   5.985  13.090   4.883
72900SOL    HW120597   6.019  13.178   4.868
72900SOL    HW220598   5.902  13.104   4.927
72901SOL     OW20599   0.830   2.916  10.375
72901SOL    HW120600   0.881   2.993  10.349
72901SOL    HW220601   0.836   2.857  10.299
72902SOL     OW20602   9.784   1.569   3.769
72902SOL    HW120603   9.810   1.653   3.732
72902SOL    HW220604   9.735   1.591   3.848
72903SOL     OW20605   4.837  11.503  11.413
72903SOL    HW120606   4.845  11.421  11.365
72903SOL    HW220607   4.851  11.571  11.347
72904SOL     OW20608   8.662   7.019   3.558
72904SOL    HW120609   8.675   7.039   3.650
72904SOL    HW220610   8.589   7.075   3.531
72905SOL     OW20611  11.760   9.343   0.859
72905SOL    HW120612  11.760   9.380   0.947
72905SOL    HW220613  11.679   9.374   0.820
72906SOL     OW20614   6.987   6.583   3.579
72906SOL    HW120615   6.937   6.546   3.507
72906SOL    HW220616   7.077   6.588   3.545
72907SOL     OW20617   4.617  13.195   6.428
72907SOL    HW120618   4.643  13.260   6.494
72907SOL    HW220619   4.644  13.234   6.345
72908SOL     OW20620   5.910  10.926   7.536
72908SOL    HW120621   5.859  10.882   7.604
72908SOL    HW220622   5.993  10.948   7.578
72909SOL     OW20623   3.208   6.239   2.583
72909SOL    HW120624   3.214   6.334   2.595
72909SOL    HW220625   3.136   6.212   2.639
72910SOL     OW20626  14.584   2.480   8.773
72910SOL    HW120627  14.521   2.422   8.816
72910SOL    HW220628  14.623   2.530   8.845
72911SOL     OW20629   4.551   9.394   3.403
72911SOL    HW120630   4.533   9.470   3.457
72911SOL    HW220631   4.635   9.413   3.360
72912SOL     OW20632   4.706   9.229   9.560
72912SOL    HW120633   4.730   9.300   9.620
72912SOL    HW220634   4.612   9.240   9.545
72913SOL     OW20635  14.037   1.257   0.940
72913SOL    HW120636  13.969   1.193   0.920
72913SOL    HW220637  14.118   1.216   0.908
72914SOL     OW20638   6.247   7.317  13.622
72914SOL    HW120639   6.190   7.240  13.621
72914SOL    HW220640   6.318   7.295  13.561
72915SOL     OW20641   1.261  11.246   1.316
72915SOL    HW120642   1.335  11.285   1.271
72915SOL    HW220643   1.248  11.301   1.393
72916SOL     OW20644  10.631   7.701   1.254
72916SOL    HW120645  10.694   7.654   1.200
72916SOL    HW220646  10.593   7.635   1.312
72917SOL     OW20647   5.701   9.366   3.185
72917SOL    HW120648   5.790   9.400   3.173
72917SOL    HW220649   5.690   9.301   3.115
72918SOL     OW20650  11.363   1.877   6.920
72918SOL    HW120651  11.315   1.920   6.850
72918SOL    HW220652  11.304   1.808   6.950
72919SOL     OW20653   7.758   2.546   3.417
72919SOL    HW120654   7.848   2.577   3.415
72919SOL    HW220655   7.723   2.570   3.331
72920SOL     OW20656   7.101  12.958   8.893
72920SOL    HW120657   7.014  12.924   8.869
72920SOL    HW220658   7.135  12.996   8.812
72921SOL     OW20659  13.708   5.914   4.586
72921SOL    HW120660  13.678   5.849   4.650
72921SOL    HW220661  13.797   5.888   4.564
72922SOL     OW20662  13.032  10.102  11.603
72922SOL    HW120663  13.049  10.193  11.626
72922SOL    HW220664  12.970  10.106  11.530
72923SOL     OW20665  11.406   2.261  10.301
72923SOL    HW120666  11.394   2.195  10.232
72923SOL    HW220667  11.348   2.232  10.371
72924SOL     OW20668  13.381   5.168  10.846
72924SOL    HW120669  13.304   5.164  10.788
72924SOL    HW220670  13.455   5.178  10.786
72925SOL     OW20671  13.618  11.031   5.128
72925SOL    HW120672  13.678  10.998   5.195
72925SOL    HW220673  13.673  11.045   5.051
72926SOL     OW20674   0.646  11.341  12.712
72926SOL    HW120675   0.706  11.387  12.653
72926SOL    HW220676   0.660  11.248  12.693
72927SOL     OW20677   1.942   4.893  12.070
72927SOL    HW120678   1.889   4.942  12.007
72927SOL    HW220679   1.972   4.816  12.022
72928SOL     OW20680  14.429   3.138   7.219
72928SOL    HW120681  14.373   3.090   7.158
72928SOL    HW220682  14.518   3.109   7.198
72929SOL     OW20683  12.277   4.147  12.498
72929SOL    HW120684  12.268   4.196  12.580
72929SOL    HW220685  12.244   4.060  12.520
72930SOL     OW20686  10.317   8.609   4.627
72930SOL    HW120687  10.277   8.692   4.655
72930SOL    HW220688  10.254   8.542   4.653
72931SOL     OW20689   8.317  11.398  13.647
72931SOL    HW120690   8.365  11.376  13.567
72931SOL    HW220691   8.382  11.392  13.717
72932SOL     OW20692   4.537   3.001   0.736
72932SOL    HW120693   4.462   2.942   0.734
72932SOL    HW220694   4.499   3.088   0.736
72933SOL     OW20695   7.992   8.001   3.894
72933SOL    HW120696   8.005   8.094   3.912
72933SOL    HW220697   8.079   7.963   3.902
72934SOL     OW20698  14.503   1.499   9.314
72934SOL    HW120699  14.533   1.408   9.317
72934SOL    HW220700  14.582   1.551   9.326
72935SOL     OW20701   0.061  14.163   3.196
72935SOL    HW120702   0.106  14.125   3.121
72935SOL    HW220703   0.061  14.093   3.262
72936SOL     OW20704   3.451   3.974   5.403
72936SOL    HW120705   3.424   4.066   5.399
72936SOL    HW220706   3.381   3.927   5.357
72937SOL     OW20707   8.911   2.897  12.856
72937SOL    HW120708   8.946   2.808  12.865
72937SOL    HW220709   8.890   2.905  12.763
72938SOL     OW20710   3.655   2.928   3.113
72938SOL    HW120711   3.666   2.990   3.041
72938SOL    HW220712   3.579   2.961   3.161
72939SOL     OW20713  14.106   3.042   9.435
72939SOL    HW120714  14.022   2.999   9.448
72939SOL    HW220715  14.084   3.135   9.428
72940SOL     OW20716   8.771   0.351  14.848
72940SOL    HW120717   8.825   0.358   0.049
72940SOL    HW220718   8.707   0.282  14.869
72941SOL     OW20719   2.713  14.428   6.738
72941SOL    HW120720   2.803  14.408   6.762
72941SOL    HW220721   2.719  14.507   6.683
72942SOL     OW20722  10.423  12.782  10.502
72942SOL    HW120723  10.366  12.788  10.425
72942SOL    HW220724  10.372  12.734  10.567
72943SOL     OW20725   9.945   0.071  12.791
72943SOL    HW120726   9.894   0.151  12.778
72943SOL    HW220727   9.941   0.026  12.707
72944SOL     OW20728   6.565  14.569   4.979
72944SOL    HW120729   6.506  14.634   5.017
72944SOL    HW220730   6.650  14.590   5.017
72945SOL     OW20731  10.688  11.013   5.415
72945SOL    HW120732  10.735  10.954   5.356
72945SOL    HW220733  10.600  10.974   5.423
72946SOL     OW20734   4.182   4.869   7.654
72946SOL    HW120735   4.189   4.789   7.706
72946SOL    HW220736   4.254   4.863   7.591
72947SOL     OW20737   6.693   0.857   0.098
72947SOL    HW120738   6.730   0.804   0.168
72947SOL    HW220739   6.604   0.825   0.087
72948SOL     OW20740  10.772  14.626   9.370
72948SOL    HW120741  10.706  14.575   9.323
72948SOL    HW220742  10.854  14.580   9.352
72949SOL     OW20743   2.247   1.172   6.910
72949SOL    HW120744   2.261   1.127   6.827
72949SOL    HW220745   2.170   1.131   6.947
72950SOL     OW20746   6.309   6.795   7.757
72950SOL    HW120747   6.351   6.787   7.672
72950SOL    HW220748   6.273   6.708   7.774
72951SOL     OW20749   9.273   6.978   7.624
72951SOL    HW120750   9.305   7.058   7.665
72951SOL    HW220751   9.187   6.963   7.665
72952SOL     OW20752   3.553   5.331  10.181
72952SOL    HW120753   3.649   5.330  10.182
72952SOL    HW220754   3.531   5.415  10.141
72953SOL     OW20755   7.918   6.239  12.937
72953SOL    HW120756   7.953   6.160  12.896
72953SOL    HW220757   7.956   6.240  13.024
72954SOL     OW20758  13.016   3.724   6.833
72954SOL    HW120759  12.939   3.734   6.889
72954SOL    HW220760  13.066   3.653   6.873
72955SOL     OW20761  14.545   8.031  13.288
72955SOL    HW120762  14.555   8.118  13.250
72955SOL    HW220763  14.609   7.977  13.241
72956SOL     OW20764  12.255   2.560   8.737
72956SOL    HW120765  12.161   2.547   8.729
72956SOL    HW220766  12.285   2.572   8.646
72957SOL     OW20767  14.107  11.223  11.473
72957SOL    HW120768  14.170  11.163  11.513
72957SOL    HW220769  14.030  11.168  11.455
72958SOL     OW20770   9.485   4.736   2.211
72958SOL    HW120771   9.535   4.813   2.187
72958SOL    HW220772   9.439   4.762   2.291
72959SOL     OW20773   5.680  14.525   2.883
72959SOL    HW120774   5.612  14.543   2.818
72959SOL    HW220775   5.732  14.455   2.844
72960SOL     OW20776   9.410   4.932   6.664
72960SOL    HW120777   9.453   4.929   6.750
72960SOL    HW220778   9.319   4.909   6.683
72961SOL     OW20779  13.514   8.787   6.361
72961SOL    HW120780  13.436   8.733   6.372
72961SOL    HW220781  13.504   8.828   6.275
72962SOL     OW20782   3.282   5.047   7.675
72962SOL    HW120783   3.354   5.109   7.672
72962SOL    HW220784   3.318   4.967   7.637
72963SOL     OW20785   5.202   7.952  10.042
72963SOL    HW120786   5.126   7.985   9.993
72963SOL    HW220787   5.266   8.023  10.036
72964SOL     OW20788   4.277   5.306   4.134
72964SOL    HW120789   4.330   5.340   4.207
72964SOL    HW220790   4.187   5.331   4.155
72965SOL     OW20791   5.779  14.791   5.301
72965SOL    HW120792   5.748  14.712   5.256
72965SOL    HW220793   5.781  14.767   5.393
72966SOL     OW20794  11.008   3.540   8.486
72966SOL    HW120795  11.077   3.513   8.426
72966SOL    HW220796  11.042   3.619   8.528
72967SOL     OW20797   3.164  10.814   0.386
72967SOL    HW120798   3.122  10.729   0.394
72967SOL    HW220799   3.093  10.874   0.362
72968SOL     OW20800  14.108   0.779   2.049
72968SOL    HW120801  14.014   0.790   2.061
72968SOL    HW220802  14.118   0.692   2.011
72969SOL     OW20803   6.286   4.195   2.998
72969SOL    HW120804   6.376   4.166   2.982
72969SOL    HW220805   6.272   4.179   3.091
72970SOL     OW20806   8.126   5.924   2.345
72970SOL    HW120807   8.067   5.933   2.269
72970SOL    HW220808   8.154   6.013   2.363
72971SOL     OW20809   4.490   4.224   7.074
72971SOL    HW120810   4.544   4.213   7.153
72971SOL    HW220811   4.516   4.309   7.039
72972SOL     OW20812   5.097   0.886   4.806
72972SOL    HW120813   5.015   0.837   4.799
72972SOL    HW220814   5.155   0.829   4.858
72973SOL     OW20815  14.825   8.559   8.477
72973SOL    HW120816  14.831   8.619   8.403
72973SOL    HW220817  14.749   8.503   8.457
72974SOL     OW20818  13.508  13.399   6.724
72974SOL    HW120819  13.571  13.453   6.677
72974SOL    HW220820  13.528  13.414   6.816
72975SOL     OW20821  14.826   1.054   7.638
72975SOL    HW120822  14.753   0.993   7.647
72975SOL    HW220823  14.787   1.140   7.653
72976SOL     OW20824   3.529  13.602  14.206
72976SOL    HW120825   3.510  13.508  14.205
72976SOL    HW220826   3.619  13.608  14.236
72977SOL     OW20827   5.491  10.293  10.767
72977SOL    HW120828   5.476  10.211  10.815
72977SOL    HW220829   5.415  10.347  10.789
72978SOL     OW20830   6.023  13.301  12.230
72978SOL    HW120831   5.980  13.289  12.146
72978SOL    HW220832   5.956  13.279  12.295
72979SOL     OW20833   8.869   3.805   8.042
72979SOL    HW120834   8.783   3.809   8.084
72979SOL    HW220835   8.885   3.712   8.029
72980SOL     OW20836   3.083   1.731   6.794
72980SOL    HW120837   3.150   1.796   6.816
72980SOL    HW220838   3.010   1.783   6.761
72981SOL     OW20839  14.623  12.558   2.978
72981SOL    HW120840  14.530  12.573   2.996
72981SOL    HW220841  14.633  12.582   2.885
72982SOL     OW20842   8.507   9.286  14.364
72982SOL    HW120843   8.577   9.307  14.427
72982SOL    HW220844   8.528   9.197  14.335
72983SOL     OW20845   8.160   6.650   7.822
72983SOL    HW120846   8.084   6.706   7.835
72983SOL    HW220847   8.213   6.662   7.901
72984SOL     OW20848   2.261   4.099   5.870
72984SOL    HW120849   2.310   4.018   5.886
72984SOL    HW220850   2.324   4.169   5.888
72985SOL     OW20851   0.614   4.745  14.339
72985SOL    HW120852   0.590   4.662  14.378
72985SOL    HW220853   0.670   4.722  14.264
72986SOL     OW20854  14.761   9.684  10.750
72986SOL    HW120855  14.829   9.740  10.787
72986SOL    HW220856  14.809   9.615  10.704
72987SOL     OW20857   1.542   9.982  10.172
72987SOL    HW120858   1.571  10.029  10.250
72987SOL    HW220859   1.451  10.010  10.159
72988SOL     OW20860  12.094   8.645  14.842
72988SOL    HW120861  12.169   8.666   0.020
72988SOL    HW220862  12.020   8.689   0.006
72989SOL     OW20863  11.078  13.033   2.783
72989SOL    HW120864  11.113  12.946   2.764
72989SOL    HW220865  11.145  13.094   2.751
72990SOL     OW20866   9.353   0.539   2.120
72990SOL    HW120867   9.316   0.453   2.099
72990SOL    HW220868   9.295   0.601   2.075
72991SOL     OW20869   3.730   6.371   5.055
72991SOL    HW120870   3.659   6.394   4.996
72991SOL    HW220871   3.745   6.450   5.106
72992SOL     OW20872  12.937   1.487   3.325
72992SOL    HW120873  12.895   1.507   3.409
72992SOL    HW220874  12.927   1.566   3.273
72993SOL     OW20875   4.273   2.657  11.768
72993SOL    HW120876   4.277   2.572  11.725
72993SOL    HW220877   4.364   2.688  11.769
72994SOL     OW20878  14.787   3.225   0.244
72994SOL    HW120879  14.780   3.319   0.225
72994SOL    HW220880  14.824   3.221   0.332
72995SOL     OW20881   0.851   7.745   8.196
72995SOL    HW120882   0.799   7.819   8.165
72995SOL    HW220883   0.838   7.677   8.129
72996SOL     OW20884   5.814   4.140   6.252
72996SOL    HW120885   5.894   4.192   6.242
72996SOL    HW220886   5.843   4.049   6.246
72997SOL     OW20887   5.099  13.694   7.092
72997SOL    HW120888   5.118  13.612   7.045
72997SOL    HW220889   5.009  13.684   7.124
72998SOL     OW20890   3.149   7.582   9.938
72998SOL    HW120891   3.127   7.668   9.972
72998SOL    HW220892   3.200   7.541  10.008
72999SOL     OW20893  14.119   5.828  12.222
72999SOL    HW120894  14.106   5.763  12.153
72999SOL    HW220895  14.091   5.784  12.303
73000SOL     OW20896  10.739   5.075   1.901
73000SOL    HW120897  10.833   5.074   1.917
73000SOL    HW220898  10.727   5.136   1.828
73001SOL     OW20899  14.560  10.034   3.082
73001SOL    HW120900  14.601   9.955   3.046
73001SOL    HW220901  14.631  10.077   3.130
73002SOL     OW20902   3.501   5.120  10.356
73002SOL    HW120903   3.486   5.196  10.300
73002SOL    HW220904   3.562   5.150  10.423
73003SOL     OW20905  11.351   6.241  10.646
73003SOL    HW120906  11.307   6.174  10.699
73003SOL    HW220907  11.281   6.280  10.593
73004SOL     OW20908   0.605  14.190  13.392
73004SOL    HW120909   0.643  14.112  13.351
73004SOL    HW220910   0.533  14.215  13.335
73005SOL     OW20911   9.902   2.333  13.956
73005SOL    HW120912   9.982   2.369  13.918
73005SOL    HW220913   9.835   2.399  13.938
73006SOL     OW20914   0.044  14.821   8.260
73006SOL    HW120915   0.074  14.875   8.187
73006SOL    HW220916   0.048  14.732   8.227
73007SOL     OW20917   5.983  14.139   5.462
73007SOL    HW120918   5.932  14.058   5.470
73007SOL    HW220919   5.945  14.184   5.386
73008SOL     OW20920  11.178   7.361   4.358
73008SOL    HW120921  11.132   7.339   4.438
73008SOL    HW220922  11.148   7.296   4.294
73009SOL     OW20923  14.465  10.377   0.157
73009SOL    HW120924  14.398  10.337   0.212
73009SOL    HW220925  14.548  10.342   0.191
73010SOL     OW20926  14.350   5.453   5.729
73010SOL    HW120927  14.274   5.511   5.734
73010SOL    HW220928  14.320   5.379   5.676
73011SOL     OW20929  12.942   9.832   9.203
73011SOL    HW120930  12.960   9.785   9.122
73011SOL    HW220931  13.007   9.902   9.206
73012SOL     OW20932   9.114  14.858   4.716
73012SOL    HW120933   9.100  14.764   4.731
73012SOL    HW220934   9.191  14.862   4.659
73013SOL     OW20935   1.146   5.742   9.746
73013SOL    HW120936   1.176   5.654   9.723
73013SOL    HW220937   1.054   5.729   9.772
73014SOL     OW20938  12.098  10.088  13.525
73014SOL    HW120939  12.184  10.078  13.483
73014SOL    HW220940  12.097  10.022  13.594
73015SOL     OW20941   4.192   4.234   5.176
73015SOL    HW120942   4.269   4.228   5.233
73015SOL    HW220943   4.156   4.321   5.192
73016SOL     OW20944  14.845   2.891   9.295
73016SOL    HW120945  14.797   2.974   9.300
73016SOL    HW220946  14.873   2.874   9.385
73017SOL     OW20947   3.903  12.607   9.324
73017SOL    HW120948   3.944  12.658   9.394
73017SOL    HW220949   3.931  12.650   9.243
73018SOL     OW20950   6.883   0.065  13.322
73018SOL    HW120951   6.932   0.006  13.379
73018SOL    HW220952   6.818   0.008  13.280
73019SOL     OW20953   3.485   5.209  10.627
73019SOL    HW120954   3.577   5.184  10.623
73019SOL    HW220955   3.444   5.138  10.677
73020SOL     OW20956   9.622   4.501  12.739
73020SOL    HW120957   9.540   4.457  12.762
73020SOL    HW220958   9.597   4.564  12.672
73021SOL     OW20959   8.951  13.686   0.729
73021SOL    HW120960   8.989  13.599   0.718
73021SOL    HW220961   9.021  13.739   0.766
73022SOL     OW20962   6.338   3.065   3.447
73022SOL    HW120963   6.390   3.110   3.380
73022SOL    HW220964   6.276   3.012   3.397
73023SOL     OW20965  10.552   6.959   2.420
73023SOL    HW120966  10.527   6.899   2.490
73023SOL    HW220967  10.603   7.027   2.465
73024SOL     OW20968   9.638  12.893   2.283
73024SOL    HW120969   9.639  12.957   2.354
73024SOL    HW220970   9.696  12.929   2.217
73025SOL     OW20971   2.569   4.788   4.641
73025SOL    HW120972   2.508   4.843   4.593
73025SOL    HW220973   2.632   4.759   4.575
73026SOL     OW20974  13.075   5.204   8.827
73026SOL    HW120975  13.051   5.228   8.916
73026SOL    HW220976  12.996   5.219   8.775
73027SOL     OW20977   1.111   6.997  10.158
73027SOL    HW120978   1.135   6.974  10.248
73027SOL    HW220979   1.191   6.982  10.107
73028SOL     OW20980   1.849  13.256  10.173
73028SOL    HW120981   1.768  13.210  10.198
73028SOL    HW220982   1.914  13.186  10.164
73029SOL     OW20983   4.924   7.108  13.565
73029SOL    HW120984   4.940   7.191  13.519
73029SOL    HW220985   4.835   7.083  13.540
73030SOL     OW20986   8.050   0.016  13.476
73030SOL    HW120987   8.133  14.871  13.519
73030SOL    HW220988   7.990   0.034  13.549
73031SOL     OW20989   7.211  13.222   4.845
73031SOL    HW120990   7.271  13.189   4.913
73031SOL    HW220991   7.159  13.145   4.821
73032SOL     OW20992   1.712  13.783   9.128
73032SOL    HW120993   1.641  13.827   9.174
73032SOL    HW220994   1.727  13.836   9.050
73033SOL     OW20995   7.136   8.121  14.663
73033SOL    HW120996   7.060   8.129  14.605
73033SOL    HW220997   7.205   8.171  14.618
73034SOL     OW20998   5.905   9.207  14.179
73034SOL    HW120999   5.954   9.130  14.150
73034SOL    HW221000   5.817   9.193  14.143
73035SOL     OW21001   1.308  12.430   2.290
73035SOL    HW121002   1.301  12.516   2.248
73035SOL    HW221003   1.217  12.398   2.293
73036SOL     OW21004   7.934   9.037   4.457
73036SOL    HW121005   7.964   9.127   4.454
73036SOL    HW221006   8.013   8.984   4.444
73037SOL     OW21007  13.478   7.045  13.536
73037SOL    HW121008  13.414   6.978  13.512
73037SOL    HW221009  13.546   6.998  13.583
73038SOL     OW21010   0.630   8.702   3.942
73038SOL    HW121011   0.606   8.773   3.882
73038SOL    HW221012   0.554   8.643   3.941
73039SOL     OW21013   6.918  14.179   1.989
73039SOL    HW121014   6.983  14.118   2.026
73039SOL    HW221015   6.920  14.255   2.048
73040SOL     OW21016   1.081   2.024   1.491
73040SOL    HW121017   1.066   1.939   1.449
73040SOL    HW221018   1.049   2.088   1.427
73041SOL     OW21019   1.160   0.643   9.267
73041SOL    HW121020   1.224   0.572   9.257
73041SOL    HW221021   1.077   0.604   9.242
73042SOL     OW21022  12.409   5.590  10.072
73042SOL    HW121023  12.407   5.637   9.989
73042SOL    HW221024  12.367   5.649  10.134
73043SOL     OW21025   9.767  13.507  12.947
73043SOL    HW121026   9.799  13.421  12.975
73043SOL    HW221027   9.756  13.555  13.029
73044SOL     OW21028  10.016  12.863   7.275
73044SOL    HW121029   9.959  12.923   7.324
73044SOL    HW221030  10.013  12.895   7.185
73045SOL     OW21031  10.797   7.584   8.262
73045SOL    HW121032  10.707   7.558   8.243
73045SOL    HW221033  10.809   7.563   8.354
73046SOL     OW21034   0.239   1.942  10.126
73046SOL    HW121035   0.204   1.874  10.067
73046SOL    HW221036   0.261   2.014  10.068
73047SOL     OW21037   8.340  12.475   3.597
73047SOL    HW121038   8.251  12.505   3.580
73047SOL    HW221039   8.344  12.465   3.692
73048SOL     OW21040   9.771   1.892  14.363
73048SOL    HW121041   9.849   1.940  14.337
73048SOL    HW221042   9.753   1.921  14.452
73049SOL     OW21043   7.931   2.982  11.974
73049SOL    HW121044   7.879   2.974  11.894
73049SOL    HW221045   7.987   3.058  11.959
73050SOL     OW21046   6.576   4.918   8.106
73050SOL    HW121047   6.589   4.824   8.116
73050SOL    HW221048   6.500   4.938   8.161
73051SOL     OW21049  12.276   3.324  14.527
73051SOL    HW121050  12.326   3.399  14.495
73051SOL    HW221051  12.338   3.275  14.581
73052SOL     OW21052  11.732   4.584   1.382
73052SOL    HW121053  11.638   4.565   1.386
73052SOL    HW221054  11.767   4.517   1.323
73053SOL     OW21055  11.883  13.838   0.584
73053SOL    HW121056  11.853  13.896   0.514
73053SOL    HW221057  11.804  13.797   0.617
73054SOL     OW21058   6.095   9.244   7.204
73054SOL    HW121059   6.106   9.274   7.294
73054SOL    HW221060   6.002   9.225   7.195
73055SOL     OW21061   8.166  10.015   3.343
73055SOL    HW121062   8.145  10.103   3.375
73055SOL    HW221063   8.231  10.029   3.275
73056SOL     OW21064   8.733   9.926   0.907
73056SOL    HW121065   8.659   9.935   0.846
73056SOL    HW221066   8.735   9.833   0.928
73057SOL     OW21067  10.542  12.615   5.502
73057SOL    HW121068  10.593  12.604   5.421
73057SOL    HW221069  10.600  12.585   5.571
73058SOL     OW21070  12.307   4.693   9.202
73058SOL    HW121071  12.234   4.663   9.148
73058SOL    HW221072  12.385   4.667   9.152
73059SOL     OW21073   5.580   3.604   2.750
73059SOL    HW121074   5.567   3.647   2.834
73059SOL    HW221075   5.610   3.674   2.692
73060SOL     OW21076   7.329  12.541   6.163
73060SOL    HW121077   7.374  12.480   6.221
73060SOL    HW221078   7.350  12.627   6.198
73061SOL     OW21079   2.076  12.240  10.454
73061SOL    HW121080   2.020  12.269  10.526
73061SOL    HW221081   2.022  12.178  10.405
73062SOL     OW21082   0.008   0.988   9.585
73062SOL    HW121083  14.856   0.975   9.675
73062SOL    HW221084   0.089   1.039   9.594
73063SOL     OW21085   0.620  13.889  13.345
73063SOL    HW121086   0.553  13.830  13.310
73063SOL    HW221087   0.686  13.832  13.383
73064SOL     OW21088   1.652   2.907   3.442
73064SOL    HW121089   1.676   2.815   3.429
73064SOL    HW221090   1.599   2.906   3.522
73065SOL     OW21091   7.362  11.103  12.087
73065SOL    HW121092   7.396  11.165  12.152
73065SOL    HW221093   7.384  11.142  12.003
73066SOL     OW21094  10.887   4.851   2.376
73066SOL    HW121095  10.965   4.895   2.410
73066SOL    HW221096  10.818   4.917   2.380
73067SOL     OW21097   8.211   8.041   8.882
73067SOL    HW121098   8.238   8.074   8.968
73067SOL    HW221099   8.286   7.990   8.852
73068SOL     OW21100  14.760  10.204  14.390
73068SOL    HW121101  14.840  10.155  14.369
73068SOL    HW221102  14.774  10.291  14.352
73069SOL     OW21103  11.759   6.238  12.348
73069SOL    HW121104  11.708   6.226  12.429
73069SOL    HW221105  11.804   6.322  12.361
73070SOL     OW21106  13.280   4.466   3.695
73070SOL    HW121107  13.274   4.378   3.656
73070SOL    HW221108  13.318   4.451   3.782
73071SOL     OW21109  11.668  11.125   7.415
73071SOL    HW121110  11.721  11.151   7.490
73071SOL    HW221111  11.659  11.030   7.424
73072SOL     OW21112  12.162  12.101   5.083
73072SOL    HW121113  12.103  12.029   5.103
73072SOL    HW221114  12.107  12.179   5.085
73073SOL     OW21115  10.116   6.234   7.411
73073SOL    HW121116  10.126   6.211   7.503
73073SOL    HW221117  10.104   6.329   7.412
73074SOL     OW21118  13.293   9.649  11.059
73074SOL    HW121119  13.337   9.617  10.981
73074SOL    HW221120  13.225   9.585  11.077
73075SOL     OW21121   9.751   7.200   1.741
73075SOL    HW121122   9.770   7.228   1.831
73075SOL    HW221123   9.697   7.121   1.752
73076SOL     OW21124   2.872   7.965   1.734
73076SOL    HW121125   2.859   7.876   1.702
73076SOL    HW221126   2.962   7.986   1.710
73077SOL     OW21127   2.120   1.706   0.105
73077SOL    HW121128   2.126   1.715   0.200
73077SOL    HW221129   2.104   1.613   0.091
73078SOL     OW21130   1.695   8.022   3.788
73078SOL    HW121131   1.736   7.956   3.844
73078SOL    HW221132   1.621   7.977   3.747
73079SOL     OW21133   0.144   8.939  10.525
73079SOL    HW121134   0.063   8.898  10.493
73079SOL    HW221135   0.134   9.032  10.505
73080SOL     OW21136   7.135   3.212  13.105
73080SOL    HW121137   7.076   3.287  13.113
73080SOL    HW221138   7.206   3.244  13.049
73081SOL     OW21139  13.116  10.493   1.102
73081SOL    HW121140  13.198  10.468   1.145
73081SOL    HW221141  13.143  10.517   1.013
73082SOL     OW21142   7.036   4.833   7.113
73082SOL    HW121143   7.061   4.820   7.205
73082SOL    HW221144   6.997   4.920   7.112
73083SOL     OW21145   7.937   8.476   7.975
73083SOL    HW121146   7.922   8.570   7.987
73083SOL    HW221147   7.853   8.436   7.998
73084SOL     OW21148  10.888  14.103  11.239
73084SOL    HW121149  10.812  14.052  11.266
73084SOL    HW221150  10.944  14.040  11.194
73085SOL     OW21151   0.863   1.113  10.810
73085SOL    HW121152   0.810   1.178  10.856
73085SOL    HW221153   0.919   1.075  10.879
73086SOL     OW21154   6.390   8.057   1.096
73086SOL    HW121155   6.434   8.017   1.021
73086SOL    HW221156   6.393   7.990   1.164
73087SOL     OW21157   0.839   9.546   5.115
73087SOL    HW121158   0.833   9.457   5.148
73087SOL    HW221159   0.823   9.601   5.191
73088SOL     OW21160   1.792  10.545  13.818
73088SOL    HW121161   1.834  10.623  13.855
73088SOL    HW221162   1.862  10.502  13.768
73089SOL     OW21163   8.278  14.023   1.148
73089SOL    HW121164   8.306  13.931   1.140
73089SOL    HW221165   8.238  14.027   1.235
73090SOL     OW21166  12.783  10.964   5.387
73090SOL    HW121167  12.778  10.955   5.482
73090SOL    HW221168  12.822  11.051   5.374
73091SOL     OW21169  11.707  14.697   5.066
73091SOL    HW121170  11.669  14.709   4.979
73091SOL    HW221171  11.676  14.773   5.116
73092SOL     OW21172   3.963   6.664   9.671
73092SOL    HW121173   3.936   6.637   9.583
73092SOL    HW221174   3.977   6.581   9.717
73093SOL     OW21175  11.367  10.600   4.238
73093SOL    HW121176  11.399  10.583   4.326
73093SOL    HW221177  11.274  10.620   4.249
73094SOL     OW21178   7.857   4.917  14.209
73094SOL    HW121179   7.838   4.844  14.150
73094SOL    HW221180   7.937   4.890  14.254
73095SOL     OW21181   6.878   3.652   4.226
73095SOL    HW121182   6.789   3.629   4.253
73095SOL    HW221183   6.899   3.589   4.157
73096SOL     OW21184   3.997   3.487   9.558
73096SOL    HW121185   4.047   3.524   9.631
73096SOL    HW221186   3.996   3.393   9.575
73097SOL     OW21187   9.680   8.231  14.590
73097SOL    HW121188   9.633   8.272  14.517
73097SOL    HW221189   9.612   8.214  14.655
73098SOL     OW21190   8.599   8.803   3.558
73098SOL    HW121191   8.649   8.776   3.635
73098SOL    HW221192   8.569   8.720   3.519
73099SOL     OW21193   5.010   5.033  11.061
73099SOL    HW121194   5.025   4.947  11.101
73099SOL    HW221195   5.013   5.094  11.134
73100SOL     OW21196  14.148   0.843   5.806
73100SOL    HW121197  14.172   0.757   5.840
73100SOL    HW221198  14.177   0.842   5.715
73101SOL     OW21199   2.403  12.039   7.176
73101SOL    HW121200   2.408  11.981   7.100
73101SOL    HW221201   2.492  12.042   7.210
73102SOL     OW21202   0.216   9.996   6.230
73102SOL    HW121203   0.154  10.057   6.271
73102SOL    HW221204   0.213   9.918   6.284
73103SOL     OW21205   5.025   9.674  10.946
73103SOL    HW121206   5.032   9.754  10.893
73103SOL    HW221207   4.977   9.613  10.890
73104SOL     OW21208  13.919   8.342  12.217
73104SOL    HW121209  13.945   8.423  12.173
73104SOL    HW221210  13.992   8.282  12.203
73105SOL     OW21211   5.791  13.168  14.829
73105SOL    HW121212   5.761  13.171   0.042
73105SOL    HW221213   5.741  13.237  14.785
73106SOL     OW21214  14.620  11.497  14.001
73106SOL    HW121215  14.711  11.523  14.012
73106SOL    HW221216  14.615  11.466  13.911
73107SOL     OW21217   2.962  13.058  10.752
73107SOL    HW121218   2.895  13.126  10.756
73107SOL    HW221219   3.040  13.099  10.789
73108SOL     OW21220   1.558   5.141  12.697
73108SOL    HW121221   1.557   5.093  12.614
73108SOL    HW221222   1.503   5.218  12.680
73109SOL     OW21223   3.673   0.324   4.508
73109SOL    HW121224   3.727   0.398   4.481
73109SOL    HW221225   3.628   0.296   4.428
73110SOL     OW21226   7.065  14.653  11.173
73110SOL    HW121227   7.034  14.606  11.250
73110SOL    HW221228   7.012  14.734  11.172
73111SOL     OW21229  10.618   5.871   3.930
73111SOL    HW121230  10.598   5.797   3.873
73111SOL    HW221231  10.546   5.932   3.915
73112SOL     OW21232   7.721  14.297   2.888
73112SOL    HW121233   7.688  14.318   2.801
73112SOL    HW221234   7.663  14.346   2.947
73113SOL     OW21235   1.424   9.163  14.215
73113SOL    HW121236   1.458   9.170  14.126
73113SOL    HW221237   1.396   9.072  14.223
73114SOL     OW21238   0.611   3.409  11.288
73114SOL    HW121239   0.668   3.471  11.334
73114SOL    HW221240   0.556   3.371  11.356
73115SOL     OW21241  10.203   2.896  14.694
73115SOL    HW121242  10.280   2.921  14.745
73115SOL    HW221243  10.130   2.941  14.735
73116SOL     OW21244  11.304  11.810   2.954
73116SOL    HW121245  11.304  11.717   2.979
73116SOL    HW221246  11.229  11.847   3.000
73117SOL     OW21247   3.710   2.183   6.870
73117SOL    HW121248   3.662   2.265   6.878
73117SOL    HW221249   3.789   2.207   6.822
73118SOL     OW21250  12.871  10.554   4.975
73118SOL    HW121251  12.881  10.567   5.069
73118SOL    HW221252  12.809  10.482   4.966
73119SOL     OW21253  14.126   2.892  11.687
73119SOL    HW121254  14.138   2.934  11.602
73119SOL    HW221255  14.159   2.956  11.750
73120SOL     OW21256   9.211   0.194   4.015
73120SOL    HW121257   9.123   0.220   4.044
73120SOL    HW221258   9.215   0.217   3.923
73121SOL     OW21259   6.725   7.379  13.408
73121SOL    HW121260   6.803   7.434  13.398
73121SOL    HW221261   6.728   7.319  13.333
73122SOL     OW21262   0.990   6.862   8.489
73122SOL    HW121263   1.037   6.921   8.431
73122SOL    HW221264   0.920   6.824   8.435
73123SOL     OW21265   7.058  12.338   5.893
73123SOL    HW121266   6.966  12.350   5.873
73123SOL    HW221267   7.091  12.284   5.821
73124SOL     OW21268   5.438  13.288  11.490
73124SOL    HW121269   5.401  13.355  11.547
73124SOL    HW221270   5.363  13.255  11.440
73125SOL     OW21271   2.856  12.489   5.377
73125SOL    HW121272   2.857  12.534   5.292
73125SOL    HW221273   2.894  12.552   5.438
73126SOL     OW21274   1.023   2.670  10.506
73126SOL    HW121275   0.931   2.684  10.486
73126SOL    HW221276   1.025   2.646  10.599
73127SOL     OW21277   4.961  14.638   6.994
73127SOL    HW121278   5.020  14.702   7.034
73127SOL    HW221279   4.975  14.558   7.044
73128SOL     OW21280   2.253   3.307  14.854
73128SOL    HW121281   2.167   3.268  14.868
73128SOL    HW221282   2.284   3.330   0.064
73129SOL     OW21283   2.631   3.120   3.214
73129SOL    HW121284   2.722   3.096   3.196
73129SOL    HW221285   2.581   3.043   3.186
73130SOL     OW21286   5.213   2.524   4.589
73130SOL    HW121287   5.302   2.493   4.570
73130SOL    HW221288   5.198   2.595   4.526
73131SOL     OW21289   7.394   2.087   3.406
73131SOL    HW121290   7.299   2.074   3.409
73131SOL    HW221291   7.411   2.152   3.474
73132SOL     OW21292   9.236   8.105   0.196
73132SOL    HW121293   9.268   8.031   0.248
73132SOL    HW221294   9.152   8.128   0.235
73133SOL     OW21295  12.356   2.716   4.341
73133SOL    HW121296  12.434   2.661   4.338
73133SOL    HW221297  12.322   2.704   4.430
73134SOL     OW21298   1.261   1.439   0.103
73134SOL    HW121299   1.228   1.493   0.175
73134SOL    HW221300   1.207   1.464   0.028
73135SOL     OW21301   9.050   6.235  10.187
73135SOL    HW121302   9.044   6.175  10.113
73135SOL    HW221303   8.960   6.242  10.220
73136SOL     OW21304   7.291  10.859   3.987
73136SOL    HW121305   7.337  10.798   4.045
73136SOL    HW221306   7.218  10.892   4.040
73137SOL     OW21307  12.344   9.288  13.077
73137SOL    HW121308  12.421   9.280  13.133
73137SOL    HW221309  12.298   9.365  13.110
73138SOL     OW21310   9.313   8.872   1.827
73138SOL    HW121311   9.304   8.931   1.902
73138SOL    HW221312   9.257   8.798   1.848
73139SOL     OW21313   3.758   4.982  10.263
73139SOL    HW121314   3.715   5.067  10.261
73139SOL    HW221315   3.724   4.939  10.341
73140SOL     OW21316   9.947   9.645   7.321
73140SOL    HW121317  10.003   9.569   7.338
73140SOL    HW221318   9.965   9.705   7.393
73141SOL     OW21319   3.447   1.733  12.364
73141SOL    HW121320   3.359   1.737  12.327
73141SOL    HW221321   3.434   1.750  12.458
73142SOL     OW21322   0.251  14.381   7.564
73142SOL    HW121323   0.196  14.424   7.499
73142SOL    HW221324   0.198  14.306   7.594
73143SOL     OW21325  13.205   6.637   4.953
73143SOL    HW121326  13.120   6.667   4.921
73143SOL    HW221327  13.216   6.551   4.913
73144SOL     OW21328   5.614  12.675  13.888
73144SOL    HW121329   5.697  12.628  13.897
73144SOL    HW221330   5.552  12.624  13.941
73145SOL     OW21331  12.115   3.664  10.229
73145SOL    HW121332  12.149   3.750  10.257
73145SOL    HW221333  12.190   3.606  10.236
73146SOL     OW21334   4.790   4.119  14.226
73146SOL    HW121335   4.842   4.189  14.187
73146SOL    HW221336   4.822   4.039  14.185
73147SOL     OW21337   6.471   6.205  13.416
73147SOL    HW121338   6.543   6.256  13.451
73147SOL    HW221339   6.493   6.114  13.437
73148SOL     OW21340   9.339   2.341   9.766
73148SOL    HW121341   9.339   2.306   9.677
73148SOL    HW221342   9.420   2.391   9.772
73149SOL     OW21343  13.096  12.080   5.534
73149SOL    HW121344  13.158  12.009   5.555
73149SOL    HW221345  13.062  12.108   5.619
73150SOL     OW21346   9.193   6.620  12.581
73150SOL    HW121347   9.167   6.644  12.670
73150SOL    HW221348   9.133   6.670  12.525
73151SOL     OW21349   0.123   5.740   2.949
73151SOL    HW121350   0.148   5.808   3.011
73151SOL    HW221351   0.041   5.771   2.910
73152SOL     OW21352  10.652   6.915   5.036
73152SOL    HW121353  10.686   6.891   4.950
73152SOL    HW221354  10.730   6.937   5.087
73153SOL     OW21355   0.263  12.931   2.377
73153SOL    HW121356   0.325  12.920   2.304
73153SOL    HW221357   0.211  13.007   2.352
73154SOL     OW21358  14.783   3.728   7.766
73154SOL    HW121359  14.857   3.676   7.796
73154SOL    HW221360  14.821   3.812   7.741
73155SOL     OW21361   3.515   2.492  11.569
73155SOL    HW121362   3.555   2.465  11.487
73155SOL    HW221363   3.559   2.439  11.636
73156SOL     OW21364  10.857   3.218  11.944
73156SOL    HW121365  10.819   3.149  11.999
73156SOL    HW221366  10.924   3.173  11.892
73157SOL     OW21367   2.864   4.591   1.746
73157SOL    HW121368   2.783   4.599   1.695
73157SOL    HW221369   2.904   4.678   1.739
73158SOL     OW21370   8.248  11.098   4.400
73158SOL    HW121371   8.290  11.088   4.486
73158SOL    HW221372   8.160  11.131   4.420
73159SOL     OW21373   7.630   8.217   9.996
73159SOL    HW121374   7.723   8.217   9.976
73159SOL    HW221375   7.603   8.126   9.988
73160SOL     OW21376   2.361   1.743   1.305
73160SOL    HW121377   2.392   1.832   1.286
73160SOL    HW221378   2.357   1.700   1.220
73161SOL     OW21379   4.642  14.848  12.095
73161SOL    HW121380   4.615   0.011  12.177
73161SOL    HW221381   4.702  14.778  12.121
73162SOL     OW21382  14.314   9.160   5.971
73162SOL    HW121383  14.262   9.143   5.892
73162SOL    HW221384  14.325   9.074   6.011
73163SOL     OW21385   0.348  14.029  13.378
73163SOL    HW121386   0.356  13.950  13.324
73163SOL    HW221387   0.388  14.006  13.461
73164SOL     OW21388  14.052  11.935   0.893
73164SOL    HW121389  14.017  11.910   0.808
73164SOL    HW221390  14.145  11.913   0.889
73165SOL     OW21391   1.561   7.660   2.802
73165SOL    HW121392   1.600   7.688   2.720
73165SOL    HW221393   1.632   7.616   2.849
73166SOL     OW21394   7.981  10.393   9.328
73166SOL    HW121395   7.912  10.395   9.394
73166SOL    HW221396   8.022  10.480   9.334
73167SOL     OW21397   1.883  14.697   0.101
73167SOL    HW121398   1.826  14.620   0.091
73167SOL    HW221399   1.945  14.690   0.029
73168SOL     OW21400   6.258  11.631   7.802
73168SOL    HW121401   6.307  11.646   7.883
73168SOL    HW221402   6.320  11.587   7.744
73169SOL     OW21403   0.937  11.927  14.851
73169SOL    HW121404   0.909  11.858   0.035
73169SOL    HW221405   0.856  11.974  14.830
73170SOL     OW21406  14.001   8.997   3.118
73170SOL    HW121407  14.078   8.976   3.065
73170SOL    HW221408  13.929   8.949   3.075
73171SOL     OW21409  12.278  11.851   9.319
73171SOL    HW121410  12.318  11.919   9.265
73171SOL    HW221411  12.334  11.847   9.397
73172SOL     OW21412   8.382   6.207   3.557
73172SOL    HW121413   8.427   6.188   3.475
73172SOL    HW221414   8.303   6.255   3.531
73173SOL     OW21415   3.504   0.503   6.589
73173SOL    HW121416   3.459   0.442   6.530
73173SOL    HW221417   3.554   0.560   6.530
73174SOL     OW21418  10.998   3.430   9.551
73174SOL    HW121419  11.081   3.396   9.519
73174SOL    HW221420  11.021   3.485   9.625
73175SOL     OW21421  11.591  12.216   6.882
73175SOL    HW121422  11.625  12.206   6.971
73175SOL    HW221423  11.653  12.168   6.827
73176SOL     OW21424   6.060   6.257   8.403
73176SOL    HW121425   6.017   6.304   8.331
73176SOL    HW221426   6.126   6.202   8.359
73177SOL     OW21427   8.002   6.265  11.114
73177SOL    HW121428   7.991   6.357  11.138
73177SOL    HW221429   7.914   6.236  11.089
73178SOL     OW21430   5.608   8.472   2.862
73178SOL    HW121431   5.689   8.422   2.868
73178SOL    HW221432   5.620   8.530   2.787
73179SOL     OW21433   4.361   9.697   3.165
73179SOL    HW121434   4.376   9.766   3.101
73179SOL    HW221435   4.301   9.636   3.122
73180SOL     OW21436   1.559   1.799   1.590
73180SOL    HW121437   1.508   1.780   1.669
73180SOL    HW221438   1.625   1.730   1.586
73181SOL     OW21439  14.630  13.105   0.164
73181SOL    HW121440  14.694  13.037   0.186
73181SOL    HW221441  14.675  13.160   0.100
73182SOL     OW21442  11.814  10.398  12.770
73182SOL    HW121443  11.810  10.477  12.717
73182SOL    HW221444  11.898  10.358  12.747
73183SOL     OW21445   1.102  10.551   4.092
73183SOL    HW121446   1.146  10.632   4.066
73183SOL    HW221447   1.070  10.514   4.010
73184SOL     OW21448   3.616   4.871  12.125
73184SOL    HW121449   3.568   4.954  12.122
73184SOL    HW221450   3.705   4.894  12.099
73185SOL     OW21451  13.254   0.721   0.474
73185SOL    HW121452  13.335   0.674   0.490
73185SOL    HW221453  13.185   0.659   0.497
73186SOL     OW21454  10.885   5.482   3.980
73186SOL    HW121455  10.864   5.574   4.000
73186SOL    HW221456  10.804   5.435   3.999
73187SOL     OW21457   7.934   8.378   0.582
73187SOL    HW121458   7.926   8.322   0.659
73187SOL    HW221459   7.973   8.322   0.516
73188SOL     OW21460  14.453   4.683   5.802
73188SOL    HW121461  14.445   4.603   5.855
73188SOL    HW221462  14.363   4.717   5.797
73189SOL     OW21463   6.185   2.825  11.523
73189SOL    HW121464   6.233   2.767  11.583
73189SOL    HW221465   6.252   2.884  11.488
73190SOL     OW21466   5.539   3.891   0.698
73190SOL    HW121467   5.490   3.879   0.617
73190SOL    HW221468   5.594   3.968   0.682
73191SOL     OW21469  13.502   2.528  11.124
73191SOL    HW121470  13.550   2.575  11.192
73191SOL    HW221471  13.527   2.571  11.043
73192SOL     OW21472   7.821  14.004   0.200
73192SOL    HW121473   7.876  13.926   0.212
73192SOL    HW221474   7.818  14.044   0.287
73193SOL     OW21475   7.169   4.647  11.253
73193SOL    HW121476   7.199   4.608  11.334
73193SOL    HW221477   7.240   4.630  11.190
73194SOL     OW21478  14.477   5.187   6.493
73194SOL    HW121479  14.555   5.211   6.443
73194SOL    HW221480  14.510   5.165   6.580
73195SOL     OW21481   1.017   4.809   6.539
73195SOL    HW121482   1.098   4.797   6.489
73195SOL    HW221483   0.949   4.776   6.481
73196SOL     OW21484   6.995   6.171  13.410
73196SOL    HW121485   6.928   6.215  13.359
73196SOL    HW221486   7.076   6.216  13.387
73197SOL     OW21487  10.482   0.668   8.234
73197SOL    HW121488  10.393   0.638   8.252
73197SOL    HW221489  10.534   0.636   8.308
73198SOL     OW21490   5.450   0.887   9.786
73198SOL    HW121491   5.448   0.812   9.726
73198SOL    HW221492   5.358   0.901   9.808
73199SOL     OW21493  11.815  13.100  14.362
73199SOL    HW121494  11.899  13.057  14.376
73199SOL    HW221495  11.756  13.057  14.424
73200SOL     OW21496  12.031   3.033   4.617
73200SOL    HW121497  12.078   3.032   4.534
73200SOL    HW221498  11.987   3.118   4.618
73201SOL     OW21499  11.958   8.668   1.445
73201SOL    HW121500  11.912   8.653   1.362
73201SOL    HW221501  12.019   8.739   1.426
73202SOL     OW21502   4.741   5.740  14.851
73202SOL    HW121503   4.797   5.664  14.836
73202SOL    HW221504   4.798   5.815  14.835
73203SOL     OW21505   4.784   3.206   7.687
73203SOL    HW121506   4.866   3.179   7.646
73203SOL    HW221507   4.797   3.299   7.708
73204SOL     OW21508   8.198  10.189   8.076
73204SOL    HW121509   8.160  10.276   8.089
73204SOL    HW221510   8.202  10.178   7.981
73205SOL     OW21511   8.445   4.598   4.166
73205SOL    HW121512   8.487   4.652   4.232
73205SOL    HW221513   8.354   4.625   4.166
73206SOL     OW21514   3.023  13.600  14.540
73206SOL    HW121515   2.937  13.633  14.513
73206SOL    HW221516   3.086  13.659  14.497
73207SOL     OW21517   7.983   4.400  12.944
73207SOL    HW121518   8.048   4.330  12.936
73207SOL    HW221519   7.900   4.359  12.918
73208SOL     OW21520  11.576   6.905  10.760
73208SOL    HW121521  11.498   6.871  10.716
73208SOL    HW221522  11.544   6.979  10.812
73209SOL     OW21523   2.654   0.670  10.643
73209SOL    HW121524   2.721   0.617  10.687
73209SOL    HW221525   2.703   0.728  10.585
73210SOL     OW21526   6.669   5.345   2.576
73210SOL    HW121527   6.661   5.390   2.491
73210SOL    HW221528   6.637   5.409   2.640
73211SOL     OW21529  11.298  12.272  12.422
73211SOL    HW121530  11.341  12.274  12.508
73211SOL    HW221531  11.371  12.266  12.359
73212SOL     OW21532   9.855   1.985   3.227
73212SOL    HW121533   9.793   2.031   3.284
73212SOL    HW221534   9.917   1.943   3.287
73213SOL     OW21535  14.040  13.744   7.505
73213SOL    HW121536  14.070  13.829   7.473
73213SOL    HW221537  14.003  13.763   7.591
73214SOL     OW21538   0.125   1.469   0.835
73214SOL    HW121539   0.107   1.385   0.877
73214SOL    HW221540   0.186   1.448   0.765
73215SOL     OW21541  14.797  10.830   9.654
73215SOL    HW121542  14.812  10.919   9.683
73215SOL    HW221543  14.779  10.781   9.734
73216SOL     OW21544   6.877   9.331  14.334
73216SOL    HW121545   6.911   9.345  14.422
73216SOL    HW221546   6.905   9.242  14.311
73217SOL     OW21547  13.071  12.214   4.499
73217SOL    HW121548  13.106  12.128   4.476
73217SOL    HW221549  13.091  12.225   4.592
73218SOL     OW21550  14.016   9.840  12.749
73218SOL    HW121551  14.028   9.862  12.656
73218SOL    HW221552  13.980   9.752  12.748
73219SOL     OW21553   9.336   4.484  11.667
73219SOL    HW121554   9.410   4.442  11.623
73219SOL    HW221555   9.273   4.414  11.681
73220SOL     OW21556   9.619   6.751  13.740
73220SOL    HW121557   9.711   6.753  13.764
73220SOL    HW221558   9.592   6.843  13.739
73221SOL     OW21559   7.188  12.156   6.962
73221SOL    HW121560   7.164  12.063   6.968
73221SOL    HW221561   7.241  12.171   7.040
73222SOL     OW21562   1.347   7.298  14.276
73222SOL    HW121563   1.313   7.319  14.363
73222SOL    HW221564   1.433   7.259  14.294
73223SOL     OW21565   7.707   5.116   7.801
73223SOL    HW121566   7.686   5.207   7.823
73223SOL    HW221567   7.742   5.120   7.712
73224SOL     OW21568   6.716  13.479   3.562
73224SOL    HW121569   6.634  13.444   3.526
73224SOL    HW221570   6.778  13.472   3.490
73225SOL     OW21571   8.736   7.580   2.984
73225SOL    HW121572   8.652   7.618   2.958
73225SOL    HW221573   8.755   7.515   2.916
73226SOL     OW21574   5.371  12.393   2.698
73226SOL    HW121575   5.358  12.367   2.606
73226SOL    HW221576   5.463  12.415   2.704
73227SOL     OW21577   7.571  14.032  13.993
73227SOL    HW121578   7.550  13.949  14.037
73227SOL    HW221579   7.589  14.006  13.902
73228SOL     OW21580  11.619  10.918   3.510
73228SOL    HW121581  11.588  10.870   3.433
73228SOL    HW221582  11.539  10.940   3.558
73229SOL     OW21583   0.591   6.675   7.374
73229SOL    HW121584   0.615   6.679   7.466
73229SOL    HW221585   0.654   6.732   7.330
73230SOL     OW21586   4.301   8.536  10.987
73230SOL    HW121587   4.300   8.511  11.079
73230SOL    HW221588   4.218   8.580  10.972
73231SOL     OW21589   8.093   0.662   6.959
73231SOL    HW121590   8.178   0.650   7.003
73231SOL    HW221591   8.095   0.599   6.887
73232SOL     OW21592   5.719   2.556  13.586
73232SOL    HW121593   5.724   2.616  13.511
73232SOL    HW221594   5.710   2.613  13.662
73233SOL     OW21595   1.334   7.321   4.138
73233SOL    HW121596   1.353   7.289   4.227
73233SOL    HW221597   1.242   7.298   4.124
73234SOL     OW21598   9.668   4.713  14.241
73234SOL    HW121599   9.583   4.745  14.269
73234SOL    HW221600   9.675   4.625  14.278
73235SOL     OW21601   9.061  11.316   7.155
73235SOL    HW121602   9.154  11.330   7.138
73235SOL    HW221603   9.019  11.398   7.128
73236SOL     OW21604  12.861   0.746   6.413
73236SOL    HW121605  12.881   0.777   6.502
73236SOL    HW221606  12.866   0.825   6.359
73237SOL     OW21607  10.734  11.118   5.667
73237SOL    HW121608  10.727  11.104   5.572
73237SOL    HW221609  10.673  11.054   5.705
73238SOL     OW21610   9.352   7.221  12.606
73238SOL    HW121611   9.286   7.264  12.553
73238SOL    HW221612   9.316   7.221  12.695
73239SOL     OW21613   7.140  13.253   0.339
73239SOL    HW121614   7.181  13.215   0.417
73239SOL    HW221615   7.191  13.217   0.266
73240SOL     OW21616  13.991   2.898   6.158
73240SOL    HW121617  14.027   2.812   6.177
73240SOL    HW221618  13.932   2.917   6.231
73241SOL     OW21619   4.494  12.803   0.662
73241SOL    HW121620   4.430  12.758   0.718
73241SOL    HW221621   4.537  12.733   0.614
73242SOL     OW21622  13.387   7.409  14.459
73242SOL    HW121623  13.322   7.389  14.527
73242SOL    HW221624  13.393   7.329  14.407
73243SOL     OW21625  14.727   8.601   3.627
73243SOL    HW121626  14.813   8.632   3.601
73243SOL    HW221627  14.690   8.672   3.678
73244SOL     OW21628   7.713   3.132   5.208
73244SOL    HW121629   7.729   3.101   5.298
73244SOL    HW221630   7.661   3.211   5.220
73245SOL     OW21631  10.252   2.925   5.329
73245SOL    HW121632  10.208   2.947   5.412
73245SOL    HW221633  10.262   3.010   5.285
73246SOL     OW21634  12.007  13.728   4.600
73246SOL    HW121635  11.934  13.723   4.661
73246SOL    HW221636  12.039  13.818   4.607
73247SOL     OW21637  12.946   6.378   7.782
73247SOL    HW121638  12.969   6.326   7.705
73247SOL    HW221639  12.861   6.343   7.810
73248SOL     OW21640   2.592   4.856   5.671
73248SOL    HW121641   2.661   4.895   5.617
73248SOL    HW221642   2.531   4.817   5.608
73249SOL     OW21643   9.369  13.769   4.885
73249SOL    HW121644   9.331  13.737   4.967
73249SOL    HW221645   9.441  13.709   4.866
73250SOL     OW21646   0.319  10.278   5.360
73250SOL    HW121647   0.404  10.265   5.403
73250SOL    HW221648   0.338  10.264   5.267
73251SOL     OW21649   4.631   8.374   7.625
73251SOL    HW121650   4.661   8.452   7.671
73251SOL    HW221651   4.540   8.364   7.651
73252SOL     OW21652  12.191   5.543   7.167
73252SOL    HW121653  12.255   5.510   7.105
73252SOL    HW221654  12.151   5.618   7.123
73253SOL     OW21655   1.256   5.475   4.356
73253SOL    HW121656   1.236   5.519   4.273
73253SOL    HW221657   1.314   5.403   4.332
73254SOL     OW21658  10.253  10.165   1.328
73254SOL    HW121659  10.266  10.140   1.236
73254SOL    HW221660  10.331  10.132   1.373
73255SOL     OW21661  10.691  14.389   6.067
73255SOL    HW121662  10.778  14.394   6.107
73255SOL    HW221663  10.654  14.476   6.080
73256SOL     OW21664   9.379   8.430   9.495
73256SOL    HW121665   9.364   8.346   9.452
73256SOL    HW221666   9.429   8.407   9.574
73257SOL     OW21667   9.771   5.574   2.810
73257SOL    HW121668   9.693   5.619   2.845
73257SOL    HW221669   9.841   5.638   2.820
73258SOL     OW21670   8.036  12.272   9.642
73258SOL    HW121671   8.085  12.354   9.640
73258SOL    HW221672   8.041  12.239   9.552
73259SOL     OW21673   9.884   2.451   9.616
73259SOL    HW121674   9.828   2.512   9.665
73259SOL    HW221675   9.892   2.490   9.530
73260SOL     OW21676  12.731  12.714   8.144
73260SOL    HW121677  12.683  12.633   8.123
73260SOL    HW221678  12.820  12.684   8.165
73261SOL     OW21679  13.419   2.181   9.096
73261SOL    HW121680  13.465   2.117   9.042
73261SOL    HW221681  13.447   2.266   9.062
73262SOL     OW21682   7.082  11.609   3.985
73262SOL    HW121683   7.156  11.669   3.973
73262SOL    HW221684   7.038  11.640   4.064
73263SOL     OW21685   5.607   9.141   4.247
73263SOL    HW121686   5.595   9.221   4.298
73263SOL    HW221687   5.629   9.172   4.159
73264SOL     OW21688   8.115   6.840   4.203
73264SOL    HW121689   8.030   6.882   4.218
73264SOL    HW221690   8.099   6.781   4.129
73265SOL     OW21691   6.187  13.348  14.175
73265SOL    HW121692   6.154  13.438  14.170
73265SOL    HW221693   6.179  13.325  14.267
73266SOL     OW21694   3.643   7.729  12.105
73266SOL    HW121695   3.585   7.708  12.179
73266SOL    HW221696   3.590   7.710  12.027
73267SOL     OW21697   9.126  13.551   7.276
73267SOL    HW121698   9.129  13.512   7.363
73267SOL    HW221699   9.174  13.490   7.220
73268SOL     OW21700   4.916  12.540   7.652
73268SOL    HW121701   4.922  12.616   7.594
73268SOL    HW221702   4.956  12.569   7.734
73269SOL     OW21703  10.429   8.016   4.931
73269SOL    HW121704  10.443   8.026   5.025
73269SOL    HW221705  10.356   7.954   4.925
73270SOL     OW21706   2.137   6.789  10.897
73270SOL    HW121707   2.212   6.743  10.860
73270SOL    HW221708   2.148   6.880  10.869
73271SOL     OW21709   0.855   9.493   9.725
73271SOL    HW121710   0.933   9.546   9.735
73271SOL    HW221711   0.886   9.403   9.736
73272SOL     OW21712   1.018   9.780  11.160
73272SOL    HW121713   0.973   9.700  11.186
73272SOL    HW221714   1.000   9.842  11.230
73273SOL     OW21715   4.498   4.365   0.540
73273SOL    HW121716   4.500   4.272   0.520
73273SOL    HW221717   4.581   4.382   0.584
73274SOL     OW21718  12.747  14.141   8.304
73274SOL    HW121719  12.793  14.225   8.310
73274SOL    HW221720  12.791  14.094   8.234
73275SOL     OW21721  14.668   2.114   1.018
73275SOL    HW121722  14.738   2.102   1.081
73275SOL    HW221723  14.620   2.191   1.049
73276SOL     OW21724  14.732   7.351  11.208
73276SOL    HW121725  14.779   7.406  11.145
73276SOL    HW221726  14.792   7.279  11.226
73277SOL     OW21727   6.543   4.073   1.764
73277SOL    HW121728   6.595   4.105   1.690
73277SOL    HW221729   6.458   4.115   1.753
73278SOL     OW21730  13.430  14.251   3.726
73278SOL    HW121731  13.436  14.331   3.778
73278SOL    HW221732  13.337  14.230   3.724
73279SOL     OW21733   4.056  13.209   8.143
73279SOL    HW121734   4.018  13.123   8.125
73279SOL    HW221735   3.986  13.271   8.120
73280SOL     OW21736   3.439   4.717   2.521
73280SOL    HW121737   3.459   4.783   2.588
73280SOL    HW221738   3.512   4.656   2.524
73281SOL     OW21739  12.975   4.733   4.578
73281SOL    HW121740  12.894   4.780   4.556
73281SOL    HW221741  12.963   4.707   4.669
73282SOL     OW21742  11.260   2.652   2.245
73282SOL    HW121743  11.259   2.599   2.325
73282SOL    HW221744  11.169   2.650   2.214
73283SOL     OW21745   3.692   0.557   7.509
73283SOL    HW121746   3.780   0.522   7.496
73283SOL    HW221747   3.684   0.568   7.603
73284SOL     OW21748   1.852  14.110   4.780
73284SOL    HW121749   1.924  14.143   4.835
73284SOL    HW221750   1.808  14.045   4.834
73285SOL     OW21751   4.929   7.347   6.347
73285SOL    HW121752   5.001   7.382   6.398
73285SOL    HW221753   4.963   7.342   6.257
73286SOL     OW21754  12.698   0.929  11.854
73286SOL    HW121755  12.631   0.862  11.870
73286SOL    HW221756  12.659   1.010  11.888
73287SOL     OW21757   3.988  10.972   1.201
73287SOL    HW121758   3.985  10.985   1.296
73287SOL    HW221759   3.908  10.926   1.180
73288SOL     OW21760   6.703  10.422  12.864
73288SOL    HW121761   6.633  10.458  12.919
73288SOL    HW221762   6.681  10.329  12.856
73289SOL     OW21763  14.079  13.005   0.538
73289SOL    HW121764  14.073  12.932   0.476
73289SOL    HW221765  14.166  13.041   0.525
73290SOL     OW21766   3.622  13.917   0.469
73290SOL    HW121767   3.702  13.875   0.500
73290SOL    HW221768   3.615  13.893   0.377
73291SOL     OW21769  12.924  13.182   0.624
73291SOL    HW121770  12.939  13.206   0.715
73291SOL    HW221771  12.927  13.265   0.576
73292SOL     OW21772  11.588   0.256   3.841
73292SOL    HW121773  11.521   0.299   3.894
73292SOL    HW221774  11.553   0.257   3.752
73293SOL     OW21775  13.193  11.785   7.132
73293SOL    HW121776  13.155  11.708   7.173
73293SOL    HW221777  13.281  11.759   7.108
73294SOL     OW21778   5.666   9.335   3.675
73294SOL    HW121779   5.598   9.391   3.711
73294SOL    HW221780   5.691   9.378   3.593
73295SOL     OW21781  10.938  11.603   3.008
73295SOL    HW121782  11.012  11.586   2.950
73295SOL    HW221783  10.861  11.584   2.955
73296SOL     OW21784  11.668   1.023  12.535
73296SOL    HW121785  11.677   0.969  12.457
73296SOL    HW221786  11.670   1.113  12.503
73297SOL     OW21787  11.008   5.023   9.644
73297SOL    HW121788  10.950   4.967   9.592
73297SOL    HW221789  11.050   5.080   9.580
73298SOL     OW21790   7.971  10.008  11.583
73298SOL    HW121791   7.923   9.981  11.504
73298SOL    HW221792   7.939   9.950  11.652
73299SOL     OW21793  12.888  10.796  10.503
73299SOL    HW121794  12.982  10.793  10.519
73299SOL    HW221795  12.873  10.883  10.466
73300SOL     OW21796  11.561   6.501  12.520
73300SOL    HW121797  11.639   6.474  12.471
73300SOL    HW221798  11.510   6.421  12.532
73301SOL     OW21799   7.375  11.290   8.709
73301SOL    HW121800   7.403  11.324   8.794
73301SOL    HW221801   7.399  11.359   8.647
73302SOL     OW21802   5.460  13.070  10.431
73302SOL    HW121803   5.429  13.137  10.492
73302SOL    HW221804   5.400  13.077  10.356
73303SOL     OW21805  12.701  10.220  11.307
73303SOL    HW121806  12.624  10.246  11.357
73303SOL    HW221807  12.705  10.282  11.234
73304SOL     OW21808   5.817   1.024   4.113
73304SOL    HW121809   5.729   1.053   4.139
73304SOL    HW221810   5.876   1.085   4.157
73305SOL     OW21811  12.832   4.574   6.836
73305SOL    HW121812  12.773   4.512   6.793
73305SOL    HW221813  12.878   4.523   6.902
73306SOL     OW21814   6.607  10.469   6.917
73306SOL    HW121815   6.577  10.447   6.829
73306SOL    HW221816   6.622  10.384   6.959
73307SOL     OW21817   6.004   1.223   5.648
73307SOL    HW121818   6.020   1.132   5.675
73307SOL    HW221819   6.085   1.250   5.606
73308SOL     OW21820   1.347   6.352   8.399
73308SOL    HW121821   1.344   6.438   8.442
73308SOL    HW221822   1.386   6.294   8.465
73309SOL     OW21823   7.103   0.334   6.551
73309SOL    HW121824   7.054   0.411   6.578
73309SOL    HW221825   7.038   0.274   6.517
73310SOL     OW21826   3.301   8.855   1.265
73310SOL    HW121827   3.395   8.840   1.259
73310SOL    HW221828   3.284   8.865   1.359
73311SOL     OW21829  14.791   0.542   9.746
73311SOL    HW121830  14.733   0.532   9.821
73311SOL    HW221831  14.736   0.525   9.670
73312SOL     OW21832   9.471   2.970   9.475
73312SOL    HW121833   9.501   3.029   9.544
73312SOL    HW221834   9.487   3.018   9.393
73313SOL     OW21835   2.129   3.585  12.011
73313SOL    HW121836   2.142   3.613  12.102
73313SOL    HW221837   2.035   3.594  11.996
73314SOL     OW21838   1.437  13.313   7.434
73314SOL    HW121839   1.465  13.375   7.366
73314SOL    HW221840   1.515  13.261   7.453
73315SOL     OW21841   5.459   9.822   7.977
73315SOL    HW121842   5.397   9.825   8.050
73315SOL    HW221843   5.492   9.732   7.977
73316SOL     OW21844  10.484   5.858   1.300
73316SOL    HW121845  10.462   5.765   1.290
73316SOL    HW221846  10.400   5.900   1.318
73317SOL     OW21847   1.502   7.946   7.903
73317SOL    HW121848   1.567   7.877   7.893
73317SOL    HW221849   1.425   7.901   7.940
73318SOL     OW21850  11.506   3.121   1.491
73318SOL    HW121851  11.537   3.104   1.402
73318SOL    HW221852  11.467   3.208   1.486
73319SOL     OW21853   6.302   9.834   7.440
73319SOL    HW121854   6.369   9.897   7.412
73319SOL    HW221855   6.286   9.782   7.362
73320SOL     OW21856   4.942   0.300   4.358
73320SOL    HW121857   5.013   0.306   4.293
73320SOL    HW221858   4.877   0.363   4.329
73321SOL     OW21859   9.658   5.455   6.800
73321SOL    HW121860   9.611   5.477   6.720
73321SOL    HW221861   9.669   5.539   6.845
73322SOL     OW21862   5.517   5.406  14.066
73322SOL    HW121863   5.584   5.337  14.066
73322SOL    HW221864   5.486   5.410  14.156
73323SOL     OW21865   3.645  10.583  10.539
73323SOL    HW121866   3.595  10.546  10.466
73323SOL    HW221867   3.670  10.670  10.508
73324SOL     OW21868  14.227   2.767   0.834
73324SOL    HW121869  14.157   2.723   0.881
73324SOL    HW221870  14.298   2.777   0.898
73325SOL     OW21871  11.055  12.087   4.587
73325SOL    HW121872  11.139  12.099   4.543
73325SOL    HW221873  10.994  12.142   4.538
73326SOL     OW21874   4.342   0.596  12.773
73326SOL    HW121875   4.287   0.517  12.778
73326SOL    HW221876   4.307   0.645  12.698
73327SOL     OW21877   7.956   3.059   2.998
73327SOL    HW121878   7.976   2.971   2.966
73327SOL    HW221879   7.930   3.108   2.920
73328SOL     OW21880  14.477   0.808   5.570
73328SOL    HW121881  14.558   0.771   5.534
73328SOL    HW221882  14.421   0.822   5.493
73329SOL     OW21883   4.659   8.703   7.374
73329SOL    HW121884   4.650   8.707   7.469
73329SOL    HW221885   4.686   8.792   7.349
73330SOL     OW21886   3.411   8.169   0.388
73330SOL    HW121887   3.457   8.086   0.385
73330SOL    HW221888   3.377   8.175   0.478
73331SOL     OW21889   0.882  10.046  11.704
73331SOL    HW121890   0.908   9.960  11.673
73331SOL    HW221891   0.795  10.059  11.668
73332SOL     OW21892   2.500   6.156   9.705
73332SOL    HW121893   2.486   6.066   9.675
73332SOL    HW221894   2.413   6.187   9.730
73333SOL     OW21895   2.817   3.667   8.976
73333SOL    HW121896   2.780   3.617   9.048
73333SOL    HW221897   2.911   3.648   8.979
73334SOL     OW21898   2.698   6.860   7.013
73334SOL    HW121899   2.734   6.826   7.095
73334SOL    HW221900   2.626   6.800   6.992
73335SOL     OW21901   1.129   0.676   8.757
73335SOL    HW121902   1.099   0.763   8.784
73335SOL    HW221903   1.095   0.665   8.668
73336SOL     OW21904   0.955   9.993   4.553
73336SOL    HW121905   0.879   9.934   4.548
73336SOL    HW221906   1.021   9.951   4.498
73337SOL     OW21907   3.504  13.173   7.522
73337SOL    HW121908   3.511  13.170   7.617
73337SOL    HW221909   3.418  13.213   7.506
73338SOL     OW21910   5.163   4.318  12.545
73338SOL    HW121911   5.216   4.335  12.466
73338SOL    HW221912   5.129   4.229  12.532
73339SOL     OW21913  11.046  11.102  12.561
73339SOL    HW121914  11.103  11.128  12.489
73339SOL    HW221915  11.105  11.090  12.636
73340SOL     OW21916   2.919  11.632  14.853
73340SOL    HW121917   2.866  11.558   0.002
73340SOL    HW221918   2.975  11.598  14.783
73341SOL     OW21919   2.848   4.952  10.100
73341SOL    HW121920   2.934   4.972  10.063
73341SOL    HW221921   2.800   4.910  10.029
73342SOL     OW21922   9.710   0.723  14.736
73342SOL    HW121923   9.667   0.806  14.760
73342SOL    HW221924   9.759   0.744  14.657
73343SOL     OW21925  11.945   6.862  12.699
73343SOL    HW121926  11.903   6.909  12.771
73343SOL    HW221927  11.933   6.919  12.623
73344SOL     OW21928  10.654   3.508  10.913
73344SOL    HW121929  10.653   3.425  10.960
73344SOL    HW221930  10.580   3.501  10.852
73345SOL     OW21931   6.492   3.329   1.884
73345SOL    HW121932   6.510   3.415   1.847
73345SOL    HW221933   6.516   3.337   1.976
73346SOL     OW21934  10.544  14.151   2.296
73346SOL    HW121935  10.568  14.189   2.212
73346SOL    HW221936  10.589  14.067   2.298
73347SOL     OW21937  13.813   6.540  11.664
73347SOL    HW121938  13.893   6.518  11.617
73347SOL    HW221939  13.805   6.635  11.656
73348SOL     OW21940   8.273   8.162   4.479
73348SOL    HW121941   8.236   8.077   4.455
73348SOL    HW221942   8.333   8.142   4.551
73349SOL     OW21943  12.360   2.358   7.521
73349SOL    HW121944  12.289   2.363   7.585
73349SOL    HW221945  12.440   2.357   7.574
73350SOL     OW21946   1.144   6.367   4.591
73350SOL    HW121947   1.174   6.284   4.554
73350SOL    HW221948   1.175   6.366   4.681
73351SOL     OW21949  14.093   8.874   5.459
73351SOL    HW121950  14.006   8.860   5.423
73351SOL    HW221951  14.108   8.968   5.450
73352SOL     OW21952   9.156  12.502  11.988
73352SOL    HW121953   9.234  12.547  11.958
73352SOL    HW221954   9.172  12.410  11.968
73353SOL     OW21955  13.574  13.756   5.771
73353SOL    HW121956  13.650  13.809   5.793
73353SOL    HW221957  13.501  13.800   5.815
73354SOL     OW21958   6.446  12.175   2.911
73354SOL    HW121959   6.416  12.100   2.963
73354SOL    HW221960   6.383  12.244   2.930
73355SOL     OW21961  14.662  12.524  14.159
73355SOL    HW121962  14.726  12.592  14.139
73355SOL    HW221963  14.713  12.452  14.195
73356SOL     OW21964  12.722   7.751  14.203
73356SOL    HW121965  12.785   7.681  14.188
73356SOL    HW221966  12.775   7.827  14.225
73357SOL     OW21967   5.576   2.845  11.699
73357SOL    HW121968   5.499   2.808  11.742
73357SOL    HW221969   5.630   2.878  11.770
73358SOL     OW21970  10.952   7.146  14.317
73358SOL    HW121971  10.936   7.108  14.404
73358SOL    HW221972  11.046   7.135  14.304
73359SOL     OW21973   5.026  14.617  10.323
73359SOL    HW121974   4.996  14.707  10.310
73359SOL    HW221975   4.974  14.565  10.262
73360SOL     OW21976   0.709  14.455  13.310
73360SOL    HW121977   0.711  14.449  13.214
73360SOL    HW221978   0.670  14.372  13.338
73361SOL     OW21979  14.810  10.961   8.463
73361SOL    HW121980  14.742  11.018   8.425
73361SOL    HW221981  14.840  10.908   8.389
73362SOL     OW21982   4.045   0.310   6.101
73362SOL    HW121983   4.128   0.334   6.141
73362SOL    HW221984   4.068   0.240   6.039
73363SOL     OW21985  13.393  14.060   2.624
73363SOL    HW121986  13.387  14.147   2.663
73363SOL    HW221987  13.456  14.014   2.678
73364SOL     OW21988   0.920   0.795   1.911
73364SOL    HW121989   0.949   0.848   1.837
73364SOL    HW221990   0.826   0.782   1.897
73365SOL     OW21991   1.931   5.288  12.163
73365SOL    HW121992   2.011   5.239  12.179
73365SOL    HW221993   1.948   5.336  12.082
73366SOL     OW21994   2.379   6.376   2.151
73366SOL    HW121995   2.285   6.386   2.167
73366SOL    HW221996   2.384   6.342   2.062
73367SOL     OW21997  11.054   5.827   6.306
73367SOL    HW121998  11.004   5.821   6.387
73367SOL    HW221999  10.990   5.847   6.238
73368SOL     OW22000   0.100   7.119   8.537
73368SOL    HW122001   0.069   7.090   8.451
73368SOL    HW222002   0.136   7.040   8.577
73369SOL     OW22003   7.993   9.249   6.287
73369SOL    HW122004   7.958   9.165   6.257
73369SOL    HW222005   8.021   9.233   6.377
73370SOL     OW22006   3.148   5.250   3.623
73370SOL    HW122007   3.094   5.283   3.694
73370SOL    HW222008   3.116   5.296   3.545
73371SOL     OW22009   0.820  11.341   0.920
73371SOL    HW122010   0.834  11.285   0.996
73371SOL    HW222011   0.859  11.293   0.847
73372SOL     OW22012   5.675  12.884   8.052
73372SOL    HW122013   5.602  12.923   8.003
73372SOL    HW222014   5.646  12.889   8.144
73373SOL     OW22015   8.934   4.388  13.863
73373SOL    HW122016   9.012   4.351  13.821
73373SOL    HW222017   8.896   4.445  13.796
73374SOL     OW22018   8.029   9.264  12.793
73374SOL    HW122019   8.036   9.293  12.702
73374SOL    HW222020   7.996   9.340  12.840
73375SOL     OW22021   2.754   6.725  11.401
73375SOL    HW122022   2.808   6.649  11.423
73375SOL    HW222023   2.775   6.789  11.470
73376SOL     OW22024   8.974   0.295  12.824
73376SOL    HW122025   9.025   0.262  12.899
73376SOL    HW222026   8.959   0.218  12.770
73377SOL     OW22027   0.019   3.978   3.393
73377SOL    HW122028   0.067   3.935   3.464
73377SOL    HW222029   0.061   3.946   3.313
73378SOL     OW22030   9.861   7.709   4.425
73378SOL    HW122031   9.938   7.663   4.392
73378SOL    HW222032   9.887   7.739   4.512
73379SOL     OW22033   9.379   7.087  10.272
73379SOL    HW122034   9.355   7.179  10.259
73379SOL    HW222035   9.324   7.039  10.211
73380SOL     OW22036  14.742   1.164  11.604
73380SOL    HW122037  14.667   1.211  11.568
73380SOL    HW222038  14.803   1.233  11.630
73381SOL     OW22039  13.907  11.273   9.937
73381SOL    HW122040  13.935  11.194   9.983
73381SOL    HW222041  13.887  11.244   9.848
73382SOL     OW22042   9.189   2.225  13.827
73382SOL    HW122043   9.107   2.198  13.867
73382SOL    HW222044   9.182   2.320  13.819
73383SOL     OW22045  11.088   2.909   3.378
73383SOL    HW122046  11.148   2.844   3.416
73383SOL    HW222047  11.012   2.857   3.350
73384SOL     OW22048   6.473  12.531   1.302
73384SOL    HW122049   6.489  12.619   1.336
73384SOL    HW222050   6.500  12.536   1.210
73385SOL     OW22051   7.083   5.361   0.860
73385SOL    HW122052   7.081   5.272   0.897
73385SOL    HW222053   6.996   5.372   0.821
73386SOL     OW22054  11.287   9.311   2.421
73386SOL    HW122055  11.246   9.244   2.476
73386SOL    HW222056  11.362   9.266   2.382
73387SOL     OW22057  10.831   9.432   4.757
73387SOL    HW122058  10.916   9.391   4.745
73387SOL    HW222059  10.768   9.367   4.726
73388SOL     OW22060  11.355  11.174  14.377
73388SOL    HW122061  11.295  11.211  14.313
73388SOL    HW222062  11.442  11.197  14.345
73389SOL     OW22063   5.215  14.287   1.283
73389SOL    HW122064   5.226  14.208   1.336
73389SOL    HW222065   5.298  14.335   1.293
73390SOL     OW22066   1.477   5.721   4.729
73390SOL    HW122067   1.558   5.760   4.696
73390SOL    HW222068   1.489   5.627   4.718
73391SOL     OW22069   0.943  13.943  11.598
73391SOL    HW122070   0.909  13.937  11.687
73391SOL    HW222071   0.868  13.974  11.546
73392SOL     OW22072   2.521   3.722   4.033
73392SOL    HW122073   2.583   3.667   4.082
73392SOL    HW222074   2.525   3.689   3.943
73393SOL     OW22075   8.534   7.183   9.982
73393SOL    HW122076   8.523   7.142   9.896
73393SOL    HW222077   8.524   7.276   9.965
73394SOL     OW22078   7.775  10.967   9.984
73394SOL    HW122079   7.812  10.879   9.971
73394SOL    HW222080   7.690  10.963   9.940
73395SOL     OW22081   0.081   8.996   4.588
73395SOL    HW122082   0.018   8.968   4.654
73395SOL    HW222083   0.116   8.914   4.552
73396SOL     OW22084   9.937   9.558  14.176
73396SOL    HW122085   9.994   9.488  14.209
73396SOL    HW222086   9.974   9.580  14.090
73397SOL     OW22087   3.838   8.679  12.642
73397SOL    HW122088   3.769   8.686  12.576
73397SOL    HW222089   3.817   8.746  12.707
73398SOL     OW22090   3.235   5.086   9.549
73398SOL    HW122091   3.163   5.030   9.578
73398SOL    HW222092   3.272   5.122   9.629
73399SOL     OW22093  11.548   6.083   5.038
73399SOL    HW122094  11.498   6.006   5.066
73399SOL    HW222095  11.495   6.157   5.066
73400SOL     OW22096   6.399   4.373   9.511
73400SOL    HW122097   6.335   4.336   9.571
73400SOL    HW222098   6.379   4.467   9.508
73401SOL     OW22099  12.523   6.626   0.240
73401SOL    HW122100  12.588   6.558   0.257
73401SOL    HW222101  12.541   6.654   0.150
73402SOL     OW22102   5.725   8.636   7.820
73402SOL    HW122103   5.696   8.571   7.757
73402SOL    HW222104   5.817   8.651   7.798
73403SOL     OW22105   1.771   1.462  11.276
73403SOL    HW122106   1.683   1.424  11.273
73403SOL    HW222107   1.764   1.543  11.224
73404SOL     OW22108   7.520   0.104   0.951
73404SOL    HW122109   7.463   0.027   0.948
73404SOL    HW222110   7.598   0.078   0.902
73405SOL     OW22111   2.078   0.510  12.909
73405SOL    HW122112   1.997   0.555  12.887
73405SOL    HW222113   2.106   0.549  12.992
73406SOL     OW22114   5.679   3.376  14.650
73406SOL    HW122115   5.615   3.309  14.624
73406SOL    HW222116   5.635   3.423  14.721
73407SOL     OW22117   6.693   6.617   1.311
73407SOL    HW122118   6.637   6.541   1.330
73407SOL    HW222119   6.743   6.590   1.234
73408SOL     OW22120  10.156   0.542   0.358
73408SOL    HW122121  10.244   0.506   0.372
73408SOL    HW222122  10.099   0.466   0.350
73409SOL     OW22123   8.538  10.034   9.415
73409SOL    HW122124   8.517   9.987   9.334
73409SOL    HW222125   8.567  10.120   9.386
73410SOL     OW22126   0.190  11.465  10.863
73410SOL    HW122127   0.118  11.523  10.836
73410SOL    HW222128   0.188  11.394  10.799
73411SOL     OW22129  13.369  10.516   2.762
73411SOL    HW122130  13.392  10.605   2.790
73411SOL    HW222131  13.273  10.515   2.762
73412SOL     OW22132   9.855   6.920   0.746
73412SOL    HW122133   9.819   6.923   0.657
73412SOL    HW222134   9.860   6.826   0.766
73413SOL     OW22135   5.853   0.247  12.773
73413SOL    HW122136   5.858   0.299  12.693
73413SOL    HW222137   5.882   0.307  12.842
73414SOL     OW22138   3.551  13.496   8.120
73414SOL    HW122139   3.489  13.568   8.135
73414SOL    HW222140   3.587  13.477   8.207
73415SOL     OW22141   4.680  12.476   1.095
73415SOL    HW122142   4.672  12.429   1.012
73415SOL    HW222143   4.590  12.491   1.123
73416SOL     OW22144   9.684   1.446   2.049
73416SOL    HW122145   9.687   1.477   1.958
73416SOL    HW222146   9.630   1.510   2.094
73417SOL     OW22147  14.790   3.116   6.327
73417SOL    HW122148  14.695   3.114   6.339
73417SOL    HW222149  14.818   3.198   6.368
73418SOL     OW22150   5.271   4.329   4.385
73418SOL    HW122151   5.208   4.261   4.361
73418SOL    HW222152   5.290   4.374   4.302
73419SOL     OW22153   5.197  14.620   9.827
73419SOL    HW122154   5.164  14.639   9.915
73419SOL    HW222155   5.285  14.585   9.842
73420SOL     OW22156  11.442   4.597   5.279
73420SOL    HW122157  11.398   4.625   5.198
73420SOL    HW222158  11.371   4.568   5.336
73421SOL     OW22159   4.761  12.111   5.472
73421SOL    HW122160   4.674  12.092   5.507
73421SOL    HW222161   4.814  12.132   5.548
73422SOL     OW22162   2.876   4.461  11.460
73422SOL    HW122163   2.887   4.378  11.507
73422SOL    HW222164   2.810   4.508  11.510
73423SOL     OW22165   9.620   9.538   1.307
73423SOL    HW122166   9.638   9.470   1.242
73423SOL    HW222167   9.532   9.517   1.338
73424SOL     OW22168   2.844   7.238  14.297
73424SOL    HW122169   2.927   7.197  14.273
73424SOL    HW222170   2.781   7.166  14.295
73425SOL     OW22171   8.734   4.881   0.098
73425SOL    HW122172   8.706   4.790   0.110
73425SOL    HW222173   8.720   4.898   0.005
73426SOL     OW22174  13.434   3.919   4.609
73426SOL    HW122175  13.343   3.889   4.602
73426SOL    HW222176  13.442   3.985   4.540
73427SOL     OW22177   1.203   5.037  10.670
73427SOL    HW122178   1.122   5.025  10.720
73427SOL    HW222179   1.270   4.994  10.723
73428SOL     OW22180   5.420   4.015   7.698
73428SOL    HW122181   5.507   4.038   7.665
73428SOL    HW222182   5.432   3.930   7.741
73429SOL     OW22183  12.940   1.843  11.325
73429SOL    HW122184  12.915   1.751  11.316
73429SOL    HW222185  12.958   1.854  11.418
73430SOL     OW22186   9.656   0.964  11.269
73430SOL    HW122187   9.693   0.904  11.205
73430SOL    HW222188   9.622   1.037  11.217
73431SOL     OW22189   7.217  14.468  13.981
73431SOL    HW122190   7.250  14.378  13.988
73431SOL    HW222191   7.140  14.469  14.038
73432SOL     OW22192   1.114   9.499   5.429
73432SOL    HW122193   1.117   9.470   5.338
73432SOL    HW222194   1.080   9.588   5.424
73433SOL     OW22195   5.574   5.538   6.504
73433SOL    HW122196   5.594   5.618   6.456
73433SOL    HW222197   5.578   5.468   6.438
73434SOL     OW22198  12.010   2.069   4.130
73434SOL    HW122199  12.050   2.019   4.201
73434SOL    HW222200  11.991   2.004   4.062
73435SOL     OW22201   3.659  12.625   2.580
73435SOL    HW122202   3.669  12.716   2.553
73435SOL    HW222203   3.714  12.617   2.658
73436SOL     OW22204   6.199   8.243   8.226
73436SOL    HW122205   6.182   8.250   8.320
73436SOL    HW222206   6.247   8.323   8.205
73437SOL     OW22207   1.091   4.246  14.448
73437SOL    HW122208   1.172   4.209  14.482
73437SOL    HW222209   1.114   4.280  14.362
73438SOL     OW22210  12.138   8.702   9.962
73438SOL    HW122211  12.218   8.712   9.910
73438SOL    HW222212  12.170   8.683  10.050
73439SOL     OW22213  10.445  11.047  12.566
73439SOL    HW122214  10.513  11.104  12.530
73439SOL    HW222215  10.363  11.085  12.536
73440SOL     OW22216  10.905   4.972  14.557
73440SOL    HW122217  10.839   5.032  14.592
73440SOL    HW222218  10.863   4.934  14.479
73441SOL     OW22219  10.161   6.492   9.450
73441SOL    HW122220  10.183   6.515   9.541
73441SOL    HW222221  10.246   6.489   9.405
73442SOL     OW22222   7.288  11.537  13.828
73442SOL    HW122223   7.278  11.631  13.815
73442SOL    HW222224   7.204  11.509  13.864
73443SOL     OW22225   9.622  13.872   8.188
73443SOL    HW122226   9.603  13.894   8.097
73443SOL    HW222227   9.644  13.779   8.186
73444SOL     OW22228   6.645   1.900  12.530
73444SOL    HW122229   6.661   1.805  12.525
73444SOL    HW222230   6.585   1.911  12.603
73445SOL     OW22231   2.867   3.321  13.247
73445SOL    HW122232   2.945   3.333  13.193
73445SOL    HW222233   2.883   3.377  13.323
73446SOL     OW22234   5.675   3.882  10.751
73446SOL    HW122235   5.592   3.837  10.770
73446SOL    HW222236   5.650   3.953  10.692
73447SOL     OW22237   2.107  14.091   2.778
73447SOL    HW122238   2.027  14.065   2.731
73447SOL    HW222239   2.151  14.152   2.718
73448SOL     OW22240   5.958   5.708  13.475
73448SOL    HW122241   6.034   5.748  13.517
73448SOL    HW222242   5.889   5.774  13.482
73449SOL     OW22243   4.572  14.629   0.993
73449SOL    HW122244   4.606  14.545   0.962
73449SOL    HW222245   4.605  14.693   0.932
73450SOL     OW22246   4.515  13.881   8.711
73450SOL    HW122247   4.595  13.918   8.675
73450SOL    HW222248   4.468  13.955   8.749
73451SOL     OW22249   3.227   3.501  13.418
73451SOL    HW122250   3.163   3.433  13.438
73451SOL    HW222251   3.177   3.583  13.419
73452SOL     OW22252   5.059   0.319   6.455
73452SOL    HW122253   5.148   0.319   6.419
73452SOL    HW222254   5.010   0.378   6.398
73453SOL     OW22255   5.351  12.781   6.982
73453SOL    HW122256   5.311  12.701   6.949
73453SOL    HW222257   5.413  12.752   7.048
73454SOL     OW22258   6.262   0.601   2.183
73454SOL    HW122259   6.267   0.548   2.262
73454SOL    HW222260   6.256   0.691   2.215
73455SOL     OW22261   0.178   6.058   3.950
73455SOL    HW122262   0.234   6.119   3.999
73455SOL    HW222263   0.102   6.110   3.925
73456SOL     OW22264   8.181  11.709   3.743
73456SOL    HW122265   8.130  11.758   3.678
73456SOL    HW222266   8.224  11.776   3.795
73457SOL     OW22267   9.679  12.108   0.007
73457SOL    HW122268   9.692  12.193   0.048
73457SOL    HW222269   9.651  12.051   0.078
73458SOL     OW22270   5.894   5.620   5.742
73458SOL    HW122271   5.799   5.614   5.751
73458SOL    HW222272   5.923   5.656   5.825
73459SOL     OW22273   3.124  14.170  14.333
73459SOL    HW122274   3.194  14.118  14.373
73459SOL    HW222275   3.149  14.177  14.241
73460SOL     OW22276   4.220   0.798  13.018
73460SOL    HW122277   4.245   0.847  12.939
73460SOL    HW222278   4.267   0.715  13.010
73461SOL     OW22279   8.849   4.526   2.705
73461SOL    HW122280   8.842   4.552   2.613
73461SOL    HW222281   8.852   4.608   2.753
73462SOL     OW22282  11.223   6.033   2.741
73462SOL    HW122283  11.140   6.035   2.692
73462SOL    HW222284  11.217   6.107   2.801
73463SOL     OW22285  11.048  10.855   3.571
73463SOL    HW122286  10.959  10.890   3.567
73463SOL    HW222287  11.036  10.760   3.573
73464SOL     OW22288   4.829   6.264  14.399
73464SOL    HW122289   4.912   6.275  14.352
73464SOL    HW222290   4.786   6.350  14.391
73465SOL     OW22291   2.251   0.638   7.463
73465SOL    HW122292   2.310   0.586   7.519
73465SOL    HW222293   2.260   0.727   7.496
73466SOL     OW22294   6.806   7.982   2.900
73466SOL    HW122295   6.881   8.029   2.865
73466SOL    HW222296   6.741   8.050   2.916
73467SOL     OW22297   3.781  13.141   7.859
73467SOL    HW122298   3.842  13.201   7.817
73467SOL    HW222299   3.791  13.158   7.953
73468SOL     OW22300   6.646   5.065   1.711
73468SOL    HW122301   6.646   5.098   1.621
73468SOL    HW222302   6.726   5.013   1.717
73469SOL     OW22303   3.813  12.723   3.038
73469SOL    HW122304   3.908  12.736   3.041
73469SOL    HW222305   3.778  12.788   3.100
73470SOL     OW22306   8.759  14.223  13.343
73470SOL    HW122307   8.809  14.142  13.335
73470SOL    HW222308   8.670  14.200  13.318
73471SOL     OW22309   4.943   0.691   4.417
73471SOL    HW122310   4.886   0.644   4.478
73471SOL    HW222311   5.024   0.705   4.465
73472SOL     OW22312  11.305   6.587   0.147
73472SOL    HW122313  11.270   6.613   0.233
73472SOL    HW222314  11.387   6.542   0.168
73473SOL     OW22315   3.875   1.831   5.558
73473SOL    HW122316   3.953   1.780   5.536
73473SOL    HW222317   3.846   1.796   5.642
73474SOL     OW22318   5.997  10.756   0.031
73474SOL    HW122319   5.914  10.707   0.032
73474SOL    HW222320   6.030  10.745  14.820
73475SOL     OW22321  12.370   0.267  10.547
73475SOL    HW122322  12.455   0.268  10.503
73475SOL    HW222323  12.310   0.307  10.485
73476SOL     OW22324  10.639  14.785   7.206
73476SOL    HW122325  10.726  14.776   7.245
73476SOL    HW222326  10.627   0.002   7.197
73477SOL     OW22327   2.076   3.290  10.506
73477SOL    HW122328   2.008   3.357  10.508
73477SOL    HW222329   2.097   3.280  10.413
73478SOL     OW22330   1.993  13.923   3.671
73478SOL    HW122331   2.073  13.961   3.706
73478SOL    HW222332   2.015  13.831   3.655
73479SOL     OW22333   3.601  13.707   2.602
73479SOL    HW122334   3.685  13.661   2.593
73479SOL    HW222335   3.623  13.800   2.594
73480SOL     OW22336   9.511  14.608  11.439
73480SOL    HW122337   9.591  14.583  11.485
73480SOL    HW222338   9.492  14.535  11.381
73481SOL     OW22339  12.746   6.203   2.846
73481SOL    HW122340  12.819   6.265   2.842
73481SOL    HW222341  12.690   6.227   2.772
73482SOL     OW22342   1.694   0.726   4.193
73482SOL    HW122343   1.759   0.678   4.245
73482SOL    HW222344   1.682   0.673   4.115
73483SOL     OW22345   4.933   8.306   9.275
73483SOL    HW122346   5.001   8.247   9.243
73483SOL    HW222347   4.929   8.376   9.210
73484SOL     OW22348  12.940   1.411   0.988
73484SOL    HW122349  13.030   1.388   0.967
73484SOL    HW222350  12.946   1.459   1.071
73485SOL     OW22351   3.810   8.075   0.539
73485SOL    HW122352   3.734   8.103   0.590
73485SOL    HW222353   3.877   8.055   0.605
73486SOL     OW22354   5.231  12.355   7.624
73486SOL    HW122355   5.318  12.381   7.593
73486SOL    HW222356   5.232  12.376   7.718
73487SOL     OW22357  12.877  11.711  13.392
73487SOL    HW122358  12.958  11.717  13.443
73487SOL    HW222359  12.842  11.800  13.393
73488SOL     OW22360   0.071   7.072   9.127
73488SOL    HW122361   0.133   7.143   9.110
73488SOL    HW222362  14.875   7.089   9.069
73489SOL     OW22363   1.167   3.713   1.760
73489SOL    HW122364   1.074   3.733   1.754
73489SOL    HW222365   1.170   3.625   1.798
73490SOL     OW22366   6.946   4.167   0.382
73490SOL    HW122367   6.956   4.148   0.476
73490SOL    HW222368   6.989   4.095   0.338
73491SOL     OW22369   0.699   4.324  11.089
73491SOL    HW122370   0.669   4.402  11.135
73491SOL    HW222371   0.624   4.265  11.089
73492SOL     OW22372  14.309   1.814   2.074
73492SOL    HW122373  14.305   1.910   2.076
73492SOL    HW222374  14.373   1.792   2.142
73493SOL     OW22375  10.222   1.339   4.270
73493SOL    HW122376  10.176   1.361   4.351
73493SOL    HW222377  10.281   1.412   4.254
73494SOL     OW22378  13.156  13.567   3.475
73494SOL    HW122379  13.081  13.564   3.416
73494SOL    HW222380  13.202  13.485   3.460
73495SOL     OW22381   4.804   0.562  12.730
73495SOL    HW122382   4.810   0.643  12.781
73495SOL    HW222383   4.711   0.540  12.731
73496SOL     OW22384   9.293   5.545   4.850
73496SOL    HW122385   9.220   5.555   4.911
73496SOL    HW222386   9.254   5.547   4.763
73497SOL     OW22387  10.619   7.062   1.407
73497SOL    HW122388  10.638   7.017   1.489
73497SOL    HW222389  10.585   7.147   1.433
73498SOL     OW22390  10.120   9.716  13.815
73498SOL    HW122391  10.153   9.761  13.893
73498SOL    HW222392  10.033   9.753  13.801
73499SOL     OW22393   4.947   1.659   6.659
73499SOL    HW122394   4.903   1.744   6.653
73499SOL    HW222395   5.033   1.680   6.696
73500SOL     OW22396   5.968  11.935  11.989
73500SOL    HW122397   5.932  12.013  12.029
73500SOL    HW222398   5.944  11.864  12.049
73501SOL     OW22399   1.560   0.818  10.628
73501SOL    HW122400   1.563   0.740  10.683
73501SOL    HW222401   1.548   0.891  10.689
73502SOL     OW22402   1.449   0.171  10.765
73502SOL    HW122403   1.437   0.077  10.765
73502SOL    HW222404   1.362   0.207  10.749
73503SOL     OW22405   4.110   5.865  12.000
73503SOL    HW122406   4.094   5.953  12.032
73503SOL    HW222407   4.070   5.863  11.913
73504SOL     OW22408  11.548   8.592   5.324
73504SOL    HW122409  11.519   8.569   5.235
73504SOL    HW222410  11.583   8.510   5.359
73505SOL     OW22411  14.402   7.958   1.687
73505SOL    HW122412  14.424   7.872   1.723
73505SOL    HW222413  14.352   8.001   1.757
73506SOL     OW22414   2.474  14.432  12.874
73506SOL    HW122415   2.459  14.509  12.819
73506SOL    HW222416   2.543  14.383  12.829
73507SOL     OW22417   8.720   3.675  10.143
73507SOL    HW122418   8.783   3.706  10.208
73507SOL    HW222419   8.763   3.691  10.059
73508SOL     OW22420   5.023   2.937   5.072
73508SOL    HW122421   5.047   3.010   5.129
73508SOL    HW222422   5.099   2.925   5.015
73509SOL     OW22423  11.529   9.460   4.620
73509SOL    HW122424  11.596   9.405   4.660
73509SOL    HW222425  11.482   9.500   4.693
73510SOL     OW22426   2.111  14.576   3.659
73510SOL    HW122427   2.068  14.650   3.616
73510SOL    HW222428   2.040  14.514   3.676
73511SOL     OW22429   9.144  12.469   1.481
73511SOL    HW122430   9.113  12.486   1.392
73511SOL    HW222431   9.107  12.384   1.503
73512SOL     OW22432   4.864   0.973  11.286
73512SOL    HW122433   4.908   0.890  11.268
73512SOL    HW222434   4.892   1.031  11.215
73513SOL     OW22435   3.518   8.174  14.605
73513SOL    HW122436   3.597   8.124  14.582
73513SOL    HW222437   3.549   8.262  14.622
73514SOL     OW22438   6.739   3.422   5.401
73514SOL    HW122439   6.674   3.360   5.434
73514SOL    HW222440   6.816   3.410   5.457
73515SOL     OW22441   4.161  13.736   5.814
73515SOL    HW122442   4.108  13.658   5.827
73515SOL    HW222443   4.249  13.703   5.794
73516SOL     OW22444   7.169  13.487  14.466
73516SOL    HW122445   7.098  13.423  14.474
73516SOL    HW222446   7.127  13.571  14.484
73517SOL     OW22447   7.610  12.962  10.137
73517SOL    HW122448   7.645  12.970  10.226
73517SOL    HW222449   7.687  12.949  10.082
73518SOL     OW22450  13.989  13.997   1.593
73518SOL    HW122451  14.049  13.931   1.628
73518SOL    HW222452  13.999  13.990   1.498
73519SOL     OW22453   0.186  10.412  10.761
73519SOL    HW122454   0.158  10.488  10.812
73519SOL    HW222455   0.260  10.376  10.809
73520SOL     OW22456   4.673   8.685   6.484
73520SOL    HW122457   4.701   8.716   6.398
73520SOL    HW222458   4.685   8.760   6.542
73521SOL     OW22459   2.132  14.739   3.277
73521SOL    HW122460   2.053  14.686   3.289
73521SOL    HW222461   2.156  14.726   3.186
73522SOL     OW22462   8.485   2.549   3.732
73522SOL    HW122463   8.531   2.631   3.713
73522SOL    HW222464   8.396   2.564   3.699
73523SOL     OW22465   9.513  10.713   1.399
73523SOL    HW122466   9.461  10.748   1.471
73523SOL    HW222467   9.547  10.630   1.432
73524SOL     OW22468   9.400   0.147  12.225
73524SOL    HW122469   9.422   0.235  12.256
73524SOL    HW222470   9.420   0.149  12.131
73525SOL     OW22471   7.727  10.615   2.906
73525SOL    HW122472   7.764  10.557   2.972
73525SOL    HW222473   7.731  10.703   2.945
73526SOL     OW22474   2.139   1.903  12.844
73526SOL    HW122475   2.143   1.976  12.906
73526SOL    HW222476   2.231   1.885  12.823
73527SOL     OW22477   6.801   3.937   5.558
73527SOL    HW122478   6.820   4.026   5.588
73527SOL    HW222479   6.741   3.950   5.484
73528SOL     OW22480  12.820   0.076   7.773
73528SOL    HW122481  12.807   0.044   7.684
73528SOL    HW222482  12.783   0.164   7.772
73529SOL     OW22483   0.675  14.610   4.397
73529SOL    HW122484   0.654  14.661   4.319
73529SOL    HW222485   0.770  14.618   4.406
73530SOL     OW22486  13.643   8.845   3.715
73530SOL    HW122487  13.727   8.823   3.673
73530SOL    HW222488  13.589   8.767   3.703
73531SOL     OW22489  10.210   7.642   7.009
73531SOL    HW122490  10.260   7.568   6.974
73531SOL    HW222491  10.256   7.667   7.089
73532SOL     OW22492   7.280   1.613   3.072
73532SOL    HW122493   7.340   1.663   3.129
73532SOL    HW222494   7.229   1.560   3.133
73533SOL     OW22495   0.547   5.796   9.044
73533SOL    HW122496   0.543   5.737   8.969
73533SOL    HW222497   0.641   5.806   9.062
73534SOL     OW22498   8.022  11.748   6.433
73534SOL    HW122499   8.080  11.820   6.408
73534SOL    HW222500   8.022  11.748   6.529
73535SOL     OW22501   9.117   7.722   4.403
73535SOL    HW122502   9.029   7.757   4.392
73535SOL    HW222503   9.174   7.783   4.356
73536SOL     OW22504   5.656  14.608  11.715
73536SOL    HW122505   5.705  14.656  11.782
73536SOL    HW222506   5.604  14.675  11.671
73537SOL     OW22507   8.987   8.461  12.879
73537SOL    HW122508   8.916   8.522  12.898
73537SOL    HW222509   9.067   8.512  12.894
73538SOL     OW22510  13.112   5.704   1.373
73538SOL    HW122511  13.068   5.783   1.341
73538SOL    HW222512  13.042   5.653   1.413
73539SOL     OW22513  11.026   2.385   3.660
73539SOL    HW122514  10.951   2.400   3.603
73539SOL    HW222515  10.996   2.410   3.747
73540SOL     OW22516   6.763  14.213   0.196
73540SOL    HW122517   6.773  14.196   0.102
73540SOL    HW222518   6.825  14.152   0.237
73541SOL     OW22519   6.905   3.028   7.365
73541SOL    HW122520   6.847   2.996   7.296
73541SOL    HW222521   6.979   3.068   7.318
73542SOL     OW22522   1.876   4.893   4.987
73542SOL    HW122523   1.955   4.905   5.040
73542SOL    HW222524   1.871   4.798   4.973
73543SOL     OW22525  12.195   5.102   8.350
73543SOL    HW122526  12.130   5.117   8.419
73543SOL    HW222527  12.199   5.007   8.340
73544SOL     OW22528   9.468   6.937   3.848
73544SOL    HW122529   9.437   6.888   3.924
73544SOL    HW222530   9.483   7.026   3.881
73545SOL     OW22531   9.565   6.912   7.357
73545SOL    HW122532   9.537   6.837   7.305
73545SOL    HW222533   9.526   6.898   7.443
73546SOL     OW22534   7.800  11.262  11.615
73546SOL    HW122535   7.875  11.301  11.569
73546SOL    HW222536   7.724  11.313  11.584
73547SOL     OW22537   1.392   6.002  13.003
73547SOL    HW122538   1.368   6.035  12.916
73547SOL    HW222539   1.321   5.944  13.028
73548SOL     OW22540   5.199  10.763   4.745
73548SOL    HW122541   5.219  10.831   4.682
73548SOL    HW222542   5.196  10.808   4.829
73549SOL     OW22543   2.222   5.775   6.915
73549SOL    HW122544   2.133   5.810   6.909
73549SOL    HW222545   2.262   5.825   6.987
73550SOL     OW22546   0.755   4.755  10.925
73550SOL    HW122547   0.805   4.817  10.871
73550SOL    HW222548   0.747   4.677  10.870
73551SOL     OW22549   1.685  10.154   7.941
73551SOL    HW122550   1.715  10.107   8.019
73551SOL    HW222551   1.715  10.244   7.954
73552SOL     OW22552   2.643  10.697   3.029
73552SOL    HW122553   2.658  10.705   2.935
73552SOL    HW222554   2.549  10.679   3.037
73553SOL     OW22555   4.098  12.930  13.300
73553SOL    HW122556   4.032  12.991  13.335
73553SOL    HW222557   4.062  12.900  13.217
73554SOL     OW22558  14.803   8.527   4.650
73554SOL    HW122559  14.734   8.489   4.596
73554SOL    HW222560  14.768   8.523   4.739
73555SOL     OW22561   7.265   0.403  13.138
73555SOL    HW122562   7.325   0.330  13.131
73555SOL    HW222563   7.179   0.362  13.148
73556SOL     OW22564   4.776   2.983   0.283
73556SOL    HW122565   4.825   3.065   0.293
73556SOL    HW222566   4.689   3.011   0.253
73557SOL     OW22567  12.019   6.160   3.187
73557SOL    HW122568  12.049   6.243   3.223
73557SOL    HW222569  11.934   6.146   3.228
73558SOL     OW22570  10.958   8.754   8.034
73558SOL    HW122571  10.980   8.691   8.103
73558SOL    HW222572  11.034   8.812   8.029
73559SOL     OW22573   0.813  14.124  10.193
73559SOL    HW122574   0.770  14.143  10.276
73559SOL    HW222575   0.901  14.161  10.202
73560SOL     OW22576   6.471  11.491   3.149
73560SOL    HW122577   6.521  11.532   3.078
73560SOL    HW222578   6.537  11.461   3.211
73561SOL     OW22579  10.248   4.846  13.946
73561SOL    HW122580  10.161   4.806  13.943
73561SOL    HW222581  10.292   4.810  13.869
73562SOL     OW22582   5.916  11.238  10.353
73562SOL    HW122583   6.005  11.264  10.327
73562SOL    HW222584   5.864  11.318  10.345
73563SOL     OW22585   1.403   9.745   7.252
73563SOL    HW122586   1.436   9.770   7.165
73563SOL    HW222587   1.396   9.650   7.248
73564SOL     OW22588   0.031   4.349   1.941
73564SOL    HW122589   0.126   4.357   1.933
73564SOL    HW222590   0.017   4.305   2.024
73565SOL     OW22591  10.067   0.438   9.554
73565SOL    HW122592  10.004   0.432   9.481
73565SOL    HW222593  10.153   0.440   9.511
73566SOL     OW22594  11.299   0.685   5.718
73566SOL    HW122595  11.268   0.639   5.796
73566SOL    HW222596  11.388   0.653   5.705
73567SOL     OW22597   2.287  11.861   8.128
73567SOL    HW122598   2.369  11.864   8.079
73567SOL    HW222599   2.304  11.797   8.197
73568SOL     OW22600   9.014   1.887   3.424
73568SOL    HW122601   8.986   1.866   3.513
73568SOL    HW222602   9.043   1.979   3.429
73569SOL     OW22603   5.723  12.758   4.216
73569SOL    HW122604   5.759  12.677   4.254
73569SOL    HW222605   5.776  12.828   4.254
73570SOL     OW22606   0.729  11.664   1.228
73570SOL    HW122607   0.739  11.695   1.318
73570SOL    HW222608   0.698  11.740   1.179
73571SOL     OW22609   5.254   2.535   3.481
73571SOL    HW122610   5.168   2.517   3.445
73571SOL    HW222611   5.292   2.449   3.500
73572SOL     OW22612   5.859  12.455   7.601
73572SOL    HW122613   5.804  12.457   7.679
73572SOL    HW222614   5.804  12.415   7.534
73573SOL     OW22615   1.045   2.176   6.726
73573SOL    HW122616   0.958   2.203   6.754
73573SOL    HW222617   1.037   2.083   6.707
73574SOL     OW22618   8.106  11.831   0.313
73574SOL    HW122619   8.172  11.832   0.244
73574SOL    HW222620   8.147  11.784   0.385
73575SOL     OW22621  11.961  13.437   6.862
73575SOL    HW122622  11.966  13.458   6.955
73575SOL    HW222623  11.957  13.522   6.818
73576SOL     OW22624  14.864   8.376   6.516
73576SOL    HW122625  14.846   8.444   6.581
73576SOL    HW222626  14.791   8.381   6.454
73577SOL     OW22627  11.208  12.990  10.614
73577SOL    HW122628  11.261  12.980  10.535
73577SOL    HW222629  11.266  13.032  10.677
73578SOL     OW22630  14.653  11.213   5.546
73578SOL    HW122631  14.637  11.143   5.609
73578SOL    HW222632  14.598  11.191   5.471
73579SOL     OW22633   0.097  11.884   2.939
73579SOL    HW122634   0.162  11.950   2.915
73579SOL    HW222635   0.090  11.829   2.861
73580SOL     OW22636   8.686   9.653   1.475
73580SOL    HW122637   8.769   9.608   1.494
73580SOL    HW222638   8.619   9.588   1.496
73581SOL     OW22639  12.959   3.553  12.125
73581SOL    HW122640  12.919   3.531  12.041
73581SOL    HW222641  12.955   3.472  12.176
73582SOL     OW22642  13.937   2.222   3.021
73582SOL    HW122643  14.023   2.259   3.039
73582SOL    HW222644  13.896   2.214   3.107
73583SOL     OW22645   7.282   9.431  13.377
73583SOL    HW122646   7.267   9.377  13.299
73583SOL    HW222647   7.229   9.390  13.445
73584SOL     OW22648  12.375   2.011   6.985
73584SOL    HW122649  12.434   1.993   7.058
73584SOL    HW222650  12.318   2.081   7.016
73585SOL     OW22651   9.892   4.619   6.009
73585SOL    HW122652   9.849   4.700   5.983
73585SOL    HW222653   9.870   4.609   6.102
73586SOL     OW22654   6.972   2.391  10.197
73586SOL    HW122655   6.896   2.441  10.227
73586SOL    HW222656   6.943   2.300  10.200
73587SOL     OW22657  10.939   4.239   0.789
73587SOL    HW122658  10.950   4.199   0.875
73587SOL    HW222659  10.888   4.175   0.739
73588SOL     OW22660  11.467  10.120   3.599
73588SOL    HW122661  11.534  10.067   3.642
73588SOL    HW222662  11.403  10.056   3.567
73589SOL     OW22663  14.584   0.357   1.568
73589SOL    HW122664  14.538   0.292   1.514
73589SOL    HW222665  14.584   0.437   1.515
73590SOL     OW22666   6.193   1.728   0.091
73590SOL    HW122667   6.165   1.813   0.125
73590SOL    HW222668   6.113   1.687   0.059
73591SOL     OW22669  14.152   9.333   7.516
73591SOL    HW122670  14.151   9.241   7.543
73591SOL    HW222671  14.242   9.348   7.487
73592SOL     OW22672   7.965   5.927  14.112
73592SOL    HW122673   8.030   5.869  14.073
73592SOL    HW222674   8.016   5.993  14.159
73593SOL     OW22675   9.767  14.150   0.441
73593SOL    HW122676   9.831  14.100   0.491
73593SOL    HW222677   9.785  14.241   0.464
73594SOL     OW22678   6.907   7.205  13.757
73594SOL    HW122679   6.964   7.266  13.803
73594SOL    HW222680   6.918   7.122  13.804
73595SOL     OW22681  10.252   7.797   4.536
73595SOL    HW122682  10.205   7.733   4.589
73595SOL    HW222683  10.212   7.881   4.560
73596SOL     OW22684   9.335  11.960  13.855
73596SOL    HW122685   9.316  11.873  13.889
73596SOL    HW222686   9.431  11.964  13.850
73597SOL     OW22687  10.679   5.323   5.846
73597SOL    HW122688  10.663   5.248   5.903
73597SOL    HW222689  10.686   5.286   5.758
73598SOL     OW22690  12.996  11.451   4.840
73598SOL    HW122691  12.906  11.486   4.841
73598SOL    HW222692  12.986  11.362   4.807
73599SOL     OW22693  13.244  11.477  14.339
73599SOL    HW122694  13.220  11.568  14.355
73599SOL    HW222695  13.209  11.458  14.252
73600SOL     OW22696   5.431  11.314   6.861
73600SOL    HW122697   5.524  11.304   6.878
73600SOL    HW222698   5.390  11.304   6.947
73601SOL     OW22699  11.351   8.689   8.623
73601SOL    HW122700  11.262   8.691   8.587
73601SOL    HW222701  11.408   8.688   8.547
73602SOL     OW22702   2.288  11.279   0.566
73602SOL    HW122703   2.277  11.292   0.660
73602SOL    HW222704   2.349  11.206   0.559
73603SOL     OW22705   5.788   1.201  12.701
73603SOL    HW122706   5.812   1.109  12.714
73603SOL    HW222707   5.694   1.204  12.721
73604SOL     OW22708   8.372   2.458   1.975
73604SOL    HW122709   8.398   2.381   2.025
73604SOL    HW222710   8.447   2.476   1.918
73605SOL     OW22711  14.837   5.696  13.387
73605SOL    HW122712  14.843   5.640  13.309
73605SOL    HW222713  14.829   5.635  13.460
73606SOL     OW22714   2.742   8.344  10.214
73606SOL    HW122715   2.744   8.288  10.291
73606SOL    HW222716   2.652   8.375  10.208
73607SOL     OW22717   6.610  10.684   3.042
73607SOL    HW122718   6.587  10.649   3.128
73607SOL    HW222719   6.526  10.690   2.996
73608SOL     OW22720   1.739  11.030  11.237
73608SOL    HW122721   1.682  11.088  11.287
73608SOL    HW222722   1.679  10.985  11.177
73609SOL     OW22723   3.515  14.277   3.813
73609SOL    HW122724   3.523  14.186   3.841
73609SOL    HW222725   3.586  14.322   3.858
73610SOL     OW22726   6.761   7.533   9.561
73610SOL    HW122727   6.819   7.506   9.489
73610SOL    HW222728   6.680   7.483   9.546
73611SOL     OW22729   1.043   5.503  11.311
73611SOL    HW122730   1.073   5.420  11.273
73611SOL    HW222731   1.096   5.514  11.390
73612SOL     OW22732   2.105  10.673   0.713
73612SOL    HW122733   2.165  10.717   0.773
73612SOL    HW222734   2.026  10.658   0.764
73613SOL     OW22735   5.959   2.869   9.454
73613SOL    HW122736   5.946   2.956   9.492
73613SOL    HW222737   5.874   2.826   9.462
73614SOL     OW22738  14.655  12.655   9.240
73614SOL    HW122739  14.740  12.696   9.252
73614SOL    HW222740  14.607  12.674   9.320
73615SOL     OW22741   8.185   5.608  13.394
73615SOL    HW122742   8.139   5.686  13.424
73615SOL    HW222743   8.229   5.574  13.471
73616SOL     OW22744  10.557  13.146  13.185
73616SOL    HW122745  10.619  13.121  13.117
73616SOL    HW222746  10.475  13.162  13.138
73617SOL     OW22747  14.542   9.387   2.029
73617SOL    HW122748  14.604   9.314   2.032
73617SOL    HW222749  14.520   9.405   2.121
73618SOL     OW22750   3.801   3.061  13.096
73618SOL    HW122751   3.845   3.073  13.181
73618SOL    HW222752   3.845   2.986  13.057
73619SOL     OW22753  14.041   4.766   8.548
73619SOL    HW122754  14.123   4.718   8.553
73619SOL    HW222755  14.059   4.850   8.591
73620SOL     OW22756   3.560   5.467   3.011
73620SOL    HW122757   3.475   5.435   3.043
73620SOL    HW222758   3.553   5.464   2.916
73621SOL     OW22759  11.220   1.530  11.535
73621SOL    HW122760  11.138   1.560  11.495
73621SOL    HW222761  11.194   1.491  11.618
73622SOL     OW22762  10.871   4.657   8.301
73622SOL    HW122763  10.790   4.617   8.332
73622SOL    HW222764  10.903   4.597   8.233
73623SOL     OW22765  10.352   0.953  12.248
73623SOL    HW122766  10.397   0.937  12.165
73623SOL    HW222767  10.345   0.866  12.288
73624SOL     OW22768   2.023  11.203   7.282
73624SOL    HW122769   2.053  11.222   7.371
73624SOL    HW222770   2.086  11.247   7.225
73625SOL     OW22771   7.983  11.058   2.108
73625SOL    HW122772   7.948  11.114   2.178
73625SOL    HW222773   7.924  10.983   2.106
73626SOL     OW22774  12.297   7.877   1.725
73626SOL    HW122775  12.235   7.890   1.653
73626SOL    HW222776  12.383   7.888   1.685
73627SOL     OW22777   9.611  12.649   9.330
73627SOL    HW122778   9.695  12.677   9.293
73627SOL    HW222779   9.619  12.665   9.424
73628SOL     OW22780  12.295  11.071  12.821
73628SOL    HW122781  12.270  11.095  12.910
73628SOL    HW222782  12.282  10.976  12.816
73629SOL     OW22783   8.410   6.093   4.060
73629SOL    HW122784   8.320   6.076   4.031
73629SOL    HW222785   8.455   6.010   4.049
73630SOL     OW22786  13.125   1.159   1.066
73630SOL    HW122787  13.180   1.231   1.097
73630SOL    HW222788  13.184   1.084   1.060
73631SOL     OW22789   6.246  11.371   4.958
73631SOL    HW122790   6.319  11.338   5.011
73631SOL    HW222791   6.217  11.449   5.005
73632SOL     OW22792  12.493   9.714   7.280
73632SOL    HW122793  12.452   9.634   7.312
73632SOL    HW222794  12.419   9.772   7.259
73633SOL     OW22795  10.362   9.864   1.543
73633SOL    HW122796  10.386   9.772   1.549
73633SOL    HW222797  10.267   9.866   1.557
73634SOL     OW22798   1.695  12.036   9.624
73634SOL    HW122799   1.763  12.024   9.557
73634SOL    HW222800   1.622  12.077   9.576
73635SOL     OW22801  12.497  13.785   8.528
73635SOL    HW122802  12.513  13.703   8.481
73635SOL    HW222803  12.426  13.827   8.480
73636SOL     OW22804   5.954   9.557  13.518
73636SOL    HW122805   6.044   9.545  13.488
73636SOL    HW222806   5.960   9.558  13.613
73637SOL     OW22807  14.649   0.061  12.554
73637SOL    HW122808  14.631   0.119  12.628
73637SOL    HW222809  14.662  14.852  12.593
73638SOL     OW22810   9.834  10.217   7.592
73638SOL    HW122811   9.914  10.248   7.549
73638SOL    HW222812   9.775  10.293   7.589
73639SOL     OW22813   3.061   1.042   1.793
73639SOL    HW122814   3.001   1.012   1.862
73639SOL    HW222815   3.128   0.973   1.790
73640SOL     OW22816   6.847   7.899   6.432
73640SOL    HW122817   6.768   7.941   6.468
73640SOL    HW222818   6.898   7.970   6.395
73641SOL     OW22819   6.484  13.341  10.446
73641SOL    HW122820   6.470  13.429  10.411
73641SOL    HW222821   6.575  13.320  10.424
73642SOL     OW22822   3.491  14.423  14.149
73642SOL    HW122823   3.433  14.355  14.115
73642SOL    HW222824   3.552  14.376  14.206
73643SOL     OW22825   8.514   4.177  13.162
73643SOL    HW122826   8.508   4.272  13.174
73643SOL    HW222827   8.471   4.140  13.240
73644SOL     OW22828   0.794   9.577   8.211
73644SOL    HW122829   0.707   9.539   8.194
73644SOL    HW222830   0.855   9.507   8.187
73645SOL     OW22831   6.055   7.162   6.199
73645SOL    HW122832   6.139   7.124   6.173
73645SOL    HW222833   5.991   7.120   6.142
73646SOL     OW22834   7.929   4.470  11.208
73646SOL    HW122835   7.836   4.470  11.184
73646SOL    HW222836   7.973   4.508  11.132
73647SOL     OW22837  12.831  12.016  12.968
73647SOL    HW122838  12.868  11.936  13.006
73647SOL    HW222839  12.849  12.084  13.032
73648SOL     OW22840  12.087   8.941  12.215
73648SOL    HW122841  12.014   8.893  12.176
73648SOL    HW222842  12.097   8.902  12.302
73649SOL     OW22843  13.410   1.664  14.220
73649SOL    HW122844  13.468   1.611  14.165
73649SOL    HW222845  13.359   1.715  14.157
73650SOL     OW22846   3.965  10.935  14.111
73650SOL    HW122847   3.958  11.030  14.106
73650SOL    HW222848   3.967  10.905  14.020
73651SOL     OW22849   5.910  12.883   8.187
73651SOL    HW122850   5.915  12.791   8.161
73651SOL    HW222851   5.830  12.915   8.145
73652SOL     OW22852   5.560   0.861   8.037
73652SOL    HW122853   5.546   0.930   7.973
73652SOL    HW222854   5.520   0.894   8.118
73653SOL     OW22855  12.899   9.024  13.519
73653SOL    HW122856  12.893   8.967  13.442
73653SOL    HW222857  12.914   9.111  13.483
73654SOL     OW22858  11.961   9.199   7.790
73654SOL    HW122859  12.048   9.237   7.779
73654SOL    HW222860  11.972   9.107   7.766
73655SOL     OW22861  12.577  11.841   7.752
73655SOL    HW122862  12.606  11.910   7.812
73655SOL    HW222863  12.613  11.867   7.667
73656SOL     OW22864  11.512   4.640   4.942
73656SOL    HW122865  11.427   4.676   4.966
73656SOL    HW222866  11.570   4.717   4.939
73657SOL     OW22867   9.638   8.305   3.086
73657SOL    HW122868   9.598   8.389   3.108
73657SOL    HW222869   9.573   8.263   3.029
73658SOL     OW22870  10.425  11.253  14.000
73658SOL    HW122871  10.496  11.289  13.947
73658SOL    HW222872  10.467  11.192  14.060
73659SOL     OW22873   1.881  11.927   8.751
73659SOL    HW122874   1.914  12.003   8.703
73659SOL    HW222875   1.953  11.902   8.808
73660SOL     OW22876  12.398   5.642  12.242
73660SOL    HW122877  12.489   5.617  12.253
73660SOL    HW222878  12.385   5.716  12.301
73661SOL     OW22879  14.051   6.774   9.341
73661SOL    HW122880  13.989   6.709   9.309
73661SOL    HW222881  14.053   6.840   9.272
73662SOL     OW22882  11.109   3.590   7.718
73662SOL    HW122883  11.104   3.627   7.630
73662SOL    HW222884  11.044   3.519   7.718
73663SOL     OW22885  12.535   2.155  11.340
73663SOL    HW122886  12.507   2.246  11.355
73663SOL    HW222887  12.621   2.163  11.300
73664SOL     OW22888   5.616  13.156   4.693
73664SOL    HW122889   5.670  13.233   4.675
73664SOL    HW222890   5.578  13.133   4.608
73665SOL     OW22891  13.104   0.494   0.542
73665SOL    HW122892  13.121   0.444   0.622
73665SOL    HW222893  13.022   0.459   0.508
73666SOL     OW22894  12.833  13.249   5.750
73666SOL    HW122895  12.771  13.256   5.677
73666SOL    HW222896  12.894  13.180   5.724
73667SOL     OW22897  12.746  14.423  13.415
73667SOL    HW122898  12.761  14.497  13.473
73667SOL    HW222899  12.822  14.367  13.426
73668SOL     OW22900   6.425  12.174  12.203
73668SOL    HW122901   6.350  12.221  12.165
73668SOL    HW222902   6.459  12.121  12.131
73669SOL     OW22903  12.034   7.166   9.832
73669SOL    HW122904  12.076   7.251   9.827
73669SOL    HW222905  12.095   7.112   9.882
73670SOL     OW22906  11.280   4.335   3.511
73670SOL    HW122907  11.226   4.267   3.550
73670SOL    HW222908  11.239   4.417   3.537
73671SOL     OW22909   1.422   0.168   6.487
73671SOL    HW122910   1.376   0.145   6.568
73671SOL    HW222911   1.375   0.121   6.418
73672SOL     OW22912   1.300   0.548  11.799
73672SOL    HW122913   1.213   0.580  11.822
73672SOL    HW222914   1.349   0.550  11.881
73673SOL     OW22915   1.990  10.192  12.657
73673SOL    HW122916   2.035  10.128  12.712
73673SOL    HW222917   1.971  10.146  12.575
73674SOL     OW22918   3.060  13.033   3.538
73674SOL    HW122919   3.072  13.051   3.631
73674SOL    HW222920   3.048  12.938   3.532
73675SOL     OW22921   4.905  10.777   3.794
73675SOL    HW122922   4.902  10.708   3.729
73675SOL    HW222923   4.984  10.758   3.845
73676SOL     OW22924   1.130  14.267   6.276
73676SOL    HW122925   1.165  14.342   6.324
73676SOL    HW222926   1.199  14.201   6.281
73677SOL     OW22927   4.341  10.994  13.847
73677SOL    HW122928   4.308  11.066  13.901
73677SOL    HW222929   4.394  10.942  13.907
73678SOL     OW22930   8.501  13.805   8.015
73678SOL    HW122931   8.481  13.813   8.109
73678SOL    HW222932   8.479  13.714   7.994
73679SOL     OW22933  14.821  14.777  10.627
73679SOL    HW122934  14.765  14.705  10.656
73679SOL    HW222935  14.815  14.776  10.532
73680SOL     OW22936  14.219   3.678   8.335
73680SOL    HW122937  14.149   3.741   8.352
73680SOL    HW222938  14.297   3.732   8.320
73681SOL     OW22939   2.854   7.792   1.115
73681SOL    HW122940   2.844   7.827   1.203
73681SOL    HW222941   2.771   7.747   1.097
73682SOL     OW22942   3.267   2.684   8.392
73682SOL    HW122943   3.282   2.647   8.305
73682SOL    HW222944   3.250   2.777   8.377
73683SOL     OW22945  11.662   7.703  10.740
73683SOL    HW122946  11.740   7.749  10.710
73683SOL    HW222947  11.640   7.743  10.824
73684SOL     OW22948   5.846   9.113  12.710
73684SOL    HW122949   5.777   9.139  12.649
73684SOL    HW222950   5.852   9.018  12.700
73685SOL     OW22951   5.748  12.830   4.615
73685SOL    HW122952   5.807  12.808   4.688
73685SOL    HW222953   5.718  12.745   4.582
73686SOL     OW22954  13.266   0.120   8.860
73686SOL    HW122955  13.317   0.056   8.910
73686SOL    HW222956  13.275   0.202   8.909
73687SOL     OW22957   7.660   9.749  13.450
73687SOL    HW122958   7.670   9.840  13.476
73687SOL    HW222959   7.584   9.718  13.499
73688SOL     OW22960   3.186   6.271  11.770
73688SOL    HW122961   3.097   6.251  11.799
73688SOL    HW222962   3.222   6.326  11.839
73689SOL     OW22963   5.903   5.577   6.673
73689SOL    HW122964   5.997   5.580   6.691
73689SOL    HW222965   5.897   5.539   6.586
73690SOL     OW22966   6.377   2.423  14.242
73690SOL    HW122967   6.285   2.434  14.266
73690SOL    HW222968   6.425   2.425  14.325
73691SOL     OW22969   0.919  11.153  10.595
73691SOL    HW122970   0.878  11.102  10.525
73691SOL    HW222971   0.866  11.232  10.601
73692SOL     OW22972   1.015  13.865   9.795
73692SOL    HW122973   1.010  13.869   9.890
73692SOL    HW222974   1.090  13.921   9.772
73693SOL     OW22975   6.418  14.281   4.981
73693SOL    HW122976   6.504  14.259   5.017
73693SOL    HW222977   6.409  14.375   4.997
73694SOL     OW22978  10.411   8.794   9.347
73694SOL    HW122979  10.437   8.705   9.371
73694SOL    HW222980  10.371   8.829   9.426
73695SOL     OW22981   6.949  11.861   0.629
73695SOL    HW122982   7.000  11.781   0.616
73695SOL    HW222983   7.011  11.932   0.614
73696SOL     OW22984   3.700   6.804  13.933
73696SOL    HW122985   3.707   6.761  14.018
73696SOL    HW222986   3.749   6.885  13.943
73697SOL     OW22987   3.504   8.636   6.317
73697SOL    HW122988   3.551   8.611   6.396
73697SOL    HW222989   3.461   8.719   6.339
73698SOL     OW22990   2.087   0.358   3.400
73698SOL    HW122991   2.009   0.413   3.395
73698SOL    HW222992   2.067   0.284   3.343
73699SOL     OW22993   4.887  14.262  14.841
73699SOL    HW122994   4.876  14.191  14.778
73699SOL    HW222995   4.864  14.342  14.793
73700SOL     OW22996   4.823  12.516   8.911
73700SOL    HW122997   4.880  12.446   8.880
73700SOL    HW222998   4.758  12.473   8.967
73701SOL     OW22999   0.852   8.759   1.379
73701SOL    HW123000   0.811   8.807   1.307
73701SOL    HW223001   0.789   8.691   1.401
73702SOL     OW23002   4.869  10.004   8.333
73702SOL    HW123003   4.886   9.942   8.262
73702SOL    HW223004   4.878  10.090   8.292
73703SOL     OW23005   3.338  10.223   6.405
73703SOL    HW123006   3.272  10.289   6.384
73703SOL    HW223007   3.417  10.274   6.426
73704SOL     OW23008   9.238   6.365  14.829
73704SOL    HW123009   9.232   6.295  14.764
73704SOL    HW223010   9.328   6.396  14.824
73705SOL     OW23011  12.199  12.789   2.033
73705SOL    HW123012  12.160  12.759   2.115
73705SOL    HW223013  12.252  12.865   2.057
73706SOL     OW23014   7.461   3.116   3.466
73706SOL    HW123015   7.489   3.039   3.515
73706SOL    HW223016   7.534   3.135   3.408
73707SOL     OW23017  10.219   0.729   1.471
73707SOL    HW123018  10.220   0.689   1.558
73707SOL    HW223019  10.309   0.721   1.440
73708SOL     OW23020   8.409   6.120  10.947
73708SOL    HW123021   8.478   6.186  10.947
73708SOL    HW223022   8.453   6.038  10.925
73709SOL     OW23023   4.193  13.723   0.620
73709SOL    HW123024   4.253  13.650   0.602
73709SOL    HW223025   4.156  13.745   0.534
73710SOL     OW23026   5.015   5.230   2.218
73710SOL    HW123027   5.024   5.185   2.302
73710SOL    HW223028   4.925   5.261   2.217
73711SOL     OW23029   7.348   4.853  13.270
73711SOL    HW123030   7.402   4.830  13.346
73711SOL    HW223031   7.259   4.826  13.294
73712SOL     OW23032   6.679   4.536   8.574
73712SOL    HW123033   6.772   4.556   8.566
73712SOL    HW223034   6.646   4.599   8.638
73713SOL     OW23035  13.796  10.881   6.176
73713SOL    HW123036  13.861  10.938   6.216
73713SOL    HW223037  13.845  10.828   6.114
73714SOL     OW23038   5.854   2.101  10.866
73714SOL    HW123039   5.831   2.011  10.888
73714SOL    HW223040   5.830   2.151  10.945
73715SOL     OW23041  12.308  10.019  13.200
73715SOL    HW123042  12.304   9.971  13.283
73715SOL    HW223043  12.282  10.108  13.222
73716SOL     OW23044   9.243  14.870   6.233
73716SOL    HW123045   9.221   0.065   6.291
73716SOL    HW223046   9.254  14.795   6.291
73717SOL     OW23047   9.107   9.326   6.807
73717SOL    HW123048   9.047   9.377   6.753
73717SOL    HW223049   9.184   9.313   6.752
73718SOL     OW23050   9.953   4.698   7.484
73718SOL    HW123051   9.996   4.647   7.416
73718SOL    HW223052  10.024   4.727   7.541
73719SOL     OW23053   8.040   6.437   3.460
73719SOL    HW123054   8.077   6.353   3.433
73719SOL    HW223055   8.092   6.462   3.537
73720SOL     OW23056   9.519   0.009   2.444
73720SOL    HW123057   9.486   0.076   2.504
73720SOL    HW223058   9.592   0.051   2.399
73721SOL     OW23059   1.166   8.888  13.983
73721SOL    HW123060   1.202   8.818  13.929
73721SOL    HW223061   1.106   8.843  14.043
73722SOL     OW23062  10.770   6.495  11.259
73722SOL    HW123063  10.821   6.448  11.325
73722SOL    HW223064  10.831   6.507  11.186
73723SOL     OW23065  11.007   3.265   7.437
73723SOL    HW123066  11.069   3.332   7.409
73723SOL    HW223067  10.966   3.302   7.515
73724SOL     OW23068   5.055   2.811   7.322
73724SOL    HW123069   5.121   2.865   7.279
73724SOL    HW223070   5.080   2.812   7.414
73725SOL     OW23071   3.841  13.114   8.547
73725SOL    HW123072   3.851  13.131   8.641
73725SOL    HW223073   3.888  13.186   8.505
73726SOL     OW23074   3.040   1.618   9.864
73726SOL    HW123075   2.984   1.663   9.928
73726SOL    HW223076   3.115   1.677   9.852
73727SOL     OW23077   2.532  10.825  13.964
73727SOL    HW123078   2.624  10.803  13.972
73727SOL    HW223079   2.500  10.832  14.054
73728SOL     OW23080  12.434  10.216   2.266
73728SOL    HW123081  12.471  10.135   2.299
73728SOL    HW223082  12.476  10.229   2.181
73729SOL     OW23083   3.184  14.315   0.454
73729SOL    HW123084   3.097  14.351   0.473
73729SOL    HW223085   3.238  14.392   0.434
73730SOL     OW23086   7.459   7.423   0.274
73730SOL    HW123087   7.417   7.370   0.342
73730SOL    HW223088   7.407   7.406   0.195
73731SOL     OW23089  12.384   2.933   2.083
73731SOL    HW123090  12.437   2.876   2.027
73731SOL    HW223091  12.428   2.931   2.168
73732SOL     OW23092  14.298  10.844   2.381
73732SOL    HW123093  14.316  10.922   2.432
73732SOL    HW223094  14.266  10.779   2.444
73733SOL     OW23095   5.664   0.154   0.974
73733SOL    HW123096   5.706   0.076   1.010
73733SOL    HW223097   5.714   0.227   1.010
73734SOL     OW23098  10.104   6.870  11.337
73734SOL    HW123099  10.080   6.958  11.307
73734SOL    HW223100  10.056   6.811  11.279
73735SOL     OW23101  14.789  13.570   4.086
73735SOL    HW123102  14.868  13.579   4.140
73735SOL    HW223103  14.755  13.659   4.079
73736SOL     OW23104   3.771  13.171  13.755
73736SOL    HW123105   3.772  13.079  13.726
73736SOL    HW223106   3.711  13.172  13.830
73737SOL     OW23107   7.630   8.823  14.691
73737SOL    HW123108   7.684   8.764  14.743
73737SOL    HW223109   7.600   8.890  14.753
73738SOL     OW23110  13.283   7.586  11.550
73738SOL    HW123111  13.284   7.492  11.536
73738SOL    HW223112  13.231   7.620  11.477
73739SOL     OW23113   1.352   4.529   1.172
73739SOL    HW123114   1.439   4.495   1.195
73739SOL    HW223115   1.332   4.488   1.088
73740SOL     OW23116  14.439   6.173   1.979
73740SOL    HW123117  14.398   6.155   1.895
73740SOL    HW223118  14.420   6.095   2.032
73741SOL     OW23119   5.636  10.518   7.641
73741SOL    HW123120   5.673  10.449   7.697
73741SOL    HW223121   5.661  10.492   7.552
73742SOL     OW23122  11.508   2.913   2.407
73742SOL    HW123123  11.597   2.944   2.421
73742SOL    HW223124  11.517   2.818   2.397
73743SOL     OW23125  11.830  12.469   2.509
73743SOL    HW123126  11.872  12.520   2.440
73743SOL    HW223127  11.855  12.514   2.590
73744SOL     OW23128  12.608   3.793   9.291
73744SOL    HW123129  12.650   3.776   9.207
73744SOL    HW223130  12.546   3.864   9.273
73745SOL     OW23131   0.257   5.538   9.753
73745SOL    HW123132   0.347   5.555   9.782
73745SOL    HW223133   0.250   5.442   9.755
73746SOL     OW23134  14.704   9.910   2.634
73746SOL    HW123135  14.774   9.868   2.684
73746SOL    HW223136  14.624   9.866   2.663
73747SOL     OW23137  10.462   6.673   6.061
73747SOL    HW123138  10.467   6.666   6.157
73747SOL    HW223139  10.446   6.583   6.032
73748SOL     OW23140   3.938   8.163   1.167
73748SOL    HW123141   3.892   8.244   1.146
73748SOL    HW223142   3.907   8.139   1.254
73749SOL     OW23143  13.412   2.339   0.115
73749SOL    HW123144  13.377   2.311   0.030
73749SOL    HW223145  13.503   2.362   0.097
73750SOL     OW23146   9.499  12.350  11.478
73750SOL    HW123147   9.560  12.324  11.546
73750SOL    HW223148   9.554  12.376  11.404
73751SOL     OW23149   1.738   7.673  12.945
73751SOL    HW123150   1.793   7.618  12.890
73751SOL    HW223151   1.797   7.707  13.012
73752SOL     OW23152  11.985   2.118  10.552
73752SOL    HW123153  11.965   2.210  10.569
73752SOL    HW223154  11.925   2.069  10.608
73753SOL     OW23155  12.389  12.545   7.951
73753SOL    HW123156  12.470  12.502   7.922
73753SOL    HW223157  12.365  12.499   8.032
73754SOL     OW23158   8.756   9.584   0.701
73754SOL    HW123159   8.826   9.571   0.765
73754SOL    HW223160   8.700   9.507   0.711
73755SOL     OW23161   7.993  10.685  12.534
73755SOL    HW123162   8.066  10.623  12.545
73755SOL    HW223163   7.940  10.647  12.464
73756SOL     OW23164  12.022   4.059   8.383
73756SOL    HW123165  11.926   4.061   8.385
73756SOL    HW223166  12.045   4.009   8.461
73757SOL     OW23167  14.814   9.994   6.732
73757SOL    HW123168  14.784   9.979   6.642
73757SOL    HW223169  14.823   9.906   6.769
73758SOL     OW23170   7.878   1.365   6.718
73758SOL    HW123171   7.937   1.406   6.782
73758SOL    HW223172   7.895   1.271   6.726
73759SOL     OW23173   6.808   5.954   2.655
73759SOL    HW123174   6.797   5.942   2.560
73759SOL    HW223175   6.903   5.951   2.668
73760SOL     OW23176   1.988   7.890  10.320
73760SOL    HW123177   2.024   7.853  10.239
73760SOL    HW223178   1.994   7.985  10.308
73761SOL     OW23179  10.261   7.957   5.356
73761SOL    HW123180  10.252   7.862   5.362
73761SOL    HW223181  10.308   7.982   5.436
73762SOL     OW23182  11.484  11.709   3.552
73762SOL    HW123183  11.536  11.644   3.504
73762SOL    HW223184  11.461  11.665   3.634
73763SOL     OW23185   4.562  14.789  12.866
73763SOL    HW123186   4.633  14.748  12.816
73763SOL    HW223187   4.486  14.734  12.847
73764SOL     OW23188  14.512   1.975   4.030
73764SOL    HW123189  14.566   2.021   3.966
73764SOL    HW223190  14.568   1.966   4.107
73765SOL     OW23191   3.944  14.376   2.208
73765SOL    HW123192   3.891  14.454   2.221
73765SOL    HW223193   3.970  14.378   2.116
73766SOL     OW23194  10.230   0.089   9.602
73766SOL    HW123195  10.157   0.077   9.540
73766SOL    HW223196  10.191   0.135   9.676
73767SOL     OW23197   8.046   5.791  13.575
73767SOL    HW123198   8.139   5.792  13.596
73767SOL    HW223199   8.003   5.805  13.659
73768SOL     OW23200   8.069  14.712  11.343
73768SOL    HW123201   8.140  14.653  11.316
73768SOL    HW223202   8.105  14.800  11.330
73769SOL     OW23203  13.859  10.305   4.429
73769SOL    HW123204  13.779  10.270   4.390
73769SOL    HW223205  13.903  10.229   4.467
73770SOL     OW23206   6.323  14.466   0.618
73770SOL    HW123207   6.254  14.485   0.554
73770SOL    HW223208   6.402  14.503   0.579
73771SOL     OW23209  13.758   2.897  12.394
73771SOL    HW123210  13.728   2.948  12.469
73771SOL    HW223211  13.794   2.817  12.431
73772SOL     OW23212  10.665   4.805   3.128
73772SOL    HW123213  10.710   4.721   3.114
73772SOL    HW223214  10.666   4.847   3.042
73773SOL     OW23215   5.607   2.898  11.092
73773SOL    HW123216   5.609   2.987  11.128
73773SOL    HW223217   5.681   2.854  11.133
73774SOL     OW23218  11.162   6.895   8.671
73774SOL    HW123219  11.144   6.822   8.612
73774SOL    HW223220  11.241   6.936   8.636
73775SOL     OW23221  13.938   2.304   6.956
73775SOL    HW123222  13.870   2.237   6.947
73775SOL    HW223223  13.902   2.381   6.911
73776SOL     OW23224   8.450  11.198  14.302
73776SOL    HW123225   8.372  11.160  14.341
73776SOL    HW223226   8.522  11.144  14.334
73777SOL     OW23227  11.788   0.473  14.421
73777SOL    HW123228  11.715   0.521  14.461
73777SOL    HW223229  11.803   0.519  14.338
73778SOL     OW23230  12.569   8.304   9.569
73778SOL    HW123231  12.558   8.308   9.474
73778SOL    HW223232  12.654   8.262   9.582
73779SOL     OW23233  10.604  11.814   8.599
73779SOL    HW123234  10.518  11.806   8.641
73779SOL    HW223235  10.584  11.821   8.505
73780SOL     OW23236   7.715   0.216   0.672
73780SOL    HW123237   7.750   0.285   0.615
73780SOL    HW223238   7.699   0.260   0.756
73781SOL     OW23239   9.872   7.718   2.616
73781SOL    HW123240   9.777   7.727   2.615
73781SOL    HW223241   9.905   7.807   2.601
73782SOL     OW23242   8.392  14.270   7.300
73782SOL    HW123243   8.461  14.215   7.336
73782SOL    HW223244   8.331  14.210   7.258
73783SOL     OW23245   2.447   8.601   4.760
73783SOL    HW123246   2.496   8.619   4.679
73783SOL    HW223247   2.435   8.506   4.760
73784SOL     OW23248   8.651  14.138  12.883
73784SOL    HW123249   8.735  14.153  12.926
73784SOL    HW223250   8.659  14.183  12.798
73785SOL     OW23251   4.992   7.661   7.837
73785SOL    HW123252   5.017   7.625   7.752
73785SOL    HW223253   4.984   7.584   7.894
73786SOL     OW23254  13.222  14.874   2.076
73786SOL    HW123255  13.144  14.849   2.027
73786SOL    HW223256  13.190   0.020   2.163
73787SOL     OW23257   9.216   4.554   4.018
73787SOL    HW123258   9.284   4.602   4.066
73787SOL    HW223259   9.210   4.598   3.933
73788SOL     OW23260  10.417   5.292   6.404
73788SOL    HW123261  10.468   5.276   6.483
73788SOL    HW223262  10.326   5.289   6.433
73789SOL     OW23263   3.681   1.920   2.775
73789SOL    HW123264   3.765   1.899   2.734
73789SOL    HW223265   3.684   2.014   2.789
73790SOL     OW23266   6.645   5.622   6.755
73790SOL    HW123267   6.667   5.536   6.793
73790SOL    HW223268   6.559   5.642   6.791
73791SOL     OW23269   2.046   6.098   1.412
73791SOL    HW123270   2.039   6.087   1.317
73791SOL    HW223271   2.141   6.101   1.429
73792SOL     OW23272   0.731  10.618  14.181
73792SOL    HW123273   0.766  10.612  14.092
73792SOL    HW223274   0.741  10.710  14.205
73793SOL     OW23275   7.145   3.264  14.308
73793SOL    HW123276   7.219   3.313  14.271
73793SOL    HW223277   7.165   3.258  14.401
73794SOL     OW23278   4.506   4.597  12.301
73794SOL    HW123279   4.533   4.688  12.289
73794SOL    HW223280   4.571   4.560  12.361
73795SOL     OW23281   1.824   9.268  13.333
73795SOL    HW123282   1.764   9.194  13.326
73795SOL    HW223283   1.767   9.344  13.340
73796SOL     OW23284  14.313  14.827   8.968
73796SOL    HW123285  14.226  14.865   8.975
73796SOL    HW223286  14.372   0.017   9.000
73797SOL     OW23287  10.873   7.656  10.128
73797SOL    HW123288  10.790   7.612  10.110
73797SOL    HW223289  10.866   7.684  10.220
73798SOL     OW23290  11.122  13.207   2.002
73798SOL    HW123291  11.148  13.139   2.065
73798SOL    HW223292  11.186  13.276   2.013
73799SOL     OW23293   3.944   2.679   3.999
73799SOL    HW123294   3.922   2.683   3.906
73799SOL    HW223295   3.948   2.586   4.019
73800SOL     OW23296   0.089   5.111   7.785
73800SOL    HW123297   0.093   5.109   7.689
73800SOL    HW223298  14.873   5.110   7.804
73801SOL     OW23299   8.557  13.879   6.095
73801SOL    HW123300   8.485  13.819   6.078
73801SOL    HW223301   8.528  13.931   6.170
73802SOL     OW23302   5.934   8.286   1.477
73802SOL    HW123303   5.964   8.376   1.466
73802SOL    HW223304   5.862   8.278   1.413
73803SOL     OW23305  12.653  11.723   6.707
73803SOL    HW123306  12.702  11.642   6.721
73803SOL    HW223307  12.562  11.701   6.730
73804SOL     OW23308  10.709  13.552  13.454
73804SOL    HW123309  10.673  13.536  13.367
73804SOL    HW223310  10.743  13.467  13.483
73805SOL     OW23311  10.645   5.138   7.032
73805SOL    HW123312  10.733   5.119   7.065
73805SOL    HW223313  10.647   5.231   7.011
73806SOL     OW23314   3.056   8.005   5.788
73806SOL    HW123315   3.023   7.939   5.728
73806SOL    HW223316   3.025   7.978   5.874
73807SOL     OW23317   3.927  13.408  13.837
73807SOL    HW123318   3.914  13.375  13.926
73807SOL    HW223319   3.889  13.340  13.781
73808SOL     OW23320   6.449   4.613   4.298
73808SOL    HW123321   6.437   4.617   4.393
73808SOL    HW223322   6.367   4.648   4.262
73809SOL     OW23323  10.782   8.670   4.473
73809SOL    HW123324  10.700   8.651   4.517
73809SOL    HW223325  10.782   8.765   4.461
73810SOL     OW23326   9.459   8.547   8.929
73810SOL    HW123327   9.468   8.477   8.993
73810SOL    HW223328   9.471   8.628   8.979
73811SOL     OW23329  11.433  12.541   8.416
73811SOL    HW123330  11.347  12.506   8.395
73811SOL    HW223331  11.422  12.582   8.502
73812SOL     OW23332   9.870   7.660   8.052
73812SOL    HW123333   9.843   7.670   7.961
73812SOL    HW223334   9.887   7.567   8.062
73813SOL     OW23335   9.953  14.640   8.073
73813SOL    HW123336   9.986  14.697   8.004
73813SOL    HW223337   9.881  14.592   8.031
73814SOL     OW23338   2.876   6.013   3.297
73814SOL    HW123339   2.791   5.998   3.340
73814SOL    HW223340   2.889   5.935   3.243
73815SOL     OW23341  11.153   8.245   6.042
73815SOL    HW123342  11.153   8.335   6.075
73815SOL    HW223343  11.240   8.212   6.065
73816SOL     OW23344   1.542   7.876  14.634
73816SOL    HW123345   1.530   7.838  14.721
73816SOL    HW223346   1.531   7.803  14.574
73817SOL     OW23347  14.234  11.848   2.992
73817SOL    HW123348  14.174  11.816   2.924
73817SOL    HW223349  14.247  11.940   2.972
73818SOL     OW23350   6.499  10.211  12.363
73818SOL    HW123351   6.588  10.176  12.354
73818SOL    HW223352   6.452  10.178  12.286
73819SOL     OW23353   3.960   6.426   6.070
73819SOL    HW123354   3.950   6.421   6.165
73819SOL    HW223355   4.036   6.370   6.051
73820SOL     OW23356  11.909   9.525   8.529
73820SOL    HW123357  11.938   9.613   8.505
73820SOL    HW223358  11.815   9.533   8.541
73821SOL     OW23359  10.784   4.159   5.028
73821SOL    HW123360  10.713   4.135   4.969
73821SOL    HW223361  10.844   4.211   4.974
73822SOL     OW23362  11.707   3.427   3.511
73822SOL    HW123363  11.779   3.483   3.542
73822SOL    HW223364  11.642   3.430   3.581
73823SOL     OW23365   5.673   7.061  13.517
73823SOL    HW123366   5.663   7.030  13.607
73823SOL    HW223367   5.762   7.035  13.492
73824SOL     OW23368   9.306   1.679   0.710
73824SOL    HW123369   9.267   1.705   0.794
73824SOL    HW223370   9.238   1.626   0.668
73825SOL     OW23371  10.965  13.496   2.229
73825SOL    HW123372  10.902  13.541   2.286
73825SOL    HW223373  10.964  13.405   2.260
73826SOL     OW23374  10.071  11.466  12.063
73826SOL    HW123375   9.978  11.486  12.064
73826SOL    HW223376  10.106  11.515  11.988
73827SOL     OW23377  14.581   2.069   5.938
73827SOL    HW123378  14.582   2.161   5.962
73827SOL    HW223379  14.642   2.027   5.999
73828SOL     OW23380  12.218  12.750   7.390
73828SOL    HW123381  12.191  12.700   7.313
73828SOL    HW223382  12.282  12.694   7.435
73829SOL     OW23383  14.808  13.435  10.091
73829SOL    HW123384  14.771  13.506  10.143
73829SOL    HW223385  14.754  13.359  10.113
73830SOL     OW23386   2.015   5.605  12.837
73830SOL    HW123387   2.001   5.622  12.744
73830SOL    HW223388   2.038   5.690  12.874
73831SOL     OW23389  11.613   9.247   1.273
73831SOL    HW123390  11.699   9.210   1.254
73831SOL    HW223391  11.630   9.315   1.338
73832SOL     OW23392   1.188   6.977   2.544
73832SOL    HW123393   1.135   7.056   2.531
73832SOL    HW223394   1.278   7.009   2.547
73833SOL     OW23395   6.570   2.601  11.158
73833SOL    HW123396   6.644   2.651  11.194
73833SOL    HW223397   6.495   2.629  11.211
73834SOL     OW23398   7.997   6.383  13.462
73834SOL    HW123399   7.903   6.393  13.448
73834SOL    HW223400   8.007   6.295  13.499
73835SOL     OW23401   8.320  11.651   5.396
73835SOL    HW123402   8.344  11.559   5.404
73835SOL    HW223403   8.403  11.699   5.406
73836SOL     OW23404   6.752   5.461   4.909
73836SOL    HW123405   6.845   5.471   4.930
73836SOL    HW223406   6.743   5.491   4.819
73837SOL     OW23407  12.271   8.948  10.795
73837SOL    HW123408  12.265   8.999  10.714
73837SOL    HW223409  12.242   8.860  10.770
73838SOL     OW23410  11.710   9.147   7.018
73838SOL    HW123411  11.665   9.104   6.945
73838SOL    HW223412  11.639   9.185   7.070
73839SOL     OW23413   0.696   0.070   2.479
73839SOL    HW123414   0.681   0.117   2.561
73839SOL    HW223415   0.679  14.856   2.501
73840SOL     OW23416  10.822   6.297   7.809
73840SOL    HW123417  10.902   6.254   7.779
73840SOL    HW223418  10.784   6.337   7.731
73841SOL     OW23419  14.108   9.681   7.814
73841SOL    HW123420  14.135   9.742   7.883
73841SOL    HW223421  14.050   9.619   7.859
73842SOL     OW23422   3.070   7.752   0.296
73842SOL    HW123423   2.993   7.695   0.291
73842SOL    HW223424   3.036   7.839   0.272
73843SOL     OW23425   9.405  12.367   5.014
73843SOL    HW123426   9.497  12.342   5.019
73843SOL    HW223427   9.360  12.287   4.987
73844SOL     OW23428   1.172   5.363   7.277
73844SOL    HW123429   1.165   5.270   7.257
73844SOL    HW223430   1.112   5.376   7.351
73845SOL     OW23431  14.377  12.838   1.658
73845SOL    HW123432  14.418  12.922   1.677
73845SOL    HW223433  14.446  12.787   1.616
73846SOL     OW23434   7.350  10.229   7.583
73846SOL    HW123435   7.377  10.148   7.625
73846SOL    HW223436   7.408  10.237   7.507
73847SOL     OW23437   3.496   7.431  14.226
73847SOL    HW123438   3.450   7.512  14.250
73847SOL    HW223439   3.426   7.367  14.213
73848SOL     OW23440  10.930   0.302  13.704
73848SOL    HW123441  10.951   0.264  13.618
73848SOL    HW223442  10.988   0.258  13.765
73849SOL     OW23443   2.889  12.065   7.991
73849SOL    HW123444   2.812  12.097   8.037
73849SOL    HW223445   2.956  12.055   8.059
73850SOL     OW23446   9.619   5.557  10.784
73850SOL    HW123447   9.598   5.572  10.876
73850SOL    HW223448   9.708   5.522  10.785
73851SOL     OW23449   0.208  10.762  10.055
73851SOL    HW123450   0.240  10.811   9.979
73851SOL    HW223451   0.277  10.771  10.121
73852SOL     OW23452   4.697  13.573   9.487
73852SOL    HW123453   4.709  13.599   9.578
73852SOL    HW223454   4.607  13.540   9.483
73853SOL     OW23455   5.297   7.233   5.875
73853SOL    HW123456   5.389   7.246   5.850
73853SOL    HW223457   5.271   7.153   5.829
73854SOL     OW23458   2.352   6.673   8.444
73854SOL    HW123459   2.400   6.752   8.419
73854SOL    HW223460   2.261   6.701   8.449
73855SOL     OW23461   5.911  14.547   7.165
73855SOL    HW123462   5.972  14.603   7.117
73855SOL    HW223463   5.947  14.543   7.253
73856SOL     OW23464  11.914   7.433   2.062
73856SOL    HW123465  11.988   7.458   2.116
73856SOL    HW223466  11.897   7.341   2.084
73857SOL     OW23467  10.109   3.918   4.978
73857SOL    HW123468  10.134   3.885   4.892
73857SOL    HW223469  10.065   3.844   5.020
73858SOL     OW23470   7.689  13.462   3.543
73858SOL    HW123471   7.627  13.534   3.555
73858SOL    HW223472   7.687  13.444   3.449
73859SOL     OW23473   4.432  13.611   2.013
73859SOL    HW123474   4.515  13.568   1.992
73859SOL    HW223475   4.451  13.705   2.007
73860SOL     OW23476  13.030   4.335   0.091
73860SOL    HW123477  13.032   4.429   0.078
73860SOL    HW223478  13.058   4.298   0.007
73861SOL     OW23479  13.021   6.562   9.154
73861SOL    HW123480  12.950   6.574   9.091
73861SOL    HW223481  13.063   6.648   9.159
73862SOL     OW23482   6.260   2.026   1.643
73862SOL    HW123483   6.339   1.979   1.669
73862SOL    HW223484   6.204   2.024   1.721
73863SOL     OW23485   3.494   6.363   0.039
73863SOL    HW123486   3.437   6.368   0.116
73863SOL    HW223487   3.473   6.278   0.000
73864SOL     OW23488   1.925   5.467   4.406
73864SOL    HW123489   1.844   5.512   4.386
73864SOL    HW223490   1.934   5.401   4.337
73865SOL     OW23491   3.865   1.772   0.184
73865SOL    HW123492   3.851   1.865   0.203
73865SOL    HW223493   3.867   1.767   0.088
73866SOL     OW23494   4.015  13.248   0.909
73866SOL    HW123495   4.070  13.326   0.916
73866SOL    HW223496   3.968  13.259   0.827
73867SOL     OW23497  12.280  13.572   3.459
73867SOL    HW123498  12.319  13.554   3.544
73867SOL    HW223499  12.276  13.486   3.416
73868SOL     OW23500   8.270   5.340   6.358
73868SOL    HW123501   8.192   5.373   6.313
73868SOL    HW223502   8.270   5.246   6.340
73869SOL     OW23503  10.476  14.336  12.898
73869SOL    HW123504  10.519  14.394  12.960
73869SOL    HW223505  10.449  14.394  12.826
73870SOL     OW23506   9.379  10.025   5.237
73870SOL    HW123507   9.367  10.013   5.143
73870SOL    HW223508   9.357   9.941   5.276
73871SOL     OW23509   2.416  12.592  11.278
73871SOL    HW123510   2.338  12.593  11.334
73871SOL    HW223511   2.479  12.649  11.323
73872SOL     OW23512   8.366   4.991   8.901
73872SOL    HW123513   8.461   5.006   8.902
73872SOL    HW223514   8.332   5.056   8.840
73873SOL     OW23515   0.568  12.487  12.458
73873SOL    HW123516   0.489  12.447  12.422
73873SOL    HW223517   0.535  12.563  12.506
73874SOL     OW23518   6.977   4.627   2.806
73874SOL    HW123519   7.045   4.680   2.846
73874SOL    HW223520   6.902   4.635   2.865
73875SOL     OW23521  10.620   2.542   0.310
73875SOL    HW123522  10.654   2.630   0.326
73875SOL    HW223523  10.614   2.502   0.397
73876SOL     OW23524   4.240   4.793   5.885
73876SOL    HW123525   4.205   4.715   5.843
73876SOL    HW223526   4.266   4.850   5.813
73877SOL     OW23527   6.514   1.890  13.720
73877SOL    HW123528   6.448   1.855  13.781
73877SOL    HW223529   6.582   1.925  13.777
73878SOL     OW23530   5.435  11.056  11.165
73878SOL    HW123531   5.369  11.117  11.199
73878SOL    HW223532   5.511  11.068  11.222
73879SOL     OW23533   3.972   3.203   1.753
73879SOL    HW123534   3.988   3.263   1.680
73879SOL    HW223535   3.877   3.191   1.754
73880SOL     OW23536  10.520   3.601  14.563
73880SOL    HW123537  10.570   3.540  14.618
73880SOL    HW223538  10.518   3.559  14.477
73881SOL     OW23539   2.244   3.063  12.271
73881SOL    HW123540   2.336   3.037  12.278
73881SOL    HW223541   2.246   3.146  12.223
73882SOL     OW23542   9.734   9.035  13.353
73882SOL    HW123543   9.808   9.041  13.413
73882SOL    HW223544   9.767   9.069  13.270
73883SOL     OW23545   0.669   0.862   9.906
73883SOL    HW123546   0.666   0.867   9.811
73883SOL    HW223547   0.645   0.771   9.927
73884SOL     OW23548  12.029   1.143   9.076
73884SOL    HW123549  12.016   1.141   9.171
73884SOL    HW223550  12.078   1.225   9.061
73885SOL     OW23551   9.072   9.483   4.050
73885SOL    HW123552   9.143   9.419   4.050
73885SOL    HW223553   9.113   9.564   4.078
73886SOL     OW23554   6.905   5.139   6.978
73886SOL    HW123555   6.865   5.122   6.892
73886SOL    HW223556   6.842   5.103   7.041
73887SOL     OW23557   1.414   3.100   4.347
73887SOL    HW123558   1.323   3.123   4.362
73887SOL    HW223559   1.464   3.177   4.374
73888SOL     OW23560   5.764   9.731  13.421
73888SOL    HW123561   5.821   9.679  13.478
73888SOL    HW223562   5.746   9.674  13.346
73889SOL     OW23563   9.448   4.794   5.971
73889SOL    HW123564   9.375   4.849   5.944
73889SOL    HW223565   9.409   4.708   5.988
73890SOL     OW23566  10.449   0.076   9.933
73890SOL    HW123567  10.504  14.877   9.953
73890SOL    HW223568  10.368   0.038   9.899
73891SOL     OW23569   6.484   4.112   0.133
73891SOL    HW123570   6.575   4.101   0.107
73891SOL    HW223571   6.434   4.070   0.063
73892SOL     OW23572  13.185   5.947   9.514
73892SOL    HW123573  13.276   5.937   9.543
73892SOL    HW223574  13.136   5.885   9.568
73893SOL     OW23575   1.920   2.988   3.510
73893SOL    HW123576   1.980   2.914   3.523
73893SOL    HW223577   1.834   2.948   3.499
73894SOL     OW23578  13.126   6.357  10.064
73894SOL    HW123579  13.066   6.426  10.093
73894SOL    HW223580  13.177   6.398   9.994
73895SOL     OW23581   9.585   6.972  10.414
73895SOL    HW123582   9.510   7.011  10.369
73895SOL    HW223583   9.646   7.044  10.427
73896SOL     OW23584   6.895  10.758   0.404
73896SOL    HW123585   6.873  10.851   0.411
73896SOL    HW223586   6.933  10.750   0.316
73897SOL     OW23587  10.233   1.316   6.708
73897SOL    HW123588  10.214   1.338   6.799
73897SOL    HW223589  10.329   1.321   6.701
73898SOL     OW23590   1.905   5.619  11.634
73898SOL    HW123591   1.917   5.707  11.670
73898SOL    HW223592   1.948   5.623  11.548
73899SOL     OW23593   5.683   2.290   8.674
73899SOL    HW123594   5.629   2.282   8.596
73899SOL    HW223595   5.773   2.291   8.642
73900SOL     OW23596  14.052  11.580   8.667
73900SOL    HW123597  14.007  11.589   8.583
73900SOL    HW223598  14.078  11.669   8.690
73901SOL     OW23599  11.379  13.568   1.295
73901SOL    HW123600  11.420  13.624   1.229
73901SOL    HW223601  11.362  13.485   1.250
73902SOL     OW23602   5.753   0.380   4.447
73902SOL    HW123603   5.685   0.415   4.390
73902SOL    HW223604   5.829   0.436   4.432
73903SOL     OW23605   0.062   2.458   1.199
73903SOL    HW123606   0.073   2.395   1.271
73903SOL    HW223607   0.141   2.449   1.147
73904SOL     OW23608   7.200   1.032   8.045
73904SOL    HW123609   7.154   1.113   8.070
73904SOL    HW223610   7.289   1.061   8.026
73905SOL     OW23611   2.788   9.479  13.966
73905SOL    HW123612   2.734   9.408  13.931
73905SOL    HW223613   2.867   9.478  13.911
73906SOL     OW23614   7.651  13.920   3.332
73906SOL    HW123615   7.609  13.961   3.407
73906SOL    HW223616   7.586  13.927   3.262
73907SOL     OW23617  14.359  12.344   9.463
73907SOL    HW123618  14.424  12.410   9.440
73907SOL    HW223619  14.388  12.265   9.417
73908SOL     OW23620   2.794   8.924   4.480
73908SOL    HW123621   2.799   9.011   4.520
73908SOL    HW223622   2.854   8.929   4.406
73909SOL     OW23623   1.976   8.812  11.601
73909SOL    HW123624   1.941   8.893  11.640
73909SOL    HW223625   2.049   8.788  11.659
73910SOL     OW23626  14.750   3.312  10.975
73910SOL    HW123627  14.835   3.357  10.974
73910SOL    HW223628  14.772   3.220  10.967
73911SOL     OW23629   2.577   6.898  13.232
73911SOL    HW123630   2.628   6.891  13.151
73911SOL    HW223631   2.515   6.825  13.228
73912SOL     OW23632  12.002   2.015   2.873
73912SOL    HW123633  12.007   2.051   2.962
73912SOL    HW223634  11.909   1.996   2.861
73913SOL     OW23635   1.489  13.213   8.067
73913SOL    HW123636   1.537  13.199   7.986
73913SOL    HW223637   1.412  13.157   8.059
73914SOL     OW23638   0.610   3.950  14.321
73914SOL    HW123639   0.535   3.917  14.273
73914SOL    HW223640   0.659   3.872  14.346
73915SOL     OW23641   3.610   2.015   7.604
73915SOL    HW123642   3.675   1.966   7.554
73915SOL    HW223643   3.643   2.105   7.605
73916SOL     OW23644   1.674   4.002   9.858
73916SOL    HW123645   1.643   4.078   9.809
73916SOL    HW223646   1.598   3.973   9.909
73917SOL     OW23647   0.033  14.203   6.047
73917SOL    HW123648   0.097  14.242   5.988
73917SOL    HW223649   0.048  14.109   6.038
73918SOL     OW23650   2.423   8.061   7.284
73918SOL    HW123651   2.378   8.112   7.216
73918SOL    HW223652   2.415   7.970   7.256
73919SOL     OW23653  13.597   4.899  13.118
73919SOL    HW123654  13.612   4.815  13.161
73919SOL    HW223655  13.519   4.884  13.064
73920SOL     OW23656  12.153   7.470   6.265
73920SOL    HW123657  12.237   7.444   6.228
73920SOL    HW223658  12.156   7.439   6.355
73921SOL     OW23659   3.648  12.267   9.097
73921SOL    HW123660   3.652  12.324   9.020
73921SOL    HW223661   3.685  12.184   9.067
73922SOL     OW23662   7.221   5.109  13.261
73922SOL    HW123663   7.299   5.151  13.225
73922SOL    HW223664   7.225   5.019  13.230
73923SOL     OW23665  10.322   1.223   2.979
73923SOL    HW123666  10.378   1.228   2.903
73923SOL    HW223667  10.373   1.264   3.049
73924SOL     OW23668   5.144  13.880   8.468
73924SOL    HW123669   5.179  13.950   8.414
73924SOL    HW223670   5.105  13.924   8.543
73925SOL     OW23671   4.048   6.169   0.950
73925SOL    HW123672   4.089   6.105   1.007
73925SOL    HW223673   3.992   6.221   1.008
73926SOL     OW23674   2.457   9.512  11.968
73926SOL    HW123675   2.546   9.485  11.949
73926SOL    HW223676   2.440   9.480  12.057
73927SOL     OW23677   5.620   7.449   4.875
73927SOL    HW123678   5.709   7.485   4.871
73927SOL    HW223679   5.563   7.521   4.850
73928SOL     OW23680   6.761  13.335   3.119
73928SOL    HW123681   6.782  13.333   3.026
73928SOL    HW223682   6.729  13.247   3.138
73929SOL     OW23683   6.069  13.301   1.245
73929SOL    HW123684   6.135  13.346   1.192
73929SOL    HW223685   6.071  13.210   1.216
73930SOL     OW23686   8.341   4.124   9.026
73930SOL    HW123687   8.387   4.041   9.039
73930SOL    HW223688   8.389   4.187   9.080
73931SOL     OW23689  13.188  12.881   4.015
73931SOL    HW123690  13.113  12.891   4.074
73931SOL    HW223691  13.239  12.810   4.054
73932SOL     OW23692   2.980  10.221   7.548
73932SOL    HW123693   2.989  10.155   7.480
73932SOL    HW223694   2.890  10.254   7.538
73933SOL     OW23695  13.949   1.265  10.757
73933SOL    HW123696  13.981   1.313  10.680
73933SOL    HW223697  13.853   1.272  10.752
73934SOL     OW23698   2.858   4.411   2.879
73934SOL    HW123699   2.884   4.352   2.950
73934SOL    HW223700   2.766   4.430   2.895
73935SOL     OW23701   6.000  10.499  12.102
73935SOL    HW123702   6.087  10.538  12.110
73935SOL    HW223703   5.985  10.489  12.008
73936SOL     OW23704   7.887   5.677  10.614
73936SOL    HW123705   7.970   5.642  10.581
73936SOL    HW223706   7.858   5.739  10.546
73937SOL     OW23707   8.467  10.131  14.128
73937SOL    HW123708   8.558  10.153  14.148
73937SOL    HW223709   8.450  10.052  14.179
73938SOL     OW23710   9.217   5.038  14.857
73938SOL    HW123711   9.309   5.031  14.832
73938SOL    HW223712   9.189   5.122  14.820
73939SOL     OW23713  10.274  13.076   6.115
73939SOL    HW123714  10.310  13.000   6.069
73939SOL    HW223715  10.196  13.099   6.065
73940SOL     OW23716   0.241   9.625   6.801
73940SOL    HW123717   0.219   9.693   6.736
73940SOL    HW223718   0.262   9.548   6.749
73941SOL     OW23719   1.087  11.362   4.329
73941SOL    HW123720   1.088  11.404   4.415
73941SOL    HW223721   1.007  11.311   4.328
73942SOL     OW23722   2.822   4.301   6.375
73942SOL    HW123723   2.824   4.348   6.292
73942SOL    HW223724   2.864   4.217   6.356
73943SOL     OW23725  10.367   0.993   2.051
73943SOL    HW123726  10.407   0.909   2.076
73943SOL    HW223727  10.431   1.059   2.079
73944SOL     OW23728  13.250   0.612   3.945
73944SOL    HW123729  13.218   0.643   3.860
73944SOL    HW223730  13.317   0.547   3.923
73945SOL     OW23731  14.536   0.020   9.527
73945SOL    HW123732  14.481   0.008   9.449
73945SOL    HW223733  14.600  14.827   9.521
73946SOL     OW23734   2.068   4.117   6.987
73946SOL    HW123735   1.984   4.140   7.028
73946SOL    HW223736   2.072   4.022   6.994
73947SOL     OW23737  12.318  12.890   5.055
73947SOL    HW123738  12.368  12.874   5.135
73947SOL    HW223739  12.269  12.971   5.073
73948SOL     OW23740   3.807  14.077   0.109
73948SOL    HW123741   3.715  14.104   0.112
73948SOL    HW223742   3.818  14.023   0.187
73949SOL     OW23743  10.591  10.966  11.107
73949SOL    HW123744  10.530  10.938  11.039
73949SOL    HW223745  10.648  10.890  11.121
73950SOL     OW23746  13.399  13.868  12.909
73950SOL    HW123747  13.347  13.809  12.963
73950SOL    HW223748  13.383  13.955  12.945
73951SOL     OW23749  13.448   2.821  10.629
73951SOL    HW123750  13.504   2.781  10.563
73951SOL    HW223751  13.381   2.755  10.647
73952SOL     OW23752   0.634   5.483   2.847
73952SOL    HW123753   0.619   5.397   2.807
73952SOL    HW223754   0.547   5.520   2.859
73953SOL     OW23755   6.899   4.663   1.842
73953SOL    HW123756   6.949   4.734   1.881
73953SOL    HW223757   6.823   4.653   1.900
73954SOL     OW23758   2.645  10.108  10.317
73954SOL    HW123759   2.594  10.056  10.255
73954SOL    HW223760   2.673  10.045  10.384
73955SOL     OW23761  11.848  12.157   1.047
73955SOL    HW123762  11.934  12.199   1.051
73955SOL    HW223763  11.861  12.082   0.989
73956SOL     OW23764   7.708   1.264   1.860
73956SOL    HW123765   7.644   1.279   1.790
73956SOL    HW223766   7.792   1.266   1.815
73957SOL     OW23767  10.441   4.343  10.936
73957SOL    HW123768  10.441   4.350  10.841
73957SOL    HW223769  10.406   4.256  10.954
73958SOL     OW23770   7.265   6.582   7.737
73958SOL    HW123771   7.262   6.557   7.829
73958SOL    HW223772   7.282   6.501   7.690
73959SOL     OW23773   9.912   2.291   8.011
73959SOL    HW123774   9.925   2.244   8.093
73959SOL    HW223775   9.871   2.227   7.953
73960SOL     OW23776  12.126   9.717   0.485
73960SOL    HW123777  12.163   9.797   0.449
73960SOL    HW223778  12.144   9.721   0.579
73961SOL     OW23779   6.813   8.282  10.591
73961SOL    HW123780   6.729   8.312  10.626
73961SOL    HW223781   6.790   8.209  10.533
73962SOL     OW23782   9.918  11.452  12.856
73962SOL    HW123783   9.955  11.376  12.812
73962SOL    HW223784   9.827  11.455  12.828
73963SOL     OW23785   0.538   0.309   4.521
73963SOL    HW123786   0.462   0.345   4.476
73963SOL    HW223787   0.610   0.319   4.458
73964SOL     OW23788   8.266  13.034   0.487
73964SOL    HW123789   8.278  13.069   0.575
73964SOL    HW223790   8.311  12.949   0.489
73965SOL     OW23791   9.214   4.426  14.283
73965SOL    HW123792   9.199   4.374  14.362
73965SOL    HW223793   9.134   4.416  14.232
73966SOL     OW23794   2.351   2.418  14.492
73966SOL    HW123795   2.296   2.430  14.569
73966SOL    HW223796   2.290   2.398  14.421
73967SOL     OW23797   1.322   7.168   6.266
73967SOL    HW123798   1.368   7.196   6.345
73967SOL    HW223799   1.265   7.096   6.296
73968SOL     OW23800   2.157   3.315  12.956
73968SOL    HW123801   2.165   3.241  13.017
73968SOL    HW223802   2.149   3.391  13.013
73969SOL     OW23803   9.481  12.514   2.567
73969SOL    HW123804   9.444  12.593   2.607
73969SOL    HW223805   9.520  12.466   2.640
73970SOL     OW23806   8.505  12.089  10.912
73970SOL    HW123807   8.410  12.086  10.906
73970SOL    HW223808   8.524  12.173  10.954
73971SOL     OW23809  12.114   5.124   2.426
73971SOL    HW123810  12.086   5.085   2.509
73971SOL    HW223811  12.072   5.209   2.424
73972SOL     OW23812  12.871  14.650   2.469
73972SOL    HW123813  12.920  14.730   2.490
73972SOL    HW223814  12.907  14.623   2.384
73973SOL     OW23815   3.705   4.927  11.570
73973SOL    HW123816   3.648   4.958  11.500
73973SOL    HW223817   3.778   4.885  11.523
73974SOL     OW23818  11.776   5.799   7.971
73974SOL    HW123819  11.693   5.790   7.925
73974SOL    HW223820  11.754   5.786   8.063
73975SOL     OW23821   1.487   9.705   6.591
73975SOL    HW123822   1.452   9.619   6.613
73975SOL    HW223823   1.421   9.744   6.534
73976SOL     OW23824   0.346   7.720   2.670
73976SOL    HW123825   0.374   7.724   2.762
73976SOL    HW223826   0.252   7.738   2.673
73977SOL     OW23827   2.553   1.263   5.246
73977SOL    HW123828   2.580   1.236   5.158
73977SOL    HW223829   2.495   1.193   5.275
73978SOL     OW23830  10.735   2.387   8.105
73978SOL    HW123831  10.798   2.318   8.126
73978SOL    HW223832  10.657   2.365   8.156
73979SOL     OW23833   7.083  13.331   3.023
73979SOL    HW123834   7.013  13.333   2.958
73979SOL    HW223835   7.114  13.240   3.022
73980SOL     OW23836  13.058   1.500  14.074
73980SOL    HW123837  13.132   1.539  14.027
73980SOL    HW223838  12.990   1.568  14.073
73981SOL     OW23839   7.590   8.964   4.024
73981SOL    HW123840   7.683   8.980   4.036
73981SOL    HW223841   7.586   8.903   3.950
73982SOL     OW23842   1.936  10.552  12.631
73982SOL    HW123843   1.866  10.488  12.623
73982SOL    HW223844   2.015  10.504  12.607
73983SOL     OW23845   3.680   2.814   2.810
73983SOL    HW123846   3.675   2.776   2.722
73983SOL    HW223847   3.716   2.744   2.864
73984SOL     OW23848  12.878   0.372  13.280
73984SOL    HW123849  12.920   0.293  13.247
73984SOL    HW223850  12.834   0.409  13.204
73985SOL     OW23851   4.982   4.307  12.224
73985SOL    HW123852   4.969   4.215  12.244
73985SOL    HW223853   4.940   4.320  12.139
73986SOL     OW23854  10.695   7.539  10.981
73986SOL    HW123855  10.627   7.496  10.930
73986SOL    HW223856  10.661   7.627  10.997
73987SOL     OW23857   2.919   8.706   6.315
73987SOL    HW123858   2.951   8.769   6.378
73987SOL    HW223859   2.825   8.699   6.333
73988SOL     OW23860   8.835  11.198   7.046
73988SOL    HW123861   8.847  11.117   7.095
73988SOL    HW223862   8.917  11.247   7.059
73989SOL     OW23863   7.955   8.765  14.426
73989SOL    HW123864   7.994   8.834  14.478
73989SOL    HW223865   7.891   8.809  14.371
73990SOL     OW23866   0.354  10.031   7.331
73990SOL    HW123867   0.279  10.079   7.367
73990SOL    HW223868   0.422  10.097   7.320
73991SOL     OW23869   9.197   7.295  12.853
73991SOL    HW123870   9.116   7.293  12.905
73991SOL    HW223871   9.170   7.333  12.769
73992SOL     OW23872   2.164  12.827   2.506
73992SOL    HW123873   2.250  12.856   2.476
73992SOL    HW223874   2.181  12.747   2.555
73993SOL     OW23875   6.180   9.143   2.558
73993SOL    HW123876   6.090   9.121   2.583
73993SOL    HW223877   6.234   9.086   2.613
73994SOL     OW23878   8.502  12.888  11.496
73994SOL    HW123879   8.509  12.973  11.453
73994SOL    HW223880   8.593  12.857  11.503
73995SOL     OW23881  13.826   5.737   8.132
73995SOL    HW123882  13.786   5.690   8.059
73995SOL    HW223883  13.796   5.827   8.122
73996SOL     OW23884   9.725   3.029   5.593
73996SOL    HW123885   9.744   2.939   5.567
73996SOL    HW223886   9.773   3.083   5.530
73997SOL     OW23887   2.804  14.555  12.617
73997SOL    HW123888   2.770  14.511  12.538
73997SOL    HW223889   2.791  14.648  12.599
73998SOL     OW23890   9.987  11.822  13.188
73998SOL    HW123891  10.024  11.748  13.140
73998SOL    HW223892   9.895  11.823  13.163
73999SOL     OW23893  10.389   0.082   5.133
73999SOL    HW123894  10.302   0.043   5.140
73999SOL    HW223895  10.420   0.090   5.223
74000SOL     OW23896   4.798   4.407  14.615
74000SOL    HW123897   4.722   4.408  14.558
74000SOL    HW223898   4.854   4.338  14.579
74001SOL     OW23899   1.204  10.049   6.210
74001SOL    HW123900   1.111  10.063   6.194
74001SOL    HW223901   1.212  10.050   6.305
74002SOL     OW23902   1.586   9.577   2.541
74002SOL    HW123903   1.613   9.659   2.499
74002SOL    HW223904   1.523   9.539   2.479
74003SOL     OW23905   0.365  10.120   1.776
74003SOL    HW123906   0.322  10.157   1.700
74003SOL    HW223907   0.436  10.181   1.795
74004SOL     OW23908   7.860  14.273  11.519
74004SOL    HW123909   7.879  14.240  11.607
74004SOL    HW223910   7.877  14.367  11.525
74005SOL     OW23911   8.501  13.742   1.688
74005SOL    HW123912   8.430  13.772   1.745
74005SOL    HW223913   8.481  13.781   1.602
74006SOL     OW23914  11.236   4.547   4.669
74006SOL    HW123915  11.250   4.627   4.618
74006SOL    HW223916  11.141   4.542   4.680
74007SOL     OW23917   9.944   2.443  14.426
74007SOL    HW123918   9.938   2.450  14.330
74007SOL    HW223919   9.961   2.532  14.456
74008SOL     OW23920   9.425  10.698   4.628
74008SOL    HW123921   9.355  10.638   4.603
74008SOL    HW223922   9.416  10.771   4.566
74009SOL     OW23923   4.271   8.503  10.260
74009SOL    HW123924   4.318   8.511  10.343
74009SOL    HW223925   4.334   8.531  10.194
74010SOL     OW23926   3.066   9.989   4.058
74010SOL    HW123927   3.079  10.038   4.139
74010SOL    HW223928   3.000  10.039   4.010
74011SOL     OW23929  10.998   5.224   6.626
74011SOL    HW123930  11.018   5.139   6.588
74011SOL    HW223931  11.084   5.264   6.642
74012SOL     OW23932  13.747  14.409   4.465
74012SOL    HW123933  13.793  14.469   4.407
74012SOL    HW223934  13.765  14.443   4.553
74013SOL     OW23935   9.849   2.473   3.310
74013SOL    HW123936   9.806   2.553   3.339
74013SOL    HW223937   9.805   2.450   3.228
74014SOL     OW23938   1.123  12.363   1.141
74014SOL    HW123939   1.069  12.340   1.217
74014SOL    HW223940   1.208  12.387   1.178
74015SOL     OW23941   8.185   8.436   1.645
74015SOL    HW123942   8.201   8.371   1.714
74015SOL    HW223943   8.136   8.506   1.689
74016SOL     OW23944  11.239   9.702  13.783
74016SOL    HW123945  11.186   9.712  13.862
74016SOL    HW223946  11.202   9.766  13.722
74017SOL     OW23947   9.158  14.047   7.662
74017SOL    HW123948   9.106  13.984   7.712
74017SOL    HW223949   9.163  14.124   7.719
74018SOL     OW23950  14.436   3.652   5.568
74018SOL    HW123951  14.349   3.621   5.594
74018SOL    HW223952  14.419   3.716   5.498
74019SOL     OW23953   0.049   8.221  10.685
74019SOL    HW123954   0.065   8.297  10.630
74019SOL    HW223955   0.102   8.235  10.763
74020SOL     OW23956  10.259   2.572   7.755
74020SOL    HW123957  10.320   2.506   7.720
74020SOL    HW223958  10.172   2.535   7.740
74021SOL     OW23959   7.224   5.784   2.025
74021SOL    HW123960   7.290   5.832   1.975
74021SOL    HW223961   7.150   5.775   1.964
74022SOL     OW23962   8.390   9.523   2.795
74022SOL    HW123963   8.331   9.449   2.783
74022SOL    HW223964   8.403   9.558   2.706
74023SOL     OW23965   1.899   7.186  11.306
74023SOL    HW123966   1.955   7.108  11.304
74023SOL    HW223967   1.824   7.163  11.252
74024SOL     OW23968  12.617  12.021  14.486
74024SOL    HW123969  12.581  11.933  14.479
74024SOL    HW223970  12.565  12.074  14.426
74025SOL     OW23971  10.124  11.627   7.716
74025SOL    HW123972  10.090  11.663   7.634
74025SOL    HW223973  10.170  11.547   7.690
74026SOL     OW23974   7.539  13.518  12.368
74026SOL    HW123975   7.455  13.530  12.325
74026SOL    HW223976   7.535  13.575  12.445
74027SOL     OW23977   2.902   7.394  10.774
74027SOL    HW123978   2.851   7.313  10.777
74027SOL    HW223979   2.954   7.387  10.694
74028SOL     OW23980   6.273   1.787   1.128
74028SOL    HW123981   6.243   1.697   1.142
74028SOL    HW223982   6.283   1.823   1.216
74029SOL     OW23983   0.302   0.829   2.086
74029SOL    HW123984   0.310   0.795   2.175
74029SOL    HW223985   0.373   0.788   2.038
74030SOL     OW23986   5.111   4.324   8.162
74030SOL    HW123987   5.175   4.254   8.177
74030SOL    HW223988   5.162   4.394   8.120
74031SOL     OW23989   3.835   2.793  10.278
74031SOL    HW123990   3.809   2.744  10.356
74031SOL    HW223991   3.774   2.765  10.210
74032SOL     OW23992  11.814  12.740  11.678
74032SOL    HW123993  11.777  12.823  11.650
74032SOL    HW223994  11.879  12.764  11.744
74033SOL     OW23995   0.620  11.251  14.717
74033SOL    HW123996   0.541  11.290  14.681
74033SOL    HW223997   0.656  11.198  14.646
74034SOL     OW23998   4.959   9.705   8.515
74034SOL    HW123999   4.900   9.767   8.558
74034SOL    HW224000   5.039   9.709   8.567
74035SOL     OW24001  10.080   0.557   7.799
74035SOL    HW124002  10.058   0.649   7.784
74035SOL    HW224003  10.070   0.545   7.893
74036SOL     OW24004   4.473   4.332   5.092
74036SOL    HW124005   4.524   4.412   5.109
74036SOL    HW224006   4.415   4.355   5.020
74037SOL     OW24007   4.477   9.024  13.210
74037SOL    HW124008   4.426   8.969  13.269
74037SOL    HW224009   4.548   8.968  13.181
74038SOL     OW24010   7.157   8.649   0.093
74038SOL    HW124011   7.072   8.606   0.084
74038SOL    HW224012   7.221   8.581   0.076
74039SOL     OW24013   8.315  14.170   7.625
74039SOL    HW124014   8.301  14.126   7.541
74039SOL    HW224015   8.335  14.098   7.686
74040SOL     OW24016   7.802   4.047   6.721
74040SOL    HW124017   7.729   3.985   6.715
74040SOL    HW224018   7.765   4.121   6.769
74041SOL     OW24019   6.539   7.096   0.477
74041SOL    HW124020   6.584   7.088   0.393
74041SOL    HW224021   6.609   7.092   0.543
74042SOL     OW24022   9.620   6.240   4.495
74042SOL    HW124023   9.530   6.270   4.483
74042SOL    HW224024   9.672   6.294   4.435
74043SOL     OW24025  12.461  10.953  10.396
74043SOL    HW124026  12.509  10.932  10.476
74043SOL    HW224027  12.379  10.904  10.404
74044SOL     OW24028   8.291   3.314   3.942
74044SOL    HW124029   8.324   3.293   4.030
74044SOL    HW224030   8.340   3.257   3.883
74045SOL     OW24031  12.402  14.376  12.501
74045SOL    HW124032  12.403  14.292  12.455
74045SOL    HW224033  12.386  14.441  12.432
74046SOL     OW24034   4.074   4.104   0.758
74046SOL    HW124035   4.167   4.128   0.760
74046SOL    HW224036   4.065   4.038   0.827
74047SOL     OW24037  12.568  13.395   1.757
74047SOL    HW124038  12.567  13.316   1.811
74047SOL    HW224039  12.482  13.398   1.716
74048SOL     OW24040   1.271   4.858  11.961
74048SOL    HW124041   1.186   4.822  11.935
74048SOL    HW224042   1.281   4.937  11.907
74049SOL     OW24043   2.857  11.253  12.726
74049SOL    HW124044   2.912  11.329  12.703
74049SOL    HW224045   2.770  11.276  12.693
74050SOL     OW24046   0.225  13.409   4.234
74050SOL    HW124047   0.247  13.482   4.292
74050SOL    HW224048   0.280  13.422   4.157
74051SOL     OW24049  11.685  11.517   8.496
74051SOL    HW124050  11.618  11.530   8.564
74051SOL    HW224051  11.651  11.565   8.420
74052SOL     OW24052   3.771   7.522  11.835
74052SOL    HW124053   3.690   7.491  11.795
74052SOL    HW224054   3.780   7.471  11.916
74053SOL     OW24055  14.488   3.512   2.400
74053SOL    HW124056  14.540   3.538   2.477
74053SOL    HW224057  14.547   3.458   2.348
74054SOL     OW24058   9.636  13.195  10.447
74054SOL    HW124059   9.666  13.286  10.442
74054SOL    HW224060   9.703  13.151  10.499
74055SOL     OW24061   8.533   2.594   9.302
74055SOL    HW124062   8.618   2.609   9.262
74055SOL    HW224063   8.480   2.557   9.231
74056SOL     OW24064   4.989   7.101   6.088
74056SOL    HW124065   4.907   7.146   6.067
74056SOL    HW224066   5.053   7.172   6.098
74057SOL     OW24067   9.495   6.940   0.273
74057SOL    HW124068   9.534   6.906   0.353
74057SOL    HW224069   9.553   6.910   0.203
74058SOL     OW24070   2.864   2.136   1.204
74058SOL    HW124071   2.854   2.127   1.109
74058SOL    HW224072   2.916   2.215   1.215
74059SOL     OW24073   7.923  14.584   3.537
74059SOL    HW124074   8.005  14.624   3.567
74059SOL    HW224075   7.897  14.527   3.609
74060SOL     OW24076  11.429   9.238   7.617
74060SOL    HW124077  11.435   9.244   7.522
74060SOL    HW224078  11.493   9.302   7.649
74061SOL     OW24079  12.350   0.684  12.579
74061SOL    HW124080  12.418   0.655  12.639
74061SOL    HW224081  12.274   0.700  12.636
74062SOL     OW24082   2.260  11.884   7.377
74062SOL    HW124083   2.336  11.915   7.329
74062SOL    HW224084   2.216  11.963   7.408
74063SOL     OW24085  12.916   1.323  12.805
74063SOL    HW124086  12.968   1.335  12.884
74063SOL    HW224087  12.832   1.290  12.837
74064SOL     OW24088   7.517  13.222   1.181
74064SOL    HW124089   7.534  13.265   1.265
74064SOL    HW224090   7.545  13.285   1.115
74065SOL     OW24091   7.711   1.974   9.445
74065SOL    HW124092   7.668   2.042   9.497
74065SOL    HW224093   7.804   1.985   9.464
74066SOL     OW24094   6.782   4.161   4.836
74066SOL    HW124095   6.770   4.237   4.893
74066SOL    HW224096   6.707   4.105   4.856
74067SOL     OW24097   8.146  13.137   2.814
74067SOL    HW124098   8.177  13.083   2.887
74067SOL    HW224099   8.092  13.078   2.762
74068SOL     OW24100   0.235   4.461   6.662
74068SOL    HW124101   0.169   4.529   6.648
74068SOL    HW224102   0.192   4.381   6.633
74069SOL     OW24103  11.335  10.244   6.620
74069SOL    HW124104  11.387  10.322   6.598
74069SOL    HW224105  11.302  10.214   6.536
74070SOL     OW24106  13.812   0.088   2.316
74070SOL    HW124107  13.743   0.119   2.257
74070SOL    HW224108  13.867   0.165   2.333
74071SOL     OW24109   3.330   0.165   9.733
74071SOL    HW124110   3.413   0.182   9.687
74071SOL    HW224111   3.339   0.211   9.816
74072SOL     OW24112   6.228   7.419   6.885
74072SOL    HW124113   6.156   7.361   6.861
74072SOL    HW224114   6.218   7.432   6.980
74073SOL     OW24115  13.804  12.688   5.327
74073SOL    HW124116  13.731  12.740   5.294
74073SOL    HW224117  13.805  12.610   5.272
74074SOL     OW24118   1.197  14.764  13.970
74074SOL    HW124119   1.256  14.823  13.924
74074SOL    HW224120   1.129  14.820  14.006
74075SOL     OW24121   6.727  11.564   3.055
74075SOL    HW124122   6.785  11.488   3.063
74075SOL    HW224123   6.691  11.556   2.967
74076SOL     OW24124   1.479  14.027   1.028
74076SOL    HW124125   1.453  14.048   1.118
74076SOL    HW224126   1.429  13.949   1.006
74077SOL     OW24127   2.112   8.004  14.334
74077SOL    HW124128   2.200   8.039  14.325
74077SOL    HW224129   2.110   7.929  14.274
74078SOL     OW24130   4.428   7.802   1.119
74078SOL    HW124131   4.507   7.793   1.065
74078SOL    HW224132   4.434   7.891   1.154
74079SOL     OW24133   0.842   1.149  14.179
74079SOL    HW124134   0.818   1.200  14.101
74079SOL    HW224135   0.783   1.073  14.177
74080SOL     OW24136  12.009   7.947   7.776
74080SOL    HW124137  11.995   7.966   7.868
74080SOL    HW224138  11.987   7.855   7.766
74081SOL     OW24139  14.221   9.328   9.843
74081SOL    HW124140  14.180   9.397   9.790
74081SOL    HW224141  14.186   9.247   9.807
74082SOL     OW24142   8.303  12.279   4.547
74082SOL    HW124143   8.365  12.352   4.549
74082SOL    HW224144   8.231  12.311   4.493
74083SOL     OW24145  12.976   6.429  10.914
74083SOL    HW124146  12.917   6.488  10.866
74083SOL    HW224147  13.048   6.413  10.853
74084SOL     OW24148  12.463   3.989  10.029
74084SOL    HW124149  12.496   3.909   9.989
74084SOL    HW224150  12.473   3.976  10.123
74085SOL     OW24151   1.521   6.308   8.989
74085SOL    HW124152   1.490   6.219   9.005
74085SOL    HW224153   1.561   6.335   9.072
74086SOL     OW24154  14.707  12.494   4.854
74086SOL    HW124155  14.756  12.575   4.841
74086SOL    HW224156  14.656  12.483   4.774
74087SOL     OW24157   0.490  10.468   1.324
74087SOL    HW124158   0.520  10.402   1.261
74087SOL    HW224159   0.507  10.429   1.409
74088SOL     OW24160   9.303   0.281   4.431
74088SOL    HW124161   9.382   0.269   4.483
74088SOL    HW224162   9.333   0.283   4.341
74089SOL     OW24163  10.032   4.691  10.041
74089SOL    HW124164  10.004   4.729   9.958
74089SOL    HW224165   9.950   4.669  10.086
74090SOL     OW24166  10.606   6.203   0.713
74090SOL    HW124167  10.579   6.272   0.652
74090SOL    HW224168  10.676   6.157   0.667
74091SOL     OW24169   4.341   4.203   2.323
74091SOL    HW124170   4.258   4.160   2.344
74091SOL    HW224171   4.390   4.204   2.405
74092SOL     OW24172   0.685   7.047  11.638
74092SOL    HW124173   0.762   7.063  11.692
74092SOL    HW224174   0.720   7.034  11.550
74093SOL     OW24175   1.399  10.420  11.738
74093SOL    HW124176   1.467  10.398  11.674
74093SOL    HW224177   1.321  10.437  11.685
74094SOL     OW24178   6.166   4.507  11.087
74094SOL    HW124179   6.122   4.434  11.131
74094SOL    HW224180   6.215   4.466  11.016
74095SOL     OW24181  14.648   2.548  10.204
74095SOL    HW124182  14.705   2.525  10.131
74095SOL    HW224183  14.632   2.465  10.249
74096SOL     OW24184  11.953  13.192  13.303
74096SOL    HW124185  11.987  13.155  13.384
74096SOL    HW224186  11.940  13.285  13.323
74097SOL     OW24187   8.806   1.534  12.846
74097SOL    HW124188   8.839   1.539  12.936
74097SOL    HW224189   8.828   1.618  12.808
74098SOL     OW24190   8.337  14.604   4.249
74098SOL    HW124191   8.267  14.555   4.292
74098SOL    HW224192   8.356  14.554   4.170
74099SOL     OW24193  14.559  10.845  12.093
74099SOL    HW124194  14.551  10.843  11.998
74099SOL    HW224195  14.628  10.910  12.110
74100SOL     OW24196  12.388   5.906  14.740
74100SOL    HW124197  12.329   5.853  14.686
74100SOL    HW224198  12.432   5.964  14.677
74101SOL     OW24199  10.943   3.989   7.435
74101SOL    HW124200  10.898   3.978   7.519
74101SOL    HW224201  10.883   4.043   7.383
74102SOL     OW24202  13.052  11.353   5.786
74102SOL    HW124203  13.098  11.323   5.864
74102SOL    HW224204  12.959  11.337   5.805
74103SOL     OW24205   5.000   0.693   3.847
74103SOL    HW124206   5.034   0.609   3.877
74103SOL    HW224207   4.971   0.677   3.757
74104SOL     OW24208   9.327  13.404  10.583
74104SOL    HW124209   9.262  13.467  10.554
74104SOL    HW224210   9.411  13.449  10.571
74105SOL     OW24211   5.841   0.591   8.823
74105SOL    HW124212   5.869   0.501   8.805
74105SOL    HW224213   5.749   0.594   8.797
74106SOL     OW24214  11.477   7.860   8.397
74106SOL    HW124215  11.491   7.802   8.472
74106SOL    HW224216  11.446   7.802   8.328
74107SOL     OW24217   2.049  13.604  12.432
74107SOL    HW124218   2.069  13.583  12.341
74107SOL    HW224219   1.981  13.541  12.457
74108SOL     OW24220  10.836   9.803   1.205
74108SOL    HW124221  10.758   9.858   1.198
74108SOL    HW224222  10.811   9.720   1.165
74109SOL     OW24223  12.946   8.914  13.029
74109SOL    HW124224  12.999   8.862  12.969
74109SOL    HW224225  12.892   8.968  12.972
74110SOL     OW24226   5.146   3.519  10.823
74110SOL    HW124227   5.165   3.569  10.744
74110SOL    HW224228   5.085   3.575  10.872
74111SOL     OW24229   5.581  12.399  11.897
74111SOL    HW124230   5.640  12.470  11.871
74111SOL    HW224231   5.584  12.399  11.993
74112SOL     OW24232   6.297  11.794   3.039
74112SOL    HW124233   6.257  11.881   3.043
74112SOL    HW224234   6.390  11.810   3.029
74113SOL     OW24235   6.029   9.113   6.475
74113SOL    HW124236   6.011   9.141   6.564
74113SOL    HW224237   6.045   9.019   6.482
74114SOL     OW24238   5.617   4.956  11.122
74114SOL    HW124239   5.596   4.907  11.201
74114SOL    HW224240   5.553   5.027  11.120
74115SOL     OW24241  13.553   5.546  14.208
74115SOL    HW124242  13.484   5.498  14.161
74115SOL    HW224243  13.518   5.559  14.296
74116SOL     OW24244   1.412   6.094   8.827
74116SOL    HW124245   1.399   6.000   8.818
74116SOL    HW224246   1.329   6.127   8.861
74117SOL     OW24247   3.830   8.694   1.187
74117SOL    HW124248   3.818   8.759   1.256
74117SOL    HW224249   3.789   8.732   1.110
74118SOL     OW24250  10.440  13.111  11.274
74118SOL    HW124251  10.481  13.167  11.208
74118SOL    HW224252  10.505  13.105  11.344
74119SOL     OW24253  13.388  10.443   7.467
74119SOL    HW124254  13.390  10.466   7.374
74119SOL    HW224255  13.480  10.432   7.490
74120SOL     OW24256   6.166   2.154   7.927
74120SOL    HW124257   6.103   2.110   7.984
74120SOL    HW224258   6.245   2.102   7.933
74121SOL     OW24259  11.879  13.155   6.577
74121SOL    HW124260  11.880  13.145   6.482
74121SOL    HW224261  11.791  13.188   6.597
74122SOL     OW24262  11.304   6.793   9.116
74122SOL    HW124263  11.284   6.797   9.209
74122SOL    HW224264  11.328   6.702   9.100
74123SOL     OW24265  14.512  14.524   5.214
74123SOL    HW124266  14.523  14.472   5.134
74123SOL    HW224267  14.593  14.508   5.264
74124SOL     OW24268   4.382  11.051  12.352
74124SOL    HW124269   4.464  11.093  12.382
74124SOL    HW224270   4.316  11.082  12.414
74125SOL     OW24271   7.867   3.145  11.692
74125SOL    HW124272   7.925   3.205  11.646
74125SOL    HW224273   7.836   3.194  11.768
74126SOL     OW24274   1.335   0.294   2.663
74126SOL    HW124275   1.428   0.292   2.686
74126SOL    HW224276   1.312   0.202   2.648
74127SOL     OW24277   8.570  10.872   6.768
74127SOL    HW124278   8.557  10.965   6.754
74127SOL    HW224279   8.558  10.833   6.682
74128SOL     OW24280   5.828   1.915   3.360
74128SOL    HW124281   5.747   1.938   3.313
74128SOL    HW224282   5.798   1.867   3.436
74129SOL     OW24283   7.665   5.140   0.380
74129SOL    HW124284   7.670   5.097   0.294
74129SOL    HW224285   7.736   5.204   0.380
74130SOL     OW24286   7.519   4.410   3.439
74130SOL    HW124287   7.516   4.348   3.367
74130SOL    HW224288   7.609   4.444   3.437
74131SOL     OW24289   5.006   9.510  10.278
74131SOL    HW124290   4.967   9.426  10.304
74131SOL    HW224291   5.100   9.495  10.282
74132SOL     OW24292   9.045  11.099   9.132
74132SOL    HW124293   9.013  11.029   9.189
74132SOL    HW224294   8.967  11.151   9.112
74133SOL     OW24295   8.805  11.831  14.600
74133SOL    HW124296   8.881  11.886  14.582
74133SOL    HW224297   8.786  11.789  14.516
74134SOL     OW24298   9.697   1.169  11.943
74134SOL    HW124299   9.671   1.146  12.033
74134SOL    HW224300   9.707   1.085  11.899
74135SOL     OW24301   9.596   7.312  12.495
74135SOL    HW124302   9.583   7.300  12.401
74135SOL    HW224303   9.517   7.273  12.535
74136SOL     OW24304   3.359   1.771  12.639
74136SOL    HW124305   3.274   1.800  12.672
74136SOL    HW224306   3.393   1.714  12.708
74137SOL     OW24307  14.333   5.018   5.154
74137SOL    HW124308  14.257   5.022   5.096
74137SOL    HW224309  14.395   4.961   5.107
74138SOL     OW24310  10.618   8.597   8.486
74138SOL    HW124311  10.633   8.541   8.410
74138SOL    HW224312  10.528   8.628   8.475
74139SOL     OW24313   0.057  12.598   7.294
74139SOL    HW124314   0.030  12.679   7.252
74139SOL    HW224315   0.092  12.625   7.379
74140SOL     OW24316  12.161   9.085   5.770
74140SOL    HW124317  12.067   9.096   5.786
74140SOL    HW224318  12.177   9.132   5.688
74141SOL     OW24319  14.500   9.486   2.278
74141SOL    HW124320  14.440   9.483   2.352
74141SOL    HW224321  14.517   9.579   2.264
74142SOL     OW24322   5.899  11.245   5.106
74142SOL    HW124323   5.914  11.311   5.173
74142SOL    HW224324   5.969  11.181   5.118
74143SOL     OW24325   6.312   6.665  13.319
74143SOL    HW124326   6.318   6.573  13.293
74143SOL    HW224327   6.265   6.663  13.402
74144SOL     OW24328   5.649   4.417   7.741
74144SOL    HW124329   5.592   4.387   7.812
74144SOL    HW224330   5.590   4.447   7.673
74145SOL     OW24331   0.188   7.296  10.307
74145SOL    HW124332   0.268   7.246  10.299
74145SOL    HW224333   0.216   7.381  10.341
74146SOL     OW24334   2.229  10.498   9.895
74146SOL    HW124335   2.178  10.421   9.918
74146SOL    HW224336   2.313  10.485   9.940
74147SOL     OW24337  13.900   0.844  14.280
74147SOL    HW124338  13.873   0.778  14.216
74147SOL    HW224339  13.958   0.902  14.232
74148SOL     OW24340   5.105  10.658   7.749
74148SOL    HW124341   5.120  10.598   7.676
74148SOL    HW224342   5.150  10.616   7.823
74149SOL     OW24343   0.376  11.599   6.109
74149SOL    HW124344   0.324  11.666   6.153
74149SOL    HW224345   0.384  11.529   6.173
74150SOL     OW24346   2.664   9.948   9.266
74150SOL    HW124347   2.671  10.044   9.264
74150SOL    HW224348   2.634   9.925   9.178
74151SOL     OW24349   0.460   5.974   6.772
74151SOL    HW124350   0.458   5.997   6.865
74151SOL    HW224351   0.373   5.937   6.755
74152SOL     OW24352   4.877   2.860   4.362
74152SOL    HW124353   4.837   2.947   4.362
74152SOL    HW224354   4.865   2.829   4.272
74153SOL     OW24355  12.399   5.279  14.208
74153SOL    HW124356  12.408   5.215  14.137
74153SOL    HW224357  12.379   5.227  14.285
74154SOL     OW24358  13.543  10.273  12.917
74154SOL    HW124359  13.452  10.303  12.921
74154SOL    HW224360  13.571  10.291  12.828
74155SOL     OW24361   5.625   1.747   2.671
74155SOL    HW124362   5.684   1.817   2.642
74155SOL    HW224363   5.538   1.784   2.659
74156SOL     OW24364  13.908   9.201   2.363
74156SOL    HW124365  13.931   9.176   2.452
74156SOL    HW224366  13.879   9.119   2.322
74157SOL     OW24367   5.907  12.522  13.167
74157SOL    HW124368   5.852  12.475  13.230
74157SOL    HW224369   5.976  12.561  13.220
74158SOL     OW24370   1.098   1.868   5.457
74158SOL    HW124371   1.151   1.794   5.426
74158SOL    HW224372   1.143   1.945   5.423
74159SOL     OW24373   5.365   4.209  14.135
74159SOL    HW124374   5.373   4.293  14.180
74159SOL    HW224375   5.433   4.155  14.173
74160SOL     OW24376   8.627   9.654   9.867
74160SOL    HW124377   8.544   9.664   9.820
74160SOL    HW224378   8.694   9.660   9.799
74161SOL     OW24379   6.557  13.145   9.048
74161SOL    HW124380   6.516  13.192   9.120
74161SOL    HW224381   6.586  13.214   8.988
74162SOL     OW24382   7.294   3.658   3.658
74162SOL    HW124383   7.311   3.752   3.652
74162SOL    HW224384   7.379   3.620   3.681
74163SOL     OW24385   5.625   7.229   4.017
74163SOL    HW124386   5.679   7.150   4.009
74163SOL    HW224387   5.535   7.198   4.004
74164SOL     OW24388   7.071   4.334   3.911
74164SOL    HW124389   7.039   4.266   3.851
74164SOL    HW224390   7.149   4.368   3.869
74165SOL     OW24391   1.993  12.329   8.935
74165SOL    HW124392   2.088  12.327   8.930
74165SOL    HW224393   1.974  12.365   9.022
74166SOL     OW24394   9.049   4.298  12.758
74166SOL    HW124395   9.108   4.344  12.698
74166SOL    HW224396   8.985   4.256  12.700
74167SOL     OW24397   1.863   6.017   3.613
74167SOL    HW124398   1.953   6.027   3.646
74167SOL    HW224399   1.843   6.101   3.571
74168SOL     OW24400   0.277   2.690  13.568
74168SOL    HW124401   0.248   2.746  13.639
74168SOL    HW224402   0.333   2.746  13.515
74169SOL     OW24403   2.484   0.052   9.748
74169SOL    HW124404   2.437   0.082   9.826
74169SOL    HW224405   2.558   0.002   9.783
74170SOL     OW24406  13.753   0.512  12.946
74170SOL    HW124407  13.710   0.444  12.999
74170SOL    HW224408  13.787   0.464  12.870
74171SOL     OW24409   1.868   1.481  10.489
74171SOL    HW124410   1.945   1.427  10.506
74171SOL    HW224411   1.795   1.429  10.521
74172SOL     OW24412   3.062   9.720   0.875
74172SOL    HW124413   3.120   9.748   0.804
74172SOL    HW224414   3.120   9.710   0.950
74173SOL     OW24415   8.930  14.416  14.827
74173SOL    HW124416   8.905  14.359  14.754
74173SOL    HW224417   8.955  14.355   0.019
74174SOL     OW24418   9.773   7.134   0.885
74174SOL    HW124419   9.680   7.114   0.887
74174SOL    HW224420   9.812   7.065   0.831
74175SOL     OW24421  12.989   7.230  10.586
74175SOL    HW124422  12.949   7.315  10.569
74175SOL    HW224423  13.076   7.235  10.546
74176SOL     OW24424   5.455   2.427   7.651
74176SOL    HW124425   5.517   2.381   7.595
74176SOL    HW224426   5.411   2.489   7.593
74177SOL     OW24427   8.448   5.543   6.429
74177SOL    HW124428   8.397   5.578   6.356
74177SOL    HW224429   8.447   5.448   6.415
74178SOL     OW24430   7.263   6.191   1.452
74178SOL    HW124431   7.297   6.281   1.455
74178SOL    HW224432   7.234   6.174   1.542
74179SOL     OW24433   7.653   5.110  13.742
74179SOL    HW124434   7.602   5.056  13.683
74179SOL    HW224435   7.647   5.066  13.827
74180SOL     OW24436   3.186   8.975  10.585
74180SOL    HW124437   3.267   8.961  10.634
74180SOL    HW224438   3.117   8.942  10.643
74181SOL     OW24439   5.405   6.594   1.764
74181SOL    HW124440   5.469   6.640   1.817
74181SOL    HW224441   5.380   6.656   1.696
74182SOL     OW24442   4.077   4.405   0.782
74182SOL    HW124443   3.987   4.372   0.784
74182SOL    HW224444   4.128   4.337   0.827
74183SOL     OW24445   9.730   0.068   3.980
74183SOL    HW124446   9.810   0.078   3.928
74183SOL    HW224447   9.701   0.157   3.997
74184SOL     OW24448   0.843   5.337  12.002
74184SOL    HW124449   0.867   5.292  12.083
74184SOL    HW224450   0.890   5.289  11.934
74185SOL     OW24451  12.797   9.256   0.003
74185SOL    HW124452  12.762   9.281  14.795
74185SOL    HW224453  12.890   9.238  14.864
74186SOL     OW24454   7.817   1.651  13.797
74186SOL    HW124455   7.866   1.568  13.796
74186SOL    HW224456   7.767   1.650  13.716
74187SOL     OW24457   8.128   3.960  12.488
74187SOL    HW124458   8.191   3.953  12.417
74187SOL    HW224459   8.043   3.945  12.447
74188SOL     OW24460   5.304  14.075   3.266
74188SOL    HW124461   5.302  14.123   3.183
74188SOL    HW224462   5.237  14.007   3.255
74189SOL     OW24463   1.478  13.649   3.115
74189SOL    HW124464   1.496  13.582   3.049
74189SOL    HW224465   1.395  13.688   3.088
74190SOL     OW24466  11.494   8.228  14.684
74190SOL    HW124467  11.547   8.168  14.737
74190SOL    HW224468  11.417   8.245  14.738
74191SOL     OW24469  14.152   4.053   8.933
74191SOL    HW124470  14.080   4.114   8.948
74191SOL    HW224471  14.202   4.091   8.861
74192SOL     OW24472  10.088  11.932   7.156
74192SOL    HW124473  10.158  11.877   7.122
74192SOL    HW224474  10.029  11.872   7.200
74193SOL     OW24475  14.137   9.104  11.116
74193SOL    HW124476  14.075   9.175  11.133
74193SOL    HW224477  14.204   9.113  11.184
74194SOL     OW24478   4.545   2.303  14.106
74194SOL    HW124479   4.617   2.240  14.097
74194SOL    HW224480   4.569   2.356  14.182
74195SOL     OW24481  12.062   2.502  14.592
74195SOL    HW124482  11.989   2.546  14.635
74195SOL    HW224483  12.121   2.573  14.567
74196SOL     OW24484   8.165   3.540  14.014
74196SOL    HW124485   8.257   3.556  13.991
74196SOL    HW224486   8.163   3.447  14.037
74197SOL     OW24487   2.110   7.533   3.422
74197SOL    HW124488   2.094   7.439   3.426
74197SOL    HW224489   2.154   7.546   3.338
74198SOL     OW24490  14.704   7.906   2.957
74198SOL    HW124491  14.623   7.957   2.947
74198SOL    HW224492  14.759   7.935   2.884
74199SOL     OW24493   6.457   9.433   0.470
74199SOL    HW124494   6.442   9.343   0.499
74199SOL    HW224495   6.461   9.427   0.375
74200SOL     OW24496  12.315   2.924   7.743
74200SOL    HW124497  12.359   2.882   7.670
74200SOL    HW224498  12.298   2.853   7.805
74201SOL     OW24499  10.072  13.306   1.066
74201SOL    HW124500  10.138  13.368   1.036
74201SOL    HW224501   9.995  13.360   1.083
74202SOL     OW24502   8.535  14.799   3.094
74202SOL    HW124503   8.492   0.007   3.096
74202SOL    HW224504   8.518  14.761   3.180
74203SOL     OW24505   2.462  10.250   5.230
74203SOL    HW124506   2.417  10.313   5.174
74203SOL    HW224507   2.464  10.169   5.178
74204SOL     OW24508  10.644   7.312   2.006
74204SOL    HW124509  10.576   7.306   1.938
74204SOL    HW224510  10.689   7.228   2.000
74205SOL     OW24511   2.186   4.672   6.392
74205SOL    HW124512   2.195   4.600   6.454
74205SOL    HW224513   2.249   4.738   6.423
74206SOL     OW24514   0.118   7.726   7.960
74206SOL    HW124515   0.126   7.713   8.054
74206SOL    HW224516   0.114   7.821   7.948
74207SOL     OW24517  11.540   0.035   9.603
74207SOL    HW124518  11.547   0.113   9.658
74207SOL    HW224519  11.504   0.067   9.521
74208SOL     OW24520   6.606  12.451   7.949
74208SOL    HW124521   6.622  12.389   7.878
74208SOL    HW224522   6.638  12.535   7.915
74209SOL     OW24523   4.053   4.118  14.209
74209SOL    HW124524   4.129   4.164  14.245
74209SOL    HW224525   4.039   4.045  14.270
74210SOL     OW24526   3.038   1.524   7.624
74210SOL    HW124527   3.121   1.478   7.637
74210SOL    HW224528   3.030   1.580   7.701
74211SOL     OW24529   6.548  13.589   0.547
74211SOL    HW124530   6.605  13.580   0.470
74211SOL    HW224531   6.523  13.681   0.547
74212SOL     OW24532   8.396   9.497   2.111
74212SOL    HW124533   8.308   9.507   2.147
74212SOL    HW224534   8.454   9.502   2.187
74213SOL     OW24535   1.535   3.654   7.917
74213SOL    HW124536   1.607   3.709   7.947
74213SOL    HW224537   1.514   3.600   7.993
74214SOL     OW24538   9.196   6.276  11.255
74214SOL    HW124539   9.101   6.287  11.253
74214SOL    HW224540   9.210   6.184  11.279
74215SOL     OW24541   9.125  14.874  11.578
74215SOL    HW124542   9.079  14.790  11.568
74215SOL    HW224543   9.067   0.049  11.632
74216SOL     OW24544  14.348   6.551   0.331
74216SOL    HW124545  14.365   6.548   0.425
74216SOL    HW224546  14.258   6.581   0.324
74217SOL     OW24547   5.438   8.729   7.269
74217SOL    HW124548   5.451   8.683   7.352
74217SOL    HW224549   5.463   8.819   7.287
74218SOL     OW24550  12.926  14.539   1.163
74218SOL    HW124551  12.878  14.561   1.083
74218SOL    HW224552  12.995  14.479   1.134
74219SOL     OW24553   0.545   3.529   6.120
74219SOL    HW124554   0.571   3.513   6.210
74219SOL    HW224555   0.459   3.486   6.112
74220SOL     OW24556   2.496   8.043  10.889
74220SOL    HW124557   2.514   8.090  10.808
74220SOL    HW224558   2.561   8.076  10.952
74221SOL     OW24559   0.268   5.864   3.775
74221SOL    HW124560   0.318   5.923   3.718
74221SOL    HW224561   0.221   5.922   3.834
74222SOL     OW24562   7.690   3.746   9.687
74222SOL    HW124563   7.628   3.674   9.697
74222SOL    HW224564   7.776   3.704   9.696
74223SOL     OW24565   5.961  14.629   4.318
74223SOL    HW124566   5.899  14.637   4.391
74223SOL    HW224567   5.973  14.719   4.288
74224SOL     OW24568  13.769  11.000   3.717
74224SOL    HW124569  13.761  10.965   3.805
74224SOL    HW224570  13.763  11.095   3.728
74225SOL     OW24571   5.738   0.140   0.410
74225SOL    HW124572   5.648   0.144   0.442
74225SOL    HW224573   5.750   0.049   0.382
74226SOL     OW24574  14.743   5.831   7.827
74226SOL    HW124575  14.805   5.878   7.771
74226SOL    HW224576  14.746   5.877   7.910
74227SOL     OW24577   0.763   3.028   0.724
74227SOL    HW124578   0.717   3.083   0.661
74227SOL    HW224579   0.736   2.939   0.703
74228SOL     OW24580  11.184   0.043   8.384
74228SOL    HW124581  11.182   0.020   8.291
74228SOL    HW224582  11.161  14.840   8.429
74229SOL     OW24583   9.070   9.274   9.086
74229SOL    HW124584   8.992   9.227   9.057
74229SOL    HW224585   9.121   9.288   9.007
74230SOL     OW24586   4.817   6.338   2.316
74230SOL    HW124587   4.857   6.295   2.240
74230SOL    HW224588   4.774   6.267   2.364
74231SOL     OW24589  11.378  13.995   4.870
74231SOL    HW124590  11.359  13.994   4.964
74231SOL    HW224591  11.296  14.023   4.830
74232SOL     OW24592   6.412   9.082  10.906
74232SOL    HW124593   6.444   9.171  10.918
74232SOL    HW224594   6.467   9.045  10.836
74233SOL     OW24595  10.287   0.422   5.807
74233SOL    HW124596  10.351   0.448   5.740
74233SOL    HW224597  10.295   0.489   5.875
74234SOL     OW24598   4.711   3.983   7.630
74234SOL    HW124599   4.706   3.889   7.651
74234SOL    HW224600   4.629   4.019   7.664
74235SOL     OW24601   2.954  12.555   9.527
74235SOL    HW124602   2.862  12.537   9.508
74235SOL    HW224603   2.998  12.548   9.441
74236SOL     OW24604   9.001  13.165   6.648
74236SOL    HW124605   8.957  13.248   6.668
74236SOL    HW224606   8.932  13.111   6.610
74237SOL     OW24607   8.243   3.562  10.156
74237SOL    HW124608   8.232   3.624  10.084
74237SOL    HW224609   8.153   3.538  10.181
74238SOL     OW24610  12.524  12.137   1.491
74238SOL    HW124611  12.454  12.145   1.427
74238SOL    HW224612  12.513  12.050   1.530
74239SOL     OW24613   4.059   9.316   6.451
74239SOL    HW124614   4.091   9.226   6.440
74239SOL    HW224615   4.111   9.367   6.388
74240SOL     OW24616  10.098  13.101   9.730
74240SOL    HW124617  10.188  13.072   9.746
74240SOL    HW224618  10.101  13.196   9.745
74241SOL     OW24619   6.922   4.591   6.115
74241SOL    HW124620   6.973   4.670   6.096
74241SOL    HW224621   6.964   4.523   6.063
74242SOL     OW24622   6.370   2.827   7.686
74242SOL    HW124623   6.298   2.818   7.624
74242SOL    HW224624   6.357   2.755   7.749
74243SOL     OW24625  10.903   6.268  11.731
74243SOL    HW124626  10.939   6.346  11.771
74243SOL    HW224627  10.954   6.196  11.768
74244SOL     OW24628   1.351   9.177   4.754
74244SOL    HW124629   1.438   9.216   4.763
74244SOL    HW224630   1.367   9.083   4.752
74245SOL     OW24631   3.660  12.577  10.317
74245SOL    HW124632   3.713  12.646  10.277
74245SOL    HW224633   3.723  12.513  10.348
74246SOL     OW24634   4.558  14.352   2.765
74246SOL    HW124635   4.512  14.434   2.783
74246SOL    HW224636   4.651  14.377   2.766
74247SOL     OW24637   3.375   4.201   3.025
74247SOL    HW124638   3.301   4.242   3.069
74247SOL    HW224639   3.357   4.107   3.032
74248SOL     OW24640   5.227   4.475  11.761
74248SOL    HW124641   5.284   4.459  11.836
74248SOL    HW224642   5.142   4.442  11.788
74249SOL     OW24643   7.544  10.568  10.883
74249SOL    HW124644   7.504  10.486  10.855
74249SOL    HW224645   7.635  10.544  10.903
74250SOL     OW24646   1.177  12.458   1.934
74250SOL    HW124647   1.206  12.539   1.975
74250SOL    HW224648   1.138  12.408   2.006
74251SOL     OW24649  10.360  12.709   0.044
74251SOL    HW124650  10.442  12.729   0.090
74251SOL    HW224651  10.320  12.794   0.028
74252SOL     OW24652   6.728   2.264  13.860
74252SOL    HW124653   6.727   2.249  13.955
74252SOL    HW224654   6.650   2.218  13.828
74253SOL     OW24655   7.171  11.199   7.149
74253SOL    HW124656   7.212  11.131   7.096
74253SOL    HW224657   7.156  11.272   7.089
74254SOL     OW24658  11.989   7.266   3.582
74254SOL    HW124659  11.995   7.304   3.669
74254SOL    HW224660  11.915   7.309   3.541
74255SOL     OW24661  10.216  13.926   7.098
74255SOL    HW124662  10.140  13.952   7.045
74255SOL    HW224663  10.183  13.858   7.156
74256SOL     OW24664   9.291  11.988   6.648
74256SOL    HW124665   9.253  11.944   6.572
74256SOL    HW224666   9.382  12.004   6.624
74257SOL     OW24667   5.929   3.799   4.528
74257SOL    HW124668   5.941   3.717   4.481
74257SOL    HW224669   5.930   3.866   4.460
74258SOL     OW24670   4.712   8.079   2.676
74258SOL    HW124671   4.617   8.091   2.680
74258SOL    HW224672   4.747   8.168   2.669
74259SOL     OW24673  14.179   6.645   7.806
74259SOL    HW124674  14.167   6.578   7.738
74259SOL    HW224675  14.113   6.624   7.872
74260SOL     OW24676   1.351  10.508  11.439
74260SOL    HW124677   1.439  10.470  11.441
74260SOL    HW224678   1.297  10.444  11.394
74261SOL     OW24679  14.033   5.314  14.038
74261SOL    HW124680  14.105   5.324  13.976
74261SOL    HW224681  14.023   5.220  14.050
74262SOL     OW24682  12.339   3.790  11.595
74262SOL    HW124683  12.244   3.804  11.585
74262SOL    HW224684  12.349   3.765  11.687
74263SOL     OW24685   1.886   2.487   9.610
74263SOL    HW124686   1.806   2.434   9.616
74263SOL    HW224687   1.952   2.426   9.577
74264SOL     OW24688  10.181   9.036   1.908
74264SOL    HW124689  10.166   9.005   1.997
74264SOL    HW224690  10.241   9.110   1.917
74265SOL     OW24691   6.421   8.360   9.921
74265SOL    HW124692   6.473   8.281   9.907
74265SOL    HW224693   6.354   8.334   9.984
74266SOL     OW24694   7.392  13.620  11.982
74266SOL    HW124695   7.385  13.682  12.054
74266SOL    HW224696   7.303  13.613  11.947
74267SOL     OW24697  13.511   8.729  13.553
74267SOL    HW124698  13.540   8.819  13.561
74267SOL    HW224699  13.587   8.682  13.519
74268SOL     OW24700   3.929   6.321   1.133
74268SOL    HW124701   3.909   6.375   1.057
74268SOL    HW224702   3.855   6.334   1.192
74269SOL     OW24703   4.015  11.139   1.736
74269SOL    HW124704   4.012  11.045   1.750
74269SOL    HW224705   4.090  11.169   1.788
74270SOL     OW24706   2.902   7.847  13.761
74270SOL    HW124707   2.900   7.892  13.676
74270SOL    HW224708   2.825   7.789  13.759
74271SOL     OW24709  11.142   0.607   7.834
74271SOL    HW124710  11.053   0.580   7.858
74271SOL    HW224711  11.138   0.619   7.739
74272SOL     OW24712  10.237  13.805  13.760
74272SOL    HW124713  10.204  13.716  13.759
74272SOL    HW224714  10.332  13.796  13.769
74273SOL     OW24715  11.737   3.189   0.991
74273SOL    HW124716  11.819   3.151   0.960
74273SOL    HW224717  11.669   3.141   0.944
74274SOL     OW24718   2.518   5.634   5.605
74274SOL    HW124719   2.540   5.722   5.637
74274SOL    HW224720   2.592   5.609   5.549
74275SOL     OW24721   5.175   0.950   0.934
74275SOL    HW124722   5.228   1.028   0.920
74275SOL    HW224723   5.085   0.984   0.943
74276SOL     OW24724   9.569   0.841  10.034
74276SOL    HW124725   9.657   0.846   9.998
74276SOL    HW224726   9.582   0.810  10.124
74277SOL     OW24727   8.823  10.591  13.070
74277SOL    HW124728   8.733  10.580  13.038
74277SOL    HW224729   8.822  10.676  13.113
74278SOL     OW24730  12.401   1.116  11.372
74278SOL    HW124731  12.430   1.119  11.464
74278SOL    HW224732  12.446   1.041  11.335
74279SOL     OW24733   1.483   6.084  11.307
74279SOL    HW124734   1.562   6.061  11.357
74279SOL    HW224735   1.513   6.150  11.244
74280SOL     OW24736   5.137  14.418  14.620
74280SOL    HW124737   5.105  14.380  14.538
74280SOL    HW224738   5.232  14.406  14.616
74281SOL     OW24739  13.787  11.613  13.530
74281SOL    HW124740  13.803  11.544  13.595
74281SOL    HW224741  13.775  11.565  13.448
74282SOL     OW24742   1.692   7.793  11.437
74282SOL    HW124743   1.654   7.752  11.515
74282SOL    HW224744   1.771   7.742  11.419
74283SOL     OW24745   4.109   1.504   1.133
74283SOL    HW124746   4.073   1.584   1.094
74283SOL    HW224747   4.045   1.436   1.112
74284SOL     OW24748   4.229   5.226  10.066
74284SOL    HW124749   4.267   5.229   9.978
74284SOL    HW224750   4.197   5.315  10.081
74285SOL     OW24751   1.847   8.372   7.900
74285SOL    HW124752   1.879   8.392   7.988
74285SOL    HW224753   1.803   8.287   7.909
74286SOL     OW24754  11.477   4.870  11.763
74286SOL    HW124755  11.470   4.835  11.674
74286SOL    HW224756  11.459   4.964  11.752
74287SOL     OW24757   8.924   7.111  11.518
74287SOL    HW124758   8.856   7.120  11.586
74287SOL    HW224759   8.889   7.159  11.443
74288SOL     OW24760   1.907   8.465   8.181
74288SOL    HW124761   1.826   8.470   8.232
74288SOL    HW224762   1.939   8.554   8.177
74289SOL     OW24763   7.647   1.042  13.716
74289SOL    HW124764   7.584   0.998  13.772
74289SOL    HW224765   7.619   1.020  13.627
74290SOL     OW24766   5.845   5.429   4.291
74290SOL    HW124767   5.900   5.498   4.326
74290SOL    HW224768   5.775   5.419   4.355
74291SOL     OW24769   1.985  14.675   2.327
74291SOL    HW124770   1.904  14.718   2.356
74291SOL    HW224771   2.050  14.746   2.324
74292SOL     OW24772   1.875  11.709   2.606
74292SOL    HW124773   1.878  11.617   2.579
74292SOL    HW224774   1.818  11.709   2.683
74293SOL     OW24775  12.166   5.243   8.886
74293SOL    HW124776  12.166   5.308   8.956
74293SOL    HW224777  12.154   5.294   8.806
74294SOL     OW24778   4.576   5.382   1.465
74294SOL    HW124779   4.514   5.409   1.533
74294SOL    HW224780   4.660   5.375   1.511
74295SOL     OW24781  12.851   2.746   5.651
74295SOL    HW124782  12.877   2.780   5.565
74295SOL    HW224783  12.790   2.675   5.632
74296SOL     OW24784   8.700   1.475   7.487
74296SOL    HW124785   8.688   1.522   7.405
74296SOL    HW224786   8.611   1.452   7.514
74297SOL     OW24787   3.459   3.462  10.033
74297SOL    HW124788   3.479   3.456  10.126
74297SOL    HW224789   3.375   3.507  10.029
74298SOL     OW24790  14.069  10.126   8.060
74298SOL    HW124791  14.126  10.120   8.138
74298SOL    HW224792  14.126  10.163   7.992
74299SOL     OW24793   9.381   1.336   5.506
74299SOL    HW124794   9.384   1.259   5.448
74299SOL    HW224795   9.381   1.299   5.594
74300SOL     OW24796   1.151  11.732   4.499
74300SOL    HW124797   1.132  11.820   4.533
74300SOL    HW224798   1.221  11.699   4.555
74301SOL     OW24799   4.599  10.771   1.809
74301SOL    HW124800   4.621  10.712   1.881
74301SOL    HW224801   4.669  10.836   1.810
74302SOL     OW24802  11.887  11.059   1.698
74302SOL    HW124803  11.962  11.036   1.644
74302SOL    HW224804  11.811  11.039   1.644
74303SOL     OW24805   1.296  12.914   0.030
74303SOL    HW124806   1.291  12.977  14.836
74303SOL    HW224807   1.206  12.881   0.040
74304SOL     OW24808   9.857   9.881  14.265
74304SOL    HW124809   9.858   9.862  14.358
74304SOL    HW224810   9.948   9.867  14.237
74305SOL     OW24811   8.484   5.441   1.097
74305SOL    HW124812   8.506   5.526   1.059
74305SOL    HW224813   8.511   5.377   1.031
74306SOL     OW24814   5.610   2.598   9.311
74306SOL    HW124815   5.517   2.604   9.332
74306SOL    HW224816   5.618   2.636   9.224
74307SOL     OW24817  12.932   2.351   5.005
74307SOL    HW124818  13.025   2.374   5.010
74307SOL    HW224819  12.932   2.264   4.964
74308SOL     OW24820   6.577   9.303   9.541
74308SOL    HW124821   6.658   9.302   9.490
74308SOL    HW224822   6.589   9.236   9.607
74309SOL     OW24823  12.463  14.225  13.127
74309SOL    HW124824  12.383  14.260  13.088
74309SOL    HW224825  12.503  14.173  13.058
74310SOL     OW24826   4.962  10.897   7.627
74310SOL    HW124827   4.994  10.892   7.537
74310SOL    HW224828   5.029  10.852   7.678
74311SOL     OW24829   5.641   1.144   2.778
74311SOL    HW124830   5.599   1.060   2.760
74311SOL    HW224831   5.648   1.186   2.692
74312SOL     OW24832   4.611  14.266  11.050
74312SOL    HW124833   4.564  14.183  11.039
74312SOL    HW224834   4.697  14.250  11.011
74313SOL     OW24835   0.611   6.152  13.069
74313SOL    HW124836   0.579   6.103  12.994
74313SOL    HW224837   0.706   6.155  13.058
74314SOL     OW24838   5.931   6.695  11.017
74314SOL    HW124839   5.860   6.684  11.081
74314SOL    HW224840   6.002   6.736  11.067
74315SOL     OW24841   9.324  14.459   4.167
74315SOL    HW124842   9.351  14.373   4.133
74315SOL    HW224843   9.319  14.447   4.262
74316SOL     OW24844  12.526  12.186   2.642
74316SOL    HW124845  12.592  12.166   2.707
74316SOL    HW224846  12.553  12.269   2.604
74317SOL     OW24847  11.988   3.169  13.016
74317SOL    HW124848  11.909   3.172  12.961
74317SOL    HW224849  12.053   3.220  12.967
74318SOL     OW24850  10.991   1.278   6.620
74318SOL    HW124851  11.000   1.294   6.714
74318SOL    HW224852  11.078   1.249   6.592
74319SOL     OW24853   1.823   5.518   7.017
74319SOL    HW124854   1.740   5.482   7.047
74319SOL    HW224855   1.811   5.613   7.021
74320SOL     OW24856   5.435   1.920   8.466
74320SOL    HW124857   5.458   1.985   8.400
74320SOL    HW224858   5.360   1.956   8.512
74321SOL     OW24859   6.117   9.406   9.833
74321SOL    HW124860   6.145   9.447   9.751
74321SOL    HW224861   6.027   9.436   9.846
74322SOL     OW24862  10.362   0.121   3.131
74322SOL    HW124863  10.300   0.189   3.157
74322SOL    HW224864  10.347   0.108   3.038
74323SOL     OW24865   4.507  11.204   4.257
74323SOL    HW124866   4.522  11.294   4.227
74323SOL    HW224867   4.505  11.211   4.353
74324SOL     OW24868  12.726   7.584  12.077
74324SOL    HW124869  12.668   7.576  12.002
74324SOL    HW224870  12.796   7.643  12.047
74325SOL     OW24871   0.804   7.283   8.128
74325SOL    HW124872   0.723   7.231   8.126
74325SOL    HW224873   0.873   7.218   8.140
74326SOL     OW24874   6.854   6.332   0.996
74326SOL    HW124875   6.797   6.275   0.944
74326SOL    HW224876   6.874   6.281   1.075
74327SOL     OW24877   4.720   6.938   5.733
74327SOL    HW124878   4.675   6.993   5.668
74327SOL    HW224879   4.766   6.872   5.681
74328SOL     OW24880  11.274   7.041   7.611
74328SOL    HW124881  11.295   7.114   7.552
74328SOL    HW224882  11.340   7.047   7.681
74329SOL     OW24883  11.272   6.682   4.922
74329SOL    HW124884  11.368   6.683   4.923
74329SOL    HW224885  11.246   6.773   4.912
74330SOL     OW24886   1.033   2.069   2.052
74330SOL    HW124887   0.980   2.134   2.098
74330SOL    HW224888   1.013   2.083   1.959
74331SOL     OW24889   8.541   8.976   4.350
74331SOL    HW124890   8.553   8.909   4.416
74331SOL    HW224891   8.623   8.976   4.300
74332SOL     OW24892   2.178   1.934   9.239
74332SOL    HW124893   2.180   2.018   9.193
74332SOL    HW224894   2.239   1.945   9.312
74333SOL     OW24895  12.236   5.184  13.217
74333SOL    HW124896  12.164   5.148  13.269
74333SOL    HW224897  12.193   5.236  13.149
74334SOL     OW24898  13.911   3.561  11.404
74334SOL    HW124899  13.889   3.541  11.313
74334SOL    HW224900  14.004   3.585  11.401
74335SOL     OW24901   3.664   8.816   5.333
74335SOL    HW124902   3.692   8.741   5.281
74335SOL    HW224903   3.584   8.787   5.376
74336SOL     OW24904  14.204   9.082  11.781
74336SOL    HW124905  14.112   9.063  11.797
74336SOL    HW224906  14.249   9.000  11.801
74337SOL     OW24907   5.373   3.812  10.943
74337SOL    HW124908   5.420   3.728  10.944
74337SOL    HW224909   5.346   3.824  11.034
74338SOL     OW24910  10.857  10.019   0.940
74338SOL    HW124911  10.782   9.983   0.987
74338SOL    HW224912  10.894   9.944   0.893
74339SOL     OW24913   3.735   5.444   0.964
74339SOL    HW124914   3.683   5.443   0.884
74339SOL    HW224915   3.710   5.525   1.009
74340SOL     OW24916  13.221   4.977   7.543
74340SOL    HW124917  13.202   5.033   7.618
74340SOL    HW224918  13.289   4.917   7.575
74341SOL     OW24919  14.698   5.549   3.857
74341SOL    HW124920  14.669   5.526   3.769
74341SOL    HW224921  14.785   5.587   3.845
74342SOL     OW24922  12.277   2.339   4.646
74342SOL    HW124923  12.351   2.280   4.661
74342SOL    HW224924  12.314   2.413   4.596
74343SOL     OW24925   8.310   2.643   0.297
74343SOL    HW124926   8.384   2.584   0.309
74343SOL    HW224927   8.345   2.729   0.318
74344SOL     OW24928  14.760   1.225  13.264
74344SOL    HW124929  14.800   1.145  13.231
74344SOL    HW224930  14.816   1.295  13.229
74345SOL     OW24931   3.609   9.152   0.303
74345SOL    HW124932   3.527   9.110   0.276
74345SOL    HW224933   3.601   9.242   0.271
74346SOL     OW24934   5.560   7.395   8.368
74346SOL    HW124935   5.567   7.346   8.450
74346SOL    HW224936   5.520   7.333   8.307
74347SOL     OW24937   2.588   7.951  13.024
74347SOL    HW124938   2.619   7.884  13.085
74347SOL    HW224939   2.511   7.989  13.067
74348SOL     OW24940   4.084   0.226   7.909
74348SOL    HW124941   4.122   0.252   7.993
74348SOL    HW224942   4.157   0.185   7.862
74349SOL     OW24943   0.758   9.586  10.187
74349SOL    HW124944   0.706   9.580  10.107
74349SOL    HW224945   0.794   9.498  10.198
74350SOL     OW24946   2.507  13.092  12.606
74350SOL    HW124947   2.425  13.132  12.637
74350SOL    HW224948   2.571  13.164  12.609
74351SOL     OW24949   4.195   0.235   7.482
74351SOL    HW124950   4.240   0.153   7.497
74351SOL    HW224951   4.185   0.240   7.387
74352SOL     OW24952   1.408   6.570  14.171
74352SOL    HW124953   1.480   6.507  14.164
74352SOL    HW224954   1.448   6.646  14.216
74353SOL     OW24955  10.630   0.870  13.900
74353SOL    HW124956  10.716   0.877  13.941
74353SOL    HW224957  10.615   0.955  13.859
74354SOL     OW24958   8.657  13.455   0.156
74354SOL    HW124959   8.644  13.387   0.090
74354SOL    HW224960   8.751  13.455   0.173
74355SOL     OW24961  11.523   6.426  14.849
74355SOL    HW124962  11.542   6.507  14.802
74355SOL    HW224963  11.602   6.409   0.022
74356SOL     OW24964   0.922  10.372  11.330
74356SOL    HW124965   0.947  10.295  11.280
74356SOL    HW224966   0.971  10.364  11.412
74357SOL     OW24967   4.600   4.153  10.959
74357SOL    HW124968   4.667   4.218  10.979
74357SOL    HW224969   4.642   4.069  10.976
74358SOL     OW24970   3.060   6.343   5.718
74358SOL    HW124971   3.110   6.290   5.780
74358SOL    HW224972   3.100   6.430   5.723
74359SOL     OW24973   8.432   2.868   0.413
74359SOL    HW124974   8.464   2.898   0.328
74359SOL    HW224975   8.416   2.949   0.462
74360SOL     OW24976   8.867   6.002   1.249
74360SOL    HW124977   8.962   6.009   1.235
74360SOL    HW224978   8.839   6.092   1.262
74361SOL     OW24979   9.313  14.813   1.217
74361SOL    HW124980   9.251   0.008   1.207
74361SOL    HW224981   9.352  14.802   1.131
74362SOL     OW24982   9.155   4.154   5.392
74362SOL    HW124983   9.060   4.154   5.399
74362SOL    HW224984   9.181   4.066   5.417
74363SOL     OW24985   3.890   3.909  12.239
74363SOL    HW124986   3.913   4.002  12.237
74363SOL    HW224987   3.913   3.877  12.151
74364SOL     OW24988   4.030   8.335   6.470
74364SOL    HW124989   3.955   8.389   6.443
74364SOL    HW224990   4.063   8.297   6.389
74365SOL     OW24991  10.619   0.128   1.465
74365SOL    HW124992  10.675   0.050   1.459
74365SOL    HW224993  10.545   0.100   1.518
74366SOL     OW24994  10.257   0.315  12.910
74366SOL    HW124995  10.184   0.366  12.874
74366SOL    HW224996  10.318   0.305  12.837
74367SOL     OW24997   1.007  12.024  13.134
74367SOL    HW124998   0.960  11.997  13.212
74367SOL    HW224999   1.004  12.120  13.136
74368SOL     OW25000   7.066   6.027  11.074
74368SOL    HW125001   6.992   6.075  11.112
74368SOL    HW225002   7.140   6.048  11.130
74369SOL     OW25003  10.285  13.145   0.480
74369SOL    HW125004  10.324  13.067   0.441
74369SOL    HW225005  10.343  13.216   0.454
74370SOL     OW25006   0.295  11.167  11.767
74370SOL    HW125007   0.369  11.148  11.709
74370SOL    HW225008   0.218  11.138  11.717
74371SOL     OW25009   7.258   5.570   0.961
74371SOL    HW125010   7.340   5.548   0.916
74371SOL    HW225011   7.202   5.494   0.946
74372SOL     OW25012   0.800   5.532  13.797
74372SOL    HW125013   0.736   5.576  13.740
74372SOL    HW225014   0.882   5.535  13.747
74373SOL     OW25015   4.565  10.444   9.304
74373SOL    HW125016   4.591  10.444   9.212
74373SOL    HW225017   4.571  10.352   9.330
74374SOL     OW25018   6.905   8.574   8.638
74374SOL    HW125019   6.884   8.486   8.608
74374SOL    HW225020   6.826   8.605   8.681
74375SOL     OW25021   7.862   1.591   5.546
74375SOL    HW125022   7.948   1.626   5.570
74375SOL    HW225023   7.867   1.498   5.569
74376SOL     OW25024   1.589  11.307   3.884
74376SOL    HW125025   1.589  11.367   3.958
74376SOL    HW225026   1.518  11.337   3.828
74377SOL     OW25027   6.398   6.475   9.732
74377SOL    HW125028   6.412   6.473   9.637
74377SOL    HW225029   6.395   6.383   9.757
74378SOL     OW25030  12.382   7.452   0.413
74378SOL    HW125031  12.299   7.452   0.364
74378SOL    HW225032  12.439   7.511   0.362
74379SOL     OW25033  14.844   3.447   4.490
74379SOL    HW125034  14.813   3.364   4.451
74379SOL    HW225035  14.789   3.514   4.448
74380SOL     OW25036   6.420  10.664  14.692
74380SOL    HW125037   6.505  10.692  14.725
74380SOL    HW225038   6.430  10.667  14.597
74381SOL     OW25039  12.471   9.816  13.844
74381SOL    HW125040  12.555   9.772  13.838
74381SOL    HW225041  12.440   9.797  13.932
74382SOL     OW25042  12.479   7.970   6.662
74382SOL    HW125043  12.395   8.008   6.635
74382SOL    HW225044  12.509   8.026   6.734
74383SOL     OW25045  10.166   1.962  11.071
74383SOL    HW125046  10.098   1.955  11.138
74383SOL    HW225047  10.122   2.003  10.996
74384SOL     OW25048   6.084  14.548   0.126
74384SOL    HW125049   6.123  14.632   0.148
74384SOL    HW225050   6.040  14.564   0.042
74385SOL     OW25051   3.275   8.066   2.513
74385SOL    HW125052   3.311   8.154   2.502
74385SOL    HW225053   3.314   8.015   2.442
74386SOL     OW25054   0.142   9.003   0.110
74386SOL    HW125055   0.156   9.061   0.035
74386SOL    HW225056   0.053   9.024   0.140
74387SOL     OW25057   9.279   3.060   2.111
74387SOL    HW125058   9.351   3.122   2.126
74387SOL    HW225059   9.309   3.007   2.037
74388SOL     OW25060  14.629  12.992  11.284
74388SOL    HW125061  14.622  12.983  11.189
74388SOL    HW225062  14.559  13.052  11.307
74389SOL     OW25063   9.634   3.926   6.530
74389SOL    HW125064   9.586   3.858   6.577
74389SOL    HW225065   9.610   3.914   6.438
74390SOL     OW25066   7.584   6.478   1.041
74390SOL    HW125067   7.606   6.419   0.969
74390SOL    HW225068   7.630   6.559   1.021
74391SOL     OW25069   8.461   0.628  11.464
74391SOL    HW125070   8.441   0.595  11.551
74391SOL    HW225071   8.556   0.636  11.462
74392SOL     OW25072  10.174   7.290  13.614
74392SOL    HW125073  10.225   7.225  13.661
74392SOL    HW225074  10.215   7.293  13.527
74393SOL     OW25075  12.242   8.545  10.453
74393SOL    HW125076  12.157   8.590  10.457
74393SOL    HW225077  12.220   8.452  10.457
74394SOL     OW25078   8.159   9.547   6.829
74394SOL    HW125079   8.216   9.499   6.888
74394SOL    HW225080   8.085   9.487   6.813
74395SOL     OW25081  13.991   4.084  10.728
74395SOL    HW125082  13.976   3.991  10.713
74395SOL    HW225083  14.049   4.086  10.805
74396SOL     OW25084   2.178   4.448   8.727
74396SOL    HW125085   2.183   4.495   8.810
74396SOL    HW225086   2.102   4.390   8.736
74397SOL     OW25087   7.437   1.307   7.132
74397SOL    HW125088   7.372   1.326   7.200
74397SOL    HW225089   7.492   1.238   7.170
74398SOL     OW25090   7.488   6.216   7.964
74398SOL    HW125091   7.513   6.251   8.050
74398SOL    HW225092   7.557   6.152   7.944
74399SOL     OW25093   8.676   2.391  11.646
74399SOL    HW125094   8.594   2.343  11.636
74399SOL    HW225095   8.650   2.483  11.641
74400SOL     OW25096   7.250   4.622   5.726
74400SOL    HW125097   7.300   4.545   5.698
74400SOL    HW225098   7.289   4.648   5.809
74401SOL     OW25099  10.568   3.219   2.440
74401SOL    HW125100  10.644   3.232   2.383
74401SOL    HW225101  10.497   3.199   2.379
74402SOL     OW25102   2.155  11.502  11.753
74402SOL    HW125103   2.224  11.561  11.723
74402SOL    HW225104   2.198  11.416  11.758
74403SOL     OW25105   9.113   9.903   0.269
74403SOL    HW125106   9.102   9.996   0.287
74403SOL    HW225107   9.065   9.888   0.187
74404SOL     OW25108   6.581  10.543   2.021
74404SOL    HW125109   6.508  10.519   1.964
74404SOL    HW225110   6.542  10.598   2.088
74405SOL     OW25111  10.412  14.671   0.633
74405SOL    HW125112  10.468  14.656   0.557
74405SOL    HW225113  10.408  14.766   0.641
74406SOL     OW25114   9.282   6.787   9.123
74406SOL    HW125115   9.244   6.736   9.194
74406SOL    HW225116   9.293   6.725   9.051
74407SOL     OW25117   9.917  11.228   5.384
74407SOL    HW125118   9.871  11.144   5.384
74407SOL    HW225119  10.004  11.208   5.348
74408SOL     OW25120   9.430   0.028   2.955
74408SOL    HW125121   9.413  14.812   2.949
74408SOL    HW225122   9.518   0.039   2.918
74409SOL     OW25123  13.822  11.446  13.321
74409SOL    HW125124  13.775  11.452  13.238
74409SOL    HW225125  13.852  11.355  13.326
74410SOL     OW25126  11.574   0.070  12.433
74410SOL    HW125127  11.523  14.866  12.441
74410SOL    HW225128  11.643   0.061  12.498
74411SOL     OW25129   0.759   5.220   9.929
74411SOL    HW125130   0.767   5.216   9.834
74411SOL    HW225131   0.793   5.136   9.959
74412SOL     OW25132   0.211   0.991   7.133
74412SOL    HW125133   0.150   1.020   7.201
74412SOL    HW225134   0.287   1.048   7.143
74413SOL     OW25135   2.021  12.821   5.648
74413SOL    HW125136   1.941  12.807   5.699
74413SOL    HW225137   2.090  12.832   5.714
74414SOL     OW25138  10.450   5.026  14.457
74414SOL    HW125139  10.365   4.986  14.437
74414SOL    HW225140  10.432   5.120  14.458
74415SOL     OW25141   5.660   4.433   3.077
74415SOL    HW125142   5.662   4.527   3.060
74415SOL    HW225143   5.703   4.394   3.000
74416SOL     OW25144   1.968   7.290  14.730
74416SOL    HW125145   1.998   7.230  14.662
74416SOL    HW225146   2.045   7.303  14.786
74417SOL     OW25147  14.064   3.833   9.982
74417SOL    HW125148  14.136   3.779   9.950
74417SOL    HW225149  13.997   3.769  10.007
74418SOL     OW25150   6.804   4.024   6.609
74418SOL    HW125151   6.873   4.011   6.544
74418SOL    HW225152   6.834   4.098   6.661
74419SOL     OW25153   1.755   9.770   4.384
74419SOL    HW125154   1.736   9.695   4.440
74419SOL    HW225155   1.672   9.817   4.377
74420SOL     OW25156   8.406  12.358   5.326
74420SOL    HW125157   8.460  12.326   5.255
74420SOL    HW225158   8.331  12.298   5.329
74421SOL     OW25159   6.203  13.153  13.288
74421SOL    HW125160   6.284  13.195  13.317
74421SOL    HW225161   6.147  13.153  13.366
74422SOL     OW25162   8.454   4.660   3.705
74422SOL    HW125163   8.541   4.701   3.706
74422SOL    HW225164   8.461   4.592   3.639
74423SOL     OW25165  11.062   0.010  14.290
74423SOL    HW125166  11.115  14.815  14.322
74423SOL    HW225167  10.999  14.847  14.230
74424SOL     OW25168   9.847   4.463   8.518
74424SOL    HW125169   9.818   4.487   8.429
74424SOL    HW225170   9.921   4.404   8.503
74425SOL     OW25171   4.929   3.328   8.467
74425SOL    HW125172   4.970   3.353   8.384
74425SOL    HW225173   4.998   3.284   8.516
74426SOL     OW25174   6.433  11.149   0.544
74426SOL    HW125175   6.505  11.204   0.577
74426SOL    HW225176   6.356  11.180   0.592
74427SOL     OW25177   9.983   0.247  10.331
74427SOL    HW125178   9.999   0.219  10.421
74427SOL    HW225179  10.062   0.294  10.305
74428SOL     OW25180  11.517  11.544   6.616
74428SOL    HW125181  11.503  11.455   6.585
74428SOL    HW225182  11.566  11.534   6.698
74429SOL     OW25183   6.218  12.888   0.856
74429SOL    HW125184   6.250  12.953   0.793
74429SOL    HW225185   6.170  12.939   0.921
74430SOL     OW25186   9.298   7.881   1.579
74430SOL    HW125187   9.241   7.805   1.593
74430SOL    HW225188   9.242   7.957   1.599
74431SOL     OW25189   4.138   4.764   0.446
74431SOL    HW125190   4.156   4.671   0.462
74431SOL    HW225191   4.215   4.810   0.479
74432SOL     OW25192   6.365   9.777   3.573
74432SOL    HW125193   6.290   9.719   3.592
74432SOL    HW225194   6.398   9.745   3.489
74433SOL     OW25195   7.343   2.863   2.593
74433SOL    HW125196   7.342   2.776   2.551
74433SOL    HW225197   7.264   2.865   2.647
74434SOL     OW25198   4.346  13.197   8.192
74434SOL    HW125199   4.260  13.157   8.188
74434SOL    HW225200   4.329  13.290   8.210
74435SOL     OW25201   5.845   9.958   9.002
74435SOL    HW125202   5.836  10.053   9.011
74435SOL    HW225203   5.938   9.941   9.018
74436SOL     OW25204   3.495   9.879   4.926
74436SOL    HW125205   3.445   9.800   4.908
74436SOL    HW225206   3.557   9.853   4.995
74437SOL     OW25207  13.677   1.567   8.836
74437SOL    HW125208  13.597   1.590   8.789
74437SOL    HW225209  13.652   1.493   8.892
74438SOL     OW25210  14.106   2.934  10.139
74438SOL    HW125211  14.057   2.855  10.163
74438SOL    HW225212  14.180   2.902  10.088
74439SOL     OW25213   2.017  11.726   3.763
74439SOL    HW125214   2.084  11.710   3.696
74439SOL    HW225215   1.935  11.734   3.713
74440SOL     OW25216   4.777  13.856  11.505
74440SOL    HW125217   4.699  13.862  11.449
74440SOL    HW225218   4.810  13.767  11.489
74441SOL     OW25219  10.114  14.346   1.833
74441SOL    HW125220  10.188  14.390   1.790
74441SOL    HW225221  10.053  14.326   1.762
74442SOL     OW25222  12.045   2.657  12.068
74442SOL    HW125223  12.013   2.578  12.025
74442SOL    HW225224  12.078   2.627  12.152
74443SOL     OW25225   7.659   3.718  14.154
74443SOL    HW125226   7.594   3.719  14.083
74443SOL    HW225227   7.696   3.630  14.151
74444SOL     OW25228   4.865   7.828  13.962
74444SOL    HW125229   4.815   7.851  13.884
74444SOL    HW225230   4.955   7.851  13.940
74445SOL     OW25231   4.655   5.724   0.577
74445SOL    HW125232   4.630   5.639   0.541
74445SOL    HW225233   4.730   5.752   0.525
74446SOL     OW25234   8.441  11.552   7.628
74446SOL    HW125235   8.511  11.596   7.675
74446SOL    HW225236   8.485  11.512   7.552
74447SOL     OW25237   9.594  13.902  10.113
74447SOL    HW125238   9.679  13.919  10.154
74447SOL    HW225239   9.531  13.910  10.185
74448SOL     OW25240   8.918   2.435   6.561
74448SOL    HW125241   8.910   2.405   6.651
74448SOL    HW225242   8.957   2.522   6.567
74449SOL     OW25243  13.687   5.577   1.942
74449SOL    HW125244  13.644   5.662   1.930
74449SOL    HW225245  13.623   5.524   1.990
74450SOL     OW25246  12.330   1.534   0.011
74450SOL    HW125247  12.280   1.472  14.835
74450SOL    HW225248  12.351   1.486   0.091
74451SOL     OW25249  11.658  14.172   7.687
74451SOL    HW125250  11.627  14.219   7.764
74451SOL    HW225251  11.688  14.241   7.628
74452SOL     OW25252   3.861  14.645   2.487
74452SOL    HW125253   3.874  14.593   2.567
74452SOL    HW225254   3.813  14.587   2.428
74453SOL     OW25255   4.138   1.986   0.978
74453SOL    HW125256   4.116   1.908   1.028
74453SOL    HW225257   4.201   1.956   0.913
74454SOL     OW25258   1.184  11.589   2.743
74454SOL    HW125259   1.240  11.523   2.783
74454SOL    HW225260   1.244  11.660   2.719
74455SOL     OW25261  14.451   3.215   9.845
74455SOL    HW125262  14.471   3.137   9.897
74455SOL    HW225263  14.390   3.265   9.899
74456SOL     OW25264   5.859   0.691   4.762
74456SOL    HW125265   5.930   0.685   4.826
74456SOL    HW225266   5.790   0.740   4.808
74457SOL     OW25267  10.648  12.131   0.792
74457SOL    HW125268  10.602  12.192   0.734
74457SOL    HW225269  10.585  12.061   0.808
74458SOL     OW25270   0.488   7.162   6.692
74458SOL    HW125271   0.414   7.102   6.689
74458SOL    HW225272   0.448   7.249   6.698
74459SOL     OW25273  12.966  12.016   8.694
74459SOL    HW125274  12.984  12.056   8.779
74459SOL    HW225275  13.042  11.959   8.679
74460SOL     OW25276  10.260   8.943  12.233
74460SOL    HW125277  10.246   8.855  12.269
74460SOL    HW225278  10.345   8.970  12.269
74461SOL     OW25279  14.088   7.035   5.224
74461SOL    HW125280  14.051   6.947   5.217
74461SOL    HW225281  14.082   7.071   5.136
74462SOL     OW25282  10.901  11.210   5.055
74462SOL    HW125283  10.910  11.293   5.007
74462SOL    HW225284  10.990  11.175   5.058
74463SOL     OW25285  14.714  11.218  10.786
74463SOL    HW125286  14.679  11.138  10.824
74463SOL    HW225287  14.637  11.267  10.758
74464SOL     OW25288  14.094  11.173   2.962
74464SOL    HW125289  14.062  11.105   3.022
74464SOL    HW225290  14.080  11.136   2.875
74465SOL     OW25291   1.978  11.345   2.757
74465SOL    HW125292   2.000  11.427   2.801
74465SOL    HW225293   1.942  11.372   2.672
74466SOL     OW25294   6.270   8.741   2.569
74466SOL    HW125295   6.329   8.801   2.615
74466SOL    HW225296   6.304   8.741   2.479
74467SOL     OW25297   4.102   2.397  13.867
74467SOL    HW125298   4.074   2.307  13.887
74467SOL    HW225299   4.069   2.449  13.941
74468SOL     OW25300   9.166  11.182   4.267
74468SOL    HW125301   9.245  11.224   4.231
74468SOL    HW225302   9.178  11.183   4.361
74469SOL     OW25303  14.400  12.523   0.404
74469SOL    HW125304  14.384  12.602   0.456
74469SOL    HW225305  14.434  12.555   0.321
74470SOL     OW25306  11.656   8.876   4.736
74470SOL    HW125307  11.654   8.792   4.782
74470SOL    HW225308  11.565   8.889   4.706
74471SOL     OW25309  11.828   6.327  14.751
74471SOL    HW125310  11.895   6.396  14.754
74471SOL    HW225311  11.815   6.303  14.842
74472SOL     OW25312  14.453   8.704   5.916
74472SOL    HW125313  14.441   8.649   5.994
74472SOL    HW225314  14.393   8.667   5.851
74473SOL     OW25315  11.268   2.119   7.607
74473SOL    HW125316  11.173   2.109   7.616
74473SOL    HW225317  11.296   2.165   7.686
74474SOL     OW25318  13.351   2.135  14.431
74474SOL    HW125319  13.303   2.075  14.373
74474SOL    HW225320  13.443   2.112  14.419
74475SOL     OW25321  14.837   4.000   5.785
74475SOL    HW125322  14.766   3.942   5.757
74475SOL    HW225323  14.793   4.078   5.817
74476SOL     OW25324  11.846   8.233   3.155
74476SOL    HW125325  11.919   8.189   3.112
74476SOL    HW225326  11.826   8.178   3.231
74477SOL     OW25327   2.326   8.901  14.290
74477SOL    HW125328   2.240   8.865  14.270
74477SOL    HW225329   2.317   8.995  14.276
74478SOL     OW25330   5.944   5.656   6.006
74478SOL    HW125331   5.930   5.677   6.099
74478SOL    HW225332   6.027   5.608   6.005
74479SOL     OW25333  14.035   2.641   6.258
74479SOL    HW125334  14.128   2.622   6.256
74479SOL    HW225335  14.003   2.614   6.172
74480SOL     OW25336   2.723   8.942  13.382
74480SOL    HW125337   2.778   9.006  13.338
74480SOL    HW225338   2.696   8.985  13.463
74481SOL     OW25339   4.991   3.459   5.114
74481SOL    HW125340   5.007   3.457   5.208
74481SOL    HW225341   4.901   3.428   5.104
74482SOL     OW25342   9.495   5.651   8.481
74482SOL    HW125343   9.418   5.697   8.447
74482SOL    HW225344   9.531   5.711   8.546
74483SOL     OW25345  14.867   2.354   0.298
74483SOL    HW125346  14.835   2.314   0.379
74483SOL    HW225347   0.022   2.281   0.246
74484SOL     OW25348  10.499   3.484   9.603
74484SOL    HW125349  10.527   3.408   9.653
74484SOL    HW225350  10.551   3.557   9.637
74485SOL     OW25351   6.335   2.898   3.155
74485SOL    HW125352   6.261   2.943   3.195
74485SOL    HW225353   6.363   2.955   3.084
74486SOL     OW25354   5.502   7.235   8.000
74486SOL    HW125355   5.447   7.309   8.025
74486SOL    HW225356   5.522   7.191   8.083
74487SOL     OW25357  11.413  13.192  13.835
74487SOL    HW125358  11.330  13.215  13.793
74487SOL    HW225359  11.415  13.096  13.832
74488SOL     OW25360   8.239  12.140  10.856
74488SOL    HW125361   8.155  12.179  10.882
74488SOL    HW225362   8.222  12.100  10.771
74489SOL     OW25363   5.697   3.573   0.227
74489SOL    HW125364   5.688   3.649   0.285
74489SOL    HW225365   5.783   3.538   0.248
74490SOL     OW25366   3.121  11.700  13.620
74490SOL    HW125367   3.034  11.739  13.615
74490SOL    HW225368   3.129  11.650  13.538
74491SOL     OW25369  10.549   8.675   1.895
74491SOL    HW125370  10.558   8.729   1.816
74491SOL    HW225371  10.566   8.736   1.967
74492SOL     OW25372   8.729  13.402   3.056
74492SOL    HW125373   8.699  13.393   3.146
74492SOL    HW225374   8.691  13.484   3.026
74493SOL     OW25375   8.871   2.518   3.683
74493SOL    HW125376   8.842   2.476   3.763
74493SOL    HW225377   8.914   2.598   3.712
74494SOL     OW25378   8.143  12.986   1.852
74494SOL    HW125379   8.167  13.009   1.762
74494SOL    HW225380   8.163  12.892   1.858
74495SOL     OW25381   6.812   0.457  12.202
74495SOL    HW125382   6.890   0.507  12.226
74495SOL    HW225383   6.836   0.366  12.219
74496SOL     OW25384  12.069  13.495   6.543
74496SOL    HW125385  12.097  13.549   6.469
74496SOL    HW225386  11.999  13.440   6.508
74497SOL     OW25387   4.288   9.814   3.406
74497SOL    HW125388   4.193   9.813   3.421
74497SOL    HW225389   4.299   9.773   3.321
74498SOL     OW25390   8.654  10.632   8.858
74498SOL    HW125391   8.703  10.597   8.932
74498SOL    HW225392   8.562  10.612   8.879
74499SOL     OW25393  14.319   9.313  10.403
74499SOL    HW125394  14.327   9.407  10.386
74499SOL    HW225395  14.269   9.308  10.485
74500SOL     OW25396  11.328   5.213   8.216
74500SOL    HW125397  11.270   5.178   8.283
74500SOL    HW225398  11.277   5.208   8.135
74501SOL     OW25399  11.818  10.280  14.426
74501SOL    HW125400  11.883  10.260  14.494
74501SOL    HW225401  11.863  10.341  14.367
74502SOL     OW25402   4.885   6.448   4.693
74502SOL    HW125403   4.923   6.474   4.777
74502SOL    HW225404   4.865   6.355   4.704
74503SOL     OW25405   2.288  11.293  11.837
74503SOL    HW125406   2.336  11.213  11.859
74503SOL    HW225407   2.355  11.360  11.827
74504SOL     OW25408   9.648   0.161   6.432
74504SOL    HW125409   9.579   0.171   6.498
74504SOL    HW225410   9.660   0.066   6.426
74505SOL     OW25411  11.816  10.454  13.339
74505SOL    HW125412  11.851  10.457  13.428
74505SOL    HW225413  11.761  10.376  13.338
74506SOL     OW25414  11.102  14.171  10.881
74506SOL    HW125415  11.052  14.101  10.840
74506SOL    HW225416  11.154  14.126  10.948
74507SOL     OW25417   9.450  10.137   2.661
74507SOL    HW125418   9.515  10.192   2.618
74507SOL    HW225419   9.492  10.110   2.742
74508SOL     OW25420   8.776   2.260  14.259
74508SOL    HW125421   8.842   2.266  14.328
74508SOL    HW225422   8.715   2.193  14.290
74509SOL     OW25423  10.320   5.638   9.511
74509SOL    HW125424  10.318   5.719   9.561
74509SOL    HW225425  10.252   5.650   9.444
74510SOL     OW25426   5.822   3.539  14.192
74510SOL    HW125427   5.907   3.503  14.216
74510SOL    HW225428   5.760   3.494  14.248
74511SOL     OW25429  13.893   7.072   1.618
74511SOL    HW125430  13.825   7.081   1.684
74511SOL    HW225431  13.975   7.087   1.665
74512SOL     OW25432  12.520   0.493   9.000
74512SOL    HW125433  12.596   0.551   9.010
74512SOL    HW225434  12.497   0.469   9.090
74513SOL     OW25435  13.442   7.320  13.186
74513SOL    HW125436  13.496   7.269  13.125
74513SOL    HW225437  13.484   7.307  13.271
74514SOL     OW25438   6.419   8.899   7.185
74514SOL    HW125439   6.370   8.822   7.156
74514SOL    HW225440   6.392   8.912   7.276
74515SOL     OW25441   7.756   5.574   9.730
74515SOL    HW125442   7.710   5.523   9.797
74515SOL    HW225443   7.756   5.663   9.764
74516SOL     OW25444   1.434  14.732   5.340
74516SOL    HW125445   1.463  14.688   5.260
74516SOL    HW225446   1.344  14.758   5.322
74517SOL     OW25447   3.177   1.707   3.284
74517SOL    HW125448   3.250   1.646   3.267
74517SOL    HW225449   3.170   1.758   3.203
74518SOL     OW25450   6.859   2.043  13.722
74518SOL    HW125451   6.912   2.023  13.800
74518SOL    HW225452   6.815   2.125  13.745
74519SOL     OW25453   4.937   2.007   5.129
74519SOL    HW125454   4.883   1.940   5.087
74519SOL    HW225455   5.020   1.964   5.146
74520SOL     OW25456  13.802  11.304   7.618
74520SOL    HW125457  13.803  11.397   7.599
74520SOL    HW225458  13.876  11.290   7.677
74521SOL     OW25459   7.559   0.738   6.324
74521SOL    HW125460   7.472   0.756   6.289
74521SOL    HW225461   7.602   0.824   6.328
74522SOL     OW25462  14.774  14.244   5.307
74522SOL    HW125463  14.708  14.177   5.288
74522SOL    HW225464  14.725  14.325   5.316
74523SOL     OW25465  13.753  11.522   4.797
74523SOL    HW125466  13.774  11.429   4.786
74523SOL    HW225467  13.668  11.522   4.841
74524SOL     OW25468   3.002   3.223   5.490
74524SOL    HW125469   3.004   3.296   5.551
74524SOL    HW225470   2.926   3.171   5.517
74525SOL     OW25471  11.255   7.097   9.714
74525SOL    HW125472  11.250   7.003   9.700
74525SOL    HW225473  11.349   7.115   9.720
74526SOL     OW25474  13.812  13.978   6.280
74526SOL    HW125475  13.726  14.009   6.308
74526SOL    HW225476  13.802  13.884   6.271
74527SOL     OW25477   0.336  13.204   2.519
74527SOL    HW125478   0.399  13.233   2.452
74527SOL    HW225479   0.266  13.162   2.468
74528SOL     OW25480   4.072   4.803  13.280
74528SOL    HW125481   4.073   4.776  13.188
74528SOL    HW225482   4.030   4.889  13.279
74529SOL     OW25483  13.256   5.491   3.780
74529SOL    HW125484  13.214   5.567   3.819
74529SOL    HW225485  13.313   5.457   3.849
74530SOL     OW25486   1.058  11.911   0.790
74530SOL    HW125487   1.116  11.985   0.769
74530SOL    HW225488   0.988  11.916   0.726
74531SOL     OW25489   1.972   0.910   2.863
74531SOL    HW125490   1.920   0.909   2.782
74531SOL    HW225491   1.908   0.921   2.932
74532SOL     OW25492   6.935   4.863   3.706
74532SOL    HW125493   6.946   4.783   3.758
74532SOL    HW225494   6.970   4.840   3.620
74533SOL     OW25495   5.620   5.530   3.148
74533SOL    HW125496   5.561   5.461   3.119
74533SOL    HW225497   5.691   5.484   3.194
74534SOL     OW25498   1.446   9.096   9.289
74534SOL    HW125499   1.528   9.076   9.245
74534SOL    HW225500   1.378   9.074   9.225
74535SOL     OW25501  14.455  12.171  10.183
74535SOL    HW125502  14.532  12.118  10.161
74535SOL    HW225503  14.488  12.261  10.183
74536SOL     OW25504  10.018  12.244   3.036
74536SOL    HW125505   9.925  12.257   3.050
74536SOL    HW225506  10.051  12.329   3.007
74537SOL     OW25507   1.752   3.625   9.137
74537SOL    HW125508   1.691   3.690   9.172
74537SOL    HW225509   1.733   3.545   9.187
74538SOL     OW25510   0.785   5.408   7.105
74538SOL    HW125511   0.725   5.403   7.031
74538SOL    HW225512   0.759   5.488   7.151
74539SOL     OW25513   3.610   8.488  12.986
74539SOL    HW125514   3.589   8.542  12.910
74539SOL    HW225515   3.554   8.410  12.976
74540SOL     OW25516   9.159   8.182   8.455
74540SOL    HW125517   9.207   8.124   8.515
74540SOL    HW225518   9.208   8.264   8.456
74541SOL     OW25519   5.288  12.663   3.213
74541SOL    HW125520   5.266  12.570   3.200
74541SOL    HW225521   5.326  12.690   3.129
74542SOL     OW25522   7.983  11.702  10.510
74542SOL    HW125523   7.918  11.675  10.446
74542SOL    HW225524   8.067  11.684  10.469
74543SOL     OW25525  12.790   7.277  12.162
74543SOL    HW125526  12.884   7.273  12.183
74543SOL    HW225527  12.770   7.370  12.163
74544SOL     OW25528   9.695   6.962   8.524
74544SOL    HW125529   9.660   6.986   8.438
74544SOL    HW225530   9.648   6.882   8.547
74545SOL     OW25531   7.061   5.538   2.177
74545SOL    HW125532   6.986   5.530   2.119
74545SOL    HW225533   7.089   5.630   2.168
74546SOL     OW25534   4.463  10.892   2.142
74546SOL    HW125535   4.445  10.812   2.191
74546SOL    HW225536   4.436  10.962   2.201
74547SOL     OW25537   2.412   7.435  10.120
74547SOL    HW125538   2.407   7.525  10.090
74547SOL    HW225539   2.448   7.440  10.208
74548SOL     OW25540   8.334   7.788   9.798
74548SOL    HW125541   8.315   7.868   9.749
74548SOL    HW225542   8.302   7.718   9.741
74549SOL     OW25543  12.038  13.994  11.934
74549SOL    HW125544  11.977  14.060  11.967
74549SOL    HW225545  11.982  13.932  11.886
74550SOL     OW25546   2.384   6.202   2.708
74550SOL    HW125547   2.474   6.205   2.676
74550SOL    HW225548   2.390   6.152   2.790
74551SOL     OW25549  10.958   1.952  13.255
74551SOL    HW125550  11.023   1.890  13.221
74551SOL    HW225551  10.876   1.927  13.213
74552SOL     OW25552   7.315   8.825  10.390
74552SOL    HW125553   7.291   8.773  10.313
74552SOL    HW225554   7.364   8.765  10.446
74553SOL     OW25555   3.786   9.234  11.537
74553SOL    HW125556   3.814   9.324  11.554
74553SOL    HW225557   3.740   9.208  11.617
74554SOL     OW25558   7.235   2.266   5.628
74554SOL    HW125559   7.300   2.328   5.661
74554SOL    HW225560   7.168   2.263   5.697
74555SOL     OW25561   9.943  13.416  10.205
74555SOL    HW125562   9.988  13.367  10.137
74555SOL    HW225563   9.865  13.451  10.162
74556SOL     OW25564   5.416  11.080  14.650
74556SOL    HW125565   5.326  11.062  14.678
74556SOL    HW225566   5.456  11.124  14.724
74557SOL     OW25567   8.937   5.592   8.921
74557SOL    HW125568   8.924   5.683   8.946
74557SOL    HW225569   8.965   5.595   8.830
74558SOL     OW25570   7.555   3.787   9.453
74558SOL    HW125571   7.618   3.799   9.524
74558SOL    HW225572   7.489   3.728   9.490
74559SOL     OW25573  12.146   9.834   4.580
74559SOL    HW125574  12.147   9.822   4.675
74559SOL    HW225575  12.054   9.833   4.556
74560SOL     OW25576  10.701   2.708   3.897
74560SOL    HW125577  10.795   2.687   3.904
74560SOL    HW225578  10.659   2.655   3.965
74561SOL     OW25579  12.286   4.839  13.235
74561SOL    HW125580  12.259   4.824  13.145
74561SOL    HW225581  12.356   4.774  13.250
74562SOL     OW25582   7.960  13.838   3.132
74562SOL    HW125583   7.897  13.770   3.154
74562SOL    HW225584   7.915  13.920   3.149
74563SOL     OW25585   8.071   3.799  13.407
74563SOL    HW125586   8.063   3.811  13.502
74563SOL    HW225587   8.163   3.818  13.389
74564SOL     OW25588  12.335  13.617   3.095
74564SOL    HW125589  12.381  13.630   3.012
74564SOL    HW225590  12.396  13.565   3.148
74565SOL     OW25591   4.676  13.453   0.288
74565SOL    HW125592   4.746  13.476   0.227
74565SOL    HW225593   4.616  13.528   0.286
74566SOL     OW25594   4.136  11.115   3.423
74566SOL    HW125595   4.103  11.193   3.379
74566SOL    HW225596   4.211  11.088   3.371
74567SOL     OW25597  10.165  10.216  12.790
74567SOL    HW125598  10.070  10.217  12.802
74567SOL    HW225599  10.190  10.308  12.785
74568SOL     OW25600   1.767  11.819   1.389
74568SOL    HW125601   1.738  11.779   1.472
74568SOL    HW225602   1.796  11.907   1.415
74569SOL     OW25603  10.544   3.059   4.427
74569SOL    HW125604  10.611   3.068   4.495
74569SOL    HW225605  10.588   3.013   4.356
74570SOL     OW25606   1.525   8.372   3.650
74570SOL    HW125607   1.447   8.374   3.706
74570SOL    HW225608   1.526   8.284   3.613
74571SOL     OW25609   3.435   1.621   3.218
74571SOL    HW125610   3.488   1.552   3.177
74571SOL    HW225611   3.476   1.703   3.190
74572SOL     OW25612   4.891  12.343   8.536
74572SOL    HW125613   4.855  12.391   8.461
74572SOL    HW225614   4.986  12.351   8.527
74573SOL     OW25615   1.138  13.206   4.456
74573SOL    HW125616   1.079  13.277   4.431
74573SOL    HW225617   1.170  13.230   4.542
74574SOL     OW25618   5.565   6.151   9.917
74574SOL    HW125619   5.620   6.178   9.843
74574SOL    HW225620   5.597   6.203   9.991
74575SOL     OW25621   7.706   5.960   0.595
74575SOL    HW125622   7.616   5.972   0.626
74575SOL    HW225623   7.753   5.922   0.670
74576SOL     OW25624   1.823  11.418   2.534
74576SOL    HW125625   1.764  11.396   2.606
74576SOL    HW225626   1.766  11.451   2.465
74577SOL     OW25627   4.782   0.635   9.947
74577SOL    HW125628   4.745   0.670   9.866
74577SOL    HW225629   4.819   0.550   9.922
74578SOL     OW25630  14.413  13.696  11.649
74578SOL    HW125631  14.486  13.656  11.603
74578SOL    HW225632  14.338  13.639  11.628
74579SOL     OW25633  14.365   7.191   4.654
74579SOL    HW125634  14.284   7.233   4.626
74579SOL    HW225635  14.366   7.200   4.749
74580SOL     OW25636   3.014  11.618   8.793
74580SOL    HW125637   2.959  11.583   8.863
74580SOL    HW225638   3.052  11.540   8.752
74581SOL     OW25639   1.900   7.314  12.158
74581SOL    HW125640   1.950   7.258  12.099
74581SOL    HW225641   1.810   7.309  12.126
74582SOL     OW25642   0.014   3.936   7.371
74582SOL    HW125643  14.828   4.005   7.354
74582SOL    HW225644  14.842   3.855   7.363
74583SOL     OW25645   9.412  13.428   7.648
74583SOL    HW125646   9.503  13.456   7.644
74583SOL    HW225647   9.413  13.348   7.701
74584SOL     OW25648   7.857   2.670   5.382
74584SOL    HW125649   7.912   2.723   5.439
74584SOL    HW225650   7.773   2.717   5.380
74585SOL     OW25651  14.219   1.379  14.497
74585SOL    HW125652  14.246   1.295  14.535
74585SOL    HW225653  14.221   1.440  14.571
74586SOL     OW25654   7.106   3.660  13.386
74586SOL    HW125655   7.177   3.696  13.438
74586SOL    HW225656   7.118   3.699  13.299
74587SOL     OW25657   2.490   1.823   5.713
74587SOL    HW125658   2.406   1.865   5.700
74587SOL    HW225659   2.481   1.736   5.675
74588SOL     OW25660   9.888  12.458   7.945
74588SOL    HW125661   9.856  12.494   7.862
74588SOL    HW225662   9.906  12.366   7.926
74589SOL     OW25663  10.425  13.141   0.731
74589SOL    HW125664  10.471  13.154   0.648
74589SOL    HW225665  10.353  13.081   0.709
74590SOL     OW25666   9.048   2.047   8.132
74590SOL    HW125667   8.994   2.105   8.187
74590SOL    HW225668   8.990   1.974   8.110
74591SOL     OW25669  12.074  13.829   8.475
74591SOL    HW125670  11.993  13.806   8.429
74591SOL    HW225671  12.050  13.905   8.528
74592SOL     OW25672   3.913   6.131   9.713
74592SOL    HW125673   3.835   6.130   9.767
74592SOL    HW225674   3.916   6.045   9.672
74593SOL     OW25675   2.887   8.875   8.945
74593SOL    HW125676   2.890   8.784   8.972
74593SOL    HW225677   2.962   8.885   8.886
74594SOL     OW25678   4.899  14.435   8.591
74594SOL    HW125679   4.927  14.484   8.669
74594SOL    HW225680   4.879  14.503   8.527
74595SOL     OW25681   0.763   6.468   9.993
74595SOL    HW125682   0.751   6.449   9.900
74595SOL    HW225683   0.752   6.563  10.000
74596SOL     OW25684   2.812   2.360   9.038
74596SOL    HW125685   2.728   2.395   9.068
74596SOL    HW225686   2.799   2.346   8.944
74597SOL     OW25687  13.204   6.384   4.269
74597SOL    HW125688  13.193   6.458   4.328
74597SOL    HW225689  13.298   6.364   4.272
74598SOL     OW25690   3.749   9.335   1.679
74598SOL    HW125691   3.838   9.299   1.682
74598SOL    HW225692   3.732   9.361   1.770
74599SOL     OW25693   9.097  12.224  14.010
74599SOL    HW125694   9.026  12.288  14.011
74599SOL    HW225695   9.056  12.142  14.035
74600SOL     OW25696   6.845   8.556   1.539
74600SOL    HW125697   6.840   8.633   1.596
74600SOL    HW225698   6.763   8.509   1.554
74601SOL     OW25699   5.873   3.655   5.320
74601SOL    HW125700   5.917   3.658   5.404
74601SOL    HW225701   5.944   3.656   5.255
74602SOL     OW25702   5.093   9.648   0.888
74602SOL    HW125703   5.108   9.609   0.802
74602SOL    HW225704   5.001   9.631   0.906
74603SOL     OW25705   4.028   4.524   7.709
74603SOL    HW125706   4.079   4.528   7.628
74603SOL    HW225707   4.063   4.448   7.755
74604SOL     OW25708   1.293   0.403   8.050
74604SOL    HW125709   1.368   0.462   8.051
74604SOL    HW225710   1.306   0.346   8.126
74605SOL     OW25711  10.890  14.864   6.724
74605SOL    HW125712  10.910   0.010   6.815
74605SOL    HW225713  10.823   0.049   6.697
74606SOL     OW25714   8.790   9.956   4.073
74606SOL    HW125715   8.851   9.922   4.008
74606SOL    HW225716   8.740   9.880   4.102
74607SOL     OW25717   8.974   7.853   2.332
74607SOL    HW125718   8.987   7.948   2.328
74607SOL    HW225719   8.927   7.839   2.414
74608SOL     OW25720   7.266  10.817   1.540
74608SOL    HW125721   7.331  10.801   1.608
74608SOL    HW225722   7.189  10.766   1.566
74609SOL     OW25723   7.074  12.826   7.744
74609SOL    HW125724   7.032  12.825   7.658
74609SOL    HW225725   7.053  12.913   7.780
74610SOL     OW25726  11.130   5.106   0.482
74610SOL    HW125727  11.073   5.154   0.421
74610SOL    HW225728  11.212   5.095   0.434
74611SOL     OW25729   4.146  13.866   1.175
74611SOL    HW125730   4.165  13.813   1.252
74611SOL    HW225731   4.053  13.884   1.181
74612SOL     OW25732  10.148  13.863  12.796
74612SOL    HW125733  10.080  13.918  12.833
74612SOL    HW225734  10.157  13.894  12.705
74613SOL     OW25735  12.212   4.253   1.494
74613SOL    HW125736  12.244   4.317   1.431
74613SOL    HW225737  12.256   4.276   1.576
74614SOL     OW25738   7.094  10.862   6.343
74614SOL    HW125739   7.045  10.898   6.269
74614SOL    HW225740   7.159  10.930   6.364
74615SOL     OW25741   4.066   4.918   4.397
74615SOL    HW125742   4.069   4.991   4.459
74615SOL    HW225743   3.977   4.920   4.362
74616SOL     OW25744   5.975   1.975  14.242
74616SOL    HW125745   6.045   2.028  14.282
74616SOL    HW225746   5.915   2.039  14.204
74617SOL     OW25747   1.346   0.576   6.713
74617SOL    HW125748   1.288   0.555   6.639
74617SOL    HW225749   1.339   0.670   6.724
74618SOL     OW25750   4.305   2.806   5.908
74618SOL    HW125751   4.337   2.881   5.857
74618SOL    HW225752   4.229   2.774   5.859
74619SOL     OW25753   3.294   2.906  13.514
74619SOL    HW125754   3.381   2.938  13.538
74619SOL    HW225755   3.288   2.919  13.420
74620SOL     OW25756   9.498   4.528   1.239
74620SOL    HW125757   9.419   4.475   1.243
74620SOL    HW225758   9.532   4.529   1.328
74621SOL     OW25759   7.962   5.074   7.653
74621SOL    HW125760   7.982   5.146   7.592
74621SOL    HW225761   7.926   5.005   7.598
74622SOL     OW25762   0.941  14.137   0.813
74622SOL    HW125763   1.034  14.148   0.790
74622SOL    HW225764   0.901  14.104   0.733
74623SOL     OW25765  13.312   9.992  13.398
74623SOL    HW125766  13.353   9.905  13.408
74623SOL    HW225767  13.271   9.988  13.311
74624SOL     OW25768   2.072  10.503  14.792
74624SOL    HW125769   2.000  10.538  14.740
74624SOL    HW225770   2.136  10.574  14.797
74625SOL     OW25771   7.177   2.672   3.699
74625SOL    HW125772   7.229   2.664   3.779
74625SOL    HW225773   7.105   2.730   3.723
74626SOL     OW25774   8.350  14.078   5.829
74626SOL    HW125775   8.316  14.047   5.913
74626SOL    HW225776   8.438  14.110   5.849
74627SOL     OW25777  13.225   3.494   4.358
74627SOL    HW125778  13.267   3.418   4.316
74627SOL    HW225779  13.291   3.527   4.419
74628SOL     OW25780   8.025  11.544   0.335
74628SOL    HW125781   8.058  11.614   0.278
74628SOL    HW225782   7.947  11.511   0.290
74629SOL     OW25783   3.620   2.965   8.171
74629SOL    HW125784   3.576   2.901   8.228
74629SOL    HW225785   3.696   2.918   8.136
74630SOL     OW25786   7.982   3.832   1.603
74630SOL    HW125787   7.935   3.829   1.519
74630SOL    HW225788   8.033   3.751   1.604
74631SOL     OW25789   1.266   4.032  14.302
74631SOL    HW125790   1.326   4.032  14.226
74631SOL    HW225791   1.297   4.104  14.356
74632SOL     OW25792  10.665   8.744   0.968
74632SOL    HW125793  10.741   8.789   0.931
74632SOL    HW225794  10.612   8.719   0.893
74633SOL     OW25795   4.395  11.467  11.398
74633SOL    HW125796   4.358  11.385  11.366
74633SOL    HW225797   4.375  11.531  11.330
74634SOL     OW25798  10.658   2.191   5.903
74634SOL    HW125799  10.728   2.200   5.967
74634SOL    HW225800  10.701   2.156   5.825
74635SOL     OW25801   1.990   0.938  12.819
74635SOL    HW125802   2.003   0.858  12.768
74635SOL    HW225803   1.896   0.939  12.837
74636SOL     OW25804   8.292   1.283  12.057
74636SOL    HW125805   8.303   1.191  12.081
74636SOL    HW225806   8.322   1.332  12.133
74637SOL     OW25807  11.902  10.774   1.158
74637SOL    HW125808  11.943  10.846   1.110
74637SOL    HW225809  11.808  10.790   1.149
74638SOL     OW25810  14.499   6.804   8.796
74638SOL    HW125811  14.545   6.837   8.719
74638SOL    HW225812  14.533   6.857   8.868
74639SOL     OW25813   9.716   1.197  12.874
74639SOL    HW125814   9.736   1.290  12.882
74639SOL    HW225815   9.755   1.171  12.791
74640SOL     OW25816  11.447   2.879   3.578
74640SOL    HW125817  11.422   2.970   3.565
74640SOL    HW225818  11.538   2.883   3.608
74641SOL     OW25819   7.138   8.646   0.709
74641SOL    HW125820   7.062   8.623   0.656
74641SOL    HW225821   7.166   8.731   0.676
74642SOL     OW25822   0.634  10.242   4.518
74642SOL    HW125823   0.673  10.190   4.447
74642SOL    HW225824   0.692  10.228   4.593
74643SOL     OW25825   5.085   9.392   6.054
74643SOL    HW125826   5.105   9.367   5.964
74643SOL    HW225827   5.169   9.391   6.099
74644SOL     OW25828   2.072   1.510   4.059
74644SOL    HW125829   2.029   1.449   3.999
74644SOL    HW225830   2.162   1.515   4.027
74645SOL     OW25831  10.424  14.223   6.694
74645SOL    HW125832  10.483  14.149   6.679
74645SOL    HW225833  10.430  14.239   6.788
74646SOL     OW25834   1.547   9.670   9.809
74646SOL    HW125835   1.536   9.668   9.714
74646SOL    HW225836   1.548   9.763   9.831
74647SOL     OW25837  13.607  12.147   8.786
74647SOL    HW125838  13.517  12.148   8.818
74647SOL    HW225839  13.609  12.213   8.716
74648SOL     OW25840  12.166   5.246   5.697
74648SOL    HW125841  12.218   5.315   5.655
74648SOL    HW225842  12.078   5.260   5.664
74649SOL     OW25843  14.273  10.153   4.448
74649SOL    HW125844  14.273  10.152   4.352
74649SOL    HW225845  14.184  10.130   4.472
74650SOL     OW25846   0.836   5.222  11.729
74650SOL    HW125847   0.891   5.226  11.651
74650SOL    HW225848   0.831   5.128  11.750
74651SOL     OW25849   1.524   3.136   2.979
74651SOL    HW125850   1.489   3.150   2.891
74651SOL    HW225851   1.449   3.142   3.037
74652SOL     OW25852   5.613   1.142  13.504
74652SOL    HW125853   5.574   1.065  13.464
74652SOL    HW225854   5.539   1.187  13.546
74653SOL     OW25855   7.039   4.006   1.166
74653SOL    HW125856   7.128   4.006   1.200
74653SOL    HW225857   7.033   3.925   1.115
74654SOL     OW25858   9.013   6.274   8.042
74654SOL    HW125859   9.054   6.361   8.045
74654SOL    HW225860   8.961   6.269   8.122
74655SOL     OW25861   6.469   8.870   2.381
74655SOL    HW125862   6.558   8.869   2.348
74655SOL    HW225863   6.468   8.938   2.448
74656SOL     OW25864  14.023   5.819   3.508
74656SOL    HW125865  14.058   5.733   3.485
74656SOL    HW225866  14.076   5.881   3.458
74657SOL     OW25867   6.677   5.885  13.268
74657SOL    HW125868   6.742   5.873  13.337
74657SOL    HW225869   6.715   5.952  13.211
74658SOL     OW25870   7.478  12.425  13.927
74658SOL    HW125871   7.506  12.392  14.012
74658SOL    HW225872   7.514  12.513  13.921
74659SOL     OW25873  13.169   8.541   5.995
74659SOL    HW125874  13.170   8.597   5.917
74659SOL    HW225875  13.239   8.478   5.979
74660SOL     OW25876   8.576   6.643   9.738
74660SOL    HW125877   8.568   6.564   9.790
74660SOL    HW225878   8.524   6.708   9.785
74661SOL     OW25879   6.369   8.853   1.130
74661SOL    HW125880   6.435   8.915   1.160
74661SOL    HW225881   6.402   8.767   1.158
74662SOL     OW25882   5.116  12.831   0.315
74662SOL    HW125883   5.104  12.925   0.321
74662SOL    HW225884   5.186  12.820   0.250
74663SOL     OW25885   6.754  14.210  11.275
74663SOL    HW125886   6.709  14.287  11.308
74663SOL    HW225887   6.750  14.147  11.347
74664SOL     OW25888   2.235  14.759  13.023
74664SOL    HW125889   2.153  14.714  13.042
74664SOL    HW225890   2.235  14.771  12.928
74665SOL     OW25891   1.942  11.901  13.287
74665SOL    HW125892   1.949  11.915  13.192
74665SOL    HW225893   1.985  11.977  13.326
74666SOL     OW25894   2.393   2.940   2.061
74666SOL    HW125895   2.474   2.967   2.104
74666SOL    HW225896   2.330   3.008   2.084
74667SOL     OW25897  11.267   1.486  10.258
74667SOL    HW125898  11.339   1.429  10.232
74667SOL    HW225899  11.224   1.509  10.176
74668SOL     OW25900   6.710  10.607  10.421
74668SOL    HW125901   6.669  10.549  10.485
74668SOL    HW225902   6.766  10.664  10.473
74669SOL     OW25903   9.504   4.529   0.115
74669SOL    HW125904   9.548   4.457   0.158
74669SOL    HW225905   9.575   4.587   0.086
74670SOL     OW25906  14.803  14.636   1.575
74670SOL    HW125907  14.713  14.611   1.553
74670SOL    HW225908  14.857  14.570   1.533
74671SOL     OW25909   7.139  11.242   6.437
74671SOL    HW125910   7.122  11.296   6.360
74671SOL    HW225911   7.219  11.193   6.415
74672SOL     OW25912   9.716   9.547  10.970
74672SOL    HW125913   9.700   9.516  10.880
74672SOL    HW225914   9.757   9.633  10.958
74673SOL     OW25915   0.072  14.350   3.401
74673SOL    HW125916   0.085  14.285   3.332
74673SOL    HW225917  14.873  14.400   3.374
74674SOL     OW25918  14.276   1.979   1.704
74674SOL    HW125919  14.288   2.067   1.739
74674SOL    HW225920  14.221   1.992   1.627
74675SOL     OW25921   3.631   4.434   4.566
74675SOL    HW125922   3.542   4.420   4.597
74675SOL    HW225923   3.628   4.413   4.473
74676SOL     OW25924   2.519   7.651  14.415
74676SOL    HW125925   2.428   7.619  14.412
74676SOL    HW225926   2.541   7.667  14.323
74677SOL     OW25927   1.582   0.983   4.188
74677SOL    HW125928   1.625   0.900   4.207
74677SOL    HW225929   1.617   1.043   4.253
74678SOL     OW25930   4.244   8.944  12.495
74678SOL    HW125931   4.206   8.883  12.432
74678SOL    HW225932   4.294   8.889  12.555
74679SOL     OW25933   2.584   3.205   4.565
74679SOL    HW125934   2.649   3.272   4.547
74679SOL    HW225935   2.534   3.239   4.640
74680SOL     OW25936  10.998   2.787   6.116
74680SOL    HW125937  11.020   2.696   6.135
74680SOL    HW225938  10.920   2.804   6.169
74681SOL     OW25939  12.141   7.491  11.103
74681SOL    HW125940  12.081   7.432  11.148
74681SOL    HW225941  12.095   7.575  11.100
74682SOL     OW25942   3.584  10.992   9.148
74682SOL    HW125943   3.631  11.048   9.210
74682SOL    HW225944   3.593  10.904   9.183
74683SOL     OW25945  11.668  10.419   7.869
74683SOL    HW125946  11.714  10.469   7.937
74683SOL    HW225947  11.585  10.465   7.856
74684SOL     OW25948   5.055   2.039   2.990
74684SOL    HW125949   5.126   2.071   3.045
74684SOL    HW225950   5.039   1.950   3.019
74685SOL     OW25951   6.956  12.488  14.677
74685SOL    HW125952   6.998  12.548  14.739
74685SOL    HW225953   6.863  12.494  14.697
74686SOL     OW25954   3.904   7.644   7.189
74686SOL    HW125955   3.992   7.678   7.204
74686SOL    HW225956   3.914   7.585   7.114
74687SOL     OW25957   8.276   3.631   0.889
74687SOL    HW125958   8.234   3.545   0.882
74687SOL    HW225959   8.363   3.613   0.924
74688SOL     OW25960  10.402   0.518   7.289
74688SOL    HW125961  10.311   0.506   7.317
74688SOL    HW225962  10.402   0.602   7.242
74689SOL     OW25963   6.106  13.799   5.712
74689SOL    HW125964   6.086  13.706   5.712
74689SOL    HW225965   6.087  13.827   5.622
74690SOL     OW25966   1.635  13.397   6.403
74690SOL    HW125967   1.638  13.396   6.498
74690SOL    HW225968   1.551  13.357   6.380
74691SOL     OW25969  13.691  14.836   2.536
74691SOL    HW125970  13.616  14.800   2.488
74691SOL    HW225971  13.728   0.023   2.476
74692SOL     OW25972   3.749   9.921   1.195
74692SOL    HW125973   3.663   9.947   1.162
74692SOL    HW225974   3.803   9.912   1.117
74693SOL     OW25975   9.051   0.097   9.540
74693SOL    HW125976   8.986   0.164   9.562
74693SOL    HW225977   9.073   0.057   9.624
74694SOL     OW25978   3.846   3.738   9.626
74694SOL    HW125979   3.788   3.727   9.701
74694SOL    HW225980   3.920   3.680   9.644
74695SOL     OW25981  10.469   4.298   4.711
74695SOL    HW125982  10.405   4.369   4.716
74695SOL    HW225983  10.552   4.339   4.737
74696SOL     OW25984   4.776   1.200   7.577
74696SOL    HW125985   4.781   1.131   7.510
74696SOL    HW225986   4.693   1.244   7.558
74697SOL     OW25987   4.895   3.169   0.003
74697SOL    HW125988   4.957   3.098  14.866
74697SOL    HW225989   4.901   3.186   0.097
74698SOL     OW25990   4.593   9.724   6.277
74698SOL    HW125991   4.663   9.686   6.225
74698SOL    HW225992   4.603   9.684   6.363
74699SOL     OW25993   9.640  11.262  11.733
74699SOL    HW125994   9.706  11.329  11.716
74699SOL    HW225995   9.688  11.179  11.733
74700SOL     OW25996   6.019   5.410   2.685
74700SOL    HW125997   5.971   5.334   2.651
74700SOL    HW225998   5.994   5.414   2.778
74701SOL     OW25999   1.437   9.868   2.909
74701SOL    HW126000   1.412   9.878   3.001
74701SOL    HW226001   1.442   9.773   2.895
74702SOL     OW26002  12.769  12.469   2.019
74702SOL    HW126003  12.696  12.486   2.078
74702SOL    HW226004  12.773  12.546   1.963
74703SOL     OW26005  12.986   8.529   2.993
74703SOL    HW126006  12.941   8.612   2.976
74703SOL    HW226007  12.939   8.492   3.068
74704SOL     OW26008   5.529   9.677   0.812
74704SOL    HW126009   5.514   9.763   0.773
74704SOL    HW226010   5.449   9.659   0.860
74705SOL     OW26011  12.178   4.026   2.122
74705SOL    HW126012  12.202   3.941   2.158
74705SOL    HW226013  12.158   4.009   2.030
74706SOL     OW26014  12.607  12.201  10.073
74706SOL    HW126015  12.622  12.156  10.156
74706SOL    HW226016  12.659  12.281  10.078
74707SOL     OW26017   8.420   4.716   6.160
74707SOL    HW126018   8.425   4.800   6.116
74707SOL    HW226019   8.466   4.655   6.102
74708SOL     OW26020  11.343   5.186   2.778
74708SOL    HW126021  11.371   5.277   2.785
74708SOL    HW226022  11.425   5.136   2.775
74709SOL     OW26023   0.391   4.939  13.833
74709SOL    HW126024   0.323   4.921  13.768
74709SOL    HW226025   0.447   5.004  13.791
74710SOL     OW26026   9.284   0.416   3.187
74710SOL    HW126027   9.343   0.341   3.194
74710SOL    HW226028   9.243   0.407   3.101
74711SOL     OW26029  11.536   1.390   9.904
74711SOL    HW126030  11.563   1.478   9.875
74711SOL    HW226031  11.582   1.330   9.845
74712SOL     OW26032   9.088  14.685  12.489
74712SOL    HW126033   9.025  14.730  12.432
74712SOL    HW226034   9.173  14.705  12.451
74713SOL     OW26035   5.974   4.616   3.263
74713SOL    HW126036   6.006   4.563   3.190
74713SOL    HW226037   5.906   4.563   3.304
74714SOL     OW26038   6.710   3.037   3.201
74714SOL    HW126039   6.664   3.030   3.118
74714SOL    HW226040   6.791   2.989   3.188
74715SOL     OW26041   6.423  11.030   2.862
74715SOL    HW126042   6.411  11.097   2.928
74715SOL    HW226043   6.518  11.015   2.860
74716SOL     OW26044   3.224  10.777   1.306
74716SOL    HW126045   3.241  10.854   1.360
74716SOL    HW226046   3.280  10.709   1.343
74717SOL     OW26047   4.131   8.362  13.888
74717SOL    HW126048   4.052   8.378  13.836
74717SOL    HW226049   4.180   8.297  13.838
74718SOL     OW26050  13.794   6.393   0.565
74718SOL    HW126051  13.706   6.425   0.581
74718SOL    HW226052  13.851   6.462   0.599
74719SOL     OW26053  14.601   2.152  10.322
74719SOL    HW126054  14.546   2.176  10.396
74719SOL    HW226055  14.676   2.108  10.361
74720SOL     OW26056   6.813   9.167   0.078
74720SOL    HW126057   6.909   9.170   0.081
74720SOL    HW226058   6.793   9.133  14.869
74721SOL     OW26059   8.236   4.108   7.103
74721SOL    HW126060   8.196   4.185   7.145
74721SOL    HW226061   8.163   4.063   7.062
74722SOL     OW26062   8.669  11.397  14.102
74722SOL    HW126063   8.647  11.448  14.180
74722SOL    HW226064   8.753  11.355  14.123
74723SOL     OW26065   9.541  11.435   8.630
74723SOL    HW126066   9.451  11.461   8.612
74723SOL    HW226067   9.549  11.439   8.726
74724SOL     OW26068   7.397  12.486  12.145
74724SOL    HW126069   7.436  12.563  12.186
74724SOL    HW226070   7.332  12.520  12.085
74725SOL     OW26071   4.789   3.497  10.617
74725SOL    HW126072   4.787   3.449  10.700
74725SOL    HW226073   4.841   3.576  10.636
74726SOL     OW26074   0.690   7.430   4.105
74726SOL    HW126075   0.604   7.468   4.125
74726SOL    HW226076   0.694   7.430   4.009
74727SOL     OW26077   5.483  10.479  13.575
74727SOL    HW126078   5.445  10.454  13.659
74727SOL    HW226079   5.477  10.575  13.575
74728SOL     OW26080   4.010  14.290   6.590
74728SOL    HW126081   3.934  14.232   6.590
74728SOL    HW226082   4.048  14.280   6.503
74729SOL     OW26083  10.660  14.078  14.054
74729SOL    HW126084  10.574  14.037  14.049
74729SOL    HW226085  10.714  14.028  13.992
74730SOL     OW26086   6.670   8.232   1.037
74730SOL    HW126087   6.593   8.223   0.981
74730SOL    HW226088   6.737   8.178   0.995
74731SOL     OW26089  11.615  12.563   1.512
74731SOL    HW126090  11.585  12.593   1.426
74731SOL    HW226091  11.647  12.474   1.496
74732SOL     OW26092  13.208   4.553   8.050
74732SOL    HW126093  13.262   4.528   8.125
74732SOL    HW226094  13.193   4.471   8.002
74733SOL     OW26095  11.051   0.358   7.649
74733SOL    HW126096  10.960   0.388   7.647
74733SOL    HW226097  11.059   0.300   7.573
74734SOL     OW26098  11.046   6.365  10.872
74734SOL    HW126099  11.010   6.373  10.783
74734SOL    HW226100  11.098   6.285  10.869
74735SOL     OW26101   7.530  12.541   7.313
74735SOL    HW126102   7.493  12.629   7.309
74735SOL    HW226103   7.535  12.522   7.406
74736SOL     OW26104   2.503   5.580  11.400
74736SOL    HW126105   2.485   5.488  11.385
74736SOL    HW226106   2.581   5.581  11.456
74737SOL     OW26107   3.695  11.743  10.188
74737SOL    HW126108   3.639  11.665  10.195
74737SOL    HW226109   3.739  11.748  10.273
74738SOL     OW26110   0.529   4.141   2.698
74738SOL    HW126111   0.521   4.227   2.655
74738SOL    HW226112   0.439   4.114   2.715
74739SOL     OW26113  12.219   9.334   1.071
74739SOL    HW126114  12.285   9.395   1.037
74739SOL    HW226115  12.183   9.291   0.993
74740SOL     OW26116   0.505   1.133   4.673
74740SOL    HW126117   0.546   1.216   4.649
74740SOL    HW226118   0.475   1.096   4.589
74741SOL     OW26119   5.236   5.801   8.402
74741SOL    HW126120   5.279   5.882   8.374
74741SOL    HW226121   5.153   5.831   8.440
74742SOL     OW26122   3.627   0.254   4.246
74742SOL    HW126123   3.574   0.316   4.195
74742SOL    HW226124   3.565   0.186   4.272
74743SOL     OW26125  13.190  13.004   1.585
74743SOL    HW126126  13.138  13.034   1.511
74743SOL    HW226127  13.196  12.909   1.573
74744SOL     OW26128   3.148   7.700   0.007
74744SOL    HW126129   3.168   7.721   0.098
74744SOL    HW226130   3.167   7.781  14.837
74745SOL     OW26131  12.719   2.783  11.400
74745SOL    HW126132  12.792   2.839  11.424
74745SOL    HW226133  12.734   2.762  11.308
74746SOL     OW26134   3.317   7.027   8.376
74746SOL    HW126135   3.234   7.055   8.415
74746SOL    HW226136   3.345   7.102   8.321
74747SOL     OW26137   2.329   7.260  12.051
74747SOL    HW126138   2.376   7.256  11.968
74747SOL    HW226139   2.386   7.214  12.113
74748SOL     OW26140  12.925   7.725   8.420
74748SOL    HW126141  12.839   7.739   8.460
74748SOL    HW226142  12.972   7.672   8.485
74749SOL     OW26143  13.884  10.765  14.636
74749SOL    HW126144  13.870  10.765  14.731
74749SOL    HW226145  13.916  10.677  14.617
74750SOL     OW26146   6.631   3.599   2.420
74750SOL    HW126147   6.612   3.675   2.365
74750SOL    HW226148   6.697   3.550   2.371
74751SOL     OW26149   5.591   3.687   5.234
74751SOL    HW126150   5.526   3.623   5.261
74751SOL    HW226151   5.669   3.664   5.284
74752SOL     OW26152   0.855  11.962  13.800
74752SOL    HW126153   0.913  12.014  13.744
74752SOL    HW226154   0.780  11.942  13.745
74753SOL     OW26155   1.648   3.974   7.237
74753SOL    HW126156   1.667   4.041   7.171
74753SOL    HW226157   1.633   4.024   7.318
74754SOL     OW26158   2.330  12.375   3.113
74754SOL    HW126159   2.335  12.470   3.118
74754SOL    HW226160   2.416  12.345   3.141
74755SOL     OW26161  11.441  11.012   7.239
74755SOL    HW126162  11.453  11.107   7.238
74755SOL    HW226163  11.530  10.977   7.244
74756SOL     OW26164  14.491   9.301   7.910
74756SOL    HW126165  14.530   9.232   7.856
74756SOL    HW226166  14.414   9.330   7.860
74757SOL     OW26167  11.719   6.806   1.134
74757SOL    HW126168  11.761   6.886   1.104
74757SOL    HW226169  11.715   6.815   1.229
74758SOL     OW26170   1.352  10.327   6.891
74758SOL    HW126171   1.436  10.354   6.928
74758SOL    HW226172   1.343  10.379   6.811
74759SOL     OW26173  11.186   3.320   7.115
74759SOL    HW126174  11.227   3.336   7.201
74759SOL    HW226175  11.178   3.224   7.111
74760SOL     OW26176   9.120   5.351   1.121
74760SOL    HW126177   9.133   5.301   1.202
74760SOL    HW226178   9.082   5.434   1.150
74761SOL     OW26179   1.503  12.296  11.597
74761SOL    HW126180   1.597  12.304  11.585
74761SOL    HW226181   1.476  12.228  11.536
74762SOL     OW26182   1.659  13.985  12.490
74762SOL    HW126183   1.709  13.903  12.486
74762SOL    HW226184   1.708  14.046  12.435
74763SOL     OW26185   9.160  11.958  14.255
74763SOL    HW126186   9.071  11.970  14.221
74763SOL    HW226187   9.161  11.868  14.287
74764SOL     OW26188   7.454  12.559   8.764
74764SOL    HW126189   7.451  12.595   8.675
74764SOL    HW226190   7.405  12.621   8.817
74765SOL     OW26191   8.096  14.249   5.900
74765SOL    HW126192   8.135  14.273   5.815
74765SOL    HW226193   8.170  14.217   5.952
74766SOL     OW26194   8.881   6.906   9.717
74766SOL    HW126195   8.871   6.998   9.743
74766SOL    HW226196   8.874   6.857   9.798
74767SOL     OW26197   8.323   2.249  13.408
74767SOL    HW126198   8.268   2.212  13.339
74767SOL    HW226199   8.262   2.271  13.478
74768SOL     OW26200  13.415   1.315   1.178
74768SOL    HW126201  13.380   1.348   1.261
74768SOL    HW226202  13.490   1.262   1.203
74769SOL     OW26203   2.011   7.420  11.404
74769SOL    HW126204   1.989   7.339  11.358
74769SOL    HW226205   2.099   7.442  11.373
74770SOL     OW26206  13.305  11.418  12.716
74770SOL    HW126207  13.270  11.449  12.633
74770SOL    HW226208  13.328  11.326  12.700
74771SOL     OW26209   1.406  13.162   2.962
74771SOL    HW126210   1.360  13.095   2.911
74771SOL    HW226211   1.484  13.118   2.995
74772SOL     OW26212  12.259  14.528   2.879
74772SOL    HW126213  12.348  14.491   2.880
74772SOL    HW226214  12.204  14.457   2.848
74773SOL     OW26215   0.785   1.254  13.446
74773SOL    HW126216   0.720   1.239  13.514
74773SOL    HW226217   0.735   1.290  13.372
74774SOL     OW26218  12.939   7.409   1.622
74774SOL    HW126219  13.013   7.470   1.617
74774SOL    HW226220  12.976   7.328   1.658
74775SOL     OW26221  14.523   6.514   6.301
74775SOL    HW126222  14.435   6.527   6.335
74775SOL    HW226223  14.539   6.420   6.309
74776SOL     OW26224   7.296  13.298   2.167
74776SOL    HW126225   7.267  13.388   2.181
74776SOL    HW226226   7.247  13.247   2.232
74777SOL     OW26227   0.342   6.833  12.447
74777SOL    HW126228   0.437   6.832  12.449
74777SOL    HW226229   0.315   6.838  12.539
74778SOL     OW26230  11.950   7.664   8.151
74778SOL    HW126231  11.978   7.651   8.061
74778SOL    HW226232  11.884   7.733   8.146
74779SOL     OW26233   1.321   5.450   0.438
74779SOL    HW126234   1.401   5.475   0.484
74779SOL    HW226235   1.340   5.363   0.402
74780SOL     OW26236   4.921   0.057  14.402
74780SOL    HW126237   4.992   0.031  14.459
74780SOL    HW226238   4.843   0.016  14.440
74781SOL     OW26239   4.730   6.104   2.443
74781SOL    HW126240   4.823   6.084   2.452
74781SOL    HW226241   4.689   6.019   2.425
74782SOL     OW26242  11.969  14.386  14.851
74782SOL    HW126243  12.030  14.458  14.869
74782SOL    HW226244  11.896  14.401   0.034
74783SOL     OW26245  13.502  11.111  13.947
74783SOL    HW126246  13.428  11.052  13.936
74783SOL    HW226247  13.528  11.101  14.039
74784SOL     OW26248  14.698   1.403  12.771
74784SOL    HW126249  14.730   1.457  12.843
74784SOL    HW226250  14.768   1.405  12.706
74785SOL     OW26251  13.308   2.208   0.322
74785SOL    HW126252  13.230   2.183   0.272
74785SOL    HW226253  13.364   2.251   0.258
74786SOL     OW26254  10.024   0.858   1.674
74786SOL    HW126255  10.033   0.812   1.591
74786SOL    HW226256  10.103   0.836   1.723
74787SOL     OW26257   8.390   2.865   6.255
74787SOL    HW126258   8.384   2.877   6.350
74787SOL    HW226259   8.344   2.782   6.239
74788SOL     OW26260  12.568   3.778   8.485
74788SOL    HW126261  12.511   3.846   8.448
74788SOL    HW226262  12.652   3.789   8.439
74789SOL     OW26263  11.364   9.835   6.813
74789SOL    HW126264  11.352   9.888   6.733
74789SOL    HW226265  11.293   9.863   6.871
74790SOL     OW26266   4.200  13.855   2.967
74790SOL    HW126267   4.163  13.833   3.052
74790SOL    HW226268   4.210  13.950   2.969
74791SOL     OW26269   0.994   6.279  12.546
74791SOL    HW126270   1.016   6.265  12.638
74791SOL    HW226271   1.076   6.264  12.499
74792SOL     OW26272   4.175   7.215   9.976
74792SOL    HW126273   4.257   7.237   9.932
74792SOL    HW226274   4.200   7.197  10.066
74793SOL     OW26275   1.087   6.995   2.063
74793SOL    HW126276   1.002   6.961   2.093
74793SOL    HW226277   1.130   7.026   2.143
74794SOL     OW26278   2.457  12.098   3.463
74794SOL    HW126279   2.462  12.186   3.500
74794SOL    HW226280   2.430  12.043   3.536
74795SOL     OW26281   9.143   6.165   3.988
74795SOL    HW126282   9.239   6.168   3.986
74795SOL    HW226283   9.122   6.150   4.081
74796SOL     OW26284   8.254   9.824   6.185
74796SOL    HW126285   8.319   9.760   6.155
74796SOL    HW226286   8.178   9.772   6.209
74797SOL     OW26287   6.035   6.750   3.028
74797SOL    HW126288   5.980   6.762   2.950
74797SOL    HW226289   6.062   6.658   3.024
74798SOL     OW26290   8.889   3.590   6.109
74798SOL    HW126291   8.902   3.563   6.200
74798SOL    HW226292   8.977   3.596   6.073
74799SOL     OW26293   5.448   3.889   9.428
74799SOL    HW126294   5.410   3.928   9.349
74799SOL    HW226295   5.488   3.807   9.398
74800SOL     OW26296   7.169  13.575  12.588
74800SOL    HW126297   7.111  13.503  12.562
74800SOL    HW226298   7.191  13.618  12.505
74801SOL     OW26299   6.728  10.281   2.206
74801SOL    HW126300   6.813  10.241   2.222
74801SOL    HW226301   6.672  10.208   2.177
74802SOL     OW26302   0.487   9.749   3.458
74802SOL    HW126303   0.567   9.776   3.412
74802SOL    HW226304   0.518   9.714   3.541
74803SOL     OW26305   8.195  13.477   9.219
74803SOL    HW126306   8.150  13.393   9.211
74803SOL    HW226307   8.280  13.463   9.176
74804SOL     OW26308   7.675   7.055   8.805
74804SOL    HW126309   7.610   7.017   8.864
74804SOL    HW226310   7.752   6.999   8.815
74805SOL     OW26311   8.833   1.744  10.251
74805SOL    HW126312   8.886   1.665  10.244
74805SOL    HW226313   8.812   1.751  10.344
74806SOL     OW26314   0.660   0.866   1.910
74806SOL    HW126315   0.678   0.955   1.941
74806SOL    HW226316   0.618   0.878   1.825
74807SOL     OW26317  11.274   5.431  10.538
74807SOL    HW126318  11.302   5.521  10.557
74807SOL    HW226319  11.346   5.394  10.486
74808SOL     OW26320  12.857  14.599  12.235
74808SOL    HW126321  12.798  14.564  12.169
74808SOL    HW226322  12.911  14.524  12.261
74809SOL     OW26323  14.859  12.519   1.187
74809SOL    HW126324   0.075  12.509   1.202
74809SOL    HW226325  14.842  12.611   1.205
74810SOL     OW26326   9.946   4.046  13.986
74810SOL    HW126327   9.926   4.120  13.928
74810SOL    HW226328   9.892   4.062  14.064
74811SOL     OW26329  14.262  14.142   7.561
74811SOL    HW126330  14.302  14.229   7.558
74811SOL    HW226331  14.309  14.096   7.631
74812SOL     OW26332  10.284   1.167   2.505
74812SOL    HW126333  10.233   1.171   2.424
74812SOL    HW226334  10.225   1.126   2.568
74813SOL     OW26335   5.226  12.837   1.488
74813SOL    HW126336   5.308  12.887   1.496
74813SOL    HW226337   5.210  12.803   1.576
74814SOL     OW26338   3.689   6.913   3.012
74814SOL    HW126339   3.600   6.881   3.000
74814SOL    HW226340   3.714   6.948   2.926
74815SOL     OW26341   3.070   5.312   5.514
74815SOL    HW126342   2.989   5.261   5.510
74815SOL    HW226343   3.117   5.289   5.435
74816SOL     OW26344   0.613   1.168  13.945
74816SOL    HW126345   0.642   1.250  13.904
74816SOL    HW226346   0.651   1.099  13.890
74817SOL     OW26347   7.372   0.193  11.038
74817SOL    HW126348   7.291   0.145  11.055
74817SOL    HW226349   7.343   0.282  11.019
74818SOL     OW26350  11.383  12.860   8.862
74818SOL    HW126351  11.447  12.930   8.873
74818SOL    HW226352  11.302  12.895   8.900
74819SOL     OW26353   4.795  10.326   7.214
74819SOL    HW126354   4.852  10.392   7.175
74819SOL    HW226355   4.711  10.336   7.168
74820SOL     OW26356   5.923  11.383   3.448
74820SOL    HW126357   5.869  11.350   3.520
74820SOL    HW226358   5.896  11.332   3.372
74821SOL     OW26359   0.719   9.873   3.359
74821SOL    HW126360   0.727   9.939   3.290
74821SOL    HW226361   0.794   9.815   3.346
74822SOL     OW26362   2.925   6.424  13.158
74822SOL    HW126363   2.926   6.518  13.140
74822SOL    HW226364   3.016   6.402  13.178
74823SOL     OW26365  13.611   3.309   1.492
74823SOL    HW126366  13.670   3.255   1.544
74823SOL    HW226367  13.596   3.387   1.545
74824SOL     OW26368   6.711   3.589   0.027
74824SOL    HW126369   6.666   3.628  14.829
74824SOL    HW226370   6.698   3.495   0.018
74825SOL     OW26371  13.329   6.508   8.535
74825SOL    HW126372  13.413   6.530   8.575
74825SOL    HW226373  13.310   6.581   8.476
74826SOL     OW26374   3.338  12.517   7.592
74826SOL    HW126375   3.269  12.510   7.658
74826SOL    HW226376   3.416  12.544   7.641
74827SOL     OW26377   2.923   8.311  12.038
74827SOL    HW126378   2.893   8.359  12.116
74827SOL    HW226379   2.918   8.376  11.967
74828SOL     OW26380   8.573   5.172  13.221
74828SOL    HW126381   8.548   5.136  13.307
74828SOL    HW226382   8.657   5.130  13.201
74829SOL     OW26383   3.734   4.374   7.321
74829SOL    HW126384   3.827   4.376   7.298
74829SOL    HW226385   3.699   4.456   7.286
74830SOL     OW26386  12.908  10.468  10.351
74830SOL    HW126387  12.995  10.493  10.321
74830SOL    HW226388  12.878  10.542  10.403
74831SOL     OW26389   4.363   2.189   7.221
74831SOL    HW126390   4.459   2.195   7.224
74831SOL    HW226391   4.339   2.150   7.305
74832SOL     OW26392   9.986   7.113  13.310
74832SOL    HW126393  10.021   7.024  13.317
74832SOL    HW226394  10.050   7.168  13.355
74833SOL     OW26395   7.734   6.804   2.678
74833SOL    HW126396   7.690   6.746   2.615
74833SOL    HW226397   7.737   6.753   2.759
74834SOL     OW26398   4.883   6.069  14.045
74834SOL    HW126399   4.858   6.144  14.099
74834SOL    HW226400   4.839   5.994  14.085
74835SOL     OW26401   2.797   9.371  12.220
74835SOL    HW126402   2.798   9.416  12.136
74835SOL    HW226403   2.857   9.297  12.209
74836SOL     OW26404   6.007   2.448  11.975
74836SOL    HW126405   5.940   2.490  12.029
74836SOL    HW226406   5.959   2.410  11.902
74837SOL     OW26407  11.159   3.491   4.909
74837SOL    HW126408  11.084   3.538   4.946
74837SOL    HW226409  11.220   3.483   4.982
74838SOL     OW26410   9.144   4.643  13.082
74838SOL    HW126411   9.086   4.698  13.137
74838SOL    HW226412   9.212   4.704  13.052
74839SOL     OW26413   1.715   6.329  13.948
74839SOL    HW126414   1.703   6.275  14.026
74839SOL    HW226415   1.786   6.287  13.900
74840SOL     OW26416   2.383   3.558  13.075
74840SOL    HW126417   2.444   3.550  13.149
74840SOL    HW226418   2.349   3.647  13.083
74841SOL     OW26419  13.848   3.007   7.143
74841SOL    HW126420  13.753   3.004   7.144
74841SOL    HW226421  13.874   2.962   7.224
74842SOL     OW26422   3.250   1.360   7.195
74842SOL    HW126423   3.200   1.412   7.258
74842SOL    HW226424   3.217   1.271   7.206
74843SOL     OW26425   2.216   2.321   2.451
74843SOL    HW126426   2.307   2.296   2.469
74843SOL    HW226427   2.216   2.416   2.452
74844SOL     OW26428   2.236   3.048   4.316
74844SOL    HW126429   2.276   3.135   4.311
74844SOL    HW226430   2.152   3.059   4.270
74845SOL     OW26431  13.615   5.871  11.027
74845SOL    HW126432  13.692   5.884  10.970
74845SOL    HW226433  13.644   5.900  11.113
74846SOL     OW26434   8.763   3.373   5.176
74846SOL    HW126435   8.769   3.457   5.131
74846SOL    HW226436   8.745   3.395   5.267
74847SOL     OW26437   0.864   9.115   4.661
74847SOL    HW126438   0.911   9.153   4.736
74847SOL    HW226439   0.931   9.109   4.592
74848SOL     OW26440  13.876  13.297   9.719
74848SOL    HW126441  13.828  13.374   9.750
74848SOL    HW226442  13.822  13.262   9.648
74849SOL     OW26443  13.484   2.866  11.502
74849SOL    HW126444  13.531   2.785  11.481
74849SOL    HW226445  13.552   2.930  11.520
74850SOL     OW26446  13.971   9.955   8.695
74850SOL    HW126447  13.949   9.862   8.693
74850SOL    HW226448  13.992   9.976   8.604
74851SOL     OW26449  11.395  10.360   5.079
74851SOL    HW126450  11.418  10.399   4.995
74851SOL    HW226451  11.407  10.432   5.142
74852SOL     OW26452   3.370  13.829   3.651
74852SOL    HW126453   3.280  13.821   3.620
74852SOL    HW226454   3.398  13.916   3.622
74853SOL     OW26455  10.364   5.332   3.630
74853SOL    HW126456  10.273   5.304   3.618
74853SOL    HW226457  10.412   5.251   3.647
74854SOL     OW26458   9.038  11.030  13.627
74854SOL    HW126459   8.991  11.107  13.658
74854SOL    HW226460   9.115  11.065  13.583
74855SOL     OW26461  13.017   8.057  10.291
74855SOL    HW126462  13.110   8.058  10.268
74855SOL    HW226463  13.016   8.067  10.386
74856SOL     OW26464   6.067  12.940   2.763
74856SOL    HW126465   6.081  12.941   2.669
74856SOL    HW226466   6.107  12.858   2.793
74857SOL     OW26467  10.049  12.421   4.688
74857SOL    HW126468  10.089  12.373   4.761
74857SOL    HW226469   9.958  12.391   4.687
74858SOL     OW26470   9.622  12.757   9.596
74858SOL    HW126471   9.530  12.779   9.613
74858SOL    HW226472   9.664  12.842   9.581
74859SOL     OW26473  12.959   3.624   3.709
74859SOL    HW126474  13.008   3.554   3.752
74859SOL    HW226475  12.995   3.705   3.746
74860SOL     OW26476   8.710   8.192  11.739
74860SOL    HW126477   8.710   8.100  11.713
74860SOL    HW226478   8.736   8.191  11.831
74861SOL     OW26479   5.662   1.280   8.683
74861SOL    HW126480   5.633   1.332   8.608
74861SOL    HW226481   5.602   1.305   8.753
74862SOL     OW26482  10.088   5.699   0.171
74862SOL    HW126483  10.031   5.649   0.229
74862SOL    HW226484  10.031   5.766   0.133
74863SOL     OW26485   9.447  14.090   1.594
74863SOL    HW126486   9.407  14.174   1.575
74863SOL    HW226487   9.446  14.043   1.511
74864SOL     OW26488   1.773  14.420   2.007
74864SOL    HW126489   1.744  14.505   2.040
74864SOL    HW226490   1.698  14.386   1.958
74865SOL     OW26491   5.537   1.666  11.848
74865SOL    HW126492   5.480   1.656  11.925
74865SOL    HW226493   5.592   1.741  11.869
74866SOL     OW26494  13.520   6.175  14.839
74866SOL    HW126495  13.614   6.173  14.817
74866SOL    HW226496  13.517   6.209   0.051
74867SOL     OW26497  14.810   7.538  11.745
74867SOL    HW126498  14.735   7.552  11.688
74867SOL    HW226499   0.006   7.580  11.700
74868SOL     OW26500  12.026  14.367   8.023
74868SOL    HW126501  12.076  14.407   8.095
74868SOL    HW226502  12.092  14.329   7.966
74869SOL     OW26503  13.639  12.055   1.659
74869SOL    HW126504  13.558  12.017   1.693
74869SOL    HW226505  13.610  12.128   1.604
74870SOL     OW26506   4.201   2.562   0.487
74870SOL    HW126507   4.204   2.504   0.411
74870SOL    HW226508   4.255   2.637   0.462
74871SOL     OW26509   6.165   8.167  12.869
74871SOL    HW126510   6.225   8.173  12.943
74871SOL    HW226511   6.223   8.158  12.792
74872SOL     OW26512   0.769   2.923  11.794
74872SOL    HW126513   0.789   2.833  11.820
74872SOL    HW226514   0.820   2.977  11.855
74873SOL     OW26515   8.228  11.982   9.184
74873SOL    HW126516   8.141  11.950   9.208
74873SOL    HW226517   8.255  11.927   9.111
74874SOL     OW26518   4.806   6.372   7.197
74874SOL    HW126519   4.762   6.443   7.244
74874SOL    HW226520   4.897   6.376   7.228
74875SOL     OW26521  11.908   5.225   8.575
74875SOL    HW126522  11.908   5.172   8.496
74875SOL    HW226523  11.840   5.187   8.630
74876SOL     OW26524   4.708   2.093  14.110
74876SOL    HW126525   4.713   2.088  14.015
74876SOL    HW226526   4.641   2.030  14.134
74877SOL     OW26527   4.100   2.410  13.332
74877SOL    HW126528   4.138   2.431  13.417
74877SOL    HW226529   4.038   2.339  13.350
74878SOL     OW26530  11.804   0.684   8.093
74878SOL    HW126531  11.779   0.686   8.186
74878SOL    HW226532  11.898   0.702   8.094
74879SOL     OW26533   2.009   7.086  14.544
74879SOL    HW126534   1.954   7.030  14.489
74879SOL    HW226535   2.062   7.135  14.482
74880SOL     OW26536   1.330   1.221  14.216
74880SOL    HW126537   1.280   1.147  14.249
74880SOL    HW226538   1.263   1.280  14.180
74881SOL     OW26539   6.729  14.630  14.277
74881SOL    HW126540   6.672  14.582  14.336
74881SOL    HW226541   6.761  14.704  14.328
74882SOL     OW26542   8.173   8.802  12.767
74882SOL    HW126543   8.103   8.852  12.809
74882SOL    HW226544   8.145   8.793  12.676
74883SOL     OW26545   3.945  14.089   7.271
74883SOL    HW126546   4.027  14.042   7.289
74883SOL    HW226547   3.970  14.156   7.208
74884SOL     OW26548  11.907  12.326   6.833
74884SOL    HW126549  11.916  12.318   6.928
74884SOL    HW226550  11.826  12.377   6.821
74885SOL     OW26551  11.942   6.901   9.727
74885SOL    HW126552  11.975   6.977   9.775
74885SOL    HW226553  11.847   6.907   9.736
74886SOL     OW26554  11.190   5.504  12.425
74886SOL    HW126555  11.195   5.478  12.333
74886SOL    HW226556  11.118   5.452  12.461
74887SOL     OW26557  10.645   4.430  14.707
74887SOL    HW126558  10.598   4.512  14.690
74887SOL    HW226559  10.684   4.408  14.622
74888SOL     OW26560   8.039  13.415  11.493
74888SOL    HW126561   7.959  13.371  11.465
74888SOL    HW226562   8.109  13.355  11.467
74889SOL     OW26563   9.409  13.055   8.529
74889SOL    HW126564   9.401  13.135   8.581
74889SOL    HW226565   9.319  13.035   8.502
74890SOL     OW26566  11.059   3.730   3.523
74890SOL    HW126567  10.967   3.756   3.532
74890SOL    HW226568  11.055   3.646   3.476
74891SOL     OW26569   2.172   2.558  12.498
74891SOL    HW126570   2.129   2.638  12.467
74891SOL    HW226571   2.116   2.527  12.569
74892SOL     OW26572   1.524   3.734   6.413
74892SOL    HW126573   1.618   3.752   6.402
74892SOL    HW226574   1.494   3.800   6.476
74893SOL     OW26575   8.285   3.233   7.219
74893SOL    HW126576   8.205   3.254   7.268
74893SOL    HW226577   8.356   3.246   7.281
74894SOL     OW26578   7.744  11.746   6.397
74894SOL    HW126579   7.837  11.736   6.377
74894SOL    HW226580   7.741  11.819   6.460
74895SOL     OW26581   0.756   6.173  12.502
74895SOL    HW126582   0.843   6.209  12.519
74895SOL    HW226583   0.716   6.236  12.442
74896SOL     OW26584   2.638   8.610   0.621
74896SOL    HW126585   2.611   8.530   0.666
74896SOL    HW226586   2.669   8.579   0.535
74897SOL     OW26587   1.021   2.001   8.628
74897SOL    HW126588   1.076   2.023   8.703
74897SOL    HW226589   1.076   2.019   8.552
74898SOL     OW26590   8.508   4.342   4.095
74898SOL    HW126591   8.491   4.429   4.131
74898SOL    HW226592   8.557   4.358   4.015
74899SOL     OW26593   9.228  14.603  14.421
74899SOL    HW126594   9.144  14.572  14.456
74899SOL    HW226595   9.218  14.698  14.416
74900SOL     OW26596   0.124   4.240   3.749
74900SOL    HW126597   0.088   4.254   3.662
74900SOL    HW226598   0.047   4.221   3.804
74901SOL     OW26599  13.059  12.793  12.609
74901SOL    HW126600  13.045  12.748  12.693
74901SOL    HW226601  13.153  12.789  12.595
74902SOL     OW26602  11.700   6.427  13.209
74902SOL    HW126603  11.737   6.478  13.137
74902SOL    HW226604  11.746   6.458  13.287
74903SOL     OW26605   5.687   1.540  12.821
74903SOL    HW126606   5.737   1.530  12.740
74903SOL    HW226607   5.731   1.611  12.868
74904SOL     OW26608   3.689   8.337   4.200
74904SOL    HW126609   3.637   8.261   4.226
74904SOL    HW226610   3.701   8.387   4.282
74905SOL     OW26611   3.906   0.200   0.939
74905SOL    HW126612   3.850   0.275   0.920
74905SOL    HW226613   3.862   0.155   1.011
74906SOL     OW26614   5.458   5.479   4.419
74906SOL    HW126615   5.398   5.505   4.349
74906SOL    HW226616   5.488   5.562   4.457
74907SOL     OW26617  14.289   8.403   8.811
74907SOL    HW126618  14.206   8.379   8.770
74907SOL    HW226619  14.323   8.474   8.756
74908SOL     OW26620   8.242   4.122  13.966
74908SOL    HW126621   8.201   4.165  13.891
74908SOL    HW226622   8.307   4.185  13.998
74909SOL     OW26623  12.947   0.031  11.249
74909SOL    HW126624  12.860   0.064  11.229
74909SOL    HW226625  12.972  14.858  11.172
74910SOL     OW26626   7.386   7.990   2.228
74910SOL    HW126627   7.314   8.036   2.183
74910SOL    HW226628   7.431   8.058   2.278
74911SOL     OW26629   9.701   6.003   5.089
74911SOL    HW126630   9.656   6.063   5.148
74911SOL    HW226631   9.671   6.029   5.001
74912SOL     OW26632  10.097  13.541  11.574
74912SOL    HW126633  10.087  13.620  11.521
74912SOL    HW226634  10.148  13.570  11.649
74913SOL     OW26635   4.375   2.620  12.347
74913SOL    HW126636   4.388   2.600  12.254
74913SOL    HW226637   4.452   2.671  12.372
74914SOL     OW26638  11.294   4.029   1.886
74914SOL    HW126639  11.227   3.969   1.918
74914SOL    HW226640  11.248   4.085   1.823
74915SOL     OW26641   4.474  12.410  13.740
74915SOL    HW126642   4.522  12.465  13.802
74915SOL    HW226643   4.472  12.462  13.660
74916SOL     OW26644   2.251   0.399   3.611
74916SOL    HW126645   2.259   0.482   3.657
74916SOL    HW226646   2.185   0.415   3.544
74917SOL     OW26647   8.049   0.754   1.168
74917SOL    HW126648   8.018   0.664   1.158
74917SOL    HW226649   8.130   0.757   1.117
74918SOL     OW26650  13.775   8.743   6.417
74918SOL    HW126651  13.681   8.757   6.408
74918SOL    HW226652  13.806   8.818   6.467
74919SOL     OW26653   6.573   2.540  10.906
74919SOL    HW126654   6.559   2.565  10.997
74919SOL    HW226655   6.651   2.589  10.879
74920SOL     OW26656   5.431  12.609   7.679
74920SOL    HW126657   5.393  12.649   7.757
74920SOL    HW226658   5.499  12.551   7.712
74921SOL     OW26659  13.460  14.660   4.884
74921SOL    HW126660  13.516  14.695   4.814
74921SOL    HW226661  13.457  14.566   4.866
74922SOL     OW26662   3.906  11.273   6.640
74922SOL    HW126663   3.834  11.223   6.601
74922SOL    HW226664   3.898  11.256   6.734
74923SOL     OW26665  14.831   7.746  10.517
74923SOL    HW126666  14.741   7.754  10.547
74923SOL    HW226667  14.873   7.828  10.544
74924SOL     OW26668   1.910   7.863  12.714
74924SOL    HW126669   1.828   7.903  12.742
74924SOL    HW226670   1.883   7.786  12.664
74925SOL     OW26671   3.183  10.702   6.442
74925SOL    HW126672   3.203  10.705   6.536
74925SOL    HW226673   3.187  10.794   6.415
74926SOL     OW26674   0.622   2.968   3.197
74926SOL    HW126675   0.553   2.984   3.133
74926SOL    HW226676   0.617   3.042   3.258
74927SOL     OW26677  11.534  10.595   5.525
74927SOL    HW126678  11.528  10.553   5.611
74927SOL    HW226679  11.448  10.635   5.512
74928SOL     OW26680  11.234   5.250   7.963
74928SOL    HW126681  11.157   5.193   7.971
74928SOL    HW226682  11.203   5.324   7.912
74929SOL     OW26683   5.205  13.437  11.097
74929SOL    HW126684   5.203  13.349  11.134
74929SOL    HW226685   5.281  13.437  11.038
74930SOL     OW26686  11.412   7.903   7.387
74930SOL    HW126687  11.489   7.953   7.361
74930SOL    HW226688  11.441   7.847   7.459
74931SOL     OW26689   7.228   4.456   6.931
74931SOL    HW126690   7.261   4.466   6.841
74931SOL    HW226691   7.213   4.362   6.940
74932SOL     OW26692   0.125   9.883  14.393
74932SOL    HW126693   0.104   9.873  14.485
74932SOL    HW226694   0.211   9.841  14.384
74933SOL     OW26695  11.353  11.959  12.642
74933SOL    HW126696  11.394  11.956  12.555
74933SOL    HW226697  11.296  12.036  12.639
74934SOL     OW26698   7.107  14.361  11.567
74934SOL    HW126699   7.097  14.356  11.662
74934SOL    HW226700   7.119  14.270  11.539
74935SOL     OW26701   8.461   1.153  11.046
74935SOL    HW126702   8.392   1.097  11.082
74935SOL    HW226703   8.519   1.169  11.119
74936SOL     OW26704   0.400   8.181  13.422
74936SOL    HW126705   0.473   8.238  13.446
74936SOL    HW226706   0.435   8.093  13.434
74937SOL     OW26707   2.702   7.565   7.082
74937SOL    HW126708   2.662   7.640   7.125
74937SOL    HW226709   2.635   7.532   7.022
74938SOL     OW26710  14.708   5.863   0.367
74938SOL    HW126711  14.654   5.790   0.338
74938SOL    HW226712  14.644   5.930   0.394
74939SOL     OW26713  13.686  14.705  11.840
74939SOL    HW126714  13.745  14.645  11.886
74939SOL    HW226715  13.737  14.785  11.831
74940SOL     OW26716  11.477   6.266   6.433
74940SOL    HW126717  11.552   6.207   6.424
74940SOL    HW226718  11.480   6.297   6.524
74941SOL     OW26719  13.319   2.660  14.258
74941SOL    HW126720  13.276   2.579  14.229
74941SOL    HW226721  13.310   2.659  14.353
74942SOL     OW26722   6.191  13.733  11.087
74942SOL    HW126723   6.163  13.704  11.174
74942SOL    HW226724   6.282  13.703  11.080
74943SOL     OW26725   1.375   5.661  12.563
74943SOL    HW126726   1.411   5.749  12.546
74943SOL    HW226727   1.339   5.667  12.651
74944SOL     OW26728   5.411   3.766  13.292
74944SOL    HW126729   5.494   3.802  13.324
74944SOL    HW226730   5.437   3.694  13.236
74945SOL     OW26731   5.986   9.772   6.105
74945SOL    HW126732   6.070   9.765   6.059
74945SOL    HW226733   5.965   9.682   6.130
74946SOL     OW26734   5.680   4.554   2.191
74946SOL    HW126735   5.728   4.527   2.270
74946SOL    HW226736   5.685   4.479   2.133
74947SOL     OW26737   5.014   1.393  10.413
74947SOL    HW126738   5.057   1.479  10.417
74947SOL    HW226739   4.926   1.409  10.446
74948SOL     OW26740   0.493  13.763  13.911
74948SOL    HW126741   0.405  13.773  13.948
74948SOL    HW226742   0.500  13.670  13.890
74949SOL     OW26743   1.037   6.436  14.673
74949SOL    HW126744   1.111   6.375  14.676
74949SOL    HW226745   0.989   6.420  14.754
74950SOL     OW26746   8.561   5.600  10.960
74950SOL    HW126747   8.632   5.628  11.018
74950SOL    HW226748   8.546   5.675  10.903
74951SOL     OW26749   3.085  13.078   6.469
74951SOL    HW126750   3.122  12.995   6.439
74951SOL    HW226751   3.046  13.117   6.391
74952SOL     OW26752   0.645   8.299  11.290
74952SOL    HW126753   0.685   8.253  11.215
74952SOL    HW226754   0.696   8.269  11.366
74953SOL     OW26755   0.469   2.216   4.309
74953SOL    HW126756   0.558   2.219   4.343
74953SOL    HW226757   0.479   2.212   4.214
74954SOL     OW26758   5.804  13.724   6.577
74954SOL    HW126759   5.883  13.760   6.617
74954SOL    HW226760   5.796  13.636   6.616
74955SOL     OW26761  11.717   4.394   7.481
74955SOL    HW126762  11.798   4.362   7.523
74955SOL    HW226763  11.716   4.487   7.501
74956SOL     OW26764  13.419   8.554  11.382
74956SOL    HW126765  13.498   8.582  11.428
74956SOL    HW226766  13.389   8.477  11.431
74957SOL     OW26767  13.572  12.894   9.012
74957SOL    HW126768  13.532  12.927   9.092
74957SOL    HW226769  13.612  12.811   9.038
74958SOL     OW26770  13.694   1.111  10.014
74958SOL    HW126771  13.687   1.177  10.082
74958SOL    HW226772  13.604   1.093   9.987
74959SOL     OW26773   8.544   1.327   5.978
74959SOL    HW126774   8.588   1.369   5.904
74959SOL    HW226775   8.483   1.264   5.938
74960SOL     OW26776   5.100  13.786   5.211
74960SOL    HW126777   5.192  13.809   5.201
74960SOL    HW226778   5.101  13.704   5.260
74961SOL     OW26779  10.735  14.655   2.284
74961SOL    HW126780  10.702  14.707   2.211
74961SOL    HW226781  10.697  14.696   2.362
74962SOL     OW26782   3.750  11.469  11.544
74962SOL    HW126783   3.728  11.470  11.451
74962SOL    HW226784   3.795  11.552  11.559
74963SOL     OW26785  13.911   7.579   8.903
74963SOL    HW126786  13.933   7.599   8.994
74963SOL    HW226787  13.973   7.631   8.851
74964SOL     OW26788   5.056  11.704  13.339
74964SOL    HW126789   5.009  11.701  13.422
74964SOL    HW226790   4.995  11.669  13.275
74965SOL     OW26791  12.103   8.149   4.613
74965SOL    HW126792  12.160   8.079   4.581
74965SOL    HW226793  12.082   8.123   4.702
74966SOL     OW26794  11.179  10.938   5.658
74966SOL    HW126795  11.224  11.014   5.695
74966SOL    HW226796  11.116  10.912   5.725
74967SOL     OW26797  11.876   6.879  10.426
74967SOL    HW126798  11.937   6.884  10.499
74967SOL    HW226799  11.791   6.860  10.467
74968SOL     OW26800   7.849   5.346  12.391
74968SOL    HW126801   7.853   5.418  12.454
74968SOL    HW226802   7.756   5.326  12.382
74969SOL     OW26803  13.899   2.285   4.862
74969SOL    HW126804  13.876   2.345   4.933
74969SOL    HW226805  13.988   2.309   4.838
74970SOL     OW26806   5.136  14.200   0.105
74970SOL    HW126807   5.221  14.221   0.065
74970SOL    HW226808   5.073  14.254   0.057
74971SOL     OW26809   2.283  10.761   6.371
74971SOL    HW126810   2.204  10.749   6.424
74971SOL    HW226811   2.353  10.725   6.425
74972SOL     OW26812   8.934  10.611   6.770
74972SOL    HW126813   8.911  10.692   6.815
74972SOL    HW226814   8.862  10.551   6.790
74973SOL     OW26815   7.079  13.681   3.281
74973SOL    HW126816   7.067  13.658   3.188
74973SOL    HW226817   7.113  13.601   3.321
74974SOL     OW26818   3.472   0.306   1.484
74974SOL    HW126819   3.453   0.223   1.527
74974SOL    HW226820   3.536   0.349   1.541
74975SOL     OW26821   7.197   0.751   9.420
74975SOL    HW126822   7.170   0.700   9.496
74975SOL    HW226823   7.164   0.840   9.437
74976SOL     OW26824   6.210   9.236   9.156
74976SOL    HW126825   6.259   9.157   9.133
74976SOL    HW226826   6.120   9.205   9.167
74977SOL     OW26827   8.306  12.767   3.514
74977SOL    HW126828   8.264  12.774   3.428
74977SOL    HW226829   8.327  12.857   3.538
74978SOL     OW26830  12.827  11.608   8.179
74978SOL    HW126831  12.736  11.634   8.166
74978SOL    HW226832  12.860  11.670   8.244
74979SOL     OW26833  10.204  12.573   2.385
74979SOL    HW126834  10.199  12.511   2.312
74979SOL    HW226835  10.246  12.651   2.347
74980SOL     OW26836   5.347  12.395  10.156
74980SOL    HW126837   5.436  12.361  10.143
74980SOL    HW226838   5.290  12.329  10.115
74981SOL     OW26839  11.503  13.828  12.296
74981SOL    HW126840  11.567  13.860  12.233
74981SOL    HW226841  11.437  13.783  12.243
74982SOL     OW26842   4.777  13.824   8.451
74982SOL    HW126843   4.776  13.887   8.379
74982SOL    HW226844   4.687  13.794   8.458
74983SOL     OW26845  11.199   8.736   1.399
74983SOL    HW126846  11.105   8.732   1.412
74983SOL    HW226847  11.211   8.740   1.304
74984SOL     OW26848   6.939   3.381   5.582
74984SOL    HW126849   6.958   3.439   5.656
74984SOL    HW226850   6.988   3.301   5.601
74985SOL     OW26851   3.600  13.453   0.989
74985SOL    HW126852   3.657  13.513   1.037
74985SOL    HW226853   3.600  13.373   1.042
74986SOL     OW26854  10.992   0.578   3.896
74986SOL    HW126855  10.922   0.607   3.837
74986SOL    HW226856  11.069   0.627   3.867
74987SOL     OW26857   8.154   3.251   3.107
74987SOL    HW126858   8.127   3.169   3.064
74987SOL    HW226859   8.108   3.319   3.058
74988SOL     OW26860  10.364   1.270  12.691
74988SOL    HW126861  10.357   1.299  12.782
74988SOL    HW226862  10.311   1.191  12.687
74989SOL     OW26863  10.712   2.461   1.874
74989SOL    HW126864  10.744   2.464   1.783
74989SOL    HW226865  10.705   2.552   1.900
74990SOL     OW26866  10.183   2.813   2.465
74990SOL    HW126867  10.101   2.858   2.487
74990SOL    HW226868  10.155   2.725   2.441
74991SOL     OW26869  10.996  14.186   9.000
74991SOL    HW126870  10.905  14.199   9.029
74991SOL    HW226871  11.049  14.235   9.062
74992SOL     OW26872  14.850   0.388   7.389
74992SOL    HW126873  14.810   0.426   7.468
74992SOL    HW226874  14.781   0.334   7.351
74993SOL     OW26875  12.747  12.931   4.552
74993SOL    HW126876  12.808  12.961   4.485
74993SOL    HW226877  12.764  12.987   4.627
74994SOL     OW26878  13.871  13.697   2.038
74994SOL    HW126879  13.958  13.665   2.016
74994SOL    HW226880  13.860  13.775   1.983
74995SOL     OW26881   2.566   7.578  13.446
74995SOL    HW126882   2.517   7.544  13.371
74995SOL    HW226883   2.657   7.566  13.422
74996SOL     OW26884   3.328   9.227   1.990
74996SOL    HW126885   3.261   9.295   1.998
74996SOL    HW226886   3.303   9.160   2.053
74997SOL     OW26887   6.767   5.106   3.050
74997SOL    HW126888   6.682   5.128   3.012
74997SOL    HW226889   6.820   5.080   2.975
74998SOL     OW26890  10.318  14.069   3.421
74998SOL    HW126891  10.234  14.113   3.428
74998SOL    HW226892  10.359  14.083   3.507
74999SOL     OW26893   6.480   3.968   8.384
74999SOL    HW126894   6.447   4.005   8.466
74999SOL    HW226895   6.431   4.014   8.316
75000SOL     OW26896   4.904   5.295   1.546
75000SOL    HW126897   4.907   5.261   1.636
75000SOL    HW226898   4.933   5.222   1.492
75001SOL     OW26899  14.028   6.069  14.314
75001SOL    HW126900  13.975   6.123  14.256
75001SOL    HW226901  14.093   6.029  14.255
75002SOL     OW26902  13.775   1.901  12.603
75002SOL    HW126903  13.688   1.932  12.578
75002SOL    HW226904  13.791   1.826  12.546
75003SOL     OW26905   4.909  11.836   5.536
75003SOL    HW126906   4.901  11.891   5.458
75003SOL    HW226907   4.934  11.896   5.606
75004SOL     OW26908  13.673   9.997  12.287
75004SOL    HW126909  13.704   9.992  12.196
75004SOL    HW226910  13.642  10.087  12.296
75005SOL     OW26911   4.490   7.755   3.198
75005SOL    HW126912   4.524   7.753   3.288
75005SOL    HW226913   4.460   7.846   3.186
75006SOL     OW26914  12.965   7.483   5.614
75006SOL    HW126915  13.040   7.453   5.665
75006SOL    HW226916  12.962   7.424   5.538
75007SOL     OW26917  10.906   3.667  11.233
75007SOL    HW126918  10.849   3.739  11.205
75007SOL    HW226919  10.986   3.709  11.262
75008SOL     OW26920   3.098  14.390  12.228
75008SOL    HW126921   3.127  14.470  12.273
75008SOL    HW226922   3.006  14.382  12.251
75009SOL     OW26923   1.764   1.841   1.290
75009SOL    HW126924   1.782   1.750   1.268
75009SOL    HW226925   1.797   1.851   1.379
75010SOL     OW26926   6.291   0.421  11.363
75010SOL    HW126927   6.261   0.345  11.312
75010SOL    HW226928   6.387   0.420  11.353
75011SOL     OW26929   9.279  13.498   1.233
75011SOL    HW126930   9.229  13.572   1.201
75011SOL    HW226931   9.270  13.502   1.329
75012SOL     OW26932   6.163   1.634  13.721
75012SOL    HW126933   6.241   1.646  13.667
75012SOL    HW226934   6.105   1.707  13.698
75013SOL     OW26935   1.081   7.772   2.866
75013SOL    HW126936   1.108   7.684   2.839
75013SOL    HW226937   1.049   7.761   2.955
75014SOL     OW26938   9.042  11.992   4.165
75014SOL    HW126939   9.032  11.906   4.125
75014SOL    HW226940   8.978  11.992   4.236
75015SOL     OW26941  10.213  13.832   1.223
75015SOL    HW126942  10.303  13.809   1.199
75015SOL    HW226943  10.222  13.881   1.305
75016SOL     OW26944  10.552   0.971   1.289
75016SOL    HW126945  10.573   0.941   1.200
75016SOL    HW226946  10.616   1.041   1.306
75017SOL     OW26947   0.615   1.440   6.202
75017SOL    HW126948   0.559   1.363   6.196
75017SOL    HW226949   0.649   1.437   6.291
75018SOL     OW26950   6.889   6.556   7.468
75018SOL    HW126951   6.945   6.478   7.476
75018SOL    HW226952   6.852   6.567   7.556
75019SOL     OW26953   7.723  10.944   4.008
75019SOL    HW126954   7.761  10.997   3.938
75019SOL    HW226955   7.752  10.855   3.990
75020SOL     OW26956   0.610   8.518  11.598
75020SOL    HW126957   0.580   8.521  11.507
75020SOL    HW226958   0.560   8.586  11.642
75021SOL     OW26959   2.229   7.729  12.278
75021SOL    HW126960   2.275   7.663  12.227
75021SOL    HW226961   2.281   7.808  12.268
75022SOL     OW26962   5.735   9.477   3.463
75022SOL    HW126963   5.750   9.422   3.386
75022SOL    HW226964   5.731   9.566   3.429
75023SOL     OW26965   1.372   7.770  12.211
75023SOL    HW126966   1.315   7.812  12.276
75023SOL    HW226967   1.350   7.814  12.128
75024SOL     OW26968   7.542   2.639  12.726
75024SOL    HW126969   7.556   2.665  12.635
75024SOL    HW226970   7.474   2.697  12.758
75025SOL     OW26971   3.500  11.764   7.443
75025SOL    HW126972   3.494  11.859   7.450
75025SOL    HW226973   3.410  11.735   7.430
75026SOL     OW26974   5.347   1.816  12.748
75026SOL    HW126975   5.281   1.768  12.698
75026SOL    HW226976   5.321   1.803  12.840
75027SOL     OW26977   6.074   5.261   8.067
75027SOL    HW126978   6.142   5.318   8.104
75027SOL    HW226979   5.998   5.317   8.059
75028SOL     OW26980   3.660   7.993  12.177
75028SOL    HW126981   3.657   7.904  12.142
75028SOL    HW226982   3.582   8.035  12.142
75029SOL     OW26983   7.969   3.229   5.356
75029SOL    HW126984   8.026   3.298   5.323
75029SOL    HW226985   8.029   3.157   5.376
75030SOL     OW26986   8.486  11.582   1.476
75030SOL    HW126987   8.535  11.510   1.515
75030SOL    HW226988   8.486  11.650   1.544
75031SOL     OW26989   5.866   8.624  12.349
75031SOL    HW126990   5.923   8.692  12.384
75031SOL    HW226991   5.794   8.618  12.412
75032SOL     OW26992   8.218   2.023   9.251
75032SOL    HW126993   8.281   1.989   9.188
75032SOL    HW226994   8.180   2.100   9.209
75033SOL     OW26995   0.488   4.261   4.250
75033SOL    HW126996   0.459   4.200   4.319
75033SOL    HW226997   0.583   4.247   4.245
75034SOL     OW26998   1.236   9.216   4.231
75034SOL    HW126999   1.184   9.280   4.182
75034SOL    HW227000   1.246   9.142   4.171
75035SOL     OW27001   2.541   3.273   8.102
75035SOL    HW127002   2.541   3.262   8.197
75035SOL    HW227003   2.619   3.325   8.085
75036SOL     OW27004   0.753   0.992   5.866
75036SOL    HW127005   0.787   1.043   5.939
75036SOL    HW227006   0.829   0.945   5.831
75037SOL     OW27007  11.200  10.189   3.681
75037SOL    HW127008  11.283  10.174   3.635
75037SOL    HW227009  11.181  10.105   3.724
75038SOL     OW27010  12.221   5.211  10.206
75038SOL    HW127011  12.295   5.152  10.194
75038SOL    HW227012  12.234   5.279  10.140
75039SOL     OW27013   4.887  12.278   7.708
75039SOL    HW127014   4.941  12.268   7.786
75039SOL    HW227015   4.927  12.350   7.660
75040SOL     OW27016   7.940   3.242  11.034
75040SOL    HW127017   7.870   3.276  11.091
75040SOL    HW227018   7.921   3.149  11.025
75041SOL     OW27019   3.185  11.985   8.123
75041SOL    HW127020   3.279  12.001   8.112
75041SOL    HW227021   3.150  12.072   8.145
75042SOL     OW27022   9.706   7.670   2.170
75042SOL    HW127023   9.696   7.631   2.257
75042SOL    HW227024   9.619   7.701   2.148
75043SOL     OW27025  10.819   0.397  14.438
75043SOL    HW127026  10.811   0.492  14.449
75043SOL    HW227027  10.753   0.360  14.497
75044SOL     OW27028   1.612   7.165   7.839
75044SOL    HW127029   1.645   7.181   7.751
75044SOL    HW227030   1.677   7.205   7.897
75045SOL     OW27031   9.252   1.198   1.692
75045SOL    HW127032   9.175   1.147   1.716
75045SOL    HW227033   9.220   1.289   1.689
75046SOL     OW27034   8.692  11.345  10.444
75046SOL    HW127035   8.735  11.416  10.397
75046SOL    HW227036   8.659  11.287  10.376
75047SOL     OW27037  14.370   0.465  12.218
75047SOL    HW127038  14.355   0.427  12.131
75047SOL    HW227039  14.448   0.519  12.208
75048SOL     OW27040   0.227  13.071   5.067
75048SOL    HW127041   0.318  13.100   5.057
75048SOL    HW227042   0.222  12.989   5.017
75049SOL     OW27043   2.190   2.860   7.338
75049SOL    HW127044   2.183   2.766   7.352
75049SOL    HW227045   2.100   2.888   7.321
75050SOL     OW27046   2.015  14.203  14.496
75050SOL    HW127047   2.070  14.126  14.511
75050SOL    HW227048   1.938  14.168  14.451
75051SOL     OW27049   3.068  13.444  14.283
75051SOL    HW127050   3.063  13.517  14.345
75051SOL    HW227051   3.105  13.481  14.204
75052SOL     OW27052   0.381   9.244   4.749
75052SOL    HW127053   0.464   9.260   4.704
75052SOL    HW227054   0.314   9.278   4.689
75053SOL     OW27055   1.860   2.947  10.158
75053SOL    HW127056   1.939   2.920  10.110
75053SOL    HW227057   1.791   2.949  10.092
75054SOL     OW27058   4.611   9.394   0.842
75054SOL    HW127059   4.686   9.367   0.788
75054SOL    HW227060   4.597   9.320   0.902
75055SOL     OW27061   4.838  12.027   9.987
75055SOL    HW127062   4.877  11.949  10.026
75055SOL    HW227063   4.855  12.096  10.051
75056SOL     OW27064  12.528   5.896   1.912
75056SOL    HW127065  12.496   5.966   1.855
75056SOL    HW227066  12.610   5.931   1.949
75057SOL     OW27067   5.998   4.122   7.781
75057SOL    HW127068   5.992   4.061   7.708
75057SOL    HW227069   6.010   4.208   7.740
75058SOL     OW27070   3.688  14.684   3.759
75058SOL    HW127071   3.600  14.720   3.775
75058SOL    HW227072   3.741  14.760   3.737
75059SOL     OW27073   2.272   9.634   5.557
75059SOL    HW127074   2.245   9.696   5.625
75059SOL    HW227075   2.339   9.681   5.507
75060SOL     OW27076   8.156   4.775   0.580
75060SOL    HW127077   8.193   4.789   0.667
75060SOL    HW227078   8.227   4.736   0.529
75061SOL     OW27079   3.599   8.766  11.129
75061SOL    HW127080   3.670   8.760  11.193
75061SOL    HW227081   3.582   8.675  11.103
75062SOL     OW27082   3.871   4.853   7.703
75062SOL    HW127083   3.846   4.823   7.615
75062SOL    HW227084   3.962   4.826   7.712
75063SOL     OW27085   2.891  10.175  13.040
75063SOL    HW127086   2.811  10.191  13.090
75063SOL    HW227087   2.956  10.148  13.105
75064SOL     OW27088   6.798   6.833  12.516
75064SOL    HW127089   6.778   6.768  12.449
75064SOL    HW227090   6.734   6.903  12.502
75065SOL     OW27091   7.046   6.859  14.084
75065SOL    HW127092   7.067   6.925  14.150
75065SOL    HW227093   7.115   6.794  14.093
75066SOL     OW27094   4.717   6.237   3.311
75066SOL    HW127095   4.765   6.287   3.244
75066SOL    HW227096   4.709   6.149   3.274
75067SOL     OW27097   5.424  10.064   4.572
75067SOL    HW127098   5.439  10.113   4.653
75067SOL    HW227099   5.443   9.973   4.595
75068SOL     OW27100   5.936   9.389   6.951
75068SOL    HW127101   6.018   9.383   6.902
75068SOL    HW227102   5.955   9.451   7.022
75069SOL     OW27103  13.699  14.407   4.100
75069SOL    HW127104  13.764  14.341   4.076
75069SOL    HW227105  13.646  14.365   4.167
75070SOL     OW27106  11.455   8.565   0.264
75070SOL    HW127107  11.504   8.634   0.309
75070SOL    HW227108  11.485   8.570   0.173
75071SOL     OW27109   8.698   8.316   4.787
75071SOL    HW127110   8.717   8.358   4.870
75071SOL    HW227111   8.608   8.283   4.797
75072SOL     OW27112   0.544   6.004   5.277
75072SOL    HW127113   0.547   6.003   5.372
75072SOL    HW227114   0.541   6.096   5.254
75073SOL     OW27115   6.202   4.611  13.377
75073SOL    HW127116   6.184   4.536  13.320
75073SOL    HW227117   6.285   4.589  13.420
75074SOL     OW27118   4.794   4.800   9.149
75074SOL    HW127119   4.755   4.755   9.074
75074SOL    HW227120   4.849   4.733   9.191
75075SOL     OW27121  14.153   1.639   8.241
75075SOL    HW127122  14.228   1.591   8.204
75075SOL    HW227123  14.188   1.681   8.320
75076SOL     OW27124   1.867   8.749  11.204
75076SOL    HW127125   1.912   8.690  11.265
75076SOL    HW227126   1.842   8.824  11.258
75077SOL     OW27127   7.197  14.202   5.601
75077SOL    HW127128   7.103  14.218   5.602
75077SOL    HW227129   7.235  14.281   5.639
75078SOL     OW27130   7.576   6.324   0.251
75078SOL    HW127131   7.583   6.230   0.269
75078SOL    HW227132   7.586   6.365   0.337
75079SOL     OW27133   1.893   1.470   6.223
75079SOL    HW127134   1.817   1.434   6.178
75079SOL    HW227135   1.858   1.502   6.306
75080SOL     OW27136   4.553  14.515   2.474
75080SOL    HW127137   4.553  14.551   2.385
75080SOL    HW227138   4.463  14.484   2.487
75081SOL     OW27139   8.563   2.717  12.774
75081SOL    HW127140   8.472   2.731  12.746
75081SOL    HW227141   8.615   2.734  12.696
75082SOL     OW27142   7.054   1.291   8.028
75082SOL    HW127143   7.096   1.374   8.050
75082SOL    HW227144   7.057   1.286   7.933
75083SOL     OW27145   5.625  10.843   8.592
75083SOL    HW127146   5.531  10.841   8.575
75083SOL    HW227147   5.652  10.751   8.595
75084SOL     OW27148   3.728   6.511   0.614
75084SOL    HW127149   3.804   6.522   0.557
75084SOL    HW227150   3.654   6.542   0.562
75085SOL     OW27151  10.077   9.743  11.554
75085SOL    HW127152  10.042   9.681  11.618
75085SOL    HW227153  10.163   9.767  11.588
75086SOL     OW27154   9.206  10.162  12.273
75086SOL    HW127155   9.255  10.080  12.281
75086SOL    HW227156   9.119  10.135  12.244
75087SOL     OW27157  13.343  12.711   8.942
75087SOL    HW127158  13.424  12.732   8.894
75087SOL    HW227159  13.362  12.629   8.987
75088SOL     OW27160   0.196   1.779   3.220
75088SOL    HW127161   0.234   1.742   3.140
75088SOL    HW227162   0.148   1.707   3.260
75089SOL     OW27163   5.131   6.495   2.651
75089SOL    HW127164   5.196   6.470   2.585
75089SOL    HW227165   5.047   6.486   2.606
75090SOL     OW27166   7.537   1.270  12.597
75090SOL    HW127167   7.459   1.260  12.651
75090SOL    HW227168   7.504   1.296  12.511
75091SOL     OW27169  10.296   6.163   9.371
75091SOL    HW127170  10.352   6.113   9.311
75091SOL    HW227171  10.210   6.122   9.363
75092SOL     OW27172   8.351   3.451   0.458
75092SOL    HW127173   8.303   3.532   0.475
75092SOL    HW227174   8.414   3.475   0.389
75093SOL     OW27175  11.581   9.801   2.390
75093SOL    HW127176  11.598   9.839   2.304
75093SOL    HW227177  11.532   9.721   2.371
75094SOL     OW27178   5.259   5.750   2.401
75094SOL    HW127179   5.260   5.722   2.493
75094SOL    HW227180   5.199   5.824   2.400
75095SOL     OW27181   3.623   5.234   2.677
75095SOL    HW127182   3.539   5.190   2.690
75095SOL    HW227183   3.616   5.275   2.591
75096SOL     OW27184   7.755   8.711   0.044
75096SOL    HW127185   7.696   8.646   0.081
75096SOL    HW227186   7.840   8.691   0.083
75097SOL     OW27187   2.392  10.322   0.106
75097SOL    HW127188   2.349  10.364   0.181
75097SOL    HW227189   2.453  10.388   0.073
75098SOL     OW27190  14.539   5.424  10.885
75098SOL    HW127191  14.596   5.394  10.814
75098SOL    HW227192  14.529   5.348  10.942
75099SOL     OW27193   3.599  12.414   0.413
75099SOL    HW127194   3.602  12.509   0.401
75099SOL    HW227195   3.689  12.385   0.404
75100SOL     OW27196  10.633   5.213   6.232
75100SOL    HW127197  10.689   5.216   6.310
75100SOL    HW227198  10.544   5.204   6.267
75101SOL     OW27199   9.852   7.975   2.314
75101SOL    HW127200   9.936   7.981   2.359
75101SOL    HW227201   9.803   7.909   2.363
75102SOL     OW27202  13.326   4.031   0.016
75102SOL    HW127203  13.259   3.973  14.856
75102SOL    HW227204  13.397   3.973   0.041
75103SOL     OW27205   3.182  10.313  10.442
75103SOL    HW127206   3.135  10.396  10.435
75103SOL    HW227207   3.114  10.246  10.435
75104SOL     OW27208   9.280   7.321   4.964
75104SOL    HW127209   9.300   7.329   4.871
75104SOL    HW227210   9.309   7.233   4.988
75105SOL     OW27211  13.161  13.997   0.889
75105SOL    HW127212  13.251  14.019   0.914
75105SOL    HW227213  13.120  13.968   0.971
75106SOL     OW27214  12.087   2.932   5.705
75106SOL    HW127215  12.069   3.019   5.741
75106SOL    HW227216  12.178   2.936   5.676
75107SOL     OW27217   0.451   5.209  13.335
75107SOL    HW127218   0.496   5.131  13.304
75107SOL    HW227219   0.506   5.282  13.305
75108SOL     OW27220   3.153  12.781   4.012
75108SOL    HW127221   3.108  12.747   4.089
75108SOL    HW227222   3.150  12.709   3.948
75109SOL     OW27223   6.519   0.158   7.639
75109SOL    HW127224   6.458   0.103   7.590
75109SOL    HW227225   6.509   0.245   7.601
75110SOL     OW27226   6.569  14.069  14.762
75110SOL    HW127227   6.560  14.163  14.776
75110SOL    HW227228   6.660  14.050  14.782
75111SOL     OW27229  10.484   0.512  13.395
75111SOL    HW127230  10.519   0.444  13.453
75111SOL    HW227231  10.454   0.464  13.318
75112SOL     OW27232   8.989   0.100   0.075
75112SOL    HW127233   8.954   0.084   0.163
75112SOL    HW227234   9.059   0.036   0.065
75113SOL     OW27235   4.280  14.288   2.791
75113SOL    HW127236   4.285  14.381   2.812
75113SOL    HW227237   4.365  14.253   2.816
75114SOL     OW27238   2.568   7.931   7.946
75114SOL    HW127239   2.556   7.855   8.004
75114SOL    HW227240   2.634   7.902   7.883
75115SOL     OW27241   3.864   5.321   5.342
75115SOL    HW127242   3.844   5.393   5.282
75115SOL    HW227243   3.802   5.252   5.318
75116SOL     OW27244   4.754   1.133  10.908
75116SOL    HW127245   4.669   1.134  10.953
75116SOL    HW227246   4.764   1.043  10.878
75117SOL     OW27247  10.290  12.865   2.276
75117SOL    HW127248  10.378  12.884   2.243
75117SOL    HW227249  10.237  12.852   2.197
75118SOL     OW27250   3.217   2.481   7.846
75118SOL    HW127251   3.181   2.441   7.768
75118SOL    HW227252   3.304   2.442   7.855
75119SOL     OW27253  10.300   5.264   9.635
75119SOL    HW127254  10.347   5.264   9.718
75119SOL    HW227255  10.364   5.298   9.572
75120SOL     OW27256  12.151   1.169   9.655
75120SOL    HW127257  12.203   1.088   9.653
75120SOL    HW227258  12.212   1.235   9.688
75121SOL     OW27259   2.577  11.994   5.706
75121SOL    HW127260   2.529  11.912   5.709
75121SOL    HW227261   2.670  11.969   5.709
75122SOL     OW27262   7.519   6.321   1.255
75122SOL    HW127263   7.543   6.391   1.195
75122SOL    HW227264   7.455   6.361   1.314
75123SOL     OW27265  11.198  12.310  11.597
75123SOL    HW127266  11.118  12.278  11.557
75123SOL    HW227267  11.266  12.292  11.532
75124SOL     OW27268   6.907   6.511   7.153
75124SOL    HW127269   6.956   6.551   7.225
75124SOL    HW227270   6.911   6.417   7.172
75125SOL     OW27271   3.531   3.792   2.256
75125SOL    HW127272   3.600   3.734   2.225
75125SOL    HW227273   3.455   3.735   2.266
75126SOL     OW27274  13.522   8.152  12.825
75126SOL    HW127275  13.552   8.076  12.874
75126SOL    HW227276  13.601   8.202  12.806
75127SOL     OW27277   2.026  14.796   1.936
75127SOL    HW127278   2.061  14.720   1.982
75127SOL    HW227279   2.104  14.847   1.910
75128SOL     OW27280   6.483  14.394  14.073
75128SOL    HW127281   6.484  14.475  14.022
75128SOL    HW227282   6.445  14.419  14.157
75129SOL     OW27283   2.624  14.109  14.847
75129SOL    HW127284   2.574  14.164   0.030
75129SOL    HW227285   2.699  14.079   0.022
75130SOL     OW27286   6.838   0.810   9.414
75130SOL    HW127287   6.764   0.846   9.463
75130SOL    HW227288   6.884   0.755   9.478
75131SOL     OW27289  12.362   4.305  13.350
75131SOL    HW127290  12.392   4.375  13.408
75131SOL    HW227291  12.272   4.287  13.379
75132SOL     OW27292   7.098  12.010   5.040
75132SOL    HW127293   7.018  11.988   5.089
75132SOL    HW227294   7.096  11.954   4.963
75133SOL     OW27295   8.683   3.774  13.711
75133SOL    HW127296   8.766   3.732  13.734
75133SOL    HW227297   8.688   3.861  13.750
75134SOL     OW27298   7.598   3.939  11.751
75134SOL    HW127299   7.539   3.994  11.700
75134SOL    HW227300   7.540   3.887  11.807
75135SOL     OW27301   3.934  10.814  11.240
75135SOL    HW127302   3.851  10.770  11.223
75135SOL    HW227303   3.914  10.876  11.311
75136SOL     OW27304   0.935  11.741   2.783
75136SOL    HW127305   0.937  11.696   2.698
75136SOL    HW227306   0.992  11.689   2.839
75137SOL     OW27307  11.578   5.607   2.250
75137SOL    HW127308  11.611   5.517   2.254
75137SOL    HW227309  11.559   5.629   2.342
75138SOL     OW27310  11.251   3.986  14.158
75138SOL    HW127311  11.205   4.052  14.106
75138SOL    HW227312  11.305   4.036  14.218
75139SOL     OW27313   3.266  11.526  14.618
75139SOL    HW127314   3.185  11.572  14.597
75139SOL    HW227315   3.258  11.506  14.712
75140SOL     OW27316   0.996   5.014   9.724
75140SOL    HW127317   0.991   5.011   9.820
75140SOL    HW227318   1.063   5.081   9.706
75141SOL     OW27319   9.813   7.971   9.413
75141SOL    HW127320   9.882   8.004   9.355
75141SOL    HW227321   9.829   7.877   9.419
75142SOL     OW27322   6.864  10.194  11.495
75142SOL    HW127323   6.839  10.286  11.485
75142SOL    HW227324   6.823  10.167  11.577
75143SOL     OW27325   9.913   3.375  13.272
75143SOL    HW127326   9.955   3.290  13.287
75143SOL    HW227327   9.930   3.393  13.180
75144SOL     OW27328   7.196  14.231   2.715
75144SOL    HW127329   7.230  14.209   2.628
75144SOL    HW227330   7.259  14.294   2.750
75145SOL     OW27331   3.972   2.674   4.541
75145SOL    HW127332   3.945   2.680   4.450
75145SOL    HW227333   3.982   2.580   4.558
75146SOL     OW27334  10.428   5.977   7.979
75146SOL    HW127335  10.347   5.947   8.022
75146SOL    HW227336  10.491   5.908   7.997
75147SOL     OW27337   8.939   0.095   0.362
75147SOL    HW127338   9.023   0.077   0.405
75147SOL    HW227339   8.879   0.030   0.399
75148SOL     OW27340  11.269   4.283  12.732
75148SOL    HW127341  11.354   4.318  12.707
75148SOL    HW227342  11.290   4.205  12.785
75149SOL     OW27343   5.296   8.998   7.990
75149SOL    HW127344   5.227   8.964   8.047
75149SOL    HW227345   5.251   9.058   7.930
75150SOL     OW27346   4.874   1.327   8.279
75150SOL    HW127347   4.932   1.387   8.325
75150SOL    HW227348   4.830   1.277   8.349
75151SOL     OW27349   7.386   1.240   2.551
75151SOL    HW127350   7.338   1.286   2.482
75151SOL    HW227351   7.374   1.294   2.629
75152SOL     OW27352  11.212  13.685   9.762
75152SOL    HW127353  11.236  13.684   9.855
75152SOL    HW227354  11.179  13.597   9.745
75153SOL     OW27355   3.645  12.206   8.796
75153SOL    HW127356   3.570  12.150   8.818
75153SOL    HW227357   3.612  12.295   8.809
75154SOL     OW27358  11.918   8.773   9.793
75154SOL    HW127359  11.866   8.711   9.843
75154SOL    HW227360  11.996   8.788   9.846
75155SOL     OW27361   2.630  12.166   8.358
75155SOL    HW127362   2.625  12.262   8.356
75155SOL    HW227363   2.540  12.139   8.376
75156SOL     OW27364   7.872   6.771   0.061
75156SOL    HW127365   7.906   6.809  14.858
75156SOL    HW227366   7.780   6.750   0.041
75157SOL     OW27367  13.996  13.866  12.070
75157SOL    HW127368  14.084  13.892  12.098
75157SOL    HW227369  14.012  13.808  11.996
75158SOL     OW27370   9.697   7.718   6.266
75158SOL    HW127371   9.735   7.761   6.343
75158SOL    HW227372   9.772   7.702   6.209
75159SOL     OW27373   6.088  11.860  10.377
75159SOL    HW127374   6.169  11.889  10.418
75159SOL    HW227375   6.109  11.774  10.340
75160SOL     OW27376   5.049   0.400  11.812
75160SOL    HW127377   5.046   0.416  11.717
75160SOL    HW227378   5.026   0.307  11.821
75161SOL     OW27379   1.096   6.214  12.799
75161SOL    HW127380   1.089   6.131  12.752
75161SOL    HW227381   1.031   6.208  12.869
75162SOL     OW27382   3.699   6.646   5.125
75162SOL    HW127383   3.610   6.664   5.096
75162SOL    HW227384   3.753   6.710   5.079
75163SOL     OW27385   5.639  12.596   8.135
75163SOL    HW127386   5.653  12.678   8.087
75163SOL    HW227387   5.678  12.611   8.221
75164SOL     OW27388   1.229   3.022  11.819
75164SOL    HW127389   1.206   3.037  11.911
75164SOL    HW227390   1.257   2.931  11.816
75165SOL     OW27391   5.561  10.273   6.156
75165SOL    HW127392   5.482  10.285   6.209
75165SOL    HW227393   5.623  10.232   6.217
75166SOL     OW27394  13.221   6.397   4.831
75166SOL    HW127395  13.276   6.351   4.768
75166SOL    HW227396  13.136   6.406   4.788
75167SOL     OW27397   9.741   7.062   6.671
75167SOL    HW127398   9.649   7.049   6.648
75167SOL    HW227399   9.739   7.099   6.760
75168SOL     OW27400   3.383   2.076   8.251
75168SOL    HW127401   3.440   2.027   8.191
75168SOL    HW227402   3.407   2.045   8.338
75169SOL     OW27403   8.008   1.895   0.526
75169SOL    HW127404   8.024   1.830   0.458
75169SOL    HW227405   8.007   1.978   0.480
75170SOL     OW27406  12.846  10.021   2.952
75170SOL    HW127407  12.777  10.016   3.019
75170SOL    HW227408  12.912  10.079   2.991
75171SOL     OW27409   7.129  10.514   0.595
75171SOL    HW127410   7.193  10.561   0.648
75171SOL    HW227411   7.171  10.505   0.509
75172SOL     OW27412  11.902   8.448   8.108
75172SOL    HW127413  11.957   8.425   8.033
75172SOL    HW227414  11.891   8.365   8.156
75173SOL     OW27415   5.408   6.921   5.920
75173SOL    HW127416   5.452   6.991   5.968
75173SOL    HW227417   5.429   6.938   5.828
75174SOL     OW27418   2.436  14.031  13.566
75174SOL    HW127419   2.343  14.056  13.564
75174SOL    HW227420   2.436  13.939  13.538
75175SOL     OW27421   4.060  12.625   3.873
75175SOL    HW127422   4.146  12.667   3.868
75175SOL    HW227423   4.021  12.660   3.952
75176SOL     OW27424   0.001   3.236   3.743
75176SOL    HW127425   0.028   3.327   3.755
75176SOL    HW227426  14.848   3.232   3.652
75177SOL     OW27427  13.319   1.187  13.505
75177SOL    HW127428  13.358   1.167  13.590
75177SOL    HW227429  13.259   1.115  13.489
75178SOL     OW27430  13.776   9.125   2.943
75178SOL    HW127431  13.804   9.202   2.992
75178SOL    HW227432  13.792   9.051   3.002
75179SOL     OW27433   7.507  12.201   0.680
75179SOL    HW127434   7.554  12.238   0.755
75179SOL    HW227435   7.417  12.192   0.711
75180SOL     OW27436  14.206   4.514   6.445
75180SOL    HW127437  14.221   4.524   6.351
75180SOL    HW227438  14.273   4.452   6.474
75181SOL     OW27439   5.841  13.295   1.413
75181SOL    HW127440   5.915  13.290   1.353
75181SOL    HW227441   5.833  13.206   1.448
75182SOL     OW27442  12.773  10.850   8.512
75182SOL    HW127443  12.729  10.909   8.452
75182SOL    HW227444  12.719  10.771   8.512
75183SOL     OW27445  10.845   9.494  12.619
75183SOL    HW127446  10.847   9.399  12.632
75183SOL    HW227447  10.935   9.517  12.597
75184SOL     OW27448   3.058  12.648   5.523
75184SOL    HW127449   3.042  12.727   5.576
75184SOL    HW227450   3.146  12.661   5.489
75185SOL     OW27451  10.000   3.081  13.591
75185SOL    HW127452  10.067   3.097  13.658
75185SOL    HW227453  10.036   3.121  13.512
75186SOL     OW27454   0.434   1.879   4.766
75186SOL    HW127455   0.482   1.919   4.839
75186SOL    HW227456   0.473   1.792   4.757
75187SOL     OW27457   0.809  10.574   8.130
75187SOL    HW127458   0.902  10.557   8.117
75187SOL    HW227459   0.795  10.561   8.224
75188SOL     OW27460  14.270   9.790  14.842
75188SOL    HW127461  14.234   9.702  14.834
75188SOL    HW227462  14.355   9.785  14.798
75189SOL     OW27463   7.957   8.980  14.598
75189SOL    HW127464   7.919   9.047  14.655
75189SOL    HW227465   8.043   8.962  14.636
75190SOL     OW27466   3.554   0.992  14.492
75190SOL    HW127467   3.513   1.015  14.409
75190SOL    HW227468   3.644   0.967  14.469
75191SOL     OW27469  11.278  13.345   4.040
75191SOL    HW127470  11.279  13.424   4.095
75191SOL    HW227471  11.311  13.375   3.955
75192SOL     OW27472   5.719   4.917  14.488
75192SOL    HW127473   5.671   4.983  14.538
75192SOL    HW227474   5.783   4.881  14.549
75193SOL     OW27475  14.252   5.750   7.933
75193SOL    HW127476  14.298   5.818   7.885
75193SOL    HW227477  14.312   5.676   7.934
75194SOL     OW27478   8.238   6.922   0.009
75194SOL    HW127479   8.167   6.869  14.851
75194SOL    HW227480   8.315   6.898  14.834
75195SOL     OW27481   1.874   3.920  11.945
75195SOL    HW127482   1.870   3.826  11.933
75195SOL    HW227483   1.966   3.938  11.966
75196SOL     OW27484   7.535   4.964   9.854
75196SOL    HW127485   7.477   5.016   9.909
75196SOL    HW227486   7.478   4.924   9.788
75197SOL     OW27487   0.103   8.660   2.722
75197SOL    HW127488   0.055   8.584   2.689
75197SOL    HW227489   0.185   8.660   2.674
75198SOL     OW27490  11.684  12.463  14.292
75198SOL    HW127491  11.702  12.524  14.220
75198SOL    HW227492  11.597  12.429  14.274
75199SOL     OW27493  10.993   1.685   9.019
75199SOL    HW127494  11.011   1.762   8.965
75199SOL    HW227495  11.078   1.647   9.037
75200SOL     OW27496  11.497   4.333   7.777
75200SOL    HW127497  11.455   4.271   7.718
75200SOL    HW227498  11.468   4.307   7.864
75201SOL     OW27499   5.530  10.152   3.681
75201SOL    HW127500   5.511  10.060   3.667
75201SOL    HW227501   5.465  10.199   3.629
75202SOL     OW27502   2.745   1.481   2.029
75202SOL    HW127503   2.767   1.512   2.117
75202SOL    HW227504   2.812   1.415   2.010
75203SOL     OW27505  10.232   7.683  14.590
75203SOL    HW127506  10.278   7.659  14.509
75203SOL    HW227507  10.158   7.623  14.594
75204SOL     OW27508   2.226  11.725   7.603
75204SOL    HW127509   2.242  11.776   7.523
75204SOL    HW227510   2.292  11.758   7.665
75205SOL     OW27511   2.391   5.344  14.823
75205SOL    HW127512   2.448   5.330   0.021
75205SOL    HW227513   2.439   5.308  14.749
75206SOL     OW27514  10.869  12.984  13.728
75206SOL    HW127515  10.957  12.972  13.763
75206SOL    HW227516  10.841  12.897  13.701
75207SOL     OW27517   5.094   4.895  13.982
75207SOL    HW127518   5.116   4.867  14.070
75207SOL    HW227519   5.144   4.836  13.925
75208SOL     OW27520  12.081  11.907   4.681
75208SOL    HW127521  12.086  11.924   4.587
75208SOL    HW227522  12.002  11.952   4.710
75209SOL     OW27523  14.873   9.270   0.853
75209SOL    HW127524   0.011   9.185   0.811
75209SOL    HW227525   0.063   9.327   0.817
75210SOL     OW27526   0.770   4.306   2.183
75210SOL    HW127527   0.775   4.308   2.279
75210SOL    HW227528   0.862   4.306   2.154
75211SOL     OW27529  14.256   8.677   2.037
75211SOL    HW127530  14.306   8.753   2.068
75211SOL    HW227531  14.240   8.695   1.945
75212SOL     OW27532   3.274  11.838   7.819
75212SOL    HW127533   3.294  11.931   7.821
75212SOL    HW227534   3.179  11.833   7.830
75213SOL     OW27535  12.641   2.129  11.781
75213SOL    HW127536  12.667   2.169  11.864
75213SOL    HW227537  12.722   2.121  11.731
75214SOL     OW27538  14.336   8.360   4.334
75214SOL    HW127539  14.424   8.321   4.332
75214SOL    HW227540  14.277   8.285   4.327
75215SOL     OW27541  10.368  13.812   1.757
75215SOL    HW127542  10.310  13.790   1.683
75215SOL    HW227543  10.329  13.890   1.795
75216SOL     OW27544   2.460  10.526   4.128
75216SOL    HW127545   2.505  10.610   4.118
75216SOL    HW227546   2.523  10.462   4.095
75217SOL     OW27547   4.084  14.222   9.414
75217SOL    HW127548   4.058  14.172   9.337
75217SOL    HW227549   4.003  14.232   9.464
75218SOL     OW27550   1.654   2.004   2.958
75218SOL    HW127551   1.623   2.094   2.950
75218SOL    HW227552   1.595   1.964   3.022
75219SOL     OW27553  14.548  13.492   6.000
75219SOL    HW127554  14.489  13.504   6.075
75219SOL    HW227555  14.578  13.401   6.007
75220SOL     OW27556   2.558   2.456   9.092
75220SOL    HW127557   2.520   2.533   9.136
75220SOL    HW227558   2.526   2.462   9.002
75221SOL     OW27559  11.715  14.639   2.023
75221SOL    HW127560  11.810  14.638   2.022
75221SOL    HW227561  11.691  14.696   1.949
75222SOL     OW27562   9.356  12.679  14.688
75222SOL    HW127563   9.315  12.682  14.774
75222SOL    HW227564   9.293  12.635  14.632
75223SOL     OW27565   2.328   5.719  11.027
75223SOL    HW127566   2.390   5.663  10.981
75223SOL    HW227567   2.364   5.807  11.018
75224SOL     OW27568   2.067   7.327   8.944
75224SOL    HW127569   2.097   7.417   8.955
75224SOL    HW227570   1.983   7.335   8.899
75225SOL     OW27571   8.201   8.663   4.424
75225SOL    HW127572   8.195   8.703   4.338
75225SOL    HW227573   8.214   8.570   4.407
75226SOL     OW27574   2.756   4.198   6.856
75226SOL    HW127575   2.848   4.202   6.833
75226SOL    HW227576   2.741   4.274   6.912
75227SOL     OW27577   0.788   1.739   0.576
75227SOL    HW127578   0.756   1.755   0.488
75227SOL    HW227579   0.882   1.758   0.572
75228SOL     OW27580   2.538  12.724   2.821
75228SOL    HW127581   2.608  12.718   2.756
75228SOL    HW227582   2.501  12.636   2.825
75229SOL     OW27583   5.488   8.167  11.474
75229SOL    HW127584   5.575   8.128  11.484
75229SOL    HW227585   5.428   8.092  11.478
75230SOL     OW27586   3.750  14.455   3.455
75230SOL    HW127587   3.707  14.394   3.394
75230SOL    HW227588   3.833  14.412   3.477
75231SOL     OW27589   1.321  10.916   2.983
75231SOL    HW127590   1.259  10.976   2.941
75231SOL    HW227591   1.275  10.884   3.060
75232SOL     OW27592   0.671  11.391   1.264
75232SOL    HW127593   0.700  11.389   1.355
75232SOL    HW227594   0.667  11.484   1.242
75233SOL     OW27595   0.195   9.182  11.123
75233SOL    HW127596   0.253   9.154  11.193
75233SOL    HW227597   0.207   9.277  11.118
75234SOL     OW27598   3.019   2.026   2.669
75234SOL    HW127599   3.066   1.954   2.628
75234SOL    HW227600   2.927   1.998   2.669
75235SOL     OW27601   7.517   3.583   4.572
75235SOL    HW127602   7.533   3.650   4.639
75235SOL    HW227603   7.517   3.501   4.620
75236SOL     OW27604   9.568   5.835  10.699
75236SOL    HW127605   9.554   5.749  10.739
75236SOL    HW227606   9.647   5.869  10.740
75237SOL     OW27607   3.589   5.976   3.489
75237SOL    HW127608   3.495   5.988   3.505
75237SOL    HW227609   3.618   6.062   3.458
75238SOL     OW27610  10.583  10.516   6.481
75238SOL    HW127611  10.638  10.480   6.412
75238SOL    HW227612  10.619  10.479   6.562
75239SOL     OW27613   0.222  10.493   1.394
75239SOL    HW127614   0.210  10.587   1.381
75239SOL    HW227615   0.311  10.475   1.363
75240SOL     OW27616   2.746   4.396  14.409
75240SOL    HW127617   2.802   4.348  14.469
75240SOL    HW227618   2.706   4.464  14.463
75241SOL     OW27619   1.314   9.338   5.639
75241SOL    HW127620   1.257   9.399   5.685
75241SOL    HW227621   1.257   9.294   5.576
75242SOL     OW27622   4.771  13.935  12.268
75242SOL    HW127623   4.678  13.951  12.255
75242SOL    HW227624   4.814  13.980  12.196
75243SOL     OW27625   1.038   7.477   7.709
75243SOL    HW127626   0.966   7.533   7.680
75243SOL    HW227627   1.086   7.530   7.772
75244SOL     OW27628   3.516  13.037   9.456
75244SOL    HW127629   3.523  13.132   9.465
75244SOL    HW227630   3.596  13.011   9.410
75245SOL     OW27631   6.343   2.308  11.358
75245SOL    HW127632   6.256   2.338  11.383
75245SOL    HW227633   6.386   2.387  11.325
75246SOL     OW27634   2.247  11.112   3.547
75246SOL    HW127635   2.247  11.035   3.604
75246SOL    HW227636   2.317  11.168   3.582
75247SOL     OW27637  14.309   2.629   5.153
75247SOL    HW127638  14.238   2.663   5.098
75247SOL    HW227639  14.387   2.641   5.099
75248SOL     OW27640   0.723   0.691  13.226
75248SOL    HW127641   0.660   0.624  13.252
75248SOL    HW227642   0.807   0.659  13.258
75249SOL     OW27643  13.377   3.774   6.308
75249SOL    HW127644  13.298   3.818   6.279
75249SOL    HW227645  13.404   3.720   6.234
75250SOL     OW27646  11.267   8.583   0.496
75250SOL    HW127647  11.264   8.678   0.507
75250SOL    HW227648  11.298   8.569   0.407
75251SOL     OW27649   5.652   0.561   5.676
75251SOL    HW127650   5.599   0.521   5.745
75251SOL    HW227651   5.742   0.533   5.695
75252SOL     OW27652   1.158   9.209   2.495
75252SOL    HW127653   1.247   9.180   2.514
75252SOL    HW227654   1.159   9.302   2.514
75253SOL     OW27655   4.088   7.147   6.683
75253SOL    HW127656   4.120   7.078   6.742
75253SOL    HW227657   4.104   7.229   6.730
75254SOL     OW27658   8.058   0.418   8.059
75254SOL    HW127659   8.129   0.367   8.019
75254SOL    HW227660   8.042   0.489   7.997
75255SOL     OW27661  12.421  12.813   0.878
75255SOL    HW127662  12.474  12.737   0.852
75255SOL    HW227663  12.428  12.873   0.803
75256SOL     OW27664   5.787   6.497   9.153
75256SOL    HW127665   5.823   6.458   9.074
75256SOL    HW227666   5.702   6.532   9.125
75257SOL     OW27667   8.344   4.700   8.762
75257SOL    HW127668   8.289   4.770   8.799
75257SOL    HW227669   8.379   4.738   8.681
75258SOL     OW27670  10.416   5.749   1.901
75258SOL    HW127671  10.336   5.770   1.948
75258SOL    HW227672  10.411   5.655   1.884
75259SOL     OW27673   2.205   5.711   2.124
75259SOL    HW127674   2.187   5.657   2.047
75259SOL    HW227675   2.179   5.656   2.198
75260SOL     OW27676   4.786   0.575   7.050
75260SOL    HW127677   4.787   0.637   6.977
75260SOL    HW227678   4.792   0.629   7.128
75261SOL     OW27679   9.509   7.491   6.527
75261SOL    HW127680   9.494   7.577   6.489
75261SOL    HW227681   9.440   7.481   6.592
75262SOL     OW27682   9.879  11.455   7.143
75262SOL    HW127683   9.960  11.423   7.102
75262SOL    HW227684   9.816  11.458   7.071
75263SOL     OW27685   3.732  10.816   3.482
75263SOL    HW127686   3.646  10.856   3.466
75263SOL    HW227687   3.752  10.837   3.573
75264SOL     OW27688   4.038   1.057   8.557
75264SOL    HW127689   3.961   1.002   8.572
75264SOL    HW227690   4.003   1.137   8.518
75265SOL     OW27691  10.761   4.403   5.314
75265SOL    HW127692  10.782   4.477   5.257
75265SOL    HW227693  10.805   4.422   5.396
75266SOL     OW27694  14.555  12.890  10.194
75266SOL    HW127695  14.473  12.937  10.179
75266SOL    HW227696  14.576  12.852  10.109
75267SOL     OW27697   9.572  13.256  12.774
75267SOL    HW127698   9.633  13.253  12.700
75267SOL    HW227699   9.569  13.166  12.806
75268SOL     OW27700  10.652   9.432   4.969
75268SOL    HW127701  10.675   9.430   5.062
75268SOL    HW227702  10.734   9.416   4.923
75269SOL     OW27703   5.916   8.492  10.931
75269SOL    HW127704   6.005   8.484  10.967
75269SOL    HW227705   5.921   8.449  10.845
75270SOL     OW27706  12.595   2.927   0.795
75270SOL    HW127707  12.592   2.854   0.733
75270SOL    HW227708  12.504   2.942   0.820
75271SOL     OW27709  11.171   0.951   3.634
75271SOL    HW127710  11.113   1.025   3.619
75271SOL    HW227711  11.115   0.883   3.672
75272SOL     OW27712   7.012  11.335  11.224
75272SOL    HW127713   7.061  11.369  11.149
75272SOL    HW227714   7.020  11.240  11.218
75273SOL     OW27715   5.345   4.611   0.375
75273SOL    HW127716   5.380   4.605   0.464
75273SOL    HW227717   5.275   4.676   0.381
75274SOL     OW27718  12.431  12.021   8.948
75274SOL    HW127719  12.483  11.941   8.957
75274SOL    HW227720  12.404  12.042   9.037
75275SOL     OW27721   8.941   4.235   8.053
75275SOL    HW127722   8.899   4.261   7.971
75275SOL    HW227723   8.868   4.211   8.110
75276SOL     OW27724   8.429   8.732  13.066
75276SOL    HW127725   8.338   8.705  13.058
75276SOL    HW227726   8.446   8.730  13.161
75277SOL     OW27727  13.073   2.381   7.535
75277SOL    HW127728  13.052   2.346   7.448
75277SOL    HW227729  13.129   2.314   7.575
75278SOL     OW27730   8.760  14.771   0.345
75278SOL    HW127731   8.668  14.772   0.373
75278SOL    HW227732   8.760  14.720   0.264
75279SOL     OW27733   6.184  12.613   6.899
75279SOL    HW127734   6.230  12.531   6.917
75279SOL    HW227735   6.243  12.662   6.843
75280SOL     OW27736   3.198  10.137   9.924
75280SOL    HW127737   3.161  10.049   9.925
75280SOL    HW227738   3.227  10.151  10.014
75281SOL     OW27739   8.670   3.228   7.590
75281SOL    HW127740   8.623   3.267   7.517
75281SOL    HW227741   8.636   3.139   7.597
75282SOL     OW27742   4.113   5.882  10.413
75282SOL    HW127743   4.182   5.945  10.432
75282SOL    HW227744   4.140   5.803  10.461
75283SOL     OW27745   2.487   4.191  10.134
75283SOL    HW127746   2.536   4.204  10.215
75283SOL    HW227747   2.408   4.144  10.162
75284SOL     OW27748   0.966   8.252   3.627
75284SOL    HW127749   1.033   8.266   3.559
75284SOL    HW227750   1.015   8.220   3.702
75285SOL     OW27751  13.383   4.979   9.542
75285SOL    HW127752  13.341   4.966   9.627
75285SOL    HW227753  13.427   4.896   9.524
75286SOL     OW27754  10.315  13.424  12.451
75286SOL    HW127755  10.244  13.369  12.420
75286SOL    HW227756  10.273  13.486  12.511
75287SOL     OW27757  13.275  10.368   9.834
75287SOL    HW127758  13.362  10.377   9.796
75287SOL    HW227759  13.288  10.313   9.911
75288SOL     OW27760   6.784   1.964   8.763
75288SOL    HW127761   6.834   1.941   8.841
75288SOL    HW227762   6.776   2.060   8.767
75289SOL     OW27763  13.278   5.063   3.636
75289SOL    HW127764  13.282   5.158   3.626
75289SOL    HW227765  13.322   5.029   3.558
75290SOL     OW27766   3.322  10.535   3.511
75290SOL    HW127767   3.298  10.575   3.595
75290SOL    HW227768   3.272  10.583   3.446
75291SOL     OW27769   9.698   0.192   7.335
75291SOL    HW127770   9.697   0.194   7.431
75291SOL    HW227771   9.624   0.248   7.310
75292SOL     OW27772  13.884  10.094  13.963
75292SOL    HW127773  13.971  10.131  13.976
75292SOL    HW227774  13.898  10.000  13.960
75293SOL     OW27775  10.925   6.763   1.688
75293SOL    HW127776  10.970   6.737   1.608
75293SOL    HW227777  10.994   6.768   1.755
75294SOL     OW27778   6.737   0.453   8.613
75294SOL    HW127779   6.665   0.439   8.552
75294SOL    HW227780   6.697   0.442   8.700
75295SOL     OW27781   1.168   1.647  14.286
75295SOL    HW127782   1.092   1.703  14.274
75295SOL    HW227783   1.158   1.611  14.374
75296SOL     OW27784   4.687  11.778   1.973
75296SOL    HW127785   4.734  11.861   1.985
75296SOL    HW227786   4.652  11.784   1.884
75297SOL     OW27787   1.902  11.429   3.385
75297SOL    HW127788   1.872  11.520   3.398
75297SOL    HW227789   1.930  11.401   3.472
75298SOL     OW27790   8.807   3.408   8.096
75298SOL    HW127791   8.834   3.324   8.058
75298SOL    HW227792   8.848   3.474   8.040
75299SOL     OW27793  13.001  13.449   1.129
75299SOL    HW127794  13.013  13.462   1.223
75299SOL    HW227795  13.074  13.392   1.104
75300SOL     OW27796   1.222   5.226   9.951
75300SOL    HW127797   1.198   5.150  10.005
75300SOL    HW227798   1.162   5.222   9.877
75301SOL     OW27799   9.030   6.991  11.930
75301SOL    HW127800   9.025   6.897  11.948
75301SOL    HW227801   9.094   6.998  11.859
75302SOL     OW27802   4.807  10.406   1.760
75302SOL    HW127803   4.827  10.315   1.783
75302SOL    HW227804   4.768  10.443   1.839
75303SOL     OW27805   1.405   7.101  11.608
75303SOL    HW127806   1.412   7.132  11.698
75303SOL    HW227807   1.473   7.034  11.600
75304SOL     OW27808   4.816   3.975  14.787
75304SOL    HW127809   4.888   4.029  14.820
75304SOL    HW227810   4.800   4.008  14.698
75305SOL     OW27811   4.610   0.948  10.055
75305SOL    HW127812   4.666   0.899  10.116
75305SOL    HW227813   4.547   0.884  10.023
75306SOL     OW27814  12.990   4.210   3.410
75306SOL    HW127815  12.923   4.157   3.367
75306SOL    HW227816  13.070   4.158   3.403
75307SOL     OW27817   7.425   1.273   2.971
75307SOL    HW127818   7.518   1.271   2.946
75307SOL    HW227819   7.422   1.226   3.054
75308SOL     OW27820   8.970  13.566   6.791
75308SOL    HW127821   8.926  13.649   6.775
75308SOL    HW227822   8.943  13.510   6.718
75309SOL     OW27823   0.359  10.340  14.328
75309SOL    HW127824   0.376  10.407  14.261
75309SOL    HW227825   0.441  10.333  14.376
75310SOL     OW27826   4.416  10.261   8.396
75310SOL    HW127827   4.378  10.271   8.309
75310SOL    HW227828   4.395  10.171   8.421
75311SOL     OW27829  13.385   0.517   4.943
75311SOL    HW127830  13.380   0.441   4.885
75311SOL    HW227831  13.473   0.551   4.932
75312SOL     OW27832   5.125   4.114  14.221
75312SOL    HW127833   5.079   4.032  14.199
75312SOL    HW227834   5.212   4.104  14.182
75313SOL     OW27835   4.058  14.203  11.665
75313SOL    HW127836   4.058  14.280  11.609
75313SOL    HW227837   3.966  14.190  11.688
75314SOL     OW27838   1.100  11.422   8.534
75314SOL    HW127839   1.127  11.342   8.489
75314SOL    HW227840   1.155  11.490   8.495
75315SOL     OW27841   8.472   6.734   5.334
75315SOL    HW127842   8.522   6.687   5.402
75315SOL    HW227843   8.408   6.670   5.304
75316SOL     OW27844  12.164   8.735  12.485
75316SOL    HW127845  12.115   8.682  12.548
75316SOL    HW227846  12.153   8.825  12.515
75317SOL     OW27847   9.329   3.767   2.520
75317SOL    HW127848   9.320   3.831   2.449
75317SOL    HW227849   9.263   3.793   2.584
75318SOL     OW27850   3.841  14.050   6.880
75318SOL    HW127851   3.801  14.090   6.957
75318SOL    HW227852   3.789  14.083   6.806
75319SOL     OW27853  13.191   5.933  13.713
75319SOL    HW127854  13.252   5.877  13.761
75319SOL    HW227855  13.154   5.877  13.645
75320SOL     OW27856  10.792   8.205   0.414
75320SOL    HW127857  10.750   8.147   0.477
75320SOL    HW227858  10.776   8.162   0.329
75321SOL     OW27859   7.495   2.694  13.555
75321SOL    HW127860   7.509   2.776  13.508
75321SOL    HW227861   7.456   2.635  13.491
75322SOL     OW27862   6.648  13.214   9.548
75322SOL    HW127863   6.667  13.206   9.641
75322SOL    HW227864   6.713  13.278   9.516
75323SOL     OW27865   7.307   3.674  14.241
75323SOL    HW127866   7.333   3.767  14.241
75323SOL    HW227867   7.215   3.675  14.215
75324SOL     OW27868  13.985  14.226   1.718
75324SOL    HW127869  14.057  14.269   1.672
75324SOL    HW227870  13.983  14.137   1.683
75325SOL     OW27871  12.932   7.847   1.124
75325SOL    HW127872  12.928   7.819   1.033
75325SOL    HW227873  12.873   7.787   1.171
75326SOL     OW27874   6.874  10.612   4.045
75326SOL    HW127875   6.952  10.598   3.991
75326SOL    HW227876   6.908  10.625   4.133
75327SOL     OW27877  13.829   2.976  13.305
75327SOL    HW127878  13.774   3.023  13.242
75327SOL    HW227879  13.837   2.888  13.268
75328SOL     OW27880   7.342   1.390   5.028
75328SOL    HW127881   7.376   1.350   4.949
75328SOL    HW227882   7.288   1.463   4.997
75329SOL     OW27883  14.381   1.193   7.532
75329SOL    HW127884  14.286   1.191   7.540
75329SOL    HW227885  14.402   1.283   7.507
75330SOL     OW27886  14.442   2.606   4.194
75330SOL    HW127887  14.433   2.592   4.100
75330SOL    HW227888  14.530   2.574   4.215
75331SOL     OW27889   4.245   6.863   3.202
75331SOL    HW127890   4.294   6.940   3.233
75331SOL    HW227891   4.194   6.835   3.278
75332SOL     OW27892   7.938   7.193   4.592
75332SOL    HW127893   7.961   7.108   4.556
75332SOL    HW227894   7.889   7.236   4.522
75333SOL     OW27895  12.146   7.694   4.752
75333SOL    HW127896  12.222   7.636   4.750
75333SOL    HW227897  12.089   7.657   4.820
75334SOL     OW27898   2.640   9.440  10.315
75334SOL    HW127899   2.576   9.511  10.327
75334SOL    HW227900   2.608   9.392  10.238
75335SOL     OW27901   7.536  10.301   3.963
75335SOL    HW127902   7.487  10.369   3.918
75335SOL    HW227903   7.541  10.229   3.900
75336SOL     OW27904   1.960   4.085  10.742
75336SOL    HW127905   1.892   4.063  10.678
75336SOL    HW227906   1.993   4.170  10.713
75337SOL     OW27907   8.437   9.695  10.309
75337SOL    HW127908   8.415   9.726  10.397
75337SOL    HW227909   8.453   9.601  10.321
75338SOL     OW27910  12.447  14.643  11.756
75338SOL    HW127911  12.471  14.711  11.694
75338SOL    HW227912  12.447  14.686  11.842
75339SOL     OW27913  13.881   2.652   5.789
75339SOL    HW127914  13.843   2.723   5.841
75339SOL    HW227915  13.852   2.669   5.700
75340SOL     OW27916  11.334   4.232   3.258
75340SOL    HW127917  11.311   4.271   3.343
75340SOL    HW227918  11.318   4.138   3.270
75341SOL     OW27919   3.965   6.998  10.020
75341SOL    HW127920   3.955   6.990   9.925
75341SOL    HW227921   4.003   7.085  10.034
75342SOL     OW27922  10.014  13.154  12.706
75342SOL    HW127923  10.065  13.117  12.633
75342SOL    HW227924  10.010  13.082  12.770
75343SOL     OW27925  12.179   2.447   3.318
75343SOL    HW127926  12.148   2.442   3.228
75343SOL    HW227927  12.272   2.468   3.310
75344SOL     OW27928   5.002  12.901  13.491
75344SOL    HW127929   4.911  12.875  13.475
75344SOL    HW227930   4.995  12.980  13.545
75345SOL     OW27931   3.441  11.540   9.070
75345SOL    HW127932   3.379  11.609   9.095
75345SOL    HW227933   3.503  11.583   9.011
75346SOL     OW27934   2.320  14.719  11.561
75346SOL    HW127935   2.291  14.638  11.521
75346SOL    HW227936   2.306  14.786  11.494
75347SOL     OW27937   2.643  11.830   2.815
75347SOL    HW127938   2.573  11.893   2.830
75347SOL    HW227939   2.606  11.765   2.756
75348SOL     OW27940  12.988  11.204  12.629
75348SOL    HW127941  13.026  11.264  12.566
75348SOL    HW227942  13.018  11.117  12.603
75349SOL     OW27943   1.962   1.526   1.475
75349SOL    HW127944   2.049   1.563   1.488
75349SOL    HW227945   1.966   1.440   1.517
75350SOL     OW27946   1.612  13.089   4.952
75350SOL    HW127947   1.675  13.155   4.924
75350SOL    HW227948   1.659  13.038   5.018
75351SOL     OW27949  12.056   6.270  10.744
75351SOL    HW127950  11.973   6.306  10.777
75351SOL    HW227951  12.084   6.333  10.678
75352SOL     OW27952   2.940  10.454  10.327
75352SOL    HW127953   2.982  10.394  10.266
75352SOL    HW227954   2.847  10.453  10.301
75353SOL     OW27955   3.933  12.211   1.006
75353SOL    HW127956   3.934  12.305   0.986
75353SOL    HW227957   3.962  12.205   1.097
75354SOL     OW27958   8.970   6.002  13.378
75354SOL    HW127959   8.936   6.038  13.460
75354SOL    HW227960   8.901   6.019  13.314
75355SOL     OW27961   6.603  11.442  11.538
75355SOL    HW127962   6.677  11.493  11.505
75355SOL    HW227963   6.531  11.504  11.540
75356SOL     OW27964  10.776  12.099  14.020
75356SOL    HW127965  10.737  12.056  13.943
75356SOL    HW227966  10.721  12.175  14.036
75357SOL     OW27967   1.147  10.317   9.609
75357SOL    HW127968   1.103  10.297   9.692
75357SOL    HW227969   1.102  10.264   9.544
75358SOL     OW27970  13.631   0.597  13.330
75358SOL    HW127971  13.680   0.519  13.357
75358SOL    HW227972  13.539   0.573  13.340
75359SOL     OW27973   1.285   6.002   4.686
75359SOL    HW127974   1.331   5.920   4.673
75359SOL    HW227975   1.271   6.008   4.780
75360SOL     OW27976   3.438   1.962   9.698
75360SOL    HW127977   3.380   1.916   9.636
75360SOL    HW227978   3.489   2.022   9.643
75361SOL     OW27979   3.024  11.535   0.360
75361SOL    HW127980   2.982  11.450   0.374
75361SOL    HW227981   3.115  11.513   0.340
75362SOL     OW27982  12.418  12.239   4.879
75362SOL    HW127983  12.336  12.211   4.837
75362SOL    HW227984  12.457  12.159   4.913
75363SOL     OW27985  13.915  10.351  12.279
75363SOL    HW127986  13.916  10.417  12.210
75363SOL    HW227987  13.828  10.359  12.319
75364SOL     OW27988   2.054   0.337   5.175
75364SOL    HW127989   2.144   0.367   5.184
75364SOL    HW227990   2.052   0.252   5.218
75365SOL     OW27991   9.252   1.618  14.160
75365SOL    HW127992   9.312   1.613  14.085
75365SOL    HW227993   9.302   1.664  14.227
75366SOL     OW27994   6.860   8.399   7.513
75366SOL    HW127995   6.786   8.459   7.505
75366SOL    HW227996   6.865   8.355   7.428
75367SOL     OW27997  12.647   5.930   7.583
75367SOL    HW127998  12.629   6.023   7.572
75367SOL    HW227999  12.561   5.890   7.598
75368SOL     OW28000   3.346  10.825   1.604
75368SOL    HW128001   3.423  10.877   1.629
75368SOL    HW228002   3.364  10.737   1.639
75369SOL     OW28003   7.507  12.941   2.851
75369SOL    HW128004   7.437  12.875   2.846
75369SOL    HW228005   7.470  13.011   2.905
75370SOL     OW28006  10.562   9.343   0.259
75370SOL    HW128007  10.552   9.248   0.269
75370SOL    HW228008  10.613   9.370   0.335
75371SOL     OW28009  10.048  13.641  13.942
75371SOL    HW128010   9.976  13.585  13.913
75371SOL    HW228011  10.111  13.582  13.981
75372SOL     OW28012   2.898   8.665   4.703
75372SOL    HW128013   2.807   8.692   4.714
75372SOL    HW228014   2.938   8.735   4.651
75373SOL     OW28015   4.685   3.467  13.456
75373SOL    HW128016   4.679   3.505  13.368
75373SOL    HW228017   4.774   3.488  13.486
75374SOL     OW28018   3.819   6.292   4.349
75374SOL    HW128019   3.863   6.247   4.276
75374SOL    HW228020   3.867   6.264   4.427
75375SOL     OW28021   5.023   3.279  11.610
75375SOL    HW128022   5.060   3.362  11.640
75375SOL    HW228023   4.975   3.302  11.530
75376SOL     OW28024  12.187   5.497   6.031
75376SOL    HW128025  12.271   5.519   6.070
75376SOL    HW228026  12.189   5.402   6.021
75377SOL     OW28027  10.087   5.645  13.129
75377SOL    HW128028  10.171   5.614  13.163
75377SOL    HW228029  10.106   5.677  13.041
75378SOL     OW28030  13.284   6.076  14.764
75378SOL    HW128031  13.253   6.136  14.696
75378SOL    HW228032  13.369   6.112  14.791
75379SOL     OW28033   6.899  13.189  11.597
75379SOL    HW128034   6.958  13.137  11.651
75379SOL    HW228035   6.842  13.233  11.659
75380SOL     OW28036  11.800   5.582   0.378
75380SOL    HW128037  11.836   5.558   0.463
75380SOL    HW228038  11.819   5.675   0.369
75381SOL     OW28039   2.971   8.207  11.183
75381SOL    HW128040   2.978   8.244  11.095
75381SOL    HW228041   2.925   8.273  11.234
75382SOL     OW28042   3.547   6.105  12.616
75382SOL    HW128043   3.562   6.052  12.538
75382SOL    HW228044   3.630   6.103  12.663
75383SOL     OW28045   8.713   3.852   9.638
75383SOL    HW128046   8.713   3.756   9.635
75383SOL    HW228047   8.634   3.877   9.589
75384SOL     OW28048  13.948  11.374   6.586
75384SOL    HW128049  13.923  11.306   6.648
75384SOL    HW228050  13.894  11.357   6.508
75385SOL     OW28051   2.058   7.903   7.707
75385SOL    HW128052   1.985   7.965   7.705
75385SOL    HW228053   2.112   7.927   7.631
75386SOL     OW28054   1.911   5.863   0.845
75386SOL    HW128055   1.949   5.805   0.778
75386SOL    HW228056   1.971   5.857   0.919
75387SOL     OW28057  10.152   9.053   2.717
75387SOL    HW128058  10.101   9.133   2.704
75387SOL    HW228059  10.132   8.998   2.641
75388SOL     OW28060   5.030  13.496   9.894
75388SOL    HW128061   5.094  13.505   9.964
75388SOL    HW228062   4.950  13.536   9.928
75389SOL     OW28063   9.027  11.170   0.912
75389SOL    HW128064   9.041  11.123   0.830
75389SOL    HW228065   9.070  11.116   0.978
75390SOL     OW28066   1.369  12.427   1.725
75390SOL    HW128067   1.307  12.401   1.794
75390SOL    HW228068   1.343  12.517   1.703
75391SOL     OW28069   1.050  12.492   1.641
75391SOL    HW128070   1.107  12.540   1.700
75391SOL    HW228071   0.973  12.549   1.629
75392SOL     OW28072  10.212   2.221  12.281
75392SOL    HW128073  10.226   2.219  12.187
75392SOL    HW228074  10.270   2.292  12.312
75393SOL     OW28075   4.517  11.330  13.644
75393SOL    HW128076   4.437  11.358  13.689
75393SOL    HW228077   4.559  11.412  13.616
75394SOL     OW28078  12.706   7.784  10.527
75394SOL    HW128079  12.756   7.716  10.573
75394SOL    HW228080  12.723   7.767  10.434
75395SOL     OW28081   4.145   1.757   9.245
75395SOL    HW128082   4.139   1.818   9.319
75395SOL    HW228083   4.230   1.776   9.205
75396SOL     OW28084  11.304   1.259   4.126
75396SOL    HW128085  11.264   1.345   4.137
75396SOL    HW228086  11.392   1.278   4.093
75397SOL     OW28087   6.869   5.696  11.853
75397SOL    HW128088   6.959   5.726  11.841
75397SOL    HW228089   6.815   5.762  11.809
75398SOL     OW28090  10.041   2.203   1.395
75398SOL    HW128091  10.101   2.276   1.383
75398SOL    HW228092   9.959   2.232   1.355
75399SOL     OW28093   4.369   4.648  10.341
75399SOL    HW128094   4.335   4.719  10.287
75399SOL    HW228095   4.301   4.632  10.406
75400SOL     OW28096  13.421  14.206   6.707
75400SOL    HW128097  13.359  14.274   6.681
75400SOL    HW228098  13.369  14.126   6.711
75401SOL     OW28099  10.032  11.018  14.203
75401SOL    HW128100   9.977  11.001  14.127
75401SOL    HW228101   9.998  11.099  14.240
75402SOL     OW28102  13.172   7.559   0.109
75402SOL    HW128103  13.239   7.603   0.163
75402SOL    HW228104  13.222   7.499   0.054
75403SOL     OW28105   0.179  13.482   6.680
75403SOL    HW128106   0.085  13.480   6.699
75403SOL    HW228107   0.213  13.551   6.738
75404SOL     OW28108  13.451  12.967   9.435
75404SOL    HW128109  13.384  12.908   9.472
75404SOL    HW228110  13.534  12.926   9.460
75405SOL     OW28111   5.698   6.802   9.722
75405SOL    HW128112   5.660   6.856   9.653
75405SOL    HW228113   5.752   6.738   9.674
75406SOL     OW28114   5.387  11.841  10.235
75406SOL    HW128115   5.429  11.845  10.149
75406SOL    HW228116   5.371  11.748  10.250
75407SOL     OW28117   1.330  12.601   8.276
75407SOL    HW128118   1.409  12.639   8.314
75407SOL    HW228119   1.353  12.581   8.186
75408SOL     OW28120   9.313   1.964  11.310
75408SOL    HW128121   9.219   1.963  11.294
75408SOL    HW228122   9.353   1.957  11.223
75409SOL     OW28123  10.239   8.406   8.458
75409SOL    HW128124  10.200   8.352   8.389
75409SOL    HW228125  10.180   8.481   8.467
75410SOL     OW28126  13.553   1.790   3.444
75410SOL    HW128127  13.639   1.752   3.461
75410SOL    HW228128  13.528   1.831   3.527
75411SOL     OW28129  13.477   3.267  12.975
75411SOL    HW128130  13.507   3.340  13.028
75411SOL    HW228131  13.508   3.189  13.021
75412SOL     OW28132   2.066   4.294  13.418
75412SOL    HW128133   2.064   4.387  13.397
75412SOL    HW228134   2.121   4.255  13.351
75413SOL     OW28135   0.076   2.665  12.994
75413SOL    HW128136   0.056   2.729  13.062
75413SOL    HW228137   0.142   2.608  13.033
75414SOL     OW28138  13.549  11.691  12.615
75414SOL    HW128139  13.595  11.762  12.660
75414SOL    HW228140  13.607  11.616  12.625
75415SOL     OW28141   9.643  14.529   7.181
75415SOL    HW128142   9.599  14.560   7.260
75415SOL    HW228143   9.687  14.607   7.146
75416SOL     OW28144   8.496   1.434  10.213
75416SOL    HW128145   8.402   1.423  10.200
75416SOL    HW228146   8.506   1.526  10.240
75417SOL     OW28147  13.380   7.375   4.721
75417SOL    HW128148  13.446   7.402   4.785
75417SOL    HW228149  13.413   7.408   4.638
75418SOL     OW28150   2.973   8.134   6.883
75418SOL    HW128151   2.968   8.129   6.787
75418SOL    HW228152   2.944   8.048   6.913
75419SOL     OW28153   7.583  10.673  13.616
75419SOL    HW128154   7.501  10.718  13.636
75419SOL    HW228155   7.558  10.604  13.555
75420SOL     OW28156   8.524   4.204   4.346
75420SOL    HW128157   8.507   4.216   4.253
75420SOL    HW228158   8.477   4.277   4.389
75421SOL     OW28159  10.022   9.096  11.782
75421SOL    HW128160   9.927   9.086  11.783
75421SOL    HW228161  10.055   9.009  11.762
75422SOL     OW28162   7.555   9.321   1.338
75422SOL    HW128163   7.534   9.383   1.408
75422SOL    HW228164   7.630   9.272   1.372
75423SOL     OW28165   6.937   8.004   9.568
75423SOL    HW128166   7.009   7.985   9.628
75423SOL    HW228167   6.978   8.009   9.481
75424SOL     OW28168  14.732  10.694   2.826
75424SOL    HW128169  14.697  10.617   2.872
75424SOL    HW228170  14.660  10.756   2.825
75425SOL     OW28171  14.457  14.813   6.828
75425SOL    HW128172  14.407  14.745   6.783
75425SOL    HW228173  14.402  14.838   6.903
75426SOL     OW28174  10.715   8.396   5.924
75426SOL    HW128175  10.756   8.316   5.958
75426SOL    HW228176  10.646   8.365   5.866
75427SOL     OW28177  10.414   2.571  10.992
75427SOL    HW128178  10.381   2.487  11.023
75427SOL    HW228179  10.388   2.576  10.900
75428SOL     OW28180   1.675   8.404   8.990
75428SOL    HW128181   1.730   8.414   8.911
75428SOL    HW228182   1.725   8.345   9.046
75429SOL     OW28183   0.346   2.444  13.651
75429SOL    HW128184   0.306   2.364  13.619
75429SOL    HW228185   0.325   2.509  13.584
75430SOL     OW28186  13.903   6.934  11.815
75430SOL    HW128187  13.935   7.015  11.776
75430SOL    HW228188  13.808   6.945  11.817
75431SOL     OW28189   9.736   9.209   4.858
75431SOL    HW128190   9.706   9.140   4.800
75431SOL    HW228191   9.770   9.163   4.935
75432SOL     OW28192   4.046   9.801   3.104
75432SOL    HW128193   4.063   9.722   3.156
75432SOL    HW228194   3.995   9.857   3.162
75433SOL     OW28195   2.316   4.711  10.334
75433SOL    HW128196   2.364   4.647  10.282
75433SOL    HW228197   2.329   4.683  10.425
75434SOL     OW28198   8.612   9.608   3.908
75434SOL    HW128199   8.697   9.619   3.864
75434SOL    HW228200   8.623   9.650   3.993
75435SOL     OW28201   7.994   0.813  11.125
75435SOL    HW128202   7.973   0.906  11.137
75435SOL    HW228203   8.089   0.811  11.111
75436SOL     OW28204   5.937   3.450  10.663
75436SOL    HW128205   5.914   3.538  10.693
75436SOL    HW228206   5.866   3.394  10.694
75437SOL     OW28207  10.095   4.309  11.710
75437SOL    HW128208  10.024   4.374  11.717
75437SOL    HW228209  10.138   4.330  11.627
75438SOL     OW28210  13.646   3.576   7.276
75438SOL    HW128211  13.713   3.515   7.308
75438SOL    HW228212  13.692   3.660   7.270
75439SOL     OW28213   7.006   2.155   8.599
75439SOL    HW128214   7.018   2.249   8.585
75439SOL    HW228215   6.921   2.148   8.644
75440SOL     OW28216  10.678  12.343  11.703
75440SOL    HW128217  10.639  12.327  11.617
75440SOL    HW228218  10.674  12.259  11.747
75441SOL     OW28219   6.421   8.339   3.470
75441SOL    HW128220   6.508   8.365   3.438
75441SOL    HW228221   6.360   8.376   3.406
75442SOL     OW28222   9.757   1.445   0.974
75442SOL    HW128223   9.674   1.472   0.936
75442SOL    HW228224   9.807   1.526   0.984
75443SOL     OW28225   3.647   3.846   3.426
75443SOL    HW128226   3.670   3.757   3.397
75443SOL    HW228227   3.608   3.833   3.512
75444SOL     OW28228   1.577   1.027   6.314
75444SOL    HW128229   1.659   1.040   6.266
75444SOL    HW228230   1.602   1.031   6.406
75445SOL     OW28231   3.329  10.477  11.220
75445SOL    HW128232   3.415  10.498  11.184
75445SOL    HW228233   3.301  10.398  11.174
75446SOL     OW28234   4.076   1.314   4.355
75446SOL    HW128235   4.063   1.221   4.337
75446SOL    HW228236   4.063   1.323   4.449
75447SOL     OW28237   4.908  14.143   7.270
75447SOL    HW128238   4.953  14.060   7.250
75447SOL    HW228239   4.928  14.199   7.195
75448SOL     OW28240  11.271   2.459  11.172
75448SOL    HW128241  11.221   2.431  11.249
75448SOL    HW228242  11.205   2.464  11.102
75449SOL     OW28243   4.219  12.198   4.006
75449SOL    HW128244   4.160  12.122   4.000
75449SOL    HW228245   4.307  12.161   3.999
75450SOL     OW28246   9.656  11.814   1.614
75450SOL    HW128247   9.744  11.818   1.578
75450SOL    HW228248   9.604  11.870   1.557
75451SOL     OW28249  12.627   3.057   4.534
75451SOL    HW128250  12.718   3.027   4.534
75451SOL    HW228251  12.605   3.067   4.626
75452SOL     OW28252   8.795   4.916   8.133
75452SOL    HW128253   8.746   4.943   8.055
75452SOL    HW228254   8.797   4.820   8.128
75453SOL     OW28255  13.110  11.902   4.845
75453SOL    HW128256  13.163  11.839   4.796
75453SOL    HW228257  13.029  11.910   4.795
75454SOL     OW28258   1.508   7.779   5.093
75454SOL    HW128259   1.446   7.851   5.104
75454SOL    HW228260   1.465   7.704   5.135
75455SOL     OW28261  10.139  10.977   7.913
75455SOL    HW128262  10.097  10.898   7.880
75455SOL    HW228263  10.073  11.046   7.900
75456SOL     OW28264   0.146   6.790  10.163
75456SOL    HW128265   0.062   6.785  10.117
75456SOL    HW228266   0.184   6.703  10.153
75457SOL     OW28267   5.241  14.096   8.323
75457SOL    HW128268   5.307  14.145   8.274
75457SOL    HW228269   5.214  14.155   8.393
75458SOL     OW28270   6.329  14.065   0.020
75458SOL    HW128271   6.418  14.047  14.867
75458SOL    HW228272   6.341  14.123   0.096
75459SOL     OW28273   5.616   9.495  11.807
75459SOL    HW128274   5.689   9.455  11.854
75459SOL    HW228275   5.568   9.543  11.874
75460SOL     OW28276   8.419  14.758  12.347
75460SOL    HW128277   8.467  14.675  12.350
75460SOL    HW228278   8.451  14.807  12.422
75461SOL     OW28279  12.596   1.885  11.038
75461SOL    HW128280  12.573   1.949  10.970
75461SOL    HW228281  12.669   1.925  11.085
75462SOL     OW28282   1.548   9.717  13.641
75462SOL    HW128283   1.487   9.722  13.568
75462SOL    HW228284   1.578   9.808  13.652
75463SOL     OW28285  12.531   9.962   2.489
75463SOL    HW128286  12.528  10.034   2.552
75463SOL    HW228287  12.615   9.919   2.506
75464SOL     OW28288   4.115   7.818  12.895
75464SOL    HW128289   4.199   7.794  12.856
75464SOL    HW228290   4.136   7.843  12.985
75465SOL     OW28291   4.358  12.700  14.770
75465SOL    HW128292   4.272  12.694  14.812
75465SOL    HW228293   4.390  12.787  14.794
75466SOL     OW28294  11.069   3.396   4.313
75466SOL    HW128295  11.117   3.450   4.376
75466SOL    HW228296  10.986   3.377   4.356
75467SOL     OW28297  12.012  10.685   8.985
75467SOL    HW128298  11.980  10.632   8.912
75467SOL    HW228299  12.075  10.746   8.945
75468SOL     OW28300   6.318   0.257   1.708
75468SOL    HW128301   6.276   0.305   1.637
75468SOL    HW228302   6.292   0.305   1.787
75469SOL     OW28303  11.195  13.339   4.945
75469SOL    HW128304  11.212  13.252   4.981
75469SOL    HW228305  11.210  13.329   4.851
75470SOL     OW28306   4.309   2.899  14.574
75470SOL    HW128307   4.393   2.931  14.607
75470SOL    HW228308   4.326   2.878  14.482
75471SOL     OW28309  12.801   3.048   6.069
75471SOL    HW128310  12.856   3.119   6.037
75471SOL    HW228311  12.714   3.087   6.078
75472SOL     OW28312   4.439  10.694   3.255
75472SOL    HW128313   4.393  10.733   3.329
75472SOL    HW228314   4.525  10.737   3.255
75473SOL     OW28315  14.167   0.705   9.596
75473SOL    HW128316  14.200   0.655   9.521
75473SOL    HW228317  14.188   0.796   9.574
75474SOL     OW28318   2.149  13.733   5.673
75474SOL    HW128319   2.088  13.663   5.696
75474SOL    HW228320   2.232  13.688   5.657
75475SOL     OW28321   3.730   5.987   5.563
75475SOL    HW128322   3.740   6.017   5.653
75475SOL    HW228323   3.815   6.000   5.522
75476SOL     OW28324   6.310   1.274   1.059
75476SOL    HW128325   6.381   1.223   1.019
75476SOL    HW228326   6.236   1.214   1.061
75477SOL     OW28327   2.993  14.076   3.034
75477SOL    HW128328   2.946  14.147   2.990
75477SOL    HW228329   2.981  14.000   2.976
75478SOL     OW28330   3.675  13.436  11.195
75478SOL    HW128331   3.759  13.459  11.235
75478SOL    HW228332   3.657  13.508  11.134
75479SOL     OW28333  14.754   1.944   6.343
75479SOL    HW128334  14.843   1.913   6.327
75479SOL    HW228335  14.698   1.873   6.313
75480SOL     OW28336   6.383  12.049  10.323
75480SOL    HW128337   6.354  12.001  10.401
75480SOL    HW228338   6.463  12.094  10.352
75481SOL     OW28339   6.711   3.750   3.584
75481SOL    HW128340   6.619   3.756   3.561
75481SOL    HW228341   6.711   3.735   3.679
75482SOL     OW28342   8.086   7.743  10.784
75482SOL    HW128343   8.117   7.740  10.694
75482SOL    HW228344   8.096   7.834  10.810
75483SOL     OW28345   3.376   5.506  13.095
75483SOL    HW128346   3.303   5.444  13.098
75483SOL    HW228347   3.452   5.453  13.070
75484SOL     OW28348   7.182   1.192   7.577
75484SOL    HW128349   7.180   1.112   7.526
75484SOL    HW228350   7.223   1.168   7.660
75485SOL     OW28351   5.663   3.397   6.386
75485SOL    HW128352   5.629   3.400   6.297
75485SOL    HW228353   5.735   3.334   6.382
75486SOL     OW28354   0.206   4.556  11.230
75486SOL    HW128355   0.219   4.623  11.297
75486SOL    HW228356   0.111   4.547  11.224
75487SOL     OW28357  13.394   8.182  11.986
75487SOL    HW128358  13.474   8.192  11.935
75487SOL    HW228359  13.415   8.219  12.071
75488SOL     OW28360  11.586   7.481   5.698
75488SOL    HW128361  11.644   7.541   5.651
75488SOL    HW228362  11.605   7.497   5.791
75489SOL     OW28363  14.464   1.595   5.127
75489SOL    HW128364  14.504   1.639   5.202
75489SOL    HW228365  14.379   1.638   5.116
75490SOL     OW28366   8.520   1.411   4.082
75490SOL    HW128367   8.486   1.336   4.130
75490SOL    HW228368   8.536   1.378   3.993
75491SOL     OW28369   6.407   4.754   7.773
75491SOL    HW128370   6.336   4.767   7.711
75491SOL    HW228371   6.442   4.841   7.789
75492SOL     OW28372   0.381  11.047   1.379
75492SOL    HW128373   0.464  11.013   1.344
75492SOL    HW228374   0.379  11.138   1.349
75493SOL     OW28375  14.767  10.847   9.235
75493SOL    HW128376  14.750  10.843   9.141
75493SOL    HW228377  14.788  10.757   9.260
75494SOL     OW28378  12.676  13.529   1.163
75494SOL    HW128379  12.749  13.478   1.130
75494SOL    HW228380  12.611  13.527   1.092
75495SOL     OW28381   2.448   5.183   4.027
75495SOL    HW128382   2.378   5.229   4.074
75495SOL    HW228383   2.416   5.177   3.937
75496SOL     OW28384  14.046   9.544   1.773
75496SOL    HW128385  14.106   9.605   1.732
75496SOL    HW228386  14.009   9.591   1.848
75497SOL     OW28387   4.794   1.484  10.575
75497SOL    HW128388   4.782   1.420  10.645
75497SOL    HW228389   4.852   1.550  10.614
75498SOL     OW28390  10.499   4.694   3.680
75498SOL    HW128391  10.474   4.739   3.761
75498SOL    HW228392  10.595   4.695   3.681
75499SOL     OW28393  11.723  14.551   4.682
75499SOL    HW128394  11.720  14.563   4.587
75499SOL    HW228395  11.808  14.510   4.698
75500SOL     OW28396  14.525   0.329   2.163
75500SOL    HW128397  14.560   0.242   2.143
75500SOL    HW228398  14.594   0.389   2.132
75501SOL     OW28399  10.923  14.875   1.888
75501SOL    HW128400  10.895  14.786   1.913
75501SOL    HW228401  10.947   0.039   1.971
75502SOL     OW28402  12.111  10.307   6.837
75502SOL    HW128403  12.160  10.279   6.760
75502SOL    HW228404  12.175  10.306   6.908
75503SOL     OW28405  12.514  12.694   2.475
75503SOL    HW128406  12.442  12.667   2.532
75503SOL    HW228407  12.514  12.790   2.480
75504SOL     OW28408   2.068   5.571   5.478
75504SOL    HW128409   2.091   5.600   5.390
75504SOL    HW228410   2.146   5.526   5.510
75505SOL     OW28411   2.861   7.562   0.296
75505SOL    HW128412   2.767   7.550   0.280
75505SOL    HW228413   2.900   7.554   0.209
75506SOL     OW28414   4.706   7.031  13.013
75506SOL    HW128415   4.784   7.017  12.958
75506SOL    HW228416   4.736   7.010  13.101
75507SOL     OW28417   2.903   2.425   2.536
75507SOL    HW128418   2.935   2.338   2.516
75507SOL    HW228419   2.933   2.479   2.463
75508SOL     OW28420   5.366   7.145  11.408
75508SOL    HW128421   5.448   7.095  11.411
75508SOL    HW228422   5.298   7.081  11.423
75509SOL     OW28423  14.852   1.774   2.895
75509SOL    HW128424  14.800   1.720   2.837
75509SOL    HW228425  14.812   1.763   2.981
75510SOL     OW28426   7.034  10.635   1.573
75510SOL    HW128427   6.964  10.574   1.595
75510SOL    HW228428   6.989  10.713   1.540
75511SOL     OW28429  11.797   7.373   5.413
75511SOL    HW128430  11.749   7.439   5.363
75511SOL    HW228431  11.885   7.375   5.375
75512SOL     OW28432   1.176   1.645  11.887
75512SOL    HW128433   1.135   1.699  11.954
75512SOL    HW228434   1.148   1.556  11.908
75513SOL     OW28435   5.498   7.024  12.363
75513SOL    HW128436   5.557   7.050  12.292
75513SOL    HW228437   5.437   6.962  12.322
75514SOL     OW28438   3.193  13.776   8.616
75514SOL    HW128439   3.125  13.717   8.650
75514SOL    HW228440   3.191  13.851   8.674
75515SOL     OW28441  12.196   0.627   6.952
75515SOL    HW128442  12.161   0.707   6.992
75515SOL    HW228443  12.233   0.656   6.869
75516SOL     OW28444   9.205  13.842  11.779
75516SOL    HW128445   9.120  13.811  11.811
75516SOL    HW228446   9.229  13.911  11.841
75517SOL     OW28447  12.511  13.710   7.370
75517SOL    HW128448  12.468  13.763   7.303
75517SOL    HW228449  12.547  13.635   7.322
75518SOL     OW28450   3.392   8.310  12.949
75518SOL    HW128451   3.358   8.228  12.914
75518SOL    HW228452   3.329   8.377  12.921
75519SOL     OW28453   2.707   8.284   8.657
75519SOL    HW128454   2.798   8.279   8.683
75519SOL    HW228455   2.708   8.269   8.563
75520SOL     OW28456  12.447   5.841   7.732
75520SOL    HW128457  12.456   5.751   7.761
75520SOL    HW228458  12.353   5.855   7.722
75521SOL     OW28459   4.295   3.770   3.495
75521SOL    HW128460   4.309   3.715   3.417
75521SOL    HW228461   4.350   3.730   3.562
75522SOL     OW28462   9.808   9.923   3.065
75522SOL    HW128463   9.899   9.896   3.053
75522SOL    HW228464   9.756   9.849   3.033
75523SOL     OW28465   6.676  10.538  10.168
75523SOL    HW128466   6.694  10.443  10.167
75523SOL    HW228467   6.704  10.567  10.254
75524SOL     OW28468   8.184  10.299  10.488
75524SOL    HW128469   8.253  10.354  10.526
75524SOL    HW228470   8.133  10.268  10.563
75525SOL     OW28471   2.307  10.949   3.060
75525SOL    HW128472   2.318  10.997   3.143
75525SOL    HW228473   2.221  10.907   3.068
75526SOL     OW28474   8.283  11.417   2.858
75526SOL    HW128475   8.348  11.433   2.927
75526SOL    HW228476   8.335  11.408   2.778
75527SOL     OW28477  11.074   8.682   2.518
75527SOL    HW128478  11.161   8.670   2.557
75527SOL    HW228479  11.016   8.698   2.592
75528SOL     OW28480   8.909   6.077  14.180
75528SOL    HW128481   8.954   6.034  14.108
75528SOL    HW228482   8.837   6.124  14.139
75529SOL     OW28483   1.278   0.048  13.368
75529SOL    HW128484   1.342   0.060  13.438
75529SOL    HW228485   1.224  14.853  13.397
75530SOL     OW28486  11.943   4.506   1.807
75530SOL    HW128487  11.922   4.458   1.727
75530SOL    HW228488  12.006   4.450   1.852
75531SOL     OW28489  14.692   2.447   7.604
75531SOL    HW128490  14.758   2.393   7.647
75531SOL    HW228491  14.637   2.385   7.555
75532SOL     OW28492  12.036   6.228   5.717
75532SOL    HW128493  11.976   6.272   5.777
75532SOL    HW228494  12.051   6.292   5.647
75533SOL     OW28495  12.574   7.064  11.177
75533SOL    HW128496  12.624   7.085  11.098
75533SOL    HW228497  12.485   7.093  11.157
75534SOL     OW28498   1.421  14.400   4.315
75534SOL    HW128499   1.516  14.406   4.302
75534SOL    HW228500   1.388  14.366   4.232
75535SOL     OW28501  11.969   3.067   0.850
75535SOL    HW128502  12.011   3.006   0.790
75535SOL    HW228503  12.040   3.119   0.886
75536SOL     OW28504   7.285   1.827   9.678
75536SOL    HW128505   7.341   1.831   9.601
75536SOL    HW228506   7.310   1.746   9.722
75537SOL     OW28507   9.233   6.221   1.346
75537SOL    HW128508   9.326   6.240   1.355
75537SOL    HW228509   9.201   6.215   1.436
75538SOL     OW28510   2.570   9.300   5.903
75538SOL    HW128511   2.547   9.369   5.841
75538SOL    HW228512   2.494   9.294   5.961
75539SOL     OW28513  10.859  11.267   4.453
75539SOL    HW128514  10.918  11.321   4.402
75539SOL    HW228515  10.777  11.267   4.404
75540SOL     OW28516   3.131   6.488   8.318
75540SOL    HW128517   3.147   6.410   8.371
75540SOL    HW228518   3.100   6.553   8.381
75541SOL     OW28519   4.829   1.983   9.650
75541SOL    HW128520   4.831   1.991   9.555
75541SOL    HW228521   4.762   2.045   9.677
75542SOL     OW28522   6.186  11.444   5.385
75542SOL    HW128523   6.211  11.395   5.463
75542SOL    HW228524   6.095  11.420   5.370
75543SOL     OW28525   6.020   5.777   7.768
75543SOL    HW128526   5.999   5.684   7.779
75543SOL    HW228527   6.114   5.778   7.753
75544SOL     OW28528  11.729  12.667  14.499
75544SOL    HW128529  11.710  12.604  14.430
75544SOL    HW228530  11.808  12.633  14.541
75545SOL     OW28531   3.154   9.466  14.101
75545SOL    HW128532   3.200   9.529  14.045
75545SOL    HW228533   3.206   9.386  14.094
75546SOL     OW28534  12.433   4.459   9.362
75546SOL    HW128535  12.495   4.465   9.289
75546SOL    HW228536  12.450   4.537   9.414
75547SOL     OW28537   2.579   8.759   5.275
75547SOL    HW128538   2.501   8.773   5.328
75547SOL    HW228539   2.629   8.693   5.323
75548SOL     OW28540   6.562   7.167  11.008
75548SOL    HW128541   6.594   7.086  10.968
75548SOL    HW228542   6.584   7.235  10.945
75549SOL     OW28543  11.509   6.920   2.487
75549SOL    HW128544  11.494   6.996   2.432
75549SOL    HW228545  11.531   6.850   2.425
75550SOL     OW28546  11.982   9.973  10.421
75550SOL    HW128547  11.929   9.897  10.398
75550SOL    HW228548  12.068   9.954  10.384
75551SOL     OW28549   4.225   9.992   3.755
75551SOL    HW128550   4.261   9.914   3.798
75551SOL    HW228551   4.133   9.970   3.739
75552SOL     OW28552  12.354   0.912  14.151
75552SOL    HW128553  12.431   0.966  14.169
75552SOL    HW228554  12.339   0.863  14.232
75553SOL     OW28555   3.721   5.229  11.264
75553SOL    HW128556   3.678   5.152  11.303
75553SOL    HW228557   3.807   5.232  11.306
75554SOL     OW28558  13.953   9.737   5.861
75554SOL    HW128559  13.904   9.655   5.869
75554SOL    HW228560  13.965   9.766   5.952
75555SOL     OW28561  11.278   8.049   7.715
75555SOL    HW128562  11.342   8.120   7.702
75555SOL    HW228563  11.199   8.081   7.670
75556SOL     OW28564   9.099   6.676   4.999
75556SOL    HW128565   9.045   6.670   4.920
75556SOL    HW228566   9.152   6.596   4.997
75557SOL     OW28567  14.002  13.965   1.295
75557SOL    HW128568  13.923  13.915   1.315
75557SOL    HW228569  14.058  13.902   1.249
75558SOL     OW28570  11.216   6.062   4.065
75558SOL    HW128571  11.279   5.994   4.090
75558SOL    HW228572  11.145   6.015   4.022
75559SOL     OW28573   9.792   8.309   7.123
75559SOL    HW128574   9.727   8.248   7.088
75559SOL    HW228575   9.742   8.384   7.152
75560SOL     OW28576  11.111  12.989   3.220
75560SOL    HW128577  11.027  12.991   3.174
75560SOL    HW228578  11.124  12.897   3.243
75561SOL     OW28579   3.418   3.139  13.818
75561SOL    HW128580   3.426   3.113  13.726
75561SOL    HW228581   3.472   3.076  13.865
75562SOL     OW28582   1.543   3.837   5.830
75562SOL    HW128583   1.562   3.743   5.837
75562SOL    HW228584   1.477   3.843   5.761
75563SOL     OW28585   0.132  13.360   5.803
75563SOL    HW128586   0.189  13.305   5.857
75563SOL    HW228587   0.072  13.298   5.762
75564SOL     OW28588  10.616   5.770  14.286
75564SOL    HW128589  10.624   5.682  14.249
75564SOL    HW228590  10.666   5.826  14.227
75565SOL     OW28591  13.433   6.944   8.708
75565SOL    HW128592  13.434   7.035   8.739
75565SOL    HW228593  13.428   6.891   8.787
75566SOL     OW28594  11.497   7.572  14.701
75566SOL    HW128595  11.451   7.656  14.706
75566SOL    HW228596  11.590   7.595  14.711
75567SOL     OW28597   6.046   6.898   5.330
75567SOL    HW128598   6.059   6.840   5.255
75567SOL    HW228599   6.098   6.858   5.400
75568SOL     OW28600   1.921  14.719  12.619
75568SOL    HW128601   2.007  14.746  12.587
75568SOL    HW228602   1.919  14.745  12.711
75569SOL     OW28603   5.860   3.991   8.807
75569SOL    HW128604   5.836   3.962   8.895
75569SOL    HW228605   5.948   3.957   8.793
75570SOL     OW28606   6.267   4.806  12.709
75570SOL    HW128607   6.221   4.883  12.678
75570SOL    HW228608   6.259   4.809  12.804
75571SOL     OW28609   1.838   5.366  14.405
75571SOL    HW128610   1.870   5.384  14.494
75571SOL    HW228611   1.863   5.444  14.354
75572SOL     OW28612  14.457   0.064  13.620
75572SOL    HW128613  14.366   0.035  13.630
75572SOL    HW228614  14.498   0.044  13.704
75573SOL     OW28615  10.885   5.128  12.754
75573SOL    HW128616  10.980   5.138  12.753
75573SOL    HW228617  10.857   5.172  12.834
75574SOL     OW28618   0.149   0.936  10.021
75574SOL    HW128619   0.233   0.894  10.003
75574SOL    HW228620   0.153   0.959  10.114
75575SOL     OW28621   3.767  14.178   8.041
75575SOL    HW128622   3.853  14.198   8.077
75575SOL    HW228623   3.706  14.211   8.107
75576SOL     OW28624   3.112   8.641  11.727
75576SOL    HW128625   3.055   8.700  11.677
75576SOL    HW228626   3.132   8.569  11.667
75577SOL     OW28627   1.433   5.297   8.322
75577SOL    HW128628   1.486   5.277   8.245
75577SOL    HW228629   1.487   5.271   8.396
75578SOL     OW28630   6.608   9.766   6.375
75578SOL    HW128631   6.528   9.771   6.322
75578SOL    HW228632   6.642   9.855   6.375
75579SOL     OW28633   4.123   5.415   2.393
75579SOL    HW128634   4.035   5.418   2.355
75579SOL    HW228635   4.181   5.438   2.320
75580SOL     OW28636   1.920  14.586   1.311
75580SOL    HW128637   1.994  14.645   1.331
75580SOL    HW228638   1.875  14.628   1.238
75581SOL     OW28639   9.186   6.330   1.767
75581SOL    HW128640   9.280   6.346   1.758
75581SOL    HW228641   9.176   6.235   1.755
75582SOL     OW28642  12.949   9.759   8.478
75582SOL    HW128643  12.951   9.669   8.445
75582SOL    HW228644  12.875   9.800   8.433
75583SOL     OW28645   5.821   9.965   3.337
75583SOL    HW128646   5.820   9.988   3.244
75583SOL    HW228647   5.780   9.879   3.342
75584SOL     OW28648   1.354  12.404   1.275
75584SOL    HW128649   1.384  12.491   1.300
75584SOL    HW228650   1.385  12.347   1.346
75585SOL     OW28651   5.891  10.086  11.371
75585SOL    HW128652   5.858  10.048  11.290
75585SOL    HW228653   5.984  10.101  11.355
75586SOL     OW28654   9.167   6.739   6.093
75586SOL    HW128655   9.257   6.742   6.060
75586SOL    HW228656   9.160   6.654   6.135
75587SOL     OW28657  11.812   7.079   0.343
75587SOL    HW128658  11.798   7.041   0.256
75587SOL    HW228659  11.724   7.106   0.371
75588SOL     OW28660   7.380   8.763   1.381
75588SOL    HW128661   7.356   8.684   1.429
75588SOL    HW228662   7.351   8.747   1.291
75589SOL     OW28663   9.029   9.763   7.711
75589SOL    HW128664   8.948   9.814   7.719
75589SOL    HW228665   9.005   9.690   7.654
75590SOL     OW28666   4.819  11.916  14.552
75590SOL    HW128667   4.904  11.888  14.517
75590SOL    HW228668   4.827  11.905  14.647
75591SOL     OW28669   2.281  13.146  14.007
75591SOL    HW128670   2.214  13.190  14.060
75591SOL    HW228671   2.289  13.059  14.047
75592SOL     OW28672   3.126  10.428   0.094
75592SOL    HW128673   3.055  10.421   0.029
75592SOL    HW228674   3.105  10.361   0.159
75593SOL     OW28675   9.570   5.788   2.353
75593SOL    HW128676   9.536   5.781   2.443
75593SOL    HW228677   9.523   5.720   2.305
75594SOL     OW28678   9.102   3.660   3.285
75594SOL    HW128679   9.026   3.647   3.342
75594SOL    HW228680   9.078   3.733   3.229
75595SOL     OW28681  10.581   0.348   0.858
75595SOL    HW128682  10.672   0.361   0.830
75595SOL    HW228683  10.569   0.410   0.929
75596SOL     OW28684   5.375   0.614   9.894
75596SOL    HW128685   5.329   0.697   9.907
75596SOL    HW228686   5.314   0.547   9.926
75597SOL     OW28687   8.840  10.829   4.124
75597SOL    HW128688   8.908  10.897   4.121
75597SOL    HW228689   8.829  10.811   4.217
75598SOL     OW28690   9.736   9.968  10.293
75598SOL    HW128691   9.690   9.905  10.238
75598SOL    HW228692   9.671   9.996  10.357
75599SOL     OW28693  11.853   6.582  13.058
75599SOL    HW128694  11.878   6.566  12.967
75599SOL    HW228695  11.924   6.635  13.094
75600SOL     OW28696   8.274  10.346   4.822
75600SOL    HW128697   8.366  10.359   4.846
75600SOL    HW228698   8.229  10.423   4.857
75601SOL     OW28699   4.812   5.283   5.814
75601SOL    HW128700   4.898   5.274   5.774
75601SOL    HW228701   4.751   5.248   5.749
75602SOL     OW28702  13.189   8.575  11.266
75602SOL    HW128703  13.126   8.585  11.337
75602SOL    HW228704  13.273   8.565  11.311
75603SOL     OW28705   8.738  12.488  12.732
75603SOL    HW128706   8.730  12.563  12.791
75603SOL    HW228707   8.770  12.417  12.788
75604SOL     OW28708   1.105   4.263   1.770
75604SOL    HW128709   1.064   4.183   1.804
75604SOL    HW228710   1.044   4.333   1.794
75605SOL     OW28711  11.363   4.081  11.735
75605SOL    HW128712  11.289   4.128  11.774
75605SOL    HW228713  11.361   3.995  11.777
75606SOL     OW28714  12.402   9.702   9.857
75606SOL    HW128715  12.450   9.723   9.777
75606SOL    HW228716  12.310   9.717   9.834
75607SOL     OW28717   4.090   4.145   6.457
75607SOL    HW128718   4.136   4.211   6.405
75607SOL    HW228719   3.998   4.153   6.430
75608SOL     OW28720   8.372   9.216   5.840
75608SOL    HW128721   8.350   9.211   5.747
75608SOL    HW228722   8.450   9.162   5.848
75609SOL     OW28723   5.445  14.284   2.337
75609SOL    HW128724   5.489  14.265   2.254
75609SOL    HW228725   5.506  14.253   2.404
75610SOL     OW28726  13.073   6.641   4.295
75610SOL    HW128727  13.081   6.673   4.385
75610SOL    HW228728  12.981   6.655   4.273
75611SOL     OW28729  10.457  14.299   1.311
75611SOL    HW128730  10.493  14.380   1.274
75611SOL    HW228731  10.533  14.252   1.344
75612SOL     OW28732  11.260   8.013   2.650
75612SOL    HW128733  11.180   7.980   2.611
75612SOL    HW228734  11.247   8.002   2.744
75613SOL     OW28735  10.968   3.528   2.268
75613SOL    HW128736  10.979   3.608   2.320
75613SOL    HW228737  10.893   3.547   2.211
75614SOL     OW28738   1.897  10.389   4.880
75614SOL    HW128739   1.884  10.435   4.963
75614SOL    HW228740   1.862  10.302   4.895
75615SOL     OW28741   9.353  14.023   2.345
75615SOL    HW128742   9.293  14.084   2.301
75615SOL    HW228743   9.357  14.055   2.435
75616SOL     OW28744  14.612   4.920  11.502
75616SOL    HW128745  14.671   4.916  11.426
75616SOL    HW228746  14.634   4.843  11.554
75617SOL     OW28747   5.846  11.733  10.207
75617SOL    HW128748   5.799  11.805  10.165
75617SOL    HW228749   5.921  11.718  10.150
75618SOL     OW28750   9.653   1.745   1.006
75618SOL    HW128751   9.698   1.799   0.942
75618SOL    HW228752   9.593   1.690   0.955
75619SOL     OW28753  10.237   8.544  12.934
75619SOL    HW128754  10.310   8.506  12.982
75619SOL    HW228755  10.255   8.523  12.842
75620SOL     OW28756   4.702   1.679  14.182
75620SOL    HW128757   4.771   1.738  14.211
75620SOL    HW228758   4.626   1.701  14.237
75621SOL     OW28759  13.366  13.655   1.859
75621SOL    HW128760  13.393  13.585   1.919
75621SOL    HW228761  13.378  13.735   1.910
75622SOL     OW28762   4.491  12.058   2.893
75622SOL    HW128763   4.503  11.967   2.920
75622SOL    HW228764   4.507  12.109   2.973
75623SOL     OW28765   8.714  12.910  13.479
75623SOL    HW128766   8.630  12.922  13.524
75623SOL    HW228767   8.776  12.892  13.549
75624SOL     OW28768   7.941   2.106   5.301
75624SOL    HW128769   7.947   2.117   5.396
75624SOL    HW228770   7.897   2.185   5.269
75625SOL     OW28771   5.204  11.875  12.836
75625SOL    HW128772   5.117  11.889  12.800
75625SOL    HW228773   5.200  11.789  12.877
75626SOL     OW28774  10.094  10.225  12.356
75626SOL    HW128775  10.178  10.225  12.402
75626SOL    HW228776  10.034  10.184  12.418
75627SOL     OW28777  11.520   6.641   0.442
75627SOL    HW128778  11.481   6.557   0.416
75627SOL    HW228779  11.614   6.630   0.425
75628SOL     OW28780   8.174  13.108   2.130
75628SOL    HW128781   8.121  13.071   2.060
75628SOL    HW228782   8.232  13.171   2.086
75629SOL     OW28783   2.038  11.236   1.309
75629SOL    HW128784   2.044  11.290   1.230
75629SOL    HW228785   2.126  11.202   1.320
75630SOL     OW28786   9.637   9.965  13.224
75630SOL    HW128787   9.695  10.014  13.166
75630SOL    HW228788   9.582  10.032  13.264
75631SOL     OW28789  13.674  14.501  12.674
75631SOL    HW128790  13.662  14.438  12.602
75631SOL    HW228791  13.764  14.486  12.703
75632SOL     OW28792  10.247  11.866  10.335
75632SOL    HW128793  10.256  11.905  10.422
75632SOL    HW228794  10.264  11.773  10.349
75633SOL     OW28795   8.566  10.069   8.064
75633SOL    HW128796   8.618  10.148   8.079
75633SOL    HW228797   8.566  10.058   7.969
75634SOL     OW28798  13.120  14.531   1.387
75634SOL    HW128799  13.093  14.538   1.295
75634SOL    HW228800  13.067  14.459   1.422
75635SOL     OW28801  14.708   8.942   3.956
75635SOL    HW128802  14.675   9.017   3.906
75635SOL    HW228803  14.751   8.981   4.032
75636SOL     OW28804   1.986  11.572   4.306
75636SOL    HW128805   2.007  11.646   4.249
75636SOL    HW228806   2.039  11.500   4.273
75637SOL     OW28807   0.481   6.436   8.955
75637SOL    HW128808   0.530   6.477   9.027
75637SOL    HW228809   0.390   6.457   8.974
75638SOL     OW28810  14.697  13.192  11.016
75638SOL    HW128811  14.614  13.204  11.062
75638SOL    HW228812  14.696  13.101  10.988
75639SOL     OW28813   9.938   3.246   2.636
75639SOL    HW128814   9.906   3.323   2.589
75639SOL    HW228815  10.026   3.271   2.665
75640SOL     OW28816  14.764   7.835   7.020
75640SOL    HW128817  14.814   7.821   7.101
75640SOL    HW228818  14.807   7.780   6.955
75641SOL     OW28819  10.173   7.932   6.113
75641SOL    HW128820  10.220   7.977   6.183
75641SOL    HW228821  10.151   7.846   6.150
75642SOL     OW28822   4.571   4.779   6.739
75642SOL    HW128823   4.476   4.773   6.745
75642SOL    HW228824   4.602   4.763   6.828
75643SOL     OW28825   9.749   0.259  11.078
75643SOL    HW128826   9.715   0.173  11.052
75643SOL    HW228827   9.783   0.296  10.996
75644SOL     OW28828   0.894   7.860   5.183
75644SOL    HW128829   0.837   7.784   5.171
75644SOL    HW228830   0.909   7.864   5.277
75645SOL     OW28831   4.641  14.718  11.493
75645SOL    HW128832   4.630  14.810  11.472
75645SOL    HW228833   4.731  14.698  11.467
75646SOL     OW28834  14.419   4.182   2.832
75646SOL    HW128835  14.422   4.087   2.840
75646SOL    HW228836  14.504   4.205   2.794
75647SOL     OW28837   9.618   8.518  10.262
75647SOL    HW128838   9.627   8.566  10.344
75647SOL    HW228839   9.533   8.474  10.269
75648SOL     OW28840  14.721   3.213   8.992
75648SOL    HW128841  14.809   3.251   9.000
75648SOL    HW228842  14.731   3.123   9.023
75649SOL     OW28843   5.933  14.576   5.520
75649SOL    HW128844   5.874  14.505   5.542
75649SOL    HW228845   5.981  14.594   5.601
75650SOL     OW28846   9.486  14.619   3.970
75650SOL    HW128847   9.446  14.697   3.930
75650SOL    HW228848   9.424  14.592   4.038
75651SOL     OW28849  11.308   1.230  10.661
75651SOL    HW128850  11.251   1.245  10.586
75651SOL    HW228851  11.275   1.291  10.728
75652SOL     OW28852   3.576   9.029   1.797
75652SOL    HW128853   3.555   9.104   1.741
75652SOL    HW228854   3.492   8.985   1.810
75653SOL     OW28855   4.262   2.100  11.834
75653SOL    HW128856   4.191   2.162  11.816
75653SOL    HW228857   4.266   2.045  11.755
75654SOL     OW28858   6.084   9.988   3.703
75654SOL    HW128859   6.030   9.918   3.739
75654SOL    HW228860   6.087  10.054   3.773
75655SOL     OW28861   4.239   0.772   5.103
75655SOL    HW128862   4.239   0.829   5.026
75655SOL    HW228863   4.160   0.797   5.151
75656SOL     OW28864  11.919  10.392   2.554
75656SOL    HW128865  11.929  10.403   2.460
75656SOL    HW228866  11.886  10.303   2.565
75657SOL     OW28867   2.352   5.776  11.312
75657SOL    HW128868   2.358   5.746  11.221
75657SOL    HW228869   2.414   5.721  11.360
75658SOL     OW28870  10.828   5.040   5.461
75658SOL    HW128871  10.810   5.087   5.380
75658SOL    HW228872  10.764   5.074   5.523
75659SOL     OW28873   9.968   0.987   9.107
75659SOL    HW128874   9.939   1.011   9.195
75659SOL    HW228875   9.901   1.024   9.049
75660SOL     OW28876   2.370   8.542   4.298
75660SOL    HW128877   2.293   8.582   4.257
75660SOL    HW228878   2.346   8.449   4.305
75661SOL     OW28879   5.692   0.305   1.789
75661SOL    HW128880   5.667   0.292   1.698
75661SOL    HW228881   5.760   0.373   1.786
75662SOL     OW28882   4.270   7.895   0.714
75662SOL    HW128883   4.313   7.953   0.777
75662SOL    HW228884   4.280   7.939   0.630
75663SOL     OW28885   3.525   2.419   4.580
75663SOL    HW128886   3.508   2.507   4.614
75663SOL    HW228887   3.439   2.376   4.581
75664SOL     OW28888   0.595   8.922   3.800
75664SOL    HW128889   0.635   9.009   3.791
75664SOL    HW228890   0.571   8.898   3.710
75665SOL     OW28891  11.536   2.080  11.823
75665SOL    HW128892  11.448   2.066  11.788
75665SOL    HW228893  11.535   2.035  11.908
75666SOL     OW28894   8.216   8.966   9.048
75666SOL    HW128895   8.300   9.004   9.023
75666SOL    HW228896   8.181   9.026   9.113
75667SOL     OW28897   3.284   7.459  13.168
75667SOL    HW128898   3.360   7.480  13.113
75667SOL    HW228899   3.282   7.528  13.234
75668SOL     OW28900  10.674   8.936   7.634
75668SOL    HW128901  10.705   8.889   7.711
75668SOL    HW228902  10.608   8.878   7.596
75669SOL     OW28903  10.332   5.644  10.062
75669SOL    HW128904  10.262   5.689  10.015
75669SOL    HW228905  10.287   5.576  10.112
75670SOL     OW28906   1.368  14.521   1.386
75670SOL    HW128907   1.426  14.594   1.411
75670SOL    HW228908   1.339  14.484   1.470
75671SOL     OW28909   1.273  12.497   2.675
75671SOL    HW128910   1.215  12.539   2.740
75671SOL    HW228911   1.273  12.405   2.700
75672SOL     OW28912  11.049   7.986   5.278
75672SOL    HW128913  11.131   8.027   5.304
75672SOL    HW228914  11.019   7.939   5.356
75673SOL     OW28915  11.677  12.282  14.704
75673SOL    HW128916  11.671  12.210  14.766
75673SOL    HW228917  11.642  12.358  14.751
75674SOL     OW28918  13.978  11.694  11.736
75674SOL    HW128919  13.885  11.681  11.716
75674SOL    HW228920  14.022  11.618  11.696
75675SOL     OW28921   0.960  14.443  14.264
75675SOL    HW128922   0.939  14.479  14.351
75675SOL    HW228923   1.055  14.454  14.257
75676SOL     OW28924   5.762   0.713   7.922
75676SOL    HW128925   5.763   0.778   7.852
75676SOL    HW228926   5.688   0.737   7.977
75677SOL     OW28927   1.273   0.454  14.192
75677SOL    HW128928   1.345   0.398  14.222
75677SOL    HW228929   1.194   0.405  14.215
75678SOL     OW28930  12.922   9.073   5.698
75678SOL    HW128931  12.842   9.120   5.720
75678SOL    HW228932  12.993   9.132   5.725
75679SOL     OW28933   9.628  10.196  13.007
75679SOL    HW128934   9.696  10.227  13.067
75679SOL    HW228935   9.582  10.275  12.981
75680SOL     OW28936   0.591  11.379  12.079
75680SOL    HW128937   0.598  11.284  12.090
75680SOL    HW228938   0.601  11.414  12.167
75681SOL     OW28939   5.118   5.406   9.304
75681SOL    HW128940   5.186   5.344   9.328
75681SOL    HW228941   5.058   5.356   9.248
75682SOL     OW28942   4.487   3.381  12.262
75682SOL    HW128943   4.463   3.376  12.355
75682SOL    HW228944   4.421   3.439  12.223
75683SOL     OW28945   6.040   2.535   3.578
75683SOL    HW128946   6.059   2.452   3.621
75683SOL    HW228947   6.086   2.529   3.494
75684SOL     OW28948  11.919   8.517   5.404
75684SOL    HW128949  11.868   8.484   5.330
75684SOL    HW228950  12.004   8.539   5.366
75685SOL     OW28951   1.819   1.115   6.190
75685SOL    HW128952   1.913   1.128   6.179
75685SOL    HW228953   1.780   1.196   6.159
75686SOL     OW28954   5.338  12.369   2.416
75686SOL    HW128955   5.395  12.430   2.369
75686SOL    HW228956   5.378  12.283   2.404
75687SOL     OW28957  11.792   5.114   4.383
75687SOL    HW128958  11.802   5.207   4.406
75687SOL    HW228959  11.697   5.100   4.382
75688SOL     OW28960   0.079  14.599   2.389
75688SOL    HW128961   0.049  14.689   2.403
75688SOL    HW228962   0.072  14.586   2.295
75689SOL     OW28963  10.984   8.897  10.853
75689SOL    HW128964  11.044   8.930  10.785
75689SOL    HW228965  11.035   8.903  10.934
75690SOL     OW28966   5.966   2.358  14.866
75690SOL    HW128967   5.892   2.381   0.045
75690SOL    HW228968   5.926   2.332  14.783
75691SOL     OW28969   3.582   3.044   7.863
75691SOL    HW128970   3.598   3.133   7.896
75691SOL    HW228971   3.628   2.988   7.926
75692SOL     OW28972   7.319   6.461   2.214
75692SOL    HW128973   7.325   6.533   2.151
75692SOL    HW228974   7.339   6.502   2.299
75693SOL     OW28975   5.360  14.603   1.542
75693SOL    HW128976   5.307  14.524   1.552
75693SOL    HW228977   5.439  14.586   1.593
75694SOL     OW28978   3.170  13.241   7.560
75694SOL    HW128979   3.190  13.322   7.608
75694SOL    HW228980   3.149  13.178   7.628
75695SOL     OW28981  11.572   4.339  12.379
75695SOL    HW128982  11.506   4.270  12.392
75695SOL    HW228983  11.559   4.368  12.289
75696SOL     OW28984   9.165   7.321   4.405
75696SOL    HW128985   9.236   7.385   4.407
75696SOL    HW228986   9.199   7.248   4.353
75697SOL     OW28987   0.129   3.955   9.691
75697SOL    HW128988   0.034   3.951   9.677
75697SOL    HW228989   0.166   3.920   9.610
75698SOL     OW28990   6.775  12.384   8.611
75698SOL    HW128991   6.859  12.421   8.637
75698SOL    HW228992   6.791  12.343   8.527
75699SOL     OW28993   6.990   8.052   9.172
75699SOL    HW128994   7.019   8.050   9.081
75699SOL    HW228995   7.068   8.073   9.222
75700SOL     OW28996   7.546   5.545   9.432
75700SOL    HW128997   7.498   5.625   9.454
75700SOL    HW228998   7.621   5.575   9.380
75701SOL     OW28999   8.067   0.837  14.035
75701SOL    HW129000   8.077   0.924  14.073
75701SOL    HW229001   7.985   0.841  13.986
75702SOL     OW29002   5.710   3.434  12.985
75702SOL    HW129003   5.679   3.461  12.898
75702SOL    HW229004   5.676   3.345  12.995
75703SOL     OW29005  10.253   2.852   7.297
75703SOL    HW129006  10.315   2.924   7.309
75703SOL    HW229007  10.185   2.887   7.240
75704SOL     OW29008   3.145  11.578  10.282
75704SOL    HW129009   3.193  11.627  10.216
75704SOL    HW229010   3.212  11.549  10.344
75705SOL     OW29011   4.470  13.125   3.615
75705SOL    HW129012   4.472  13.081   3.699
75705SOL    HW229013   4.409  13.198   3.627
75706SOL     OW29014   5.522  14.362   3.045
75706SOL    HW129015   5.554  14.399   3.127
75706SOL    HW229016   5.574  14.404   2.977
75707SOL     OW29017   9.941  14.109   8.378
75707SOL    HW129018   9.913  14.166   8.307
75707SOL    HW229019   9.948  14.022   8.339
75708SOL     OW29020   1.844  11.867   8.203
75708SOL    HW129021   1.924  11.820   8.225
75708SOL    HW229022   1.806  11.891   8.287
75709SOL     OW29023   0.723  14.416  14.121
75709SOL    HW129024   0.726  14.329  14.082
75709SOL    HW229025   0.814  14.436  14.143
75710SOL     OW29026  12.842   1.200   0.841
75710SOL    HW129027  12.833   1.296   0.845
75710SOL    HW229028  12.885   1.177   0.923
75711SOL     OW29029   5.371   0.684  12.681
75711SOL    HW129030   5.346   0.611  12.738
75711SOL    HW229031   5.289   0.724  12.654
75712SOL     OW29032   6.813   0.254   4.585
75712SOL    HW129033   6.771   0.168   4.579
75712SOL    HW229034   6.741   0.317   4.572
75713SOL     OW29035   4.131   5.680  14.249
75713SOL    HW129036   4.036   5.691  14.246
75713SOL    HW229037   4.153   5.688  14.342
75714SOL     OW29038   8.897  11.120   0.092
75714SOL    HW129039   8.812  11.086   0.122
75714SOL    HW229040   8.897  11.212   0.119
75715SOL     OW29041   6.757   2.251   8.738
75715SOL    HW129042   6.682   2.235   8.680
75715SOL    HW229043   6.773   2.345   8.729
75716SOL     OW29044   6.991   0.744  13.957
75716SOL    HW129045   7.014   0.720  14.047
75716SOL    HW229046   7.052   0.815  13.936
75717SOL     OW29047  13.973  12.967   9.126
75717SOL    HW129048  14.005  12.961   9.216
75717SOL    HW229049  13.999  13.055   9.097
75718SOL     OW29050   2.778   6.759  10.159
75718SOL    HW129051   2.826   6.686  10.197
75718SOL    HW229052   2.789   6.748  10.065
75719SOL     OW29053  13.696   9.274   1.383
75719SOL    HW129054  13.787   9.274   1.353
75719SOL    HW229055  13.688   9.355   1.435
75720SOL     OW29056   0.259  13.013   7.417
75720SOL    HW129057   0.258  13.105   7.390
75720SOL    HW229058   0.291  13.015   7.507
75721SOL     OW29059   0.290   7.971   7.261
75721SOL    HW129060   0.374   7.929   7.242
75721SOL    HW229061   0.312   8.042   7.322
75722SOL     OW29062   6.379  12.820   3.190
75722SOL    HW129063   6.400  12.908   3.160
75722SOL    HW229064   6.308  12.832   3.253
75723SOL     OW29065  13.985   7.385  12.203
75723SOL    HW129066  14.038   7.366  12.280
75723SOL    HW229067  13.970   7.479  12.206
75724SOL     OW29068   1.591  10.802   2.476
75724SOL    HW129069   1.510  10.753   2.460
75724SOL    HW229070   1.587  10.827   2.568
75725SOL     OW29071   7.596  10.545   5.428
75725SOL    HW129072   7.569  10.622   5.477
75725SOL    HW229073   7.674  10.513   5.475
75726SOL     OW29074   8.622   5.837  14.069
75726SOL    HW129075   8.635   5.754  14.115
75726SOL    HW229076   8.639   5.904  14.135
75727SOL     OW29077   4.308  13.891   1.685
75727SOL    HW129078   4.337  13.941   1.608
75727SOL    HW229079   4.349  13.806   1.674
75728SOL     OW29080   2.148   0.261   7.562
75728SOL    HW129081   2.110   0.178   7.533
75728SOL    HW229082   2.213   0.282   7.496
75729SOL     OW29083   7.931   4.382  14.127
75729SOL    HW129084   7.849   4.352  14.088
75729SOL    HW229085   7.905   4.446  14.194
75730SOL     OW29086  14.120   0.146   2.063
75730SOL    HW129087  14.189   0.163   1.998
75730SOL    HW229088  14.144   0.062   2.102
75731SOL     OW29089  11.376   9.210   5.975
75731SOL    HW129090  11.426   9.129   5.966
75731SOL    HW229091  11.338   9.223   5.888
75732SOL     OW29092   1.848   9.617  12.084
75732SOL    HW129093   1.885   9.694  12.127
75732SOL    HW229094   1.827   9.557  12.155
75733SOL     OW29095   4.687  14.227   6.037
75733SOL    HW129096   4.599  14.210   6.070
75733SOL    HW229097   4.734  14.265   6.111
75734SOL     OW29098   6.972  14.817  14.493
75734SOL    HW129099   7.017  14.850  14.416
75734SOL    HW229100   7.005  14.728  14.506
75735SOL     OW29101  10.848  12.526   3.417
75735SOL    HW129102  10.920  12.530   3.354
75735SOL    HW229103  10.846  12.435   3.446
75736SOL     OW29104   8.027   8.622   2.738
75736SOL    HW129105   8.085   8.626   2.661
75736SOL    HW229106   7.981   8.539   2.729
75737SOL     OW29107   9.654   9.778   9.380
75737SOL    HW129108   9.625   9.728   9.304
75737SOL    HW229109   9.749   9.768   9.381
75738SOL     OW29110  11.262   8.844   2.388
75738SOL    HW129111  11.189   8.785   2.407
75738SOL    HW229112  11.244   8.876   2.299
75739SOL     OW29113   0.273   8.208   0.156
75739SOL    HW129114   0.186   8.179   0.129
75739SOL    HW229115   0.257   8.260   0.235
75740SOL     OW29116   7.457   0.646   3.954
75740SOL    HW129117   7.463   0.644   3.859
75740SOL    HW229118   7.533   0.698   3.982
75741SOL     OW29119  10.193   4.585  13.118
75741SOL    HW129120  10.106   4.584  13.079
75741SOL    HW229121  10.239   4.655  13.073
75742SOL     OW29122   1.730  11.354   9.445
75742SOL    HW129123   1.810  11.347   9.498
75742SOL    HW229124   1.702  11.263   9.432
75743SOL     OW29125   5.350   0.441  11.873
75743SOL    HW129126   5.256   0.458  11.878
75743SOL    HW229127   5.360   0.387  11.794
75744SOL     OW29128   7.393   3.769   2.297
75744SOL    HW129129   7.316   3.748   2.350
75744SOL    HW229130   7.426   3.852   2.333
75745SOL     OW29131  10.443   5.429  14.596
75745SOL    HW129132  10.397   5.507  14.626
75745SOL    HW229133  10.536   5.448  14.613
75746SOL     OW29134  14.775   5.407   7.800
75746SOL    HW129135  14.690   5.364   7.813
75746SOL    HW229136  14.780   5.471   7.871
75747SOL     OW29137   8.922  12.612   4.402
75747SOL    HW129138   8.985  12.541   4.390
75747SOL    HW229139   8.893  12.603   4.493
75748SOL     OW29140  10.481   7.911  11.538
75748SOL    HW129141  10.562   7.863  11.519
75748SOL    HW229142  10.428   7.848  11.587
75749SOL     OW29143  11.002   5.712   2.255
75749SOL    HW129144  10.976   5.670   2.173
75749SOL    HW229145  10.977   5.804   2.245
75750SOL     OW29146   2.605   8.961   3.018
75750SOL    HW129147   2.629   8.953   2.925
75750SOL    HW229148   2.607   8.871   3.050
75751SOL     OW29149   6.391   4.789   0.370
75751SOL    HW129150   6.416   4.783   0.277
75751SOL    HW229151   6.308   4.741   0.375
75752SOL     OW29152  13.409   6.759  11.342
75752SOL    HW129153  13.432   6.708  11.264
75752SOL    HW229154  13.463   6.837  11.337
75753SOL     OW29155  10.626  14.273   2.736
75753SOL    HW129156  10.550  14.270   2.794
75753SOL    HW229157  10.592  14.309   2.654
75754SOL     OW29158   4.456   1.059  13.353
75754SOL    HW129159   4.397   1.024  13.286
75754SOL    HW229160   4.523   0.991  13.364
75755SOL     OW29161  11.136  12.902   7.899
75755SOL    HW129162  11.214  12.873   7.946
75755SOL    HW229163  11.169  12.937   7.816
75756SOL     OW29164   6.324   7.224   6.509
75756SOL    HW129165   6.374   7.148   6.480
75756SOL    HW229166   6.236   7.189   6.527
75757SOL     OW29167   2.150  13.066   2.343
75757SOL    HW129168   2.100  13.024   2.273
75757SOL    HW229169   2.176  12.995   2.401
75758SOL     OW29170   9.467   4.976   4.319
75758SOL    HW129171   9.447   4.900   4.374
75758SOL    HW229172   9.535   5.023   4.367
75759SOL     OW29173  10.301  11.398  11.633
75759SOL    HW129174  10.306  11.418  11.539
75759SOL    HW229175  10.361  11.461  11.674
75760SOL     OW29176   5.225   0.752   3.410
75760SOL    HW129177   5.267   0.685   3.463
75760SOL    HW229178   5.224   0.715   3.322
75761SOL     OW29179  11.149   9.038   4.667
75761SOL    HW129180  11.132   9.059   4.576
75761SOL    HW229181  11.069   9.062   4.713
75762SOL     OW29182   9.596  11.287   2.928
75762SOL    HW129183   9.580  11.208   2.875
75762SOL    HW229184   9.680  11.270   2.970
75763SOL     OW29185   6.108  11.086  14.537
75763SOL    HW129186   6.122  11.121  14.449
75763SOL    HW229187   6.192  11.045  14.560
75764SOL     OW29188  12.832   8.608   4.298
75764SOL    HW129189  12.776   8.582   4.371
75764SOL    HW229190  12.774   8.607   4.221
75765SOL     OW29191   2.709   9.028   3.604
75765SOL    HW129192   2.667   8.978   3.533
75765SOL    HW229193   2.660   9.110   3.607
75766SOL     OW29194   1.998  10.756   0.474
75766SOL    HW129195   2.043  10.726   0.553
75766SOL    HW229196   2.061  10.740   0.403
75767SOL     OW29197  10.092   3.259  14.386
75767SOL    HW129198  10.023   3.193  14.400
75767SOL    HW229199  10.174   3.212  14.402
75768SOL     OW29200  10.940   6.681  13.993
75768SOL    HW129201  11.006   6.724  14.047
75768SOL    HW229202  10.906   6.751  13.937
75769SOL     OW29203   1.420   7.762   9.074
75769SOL    HW129204   1.424   7.696   9.143
75769SOL    HW229205   1.437   7.713   8.993
75770SOL     OW29206   3.052   0.935  11.158
75770SOL    HW129207   2.973   0.983  11.182
75770SOL    HW229208   3.096   0.992  11.094
75771SOL     OW29209  11.371   8.980  10.275
75771SOL    HW129210  11.310   9.048  10.304
75771SOL    HW229211  11.340   8.954  10.189
75772SOL     OW29212   0.820   9.806  11.388
75772SOL    HW129213   0.748   9.858  11.423
75772SOL    HW229214   0.866   9.774  11.465
75773SOL     OW29215  13.406   9.737   1.766
75773SOL    HW129216  13.378   9.819   1.724
75773SOL    HW229217  13.352   9.670   1.725
75774SOL     OW29218  13.621   8.454   5.514
75774SOL    HW129219  13.607   8.457   5.420
75774SOL    HW229220  13.589   8.538   5.546
75775SOL     OW29221   2.517   3.223   9.685
75775SOL    HW129222   2.443   3.268   9.645
75775SOL    HW229223   2.585   3.289   9.691
75776SOL     OW29224   2.734   6.925   5.916
75776SOL    HW129225   2.672   6.994   5.939
75776SOL    HW229226   2.820   6.967   5.919
75777SOL     OW29227  14.577   6.296  11.451
75777SOL    HW129228  14.588   6.391  11.457
75777SOL    HW229229  14.597   6.276  11.359
75778SOL     OW29230   2.169   4.181  13.849
75778SOL    HW129231   2.166   4.102  13.795
75778SOL    HW229232   2.251   4.224  13.825
75779SOL     OW29233   2.105   0.171   9.456
75779SOL    HW129234   2.015   0.139   9.451
75779SOL    HW229235   2.156   0.104   9.410
75780SOL     OW29236   2.277  10.737  10.185
75780SOL    HW129237   2.362  10.778  10.202
75780SOL    HW229238   2.287  10.647  10.215
75781SOL     OW29239   2.875   5.096   0.441
75781SOL    HW129240   2.925   5.112   0.361
75781SOL    HW229241   2.839   5.182   0.463
75782SOL     OW29242   8.663  14.688   6.406
75782SOL    HW129243   8.589  14.747   6.418
75782SOL    HW229244   8.730  14.721   6.467
75783SOL     OW29245   3.529  10.525   7.827
75783SOL    HW129246   3.624  10.531   7.817
75783SOL    HW229247   3.499  10.483   7.746
75784SOL     OW29248   3.064   4.604   8.861
75784SOL    HW129249   3.013   4.568   8.933
75784SOL    HW229250   3.155   4.594   8.888
75785SOL     OW29251   2.885   7.924   9.680
75785SOL    HW129252   2.947   7.989   9.713
75785SOL    HW229253   2.885   7.855   9.747
75786SOL     OW29254   4.707   3.948  13.440
75786SOL    HW129255   4.662   4.020  13.484
75786SOL    HW229256   4.781   3.928  13.498
75787SOL     OW29257   5.832   8.073  13.143
75787SOL    HW129258   5.897   8.005  13.122
75787SOL    HW229259   5.810   8.112  13.058
75788SOL     OW29260   7.797  11.518   9.847
75788SOL    HW129261   7.764  11.592   9.899
75788SOL    HW229262   7.879  11.550   9.809
75789SOL     OW29263   1.908   5.203   1.458
75789SOL    HW129264   1.986   5.246   1.492
75789SOL    HW229265   1.838   5.229   1.519
75790SOL     OW29266   3.150  11.206  14.747
75790SOL    HW129267   3.209  11.143  14.790
75790SOL    HW229268   3.171  11.290  14.789
75791SOL     OW29269   1.308   1.955  14.753
75791SOL    HW129270   1.220   1.947  14.790
75791SOL    HW229271   1.366   1.959  14.828
75792SOL     OW29272  14.090   8.489  13.432
75792SOL    HW129273  14.018   8.426  13.431
75792SOL    HW229274  14.076   8.541  13.511
75793SOL     OW29275  11.218   0.481  10.692
75793SOL    HW129276  11.200   0.537  10.768
75793SOL    HW229277  11.132   0.462  10.656
75794SOL     OW29278  13.551   7.536  11.387
75794SOL    HW129279  13.522   7.464  11.331
75794SOL    HW229280  13.644   7.545  11.369
75795SOL     OW29281   6.772  11.593   1.606
75795SOL    HW129282   6.850  11.628   1.649
75795SOL    HW229283   6.718  11.559   1.677
75796SOL     OW29284  12.316  13.476   6.923
75796SOL    HW129285  12.294  13.448   6.834
75796SOL    HW229286  12.411  13.471   6.927
75797SOL     OW29287   9.293   4.539   9.831
75797SOL    HW129288   9.376   4.560   9.786
75797SOL    HW229289   9.262   4.460   9.787
75798SOL     OW29290  13.745   0.081   5.463
75798SOL    HW129291  13.658   0.108   5.495
75798SOL    HW229292  13.802   0.091   5.539
75799SOL     OW29293   6.823   5.726   7.567
75799SOL    HW129294   6.877   5.795   7.605
75799SOL    HW229295   6.860   5.712   7.480
75800SOL     OW29296   6.707  10.714   6.262
75800SOL    HW129297   6.727  10.770   6.338
75800SOL    HW229298   6.753  10.632   6.281
75801SOL     OW29299   3.351   6.293   8.778
75801SOL    HW129300   3.411   6.366   8.790
75801SOL    HW229301   3.291   6.298   8.853
75802SOL     OW29302  10.011  11.703   1.261
75802SOL    HW129303   9.960  11.727   1.184
75802SOL    HW229304   9.970  11.751   1.333
75803SOL     OW29305  14.658   1.146   4.809
75803SOL    HW129306  14.677   1.189   4.725
75803SOL    HW229307  14.598   1.205   4.853
75804SOL     OW29308  14.266   5.308   9.194
75804SOL    HW129309  14.205   5.380   9.206
75804SOL    HW229310  14.352   5.346   9.208
75805SOL     OW29311   4.462   9.919   7.101
75805SOL    HW129312   4.536   9.880   7.147
75805SOL    HW229313   4.388   9.907   7.161
75806SOL     OW29314  10.163   5.267   9.342
75806SOL    HW129315  10.251   5.290   9.373
75806SOL    HW229316  10.128   5.349   9.307
75807SOL     OW29317  13.300   2.233   6.101
75807SOL    HW129318  13.273   2.308   6.048
75807SOL    HW229319  13.230   2.224   6.167
75808SOL     OW29320   6.089   4.510   6.824
75808SOL    HW129321   6.184   4.494   6.825
75808SOL    HW229322   6.080   4.592   6.775
75809SOL     OW29323   2.891   2.966   6.707
75809SOL    HW129324   2.985   2.975   6.689
75809SOL    HW229325   2.887   2.914   6.788
75810SOL     OW29326   2.338   6.786   2.349
75810SOL    HW129327   2.396   6.796   2.273
75810SOL    HW229328   2.397   6.791   2.425
75811SOL     OW29329   0.359  12.741   7.685
75811SOL    HW129330   0.377  12.832   7.711
75811SOL    HW229331   0.439  12.694   7.708
75812SOL     OW29332   9.575   6.576   5.053
75812SOL    HW129333   9.521   6.599   5.129
75812SOL    HW229334   9.539   6.628   4.981
75813SOL     OW29335   9.049   3.191   6.951
75813SOL    HW129336   9.079   3.121   6.893
75813SOL    HW229337   8.954   3.191   6.942
75814SOL     OW29338   3.298   8.076   9.549
75814SOL    HW129339   3.244   8.030   9.614
75814SOL    HW229340   3.274   8.036   9.465
75815SOL     OW29341  12.122  12.561  12.095
75815SOL    HW129342  12.117  12.516  12.179
75815SOL    HW229343  12.032  12.585  12.075
75816SOL     OW29344   1.159  13.944   0.378
75816SOL    HW129345   1.082  13.904   0.336
75816SOL    HW229346   1.234  13.909   0.329
75817SOL     OW29347   3.722   7.854  12.591
75817SOL    HW129348   3.755   7.845  12.681
75817SOL    HW229349   3.796   7.885  12.540
75818SOL     OW29350   6.623   3.796   4.516
75818SOL    HW129351   6.535   3.833   4.528
75818SOL    HW229352   6.614   3.738   4.440
75819SOL     OW29353   0.546   1.529  14.544
75819SOL    HW129354   0.543   1.552  14.451
75819SOL    HW229355   0.486   1.590  14.587
75820SOL     OW29356   9.027   5.168   9.238
75820SOL    HW129357   9.054   5.106   9.305
75820SOL    HW229358   9.100   5.170   9.176
75821SOL     OW29359   7.925  13.796   1.672
75821SOL    HW129360   8.001  13.847   1.643
75821SOL    HW229361   7.956  13.705   1.673
75822SOL     OW29362   9.373   2.717   9.812
75822SOL    HW129363   9.310   2.731   9.883
75822SOL    HW229364   9.333   2.649   9.758
75823SOL     OW29365   9.064  13.715   1.487
75823SOL    HW129366   9.058  13.758   1.401
75823SOL    HW229367   9.059  13.621   1.468
75824SOL     OW29368   9.217  13.565  12.654
75824SOL    HW129369   9.243  13.618  12.729
75824SOL    HW229370   9.298  13.549  12.607
75825SOL     OW29371  13.007   0.056   3.790
75825SOL    HW129372  13.057   0.090   3.865
75825SOL    HW229373  13.025   0.117   3.719
75826SOL     OW29374   0.634  12.959   9.041
75826SOL    HW129375   0.642  12.920   8.954
75826SOL    HW229376   0.542  12.987   9.046
75827SOL     OW29377  11.151  12.238   1.545
75827SOL    HW129378  11.190  12.207   1.627
75827SOL    HW229379  11.116  12.159   1.504
75828SOL     OW29380   4.530   4.691   4.661
75828SOL    HW129381   4.582   4.638   4.722
75828SOL    HW229382   4.546   4.652   4.575
75829SOL     OW29383  10.901   8.167  13.604
75829SOL    HW129384  10.953   8.247  13.600
75829SOL    HW229385  10.850   8.175  13.684
75830SOL     OW29386   1.237  11.056   0.621
75830SOL    HW129387   1.242  10.983   0.682
75830SOL    HW229388   1.214  11.017   0.537
75831SOL     OW29389   3.177   8.806  13.646
75831SOL    HW129390   3.114   8.878  13.652
75831SOL    HW229391   3.203   8.803  13.554
75832SOL     OW29392   5.311   2.503  12.097
75832SOL    HW129393   5.305   2.593  12.128
75832SOL    HW229394   5.267   2.504  12.012
75833SOL     OW29395  10.264   3.084  12.169
75833SOL    HW129396  10.280   3.178  12.176
75833SOL    HW229397  10.224   3.073  12.083
75834SOL     OW29398   3.723  13.537  12.952
75834SOL    HW129399   3.750  13.523  13.043
75834SOL    HW229400   3.752  13.458  12.906
75835SOL     OW29401  13.257   5.470   9.335
75835SOL    HW129402  13.334   5.460   9.279
75835SOL    HW229403  13.236   5.564   9.330
75836SOL     OW29404   2.299   5.671   6.641
75836SOL    HW129405   2.220   5.616   6.638
75836SOL    HW229406   2.302   5.704   6.730
75837SOL     OW29407  11.046  11.364   9.958
75837SOL    HW129408  11.007  11.311   9.888
75837SOL    HW229409  11.106  11.423   9.913
75838SOL     OW29410   8.058  14.093   4.552
75838SOL    HW129411   8.011  14.164   4.508
75838SOL    HW229412   8.101  14.045   4.482
75839SOL     OW29413  11.767   3.378   7.389
75839SOL    HW129414  11.729   3.291   7.374
75839SOL    HW229415  11.698   3.439   7.364
75840SOL     OW29416   0.269  11.727   8.510
75840SOL    HW129417   0.358  11.691   8.520
75840SOL    HW229418   0.212  11.655   8.538
75841SOL     OW29419   0.203  12.469  10.243
75841SOL    HW129420   0.235  12.457  10.332
75841SOL    HW229421   0.134  12.534  10.250
75842SOL     OW29422   7.703  13.923   9.662
75842SOL    HW129423   7.703  13.993   9.597
75842SOL    HW229424   7.786  13.877   9.649
75843SOL     OW29425  13.491  14.019  11.906
75843SOL    HW129426  13.518  13.928  11.897
75843SOL    HW229427  13.567  14.070  11.877
75844SOL     OW29428   3.483   6.825   0.823
75844SOL    HW129429   3.545   6.842   0.894
75844SOL    HW229430   3.538   6.809   0.746
75845SOL     OW29431  10.396  13.475  14.008
75845SOL    HW129432  10.409  13.479  13.914
75845SOL    HW229433  10.468  13.421  14.041
75846SOL     OW29434   1.023  13.589   9.763
75846SOL    HW129435   0.947  13.586   9.705
75846SOL    HW229436   1.045  13.681   9.770
75847SOL     OW29437   7.069   6.909   4.302
75847SOL    HW129438   6.999   6.906   4.367
75847SOL    HW229439   7.130   6.975   4.335
75848SOL     OW29440   4.442   2.248   0.161
75848SOL    HW129441   4.414   2.218   0.074
75848SOL    HW229442   4.459   2.167   0.209
75849SOL     OW29443   4.926  10.762   2.912
75849SOL    HW129444   4.965  10.784   2.827
75849SOL    HW229445   4.859  10.697   2.891
75850SOL     OW29446   6.279   1.199   3.373
75850SOL    HW129447   6.236   1.128   3.326
75850SOL    HW229448   6.208   1.261   3.392
75851SOL     OW29449  12.408  13.294   0.243
75851SOL    HW129450  12.466  13.295   0.319
75851SOL    HW229451  12.341  13.230   0.264
75852SOL     OW29452  10.891   6.663   0.392
75852SOL    HW129453  10.824   6.632   0.454
75852SOL    HW229454  10.914   6.750   0.424
75853SOL     OW29455   3.254   0.077  11.523
75853SOL    HW129456   3.322   0.130  11.482
75853SOL    HW229457   3.242   0.003  11.463
75854SOL     OW29458   4.536  13.666   7.295
75854SOL    HW129459   4.533  13.716   7.377
75854SOL    HW229460   4.494  13.582   7.317
75855SOL     OW29461   2.894  11.027  10.989
75855SOL    HW129462   2.945  11.105  11.011
75855SOL    HW229463   2.900  10.972  11.066
75856SOL     OW29464   4.926   5.674   7.280
75856SOL    HW129465   4.919   5.749   7.338
75856SOL    HW229466   4.919   5.711   7.192
75857SOL     OW29467  12.133   0.509   9.878
75857SOL    HW129468  12.148   0.483   9.787
75857SOL    HW229469  12.040   0.530   9.882
75858SOL     OW29470   5.964   8.014   1.734
75858SOL    HW129471   5.932   8.001   1.823
75858SOL    HW229472   6.027   7.943   1.721
75859SOL     OW29473  11.930   2.189  12.173
75859SOL    HW129474  11.892   2.167  12.088
75859SOL    HW229475  11.956   2.105  12.210
75860SOL     OW29476   2.559  11.869   9.965
75860SOL    HW129477   2.628  11.859   9.899
75860SOL    HW229478   2.596  11.828  10.043
75861SOL     OW29479   9.910   0.899   0.880
75861SOL    HW129480   9.863   0.982   0.886
75861SOL    HW229481   9.993   0.922   0.838
75862SOL     OW29482   6.924   4.655  10.788
75862SOL    HW129483   6.879   4.737  10.764
75862SOL    HW229484   6.947   4.667  10.880
75863SOL     OW29485   7.059   8.795   3.394
75863SOL    HW129486   7.127   8.818   3.329
75863SOL    HW229487   6.978   8.831   3.357
75864SOL     OW29488   8.091   7.279   3.857
75864SOL    HW129489   8.033   7.336   3.907
75864SOL    HW229490   8.104   7.202   3.913
75865SOL     OW29491   9.365   2.033  11.585
75865SOL    HW129492   9.455   2.000  11.593
75865SOL    HW229493   9.342   2.017  11.494
75866SOL     OW29494  11.761  12.639   0.976
75866SOL    HW129495  11.845  12.601   0.950
75866SOL    HW229496  11.781  12.690   1.054
75867SOL     OW29497   9.010   4.515   3.595
75867SOL    HW129498   9.072   4.443   3.583
75867SOL    HW229499   9.049   4.588   3.546
75868SOL     OW29500   5.942   3.814  13.469
75868SOL    HW129501   5.918   3.727  13.437
75868SOL    HW229502   5.860   3.861  13.478
75869SOL     OW29503   3.404  10.855   5.492
75869SOL    HW129504   3.329  10.813   5.535
75869SOL    HW229505   3.403  10.821   5.403
75870SOL     OW29506   7.104   9.592   8.836
75870SOL    HW129507   7.090   9.596   8.741
75870SOL    HW229508   7.199   9.589   8.846
75871SOL     OW29509   1.193   3.980   1.402
75871SOL    HW129510   1.138   3.921   1.351
75871SOL    HW229511   1.258   4.013   1.340
75872SOL     OW29512  14.663  10.093   2.181
75872SOL    HW129513  14.604  10.034   2.228
75872SOL    HW229514  14.713  10.138   2.249
75873SOL     OW29515  12.105   4.435   5.362
75873SOL    HW129516  12.058   4.422   5.444
75873SOL    HW229517  12.070   4.516   5.327
75874SOL     OW29518   9.065   7.511   3.137
75874SOL    HW129519   9.047   7.420   3.114
75874SOL    HW229520   9.085   7.553   3.053
75875SOL     OW29521   9.108   6.298   9.271
75875SOL    HW129522   9.105   6.337   9.359
75875SOL    HW229523   9.049   6.223   9.277
75876SOL     OW29524   2.594   6.300   6.410
75876SOL    HW129525   2.627   6.218   6.372
75876SOL    HW229526   2.511   6.276   6.450
75877SOL     OW29527   1.715   6.520   2.414
75877SOL    HW129528   1.673   6.437   2.390
75877SOL    HW229529   1.755   6.551   2.333
75878SOL     OW29530  10.017  10.758  12.074
75878SOL    HW129531   9.972  10.686  12.117
75878SOL    HW229532   9.957  10.787  12.006
75879SOL     OW29533   9.072   2.224   1.423
75879SOL    HW129534   9.043   2.277   1.497
75879SOL    HW229535   8.994   2.174   1.398
75880SOL     OW29536  13.902   1.787   4.873
75880SOL    HW129537  13.893   1.714   4.934
75880SOL    HW229538  13.997   1.798   4.862
75881SOL     OW29539   5.279   4.142   6.084
75881SOL    HW129540   5.285   4.159   5.990
75881SOL    HW229541   5.261   4.048   6.089
75882SOL     OW29542  14.437   5.498   6.405
75882SOL    HW129543  14.522   5.526   6.370
75882SOL    HW229544  14.417   5.418   6.357
75883SOL     OW29545  10.595  12.230  10.071
75883SOL    HW129546  10.532  12.159  10.085
75883SOL    HW229547  10.553  12.307  10.109
75884SOL     OW29548  10.105   4.852  12.390
75884SOL    HW129549  10.100   4.941  12.425
75884SOL    HW229550  10.196   4.842  12.362
75885SOL     OW29551  14.365  14.774   7.902
75885SOL    HW129552  14.445  14.818   7.930
75885SOL    HW229553  14.298  14.802   7.965
75886SOL     OW29554   3.285   3.571  10.272
75886SOL    HW129555   3.229   3.612  10.338
75886SOL    HW229556   3.271   3.477  10.284
75887SOL     OW29557   7.768   4.797   4.059
75887SOL    HW129558   7.698   4.854   4.092
75887SOL    HW229559   7.849   4.844   4.079
75888SOL     OW29560   5.000  10.584   0.021
75888SOL    HW129561   5.006  10.637   0.100
75888SOL    HW229562   5.069  10.519   0.031
75889SOL     OW29563  12.509  13.140   6.544
75889SOL    HW129564  12.533  13.190   6.465
75889SOL    HW229565  12.416  13.160   6.557
75890SOL     OW29566   4.135  11.340  12.733
75890SOL    HW129567   4.046  11.334  12.769
75890SOL    HW229568   4.127  11.309  12.643
75891SOL     OW29569   9.185   7.388  13.750
75891SOL    HW129570   9.148   7.475  13.736
75891SOL    HW229571   9.133   7.351  13.821
75892SOL     OW29572   7.997  11.822   0.006
75892SOL    HW129573   8.043  11.747   0.043
75892SOL    HW229574   7.910  11.820   0.048
75893SOL     OW29575   0.259   7.813  11.681
75893SOL    HW129576   0.275   7.857  11.598
75893SOL    HW229577   0.215   7.731  11.657
75894SOL     OW29578  14.751   7.187   0.170
75894SOL    HW129579  14.711   7.165   0.086
75894SOL    HW229580  14.845   7.188   0.151
75895SOL     OW29581   5.387   6.199   8.121
75895SOL    HW129582   5.341   6.281   8.139
75895SOL    HW229583   5.447   6.220   8.050
75896SOL     OW29584   1.812   2.116   7.824
75896SOL    HW129585   1.864   2.163   7.759
75896SOL    HW229586   1.841   2.025   7.817
75897SOL     OW29587   8.794   2.847   0.793
75897SOL    HW129588   8.744   2.766   0.800
75897SOL    HW229589   8.786   2.888   0.879
75898SOL     OW29590   9.395   8.029  13.024
75898SOL    HW129591   9.382   8.067  12.938
75898SOL    HW229592   9.384   8.102  13.085
75899SOL     OW29593  12.778   7.673  10.289
75899SOL    HW129594  12.691   7.666  10.251
75899SOL    HW229595  12.815   7.585  10.282
75900SOL     OW29596   8.325   4.393   7.753
75900SOL    HW129597   8.297   4.479   7.784
75900SOL    HW229598   8.409   4.377   7.796
75901SOL     OW29599   9.091   2.963   0.352
75901SOL    HW129600   9.044   2.889   0.391
75901SOL    HW229601   9.062   2.964   0.261
75902SOL     OW29602  11.191   2.124  12.918
75902SOL    HW129603  11.101   2.119  12.949
75902SOL    HW229604  11.241   2.154  12.995
75903SOL     OW29605   5.840  11.961   2.325
75903SOL    HW129606   5.911  11.964   2.261
75903SOL    HW229607   5.760  11.969   2.272
75904SOL     OW29608  12.707   9.354   9.333
75904SOL    HW129609  12.737   9.333   9.245
75904SOL    HW229610  12.652   9.432   9.321
75905SOL     OW29611   9.233   7.861  11.955
75905SOL    HW129612   9.173   7.935  11.945
75905SOL    HW229613   9.179   7.789  11.987
75906SOL     OW29614   3.486   8.407   5.195
75906SOL    HW129615   3.568   8.425   5.240
75906SOL    HW229616   3.507   8.339   5.132
75907SOL     OW29617   8.126  11.825   9.574
75907SOL    HW129618   8.171  11.906   9.601
75907SOL    HW229619   8.196  11.768   9.544
75908SOL     OW29620   5.867  11.613   4.507
75908SOL    HW129621   5.834  11.609   4.417
75908SOL    HW229622   5.791  11.587   4.561
75909SOL     OW29623  12.571  13.803   6.984
75909SOL    HW129624  12.647  13.790   7.041
75909SOL    HW229625  12.496  13.774   7.035
75910SOL     OW29626  11.534   8.029   5.899
75910SOL    HW129627  11.541   7.963   5.830
75910SOL    HW229628  11.543   8.112   5.853
75911SOL     OW29629   5.168   7.542   4.180
75911SOL    HW129630   5.217   7.573   4.256
75911SOL    HW229631   5.211   7.460   4.156
75912SOL     OW29632   1.495   4.928   6.315
75912SOL    HW129633   1.474   4.845   6.273
75912SOL    HW229634   1.474   4.994   6.249
75913SOL     OW29635  14.216   6.387   3.811
75913SOL    HW129636  14.239   6.391   3.718
75913SOL    HW229637  14.188   6.296   3.825
75914SOL     OW29638  13.851   5.716  10.357
75914SOL    HW129639  13.921   5.652  10.347
75914SOL    HW229640  13.896   5.798  10.376
75915SOL     OW29641   2.468   6.827   5.399
75915SOL    HW129642   2.482   6.921   5.390
75915SOL    HW229643   2.555   6.792   5.416
75916SOL     OW29644   5.444   2.071  12.681
75916SOL    HW129645   5.405   1.984  12.683
75916SOL    HW229646   5.433   2.100  12.590
75917SOL     OW29647  13.770  13.119   8.470
75917SOL    HW129648  13.833  13.093   8.537
75917SOL    HW229649  13.821  13.170   8.407
75918SOL     OW29650   6.077  13.499  11.504
75918SOL    HW129651   6.037  13.558  11.567
75918SOL    HW229652   6.066  13.412  11.541
75919SOL     OW29653   6.434   0.777  13.975
75919SOL    HW129654   6.478   0.754  13.893
75919SOL    HW229655   6.503   0.817  14.028
75920SOL     OW29656  14.262   3.012  12.375
75920SOL    HW129657  14.311   3.032  12.295
75920SOL    HW229658  14.170   3.022  12.349
75921SOL     OW29659   1.629   3.254  14.704
75921SOL    HW129660   1.632   3.302  14.621
75921SOL    HW229661   1.668   3.169  14.683
75922SOL     OW29662  10.480  12.083   3.534
75922SOL    HW129663  10.566  12.045   3.515
75922SOL    HW229664  10.459  12.052   3.622
75923SOL     OW29665  12.363  11.884  10.972
75923SOL    HW129666  12.281  11.931  10.954
75923SOL    HW229667  12.430  11.935  10.927
75924SOL     OW29668   6.045   0.789   1.427
75924SOL    HW129669   6.103   0.793   1.503
75924SOL    HW229670   5.970   0.736   1.456
75925SOL     OW29671   8.389   2.999   8.826
75925SOL    HW129672   8.365   3.060   8.756
75925SOL    HW229673   8.484   3.010   8.836
75926SOL     OW29674   1.976   6.698   3.119
75926SOL    HW129675   1.896   6.732   3.079
75926SOL    HW229676   1.954   6.685   3.211
75927SOL     OW29677  12.712   5.755  13.546
75927SOL    HW129678  12.784   5.702  13.580
75927SOL    HW229679  12.679   5.706  13.470
75928SOL     OW29680   1.698  13.336   1.462
75928SOL    HW129681   1.753  13.264   1.434
75928SOL    HW229682   1.724  13.352   1.553
75929SOL     OW29683   8.512   0.105   6.904
75929SOL    HW129684   8.458   0.027   6.898
75929SOL    HW229685   8.489   0.143   6.989
75930SOL     OW29686   1.378   2.505  13.578
75930SOL    HW129687   1.382   2.551  13.662
75930SOL    HW229688   1.466   2.515  13.541
75931SOL     OW29689   8.058   0.409   9.904
75931SOL    HW129690   8.017   0.494   9.917
75931SOL    HW229691   8.010   0.371   9.830
75932SOL     OW29692   5.192   2.676   1.145
75932SOL    HW129693   5.111   2.634   1.118
75932SOL    HW229694   5.168   2.768   1.160
75933SOL     OW29695  14.647   5.913  14.701
75933SOL    HW129696  14.622   5.864  14.622
75933SOL    HW229697  14.736   5.943  14.683
75934SOL     OW29698   9.272   8.151   6.113
75934SOL    HW129699   9.210   8.201   6.059
75934SOL    HW229700   9.354   8.153   6.065
75935SOL     OW29701  11.568  14.444   4.177
75935SOL    HW129702  11.591  14.421   4.087
75935SOL    HW229703  11.586  14.365   4.227
75936SOL     OW29704   7.145  12.209   7.666
75936SOL    HW129705   7.148  12.135   7.606
75936SOL    HW229706   7.103  12.279   7.615
75937SOL     OW29707  11.603  13.080  10.199
75937SOL    HW129708  11.672  13.078  10.266
75937SOL    HW229709  11.620  13.004  10.144
75938SOL     OW29710   9.365   2.850   6.509
75938SOL    HW129711   9.353   2.782   6.443
75938SOL    HW229712   9.309   2.823   6.582
75939SOL     OW29713   9.989  13.928  10.353
75939SOL    HW129714  10.062  13.889  10.401
75939SOL    HW229715  10.027  13.954  10.269
75940SOL     OW29716   4.040   0.020  14.040
75940SOL    HW129717   4.043  14.816  13.989
75940SOL    HW229718   4.130   0.053  14.038
75941SOL     OW29719   6.318   9.104   0.238
75941SOL    HW129720   6.392   9.046   0.218
75941SOL    HW229721   6.356   9.192   0.238
75942SOL     OW29722   1.651   5.010   4.382
75942SOL    HW129723   1.695   4.928   4.359
75942SOL    HW229724   1.625   5.047   4.298
75943SOL     OW29725   2.072   4.508  14.654
75943SOL    HW129726   2.076   4.532  14.561
75943SOL    HW229727   2.002   4.443  14.659
75944SOL     OW29728  10.764   4.245   1.682
75944SOL    HW129729  10.820   4.212   1.753
75944SOL    HW229730  10.824   4.259   1.609
75945SOL     OW29731  14.152   1.445   2.837
75945SOL    HW129732  14.077   1.394   2.868
75945SOL    HW229733  14.123   1.536   2.840
75946SOL     OW29734   1.420  12.989   7.172
75946SOL    HW129735   1.370  12.941   7.238
75946SOL    HW229736   1.508  12.953   7.177
75947SOL     OW29737   6.231  13.433  10.095
75947SOL    HW129738   6.318  13.393  10.096
75947SOL    HW229739   6.200  13.420  10.006
75948SOL     OW29740   8.975   5.317   9.555
75948SOL    HW129741   9.005   5.363   9.477
75948SOL    HW229742   8.971   5.225   9.528
75949SOL     OW29743  13.440   0.895   0.279
75949SOL    HW129744  13.442   0.941   0.195
75949SOL    HW229745  13.382   0.821   0.263
75950SOL     OW29746   4.322  13.372   8.840
75950SOL    HW129747   4.360  13.365   8.927
75950SOL    HW229748   4.331  13.285   8.802
75951SOL     OW29749   4.492   0.321   3.628
75951SOL    HW129750   4.482   0.245   3.685
75951SOL    HW229751   4.543   0.384   3.680
75952SOL     OW29752  14.721   3.149   9.322
75952SOL    HW129753  14.692   3.193   9.401
75952SOL    HW229754  14.784   3.209   9.282
75953SOL     OW29755   4.017   8.492   1.168
75953SOL    HW129756   4.051   8.483   1.079
75953SOL    HW229757   3.952   8.562   1.162
75954SOL     OW29758   5.043   1.383  14.548
75954SOL    HW129759   5.055   1.387  14.453
75954SOL    HW229760   5.116   1.329  14.579
75955SOL     OW29761   1.208  12.606   4.708
75955SOL    HW129762   1.115  12.586   4.701
75955SOL    HW229763   1.245  12.582   4.623
75956SOL     OW29764  14.712  13.171   5.959
75956SOL    HW129765  14.727  13.210   5.873
75956SOL    HW229766  14.796  13.178   6.004
75957SOL     OW29767   1.192  12.184  14.097
75957SOL    HW129768   1.247  12.122  14.050
75957SOL    HW229769   1.194  12.263  14.043
75958SOL     OW29770   9.689   9.305   5.762
75958SOL    HW129771   9.595   9.313   5.775
75958SOL    HW229772   9.726   9.382   5.806
75959SOL     OW29773   6.301   6.479   8.416
75959SOL    HW129774   6.300   6.383   8.422
75959SOL    HW229775   6.367   6.506   8.481
75960SOL     OW29776   3.598  14.573   1.392
75960SOL    HW129777   3.550  14.565   1.475
75960SOL    HW229778   3.690  14.571   1.417
75961SOL     OW29779   9.793   1.122   8.940
75961SOL    HW129780   9.707   1.137   8.901
75961SOL    HW229781   9.844   1.079   8.871
75962SOL     OW29782  11.573  11.181   1.643
75962SOL    HW129783  11.589  11.095   1.682
75962SOL    HW229784  11.649  11.195   1.586
75963SOL     OW29785   2.120   3.622  13.444
75963SOL    HW129786   2.155   3.599  13.531
75963SOL    HW229787   2.142   3.714  13.433
75964SOL     OW29788   9.819   0.882   9.891
75964SOL    HW129789   9.913   0.893   9.877
75964SOL    HW229790   9.787   0.839   9.812
75965SOL     OW29791  10.960  13.425   5.827
75965SOL    HW129792  10.940  13.430   5.921
75965SOL    HW229793  10.884  13.464   5.784
75966SOL     OW29794  13.352   8.198   6.741
75966SOL    HW129795  13.380   8.113   6.707
75966SOL    HW229796  13.340   8.184   6.834
75967SOL     OW29797   6.880  11.188  13.715
75967SOL    HW129798   6.963  11.144  13.703
75967SOL    HW229799   6.844  11.152  13.796
75968SOL     OW29800  13.564   0.013   7.203
75968SOL    HW129801  13.624   0.069   7.252
75968SOL    HW229802  13.535   0.068   7.130
75969SOL     OW29803  13.145  14.144  13.021
75969SOL    HW129804  13.150  14.089  12.942
75969SOL    HW229805  13.236  14.148  13.052
75970SOL     OW29806   8.308  13.098  13.078
75970SOL    HW129807   8.395  13.129  13.104
75970SOL    HW229808   8.309  13.004  13.100
75971SOL     OW29809   8.711  14.672  11.492
75971SOL    HW129810   8.754  14.738  11.437
75971SOL    HW229811   8.753  14.680  11.577
75972SOL     OW29812   1.609   5.775   9.353
75972SOL    HW129813   1.670   5.845   9.330
75972SOL    HW229814   1.556   5.764   9.275
75973SOL     OW29815   6.827  10.460   6.352
75973SOL    HW129816   6.735  10.437   6.347
75973SOL    HW229817   6.848  10.457   6.445
75974SOL     OW29818  12.378   3.293   1.756
75974SOL    HW129819  12.331   3.266   1.835
75974SOL    HW229820  12.309   3.313   1.693
75975SOL     OW29821   1.998   7.804   7.404
75975SOL    HW129822   1.952   7.817   7.320
75975SOL    HW229823   2.033   7.890   7.425
75976SOL     OW29824   3.834   7.762  14.175
75976SOL    HW129825   3.751   7.792  14.137
75976SOL    HW229826   3.810   7.734  14.264
75977SOL     OW29827   6.854  13.857   8.285
75977SOL    HW129828   6.923  13.812   8.333
75977SOL    HW229829   6.808  13.907   8.352
75978SOL     OW29830   6.479   9.009   4.700
75978SOL    HW129831   6.409   8.984   4.761
75978SOL    HW229832   6.468   8.950   4.626
75979SOL     OW29833  10.078   5.410  11.374
75979SOL    HW129834  10.041   5.322  11.378
75979SOL    HW229835  10.121   5.422  11.458
75980SOL     OW29836   7.482  10.316   6.976
75980SOL    HW129837   7.563  10.366   6.987
75980SOL    HW229838   7.511  10.226   6.965
75981SOL     OW29839   6.502   8.212  10.211
75981SOL    HW129840   6.548   8.296  10.203
75981SOL    HW229841   6.410   8.234  10.198
75982SOL     OW29842  14.360  10.897   7.116
75982SOL    HW129843  14.287  10.959   7.110
75982SOL    HW229844  14.323  10.822   7.162
75983SOL     OW29845  10.032   0.220   1.735
75983SOL    HW129846  10.012   0.179   1.651
75983SOL    HW229847   9.973   0.177   1.798
75984SOL     OW29848   5.939   3.376   6.950
75984SOL    HW129849   5.857   3.422   6.971
75984SOL    HW229850   5.980   3.430   6.882
75985SOL     OW29851   1.439   9.578   4.362
75985SOL    HW129852   1.431   9.485   4.384
75985SOL    HW229853   1.529   9.600   4.383
75986SOL     OW29854  10.196   4.307  12.164
75986SOL    HW129855  10.181   4.241  12.232
75986SOL    HW229856  10.111   4.319  12.122
75987SOL     OW29857   0.831   1.135   3.783
75987SOL    HW129858   0.764   1.201   3.803
75987SOL    HW229859   0.849   1.093   3.866
75988SOL     OW29860   4.418   7.763  12.054
75988SOL    HW129861   4.485   7.702  12.085
75988SOL    HW229862   4.468   7.839  12.023
75989SOL     OW29863   0.319  12.594   0.681
75989SOL    HW129864   0.367  12.513   0.660
75989SOL    HW229865   0.242  12.590   0.624
75990SOL     OW29866   4.477   7.163  12.909
75990SOL    HW129867   4.506   7.215  12.835
75990SOL    HW229868   4.553   7.109  12.931
75991SOL     OW29869   2.603   9.165   7.534
75991SOL    HW129870   2.664   9.110   7.582
75991SOL    HW229871   2.561   9.219   7.602
75992SOL     OW29872   8.575  12.585   3.394
75992SOL    HW129873   8.510  12.515   3.389
75992SOL    HW229874   8.659  12.539   3.401
75993SOL     OW29875   3.973  10.867   8.092
75993SOL    HW129876   3.932  10.784   8.118
75993SOL    HW229877   3.904  10.915   8.047
75994SOL     OW29878   1.280   4.393   0.962
75994SOL    HW129879   1.339   4.363   0.892
75994SOL    HW229880   1.208   4.436   0.915
75995SOL     OW29881   3.815  13.722  13.316
75995SOL    HW129882   3.840  13.742  13.225
75995SOL    HW229883   3.721  13.706  13.311
75996SOL     OW29884   9.887  14.513   1.114
75996SOL    HW129885   9.824  14.584   1.128
75996SOL    HW229886   9.844  14.455   1.051
75997SOL     OW29887   3.493  13.478   2.312
75997SOL    HW129888   3.522  13.555   2.264
75997SOL    HW229889   3.406  13.460   2.277
75998SOL     OW29890   9.011   7.902  14.113
75998SOL    HW129891   8.957   7.834  14.074
75998SOL    HW229892   8.958   7.937  14.184
75999SOL     OW29893   7.910  13.649   9.194
75999SOL    HW129894   7.905  13.635   9.289
75999SOL    HW229895   8.003  13.638   9.173
76000SOL     OW29896   3.883  12.451   3.081
76000SOL    HW129897   3.877  12.425   3.173
76000SOL    HW229898   3.877  12.547   3.083
76001SOL     OW29899  10.898  10.902  10.789
76001SOL    HW129900  10.954  10.826  10.773
76001SOL    HW229901  10.931  10.939  10.871
76002SOL     OW29902   2.842   8.772   7.487
76002SOL    HW129903   2.865   8.702   7.547
76002SOL    HW229904   2.920   8.784   7.434
76003SOL     OW29905  12.521  13.963   0.077
76003SOL    HW129906  12.530  13.930   0.167
76003SOL    HW229907  12.433  13.936   0.050
76004SOL     OW29908  10.807   6.844  14.680
76004SOL    HW129909  10.726   6.795  14.668
76004SOL    HW229910  10.874   6.777  14.694
76005SOL     OW29911   7.908   9.954  10.636
76005SOL    HW129912   7.836   9.921  10.583
76005SOL    HW229913   7.984   9.952  10.578
76006SOL     OW29914   1.717   2.633   3.493
76006SOL    HW129915   1.674   2.552   3.519
76006SOL    HW229916   1.776   2.607   3.422
76007SOL     OW29917   2.719   1.402   9.254
76007SOL    HW129918   2.631   1.363   9.251
76007SOL    HW229919   2.777   1.328   9.274
76008SOL     OW29920   1.040   6.350   1.190
76008SOL    HW129921   0.977   6.405   1.145
76008SOL    HW229922   1.120   6.356   1.137
76009SOL     OW29923  14.503   6.797   4.129
76009SOL    HW129924  14.411   6.798   4.104
76009SOL    HW229925  14.527   6.704   4.131
76010SOL     OW29926  14.651  14.756   2.829
76010SOL    HW129927  14.650  14.850   2.850
76010SOL    HW229928  14.571  14.722   2.868
76011SOL     OW29929  13.651   3.816   5.289
76011SOL    HW129930  13.563   3.850   5.269
76011SOL    HW229931  13.636   3.725   5.314
76012SOL     OW29932   7.042   2.652   8.408
76012SOL    HW129933   7.117   2.682   8.355
76012SOL    HW229934   7.033   2.559   8.386
76013SOL     OW29935   8.189  14.823  12.212
76013SOL    HW129936   8.269  14.804  12.260
76013SOL    HW229937   8.129  14.752  12.238
76014SOL     OW29938   5.013   4.284   7.342
76014SOL    HW129939   4.985   4.376   7.334
76014SOL    HW229940   4.957   4.249   7.412
76015SOL     OW29941   4.630  12.264  13.491
76015SOL    HW129942   4.685  12.263  13.570
76015SOL    HW229943   4.544  12.293  13.522
76016SOL     OW29944   1.534   2.708   7.844
76016SOL    HW129945   1.560   2.642   7.908
76016SOL    HW229946   1.617   2.741   7.810
76017SOL     OW29947  12.097   0.201   7.913
76017SOL    HW129948  12.110   0.240   7.827
76017SOL    HW229949  12.144   0.118   7.910
76018SOL     OW29950  14.845   2.210   0.525
76018SOL    HW129951   0.007   2.137   0.476
76018SOL    HW229952  14.776   2.169   0.577
76019SOL     OW29953  10.040   2.997   9.359
76019SOL    HW129954   9.990   3.037   9.287
76019SOL    HW229955   9.983   3.006   9.435
76020SOL     OW29956   2.808   0.189   0.182
76020SOL    HW129957   2.779   0.119   0.241
76020SOL    HW229958   2.903   0.179   0.179
76021SOL     OW29959   2.284   2.180   2.790
76021SOL    HW129960   2.275   2.089   2.821
76021SOL    HW229961   2.194   2.212   2.786
76022SOL     OW29962   4.675   8.307  12.266
76022SOL    HW129963   4.606   8.335  12.327
76022SOL    HW229964   4.660   8.360  12.188
76023SOL     OW29965  12.990  13.849   4.135
76023SOL    HW129966  12.895  13.838   4.122
76023SOL    HW229967  13.025  13.760   4.127
76024SOL     OW29968  12.801  14.673  11.806
76024SOL    HW129969  12.856  14.744  11.838
76024SOL    HW229970  12.731  14.716  11.757
76025SOL     OW29971  12.784  12.660   3.417
76025SOL    HW129972  12.757  12.571   3.395
76025SOL    HW229973  12.736  12.680   3.498
76026SOL     OW29974  12.285  14.562   1.279
76026SOL    HW129975  12.229  14.638   1.296
76026SOL    HW229976  12.374  14.593   1.297
76027SOL     OW29977   2.622   3.860   2.819
76027SOL    HW129978   2.566   3.815   2.756
76027SOL    HW229979   2.593   3.829   2.904
76028SOL     OW29980   7.038  13.901   2.034
76028SOL    HW129981   6.960  13.882   2.086
76028SOL    HW229982   7.112  13.882   2.093
76029SOL     OW29983  14.630   2.043  14.316
76029SOL    HW129984  14.534   2.042  14.309
76029SOL    HW229985  14.655   2.132  14.292
76030SOL     OW29986  12.363   8.767   9.662
76030SOL    HW129987  12.434   8.797   9.719
76030SOL    HW229988  12.311   8.846   9.647
76031SOL     OW29989   5.738   3.694   7.655
76031SOL    HW129990   5.669   3.686   7.588
76031SOL    HW229991   5.783   3.610   7.653
76032SOL     OW29992  12.544  12.594  14.744
76032SOL    HW129993  12.505  12.519  14.698
76032SOL    HW229994  12.519  12.670  14.690
76033SOL     OW29995  13.417   7.990   6.059
76033SOL    HW129996  13.372   7.934   6.122
76033SOL    HW229997  13.448   8.064   6.110
76034SOL     OW29998   4.620   6.174   9.915
76034SOL    HW129999   4.639   6.110   9.984
76034SOL    HW230000   4.598   6.254   9.962
76035SOL     OW30001   4.281  13.715   2.240
76035SOL    HW130002   4.322  13.660   2.173
76035SOL    HW230003   4.206  13.756   2.196
76036SOL     OW30004  12.332   1.371  11.643
76036SOL    HW130005  12.402   1.314  11.674
76036SOL    HW230006  12.374   1.430  11.580
76037SOL     OW30007   1.579  14.531  14.777
76037SOL    HW130008   1.643  14.474  14.820
76037SOL    HW230009   1.504  14.531  14.837
76038SOL     OW30010   8.713   9.907  12.320
76038SOL    HW130011   8.741   9.817  12.303
76038SOL    HW230012   8.782   9.944  12.374
76039SOL     OW30013   3.937   1.548   8.976
76039SOL    HW130014   3.923   1.456   8.999
76039SOL    HW230015   4.014   1.547   8.919
76040SOL     OW30016   7.608   3.112  10.973
76040SOL    HW130017   7.522   3.130  11.012
76040SOL    HW230018   7.662   3.081  11.045
76041SOL     OW30019   5.597  12.086   0.955
76041SOL    HW130020   5.588  12.070   0.861
76041SOL    HW230021   5.670  12.147   0.962
76042SOL     OW30022   9.857  11.798   4.045
76042SOL    HW130023   9.930  11.857   4.027
76042SOL    HW230024   9.780  11.855   4.045
76043SOL     OW30025   9.916   9.228   9.584
76043SOL    HW130026   9.998   9.179   9.582
76043SOL    HW230027   9.930   9.295   9.651
76044SOL     OW30028   6.081   1.858   7.405
76044SOL    HW130029   6.132   1.936   7.425
76044SOL    HW230030   6.002   1.867   7.458
76045SOL     OW30031  13.398  14.009  10.436
76045SOL    HW130032  13.441  14.091  10.411
76045SOL    HW230033  13.411  14.004  10.531
76046SOL     OW30034   0.227   1.108   9.092
76046SOL    HW130035   0.233   1.189   9.042
76046SOL    HW230036   0.135   1.081   9.083
76047SOL     OW30037  12.189   7.867   7.552
76047SOL    HW130038  12.264   7.924   7.539
76047SOL    HW230039  12.120   7.924   7.586
76048SOL     OW30040  14.584   3.567  10.324
76048SOL    HW130041  14.520   3.593  10.390
76048SOL    HW230042  14.620   3.649  10.292
76049SOL     OW30043  12.950   9.223  13.351
76049SOL    HW130044  12.889   9.263  13.289
76049SOL    HW230045  13.036   9.234  13.311
76050SOL     OW30046   7.624  12.522   0.395
76050SOL    HW130047   7.557  12.461   0.426
76050SOL    HW230048   7.685  12.467   0.344
76051SOL     OW30049   7.225   5.506  11.078
76051SOL    HW130050   7.216   5.599  11.099
76051SOL    HW230051   7.213   5.501  10.984
76052SOL     OW30052   4.953   7.145   1.317
76052SOL    HW130053   4.885   7.203   1.351
76052SOL    HW230054   4.974   7.181   1.231
76053SOL     OW30055   9.691   2.913   7.433
76053SOL    HW130056   9.716   2.959   7.353
76053SOL    HW230057   9.595   2.909   7.429
76054SOL     OW30058  14.194   2.018  13.636
76054SOL    HW130059  14.116   2.010  13.581
76054SOL    HW230060  14.209   1.930  13.670
76055SOL     OW30061   4.355   2.838  12.680
76055SOL    HW130062   4.316   2.858  12.765
76055SOL    HW230063   4.312   2.898  12.619
76056SOL     OW30064   7.545   5.350  10.725
76056SOL    HW130065   7.556   5.445  10.730
76056SOL    HW230066   7.463   5.338  10.676
76057SOL     OW30067   7.212   4.972   2.376
76057SOL    HW130068   7.258   4.999   2.296
76057SOL    HW230069   7.180   4.884   2.357
76058SOL     OW30070   5.592   8.884  13.311
76058SOL    HW130071   5.543   8.957  13.350
76058SOL    HW230072   5.659   8.863  13.375
76059SOL     OW30073   2.728   4.571   0.253
76059SOL    HW130074   2.737   4.544   0.162
76059SOL    HW230075   2.754   4.495   0.304
76060SOL     OW30076   5.759   3.097   2.868
76060SOL    HW130077   5.715   3.180   2.847
76060SOL    HW230078   5.849   3.123   2.890
76061SOL     OW30079   7.680   8.883  11.972
76061SOL    HW130080   7.645   8.807  11.926
76061SOL    HW230081   7.689   8.855  12.062
76062SOL     OW30082  13.523   5.420   2.756
76062SOL    HW130083  13.518   5.499   2.810
76062SOL    HW230084  13.541   5.452   2.667
76063SOL     OW30085   1.014   0.913   1.005
76063SOL    HW130086   1.084   0.926   1.069
76063SOL    HW230087   1.050   0.850   0.943
76064SOL     OW30088   3.856  11.523   8.268
76064SOL    HW130089   3.935  11.552   8.313
76064SOL    HW230090   3.833  11.440   8.309
76065SOL     OW30091  12.930  11.258   3.619
76065SOL    HW130092  12.929  11.268   3.524
76065SOL    HW230093  12.838  11.245   3.643
76066SOL     OW30094  13.273  11.450   0.481
76066SOL    HW130095  13.345  11.421   0.537
76066SOL    HW230096  13.195  11.408   0.518
76067SOL     OW30097   0.715   1.024   6.565
76067SOL    HW130098   0.667   0.971   6.502
76067SOL    HW230099   0.803   0.986   6.567
76068SOL     OW30100   7.302  10.051  14.582
76068SOL    HW130101   7.360  10.083  14.651
76068SOL    HW230102   7.226  10.110  14.586
76069SOL     OW30103  13.652   5.178  10.428
76069SOL    HW130104  13.583   5.147  10.369
76069SOL    HW230105  13.729   5.126  10.404
76070SOL     OW30106   5.354   9.107   3.222
76070SOL    HW130107   5.276   9.152   3.192
76070SOL    HW230108   5.327   9.016   3.234
76071SOL     OW30109   9.343  10.852   8.723
76071SOL    HW130110   9.437  10.870   8.722
76071SOL    HW230111   9.326  10.815   8.810
76072SOL     OW30112   2.543   4.134   5.100
76072SOL    HW130113   2.516   4.048   5.133
76072SOL    HW230114   2.508   4.139   5.011
76073SOL     OW30115   7.352   9.475  11.485
76073SOL    HW130116   7.374   9.399  11.431
76073SOL    HW230117   7.277   9.446  11.538
76074SOL     OW30118  12.032   6.879   4.015
76074SOL    HW130119  12.060   6.960   3.974
76074SOL    HW230120  12.000   6.825   3.943
76075SOL     OW30121   3.606   0.793   1.741
76075SOL    HW130122   3.639   0.784   1.831
76075SOL    HW230123   3.683   0.817   1.690
76076SOL     OW30124   5.549   3.884   5.030
76076SOL    HW130125   5.559   3.803   5.079
76076SOL    HW230126   5.456   3.889   5.009
76077SOL     OW30127  12.420   7.673   1.171
76077SOL    HW130128  12.339   7.712   1.139
76077SOL    HW230129  12.407   7.663   1.266
76078SOL     OW30130   9.042   5.115   3.045
76078SOL    HW130131   9.091   5.186   3.087
76078SOL    HW230132   9.108   5.051   3.019
76079SOL     OW30133   8.952   8.192  12.833
76079SOL    HW130134   9.035   8.148  12.815
76079SOL    HW230135   8.977   8.283  12.851
76080SOL     OW30136   1.825  14.581   2.600
76080SOL    HW130137   1.896  14.641   2.623
76080SOL    HW230138   1.757  14.597   2.666
76081SOL     OW30139   8.905   7.448   8.803
76081SOL    HW130140   8.885   7.435   8.711
76081SOL    HW230141   8.829   7.493   8.839
76082SOL     OW30142   1.469   6.641   0.275
76082SOL    HW130143   1.548   6.665   0.227
76082SOL    HW230144   1.498   6.627   0.365
76083SOL     OW30145   9.142   9.125   7.736
76083SOL    HW130146   9.201   9.190   7.698
76083SOL    HW230147   9.150   9.139   7.830
76084SOL     OW30148  14.039  11.315   6.249
76084SOL    HW130149  14.111  11.326   6.311
76084SOL    HW230150  14.080  11.279   6.171
76085SOL     OW30151   0.344   2.527   9.042
76085SOL    HW130152   0.274   2.589   9.018
76085SOL    HW230153   0.307   2.476   9.113
76086SOL     OW30154  11.114   1.550  12.826
76086SOL    HW130155  11.153   1.571  12.741
76086SOL    HW230156  11.146   1.463  12.847
76087SOL     OW30157   8.374   6.919   6.336
76087SOL    HW130158   8.431   6.905   6.412
76087SOL    HW230159   8.306   6.852   6.345
76088SOL     OW30160   9.545   1.518   3.420
76088SOL    HW130161   9.527   1.610   3.440
76088SOL    HW230162   9.600   1.521   3.341
76089SOL     OW30163   3.564   5.594   9.410
76089SOL    HW130164   3.517   5.601   9.327
76089SOL    HW230165   3.532   5.513   9.450
76090SOL     OW30166   8.952  10.511   9.574
76090SOL    HW130167   8.943  10.422   9.607
76090SOL    HW230168   8.976  10.500   9.482
76091SOL     OW30169   3.466   5.430   7.129
76091SOL    HW130170   3.399   5.496   7.111
76091SOL    HW230171   3.471   5.427   7.225
76092SOL     OW30172   6.760   7.317   5.151
76092SOL    HW130173   6.682   7.311   5.095
76092SOL    HW230174   6.726   7.345   5.236
76093SOL     OW30175   0.561  12.717  12.613
76093SOL    HW130176   0.590  12.761  12.692
76093SOL    HW230177   0.468  12.737  12.606
76094SOL     OW30178   3.561  12.161   6.141
76094SOL    HW130179   3.536  12.227   6.076
76094SOL    HW230180   3.579  12.212   6.221
76095SOL     OW30181   5.715   5.266  11.973
76095SOL    HW130182   5.700   5.228  11.886
76095SOL    HW230183   5.747   5.354  11.956
76096SOL     OW30184   3.115   1.233   3.942
76096SOL    HW130185   3.036   1.286   3.932
76096SOL    HW230186   3.181   1.294   3.976
76097SOL     OW30187   8.635   8.270   1.150
76097SOL    HW130188   8.595   8.223   1.077
76097SOL    HW230189   8.730   8.261   1.136
76098SOL     OW30190  11.216   6.095   0.662
76098SOL    HW130191  11.183   6.009   0.634
76098SOL    HW230192  11.213   6.149   0.583
76099SOL     OW30193  10.772  11.562   3.510
76099SOL    HW130194  10.725  11.635   3.550
76099SOL    HW230195  10.703  11.499   3.488
76100SOL     OW30196   7.859  12.685   5.012
76100SOL    HW130197   7.883  12.599   5.046
76100SOL    HW230198   7.856  12.742   5.090
76101SOL     OW30199   2.869   5.927  10.281
76101SOL    HW130200   2.867   5.998  10.218
76101SOL    HW230201   2.900   5.851  10.231
76102SOL     OW30202  10.507   0.743   1.411
76102SOL    HW130203  10.596   0.708   1.405
76102SOL    HW230204  10.514   0.833   1.381
76103SOL     OW30205   9.607   3.480  13.729
76103SOL    HW130206   9.629   3.471  13.636
76103SOL    HW230207   9.686   3.452  13.775
76104SOL     OW30208   5.419   6.119   0.767
76104SOL    HW130209   5.378   6.185   0.710
76104SOL    HW230210   5.445   6.049   0.707
76105SOL     OW30211   1.116   5.957   6.961
76105SOL    HW130212   1.150   5.939   7.049
76105SOL    HW230213   1.059   6.032   6.973
76106SOL     OW30214  13.761   2.787  13.642
76106SOL    HW130215  13.768   2.881  13.625
76106SOL    HW230216  13.839   2.767  13.694
76107SOL     OW30217   4.312   7.336  13.333
76107SOL    HW130218   4.395   7.375  13.306
76107SOL    HW230219   4.324   7.242  13.321
76108SOL     OW30220   3.441   6.681  10.106
76108SOL    HW130221   3.509   6.687  10.039
76108SOL    HW230222   3.360   6.669  10.056
76109SOL     OW30223   1.555   7.413   1.049
76109SOL    HW130224   1.615   7.393   0.978
76109SOL    HW230225   1.605   7.468   1.109
76110SOL     OW30226   0.392   4.189   8.662
76110SOL    HW130227   0.371   4.157   8.574
76110SOL    HW230228   0.483   4.216   8.657
76111SOL     OW30229   0.566   6.582   9.175
76111SOL    HW130230   0.537   6.665   9.138
76111SOL    HW230231   0.598   6.604   9.262
76112SOL     OW30232   4.341  14.541   0.571
76112SOL    HW130233   4.280  14.481   0.528
76112SOL    HW230234   4.426  14.496   0.568
76113SOL     OW30235  10.091   2.808   1.962
76113SOL    HW130236  10.137   2.878   2.008
76113SOL    HW230237  10.057   2.850   1.883
76114SOL     OW30238   6.518   6.409   1.340
76114SOL    HW130239   6.456   6.378   1.273
76114SOL    HW230240   6.549   6.330   1.383
76115SOL     OW30241  10.117   2.910   1.458
76115SOL    HW130242  10.197   2.928   1.409
76115SOL    HW230243  10.073   2.842   1.407
76116SOL     OW30244   9.575  13.976   7.918
76116SOL    HW130245   9.609  14.056   7.878
76116SOL    HW230246   9.487  14.000   7.949
76117SOL     OW30247  13.559   9.316   8.187
76117SOL    HW130248  13.645   9.307   8.145
76117SOL    HW230249  13.544   9.232   8.230
76118SOL     OW30250   1.746   3.459  13.863
76118SOL    HW130251   1.670   3.410  13.896
76118SOL    HW230252   1.717   3.550  13.864
76119SOL     OW30253   8.856   5.519   0.099
76119SOL    HW130254   8.856   5.577   0.023
76119SOL    HW230255   8.907   5.565   0.165
76120SOL     OW30256  12.568  14.045  12.094
76120SOL    HW130257  12.581  14.043  11.999
76120SOL    HW230258  12.630  14.111  12.125
76121SOL     OW30259   6.334   8.642  13.395
76121SOL    HW130260   6.421   8.604  13.383
76121SOL    HW230261   6.327   8.656  13.490
76122SOL     OW30262   0.745  13.866   0.093
76122SOL    HW130263   0.784  13.934   0.038
76122SOL    HW230264   0.701  13.808   0.030
76123SOL     OW30265   4.198   8.762   4.221
76123SOL    HW130266   4.140   8.807   4.282
76123SOL    HW230267   4.286   8.790   4.247
76124SOL     OW30268   0.539   9.490   7.853
76124SOL    HW130269   0.464   9.539   7.888
76124SOL    HW230270   0.610   9.554   7.851
76125SOL     OW30271   2.271  13.319   1.647
76125SOL    HW130272   2.258  13.360   1.732
76125SOL    HW230273   2.209  13.364   1.590
76126SOL     OW30274   7.214   7.025   3.005
76126SOL    HW130275   7.201   7.054   3.095
76126SOL    HW230276   7.285   6.961   3.010
76127SOL     OW30277   6.289   3.307  10.221
76127SOL    HW130278   6.373   3.264  10.237
76127SOL    HW230279   6.224   3.242  10.244
76128SOL     OW30280   6.321   7.709  10.956
76128SOL    HW130281   6.403   7.735  10.914
76128SOL    HW230282   6.255   7.715  10.887
76129SOL     OW30283   2.405   0.878  11.177
76129SOL    HW130284   2.395   0.896  11.083
76129SOL    HW230285   2.443   0.959  11.212
76130SOL     OW30286   5.178   3.563   3.750
76130SOL    HW130287   5.146   3.638   3.701
76130SOL    HW230288   5.145   3.486   3.703
76131SOL     OW30289   1.088   5.584   8.755
76131SOL    HW130290   1.059   5.548   8.671
76131SOL    HW230291   1.007   5.604   8.802
76132SOL     OW30292   8.426   5.145   2.602
76132SOL    HW130293   8.497   5.097   2.559
76132SOL    HW230294   8.434   5.234   2.569
76133SOL     OW30295  10.512   0.060   2.378
76133SOL    HW130296  10.516   0.120   2.303
76133SOL    HW230297  10.528   0.116   2.454
76134SOL     OW30298  13.930  10.593  11.416
76134SOL    HW130299  13.896  10.659  11.356
76134SOL    HW230300  13.924  10.634  11.503
76135SOL     OW30301   8.581   7.485   5.932
76135SOL    HW130302   8.666   7.445   5.951
76135SOL    HW230303   8.556   7.531   6.012
76136SOL     OW30304   7.147   9.956   7.428
76136SOL    HW130305   7.122   9.911   7.347
76136SOL    HW230306   7.235   9.990   7.410
76137SOL     OW30307   4.418   4.202   5.574
76137SOL    HW130308   4.328   4.175   5.560
76137SOL    HW230309   4.428   4.206   5.669
76138SOL     OW30310   8.412   0.547   6.483
76138SOL    HW130311   8.471   0.537   6.558
76138SOL    HW230312   8.371   0.461   6.473
76139SOL     OW30313  10.734   7.550   5.551
76139SOL    HW130314  10.700   7.624   5.500
76139SOL    HW230315  10.808   7.587   5.599
76140SOL     OW30316   8.373   7.955   6.111
76140SOL    HW130317   8.407   7.981   6.025
76140SOL    HW230318   8.349   7.863   6.100
76141SOL     OW30319  11.168   9.004   3.620
76141SOL    HW130320  11.079   8.970   3.622
76141SOL    HW230321  11.171   9.068   3.691
76142SOL     OW30322  12.630   1.348   2.595
76142SOL    HW130323  12.569   1.415   2.564
76142SOL    HW230324  12.652   1.298   2.516
76143SOL     OW30325   4.937  13.362  14.149
76143SOL    HW130326   4.890  13.428  14.200
76143SOL    HW230327   5.027  13.395  14.143
76144SOL     OW30328  12.721  11.020  13.471
76144SOL    HW130329  12.724  11.103  13.519
76144SOL    HW230330  12.800  11.020  13.418
76145SOL     OW30331   8.689   7.413   6.573
76145SOL    HW130332   8.613   7.413   6.515
76145SOL    HW230333   8.752   7.355   6.529
76146SOL     OW30334   1.736   0.942   8.412
76146SOL    HW130335   1.744   1.030   8.376
76146SOL    HW230336   1.770   0.949   8.501
76147SOL     OW30337   2.924   4.525   5.935
76147SOL    HW130338   2.843   4.565   5.905
76147SOL    HW230339   2.968   4.495   5.855
76148SOL     OW30340   6.391   4.051   5.642
76148SOL    HW130341   6.384   4.140   5.675
76148SOL    HW230342   6.383   3.996   5.720
76149SOL     OW30343   9.369   6.635   9.342
76149SOL    HW130344   9.375   6.695   9.417
76149SOL    HW230345   9.457   6.599   9.333
76150SOL     OW30346   3.082   2.903   1.087
76150SOL    HW130347   3.018   2.920   1.018
76150SOL    HW230348   3.103   2.989   1.123
76151SOL     OW30349   5.947   9.885   2.283
76151SOL    HW130350   5.932   9.794   2.310
76151SOL    HW230351   6.035   9.885   2.247
76152SOL     OW30352   2.369   9.708  10.568
76152SOL    HW130353   2.281   9.713  10.530
76152SOL    HW230354   2.423   9.668  10.499
76153SOL     OW30355   7.503   6.842   5.244
76153SOL    HW130356   7.569   6.789   5.288
76153SOL    HW230357   7.514   6.821   5.151
76154SOL     OW30358   4.067   4.165   6.136
76154SOL    HW130359   4.130   4.229   6.167
76154SOL    HW230360   4.010   4.149   6.211
76155SOL     OW30361  11.938   7.510   4.637
76155SOL    HW130362  11.946   7.604   4.646
76155SOL    HW230363  12.028   7.478   4.630
76156SOL     OW30364  10.875   3.701  13.237
76156SOL    HW130365  10.906   3.762  13.170
76156SOL    HW230366  10.955   3.666  13.276
76157SOL     OW30367   5.652   2.302   6.607
76157SOL    HW130368   5.734   2.277   6.650
76157SOL    HW230369   5.593   2.324   6.680
76158SOL     OW30370  13.379   3.314  10.360
76158SOL    HW130371  13.414   3.229  10.333
76158SOL    HW230372  13.446   3.349  10.420
76159SOL     OW30373   9.161   3.879   9.549
76159SOL    HW130374   9.167   3.824   9.472
76159SOL    HW230375   9.070   3.908   9.551
76160SOL     OW30376   4.030   0.952   5.512
76160SOL    HW130377   4.039   1.018   5.443
76160SOL    HW230378   3.949   0.905   5.491
76161SOL     OW30379   4.549   6.303   4.201
76161SOL    HW130380   4.636   6.265   4.213
76161SOL    HW230381   4.489   6.231   4.213
76162SOL     OW30382  13.730  14.628  13.609
76162SOL    HW130383  13.644  14.625  13.567
76162SOL    HW230384  13.733  14.714  13.650
76163SOL     OW30385   2.716  14.351  13.595
76163SOL    HW130386   2.654  14.423  13.583
76163SOL    HW230387   2.727  14.314  13.508
76164SOL     OW30388   3.434   5.639   0.774
76164SOL    HW130389   3.373   5.565   0.768
76164SOL    HW230390   3.518   5.604   0.744
76165SOL     OW30391   6.991   0.068  13.618
76165SOL    HW130392   6.936   0.069  13.697
76165SOL    HW230393   7.001   0.161  13.596
76166SOL     OW30394   1.447   0.738   4.300
76166SOL    HW130395   1.411   0.649   4.299
76166SOL    HW230396   1.534   0.729   4.262
76167SOL     OW30397   2.246   3.038  10.212
76167SOL    HW130398   2.339   3.054  10.228
76167SOL    HW230399   2.217   2.986  10.288
76168SOL     OW30400   1.051  13.099  11.121
76168SOL    HW130401   1.073  13.103  11.028
76168SOL    HW230402   1.135  13.097  11.166
76169SOL     OW30403   4.798   2.960   0.562
76169SOL    HW130404   4.800   2.997   0.474
76169SOL    HW230405   4.714   2.989   0.599
76170SOL     OW30406   7.278   6.389   4.055
76170SOL    HW130407   7.255   6.376   3.963
76170SOL    HW230408   7.252   6.479   4.074
76171SOL     OW30409  12.010   7.275  11.194
76171SOL    HW130410  11.942   7.239  11.251
76171SOL    HW230411  12.012   7.216  11.119
76172SOL     OW30412   2.291  12.701   6.932
76172SOL    HW130413   2.364  12.678   6.990
76172SOL    HW230414   2.245  12.771   6.979
76173SOL     OW30415   6.840   1.445  13.431
76173SOL    HW130416   6.802   1.413  13.513
76173SOL    HW230417   6.845   1.367  13.375
76174SOL     OW30418  13.298  12.808  14.192
76174SOL    HW130419  13.214  12.787  14.232
76174SOL    HW230420  13.304  12.748  14.118
76175SOL     OW30421   5.717   4.913  13.010
76175SOL    HW130422   5.725   4.846  13.078
76175SOL    HW230423   5.635   4.892  12.965
76176SOL     OW30424   7.759   3.735  13.848
76176SOL    HW130425   7.751   3.642  13.868
76176SOL    HW230426   7.713   3.779  13.920
76177SOL     OW30427   5.632  10.611  11.921
76177SOL    HW130428   5.665  10.696  11.950
76177SOL    HW230429   5.664  10.604  11.831
76178SOL     OW30430   0.691  12.890   1.409
76178SOL    HW130431   0.776  12.894   1.365
76178SOL    HW230432   0.688  12.970   1.462
76179SOL     OW30433  13.440  13.099   9.188
76179SOL    HW130434  13.440  13.048   9.269
76179SOL    HW230435  13.366  13.159   9.197
76180SOL     OW30436   6.229   8.305   5.338
76180SOL    HW130437   6.285   8.272   5.267
76180SOL    HW230438   6.142   8.269   5.317
76181SOL     OW30439   1.881   8.561  14.260
76181SOL    HW130440   1.863   8.554  14.354
76181SOL    HW230441   1.958   8.617  14.254
76182SOL     OW30442   0.417   3.694   7.899
76182SOL    HW130443   0.446   3.632   7.967
76182SOL    HW230444   0.394   3.773   7.947
76183SOL     OW30445  10.754   4.348   3.747
76183SOL    HW130446  10.789   4.310   3.667
76183SOL    HW230447  10.672   4.302   3.762
76184SOL     OW30448   1.699  11.714  14.672
76184SOL    HW130449   1.693  11.700  14.577
76184SOL    HW230450   1.751  11.639  14.703
76185SOL     OW30451   1.181  13.290   8.208
76185SOL    HW130452   1.145  13.223   8.266
76185SOL    HW230453   1.139  13.274   8.124
76186SOL     OW30454   6.347   3.414   9.091
76186SOL    HW130455   6.267   3.447   9.050
76186SOL    HW230456   6.319   3.335   9.138
76187SOL     OW30457  10.152   5.478  10.206
76187SOL    HW130458  10.169   5.398  10.255
76187SOL    HW230459  10.057   5.477  10.190
76188SOL     OW30460   5.210  14.012  10.104
76188SOL    HW130461   5.145  14.061  10.055
76188SOL    HW230462   5.179  14.011  10.194
76189SOL     OW30463   5.175   5.439   0.569
76189SOL    HW130464   5.169   5.361   0.625
76189SOL    HW230465   5.086   5.452   0.536
76190SOL     OW30466  13.868   0.953  12.928
76190SOL    HW130467  13.917   0.974  13.008
76190SOL    HW230468  13.915   1.000  12.859
76191SOL     OW30469   9.339   1.849   8.372
76191SOL    HW130470   9.281   1.810   8.307
76191SOL    HW230471   9.301   1.936   8.389
76192SOL     OW30472  14.593   8.744  13.794
76192SOL    HW130473  14.512   8.704  13.824
76192SOL    HW230474  14.571   8.836  13.780
76193SOL     OW30475   9.272   1.926   1.005
76193SOL    HW130476   9.295   2.012   1.040
76193SOL    HW230477   9.337   1.909   0.937
76194SOL     OW30478   1.487   5.262  13.368
76194SOL    HW130479   1.540   5.338  13.393
76194SOL    HW230480   1.414   5.262  13.430
76195SOL     OW30481   1.959   5.014  10.263
76195SOL    HW130482   1.941   5.098  10.305
76195SOL    HW230483   1.872   4.974  10.252
76196SOL     OW30484   1.132   5.599  10.244
76196SOL    HW130485   1.161   5.534  10.307
76196SOL    HW230486   1.046   5.567  10.215
76197SOL     OW30487   2.860   7.533  11.933
76197SOL    HW130488   2.785   7.573  11.976
76197SOL    HW230489   2.923   7.605  11.922
76198SOL     OW30490   4.900  13.385  13.179
76198SOL    HW130491   4.886  13.298  13.217
76198SOL    HW230492   4.871  13.446  13.248
76199SOL     OW30493   3.800   9.272   7.851
76199SOL    HW130494   3.848   9.242   7.774
76199SOL    HW230495   3.739   9.338   7.816
76200SOL     OW30496   0.091   2.268  13.045
76200SOL    HW130497   0.085   2.176  13.069
76200SOL    HW230498   0.136   2.269  12.961
76201SOL     OW30499   1.736   1.016   1.391
76201SOL    HW130500   1.702   1.104   1.373
76201SOL    HW230501   1.658   0.963   1.403
76202SOL     OW30502   0.399   0.003   5.037
76202SOL    HW130503   0.456   0.065   5.083
76202SOL    HW230504   0.364   0.052   4.963
76203SOL     OW30505  14.306   7.145   3.606
76203SOL    HW130506  14.261   7.060   3.612
76203SOL    HW230507  14.342   7.159   3.693
76204SOL     OW30508  13.163  10.595   7.217
76204SOL    HW130509  13.216  10.517   7.232
76204SOL    HW230510  13.114  10.607   7.299
76205SOL     OW30511   1.412   0.907   2.722
76205SOL    HW130512   1.365   0.824   2.729
76205SOL    HW230513   1.473   0.906   2.796
76206SOL     OW30514   3.127   1.335   5.532
76206SOL    HW130515   3.057   1.271   5.542
76206SOL    HW230516   3.085   1.412   5.493
76207SOL     OW30517  13.951   3.680   0.742
76207SOL    HW130518  13.978   3.670   0.833
76207SOL    HW230519  13.938   3.774   0.730
76208SOL     OW30520   2.375  12.650  10.615
76208SOL    HW130521   2.294  12.607  10.586
76208SOL    HW230522   2.372  12.645  10.711
76209SOL     OW30523  11.641   0.581   1.632
76209SOL    HW130524  11.736   0.588   1.629
76209SOL    HW230525  11.621   0.508   1.573
76210SOL     OW30526   9.841  13.762   7.258
76210SOL    HW130527   9.827  13.799   7.171
76210SOL    HW230528   9.770  13.797   7.311
76211SOL     OW30529   2.751  14.857   0.958
76211SOL    HW130530   2.685   0.025   1.010
76211SOL    HW230531   2.799  14.804   1.022
76212SOL     OW30532  14.349  12.231  14.191
76212SOL    HW130533  14.262  12.220  14.231
76212SOL    HW230534  14.406  12.251  14.265
76213SOL     OW30535   3.655  12.536   9.459
76213SOL    HW130536   3.729  12.588   9.427
76213SOL    HW230537   3.665  12.536   9.554
76214SOL     OW30538  14.557   2.265   1.303
76214SOL    HW130539  14.650   2.263   1.280
76214SOL    HW230540  14.515   2.308   1.229
76215SOL     OW30541  13.853   5.560   7.012
76215SOL    HW130542  13.912   5.493   6.976
76215SOL    HW230543  13.829   5.527   7.099
76216SOL     OW30544   6.236   8.945   4.854
76216SOL    HW130545   6.200   8.949   4.943
76216SOL    HW230546   6.162   8.917   4.800
76217SOL     OW30547  12.256  10.743   2.265
76217SOL    HW130548  12.329  10.802   2.282
76217SOL    HW230549  12.265  10.674   2.330
76218SOL     OW30550  13.742  11.829   6.716
76218SOL    HW130551  13.817  11.828   6.775
76218SOL    HW230552  13.746  11.915   6.674
76219SOL     OW30553   1.092   0.404   3.213
76219SOL    HW130554   1.070   0.365   3.297
76219SOL    HW230555   1.178   0.370   3.191
76220SOL     OW30556   6.401  12.117   6.758
76220SOL    HW130557   6.319  12.076   6.732
76220SOL    HW230558   6.389  12.210   6.738
76221SOL     OW30559  10.673   6.065  14.555
76221SOL    HW130560  10.585   6.097  14.536
76221SOL    HW230561  10.715   6.137  14.601
76222SOL     OW30562   9.840   5.862   9.400
76222SOL    HW130563   9.773   5.825   9.343
76222SOL    HW230564   9.790   5.910   9.467
76223SOL     OW30565  14.533   5.340   1.000
76223SOL    HW130566  14.597   5.300   0.942
76223SOL    HW230567  14.481   5.266   1.033
76224SOL     OW30568   6.850   8.246   9.606
76224SOL    HW130569   6.760   8.257   9.637
76224SOL    HW230570   6.861   8.151   9.597
76225SOL     OW30571  13.264   3.988   7.348
76225SOL    HW130572  13.253   3.912   7.290
76225SOL    HW230573  13.358   4.001   7.354
76226SOL     OW30574  12.490  11.768   0.168
76226SOL    HW130575  12.580  11.781   0.197
76226SOL    HW230576  12.497  11.735   0.079
76227SOL     OW30577   4.465  13.295   2.620
76227SOL    HW130578   4.373  13.269   2.628
76227SOL    HW230579   4.463  13.376   2.570
76228SOL     OW30580   4.344  11.682   7.453
76228SOL    HW130581   4.387  11.681   7.367
76228SOL    HW230582   4.250  11.687   7.432
76229SOL     OW30583   5.252  11.275   8.507
76229SOL    HW130584   5.175  11.221   8.525
76229SOL    HW230585   5.326  11.221   8.533
76230SOL     OW30586  14.651  14.519   4.475
76230SOL    HW130587  14.612  14.596   4.435
76230SOL    HW230588  14.738  14.548   4.504
76231SOL     OW30589   0.378   6.374   4.790
76231SOL    HW130590   0.463   6.331   4.802
76231SOL    HW230591   0.320   6.330   4.851
76232SOL     OW30592   6.455   9.115  13.178
76232SOL    HW130593   6.453   9.020  13.189
76232SOL    HW230594   6.393   9.132  13.107
76233SOL     OW30595   5.432  12.226  14.462
76233SOL    HW130596   5.441  12.131  14.472
76233SOL    HW230597   5.458  12.243  14.372
76234SOL     OW30598  10.951  11.295   6.710
76234SOL    HW130599  10.878  11.333   6.759
76234SOL    HW230600  10.999  11.243   6.774
76235SOL     OW30601  14.808   5.227   3.905
76235SOL    HW130602   0.018   5.257   3.883
76235SOL    HW230603  14.750   5.299   3.877
76236SOL     OW30604  10.521   4.306  11.463
76236SOL    HW130605  10.542   4.362  11.388
76236SOL    HW230606  10.588   4.328  11.528
76237SOL     OW30607   2.736   3.629   7.745
76237SOL    HW130608   2.683   3.550   7.758
76237SOL    HW230609   2.766   3.653   7.832
76238SOL     OW30610  13.748   3.894   6.839
76238SOL    HW130611  13.692   3.901   6.916
76238SOL    HW230612  13.692   3.860   6.771
76239SOL     OW30613   8.007   0.041  11.075
76239SOL    HW130614   8.013  14.856  11.147
76239SOL    HW230615   8.051   0.119  11.107
76240SOL     OW30616   9.330   3.326   7.840
76240SOL    HW130617   9.314   3.232   7.847
76240SOL    HW230618   9.269   3.366   7.902
76241SOL     OW30619  12.699   1.502   6.263
76241SOL    HW130620  12.677   1.427   6.208
76241SOL    HW230621  12.678   1.474   6.352
76242SOL     OW30622   6.994   2.213   2.188
76242SOL    HW130623   7.032   2.215   2.275
76242SOL    HW230624   7.049   2.272   2.136
76243SOL     OW30625  10.004  11.208   2.621
76243SOL    HW130626   9.978  11.156   2.545
76243SOL    HW230627   9.989  11.150   2.696
76244SOL     OW30628   4.634  11.953   4.685
76244SOL    HW130629   4.728  11.973   4.684
76244SOL    HW230630   4.612  11.946   4.778
76245SOL     OW30631  10.238   3.634   2.623
76245SOL    HW130632  10.216   3.693   2.550
76245SOL    HW230633  10.183   3.663   2.695
76246SOL     OW30634   0.186   2.734   3.680
76246SOL    HW130635   0.221   2.813   3.639
76246SOL    HW230636   0.255   2.669   3.667
76247SOL     OW30637  13.673   6.490   3.496
76247SOL    HW130638  13.640   6.402   3.479
76247SOL    HW230639  13.669   6.499   3.591
76248SOL     OW30640  10.209  10.384   9.179
76248SOL    HW130641  10.294  10.421   9.156
76248SOL    HW230642  10.173  10.444   9.245
76249SOL     OW30643   4.714   2.787  12.587
76249SOL    HW130644   4.664   2.707  12.604
76249SOL    HW230645   4.753   2.810  12.671
76250SOL     OW30646   3.814  14.809   0.868
76250SOL    HW130647   3.860  14.877   0.818
76250SOL    HW230648   3.884  14.752   0.900
76251SOL     OW30649  12.916   7.185   0.810
76251SOL    HW130650  12.970   7.259   0.837
76251SOL    HW230651  12.909   7.131   0.889
76252SOL     OW30652  10.856  10.819   0.649
76252SOL    HW130653  10.856  10.822   0.553
76252SOL    HW230654  10.938  10.862   0.673
76253SOL     OW30655  13.911   8.148   8.094
76253SOL    HW130656  13.887   8.083   8.160
76253SOL    HW230657  13.830   8.164   8.046
76254SOL     OW30658   6.082   1.193   8.845
76254SOL    HW130659   6.145   1.121   8.846
76254SOL    HW230660   6.081   1.221   8.753
76255SOL     OW30661   3.723  11.403   2.872
76255SOL    HW130662   3.668  11.325   2.868
76255SOL    HW230663   3.807  11.372   2.907
76256SOL     OW30664   8.342  12.332  14.601
76256SOL    HW130665   8.418  12.390  14.602
76256SOL    HW230666   8.373  12.253  14.557
76257SOL     OW30667  11.666  12.936   3.292
76257SOL    HW130668  11.571  12.930   3.286
76257SOL    HW230669  11.682  13.020   3.334
76258SOL     OW30670   1.596  13.386   6.671
76258SOL    HW130671   1.674  13.343   6.705
76258SOL    HW230672   1.523  13.336   6.708
76259SOL     OW30673  10.657   0.816  12.946
76259SOL    HW130674  10.688   0.889  12.893
76259SOL    HW230675  10.730   0.797  13.005
76260SOL     OW30676   2.096   5.573   0.160
76260SOL    HW130677   2.021   5.520   0.189
76260SOL    HW230678   2.113   5.543   0.070
76261SOL     OW30679   9.337  14.740   9.129
76261SOL    HW130680   9.407  14.695   9.175
76261SOL    HW230681   9.301  14.801   9.194
76262SOL     OW30682   0.194   8.573   4.378
76262SOL    HW130683   0.230   8.582   4.290
76262SOL    HW230684   0.122   8.635   4.381
76263SOL     OW30685   8.527   5.530   2.821
76263SOL    HW130686   8.520   5.435   2.832
76263SOL    HW230687   8.578   5.559   2.896
76264SOL     OW30688  10.314   2.561   9.734
76264SOL    HW130689  10.234   2.539   9.685
76264SOL    HW230690  10.385   2.536   9.675
76265SOL     OW30691   7.776  12.550   1.989
76265SOL    HW130692   7.871  12.561   1.987
76265SOL    HW230693   7.744  12.627   2.036
76266SOL     OW30694  10.367   1.415  10.723
76266SOL    HW130695  10.308   1.340  10.720
76266SOL    HW230696  10.323   1.478  10.779
76267SOL     OW30697   8.081   7.563   7.108
76267SOL    HW130698   8.122   7.578   7.023
76267SOL    HW230699   8.009   7.502   7.090
76268SOL     OW30700   5.320  10.635   6.741
76268SOL    HW130701   5.376  10.564   6.771
76268SOL    HW230702   5.245  10.591   6.701
76269SOL     OW30703   9.665   3.318   5.436
76269SOL    HW130704   9.655   3.390   5.374
76269SOL    HW230705   9.727   3.351   5.502
76270SOL     OW30706  14.587  10.455   6.536
76270SOL    HW130707  14.566  10.377   6.483
76270SOL    HW230708  14.681  10.452   6.548
76271SOL     OW30709   3.729   8.638  11.649
76271SOL    HW130710   3.744   8.575  11.719
76271SOL    HW230711   3.634   8.642  11.639
76272SOL     OW30712   8.237   9.653   3.545
76272SOL    HW130713   8.260   9.578   3.491
76272SOL    HW230714   8.290   9.643   3.624
76273SOL     OW30715   5.339   9.449   0.363
76273SOL    HW130716   5.336   9.515   0.432
76273SOL    HW230717   5.266   9.390   0.383
76274SOL     OW30718   1.409  13.455   9.934
76274SOL    HW130719   1.317  13.428   9.931
76274SOL    HW230720   1.430  13.456  10.027
76275SOL     OW30721  11.509   5.901   7.047
76275SOL    HW130722  11.577   5.835   7.060
76275SOL    HW230723  11.542   5.956   6.976
76276SOL     OW30724   9.997   1.266   8.377
76276SOL    HW130725  10.053   1.296   8.306
76276SOL    HW230726  10.031   1.180   8.400
76277SOL     OW30727   3.477   6.464   3.583
76277SOL    HW130728   3.441   6.385   3.624
76277SOL    HW230729   3.568   6.467   3.613
76278SOL     OW30730   6.645   8.195   4.995
76278SOL    HW130731   6.619   8.141   4.921
76278SOL    HW230732   6.604   8.153   5.071
76279SOL     OW30733  12.658   2.867   8.323
76279SOL    HW130734  12.702   2.783   8.309
76279SOL    HW230735  12.599   2.876   8.248
76280SOL     OW30736   7.652   7.886   5.510
76280SOL    HW130737   7.737   7.928   5.499
76280SOL    HW230738   7.648   7.822   5.439
76281SOL     OW30739   5.596   6.281   5.422
76281SOL    HW130740   5.634   6.326   5.498
76281SOL    HW230741   5.636   6.325   5.346
76282SOL     OW30742   2.722  13.208   0.959
76282SOL    HW130743   2.781  13.144   0.999
76282SOL    HW230744   2.751  13.292   0.993
76283SOL     OW30745   6.476  12.053   1.601
76283SOL    HW130746   6.504  12.022   1.515
76283SOL    HW230747   6.513  11.989   1.662
76284SOL     OW30748   7.198   0.756  11.900
76284SOL    HW130749   7.272   0.720  11.852
76284SOL    HW230750   7.231   0.838  11.937
76285SOL     OW30751   4.266   2.090  13.865
76285SOL    HW130752   4.275   1.995  13.860
76285SOL    HW230753   4.194   2.104  13.927
76286SOL     OW30754  13.133  12.379   5.368
76286SOL    HW130755  13.106  12.449   5.309
76286SOL    HW230756  13.088  12.301   5.336
76287SOL     OW30757   7.568   1.456   3.208
76287SOL    HW130758   7.503   1.420   3.268
76287SOL    HW230759   7.643   1.397   3.216
76288SOL     OW30760  10.110   2.686   4.438
76288SOL    HW130761  10.049   2.747   4.478
76288SOL    HW230762  10.075   2.671   4.350
76289SOL     OW30763   9.153  11.245  12.202
76289SOL    HW130764   9.240  11.207  12.211
76289SOL    HW230765   9.164  11.316  12.139
76290SOL     OW30766   4.484   3.674   3.997
76290SOL    HW130767   4.393   3.671   3.967
76290SOL    HW230768   4.480   3.650   4.089
76291SOL     OW30769  10.220   0.813   0.494
76291SOL    HW130770  10.198   0.734   0.443
76291SOL    HW230771  10.293   0.852   0.447
76292SOL     OW30772   5.451   0.985   6.309
76292SOL    HW130773   5.470   1.065   6.358
76292SOL    HW230774   5.530   0.932   6.318
76293SOL     OW30775   1.929   5.265   8.114
76293SOL    HW130776   2.012   5.303   8.084
76293SOL    HW230777   1.862   5.322   8.076
76294SOL     OW30778  11.851  14.648   2.691
76294SOL    HW130779  11.810  14.719   2.641
76294SOL    HW230780  11.937  14.682   2.714
76295SOL     OW30781  13.258   7.903  11.181
76295SOL    HW130782  13.266   7.994  11.212
76295SOL    HW230783  13.208   7.859  11.250
76296SOL     OW30784  13.979   6.738   6.807
76296SOL    HW130785  13.926   6.672   6.763
76296SOL    HW230786  13.940   6.746   6.894
76297SOL     OW30787   5.929   5.764   5.314
76297SOL    HW130788   5.849   5.713   5.302
76297SOL    HW230789   5.989   5.705   5.359
76298SOL     OW30790   0.815   7.513   1.304
76298SOL    HW130791   0.755   7.558   1.363
76298SOL    HW230792   0.863   7.582   1.260
76299SOL     OW30793  10.853   2.200  11.603
76299SOL    HW130794  10.832   2.215  11.511
76299SOL    HW230795  10.776   2.154  11.637
76300SOL     OW30796  10.520   6.205   8.368
76300SOL    HW130797  10.476   6.197   8.284
76300SOL    HW230798  10.513   6.298   8.391
76301SOL     OW30799   0.378   1.310   9.249
76301SOL    HW130800   0.419   1.231   9.285
76301SOL    HW230801   0.386   1.299   9.154
76302SOL     OW30802   6.340  12.956   2.513
76302SOL    HW130803   6.408  12.930   2.575
76302SOL    HW230804   6.383  13.020   2.456
76303SOL     OW30805   4.110   3.918   5.478
76303SOL    HW130806   4.018   3.945   5.467
76303SOL    HW230807   4.151   3.991   5.525
76304SOL     OW30808   5.462   3.376   9.960
76304SOL    HW130809   5.542   3.373  10.013
76304SOL    HW230810   5.392   3.389  10.024
76305SOL     OW30811   6.121   0.291  13.158
76305SOL    HW130812   6.051   0.240  13.201
76305SOL    HW230813   6.197   0.233  13.160
76306SOL     OW30814   9.448   6.150  11.127
76306SOL    HW130815   9.464   6.209  11.200
76306SOL    HW230816   9.354   6.133  11.130
76307SOL     OW30817   0.857   6.571   5.778
76307SOL    HW130818   0.795   6.585   5.707
76307SOL    HW230819   0.926   6.635   5.762
76308SOL     OW30820  13.125   0.502   3.426
76308SOL    HW130821  13.037   0.526   3.397
76308SOL    HW230822  13.183   0.533   3.356
76309SOL     OW30823  14.527   2.975  10.613
76309SOL    HW130824  14.562   2.912  10.551
76309SOL    HW230825  14.468   3.030  10.562
76310SOL     OW30826   2.842  13.385  10.417
76310SOL    HW130827   2.930  13.348  10.409
76310SOL    HW230828   2.855  13.480  10.417
76311SOL     OW30829   5.132   8.654   4.201
76311SOL    HW130830   5.049   8.701   4.200
76311SOL    HW230831   5.113   8.572   4.247
76312SOL     OW30832  11.724   8.197   6.248
76312SOL    HW130833  11.793   8.249   6.207
76312SOL    HW230834  11.658   8.262   6.274
76313SOL     OW30835   5.599   6.908  11.884
76313SOL    HW130836   5.538   6.967  11.840
76313SOL    HW230837   5.652   6.965  11.939
76314SOL     OW30838  12.131   9.731   6.849
76314SOL    HW130839  12.064   9.668   6.875
76314SOL    HW230840  12.213   9.693   6.881
76315SOL     OW30841  14.199   4.751   6.302
76315SOL    HW130842  14.186   4.715   6.390
76315SOL    HW230843  14.143   4.829   6.300
76316SOL     OW30844  10.890   6.733  10.331
76316SOL    HW130845  10.871   6.820  10.297
76316SOL    HW230846  10.935   6.688  10.260
76317SOL     OW30847   5.580   1.895   8.755
76317SOL    HW130848   5.539   1.981   8.762
76317SOL    HW230849   5.512   1.840   8.713
76318SOL     OW30850   9.121   9.285   2.907
76318SOL    HW130851   9.205   9.249   2.880
76318SOL    HW230852   9.132   9.306   2.999
76319SOL     OW30853   0.829  12.368   7.496
76319SOL    HW130854   0.735  12.386   7.498
76319SOL    HW230855   0.837  12.282   7.456
76320SOL     OW30856  13.699   6.459   5.520
76320SOL    HW130857  13.750   6.388   5.558
76320SOL    HW230858  13.611   6.447   5.556
76321SOL     OW30859   8.837   4.225  12.570
76321SOL    HW130860   8.809   4.241  12.481
76321SOL    HW230861   8.825   4.131  12.583
76322SOL     OW30862  13.893  12.647   4.551
76322SOL    HW130863  13.877  12.602   4.634
76322SOL    HW230864  13.872  12.582   4.484
76323SOL     OW30865   8.735   8.900  10.406
76323SOL    HW130866   8.825   8.874  10.424
76323SOL    HW230867   8.719   8.872  10.316
76324SOL     OW30868   1.090   7.580  12.416
76324SOL    HW130869   1.037   7.585  12.337
76324SOL    HW230870   1.065   7.498  12.457
76325SOL     OW30871   9.848   6.129   4.667
76325SOL    HW130872   9.890   6.190   4.727
76325SOL    HW230873   9.823   6.182   4.591
76326SOL     OW30874  12.026   2.086   3.138
76326SOL    HW130875  12.072   2.142   3.201
76326SOL    HW230876  12.065   2.000   3.150
76327SOL     OW30877   7.040  13.007   4.800
76327SOL    HW130878   7.002  13.046   4.878
76327SOL    HW230879   6.978  12.940   4.773
76328SOL     OW30880   2.920   6.151   0.724
76328SOL    HW130881   3.004   6.180   0.687
76328SOL    HW230882   2.875   6.233   0.746
76329SOL     OW30883   4.693  13.556   0.995
76329SOL    HW130884   4.758  13.583   1.061
76329SOL    HW230885   4.616  13.610   1.014
76330SOL     OW30886   8.087  10.823  11.867
76330SOL    HW130887   7.998  10.810  11.835
76330SOL    HW230888   8.101  10.918  11.859
76331SOL     OW30889   6.814  14.786   9.228
76331SOL    HW130890   6.901  14.761   9.196
76331SOL    HW230891   6.799  14.727   9.302
76332SOL     OW30892  14.466   3.635   3.468
76332SOL    HW130893  14.536   3.697   3.453
76332SOL    HW230894  14.400   3.655   3.402
76333SOL     OW30895   5.862   3.242   0.789
76333SOL    HW130896   5.766   3.242   0.784
76333SOL    HW230897   5.885   3.151   0.807
76334SOL     OW30898   9.746  13.056  12.390
76334SOL    HW130899   9.830  13.011  12.378
76334SOL    HW230900   9.711  13.067  12.302
76335SOL     OW30901   5.314   5.707  10.638
76335SOL    HW130902   5.294   5.625  10.593
76335SOL    HW230903   5.377   5.751  10.581
76336SOL     OW30904   3.364   4.644  11.923
76336SOL    HW130905   3.454   4.673  11.911
76336SOL    HW230906   3.322   4.715  11.971
76337SOL     OW30907   9.155   2.966   8.595
76337SOL    HW130908   9.077   2.966   8.651
76337SOL    HW230909   9.155   3.053   8.554
76338SOL     OW30910   7.993   0.616  10.170
76338SOL    HW130911   7.946   0.544  10.213
76338SOL    HW230912   7.931   0.689  10.172
76339SOL     OW30913   4.481   6.843   7.494
76339SOL    HW130914   4.483   6.752   7.464
76339SOL    HW230915   4.398   6.851   7.541
76340SOL     OW30916   4.099  10.458  11.947
76340SOL    HW130917   4.130  10.433  11.860
76340SOL    HW230918   4.064  10.378  11.984
76341SOL     OW30919  12.428  14.876   0.876
76341SOL    HW130920  12.394   0.066   0.818
76341SOL    HW230921  12.426   0.038   0.963
76342SOL     OW30922  12.682  10.510   6.303
76342SOL    HW130923  12.688  10.462   6.220
76342SOL    HW230924  12.698  10.443   6.370
76343SOL     OW30925   4.160   9.092  12.173
76343SOL    HW130926   4.132   9.011  12.215
76343SOL    HW230927   4.251   9.074  12.147
76344SOL     OW30928  14.765   3.763   9.848
76344SOL    HW130929  14.823   3.704   9.800
76344SOL    HW230930  14.734   3.826   9.783
76345SOL     OW30931   7.588  12.826   9.193
76345SOL    HW130932   7.525  12.822   9.265
76345SOL    HW230933   7.553  12.893   9.135
76346SOL     OW30934   5.197   1.195  13.807
76346SOL    HW130935   5.144   1.125  13.844
76346SOL    HW230936   5.157   1.213  13.722
76347SOL     OW30937   5.509   9.905   7.347
76347SOL    HW130938   5.516   9.983   7.291
76347SOL    HW230939   5.563   9.926   7.423
76348SOL     OW30940   7.004  11.223   1.123
76348SOL    HW130941   6.920  11.256   1.093
76348SOL    HW230942   7.010  11.134   1.090
76349SOL     OW30943   6.502   0.164  13.356
76349SOL    HW130944   6.408   0.149  13.345
76349SOL    HW230945   6.522   0.235  13.294
76350SOL     OW30946   9.251  13.694  13.008
76350SOL    HW130947   9.298  13.611  13.002
76350SOL    HW230948   9.271  13.739  12.925
76351SOL     OW30949   7.128   6.928   0.016
76351SOL    HW130950   7.060   6.861   0.009
76351SOL    HW230951   7.145   6.954  14.803
76352SOL     OW30952   9.924   5.000  13.455
76352SOL    HW130953   9.984   4.939  13.411
76352SOL    HW230954   9.845   4.997  13.402
76353SOL     OW30955   2.967   1.559   2.546
76353SOL    HW130956   3.036   1.596   2.601
76353SOL    HW230957   3.004   1.478   2.511
76354SOL     OW30958   3.044   2.908   0.411
76354SOL    HW130959   3.063   2.858   0.491
76354SOL    HW230960   2.949   2.911   0.407
76355SOL     OW30961   4.576   8.859  12.413
76355SOL    HW130962   4.649   8.863  12.475
76355SOL    HW230963   4.545   8.769  12.419
76356SOL     OW30964  12.139   2.321   5.057
76356SOL    HW130965  12.122   2.258   4.988
76356SOL    HW230966  12.102   2.281   5.136
76357SOL     OW30967   2.944   4.841   6.219
76357SOL    HW130968   2.860   4.843   6.266
76357SOL    HW230969   2.985   4.924   6.239
76358SOL     OW30970   3.469   4.421   1.652
76358SOL    HW130971   3.436   4.425   1.742
76358SOL    HW230972   3.437   4.501   1.611
76359SOL     OW30973   4.252   7.522  13.581
76359SOL    HW130974   4.163   7.501  13.554
76359SOL    HW230975   4.241   7.584  13.654
76360SOL     OW30976  10.737   8.997   1.793
76360SOL    HW130977  10.824   8.958   1.803
76360SOL    HW230978  10.725   9.049   1.873
76361SOL     OW30979   0.688   5.989   7.191
76361SOL    HW130980   0.694   6.057   7.124
76361SOL    HW230981   0.779   5.961   7.203
76362SOL     OW30982  12.775   0.647  12.768
76362SOL    HW130983  12.861   0.606  12.756
76362SOL    HW230984  12.767   0.659  12.863
76363SOL     OW30985   3.053   7.704   7.404
76363SOL    HW130986   3.074   7.688   7.312
76363SOL    HW230987   3.065   7.799   7.414
76364SOL     OW30988  14.411   7.299  11.826
76364SOL    HW130989  14.453   7.364  11.881
76364SOL    HW230990  14.480   7.269  11.767
76365SOL     OW30991   7.569  11.841   7.052
76365SOL    HW130992   7.654  11.876   7.079
76365SOL    HW230993   7.590  11.760   7.005
76366SOL     OW30994   8.242   6.080   4.337
76366SOL    HW130995   8.213   6.087   4.246
76366SOL    HW230996   8.164   6.101   4.388
76367SOL     OW30997  12.029  13.322   3.905
76367SOL    HW130998  12.005  13.314   3.997
76367SOL    HW230999  12.046  13.416   3.892
76368SOL     OW31000  13.611   6.885  12.486
76368SOL    HW131001  13.620   6.824  12.560
76368SOL    HW231002  13.530   6.933  12.504
76369SOL     OW31003  11.513  10.199   4.247
76369SOL    HW131004  11.459  10.228   4.320
76369SOL    HW231005  11.474  10.242   4.170
76370SOL     OW31006  10.398  12.608   6.598
76370SOL    HW131007  10.338  12.669   6.640
76370SOL    HW231008  10.409  12.641   6.509
76371SOL     OW31009   5.190   4.221   1.833
76371SOL    HW131010   5.145   4.304   1.819
76371SOL    HW231011   5.194   4.181   1.746
76372SOL     OW31012   2.767   8.187  10.454
76372SOL    HW131013   2.785   8.218  10.543
76372SOL    HW231014   2.794   8.096  10.454
76373SOL     OW31015  10.312   2.720   9.157
76373SOL    HW131016  10.264   2.675   9.227
76373SOL    HW231017  10.343   2.650   9.100
76374SOL     OW31018   3.014   3.784   2.345
76374SOL    HW131019   3.030   3.871   2.380
76374SOL    HW231020   3.097   3.738   2.357
76375SOL     OW31021   1.936   5.222   4.248
76375SOL    HW131022   1.918   5.185   4.162
76375SOL    HW231023   1.911   5.154   4.310
76376SOL     OW31024   3.355   2.806   0.994
76376SOL    HW131025   3.267   2.811   1.030
76376SOL    HW231026   3.342   2.795   0.899
76377SOL     OW31027  12.076   3.210   7.655
76377SOL    HW131028  12.032   3.291   7.631
76377SOL    HW231029  12.142   3.197   7.586
76378SOL     OW31030   2.905   4.189   9.315
76378SOL    HW131031   2.996   4.159   9.307
76378SOL    HW231032   2.856   4.132   9.255
76379SOL     OW31033   0.286  14.072   6.453
76379SOL    HW131034   0.251  14.132   6.386
76379SOL    HW231035   0.221  14.076   6.524
76380SOL     OW31036   2.725   5.403   6.097
76380SOL    HW131037   2.758   5.457   6.170
76380SOL    HW231038   2.778   5.430   6.022
76381SOL     OW31039   0.012   3.245   1.317
76381SOL    HW131040   0.076   3.217   1.382
76381SOL    HW231041   0.062   3.248   1.235
76382SOL     OW31042  12.732   4.069   5.784
76382SOL    HW131043  12.674   4.021   5.843
76382SOL    HW231044  12.752   4.007   5.714
76383SOL     OW31045   5.130  14.061   9.636
76383SOL    HW131046   5.215  14.105   9.636
76383SOL    HW231047   5.100  14.069   9.545
76384SOL     OW31048  14.183  13.635   3.205
76384SOL    HW131049  14.089  13.637   3.222
76384SOL    HW231050  14.206  13.542   3.207
76385SOL     OW31051   4.994   1.326  13.087
76385SOL    HW131052   5.068   1.307  13.029
76385SOL    HW231053   4.999   1.258  13.154
76386SOL     OW31054   9.655  11.572   4.364
76386SOL    HW131055   9.662  11.626   4.443
76386SOL    HW231056   9.688  11.487   4.390
76387SOL     OW31057   6.925  13.529   4.648
76387SOL    HW131058   6.972  13.521   4.732
76387SOL    HW231059   6.859  13.596   4.664
76388SOL     OW31060  13.983   1.116  14.446
76388SOL    HW131061  13.923   1.045  14.424
76388SOL    HW231062  13.936   1.196  14.423
76389SOL     OW31063  12.188   6.274  11.918
76389SOL    HW131064  12.199   6.237  11.831
76389SOL    HW231065  12.097   6.256  11.941
76390SOL     OW31066   0.514   9.748   8.798
76390SOL    HW131067   0.541   9.681   8.861
76390SOL    HW231068   0.484   9.698   8.722
76391SOL     OW31069   2.355  11.279   6.295
76391SOL    HW131070   2.292  11.346   6.267
76391SOL    HW231071   2.389  11.312   6.378
76392SOL     OW31072   7.019   6.162  11.737
76392SOL    HW131073   7.059   6.243  11.704
76392SOL    HW231074   7.092   6.112  11.773
76393SOL     OW31075   4.011   6.675  12.009
76393SOL    HW131076   4.030   6.642  11.921
76393SOL    HW231077   3.991   6.597  12.060
76394SOL     OW31078   3.425   3.359  11.040
76394SOL    HW131079   3.474   3.284  11.074
76394SOL    HW231080   3.390   3.330  10.956
76395SOL     OW31081   1.817   7.615   2.906
76395SOL    HW131082   1.879   7.551   2.941
76395SOL    HW231083   1.851   7.637   2.819
76396SOL     OW31084   0.158   9.856   5.762
76396SOL    HW131085   0.121   9.870   5.675
76396SOL    HW231086   0.252   9.869   5.750
76397SOL     OW31087   9.218  11.431   0.503
76397SOL    HW131088   9.128  11.463   0.514
76397SOL    HW231089   9.244  11.463   0.417
76398SOL     OW31090   2.412   8.313   3.570
76398SOL    HW131091   2.475   8.291   3.501
76398SOL    HW231092   2.412   8.409   3.572
76399SOL     OW31093   8.356   1.637   0.228
76399SOL    HW131094   8.425   1.605   0.285
76399SOL    HW231095   8.399   1.702   0.172
76400SOL     OW31096  12.865   9.055   1.068
76400SOL    HW131097  12.939   9.098   1.024
76400SOL    HW231098  12.810   9.023   0.997
76401SOL     OW31099   9.976   0.855  11.127
76401SOL    HW131100   9.969   0.951  11.122
76401SOL    HW231101  10.053   0.839  11.182
76402SOL     OW31102   3.323  12.032   2.809
76402SOL    HW131103   3.418  12.031   2.798
76402SOL    HW231104   3.309  12.074   2.894
76403SOL     OW31105   8.359  13.738   2.038
76403SOL    HW131106   8.395  13.815   2.082
76403SOL    HW231107   8.278  13.769   1.998
76404SOL     OW31108  14.173  12.058  12.586
76404SOL    HW131109  14.138  12.046  12.498
76404SOL    HW231110  14.158  12.150  12.607
76405SOL     OW31111   7.822   2.396   2.191
76405SOL    HW131112   7.890   2.405   2.257
76405SOL    HW231113   7.758   2.465   2.212
76406SOL     OW31114   1.503   8.170  14.144
76406SOL    HW131115   1.524   8.158  14.237
76406SOL    HW231116   1.411   8.145  14.138
76407SOL     OW31117   9.125   1.539   2.051
76407SOL    HW131118   9.152   1.455   2.013
76407SOL    HW231119   9.160   1.604   1.990
76408SOL     OW31120   2.810   9.495   3.660
76408SOL    HW131121   2.819   9.579   3.705
76408SOL    HW231122   2.829   9.514   3.568
76409SOL     OW31123   3.232   4.735   5.314
76409SOL    HW131124   3.192   4.673   5.376
76409SOL    HW231125   3.163   4.799   5.297
76410SOL     OW31126   6.204   8.798   4.530
76410SOL    HW131127   6.162   8.882   4.512
76410SOL    HW231128   6.144   8.755   4.591
76411SOL     OW31129   0.725   8.364   8.349
76411SOL    HW131130   0.724   8.431   8.418
76411SOL    HW231131   0.770   8.407   8.276
76412SOL     OW31132   1.396   1.998   4.386
76412SOL    HW131133   1.397   2.022   4.479
76412SOL    HW231134   1.303   1.983   4.366
76413SOL     OW31135  11.760   0.579  14.806
76413SOL    HW131136  11.813   0.514  14.852
76413SOL    HW231137  11.671   0.567  14.840
76414SOL     OW31138  10.438  13.553   1.877
76414SOL    HW131139  10.397  13.636   1.854
76414SOL    HW231140  10.499  13.536   1.805
76415SOL     OW31141   1.180   6.892  13.097
76415SOL    HW131142   1.196   6.890  13.191
76415SOL    HW231143   1.240   6.826  13.062
76416SOL     OW31144   5.074   8.833   4.602
76416SOL    HW131145   5.028   8.870   4.677
76416SOL    HW231146   5.108   8.909   4.555
76417SOL     OW31147   3.550  10.455   8.209
76417SOL    HW131148   3.582  10.544   8.221
76417SOL    HW231149   3.543  10.419   8.298
76418SOL     OW31150   0.102  13.566  10.441
76418SOL    HW131151   0.128  13.612  10.361
76418SOL    HW231152   0.177  13.510  10.462
76419SOL     OW31153  13.903  14.226  14.360
76419SOL    HW131154  13.839  14.156  14.362
76419SOL    HW231155  13.915  14.250  14.452
76420SOL     OW31156   4.363   8.831  10.911
76420SOL    HW131157   4.349   8.737  10.923
76420SOL    HW231158   4.442   8.837  10.857
76421SOL     OW31159   4.326  11.704   2.968
76421SOL    HW131160   4.352  11.616   2.994
76421SOL    HW231161   4.253  11.726   3.026
76422SOL     OW31162   1.226  13.028  10.332
76422SOL    HW131163   1.158  12.964  10.309
76422SOL    HW231164   1.263  12.995  10.414
76423SOL     OW31165   7.534  11.966  13.279
76423SOL    HW131166   7.534  12.040  13.339
76423SOL    HW231167   7.551  12.004  13.193
76424SOL     OW31168   7.776  11.503   2.790
76424SOL    HW131169   7.871  11.512   2.803
76424SOL    HW231170   7.742  11.590   2.808
76425SOL     OW31171   9.055  10.667  12.127
76425SOL    HW131172   9.022  10.578  12.117
76425SOL    HW231173   9.033  10.710  12.045
76426SOL     OW31174   2.028   7.706  11.870
76426SOL    HW131175   1.995   7.679  11.784
76426SOL    HW231176   2.013   7.630  11.926
76427SOL     OW31177  10.694   5.575  11.643
76427SOL    HW131178  10.746   5.653  11.663
76427SOL    HW231179  10.622   5.577  11.706
76428SOL     OW31180   3.135   5.040   2.348
76428SOL    HW131181   3.152   4.948   2.366
76428SOL    HW231182   3.162   5.085   2.428
76429SOL     OW31183   4.556  10.167   1.672
76429SOL    HW131184   4.510  10.247   1.646
76429SOL    HW231185   4.491  10.098   1.661
76430SOL     OW31186   3.378   0.845   2.510
76430SOL    HW131187   3.392   0.879   2.598
76430SOL    HW231188   3.451   0.784   2.496
76431SOL     OW31189  13.997   6.429   5.833
76431SOL    HW131190  14.049   6.355   5.864
76431SOL    HW231191  13.927   6.390   5.781
76432SOL     OW31192  11.812  10.919  13.845
76432SOL    HW131193  11.773  11.004  13.863
76432SOL    HW231194  11.768  10.859  13.906
76433SOL     OW31195   1.995  11.878  14.047
76433SOL    HW131196   1.908  11.915  14.061
76433SOL    HW231197   2.055  11.940  14.089
76434SOL     OW31198  12.924  11.145   8.494
76434SOL    HW131199  12.832  11.117   8.490
76434SOL    HW231200  12.960  11.099   8.569
76435SOL     OW31201   8.761   9.474   9.015
76435SOL    HW131202   8.753   9.379   9.023
76435SOL    HW231203   8.683   9.508   9.058
76436SOL     OW31204   7.622   0.721  11.347
76436SOL    HW131205   7.682   0.704  11.419
76436SOL    HW231206   7.674   0.706  11.268
76437SOL     OW31207   7.921   2.527   3.119
76437SOL    HW131208   7.847   2.581   3.092
76437SOL    HW231209   7.974   2.516   3.040
76438SOL     OW31210  14.200  10.013   2.003
76438SOL    HW131211  14.234  10.094   2.041
76438SOL    HW231212  14.144  10.042   1.931
76439SOL     OW31213  11.930   6.142   6.500
76439SOL    HW131214  11.844   6.140   6.459
76439SOL    HW231215  11.986   6.184   6.435
76440SOL     OW31216   9.162   2.471   5.596
76440SOL    HW131217   9.181   2.564   5.613
76440SOL    HW231218   9.075   2.471   5.556
76441SOL     OW31219   3.003   8.830  10.992
76441SOL    HW131220   3.073   8.891  10.966
76441SOL    HW231221   3.049   8.757  11.034
76442SOL     OW31222   4.648   8.731   7.638
76442SOL    HW131223   4.557   8.755   7.621
76442SOL    HW231224   4.644   8.674   7.714
76443SOL     OW31225   3.773  14.235   9.456
76443SOL    HW131226   3.827  14.265   9.529
76443SOL    HW231227   3.767  14.140   9.468
76444SOL     OW31228   4.066  13.108  12.564
76444SOL    HW131229   4.117  13.172  12.515
76444SOL    HW231230   4.015  13.160  12.626
76445SOL     OW31231  13.630   1.836  13.633
76445SOL    HW131232  13.635   1.926  13.599
76445SOL    HW231233  13.693   1.835  13.705
76446SOL     OW31234  12.848  13.454   5.461
76446SOL    HW131235  12.801  13.371   5.458
76446SOL    HW231236  12.867  13.474   5.370
76447SOL     OW31237   5.141  13.724  14.206
76447SOL    HW131238   5.214  13.774  14.242
76447SOL    HW231239   5.180  13.640  14.180
76448SOL     OW31240   4.082   8.680   7.880
76448SOL    HW131241   4.107   8.767   7.848
76448SOL    HW231242   4.125   8.673   7.965
76449SOL     OW31243  11.441  13.014   8.423
76449SOL    HW131244  11.526  13.040   8.460
76449SOL    HW231245  11.408  13.093   8.381
76450SOL     OW31246   6.405   5.680   6.873
76450SOL    HW131247   6.395   5.774   6.862
76450SOL    HW231248   6.435   5.670   6.964
76451SOL     OW31249   5.640   7.014  11.507
76451SOL    HW131250   5.666   7.026  11.599
76451SOL    HW231251   5.664   7.096  11.464
76452SOL     OW31252   0.251   2.021   0.636
76452SOL    HW131253   0.264   1.929   0.659
76452SOL    HW231254   0.188   2.019   0.564
76453SOL     OW31255   6.645   6.134   1.249
76453SOL    HW131256   6.731   6.176   1.248
76453SOL    HW231257   6.611   6.151   1.337
76454SOL     OW31258  13.430   7.686   0.174
76454SOL    HW131259  13.501   7.641   0.128
76454SOL    HW231260  13.473   7.753   0.226
76455SOL     OW31261   4.287   9.439   4.981
76455SOL    HW131262   4.358   9.500   5.001
76455SOL    HW231263   4.320   9.353   5.006
76456SOL     OW31264   8.390   3.823   1.500
76456SOL    HW131265   8.332   3.847   1.573
76456SOL    HW231266   8.478   3.824   1.538
76457SOL     OW31267  12.982  11.007   8.258
76457SOL    HW131268  13.031  10.958   8.323
76457SOL    HW231269  12.926  11.066   8.310
76458SOL     OW31270  14.473  12.086   3.998
76458SOL    HW131271  14.542  12.046   3.945
76458SOL    HW231272  14.519  12.153   4.049
76459SOL     OW31273  10.949   4.860   8.076
76459SOL    HW131274  10.869   4.909   8.054
76459SOL    HW231275  10.920   4.793   8.138
76460SOL     OW31276   3.752   2.767   0.448
76460SOL    HW131277   3.808   2.692   0.465
76460SOL    HW231278   3.664   2.730   0.436
76461SOL     OW31279   7.034   8.457   4.344
76461SOL    HW131280   6.980   8.391   4.387
76461SOL    HW231281   7.077   8.409   4.272
76462SOL     OW31282   3.487  13.901   8.009
76462SOL    HW131283   3.478  13.971   8.074
76462SOL    HW231284   3.573  13.915   7.970
76463SOL     OW31285  10.945   8.373   5.399
76463SOL    HW131286  10.871   8.430   5.381
76463SOL    HW231287  10.922   8.289   5.358
76464SOL     OW31288   9.234  11.717  13.117
76464SOL    HW131289   9.242  11.623  13.134
76464SOL    HW231290   9.139  11.734  13.115
76465SOL     OW31291   4.126   9.980   7.724
76465SOL    HW131292   4.034   9.982   7.752
76465SOL    HW231293   4.155   9.891   7.744
76466SOL     OW31294   0.034   0.268   9.991
76466SOL    HW131295   0.038   0.196  10.053
76466SOL    HW231296  14.852   0.331  10.030
76467SOL     OW31297   4.212   4.875   2.050
76467SOL    HW131298   4.271   4.834   2.114
76467SOL    HW231299   4.269   4.908   1.982
76468SOL     OW31300   4.360   8.554   4.877
76468SOL    HW131301   4.424   8.488   4.906
76468SOL    HW231302   4.413   8.624   4.840
76469SOL     OW31303  10.453   9.402   4.367
76469SOL    HW131304  10.375   9.455   4.384
76469SOL    HW231305  10.419   9.323   4.326
76470SOL     OW31306  13.799   5.147   4.999
76470SOL    HW131307  13.804   5.197   5.080
76470SOL    HW231308  13.705   5.135   4.984
76471SOL     OW31309   5.596   9.751   1.140
76471SOL    HW131310   5.548   9.674   1.108
76471SOL    HW231311   5.539   9.825   1.120
76472SOL     OW31312   7.977  11.339  11.406
76472SOL    HW131313   7.981  11.378  11.319
76472SOL    HW231314   8.008  11.249  11.394
76473SOL     OW31315   7.371   7.922   0.401
76473SOL    HW131316   7.437   7.876   0.453
76473SOL    HW231317   7.334   7.854   0.344
76474SOL     OW31318  14.357  10.750  13.728
76474SOL    HW131319  14.272  10.777  13.692
76474SOL    HW231320  14.347  10.656  13.744
76475SOL     OW31321   3.399   2.177   0.576
76475SOL    HW131322   3.395   2.108   0.509
76475SOL    HW231323   3.345   2.247   0.542
76476SOL     OW31324  12.252   0.513  11.739
76476SOL    HW131325  12.164   0.542  11.761
76476SOL    HW231326  12.270   0.554  11.654
76477SOL     OW31327  11.252   9.942   3.820
76477SOL    HW131328  11.282   9.863   3.774
76477SOL    HW231329  11.177   9.912   3.872
76478SOL     OW31330  10.695   3.171   8.897
76478SOL    HW131331  10.721   3.104   8.960
76478SOL    HW231332  10.754   3.244   8.914
76479SOL     OW31333   9.051  11.524   3.819
76479SOL    HW131334   9.031  11.468   3.744
76479SOL    HW231335   8.979  11.510   3.880
76480SOL     OW31336   0.185  14.586  13.729
76480SOL    HW131337   0.281  14.593  13.726
76480SOL    HW231338   0.164  14.523  13.661
76481SOL     OW31339   7.538   1.134   8.656
76481SOL    HW131340   7.584   1.214   8.681
76481SOL    HW231341   7.607   1.070   8.642
76482SOL     OW31342  13.406   4.898   5.252
76482SOL    HW131343  13.391   4.987   5.219
76482SOL    HW231344  13.500   4.895   5.268
76483SOL     OW31345   7.679   2.440   7.201
76483SOL    HW131346   7.700   2.387   7.123
76483SOL    HW231347   7.602   2.398   7.238
76484SOL     OW31348   4.125   1.860   1.843
76484SOL    HW131349   4.130   1.833   1.934
76484SOL    HW231350   4.073   1.791   1.801
76485SOL     OW31351   8.203   5.051   3.531
76485SOL    HW131352   8.201   5.009   3.617
76485SOL    HW231353   8.127   5.109   3.530
76486SOL     OW31354  11.020  14.250  12.635
76486SOL    HW131355  11.008  14.267  12.541
76486SOL    HW231356  10.938  14.279  12.675
76487SOL     OW31357   4.063  14.043  10.541
76487SOL    HW131358   4.071  13.974  10.607
76487SOL    HW231359   4.071  13.998  10.457
76488SOL     OW31360  12.172   6.674   8.778
76488SOL    HW131361  12.185   6.685   8.873
76488SOL    HW231362  12.258   6.646   8.746
76489SOL     OW31363  14.691   3.250   1.113
76489SOL    HW131364  14.749   3.256   1.189
76489SOL    HW231365  14.610   3.293   1.140
76490SOL     OW31366  13.289   1.013  11.393
76490SOL    HW131367  13.358   0.980  11.450
76490SOL    HW231368  13.260   0.936  11.344
76491SOL     OW31369   8.797   5.215   6.981
76491SOL    HW131370   8.720   5.175   7.021
76491SOL    HW231371   8.784   5.309   6.992
76492SOL     OW31372  13.418   6.022  10.889
76492SOL    HW131373  13.446   6.033  10.799
76492SOL    HW231374  13.482   5.962  10.927
76493SOL     OW31375   6.323  11.620  13.488
76493SOL    HW131376   6.346  11.687  13.553
76493SOL    HW231377   6.256  11.661  13.434
76494SOL     OW31378   6.675   9.658   8.777
76494SOL    HW131379   6.689   9.563   8.781
76494SOL    HW231380   6.702   9.691   8.862
76495SOL     OW31381   6.486   8.514  12.165
76495SOL    HW131382   6.480   8.443  12.101
76495SOL    HW231383   6.395   8.541  12.180
76496SOL     OW31384   2.574   4.317  10.619
76496SOL    HW131385   2.548   4.246  10.559
76496SOL    HW231386   2.637   4.276  10.678
76497SOL     OW31387   5.134  13.092  14.650
76497SOL    HW131388   5.158  13.038  14.575
76497SOL    HW231389   5.215  13.133  14.678
76498SOL     OW31390   3.513  10.691   1.791
76498SOL    HW131391   3.590  10.657   1.839
76498SOL    HW231392   3.517  10.786   1.803
76499SOL     OW31393  13.357  13.896   1.270
76499SOL    HW131394  13.281  13.864   1.223
76499SOL    HW231395  13.432  13.867   1.217
76500SOL     OW31396   0.215   7.584   6.997
76500SOL    HW131397   0.309   7.595   6.983
76500SOL    HW231398   0.198   7.493   6.976
76501SOL     OW31399   8.688   7.552   3.256
76501SOL    HW131400   8.703   7.554   3.161
76501SOL    HW231401   8.774   7.537   3.294
76502SOL     OW31402   9.640   2.225   5.962
76502SOL    HW131403   9.714   2.164   5.973
76502SOL    HW231404   9.563   2.168   5.959
76503SOL     OW31405   3.190   5.071   9.083
76503SOL    HW131406   3.237   5.025   9.013
76503SOL    HW231407   3.260   5.103   9.141
76504SOL     OW31408   1.286  12.125   1.282
76504SOL    HW131409   1.252  12.043   1.249
76504SOL    HW231410   1.306  12.176   1.204
76505SOL     OW31411   7.816   6.246   6.883
76505SOL    HW131412   7.789   6.224   6.972
76505SOL    HW231413   7.735   6.257   6.835
76506SOL     OW31414   9.825   2.937   7.697
76506SOL    HW131415   9.779   2.894   7.624
76506SOL    HW231416   9.814   3.031   7.681
76507SOL     OW31417   3.146   2.551   6.390
76507SOL    HW131418   3.058   2.543   6.425
76507SOL    HW231419   3.154   2.644   6.367
76508SOL     OW31420   2.690   0.220   2.531
76508SOL    HW131421   2.725   0.139   2.568
76508SOL    HW231422   2.720   0.220   2.440
76509SOL     OW31423  14.446   5.531  12.009
76509SOL    HW131424  14.446   5.535  12.104
76509SOL    HW231425  14.537   5.509  11.986
76510SOL     OW31426  11.167   1.737   8.658
76510SOL    HW131427  11.215   1.776   8.730
76510SOL    HW231428  11.119   1.664   8.698
76511SOL     OW31429  10.942   8.196   0.118
76511SOL    HW131430  10.899   8.124   0.072
76511SOL    HW231431  11.033   8.166   0.128
76512SOL     OW31432   6.791   1.986  10.891
76512SOL    HW131433   6.709   1.996  10.939
76512SOL    HW231434   6.849   2.052  10.927
76513SOL     OW31435   8.157   0.228   3.838
76513SOL    HW131436   8.244   0.218   3.801
76513SOL    HW231437   8.165   0.195   3.928
76514SOL     OW31438   7.967   3.890   4.578
76514SOL    HW131439   7.990   3.826   4.511
76514SOL    HW231440   7.924   3.961   4.531
76515SOL     OW31441  13.831  10.210   5.859
76515SOL    HW131442  13.790  10.134   5.819
76515SOL    HW231443  13.765  10.279   5.853
76516SOL     OW31444  13.947   1.560   6.247
76516SOL    HW131445  14.029   1.591   6.208
76516SOL    HW231446  13.969   1.474   6.283
76517SOL     OW31447   9.995   3.252   4.428
76517SOL    HW131448  10.033   3.231   4.513
76517SOL    HW231449  10.066   3.292   4.379
76518SOL     OW31450  12.820  10.625   3.168
76518SOL    HW131451  12.888  10.693   3.160
76518SOL    HW231452  12.779  10.643   3.253
76519SOL     OW31453   4.306  10.189  11.871
76519SOL    HW131454   4.394  10.223  11.860
76519SOL    HW231455   4.319  10.097  11.894
76520SOL     OW31456  12.942   1.127   1.808
76520SOL    HW131457  12.914   1.130   1.900
76520SOL    HW231458  12.994   1.206   1.797
76521SOL     OW31459   4.186   8.447   0.919
76521SOL    HW131460   4.271   8.414   0.892
76521SOL    HW231461   4.156   8.500   0.845
76522SOL     OW31462   4.128  11.054   3.965
76522SOL    HW131463   4.163  10.968   3.987
76522SOL    HW231464   4.097  11.045   3.875
76523SOL     OW31465   5.119  14.873   6.736
76523SOL    HW131466   5.056  14.835   6.798
76523SOL    HW231467   5.116   0.089   6.754
76524SOL     OW31468   9.244   3.906   2.261
76524SOL    HW131469   9.273   3.977   2.205
76524SOL    HW231470   9.165   3.940   2.304
76525SOL     OW31471   5.076   9.116   0.623
76525SOL    HW131472   5.123   9.168   0.689
76525SOL    HW231473   5.060   9.033   0.667
76526SOL     OW31474   6.797   2.702   1.964
76526SOL    HW131475   6.808   2.748   2.048
76526SOL    HW231476   6.733   2.754   1.917
76527SOL     OW31477  12.271   1.257   5.544
76527SOL    HW131478  12.262   1.261   5.449
76527SOL    HW231479  12.183   1.276   5.577
76528SOL     OW31480   9.616  13.573  12.749
76528SOL    HW131481   9.645  13.530  12.669
76528SOL    HW231482   9.684  13.551  12.814
76529SOL     OW31483   0.639   3.932   2.294
76529SOL    HW131484   0.608   4.023   2.303
76529SOL    HW231485   0.590   3.898   2.219
76530SOL     OW31486   1.914  12.299   1.765
76530SOL    HW131487   1.843  12.309   1.701
76530SOL    HW231488   1.889  12.221   1.815
76531SOL     OW31489  14.226  13.568   5.706
76531SOL    HW131490  14.154  13.525   5.661
76531SOL    HW231491  14.288  13.591   5.636
76532SOL     OW31492   3.226   6.219  10.693
76532SOL    HW131493   3.148   6.191  10.645
76532SOL    HW231494   3.297   6.167  10.656
76533SOL     OW31495   5.055  12.293   0.375
76533SOL    HW131496   5.058  12.261   0.465
76533SOL    HW231497   5.147  12.302   0.349
76534SOL     OW31498  13.435  13.890   9.400
76534SOL    HW131499  13.372  13.939   9.347
76534SOL    HW231500  13.502  13.955   9.423
76535SOL     OW31501   8.853   6.142   5.388
76535SOL    HW131502   8.938   6.139   5.345
76535SOL    HW231503   8.791   6.164   5.318
76536SOL     OW31504   1.050   5.461  13.732
76536SOL    HW131505   1.089   5.379  13.762
76536SOL    HW231506   1.124   5.511  13.697
76537SOL     OW31507   0.127   9.502   1.978
76537SOL    HW131508   0.114   9.421   2.028
76537SOL    HW231509   0.102   9.572   2.038
76538SOL     OW31510   2.200   8.037   2.335
76538SOL    HW131511   2.183   7.951   2.297
76538SOL    HW231512   2.235   8.089   2.263
76539SOL     OW31513  12.651   3.874  13.192
76539SOL    HW131514  12.744   3.893  13.196
76539SOL    HW231515  12.608   3.948  13.235
76540SOL     OW31516  13.714   9.778   3.952
76540SOL    HW131517  13.741   9.858   3.907
76540SOL    HW231518  13.618   9.780   3.949
76541SOL     OW31519  13.049   8.082   7.777
76541SOL    HW131520  13.106   8.147   7.735
76541SOL    HW231521  12.960   8.116   7.764
76542SOL     OW31522  11.894   2.210   6.278
76542SOL    HW131523  11.872   2.120   6.255
76542SOL    HW231524  11.935   2.203   6.364
76543SOL     OW31525  13.199   8.491  13.419
76543SOL    HW131526  13.255   8.566  13.400
76543SOL    HW231527  13.113   8.515  13.383
76544SOL     OW31528   7.801   3.784  10.633
76544SOL    HW131529   7.875   3.724  10.624
76544SOL    HW231530   7.742   3.739  10.693
76545SOL     OW31531   0.878  10.900  12.446
76545SOL    HW131532   0.966  10.863  12.453
76545SOL    HW231533   0.871  10.928  12.355
76546SOL     OW31534   7.856  13.831   2.598
76546SOL    HW131535   7.892  13.743   2.608
76546SOL    HW231536   7.933  13.887   2.592
76547SOL     OW31537  12.728   1.285   1.269
76547SOL    HW131538  12.754   1.250   1.184
76547SOL    HW231539  12.666   1.220   1.303
76548SOL     OW31540  14.819   5.363  14.535
76548SOL    HW131541  14.761   5.389  14.606
76548SOL    HW231542   0.002   5.301  14.574
76549SOL     OW31543   5.794   2.515  11.330
76549SOL    HW131544   5.848   2.534  11.407
76549SOL    HW231545   5.727   2.455  11.362
76550SOL     OW31546  14.635  13.388  12.017
76550SOL    HW131547  14.701  13.320  12.002
76550SOL    HW231548  14.686  13.466  12.037
76551SOL     OW31549   7.254   8.127   3.141
76551SOL    HW131550   7.242   8.216   3.172
76551SOL    HW231551   7.305   8.136   3.060
76552SOL     OW31552  10.069   9.451  13.609
76552SOL    HW131553  10.033   9.516  13.548
76552SOL    HW231554  10.035   9.367  13.578
76553SOL     OW31555  12.718   3.277   4.931
76553SOL    HW131556  12.663   3.352   4.909
76553SOL    HW231557  12.723   3.227   4.850
76554SOL     OW31558  13.730   7.859  11.278
76554SOL    HW131559  13.701   7.854  11.187
76554SOL    HW231560  13.821   7.830  11.276
76555SOL     OW31561  14.069   8.020  11.034
76555SOL    HW131562  13.993   7.963  11.043
76555SOL    HW231563  14.032   8.105  11.008
76556SOL     OW31564   7.454  10.464  14.115
76556SOL    HW131565   7.459  10.405  14.039
76556SOL    HW231566   7.369  10.446  14.154
76557SOL     OW31567   9.931   5.602  12.031
76557SOL    HW131568   9.929   5.516  12.073
76557SOL    HW231569   9.845   5.610  11.988
76558SOL     OW31570   3.791   5.733   7.551
76558SOL    HW131571   3.856   5.798   7.579
76558SOL    HW231572   3.818   5.652   7.595
76559SOL     OW31573   7.835   0.751   9.364
76559SOL    HW131574   7.893   0.685   9.326
76559SOL    HW231575   7.868   0.763   9.454
76560SOL     OW31576   4.857   2.275  14.218
76560SOL    HW131577   4.799   2.210  14.178
76560SOL    HW231578   4.921   2.295  14.149
76561SOL     OW31579   6.801  12.991   8.426
76561SOL    HW131580   6.766  12.919   8.480
76561SOL    HW231581   6.846  12.947   8.354
76562SOL     OW31582   6.559   2.171   9.817
76562SOL    HW131583   6.476   2.177   9.769
76562SOL    HW231584   6.598   2.089   9.785
76563SOL     OW31585   2.225   7.316   5.943
76563SOL    HW131586   2.277   7.289   5.867
76563SOL    HW231587   2.291   7.345   6.006
76564SOL     OW31588   9.425  11.107   0.629
76564SOL    HW131589   9.370  11.100   0.550
76564SOL    HW231590   9.420  11.199   0.653
76565SOL     OW31591   8.813  13.919   7.813
76565SOL    HW131592   8.776  13.911   7.901
76565SOL    HW231593   8.903  13.889   7.822
76566SOL     OW31594   8.662  14.847   8.398
76566SOL    HW131595   8.741  14.794   8.395
76566SOL    HW231596   8.596  14.790   8.437
76567SOL     OW31597   1.955   6.672   5.897
76567SOL    HW131598   1.864   6.670   5.927
76567SOL    HW231599   2.005   6.637   5.971
76568SOL     OW31600   4.719   7.940  12.983
76568SOL    HW131601   4.722   8.036  12.987
76568SOL    HW231602   4.809   7.913  12.999
76569SOL     OW31603  10.870  14.831   4.475
76569SOL    HW131604  10.781  14.801   4.494
76569SOL    HW231605  10.908  14.849   4.561
76570SOL     OW31606   3.549   6.471   8.700
76570SOL    HW131607   3.521   6.558   8.674
76570SOL    HW231608   3.605   6.440   8.629
76571SOL     OW31609   0.559   0.363   2.477
76571SOL    HW131610   0.569   0.442   2.424
76571SOL    HW231611   0.586   0.292   2.419
76572SOL     OW31612  13.648   8.663  14.335
76572SOL    HW131613  13.631   8.749  14.297
76572SOL    HW231614  13.561   8.623  14.345
76573SOL     OW31615   0.234  12.766  11.354
76573SOL    HW131616   0.196  12.732  11.435
76573SOL    HW231617   0.181  12.843  11.332
76574SOL     OW31618  11.853   5.838   0.329
76574SOL    HW131619  11.915   5.896   0.374
76574SOL    HW231620  11.802   5.896   0.273
76575SOL     OW31621   2.267   5.146   5.058
76575SOL    HW131622   2.306   5.233   5.070
76575SOL    HW231623   2.221   5.153   4.974
76576SOL     OW31624   0.234   1.218   8.385
76576SOL    HW131625   0.298   1.146   8.377
76576SOL    HW231626   0.221   1.228   8.479
76577SOL     OW31627  12.903   6.107   4.778
76577SOL    HW131628  12.825   6.092   4.724
76577SOL    HW231629  12.976   6.100   4.718
76578SOL     OW31630  12.507  13.023  11.572
76578SOL    HW131631  12.449  13.073  11.629
76578SOL    HW231632  12.462  12.940  11.559
76579SOL     OW31633   4.596   4.720   9.456
76579SOL    HW131634   4.677   4.671   9.442
76579SOL    HW231635   4.527   4.653   9.455
76580SOL     OW31636   5.272   4.800  12.493
76580SOL    HW131637   5.291   4.861  12.565
76580SOL    HW231638   5.289   4.714  12.531
76581SOL     OW31639   5.907   7.400   6.896
76581SOL    HW131640   5.890   7.350   6.816
76581SOL    HW231641   5.828   7.388   6.949
76582SOL     OW31642   3.076  13.314  12.943
76582SOL    HW131643   3.017  13.270  12.881
76582SOL    HW231644   3.112  13.243  12.996
76583SOL     OW31645  13.902  13.542   3.668
76583SOL    HW131646  13.927  13.628   3.633
76583SOL    HW231647  13.820  13.558   3.714
76584SOL     OW31648  13.385   5.326   9.617
76584SOL    HW131649  13.403   5.420   9.608
76584SOL    HW231650  13.371   5.314   9.711
76585SOL     OW31651   5.111   7.993  12.130
76585SOL    HW131652   5.155   7.920  12.173
76585SOL    HW231653   5.020   7.967  12.124
76586SOL     OW31654  14.854  11.479   3.004
76586SOL    HW131655  14.787  11.417   2.976
76586SOL    HW231656   0.059  11.437   2.978
76587SOL     OW31657   4.886  13.178   0.960
76587SOL    HW131658   4.973  13.152   0.929
76587SOL    HW231659   4.865  13.258   0.911
76588SOL     OW31660  11.723   5.362  12.161
76588SOL    HW131661  11.665   5.438  12.165
76588SOL    HW231662  11.771   5.372  12.079
76589SOL     OW31663  11.714  12.009   4.650
76589SOL    HW131664  11.783  12.075   4.647
76589SOL    HW231665  11.726  11.959   4.570
76590SOL     OW31666   0.017   8.527   0.772
76590SOL    HW131667   0.035   8.589   0.701
76590SOL    HW231668  14.802   8.539   0.792
76591SOL     OW31669  14.822   3.816   0.800
76591SOL    HW131670  14.757   3.808   0.730
76591SOL    HW231671  14.857   3.727   0.810
76592SOL     OW31672  11.222   0.288   8.158
76592SOL    HW131673  11.269   0.310   8.077
76592SOL    HW231674  11.292   0.272   8.222
76593SOL     OW31675  14.356   3.127   9.275
76593SOL    HW131676  14.399   3.200   9.230
76593SOL    HW231677  14.331   3.162   9.360
76594SOL     OW31678   7.146  13.282   1.036
76594SOL    HW131679   7.060  13.316   1.064
76594SOL    HW231680   7.146  13.294   0.941
76595SOL     OW31681   5.405   0.568   3.543
76595SOL    HW131682   5.457   0.643   3.569
76595SOL    HW231683   5.462   0.492   3.559
76596SOL     OW31684   6.653  11.656   0.554
76596SOL    HW131685   6.560  11.642   0.542
76596SOL    HW231686   6.659  11.715   0.629
76597SOL     OW31687  14.244  12.028  11.775
76597SOL    HW131688  14.179  11.967  11.810
76597SOL    HW231689  14.196  12.109  11.762
76598SOL     OW31690  12.772   6.462   2.579
76598SOL    HW131691  12.777   6.520   2.655
76598SOL    HW231692  12.852   6.410   2.583
76599SOL     OW31693   3.273   4.313  11.992
76599SOL    HW131694   3.234   4.373  12.056
76599SOL    HW231695   3.200   4.285  11.937
76600SOL     OW31696  10.517  10.244   4.138
76600SOL    HW131697  10.441  10.186   4.141
76600SOL    HW231698  10.575  10.205   4.074
76601SOL     OW31699   8.069  13.225  13.013
76601SOL    HW131700   8.157  13.190  13.022
76601SOL    HW231701   8.012  13.153  13.038
76602SOL     OW31702  12.515   9.382   1.398
76602SOL    HW131703  12.432   9.342   1.373
76602SOL    HW231704  12.517   9.465   1.350
76603SOL     OW31705   0.809   2.201   7.500
76603SOL    HW131706   0.753   2.174   7.573
76603SOL    HW231707   0.799   2.296   7.496
76604SOL     OW31708   2.437  12.073   8.861
76604SOL    HW131709   2.383  12.082   8.782
76604SOL    HW231710   2.527  12.082   8.830
76605SOL     OW31711   6.109  12.845   3.492
76605SOL    HW131712   6.171  12.777   3.465
76605SOL    HW231713   6.146  12.880   3.573
76606SOL     OW31714   7.821   4.290  11.861
76606SOL    HW131715   7.794   4.312  11.772
76606SOL    HW231716   7.887   4.357  11.882
76607SOL     OW31717   5.995   4.005  11.065
76607SOL    HW131718   5.941   4.051  11.130
76607SOL    HW231719   5.938   3.937  11.030
76608SOL     OW31720   2.723   8.567  14.500
76608SOL    HW131721   2.750   8.475  14.505
76608SOL    HW231722   2.787   8.608  14.442
76609SOL     OW31723   8.030   1.258   0.885
76609SOL    HW131724   7.966   1.277   0.955
76609SOL    HW231725   8.078   1.339   0.874
76610SOL     OW31726   4.006  14.876  10.776
76610SOL    HW131727   4.010   0.073  10.836
76610SOL    HW231728   3.927   0.015  10.723
76611SOL     OW31729  10.287   2.566   2.110
76611SOL    HW131730  10.292   2.475   2.079
76611SOL    HW231731  10.197   2.593   2.089
76612SOL     OW31732   3.057  10.652  11.738
76612SOL    HW131733   3.019  10.726  11.690
76612SOL    HW231734   2.981  10.604  11.770
76613SOL     OW31735  14.589   2.378   5.851
76613SOL    HW131736  14.640   2.457   5.868
76613SOL    HW231737  14.579   2.375   5.756
76614SOL     OW31738   5.953   7.532   4.966
76614SOL    HW131739   5.942   7.482   5.047
76614SOL    HW231740   6.037   7.575   4.976
76615SOL     OW31741  14.485   6.390  12.322
76615SOL    HW131742  14.428   6.335  12.375
76615SOL    HW231743  14.466   6.479  12.352
76616SOL     OW31744  13.028   8.089  10.567
76616SOL    HW131745  13.034   8.153  10.637
76616SOL    HW231746  13.015   8.005  10.613
76617SOL     OW31747  13.184   7.218   7.684
76617SOL    HW131748  13.132   7.265   7.750
76617SOL    HW231749  13.228   7.149   7.733
76618SOL     OW31750   7.642   9.863   3.757
76618SOL    HW131751   7.719   9.918   3.743
76618SOL    HW231752   7.672   9.794   3.816
76619SOL     OW31753  10.230   4.075  10.086
76619SOL    HW131754  10.244   4.002  10.147
76619SOL    HW231755  10.196   4.146  10.141
76620SOL     OW31756  11.429  10.058   7.141
76620SOL    HW131757  11.482  10.132   7.170
76620SOL    HW231758  11.481  10.017   7.072
76621SOL     OW31759   3.466  13.225  13.105
76621SOL    HW131760   3.508  13.142  13.083
76621SOL    HW231761   3.483  13.281  13.028
76622SOL     OW31762   0.718   5.188   9.160
76622SOL    HW131763   0.717   5.110   9.216
76622SOL    HW231764   0.781   5.166   9.091
76623SOL     OW31765   7.978   2.465   0.655
76623SOL    HW131766   8.048   2.408   0.624
76623SOL    HW231767   8.001   2.483   0.746
76624SOL     OW31768   8.718   3.617   0.857
76624SOL    HW131769   8.798   3.585   0.900
76624SOL    HW231770   8.689   3.544   0.803
76625SOL     OW31771   1.340   1.376   9.080
76625SOL    HW131772   1.414   1.385   9.021
76625SOL    HW231773   1.361   1.435   9.153
76626SOL     OW31774  10.896   4.300  14.015
76626SOL    HW131775  10.822   4.261  14.061
76626SOL    HW231776  10.894   4.392  14.040
76627SOL     OW31777   0.378   7.420  13.697
76627SOL    HW131778   0.340   7.408  13.784
76627SOL    HW231779   0.409   7.332  13.673
76628SOL     OW31780   1.255   6.618   1.181
76628SOL    HW131781   1.270   6.550   1.115
76628SOL    HW231782   1.159   6.625   1.186
76629SOL     OW31783  10.809  11.943   3.848
76629SOL    HW131784  10.739  11.985   3.897
76629SOL    HW231785  10.887  11.995   3.867
76630SOL     OW31786  12.607   8.456  13.886
76630SOL    HW131787  12.583   8.494  13.801
76630SOL    HW231788  12.680   8.398  13.866
76631SOL     OW31789  14.370  11.608   2.861
76631SOL    HW131790  14.326  11.643   2.939
76631SOL    HW231791  14.400  11.521   2.887
76632SOL     OW31792  11.377  11.764  10.920
76632SOL    HW131793  11.315  11.750  10.992
76632SOL    HW231794  11.416  11.678  10.905
76633SOL     OW31795   3.731   3.716  13.342
76633SOL    HW131796   3.800   3.675  13.394
76633SOL    HW231797   3.671   3.752  13.407
76634SOL     OW31798   8.552   3.540   2.707
76634SOL    HW131799   8.629   3.564   2.760
76634SOL    HW231800   8.522   3.458   2.746
76635SOL     OW31801   7.568  13.568   6.239
76635SOL    HW131802   7.554  13.654   6.277
76635SOL    HW231803   7.652  13.575   6.193
76636SOL     OW31804   9.356   3.456   0.899
76636SOL    HW131805   9.311   3.388   0.850
76636SOL    HW231806   9.397   3.512   0.832
76637SOL     OW31807   0.545  13.245  11.027
76637SOL    HW131808   0.629  13.217  11.062
76637SOL    HW231809   0.487  13.170  11.040
76638SOL     OW31810   1.830  13.617  13.776
76638SOL    HW131811   1.863  13.633  13.687
76638SOL    HW231812   1.848  13.699  13.823
76639SOL     OW31813  14.132   9.309   3.044
76639SOL    HW131814  14.215   9.260   3.050
76639SOL    HW231815  14.130   9.362   3.123
76640SOL     OW31816  13.464   2.699   0.061
76640SOL    HW131817  13.512   2.699  14.856
76640SOL    HW231818  13.481   2.785   0.100
76641SOL     OW31819   0.831  11.350   7.421
76641SOL    HW131820   0.832  11.433   7.470
76641SOL    HW231821   0.895  11.363   7.351
76642SOL     OW31822  11.662  14.022   0.076
76642SOL    HW131823  11.647  14.116   0.066
76642SOL    HW231824  11.591  13.982   0.026
76643SOL     OW31825   6.817  14.848   3.644
76643SOL    HW131826   6.848  14.776   3.699
76643SOL    HW231827   6.768  14.805   3.574
76644SOL     OW31828   5.367   0.660   4.734
76644SOL    HW131829   5.430   0.599   4.695
76644SOL    HW231830   5.282   0.627   4.706
76645SOL     OW31831   2.115   1.363  11.713
76645SOL    HW131832   2.210   1.350  11.702
76645SOL    HW231833   2.077   1.332  11.630
76646SOL     OW31834   6.494  11.702  12.118
76646SOL    HW131835   6.525  11.793  12.114
76646SOL    HW231836   6.445  11.691  12.036
76647SOL     OW31837   9.063   6.828   4.636
76647SOL    HW131838   8.971   6.818   4.659
76647SOL    HW231839   9.081   6.922   4.649
76648SOL     OW31840   3.966   3.971   1.890
76648SOL    HW131841   3.926   3.886   1.870
76648SOL    HW231842   3.928   4.031   1.825
76649SOL     OW31843   2.355   5.874  11.955
76649SOL    HW131844   2.403   5.792  11.968
76649SOL    HW231845   2.401   5.919  11.885
76650SOL     OW31846   9.767   5.027   1.851
76650SOL    HW131847   9.672   5.032   1.838
76650SOL    HW231848   9.803   5.016   1.763
76651SOL     OW31849   2.222  13.673   4.006
76651SOL    HW131850   2.195  13.760   4.035
76651SOL    HW231851   2.199  13.615   4.079
76652SOL     OW31852   4.454   2.900  14.312
76652SOL    HW131853   4.514   2.925  14.242
76652SOL    HW231854   4.398   2.977  14.324
76653SOL     OW31855   9.354   0.893   4.805
76653SOL    HW131856   9.351   0.869   4.898
76653SOL    HW231857   9.273   0.859   4.768
76654SOL     OW31858   2.938   0.698   3.143
76654SOL    HW131859   2.944   0.642   3.220
76654SOL    HW231860   2.955   0.640   3.069
76655SOL     OW31861   9.050   8.149   5.189
76655SOL    HW131862   8.968   8.185   5.223
76655SOL    HW231863   9.045   8.166   5.094
76656SOL     OW31864  13.220   2.635   3.103
76656SOL    HW131865  13.149   2.658   3.043
76656SOL    HW231866  13.180   2.644   3.190
76657SOL     OW31867   9.437   4.132  10.823
76657SOL    HW131868   9.401   4.044  10.833
76657SOL    HW231869   9.503   4.140  10.892
76658SOL     OW31870   9.764  12.360   3.268
76658SOL    HW131871   9.778  12.267   3.253
76658SOL    HW231872   9.715  12.390   3.192
76659SOL     OW31873  13.227   9.633   2.275
76659SOL    HW131874  13.277   9.652   2.196
76659SOL    HW231875  13.243   9.708   2.332
76660SOL     OW31876   6.633   0.031   5.633
76660SOL    HW131877   6.626   0.006   5.541
76660SOL    HW231878   6.697  14.847   5.669
76661SOL     OW31879   1.952   7.704  13.105
76661SOL    HW131880   1.929   7.723  13.196
76661SOL    HW231881   2.046   7.687  13.107
76662SOL     OW31882   7.649  14.260   4.519
76662SOL    HW131883   7.635  14.271   4.613
76662SOL    HW231884   7.654  14.165   4.506
76663SOL     OW31885   4.700   5.381   1.729
76663SOL    HW131886   4.739   5.302   1.764
76663SOL    HW231887   4.697   5.442   1.803
76664SOL     OW31888   0.735  14.172   6.777
76664SOL    HW131889   0.763  14.174   6.685
76664SOL    HW231890   0.640  14.178   6.773
76665SOL     OW31891   5.178   2.849  10.765
76665SOL    HW131892   5.139   2.859  10.852
76665SOL    HW231893   5.269   2.877  10.776
76666SOL     OW31894  14.535  13.572   9.549
76666SOL    HW131895  14.555  13.487   9.511
76666SOL    HW231896  14.603  13.586   9.615
76667SOL     OW31897   6.058   8.561   1.668
76667SOL    HW131898   6.042   8.578   1.575
76667SOL    HW231899   6.130   8.498   1.669
76668SOL     OW31900   4.669   5.224  13.500
76668SOL    HW131901   4.686   5.157  13.434
76668SOL    HW231902   4.753   5.268  13.511
76669SOL     OW31903   0.626   3.158   1.133
76669SOL    HW131904   0.542   3.181   1.171
76669SOL    HW231905   0.682   3.139   1.208
76670SOL     OW31906   1.444   8.910   9.804
76670SOL    HW131907   1.460   8.888   9.712
76670SOL    HW231908   1.405   8.997   9.802
76671SOL     OW31909   5.944   7.324   8.958
76671SOL    HW131910   5.863   7.365   8.990
76671SOL    HW231911   5.995   7.306   9.038
76672SOL     OW31912   4.419   2.536   6.274
76672SOL    HW131913   4.333   2.552   6.314
76672SOL    HW231914   4.403   2.544   6.180
76673SOL     OW31915  13.800   3.068  13.581
76673SOL    HW131916  13.819   3.035  13.493
76673SOL    HW231917  13.816   3.162  13.575
76674SOL     OW31918   5.903   4.661   1.858
76674SOL    HW131919   5.943   4.748   1.852
76674SOL    HW231920   5.833   4.672   1.923
76675SOL     OW31921  14.783  12.364   7.286
76675SOL    HW131922  14.837  12.440   7.265
76675SOL    HW231923  14.776  12.365   7.381
76676SOL     OW31924   7.566  12.680   4.912
76676SOL    HW131925   7.624  12.729   4.853
76676SOL    HW231926   7.621  12.609   4.945
76677SOL     OW31927   0.793   3.499   2.223
76677SOL    HW131928   0.814   3.437   2.153
76677SOL    HW231929   0.804   3.448   2.304
76678SOL     OW31930   7.168   3.404  13.525
76678SOL    HW131931   7.219   3.330  13.558
76678SOL    HW231932   7.225   3.447  13.462
76679SOL     OW31933   1.762   7.362   3.098
76679SOL    HW131934   1.741   7.375   3.190
76679SOL    HW231935   1.850   7.398   3.089
76680SOL     OW31936  13.561   5.967   3.546
76680SOL    HW131937  13.645   5.937   3.580
76680SOL    HW231938  13.496   5.935   3.608
76681SOL     OW31939  10.689   3.838  10.788
76681SOL    HW131940  10.760   3.820  10.850
76681SOL    HW231941  10.669   3.931  10.800
76682SOL     OW31942   2.227   7.607   8.226
76682SOL    HW131943   2.255   7.681   8.173
76682SOL    HW231944   2.304   7.551   8.232
76683SOL     OW31945   0.226   9.352   7.745
76683SOL    HW131946   0.224   9.352   7.841
76683SOL    HW231947   0.250   9.442   7.722
76684SOL     OW31948   7.064   9.233   3.541
76684SOL    HW131949   7.127   9.170   3.504
76684SOL    HW231950   7.119   9.302   3.579
76685SOL     OW31951  13.742   6.701   7.029
76685SOL    HW131952  13.738   6.610   7.001
76685SOL    HW231953  13.684   6.748   6.968
76686SOL     OW31954   7.471   2.240   7.297
76686SOL    HW131955   7.514   2.185   7.362
76686SOL    HW231956   7.452   2.181   7.224
76687SOL     OW31957   4.008   7.921   5.366
76687SOL    HW131958   3.956   7.911   5.446
76687SOL    HW231959   4.055   8.003   5.378
76688SOL     OW31960   5.240  12.778   5.720
76688SOL    HW131961   5.251  12.831   5.641
76688SOL    HW231962   5.323  12.787   5.766
76689SOL     OW31963  10.551   5.208  12.039
76689SOL    HW131964  10.500   5.256  12.105
76689SOL    HW231965  10.485   5.176  11.977
76690SOL     OW31966   9.029  11.483   8.738
76690SOL    HW131967   9.017  11.486   8.833
76690SOL    HW231968   8.980  11.406   8.710
76691SOL     OW31969   6.600   1.544   6.665
76691SOL    HW131970   6.661   1.607   6.626
76691SOL    HW231971   6.596   1.472   6.602
76692SOL     OW31972   1.258  12.171  13.740
76692SOL    HW131973   1.314  12.135  13.809
76692SOL    HW231974   1.307  12.156  13.659
76693SOL     OW31975   4.063   4.704   9.878
76693SOL    HW131976   4.012   4.706   9.958
76693SOL    HW231977   4.082   4.796   9.859
76694SOL     OW31978  12.002   9.158  11.704
76694SOL    HW131979  12.058   9.080  11.696
76694SOL    HW231980  11.920   9.133  11.661
76695SOL     OW31981   9.026   5.524   0.324
76695SOL    HW131982   8.993   5.434   0.328
76695SOL    HW231983   8.995   5.564   0.405
76696SOL     OW31984   2.436   1.919   8.088
76696SOL    HW131985   2.484   1.849   8.044
76696SOL    HW231986   2.374   1.951   8.023
76697SOL     OW31987   2.081  11.498   7.767
76697SOL    HW131988   2.026  11.565   7.726
76697SOL    HW231989   2.034  11.473   7.847
76698SOL     OW31990   5.677   7.043  13.781
76698SOL    HW131991   5.759   7.067  13.824
76698SOL    HW231992   5.618   7.116  13.798
76699SOL     OW31993   5.413   2.943   8.756
76699SOL    HW131994   5.496   2.939   8.804
76699SOL    HW231995   5.392   2.851   8.736
76700SOL     OW31996  12.238   7.917   5.065
76700SOL    HW131997  12.274   7.956   4.985
76700SOL    HW231998  12.312   7.915   5.126
76701SOL     OW31999   9.160  12.818  11.534
76701SOL    HW132000   9.177  12.724  11.544
76701SOL    HW232001   9.076  12.822  11.488
76702SOL     OW32002   6.856  13.535   0.699
76702SOL    HW132003   6.785  13.495   0.748
76702SOL    HW232004   6.818  13.552   0.612
76703SOL     OW32005   5.781   6.093   8.845
76703SOL    HW132006   5.755   6.128   8.931
76703SOL    HW232007   5.817   6.007   8.865
76704SOL     OW32008   8.642   8.368  10.991
76704SOL    HW132009   8.681   8.360  11.078
76704SOL    HW232010   8.556   8.406  11.007
76705SOL     OW32011   6.737   2.608   5.649
76705SOL    HW132012   6.711   2.626   5.559
76705SOL    HW232013   6.688   2.529   5.673
76706SOL     OW32014   1.020   8.853   3.756
76706SOL    HW132015   1.074   8.918   3.710
76706SOL    HW232016   0.996   8.896   3.838
76707SOL     OW32017   0.248   0.402   6.343
76707SOL    HW132018   0.219   0.374   6.430
76707SOL    HW232019   0.290   0.324   6.306
76708SOL     OW32020   9.537  13.009  11.104
76708SOL    HW132021   9.592  13.078  11.143
76708SOL    HW232022   9.466  12.997  11.167
76709SOL     OW32023   1.793   1.757   4.629
76709SOL    HW132024   1.752   1.715   4.705
76709SOL    HW232025   1.721   1.766   4.565
76710SOL     OW32026  11.419   9.255  13.115
76710SOL    HW132027  11.387   9.308  13.188
76710SOL    HW232028  11.502   9.218  13.147
76711SOL     OW32029  13.416  14.507   3.889
76711SOL    HW132030  13.504  14.544   3.898
76711SOL    HW232031  13.359  14.583   3.877
76712SOL     OW32032  10.634   9.922  11.794
76712SOL    HW132033  10.633  10.010  11.757
76712SOL    HW232034  10.688   9.929  11.873
76713SOL     OW32035  14.712   2.295  11.587
76713SOL    HW132036  14.720   2.266  11.496
76713SOL    HW232037  14.661   2.375  11.582
76714SOL     OW32038   6.599   9.273   3.371
76714SOL    HW132039   6.620   9.361   3.339
76714SOL    HW232040   6.598   9.283   3.467
76715SOL     OW32041   5.293   8.617   2.156
76715SOL    HW132042   5.270   8.705   2.126
76715SOL    HW232043   5.389   8.616   2.156
76716SOL     OW32044   3.181   4.699   2.718
76716SOL    HW132045   3.235   4.620   2.712
76716SOL    HW232046   3.198   4.733   2.805
76717SOL     OW32047   5.055   1.317   5.980
76717SOL    HW132048   5.059   1.390   6.042
76717SOL    HW232049   5.117   1.252   6.015
76718SOL     OW32050   8.625  10.439   1.665
76718SOL    HW132051   8.589  10.373   1.605
76718SOL    HW232052   8.707  10.466   1.624
76719SOL     OW32053   1.352   3.164   3.519
76719SOL    HW132054   1.361   3.104   3.446
76719SOL    HW232055   1.369   3.250   3.482
76720SOL     OW32056   0.797   6.303   3.565
76720SOL    HW132057   0.865   6.332   3.625
76720SOL    HW232058   0.829   6.219   3.531
76721SOL     OW32059  10.590   9.396  11.870
76721SOL    HW132060  10.538   9.381  11.949
76721SOL    HW232061  10.678   9.366  11.893
76722SOL     OW32062   0.550   3.792   0.839
76722SOL    HW132063   0.550   3.883   0.870
76722SOL    HW232064   0.610   3.747   0.899
76723SOL     OW32065  13.150  11.766  13.547
76723SOL    HW132066  13.114  11.804  13.627
76723SOL    HW232067  13.238  11.737  13.571
76724SOL     OW32068   9.516   2.840  11.301
76724SOL    HW132069   9.531   2.806  11.389
76724SOL    HW232070   9.552   2.773  11.243
76725SOL     OW32071   6.418   3.634  12.024
76725SOL    HW132072   6.489   3.697  12.008
76725SOL    HW232073   6.463   3.550  12.031
76726SOL     OW32074   5.359   1.379  12.293
76726SOL    HW132075   5.377   1.325  12.216
76726SOL    HW232076   5.437   1.434  12.303
76727SOL     OW32077   3.198  12.852   2.114
76727SOL    HW132078   3.126  12.816   2.166
76727SOL    HW232079   3.269  12.864   2.177
76728SOL     OW32080   9.187   9.749  11.005
76728SOL    HW132081   9.118   9.761  11.070
76728SOL    HW232082   9.194   9.835  10.962
76729SOL     OW32083   4.749  11.764   9.121
76729SOL    HW132084   4.713  11.853   9.115
76729SOL    HW232085   4.831  11.768   9.073
76730SOL     OW32086  11.015  12.721  13.383
76730SOL    HW132087  10.947  12.693  13.444
76730SOL    HW232088  11.097  12.694  13.424
76731SOL     OW32089   2.195   2.479  10.259
76731SOL    HW132090   2.261   2.415  10.286
76731SOL    HW232091   2.120   2.462  10.316
76732SOL     OW32092  10.000   6.670   4.154
76732SOL    HW132093  10.030   6.661   4.244
76732SOL    HW232094   9.917   6.623   4.152
76733SOL     OW32095   9.081  14.795  13.222
76733SOL    HW132096   9.089  14.712  13.270
76733SOL    HW232097   9.005  14.783  13.165
76734SOL     OW32098   3.862   7.413   6.924
76734SOL    HW132099   3.791   7.390   6.984
76734SOL    HW232100   3.818   7.433   6.841
76735SOL     OW32101   5.773   1.154   3.739
76735SOL    HW132102   5.753   1.132   3.648
76735SOL    HW232103   5.868   1.168   3.740
76736SOL     OW32104   3.421  12.989   3.434
76736SOL    HW132105   3.443  12.922   3.499
76736SOL    HW232106   3.448  13.072   3.474
76737SOL     OW32107   2.463  12.919   0.389
76737SOL    HW132108   2.408  12.982   0.342
76737SOL    HW232109   2.450  12.837   0.342
76738SOL     OW32110  11.089   4.996  10.303
76738SOL    HW132111  11.046   5.075  10.333
76738SOL    HW232112  11.104   5.010  10.210
76739SOL     OW32113  10.349   8.763   2.256
76739SOL    HW132114  10.377   8.774   2.347
76739SOL    HW232115  10.382   8.677   2.231
76740SOL     OW32116  12.243   9.207   5.108
76740SOL    HW132117  12.153   9.221   5.137
76740SOL    HW232118  12.288   9.288   5.132
76741SOL     OW32119   5.958   3.101   9.039
76741SOL    HW132120   6.022   3.163   9.003
76741SOL    HW232121   5.957   3.119   9.133
76742SOL     OW32122   9.537   5.193  10.357
76742SOL    HW132123   9.598   5.247  10.307
76742SOL    HW232124   9.452   5.209  10.317
76743SOL     OW32125   2.982   5.379  13.586
76743SOL    HW132126   2.990   5.473  13.577
76743SOL    HW232127   3.071   5.349  13.606
76744SOL     OW32128   8.583   3.725  11.479
76744SOL    HW132129   8.622   3.738  11.392
76744SOL    HW232130   8.654   3.688  11.531
76745SOL     OW32131   5.411   8.605  14.499
76745SOL    HW132132   5.343   8.567  14.554
76745SOL    HW232133   5.366   8.673  14.448
76746SOL     OW32134   2.975   3.489   8.390
76746SOL    HW132135   2.910   3.507   8.322
76746SOL    HW232136   2.925   3.495   8.472
76747SOL     OW32137   5.917   5.782   2.848
76747SOL    HW132138   5.949   5.722   2.781
76747SOL    HW232139   5.830   5.750   2.870
76748SOL     OW32140   8.710   9.575   1.827
76748SOL    HW132141   8.776   9.580   1.758
76748SOL    HW232142   8.718   9.486   1.862
76749SOL     OW32143   9.425   6.040   6.371
76749SOL    HW132144   9.423   5.952   6.335
76749SOL    HW232145   9.335   6.056   6.401
76750SOL     OW32146  13.780   2.156   3.216
76750SOL    HW132147  13.765   2.221   3.285
76750SOL    HW232148  13.692   2.136   3.183
76751SOL     OW32149  14.491   9.774   2.687
76751SOL    HW132150  14.400   9.794   2.665
76751SOL    HW232151  14.493   9.679   2.698
76752SOL     OW32152  14.070   0.399  13.345
76752SOL    HW132153  14.093   0.313  13.382
76752SOL    HW232154  14.128   0.460  13.390
76753SOL     OW32155   9.894   7.954  14.831
76753SOL    HW132156   9.803   7.971  14.858
76753SOL    HW232157   9.895   7.972  14.737
76754SOL     OW32158  14.475  13.373   2.213
76754SOL    HW132159  14.554  13.326   2.185
76754SOL    HW232160  14.442  13.323   2.287
76755SOL     OW32161   3.529   0.353   2.478
76755SOL    HW132162   3.544   0.271   2.526
76755SOL    HW232163   3.449   0.389   2.517
76756SOL     OW32164  10.798  10.819   5.974
76756SOL    HW132165  10.850  10.881   6.024
76756SOL    HW232166  10.792  10.741   6.030
76757SOL     OW32167  14.785   0.938   0.429
76757SOL    HW132168  14.842   0.865   0.450
76757SOL    HW232169  14.843   1.004   0.391
76758SOL     OW32170   3.303   2.058   0.797
76758SOL    HW132171   3.287   1.980   0.745
76758SOL    HW232172   3.354   2.115   0.740
76759SOL     OW32173  10.442   9.602   1.321
76759SOL    HW132174  10.466   9.565   1.407
76759SOL    HW232175  10.347   9.591   1.316
76760SOL     OW32176   3.509   1.574   6.743
76760SOL    HW132177   3.593   1.603   6.776
76760SOL    HW232178   3.517   1.478   6.738
76761SOL     OW32179   2.282  10.478   2.004
76761SOL    HW132180   2.377  10.477   2.007
76761SOL    HW232181   2.260  10.551   1.946
76762SOL     OW32182   2.832  11.833   3.305
76762SOL    HW132183   2.776  11.761   3.335
76762SOL    HW232184   2.917  11.791   3.288
76763SOL     OW32185   8.137   0.204   2.526
76763SOL    HW132186   8.070   0.225   2.461
76763SOL    HW232187   8.130   0.110   2.538
76764SOL     OW32188   9.578   3.443  10.473
76764SOL    HW132189   9.537   3.358  10.485
76764SOL    HW232190   9.588   3.452  10.378
76765SOL     OW32191   5.530  12.392  12.784
76765SOL    HW132192   5.444  12.423  12.758
76765SOL    HW232193   5.534  12.409  12.878
76766SOL     OW32194   0.765   5.271  13.919
76766SOL    HW132195   0.846   5.233  13.883
76766SOL    HW232196   0.764   5.361  13.887
76767SOL     OW32197   0.673   2.597   0.884
76767SOL    HW132198   0.682   2.518   0.938
76767SOL    HW232199   0.586   2.589   0.845
76768SOL     OW32200   1.217   8.028   2.846
76768SOL    HW132201   1.171   7.944   2.839
76768SOL    HW232202   1.298   8.015   2.796
76769SOL     OW32203   7.905  13.828   0.582
76769SOL    HW132204   7.983  13.858   0.535
76769SOL    HW232205   7.882  13.746   0.538
76770SOL     OW32206   4.855   7.740   8.585
76770SOL    HW132207   4.818   7.805   8.646
76770SOL    HW232208   4.832   7.773   8.498
76771SOL     OW32209  11.966  10.559  13.943
76771SOL    HW132210  11.903  10.592  13.879
76771SOL    HW232211  12.051  10.564  13.899
76772SOL     OW32212  12.407   5.062   2.730
76772SOL    HW132213  12.406   5.030   2.820
76772SOL    HW232214  12.328   5.115   2.721
76773SOL     OW32215   0.161   6.508  14.601
76773SOL    HW132216   0.139   6.446  14.671
76773SOL    HW232217   0.209   6.456  14.536
76774SOL     OW32218  10.280   1.114   9.882
76774SOL    HW132219  10.362   1.066   9.888
76774SOL    HW232220  10.305   1.206   9.889
76775SOL     OW32221   2.204   0.820   0.967
76775SOL    HW132222   2.266   0.885   1.000
76775SOL    HW232223   2.203   0.834   0.872
76776SOL     OW32224   8.384  10.402   4.452
76776SOL    HW132225   8.375  10.382   4.359
76776SOL    HW232226   8.320  10.345   4.495
76777SOL     OW32227  11.346  11.470   7.637
76777SOL    HW132228  11.420  11.531   7.635
76777SOL    HW232229  11.270  11.524   7.615
76778SOL     OW32230  12.823   1.670  12.211
76778SOL    HW132231  12.738   1.630  12.190
76778SOL    HW232232  12.820   1.756  12.169
76779SOL     OW32233   4.851   1.111  12.890
76779SOL    HW132234   4.924   1.103  12.829
76779SOL    HW232235   4.858   1.201  12.924
76780SOL     OW32236   5.140   1.025   6.966
76780SOL    HW132237   5.194   1.064   6.898
76780SOL    HW232238   5.196   1.025   7.044
76781SOL     OW32239   6.562   9.726  10.899
76781SOL    HW132240   6.517   9.809  10.914
76781SOL    HW232241   6.502   9.660  10.934
76782SOL     OW32242  12.804   9.190  14.124
76782SOL    HW132243  12.712   9.189  14.148
76782SOL    HW232244  12.840   9.266  14.171
76783SOL     OW32245  10.111   8.008   3.179
76783SOL    HW132246  10.158   7.998   3.262
76783SOL    HW232247  10.018   8.004   3.203
76784SOL     OW32248   2.868  12.331  14.726
76784SOL    HW132249   2.814  12.389  14.672
76784SOL    HW232250   2.836  12.345  14.815
76785SOL     OW32251   1.944  10.325   7.701
76785SOL    HW132252   2.034  10.357   7.693
76785SOL    HW232253   1.917  10.306   7.611
76786SOL     OW32254   2.652  14.413   7.116
76786SOL    HW132255   2.619  14.491   7.072
76786SOL    HW232256   2.595  14.403   7.192
76787SOL     OW32257  14.143   0.782  10.032
76787SOL    HW132258  14.178   0.759  10.118
76787SOL    HW232259  14.127   0.877  10.037
76788SOL     OW32260   1.044  12.035   3.816
76788SOL    HW132261   1.063  12.107   3.756
76788SOL    HW232262   1.114  12.036   3.880
76789SOL     OW32263  14.250   0.571  11.086
76789SOL    HW132264  14.217   0.482  11.095
76789SOL    HW232265  14.218   0.600  11.001
76790SOL     OW32266   9.749   4.600   3.185
76790SOL    HW132267   9.706   4.543   3.249
76790SOL    HW232268   9.808   4.542   3.137
76791SOL     OW32269   9.273  12.324   5.895
76791SOL    HW132270   9.310  12.400   5.850
76791SOL    HW232271   9.283  12.252   5.833
76792SOL     OW32272   4.460   3.024   2.714
76792SOL    HW132273   4.476   3.113   2.747
76792SOL    HW232274   4.547   2.986   2.703
76793SOL     OW32275   6.261   4.878  12.252
76793SOL    HW132276   6.194   4.830  12.300
76793SOL    HW232277   6.217   4.909  12.173
76794SOL     OW32278   4.705  12.383   5.351
76794SOL    HW132279   4.615  12.359   5.375
76794SOL    HW232280   4.752  12.300   5.347
76795SOL     OW32281  10.217  10.164   0.188
76795SOL    HW132282  10.269  10.221   0.131
76795SOL    HW232283  10.175  10.102   0.129
76796SOL     OW32284   6.048   3.127  10.810
76796SOL    HW132285   5.953   3.118  10.801
76796SOL    HW232286   6.084   3.049  10.767
76797SOL     OW32287   9.918   8.144  11.435
76797SOL    HW132288   9.914   8.186  11.349
76797SOL    HW232289   9.924   8.217  11.497
76798SOL     OW32290   8.735  12.700   0.015
76798SOL    HW132291   8.648  12.681  14.859
76798SOL    HW232292   8.795  12.667  14.826
76799SOL     OW32293  11.914   3.614   2.667
76799SOL    HW132294  11.948   3.582   2.750
76799SOL    HW232295  11.990   3.613   2.608
76800SOL     OW32296   3.079  11.115   0.803
76800SOL    HW132297   3.170  11.135   0.825
76800SOL    HW232298   3.064  11.161   0.721
76801SOL     OW32299  13.539   5.287   6.804
76801SOL    HW132300  13.498   5.335   6.732
76801SOL    HW232301  13.598   5.225   6.761
76802SOL     OW32302   9.480  13.411  11.168
76802SOL    HW132303   9.413  13.350  11.198
76802SOL    HW232304   9.559  13.357  11.159
76803SOL     OW32305   6.171   5.684  13.030
76803SOL    HW132306   6.162   5.760  12.973
76803SOL    HW232307   6.210   5.719  13.110
76804SOL     OW32308   3.206  13.920   7.025
76804SOL    HW132309   3.182  13.901   7.116
76804SOL    HW232310   3.287  13.871   7.011
76805SOL     OW32311  13.962   0.779   8.843
76805SOL    HW132312  13.977   0.741   8.757
76805SOL    HW232313  13.937   0.704   8.898
76806SOL     OW32314  13.664  11.398   1.536
76806SOL    HW132315  13.687  11.330   1.473
76806SOL    HW232316  13.592  11.447   1.494
76807SOL     OW32317  10.433   9.344  12.082
76807SOL    HW132318  10.454   9.255  12.110
76807SOL    HW232319  10.349   9.363  12.123
76808SOL     OW32320  12.255  14.186   3.527
76808SOL    HW132321  12.180  14.235   3.563
76808SOL    HW232322  12.217  14.104   3.497
76809SOL     OW32323   8.344  14.335   6.425
76809SOL    HW132324   8.421  14.359   6.476
76809SOL    HW232325   8.271  14.380   6.468
76810SOL     OW32326  11.530   1.777   4.714
76810SOL    HW132327  11.528   1.785   4.809
76810SOL    HW232328  11.506   1.865   4.683
76811SOL     OW32329   5.729   7.765  13.492
76811SOL    HW132330   5.822   7.781  13.504
76811SOL    HW232331   5.687   7.843  13.527
76812SOL     OW32332   9.082   2.308   2.919
76812SOL    HW132333   9.061   2.268   3.003
76812SOL    HW232334   9.040   2.252   2.854
76813SOL     OW32335   9.921   5.513  13.302
76813SOL    HW132336   9.991   5.539  13.243
76813SOL    HW232337   9.897   5.594  13.348
76814SOL     OW32338   6.002  10.331   9.553
76814SOL    HW132339   6.030  10.257   9.606
76814SOL    HW232340   5.924  10.365   9.598
76815SOL     OW32341  10.583  10.036  13.110
76815SOL    HW132342  10.603   9.943  13.122
76815SOL    HW232343  10.501  10.037  13.061
76816SOL     OW32344   8.732   6.220   1.138
76816SOL    HW132345   8.650   6.171   1.145
76816SOL    HW232346   8.714   6.303   1.183
76817SOL     OW32347  11.412   1.745  11.847
76817SOL    HW132348  11.465   1.815  11.886
76817SOL    HW232349  11.331   1.745  11.897
76818SOL     OW32350  11.349  12.454   3.432
76818SOL    HW132351  11.387  12.541   3.418
76818SOL    HW232352  11.423  12.394   3.422
76819SOL     OW32353   5.546  11.892   9.756
76819SOL    HW132354   5.635  11.903   9.789
76819SOL    HW232355   5.501  11.844   9.826
76820SOL     OW32356  11.639   1.807  10.880
76820SOL    HW132357  11.681   1.826  10.797
76820SOL    HW232358  11.694   1.741  10.921
76821SOL     OW32359   6.144  14.044  13.566
76821SOL    HW132360   6.147  14.080  13.655
76821SOL    HW232361   6.100  13.960  13.575
76822SOL     OW32362   7.044   3.751  10.262
76822SOL    HW132363   7.015   3.795  10.182
76822SOL    HW232364   7.014   3.661  10.252
76823SOL     OW32365   0.264  14.674   0.923
76823SOL    HW132366   0.277  14.579   0.926
76823SOL    HW232367   0.349  14.709   0.894
76824SOL     OW32368   9.251   4.488  12.100
76824SOL    HW132369   9.280   4.541  12.026
76824SOL    HW232370   9.213   4.551  12.161
76825SOL     OW32371   0.875   4.261   2.461
76825SOL    HW132372   0.824   4.330   2.504
76825SOL    HW232373   0.836   4.180   2.492
76826SOL     OW32374   7.282  13.390   2.724
76826SOL    HW132375   7.313  13.452   2.659
76826SOL    HW232376   7.206  13.349   2.684
76827SOL     OW32377  10.408   5.263   8.875
76827SOL    HW132378  10.353   5.292   8.803
76827SOL    HW232379  10.383   5.319   8.949
76828SOL     OW32380   5.681   3.791   9.573
76828SOL    HW132381   5.715   3.759   9.490
76828SOL    HW232382   5.589   3.762   9.574
76829SOL     OW32383  12.571   7.928   9.604
76829SOL    HW132384  12.617   7.859   9.652
76829SOL    HW232385  12.640   7.969   9.550
76830SOL     OW32386   0.956   6.665  13.157
76830SOL    HW132387   0.927   6.742  13.110
76830SOL    HW232388   1.052   6.671  13.157
76831SOL     OW32389   4.487   5.818  11.177
76831SOL    HW132390   4.535   5.774  11.107
76831SOL    HW232391   4.555   5.858  11.231
76832SOL     OW32392   1.414   9.882  10.917
76832SOL    HW132393   1.332   9.923  10.888
76832SOL    HW232394   1.395   9.788  10.916
76833SOL     OW32395  13.116   9.053   3.835
76833SOL    HW132396  13.141   9.144   3.850
76833SOL    HW232397  13.048   9.037   3.900
76834SOL     OW32398   8.831  12.873   1.598
76834SOL    HW132399   8.823  12.893   1.691
76834SOL    HW232400   8.743  12.843   1.572
76835SOL     OW32401   3.439   3.500   7.931
76835SOL    HW132402   3.442   3.491   7.836
76835SOL    HW232403   3.406   3.588   7.946
76836SOL     OW32404  10.048   9.972   5.289
76836SOL    HW132405   9.999  10.054   5.296
76836SOL    HW232406  10.138   9.996   5.311
76837SOL     OW32407   2.076  12.614   7.627
76837SOL    HW132408   1.998  12.657   7.662
76837SOL    HW232409   2.068  12.523   7.658
76838SOL     OW32410   0.167   4.623   3.408
76838SOL    HW132411   0.194   4.538   3.372
76838SOL    HW232412   0.109   4.660   3.343
76839SOL     OW32413   9.384   9.889   5.713
76839SOL    HW132414   9.395   9.984   5.704
76839SOL    HW232415   9.293   9.874   5.688
76840SOL     OW32416  13.678  13.092   0.656
76840SOL    HW132417  13.718  13.007   0.636
76840SOL    HW232418  13.753  13.150   0.671
76841SOL     OW32419   4.443  12.295   0.360
76841SOL    HW132420   4.362  12.264   0.399
76841SOL    HW232421   4.433  12.278   0.266
76842SOL     OW32422  13.931  14.181   4.624
76842SOL    HW132423  13.984  14.133   4.688
76842SOL    HW232424  13.841  14.174   4.656
76843SOL     OW32425  13.693   8.514  11.451
76843SOL    HW132426  13.765   8.455  11.426
76843SOL    HW232427  13.707   8.591  11.397
76844SOL     OW32428  11.373  10.447  10.101
76844SOL    HW132429  11.432  10.409  10.166
76844SOL    HW232430  11.371  10.384  10.029
76845SOL     OW32431  14.648   7.113  14.801
76845SOL    HW132432  14.692   7.146  14.723
76845SOL    HW232433  14.554   7.119  14.780
76846SOL     OW32434  13.899  13.599  10.711
76846SOL    HW132435  13.905  13.567  10.801
76846SOL    HW232436  13.962  13.545  10.663
76847SOL     OW32437   3.679   7.313   2.000
76847SOL    HW132438   3.762   7.280   1.966
76847SOL    HW232439   3.645   7.241   2.052
76848SOL     OW32440   6.310   9.958   0.217
76848SOL    HW132441   6.350   9.884   0.170
76848SOL    HW232442   6.290  10.022   0.148
76849SOL     OW32443  11.747   7.264   6.654
76849SOL    HW132444  11.774   7.343   6.607
76849SOL    HW232445  11.702   7.211   6.588
76850SOL     OW32446   4.373   6.393  11.987
76850SOL    HW132447   4.420   6.392  12.071
76850SOL    HW232448   4.288   6.431  12.008
76851SOL     OW32449   0.777  13.979   4.814
76851SOL    HW132450   0.779  13.887   4.787
76851SOL    HW232451   0.860  13.992   4.860
76852SOL     OW32452   1.712   7.922  13.148
76852SOL    HW132453   1.798   7.886  13.171
76852SOL    HW232454   1.699   7.994  13.209
76853SOL     OW32455  14.701  12.627   0.331
76853SOL    HW132456  14.730  12.582   0.411
76853SOL    HW232457  14.748  12.710   0.332
76854SOL     OW32458   6.901   3.606  14.526
76854SOL    HW132459   6.844   3.573  14.595
76854SOL    HW232460   6.859   3.579  14.444
76855SOL     OW32461   0.452   2.633   9.351
76855SOL    HW132462   0.418   2.548   9.377
76855SOL    HW232463   0.521   2.612   9.287
76856SOL     OW32464  12.059   7.811   2.042
76856SOL    HW132465  12.105   7.894   2.028
76856SOL    HW232466  12.058   7.799   2.137
76857SOL     OW32467   3.664  13.931   5.203
76857SOL    HW132468   3.693  13.866   5.139
76857SOL    HW232469   3.578  13.900   5.231
76858SOL     OW32470  12.703   2.893   5.853
76858SOL    HW132471  12.754   2.941   5.918
76858SOL    HW232472  12.769   2.856   5.794
76859SOL     OW32473   3.623  12.129   2.828
76859SOL    HW132474   3.655  12.123   2.738
76859SOL    HW232475   3.701  12.139   2.882
76860SOL     OW32476   4.157   2.245   8.442
76860SOL    HW132477   4.160   2.219   8.350
76860SOL    HW232478   4.081   2.199   8.478
76861SOL     OW32479  12.404   9.060   0.870
76861SOL    HW132480  12.447   9.055   0.955
76861SOL    HW232481  12.347   9.137   0.876
76862SOL     OW32482   7.830   9.375  10.689
76862SOL    HW132483   7.870   9.295  10.655
76862SOL    HW232484   7.894   9.409  10.751
76863SOL     OW32485   1.961  13.515  14.454
76863SOL    HW132486   1.944  13.426  14.485
76863SOL    HW232487   1.877  13.560  14.464
76864SOL     OW32488   4.495  14.113  14.667
76864SOL    HW132489   4.526  14.188  14.717
76864SOL    HW232490   4.439  14.150  14.599
76865SOL     OW32491  10.410   2.950  14.853
76865SOL    HW132492  10.418   3.016   0.045
76865SOL    HW232493  10.443   2.870   0.016
76866SOL     OW32494   0.274   9.389   3.238
76866SOL    HW132495   0.290   9.319   3.175
76866SOL    HW232496   0.361   9.422   3.260
76867SOL     OW32497  13.615  10.927   0.821
76867SOL    HW132498  13.546  10.940   0.886
76867SOL    HW232499  13.672  10.860   0.859
76868SOL     OW32500   3.325   1.745   9.287
76868SOL    HW132501   3.233   1.721   9.279
76868SOL    HW232502   3.324   1.835   9.318
76869SOL     OW32503   9.474   5.880   8.973
76869SOL    HW132504   9.549   5.926   8.935
76869SOL    HW232505   9.430   5.840   8.898
76870SOL     OW32506   6.758  10.325   7.561
76870SOL    HW132507   6.796  10.327   7.649
76870SOL    HW232508   6.834  10.323   7.503
76871SOL     OW32509   6.859  10.435  10.705
76871SOL    HW132510   6.870  10.523  10.742
76871SOL    HW232511   6.767  10.434  10.675
76872SOL     OW32512   9.731   1.477   6.246
76872SOL    HW132513   9.793   1.492   6.176
76872SOL    HW232514   9.669   1.414   6.210
76873SOL     OW32515   9.035   7.599  14.835
76873SOL    HW132516   9.074   7.662   0.017
76873SOL    HW232517   8.965   7.647  14.791
76874SOL     OW32518  12.352   9.497  11.915
76874SOL    HW132519  12.375   9.544  11.835
76874SOL    HW232520  12.299   9.558  11.965
76875SOL     OW32521   1.503   6.621  10.405
76875SOL    HW132522   1.517   6.670  10.485
76875SOL    HW232523   1.407   6.619  10.395
76876SOL     OW32524  14.410  11.669  13.651
76876SOL    HW132525  14.415  11.742  13.713
76876SOL    HW232526  14.319  11.639  13.656
76877SOL     OW32527  11.635   3.465   1.325
76877SOL    HW132528  11.598   3.435   1.242
76877SOL    HW232529  11.727   3.440   1.320
76878SOL     OW32530   0.917  12.520  14.783
76878SOL    HW132531   0.931  12.440  14.731
76878SOL    HW232532   0.831  12.508  14.823
76879SOL     OW32533  12.828   9.468   0.521
76879SOL    HW132534  12.902   9.522   0.491
76879SOL    HW232535  12.856   9.378   0.504
76880SOL     OW32536   7.675   6.720   8.872
76880SOL    HW132537   7.682   6.683   8.960
76880SOL    HW232538   7.597   6.679   8.834
76881SOL     OW32539   1.674  14.006  13.468
76881SOL    HW132540   1.646  14.080  13.413
76881SOL    HW232541   1.674  14.042  13.557
76882SOL     OW32542  13.481   8.518   4.428
76882SOL    HW132543  13.503   8.610   4.441
76882SOL    HW232544  13.416   8.500   4.496
76883SOL     OW32545   7.883  13.232   3.619
76883SOL    HW132546   7.799  13.265   3.649
76883SOL    HW232547   7.931  13.211   3.699
76884SOL     OW32548  13.325   8.387   9.019
76884SOL    HW132549  13.362   8.299   9.016
76884SOL    HW232550  13.240   8.375   9.062
76885SOL     OW32551   2.205   7.228   8.569
76885SOL    HW132552   2.277   7.167   8.586
76885SOL    HW232553   2.195   7.276   8.651
76886SOL     OW32554  14.007   9.419  10.986
76886SOL    HW132555  14.006   9.388  11.077
76886SOL    HW232556  13.922   9.462  10.974
76887SOL     OW32557  10.145   8.893   2.512
76887SOL    HW132558  10.080   8.839   2.467
76887SOL    HW232559  10.180   8.950   2.444
76888SOL     OW32560   2.118  11.171   2.911
76888SOL    HW132561   2.090  11.202   2.997
76888SOL    HW232562   2.074  11.229   2.849
76889SOL     OW32563   8.385   1.512   1.969
76889SOL    HW132564   8.359   1.567   2.043
76889SOL    HW232565   8.309   1.514   1.911
76890SOL     OW32566   5.828   8.315   1.769
76890SOL    HW132567   5.800   8.274   1.687
76890SOL    HW232568   5.922   8.326   1.760
76891SOL     OW32569   0.021   2.972   4.233
76891SOL    HW132570   0.060   2.899   4.280
76891SOL    HW232571   0.065   2.973   4.148
76892SOL     OW32572   8.909   0.095   1.725
76892SOL    HW132573   8.997   0.064   1.747
76892SOL    HW232574   8.863   0.098   1.809
76893SOL     OW32575   4.493   2.847  10.264
76893SOL    HW132576   4.414   2.858  10.317
76893SOL    HW232577   4.526   2.937  10.252
76894SOL     OW32578   3.153   4.032  14.770
76894SOL    HW132579   3.181   4.114  14.730
76894SOL    HW232580   3.061   4.024  14.747
76895SOL     OW32581  14.294   4.319   7.698
76895SOL    HW132582  14.282   4.322   7.793
76895SOL    HW232583  14.245   4.241   7.670
76896SOL     OW32584   8.628   1.054   4.082
76896SOL    HW132585   8.597   1.127   4.136
76896SOL    HW232586   8.602   0.976   4.130
76897SOL     OW32587   3.622   5.376  11.071
76897SOL    HW132588   3.562   5.311  11.034
76897SOL    HW232589   3.646   5.342  11.156
76898SOL     OW32590   3.460  13.981   2.685
76898SOL    HW132591   3.533  14.014   2.737
76898SOL    HW232592   3.417  13.916   2.741
76899SOL     OW32593   7.773  10.076   9.990
76899SOL    HW132594   7.827  10.069  10.069
76899SOL    HW232595   7.683  10.073  10.023
76900SOL     OW32596  11.321   8.016  12.209
76900SOL    HW132597  11.392   7.999  12.147
76900SOL    HW232598  11.241   8.013  12.156
76901SOL     OW32599   0.332   1.165   5.736
76901SOL    HW132600   0.263   1.117   5.690
76901SOL    HW232601   0.310   1.155   5.828
76902SOL     OW32602   1.419  10.354   1.570
76902SOL    HW132603   1.423  10.419   1.640
76902SOL    HW232604   1.393  10.273   1.614
76903SOL     OW32605  14.645   1.504  10.972
76903SOL    HW132606  14.736   1.526  10.992
76903SOL    HW232607  14.646   1.481  10.879
76904SOL     OW32608   3.678  12.165  12.803
76904SOL    HW132609   3.744  12.188  12.737
76904SOL    HW232610   3.595  12.190  12.762
76905SOL     OW32611   1.495  13.717   3.370
76905SOL    HW132612   1.415  13.768   3.360
76905SOL    HW232613   1.501  13.665   3.290
76906SOL     OW32614  12.442  11.642   8.726
76906SOL    HW132615  12.370  11.669   8.669
76906SOL    HW232616  12.494  11.721   8.740
76907SOL     OW32617  10.387   1.951   3.893
76907SOL    HW132618  10.307   1.999   3.874
76907SOL    HW232619  10.367   1.860   3.870
76908SOL     OW32620   5.188  12.663   0.688
76908SOL    HW132621   5.171  12.577   0.727
76908SOL    HW232622   5.106  12.710   0.697
76909SOL     OW32623   6.110   5.615  11.839
76909SOL    HW132624   6.171   5.688  11.849
76909SOL    HW232625   6.166   5.540  11.820
76910SOL     OW32626  10.560   5.403   9.200
76910SOL    HW132627  10.648   5.434   9.221
76910SOL    HW232628  10.574   5.316   9.162
76911SOL     OW32629   6.934  14.743  14.049
76911SOL    HW132630   6.841  14.736  14.069
76911SOL    HW232631   6.951  14.671  13.989
76912SOL     OW32632  13.273   1.465   1.899
76912SOL    HW132633  13.266   1.542   1.955
76912SOL    HW232634  13.302   1.499   1.815
76913SOL     OW32635   3.004   6.224   5.466
76913SOL    HW132636   3.069   6.256   5.529
76913SOL    HW232637   2.922   6.261   5.497
76914SOL     OW32638  13.138  14.640   9.416
76914SOL    HW132639  13.132  14.629   9.511
76914SOL    HW232640  13.225  14.678   9.402
76915SOL     OW32641  12.394   6.329   2.109
76915SOL    HW132642  12.333   6.262   2.078
76915SOL    HW232643  12.373   6.406   2.056
76916SOL     OW32644  14.376   8.446   1.203
76916SOL    HW132645  14.362   8.366   1.252
76916SOL    HW232646  14.465   8.474   1.225
76917SOL     OW32647   8.712   1.903   7.297
76917SOL    HW132648   8.782   1.913   7.361
76917SOL    HW232649   8.679   1.991   7.283
76918SOL     OW32650   3.086   8.841  12.191
76918SOL    HW132651   3.126   8.764  12.232
76918SOL    HW232652   3.012   8.806  12.142
76919SOL     OW32653   5.174  11.036   5.033
76919SOL    HW132654   5.239  11.086   5.082
76919SOL    HW232655   5.212  11.026   4.946
76920SOL     OW32656   6.819   6.711   1.516
76920SOL    HW132657   6.775   6.685   1.435
76920SOL    HW232658   6.748   6.745   1.572
76921SOL     OW32659   6.972   9.577   8.561
76921SOL    HW132660   7.009   9.567   8.473
76921SOL    HW232661   6.879   9.556   8.551
76922SOL     OW32662   2.956   4.564   2.691
76922SOL    HW132663   2.954   4.506   2.767
76922SOL    HW232664   3.025   4.627   2.710
76923SOL     OW32665   5.664  13.001   0.220
76923SOL    HW132666   5.627  12.950   0.292
76923SOL    HW232667   5.758  12.985   0.226
76924SOL     OW32668   9.396   6.775   9.564
76924SOL    HW132669   9.409   6.685   9.594
76924SOL    HW232670   9.483   6.814   9.567
76925SOL     OW32671   5.000   3.948   4.882
76925SOL    HW132672   4.944   3.896   4.940
76925SOL    HW232673   5.004   4.034   4.923
76926SOL     OW32674   2.532   0.855  11.832
76926SOL    HW132675   2.490   0.829  11.750
76926SOL    HW232676   2.626   0.848  11.815
76927SOL     OW32677  12.947   5.925   7.604
76927SOL    HW132678  12.983   5.900   7.519
76927SOL    HW232679  12.854   5.901   7.599
76928SOL     OW32680   5.306   1.518  13.662
76928SOL    HW132681   5.297   1.591  13.601
76928SOL    HW232682   5.226   1.519  13.714
76929SOL     OW32683   1.381   3.541   9.856
76929SOL    HW132684   1.310   3.547   9.919
76929SOL    HW232685   1.460   3.557   9.907
76930SOL     OW32686   7.516   1.920  14.255
76930SOL    HW132687   7.598   1.873  14.272
76930SOL    HW232688   7.490   1.893  14.167
76931SOL     OW32689  13.569  11.078   6.077
76931SOL    HW132690  13.603  10.990   6.066
76931SOL    HW232691  13.622  11.132   6.018
76932SOL     OW32692   8.943   2.667   1.066
76932SOL    HW132693   8.899   2.751   1.055
76932SOL    HW232694   8.990   2.675   1.149
76933SOL     OW32695   9.371   0.729   2.406
76933SOL    HW132696   9.348   0.802   2.463
76933SOL    HW232697   9.415   0.667   2.464
76934SOL     OW32698   2.425   9.114  10.276
76934SOL    HW132699   2.470   9.177  10.219
76934SOL    HW232700   2.484   9.038  10.278
76935SOL     OW32701  14.762   3.717  12.082
76935SOL    HW132702  14.741   3.683  12.169
76935SOL    HW232703  14.801   3.803  12.099
76936SOL     OW32704  12.325   1.721   8.089
76936SOL    HW132705  12.255   1.712   8.025
76936SOL    HW232706  12.394   1.768   8.041
76937SOL     OW32707   5.402  11.931  11.056
76937SOL    HW132708   5.320  11.943  11.104
76937SOL    HW232709   5.462  11.891  11.120
76938SOL     OW32710  11.269   8.789   2.040
76938SOL    HW132711  11.187   8.802   2.088
76938SOL    HW232712  11.246   8.730   1.969
76939SOL     OW32713  11.765   3.134   5.672
76939SOL    HW132714  11.822   3.210   5.661
76939SOL    HW232715  11.807   3.082   5.741
76940SOL     OW32716   7.993  11.771   6.889
76940SOL    HW132717   7.942  11.791   6.968
76940SOL    HW232718   7.994  11.853   6.839
76941SOL     OW32719   5.379   1.505   2.142
76941SOL    HW132720   5.359   1.431   2.201
76941SOL    HW232721   5.418   1.571   2.199
76942SOL     OW32722  12.946   6.214   7.286
76942SOL    HW132723  12.895   6.289   7.254
76942SOL    HW232724  12.889   6.172   7.349
76943SOL     OW32725  13.916   4.968  14.684
76943SOL    HW132726  13.925   5.063  14.678
76943SOL    HW232727  13.970   4.944  14.760
76944SOL     OW32728  13.279  11.586   5.840
76944SOL    HW132729  13.320  11.529   5.905
76944SOL    HW232730  13.227  11.527   5.786
76945SOL     OW32731   9.415   3.813   0.355
76945SOL    HW132732   9.374   3.785   0.437
76945SOL    HW232733   9.367   3.892   0.330
76946SOL     OW32734   7.482   2.519  11.483
76946SOL    HW132735   7.441   2.433  11.470
76946SOL    HW232736   7.576   2.500  11.488
76947SOL     OW32737   9.527   4.133   3.980
76947SOL    HW132738   9.515   4.154   4.072
76947SOL    HW232739   9.607   4.080   3.978
76948SOL     OW32740   7.217   6.187  14.230
76948SOL    HW132741   7.164   6.119  14.189
76948SOL    HW232742   7.302   6.180  14.187
76949SOL     OW32743   5.378   1.745  13.919
76949SOL    HW132744   5.313   1.756  13.849
76949SOL    HW232745   5.450   1.698  13.877
76950SOL     OW32746   0.497   6.059  12.593
76950SOL    HW132747   0.569   6.117  12.567
76950SOL    HW232748   0.479   6.007  12.514
76951SOL     OW32749   6.812   4.147   1.559
76951SOL    HW132750   6.791   4.135   1.466
76951SOL    HW232751   6.907   4.139   1.563
76952SOL     OW32752   9.073  12.717   2.031
76952SOL    HW132753   9.140  12.648   2.036
76952SOL    HW232754   9.004  12.688   2.090
76953SOL     OW32755  10.637  11.551   3.852
76953SOL    HW132756  10.662  11.634   3.812
76953SOL    HW232757  10.719  11.501   3.857
76954SOL     OW32758  10.052   6.179   6.092
76954SOL    HW132759  10.122   6.136   6.043
76954SOL    HW232760  10.011   6.239   6.030
76955SOL     OW32761   2.583   5.278   7.143
76955SOL    HW132762   2.585   5.365   7.102
76955SOL    HW232763   2.647   5.227   7.094
76956SOL     OW32764   9.790   1.710   2.794
76956SOL    HW132765   9.808   1.747   2.708
76956SOL    HW232766   9.771   1.618   2.777
76957SOL     OW32767   9.168  14.041   3.797
76957SOL    HW132768   9.217  14.017   3.876
76957SOL    HW232769   9.181  14.136   3.789
76958SOL     OW32770   8.413  13.194   2.313
76958SOL    HW132771   8.412  13.147   2.396
76958SOL    HW232772   8.395  13.285   2.337
76959SOL     OW32773   9.783   5.147   3.462
76959SOL    HW132774   9.872   5.164   3.430
76959SOL    HW232775   9.731   5.139   3.382
76960SOL     OW32776   7.574   4.928   2.126
76960SOL    HW132777   7.504   4.991   2.140
76960SOL    HW232778   7.579   4.917   2.031
76961SOL     OW32779  11.679   0.420   6.013
76961SOL    HW132780  11.720   0.412   6.099
76961SOL    HW232781  11.619   0.345   6.008
76962SOL     OW32782   0.040   6.879   9.305
76962SOL    HW132783  14.823   6.865   9.297
76962SOL    HW232784   0.053   6.967   9.269
76963SOL     OW32785   9.275  10.359   3.335
76963SOL    HW132786   9.264  10.265   3.350
76963SOL    HW232787   9.202  10.382   3.277
76964SOL     OW32788  13.976   5.371  10.713
76964SOL    HW132789  13.908   5.431  10.682
76964SOL    HW232790  14.057   5.422  10.709
76965SOL     OW32791   7.505   8.318   7.740
76965SOL    HW132792   7.410   8.311   7.746
76965SOL    HW232793   7.530   8.254   7.673
76966SOL     OW32794   6.690   5.981  14.863
76966SOL    HW132795   6.746   6.035   0.041
76966SOL    HW232796   6.688   6.026  14.779
76967SOL     OW32797   8.826   6.781   6.149
76967SOL    HW132798   8.842   6.727   6.227
76967SOL    HW232799   8.752   6.740   6.105
76968SOL     OW32800   5.932   8.177   6.895
76968SOL    HW132801   5.872   8.248   6.919
76968SOL    HW232802   5.876   8.099   6.893
76969SOL     OW32803   6.871   0.740   3.385
76969SOL    HW132804   6.820   0.682   3.442
76969SOL    HW232805   6.937   0.778   3.443
76970SOL     OW32806   8.907   6.661  13.669
76970SOL    HW132807   8.818   6.684  13.697
76970SOL    HW232808   8.919   6.710  13.588
76971SOL     OW32809  13.926   4.641   1.847
76971SOL    HW132810  13.987   4.650   1.920
76971SOL    HW232811  13.982   4.634   1.769
76972SOL     OW32812  11.801   6.283   5.304
76972SOL    HW132813  11.725   6.328   5.343
76972SOL    HW232814  11.776   6.191   5.302
76973SOL     OW32815   3.267   9.613  12.602
76973SOL    HW132816   3.324   9.608  12.526
76973SOL    HW232817   3.225   9.527  12.607
76974SOL     OW32818   3.020   5.455   1.870
76974SOL    HW132819   2.992   5.363   1.874
76974SOL    HW232820   3.104   5.453   1.823
76975SOL     OW32821   2.324  11.111   8.263
76975SOL    HW132822   2.352  11.050   8.331
76975SOL    HW232823   2.253  11.064   8.217
76976SOL     OW32824   6.816  13.261  12.714
76976SOL    HW132825   6.891  13.271  12.773
76976SOL    HW232826   6.833  13.179  12.668
76977SOL     OW32827   2.223   0.050   8.766
76977SOL    HW132828   2.188   0.007   8.688
76977SOL    HW232829   2.208  14.865   8.837
76978SOL     OW32830   9.894   3.701  12.715
76978SOL    HW132831   9.859   3.709  12.804
76978SOL    HW232832   9.934   3.787  12.697
76979SOL     OW32833   3.789   7.519   6.678
76979SOL    HW132834   3.852   7.584   6.649
76979SOL    HW232835   3.729   7.567   6.736
76980SOL     OW32836  12.357   7.421   5.415
76980SOL    HW132837  12.304   7.384   5.344
76980SOL    HW232838  12.353   7.356   5.485
76981SOL     OW32839   4.715   9.590   4.802
76981SOL    HW132840   4.629   9.567   4.836
76981SOL    HW232841   4.722   9.546   4.718
76982SOL     OW32842   0.980   3.036   5.768
76982SOL    HW132843   1.009   2.985   5.693
76982SOL    HW232844   1.060   3.069   5.808
76983SOL     OW32845   2.336   9.255   9.472
76983SOL    HW132846   2.426   9.222   9.476
76983SOL    HW232847   2.283   9.184   9.508
76984SOL     OW32848   4.386   1.594   9.336
76984SOL    HW132849   4.355   1.570   9.248
76984SOL    HW232850   4.477   1.567   9.337
76985SOL     OW32851  13.806   7.744   5.723
76985SOL    HW132852  13.867   7.817   5.733
76985SOL    HW232853  13.719   7.785   5.722
76986SOL     OW32854   0.116  10.396  14.472
76986SOL    HW132855   0.052  10.420  14.405
76986SOL    HW232856   0.192  10.364  14.422
76987SOL     OW32857  14.768  10.350   7.987
76987SOL    HW132858  14.716  10.402   8.048
76987SOL    HW232859  14.721  10.357   7.904
76988SOL     OW32860  12.894   9.976   7.031
76988SOL    HW132861  12.860   9.913   7.094
76988SOL    HW232862  12.974  10.010   7.072
76989SOL     OW32863   4.429   5.280  14.370
76989SOL    HW132864   4.465   5.368  14.383
76989SOL    HW232865   4.408   5.277  14.276
76990SOL     OW32866   2.952  14.411  10.842
76990SOL    HW132867   3.021  14.445  10.785
76990SOL    HW232868   2.886  14.377  10.782
76991SOL     OW32869   7.422  11.755   6.425
76991SOL    HW132870   7.496  11.735   6.367
76991SOL    HW232871   7.347  11.761   6.366
76992SOL     OW32872  14.381   4.293   3.062
76992SOL    HW132873  14.365   4.224   3.126
76992SOL    HW232874  14.393   4.247   2.979
76993SOL     OW32875   3.280   8.781   0.814
76993SOL    HW132876   3.187   8.805   0.809
76993SOL    HW232877   3.321   8.853   0.862
76994SOL     OW32878   2.348   3.671   9.601
76994SOL    HW132879   2.270   3.666   9.657
76994SOL    HW232880   2.314   3.701   9.517
76995SOL     OW32881   0.834   5.778  12.447
76995SOL    HW132882   0.751   5.734  12.464
76995SOL    HW232883   0.901   5.717  12.479
76996SOL     OW32884  13.269   4.417   6.848
76996SOL    HW132885  13.230   4.470   6.780
76996SOL    HW232886  13.279   4.476   6.923
76997SOL     OW32887   3.921  12.955   0.969
76997SOL    HW132888   3.890  12.909   0.891
76997SOL    HW232889   3.967  13.031   0.935
76998SOL     OW32890   2.938   5.179   1.834
76998SOL    HW132891   2.997   5.164   1.759
76998SOL    HW232892   2.981   5.135   1.907
76999SOL     OW32893  10.458   8.346   7.273
76999SOL    HW132894  10.511   8.266   7.276
76999SOL    HW232895  10.522   8.417   7.270
77000SOL     OW32896  13.472  11.191   8.235
77000SOL    HW132897  13.501  11.172   8.324
77000SOL    HW232898  13.384  11.154   8.229
77001SOL     OW32899   4.479   8.370  10.791
77001SOL    HW132900   4.431   8.407  10.865
77001SOL    HW232901   4.553   8.324  10.830
77002SOL     OW32902  13.295   9.066   8.667
77002SOL    HW132903  13.310   9.072   8.573
77002SOL    HW232904  13.233   9.137   8.686
77003SOL     OW32905  14.394   0.169   6.307
77003SOL    HW132906  14.354   0.178   6.394
77003SOL    HW232907  14.462   0.236   6.305
77004SOL     OW32908   8.444   1.631  12.039
77004SOL    HW132909   8.488   1.710  12.007
77004SOL    HW232910   8.514   1.570  12.059
77005SOL     OW32911   2.235   0.917  10.429
77005SOL    HW132912   2.286   0.859  10.373
77005SOL    HW232913   2.164   0.948  10.374
77006SOL     OW32914  13.279   9.186   6.142
77006SOL    HW132915  13.230   9.106   6.124
77006SOL    HW232916  13.285   9.191   6.237
77007SOL     OW32917   1.281  14.021  11.997
77007SOL    HW132918   1.269  14.021  11.902
77007SOL    HW232919   1.214  13.961  12.030
77008SOL     OW32920   9.476   7.337  12.248
77008SOL    HW132921   9.396   7.291  12.272
77008SOL    HW232922   9.447   7.410  12.193
77009SOL     OW32923  10.552   2.215  13.501
77009SOL    HW132924  10.623   2.255  13.450
77009SOL    HW232925  10.490   2.287  13.516
77010SOL     OW32926   2.089   9.636   1.727
77010SOL    HW132927   2.021   9.597   1.782
77010SOL    HW232928   2.149   9.677   1.789
77011SOL     OW32929   0.664   3.193   0.470
77011SOL    HW132930   0.702   3.223   0.387
77011SOL    HW232931   0.583   3.244   0.478
77012SOL     OW32932  10.741   8.546   5.322
77012SOL    HW132933  10.693   8.554   5.405
77012SOL    HW232934  10.674   8.539   5.255
77013SOL     OW32935   0.664   5.008   9.373
77013SOL    HW132936   0.608   5.073   9.414
77013SOL    HW232937   0.676   4.940   9.440
77014SOL     OW32938   0.174  11.593   9.364
77014SOL    HW132939   0.095  11.606   9.311
77014SOL    HW232940   0.246  11.590   9.301
77015SOL     OW32941  12.474   6.673  10.319
77015SOL    HW132942  12.417   6.675  10.395
77015SOL    HW232943  12.423   6.629  10.252
77016SOL     OW32944   2.411   3.698   2.974
77016SOL    HW132945   2.468   3.621   2.970
77016SOL    HW232946   2.403   3.717   3.068
77017SOL     OW32947  14.844  10.417  11.558
77017SOL    HW132948  14.796  10.486  11.511
77017SOL    HW232949  14.802  10.414  11.644
77018SOL     OW32950   2.111   9.642   2.040
77018SOL    HW132951   2.097   9.693   2.120
77018SOL    HW232952   2.156   9.703   1.981
77019SOL     OW32953   1.045   8.398   3.955
77019SOL    HW132954   1.035   8.310   3.919
77019SOL    HW232955   1.078   8.450   3.882
77020SOL     OW32956   8.567  11.738  12.257
77020SOL    HW132957   8.486  11.730  12.207
77020SOL    HW232958   8.577  11.832  12.272
77021SOL     OW32959   9.297   3.462   5.093
77021SOL    HW132960   9.232   3.531   5.106
77021SOL    HW232961   9.361   3.499   5.033
77022SOL     OW32962   9.617  13.152   2.312
77022SOL    HW132963   9.571  13.214   2.255
77022SOL    HW232964   9.702  13.193   2.330
77023SOL     OW32965   5.438   1.911   6.461
77023SOL    HW132966   5.344   1.893   6.462
77023SOL    HW232967   5.455   1.953   6.545
77024SOL     OW32968   2.566   4.132   5.684
77024SOL    HW132969   2.500   4.073   5.647
77024SOL    HW232970   2.516   4.193   5.738
77025SOL     OW32971   3.451   5.731   8.082
77025SOL    HW132972   3.515   5.724   8.011
77025SOL    HW232973   3.396   5.653   8.073
77026SOL     OW32974   4.591  10.569   9.545
77026SOL    HW132975   4.587  10.532   9.457
77026SOL    HW232976   4.516  10.531   9.591
77027SOL     OW32977   6.997   3.576   8.595
77027SOL    HW132978   7.006   3.651   8.654
77027SOL    HW232979   7.080   3.573   8.547
77028SOL     OW32980   6.341   3.788  12.875
77028SOL    HW132981   6.325   3.859  12.937
77028SOL    HW232982   6.274   3.798  12.808
77029SOL     OW32983  14.330   7.147   7.258
77029SOL    HW132984  14.238   7.125   7.247
77029SOL    HW232985  14.331   7.212   7.328
77030SOL     OW32986   7.617   6.952  14.082
77030SOL    HW132987   7.708   6.958  14.113
77030SOL    HW232988   7.591   7.042  14.067
77031SOL     OW32989   1.216   9.338   3.059
77031SOL    HW132990   1.153   9.306   3.123
77031SOL    HW232991   1.221   9.269   2.993
77032SOL     OW32992  13.722   2.135   3.953
77032SOL    HW132993  13.633   2.107   3.975
77032SOL    HW232994  13.716   2.230   3.944
77033SOL     OW32995   6.179   3.891  10.234
77033SOL    HW132996   6.189   3.931  10.147
77033SOL    HW232997   6.234   3.812  10.231
77034SOL     OW32998   4.027   5.331   7.301
77034SOL    HW132999   4.050   5.263   7.364
77034SOL    HW233000   4.080   5.406   7.326
77035SOL     OW33001  14.281   2.550  14.106
77035SOL    HW133002  14.322   2.464  14.118
77035SOL    HW233003  14.195   2.531  14.070
77036SOL     OW33004   6.161   5.905  12.857
77036SOL    HW133005   6.094   5.972  12.840
77036SOL    HW233006   6.153   5.845  12.783
77037SOL     OW33007  10.111  10.645   1.877
77037SOL    HW133008  10.172  10.581   1.914
77037SOL    HW233009  10.167  10.717   1.849
77038SOL     OW33010  12.952   2.723   3.036
77038SOL    HW133011  13.001   2.796   2.998
77038SOL    HW233012  12.932   2.666   2.962
77039SOL     OW33013  11.592  13.823   7.039
77039SOL    HW133014  11.642  13.816   6.958
77039SOL    HW233015  11.554  13.911   7.036
77040SOL     OW33016   7.387   6.945   7.075
77040SOL    HW133017   7.388   6.850   7.075
77040SOL    HW233018   7.415   6.970   7.163
77041SOL     OW33019   0.346   7.026   0.056
77041SOL    HW133020   0.440   7.016   0.038
77041SOL    HW233021   0.340   7.107   0.106
77042SOL     OW33022   1.739   7.822   3.546
77042SOL    HW133023   1.743   7.735   3.506
77042SOL    HW233024   1.764   7.882   3.476
77043SOL     OW33025   2.355   9.602   6.638
77043SOL    HW133026   2.313   9.678   6.678
77043SOL    HW233027   2.329   9.528   6.693
77044SOL     OW33028  10.701  10.761   9.221
77044SOL    HW133029  10.780  10.800   9.261
77044SOL    HW233030  10.703  10.670   9.249
77045SOL     OW33031   9.846   5.197   4.290
77045SOL    HW133032   9.805   5.140   4.225
77045SOL    HW233033   9.785   5.271   4.300
77046SOL     OW33034  10.311   5.006  11.578
77046SOL    HW133035  10.331   4.939  11.513
77046SOL    HW233036  10.297   5.086  11.527
77047SOL     OW33037  10.841   1.759  14.459
77047SOL    HW133038  10.890   1.726  14.534
77047SOL    HW233039  10.785   1.828  14.495
77048SOL     OW33040  13.800  11.814   5.531
77048SOL    HW133041  13.768  11.725   5.543
77048SOL    HW233042  13.785  11.834   5.438
77049SOL     OW33043   2.750  14.290   8.521
77049SOL    HW133044   2.716  14.370   8.562
77049SOL    HW233045   2.797  14.320   8.443
77050SOL     OW33046  12.593  12.838   0.296
77050SOL    HW133047  12.610  12.754   0.338
77050SOL    HW233048  12.631  12.903   0.355
77051SOL     OW33049   4.172   2.297   1.422
77051SOL    HW133050   4.077   2.298   1.413
77051SOL    HW233051   4.200   2.383   1.392
77052SOL     OW33052  14.288   4.701  13.784
77052SOL    HW133053  14.243   4.637  13.839
77052SOL    HW233054  14.267   4.786  13.823
77053SOL     OW33055   3.601  11.300   6.805
77053SOL    HW133056   3.651  11.381   6.817
77053SOL    HW233057   3.528  11.307   6.866
77054SOL     OW33058   9.580  11.086  13.120
77054SOL    HW133059   9.528  11.064  13.197
77054SOL    HW233060   9.559  11.178  13.103
77055SOL     OW33061  12.225  14.272  11.381
77055SOL    HW133062  12.300  14.281  11.440
77055SOL    HW233063  12.202  14.180  11.385
77056SOL     OW33064   8.849   8.754   1.697
77056SOL    HW133065   8.835   8.683   1.635
77056SOL    HW233066   8.911   8.813   1.652
77057SOL     OW33067   9.067   8.837   6.788
77057SOL    HW133068   9.079   8.742   6.787
77057SOL    HW233069   8.973   8.849   6.774
77058SOL     OW33070  14.609   6.086   6.035
77058SOL    HW133071  14.598   6.115   6.126
77058SOL    HW233072  14.543   6.017   6.024
77059SOL     OW33073   9.718  11.535  13.954
77059SOL    HW133074   9.761  11.615  13.927
77059SOL    HW233075   9.772  11.502  14.026
77060SOL     OW33076   3.972  12.006   8.433
77060SOL    HW133077   3.988  11.920   8.395
77060SOL    HW233078   3.931  11.988   8.517
77061SOL     OW33079   0.774   4.472   7.560
77061SOL    HW133080   0.785   4.473   7.465
77061SOL    HW233081   0.804   4.386   7.587
77062SOL     OW33082  11.680   7.856  12.875
77062SOL    HW133083  11.585   7.853  12.889
77062SOL    HW233084  11.692   7.924  12.808
77063SOL     OW33085   1.613   6.681   1.374
77063SOL    HW133086   1.653   6.746   1.432
77063SOL    HW233087   1.636   6.597   1.413
77064SOL     OW33088   9.800  10.172   2.446
77064SOL    HW133089   9.748  10.236   2.494
77064SOL    HW233090   9.789  10.090   2.495
77065SOL     OW33091   7.704  14.076   6.919
77065SOL    HW133092   7.637  14.018   6.884
77065SOL    HW233093   7.657  14.133   6.980
77066SOL     OW33094   8.431   9.213   7.379
77066SOL    HW133095   8.506   9.239   7.433
77066SOL    HW233096   8.468   9.155   7.313
77067SOL     OW33097   7.884   1.835   8.180
77067SOL    HW133098   7.949   1.780   8.223
77067SOL    HW233099   7.801   1.790   8.195
77068SOL     OW33100   9.907   9.235   5.365
77068SOL    HW133101   9.920   9.297   5.436
77068SOL    HW233102   9.995   9.202   5.345
77069SOL     OW33103  12.836   0.930   4.721
77069SOL    HW133104  12.886   0.864   4.769
77069SOL    HW233105  12.759   0.882   4.688
77070SOL     OW33106   8.230  12.204   8.973
77070SOL    HW133107   8.139  12.174   8.974
77070SOL    HW233108   8.278  12.138   9.023
77071SOL     OW33109   6.376  12.754   5.154
77071SOL    HW133110   6.455  12.768   5.206
77071SOL    HW233111   6.356  12.661   5.166
77072SOL     OW33112   5.090  14.407   4.928
77072SOL    HW133113   5.148  14.462   4.979
77072SOL    HW233114   5.026  14.374   4.991
77073SOL     OW33115   1.693  12.162  12.905
77073SOL    HW133116   1.667  12.073  12.930
77073SOL    HW233117   1.693  12.160  12.809
77074SOL     OW33118   5.932  12.842  11.824
77074SOL    HW133119   5.878  12.912  11.787
77074SOL    HW233120   5.904  12.837  11.916
77075SOL     OW33121   3.030   7.506   5.319
77075SOL    HW133122   3.013   7.548   5.235
77075SOL    HW233123   3.105   7.449   5.303
77076SOL     OW33124  12.639   7.566  13.523
77076SOL    HW133125  12.702   7.518  13.577
77076SOL    HW233126  12.656   7.658  13.543
77077SOL     OW33127   2.260  12.983   1.503
77077SOL    HW133128   2.307  12.928   1.441
77077SOL    HW233129   2.195  12.924   1.543
77078SOL     OW33130  11.094   1.429  11.753
77078SOL    HW133131  11.005   1.433  11.718
77078SOL    HW233132  11.090   1.477  11.836
77079SOL     OW33133   0.930   9.750  14.051
77079SOL    HW133134   0.872   9.684  14.087
77079SOL    HW233135   1.004   9.753  14.111
77080SOL     OW33136  12.139   8.180  14.602
77080SOL    HW133137  12.111   8.257  14.553
77080SOL    HW233138  12.221   8.153  14.561
77081SOL     OW33139   7.904   8.804  13.283
77081SOL    HW133140   7.936   8.884  13.240
77081SOL    HW233141   7.826   8.831  13.331
77082SOL     OW33142   3.952   1.142  10.465
77082SOL    HW133143   3.924   1.082  10.534
77082SOL    HW233144   3.974   1.085  10.391
77083SOL     OW33145  10.970   1.061   2.031
77083SOL    HW133146  10.937   1.022   2.112
77083SOL    HW233147  10.903   1.043   1.966
77084SOL     OW33148  11.908   4.843   0.168
77084SOL    HW133149  11.878   4.871   0.082
77084SOL    HW233150  12.002   4.829   0.157
77085SOL     OW33151  10.890   3.223   2.851
77085SOL    HW133152  10.958   3.164   2.884
77085SOL    HW233153  10.856   3.178   2.774
77086SOL     OW33154   9.038   4.011  10.733
77086SOL    HW133155   9.119   3.983  10.775
77086SOL    HW233156   9.045   4.106  10.726
77087SOL     OW33157  14.316  12.650  12.137
77087SOL    HW133158  14.275  12.613  12.216
77087SOL    HW233159  14.247  12.647  12.071
77088SOL     OW33160  11.904  10.870   3.778
77088SOL    HW133161  11.812  10.854   3.799
77088SOL    HW233162  11.950  10.795   3.816
77089SOL     OW33163   3.667  10.234  10.769
77089SOL    HW133164   3.707  10.192  10.693
77089SOL    HW233165   3.694  10.180  10.844
77090SOL     OW33166   9.777   6.432  10.704
77090SOL    HW133167   9.789   6.520  10.740
77090SOL    HW233168   9.709   6.392  10.758
77091SOL     OW33169   7.006  10.354   6.013
77091SOL    HW133170   6.932  10.309   6.054
77091SOL    HW233171   6.989  10.346   5.919
77092SOL     OW33172   7.029   7.545   1.137
77092SOL    HW133173   7.053   7.614   1.075
77092SOL    HW233174   7.063   7.576   1.221
77093SOL     OW33175   0.487  11.274  10.618
77093SOL    HW133176   0.459  11.191  10.657
77093SOL    HW233177   0.561  11.302  10.671
77094SOL     OW33178  11.251   6.926   2.145
77094SOL    HW133179  11.164   6.967   2.153
77094SOL    HW233180  11.238   6.836   2.175
77095SOL     OW33181   9.976   9.040   9.316
77095SOL    HW133182  10.054   8.995   9.284
77095SOL    HW233183  10.001   9.073   9.402
77096SOL     OW33184   8.488   1.883   5.143
77096SOL    HW133185   8.545   1.849   5.074
77096SOL    HW233186   8.521   1.971   5.161
77097SOL     OW33187   0.026   9.782   9.493
77097SOL    HW133188   0.116   9.764   9.520
77097SOL    HW233189  14.858   9.808   9.573
77098SOL     OW33190   4.922  11.042   7.038
77098SOL    HW133191   4.889  11.085   6.959
77098SOL    HW233192   4.859  11.064   7.106
77099SOL     OW33193   5.794  10.871  12.030
77099SOL    HW133194   5.751  10.834  12.107
77099SOL    HW233195   5.826  10.957  12.059
77100SOL     OW33196   2.518   7.443  10.374
77100SOL    HW133197   2.603   7.478  10.350
77100SOL    HW233198   2.496   7.486  10.457
77101SOL     OW33199  11.357   7.335  10.191
77101SOL    HW133200  11.271   7.369  10.166
77101SOL    HW233201  11.420   7.391  10.145
77102SOL     OW33202  11.569   6.584   1.054
77102SOL    HW133203  11.498   6.626   1.102
77102SOL    HW233204  11.643   6.643   1.064
77103SOL     OW33205  13.806   9.207   3.300
77103SOL    HW133206  13.892   9.175   3.328
77103SOL    HW233207  13.825   9.259   3.222
77104SOL     OW33208  13.912   3.297  14.164
77104SOL    HW133209  13.936   3.205  14.156
77104SOL    HW233210  13.832   3.306  14.110
77105SOL     OW33211   4.426  11.833   9.695
77105SOL    HW133212   4.422  11.912   9.749
77105SOL    HW233213   4.495  11.851   9.631
77106SOL     OW33214   0.897  14.230  10.590
77106SOL    HW133215   0.942  14.152  10.623
77106SOL    HW233216   0.947  14.257  10.513
77107SOL     OW33217  13.946  13.087  13.263
77107SOL    HW133218  13.923  13.020  13.327
77107SOL    HW233219  14.037  13.070  13.242
77108SOL     OW33220  13.136  14.747  11.048
77108SOL    HW133221  13.073  14.675  11.039
77108SOL    HW233222  13.173  14.758  10.961
77109SOL     OW33223   8.336   4.314   5.857
77109SOL    HW133224   8.289   4.324   5.774
77109SOL    HW233225   8.426   4.340   5.837
77110SOL     OW33226   2.076  11.305   7.548
77110SOL    HW133227   2.094  11.236   7.612
77110SOL    HW233228   2.082  11.386   7.599
77111SOL     OW33229  13.805   6.352  13.399
77111SOL    HW133230  13.773   6.394  13.319
77111SOL    HW233231  13.809   6.422  13.463
77112SOL     OW33232   6.772  14.814   6.226
77112SOL    HW133233   6.749   0.020   6.268
77112SOL    HW233234   6.704  14.753   6.255
77113SOL     OW33235   8.298  14.075   4.888
77113SOL    HW133236   8.260  14.150   4.934
77113SOL    HW233237   8.324  14.109   4.802
77114SOL     OW33238  10.022   4.783   2.262
77114SOL    HW133239   9.977   4.787   2.177
77114SOL    HW233240   9.953   4.800   2.326
77115SOL     OW33241  12.477   2.980   3.426
77115SOL    HW133242  12.407   2.958   3.364
77115SOL    HW233243  12.445   3.059   3.470
77116SOL     OW33244   8.372   2.496   9.826
77116SOL    HW133245   8.325   2.415   9.847
77116SOL    HW233246   8.407   2.481   9.738
77117SOL     OW33247   4.184   2.120   6.452
77117SOL    HW133248   4.186   2.092   6.544
77117SOL    HW233249   4.138   2.049   6.407
77118SOL     OW33250  10.802   3.135  13.758
77118SOL    HW133251  10.833   3.223  13.734
77118SOL    HW233252  10.790   3.091  13.674
77119SOL     OW33253   2.437   7.897   5.841
77119SOL    HW133254   2.386   7.919   5.763
77119SOL    HW233255   2.468   7.808   5.825
77120SOL     OW33256   4.497   7.684   2.377
77120SOL    HW133257   4.495   7.718   2.466
77120SOL    HW233258   4.508   7.761   2.321
77121SOL     OW33259   4.809   4.047   2.520
77121SOL    HW133260   4.714   4.056   2.522
77121SOL    HW233261   4.842   4.120   2.571
77122SOL     OW33262   0.046   6.398  10.226
77122SOL    HW133263   0.058   6.358  10.139
77122SOL    HW233264  14.859   6.467  10.212
77123SOL     OW33265   5.480   6.571  11.711
77123SOL    HW133266   5.521   6.510  11.649
77123SOL    HW233267   5.396   6.530  11.733
77124SOL     OW33268   7.201   1.927  14.288
77124SOL    HW133269   7.216   1.998  14.351
77124SOL    HW233270   7.269   1.862  14.308
77125SOL     OW33271   3.777   5.678  12.189
77125SOL    HW133272   3.757   5.600  12.138
77125SOL    HW233273   3.770   5.649  12.280
77126SOL     OW33274  10.076   9.875   2.979
77126SOL    HW133275  10.121   9.934   2.918
77126SOL    HW233276  10.144   9.842   3.036
77127SOL     OW33277  12.139   6.373   8.659
77127SOL    HW133278  12.162   6.395   8.569
77127SOL    HW233279  12.207   6.413   8.712
77128SOL     OW33280   2.242   8.339   2.560
77128SOL    HW133281   2.175   8.316   2.496
77128SOL    HW233282   2.234   8.273   2.628
77129SOL     OW33283   3.047   2.255   7.177
77129SOL    HW133284   3.097   2.233   7.098
77129SOL    HW233285   3.112   2.293   7.236
77130SOL     OW33286   5.751   4.349   5.357
77130SOL    HW133287   5.765   4.269   5.408
77130SOL    HW233288   5.722   4.413   5.421
77131SOL     OW33289   5.100   7.674  14.394
77131SOL    HW133290   5.073   7.765  14.401
77131SOL    HW233291   5.086   7.652  14.302
77132SOL     OW33292   5.662  11.366  11.491
77132SOL    HW133293   5.701  11.339  11.575
77132SOL    HW233294   5.734  11.358  11.428
77133SOL     OW33295   9.605   1.365   8.077
77133SOL    HW133296   9.522   1.347   8.033
77133SOL    HW233297   9.630   1.282   8.116
77134SOL     OW33298   1.785   9.004  12.711
77134SOL    HW133299   1.736   8.927  12.739
77134SOL    HW233300   1.736   9.038  12.637
77135SOL     OW33301  13.994  13.418  11.758
77135SOL    HW133302  13.945  13.337  11.741
77135SOL    HW233303  14.071  13.389  11.808
77136SOL     OW33304   5.718   7.811   9.341
77136SOL    HW133305   5.721   7.732   9.287
77136SOL    HW233306   5.788   7.799   9.405
77137SOL     OW33307  14.810   1.889   8.247
77137SOL    HW133308  14.845   1.885   8.336
77137SOL    HW233309  14.736   1.950   8.252
77138SOL     OW33310  11.504   0.425   0.841
77138SOL    HW133311  11.522   0.515   0.814
77138SOL    HW233312  11.444   0.392   0.774
77139SOL     OW33313  12.743   9.872   7.228
77139SOL    HW133314  12.716   9.800   7.171
77139SOL    HW233315  12.752   9.833   7.315
77140SOL     OW33316   3.642  13.034   9.863
77140SOL    HW133317   3.717  13.090   9.839
77140SOL    HW233318   3.681  12.950   9.885
77141SOL     OW33319   0.273  11.497  11.162
77141SOL    HW133320   0.358  11.541  11.164
77141SOL    HW233321   0.262  11.470  11.071
77142SOL     OW33322   4.585  12.778   1.031
77142SOL    HW133323   4.516  12.718   1.061
77142SOL    HW233324   4.644  12.785   1.106
77143SOL     OW33325   3.289   5.391   8.917
77143SOL    HW133326   3.309   5.312   8.867
77143SOL    HW233327   3.275   5.360   9.006
77144SOL     OW33328  11.193  14.390  10.760
77144SOL    HW133329  11.232  14.364  10.677
77144SOL    HW233330  11.171  14.307  10.803
77145SOL     OW33331   1.512   4.089  13.620
77145SOL    HW133332   1.459   4.139  13.557
77145SOL    HW233333   1.583   4.148  13.644
77146SOL     OW33334   0.148   9.922   0.767
77146SOL    HW133335   0.092   9.859   0.812
77146SOL    HW233336   0.140  10.003   0.818
77147SOL     OW33337   2.702  10.842  11.526
77147SOL    HW133338   2.677  10.909  11.463
77147SOL    HW233339   2.661  10.761  11.494
77148SOL     OW33340   2.800  11.453  12.227
77148SOL    HW133341   2.860  11.497  12.288
77148SOL    HW233342   2.817  11.496  12.143
77149SOL     OW33343   2.258  11.261   9.859
77149SOL    HW133344   2.252  11.331   9.924
77149SOL    HW233345   2.214  11.187   9.899
77150SOL     OW33346   3.325  11.909   5.881
77150SOL    HW133347   3.413  11.882   5.854
77150SOL    HW233348   3.267  11.850   5.833
77151SOL     OW33349   9.871   4.899  13.703
77151SOL    HW133350   9.933   4.958  13.745
77151SOL    HW233351   9.887   4.909  13.610
77152SOL     OW33352   6.920   9.708  12.945
77152SOL    HW133353   7.007   9.682  12.975
77152SOL    HW233354   6.864   9.633  12.966
77153SOL     OW33355   7.298  11.582  14.181
77153SOL    HW133356   7.377  11.572  14.127
77153SOL    HW233357   7.255  11.497  14.176
77154SOL     OW33358   6.600   9.948   5.755
77154SOL    HW133359   6.539   9.964   5.684
77154SOL    HW233360   6.645  10.032   5.768
77155SOL     OW33361  14.128   2.806   9.025
77155SOL    HW133362  14.129   2.902   9.035
77155SOL    HW233363  14.220   2.781   9.023
77156SOL     OW33364  12.925   5.978   9.985
77156SOL    HW133365  13.008   5.995  10.031
77156SOL    HW233366  12.872   6.055  10.004
77157SOL     OW33367  14.511   7.120   5.674
77157SOL    HW133368  14.476   7.042   5.631
77157SOL    HW233369  14.499   7.104   5.768
77158SOL     OW33370   8.206   5.283   4.214
77158SOL    HW133371   8.236   5.224   4.283
77158SOL    HW233372   8.150   5.227   4.159
77159SOL     OW33373   9.752  11.542   7.577
77159SOL    HW133374   9.728  11.546   7.669
77159SOL    HW233375   9.793  11.456   7.566
77160SOL     OW33376   8.141   2.986  13.140
77160SOL    HW133377   8.140   3.048  13.213
77160SOL    HW233378   8.233   2.961  13.130
77161SOL     OW33379  12.219   8.608   1.302
77161SOL    HW133380  12.251   8.597   1.392
77161SOL    HW233381  12.292   8.648   1.255
77162SOL     OW33382   5.159   6.168  11.315
77162SOL    HW133383   5.201   6.108  11.377
77162SOL    HW233384   5.071   6.182  11.351
77163SOL     OW33385   9.076   1.493  13.326
77163SOL    HW133386   9.023   1.564  13.363
77163SOL    HW233387   9.101   1.440  13.402
77164SOL     OW33388   2.042  12.980   4.856
77164SOL    HW133389   2.008  13.021   4.776
77164SOL    HW233390   2.113  13.037   4.883
77165SOL     OW33391  13.306  14.389   8.609
77165SOL    HW133392  13.284  14.314   8.553
77165SOL    HW233393  13.264  14.464   8.566
77166SOL     OW33394   8.939   3.613  11.295
77166SOL    HW133395   8.998   3.654  11.359
77166SOL    HW233396   8.998   3.573  11.231
77167SOL     OW33397   4.079  11.694   4.913
77167SOL    HW133398   4.075  11.748   4.834
77167SOL    HW233399   4.171  11.697   4.939
77168SOL     OW33400   5.625   8.391  12.880
77168SOL    HW133401   5.532   8.412  12.881
77168SOL    HW233402   5.639   8.343  12.962
77169SOL     OW33403   4.061   5.044   8.449
77169SOL    HW133404   4.125   5.069   8.515
77169SOL    HW233405   4.106   4.978   8.396
77170SOL     OW33406   1.663   1.663   7.376
77170SOL    HW133407   1.747   1.636   7.412
77170SOL    HW233408   1.685   1.720   7.302
77171SOL     OW33409  10.440   4.161   1.526
77171SOL    HW133410  10.489   4.231   1.569
77171SOL    HW233411  10.468   4.081   1.570
77172SOL     OW33412   0.333   9.824   0.140
77172SOL    HW133413   0.340   9.915   0.112
77172SOL    HW233414   0.261   9.788   0.088
77173SOL     OW33415   9.697   7.369   4.612
77173SOL    HW133416   9.779   7.331   4.581
77173SOL    HW233417   9.724   7.442   4.667
77174SOL     OW33418   7.931   1.583   4.850
77174SOL    HW133419   7.903   1.675   4.858
77174SOL    HW233420   7.849   1.534   4.845
77175SOL     OW33421  14.254  10.754   5.958
77175SOL    HW133422  14.169  10.793   5.940
77175SOL    HW233423  14.250  10.725   6.049
77176SOL     OW33424   1.070   8.548   9.010
77176SOL    HW133425   0.978   8.563   9.028
77176SOL    HW233426   1.072   8.463   8.965
77177SOL     OW33427  13.649   8.657   2.531
77177SOL    HW133428  13.570   8.703   2.558
77177SOL    HW233429  13.655   8.581   2.589
77178SOL     OW33430   9.814   9.017  14.690
77178SOL    HW133431   9.734   8.968  14.673
77178SOL    HW233432   9.842   9.048  14.603
77179SOL     OW33433  10.479   1.728   4.929
77179SOL    HW133434  10.513   1.786   4.861
77179SOL    HW233435  10.551   1.718   4.991
77180SOL     OW33436   6.850  13.933  10.414
77180SOL    HW133437   6.777  13.878  10.443
77180SOL    HW233438   6.874  13.983  10.492
77181SOL     OW33439  14.175  13.184  12.641
77181SOL    HW133440  14.265  13.216  12.636
77181SOL    HW233441  14.136  13.209  12.557
77182SOL     OW33442   4.656   6.610   2.694
77182SOL    HW133443   4.684   6.669   2.625
77182SOL    HW233444   4.727   6.612   2.758
77183SOL     OW33445   7.890   7.617   1.086
77183SOL    HW133446   7.841   7.695   1.113
77183SOL    HW233447   7.870   7.608   0.992
77184SOL     OW33448   6.664  13.628   1.116
77184SOL    HW133449   6.662  13.589   1.203
77184SOL    HW233450   6.752  13.663   1.107
77185SOL     OW33451  10.892   4.458   1.380
77185SOL    HW133452  10.927   4.479   1.466
77185SOL    HW233453  10.918   4.532   1.324
77186SOL     OW33454  13.169   0.124  10.472
77186SOL    HW133455  13.230   0.195  10.491
77186SOL    HW233456  13.175   0.066  10.547
77187SOL     OW33457   6.443   2.102  10.937
77187SOL    HW133458   6.437   2.195  10.913
77187SOL    HW233459   6.436   2.103  11.033
77188SOL     OW33460   3.220  13.402   2.289
77188SOL    HW133461   3.158  13.349   2.340
77188SOL    HW233462   3.179  13.411   2.203
77189SOL     OW33463   4.344   9.220   2.777
77189SOL    HW133464   4.413   9.251   2.719
77189SOL    HW233465   4.381   9.227   2.865
77190SOL     OW33466   6.947   5.923   3.297
77190SOL    HW133467   6.869   5.941   3.350
77190SOL    HW233468   6.978   5.838   3.329
77191SOL     OW33469   1.954   4.635  10.606
77191SOL    HW133470   1.958   4.680  10.521
77191SOL    HW233471   1.898   4.691  10.660
77192SOL     OW33472  11.939   5.207  12.177
77192SOL    HW133473  11.919   5.128  12.227
77192SOL    HW233474  11.860   5.261  12.184
77193SOL     OW33475   5.100   3.486  14.837
77193SOL    HW133476   5.084   3.554  14.772
77193SOL    HW233477   5.195   3.471  14.833
77194SOL     OW33478  11.048  11.190   9.707
77194SOL    HW133479  11.024  11.244   9.631
77194SOL    HW233480  11.141  11.169   9.693
77195SOL     OW33481   7.952  13.413  12.318
77195SOL    HW133482   7.974  13.501  12.351
77195SOL    HW233483   7.918  13.428  12.230
77196SOL     OW33484  12.435   8.957   9.864
77196SOL    HW133485  12.480   9.031   9.905
77196SOL    HW233486  12.395   8.993   9.785
77197SOL     OW33487   0.355   7.214  14.218
77197SOL    HW133488   0.382   7.124  14.238
77197SOL    HW233489   0.266   7.221  14.253
77198SOL     OW33490   4.424  10.378   2.848
77198SOL    HW133491   4.512  10.364   2.883
77198SOL    HW233492   4.385  10.290   2.848
77199SOL     OW33493   7.331  10.517   4.589
77199SOL    HW133494   7.283  10.586   4.544
77199SOL    HW233495   7.397  10.488   4.526
77200SOL     OW33496  13.027   5.933  11.971
77200SOL    HW133497  13.018   6.029  11.973
77200SOL    HW233498  12.943   5.901  12.004
77201SOL     OW33499   0.760   3.424   7.143
77201SOL    HW133500   0.788   3.332   7.135
77201SOL    HW233501   0.812   3.470   7.077
77202SOL     OW33502   7.297   1.606  13.662
77202SOL    HW133503   7.317   1.699  13.665
77202SOL    HW233504   7.347   1.568  13.734
77203SOL     OW33505   4.782  12.813   8.221
77203SOL    HW133506   4.729  12.874   8.272
77203SOL    HW233507   4.762  12.833   8.130
77204SOL     OW33508   8.959   0.519  13.756
77204SOL    HW133509   8.911   0.477  13.828
77204SOL    HW233510   8.894   0.576  13.715
77205SOL     OW33511   2.537   4.949   2.639
77205SOL    HW133512   2.620   4.903   2.649
77205SOL    HW233513   2.561   5.039   2.619
77206SOL     OW33514   9.809   1.358  10.567
77206SOL    HW133515   9.714   1.349  10.576
77206SOL    HW233516   9.843   1.331  10.653
77207SOL     OW33517   4.129   7.029   8.391
77207SOL    HW133518   4.061   6.992   8.336
77207SOL    HW233519   4.082   7.074   8.461
77208SOL     OW33520   0.170   7.210   0.867
77208SOL    HW133521   0.075   7.211   0.860
77208SOL    HW233522   0.195   7.118   0.856
77209SOL     OW33523  13.058   2.241   9.839
77209SOL    HW133524  13.146   2.271   9.863
77209SOL    HW233525  13.015   2.319   9.803
77210SOL     OW33526  13.600   3.243  10.764
77210SOL    HW133527  13.650   3.231  10.683
77210SOL    HW233528  13.572   3.155  10.789
77211SOL     OW33529  10.025  12.330   0.052
77211SOL    HW133530   9.996  12.416   0.021
77211SOL    HW233531  10.053  12.283  14.851
77212SOL     OW33532  11.904  11.844  10.548
77212SOL    HW133533  11.923  11.937  10.547
77212SOL    HW233534  11.989  11.801  10.555
77213SOL     OW33535  14.843  13.194   9.897
77213SOL    HW133536  14.867  13.260   9.832
77213SOL    HW233537  14.823  13.244   9.976
77214SOL     OW33538  11.931   5.168   8.197
77214SOL    HW133539  11.948   5.079   8.226
77214SOL    HW233540  11.849   5.162   8.148
77215SOL     OW33541   8.138   1.850   2.394
77215SOL    HW133542   8.047   1.830   2.414
77215SOL    HW233543   8.176   1.875   2.478
77216SOL     OW33544   6.328  10.118   9.957
77216SOL    HW133545   6.257  10.152   9.902
77216SOL    HW233546   6.299  10.030   9.982
77217SOL     OW33547  12.840  10.155   5.282
77217SOL    HW133548  12.851  10.116   5.196
77217SOL    HW233549  12.780  10.229   5.268
77218SOL     OW33550   9.401   1.576   5.603
77218SOL    HW133551   9.459   1.608   5.534
77218SOL    HW233552   9.374   1.489   5.573
77219SOL     OW33553  14.856   1.959   5.982
77219SOL    HW133554   0.014   1.931   5.897
77219SOL    HW233555  14.799   1.887   6.009
77220SOL     OW33556  13.215  11.931   5.968
77220SOL    HW133557  13.182  11.988   6.037
77220SOL    HW233558  13.137  11.911   5.915
77221SOL     OW33559   7.333  14.524   4.673
77221SOL    HW133560   7.364  14.569   4.751
77221SOL    HW233561   7.352  14.584   4.601
77222SOL     OW33562   5.854  10.480  14.667
77222SOL    HW133563   5.788  10.492  14.735
77222SOL    HW233564   5.834  10.547  14.601
77223SOL     OW33565   4.459  12.192   1.488
77223SOL    HW133566   4.489  12.108   1.453
77223SOL    HW233567   4.410  12.232   1.417
77224SOL     OW33568  12.666   6.211   5.437
77224SOL    HW133569  12.650   6.124   5.399
77224SOL    HW233570  12.606   6.269   5.389
77225SOL     OW33571   4.023   2.083   9.096
77225SOL    HW133572   4.106   2.044   9.125
77225SOL    HW233573   3.959   2.012   9.104
77226SOL     OW33574   5.353  14.339   0.684
77226SOL    HW133575   5.400  14.419   0.659
77226SOL    HW233576   5.409  14.268   0.654
77227SOL     OW33577   6.047   1.476  11.770
77227SOL    HW133578   6.046   1.483  11.865
77227SOL    HW233579   6.081   1.561  11.740
77228SOL     OW33580  14.408   7.809  10.793
77228SOL    HW133581  14.321   7.793  10.829
77228SOL    HW233582  14.417   7.904  10.792
77229SOL     OW33583   0.441   1.299   7.883
77229SOL    HW133584   0.434   1.394   7.869
77229SOL    HW233585   0.376   1.280   7.951
77230SOL     OW33586   0.922  11.444  14.501
77230SOL    HW133587   0.920  11.500  14.424
77230SOL    HW233588   0.969  11.365  14.473
77231SOL     OW33589   0.063  11.856  10.014
77231SOL    HW133590   0.144  11.850  10.066
77231SOL    HW233591   0.090  11.901   9.934
77232SOL     OW33592   7.948   5.648   4.719
77232SOL    HW133593   7.980   5.728   4.760
77232SOL    HW233594   7.863   5.632   4.761
77233SOL     OW33595  14.179   5.392  14.611
77233SOL    HW133596  14.149   5.470  14.564
77233SOL    HW233597  14.177   5.417  14.703
77234SOL     OW33598   7.757  12.899  14.461
77234SOL    HW133599   7.720  12.982  14.432
77234SOL    HW233600   7.680  12.844  14.480
77235SOL     OW33601  14.090   4.261  12.437
77235SOL    HW133602  14.132   4.175  12.434
77235SOL    HW233603  14.104   4.298  12.349
77236SOL     OW33604  14.328  11.697   3.704
77236SOL    HW133605  14.392  11.703   3.632
77236SOL    HW233606  14.297  11.606   3.701
77237SOL     OW33607  10.642  11.107  12.296
77237SOL    HW133608  10.693  11.100  12.215
77237SOL    HW233609  10.560  11.148  12.269
77238SOL     OW33610  11.610  11.484   3.166
77238SOL    HW133611  11.679  11.441   3.115
77238SOL    HW233612  11.531  11.435   3.145
77239SOL     OW33613   2.857   7.133   1.195
77239SOL    HW133614   2.767   7.101   1.200
77239SOL    HW233615   2.911   7.054   1.206
77240SOL     OW33616   2.001   7.111   7.945
77240SOL    HW133617   1.947   7.189   7.952
77240SOL    HW233618   2.088   7.143   7.921
77241SOL     OW33619   8.432  10.528   6.505
77241SOL    HW133620   8.376  10.551   6.431
77241SOL    HW233621   8.462  10.439   6.485
77242SOL     OW33622  13.587   3.812   3.603
77242SOL    HW133623  13.526   3.738   3.609
77242SOL    HW233624  13.535   3.884   3.569
77243SOL     OW33625   9.720   5.306   5.137
77243SOL    HW133626   9.747   5.386   5.091
77243SOL    HW233627   9.780   5.239   5.105
77244SOL     OW33628   2.478   1.340  13.483
77244SOL    HW133629   2.427   1.390  13.420
77244SOL    HW233630   2.559   1.318  13.436
77245SOL     OW33631   3.548   6.330  11.139
77245SOL    HW133632   3.563   6.365  11.227
77245SOL    HW233633   3.586   6.396  11.081
77246SOL     OW33634   9.059   5.592   7.284
77246SOL    HW133635   9.036   5.616   7.374
77246SOL    HW233636   9.088   5.674   7.244
77247SOL     OW33637  13.541   8.136   1.427
77247SOL    HW133638  13.517   8.199   1.359
77247SOL    HW233639  13.611   8.084   1.388
77248SOL     OW33640   4.808  12.270   6.137
77248SOL    HW133641   4.834  12.319   6.059
77248SOL    HW233642   4.888  12.262   6.188
77249SOL     OW33643   0.406   5.706   5.410
77249SOL    HW133644   0.336   5.756   5.367
77249SOL    HW233645   0.475   5.700   5.344
77250SOL     OW33646  13.559   6.499   2.338
77250SOL    HW133647  13.645   6.520   2.375
77250SOL    HW233648  13.498   6.516   2.410
77251SOL     OW33649   0.334   1.871  10.558
77251SOL    HW133650   0.302   1.793  10.513
77251SOL    HW233651   0.334   1.847  10.650
77252SOL     OW33652   7.742   0.181   3.271
77252SOL    HW133653   7.781   0.220   3.348
77252SOL    HW233654   7.763   0.087   3.278
77253SOL     OW33655   3.292  14.225   1.984
77253SOL    HW133656   3.341  14.275   2.048
77253SOL    HW233657   3.249  14.156   2.034
77254SOL     OW33658   7.221  13.073   8.675
77254SOL    HW133659   7.198  12.983   8.649
77254SOL    HW233660   7.314  13.081   8.654
77255SOL     OW33661  11.310   7.644   4.372
77255SOL    HW133662  11.260   7.568   4.343
77255SOL    HW233663  11.331   7.691   4.291
77256SOL     OW33664  14.810   7.202   7.552
77256SOL    HW133665  14.723   7.170   7.579
77256SOL    HW233666  14.835   7.263   7.621
77257SOL     OW33667   3.169  14.583   6.529
77257SOL    HW133668   3.238  14.618   6.472
77257SOL    HW233669   3.138  14.659   6.578
77258SOL     OW33670   2.977   6.020  13.912
77258SOL    HW133671   2.925   5.950  13.874
77258SOL    HW233672   2.997   6.077  13.838
77259SOL     OW33673  14.830   5.057   5.488
77259SOL    HW133674   0.044   5.044   5.514
77259SOL    HW233675  14.787   4.975   5.510
77260SOL     OW33676   2.480   6.574  11.326
77260SOL    HW133677   2.544   6.613  11.385
77260SOL    HW233678   2.499   6.480  11.330
77261SOL     OW33679  12.082   1.056   2.012
77261SOL    HW133680  12.056   1.121   1.947
77261SOL    HW233681  12.034   0.977   1.988
77262SOL     OW33682   0.850   3.187   7.020
77262SOL    HW133683   0.895   3.107   7.046
77262SOL    HW233684   0.918   3.242   6.981
77263SOL     OW33685   7.985   0.112   3.457
77263SOL    HW133686   8.011   0.053   3.528
77263SOL    HW233687   8.022   0.197   3.482
77264SOL     OW33688   7.575   5.706  10.182
77264SOL    HW133689   7.568   5.775  10.247
77264SOL    HW233690   7.660   5.721  10.140
77265SOL     OW33691   2.576  13.654   3.962
77265SOL    HW133692   2.541  13.570   3.932
77265SOL    HW233693   2.658  13.664   3.915
77266SOL     OW33694   4.991   3.835  11.185
77266SOL    HW133695   4.980   3.794  11.271
77266SOL    HW233696   5.041   3.915  11.203
77267SOL     OW33697  14.173  12.606   8.832
77267SOL    HW133698  14.148  12.635   8.744
77267SOL    HW233699  14.106  12.641   8.889
77268SOL     OW33700   8.080  14.475   6.451
77268SOL    HW133701   8.032  14.399   6.417
77268SOL    HW233702   8.031  14.501   6.529
77269SOL     OW33703   8.949  10.472  10.631
77269SOL    HW133704   8.973  10.422  10.709
77269SOL    HW233705   8.854  10.473  10.632
77270SOL     OW33706  13.329   5.725  10.199
77270SOL    HW133707  13.287   5.683  10.124
77270SOL    HW233708  13.417   5.687  10.202
77271SOL     OW33709   7.535   2.040  13.860
77271SOL    HW133710   7.621   2.018  13.824
77271SOL    HW233711   7.511   2.121  13.816
77272SOL     OW33712  13.638  13.396   3.614
77272SOL    HW133713  13.714  13.353   3.654
77272SOL    HW233714  13.565  13.337   3.633
77273SOL     OW33715   5.177   5.788   3.993
77273SOL    HW133716   5.197   5.694   3.992
77273SOL    HW233717   5.180   5.814   3.901
77274SOL     OW33718   9.363  14.460   4.437
77274SOL    HW133719   9.415  14.538   4.457
77274SOL    HW233720   9.412  14.388   4.475
77275SOL     OW33721   1.999   2.946   1.489
77275SOL    HW133722   1.917   2.960   1.536
77275SOL    HW233723   2.058   2.908   1.553
77276SOL     OW33724   7.685   8.751   8.165
77276SOL    HW133725   7.710   8.792   8.247
77276SOL    HW233726   7.769   8.734   8.120
77277SOL     OW33727   4.600   2.449  11.710
77277SOL    HW133728   4.573   2.539  11.727
77277SOL    HW233729   4.684   2.456  11.665
77278SOL     OW33730   4.209   2.582   5.625
77278SOL    HW133731   4.146   2.652   5.642
77278SOL    HW233732   4.284   2.626   5.585
77279SOL     OW33733  13.270  13.496  10.728
77279SOL    HW133734  13.269  13.550  10.649
77279SOL    HW233735  13.178  13.474  10.744
77280SOL     OW33736   2.131  11.934   3.513
77280SOL    HW133737   2.143  11.840   3.527
77280SOL    HW233738   2.218  11.972   3.529
77281SOL     OW33739   5.487   1.906   3.821
77281SOL    HW133740   5.529   1.826   3.853
77281SOL    HW233741   5.551   1.975   3.837
77282SOL     OW33742   9.062   0.609   6.432
77282SOL    HW133743   9.146   0.562   6.436
77282SOL    HW233744   9.082   0.691   6.387
77283SOL     OW33745   1.391  10.973  11.196
77283SOL    HW133746   1.416  10.890  11.236
77283SOL    HW233747   1.438  11.040  11.246
77284SOL     OW33748   9.269   4.549  10.089
77284SOL    HW133749   9.244   4.523  10.000
77284SOL    HW233750   9.291   4.642  10.081
77285SOL     OW33751   2.498   8.886   8.385
77285SOL    HW133752   2.541   8.807   8.416
77285SOL    HW233753   2.552   8.915   8.312
77286SOL     OW33754   3.490   6.351  10.746
77286SOL    HW133755   3.517   6.353  10.654
77286SOL    HW233756   3.444   6.268  10.755
77287SOL     OW33757   2.289   6.826  10.303
77287SOL    HW133758   2.239   6.880  10.242
77287SOL    HW233759   2.250   6.845  10.389
77288SOL     OW33760   7.355   1.839  12.241
77288SOL    HW133761   7.315   1.884  12.167
77288SOL    HW233762   7.443   1.877  12.248
77289SOL     OW33763   9.089  12.667   1.666
77289SOL    HW133764   9.112  12.596   1.606
77289SOL    HW233765   9.000  12.691   1.642
77290SOL     OW33766  11.949  11.172   0.355
77290SOL    HW133767  11.976  11.198   0.267
77290SOL    HW233768  11.928  11.254   0.399
77291SOL     OW33769   3.352   2.708   1.680
77291SOL    HW133770   3.441   2.726   1.649
77291SOL    HW233771   3.301   2.693   1.600
77292SOL     OW33772   0.651   1.137   0.150
77292SOL    HW133773   0.699   1.195   0.091
77292SOL    HW233774   0.648   1.185   0.233
77293SOL     OW33775   1.039   3.897  10.203
77293SOL    HW133776   1.085   3.913  10.286
77293SOL    HW233777   1.095   3.833  10.158
77294SOL     OW33778   2.161   0.160  12.190
77294SOL    HW133779   2.111   0.136  12.112
77294SOL    HW233780   2.135   0.250  12.208
77295SOL     OW33781  11.025   1.813   5.494
77295SOL    HW133782  11.044   1.888   5.550
77295SOL    HW233783  10.934   1.790   5.515
77296SOL     OW33784   4.102   4.207  13.865
77296SOL    HW133785   4.076   4.115  13.867
77296SOL    HW233786   4.191   4.208  13.900
77297SOL     OW33787  10.740  13.374  13.234
77297SOL    HW133788  10.685  13.295  13.241
77297SOL    HW233789  10.715  13.413  13.151
77298SOL     OW33790   3.378  13.747   4.536
77298SOL    HW133791   3.329  13.804   4.595
77298SOL    HW233792   3.432  13.806   4.484
77299SOL     OW33793  11.157  14.697   1.298
77299SOL    HW133794  11.077  14.719   1.345
77299SOL    HW233795  11.162  14.761   1.226
77300SOL     OW33796   8.813  12.040   5.856
77300SOL    HW133797   8.811  12.125   5.813
77300SOL    HW233798   8.906  12.023   5.872
77301SOL     OW33799   9.497   9.337   1.864
77301SOL    HW133800   9.519   9.264   1.922
77301SOL    HW233801   9.425   9.382   1.908
77302SOL     OW33802   3.073  14.364   0.927
77302SOL    HW133803   3.085  14.408   0.843
77302SOL    HW233804   3.156  14.376   0.973
77303SOL     OW33805  12.981  12.633   6.831
77303SOL    HW133806  12.926  12.626   6.908
77303SOL    HW233807  13.042  12.560   6.838
77304SOL     OW33808   9.467   1.303  13.801
77304SOL    HW133809   9.430   1.301  13.890
77304SOL    HW233810   9.557   1.334  13.813
77305SOL     OW33811   7.737   4.539   3.998
77305SOL    HW133812   7.736   4.634   4.012
77305SOL    HW233813   7.819   4.509   4.037
77306SOL     OW33814  12.094   1.312   1.892
77306SOL    HW133815  12.006   1.347   1.876
77306SOL    HW233816  12.152   1.387   1.876
77307SOL     OW33817   5.489   5.433   9.954
77307SOL    HW133818   5.487   5.407  10.046
77307SOL    HW233819   5.402   5.412   9.921
77308SOL     OW33820   9.263   0.484  11.339
77308SOL    HW133821   9.340   0.430  11.322
77308SOL    HW233822   9.190   0.431  11.308
77309SOL     OW33823   1.383   4.059   4.829
77309SOL    HW133824   1.434   4.130   4.788
77309SOL    HW233825   1.447   3.990   4.846
77310SOL     OW33826   6.916  12.425   6.415
77310SOL    HW133827   6.821  12.434   6.412
77310SOL    HW233828   6.940  12.391   6.329
77311SOL     OW33829  11.336   3.980   4.504
77311SOL    HW133830  11.259   3.952   4.555
77311SOL    HW233831  11.377   4.047   4.557
77312SOL     OW33832   2.260   8.957   5.870
77312SOL    HW133833   2.193   9.010   5.828
77312SOL    HW233834   2.317   9.020   5.914
77313SOL     OW33835   9.185   5.863   1.489
77313SOL    HW133836   9.165   5.822   1.405
77313SOL    HW233837   9.280   5.870   1.490
77314SOL     OW33838  11.289  14.419  11.678
77314SOL    HW133839  11.326  14.334  11.652
77314SOL    HW233840  11.264  14.460  11.595
77315SOL     OW33841   2.936   5.127   6.952
77315SOL    HW133842   2.999   5.142   6.882
77315SOL    HW233843   2.989   5.120   7.031
77316SOL     OW33844  14.049   4.277   5.141
77316SOL    HW133845  14.046   4.333   5.064
77316SOL    HW233846  14.136   4.291   5.178
77317SOL     OW33847   6.871   4.109   9.274
77317SOL    HW133848   6.911   4.027   9.304
77317SOL    HW233849   6.927   4.137   9.201
77318SOL     OW33850  12.011   2.868   3.584
77318SOL    HW133851  12.006   2.828   3.497
77318SOL    HW233852  12.071   2.812   3.632
77319SOL     OW33853   2.650   5.205   2.637
77319SOL    HW133854   2.637   5.248   2.721
77319SOL    HW233855   2.745   5.199   2.628
77320SOL     OW33856   1.956   5.499  11.987
77320SOL    HW133857   1.870   5.490  11.948
77320SOL    HW233858   1.960   5.590  12.017
77321SOL     OW33859   6.111   7.741   9.139
77321SOL    HW133860   6.106   7.782   9.225
77321SOL    HW233861   6.154   7.657   9.155
77322SOL     OW33862  13.637   0.820   9.551
77322SOL    HW133863  13.631   0.914   9.564
77322SOL    HW233864  13.653   0.784   9.639
77323SOL     OW33865   5.977   0.941   8.557
77323SOL    HW133866   5.883   0.945   8.578
77323SOL    HW233867   6.005   0.856   8.589
77324SOL     OW33868   9.659  13.304   5.342
77324SOL    HW133869   9.673  13.331   5.433
77324SOL    HW233870   9.570  13.331   5.323
77325SOL     OW33871   6.100  10.998   5.085
77325SOL    HW133872   6.149  11.009   5.003
77325SOL    HW233873   6.167  10.971   5.149
77326SOL     OW33874   3.523  10.465   9.455
77326SOL    HW133875   3.577  10.535   9.494
77326SOL    HW233876   3.467  10.436   9.527
77327SOL     OW33877   0.022   2.215   5.230
77327SOL    HW133878   0.106   2.179   5.257
77327SOL    HW233879  14.868   2.155   5.163
77328SOL     OW33880  14.188   1.443   0.274
77328SOL    HW133881  14.228   1.393   0.201
77328SOL    HW233882  14.199   1.386   0.350
77329SOL     OW33883  14.715   0.439  10.680
77329SOL    HW133884  14.714   0.344  10.694
77329SOL    HW233885  14.713   0.476  10.769
77330SOL     OW33886   6.674   3.530   1.074
77330SOL    HW133887   6.656   3.437   1.087
77330SOL    HW233888   6.724   3.555   1.152
77331SOL     OW33889   1.313  14.023  14.243
77331SOL    HW133890   1.267  13.945  14.212
77331SOL    HW233891   1.374  14.044  14.173
77332SOL     OW33892   7.999   1.914   6.119
77332SOL    HW133893   7.974   1.941   6.031
77332SOL    HW233894   7.917   1.889   6.161
77333SOL     OW33895   2.323   8.068   9.907
77333SOL    HW133896   2.237   8.043   9.873
77333SOL    HW233897   2.361   8.122   9.838
77334SOL     OW33898  11.145   3.745  14.841
77334SOL    HW133899  11.126   3.829  14.799
77334SOL    HW233900  11.209   3.703  14.783
77335SOL     OW33901   0.018  13.982   3.432
77335SOL    HW133902   0.012  14.050   3.499
77335SOL    HW233903   0.057  13.907   3.478
77336SOL     OW33904   1.594   8.563   8.721
77336SOL    HW133905   1.604   8.587   8.813
77336SOL    HW233906   1.657   8.493   8.707
77337SOL     OW33907   2.957   5.932   5.886
77337SOL    HW133908   3.035   5.986   5.898
77337SOL    HW233909   2.974   5.881   5.807
77338SOL     OW33910   8.669   5.595  14.586
77338SOL    HW133911   8.752   5.589  14.632
77338SOL    HW233912   8.605   5.560  14.648
77339SOL     OW33913  13.873   1.729  10.773
77339SOL    HW133914  13.861   1.823  10.784
77339SOL    HW233915  13.919   1.720  10.690
77340SOL     OW33916   4.372  10.453   0.786
77340SOL    HW133917   4.466  10.435   0.785
77340SOL    HW233918   4.360  10.521   0.719
77341SOL     OW33919   9.882   8.436   6.899
77341SOL    HW133920   9.873   8.390   6.983
77341SOL    HW233921   9.793   8.439   6.864
77342SOL     OW33922  12.628  12.447  10.865
77342SOL    HW133923  12.572  12.524  10.873
77342SOL    HW233924  12.609  12.413  10.777
77343SOL     OW33925   9.085   2.938   3.020
77343SOL    HW133926   9.034   3.014   2.992
77343SOL    HW233927   9.151   2.975   3.079
77344SOL     OW33928  12.789   4.974   8.371
77344SOL    HW133929  12.743   5.019   8.443
77344SOL    HW233930  12.855   4.920   8.415
77345SOL     OW33931  12.196  14.791   7.845
77345SOL    HW133932  12.170  14.765   7.934
77345SOL    HW233933  12.277  14.742   7.829
77346SOL     OW33934   1.421   8.470   5.466
77346SOL    HW133935   1.331   8.493   5.441
77346SOL    HW233936   1.463   8.447   5.383
77347SOL     OW33937   0.999   4.118   0.360
77347SOL    HW133938   0.934   4.072   0.412
77347SOL    HW233939   1.072   4.056   0.352
77348SOL     OW33940   4.005  14.260   4.993
77348SOL    HW133941   3.973  14.334   4.941
77348SOL    HW233942   3.926  14.220   5.028
77349SOL     OW33943   5.299   0.241   5.717
77349SOL    HW133944   5.230   0.295   5.678
77349SOL    HW233945   5.252   0.183   5.777
77350SOL     OW33946   1.526   0.468   3.356
77350SOL    HW133947   1.471   0.543   3.336
77350SOL    HW233948   1.565   0.488   3.441
77351SOL     OW33949  10.813   5.836  11.689
77351SOL    HW133950  10.794   5.928  11.702
77351SOL    HW233951  10.907   5.832  11.675
77352SOL     OW33952   3.869   8.071   6.423
77352SOL    HW133953   3.866   7.988   6.470
77352SOL    HW233954   3.949   8.114   6.456
77353SOL     OW33955   7.807   6.628   1.403
77353SOL    HW133956   7.826   6.571   1.477
77353SOL    HW233957   7.893   6.658   1.373
77354SOL     OW33958   1.814   6.316   1.695
77354SOL    HW133959   1.898   6.273   1.688
77354SOL    HW233960   1.755   6.250   1.732
77355SOL     OW33961   7.497   8.082   3.833
77355SOL    HW133962   7.464   8.155   3.780
77355SOL    HW233963   7.587   8.071   3.803
77356SOL     OW33964   5.640   2.487  10.179
77356SOL    HW133965   5.562   2.442  10.146
77356SOL    HW233966   5.606   2.548  10.245
77357SOL     OW33967   5.183   0.333   0.711
77357SOL    HW133968   5.099   0.352   0.667
77357SOL    HW233969   5.177   0.240   0.734
77358SOL     OW33970   3.832   1.055   2.225
77358SOL    HW133971   3.740   1.066   2.249
77358SOL    HW233972   3.877   1.047   2.309
77359SOL     OW33973  11.197   6.076   7.893
77359SOL    HW133974  11.208   5.992   7.849
77359SOL    HW233975  11.145   6.129   7.832
77360SOL     OW33976   9.940   7.772   2.076
77360SOL    HW133977   9.970   7.821   2.153
77360SOL    HW233978   9.860   7.729   2.105
77361SOL     OW33979  14.724   3.884  14.439
77361SOL    HW133980  14.704   3.863  14.530
77361SOL    HW233981  14.783   3.960  14.445
77362SOL     OW33982   5.866   5.151   5.249
77362SOL    HW133983   5.953   5.111   5.245
77362SOL    HW233984   5.858   5.199   5.166
77363SOL     OW33985   7.338   2.997   8.542
77363SOL    HW133986   7.423   3.031   8.571
77363SOL    HW233987   7.275   3.061   8.575
77364SOL     OW33988   9.310   0.723   3.955
77364SOL    HW133989   9.238   0.714   3.892
77364SOL    HW233990   9.375   0.658   3.927
77365SOL     OW33991   1.068   7.454  10.886
77365SOL    HW133992   1.006   7.426  10.819
77365SOL    HW233993   1.150   7.412  10.862
77366SOL     OW33994   5.910   3.633  11.813
77366SOL    HW133995   6.003   3.617  11.829
77366SOL    HW233996   5.909   3.708  11.753
77367SOL     OW33997   6.602   2.126   2.695
77367SOL    HW133998   6.607   2.086   2.782
77367SOL    HW233999   6.509   2.139   2.681
77368SOL     OW34000  14.058   1.002  13.462
77368SOL    HW134001  14.141   0.960  13.482
77368SOL    HW234002  13.992   0.935  13.479
77369SOL     OW34003  12.359  10.839  11.863
77369SOL    HW134004  12.318  10.925  11.874
77369SOL    HW234005  12.409  10.826  11.943
77370SOL     OW34006  13.411  13.939   4.203
77370SOL    HW134007  13.376  13.943   4.114
77370SOL    HW234008  13.496  13.981   4.197
77371SOL     OW34009  12.680   0.611   1.314
77371SOL    HW134010  12.607   0.598   1.375
77371SOL    HW234011  12.745   0.659   1.364
77372SOL     OW34012   9.284   0.321   0.222
77372SOL    HW134013   9.312   0.365   0.142
77372SOL    HW234014   9.224   0.384   0.264
77373SOL     OW34015  11.934   5.742   2.466
77373SOL    HW134016  11.884   5.703   2.537
77373SOL    HW234017  11.872   5.800   2.422
77374SOL     OW34018   0.932   1.956  12.372
77374SOL    HW134019   0.872   1.991  12.437
77374SOL    HW234020   0.955   1.869  12.404
77375SOL     OW34021   6.766   1.750  10.215
77375SOL    HW134022   6.670   1.741  10.214
77375SOL    HW234023   6.787   1.772  10.305
77376SOL     OW34024   1.485  12.851  12.372
77376SOL    HW134025   1.509  12.779  12.431
77376SOL    HW234026   1.475  12.926  12.430
77377SOL     OW34027  12.129  10.383   6.412
77377SOL    HW134028  12.060  10.420   6.466
77377SOL    HW234029  12.183  10.458   6.388
77378SOL     OW34030  11.478  13.142   3.672
77378SOL    HW134031  11.421  13.083   3.721
77378SOL    HW234032  11.566  13.124   3.705
77379SOL     OW34033  11.940   0.051  14.212
77379SOL    HW134034  11.847   0.071  14.214
77379SOL    HW234035  11.960   0.041  14.119
77380SOL     OW34036   6.444  11.366   2.237
77380SOL    HW134037   6.370  11.309   2.218
77380SOL    HW234038   6.509  11.345   2.170
77381SOL     OW34039   5.697   2.662   9.953
77381SOL    HW134040   5.693   2.625  10.041
77381SOL    HW234041   5.659   2.749   9.962
77382SOL     OW34042   3.644   1.414   1.798
77382SOL    HW134043   3.621   1.441   1.709
77382SOL    HW234044   3.623   1.321   1.802
77383SOL     OW34045  10.940   8.946   8.351
77383SOL    HW134046  10.868   8.898   8.393
77383SOL    HW234047  11.017   8.892   8.366
77384SOL     OW34048   5.292  11.261   9.667
77384SOL    HW134049   5.373  11.296   9.702
77384SOL    HW234050   5.284  11.300   9.580
77385SOL     OW34051   9.346   7.296   8.693
77385SOL    HW134052   9.315   7.320   8.606
77385SOL    HW234053   9.435   7.262   8.679
77386SOL     OW34054  12.024   7.410   4.178
77386SOL    HW134055  11.973   7.422   4.258
77386SOL    HW234056  12.087   7.481   4.179
77387SOL     OW34057  13.066   0.581   2.936
77387SOL    HW134058  13.155   0.590   2.903
77387SOL    HW234059  13.068   0.625   3.021
77388SOL     OW34060  12.606   7.952  14.828
77388SOL    HW134061  12.595   8.002   0.031
77388SOL    HW234062  12.639   7.867  14.856
77389SOL     OW34063  12.694   5.824   6.218
77389SOL    HW134064  12.784   5.843   6.193
77389SOL    HW234065  12.701   5.749   6.278
77390SOL     OW34066   0.186   5.197  13.308
77390SOL    HW134067   0.160   5.137  13.238
77390SOL    HW234068   0.282   5.195  13.307
77391SOL     OW34069   4.465   4.262  12.908
77391SOL    HW134070   4.546   4.245  12.861
77391SOL    HW234071   4.427   4.338  12.865
77392SOL     OW34072   2.692  10.514   5.960
77392SOL    HW134073   2.664  10.499   5.869
77392SOL    HW234074   2.613  10.547   6.003
77393SOL     OW34075  11.165   5.773  11.876
77393SOL    HW134076  11.098   5.704  11.872
77393SOL    HW234077  11.152   5.814  11.962
77394SOL     OW34078   9.200   9.973   3.796
77394SOL    HW134079   9.232   9.946   3.710
77394SOL    HW234080   9.217   9.898   3.852
77395SOL     OW34081   5.692   8.966   8.769
77395SOL    HW134082   5.756   8.980   8.838
77395SOL    HW234083   5.608   8.956   8.814
77396SOL     OW34084  11.069   4.895  10.957
77396SOL    HW134085  11.112   4.809  10.952
77396SOL    HW234086  11.030   4.897  11.045
77397SOL     OW34087   2.486  13.910   2.395
77397SOL    HW134088   2.527  13.970   2.457
77397SOL    HW234089   2.392  13.931   2.401
77398SOL     OW34090  12.196   1.983  13.365
77398SOL    HW134091  12.152   1.986  13.450
77398SOL    HW234092  12.289   1.992  13.385
77399SOL     OW34093   1.809  10.896  12.466
77399SOL    HW134094   1.772  10.887  12.378
77399SOL    HW234095   1.738  10.932  12.518
77400SOL     OW34096   6.393   4.822   0.085
77400SOL    HW134097   6.425   4.912   0.079
77400SOL    HW234098   6.298   4.831   0.085
77401SOL     OW34099   4.148  11.844  13.811
77401SOL    HW134100   4.143  11.782  13.883
77401SOL    HW234101   4.219  11.811  13.755
77402SOL     OW34102   1.507   7.499   8.600
77402SOL    HW134103   1.423   7.466   8.568
77402SOL    HW234104   1.560   7.420   8.611
77403SOL     OW34105   2.629   0.716   0.306
77403SOL    HW134106   2.639   0.628   0.341
77403SOL    HW234107   2.606   0.702   0.214
77404SOL     OW34108   3.080   0.176   0.147
77404SOL    HW134109   3.110   0.106   0.088
77404SOL    HW234110   3.158   0.202   0.196
77405SOL     OW34111  10.764  12.117   7.867
77405SOL    HW134112  10.837  12.162   7.909
77405SOL    HW234113  10.690  12.129   7.928
77406SOL     OW34114  14.728  12.091   5.787
77406SOL    HW134115  14.673  12.082   5.709
77406SOL    HW234116  14.671  12.062   5.859
77407SOL     OW34117  12.971  14.542  11.661
77407SOL    HW134118  13.051  14.533  11.714
77407SOL    HW234119  12.914  14.598  11.714
77408SOL     OW34120   6.368  12.295  13.466
77408SOL    HW134121   6.429  12.368  13.453
77408SOL    HW234122   6.345  12.300  13.559
77409SOL     OW34123   1.152  10.200   3.563
77409SOL    HW134124   1.202  10.120   3.547
77409SOL    HW234125   1.218  10.269   3.573
77410SOL     OW34126   3.069   9.662  13.310
77410SOL    HW134127   2.992   9.661  13.254
77410SOL    HW234128   3.076   9.753  13.339
77411SOL     OW34129  12.184   1.135   7.256
77411SOL    HW134130  12.183   1.213   7.311
77411SOL    HW234131  12.220   1.165   7.173
77412SOL     OW34132  12.290   2.607   7.720
77412SOL    HW134133  12.319   2.670   7.654
77412SOL    HW234134  12.237   2.544   7.671
77413SOL     OW34135  10.261  10.746   9.614
77413SOL    HW134136  10.325  10.682   9.581
77413SOL    HW234137  10.314  10.822   9.639
77414SOL     OW34138   0.766   9.655   7.769
77414SOL    HW134139   0.783   9.627   7.679
77414SOL    HW234140   0.848   9.696   7.798
77415SOL     OW34141  13.684  12.619   8.080
77415SOL    HW134142  13.715  12.701   8.042
77415SOL    HW234143  13.726  12.550   8.027
77416SOL     OW34144   7.749  10.661  11.626
77416SOL    HW134145   7.841  10.658  11.601
77416SOL    HW234146   7.745  10.731  11.691
77417SOL     OW34147   1.104   2.398  10.512
77417SOL    HW134148   1.011   2.390  10.532
77417SOL    HW234149   1.121   2.492  10.512
77418SOL     OW34150   8.915  13.294   9.582
77418SOL    HW134151   8.882  13.368   9.634
77418SOL    HW234152   9.006  13.286   9.609
77419SOL     OW34153   8.196   9.034   9.931
77419SOL    HW134154   8.238   9.110   9.972
77419SOL    HW234155   8.265   8.994   9.878
77420SOL     OW34156   2.276   9.089   7.569
77420SOL    HW134157   2.198   9.144   7.575
77420SOL    HW234158   2.326   9.109   7.648
77421SOL     OW34159   7.257   1.364   4.254
77421SOL    HW134160   7.334   1.415   4.281
77421SOL    HW234161   7.260   1.286   4.309
77422SOL     OW34162   5.039   8.911   5.539
77422SOL    HW134163   4.975   8.857   5.587
77422SOL    HW234164   5.092   8.848   5.490
77423SOL     OW34165   2.776   6.172   9.768
77423SOL    HW134166   2.764   6.078   9.781
77423SOL    HW234167   2.691   6.202   9.734
77424SOL     OW34168   9.205  13.000   9.341
77424SOL    HW134169   9.186  12.997   9.435
77424SOL    HW234170   9.264  13.075   9.331
77425SOL     OW34171   2.628   2.108   2.416
77425SOL    HW134172   2.702   2.050   2.400
77425SOL    HW234173   2.581   2.111   2.333
77426SOL     OW34174   6.556   2.608   2.316
77426SOL    HW134175   6.571   2.654   2.233
77426SOL    HW234176   6.629   2.545   2.322
77427SOL     OW34177   3.530  10.485   1.606
77427SOL    HW134178   3.582  10.423   1.658
77427SOL    HW234179   3.501  10.551   1.669
77428SOL     OW34180  12.259  10.123  12.687
77428SOL    HW134181  12.179  10.079  12.659
77428SOL    HW234182  12.330  10.075  12.644
77429SOL     OW34183  13.265  11.030  11.009
77429SOL    HW134184  13.311  11.074  10.938
77429SOL    HW234185  13.215  11.099  11.053
77430SOL     OW34186  13.712   3.342   8.839
77430SOL    HW134187  13.686   3.274   8.777
77430SOL    HW234188  13.658   3.418   8.815
77431SOL     OW34189   3.854   2.638   2.967
77431SOL    HW134190   3.930   2.696   2.968
77431SOL    HW234191   3.809   2.655   3.050
77432SOL     OW34192   4.647   7.235   7.710
77432SOL    HW134193   4.724   7.180   7.696
77432SOL    HW234194   4.667   7.284   7.790
77433SOL     OW34195   2.196   2.105   0.686
77433SOL    HW134196   2.119   2.159   0.702
77433SOL    HW234197   2.231   2.086   0.773
77434SOL     OW34198   8.535  10.155  11.121
77434SOL    HW134199   8.613  10.205  11.145
77434SOL    HW234200   8.529  10.087  11.188
77435SOL     OW34201  12.448   3.381   4.984
77435SOL    HW134202  12.468   3.420   4.899
77435SOL    HW234203  12.365   3.336   4.971
77436SOL     OW34204   2.669  11.212   3.022
77436SOL    HW134205   2.719  11.180   2.947
77436SOL    HW234206   2.627  11.292   2.990
77437SOL     OW34207   9.157   1.330   2.369
77437SOL    HW134208   9.216   1.281   2.426
77437SOL    HW234209   9.183   1.304   2.280
77438SOL     OW34210  13.500   3.232   5.759
77438SOL    HW134211  13.553   3.191   5.827
77438SOL    HW234212  13.439   3.164   5.732
77439SOL     OW34213   4.628  14.027   6.791
77439SOL    HW134214   4.627  14.042   6.696
77439SOL    HW234215   4.713  14.058   6.820
77440SOL     OW34216   4.177   4.895   6.146
77440SOL    HW134217   4.104   4.952   6.121
77440SOL    HW234218   4.211   4.861   6.063
77441SOL     OW34219   0.105   1.337   5.896
77441SOL    HW134220   0.097   1.335   5.801
77441SOL    HW234221   0.174   1.274   5.916
77442SOL     OW34222  10.000   6.788  10.078
77442SOL    HW134223   9.920   6.800  10.128
77442SOL    HW234224  10.066   6.839  10.125
77443SOL     OW34225   7.090   5.922  13.348
77443SOL    HW134226   7.060   6.009  13.375
77443SOL    HW234227   7.185   5.932  13.338
77444SOL     OW34228  11.247  12.866   5.142
77444SOL    HW134229  11.342  12.862   5.144
77444SOL    HW234230  11.219  12.836   5.228
77445SOL     OW34231  10.845   7.967   1.766
77445SOL    HW134232  10.915   8.021   1.805
77445SOL    HW234233  10.849   7.884   1.813
77446SOL     OW34234  12.353   7.619  11.254
77446SOL    HW134235  12.278   7.575  11.213
77446SOL    HW234236  12.403   7.548  11.294
77447SOL     OW34237   1.041   4.300   7.154
77447SOL    HW134238   1.126   4.260   7.140
77447SOL    HW234239   1.059   4.380   7.204
77448SOL     OW34240   1.110   4.837   5.375
77448SOL    HW134241   1.186   4.818   5.320
77448SOL    HW234242   1.038   4.786   5.336
77449SOL     OW34243   1.954   1.782   4.340
77449SOL    HW134244   1.860   1.792   4.358
77449SOL    HW234245   1.994   1.776   4.427
77450SOL     OW34246  12.407   3.659  12.103
77450SOL    HW134247  12.365   3.725  12.048
77450SOL    HW234248  12.430   3.589  12.042
77451SOL     OW34249  13.675   0.707  11.693
77451SOL    HW134250  13.669   0.797  11.724
77451SOL    HW234251  13.756   0.705  11.642
77452SOL     OW34252   7.908  10.074   7.805
77452SOL    HW134253   7.980  10.136   7.811
77452SOL    HW234254   7.861  10.083   7.887
77453SOL     OW34255   8.443   7.846   0.900
77453SOL    HW134256   8.470   7.791   0.826
77453SOL    HW234257   8.347   7.843   0.897
77454SOL     OW34258   9.654   4.751   7.473
77454SOL    HW134259   9.748   4.763   7.483
77454SOL    HW234260   9.644   4.657   7.456
77455SOL     OW34261   6.017   0.946   9.149
77455SOL    HW134262   6.037   1.039   9.162
77455SOL    HW234263   5.922   0.943   9.138
77456SOL     OW34264  14.376   0.704   1.873
77456SOL    HW134265  14.344   0.774   1.815
77456SOL    HW234266  14.402   0.749   1.953
77457SOL     OW34267   9.167   4.085   4.122
77457SOL    HW134268   9.171   4.148   4.050
77457SOL    HW234269   9.189   4.138   4.199
77458SOL     OW34270  13.078  11.938  13.792
77458SOL    HW134271  13.166  11.900  13.803
77458SOL    HW234272  13.094  12.032  13.782
77459SOL     OW34273  13.776   7.852   5.169
77459SOL    HW134274  13.745   7.792   5.238
77459SOL    HW234275  13.869   7.829   5.159
77460SOL     OW34276  13.919   5.287   8.452
77460SOL    HW134277  13.993   5.227   8.455
77460SOL    HW234278  13.884   5.279   8.363
77461SOL     OW34279   0.996   8.554   6.184
77461SOL    HW134280   0.987   8.594   6.098
77461SOL    HW234281   1.073   8.597   6.222
77462SOL     OW34282   7.057   0.968   0.460
77462SOL    HW134283   7.028   0.886   0.498
77462SOL    HW234284   6.977   1.018   0.446
77463SOL     OW34285  11.290  10.707   5.531
77463SOL    HW134286  11.281  10.787   5.582
77463SOL    HW234287  11.201  10.673   5.523
77464SOL     OW34288   4.246   6.722  12.152
77464SOL    HW134289   4.299   6.776  12.094
77464SOL    HW234290   4.168   6.701  12.101
77465SOL     OW34291   3.102   4.419   9.394
77465SOL    HW134292   3.170   4.396   9.457
77465SOL    HW234293   3.022   4.425   9.446
77466SOL     OW34294   4.764   3.539   1.120
77466SOL    HW134295   4.715   3.593   1.182
77466SOL    HW234296   4.845   3.517   1.165
77467SOL     OW34297  13.281  12.119   7.379
77467SOL    HW134298  13.254  12.098   7.290
77467SOL    HW234299  13.373  12.090   7.384
77468SOL     OW34300   7.936   4.560   2.899
77468SOL    HW134301   7.850   4.576   2.860
77468SOL    HW234302   7.996   4.610   2.844
77469SOL     OW34303   1.350   6.791   1.673
77469SOL    HW134304   1.292   6.861   1.702
77469SOL    HW234305   1.312   6.759   1.591
77470SOL     OW34306   9.409   3.123   7.002
77470SOL    HW134307   9.370   3.207   6.977
77470SOL    HW234308   9.410   3.072   6.921
77471SOL     OW34309   0.815   9.637   2.432
77471SOL    HW134310   0.732   9.595   2.411
77471SOL    HW234311   0.853   9.582   2.500
77472SOL     OW34312  10.733  10.555   9.416
77472SOL    HW134313  10.815  10.536   9.462
77472SOL    HW234314  10.679  10.599   9.482
77473SOL     OW34315   5.890   9.519   1.593
77473SOL    HW134316   5.904   9.580   1.521
77473SOL    HW234317   5.968   9.528   1.648
77474SOL     OW34318  12.664   4.937   7.691
77474SOL    HW134319  12.571   4.920   7.706
77474SOL    HW234320  12.682   4.901   7.604
77475SOL     OW34321   4.663  12.434   9.161
77475SOL    HW134322   4.651  12.495   9.235
77475SOL    HW234323   4.575  12.423   9.126
77476SOL     OW34324   3.557  11.465   4.638
77476SOL    HW134325   3.515  11.462   4.724
77476SOL    HW234326   3.645  11.432   4.654
77477SOL     OW34327   2.898   1.716   1.172
77477SOL    HW134328   2.941   1.631   1.173
77477SOL    HW234329   2.947   1.769   1.235
77478SOL     OW34330   1.342   0.033   7.778
77478SOL    HW134331   1.337   0.102   7.712
77478SOL    HW234332   1.293   0.068   7.853
77479SOL     OW34333  11.665   8.722   6.484
77479SOL    HW134334  11.742   8.671   6.460
77479SOL    HW234335  11.603   8.706   6.413
77480SOL     OW34336   0.732  13.166   2.687
77480SOL    HW134337   0.718  13.077   2.654
77480SOL    HW234338   0.745  13.155   2.781
77481SOL     OW34339   2.405  12.529   2.311
77481SOL    HW134340   2.464  12.584   2.363
77481SOL    HW234341   2.408  12.567   2.223
77482SOL     OW34342   1.163   3.388   0.691
77482SOL    HW134343   1.101   3.317   0.676
77482SOL    HW234344   1.244   3.360   0.649
77483SOL     OW34345  14.671  14.711  14.009
77483SOL    HW134346  14.764  14.692  14.006
77483SOL    HW234347  14.634  14.641  14.062
77484SOL     OW34348   8.815   0.495   0.911
77484SOL    HW134349   8.822   0.590   0.903
77484SOL    HW234350   8.799   0.465   0.822
77485SOL     OW34351   6.663   7.134  12.164
77485SOL    HW134352   6.595   7.163  12.225
77485SOL    HW234353   6.675   7.041  12.184
77486SOL     OW34354   4.971   7.062   0.687
77486SOL    HW134355   5.025   6.984   0.673
77486SOL    HW234356   4.903   7.056   0.620
77487SOL     OW34357   1.436  14.868   4.421
77487SOL    HW134358   1.399  14.784   4.395
77487SOL    HW234359   1.531  14.854   4.423
77488SOL     OW34360  11.692   5.492   3.648
77488SOL    HW134361  11.747   5.558   3.689
77488SOL    HW234362  11.632   5.542   3.592
77489SOL     OW34363   1.346   4.401   4.792
77489SOL    HW134364   1.423   4.354   4.823
77489SOL    HW234365   1.350   4.395   4.697
77490SOL     OW34366  12.997   7.387   1.194
77490SOL    HW134367  12.924   7.428   1.239
77490SOL    HW234368  12.978   7.399   1.101
77491SOL     OW34369   0.338   3.913   8.058
77491SOL    HW134370   0.402   3.984   8.055
77491SOL    HW234371   0.261   3.951   8.101
77492SOL     OW34372   8.297  10.650   6.764
77492SOL    HW134373   8.372  10.629   6.709
77492SOL    HW234374   8.253  10.566   6.777
77493SOL     OW34375   2.063   0.963   9.688
77493SOL    HW134376   2.025   0.887   9.644
77493SOL    HW234377   2.103   0.927   9.767
77494SOL     OW34378  14.529  11.187   8.455
77494SOL    HW134379  14.547  11.128   8.528
77494SOL    HW234380  14.434  11.181   8.442
77495SOL     OW34381   0.810   3.976   5.787
77495SOL    HW134382   0.769   3.890   5.780
77495SOL    HW234383   0.766   4.030   5.721
77496SOL     OW34384  13.697  12.100  11.279
77496SOL    HW134385  13.724  12.153  11.355
77496SOL    HW234386  13.727  12.151  11.204
77497SOL     OW34387  11.271  13.051   5.892
77497SOL    HW134388  11.280  13.070   5.986
77497SOL    HW234389  11.181  13.078   5.871
77498SOL     OW34390  13.698   6.574   0.828
77498SOL    HW134391  13.628   6.640   0.824
77498SOL    HW234392  13.778   6.625   0.820
77499SOL     OW34393  12.068   2.125   7.594
77499SOL    HW134394  12.054   2.198   7.654
77499SOL    HW234395  11.981   2.108   7.557
77500SOL     OW34396   1.292  10.514   3.728
77500SOL    HW134397   1.339  10.552   3.803
77500SOL    HW234398   1.207  10.558   3.730
77501SOL     OW34399  11.620   0.098   3.474
77501SOL    HW134400  11.635   0.052   3.392
77501SOL    HW234401  11.641   0.034   3.542
77502SOL     OW34402   7.548   2.747  12.484
77502SOL    HW134403   7.464   2.780  12.453
77502SOL    HW234404   7.604   2.745  12.406
77503SOL     OW34405   5.800   1.156   3.405
77503SOL    HW134406   5.709   1.183   3.414
77503SOL    HW234407   5.798   1.060   3.413
77504SOL     OW34408   7.610  11.215  13.497
77504SOL    HW134409   7.689  11.268  13.498
77504SOL    HW234410   7.547  11.264  13.551
77505SOL     OW34411  12.087  11.110  10.133
77505SOL    HW134412  12.010  11.089  10.187
77505SOL    HW234413  12.052  11.121  10.045
77506SOL     OW34414  12.991  11.942  11.603
77506SOL    HW134415  12.904  11.909  11.623
77506SOL    HW234416  13.026  11.881  11.538
77507SOL     OW34417   4.677   8.697   4.334
77507SOL    HW134418   4.677   8.620   4.277
77507SOL    HW234419   4.685   8.662   4.422
77508SOL     OW34420  14.575  14.387   7.727
77508SOL    HW134421  14.638  14.458   7.741
77508SOL    HW234422  14.553  14.357   7.815
77509SOL     OW34423   2.305   6.365  13.664
77509SOL    HW134424   2.397   6.345  13.646
77509SOL    HW234425   2.301   6.373  13.760
77510SOL     OW34426   6.904  11.124   4.829
77510SOL    HW134427   6.849  11.139   4.906
77510SOL    HW234428   6.952  11.044   4.849
77511SOL     OW34429   7.677   7.128   5.276
77511SOL    HW134430   7.636   7.215   5.270
77511SOL    HW234431   7.611   7.073   5.318
77512SOL     OW34432   9.631   4.577  13.001
77512SOL    HW134433   9.572   4.652  13.003
77512SOL    HW234434   9.653   4.566  12.909
77513SOL     OW34435   7.753  11.931   3.144
77513SOL    HW134436   7.687  11.956   3.079
77513SOL    HW234437   7.710  11.867   3.200
77514SOL     OW34438   7.029   3.898   4.203
77514SOL    HW134439   7.099   3.841   4.235
77514SOL    HW234440   6.956   3.839   4.187
77515SOL     OW34441  10.529   4.064   9.303
77515SOL    HW134442  10.492   4.010   9.233
77515SOL    HW234443  10.599   4.011   9.340
77516SOL     OW34444  13.436  12.694   6.944
77516SOL    HW134445  13.484  12.704   7.026
77516SOL    HW234446  13.393  12.609   6.952
77517SOL     OW34447  11.126   1.840  14.832
77517SOL    HW134448  11.142   1.845   0.049
77517SOL    HW234449  11.081   1.922  14.812
77518SOL     OW34450   2.335   0.377  10.762
77518SOL    HW134451   2.317   0.426  10.682
77518SOL    HW234452   2.321   0.285  10.737
77519SOL     OW34453  10.879   6.705   6.222
77519SOL    HW134454  10.958   6.657   6.244
77519SOL    HW234455  10.861   6.681   6.131
77520SOL     OW34456   0.904   5.012  13.313
77520SOL    HW134457   0.983   5.027  13.261
77520SOL    HW234458   0.937   4.996  13.402
77521SOL     OW34459   0.172  12.951  12.783
77521SOL    HW134460   0.109  12.995  12.727
77521SOL    HW234461   0.193  13.014  12.851
77522SOL     OW34462   9.893  12.669  12.252
77522SOL    HW134463   9.899  12.575  12.236
77522SOL    HW234464   9.838  12.703  12.181
77523SOL     OW34465   9.903   8.789   2.750
77523SOL    HW134466   9.822   8.815   2.794
77523SOL    HW234467   9.912   8.696   2.771
77524SOL     OW34468   3.210   1.225   7.748
77524SOL    HW134469   3.169   1.188   7.826
77524SOL    HW234470   3.280   1.282   7.782
77525SOL     OW34471  13.992  11.140  12.573
77525SOL    HW134472  14.032  11.071  12.520
77525SOL    HW234473  13.907  11.156  12.531
77526SOL     OW34474  13.495  11.480   4.904
77526SOL    HW134475  13.484  11.389   4.878
77526SOL    HW234476  13.412  11.522   4.880
77527SOL     OW34477   7.490   9.652   7.218
77527SOL    HW134478   7.472   9.691   7.133
77527SOL    HW234479   7.428   9.579   7.224
77528SOL     OW34480   3.205  12.733   0.452
77528SOL    HW134481   3.171  12.755   0.538
77528SOL    HW234482   3.128  12.705   0.402
77529SOL     OW34483   2.720   4.409   9.590
77529SOL    HW134484   2.802   4.365   9.612
77529SOL    HW234485   2.654   4.363   9.642
77530SOL     OW34486   1.961   1.753   2.327
77530SOL    HW134487   1.993   1.733   2.415
77530SOL    HW234488   1.962   1.668   2.281
77531SOL     OW34489   7.092  10.224  14.560
77531SOL    HW134490   7.021  10.160  14.560
77531SOL    HW234491   7.053  10.303  14.599
77532SOL     OW34492   0.902   7.467  12.922
77532SOL    HW134493   0.983   7.460  12.972
77532SOL    HW234494   0.922   7.532  12.854
77533SOL     OW34495   3.857  13.415   2.239
77533SOL    HW134496   3.944  13.410   2.279
77533SOL    HW234497   3.796  13.414   2.313
77534SOL     OW34498   0.432   2.348   5.781
77534SOL    HW134499   0.484   2.269   5.796
77534SOL    HW234500   0.436   2.396   5.864
77535SOL     OW34501   4.702   0.061  11.854
77535SOL    HW134502   4.796   0.079  11.845
77535SOL    HW234503   4.693   0.025  11.942
77536SOL     OW34504  12.170   5.994   1.434
77536SOL    HW134505  12.161   5.997   1.339
77536SOL    HW234506  12.084   6.020   1.467
77537SOL     OW34507   5.331   9.480   4.492
77537SOL    HW134508   5.294   9.391   4.484
77537SOL    HW234509   5.300   9.526   4.414
77538SOL     OW34510   4.180   8.928   8.198
77538SOL    HW134511   4.086   8.911   8.206
77538SOL    HW234512   4.217   8.845   8.168
77539SOL     OW34513  10.545  12.301   4.507
77539SOL    HW134514  10.486  12.293   4.582
77539SOL    HW234515  10.487  12.309   4.432
77540SOL     OW34516  12.398   6.431  12.636
77540SOL    HW134517  12.426   6.380  12.712
77540SOL    HW234518  12.477   6.478  12.608
77541SOL     OW34519  10.632   1.159   5.234
77541SOL    HW134520  10.711   1.194   5.276
77541SOL    HW234521  10.629   1.202   5.149
77542SOL     OW34522   6.868   7.923  10.283
77542SOL    HW134523   6.963   7.936  10.293
77542SOL    HW234524   6.859   7.865  10.208
77543SOL     OW34525   9.036  12.627   8.100
77543SOL    HW134526   9.096  12.700   8.083
77543SOL    HW234527   9.010  12.596   8.013
77544SOL     OW34528  11.004   7.274   7.428
77544SOL    HW134529  10.947   7.305   7.358
77544SOL    HW234530  11.091   7.309   7.407
77545SOL     OW34531   1.604   3.984   9.283
77545SOL    HW134532   1.549   4.038   9.225
77545SOL    HW234533   1.581   3.894   9.260
77546SOL     OW34534   1.099  13.117  14.020
77546SOL    HW134535   1.171  13.059  13.997
77546SOL    HW234536   1.134  13.174  14.088
77547SOL     OW34537   7.933   5.250   0.726
77547SOL    HW134538   7.904   5.159   0.730
77547SOL    HW234539   8.029   5.244   0.729
77548SOL     OW34540   6.943   1.769   4.897
77548SOL    HW134541   6.879   1.791   4.829
77548SOL    HW234542   7.004   1.843   4.897
77549SOL     OW34543   0.038  11.278  13.634
77549SOL    HW134544  14.857  11.330  13.580
77549SOL    HW234545   0.122  11.282  13.589
77550SOL     OW34546  12.278  13.220  11.623
77550SOL    HW134547  12.213  13.237  11.554
77550SOL    HW234548  12.236  13.156  11.680
77551SOL     OW34549  11.781   9.296  11.368
77551SOL    HW134550  11.828   9.377  11.351
77551SOL    HW234551  11.753   9.302  11.459
77552SOL     OW34552   6.576   2.749   4.748
77552SOL    HW134553   6.509   2.758   4.680
77552SOL    HW234554   6.642   2.815   4.726
77553SOL     OW34555  14.498   2.825   3.526
77553SOL    HW134556  14.535   2.737   3.521
77553SOL    HW234557  14.563   2.881   3.483
77554SOL     OW34558   2.906   8.745   3.653
77554SOL    HW134559   2.825   8.785   3.682
77554SOL    HW234560   2.880   8.690   3.579
77555SOL     OW34561  12.002   1.347  12.534
77555SOL    HW134562  12.055   1.267  12.531
77555SOL    HW234563  12.049   1.404  12.595
77556SOL     OW34564  12.740   2.816   2.266
77556SOL    HW134565  12.821   2.778   2.233
77556SOL    HW234566  12.710   2.875   2.197
77557SOL     OW34567  13.728  12.688   9.035
77557SOL    HW134568  13.821  12.695   9.055
77557SOL    HW234569  13.706  12.598   9.057
77558SOL     OW34570   4.757   2.376   0.534
77558SOL    HW134571   4.789   2.335   0.614
77558SOL    HW234572   4.837   2.403   0.487
77559SOL     OW34573   8.089  10.114  13.077
77559SOL    HW134574   8.077  10.193  13.131
77559SOL    HW234575   8.143  10.056  13.132
77560SOL     OW34576   7.900  14.479  13.647
77560SOL    HW134577   7.965  14.435  13.701
77560SOL    HW234578   7.875  14.556  13.698
77561SOL     OW34579   2.925   7.304   6.228
77561SOL    HW134580   2.887   7.220   6.254
77561SOL    HW234581   2.927   7.301   6.132
77562SOL     OW34582   2.404   1.506   4.959
77562SOL    HW134583   2.438   1.442   4.897
77562SOL    HW234584   2.315   1.476   4.978
77563SOL     OW34585   4.694   6.040   0.237
77563SOL    HW134586   4.708   6.017   0.329
77563SOL    HW234587   4.600   6.060   0.232
77564SOL     OW34588   0.351   2.647   3.330
77564SOL    HW134589   0.260   2.671   3.311
77564SOL    HW234590   0.347   2.554   3.352
77565SOL     OW34591   7.304   4.927  10.780
77565SOL    HW134592   7.329   4.838  10.753
77565SOL    HW234593   7.335   4.983  10.709
77566SOL     OW34594  13.087  14.774   1.067
77566SOL    HW134595  13.155  14.805   1.008
77566SOL    HW234596  13.066  14.851   1.121
77567SOL     OW34597   3.683   7.266  10.976
77567SOL    HW134598   3.605   7.291  10.926
77567SOL    HW234599   3.718   7.349  11.009
77568SOL     OW34600   1.876   0.936  11.153
77568SOL    HW134601   1.920   1.021  11.153
77568SOL    HW234602   1.948   0.872  11.148
77569SOL     OW34603   7.461  11.760  12.379
77569SOL    HW134604   7.554  11.773  12.359
77569SOL    HW234605   7.448  11.806  12.462
77570SOL     OW34606  11.413   5.801  12.134
77570SOL    HW134607  11.429   5.881  12.185
77570SOL    HW234608  11.344   5.825  12.072
77571SOL     OW34609   0.295   5.250   1.206
77571SOL    HW134610   0.247   5.213   1.280
77571SOL    HW234611   0.384   5.217   1.217
77572SOL     OW34612   6.745   6.923  11.492
77572SOL    HW134613   6.744   6.880  11.577
77572SOL    HW234614   6.653   6.925  11.465
77573SOL     OW34615   5.194   4.815  10.193
77573SOL    HW134616   5.139   4.844  10.121
77573SOL    HW234617   5.195   4.719  10.186
77574SOL     OW34618   3.117  14.317   7.883
77574SOL    HW134619   3.202  14.302   7.842
77574SOL    HW234620   3.134  14.314   7.977
77575SOL     OW34621  14.344   6.677   7.428
77575SOL    HW134622  14.339   6.684   7.332
77575SOL    HW234623  14.430   6.714   7.450
77576SOL     OW34624  12.000   9.612  12.759
77576SOL    HW134625  11.937   9.546  12.730
77576SOL    HW234626  11.953   9.664  12.824
77577SOL     OW34627   9.820   1.604   0.061
77577SOL    HW134628   9.840   1.656  14.861
77577SOL    HW234629   9.746   1.650   0.102
77578SOL     OW34630   4.652   3.651  11.508
77578SOL    HW134631   4.596   3.657  11.585
77578SOL    HW234632   4.622   3.721  11.450
77579SOL     OW34633  14.852   3.477   6.746
77579SOL    HW134634  14.836   3.571   6.758
77579SOL    HW234635  14.802   3.435   6.816
77580SOL     OW34636   5.616  12.682   2.621
77580SOL    HW134637   5.526  12.658   2.601
77580SOL    HW234638   5.658  12.601   2.648
77581SOL     OW34639  11.190   6.488   2.047
77581SOL    HW134640  11.262   6.432   2.075
77581SOL    HW234641  11.111   6.446   2.081
77582SOL     OW34642   7.117  14.285   8.348
77582SOL    HW134643   7.048  14.317   8.407
77582SOL    HW234644   7.198  14.310   8.391
77583SOL     OW34645  13.955  13.521   7.048
77583SOL    HW134646  13.983  13.601   7.092
77583SOL    HW234647  13.871  13.499   7.089
77584SOL     OW34648   5.723   4.336  11.449
77584SOL    HW134649   5.728   4.431  11.451
77584SOL    HW234650   5.762   4.308  11.532
77585SOL     OW34651   0.849  11.222   6.622
77585SOL    HW134652   0.926  11.182   6.580
77585SOL    HW234653   0.843  11.309   6.581
77586SOL     OW34654  11.576  13.532   8.068
77586SOL    HW134655  11.650  13.493   8.021
77586SOL    HW234656  11.603  13.623   8.083
77587SOL     OW34657   5.017  12.917   1.342
77587SOL    HW134658   5.060  12.874   1.269
77587SOL    HW234659   5.078  12.907   1.415
77588SOL     OW34660   0.200   9.978  11.642
77588SOL    HW134661   0.190  10.071  11.623
77588SOL    HW234662   0.285   9.955  11.604
77589SOL     OW34663   8.103   2.337  12.499
77589SOL    HW134664   8.139   2.424  12.512
77589SOL    HW234665   8.119   2.291  12.581
77590SOL     OW34666   3.102   7.972   7.355
77590SOL    HW134667   3.029   7.934   7.306
77590SOL    HW234668   3.122   8.053   7.309
77591SOL     OW34669   6.912   7.591  13.397
77591SOL    HW134670   6.924   7.604  13.491
77591SOL    HW234671   6.974   7.652  13.356
77592SOL     OW34672  12.624   0.051  11.972
77592SOL    HW134673  12.548   0.082  11.923
77592SOL    HW234674  12.687   0.122  11.965
77593SOL     OW34675  13.337  12.557  10.040
77593SOL    HW134676  13.342  12.485   9.977
77593SOL    HW234677  13.360  12.516  10.123
77594SOL     OW34678  10.511  10.123   5.882
77594SOL    HW134679  10.572  10.194   5.901
77594SOL    HW234680  10.428  10.152   5.921
77595SOL     OW34681   2.374  10.045   7.841
77595SOL    HW134682   2.323  10.102   7.899
77595SOL    HW234683   2.409   9.978   7.899
77596SOL     OW34684   2.031   2.041   8.237
77596SOL    HW134685   1.946   2.029   8.278
77596SOL    HW234686   2.091   1.985   8.286
77597SOL     OW34687   7.786   8.896  14.238
77597SOL    HW134688   7.850   8.959  14.207
77597SOL    HW234689   7.754   8.853  14.159
77598SOL     OW34690   7.423   2.443   3.408
77598SOL    HW134691   7.494   2.399   3.361
77598SOL    HW234692   7.464   2.520   3.447
77599SOL     OW34693  10.802  11.140   2.701
77599SOL    HW134694  10.823  11.197   2.627
77599SOL    HW234695  10.887  11.124   2.743
77600SOL     OW34696   2.196  11.926   9.141
77600SOL    HW134697   2.116  11.877   9.157
77600SOL    HW234698   2.187  12.005   9.194
77601SOL     OW34699  10.477   5.080   4.283
77601SOL    HW134700  10.530   5.119   4.352
77601SOL    HW234701  10.436   5.154   4.238
77602SOL     OW34702  12.796   5.643   1.085
77602SOL    HW134703  12.795   5.616   1.176
77602SOL    HW234704  12.889   5.655   1.065
77603SOL     OW34705   4.728   8.583   9.683
77603SOL    HW134706   4.659   8.529   9.644
77603SOL    HW234707   4.810   8.544   9.652
77604SOL     OW34708  13.939   0.421   8.889
77604SOL    HW134709  13.990   0.407   8.969
77604SOL    HW234710  13.997   0.391   8.819
77605SOL     OW34711   4.938   6.490   3.219
77605SOL    HW134712   4.985   6.573   3.226
77605SOL    HW234713   4.950   6.449   3.305
77606SOL     OW34714  14.609  11.614   6.437
77606SOL    HW134715  14.631  11.661   6.356
77606SOL    HW234716  14.514  11.599   6.430
77607SOL     OW34717   5.662  13.785   3.774
77607SOL    HW134718   5.748  13.747   3.753
77607SOL    HW234719   5.612  13.774   3.693
77608SOL     OW34720   4.316   2.664  13.550
77608SOL    HW134721   4.331   2.570  13.535
77608SOL    HW234722   4.321   2.673  13.645
77609SOL     OW34723   9.030   7.680  11.175
77609SOL    HW134724   9.116   7.701  11.140
77609SOL    HW234725   8.991   7.622  11.109
77610SOL     OW34726   5.917   7.842   5.087
77610SOL    HW134727   5.969   7.825   5.166
77610SOL    HW234728   5.879   7.757   5.066
77611SOL     OW34729   7.470  11.964   9.631
77611SOL    HW134730   7.417  11.951   9.553
77611SOL    HW234731   7.476  11.877   9.671
77612SOL     OW34732   0.395   3.448   9.329
77612SOL    HW134733   0.334   3.507   9.283
77612SOL    HW234734   0.418   3.382   9.264
77613SOL     OW34735   5.852  12.244   9.721
77613SOL    HW134736   5.811  12.199   9.647
77613SOL    HW234737   5.900  12.176   9.767
77614SOL     OW34738   2.757   9.235   4.077
77614SOL    HW134739   2.764   9.310   4.018
77614SOL    HW234740   2.841   9.191   4.070
77615SOL     OW34741  10.363  11.504   6.830
77615SOL    HW134742  10.320  11.588   6.821
77615SOL    HW234743  10.355  11.463   6.744
77616SOL     OW34744  12.270  12.223   6.444
77616SOL    HW134745  12.253  12.317   6.438
77616SOL    HW234746  12.194  12.188   6.491
77617SOL     OW34747   7.435   7.844   7.161
77617SOL    HW134748   7.502   7.885   7.215
77617SOL    HW234749   7.473   7.841   7.073
77618SOL     OW34750  11.052  14.831   5.659
77618SOL    HW134751  11.065  14.751   5.710
77618SOL    HW234752  11.141  14.860   5.638
77619SOL     OW34753  11.858   6.005   1.203
77619SOL    HW134754  11.864   5.958   1.121
77619SOL    HW234755  11.839   5.938   1.269
77620SOL     OW34756   1.368   8.500   4.010
77620SOL    HW134757   1.322   8.579   3.982
77620SOL    HW234758   1.338   8.485   4.099
77621SOL     OW34759  13.502   3.557   9.721
77621SOL    HW134760  13.528   3.506   9.644
77621SOL    HW234761  13.521   3.647   9.698
77622SOL     OW34762   4.118  10.415  13.462
77622SOL    HW134763   4.156  10.474  13.527
77622SOL    HW234764   4.061  10.471  13.409
77623SOL     OW34765   9.889   9.568  12.327
77623SOL    HW134766   9.797   9.564  12.351
77623SOL    HW234767   9.894   9.531  12.239
77624SOL     OW34768   4.386  11.041  14.251
77624SOL    HW134769   4.407  11.080  14.336
77624SOL    HW234770   4.366  10.949  14.272
77625SOL     OW34771   0.197  13.956   2.185
77625SOL    HW134772   0.274  14.009   2.209
77625SOL    HW234773   0.142  14.016   2.134
77626SOL     OW34774   8.280   1.618   6.474
77626SOL    HW134775   8.205   1.665   6.437
77626SOL    HW234776   8.242   1.557   6.537
77627SOL     OW34777   1.099  13.325   3.592
77627SOL    HW134778   1.108  13.259   3.660
77627SOL    HW234779   1.096  13.276   3.510
77628SOL     OW34780  13.968  11.042   6.301
77628SOL    HW134781  14.056  11.012   6.279
77628SOL    HW234782  13.969  11.136   6.281
77629SOL     OW34783   0.980  10.279   9.939
77629SOL    HW134784   1.001  10.243  10.025
77629SOL    HW234785   0.890  10.250   9.923
77630SOL     OW34786  14.438   3.989   7.456
77630SOL    HW134787  14.350   3.995   7.419
77630SOL    HW234788  14.466   3.899   7.435
77631SOL     OW34789   5.858  13.736   7.027
77631SOL    HW134790   5.819  13.804   6.972
77631SOL    HW234791   5.854  13.771   7.116
77632SOL     OW34792   7.452  13.885   2.784
77632SOL    HW134793   7.528  13.918   2.831
77632SOL    HW234794   7.402  13.836   2.850
77633SOL     OW34795   2.750   1.487   8.956
77633SOL    HW134796   2.823   1.426   8.948
77633SOL    HW234797   2.734   1.493   9.050
77634SOL     OW34798   9.307  14.134  12.630
77634SOL    HW134799   9.284  14.053  12.584
77634SOL    HW234800   9.285  14.116  12.722
77635SOL     OW34801   6.648   9.740   2.260
77635SOL    HW134802   6.582   9.786   2.208
77635SOL    HW234803   6.694   9.686   2.197
77636SOL     OW34804  11.675  10.814   7.891
77636SOL    HW134805  11.665  10.910   7.889
77636SOL    HW234806  11.770  10.800   7.892
77637SOL     OW34807   3.361  12.903  10.028
77637SOL    HW134808   3.419  12.901  10.103
77637SOL    HW234809   3.340  12.996  10.015
77638SOL     OW34810   0.764   2.731  11.243
77638SOL    HW134811   0.795   2.640  11.243
77638SOL    HW234812   0.702   2.735  11.315
77639SOL     OW34813  14.386   2.425   7.126
77639SOL    HW134814  14.462   2.468   7.087
77639SOL    HW234815  14.363   2.356   7.064
77640SOL     OW34816  11.834   4.801  10.524
77640SOL    HW134817  11.771   4.872  10.509
77640SOL    HW234818  11.919   4.844  10.521
77641SOL     OW34819   4.897   0.326  12.364
77641SOL    HW134820   4.923   0.418  12.361
77641SOL    HW234821   4.816   0.326  12.416
77642SOL     OW34822  11.486  12.447  10.091
77642SOL    HW134823  11.440  12.373  10.131
77642SOL    HW234824  11.579  12.430  10.109
77643SOL     OW34825   1.252   7.167   3.647
77643SOL    HW134826   1.261   7.194   3.738
77643SOL    HW234827   1.208   7.082   3.651
77644SOL     OW34828  11.082   2.048  11.395
77644SOL    HW134829  11.009   2.018  11.340
77644SOL    HW234830  11.040   2.102  11.462
77645SOL     OW34831   1.920   5.844   8.302
77645SOL    HW134832   1.994   5.904   8.307
77645SOL    HW234833   1.930   5.799   8.218
77646SOL     OW34834   3.583   0.997   0.290
77646SOL    HW134835   3.551   1.083   0.317
77646SOL    HW234836   3.576   0.943   0.369
77647SOL     OW34837  11.059   3.757  13.739
77647SOL    HW134838  11.090   3.671  13.765
77647SOL    HW234839  10.981   3.772  13.792
77648SOL     OW34840  10.752   7.050   1.942
77648SOL    HW134841  10.844   7.075   1.947
77648SOL    HW234842  10.740   7.021   1.851
77649SOL     OW34843   4.765  11.073  11.005
77649SOL    HW134844   4.847  11.119  11.024
77649SOL    HW234845   4.726  11.122  10.933
77650SOL     OW34846  13.677   4.637   0.904
77650SOL    HW134847  13.650   4.652   0.813
77650SOL    HW234848  13.612   4.685   0.956
77651SOL     OW34849  14.645  11.299  10.352
77651SOL    HW134850  14.575  11.236  10.333
77651SOL    HW234851  14.619  11.379  10.306
77652SOL     OW34852   2.995  13.371   8.168
77652SOL    HW134853   2.938  13.370   8.091
77652SOL    HW234854   3.049  13.449   8.158
77653SOL     OW34855  14.124   8.100   5.414
77653SOL    HW134856  14.175   8.086   5.494
77653SOL    HW234857  14.099   8.013   5.386
77654SOL     OW34858  12.526   2.939  10.708
77654SOL    HW134859  12.589   2.975  10.769
77654SOL    HW234860  12.522   2.845  10.730
77655SOL     OW34861   8.715  13.775   7.209
77655SOL    HW134862   8.685  13.687   7.230
77655SOL    HW234863   8.798  13.762   7.163
77656SOL     OW34864   4.136   0.211   2.348
77656SOL    HW134865   4.144   0.288   2.293
77656SOL    HW234866   4.163   0.240   2.435
77657SOL     OW34867  11.838   3.172   9.778
77657SOL    HW134868  11.823   3.203   9.867
77657SOL    HW234869  11.766   3.207   9.727
77658SOL     OW34870   0.369   0.359   8.898
77658SOL    HW134871   0.390   0.347   8.805
77658SOL    HW234872   0.447   0.401   8.935
77659SOL     OW34873   9.213  12.727   6.143
77659SOL    HW134874   9.294  12.775   6.127
77659SOL    HW234875   9.239  12.635   6.141
77660SOL     OW34876  12.756   9.867   2.641
77660SOL    HW134877  12.704   9.798   2.681
77660SOL    HW234878  12.835   9.823   2.611
77661SOL     OW34879  14.756   5.990   5.156
77661SOL    HW134880  14.728   5.978   5.247
77661SOL    HW234881  14.678   6.020   5.110
77662SOL     OW34882  11.117   4.821   5.718
77662SOL    HW134883  11.101   4.910   5.748
77662SOL    HW234884  11.110   4.826   5.623
77663SOL     OW34885   7.666  11.614   9.411
77663SOL    HW134886   7.745  11.567   9.385
77663SOL    HW234887   7.685  11.706   9.388
77664SOL     OW34888   1.258   7.808  12.491
77664SOL    HW134889   1.215   7.729  12.460
77664SOL    HW234890   1.342   7.779  12.526
77665SOL     OW34891   6.947  13.608   8.458
77665SOL    HW134892   7.027  13.624   8.406
77665SOL    HW234893   6.904  13.535   8.413
77666SOL     OW34894   9.782   7.360   7.367
77666SOL    HW134895   9.744   7.418   7.301
77666SOL    HW234896   9.858   7.321   7.323
77667SOL     OW34897   7.557  10.526   7.255
77667SOL    HW134898   7.643  10.547   7.292
77667SOL    HW234899   7.546  10.432   7.270
77668SOL     OW34900  11.822   5.440   1.373
77668SOL    HW134901  11.818   5.479   1.460
77668SOL    HW234902  11.877   5.362   1.385
77669SOL     OW34903   2.165   2.146   4.104
77669SOL    HW134904   2.178   2.198   4.025
77669SOL    HW234905   2.155   2.056   4.073
77670SOL     OW34906   6.974   3.438   8.932
77670SOL    HW134907   6.942   3.526   8.910
77670SOL    HW234908   6.903   3.379   8.906
77671SOL     OW34909  12.642   5.688   3.971
77671SOL    HW134910  12.659   5.596   3.951
77671SOL    HW234911  12.562   5.687   4.024
77672SOL     OW34912   1.186   0.627   3.460
77672SOL    HW134913   1.207   0.653   3.371
77672SOL    HW234914   1.156   0.536   3.452
77673SOL     OW34915   0.021  10.147   6.393
77673SOL    HW134916   0.005  10.168   6.485
77673SOL    HW234917   0.027  10.233   6.350
77674SOL     OW34918   2.681   3.848  10.436
77674SOL    HW134919   2.743   3.918  10.457
77674SOL    HW234920   2.698   3.780  10.501
77675SOL     OW34921  13.003   6.511   1.602
77675SOL    HW134922  13.058   6.502   1.524
77675SOL    HW234923  13.058   6.483   1.674
77676SOL     OW34924  13.661   0.410   6.657
77676SOL    HW134925  13.573   0.413   6.695
77676SOL    HW234926  13.719   0.433   6.729
77677SOL     OW34927   7.415   3.072   4.093
77677SOL    HW134928   7.463   3.137   4.143
77677SOL    HW234929   7.481   3.026   4.042
77678SOL     OW34930   4.373  14.085   8.173
77678SOL    HW134931   4.429  14.137   8.115
77678SOL    HW234932   4.421  14.003   8.186
77679SOL     OW34933   6.556   5.398  10.156
77679SOL    HW134934   6.462   5.406  10.139
77679SOL    HW234935   6.590   5.485  10.141
77680SOL     OW34936   2.204   2.830   2.607
77680SOL    HW134937   2.281   2.865   2.652
77680SOL    HW234938   2.165   2.769   2.671
77681SOL     OW34939   7.994  14.142   6.986
77681SOL    HW134940   7.902  14.160   6.968
77681SOL    HW234941   8.028  14.109   6.903
77682SOL     OW34942   9.739   0.078   2.257
77682SOL    HW134943   9.779  14.868   2.262
77682SOL    HW234944   9.773   0.124   2.333
77683SOL     OW34945   5.332  14.209   4.941
77683SOL    HW134946   5.353  14.250   4.857
77683SOL    HW234947   5.236  14.212   4.945
77684SOL     OW34948  10.031   6.413   7.749
77684SOL    HW134949   9.949   6.424   7.700
77684SOL    HW234950  10.090   6.369   7.687
77685SOL     OW34951   1.860   1.022   4.825
77685SOL    HW134952   1.883   1.001   4.735
77685SOL    HW234953   1.944   1.044   4.866
77686SOL     OW34954   1.634  12.748  14.194
77686SOL    HW134955   1.561  12.688  14.176
77686SOL    HW234956   1.634  12.757  14.290
77687SOL     OW34957   4.753   2.165  13.582
77687SOL    HW134958   4.745   2.135  13.491
77687SOL    HW234959   4.715   2.253  13.581
77688SOL     OW34960   3.685   4.898   3.219
77688SOL    HW134961   3.764   4.936   3.258
77688SOL    HW234962   3.627   4.973   3.204
77689SOL     OW34963  10.928   8.410   5.699
77689SOL    HW134964  10.888   8.405   5.612
77689SOL    HW234965  10.854   8.415   5.760
77690SOL     OW34966   4.717  11.801   3.485
77690SOL    HW134967   4.746  11.777   3.396
77690SOL    HW234968   4.712  11.896   3.483
77691SOL     OW34969   0.568  10.820   5.319
77691SOL    HW134970   0.538  10.910   5.303
77691SOL    HW234971   0.522  10.794   5.399
77692SOL     OW34972   6.967  10.461  13.708
77692SOL    HW134973   6.880  10.473  13.671
77692SOL    HW234974   7.015  10.540  13.682
77693SOL     OW34975   0.764   9.712   9.563
77693SOL    HW134976   0.786   9.620   9.577
77693SOL    HW234977   0.697   9.711   9.495
77694SOL     OW34978   4.147   5.224  10.335
77694SOL    HW134979   4.211   5.168  10.377
77694SOL    HW234980   4.198   5.299  10.303
77695SOL     OW34981   3.865   3.862  14.530
77695SOL    HW134982   3.912   3.945  14.528
77695SOL    HW234983   3.790   3.877  14.588
77696SOL     OW34984   7.160   9.069   4.142
77696SOL    HW134985   7.185   8.995   4.197
77696SOL    HW234986   7.084   9.038   4.093
77697SOL     OW34987   5.185  12.836   9.850
77697SOL    HW134988   5.212  12.778   9.780
77697SOL    HW234989   5.205  12.787   9.930
77698SOL     OW34990   0.801   5.571  10.597
77698SOL    HW134991   0.833   5.661  10.593
77698SOL    HW234992   0.854   5.524  10.533
77699SOL     OW34993   9.167   8.486  13.504
77699SOL    HW134994   9.150   8.418  13.440
77699SOL    HW234995   9.182   8.439  13.586
77700SOL     OW34996  12.851   5.906   9.322
77700SOL    HW134997  12.790   5.961   9.370
77700SOL    HW234998  12.872   5.835   9.383
77701SOL     OW34999   7.250   0.660  10.400
77701SOL    HW135000   7.255   0.754  10.387
77701SOL    HW235001   7.209   0.626  10.321
77702SOL     OW35002  10.275  10.829   5.792
77702SOL    HW135003  10.189  10.794   5.768
77702SOL    HW235004  10.257  10.918   5.820
77703SOL     OW35005  14.566   0.821  14.255
77703SOL    HW135006  14.515   0.883  14.308
77703SOL    HW235007  14.599   0.874  14.183
77704SOL     OW35008   7.238   4.452   1.287
77704SOL    HW135009   7.268   4.530   1.240
77704SOL    HW235010   7.270   4.463   1.376
77705SOL     OW35011   6.296   8.400  11.088
77705SOL    HW135012   6.385   8.431  11.105
77705SOL    HW235013   6.254   8.471  11.040
77706SOL     OW35014  13.108   4.244  13.401
77706SOL    HW135015  13.184   4.212  13.352
77706SOL    HW235016  13.091   4.175  13.466
77707SOL     OW35017   5.980   2.375   5.466
77707SOL    HW135018   5.998   2.356   5.374
77707SOL    HW235019   6.065   2.368   5.509
77708SOL     OW35020   1.944   0.692  13.892
77708SOL    HW135021   1.862   0.699  13.844
77708SOL    HW235022   1.926   0.728  13.978
77709SOL     OW35023   8.911  14.269   9.365
77709SOL    HW135024   8.935  14.357   9.393
77709SOL    HW235025   8.829  14.250   9.411
77710SOL     OW35026  12.903  14.231  12.882
77710SOL    HW135027  12.992  14.263  12.896
77710SOL    HW235028  12.885  14.176  12.958
77711SOL     OW35029   2.720   9.646   9.636
77711SOL    HW135030   2.626   9.646   9.618
77711SOL    HW235031   2.730   9.587   9.711
77712SOL     OW35032   9.240   7.911   4.944
77712SOL    HW135033   9.200   7.952   4.867
77712SOL    HW235034   9.270   7.986   4.997
77713SOL     OW35035   1.466  12.568  12.406
77713SOL    HW135036   1.489  12.566  12.499
77713SOL    HW235037   1.372  12.549  12.405
77714SOL     OW35038   9.688   5.707   0.504
77714SOL    HW135039   9.742   5.771   0.458
77714SOL    HW235040   9.738   5.686   0.583
77715SOL     OW35041   9.378   8.423  12.323
77715SOL    HW135042   9.397   8.481  12.397
77715SOL    HW235043   9.286   8.398  12.336
77716SOL     OW35044  12.391  11.729   3.212
77716SOL    HW135045  12.324  11.786   3.175
77716SOL    HW235046  12.348  11.683   3.284
77717SOL     OW35047   3.696   7.109   0.270
77717SOL    HW135048   3.630   7.177   0.284
77717SOL    HW235049   3.658   7.051   0.205
77718SOL     OW35050   7.682   8.493  10.943
77718SOL    HW135051   7.746   8.422  10.953
77718SOL    HW235052   7.597   8.451  10.950
77719SOL     OW35053  13.368   3.314   9.957
77719SOL    HW135054  13.376   3.402   9.922
77719SOL    HW235055  13.457   3.289   9.981
77720SOL     OW35056  13.645   8.423   1.568
77720SOL    HW135057  13.619   8.331   1.557
77720SOL    HW235058  13.567   8.473   1.543
77721SOL     OW35059  12.280   4.458  10.607
77721SOL    HW135060  12.248   4.498  10.688
77721SOL    HW235061  12.210   4.400  10.579
77722SOL     OW35062  14.035  12.673   2.092
77722SOL    HW135063  14.046  12.578   2.090
77722SOL    HW235064  14.048  12.701   2.001
77723SOL     OW35065   6.317  12.476   6.506
77723SOL    HW135066   6.255  12.469   6.578
77723SOL    HW235067   6.374  12.399   6.517
77724SOL     OW35068   1.905   9.279  13.764
77724SOL    HW135069   1.968   9.219  13.724
77724SOL    HW235070   1.821   9.234  13.756
77725SOL     OW35071   3.483   0.537   4.711
77725SOL    HW135072   3.395   0.566   4.735
77725SOL    HW235073   3.469   0.472   4.643
77726SOL     OW35074   0.330  13.532   8.453
77726SOL    HW135075   0.424  13.544   8.438
77726SOL    HW235076   0.309  13.596   8.521
77727SOL     OW35077   6.280  12.358  10.798
77727SOL    HW135078   6.366  12.395  10.816
77727SOL    HW235079   6.285  12.330  10.706
77728SOL     OW35080  14.234   2.326   6.086
77728SOL    HW135081  14.179   2.345   6.162
77728SOL    HW235082  14.258   2.234   6.095
77729SOL     OW35083   1.227  12.243   4.458
77729SOL    HW135084   1.182  12.317   4.416
77729SOL    HW235085   1.290  12.284   4.518
77730SOL     OW35086  12.908   2.743  14.398
77730SOL    HW135087  12.978   2.805  14.379
77730SOL    HW235088  12.929   2.666  14.346
77731SOL     OW35089   6.652   8.519   4.422
77731SOL    HW135090   6.638   8.604   4.380
77731SOL    HW235091   6.680   8.462   4.351
77732SOL     OW35092   5.196   7.094   8.848
77732SOL    HW135093   5.115   7.131   8.814
77732SOL    HW235094   5.245   7.069   8.769
77733SOL     OW35095  11.108   8.756  14.796
77733SOL    HW135096  11.201   8.750  14.776
77733SOL    HW235097  11.104   8.808  14.877
77734SOL     OW35098   5.672  14.349  14.475
77734SOL    HW135099   5.766  14.370  14.483
77734SOL    HW235100   5.653  14.360  14.382
77735SOL     OW35101   7.838   0.015  12.043
77735SOL    HW135102   7.917  14.871  11.994
77735SOL    HW235103   7.857   0.099  12.084
77736SOL     OW35104   4.572  12.655   2.861
77736SOL    HW135105   4.540  12.621   2.778
77736SOL    HW235106   4.604  12.578   2.908
77737SOL     OW35107   3.452   4.152  10.328
77737SOL    HW135108   3.538   4.122  10.300
77737SOL    HW235109   3.453   4.246  10.312
77738SOL     OW35110   2.086  10.791   3.099
77738SOL    HW135111   2.061  10.734   3.171
77738SOL    HW235112   2.006  10.839   3.077
77739SOL     OW35113   8.113   3.785   9.625
77739SOL    HW135114   8.036   3.752   9.670
77739SOL    HW235115   8.118   3.734   9.544
77740SOL     OW35116   4.567   9.184  11.401
77740SOL    HW135117   4.656   9.163  11.428
77740SOL    HW235118   4.554   9.135  11.319
77741SOL     OW35119  12.126   0.690   8.865
77741SOL    HW135120  12.119   0.733   8.780
77741SOL    HW235121  12.057   0.731   8.918
77742SOL     OW35122  11.952  11.259  11.235
77742SOL    HW135123  11.976  11.333  11.179
77742SOL    HW235124  12.032  11.237  11.282
77743SOL     OW35125  11.962   9.820   8.546
77743SOL    HW135126  11.904   9.812   8.621
77743SOL    HW235127  11.912   9.871   8.482
77744SOL     OW35128  14.402   8.620   7.235
77744SOL    HW135129  14.370   8.667   7.312
77744SOL    HW235130  14.370   8.531   7.246
77745SOL     OW35131   1.253   1.453   1.909
77745SOL    HW135132   1.176   1.487   1.954
77745SOL    HW235133   1.301   1.405   1.977
77746SOL     OW35134   9.574  11.693  14.145
77746SOL    HW135135   9.608  11.644  14.070
77746SOL    HW235136   9.584  11.785  14.121
77747SOL     OW35137  11.085   1.906   0.575
77747SOL    HW135138  11.131   1.843   0.632
77747SOL    HW235139  11.151   1.972   0.555
77748SOL     OW35140   5.605  12.186   1.839
77748SOL    HW135141   5.606  12.224   1.927
77748SOL    HW235142   5.693  12.201   1.805
77749SOL     OW35143   2.120  10.166   8.389
77749SOL    HW135144   2.116  10.097   8.323
77749SOL    HW235145   2.192  10.141   8.446
77750SOL     OW35146   0.193  13.186  10.318
77750SOL    HW135147   0.168  13.247  10.249
77750SOL    HW235148   0.162  13.100  10.287
77751SOL     OW35149  11.115   8.173  12.307
77751SOL    HW135150  11.102   8.140  12.396
77751SOL    HW235151  11.210   8.183  12.299
77752SOL     OW35152   7.455   6.250   2.776
77752SOL    HW135153   7.442   6.205   2.859
77752SOL    HW235154   7.487   6.181   2.717
77753SOL     OW35155  11.485  11.248   5.069
77753SOL    HW135156  11.452  11.254   4.979
77753SOL    HW235157  11.499  11.154   5.083
77754SOL     OW35158  10.985  12.521   0.081
77754SOL    HW135159  11.053  12.505   0.147
77754SOL    HW235160  10.998  12.612   0.055
77755SOL     OW35161  12.478  12.152   3.707
77755SOL    HW135162  12.474  12.201   3.789
77755SOL    HW235163  12.404  12.186   3.656
77756SOL     OW35164  12.129   7.209   8.406
77756SOL    HW135165  12.220   7.229   8.386
77756SOL    HW235166  12.132   7.162   8.490
77757SOL     OW35167  13.265   8.267   2.591
77757SOL    HW135168  13.170   8.254   2.593
77757SOL    HW235169  13.300   8.194   2.642
77758SOL     OW35170  13.012   1.144   4.277
77758SOL    HW135171  13.013   1.070   4.216
77758SOL    HW235172  12.946   1.121   4.342
77759SOL     OW35173   2.219   1.195   5.219
77759SOL    HW135174   2.253   1.107   5.235
77759SOL    HW235175   2.207   1.199   5.124
77760SOL     OW35176   2.520   0.436   9.014
77760SOL    HW135177   2.454   0.403   8.954
77760SOL    HW235178   2.542   0.523   8.980
77761SOL     OW35179  11.704  11.338   4.770
77761SOL    HW135180  11.740  11.362   4.685
77761SOL    HW235181  11.652  11.415   4.797
77762SOL     OW35182   3.551  12.976  13.071
77762SOL    HW135183   3.549  12.884  13.043
77762SOL    HW235184   3.565  12.972  13.165
77763SOL     OW35185   1.905  12.834   2.574
77763SOL    HW135186   2.000  12.834   2.570
77763SOL    HW235187   1.878  12.794   2.491
77764SOL     OW35188   9.009   6.310  13.658
77764SOL    HW135189   9.004   6.347  13.570
77764SOL    HW235190   8.918   6.305  13.686
77765SOL     OW35191   4.917   8.343   6.498
77765SOL    HW135192   4.903   8.249   6.492
77765SOL    HW235193   5.013   8.353   6.499
77766SOL     OW35194   4.192   3.107   7.257
77766SOL    HW135195   4.282   3.129   7.231
77766SOL    HW235196   4.187   3.012   7.249
77767SOL     OW35197  13.584   5.079   0.390
77767SOL    HW135198  13.587   5.174   0.397
77767SOL    HW235199  13.672   5.055   0.359
77768SOL     OW35200  10.973   7.760  13.097
77768SOL    HW135201  10.983   7.842  13.145
77768SOL    HW235202  11.007   7.779  13.010
77769SOL     OW35203  14.753  10.990   7.350
77769SOL    HW135204  14.765  11.053   7.421
77769SOL    HW235205  14.742  11.044   7.272
77770SOL     OW35206   1.578   2.130   9.417
77770SOL    HW135207   1.623   2.095   9.339
77770SOL    HW235208   1.642   2.121   9.487
77771SOL     OW35209   2.456   5.547   4.161
77771SOL    HW135210   2.520   5.558   4.231
77771SOL    HW235211   2.509   5.524   4.084
77772SOL     OW35212   6.659   0.067   8.355
77772SOL    HW135213   6.571   0.062   8.393
77772SOL    HW235214   6.708  14.875   8.399
77773SOL     OW35215   5.187   1.784   9.414
77773SOL    HW135216   5.262   1.760   9.360
77773SOL    HW235217   5.220   1.850   9.474
77774SOL     OW35218   0.634   0.512  12.089
77774SOL    HW135219   0.644   0.498  11.995
77774SOL    HW235220   0.719   0.489  12.126
77775SOL     OW35221   2.712   2.537   5.936
77775SOL    HW135222   2.756   2.622   5.933
77775SOL    HW235223   2.635   2.548   5.880
77776SOL     OW35224  14.288   4.369   5.233
77776SOL    HW135225  14.281   4.396   5.324
77776SOL    HW235226  14.330   4.443   5.189
77777SOL     OW35227   3.509  12.614   7.135
77777SOL    HW135228   3.462  12.630   7.217
77777SOL    HW235229   3.532  12.701   7.104
77778SOL     OW35230  14.739   1.291   6.038
77778SOL    HW135231  14.818   1.304   5.987
77778SOL    HW235232  14.669   1.333   5.987
77779SOL     OW35233  12.975   7.076   1.139
77779SOL    HW135234  13.063   7.105   1.114
77779SOL    HW235235  12.953   7.128   1.216
77780SOL     OW35236  13.035   6.996  11.405
77780SOL    HW135237  12.972   7.055  11.363
77780SOL    HW235238  13.120   7.024  11.372
77781SOL     OW35239  11.386  10.318   2.203
77781SOL    HW135240  11.296  10.324   2.173
77781SOL    HW235241  11.384  10.344   2.295
77782SOL     OW35242  14.877   9.687   7.325
77782SOL    HW135243   0.045   9.753   7.272
77782SOL    HW235244   0.008   9.718   7.415
77783SOL     OW35245   8.083   2.120  12.921
77783SOL    HW135246   8.013   2.173  12.881
77783SOL    HW235247   8.036   2.052  12.969
77784SOL     OW35248   7.850   4.218   0.042
77784SOL    HW135249   7.790   4.147   0.019
77784SOL    HW235250   7.799   4.298   0.032
77785SOL     OW35251   4.042   0.512  13.085
77785SOL    HW135252   3.988   0.539  13.159
77785SOL    HW235253   4.102   0.447  13.121
77786SOL     OW35254   4.894  12.801  11.223
77786SOL    HW135255   4.902  12.880  11.170
77786SOL    HW235256   4.937  12.822  11.305
77787SOL     OW35257   2.398   8.564   0.333
77787SOL    HW135258   2.436   8.634   0.386
77787SOL    HW235259   2.308   8.555   0.366
77788SOL     OW35260  12.012   3.025   8.771
77788SOL    HW135261  12.020   3.077   8.851
77788SOL    HW235262  12.054   2.941   8.792
77789SOL     OW35263  13.181   9.741  13.071
77789SOL    HW135264  13.243   9.784  13.013
77789SOL    HW235265  13.105   9.722  13.016
77790SOL     OW35266   8.330   1.553   4.222
77790SOL    HW135267   8.370   1.489   4.164
77790SOL    HW235268   8.290   1.501   4.292
77791SOL     OW35269   1.470   3.696  10.704
77791SOL    HW135270   1.491   3.787  10.683
77791SOL    HW235271   1.386   3.700  10.748
77792SOL     OW35272  13.358  14.839  12.541
77792SOL    HW135273  13.304  14.801  12.472
77792SOL    HW235274  13.296  14.865  12.609
77793SOL     OW35275   5.403   3.504   0.800
77793SOL    HW135276   5.307   3.510   0.803
77793SOL    HW235277   5.428   3.566   0.731
77794SOL     OW35278   7.370   4.401   4.880
77794SOL    HW135279   7.451   4.399   4.829
77794SOL    HW235280   7.350   4.494   4.889
77795SOL     OW35281   3.658   2.539   7.347
77795SOL    HW135282   3.591   2.486   7.390
77795SOL    HW235283   3.622   2.558   7.260
77796SOL     OW35284   6.240   1.140   4.699
77796SOL    HW135285   6.174   1.209   4.707
77796SOL    HW235286   6.190   1.059   4.707
77797SOL     OW35287   2.284  13.272   8.091
77797SOL    HW135288   2.190  13.292   8.087
77797SOL    HW235289   2.306  13.244   8.002
77798SOL     OW35290   9.200   5.605  12.592
77798SOL    HW135291   9.241   5.691  12.596
77798SOL    HW235292   9.228   5.568  12.508
77799SOL     OW35293   1.866  12.478   1.964
77799SOL    HW135294   1.776  12.485   1.932
77799SOL    HW235295   1.904  12.406   1.913
77800SOL     OW35296   6.398   8.675   7.800
77800SOL    HW135297   6.413   8.595   7.851
77800SOL    HW235298   6.438   8.745   7.851
77801SOL     OW35299   8.201  13.156  14.774
77801SOL    HW135300   8.177  13.188  14.687
77801SOL    HW235301   8.237  13.068  14.758
77802SOL     OW35302   0.968  13.411   6.427
77802SOL    HW135303   0.977  13.385   6.519
77802SOL    HW235304   1.057  13.407   6.392
77803SOL     OW35305  10.942  12.477  10.154
77803SOL    HW135306  10.976  12.561  10.123
77803SOL    HW235307  10.969  12.414  10.087
77804SOL     OW35308   8.527   4.267   1.135
77804SOL    HW135309   8.529   4.253   1.041
77804SOL    HW235310   8.440   4.304   1.152
77805SOL     OW35311   2.935  10.758   9.159
77805SOL    HW135312   2.942  10.718   9.245
77805SOL    HW235313   3.002  10.715   9.106
77806SOL     OW35314   3.495   5.842  10.097
77806SOL    HW135315   3.448   5.827  10.179
77806SOL    HW235316   3.455   5.920  10.060
77807SOL     OW35317   6.852   2.806   9.323
77807SOL    HW135318   6.786   2.868   9.352
77807SOL    HW235319   6.880   2.761   9.403
77808SOL     OW35320   3.899   3.834   6.723
77808SOL    HW135321   3.952   3.904   6.760
77808SOL    HW235322   3.953   3.796   6.654
77809SOL     OW35323   5.694  14.622  14.782
77809SOL    HW135324   5.713  14.689  14.848
77809SOL    HW235325   5.600  14.628  14.767
77810SOL     OW35326  12.736   6.090  10.701
77810SOL    HW135327  12.764   6.002  10.675
77810SOL    HW235328  12.683   6.121  10.627
77811SOL     OW35329   9.195  11.844  11.391
77811SOL    HW135330   9.178  11.775  11.327
77811SOL    HW235331   9.176  11.925  11.345
77812SOL     OW35332   3.131  14.144   6.682
77812SOL    HW135333   3.216  14.103   6.665
77812SOL    HW235334   3.092  14.091   6.752
77813SOL     OW35335   7.719  10.545   8.744
77813SOL    HW135336   7.699  10.560   8.836
77813SOL    HW235337   7.765  10.625   8.716
77814SOL     OW35338   5.479   2.490   4.877
77814SOL    HW135339   5.543   2.501   4.947
77814SOL    HW235340   5.402   2.540   4.906
77815SOL     OW35341  14.197   2.655   6.629
77815SOL    HW135342  14.255   2.623   6.560
77815SOL    HW235343  14.119   2.685   6.583
77816SOL     OW35344   0.862  11.706  13.201
77816SOL    HW135345   0.780  11.665  13.172
77816SOL    HW235346   0.887  11.657  13.280
77817SOL     OW35347   1.692  11.766  11.513
77817SOL    HW135348   1.611  11.749  11.465
77817SOL    HW235349   1.662  11.798  11.599
77818SOL     OW35350   2.111   3.062   2.100
77818SOL    HW135351   2.089   3.001   2.171
77818SOL    HW235352   2.092   3.148   2.136
77819SOL     OW35353  11.664  14.783   7.161
77819SOL    HW135354  11.720  14.758   7.088
77819SOL    HW235355  11.605  14.708   7.174
77820SOL     OW35356   0.153   7.921  13.861
77820SOL    HW135357   0.090   7.918  13.789
77820SOL    HW235358   0.186   8.011  13.860
77821SOL     OW35359   5.112   7.647  12.812
77821SOL    HW135360   5.177   7.611  12.873
77821SOL    HW235361   5.102   7.580  12.745
77822SOL     OW35362   3.124   0.128   3.668
77822SOL    HW135363   3.081   0.213   3.661
77822SOL    HW235364   3.169   0.130   3.752
77823SOL     OW35365   6.661  11.270  13.519
77823SOL    HW135366   6.700  11.214  13.452
77823SOL    HW235367   6.684  11.359  13.492
77824SOL     OW35368   6.746   2.956   4.937
77824SOL    HW135369   6.828   3.004   4.944
77824SOL    HW235370   6.726   2.954   4.843
77825SOL     OW35371   0.935   2.032   6.449
77825SOL    HW135372   1.007   2.057   6.391
77825SOL    HW235373   0.881   2.110   6.456
77826SOL     OW35374  12.565   3.328   6.897
77826SOL    HW135375  12.624   3.357   6.828
77826SOL    HW235376  12.484   3.376   6.882
77827SOL     OW35377  12.106   7.435   9.885
77827SOL    HW135378  12.177   7.452   9.824
77827SOL    HW235379  12.038   7.499   9.862
77828SOL     OW35380   5.103   4.104  14.572
77828SOL    HW135381   5.177   4.057  14.611
77828SOL    HW235382   5.143   4.169  14.515
77829SOL     OW35383   2.172   2.372   7.443
77829SOL    HW135384   2.083   2.337   7.440
77829SOL    HW235385   2.173   2.442   7.378
77830SOL     OW35386   7.353   2.824   9.964
77830SOL    HW135387   7.424   2.780  10.009
77830SOL    HW235388   7.276   2.769   9.979
77831SOL     OW35389   2.726   7.280   4.280
77831SOL    HW135390   2.691   7.278   4.191
77831SOL    HW235391   2.661   7.233   4.333
77832SOL     OW35392   6.133  12.416   8.797
77832SOL    HW135393   6.137  12.407   8.892
77832SOL    HW235394   6.140  12.327   8.764
77833SOL     OW35395   1.322  10.084  13.647
77833SOL    HW135396   1.410  10.049  13.632
77833SOL    HW235397   1.337  10.166  13.695
77834SOL     OW35398   1.387   5.700   6.233
77834SOL    HW135399   1.394   5.683   6.139
77834SOL    HW235400   1.294   5.714   6.248
77835SOL     OW35401   4.623   7.237  10.814
77835SOL    HW135402   4.716   7.228  10.835
77835SOL    HW235403   4.610   7.331  10.801
77836SOL     OW35404   2.428  11.779  11.416
77836SOL    HW135405   2.513  11.812  11.446
77836SOL    HW235406   2.414  11.699  11.466
77837SOL     OW35407   8.503  12.701  13.562
77837SOL    HW135408   8.527  12.647  13.487
77837SOL    HW235409   8.475  12.784  13.524
77838SOL     OW35410   1.466  10.197   6.231
77838SOL    HW135411   1.553  10.189   6.193
77838SOL    HW235412   1.410  10.144   6.174
77839SOL     OW35413  11.959  14.184   4.547
77839SOL    HW135414  11.948  14.223   4.460
77839SOL    HW235415  12.053  14.173   4.556
77840SOL     OW35416   4.850   3.560   0.016
77840SOL    HW135417   4.937   3.519   0.012
77840SOL    HW235418   4.801   3.507   0.079
77841SOL     OW35419   1.585  10.700  11.027
77841SOL    HW135420   1.550  10.612  11.013
77841SOL    HW235421   1.588  10.711  11.122
77842SOL     OW35422   6.882   5.717   1.137
77842SOL    HW135423   6.893   5.772   1.060
77842SOL    HW235424   6.965   5.725   1.184
77843SOL     OW35425  10.933   2.446   1.669
77843SOL    HW135426  10.907   2.396   1.592
77843SOL    HW235427  10.938   2.381   1.739
77844SOL     OW35428   0.483  13.010   7.107
77844SOL    HW135429   0.424  12.961   7.164
77844SOL    HW235430   0.539  12.943   7.067
77845SOL     OW35431   7.517  12.859  11.006
77845SOL    HW135432   7.603  12.863  11.048
77845SOL    HW235433   7.533  12.891  10.917
77846SOL     OW35434   3.021   5.582  10.504
77846SOL    HW135435   3.016   5.578  10.408
77846SOL    HW235436   3.097   5.528  10.526
77847SOL     OW35437   7.976  13.024   4.277
77847SOL    HW135438   7.900  13.079   4.262
77847SOL    HW235439   7.978  12.964   4.202
77848SOL     OW35440   6.692   4.861   9.496
77848SOL    HW135441   6.702   4.946   9.538
77848SOL    HW235442   6.603   4.833   9.519
77849SOL     OW35443   9.140   3.555  11.127
77849SOL    HW135444   9.167   3.646  11.114
77849SOL    HW235445   9.216   3.503  11.099
77850SOL     OW35446   9.067   2.904   0.091
77850SOL    HW135447   9.040   2.886   0.001
77850SOL    HW235448   9.117   2.826   0.117
77851SOL     OW35449  11.553  12.747   0.789
77851SOL    HW135450  11.598  12.828   0.765
77851SOL    HW235451  11.606  12.712   0.861
77852SOL     OW35452  14.576   0.132  12.300
77852SOL    HW135453  14.609   0.113  12.388
77852SOL    HW235454  14.485   0.159  12.314
77853SOL     OW35455   9.938  10.872   3.216
77853SOL    HW135456  10.034  10.870   3.218
77853SOL    HW235457   9.916  10.882   3.124
77854SOL     OW35458   9.403   0.988   0.585
77854SOL    HW135459   9.438   0.899   0.598
77854SOL    HW235460   9.471   1.033   0.535
77855SOL     OW35461   5.084  10.952   8.232
77855SOL    HW135462   5.087  11.039   8.194
77855SOL    HW235463   5.161  10.948   8.289
77856SOL     OW35464   8.257  14.371  14.279
77856SOL    HW135465   8.239  14.310  14.207
77856SOL    HW235466   8.331  14.423  14.248
77857SOL     OW35467   5.945   2.765  12.514
77857SOL    HW135468   5.946   2.749  12.608
77857SOL    HW235469   5.981   2.686  12.476
77858SOL     OW35470  11.319  13.625   6.162
77858SOL    HW135471  11.390  13.688   6.149
77858SOL    HW235472  11.254  13.647   6.095
77859SOL     OW35473  12.730   5.458   5.739
77859SOL    HW135474  12.750   5.453   5.645
77859SOL    HW235475  12.690   5.544   5.751
77860SOL     OW35476   1.460   6.068  12.322
77860SOL    HW135477   1.468   5.995  12.261
77860SOL    HW235478   1.537   6.123  12.306
77861SOL     OW35479  10.829   7.626  13.847
77861SOL    HW135480  10.782   7.585  13.774
77861SOL    HW235481  10.921   7.608  13.829
77862SOL     OW35482  10.796   5.320  12.328
77862SOL    HW135483  10.765   5.245  12.276
77862SOL    HW235484  10.716   5.359  12.363
77863SOL     OW35485   9.463   6.707   1.845
77863SOL    HW135486   9.434   6.709   1.754
77863SOL    HW235487   9.397   6.656   1.891
77864SOL     OW35488  14.190  12.495  13.270
77864SOL    HW135489  14.192  12.584  13.304
77864SOL    HW235490  14.240  12.500  13.188
77865SOL     OW35491   9.103   0.154   1.244
77865SOL    HW135492   9.036   0.217   1.218
77865SOL    HW235493   9.148   0.195   1.318
77866SOL     OW35494   1.952  11.105  13.468
77866SOL    HW135495   1.966  11.199  13.458
77866SOL    HW235496   1.994  11.065  13.392
77867SOL     OW35497   3.554   6.755   4.502
77867SOL    HW135498   3.579   6.676   4.453
77867SOL    HW235499   3.487   6.725   4.563
77868SOL     OW35500  12.430   1.072  12.184
77868SOL    HW135501  12.441   1.150  12.239
77868SOL    HW235502  12.503   1.015  12.208
77869SOL     OW35503  12.317   7.967  12.527
77869SOL    HW135504  12.277   7.912  12.460
77869SOL    HW235505  12.336   7.907  12.599
77870SOL     OW35506  14.865   7.438   8.994
77870SOL    HW135507  14.771   7.451   9.008
77870SOL    HW235508   0.015   7.512   8.941
77871SOL     OW35509   3.171   8.650  14.173
77871SOL    HW135510   3.251   8.701  14.170
77871SOL    HW235511   3.124   8.673  14.092
77872SOL     OW35512  12.840   7.980  14.492
77872SOL    HW135513  12.931   7.951  14.503
77872SOL    HW235514  12.826   7.977  14.397
77873SOL     OW35515   9.394   7.249   6.153
77873SOL    HW135516   9.446   7.172   6.176
77873SOL    HW235517   9.315   7.214   6.114
77874SOL     OW35518   8.631   4.118  10.715
77874SOL    HW135519   8.569   4.072  10.658
77874SOL    HW235520   8.577   4.180  10.763
77875SOL     OW35521  14.315   0.918   2.381
77875SOL    HW135522  14.308   0.881   2.468
77875SOL    HW235523  14.236   0.972   2.371
77876SOL     OW35524   6.049   1.975  10.447
77876SOL    HW135525   5.955   1.970  10.463
77876SOL    HW235526   6.089   1.932  10.522
77877SOL     OW35527   3.871  13.115   3.672
77877SOL    HW135528   3.956  13.119   3.715
77877SOL    HW235529   3.889  13.140   3.581
77878SOL     OW35530   7.395   3.933   6.532
77878SOL    HW135531   7.427   3.969   6.449
77878SOL    HW235532   7.391   4.009   6.591
77879SOL     OW35533  10.676   2.048   8.657
77879SOL    HW135534  10.628   1.967   8.645
77879SOL    HW235535  10.678   2.061   8.752
77880SOL     OW35536  13.928   3.975  11.897
77880SOL    HW135537  13.938   3.892  11.850
77880SOL    HW235538  13.841   3.969  11.937
77881SOL     OW35539  14.389  12.656   5.191
77881SOL    HW135540  14.406  12.567   5.221
77881SOL    HW235541  14.296  12.670   5.210
77882SOL     OW35542  13.610   5.039   3.589
77882SOL    HW135543  13.556   4.965   3.615
77882SOL    HW235544  13.551   5.096   3.539
77883SOL     OW35545  10.009  10.179   1.414
77883SOL    HW135546   9.967  10.219   1.337
77883SOL    HW235547  10.098  10.158   1.384
77884SOL     OW35548  14.246  12.408  10.884
77884SOL    HW135549  14.275  12.320  10.857
77884SOL    HW235550  14.228  12.453  10.801
77885SOL     OW35551  14.180   4.388   3.524
77885SOL    HW135552  14.248   4.448   3.554
77885SOL    HW235553  14.156   4.339   3.602
77886SOL     OW35554   6.655  12.587   2.229
77886SOL    HW135555   6.663  12.541   2.145
77886SOL    HW235556   6.722  12.655   2.224
77887SOL     OW35557   7.211   3.519  13.146
77887SOL    HW135558   7.260   3.487  13.222
77887SOL    HW235559   7.269   3.502  13.072
77888SOL     OW35560   2.925   5.260   4.459
77888SOL    HW135561   2.866   5.185   4.465
77888SOL    HW235562   2.988   5.248   4.530
77889SOL     OW35563   7.379   4.276  13.926
77889SOL    HW135564   7.438   4.255  13.999
77889SOL    HW235565   7.438   4.305  13.856
77890SOL     OW35566   4.414  11.063  13.591
77890SOL    HW135567   4.382  11.039  13.678
77890SOL    HW235568   4.423  11.158  13.594
77891SOL     OW35569   6.142  10.456   7.294
77891SOL    HW135570   6.064  10.437   7.346
77891SOL    HW235571   6.188  10.373   7.289
77892SOL     OW35572  13.887  10.885   1.841
77892SOL    HW135573  13.835  10.832   1.780
77892SOL    HW235574  13.832  10.961   1.859
77893SOL     OW35575   1.079  13.032   1.814
77893SOL    HW135576   1.012  12.966   1.830
77893SOL    HW235577   1.036  13.098   1.759
77894SOL     OW35578   5.002   7.251   6.820
77894SOL    HW135579   5.077   7.238   6.762
77894SOL    HW235580   4.973   7.163   6.843
77895SOL     OW35581   1.386   6.912   7.617
77895SOL    HW135582   1.480   6.902   7.628
77895SOL    HW235583   1.376   6.972   7.542
77896SOL     OW35584  11.876  14.196   1.168
77896SOL    HW135585  11.917  14.275   1.131
77896SOL    HW235586  11.852  14.143   1.092
77897SOL     OW35587   9.105  14.710   7.437
77897SOL    HW135588   9.015  14.741   7.445
77897SOL    HW235589   9.112  14.641   7.503
77898SOL     OW35590  12.139   2.408  13.927
77898SOL    HW135591  12.148   2.497  13.962
77898SOL    HW235592  12.061   2.373  13.970
77899SOL     OW35593  13.285   2.948  10.206
77899SOL    HW135594  13.357   2.969  10.266
77899SOL    HW235595  13.206   2.958  10.259
77900SOL     OW35596   8.572  12.157  10.136
77900SOL    HW135597   8.557  12.242  10.096
77900SOL    HW235598   8.593  12.099  10.063
77901SOL     OW35599   6.059  11.642   0.797
77901SOL    HW135600   5.965  11.647   0.780
77901SOL    HW235601   6.089  11.733   0.794
77902SOL     OW35602   3.487  13.129   8.494
77902SOL    HW135603   3.419  13.110   8.429
77902SOL    HW235604   3.447  13.194   8.552
77903SOL     OW35605   7.344   6.812  13.245
77903SOL    HW135606   7.403   6.867  13.298
77903SOL    HW235607   7.293   6.875  13.195
77904SOL     OW35608  14.324  10.484  13.800
77904SOL    HW135609  14.255  10.458  13.862
77904SOL    HW235610  14.333  10.410  13.741
77905SOL     OW35611   8.256   2.040  10.867
77905SOL    HW135612   8.265   1.988  10.787
77905SOL    HW235613   8.332   2.014  10.920
77906SOL     OW35614  14.732  11.753   0.591
77906SOL    HW135615  14.681  11.686   0.545
77906SOL    HW235616  14.774  11.803   0.521
77907SOL     OW35617   7.354   0.204   5.816
77907SOL    HW135618   7.265   0.234   5.795
77907SOL    HW235619   7.409   0.249   5.752
77908SOL     OW35620   6.212   3.531   3.876
77908SOL    HW135621   6.125   3.558   3.846
77908SOL    HW235622   6.196   3.481   3.956
77909SOL     OW35623   6.021   6.161   4.128
77909SOL    HW135624   5.960   6.114   4.185
77909SOL    HW235625   6.107   6.134   4.157
77910SOL     OW35626  13.829   4.825   5.107
77910SOL    HW135627  13.834   4.921   5.113
77910SOL    HW235628  13.914   4.799   5.072
77911SOL     OW35629   9.120   4.739   4.967
77911SOL    HW135630   9.171   4.749   5.047
77911SOL    HW235631   9.049   4.802   4.975
77912SOL     OW35632   9.700   4.782   1.236
77912SOL    HW135633   9.674   4.776   1.144
77912SOL    HW235634   9.737   4.696   1.257
77913SOL     OW35635   9.006   4.546   8.574
77913SOL    HW135636   8.947   4.608   8.532
77913SOL    HW235637   8.985   4.462   8.533
77914SOL     OW35638   5.668   7.271   2.763
77914SOL    HW135639   5.600   7.218   2.722
77914SOL    HW235640   5.624   7.314   2.836
77915SOL     OW35641   6.355   6.403  10.776
77915SOL    HW135642   6.358   6.331  10.713
77915SOL    HW235643   6.447   6.415  10.802
77916SOL     OW35644   3.761   7.982  13.064
77916SOL    HW135645   3.679   7.938  13.044
77916SOL    HW235646   3.736   8.071  13.091
77917SOL     OW35647   8.902   8.964   9.053
77917SOL    HW135648   8.859   9.047   9.069
77917SOL    HW235649   8.840   8.914   9.000
77918SOL     OW35650   0.638   5.399  11.437
77918SOL    HW135651   0.584   5.403  11.517
77918SOL    HW235652   0.721   5.438  11.463
77919SOL     OW35653  12.787   0.488   0.612
77919SOL    HW135654  12.816   0.458   0.698
77919SOL    HW235655  12.785   0.584   0.620
77920SOL     OW35656   4.514   9.707   2.378
77920SOL    HW135657   4.534   9.780   2.437
77920SOL    HW235658   4.494   9.634   2.436
77921SOL     OW35659   6.010  13.617   5.016
77921SOL    HW135660   6.103  13.610   4.994
77921SOL    HW235661   5.990  13.535   5.061
77922SOL     OW35662   1.611   6.371  13.453
77922SOL    HW135663   1.565   6.342  13.374
77922SOL    HW235664   1.630   6.290  13.501
77923SOL     OW35665   7.961   3.352  14.211
77923SOL    HW135666   7.947   3.318  14.123
77923SOL    HW235667   7.964   3.447  14.200
77924SOL     OW35668  11.430   5.953  11.670
77924SOL    HW135669  11.343   5.921  11.644
77924SOL    HW235670  11.474   5.875  11.705
77925SOL     OW35671   2.134   3.619  12.588
77925SOL    HW135672   2.080   3.555  12.541
77925SOL    HW235673   2.165   3.572  12.665
77926SOL     OW35674  13.110   3.678   7.420
77926SOL    HW135675  13.160   3.608   7.462
77926SOL    HW235676  13.103   3.746   7.487
77927SOL     OW35677   9.367   4.302   1.729
77927SOL    HW135678   9.301   4.255   1.677
77927SOL    HW235679   9.316   4.367   1.777
77928SOL     OW35680   0.441  13.305   8.163
77928SOL    HW135681   0.498  13.314   8.239
77928SOL    HW235682   0.475  13.229   8.116
77929SOL     OW35683  13.910   6.753   9.921
77929SOL    HW135684  13.833   6.696   9.928
77929SOL    HW235685  13.895   6.803   9.840
77930SOL     OW35686   0.209  11.841  11.536
77930SOL    HW135687   0.114  11.839  11.525
77930SOL    HW235688   0.232  11.753  11.564
77931SOL     OW35689   9.318  12.485  11.713
77931SOL    HW135690   9.408  12.495  11.743
77931SOL    HW235691   9.286  12.407  11.759
77932SOL     OW35692   1.132   0.800   0.026
77932SOL    HW135693   1.077   0.807  14.826
77932SOL    HW235694   1.215   0.766  14.871
77933SOL     OW35695   9.964  12.811   8.720
77933SOL    HW135696   9.875  12.778   8.724
77933SOL    HW235697   9.999  12.774   8.639
77934SOL     OW35698  11.294  12.052   7.983
77934SOL    HW135699  11.382  12.066   7.947
77934SOL    HW235700  11.286  11.957   7.991
77935SOL     OW35701   7.680   3.735   1.251
77935SOL    HW135702   7.672   3.641   1.269
77935SOL    HW235703   7.774   3.752   1.252
77936SOL     OW35704   0.011   0.950   0.763
77936SOL    HW135705  14.797   0.925   0.776
77936SOL    HW235706   0.058   0.903   0.831
77937SOL     OW35707  13.221  13.316   0.752
77937SOL    HW135708  13.299  13.282   0.708
77937SOL    HW235709  13.240  13.408   0.766
77938SOL     OW35710  14.876   8.870   6.711
77938SOL    HW135711  14.780   8.874   6.706
77938SOL    HW235712   0.025   8.959   6.733
77939SOL     OW35713  11.944  11.382  13.116
77939SOL    HW135714  12.027  11.413  13.079
77939SOL    HW235715  11.941  11.289  13.092
77940SOL     OW35716  10.139   9.832  13.523
77940SOL    HW135717  10.066   9.784  13.483
77940SOL    HW235718  10.139   9.803  13.614
77941SOL     OW35719   4.739   2.032  13.814
77941SOL    HW135720   4.759   2.089  13.739
77941SOL    HW235721   4.817   1.978  13.825
77942SOL     OW35722   1.316   1.452   8.751
77942SOL    HW135723   1.300   1.538   8.789
77942SOL    HW235724   1.246   1.397   8.785
77943SOL     OW35725   6.726   5.030  14.053
77943SOL    HW135726   6.746   4.944  14.015
77943SOL    HW235727   6.682   5.077  13.982
77944SOL     OW35728   0.845  14.193   7.743
77944SOL    HW135729   0.798  14.182   7.826
77944SOL    HW235730   0.923  14.138   7.752
77945SOL     OW35731   6.887  12.514   7.725
77945SOL    HW135732   6.963  12.545   7.676
77945SOL    HW235733   6.817  12.509   7.659
77946SOL     OW35734  14.166   0.465  14.151
77946SOL    HW135735  14.186   0.525  14.079
77946SOL    HW235736  14.219   0.498  14.224
77947SOL     OW35737   2.186   9.237   9.220
77947SOL    HW135738   2.208   9.226   9.313
77947SOL    HW235739   2.271   9.246   9.177
77948SOL     OW35740  11.571   1.829   6.725
77948SOL    HW135741  11.587   1.749   6.776
77948SOL    HW235742  11.497   1.871   6.770
77949SOL     OW35743   0.405   2.638   3.913
77949SOL    HW135744   0.420   2.687   3.832
77949SOL    HW235745   0.435   2.697   3.982
77950SOL     OW35746   5.602   3.221  10.165
77950SOL    HW135747   5.507   3.231  10.158
77950SOL    HW235748   5.615   3.132  10.198
77951SOL     OW35749   1.588  12.102   6.870
77951SOL    HW135750   1.625  12.043   6.805
77951SOL    HW235751   1.649  12.176   6.873
77952SOL     OW35752   0.470   7.412  10.205
77952SOL    HW135753   0.486   7.337  10.148
77952SOL    HW235754   0.467   7.375  10.293
77953SOL     OW35755   0.113   4.015  10.998
77953SOL    HW135756   0.178   4.033  10.930
77953SOL    HW235757   0.138   3.930  11.034
77954SOL     OW35758   9.874   3.062  14.420
77954SOL    HW135759   9.837   2.974  14.410
77954SOL    HW235760   9.834   3.095  14.501
77955SOL     OW35761   6.814  12.676   4.424
77955SOL    HW135762   6.909  12.688   4.430
77955SOL    HW235763   6.782  12.754   4.378
77956SOL     OW35764   8.497   3.254   5.646
77956SOL    HW135765   8.496   3.347   5.624
77956SOL    HW235766   8.547   3.248   5.728
77957SOL     OW35767   0.157  10.751  11.616
77957SOL    HW135768   0.163  10.834  11.570
77957SOL    HW235769   0.088  10.703  11.571
77958SOL     OW35770  12.282   4.367   6.259
77958SOL    HW135771  12.238   4.431   6.203
77958SOL    HW235772  12.220   4.351   6.330
77959SOL     OW35773   4.624   6.216   3.864
77959SOL    HW135774   4.627   6.167   3.782
77959SOL    HW235775   4.533   6.244   3.872
77960SOL     OW35776  11.449   8.512  11.911
77960SOL    HW135777  11.447   8.484  12.002
77960SOL    HW235778  11.365   8.482  11.875
77961SOL     OW35779   0.119   4.833   9.051
77961SOL    HW135780   0.194   4.785   9.084
77961SOL    HW235781   0.112   4.909   9.109
77962SOL     OW35782  13.865  11.302   0.527
77962SOL    HW135783  13.937  11.256   0.570
77962SOL    HW235784  13.786  11.261   0.562
77963SOL     OW35785   1.068   8.648   9.906
77963SOL    HW135786   1.002   8.579   9.917
77963SOL    HW235787   1.137   8.606   9.854
77964SOL     OW35788  12.831   1.700   1.204
77964SOL    HW135789  12.785   1.689   1.121
77964SOL    HW235790  12.823   1.794   1.223
77965SOL     OW35791   8.917   0.470   2.467
77965SOL    HW135792   8.950   0.535   2.528
77965SOL    HW235793   8.832   0.444   2.503
77966SOL     OW35794   3.239  14.450  14.433
77966SOL    HW135795   3.191  14.374  14.401
77966SOL    HW235796   3.249  14.507  14.357
77967SOL     OW35797  10.691   8.930   0.612
77967SOL    HW135798  10.708   9.023   0.628
77967SOL    HW235799  10.757   8.905   0.548
77968SOL     OW35800   0.825   1.301   1.290
77968SOL    HW135801   0.795   1.342   1.208
77968SOL    HW235802   0.920   1.309   1.287
77969SOL     OW35803   5.829   4.038  11.747
77969SOL    HW135804   5.897   3.976  11.721
77969SOL    HW235805   5.834   4.108  11.683
77970SOL     OW35806   3.427  11.972   8.824
77970SOL    HW135807   3.458  11.882   8.810
77970SOL    HW235808   3.341  11.975   8.782
77971SOL     OW35809   0.351  13.649   4.852
77971SOL    HW135810   0.256  13.661   4.859
77971SOL    HW235811   0.380  13.719   4.794
77972SOL     OW35812   1.928  13.496   0.199
77972SOL    HW135813   1.855  13.507   0.261
77972SOL    HW235814   1.993  13.560   0.227
77973SOL     OW35815  11.277   5.854  14.697
77973SOL    HW135816  11.313   5.925  14.643
77973SOL    HW235817  11.332   5.779  14.675
77974SOL     OW35818   1.763   9.371   2.053
77974SOL    HW135819   1.673   9.340   2.042
77974SOL    HW235820   1.793   9.330   2.135
77975SOL     OW35821  12.347  10.062  11.201
77975SOL    HW135822  12.385  10.061  11.289
77975SOL    HW235823  12.291   9.984  11.198
77976SOL     OW35824  10.263  10.703  12.360
77976SOL    HW135825  10.199  10.768  12.388
77976SOL    HW235826  10.341  10.755  12.338
77977SOL     OW35827   3.005  10.490   1.512
77977SOL    HW135828   2.982  10.518   1.600
77977SOL    HW235829   2.939  10.426   1.488
77978SOL     OW35830   5.564   2.316   5.751
77978SOL    HW135831   5.483   2.269   5.772
77978SOL    HW235832   5.542   2.408   5.765
77979SOL     OW35833   2.074   7.587   7.819
77979SOL    HW135834   2.019   7.665   7.811
77979SOL    HW235835   2.163   7.622   7.825
77980SOL     OW35836   0.949   1.212   1.706
77980SOL    HW135837   0.867   1.226   1.658
77980SOL    HW235838   0.979   1.301   1.728
77981SOL     OW35839  13.093   1.189  11.436
77981SOL    HW135840  13.163   1.126  11.453
77981SOL    HW235841  13.019   1.135  11.406
77982SOL     OW35842   5.803   6.801   4.151
77982SOL    HW135843   5.861   6.827   4.222
77982SOL    HW235844   5.822   6.862   4.079
77983SOL     OW35845   9.268   1.292  12.273
77983SOL    HW135846   9.314   1.356  12.218
77983SOL    HW235847   9.178   1.294  12.241
77984SOL     OW35848   1.085   7.421   8.723
77984SOL    HW135849   1.059   7.472   8.800
77984SOL    HW235850   1.046   7.335   8.738
77985SOL     OW35851  14.104   7.395   8.125
77985SOL    HW135852  14.074   7.325   8.183
77985SOL    HW235853  14.186   7.362   8.089
77986SOL     OW35854   6.776  11.660   8.123
77986SOL    HW135855   6.700  11.692   8.074
77986SOL    HW235856   6.821  11.738   8.153
77987SOL     OW35857   2.613   8.016   8.555
77987SOL    HW135858   2.656   8.000   8.471
77987SOL    HW235859   2.640   7.942   8.610
77988SOL     OW35860   9.954   1.931  12.012
77988SOL    HW135861   9.898   1.885  11.950
77988SOL    HW235862   9.902   1.936  12.093
77989SOL     OW35863  10.449  10.998  14.498
77989SOL    HW135864  10.391  11.040  14.435
77989SOL    HW235865  10.534  11.039  14.482
77990SOL     OW35866  14.130   1.091   1.157
77990SOL    HW135867  14.139   1.135   1.072
77990SOL    HW235868  14.043   1.116   1.188
77991SOL     OW35869   1.543   7.752   9.600
77991SOL    HW135870   1.566   7.809   9.673
77991SOL    HW235871   1.620   7.695   9.590
77992SOL     OW35872   7.349  12.405   4.031
77992SOL    HW135873   7.385  12.419   4.119
77992SOL    HW235874   7.374  12.315   4.009
77993SOL     OW35875   6.575   0.862   6.032
77993SOL    HW135876   6.572   0.767   6.032
77993SOL    HW235877   6.568   0.886   5.939
77994SOL     OW35878   4.565   9.793   5.336
77994SOL    HW135879   4.505   9.770   5.265
77994SOL    HW235880   4.508   9.821   5.408
77995SOL     OW35881   7.019   5.785   0.167
77995SOL    HW135882   7.110   5.757   0.161
77995SOL    HW235883   7.021   5.862   0.224
77996SOL     OW35884   7.922   0.598   2.151
77996SOL    HW135885   8.010   0.622   2.181
77996SOL    HW235886   7.935   0.574   2.059
77997SOL     OW35887   1.574   8.741  10.194
77997SOL    HW135888   1.623   8.697  10.264
77997SOL    HW235889   1.585   8.684  10.118
77998SOL     OW35890   5.536   6.596   7.773
77998SOL    HW135891   5.624   6.602   7.811
77998SOL    HW235892   5.522   6.681   7.731
77999SOL     OW35893  11.984  11.027   9.864
77999SOL    HW135894  12.065  10.990   9.828
77999SOL    HW235895  11.980  11.116   9.828
78000SOL     OW35896  10.446   8.545   2.148
78000SOL    HW135897  10.413   8.497   2.072
78000SOL    HW235898  10.538   8.519   2.154
78001SOL     OW35899   6.140  14.311  11.091
78001SOL    HW135900   6.077  14.336  11.158
78001SOL    HW235901   6.223  14.350  11.119
78002SOL     OW35902   0.142  11.290   1.380
78002SOL    HW135903   0.101  11.370   1.412
78002SOL    HW235904   0.232  11.315   1.358
78003SOL     OW35905   6.819  10.977   3.627
78003SOL    HW135906   6.735  10.948   3.664
78003SOL    HW235907   6.833  10.920   3.552
78004SOL     OW35908  14.451   8.404   9.228
78004SOL    HW135909  14.370   8.455   9.235
78004SOL    HW235910  14.434   8.343   9.155
78005SOL     OW35911  12.156  14.029  11.482
78005SOL    HW135912  12.244  13.993  11.470
78005SOL    HW235913  12.098  13.955  11.467
78006SOL     OW35914  10.428  10.340   8.263
78006SOL    HW135915  10.451  10.433   8.255
78006SOL    HW235916  10.378  10.334   8.345
78007SOL     OW35917   4.526  13.660  10.836
78007SOL    HW135918   4.439  13.699  10.824
78007SOL    HW235919   4.564  13.708  10.909
78008SOL     OW35920  14.170   8.841   0.606
78008SOL    HW135921  14.145   8.915   0.660
78008SOL    HW235922  14.187   8.770   0.669
78009SOL     OW35923   1.648   5.122   9.014
78009SOL    HW135924   1.555   5.107   8.996
78009SOL    HW235925   1.653   5.215   9.037
78010SOL     OW35926   0.563   8.914   1.751
78010SOL    HW135927   0.555   8.881   1.841
78010SOL    HW235928   0.537   8.840   1.696
78011SOL     OW35929  13.015   9.294  14.599
78011SOL    HW135930  13.029   9.237  14.675
78011SOL    HW235931  13.100   9.337  14.586
78012SOL     OW35932   8.639   8.703  12.240
78012SOL    HW135933   8.635   8.659  12.155
78012SOL    HW235934   8.547   8.709  12.267
78013SOL     OW35935   4.192   6.260   0.522
78013SOL    HW135936   4.181   6.175   0.564
78013SOL    HW235937   4.189   6.241   0.428
78014SOL     OW35938  10.012   4.267   1.168
78014SOL    HW135939  10.082   4.215   1.207
78014SOL    HW235940  10.023   4.355   1.204
78015SOL     OW35941   6.875  11.771  11.738
78015SOL    HW135942   6.782  11.751  11.740
78015SOL    HW235943   6.916  11.700  11.788
78016SOL     OW35944  13.170   3.845   0.312
78016SOL    HW135945  13.185   3.938   0.297
78016SOL    HW235946  13.075   3.837   0.320
78017SOL     OW35947  13.800   7.670   6.587
78017SOL    HW135948  13.868   7.688   6.522
78017SOL    HW235949  13.762   7.755   6.606
78018SOL     OW35950   6.893   9.784   3.675
78018SOL    HW135951   6.881   9.712   3.612
78018SOL    HW235952   6.959   9.751   3.736
78019SOL     OW35953   9.017   2.625  10.145
78019SOL    HW135954   9.004   2.557  10.079
78019SOL    HW235955   9.005   2.707  10.098
78020SOL     OW35956   6.368   8.674  11.846
78020SOL    HW135957   6.404   8.587  11.826
78020SOL    HW235958   6.442   8.734  11.835
78021SOL     OW35959   8.336  14.120   4.612
78021SOL    HW135960   8.377  14.202   4.583
78021SOL    HW235961   8.242  14.135   4.600
78022SOL     OW35962   0.650   8.899   3.012
78022SOL    HW135963   0.739   8.901   3.048
78022SOL    HW235964   0.662   8.916   2.919
78023SOL     OW35965   8.329   7.299   8.116
78023SOL    HW135966   8.263   7.281   8.049
78023SOL    HW235967   8.278   7.326   8.192
78024SOL     OW35968   8.408  11.421   0.861
78024SOL    HW135969   8.341  11.356   0.839
78024SOL    HW235970   8.374  11.464   0.939
78025SOL     OW35971  13.491  14.825   5.666
78025SOL    HW135972  13.408  14.833   5.712
78025SOL    HW235973  13.479  14.876   5.586
78026SOL     OW35974  14.167  14.108  14.000
78026SOL    HW135975  14.235  14.048  14.032
78026SOL    HW235976  14.127  14.062  13.926
78027SOL     OW35977   4.501   4.838   3.174
78027SOL    HW135978   4.530   4.804   3.089
78027SOL    HW235979   4.578   4.830   3.231
78028SOL     OW35980   1.693   8.166   0.664
78028SOL    HW135981   1.621   8.229   0.653
78028SOL    HW235982   1.767   8.207   0.620
78029SOL     OW35983  14.017   6.442   7.206
78029SOL    HW135984  14.085   6.485   7.256
78029SOL    HW235985  13.935   6.472   7.245
78030SOL     OW35986   2.726  11.218  13.690
78030SOL    HW135987   2.812  11.225  13.648
78030SOL    HW235988   2.713  11.303  13.732
78031SOL     OW35989   1.740  12.120   3.430
78031SOL    HW135990   1.741  12.171   3.511
78031SOL    HW235991   1.830  12.087   3.422
78032SOL     OW35992  12.231  12.647  14.753
78032SOL    HW135993  12.287  12.713  14.711
78032SOL    HW235994  12.183  12.696  14.820
78033SOL     OW35995   0.208   2.803  10.219
78033SOL    HW135996   0.140   2.865  10.246
78033SOL    HW235997   0.289   2.837  10.258
78034SOL     OW35998  12.818  11.992  14.661
78034SOL    HW135999  12.746  12.013  14.601
78034SOL    HW236000  12.897  11.994  14.606
78035SOL     OW36001   5.182  14.792   7.103
78035SOL    HW136002   5.252  14.738   7.139
78035SOL    HW236003   5.169  14.861   7.167
78036SOL     OW36004  12.908   7.326  11.749
78036SOL    HW136005  12.900   7.332  11.654
78036SOL    HW236006  12.934   7.414  11.777
78037SOL     OW36007  10.668   6.146   7.991
78037SOL    HW136008  10.610   6.220   7.976
78037SOL    HW236009  10.750   6.169   7.947
78038SOL     OW36010  14.787   8.475   4.288
78038SOL    HW136011  14.770   8.568   4.304
78038SOL    HW236012  14.748   8.457   4.202
78039SOL     OW36013   6.503  11.180   7.807
78039SOL    HW136014   6.551  11.098   7.806
78039SOL    HW236015   6.533  11.227   7.729
78040SOL     OW36016   0.757  12.402   5.966
78040SOL    HW136017   0.730  12.312   5.983
78040SOL    HW236018   0.753  12.445   6.051
78041SOL     OW36019   9.212  13.248   2.381
78041SOL    HW136020   9.239  13.339   2.396
78041SOL    HW236021   9.271  13.217   2.312
78042SOL     OW36022   9.990   9.458   9.737
78042SOL    HW136023   9.991   9.426   9.828
78042SOL    HW236024  10.082   9.462   9.712
78043SOL     OW36025   3.038   3.234   5.210
78043SOL    HW136026   3.053   3.236   5.304
78043SOL    HW236027   2.985   3.155   5.195
78044SOL     OW36028   9.366  14.195   6.579
78044SOL    HW136029   9.338  14.157   6.662
78044SOL    HW236030   9.418  14.271   6.604
78045SOL     OW36031  12.148   1.974  11.037
78045SOL    HW136032  12.227   1.958  11.088
78045SOL    HW236033  12.175   1.956  10.946
78046SOL     OW36034   1.528  11.728   5.238
78046SOL    HW136035   1.616  11.720   5.201
78046SOL    HW236036   1.531  11.809   5.288
78047SOL     OW36037   9.229   4.208  13.020
78047SOL    HW136038   9.226   4.173  12.931
78047SOL    HW236039   9.322   4.204  13.044
78048SOL     OW36040   4.327   3.020  12.929
78048SOL    HW136041   4.248   3.034  12.982
78048SOL    HW236042   4.349   2.928  12.942
78049SOL     OW36043   5.705   9.503   0.934
78049SOL    HW136044   5.760   9.580   0.949
78049SOL    HW236045   5.632   9.536   0.882
78050SOL     OW36046   9.929   9.294  13.418
78050SOL    HW136047   9.988   9.265  13.349
78050SOL    HW236048   9.873   9.359  13.376
78051SOL     OW36049   3.611   6.073   0.203
78051SOL    HW136050   3.631   6.007   0.269
78051SOL    HW236051   3.619   6.027   0.120
78052SOL     OW36052  12.643  10.792   1.012
78052SOL    HW136053  12.554  10.812   0.985
78052SOL    HW236054  12.666  10.860   1.074
78053SOL     OW36055   1.454   0.401  14.714
78053SOL    HW136056   1.534   0.451  14.725
78053SOL    HW236057   1.460   0.330  14.778
78054SOL     OW36058  10.101  12.719  14.649
78054SOL    HW136059  10.021  12.772  14.650
78054SOL    HW236060  10.129  12.720  14.558
78055SOL     OW36061   5.366  10.134   9.771
78055SOL    HW136062   5.456  10.157   9.792
78055SOL    HW236063   5.313  10.195   9.822
78056SOL     OW36064   9.225  11.470   9.367
78056SOL    HW136065   9.290  11.540   9.365
78056SOL    HW236066   9.184  11.477   9.453
78057SOL     OW36067   7.106  11.998   9.043
78057SOL    HW136068   7.025  12.042   9.070
78057SOL    HW236069   7.170  12.068   9.035
78058SOL     OW36070  10.584   8.133   7.372
78058SOL    HW136071  10.596   8.041   7.399
78058SOL    HW236072  10.671   8.160   7.342
78059SOL     OW36073  11.585  13.541  13.992
78059SOL    HW136074  11.602  13.449  14.014
78059SOL    HW236075  11.651  13.590  14.040
78060SOL     OW36076   3.046  14.301   4.335
78060SOL    HW136077   2.974  14.286   4.273
78060SOL    HW236078   3.013  14.268   4.418
78061SOL     OW36079   2.705   1.266   8.117
78061SOL    HW136080   2.768   1.266   8.044
78061SOL    HW236081   2.755   1.301   8.191
78062SOL     OW36082  13.236  10.281   6.085
78062SOL    HW136083  13.152  10.235   6.084
78062SOL    HW236084  13.236  10.334   6.005
78063SOL     OW36085   5.669   2.179   3.566
78063SOL    HW136086   5.625   2.263   3.577
78063SOL    HW236087   5.612   2.130   3.506
78064SOL     OW36088   0.833   4.591  10.483
78064SOL    HW136089   0.793   4.576  10.569
78064SOL    HW236090   0.811   4.514  10.432
78065SOL     OW36091   5.128   6.810  10.873
78065SOL    HW136092   5.037   6.835  10.856
78065SOL    HW236093   5.123   6.723  10.913
78066SOL     OW36094   4.760   5.425   7.474
78066SOL    HW136095   4.831   5.399   7.416
78066SOL    HW236096   4.695   5.465   7.416
78067SOL     OW36097   6.592   7.862   1.350
78067SOL    HW136098   6.656   7.803   1.388
78067SOL    HW236099   6.514   7.851   1.405
78068SOL     OW36100   6.682   5.626   9.373
78068SOL    HW136101   6.620   5.553   9.359
78068SOL    HW236102   6.690   5.632   9.468
78069SOL     OW36103   9.164   3.334  12.367
78069SOL    HW136104   9.192   3.416  12.408
78069SOL    HW236105   9.191   3.343  12.275
78070SOL     OW36106   4.648   8.108   2.093
78070SOL    HW136107   4.652   8.163   2.171
78070SOL    HW236108   4.739   8.098   2.066
78071SOL     OW36109   6.854   9.286  14.645
78071SOL    HW136110   6.878   9.341  14.720
78071SOL    HW236111   6.901   9.204  14.660
78072SOL     OW36112   1.522  14.095  14.079
78072SOL    HW136113   1.549  14.151  14.006
78072SOL    HW236114   1.601  14.085  14.132
78073SOL     OW36115   9.042   8.864   7.722
78073SOL    HW136116   9.105   8.806   7.763
78073SOL    HW236117   9.083   8.951   7.726
78074SOL     OW36118   0.221   3.066   7.006
78074SOL    HW136119   0.312   3.085   7.032
78074SOL    HW236120   0.218   3.086   6.913
78075SOL     OW36121   2.226   8.970  12.150
78075SOL    HW136122   2.236   8.996  12.059
78075SOL    HW236123   2.163   8.898  12.148
78076SOL     OW36124   7.865   1.509   1.529
78076SOL    HW136125   7.808   1.479   1.459
78076SOL    HW236126   7.929   1.565   1.485
78077SOL     OW36127   8.401   2.781  14.106
78077SOL    HW136128   8.403   2.685  14.103
78077SOL    HW236129   8.315   2.802  14.142
78078SOL     OW36130   5.405   1.764   7.395
78078SOL    HW136131   5.462   1.692   7.421
78078SOL    HW236132   5.404   1.823   7.470
78079SOL     OW36133   0.691   4.712   9.485
78079SOL    HW136134   0.751   4.659   9.537
78079SOL    HW236135   0.635   4.755   9.550
78080SOL     OW36136   1.679   9.599   4.816
78080SOL    HW136137   1.641   9.650   4.744
78080SOL    HW236138   1.677   9.658   4.891
78081SOL     OW36139   6.464   9.134  13.981
78081SOL    HW136140   6.438   9.118  14.072
78081SOL    HW236141   6.507   9.053  13.954
78082SOL     OW36142   7.045  14.265   0.079
78082SOL    HW136143   7.028  14.198   0.145
78082SOL    HW236144   7.103  14.328   0.122
78083SOL     OW36145   7.783   2.368   5.375
78083SOL    HW136146   7.781   2.373   5.471
78083SOL    HW236147   7.856   2.425   5.351
78084SOL     OW36148   7.751   2.003  10.068
78084SOL    HW136149   7.831   2.015  10.120
78084SOL    HW236150   7.690   2.067  10.103
78085SOL     OW36151   9.484   3.386   9.324
78085SOL    HW136152   9.467   3.304   9.277
78085SOL    HW236153   9.566   3.418   9.286
78086SOL     OW36154   8.925   7.040   4.373
78086SOL    HW136155   8.858   7.003   4.315
78086SOL    HW236156   8.971   6.964   4.409
78087SOL     OW36157   4.120  10.373   0.065
78087SOL    HW136158   4.077  10.447   0.021
78087SOL    HW236159   4.213  10.393   0.058
78088SOL     OW36160   4.532   7.512   8.472
78088SOL    HW136161   4.493   7.433   8.435
78088SOL    HW236162   4.585   7.548   8.401
78089SOL     OW36163   5.024   4.639  13.418
78089SOL    HW136164   5.017   4.627  13.513
78089SOL    HW236165   5.033   4.734  13.407
78090SOL     OW36166  11.889   3.899   9.553
78090SOL    HW136167  11.845   3.867   9.631
78090SOL    HW236168  11.966   3.945   9.585
78091SOL     OW36169  11.489   5.403   2.805
78091SOL    HW136170  11.469   5.448   2.723
78091SOL    HW236171  11.585   5.404   2.811
78092SOL     OW36172   8.478   5.008   4.243
78092SOL    HW136173   8.449   4.981   4.156
78092SOL    HW236174   8.512   5.097   4.231
78093SOL     OW36175   4.445   3.709   1.177
78093SOL    HW136176   4.358   3.671   1.190
78093SOL    HW236177   4.495   3.679   1.253
78094SOL     OW36178  14.463  12.670  12.830
78094SOL    HW136179  14.518  12.748  12.835
78094SOL    HW236180  14.520  12.604  12.790
78095SOL     OW36181  11.541   0.556   8.083
78095SOL    HW136182  11.635   0.546   8.093
78095SOL    HW236183  11.508   0.468   8.067
78096SOL     OW36184  10.267  12.656   8.657
78096SOL    HW136185  10.286  12.644   8.750
78096SOL    HW236186  10.264  12.751   8.645
78097SOL     OW36187  14.599   4.345   9.452
78097SOL    HW136188  14.570   4.267   9.403
78097SOL    HW236189  14.546   4.416   9.416
78098SOL     OW36190   0.531   9.141   8.328
78098SOL    HW136191   0.595   9.095   8.272
78098SOL    HW236192   0.452   9.088   8.321
78099SOL     OW36193   1.171   2.798   1.309
78099SOL    HW136194   1.244   2.742   1.335
78099SOL    HW236195   1.190   2.883   1.349
78100SOL     OW36196   5.781   7.569   8.746
78100SOL    HW136197   5.830   7.588   8.826
78100SOL    HW236198   5.689   7.587   8.769
78101SOL     OW36199  10.172   6.259  11.247
78101SOL    HW136200  10.143   6.350  11.253
78101SOL    HW236201  10.222   6.244  11.327
78102SOL     OW36202   9.740   4.009   2.753
78102SOL    HW136203   9.773   4.096   2.776
78102SOL    HW236204   9.816   3.952   2.762
78103SOL     OW36205   9.471   1.065  14.316
78103SOL    HW136206   9.503   0.999  14.378
78103SOL    HW236207   9.526   1.142  14.333
78104SOL     OW36208  14.564   8.683  11.839
78104SOL    HW136209  14.648   8.644  11.817
78104SOL    HW236210  14.581   8.733  11.919
78105SOL     OW36211   3.587  11.926   9.242
78105SOL    HW136212   3.513  11.934   9.181
78105SOL    HW236213   3.546  11.906   9.326
78106SOL     OW36214   3.031   5.110   6.607
78106SOL    HW136215   3.085   5.118   6.686
78106SOL    HW236216   3.093   5.118   6.535
78107SOL     OW36217   8.430   2.729   6.776
78107SOL    HW136218   8.406   2.649   6.729
78107SOL    HW236219   8.433   2.797   6.708
78108SOL     OW36220   2.344   6.386  13.919
78108SOL    HW136221   2.276   6.390  13.986
78108SOL    HW236222   2.408   6.324  13.954
78109SOL     OW36223   4.299  11.027   8.949
78109SOL    HW136224   4.239  10.954   8.964
78109SOL    HW236225   4.251  11.104   8.981
78110SOL     OW36226   3.435   0.017  11.289
78110SOL    HW136227   3.507   0.076  11.313
78110SOL    HW236228   3.444   0.007  11.194
78111SOL     OW36229   2.626   5.183  13.615
78111SOL    HW136230   2.669   5.137  13.542
78111SOL    HW236231   2.574   5.251  13.573
78112SOL     OW36232  13.812   9.775  11.470
78112SOL    HW136233  13.832   9.856  11.422
78112SOL    HW236234  13.845   9.705  11.414
78113SOL     OW36235   9.400   2.926   2.824
78113SOL    HW136236   9.344   2.852   2.847
78113SOL    HW236237   9.414   2.916   2.730
78114SOL     OW36238  13.670   7.113  14.063
78114SOL    HW136239  13.746   7.061  14.089
78114SOL    HW236240  13.697   7.156  13.982
78115SOL     OW36241   4.192   3.128   9.710
78115SOL    HW136242   4.258   3.124   9.641
78115SOL    HW236243   4.127   3.190   9.678
78116SOL     OW36244   2.315   6.377   9.584
78116SOL    HW136245   2.281   6.329   9.660
78116SOL    HW236246   2.407   6.395   9.607
78117SOL     OW36247  10.950   3.951   6.583
78117SOL    HW136248  10.974   3.936   6.674
78117SOL    HW236249  10.997   3.884   6.534
78118SOL     OW36250  13.862   7.317   3.414
78118SOL    HW136251  13.902   7.242   3.369
78118SOL    HW236252  13.912   7.325   3.495
78119SOL     OW36253  13.554   3.055  11.117
78119SOL    HW136254  13.556   3.134  11.063
78119SOL    HW236255  13.586   3.083  11.203
78120SOL     OW36256   1.161   4.206   7.796
78120SOL    HW136257   1.164   4.140   7.866
78120SOL    HW236258   1.104   4.275   7.831
78121SOL     OW36259   3.485  10.330   0.068
78121SOL    HW136260   3.575  10.360   0.052
78121SOL    HW236261   3.441  10.340  14.861
78122SOL     OW36262   8.937   7.536  14.199
78122SOL    HW136263   8.924   7.603  14.132
78122SOL    HW236264   8.989   7.468  14.156
78123SOL     OW36265   8.779  14.546   2.177
78123SOL    HW136266   8.806  14.455   2.165
78123SOL    HW236267   8.684  14.543   2.174
78124SOL     OW36268   4.779   2.288   5.452
78124SOL    HW136269   4.697   2.289   5.501
78124SOL    HW236270   4.796   2.380   5.432
78125SOL     OW36271   5.763   1.289   8.057
78125SOL    HW136272   5.742   1.285   8.150
78125SOL    HW236273   5.716   1.367   8.026
78126SOL     OW36274   8.042   7.460   6.448
78126SOL    HW136275   7.992   7.402   6.390
78126SOL    HW236276   8.007   7.548   6.429
78127SOL     OW36277  10.936  12.711   4.620
78127SOL    HW136278  10.976  12.643   4.675
78127SOL    HW236279  10.960  12.687   4.531
78128SOL     OW36280   3.965  10.195  14.763
78128SOL    HW136281   3.980  10.105  14.793
78128SOL    HW236282   4.020  10.249  14.820
78129SOL     OW36283  10.911   6.888  11.669
78129SOL    HW136284  10.841   6.944  11.704
78129SOL    HW236285  10.979   6.949  11.641
78130SOL     OW36286   4.021   9.294   1.680
78130SOL    HW136287   4.052   9.351   1.609
78130SOL    HW236288   4.099   9.245   1.707
78131SOL     OW36289   0.718   1.366  11.197
78131SOL    HW136290   0.711   1.316  11.278
78131SOL    HW236291   0.651   1.328  11.140
78132SOL     OW36292   5.448  10.907  12.415
78132SOL    HW136293   5.460  10.939  12.504
78132SOL    HW236294   5.412  10.819  12.425
78133SOL     OW36295   9.004   0.670   7.701
78133SOL    HW136296   9.064   0.744   7.695
78133SOL    HW236297   9.061   0.593   7.704
78134SOL     OW36298  11.365   6.399   5.886
78134SOL    HW136299  11.270   6.405   5.892
78134SOL    HW236300  11.398   6.459   5.954
78135SOL     OW36301  11.609  10.273  14.222
78135SOL    HW136302  11.647  10.296  14.137
78135SOL    HW236303  11.683  10.274  14.283
78136SOL     OW36304   3.692  13.696   3.397
78136SOL    HW136305   3.596  13.702   3.398
78136SOL    HW236306   3.710  13.603   3.393
78137SOL     OW36307  11.755   3.092  10.975
78137SOL    HW136308  11.729   3.027  11.040
78137SOL    HW236309  11.781   3.041  10.898
78138SOL     OW36310   8.060   0.324  11.374
78138SOL    HW136311   7.981   0.299  11.327
78138SOL    HW236312   8.038   0.408  11.415
78139SOL     OW36313  10.975   3.812   9.504
78139SOL    HW136314  11.007   3.760   9.578
78139SOL    HW236315  11.009   3.767   9.427
78140SOL     OW36316  14.003  12.088   3.423
78140SOL    HW136317  14.023  12.001   3.388
78140SOL    HW236318  13.908  12.090   3.430
78141SOL     OW36319  10.087   5.292   4.035
78141SOL    HW136320  10.045   5.257   3.957
78141SOL    HW236321  10.091   5.217   4.095
78142SOL     OW36322   1.143   9.979  11.349
78142SOL    HW136323   1.214   9.915  11.349
78142SOL    HW236324   1.179  10.055  11.393
78143SOL     OW36325   8.852  11.452   2.617
78143SOL    HW136326   8.914  11.404   2.672
78143SOL    HW236327   8.908  11.499   2.555
78144SOL     OW36328   3.849   9.255   7.275
78144SOL    HW136329   3.938   9.224   7.296
78144SOL    HW236330   3.829   9.215   7.190
78145SOL     OW36331   0.556   2.096   2.114
78145SOL    HW136332   0.527   2.167   2.057
78145SOL    HW236333   0.594   2.031   2.054
78146SOL     OW36334   0.383  12.668   0.327
78146SOL    HW136335   0.297  12.707   0.312
78146SOL    HW236336   0.367  12.574   0.317
78147SOL     OW36337   3.420   3.276   6.714
78147SOL    HW136338   3.501   3.272   6.764
78147SOL    HW236339   3.379   3.191   6.727
78148SOL     OW36340  11.624   4.171  13.536
78148SOL    HW136341  11.692   4.160  13.470
78148SOL    HW236342  11.598   4.263  13.530
78149SOL     OW36343   0.246   7.719   1.916
78149SOL    HW136344   0.208   7.679   1.995
78149SOL    HW236345   0.304   7.788   1.950
78150SOL     OW36346   6.620   8.030   3.289
78150SOL    HW136347   6.649   7.943   3.263
78150SOL    HW236348   6.628   8.083   3.209
78151SOL     OW36349  11.909   6.257  12.781
78151SOL    HW136350  11.954   6.308  12.848
78151SOL    HW236351  11.818   6.284  12.788
78152SOL     OW36352   2.694   7.406   1.368
78152SOL    HW136353   2.777   7.371   1.336
78152SOL    HW236354   2.712   7.434   1.458
78153SOL     OW36355   4.000   6.402  14.207
78153SOL    HW136356   4.031   6.473  14.263
78153SOL    HW236357   3.999   6.439  14.119
78154SOL     OW36358   5.920  12.428  11.259
78154SOL    HW136359   5.856  12.472  11.203
78154SOL    HW236360   5.951  12.354  11.206
78155SOL     OW36361  13.134  14.577   9.710
78155SOL    HW136362  13.206  14.581   9.773
78155SOL    HW236363  13.109  14.485   9.709
78156SOL     OW36364  10.175   2.759  10.709
78156SOL    HW136365  10.234   2.832  10.692
78156SOL    HW236366  10.117   2.791  10.778
78157SOL     OW36367   1.384  12.293   7.747
78157SOL    HW136368   1.461  12.238   7.753
78157SOL    HW236369   1.335  12.258   7.672
78158SOL     OW36370   4.953   4.849   1.341
78158SOL    HW136371   4.983   4.807   1.260
78158SOL    HW236372   5.034   4.874   1.385
78159SOL     OW36373  14.214  14.045   0.892
78159SOL    HW136374  14.206  14.018   0.800
78159SOL    HW236375  14.130  14.023   0.931
78160SOL     OW36376   7.026  13.704   0.882
78160SOL    HW136377   6.989  13.678   0.798
78160SOL    HW236378   7.075  13.627   0.911
78161SOL     OW36379   6.279   5.560   5.116
78161SOL    HW136380   6.206   5.537   5.174
78161SOL    HW236381   6.357   5.547   5.170
78162SOL     OW36382  12.987   3.887   3.867
78162SOL    HW136383  12.954   3.932   3.790
78162SOL    HW236384  13.076   3.922   3.879
78163SOL     OW36385   1.640   1.840   2.435
78163SOL    HW136386   1.650   1.793   2.353
78163SOL    HW236387   1.582   1.913   2.414
78164SOL     OW36388  13.271   3.195   7.543
78164SOL    HW136389  13.355   3.205   7.589
78164SOL    HW236390  13.261   3.101   7.533
78165SOL     OW36391   7.392   5.123   6.766
78165SOL    HW136392   7.378   5.218   6.761
78165SOL    HW236393   7.488   5.113   6.769
78166SOL     OW36394   9.739   4.648   0.038
78166SOL    HW136395   9.797   4.585   0.080
78166SOL    HW236396   9.770   4.654  14.826
78167SOL     OW36397   5.855   8.167   8.635
78167SOL    HW136398   5.794   8.194   8.703
78167SOL    HW236399   5.814   8.089   8.595
78168SOL     OW36400  10.971  10.947   4.773
78168SOL    HW136401  10.927  10.885   4.715
78168SOL    HW236402  10.945  11.033   4.742
78169SOL     OW36403   0.444  10.366   2.407
78169SOL    HW136404   0.399  10.364   2.491
78169SOL    HW236405   0.507  10.294   2.413
78170SOL     OW36406   5.813   3.274   8.773
78170SOL    HW136407   5.720   3.291   8.766
78170SOL    HW236408   5.833   3.283   8.866
78171SOL     OW36409   3.653  12.091   7.781
78171SOL    HW136410   3.654  12.167   7.723
78171SOL    HW236411   3.681  12.018   7.725
78172SOL     OW36412   7.003   7.199   2.376
78172SOL    HW136413   7.075   7.262   2.370
78172SOL    HW236414   6.932   7.247   2.417
78173SOL     OW36415   7.005   6.242  14.744
78173SOL    HW136416   7.069   6.250  14.815
78173SOL    HW236417   7.003   6.329  14.704
78174SOL     OW36418  12.691   6.878  11.903
78174SOL    HW136419  12.745   6.957  11.910
78174SOL    HW236420  12.701   6.835  11.988
78175SOL     OW36421   6.712  11.519   4.151
78175SOL    HW136422   6.713  11.503   4.246
78175SOL    HW236423   6.754  11.442   4.113
78176SOL     OW36424  10.149   6.905   7.094
78176SOL    HW136425  10.143   6.904   7.190
78176SOL    HW236426  10.061   6.926   7.064
78177SOL     OW36427   3.038   4.389   7.430
78177SOL    HW136428   3.007   4.317   7.486
78177SOL    HW236429   3.133   4.375   7.423
78178SOL     OW36430   1.195   6.468   1.539
78178SOL    HW136431   1.201   6.470   1.635
78178SOL    HW236432   1.237   6.550   1.511
78179SOL     OW36433   2.788  10.214   1.869
78179SOL    HW136434   2.730  10.138   1.875
78179SOL    HW236435   2.840  10.198   1.790
78180SOL     OW36436   1.059   6.643   7.781
78180SOL    HW136437   0.979   6.631   7.728
78180SOL    HW236438   1.088   6.732   7.760
78181SOL     OW36439   1.724   4.898  10.189
78181SOL    HW136440   1.635   4.877  10.219
78181SOL    HW236441   1.711   4.936  10.102
78182SOL     OW36442   9.866  12.672   0.706
78182SOL    HW136443   9.949  12.652   0.750
78182SOL    HW236444   9.892  12.714   0.624
78183SOL     OW36445   6.585  12.973   4.513
78183SOL    HW136446   6.618  12.928   4.590
78183SOL    HW236447   6.514  13.028   4.546
78184SOL     OW36448  12.955  14.151   3.099
78184SOL    HW136449  12.961  14.244   3.080
78184SOL    HW236450  12.861  14.131   3.095
78185SOL     OW36451   7.597   7.116   0.203
78185SOL    HW136452   7.623   7.129   0.112
78185SOL    HW236453   7.554   7.198   0.227
78186SOL     OW36454   1.013  12.735  14.013
78186SOL    HW136455   1.046  12.817  14.050
78186SOL    HW236456   0.943  12.762  13.953
78187SOL     OW36457  12.385  13.293   5.410
78187SOL    HW136458  12.432  13.375   5.394
78187SOL    HW236459  12.426  13.230   5.351
78188SOL     OW36460   3.253  13.090   6.055
78188SOL    HW136461   3.185  13.053   6.111
78188SOL    HW236462   3.253  13.033   5.978
78189SOL     OW36463   3.999   8.242   6.910
78189SOL    HW136464   3.913   8.271   6.940
78189SOL    HW236465   4.003   8.270   6.819
78190SOL     OW36466   3.742  12.697   1.874
78190SOL    HW136467   3.738  12.619   1.929
78190SOL    HW236468   3.835  12.713   1.862
78191SOL     OW36469   1.701   0.677   8.485
78191SOL    HW136470   1.697   0.767   8.451
78191SOL    HW236471   1.756   0.683   8.562
78192SOL     OW36472  12.390   3.514  13.201
78192SOL    HW136473  12.374   3.567  13.279
78192SOL    HW236474  12.320   3.448  13.202
78193SOL     OW36475   2.234  10.855   6.744
78193SOL    HW136476   2.156  10.850   6.690
78193SOL    HW236477   2.266  10.765   6.748
78194SOL     OW36478   0.408   8.915  10.618
78194SOL    HW136479   0.428   8.827  10.587
78194SOL    HW236480   0.316   8.929  10.594
78195SOL     OW36481  14.630   6.688  12.967
78195SOL    HW136482  14.625   6.605  12.921
78195SOL    HW236483  14.711   6.684  13.017
78196SOL     OW36484  11.969  12.217   2.420
78196SOL    HW136485  12.028  12.287   2.392
78196SOL    HW236486  12.027  12.142   2.436
78197SOL     OW36487  13.317   8.943  14.109
78197SOL    HW136488  13.261   9.012  14.073
78197SOL    HW236489  13.378   8.921  14.038
78198SOL     OW36490   1.382   8.107   1.596
78198SOL    HW136491   1.328   8.177   1.561
78198SOL    HW236492   1.471   8.127   1.566
78199SOL     OW36493   1.064   9.512  10.489
78199SOL    HW136494   1.034   9.500  10.398
78199SOL    HW236495   0.983   9.521  10.540
78200SOL     OW36496   1.499   9.177  14.633
78200SOL    HW136497   1.582   9.174  14.681
78200SOL    HW236498   1.482   9.270  14.620
78201SOL     OW36499   1.448   7.588   3.527
78201SOL    HW136500   1.373   7.531   3.513
78201SOL    HW236501   1.453   7.598   3.622
78202SOL     OW36502  13.740   3.481   0.041
78202SOL    HW136503  13.781   3.510   0.122
78202SOL    HW236504  13.788   3.402   0.017
78203SOL     OW36505   1.817   9.090   0.909
78203SOL    HW136506   1.860   9.055   0.986
78203SOL    HW236507   1.762   9.161   0.942
78204SOL     OW36508   8.239  12.915   2.988
78204SOL    HW136509   8.192  12.832   2.982
78204SOL    HW236510   8.260  12.925   3.080
78205SOL     OW36511   2.397   5.351  11.787
78205SOL    HW136512   2.352   5.393  11.861
78205SOL    HW236513   2.489   5.373  11.799
78206SOL     OW36514   0.403  12.653   6.275
78206SOL    HW136515   0.319  12.647   6.230
78206SOL    HW236516   0.462  12.692   6.210
78207SOL     OW36517  13.675   2.278   0.666
78207SOL    HW136518  13.581   2.266   0.649
78207SOL    HW236519  13.685   2.254   0.758
78208SOL     OW36520   3.794   7.704  10.107
78208SOL    HW136521   3.759   7.755  10.034
78208SOL    HW236522   3.793   7.614  10.075
78209SOL     OW36523   1.324   8.170   9.927
78209SOL    HW136524   1.233   8.160   9.955
78209SOL    HW236525   1.353   8.082   9.907
78210SOL     OW36526  12.619   7.361   3.534
78210SOL    HW136527  12.702   7.398   3.504
78210SOL    HW236528  12.627   7.267   3.516
78211SOL     OW36529  10.562  14.317   5.119
78211SOL    HW136530  10.545  14.403   5.157
78211SOL    HW236531  10.553  14.330   5.024
78212SOL     OW36532   7.655   4.664   8.468
78212SOL    HW136533   7.733   4.638   8.419
78212SOL    HW236534   7.675   4.752   8.500
78213SOL     OW36535   2.029   3.968   1.469
78213SOL    HW136536   1.941   4.000   1.447
78213SOL    HW236537   2.013   3.888   1.518
78214SOL     OW36538  14.119   2.943   7.776
78214SOL    HW136539  14.202   2.952   7.823
78214SOL    HW236540  14.125   3.007   7.705
78215SOL     OW36541   8.125   5.104   6.561
78215SOL    HW136542   8.061   5.054   6.611
78215SOL    HW236543   8.179   5.038   6.517
78216SOL     OW36544   3.281   6.663   6.819
78216SOL    HW136545   3.306   6.667   6.727
78216SOL    HW236546   3.358   6.692   6.867
78217SOL     OW36547   4.190  13.137   4.061
78217SOL    HW136548   4.159  13.215   4.108
78217SOL    HW236549   4.273  13.114   4.105
78218SOL     OW36550  10.093   0.038   0.579
78218SOL    HW136551  10.133   0.034   0.492
78218SOL    HW236552  10.107  14.829   0.617
78219SOL     OW36553  14.584  11.608   1.034
78219SOL    HW136554  14.594  11.622   0.940
78219SOL    HW236555  14.667  11.637   1.072
78220SOL     OW36556   4.627   8.641   1.609
78220SOL    HW136557   4.613   8.608   1.698
78220SOL    HW236558   4.638   8.735   1.620
78221SOL     OW36559   7.368   0.367  12.545
78221SOL    HW136560   7.293   0.352  12.602
78221SOL    HW236561   7.408   0.448  12.578
78222SOL     OW36562   9.740  10.444  14.855
78222SOL    HW136563   9.742  10.443  14.759
78222SOL    HW236564   9.677  10.376   0.001
78223SOL     OW36565   5.749   4.431   9.570
78223SOL    HW136566   5.689   4.363   9.601
78223SOL    HW236567   5.814   4.383   9.518
78224SOL     OW36568   0.200   2.332  12.100
78224SOL    HW136569   0.205   2.239  12.078
78224SOL    HW236570   0.155   2.372  12.026
78225SOL     OW36571   8.318  11.002   9.674
78225SOL    HW136572   8.248  10.936   9.669
78225SOL    HW236573   8.348  11.012   9.584
78226SOL     OW36574  11.858  12.214  10.384
78226SOL    HW136575  11.928  12.216  10.450
78226SOL    HW236576  11.880  12.285  10.324
78227SOL     OW36577  11.097   0.950   6.661
78227SOL    HW136578  11.024   0.888   6.658
78227SOL    HW236579  11.140   0.932   6.745
78228SOL     OW36580  13.133   9.076   8.131
78228SOL    HW136581  13.072   9.050   8.063
78228SOL    HW236582  13.081   9.077   8.211
78229SOL     OW36583   2.759  11.571   7.261
78229SOL    HW136584   2.766  11.625   7.340
78229SOL    HW236585   2.783  11.483   7.291
78230SOL     OW36586   3.418   5.897   6.649
78230SOL    HW136587   3.331   5.920   6.617
78230SOL    HW236588   3.452   5.978   6.685
78231SOL     OW36589  13.849   6.709   9.078
78231SOL    HW136590  13.801   6.792   9.078
78231SOL    HW236591  13.893   6.707   8.993
78232SOL     OW36592   9.505   2.585   7.815
78232SOL    HW136593   9.496   2.671   7.856
78232SOL    HW236594   9.573   2.541   7.867
78233SOL     OW36595  10.800  10.261  12.987
78233SOL    HW136596  10.728  10.217  13.034
78233SOL    HW236597  10.786  10.238  12.895
78234SOL     OW36598   8.043   9.759   4.291
78234SOL    HW136599   8.031   9.815   4.214
78234SOL    HW236600   8.084   9.816   4.355
78235SOL     OW36601  10.959   8.328   2.519
78235SOL    HW136602  11.004   8.375   2.590
78235SOL    HW236603  11.029   8.279   2.475
78236SOL     OW36604  12.124  11.759   7.862
78236SOL    HW136605  12.031  11.749   7.880
78236SOL    HW236606  12.158  11.670   7.858
78237SOL     OW36607   5.187  12.183  10.069
78237SOL    HW136608   5.199  12.089  10.058
78237SOL    HW236609   5.115  12.190  10.132
78238SOL     OW36610   1.438  14.318   5.701
78238SOL    HW136611   1.507  14.287   5.642
78238SOL    HW236612   1.401  14.394   5.656
78239SOL     OW36613   8.788   0.205   8.224
78239SOL    HW136614   8.747   0.287   8.196
78239SOL    HW236615   8.734   0.137   8.183
78240SOL     OW36616   6.745   1.453   8.062
78240SOL    HW136617   6.773   1.408   7.983
78240SOL    HW236618   6.824   1.458   8.116
78241SOL     OW36619  14.646   2.908   4.159
78241SOL    HW136620  14.590   2.881   4.232
78241SOL    HW236621  14.729   2.933   4.201
78242SOL     OW36622   0.389   9.173   1.386
78242SOL    HW136623   0.428   9.122   1.316
78242SOL    HW236624   0.435   9.257   1.384
78243SOL     OW36625   3.302  13.649   9.079
78243SOL    HW136626   3.250  13.729   9.080
78243SOL    HW236627   3.392  13.678   9.068
78244SOL     OW36628   9.435   6.336  12.907
78244SOL    HW136629   9.346   6.301  12.905
78244SOL    HW236630   9.447   6.363  12.998
78245SOL     OW36631   8.517   3.665   3.930
78245SOL    HW136632   8.567   3.731   3.980
78245SOL    HW236633   8.448   3.637   3.991
78246SOL     OW36634   3.333   1.312  10.357
78246SOL    HW136635   3.395   1.375  10.393
78246SOL    HW236636   3.264   1.306  10.423
78247SOL     OW36637   2.696  13.434   8.284
78247SOL    HW136638   2.601  13.444   8.272
78247SOL    HW236639   2.731  13.429   8.196
78248SOL     OW36640   2.998   3.597   4.973
78248SOL    HW136641   2.919   3.629   5.017
78248SOL    HW236642   3.070   3.634   5.024
78249SOL     OW36643   0.413   1.693   6.389
78249SOL    HW136644   0.343   1.683   6.455
78249SOL    HW236645   0.450   1.779   6.407
78250SOL     OW36646   3.578   3.183   6.387
78250SOL    HW136647   3.567   3.099   6.344
78250SOL    HW236648   3.623   3.162   6.469
78251SOL     OW36649  13.755  10.514   3.941
78251SOL    HW136650  13.698  10.572   3.891
78251SOL    HW236651  13.726  10.525   4.032
78252SOL     OW36652   2.313   2.319   8.639
78252SOL    HW136653   2.241   2.361   8.685
78252SOL    HW236654   2.316   2.230   8.675
78253SOL     OW36655  10.432   3.268  12.967
78253SOL    HW136656  10.381   3.270  12.887
78253SOL    HW236657  10.515   3.227  12.942
78254SOL     OW36658   3.295  13.553   5.217
78254SOL    HW136659   3.289  13.476   5.273
78254SOL    HW236660   3.214  13.600   5.231
78255SOL     OW36661   8.247  10.657   7.473
78255SOL    HW136662   8.267  10.695   7.558
78255SOL    HW236663   8.321  10.600   7.453
78256SOL     OW36664   7.195   2.031   7.161
78256SOL    HW136665   7.280   2.038   7.116
78256SOL    HW236666   7.214   1.978   7.239
78257SOL     OW36667   8.827   8.359   9.238
78257SOL    HW136668   8.840   8.270   9.269
78257SOL    HW236669   8.904   8.407   9.268
78258SOL     OW36670   9.362   6.576  10.498
78258SOL    HW136671   9.313   6.494  10.504
78258SOL    HW236672   9.392   6.592  10.588
78259SOL     OW36673   4.990   1.040   0.574
78259SOL    HW136674   4.929   1.098   0.619
78259SOL    HW236675   5.006   1.083   0.490
78260SOL     OW36676  13.867   0.574   2.211
78260SOL    HW136677  13.900   0.658   2.181
78260SOL    HW236678  13.842   0.529   2.130
78261SOL     OW36679   7.713   5.154   3.613
78261SOL    HW136680   7.655   5.176   3.685
78261SOL    HW236681   7.774   5.090   3.649
78262SOL     OW36682   3.119   1.096   7.102
78262SOL    HW136683   3.081   1.061   7.182
78262SOL    HW236684   3.154   1.019   7.056
78263SOL     OW36685   7.372   4.716   3.298
78263SOL    HW136686   7.322   4.776   3.242
78263SOL    HW236687   7.343   4.736   3.387
78264SOL     OW36688   2.461   0.054   1.047
78264SOL    HW136689   2.408  14.855   1.027
78264SOL    HW236690   2.403   0.128   1.030
78265SOL     OW36691   5.837   2.376   2.726
78265SOL    HW136692   5.772   2.307   2.712
78265SOL    HW236693   5.911   2.351   2.670
78266SOL     OW36694   7.484  14.559  13.623
78266SOL    HW136695   7.548  14.570  13.552
78266SOL    HW236696   7.420  14.628  13.608
78267SOL     OW36697  12.490   9.710   7.602
78267SOL    HW136698  12.530   9.636   7.648
78267SOL    HW236699  12.560   9.745   7.547
78268SOL     OW36700  10.129  13.567   0.979
78268SOL    HW136701  10.048  13.547   0.932
78268SOL    HW236702  10.123  13.660   1.001
78269SOL     OW36703   0.035   5.392   7.110
78269SOL    HW136704   0.057   5.406   7.202
78269SOL    HW236705   0.058   5.301   7.094
78270SOL     OW36706   8.787  11.278   8.697
78270SOL    HW136707   8.712  11.237   8.741
78270SOL    HW236708   8.851  11.207   8.688
78271SOL     OW36709   0.673  10.560   5.891
78271SOL    HW136710   0.732  10.623   5.931
78271SOL    HW236711   0.602  10.612   5.854
78272SOL     OW36712  14.413   7.896   3.844
78272SOL    HW136713  14.378   7.864   3.761
78272SOL    HW236714  14.391   7.989   3.845
78273SOL     OW36715   4.978  14.718   3.606
78273SOL    HW136716   5.062  14.673   3.596
78273SOL    HW236717   4.922  14.680   3.538
78274SOL     OW36718  13.583   8.313  10.441
78274SOL    HW136719  13.672   8.296  10.411
78274SOL    HW236720  13.567   8.247  10.508
78275SOL     OW36721   0.222  13.275   3.793
78275SOL    HW136722   0.266  13.249   3.874
78275SOL    HW236723   0.167  13.349   3.819
78276SOL     OW36724   3.859  10.242   2.501
78276SOL    HW136725   3.790  10.294   2.458
78276SOL    HW236726   3.937  10.298   2.497
78277SOL     OW36727   4.022   6.527   7.156
78277SOL    HW136728   3.988   6.604   7.202
78277SOL    HW236729   3.995   6.540   7.065
78278SOL     OW36730   6.593   3.826   2.762
78278SOL    HW136731   6.602   3.862   2.674
78278SOL    HW236732   6.563   3.900   2.816
78279SOL     OW36733   6.814   8.564  11.499
78279SOL    HW136734   6.908   8.553  11.488
78279SOL    HW236735   6.803   8.658  11.517
78280SOL     OW36736   4.930  10.658   4.621
78280SOL    HW136737   5.004  10.662   4.682
78280SOL    HW236738   4.936  10.738   4.570
78281SOL     OW36739   2.377  11.805  12.928
78281SOL    HW136740   2.448  11.802  12.992
78281SOL    HW236741   2.297  11.795  12.980
78282SOL     OW36742   8.336  10.966   5.152
78282SOL    HW136743   8.292  11.049   5.170
78282SOL    HW236744   8.418  10.971   5.200
78283SOL     OW36745   1.489   6.507   2.023
78283SOL    HW136746   1.510   6.532   1.933
78283SOL    HW236747   1.467   6.590   2.065
78284SOL     OW36748   7.549   5.503   2.801
78284SOL    HW136749   7.531   5.412   2.826
78284SOL    HW236750   7.619   5.531   2.861
78285SOL     OW36751   2.546   2.431   8.782
78285SOL    HW136752   2.512   2.519   8.765
78285SOL    HW236753   2.640   2.443   8.788
78286SOL     OW36754   6.945   0.617   9.591
78286SOL    HW136755   6.996   0.540   9.565
78286SOL    HW236756   6.867   0.581   9.634
78287SOL     OW36757   4.469   6.006   5.532
78287SOL    HW136758   4.389   5.966   5.563
78287SOL    HW236759   4.491   6.071   5.598
78288SOL     OW36760   0.706  11.522   1.840
78288SOL    HW136761   0.620  11.554   1.868
78288SOL    HW236762   0.692  11.430   1.819
78289SOL     OW36763   1.055  14.036   9.545
78289SOL    HW136764   1.099  14.113   9.508
78289SOL    HW236765   1.123  13.991   9.595
78290SOL     OW36766  12.795   8.369   6.820
78290SOL    HW136767  12.789   8.275   6.800
78290SOL    HW236768  12.834   8.373   6.907
78291SOL     OW36769  12.015   1.380   2.688
78291SOL    HW136770  11.946   1.385   2.754
78291SOL    HW236771  12.015   1.289   2.660
78292SOL     OW36772  11.618   9.804   0.653
78292SOL    HW136773  11.554   9.782   0.721
78292SOL    HW236774  11.699   9.762   0.683
78293SOL     OW36775   6.524  11.852  14.802
78293SOL    HW136776   6.497  11.832   0.014
78293SOL    HW236777   6.480  11.786  14.748
78294SOL     OW36778  12.820  11.852   3.174
78294SOL    HW136779  12.881  11.801   3.228
78294SOL    HW236780  12.765  11.786   3.132
78295SOL     OW36781   4.285   0.718   1.005
78295SOL    HW136782   4.198   0.698   1.039
78295SOL    HW236783   4.288   0.814   1.000
78296SOL     OW36784   9.975   2.473  13.397
78296SOL    HW136785   9.955   2.560  13.361
78296SOL    HW236786   9.893   2.445  13.438
78297SOL     OW36787   0.714   3.636  12.696
78297SOL    HW136788   0.708   3.600  12.607
78297SOL    HW236789   0.624   3.653  12.721
78298SOL     OW36790  10.985   7.411   6.219
78298SOL    HW136791  10.996   7.474   6.291
78298SOL    HW236792  10.963   7.465   6.143
78299SOL     OW36793  13.728  10.847   9.846
78299SOL    HW136794  13.692  10.760   9.828
78299SOL    HW236795  13.793  10.860   9.778
78300SOL     OW36796   9.389  14.325   6.072
78300SOL    HW136797   9.420  14.407   6.112
78300SOL    HW236798   9.333  14.353   6.000
78301SOL     OW36799   9.803   7.580  11.317
78301SOL    HW136800   9.775   7.538  11.398
78301SOL    HW236801   9.897   7.594  11.329
78302SOL     OW36802  12.321   2.012  12.933
78302SOL    HW136803  12.371   1.961  12.996
78302SOL    HW236804  12.361   1.994  12.848
78303SOL     OW36805  13.302   4.369   6.394
78303SOL    HW136806  13.318   4.430   6.323
78303SOL    HW236807  13.378   4.311   6.394
78304SOL     OW36808  12.353  14.343   1.971
78304SOL    HW136809  12.336  14.391   1.890
78304SOL    HW236810  12.346  14.251   1.946
78305SOL     OW36811   1.941  11.983   5.811
78305SOL    HW136812   1.917  12.067   5.773
78305SOL    HW236813   2.030  11.966   5.780
78306SOL     OW36814   3.103   2.254   4.849
78306SOL    HW136815   3.165   2.241   4.778
78306SOL    HW236816   3.085   2.166   4.882
78307SOL     OW36817   7.798   6.651  13.085
78307SOL    HW136818   7.885   6.649  13.047
78307SOL    HW236819   7.763   6.563  13.070
78308SOL     OW36820   7.839  13.085   0.403
78308SOL    HW136821   7.870  13.026   0.472
78308SOL    HW236822   7.759  13.044   0.370
78309SOL     OW36823  11.485   5.566  11.165
78309SOL    HW136824  11.565   5.612  11.193
78309SOL    HW236825  11.504   5.474  11.182
78310SOL     OW36826   4.608   3.072   8.084
78310SOL    HW136827   4.686   3.026   8.115
78310SOL    HW236828   4.613   3.067   7.989
78311SOL     OW36829  14.400   7.197  14.290
78311SOL    HW136830  14.454   7.160  14.360
78311SOL    HW236831  14.334   7.249  14.336
78312SOL     OW36832   8.866   7.209  10.299
78312SOL    HW136833   8.949   7.166  10.320
78312SOL    HW236834   8.824   7.150  10.238
78313SOL     OW36835  12.956   0.952   7.180
78313SOL    HW136836  12.996   1.037   7.161
78313SOL    HW236837  12.886   0.972   7.243
78314SOL     OW36838   1.027  12.709   5.777
78314SOL    HW136839   0.988  12.658   5.706
78314SOL    HW236840   1.007  12.800   5.755
78315SOL     OW36841   2.900   2.100  12.193
78315SOL    HW136842   2.902   2.128  12.284
78315SOL    HW236843   2.919   2.179  12.143
78316SOL     OW36844   5.621  13.047  12.044
78316SOL    HW136845   5.557  13.118  12.038
78316SOL    HW236846   5.630  13.032  12.138
78317SOL     OW36847   7.139   9.325   4.234
78317SOL    HW136848   7.057   9.320   4.186
78317SOL    HW236849   7.174   9.236   4.230
78318SOL     OW36850   0.258   9.282   6.370
78318SOL    HW136851   0.345   9.298   6.334
78318SOL    HW236852   0.203   9.267   6.293
78319SOL     OW36853  13.256   9.513   8.316
78319SOL    HW136854  13.241   9.471   8.231
78319SOL    HW236855  13.277   9.604   8.295
78320SOL     OW36856   9.446  11.869   4.983
78320SOL    HW136857   9.417  11.901   5.069
78320SOL    HW236858   9.419  11.777   4.982
78321SOL     OW36859  13.882   8.606   5.878
78321SOL    HW136860  13.830   8.533   5.914
78321SOL    HW236861  13.892   8.667   5.951
78322SOL     OW36862  11.712   6.773  13.624
78322SOL    HW136863  11.805   6.789  13.643
78322SOL    HW236864  11.668   6.854  13.650
78323SOL     OW36865  14.002  11.477  14.395
78323SOL    HW136866  14.021  11.541  14.463
78323SOL    HW236867  14.078  11.480  14.337
78324SOL     OW36868  14.061   7.820   2.197
78324SOL    HW136869  14.050   7.912   2.223
78324SOL    HW236870  14.125   7.785   2.259
78325SOL     OW36871   5.022  12.029   6.990
78325SOL    HW136872   4.962  12.024   6.915
78325SOL    HW236873   5.104  11.994   6.957
78326SOL     OW36874   0.877  11.637  14.707
78326SOL    HW136875   0.904  11.559  14.659
78326SOL    HW236876   0.783  11.645  14.689
78327SOL     OW36877   4.847   6.636   2.901
78327SOL    HW136878   4.816   6.689   2.974
78327SOL    HW236879   4.928   6.597   2.933
78328SOL     OW36880   4.735   4.242   6.727
78328SOL    HW136881   4.820   4.254   6.770
78328SOL    HW236882   4.750   4.172   6.664
78329SOL     OW36883  13.499  11.896   8.474
78329SOL    HW136884  13.547  11.813   8.476
78329SOL    HW236885  13.513  11.930   8.386
78330SOL     OW36886   2.742   4.314  10.967
78330SOL    HW136887   2.702   4.394  10.932
78330SOL    HW236888   2.779   4.341  11.051
78331SOL     OW36889   9.695   7.021  10.853
78331SOL    HW136890   9.652   6.957  10.796
78331SOL    HW236891   9.665   6.999  10.941
78332SOL     OW36892  10.155  11.628  11.839
78332SOL    HW136893  10.174  11.701  11.899
78332SOL    HW236894  10.242  11.599  11.809
78333SOL     OW36895   3.539   8.933   2.713
78333SOL    HW136896   3.533   8.861   2.775
78333SOL    HW236897   3.456   8.930   2.666
78334SOL     OW36898  13.604   7.617   3.336
78334SOL    HW136899  13.586   7.548   3.400
78334SOL    HW236900  13.522   7.625   3.287
78335SOL     OW36901   5.429   4.906  10.079
78335SOL    HW136902   5.344   4.897  10.123
78335SOL    HW236903   5.414   4.970  10.010
78336SOL     OW36904  12.773   1.496  14.218
78336SOL    HW136905  12.756   1.566  14.155
78336SOL    HW236906  12.839   1.532  14.277
78337SOL     OW36907  10.790  10.474   5.836
78337SOL    HW136908  10.771  10.568   5.830
78337SOL    HW236909  10.715  10.438   5.883
78338SOL     OW36910   6.778  10.018  10.902
78338SOL    HW136911   6.844  10.071  10.857
78338SOL    HW236912   6.715   9.996  10.833
78339SOL     OW36913   9.218   2.387   6.460
78339SOL    HW136914   9.241   2.317   6.400
78339SOL    HW236915   9.189   2.342   6.540
78340SOL     OW36916  10.692   9.519   4.178
78340SOL    HW136917  10.613   9.489   4.134
78340SOL    HW236918  10.692   9.472   4.261
78341SOL     OW36919   9.665   6.598   5.996
78341SOL    HW136920   9.704   6.629   5.914
78341SOL    HW236921   9.628   6.512   5.974
78342SOL     OW36922  11.737  10.500   5.379
78342SOL    HW136923  11.660  10.543   5.416
78342SOL    HW236924  11.786  10.571   5.337
78343SOL     OW36925  11.286   5.322   9.588
78343SOL    HW136926  11.288   5.302   9.494
78343SOL    HW236927  11.351   5.391   9.600
78344SOL     OW36928   9.483   1.473  13.493
78344SOL    HW136929   9.459   1.393  13.447
78344SOL    HW236930   9.414   1.485  13.558
78345SOL     OW36931  10.300   5.799  14.747
78345SOL    HW136932  10.274   5.773  14.836
78345SOL    HW236933  10.392   5.824  14.755
78346SOL     OW36934   4.809   6.048   8.243
78346SOL    HW136935   4.775   6.042   8.153
78346SOL    HW236936   4.771   5.972   8.288
78347SOL     OW36937  12.138  11.737   5.946
78347SOL    HW136938  12.076  11.809   5.935
78347SOL    HW236939  12.216  11.765   5.898
78348SOL     OW36940   1.194   2.426   0.068
78348SOL    HW136941   1.241   2.421  14.862
78348SOL    HW236942   1.144   2.345   0.071
78349SOL     OW36943   4.178   8.672   0.234
78349SOL    HW136944   4.254   8.683   0.291
78349SOL    HW236945   4.105   8.659   0.294
78350SOL     OW36946   3.227   4.901  12.775
78350SOL    HW136947   3.200   4.993  12.785
78350SOL    HW236948   3.295   4.888  12.840
78351SOL     OW36949   6.704   6.718  13.018
78351SOL    HW136950   6.734   6.809  13.018
78351SOL    HW236951   6.732   6.683  13.103
78352SOL     OW36952   9.855   6.972   4.327
78352SOL    HW136953   9.920   6.907   4.352
78352SOL    HW236954   9.852   6.968   4.231
78353SOL     OW36955   4.179   6.969   8.700
78353SOL    HW136956   4.184   6.885   8.654
78353SOL    HW236957   4.115   7.020   8.649
78354SOL     OW36958   5.923  12.878  13.832
78354SOL    HW136959   6.018  12.875  13.846
78354SOL    HW236960   5.901  12.792  13.796
78355SOL     OW36961   5.910   3.735  10.695
78355SOL    HW136962   5.836   3.789  10.725
78355SOL    HW236963   5.939   3.777  10.614
78356SOL     OW36964   2.545  12.152  12.502
78356SOL    HW136965   2.571  12.137  12.412
78356SOL    HW236966   2.450  12.147  12.501
78357SOL     OW36967   1.533   0.305   8.857
78357SOL    HW136968   1.520   0.366   8.930
78357SOL    HW236969   1.472   0.234   8.875
78358SOL     OW36970  10.493   2.727   7.204
78358SOL    HW136971  10.400   2.737   7.226
78358SOL    HW236972  10.503   2.777   7.123
78359SOL     OW36973  10.094  13.680   6.853
78359SOL    HW136974  10.000  13.664   6.842
78359SOL    HW236975  10.125  13.705   6.767
78360SOL     OW36976  10.060  11.695   7.468
78360SOL    HW136977  10.098  11.614   7.434
78360SOL    HW236978   9.990  11.716   7.406
78361SOL     OW36979  14.194   9.617   4.799
78361SOL    HW136980  14.258   9.675   4.759
78361SOL    HW236981  14.177   9.550   4.733
78362SOL     OW36982  12.521   7.122   0.978
78362SOL    HW136983  12.574   7.137   0.901
78362SOL    HW236984  12.503   7.210   1.012
78363SOL     OW36985  10.561   5.266  13.153
78363SOL    HW136986  10.532   5.196  13.212
78363SOL    HW236987  10.551   5.346  13.205
78364SOL     OW36988   1.519   6.435  10.929
78364SOL    HW136989   1.529   6.528  10.951
78364SOL    HW236990   1.429   6.414  10.952
78365SOL     OW36991   9.651  13.529   9.795
78365SOL    HW136992   9.658  13.434   9.779
78365SOL    HW236993   9.701  13.568   9.724
78366SOL     OW36994   3.605  13.022   2.184
78366SOL    HW136995   3.654  13.060   2.111
78366SOL    HW236996   3.654  13.048   2.262
78367SOL     OW36997   3.844   5.348  10.120
78367SOL    HW136998   3.934   5.365  10.148
78367SOL    HW236999   3.853   5.311  10.032
78368SOL     OW37000   6.895  10.826   1.447
78368SOL    HW137001   6.930  10.816   1.358
78368SOL    HW237002   6.801  10.809   1.437
78369SOL     OW37003   0.301   3.802   3.726
78369SOL    HW137004   0.239   3.829   3.793
78369SOL    HW237005   0.372   3.866   3.732
78370SOL     OW37006   5.474   5.465   9.336
78370SOL    HW137007   5.489   5.373   9.317
78370SOL    HW237008   5.456   5.468   9.430
78371SOL     OW37009  14.130   5.295   5.680
78371SOL    HW137010  14.110   5.330   5.767
78371SOL    HW237011  14.196   5.227   5.696
78372SOL     OW37012   6.459  13.724   2.390
78372SOL    HW137013   6.469  13.818   2.400
78372SOL    HW237014   6.443  13.711   2.297
78373SOL     OW37015   1.890   2.408   8.557
78373SOL    HW137016   1.952   2.346   8.519
78373SOL    HW237017   1.944   2.466   8.611
78374SOL     OW37018  12.631   1.850  10.212
78374SOL    HW137019  12.684   1.899  10.149
78374SOL    HW237020  12.673   1.866  10.296
78375SOL     OW37021   9.026  13.507  11.773
78375SOL    HW137022   9.073  13.426  11.793
78375SOL    HW237023   8.956  13.511  11.838
78376SOL     OW37024  14.060  11.721   3.785
78376SOL    HW137025  14.045  11.815   3.783
78376SOL    HW237026  14.150  11.710   3.755
78377SOL     OW37027  11.792   4.563  13.518
78377SOL    HW137028  11.729   4.629  13.545
78377SOL    HW237029  11.821   4.523  13.601
78378SOL     OW37030   8.600   3.106   4.640
78378SOL    HW137031   8.683   3.113   4.594
78378SOL    HW237032   8.535   3.140   4.578
78379SOL     OW37033  12.816  13.708   8.496
78379SOL    HW137034  12.788  13.626   8.455
78379SOL    HW237035  12.744  13.731   8.554
78380SOL     OW37036   8.238   3.014   7.037
78380SOL    HW137037   8.263   3.080   7.101
78380SOL    HW237038   8.142   3.018   7.034
78381SOL     OW37039   5.047   1.687   0.319
78381SOL    HW137040   5.018   1.643   0.239
78381SOL    HW237041   5.034   1.780   0.302
78382SOL     OW37042  10.764  10.063   1.929
78382SOL    HW137043  10.716  10.131   1.881
78382SOL    HW237044  10.757   9.985   1.874
78383SOL     OW37045   1.575  13.588   4.517
78383SOL    HW137046   1.643  13.640   4.474
78383SOL    HW237047   1.512  13.568   4.448
78384SOL     OW37048   6.147   5.488  10.680
78384SOL    HW137049   6.090   5.550  10.634
78384SOL    HW237050   6.089   5.414  10.701
78385SOL     OW37051  10.584   6.276   3.043
78385SOL    HW137052  10.649   6.328   2.995
78385SOL    HW237053  10.544   6.220   2.977
78386SOL     OW37054   7.414   7.514  11.136
78386SOL    HW137055   7.452   7.547  11.218
78386SOL    HW237056   7.430   7.420  11.139
78387SOL     OW37057  13.146   7.266   0.564
78387SOL    HW137058  13.076   7.330   0.568
78387SOL    HW237059  13.225   7.317   0.548
78388SOL     OW37060  13.008  11.909  11.967
78388SOL    HW137061  13.033  11.940  12.054
78388SOL    HW237062  13.004  11.989  11.914
78389SOL     OW37063   2.097   4.766   5.498
78389SOL    HW137064   2.067   4.855   5.516
78389SOL    HW237065   2.087   4.719   5.581
78390SOL     OW37066   7.705   6.007   7.373
78390SOL    HW137067   7.708   6.039   7.463
78390SOL    HW237068   7.717   5.912   7.380
78391SOL     OW37069   2.965   0.257  14.375
78391SOL    HW137070   2.973   0.346  14.410
78391SOL    HW237071   2.887   0.260  14.320
78392SOL     OW37072   7.588  11.541  12.616
78392SOL    HW137073   7.551  11.611  12.669
78392SOL    HW237074   7.548  11.461  12.650
78393SOL     OW37075   0.341   3.969  14.528
78393SOL    HW137076   0.418   3.979  14.472
78393SOL    HW237077   0.284   4.042  14.504
78394SOL     OW37078   7.479   4.900   2.728
78394SOL    HW137079   7.479   4.866   2.818
78394SOL    HW237080   7.396   4.949   2.721
78395SOL     OW37081  10.876   2.668   9.348
78395SOL    HW137082  10.787   2.632   9.347
78395SOL    HW237083  10.875   2.730   9.421
78396SOL     OW37084   3.014   9.599   9.683
78396SOL    HW137085   2.983   9.686   9.707
78396SOL    HW237086   2.963   9.539   9.738
78397SOL     OW37087   9.812   7.708   7.779
78397SOL    HW137088   9.775   7.659   7.705
78397SOL    HW237089   9.772   7.795   7.771
78398SOL     OW37090  11.696   9.454  10.961
78398SOL    HW137091  11.773   9.451  10.905
78398SOL    HW237092  11.641   9.382  10.931
78399SOL     OW37093   6.123   5.156   9.230
78399SOL    HW137094   6.169   5.073   9.216
78399SOL    HW237095   6.032   5.131   9.244
78400SOL     OW37096  10.978  10.603  10.097
78400SOL    HW137097  10.907  10.539  10.088
78400SOL    HW237098  10.934  10.687  10.099
78401SOL     OW37099  10.875   0.046   4.744
78401SOL    HW137100  10.819  14.849   4.764
78401SOL    HW237101  10.939   0.048   4.815
78402SOL     OW37102  10.619  13.270  14.082
78402SOL    HW137103  10.656  13.294  14.167
78402SOL    HW237104  10.555  13.202  14.102
78403SOL     OW37105   0.590   7.892  13.790
78403SOL    HW137106   0.521   7.837  13.827
78403SOL    HW237107   0.657   7.831  13.760
78404SOL     OW37108  12.906  12.317  10.418
78404SOL    HW137109  12.855  12.257  10.364
78404SOL    HW237110  12.904  12.278  10.505
78405SOL     OW37111   1.508   4.962   2.381
78405SOL    HW137112   1.570   4.987   2.313
78405SOL    HW237113   1.425   4.948   2.335
78406SOL     OW37114   1.324   0.036   3.983
78406SOL    HW137115   1.243   0.025   3.933
78406SOL    HW237116   1.306  14.872   4.067
78407SOL     OW37117   2.701   1.615  14.031
78407SOL    HW137118   2.761   1.570  13.972
78407SOL    HW237119   2.642   1.546  14.062
78408SOL     OW37120  10.859  11.584  13.644
78408SOL    HW137121  10.857  11.657  13.583
78408SOL    HW237122  10.796  11.608  13.712
78409SOL     OW37123   8.285   5.520   0.506
78409SOL    HW137124   8.283   5.536   0.601
78409SOL    HW237125   8.218   5.453   0.492
78410SOL     OW37126   2.314   8.992   3.078
78410SOL    HW137127   2.406   9.017   3.073
78410SOL    HW237128   2.308   8.940   3.158
78411SOL     OW37129   4.141  13.860   8.828
78411SOL    HW137130   4.186  13.891   8.907
78411SOL    HW237131   4.205  13.872   8.758
78412SOL     OW37132  13.662   8.740  11.277
78412SOL    HW137133  13.613   8.811  11.317
78412SOL    HW237134  13.676   8.768  11.186
78413SOL     OW37135   6.636   9.894  12.105
78413SOL    HW137136   6.634   9.823  12.041
78413SOL    HW237137   6.707   9.870  12.165
78414SOL     OW37138  11.200   0.176  12.863
78414SOL    HW137139  11.210   0.255  12.809
78414SOL    HW237140  11.107   0.155  12.855
78415SOL     OW37141   6.782   1.806   7.341
78415SOL    HW137142   6.832   1.874   7.386
78415SOL    HW237143   6.694   1.843   7.331
78416SOL     OW37144   8.418   1.547   9.628
78416SOL    HW137145   8.373   1.507   9.703
78416SOL    HW237146   8.363   1.524   9.553
78417SOL     OW37147  10.340   4.592  10.950
78417SOL    HW137148  10.378   4.506  10.969
78417SOL    HW237149  10.414   4.652  10.949
78418SOL     OW37150   5.493   7.027   9.473
78418SOL    HW137151   5.567   7.089   9.467
78418SOL    HW237152   5.502   6.972   9.396
78419SOL     OW37153   4.508   7.115   0.909
78419SOL    HW137154   4.496   7.199   0.865
78419SOL    HW237155   4.461   7.124   0.992
78420SOL     OW37156   1.914   8.354   0.625
78420SOL    HW137157   1.875   8.419   0.566
78420SOL    HW237158   1.920   8.399   0.710
78421SOL     OW37159   6.741   4.734   6.725
78421SOL    HW137160   6.803   4.733   6.653
78421SOL    HW237161   6.793   4.711   6.802
78422SOL     OW37162   2.797  14.865   2.751
78422SOL    HW137163   2.706  14.839   2.760
78422SOL    HW237164   2.835  14.849   2.838
78423SOL     OW37165   3.218   4.356  13.752
78423SOL    HW137166   3.312   4.348  13.767
78423SOL    HW237167   3.205   4.327  13.662
78424SOL     OW37168   3.996  11.920  11.106
78424SOL    HW137169   4.036  11.910  11.192
78424SOL    HW237170   4.015  12.010  11.080
78425SOL     OW37171   6.449   4.162  10.898
78425SOL    HW137172   6.362   4.128  10.880
78425SOL    HW237173   6.436   4.229  10.965
78426SOL     OW37174   0.294   5.807  13.768
78426SOL    HW137175   0.363   5.792  13.703
78426SOL    HW237176   0.263   5.720  13.791
78427SOL     OW37177  11.890  13.637   1.974
78427SOL    HW137178  11.890  13.568   2.041
78427SOL    HW237179  11.973  13.682   1.986
78428SOL     OW37180   4.313   7.715   7.000
78428SOL    HW137181   4.288   7.660   6.926
78428SOL    HW237182   4.333   7.800   6.962
78429SOL     OW37183   4.172   1.857   4.658
78429SOL    HW137184   4.107   1.900   4.602
78429SOL    HW237185   4.252   1.907   4.644
78430SOL     OW37186  13.994   4.503   4.309
78430SOL    HW137187  13.904   4.528   4.331
78430SOL    HW237188  14.030   4.580   4.265
78431SOL     OW37189   0.793  13.855  10.450
78431SOL    HW137190   0.791  13.777  10.394
78431SOL    HW237191   0.863  13.909  10.415
78432SOL     OW37192   1.475   8.487   5.952
78432SOL    HW137193   1.475   8.530   5.866
78432SOL    HW237194   1.382   8.481   5.975
78433SOL     OW37195   1.295  10.863   9.775
78433SOL    HW137196   1.336  10.818   9.850
78433SOL    HW237197   1.326  10.953   9.782
78434SOL     OW37198  14.543  13.029   1.344
78434SOL    HW137199  14.573  13.028   1.435
78434SOL    HW237200  14.478  13.099   1.341
78435SOL     OW37201   9.610  14.607   2.464
78435SOL    HW137202   9.551  14.676   2.494
78435SOL    HW237203   9.689  14.618   2.517
78436SOL     OW37204  13.434  14.315   4.188
78436SOL    HW137205  13.376  14.388   4.209
78436SOL    HW237206  13.405  14.286   4.101
78437SOL     OW37207   3.605  11.339   1.671
78437SOL    HW137208   3.655  11.299   1.743
78437SOL    HW237209   3.672  11.369   1.610
78438SOL     OW37210   3.802  13.127  10.417
78438SOL    HW137211   3.713  13.154  10.394
78438SOL    HW237212   3.791  13.071  10.494
78439SOL     OW37213   4.674   9.458  14.636
78439SOL    HW137214   4.700   9.370  14.608
78439SOL    HW237215   4.739   9.481  14.703
78440SOL     OW37216   0.254   0.059  14.065
78440SOL    HW137217   0.313  14.863  14.080
78440SOL    HW237218   0.310   0.126  14.024
78441SOL     OW37219   7.640  11.684   5.306
78441SOL    HW137220   7.717  11.712   5.355
78441SOL    HW237221   7.667  11.604   5.261
78442SOL     OW37222  12.676   6.449   8.333
78442SOL    HW137223  12.655   6.541   8.349
78442SOL    HW237224  12.770   6.443   8.344
78443SOL     OW37225  11.339   6.740   6.590
78443SOL    HW137226  11.418   6.687   6.580
78443SOL    HW237227  11.366   6.815   6.643
78444SOL     OW37228  10.403   3.541   5.322
78444SOL    HW137229  10.426   3.632   5.338
78444SOL    HW237230  10.342   3.544   5.248
78445SOL     OW37231   8.987  11.231   2.390
78445SOL    HW137232   8.997  11.177   2.468
78445SOL    HW237233   9.068  11.281   2.385
78446SOL     OW37234   0.052  14.579   0.765
78446SOL    HW137235   0.064  14.620   0.679
78446SOL    HW237236   0.133  14.600   0.813
78447SOL     OW37237   3.283   8.436   8.001
78447SOL    HW137238   3.277   8.451   7.907
78447SOL    HW237239   3.235   8.354   8.016
78448SOL     OW37240   0.743   8.335  12.752
78448SOL    HW137241   0.744   8.242  12.733
78448SOL    HW237242   0.735   8.340  12.847
78449SOL     OW37243   2.811   4.100  13.217
78449SOL    HW137244   2.852   4.136  13.138
78449SOL    HW237245   2.882   4.097  13.282
78450SOL     OW37246   8.508   4.771   4.384
78450SOL    HW137247   8.417   4.745   4.399
78450SOL    HW237248   8.503   4.862   4.356
78451SOL     OW37249   0.978   7.326   2.313
78451SOL    HW137250   0.950   7.396   2.372
78451SOL    HW237251   1.022   7.372   2.241
78452SOL     OW37252   1.063   3.103   1.377
78452SOL    HW137253   1.117   3.176   1.408
78452SOL    HW237254   0.991   3.145   1.330
78453SOL     OW37255   8.329   9.700   6.698
78453SOL    HW137256   8.404   9.733   6.748
78453SOL    HW237257   8.275   9.655   6.763
78454SOL     OW37258  11.800   4.903  11.706
78454SOL    HW137259  11.712   4.905  11.670
78454SOL    HW237260  11.792   4.851  11.786
78455SOL     OW37261   9.840   3.900   6.723
78455SOL    HW137262   9.773   3.904   6.656
78455SOL    HW237263   9.873   3.810   6.719
78456SOL     OW37264   9.626   9.404   2.973
78456SOL    HW137265   9.565   9.421   2.901
78456SOL    HW237266   9.571   9.377   3.046
78457SOL     OW37267   0.330   0.312  10.955
78457SOL    HW137268   0.332   0.233  10.901
78457SOL    HW237269   0.421   0.342  10.958
78458SOL     OW37270   7.059   1.612  11.392
78458SOL    HW137271   7.011   1.596  11.311
78458SOL    HW237272   6.993   1.602  11.461
78459SOL     OW37273  11.013  13.239  14.826
78459SOL    HW137274  11.023  13.224   0.043
78459SOL    HW237275  10.952  13.312  14.820
78460SOL     OW37276   0.317   0.168  12.291
78460SOL    HW137277   0.368   0.106  12.240
78460SOL    HW237278   0.231   0.128  12.298
78461SOL     OW37279   5.439  14.869   4.361
78461SOL    HW137280   5.346   0.011   4.370
78461SOL    HW237281   5.478   0.021   4.443
78462SOL     OW37282  10.624   5.075  10.701
78462SOL    HW137283  10.633   5.170  10.714
78462SOL    HW237284  10.639   5.062  10.608
78463SOL     OW37285   4.638  11.437  11.149
78463SOL    HW137286   4.705  11.378  11.182
78463SOL    HW237287   4.574  11.379  11.107
78464SOL     OW37288  11.755   6.747  12.431
78464SOL    HW137289  11.725   6.723  12.343
78464SOL    HW237290  11.716   6.833  12.447
78465SOL     OW37291  12.752   0.041   2.270
78465SOL    HW137292  12.776  14.826   2.274
78465SOL    HW237293  12.805   0.082   2.338
78466SOL     OW37294   6.496  11.278  12.111
78466SOL    HW137295   6.559  11.229  12.059
78466SOL    HW237296   6.546  11.351  12.148
78467SOL     OW37297   3.267  14.627  10.814
78467SOL    HW137298   3.315  14.615  10.896
78467SOL    HW237299   3.336  14.631  10.747
78468SOL     OW37300  14.533  13.103  12.861
78468SOL    HW137301  14.479  13.055  12.798
78468SOL    HW237302  14.473  13.164  12.903
78469SOL     OW37303   4.069   1.879   1.401
78469SOL    HW137304   4.032   1.924   1.477
78469SOL    HW237305   4.149   1.838   1.433
78470SOL     OW37306   8.215   8.094  13.325
78470SOL    HW137307   8.126   8.129  13.333
78470SOL    HW237308   8.269   8.154  13.376
78471SOL     OW37309  13.266   4.998  10.617
78471SOL    HW137310  13.348   4.973  10.576
78471SOL    HW237311  13.200   4.983  10.550
78472SOL     OW37312  10.171   1.247   0.067
78472SOL    HW137313  10.251   1.298   0.053
78472SOL    HW237314  10.202   1.156   0.075
78473SOL     OW37315  13.052   8.239  14.667
78473SOL    HW137316  12.966   8.197  14.667
78473SOL    HW237317  13.068   8.261  14.575
78474SOL     OW37318   9.160  12.050  10.687
78474SOL    HW137319   9.243  12.092  10.713
78474SOL    HW237320   9.182  12.003  10.607
78475SOL     OW37321   7.314  12.900   3.445
78475SOL    HW137322   7.304  12.895   3.350
78475SOL    HW237323   7.272  12.820   3.478
78476SOL     OW37324   2.893  11.452   5.328
78476SOL    HW137325   2.929  11.449   5.416
78476SOL    HW237326   2.895  11.544   5.303
78477SOL     OW37327  13.232   8.168   7.414
78477SOL    HW137328  13.217   8.207   7.500
78477SOL    HW237329  13.237   8.074   7.430
78478SOL     OW37330  11.719  10.582   0.510
78478SOL    HW137331  11.783  10.538   0.454
78478SOL    HW237332  11.641  10.525   0.507
78479SOL     OW37333   5.919   9.055   9.740
78479SOL    HW137334   5.941   8.974   9.693
78479SOL    HW237335   6.004   9.092   9.764
78480SOL     OW37336   1.698   1.775   1.917
78480SOL    HW137337   1.693   1.776   2.012
78480SOL    HW237338   1.608   1.758   1.888
78481SOL     OW37339   7.570   3.363   3.884
78481SOL    HW137340   7.657   3.350   3.847
78481SOL    HW237341   7.586   3.400   3.971
78482SOL     OW37342  11.382   3.860   8.513
78482SOL    HW137343  11.404   3.769   8.534
78482SOL    HW237344  11.464   3.908   8.521
78483SOL     OW37345  11.097   2.886   5.783
78483SOL    HW137346  11.048   2.850   5.710
78483SOL    HW237347  11.168   2.823   5.798
78484SOL     OW37348  14.123   0.198  10.094
78484SOL    HW137349  14.059   0.269  10.094
78484SOL    HW237350  14.073   0.119  10.113
78485SOL     OW37351  13.374   4.590   5.503
78485SOL    HW137352  13.464   4.584   5.472
78485SOL    HW237353  13.323   4.539   5.440
78486SOL     OW37354  13.483  10.969   3.036
78486SOL    HW137355  13.459  10.981   3.127
78486SOL    HW237356  13.576  10.946   3.038
78487SOL     OW37357  11.070   0.330   6.464
78487SOL    HW137358  11.066   0.424   6.482
78487SOL    HW237359  11.122   0.322   6.384
78488SOL     OW37360   4.707   5.293   7.701
78488SOL    HW137361   4.770   5.221   7.694
78488SOL    HW237362   4.731   5.354   7.631
78489SOL     OW37363   4.319   7.150   3.297
78489SOL    HW137364   4.244   7.170   3.353
78489SOL    HW237365   4.306   7.204   3.219
78490SOL     OW37366   0.189   0.523   9.932
78490SOL    HW137367   0.178   0.550   9.841
78490SOL    HW237368   0.181   0.428   9.931
78491SOL     OW37369  13.364   7.109   8.404
78491SOL    HW137370  13.393   7.168   8.335
78491SOL    HW237371  13.426   7.036   8.402
78492SOL     OW37372  11.306   3.545   8.661
78492SOL    HW137373  11.390   3.508   8.636
78492SOL    HW237374  11.249   3.469   8.673
78493SOL     OW37375   2.688   0.676   2.594
78493SOL    HW137376   2.742   0.606   2.629
78493SOL    HW237377   2.734   0.705   2.515
78494SOL     OW37378   1.641   5.165   8.110
78494SOL    HW137379   1.733   5.146   8.088
78494SOL    HW237380   1.625   5.117   8.191
78495SOL     OW37381   8.842   0.154  13.416
78495SOL    HW137382   8.801   0.099  13.349
78495SOL    HW237383   8.776   0.221  13.435
78496SOL     OW37384   7.566  11.333   7.625
78496SOL    HW137385   7.616  11.411   7.599
78496SOL    HW237386   7.499  11.323   7.558
78497SOL     OW37387  10.314  10.159  11.680
78497SOL    HW137388  10.271  10.073  11.682
78497SOL    HW237389  10.267  10.207  11.612
78498SOL     OW37390  11.764   4.625  14.843
78498SOL    HW137391  11.783   4.642   0.057
78498SOL    HW237392  11.742   4.531  14.840
78499SOL     OW37393  12.642   6.881   0.039
78499SOL    HW137394  12.729   6.843   0.049
78499SOL    HW237395  12.640   6.955   0.099
78500SOL     OW37396  14.791  11.907  13.289
78500SOL    HW137397  14.744  11.971  13.236
78500SOL    HW237398  14.772  11.931  13.379
78501SOL     OW37399   4.534  12.803   1.432
78501SOL    HW137400   4.507  12.889   1.398
78501SOL    HW237401   4.607  12.777   1.376
78502SOL     OW37402  12.133   7.516   8.752
78502SOL    HW137403  12.059   7.497   8.695
78502SOL    HW237404  12.209   7.478   8.706
78503SOL     OW37405  14.373   3.020   8.858
78503SOL    HW137406  14.406   2.938   8.896
78503SOL    HW237407  14.309   3.052   8.921
78504SOL     OW37408  14.798  13.025   8.903
78504SOL    HW137409  14.726  12.999   8.961
78504SOL    HW237410  14.876  13.022   8.958
78505SOL     OW37411   9.106  12.020   7.344
78505SOL    HW137412   9.197  12.031   7.314
78505SOL    HW237413   9.113  11.964   7.421
78506SOL     OW37414   5.858   5.144   9.266
78506SOL    HW137415   5.858   5.224   9.214
78506SOL    HW237416   5.834   5.173   9.354
78507SOL     OW37417   0.104   8.392  12.907
78507SOL    HW137418   0.037   8.460  12.919
78507SOL    HW237419   0.054   8.315  12.880
78508SOL     OW37420  11.402  11.275   6.517
78508SOL    HW137421  11.324  11.321   6.488
78508SOL    HW237422  11.391  11.186   6.484
78509SOL     OW37423   1.383   1.886   6.776
78509SOL    HW137424   1.319   1.903   6.707
78509SOL    HW237425   1.435   1.813   6.743
78510SOL     OW37426   3.135   6.144   6.353
78510SOL    HW137427   3.201   6.178   6.293
78510SOL    HW237428   3.060   6.123   6.297
78511SOL     OW37429   3.057  11.249  13.857
78511SOL    HW137430   2.994  11.322  13.855
78511SOL    HW237431   3.006  11.173  13.828
78512SOL     OW37432   1.606   6.811  12.948
78512SOL    HW137433   1.629   6.892  12.902
78512SOL    HW237434   1.673   6.749  12.922
78513SOL     OW37435   4.146   6.529  10.169
78513SOL    HW137436   4.079   6.597  10.168
78513SOL    HW237437   4.145   6.496  10.259
78514SOL     OW37438  13.886   4.678  11.768
78514SOL    HW137439  13.924   4.662  11.682
78514SOL    HW237440  13.796   4.646  11.761
78515SOL     OW37441   1.746   4.639  10.946
78515SOL    HW137442   1.767   4.546  10.952
78515SOL    HW237443   1.831   4.683  10.951
78516SOL     OW37444  10.762   2.984   9.082
78516SOL    HW137445  10.733   2.894   9.099
78516SOL    HW237446  10.734   3.033   9.159
78517SOL     OW37447  12.983   3.039  14.216
78517SOL    HW137448  13.032   3.019  14.296
78517SOL    HW237449  13.020   3.122  14.185
78518SOL     OW37450   7.118  12.260   4.221
78518SOL    HW137451   7.148  12.171   4.203
78518SOL    HW237452   7.079  12.289   4.138
78519SOL     OW37453   4.376  11.163  14.496
78519SOL    HW137454   4.289  11.199  14.513
78519SOL    HW237455   4.406  11.132  14.581
78520SOL     OW37456   9.482  10.263  10.952
78520SOL    HW137457   9.511  10.192  11.009
78520SOL    HW237458   9.435  10.323  11.010
78521SOL     OW37459   0.099   6.589   2.288
78521SOL    HW137460   0.117   6.502   2.253
78521SOL    HW237461   0.004   6.594   2.294
78522SOL     OW37462  14.456   1.090   2.200
78522SOL    HW137463  14.427   1.074   2.110
78522SOL    HW237464  14.418   1.019   2.251
78523SOL     OW37465  13.601   3.069  13.772
78523SOL    HW137466  13.515   3.093  13.737
78523SOL    HW237467  13.651   3.041  13.695
78524SOL     OW37468   4.193   2.459   0.774
78524SOL    HW137469   4.222   2.518   0.705
78524SOL    HW237470   4.189   2.514   0.852
78525SOL     OW37471   0.256  14.104   7.922
78525SOL    HW137472   0.272  14.017   7.958
78525SOL    HW237473   0.230  14.088   7.831
78526SOL     OW37474  11.283   9.514  10.532
78526SOL    HW137475  11.198   9.516  10.489
78526SOL    HW237476  11.283   9.591  10.589
78527SOL     OW37477   5.071  13.919  10.948
78527SOL    HW137478   5.147  13.921  10.891
78527SOL    HW237479   5.061  14.009  10.978
78528SOL     OW37480   5.251   8.589   5.651
78528SOL    HW137481   5.222   8.500   5.636
78528SOL    HW237482   5.204   8.641   5.586
78529SOL     OW37483   5.534   6.448  13.211
78529SOL    HW137484   5.605   6.454  13.147
78529SOL    HW237485   5.516   6.355  13.219
78530SOL     OW37486  11.309   1.867   5.646
78530SOL    HW137487  11.301   1.836   5.556
78530SOL    HW237488  11.279   1.958   5.643
78531SOL     OW37489   2.255   9.139  13.849
78531SOL    HW137490   2.177   9.088  13.828
78531SOL    HW237491   2.326   9.094  13.801
78532SOL     OW37492   8.635   2.999   8.537
78532SOL    HW137493   8.664   3.002   8.628
78532SOL    HW237494   8.540   2.992   8.542
78533SOL     OW37495  11.238   7.199   2.527
78533SOL    HW137496  11.320   7.204   2.577
78533SOL    HW237497  11.180   7.145   2.582
78534SOL     OW37498   0.213   4.090   0.063
78534SOL    HW137499   0.140   4.126   0.014
78534SOL    HW237500   0.268   4.166   0.084
78535SOL     OW37501  11.648  12.557   1.925
78535SOL    HW137502  11.659  12.607   1.844
78535SOL    HW237503  11.608  12.619   1.986
78536SOL     OW37504   8.319   9.730  14.056
78536SOL    HW137505   8.289   9.709  13.967
78536SOL    HW237506   8.407   9.693  14.060
78537SOL     OW37507   7.829  14.260  14.323
78537SOL    HW137508   7.771  14.184  14.323
78537SOL    HW237509   7.917  14.223  14.324
78538SOL     OW37510  14.159   0.124   6.527
78538SOL    HW137511  14.137   0.032   6.543
78538SOL    HW237512  14.125   0.142   6.439
78539SOL     OW37513  10.420  13.354   0.005
78539SOL    HW137514  10.369  13.275   0.025
78539SOL    HW237515  10.377  13.392  14.805
78540SOL     OW37516  11.712   9.422   8.321
78540SOL    HW137517  11.667   9.461   8.396
78540SOL    HW237518  11.786   9.375   8.360
78541SOL     OW37519  11.275  11.524  14.160
78541SOL    HW137520  11.256  11.618  14.154
78541SOL    HW237521  11.370  11.519  14.170
78542SOL     OW37522   8.648  10.580   6.259
78542SOL    HW137523   8.623  10.532   6.180
78542SOL    HW237524   8.648  10.672   6.232
78543SOL     OW37525  12.624   5.422   3.968
78543SOL    HW137526  12.646   5.419   4.061
78543SOL    HW237527  12.533   5.391   3.964
78544SOL     OW37528   4.822  12.143   1.076
78544SOL    HW137529   4.791  12.197   1.004
78544SOL    HW237530   4.879  12.202   1.127
78545SOL     OW37531   5.754   8.798   9.829
78545SOL    HW137532   5.731   8.891   9.825
78545SOL    HW237533   5.814   8.786   9.755
78546SOL     OW37534   6.988  12.998  14.335
78546SOL    HW137535   6.947  12.918  14.368
78546SOL    HW237536   6.935  13.069  14.371
78547SOL     OW37537   4.234   2.986   9.941
78547SOL    HW137538   4.222   3.023   9.854
78547SOL    HW237539   4.266   2.897   9.925
78548SOL     OW37540   1.485   3.830  12.707
78548SOL    HW137541   1.439   3.868  12.782
78548SOL    HW237542   1.416   3.789  12.655
78549SOL     OW37543   2.152   9.013   2.023
78549SOL    HW137544   2.076   9.004   1.965
78549SOL    HW237545   2.120   9.064   2.097
78550SOL     OW37546   0.877   9.724   7.275
78550SOL    HW137547   0.807   9.771   7.231
78550SOL    HW237548   0.853   9.727   7.368
78551SOL     OW37549  13.187   6.672  12.776
78551SOL    HW137550  13.173   6.577  12.771
78551SOL    HW237551  13.181   6.702  12.685
78552SOL     OW37552   6.930   7.456   2.120
78552SOL    HW137553   7.022   7.440   2.141
78552SOL    HW237554   6.904   7.381   2.067
78553SOL     OW37555   6.344  12.607   9.083
78553SOL    HW137556   6.423  12.645   9.123
78553SOL    HW237557   6.346  12.638   8.992
78554SOL     OW37558   7.675   2.356   3.659
78554SOL    HW137559   7.748   2.315   3.705
78554SOL    HW237560   7.716   2.409   3.591
78555SOL     OW37561   4.127   2.369  13.605
78555SOL    HW137562   4.069   2.294  13.617
78555SOL    HW237563   4.131   2.410  13.692
78556SOL     OW37564  10.095  12.015  11.491
78556SOL    HW137565  10.143  12.080  11.440
78556SOL    HW237566  10.130  12.024  11.580
78557SOL     OW37567   4.686   7.640   5.140
78557SOL    HW137568   4.647   7.615   5.057
78557SOL    HW237569   4.648   7.726   5.160
78558SOL     OW37570   3.062   9.903   2.539
78558SOL    HW137571   3.145   9.927   2.581
78558SOL    HW237572   2.996   9.916   2.607
78559SOL     OW37573   9.704   9.672   8.781
78559SOL    HW137574   9.706   9.584   8.817
78559SOL    HW237575   9.767   9.721   8.835
78560SOL     OW37576  13.477   9.421   7.486
78560SOL    HW137577  13.457   9.409   7.578
78560SOL    HW237578  13.548   9.359   7.468
78561SOL     OW37579   5.829   8.827   1.536
78561SOL    HW137580   5.779   8.892   1.486
78561SOL    HW237581   5.849   8.871   1.619
78562SOL     OW37582   4.970  14.557  12.774
78562SOL    HW137583   4.875  14.571  12.773
78562SOL    HW237584   4.994  14.563  12.866
78563SOL     OW37585   3.277  13.741  10.927
78563SOL    HW137586   3.288  13.836  10.922
78563SOL    HW237587   3.198  13.728  10.980
78564SOL     OW37588   1.726   3.951  12.554
78564SOL    HW137589   1.765   3.868  12.580
78564SOL    HW237590   1.634   3.945  12.579
78565SOL     OW37591  12.483   1.366   9.486
78565SOL    HW137592  12.573   1.335   9.485
78565SOL    HW237593  12.490   1.461   9.480
78566SOL     OW37594   0.949   5.166   6.618
78566SOL    HW137595   0.876   5.118   6.579
78566SOL    HW237596   0.909   5.228   6.678
78567SOL     OW37597  12.286  11.346   0.629
78567SOL    HW137598  12.378  11.372   0.619
78567SOL    HW237599  12.290  11.250   0.634
78568SOL     OW37600   5.127   2.657   7.766
78568SOL    HW137601   5.045   2.609   7.756
78568SOL    HW237602   5.183   2.626   7.695
78569SOL     OW37603   7.952  10.213   2.824
78569SOL    HW137604   7.997  10.285   2.869
78569SOL    HW237605   7.903  10.256   2.753
78570SOL     OW37606  11.256  10.372  12.476
78570SOL    HW137607  11.322  10.362  12.408
78570SOL    HW237608  11.244  10.284  12.511
78571SOL     OW37609  13.927  13.615   3.333
78571SOL    HW137610  13.897  13.677   3.400
78571SOL    HW237611  13.847  13.570   3.304
78572SOL     OW37612   0.104  12.638   7.554
78572SOL    HW137613   0.047  12.711   7.580
78572SOL    HW237614   0.192  12.667   7.579
78573SOL     OW37615  13.558  11.191  13.052
78573SOL    HW137616  13.574  11.280  13.084
78573SOL    HW237617  13.488  11.158  13.108
78574SOL     OW37618  12.566   0.135   5.858
78574SOL    HW137619  12.558   0.046   5.893
78574SOL    HW237620  12.489   0.180   5.891
78575SOL     OW37621   7.722   9.455   3.728
78575SOL    HW137622   7.747   9.430   3.639
78575SOL    HW237623   7.787   9.410   3.784
78576SOL     OW37624   4.948   9.121   9.282
78576SOL    HW137625   4.856   9.093   9.280
78576SOL    HW237626   4.945   9.211   9.313
78577SOL     OW37627  13.809   6.968   7.251
78577SOL    HW137628  13.718   6.983   7.276
78577SOL    HW237629  13.857   6.969   7.334
78578SOL     OW37630   4.323   1.989   2.426
78578SOL    HW137631   4.332   1.930   2.352
78578SOL    HW237632   4.413   2.000   2.459
78579SOL     OW37633   2.224   0.306   6.903
78579SOL    HW137634   2.306   0.331   6.946
78579SOL    HW237635   2.156   0.322   6.968
78580SOL     OW37636   7.124   9.714   2.021
78580SOL    HW137637   7.163   9.729   2.107
78580SOL    HW237638   7.198   9.709   1.961
78581SOL     OW37639   3.382   7.300   9.481
78581SOL    HW137640   3.410   7.360   9.551
78581SOL    HW237641   3.313   7.347   9.435
78582SOL     OW37642  10.887   5.095  13.993
78582SOL    HW137643  10.958   5.042  13.956
78582SOL    HW237644  10.863   5.155  13.922
78583SOL     OW37645   5.638   4.816   4.933
78583SOL    HW137646   5.646   4.907   4.963
78583SOL    HW237647   5.726   4.780   4.942
78584SOL     OW37648   5.347   0.842   1.775
78584SOL    HW137649   5.432   0.885   1.790
78584SOL    HW237650   5.367   0.768   1.718
78585SOL     OW37651   0.619   5.542  14.311
78585SOL    HW137652   0.524   5.556  14.310
78585SOL    HW237653   0.655   5.624  14.345
78586SOL     OW37654  13.075   0.405  10.341
78586SOL    HW137655  13.111   0.320  10.363
78586SOL    HW237656  13.101   0.462  10.413
78587SOL     OW37657  10.525   5.536  12.622
78587SOL    HW137658  10.587   5.548  12.694
78587SOL    HW237659  10.467   5.613  12.627
78588SOL     OW37660  12.696  11.378  11.601
78588SOL    HW137661  12.674  11.291  11.633
78588SOL    HW237662  12.628  11.400  11.538
78589SOL     OW37663  10.902  10.756   9.565
78589SOL    HW137664  10.817  10.763   9.609
78589SOL    HW237665  10.966  10.779   9.632
78590SOL     OW37666   3.641   0.959   6.835
78590SOL    HW137667   3.548   0.977   6.821
78590SOL    HW237668   3.647   0.863   6.834
78591SOL     OW37669   2.762   3.621   4.153
78591SOL    HW137670   2.767   3.535   4.194
78591SOL    HW237671   2.803   3.680   4.217
78592SOL     OW37672   2.891  14.414   1.174
78592SOL    HW137673   2.904  14.363   1.094
78592SOL    HW237674   2.974  14.460   1.185
78593SOL     OW37675  10.561   9.344  13.870
78593SOL    HW137676  10.466   9.354  13.857
78593SOL    HW237677  10.599   9.366  13.786
78594SOL     OW37678   1.974   4.746  10.993
78594SOL    HW137679   2.063   4.710  10.989
78594SOL    HW237680   1.966   4.780  11.082
78595SOL     OW37681   6.507   0.223  12.671
78595SOL    HW137682   6.553   0.214  12.754
78595SOL    HW237683   6.573   0.202  12.605
78596SOL     OW37684   7.385   1.083   9.521
78596SOL    HW137685   7.412   1.175   9.519
78596SOL    HW237686   7.416   1.047   9.437
78597SOL     OW37687   3.476   6.264   5.718
78597SOL    HW137688   3.560   6.242   5.756
78597SOL    HW237689   3.425   6.184   5.724
78598SOL     OW37690  14.514   4.773   5.235
78598SOL    HW137691  14.484   4.812   5.317
78598SOL    HW237692  14.575   4.838   5.199
78599SOL     OW37693   7.224   4.847   3.814
78599SOL    HW137694   7.136   4.847   3.853
78599SOL    HW237695   7.262   4.931   3.841
78600SOL     OW37696   8.058   5.827   2.608
78600SOL    HW137697   8.054   5.845   2.514
78600SOL    HW237698   8.116   5.895   2.643
78601SOL     OW37699  11.474  11.822   8.433
78601SOL    HW137700  11.405  11.878   8.397
78601SOL    HW237701  11.440  11.733   8.423
78602SOL     OW37702   4.156   2.006   7.801
78602SOL    HW137703   4.203   2.082   7.836
78602SOL    HW237704   4.169   1.938   7.866
78603SOL     OW37705   6.173   9.118   3.578
78603SOL    HW137706   6.211   9.057   3.516
78603SOL    HW237707   6.245   9.174   3.605
78604SOL     OW37708   5.633   7.272  14.450
78604SOL    HW137709   5.710   7.296  14.399
78604SOL    HW237710   5.623   7.178  14.435
78605SOL     OW37711   5.407  13.780  13.701
78605SOL    HW137712   5.324  13.759  13.658
78605SOL    HW237713   5.455  13.697  13.701
78606SOL     OW37714   7.898  14.166   7.799
78606SOL    HW137715   7.972  14.225   7.786
78606SOL    HW237716   7.921  14.088   7.748
78607SOL     OW37717  11.882   2.850   4.488
78607SOL    HW137718  11.946   2.908   4.530
78607SOL    HW237719  11.926   2.765   4.485
78608SOL     OW37720  10.171   5.928  13.840
78608SOL    HW137721  10.199   5.874  13.766
78608SOL    HW237722  10.102   5.876  13.882
78609SOL     OW37723   0.859   4.578  12.465
78609SOL    HW137724   0.770   4.548  12.452
78609SOL    HW237725   0.913   4.499  12.457
78610SOL     OW37726   8.391  12.248  13.067
78610SOL    HW137727   8.440  12.170  13.094
78610SOL    HW237728   8.456  12.318  13.067
78611SOL     OW37729   7.237  13.067  13.922
78611SOL    HW137730   7.241  13.053  13.828
78611SOL    HW237731   7.189  12.991  13.956
78612SOL     OW37732   6.375   3.603   2.961
78612SOL    HW137733   6.309   3.542   2.993
78612SOL    HW237734   6.400   3.568   2.875
78613SOL     OW37735   1.086   8.202  10.464
78613SOL    HW137736   1.075   8.295  10.445
78613SOL    HW237737   1.171   8.197  10.508
78614SOL     OW37738  10.461   6.889   5.205
78614SOL    HW137739  10.530   6.915   5.144
78614SOL    HW237740  10.495   6.913   5.291
78615SOL     OW37741   4.809  10.818  11.273
78615SOL    HW137742   4.722  10.807  11.310
78615SOL    HW237743   4.798  10.804  11.179
78616SOL     OW37744  11.810  11.014   8.480
78616SOL    HW137745  11.741  10.996   8.417
78616SOL    HW237746  11.803  11.107   8.499
78617SOL     OW37747  14.687  13.491  12.731
78617SOL    HW137748  14.647  13.445  12.805
78617SOL    HW237749  14.676  13.584  12.753
78618SOL     OW37750   7.091   9.151   0.063
78618SOL    HW137751   7.168   9.200   0.092
78618SOL    HW237752   7.127   9.078   0.012
78619SOL     OW37753  11.685  12.508   7.090
78619SOL    HW137754  11.745  12.456   7.143
78619SOL    HW237755  11.610  12.524   7.147
78620SOL     OW37756   1.154   0.805  12.383
78620SOL    HW137757   1.194   0.868  12.323
78620SOL    HW237758   1.205   0.812  12.463
78621SOL     OW37759   9.905   1.355   4.851
78621SOL    HW137760   9.933   1.388   4.937
78621SOL    HW237761   9.819   1.394   4.837
78622SOL     OW37762  12.144  12.898  13.971
78622SOL    HW137763  12.238  12.897  13.952
78622SOL    HW237764  12.119  12.805  13.970
78623SOL     OW37765   9.942  11.502   2.268
78623SOL    HW137766   9.910  11.537   2.351
78623SOL    HW237767   9.863  11.476   2.221
78624SOL     OW37768  10.864  10.211   4.553
78624SOL    HW137769  10.883  10.189   4.644
78624SOL    HW237770  10.853  10.126   4.510
78625SOL     OW37771   1.272  13.931   9.685
78625SOL    HW137772   1.327  14.009   9.687
78625SOL    HW237773   1.326  13.863   9.726
78626SOL     OW37774   1.412   2.512   2.184
78626SOL    HW137775   1.338   2.507   2.245
78626SOL    HW237776   1.483   2.551   2.236
78627SOL     OW37777   3.526   8.231   3.465
78627SOL    HW137778   3.587   8.222   3.538
78627SOL    HW237779   3.580   8.219   3.387
78628SOL     OW37780  10.375   4.157  14.839
78628SOL    HW137781  10.298   4.208  14.862
78628SOL    HW237782  10.377   4.157  14.743
78629SOL     OW37783   4.272  14.029   8.468
78629SOL    HW137784   4.177  14.023   8.474
78629SOL    HW237785   4.291  14.017   8.375
78630SOL     OW37786  13.910   5.643   2.106
78630SOL    HW137787  13.814   5.649   2.102
78630SOL    HW237788  13.929   5.553   2.079
78631SOL     OW37789   2.620   2.452   3.369
78631SOL    HW137790   2.541   2.491   3.331
78631SOL    HW237791   2.587   2.402   3.445
78632SOL     OW37792  14.459   5.187   0.075
78632SOL    HW137793  14.507   5.107   0.096
78632SOL    HW237794  14.518   5.258   0.100
78633SOL     OW37795   2.856   8.839   3.197
78633SOL    HW137796   2.917   8.898   3.154
78633SOL    HW237797   2.875   8.753   3.159
78634SOL     OW37798   8.858   4.002   9.841
78634SOL    HW137799   8.917   3.937   9.879
78634SOL    HW237800   8.794   3.950   9.792
78635SOL     OW37801  10.573  10.918   8.764
78635SOL    HW137802  10.616  10.844   8.721
78635SOL    HW237803  10.573  10.988   8.699
78636SOL     OW37804   8.092  11.936   4.377
78636SOL    HW137805   8.187  11.951   4.380
78636SOL    HW237806   8.083  11.850   4.336
78637SOL     OW37807   8.418   7.382   4.225
78637SOL    HW137808   8.331   7.404   4.192
78637SOL    HW237809   8.402   7.352   4.315
78638SOL     OW37810   5.632  11.055   7.748
78638SOL    HW137811   5.572  10.998   7.795
78638SOL    HW237812   5.694  10.995   7.707
78639SOL     OW37813   4.825   7.893   3.220
78639SOL    HW137814   4.846   7.821   3.160
78639SOL    HW237815   4.746   7.865   3.265
78640SOL     OW37816   0.376  14.172   3.856
78640SOL    HW137817   0.444  14.112   3.886
78640SOL    HW237818   0.299  14.151   3.909
78641SOL     OW37819   1.138   7.087   5.078
78641SOL    HW137820   1.090   7.134   5.009
78641SOL    HW237821   1.195   7.027   5.031
78642SOL     OW37822  12.722   9.318   5.545
78642SOL    HW137823  12.705   9.377   5.619
78642SOL    HW237824  12.687   9.365   5.469
78643SOL     OW37825  11.836   3.678  11.378
78643SOL    HW137826  11.814   3.605  11.435
78643SOL    HW237827  11.927   3.699  11.399
78644SOL     OW37828   5.963   5.728   0.031
78644SOL    HW137829   5.965   5.822   0.012
78644SOL    HW237830   6.042   5.712   0.082
78645SOL     OW37831   4.795   8.443   0.628
78645SOL    HW137832   4.706   8.433   0.595
78645SOL    HW237833   4.789   8.423   0.721
78646SOL     OW37834   1.204   1.888  13.602
78646SOL    HW137835   1.193   1.908  13.509
78646SOL    HW237836   1.274   1.822  13.604
78647SOL     OW37837   6.359   9.640   7.638
78647SOL    HW137838   6.344   9.729   7.606
78647SOL    HW237839   6.440   9.646   7.688
78648SOL     OW37840  10.003   1.530  10.495
78648SOL    HW137841   9.927   1.481  10.526
78648SOL    HW237842   9.995   1.527  10.399
78649SOL     OW37843   0.144   8.823   4.104
78649SOL    HW137844   0.145   8.835   4.009
78649SOL    HW237845   0.208   8.754   4.120
78650SOL     OW37846   7.167   4.633   8.583
78650SOL    HW137847   7.221   4.660   8.509
78650SOL    HW237848   7.207   4.676   8.659
78651SOL     OW37849  10.375   8.112   3.380
78651SOL    HW137850  10.397   8.114   3.473
78651SOL    HW237851  10.380   8.203   3.352
78652SOL     OW37852  13.130   3.509  10.715
78652SOL    HW137853  13.186   3.570  10.667
78652SOL    HW237854  13.055   3.562  10.743
78653SOL     OW37855   1.492   7.780  12.612
78653SOL    HW137856   1.502   7.849  12.677
78653SOL    HW237857   1.561   7.717  12.633
78654SOL     OW37858  13.563  13.448   4.780
78654SOL    HW137859  13.579  13.356   4.798
78654SOL    HW237860  13.651  13.485   4.766
78655SOL     OW37861  14.348   3.471   7.078
78655SOL    HW137862  14.406   3.396   7.093
78655SOL    HW237863  14.394   3.522   7.011
78656SOL     OW37864   0.463   7.662   8.695
78656SOL    HW137865   0.385   7.679   8.642
78656SOL    HW237866   0.516   7.604   8.641
78657SOL     OW37867   3.129   5.519   2.939
78657SOL    HW137868   3.112   5.611   2.959
78657SOL    HW237869   3.191   5.521   2.866
78658SOL     OW37870  11.185  10.716   7.644
78658SOL    HW137871  11.257  10.743   7.588
78658SOL    HW237872  11.191  10.620   7.646
78659SOL     OW37873  11.233   3.754   7.930
78659SOL    HW137874  11.189   3.698   7.866
78659SOL    HW237875  11.218   3.711   8.014
78660SOL     OW37876  13.340  12.013   4.563
78660SOL    HW137877  13.323  12.079   4.630
78660SOL    HW237878  13.423  11.973   4.589
78661SOL     OW37879   8.333  14.009   0.351
78661SOL    HW137880   8.305  14.098   0.330
78661SOL    HW237881   8.423  14.018   0.380
78662SOL     OW37882  12.178  13.646   6.336
78662SOL    HW137883  12.240  13.677   6.402
78662SOL    HW237884  12.126  13.723   6.312
78663SOL     OW37885  14.414   2.771   8.989
78663SOL    HW137886  14.500   2.735   8.969
78663SOL    HW237887  14.418   2.791   9.082
78664SOL     OW37888   1.126   5.204   0.712
78664SOL    HW137889   1.085   5.243   0.635
78664SOL    HW237890   1.086   5.249   0.786
78665SOL     OW37891   8.491   6.987  14.471
78665SOL    HW137892   8.433   7.039  14.416
78665SOL    HW237893   8.570   7.040  14.479
78666SOL     OW37894   7.725   4.218   8.674
78666SOL    HW137895   7.811   4.256   8.692
78666SOL    HW237896   7.705   4.166   8.752
78667SOL     OW37897   6.253  10.121  13.843
78667SOL    HW137898   6.209  10.154  13.922
78667SOL    HW237899   6.186  10.123  13.775
78668SOL     OW37900   6.800   7.832   9.016
78668SOL    HW137901   6.708   7.822   8.994
78668SOL    HW237902   6.812   7.926   9.026
78669SOL     OW37903   9.915  13.323   5.001
78669SOL    HW137904   9.992  13.349   4.950
78669SOL    HW237905   9.927  13.365   5.086
78670SOL     OW37906   3.019   5.845   3.668
78670SOL    HW137907   3.010   5.751   3.651
78670SOL    HW237908   2.944   5.885   3.623
78671SOL     OW37909   6.642   8.173   3.002
78671SOL    HW137910   6.694   8.253   3.005
78671SOL    HW237911   6.553   8.203   2.983
78672SOL     OW37912   6.983  14.586   5.525
78672SOL    HW137913   7.049  14.556   5.588
78672SOL    HW237914   6.955  14.507   5.479
78673SOL     OW37915   8.203   1.627   7.324
78673SOL    HW137916   8.138   1.681   7.278
78673SOL    HW237917   8.234   1.565   7.258
78674SOL     OW37918   2.995   9.780  13.957
78674SOL    HW137919   2.956   9.743  13.878
78674SOL    HW237920   3.083   9.742  13.961
78675SOL     OW37921   2.619  10.464  11.644
78675SOL    HW137922   2.542  10.461  11.700
78675SOL    HW237923   2.587  10.498  11.561
78676SOL     OW37924   2.938   7.854   3.030
78676SOL    HW137925   2.978   7.770   3.009
78676SOL    HW237926   2.969   7.875   3.118
78677SOL     OW37927   8.291   9.704  12.531
78677SOL    HW137928   8.309   9.795  12.510
78677SOL    HW237929   8.196   9.694  12.520
78678SOL     OW37930   8.569   6.643   2.332
78678SOL    HW137931   8.632   6.665   2.401
78678SOL    HW237932   8.624   6.621   2.256
78679SOL     OW37933  13.910  13.709   5.503
78679SOL    HW137934  13.865  13.688   5.585
78679SOL    HW237935  13.874  13.647   5.440
78680SOL     OW37936   3.847  12.582  11.782
78680SOL    HW137937   3.817  12.659  11.830
78680SOL    HW237938   3.782  12.514  11.801
78681SOL     OW37939   8.759  13.041   6.568
78681SOL    HW137940   8.726  13.050   6.478
78681SOL    HW237941   8.769  12.947   6.581
78682SOL     OW37942  10.025   4.408  10.860
78682SOL    HW137943   9.933   4.425  10.841
78682SOL    HW237944  10.061   4.495  10.879
78683SOL     OW37945   3.612  13.625  12.471
78683SOL    HW137946   3.673  13.556  12.496
78683SOL    HW237947   3.654  13.671  12.399
78684SOL     OW37948   7.808   9.406  10.290
78684SOL    HW137949   7.784   9.471  10.356
78684SOL    HW237950   7.830   9.328  10.341
78685SOL     OW37951   9.059   8.478   0.273
78685SOL    HW137952   8.990   8.531   0.233
78685SOL    HW237953   9.140   8.514   0.239
78686SOL     OW37954   8.425   4.912   9.778
78686SOL    HW137955   8.470   4.950   9.854
78686SOL    HW237956   8.477   4.940   9.703
78687SOL     OW37957   2.263  12.058   6.785
78687SOL    HW137958   2.333  12.080   6.723
78687SOL    HW237959   2.205  11.999   6.737
78688SOL     OW37960   1.027  11.147   8.081
78688SOL    HW137961   1.111  11.170   8.121
78688SOL    HW237962   0.970  11.221   8.100
78689SOL     OW37963   9.269   5.588   1.484
78689SOL    HW137964   9.258   5.638   1.403
78689SOL    HW237965   9.363   5.568   1.486
78690SOL     OW37966   9.105  12.628  14.862
78690SOL    HW137967   9.013  12.632  14.838
78690SOL    HW237968   9.131  12.537  14.844
78691SOL     OW37969   3.664   1.546   4.857
78691SOL    HW137970   3.631   1.505   4.938
78691SOL    HW237971   3.756   1.518   4.853
78692SOL     OW37972   4.158   9.225  11.774
78692SOL    HW137973   4.174   9.190  11.686
78692SOL    HW237974   4.223   9.294  11.784
78693SOL     OW37975   4.909  11.423   8.949
78693SOL    HW137976   4.913  11.327   8.949
78693SOL    HW237977   4.891  11.446   9.041
78694SOL     OW37978   6.856  14.631  12.803
78694SOL    HW137979   6.952  14.622  12.810
78694SOL    HW237980   6.822  14.570  12.869
78695SOL     OW37981  12.369   4.758  14.232
78695SOL    HW137982  12.296   4.791  14.284
78695SOL    HW237983  12.392   4.674  14.272
78696SOL     OW37984   6.642   4.233   9.281
78696SOL    HW137985   6.719   4.180   9.262
78696SOL    HW237986   6.569   4.181   9.248
78697SOL     OW37987   8.713  13.956   9.273
78697SOL    HW137988   8.618  13.963   9.287
78697SOL    HW237989   8.730  14.010   9.196
78698SOL     OW37990  10.795   7.581  11.409
78698SOL    HW137991  10.890   7.571  11.413
78698SOL    HW237992  10.764   7.557  11.496
78699SOL     OW37993   6.837   7.259   1.916
78699SOL    HW137994   6.846   7.299   1.829
78699SOL    HW237995   6.852   7.166   1.901
78700SOL     OW37996   0.761   4.199  13.580
78700SOL    HW137997   0.804   4.285  13.585
78700SOL    HW237998   0.688   4.206  13.642
78701SOL     OW37999   7.463   8.587   9.261
78701SOL    HW138000   7.495   8.649   9.327
78701SOL    HW238001   7.509   8.611   9.181
78702SOL     OW38002   6.567  14.565   2.562
78702SOL    HW138003   6.586  14.619   2.639
78702SOL    HW238004   6.578  14.475   2.593
78703SOL     OW38005   0.946  14.087   0.522
78703SOL    HW138006   0.915  14.167   0.480
78703SOL    HW238007   1.006  14.048   0.458
78704SOL     OW38008  12.106  12.982   7.435
78704SOL    HW138009  12.156  12.901   7.427
78704SOL    HW238010  12.099  13.016   7.346
78705SOL     OW38011   9.011   6.904   7.972
78705SOL    HW138012   8.964   6.821   7.983
78705SOL    HW238013   8.942   6.970   7.964
78706SOL     OW38014  13.724   5.049   9.280
78706SOL    HW138015  13.685   5.087   9.358
78706SOL    HW238016  13.707   5.113   9.211
78707SOL     OW38017  10.369   1.576   0.277
78707SOL    HW138018  10.347   1.509   0.341
78707SOL    HW238019  10.310   1.560   0.204
78708SOL     OW38020   7.947  11.171   4.201
78708SOL    HW138021   7.927  11.199   4.290
78708SOL    HW238022   7.868  11.192   4.151
78709SOL     OW38023   9.821   4.273   3.642
78709SOL    HW138024   9.904   4.275   3.690
78709SOL    HW238025   9.835   4.332   3.568
78710SOL     OW38026   6.609  14.724  11.968
78710SOL    HW138027   6.702  14.706  11.982
78710SOL    HW238028   6.608  14.774  11.886
78711SOL     OW38029  11.442   4.395  10.585
78711SOL    HW138030  11.482   4.308  10.588
78711SOL    HW238031  11.389   4.394  10.506
78712SOL     OW38032   4.706   3.558   8.135
78712SOL    HW138033   4.729   3.607   8.214
78712SOL    HW238034   4.639   3.496   8.164
78713SOL     OW38035  12.724  14.360  14.553
78713SOL    HW138036  12.796  14.422  14.543
78713SOL    HW238037  12.766  14.274  14.551
78714SOL     OW38038  10.930  14.660  13.748
78714SOL    HW138039  10.911  14.575  13.789
78714SOL    HW238040  10.859  14.717  13.779
78715SOL     OW38041   0.278   7.920   8.878
78715SOL    HW138042   0.322   7.836   8.864
78715SOL    HW238043   0.343   7.985   8.853
78716SOL     OW38044  11.669  12.362   7.736
78716SOL    HW138045  11.573  12.359   7.729
78716SOL    HW238046  11.694  12.433   7.678
78717SOL     OW38047   1.889   0.445   6.356
78717SOL    HW138048   1.843   0.527   6.338
78717SOL    HW238049   1.849   0.412   6.436
78718SOL     OW38050   5.928   1.242   2.797
78718SOL    HW138051   5.840   1.219   2.828
78718SOL    HW238052   5.960   1.164   2.752
78719SOL     OW38053   4.080   7.773  13.630
78719SOL    HW138054   4.062   7.712  13.703
78719SOL    HW238055   4.124   7.847  13.671
78720SOL     OW38056  14.554   9.322   5.503
78720SOL    HW138057  14.523   9.412   5.513
78720SOL    HW238058  14.647   9.326   5.527
78721SOL     OW38059   6.209   7.815  12.353
78721SOL    HW138060   6.149   7.793  12.424
78721SOL    HW238061   6.259   7.889  12.386
78722SOL     OW38062   3.754  11.601   4.310
78722SOL    HW138063   3.716  11.645   4.386
78722SOL    HW238064   3.840  11.570   4.340
78723SOL     OW38065   7.035   9.745  13.612
78723SOL    HW138066   7.079   9.661  13.628
78723SOL    HW238067   6.954   9.739  13.662
78724SOL     OW38068  13.720   6.967   5.363
78724SOL    HW138069  13.742   6.876   5.344
78724SOL    HW238070  13.761   6.985   5.448
78725SOL     OW38071   7.224   7.469  11.832
78725SOL    HW138072   7.314   7.501  11.829
78725SOL    HW238073   7.205   7.444  11.742
78726SOL     OW38074   0.996   1.213  13.725
78726SOL    HW138075   1.044   1.280  13.773
78726SOL    HW238076   1.064   1.159  13.685
78727SOL     OW38077   2.446   1.841   6.665
78727SOL    HW138078   2.420   1.749   6.673
78727SOL    HW238079   2.472   1.851   6.574
78728SOL     OW38080  14.396   4.444   8.821
78728SOL    HW138081  14.368   4.367   8.869
78728SOL    HW238082  14.396   4.416   8.729
78729SOL     OW38083   3.462  14.449   0.211
78729SOL    HW138084   3.461  14.545   0.206
78729SOL    HW238085   3.555  14.426   0.212
78730SOL     OW38086   2.501   8.814   6.712
78730SOL    HW138087   2.507   8.719   6.720
78730SOL    HW238088   2.418   8.836   6.754
78731SOL     OW38089  14.840  11.006   5.850
78731SOL    HW138090   0.045  11.052   5.869
78731SOL    HW238091  14.867  10.920   5.817
78732SOL     OW38092   3.168  10.427   2.375
78732SOL    HW138093   3.197  10.404   2.286
78732SOL    HW238094   3.080  10.388   2.381
78733SOL     OW38095   6.330   6.222   5.750
78733SOL    HW138096   6.337   6.186   5.661
78733SOL    HW238097   6.267   6.294   5.742
78734SOL     OW38098   5.805  12.524  11.570
78734SOL    HW138099   5.779  12.527  11.662
78734SOL    HW238100   5.865  12.597  11.559
78735SOL     OW38101   1.343   6.671  11.854
78735SOL    HW138102   1.400   6.685  11.778
78735SOL    HW238103   1.404   6.659  11.927
78736SOL     OW38104   9.707   4.155  10.781
78736SOL    HW138105   9.615   4.133  10.772
78736SOL    HW238106   9.707   4.247  10.808
78737SOL     OW38107  11.786   7.432  10.242
78737SOL    HW138108  11.707   7.382  10.262
78737SOL    HW238109  11.775   7.457  10.150
78738SOL     OW38110   3.981  14.176   4.223
78738SOL    HW138111   3.952  14.217   4.305
78738SOL    HW238112   3.900  14.155   4.177
78739SOL     OW38113  14.267   2.065   0.564
78739SOL    HW138114  14.327   2.100   0.498
78739SOL    HW238115  14.309   2.083   0.648
78740SOL     OW38116  14.375   0.771   4.287
78740SOL    HW138117  14.434   0.807   4.353
78740SOL    HW238118  14.346   0.687   4.325
78741SOL     OW38119   0.764   3.728   1.388
78741SOL    HW138120   0.763   3.660   1.455
78741SOL    HW238121   0.735   3.807   1.433
78742SOL     OW38122  11.956  10.017   9.187
78742SOL    HW138123  11.947   9.991   9.096
78742SOL    HW238124  12.044  10.053   9.194
78743SOL     OW38125   2.797   4.551   0.752
78743SOL    HW138126   2.752   4.621   0.799
78743SOL    HW238127   2.831   4.593   0.673
78744SOL     OW38128  10.954   2.867   3.090
78744SOL    HW138129  10.872   2.895   3.048
78744SOL    HW238130  10.928   2.794   3.147
78745SOL     OW38131   3.477  12.677   0.232
78745SOL    HW138132   3.451  12.594   0.193
78745SOL    HW238133   3.406  12.737   0.210
78746SOL     OW38134   6.096   5.558   9.526
78746SOL    HW138135   6.145   5.614   9.466
78746SOL    HW238136   6.135   5.472   9.517
78747SOL     OW38137  12.811   1.828   6.283
78747SOL    HW138138  12.790   1.880   6.205
78747SOL    HW238139  12.897   1.859   6.310
78748SOL     OW38140  10.839   9.101   2.687
78748SOL    HW138141  10.783   9.076   2.761
78748SOL    HW238142  10.858   9.194   2.702
78749SOL     OW38143  11.067   3.314   8.895
78749SOL    HW138144  11.125   3.351   8.962
78749SOL    HW238145  10.980   3.313   8.936
78750SOL     OW38146   2.562  14.357  10.926
78750SOL    HW138147   2.540  14.279  10.876
78750SOL    HW238148   2.647  14.338  10.965
78751SOL     OW38149   6.457   7.397   8.841
78751SOL    HW138150   6.514   7.408   8.765
78751SOL    HW238151   6.466   7.305   8.865
78752SOL     OW38152   1.200   8.397  13.577
78752SOL    HW138153   1.179   8.487  13.603
78752SOL    HW238154   1.263   8.367  13.643
78753SOL     OW38155  12.252   3.126  13.705
78753SOL    HW138156  12.318   3.185  13.668
78753SOL    HW238157  12.208   3.179  13.771
78754SOL     OW38158   4.730   9.782  11.351
78754SOL    HW138159   4.705   9.768  11.442
78754SOL    HW238160   4.794   9.713  11.332
78755SOL     OW38161  14.183  11.382   9.952
78755SOL    HW138162  14.098  11.388   9.908
78755SOL    HW238163  14.210  11.291   9.940
78756SOL     OW38164   5.132  12.817   3.096
78756SOL    HW138165   5.140  12.759   3.171
78756SOL    HW238166   5.057  12.873   3.115
78757SOL     OW38167  14.366   3.703  14.163
78757SOL    HW138168  14.421   3.780  14.173
78757SOL    HW238169  14.427   3.629  14.167
78758SOL     OW38170   4.664  11.552  10.189
78758SOL    HW138171   4.638  11.462  10.208
78758SOL    HW238172   4.665  11.557  10.093
78759SOL     OW38173   0.943  10.229   2.818
78759SOL    HW138174   0.998  10.272   2.751
78759SOL    HW238175   0.994  10.152   2.844
78760SOL     OW38176  13.377   6.355   1.722
78760SOL    HW138177  13.343   6.401   1.799
78760SOL    HW238178  13.300   6.342   1.666
78761SOL     OW38179   5.607  14.069  11.426
78761SOL    HW138180   5.644  14.126  11.494
78761SOL    HW238181   5.683  14.026  11.388
78762SOL     OW38182  14.213   7.453   5.418
78762SOL    HW138183  14.241   7.505   5.493
78762SOL    HW238184  14.285   7.461   5.355
78763SOL     OW38185   0.118   7.478  13.084
78763SOL    HW138186   0.153   7.467  13.172
78763SOL    HW238187   0.065   7.558  13.089
78764SOL     OW38188  12.169   8.016   9.527
78764SOL    HW138189  12.219   8.097   9.531
78764SOL    HW238190  12.217   7.956   9.584
78765SOL     OW38191   5.722  14.576  13.219
78765SOL    HW138192   5.679  14.605  13.138
78765SOL    HW238193   5.762  14.492  13.195
78766SOL     OW38194   9.133  14.299   2.631
78766SOL    HW138195   9.067  14.276   2.696
78766SOL    HW238196   9.082  14.319   2.552
78767SOL     OW38197  13.983  11.605   8.071
78767SOL    HW138198  14.065  11.630   8.113
78767SOL    HW238199  14.007  11.533   8.013
78768SOL     OW38200   7.129  11.087  11.233
78768SOL    HW138201   7.144  10.998  11.266
78768SOL    HW238202   7.214  11.130  11.241
78769SOL     OW38203  12.944  11.114   2.264
78769SOL    HW138204  12.947  11.186   2.201
78769SOL    HW238205  13.011  11.052   2.233
78770SOL     OW38206   1.349   3.265   7.383
78770SOL    HW138207   1.405   3.339   7.359
78770SOL    HW238208   1.279   3.304   7.435
78771SOL     OW38209   8.644   7.926   9.936
78771SOL    HW138210   8.681   7.971  10.012
78771SOL    HW238211   8.588   7.991   9.894
78772SOL     OW38212  10.545   0.653  11.231
78772SOL    HW138213  10.480   0.588  11.256
78772SOL    HW238214  10.587   0.678  11.314
78773SOL     OW38215  12.325  10.150  10.159
78773SOL    HW138216  12.349  10.209  10.231
78773SOL    HW238217  12.395  10.162  10.095
78774SOL     OW38218  11.476  10.873   6.756
78774SOL    HW138219  11.570  10.889   6.746
78774SOL    HW238220  11.437  10.960   6.759
78775SOL     OW38221   1.200   9.330  11.122
78775SOL    HW138222   1.154   9.252  11.091
78775SOL    HW238223   1.281   9.297  11.160
78776SOL     OW38224  14.095   8.939  13.604
78776SOL    HW138225  14.085   8.854  13.561
78776SOL    HW238226  14.037   8.934  13.680
78777SOL     OW38227  12.706  14.029  14.456
78777SOL    HW138228  12.685  13.936  14.441
78777SOL    HW238229  12.621  14.073  14.453
78778SOL     OW38230   0.613   3.292   5.062
78778SOL    HW138231   0.573   3.295   5.149
78778SOL    HW238232   0.585   3.209   5.025
78779SOL     OW38233   9.481   1.479  14.395
78779SOL    HW138234   9.565   1.434  14.395
78779SOL    HW238235   9.420   1.415  14.431
78780SOL     OW38236  10.386  14.613   1.211
78780SOL    HW138237  10.388  14.691   1.154
78780SOL    HW238238  10.464  14.564   1.187
78781SOL     OW38239   8.468   2.495   4.162
78781SOL    HW138240   8.542   2.548   4.190
78781SOL    HW238241   8.492   2.461   4.076
78782SOL     OW38242   7.975   5.922  13.816
78782SOL    HW138243   7.982   6.016  13.836
78782SOL    HW238244   8.064   5.889  13.826
78783SOL     OW38245  11.452   8.949   5.488
78783SOL    HW138246  11.531   8.970   5.539
78783SOL    HW238247  11.483   8.886   5.423
78784SOL     OW38248   6.044  11.665   9.066
78784SOL    HW138249   6.015  11.620   9.145
78784SOL    HW238250   5.985  11.633   8.997
78785SOL     OW38251   6.718   4.519  11.641
78785SOL    HW138252   6.798   4.472  11.619
78785SOL    HW238253   6.656   4.494  11.572
78786SOL     OW38254  12.807   2.902  13.824
78786SOL    HW138255  12.743   2.969  13.850
78786SOL    HW238256  12.759   2.820  13.827
78787SOL     OW38257  14.376   2.919  11.867
78787SOL    HW138258  14.420   2.978  11.806
78787SOL    HW238259  14.445   2.886  11.924
78788SOL     OW38260   6.240  13.453  12.091
78788SOL    HW138261   6.267  13.362  12.104
78788SOL    HW238262   6.146  13.452  12.109
78789SOL     OW38263   1.468  12.124   2.341
78789SOL    HW138264   1.508  12.153   2.259
78789SOL    HW238265   1.483  12.196   2.402
78790SOL     OW38266   8.550   5.345   1.363
78790SOL    HW138267   8.517   5.330   1.274
78790SOL    HW238268   8.583   5.435   1.361
78791SOL     OW38269   0.325   0.464   4.893
78791SOL    HW138270   0.292   0.515   4.819
78791SOL    HW238271   0.297   0.513   4.970
78792SOL     OW38272   1.789   7.467   9.115
78792SOL    HW138273   1.812   7.517   9.036
78792SOL    HW238274   1.702   7.499   9.139
78793SOL     OW38275  14.249   9.996  13.411
78793SOL    HW138276  14.299   9.921  13.443
78793SOL    HW238277  14.309  10.041  13.351
78794SOL     OW38278  10.225  12.150   9.819
78794SOL    HW138279  10.307  12.108   9.848
78794SOL    HW238280  10.254  12.224   9.766
78795SOL     OW38281   8.323   7.330  13.062
78795SOL    HW138282   8.404   7.356  13.106
78795SOL    HW238283   8.330   7.368  12.975
78796SOL     OW38284   1.792   1.432   4.387
78796SOL    HW138285   1.824   1.362   4.444
78796SOL    HW238286   1.867   1.490   4.374
78797SOL     OW38287  14.085   7.956  12.982
78797SOL    HW138288  14.107   8.023  13.047
78797SOL    HW238289  14.096   8.001  12.898
78798SOL     OW38290   2.464  11.230   7.692
78798SOL    HW138291   2.479  11.302   7.631
78798SOL    HW238292   2.448  11.273   7.776
78799SOL     OW38293   6.620   7.413   7.847
78799SOL    HW138294   6.612   7.471   7.772
78799SOL    HW238295   6.533   7.416   7.888
78800SOL     OW38296   1.179  13.281   2.698
78800SOL    HW138297   1.167  13.188   2.679
78800SOL    HW238298   1.274  13.295   2.691
78801SOL     OW38299  12.820   6.478  13.209
78801SOL    HW138300  12.778   6.402  13.169
78801SOL    HW238301  12.750   6.520  13.259
78802SOL     OW38302   2.427  14.271   2.866
78802SOL    HW138303   2.426  14.345   2.806
78802SOL    HW238304   2.430  14.310   2.953
78803SOL     OW38305  12.075  13.128  11.334
78803SOL    HW138306  12.036  13.163  11.253
78803SOL    HW238307  12.002  13.082  11.377
78804SOL     OW38308   5.753  14.012   6.558
78804SOL    HW138309   5.769  13.921   6.533
78804SOL    HW238310   5.818  14.062   6.510
78805SOL     OW38311   8.163  10.365   0.263
78805SOL    HW138312   8.116  10.287   0.292
78805SOL    HW238313   8.100  10.411   0.207
78806SOL     OW38314  11.011   9.371   2.712
78806SOL    HW138315  11.085   9.311   2.712
78806SOL    HW238316  11.032   9.435   2.644
78807SOL     OW38317  11.217  11.361   1.109
78807SOL    HW138318  11.284  11.429   1.106
78807SOL    HW238319  11.140  11.401   1.069
78808SOL     OW38320   8.559   3.631   8.435
78808SOL    HW138321   8.622   3.668   8.373
78808SOL    HW238322   8.517   3.707   8.475
78809SOL     OW38323  12.035   6.824   6.859
78809SOL    HW138324  12.104   6.823   6.925
78809SOL    HW238325  12.029   6.915   6.831
78810SOL     OW38326   5.196   0.514  13.364
78810SOL    HW138327   5.104   0.517  13.390
78810SOL    HW238328   5.212   0.421  13.348
78811SOL     OW38329   7.109   5.352   9.155
78811SOL    HW138330   7.123   5.404   9.235
78811SOL    HW238331   7.052   5.407   9.101
78812SOL     OW38332   5.511  11.017   6.473
78812SOL    HW138333   5.559  11.053   6.547
78812SOL    HW238334   5.491  10.927   6.499
78813SOL     OW38335   3.168  13.149  13.861
78813SOL    HW138336   3.229  13.202  13.913
78813SOL    HW238337   3.225  13.091  13.810
78814SOL     OW38338   6.036   8.307   0.246
78814SOL    HW138339   6.117   8.355   0.261
78814SOL    HW238340   6.002   8.343   0.164
78815SOL     OW38341   2.321  13.367  14.606
78815SOL    HW138342   2.298  13.441  14.551
78815SOL    HW238343   2.312  13.291  14.549
78816SOL     OW38344   0.786  11.591  11.554
78816SOL    HW138345   0.819  11.572  11.467
78816SOL    HW238346   0.771  11.505  11.594
78817SOL     OW38347   5.991  14.123   7.054
78817SOL    HW138348   5.998  14.105   7.148
78817SOL    HW238349   6.055  14.192   7.038
78818SOL     OW38350   2.645  10.191   2.280
78818SOL    HW138351   2.616  10.113   2.232
78818SOL    HW238352   2.590  10.193   2.359
78819SOL     OW38353  10.664  12.897   1.278
78819SOL    HW138354  10.618  12.914   1.360
78819SOL    HW238355  10.684  12.803   1.281
78820SOL     OW38356  13.335  12.873   5.881
78820SOL    HW138357  13.282  12.873   5.961
78820SOL    HW238358  13.281  12.825   5.818
78821SOL     OW38359   6.842   3.661   0.498
78821SOL    HW138360   6.851   3.571   0.468
78821SOL    HW238361   6.755   3.688   0.469
78822SOL     OW38362   2.634   4.271   6.599
78822SOL    HW138363   2.648   4.182   6.566
78822SOL    HW238364   2.656   4.265   6.692
78823SOL     OW38365   9.273  14.444  12.228
78823SOL    HW138366   9.224  14.512  12.183
78823SOL    HW238367   9.208  14.396  12.280
78824SOL     OW38368  14.085   2.860   8.109
78824SOL    HW138369  14.012   2.799   8.098
78824SOL    HW238370  14.163   2.804   8.103
78825SOL     OW38371  14.629  13.447  12.461
78825SOL    HW138372  14.656  13.460  12.551
78825SOL    HW238373  14.693  13.496  12.409
78826SOL     OW38374   9.536   4.324  13.058
78826SOL    HW138375   9.500   4.341  13.145
78826SOL    HW238376   9.553   4.411  13.022
78827SOL     OW38377  10.923   3.236  12.898
78827SOL    HW138378  11.000   3.181  12.909
78827SOL    HW238379  10.929   3.301  12.968
78828SOL     OW38380   6.908   0.571  11.089
78828SOL    HW138381   6.873   0.636  11.149
78828SOL    HW238382   6.982   0.532  11.135
78829SOL     OW38383   2.837   6.418   0.804
78829SOL    HW138384   2.886   6.393   0.883
78829SOL    HW238385   2.745   6.406   0.829
78830SOL     OW38386  11.900   8.097   4.802
78830SOL    HW138387  11.943   8.050   4.874
78830SOL    HW238388  11.896   8.188   4.832
78831SOL     OW38389   2.957  12.625   9.041
78831SOL    HW138390   2.901  12.579   9.103
78831SOL    HW238391   2.913  12.615   8.957
78832SOL     OW38392   2.073   7.721   5.570
78832SOL    HW138393   2.020   7.642   5.558
78832SOL    HW238394   2.065   7.768   5.487
78833SOL     OW38395   0.380  11.468  10.190
78833SOL    HW138396   0.357  11.378  10.168
78833SOL    HW238397   0.306  11.521  10.160
78834SOL     OW38398   6.487   1.459   0.241
78834SOL    HW138399   6.550   1.427   0.306
78834SOL    HW238400   6.417   1.394   0.242
78835SOL     OW38401  12.384   9.771  14.107
78835SOL    HW138402  12.383   9.854  14.155
78835SOL    HW238403  12.307   9.723  14.139
78836SOL     OW38404   8.453  14.420   0.187
78836SOL    HW138405   8.414  14.507   0.192
78836SOL    HW238406   8.451  14.388   0.277
78837SOL     OW38407   2.065  10.663  10.024
78837SOL    HW138408   2.117  10.685  10.101
78837SOL    HW238409   2.121  10.605   9.973
78838SOL     OW38410   3.533  14.704  10.637
78838SOL    HW138411   3.571  14.724  10.551
78838SOL    HW238412   3.605  14.667  10.687
78839SOL     OW38413  10.306   2.854   5.695
78839SOL    HW138414  10.338   2.806   5.618
78839SOL    HW238415  10.370   2.834   5.764
78840SOL     OW38416   5.716  10.866  12.602
78840SOL    HW138417   5.756  10.896  12.683
78840SOL    HW238418   5.783  10.879  12.535
78841SOL     OW38419   0.302   7.421  13.966
78841SOL    HW138420   0.344   7.475  14.033
78841SOL    HW238421   0.290   7.336  14.009
78842SOL     OW38422   3.763   2.809   1.273
78842SOL    HW138423   3.680   2.855   1.264
78842SOL    HW238424   3.816   2.842   1.200
78843SOL     OW38425   8.166   8.037   1.018
78843SOL    HW138426   8.083   8.038   1.066
78843SOL    HW238427   8.147   7.984   0.940
78844SOL     OW38428   3.775   1.287  10.341
78844SOL    HW138429   3.856   1.256  10.381
78844SOL    HW238430   3.728   1.207  10.318
78845SOL     OW38431  12.686   5.051   3.519
78845SOL    HW138432  12.753   5.064   3.586
78845SOL    HW238433  12.630   4.982   3.555
78846SOL     OW38434  14.359   8.724   6.725
78846SOL    HW138435  14.366   8.787   6.654
78846SOL    HW238436  14.416   8.652   6.699
78847SOL     OW38437  12.672   7.402  11.096
78847SOL    HW138438  12.607   7.354  11.045
78847SOL    HW238439  12.637   7.402  11.185
78848SOL     OW38440  13.317   4.113   7.654
78848SOL    HW138441  13.362   4.122   7.570
78848SOL    HW238442  13.358   4.037   7.695
78849SOL     OW38443   0.188   0.090   3.604
78849SOL    HW138444   0.180   0.018   3.667
78849SOL    HW238445   0.107   0.140   3.615
78850SOL     OW38446   2.739   4.412   9.322
78850SOL    HW138447   2.780   4.328   9.305
78850SOL    HW238448   2.724   4.413   9.417
78851SOL     OW38449   2.576   5.432   1.460
78851SOL    HW138450   2.487   5.406   1.436
78851SOL    HW238451   2.564   5.508   1.517
78852SOL     OW38452   5.637   2.715   6.134
78852SOL    HW138453   5.670   2.627   6.153
78852SOL    HW238454   5.671   2.735   6.047
78853SOL     OW38455   5.036  10.847  14.482
78853SOL    HW138456   5.002  10.777  14.538
78853SOL    HW238457   4.961  10.903  14.465
78854SOL     OW38458   8.442   4.577   1.320
78854SOL    HW138459   8.533   4.578   1.292
78854SOL    HW238460   8.392   4.589   1.239
78855SOL     OW38461  10.993  11.587   7.295
78855SOL    HW138462  10.984  11.573   7.201
78855SOL    HW238463  11.029  11.505   7.329
78856SOL     OW38464  14.449   3.330   5.359
78856SOL    HW138465  14.509   3.282   5.416
78856SOL    HW238466  14.369   3.278   5.360
78857SOL     OW38467   6.488   4.409   3.873
78857SOL    HW138468   6.536   4.347   3.927
78857SOL    HW238469   6.436   4.459   3.935
78858SOL     OW38470   3.489   0.043   8.929
78858SOL    HW138471   3.439   0.120   8.958
78858SOL    HW238472   3.567   0.043   8.985
78859SOL     OW38473   2.461  14.844   7.486
78859SOL    HW138474   2.427  14.875   7.402
78859SOL    HW238475   2.556  14.840   7.473
78860SOL     OW38476  12.176  10.606   4.453
78860SOL    HW138477  12.117  10.531   4.463
78860SOL    HW238478  12.134  10.676   4.503
78861SOL     OW38479  10.153  14.848   8.443
78861SOL    HW138480  10.231   0.013   8.407
78861SOL    HW238481  10.092  14.846   8.369
78862SOL     OW38482   9.079   0.847   6.292
78862SOL    HW138483   9.071   0.789   6.216
78862SOL    HW238484   8.992   0.885   6.302
78863SOL     OW38485  12.459   2.756  10.273
78863SOL    HW138486  12.458   2.851  10.265
78863SOL    HW238487  12.545   2.736  10.310
78864SOL     OW38488   0.332   0.972   7.402
78864SOL    HW138489   0.263   0.925   7.355
78864SOL    HW238490   0.369   1.032   7.338
78865SOL     OW38491   1.583   3.434  12.539
78865SOL    HW138492   1.497   3.437  12.582
78865SOL    HW238493   1.568   3.381  12.461
78866SOL     OW38494  11.443   9.069   0.468
78866SOL    HW138495  11.354   9.051   0.500
78866SOL    HW238496  11.492   8.990   0.488
78867SOL     OW38497  12.086   2.474  10.557
78867SOL    HW138498  12.021   2.543  10.543
78867SOL    HW238499  12.050   2.423  10.630
78868SOL     OW38500   0.570  11.616  13.341
78868SOL    HW138501   0.638  11.610  13.407
78868SOL    HW238502   0.489  11.627  13.390
78869SOL     OW38503   5.913   5.396   7.398
78869SOL    HW138504   5.902   5.342   7.320
78869SOL    HW238505   5.948   5.479   7.366
78870SOL     OW38506   5.184   4.906  11.337
78870SOL    HW138507   5.128   4.893  11.414
78870SOL    HW238508   5.252   4.967  11.367
78871SOL     OW38509  11.566   9.311   8.131
78871SOL    HW138510  11.630   9.256   8.086
78871SOL    HW238511  11.613   9.345   8.207
78872SOL     OW38512   1.161   3.802   6.698
78872SOL    HW138513   1.175   3.708   6.683
78872SOL    HW238514   1.092   3.806   6.764
78873SOL     OW38515   2.211   8.976   5.088
78873SOL    HW138516   2.139   9.010   5.142
78873SOL    HW238517   2.172   8.967   5.001
78874SOL     OW38518   8.339   3.753   2.886
78874SOL    HW138519   8.366   3.682   2.944
78874SOL    HW238520   8.420   3.792   2.855
78875SOL     OW38521  14.518   6.991   9.100
78875SOL    HW138522  14.580   7.049   9.056
78875SOL    HW238523  14.432   7.025   9.075
78876SOL     OW38524   6.102   5.035   5.214
78876SOL    HW138525   6.092   4.941   5.223
78876SOL    HW238526   6.190   5.054   5.247
78877SOL     OW38527   4.025   5.091   5.371
78877SOL    HW138528   4.034   5.157   5.303
78877SOL    HW238529   3.994   5.140   5.448
78878SOL     OW38530   6.264   8.133   7.678
78878SOL    HW138531   6.259   8.140   7.773
78878SOL    HW238532   6.205   8.060   7.657
78879SOL     OW38533   7.773   9.614  10.544
78879SOL    HW138534   7.776   9.520  10.563
78879SOL    HW238535   7.860   9.634  10.509
78880SOL     OW38536  13.412   4.409   1.602
78880SOL    HW138537  13.406   4.473   1.673
78880SOL    HW238538  13.324   4.407   1.563
78881SOL     OW38539   9.875  10.630  10.661
78881SOL    HW138540   9.830  10.656  10.581
78881SOL    HW238541   9.878  10.710  10.714
78882SOL     OW38542  12.894  12.477  12.581
78882SOL    HW138543  12.956  12.523  12.525
78882SOL    HW238544  12.904  12.518  12.667
78883SOL     OW38545   3.935   1.745  13.908
78883SOL    HW138546   3.924   1.684  13.981
78883SOL    HW238547   4.010   1.712  13.860
78884SOL     OW38548   8.197   3.771   6.476
78884SOL    HW138549   8.262   3.838   6.455
78884SOL    HW238550   8.114   3.818   6.482
78885SOL     OW38551   4.892   6.884   5.512
78885SOL    HW138552   4.956   6.816   5.532
78885SOL    HW238553   4.945   6.957   5.480
78886SOL     OW38554   7.625   1.456   0.573
78886SOL    HW138555   7.700   1.398   0.586
78886SOL    HW238556   7.555   1.415   0.625
78887SOL     OW38557   4.652   9.528   1.768
78887SOL    HW138558   4.580   9.590   1.782
78887SOL    HW238559   4.658   9.519   1.673
78888SOL     OW38560   2.268  12.340   4.833
78888SOL    HW138561   2.249  12.260   4.882
78888SOL    HW238562   2.357  12.364   4.859
78889SOL     OW38563   5.605   9.179  12.532
78889SOL    HW138564   5.560   9.152  12.612
78889SOL    HW238565   5.567   9.264  12.511
78890SOL     OW38566   0.321  13.163   5.434
78890SOL    HW138567   0.339  13.163   5.528
78890SOL    HW238568   0.238  13.116   5.426
78891SOL     OW38569   3.514   2.882   1.207
78891SOL    HW138570   3.489   2.972   1.187
78891SOL    HW238571   3.496   2.834   1.126
78892SOL     OW38572  13.972   6.511   2.020
78892SOL    HW138573  14.042   6.576   2.011
78892SOL    HW238574  13.988   6.448   1.950
78893SOL     OW38575   3.598   0.484  12.144
78893SOL    HW138576   3.545   0.547  12.095
78893SOL    HW238577   3.659   0.448  12.080
78894SOL     OW38578   9.809   9.924   0.713
78894SOL    HW138579   9.835   9.838   0.746
78894SOL    HW238580   9.878   9.948   0.651
78895SOL     OW38581   5.896  10.163   5.435
78895SOL    HW138582   5.867  10.211   5.358
78895SOL    HW238583   5.816  10.125   5.471
78896SOL     OW38584  13.341  14.555   9.868
78896SOL    HW138585  13.405  14.495   9.829
78896SOL    HW238586  13.301  14.505   9.939
78897SOL     OW38587   4.924   8.348   3.055
78897SOL    HW138588   4.900   8.367   3.146
78897SOL    HW238589   4.848   8.302   3.020
78898SOL     OW38590  11.118   9.665   2.284
78898SOL    HW138591  11.143   9.584   2.239
78898SOL    HW238592  11.185   9.728   2.259
78899SOL     OW38593   9.018  13.545   8.771
78899SOL    HW138594   9.091  13.488   8.749
78899SOL    HW238595   9.059  13.621   8.812
78900SOL     OW38596   8.824   8.423   4.997
78900SOL    HW138597   8.825   8.449   5.090
78900SOL    HW238598   8.880   8.488   4.954
78901SOL     OW38599  12.000  13.728  10.466
78901SOL    HW138600  11.945  13.802  10.439
78901SOL    HW238601  11.950  13.685  10.535
78902SOL     OW38602   3.378   6.480   1.806
78902SOL    HW138603   3.358   6.411   1.742
78902SOL    HW238604   3.328   6.555   1.777
78903SOL     OW38605   4.300   5.999   9.016
78903SOL    HW138606   4.349   5.941   9.075
78903SOL    HW238607   4.333   6.087   9.035
78904SOL     OW38608  11.684   8.456   7.125
78904SOL    HW138609  11.707   8.514   7.053
78904SOL    HW238610  11.599   8.489   7.156
78905SOL     OW38611   8.054  13.462   7.208
78905SOL    HW138612   7.973  13.510   7.192
78905SOL    HW238613   8.060  13.400   7.135
78906SOL     OW38614   6.140   9.024   5.344
78906SOL    HW138615   6.142   8.929   5.332
78906SOL    HW238616   6.051   9.044   5.372
78907SOL     OW38617  13.288   7.927  14.536
78907SOL    HW138618  13.373   7.896  14.505
78907SOL    HW238619  13.293   7.921  14.631
78908SOL     OW38620  10.510   4.478  10.193
78908SOL    HW138621  10.467   4.493  10.109
78908SOL    HW238622  10.446   4.505  10.259
78909SOL     OW38623  10.881   6.924  13.900
78909SOL    HW138624  10.830   6.988  13.851
78909SOL    HW238625  10.970   6.959  13.898
78910SOL     OW38626   1.548   4.888  13.671
78910SOL    HW138627   1.520   4.941  13.597
78910SOL    HW238628   1.470   4.883  13.727
78911SOL     OW38629   5.583   3.003  12.168
78911SOL    HW138630   5.671   3.034  12.188
78911SOL    HW238631   5.551   2.966  12.250
78912SOL     OW38632   1.770   9.147   4.197
78912SOL    HW138633   1.820   9.068   4.216
78912SOL    HW238634   1.751   9.184   4.283
78913SOL     OW38635   1.214   0.361  11.051
78913SOL    HW138636   1.137   0.410  11.023
78913SOL    HW238637   1.287   0.420  11.030
78914SOL     OW38638   7.568   5.780  14.585
78914SOL    HW138639   7.622   5.726  14.528
78914SOL    HW238640   7.579   5.869  14.551
78915SOL     OW38641  11.746   3.432   9.002
78915SOL    HW138642  11.799   3.468   8.931
78915SOL    HW238643  11.728   3.342   8.976
78916SOL     OW38644  12.481  11.102  14.745
78916SOL    HW138645  12.425  11.166  14.700
78916SOL    HW238646  12.421  11.052  14.800
78917SOL     OW38647   5.152  12.694   1.722
78917SOL    HW138648   5.155  12.666   1.813
78917SOL    HW238649   5.094  12.631   1.679
78918SOL     OW38650  10.915   4.036   2.419
78918SOL    HW138651  10.842   3.994   2.465
78918SOL    HW238652  10.879   4.059   2.333
78919SOL     OW38653  11.953  12.022   0.464
78919SOL    HW138654  12.024  12.063   0.416
78919SOL    HW238655  11.967  12.048   0.555
78920SOL     OW38656   4.916   0.006  10.302
78920SOL    HW138657   4.904   0.016  10.208
78920SOL    HW238658   4.829  14.860  10.335
78921SOL     OW38659   5.018  10.906   6.808
78921SOL    HW138660   4.987  10.960   6.880
78921SOL    HW238661   4.966  10.826   6.814
78922SOL     OW38662   6.596   8.067   5.225
78922SOL    HW138663   6.684   8.069   5.263
78922SOL    HW238664   6.539   8.038   5.297
78923SOL     OW38665   1.268  10.417   1.800
78923SOL    HW138666   1.225  10.495   1.765
78923SOL    HW238667   1.288  10.439   1.891
78924SOL     OW38668   2.957   9.340  12.926
78924SOL    HW138669   2.892   9.384  12.870
78924SOL    HW238670   3.032   9.400  12.926
78925SOL     OW38671  12.431   1.540  10.533
78925SOL    HW138672  12.352   1.559  10.582
78925SOL    HW238673  12.460   1.455  10.566
78926SOL     OW38674   0.961   6.852  12.963
78926SOL    HW138675   1.045   6.867  13.005
78926SOL    HW238676   0.903   6.919  12.998
78927SOL     OW38677   0.564   9.181   5.426
78927SOL    HW138678   0.531   9.091   5.422
78927SOL    HW238679   0.513   9.229   5.361
78928SOL     OW38680   8.064  12.981   6.618
78928SOL    HW138681   8.126  12.939   6.677
78928SOL    HW238682   7.994  12.918   6.606
78929SOL     OW38683   0.805   3.736   3.672
78929SOL    HW138684   0.892   3.775   3.682
78929SOL    HW238685   0.763   3.747   3.757
78930SOL     OW38686   7.449  12.409   3.448
78930SOL    HW138687   7.410  12.343   3.505
78930SOL    HW238688   7.478  12.478   3.507
78931SOL     OW38689  11.692   5.265  10.011
78931SOL    HW138690  11.748   5.195  10.044
78931SOL    HW238691  11.633   5.221   9.949
78932SOL     OW38692  12.740  11.035   9.512
78932SOL    HW138693  12.757  11.078   9.595
78932SOL    HW238694  12.671  11.088   9.471
78933SOL     OW38695   0.421   1.284  11.144
78933SOL    HW138696   0.435   1.292  11.238
78933SOL    HW238697   0.359   1.354  11.123
78934SOL     OW38698  12.787   4.014   5.305
78934SOL    HW138699  12.775   3.919   5.305
78934SOL    HW238700  12.699   4.050   5.309
78935SOL     OW38701  11.395   6.257  12.520
78935SOL    HW138702  11.323   6.316  12.541
78935SOL    HW238703  11.354   6.172  12.508
78936SOL     OW38704  10.430   8.112  13.954
78936SOL    HW138705  10.399   8.182  14.010
78936SOL    HW238706  10.490   8.155  13.893
78937SOL     OW38707  11.529   2.919   4.064
78937SOL    HW138708  11.446   2.920   4.015
78937SOL    HW238709  11.518   2.987   4.131
78938SOL     OW38710   9.903   3.132  14.160
78938SOL    HW138711   9.903   3.119  14.255
78938SOL    HW238712   9.986   3.094  14.130
78939SOL     OW38713  10.105  12.498  11.599
78939SOL    HW138714  10.093  12.585  11.637
78939SOL    HW238715  10.034  12.445  11.636
78940SOL     OW38716  10.687   2.097   7.854
78940SOL    HW138717  10.765   2.149   7.871
78940SOL    HW238718  10.624   2.159   7.818
78941SOL     OW38719   0.395  10.134   8.232
78941SOL    HW138720   0.390  10.217   8.279
78941SOL    HW238721   0.408  10.158   8.141
78942SOL     OW38722   4.978   4.437  11.282
78942SOL    HW138723   5.022   4.522  11.287
78942SOL    HW238724   4.952   4.417  11.372
78943SOL     OW38725   3.230   0.295   8.612
78943SOL    HW138726   3.147   0.304   8.565
78943SOL    HW238727   3.223   0.357   8.685
78944SOL     OW38728   6.869   3.837  12.795
78944SOL    HW138729   6.856   3.900  12.724
78944SOL    HW238730   6.912   3.762  12.754
78945SOL     OW38731  11.041   8.488  14.765
78945SOL    HW138732  10.953   8.453  14.780
78945SOL    HW238733  11.035   8.580  14.789
78946SOL     OW38734   8.860   7.124   7.913
78946SOL    HW138735   8.929   7.190   7.902
78946SOL    HW238736   8.780   7.174   7.922
78947SOL     OW38737   7.084   8.911   3.004
78947SOL    HW138738   7.125   8.942   2.924
78947SOL    HW238739   7.004   8.962   3.012
78948SOL     OW38740   2.255  14.751   9.008
78948SOL    HW138741   2.350  14.755   9.022
78948SOL    HW238742   2.220  14.713   9.088
78949SOL     OW38743   9.079   7.283  14.064
78949SOL    HW138744   9.161   7.261  14.109
78949SOL    HW238745   9.027   7.203  14.068
78950SOL     OW38746   5.297   3.144   4.119
78950SOL    HW138747   5.226   3.205   4.101
78950SOL    HW238748   5.362   3.196   4.166
78951SOL     OW38749   2.315   9.166  13.546
78951SOL    HW138750   2.231   9.120  13.552
78951SOL    HW238751   2.292   9.255  13.520
78952SOL     OW38752   0.221   0.890  14.407
78952SOL    HW138753   0.232   0.886  14.312
78952SOL    HW238754   0.311   0.882  14.441
78953SOL     OW38755   0.572   7.912   3.167
78953SOL    HW138756   0.604   7.829   3.132
78953SOL    HW238757   0.638   7.938   3.231
78954SOL     OW38758  14.858  10.888   1.467
78954SOL    HW138759   0.068  10.885   1.504
78954SOL    HW238760  14.801  10.856   1.537
78955SOL     OW38761  13.465   0.482  14.399
78955SOL    HW138762  13.515   0.439  14.330
78955SOL    HW238763  13.474   0.425  14.475
78956SOL     OW38764   4.725   8.056   7.067
78956SOL    HW138765   4.768   8.070   7.151
78956SOL    HW238766   4.652   8.118   7.067
78957SOL     OW38767  11.767   9.066   0.791
78957SOL    HW138768  11.815   9.073   0.873
78957SOL    HW238769  11.749   9.157   0.766
78958SOL     OW38770  10.897   8.527  13.911
78958SOL    HW138771  10.976   8.572  13.940
78958SOL    HW238772  10.928   8.446  13.871
78959SOL     OW38773  11.808   8.040   4.324
78959SOL    HW138774  11.865   7.970   4.355
78959SOL    HW238775  11.858   8.120   4.338
78960SOL     OW38776   0.921   4.223   6.343
78960SOL    HW138777   0.886   4.285   6.279
78960SOL    HW238778   0.852   4.157   6.352
78961SOL     OW38779   6.943   4.463   7.930
78961SOL    HW138780   6.946   4.373   7.897
78961SOL    HW238781   7.032   4.481   7.959
78962SOL     OW38782  13.365   3.385  13.709
78962SOL    HW138783  13.330   3.314  13.655
78962SOL    HW238784  13.399   3.449  13.647
78963SOL     OW38785  10.613  10.805  13.202
78963SOL    HW138786  10.705  10.796  13.179
78963SOL    HW238787  10.606  10.772  13.292
78964SOL     OW38788  10.153   1.451  14.436
78964SOL    HW138789  10.151   1.355  14.438
78964SOL    HW238790  10.185   1.472  14.348
78965SOL     OW38791   6.142   3.281  14.294
78965SOL    HW138792   6.139   3.372  14.264
78965SOL    HW238793   6.124   3.229  14.215
78966SOL     OW38794   6.827   3.057   4.142
78966SOL    HW138795   6.762   3.070   4.073
78966SOL    HW238796   6.911   3.068   4.098
78967SOL     OW38797  10.567  12.607   1.931
78967SOL    HW138798  10.555  12.636   1.841
78967SOL    HW238799  10.641  12.547   1.927
78968SOL     OW38800  14.313   9.999   3.751
78968SOL    HW138801  14.343  10.089   3.767
78968SOL    HW238802  14.393   9.947   3.751
78969SOL     OW38803   4.651   5.617  14.263
78969SOL    HW138804   4.572   5.637  14.212
78969SOL    HW238805   4.723   5.626  14.200
78970SOL     OW38806   2.953   0.649   1.656
78970SOL    HW138807   2.978   0.566   1.617
78970SOL    HW238808   2.958   0.712   1.584
78971SOL     OW38809   1.465   3.399   6.927
78971SOL    HW138810   1.409   3.426   7.000
78971SOL    HW238811   1.498   3.313   6.953
78972SOL     OW38812  14.663  10.731   3.737
78972SOL    HW138813  14.591  10.744   3.675
78972SOL    HW238814  14.692  10.642   3.721
78973SOL     OW38815  14.718   1.414  11.274
78973SOL    HW138816  14.676   1.332  11.300
78973SOL    HW238817  14.732   1.404  11.180
78974SOL     OW38818   2.730  13.763   4.788
78974SOL    HW138819   2.668  13.831   4.815
78974SOL    HW238820   2.745  13.711   4.867
78975SOL     OW38821   7.647  10.519  14.561
78975SOL    HW138822   7.708  10.591  14.576
78975SOL    HW238823   7.571  10.539  14.615
78976SOL     OW38824  13.812  12.227   9.486
78976SOL    HW138825  13.846  12.260   9.569
78976SOL    HW238826  13.856  12.143   9.474
78977SOL     OW38827   4.407  13.930  12.988
78977SOL    HW138828   4.483  13.930  13.046
78977SOL    HW238829   4.440  13.900  12.904
78978SOL     OW38830   8.185   7.367   5.964
78978SOL    HW138831   8.101   7.357   5.918
78978SOL    HW238832   8.251   7.347   5.897
78979SOL     OW38833   2.131   6.462   2.249
78979SOL    HW138834   2.063   6.486   2.185
78979SOL    HW238835   2.083   6.453   2.331
78980SOL     OW38836  10.522   6.139   2.252
78980SOL    HW138837  10.458   6.080   2.292
78980SOL    HW238838  10.469   6.205   2.207
78981SOL     OW38839  12.435   4.391   3.945
78981SOL    HW138840  12.498   4.365   4.012
78981SOL    HW238841  12.353   4.402   3.994
78982SOL     OW38842  10.568   1.315  12.516
78982SOL    HW138843  10.591   1.231  12.474
78982SOL    HW238844  10.490   1.295  12.567
78983SOL     OW38845   6.091   9.473  13.009
78983SOL    HW138846   6.147   9.443  12.937
78983SOL    HW238847   6.063   9.561  12.982
78984SOL     OW38848   6.078   6.507  14.409
78984SOL    HW138849   6.040   6.420  14.408
78984SOL    HW238850   6.008   6.564  14.376
78985SOL     OW38851   3.796   8.347  11.271
78985SOL    HW138852   3.833   8.361  11.358
78985SOL    HW238853   3.764   8.257  11.273
78986SOL     OW38854   6.310  14.048   5.571
78986SOL    HW138855   6.347  14.092   5.647
78986SOL    HW238856   6.232  14.003   5.604
78987SOL     OW38857  10.761   7.660   4.563
78987SOL    HW138858  10.755   7.710   4.481
78987SOL    HW238859  10.734   7.721   4.631
78988SOL     OW38860   6.378   1.967   7.885
78988SOL    HW138861   6.326   1.943   7.808
78988SOL    HW238862   6.431   1.890   7.903
78989SOL     OW38863   9.680  10.342  13.302
78989SOL    HW138864   9.760  10.293  13.323
78989SOL    HW238865   9.609  10.283  13.325
78990SOL     OW38866   1.739   3.808  14.856
78990SOL    HW138867   1.697   3.727   0.007
78990SOL    HW238868   1.711   3.873   0.044
78991SOL     OW38869  12.115   8.920   1.372
78991SOL    HW138870  12.164   8.911   1.454
78991SOL    HW238871  12.106   9.015   1.361
78992SOL     OW38872   9.043   3.825   9.976
78992SOL    HW138873   9.083   3.770   9.908
78992SOL    HW238874   9.108   3.894   9.991
78993SOL     OW38875   9.748   4.907  12.639
78993SOL    HW138876   9.680   4.894  12.573
78993SOL    HW238877   9.706   4.887  12.722
78994SOL     OW38878   0.066   7.307  11.816
78994SOL    HW138879   0.008   7.367  11.770
78994SOL    HW238880   0.011   7.231  11.836
78995SOL     OW38881   7.123   7.422  13.844
78995SOL    HW138882   7.135   7.391  13.934
78995SOL    HW238883   7.199   7.477  13.828
78996SOL     OW38884   5.272   3.329  10.965
78996SOL    HW138885   5.347   3.371  11.005
78996SOL    HW238886   5.240   3.393  10.901
78997SOL     OW38887  11.251   3.126   0.302
78997SOL    HW138888  11.214   3.196   0.249
78997SOL    HW238889  11.329   3.165   0.342
78998SOL     OW38890  10.112  12.528   7.038
78998SOL    HW138891  10.051  12.469   6.994
78998SOL    HW238892  10.058  12.601   7.067
78999SOL     OW38893   9.763   6.594   7.386
78999SOL    HW138894   9.821   6.669   7.374
78999SOL    HW238895   9.690   6.610   7.326
79000SOL     OW38896   4.634  12.286   6.732
79000SOL    HW138897   4.692  12.310   6.659
79000SOL    HW238898   4.546  12.306   6.700
79001SOL     OW38899   4.093  12.696   3.010
79001SOL    HW138900   4.164  12.677   2.948
79001SOL    HW238901   4.116  12.648   3.089
79002SOL     OW38902   7.370   7.230   6.716
79002SOL    HW138903   7.351   7.237   6.623
79002SOL    HW238904   7.357   7.319   6.750
79003SOL     OW38905   1.602   1.955   6.001
79003SOL    HW138906   1.617   2.047   6.025
79003SOL    HW238907   1.662   1.939   5.928
79004SOL     OW38908   5.728  14.249   4.917
79004SOL    HW138909   5.640  14.212   4.915
79004SOL    HW238910   5.777  14.193   4.976
79005SOL     OW38911  11.749  13.019  11.140
79005SOL    HW138912  11.664  12.993  11.174
79005SOL    HW238913  11.812  12.969  11.192
79006SOL     OW38914   7.341   0.560   6.525
79006SOL    HW138915   7.322   0.611   6.604
79006SOL    HW238916   7.429   0.526   6.539
79007SOL     OW38917   0.818   3.445   7.626
79007SOL    HW138918   0.771   3.514   7.580
79007SOL    HW238919   0.863   3.396   7.557
79008SOL     OW38920   1.944   0.653  14.740
79008SOL    HW138921   1.868   0.597  14.730
79008SOL    HW238922   1.932   0.722  14.675
79009SOL     OW38923  10.143  13.602   4.524
79009SOL    HW138924  10.058  13.644   4.533
79009SOL    HW238925  10.133  13.517   4.568
79010SOL     OW38926   6.753   6.578  14.372
79010SOL    HW138927   6.789   6.667  14.377
79010SOL    HW238928   6.677   6.586  14.314
79011SOL     OW38929   4.118  13.279   0.021
79011SOL    HW138930   4.052  13.211   0.009
79011SOL    HW238931   4.068  13.359   0.035
79012SOL     OW38932   2.570  10.482   2.354
79012SOL    HW138933   2.599  10.425   2.282
79012SOL    HW238934   2.535  10.421   2.420
79013SOL     OW38935   2.560  10.232  11.867
79013SOL    HW138936   2.557  10.325  11.847
79013SOL    HW238937   2.554  10.188  11.782
79014SOL     OW38938   4.643   7.850   9.802
79014SOL    HW138939   4.659   7.942   9.781
79014SOL    HW238940   4.589   7.852   9.880
79015SOL     OW38941   6.194   5.260  11.513
79015SOL    HW138942   6.216   5.352  11.504
79015SOL    HW238943   6.169   5.232  11.425
79016SOL     OW38944  11.434  14.726   3.590
79016SOL    HW138945  11.377  14.706   3.665
79016SOL    HW238946  11.487  14.800   3.619
79017SOL     OW38947   6.243   1.518   3.975
79017SOL    HW138948   6.255   1.424   3.961
79017SOL    HW238949   6.281   1.535   4.061
79018SOL     OW38950  10.927  13.157   2.972
79018SOL    HW138951  10.981  13.108   2.910
79018SOL    HW238952  10.891  13.091   3.030
79019SOL     OW38953   9.984   0.231   4.190
79019SOL    HW138954  10.035   0.259   4.266
79019SOL    HW238955   9.912   0.179   4.227
79020SOL     OW38956  12.040  11.488   2.584
79020SOL    HW138957  11.969  11.504   2.646
79020SOL    HW238958  12.119  11.484   2.638
79021SOL     OW38959   5.467   7.205   1.486
79021SOL    HW138960   5.450   7.286   1.534
79021SOL    HW238961   5.391   7.150   1.504
79022SOL     OW38962   1.661   5.816   1.172
79022SOL    HW138963   1.632   5.901   1.205
79022SOL    HW238964   1.627   5.812   1.083
79023SOL     OW38965   0.972  10.168   6.869
79023SOL    HW138966   1.045  10.129   6.820
79023SOL    HW238967   0.936  10.096   6.921
79024SOL     OW38968   7.159  12.658   3.483
79024SOL    HW138969   7.148  12.682   3.575
79024SOL    HW238970   7.163  12.562   3.483
79025SOL     OW38971  14.469  12.382   1.542
79025SOL    HW138972  14.384  12.350   1.571
79025SOL    HW238973  14.483  12.339   1.458
79026SOL     OW38974   0.367  12.442   6.057
79026SOL    HW138975   0.398  12.471   5.971
79026SOL    HW238976   0.272  12.436   6.047
79027SOL     OW38977   0.156   9.299   4.629
79027SOL    HW138978   0.111   9.217   4.648
79027SOL    HW238979   0.146   9.312   4.535
79028SOL     OW38980  13.923  12.088   5.051
79028SOL    HW138981  13.885  12.099   5.138
79028SOL    HW238982  13.978  12.010   5.059
79029SOL     OW38983   5.433  13.012   5.955
79029SOL    HW138984   5.455  13.080   5.891
79029SOL    HW238985   5.357  13.047   6.002
79030SOL     OW38986   5.129   5.941   6.987
79030SOL    HW138987   5.163   6.003   7.052
79030SOL    HW238988   5.207   5.900   6.949
79031SOL     OW38989   4.519  10.086   6.088
79031SOL    HW138990   4.565  10.067   6.169
79031SOL    HW238991   4.461  10.159   6.110
79032SOL     OW38992   6.710   7.173   3.506
79032SOL    HW138993   6.693   7.209   3.419
79032SOL    HW238994   6.760   7.093   3.489
79033SOL     OW38995   9.276   6.206   7.906
79033SOL    HW138996   9.288   6.158   7.987
79033SOL    HW238997   9.365   6.231   7.879
79034SOL     OW38998   1.115   9.102   9.626
79034SOL    HW138999   1.078   9.102   9.714
79034SOL    HW239000   1.067   9.171   9.580
79035SOL     OW39001  10.327   3.883  13.890
79035SOL    HW139002  10.362   3.867  13.803
79035SOL    HW239003  10.295   3.973  13.886
79036SOL     OW39004   9.752   2.851   6.993
79036SOL    HW139005   9.695   2.852   6.916
79036SOL    HW239006   9.829   2.802   6.965
79037SOL     OW39007   3.718   8.999  12.527
79037SOL    HW139008   3.799   9.047  12.545
79037SOL    HW239009   3.668   9.056  12.468
79038SOL     OW39010   0.562   0.174   5.988
79038SOL    HW139011   0.646   0.147   5.951
79038SOL    HW239012   0.561   0.269   5.978
79039SOL     OW39013   2.483   7.303   3.453
79039SOL    HW139014   2.523   7.220   3.478
79039SOL    HW239015   2.528   7.329   3.373
79040SOL     OW39016   7.406  10.032   6.867
79040SOL    HW139017   7.326  10.051   6.915
79040SOL    HW239018   7.394  10.074   6.782
79041SOL     OW39019   0.297   6.348  12.268
79041SOL    HW139020   0.282   6.393  12.184
79041SOL    HW239021   0.252   6.402  12.332
79042SOL     OW39022   5.593   9.687  10.310
79042SOL    HW139023   5.621   9.644  10.392
79042SOL    HW239024   5.590   9.616  10.246
79043SOL     OW39025   7.650  14.446   6.985
79043SOL    HW139026   7.573  14.503   6.975
79043SOL    HW239027   7.616  14.369   7.032
79044SOL     OW39028   6.053  14.389   7.718
79044SOL    HW139029   6.069  14.333   7.794
79044SOL    HW239030   6.140  14.416   7.689
79045SOL     OW39031  12.832   5.320   5.937
79045SOL    HW139032  12.807   5.384   5.870
79045SOL    HW239033  12.827   5.236   5.892
79046SOL     OW39034  10.104   5.797   7.058
79046SOL    HW139035  10.020   5.806   7.014
79046SOL    HW239036  10.167   5.836   6.997
79047SOL     OW39037   0.514   0.809   4.246
79047SOL    HW139038   0.586   0.774   4.298
79047SOL    HW239039   0.495   0.742   4.181
79048SOL     OW39040   1.941  14.205  14.161
79048SOL    HW139041   1.972  14.114  14.159
79048SOL    HW239042   2.001  14.249  14.222
79049SOL     OW39043   0.176   0.952   4.988
79049SOL    HW139044   0.207   0.918   5.073
79049SOL    HW239045   0.117   0.884   4.956
79050SOL     OW39046  12.710  12.810   3.180
79050SOL    HW139047  12.759  12.760   3.245
79050SOL    HW239048  12.620  12.779   3.189
79051SOL     OW39049   0.813  13.406  11.023
79051SOL    HW139050   0.856  13.379  11.104
79051SOL    HW239051   0.847  13.494  11.007
79052SOL     OW39052  12.236   8.170   7.001
79052SOL    HW139053  12.184   8.245   7.031
79052SOL    HW239054  12.255   8.121   7.081
79053SOL     OW39055  12.645   7.112   9.613
79053SOL    HW139056  12.623   7.057   9.687
79053SOL    HW239057  12.632   7.056   9.536
79054SOL     OW39058  11.246   0.219  14.267
79054SOL    HW139059  11.193   0.146  14.297
79054SOL    HW239060  11.183   0.281  14.229
79055SOL     OW39061   6.529   3.265   4.343
79055SOL    HW139062   6.461   3.299   4.402
79055SOL    HW239063   6.504   3.296   4.257
79056SOL     OW39064   8.820  14.244   0.493
79056SOL    HW139065   8.853  14.322   0.538
79056SOL    HW239066   8.890  14.179   0.506
79057SOL     OW39067  13.133   1.437   7.777
79057SOL    HW139068  13.148   1.443   7.871
79057SOL    HW239069  13.077   1.360   7.767
79058SOL     OW39070   1.998   3.049  12.162
79058SOL    HW139071   2.085   3.041  12.202
79058SOL    HW239072   2.015   3.047  12.067
79059SOL     OW39073  13.127   1.421  10.647
79059SOL    HW139074  13.139   1.342  10.700
79059SOL    HW239075  13.195   1.481  10.677
79060SOL     OW39076   3.632   6.930   2.412
79060SOL    HW139077   3.550   6.923   2.461
79060SOL    HW239078   3.686   6.859   2.445
79061SOL     OW39079  13.022   3.993   7.983
79061SOL    HW139080  13.092   3.981   8.047
79061SOL    HW239081  12.981   4.076   8.008
79062SOL     OW39082   6.016   6.288   1.936
79062SOL    HW139083   5.972   6.234   1.871
79062SOL    HW239084   6.105   6.253   1.940
79063SOL     OW39085   8.858  10.117   4.293
79063SOL    HW139086   8.827  10.061   4.221
79063SOL    HW239087   8.827  10.205   4.270
79064SOL     OW39088   3.583  11.532   3.445
79064SOL    HW139089   3.538  11.479   3.380
79064SOL    HW239090   3.545  11.505   3.528
79065SOL     OW39091   6.494   7.494   0.516
79065SOL    HW139092   6.413   7.453   0.549
79065SOL    HW239093   6.488   7.484   0.421
79066SOL     OW39094  13.084   8.198  10.837
79066SOL    HW139095  13.002   8.198  10.885
79066SOL    HW239096  13.132   8.273  10.871
79067SOL     OW39097   2.492   6.261  10.068
79067SOL    HW139098   2.529   6.309  10.141
79067SOL    HW239099   2.408   6.228  10.101
79068SOL     OW39100  13.152  12.550  13.329
79068SOL    HW139101  13.131  12.632  13.375
79068SOL    HW239102  13.165  12.486  13.399
79069SOL     OW39103   9.028  14.868   4.210
79069SOL    HW139104   9.014   0.017   4.119
79069SOL    HW239105   8.988   0.060   4.262
79070SOL     OW39106   2.693   4.566  13.181
79070SOL    HW139107   2.644   4.510  13.242
79070SOL    HW239108   2.645   4.559  13.098
79071SOL     OW39109   9.680  11.422  12.279
79071SOL    HW139110   9.739  11.398  12.350
79071SOL    HW239111   9.734  11.474  12.219
79072SOL     OW39112  14.084   3.849  13.267
79072SOL    HW139113  14.030   3.868  13.343
79072SOL    HW239114  14.087   3.931  13.218
79073SOL     OW39115   4.070   3.304  11.727
79073SOL    HW139116   4.139   3.299  11.660
79073SOL    HW239117   4.041   3.395  11.725
79074SOL     OW39118  10.072   6.813   5.479
79074SOL    HW139119  10.028   6.731   5.503
79074SOL    HW239120  10.011   6.857   5.420
79075SOL     OW39121   3.810   5.828  13.291
79075SOL    HW139122   3.844   5.902  13.240
79075SOL    HW239123   3.734   5.863  13.336
79076SOL     OW39124   5.378   3.880  11.832
79076SOL    HW139125   5.370   3.962  11.880
79076SOL    HW239126   5.463   3.887  11.788
79077SOL     OW39127   7.233  11.571   4.296
79077SOL    HW139128   7.189  11.653   4.320
79077SOL    HW239129   7.182  11.503   4.342
79078SOL     OW39130   6.102  12.242   0.361
79078SOL    HW139131   6.139  12.310   0.417
79078SOL    HW239132   6.165  12.232   0.290
79079SOL     OW39133   4.014   1.956   3.998
79079SOL    HW139134   3.975   1.875   4.029
79079SOL    HW239135   4.050   1.997   4.077
79080SOL     OW39136   8.067  11.844   2.742
79080SOL    HW139137   8.158  11.870   2.725
79080SOL    HW239138   8.022  11.926   2.759
79081SOL     OW39139   3.774  11.056   8.581
79081SOL    HW139140   3.699  11.054   8.640
79081SOL    HW239141   3.756  10.989   8.515
79082SOL     OW39142   2.696   9.769  12.291
79082SOL    HW139143   2.787   9.784  12.265
79082SOL    HW239144   2.649   9.846  12.260
79083SOL     OW39145   4.848  13.501  12.274
79083SOL    HW139146   4.837  13.433  12.340
79083SOL    HW239147   4.776  13.562  12.289
79084SOL     OW39148  10.620  10.120  11.192
79084SOL    HW139149  10.659  10.170  11.120
79084SOL    HW239150  10.549  10.175  11.224
79085SOL     OW39151  12.675   4.409   8.220
79085SOL    HW139152  12.625   4.395   8.139
79085SOL    HW239153  12.614   4.385   8.290
79086SOL     OW39154   2.613   6.675   5.932
79086SOL    HW139155   2.670   6.752   5.934
79086SOL    HW239156   2.528   6.707   5.963
79087SOL     OW39157  11.497   7.814   8.092
79087SOL    HW139158  11.451   7.896   8.073
79087SOL    HW239159  11.456   7.750   8.034
79088SOL     OW39160   9.938  14.134  11.761
79088SOL    HW139161   9.968  14.168  11.677
79088SOL    HW239162  10.017  14.097  11.801
79089SOL     OW39163   1.634   9.120   1.126
79089SOL    HW139164   1.662   9.029   1.119
79089SOL    HW239165   1.677   9.152   1.206
79090SOL     OW39166   9.768   3.089  11.240
79090SOL    HW139167   9.761   3.137  11.322
79090SOL    HW239168   9.809   3.006  11.264
79091SOL     OW39169   1.126   5.811   2.330
79091SOL    HW139170   1.185   5.887   2.333
79091SOL    HW239171   1.110   5.789   2.422
79092SOL     OW39172  10.036   4.106  10.727
79092SOL    HW139173  10.092   4.029  10.729
79092SOL    HW239174  10.013   4.122  10.819
79093SOL     OW39175   4.040   5.037  12.756
79093SOL    HW139176   3.968   5.073  12.806
79093SOL    HW239177   4.046   5.093  12.678
79094SOL     OW39178   6.627  10.025  10.683
79094SOL    HW139179   6.551  10.046  10.736
79094SOL    HW239180   6.596  10.032  10.592
79095SOL     OW39181   1.658   8.085   2.906
79095SOL    HW139182   1.703   8.015   2.954
79095SOL    HW239183   1.588   8.041   2.859
79096SOL     OW39184   2.972   7.809   6.441
79096SOL    HW139185   2.977   7.777   6.530
79096SOL    HW239186   3.050   7.774   6.397
79097SOL     OW39187   3.662   1.222   9.915
79097SOL    HW139188   3.744   1.260   9.882
79097SOL    HW239189   3.631   1.285   9.980
79098SOL     OW39190   6.428  10.966   5.550
79098SOL    HW139191   6.503  10.948   5.607
79098SOL    HW239192   6.464  10.960   5.461
79099SOL     OW39193   1.964   8.960   7.194
79099SOL    HW139194   1.963   8.914   7.110
79099SOL    HW239195   1.972   9.053   7.170
79100SOL     OW39196   5.367   4.515  10.241
79100SOL    HW139197   5.283   4.528  10.196
79100SOL    HW239198   5.385   4.421  10.231
79101SOL     OW39199   7.058  11.637   2.142
79101SOL    HW139200   7.030  11.584   2.216
79101SOL    HW239201   7.125  11.695   2.177
79102SOL     OW39202   1.246   3.771  10.432
79102SOL    HW139203   1.192   3.806  10.503
79102SOL    HW239204   1.213   3.682  10.419
79103SOL     OW39205  13.868   1.200  13.720
79103SOL    HW139206  13.805   1.259  13.760
79103SOL    HW239207  13.901   1.248  13.644
79104SOL     OW39208   0.013  13.090   2.987
79104SOL    HW139209   0.086  13.041   2.949
79104SOL    HW239210  14.873  13.046   3.070
79105SOL     OW39211   4.340  10.723   2.330
79105SOL    HW139212   4.283  10.658   2.372
79105SOL    HW239213   4.333  10.800   2.387
79106SOL     OW39214  12.555   4.072  12.112
79106SOL    HW139215  12.546   4.117  12.196
79106SOL    HW239216  12.643   4.034  12.114
79107SOL     OW39217  12.301   5.758  14.129
79107SOL    HW139218  12.311   5.676  14.081
79107SOL    HW239219  12.388   5.798  14.127
79108SOL     OW39220   3.743  12.810   5.984
79108SOL    HW139221   3.717  12.835   6.072
79108SOL    HW239222   3.691  12.866   5.926
79109SOL     OW39223   4.540  12.545   0.502
79109SOL    HW139224   4.605  12.573   0.438
79109SOL    HW239225   4.512  12.459   0.471
79110SOL     OW39226   1.232   3.948  11.846
79110SOL    HW139227   1.161   3.932  11.784
79110SOL    HW239228   1.192   3.934  11.932
79111SOL     OW39229   8.235  14.710  12.628
79111SOL    HW139230   8.246  14.730  12.721
79111SOL    HW239231   8.286  14.777  12.583
79112SOL     OW39232  13.853  11.066   9.260
79112SOL    HW139233  13.882  11.154   9.236
79112SOL    HW239234  13.934  11.014   9.263
79113SOL     OW39235   2.979   2.979  12.363
79113SOL    HW139236   2.977   2.945  12.273
79113SOL    HW239237   3.072   2.989  12.383
79114SOL     OW39238   9.486  14.206   0.083
79114SOL    HW139239   9.554  14.243   0.027
79114SOL    HW239240   9.467  14.274   0.147
79115SOL     OW39241   5.958   0.178  11.252
79115SOL    HW139242   6.053   0.169  11.245
79115SOL    HW239243   5.933   0.234  11.178
79116SOL     OW39244   4.717   2.381   2.177
79116SOL    HW139245   4.670   2.327   2.241
79116SOL    HW239246   4.681   2.355   2.092
79117SOL     OW39247   5.349   6.466  12.039
79117SOL    HW139248   5.408   6.526  11.993
79117SOL    HW239249   5.393   6.381  12.036
79118SOL     OW39250  10.333  10.150   1.814
79118SOL    HW139251  10.349  10.063   1.850
79118SOL    HW239252  10.269  10.135   1.744
79119SOL     OW39253   1.772   5.705  13.591
79119SOL    HW139254   1.860   5.669  13.579
79119SOL    HW239255   1.766   5.722  13.685
79120SOL     OW39256  13.918  13.486  11.262
79120SOL    HW139257  13.963  13.414  11.217
79120SOL    HW239258  13.826  13.461  11.259
79121SOL     OW39259   8.060   4.484   0.151
79121SOL    HW139260   7.991   4.438   0.197
79121SOL    HW239261   8.014   4.543   0.091
79122SOL     OW39262  10.216   7.033  11.579
79122SOL    HW139263  10.194   6.983  11.500
79122SOL    HW239264  10.280   7.098  11.550
79123SOL     OW39265   8.900  14.663   4.573
79123SOL    HW139266   8.985  14.696   4.602
79123SOL    HW239267   8.918  14.623   4.488
79124SOL     OW39268  12.217   6.132   9.469
79124SOL    HW139269  12.154   6.154   9.400
79124SOL    HW239270  12.302   6.143   9.428
79125SOL     OW39271   2.646   4.143   4.439
79125SOL    HW139272   2.650   4.052   4.467
79125SOL    HW239273   2.553   4.166   4.446
79126SOL     OW39274   6.404  10.712   0.412
79126SOL    HW139275   6.364  10.738   0.330
79126SOL    HW239276   6.488  10.758   0.414
79127SOL     OW39277   7.890   7.180   8.020
79127SOL    HW139278   7.839   7.253   8.057
79127SOL    HW239279   7.826   7.128   7.973
79128SOL     OW39280   3.151  12.157   7.009
79128SOL    HW139281   3.141  12.066   6.983
79128SOL    HW239282   3.127  12.207   6.930
79129SOL     OW39283   9.676   6.951   1.816
79129SOL    HW139284   9.651   6.926   1.905
79129SOL    HW239285   9.595   6.946   1.765
79130SOL     OW39286   4.175   5.500   3.548
79130SOL    HW139287   4.214   5.557   3.482
79130SOL    HW239288   4.082   5.523   3.548
79131SOL     OW39289   9.246   4.750   1.018
79131SOL    HW139290   9.259   4.791   1.104
79131SOL    HW239291   9.159   4.711   1.024
79132SOL     OW39292   7.629  14.088  14.595
79132SOL    HW139293   7.537  14.069  14.577
79132SOL    HW239294   7.676  14.009  14.566
79133SOL     OW39295   1.378   4.238   7.098
79133SOL    HW139296   1.338   4.152   7.088
79133SOL    HW239297   1.398   4.266   7.009
79134SOL     OW39298  13.339  13.816   3.587
79134SOL    HW139299  13.275  13.746   3.575
79134SOL    HW239300  13.409  13.795   3.525
79135SOL     OW39301   3.677   9.963   2.945
79135SOL    HW139302   3.620   9.901   2.990
79135SOL    HW239303   3.632  10.047   2.953
79136SOL     OW39304   0.486  14.111   9.060
79136SOL    HW139305   0.441  14.095   9.143
79136SOL    HW239306   0.426  14.169   9.012
79137SOL     OW39307  12.562   2.180   3.785
79137SOL    HW139308  12.643   2.134   3.762
79137SOL    HW239309  12.516   2.120   3.845
79138SOL     OW39310   1.134   3.912   4.482
79138SOL    HW139311   1.045   3.939   4.459
79138SOL    HW239312   1.162   3.858   4.408
79139SOL     OW39313  13.822   6.143   4.321
79139SOL    HW139314  13.807   6.179   4.233
79139SOL    HW239315  13.803   6.215   4.380
79140SOL     OW39316  10.577   6.453   9.840
79140SOL    HW139317  10.647   6.449   9.774
79140SOL    HW239318  10.526   6.373   9.826
79141SOL     OW39319   0.971   4.871   2.649
79141SOL    HW139320   1.054   4.896   2.687
79141SOL    HW239321   0.905   4.921   2.698
79142SOL     OW39322   6.087   6.378  11.484
79142SOL    HW139323   6.161   6.360  11.426
79142SOL    HW239324   6.069   6.471  11.471
79143SOL     OW39325   1.636  11.431   7.564
79143SOL    HW139326   1.686  11.360   7.605
79143SOL    HW239327   1.641  11.504   7.627
79144SOL     OW39328   0.254   8.397   7.646
79144SOL    HW139329   0.344   8.366   7.645
79144SOL    HW239330   0.251   8.461   7.575
79145SOL     OW39331  12.540   6.892   2.263
79145SOL    HW139332  12.542   6.911   2.357
79145SOL    HW239333  12.462   6.936   2.231
79146SOL     OW39334  11.392   3.150   3.546
79146SOL    HW139335  11.342   3.203   3.483
79146SOL    HW239336  11.461   3.209   3.577
79147SOL     OW39337   5.497  13.484  11.074
79147SOL    HW139338   5.561  13.417  11.096
79147SOL    HW239339   5.550  13.562  11.055
79148SOL     OW39340   4.095  14.334   8.843
79148SOL    HW139341   4.146  14.388   8.904
79148SOL    HW239342   4.147  14.333   8.763
79149SOL     OW39343   6.893   8.411   3.526
79149SOL    HW139344   6.925   8.432   3.613
79149SOL    HW239345   6.913   8.317   3.515
79150SOL     OW39346   0.567   1.406  13.533
79150SOL    HW139347   0.474   1.424  13.547
79150SOL    HW239348   0.576   1.401  13.438
79151SOL     OW39349   8.444  12.102   2.872
79151SOL    HW139350   8.432  12.029   2.933
79151SOL    HW239351   8.529  12.086   2.832
79152SOL     OW39352  10.846   1.605  13.355
79152SOL    HW139353  10.866   1.521  13.396
79152SOL    HW239354  10.762   1.631  13.394
79153SOL     OW39355   0.840   5.137   1.253
79153SOL    HW139356   0.856   5.050   1.290
79153SOL    HW239357   0.806   5.188   1.327
79154SOL     OW39358  11.681  14.642  13.037
79154SOL    HW139359  11.666  14.708  12.970
79154SOL    HW239360  11.596  14.630  13.079
79155SOL     OW39361  14.597   4.187   1.474
79155SOL    HW139362  14.604   4.178   1.569
79155SOL    HW239363  14.505   4.211   1.459
79156SOL     OW39364  11.495   9.357  13.687
79156SOL    HW139365  11.429   9.311  13.635
79156SOL    HW239366  11.578   9.330  13.649
79157SOL     OW39367   3.118   4.828   9.339
79157SOL    HW139368   3.123   4.759   9.273
79157SOL    HW239369   3.193   4.812   9.397
79158SOL     OW39370  12.559  13.654   0.211
79158SOL    HW139371  12.555  13.672   0.305
79158SOL    HW239372  12.649  13.675   0.186
79159SOL     OW39373   0.884  11.068  11.374
79159SOL    HW139374   0.877  10.995  11.435
79159SOL    HW239375   0.974  11.065  11.342
79160SOL     OW39376   3.508   9.513   3.374
79160SOL    HW139377   3.433   9.554   3.416
79160SOL    HW239378   3.564   9.585   3.347
79161SOL     OW39379   7.544   2.534  13.783
79161SOL    HW139380   7.537   2.586  13.703
79161SOL    HW239381   7.637   2.511  13.788
79162SOL     OW39382   7.168   1.011   8.996
79162SOL    HW139383   7.099   1.051   8.943
79162SOL    HW239384   7.248   1.028   8.947
79163SOL     OW39385   8.177   3.793   1.086
79163SOL    HW139386   8.175   3.747   1.002
79163SOL    HW239387   8.262   3.836   1.089
79164SOL     OW39388  11.566   5.830  11.421
79164SOL    HW139389  11.500   5.841  11.353
79164SOL    HW239390  11.541   5.894  11.488
79165SOL     OW39391  10.295  10.201   7.262
79165SOL    HW139392  10.232  10.166   7.200
79165SOL    HW239393  10.358  10.131   7.275
79166SOL     OW39394  13.337  10.920   7.373
79166SOL    HW139395  13.378  11.005   7.387
79166SOL    HW239396  13.243  10.939   7.376
79167SOL     OW39397  13.855   8.772   8.560
79167SOL    HW139398  13.848   8.703   8.626
79167SOL    HW239399  13.858   8.726   8.476
79168SOL     OW39400   1.845   5.581   2.409
79168SOL    HW139401   1.842   5.490   2.382
79168SOL    HW239402   1.879   5.579   2.498
79169SOL     OW39403   4.582  14.084  10.051
79169SOL    HW139404   4.506  14.046  10.095
79169SOL    HW239405   4.623  14.140  10.117
79170SOL     OW39406   0.122  11.246   0.642
79170SOL    HW139407   0.090  11.186   0.709
79170SOL    HW239408   0.196  11.291   0.683
79171SOL     OW39409   0.703   1.206   9.878
79171SOL    HW139410   0.717   1.259   9.800
79171SOL    HW239411   0.790   1.195   9.916
79172SOL     OW39412   7.285  11.334   7.918
79172SOL    HW139413   7.238  11.254   7.943
79172SOL    HW239414   7.374  11.304   7.900
79173SOL     OW39415   3.367   5.843  12.388
79173SOL    HW139416   3.380   5.749  12.381
79173SOL    HW239417   3.456   5.880  12.386
79174SOL     OW39418   8.200   9.370   9.726
79174SOL    HW139419   8.195   9.391   9.819
79174SOL    HW239420   8.144   9.436   9.684
79175SOL     OW39421   4.454   3.407   0.127
79175SOL    HW139422   4.426   3.489   0.168
79175SOL    HW239423   4.373   3.365   0.100
79176SOL     OW39424   3.131   2.402   8.935
79176SOL    HW139425   3.067   2.345   8.893
79176SOL    HW239426   3.122   2.486   8.890
79177SOL     OW39427  12.875  10.024  14.240
79177SOL    HW139428  12.819  10.082  14.188
79177SOL    HW239429  12.814   9.964  14.283
79178SOL     OW39430   2.943   7.374   4.852
79178SOL    HW139431   2.993   7.294   4.869
79178SOL    HW239432   2.959   7.393   4.759
79179SOL     OW39433   5.098   7.332  12.061
79179SOL    HW139434   5.124   7.418  12.029
79179SOL    HW239435   5.005   7.325  12.039
79180SOL     OW39436   5.799   1.740   5.482
79180SOL    HW139437   5.800   1.724   5.576
79180SOL    HW239438   5.729   1.804   5.469
79181SOL     OW39439  12.228   4.405  11.746
79181SOL    HW139440  12.208   4.378  11.657
79181SOL    HW239441  12.149   4.452  11.776
79182SOL     OW39442   7.887   2.555  10.606
79182SOL    HW139443   7.805   2.523  10.645
79182SOL    HW239444   7.895   2.506  10.524
79183SOL     OW39445  11.977  11.755  11.536
79183SOL    HW139446  11.902  11.725  11.485
79183SOL    HW239447  11.939  11.799  11.612
79184SOL     OW39448   2.319   8.791   7.875
79184SOL    HW139449   2.295   8.871   7.923
79184SOL    HW239450   2.237   8.762   7.835
79185SOL     OW39451  12.935   0.374  12.867
79185SOL    HW139452  12.974   0.379  12.779
79185SOL    HW239453  13.006   0.403  12.925
79186SOL     OW39454   0.010  10.653  12.321
79186SOL    HW139455  14.860  10.737  12.284
79186SOL    HW239456  14.806  10.612  12.351
79187SOL     OW39457   2.844   5.131   9.859
79187SOL    HW139458   2.925   5.126   9.909
79187SOL    HW239459   2.853   5.064   9.792
79188SOL     OW39460   6.351  13.175  11.355
79188SOL    HW139461   6.318  13.094  11.315
79188SOL    HW239462   6.345  13.241  11.286
79189SOL     OW39463  13.339   2.307   8.177
79189SOL    HW139464  13.286   2.371   8.225
79189SOL    HW239465  13.416   2.293   8.232
79190SOL     OW39466   9.485   5.462   1.312
79190SOL    HW139467   9.486   5.381   1.260
79190SOL    HW239468   9.540   5.443   1.387
79191SOL     OW39469  14.854  11.996   3.788
79191SOL    HW139470   0.025  11.920   3.756
79191SOL    HW239471   0.007  12.069   3.734
79192SOL     OW39472   7.713   3.409  11.166
79192SOL    HW139473   7.775   3.425  11.236
79192SOL    HW239474   7.628   3.434  11.202
79193SOL     OW39475   3.137   0.951  14.461
79193SOL    HW139476   3.166   1.024  14.515
79193SOL    HW239477   3.063   0.913  14.508
79194SOL     OW39478  10.001  14.594   8.327
79194SOL    HW139479   9.927  14.634   8.373
79194SOL    HW239480   9.984  14.613   8.234
79195SOL     OW39481   0.640   8.651   7.389
79195SOL    HW139482   0.551   8.661   7.356
79195SOL    HW239483   0.665   8.562   7.363
79196SOL     OW39484   6.345  14.161   1.790
79196SOL    HW139485   6.400  14.227   1.833
79196SOL    HW239486   6.369  14.078   1.832
79197SOL     OW39487  11.418  12.829  14.669
79197SOL    HW139488  11.360  12.898  14.700
79197SOL    HW239489  11.457  12.792  14.749
79198SOL     OW39490  13.484   2.372   5.549
79198SOL    HW139491  13.549   2.327   5.496
79198SOL    HW239492  13.454   2.305   5.612
79199SOL     OW39493   7.895   6.940   2.123
79199SOL    HW139494   7.989   6.923   2.112
79199SOL    HW239495   7.871   6.893   2.202
79200SOL     OW39496  12.211  12.065   1.597
79200SOL    HW139497  12.146  12.048   1.666
79200SOL    HW239498  12.288  12.097   1.644
79201SOL     OW39499   4.573   3.119   3.802
79201SOL    HW139500   4.512   3.047   3.814
79201SOL    HW239501   4.656   3.086   3.838
79202SOL     OW39502   6.285   1.756  11.345
79202SOL    HW139503   6.280   1.851  11.351
79202SOL    HW239504   6.206   1.725  11.391
79203SOL     OW39505  14.468   4.605   4.239
79203SOL    HW139506  14.439   4.617   4.148
79203SOL    HW239507  14.390   4.624   4.291
79204SOL     OW39508   3.410  13.758  13.963
79204SOL    HW139509   3.395  13.814  13.887
79204SOL    HW239510   3.495  13.718  13.947
79205SOL     OW39511   0.275   2.680   2.588
79205SOL    HW139512   0.242   2.759   2.631
79205SOL    HW239513   0.288   2.706   2.497
79206SOL     OW39514   3.006  12.869   5.671
79206SOL    HW139515   2.965  12.919   5.600
79206SOL    HW239516   2.945  12.877   5.744
79207SOL     OW39517   9.278  14.413   2.820
79207SOL    HW139518   9.248  14.352   2.888
79207SOL    HW239519   9.221  14.394   2.745
79208SOL     OW39520   3.982   5.881   9.620
79208SOL    HW139521   4.056   5.841   9.575
79208SOL    HW239522   3.905   5.848   9.574
79209SOL     OW39523  11.667  10.192  12.274
79209SOL    HW139524  11.635  10.113  12.230
79209SOL    HW239525  11.707  10.161  12.355
79210SOL     OW39526   8.715   4.009   7.313
79210SOL    HW139527   8.646   4.027   7.250
79210SOL    HW239528   8.727   4.091   7.361
79211SOL     OW39529  10.773   7.794  12.476
79211SOL    HW139530  10.741   7.705  12.493
79211SOL    HW239531  10.766   7.804  12.381
79212SOL     OW39532   1.034   2.825  14.646
79212SOL    HW139533   1.011   2.913  14.674
79212SOL    HW239534   1.069   2.836  14.557
79213SOL     OW39535  10.791  10.011   2.970
79213SOL    HW139536  10.788   9.955   3.048
79213SOL    HW239537  10.864   9.978   2.919
79214SOL     OW39538   3.434  12.035   7.101
79214SOL    HW139539   3.510  12.008   7.049
79214SOL    HW239540   3.379  12.084   7.040
79215SOL     OW39541   5.672   8.442   5.630
79215SOL    HW139542   5.760   8.409   5.610
79215SOL    HW239543   5.681   8.487   5.713
79216SOL     OW39544  11.984   7.293   6.070
79216SOL    HW139545  11.970   7.200   6.085
79216SOL    HW239546  12.006   7.328   6.157
79217SOL     OW39547  10.693   5.520  12.845
79217SOL    HW139548  10.754   5.535  12.918
79217SOL    HW239549  10.624   5.465  12.883
79218SOL     OW39550   3.885   9.529  12.868
79218SOL    HW139551   3.805   9.534  12.816
79218SOL    HW239552   3.926   9.446  12.842
79219SOL     OW39553   8.106   1.228  10.310
79219SOL    HW139554   8.063   1.206  10.392
79219SOL    HW239555   8.200   1.218  10.329
79220SOL     OW39556   8.900   3.290   2.275
79220SOL    HW139557   8.817   3.293   2.323
79220SOL    HW239558   8.967   3.300   2.343
79221SOL     OW39559  10.547   6.789   1.919
79221SOL    HW139560  10.560   6.795   2.014
79221SOL    HW239561  10.516   6.876   1.894
79222SOL     OW39562   5.167   8.827  11.044
79222SOL    HW139563   5.228   8.767  11.087
79222SOL    HW239564   5.120   8.772  10.981
79223SOL     OW39565   8.473   3.676   0.213
79223SOL    HW139566   8.539   3.730   0.169
79223SOL    HW239567   8.499   3.586   0.193
79224SOL     OW39568   4.458  13.680  11.151
79224SOL    HW139569   4.550  13.662  11.168
79224SOL    HW239570   4.427  13.603  11.104
79225SOL     OW39571  10.487   7.798   4.126
79225SOL    HW139572  10.502   7.817   4.033
79225SOL    HW239573  10.451   7.880   4.161
79226SOL     OW39574  12.411   5.660   4.124
79226SOL    HW139575  12.354   5.727   4.162
79226SOL    HW239576  12.418   5.593   4.191
79227SOL     OW39577  10.464   8.462   9.756
79227SOL    HW139578  10.415   8.434   9.679
79227SOL    HW239579  10.483   8.554   9.741
79228SOL     OW39580   2.442   9.307  12.576
79228SOL    HW139581   2.525   9.335  12.536
79228SOL    HW239582   2.453   9.213  12.589
79229SOL     OW39583   4.066   2.379   4.587
79229SOL    HW139584   4.107   2.296   4.610
79229SOL    HW239585   4.119   2.412   4.514
79230SOL     OW39586  10.475   3.488   2.277
79230SOL    HW139587  10.381   3.496   2.294
79230SOL    HW239588  10.509   3.445   2.356
79231SOL     OW39589   2.652   7.585   3.416
79231SOL    HW139590   2.568   7.590   3.463
79231SOL    HW239591   2.634   7.531   3.340
79232SOL     OW39592   5.180  11.636  14.702
79232SOL    HW139593   5.206  11.711  14.756
79232SOL    HW239594   5.259  11.581  14.699
79233SOL     OW39595  14.023  10.652   5.458
79233SOL    HW139596  13.983  10.629   5.374
79233SOL    HW239597  14.020  10.748   5.460
79234SOL     OW39598   4.030   7.560  10.860
79234SOL    HW139599   4.087   7.565  10.783
79234SOL    HW239600   4.013   7.467  10.871
79235SOL     OW39601   5.936  10.713   2.803
79235SOL    HW139602   5.858  10.768   2.792
79235SOL    HW239603   5.925  10.673   2.889
79236SOL     OW39604   5.840  13.526   5.620
79236SOL    HW139605   5.870  13.459   5.560
79236SOL    HW239606   5.806  13.478   5.696
79237SOL     OW39607   0.181   6.004   3.507
79237SOL    HW139608   0.135   5.933   3.462
79237SOL    HW239609   0.274   5.988   3.490
79238SOL     OW39610   8.090  11.219   2.810
79238SOL    HW139611   8.032  11.276   2.759
79238SOL    HW239612   8.172  11.268   2.818
79239SOL     OW39613   7.444  11.719  12.782
79239SOL    HW139614   7.530  11.723  12.824
79239SOL    HW239615   7.382  11.716  12.854
79240SOL     OW39616  14.737  14.292   0.436
79240SOL    HW139617  14.747  14.265   0.344
79240SOL    HW239618  14.823  14.327   0.460
79241SOL     OW39619   8.122   7.199   8.553
79241SOL    HW139620   8.186   7.242   8.608
79241SOL    HW239621   8.065   7.152   8.615
79242SOL     OW39622   0.205  11.842   1.170
79242SOL    HW139623   0.204  11.905   1.098
79242SOL    HW239624   0.201  11.895   1.249
79243SOL     OW39625   4.011   1.163   2.436
79243SOL    HW139626   4.028   1.080   2.481
79243SOL    HW239627   4.097   1.193   2.408
79244SOL     OW39628  14.024   3.292   6.237
79244SOL    HW139629  14.011   3.344   6.158
79244SOL    HW239630  13.954   3.319   6.296
79245SOL     OW39631   2.114   8.127  13.219
79245SOL    HW139632   2.072   8.041  13.222
79245SOL    HW239633   2.041   8.189  13.216
79246SOL     OW39634   4.207   6.924  10.992
79246SOL    HW139635   4.271   6.978  11.039
79246SOL    HW239636   4.205   6.960  10.904
79247SOL     OW39637   8.581   4.575   5.993
79247SOL    HW139638   8.675   4.581   6.004
79247SOL    HW239639   8.570   4.525   5.911
79248SOL     OW39640  14.105  13.613   7.958
79248SOL    HW139641  14.127  13.559   8.034
79248SOL    HW239642  14.149  13.570   7.884
79249SOL     OW39643   5.473   9.915   3.214
79249SOL    HW139644   5.418   9.902   3.137
79249SOL    HW239645   5.491  10.009   3.216
79250SOL     OW39646   0.836  13.362  12.881
79250SOL    HW139647   0.817  13.324  12.796
79250SOL    HW239648   0.782  13.311  12.943
79251SOL     OW39649  14.090  11.415   7.944
79251SOL    HW139650  14.047  11.331   7.927
79251SOL    HW239651  14.135  11.436   7.862
79252SOL     OW39652   9.443   9.938   1.860
79252SOL    HW139653   9.436   9.851   1.822
79252SOL    HW239654   9.535   9.946   1.885
79253SOL     OW39655  12.613  12.592   5.671
79253SOL    HW139656  12.577  12.641   5.596
79253SOL    HW239657  12.615  12.501   5.642
79254SOL     OW39658  11.776  12.626  10.903
79254SOL    HW139659  11.754  12.719  10.902
79254SOL    HW239660  11.708  12.585  10.850
79255SOL     OW39661   1.551   3.386   4.806
79255SOL    HW139662   1.492   3.379   4.881
79255SOL    HW239663   1.637   3.407   4.845
79256SOL     OW39664  13.066   6.385  14.018
79256SOL    HW139665  12.973   6.400  14.033
79256SOL    HW239666  13.095   6.463  13.969
79257SOL     OW39667  12.059   6.746   2.240
79257SOL    HW139668  12.013   6.686   2.298
79257SOL    HW239669  12.012   6.739   2.157
79258SOL     OW39670  10.675   0.338  14.719
79258SOL    HW139671  10.705   0.424  14.749
79258SOL    HW239672  10.678   0.283  14.797
79259SOL     OW39673   3.402   4.136  10.981
79259SOL    HW139674   3.431   4.206  11.039
79259SOL    HW239675   3.400   4.176  10.894
79260SOL     OW39676   5.168   4.481   5.407
79260SOL    HW139677   5.186   4.435   5.324
79260SOL    HW239678   5.188   4.572   5.388
79261SOL     OW39679   8.688   3.346  10.224
79261SOL    HW139680   8.635   3.291  10.282
79261SOL    HW239681   8.624   3.388  10.166
79262SOL     OW39682   8.142   0.792   7.949
79262SOL    HW139683   8.158   0.881   7.918
79262SOL    HW239684   8.188   0.736   7.886
79263SOL     OW39685   0.316   5.893   8.419
79263SOL    HW139686   0.393   5.922   8.370
79263SOL    HW239687   0.286   5.815   8.373
79264SOL     OW39688   8.364  14.208  14.470
79264SOL    HW139689   8.320  14.257  14.400
79264SOL    HW239690   8.352  14.263  14.548
79265SOL     OW39691   2.167   1.654  13.981
79265SOL    HW139692   2.102   1.723  13.991
79265SOL    HW239693   2.237   1.678  14.043
79266SOL     OW39694   3.941   7.570  12.915
79266SOL    HW139695   3.939   7.662  12.890
79266SOL    HW239696   3.956   7.523  12.832
79267SOL     OW39697   5.788   9.108   3.070
79267SOL    HW139698   5.730   9.083   3.142
79267SOL    HW239699   5.850   9.035   3.064
79268SOL     OW39700   9.742   5.345  13.397
79268SOL    HW139701   9.799   5.402  13.345
79268SOL    HW239702   9.715   5.399  13.471
79269SOL     OW39703   5.019  11.795   3.278
79269SOL    HW139704   5.044  11.792   3.186
79269SOL    HW239705   4.933  11.754   3.281
79270SOL     OW39706  14.169   9.521  14.827
79270SOL    HW139707  14.149   9.437  14.786
79270SOL    HW239708  14.165   9.503   0.044
79271SOL     OW39709   7.320   7.916   3.547
79271SOL    HW139710   7.260   7.873   3.608
79271SOL    HW239711   7.402   7.868   3.557
79272SOL     OW39712  13.814   3.512   2.968
79272SOL    HW139713  13.758   3.508   2.891
79272SOL    HW239714  13.901   3.488   2.936
79273SOL     OW39715   2.074   8.395   7.343
79273SOL    HW139716   1.983   8.407   7.370
79273SOL    HW239717   2.122   8.463   7.392
79274SOL     OW39718  13.539  11.817   1.946
79274SOL    HW139719  13.524  11.912   1.948
79274SOL    HW239720  13.473  11.784   1.885
79275SOL     OW39721   6.664   9.590   6.174
79275SOL    HW139722   6.669   9.635   6.259
79275SOL    HW239723   6.673   9.660   6.110
79276SOL     OW39724   4.461  12.769  11.200
79276SOL    HW139725   4.493  12.715  11.128
79276SOL    HW239726   4.480  12.718  11.279
79277SOL     OW39727   3.216   5.066   2.636
79277SOL    HW139728   3.174   5.033   2.716
79277SOL    HW239729   3.290   5.007   2.622
79278SOL     OW39730   7.720   4.559   8.830
79278SOL    HW139731   7.798   4.526   8.786
79278SOL    HW239732   7.752   4.587   8.916
79279SOL     OW39733   7.819   1.343   3.246
79279SOL    HW139734   7.814   1.364   3.339
79279SOL    HW239735   7.906   1.371   3.219
79280SOL     OW39736   3.677   7.729   8.089
79280SOL    HW139737   3.756   7.691   8.127
79280SOL    HW239738   3.619   7.655   8.074
79281SOL     OW39739   1.411   4.144   8.008
79281SOL    HW139740   1.354   4.069   7.995
79281SOL    HW239741   1.500   4.107   8.010
79282SOL     OW39742   3.142   4.786   6.518
79282SOL    HW139743   3.170   4.745   6.436
79282SOL    HW239744   3.060   4.742   6.540
79283SOL     OW39745  13.996   9.825  10.510
79283SOL    HW139746  14.092   9.830  10.511
79283SOL    HW239747  13.972   9.843  10.419
79284SOL     OW39748   2.632   9.428   2.228
79284SOL    HW139749   2.553   9.428   2.282
79284SOL    HW239750   2.697   9.476   2.280
79285SOL     OW39751  13.817  11.501  12.450
79285SOL    HW139752  13.852  11.490  12.539
79285SOL    HW239753  13.838  11.419  12.406
79286SOL     OW39754   8.398   0.508   2.182
79286SOL    HW139755   8.443   0.561   2.116
79286SOL    HW239756   8.468   0.457   2.223
79287SOL     OW39757   2.460  12.187  11.558
79287SOL    HW139758   2.544  12.215  11.521
79287SOL    HW239759   2.423  12.130  11.491
79288SOL     OW39760  13.126   7.109  12.594
79288SOL    HW139761  13.049   7.092  12.540
79288SOL    HW239762  13.100   7.182  12.651
79289SOL     OW39763   0.132   4.275   8.682
79289SOL    HW139764   0.226   4.253   8.680
79289SOL    HW239765   0.121   4.336   8.610
79290SOL     OW39766  10.490   0.089   1.770
79290SOL    HW139767  10.450   0.012   1.731
79290SOL    HW239768  10.422   0.127   1.825
79291SOL     OW39769   7.082   6.867   1.465
79291SOL    HW139770   7.002   6.815   1.452
79291SOL    HW239771   7.050   6.953   1.494
79292SOL     OW39772  14.240  11.448   3.654
79292SOL    HW139773  14.158  11.425   3.697
79292SOL    HW239774  14.307  11.397   3.701
79293SOL     OW39775  10.182  11.845   7.906
79293SOL    HW139776  10.181  11.792   7.827
79293SOL    HW239777  10.199  11.934   7.875
79294SOL     OW39778  10.507   2.174   0.736
79294SOL    HW139779  10.566   2.113   0.780
79294SOL    HW239780  10.499   2.248   0.797
79295SOL     OW39781   4.839   0.987   5.943
79295SOL    HW139782   4.831   1.080   5.965
79295SOL    HW239783   4.786   0.943   6.010
79296SOL     OW39784   6.082   6.087   3.122
79296SOL    HW139785   6.030   6.153   3.076
79296SOL    HW239786   6.086   6.013   3.061
79297SOL     OW39787   4.436   5.299  12.964
79297SOL    HW139788   4.349   5.265  12.988
79297SOL    HW239789   4.445   5.378  13.018
79298SOL     OW39790   7.428   1.260   4.038
79298SOL    HW139791   7.405   1.241   3.947
79298SOL    HW239792   7.345   1.287   4.078
79299SOL     OW39793   0.112   6.513   3.662
79299SOL    HW139794   0.041   6.562   3.623
79299SOL    HW239795   0.098   6.423   3.633
79300SOL     OW39796  10.162   1.560   0.089
79300SOL    HW139797  10.102   1.634   0.087
79300SOL    HW239798  10.189   1.547  14.876
79301SOL     OW39799   0.668   4.632   4.042
79301SOL    HW139800   0.671   4.658   3.950
79301SOL    HW239801   0.726   4.556   4.048
79302SOL     OW39802   3.667   6.788   1.019
79302SOL    HW139803   3.760   6.807   1.029
79302SOL    HW239804   3.637   6.770   1.108
79303SOL     OW39805  11.934  13.121  12.261
79303SOL    HW139806  11.960  13.189  12.323
79303SOL    HW239807  11.890  13.055  12.316
79304SOL     OW39808  11.587   0.005   2.953
79304SOL    HW139809  11.559   0.019   2.862
79304SOL    HW239810  11.610  14.790   2.956
79305SOL     OW39811   0.807   5.648   0.275
79305SOL    HW139812   0.717   5.679   0.265
79305SOL    HW239813   0.803   5.554   0.255
79306SOL     OW39814   5.531  13.926  14.802
79306SOL    HW139815   5.502  13.989  14.868
79306SOL    HW239816   5.605  13.969  14.759
79307SOL     OW39817   2.126  10.251  14.061
79307SOL    HW139818   2.137  10.340  14.027
79307SOL    HW239819   2.058  10.213  14.005
79308SOL     OW39820   4.113   1.841  12.025
79308SOL    HW139821   4.179   1.903  12.055
79308SOL    HW239822   4.149   1.755  12.045
79309SOL     OW39823  14.337   4.451   4.693
79309SOL    HW139824  14.328   4.544   4.712
79309SOL    HW239825  14.400   4.447   4.621
79310SOL     OW39826   9.058   2.760   0.791
79310SOL    HW139827   9.027   2.717   0.871
79310SOL    HW239828   8.979   2.796   0.751
79311SOL     OW39829   7.851  10.817   6.363
79311SOL    HW139830   7.762  10.784   6.355
79311SOL    HW239831   7.906  10.739   6.352
79312SOL     OW39832   8.508  12.119   0.484
79312SOL    HW139833   8.552  12.169   0.553
79312SOL    HW239834   8.415  12.139   0.495
79313SOL     OW39835   9.175   1.434  11.616
79313SOL    HW139836   9.127   1.473  11.688
79313SOL    HW239837   9.266   1.431  11.646
79314SOL     OW39838   9.715   7.005   3.711
79314SOL    HW139839   9.633   6.978   3.753
79314SOL    HW239840   9.691   7.018   3.619
79315SOL     OW39841   8.735   8.656  10.257
79315SOL    HW139842   8.746   8.566  10.286
79315SOL    HW239843   8.807   8.670  10.195
79316SOL     OW39844  14.218  13.242  13.175
79316SOL    HW139845  14.188  13.333  13.183
79316SOL    HW239846  14.268  13.227  13.254
79317SOL     OW39847   0.115   7.025  14.267
79317SOL    HW139848   0.120   6.996  14.358
79317SOL    HW239849   0.049   7.095  14.267
79318SOL     OW39850  14.705  12.391   6.284
79318SOL    HW139851  14.800  12.398   6.291
79318SOL    HW239852  14.690  12.360   6.194
79319SOL     OW39853   8.705   9.597  11.319
79319SOL    HW139854   8.776   9.573  11.378
79319SOL    HW239855   8.638   9.636  11.377
79320SOL     OW39856   5.205  12.526   6.603
79320SOL    HW139857   5.226  12.603   6.550
79320SOL    HW239858   5.202  12.559   6.693
79321SOL     OW39859   8.470   8.695  10.255
79321SOL    HW139860   8.565   8.690  10.246
79321SOL    HW239861   8.446   8.779  10.215
79322SOL     OW39862   6.533   7.060   7.082
79322SOL    HW139863   6.607   7.101   7.039
79322SOL    HW239864   6.572   7.001   7.146
79323SOL     OW39865   6.337   9.578   7.218
79323SOL    HW139866   6.278   9.652   7.210
79323SOL    HW239867   6.305   9.514   7.153
79324SOL     OW39868   8.054   3.285  13.145
79324SOL    HW139869   8.022   3.255  13.059
79324SOL    HW239870   7.997   3.242  13.208
79325SOL     OW39871   8.123  14.531   7.362
79325SOL    HW139872   8.119  14.444   7.321
79325SOL    HW239873   8.185  14.520   7.434
79326SOL     OW39874   7.910  13.008   6.235
79326SOL    HW139875   7.953  13.060   6.303
79326SOL    HW239876   7.912  13.064   6.158
79327SOL     OW39877  11.933   8.652   7.158
79327SOL    HW139878  11.896   8.739   7.146
79327SOL    HW239879  11.867   8.605   7.209
79328SOL     OW39880  12.322   8.299  10.257
79328SOL    HW139881  12.298   8.241  10.329
79328SOL    HW239882  12.380   8.363  10.296
79329SOL     OW39883   2.941   5.110   3.099
79329SOL    HW139884   2.853   5.115   3.061
79329SOL    HW239885   2.926   5.104   3.194
79330SOL     OW39886  12.464  14.042  12.588
79330SOL    HW139887  12.385  14.038  12.642
79330SOL    HW239888  12.527  14.091  12.640
79331SOL     OW39889   8.256  12.578   9.994
79331SOL    HW139890   8.213  12.653   9.953
79331SOL    HW239891   8.239  12.505   9.935
79332SOL     OW39892   8.200  12.811   9.842
79332SOL    HW139893   8.105  12.818   9.859
79332SOL    HW239894   8.216  12.875   9.773
79333SOL     OW39895   6.000  14.173  13.015
79333SOL    HW139896   6.059  14.116  13.065
79333SOL    HW239897   6.055  14.245  12.985
79334SOL     OW39898   7.271  12.488   2.983
79334SOL    HW139899   7.192  12.464   3.032
79334SOL    HW239900   7.335  12.510   3.050
79335SOL     OW39901   6.605   7.219  12.723
79335SOL    HW139902   6.546   7.287  12.757
79335SOL    HW239903   6.679   7.268  12.686
79336SOL     OW39904   4.597   2.156   9.681
79336SOL    HW139905   4.554   2.113   9.607
79336SOL    HW239906   4.564   2.245   9.679
79337SOL     OW39907  13.142   4.884   6.610
79337SOL    HW139908  13.127   4.865   6.702
79337SOL    HW239909  13.156   4.978   6.607
79338SOL     OW39910   8.108   6.043   4.055
79338SOL    HW139911   8.053   6.048   4.133
79338SOL    HW239912   8.082   5.960   4.013
79339SOL     OW39913   6.001   8.644   7.784
79339SOL    HW139914   6.011   8.700   7.862
79339SOL    HW239915   6.045   8.693   7.714
79340SOL     OW39916  10.837  13.133   1.964
79340SOL    HW139917  10.913  13.187   1.985
79340SOL    HW239918  10.764  13.195   1.959
79341SOL     OW39919   0.665   4.473   9.302
79341SOL    HW139920   0.694   4.560   9.329
79341SOL    HW239921   0.589   4.456   9.358
79342SOL     OW39922   6.821   0.258   9.602
79342SOL    HW139923   6.794   0.350   9.597
79342SOL    HW239924   6.742   0.209   9.580
79343SOL     OW39925   5.576  12.723  13.015
79343SOL    HW139926   5.575  12.795  13.078
79343SOL    HW239927   5.623  12.758  12.940
79344SOL     OW39928   2.247  14.040   0.306
79344SOL    HW139929   2.300  14.018   0.383
79344SOL    HW239930   2.164  14.071   0.342
79345SOL     OW39931  14.747   9.441   4.641
79345SOL    HW139932  14.674   9.471   4.694
79345SOL    HW239933  14.785   9.521   4.604
79346SOL     OW39934  13.610   4.494   7.355
79346SOL    HW139935  13.525   4.523   7.389
79346SOL    HW239936  13.652   4.574   7.323
79347SOL     OW39937   4.246   9.720   0.354
79347SOL    HW139938   4.295   9.683   0.428
79347SOL    HW239939   4.291   9.685   0.277
79348SOL     OW39940  13.246   6.821   1.602
79348SOL    HW139941  13.321   6.881   1.603
79348SOL    HW239942  13.202   6.839   1.519
79349SOL     OW39943  11.268   4.932   8.312
79349SOL    HW139944  11.197   4.984   8.349
79349SOL    HW239945  11.224   4.855   8.275
79350SOL     OW39946  13.243  13.364   9.173
79350SOL    HW139947  13.224  13.452   9.141
79350SOL    HW239948  13.196  13.306   9.114
79351SOL     OW39949   7.183   6.940   1.991
79351SOL    HW139950   7.169   6.979   1.905
79351SOL    HW239951   7.120   6.984   2.048
79352SOL     OW39952   6.638  12.266   7.753
79352SOL    HW139953   6.693  12.189   7.740
79352SOL    HW239954   6.575  12.264   7.682
79353SOL     OW39955  10.696   7.103  13.776
79353SOL    HW139956  10.653   7.188  13.772
79353SOL    HW239957  10.733   7.090  13.688
79354SOL     OW39958  11.232   8.466   1.087
79354SOL    HW139959  11.236   8.451   0.992
79354SOL    HW239960  11.164   8.406   1.117
79355SOL     OW39961   3.171   3.046  11.678
79355SOL    HW139962   3.249   3.080  11.721
79355SOL    HW239963   3.183   2.951  11.680
79356SOL     OW39964   3.827   6.384   3.256
79356SOL    HW139965   3.920   6.380   3.278
79356SOL    HW239966   3.804   6.476   3.269
79357SOL     OW39967   8.765  11.168   1.265
79357SOL    HW139968   8.716  11.150   1.345
79357SOL    HW239969   8.851  11.197   1.295
79358SOL     OW39970   7.179  10.096  12.129
79358SOL    HW139971   7.183  10.059  12.041
79358SOL    HW239972   7.248  10.050  12.177
79359SOL     OW39973  14.604   5.424   0.109
79359SOL    HW139974  14.524   5.476   0.113
79359SOL    HW239975  14.653   5.450   0.187
79360SOL     OW39976  10.534   6.439   0.122
79360SOL    HW139977  10.621   6.475   0.141
79360SOL    HW239978  10.507   6.483   0.041
79361SOL     OW39979   0.015   2.732   9.087
79361SOL    HW139980   0.102   2.735   9.046
79361SOL    HW239981   0.025   2.780   9.169
79362SOL     OW39982   7.586   5.357  11.843
79362SOL    HW139983   7.603   5.263  11.846
79362SOL    HW239984   7.516   5.367  11.778
79363SOL     OW39985   9.993  10.481  11.529
79363SOL    HW139986  10.001  10.499  11.622
79363SOL    HW239987  10.045  10.401  11.516
79364SOL     OW39988   6.735   8.121  10.383
79364SOL    HW139989   6.793   8.065  10.330
79364SOL    HW239990   6.661   8.139  10.326
79365SOL     OW39991   5.783  12.224   2.432
79365SOL    HW139992   5.816  12.169   2.361
79365SOL    HW239993   5.848  12.216   2.501
79366SOL     OW39994   3.706  12.897   6.506
79366SOL    HW139995   3.736  12.960   6.570
79366SOL    HW239996   3.669  12.825   6.558
79367SOL     OW39997  12.941  14.321   4.572
79367SOL    HW139998  12.857  14.366   4.560
79367SOL    HW239999  12.999  14.361   4.507
79368SOL     OW40000   4.817  11.467   9.235
79368SOL    HW140001   4.858  11.435   9.315
79368SOL    HW240002   4.772  11.548   9.262
79369SOL     OW40003  11.742  14.107   6.887
79369SOL    HW140004  11.703  14.063   6.812
79369SOL    HW240005  11.674  14.169   6.916
79370SOL     OW40006   5.026   1.002   2.301
79370SOL    HW140007   4.995   1.063   2.235
79370SOL    HW240008   4.949   0.985   2.356
79371SOL     OW40009   5.381   5.139  14.740
79371SOL    HW140010   5.380   5.070  14.807
79371SOL    HW240011   5.288   5.152  14.719
79372SOL     OW40012  13.007   0.763   7.507
79372SOL    HW140013  12.924   0.811   7.510
79372SOL    HW240014  12.982   0.672   7.495
79373SOL     OW40015   9.089   5.736   6.787
79373SOL    HW140016   9.011   5.730   6.842
79373SOL    HW240017   9.094   5.652   6.742
79374SOL     OW40018   2.704   3.991   4.114
79374SOL    HW140019   2.653   3.917   4.082
79374SOL    HW240020   2.645   4.066   4.109
79375SOL     OW40021   3.447  12.677   2.398
79375SOL    HW140022   3.435  12.593   2.354
79375SOL    HW240023   3.527  12.667   2.449
79376SOL     OW40024  12.642  10.356   5.252
79376SOL    HW140025  12.567  10.353   5.193
79376SOL    HW240026  12.634  10.441   5.297
79377SOL     OW40027   8.033   7.391   1.526
79377SOL    HW140028   7.967   7.460   1.521
79377SOL    HW240029   8.075   7.404   1.611
79378SOL     OW40030   0.154  12.196   4.309
79378SOL    HW140031   0.233  12.242   4.280
79378SOL    HW240032   0.114  12.165   4.229
79379SOL     OW40033  12.427   8.677   1.133
79379SOL    HW140034  12.494   8.745   1.125
79379SOL    HW240035  12.473   8.595   1.112
79380SOL     OW40036  11.395   0.435  12.237
79380SOL    HW140037  11.451   0.503  12.276
79380SOL    HW240038  11.455   0.361  12.222
79381SOL     OW40039   1.049   7.393   6.514
79381SOL    HW140040   1.012   7.367   6.429
79381SOL    HW240041   1.117   7.457   6.491
79382SOL     OW40042   1.430  13.191   3.756
79382SOL    HW140043   1.344  13.151   3.747
79382SOL    HW240044   1.412  13.282   3.780
79383SOL     OW40045   5.961   4.601   2.808
79383SOL    HW140046   6.011   4.602   2.727
79383SOL    HW240047   5.898   4.672   2.799
79384SOL     OW40048   3.667   5.532   4.216
79384SOL    HW140049   3.663   5.526   4.121
79384SOL    HW240050   3.757   5.511   4.238
79385SOL     OW40051   1.654   8.292  10.677
79385SOL    HW140052   1.730   8.306  10.620
79385SOL    HW240053   1.690   8.291  10.766
79386SOL     OW40054   1.775  12.621  10.293
79386SOL    HW140055   1.722  12.542  10.307
79386SOL    HW240056   1.750  12.679  10.365
79387SOL     OW40057   9.845  12.016   0.571
79387SOL    HW140058   9.836  12.054   0.659
79387SOL    HW240059   9.862  11.923   0.587
79388SOL     OW40060   5.180   3.041  11.068
79388SOL    HW140061   5.261   3.055  11.019
79388SOL    HW240062   5.208   3.043  11.160
79389SOL     OW40063  11.750   9.268  13.562
79389SOL    HW140064  11.832   9.300  13.599
79389SOL    HW240065  11.727   9.193  13.617
79390SOL     OW40066   6.354   7.266   0.626
79390SOL    HW140067   6.432   7.230   0.584
79390SOL    HW240068   6.291   7.276   0.554
79391SOL     OW40069   7.443   0.570   1.071
79391SOL    HW140070   7.437   0.572   1.166
79391SOL    HW240071   7.383   0.640   1.042
79392SOL     OW40072  13.938  11.468   8.397
79392SOL    HW140073  13.950  11.536   8.331
79392SOL    HW240074  13.969  11.388   8.355
79393SOL     OW40075   2.866   8.230   2.156
79393SOL    HW140076   2.925   8.161   2.187
79393SOL    HW240077   2.911   8.312   2.178
79394SOL     OW40078  11.504  14.457   9.173
79394SOL    HW140079  11.417  14.454   9.134
79394SOL    HW240080  11.500  14.527   9.237
79395SOL     OW40081  12.000   7.430  10.567
79395SOL    HW140082  12.015   7.346  10.610
79395SOL    HW240083  12.021   7.495  10.633
79396SOL     OW40084  11.734   9.893   3.657
79396SOL    HW140085  11.709   9.819   3.603
79396SOL    HW240086  11.736   9.859   3.746
79397SOL     OW40087  10.118   0.768   8.588
79397SOL    HW140088  10.190   0.824   8.561
79397SOL    HW240089  10.140   0.682   8.552
79398SOL     OW40090   9.159   8.323  13.114
79398SOL    HW140091   9.066   8.302  13.125
79398SOL    HW240092   9.159   8.404  13.064
79399SOL     OW40093   3.399   1.955   0.388
79399SOL    HW140094   3.324   1.935   0.443
79399SOL    HW240095   3.452   1.875   0.389
79400SOL     OW40096   6.732  12.268   6.136
79400SOL    HW140097   6.656  12.225   6.096
79400SOL    HW240098   6.696  12.348   6.174
79401SOL     OW40099   7.040   1.254   1.880
79401SOL    HW140100   7.062   1.343   1.852
79401SOL    HW240101   6.963   1.231   1.828
79402SOL     OW40102  10.091   0.961  10.647
79402SOL    HW140103  10.057   0.887  10.697
79402SOL    HW240104  10.087   0.934  10.556
79403SOL     OW40105  11.890   4.315   9.156
79403SOL    HW140106  11.909   4.343   9.246
79403SOL    HW240107  11.975   4.309   9.114
79404SOL     OW40108  11.346   3.582  14.676
79404SOL    HW140109  11.342   3.497  14.720
79404SOL    HW240110  11.437   3.611  14.687
79405SOL     OW40111   2.394   4.825   6.528
79405SOL    HW140112   2.380   4.777   6.610
79405SOL    HW240113   2.488   4.816   6.511
79406SOL     OW40114   3.008   2.947   8.837
79406SOL    HW140115   3.095   2.985   8.825
79406SOL    HW240116   2.993   2.951   8.931
79407SOL     OW40117   9.649   2.720  11.508
79407SOL    HW140118   9.647   2.735  11.602
79407SOL    HW240119   9.736   2.748  11.480
79408SOL     OW40120   5.989   4.564   7.498
79408SOL    HW140121   5.899   4.575   7.469
79408SOL    HW240122   6.016   4.480   7.461
79409SOL     OW40123   1.911  14.258   7.935
79409SOL    HW140124   1.921  14.341   7.888
79409SOL    HW240125   1.829  14.221   7.901
79410SOL     OW40126   2.561   0.165  12.844
79410SOL    HW140127   2.579   0.076  12.813
79410SOL    HW240128   2.634   0.185  12.903
79411SOL     OW40129   7.726  12.669   9.570
79411SOL    HW140130   7.744  12.671   9.664
79411SOL    HW240131   7.748  12.757   9.540
79412SOL     OW40132   2.257   8.258  10.214
79412SOL    HW140133   2.341   8.212  10.202
79412SOL    HW240134   2.277   8.328  10.276
79413SOL     OW40135   0.679   6.155  14.300
79413SOL    HW140136   0.656   6.099  14.374
79413SOL    HW240137   0.625   6.233  14.311
79414SOL     OW40138  12.866   5.144   7.240
79414SOL    HW140139  12.783   5.137   7.288
79414SOL    HW240140  12.928   5.090   7.291
79415SOL     OW40141   1.259   0.566   1.672
79415SOL    HW140142   1.327   0.576   1.739
79415SOL    HW240143   1.188   0.519   1.716
79416SOL     OW40144  12.672   1.132   6.399
79416SOL    HW140145  12.714   1.112   6.482
79416SOL    HW240146  12.691   1.056   6.344
79417SOL     OW40147  10.696  14.806  10.961
79417SOL    HW140148  10.732  14.719  10.976
79417SOL    HW240149  10.645  14.797  10.880
79418SOL     OW40150   1.095  13.066   8.347
79418SOL    HW140151   1.113  13.043   8.438
79418SOL    HW240152   1.000  13.073   8.342
79419SOL     OW40153   1.460  10.459  13.474
79419SOL    HW140154   1.504  10.434  13.555
79419SOL    HW240155   1.423  10.378  13.440
79420SOL     OW40156   1.718  14.783  11.904
79420SOL    HW140157   1.668  14.853  11.944
79420SOL    HW240158   1.717  14.802  11.810
79421SOL     OW40159   0.749  13.989   4.378
79421SOL    HW140160   0.682  14.048   4.343
79421SOL    HW240161   0.726  13.903   4.344
79422SOL     OW40162   6.888  10.644  13.186
79422SOL    HW140163   6.949  10.666  13.115
79422SOL    HW240164   6.872  10.551  13.176
79423SOL     OW40165   0.276   0.183   3.139
79423SOL    HW140166   0.354   0.238   3.134
79423SOL    HW240167   0.234   0.209   3.221
79424SOL     OW40168   5.368   1.425   0.862
79424SOL    HW140169   5.298   1.459   0.919
79424SOL    HW240170   5.446   1.474   0.888
79425SOL     OW40171   8.434   8.948   4.088
79425SOL    HW140172   8.441   8.953   4.184
79425SOL    HW240173   8.496   9.014   4.056
79426SOL     OW40174  11.495  10.447   1.508
79426SOL    HW140175  11.410  10.431   1.466
79426SOL    HW240176  11.506  10.375   1.569
79427SOL     OW40177  10.898  11.433   4.899
79427SOL    HW140178  10.804  11.438   4.880
79427SOL    HW240179  10.940  11.477   4.826
79428SOL     OW40180   6.480   8.862   7.983
79428SOL    HW140181   6.547   8.909   8.033
79428SOL    HW240182   6.437   8.929   7.931
79429SOL     OW40183  13.521   6.917  10.065
79429SOL    HW140184  13.473   6.965  10.133
79429SOL    HW240185  13.480   6.830  10.064
79430SOL     OW40186   4.684   9.379  11.020
79430SOL    HW140187   4.708   9.385  11.112
79430SOL    HW240188   4.754   9.424  10.973
79431SOL     OW40189  12.123   4.607  13.519
79431SOL    HW140190  12.070   4.674  13.476
79431SOL    HW240191  12.132   4.638  13.609
79432SOL     OW40192  13.443  14.274   2.025
79432SOL    HW140193  13.353  14.298   2.007
79432SOL    HW240194  13.495  14.346   1.987
79433SOL     OW40195  12.261  10.718   3.152
79433SOL    HW140196  12.179  10.749   3.190
79433SOL    HW240197  12.264  10.759   3.066
79434SOL     OW40198   2.003  11.667   6.072
79434SOL    HW140199   1.926  11.647   6.125
79434SOL    HW240200   2.069  11.694   6.136
79435SOL     OW40201   2.266   4.064   2.331
79435SOL    HW140202   2.322   4.037   2.404
79435SOL    HW240203   2.258   4.158   2.341
79436SOL     OW40204  11.481   1.666   7.939
79436SOL    HW140205  11.541   1.611   7.888
79436SOL    HW240206  11.481   1.750   7.894
79437SOL     OW40207   2.245   0.053   2.879
79437SOL    HW140208   2.243  14.843   2.918
79437SOL    HW240209   2.319   0.096   2.923
79438SOL     OW40210   2.991   5.500  10.260
79438SOL    HW140211   3.070   5.539  10.221
79438SOL    HW240212   2.987   5.412  10.224
79439SOL     OW40213   6.288  11.803   3.920
79439SOL    HW140214   6.312  11.719   3.881
79439SOL    HW240215   6.272  11.861   3.845
79440SOL     OW40216   0.823   6.400  14.842
79440SOL    HW140217   0.750   6.452  14.876
79440SOL    HW240218   0.782   6.336  14.783
79441SOL     OW40219  10.475   1.609  10.009
79441SOL    HW140220  10.509   1.698  10.008
79441SOL    HW240221  10.503   1.573  10.092
79442SOL     OW40222  12.151   2.183  14.202
79442SOL    HW140223  12.130   2.103  14.250
79442SOL    HW240224  12.212   2.230  14.259
79443SOL     OW40225   4.789  12.950   0.513
79443SOL    HW140226   4.697  12.969   0.530
79443SOL    HW240227   4.812  13.007   0.440
79444SOL     OW40228   2.841   0.574   8.459
79444SOL    HW140229   2.772   0.605   8.518
79444SOL    HW240230   2.858   0.647   8.401
79445SOL     OW40231   9.987   9.797   8.051
79445SOL    HW140232  10.017   9.883   8.081
79445SOL    HW240233   9.930   9.766   8.122
79446SOL     OW40234  12.515   2.645   1.639
79446SOL    HW140235  12.521   2.559   1.597
79446SOL    HW240236  12.432   2.642   1.686
79447SOL     OW40237   9.588   8.743   8.016
79447SOL    HW140238   9.635   8.689   8.079
79447SOL    HW240239   9.605   8.702   7.931
79448SOL     OW40240   5.261   8.699   6.043
79448SOL    HW140241   5.322   8.678   5.972
79448SOL    HW240242   5.309   8.761   6.098
79449SOL     OW40243   8.557  10.660   1.285
79449SOL    HW140244   8.524  10.570   1.275
79449SOL    HW240245   8.490  10.715   1.246
79450SOL     OW40246   0.487   4.556   0.002
79450SOL    HW140247   0.523   4.502  14.809
79450SOL    HW240248   0.445   4.629  14.835
79451SOL     OW40249   8.790   0.052   1.053
79451SOL    HW140250   8.720   0.036   0.990
79451SOL    HW240251   8.861  14.872   1.025
79452SOL     OW40252   8.932   6.710   3.693
79452SOL    HW140253   8.999   6.644   3.677
79452SOL    HW240254   8.858   6.662   3.728
79453SOL     OW40255   2.743   0.054   5.394
79453SOL    HW140256   2.751   0.030   5.302
79453SOL    HW240257   2.708  14.854   5.437
79454SOL     OW40258  12.842   9.946   3.900
79454SOL    HW140259  12.857   9.858   3.867
79454SOL    HW240260  12.845   9.936   3.995
79455SOL     OW40261   6.004   2.653   3.308
79455SOL    HW140262   5.937   2.584   3.309
79455SOL    HW240263   6.040   2.650   3.220
79456SOL     OW40264   6.797   3.800  10.370
79456SOL    HW140265   6.822   3.815  10.461
79456SOL    HW240266   6.879   3.799  10.322
79457SOL     OW40267   3.593  14.132   8.943
79457SOL    HW140268   3.587  14.212   8.994
79457SOL    HW240269   3.686  14.119   8.928
79458SOL     OW40270   5.959  10.656  14.108
79458SOL    HW140271   6.012  10.611  14.041
79458SOL    HW240272   6.024  10.691  14.169
79459SOL     OW40273   2.351   5.612  12.202
79459SOL    HW140274   2.270   5.659  12.182
79459SOL    HW240275   2.345   5.596  12.297
79460SOL     OW40276   0.776  11.642   8.528
79460SOL    HW140277   0.849  11.699   8.553
79460SOL    HW240278   0.812  11.586   8.459
79461SOL     OW40279  14.706   4.501  14.587
79461SOL    HW140280  14.709   4.594  14.567
79461SOL    HW240281  14.792   4.468  14.558
79462SOL     OW40282   0.766   3.395   0.644
79462SOL    HW140283   0.787   3.355   0.728
79462SOL    HW240284   0.764   3.322   0.582
79463SOL     OW40285   2.098  11.327   0.400
79463SOL    HW140286   2.137  11.348   0.315
79463SOL    HW240287   2.168  11.341   0.463
79464SOL     OW40288   8.721   3.244  12.208
79464SOL    HW140289   8.655   3.191  12.252
79464SOL    HW240290   8.796   3.243  12.267
79465SOL     OW40291   8.653   4.299  12.014
79465SOL    HW140292   8.612   4.353  11.946
79465SOL    HW240293   8.741   4.282  11.981
79466SOL     OW40294  13.363   9.296   2.419
79466SOL    HW140295  13.370   9.378   2.469
79466SOL    HW240296  13.452   9.260   2.421
79467SOL     OW40297   6.851   8.846  10.571
79467SOL    HW140298   6.831   8.777  10.634
79467SOL    HW240299   6.787   8.833  10.501
79468SOL     OW40300   6.452   2.353   8.829
79468SOL    HW140301   6.496   2.438   8.828
79468SOL    HW240302   6.442   2.330   8.737
79469SOL     OW40303  14.689   1.686   9.740
79469SOL    HW140304  14.700   1.685   9.835
79469SOL    HW240305  14.647   1.602   9.720
79470SOL     OW40306   2.851   8.910   4.185
79470SOL    HW140307   2.901   8.960   4.120
79470SOL    HW240308   2.783   8.866   4.134
79471SOL     OW40309  12.265   6.311   0.339
79471SOL    HW140310  12.343   6.293   0.390
79471SOL    HW240311  12.243   6.227   0.298
79472SOL     OW40312  12.727   8.106   4.351
79472SOL    HW140313  12.732   8.034   4.288
79472SOL    HW240314  12.802   8.161   4.329
79473SOL     OW40315   9.802   5.788  12.883
79473SOL    HW140316   9.743   5.748  12.819
79473SOL    HW240317   9.784   5.740  12.965
79474SOL     OW40318  13.116  12.500  12.398
79474SOL    HW140319  13.123  12.407  12.418
79474SOL    HW240320  13.129  12.506  12.303
79475SOL     OW40321   6.177   3.362  10.802
79475SOL    HW140322   6.121   3.399  10.734
79475SOL    HW240323   6.145   3.273  10.814
79476SOL     OW40324  11.875  10.055   7.493
79476SOL    HW140325  11.830  10.115   7.553
79476SOL    HW240326  11.869   9.970   7.535
79477SOL     OW40327   7.127  12.894   6.566
79477SOL    HW140328   7.110  12.803   6.591
79477SOL    HW240329   7.107  12.944   6.645
79478SOL     OW40330  12.777  12.054   6.757
79478SOL    HW140331  12.692  12.010   6.752
79478SOL    HW240332  12.831  12.009   6.692
79479SOL     OW40333   0.171   0.318   2.880
79479SOL    HW140334   0.235   0.258   2.842
79479SOL    HW240335   0.086   0.282   2.854
79480SOL     OW40336   9.570   4.488   6.767
79480SOL    HW140337   9.502   4.545   6.803
79480SOL    HW240338   9.650   4.541   6.770
79481SOL     OW40339  13.124  10.041   9.242
79481SOL    HW140340  13.166  10.125   9.262
79481SOL    HW240341  13.056  10.032   9.309
79482SOL     OW40342  12.874  10.709   9.814
79482SOL    HW140343  12.789  10.751   9.797
79482SOL    HW240344  12.855  10.642   9.880
79483SOL     OW40345  12.550   7.562   3.879
79483SOL    HW140346  12.608   7.486   3.883
79483SOL    HW240347  12.469   7.528   3.841
79484SOL     OW40348   8.460   9.928   7.787
79484SOL    HW140349   8.397   9.946   7.717
79484SOL    HW240350   8.409   9.939   7.867
79485SOL     OW40351   7.389  10.311   9.535
79485SOL    HW140352   7.408  10.314   9.441
79485SOL    HW240353   7.432  10.389   9.570
79486SOL     OW40354   7.328  14.025   7.740
79486SOL    HW140355   7.370  14.106   7.711
79486SOL    HW240356   7.326  14.030   7.835
79487SOL     OW40357   9.507   3.104   9.208
79487SOL    HW140358   9.429   3.080   9.160
79487SOL    HW240359   9.577   3.105   9.142
79488SOL     OW40360   1.083  11.239   4.738
79488SOL    HW140361   1.162  11.198   4.774
79488SOL    HW240362   1.113  11.282   4.658
79489SOL     OW40363   8.182   5.774  11.137
79489SOL    HW140364   8.190   5.749  11.229
79489SOL    HW240365   8.099   5.735  11.109
79490SOL     OW40366   8.317   6.945   5.235
79490SOL    HW140367   8.402   6.904   5.253
79490SOL    HW240368   8.262   6.874   5.202
79491SOL     OW40369   8.009  14.522   5.197
79491SOL    HW140370   7.965  14.477   5.269
79491SOL    HW240371   7.944  14.524   5.127
79492SOL     OW40372   8.033  11.578   9.692
79492SOL    HW140373   8.110  11.577   9.749
79492SOL    HW240374   8.051  11.648   9.629
79493SOL     OW40375   4.331  11.438   9.281
79493SOL    HW140376   4.398  11.496   9.317
79493SOL    HW240377   4.381  11.366   9.241
79494SOL     OW40378  10.316   5.170   5.641
79494SOL    HW140379  10.300   5.259   5.612
79494SOL    HW240380  10.229   5.129   5.643
79495SOL     OW40381   5.230   9.176   5.459
79495SOL    HW140382   5.169   9.106   5.483
79495SOL    HW240383   5.183   9.227   5.392
79496SOL     OW40384   5.129   5.073   2.968
79496SOL    HW140385   5.088   5.026   2.895
79496SOL    HW240386   5.195   5.129   2.926
79497SOL     OW40387   2.386   8.109   1.740
79497SOL    HW140388   2.467   8.061   1.759
79497SOL    HW240389   2.392   8.188   1.793
79498SOL     OW40390   5.100  13.098   0.360
79498SOL    HW140391   5.137  13.176   0.318
79498SOL    HW240392   5.037  13.132   0.424
79499SOL     OW40393   9.412  13.445  12.901
79499SOL    HW140394   9.459  13.373  12.859
79499SOL    HW240395   9.475  13.517  12.900
79500SOL     OW40396   0.225   9.504   9.952
79500SOL    HW140397   0.165   9.569   9.988
79500SOL    HW240398   0.181   9.420   9.966
79501SOL     OW40399  12.035   3.685  12.155
79501SOL    HW140400  12.105   3.634  12.195
79501SOL    HW240401  12.000   3.629  12.086
79502SOL     OW40402  14.577   3.094   0.440
79502SOL    HW140403  14.593   3.101   0.346
79502SOL    HW240404  14.638   3.156   0.480
79503SOL     OW40405   1.770  13.957   9.723
79503SOL    HW140406   1.758  14.048   9.748
79503SOL    HW240407   1.864  13.947   9.708
79504SOL     OW40408   3.109   9.471   4.007
79504SOL    HW140409   3.102   9.550   3.952
79504SOL    HW240410   3.020   9.455   4.037
79505SOL     OW40411  14.619   7.117   6.505
79505SOL    HW140412  14.541   7.161   6.539
79505SOL    HW240413  14.627   7.038   6.558
79506SOL     OW40414   0.479  14.273   7.988
79506SOL    HW140415   0.436  14.315   8.062
79506SOL    HW240416   0.426  14.196   7.969
79507SOL     OW40417   7.828   1.576   4.263
79507SOL    HW140418   7.839   1.570   4.358
79507SOL    HW240419   7.754   1.518   4.244
79508SOL     OW40420   9.558   1.967   2.382
79508SOL    HW140421   9.605   1.959   2.299
79508SOL    HW240422   9.498   1.892   2.383
79509SOL     OW40423  11.367   7.360   6.105
79509SOL    HW140424  11.374   7.383   6.198
79509SOL    HW240425  11.277   7.329   6.094
79510SOL     OW40426  11.844   9.903   6.836
79510SOL    HW140427  11.901   9.889   6.761
79510SOL    HW240428  11.814   9.994   6.826
79511SOL     OW40429   8.121  13.488   7.948
79511SOL    HW140430   8.103  13.398   7.922
79511SOL    HW240431   8.177  13.522   7.879
79512SOL     OW40432   3.168   2.463   0.413
79512SOL    HW140433   3.187   2.447   0.505
79512SOL    HW240434   3.078   2.496   0.413
79513SOL     OW40435   5.748   3.631   8.286
79513SOL    HW140436   5.755   3.691   8.212
79513SOL    HW240437   5.789   3.550   8.254
79514SOL     OW40438   6.870  11.377   5.015
79514SOL    HW140439   6.822  11.295   5.026
79514SOL    HW240440   6.859  11.400   4.923
79515SOL     OW40441  12.917  12.666   4.798
79515SOL    HW140442  12.939  12.580   4.764
79515SOL    HW240443  12.822  12.673   4.789
79516SOL     OW40444  10.578   2.634   9.641
79516SOL    HW140445  10.587   2.723   9.608
79516SOL    HW240446  10.603   2.578   9.567
79517SOL     OW40447   3.238   0.047   5.243
79517SOL    HW140448   3.293   0.073   5.317
79517SOL    HW240449   3.246   0.119   5.180
79518SOL     OW40450  13.120   1.754   1.774
79518SOL    HW140451  13.060   1.736   1.702
79518SOL    HW240452  13.202   1.710   1.749
79519SOL     OW40453   5.115   8.247   7.566
79519SOL    HW140454   5.166   8.308   7.620
79519SOL    HW240455   5.032   8.292   7.552
79520SOL     OW40456  10.971   3.246   5.464
79520SOL    HW140457  10.964   3.342   5.470
79520SOL    HW240458  11.053   3.226   5.509
79521SOL     OW40459   6.549   5.103   7.057
79521SOL    HW140460   6.606   5.160   7.108
79521SOL    HW240461   6.536   5.026   7.112
79522SOL     OW40462  13.959   9.737   2.994
79522SOL    HW140463  14.048   9.701   2.992
79522SOL    HW240464  13.965   9.818   2.944
79523SOL     OW40465   7.996  12.653   9.122
79523SOL    HW140466   7.987  12.561   9.148
79523SOL    HW240467   7.922  12.670   9.065
79524SOL     OW40468   0.172   2.761   4.276
79524SOL    HW140469   0.185   2.674   4.313
79524SOL    HW240470   0.258   2.787   4.245
79525SOL     OW40471   3.437   6.990   5.933
79525SOL    HW140472   3.473   7.038   6.008
79525SOL    HW240473   3.511   6.981   5.873
79526SOL     OW40474  10.640   1.636   7.853
79526SOL    HW140475  10.721   1.633   7.905
79526SOL    HW240476  10.598   1.718   7.880
79527SOL     OW40477   0.142   3.918   1.291
79527SOL    HW140478   0.131   4.004   1.332
79527SOL    HW240479   0.086   3.860   1.344
79528SOL     OW40480   9.767   9.957   7.531
79528SOL    HW140481   9.801  10.035   7.575
79528SOL    HW240482   9.845   9.904   7.514
79529SOL     OW40483  13.307   8.608   7.054
79529SOL    HW140484  13.303   8.697   7.019
79529SOL    HW240485  13.401   8.593   7.070
79530SOL     OW40486   4.797   8.839   5.728
79530SOL    HW140487   4.811   8.934   5.726
79530SOL    HW240488   4.769   8.820   5.818
79531SOL     OW40489   7.128   4.035   6.750
79531SOL    HW140490   7.050   4.089   6.755
79531SOL    HW240491   7.143   4.022   6.657
79532SOL     OW40492   1.897  12.922   9.630
79532SOL    HW140493   1.890  12.830   9.601
79532SOL    HW240494   1.807  12.947   9.649
79533SOL     OW40495   7.994   9.395   8.984
79533SOL    HW140496   8.066   9.409   9.044
79533SOL    HW240497   7.970   9.303   8.995
79534SOL     OW40498   6.242  14.223   3.722
79534SOL    HW140499   6.175  14.248   3.785
79534SOL    HW240500   6.283  14.306   3.696
79535SOL     OW40501  11.731   5.318   2.266
79535SOL    HW140502  11.821   5.350   2.257
79535SOL    HW240503  11.729   5.235   2.219
79536SOL     OW40504   6.592  13.667   3.737
79536SOL    HW140505   6.643  13.608   3.681
79536SOL    HW240506   6.502  13.658   3.707
79537SOL     OW40507   3.297  13.197   6.630
79537SOL    HW140508   3.223  13.166   6.579
79537SOL    HW240509   3.262  13.270   6.682
79538SOL     OW40510   8.973   6.138   9.486
79538SOL    HW140511   8.972   6.068   9.552
79538SOL    HW240512   8.921   6.208   9.525
79539SOL     OW40513  13.753   6.693   3.336
79539SOL    HW140514  13.700   6.627   3.381
79539SOL    HW240515  13.841   6.657   3.335
79540SOL     OW40516  13.752   7.374   5.087
79540SOL    HW140517  13.810   7.427   5.142
79540SOL    HW240518  13.794   7.288   5.084
79541SOL     OW40519   9.860   3.701   9.612
79541SOL    HW140520   9.936   3.644   9.621
79541SOL    HW240521   9.878   3.753   9.534
79542SOL     OW40522   9.918   1.990   4.886
79542SOL    HW140523   9.968   2.042   4.949
79542SOL    HW240524   9.869   2.055   4.835
79543SOL     OW40525   9.114   0.293   5.308
79543SOL    HW140526   9.195   0.323   5.349
79543SOL    HW240527   9.097   0.207   5.348
79544SOL     OW40528  14.296   5.591   2.530
79544SOL    HW140529  14.274   5.605   2.622
79544SOL    HW240530  14.212   5.586   2.486
79545SOL     OW40531   0.486  10.299   4.035
79545SOL    HW140532   0.559  10.244   4.006
79545SOL    HW240533   0.516  10.337   4.118
79546SOL     OW40534   0.174   1.074   5.358
79546SOL    HW140535   0.161   1.165   5.331
79546SOL    HW240536   0.261   1.052   5.325
79547SOL     OW40537  11.847   2.305   4.091
79547SOL    HW140538  11.921   2.351   4.053
79547SOL    HW240539  11.881   2.220   4.117
79548SOL     OW40540   1.006   7.155   0.750
79548SOL    HW140541   1.013   7.088   0.683
79548SOL    HW240542   1.072   7.131   0.815
79549SOL     OW40543   4.487  10.063  12.674
79549SOL    HW140544   4.433   9.999  12.628
79549SOL    HW240545   4.524  10.015  12.748
79550SOL     OW40546   6.857  14.074   3.315
79550SOL    HW140547   6.909  14.007   3.359
79550SOL    HW240548   6.849  14.144   3.380
79551SOL     OW40549  13.967   8.708   3.123
79551SOL    HW140550  14.002   8.632   3.170
79551SOL    HW240551  14.045   8.756   3.094
79552SOL     OW40552  11.528   2.667  13.867
79552SOL    HW140553  11.453   2.616  13.836
79552SOL    HW240554  11.532   2.650  13.961
79553SOL     OW40555  11.857   0.142   7.226
79553SOL    HW140556  11.831   0.050   7.218
79553SOL    HW240557  11.897   0.162   7.141
79554SOL     OW40558   4.898   4.045   3.274
79554SOL    HW140559   4.918   4.103   3.201
79554SOL    HW240560   4.820   4.083   3.314
79555SOL     OW40561  10.387   5.431  10.383
79555SOL    HW140562  10.425   5.517  10.364
79555SOL    HW240563  10.378   5.429  10.478
79556SOL     OW40564   3.495   1.479   3.878
79556SOL    HW140565   3.424   1.486   3.814
79556SOL    HW240566   3.572   1.457   3.826
79557SOL     OW40567   4.064  13.121  10.028
79557SOL    HW140568   4.071  13.153   9.938
79557SOL    HW240569   4.148  13.146  10.068
79558SOL     OW40570   6.734   5.655  11.429
79558SOL    HW140571   6.781   5.574  11.450
79558SOL    HW240572   6.688   5.634  11.348
79559SOL     OW40573  14.738   2.665   5.517
79559SOL    HW140574  14.646   2.688   5.503
79559SOL    HW240575  14.747   2.579   5.477
79560SOL     OW40576  13.661   6.795   6.768
79560SOL    HW140577  13.585   6.829   6.721
79560SOL    HW240578  13.713   6.750   6.702
79561SOL     OW40579   9.342   7.456   3.960
79561SOL    HW140580   9.301   7.485   3.878
79561SOL    HW240581   9.268   7.441   4.019
79562SOL     OW40582   1.037  12.410   3.308
79562SOL    HW140583   0.954  12.371   3.336
79562SOL    HW240584   1.015  12.456   3.227
79563SOL     OW40585   6.214   4.951   3.027
79563SOL    HW140586   6.277   4.948   2.954
79563SOL    HW240587   6.207   5.044   3.048
79564SOL     OW40588   5.134  10.348  11.995
79564SOL    HW140589   5.166  10.265  12.031
79564SOL    HW240590   5.044  10.328  11.967
79565SOL     OW40591   1.220   1.532   6.866
79565SOL    HW140592   1.217   1.613   6.916
79565SOL    HW240593   1.155   1.476   6.907
79566SOL     OW40594  10.859   4.617  13.024
79566SOL    HW140595  10.934   4.676  13.030
79566SOL    HW240596  10.813   4.644  12.945
79567SOL     OW40597   4.026   2.917   2.110
79567SOL    HW140598   4.051   3.005   2.138
79567SOL    HW240599   4.093   2.860   2.147
79568SOL     OW40600   4.046  11.915  10.800
79568SOL    HW140601   4.067  11.912  10.893
79568SOL    HW240602   4.130  11.904  10.756
79569SOL     OW40603   5.879  14.211   6.411
79569SOL    HW140604   5.844  14.259   6.336
79569SOL    HW240605   5.901  14.278   6.475
79570SOL     OW40606   7.681  10.650   3.275
79570SOL    HW140607   7.683  10.746   3.269
79570SOL    HW240608   7.720  10.631   3.361
79571SOL     OW40609   9.222  10.116  13.232
79571SOL    HW140610   9.174  10.090  13.311
79571SOL    HW240611   9.222  10.038  13.177
79572SOL     OW40612   5.754  13.223   7.982
79572SOL    HW140613   5.703  13.281   7.925
79572SOL    HW240614   5.746  13.261   8.069
79573SOL     OW40615  10.782  12.364   2.539
79573SOL    HW140616  10.833  12.406   2.470
79573SOL    HW240617  10.694  12.400   2.529
79574SOL     OW40618  14.832   2.232   2.439
79574SOL    HW140619  14.860   2.314   2.480
79574SOL    HW240620  14.782   2.259   2.363
79575SOL     OW40621   6.740   5.229   9.387
79575SOL    HW140622   6.722   5.190   9.472
79575SOL    HW240623   6.686   5.308   9.384
79576SOL     OW40624  10.293   3.049   7.837
79576SOL    HW140625  10.354   2.989   7.794
79576SOL    HW240626  10.236   2.992   7.890
79577SOL     OW40627   0.929   9.120   4.343
79577SOL    HW140628   1.013   9.125   4.388
79577SOL    HW240629   0.890   9.039   4.375
79578SOL     OW40630   1.312   5.239   3.500
79578SOL    HW140631   1.324   5.168   3.564
79578SOL    HW240632   1.299   5.194   3.417
79579SOL     OW40633  11.570   2.458   3.095
79579SOL    HW140634  11.528   2.544   3.102
79579SOL    HW240635  11.504   2.396   3.127
79580SOL     OW40636   3.071   3.305  13.856
79580SOL    HW140637   3.050   3.239  13.922
79580SOL    HW240638   3.166   3.312  13.858
79581SOL     OW40639  11.192   2.912  14.266
79581SOL    HW140640  11.229   2.900  14.179
79581SOL    HW240641  11.228   2.996  14.296
79582SOL     OW40642   0.044  13.744   7.971
79582SOL    HW140643   0.139  13.741   7.981
79582SOL    HW240644   0.013  13.792   8.048
79583SOL     OW40645  13.750   4.541   5.596
79583SOL    HW140646  13.725   4.559   5.505
79583SOL    HW240647  13.693   4.469   5.622
79584SOL     OW40648   8.580   9.009  14.271
79584SOL    HW140649   8.522   8.958  14.328
79584SOL    HW240650   8.594   8.952  14.195
79585SOL     OW40651   2.916   6.916   3.446
79585SOL    HW140652   2.931   7.004   3.479
79585SOL    HW240653   2.880   6.930   3.358
79586SOL     OW40654   7.947   4.219   2.997
79586SOL    HW140655   8.032   4.264   2.995
79586SOL    HW240656   7.894   4.272   3.057
79587SOL     OW40657  12.005   3.750   4.977
79587SOL    HW140658  11.963   3.717   5.056
79587SOL    HW240659  11.945   3.816   4.943
79588SOL     OW40660   4.803   3.409  14.091
79588SOL    HW140661   4.853   3.344  14.141
79588SOL    HW240662   4.724   3.364  14.064
79589SOL     OW40663   8.400   8.842   8.739
79589SOL    HW140664   8.323   8.888   8.771
79589SOL    HW240665   8.440   8.805   8.818
79590SOL     OW40666   8.282   9.392   0.332
79590SOL    HW140667   8.209   9.356   0.383
79590SOL    HW240668   8.337   9.437   0.397
79591SOL     OW40669   1.582   0.351   5.803
79591SOL    HW140670   1.555   0.363   5.712
79591SOL    HW240671   1.527   0.412   5.852
79592SOL     OW40672   1.017  13.237   4.062
79592SOL    HW140673   1.013  13.324   4.100
79592SOL    HW240674   1.085  13.191   4.112
79593SOL     OW40675  11.983   9.882   3.311
79593SOL    HW140676  12.045   9.865   3.240
79593SOL    HW240677  12.032   9.932   3.375
79594SOL     OW40678  11.333  10.618  10.722
79594SOL    HW140679  11.406  10.581  10.672
79594SOL    HW240680  11.344  10.712  10.713
79595SOL     OW40681   0.866   6.941  12.293
79595SOL    HW140682   0.781   6.919  12.331
79595SOL    HW240683   0.922   6.867  12.317
79596SOL     OW40684   5.225   7.850   0.391
79596SOL    HW140685   5.135   7.882   0.402
79596SOL    HW240686   5.217   7.754   0.391
79597SOL     OW40687   4.962   0.279   7.676
79597SOL    HW140688   4.886   0.225   7.652
79597SOL    HW240689   4.996   0.238   7.756
79598SOL     OW40690   6.521   1.979  13.286
79598SOL    HW140691   6.539   2.069  13.257
79598SOL    HW240692   6.466   1.990  13.364
79599SOL     OW40693   4.258   7.835   5.119
79599SOL    HW140694   4.326   7.794   5.171
79599SOL    HW240695   4.177   7.795   5.149
79600SOL     OW40696   1.203   5.421   6.771
79600SOL    HW140697   1.131   5.442   6.831
79600SOL    HW240698   1.253   5.353   6.818
79601SOL     OW40699   1.618   6.990  12.056
79601SOL    HW140700   1.699   6.974  12.103
79601SOL    HW240701   1.554   7.012  12.124
79602SOL     OW40702  13.110   0.623  12.667
79602SOL    HW140703  13.084   0.544  12.618
79602SOL    HW240704  13.186   0.596  12.718
79603SOL     OW40705   7.282   1.166  10.442
79603SOL    HW140706   7.252   1.248  10.404
79603SOL    HW240707   7.234   1.098  10.394
79604SOL     OW40708   4.548   1.542   4.666
79604SOL    HW140709   4.507   1.537   4.753
79604SOL    HW240710   4.619   1.605   4.677
79605SOL     OW40711  12.421   2.577  12.697
79605SOL    HW140712  12.342   2.545  12.741
79605SOL    HW240713  12.439   2.661  12.739
79606SOL     OW40714   9.580  11.196   8.486
79606SOL    HW140715   9.599  11.279   8.531
79606SOL    HW240716   9.491  11.207   8.452
79607SOL     OW40717  11.063  11.086  12.069
79607SOL    HW140718  10.973  11.059  12.088
79607SOL    HW240719  11.062  11.181  12.076
79608SOL     OW40720   6.767   4.281   2.668
79608SOL    HW140721   6.770   4.204   2.610
79608SOL    HW240722   6.831   4.341   2.629
79609SOL     OW40723   4.120   2.819  12.853
79609SOL    HW140724   4.093   2.797  12.764
79609SOL    HW240725   4.037   2.834  12.899
79610SOL     OW40726   7.591  14.585   0.141
79610SOL    HW140727   7.497  14.597   0.132
79610SOL    HW240728   7.630  14.651   0.084
79611SOL     OW40729   2.719   4.932  14.806
79611SOL    HW140730   2.683   4.917   0.016
79611SOL    HW240731   2.739   5.026  14.804
79612SOL     OW40732   8.195   3.654   1.613
79612SOL    HW140733   8.206   3.572   1.661
79612SOL    HW240734   8.270   3.657   1.554
79613SOL     OW40735   8.144  10.213   4.191
79613SOL    HW140736   8.075  10.146   4.189
79613SOL    HW240737   8.164  10.230   4.099
79614SOL     OW40738  13.069  14.137   9.891
79614SOL    HW140739  13.164  14.139   9.880
79614SOL    HW240740  13.049  14.045   9.907
79615SOL     OW40741  11.330   5.917  12.837
79615SOL    HW140742  11.391   5.886  12.769
79615SOL    HW240743  11.252   5.863  12.826
79616SOL     OW40744   8.373   6.579  14.010
79616SOL    HW140745   8.308   6.636  13.969
79616SOL    HW240746   8.373   6.605  14.103
79617SOL     OW40747   6.375   1.581   1.603
79617SOL    HW140748   6.410   1.527   1.673
79617SOL    HW240749   6.282   1.592   1.625
79618SOL     OW40750   0.207   0.351  11.432
79618SOL    HW140751   0.152   0.343  11.353
79618SOL    HW240752   0.165   0.419  11.484
79619SOL     OW40753  12.782   3.534  14.787
79619SOL    HW140754  12.791   3.476  14.863
79619SOL    HW240755  12.718   3.491  14.731
79620SOL     OW40756   5.741  14.773  12.178
79620SOL    HW140757   5.709  14.685  12.200
79620SOL    HW240758   5.701  14.830  12.244
79621SOL     OW40759   9.133   1.148   6.866
79621SOL    HW140760   9.221   1.143   6.828
79621SOL    HW240761   9.132   1.232   6.912
79622SOL     OW40762   4.853   1.783   5.385
79622SOL    HW140763   4.772   1.813   5.427
79622SOL    HW240764   4.883   1.858   5.334
79623SOL     OW40765   7.714   5.148   8.741
79623SOL    HW140766   7.767   5.097   8.679
79623SOL    HW240767   7.771   5.161   8.816
79624SOL     OW40768   6.096  12.854   7.595
79624SOL    HW140769   6.133  12.779   7.548
79624SOL    HW240770   6.172  12.907   7.618
79625SOL     OW40771   3.391   1.388   8.758
79625SOL    HW140772   3.400   1.483   8.769
79625SOL    HW240773   3.308   1.378   8.710
79626SOL     OW40774   8.742   0.647   5.416
79626SOL    HW140775   8.708   0.611   5.498
79626SOL    HW240776   8.664   0.672   5.366
79627SOL     OW40777  13.738  10.905   3.487
79627SOL    HW140778  13.750  10.928   3.580
79627SOL    HW240779  13.785  10.821   3.478
79628SOL     OW40780  14.445   9.346   3.949
79628SOL    HW140781  14.383   9.308   4.012
79628SOL    HW240782  14.390   9.397   3.889
79629SOL     OW40783   7.120   5.292   8.412
79629SOL    HW140784   7.213   5.267   8.410
79629SOL    HW240785   7.079   5.232   8.350
79630SOL     OW40786  10.524   8.706  13.519
79630SOL    HW140787  10.613   8.709  13.483
79630SOL    HW240788  10.537   8.689  13.612
79631SOL     OW40789   4.832   0.073  14.149
79631SOL    HW140790   4.750   0.110  14.181
79631SOL    HW240791   4.890   0.077  14.225
79632SOL     OW40792   4.279   0.242   8.495
79632SOL    HW140793   4.268   0.153   8.529
79632SOL    HW240794   4.308   0.230   8.404
79633SOL     OW40795   9.735  13.527  10.083
79633SOL    HW140796   9.676  13.560  10.015
79633SOL    HW240797   9.809  13.587  10.081
79634SOL     OW40798   2.046   0.437   8.322
79634SOL    HW140799   2.054   0.458   8.229
79634SOL    HW240800   2.102   0.501   8.366
79635SOL     OW40801  10.569   8.630   5.527
79635SOL    HW140802  10.547   8.624   5.620
79635SOL    HW240803  10.614   8.714   5.518
79636SOL     OW40804  12.527   8.047   7.166
79636SOL    HW140805  12.553   7.963   7.204
79636SOL    HW240806  12.603   8.104   7.178
79637SOL     OW40807   2.323   0.056   1.994
79637SOL    HW140808   2.263   0.125   2.024
79637SOL    HW240809   2.410   0.093   2.006
79638SOL     OW40810  10.198   1.252   2.119
79638SOL    HW140811  10.201   1.189   2.191
79638SOL    HW240812  10.126   1.311   2.142
79639SOL     OW40813   9.138   3.816   8.844
79639SOL    HW140814   9.115   3.908   8.832
79639SOL    HW240815   9.074   3.784   8.907
79640SOL     OW40816   8.370   0.715   4.454
79640SOL    HW140817   8.434   0.786   4.453
79640SOL    HW240818   8.405   0.651   4.516
79641SOL     OW40819   8.812   7.360  14.848
79641SOL    HW140820   8.744   7.377   0.035
79641SOL    HW240821   8.798   7.269  14.821
79642SOL     OW40822  12.176  14.733  14.579
79642SOL    HW140823  12.131  14.786  14.645
79642SOL    HW240824  12.125  14.745  14.499
79643SOL     OW40825   9.530  14.415   2.065
79643SOL    HW140826   9.590  14.467   2.012
79643SOL    HW240827   9.535  14.327   2.028
79644SOL     OW40828  11.147   3.100  12.824
79644SOL    HW140829  11.139   3.120  12.731
79644SOL    HW240830  11.163   3.006  12.827
79645SOL     OW40831  14.021   2.399   3.914
79645SOL    HW140832  14.015   2.303   3.917
79645SOL    HW240833  14.092   2.420   3.975
79646SOL     OW40834   3.740   3.352  12.965
79646SOL    HW140835   3.762   3.365  13.058
79646SOL    HW240836   3.821   3.320  12.926
79647SOL     OW40837   9.762  13.232  13.897
79647SOL    HW140838   9.672  13.246  13.870
79647SOL    HW240839   9.797  13.320  13.910
79648SOL     OW40840   9.577   2.215   7.571
79648SOL    HW140841   9.497   2.266   7.557
79648SOL    HW240842   9.636   2.243   7.501
79649SOL     OW40843   7.257  13.872  11.040
79649SOL    HW140844   7.293  13.916  10.963
79649SOL    HW240845   7.255  13.779  11.015
79650SOL     OW40846   7.763   9.458   0.686
79650SOL    HW140847   7.786   9.367   0.708
79650SOL    HW240848   7.712   9.451   0.605
79651SOL     OW40849  10.191   2.403  13.972
79651SOL    HW140850  10.178   2.475  14.033
79651SOL    HW240851  10.173   2.324  14.023
79652SOL     OW40852  11.354   4.416  10.844
79652SOL    HW140853  11.389   4.407  10.755
79652SOL    HW240854  11.260   4.402  10.835
79653SOL     OW40855   2.599  14.185  14.389
79653SOL    HW140856   2.636  14.262  14.431
79653SOL    HW240857   2.514  14.214  14.356
79654SOL     OW40858   0.717  10.668   3.314
79654SOL    HW140859   0.805  10.631   3.330
79654SOL    HW240860   0.726  10.761   3.334
79655SOL     OW40861  13.423  13.776   3.007
79655SOL    HW140862  13.444  13.736   3.091
79655SOL    HW240863  13.358  13.717   2.968
79656SOL     OW40864   2.573  12.260   9.058
79656SOL    HW140865   2.544  12.273   8.968
79656SOL    HW240866   2.534  12.177   9.085
79657SOL     OW40867   8.171   4.227   9.657
79657SOL    HW140868   8.209   4.277   9.585
79657SOL    HW240869   8.235   4.236   9.728
79658SOL     OW40870   8.567   8.228   0.758
79658SOL    HW140871   8.579   8.169   0.832
79658SOL    HW240872   8.575   8.316   0.795
79659SOL     OW40873  13.604   7.821   9.543
79659SOL    HW140874  13.619   7.914   9.526
79659SOL    HW240875  13.588   7.783   9.456
79660SOL     OW40876   5.685   9.315   5.485
79660SOL    HW140877   5.663   9.326   5.393
79660SOL    HW240878   5.602   9.290   5.527
79661SOL     OW40879   3.547  11.252  11.285
79661SOL    HW140880   3.456  11.268  11.310
79661SOL    HW240881   3.574  11.331  11.240
79662SOL     OW40882   9.073   1.743   8.385
79662SOL    HW140883   8.987   1.746   8.428
79662SOL    HW240884   9.131   1.706   8.451
79663SOL     OW40885   2.991   4.230   9.960
79663SOL    HW140886   3.026   4.266  10.042
79663SOL    HW240887   2.999   4.136   9.970
79664SOL     OW40888   7.088  12.479  14.419
79664SOL    HW140889   7.140  12.559  14.424
79664SOL    HW240890   7.023  12.488  14.489
79665SOL     OW40891   3.849   4.710   5.984
79665SOL    HW140892   3.889   4.796   5.992
79665SOL    HW240893   3.868   4.667   6.067
79666SOL     OW40894  12.310   6.797  12.062
79666SOL    HW140895  12.287   6.857  11.991
79666SOL    HW240896  12.226   6.770  12.099
79667SOL     OW40897   7.409   6.433   1.760
79667SOL    HW140898   7.445   6.494   1.697
79667SOL    HW240899   7.438   6.466   1.845
79668SOL     OW40900   7.385   1.764   6.636
79668SOL    HW140901   7.313   1.703   6.654
79668SOL    HW240902   7.375   1.786   6.543
79669SOL     OW40903  10.241   2.038  12.761
79669SOL    HW140904  10.202   1.951  12.748
79669SOL    HW240905  10.242   2.050  12.856
79670SOL     OW40906   7.089   1.775   6.532
79670SOL    HW140907   7.120   1.686   6.544
79670SOL    HW240908   7.095   1.790   6.437
79671SOL     OW40909   2.419   4.590  14.220
79671SOL    HW140910   2.497   4.647  14.217
79671SOL    HW240911   2.400   4.572  14.128
79672SOL     OW40912   8.839   5.086  14.712
79672SOL    HW140913   8.795   5.136  14.643
79672SOL    HW240914   8.841   5.146  14.786
79673SOL     OW40915   8.059   5.579  13.066
79673SOL    HW140916   7.982   5.563  13.120
79673SOL    HW240917   8.044   5.528  12.986
79674SOL     OW40918   2.241  12.179   9.225
79674SOL    HW140919   2.220  12.206   9.315
79674SOL    HW240920   2.222  12.257   9.172
79675SOL     OW40921   2.519   2.739  11.713
79675SOL    HW140922   2.430   2.768  11.690
79675SOL    HW240923   2.517   2.730  11.808
79676SOL     OW40924   9.280   9.308   2.350
79676SOL    HW140925   9.355   9.249   2.357
79676SOL    HW240926   9.204   9.251   2.344
79677SOL     OW40927   1.120  13.219   6.125
79677SOL    HW140928   1.111  13.125   6.108
79677SOL    HW240929   1.208  13.228   6.161
79678SOL     OW40930  13.746  13.190   6.151
79678SOL    HW140931  13.729  13.278   6.184
79678SOL    HW240932  13.659  13.149   6.146
79679SOL     OW40933   2.615  13.919  13.248
79679SOL    HW140934   2.558  13.964  13.186
79679SOL    HW240935   2.621  13.829  13.214
79680SOL     OW40936   2.981   4.797   2.264
79680SOL    HW140937   3.028   4.818   2.344
79680SOL    HW240938   2.889   4.792   2.290
79681SOL     OW40939   8.534   7.081   9.745
79681SOL    HW140940   8.514   7.045   9.658
79681SOL    HW240941   8.621   7.119   9.735
79682SOL     OW40942  10.332  14.689   3.341
79682SOL    HW140943  10.375  14.669   3.424
79682SOL    HW240944  10.334  14.606   3.293
79683SOL     OW40945   2.233   8.055   4.519
79683SOL    HW140946   2.230   7.979   4.462
79683SOL    HW240947   2.312   8.043   4.572
79684SOL     OW40948   0.853  12.567   3.581
79684SOL    HW140949   0.904  12.513   3.642
79684SOL    HW240950   0.853  12.517   3.499
79685SOL     OW40951   4.802   8.623   5.529
79685SOL    HW140952   4.814   8.548   5.587
79685SOL    HW240953   4.800   8.699   5.587
79686SOL     OW40954  13.513   4.750   2.685
79686SOL    HW140955  13.436   4.805   2.692
79686SOL    HW240956  13.562   4.786   2.610
79687SOL     OW40957   0.312   2.481   1.437
79687SOL    HW140958   0.370   2.405   1.426
79687SOL    HW240959   0.263   2.462   1.517
79688SOL     OW40960  14.437   7.549   1.226
79688SOL    HW140961  14.492   7.480   1.190
79688SOL    HW240962  14.429   7.613   1.156
79689SOL     OW40963   4.842   4.565  10.724
79689SOL    HW140964   4.842   4.469  10.718
79689SOL    HW240965   4.908   4.585  10.790
79690SOL     OW40966   2.726  14.397   6.045
79690SOL    HW140967   2.770  14.314   6.026
79690SOL    HW240968   2.697  14.387   6.136
79691SOL     OW40969  13.502  14.682  10.356
79691SOL    HW140970  13.525  14.614  10.293
79691SOL    HW240971  13.583  14.701  10.402
79692SOL     OW40972   5.012   2.360  13.719
79692SOL    HW140973   4.959   2.302  13.665
79692SOL    HW240974   4.952   2.394  13.785
79693SOL     OW40975   0.206  11.934   8.898
79693SOL    HW140976   0.161  11.850   8.901
79693SOL    HW240977   0.239  11.941   8.808
79694SOL     OW40978   8.896   2.319  12.140
79694SOL    HW140979   8.984   2.293  12.110
79694SOL    HW240980   8.836   2.274  12.081
79695SOL     OW40981  14.103  13.482  14.244
79695SOL    HW140982  14.031  13.427  14.274
79695SOL    HW240983  14.103  13.556  14.304
79696SOL     OW40984   1.840  13.422   5.543
79696SOL    HW140985   1.923  13.447   5.503
79696SOL    HW240986   1.865  13.380   5.625
79697SOL     OW40987   3.085   2.833   7.976
79697SOL    HW140988   3.075   2.809   7.884
79697SOL    HW240989   3.147   2.906   7.975
79698SOL     OW40990  12.481   1.668  10.836
79698SOL    HW140991  12.429   1.659  10.916
79698SOL    HW240992  12.523   1.583  10.825
79699SOL     OW40993   4.024  12.793   9.522
79699SOL    HW140994   4.074  12.787   9.603
79699SOL    HW240995   4.008  12.887   9.511
79700SOL     OW40996  11.990   7.240   1.296
79700SOL    HW140997  12.068   7.283   1.262
79700SOL    HW240998  11.923   7.309   1.299
79701SOL     OW40999   1.305  14.324   9.516
79701SOL    HW141000   1.213  14.347   9.500
79701SOL    HW241001   1.351  14.357   9.438
79702SOL     OW41002   3.933   9.488   0.550
79702SOL    HW141003   3.977   9.533   0.478
79702SOL    HW241004   3.890   9.413   0.508
79703SOL     OW41005   7.210   8.522   9.945
79703SOL    HW141006   7.297   8.529   9.906
79703SOL    HW241007   7.150   8.525   9.871
79704SOL     OW41008   6.072   1.017   3.303
79704SOL    HW141009   6.061   1.052   3.214
79704SOL    HW241010   6.039   1.086   3.360
79705SOL     OW41011   2.975  11.887  11.603
79705SOL    HW141012   3.023  11.935  11.669
79705SOL    HW241013   2.894  11.861  11.646
79706SOL     OW41014   7.528  14.206   3.254
79706SOL    HW141015   7.523  14.172   3.343
79706SOL    HW241016   7.516  14.129   3.198
79707SOL     OW41017   2.131  12.490   1.023
79707SOL    HW141018   2.073  12.415   1.005
79707SOL    HW241019   2.158  12.477   1.114
79708SOL     OW41020  12.500   8.348   2.337
79708SOL    HW141021  12.534   8.393   2.260
79708SOL    HW241022  12.424   8.299   2.305
79709SOL     OW41023  11.212   0.824   8.564
79709SOL    HW141024  11.229   0.747   8.510
79709SOL    HW241025  11.290   0.879   8.553
79710SOL     OW41026  13.588   3.821   4.983
79710SOL    HW141027  13.652   3.775   4.929
79710SOL    HW241028  13.624   3.815   5.072
79711SOL     OW41029   9.155  10.270   6.225
79711SOL    HW141030   9.223  10.273   6.293
79711SOL    HW241031   9.083  10.321   6.261
79712SOL     OW41032   9.355   1.161  10.581
79712SOL    HW141033   9.271   1.116  10.573
79712SOL    HW241034   9.411   1.098  10.628
79713SOL     OW41035   8.845  13.893   2.933
79713SOL    HW141036   8.766  13.842   2.948
79713SOL    HW241037   8.853  13.898   2.837
79714SOL     OW41038  12.426   7.300   5.131
79714SOL    HW141039  12.421   7.315   5.036
79714SOL    HW241040  12.505   7.246   5.141
79715SOL     OW41041  13.175   4.061  12.456
79715SOL    HW141042  13.234   4.136  12.463
79715SOL    HW241043  13.095   4.089  12.501
79716SOL     OW41044   4.696  11.817   2.753
79716SOL    HW141045   4.789  11.839   2.759
79716SOL    HW241046   4.653  11.899   2.731
79717SOL     OW41047   9.649  11.147   2.318
79717SOL    HW141048   9.682  11.108   2.399
79717SOL    HW241049   9.592  11.218   2.348
79718SOL     OW41050  14.327  10.073  13.758
79718SOL    HW141051  14.337  10.147  13.699
79718SOL    HW241052  14.415  10.056  13.790
79719SOL     OW41053   8.658   4.012   7.874
79719SOL    HW141054   8.744   4.039   7.909
79719SOL    HW241055   8.595   4.066   7.922
79720SOL     OW41056   4.574   3.101   9.888
79720SOL    HW141057   4.624   3.108   9.969
79720SOL    HW241058   4.492   3.058   9.914
79721SOL     OW41059  11.774   9.656  14.002
79721SOL    HW141060  11.730   9.718  14.060
79721SOL    HW241061  11.716   9.648  13.927
79722SOL     OW41062   2.128  12.134   7.460
79722SOL    HW141063   2.096  12.209   7.509
79722SOL    HW241064   2.102  12.153   7.369
79723SOL     OW41065  12.130  12.017   2.481
79723SOL    HW141066  12.105  11.956   2.550
79723SOL    HW241067  12.225  12.022   2.486
79724SOL     OW41068  10.317   6.284  11.791
79724SOL    HW141069  10.307   6.259  11.882
79724SOL    HW241070  10.281   6.373  11.786
79725SOL     OW41071  12.786   5.614   8.147
79725SOL    HW141072  12.832   5.603   8.231
79725SOL    HW241073  12.807   5.534   8.098
79726SOL     OW41074   9.328   4.829   5.120
79726SOL    HW141075   9.359   4.875   5.041
79726SOL    HW241076   9.282   4.896   5.170
79727SOL     OW41077  12.068  12.747   6.316
79727SOL    HW141078  12.040  12.697   6.393
79727SOL    HW241079  12.027  12.703   6.242
79728SOL     OW41080   1.039   5.493   9.973
79728SOL    HW141081   1.129   5.502  10.002
79728SOL    HW241082   1.040   5.517   9.881
79729SOL     OW41083  12.292   0.388  14.066
79729SOL    HW141084  12.387   0.390  14.077
79729SOL    HW241085  12.258   0.365  14.152
79730SOL     OW41086   1.710   6.104   1.278
79730SOL    HW141087   1.805   6.096   1.280
79730SOL    HW241088   1.683   6.087   1.368
79731SOL     OW41089  14.434   9.514   0.255
79731SOL    HW141090  14.391   9.597   0.275
79731SOL    HW241091  14.415   9.458   0.330
79732SOL     OW41092   0.472   6.679   4.897
79732SOL    HW141093   0.548   6.623   4.915
79732SOL    HW241094   0.481   6.701   4.805
79733SOL     OW41095   4.707   7.210   5.813
79733SOL    HW141096   4.620   7.199   5.774
79733SOL    HW241097   4.764   7.153   5.762
79734SOL     OW41098   5.161   7.827   6.285
79734SOL    HW141099   5.135   7.861   6.200
79734SOL    HW241100   5.097   7.758   6.304
79735SOL     OW41101   5.362  14.007   0.883
79735SOL    HW141102   5.269  14.023   0.901
79735SOL    HW241103   5.387  14.077   0.822
79736SOL     OW41104   9.518   2.522   6.759
79736SOL    HW141105   9.501   2.496   6.668
79736SOL    HW241106   9.451   2.476   6.810
79737SOL     OW41107   7.170   6.868   1.077
79737SOL    HW141108   7.189   6.864   0.983
79737SOL    HW241109   7.256   6.859   1.119
79738SOL     OW41110   2.628   7.588   8.802
79738SOL    HW141111   2.646   7.502   8.764
79738SOL    HW241112   2.643   7.576   8.896
79739SOL     OW41113   5.145  10.212   6.484
79739SOL    HW141114   5.084  10.141   6.464
79739SOL    HW241115   5.131  10.230   6.577
79740SOL     OW41116  10.299   7.188  13.365
79740SOL    HW141117  10.269   7.274  13.335
79740SOL    HW241118  10.392   7.201  13.386
79741SOL     OW41119  10.468  12.313  12.030
79741SOL    HW141120  10.524  12.305  12.108
79741SOL    HW241121  10.424  12.398  12.042
79742SOL     OW41122   2.918   6.960   8.417
79742SOL    HW141123   2.979   7.004   8.357
79742SOL    HW241124   2.837   7.011   8.409
79743SOL     OW41125   9.065   9.601  12.740
79743SOL    HW141126   8.980   9.604  12.694
79743SOL    HW241127   9.042   9.598  12.833
79744SOL     OW41128   0.213   6.406   8.713
79744SOL    HW141129   0.134   6.374   8.671
79744SOL    HW241130   0.183   6.441   8.797
79745SOL     OW41131   5.947   0.088   1.917
79745SOL    HW141132   5.852   0.073   1.916
79745SOL    HW241133   5.971   0.096   1.825
79746SOL     OW41134  10.486   6.045   5.635
79746SOL    HW141135  10.576   6.063   5.660
79746SOL    HW241136  10.442   6.130   5.640
79747SOL     OW41137   9.876   0.062   6.079
79747SOL    HW141138   9.860   0.147   6.120
79747SOL    HW241139   9.896   0.082   5.988
79748SOL     OW41140   3.064   1.487   7.918
79748SOL    HW141141   3.080   1.547   7.991
79748SOL    HW241142   3.152   1.460   7.889
79749SOL     OW41143   8.202   1.481  10.220
79749SOL    HW141144   8.115   1.513  10.197
79749SOL    HW241145   8.192   1.386  10.225
79750SOL     OW41146   9.424   2.920   6.097
79750SOL    HW141147   9.364   2.992   6.116
79750SOL    HW241148   9.473   2.948   6.020
79751SOL     OW41149   9.305   9.587   6.839
79751SOL    HW141150   9.279   9.582   6.931
79751SOL    HW241151   9.312   9.496   6.811
79752SOL     OW41152  13.756  10.196   0.429
79752SOL    HW141153  13.753  10.286   0.462
79752SOL    HW241154  13.729  10.142   0.503
79753SOL     OW41155   5.241   6.774  14.239
79753SOL    HW141156   5.226   6.848  14.298
79753SOL    HW241157   5.169   6.713  14.257
79754SOL     OW41158   3.291   1.344   6.167
79754SOL    HW141159   3.270   1.430   6.130
79754SOL    HW241160   3.284   1.356   6.262
79755SOL     OW41161   3.080   1.516   6.947
79755SOL    HW141162   3.095   1.581   7.015
79755SOL    HW241163   3.085   1.566   6.865
79756SOL     OW41164   3.424  14.723   3.733
79756SOL    HW141165   3.415  14.802   3.787
79756SOL    HW241166   3.396  14.651   3.791
79757SOL     OW41167   0.103  10.521   8.630
79757SOL    HW141168   0.173  10.571   8.673
79757SOL    HW241169   0.145  10.441   8.601
79758SOL     OW41170   9.808   3.853   1.725
79758SOL    HW141171   9.799   3.860   1.820
79758SOL    HW241172   9.859   3.930   1.700
79759SOL     OW41173   4.753  11.617  10.998
79759SOL    HW141174   4.689  11.684  10.972
79759SOL    HW241175   4.703  11.556  11.052
79760SOL     OW41176   0.025  14.567   4.167
79760SOL    HW141177  14.868  14.480   4.185
79760SOL    HW241178   0.090  14.553   4.098
79761SOL     OW41179   8.594   5.396   8.544
79761SOL    HW141180   8.545   5.470   8.506
79761SOL    HW241181   8.633   5.352   8.469
79762SOL     OW41182   2.849  11.858   0.474
79762SOL    HW141183   2.763  11.898   0.459
79762SOL    HW241184   2.879  11.832   0.387
79763SOL     OW41185   2.997   0.066   3.210
79763SOL    HW141186   2.967  14.869   3.262
79763SOL    HW241187   3.092   0.054   3.202
79764SOL     OW41188   9.357   1.985   1.481
79764SOL    HW141189   9.273   1.952   1.450
79764SOL    HW241190   9.365   1.952   1.570
79765SOL     OW41191   2.227   5.481   8.674
79765SOL    HW141192   2.312   5.513   8.644
79765SOL    HW241193   2.171   5.559   8.677
79766SOL     OW41194  12.659  12.977   1.044
79766SOL    HW141195  12.740  12.928   1.037
79766SOL    HW241196  12.613  12.961   0.962
79767SOL     OW41197   4.036  11.474   1.025
79767SOL    HW141198   4.031  11.380   1.005
79767SOL    HW241199   4.079  11.512   0.949
79768SOL     OW41200   5.500   4.339  13.914
79768SOL    HW141201   5.447   4.269  13.953
79768SOL    HW241202   5.588   4.324  13.948
79769SOL     OW41203   6.705   7.498  14.465
79769SOL    HW141204   6.796   7.506  14.436
79769SOL    HW241205   6.666   7.434  14.406
79770SOL     OW41206   8.093  13.916   7.877
79770SOL    HW141207   8.052  13.953   7.798
79770SOL    HW241208   8.186  13.932   7.864
79771SOL     OW41209  11.917   5.433   6.734
79771SOL    HW141210  12.001   5.408   6.695
79771SOL    HW241211  11.894   5.360   6.791
79772SOL     OW41212   4.288   5.292   6.197
79772SOL    HW141213   4.197   5.319   6.194
79772SOL    HW241214   4.302   5.244   6.116
79773SOL     OW41215  13.374   6.267  12.258
79773SOL    HW141216  13.290   6.227  12.282
79773SOL    HW241217  13.359   6.361  12.266
79774SOL     OW41218   6.095   9.405  12.362
79774SOL    HW141219   6.077   9.323  12.317
79774SOL    HW241220   6.015   9.425  12.410
79775SOL     OW41221   0.764   0.112  11.779
79775SOL    HW141222   0.675   0.097  11.748
79775SOL    HW241223   0.753   0.153  11.865
79776SOL     OW41224   7.403   6.405   7.431
79776SOL    HW141225   7.438   6.352   7.360
79776SOL    HW241226   7.309   6.386   7.432
79777SOL     OW41227   1.138   6.008   6.657
79777SOL    HW141228   1.068   5.984   6.718
79777SOL    HW241229   1.177   5.924   6.632
79778SOL     OW41230   3.529   6.151   1.477
79778SOL    HW141231   3.485   6.141   1.393
79778SOL    HW241232   3.623   6.144   1.456
79779SOL     OW41233   2.934  13.323   9.883
79779SOL    HW141234   2.895  13.237   9.868
79779SOL    HW241235   2.971  13.348   9.798
79780SOL     OW41236   7.652   1.755   5.566
79780SOL    HW141237   7.678   1.827   5.508
79780SOL    HW241238   7.721   1.689   5.555
79781SOL     OW41239   5.719   9.717  12.166
79781SOL    HW141240   5.724   9.625  12.192
79781SOL    HW241241   5.776   9.762  12.229
79782SOL     OW41242   3.058   8.401   2.248
79782SOL    HW141243   3.152   8.388   2.236
79782SOL    HW241244   3.044   8.387   2.342
79783SOL     OW41245   6.442   9.514   9.663
79783SOL    HW141246   6.361   9.559   9.639
79783SOL    HW241247   6.463   9.459   9.587
79784SOL     OW41248  10.969  13.548   4.663
79784SOL    HW141249  10.910  13.565   4.736
79784SOL    HW241250  10.913  13.517   4.592
79785SOL     OW41251  12.920  12.741  13.944
79785SOL    HW141252  12.958  12.657  13.969
79785SOL    HW241253  12.989  12.785  13.894
79786SOL     OW41254   5.602  13.368   6.350
79786SOL    HW141255   5.656  13.389   6.425
79786SOL    HW241256   5.662  13.327   6.288
79787SOL     OW41257  13.914  14.187  12.745
79787SOL    HW141258  13.974  14.179  12.671
79787SOL    HW241259  13.967  14.226  12.814
79788SOL     OW41260   8.102  11.197  10.703
79788SOL    HW141261   8.069  11.110  10.722
79788SOL    HW241262   8.159  11.184  10.627
79789SOL     OW41263   5.561  14.677   4.954
79789SOL    HW141264   5.494  14.650   4.890
79789SOL    HW241265   5.537  14.630   5.034
79790SOL     OW41266  13.993   9.145  11.982
79790SOL    HW141267  13.915   9.142  12.038
79790SOL    HW241268  13.970   9.090  11.907
79791SOL     OW41269  12.260   0.951   4.661
79791SOL    HW141270  12.196   0.880   4.654
79791SOL    HW241271  12.236   0.997   4.741
79792SOL     OW41272   7.026  14.071   2.425
79792SOL    HW141273   6.965  13.997   2.421
79792SOL    HW241274   6.973  14.143   2.457
79793SOL     OW41275   5.271   5.774   0.046
79793SOL    HW141276   5.345   5.714   0.060
79793SOL    HW241277   5.253   5.810   0.133
79794SOL     OW41278   2.233   4.957   2.021
79794SOL    HW141279   2.197   5.018   1.957
79794SOL    HW241280   2.162   4.944   2.085
79795SOL     OW41281  10.461   9.196   4.987
79795SOL    HW141282  10.457   9.268   4.924
79795SOL    HW241283  10.456   9.239   5.073
79796SOL     OW41284  14.077   4.663   7.293
79796SOL    HW141285  14.030   4.735   7.252
79796SOL    HW241286  14.071   4.681   7.387
79797SOL     OW41287  10.401   8.119   2.130
79797SOL    HW141288  10.370   8.208   2.110
79797SOL    HW241289  10.464   8.099   2.061
79798SOL     OW41290  10.833   8.478   9.193
79798SOL    HW141291  10.752   8.446   9.154
79798SOL    HW241292  10.833   8.572   9.173
79799SOL     OW41293  10.369   2.126   4.384
79799SOL    HW141294  10.416   2.118   4.301
79799SOL    HW241295  10.368   2.037   4.420
79800SOL     OW41296  10.134   6.181  14.473
79800SOL    HW141297  10.063   6.126  14.506
79800SOL    HW241298  10.104   6.271  14.487
79801SOL     OW41299   9.947   5.462   6.169
79801SOL    HW141300  10.042   5.462   6.174
79801SOL    HW241301   9.921   5.546   6.206
79802SOL     OW41302   4.624   0.381   7.676
79802SOL    HW141303   4.713   0.359   7.701
79802SOL    HW241304   4.586   0.423   7.753
79803SOL     OW41305  13.022   1.148   2.812
79803SOL    HW141306  13.068   1.064   2.810
79803SOL    HW241307  12.955   1.136   2.879
79804SOL     OW41308   7.788   0.496  11.929
79804SOL    HW141309   7.865   0.471  11.877
79804SOL    HW241310   7.777   0.425  11.992
79805SOL     OW41311   7.444   3.781  12.781
79805SOL    HW141312   7.365   3.806  12.732
79805SOL    HW241313   7.512   3.839  12.747
79806SOL     OW41314   0.161   3.911  13.540
79806SOL    HW141315   0.246   3.881  13.507
79806SOL    HW241316   0.142   3.852  13.613
79807SOL     OW41317   7.839   4.631   3.330
79807SOL    HW141318   7.922   4.654   3.288
79807SOL    HW241319   7.864   4.586   3.411
79808SOL     OW41320   9.299  13.490   3.869
79808SOL    HW141321   9.342  13.542   3.801
79808SOL    HW241322   9.206  13.511   3.861
79809SOL     OW41323   6.654  10.336  14.489
79809SOL    HW141324   6.713  10.261  14.500
79809SOL    HW241325   6.580  10.316  14.547
79810SOL     OW41326   4.075   9.063   6.386
79810SOL    HW141327   3.988   9.097   6.364
79810SOL    HW241328   4.065   8.968   6.386
79811SOL     OW41329   4.169  10.053   6.396
79811SOL    HW141330   4.260  10.049   6.368
79811SOL    HW241331   4.119  10.015   6.324
79812SOL     OW41332   8.290   8.074   7.212
79812SOL    HW141333   8.230   8.001   7.225
79812SOL    HW241334   8.326   8.091   7.299
79813SOL     OW41335   8.015  11.018   7.130
79813SOL    HW141336   7.970  10.977   7.204
79813SOL    HW241337   8.016  10.950   7.063
79814SOL     OW41338  10.077  11.208   8.084
79814SOL    HW141339  10.026  11.244   8.157
79814SOL    HW241340  10.057  11.114   8.086
79815SOL     OW41341   6.607   6.099  12.741
79815SOL    HW141342   6.692   6.055  12.740
79815SOL    HW241343   6.544   6.028  12.725
79816SOL     OW41344  12.783   8.612  13.568
79816SOL    HW141345  12.817   8.609  13.478
79816SOL    HW241346  12.852   8.571  13.620
79817SOL     OW41347   4.869   5.034  14.037
79817SOL    HW141348   4.940   4.971  14.019
79817SOL    HW241349   4.867   5.091  13.961
79818SOL     OW41350   9.080  12.315   3.382
79818SOL    HW141351   9.143  12.267   3.436
79818SOL    HW241352   9.055  12.252   3.313
79819SOL     OW41353   8.383   7.190   2.068
79819SOL    HW141354   8.433   7.118   2.106
79819SOL    HW241355   8.447   7.260   2.056
79820SOL     OW41356   3.014  10.879   1.694
79820SOL    HW141357   3.036  10.863   1.602
79820SOL    HW241358   2.934  10.829   1.708
79821SOL     OW41359  14.843  12.094   8.978
79821SOL    HW141360  14.812  12.162   9.036
79821SOL    HW241361   0.034  12.136   8.925
79822SOL     OW41362   7.013   2.915   5.463
79822SOL    HW141363   7.020   2.876   5.376
79822SOL    HW241364   6.924   2.948   5.467
79823SOL     OW41365  11.048   5.751  10.115
79823SOL    HW141366  10.955   5.743  10.097
79823SOL    HW241367  11.059   5.716  10.204
79824SOL     OW41368   6.841   2.801  11.204
79824SOL    HW141369   6.909   2.865  11.227
79824SOL    HW241370   6.813   2.827  11.116
79825SOL     OW41371   5.826  12.790   3.014
79825SOL    HW141372   5.884  12.772   2.941
79825SOL    HW241373   5.763  12.853   2.981
79826SOL     OW41374   2.969   4.463   3.631
79826SOL    HW141375   2.904   4.465   3.561
79826SOL    HW241376   3.012   4.549   3.626
79827SOL     OW41377   3.902   4.165   3.280
79827SOL    HW141378   3.865   4.240   3.233
79827SOL    HW241379   3.843   4.152   3.354
79828SOL     OW41380   6.544  13.591   0.858
79828SOL    HW141381   6.596  13.593   0.939
79828SOL    HW241382   6.555  13.679   0.821
79829SOL     OW41383  12.071   4.950  12.088
79829SOL    HW141384  12.063   5.013  12.016
79829SOL    HW241385  12.163   4.921  12.083
79830SOL     OW41386   3.594  10.209   3.235
79830SOL    HW141387   3.579  10.146   3.305
79830SOL    HW241388   3.636  10.283   3.279
79831SOL     OW41389   0.779  11.750  13.952
79831SOL    HW141390   0.819  11.825  13.908
79831SOL    HW241391   0.748  11.694  13.881
79832SOL     OW41392  10.398  11.310   0.926
79832SOL    HW141393  10.406  11.218   0.902
79832SOL    HW241394  10.324  11.342   0.875
79833SOL     OW41395   8.140  12.758   1.526
79833SOL    HW141396   8.203  12.688   1.510
79833SOL    HW241397   8.148  12.777   1.619
79834SOL     OW41398  13.345  11.432   7.043
79834SOL    HW141399  13.397  11.361   7.081
79834SOL    HW241400  13.323  11.402   6.955
79835SOL     OW41401  11.829   0.560  12.164
79835SOL    HW141402  11.884   0.634  12.137
79835SOL    HW241403  11.740   0.591  12.150
79836SOL     OW41404   5.770  13.332  11.797
79836SOL    HW141405   5.714  13.256  11.814
79836SOL    HW241406   5.785  13.371  11.883
79837SOL     OW41407   3.857  14.420   8.738
79837SOL    HW141408   3.952  14.417   8.736
79837SOL    HW241409   3.836  14.454   8.826
79838SOL     OW41410  14.858   9.918  12.301
79838SOL    HW141411   0.015   9.832  12.277
79838SOL    HW241412  14.825   9.954  12.218
79839SOL     OW41413   4.277   3.977   3.221
79839SOL    HW141414   4.265   3.924   3.300
79839SOL    HW241415   4.348   4.036   3.243
79840SOL     OW41416   2.284   1.702   6.072
79840SOL    HW141417   2.251   1.780   6.029
79840SOL    HW241418   2.210   1.671   6.126
79841SOL     OW41419  10.871   0.435   9.693
79841SOL    HW141420  10.958   0.450   9.657
79841SOL    HW241421  10.832   0.522   9.700
79842SOL     OW41422   7.534  12.111  13.021
79842SOL    HW141423   7.475  12.186  13.024
79842SOL    HW241424   7.621  12.149  13.012
79843SOL     OW41425   6.661  14.254   0.504
79843SOL    HW141426   6.650  14.221   0.414
79843SOL    HW241427   6.602  14.329   0.509
79844SOL     OW41428   2.452   5.266  13.105
79844SOL    HW141429   2.497   5.306  13.179
79844SOL    HW241430   2.471   5.324  13.031
79845SOL     OW41431  14.234  11.411   8.578
79845SOL    HW141432  14.225  11.414   8.483
79845SOL    HW241433  14.169  11.474   8.610
79846SOL     OW41434   8.967   2.793   3.779
79846SOL    HW141435   8.968   2.737   3.856
79846SOL    HW241436   9.003   2.876   3.809
79847SOL     OW41437   1.369   5.952   8.188
79847SOL    HW141438   1.442   5.923   8.243
79847SOL    HW241439   1.305   5.881   8.194
79848SOL     OW41440   4.127  13.539   8.287
79848SOL    HW141441   4.044  13.539   8.336
79848SOL    HW241442   4.111  13.597   8.212
79849SOL     OW41443  14.426  13.314  13.656
79849SOL    HW141444  14.491  13.320  13.586
79849SOL    HW241445  14.445  13.231  13.699
79850SOL     OW41446   5.641   2.179   2.718
79850SOL    HW141447   5.608   2.125   2.789
79850SOL    HW241448   5.689   2.118   2.662
79851SOL     OW41449   8.991  12.699   8.523
79851SOL    HW141450   8.903  12.718   8.493
79851SOL    HW241451   9.014  12.774   8.579
79852SOL     OW41452   2.641   4.351   7.811
79852SOL    HW141453   2.719   4.405   7.799
79852SOL    HW241454   2.578   4.384   7.747
79853SOL     OW41455   5.604   6.759  12.535
79853SOL    HW141456   5.544   6.818  12.580
79853SOL    HW241457   5.686   6.768  12.583
79854SOL     OW41458   9.538  13.401   1.251
79854SOL    HW141459   9.449  13.432   1.263
79854SOL    HW241460   9.538  13.312   1.287
79855SOL     OW41461  11.504   0.710   4.715
79855SOL    HW141462  11.590   0.674   4.692
79855SOL    HW241463  11.503   0.710   4.811
79856SOL     OW41464  14.201   2.492   0.078
79856SOL    HW141465  14.201   2.586   0.094
79856SOL    HW241466  14.111   2.464   0.095
79857SOL     OW41467   6.346   2.409  11.705
79857SOL    HW141468   6.359   2.342  11.772
79857SOL    HW241469   6.410   2.389  11.637
79858SOL     OW41470   4.508   2.836  10.589
79858SOL    HW141471   4.492   2.927  10.564
79858SOL    HW241472   4.545   2.842  10.677
79859SOL     OW41473   2.863  11.580   4.954
79859SOL    HW141474   2.944  11.611   4.914
79859SOL    HW241475   2.850  11.492   4.918
79860SOL     OW41476   1.845   2.177  14.686
79860SOL    HW141477   1.905   2.246  14.658
79860SOL    HW241478   1.785   2.220  14.747
79861SOL     OW41479   4.537  10.672   4.617
79861SOL    HW141480   4.553  10.715   4.701
79861SOL    HW241481   4.492  10.739   4.565
79862SOL     OW41482   7.197   0.566   4.646
79862SOL    HW141483   7.205   0.494   4.709
79862SOL    HW241484   7.174   0.524   4.564
79863SOL     OW41485   9.724   2.311   7.322
79863SOL    HW141486   9.807   2.357   7.334
79863SOL    HW241487   9.677   2.362   7.257
79864SOL     OW41488  14.125   5.337  11.525
79864SOL    HW141489  14.102   5.382  11.607
79864SOL    HW241490  14.066   5.262  11.522
79865SOL     OW41491  10.148   6.509   9.094
79865SOL    HW141492  10.229   6.464   9.071
79865SOL    HW241493  10.160   6.598   9.060
79866SOL     OW41494   3.109  13.344   0.872
79866SOL    HW141495   3.126  13.356   0.965
79866SOL    HW241496   3.044  13.410   0.851
79867SOL     OW41497  12.253  12.566   0.767
79867SOL    HW141498  12.219  12.636   0.711
79867SOL    HW241499  12.341  12.548   0.732
79868SOL     OW41500   4.765   6.538   0.900
79868SOL    HW141501   4.756   6.510   0.809
79868SOL    HW241502   4.849   6.583   0.903
79869SOL     OW41503  13.368   6.580   5.941
79869SOL    HW141504  13.367   6.673   5.917
79869SOL    HW241505  13.317   6.575   6.021
79870SOL     OW41506  11.141  12.714   3.321
79870SOL    HW141507  11.126  12.629   3.279
79870SOL    HW241508  11.126  12.697   3.414
79871SOL     OW41509   4.242   5.609   5.339
79871SOL    HW141510   4.217   5.604   5.431
79871SOL    HW241511   4.295   5.689   5.334
79872SOL     OW41512  10.806   7.481   2.118
79872SOL    HW141513  10.741   7.531   2.168
79872SOL    HW241514  10.754   7.422   2.063
79873SOL     OW41515   6.494   0.369   2.272
79873SOL    HW141516   6.546   0.351   2.193
79873SOL    HW241517   6.530   0.311   2.339
79874SOL     OW41518   9.513  11.756  12.739
79874SOL    HW141519   9.501  11.736  12.646
79874SOL    HW241520   9.439  11.713  12.782
79875SOL     OW41521   3.475   7.630   2.504
79875SOL    HW141522   3.549   7.569   2.504
79875SOL    HW241523   3.509   7.708   2.548
79876SOL     OW41524   8.534   9.908   5.977
79876SOL    HW141525   8.488   9.976   5.927
79876SOL    HW241526   8.587   9.956   6.040
79877SOL     OW41527   5.540   6.252   2.644
79877SOL    HW141528   5.450   6.285   2.639
79877SOL    HW241529   5.547   6.188   2.573
79878SOL     OW41530  13.184  10.675   2.978
79878SOL    HW141531  13.129  10.631   2.913
79878SOL    HW241532  13.246  10.726   2.926
79879SOL     OW41533   0.866   0.282   5.032
79879SOL    HW141534   0.945   0.243   5.070
79879SOL    HW241535   0.859   0.242   4.945
79880SOL     OW41536   6.842   9.654   0.908
79880SOL    HW141537   6.853   9.706   0.829
79880SOL    HW241538   6.765   9.599   0.890
79881SOL     OW41539   8.383   9.249  10.606
79881SOL    HW141540   8.337   9.309  10.665
79881SOL    HW241541   8.419   9.182  10.664
79882SOL     OW41542  14.205  12.484   6.423
79882SOL    HW141543  14.120  12.516   6.390
79882SOL    HW241544  14.182  12.426   6.495
79883SOL     OW41545  13.710  13.290  11.000
79883SOL    HW141546  13.797  13.269  11.033
79883SOL    HW241547  13.699  13.233  10.923
79884SOL     OW41548  14.000  11.501   2.550
79884SOL    HW141549  13.938  11.429   2.562
79884SOL    HW241550  14.078  11.475   2.599
79885SOL     OW41551  11.455   9.608  11.830
79885SOL    HW141552  11.506   9.535  11.867
79885SOL    HW241553  11.422   9.574  11.747
79886SOL     OW41554  12.432  14.007   6.551
79886SOL    HW141555  12.495  14.038   6.486
79886SOL    HW241556  12.383  14.085   6.576
79887SOL     OW41557   1.935  12.556   3.436
79887SOL    HW141558   1.931  12.650   3.419
79887SOL    HW241559   1.962  12.518   3.353
79888SOL     OW41560  12.978   8.009   5.904
79888SOL    HW141561  13.019   8.078   5.852
79888SOL    HW241562  12.970   8.046   5.992
79889SOL     OW41563  10.192  14.557   9.105
79889SOL    HW141564  10.276  14.567   9.059
79889SOL    HW241565  10.151  14.643   9.098
79890SOL     OW41566   2.732  13.375   4.565
79890SOL    HW141567   2.792  13.430   4.515
79890SOL    HW241568   2.746  13.400   4.656
79891SOL     OW41569   5.843  14.461   2.495
79891SOL    HW141570   5.871  14.412   2.417
79891SOL    HW241571   5.868  14.405   2.568
79892SOL     OW41572   7.059   3.998  13.557
79892SOL    HW141573   6.977   3.954  13.532
79892SOL    HW241574   7.033   4.088  13.573
79893SOL     OW41575   1.425  12.025   5.855
79893SOL    HW141576   1.442  12.066   5.940
79893SOL    HW241577   1.445  11.932   5.868
79894SOL     OW41578  10.059  13.777   8.527
79894SOL    HW141579  10.147  13.750   8.500
79894SOL    HW241580  10.000  13.726   8.470
79895SOL     OW41581   0.680   6.497   0.849
79895SOL    HW141582   0.591   6.464   0.836
79895SOL    HW241583   0.670   6.566   0.915
79896SOL     OW41584  13.525   0.422   4.471
79896SOL    HW141585  13.559   0.364   4.403
79896SOL    HW241586  13.597   0.430   4.534
79897SOL     OW41587   1.360   8.360  12.685
79897SOL    HW141588   1.337   8.306  12.761
79897SOL    HW241589   1.362   8.450  12.719
79898SOL     OW41590   8.281  11.021   3.441
79898SOL    HW141591   8.274  11.026   3.346
79898SOL    HW241592   8.266  11.111   3.471
79899SOL     OW41593  14.806  11.791   4.008
79899SOL    HW141594  14.800  11.700   3.980
79899SOL    HW241595   0.004  11.826   3.960
79900SOL     OW41596   3.637   1.092   7.849
79900SOL    HW141597   3.654   1.014   7.903
79900SOL    HW241598   3.551   1.075   7.810
79901SOL     OW41599   0.681   2.227   9.080
79901SOL    HW141600   0.626   2.150   9.064
79901SOL    HW241601   0.687   2.270   8.995
79902SOL     OW41602  10.148   9.618   8.874
79902SOL    HW141603  10.102   9.599   8.956
79902SOL    HW241604  10.126   9.709   8.855
79903SOL     OW41605  14.871   9.309   3.995
79903SOL    HW141606   0.033   9.377   3.940
79903SOL    HW241607  14.814   9.357   4.054
79904SOL     OW41608   3.733   7.198   5.849
79904SOL    HW141609   3.650   7.243   5.860
79904SOL    HW241610   3.709   7.108   5.827
79905SOL     OW41611   8.940  10.447   1.909
79905SOL    HW141612   9.010  10.472   1.849
79905SOL    HW241613   8.985  10.413   1.986
79906SOL     OW41614   4.725   2.313   9.347
79906SOL    HW141615   4.810   2.355   9.357
79906SOL    HW241616   4.744   2.219   9.349
79907SOL     OW41617   2.751   0.198   9.778
79907SOL    HW141618   2.722   0.108   9.788
79907SOL    HW241619   2.777   0.225   9.866
79908SOL     OW41620  11.308  10.428  14.095
79908SOL    HW141621  11.217  10.412  14.070
79908SOL    HW241622  11.318  10.383  14.178
79909SOL     OW41623   5.228  11.385  11.555
79909SOL    HW141624   5.133  11.391  11.567
79909SOL    HW241625   5.258  11.329  11.626
79910SOL     OW41626   9.685   9.823   4.550
79910SOL    HW141627   9.721   9.862   4.629
79910SOL    HW241628   9.702   9.887   4.481
79911SOL     OW41629   9.962  13.690   8.915
79911SOL    HW141630  10.052  13.663   8.930
79911SOL    HW241631   9.917  13.671   8.997
79912SOL     OW41632   2.733  10.114  14.418
79912SOL    HW141633   2.804  10.177  14.430
79912SOL    HW241634   2.655  10.157  14.452
79913SOL     OW41635   7.195   1.497   3.947
79913SOL    HW141636   7.202   1.592   3.946
79913SOL    HW241637   7.271   1.467   3.998
79914SOL     OW41638  11.867  13.114  12.684
79914SOL    HW141639  11.853  13.048  12.751
79914SOL    HW241640  11.847  13.197  12.727
79915SOL     OW41641   4.361   6.537   6.878
79915SOL    HW141642   4.452   6.515   6.895
79915SOL    HW241643   4.336   6.593   6.952
79916SOL     OW41644   0.860  11.459   6.894
79916SOL    HW141645   0.822  11.381   6.853
79916SOL    HW241646   0.798  11.483   6.962
79917SOL     OW41647  10.203   4.992   9.557
79917SOL    HW141648  10.196   4.914   9.502
79917SOL    HW241649  10.260   5.051   9.508
79918SOL     OW41650   2.024  13.155   9.497
79918SOL    HW141651   2.074  13.201   9.565
79918SOL    HW241652   2.003  13.070   9.536
79919SOL     OW41653   1.959   9.337  10.774
79919SOL    HW141654   1.986   9.427  10.788
79919SOL    HW241655   2.037   9.285  10.793
79920SOL     OW41656   1.069   0.212   8.385
79920SOL    HW141657   1.012   0.236   8.312
79920SOL    HW241658   1.008   0.190   8.456
79921SOL     OW41659   2.741   3.243   7.186
79921SOL    HW141660   2.822   3.220   7.232
79921SOL    HW241661   2.745   3.339   7.179
79922SOL     OW41662  10.870   5.064   4.237
79922SOL    HW141663  10.816   5.008   4.180
79922SOL    HW241664  10.808   5.104   4.298
79923SOL     OW41665   4.195   4.840  10.897
79923SOL    HW141666   4.263   4.827  10.963
79923SOL    HW241667   4.170   4.751  10.871
79924SOL     OW41668   3.582  11.535   8.599
79924SOL    HW141669   3.514  11.475   8.630
79924SOL    HW241670   3.560  11.550   8.507
79925SOL     OW41671   0.220   3.148   2.906
79925SOL    HW141672   0.192   3.087   2.838
79925SOL    HW241673   0.293   3.196   2.868
79926SOL     OW41674   8.026  14.097   9.610
79926SOL    HW141675   7.944  14.144   9.592
79926SOL    HW241676   8.094  14.154   9.576
79927SOL     OW41677   3.092  13.859   1.767
79927SOL    HW141678   2.996  13.859   1.769
79927SOL    HW241679   3.114  13.885   1.678
79928SOL     OW41680   8.768  14.366   2.425
79928SOL    HW141681   8.860  14.377   2.401
79928SOL    HW241682   8.769  14.298   2.493
79929SOL     OW41683  13.121   6.762   1.002
79929SOL    HW141684  13.151   6.766   1.093
79929SOL    HW241685  13.129   6.670   0.977
79930SOL     OW41686   4.886   3.210   2.693
79930SOL    HW141687   4.801   3.250   2.712
79930SOL    HW241688   4.888   3.202   2.597
79931SOL     OW41689  14.157   5.955  10.081
79931SOL    HW141690  14.102   5.995  10.013
79931SOL    HW241691  14.147   6.013  10.157
79932SOL     OW41692  11.357   3.529   2.421
79932SOL    HW141693  11.397   3.549   2.336
79932SOL    HW241694  11.342   3.434   2.418
79933SOL     OW41695  12.756  10.529   4.054
79933SOL    HW141696  12.703  10.492   4.125
79933SOL    HW241697  12.754  10.624   4.069
79934SOL     OW41698   4.767  14.242   1.215
79934SOL    HW141699   4.806  14.301   1.280
79934SOL    HW241700   4.833  14.235   1.147
79935SOL     OW41701   4.688  12.922   2.158
79935SOL    HW141702   4.688  12.903   2.064
79935SOL    HW241703   4.596  12.936   2.179
79936SOL     OW41704  14.060  13.011   4.996
79936SOL    HW141705  14.095  13.013   5.085
79936SOL    HW241706  14.086  12.926   4.961
79937SOL     OW41707   0.825   3.140  12.394
79937SOL    HW141708   0.910   3.137  12.439
79937SOL    HW241709   0.784   3.221  12.425
79938SOL     OW41710  11.054   3.897   2.015
79938SOL    HW141711  11.078   3.924   2.104
79938SOL    HW241712  10.986   3.960   1.989
79939SOL     OW41713   7.310   7.511   4.822
79939SOL    HW141714   7.249   7.449   4.782
79939SOL    HW241715   7.396   7.487   4.786
79940SOL     OW41716   7.570   6.500   3.829
79940SOL    HW141717   7.588   6.591   3.806
79940SOL    HW241718   7.552   6.458   3.745
79941SOL     OW41719  10.609   9.627  11.734
79941SOL    HW141720  10.592   9.548  11.784
79941SOL    HW241721  10.654   9.685  11.796
79942SOL     OW41722  10.110   8.418   6.728
79942SOL    HW141723  10.050   8.418   6.803
79942SOL    HW241724  10.117   8.510   6.703
79943SOL     OW41725  10.569  12.483   2.765
79943SOL    HW141726  10.598  12.391   2.762
79943SOL    HW241727  10.484  12.480   2.809
79944SOL     OW41728  10.557   8.330  11.370
79944SOL    HW141729  10.646   8.363  11.358
79944SOL    HW241730  10.504   8.384  11.311
79945SOL     OW41731   3.463  14.239  10.345
79945SOL    HW141732   3.413  14.184  10.284
79945SOL    HW241733   3.554  14.231  10.316
79946SOL     OW41734   8.270  12.451   1.913
79946SOL    HW141735   8.216  12.422   1.839
79946SOL    HW241736   8.336  12.382   1.923
79947SOL     OW41737   5.744   6.102  14.165
79947SOL    HW141738   5.716   6.133  14.251
79947SOL    HW241739   5.812   6.037  14.184
79948SOL     OW41740   0.194  11.116   4.316
79948SOL    HW141741   0.229  11.104   4.228
79948SOL    HW241742   0.270  11.130   4.372
79949SOL     OW41743  11.630  12.614   9.562
79949SOL    HW141744  11.590  12.605   9.649
79949SOL    HW241745  11.700  12.678   9.574
79950SOL     OW41746   3.278   8.101  13.484
79950SOL    HW141747   3.214   8.064  13.544
79950SOL    HW241748   3.312   8.178  13.530
79951SOL     OW41749   1.471   4.952   4.585
79951SOL    HW141750   1.539   4.945   4.518
79951SOL    HW241751   1.505   4.903   4.659
79952SOL     OW41752   6.020  11.146   0.333
79952SOL    HW141753   5.989  11.068   0.379
79952SOL    HW241754   6.046  11.114   0.247
79953SOL     OW41755   9.973   7.077  10.269
79953SOL    HW141756   9.927   7.106  10.347
79953SOL    HW241757  10.039   7.016  10.301
79954SOL     OW41758  10.604   3.985   5.483
79954SOL    HW141759  10.687   3.964   5.526
79954SOL    HW241760  10.610   4.078   5.462
79955SOL     OW41761   8.856   4.289  14.393
79955SOL    HW141762   8.822   4.248  14.472
79955SOL    HW241763   8.907   4.220  14.350
79956SOL     OW41764   2.276  12.551   4.150
79956SOL    HW141765   2.276  12.595   4.065
79956SOL    HW241766   2.369  12.537   4.170
79957SOL     OW41767   4.415  11.842   1.378
79957SOL    HW141768   4.375  11.794   1.450
79957SOL    HW241769   4.486  11.891   1.419
79958SOL     OW41770   4.384  11.543   1.094
79958SOL    HW141771   4.414  11.619   1.143
79958SOL    HW241772   4.378  11.473   1.159
79959SOL     OW41773  11.961  12.974   9.193
79959SOL    HW141774  11.880  12.931   9.220
79959SOL    HW241775  12.018  12.902   9.165
79960SOL     OW41776   1.293   7.468   1.061
79960SOL    HW141777   1.284   7.465   1.156
79960SOL    HW241778   1.385   7.448   1.045
79961SOL     OW41779   9.440   8.395  14.111
79961SOL    HW141780   9.356   8.441  14.110
79961SOL    HW241781   9.465   8.395  14.203
79962SOL     OW41782  13.173  13.378   6.074
79962SOL    HW141783  13.182  13.334   5.990
79962SOL    HW241784  13.114  13.321   6.125
79963SOL     OW41785   2.116  14.453  10.878
79963SOL    HW141786   2.148  14.436  10.789
79963SOL    HW241787   2.190  14.433  10.934
79964SOL     OW41788  10.839   3.263   4.035
79964SOL    HW141789  10.921   3.310   4.046
79964SOL    HW241790  10.829   3.253   3.940
79965SOL     OW41791   9.209  11.747  10.987
79965SOL    HW141792   9.187  11.732  11.079
79965SOL    HW241793   9.144  11.810  10.957
79966SOL     OW41794  13.992  13.269   0.027
79966SOL    HW141795  13.998  13.254   0.122
79966SOL    HW241796  13.989  13.364   0.018
79967SOL     OW41797  11.540   1.427   8.748
79967SOL    HW141798  11.623   1.423   8.795
79967SOL    HW241799  11.524   1.337   8.719
79968SOL     OW41800  10.709  11.408   5.672
79968SOL    HW141801  10.786  11.374   5.626
79968SOL    HW241802  10.646  11.337   5.669
79969SOL     OW41803   5.061   5.898  11.540
79969SOL    HW141804   5.118   5.850  11.599
79969SOL    HW241805   4.972   5.867  11.561
79970SOL     OW41806  11.098  13.057  10.029
79970SOL    HW141807  11.132  13.145  10.012
79970SOL    HW241808  11.010  13.071  10.062
79971SOL     OW41809   5.526   3.814   7.814
79971SOL    HW141810   5.545   3.777   7.900
79971SOL    HW241811   5.601   3.789   7.760
79972SOL     OW41812   4.731   2.499   6.955
79972SOL    HW141813   4.746   2.564   6.886
79972SOL    HW241814   4.693   2.424   6.910
79973SOL     OW41815   7.596  14.026   4.975
79973SOL    HW141816   7.534  13.981   5.033
79973SOL    HW241817   7.633  14.095   5.030
79974SOL     OW41818   0.316  10.746   8.133
79974SOL    HW141819   0.411  10.741   8.139
79974SOL    HW241820   0.285  10.664   8.172
79975SOL     OW41821   7.674   3.861   9.983
79975SOL    HW141822   7.584   3.894   9.976
79975SOL    HW241823   7.664   3.769  10.008
79976SOL     OW41824   3.429   0.044   4.268
79976SOL    HW141825   3.350   0.040   4.321
79976SOL    HW241826   3.481  14.847   4.298
79977SOL     OW41827   0.927   8.022   6.480
79977SOL    HW141828   0.901   8.023   6.573
79977SOL    HW241829   0.875   8.092   6.441
79978SOL     OW41830   6.242   6.178  12.965
79978SOL    HW141831   6.254   6.089  12.998
79978SOL    HW241832   6.325   6.222  12.984
79979SOL     OW41833  14.701   4.661   6.353
79979SOL    HW141834  14.646   4.637   6.278
79979SOL    HW241835  14.776   4.603   6.347
79980SOL     OW41836   8.570  11.668   9.772
79980SOL    HW141837   8.510  11.734   9.737
79980SOL    HW241838   8.591  11.612   9.697
79981SOL     OW41839   7.461   8.601   8.291
79981SOL    HW141840   7.510   8.664   8.238
79981SOL    HW241841   7.498   8.516   8.270
79982SOL     OW41842  11.758   4.354   1.978
79982SOL    HW141843  11.713   4.435   2.002
79982SOL    HW241844  11.760   4.355   1.882
79983SOL     OW41845  12.904  11.263  10.159
79983SOL    HW141846  12.959  11.203  10.208
79983SOL    HW241847  12.927  11.350  10.192
79984SOL     OW41848  12.542  13.081  13.960
79984SOL    HW141849  12.548  13.168  14.000
79984SOL    HW241850  12.629  13.043  13.971
79985SOL     OW41851   5.845  13.661  11.625
79985SOL    HW141852   5.776  13.655  11.691
79985SOL    HW241853   5.803  13.632  11.544
79986SOL     OW41854   4.514   2.711   1.105
79986SOL    HW141855   4.456   2.648   1.061
79986SOL    HW241856   4.552   2.663   1.178
79987SOL     OW41857   6.231   7.562   1.222
79987SOL    HW141858   6.259   7.474   1.247
79987SOL    HW241859   6.311   7.605   1.191
79988SOL     OW41860   8.904   1.197   7.451
79988SOL    HW141861   8.894   1.282   7.408
79988SOL    HW241862   8.916   1.218   7.543
79989SOL     OW41863   0.859  14.283   7.245
79989SOL    HW141864   0.810  14.209   7.208
79989SOL    HW241865   0.791  14.344   7.273
79990SOL     OW41866  13.888  10.397   2.545
79990SOL    HW141867  13.972  10.409   2.500
79990SOL    HW241868  13.874  10.303   2.546
79991SOL     OW41869   1.149   6.765   9.879
79991SOL    HW141870   1.065   6.808   9.897
79991SOL    HW241871   1.141   6.733   9.790
79992SOL     OW41872   8.480   2.255   9.272
79992SOL    HW141873   8.427   2.255   9.352
79992SOL    HW241874   8.550   2.193   9.291
79993SOL     OW41875   3.442   4.917   5.223
79993SOL    HW141876   3.381   4.847   5.247
79993SOL    HW241877   3.529   4.878   5.231
79994SOL     OW41878   3.993   2.316  12.952
79994SOL    HW141879   4.083   2.285  12.967
79994SOL    HW241880   3.955   2.249  12.894
79995SOL     OW41881   7.521   0.138  14.744
79995SOL    HW141882   7.599   0.186  14.773
79995SOL    HW241883   7.448   0.187  14.782
79996SOL     OW41884   6.997  12.789   2.717
79996SOL    HW141885   7.001  12.721   2.650
79996SOL    HW241886   6.913  12.776   2.760
79997SOL     OW41887   9.933  12.916   1.360
79997SOL    HW141888   9.840  12.896   1.353
79997SOL    HW241889   9.957  12.951   1.275
79998SOL     OW41890   9.929   1.706  13.391
79998SOL    HW141891   9.864   1.662  13.446
79998SOL    HW241892   9.922   1.661  13.306
79999SOL     OW41893  11.835   1.620  12.240
79999SOL    HW141894  11.864   1.528  12.241
79999SOL    HW241895  11.752   1.618  12.191
80000SOL     OW41896   6.736   6.820  11.729
80000SOL    HW141897   6.652   6.818  11.775
80000SOL    HW241898   6.802   6.812  11.798
80001SOL     OW41899   0.905   5.502   0.696
80001SOL    HW141900   0.838   5.493   0.628
80001SOL    HW241901   0.986   5.521   0.649
80002SOL     OW41902  11.432  12.236  10.277
80002SOL    HW141903  11.476  12.187  10.347
80002SOL    HW241904  11.390  12.168  10.224
80003SOL     OW41905  10.744   3.846   2.501
80003SOL    HW141906  10.675   3.824   2.439
80003SOL    HW241907  10.765   3.763   2.544
80004SOL     OW41908  11.237   4.634  10.323
80004SOL    HW141909  11.325   4.604  10.299
80004SOL    HW241910  11.252   4.713  10.374
80005SOL     OW41911   6.605  13.832   0.740
80005SOL    HW141912   6.585  13.854   0.649
80005SOL    HW241913   6.590  13.913   0.788
80006SOL     OW41914   8.844   7.711  10.309
80006SOL    HW141915   8.861   7.629  10.356
80006SOL    HW241916   8.796   7.685  10.231
80007SOL     OW41917   9.122   3.031  11.577
80007SOL    HW141918   9.031   3.055  11.564
80007SOL    HW241919   9.170   3.078  11.509
80008SOL     OW41920   2.695   7.457   9.029
80008SOL    HW141921   2.686   7.469   9.124
80008SOL    HW241922   2.788   7.439   9.016
80009SOL     OW41923  12.730   1.916  10.463
80009SOL    HW141924  12.803   1.890  10.518
80009SOL    HW241925  12.655   1.920  10.522
80010SOL     OW41926  11.063  13.828   0.384
80010SOL    HW141927  11.158  13.829   0.372
80010SOL    HW241928  11.050  13.814   0.478
80011SOL     OW41929   1.651  14.446   3.829
80011SOL    HW141930   1.629  14.532   3.793
80011SOL    HW241931   1.742  14.454   3.856
80012SOL     OW41932  13.202   2.648   5.230
80012SOL    HW141933  13.222   2.738   5.256
80012SOL    HW241934  13.107   2.643   5.234
80013SOL     OW41935   9.015   6.508  10.569
80013SOL    HW141936   9.076   6.508  10.642
80013SOL    HW241937   9.050   6.441  10.509
80014SOL     OW41938   8.715  12.591  11.201
80014SOL    HW141939   8.672  12.536  11.266
80014SOL    HW241940   8.681  12.560  11.117
80015SOL     OW41941   1.169   0.618   9.886
80015SOL    HW141942   1.169   0.597   9.979
80015SOL    HW241943   1.077   0.637   9.866
80016SOL     OW41944   5.068  12.136  11.109
80016SOL    HW141945   5.107  12.055  11.143
80016SOL    HW241946   5.057  12.120  11.015
80017SOL     OW41947   2.893  13.115   8.208
80017SOL    HW141948   2.947  13.192   8.225
80017SOL    HW241949   2.930  13.047   8.265
80018SOL     OW41950   2.627   5.911   1.606
80018SOL    HW141951   2.579   5.987   1.639
80018SOL    HW241952   2.719   5.934   1.619
80019SOL     OW41953   9.995   7.715   1.458
80019SOL    HW141954  10.083   7.680   1.473
80019SOL    HW241955   9.971   7.684   1.371
80020SOL     OW41956   1.496  12.085   0.582
80020SOL    HW141957   1.563  12.047   0.639
80020SOL    HW241958   1.545  12.142   0.523
80021SOL     OW41959   7.689  14.523  14.199
80021SOL    HW141960   7.655  14.446  14.153
80021SOL    HW241961   7.688  14.499  14.291
80022SOL     OW41962  14.415  10.813   8.869
80022SOL    HW141963  14.389  10.739   8.923
80022SOL    HW241964  14.469  10.775   8.799
80023SOL     OW41965   7.748   8.383  10.514
80023SOL    HW141966   7.665   8.386  10.564
80023SOL    HW241967   7.728   8.329  10.438
80024SOL     OW41968  14.055   0.373   4.110
80024SOL    HW141969  14.110   0.318   4.054
80024SOL    HW241970  14.104   0.379   4.192
80025SOL     OW41971   5.438   8.311  14.734
80025SOL    HW141972   5.374   8.378  14.712
80025SOL    HW241973   5.422   8.290  14.826
80026SOL     OW41974   2.335   0.395   6.187
80026SOL    HW141975   2.264   0.371   6.246
80026SOL    HW241976   2.321   0.342   6.109
80027SOL     OW41977  11.463   0.747   8.308
80027SOL    HW141978  11.387   0.701   8.342
80027SOL    HW241979  11.504   0.685   8.247
80028SOL     OW41980  10.181   9.224   4.070
80028SOL    HW141981  10.249   9.161   4.045
80028SOL    HW241982  10.195   9.299   4.013
80029SOL     OW41983  10.621   6.360   7.485
80029SOL    HW141984  10.553   6.379   7.421
80029SOL    HW241985  10.673   6.441   7.488
80030SOL     OW41986   3.380   5.456   0.153
80030SOL    HW141987   3.450   5.392   0.163
80030SOL    HW241988   3.360   5.454   0.059
80031SOL     OW41989  14.315   1.159  14.074
80031SOL    HW141990  14.240   1.136  14.019
80031SOL    HW241991  14.376   1.204  14.016
80032SOL     OW41992   4.432   2.939   8.519
80032SOL    HW141993   4.523   2.944   8.492
80032SOL    HW241994   4.415   2.845   8.531
80033SOL     OW41995   2.479   0.741   5.212
80033SOL    HW141996   2.548   0.719   5.275
80033SOL    HW241997   2.398   0.737   5.263
80034SOL     OW41998   0.790   1.041  10.374
80034SOL    HW141999   0.743   0.980  10.431
80034SOL    HW242000   0.877   1.002  10.364
80035SOL     OW42001  14.527  14.678   6.537
80035SOL    HW142002  14.513  14.617   6.465
80035SOL    HW242003  14.460  14.655   6.602
80036SOL     OW42004   4.089   5.712   7.080
80036SOL    HW142005   4.027   5.766   7.030
80036SOL    HW242006   4.043   5.693   7.162
80037SOL     OW42007   8.407  10.794  12.928
80037SOL    HW142008   8.489  10.776  12.883
80037SOL    HW242009   8.346  10.729  12.894
80038SOL     OW42010   1.516  14.196   9.974
80038SOL    HW142011   1.569  14.118   9.990
80038SOL    HW242012   1.518  14.244  10.057
80039SOL     OW42013  10.377  10.327   7.695
80039SOL    HW142014  10.412  10.238   7.705
80039SOL    HW242015  10.358  10.355   7.784
80040SOL     OW42016   5.430  10.035   4.109
80040SOL    HW142017   5.503  10.048   4.050
80040SOL    HW242018   5.419   9.940   4.113
80041SOL     OW42019   0.483   3.309   5.300
80041SOL    HW142020   0.404   3.260   5.277
80041SOL    HW242021   0.494   3.294   5.394
80042SOL     OW42022  10.871   6.887  12.136
80042SOL    HW142023  10.947   6.866  12.190
80042SOL    HW242024  10.833   6.965  12.176
80043SOL     OW42025   5.179  14.215   2.396
80043SOL    HW142026   5.270  14.223   2.366
80043SOL    HW242027   5.132  14.284   2.348
80044SOL     OW42028  12.789   0.308   9.089
80044SOL    HW142029  12.717   0.245   9.092
80044SOL    HW242030  12.812   0.314   8.997
80045SOL     OW42031   0.146  14.680  12.809
80045SOL    HW142032   0.117  14.691  12.719
80045SOL    HW242033   0.081  14.728  12.861
80046SOL     OW42034   8.319   2.890   3.751
80046SOL    HW142035   8.228   2.871   3.729
80046SOL    HW242036   8.362   2.903   3.666
80047SOL     OW42037   3.655   9.587   0.588
80047SOL    HW142038   3.656   9.510   0.644
80047SOL    HW242039   3.748   9.603   0.569
80048SOL     OW42040   9.915   0.299   4.831
80048SOL    HW142041   9.963   0.250   4.763
80048SOL    HW242042   9.980   0.359   4.867
80049SOL     OW42043   9.212   1.557   6.348
80049SOL    HW142044   9.160   1.507   6.411
80049SOL    HW242045   9.195   1.649   6.370
80050SOL     OW42046   3.384   5.190  12.387
80050SOL    HW142047   3.374   5.101  12.422
80050SOL    HW242048   3.450   5.231  12.443
80051SOL     OW42049   9.905   9.594   1.242
80051SOL    HW142050   9.810   9.596   1.230
80051SOL    HW242051   9.937   9.545   1.166
80052SOL     OW42052  13.652  11.479   2.207
80052SOL    HW142053  13.611  11.563   2.226
80052SOL    HW242054  13.737  11.500   2.169
80053SOL     OW42055   6.936   5.210  14.099
80053SOL    HW142056   6.897   5.131  14.060
80053SOL    HW242057   6.861   5.267  14.115
80054SOL     OW42058  13.700   2.373  12.585
80054SOL    HW142059  13.652   2.366  12.668
80054SOL    HW242060  13.781   2.325  12.600
80055SOL     OW42061   7.168   6.237   2.521
80055SOL    HW142062   7.113   6.271   2.591
80055SOL    HW242063   7.202   6.314   2.477
80056SOL     OW42064   6.085   9.376   8.189
80056SOL    HW142065   6.029   9.430   8.133
80056SOL    HW242066   6.085   9.290   8.146
80057SOL     OW42067   5.961  10.246  12.202
80057SOL    HW142068   5.936  10.331  12.165
80057SOL    HW242069   6.055  10.253  12.219
80058SOL     OW42070  14.673   0.159   4.997
80058SOL    HW142071  14.602   0.209   5.037
80058SOL    HW242072  14.750   0.182   5.049
80059SOL     OW42073  11.785   9.586  11.356
80059SOL    HW142074  11.723   9.604  11.285
80059SOL    HW242075  11.738   9.611  11.436
80060SOL     OW42076   7.523   5.992   2.675
80060SOL    HW142077   7.461   5.925   2.647
80060SOL    HW242078   7.575   6.011   2.597
80061SOL     OW42079   5.729   6.979   6.779
80061SOL    HW142080   5.793   7.048   6.760
80061SOL    HW242081   5.665   6.985   6.708
80062SOL     OW42082   6.472  12.622   5.881
80062SOL    HW142083   6.391  12.571   5.891
80062SOL    HW242084   6.447  12.697   5.826
80063SOL     OW42085   3.406   1.332   9.294
80063SOL    HW142086   3.464   1.314   9.368
80063SOL    HW242087   3.323   1.357   9.334
80064SOL     OW42088   6.547  13.060  10.571
80064SOL    HW142089   6.528  13.149  10.599
80064SOL    HW242090   6.523  13.058  10.479
80065SOL     OW42091  11.282  12.474   5.347
80065SOL    HW142092  11.223  12.404   5.318
80065SOL    HW242093  11.359  12.465   5.290
80066SOL     OW42094   8.004   2.493   5.846
80066SOL    HW142095   8.020   2.483   5.940
80066SOL    HW242096   8.017   2.586   5.830
80067SOL     OW42097  13.590   7.865   0.315
80067SOL    HW142098  13.675   7.901   0.338
80067SOL    HW242099  13.549   7.846   0.400
80068SOL     OW42100   6.040   8.564   9.860
80068SOL    HW142101   6.077   8.647   9.831
80068SOL    HW242102   6.017   8.518   9.780
80069SOL     OW42103   0.492  13.601   1.069
80069SOL    HW142104   0.490  13.616   0.974
80069SOL    HW242105   0.562  13.538   1.082
80070SOL     OW42106  11.650  12.360  11.870
80070SOL    HW142107  11.672  12.367  11.963
80070SOL    HW242108  11.633  12.450  11.842
80071SOL     OW42109  14.391   8.507   0.952
80071SOL    HW142110  14.380   8.490   1.045
80071SOL    HW242111  14.444   8.434   0.920
80072SOL     OW42112  11.519   5.703   3.510
80072SOL    HW142113  11.468   5.669   3.583
80072SOL    HW242114  11.565   5.779   3.546
80073SOL     OW42115  13.248  12.789  11.189
80073SOL    HW142116  13.193  12.787  11.268
80073SOL    HW242117  13.186  12.778  11.117
80074SOL     OW42118   5.727   4.446  12.024
80074SOL    HW142119   5.711   4.494  11.943
80074SOL    HW242120   5.817   4.416  12.016
80075SOL     OW42121  11.327  14.841   2.622
80075SOL    HW142122  11.261  14.778   2.653
80075SOL    HW242123  11.335  14.822   2.529
80076SOL     OW42124   5.928   7.640   6.475
80076SOL    HW142125   5.926   7.563   6.418
80076SOL    HW242126   5.956   7.712   6.418
80077SOL     OW42127  13.125   9.004   1.218
80077SOL    HW142128  13.119   8.910   1.234
80077SOL    HW242129  13.035   9.031   1.199
80078SOL     OW42130  11.973   2.350  10.783
80078SOL    HW142131  11.949   2.265  10.819
80078SOL    HW242132  12.005   2.400  10.858
80079SOL     OW42133   5.589   4.267  12.976
80079SOL    HW142134   5.668   4.248  12.925
80079SOL    HW242135   5.598   4.359  13.000
80080SOL     OW42136   5.525   2.318   8.415
80080SOL    HW142137   5.543   2.352   8.327
80080SOL    HW242138   5.441   2.358   8.440
80081SOL     OW42139  10.570   4.281   5.190
80081SOL    HW142140  10.620   4.313   5.266
80081SOL    HW242141  10.636   4.255   5.127
80082SOL     OW42142  12.213   5.628   6.352
80082SOL    HW142143  12.183   5.550   6.397
80082SOL    HW242144  12.271   5.596   6.283
80083SOL     OW42145   6.229   7.822   3.874
80083SOL    HW142146   6.180   7.898   3.904
80083SOL    HW242147   6.193   7.803   3.787
80084SOL     OW42148   8.082   6.152   6.826
80084SOL    HW142149   8.091   6.204   6.747
80084SOL    HW242150   7.994   6.173   6.859
80085SOL     OW42151   2.384  13.726  11.419
80085SOL    HW142152   2.387  13.785  11.494
80085SOL    HW242153   2.320  13.659  11.443
80086SOL     OW42154  14.532  13.981  10.024
80086SOL    HW142155  14.618  13.949  10.049
80086SOL    HW242156  14.517  13.942   9.938
80087SOL     OW42157   5.718  13.875   7.688
80087SOL    HW142158   5.693  13.787   7.660
80087SOL    HW242159   5.705  13.876   7.783
80088SOL     OW42160   7.953   0.194   5.692
80088SOL    HW142161   8.010   0.182   5.616
80088SOL    HW242162   7.907   0.110   5.700
80089SOL     OW42163   5.142  10.584   8.623
80089SOL    HW142164   5.118  10.493   8.639
80089SOL    HW242165   5.188  10.582   8.539
80090SOL     OW42166   1.882   6.768  14.007
80090SOL    HW142167   1.807   6.730  13.962
80090SOL    HW242168   1.941   6.795  13.936
80091SOL     OW42169   6.593   4.326  12.014
80091SOL    HW142170   6.607   4.418  11.992
80091SOL    HW242171   6.675   4.283  11.990
80092SOL     OW42172   5.824   4.307   2.080
80092SOL    HW142173   5.914   4.286   2.104
80092SOL    HW242174   5.774   4.230   2.104
80093SOL     OW42175   0.494   4.366   2.594
80093SOL    HW142176   0.576   4.413   2.580
80093SOL    HW242177   0.428   4.418   2.549
80094SOL     OW42178   9.085   3.087   3.817
80094SOL    HW142179   9.148   3.143   3.860
80094SOL    HW242180   9.137   3.025   3.767
80095SOL     OW42181   3.440   8.874  10.711
80095SOL    HW142182   3.450   8.781  10.693
80095SOL    HW242183   3.501   8.892  10.783
80096SOL     OW42184   3.015   2.153   0.296
80096SOL    HW142185   3.104   2.177   0.270
80096SOL    HW242186   2.968   2.236   0.300
80097SOL     OW42187  14.128   4.156   2.767
80097SOL    HW142188  14.187   4.154   2.692
80097SOL    HW242189  14.144   4.241   2.808
80098SOL     OW42190   0.954  11.976   7.185
80098SOL    HW142191   1.018  11.911   7.213
80098SOL    HW242192   0.989  12.011   7.103
80099SOL     OW42193  12.641   5.796  11.365
80099SOL    HW142194  12.703   5.724  11.379
80099SOL    HW242195  12.617   5.825  11.453
80100SOL     OW42196   1.149   3.237   4.467
80100SOL    HW142197   1.204   3.315   4.460
80100SOL    HW242198   1.062   3.266   4.439
80101SOL     OW42199   3.913   2.993  14.736
80101SOL    HW142200   3.967   2.999  14.656
80101SOL    HW242201   3.836   2.944  14.709
80102SOL     OW42202  12.647   5.510   2.073
80102SOL    HW142203  12.562   5.552   2.080
80102SOL    HW242204  12.684   5.514   2.162
80103SOL     OW42205   2.809  13.975  12.580
80103SOL    HW142206   2.719  14.006  12.596
80103SOL    HW242207   2.852  14.049  12.537
80104SOL     OW42208  11.899   1.035   9.638
80104SOL    HW142209  11.897   0.966   9.572
80104SOL    HW242210  11.975   1.089   9.616
80105SOL     OW42211   3.982   6.367   4.945
80105SOL    HW142212   3.892   6.373   4.977
80105SOL    HW242213   4.025   6.446   4.977
80106SOL     OW42214  12.836   6.464   3.356
80106SOL    HW142215  12.877   6.479   3.270
80106SOL    HW242216  12.798   6.377   3.349
80107SOL     OW42217  14.689  12.932   0.838
80107SOL    HW142218  14.647  13.015   0.817
80107SOL    HW242219  14.771  12.956   0.880
80108SOL     OW42220   4.191   9.057   1.115
80108SOL    HW142221   4.194   8.965   1.142
80108SOL    HW242222   4.222   9.057   1.025
80109SOL     OW42223  14.393  14.514   8.082
80109SOL    HW142224  14.440  14.575   8.138
80109SOL    HW242225  14.371  14.565   8.004
80110SOL     OW42226  14.373   1.209   7.802
80110SOL    HW142227  14.280   1.226   7.817
80110SOL    HW242228  14.380   1.197   7.708
80111SOL     OW42229  13.027   2.311   1.632
80111SOL    HW142230  12.932   2.320   1.630
80111SOL    HW242231  13.047   2.256   1.557
80112SOL     OW42232   0.430   7.068  12.876
80112SOL    HW142233   0.496   7.005  12.851
80112SOL    HW242234   0.471   7.121  12.944
80113SOL     OW42235   7.468   4.096   0.693
80113SOL    HW142236   7.515   4.140   0.765
80113SOL    HW242237   7.536   4.076   0.629
80114SOL     OW42238  10.492  12.547  14.339
80114SOL    HW142239  10.498  12.469  14.393
80114SOL    HW242240  10.560  12.606  14.374
80115SOL     OW42241  10.555   8.018  12.408
80115SOL    HW142242  10.635   8.025  12.355
80115SOL    HW242243  10.485   8.048  12.351
80116SOL     OW42244   7.736   5.011   2.773
80116SOL    HW142245   7.727   5.071   2.847
80116SOL    HW242246   7.646   4.979   2.758
80117SOL     OW42247   5.422   6.806   1.592
80117SOL    HW142248   5.394   6.790   1.502
80117SOL    HW242249   5.517   6.816   1.586
80118SOL     OW42250   8.197   2.945   4.782
80118SOL    HW142251   8.281   2.970   4.821
80118SOL    HW242252   8.206   2.851   4.764
80119SOL     OW42253   7.455   6.563   2.438
80119SOL    HW142254   7.540   6.599   2.414
80119SOL    HW242255   7.462   6.545   2.532
80120SOL     OW42256   2.589   9.027  11.486
80120SOL    HW142257   2.597   9.063  11.574
80120SOL    HW242258   2.531   8.953  11.495
80121SOL     OW42259   4.478  11.183   4.535
80121SOL    HW142260   4.542  11.228   4.591
80121SOL    HW242261   4.401  11.173   4.591
80122SOL     OW42262   3.282   5.386   9.194
80122SOL    HW142263   3.235   5.468   9.209
80122SOL    HW242264   3.339   5.376   9.270
80123SOL     OW42265  13.926  12.386   8.285
80123SOL    HW142266  13.960  12.316   8.229
80123SOL    HW242267  13.850  12.347   8.329
80124SOL     OW42268   5.724   3.261   5.634
80124SOL    HW142269   5.773   3.180   5.620
80124SOL    HW242270   5.727   3.306   5.549
80125SOL     OW42271   3.755   1.672   0.873
80125SOL    HW142272   3.679   1.646   0.925
80125SOL    HW242273   3.727   1.753   0.829
80126SOL     OW42274   2.209   5.362  12.538
80126SOL    HW142275   2.227   5.279  12.494
80126SOL    HW242276   2.126   5.392  12.501
80127SOL     OW42277   7.502  13.089   9.010
80127SOL    HW142278   7.407  13.081   9.024
80127SOL    HW242279   7.524  13.012   8.958
80128SOL     OW42280  12.867  10.054   2.376
80128SOL    HW142281  12.954  10.015   2.386
80128SOL    HW242282  12.810   9.981   2.354
80129SOL     OW42283   5.952   8.629   8.200
80129SOL    HW142284   6.000   8.656   8.278
80129SOL    HW242285   5.986   8.685   8.130
80130SOL     OW42286  11.922   6.713   8.075
80130SOL    HW142287  11.908   6.794   8.124
80130SOL    HW242288  11.885   6.644   8.131
80131SOL     OW42289  13.860  10.792  13.003
80131SOL    HW142290  13.915  10.822  12.931
80131SOL    HW242291  13.872  10.697  13.003
80132SOL     OW42292  14.545   6.239   1.225
80132SOL    HW142293  14.629   6.209   1.190
80132SOL    HW242294  14.486   6.164   1.214
80133SOL     OW42295   8.957  13.043   1.399
80133SOL    HW142296   8.916  12.995   1.471
80133SOL    HW242297   9.048  13.014   1.399
80134SOL     OW42298   9.869  10.552   2.556
80134SOL    HW142299   9.960  10.523   2.567
80134SOL    HW242300   9.851  10.538   2.463
80135SOL     OW42301   3.316   4.058   2.496
80135SOL    HW142302   3.386   4.084   2.436
80135SOL    HW242303   3.255   4.009   2.441
80136SOL     OW42304  10.232   8.241   0.473
80136SOL    HW142305  10.218   8.262   0.565
80136SOL    HW242306  10.175   8.166   0.456
80137SOL     OW42307   1.697  12.395   5.712
80137SOL    HW142308   1.612  12.364   5.681
80137SOL    HW242309   1.758  12.326   5.687
80138SOL     OW42310  12.527   7.791  12.095
80138SOL    HW142311  12.538   7.836  12.179
80138SOL    HW242312  12.564   7.704  12.109
80139SOL     OW42313   8.642   0.796  13.869
80139SOL    HW142314   8.633   0.794  13.964
80139SOL    HW242315   8.597   0.876  13.842
80140SOL     OW42316   3.907   1.988  14.066
80140SOL    HW142317   3.888   1.923  13.998
80140SOL    HW242318   3.824   2.033  14.080
80141SOL     OW42319  14.392  10.864   8.568
80141SOL    HW142320  14.335  10.838   8.495
80141SOL    HW242321  14.358  10.948   8.597
80142SOL     OW42322  13.660  10.573   8.049
80142SOL    HW142323  13.584  10.537   8.095
80142SOL    HW242324  13.638  10.564   7.956
80143SOL     OW42325  10.641   1.595   2.095
80143SOL    HW142326  10.688   1.640   2.165
80143SOL    HW242327  10.691   1.515   2.080
80144SOL     OW42328   2.585   8.401  11.443
80144SOL    HW142329   2.517   8.445  11.392
80144SOL    HW242330   2.557   8.309  11.445
80145SOL     OW42331  13.394   9.321   5.902
80145SOL    HW142332  13.478   9.282   5.875
80145SOL    HW242333  13.366   9.267   5.976
80146SOL     OW42334   1.506   4.828  13.177
80146SOL    HW142335   1.433   4.860  13.125
80146SOL    HW242336   1.550   4.764  13.120
80147SOL     OW42337   4.548  10.009   1.121
80147SOL    HW142338   4.641  10.031   1.118
80147SOL    HW242339   4.504  10.088   1.089
80148SOL     OW42340   4.808   3.377   7.168
80148SOL    HW142341   4.858   3.384   7.087
80148SOL    HW242342   4.872   3.386   7.238
80149SOL     OW42343   2.575   8.642  12.971
80149SOL    HW142344   2.520   8.630  12.894
80149SOL    HW242345   2.568   8.734  12.993
80150SOL     OW42346  13.799   9.555  10.877
80150SOL    HW142347  13.808   9.651  10.878
80150SOL    HW242348  13.779   9.534  10.786
80151SOL     OW42349   1.528   8.208   8.176
80151SOL    HW142350   1.585   8.240   8.246
80151SOL    HW242351   1.467   8.149   8.220
80152SOL     OW42352   1.321  12.958  10.021
80152SOL    HW142353   1.301  12.930  10.110
80152SOL    HW242354   1.236  12.981   9.983
80153SOL     OW42355  12.875   9.973  11.798
80153SOL    HW142356  12.928  10.005  11.725
80153SOL    HW242357  12.911  10.016  11.876
80154SOL     OW42358   8.706  14.460  14.204
80154SOL    HW142359   8.763  14.499  14.139
80154SOL    HW242360   8.688  14.372  14.171
80155SOL     OW42361   6.157   5.042   7.484
80155SOL    HW142362   6.225   5.042   7.417
80155SOL    HW242363   6.205   5.051   7.566
80156SOL     OW42364   5.208   0.705  14.871
80156SOL    HW142365   5.263   0.781   0.010
80156SOL    HW242366   5.262   0.630   0.018
80157SOL     OW42367  14.560   4.301   7.401
80157SOL    HW142368  14.487   4.240   7.390
80157SOL    HW242369  14.532   4.359   7.472
80158SOL     OW42370   5.580  14.461   5.763
80158SOL    HW142371   5.647  14.430   5.702
80158SOL    HW242372   5.609  14.549   5.788
80159SOL     OW42373   1.662  10.215  12.363
80159SOL    HW142374   1.666  10.238  12.270
80159SOL    HW242375   1.570  10.194  12.379
80160SOL     OW42376   8.321   3.505   6.143
80160SOL    HW142377   8.388   3.572   6.152
80160SOL    HW242378   8.266   3.535   6.070
80161SOL     OW42379   2.570  13.398   3.323
80161SOL    HW142380   2.520  13.436   3.251
80161SOL    HW242381   2.613  13.473   3.364
80162SOL     OW42382   2.048  11.130   2.493
80162SOL    HW142383   1.976  11.183   2.458
80162SOL    HW242384   2.111  11.194   2.526
80163SOL     OW42385   6.720   9.031  13.736
80163SOL    HW142386   6.780   9.078  13.795
80163SOL    HW242387   6.767   9.027  13.653
80164SOL     OW42388   1.566  12.247   0.867
80164SOL    HW142389   1.585  12.161   0.829
80164SOL    HW242390   1.494  12.232   0.928
80165SOL     OW42391   9.577   4.777   3.045
80165SOL    HW142392   9.541   4.710   2.987
80165SOL    HW242393   9.629   4.728   3.109
80166SOL     OW42394  12.532   8.775   1.708
80166SOL    HW142395  12.509   8.862   1.675
80166SOL    HW242396  12.627   8.769   1.695
80167SOL     OW42397   1.593  10.741   5.200
80167SOL    HW142398   1.685  10.715   5.197
80167SOL    HW242399   1.595  10.836   5.188
80168SOL     OW42400   2.499   9.365   1.650
80168SOL    HW142401   2.490   9.284   1.699
80168SOL    HW242402   2.480   9.341   1.559
80169SOL     OW42403   1.644  10.137   7.026
80169SOL    HW142404   1.598  10.181   6.955
80169SOL    HW242405   1.735  10.167   7.018
80170SOL     OW42406   5.852   8.342   0.450
80170SOL    HW142407   5.912   8.306   0.384
80170SOL    HW242408   5.770   8.296   0.434
80171SOL     OW42409   2.251   0.600   4.188
80171SOL    HW142410   2.325   0.661   4.187
80171SOL    HW242411   2.183   0.643   4.137
80172SOL     OW42412   1.143   5.428  13.250
80172SOL    HW142413   1.233   5.455  13.234
80172SOL    HW242414   1.094   5.460  13.173
80173SOL     OW42415  10.876   0.793   6.568
80173SOL    HW142416  10.894   0.722   6.630
80173SOL    HW242417  10.825   0.856   6.619
80174SOL     OW42418   3.067   9.245   6.148
80174SOL    HW142419   3.127   9.235   6.221
80174SOL    HW242420   3.014   9.164   6.149
80175SOL     OW42421  12.234   6.664   3.661
80175SOL    HW142422  12.267   6.716   3.735
80175SOL    HW242423  12.144   6.695   3.649
80176SOL     OW42424   1.667   3.343  13.290
80176SOL    HW142425   1.589   3.399  13.291
80176SOL    HW242426   1.700   3.346  13.380
80177SOL     OW42427  11.941   7.125  12.452
80177SOL    HW142428  12.028   7.099  12.421
80177SOL    HW242429  11.902   7.172  12.379
80178SOL     OW42430  14.744   7.628   3.949
80178SOL    HW142431  14.778   7.695   4.008
80178SOL    HW242432  14.705   7.677   3.877
80179SOL     OW42433   5.448   9.313   2.820
80179SOL    HW142434   5.513   9.369   2.862
80179SOL    HW242435   5.500   9.248   2.772
80180SOL     OW42436  13.472   0.306  12.781
80180SOL    HW142437  13.485   0.397  12.755
80180SOL    HW242438  13.495   0.255  12.704
80181SOL     OW42439   2.885  12.165   1.923
80181SOL    HW142440   2.811  12.145   1.981
80181SOL    HW242441   2.961  12.167   1.980
80182SOL     OW42442   3.086  12.536   8.110
80182SOL    HW142443   3.015  12.595   8.085
80182SOL    HW242444   3.126  12.576   8.187
80183SOL     OW42445   5.220  14.026   5.899
80183SOL    HW142446   5.177  14.060   5.821
80183SOL    HW242447   5.165  14.055   5.972
80184SOL     OW42448  14.251   2.718  13.711
80184SOL    HW142449  14.296   2.735  13.794
80184SOL    HW242450  14.268   2.796  13.658
80185SOL     OW42451   4.170   3.917  13.041
80185SOL    HW142452   4.075   3.922  13.057
80185SOL    HW242453   4.188   3.990  12.982
80186SOL     OW42454   0.995   1.433   8.822
80186SOL    HW142455   0.997   1.517   8.775
80186SOL    HW242456   0.978   1.457   8.913
80187SOL     OW42457   8.631   2.741  11.775
80187SOL    HW142458   8.628   2.665  11.833
80187SOL    HW242459   8.582   2.714  11.697
80188SOL     OW42460   8.006  13.205   9.930
80188SOL    HW142461   8.028  13.296   9.910
80188SOL    HW242462   7.969  13.172   9.848
80189SOL     OW42463   4.458   7.501   3.961
80189SOL    HW142464   4.372   7.504   3.918
80189SOL    HW242465   4.447   7.438   4.032
80190SOL     OW42466  13.088   7.954   8.418
80190SOL    HW142467  13.053   8.043   8.419
80190SOL    HW242468  13.014   7.900   8.390
80191SOL     OW42469   5.125  10.797   9.782
80191SOL    HW142470   5.100  10.837   9.864
80191SOL    HW242471   5.090  10.708   9.786
80192SOL     OW42472   8.453   6.027   5.457
80192SOL    HW142473   8.453   5.935   5.428
80192SOL    HW242474   8.544   6.056   5.447
80193SOL     OW42475   7.947  13.258   3.074
80193SOL    HW142476   7.922  13.232   2.985
80193SOL    HW242477   7.915  13.348   3.082
80194SOL     OW42478   6.768  10.411  13.358
80194SOL    HW142479   6.770  10.483  13.421
80194SOL    HW242480   6.741  10.335  13.409
80195SOL     OW42481   2.548   8.877   1.690
80195SOL    HW142482   2.561   8.849   1.781
80195SOL    HW242483   2.636   8.874   1.652
80196SOL     OW42484   3.317   0.625   9.186
80196SOL    HW142485   3.248   0.576   9.141
80196SOL    HW242486   3.274   0.707   9.213
80197SOL     OW42487   8.128   1.320   3.693
80197SOL    HW142488   8.077   1.239   3.686
80197SOL    HW242489   8.103   1.357   3.778
80198SOL     OW42490   8.184   1.197   7.011
80198SOL    HW142491   8.143   1.125   6.964
80198SOL    HW242492   8.114   1.232   7.067
80199SOL     OW42493   8.235  12.379  10.224
80199SOL    HW142494   8.170  12.313  10.247
80199SOL    HW242495   8.230  12.385  10.128
80200SOL     OW42496  14.334   0.839   5.342
80200SOL    HW142497  14.393   0.900   5.298
80200SOL    HW242498  14.312   0.774   5.274
80201SOL     OW42499   4.725  11.925  14.236
80201SOL    HW142500   4.633  11.902  14.222
80201SOL    HW242501   4.732  11.934  14.331
80202SOL     OW42502   8.010   6.307   7.211
80202SOL    HW142503   7.943   6.328   7.276
80202SOL    HW242504   8.090   6.346   7.246
80203SOL     OW42505   7.124  10.574   3.908
80203SOL    HW142506   7.123  10.663   3.873
80203SOL    HW242507   7.214  10.545   3.896
80204SOL     OW42508  12.074   6.048   5.380
80204SOL    HW142509  11.988   6.028   5.417
80204SOL    HW242510  12.067   6.139   5.350
80205SOL     OW42511  14.876   8.849  12.859
80205SOL    HW142512  14.820   8.772  12.868
80205SOL    HW242513   0.035   8.841  12.771
80206SOL     OW42514   0.274   5.237   9.156
80206SOL    HW142515   0.234   5.320   9.183
80206SOL    HW242516   0.365   5.244   9.185
80207SOL     OW42517   4.928  11.658  11.210
80207SOL    HW142518   4.874  11.671  11.132
80207SOL    HW242519   4.912  11.736  11.264
80208SOL     OW42520  14.319   8.308   2.214
80208SOL    HW142521  14.273   8.245   2.270
80208SOL    HW242522  14.251   8.369   2.185
80209SOL     OW42523   5.837   3.053   1.412
80209SOL    HW142524   5.833   3.130   1.355
80209SOL    HW242525   5.884   3.082   1.489
80210SOL     OW42526   5.875  12.337   5.139
80210SOL    HW142527   5.934  12.316   5.067
80210SOL    HW242528   5.822  12.258   5.151
80211SOL     OW42529  14.163   2.072   5.582
80211SOL    HW142530  14.209   2.093   5.663
80211SOL    HW242531  14.074   2.104   5.596
80212SOL     OW42532   5.137   2.946  11.929
80212SOL    HW142533   5.223   2.980  11.954
80212SOL    HW242534   5.152   2.904  11.844
80213SOL     OW42535   2.395   4.666  13.645
80213SOL    HW142536   2.438   4.733  13.592
80213SOL    HW242537   2.445   4.586  13.626
80214SOL     OW42538  12.378  14.334   8.408
80214SOL    HW142539  12.365  14.429   8.407
80214SOL    HW242540  12.407  14.315   8.497
80215SOL     OW42541  10.823  12.545  11.498
80215SOL    HW142542  10.737  12.586  11.496
80215SOL    HW242543  10.846  12.540  11.591
80216SOL     OW42544  10.820   8.189   2.067
80216SOL    HW142545  10.815   8.284   2.075
80216SOL    HW242546  10.885   8.174   1.997
80217SOL     OW42547   5.558   5.898  11.492
80217SOL    HW142548   5.590   5.973  11.443
80217SOL    HW242549   5.465   5.893  11.470
80218SOL     OW42550   0.372   0.565   4.149
80218SOL    HW142551   0.325   0.593   4.071
80218SOL    HW242552   0.321   0.491   4.183
80219SOL     OW42553   2.686   3.881   9.322
80219SOL    HW142554   2.729   3.919   9.398
80219SOL    HW242555   2.737   3.912   9.247
80220SOL     OW42556   2.041   7.815   2.524
80220SOL    HW142557   2.016   7.907   2.512
80220SOL    HW242558   2.111   7.819   2.589
80221SOL     OW42559   7.151   4.084   9.633
80221SOL    HW142560   7.166   4.134   9.714
80221SOL    HW242561   7.075   4.125   9.593
80222SOL     OW42562   9.632   3.638   5.050
80222SOL    HW142563   9.569   3.610   4.984
80222SOL    HW242564   9.616   3.731   5.061
80223SOL     OW42565   6.569  14.047  14.196
80223SOL    HW142566   6.577  14.058  14.102
80223SOL    HW242567   6.645  14.093  14.232
80224SOL     OW42568   5.237   1.386  14.850
80224SOL    HW142569   5.268   1.473  14.876
80224SOL    HW242570   5.297   1.359  14.780
80225SOL     OW42571   5.040   3.068  13.657
80225SOL    HW142572   4.997   3.041  13.738
80225SOL    HW242573   5.089   2.991  13.630
80226SOL     OW42574   8.483   1.414  13.700
80226SOL    HW142575   8.416   1.478  13.724
80226SOL    HW242576   8.565   1.454  13.729
80227SOL     OW42577   0.465   1.262   9.606
80227SOL    HW142578   0.470   1.187   9.666
80227SOL    HW242579   0.438   1.225   9.523
80228SOL     OW42580   9.009   6.660   1.860
80228SOL    HW142581   9.006   6.579   1.910
80228SOL    HW242582   8.957   6.642   1.782
80229SOL     OW42583   1.406   5.887  13.535
80229SOL    HW142584   1.407   5.975  13.573
80229SOL    HW242585   1.477   5.888  13.471
80230SOL     OW42586  10.168   9.823   9.816
80230SOL    HW142587  10.231   9.771   9.865
80230SOL    HW242588  10.153   9.900   9.871
80231SOL     OW42589   1.546  13.355   5.753
80231SOL    HW142590   1.607  13.303   5.700
80231SOL    HW242591   1.485  13.393   5.690
80232SOL     OW42592  10.791  11.822  14.234
80232SOL    HW142593  10.866  11.843  14.290
80232SOL    HW242594  10.791  11.892  14.168
80233SOL     OW42595  13.372   9.880   0.873
80233SOL    HW142596  13.349   9.860   0.964
80233SOL    HW242597  13.364   9.796   0.828
80234SOL     OW42598   0.352   4.346   9.857
80234SOL    HW142599   0.407   4.360   9.934
80234SOL    HW242600   0.309   4.262   9.874
80235SOL     OW42601   8.459  12.957   2.470
80235SOL    HW142602   8.468  12.977   2.563
80235SOL    HW242603   8.547  12.966   2.435
80236SOL     OW42604   7.055  13.829   3.956
80236SOL    HW142605   7.119  13.832   3.885
80236SOL    HW242606   6.971  13.850   3.914
80237SOL     OW42607  13.902  13.590   4.536
80237SOL    HW142608  13.907  13.496   4.519
80237SOL    HW242609  13.992  13.621   4.523
80238SOL     OW42610   1.530  12.641   3.996
80238SOL    HW142611   1.522  12.646   3.901
80238SOL    HW242612   1.573  12.723   4.021
80239SOL     OW42613   4.146   6.649   1.359
80239SOL    HW142614   4.219   6.691   1.404
80239SOL    HW242615   4.155   6.677   1.268
80240SOL     OW42616   4.439   8.071   1.224
80240SOL    HW142617   4.380   8.122   1.169
80240SOL    HW242618   4.458   8.129   1.299
80241SOL     OW42619  13.648   4.581  11.735
80241SOL    HW142620  13.637   4.520  11.809
80241SOL    HW242621  13.562   4.585  11.694
80242SOL     OW42622   2.248   2.857  10.444
80242SOL    HW142623   2.181   2.812  10.497
80242SOL    HW242624   2.267   2.937  10.492
80243SOL     OW42625  12.672   0.635  11.213
80243SOL    HW142626  12.690   0.606  11.303
80243SOL    HW242627  12.713   0.568  11.158
80244SOL     OW42628   8.227  10.762  13.377
80244SOL    HW142629   8.262  10.851  13.381
80244SOL    HW242630   8.154  10.763  13.440
80245SOL     OW42631   6.818   8.494   9.829
80245SOL    HW142632   6.875   8.546   9.885
80245SOL    HW242633   6.867   8.414   9.812
80246SOL     OW42634   7.653   2.923   1.914
80246SOL    HW142635   7.573   2.921   1.966
80246SOL    HW242636   7.669   2.832   1.890
80247SOL     OW42637   4.004   9.599   6.126
80247SOL    HW142638   3.978   9.619   6.216
80247SOL    HW242639   4.095   9.629   6.121
80248SOL     OW42640   8.825  12.199   6.336
80248SOL    HW142641   8.813  12.289   6.364
80248SOL    HW242642   8.882  12.161   6.402
80249SOL     OW42643   3.263  13.525   3.695
80249SOL    HW142644   3.313  13.606   3.703
80249SOL    HW242645   3.205  13.538   3.620
80250SOL     OW42646   9.925  11.855   9.074
80250SOL    HW142647   9.928  11.834   8.981
80250SOL    HW242648   9.844  11.814   9.105
80251SOL     OW42649   9.637   7.357  11.983
80251SOL    HW142650   9.692   7.278  11.976
80251SOL    HW242651   9.586   7.343  12.064
80252SOL     OW42652  12.880  10.999  10.725
80252SOL    HW142653  12.959  10.971  10.678
80252SOL    HW242654  12.895  10.972  10.815
80253SOL     OW42655  10.628   3.559   7.144
80253SOL    HW142656  10.611   3.481   7.091
80253SOL    HW242657  10.587   3.540   7.228
80254SOL     OW42658   2.446  11.383  12.393
80254SOL    HW142659   2.462  11.320  12.322
80254SOL    HW242660   2.426  11.329  12.469
80255SOL     OW42661   3.305  12.413   2.831
80255SOL    HW142662   3.318  12.507   2.826
80255SOL    HW242663   3.362  12.384   2.902
80256SOL     OW42664   0.865   5.759   2.547
80256SOL    HW142665   0.815   5.739   2.468
80256SOL    HW242666   0.830   5.844   2.576
80257SOL     OW42667   1.497   8.305   4.650
80257SOL    HW142668   1.592   8.295   4.659
80257SOL    HW242669   1.481   8.295   4.556
80258SOL     OW42670   5.616   0.428   7.755
80258SOL    HW142671   5.530   0.462   7.730
80258SOL    HW242672   5.658   0.500   7.802
80259SOL     OW42673   0.378   8.141   9.982
80259SOL    HW142674   0.409   8.055  10.013
80259SOL    HW242675   0.308   8.164  10.043
80260SOL     OW42676   2.966  11.529   9.663
80260SOL    HW142677   3.030  11.544   9.733
80260SOL    HW242678   2.950  11.615   9.626
80261SOL     OW42679   2.590   4.892   2.057
80261SOL    HW142680   2.503   4.898   2.017
80261SOL    HW242681   2.606   4.980   2.092
80262SOL     OW42682  13.860   9.631   6.853
80262SOL    HW142683  13.856   9.695   6.782
80262SOL    HW242684  13.929   9.570   6.828
80263SOL     OW42685   1.072   2.496  11.501
80263SOL    HW142686   1.073   2.522  11.409
80263SOL    HW242687   1.146   2.436  11.509
80264SOL     OW42688   7.870   5.115  10.873
80264SOL    HW142689   7.863   5.066  10.955
80264SOL    HW242690   7.850   5.205  10.897
80265SOL     OW42691   0.946   2.892  12.637
80265SOL    HW142692   0.959   2.927  12.725
80265SOL    HW242693   0.851   2.894  12.625
80266SOL     OW42694  12.165   6.303   6.065
80266SOL    HW142695  12.176   6.288   6.159
80266SOL    HW242696  12.171   6.398   6.054
80267SOL     OW42697  12.855  11.744   5.439
80267SOL    HW142698  12.847  11.774   5.529
80267SOL    HW242699  12.765  11.730   5.410
80268SOL     OW42700   7.630   4.787  10.948
80268SOL    HW142701   7.646   4.881  10.943
80268SOL    HW242702   7.653   4.754  10.861
80269SOL     OW42703  13.631   0.492   7.482
80269SOL    HW142704  13.714   0.505   7.528
80269SOL    HW242705  13.574   0.448   7.546
80270SOL     OW42706  12.412  13.120   4.616
80270SOL    HW142707  12.457  13.159   4.691
80270SOL    HW242708  12.464  13.148   4.540
80271SOL     OW42709   7.124   6.999   3.822
80271SOL    HW142710   7.080   6.936   3.878
80271SOL    HW242711   7.072   7.079   3.831
80272SOL     OW42712   8.509  14.197   6.938
80272SOL    HW142713   8.515  14.110   6.978
80272SOL    HW242714   8.574  14.195   6.867
80273SOL     OW42715   2.472   2.463  10.889
80273SOL    HW142716   2.382   2.490  10.908
80273SOL    HW242717   2.478   2.374  10.924
80274SOL     OW42718   7.554   0.951   4.199
80274SOL    HW142719   7.498   1.001   4.258
80274SOL    HW242720   7.643   0.966   4.233
80275SOL     OW42721  10.355   0.449  12.477
80275SOL    HW142722  10.276   0.460  12.424
80275SOL    HW242723  10.420   0.507  12.436
80276SOL     OW42724  12.314  10.302   1.991
80276SOL    HW142725  12.347  10.213   1.978
80276SOL    HW242726  12.220  10.291   2.000
80277SOL     OW42727  10.940  14.360   0.820
80277SOL    HW142728  10.976  14.424   0.882
80277SOL    HW242729  10.871  14.408   0.774
80278SOL     OW42730  11.645   2.908  14.049
80278SOL    HW142731  11.679   2.849  14.116
80278SOL    HW242732  11.697   2.887  13.971
80279SOL     OW42733  13.805  10.126   6.937
80279SOL    HW142734  13.877  10.090   6.988
80279SOL    HW242735  13.775  10.053   6.883
80280SOL     OW42736  10.757  13.508  11.725
80280SOL    HW142737  10.681  13.531  11.778
80280SOL    HW242738  10.765  13.579  11.661
80281SOL     OW42739  11.065  10.863   0.216
80281SOL    HW142740  11.076  10.918   0.138
80281SOL    HW242741  10.997  10.800   0.191
80282SOL     OW42742  10.042  14.748   2.243
80282SOL    HW142743  10.079  14.706   2.165
80282SOL    HW242744   9.948  14.734   2.235
80283SOL     OW42745   5.738  14.541   4.542
80283SOL    HW142746   5.652  14.552   4.500
80283SOL    HW242747   5.743  14.447   4.562
80284SOL     OW42748   6.018  12.605   1.850
80284SOL    HW142749   6.108  12.617   1.880
80284SOL    HW242750   6.020  12.523   1.799
80285SOL     OW42751  13.346  10.747  10.661
80285SOL    HW142752  13.280  10.793  10.609
80285SOL    HW242753  13.406  10.710  10.596
80286SOL     OW42754   4.482  13.748   6.525
80286SOL    HW142755   4.450  13.661   6.502
80286SOL    HW242756   4.440  13.768   6.609
80287SOL     OW42757   1.215   8.057   8.035
80287SOL    HW142758   1.240   8.047   8.127
80287SOL    HW242759   1.268   8.130   8.003
80288SOL     OW42760   8.814   2.067  14.763
80288SOL    HW142761   8.830   1.982  14.723
80288SOL    HW242762   8.722   2.064  14.791
80289SOL     OW42763   9.487  11.632   1.344
80289SOL    HW142764   9.418  11.639   1.278
80289SOL    HW242765   9.524  11.720   1.349
80290SOL     OW42766  10.077   0.606   2.457
80290SOL    HW142767  10.019   0.676   2.428
80290SOL    HW242768  10.036   0.573   2.537
80291SOL     OW42769  14.451   6.652  12.386
80291SOL    HW142770  14.461   6.715  12.314
80291SOL    HW242771  14.359   6.662  12.413
80292SOL     OW42772   1.419  12.322  12.871
80292SOL    HW142773   1.513  12.324  12.888
80292SOL    HW242774   1.379  12.301  12.955
80293SOL     OW42775  13.908   5.176  12.969
80293SOL    HW142776  13.898   5.267  12.939
80293SOL    HW242777  13.820   5.152  12.999
80294SOL     OW42778  12.016  11.134  14.732
80294SOL    HW142779  12.071  11.119  14.655
80294SOL    HW242780  12.069  11.190  14.789
80295SOL     OW42781  14.286   6.340   4.330
80295SOL    HW142782  14.219   6.346   4.262
80295SOL    HW242783  14.247   6.284   4.397
80296SOL     OW42784   6.512  10.568   8.708
80296SOL    HW142785   6.511  10.589   8.802
80296SOL    HW242786   6.492  10.475   8.705
80297SOL     OW42787  12.627  13.592  10.627
80297SOL    HW142788  12.595  13.561  10.712
80297SOL    HW242789  12.557  13.648  10.594
80298SOL     OW42790   7.484  10.040  13.627
80298SOL    HW142791   7.399  10.014  13.664
80298SOL    HW242792   7.547  10.026  13.697
80299SOL     OW42793   5.459   0.584   1.137
80299SOL    HW142794   5.371   0.601   1.103
80299SOL    HW242795   5.465   0.638   1.216
80300SOL     OW42796   7.145  11.970   9.442
80300SOL    HW142797   7.223  11.933   9.399
80300SOL    HW242798   7.087  11.895   9.452
80301SOL     OW42799  12.738   9.500  13.328
80301SOL    HW142800  12.791   9.510  13.406
80301SOL    HW242801  12.791   9.536  13.257
80302SOL     OW42802  10.359   8.355   0.011
80302SOL    HW142803  10.350   8.286   0.077
80302SOL    HW242804  10.286   8.414   0.027
80303SOL     OW42805  14.161   3.068  11.413
80303SOL    HW142806  14.126   3.152  11.384
80303SOL    HW242807  14.256   3.078  11.405
80304SOL     OW42808   9.657  10.400   9.155
80304SOL    HW142809   9.592  10.415   9.223
80304SOL    HW242810   9.729  10.460   9.177
80305SOL     OW42811   2.786  10.105  14.160
80305SOL    HW142812   2.813  10.196  14.172
80305SOL    HW242813   2.750  10.079  14.244
80306SOL     OW42814  11.639   5.962   0.227
80306SOL    HW142815  11.712   5.978   0.167
80306SOL    HW242816  11.561   5.978   0.174
80307SOL     OW42817  10.427   1.135  10.215
80307SOL    HW142818  10.385   1.055  10.247
80307SOL    HW242819  10.507   1.104  10.171
80308SOL     OW42820  14.199   2.694   2.449
80308SOL    HW142821  14.243   2.713   2.532
80308SOL    HW242822  14.182   2.780   2.410
80309SOL     OW42823   3.629   5.399  11.527
80309SOL    HW142824   3.717   5.416  11.495
80309SOL    HW242825   3.587   5.349  11.457
80310SOL     OW42826  12.137   3.310  14.263
80310SOL    HW142827  12.180   3.334  14.344
80310SOL    HW242828  12.120   3.216  14.271
80311SOL     OW42829  12.201  12.141   4.763
80311SOL    HW142830  12.163  12.065   4.808
80311SOL    HW242831  12.149  12.150   4.684
80312SOL     OW42832  10.380   0.002   3.888
80312SOL    HW142833  10.449  14.873   3.954
80312SOL    HW242834  10.333  14.796   3.893
80313SOL     OW42835   3.617   7.901   2.245
80313SOL    HW142836   3.697   7.910   2.297
80313SOL    HW242837   3.648   7.866   2.161
80314SOL     OW42838   6.766   4.166   9.942
80314SOL    HW142839   6.812   4.096   9.894
80314SOL    HW242840   6.801   4.247   9.906
80315SOL     OW42841  12.128   9.155  14.688
80315SOL    HW142842  12.053   9.104  14.658
80315SOL    HW242843  12.112   9.168  14.782
80316SOL     OW42844   6.913   4.929   1.337
80316SOL    HW142845   6.834   4.975   1.309
80316SOL    HW242846   6.951   4.986   1.404
80317SOL     OW42847   8.153   9.121   3.662
80317SOL    HW142848   8.174   9.070   3.584
80317SOL    HW242849   8.229   9.109   3.719
80318SOL     OW42850   3.382   9.426   7.930
80318SOL    HW142851   3.305   9.369   7.939
80318SOL    HW242852   3.424   9.424   8.016
80319SOL     OW42853   1.028   8.795  14.303
80319SOL    HW142854   0.938   8.791  14.271
80319SOL    HW242855   1.023   8.765  14.394
80320SOL     OW42856  13.899   7.165   9.483
80320SOL    HW142857  13.975   7.107   9.478
80320SOL    HW242858  13.880   7.171   9.577
80321SOL     OW42859   4.976   9.730   3.860
80321SOL    HW142860   4.998   9.670   3.788
80321SOL    HW242861   4.920   9.796   3.819
80322SOL     OW42862   0.723   9.095   1.258
80322SOL    HW142863   0.718   9.164   1.191
80322SOL    HW242864   0.774   9.026   1.216
80323SOL     OW42865  10.071   8.097  10.105
80323SOL    HW142866   9.995   8.107  10.162
80323SOL    HW242867  10.135   8.160  10.139
80324SOL     OW42868   8.050  12.271  11.419
80324SOL    HW142869   7.960  12.287  11.391
80324SOL    HW242870   8.060  12.176  11.411
80325SOL     OW42871   6.173  10.331  11.590
80325SOL    HW142872   6.147  10.257  11.534
80325SOL    HW242873   6.216  10.392  11.530
80326SOL     OW42874   8.860   4.292  13.555
80326SOL    HW142875   8.934   4.280  13.614
80326SOL    HW242876   8.849   4.207  13.513
80327SOL     OW42877   5.602   9.112  10.278
80327SOL    HW142878   5.587   9.022  10.249
80327SOL    HW242879   5.690   9.133  10.249
80328SOL     OW42880   1.033   0.864  13.759
80328SOL    HW142881   0.984   0.820  13.690
80328SOL    HW242882   1.090   0.925  13.712
80329SOL     OW42883   2.710   9.145   3.178
80329SOL    HW142884   2.715   9.082   3.250
80329SOL    HW242885   2.680   9.094   3.103
80330SOL     OW42886   1.483   8.718  11.487
80330SOL    HW142887   1.551   8.739  11.551
80330SOL    HW242888   1.458   8.628  11.508
80331SOL     OW42889   3.578   0.723  14.079
80331SOL    HW142890   3.613   0.684  14.159
80331SOL    HW242891   3.561   0.649  14.021
80332SOL     OW42892   1.276   8.333   7.430
80332SOL    HW142893   1.351   8.388   7.405
80332SOL    HW242894   1.261   8.352   7.522
80333SOL     OW42895  12.119   7.602  12.014
80333SOL    HW142896  12.142   7.682  11.966
80333SOL    HW242897  12.195   7.545  12.003
80334SOL     OW42898  10.533   7.582   8.117
80334SOL    HW142899  10.603   7.594   8.053
80334SOL    HW242900  10.473   7.520   8.075
80335SOL     OW42901   7.436  10.360  11.368
80335SOL    HW142902   7.521  10.347  11.410
80335SOL    HW242903   7.399  10.272  11.361
80336SOL     OW42904   1.892   1.189   0.804
80336SOL    HW142905   1.964   1.145   0.759
80336SOL    HW242906   1.934   1.252   0.862
80337SOL     OW42907   4.665   9.122   0.025
80337SOL    HW142908   4.733   9.170   0.073
80337SOL    HW242909   4.588   9.179   0.031
80338SOL     OW42910   6.001   8.700   5.880
80338SOL    HW142911   5.977   8.704   5.787
80338SOL    HW242912   5.986   8.609   5.905
80339SOL     OW42913   5.855   9.179   3.394
80339SOL    HW142914   5.919   9.123   3.351
80339SOL    HW242915   5.774   9.165   3.344
80340SOL     OW42916   6.600  10.013  12.618
80340SOL    HW142917   6.657   9.942  12.647
80340SOL    HW242918   6.645  10.051  12.543
80341SOL     OW42919  13.297  14.499  11.710
80341SOL    HW142920  13.374  14.474  11.761
80341SOL    HW242921  13.324  14.488  11.619
80342SOL     OW42922   0.987   4.608   2.678
80342SOL    HW142923   1.065   4.588   2.627
80342SOL    HW242924   0.969   4.700   2.659
80343SOL     OW42925   8.680  11.487  11.395
80343SOL    HW142926   8.744  11.529  11.337
80343SOL    HW242927   8.595  11.510  11.358
80344SOL     OW42928  12.606   4.483   0.967
80344SOL    HW142929  12.513   4.493   0.988
80344SOL    HW242930  12.645   4.449   1.047
80345SOL     OW42931   2.995  13.925   2.788
80345SOL    HW142932   3.045  13.914   2.707
80345SOL    HW242933   3.014  13.846   2.839
80346SOL     OW42934   8.108  12.317   3.526
80346SOL    HW142935   8.096  12.234   3.480
80346SOL    HW242936   8.178  12.298   3.589
80347SOL     OW42937   8.247   4.781   3.442
80347SOL    HW142938   8.182   4.846   3.414
80347SOL    HW242939   8.261   4.800   3.535
80348SOL     OW42940   6.890   0.547  10.312
80348SOL    HW142941   6.893   0.538  10.407
80348SOL    HW242942   6.860   0.462  10.281
80349SOL     OW42943   4.172   0.770   7.029
80349SOL    HW142944   4.161   0.831   7.102
80349SOL    HW242945   4.247   0.717   7.053
80350SOL     OW42946  10.881  13.936   7.205
80350SOL    HW142947  10.955  13.890   7.164
80350SOL    HW242948  10.828  13.866   7.244
80351SOL     OW42949   6.284  12.279   3.181
80351SOL    HW142950   6.226  12.256   3.253
80351SOL    HW242951   6.338  12.351   3.215
80352SOL     OW42952  14.024   2.651   5.443
80352SOL    HW142953  13.943   2.678   5.485
80352SOL    HW242954  14.037   2.714   5.373
80353SOL     OW42955   0.454   4.841  14.816
80353SOL    HW142956   0.379   4.875  14.766
80353SOL    HW242957   0.530   4.887  14.780
80354SOL     OW42958  13.352  10.801   9.925
80354SOL    HW142959  13.304  10.872   9.967
80354SOL    HW242960  13.291  10.727   9.925
80355SOL     OW42961  10.393   1.095   7.262
80355SOL    HW142962  10.447   1.016   7.271
80355SOL    HW242963  10.446   1.165   7.300
80356SOL     OW42964  12.210   0.423  12.133
80356SOL    HW142965  12.174   0.501  12.090
80356SOL    HW242966  12.242   0.455  12.217
80357SOL     OW42967  13.752   0.942   8.836
80357SOL    HW142968  13.830   0.899   8.802
80357SOL    HW242969  13.708   0.874   8.887
80358SOL     OW42970  10.934   2.132   8.588
80358SOL    HW142971  10.973   2.070   8.527
80358SOL    HW242972  10.847   2.097   8.606
80359SOL     OW42973  13.901   3.646  13.993
80359SOL    HW142974  13.887   3.655  14.087
80359SOL    HW242975  13.814   3.657  13.955
80360SOL     OW42976   1.917  11.102  13.953
80360SOL    HW142977   1.877  11.171  13.902
80360SOL    HW242978   1.868  11.100  14.035
80361SOL     OW42979  10.892   8.206   5.996
80361SOL    HW142980  10.857   8.160   6.073
80361SOL    HW242981  10.986   8.193   6.002
80362SOL     OW42982   5.367  13.946  13.935
80362SOL    HW142983   5.351  13.875  13.873
80362SOL    HW242984   5.329  13.914  14.017
80363SOL     OW42985   2.260  14.160   3.153
80363SOL    HW142986   2.190  14.150   3.090
80363SOL    HW242987   2.226  14.222   3.218
80364SOL     OW42988  12.315   6.077   2.439
80364SOL    HW142989  12.329   6.014   2.510
80364SOL    HW242990  12.398   6.126   2.434
80365SOL     OW42991   0.317   9.048   2.680
80365SOL    HW142992   0.222   9.040   2.672
80365SOL    HW242993   0.337   9.132   2.639
80366SOL     OW42994   1.094  10.168  10.214
80366SOL    HW142995   1.078  10.093  10.271
80366SOL    HW242996   1.020  10.226  10.229
80367SOL     OW42997   7.588   2.831   4.673
80367SOL    HW142998   7.638   2.841   4.754
80367SOL    HW242999   7.578   2.737   4.663
80368SOL     OW43000   3.920  13.474   0.022
80368SOL    HW143001   3.889  13.564   0.029
80368SOL    HW243002   3.848  13.421   0.055
80369SOL     OW43003  10.503   8.928  12.403
80369SOL    HW143004  10.517   8.949  12.495
80369SOL    HW243005  10.492   8.833  12.401
80370SOL     OW43006   6.501   3.209   3.305
80370SOL    HW143007   6.584   3.235   3.346
80370SOL    HW243008   6.528   3.155   3.230
80371SOL     OW43009   9.216   5.753  11.920
80371SOL    HW143010   9.274   5.793  11.984
80371SOL    HW243011   9.226   5.807  11.841
80372SOL     OW43012   8.043   4.857   4.179
80372SOL    HW143013   8.097   4.897   4.247
80372SOL    HW243014   8.092   4.781   4.150
80373SOL     OW43015  10.958   1.981   6.774
80373SOL    HW143016  10.936   2.042   6.844
80373SOL    HW243017  11.053   1.979   6.773
80374SOL     OW43018  14.402   7.618   9.927
80374SOL    HW143019  14.412   7.662   9.843
80374SOL    HW243020  14.376   7.688   9.988
80375SOL     OW43021   3.320   2.364  11.389
80375SOL    HW143022   3.380   2.395  11.458
80375SOL    HW243023   3.241   2.417  11.401
80376SOL     OW43024  12.535   1.413  10.796
80376SOL    HW143025  12.600   1.367  10.744
80376SOL    HW243026  12.461   1.351  10.802
80377SOL     OW43027   8.089   6.436   6.910
80377SOL    HW143028   8.032   6.393   6.846
80377SOL    HW243029   8.031   6.493   6.960
80378SOL     OW43030   3.118  14.117  11.344
80378SOL    HW143031   3.046  14.179  11.354
80378SOL    HW243032   3.190  14.155  11.393
80379SOL     OW43033  14.417   4.655   6.710
80379SOL    HW143034  14.425   4.693   6.623
80379SOL    HW243035  14.323   4.653   6.727
80380SOL     OW43036  13.484  10.265  12.148
80380SOL    HW143037  13.483  10.176  12.114
80380SOL    HW243038  13.392  10.291  12.151
80381SOL     OW43039   3.448   4.660  13.689
80381SOL    HW143040   3.368   4.664  13.742
80381SOL    HW243041   3.455   4.569  13.662
80382SOL     OW43042   5.129   7.058  12.010
80382SOL    HW143043   5.127   7.151  12.033
80382SOL    HW243044   5.209   7.024  12.051
80383SOL     OW43045  10.477   7.623  12.810
80383SOL    HW143046  10.411   7.621  12.741
80383SOL    HW243047  10.520   7.538  12.804
80384SOL     OW43048   9.985  13.734  14.498
80384SOL    HW143049   9.932  13.783  14.435
80384SOL    HW243050   9.968  13.776  14.582
80385SOL     OW43051  12.572   9.724   4.515
80385SOL    HW143052  12.481   9.719   4.486
80385SOL    HW243053  12.607   9.637   4.495
80386SOL     OW43054   3.939   0.800   8.991
80386SOL    HW143055   4.024   0.796   9.035
80386SOL    HW243056   3.878   0.761   9.054
80387SOL     OW43057  14.782  10.483   8.883
80387SOL    HW143058  14.758  10.574   8.903
80387SOL    HW243059  14.818  10.487   8.794
80388SOL     OW43060  10.414  10.438   5.641
80388SOL    HW143061  10.463  10.419   5.721
80388SOL    HW243062  10.373  10.523   5.658
80389SOL     OW43063  13.988   2.688   0.895
80389SOL    HW143064  13.977   2.602   0.856
80389SOL    HW243065  13.904   2.707   0.937
80390SOL     OW43066  14.132  13.111   6.779
80390SOL    HW143067  14.136  13.077   6.690
80390SOL    HW243068  14.148  13.035   6.835
80391SOL     OW43069   1.702   7.311   8.534
80391SOL    HW143070   1.785   7.339   8.497
80391SOL    HW243071   1.677   7.234   8.483
80392SOL     OW43072   1.983   4.576  10.083
80392SOL    HW143073   2.000   4.659  10.039
80392SOL    HW243074   1.897   4.588  10.123
80393SOL     OW43075  10.481  14.596   9.052
80393SOL    HW143076  10.526  14.619   8.971
80393SOL    HW243077  10.551  14.579   9.115
80394SOL     OW43078   3.915   2.033   1.680
80394SOL    HW143079   3.842   2.061   1.735
80394SOL    HW243080   3.899   2.076   1.595
80395SOL     OW43081   7.608   9.032  12.768
80395SOL    HW143082   7.589   8.961  12.708
80395SOL    HW243083   7.641   9.103  12.713
80396SOL     OW43084   4.117  14.074   5.176
80396SOL    HW143085   4.132  14.124   5.257
80396SOL    HW243086   4.129  14.138   5.106
80397SOL     OW43087   4.339   2.341  12.806
80397SOL    HW143088   4.406   2.336  12.738
80397SOL    HW243089   4.283   2.414  12.780
80398SOL     OW43090   4.208   8.562   9.452
80398SOL    HW143091   4.170   8.502   9.517
80398SOL    HW243092   4.205   8.648   9.495
80399SOL     OW43093   5.714  10.276   8.638
80399SOL    HW143094   5.783  10.231   8.590
80399SOL    HW243095   5.752  10.294   8.724
80400SOL     OW43096  14.798   9.459   5.324
80400SOL    HW143097   0.002   9.506   5.303
80400SOL    HW243098  14.798   9.455   5.420
80401SOL     OW43099   9.792   6.825  11.517
80401SOL    HW143100   9.768   6.838  11.608
80401SOL    HW243101   9.747   6.745  11.491
80402SOL     OW43102   9.526   9.487  13.460
80402SOL    HW143103   9.599   9.429  13.485
80402SOL    HW243104   9.552   9.523  13.375
80403SOL     OW43105   9.790   6.948   6.015
80403SOL    HW143106   9.715   6.988   6.059
80403SOL    HW243107   9.864   7.004   6.037
80404SOL     OW43108   3.517   0.949  13.823
80404SOL    HW143109   3.471   1.000  13.890
80404SOL    HW243110   3.463   0.958  13.745
80405SOL     OW43111   2.032  13.760   6.264
80405SOL    HW143112   2.025  13.844   6.310
80405SOL    HW243113   1.943  13.724   6.267
80406SOL     OW43114   4.497   7.446   0.352
80406SOL    HW143115   4.424   7.396   0.387
80406SOL    HW243116   4.547   7.383   0.301
80407SOL     OW43117  14.226  13.135   9.288
80407SOL    HW143118  14.277  13.103   9.213
80407SOL    HW243119  14.160  13.192   9.250
80408SOL     OW43120  11.072   5.535  12.954
80408SOL    HW143121  11.108   5.463  13.005
80408SOL    HW243122  11.110   5.524  12.867
80409SOL     OW43123  13.570   0.749   1.236
80409SOL    HW143124  13.522   0.817   1.189
80409SOL    HW243125  13.517   0.731   1.314
80410SOL     OW43126  14.049   5.774   9.088
80410SOL    HW143127  13.984   5.843   9.103
80410SOL    HW243128  14.129   5.822   9.068
80411SOL     OW43129  14.355   7.097   4.163
80411SOL    HW143130  14.306   7.173   4.196
80411SOL    HW243131  14.444   7.111   4.193
80412SOL     OW43132   3.535  11.019   0.040
80412SOL    HW143133   3.459  10.984   0.086
80412SOL    HW243134   3.599  10.948   0.042
80413SOL     OW43135  10.903   7.300  13.869
80413SOL    HW143136  10.851   7.298  13.788
80413SOL    HW243137  10.839   7.307  13.939
80414SOL     OW43138   2.503   7.579   5.815
80414SOL    HW143139   2.577   7.541   5.769
80414SOL    HW243140   2.432   7.578   5.751
80415SOL     OW43141  14.162   8.112  12.180
80415SOL    HW143142  14.146   8.059  12.101
80415SOL    HW243143  14.200   8.050  12.242
80416SOL     OW43144   2.120   8.377  12.563
80416SOL    HW143145   2.063   8.416  12.497
80416SOL    HW243146   2.083   8.407  12.647
80417SOL     OW43147   2.599   5.401   3.704
80417SOL    HW143148   2.668   5.429   3.643
80417SOL    HW243149   2.627   5.316   3.736
80418SOL     OW43150  11.191   1.568   4.791
80418SOL    HW143151  11.122   1.510   4.823
80418SOL    HW243152  11.146   1.627   4.730
80419SOL     OW43153   7.650   9.855   9.865
80419SOL    HW143154   7.685   9.929   9.914
80419SOL    HW243155   7.570   9.831   9.912
80420SOL     OW43156  12.552   0.106  14.698
80420SOL    HW143157  12.524   0.106  14.607
80420SOL    HW243158  12.499   0.174  14.740
80421SOL     OW43159  12.932   0.509   5.979
80421SOL    HW143160  12.883   0.528   6.059
80421SOL    HW243161  13.019   0.483   6.009
80422SOL     OW43162  11.746   3.058   8.718
80422SOL    HW143163  11.721   3.003   8.792
80422SOL    HW243164  11.828   3.020   8.685
80423SOL     OW43165   6.664   2.675   0.030
80423SOL    HW143166   6.569   2.680   0.036
80423SOL    HW243167   6.691   2.765   0.011
80424SOL     OW43168  13.852   5.067   7.901
80424SOL    HW143169  13.929   5.016   7.875
80424SOL    HW243170  13.799   5.006   7.952
80425SOL     OW43171   6.702   8.523   5.964
80425SOL    HW143172   6.627   8.512   5.905
80425SOL    HW243173   6.667   8.500   6.050
80426SOL     OW43174   9.737   7.874   0.664
80426SOL    HW143175   9.750   7.961   0.700
80426SOL    HW243176   9.642   7.861   0.669
80427SOL     OW43177  14.304   1.671   9.985
80427SOL    HW143178  14.279   1.593   9.935
80427SOL    HW243179  14.353   1.636  10.059
80428SOL     OW43180  10.102  13.996   5.266
80428SOL    HW143181  10.122  14.041   5.184
80428SOL    HW243182  10.110  13.903   5.245
80429SOL     OW43183  13.114  11.454  14.689
80429SOL    HW143184  13.078  11.365  14.687
80429SOL    HW243185  13.038  11.511  14.682
80430SOL     OW43186   4.211  10.190  12.290
80430SOL    HW143187   4.215  10.218  12.381
80430SOL    HW243188   4.281  10.239  12.247
80431SOL     OW43189  12.498   3.887   0.906
80431SOL    HW143190  12.548   3.916   0.983
80431SOL    HW243191  12.468   3.800   0.929
80432SOL     OW43192   8.059  12.782   5.874
80432SOL    HW143193   8.149  12.813   5.858
80432SOL    HW243194   8.068  12.718   5.944
80433SOL     OW43195   5.221  12.981  10.969
80433SOL    HW143196   5.223  12.922  10.894
80433SOL    HW243197   5.153  12.945  11.026
80434SOL     OW43198  10.512   4.101  10.144
80434SOL    HW143199  10.460   4.040  10.197
80434SOL    HW243200  10.451   4.173  10.124
80435SOL     OW43201   0.665   8.660  14.551
80435SOL    HW143202   0.733   8.651  14.485
80435SOL    HW243203   0.700   8.616  14.628
80436SOL     OW43204   0.820   9.757   4.748
80436SOL    HW143205   0.885   9.721   4.688
80436SOL    HW243206   0.867   9.771   4.830
80437SOL     OW43207   3.961   3.684   3.852
80437SOL    HW143208   3.913   3.671   3.770
80437SOL    HW243209   3.900   3.655   3.920
80438SOL     OW43210   3.643   1.275  13.584
80438SOL    HW143211   3.716   1.332  13.561
80438SOL    HW243212   3.684   1.201  13.629
80439SOL     OW43213   9.034   8.272  11.532
80439SOL    HW143214   9.069   8.325  11.460
80439SOL    HW243215   8.956   8.231  11.496
80440SOL     OW43216  14.647   3.421   9.801
80440SOL    HW143217  14.602   3.337   9.790
80440SOL    HW243218  14.670   3.423   9.894
80441SOL     OW43219   1.237   7.601   0.544
80441SOL    HW143220   1.175   7.573   0.612
80441SOL    HW243221   1.323   7.592   0.584
80442SOL     OW43222  14.443   1.346   8.835
80442SOL    HW143223  14.412   1.255   8.838
80442SOL    HW243224  14.502   1.353   8.910
80443SOL     OW43225   9.665  14.475  11.221
80443SOL    HW143226   9.617  14.546  11.179
80443SOL    HW243227   9.715  14.517  11.290
80444SOL     OW43228   7.835  12.050   4.467
80444SOL    HW143229   7.921  12.012   4.451
80444SOL    HW243230   7.783  11.978   4.502
80445SOL     OW43231   3.261   3.757   6.665
80445SOL    HW143232   3.264   3.831   6.726
80445SOL    HW243233   3.231   3.795   6.583
80446SOL     OW43234   1.345   6.320   9.522
80446SOL    HW143235   1.305   6.345   9.439
80446SOL    HW243236   1.409   6.390   9.540
80447SOL     OW43237   7.240   2.707   6.873
80447SOL    HW143238   7.179   2.755   6.816
80447SOL    HW243239   7.219   2.738   6.961
80448SOL     OW43240   8.021   8.607   7.110
80448SOL    HW143241   8.089   8.596   7.044
80448SOL    HW243242   8.067   8.600   7.194
80449SOL     OW43243   8.490  10.888  10.965
80449SOL    HW143244   8.447  10.896  10.880
80449SOL    HW243245   8.581  10.912  10.948
80450SOL     OW43246  12.767   4.557  14.405
80450SOL    HW143247  12.848   4.539  14.357
80450SOL    HW243248  12.701   4.572  14.337
80451SOL     OW43249   3.180   4.847   7.297
80451SOL    HW143250   3.143   4.879   7.379
80451SOL    HW243251   3.108   4.853   7.234
80452SOL     OW43252  12.629  11.796   8.925
80452SOL    HW143253  12.680  11.824   8.849
80452SOL    HW243254  12.648  11.703   8.934
80453SOL     OW43255  13.158   9.863  11.711
80453SOL    HW143256  13.126   9.928  11.649
80453SOL    HW243257  13.240   9.831  11.673
80454SOL     OW43258   3.414   4.549  13.245
80454SOL    HW143259   3.433   4.636  13.211
80454SOL    HW243260   3.327   4.556  13.283
80455SOL     OW43261   3.004  14.575   5.654
80455SOL    HW143262   2.929  14.571   5.713
80455SOL    HW243263   2.999  14.662   5.615
80456SOL     OW43264   2.796   0.322   1.322
80456SOL    HW143265   2.738   0.247   1.338
80456SOL    HW243266   2.882   0.283   1.308
80457SOL     OW43267  13.419  10.436   1.342
80457SOL    HW143268  13.423  10.521   1.297
80457SOL    HW243269  13.405  10.459   1.434
80458SOL     OW43270   9.539   8.996   0.878
80458SOL    HW143271   9.538   8.964   0.788
80458SOL    HW243272   9.575   8.923   0.929
80459SOL     OW43273  12.799  11.367   1.224
80459SOL    HW143274  12.860  11.308   1.180
80459SOL    HW243275  12.773  11.430   1.157
80460SOL     OW43276   3.464   1.633   0.574
80460SOL    HW143277   3.420   1.561   0.530
80460SOL    HW243278   3.526   1.666   0.509
80461SOL     OW43279   8.907   6.352  10.868
80461SOL    HW143280   8.933   6.365  10.960
80461SOL    HW243281   8.851   6.427  10.848
80462SOL     OW43282  10.438   2.974   9.186
80462SOL    HW143283  10.439   2.879   9.175
80462SOL    HW243284  10.345   2.997   9.186
80463SOL     OW43285   3.666   0.586  11.800
80463SOL    HW143286   3.672   0.608  11.707
80463SOL    HW243287   3.672   0.670  11.846
80464SOL     OW43288   5.744  12.096  14.226
80464SOL    HW143289   5.728  12.048  14.145
80464SOL    HW243290   5.801  12.039  14.278
80465SOL     OW43291  13.816  14.644   5.879
80465SOL    HW143292  13.773  14.659   5.796
80465SOL    HW243293  13.830  14.549   5.883
80466SOL     OW43294   0.506  11.276   2.726
80466SOL    HW143295   0.599  11.281   2.750
80466SOL    HW243296   0.471  11.361   2.750
80467SOL     OW43297   7.627   2.475   1.587
80467SOL    HW143298   7.533   2.475   1.570
80467SOL    HW243299   7.667   2.496   1.503
80468SOL     OW43300  14.339  10.574   0.359
80468SOL    HW143301  14.337  10.644   0.425
80468SOL    HW243302  14.431  10.568   0.333
80469SOL     OW43303   4.911  14.024   8.919
80469SOL    HW143304   4.829  14.073   8.923
80469SOL    HW243305   4.890  13.945   8.869
80470SOL     OW43306  13.292  10.034   8.270
80470SOL    HW143307  13.319  10.124   8.290
80470SOL    HW243308  13.230  10.012   8.340
80471SOL     OW43309   5.889   7.483  12.242
80471SOL    HW143310   5.859   7.553  12.184
80471SOL    HW243311   5.812   7.461  12.294
80472SOL     OW43312  13.621   6.433   6.372
80472SOL    HW143313  13.528   6.417   6.390
80472SOL    HW243314  13.663   6.348   6.385
80473SOL     OW43315   8.010   3.584  10.328
80473SOL    HW143316   7.990   3.562  10.419
80473SOL    HW243317   7.925   3.603  10.288
80474SOL     OW43318   1.635   1.273  13.381
80474SOL    HW143319   1.607   1.362  13.400
80474SOL    HW243320   1.579   1.246  13.308
80475SOL     OW43321  11.338  14.446  11.949
80475SOL    HW143322  11.294  14.437  11.865
80475SOL    HW243323  11.335  14.359  11.988
80476SOL     OW43324   2.614   8.154   1.547
80476SOL    HW143325   2.671   8.159   1.624
80476SOL    HW243326   2.641   8.228   1.493
80477SOL     OW43327  14.601   3.435   1.996
80477SOL    HW143328  14.593   3.434   1.900
80477SOL    HW243329  14.527   3.382   2.026
80478SOL     OW43330   6.881  11.512  10.859
80478SOL    HW143331   6.923  11.431  10.889
80478SOL    HW243332   6.919  11.581  10.912
80479SOL     OW43333  12.173  14.818  12.341
80479SOL    HW143334  12.080  14.839  12.350
80479SOL    HW243335  12.213  14.854  12.420
80480SOL     OW43336   8.779  12.941   5.753
80480SOL    HW143337   8.753  12.914   5.665
80480SOL    HW243338   8.852  13.001   5.740
80481SOL     OW43339   6.813   1.749   6.574
80481SOL    HW143340   6.906   1.752   6.550
80481SOL    HW243341   6.793   1.838   6.602
80482SOL     OW43342   6.626   7.972   6.716
80482SOL    HW143343   6.635   7.943   6.807
80482SOL    HW243344   6.571   7.905   6.676
80483SOL     OW43345   8.805   2.531   9.443
80483SOL    HW143346   8.748   2.566   9.375
80483SOL    HW243347   8.850   2.607   9.478
80484SOL     OW43348  12.522  10.390   0.442
80484SOL    HW143349  12.478  10.338   0.375
80484SOL    HW243350  12.606  10.414   0.403
80485SOL     OW43351   4.376   4.195   0.206
80485SOL    HW143352   4.451   4.141   0.182
80485SOL    HW243353   4.410   4.284   0.210
80486SOL     OW43354  12.786   0.441   4.603
80486SOL    HW143355  12.800   0.520   4.552
80486SOL    HW243356  12.696   0.448   4.635
80487SOL     OW43357   6.197   3.093   2.212
80487SOL    HW143358   6.122   3.036   2.197
80487SOL    HW243359   6.162   3.182   2.206
80488SOL     OW43360   0.984   4.271   8.570
80488SOL    HW143361   0.899   4.310   8.548
80488SOL    HW243362   1.038   4.289   8.493
80489SOL     OW43363  13.325   3.114  13.244
80489SOL    HW143364  13.311   3.195  13.195
80489SOL    HW243365  13.290   3.046  13.188
80490SOL     OW43366   9.231  12.383   3.787
80490SOL    HW143367   9.140  12.379   3.758
80490SOL    HW243368   9.239  12.312   3.851
80491SOL     OW43369   3.977   3.938  13.823
80491SOL    HW143370   3.890   3.908  13.850
80491SOL    HW243371   3.973   3.940  13.727
80492SOL     OW43372  11.270   1.069   2.432
80492SOL    HW143373  11.333   1.118   2.484
80492SOL    HW243374  11.244   0.996   2.489
80493SOL     OW43375   1.772   0.409  11.179
80493SOL    HW143376   1.702   0.344  11.178
80493SOL    HW243377   1.834   0.376  11.244
80494SOL     OW43378   3.559   8.159   5.550
80494SOL    HW143379   3.467   8.153   5.524
80494SOL    HW243380   3.558   8.218   5.626
80495SOL     OW43381   6.595   1.594   9.858
80495SOL    HW143382   6.687   1.604   9.832
80495SOL    HW243383   6.599   1.564   9.949
80496SOL     OW43384  10.609  11.453   4.772
80496SOL    HW143385  10.590  11.409   4.689
80496SOL    HW243386  10.569  11.398   4.839
80497SOL     OW43387   8.155   1.645   5.428
80497SOL    HW143388   8.211   1.689   5.363
80497SOL    HW243389   8.168   1.552   5.410
80498SOL     OW43390  14.224  11.910  13.476
80498SOL    HW143391  14.208  11.940  13.386
80498SOL    HW243392  14.318  11.893  13.479
80499SOL     OW43393  10.540  14.024   6.421
80499SOL    HW143394  10.545  14.082   6.345
80499SOL    HW243395  10.446  14.012   6.436
80500SOL     OW43396  11.673   7.545   7.968
80500SOL    HW143397  11.622   7.535   8.048
80500SOL    HW243398  11.622   7.605   7.914
80501SOL     OW43399   3.702  10.875   9.740
80501SOL    HW143400   3.612  10.902   9.725
80501SOL    HW243401   3.721  10.903   9.829
80502SOL     OW43402  10.028  10.191   8.482
80502SOL    HW143403   9.952  10.182   8.425
80502SOL    HW243404  10.054  10.101   8.502
80503SOL     OW43405   2.369   8.043   2.558
80503SOL    HW143406   2.314   8.085   2.624
80503SOL    HW243407   2.312   8.036   2.481
80504SOL     OW43408  10.421   9.106   7.584
80504SOL    HW143409  10.374   9.064   7.656
80504SOL    HW243410  10.358   9.106   7.511
80505SOL     OW43411   5.716   8.245  10.866
80505SOL    HW143412   5.774   8.228  10.793
80505SOL    HW243413   5.652   8.308  10.833
80506SOL     OW43414  14.022   1.481  12.022
80506SOL    HW143415  14.088   1.519  11.964
80506SOL    HW243416  13.962   1.435  11.963
80507SOL     OW43417  10.006  10.691   5.770
80507SOL    HW143418   9.970  10.622   5.714
80507SOL    HW243419  10.016  10.649   5.856
80508SOL     OW43420  14.696   7.084   8.713
80508SOL    HW143421  14.744   7.006   8.684
80508SOL    HW243422  14.614   7.081   8.664
80509SOL     OW43423   2.571   2.840  10.021
80509SOL    HW143424   2.603   2.846  10.111
80509SOL    HW243425   2.539   2.750  10.014
80510SOL     OW43426  11.511   4.600  12.459
80510SOL    HW143427  11.545   4.511  12.451
80510SOL    HW243428  11.589   4.653  12.475
80511SOL     OW43429   9.136  13.326   5.345
80511SOL    HW143430   9.101  13.237   5.345
80511SOL    HW243431   9.172  13.338   5.432
80512SOL     OW43432   6.614   1.667   5.418
80512SOL    HW143433   6.531   1.627   5.393
80512SOL    HW243434   6.676   1.639   5.351
80513SOL     OW43435   3.894   1.887   4.618
80513SOL    HW143436   3.910   1.941   4.695
80513SOL    HW243437   3.810   1.844   4.636
80514SOL     OW43438   7.426  12.958  12.229
80514SOL    HW143439   7.515  12.921  12.228
80514SOL    HW243440   7.422  13.006  12.311
80515SOL     OW43441  12.866   2.589   9.114
80515SOL    HW143442  12.815   2.666   9.138
80515SOL    HW243443  12.955   2.623   9.099
80516SOL     OW43444   5.763   0.927   5.406
80516SOL    HW143445   5.748   1.010   5.452
80516SOL    HW243446   5.820   0.949   5.333
80517SOL     OW43447   9.466   5.780  12.638
80517SOL    HW143448   9.447   5.862  12.593
80517SOL    HW243449   9.421   5.788  12.722
80518SOL     OW43450   2.489   8.006  14.103
80518SOL    HW143451   2.575   7.990  14.143
80518SOL    HW243452   2.509   8.054  14.022
80519SOL     OW43453   6.184  11.557   1.191
80519SOL    HW143454   6.128  11.500   1.138
80519SOL    HW243455   6.195  11.509   1.273
80520SOL     OW43456   5.712   6.285   1.399
80520SOL    HW143457   5.728   6.352   1.465
80520SOL    HW243458   5.752   6.206   1.434
80521SOL     OW43459  13.598   9.545  14.025
80521SOL    HW143460  13.619   9.452  14.033
80521SOL    HW243461  13.622   9.582  14.110
80522SOL     OW43462   4.112   8.707  12.717
80522SOL    HW143463   4.116   8.759  12.797
80522SOL    HW243464   4.019   8.703  12.696
80523SOL     OW43465  14.336  11.145   7.632
80523SOL    HW143466  14.411  11.179   7.680
80523SOL    HW243467  14.349  11.176   7.542
80524SOL     OW43468  14.069  11.790   9.238
80524SOL    HW143469  14.069  11.706   9.283
80524SOL    HW243470  14.009  11.778   9.165
80525SOL     OW43471   9.416   8.591   5.232
80525SOL    HW143472   9.364   8.511   5.240
80525SOL    HW243473   9.384   8.647   5.303
80526SOL     OW43474  12.825  11.481   4.227
80526SOL    HW143475  12.919  11.491   4.243
80526SOL    HW243476  12.819  11.433   4.144
80527SOL     OW43477   9.612  13.021   6.876
80527SOL    HW143478   9.583  13.045   6.964
80527SOL    HW243479   9.637  12.929   6.885
80528SOL     OW43480  12.943   4.866   5.804
80528SOL    HW143481  12.999   4.789   5.815
80528SOL    HW243482  12.903   4.878   5.890
80529SOL     OW43483   5.104  13.214   4.937
80529SOL    HW143484   5.069  13.239   4.851
80529SOL    HW243485   5.031  13.168   4.980
80530SOL     OW43486   5.769   0.769   4.275
80530SOL    HW143487   5.700   0.780   4.340
80530SOL    HW243488   5.801   0.858   4.259
80531SOL     OW43489  11.942  13.355   1.783
80531SOL    HW143490  12.005  13.419   1.816
80531SOL    HW243491  11.973  13.271   1.816
80532SOL     OW43492  13.932  13.460   2.551
80532SOL    HW143493  13.962  13.450   2.461
80532SOL    HW243494  14.000  13.511   2.594
80533SOL     OW43495  14.624   7.481  10.267
80533SOL    HW143496  14.706   7.490  10.315
80533SOL    HW243497  14.579   7.407  10.309
80534SOL     OW43498  10.911   5.757  13.736
80534SOL    HW143499  10.955   5.696  13.677
80534SOL    HW243500  10.870   5.702  13.802
80535SOL     OW43501   9.532   1.434   9.574
80535SOL    HW143502   9.626   1.448   9.573
80535SOL    HW243503   9.521   1.341   9.593
80536SOL     OW43504   1.898   0.015   7.763
80536SOL    HW143505   1.834   0.048   7.700
80536SOL    HW243506   1.904  14.799   7.744
80537SOL     OW43507  11.043   7.964   2.531
80537SOL    HW143508  11.046   8.012   2.448
80537SOL    HW243509  10.963   7.911   2.525
80538SOL     OW43510  11.049   7.445   4.806
80538SOL    HW143511  11.129   7.482   4.844
80538SOL    HW243512  11.051   7.473   4.715
80539SOL     OW43513   3.043   1.466  13.318
80539SOL    HW143514   3.096   1.414  13.378
80539SOL    HW243515   3.064   1.431  13.231
80540SOL     OW43516   3.581  12.201   2.423
80540SOL    HW143517   3.492  12.216   2.455
80540SOL    HW243518   3.598  12.109   2.442
80541SOL     OW43519   4.979  14.182   4.659
80541SOL    HW143520   4.951  14.111   4.601
80541SOL    HW243521   5.013  14.249   4.600
80542SOL     OW43522   2.683   8.988   8.673
80542SOL    HW143523   2.588   8.974   8.666
80542SOL    HW243524   2.715   8.979   8.584
80543SOL     OW43525  11.551   8.016   1.234
80543SOL    HW143526  11.486   8.080   1.207
80543SOL    HW243527  11.597   8.059   1.307
80544SOL     OW43528   7.690  11.221  11.888
80544SOL    HW143529   7.699  11.294  11.949
80544SOL    HW243530   7.732  11.253  11.807
80545SOL     OW43531   7.260  14.032   7.125
80545SOL    HW143532   7.200  14.021   7.198
80545SOL    HW243533   7.203  14.043   7.049
80546SOL     OW43534   7.223  13.151   1.882
80546SOL    HW143535   7.307  13.182   1.916
80546SOL    HW243536   7.246  13.102   1.802
80547SOL     OW43537   2.670   1.348  12.630
80547SOL    HW143538   2.744   1.408  12.625
80547SOL    HW243539   2.622   1.375  12.709
80548SOL     OW43540  10.244  14.445  14.787
80548SOL    HW143541  10.152  14.427  14.807
80548SOL    HW243542  10.248  14.541  14.780
80549SOL     OW43543   0.801   4.597   0.401
80549SOL    HW143544   0.874   4.536   0.391
80549SOL    HW243545   0.842   4.683   0.412
80550SOL     OW43546  14.606  13.658  10.009
80550SOL    HW143547  14.643  13.638   9.923
80550SOL    HW243548  14.667  13.721  10.047
80551SOL     OW43549  12.891   8.768   4.908
80551SOL    HW143550  12.836   8.834   4.950
80551SOL    HW243551  12.858   8.685   4.941
80552SOL     OW43552  12.382  12.290  10.985
80552SOL    HW143553  12.301  12.252  11.021
80552SOL    HW243554  12.353  12.369  10.941
80553SOL     OW43555   1.760   4.837   4.705
80553SOL    HW143556   1.831   4.898   4.686
80553SOL    HW243557   1.795   4.780   4.774
80554SOL     OW43558  14.216   6.759  10.346
80554SOL    HW143559  14.267   6.808  10.410
80554SOL    HW243560  14.255   6.782  10.262
80555SOL     OW43561  13.924   7.248   4.344
80555SOL    HW143562  13.910   7.227   4.436
80555SOL    HW243563  13.868   7.187   4.296
80556SOL     OW43564   7.497  13.223  12.376
80556SOL    HW143565   7.490  13.287  12.306
80556SOL    HW243566   7.562  13.160  12.345
80557SOL     OW43567  12.513   8.851  13.478
80557SOL    HW143568  12.434   8.830  13.528
80557SOL    HW243569  12.522   8.946  13.486
80558SOL     OW43570  10.887   6.054  12.431
80558SOL    HW143571  10.969   6.078  12.387
80558SOL    HW243572  10.894   5.959  12.444
80559SOL     OW43573   3.544   1.228   0.454
80559SOL    HW143574   3.473   1.290   0.472
80559SOL    HW243575   3.576   1.203   0.540
80560SOL     OW43576   2.559   1.682  12.094
80560SOL    HW143577   2.614   1.755  12.122
80560SOL    HW243578   2.470   1.714  12.101
80561SOL     OW43579  12.618  11.128  14.506
80561SOL    HW143580  12.567  11.119  14.586
80561SOL    HW243581  12.614  11.041  14.465
80562SOL     OW43582  13.480  14.025   3.853
80562SOL    HW143583  13.481  14.106   3.802
80562SOL    HW243584  13.387  14.006   3.866
80563SOL     OW43585   3.483   2.899  12.418
80563SOL    HW143586   3.546   2.833  12.392
80563SOL    HW243587   3.517   2.933  12.501
80564SOL     OW43588   3.958  11.976   5.392
80564SOL    HW143589   3.962  11.978   5.488
80564SOL    HW243590   4.006  11.897   5.368
80565SOL     OW43591   3.783   5.495  14.407
80565SOL    HW143592   3.873   5.496  14.375
80565SOL    HW243593   3.784   5.553  14.483
80566SOL     OW43594   0.103   3.143  11.366
80566SOL    HW143595   0.140   3.171  11.449
80566SOL    HW243596   0.170   3.087  11.327
80567SOL     OW43597   4.874  13.801  14.607
80567SOL    HW143598   4.934  13.741  14.562
80567SOL    HW243599   4.839  13.751  14.681
80568SOL     OW43600   9.996  10.852   9.702
80568SOL    HW143601  10.081  10.829   9.666
80568SOL    HW243602  10.003  10.946   9.721
80569SOL     OW43603   7.710   6.359  12.444
80569SOL    HW143604   7.776   6.312  12.495
80569SOL    HW243605   7.632   6.304  12.451
80570SOL     OW43606   0.401   1.809  10.881
80570SOL    HW143607   0.417   1.769  10.967
80570SOL    HW243608   0.481   1.858  10.862
80571SOL     OW43609   5.818   4.137  13.354
80571SOL    HW143610   5.777   4.223  13.366
80571SOL    HW243611   5.833   4.131  13.260
80572SOL     OW43612   0.793  14.777  13.295
80572SOL    HW143613   0.795  14.687  13.261
80572SOL    HW243614   0.790  14.832  13.216
80573SOL     OW43615  13.494  10.343  13.292
80573SOL    HW143616  13.400  10.337  13.280
80573SOL    HW243617  13.515  10.275  13.356
80574SOL     OW43618   7.447   2.740   9.700
80574SOL    HW143619   7.352   2.736   9.717
80574SOL    HW243620   7.469   2.833   9.708
80575SOL     OW43621   1.885  14.641   1.741
80575SOL    HW143622   1.927  14.683   1.816
80575SOL    HW243623   1.852  14.713   1.688
80576SOL     OW43624   8.546   1.134  14.853
80576SOL    HW143625   8.479   1.074   0.010
80576SOL    HW243626   8.525   1.219   0.013
80577SOL     OW43627   8.213  14.751   3.916
80577SOL    HW143628   8.177  14.704   3.840
80577SOL    HW243629   8.173  14.707   3.991
80578SOL     OW43630   0.332   9.469  13.784
80578SOL    HW143631   0.323   9.493  13.692
80578SOL    HW243632   0.383   9.540  13.823
80579SOL     OW43633   4.527  12.381  14.452
80579SOL    HW143634   4.619  12.361  14.433
80579SOL    HW243635   4.528  12.472  14.481
80580SOL     OW43636  11.205  14.149   1.839
80580SOL    HW143637  11.261  14.187   1.771
80580SOL    HW243638  11.248  14.172   1.921
80581SOL     OW43639  12.027   6.066   7.150
80581SOL    HW143640  12.025   6.132   7.081
80581SOL    HW243641  12.071   6.109   7.223
80582SOL     OW43642   4.575  14.365  14.752
80582SOL    HW143643   4.491  14.412  14.748
80582SOL    HW243644   4.640  14.433  14.734
80583SOL     OW43645   1.899   7.610   2.663
80583SOL    HW143646   1.967   7.647   2.606
80583SOL    HW243647   1.911   7.515   2.656
80584SOL     OW43648  14.571   4.348   8.166
80584SOL    HW143649  14.665   4.367   8.160
80584SOL    HW243650  14.560   4.308   8.253
80585SOL     OW43651   9.913   6.848  14.221
80585SOL    HW143652  10.005   6.854  14.246
80585SOL    HW243653   9.895   6.932  14.178
80586SOL     OW43654   6.068   5.833   2.284
80586SOL    HW143655   6.067   5.741   2.309
80586SOL    HW243656   6.089   5.833   2.191
80587SOL     OW43657   6.204   8.125   7.955
80587SOL    HW143658   6.256   8.048   7.980
80587SOL    HW243659   6.174   8.161   8.038
80588SOL     OW43660   4.735  13.449   9.800
80588SOL    HW143661   4.737  13.501   9.880
80588SOL    HW243662   4.806  13.385   9.812
80589SOL     OW43663   3.203   3.712   5.835
80589SOL    HW143664   3.147   3.789   5.851
80589SOL    HW243665   3.275   3.722   5.897
80590SOL     OW43666  12.779   3.381  11.026
80590SOL    HW143667  12.836   3.312  11.059
80590SOL    HW243668  12.800   3.387  10.933
80591SOL     OW43669   7.788   3.331   7.116
80591SOL    HW143670   7.813   3.351   7.025
80591SOL    HW243671   7.780   3.417   7.158
80592SOL     OW43672   0.682   4.945  12.365
80592SOL    HW143673   0.674   4.936  12.460
80592SOL    HW243674   0.592   4.943  12.333
80593SOL     OW43675   7.612  13.399   1.002
80593SOL    HW143676   7.704  13.410   1.028
80593SOL    HW243677   7.612  13.418   0.908
80594SOL     OW43678   4.695   3.710   8.382
80594SOL    HW143679   4.758   3.769   8.425
80594SOL    HW243680   4.720   3.623   8.412
80595SOL     OW43681   3.837  12.712   8.927
80595SOL    HW143682   3.854  12.775   8.997
80595SOL    HW243683   3.903  12.732   8.860
80596SOL     OW43684   1.025  13.982   5.743
80596SOL    HW143685   0.951  14.027   5.784
80596SOL    HW243686   1.020  14.008   5.651
80597SOL     OW43687   0.261   5.732   5.657
80597SOL    HW143688   0.327   5.710   5.591
80597SOL    HW243689   0.308   5.789   5.719
80598SOL     OW43690   6.649  13.280   6.234
80598SOL    HW143691   6.625  13.269   6.142
80598SOL    HW243692   6.590  13.222   6.281
80599SOL     OW43693   1.450  12.453   7.377
80599SOL    HW143694   1.461  12.439   7.283
80599SOL    HW243695   1.458  12.366   7.416
80600SOL     OW43696   1.068   8.045  13.219
80600SOL    HW143697   1.151   8.041  13.266
80600SOL    HW243698   1.011   8.098  13.275
80601SOL     OW43699  14.495   2.378  12.928
80601SOL    HW143700  14.586   2.377  12.955
80601SOL    HW243701  14.498   2.360  12.834
80602SOL     OW43702   5.564  12.994   5.397
80602SOL    HW143703   5.473  13.005   5.424
80602SOL    HW243704   5.608  12.959   5.474
80603SOL     OW43705  11.134   3.907   2.267
80603SOL    HW143706  11.081   3.976   2.307
80603SOL    HW243707  11.144   3.842   2.336
80604SOL     OW43708  11.135  11.087  11.391
80604SOL    HW143709  11.138  11.056  11.482
80604SOL    HW243710  11.063  11.039  11.352
80605SOL     OW43711  10.442  14.077  14.258
80605SOL    HW143712  10.447  14.172  14.254
80605SOL    HW243713  10.438  14.049  14.166
80606SOL     OW43714   3.001   9.631  14.671
80606SOL    HW143715   2.981   9.707  14.725
80606SOL    HW243716   3.096   9.622  14.677
80607SOL     OW43717   5.947   8.433   1.105
80607SOL    HW143718   5.963   8.341   1.122
80607SOL    HW243719   6.025   8.463   1.058
80608SOL     OW43720   4.669   5.054  13.100
80608SOL    HW143721   4.583   5.077  13.135
80608SOL    HW243722   4.651   4.988  13.033
80609SOL     OW43723  12.847   6.197   0.127
80609SOL    HW143724  12.764   6.168   0.165
80609SOL    HW243725  12.914   6.166   0.188
80610SOL     OW43726   2.227   6.533  10.521
80610SOL    HW143727   2.268   6.524  10.435
80610SOL    HW243728   2.157   6.596  10.508
80611SOL     OW43729   9.349   4.761   2.472
80611SOL    HW143730   9.290   4.836   2.462
80611SOL    HW243731   9.305   4.704   2.535
80612SOL     OW43732   5.726  11.866   1.981
80612SOL    HW143733   5.819  11.869   1.957
80612SOL    HW243734   5.680  11.875   1.897
80613SOL     OW43735  14.483   5.476   9.300
80613SOL    HW143736  14.509   5.559   9.260
80613SOL    HW243737  14.458   5.500   9.389
80614SOL     OW43738   3.623  13.810   1.886
80614SOL    HW143739   3.671  13.876   1.835
80614SOL    HW243740   3.634  13.729   1.836
80615SOL     OW43741   8.326   3.353   0.013
80615SOL    HW143742   8.321   3.332  14.798
80615SOL    HW243743   8.412   3.320   0.041
80616SOL     OW43744  10.924   1.451  11.029
80616SOL    HW143745  10.963   1.489  10.950
80616SOL    HW243746  10.995   1.450  11.093
80617SOL     OW43747   0.241   3.072  14.791
80617SOL    HW143748   0.258   3.061  14.697
80617SOL    HW243749   0.162   3.125  14.795
80618SOL     OW43750   4.532   6.891   7.081
80618SOL    HW143751   4.619   6.882   7.120
80618SOL    HW243752   4.542   6.960   7.016
80619SOL     OW43753  13.335  10.137   0.196
80619SOL    HW143754  13.360  10.197   0.126
80619SOL    HW243755  13.294  10.192   0.262
80620SOL     OW43756  11.827  13.577  12.020
80620SOL    HW143757  11.739  13.540  12.020
80620SOL    HW243758  11.874  13.527  12.088
80621SOL     OW43759   3.010   7.721  11.752
80621SOL    HW143760   2.931   7.762  11.717
80621SOL    HW243761   3.015   7.636  11.708
80622SOL     OW43762   0.297   9.264   3.503
80622SOL    HW143763   0.391   9.249   3.508
80622SOL    HW243764   0.284   9.317   3.425
80623SOL     OW43765   7.597   0.958   1.174
80623SOL    HW143766   7.687   0.985   1.196
80623SOL    HW243767   7.581   0.998   1.088
80624SOL     OW43768   2.415   1.333   0.278
80624SOL    HW143769   2.422   1.428   0.267
80624SOL    HW243770   2.323   1.319   0.301
80625SOL     OW43771   7.944   4.118  11.086
80625SOL    HW143772   7.911   4.118  11.176
80625SOL    HW243773   7.905   4.040  11.046
80626SOL     OW43774   4.550   5.518  11.293
80626SOL    HW143775   4.527   5.541  11.202
80626SOL    HW243776   4.611   5.445  11.284
80627SOL     OW43777   8.108   7.023  12.709
80627SOL    HW143778   8.013   7.013  12.714
80627SOL    HW243779   8.141   6.987  12.791
80628SOL     OW43780   8.295   9.871  11.055
80628SOL    HW143781   8.252   9.889  10.972
80628SOL    HW243782   8.243   9.801  11.094
80629SOL     OW43783   5.188  11.610   2.240
80629SOL    HW143784   5.098  11.642   2.231
80629SOL    HW243785   5.235  11.651   2.168
80630SOL     OW43786  12.190   5.993   3.303
80630SOL    HW143787  12.126   6.043   3.252
80630SOL    HW243788  12.137   5.935   3.357
80631SOL     OW43789   5.174   6.444   6.276
80631SOL    HW143790   5.172   6.523   6.330
80631SOL    HW243791   5.129   6.378   6.328
80632SOL     OW43792   1.386   0.551  13.354
80632SOL    HW143793   1.357   0.502  13.431
80632SOL    HW243794   1.404   0.484  13.288
80633SOL     OW43795   7.544   9.898   2.451
80633SOL    HW143796   7.622   9.954   2.451
80633SOL    HW243797   7.510   9.905   2.540
80634SOL     OW43798   9.811  11.283  13.246
80634SOL    HW143799   9.772  11.362  13.209
80634SOL    HW243800   9.741  11.243  13.297
80635SOL     OW43801   0.673   7.658   7.093
80635SOL    HW143802   0.670   7.567   7.125
80635SOL    HW243803   0.630   7.654   7.008
80636SOL     OW43804   3.267   6.898   1.143
80636SOL    HW143805   3.306   6.824   1.096
80636SOL    HW243806   3.337   6.963   1.149
80637SOL     OW43807   5.840   9.241  14.458
80637SOL    HW143808   5.883   9.236  14.372
80637SOL    HW243809   5.771   9.306  14.447
80638SOL     OW43810  13.394   0.126   2.680
80638SOL    HW143811  13.415   0.207   2.635
80638SOL    HW243812  13.302   0.136   2.707
80639SOL     OW43813   5.419   0.651   8.903
80639SOL    HW143814   5.429   0.725   8.963
80639SOL    HW243815   5.343   0.604   8.935
80640SOL     OW43816  13.908  11.100  14.134
80640SOL    HW143817  13.901  11.172  14.197
80640SOL    HW243818  13.841  11.037  14.162
80641SOL     OW43819   1.036   0.360   7.664
80641SOL    HW143820   1.050   0.445   7.623
80641SOL    HW243821   1.017   0.380   7.755
80642SOL     OW43822   9.793   8.039   4.399
80642SOL    HW143823   9.830   8.014   4.483
80642SOL    HW243824   9.844   8.115   4.372
80643SOL     OW43825  11.568  12.704  13.364
80643SOL    HW143826  11.582  12.792  13.399
80643SOL    HW243827  11.591  12.711  13.272
80644SOL     OW43828   6.782   3.662   0.771
80644SOL    HW143829   6.802   3.657   0.677
80644SOL    HW243830   6.730   3.742   0.780
80645SOL     OW43831  14.011   9.819   0.333
80645SOL    HW143832  13.925   9.807   0.373
80645SOL    HW243833  13.994   9.812   0.239
80646SOL     OW43834   5.794   5.472   3.368
80646SOL    HW143835   5.829   5.422   3.442
80646SOL    HW243836   5.871   5.512   3.328
80647SOL     OW43837   1.063   3.639   7.206
80647SOL    HW143838   1.053   3.626   7.112
80647SOL    HW243839   0.997   3.704   7.229
80648SOL     OW43840   0.502   9.517   3.322
80648SOL    HW143841   0.570   9.474   3.373
80648SOL    HW243842   0.492   9.603   3.363
80649SOL     OW43843  14.020   1.372  12.277
80649SOL    HW143844  13.994   1.280  12.269
80649SOL    HW243845  14.005   1.409  12.190
80650SOL     OW43846   3.027   1.281  13.691
80650SOL    HW143847   2.963   1.247  13.628
80650SOL    HW243848   3.110   1.276  13.645
80651SOL     OW43849  13.010  14.372   3.394
80651SOL    HW143850  13.059  14.429   3.454
80651SOL    HW243851  13.070  14.357   3.321
80652SOL     OW43852  10.689   5.212   4.443
80652SOL    HW143853  10.612   5.216   4.500
80652SOL    HW243854  10.715   5.303   4.430
80653SOL     OW43855   0.729   8.627   4.492
80653SOL    HW143856   0.763   8.577   4.418
80653SOL    HW243857   0.644   8.588   4.511
80654SOL     OW43858  13.521  11.280   7.790
80654SOL    HW143859  13.508  11.186   7.784
80654SOL    HW243860  13.520  11.310   7.699
80655SOL     OW43861   0.184   6.319   1.567
80655SOL    HW143862   0.223   6.404   1.545
80655SOL    HW243863   0.124   6.301   1.495
80656SOL     OW43864   6.700   8.072   8.683
80656SOL    HW143865   6.655   8.016   8.620
80656SOL    HW243866   6.793   8.060   8.663
80657SOL     OW43867   1.742   7.748   4.241
80657SOL    HW143868   1.826   7.792   4.235
80657SOL    HW243869   1.716   7.733   4.150
80658SOL     OW43870   3.780  13.814   3.994
80658SOL    HW143871   3.703  13.794   4.048
80658SOL    HW243872   3.829  13.732   3.990
80659SOL     OW43873   8.997  11.336   1.651
80659SOL    HW143874   9.078  11.387   1.653
80659SOL    HW243875   8.945  11.371   1.723
80660SOL     OW43876  14.845   2.060  13.619
80660SOL    HW143877   0.058   2.073  13.647
80660SOL    HW243878  14.840   2.103  13.533
80661SOL     OW43879   1.408  10.213   0.325
80661SOL    HW143880   1.364  10.251   0.401
80661SOL    HW243881   1.485  10.268   0.311
80662SOL     OW43882  13.656  11.528  10.826
80662SOL    HW143883  13.629  11.598  10.766
80662SOL    HW243884  13.738  11.560  10.865
80663SOL     OW43885  10.713   7.045  14.843
80663SOL    HW143886  10.703   6.966  14.791
80663SOL    HW243887  10.755   7.016   0.046
80664SOL     OW43888   5.297   7.135   5.002
80664SOL    HW143889   5.331   7.096   4.922
80664SOL    HW243890   5.369   7.125   5.065
80665SOL     OW43891  11.591   4.359   5.301
80665SOL    HW143892  11.626   4.407   5.226
80665SOL    HW243893  11.505   4.397   5.317
80666SOL     OW43894   3.507   9.208  14.303
80666SOL    HW143895   3.558   9.179  14.227
80666SOL    HW243896   3.417   9.184  14.282
80667SOL     OW43897   2.907   2.994  13.141
80667SOL    HW143898   2.972   2.988  13.071
80667SOL    HW243899   2.918   3.083  13.176
80668SOL     OW43900   4.004   0.127   5.266
80668SOL    HW143901   3.978   0.049   5.218
80668SOL    HW243902   4.059   0.094   5.337
80669SOL     OW43903   1.683   1.238   9.847
80669SOL    HW143904   1.713   1.310   9.793
80669SOL    HW243905   1.637   1.279   9.920
80670SOL     OW43906   4.270   1.631   1.744
80670SOL    HW143907   4.224   1.556   1.782
80670SOL    HW243908   4.264   1.699   1.811
80671SOL     OW43909  13.799   6.254   8.140
80671SOL    HW143910  13.830   6.226   8.226
80671SOL    HW243911  13.718   6.204   8.126
80672SOL     OW43912   4.961   8.292   2.165
80672SOL    HW143913   4.961   8.197   2.171
80672SOL    HW243914   4.932   8.322   2.251
80673SOL     OW43915   5.076   7.474   7.159
80673SOL    HW143916   5.161   7.493   7.199
80673SOL    HW243917   5.025   7.433   7.229
80674SOL     OW43918   7.117   0.836   3.848
80674SOL    HW143919   7.164   0.866   3.770
80674SOL    HW243920   7.040   0.892   3.853
80675SOL     OW43921  12.689   4.541   7.419
80675SOL    HW143922  12.680   4.459   7.468
80675SOL    HW243923  12.633   4.603   7.467
80676SOL     OW43924   7.434  11.917   2.452
80676SOL    HW143925   7.376  11.934   2.378
80676SOL    HW243926   7.518  11.891   2.413
80677SOL     OW43927   4.077   7.105   5.953
80677SOL    HW143928   3.997   7.126   6.001
80677SOL    HW243929   4.047   7.075   5.867
80678SOL     OW43930  13.238   7.726   0.465
80678SOL    HW143931  13.280   7.802   0.505
80678SOL    HW243932  13.290   7.652   0.495
80679SOL     OW43933   5.945  14.097   3.150
80679SOL    HW143934   5.972  14.188   3.137
80679SOL    HW243935   5.851  14.103   3.170
80680SOL     OW43936   7.390  13.864   6.171
80680SOL    HW143937   7.436  13.946   6.188
80680SOL    HW243938   7.392  13.854   6.076
80681SOL     OW43939  12.461   2.127   4.572
80681SOL    HW143940  12.538   2.168   4.533
80681SOL    HW243941  12.495   2.055   4.625
80682SOL     OW43942   2.964   5.857   9.564
80682SOL    HW143943   2.992   5.805   9.489
80682SOL    HW243944   2.927   5.937   9.525
80683SOL     OW43945   3.304  14.753   7.158
80683SOL    HW143946   3.264  14.667   7.144
80683SOL    HW243947   3.291  14.771   7.251
80684SOL     OW43948   8.073   5.723  11.785
80684SOL    HW143949   7.995   5.779  11.785
80684SOL    HW243950   8.095   5.712  11.693
80685SOL     OW43951   3.145  12.394   0.279
80685SOL    HW143952   3.090  12.331   0.326
80685SOL    HW243953   3.126  12.478   0.321
80686SOL     OW43954  14.498  13.153   3.698
80686SOL    HW143955  14.439  13.085   3.730
80686SOL    HW243956  14.441  13.226   3.677
80687SOL     OW43957  13.314   5.192  13.294
80687SOL    HW143958  13.319   5.128  13.223
80687SOL    HW243959  13.402   5.194  13.331
80688SOL     OW43960   3.427   9.671  10.253
80688SOL    HW143961   3.486   9.701  10.184
80688SOL    HW243962   3.363   9.617  10.208
80689SOL     OW43963  14.373  14.510   2.189
80689SOL    HW143964  14.336  14.445   2.248
80689SOL    HW243965  14.457  14.533   2.228
80690SOL     OW43966   9.898  10.826   0.314
80690SOL    HW143967   9.913  10.907   0.265
80690SOL    HW243968   9.980  10.812   0.361
80691SOL     OW43969   4.977   0.963  12.355
80691SOL    HW143970   5.031   0.888  12.332
80691SOL    HW243971   4.898   0.926  12.394
80692SOL     OW43972  10.433  10.787  10.902
80692SOL    HW143973  10.508  10.779  10.844
80692SOL    HW243974  10.358  10.759  10.850
80693SOL     OW43975   5.582   4.480   1.495
80693SOL    HW143976   5.526   4.485   1.418
80693SOL    HW243977   5.533   4.527   1.563
80694SOL     OW43978  12.786   0.759  12.077
80694SOL    HW143979  12.739   0.801  12.005
80694SOL    HW243980  12.767   0.814  12.153
80695SOL     OW43981   3.921   6.196  14.028
80695SOL    HW143982   3.960   6.193  13.941
80695SOL    HW243983   3.988   6.236  14.083
80696SOL     OW43984   2.259   8.265   4.301
80696SOL    HW143985   2.337   8.218   4.273
80696SOL    HW243986   2.231   8.222   4.381
80697SOL     OW43987  14.739  12.260  13.480
80697SOL    HW143988  14.755  12.305  13.563
80697SOL    HW243989  14.654  12.295  13.450
80698SOL     OW43990   1.889  14.643  11.094
80698SOL    HW143991   1.883  14.717  11.033
80698SOL    HW243992   1.801  14.635  11.130
80699SOL     OW43993  12.471   9.245  11.937
80699SOL    HW143994  12.439   9.331  11.909
80699SOL    HW243995  12.400   9.210  11.991
80700SOL     OW43996   7.517   3.189  13.833
80700SOL    HW143997   7.577   3.201  13.907
80700SOL    HW243998   7.569   3.215  13.757
80701SOL     OW43999   5.256   2.065  10.164
80701SOL    HW144000   5.210   2.127  10.108
80701SOL    HW244001   5.288   1.997  10.104
80702SOL     OW44002  11.201   3.475   0.821
80702SOL    HW144003  11.194   3.471   0.726
80702SOL    HW244004  11.293   3.495   0.838
80703SOL     OW44005  14.284   7.052  14.076
80703SOL    HW144006  14.213   7.102  14.115
80703SOL    HW244007  14.363   7.083  14.122
80704SOL     OW44008   0.796   5.071   2.764
80704SOL    HW144009   0.854   5.144   2.788
80704SOL    HW244010   0.803   5.009   2.837
80705SOL     OW44011   5.543  12.293   4.474
80705SOL    HW144012   5.464  12.317   4.426
80705SOL    HW244013   5.525  12.318   4.565
80706SOL     OW44014   5.038   9.425  11.679
80706SOL    HW144015   5.067   9.396  11.766
80706SOL    HW244016   5.080   9.364  11.619
80707SOL     OW44017   7.685   5.013   7.453
80707SOL    HW144018   7.591   5.003   7.442
80707SOL    HW244019   7.713   5.064   7.377
80708SOL     OW44020   8.055  14.348  13.422
80708SOL    HW144021   8.008  14.430  13.439
80708SOL    HW244022   7.987  14.281  13.419
80709SOL     OW44023  12.937  13.517   6.613
80709SOL    HW144024  12.855  13.506   6.565
80709SOL    HW244025  12.963  13.427   6.636
80710SOL     OW44026  14.756  14.669  11.442
80710SOL    HW144027  14.807  14.592  11.416
80710SOL    HW244028  14.821  14.734  11.467
80711SOL     OW44029  11.901  13.631  11.617
80711SOL    HW144030  11.886  13.718  11.580
80711SOL    HW244031  11.853  13.572  11.559
80712SOL     OW44032  13.921   2.222   5.373
80712SOL    HW144033  13.957   2.300   5.417
80712SOL    HW244034  13.996   2.182   5.330
80713SOL     OW44035   8.758   9.124   6.981
80713SOL    HW144036   8.717   9.206   7.007
80713SOL    HW244037   8.801   9.091   7.060
80714SOL     OW44038   1.567   9.590   6.216
80714SOL    HW144039   1.607   9.538   6.285
80714SOL    HW244040   1.615   9.567   6.137
80715SOL     OW44041   9.558   3.913   5.697
80715SOL    HW144042   9.621   3.944   5.763
80715SOL    HW244043   9.611   3.890   5.621
80716SOL     OW44044   6.029   9.309  11.759
80716SOL    HW144045   6.116   9.314  11.797
80716SOL    HW244046   6.010   9.216  11.754
80717SOL     OW44047  13.542  10.551  13.726
80717SOL    HW144048  13.558  10.578  13.636
80717SOL    HW244049  13.461  10.499  13.721
80718SOL     OW44050   3.786   8.634   7.307
80718SOL    HW144051   3.843   8.614   7.233
80718SOL    HW244052   3.726   8.560   7.311
80719SOL     OW44053   7.682   1.952   0.398
80719SOL    HW144054   7.745   1.892   0.438
80719SOL    HW244055   7.606   1.898   0.378
80720SOL     OW44056   6.081  12.586   0.154
80720SOL    HW144057   5.988  12.602   0.138
80720SOL    HW244058   6.100  12.505   0.108
80721SOL     OW44059   0.666  13.675  13.647
80721SOL    HW144060   0.667  13.651  13.739
80721SOL    HW244061   0.601  13.617  13.607
80722SOL     OW44062   8.863   4.581  10.262
80722SOL    HW144063   8.825   4.595  10.349
80722SOL    HW244064   8.797   4.531  10.214
80723SOL     OW44065  10.608   9.187   5.920
80723SOL    HW144066  10.545   9.259   5.912
80723SOL    HW244067  10.688   9.230   5.951
80724SOL     OW44068   5.850   2.703  11.798
80724SOL    HW144069   5.766   2.659  11.810
80724SOL    HW244070   5.843   2.783  11.851
80725SOL     OW44071  13.689  14.502   2.158
80725SOL    HW144072  13.610  14.483   2.210
80725SOL    HW244073  13.660  14.494   2.067
80726SOL     OW44074   6.152   1.294  12.432
80726SOL    HW144075   6.213   1.220  12.439
80726SOL    HW244076   6.066   1.253  12.418
80727SOL     OW44077   5.477  14.405   8.347
80727SOL    HW144078   5.471  14.498   8.326
80727SOL    HW244079   5.428  14.361   8.277
80728SOL     OW44080   6.431   7.516   0.902
80728SOL    HW144081   6.498   7.453   0.930
80728SOL    HW244082   6.350   7.464   0.898
80729SOL     OW44083   6.521   9.353   1.887
80729SOL    HW144084   6.614   9.343   1.870
80729SOL    HW244085   6.478   9.316   1.810
80730SOL     OW44086   6.368   5.098   6.523
80730SOL    HW144087   6.279   5.091   6.490
80730SOL    HW244088   6.396   5.008   6.539
80731SOL     OW44089   2.841   5.142   5.610
80731SOL    HW144090   2.842   5.060   5.560
80731SOL    HW244091   2.752   5.149   5.644
80732SOL     OW44092   2.729   0.898   2.746
80732SOL    HW144093   2.705   0.817   2.701
80732SOL    HW244094   2.773   0.950   2.678
80733SOL     OW44095   2.957  11.273  11.312
80733SOL    HW144096   2.872  11.303  11.347
80733SOL    HW244097   2.938  11.187  11.274
80734SOL     OW44098  14.844  10.147  11.860
80734SOL    HW144099  14.847  10.192  11.776
80734SOL    HW244100  14.780  10.077  11.847
80735SOL     OW44101   4.847  12.252   1.948
80735SOL    HW144102   4.840  12.285   1.858
80735SOL    HW244103   4.939  12.229   1.959
80736SOL     OW44104   6.537   4.499   3.613
80736SOL    HW144105   6.530   4.455   3.698
80736SOL    HW244106   6.519   4.591   3.633
80737SOL     OW44107  10.247   0.416   8.790
80737SOL    HW144108  10.243   0.356   8.716
80737SOL    HW244109  10.230   0.362   8.867
80738SOL     OW44110   9.841  14.636  12.968
80738SOL    HW144111   9.866  14.554  13.010
80738SOL    HW244112   9.861  14.623  12.876
80739SOL     OW44113   5.980   5.468   3.004
80739SOL    HW144114   6.045   5.520   2.957
80739SOL    HW244115   5.955   5.523   3.079
80740SOL     OW44116   4.971   8.262  11.327
80740SOL    HW144117   4.904   8.331  11.328
80740SOL    HW244118   5.009   8.266  11.240
80741SOL     OW44119   6.091  12.561  13.791
80741SOL    HW144120   6.098  12.572  13.696
80741SOL    HW244121   5.997  12.553  13.807
80742SOL     OW44122  10.340   9.333   0.575
80742SOL    HW144123  10.339   9.246   0.615
80742SOL    HW244124  10.355   9.317   0.482
80743SOL     OW44125  10.062   8.612  12.000
80743SOL    HW144126  10.041   8.523  12.029
80743SOL    HW244127  10.148   8.630  12.037
80744SOL     OW44128   3.268  12.940   6.722
80744SOL    HW144129   3.270  12.923   6.816
80744SOL    HW244130   3.276  13.035   6.715
80745SOL     OW44131   8.074   2.733  11.405
80745SOL    HW144132   8.074   2.669  11.334
80745SOL    HW244133   8.106   2.683  11.481
80746SOL     OW44134   2.382   5.907   8.736
80746SOL    HW144135   2.401   5.963   8.811
80746SOL    HW244136   2.467   5.888   8.697
80747SOL     OW44137   6.825  11.532   8.428
80747SOL    HW144138   6.746  11.489   8.394
80747SOL    HW244139   6.859  11.581   8.354
80748SOL     OW44140  14.439   2.076   4.316
80748SOL    HW144141  14.471   1.986   4.302
80748SOL    HW244142  14.353   2.077   4.274
80749SOL     OW44143   7.894   3.441   4.328
80749SOL    HW144144   7.859   3.352   4.336
80749SOL    HW244145   7.951   3.438   4.251
80750SOL     OW44146   6.727   1.230   3.832
80750SOL    HW144147   6.814   1.268   3.840
80750SOL    HW244148   6.671   1.285   3.887
80751SOL     OW44149   6.134   7.062   6.588
80751SOL    HW144150   6.129   6.987   6.529
80751SOL    HW244151   6.175   7.027   6.667
80752SOL     OW44152   3.193   0.722   3.836
80752SOL    HW144153   3.167   0.814   3.845
80752SOL    HW244154   3.231   0.699   3.920
80753SOL     OW44155   9.105   6.119   6.076
80753SOL    HW144156   9.041   6.125   6.148
80753SOL    HW244157   9.072   6.180   6.010
80754SOL     OW44158   1.385   4.270  10.863
80754SOL    HW144159   1.319   4.225  10.810
80754SOL    HW244160   1.366   4.242  10.953
80755SOL     OW44161   4.652   3.359   5.316
80755SOL    HW144162   4.715   3.423   5.349
80755SOL    HW244163   4.619   3.315   5.394
80756SOL     OW44164   4.537   2.405   9.770
80756SOL    HW144165   4.446   2.393   9.800
80756SOL    HW244166   4.578   2.456   9.840
80757SOL     OW44167   8.998  12.862  11.317
80757SOL    HW144168   9.069  12.828  11.263
80757SOL    HW244169   9.027  12.950  11.342
80758SOL     OW44170   7.613   6.736  14.847
80758SOL    HW144171   7.535   6.784  14.875
80758SOL    HW244172   7.613   6.742  14.752
80759SOL     OW44173   6.220   1.686   7.711
80759SOL    HW144174   6.211   1.781   7.704
80759SOL    HW244175   6.187   1.653   7.628
80760SOL     OW44176   4.194  11.861  13.287
80760SOL    HW144177   4.247  11.938  13.304
80760SOL    HW244178   4.244  11.811  13.223
80761SOL     OW44179  14.219   6.398   3.537
80761SOL    HW144180  14.310   6.379   3.516
80761SOL    HW244181  14.176   6.313   3.537
80762SOL     OW44182  14.226   9.680   3.179
80762SOL    HW144183  14.242   9.664   3.086
80762SOL    HW244184  14.260   9.768   3.195
80763SOL     OW44185  13.001   5.597   0.880
80763SOL    HW144186  13.097   5.594   0.870
80763SOL    HW244187  12.975   5.505   0.884
80764SOL     OW44188   0.527   1.853   9.182
80764SOL    HW144189   0.501   1.909   9.109
80764SOL    HW244190   0.545   1.914   9.254
80765SOL     OW44191   0.704   4.456  13.982
80765SOL    HW144192   0.699   4.418  13.895
80765SOL    HW244193   0.620   4.500  13.994
80766SOL     OW44194   6.060  11.332   7.362
80766SOL    HW144195   6.140  11.286   7.387
80766SOL    HW244196   5.993  11.263   7.358
80767SOL     OW44197   1.521  12.066   8.213
80767SOL    HW144198   1.500  11.973   8.204
80767SOL    HW244199   1.436  12.109   8.221
80768SOL     OW44200   6.730   4.286  14.094
80768SOL    HW144201   6.719   4.289  13.999
80768SOL    HW244202   6.713   4.375  14.124
80769SOL     OW44203   8.630  14.682   4.195
80769SOL    HW144204   8.547  14.685   4.243
80769SOL    HW244205   8.647  14.773   4.172
80770SOL     OW44206   1.618   5.927   5.993
80770SOL    HW144207   1.646   5.998   6.051
80770SOL    HW244208   1.665   5.944   5.911
80771SOL     OW44209   1.144   1.627   5.128
80771SOL    HW144210   1.071   1.656   5.184
80771SOL    HW244211   1.186   1.558   5.178
80772SOL     OW44212   6.036  11.016   0.085
80772SOL    HW144213   5.986  11.044   0.008
80772SOL    HW244214   6.029  10.920   0.084
80773SOL     OW44215  10.624   3.212   1.095
80773SOL    HW144216  10.691   3.270   1.132
80773SOL    HW244217  10.553   3.270   1.069
80774SOL     OW44218   1.444   4.958   6.770
80774SOL    HW144219   1.537   4.954   6.748
80774SOL    HW244220   1.404   5.005   6.697
80775SOL     OW44221  10.910   9.936   3.585
80775SOL    HW144222  10.944   9.857   3.543
80775SOL    HW244223  10.911   9.916   3.679
80776SOL     OW44224   7.076  13.201   6.430
80776SOL    HW144225   7.039  13.121   6.393
80776SOL    HW244226   7.037  13.271   6.378
80777SOL     OW44227  13.508  13.591  12.436
80777SOL    HW144228  13.482  13.680  12.459
80777SOL    HW244229  13.524  13.547  12.520
80778SOL     OW44230   6.274  14.009   0.631
80778SOL    HW144231   6.260  14.086   0.686
80778SOL    HW244232   6.368  14.008   0.613
80779SOL     OW44233   4.595   8.641   1.208
80779SOL    HW144234   4.686   8.652   1.182
80779SOL    HW244235   4.577   8.548   1.196
80780SOL     OW44236   5.791   8.278   9.339
80780SOL    HW144237   5.815   8.206   9.280
80780SOL    HW244238   5.771   8.351   9.281
80781SOL     OW44239   4.546   4.297   3.850
80781SOL    HW144240   4.593   4.362   3.799
80781SOL    HW244241   4.464   4.339   3.875
80782SOL     OW44242   3.974   7.756   4.445
80782SOL    HW144243   3.966   7.686   4.380
80782SOL    HW244244   4.062   7.791   4.430
80783SOL     OW44245  12.252  10.936  13.679
80783SOL    HW144246  12.246  11.009  13.617
80783SOL    HW244247  12.180  10.951  13.740
80784SOL     OW44248   0.700   8.084   0.846
80784SOL    HW144249   0.663   8.172   0.852
80784SOL    HW244250   0.787   8.098   0.808
80785SOL     OW44251   8.864  13.967   8.347
80785SOL    HW144252   8.911  13.954   8.429
80785SOL    HW244253   8.853  14.062   8.340
80786SOL     OW44254   6.296  12.860   6.156
80786SOL    HW144255   6.310  12.831   6.247
80786SOL    HW244256   6.205  12.889   6.155
80787SOL     OW44257  14.547  11.074   6.343
80787SOL    HW144258  14.557  11.159   6.385
80787SOL    HW244259  14.635  11.051   6.313
80788SOL     OW44260   0.897  12.682   1.224
80788SOL    HW144261   0.847  12.603   1.246
80788SOL    HW244262   0.860  12.712   1.141
80789SOL     OW44263   5.663   7.309  11.915
80789SOL    HW144264   5.737   7.350  11.870
80789SOL    HW244265   5.589   7.319  11.854
80790SOL     OW44266  11.305   0.246  10.504
80790SOL    HW144267  11.328   0.289  10.586
80790SOL    HW244268  11.353   0.294  10.436
80791SOL     OW44269   7.069  13.315   9.080
80791SOL    HW144270   7.122  13.393   9.063
80791SOL    HW244271   7.133  13.243   9.081
80792SOL     OW44272   2.935   1.198   2.063
80792SOL    HW144273   2.986   1.257   2.008
80792SOL    HW244274   2.951   1.111   2.027
80793SOL     OW44275   6.359  14.383  14.354
80793SOL    HW144276   6.356  14.288  14.367
80793SOL    HW244277   6.268  14.411  14.353
80794SOL     OW44278  11.911   0.907   3.616
80794SOL    HW144279  11.817   0.916   3.632
80794SOL    HW244280  11.950   0.907   3.703
80795SOL     OW44281  11.386  13.553   8.427
80795SOL    HW144282  11.394  13.524   8.518
80795SOL    HW244283  11.472  13.534   8.388
80796SOL     OW44284  10.469   9.972   7.308
80796SOL    HW144285  10.454   9.881   7.283
80796SOL    HW244286  10.564   9.983   7.307
80797SOL     OW44287   1.713   0.483   8.713
80797SOL    HW144288   1.654   0.470   8.787
80797SOL    HW244289   1.702   0.574   8.688
80798SOL     OW44290   2.574   3.520   0.875
80798SOL    HW144291   2.496   3.526   0.931
80798SOL    HW244292   2.600   3.611   0.862
80799SOL     OW44293   0.281   3.527   9.881
80799SOL    HW144294   0.300   3.488   9.966
80799SOL    HW244295   0.359   3.510   9.828
80800SOL     OW44296   2.672  10.025   3.502
80800SOL    HW144297   2.671  10.047   3.409
80800SOL    HW244298   2.643   9.933   3.505
80801SOL     OW44299   6.361   2.147   3.770
80801SOL    HW144300   6.349   2.197   3.850
80801SOL    HW244301   6.448   2.172   3.739
80802SOL     OW44302  12.088   3.637   3.723
80802SOL    HW144303  12.014   3.625   3.663
80802SOL    HW244304  12.160   3.665   3.666
80803SOL     OW44305  14.501  13.033   8.179
80803SOL    HW144306  14.528  12.945   8.205
80803SOL    HW244307  14.412  13.042   8.213
80804SOL     OW44308  11.327   8.990  11.546
80804SOL    HW144309  11.331   8.909  11.597
80804SOL    HW244310  11.316   9.059  11.611
80805SOL     OW44311   8.497   5.526   2.296
80805SOL    HW144312   8.561   5.595   2.277
80805SOL    HW244313   8.416   5.557   2.256
80806SOL     OW44314   9.760   6.395   9.644
80806SOL    HW144315   9.698   6.426   9.710
80806SOL    HW244316   9.707   6.340   9.585
80807SOL     OW44317   7.578  10.279  13.570
80807SOL    HW144318   7.550  10.188  13.577
80807SOL    HW244319   7.571  10.300  13.477
80808SOL     OW44320   0.093   9.712  10.371
80808SOL    HW144321   0.106   9.644  10.437
80808SOL    HW244322   0.027   9.770  10.408
80809SOL     OW44323   2.278   5.429   9.572
80809SOL    HW144324   2.223   5.504   9.550
80809SOL    HW244325   2.338   5.420   9.497
80810SOL     OW44326  12.730   0.612   9.084
80810SOL    HW144327  12.783   0.682   9.122
80810SOL    HW244328  12.792   0.541   9.069
80811SOL     OW44329   7.745   4.298  12.860
80811SOL    HW144330   7.652   4.319  12.846
80811SOL    HW244331   7.785   4.312  12.774
80812SOL     OW44332   9.717   1.723   7.166
80812SOL    HW144333   9.743   1.635   7.139
80812SOL    HW244334   9.727   1.776   7.087
80813SOL     OW44335   6.106  14.401   9.603
80813SOL    HW144336   6.044  14.468   9.632
80813SOL    HW244337   6.169  14.449   9.549
80814SOL     OW44338   0.252   6.553   0.059
80814SOL    HW144339   0.176   6.520   0.106
80814SOL    HW244340   0.227   6.640   0.029
80815SOL     OW44341  14.154   2.865  14.570
80815SOL    HW144342  14.174   2.935  14.507
80815SOL    HW244343  14.171   2.784  14.522
80816SOL     OW44344  11.224  11.019   9.542
80816SOL    HW144345  11.296  11.040   9.601
80816SOL    HW244346  11.246  11.063   9.459
80817SOL     OW44347  14.606   1.408   3.315
80817SOL    HW144348  14.568   1.361   3.241
80817SOL    HW244349  14.593   1.350   3.390
80818SOL     OW44350  12.185   7.156  11.735
80818SOL    HW144351  12.224   7.071  11.713
80818SOL    HW244352  12.261   7.213  11.748
80819SOL     OW44353   9.091   3.291   9.267
80819SOL    HW144354   9.044   3.357   9.318
80819SOL    HW244355   9.176   3.331   9.248
80820SOL     OW44356   2.455   5.273   2.444
80820SOL    HW144357   2.481   5.365   2.441
80820SOL    HW244358   2.512   5.233   2.509
80821SOL     OW44359  13.163   5.359   8.608
80821SOL    HW144360  13.155   5.287   8.671
80821SOL    HW244361  13.087   5.414   8.624
80822SOL     OW44362   7.906   6.786   7.581
80822SOL    HW144363   7.962   6.793   7.503
80822SOL    HW244364   7.930   6.863   7.634
80823SOL     OW44365   7.736   3.590   1.827
80823SOL    HW144366   7.776   3.515   1.872
80823SOL    HW244367   7.753   3.665   1.885
80824SOL     OW44368   0.849  13.066  13.867
80824SOL    HW144369   0.930  13.108  13.895
80824SOL    HW244370   0.848  13.077  13.772
80825SOL     OW44371   5.970  12.199  14.808
80825SOL    HW144372   5.946  12.137  14.877
80825SOL    HW244373   5.914  12.176  14.734
80826SOL     OW44374  10.226   9.595   4.344
80826SOL    HW144375  10.272   9.599   4.261
80826SOL    HW244376  10.237   9.681   4.383
80827SOL     OW44377   5.764   4.886   9.088
80827SOL    HW144378   5.794   4.944   9.158
80827SOL    HW244379   5.838   4.883   9.027
80828SOL     OW44380   3.143   6.437  10.835
80828SOL    HW144381   3.174   6.358  10.790
80828SOL    HW244382   3.165   6.508  10.775
80829SOL     OW44383  14.245   2.571  10.234
80829SOL    HW144384  14.233   2.507  10.305
80829SOL    HW244385  14.215   2.526  10.156
80830SOL     OW44386  12.888   4.118   7.332
80830SOL    HW144387  12.810   4.064   7.341
80830SOL    HW244388  12.858   4.207   7.351
80831SOL     OW44389   2.060   2.450   6.155
80831SOL    HW144390   2.149   2.423   6.132
80831SOL    HW244391   2.004   2.386   6.112
80832SOL     OW44392  14.784  14.422   9.333
80832SOL    HW144393  14.716  14.355   9.326
80832SOL    HW244394  14.860  14.383   9.291
80833SOL     OW44395  13.139   5.463  14.482
80833SOL    HW144396  13.145   5.556  14.504
80833SOL    HW244397  13.049   5.439  14.502
80834SOL     OW44398  11.888  14.712  11.320
80834SOL    HW144399  11.851  14.756  11.243
80834SOL    HW244400  11.968  14.670  11.287
80835SOL     OW44401   6.813   1.020   0.363
80835SOL    HW144402   6.760   0.980   0.293
80835SOL    HW244403   6.750   1.070   0.415
80836SOL     OW44404   7.703   4.564   5.130
80836SOL    HW144405   7.641   4.492   5.142
80836SOL    HW244406   7.664   4.618   5.061
80837SOL     OW44407   7.895   0.950   3.098
80837SOL    HW144408   7.816   0.897   3.094
80837SOL    HW244409   7.911   0.976   3.007
80838SOL     OW44410  13.339   5.726   7.287
80838SOL    HW144411  13.417   5.781   7.290
80838SOL    HW244412  13.358   5.660   7.220
80839SOL     OW44413   2.476  13.484  11.940
80839SOL    HW144414   2.507  13.567  11.903
80839SOL    HW244415   2.426  13.509  12.017
80840SOL     OW44416   4.487   6.345  10.095
80840SOL    HW144417   4.411   6.288  10.088
80840SOL    HW244418   4.462   6.413  10.157
80841SOL     OW44419   3.224   4.927  13.685
80841SOL    HW144420   3.304   4.942  13.635
80841SOL    HW244421   3.228   4.835  13.710
80842SOL     OW44422  11.063   8.933   9.631
80842SOL    HW144423  10.995   9.001   9.624
80842SOL    HW244424  11.116   8.960   9.706
80843SOL     OW44425   9.768   9.167  12.327
80843SOL    HW144426   9.766   9.226  12.251
80843SOL    HW244427   9.734   9.084  12.293
80844SOL     OW44428   7.392   6.179   5.729
80844SOL    HW144429   7.414   6.098   5.683
80844SOL    HW244430   7.391   6.155   5.821
80845SOL     OW44431  13.061   8.894  11.162
80845SOL    HW144432  13.141   8.867  11.206
80845SOL    HW244433  13.002   8.920  11.234
80846SOL     OW44434   4.160   4.381   6.757
80846SOL    HW144435   4.075   4.338   6.770
80846SOL    HW244436   4.220   4.331   6.812
80847SOL     OW44437   6.524   6.613  12.370
80847SOL    HW144438   6.462   6.591  12.440
80847SOL    HW244439   6.518   6.540  12.309
80848SOL     OW44440   7.431   1.828  13.080
80848SOL    HW144441   7.432   1.888  13.005
80848SOL    HW244442   7.363   1.764  13.058
80849SOL     OW44443  11.206  10.299  10.733
80849SOL    HW144444  11.292  10.336  10.713
80849SOL    HW244445  11.168  10.280  10.647
80850SOL     OW44446   0.170   6.963  13.170
80850SOL    HW144447   0.142   7.009  13.091
80850SOL    HW244448   0.167   7.030  13.238
80851SOL     OW44449  14.691   5.321  10.691
80851SOL    HW144450  14.642   5.263  10.633
80851SOL    HW244451  14.742   5.262  10.746
80852SOL     OW44452  10.666   2.817   0.443
80852SOL    HW144453  10.695   2.908   0.441
80852SOL    HW244454  10.629   2.805   0.531
80853SOL     OW44455   4.653  11.246  10.812
80853SOL    HW144456   4.564  11.281  10.811
80853SOL    HW244457   4.708  11.320  10.787
80854SOL     OW44458  10.704   7.999  13.105
80854SOL    HW144459  10.711   8.061  13.178
80854SOL    HW244460  10.711   7.913  13.146
80855SOL     OW44461   6.739  11.392   7.271
80855SOL    HW144462   6.644  11.396   7.286
80855SOL    HW244463   6.749  11.336   7.194
80856SOL     OW44464   6.618  11.663   6.008
80856SOL    HW144465   6.612  11.573   5.978
80856SOL    HW244466   6.624  11.715   5.928
80857SOL     OW44467   2.342   5.283   4.805
80857SOL    HW144468   2.367   5.350   4.868
80857SOL    HW244469   2.262   5.317   4.765
80858SOL     OW44470  11.981   7.859  13.441
80858SOL    HW144471  11.893   7.822  13.447
80858SOL    HW244472  11.974   7.927  13.373
80859SOL     OW44473  11.560   0.248   2.296
80859SOL    HW144474  11.466   0.254   2.278
80859SOL    HW244475  11.580   0.155   2.290
80860SOL     OW44476   8.724  12.178   6.776
80860SOL    HW144477   8.769  12.160   6.859
80860SOL    HW244478   8.785  12.149   6.709
80861SOL     OW44479   3.156   6.851  13.996
80861SOL    HW144480   3.179   6.821  13.908
80861SOL    HW244481   3.236   6.891  14.030
80862SOL     OW44482   4.895  12.188   2.648
80862SOL    HW144483   4.952  12.214   2.576
80862SOL    HW244484   4.905  12.256   2.714
80863SOL     OW44485  13.356  14.547   9.017
80863SOL    HW144486  13.315  14.564   8.932
80863SOL    HW244487  13.291  14.576   9.081
80864SOL     OW44488   0.487  13.954   7.896
80864SOL    HW144489   0.462  14.013   7.825
80864SOL    HW244490   0.583  13.954   7.894
80865SOL     OW44491   2.752  10.569   5.181
80865SOL    HW144492   2.835  10.572   5.228
80865SOL    HW244493   2.749  10.481   5.144
80866SOL     OW44494   8.558   4.577  13.076
80866SOL    HW144495   8.507   4.527  13.139
80866SOL    HW244496   8.538   4.669  13.096
80867SOL     OW44497  14.180   6.702  12.111
80867SOL    HW144498  14.091   6.727  12.084
80867SOL    HW244499  14.169   6.671  12.201
80868SOL     OW44500   0.651  11.375  11.067
80868SOL    HW144501   0.743  11.385  11.089
80868SOL    HW244502   0.629  11.286  11.093
80869SOL     OW44503   0.907  13.834  12.806
80869SOL    HW144504   0.850  13.822  12.881
80869SOL    HW244505   0.881  13.918  12.769
80870SOL     OW44506   5.644   5.499   1.597
80870SOL    HW144507   5.647   5.594   1.603
80870SOL    HW244508   5.636   5.481   1.503
80871SOL     OW44509   7.213   1.210   4.505
80871SOL    HW144510   7.199   1.274   4.574
80871SOL    HW244511   7.208   1.125   4.549
80872SOL     OW44512   5.141  12.329   5.982
80872SOL    HW144513   5.130  12.297   6.072
80872SOL    HW244514   5.222  12.379   5.985
80873SOL     OW44515  10.676  13.599   0.296
80873SOL    HW144516  10.762  13.608   0.254
80873SOL    HW244517  10.694  13.609   0.389
80874SOL     OW44518   1.813   7.296  10.327
80874SOL    HW144519   1.881   7.348  10.371
80874SOL    HW244520   1.840   7.205  10.341
80875SOL     OW44521   3.477  12.251  13.375
80875SOL    HW144522   3.433  12.249  13.460
80875SOL    HW244523   3.412  12.288  13.315
80876SOL     OW44524  12.314   3.226   3.555
80876SOL    HW144525  12.327   3.320   3.569
80876SOL    HW244526  12.258   3.221   3.477
80877SOL     OW44527   6.265  13.297   6.940
80877SOL    HW144528   6.173  13.303   6.966
80877SOL    HW244529   6.273  13.358   6.867
80878SOL     OW44530   1.031   3.963   6.233
80878SOL    HW144531   1.086   3.932   6.305
80878SOL    HW244532   1.002   3.883   6.189
80879SOL     OW44533  14.535   6.408   6.629
80879SOL    HW144534  14.618   6.436   6.590
80879SOL    HW244535  14.509   6.482   6.684
80880SOL     OW44536   4.581   6.669   3.726
80880SOL    HW144537   4.632   6.661   3.646
80880SOL    HW244538   4.629   6.618   3.791
80881SOL     OW44539  10.532   7.692   0.092
80881SOL    HW144540  10.627   7.680   0.092
80881SOL    HW244541  10.509   7.704   0.000
80882SOL     OW44542   0.483   8.344   2.232
80882SOL    HW144543   0.566   8.393   2.228
80882SOL    HW244544   0.488   8.296   2.314
80883SOL     OW44545   2.438   5.681   0.672
80883SOL    HW144546   2.525   5.660   0.637
80883SOL    HW244547   2.388   5.708   0.596
80884SOL     OW44548   1.289  10.237   5.623
80884SOL    HW144549   1.290  10.293   5.700
80884SOL    HW244550   1.201  10.198   5.622
80885SOL     OW44551   6.866   7.496   4.917
80885SOL    HW144552   6.948   7.523   4.958
80885SOL    HW244553   6.886   7.411   4.877
80886SOL     OW44554   8.694  12.122   1.701
80886SOL    HW144555   8.620  12.087   1.652
80886SOL    HW244556   8.659  12.139   1.789
80887SOL     OW44557  12.182   5.205   2.163
80887SOL    HW144558  12.114   5.201   2.096
80887SOL    HW244559  12.149   5.150   2.234
80888SOL     OW44560  11.909   1.782   6.791
80888SOL    HW144561  11.872   1.755   6.707
80888SOL    HW244562  11.834   1.792   6.848
80889SOL     OW44563  11.533   9.939   7.647
80889SOL    HW144564  11.553  10.017   7.697
80889SOL    HW244565  11.437   9.937   7.643
80890SOL     OW44566   8.412  11.453   2.594
80890SOL    HW144567   8.414  11.388   2.524
80890SOL    HW244568   8.384  11.534   2.552
80891SOL     OW44569   8.260  11.891   5.707
80891SOL    HW144570   8.211  11.867   5.628
80891SOL    HW244571   8.204  11.956   5.750
80892SOL     OW44572  11.052   4.847  14.315
80892SOL    HW144573  11.007   4.803  14.243
80892SOL    HW244574  11.139   4.806  14.318
80893SOL     OW44575   7.977   9.883   7.308
80893SOL    HW144576   8.067   9.855   7.324
80893SOL    HW244577   7.934   9.875   7.393
80894SOL     OW44578  11.725   0.954   2.393
80894SOL    HW144579  11.814   0.988   2.385
80894SOL    HW244580  11.696   0.983   2.480
80895SOL     OW44581  11.731  12.111   9.757
80895SOL    HW144582  11.738  12.029   9.708
80895SOL    HW244583  11.637  12.119   9.776
80896SOL     OW44584   9.989  10.503  11.254
80896SOL    HW144585  10.012  10.501  11.347
80896SOL    HW244586   9.895  10.490  11.252
80897SOL     OW44587  13.738   8.598  14.662
80897SOL    HW144588  13.679   8.671  14.644
80897SOL    HW244589  13.734   8.543  14.584
80898SOL     OW44590   0.801   2.343   2.449
80898SOL    HW144591   0.812   2.438   2.453
80898SOL    HW244592   0.743   2.322   2.521
80899SOL     OW44593   1.301  11.950   7.953
80899SOL    HW144594   1.333  11.950   7.862
80899SOL    HW244595   1.310  12.041   7.981
80900SOL     OW44596   5.778   9.489  11.334
80900SOL    HW144597   5.831   9.417  11.366
80900SOL    HW244598   5.786   9.485  11.239
80901SOL     OW44599   9.562   7.923   0.386
80901SOL    HW144600   9.572   8.011   0.350
80901SOL    HW244601   9.652   7.890   0.393
80902SOL     OW44602   0.889  12.714  13.632
80902SOL    HW144603   0.881  12.618  13.639
80902SOL    HW244604   0.855  12.747  13.715
80903SOL     OW44605   0.553  14.381  10.262
80903SOL    HW144606   0.631  14.339  10.297
80903SOL    HW244607   0.490  14.310  10.250
80904SOL     OW44608   8.513  13.428   8.574
80904SOL    HW144609   8.509  13.339   8.610
80904SOL    HW244610   8.422  13.449   8.552
80905SOL     OW44611   5.843   8.706  11.065
80905SOL    HW144612   5.870   8.624  11.023
80905SOL    HW244613   5.805   8.758  10.994
80906SOL     OW44614   9.858  13.896   4.035
80906SOL    HW144615   9.863  13.973   3.978
80906SOL    HW244616   9.847  13.933   4.123
80907SOL     OW44617   5.725  10.001  10.839
80907SOL    HW144618   5.709  10.055  10.761
80907SOL    HW244619   5.819   9.985  10.838
80908SOL     OW44620   6.041  14.011   9.308
80908SOL    HW144621   6.013  14.075   9.373
80908SOL    HW244622   6.042  13.928   9.355
80909SOL     OW44623   1.076   5.521  14.822
80909SOL    HW144624   0.986   5.498  14.799
80909SOL    HW244625   1.070   5.611  14.852
80910SOL     OW44626  11.633   7.157   7.406
80910SOL    HW144627  11.616   7.105   7.327
80910SOL    HW244628  11.650   7.092   7.474
80911SOL     OW44629   9.074   5.605   5.029
80911SOL    HW144630   8.984   5.607   5.061
80911SOL    HW244631   9.128   5.600   5.108
80912SOL     OW44632  13.214   6.997   6.527
80912SOL    HW144633  13.162   6.930   6.571
80912SOL    HW244634  13.196   7.077   6.577
80913SOL     OW44635  10.749  14.351   6.635
80913SOL    HW144636  10.771  14.445   6.634
80913SOL    HW244637  10.726  14.333   6.726
80914SOL     OW44638  10.085  13.528   7.082
80914SOL    HW144639  10.083  13.580   7.002
80914SOL    HW244640  10.089  13.591   7.153
80915SOL     OW44641   5.055  10.064   9.892
80915SOL    HW144642   5.037  10.126   9.962
80915SOL    HW244643   5.003   9.987   9.914
80916SOL     OW44644   9.356   3.191   2.882
80916SOL    HW144645   9.364   3.099   2.859
80916SOL    HW244646   9.348   3.192   2.978
80917SOL     OW44647  10.225  12.670  14.356
80917SOL    HW144648  10.228  12.646  14.263
80917SOL    HW244649  10.304  12.631  14.393
80918SOL     OW44650   4.293   2.396   8.840
80918SOL    HW144651   4.263   2.404   8.750
80918SOL    HW244652   4.214   2.377   8.891
80919SOL     OW44653  13.876  14.680   2.287
80919SOL    HW144654  13.793  14.633   2.280
80919SOL    HW244655  13.852  14.773   2.284
80920SOL     OW44656   3.536   8.488  11.379
80920SOL    HW144657   3.620   8.500  11.335
80920SOL    HW244658   3.553   8.417  11.442
80921SOL     OW44659   3.069   1.573  11.883
80921SOL    HW144660   3.022   1.544  11.805
80921SOL    HW244661   3.002   1.610  11.940
80922SOL     OW44662  11.862  10.609  11.812
80922SOL    HW144663  11.863  10.691  11.862
80922SOL    HW244664  11.887  10.635  11.724
80923SOL     OW44665   8.191   5.462   7.923
80923SOL    HW144666   8.247   5.414   7.862
80923SOL    HW244667   8.112   5.482   7.872
80924SOL     OW44668   3.528   0.899  11.080
80924SOL    HW144669   3.550   0.808  11.062
80924SOL    HW244670   3.497   0.900  11.171
80925SOL     OW44671   2.560   9.235   0.901
80925SOL    HW144672   2.526   9.323   0.886
80925SOL    HW244673   2.487   9.177   0.879
80926SOL     OW44674   4.423  12.786   1.911
80926SOL    HW144675   4.492  12.842   1.945
80926SOL    HW244676   4.345  12.812   1.960
80927SOL     OW44677   9.775  12.648  11.027
80927SOL    HW144678   9.808  12.697  11.101
80927SOL    HW244679   9.722  12.578  11.065
80928SOL     OW44680   3.385  10.350   4.930
80928SOL    HW144681   3.332  10.273   4.948
80928SOL    HW244682   3.332  10.400   4.867
80929SOL     OW44683  14.619  14.027   3.338
80929SOL    HW144684  14.692  14.000   3.394
80929SOL    HW244685  14.660  14.047   3.254
80930SOL     OW44686  10.820   6.550   7.215
80930SOL    HW144687  10.884   6.499   7.166
80930SOL    HW244688  10.745   6.558   7.156
80931SOL     OW44689  13.744   0.455   4.662
80931SOL    HW144690  13.838   0.465   4.646
80931SOL    HW244691  13.738   0.374   4.713
80932SOL     OW44692  14.766  10.145  13.815
80932SOL    HW144693  14.802  10.214  13.871
80932SOL    HW244694  14.723  10.085  13.875
80933SOL     OW44695   7.282   1.714   5.704
80933SOL    HW144696   7.347   1.777   5.736
80933SOL    HW244697   7.327   1.665   5.636
80934SOL     OW44698   8.222   3.242  11.457
80934SOL    HW144699   8.316   3.238  11.445
80934SOL    HW244700   8.204   3.335  11.472
80935SOL     OW44701  14.222   8.525  14.816
80935SOL    HW144702  14.146   8.481  14.853
80935SOL    HW244703  14.296   8.496  14.870
80936SOL     OW44704   2.414  11.040   1.594
80936SOL    HW144705   2.332  10.993   1.574
80936SOL    HW244706   2.387  11.131   1.604
80937SOL     OW44707   9.425   1.844  12.841
80937SOL    HW144708   9.502   1.869  12.892
80937SOL    HW244709   9.355   1.837  12.906
80938SOL     OW44710   3.843   4.516  13.175
80938SOL    HW144711   3.837   4.605  13.209
80938SOL    HW244712   3.819   4.524  13.082
80939SOL     OW44713  10.062  12.189  13.986
80939SOL    HW144714  10.016  12.167  13.905
80939SOL    HW244715  10.101  12.107  14.015
80940SOL     OW44716  12.311   7.102   3.106
80940SOL    HW144717  12.355   7.122   3.189
80940SOL    HW244718  12.222   7.134   3.119
80941SOL     OW44719   6.262   2.694   2.112
80941SOL    HW144720   6.253   2.732   2.200
80941SOL    HW244721   6.246   2.767   2.053
80942SOL     OW44722   9.723   9.372   8.510
80942SOL    HW144723   9.790   9.343   8.571
80942SOL    HW244724   9.768   9.380   8.426
80943SOL     OW44725  10.217   6.998   8.709
80943SOL    HW144726  10.247   7.067   8.649
80943SOL    HW244727  10.296   6.966   8.751
80944SOL     OW44728   2.339   9.009  12.913
80944SOL    HW144729   2.283   8.935  12.889
80944SOL    HW244730   2.279   9.084  12.916
80945SOL     OW44731   9.461  11.730  14.384
80945SOL    HW144732   9.553  11.749  14.405
80945SOL    HW244733   9.465  11.688  14.298
80946SOL     OW44734  14.655   6.643   1.428
80946SOL    HW144735  14.701   6.713   1.474
80946SOL    HW244736  14.655   6.670   1.336
80947SOL     OW44737   9.433   3.235   5.886
80947SOL    HW144738   9.510   3.291   5.882
80947SOL    HW244739   9.373   3.280   5.946
80948SOL     OW44740   0.977  13.868   5.314
80948SOL    HW144741   1.010  13.779   5.327
80948SOL    HW244742   0.939  13.867   5.227
80949SOL     OW44743   0.368   9.682   5.093
80949SOL    HW144744   0.315   9.762   5.088
80949SOL    HW244745   0.394   9.677   5.185
80950SOL     OW44746   9.175  14.721   0.110
80950SOL    HW144747   9.218  14.648   0.153
80950SOL    HW244748   9.220  14.799   0.142
80951SOL     OW44749   1.001   3.161  10.270
80951SOL    HW144750   0.956   3.241  10.243
80951SOL    HW244751   1.065   3.145  10.201
80952SOL     OW44752   7.631  12.569   9.128
80952SOL    HW144753   7.639  12.527   9.213
80952SOL    HW244754   7.604  12.659   9.148
80953SOL     OW44755   6.841  10.347  13.112
80953SOL    HW144756   6.793  10.405  13.053
80953SOL    HW244757   6.795  10.355  13.196
80954SOL     OW44758   4.722  13.651  11.155
80954SOL    HW144759   4.740  13.561  11.180
80954SOL    HW244760   4.805  13.682  11.118
80955SOL     OW44761   2.073  12.462   9.174
80955SOL    HW144762   2.150  12.513   9.148
80955SOL    HW244763   1.999  12.519   9.155
80956SOL     OW44764   2.783  10.338  12.746
80956SOL    HW144765   2.776  10.410  12.684
80956SOL    HW244766   2.859  10.288  12.717
80957SOL     OW44767  10.212   5.121  12.190
80957SOL    HW144768  10.153   5.112  12.265
80957SOL    HW244769  10.241   5.032  12.171
80958SOL     OW44770   7.209   1.058   0.749
80958SOL    HW144771   7.166   1.106   0.678
80958SOL    HW244772   7.302   1.073   0.734
80959SOL     OW44773   5.292  10.934  12.028
80959SOL    HW144774   5.305  10.840  12.036
80959SOL    HW244775   5.299  10.968  12.117
80960SOL     OW44776  14.713   9.208   4.814
80960SOL    HW144777  14.628   9.204   4.858
80960SOL    HW244778  14.695   9.253   4.731
80961SOL     OW44779   0.593  14.527   3.793
80961SOL    HW144780   0.569  14.595   3.731
80961SOL    HW244781   0.513  14.511   3.844
80962SOL     OW44782   3.893   4.463   5.823
80962SOL    HW144783   3.800   4.441   5.832
80962SOL    HW244784   3.907   4.533   5.887
80963SOL     OW44785  11.414  13.971  14.357
80963SOL    HW144786  11.447  13.893  14.312
80963SOL    HW244787  11.336  13.996  14.308
80964SOL     OW44788  10.159   4.472  12.681
80964SOL    HW144789  10.186   4.405  12.618
80964SOL    HW244790  10.079   4.510  12.645
80965SOL     OW44791  14.804  11.938   5.471
80965SOL    HW144792  14.875  11.932   5.534
80965SOL    HW244793  14.756  11.855   5.480
80966SOL     OW44794   0.805   9.403   4.413
80966SOL    HW144795   0.761   9.318   4.418
80966SOL    HW244796   0.748   9.456   4.357
80967SOL     OW44797  12.815   5.346  14.273
80967SOL    HW144798  12.720   5.350  14.281
80967SOL    HW244799  12.836   5.253  14.268
80968SOL     OW44800   9.582   3.316  13.090
80968SOL    HW144801   9.631   3.264  13.154
80968SOL    HW244802   9.502   3.266  13.077
80969SOL     OW44803   0.027   4.435   3.536
80969SOL    HW144804  14.851   4.444   3.458
80969SOL    HW244805   0.084   4.511   3.535
80970SOL     OW44806   7.686  13.441   3.882
80970SOL    HW144807   7.706  13.452   3.789
80970SOL    HW244808   7.727  13.358   3.906
80971SOL     OW44809  14.749  13.945   1.965
80971SOL    HW144810  14.731  13.854   1.987
80971SOL    HW244811  14.665  13.980   1.935
80972SOL     OW44812   4.220   0.778  13.825
80972SOL    HW144813   4.156   0.813  13.763
80972SOL    HW244814   4.232   0.848  13.889
80973SOL     OW44815  11.576   0.230  12.216
80973SOL    HW144816  11.583   0.181  12.297
80973SOL    HW244817  11.561   0.164  12.149
80974SOL     OW44818  11.347   4.610   4.016
80974SOL    HW144819  11.282   4.585   3.950
80974SOL    HW244820  11.359   4.531   4.069
80975SOL     OW44821   1.002  10.024  11.940
80975SOL    HW144822   1.061   9.949  11.932
80975SOL    HW244823   0.976  10.044  11.850
80976SOL     OW44824   9.711   0.258   7.673
80976SOL    HW144825   9.650   0.326   7.644
80976SOL    HW244826   9.797   0.299   7.667
80977SOL     OW44827   4.628   2.655   7.610
80977SOL    HW144828   4.581   2.719   7.557
80977SOL    HW244829   4.671   2.598   7.547
80978SOL     OW44830   7.946   8.461   3.104
80978SOL    HW144831   7.916   8.446   3.194
80978SOL    HW244832   7.931   8.554   3.089
80979SOL     OW44833   6.797   9.310   1.840
80979SOL    HW144834   6.828   9.295   1.929
80979SOL    HW244835   6.866   9.362   1.799
80980SOL     OW44836   5.441   9.220   8.119
80980SOL    HW144837   5.527   9.235   8.081
80980SOL    HW244838   5.397   9.160   8.058
80981SOL     OW44839   9.206  11.199  13.303
80981SOL    HW144840   9.225  11.133  13.237
80981SOL    HW244841   9.187  11.278  13.253
80982SOL     OW44842   6.730   9.145   5.439
80982SOL    HW144843   6.669   9.074   5.460
80982SOL    HW244844   6.689   9.191   5.366
80983SOL     OW44845  12.497   1.302   2.251
80983SOL    HW144846  12.566   1.366   2.231
80983SOL    HW244847  12.441   1.301   2.174
80984SOL     OW44848   4.365   0.356  10.817
80984SOL    HW144849   4.429   0.420  10.786
80984SOL    HW244850   4.322   0.324  10.738
80985SOL     OW44851   0.048   8.994  14.171
80985SOL    HW144852   0.053   8.899  14.159
80985SOL    HW244853  14.859   9.007  14.237
80986SOL     OW44854   1.669   2.527   7.560
80986SOL    HW144855   1.603   2.469   7.598
80986SOL    HW244856   1.703   2.479   7.485
80987SOL     OW44857   5.725   4.201   8.363
80987SOL    HW144858   5.745   4.291   8.391
80987SOL    HW244859   5.635   4.187   8.391
80988SOL     OW44860  10.126   6.007  12.686
80988SOL    HW144861  10.038   5.989  12.654
80988SOL    HW244862  10.136   6.102  12.677
80989SOL     OW44863   6.961   1.095  14.233
80989SOL    HW144864   6.973   1.155  14.159
80989SOL    HW244865   6.953   1.153  14.309
80990SOL     OW44866  10.540   1.200   6.558
80990SOL    HW144867  10.493   1.143   6.618
80990SOL    HW244868  10.583   1.265   6.614
80991SOL     OW44869  14.805   8.909   9.460
80991SOL    HW144870  14.719   8.896   9.500
80991SOL    HW244871  14.828   8.822   9.425
80992SOL     OW44872  13.872  11.447  11.487
80992SOL    HW144873  13.947  11.444  11.546
80992SOL    HW244874  13.804  11.494  11.536
80993SOL     OW44875  12.192   3.422   7.451
80993SOL    HW144876  12.280   3.429   7.489
80993SOL    HW244877  12.169   3.512   7.428
80994SOL     OW44878  12.450  13.679   6.075
80994SOL    HW144879  12.379  13.651   6.017
80994SOL    HW244880  12.521  13.617   6.057
80995SOL     OW44881   9.457   2.509  11.721
80995SOL    HW144882   9.525   2.443  11.730
80995SOL    HW244883   9.376   2.460  11.712
80996SOL     OW44884   5.262   8.639   7.558
80996SOL    HW144885   5.263   8.735   7.560
80996SOL    HW244886   5.227   8.618   7.471
80997SOL     OW44887   7.321  11.467   6.562
80997SOL    HW144888   7.342  11.467   6.469
80997SOL    HW244889   7.232  11.502   6.567
80998SOL     OW44890  10.773   2.659   8.237
80998SOL    HW144891  10.692   2.647   8.286
80998SOL    HW244892  10.806   2.570   8.223
80999SOL     OW44893   9.513   0.030  11.564
80999SOL    HW144894   9.490  14.815  11.578
80999SOL    HW244895   9.524   0.037  11.469
81000SOL     OW44896   2.360   0.927  14.637
81000SOL    HW144897   2.348   0.832  14.635
81000SOL    HW244898   2.273   0.962  14.655
81001SOL     OW44899  13.816  14.026   9.750
81001SOL    HW144900  13.880  13.957   9.769
81001SOL    HW244901  13.781  14.050   9.836
81002SOL     OW44902  11.365   5.598   1.336
81002SOL    HW144903  11.374   5.693   1.338
81002SOL    HW244904  11.270   5.584   1.328
81003SOL     OW44905   0.971  12.871   7.499
81003SOL    HW144906   1.055  12.883   7.454
81003SOL    HW244907   0.994  12.836   7.585
81004SOL     OW44908   8.489  11.850  13.072
81004SOL    HW144909   8.428  11.923  13.062
81004SOL    HW244910   8.452  11.781  13.018
81005SOL     OW44911   5.949   6.646   8.104
81005SOL    HW144912   5.870   6.691   8.134
81005SOL    HW244913   6.009   6.650   8.178
81006SOL     OW44914   0.962   5.392   7.470
81006SOL    HW144915   0.934   5.378   7.561
81006SOL    HW244916   0.882   5.382   7.418
81007SOL     OW44917   0.222  12.083  13.124
81007SOL    HW144918   0.303  12.121  13.158
81007SOL    HW244919   0.152  12.139  13.158
81008SOL     OW44920   7.955   1.950  11.294
81008SOL    HW144921   7.961   1.997  11.211
81008SOL    HW244922   7.863   1.925  11.301
81009SOL     OW44923   7.107  10.598   8.028
81009SOL    HW144924   7.054  10.641   8.095
81009SOL    HW244925   7.121  10.509   8.061
81010SOL     OW44926   5.984   1.825   6.849
81010SOL    HW144927   5.917   1.767   6.885
81010SOL    HW244928   6.054   1.825   6.914
81011SOL     OW44929   6.402   1.166  13.190
81011SOL    HW144930   6.346   1.128  13.122
81011SOL    HW244931   6.343   1.221  13.242
81012SOL     OW44932  11.639   7.872   5.704
81012SOL    HW144933  11.718   7.927   5.701
81012SOL    HW244934  11.670   7.789   5.740
81013SOL     OW44935  12.831   0.531   1.114
81013SOL    HW144936  12.889   0.606   1.126
81013SOL    HW244937  12.768   0.538   1.185
81014SOL     OW44938   5.364  13.498  13.311
81014SOL    HW144939   5.279  13.504  13.354
81014SOL    HW244940   5.397  13.412  13.336
81015SOL     OW44941  11.794   3.202   6.391
81015SOL    HW144942  11.849   3.134   6.352
81015SOL    HW244943  11.735   3.155   6.450
81016SOL     OW44944   4.317  13.914   5.256
81016SOL    HW144945   4.392  13.969   5.234
81016SOL    HW244946   4.242  13.961   5.219
81017SOL     OW44947  12.514   7.582  12.982
81017SOL    HW144948  12.441   7.548  12.929
81017SOL    HW244949  12.590   7.574  12.925
81018SOL     OW44950   7.984  12.584   8.283
81018SOL    HW144951   7.912  12.577   8.220
81018SOL    HW244952   7.954  12.650   8.346
81019SOL     OW44953   7.811   3.944  14.215
81019SOL    HW144954   7.734   3.887  14.203
81019SOL    HW244955   7.831   3.938  14.308
81020SOL     OW44956   1.986   9.523   8.054
81020SOL    HW144957   1.970   9.605   8.007
81020SOL    HW244958   1.987   9.549   8.146
81021SOL     OW44959   9.640   6.343   9.098
81021SOL    HW144960   9.627   6.309   9.186
81021SOL    HW244961   9.735   6.349   9.088
81022SOL     OW44962   4.888   1.049   7.042
81022SOL    HW144963   4.974   1.043   7.001
81022SOL    HW244964   4.876   1.142   7.059
81023SOL     OW44965  10.477   0.691   6.249
81023SOL    HW144966  10.539   0.761   6.228
81023SOL    HW244967  10.517   0.645   6.323
81024SOL     OW44968   4.251   9.536  10.527
81024SOL    HW144969   4.297   9.610  10.567
81024SOL    HW244970   4.213   9.489  10.601
81025SOL     OW44971  13.122   2.466   4.362
81025SOL    HW144972  13.191   2.425   4.415
81025SOL    HW244973  13.114   2.409   4.286
81026SOL     OW44974   9.897   3.831  11.390
81026SOL    HW144975   9.922   3.811  11.480
81026SOL    HW244976   9.924   3.754  11.340
81027SOL     OW44977   4.464   5.164   2.754
81027SOL    HW144978   4.466   5.102   2.682
81027SOL    HW244979   4.423   5.117   2.826
81028SOL     OW44980  11.137   6.847   6.059
81028SOL    HW144981  11.090   6.806   6.131
81028SOL    HW244982  11.080   6.918   6.029
81029SOL     OW44983  12.123   1.178   0.170
81029SOL    HW144984  12.140   1.181   0.264
81029SOL    HW244985  12.087   1.265   0.150
81030SOL     OW44986   0.829  12.433  12.286
81030SOL    HW144987   0.749  12.406  12.330
81030SOL    HW244988   0.881  12.352  12.281
81031SOL     OW44989  11.359   3.215   2.371
81031SOL    HW144990  11.305   3.237   2.295
81031SOL    HW244991  11.346   3.121   2.383
81032SOL     OW44992   9.175   7.106   4.595
81032SOL    HW144993   9.269   7.091   4.593
81032SOL    HW244994   9.162   7.184   4.542
81033SOL     OW44995   1.051   6.154   0.658
81033SOL    HW144996   1.057   6.064   0.690
81033SOL    HW244997   0.998   6.148   0.579
81034SOL     OW44998   5.517  10.645  13.140
81034SOL    HW144999   5.514  10.562  13.186
81034SOL    HW245000   5.474  10.707  13.199
81035SOL     OW45001  12.946   2.221   3.839
81035SOL    HW145002  12.912   2.288   3.780
81035SOL    HW245003  12.903   2.239   3.923
81036SOL     OW45004   0.515   2.678   3.649
81036SOL    HW145005   0.581   2.712   3.710
81036SOL    HW245006   0.536   2.719   3.565
81037SOL     OW45007  10.237   9.941   9.348
81037SOL    HW145008  10.173   9.950   9.278
81037SOL    HW245009  10.322   9.946   9.304
81038SOL     OW45010   6.269   6.382   9.245
81038SOL    HW145011   6.194   6.345   9.198
81038SOL    HW245012   6.327   6.307   9.261
81039SOL     OW45013   1.850   4.465   5.754
81039SOL    HW145014   1.810   4.419   5.829
81039SOL    HW245015   1.796   4.440   5.679
81040SOL     OW45016   8.543   4.102   4.891
81040SOL    HW145017   8.519   4.096   4.798
81040SOL    HW245018   8.513   4.189   4.918
81041SOL     OW45019  14.300   2.269  13.748
81041SOL    HW145020  14.271   2.199  13.691
81041SOL    HW245021  14.318   2.342  13.689
81042SOL     OW45022  14.748   6.606   0.634
81042SOL    HW145023  14.710   6.597   0.721
81042SOL    HW245024  14.706   6.683   0.596
81043SOL     OW45025  11.170   9.716   2.787
81043SOL    HW145026  11.256   9.673   2.780
81043SOL    HW245027  11.191   9.809   2.799
81044SOL     OW45028  12.631   5.540   0.262
81044SOL    HW145029  12.643   5.474   0.331
81044SOL    HW245030  12.568   5.602   0.300
81045SOL     OW45031   1.798   2.707  14.024
81045SOL    HW145032   1.748   2.779  13.986
81045SOL    HW245033   1.743   2.674  14.095
81046SOL     OW45034   2.428   6.457  12.702
81046SOL    HW145035   2.384   6.425  12.623
81046SOL    HW245036   2.492   6.389  12.723
81047SOL     OW45037   1.448   8.669   0.950
81047SOL    HW145038   1.431   8.580   0.920
81047SOL    HW245039   1.371   8.692   1.001
81048SOL     OW45040  12.689   2.247   7.058
81048SOL    HW145041  12.634   2.304   7.111
81048SOL    HW245042  12.713   2.175   7.116
81049SOL     OW45043   6.547   3.114  12.404
81049SOL    HW145044   6.613   3.184  12.412
81049SOL    HW245045   6.470   3.148  12.450
81050SOL     OW45046  12.833  12.908  12.986
81050SOL    HW145047  12.846  12.987  13.038
81050SOL    HW245048  12.755  12.927  12.934
81051SOL     OW45049   1.839   5.442   0.198
81051SOL    HW145050   1.876   5.355   0.216
81051SOL    HW245051   1.815   5.439   0.106
81052SOL     OW45052  13.745   5.530  11.951
81052SOL    HW145053  13.675   5.544  12.014
81052SOL    HW245054  13.824   5.563  11.994
81053SOL     OW45055  13.629   1.106   2.324
81053SOL    HW145056  13.649   1.164   2.398
81053SOL    HW245057  13.540   1.129   2.298
81054SOL     OW45058  10.001   8.303  12.050
81054SOL    HW145059   9.939   8.309  11.978
81054SOL    HW245060   9.948   8.273  12.124
81055SOL     OW45061   1.458   4.385   8.156
81055SOL    HW145062   1.424   4.349   8.237
81055SOL    HW245063   1.476   4.309   8.101
81056SOL     OW45064   7.452  13.783  12.456
81056SOL    HW145065   7.459  13.815  12.546
81056SOL    HW245066   7.531  13.816  12.413
81057SOL     OW45067   4.954  11.086   0.591
81057SOL    HW145068   4.958  10.996   0.623
81057SOL    HW245069   4.905  11.133   0.659
81058SOL     OW45070   5.689   4.051   7.679
81058SOL    HW145071   5.721   4.046   7.769
81058SOL    HW245072   5.761   4.017   7.626
81059SOL     OW45073  10.074  14.148  10.186
81059SOL    HW145074  10.042  14.235  10.208
81059SOL    HW245075  10.161  14.144  10.226
81060SOL     OW45076   1.412  11.264   5.275
81060SOL    HW145077   1.479  11.292   5.213
81060SOL    HW245078   1.332  11.307   5.245
81061SOL     OW45079   4.404  12.811   9.459
81061SOL    HW145080   4.473  12.871   9.490
81061SOL    HW245081   4.327  12.836   9.510
81062SOL     OW45082   6.971   1.964   7.424
81062SOL    HW145083   7.052   1.943   7.471
81062SOL    HW245084   6.978   2.057   7.404
81063SOL     OW45085   8.038   1.928   7.529
81063SOL    HW145086   8.006   1.847   7.570
81063SOL    HW245087   7.972   1.993   7.549
81064SOL     OW45088  11.853   7.838   4.690
81064SOL    HW145089  11.848   7.933   4.701
81064SOL    HW245090  11.839   7.803   4.778
81065SOL     OW45091  14.458   4.565  14.474
81065SOL    HW145092  14.387   4.629  14.484
81065SOL    HW245093  14.487   4.546  14.563
81066SOL     OW45094   2.503  12.044   1.407
81066SOL    HW145095   2.432  12.010   1.462
81066SOL    HW245096   2.457  12.087   1.334
81067SOL     OW45097   8.395   4.597   2.798
81067SOL    HW145098   8.308   4.607   2.838
81067SOL    HW245099   8.380   4.610   2.704
81068SOL     OW45100   5.323   6.110   9.836
81068SOL    HW145101   5.304   6.143   9.749
81068SOL    HW245102   5.416   6.131   9.851
81069SOL     OW45103   7.244   8.148   0.166
81069SOL    HW145104   7.265   8.077   0.106
81069SOL    HW245105   7.154   8.173   0.143
81070SOL     OW45106   0.150   0.420   5.611
81070SOL    HW145107   0.172   0.449   5.700
81070SOL    HW245108   0.088   0.486   5.580
81071SOL     OW45109  14.355   9.840   9.404
81071SOL    HW145110  14.392   9.789   9.332
81071SOL    HW245111  14.430   9.862   9.459
81072SOL     OW45112   4.959   0.623   5.664
81072SOL    HW145113   4.907   0.631   5.585
81072SOL    HW245114   4.968   0.713   5.696
81073SOL     OW45115   1.692   9.280   6.195
81073SOL    HW145116   1.770   9.252   6.147
81073SOL    HW245117   1.624   9.288   6.128
81074SOL     OW45118   3.721   6.462   7.345
81074SOL    HW145119   3.651   6.518   7.381
81074SOL    HW245120   3.714   6.474   7.250
81075SOL     OW45121  13.628   6.002   5.648
81075SOL    HW145122  13.690   6.026   5.716
81075SOL    HW245123  13.543   6.002   5.693
81076SOL     OW45124   5.483  14.644   0.878
81076SOL    HW145125   5.467  14.559   0.920
81076SOL    HW245126   5.578  14.650   0.870
81077SOL     OW45127  13.467   5.253  12.267
81077SOL    HW145128  13.430   5.335  12.300
81077SOL    HW245129  13.432   5.244  12.179
81078SOL     OW45130   4.943  10.996   9.781
81078SOL    HW145131   4.988  10.923   9.736
81078SOL    HW245132   4.934  11.063   9.714
81079SOL     OW45133  10.695  13.499  10.670
81079SOL    HW145134  10.706  13.447  10.749
81079SOL    HW245135  10.749  13.576  10.684
81080SOL     OW45136   2.484  12.007   6.608
81080SOL    HW145137   2.474  12.047   6.522
81080SOL    HW245138   2.433  11.926   6.603
81081SOL     OW45139   7.789   2.225   0.619
81081SOL    HW145140   7.841   2.269   0.686
81081SOL    HW245141   7.698   2.250   0.638
81082SOL     OW45142  12.561   9.037   7.183
81082SOL    HW145143  12.631   9.033   7.118
81082SOL    HW245144  12.603   9.015   7.266
81083SOL     OW45145   5.044  14.196  14.231
81083SOL    HW145146   5.009  14.107  14.229
81083SOL    HW245147   4.987  14.243  14.291
81084SOL     OW45148   3.364   8.363  12.607
81084SOL    HW145149   3.389   8.321  12.524
81084SOL    HW245150   3.272   8.387  12.595
81085SOL     OW45151   4.787  12.089   5.208
81085SOL    HW145152   4.797  12.095   5.303
81085SOL    HW245153   4.806  11.998   5.187
81086SOL     OW45154   7.664  10.053   9.491
81086SOL    HW145155   7.653   9.965   9.526
81086SOL    HW245156   7.575  10.081   9.469
81087SOL     OW45157   7.549   3.428   8.949
81087SOL    HW145158   7.556   3.344   8.903
81087SOL    HW245159   7.571   3.407   9.040
81088SOL     OW45160   2.301   7.986   0.138
81088SOL    HW145161   2.224   7.987   0.081
81088SOL    HW245162   2.284   8.054   0.203
81089SOL     OW45163  12.528   5.990  12.059
81089SOL    HW145164  12.500   6.053  11.993
81089SOL    HW245165  12.501   5.905  12.024
81090SOL     OW45166   3.781   0.886  13.837
81090SOL    HW145167   3.686   0.896  13.828
81090SOL    HW245168   3.796   0.878  13.931
81091SOL     OW45169   7.872   9.866  12.232
81091SOL    HW145170   7.946   9.832  12.182
81091SOL    HW245171   7.811   9.898  12.165
81092SOL     OW45172   7.075  14.715   6.304
81092SOL    HW145173   7.004  14.775   6.282
81092SOL    HW245174   7.153  14.755   6.266
81093SOL     OW45175   6.792   6.123   8.903
81093SOL    HW145176   6.720   6.185   8.893
81093SOL    HW245177   6.769   6.070   8.979
81094SOL     OW45178  13.261   5.975   1.359
81094SOL    HW145179  13.258   5.955   1.452
81094SOL    HW245180  13.169   5.977   1.332
81095SOL     OW45181   3.822  10.505   4.181
81095SOL    HW145182   3.802  10.457   4.101
81095SOL    HW245183   3.852  10.437   4.242
81096SOL     OW45184   4.814   8.718   9.337
81096SOL    HW145185   4.898   8.673   9.346
81096SOL    HW245186   4.807   8.773   9.414
81097SOL     OW45187  10.314   7.188   0.929
81097SOL    HW145188  10.225   7.222   0.922
81097SOL    HW245189  10.312   7.131   1.006
81098SOL     OW45190   5.343   4.576   1.363
81098SOL    HW145191   5.367   4.661   1.327
81098SOL    HW245192   5.371   4.513   1.297
81099SOL     OW45193  13.257   5.343   3.551
81099SOL    HW145194  13.258   5.409   3.621
81099SOL    HW245195  13.287   5.390   3.473
81100SOL     OW45196   8.810  14.729   8.870
81100SOL    HW145197   8.819  14.777   8.952
81100SOL    HW245198   8.717  14.709   8.863
81101SOL     OW45199   6.938   5.201  12.384
81101SOL    HW145200   6.958   5.129  12.324
81101SOL    HW245201   6.887   5.160  12.454
81102SOL     OW45202  13.679   7.555   7.927
81102SOL    HW145203  13.613   7.524   7.989
81102SOL    HW245204  13.762   7.527   7.964
81103SOL     OW45205  11.147  12.039   4.278
81103SOL    HW145206  11.138  12.131   4.256
81103SOL    HW245207  11.070  11.997   4.238
81104SOL     OW45208   9.180   1.672   0.942
81104SOL    HW145209   9.177   1.756   0.988
81104SOL    HW245210   9.228   1.614   1.001
81105SOL     OW45211   4.801   1.873  12.393
81105SOL    HW145212   4.774   1.963  12.408
81105SOL    HW245213   4.775   1.854  12.303
81106SOL     OW45214   5.852  11.886   9.760
81106SOL    HW145215   5.835  11.847   9.675
81106SOL    HW245216   5.858  11.812   9.820
81107SOL     OW45217  10.698   6.753  12.854
81107SOL    HW145218  10.745   6.694  12.795
81107SOL    HW245219  10.668   6.825  12.797
81108SOL     OW45220  14.462  11.883   5.862
81108SOL    HW145221  14.489  11.809   5.917
81108SOL    HW245222  14.393  11.847   5.807
81109SOL     OW45223  14.586   0.433   6.004
81109SOL    HW145224  14.522   0.408   5.937
81109SOL    HW245225  14.634   0.352   6.021
81110SOL     OW45226   1.089   8.281  14.245
81110SOL    HW145227   1.139   8.353  14.206
81110SOL    HW245228   1.105   8.289  14.339
81111SOL     OW45229   6.151   3.901   7.944
81111SOL    HW145230   6.131   3.908   7.851
81111SOL    HW245231   6.144   3.990   7.977
81112SOL     OW45232  12.792   2.287  14.396
81112SOL    HW145233  12.841   2.349  14.342
81112SOL    HW245234  12.844   2.278  14.475
81113SOL     OW45235  13.369  14.487  13.077
81113SOL    HW145236  13.283  14.445  13.082
81113SOL    HW245237  13.366  14.539  12.997
81114SOL     OW45238   0.722  11.252   1.524
81114SOL    HW145239   0.688  11.163   1.520
81114SOL    HW245240   0.813  11.244   1.496
81115SOL     OW45241  11.676   2.207  12.770
81115SOL    HW145242  11.734   2.283  12.763
81115SOL    HW245243  11.671   2.190  12.864
81116SOL     OW45244   8.523   9.502  13.139
81116SOL    HW145245   8.617   9.492  13.151
81116SOL    HW245246   8.512   9.518  13.046
81117SOL     OW45247   0.136   6.042   1.335
81117SOL    HW145248   0.094   6.127   1.348
81117SOL    HW245249   0.085   6.000   1.267
81118SOL     OW45250   9.034   0.719  11.995
81118SOL    HW145251   8.944   0.710  11.964
81118SOL    HW245252   9.030   0.697  12.088
81119SOL     OW45253  13.158   3.107  10.465
81119SOL    HW145254  13.251   3.086  10.465
81119SOL    HW245255  13.115   3.023  10.447
81120SOL     OW45256   3.232  13.499   7.831
81120SOL    HW145257   3.233  13.589   7.864
81120SOL    HW245258   3.185  13.504   7.747
81121SOL     OW45259   4.781  12.234   7.362
81121SOL    HW145260   4.747  12.269   7.280
81121SOL    HW245261   4.707  12.188   7.401
81122SOL     OW45262   5.190  11.941  11.228
81122SOL    HW145263   5.192  11.845  11.232
81122SOL    HW245264   5.250  11.969  11.297
81123SOL     OW45265  11.277   6.520   7.322
81123SOL    HW145266  11.214   6.565   7.266
81123SOL    HW245267  11.263   6.427   7.305
81124SOL     OW45268   4.020  13.383   4.971
81124SOL    HW145269   4.050  13.427   4.892
81124SOL    HW245270   3.925  13.400   4.974
81125SOL     OW45271   5.409  14.676   3.825
81125SOL    HW145272   5.491  14.692   3.871
81125SOL    HW245273   5.429  14.691   3.732
81126SOL     OW45274   9.850   9.051   8.477
81126SOL    HW145275   9.921   9.115   8.475
81126SOL    HW245276   9.825   9.045   8.569
81127SOL     OW45277   6.021   9.027   9.448
81127SOL    HW145278   6.084   8.958   9.467
81127SOL    HW245279   5.943   8.981   9.418
81128SOL     OW45280   5.374   8.700  11.655
81128SOL    HW145281   5.413   8.621  11.617
81128SOL    HW245282   5.450   8.757  11.673
81129SOL     OW45283  12.601   6.176   5.735
81129SOL    HW145284  12.506   6.187   5.724
81129SOL    HW245285  12.635   6.168   5.646
81130SOL     OW45286   6.325   5.333   8.805
81130SOL    HW145287   6.365   5.252   8.773
81130SOL    HW245288   6.251   5.304   8.859
81131SOL     OW45289   3.943   6.829   9.393
81131SOL    HW145290   3.971   6.844   9.303
81131SOL    HW245291   3.939   6.734   9.402
81132SOL     OW45292   0.426   8.724   1.569
81132SOL    HW145293   0.446   8.723   1.476
81132SOL    HW245294   0.464   8.643   1.603
81133SOL     OW45295   8.406   9.306   4.106
81133SOL    HW145296   8.374   9.263   4.185
81133SOL    HW245297   8.341   9.374   4.089
81134SOL     OW45298   6.507   3.588   8.797
81134SOL    HW145299   6.579   3.563   8.739
81134SOL    HW245300   6.548   3.643   8.864
81135SOL     OW45301  12.251  13.324   3.357
81135SOL    HW145302  12.252  13.310   3.452
81135SOL    HW245303  12.158  13.331   3.334
81136SOL     OW45304   1.675   8.780  11.667
81136SOL    HW145305   1.759   8.826  11.668
81136SOL    HW245306   1.691   8.699  11.716
81137SOL     OW45307   2.822   2.899   9.859
81137SOL    HW145308   2.888   2.953   9.903
81137SOL    HW245309   2.795   2.836   9.926
81138SOL     OW45310   8.402   4.281   0.277
81138SOL    HW145311   8.370   4.369   0.257
81138SOL    HW245312   8.330   4.240   0.325
81139SOL     OW45313  13.487  10.168   6.011
81139SOL    HW145314  13.481  10.078   6.041
81139SOL    HW245315  13.402  10.206   6.032
81140SOL     OW45316  10.630   3.553   3.911
81140SOL    HW145317  10.698   3.487   3.896
81140SOL    HW245318  10.638   3.613   3.837
81141SOL     OW45319   1.652   6.413   6.888
81141SOL    HW145320   1.603   6.428   6.807
81141SOL    HW245321   1.668   6.500   6.923
81142SOL     OW45322  11.326  10.236   9.913
81142SOL    HW145323  11.348  10.184   9.835
81142SOL    HW245324  11.258  10.297   9.882
81143SOL     OW45325   7.517   1.895   6.864
81143SOL    HW145326   7.450   1.865   6.803
81143SOL    HW245327   7.596   1.846   6.838
81144SOL     OW45328   6.459  10.063   3.064
81144SOL    HW145329   6.547  10.025   3.069
81144SOL    HW245330   6.474  10.158   3.060
81145SOL     OW45331  13.393   7.641   1.926
81145SOL    HW145332  13.434   7.614   2.008
81145SOL    HW245333  13.317   7.693   1.953
81146SOL     OW45334  11.666   4.454  14.370
81146SOL    HW145335  11.674   4.380  14.431
81146SOL    HW245336  11.689   4.531  14.422
81147SOL     OW45337   5.222  10.429  10.570
81147SOL    HW145338   5.201  10.506  10.516
81147SOL    HW245339   5.211  10.459  10.660
81148SOL     OW45340   0.595   9.105   6.497
81148SOL    HW145341   0.588   9.191   6.456
81148SOL    HW245342   0.688   9.096   6.517
81149SOL     OW45343   1.267   7.335  12.508
81149SOL    HW145344   1.195   7.272  12.496
81149SOL    HW245345   1.240   7.388  12.583
81150SOL     OW45346   7.439   1.419  11.465
81150SOL    HW145347   7.358   1.409  11.515
81150SOL    HW245348   7.432   1.505  11.425
81151SOL     OW45349  12.499   3.223  14.704
81151SOL    HW145350  12.586   3.207  14.740
81151SOL    HW245351  12.443   3.157  14.746
81152SOL     OW45352   0.963   8.398  10.766
81152SOL    HW145353   1.028   8.458  10.800
81152SOL    HW245354   0.921   8.445  10.694
81153SOL     OW45355   9.659   7.190   5.826
81153SOL    HW145356   9.614   7.108   5.850
81153SOL    HW245357   9.589   7.255   5.820
81154SOL     OW45358   2.770   7.151   2.830
81154SOL    HW145359   2.860   7.182   2.822
81154SOL    HW245360   2.720   7.208   2.770
81155SOL     OW45361   1.092   0.808   4.470
81155SOL    HW145362   1.096   0.713   4.482
81155SOL    HW245363   1.160   0.842   4.527
81156SOL     OW45364   8.240   7.586   6.597
81156SOL    HW145365   8.204   7.544   6.520
81156SOL    HW245366   8.317   7.634   6.565
81157SOL     OW45367  11.822   3.115   2.708
81157SOL    HW145368  11.892   3.180   2.719
81157SOL    HW245369  11.829   3.088   2.616
81158SOL     OW45370   1.488  14.207  14.777
81158SOL    HW145371   1.490  14.190  14.683
81158SOL    HW245372   1.447  14.293  14.784
81159SOL     OW45373   0.037   8.719   8.766
81159SOL    HW145374   0.026   8.812   8.787
81159SOL    HW245375   0.000   8.710   8.678
81160SOL     OW45376  11.011  11.977   8.652
81160SOL    HW145377  10.985  11.886   8.670
81160SOL    HW245378  11.016  11.982   8.557
81161SOL     OW45379   4.759   3.471   6.483
81161SOL    HW145380   4.797   3.418   6.553
81161SOL    HW245381   4.826   3.472   6.415
81162SOL     OW45382   4.980   7.529  13.105
81162SOL    HW145383   4.968   7.507  13.013
81162SOL    HW245384   5.075   7.523  13.119
81163SOL     OW45385   9.669   6.821  11.192
81163SOL    HW145386   9.671   6.908  11.234
81163SOL    HW245387   9.586   6.783  11.221
81164SOL     OW45388   5.563   8.336   9.511
81164SOL    HW145389   5.631   8.290   9.463
81164SOL    HW245390   5.588   8.327   9.603
81165SOL     OW45391   4.057  10.117  10.259
81165SOL    HW145392   4.115  10.102  10.334
81165SOL    HW245393   4.018  10.032  10.241
81166SOL     OW45394   2.184   6.435  14.618
81166SOL    HW145395   2.140   6.371  14.562
81166SOL    HW245396   2.274   6.403  14.625
81167SOL     OW45397   5.287  14.820  13.179
81167SOL    HW145398   5.269   0.030  13.212
81167SOL    HW245399   5.362  14.831  13.121
81168SOL     OW45400   7.063   6.075   4.544
81168SOL    HW145401   6.980   6.071   4.496
81168SOL    HW245402   7.091   6.167   4.537
81169SOL     OW45403   3.920   6.848  14.497
81169SOL    HW145404   3.926   6.876  14.406
81169SOL    HW245405   3.831   6.814  14.506
81170SOL     OW45406   5.188  11.455   3.074
81170SOL    HW145407   5.114  11.402   3.045
81170SOL    HW245408   5.194  11.525   3.010
81171SOL     OW45409   6.024  12.104   3.826
81171SOL    HW145410   6.046  12.026   3.777
81171SOL    HW245411   5.964  12.152   3.769
81172SOL     OW45412  11.653  10.579  14.412
81172SOL    HW145413  11.661  10.485  14.426
81172SOL    HW245414  11.634  10.615  14.499
81173SOL     OW45415   5.787   6.425  13.760
81173SOL    HW145416   5.871   6.380  13.753
81173SOL    HW245417   5.767   6.423  13.854
81174SOL     OW45418   2.294  14.029   6.424
81174SOL    HW145419   2.198  14.025   6.421
81174SOL    HW245420   2.314  14.121   6.440
81175SOL     OW45421   4.749   3.139   5.723
81175SOL    HW145422   4.758   3.062   5.779
81175SOL    HW245423   4.819   3.198   5.752
81176SOL     OW45424  14.072   1.534   9.791
81176SOL    HW145425  14.002   1.519   9.854
81176SOL    HW245426  14.048   1.615   9.746
81177SOL     OW45427   1.645   4.429   0.285
81177SOL    HW145428   1.645   4.438   0.380
81177SOL    HW245429   1.687   4.344   0.269
81178SOL     OW45430   2.216   0.894   8.012
81178SOL    HW145431   2.151   0.962   8.032
81178SOL    HW245432   2.294   0.923   8.059
81179SOL     OW45433  12.606   0.588   5.114
81179SOL    HW145434  12.627   0.677   5.084
81179SOL    HW245435  12.675   0.567   5.177
81180SOL     OW45436   1.339   9.720   5.175
81180SOL    HW145437   1.388   9.639   5.186
81180SOL    HW245438   1.390   9.771   5.112
81181SOL     OW45439  11.525  10.828  10.575
81181SOL    HW145440  11.480  10.904  10.610
81181SOL    HW245441  11.587  10.802  10.642
81182SOL     OW45442  11.627   9.374   7.735
81182SOL    HW145443  11.667   9.460   7.721
81182SOL    HW245444  11.619   9.367   7.830
81183SOL     OW45445   9.423  13.493   4.609
81183SOL    HW145446   9.407  13.456   4.696
81183SOL    HW245447   9.436  13.417   4.552
81184SOL     OW45448  10.187   9.530   1.310
81184SOL    HW145449  10.113   9.581   1.277
81184SOL    HW245450  10.147   9.450   1.344
81185SOL     OW45451   6.061   1.947   4.035
81185SOL    HW145452   6.099   1.890   4.102
81185SOL    HW245453   5.977   1.906   4.013
81186SOL     OW45454   2.772   4.342   1.604
81186SOL    HW145455   2.809   4.377   1.523
81186SOL    HW245456   2.839   4.283   1.638
81187SOL     OW45457   1.310   1.083   6.209
81187SOL    HW145458   1.399   1.067   6.240
81187SOL    HW245459   1.259   1.096   6.289
81188SOL     OW45460   0.056   0.778  12.912
81188SOL    HW145461   0.014   0.858  12.880
81188SOL    HW245462   0.144   0.806  12.937
81189SOL     OW45463   5.573   5.158   1.547
81189SOL    HW145464   5.637   5.227   1.561
81189SOL    HW245465   5.607   5.108   1.472
81190SOL     OW45466   9.445  12.928   4.841
81190SOL    HW145467   9.421  12.982   4.765
81190SOL    HW245468   9.538  12.908   4.827
81191SOL     OW45469  14.252  10.496   5.456
81191SOL    HW145470  14.180  10.552   5.484
81191SOL    HW245471  14.233  10.477   5.364
81192SOL     OW45472   4.773   9.128   2.838
81192SOL    HW145473   4.736   9.217   2.836
81192SOL    HW245474   4.720   9.081   2.902
81193SOL     OW45475   3.428   2.818  11.884
81193SOL    HW145476   3.503   2.872  11.908
81193SOL    HW245477   3.437   2.804  11.790
81194SOL     OW45478  12.981   9.483   8.477
81194SOL    HW145479  13.026   9.476   8.393
81194SOL    HW245480  12.888   9.477   8.456
81195SOL     OW45481   8.817  10.816   5.339
81195SOL    HW145482   8.870  10.813   5.259
81195SOL    HW245483   8.829  10.730   5.379
81196SOL     OW45484   8.838   1.195   8.443
81196SOL    HW145485   8.885   1.226   8.366
81196SOL    HW245486   8.878   1.110   8.463
81197SOL     OW45487  10.428   2.967   2.712
81197SOL    HW145488  10.363   2.933   2.774
81197SOL    HW245489  10.440   2.896   2.649
81198SOL     OW45490   7.339  13.242   1.578
81198SOL    HW145491   7.331  13.256   1.484
81198SOL    HW245492   7.266  13.184   1.600
81199SOL     OW45493   5.261   4.840  10.702
81199SOL    HW145494   5.331   4.774  10.706
81199SOL    HW245495   5.206   4.813  10.629
81200SOL     OW45496  12.373   0.607  11.214
81200SOL    HW145497  12.357   0.575  11.125
81200SOL    HW245498  12.450   0.663  11.206
81201SOL     OW45499  10.833   2.020  12.768
81201SOL    HW145500  10.762   2.084  12.762
81201SOL    HW245501  10.827   1.969  12.688
81202SOL     OW45502   7.365   4.691  11.034
81202SOL    HW145503   7.321   4.774  11.050
81202SOL    HW245504   7.448   4.715  10.994
81203SOL     OW45505  14.132   1.771  13.290
81203SOL    HW145506  14.167   1.834  13.227
81203SOL    HW245507  14.120   1.822  13.370
81204SOL     OW45508   5.860   8.170   9.871
81204SOL    HW145509   5.817   8.187   9.788
81204SOL    HW245510   5.797   8.118   9.921
81205SOL     OW45511  12.263  10.828  14.132
81205SOL    HW145512  12.345  10.780  14.119
81205SOL    HW245513  12.231  10.846  14.044
81206SOL     OW45514  13.032  11.844  14.154
81206SOL    HW145515  13.038  11.885  14.068
81206SOL    HW245516  12.995  11.757  14.136
81207SOL     OW45517   1.713  13.019   6.422
81207SOL    HW145518   1.761  12.996   6.501
81207SOL    HW245519   1.636  12.962   6.423
81208SOL     OW45520  10.573   0.352   2.922
81208SOL    HW145521  10.617   0.338   3.006
81208SOL    HW245522  10.485   0.318   2.935
81209SOL     OW45523  13.904   2.975   7.427
81209SOL    HW145524  13.848   3.000   7.500
81209SOL    HW245525  13.937   2.889   7.451
81210SOL     OW45526  11.970   4.830   2.363
81210SOL    HW145527  11.996   4.738   2.367
81210SOL    HW245528  11.998   4.868   2.446
81211SOL     OW45529   0.806   6.007   0.033
81211SOL    HW145530   0.879   6.048   0.079
81211SOL    HW245531   0.776   6.073  14.849
81212SOL     OW45532   7.138   5.778  11.836
81212SOL    HW145533   7.202   5.718  11.875
81212SOL    HW245534   7.174   5.865  11.852
81213SOL     OW45535  14.732  14.200  14.129
81213SOL    HW145536  14.817  14.237  14.154
81213SOL    HW245537  14.710  14.139  14.199
81214SOL     OW45538  12.593  11.940   9.434
81214SOL    HW145539  12.523  11.909   9.492
81214SOL    HW245540  12.575  11.898   9.350
81215SOL     OW45541  11.356  11.942   4.767
81215SOL    HW145542  11.341  11.966   4.675
81215SOL    HW245543  11.270  11.915   4.799
81216SOL     OW45544   3.133  10.753  10.065
81216SOL    HW145545   3.053  10.758  10.013
81216SOL    HW245546   3.204  10.750  10.001
81217SOL     OW45547  10.646  12.794   0.107
81217SOL    HW145548  10.690  12.867   0.065
81217SOL    HW245549  10.652  12.813   0.201
81218SOL     OW45550   1.308   4.188   8.785
81218SOL    HW145551   1.252   4.262   8.810
81218SOL    HW245552   1.396   4.224   8.783
81219SOL     OW45553  14.731  14.678   1.112
81219SOL    HW145554  14.779  14.751   1.074
81219SOL    HW245555  14.640  14.694   1.088
81220SOL     OW45556  10.009   5.936   1.563
81220SOL    HW145557  10.069   5.951   1.636
81220SOL    HW245558  10.025   6.009   1.503
81221SOL     OW45559   3.097  13.064  13.490
81221SOL    HW145560   3.037  13.121  13.538
81221SOL    HW245561   3.177  13.115  13.482
81222SOL     OW45562   3.857  13.385  14.097
81222SOL    HW145563   3.900  13.445  14.159
81222SOL    HW245564   3.863  13.300  14.139
81223SOL     OW45565   6.698   2.448   2.063
81223SOL    HW145566   6.604   2.463   2.066
81223SOL    HW245567   6.734   2.524   2.016
81224SOL     OW45568   7.991   7.798   6.161
81224SOL    HW145569   7.956   7.883   6.134
81224SOL    HW245570   8.084   7.803   6.139
81225SOL     OW45571   9.927  11.480   0.726
81225SOL    HW145572   9.915  11.434   0.809
81225SOL    HW245573   9.840  11.478   0.686
81226SOL     OW45574  13.579   3.595   6.912
81226SOL    HW145575  13.505   3.541   6.886
81226SOL    HW245576  13.582   3.589   7.007
81227SOL     OW45577  10.634   8.064  14.619
81227SOL    HW145578  10.539   8.056  14.608
81227SOL    HW245579  10.652   8.156  14.603
81228SOL     OW45580   9.183  11.260  14.267
81228SOL    HW145581   9.237  11.193  14.309
81228SOL    HW245582   9.137  11.302  14.340
81229SOL     OW45583  14.074   1.392   4.801
81229SOL    HW145584  14.053   1.313   4.852
81229SOL    HW245585  14.036   1.374   4.715
81230SOL     OW45586   4.689   2.180  10.346
81230SOL    HW145587   4.745   2.192  10.423
81230SOL    HW245588   4.677   2.085  10.339
81231SOL     OW45589  14.516  11.892   7.745
81231SOL    HW145590  14.449  11.960   7.757
81231SOL    HW245591  14.590  11.939   7.705
81232SOL     OW45592  12.928  14.381   1.771
81232SOL    HW145593  12.977  14.450   1.816
81232SOL    HW245594  12.909  14.316   1.840
81233SOL     OW45595   8.450   8.528   4.619
81233SOL    HW145596   8.377   8.580   4.651
81233SOL    HW245597   8.443   8.444   4.665
81234SOL     OW45598  11.519   5.527   7.635
81234SOL    HW145599  11.512   5.559   7.545
81234SOL    HW245600  11.457   5.455   7.641
81235SOL     OW45601   2.869   3.196   3.077
81235SOL    HW145602   2.911   3.244   3.148
81235SOL    HW245603   2.834   3.265   3.020
81236SOL     OW45604   2.140  13.975   6.800
81236SOL    HW145605   2.171  13.972   6.891
81236SOL    HW245606   2.207  13.930   6.750
81237SOL     OW45607   4.665  14.067   9.548
81237SOL    HW145608   4.691  13.983   9.586
81237SOL    HW245609   4.613  14.109   9.616
81238SOL     OW45610   6.952   6.188   5.930
81238SOL    HW145611   6.870   6.233   5.910
81238SOL    HW245612   7.015   6.258   5.944
81239SOL     OW45613   4.503   8.085  12.617
81239SOL    HW145614   4.564   8.020  12.650
81239SOL    HW245615   4.424   8.035  12.595
81240SOL     OW45616   7.990   1.956  14.118
81240SOL    HW145617   7.945   2.039  14.134
81240SOL    HW245618   8.062   1.979  14.059
81241SOL     OW45619  14.141   0.728   0.545
81241SOL    HW145620  14.076   0.678   0.594
81241SOL    HW245621  14.142   0.688   0.458
81242SOL     OW45622  14.319  13.803  12.653
81242SOL    HW145623  14.270  13.760  12.723
81242SOL    HW245624  14.307  13.896  12.669
81243SOL     OW45625   9.011  14.669  11.815
81243SOL    HW145626   9.068  14.607  11.860
81243SOL    HW245627   8.998  14.631  11.728
81244SOL     OW45628  11.610  11.380  10.767
81244SOL    HW145629  11.684  11.431  10.734
81244SOL    HW245630  11.549  11.445  10.800
81245SOL     OW45631  12.962   6.458  14.702
81245SOL    HW145632  12.915   6.430  14.781
81245SOL    HW245633  12.990   6.376  14.662
81246SOL     OW45634   8.861   6.073   7.275
81246SOL    HW145635   8.780   6.074   7.223
81246SOL    HW245636   8.880   5.980   7.288
81247SOL     OW45637   7.710   5.941  13.668
81247SOL    HW145638   7.788   5.921  13.719
81247SOL    HW245639   7.638   5.937  13.731
81248SOL     OW45640   6.425   6.617  13.013
81248SOL    HW145641   6.422   6.582  13.102
81248SOL    HW245642   6.513   6.655  13.005
81249SOL     OW45643   8.653   8.334   2.222
81249SOL    HW145644   8.747   8.330   2.238
81249SOL    HW245645   8.644   8.377   2.138
81250SOL     OW45646   6.518   3.973   2.046
81250SOL    HW145647   6.526   4.020   1.963
81250SOL    HW245648   6.460   4.028   2.099
81251SOL     OW45649   4.202   6.694   4.135
81251SOL    HW145650   4.136   6.745   4.089
81251SOL    HW245651   4.263   6.759   4.170
81252SOL     OW45652  11.298   0.521   1.484
81252SOL    HW145653  11.339   0.445   1.442
81252SOL    HW245654  11.234   0.552   1.420
81253SOL     OW45655   6.153   0.369  10.481
81253SOL    HW145656   6.116   0.397  10.397
81253SOL    HW245657   6.149   0.274  10.479
81254SOL     OW45658   7.833   6.538   5.219
81254SOL    HW145659   7.924   6.515   5.238
81254SOL    HW245660   7.833   6.633   5.212
81255SOL     OW45661   2.034   0.122   6.024
81255SOL    HW145662   1.943   0.094   6.032
81255SOL    HW245663   2.085   0.041   6.022
81256SOL     OW45664   9.543   3.678   0.136
81256SOL    HW145665   9.632   3.656   0.164
81256SOL    HW245666   9.498   3.703   0.216
81257SOL     OW45667  10.319  14.282  11.101
81257SOL    HW145668  10.364  14.343  11.160
81257SOL    HW245669  10.226  14.305  11.110
81258SOL     OW45670   9.221  11.860   4.448
81258SOL    HW145671   9.150  11.908   4.489
81258SOL    HW245672   9.284  11.927   4.421
81259SOL     OW45673   6.074   8.198   8.802
81259SOL    HW145674   6.137   8.127   8.815
81259SOL    HW245675   6.008   8.161   8.743
81260SOL     OW45676   4.598   4.656   8.227
81260SOL    HW145677   4.517   4.679   8.181
81260SOL    HW245678   4.643   4.596   8.168
81261SOL     OW45679  14.291  10.008   7.790
81261SOL    HW145680  14.354  10.079   7.800
81261SOL    HW245681  14.330   9.935   7.838
81262SOL     OW45682   8.854  10.596   3.775
81262SOL    HW145683   8.927  10.648   3.742
81262SOL    HW245684   8.867  10.509   3.736
81263SOL     OW45685   2.902   1.491   7.169
81263SOL    HW145686   2.906   1.463   7.077
81263SOL    HW245687   2.952   1.424   7.216
81264SOL     OW45688   1.159   8.691   2.569
81264SOL    HW145689   1.228   8.758   2.578
81264SOL    HW245690   1.179   8.647   2.487
81265SOL     OW45691   3.542   6.432   5.292
81265SOL    HW145692   3.561   6.502   5.231
81265SOL    HW245693   3.520   6.476   5.374
81266SOL     OW45694   1.313  10.855  12.266
81266SOL    HW145695   1.276  10.867  12.178
81266SOL    HW245696   1.377  10.784  12.256
81267SOL     OW45697   2.602   4.666   6.217
81267SOL    HW145698   2.567   4.619   6.293
81267SOL    HW245699   2.656   4.736   6.254
81268SOL     OW45700   3.961   9.262  12.788
81268SOL    HW145701   3.865   9.257  12.789
81268SOL    HW245702   3.990   9.170  12.785
81269SOL     OW45703  12.271  10.639  11.205
81269SOL    HW145704  12.335  10.591  11.153
81269SOL    HW245705  12.323  10.682  11.273
81270SOL     OW45706  13.937   8.631   8.314
81270SOL    HW145707  14.028   8.621   8.284
81270SOL    HW245708  13.901   8.542   8.310
81271SOL     OW45709  11.747   6.565   2.195
81271SOL    HW145710  11.797   6.628   2.141
81271SOL    HW245711  11.658   6.599   2.194
81272SOL     OW45712   6.031  13.730   8.795
81272SOL    HW145713   5.957  13.735   8.855
81272SOL    HW245714   6.045  13.636   8.783
81273SOL     OW45715  10.398   4.671   6.526
81273SOL    HW145716  10.401   4.631   6.613
81273SOL    HW245717  10.452   4.750   6.534
81274SOL     OW45718   5.134  11.274  13.038
81274SOL    HW145719   5.211  11.331  13.038
81274SOL    HW245720   5.099  11.281  13.127
81275SOL     OW45721  13.359   2.680   5.770
81275SOL    HW145722  13.441   2.683   5.720
81275SOL    HW245723  13.388   2.683   5.862
81276SOL     OW45724   1.596   2.957   2.690
81276SOL    HW145725   1.680   2.943   2.733
81276SOL    HW245726   1.531   2.926   2.754
81277SOL     OW45727   1.310   3.120   5.155
81277SOL    HW145728   1.243   3.057   5.130
81277SOL    HW245729   1.344   3.088   5.238
81278SOL     OW45730   8.835   0.542   0.427
81278SOL    HW145731   8.896   0.579   0.363
81278SOL    HW245732   8.748   0.564   0.391
81279SOL     OW45733  10.767   8.417  12.691
81279SOL    HW145734  10.773   8.339  12.747
81279SOL    HW245735  10.675   8.442  12.696
81280SOL     OW45736   2.023  14.164   2.307
81280SOL    HW145737   1.997  14.228   2.373
81280SOL    HW245738   2.086  14.211   2.252
81281SOL     OW45739   1.104   6.535  11.278
81281SOL    HW145740   1.024   6.493  11.245
81281SOL    HW245741   1.120   6.492  11.362
81282SOL     OW45742   9.400   9.215   1.116
81282SOL    HW145743   9.467   9.154   1.146
81282SOL    HW245744   9.403   9.209   1.021
81283SOL     OW45745   2.175   1.559   6.464
81283SOL    HW145746   2.258   1.597   6.494
81283SOL    HW245747   2.146   1.618   6.395
81284SOL     OW45748   5.936  12.548  14.106
81284SOL    HW145749   5.923  12.453  14.095
81284SOL    HW245750   5.860  12.577  14.155
81285SOL     OW45751   6.041   8.374   4.621
81285SOL    HW145752   6.094   8.308   4.577
81285SOL    HW245753   6.096   8.404   4.694
81286SOL     OW45754   9.393   4.837   7.494
81286SOL    HW145755   9.389   4.931   7.513
81286SOL    HW245756   9.486   4.819   7.481
81287SOL     OW45757   9.633   9.620   9.133
81287SOL    HW145758   9.687   9.554   9.089
81287SOL    HW245759   9.548   9.614   9.089
81288SOL     OW45760   2.797   2.629   9.954
81288SOL    HW145761   2.769   2.545   9.918
81288SOL    HW245762   2.756   2.632  10.041
81289SOL     OW45763   5.295   2.882   1.953
81289SOL    HW145764   5.380   2.915   1.923
81289SOL    HW245765   5.308   2.788   1.965
81290SOL     OW45766   2.611   7.582   1.145
81290SOL    HW145767   2.634   7.512   1.084
81290SOL    HW245768   2.631   7.546   1.232
81291SOL     OW45769   6.928   8.060   2.240
81291SOL    HW145770   6.949   8.130   2.302
81291SOL    HW245771   6.883   8.104   2.168
81292SOL     OW45772   7.255   5.156   4.633
81292SOL    HW145773   7.182   5.218   4.634
81292SOL    HW245774   7.214   5.071   4.651
81293SOL     OW45775   4.057   3.855   5.217
81293SOL    HW145776   4.091   3.890   5.300
81293SOL    HW245777   4.077   3.762   5.221
81294SOL     OW45778  11.792   5.055  12.471
81294SOL    HW145779  11.801   5.150  12.477
81294SOL    HW245780  11.882   5.022  12.478
81295SOL     OW45781   1.609   7.555   1.298
81295SOL    HW145782   1.665   7.521   1.367
81295SOL    HW245783   1.521   7.529   1.323
81296SOL     OW45784  11.849  11.029  12.516
81296SOL    HW145785  11.900  10.948  12.531
81296SOL    HW245786  11.907  11.099  12.547
81297SOL     OW45787  13.794   5.878  13.817
81297SOL    HW145788  13.779   5.783  13.824
81297SOL    HW245789  13.729   5.917  13.875
81298SOL     OW45790   9.403   0.024   0.611
81298SOL    HW145791   9.327   0.005   0.555
81298SOL    HW245792   9.414   0.119   0.605
81299SOL     OW45793  11.768   8.245  14.055
81299SOL    HW145794  11.759   8.339  14.039
81299SOL    HW245795  11.858   8.234  14.084
81300SOL     OW45796   9.599  11.910   0.192
81300SOL    HW145797   9.534  11.842   0.177
81300SOL    HW245798   9.596  11.927   0.286
81301SOL     OW45799   5.398  12.603   1.995
81301SOL    HW145800   5.306  12.621   2.014
81301SOL    HW245801   5.396  12.538   1.924
81302SOL     OW45802   9.267   4.859   1.310
81302SOL    HW145803   9.219   4.777   1.315
81302SOL    HW245804   9.202   4.927   1.329
81303SOL     OW45805  11.114  13.775   5.250
81303SOL    HW145806  11.056  13.780   5.326
81303SOL    HW245807  11.103  13.685   5.217
81304SOL     OW45808  13.596   9.736   4.297
81304SOL    HW145809  13.585   9.672   4.367
81304SOL    HW245810  13.659   9.696   4.237
81305SOL     OW45811   0.088   8.008  13.325
81305SOL    HW145812  14.870   8.006  13.324
81305SOL    HW245813   0.113   8.036  13.236
81306SOL     OW45814   6.467   6.942   7.966
81306SOL    HW145815   6.399   6.952   8.033
81306SOL    HW245816   6.426   6.889   7.898
81307SOL     OW45817   3.295  10.322   3.832
81307SOL    HW145818   3.270  10.250   3.774
81307SOL    HW245819   3.345  10.280   3.902
81308SOL     OW45820   3.445   9.330  10.931
81308SOL    HW145821   3.465   9.247  10.889
81308SOL    HW245822   3.522   9.385  10.913
81309SOL     OW45823   8.559  13.675  10.516
81309SOL    HW145824   8.605  13.703  10.437
81309SOL    HW245825   8.550  13.755  10.569
81310SOL     OW45826   3.544  10.979  13.181
81310SOL    HW145827   3.467  11.027  13.212
81310SOL    HW245828   3.587  11.040  13.121
81311SOL     OW45829   2.034  12.884  14.844
81311SOL    HW145830   2.086  12.915   0.040
81311SOL    HW245831   2.071  12.798  14.823
81312SOL     OW45832   7.724   6.081   3.432
81312SOL    HW145833   7.791   6.041   3.487
81312SOL    HW245834   7.743   6.048   3.344
81313SOL     OW45835  14.622   9.019   2.165
81313SOL    HW145836  14.572   9.063   2.096
81313SOL    HW245837  14.695   9.078   2.183
81314SOL     OW45838   4.218  10.979   2.072
81314SOL    HW145839   4.303  10.935   2.080
81314SOL    HW245840   4.156  10.910   2.050
81315SOL     OW45841  11.746   7.874   8.134
81315SOL    HW145842  11.764   7.959   8.094
81315SOL    HW245843  11.652   7.861   8.124
81316SOL     OW45844   1.125  11.810  13.686
81316SOL    HW145845   1.187  11.883  13.688
81316SOL    HW245846   1.043  11.849  13.657
81317SOL     OW45847  10.223  13.263  14.136
81317SOL    HW145848  10.278  13.341  14.131
81317SOL    HW245849  10.286  13.190  14.141
81318SOL     OW45850  14.277   6.991   3.342
81318SOL    HW145851  14.325   6.937   3.405
81318SOL    HW245852  14.340   7.059   3.318
81319SOL     OW45853  13.116   5.034  12.067
81319SOL    HW145854  13.037   5.028  12.014
81319SOL    HW245855  13.187   5.012  12.007
81320SOL     OW45856  12.483  14.264   8.642
81320SOL    HW145857  12.479  14.169   8.641
81320SOL    HW245858  12.472  14.288   8.734
81321SOL     OW45859   2.429   9.472   0.317
81321SOL    HW145860   2.376   9.531   0.372
81321SOL    HW245861   2.367   9.441   0.250
81322SOL     OW45862   4.749   6.266  13.626
81322SOL    HW145863   4.782   6.332  13.564
81322SOL    HW245864   4.821   6.255  13.689
81323SOL     OW45865  10.231   0.570   1.137
81323SOL    HW145866  10.204   0.624   1.211
81323SOL    HW245867  10.233   0.630   1.063
81324SOL     OW45868   3.642   8.192  13.244
81324SOL    HW145869   3.563   8.184  13.189
81324SOL    HW245870   3.626   8.132  13.317
81325SOL     OW45871   8.412   6.013   2.835
81325SOL    HW145872   8.454   5.938   2.794
81325SOL    HW245873   8.482   6.057   2.883
81326SOL     OW45874  11.447   8.322   7.989
81326SOL    HW145875  11.427   8.410   8.019
81326SOL    HW245876  11.399   8.313   7.907
81327SOL     OW45877  11.581   7.832  10.978
81327SOL    HW145878  11.641   7.845  11.051
81327SOL    HW245879  11.509   7.780  11.015
81328SOL     OW45880   9.953  13.190   9.171
81328SOL    HW145881  10.020  13.145   9.221
81328SOL    HW245882   9.976  13.283   9.178
81329SOL     OW45883  10.587  14.763   4.042
81329SOL    HW145884  10.603  14.669   4.034
81329SOL    HW245885  10.668  14.805   4.013
81330SOL     OW45886   5.841   4.589   7.064
81330SOL    HW145887   5.913   4.566   7.123
81330SOL    HW245888   5.883   4.604   6.980
81331SOL     OW45889   0.546   1.249   9.035
81331SOL    HW145890   0.537   1.185   8.965
81331SOL    HW245891   0.573   1.330   8.991
81332SOL     OW45892  11.362  10.370   1.124
81332SOL    HW145893  11.337  10.293   1.175
81332SOL    HW245894  11.303  10.369   1.048
81333SOL     OW45895   8.395   5.790   0.247
81333SOL    HW145896   8.412   5.703   0.209
81333SOL    HW245897   8.477   5.814   0.290
81334SOL     OW45898  13.330   9.561   6.082
81334SOL    HW145899  13.369   9.503   6.147
81334SOL    HW245900  13.397   9.626   6.065
81335SOL     OW45901   6.450  11.217   6.310
81335SOL    HW145902   6.517  11.276   6.274
81335SOL    HW245903   6.482  11.129   6.290
81336SOL     OW45904  11.688   8.908   8.285
81336SOL    HW145905  11.729   8.822   8.286
81336SOL    HW245906  11.741   8.959   8.223
81337SOL     OW45907   7.227   8.621   3.812
81337SOL    HW145908   7.310   8.574   3.801
81337SOL    HW245909   7.244   8.709   3.781
81338SOL     OW45910   4.160   0.700   5.502
81338SOL    HW145911   4.127   0.781   5.540
81338SOL    HW245912   4.093   0.674   5.438
81339SOL     OW45913  11.665  10.854   7.209
81339SOL    HW145914  11.656  10.783   7.145
81339SOL    HW245915  11.750  10.893   7.189
81340SOL     OW45916  13.017   4.388  11.066
81340SOL    HW145917  12.924   4.394  11.047
81340SOL    HW245918  13.053   4.333  10.996
81341SOL     OW45919  10.012   1.709   4.776
81341SOL    HW145920   9.962   1.690   4.856
81341SOL    HW245921   9.947   1.739   4.713
81342SOL     OW45922   5.909  14.172  10.714
81342SOL    HW145923   5.881  14.111  10.782
81342SOL    HW245924   5.976  14.226  10.756
81343SOL     OW45925   1.200   8.707   3.958
81343SOL    HW145926   1.132   8.684   4.021
81343SOL    HW245927   1.158   8.701   3.873
81344SOL     OW45928  13.189   4.952   1.028
81344SOL    HW145929  13.187   4.932   0.935
81344SOL    HW245930  13.194   4.867   1.071
81345SOL     OW45931   6.349   8.967   8.534
81345SOL    HW145932   6.436   8.929   8.519
81345SOL    HW245933   6.316   8.922   8.612
81346SOL     OW45934   3.047  10.630   3.432
81346SOL    HW145935   3.107  10.683   3.485
81346SOL    HW245936   3.054  10.667   3.344
81347SOL     OW45937   8.397   6.470   7.869
81347SOL    HW145938   8.399   6.565   7.857
81347SOL    HW245939   8.390   6.457   7.964
81348SOL     OW45940   5.685   5.838  14.027
81348SOL    HW145941   5.715   5.750  14.007
81348SOL    HW245942   5.717   5.855  14.116
81349SOL     OW45943   1.404  10.965   1.289
81349SOL    HW145944   1.355  11.048   1.290
81349SOL    HW245945   1.487  10.986   1.332
81350SOL     OW45946   4.807  12.878   5.710
81350SOL    HW145947   4.745  12.941   5.674
81350SOL    HW245948   4.754  12.801   5.731
81351SOL     OW45949  14.753   1.967   8.769
81351SOL    HW145950  14.718   1.883   8.741
81351SOL    HW245951  14.823   1.986   8.706
81352SOL     OW45952   8.212   4.049   7.442
81352SOL    HW145953   8.236   4.059   7.534
81352SOL    HW245954   8.256   4.121   7.398
81353SOL     OW45955  13.470   7.708   1.108
81353SOL    HW145956  13.471   7.637   1.172
81353SOL    HW245957  13.385   7.750   1.120
81354SOL     OW45958  11.478   7.622  12.137
81354SOL    HW145959  11.558   7.674  12.122
81354SOL    HW245960  11.408   7.677  12.101
81355SOL     OW45961   7.282   8.158   3.439
81355SOL    HW145962   7.305   8.073   3.476
81355SOL    HW245963   7.319   8.156   3.350
81356SOL     OW45964  14.370  11.639   6.798
81356SOL    HW145965  14.316  11.561   6.788
81356SOL    HW245966  14.394  11.663   6.708
81357SOL     OW45967   1.620  14.031  10.780
81357SOL    HW145968   1.636  13.937  10.785
81357SOL    HW245969   1.655  14.066  10.863
81358SOL     OW45970   6.285  10.839   3.041
81358SOL    HW145971   6.295  10.748   3.016
81358SOL    HW245972   6.341  10.887   2.980
81359SOL     OW45973   5.771   4.663  12.565
81359SOL    HW145974   5.686   4.657  12.610
81359SOL    HW245975   5.748   4.673  12.473
81360SOL     OW45976   4.313   5.383  10.785
81360SOL    HW145977   4.222   5.410  10.778
81360SOL    HW245978   4.360   5.465  10.803
81361SOL     OW45979   4.996   0.247   6.138
81361SOL    HW145980   4.916   0.205   6.105
81361SOL    HW245981   5.050   0.174   6.169
81362SOL     OW45982   0.198   8.566   3.946
81362SOL    HW145983   0.262   8.537   3.881
81362SOL    HW245984   0.144   8.488   3.962
81363SOL     OW45985  13.296   0.565   5.868
81363SOL    HW145986  13.211   0.521   5.874
81363SOL    HW245987  13.293   0.631   5.936
81364SOL     OW45988   7.996   7.709   1.663
81364SOL    HW145989   8.068   7.728   1.603
81364SOL    HW245990   8.029   7.639   1.720
81365SOL     OW45991  12.199   2.263   5.742
81365SOL    HW145992  12.213   2.236   5.651
81365SOL    HW245993  12.167   2.353   5.735
81366SOL     OW45994   4.895   8.105   3.794
81366SOL    HW145995   4.965   8.170   3.794
81366SOL    HW245996   4.867   8.099   3.886
81367SOL     OW45997   9.983   3.493  14.304
81367SOL    HW145998   9.922   3.458  14.240
81367SOL    HW245999  10.027   3.416  14.340
81368SOL     OW46000   9.179  10.248  13.635
81368SOL    HW146001   9.105  10.281  13.685
81368SOL    HW246002   9.140  10.194  13.566
81369SOL     OW46003   6.513   3.057   5.074
81369SOL    HW146004   6.596   3.024   5.039
81369SOL    HW246005   6.531   3.148   5.097
81370SOL     OW46006   1.433   7.359   2.108
81370SOL    HW146007   1.489   7.372   2.032
81370SOL    HW246008   1.493   7.355   2.182
81371SOL     OW46009   0.910  14.017   2.163
81371SOL    HW146010   0.818  14.015   2.189
81371SOL    HW246011   0.925  13.932   2.122
81372SOL     OW46012  14.628  14.426   0.034
81372SOL    HW146013  14.648  14.493  14.846
81372SOL    HW246014  14.570  14.365  14.867
81373SOL     OW46015   3.899   5.154   9.121
81373SOL    HW146016   3.949   5.096   9.179
81373SOL    HW246017   3.824   5.102   9.094
81374SOL     OW46018   0.535   4.932  14.077
81374SOL    HW146019   0.496   4.921  13.990
81374SOL    HW246020   0.604   4.866  14.080
81375SOL     OW46021  14.367   4.758   6.981
81375SOL    HW146022  14.330   4.678   7.019
81375SOL    HW246023  14.392   4.732   6.892
81376SOL     OW46024   1.925  10.010  14.019
81376SOL    HW146025   1.872   9.931  14.024
81376SOL    HW246026   1.982   9.997  13.944
81377SOL     OW46027   8.343   4.306  11.188
81377SOL    HW146028   8.258   4.270  11.214
81377SOL    HW246029   8.326   4.349  11.105
81378SOL     OW46030   8.610   4.894  13.656
81378SOL    HW146031   8.577   4.882  13.745
81378SOL    HW246032   8.627   4.805  13.625
81379SOL     OW46033   3.627   3.887   5.967
81379SOL    HW146034   3.550   3.829   5.970
81379SOL    HW246035   3.701   3.827   5.973
81380SOL     OW46036   4.196   6.319   4.779
81380SOL    HW146037   4.200   6.382   4.706
81380SOL    HW246038   4.119   6.346   4.830
81381SOL     OW46039   8.073  12.067   5.826
81381SOL    HW146040   7.979  12.080   5.832
81381SOL    HW246041   8.111  12.135   5.882
81382SOL     OW46042   5.418   3.051   3.880
81382SOL    HW146043   5.507   3.039   3.913
81382SOL    HW246044   5.367   3.074   3.957
81383SOL     OW46045   8.277   5.404   7.011
81383SOL    HW146046   8.362   5.383   7.049
81383SOL    HW246047   8.217   5.340   7.049
81384SOL     OW46048   6.868   2.253   4.465
81384SOL    HW146049   6.904   2.268   4.553
81384SOL    HW246050   6.797   2.317   4.457
81385SOL     OW46051   7.169  10.843   7.683
81385SOL    HW146052   7.160  10.936   7.661
81385SOL    HW246053   7.224  10.843   7.762
81386SOL     OW46054  12.042  12.970   4.393
81386SOL    HW146055  12.028  12.942   4.484
81386SOL    HW246056  11.968  12.934   4.345
81387SOL     OW46057  13.541  11.709  10.021
81387SOL    HW146058  13.619  11.660   9.993
81387SOL    HW246059  13.561  11.737  10.110
81388SOL     OW46060   2.535   8.769   9.609
81388SOL    HW146061   2.564   8.784   9.519
81388SOL    HW246062   2.465   8.704   9.601
81389SOL     OW46063   9.428   7.306  13.643
81389SOL    HW146064   9.425   7.322  13.548
81389SOL    HW246065   9.346   7.343  13.676
81390SOL     OW46066   8.603  14.688  13.423
81390SOL    HW146067   8.538  14.691  13.494
81390SOL    HW246068   8.686  14.673  13.467
81391SOL     OW46069   5.075   5.948   2.891
81391SOL    HW146070   5.005   5.887   2.913
81391SOL    HW246071   5.154   5.894   2.887
81392SOL     OW46072   4.682   0.253  11.629
81392SOL    HW146073   4.674   0.215  11.717
81392SOL    HW246074   4.658   0.345  11.641
81393SOL     OW46075   2.754   6.032   4.351
81393SOL    HW146076   2.816   6.085   4.302
81393SOL    HW246077   2.803   5.999   4.426
81394SOL     OW46078   2.759  11.168   1.956
81394SOL    HW146079   2.679  11.133   1.997
81394SOL    HW246080   2.733  11.255   1.926
81395SOL     OW46081   5.604   4.048   5.894
81395SOL    HW146082   5.589   4.143   5.890
81395SOL    HW246083   5.527   4.010   5.853
81396SOL     OW46084   7.653  13.725   9.901
81396SOL    HW146085   7.622  13.812   9.877
81396SOL    HW246086   7.662  13.679   9.818
81397SOL     OW46087  10.245   7.087   0.683
81397SOL    HW146088  10.183   7.121   0.748
81397SOL    HW246089  10.325   7.070   0.732
81398SOL     OW46090   1.030  14.172   2.567
81398SOL    HW146091   1.065  14.115   2.498
81398SOL    HW246092   0.996  14.112   2.633
81399SOL     OW46093   6.709  10.605  14.481
81399SOL    HW146094   6.801  10.620  14.502
81399SOL    HW246095   6.701  10.510  14.472
81400SOL     OW46096   1.317  11.986  11.221
81400SOL    HW146097   1.345  12.020  11.136
81400SOL    HW246098   1.257  11.914  11.200
81401SOL     OW46099   4.819   8.239   0.132
81401SOL    HW146100   4.891   8.297   0.107
81401SOL    HW246101   4.784   8.207   0.049
81402SOL     OW46102  11.135   3.708  12.985
81402SOL    HW146103  11.056   3.699  12.932
81402SOL    HW246104  11.117   3.783  13.042
81403SOL     OW46105  14.077  10.711   9.280
81403SOL    HW146106  14.031  10.640   9.236
81403SOL    HW246107  14.169  10.683   9.280
81404SOL     OW46108   9.525   8.560   4.997
81404SOL    HW146109   9.588   8.488   5.003
81404SOL    HW246110   9.486   8.565   5.084
81405SOL     OW46111   5.666  12.439   6.874
81405SOL    HW146112   5.604  12.432   6.946
81405SOL    HW246113   5.671  12.533   6.856
81406SOL     OW46114   5.433   8.179   7.592
81406SOL    HW146115   5.374   8.246   7.558
81406SOL    HW246116   5.461   8.129   7.515
81407SOL     OW46117   5.050  11.166  11.064
81407SOL    HW146118   5.080  11.095  11.120
81407SOL    HW246119   5.109  11.163  10.988
81408SOL     OW46120  10.516  12.164  10.662
81408SOL    HW146121  10.549  12.122  10.583
81408SOL    HW246122  10.574  12.239  10.676
81409SOL     OW46123   7.795   5.698  12.915
81409SOL    HW146124   7.810   5.629  12.979
81409SOL    HW246125   7.797   5.779  12.967
81410SOL     OW46126   2.145   3.018   6.597
81410SOL    HW146127   2.224   2.977   6.630
81410SOL    HW246128   2.174   3.101   6.560
81411SOL     OW46129  13.518   7.766  10.807
81411SOL    HW146130  13.433   7.810  10.797
81411SOL    HW246131  13.552   7.759  10.717
81412SOL     OW46132  14.364   4.441   8.459
81412SOL    HW146133  14.421   4.382   8.509
81412SOL    HW246134  14.353   4.397   8.375
81413SOL     OW46135   1.877   3.036   6.670
81413SOL    HW146136   1.851   2.959   6.721
81413SOL    HW246137   1.967   3.017   6.642
81414SOL     OW46138  10.117  10.759  10.140
81414SOL    HW146139  10.037  10.743  10.191
81414SOL    HW246140  10.086  10.803  10.061
81415SOL     OW46141   3.713   4.831   8.333
81415SOL    HW146142   3.661   4.774   8.276
81415SOL    HW246143   3.758   4.890   8.272
81416SOL     OW46144   7.608  10.191   3.070
81416SOL    HW146145   7.695  10.161   3.045
81416SOL    HW246146   7.549  10.122   3.038
81417SOL     OW46147   8.610   5.743   1.640
81417SOL    HW146148   8.561   5.736   1.722
81417SOL    HW246149   8.680   5.679   1.649
81418SOL     OW46150   5.798  14.612   9.145
81418SOL    HW146151   5.794  14.708   9.145
81418SOL    HW246152   5.890  14.592   9.132
81419SOL     OW46153   5.110   5.547   8.746
81419SOL    HW146154   5.036   5.486   8.749
81419SOL    HW246155   5.168   5.519   8.816
81420SOL     OW46156   2.627  11.742   4.958
81420SOL    HW146157   2.653  11.826   4.998
81420SOL    HW246158   2.707  11.689   4.960
81421SOL     OW46159  12.303  11.500   0.843
81421SOL    HW146160  12.289  11.444   0.767
81421SOL    HW246161  12.214  11.522   0.873
81422SOL     OW46162   0.071   9.516   2.439
81422SOL    HW146163  14.871   9.554   2.481
81422SOL    HW246164   0.057   9.421   2.445
81423SOL     OW46165  13.551   6.011   0.799
81423SOL    HW146166  13.512   5.971   0.877
81423SOL    HW246167  13.646   6.003   0.813
81424SOL     OW46168  13.649   1.387   3.241
81424SOL    HW146169  13.691   1.427   3.165
81424SOL    HW246170  13.709   1.319   3.270
81425SOL     OW46171  11.588  11.271   0.609
81425SOL    HW146172  11.659  11.279   0.672
81425SOL    HW246173  11.527  11.208   0.649
81426SOL     OW46174  13.257   4.736   6.873
81426SOL    HW146175  13.232   4.687   6.951
81426SOL    HW246176  13.189   4.803   6.863
81427SOL     OW46177   6.739   9.977   0.892
81427SOL    HW146178   6.779   9.934   0.816
81427SOL    HW246179   6.647   9.988   0.867
81428SOL     OW46180   3.408  11.950  13.456
81428SOL    HW146181   3.439  11.883  13.517
81428SOL    HW246182   3.488  11.983  13.413
81429SOL     OW46183  12.714   8.538   4.571
81429SOL    HW146184  12.715   8.628   4.603
81429SOL    HW246185  12.782   8.494   4.623
81430SOL     OW46186   6.262  14.820   2.451
81430SOL    HW146187   6.205  14.832   2.375
81430SOL    HW246188   6.236   0.011   2.512
81431SOL     OW46189  10.755   6.940   9.375
81431SOL    HW146190  10.800   6.880   9.315
81431SOL    HW246191  10.698   6.992   9.319
81432SOL     OW46192   7.112   1.602   3.284
81432SOL    HW146193   7.166   1.602   3.363
81432SOL    HW246194   7.022   1.592   3.317
81433SOL     OW46195   8.664   9.451  12.633
81433SOL    HW146196   8.699   9.363  12.644
81433SOL    HW246197   8.598   9.443  12.564
81434SOL     OW46198   8.434   8.659   6.400
81434SOL    HW146199   8.469   8.711   6.327
81434SOL    HW246200   8.374   8.718   6.445
81435SOL     OW46201   1.174   7.177   1.359
81435SOL    HW146202   1.167   7.112   1.289
81435SOL    HW246203   1.163   7.261   1.314
81436SOL     OW46204  12.327  11.174   3.738
81436SOL    HW146205  12.328  11.262   3.776
81436SOL    HW246206  12.320  11.115   3.813
81437SOL     OW46207   0.851   5.524  11.580
81437SOL    HW146208   0.897   5.443  11.561
81437SOL    HW246209   0.880   5.548  11.668
81438SOL     OW46210   3.149  14.642   2.923
81438SOL    HW146211   3.153  14.561   2.872
81438SOL    HW246212   3.186  14.618   3.008
81439SOL     OW46213   2.508   4.316   9.809
81439SOL    HW146214   2.597   4.314   9.844
81439SOL    HW246215   2.468   4.236   9.843
81440SOL     OW46216  10.345   8.959   0.088
81440SOL    HW146217  10.300   8.989   0.167
81440SOL    HW246218  10.291   8.991   0.016
81441SOL     OW46219  14.436   3.966  13.353
81441SOL    HW146220  14.416   3.920  13.271
81441SOL    HW246221  14.449   4.057  13.326
81442SOL     OW46222   9.093  14.398   4.420
81442SOL    HW146223   9.188  14.393   4.430
81442SOL    HW246224   9.080  14.468   4.355
81443SOL     OW46225   5.827   6.531   0.431
81443SOL    HW146226   5.783   6.548   0.347
81443SOL    HW246227   5.874   6.612   0.451
81444SOL     OW46228   0.789   8.591   9.017
81444SOL    HW146229   0.727   8.647   8.971
81444SOL    HW246230   0.736   8.541   9.079
81445SOL     OW46231   7.996   7.406   9.819
81445SOL    HW146232   8.023   7.391   9.910
81445SOL    HW246233   7.950   7.490   9.821
81446SOL     OW46234   9.391  14.854   6.004
81446SOL    HW146235   9.469  14.808   6.035
81446SOL    HW246236   9.343  14.876   6.084
81447SOL     OW46237   0.770  13.848  11.774
81447SOL    HW146238   0.783  13.764  11.728
81447SOL    HW246239   0.675  13.855  11.784
81448SOL     OW46240   6.816   1.799  13.594
81448SOL    HW146241   6.816   1.883  13.640
81448SOL    HW246242   6.900   1.759  13.616
81449SOL     OW46243   9.756  12.022   8.477
81449SOL    HW146244   9.720  11.954   8.420
81449SOL    HW246245   9.810  12.076   8.420
81450SOL     OW46246   1.489   6.683   7.802
81450SOL    HW146247   1.401   6.646   7.791
81450SOL    HW246248   1.479   6.746   7.873
81451SOL     OW46249  11.902  13.783  13.150
81451SOL    HW146250  11.984  13.831  13.158
81451SOL    HW246251  11.836  13.841  13.187
81452SOL     OW46252   1.691  13.501   4.960
81452SOL    HW146253   1.716  13.592   4.979
81452SOL    HW246254   1.636  13.476   5.033
81453SOL     OW46255   1.249   3.111   6.723
81453SOL    HW146256   1.239   3.068   6.638
81453SOL    HW246257   1.296   3.192   6.704
81454SOL     OW46258   3.069   3.926   5.477
81454SOL    HW146259   3.084   3.872   5.554
81454SOL    HW246260   3.132   3.895   5.412
81455SOL     OW46261   4.856   1.314   3.697
81455SOL    HW146262   4.772   1.286   3.661
81455SOL    HW246263   4.888   1.237   3.745
81456SOL     OW46264   6.503   2.066   0.831
81456SOL    HW146265   6.457   2.100   0.907
81456SOL    HW246266   6.539   1.982   0.860
81457SOL     OW46267   5.217   5.529   8.509
81457SOL    HW146268   5.175   5.540   8.594
81457SOL    HW246269   5.239   5.618   8.482
81458SOL     OW46270   2.955  14.443   0.563
81458SOL    HW146271   2.960  14.520   0.620
81458SOL    HW246272   2.891  14.467   0.496
81459SOL     OW46273   8.947   3.817   0.218
81459SOL    HW146274   8.948   3.873   0.140
81459SOL    HW246275   8.993   3.868   0.284
81460SOL     OW46276   4.943   7.463   8.020
81460SOL    HW146277   4.964   7.504   8.104
81460SOL    HW246278   5.017   7.404   8.003
81461SOL     OW46279   3.020   1.445   0.202
81461SOL    HW146280   3.027   1.468   0.109
81461SOL    HW246281   3.043   1.525   0.248
81462SOL     OW46282  10.267  13.149   6.895
81462SOL    HW146283  10.197  13.098   6.935
81462SOL    HW246284  10.312  13.088   6.837
81463SOL     OW46285  13.019  14.480   4.345
81463SOL    HW146286  12.943  14.497   4.291
81463SOL    HW246287  13.056  14.567   4.363
81464SOL     OW46288   6.124  13.690   6.622
81464SOL    HW146289   6.192  13.643   6.670
81464SOL    HW246290   6.124  13.650   6.535
81465SOL     OW46291  14.849   6.642  11.320
81465SOL    HW146292   0.023   6.721  11.308
81465SOL    HW246293   0.033   6.578  11.356
81466SOL     OW46294   5.728  11.336   3.646
81466SOL    HW146295   5.650  11.314   3.596
81466SOL    HW246296   5.730  11.272   3.717
81467SOL     OW46297   2.229   8.262   9.359
81467SOL    HW146298   2.294   8.325   9.393
81467SOL    HW246299   2.277   8.212   9.293
81468SOL     OW46300  11.113   0.828  11.883
81468SOL    HW146301  11.183   0.850  11.821
81468SOL    HW246302  11.033   0.831  11.830
81469SOL     OW46303   9.852   6.501   6.220
81469SOL    HW146304   9.794   6.503   6.144
81469SOL    HW246305   9.937   6.474   6.184
81470SOL     OW46306  11.448   0.480  13.510
81470SOL    HW146307  11.410   0.547  13.567
81470SOL    HW246308  11.541   0.482  13.530
81471SOL     OW46309  10.450   8.574   8.138
81471SOL    HW146310  10.378   8.512   8.151
81471SOL    HW246311  10.412   8.660   8.158
81472SOL     OW46312   7.656   5.802   4.670
81472SOL    HW146313   7.666   5.884   4.718
81472SOL    HW246314   7.672   5.734   4.735
81473SOL     OW46315   0.762   0.255   3.853
81473SOL    HW146316   0.691   0.297   3.901
81473SOL    HW246317   0.721   0.179   3.811
81474SOL     OW46318   9.935   0.747   6.028
81474SOL    HW146319   9.952   0.780   5.940
81474SOL    HW246320   9.893   0.820   6.073
81475SOL     OW46321   5.438  13.712   6.138
81475SOL    HW146322   5.518  13.707   6.085
81475SOL    HW246323   5.456  13.780   6.202
81476SOL     OW46324   2.775   7.962   0.814
81476SOL    HW146325   2.868   7.980   0.804
81476SOL    HW246326   2.769   7.867   0.815
81477SOL     OW46327   3.275   0.203  12.436
81477SOL    HW146328   3.326   0.242  12.365
81477SOL    HW246329   3.340   0.153  12.486
81478SOL     OW46330   7.652   3.683  13.085
81478SOL    HW146331   7.709   3.736  13.140
81478SOL    HW246332   7.707   3.609  13.057
81479SOL     OW46333   8.379   2.170   2.519
81479SOL    HW146334   8.443   2.193   2.451
81479SOL    HW246335   8.431   2.128   2.588
81480SOL     OW46336   2.932  12.378  10.543
81480SOL    HW146337   2.900  12.290  10.520
81480SOL    HW246338   2.852  12.427  10.564
81481SOL     OW46339   3.604   8.246  11.517
81481SOL    HW146340   3.690   8.219  11.547
81481SOL    HW246341   3.546   8.229  11.592
81482SOL     OW46342   1.189   2.050   7.944
81482SOL    HW146343   1.275   2.008   7.940
81482SOL    HW246344   1.208   2.144   7.940
81483SOL     OW46345   2.684  10.100  13.703
81483SOL    HW146346   2.684  10.179  13.757
81483SOL    HW246347   2.751  10.044  13.741
81484SOL     OW46348   3.964   0.821   5.831
81484SOL    HW146349   3.905   0.873   5.886
81484SOL    HW246350   3.936   0.841   5.742
81485SOL     OW46351  11.758   3.522   1.734
81485SOL    HW146352  11.711   3.463   1.793
81485SOL    HW246353  11.844   3.480   1.721
81486SOL     OW46354   8.460  12.277   1.895
81486SOL    HW146355   8.452  12.251   1.803
81486SOL    HW246356   8.529  12.221   1.930
81487SOL     OW46357  11.534   0.279   8.623
81487SOL    HW146358  11.575   0.327   8.551
81487SOL    HW246359  11.492   0.204   8.581
81488SOL     OW46360   6.394   7.652  14.764
81488SOL    HW146361   6.472   7.671  14.816
81488SOL    HW246362   6.342   7.732  14.767
81489SOL     OW46363   1.241   3.957   8.908
81489SOL    HW146364   1.185   3.915   8.843
81489SOL    HW246365   1.261   4.043   8.870
81490SOL     OW46366   9.153   9.043   0.957
81490SOL    HW146367   9.209   9.103   0.909
81490SOL    HW246368   9.212   8.996   1.015
81491SOL     OW46369   4.149   9.442   4.261
81491SOL    HW146370   4.065   9.469   4.223
81491SOL    HW246371   4.211   9.511   4.235
81492SOL     OW46372   0.277  10.430   2.637
81492SOL    HW146373   0.223  10.351   2.633
81492SOL    HW246374   0.214  10.502   2.636
81493SOL     OW46375   8.645   2.081   3.837
81493SOL    HW146376   8.563   2.060   3.882
81493SOL    HW246377   8.713   2.051   3.897
81494SOL     OW46378   9.568  14.870   7.835
81494SOL    HW146379   9.478  14.869   7.803
81494SOL    HW246380   9.602   0.078   7.810
81495SOL     OW46381   2.140   6.201   2.578
81495SOL    HW146382   2.156   6.179   2.486
81495SOL    HW246383   2.222   6.239   2.609
81496SOL     OW46384  13.374  14.379   5.377
81496SOL    HW146385  13.428  14.409   5.451
81496SOL    HW246386  13.285  14.377   5.412
81497SOL     OW46387   2.292   1.817   8.629
81497SOL    HW146388   2.259   1.903   8.604
81497SOL    HW246389   2.327   1.829   8.717
81498SOL     OW46390  12.140   7.704   0.448
81498SOL    HW146391  12.219   7.710   0.502
81498SOL    HW246392  12.068   7.702   0.512
81499SOL     OW46393  11.955  13.403   9.264
81499SOL    HW146394  11.902  13.451   9.200
81499SOL    HW246395  11.900  13.331   9.293
81500SOL     OW46396   1.218  13.458   2.445
81500SOL    HW146397   1.170  13.444   2.527
81500SOL    HW246398   1.200  13.380   2.393
81501SOL     OW46399   6.141   0.694  13.821
81501SOL    HW146400   6.072   0.667  13.760
81501SOL    HW246401   6.146   0.789  13.812
81502SOL     OW46402   9.666   4.091   8.744
81502SOL    HW146403   9.758   4.067   8.730
81502SOL    HW246404   9.648   4.156   8.676
81503SOL     OW46405  10.431   7.676   2.064
81503SOL    HW146406  10.390   7.603   2.110
81503SOL    HW246407  10.363   7.709   2.005
81504SOL     OW46408   0.373   0.635   9.222
81504SOL    HW146409   0.323   0.705   9.179
81504SOL    HW246410   0.311   0.563   9.229
81505SOL     OW46411  11.774  13.714  13.695
81505SOL    HW146412  11.762  13.771  13.771
81505SOL    HW246413  11.791  13.773  13.622
81506SOL     OW46414   3.342  14.494  13.772
81506SOL    HW146415   3.377  14.564  13.826
81506SOL    HW246416   3.247  14.501  13.782
81507SOL     OW46417   3.715  11.903   0.733
81507SOL    HW146418   3.708  11.975   0.796
81507SOL    HW246419   3.758  11.833   0.781
81508SOL     OW46420   2.471  10.997   2.581
81508SOL    HW146421   2.383  10.967   2.558
81508SOL    HW246422   2.462  11.031   2.670
81509SOL     OW46423   7.707  11.220   0.083
81509SOL    HW146424   7.724  11.127   0.092
81509SOL    HW246425   7.615  11.231   0.109
81510SOL     OW46426  12.841  10.611   0.285
81510SOL    HW146427  12.821  10.520   0.264
81510SOL    HW246428  12.897  10.641   0.213
81511SOL     OW46429   3.522   1.385   3.046
81511SOL    HW146430   3.438   1.338   3.049
81511SOL    HW246431   3.536   1.401   2.953
81512SOL     OW46432  14.298  14.063   7.046
81512SOL    HW146433  14.391  14.053   7.065
81512SOL    HW246434  14.287  14.156   7.026
81513SOL     OW46435   3.591   4.887   3.911
81513SOL    HW146436   3.666   4.938   3.881
81513SOL    HW246437   3.572   4.828   3.839
81514SOL     OW46438   3.005   7.922   7.834
81514SOL    HW146439   3.028   8.012   7.857
81514SOL    HW246440   3.089   7.878   7.822
81515SOL     OW46441  13.703   9.731  12.058
81515SOL    HW146442  13.726   9.648  12.016
81515SOL    HW246443  13.612   9.719  12.086
81516SOL     OW46444  10.907  14.240   0.045
81516SOL    HW146445  10.884  14.224  14.832
81516SOL    HW246446  10.991  14.196   0.057
81517SOL     OW46447  13.167   2.011   6.794
81517SOL    HW146448  13.173   1.927   6.749
81517SOL    HW246449  13.121   2.068   6.733
81518SOL     OW46450   8.399   3.250   6.238
81518SOL    HW146451   8.386   3.168   6.286
81518SOL    HW246452   8.328   3.306   6.266
81519SOL     OW46453  12.699   9.660   9.156
81519SOL    HW146454  12.679   9.606   9.079
81519SOL    HW246455  12.791   9.684   9.146
81520SOL     OW46456   0.470   7.392   8.819
81520SOL    HW146457   0.527   7.402   8.895
81520SOL    HW246458   0.472   7.477   8.776
81521SOL     OW46459   7.900  12.747   8.884
81521SOL    HW146460   7.840  12.673   8.875
81521SOL    HW246461   7.884  12.800   8.807
81522SOL     OW46462  13.732   0.882   3.389
81522SOL    HW146463  13.784   0.802   3.394
81522SOL    HW246464  13.682   0.883   3.471
81523SOL     OW46465   5.082   8.315  12.035
81523SOL    HW146466   5.138   8.248  12.072
81523SOL    HW246467   5.107   8.396  12.080
81524SOL     OW46468  11.013  12.484  12.727
81524SOL    HW146469  10.980  12.486  12.817
81524SOL    HW246470  11.012  12.391  12.703
81525SOL     OW46471  14.616  12.500  13.847
81525SOL    HW146472  14.542  12.441  13.863
81525SOL    HW246473  14.655  12.513  13.933
81526SOL     OW46474  13.872   1.485  12.638
81526SOL    HW146475  13.937   1.494  12.568
81526SOL    HW246476  13.920   1.508  12.718
81527SOL     OW46477  13.879   1.857   6.127
81527SOL    HW146478  13.856   1.798   6.199
81527SOL    HW246479  13.951   1.909   6.161
81528SOL     OW46480  14.791  12.263   2.496
81528SOL    HW146481  14.803  12.204   2.422
81528SOL    HW246482  14.785  12.350   2.457
81529SOL     OW46483  12.319   3.592   6.570
81529SOL    HW146484  12.237   3.560   6.609
81529SOL    HW246485  12.377   3.607   6.644
81530SOL     OW46486   7.550   6.716   6.243
81530SOL    HW146487   7.521   6.693   6.155
81530SOL    HW246488   7.639   6.681   6.249
81531SOL     OW46489   1.759   9.366   3.174
81531SOL    HW146490   1.735   9.281   3.138
81531SOL    HW246491   1.808   9.409   3.104
81532SOL     OW46492   2.397   3.369  13.631
81532SOL    HW146493   2.404   3.316  13.551
81532SOL    HW246494   2.486   3.368  13.668
81533SOL     OW46495   5.656   4.757   5.824
81533SOL    HW146496   5.697   4.676   5.855
81533SOL    HW246497   5.619   4.734   5.739
81534SOL     OW46498  14.477   3.088  11.689
81534SOL    HW146499  14.384   3.096  11.668
81534SOL    HW246500  14.522   3.138  11.620
81535SOL     OW46501   5.918  10.339   3.364
81535SOL    HW146502   5.874  10.277   3.422
81535SOL    HW246503   5.938  10.288   3.285
81536SOL     OW46504   8.981   7.121   0.059
81536SOL    HW146505   9.022   7.148  14.854
81536SOL    HW246506   8.899   7.171   0.063
81537SOL     OW46507   2.114  10.379   6.552
81537SOL    HW146508   2.047  10.430   6.506
81537SOL    HW246509   2.085  10.288   6.543
81538SOL     OW46510   7.173  14.147   5.925
81538SOL    HW146511   7.102  14.090   5.894
81538SOL    HW246512   7.173  14.220   5.863
81539SOL     OW46513   9.847   1.136  12.640
81539SOL    HW146514   9.927   1.129  12.587
81539SOL    HW246515   9.781   1.089  12.590
81540SOL     OW46516   8.890   7.803   3.129
81540SOL    HW146517   8.829   7.872   3.101
81540SOL    HW246518   8.860   7.725   3.083
81541SOL     OW46519   7.366  14.774   8.629
81541SOL    HW146520   7.427  14.731   8.569
81541SOL    HW246521   7.311  14.829   8.573
81542SOL     OW46522   6.246   7.454   7.158
81542SOL    HW146523   6.323   7.409   7.193
81542SOL    HW246524   6.178   7.436   7.222
81543SOL     OW46525  10.870   2.221   2.136
81543SOL    HW146526  10.839   2.152   2.194
81543SOL    HW246527  10.833   2.302   2.172
81544SOL     OW46528   1.331   4.002  14.679
81544SOL    HW146529   1.416   3.961  14.662
81544SOL    HW246530   1.339   4.089  14.641
81545SOL     OW46531   7.877  11.005  10.665
81545SOL    HW146532   7.928  11.038  10.591
81545SOL    HW246533   7.818  10.940  10.627
81546SOL     OW46534   5.369   7.676   1.055
81546SOL    HW146535   5.298   7.737   1.075
81546SOL    HW246536   5.373   7.619   1.132
81547SOL     OW46537   9.270   4.547  14.014
81547SOL    HW146538   9.200   4.524  14.074
81547SOL    HW246539   9.226   4.579  13.936
81548SOL     OW46540   7.849   7.594   5.625
81548SOL    HW146541   7.847   7.672   5.680
81548SOL    HW246542   7.936   7.557   5.638
81549SOL     OW46543  12.955  14.847   1.906
81549SOL    HW146544  12.915   0.045   1.950
81549SOL    HW246545  12.880  14.798   1.871
81550SOL     OW46546  12.589  14.634   2.013
81550SOL    HW146547  12.669  14.644   1.960
81550SOL    HW246548  12.600  14.551   2.058
81551SOL     OW46549   6.462   8.139  14.238
81551SOL    HW146550   6.379   8.182  14.259
81551SOL    HW246551   6.449   8.104  14.150
81552SOL     OW46552   4.288   6.556   5.466
81552SOL    HW146553   4.362   6.542   5.526
81552SOL    HW246554   4.214   6.575   5.524
81553SOL     OW46555  14.853  12.778   8.715
81553SOL    HW146556  14.872  12.872   8.710
81553SOL    HW246557  14.838  12.762   8.807
81554SOL     OW46558   7.387   9.710   3.088
81554SOL    HW146559   7.313   9.689   3.030
81554SOL    HW246560   7.359   9.679   3.174
81555SOL     OW46561   3.348   4.394  14.182
81555SOL    HW146562   3.374   4.320  14.238
81555SOL    HW246563   3.417   4.459  14.194
81556SOL     OW46564   5.762   0.898   9.174
81556SOL    HW146565   5.734   0.817   9.216
81556SOL    HW246566   5.722   0.896   9.087
81557SOL     OW46567  11.092   2.419  11.359
81557SOL    HW146568  11.114   2.359  11.431
81557SOL    HW246569  10.998   2.409  11.347
81558SOL     OW46570  14.069   7.617   4.612
81558SOL    HW146571  14.064   7.701   4.657
81558SOL    HW246572  13.980   7.603   4.578
81559SOL     OW46573  12.201  14.219   4.182
81559SOL    HW146574  12.232  14.233   4.092
81559SOL    HW246575  12.257  14.276   4.235
81560SOL     OW46576   5.655   5.585   0.233
81560SOL    HW146577   5.645   5.680   0.243
81560SOL    HW246578   5.679   5.555   0.320
81561SOL     OW46579  14.648  11.264   1.411
81561SOL    HW146580  14.733  11.222   1.418
81561SOL    HW246581  14.668  11.357   1.399
81562SOL     OW46582   2.070  10.847   1.106
81562SOL    HW146583   2.158  10.851   1.070
81562SOL    HW246584   2.051  10.754   1.114
81563SOL     OW46585   3.728   5.600   9.863
81563SOL    HW146586   3.713   5.569   9.774
81563SOL    HW246587   3.696   5.690   9.862
81564SOL     OW46588   5.429   2.573  14.536
81564SOL    HW146589   5.341   2.603  14.559
81564SOL    HW246590   5.437   2.488  14.580
81565SOL     OW46591  12.646   0.463  10.925
81565SOL    HW146592  12.565   0.470  10.976
81565SOL    HW246593  12.617   0.469  10.833
81566SOL     OW46594   4.931   1.686  10.717
81566SOL    HW146595   5.017   1.718  10.745
81566SOL    HW246596   4.874   1.762  10.720
81567SOL     OW46597   5.241   3.573   1.480
81567SOL    HW146598   5.255   3.586   1.386
81567SOL    HW246599   5.328   3.585   1.518
81568SOL     OW46600   3.161   5.102   0.817
81568SOL    HW146601   3.121   5.152   0.746
81568SOL    HW246602   3.222   5.043   0.774
81569SOL     OW46603   0.557  13.434   1.394
81569SOL    HW146604   0.464  13.457   1.394
81569SOL    HW246605   0.595  13.491   1.461
81570SOL     OW46606   0.586   3.863   9.794
81570SOL    HW146607   0.610   3.781   9.751
81570SOL    HW246608   0.670   3.908   9.808
81571SOL     OW46609  13.464   6.070  13.792
81571SOL    HW146610  13.395   6.136  13.787
81571SOL    HW246611  13.455   6.032  13.880
81572SOL     OW46612  10.838  13.676  12.829
81572SOL    HW146613  10.832  13.661  12.735
81572SOL    HW246614  10.762  13.630  12.865
81573SOL     OW46615   8.495  11.487   3.394
81573SOL    HW146616   8.569  11.433   3.423
81573SOL    HW246617   8.500  11.566   3.448
81574SOL     OW46618   3.821   6.474  10.594
81574SOL    HW146619   3.870   6.512  10.520
81574SOL    HW246620   3.737   6.449  10.556
81575SOL     OW46621   5.917   0.886  14.495
81575SOL    HW146622   5.830   0.925  14.509
81575SOL    HW246623   5.927   0.884  14.400
81576SOL     OW46624   7.768   8.394   5.704
81576SOL    HW146625   7.791   8.395   5.611
81576SOL    HW246626   7.681   8.354   5.707
81577SOL     OW46627   7.340   0.958  12.016
81577SOL    HW146628   7.288   1.017  12.071
81577SOL    HW246629   7.405   0.920  12.075
81578SOL     OW46630   7.420  10.851   7.527
81578SOL    HW146631   7.336  10.808   7.542
81578SOL    HW246632   7.400  10.920   7.463
81579SOL     OW46633   7.485  14.220  11.795
81579SOL    HW146634   7.495  14.147  11.856
81579SOL    HW246635   7.443  14.182  11.718
81580SOL     OW46636   5.797   2.539   0.780
81580SOL    HW146637   5.708   2.549   0.815
81580SOL    HW246638   5.804   2.606   0.713
81581SOL     OW46639   3.512  14.579   8.691
81581SOL    HW146640   3.486  14.487   8.694
81581SOL    HW246641   3.507  14.608   8.782
81582SOL     OW46642  13.468   2.323   7.144
81582SOL    HW146643  13.521   2.341   7.067
81582SOL    HW246644  13.495   2.388   7.208
81583SOL     OW46645   8.631   5.735   0.682
81583SOL    HW146646   8.699   5.687   0.636
81583SOL    HW246647   8.678   5.794   0.741
81584SOL     OW46648  14.658   5.202   1.629
81584SOL    HW146649  14.675   5.274   1.568
81584SOL    HW246650  14.571   5.170   1.605
81585SOL     OW46651   9.159  14.181  13.233
81585SOL    HW146652   9.221  14.250  13.259
81585SOL    HW246653   9.183  14.161  13.143
81586SOL     OW46654   2.300  10.600  12.456
81586SOL    HW146655   2.359  10.631  12.525
81586SOL    HW246656   2.214  10.596  12.499
81587SOL     OW46657  12.851   8.805   8.224
81587SOL    HW146658  12.892   8.718   8.226
81587SOL    HW246659  12.925   8.866   8.227
81588SOL     OW46660   1.650   4.103   7.472
81588SOL    HW146661   1.580   4.165   7.491
81588SOL    HW246662   1.713   4.114   7.543
81589SOL     OW46663   2.094   1.342  11.438
81589SOL    HW146664   2.067   1.391  11.360
81589SOL    HW246665   2.108   1.253  11.408
81590SOL     OW46666   8.957   6.981   6.014
81590SOL    HW146667   8.869   7.019   6.013
81590SOL    HW246668   8.947   6.896   6.056
81591SOL     OW46669   1.290   5.840  11.544
81591SOL    HW146670   1.367   5.822  11.489
81591SOL    HW246671   1.248   5.915  11.502
81592SOL     OW46672  11.659  14.224   4.329
81592SOL    HW146673  11.659  14.224   4.425
81592SOL    HW246674  11.750  14.241   4.305
81593SOL     OW46675   4.034  14.138   6.115
81593SOL    HW146676   4.027  14.045   6.096
81593SOL    HW246677   4.123  14.162   6.089
81594SOL     OW46678   4.764   1.319   9.739
81594SOL    HW146679   4.831   1.309   9.807
81594SOL    HW246680   4.714   1.237   9.742
81595SOL     OW46681  13.006   7.009   4.909
81595SOL    HW146682  12.940   7.070   4.942
81595SOL    HW246683  13.078   7.064   4.879
81596SOL     OW46684   0.335   6.671   7.156
81596SOL    HW146685   0.422   6.641   7.130
81596SOL    HW246686   0.282   6.592   7.156
81597SOL     OW46687   4.516  13.776  11.835
81597SOL    HW146688   4.602  13.737  11.850
81597SOL    HW246689   4.476  13.722  11.766
81598SOL     OW46690   0.041   4.044   6.827
81598SOL    HW146691   0.070   3.957   6.800
81598SOL    HW246692  14.846   4.028   6.888
81599SOL     OW46693   8.164   2.493   4.853
81599SOL    HW146694   8.230   2.428   4.876
81599SOL    HW246695   8.108   2.499   4.930
81600SOL     OW46696   1.707  12.769  14.472
81600SOL    HW146697   1.645  12.696  14.475
81600SOL    HW246698   1.699  12.810  14.558
81601SOL     OW46699   5.300   5.656  12.258
81601SOL    HW146700   5.205   5.655  12.250
81601SOL    HW246701   5.318   5.719  12.328
81602SOL     OW46702   4.757   7.768   5.887
81602SOL    HW146703   4.682   7.781   5.946
81602SOL    HW246704   4.811   7.703   5.931
81603SOL     OW46705  11.686   8.897  11.117
81603SOL    HW146706  11.733   8.904  11.200
81603SOL    HW246707  11.610   8.842  11.136
81604SOL     OW46708  14.764  13.526  14.842
81604SOL    HW146709  14.848  13.527  14.794
81604SOL    HW246710  14.709  13.587  14.794
81605SOL     OW46711   4.236   8.660   1.790
81605SOL    HW146712   4.209   8.707   1.869
81605SOL    HW246713   4.331   8.655   1.796
81606SOL     OW46714  11.593   9.093  12.188
81606SOL    HW146715  11.540   9.021  12.220
81606SOL    HW246716  11.662   9.102  12.254
81607SOL     OW46717   9.154   6.050   6.400
81607SOL    HW146718   9.138   5.989   6.328
81607SOL    HW246719   9.070   6.095   6.413
81608SOL     OW46720  10.995  13.882   9.928
81608SOL    HW146721  11.058  13.953   9.913
81608SOL    HW246722  11.038  13.825   9.992
81609SOL     OW46723   3.943   5.050  13.276
81609SOL    HW146724   3.949   5.110  13.351
81609SOL    HW246725   3.872   4.991  13.299
81610SOL     OW46726  11.458  14.546   5.805
81610SOL    HW146727  11.537  14.594   5.828
81610SOL    HW246728  11.482  14.496   5.727
81611SOL     OW46729   8.385  10.502   2.686
81611SOL    HW146730   8.318  10.565   2.661
81611SOL    HW246731   8.412  10.529   2.774
81612SOL     OW46732   9.852   2.740   9.264
81612SOL    HW146733   9.887   2.779   9.343
81612SOL    HW246734   9.843   2.647   9.285
81613SOL     OW46735   5.793  13.753   4.868
81613SOL    HW146736   5.823  13.781   4.782
81613SOL    HW246737   5.867  13.705   4.905
81614SOL     OW46738   7.564   3.370  12.694
81614SOL    HW146739   7.529   3.446  12.646
81614SOL    HW246740   7.639   3.405  12.742
81615SOL     OW46741   1.492   5.131   7.873
81615SOL    HW146742   1.431   5.203   7.891
81615SOL    HW246743   1.543   5.122   7.953
81616SOL     OW46744   3.619   0.845   1.310
81616SOL    HW146745   3.611   0.940   1.318
81616SOL    HW246746   3.712   0.829   1.294
81617SOL     OW46747  11.481   2.411   0.088
81617SOL    HW146748  11.475   2.330   0.137
81617SOL    HW246749  11.432   2.475   0.140
81618SOL     OW46750  12.257   0.014   7.133
81618SOL    HW146751  12.334  14.849   7.096
81618SOL    HW246752  12.292   0.088   7.183
81619SOL     OW46753  14.189   0.930   3.592
81619SOL    HW146754  14.191   0.909   3.499
81619SOL    HW246755  14.096   0.929   3.615
81620SOL     OW46756   0.952   7.858   1.725
81620SOL    HW146757   1.003   7.778   1.734
81620SOL    HW246758   0.876   7.845   1.780
81621SOL     OW46759   4.322   1.984   0.752
81621SOL    HW146760   4.364   2.069   0.767
81621SOL    HW246761   4.395   1.922   0.744
81622SOL     OW46762  14.800   7.477  14.874
81622SOL    HW146763  14.848   7.402  14.839
81622SOL    HW246764  14.770   7.524  14.796
81623SOL     OW46765  13.424  10.445   2.509
81623SOL    HW146766  13.425  10.465   2.603
81623SOL    HW246767  13.510  10.472   2.478
81624SOL     OW46768   8.324  10.918   6.456
81624SOL    HW146769   8.401  10.871   6.489
81624SOL    HW246770   8.296  10.867   6.380
81625SOL     OW46771   7.088   7.602   6.113
81625SOL    HW146772   7.176   7.582   6.081
81625SOL    HW246773   7.103   7.648   6.196
81626SOL     OW46774  14.200   1.451   1.443
81626SOL    HW146775  14.243   1.462   1.528
81626SOL    HW246776  14.217   1.533   1.397
81627SOL     OW46777   2.797   0.657   8.182
81627SOL    HW146778   2.717   0.704   8.208
81627SOL    HW246779   2.772   0.564   8.186
81628SOL     OW46780  11.159   0.036  10.821
81628SOL    HW146781  11.100   0.061  10.892
81628SOL    HW246782  11.130  14.826  10.796
81629SOL     OW46783   6.191   1.294  13.919
81629SOL    HW146784   6.103   1.256  13.910
81629SOL    HW246785   6.182   1.355  13.993
81630SOL     OW46786   4.593   2.652   3.742
81630SOL    HW146787   4.523   2.594   3.712
81630SOL    HW246788   4.670   2.625   3.693
81631SOL     OW46789   1.382  12.565   9.100
81631SOL    HW146790   1.374  12.616   9.019
81631SOL    HW246791   1.301  12.513   9.103
81632SOL     OW46792   4.926   4.471   3.048
81632SOL    HW146793   5.014   4.460   3.013
81632SOL    HW246794   4.939   4.484   3.142
81633SOL     OW46795   0.565  12.498   7.512
81633SOL    HW146796   0.541  12.471   7.601
81633SOL    HW246797   0.613  12.579   7.523
81634SOL     OW46798   4.135   1.166   6.679
81634SOL    HW146799   4.143   1.082   6.723
81634SOL    HW246800   4.224   1.200   6.675
81635SOL     OW46801   4.754   5.539   7.012
81635SOL    HW146802   4.811   5.469   7.043
81635SOL    HW246803   4.813   5.614   7.001
81636SOL     OW46804   1.015   5.577  12.490
81636SOL    HW146805   1.101   5.619  12.489
81636SOL    HW246806   1.006   5.538  12.403
81637SOL     OW46807   0.391   9.445  12.269
81637SOL    HW146808   0.327   9.414  12.334
81637SOL    HW246809   0.340   9.497  12.207
81638SOL     OW46810  11.733  12.922  12.863
81638SOL    HW146811  11.659  12.941  12.805
81638SOL    HW246812  11.729  12.992  12.929
81639SOL     OW46813   1.139  10.559  11.002
81639SOL    HW146814   1.084  10.621  11.050
81639SOL    HW246815   1.109  10.567  10.911
81640SOL     OW46816   3.031  14.694  10.723
81640SOL    HW146817   2.971  14.687  10.797
81640SOL    HW246818   3.114  14.662  10.756
81641SOL     OW46819  12.053  12.433   9.933
81641SOL    HW146820  12.070  12.522   9.904
81641SOL    HW246821  11.977  12.406   9.882
81642SOL     OW46822   4.609   6.981   3.034
81642SOL    HW146823   4.586   7.071   3.007
81642SOL    HW246824   4.571   6.926   2.966
81643SOL     OW46825  11.131   9.056  11.201
81643SOL    HW146826  11.128   9.118  11.128
81643SOL    HW246827  11.219   9.020  11.198
81644SOL     OW46828  10.556  12.895   6.531
81644SOL    HW146829  10.650  12.880   6.536
81644SOL    HW246830  10.527  12.841   6.457
81645SOL     OW46831   2.784  11.537   3.369
81645SOL    HW146832   2.697  11.571   3.350
81645SOL    HW246833   2.814  11.500   3.286
81646SOL     OW46834  10.626  13.257   2.259
81646SOL    HW146835  10.671  13.318   2.318
81646SOL    HW246836  10.556  13.219   2.312
81647SOL     OW46837  11.176  14.279   0.523
81647SOL    HW146838  11.129  14.273   0.606
81647SOL    HW246839  11.110  14.313   0.461
81648SOL     OW46840  11.616   9.183   5.083
81648SOL    HW146841  11.622   9.271   5.047
81648SOL    HW246842  11.698   9.141   5.058
81649SOL     OW46843   0.123   7.818   3.012
81649SOL    HW146844   0.049   7.757   3.015
81649SOL    HW246845   0.176   7.796   3.089
81650SOL     OW46846   6.694  14.296   2.909
81650SOL    HW146847   6.657  14.301   2.821
81650SOL    HW246848   6.784  14.265   2.895
81651SOL     OW46849   9.684  11.939   3.392
81651SOL    HW146850   9.775  11.932   3.423
81651SOL    HW246851   9.656  12.025   3.423
81652SOL     OW46852   9.755   5.163   5.563
81652SOL    HW146853   9.702   5.227   5.516
81652SOL    HW246854   9.819   5.216   5.611
81653SOL     OW46855   4.933   4.094  13.158
81653SOL    HW146856   5.006   4.111  13.098
81653SOL    HW246857   4.948   4.153  13.231
81654SOL     OW46858   9.258   8.369   9.811
81654SOL    HW146859   9.340   8.334   9.777
81654SOL    HW246860   9.254   8.340   9.902
81655SOL     OW46861  11.077   7.221   7.898
81655SOL    HW146862  11.142   7.278   7.939
81655SOL    HW246863  11.046   7.271   7.822
81656SOL     OW46864   5.866   9.259  13.101
81656SOL    HW146865   5.923   9.324  13.059
81656SOL    HW246866   5.926   9.190  13.129
81657SOL     OW46867   9.184   1.454   1.718
81657SOL    HW146868   9.136   1.492   1.645
81657SOL    HW246869   9.262   1.508   1.726
81658SOL     OW46870   8.111   4.525  10.678
81658SOL    HW146871   8.144   4.439  10.703
81658SOL    HW246872   8.182   4.585  10.700
81659SOL     OW46873  11.744   0.175   7.704
81659SOL    HW146874  11.767   0.083   7.721
81659SOL    HW246875  11.749   0.183   7.608
81660SOL     OW46876   7.906  12.242   1.872
81660SOL    HW146877   7.866  12.216   1.955
81660SOL    HW246878   7.997  12.215   1.879
81661SOL     OW46879  10.152   5.607   6.365
81661SOL    HW146880  10.110   5.680   6.410
81661SOL    HW246881  10.152   5.632   6.273
81662SOL     OW46882   1.865   7.080   3.353
81662SOL    HW146883   1.816   6.998   3.348
81662SOL    HW246884   1.804   7.142   3.391
81663SOL     OW46885   0.422  14.345   8.318
81663SOL    HW146886   0.426  14.249   8.315
81663SOL    HW246887   0.331  14.366   8.301
81664SOL     OW46888  14.108   8.027   8.543
81664SOL    HW146889  14.144   7.945   8.509
81664SOL    HW246890  14.096   8.082   8.466
81665SOL     OW46891   8.100   4.507   9.907
81665SOL    HW146892   8.170   4.442   9.915
81665SOL    HW246893   8.026   4.469   9.954
81666SOL     OW46894   6.908   8.449  12.668
81666SOL    HW146895   6.915   8.438  12.574
81666SOL    HW246896   6.965   8.523  12.688
81667SOL     OW46897  10.906  11.587   9.369
81667SOL    HW146898  10.933  11.645   9.298
81667SOL    HW246899  10.848  11.524   9.328
81668SOL     OW46900   1.958  10.295  11.795
81668SOL    HW146901   2.031  10.250  11.838
81668SOL    HW246902   1.999  10.346  11.726
81669SOL     OW46903   3.591   9.515  14.848
81669SOL    HW146904   3.498   9.497  14.839
81669SOL    HW246905   3.633   9.456  14.785
81670SOL     OW46906   9.971   5.873  14.353
81670SOL    HW146907  10.051   5.921  14.331
81670SOL    HW246908   9.998   5.810  14.420
81671SOL     OW46909   3.730   5.334  11.749
81671SOL    HW146910   3.772   5.415  11.779
81671SOL    HW246911   3.693   5.357  11.664
81672SOL     OW46912   3.846   9.387  10.475
81672SOL    HW146913   3.874   9.298  10.457
81672SOL    HW246914   3.858   9.434  10.393
81673SOL     OW46915  14.371   2.671   1.478
81673SOL    HW146916  14.411   2.659   1.391
81673SOL    HW246917  14.342   2.762   1.478
81674SOL     OW46918  10.262   9.381   7.276
81674SOL    HW146919  10.202   9.404   7.205
81674SOL    HW246920  10.267   9.285   7.273
81675SOL     OW46921   2.008   5.909   3.990
81675SOL    HW146922   2.059   5.891   3.911
81675SOL    HW246923   2.063   5.970   4.040
81676SOL     OW46924   9.852  12.524   9.628
81676SOL    HW146925   9.889  12.510   9.541
81676SOL    HW246926   9.782  12.588   9.613
81677SOL     OW46927   9.665  13.650   0.842
81677SOL    HW146928   9.636  13.734   0.805
81677SOL    HW246929   9.604  13.634   0.914
81678SOL     OW46930  11.686   4.136  14.454
81678SOL    HW146931  11.595   4.106  14.452
81678SOL    HW246932  11.731   4.070  14.507
81679SOL     OW46933  13.280  10.112  12.663
81679SOL    HW146934  13.315  10.061  12.737
81679SOL    HW246935  13.194  10.074  12.646
81680SOL     OW46936   0.170   9.151   3.851
81680SOL    HW146937   0.126   9.153   3.766
81680SOL    HW246938   0.114   9.203   3.909
81681SOL     OW46939   7.746  10.042   6.647
81681SOL    HW146940   7.721  10.130   6.676
81681SOL    HW246941   7.704   9.984   6.710
81682SOL     OW46942  14.475   9.337   8.955
81682SOL    HW146943  14.509   9.324   8.866
81682SOL    HW246944  14.511   9.264   9.005
81683SOL     OW46945   2.284   1.979   7.879
81683SOL    HW146946   2.300   1.995   7.786
81683SOL    HW246947   2.221   2.046   7.905
81684SOL     OW46948   7.219   8.415   0.373
81684SOL    HW146949   7.127   8.413   0.348
81684SOL    HW246950   7.220   8.388   0.465
81685SOL     OW46951   9.907   0.051   9.908
81685SOL    HW146952   9.911  14.841   9.946
81685SOL    HW246953   9.824   0.087   9.941
81686SOL     OW46954   5.373   2.664   2.793
81686SOL    HW146955   5.344   2.739   2.742
81686SOL    HW246956   5.310   2.659   2.866
81687SOL     OW46957  11.467  12.663   0.566
81687SOL    HW146958  11.484  12.697   0.654
81687SOL    HW246959  11.530  12.591   0.555
81688SOL     OW46960   5.895   2.042  13.450
81688SOL    HW146961   5.859   2.118  13.404
81688SOL    HW246962   5.846   2.040  13.533
81689SOL     OW46963   9.912   1.474   8.011
81689SOL    HW146964   9.831   1.462   8.060
81689SOL    HW246965   9.913   1.401   7.949
81690SOL     OW46966   4.852  13.686   9.076
81690SOL    HW146967   4.818  13.669   8.988
81690SOL    HW246968   4.781  13.734   9.120
81691SOL     OW46969   1.273   3.774   0.915
81691SOL    HW146970   1.366   3.770   0.891
81691SOL    HW246971   1.227   3.747   0.836
81692SOL     OW46972   9.361  12.616   3.655
81692SOL    HW146973   9.440  12.599   3.706
81692SOL    HW246974   9.298  12.549   3.683
81693SOL     OW46975   4.074   1.115  11.485
81693SOL    HW146976   4.073   1.130  11.580
81693SOL    HW246977   3.981   1.117  11.459
81694SOL     OW46978  12.331   6.824   3.856
81694SOL    HW146979  12.312   6.876   3.934
81694SOL    HW246980  12.423   6.839   3.838
81695SOL     OW46981   6.594  11.221   8.115
81695SOL    HW146982   6.601  11.214   8.020
81695SOL    HW246983   6.524  11.284   8.130
81696SOL     OW46984   5.589   6.188   5.950
81696SOL    HW146985   5.632   6.270   5.974
81696SOL    HW246986   5.635   6.121   6.000
81697SOL     OW46987   5.461   1.680   4.282
81697SOL    HW146988   5.399   1.725   4.224
81697SOL    HW246989   5.427   1.590   4.288
81698SOL     OW46990  12.306   3.237  11.126
81698SOL    HW146991  12.269   3.160  11.083
81698SOL    HW246992  12.274   3.232  11.215
81699SOL     OW46993  13.368   5.380  13.986
81699SOL    HW146994  13.329   5.367  14.072
81699SOL    HW246995  13.321   5.455  13.949
81700SOL     OW46996   1.292   6.639   2.797
81700SOL    HW146997   1.252   6.725   2.813
81700SOL    HW246998   1.315   6.641   2.704
81701SOL     OW46999   8.692   0.938  12.491
81701SOL    HW147000   8.664   0.928  12.582
81701SOL    HW247001   8.770   0.993  12.496
81702SOL     OW47002   3.181   6.894   2.157
81702SOL    HW147003   3.246   6.849   2.212
81702SOL    HW247004   3.099   6.846   2.173
81703SOL     OW47005   2.487  13.370  10.721
81703SOL    HW147006   2.452  13.285  10.747
81703SOL    HW247007   2.487  13.421  10.802
81704SOL     OW47008  13.500  13.875   5.262
81704SOL    HW147009  13.489  13.951   5.205
81704SOL    HW247010  13.576  13.897   5.317
81705SOL     OW47011   2.271  10.482   4.383
81705SOL    HW147012   2.177  10.475   4.400
81705SOL    HW247013   2.283  10.444   4.296
81706SOL     OW47014  14.211  14.483   2.783
81706SOL    HW147015  14.263  14.517   2.710
81706SOL    HW247016  14.245  14.527   2.860
81707SOL     OW47017   3.246   5.979  10.284
81707SOL    HW147018   3.293   5.917  10.340
81707SOL    HW247019   3.190   5.924  10.229
81708SOL     OW47020   9.829  12.085   7.438
81708SOL    HW147021   9.883  12.158   7.467
81708SOL    HW247022   9.853  12.072   7.346
81709SOL     OW47023   3.065   2.010   8.561
81709SOL    HW147024   3.133   1.997   8.627
81709SOL    HW247025   3.099   2.079   8.504
81710SOL     OW47026  11.024  12.805  14.808
81710SOL    HW147027  11.092  12.820  14.874
81710SOL    HW247028  10.954  12.865  14.832
81711SOL     OW47029  10.896   7.212  12.568
81711SOL    HW147030  10.951   7.289  12.555
81711SOL    HW247031  10.956   7.143  12.595
81712SOL     OW47032  12.703   0.771   7.535
81712SOL    HW147033  12.624   0.776   7.482
81712SOL    HW247034  12.672   0.770   7.626
81713SOL     OW47035   9.653  13.472  12.500
81713SOL    HW147036   9.657  13.377  12.516
81713SOL    HW247037   9.696  13.483  12.414
81714SOL     OW47038  13.638   9.264   2.237
81714SOL    HW147039  13.651   9.325   2.310
81714SOL    HW247040  13.578   9.310   2.178
81715SOL     OW47041   9.251   5.019   7.329
81715SOL    HW147042   9.328   5.054   7.285
81715SOL    HW247043   9.221   5.090   7.386
81716SOL     OW47044   4.216   0.429   7.023
81716SOL    HW147045   4.153   0.501   7.034
81716SOL    HW247046   4.301   0.473   7.017
81717SOL     OW47047   4.124   0.580   2.919
81717SOL    HW147048   4.106   0.599   3.011
81717SOL    HW247049   4.040   0.595   2.875
81718SOL     OW47050  14.350   9.883  12.610
81718SOL    HW147051  14.327   9.942  12.682
81718SOL    HW247052  14.410   9.819  12.649
81719SOL     OW47053   6.251   1.629  10.668
81719SOL    HW147054   6.317   1.637  10.737
81719SOL    HW247055   6.300   1.601  10.591
81720SOL     OW47056   3.964  13.795   3.467
81720SOL    HW147057   3.881  13.748   3.459
81720SOL    HW247058   4.012  13.748   3.536
81721SOL     OW47059  11.423   4.277   9.218
81721SOL    HW147060  11.368   4.315   9.149
81721SOL    HW247061  11.499   4.241   9.171
81722SOL     OW47062   2.689   7.234   8.115
81722SOL    HW147063   2.595   7.247   8.102
81722SOL    HW247064   2.697   7.141   8.139
81723SOL     OW47065   6.369   2.355  10.879
81723SOL    HW147066   6.298   2.368  10.943
81723SOL    HW247067   6.440   2.412  10.909
81724SOL     OW47068  12.500   6.157  11.835
81724SOL    HW147069  12.559   6.141  11.761
81724SOL    HW247070  12.430   6.211  11.797
81725SOL     OW47071   2.641   9.567   6.690
81725SOL    HW147072   2.546   9.556   6.690
81725SOL    HW247073   2.658   9.640   6.631
81726SOL     OW47074  11.516   2.743  11.867
81726SOL    HW147075  11.504   2.682  11.794
81726SOL    HW247076  11.450   2.717  11.931
81727SOL     OW47077   1.390   5.147   5.388
81727SOL    HW147078   1.326   5.091   5.431
81727SOL    HW247079   1.354   5.235   5.395
81728SOL     OW47080   3.474  10.922   6.512
81728SOL    HW147081   3.425  10.871   6.577
81728SOL    HW247082   3.427  11.004   6.504
81729SOL     OW47083   1.688   2.457  13.158
81729SOL    HW147084   1.688   2.387  13.093
81729SOL    HW247085   1.774   2.497  13.151
81730SOL     OW47086  10.937   3.504  13.886
81730SOL    HW147087  11.027   3.514  13.854
81730SOL    HW247088  10.887   3.477  13.809
81731SOL     OW47089  13.281   8.884   5.404
81731SOL    HW147090  13.370   8.872   5.437
81731SOL    HW247091  13.227   8.828   5.460
81732SOL     OW47092   2.506  13.149   4.876
81732SOL    HW147093   2.548  13.176   4.958
81732SOL    HW247094   2.480  13.232   4.835
81733SOL     OW47095   0.249   3.567  14.350
81733SOL    HW147096   0.301   3.596  14.426
81733SOL    HW247097   0.207   3.647  14.319
81734SOL     OW47098   0.954   1.264   6.520
81734SOL    HW147099   0.944   1.335   6.583
81734SOL    HW247100   0.865   1.230   6.508
81735SOL     OW47101   4.494   2.143   6.726
81735SOL    HW147102   4.455   2.229   6.744
81735SOL    HW247103   4.522   2.149   6.634
81736SOL     OW47104  13.332   8.804   0.767
81736SOL    HW147105  13.246   8.846   0.773
81736SOL    HW247106  13.379   8.834   0.845
81737SOL     OW47107  11.190   6.449   9.731
81737SOL    HW147108  11.241   6.415   9.805
81737SOL    HW247109  11.111   6.485   9.772
81738SOL     OW47110  14.699   7.759   5.231
81738SOL    HW147111  14.786   7.787   5.203
81738SOL    HW247112  14.696   7.665   5.211
81739SOL     OW47113   5.827   8.880   9.311
81739SOL    HW147114   5.895   8.812   9.308
81739SOL    HW247115   5.794   8.885   9.222
81740SOL     OW47116   1.134   2.802   5.621
81740SOL    HW147117   1.103   2.859   5.551
81740SOL    HW247118   1.224   2.831   5.638
81741SOL     OW47119   3.945   9.626  11.749
81741SOL    HW147120   4.028   9.628  11.797
81741SOL    HW247121   3.932   9.534  11.728
81742SOL     OW47122   4.665   9.287   3.779
81742SOL    HW147123   4.631   9.242   3.701
81742SOL    HW247124   4.723   9.222   3.821
81743SOL     OW47125   4.791   3.686   9.955
81743SOL    HW147126   4.733   3.686  10.031
81743SOL    HW247127   4.737   3.650   9.884
81744SOL     OW47128  13.649   1.544   6.170
81744SOL    HW147129  13.739   1.573   6.161
81744SOL    HW247130  13.639   1.522   6.262
81745SOL     OW47131   2.850  12.885   8.507
81745SOL    HW147132   2.771  12.939   8.516
81745SOL    HW247133   2.921  12.942   8.537
81746SOL     OW47134  14.171   2.500   4.380
81746SOL    HW147135  14.148   2.464   4.294
81746SOL    HW247136  14.143   2.592   4.375
81747SOL     OW47137   9.559  10.963   8.635
81747SOL    HW147138   9.618  10.892   8.608
81747SOL    HW247139   9.569  11.030   8.567
81748SOL     OW47140   7.967   7.468   0.599
81748SOL    HW147141   7.893   7.481   0.539
81748SOL    HW247142   8.042   7.505   0.554
81749SOL     OW47143   8.030   5.293  12.013
81749SOL    HW147144   7.955   5.256  12.059
81749SOL    HW247145   8.027   5.386  12.034
81750SOL     OW47146  10.693  14.068   5.770
81750SOL    HW147147  10.609  14.109   5.752
81750SOL    HW247148  10.673  13.975   5.779
81751SOL     OW47149   2.275   2.172  12.359
81751SOL    HW147150   2.282   2.091  12.309
81751SOL    HW247151   2.195   2.162  12.410
81752SOL     OW47152  11.335   0.076  14.534
81752SOL    HW147153  11.321   0.057  14.627
81752SOL    HW247154  11.420   0.121  14.532
81753SOL     OW47155  11.847   6.478  12.459
81753SOL    HW147156  11.820   6.569  12.462
81753SOL    HW247157  11.940   6.479  12.481
81754SOL     OW47158   9.775   9.794   3.664
81754SOL    HW147159   9.684   9.820   3.646
81754SOL    HW247160   9.827   9.847   3.604
81755SOL     OW47161   9.304   5.795   7.550
81755SOL    HW147162   9.296   5.768   7.641
81755SOL    HW247163   9.216   5.824   7.525
81756SOL     OW47164   4.673  13.134  14.086
81756SOL    HW147165   4.693  13.053  14.040
81756SOL    HW247166   4.577  13.142  14.080
81757SOL     OW47167   2.681   2.389   9.912
81757SOL    HW147168   2.643   2.401   9.826
81757SOL    HW247169   2.609   2.356   9.966
81758SOL     OW47170  12.506   2.304   7.306
81758SOL    HW147171  12.467   2.308   7.393
81758SOL    HW247172  12.453   2.362   7.252
81759SOL     OW47173  12.507   5.731  14.508
81759SOL    HW147174  12.484   5.659  14.450
81759SOL    HW247175  12.602   5.726  14.516
81760SOL     OW47176   0.316  14.477   9.464
81760SOL    HW147177   0.289  14.397   9.507
81760SOL    HW247178   0.373  14.520   9.527
81761SOL     OW47179   3.774   3.237  11.387
81761SOL    HW147180   3.799   3.186  11.464
81761SOL    HW247181   3.791   3.328  11.413
81762SOL     OW47182   0.528  13.262  12.283
81762SOL    HW147183   0.459  13.282  12.220
81762SOL    HW247184   0.504  13.178  12.320
81763SOL     OW47185   4.996  10.385   6.068
81763SOL    HW147186   4.932  10.353   6.004
81763SOL    HW247187   5.068  10.323   6.064
81764SOL     OW47188  14.093   1.606   7.955
81764SOL    HW147189  14.131   1.654   7.882
81764SOL    HW247190  14.114   1.659   8.032
81765SOL     OW47191  12.603   8.648   7.055
81765SOL    HW147192  12.558   8.629   7.138
81765SOL    HW247193  12.563   8.730   7.025
81766SOL     OW47194  10.958   7.922   6.795
81766SOL    HW147195  11.013   8.000   6.804
81766SOL    HW247196  11.009   7.851   6.834
81767SOL     OW47197   2.014  13.615  13.538
81767SOL    HW147198   1.988  13.523  13.534
81767SOL    HW247199   1.994  13.649  13.451
81768SOL     OW47200   5.819  10.202   0.353
81768SOL    HW147201   5.880  10.137   0.318
81768SOL    HW247202   5.852  10.220   0.441
81769SOL     OW47203   7.410  13.023  10.425
81769SOL    HW147204   7.341  12.986  10.370
81769SOL    HW247205   7.488  13.020  10.370
81770SOL     OW47206  12.060   0.559  10.327
81770SOL    HW147207  12.058   0.591  10.417
81770SOL    HW247208  12.065   0.639  10.274
81771SOL     OW47209  10.325   7.998   0.655
81771SOL    HW147210  10.271   7.926   0.624
81771SOL    HW247211  10.263   8.070   0.671
81772SOL     OW47212   6.688   3.343   3.094
81772SOL    HW147213   6.751   3.289   3.142
81772SOL    HW247214   6.706   3.325   3.001
81773SOL     OW47215  13.463  10.906  14.359
81773SOL    HW147216  13.384  10.954  14.385
81773SOL    HW247217  13.526  10.974  14.335
81774SOL     OW47218  12.260   2.824  12.509
81774SOL    HW147219  12.329   2.867  12.458
81774SOL    HW247220  12.180   2.844  12.462
81775SOL     OW47221   1.740  13.818  13.196
81775SOL    HW147222   1.791  13.744  13.229
81775SOL    HW247223   1.792  13.895  13.219
81776SOL     OW47224  14.656  11.678   3.082
81776SOL    HW147225  14.626  11.673   3.173
81776SOL    HW247226  14.716  11.604   3.072
81777SOL     OW47227  12.184  12.244  12.087
81777SOL    HW147228  12.103  12.195  12.083
81777SOL    HW247229  12.221  12.237  11.999
81778SOL     OW47230   0.420   4.192  11.424
81778SOL    HW147231   0.492   4.153  11.475
81778SOL    HW247232   0.425   4.285  11.443
81779SOL     OW47233  12.767   4.485   4.992
81779SOL    HW147234  12.852   4.443   5.000
81779SOL    HW247235  12.736   4.494   5.082
81780SOL     OW47236  11.472  12.095  13.907
81780SOL    HW147237  11.503  12.185  13.913
81780SOL    HW247238  11.518  12.048  13.976
81781SOL     OW47239   8.999  11.423   2.975
81781SOL    HW147240   9.065  11.472   3.024
81781SOL    HW247241   8.973  11.352   3.033
81782SOL     OW47242  11.875   7.001  13.382
81782SOL    HW147243  11.906   6.940  13.449
81782SOL    HW247244  11.848   6.945  13.309
81783SOL     OW47245   0.809   0.914   3.430
81783SOL    HW147246   0.801   0.880   3.341
81783SOL    HW247247   0.725   0.894   3.471
81784SOL     OW47248   4.207   0.880   9.087
81784SOL    HW147249   4.224   0.903   8.996
81784SOL    HW247250   4.269   0.932   9.137
81785SOL     OW47251  12.650   0.250  11.703
81785SOL    HW147252  12.681   0.333  11.739
81785SOL    HW247253  12.618   0.272  11.616
81786SOL     OW47254  14.592  11.088   1.176
81786SOL    HW147255  14.649  11.142   1.122
81786SOL    HW247256  14.582  11.137   1.257
81787SOL     OW47257   6.816  11.714   3.290
81787SOL    HW147258   6.861  11.686   3.210
81787SOL    HW247259   6.833  11.643   3.352
81788SOL     OW47260  12.928  14.378   8.347
81788SOL    HW147261  12.971  14.450   8.393
81788SOL    HW247262  12.953  14.389   8.255
81789SOL     OW47263  11.196  11.778   8.833
81789SOL    HW147264  11.245  11.847   8.790
81789SOL    HW247265  11.128  11.754   8.771
81790SOL     OW47266  13.482   0.430  11.579
81790SOL    HW147267  13.437   0.513  11.565
81790SOL    HW247268  13.495   0.395  11.491
81791SOL     OW47269   8.364   5.085   8.303
81791SOL    HW147270   8.358   4.995   8.336
81791SOL    HW247271   8.387   5.137   8.379
81792SOL     OW47272  11.137   3.786   0.563
81792SOL    HW147273  11.185   3.711   0.528
81792SOL    HW247274  11.165   3.792   0.654
81793SOL     OW47275   1.484   2.634   9.505
81793SOL    HW147276   1.450   2.545   9.501
81793SOL    HW247277   1.576   2.625   9.479
81794SOL     OW47278   3.404  14.308  10.790
81794SOL    HW147279   3.483  14.344  10.830
81794SOL    HW247280   3.350  14.280  10.864
81795SOL     OW47281   4.168   5.704  12.630
81795SOL    HW147282   4.249   5.720  12.680
81795SOL    HW247283   4.199   5.672  12.546
81796SOL     OW47284   4.985   7.635   6.630
81796SOL    HW147285   5.069   7.617   6.587
81796SOL    HW247286   5.002   7.623   6.723
81797SOL     OW47287   4.975  11.768   8.960
81797SOL    HW147288   5.049  11.782   9.018
81797SOL    HW247289   5.003  11.698   8.901
81798SOL     OW47290  14.692  11.519  10.990
81798SOL    HW147291  14.620  11.562  10.943
81798SOL    HW247292  14.763  11.515  10.926
81799SOL     OW47293   9.199   1.023  13.318
81799SOL    HW147294   9.285   1.025  13.359
81799SOL    HW247295   9.179   0.930  13.310
81800SOL     OW47296  13.477   9.800   6.008
81800SOL    HW147297  13.427   9.835   5.935
81800SOL    HW247298  13.459   9.860   6.080
81801SOL     OW47299   2.810   5.274   5.042
81801SOL    HW147300   2.759   5.196   5.066
81801SOL    HW247301   2.787   5.289   4.950
81802SOL     OW47302  13.872  12.476   1.032
81802SOL    HW147303  13.929  12.546   1.001
81802SOL    HW247304  13.807  12.519   1.086
81803SOL     OW47305   6.423  12.298  13.077
81803SOL    HW147306   6.394  12.215  13.113
81803SOL    HW247307   6.365  12.363  13.116
81804SOL     OW47308   5.203   9.407  14.570
81804SOL    HW147309   5.151   9.346  14.518
81804SOL    HW247310   5.263   9.447  14.507
81805SOL     OW47311  13.353   3.749  12.784
81805SOL    HW147312  13.270   3.775  12.824
81805SOL    HW247313  13.403   3.830  12.776
81806SOL     OW47314   2.983   4.165   0.160
81806SOL    HW147315   3.004   4.072   0.172
81806SOL    HW247316   2.906   4.165   0.103
81807SOL     OW47317   4.357   0.471   1.813
81807SOL    HW147318   4.376   0.483   1.720
81807SOL    HW247319   4.426   0.519   1.859
81808SOL     OW47320  11.618   8.541   8.874
81808SOL    HW147321  11.669   8.543   8.955
81808SOL    HW247322  11.676   8.499   8.811
81809SOL     OW47323   1.591  12.801  11.828
81809SOL    HW147324   1.509  12.841  11.800
81809SOL    HW247325   1.651  12.875  11.840
81810SOL     OW47326   9.451  12.244  13.297
81810SOL    HW147327   9.392  12.271  13.226
81810SOL    HW247328   9.529  12.213  13.252
81811SOL     OW47329   0.578   1.825  12.816
81811SOL    HW147330   0.602   1.907  12.860
81811SOL    HW247331   0.539   1.772  12.885
81812SOL     OW47332   0.138  11.996   0.913
81812SOL    HW147333   0.146  11.958   0.826
81812SOL    HW247334   0.048  11.977   0.939
81813SOL     OW47335   7.431   7.228   8.884
81813SOL    HW147336   7.451   7.321   8.894
81813SOL    HW247337   7.516   7.187   8.868
81814SOL     OW47338   6.104   2.422  14.292
81814SOL    HW147339   6.043   2.496  14.297
81814SOL    HW247340   6.062   2.353  14.343
81815SOL     OW47341   8.935  14.626   8.648
81815SOL    HW147342   8.898  14.681   8.717
81815SOL    HW247343   8.889  14.652   8.569
81816SOL     OW47344   6.896  14.686  11.998
81816SOL    HW147345   6.985  14.713  11.978
81816SOL    HW247346   6.904  14.594  12.023
81817SOL     OW47347   4.781   4.343   9.362
81817SOL    HW147348   4.854   4.397   9.395
81817SOL    HW247349   4.799   4.335   9.268
81818SOL     OW47350   9.802   9.147  11.124
81818SOL    HW147351   9.813   9.078  11.059
81818SOL    HW247352   9.830   9.228  11.079
81819SOL     OW47353  10.647   2.966   3.067
81819SOL    HW147354  10.566   2.917   3.083
81819SOL    HW247355  10.656   2.965   2.972
81820SOL     OW47356  14.009   4.423  14.098
81820SOL    HW147357  13.919   4.454  14.105
81820SOL    HW247358  14.039   4.415  14.188
81821SOL     OW47359   8.463  11.145   3.130
81821SOL    HW147360   8.410  11.194   3.192
81821SOL    HW247361   8.408  11.136   3.052
81822SOL     OW47362   4.829  11.875   1.081
81822SOL    HW147363   4.829  11.835   0.994
81822SOL    HW247364   4.820  11.968   1.066
81823SOL     OW47365   1.549   5.450   4.755
81823SOL    HW147366   1.636   5.438   4.793
81823SOL    HW247367   1.540   5.378   4.692
81824SOL     OW47368   7.972   4.545   5.392
81824SOL    HW147369   8.004   4.456   5.401
81824SOL    HW247370   8.029   4.597   5.449
81825SOL     OW47371   0.357   2.523  13.900
81825SOL    HW147372   0.346   2.490  13.811
81825SOL    HW247373   0.324   2.613  13.897
81826SOL     OW47374  14.240  12.104   3.567
81826SOL    HW147375  14.230  12.154   3.647
81826SOL    HW247376  14.154  12.108   3.525
81827SOL     OW47377  13.245   5.832  11.854
81827SOL    HW147378  13.176   5.889  11.888
81827SOL    HW247379  13.323   5.888  11.853
81828SOL     OW47380  10.112  10.045   1.651
81828SOL    HW147381  10.095   9.951   1.650
81828SOL    HW247382  10.110  10.071   1.559
81829SOL     OW47383  10.668   0.201  10.964
81829SOL    HW147384  10.577   0.222  10.942
81829SOL    HW247385  10.665   0.111  10.994
81830SOL     OW47386   1.809   3.472   4.379
81830SOL    HW147387   1.715   3.460   4.364
81830SOL    HW247388   1.843   3.383   4.391
81831SOL     OW47389  14.686   4.346   4.916
81831SOL    HW147390  14.664   4.365   5.007
81831SOL    HW247391  14.762   4.289   4.921
81832SOL     OW47392   1.925   2.725  10.473
81832SOL    HW147393   1.978   2.772  10.537
81832SOL    HW247394   1.849   2.781  10.459
81833SOL     OW47395   7.534  13.345   8.924
81833SOL    HW147396   7.447  13.374   8.950
81833SOL    HW247397   7.536  13.251   8.945
81834SOL     OW47398   5.725   0.846  11.399
81834SOL    HW147399   5.730   0.873  11.490
81834SOL    HW247400   5.771   0.762  11.396
81835SOL     OW47401  12.885  10.994  13.900
81835SOL    HW147402  12.802  11.036  13.879
81835SOL    HW247403  12.861  10.905  13.924
81836SOL     OW47404   7.551   2.658   1.114
81836SOL    HW147405   7.479   2.705   1.157
81836SOL    HW247406   7.589   2.722   1.055
81837SOL     OW47407   1.336   9.693   6.885
81837SOL    HW147408   1.362   9.680   6.794
81837SOL    HW247409   1.379   9.774   6.911
81838SOL     OW47410   4.260   5.964   2.596
81838SOL    HW147411   4.185   5.903   2.601
81838SOL    HW247412   4.330   5.912   2.555
81839SOL     OW47413   6.573   1.776   7.721
81839SOL    HW147414   6.506   1.720   7.760
81839SOL    HW247415   6.629   1.801   7.794
81840SOL     OW47416  12.943  14.432  11.322
81840SOL    HW147417  13.012  14.371  11.348
81840SOL    HW247418  12.870  14.412  11.380
81841SOL     OW47419   9.343   1.530   0.370
81841SOL    HW147420   9.359   1.439   0.393
81841SOL    HW247421   9.289   1.527   0.292
81842SOL     OW47422  11.318   8.541   2.565
81842SOL    HW147423  11.386   8.593   2.608
81842SOL    HW247424  11.349   8.451   2.570
81843SOL     OW47425   7.600   8.921   9.728
81843SOL    HW147426   7.519   8.887   9.691
81843SOL    HW247427   7.597   8.896   9.820
81844SOL     OW47428  14.806  13.107  12.962
81844SOL    HW147429  14.714  13.127  12.943
81844SOL    HW247430  14.852  13.123  12.880
81845SOL     OW47431   7.395   0.565   4.227
81845SOL    HW147432   7.344   0.486   4.210
81845SOL    HW247433   7.419   0.598   4.141
81846SOL     OW47434   8.430   1.763  10.918
81846SOL    HW147435   8.400   1.828  10.981
81846SOL    HW247436   8.508   1.802  10.879
81847SOL     OW47437  10.453   4.105   8.089
81847SOL    HW147438  10.524   4.059   8.043
81847SOL    HW247439  10.493   4.187   8.119
81848SOL     OW47440   3.624  11.159  13.445
81848SOL    HW147441   3.580  11.152  13.360
81848SOL    HW247442   3.717  11.159  13.423
81849SOL     OW47443   9.096   6.307  11.589
81849SOL    HW147444   9.107   6.225  11.542
81849SOL    HW247445   9.062   6.281  11.675
81850SOL     OW47446   0.074   8.055   7.859
81850SOL    HW147447   0.145   8.116   7.881
81850SOL    HW247448   0.045   8.022   7.944
81851SOL     OW47449  10.219   1.111   8.666
81851SOL    HW147450  10.249   1.069   8.586
81851SOL    HW247451  10.300   1.140   8.710
81852SOL     OW47452   1.996   6.294   0.190
81852SOL    HW147453   2.003   6.208   0.148
81852SOL    HW247454   2.006   6.357   0.119
81853SOL     OW47455  11.640   0.805   3.172
81853SOL    HW147456  11.574   0.757   3.121
81853SOL    HW247457  11.647   0.756   3.254
81854SOL     OW47458   9.168  10.335   9.067
81854SOL    HW147459   9.244  10.372   9.022
81854SOL    HW247460   9.185  10.241   9.072
81855SOL     OW47461   0.501   1.246   1.203
81855SOL    HW147462   0.458   1.322   1.242
81855SOL    HW247463   0.442   1.219   1.133
81856SOL     OW47464   9.134  14.839   7.193
81856SOL    HW147465   9.226  14.867   7.186
81856SOL    HW247466   9.134  14.777   7.266
81857SOL     OW47467  11.804   6.978   9.107
81857SOL    HW147468  11.711   6.983   9.089
81857SOL    HW247469  11.817   6.891   9.146
81858SOL     OW47470   9.553   5.864  10.996
81858SOL    HW147471   9.476   5.909  10.962
81858SOL    HW247472   9.627   5.907  10.953
81859SOL     OW47473   9.407  11.681   3.410
81859SOL    HW147474   9.479  11.719   3.461
81859SOL    HW247475   9.343  11.751   3.402
81860SOL     OW47476   6.206  12.188   4.303
81860SOL    HW147477   6.134  12.246   4.328
81860SOL    HW247478   6.163  12.112   4.264
81861SOL     OW47479   9.265   4.114   3.023
81861SOL    HW147480   9.172   4.119   3.043
81861SOL    HW247481   9.304   4.072   3.101
81862SOL     OW47482   3.766  14.168   6.610
81862SOL    HW147483   3.755  14.080   6.576
81862SOL    HW247484   3.691  14.217   6.576
81863SOL     OW47485   0.193   6.569   2.582
81863SOL    HW147486   0.122   6.506   2.591
81863SOL    HW247487   0.174   6.616   2.501
81864SOL     OW47488   2.552   1.895   4.525
81864SOL    HW147489   2.505   1.926   4.447
81864SOL    HW247490   2.502   1.931   4.598
81865SOL     OW47491   8.682   1.320  12.963
81865SOL    HW147492   8.728   1.297  13.044
81865SOL    HW247493   8.734   1.392  12.926
81866SOL     OW47494   8.541   5.512  12.673
81866SOL    HW147495   8.506   5.430  12.707
81866SOL    HW247496   8.482   5.535  12.601
81867SOL     OW47497   0.987   0.416   8.657
81867SOL    HW147498   0.948   0.394   8.573
81867SOL    HW247499   0.990   0.512   8.658
81868SOL     OW47500  12.324   5.213  12.888
81868SOL    HW147501  12.347   5.242  12.800
81868SOL    HW247502  12.387   5.257  12.945
81869SOL     OW47503   6.746   1.387   7.164
81869SOL    HW147504   6.732   1.454   7.098
81869SOL    HW247505   6.678   1.403   7.230
81870SOL     OW47506   0.180   6.325  10.452
81870SOL    HW147507   0.224   6.407  10.472
81870SOL    HW247508   0.141   6.340  10.365
81871SOL     OW47509  13.623   2.704   7.647
81871SOL    HW147510  13.542   2.708   7.595
81871SOL    HW247511  13.640   2.610   7.658
81872SOL     OW47512   0.918   0.206  12.502
81872SOL    HW147513   0.996   0.234  12.454
81872SOL    HW247514   0.911   0.112  12.485
81873SOL     OW47515   0.822   3.881  12.575
81873SOL    HW147516   0.821   3.813  12.642
81873SOL    HW247517   0.754   3.942  12.602
81874SOL     OW47518  14.055   1.128   1.888
81874SOL    HW147519  13.978   1.169   1.847
81874SOL    HW247520  14.063   1.043   1.844
81875SOL     OW47521   3.945   0.428   9.089
81875SOL    HW147522   3.898   0.399   9.011
81875SOL    HW247523   3.903   0.511   9.113
81876SOL     OW47524   4.094  11.572   8.367
81876SOL    HW147525   4.132  11.517   8.436
81876SOL    HW247526   4.123  11.661   8.389
81877SOL     OW47527  11.055   7.784   0.956
81877SOL    HW147528  11.133   7.742   0.920
81877SOL    HW247529  11.052   7.755   1.047
81878SOL     OW47530  12.732  13.747  13.930
81878SOL    HW147531  12.768  13.670  13.974
81878SOL    HW247532  12.637  13.735  13.935
81879SOL     OW47533   8.227  11.982  12.859
81879SOL    HW147534   8.283  12.053  12.829
81879SOL    HW247535   8.212  11.929  12.781
81880SOL     OW47536  12.275  12.236   4.227
81880SOL    HW147537  12.220  12.312   4.214
81880SOL    HW247538  12.223  12.178   4.283
81881SOL     OW47539  12.854  14.508   9.642
81881SOL    HW147540  12.861  14.486   9.735
81881SOL    HW247541  12.898  14.593   9.634
81882SOL     OW47542  12.321   6.670  12.861
81882SOL    HW147543  12.313   6.696  12.769
81882SOL    HW247544  12.391   6.604  12.861
81883SOL     OW47545  12.315   7.004   8.013
81883SOL    HW147546  12.311   7.098   7.992
81883SOL    HW247547  12.400   6.993   8.056
81884SOL     OW47548   2.586   9.636   2.061
81884SOL    HW147549   2.510   9.608   2.010
81884SOL    HW247550   2.622   9.555   2.096
81885SOL     OW47551   0.550  10.026  12.975
81885SOL    HW147552   0.602  10.019  13.055
81885SOL    HW247553   0.479  10.086  12.998
81886SOL     OW47554   8.555   5.395  14.421
81886SOL    HW147555   8.590   5.464  14.476
81886SOL    HW247556   8.475   5.433  14.383
81887SOL     OW47557   3.799   1.494   7.756
81887SOL    HW147558   3.833   1.515   7.668
81887SOL    HW247559   3.860   1.429   7.790
81888SOL     OW47560   6.505   5.015   8.821
81888SOL    HW147561   6.560   4.954   8.870
81888SOL    HW247562   6.430   4.962   8.793
81889SOL     OW47563  12.560   7.909   1.565
81889SOL    HW147564  12.579   7.822   1.599
81889SOL    HW247565  12.558   7.897   1.470
81890SOL     OW47566   4.346   0.580   5.869
81890SOL    HW147567   4.367   0.654   5.813
81890SOL    HW247568   4.275   0.535   5.824
81891SOL     OW47569  14.803   4.366  11.970
81891SOL    HW147570  14.763   4.304  11.909
81891SOL    HW247571  14.773   4.452  11.939
81892SOL     OW47572   6.475   7.355   2.661
81892SOL    HW147573   6.476   7.411   2.584
81892SOL    HW247574   6.393   7.376   2.706
81893SOL     OW47575   3.266  11.149  13.002
81893SOL    HW147576   3.211  11.225  13.022
81893SOL    HW247577   3.348  11.166  13.048
81894SOL     OW47578  14.502   3.577  13.743
81894SOL    HW147579  14.521   3.638  13.814
81894SOL    HW247580  14.577   3.586  13.684
81895SOL     OW47581   2.035   0.403  12.256
81895SOL    HW147582   1.942   0.406  12.279
81895SOL    HW247583   2.042   0.461  12.181
81896SOL     OW47584  13.296  13.329  11.141
81896SOL    HW147585  13.202  13.338  11.124
81896SOL    HW247586  13.301  13.280  11.223
81897SOL     OW47587  13.717   0.754   0.325
81897SOL    HW147588  13.714   0.798   0.240
81897SOL    HW247589  13.640   0.785   0.372
81898SOL     OW47590  11.092  11.826  11.389
81898SOL    HW147591  10.998  11.809  11.384
81898SOL    HW247592  11.131  11.742  11.414
81899SOL     OW47593   4.581   6.890   9.672
81899SOL    HW147594   4.572   6.887   9.767
81899SOL    HW247595   4.494   6.915   9.640
81900SOL     OW47596   5.980   2.429   4.617
81900SOL    HW147597   5.896   2.473   4.602
81900SOL    HW247598   5.993   2.375   4.540
81901SOL     OW47599   5.240   1.680  11.054
81901SOL    HW147600   5.302   1.613  11.084
81901SOL    HW247601   5.207   1.720  11.134
81902SOL     OW47602   4.979   9.562   1.805
81902SOL    HW147603   4.947   9.617   1.876
81902SOL    HW247604   5.042   9.504   1.846
81903SOL     OW47605   7.051  11.486   8.644
81903SOL    HW147606   7.101  11.538   8.581
81903SOL    HW247607   6.994  11.432   8.590
81904SOL     OW47608  10.146   4.290   9.106
81904SOL    HW147609  10.183   4.248   9.029
81904SOL    HW247610  10.177   4.381   9.100
81905SOL     OW47611   1.013   6.286   1.458
81905SOL    HW147612   1.077   6.350   1.488
81905SOL    HW247613   1.005   6.301   1.364
81906SOL     OW47614  12.311  13.286   1.778
81906SOL    HW147615  12.264  13.338   1.844
81906SOL    HW247616  12.300  13.195   1.807
81907SOL     OW47617  11.777  13.191   9.022
81907SOL    HW147618  11.848  13.182   9.086
81907SOL    HW247619  11.822  13.203   8.938
81908SOL     OW47620   9.545   7.931   4.389
81908SOL    HW147621   9.628   7.969   4.358
81908SOL    HW247622   9.559   7.917   4.482
81909SOL     OW47623   1.607  11.528  13.753
81909SOL    HW147624   1.667  11.602  13.767
81909SOL    HW247625   1.602  11.520  13.658
81910SOL     OW47626   9.069   7.869  11.362
81910SOL    HW147627   9.164   7.866  11.366
81910SOL    HW247628   9.045   7.798  11.302
81911SOL     OW47629   6.295   6.478   6.921
81911SOL    HW147630   6.228   6.528   6.873
81911SOL    HW247631   6.304   6.525   7.004
81912SOL     OW47632  11.987   8.236  13.631
81912SOL    HW147633  12.068   8.191  13.608
81912SOL    HW247634  11.959   8.194  13.713
81913SOL     OW47635   9.736   0.947   3.527
81913SOL    HW147636   9.655   0.956   3.577
81913SOL    HW247637   9.728   0.863   3.482
81914SOL     OW47638   1.703   6.827   2.046
81914SOL    HW147639   1.709   6.900   2.108
81914SOL    HW247640   1.767   6.849   1.978
81915SOL     OW47641   4.736   0.225  10.962
81915SOL    HW147642   4.713   0.138  10.928
81915SOL    HW247643   4.804   0.256  10.901
81916SOL     OW47644   9.349   9.495   8.520
81916SOL    HW147645   9.370   9.402   8.505
81916SOL    HW247646   9.434   9.539   8.519
81917SOL     OW47647   6.297  14.605   7.355
81917SOL    HW147648   6.262  14.517   7.344
81917SOL    HW247649   6.226  14.653   7.398
81918SOL     OW47650  11.858  13.960  10.411
81918SOL    HW147651  11.905  14.029  10.458
81918SOL    HW247652  11.867  13.984  10.318
81919SOL     OW47653   8.435   5.840  10.152
81919SOL    HW147654   8.480   5.894  10.087
81919SOL    HW247655   8.449   5.750  10.122
81920SOL     OW47656   9.120  14.856   8.469
81920SOL    HW147657   9.058   0.016   8.532
81920SOL    HW247658   9.205   0.016   8.494
81921SOL     OW47659  14.146  10.011   8.873
81921SOL    HW147660  14.153   9.922   8.908
81921SOL    HW247661  14.090  10.002   8.796
81922SOL     OW47662   2.285   9.286   8.445
81922SOL    HW147663   2.293   9.192   8.432
81922SOL    HW247664   2.209   9.296   8.502
81923SOL     OW47665  10.885   6.635  10.734
81923SOL    HW147666  10.799   6.625  10.774
81923SOL    HW247667  10.926   6.706  10.783
81924SOL     OW47668  12.210   5.891   7.466
81924SOL    HW147669  12.190   5.930   7.551
81924SOL    HW247670  12.148   5.931   7.406
81925SOL     OW47671   4.491   5.063  13.798
81925SOL    HW147672   4.442   4.993  13.755
81925SOL    HW247673   4.423   5.124  13.828
81926SOL     OW47674  14.215  14.401  12.649
81926SOL    HW147675  14.176  14.381  12.734
81926SOL    HW247676  14.145  14.443  12.599
81927SOL     OW47677  13.191   3.667   1.732
81927SOL    HW147678  13.250   3.655   1.658
81927SOL    HW247679  13.117   3.609   1.714
81928SOL     OW47680   6.899  11.009   6.755
81928SOL    HW147681   6.895  11.098   6.719
81928SOL    HW247682   6.816  10.998   6.801
81929SOL     OW47683   0.275   6.283   9.566
81929SOL    HW147684   0.223   6.262   9.644
81929SOL    HW247685   0.313   6.199   9.540
81930SOL     OW47686   6.206   4.666   1.558
81930SOL    HW147687   6.122   4.697   1.590
81930SOL    HW247688   6.243   4.740   1.510
81931SOL     OW47689   1.110  12.275   0.013
81931SOL    HW147690   1.071  12.296  14.805
81931SOL    HW247691   1.064  12.333   0.074
81932SOL     OW47692   6.902   9.280  13.566
81932SOL    HW147693   6.909   9.186  13.551
81932SOL    HW247694   6.868   9.315  13.483
81933SOL     OW47695  10.341   0.296   2.300
81933SOL    HW147696  10.272   0.362   2.308
81933SOL    HW247697  10.294   0.214   2.286
81934SOL     OW47698   6.630   6.282   7.517
81934SOL    HW147699   6.714   6.263   7.559
81934SOL    HW247700   6.647   6.270   7.423
81935SOL     OW47701   3.185   5.934   6.115
81935SOL    HW147702   3.263   5.916   6.063
81935SOL    HW247703   3.203   5.893   6.200
81936SOL     OW47704   2.031   4.551   1.702
81936SOL    HW147705   2.048   4.494   1.626
81936SOL    HW247706   1.993   4.492   1.768
81937SOL     OW47707   0.337   9.092   7.712
81937SOL    HW147708   0.418   9.070   7.757
81937SOL    HW247709   0.313   9.178   7.747
81938SOL     OW47710  10.522   8.740   7.503
81938SOL    HW147711  10.434   8.702   7.496
81938SOL    HW247712  10.561   8.727   7.416
81939SOL     OW47713   9.257   2.851  13.547
81939SOL    HW147714   9.246   2.763  13.513
81939SOL    HW247715   9.318   2.893  13.487
81940SOL     OW47716   6.249  14.220  11.996
81940SOL    HW147717   6.179  14.157  12.015
81940SOL    HW247718   6.312  14.171  11.943
81941SOL     OW47719   0.960   3.272   7.457
81941SOL    HW147720   0.993   3.186   7.429
81941SOL    HW247721   1.018   3.335   7.415
81942SOL     OW47722   8.800   7.191   9.743
81942SOL    HW147723   8.826   7.229   9.659
81942SOL    HW247724   8.875   7.207   9.800
81943SOL     OW47725   6.932   7.159  11.238
81943SOL    HW147726   7.022   7.181  11.261
81943SOL    HW247727   6.931   7.063  11.231
81944SOL     OW47728   6.354   9.631   0.619
81944SOL    HW147729   6.398   9.553   0.583
81944SOL    HW247730   6.283   9.649   0.557
81945SOL     OW47731   5.760  13.411   3.863
81945SOL    HW147732   5.677  13.428   3.909
81945SOL    HW247733   5.765  13.316   3.857
81946SOL     OW47734  12.000   3.456   5.223
81946SOL    HW147735  11.976   3.364   5.214
81946SOL    HW247736  11.928   3.504   5.181
81947SOL     OW47737   8.066   8.761   8.337
81947SOL    HW147738   7.981   8.800   8.358
81947SOL    HW247739   8.104   8.819   8.271
81948SOL     OW47740   5.678   2.652   5.404
81948SOL    HW147741   5.636   2.584   5.351
81948SOL    HW247742   5.608   2.716   5.418
81949SOL     OW47743   9.937   2.427  11.728
81949SOL    HW147744   9.874   2.369  11.770
81949SOL    HW247745   9.900   2.515  11.740
81950SOL     OW47746   5.328   0.414   4.426
81950SOL    HW147747   5.340   0.372   4.511
81950SOL    HW247748   5.321   0.508   4.447
81951SOL     OW47749   0.763  13.088   2.947
81951SOL    HW147750   0.858  13.074   2.957
81951SOL    HW247751   0.743  13.158   3.010
81952SOL     OW47752  14.348  14.537  11.336
81952SOL    HW147753  14.395  14.541  11.420
81952SOL    HW247754  14.352  14.445  11.311
81953SOL     OW47755   5.162  14.744   9.582
81953SOL    HW147756   5.160  14.721   9.675
81953SOL    HW247757   5.092  14.692   9.543
81954SOL     OW47758   4.947  12.933   3.732
81954SOL    HW147759   4.996  12.903   3.656
81954SOL    HW247760   4.955  13.029   3.729
81955SOL     OW47761  11.458   4.590   1.456
81955SOL    HW147762  11.383   4.606   1.398
81955SOL    HW247763  11.460   4.666   1.514
81956SOL     OW47764   0.037   2.874  13.221
81956SOL    HW147765   0.130   2.893  13.229
81956SOL    HW247766  14.871   2.951  13.257
81957SOL     OW47767   9.246  10.296   2.588
81957SOL    HW147768   9.169  10.246   2.613
81957SOL    HW247769   9.315  10.230   2.578
81958SOL     OW47770   2.209   9.341   0.197
81958SOL    HW147771   2.233   9.254   0.165
81958SOL    HW247772   2.197   9.330   0.291
81959SOL     OW47773  14.248   6.974   1.345
81959SOL    HW147774  14.272   6.913   1.415
81959SOL    HW247775  14.277   7.060   1.378
81960SOL     OW47776   1.709   1.103   3.911
81960SOL    HW147777   1.677   1.181   3.866
81960SOL    HW247778   1.633   1.071   3.960
81961SOL     OW47779  11.779  12.709  11.336
81961SOL    HW147780  11.862  12.661  11.328
81961SOL    HW247781  11.726  12.653  11.393
81962SOL     OW47782  12.590   6.443  14.681
81962SOL    HW147783  12.555   6.528  14.706
81962SOL    HW247784  12.670   6.434  14.732
81963SOL     OW47785   1.097  13.479  11.208
81963SOL    HW147786   1.019  13.533  11.197
81963SOL    HW247787   1.105  13.430  11.126
81964SOL     OW47788  12.803  14.469   0.728
81964SOL    HW147789  12.835  14.381   0.748
81964SOL    HW247790  12.849  14.526   0.789
81965SOL     OW47791  12.134   2.853   6.999
81965SOL    HW147792  12.073   2.925   6.980
81965SOL    HW247793  12.221   2.890   6.983
81966SOL     OW47794   9.213   3.887   4.502
81966SOL    HW147795   9.180   3.822   4.439
81966SOL    HW247796   9.135   3.914   4.551
81967SOL     OW47797   1.400  11.900   1.679
81967SOL    HW147798   1.481  11.881   1.632
81967SOL    HW247799   1.371  11.815   1.713
81968SOL     OW47800   4.342  12.428  13.057
81968SOL    HW147801   4.342  12.505  12.999
81968SOL    HW247802   4.255  12.390  13.047
81969SOL     OW47803   0.356   1.377   6.601
81969SOL    HW147804   0.430   1.344   6.550
81969SOL    HW247805   0.396   1.421   6.676
81970SOL     OW47806  10.472  10.860   9.164
81970SOL    HW147807  10.414  10.799   9.211
81970SOL    HW247808  10.560  10.827   9.182
81971SOL     OW47809   5.118   4.775   5.060
81971SOL    HW147810   5.045   4.801   5.004
81971SOL    HW247811   5.194   4.779   5.003
81972SOL     OW47812   8.055   3.468   0.750
81972SOL    HW147813   8.070   3.388   0.701
81972SOL    HW247814   8.004   3.524   0.692
81973SOL     OW47815   5.088   4.012   8.932
81973SOL    HW147816   5.137   3.941   8.974
81973SOL    HW247817   5.136   4.028   8.850
81974SOL     OW47818   1.941  12.045   0.377
81974SOL    HW147819   1.960  11.961   0.420
81974SOL    HW247820   1.977  12.111   0.435
81975SOL     OW47821  13.744   9.291  11.198
81975SOL    HW147822  13.687   9.326  11.129
81975SOL    HW247823  13.688   9.230  11.247
81976SOL     OW47824   2.612   3.796   8.457
81976SOL    HW147825   2.693   3.835   8.424
81976SOL    HW247826   2.544   3.860   8.437
81977SOL     OW47827  13.609  11.058  10.638
81977SOL    HW147828  13.608  10.989  10.705
81977SOL    HW247829  13.668  11.124  10.673
81978SOL     OW47830   3.952  13.143   5.387
81978SOL    HW147831   3.883  13.205   5.411
81978SOL    HW247832   4.005  13.135   5.466
81979SOL     OW47833  10.912   8.171  11.233
81979SOL    HW147834  10.842   8.105  11.228
81979SOL    HW247835  10.867   8.253  11.250
81980SOL     OW47836   7.521   2.995   7.727
81980SOL    HW147837   7.521   2.989   7.631
81980SOL    HW247838   7.506   3.088   7.745
81981SOL     OW47839   5.759   0.076   8.081
81981SOL    HW147840   5.779  14.866   8.115
81981SOL    HW247841   5.795   0.076   7.993
81982SOL     OW47842   0.661   4.231   9.157
81982SOL    HW147843   0.588   4.194   9.107
81982SOL    HW247844   0.625   4.309   9.198
81983SOL     OW47845   8.520  13.635  12.923
81983SOL    HW147846   8.596  13.616  12.977
81983SOL    HW247847   8.517  13.731  12.919
81984SOL     OW47848  13.545  14.371   9.105
81984SOL    HW147849  13.471  14.418   9.066
81984SOL    HW247850  13.549  14.289   9.057
81985SOL     OW47851  13.002  13.085   4.883
81985SOL    HW147852  12.964  13.013   4.933
81985SOL    HW247853  13.090  13.096   4.918
81986SOL     OW47854   2.143  12.004   1.327
81986SOL    HW147855   2.182  12.089   1.307
81986SOL    HW247856   2.051  12.023   1.346
81987SOL     OW47857   1.394  10.286  10.838
81987SOL    HW147858   1.453  10.267  10.765
81987SOL    HW247859   1.425  10.369  10.874
81988SOL     OW47860  11.071   4.629   6.870
81988SOL    HW147861  11.066   4.651   6.962
81988SOL    HW247862  11.054   4.534   6.867
81989SOL     OW47863  13.644   2.248   6.663
81989SOL    HW147864  13.709   2.282   6.602
81989SOL    HW247865  13.595   2.183   6.612
81990SOL     OW47866   0.251   3.244   4.951
81990SOL    HW147867   0.208   3.159   4.961
81990SOL    HW247868   0.180   3.308   4.962
81991SOL     OW47869   4.707   5.433   4.630
81991SOL    HW147870   4.729   5.413   4.539
81991SOL    HW247871   4.693   5.528   4.630
81992SOL     OW47872   2.469   7.718   2.480
81992SOL    HW147873   2.549   7.702   2.530
81992SOL    HW247874   2.463   7.813   2.474
81993SOL     OW47875   1.015   8.190   2.788
81993SOL    HW147876   1.054   8.242   2.717
81993SOL    HW247877   1.082   8.125   2.809
81994SOL     OW47878  12.308   3.561  12.522
81994SOL    HW147879  12.382   3.583  12.578
81994SOL    HW247880  12.232   3.563  12.581
81995SOL     OW47881   6.884   5.190   0.089
81995SOL    HW147882   6.966   5.225   0.124
81995SOL    HW247883   6.843   5.264   0.045
81996SOL     OW47884  14.454  10.435   4.665
81996SOL    HW147885  14.522  10.495   4.696
81996SOL    HW247886  14.482  10.411   4.576
81997SOL     OW47887   1.305   5.517   9.950
81997SOL    HW147888   1.355   5.559  10.021
81997SOL    HW247889   1.331   5.425   9.954
81998SOL     OW47890  12.134   4.550   4.895
81998SOL    HW147891  12.137   4.580   4.804
81998SOL    HW247892  12.225   4.553   4.925
81999SOL     OW47893   1.069   4.003  11.006
81999SOL    HW147894   1.005   4.043  11.065
81999SOL    HW247895   1.017   3.946  10.949
82000SOL     OW47896   6.663  12.191   7.228
82000SOL    HW147897   6.641  12.109   7.271
82000SOL    HW247898   6.759  12.188   7.219
82001SOL     OW47899   8.025   3.193   2.685
82001SOL    HW147900   8.023   3.238   2.770
82001SOL    HW247901   7.981   3.253   2.625
82002SOL     OW47902  13.646  10.271   2.241
82002SOL    HW147903  13.640  10.196   2.299
82002SOL    HW247904  13.602  10.342   2.288
82003SOL     OW47905  14.401  13.756   0.464
82003SOL    HW147906  14.472  13.762   0.528
82003SOL    HW247907  14.419  13.675   0.415
82004SOL     OW47908  13.612   7.811  13.458
82004SOL    HW147909  13.565   7.728  13.448
82004SOL    HW247910  13.570   7.871  13.397
82005SOL     OW47911   8.711   2.898   5.255
82005SOL    HW147912   8.708   2.992   5.235
82005SOL    HW247913   8.655   2.888   5.332
82006SOL     OW47914  12.488   9.909   9.376
82006SOL    HW147915  12.515   9.977   9.314
82006SOL    HW247916  12.568   9.861   9.395
82007SOL     OW47917   1.074   8.303  10.113
82007SOL    HW147918   1.104   8.307  10.204
82007SOL    HW247919   0.997   8.361  10.111
82008SOL     OW47920  11.322  12.365   2.104
82008SOL    HW147921  11.274  12.423   2.163
82008SOL    HW247922  11.267  12.361   2.026
82009SOL     OW47923   2.102   0.862   5.085
82009SOL    HW147924   2.016   0.822   5.070
82009SOL    HW247925   2.165   0.796   5.055
82010SOL     OW47926   2.853  10.116   4.411
82010SOL    HW147927   2.935  10.113   4.362
82010SOL    HW247928   2.847  10.031   4.453
82011SOL     OW47929   8.534  14.829   2.295
82011SOL    HW147930   8.488   0.015   2.240
82011SOL    HW247931   8.476  14.753   2.298
82012SOL     OW47932   4.807   1.366  10.815
82012SOL    HW147933   4.900   1.367  10.793
82012SOL    HW247934   4.785   1.274  10.826
82013SOL     OW47935   8.454   9.075   5.040
82013SOL    HW147936   8.485   9.086   4.950
82013SOL    HW247937   8.364   9.043   5.030
82014SOL     OW47938   2.183   6.502   7.811
82014SOL    HW147939   2.185   6.407   7.802
82014SOL    HW247940   2.189   6.534   7.720
82015SOL     OW47941   1.005  13.375   6.698
82015SOL    HW147942   1.030  13.459   6.737
82015SOL    HW247943   0.960  13.328   6.769
82016SOL     OW47944   8.848   1.637   2.288
82016SOL    HW147945   8.797   1.574   2.236
82016SOL    HW247946   8.883   1.586   2.360
82017SOL     OW47947   4.528   5.770   1.674
82017SOL    HW147948   4.617   5.760   1.708
82017SOL    HW247949   4.538   5.816   1.591
82018SOL     OW47950  10.079  11.831   0.912
82018SOL    HW147951  10.110  11.884   0.838
82018SOL    HW247952  10.103  11.742   0.890
82019SOL     OW47953   0.930  12.262   3.043
82019SOL    HW147954   0.916  12.356   3.057
82019SOL    HW247955   0.999  12.258   2.977
82020SOL     OW47956   1.870  13.581   9.248
82020SOL    HW147957   1.832  13.511   9.194
82020SOL    HW247958   1.808  13.653   9.241
82021SOL     OW47959  12.394  13.196  13.627
82021SOL    HW147960  12.356  13.211  13.713
82021SOL    HW247961  12.378  13.103  13.609
82022SOL     OW47962   1.871  12.313  12.231
82022SOL    HW147963   1.791  12.366  12.234
82022SOL    HW247964   1.878  12.275  12.318
82023SOL     OW47965   3.351  13.777  10.218
82023SOL    HW147966   3.345  13.830  10.298
82023SOL    HW247967   3.272  13.723  10.219
82024SOL     OW47968   8.858   2.189  10.851
82024SOL    HW147969   8.872   2.283  10.863
82024SOL    HW247970   8.939   2.149  10.883
82025SOL     OW47971  12.966  11.128   8.904
82025SOL    HW147972  13.019  11.049   8.890
82025SOL    HW247973  12.877  11.100   8.882
82026SOL     OW47974  12.182   7.818  11.823
82026SOL    HW147975  12.193   7.831  11.729
82026SOL    HW247976  12.126   7.890  11.851
82027SOL     OW47977   8.332  12.750   7.044
82027SOL    HW147978   8.302  12.660   7.057
82027SOL    HW247979   8.408  12.758   7.102
82028SOL     OW47980  12.721   9.242   1.425
82028SOL    HW147981  12.752   9.252   1.515
82028SOL    HW247982  12.649   9.305   1.418
82029SOL     OW47983   9.535  13.061   6.557
82029SOL    HW147984   9.602  13.034   6.620
82029SOL    HW247985   9.473  13.112   6.608
82030SOL     OW47986   1.227   2.860  10.305
82030SOL    HW147987   1.239   2.951  10.333
82030SOL    HW247988   1.148   2.832  10.352
82031SOL     OW47989   6.999   0.979   6.684
82031SOL    HW147990   6.937   0.915   6.719
82031SOL    HW247991   6.989   1.055   6.742
82032SOL     OW47992   0.679   2.953  12.631
82032SOL    HW147993   0.616   2.996  12.689
82032SOL    HW247994   0.630   2.937  12.550
82033SOL     OW47995   2.007   6.453  14.806
82033SOL    HW147996   1.927   6.408  14.779
82033SOL    HW247997   2.068   6.440  14.733
82034SOL     OW47998   8.840   6.781   5.760
82034SOL    HW147999   8.799   6.753   5.842
82034SOL    HW248000   8.772   6.831   5.715
82035SOL     OW48001   4.108   2.286   6.897
82035SOL    HW148002   4.043   2.319   6.959
82035SOL    HW248003   4.192   2.309   6.936
82036SOL     OW48004   4.454  11.880  12.424
82036SOL    HW148005   4.532  11.874  12.480
82036SOL    HW248006   4.419  11.967  12.441
82037SOL     OW48007   8.755   3.712  10.648
82037SOL    HW148008   8.739   3.801  10.616
82037SOL    HW248009   8.795   3.724  10.734
82038SOL     OW48010   2.418   3.767   4.859
82038SOL    HW148011   2.335   3.720   4.858
82038SOL    HW248012   2.479   3.710   4.812
82039SOL     OW48013   3.571  11.312   0.728
82039SOL    HW148014   3.511  11.381   0.698
82039SOL    HW248015   3.631  11.356   0.788
82040SOL     OW48016   0.535   9.524   7.233
82040SOL    HW148017   0.480   9.529   7.310
82040SOL    HW248018   0.552   9.616   7.209
82041SOL     OW48019   4.955   0.372   0.989
82041SOL    HW148020   4.953   0.340   0.899
82041SOL    HW248021   4.979   0.296   1.042
82042SOL     OW48022  10.598  11.777   8.317
82042SOL    HW148023  10.640  11.691   8.305
82042SOL    HW248024  10.536  11.784   8.245
82043SOL     OW48025   0.171   7.098   0.450
82043SOL    HW148026   0.140   7.188   0.438
82043SOL    HW248027   0.091   7.047   0.461
82044SOL     OW48028   3.960   5.499   1.304
82044SOL    HW148029   4.031   5.439   1.327
82044SOL    HW248030   3.880   5.453   1.331
82045SOL     OW48031  10.841  11.578   0.784
82045SOL    HW148032  10.835  11.666   0.747
82045SOL    HW248033  10.811  11.520   0.714
82046SOL     OW48034   6.098  13.844   8.550
82046SOL    HW148035   6.071  13.804   8.633
82046SOL    HW248036   6.186  13.809   8.535
82047SOL     OW48037   7.604   2.782   5.468
82047SOL    HW148038   7.576   2.747   5.384
82047SOL    HW248039   7.571   2.872   5.469
82048SOL     OW48040   3.134   1.975   9.878
82048SOL    HW148041   3.069   1.974   9.808
82048SOL    HW248042   3.127   2.062   9.916
82049SOL     OW48043   3.814  11.227   0.621
82049SOL    HW148044   3.724  11.253   0.642
82049SOL    HW248045   3.830  11.265   0.535
82050SOL     OW48046   2.191   4.681   0.685
82050SOL    HW148047   2.157   4.616   0.747
82050SOL    HW248048   2.113   4.714   0.640
82051SOL     OW48049  12.445  13.694  11.808
82051SOL    HW148050  12.447  13.709  11.903
82051SOL    HW248051  12.454  13.599  11.799
82052SOL     OW48052   0.550   5.191  11.001
82052SOL    HW148053   0.523   5.124  10.939
82052SOL    HW248054   0.636   5.219  10.971
82053SOL     OW48055   2.998   4.195   1.736
82053SOL    HW148056   3.038   4.282   1.739
82053SOL    HW248057   2.995   4.166   1.827
82054SOL     OW48058  10.374  12.337   2.919
82054SOL    HW148059  10.392  12.296   3.003
82054SOL    HW248060  10.293  12.385   2.932
82055SOL     OW48061  14.666   6.787   5.961
82055SOL    HW148062  14.752   6.793   6.002
82055SOL    HW248063  14.642   6.694   5.968
82056SOL     OW48064  14.378   6.888   9.609
82056SOL    HW148065  14.409   6.840   9.532
82056SOL    HW248066  14.299   6.932   9.578
82057SOL     OW48067   0.756  10.993  14.309
82057SOL    HW148068   0.805  10.959  14.234
82057SOL    HW248069   0.770  11.088  14.306
82058SOL     OW48070   9.180   4.290  10.925
82058SOL    HW148071   9.266   4.299  10.884
82058SOL    HW248072   9.117   4.304  10.854
82059SOL     OW48073   9.792  13.793   1.915
82059SOL    HW148074   9.875  13.840   1.916
82059SOL    HW248075   9.740  13.838   1.849
82060SOL     OW48076  14.249   8.845  13.243
82060SOL    HW148077  14.323   8.897  13.212
82060SOL    HW248078  14.183   8.911  13.268
82061SOL     OW48079   5.754   2.590   8.874
82061SOL    HW148080   5.807   2.667   8.854
82061SOL    HW248081   5.811   2.516   8.855
82062SOL     OW48082  13.852  12.779   5.571
82062SOL    HW148083  13.834  12.737   5.487
82062SOL    HW248084  13.899  12.712   5.621
82063SOL     OW48085  14.645   3.090  10.219
82063SOL    HW148086  14.585   3.163  10.234
82063SOL    HW248087  14.634   3.068  10.127
82064SOL     OW48088  13.194   2.995   0.728
82064SOL    HW148089  13.136   2.983   0.803
82064SOL    HW248090  13.273   2.946   0.750
82065SOL     OW48091   1.324   4.698  14.174
82065SOL    HW148092   1.298   4.747  14.252
82065SOL    HW248093   1.245   4.650  14.148
82066SOL     OW48094  12.340   6.238  11.616
82066SOL    HW148095  12.249   6.215  11.597
82066SOL    HW248096  12.391   6.166  11.577
82067SOL     OW48097   1.732   1.286  12.829
82067SOL    HW148098   1.817   1.323  12.804
82067SOL    HW248099   1.747   1.192  12.834
82068SOL     OW48100  10.312   9.106  12.791
82068SOL    HW148101  10.271   9.191  12.798
82068SOL    HW248102  10.346   9.089  12.879
82069SOL     OW48103  13.342   4.862  13.745
82069SOL    HW148104  13.436   4.850  13.733
82069SOL    HW248105  13.321   4.813  13.824
82070SOL     OW48106   6.881   7.362   1.005
82070SOL    HW148107   6.833   7.428   0.955
82070SOL    HW248108   6.949   7.411   1.050
82071SOL     OW48109   8.644   9.052   2.336
82071SOL    HW148110   8.573   8.995   2.308
82071SOL    HW248111   8.717   8.992   2.355
82072SOL     OW48112  13.880  10.422  13.707
82072SOL    HW148113  13.877  10.447  13.614
82072SOL    HW248114  13.857  10.502  13.754
82073SOL     OW48115  14.569   0.980  13.644
82073SOL    HW148116  14.615   0.935  13.573
82073SOL    HW248117  14.598   1.071  13.638
82074SOL     OW48118   1.691  10.267   1.614
82074SOL    HW148119   1.613  10.308   1.576
82074SOL    HW248120   1.672  10.174   1.615
82075SOL     OW48121   2.263  13.089   4.986
82075SOL    HW148122   2.263  13.048   5.072
82075SOL    HW248123   2.353  13.082   4.956
82076SOL     OW48124   6.873   5.814  13.476
82076SOL    HW148125   6.962   5.832  13.445
82076SOL    HW248126   6.868   5.718  13.478
82077SOL     OW48127   2.877   7.616  10.611
82077SOL    HW148128   2.869   7.573  10.696
82077SOL    HW248129   2.890   7.709  10.632
82078SOL     OW48130   5.812  12.600   0.147
82078SOL    HW148131   5.776  12.646   0.072
82078SOL    HW248132   5.773  12.513   0.144
82079SOL     OW48133  10.332  14.629   5.986
82079SOL    HW148134  10.355  14.576   5.910
82079SOL    HW248135  10.411  14.631   6.039
82080SOL     OW48136   1.613   9.639  13.897
82080SOL    HW148137   1.533   9.638  13.950
82080SOL    HW248138   1.583   9.657  13.808
82081SOL     OW48139   0.407   4.058  10.241
82081SOL    HW148140   0.407   4.016  10.155
82081SOL    HW248141   0.351   4.136  10.229
82082SOL     OW48142   0.040   0.286   9.436
82082SOL    HW148143   0.011   0.299   9.526
82082SOL    HW248144  14.849   0.326   9.383
82083SOL     OW48145   9.428  13.221   7.816
82083SOL    HW148146   9.492  13.151   7.828
82083SOL    HW248147   9.382  13.226   7.900
82084SOL     OW48148   9.172   1.720   4.919
82084SOL    HW148149   9.190   1.791   4.857
82084SOL    HW248150   9.257   1.678   4.931
82085SOL     OW48151  10.963   5.559   0.203
82085SOL    HW148152  10.897   5.512   0.254
82085SOL    HW248153  10.932   5.650   0.202
82086SOL     OW48154  10.645  10.516  13.390
82086SOL    HW148155  10.552  10.510  13.370
82086SOL    HW248156  10.658  10.608  13.415
82087SOL     OW48157  10.733  10.308   7.987
82087SOL    HW148158  10.710  10.268   8.071
82087SOL    HW248159  10.750  10.233   7.929
82088SOL     OW48160  11.619   7.234   0.056
82088SOL    HW148161  11.696   7.274   0.017
82088SOL    HW248162  11.562   7.213  14.859
82089SOL     OW48163   4.156  13.015  14.368
82089SOL    HW148164   4.176  13.022  14.461
82089SOL    HW248165   4.220  12.952  14.334
82090SOL     OW48166   7.473   5.395   0.537
82090SOL    HW148167   7.448   5.314   0.582
82090SOL    HW248168   7.564   5.410   0.565
82091SOL     OW48169   2.685   2.730   6.660
82091SOL    HW148170   2.652   2.785   6.589
82091SOL    HW248171   2.676   2.784   6.739
82092SOL     OW48172   9.655   9.507  12.428
82092SOL    HW148173   9.582   9.503  12.490
82092SOL    HW248174   9.673   9.415  12.406
82093SOL     OW48175  11.801   0.261  12.054
82093SOL    HW148176  11.761   0.334  12.101
82093SOL    HW248177  11.816   0.194  12.120
82094SOL     OW48178   8.939   4.637   4.598
82094SOL    HW148179   8.874   4.690   4.552
82094SOL    HW248180   8.891   4.599   4.671
82095SOL     OW48181   4.633   9.330   8.959
82095SOL    HW148182   4.539   9.347   8.968
82095SOL    HW248183   4.659   9.380   8.883
82096SOL     OW48184   1.132  13.086   1.501
82096SOL    HW148185   1.081  13.006   1.486
82096SOL    HW248186   1.074  13.142   1.552
82097SOL     OW48187  10.656   3.687  12.974
82097SOL    HW148188  10.738   3.728  13.001
82097SOL    HW248189  10.676   3.644  12.891
82098SOL     OW48190   5.209   3.794   9.046
82098SOL    HW148191   5.298   3.759   9.035
82098SOL    HW248192   5.169   3.737   9.112
82099SOL     OW48193   9.029   6.937   0.257
82099SOL    HW148194   9.107   6.904   0.212
82099SOL    HW248195   8.999   7.010   0.203
82100SOL     OW48196   4.958  10.826   0.734
82100SOL    HW148197   4.994  10.739   0.750
82100SOL    HW248198   4.868  10.821   0.765
82101SOL     OW48199  10.379  13.606   4.685
82101SOL    HW148200  10.304  13.651   4.646
82101SOL    HW248201  10.405  13.541   4.620
82102SOL     OW48202   3.707   1.056  11.845
82102SOL    HW148203   3.677   1.143  11.821
82102SOL    HW248204   3.732   1.063  11.937
82103SOL     OW48205  12.031  13.207   5.308
82103SOL    HW148206  11.973  13.255   5.367
82103SOL    HW248207  12.061  13.132   5.360
82104SOL     OW48208   6.512   5.449   1.484
82104SOL    HW148209   6.488   5.523   1.428
82104SOL    HW248210   6.547   5.490   1.563
82105SOL     OW48211  12.632  10.869   9.743
82105SOL    HW148212  12.576  10.918   9.683
82105SOL    HW248213  12.598  10.889   9.830
82106SOL     OW48214   5.291  11.400   0.295
82106SOL    HW148215   5.258  11.466   0.235
82106SOL    HW248216   5.379  11.379   0.263
82107SOL     OW48217   1.586  12.483   1.101
82107SOL    HW148218   1.629  12.397   1.107
82107SOL    HW248219   1.616  12.531   1.178
82108SOL     OW48220  12.145   7.560   2.742
82108SOL    HW148221  12.183   7.476   2.768
82108SOL    HW248222  12.217   7.623   2.750
82109SOL     OW48223  10.915  10.859  14.670
82109SOL    HW148224  11.000  10.897  14.691
82109SOL    HW248225  10.935  10.773  14.632
82110SOL     OW48226   9.326   8.305  11.932
82110SOL    HW148227   9.281   8.221  11.945
82110SOL    HW248228   9.266   8.370  11.969
82111SOL     OW48229   2.382   7.379   0.301
82111SOL    HW148230   2.366   7.341   0.387
82111SOL    HW248231   2.319   7.451   0.294
82112SOL     OW48232  14.327   3.446   2.840
82112SOL    HW148233  14.330   3.539   2.860
82112SOL    HW248234  14.308   3.441   2.746
82113SOL     OW48235   3.626  13.779   7.522
82113SOL    HW148236   3.609  13.856   7.468
82113SOL    HW248237   3.598  13.705   7.469
82114SOL     OW48238  14.390  12.156  10.772
82114SOL    HW148239  14.475  12.192  10.797
82114SOL    HW248240  14.403  12.062  10.772
82115SOL     OW48241   6.250   5.530  11.473
82115SOL    HW148242   6.285   5.604  11.524
82115SOL    HW248243   6.203   5.571  11.400
82116SOL     OW48244   2.109   5.171  14.347
82116SOL    HW148245   2.153   5.196  14.266
82116SOL    HW248246   2.136   5.238  14.410
82117SOL     OW48247   1.741  13.281   3.011
82117SOL    HW148248   1.820  13.227   3.006
82117SOL    HW248249   1.691  13.243   3.084
82118SOL     OW48250  10.575   4.911   1.591
82118SOL    HW148251  10.512   4.870   1.532
82118SOL    HW248252  10.561   5.005   1.580
82119SOL     OW48253   1.992   7.881   4.237
82119SOL    HW148254   2.075   7.847   4.271
82119SOL    HW248255   2.000   7.976   4.245
82120SOL     OW48256   2.634   0.050   9.075
82120SOL    HW148257   2.578   0.084   9.005
82120SOL    HW248258   2.673   0.128   9.114
82121SOL     OW48259   4.212   5.789  11.055
82121SOL    HW148260   4.219   5.820  10.965
82121SOL    HW248261   4.301   5.799  11.091
82122SOL     OW48262  13.015  14.023  13.916
82122SOL    HW148263  12.922  14.034  13.933
82122SOL    HW248264  13.058  14.086  13.974
82123SOL     OW48265   6.945  13.615   2.750
82123SOL    HW148266   6.968  13.551   2.683
82123SOL    HW248267   6.854  13.595   2.772
82124SOL     OW48268   0.107   8.959  13.091
82124SOL    HW148269   0.086   8.928  13.179
82124SOL    HW248270   0.066   8.895  13.033
82125SOL     OW48271   6.662   1.196  11.849
82125SOL    HW148272   6.627   1.211  11.761
82125SOL    HW248273   6.744   1.148  11.834
82126SOL     OW48274  11.147   8.039  12.015
82126SOL    HW148275  11.071   7.986  11.990
82126SOL    HW248276  11.130   8.126  11.979
82127SOL     OW48277   8.911  10.209   5.579
82127SOL    HW148278   8.897  10.184   5.670
82127SOL    HW248279   8.834  10.178   5.533
82128SOL     OW48280   2.990   6.413   8.809
82128SOL    HW148281   3.072   6.460   8.792
82128SOL    HW248282   2.931   6.443   8.741
82129SOL     OW48283   6.232  14.262   8.356
82129SOL    HW148284   6.282  14.186   8.325
82129SOL    HW248285   6.211  14.240   8.447
82130SOL     OW48286   8.256  13.467   5.546
82130SOL    HW148287   8.241  13.515   5.628
82130SOL    HW248288   8.206  13.385   5.557
82131SOL     OW48289   3.288  14.033   4.195
82131SOL    HW148290   3.306  14.110   4.249
82131SOL    HW248291   3.200  14.047   4.161
82132SOL     OW48292  10.454   7.517   9.551
82132SOL    HW148293  10.501   7.600   9.558
82132SOL    HW248294  10.362   7.542   9.548
82133SOL     OW48295   9.704   3.789  13.696
82133SOL    HW148296   9.700   3.705  13.741
82133SOL    HW248297   9.791   3.793  13.657
82134SOL     OW48298  12.431   6.668   3.493
82134SOL    HW148299  12.513   6.688   3.538
82134SOL    HW248300  12.364   6.677   3.561
82135SOL     OW48301   4.538   0.478   4.970
82135SOL    HW148302   4.463   0.449   5.022
82135SOL    HW248303   4.507   0.474   4.879
82136SOL     OW48304   6.781   5.870  12.744
82136SOL    HW148305   6.865   5.891  12.784
82136SOL    HW248306   6.732   5.826  12.813
82137SOL     OW48307   1.246   7.973  12.737
82137SOL    HW148308   1.313   8.027  12.696
82137SOL    HW248309   1.244   7.893  12.685
82138SOL     OW48310   1.160   6.111   7.319
82138SOL    HW148311   1.233   6.116   7.381
82138SOL    HW248312   1.148   6.201   7.289
82139SOL     OW48313   9.829   4.061  14.792
82139SOL    HW148314   9.849   4.153  14.810
82139SOL    HW248315   9.826   4.020   0.000
82140SOL     OW48316   8.554  14.677   3.570
82140SOL    HW148317   8.484  14.666   3.634
82140SOL    HW248318   8.601  14.756   3.599
82141SOL     OW48319   1.678   1.717  11.498
82141SOL    HW148320   1.733   1.662  11.441
82141SOL    HW248321   1.589   1.694  11.472
82142SOL     OW48322   0.517  12.106   4.326
82142SOL    HW148323   0.466  12.178   4.288
82142SOL    HW248324   0.547  12.056   4.250
82143SOL     OW48325   0.339   6.539   9.599
82143SOL    HW148326   0.309   6.449   9.606
82143SOL    HW248327   0.292   6.575   9.524
82144SOL     OW48328   1.970   4.286  13.678
82144SOL    HW148329   2.050   4.257  13.721
82144SOL    HW248330   1.999   4.324  13.595
82145SOL     OW48331   8.505   8.400   5.839
82145SOL    HW148332   8.514   8.408   5.744
82145SOL    HW248333   8.420   8.439   5.859
82146SOL     OW48334   3.651  14.075  13.509
82146SOL    HW148335   3.565  14.071  13.466
82146SOL    HW248336   3.632  14.109  13.596
82147SOL     OW48337   2.781   0.060   6.092
82147SOL    HW148338   2.817   0.128   6.035
82147SOL    HW248339   2.693   0.044   6.057
82148SOL     OW48340   6.848   8.042   5.316
82148SOL    HW148341   6.915   8.081   5.260
82148SOL    HW248342   6.846   7.950   5.290
82149SOL     OW48343   5.220   9.758  13.456
82149SOL    HW148344   5.195   9.678  13.409
82149SOL    HW248345   5.137   9.798  13.481
82150SOL     OW48346  10.440  12.596  12.107
82150SOL    HW148347  10.526  12.554  12.101
82150SOL    HW248348  10.451  12.663  12.175
82151SOL     OW48349  12.226  10.878   8.918
82151SOL    HW148350  12.226  10.968   8.949
82151SOL    HW248351  12.264  10.827   8.990
82152SOL     OW48352   4.250   9.913  12.014
82152SOL    HW148353   4.273   9.900  12.106
82152SOL    HW248354   4.322   9.873  11.965
82153SOL     OW48355  10.672  10.379   6.731
82153SOL    HW148356  10.703  10.349   6.817
82153SOL    HW248357  10.647  10.299   6.685
82154SOL     OW48358  14.212  11.521   7.714
82154SOL    HW148359  14.207  11.474   7.631
82154SOL    HW248360  14.278  11.588   7.700
82155SOL     OW48361   1.464   9.667   9.521
82155SOL    HW148362   1.430   9.744   9.475
82155SOL    HW248363   1.398   9.599   9.504
82156SOL     OW48364   3.849   4.343   7.564
82156SOL    HW148365   3.801   4.366   7.484
82156SOL    HW248366   3.853   4.425   7.614
82157SOL     OW48367   3.242  10.141  10.199
82157SOL    HW148368   3.242  10.201  10.274
82157SOL    HW248369   3.243  10.054  10.238
82158SOL     OW48370   4.069  10.319   3.880
82158SOL    HW148371   4.156  10.279   3.880
82158SOL    HW248372   4.085  10.413   3.884
82159SOL     OW48373   3.356   1.288   6.430
82159SOL    HW148374   3.364   1.206   6.381
82159SOL    HW248375   3.431   1.289   6.488
82160SOL     OW48376   8.445  12.966   7.799
82160SOL    HW148377   8.485  12.900   7.856
82160SOL    HW248378   8.352  12.965   7.822
82161SOL     OW48379  10.462   8.135  10.199
82161SOL    HW148380  10.419   8.131  10.113
82161SOL    HW248381  10.390   8.126  10.262
82162SOL     OW48382   9.797   0.689   4.744
82162SOL    HW148383   9.890   0.688   4.722
82162SOL    HW248384   9.774   0.782   4.744
82163SOL     OW48385   7.165   3.385   3.272
82163SOL    HW148386   7.148   3.472   3.237
82163SOL    HW248387   7.150   3.394   3.366
82164SOL     OW48388  12.804   1.609   6.587
82164SOL    HW148389  12.882   1.636   6.538
82164SOL    HW248390  12.763   1.543   6.532
82165SOL     OW48391  13.945  13.544  14.793
82165SOL    HW148392  13.922  13.620  14.848
82165SOL    HW248393  13.879  13.544  14.724
82166SOL     OW48394  10.780   4.669   2.227
82166SOL    HW148395  10.831   4.724   2.287
82166SOL    HW248396  10.693   4.708   2.229
82167SOL     OW48397  11.160  13.926   3.682
82167SOL    HW148398  11.087  13.865   3.692
82167SOL    HW248399  11.236  13.877   3.715
82168SOL     OW48400  11.229   4.823   8.032
82168SOL    HW148401  11.135   4.827   8.048
82168SOL    HW248402  11.249   4.902   7.982
82169SOL     OW48403  11.197  10.828   7.247
82169SOL    HW148404  11.260  10.900   7.253
82169SOL    HW248405  11.166  10.831   7.156
82170SOL     OW48406  14.437   0.765   9.930
82170SOL    HW148407  14.478   0.851   9.926
82170SOL    HW248408  14.343   0.783   9.939
82171SOL     OW48409  10.460   5.472   5.782
82171SOL    HW148410  10.471   5.507   5.694
82171SOL    HW248411  10.544   5.432   5.804
82172SOL     OW48412   3.515  14.528   1.632
82172SOL    HW148413   3.461  14.472   1.687
82172SOL    HW248414   3.547  14.597   1.691
82173SOL     OW48415  13.400   4.933  13.453
82173SOL    HW148416  13.358   5.003  13.504
82173SOL    HW248417  13.328   4.881  13.419
82174SOL     OW48418   9.059   3.719   6.474
82174SOL    HW148419   9.000   3.675   6.413
82174SOL    HW248420   9.140   3.731   6.426
82175SOL     OW48421   0.036   4.564  12.301
82175SOL    HW148422  14.838   4.613  12.268
82175SOL    HW248423   0.057   4.606  12.385
82176SOL     OW48424   5.435  12.728   4.257
82176SOL    HW148425   5.379  12.745   4.333
82176SOL    HW248426   5.524  12.741   4.290
82177SOL     OW48427   4.599   9.940  10.906
82177SOL    HW148428   4.617   9.992  10.828
82177SOL    HW248429   4.648   9.984  10.976
82178SOL     OW48430  13.381   8.750   6.058
82178SOL    HW148431  13.449   8.694   6.095
82178SOL    HW248432  13.402   8.754   5.964
82179SOL     OW48433  11.982  12.876   2.820
82179SOL    HW148434  11.989  12.798   2.875
82179SOL    HW248435  11.892  12.907   2.835
82180SOL     OW48436   9.715  13.250   0.017
82180SOL    HW148437   9.808  13.252  14.873
82180SOL    HW248438   9.684  13.339  14.875
82181SOL     OW48439  13.163   3.410   0.991
82181SOL    HW148440  13.227   3.478   1.013
82181SOL    HW248441  13.166   3.405   0.896
82182SOL     OW48442   4.482   7.582   6.479
82182SOL    HW148443   4.572   7.617   6.479
82182SOL    HW248444   4.493   7.488   6.464
82183SOL     OW48445   0.431   7.638  11.857
82183SOL    HW148446   0.384   7.666  11.778
82183SOL    HW248447   0.391   7.555  11.881
82184SOL     OW48448  11.738  13.836   1.865
82184SOL    HW148449  11.781  13.752   1.884
82184SOL    HW248450  11.741  13.884   1.947
82185SOL     OW48451   0.556  13.692   8.446
82185SOL    HW148452   0.605  13.767   8.411
82185SOL    HW248453   0.623  13.636   8.485
82186SOL     OW48454   9.981  10.985   1.291
82186SOL    HW148455   9.994  11.080   1.298
82186SOL    HW248456   9.907  10.976   1.231
82187SOL     OW48457   3.097   9.783   5.958
82187SOL    HW148458   3.074   9.702   6.003
82187SOL    HW248459   3.063   9.772   5.869
82188SOL     OW48460   7.684  12.535   4.468
82188SOL    HW148461   7.644  12.581   4.395
82188SOL    HW248462   7.778  12.541   4.450
82189SOL     OW48463  11.279   0.332   4.541
82189SOL    HW148464  11.329   0.412   4.523
82189SOL    HW248465  11.241   0.347   4.627
82190SOL     OW48466   4.137   2.480  11.370
82190SOL    HW148467   4.124   2.558  11.317
82190SOL    HW248468   4.194   2.423  11.318
82191SOL     OW48469   8.692   8.513  13.309
82191SOL    HW148470   8.679   8.460  13.387
82191SOL    HW248471   8.739   8.456  13.249
82192SOL     OW48472   0.626   6.035   6.193
82192SOL    HW148473   0.707   6.081   6.214
82192SOL    HW248474   0.650   5.972   6.125
82193SOL     OW48475  11.469   4.267   9.927
82193SOL    HW148476  11.470   4.331   9.998
82193SOL    HW248477  11.376   4.255   9.907
82194SOL     OW48478   2.052   8.397   0.953
82194SOL    HW148479   2.038   8.396   1.048
82194SOL    HW248480   2.071   8.306   0.930
82195SOL     OW48481   1.828   8.172   6.128
82195SOL    HW148482   1.750   8.132   6.091
82195SOL    HW248483   1.800   8.259   6.157
82196SOL     OW48484   8.160   4.388   7.524
82196SOL    HW148485   8.193   4.357   7.608
82196SOL    HW248486   8.078   4.433   7.546
82197SOL     OW48487   7.765   7.288  10.176
82197SOL    HW148488   7.674   7.278  10.149
82197SOL    HW248489   7.783   7.381  10.166
82198SOL     OW48490   8.780  12.015   6.138
82198SOL    HW148491   8.760  12.063   6.058
82198SOL    HW248492   8.820  12.080   6.196
82199SOL     OW48493  14.493  12.463   8.154
82199SOL    HW148494  14.406  12.428   8.135
82199SOL    HW248495  14.494  12.549   8.113
82200SOL     OW48496   6.574   3.668   5.933
82200SOL    HW148497   6.630   3.724   5.879
82200SOL    HW248498   6.549   3.596   5.876
82201SOL     OW48499  10.758   6.570  13.100
82201SOL    HW148500  10.740   6.621  13.021
82201SOL    HW248501  10.854   6.573  13.109
82202SOL     OW48502   3.302   5.504   4.296
82202SOL    HW148503   3.370   5.563   4.330
82202SOL    HW248504   3.275   5.453   4.372
82203SOL     OW48505   1.440  13.900   2.784
82203SOL    HW148506   1.398  13.850   2.854
82203SOL    HW248507   1.412  13.855   2.704
82204SOL     OW48508   7.444  10.374   6.043
82204SOL    HW148509   7.409  10.409   6.125
82204SOL    HW248510   7.376  10.314   6.012
82205SOL     OW48511   3.520   9.205  13.737
82205SOL    HW148512   3.570   9.240  13.811
82205SOL    HW248513   3.560   9.244  13.660
82206SOL     OW48514   2.574   3.825   2.103
82206SOL    HW148515   2.613   3.883   2.037
82206SOL    HW248516   2.552   3.746   2.054
82207SOL     OW48517   2.033   8.240  13.636
82207SOL    HW148518   2.003   8.170  13.693
82207SOL    HW248519   2.110   8.204  13.592
82208SOL     OW48520   4.513   1.771   1.240
82208SOL    HW148521   4.468   1.709   1.182
82208SOL    HW248522   4.462   1.851   1.234
82209SOL     OW48523   0.572   5.402  12.048
82209SOL    HW148524   0.646   5.351  12.016
82209SOL    HW248525   0.609   5.462  12.112
82210SOL     OW48526   8.347  10.148   5.484
82210SOL    HW148527   8.344  10.196   5.401
82210SOL    HW248528   8.345  10.056   5.458
82211SOL     OW48529   8.737  14.124   2.578
82211SOL    HW148530   8.682  14.156   2.649
82211SOL    HW248531   8.762  14.036   2.604
82212SOL     OW48532  10.228   0.066  13.541
82212SOL    HW148533  10.182   0.002  13.596
82212SOL    HW248534  10.234   0.144  13.596
82213SOL     OW48535   0.637   2.260   8.457
82213SOL    HW148536   0.591   2.278   8.375
82213SOL    HW248537   0.639   2.164   8.463
82214SOL     OW48538   2.702   4.840   2.978
82214SOL    HW148539   2.654   4.922   2.992
82214SOL    HW248540   2.634   4.773   2.975
82215SOL     OW48541   5.456  14.681   7.626
82215SOL    HW148542   5.536  14.683   7.679
82215SOL    HW248543   5.481  14.631   7.548
82216SOL     OW48544   6.206   1.430  12.660
82216SOL    HW148545   6.169   1.518  12.654
82216SOL    HW248546   6.197   1.395  12.571
82217SOL     OW48547  11.182   8.894   8.135
82217SOL    HW148548  11.163   8.987   8.143
82217SOL    HW248549  11.263   8.881   8.186
82218SOL     OW48550  10.519  13.507   3.948
82218SOL    HW148551  10.509  13.413   3.967
82218SOL    HW248552  10.459  13.549   4.009
82219SOL     OW48553   5.927   0.018   0.146
82219SOL    HW148554   6.005   0.059   0.183
82219SOL    HW248555   5.854   0.066   0.185
82220SOL     OW48556   3.116  10.183  11.138
82220SOL    HW148557   3.037  10.183  11.192
82220SOL    HW248558   3.184  10.150  11.196
82221SOL     OW48559   9.777  10.008   4.739
82221SOL    HW148560   9.715  10.016   4.811
82221SOL    HW248561   9.838  10.081   4.752
82222SOL     OW48562   8.991   0.379  12.169
82222SOL    HW148563   8.967   0.398  12.079
82222SOL    HW248564   8.914   0.402  12.220
82223SOL     OW48565  11.681   2.452   8.111
82223SOL    HW148566  11.763   2.481   8.150
82223SOL    HW248567  11.661   2.370   8.155
82224SOL     OW48568   4.317   5.287   7.124
82224SOL    HW148569   4.364   5.358   7.079
82224SOL    HW248570   4.333   5.303   7.217
82225SOL     OW48571   2.743   7.711  14.601
82225SOL    HW148572   2.740   7.662  14.683
82225SOL    HW248573   2.657   7.697  14.561
82226SOL     OW48574   6.926   6.943   9.135
82226SOL    HW148575   6.987   6.883   9.177
82226SOL    HW248576   6.953   7.030   9.163
82227SOL     OW48577  13.482   2.210   5.153
82227SOL    HW148578  13.537   2.187   5.228
82227SOL    HW248579  13.429   2.283   5.184
82228SOL     OW48580   2.737   8.892   4.835
82228SOL    HW148581   2.718   8.838   4.912
82228SOL    HW248582   2.693   8.848   4.763
82229SOL     OW48583   5.613   6.791   1.856
82229SOL    HW148584   5.620   6.886   1.840
82229SOL    HW248585   5.703   6.759   1.851
82230SOL     OW48586  14.547   4.993   0.445
82230SOL    HW148587  14.473   5.022   0.499
82230SOL    HW248588  14.537   4.898   0.439
82231SOL     OW48589   2.107   3.729   9.673
82231SOL    HW148590   2.081   3.803   9.727
82231SOL    HW248591   2.058   3.655   9.710
82232SOL     OW48592   5.329   9.458  11.414
82232SOL    HW148593   5.403   9.408  11.381
82232SOL    HW248594   5.310   9.523  11.346
82233SOL     OW48595  14.379   1.939   8.909
82233SOL    HW148596  14.331   1.866   8.870
82233SOL    HW248597  14.427   1.900   8.982
82234SOL     OW48598   4.513   8.428   1.020
82234SOL    HW148599   4.490   8.337   1.006
82234SOL    HW248600   4.599   8.438   0.979
82235SOL     OW48601   2.247  14.474  12.508
82235SOL    HW148602   2.248  14.513  12.421
82235SOL    HW248603   2.156  14.445  12.520
82236SOL     OW48604   4.127   3.426   6.858
82236SOL    HW148605   4.145   3.480   6.934
82236SOL    HW248606   4.034   3.405   6.864
82237SOL     OW48607   9.780   3.122   3.905
82237SOL    HW148608   9.804   3.166   3.986
82237SOL    HW248609   9.822   3.173   3.836
82238SOL     OW48610   6.022   3.971   5.180
82238SOL    HW148611   5.928   3.972   5.199
82238SOL    HW248612   6.064   3.984   5.265
82239SOL     OW48613  14.538   9.429   5.802
82239SOL    HW148614  14.584   9.349   5.776
82239SOL    HW248615  14.500   9.409   5.887
82240SOL     OW48616   3.438   7.659   4.071
82240SOL    HW148617   3.508   7.680   4.009
82240SOL    HW248618   3.440   7.564   4.079
82241SOL     OW48619  11.649  12.103   1.800
82241SOL    HW148620  11.558  12.079   1.783
82241SOL    HW248621  11.643  12.177   1.861
82242SOL     OW48622   9.405   2.447   7.515
82242SOL    HW148623   9.336   2.476   7.456
82242SOL    HW248624   9.470   2.518   7.512
82243SOL     OW48625  11.182   1.517   7.388
82243SOL    HW148626  11.139   1.587   7.339
82243SOL    HW248627  11.249   1.483   7.328
82244SOL     OW48628   7.481  13.586   9.382
82244SOL    HW148629   7.482  13.501   9.338
82244SOL    HW248630   7.393  13.593   9.419
82245SOL     OW48631   9.389   4.332   3.209
82245SOL    HW148632   9.339   4.252   3.229
82245SOL    HW248633   9.461   4.302   3.154
82246SOL     OW48634   8.636  13.793   6.826
82246SOL    HW148635   8.655  13.836   6.910
82246SOL    HW248636   8.635  13.700   6.847
82247SOL     OW48637  13.135   6.203   4.509
82247SOL    HW148638  13.113   6.122   4.555
82247SOL    HW248639  13.139   6.179   4.417
82248SOL     OW48640   6.614   5.926   9.789
82248SOL    HW148641   6.668   6.000   9.761
82248SOL    HW248642   6.568   5.898   9.709
82249SOL     OW48643   2.656   3.065   6.986
82249SOL    HW148644   2.679   2.974   7.008
82249SOL    HW248645   2.683   3.115   7.064
82250SOL     OW48646  14.558   5.824   7.576
82250SOL    HW148647  14.652   5.840   7.565
82250SOL    HW248648  14.517   5.902   7.538
82251SOL     OW48649   7.604   6.967   1.778
82251SOL    HW148650   7.569   6.975   1.689
82251SOL    HW248651   7.650   6.884   1.779
82252SOL     OW48652   0.380   2.955   3.078
82252SOL    HW148653   0.326   3.020   3.034
82252SOL    HW248654   0.364   2.874   3.030
82253SOL     OW48655   6.313  11.979   8.436
82253SOL    HW148656   6.232  12.011   8.397
82253SOL    HW248657   6.297  11.887   8.454
82254SOL     OW48658   7.933   4.807   5.228
82254SOL    HW148659   8.022   4.775   5.215
82254SOL    HW248660   7.930   4.891   5.181
82255SOL     OW48661   4.182   4.674   5.186
82255SOL    HW148662   4.249   4.694   5.120
82255SOL    HW248663   4.168   4.757   5.231
82256SOL     OW48664  11.840   3.007   2.431
82256SOL    HW148665  11.789   3.015   2.351
82256SOL    HW248666  11.863   2.915   2.437
82257SOL     OW48667  11.156  12.495  14.336
82257SOL    HW148668  11.104  12.525  14.262
82257SOL    HW248669  11.141  12.561  14.404
82258SOL     OW48670   9.735  10.960   7.087
82258SOL    HW148671   9.659  10.945   7.143
82258SOL    HW248672   9.781  10.876   7.085
82259SOL     OW48673   3.574  11.928  10.801
82259SOL    HW148674   3.636  11.994  10.769
82259SOL    HW248675   3.488  11.969  10.790
82260SOL     OW48676  11.136   4.106   4.836
82260SOL    HW148677  11.224   4.135   4.862
82260SOL    HW248678  11.150   4.022   4.792
82261SOL     OW48679   8.434  11.468   9.576
82261SOL    HW148680   8.380  11.495   9.650
82261SOL    HW248681   8.398  11.383   9.550
82262SOL     OW48682  10.357   5.989  10.900
82262SOL    HW148683  10.440   6.034  10.912
82262SOL    HW248684  10.306   6.048  10.843
82263SOL     OW48685   0.565   3.852   7.726
82263SOL    HW148686   0.533   3.868   7.637
82263SOL    HW248687   0.496   3.800   7.767
82264SOL     OW48688   8.780   9.209   9.111
82264SOL    HW148689   8.803   9.210   9.204
82264SOL    HW248690   8.685   9.211   9.110
82265SOL     OW48691   4.942  10.324  14.553
82265SOL    HW148692   5.020  10.279  14.520
82265SOL    HW248693   4.957  10.331  14.647
82266SOL     OW48694  11.702   1.964   3.803
82266SOL    HW148695  11.761   1.971   3.728
82266SOL    HW248696  11.722   2.040   3.857
82267SOL     OW48697   6.939   0.018   8.258
82267SOL    HW148698   6.917   0.110   8.274
82267SOL    HW248699   6.859  14.858   8.221
82268SOL     OW48700   4.962   5.063   0.125
82268SOL    HW148701   4.995   5.150   0.102
82268SOL    HW248702   4.874   5.078   0.158
82269SOL     OW48703  13.947   9.947   6.082
82269SOL    HW148704  13.869   9.981   6.126
82269SOL    HW248705  14.006  10.022   6.077
82270SOL     OW48706   3.510   0.623   3.896
82270SOL    HW148707   3.605   0.632   3.889
82270SOL    HW248708   3.482   0.594   3.809
82271SOL     OW48709  13.246   6.257   5.927
82271SOL    HW148710  13.213   6.338   5.888
82271SOL    HW248711  13.183   6.190   5.901
82272SOL     OW48712   3.720   0.031   4.860
82272SOL    HW148713   3.682   0.099   4.804
82272SOL    HW248714   3.656   0.021   4.931
82273SOL     OW48715  12.850   4.453   3.447
82273SOL    HW148716  12.789   4.462   3.520
82273SOL    HW248717  12.885   4.365   3.456
82274SOL     OW48718   8.943   3.937   4.212
82274SOL    HW148719   8.868   3.988   4.184
82274SOL    HW248720   9.019   3.979   4.172
82275SOL     OW48721  10.123  13.101   5.279
82275SOL    HW148722  10.176  13.143   5.345
82275SOL    HW248723  10.035  13.137   5.291
82276SOL     OW48724  12.166   6.265   6.344
82276SOL    HW148725  12.194   6.348   6.382
82276SOL    HW248726  12.234   6.203   6.372
82277SOL     OW48727  11.179   4.495   1.399
82277SOL    HW148728  11.153   4.567   1.457
82277SOL    HW248729  11.098   4.468   1.357
82278SOL     OW48730   8.211  12.072   9.717
82278SOL    HW148731   8.204  12.041   9.807
82278SOL    HW248732   8.135  12.127   9.705
82279SOL     OW48733   8.918   8.620   6.079
82279SOL    HW148734   8.932   8.712   6.101
82279SOL    HW248735   8.832   8.599   6.116
82280SOL     OW48736   5.078  11.850  11.559
82280SOL    HW148737   5.152  11.837  11.500
82280SOL    HW248738   5.063  11.764  11.598
82281SOL     OW48739   8.443   3.640  12.042
82281SOL    HW148740   8.413   3.579  12.110
82281SOL    HW248741   8.366   3.654  11.987
82282SOL     OW48742  10.401  10.094  12.808
82282SOL    HW148743  10.324  10.150  12.802
82282SOL    HW248744  10.469  10.150  12.846
82283SOL     OW48745   0.689  14.692  10.317
82283SOL    HW148746   0.708  14.689  10.223
82283SOL    HW248747   0.770  14.661  10.359
82284SOL     OW48748   8.727  10.256   7.765
82284SOL    HW148749   8.651  10.300   7.728
82284SOL    HW248750   8.732  10.288   7.855
82285SOL     OW48751   7.302   6.753  14.048
82285SOL    HW148752   7.295   6.754  13.953
82285SOL    HW248753   7.378   6.698  14.066
82286SOL     OW48754   4.917   7.702  10.324
82286SOL    HW148755   4.833   7.658  10.339
82286SOL    HW248756   4.923   7.711  10.229
82287SOL     OW48757  13.922  13.345   0.313
82287SOL    HW148758  14.001  13.334   0.365
82287SOL    HW248759  13.872  13.264   0.328
82288SOL     OW48760   0.980   7.252   4.918
82288SOL    HW148761   1.042   7.261   4.845
82288SOL    HW248762   0.894   7.268   4.879
82289SOL     OW48763   6.913   0.245   8.517
82289SOL    HW148764   6.931   0.247   8.611
82289SOL    HW248765   6.883   0.334   8.497
82290SOL     OW48766   8.995  14.688  12.760
82290SOL    HW148767   8.945  14.769  12.747
82290SOL    HW248768   9.048  14.678  12.681
82291SOL     OW48769   5.713   8.139   2.228
82291SOL    HW148770   5.802   8.173   2.217
82291SOL    HW248771   5.666   8.168   2.150
82292SOL     OW48772   2.648   5.309   1.815
82292SOL    HW148773   2.741   5.286   1.818
82292SOL    HW248774   2.635   5.364   1.892
82293SOL     OW48775   2.494  12.276   7.994
82293SOL    HW148776   2.400  12.260   7.989
82293SOL    HW248777   2.515  12.325   7.915
82294SOL     OW48778   0.389  13.381   3.568
82294SOL    HW148779   0.390  13.459   3.622
82294SOL    HW248780   0.477  13.344   3.577
82295SOL     OW48781   5.367   9.893   8.848
82295SOL    HW148782   5.429   9.966   8.850
82295SOL    HW248783   5.423   9.815   8.845
82296SOL     OW48784   0.865   8.881  10.332
82296SOL    HW148785   0.849   8.788  10.317
82296SOL    HW248786   0.789   8.925  10.294
82297SOL     OW48787   7.843   2.688   0.695
82297SOL    HW148788   7.896   2.611   0.674
82297SOL    HW248789   7.876   2.756   0.635
82298SOL     OW48790   1.983  14.100   0.375
82298SOL    HW148791   1.954  14.097   0.466
82298SOL    HW248792   1.953  14.018   0.337
82299SOL     OW48793  14.618   4.564   1.681
82299SOL    HW148794  14.665   4.483   1.664
82299SOL    HW248795  14.686   4.632   1.680
82300SOL     OW48796   3.218   6.809   7.129
82300SOL    HW148797   3.292   6.750   7.145
82300SOL    HW248798   3.259   6.891   7.100
82301SOL     OW48799  11.041   0.428  11.850
82301SOL    HW148800  11.023   0.334  11.846
82301SOL    HW248801  11.130   0.434  11.885
82302SOL     OW48802   4.187   0.682   9.274
82302SOL    HW148803   4.253   0.629   9.229
82302SOL    HW248804   4.152   0.740   9.207
82303SOL     OW48805   3.018   4.166   3.500
82303SOL    HW148806   3.022   4.255   3.463
82303SOL    HW248807   3.070   4.171   3.580
82304SOL     OW48808  13.454   8.596   3.903
82304SOL    HW148809  13.431   8.537   3.975
82304SOL    HW248810  13.549   8.590   3.895
82305SOL     OW48811   4.589   1.054   1.633
82305SOL    HW148812   4.529   0.982   1.652
82305SOL    HW248813   4.616   1.086   1.719
82306SOL     OW48814  12.148   0.991  10.535
82306SOL    HW148815  12.121   1.083  10.539
82306SOL    HW248816  12.194   0.983  10.452
82307SOL     OW48817   5.027   1.808   6.968
82307SOL    HW148818   5.085   1.755   7.023
82307SOL    HW248819   5.084   1.839   6.897
82308SOL     OW48820   1.386   7.409   4.910
82308SOL    HW148821   1.304   7.457   4.919
82308SOL    HW248822   1.451   7.477   4.891
82309SOL     OW48823   4.612   3.080  10.198
82309SOL    HW148824   4.562   3.162  10.201
82309SOL    HW248825   4.695   3.100  10.240
82310SOL     OW48826   6.700  12.317  12.177
82310SOL    HW148827   6.690  12.336  12.083
82310SOL    HW248828   6.611  12.321  12.211
82311SOL     OW48829   3.551   7.999  11.381
82311SOL    HW148830   3.580   7.992  11.290
82311SOL    HW248831   3.550   8.093  11.399
82312SOL     OW48832  12.118   1.976  14.396
82312SOL    HW148833  12.097   1.967  14.489
82312SOL    HW248834  12.111   1.887  14.361
82313SOL     OW48835  10.731   7.512   7.935
82313SOL    HW148836  10.783   7.578   7.980
82313SOL    HW248837  10.760   7.429   7.972
82314SOL     OW48838  12.661  10.880  14.344
82314SOL    HW148839  12.639  10.813  14.409
82314SOL    HW248840  12.608  10.858  14.268
82315SOL     OW48841   4.249   3.847  11.562
82315SOL    HW148842   4.276   3.910  11.495
82315SOL    HW248843   4.199   3.780  11.513
82316SOL     OW48844  13.018   9.346   2.676
82316SOL    HW148845  13.051   9.333   2.765
82316SOL    HW248846  12.986   9.260   2.650
82317SOL     OW48847  14.380  10.272  14.033
82317SOL    HW148848  14.360  10.210  14.104
82317SOL    HW248849  14.461  10.239  13.994
82318SOL     OW48850   2.263   3.693  10.864
82318SOL    HW148851   2.274   3.782  10.898
82318SOL    HW248852   2.205   3.702  10.789
82319SOL     OW48853  14.524  12.477  13.040
82319SOL    HW148854  14.610  12.435  13.033
82319SOL    HW248855  14.524  12.542  12.970
82320SOL     OW48856   8.864   4.234   0.249
82320SOL    HW148857   8.771   4.216   0.262
82320SOL    HW248858   8.876   4.233   0.154
82321SOL     OW48859   5.184   2.162   8.164
82321SOL    HW148860   5.253   2.098   8.151
82321SOL    HW248861   5.208   2.235   8.106
82322SOL     OW48862   7.436   8.764  10.848
82322SOL    HW148863   7.464   8.700  10.914
82322SOL    HW248864   7.387   8.830  10.897
82323SOL     OW48865   8.153   6.208   5.186
82323SOL    HW148866   8.096   6.167   5.121
82323SOL    HW248867   8.134   6.160   5.267
82324SOL     OW48868   3.472  10.590   2.270
82324SOL    HW148869   3.395  10.558   2.223
82324SOL    HW248870   3.441  10.670   2.313
82325SOL     OW48871  14.572  14.545   1.483
82325SOL    HW148872  14.528  14.597   1.416
82325SOL    HW248873  14.510  14.543   1.556
82326SOL     OW48874   0.299  12.844  10.006
82326SOL    HW148875   0.207  12.841   9.981
82326SOL    HW248876   0.339  12.768   9.963
82327SOL     OW48877   9.592  10.174  13.843
82327SOL    HW148878   9.519  10.123  13.879
82327SOL    HW248879   9.550  10.247  13.798
82328SOL     OW48880  12.858   1.114   1.097
82328SOL    HW148881  12.948   1.144   1.096
82328SOL    HW248882  12.864   1.019   1.083
82329SOL     OW48883   8.994   0.925   6.764
82329SOL    HW148884   8.998   1.014   6.799
82329SOL    HW248885   8.948   0.933   6.681
82330SOL     OW48886   7.146   9.149   8.121
82330SOL    HW148887   7.112   9.224   8.072
82330SOL    HW248888   7.156   9.182   8.211
82331SOL     OW48889  10.940   9.267  11.406
82331SOL    HW148890  11.027   9.308  11.411
82331SOL    HW248891  10.883   9.327  11.454
82332SOL     OW48892   5.827   5.587   9.688
82332SOL    HW148893   5.901   5.623   9.737
82332SOL    HW248894   5.750   5.623   9.733
82333SOL     OW48895   5.861   4.046   3.856
82333SOL    HW148896   5.903   3.978   3.804
82333SOL    HW248897   5.875   4.126   3.805
82334SOL     OW48898  10.048   9.068   0.008
82334SOL    HW148899  10.031   9.003   0.076
82334SOL    HW248900   9.967   9.071  14.834
82335SOL     OW48901  13.950  14.603   0.943
82335SOL    HW148902  13.997  14.627   0.863
82335SOL    HW248903  13.946  14.507   0.942
82336SOL     OW48904   9.249  12.185   3.540
82336SOL    HW148905   9.297  12.177   3.622
82336SOL    HW248906   9.317  12.184   3.472
82337SOL     OW48907   8.213  11.630  12.903
82337SOL    HW148908   8.278  11.613  12.971
82337SOL    HW248909   8.202  11.546  12.859
82338SOL     OW48910  13.947  14.552  14.066
82338SOL    HW148911  13.859  14.515  14.067
82338SOL    HW248912  14.005  14.477  14.079
82339SOL     OW48913   6.933   3.559   0.204
82339SOL    HW148914   6.997   3.530   0.139
82339SOL    HW248915   6.849   3.535   0.167
82340SOL     OW48916   2.570   9.729   4.754
82340SOL    HW148917   2.591   9.638   4.775
82340SOL    HW248918   2.602   9.779   4.828
82341SOL     OW48919  10.862  14.685   5.516
82341SOL    HW148920  10.790  14.735   5.478
82341SOL    HW248921  10.918  14.750   5.557
82342SOL     OW48922   5.624  12.038   2.151
82342SOL    HW148923   5.579  12.110   2.107
82342SOL    HW248924   5.648  11.978   2.081
82343SOL     OW48925   6.015  13.004   8.400
82343SOL    HW148926   5.970  12.949   8.336
82343SOL    HW248927   6.081  12.945   8.439
82344SOL     OW48928   4.476  13.251  14.608
82344SOL    HW148929   4.521  13.170  14.634
82344SOL    HW248930   4.524  13.321  14.652
82345SOL     OW48931   6.369  10.540  13.356
82345SOL    HW148932   6.393  10.455  13.320
82345SOL    HW248933   6.445  10.595  13.340
82346SOL     OW48934   8.499   5.274   0.425
82346SOL    HW148935   8.551   5.354   0.427
82346SOL    HW248936   8.497   5.244   0.516
82347SOL     OW48937   1.396   6.115  12.746
82347SOL    HW148938   1.461   6.183  12.725
82347SOL    HW248939   1.314   6.164  12.758
82348SOL     OW48940  13.758  14.538   4.761
82348SOL    HW148941  13.807  14.595   4.820
82348SOL    HW248942  13.790  14.449   4.781
82349SOL     OW48943   6.972   4.857   5.825
82349SOL    HW148944   7.024   4.876   5.903
82349SOL    HW248945   7.017   4.904   5.754
82350SOL     OW48946   5.156  11.147   4.408
82350SOL    HW148947   5.130  11.092   4.334
82350SOL    HW248948   5.075  11.160   4.458
82351SOL     OW48949   8.871  11.898   4.700
82351SOL    HW148950   8.896  11.983   4.737
82351SOL    HW248951   8.799  11.918   4.640
82352SOL     OW48952   8.163   8.469   9.029
82352SOL    HW148953   8.110   8.511   9.097
82352SOL    HW248954   8.121   8.494   8.947
82353SOL     OW48955  14.148  11.876   8.285
82353SOL    HW148956  14.190  11.794   8.260
82353SOL    HW248957  14.078  11.850   8.344
82354SOL     OW48958   1.466  12.306   7.053
82354SOL    HW148959   1.469  12.212   7.033
82354SOL    HW248960   1.373  12.328   7.050
82355SOL     OW48961  12.478   4.879   6.198
82355SOL    HW148962  12.445   4.800   6.241
82355SOL    HW248963  12.399   4.932   6.183
82356SOL     OW48964  13.207   2.842   9.739
82356SOL    HW148965  13.121   2.881   9.756
82356SOL    HW248966  13.257   2.858   9.819
82357SOL     OW48967  11.552  13.703  11.425
82357SOL    HW148968  11.632  13.662  11.393
82357SOL    HW248969  11.570  13.721  11.518
82358SOL     OW48970  10.177   4.288   0.946
82358SOL    HW148971  10.231   4.363   0.970
82358SOL    HW248972  10.122   4.271   1.022
82359SOL     OW48973   7.771   7.924   9.666
82359SOL    HW148974   7.786   7.915   9.572
82359SOL    HW248975   7.845   7.977   9.697
82360SOL     OW48976   8.933   1.309  14.758
82360SOL    HW148977   9.026   1.291  14.775
82360SOL    HW248978   8.886   1.240  14.805
82361SOL     OW48979   2.889  11.481  12.913
82361SOL    HW148980   2.919  11.484  12.822
82361SOL    HW248981   2.795  11.497  12.908
82362SOL     OW48982   1.664   8.993   9.146
82362SOL    HW148983   1.709   8.918   9.108
82362SOL    HW248984   1.707   9.008   9.230
82363SOL     OW48985   5.922   3.063  11.271
82363SOL    HW148986   5.965   3.103  11.347
82363SOL    HW248987   5.984   3.075  11.199
82364SOL     OW48988   8.371   0.206   3.634
82364SOL    HW148989   8.454   0.236   3.597
82364SOL    HW248990   8.395   0.137   3.696
82365SOL     OW48991  11.421   4.905  12.442
82365SOL    HW148992  11.347   4.853  12.411
82365SOL    HW248993  11.480   4.909  12.367
82366SOL     OW48994  11.294   4.253  12.361
82366SOL    HW148995  11.215   4.297  12.392
82366SOL    HW248996  11.279   4.239  12.267
82367SOL     OW48997   2.694   1.367   8.551
82367SOL    HW148998   2.611   1.354   8.599
82367SOL    HW248999   2.739   1.436   8.600
82368SOL     OW49000  10.856  13.066  12.762
82368SOL    HW149001  10.903  12.982  12.754
82368SOL    HW249002  10.910  13.129  12.715
82369SOL     OW49003   9.374  10.815  12.908
82369SOL    HW149004   9.443  10.750  12.919
82369SOL    HW249005   9.304  10.768  12.863
82370SOL     OW49006   1.788   8.847  11.931
82370SOL    HW149007   1.802   8.899  11.851
82370SOL    HW249008   1.838   8.767  11.917
82371SOL     OW49009  14.004  13.478   8.890
82371SOL    HW149010  14.000  13.562   8.936
82371SOL    HW249011  13.913  13.449   8.885
82372SOL     OW49012   9.220   2.500   9.977
82372SOL    HW149013   9.277   2.435   9.935
82372SOL    HW249014   9.157   2.525   9.909
82373SOL     OW49015  11.845  14.650   1.384
82373SOL    HW149016  11.817  14.563   1.413
82373SOL    HW249017  11.816  14.656   1.293
82374SOL     OW49018   2.338   1.264  14.089
82374SOL    HW149019   2.327   1.255  13.994
82374SOL    HW249020   2.251   1.289  14.120
82375SOL     OW49021   7.088   7.205   0.055
82375SOL    HW149022   7.141   7.131   0.087
82375SOL    HW249023   7.042   7.170  14.856
82376SOL     OW49024   5.967   7.942   3.205
82376SOL    HW149025   6.013   8.019   3.239
82376SOL    HW249026   5.875   7.960   3.223
82377SOL     OW49027   5.036   6.653   7.413
82377SOL    HW149028   5.098   6.683   7.479
82377SOL    HW249029   4.953   6.648   7.459
82378SOL     OW49030   5.326   4.138   1.250
82378SOL    HW149031   5.362   4.058   1.211
82378SOL    HW249032   5.401   4.183   1.287
82379SOL     OW49033   7.116  11.394  13.169
82379SOL    HW149034   7.041  11.338  13.187
82379SOL    HW249035   7.192  11.339  13.187
82380SOL     OW49036   0.177  13.086  11.975
82380SOL    HW149037   0.203  13.096  11.883
82380SOL    HW249038   0.126  13.005  11.976
82381SOL     OW49039   2.319  11.536   9.991
82381SOL    HW149040   2.250  11.511  10.053
82381SOL    HW249041   2.400  11.523  10.039
82382SOL     OW49042   6.165   8.601  10.941
82382SOL    HW149043   6.143   8.686  10.979
82382SOL    HW249044   6.172   8.618  10.847
82383SOL     OW49045  12.667   7.622   0.618
82383SOL    HW149046  12.606   7.624   0.544
82383SOL    HW249047  12.664   7.711   0.654
82384SOL     OW49048   4.759   0.454  11.851
82384SOL    HW149049   4.773   0.400  11.928
82384SOL    HW249050   4.842   0.450  11.803
82385SOL     OW49051  13.165   9.684   7.232
82385SOL    HW149052  13.083   9.640   7.208
82385SOL    HW249053  13.218   9.615   7.272
82386SOL     OW49054  13.732  14.545   5.330
82386SOL    HW149055  13.643  14.577   5.348
82386SOL    HW249056  13.725  14.450   5.336
82387SOL     OW49057  14.438   5.290   4.550
82387SOL    HW149058  14.519   5.238   4.545
82387SOL    HW249059  14.452   5.361   4.488
82388SOL     OW49060   6.202   3.231   1.010
82388SOL    HW149061   6.203   3.298   0.942
82388SOL    HW249062   6.282   3.180   0.995
82389SOL     OW49063   3.931   7.555   3.845
82389SOL    HW149064   3.939   7.623   3.778
82389SOL    HW249065   3.898   7.479   3.798
82390SOL     OW49066  13.277   7.710   4.908
82390SOL    HW149067  13.370   7.722   4.926
82390SOL    HW249068  13.256   7.626   4.948
82391SOL     OW49069   6.019  12.209   1.439
82391SOL    HW149070   6.036  12.163   1.356
82391SOL    HW249071   6.096  12.190   1.493
82392SOL     OW49072  14.626   7.729   5.806
82392SOL    HW149073  14.692   7.683   5.754
82392SOL    HW249074  14.653   7.821   5.804
82393SOL     OW49075  11.929   5.703   5.313
82393SOL    HW149076  11.883   5.626   5.279
82393SOL    HW249077  11.861   5.771   5.316
82394SOL     OW49078  14.755  10.308   7.447
82394SOL    HW149079  14.797  10.326   7.364
82394SOL    HW249080  14.685  10.246   7.426
82395SOL     OW49081  12.765   2.949  11.874
82395SOL    HW149082  12.712   2.928  11.797
82395SOL    HW249083  12.774   2.865  11.920
82396SOL     OW49084   7.124   7.824   0.720
82396SOL    HW149085   7.034   7.796   0.735
82396SOL    HW249086   7.120   7.877   0.640
82397SOL     OW49087  12.312   9.732  10.123
82397SOL    HW149088  12.369   9.666  10.163
82397SOL    HW249089  12.354   9.753  10.040
82398SOL     OW49090   1.188   6.990  11.467
82398SOL    HW149091   1.163   6.924  11.532
82398SOL    HW249092   1.278   7.014  11.491
82399SOL     OW49093   5.030  10.197  12.382
82399SOL    HW149094   4.971  10.210  12.308
82399SOL    HW249095   5.009  10.109  12.414
82400SOL     OW49096  11.536   0.681  10.700
82400SOL    HW149097  11.495   0.710  10.619
82400SOL    HW249098  11.463   0.662  10.759
82401SOL     OW49099  14.254  10.632   6.206
82401SOL    HW149100  14.195  10.623   6.281
82401SOL    HW249101  14.341  10.617   6.243
82402SOL     OW49102  11.353  10.020  13.925
82402SOL    HW149103  11.447  10.027  13.910
82402SOL    HW249104  11.314  10.032  13.838
82403SOL     OW49105  14.539   0.372   7.331
82403SOL    HW149106  14.565   0.380   7.423
82403SOL    HW249107  14.446   0.348   7.335
82404SOL     OW49108   3.413   8.763   4.553
82404SOL    HW149109   3.369   8.842   4.521
82404SOL    HW249110   3.370   8.744   4.636
82405SOL     OW49111   1.883   8.853   9.078
82405SOL    HW149112   1.957   8.881   9.132
82405SOL    HW249113   1.922   8.819   8.998
82406SOL     OW49114   3.364   6.762   8.354
82406SOL    HW149115   3.281   6.750   8.399
82406SOL    HW249116   3.368   6.855   8.334
82407SOL     OW49117   6.340   6.157   2.517
82407SOL    HW149118   6.396   6.215   2.467
82407SOL    HW249119   6.387   6.141   2.599
82408SOL     OW49120   7.176  10.656  10.012
82408SOL    HW149121   7.093  10.695   9.986
82408SOL    HW249122   7.154  10.597  10.084
82409SOL     OW49123   6.440   1.289   1.601
82409SOL    HW149124   6.357   1.322   1.635
82409SOL    HW249125   6.433   1.194   1.606
82410SOL     OW49126   8.022  12.251  10.566
82410SOL    HW149127   8.030  12.159  10.588
82410SOL    HW249128   7.964  12.287  10.633
82411SOL     OW49129   1.582   3.867   2.263
82411SOL    HW149130   1.615   3.955   2.284
82411SOL    HW249131   1.596   3.858   2.169
82412SOL     OW49132  14.718   6.407   7.434
82412SOL    HW149133  14.704   6.343   7.364
82412SOL    HW249134  14.727   6.491   7.389
82413SOL     OW49135   1.170   1.204   4.682
82413SOL    HW149136   1.205   1.129   4.730
82413SOL    HW249137   1.163   1.273   4.747
82414SOL     OW49138   5.701   4.835   0.134
82414SOL    HW149139   5.769   4.770   0.152
82414SOL    HW249140   5.749   4.914   0.110
82415SOL     OW49141  12.100   1.179   2.249
82415SOL    HW149142  12.081   1.118   2.178
82415SOL    HW249143  12.029   1.242   2.247
82416SOL     OW49144   5.445   1.512  12.926
82416SOL    HW149145   5.536   1.524  12.898
82416SOL    HW249146   5.449   1.512  13.021
82417SOL     OW49147   1.106   9.776  14.244
82417SOL    HW149148   1.138   9.862  14.272
82417SOL    HW249149   1.171   9.714  14.278
82418SOL     OW49150   4.090  10.146   9.595
82418SOL    HW149151   4.123  10.125   9.682
82418SOL    HW249152   4.011  10.198   9.611
82419SOL     OW49153   1.108   8.331   1.241
82419SOL    HW149154   1.100   8.420   1.276
82419SOL    HW249155   1.107   8.342   1.146
82420SOL     OW49156   3.526   1.383  10.083
82420SOL    HW149157   3.465   1.420  10.020
82420SOL    HW249158   3.506   1.427  10.165
82421SOL     OW49159   0.292   0.093   0.048
82421SOL    HW149160   0.375   0.135   0.024
82421SOL    HW249161   0.263   0.139   0.126
82422SOL     OW49162   9.001   8.527  14.808
82422SOL    HW149163   8.963   8.577   0.003
82422SOL    HW249164   8.982   8.579  14.730
82423SOL     OW49165   7.480   9.923   0.379
82423SOL    HW149166   7.518   9.978   0.311
82423SOL    HW249167   7.405   9.972   0.411
82424SOL     OW49168  10.975   0.587   3.043
82424SOL    HW149169  11.047   0.565   3.102
82424SOL    HW249170  11.017   0.629   2.968
82425SOL     OW49171   1.131  13.595   9.465
82425SOL    HW149172   1.156  13.562   9.551
82425SOL    HW249173   1.093  13.519   9.420
82426SOL     OW49174   7.445   6.983   3.389
82426SOL    HW149175   7.478   6.969   3.478
82426SOL    HW249176   7.504   6.932   3.333
82427SOL     OW49177  13.918   4.873  11.246
82427SOL    HW149178  13.924   4.940  11.179
82427SOL    HW249179  13.882   4.918  11.322
82428SOL     OW49180   6.043   4.252   7.430
82428SOL    HW149181   6.037   4.177   7.372
82428SOL    HW249182   5.953   4.283   7.439
82429SOL     OW49183  11.966   8.883   4.541
82429SOL    HW149184  11.967   8.788   4.543
82429SOL    HW249185  11.945   8.909   4.630
82430SOL     OW49186   1.576  14.544  11.533
82430SOL    HW149187   1.572  14.471  11.471
82430SOL    HW249188   1.551  14.505  11.617
82431SOL     OW49189   3.301   5.078   5.375
82431SOL    HW149190   3.363   5.095   5.446
82431SOL    HW249191   3.346   5.014   5.319
82432SOL     OW49192  12.782   2.916   1.023
82432SOL    HW149193  12.776   3.006   1.053
82432SOL    HW249194  12.719   2.910   0.951
82433SOL     OW49195  10.050   5.403   5.125
82433SOL    HW149196   9.990   5.392   5.199
82433SOL    HW249197  10.135   5.418   5.166
82434SOL     OW49198   1.892   6.548   8.209
82434SOL    HW149199   1.943   6.494   8.270
82434SOL    HW249200   1.888   6.496   8.129
82435SOL     OW49201  11.745  13.712  10.091
82435SOL    HW149202  11.693  13.720  10.011
82435SOL    HW249203  11.782  13.624  10.086
82436SOL     OW49204  13.870   9.219   0.082
82436SOL    HW149205  13.859   9.185  14.871
82436SOL    HW249206  13.839   9.309   0.077
82437SOL     OW49207   3.843   7.856  13.523
82437SOL    HW149208   3.926   7.813  13.542
82437SOL    HW249209   3.836   7.924  13.590
82438SOL     OW49210   9.326   9.282  14.861
82438SOL    HW149211   9.400   9.334  14.830
82438SOL    HW249212   9.345   9.193  14.833
82439SOL     OW49213  11.199  11.530   0.722
82439SOL    HW149214  11.186  11.437   0.705
82439SOL    HW249215  11.129  11.553   0.783
82440SOL     OW49216  13.343  13.806   7.120
82440SOL    HW149217  13.414  13.747   7.096
82440SOL    HW249218  13.382  13.893   7.114
82441SOL     OW49219   5.027   1.953   7.287
82441SOL    HW149220   5.086   1.891   7.244
82441SOL    HW249221   4.948   1.953   7.232
82442SOL     OW49222   2.231  13.998   2.389
82442SOL    HW149223   2.154  13.995   2.332
82442SOL    HW249224   2.217  14.076   2.443
82443SOL     OW49225  10.612  11.607   3.048
82443SOL    HW149226  10.566  11.656   2.980
82443SOL    HW249227  10.654  11.675   3.101
82444SOL     OW49228   2.541   5.299   0.190
82444SOL    HW149229   2.597   5.226   0.215
82444SOL    HW249230   2.599   5.375   0.187
82445SOL     OW49231   3.789   1.294   0.231
82445SOL    HW149232   3.765   1.227   0.167
82445SOL    HW249233   3.756   1.260   0.315
82446SOL     OW49234  10.859   9.062   4.504
82446SOL    HW149235  10.950   9.090   4.506
82446SOL    HW249236  10.858   8.983   4.450
82447SOL     OW49237   5.283   5.852  13.193
82447SOL    HW149238   5.349   5.819  13.132
82447SOL    HW249239   5.242   5.773  13.229
82448SOL     OW49240   1.275   9.703  11.084
82448SOL    HW149241   1.183   9.721  11.064
82448SOL    HW249242   1.291   9.750  11.165
82449SOL     OW49243   5.540  11.885   4.778
82449SOL    HW149244   5.552  11.943   4.703
82449SOL    HW249245   5.461  11.917   4.821
82450SOL     OW49246  10.816   7.311  14.116
82450SOL    HW149247  10.857   7.241  14.166
82450SOL    HW249248  10.730   7.322  14.156
82451SOL     OW49249   5.798   7.107   8.032
82451SOL    HW149250   5.763   7.185   8.074
82451SOL    HW249251   5.883   7.093   8.074
82452SOL     OW49252   1.403   2.199  11.076
82452SOL    HW149253   1.375   2.290  11.063
82452SOL    HW249254   1.323   2.148  11.067
82453SOL     OW49255   4.120   9.457   9.282
82453SOL    HW149256   4.076   9.541   9.298
82453SOL    HW249257   4.143   9.425   9.369
82454SOL     OW49258  13.050   2.673   7.381
82454SOL    HW149259  12.954   2.667   7.371
82454SOL    HW249260  13.063   2.721   7.462
82455SOL     OW49261  10.451  10.940   3.030
82455SOL    HW149262  10.469  11.000   2.958
82455SOL    HW249263  10.490  10.857   3.003
82456SOL     OW49264  14.865  12.184   4.070
82456SOL    HW149265   0.029  12.270   4.066
82456SOL    HW249266   0.034  12.133   4.003
82457SOL     OW49267   7.204   3.001   2.386
82457SOL    HW149268   7.286   2.973   2.428
82457SOL    HW249269   7.141   3.006   2.458
82458SOL     OW49270  10.759  11.165  10.098
82458SOL    HW149271  10.762  11.129  10.186
82458SOL    HW249272  10.830  11.121  10.051
82459SOL     OW49273   6.701   6.189   0.840
82459SOL    HW149274   6.619   6.170   0.886
82459SOL    HW249275   6.682   6.172   0.748
82460SOL     OW49276   6.334   2.815   1.146
82460SOL    HW149277   6.325   2.773   1.232
82460SOL    HW249278   6.286   2.758   1.086
82461SOL     OW49279  10.801   3.447   9.368
82461SOL    HW149280  10.844   3.437   9.453
82461SOL    HW249281  10.708   3.455   9.389
82462SOL     OW49282  13.111   2.576  12.742
82462SOL    HW149283  13.050   2.620  12.682
82462SOL    HW249284  13.061   2.502  12.777
82463SOL     OW49285   6.410  10.520   1.501
82463SOL    HW149286   6.372  10.458   1.563
82463SOL    HW249287   6.384  10.606   1.534
82464SOL     OW49288   6.917   2.940  13.345
82464SOL    HW149289   6.943   2.859  13.389
82464SOL    HW249290   6.957   2.934  13.258
82465SOL     OW49291  10.069   4.612   1.953
82465SOL    HW149292  10.161   4.608   1.926
82465SOL    HW249293  10.022   4.637   1.873
82466SOL     OW49294   6.557  13.719  14.461
82466SOL    HW149295   6.565  13.625  14.472
82466SOL    HW249296   6.528  13.730  14.371
82467SOL     OW49297   0.138  14.456   7.819
82467SOL    HW149298   0.101  14.385   7.871
82467SOL    HW249299   0.203  14.414   7.763
82468SOL     OW49300   0.136   3.275  13.983
82468SOL    HW149301   0.061   3.254  13.927
82468SOL    HW249302   0.179   3.349  13.940
82469SOL     OW49303   3.334   0.913   0.421
82469SOL    HW149304   3.331   0.886   0.329
82469SOL    HW249305   3.413   0.871   0.455
82470SOL     OW49306  13.505  10.639   8.595
82470SOL    HW149307  13.410  10.645   8.585
82470SOL    HW249308  13.532  10.729   8.617
82471SOL     OW49309  12.600  14.417   7.013
82471SOL    HW149310  12.587  14.490   6.952
82471SOL    HW249311  12.600  14.339   6.958
82472SOL     OW49312   0.384  13.312   8.645
82472SOL    HW149313   0.429  13.320   8.561
82472SOL    HW249314   0.447  13.270   8.703
82473SOL     OW49315   9.647   8.499   7.244
82473SOL    HW149316   9.622   8.584   7.279
82473SOL    HW249317   9.566   8.449   7.241
82474SOL     OW49318  12.888  11.141  11.241
82474SOL    HW149319  12.881  11.050  11.269
82474SOL    HW249320  12.798  11.172  11.238
82475SOL     OW49321  10.078  10.308   8.191
82475SOL    HW149322  10.126  10.324   8.273
82475SOL    HW249323  10.089  10.388   8.140
82476SOL     OW49324   6.744   6.602  11.253
82476SOL    HW149325   6.826   6.553  11.254
82476SOL    HW249326   6.719   6.608  11.345
82477SOL     OW49327   4.948   4.810   1.711
82477SOL    HW149328   4.941   4.743   1.643
82477SOL    HW249329   5.023   4.863   1.685
82478SOL     OW49330   2.451   8.849  12.247
82478SOL    HW149331   2.516   8.918  12.254
82478SOL    HW249332   2.377   8.891  12.202
82479SOL     OW49333  12.404   4.794  14.832
82479SOL    HW149334  12.495   4.767  14.845
82479SOL    HW249335  12.368   4.800   0.042
82480SOL     OW49336  11.877  13.991   5.143
82480SOL    HW149337  11.803  14.019   5.197
82480SOL    HW249338  11.887  13.897   5.163
82481SOL     OW49339   2.184  14.511   8.446
82481SOL    HW149340   2.092  14.535   8.437
82481SOL    HW249341   2.205  14.528   8.538
82482SOL     OW49342  14.488  11.266  12.853
82482SOL    HW149343  14.578  11.295  12.839
82482SOL    HW249344  14.463  11.222  12.772
82483SOL     OW49345   5.735  13.484  10.802
82483SOL    HW149346   5.787  13.487  10.722
82483SOL    HW249347   5.798  13.494  10.873
82484SOL     OW49348   0.925  14.327  11.599
82484SOL    HW149349   0.905  14.335  11.506
82484SOL    HW249350   0.848  14.284  11.636
82485SOL     OW49351   9.472  10.479  13.892
82485SOL    HW149352   9.382  10.510  13.897
82485SOL    HW249353   9.479  10.438  13.806
82486SOL     OW49354   4.845   7.710   0.353
82486SOL    HW149355   4.898   7.789   0.344
82486SOL    HW249356   4.866   7.677   0.440
82487SOL     OW49357   2.883   8.738  12.078
82487SOL    HW149358   2.816   8.691  12.127
82487SOL    HW249359   2.840   8.765  11.997
82488SOL     OW49360  10.052   5.740   1.082
82488SOL    HW149361  10.042   5.666   1.023
82488SOL    HW249362  10.145   5.742   1.103
82489SOL     OW49363   3.623  10.995  10.503
82489SOL    HW149364   3.537  10.980  10.464
82489SOL    HW249365   3.680  10.932  10.460
82490SOL     OW49366   3.481   1.952  11.314
82490SOL    HW149367   3.468   1.973  11.406
82490SOL    HW249368   3.404   1.988  11.270
82491SOL     OW49369   5.746  14.729   8.397
82491SOL    HW149370   5.695  14.652   8.423
82491SOL    HW249371   5.766  14.714   8.305
82492SOL     OW49372   5.267   0.245  14.543
82492SOL    HW149373   5.219   0.246  14.626
82492SOL    HW249374   5.200   0.262  14.477
82493SOL     OW49375   9.401   5.085   0.663
82493SOL    HW149376   9.374   5.026   0.592
82493SOL    HW249377   9.415   5.027   0.738
82494SOL     OW49378   6.394  14.446   1.146
82494SOL    HW149379   6.389  14.499   1.066
82494SOL    HW249380   6.437  14.503   1.209
82495SOL     OW49381   7.290   7.089   1.507
82495SOL    HW149382   7.264   7.006   1.469
82495SOL    HW249383   7.381   7.102   1.478
82496SOL     OW49384  12.681   6.931   2.929
82496SOL    HW149385  12.698   6.993   3.000
82496SOL    HW249386  12.600   6.887   2.954
82497SOL     OW49387  14.387   9.515   4.611
82497SOL    HW149388  14.444   9.498   4.686
82497SOL    HW249389  14.389   9.611   4.601
82498SOL     OW49390  12.952   5.874   7.336
82498SOL    HW149391  13.000   5.886   7.255
82498SOL    HW249392  12.860   5.884   7.311
82499SOL     OW49393   1.617   3.713   2.801
82499SOL    HW149394   1.577   3.645   2.746
82499SOL    HW249395   1.653   3.665   2.875
82500SOL     OW49396   4.465   0.085   0.562
82500SOL    HW149397   4.391   0.140   0.588
82500SOL    HW249398   4.441   0.051   0.476
82501SOL     OW49399   4.382   8.040   9.838
82501SOL    HW149400   4.425   7.990   9.907
82501SOL    HW249401   4.307   8.081   9.882
82502SOL     OW49402  12.540   3.901  11.161
82502SOL    HW149403  12.463   3.850  11.185
82502SOL    HW249404  12.601   3.889  11.234
82503SOL     OW49405   4.335   8.341   2.727
82503SOL    HW149406   4.244   8.368   2.739
82503SOL    HW249407   4.385   8.421   2.739
82504SOL     OW49408   5.404   2.673   1.692
82504SOL    HW149409   5.499   2.675   1.704
82504SOL    HW249410   5.393   2.657   1.598
82505SOL     OW49411   9.417   5.118  10.600
82505SOL    HW149412   9.349   5.183  10.616
82505SOL    HW249413   9.472   5.158  10.532
82506SOL     OW49414   9.509   4.129   9.417
82506SOL    HW149415   9.540   4.095   9.501
82506SOL    HW249416   9.579   4.188   9.388
82507SOL     OW49417   9.453   2.371  14.660
82507SOL    HW149418   9.529   2.396  14.608
82507SOL    HW249419   9.413   2.300  14.609
82508SOL     OW49420  12.932   8.577   0.289
82508SOL    HW149421  12.953   8.489   0.320
82508SOL    HW249422  13.017   8.613   0.260
82509SOL     OW49423  14.736   5.652   0.933
82509SOL    HW149424  14.765   5.671   0.844
82509SOL    HW249425  14.672   5.721   0.952
82510SOL     OW49426  11.513   1.671   4.115
82510SOL    HW149427  11.448   1.660   4.184
82510SOL    HW249428  11.463   1.662   4.034
82511SOL     OW49429   9.361  14.117   2.608
82511SOL    HW149430   9.331  14.045   2.663
82511SOL    HW249431   9.293  14.184   2.616
82512SOL     OW49432   7.857  13.588   0.397
82512SOL    HW149433   7.902  13.625   0.322
82512SOL    HW249434   7.771  13.629   0.397
82513SOL     OW49435   4.481   9.047   8.504
82513SOL    HW149436   4.387   9.042   8.487
82513SOL    HW249437   4.488   9.083   8.593
82514SOL     OW49438   4.273   1.963   7.482
82514SOL    HW149439   4.268   2.056   7.502
82514SOL    HW249440   4.264   1.919   7.567
82515SOL     OW49441   8.863   2.788   0.411
82515SOL    HW149442   8.814   2.841   0.348
82515SOL    HW249443   8.826   2.812   0.496
82516SOL     OW49444   2.397   0.057  12.247
82516SOL    HW149445   2.303   0.072  12.246
82516SOL    HW249446   2.422   0.051  12.155
82517SOL     OW49447  11.273  14.217   5.267
82517SOL    HW149448  11.274  14.301   5.314
82517SOL    HW249449  11.242  14.239   5.179
82518SOL     OW49450  13.751   2.214  10.978
82518SOL    HW149451  13.781   2.259  11.057
82518SOL    HW249452  13.721   2.128  11.009
82519SOL     OW49453  10.350   7.540   3.849
82519SOL    HW149454  10.443   7.550   3.829
82519SOL    HW249455  10.305   7.581   3.775
82520SOL     OW49456  12.778   3.565   7.914
82520SOL    HW149457  12.802   3.656   7.897
82520SOL    HW249458  12.708   3.571   7.979
82521SOL     OW49459   7.253   3.377   4.315
82521SOL    HW149460   7.221   3.432   4.387
82521SOL    HW249461   7.178   3.322   4.292
82522SOL     OW49462   6.715   0.811   8.363
82522SOL    HW149463   6.644   0.753   8.336
82522SOL    HW249464   6.794   0.758   8.355
82523SOL     OW49465   6.067  13.326  13.040
82523SOL    HW149466   6.139  13.263  13.039
82523SOL    HW249467   5.996  13.282  12.994
82524SOL     OW49468  10.344   0.124   2.858
82524SOL    HW149469  10.325   0.037   2.821
82524SOL    HW249470  10.274   0.179   2.823
82525SOL     OW49471  14.675   4.563  11.425
82525SOL    HW149472  14.612   4.512  11.475
82525SOL    HW249473  14.737   4.596  11.490
82526SOL     OW49474  12.629   3.645   8.132
82526SOL    HW149475  12.582   3.717   8.089
82526SOL    HW249476  12.692   3.689   8.189
82527SOL     OW49477  11.340   1.455   2.621
82527SOL    HW149478  11.406   1.479   2.686
82527SOL    HW249479  11.274   1.407   2.672
82528SOL     OW49480  11.326   8.242   1.227
82528SOL    HW149481  11.403   8.287   1.263
82528SOL    HW249482  11.291   8.303   1.162
82529SOL     OW49483   7.993  12.585  11.478
82529SOL    HW149484   8.020  12.501  11.513
82529SOL    HW249485   8.029  12.587  11.389
82530SOL     OW49486   1.013  13.772   7.347
82530SOL    HW149487   0.947  13.704   7.357
82530SOL    HW249488   1.061  13.772   7.430
82531SOL     OW49489  10.623   2.330   5.494
82531SOL    HW149490  10.558   2.376   5.442
82531SOL    HW249491  10.589   2.240   5.501
82532SOL     OW49492  14.178   4.966   2.090
82532SOL    HW149493  14.127   4.966   2.009
82532SOL    HW249494  14.114   4.946   2.158
82533SOL     OW49495  13.403  10.074   9.752
82533SOL    HW149496  13.322  10.110   9.716
82533SOL    HW249497  13.393   9.979   9.742
82534SOL     OW49498  10.026   0.228   3.915
82534SOL    HW149499   9.993   0.151   3.868
82534SOL    HW249500  10.041   0.198   4.004
82535SOL     OW49501   8.838   1.284  11.619
82535SOL    HW149502   8.748   1.254  11.632
82535SOL    HW249503   8.863   1.321  11.704
82536SOL     OW49504  14.092   8.415   5.892
82536SOL    HW149505  14.040   8.374   5.823
82536SOL    HW249506  14.028   8.461   5.946
82537SOL     OW49507   0.731   4.502   8.994
82537SOL    HW149508   0.778   4.475   9.073
82537SOL    HW249509   0.740   4.428   8.934
82538SOL     OW49510   6.082   5.832  12.204
82538SOL    HW149511   6.161   5.795  12.165
82538SOL    HW249512   6.019   5.760  12.202
82539SOL     OW49513   2.880   1.524  11.704
82539SOL    HW149514   2.823   1.490  11.774
82539SOL    HW249515   2.828   1.592  11.661
82540SOL     OW49516   8.042   7.175   2.420
82540SOL    HW149517   7.992   7.099   2.390
82540SOL    HW249518   7.977   7.233   2.460
82541SOL     OW49519   2.153   3.579  10.397
82541SOL    HW149520   2.072   3.556  10.442
82541SOL    HW249521   2.214   3.603  10.467
82542SOL     OW49522  10.586  11.095  14.171
82542SOL    HW149523  10.674  11.063  14.148
82542SOL    HW249524  10.579  11.079  14.265
82543SOL     OW49525   2.279  10.708   9.331
82543SOL    HW149526   2.351  10.645   9.341
82543SOL    HW249527   2.217  10.684   9.400
82544SOL     OW49528   4.667   7.333  12.837
82544SOL    HW149529   4.753   7.348  12.876
82544SOL    HW249530   4.635   7.421  12.817
82545SOL     OW49531  13.720   2.794   6.738
82545SOL    HW149532  13.645   2.836   6.781
82545SOL    HW249533  13.797   2.834   6.778
82546SOL     OW49534   0.132   8.566   0.142
82546SOL    HW149535   0.184   8.517   0.078
82546SOL    HW249536   0.152   8.525   0.226
82547SOL     OW49537   4.234   1.259  11.323
82547SOL    HW149538   4.175   1.203  11.374
82547SOL    HW249539   4.179   1.292  11.252
82548SOL     OW49540   1.373   3.386   4.995
82548SOL    HW149541   1.302   3.411   4.938
82548SOL    HW249542   1.350   3.299   5.027
82549SOL     OW49543   6.783   3.917   1.866
82549SOL    HW149544   6.696   3.955   1.851
82549SOL    HW249545   6.784   3.839   1.810
82550SOL     OW49546  12.045   4.089   0.675
82550SOL    HW149547  12.014   4.073   0.765
82550SOL    HW249548  12.136   4.059   0.676
82551SOL     OW49549  10.040   6.898   9.507
82551SOL    HW149550  10.120   6.847   9.500
82551SOL    HW249551   9.977   6.838   9.547
82552SOL     OW49552  10.641   6.064   1.002
82552SOL    HW149553  10.600   6.130   0.946
82552SOL    HW249554  10.604   5.981   0.973
82553SOL     OW49555   5.017   5.472  12.431
82553SOL    HW149556   5.104   5.434  12.424
82553SOL    HW249557   5.030   5.554  12.480
82554SOL     OW49558  12.540   2.626   6.197
82554SOL    HW149559  12.613   2.616   6.136
82554SOL    HW249560  12.548   2.715   6.231
82555SOL     OW49561   9.080   9.539   0.023
82555SOL    HW149562   9.021   9.550  14.826
82555SOL    HW249563   9.037   9.583   0.095
82556SOL     OW49564   7.289  12.651  10.655
82556SOL    HW149565   7.287  12.744  10.679
82556SOL    HW249566   7.206  12.616  10.688
82557SOL     OW49567   0.861  11.908  14.248
82557SOL    HW149568   0.918  11.925  14.323
82557SOL    HW249569   0.919  11.869  14.182
82558SOL     OW49570   3.255  11.072   0.498
82558SOL    HW149571   3.196  11.005   0.462
82558SOL    HW249572   3.326  11.022   0.537
82559SOL     OW49573   7.559   9.769  10.672
82559SOL    HW149574   7.646   9.729  10.676
82559SOL    HW249575   7.506   9.708  10.622
82560SOL     OW49576   5.673   0.361   6.007
82560SOL    HW149577   5.678   0.405   6.092
82560SOL    HW249578   5.764   0.345   5.982
82561SOL     OW49579   4.643  12.411  12.476
82561SOL    HW149580   4.559  12.392  12.435
82561SOL    HW249581   4.708  12.366  12.421
82562SOL     OW49582  11.789   3.949   9.820
82562SOL    HW149583  11.879   3.922   9.836
82562SOL    HW249584  11.796   4.040   9.791
82563SOL     OW49585  14.578  13.175   0.741
82563SOL    HW149586  14.517  13.249   0.733
82563SOL    HW249587  14.665  13.215   0.741
82564SOL     OW49588   8.710   6.169   0.027
82564SOL    HW149589   8.779   6.103   0.032
82564SOL    HW249590   8.739   6.239   0.085
82565SOL     OW49591  11.983  10.704  10.413
82565SOL    HW149592  12.012  10.777  10.468
82565SOL    HW249593  11.965  10.744  10.328
82566SOL     OW49594   2.298  12.298   9.741
82566SOL    HW149595   2.339  12.365   9.795
82566SOL    HW249596   2.368  12.235   9.723
82567SOL     OW49597  10.800  14.719   3.602
82567SOL    HW149598  10.850  14.793   3.635
82567SOL    HW249599  10.790  14.736   3.508
82568SOL     OW49600   4.264   6.582   8.344
82568SOL    HW149601   4.279   6.675   8.330
82568SOL    HW249602   4.206   6.577   8.420
82569SOL     OW49603  11.445  12.986   0.478
82569SOL    HW149604  11.436  12.916   0.543
82569SOL    HW249605  11.515  12.956   0.420
82570SOL     OW49606   7.757   9.715  10.936
82570SOL    HW149607   7.720   9.725  11.024
82570SOL    HW249608   7.680   9.709  10.880
82571SOL     OW49609   1.129   6.719   6.488
82571SOL    HW149610   1.064   6.695   6.423
82571SOL    HW249611   1.146   6.812   6.473
82572SOL     OW49612  10.624   6.674   3.587
82572SOL    HW149613  10.591   6.722   3.663
82572SOL    HW249614  10.634   6.584   3.618
82573SOL     OW49615  14.873   7.383   9.326
82573SOL    HW149616   0.067   7.412   9.269
82573SOL    HW249617   0.037   7.364   9.410
82574SOL     OW49618   1.117  13.516   4.431
82574SOL    HW149619   1.062  13.588   4.462
82574SOL    HW249620   1.166  13.553   4.358
82575SOL     OW49621   1.177   4.076  10.392
82575SOL    HW149622   1.261   4.115  10.416
82575SOL    HW249623   1.142   4.041  10.474
82576SOL     OW49624   7.543  14.478   2.302
82576SOL    HW149625   7.638  14.468   2.304
82576SOL    HW249626   7.511  14.397   2.263
82577SOL     OW49627  14.164  12.131   1.105
82577SOL    HW149628  14.170  12.075   1.182
82577SOL    HW249629  14.107  12.083   1.045
82578SOL     OW49630   1.623  13.686   0.594
82578SOL    HW149631   1.560  13.753   0.568
82578SOL    HW249632   1.705  13.734   0.605
82579SOL     OW49633   4.947  13.730   9.697
82579SOL    HW149634   4.961  13.652   9.752
82579SOL    HW249635   5.015  13.724   9.630
82580SOL     OW49636   8.051   1.076   8.561
82580SOL    HW149637   8.004   1.070   8.644
82580SOL    HW249638   8.101   1.158   8.568
82581SOL     OW49639  10.844  14.853  12.232
82581SOL    HW149640  10.901   0.010  12.163
82581SOL    HW249641  10.758   0.013  12.213
82582SOL     OW49642  10.237   5.606  14.330
82582SOL    HW149643  10.256   5.619  14.237
82582SOL    HW249644  10.268   5.687  14.372
82583SOL     OW49645   9.122   4.027  12.803
82583SOL    HW149646   9.132   4.051  12.711
82583SOL    HW249647   9.064   4.095  12.839
82584SOL     OW49648  11.357   9.726   3.192
82584SOL    HW149649  11.398   9.719   3.106
82584SOL    HW249650  11.263   9.724   3.174
82585SOL     OW49651   5.228  12.369   4.019
82585SOL    HW149652   5.226  12.359   3.924
82585SOL    HW249653   5.287  12.443   4.035
82586SOL     OW49654  10.607   4.162   2.383
82586SOL    HW149655  10.585   4.250   2.354
82586SOL    HW249656  10.646   4.121   2.305
82587SOL     OW49657  14.289   5.773   4.135
82587SOL    HW149658  14.357   5.751   4.199
82587SOL    HW249659  14.257   5.859   4.163
82588SOL     OW49660  10.249   4.334   7.852
82588SOL    HW149661  10.333   4.290   7.838
82588SOL    HW249662  10.213   4.291   7.930
82589SOL     OW49663   6.874   6.823  12.776
82589SOL    HW149664   6.831   6.826  12.691
82589SOL    HW249665   6.848   6.905  12.819
82590SOL     OW49666   4.778   7.669   0.713
82590SOL    HW149667   4.757   7.601   0.650
82590SOL    HW249668   4.826   7.624   0.782
82591SOL     OW49669   8.019   9.526  11.855
82591SOL    HW149670   7.974   9.521  11.771
82591SOL    HW249671   8.105   9.487  11.839
82592SOL     OW49672   0.160   5.023   3.445
82592SOL    HW149673   0.228   5.041   3.380
82592SOL    HW249674   0.103   4.959   3.404
82593SOL     OW49675   4.819   8.532  10.695
82593SOL    HW149676   4.751   8.523  10.629
82593SOL    HW249677   4.779   8.581  10.766
82594SOL     OW49678   3.972   9.847  10.245
82594SOL    HW149679   3.938   9.791  10.175
82594SOL    HW249680   4.037   9.793  10.290
82595SOL     OW49681  13.235   0.712   2.093
82595SOL    HW149682  13.153   0.760   2.082
82595SOL    HW249683  13.251   0.672   2.008
82596SOL     OW49684   6.486   0.593   1.988
82596SOL    HW149685   6.571   0.616   2.026
82596SOL    HW249686   6.430   0.576   2.064
82597SOL     OW49687  14.717   3.132  11.401
82597SOL    HW149688  14.808   3.159  11.408
82597SOL    HW249689  14.667   3.206  11.434
82598SOL     OW49690  12.122   1.652  10.046
82598SOL    HW149691  12.201   1.665  10.098
82598SOL    HW249692  12.134   1.566  10.004
82599SOL     OW49693  14.595   2.600  13.181
82599SOL    HW149694  14.681   2.605  13.223
82599SOL    HW249695  14.608   2.641  13.095
82600SOL     OW49696  11.903   0.121  11.181
82600SOL    HW149697  11.846   0.091  11.110
82600SOL    HW249698  11.873   0.210  11.199
82601SOL     OW49699   7.778   2.018  13.048
82601SOL    HW149700   7.711   1.960  13.085
82601SOL    HW249701   7.729   2.092  13.012
82602SOL     OW49702  13.457   8.762  14.821
82602SOL    HW149703  13.456   8.767   0.039
82602SOL    HW249704  13.450   8.669  14.802
82603SOL     OW49705  10.978   6.030  13.447
82603SOL    HW149706  10.942   6.113  13.479
82603SOL    HW249707  11.061   6.021  13.493
82604SOL     OW49708  12.561   9.376   0.487
82604SOL    HW149709  12.586   9.286   0.469
82604SOL    HW249710  12.644   9.424   0.490
82605SOL     OW49711   0.965   4.735   7.099
82605SOL    HW149712   0.893   4.746   7.036
82605SOL    HW249713   1.015   4.660   7.067
82606SOL     OW49714   1.195   4.646   0.774
82606SOL    HW149715   1.155   4.733   0.785
82606SOL    HW249716   1.255   4.638   0.848
82607SOL     OW49717   6.719   9.311  12.762
82607SOL    HW149718   6.737   9.384  12.822
82607SOL    HW249719   6.741   9.345  12.675
82608SOL     OW49720   2.540  13.039  11.644
82608SOL    HW149721   2.495  13.120  11.620
82608SOL    HW249722   2.633  13.058  11.628
82609SOL     OW49723   2.403   4.700  12.147
82609SOL    HW149724   2.398   4.632  12.215
82609SOL    HW249725   2.447   4.773  12.189
82610SOL     OW49726  10.907  10.934   9.360
82610SOL    HW149727  10.832  10.992   9.372
82610SOL    HW249728  10.908  10.880   9.439
82611SOL     OW49729   0.458   9.636   4.571
82611SOL    HW149730   0.472   9.549   4.532
82611SOL    HW249731   0.457   9.620   4.665
82612SOL     OW49732  12.510   0.879   0.769
82612SOL    HW149733  12.484   0.947   0.831
82612SOL    HW249734  12.593   0.909   0.734
82613SOL     OW49735   2.222   9.981   6.336
82613SOL    HW149736   2.202  10.035   6.259
82613SOL    HW249737   2.140   9.979   6.385
82614SOL     OW49738   4.052   6.810  11.198
82614SOL    HW149739   4.073   6.824  11.105
82614SOL    HW249740   4.047   6.897  11.235
82615SOL     OW49741   1.955  12.425   3.880
82615SOL    HW149742   1.891  12.471   3.825
82615SOL    HW249743   2.040  12.449   3.842
82616SOL     OW49744  14.592   9.895  11.031
82616SOL    HW149745  14.566   9.936  11.114
82616SOL    HW249746  14.565   9.958  10.964
82617SOL     OW49747  13.440  13.992   2.356
82617SOL    HW149748  13.415  14.011   2.446
82617SOL    HW249749  13.486  13.908   2.361
82618SOL     OW49750  11.940   8.697   2.104
82618SOL    HW149751  11.857   8.678   2.061
82618SOL    HW249752  11.915   8.733   2.189
82619SOL     OW49753   4.692  14.342   5.310
82619SOL    HW149754   4.754  14.416   5.315
82619SOL    HW249755   4.638  14.361   5.233
82620SOL     OW49756   2.794   5.217  13.020
82620SOL    HW149757   2.807   5.135  13.068
82620SOL    HW249758   2.865   5.273  13.050
82621SOL     OW49759  14.819   1.693  10.321
82621SOL    HW149760   0.025   1.679  10.366
82621SOL    HW249761  14.795   1.607  10.288
82622SOL     OW49762  11.274   3.484  14.360
82622SOL    HW149763  11.325   3.413  14.401
82622SOL    HW249764  11.198   3.495  14.417
82623SOL     OW49765   3.392   1.996   4.741
82623SOL    HW149766   3.473   1.946   4.728
82623SOL    HW249767   3.411   2.055   4.814
82624SOL     OW49768   2.493   7.815   1.708
82624SOL    HW149769   2.527   7.792   1.794
82624SOL    HW249770   2.434   7.742   1.686
82625SOL     OW49771   6.185   9.755  14.049
82625SOL    HW149772   6.137   9.835  14.028
82625SOL    HW249773   6.191   9.708  13.966
82626SOL     OW49774   7.502   6.235  13.229
82626SOL    HW149775   7.562   6.248  13.156
82626SOL    HW249776   7.546   6.173  13.287
82627SOL     OW49777   1.641   2.353   5.723
82627SOL    HW149778   1.707   2.404   5.769
82627SOL    HW249779   1.561   2.405   5.730
82628SOL     OW49780   3.078   3.554   6.669
82628SOL    HW149781   3.155   3.605   6.645
82628SOL    HW249782   3.055   3.506   6.589
82629SOL     OW49783   8.542  11.644   8.872
82629SOL    HW149784   8.610  11.669   8.935
82629SOL    HW249785   8.587  11.586   8.810
82630SOL     OW49786  12.767   1.019   7.357
82630SOL    HW149787  12.692   0.970   7.393
82630SOL    HW249788  12.728   1.081   7.296
82631SOL     OW49789  12.905   7.449   3.901
82631SOL    HW149790  12.862   7.401   3.830
82631SOL    HW249791  12.982   7.488   3.860
82632SOL     OW49792   2.184  10.122   7.433
82632SOL    HW149793   2.196  10.094   7.524
82632SOL    HW249794   2.147  10.046   7.389
82633SOL     OW49795   6.941   9.397  11.879
82633SOL    HW149796   6.886   9.475  11.883
82633SOL    HW249797   7.024   9.427  11.842
82634SOL     OW49798   3.430   0.837  13.372
82634SOL    HW149799   3.492   0.901  13.406
82634SOL    HW249800   3.369   0.888  13.319
82635SOL     OW49801   5.538   8.999  14.272
82635SOL    HW149802   5.473   8.967  14.210
82635SOL    HW249803   5.617   9.012  14.219
82636SOL     OW49804   9.271   8.602  11.671
82636SOL    HW149805   9.188   8.650  11.662
82636SOL    HW249806   9.245   8.518  11.710
82637SOL     OW49807  11.772   1.733   7.044
82637SOL    HW149808  11.708   1.803   7.031
82637SOL    HW249809  11.799   1.742   7.135
82638SOL     OW49810   4.809  12.795   7.460
82638SOL    HW149811   4.757  12.851   7.402
82638SOL    HW249812   4.819  12.713   7.411
82639SOL     OW49813   9.749  10.277  11.017
82639SOL    HW149814   9.789  10.316  10.939
82639SOL    HW249815   9.657  10.303  11.012
82640SOL     OW49816  12.731   1.162   9.755
82640SOL    HW149817  12.814   1.170   9.802
82640SOL    HW249818  12.691   1.083   9.790
82641SOL     OW49819   8.796  14.438   4.096
82641SOL    HW149820   8.746  14.519   4.096
82641SOL    HW249821   8.763  14.389   4.172
82642SOL     OW49822   1.410   9.203   2.607
82642SOL    HW149823   1.464   9.177   2.533
82642SOL    HW249824   1.471   9.204   2.681
82643SOL     OW49825   0.322   4.411  12.407
82643SOL    HW149826   0.284   4.398  12.493
82643SOL    HW249827   0.247   4.410  12.347
82644SOL     OW49828  10.518   4.460   6.094
82644SOL    HW149829  10.479   4.534   6.139
82644SOL    HW249830  10.569   4.414   6.161
82645SOL     OW49831   2.136   0.820   1.705
82645SOL    HW149832   2.109   0.747   1.648
82645SOL    HW249833   2.112   0.899   1.656
82646SOL     OW49834   0.399  12.096   5.839
82646SOL    HW149835   0.402  12.034   5.913
82646SOL    HW249836   0.438  12.048   5.766
82647SOL     OW49837   8.757   8.064   7.201
82647SOL    HW149838   8.743   8.158   7.213
82647SOL    HW249839   8.842   8.047   7.242
82648SOL     OW49840   7.408   6.020   3.794
82648SOL    HW149841   7.374   5.933   3.775
82648SOL    HW249842   7.433   6.017   3.887
82649SOL     OW49843   7.922   0.926   9.134
82649SOL    HW149844   7.838   0.892   9.164
82649SOL    HW249845   7.951   0.864   9.067
82650SOL     OW49846   4.498   8.869   4.239
82650SOL    HW149847   4.492   8.946   4.296
82650SOL    HW249848   4.560   8.811   4.283
82651SOL     OW49849   5.656   2.603   1.779
82651SOL    HW149850   5.698   2.528   1.821
82651SOL    HW249851   5.695   2.606   1.691
82652SOL     OW49852   8.398   2.863   6.519
82652SOL    HW149853   8.419   2.955   6.532
82652SOL    HW249854   8.303   2.860   6.515
82653SOL     OW49855  12.867   0.773   6.677
82653SOL    HW149856  12.906   0.801   6.760
82653SOL    HW249857  12.836   0.684   6.693
82654SOL     OW49858  11.361   1.562   9.704
82654SOL    HW149859  11.284   1.595   9.658
82654SOL    HW249860  11.352   1.467   9.701
82655SOL     OW49861   8.383  13.675   2.809
82655SOL    HW149862   8.331  13.745   2.847
82655SOL    HW249863   8.335  13.595   2.830
82656SOL     OW49864  13.604  14.478   8.441
82656SOL    HW149865  13.630  14.452   8.353
82656SOL    HW249866  13.679  14.527   8.475
82657SOL     OW49867   9.419   9.905   9.221
82657SOL    HW149868   9.399   9.876   9.310
82657SOL    HW249869   9.467   9.832   9.182
82658SOL     OW49870   0.477   8.422   5.317
82658SOL    HW149871   0.527   8.392   5.393
82658SOL    HW249872   0.404   8.472   5.355
82659SOL     OW49873   1.520   9.435  14.315
82659SOL    HW149874   1.549   9.425  14.406
82659SOL    HW249875   1.485   9.349  14.292
82660SOL     OW49876   5.587   2.908   7.614
82660SOL    HW149877   5.503   2.911   7.661
82660SOL    HW249878   5.592   2.992   7.568
82661SOL     OW49879   0.948   3.271   4.237
82661SOL    HW149880   0.875   3.283   4.298
82661SOL    HW249881   0.970   3.359   4.207
82662SOL     OW49882   5.403   4.297  14.572
82662SOL    HW149883   5.342   4.313  14.500
82662SOL    HW249884   5.485   4.336  14.542
82663SOL     OW49885   0.941   3.227   8.451
82663SOL    HW149886   0.942   3.151   8.509
82663SOL    HW249887   0.967   3.193   8.365
82664SOL     OW49888  13.494   6.428  13.477
82664SOL    HW149889  13.405   6.430  13.443
82664SOL    HW249890  13.542   6.372  13.416
82665SOL     OW49891  10.956   5.345   4.673
82665SOL    HW149892  11.036   5.388   4.642
82665SOL    HW249893  10.983   5.254   4.689
82666SOL     OW49894   5.266  10.315  12.675
82666SOL    HW149895   5.323  10.388  12.701
82666SOL    HW249896   5.266  10.318  12.579
82667SOL     OW49897   5.985   7.999   7.779
82667SOL    HW149898   5.900   7.984   7.821
82667SOL    HW249899   6.035   8.050   7.844
82668SOL     OW49900  11.988  10.431   1.609
82668SOL    HW149901  12.006  10.471   1.694
82668SOL    HW249902  11.895  10.449   1.594
82669SOL     OW49903  14.738  12.947  12.456
82669SOL    HW149904  14.831  12.928  12.446
82669SOL    HW249905  14.709  12.966  12.367
82670SOL     OW49906   0.287  12.439   5.185
82670SOL    HW149907   0.338  12.519   5.194
82670SOL    HW249908   0.275  12.407   5.275
82671SOL     OW49909   2.065   1.894  11.912
82671SOL    HW149910   2.106   1.955  11.973
82671SOL    HW249911   2.012   1.950  11.855
82672SOL     OW49912   2.091   0.127  11.043
82672SOL    HW149913   2.093   0.204  10.985
82672SOL    HW249914   2.180   0.094  11.042
82673SOL     OW49915   4.976   1.561  12.120
82673SOL    HW149916   4.897   1.507  12.115
82673SOL    HW249917   5.012   1.544  12.207
82674SOL     OW49918   7.936  11.918  11.200
82674SOL    HW149919   8.001  11.986  11.182
82674SOL    HW249920   7.968  11.874  11.279
82675SOL     OW49921   0.896   9.741  14.425
82675SOL    HW149922   0.901   9.795  14.504
82675SOL    HW249923   0.949   9.788  14.360
82676SOL     OW49924  12.546  13.502   5.325
82676SOL    HW149925  12.633  13.538   5.305
82676SOL    HW249926  12.504  13.493   5.239
82677SOL     OW49927  13.000   7.680  12.009
82677SOL    HW149928  12.991   7.758  11.955
82677SOL    HW249929  13.030   7.612  11.949
82678SOL     OW49930   1.116   4.960   4.045
82678SOL    HW149931   1.031   4.963   4.002
82678SOL    HW249932   1.135   5.051   4.067
82679SOL     OW49933   9.299   6.286  10.072
82679SOL    HW149934   9.373   6.303  10.130
82679SOL    HW249935   9.222   6.290  10.129
82680SOL     OW49936  14.416   2.532   8.323
82680SOL    HW149937  14.499   2.577   8.308
82680SOL    HW249938  14.388   2.561   8.409
82681SOL     OW49939  14.703  13.937   9.130
82681SOL    HW149940  14.776  13.985   9.091
82681SOL    HW249941  14.676  13.876   9.061
82682SOL     OW49942   3.906  11.421  10.183
82682SOL    HW149943   3.988  11.465  10.159
82682SOL    HW249944   3.871  11.389  10.099
82683SOL     OW49945   5.907   8.897  14.430
82683SOL    HW149946   5.942   8.822  14.383
82683SOL    HW249947   5.883   8.959  14.361
82684SOL     OW49948   3.773   2.949  10.030
82684SOL    HW149949   3.812   2.918  10.112
82684SOL    HW249950   3.679   2.935  10.041
82685SOL     OW49951  10.217  10.507   6.671
82685SOL    HW149952  10.250  10.541   6.588
82685SOL    HW249953  10.272  10.430   6.688
82686SOL     OW49954   2.569  12.069   4.569
82686SOL    HW149955   2.490  12.047   4.520
82686SOL    HW249956   2.542  12.067   4.661
82687SOL     OW49957   1.492  12.800   6.373
82687SOL    HW149958   1.513  12.797   6.466
82687SOL    HW249959   1.421  12.737   6.362
82688SOL     OW49960   6.134  11.027   7.638
82688SOL    HW149961   6.124  11.091   7.708
82688SOL    HW249962   6.179  10.953   7.679
82689SOL     OW49963  10.428   7.493   9.865
82689SOL    HW149964  10.337   7.525   9.865
82689SOL    HW249965  10.446   7.473   9.773
82690SOL     OW49966  10.322  12.027   4.573
82690SOL    HW149967  10.285  12.033   4.485
82690SOL    HW249968  10.340  12.118   4.598
82691SOL     OW49969   4.947   7.896  14.300
82691SOL    HW149970   4.931   7.930  14.212
82691SOL    HW249971   4.861   7.868  14.331
82692SOL     OW49972   7.310   6.531   4.638
82692SOL    HW149973   7.293   6.447   4.596
82692SOL    HW249974   7.258   6.529   4.719
82693SOL     OW49975   3.676  12.510   0.087
82693SOL    HW149976   3.635  12.595   0.103
82693SOL    HW249977   3.765  12.532   0.058
82694SOL     OW49978   3.713  14.472  13.671
82694SOL    HW149979   3.779  14.463  13.739
82694SOL    HW249980   3.636  14.508  13.715
82695SOL     OW49981  10.053   6.095   8.284
82695SOL    HW149982  10.026   6.186   8.273
82695SOL    HW249983  10.118   6.097   8.354
82696SOL     OW49984  13.330   1.307   4.331
82696SOL    HW149985  13.333   1.315   4.235
82696SOL    HW249986  13.248   1.351   4.355
82697SOL     OW49987   8.810  13.288   3.733
82697SOL    HW149988   8.741  13.263   3.672
82697SOL    HW249989   8.797  13.231   3.809
82698SOL     OW49990   6.131  10.538  13.858
82698SOL    HW149991   6.102  10.464  13.911
82698SOL    HW249992   6.099  10.517  13.770
82699SOL     OW49993  11.663   9.974  12.069
82699SOL    HW149994  11.733   9.911  12.055
82699SOL    HW249995  11.592   9.945  12.013
82700SOL     OW49996   0.890  13.694   6.509
82700SOL    HW149997   0.856  13.605   6.505
82700SOL    HW249998   0.868  13.724   6.598
82701SOL     OW49999   9.057   0.412   6.924
82701SOL    HW150000   9.032   0.467   6.849
82701SOL    HW250001   8.999   0.336   6.918
82702SOL     OW50002   9.521   9.078   5.937
82702SOL    HW150003   9.479   9.153   5.979
82702SOL    HW250004   9.565   9.115   5.860
82703SOL     OW50005  13.572  13.975   6.618
82703SOL    HW150006  13.559  13.987   6.524
82703SOL    HW250007  13.540  14.057   6.657
82704SOL     OW50008   4.811   3.767   9.063
82704SOL    HW150009   4.835   3.763   8.971
82704SOL    HW250010   4.716   3.782   9.062
82705SOL     OW50011   1.487   1.000   3.007
82705SOL    HW150012   1.402   1.037   3.031
82705SOL    HW250013   1.536   1.074   2.970
82706SOL     OW50014   4.875   2.273   7.842
82706SOL    HW150015   4.881   2.230   7.927
82706SOL    HW250016   4.782   2.282   7.825
82707SOL     OW50017   7.659  12.433  14.692
82707SOL    HW150018   7.606  12.458  14.767
82707SOL    HW250019   7.749  12.453  14.718
82708SOL     OW50020   0.808   5.267   0.107
82708SOL    HW150021   0.755   5.325   0.052
82708SOL    HW250022   0.755   5.188   0.117
82709SOL     OW50023   0.559   5.705  11.491
82709SOL    HW150024   0.523   5.658  11.415
82709SOL    HW250025   0.498   5.777  11.505
82710SOL     OW50026   3.113   5.728   1.157
82710SOL    HW150027   3.137   5.639   1.130
82710SOL    HW250028   3.030   5.717   1.202
82711SOL     OW50029   7.422   6.374   6.038
82711SOL    HW150030   7.473   6.299   6.008
82711SOL    HW250031   7.424   6.369   6.133
82712SOL     OW50032   6.727  10.309   1.902
82712SOL    HW150033   6.681  10.378   1.949
82712SOL    HW250034   6.799  10.284   1.960
82713SOL     OW50035  11.915   4.375   8.790
82713SOL    HW150036  11.994   4.362   8.842
82713SOL    HW250037  11.938   4.446   8.730
82714SOL     OW50038  10.762   5.323  11.930
82714SOL    HW150039  10.683   5.277  11.958
82714SOL    HW250040  10.767   5.399  11.988
82715SOL     OW50041   5.976   6.443  12.261
82715SOL    HW150042   5.899   6.485  12.222
82715SOL    HW250043   6.004   6.378  12.196
82716SOL     OW50044   3.765  11.131  14.335
82716SOL    HW150045   3.752  11.216  14.376
82716SOL    HW250046   3.678  11.103  14.308
82717SOL     OW50047   2.541  14.043   3.862
82717SOL    HW150048   2.490  13.967   3.832
82717SOL    HW250049   2.485  14.118   3.842
82718SOL     OW50050  12.815   4.318  14.593
82718SOL    HW150051  12.760   4.347  14.519
82718SOL    HW250052  12.773   4.357  14.670
82719SOL     OW50053   3.527   6.421   2.624
82719SOL    HW150054   3.579   6.341   2.618
82719SOL    HW250055   3.502   6.426   2.717
82720SOL     OW50056  10.153  14.155   9.004
82720SOL    HW150057  10.125  14.102   8.930
82720SOL    HW250058  10.225  14.208   8.970
82721SOL     OW50059   1.906  14.330   4.374
82721SOL    HW150060   1.889  14.414   4.416
82721SOL    HW250061   1.862  14.265   4.430
82722SOL     OW50062   9.228   1.185  14.238
82722SOL    HW150063   9.167   1.112  14.240
82722SOL    HW250064   9.310   1.148  14.271
82723SOL     OW50065   6.538   5.917   4.800
82723SOL    HW150066   6.543   5.849   4.867
82723SOL    HW250067   6.449   5.912   4.766
82724SOL     OW50068   0.676   0.310  13.440
82724SOL    HW150069   0.672   0.236  13.501
82724SOL    HW250070   0.748   0.364  13.474
82725SOL     OW50071   4.734   4.934   1.152
82725SOL    HW150072   4.789   4.970   1.083
82725SOL    HW250073   4.792   4.876   1.202
82726SOL     OW50074   3.505   4.951   0.239
82726SOL    HW150075   3.483   4.887   0.306
82726SOL    HW250076   3.493   4.905   0.156
82727SOL     OW50077   8.147   0.272   7.029
82727SOL    HW150078   8.234   0.247   7.060
82727SOL    HW250079   8.105   0.313   7.105
82728SOL     OW50080   4.940   8.841  11.217
82728SOL    HW150081   5.001   8.899  11.172
82728SOL    HW250082   4.993   8.766  11.244
82729SOL     OW50083   1.261   8.379  13.277
82729SOL    HW150084   1.224   8.386  13.364
82729SOL    HW250085   1.186   8.370  13.219
82730SOL     OW50086   3.646   0.874   8.029
82730SOL    HW150087   3.677   0.784   8.020
82730SOL    HW250088   3.698   0.910   8.101
82731SOL     OW50089  11.735  14.540   0.884
82731SOL    HW150090  11.720  14.448   0.908
82731SOL    HW250091  11.804  14.536   0.818
82732SOL     OW50092   2.878   1.088   9.884
82732SOL    HW150093   2.900   1.051   9.969
82732SOL    HW250094   2.891   1.016   9.822
82733SOL     OW50095   8.189  14.183  10.012
82733SOL    HW150096   8.249  14.257  10.021
82733SOL    HW250097   8.106  14.215  10.048
82734SOL     OW50098   1.586   2.380   3.552
82734SOL    HW150099   1.565   2.287   3.541
82734SOL    HW250100   1.528   2.410   3.622
82735SOL     OW50101   3.232  12.738  12.815
82735SOL    HW150102   3.210  12.722  12.724
82735SOL    HW250103   3.326  12.725  12.820
82736SOL     OW50104   1.058   5.808   3.983
82736SOL    HW150105   0.963   5.821   3.993
82736SOL    HW250106   1.094   5.897   3.988
82737SOL     OW50107  11.609   6.439   1.268
82737SOL    HW150108  11.626   6.351   1.234
82737SOL    HW250109  11.597   6.492   1.189
82738SOL     OW50110   2.029   5.849   7.456
82738SOL    HW150111   2.114   5.890   7.473
82738SOL    HW250112   2.004   5.881   7.369
82739SOL     OW50113   1.519   7.194   6.919
82739SOL    HW150114   1.581   7.245   6.866
82739SOL    HW250115   1.435   7.236   6.906
82740SOL     OW50116   3.798  10.756  12.989
82740SOL    HW150117   3.709  10.727  13.012
82740SOL    HW250118   3.786  10.806  12.908
82741SOL     OW50119  11.732   1.189   1.929
82741SOL    HW150120  11.782   1.142   1.862
82741SOL    HW250121  11.777   1.273   1.937
82742SOL     OW50122   5.511  12.307   8.642
82742SOL    HW150123   5.477  12.381   8.693
82742SOL    HW250124   5.494  12.230   8.696
82743SOL     OW50125  14.077   8.947   2.044
82743SOL    HW150126  14.065   9.007   1.970
82743SOL    HW250127  14.115   9.001   2.113
82744SOL     OW50128  14.051  12.400   2.111
82744SOL    HW150129  14.107  12.389   2.034
82744SOL    HW250130  14.068  12.322   2.164
82745SOL     OW50131  11.434   9.818   9.548
82745SOL    HW150132  11.397   9.731   9.561
82745SOL    HW250133  11.513   9.804   9.497
82746SOL     OW50134   2.468   7.537   0.835
82746SOL    HW150135   2.413   7.594   0.781
82746SOL    HW250136   2.551   7.585   0.841
82747SOL     OW50137   9.883  12.025  11.291
82747SOL    HW150138   9.941  11.994  11.360
82747SOL    HW250139   9.913  11.979  11.212
82748SOL     OW50140   8.092  11.079   4.003
82748SOL    HW150141   8.161  11.145   3.995
82748SOL    HW250142   8.031  11.115   4.067
82749SOL     OW50143   4.561   9.233   9.835
82749SOL    HW150144   4.586   9.325   9.839
82749SOL    HW250145   4.596   9.194   9.915
82750SOL     OW50146   9.749   3.779   8.652
82750SOL    HW150147   9.802   3.845   8.608
82750SOL    HW250148   9.809   3.739   8.715
82751SOL     OW50149   0.131  12.452   3.641
82751SOL    HW150150   0.126  12.531   3.694
82751SOL    HW250151   0.140  12.484   3.551
82752SOL     OW50152   5.908   3.874   5.528
82752SOL    HW150153   5.943   3.788   5.553
82752SOL    HW250154   5.824   3.880   5.573
82753SOL     OW50155   8.675   1.199  14.484
82753SOL    HW150156   8.725   1.279  14.466
82753SOL    HW250157   8.692   1.180  14.576
82754SOL     OW50158   1.425  11.176   3.289
82754SOL    HW150159   1.468  11.143   3.368
82754SOL    HW250160   1.492  11.175   3.222
82755SOL     OW50161  12.012  13.095   0.457
82755SOL    HW150162  12.093  13.049   0.481
82755SOL    HW250163  11.979  13.128   0.541
82756SOL     OW50164   6.286   5.868   9.766
82756SOL    HW150165   6.361   5.877   9.707
82756SOL    HW250166   6.306   5.927   9.838
82757SOL     OW50167  14.723   4.153   1.217
82757SOL    HW150168  14.661   4.100   1.166
82757SOL    HW250169  14.672   4.182   1.293
82758SOL     OW50170   7.513   0.013   5.366
82758SOL    HW150171   7.517  14.823   5.434
82758SOL    HW250172   7.586   0.071   5.386
82759SOL     OW50173  14.312  10.488   8.609
82759SOL    HW150174  14.387  10.492   8.667
82759SOL    HW250175  14.266  10.571   8.623
82760SOL     OW50176   5.973   3.250   4.105
82760SOL    HW150177   5.898   3.215   4.153
82760SOL    HW250178   5.970   3.207   4.020
82761SOL     OW50179   9.885  13.683   8.335
82761SOL    HW150180   9.869  13.589   8.347
82761SOL    HW250181   9.920  13.689   8.246
82762SOL     OW50182  10.217   8.418   7.669
82762SOL    HW150183  10.302   8.380   7.649
82762SOL    HW250184  10.233   8.475   7.744
82763SOL     OW50185  14.187   4.962   9.863
82763SOL    HW150186  14.260   4.957   9.925
82763SOL    HW250187  14.224   4.930   9.781
82764SOL     OW50188  10.601   0.142  13.357
82764SOL    HW150189  10.646   0.066  13.319
82764SOL    HW250190  10.567   0.111  13.441
82765SOL     OW50191   0.701   9.529   6.319
82765SOL    HW150192   0.710   9.592   6.248
82765SOL    HW250193   0.789   9.492   6.329
82766SOL     OW50194   9.156   4.129   7.019
82766SOL    HW150195   9.223   4.172   6.966
82766SOL    HW250196   9.095   4.199   7.042
82767SOL     OW50197   0.966   7.361   3.604
82767SOL    HW150198   0.880   7.400   3.589
82767SOL    HW250199   0.960   7.273   3.567
82768SOL     OW50200   3.094  12.393   5.644
82768SOL    HW150201   3.135  12.348   5.570
82768SOL    HW250202   3.075  12.481   5.611
82769SOL     OW50203   1.158   2.666   2.034
82769SOL    HW150204   1.250   2.645   2.048
82769SOL    HW250205   1.149   2.674   1.939
82770SOL     OW50206   0.383   8.270   5.116
82770SOL    HW150207   0.438   8.319   5.176
82770SOL    HW250208   0.444   8.224   5.058
82771SOL     OW50209   0.479   7.443   5.941
82771SOL    HW150210   0.529   7.378   5.891
82771SOL    HW250211   0.485   7.523   5.888
82772SOL     OW50212   4.075   3.590   5.256
82772SOL    HW150213   4.164   3.557   5.245
82772SOL    HW250214   4.063   3.596   5.350
82773SOL     OW50215  10.811   4.667  12.714
82773SOL    HW150216  10.749   4.732  12.681
82773SOL    HW250217  10.897   4.702  12.691
82774SOL     OW50218   1.672   1.253   2.960
82774SOL    HW150219   1.737   1.320   2.938
82774SOL    HW250220   1.630   1.284   3.040
82775SOL     OW50221   6.600   0.282   6.619
82775SOL    HW150222   6.661   0.304   6.548
82775SOL    HW250223   6.606   0.187   6.627
82776SOL     OW50224   5.895   1.244  11.903
82776SOL    HW150225   5.891   1.273  11.812
82776SOL    HW250226   5.807   1.261  11.938
82777SOL     OW50227   5.714   7.021   2.403
82777SOL    HW150228   5.699   6.929   2.424
82777SOL    HW250229   5.651   7.069   2.457
82778SOL     OW50230  12.723  11.324  10.960
82778SOL    HW150231  12.708  11.231  10.978
82778SOL    HW250232  12.764  11.358  11.040
82779SOL     OW50233  14.809  14.050  11.387
82779SOL    HW150234  14.861  14.003  11.452
82779SOL    HW250235  14.763  14.117  11.437
82780SOL     OW50236   6.326   8.143   6.803
82780SOL    HW150237   6.280   8.060   6.786
82780SOL    HW250238   6.386   8.123   6.874
82781SOL     OW50239  14.363  13.279   1.402
82781SOL    HW150240  14.309  13.207   1.434
82781SOL    HW250241  14.337  13.290   1.310
82782SOL     OW50242  14.517   7.673   0.410
82782SOL    HW150243  14.513   7.707   0.320
82782SOL    HW250244  14.439   7.710   0.452
82783SOL     OW50245   0.875   8.461   9.924
82783SOL    HW150246   0.791   8.415   9.926
82783SOL    HW250247   0.917   8.429   9.844
82784SOL     OW50248   7.072   5.552   8.991
82784SOL    HW150249   7.025   5.518   8.915
82784SOL    HW250250   7.155   5.583   8.956
82785SOL     OW50251   0.867  10.538   8.791
82785SOL    HW150252   0.909  10.566   8.709
82785SOL    HW250253   0.831  10.619   8.828
82786SOL     OW50254  13.222   5.619   6.674
82786SOL    HW150255  13.231   5.697   6.730
82786SOL    HW250256  13.178   5.555   6.730
82787SOL     OW50257   4.016  10.115  13.273
82787SOL    HW150258   3.976  10.028  13.273
82787SOL    HW250259   3.943  10.174  13.292
82788SOL     OW50260  12.220  11.416   5.752
82788SOL    HW150261  12.254  11.332   5.782
82788SOL    HW250262  12.299  11.469   5.738
82789SOL     OW50263   5.804  10.784   7.743
82789SOL    HW150264   5.799  10.691   7.717
82789SOL    HW250265   5.799  10.783   7.838
82790SOL     OW50266   7.286   8.875  11.355
82790SOL    HW150267   7.363   8.827  11.325
82790SOL    HW250268   7.219   8.857  11.289
82791SOL     OW50269   6.664   6.544  11.526
82791SOL    HW150270   6.598   6.475  11.537
82791SOL    HW250271   6.745   6.497  11.510
82792SOL     OW50272  13.026   1.448   7.388
82792SOL    HW150273  13.104   1.414   7.432
82792SOL    HW250274  12.954   1.422   7.446
82793SOL     OW50275  10.981   3.102   0.672
82793SOL    HW150276  10.966   3.195   0.654
82793SOL    HW250277  10.920   3.082   0.743
82794SOL     OW50278   5.837  10.096   7.408
82794SOL    HW150279   5.869  10.011   7.378
82794SOL    HW250280   5.759  10.075   7.459
82795SOL     OW50281   5.541  13.732   9.625
82795SOL    HW150282   5.563  13.825   9.619
82795SOL    HW250283   5.465  13.730   9.683
82796SOL     OW50284   8.141  10.209   4.607
82796SOL    HW150285   8.198  10.232   4.681
82796SOL    HW250286   8.084  10.141   4.642
82797SOL     OW50287  11.843  11.026   4.559
82797SOL    HW150288  11.825  10.933   4.548
82797SOL    HW250289  11.890  11.052   4.480
82798SOL     OW50290   5.143   9.297   2.408
82798SOL    HW150291   5.204   9.322   2.477
82798SOL    HW250292   5.061   9.277   2.454
82799SOL     OW50293  14.062   5.531  10.377
82799SOL    HW150294  14.094   5.540  10.288
82799SOL    HW250295  14.030   5.441  10.382
82800SOL     OW50296   8.760   7.582   2.275
82800SOL    HW150297   8.711   7.656   2.310
82800SOL    HW250298   8.743   7.585   2.180
82801SOL     OW50299   2.205  10.883  14.343
82801SOL    HW150300   2.133  10.946  14.350
82801SOL    HW250301   2.199  10.831  14.423
82802SOL     OW50302  11.723  14.487   9.008
82802SOL    HW150303  11.769  14.522   9.084
82802SOL    HW250304  11.640  14.455   9.043
82803SOL     OW50305   3.028   4.435   5.696
82803SOL    HW150306   3.120   4.431   5.671
82803SOL    HW250307   3.005   4.345   5.718
82804SOL     OW50308   2.348   2.146   3.713
82804SOL    HW150309   2.426   2.103   3.747
82804SOL    HW250310   2.287   2.074   3.695
82805SOL     OW50311   2.393  13.090   7.025
82805SOL    HW150312   2.395  13.179   6.990
82805SOL    HW250313   2.343  13.097   7.106
82806SOL     OW50314   6.152   0.641  10.568
82806SOL    HW150315   6.057   0.643  10.583
82806SOL    HW250316   6.170   0.552  10.538
82807SOL     OW50317  11.912  10.243  10.337
82807SOL    HW150318  11.873  10.203  10.259
82807SOL    HW250319  11.942  10.169  10.389
82808SOL     OW50320  12.524  13.603   4.150
82808SOL    HW150321  12.451  13.664   4.140
82808SOL    HW250322  12.502  13.531   4.090
82809SOL     OW50323  12.381   9.332   3.285
82809SOL    HW150324  12.336   9.255   3.249
82809SOL    HW250325  12.386   9.315   3.379
82810SOL     OW50326   3.757  10.897   4.056
82810SOL    HW150327   3.778  10.984   4.090
82810SOL    HW250328   3.669  10.879   4.087
82811SOL     OW50329   8.838   3.127   3.707
82811SOL    HW150330   8.765   3.181   3.738
82811SOL    HW250331   8.905   3.137   3.775
82812SOL     OW50332   8.598  14.856  12.872
82812SOL    HW150333   8.617  14.765  12.894
82812SOL    HW250334   8.594  14.857  12.777
82813SOL     OW50335   6.696  12.813   2.896
82813SOL    HW150336   6.639  12.764   2.955
82813SOL    HW250337   6.743  12.747   2.846
82814SOL     OW50338   7.615   8.770   3.350
82814SOL    HW150339   7.687   8.830   3.333
82814SOL    HW250340   7.647   8.712   3.419
82815SOL     OW50341   5.134  12.166  13.551
82815SOL    HW150342   5.172  12.091  13.504
82815SOL    HW250343   5.092  12.218  13.483
82816SOL     OW50344  12.454   3.715  13.988
82816SOL    HW150345  12.539   3.700  14.030
82816SOL    HW250346  12.443   3.642  13.928
82817SOL     OW50347  11.044   5.912   1.051
82817SOL    HW150348  11.139   5.921   1.054
82817SOL    HW250349  11.011   6.000   1.070
82818SOL     OW50350   2.596   3.885   4.534
82818SOL    HW150351   2.639   3.835   4.604
82818SOL    HW250352   2.559   3.818   4.477
82819SOL     OW50353  13.218  10.646   6.067
82819SOL    HW150354  13.210  10.646   5.972
82819SOL    HW250355  13.267  10.726   6.088
82820SOL     OW50356   7.613   4.297  10.125
82820SOL    HW150357   7.641   4.389  10.119
82820SOL    HW250358   7.569   4.280  10.041
82821SOL     OW50359   7.174   9.123   4.679
82821SOL    HW150360   7.080   9.120   4.696
82821SOL    HW250361   7.183   9.173   4.598
82822SOL     OW50362   6.603   9.798  13.303
82822SOL    HW150363   6.602   9.856  13.227
82822SOL    HW250364   6.692   9.763  13.305
82823SOL     OW50365  11.303   3.230  12.495
82823SOL    HW150366  11.359   3.210  12.420
82823SOL    HW250367  11.237   3.161  12.496
82824SOL     OW50368   0.932   1.329   4.472
82824SOL    HW150369   0.984   1.391   4.524
82824SOL    HW250370   0.925   1.251   4.526
82825SOL     OW50371  12.846   0.550   7.460
82825SOL    HW150372  12.793   0.621   7.498
82825SOL    HW250373  12.791   0.472   7.468
82826SOL     OW50374   4.485  12.254  10.221
82826SOL    HW150375   4.535  12.260  10.141
82826SOL    HW250376   4.545  12.214  10.284
82827SOL     OW50377   3.258  12.032   4.856
82827SOL    HW150378   3.291  12.097   4.794
82827SOL    HW250379   3.304  12.052   4.938
82828SOL     OW50380   8.486   6.682   4.564
82828SOL    HW150381   8.513   6.685   4.655
82828SOL    HW250382   8.393   6.662   4.566
82829SOL     OW50383   7.660   8.368   6.586
82829SOL    HW150384   7.619   8.440   6.633
82829SOL    HW250385   7.673   8.300   6.653
82830SOL     OW50386   6.497  14.678   1.257
82830SOL    HW150387   6.551  14.721   1.190
82830SOL    HW250388   6.479  14.747   1.321
82831SOL     OW50389   7.133   4.357   7.528
82831SOL    HW150390   7.039   4.366   7.544
82831SOL    HW250391   7.152   4.422   7.460
82832SOL     OW50392  14.552   1.574  10.164
82832SOL    HW150393  14.628   1.602  10.113
82832SOL    HW250394  14.529   1.652  10.216
82833SOL     OW50395   7.436   6.633   3.230
82833SOL    HW150396   7.430   6.584   3.312
82833SOL    HW250397   7.347   6.664   3.214
82834SOL     OW50398  14.873   1.697   9.148
82834SOL    HW150399   0.090   1.711   9.141
82834SOL    HW250400  14.834   1.773   9.105
82835SOL     OW50401   6.555   5.410  12.490
82835SOL    HW150402   6.635   5.426  12.440
82835SOL    HW250403   6.583   5.411  12.582
82836SOL     OW50404   5.043   9.654   1.445
82836SOL    HW150405   5.121   9.607   1.473
82836SOL    HW250406   4.999   9.679   1.526
82837SOL     OW50407  12.159   5.453   9.966
82837SOL    HW150408  12.242   5.495   9.990
82837SOL    HW250409  12.104   5.525   9.935
82838SOL     OW50410  10.218  10.703   0.797
82838SOL    HW150411  10.147  10.640   0.804
82838SOL    HW250412  10.287  10.655   0.750
82839SOL     OW50413   9.240   9.343   9.622
82839SOL    HW150414   9.185   9.358   9.546
82839SOL    HW250415   9.298   9.271   9.596
82840SOL     OW50416   6.530   4.197   6.221
82840SOL    HW150417   6.497   4.246   6.146
82840SOL    HW250418   6.457   4.197   6.284
82841SOL     OW50419   9.598  12.314   2.198
82841SOL    HW150420   9.623  12.301   2.107
82841SOL    HW250421   9.670  12.364   2.236
82842SOL     OW50422   9.506  12.958  13.329
82842SOL    HW150423   9.425  12.931  13.374
82842SOL    HW250424   9.481  12.961  13.237
82843SOL     OW50425   0.913   4.509  11.265
82843SOL    HW150426   0.822   4.529  11.244
82843SOL    HW250427   0.935   4.435  11.209
82844SOL     OW50428   8.403  11.860   9.670
82844SOL    HW150429   8.366  11.936   9.715
82844SOL    HW250430   8.390  11.878   9.577
82845SOL     OW50431  12.135   4.166   9.785
82845SOL    HW150432  12.224   4.172   9.821
82845SOL    HW250433  12.147   4.131   9.696
82846SOL     OW50434   7.779   0.087  12.960
82846SOL    HW150435   7.872   0.104  12.976
82846SOL    HW250436   7.770   0.088  12.865
82847SOL     OW50437  11.413   9.260   5.560
82847SOL    HW150438  11.453   9.304   5.485
82847SOL    HW250439  11.444   9.170   5.554
82848SOL     OW50440   9.247   7.222   9.335
82848SOL    HW150441   9.211   7.171   9.262
82848SOL    HW250442   9.275   7.156   9.398
82849SOL     OW50443   7.377   1.231   3.761
82849SOL    HW150444   7.285   1.243   3.735
82849SOL    HW250445   7.399   1.143   3.732
82850SOL     OW50446   8.925  10.747  11.616
82850SOL    HW150447   8.897  10.676  11.675
82850SOL    HW250448   8.848  10.803  11.608
82851SOL     OW50449   9.902   4.759  10.566
82851SOL    HW150450   9.934   4.671  10.545
82851SOL    HW250451   9.865   4.791  10.484
82852SOL     OW50452   4.894  13.433   4.634
82852SOL    HW150453   4.986  13.458   4.635
82852SOL    HW250454   4.892  13.347   4.593
82853SOL     OW50455  12.905   8.316  14.286
82853SOL    HW150456  12.885   8.410  14.278
82853SOL    HW250457  12.992   8.315  14.327
82854SOL     OW50458   1.382  10.866   7.502
82854SOL    HW150459   1.338  10.923   7.439
82854SOL    HW250460   1.432  10.925   7.557
82855SOL     OW50461   4.463   6.788   4.577
82855SOL    HW150462   4.524   6.857   4.551
82855SOL    HW250463   4.518   6.714   4.600
82856SOL     OW50464  14.208   2.242   9.585
82856SOL    HW150465  14.198   2.258   9.491
82856SOL    HW250466  14.138   2.293   9.626
82857SOL     OW50467  10.311   3.274   5.448
82857SOL    HW150468  10.349   3.362   5.451
82857SOL    HW250469  10.386   3.215   5.452
82858SOL     OW50470  14.741   4.795   1.864
82858SOL    HW150471  14.811   4.730   1.854
82858SOL    HW250472  14.777   4.875   1.825
82859SOL     OW50473  10.215  10.881   3.170
82859SOL    HW150474  10.300  10.895   3.128
82859SOL    HW250475  10.217  10.788   3.196
82860SOL     OW50476   8.153   0.875   5.699
82860SOL    HW150477   8.120   0.943   5.758
82860SOL    HW250478   8.088   0.805   5.705
82861SOL     OW50479  14.264   9.489   3.733
82861SOL    HW150480  14.299   9.547   3.665
82861SOL    HW250481  14.206   9.545   3.784
82862SOL     OW50482  12.843   7.231   8.117
82862SOL    HW150483  12.756   7.200   8.094
82862SOL    HW250484  12.870   7.176   8.191
82863SOL     OW50485  13.934   9.904  12.458
82863SOL    HW150486  13.991   9.968  12.414
82863SOL    HW250487  13.846   9.927  12.429
82864SOL     OW50488   3.937   1.803  11.811
82864SOL    HW150489   4.007   1.833  11.869
82864SOL    HW250490   3.975   1.729  11.764
82865SOL     OW50491   1.245   0.622   1.986
82865SOL    HW150492   1.218   0.698   2.037
82865SOL    HW250493   1.340   0.635   1.974
82866SOL     OW50494   7.149   7.817   6.907
82866SOL    HW150495   7.194   7.750   6.959
82866SOL    HW250496   7.089   7.767   6.851
82867SOL     OW50497  10.342  13.929   2.917
82867SOL    HW150498  10.308  13.912   2.829
82867SOL    HW250499  10.386  14.014   2.910
82868SOL     OW50500  14.000  14.509   6.403
82868SOL    HW150501  13.990  14.416   6.422
82868SOL    HW250502  14.024  14.513   6.311
82869SOL     OW50503   3.907   8.882   4.700
82869SOL    HW150504   3.861   8.933   4.633
82869SOL    HW250505   3.958   8.948   4.748
82870SOL     OW50506   0.410   8.195   9.362
82870SOL    HW150507   0.415   8.111   9.407
82870SOL    HW250508   0.449   8.178   9.276
82871SOL     OW50509  13.988   1.033  14.084
82871SOL    HW150510  13.896   1.055  14.066
82871SOL    HW250511  14.026   1.116  14.113
82872SOL     OW50512  12.658   5.816  13.172
82872SOL    HW150513  12.656   5.850  13.082
82872SOL    HW250514  12.749   5.796  13.189
82873SOL     OW50515   4.238   9.761   5.765
82873SOL    HW150516   4.200   9.739   5.850
82873SOL    HW250517   4.182   9.830   5.731
82874SOL     OW50518   6.043  13.348   4.830
82874SOL    HW150519   6.023  13.438   4.805
82874SOL    HW250520   6.138  13.348   4.845
82875SOL     OW50521   9.045   0.110   2.143
82875SOL    HW150522   8.962   0.117   2.191
82875SOL    HW250523   9.042   0.024   2.103
82876SOL     OW50524   9.021   4.873  14.782
82876SOL    HW150525   8.950   4.937  14.772
82876SOL    HW250526   9.098   4.927  14.806
82877SOL     OW50527   6.688  11.890  13.824
82877SOL    HW150528   6.689  11.985  13.841
82877SOL    HW250529   6.667  11.851  13.909
82878SOL     OW50530  14.047  12.851   8.386
82878SOL    HW150531  14.033  12.758   8.372
82878SOL    HW250532  13.980  12.876   8.450
82879SOL     OW50533  14.468  13.217   6.473
82879SOL    HW150534  14.503  13.218   6.384
82879SOL    HW250535  14.419  13.135   6.478
82880SOL     OW50536   5.956   4.443   5.687
82880SOL    HW150537   6.048   4.468   5.671
82880SOL    HW250538   5.953   4.424   5.781
82881SOL     OW50539  13.458   7.288   2.387
82881SOL    HW150540  13.396   7.241   2.443
82881SOL    HW250541  13.531   7.310   2.445
82882SOL     OW50542  12.728   4.612   1.383
82882SOL    HW150543  12.748   4.651   1.468
82882SOL    HW250544  12.749   4.680   1.320
82883SOL     OW50545   5.968   2.620   6.678
82883SOL    HW150546   6.047   2.668   6.653
82883SOL    HW250547   5.989   2.583   6.764
82884SOL     OW50548   6.959   3.054   2.809
82884SOL    HW150549   6.914   2.983   2.855
82884SOL    HW250550   6.958   3.127   2.871
82885SOL     OW50551  11.585   0.197   3.148
82885SOL    HW150552  11.667   0.229   3.186
82885SOL    HW250553  11.613   0.136   3.079
82886SOL     OW50554   1.245  13.429  13.465
82886SOL    HW150555   1.335  13.462  13.463
82886SOL    HW250556   1.246  13.353  13.407
82887SOL     OW50557  12.492   2.239  12.939
82887SOL    HW150558  12.458   2.328  12.934
82887SOL    HW250559  12.414   2.184  12.943
82888SOL     OW50560   9.571   3.817   7.424
82888SOL    HW150561   9.561   3.822   7.329
82888SOL    HW250562   9.537   3.900   7.457
82889SOL     OW50563   3.523  10.617   8.459
82889SOL    HW150564   3.452  10.554   8.473
82889SOL    HW250565   3.481  10.703   8.464
82890SOL     OW50566   3.927   0.471   7.087
82890SOL    HW150567   3.924   0.417   7.008
82890SOL    HW250568   3.837   0.472   7.119
82891SOL     OW50569   8.313   0.405   3.211
82891SOL    HW150570   8.272   0.490   3.192
82891SOL    HW250571   8.268   0.373   3.288
82892SOL     OW50572   3.746   3.399  13.301
82892SOL    HW150573   3.792   3.453  13.365
82892SOL    HW250574   3.766   3.309  13.326
82893SOL     OW50575   6.366   2.354   0.640
82893SOL    HW150576   6.286   2.334   0.591
82893SOL    HW250577   6.422   2.278   0.624
82894SOL     OW50578  10.204  13.571  12.652
82894SOL    HW150579  10.166  13.647  12.608
82894SOL    HW250580  10.131  13.533  12.700
82895SOL     OW50581  14.875   0.447  12.060
82895SOL    HW150582   0.003   0.521  11.999
82895SOL    HW250583   0.086   0.412  12.063
82896SOL     OW50584  13.592   3.719  11.576
82896SOL    HW150585  13.650   3.649  11.606
82896SOL    HW250586  13.647   3.773  11.519
82897SOL     OW50587   0.984   1.214  14.618
82897SOL    HW150588   1.021   1.165  14.691
82897SOL    HW250589   0.892   1.186  14.614
82898SOL     OW50590  13.418   4.235  14.695
82898SOL    HW150591  13.437   4.142  14.677
82898SOL    HW250592  13.323   4.241  14.689
82899SOL     OW50593   9.255   8.605   2.765
82899SOL    HW150594   9.254   8.700   2.774
82899SOL    HW250595   9.323   8.576   2.826
82900SOL     OW50596  14.567  13.934   5.576
82900SOL    HW150597  14.579  13.842   5.552
82900SOL    HW250598  14.485  13.959   5.534
82901SOL     OW50599   2.653   1.603   6.812
82901SOL    HW150600   2.692   1.684   6.844
82901SOL    HW250601   2.699   1.585   6.730
82902SOL     OW50602   8.127   7.500   9.021
82902SOL    HW150603   8.062   7.559   9.059
82902SOL    HW250604   8.093   7.412   9.038
82903SOL     OW50605   7.065  14.372   8.088
82903SOL    HW150606   7.089  14.441   8.026
82903SOL    HW250607   7.129  14.380   8.159
82904SOL     OW50608  12.713   6.255   6.983
82904SOL    HW150609  12.624   6.253   6.950
82904SOL    HW250610  12.738   6.347   6.979
82905SOL     OW50611   5.356  11.497  11.011
82905SOL    HW150612   5.279  11.552  11.023
82905SOL    HW250613   5.368  11.454  11.095
82906SOL     OW50614   8.163   0.023  10.787
82906SOL    HW150615   8.128   0.041  10.874
82906SOL    HW250616   8.089  14.861  10.740
82907SOL     OW50617   8.799   5.657  11.848
82907SOL    HW150618   8.718   5.694  11.812
82907SOL    HW250619   8.839   5.612  11.774
82908SOL     OW50620   1.341   3.859   7.840
82908SOL    HW150621   1.409   3.803   7.877
82908SOL    HW250622   1.370   3.876   7.750
82909SOL     OW50623   7.802   8.512  13.775
82909SOL    HW150624   7.851   8.569  13.715
82909SOL    HW250625   7.711   8.538  13.764
82910SOL     OW50626   6.428  11.038  12.523
82910SOL    HW150627   6.470  10.952  12.524
82910SOL    HW250628   6.474  11.088  12.591
82911SOL     OW50629  10.872   1.101  13.890
82911SOL    HW150630  10.893   1.031  13.953
82911SOL    HW250631  10.902   1.181  13.932
82912SOL     OW50632  11.226   7.667  14.510
82912SOL    HW150633  11.144   7.671  14.560
82912SOL    HW250634  11.225   7.580  14.469
82913SOL     OW50635  14.145   0.053   8.327
82913SOL    HW150636  14.218   0.011   8.373
82913SOL    HW250637  14.070   0.041   8.385
82914SOL     OW50638   7.031   6.367   1.463
82914SOL    HW150639   7.101   6.302   1.457
82914SOL    HW250640   7.067   6.446   1.422
82915SOL     OW50641   8.472  11.763   8.123
82915SOL    HW150642   8.381  11.739   8.105
82915SOL    HW250643   8.522  11.727   8.050
82916SOL     OW50644  11.506   2.779   4.905
82916SOL    HW150645  11.511   2.803   4.812
82916SOL    HW250646  11.594   2.797   4.939
82917SOL     OW50647   0.472  13.432   2.178
82917SOL    HW150648   0.436  13.465   2.260
82917SOL    HW250649   0.399  13.438   2.116
82918SOL     OW50650   5.892   5.669  11.572
82918SOL    HW150651   5.881   5.574  11.581
82918SOL    HW250652   5.978   5.687  11.610
82919SOL     OW50653   2.940  11.607   9.324
82919SOL    HW150654   2.936  11.671   9.252
82919SOL    HW250655   3.034  11.591   9.337
82920SOL     OW50656  12.371   6.821  11.104
82920SOL    HW150657  12.438   6.822  11.172
82920SOL    HW250658  12.398   6.751  11.045
82921SOL     OW50659   4.922   9.432   8.639
82921SOL    HW150660   4.933   9.502   8.575
82921SOL    HW250661   4.832   9.443   8.672
82922SOL     OW50662   4.893   4.893   7.894
82922SOL    HW150663   4.883   4.984   7.922
82922SOL    HW250664   4.884   4.842   7.974
82923SOL     OW50665   5.826   9.257   5.002
82923SOL    HW150666   5.883   9.329   4.976
82923SOL    HW250667   5.886   9.191   5.037
82924SOL     OW50668  14.284  12.939   7.383
82924SOL    HW150669  14.292  13.010   7.319
82924SOL    HW250670  14.230  12.976   7.453
82925SOL     OW50671  14.683  11.307   6.897
82925SOL    HW150672  14.611  11.343   6.845
82925SOL    HW250673  14.760  11.315   6.841
82926SOL     OW50674   5.561   8.970   7.353
82926SOL    HW150675   5.525   9.056   7.375
82926SOL    HW250676   5.651   8.973   7.384
82927SOL     OW50677   1.938   9.890  11.315
82927SOL    HW150678   1.949   9.916  11.407
82927SOL    HW250679   1.998   9.816  11.304
82928SOL     OW50680   1.077   8.047  10.037
82928SOL    HW150681   1.089   8.015  10.126
82928SOL    HW250682   1.042   8.136  10.048
82929SOL     OW50683  12.328   9.214   1.302
82929SOL    HW150684  12.397   9.174   1.250
82929SOL    HW250685  12.259   9.234   1.239
82930SOL     OW50686   0.983   9.449   0.176
82930SOL    HW150687   0.888   9.447   0.161
82930SOL    HW250688   0.992   9.461   0.270
82931SOL     OW50689   1.608   5.121  14.304
82931SOL    HW150690   1.527   5.167  14.326
82931SOL    HW250691   1.663   5.131  14.381
82932SOL     OW50692   2.700  10.142   6.715
82932SOL    HW150693   2.784  10.124   6.756
82932SOL    HW250694   2.722  10.196   6.639
82933SOL     OW50695   2.167  14.502   5.660
82933SOL    HW150696   2.205  14.457   5.585
82933SOL    HW250697   2.147  14.432   5.722
82934SOL     OW50698  12.938   9.201  11.856
82934SOL    HW150699  13.012   9.260  11.865
82934SOL    HW250700  12.863   9.252  11.886
82935SOL     OW50701   3.263   6.349  12.916
82935SOL    HW150702   3.243   6.317  13.004
82935SOL    HW250703   3.345   6.306  12.893
82936SOL     OW50704   5.385  10.828   0.343
82936SOL    HW150705   5.324  10.835   0.417
82936SOL    HW250706   5.463  10.874   0.373
82937SOL     OW50707  10.050   3.459   1.816
82937SOL    HW150708  10.105   3.400   1.765
82937SOL    HW250709  10.060   3.544   1.772
82938SOL     OW50710  13.775   1.147   3.981
82938SOL    HW150711  13.774   1.079   4.048
82938SOL    HW250712  13.856   1.195   3.996
82939SOL     OW50713   5.308   0.212   3.297
82939SOL    HW150714   5.291   0.214   3.203
82939SOL    HW250715   5.320   0.119   3.317
82940SOL     OW50716   6.415  10.660   2.845
82940SOL    HW150717   6.344  10.600   2.822
82940SOL    HW250718   6.435  10.706   2.764
82941SOL     OW50719   3.827  14.493   6.426
82941SOL    HW150720   3.895  14.428   6.405
82941SOL    HW250721   3.747  14.441   6.437
82942SOL     OW50722   0.278   5.993  14.475
82942SOL    HW150723   0.326   5.967  14.397
82942SOL    HW250724   0.310   5.934  14.544
82943SOL     OW50725  11.587   7.813   3.875
82943SOL    HW150726  11.681   7.800   3.868
82943SOL    HW250727  11.577   7.903   3.904
82944SOL     OW50728   0.227   7.573   4.614
82944SOL    HW150729   0.281   7.561   4.536
82944SOL    HW250730   0.278   7.630   4.671
82945SOL     OW50731   1.782  13.974  13.855
82945SOL    HW150732   1.734  14.056  13.869
82945SOL    HW250733   1.714  13.909  13.837
82946SOL     OW50734   2.700  12.511  14.576
82946SOL    HW150735   2.724  12.571  14.647
82946SOL    HW250736   2.614  12.477  14.602
82947SOL     OW50737   4.064   9.752   5.167
82947SOL    HW150738   4.027   9.725   5.083
82947SOL    HW250739   4.083   9.845   5.157
82948SOL     OW50740   3.532  14.391   7.424
82948SOL    HW150741   3.624  14.399   7.402
82948SOL    HW250742   3.494  14.339   7.353
82949SOL     OW50743  13.593  10.761   6.599
82949SOL    HW150744  13.544  10.805   6.669
82949SOL    HW250745  13.683  10.758   6.633
82950SOL     OW50746   1.138   8.151   0.737
82950SOL    HW150747   1.130   8.063   0.701
82950SOL    HW250748   1.215   8.148   0.794
82951SOL     OW50749   8.254  13.928   6.655
82951SOL    HW150750   8.201  13.890   6.585
82951SOL    HW250751   8.343  13.899   6.635
82952SOL     OW50752   5.502   2.575   6.618
82952SOL    HW150753   5.555   2.629   6.677
82952SOL    HW250754   5.565   2.536   6.558
82953SOL     OW50755   7.095   4.958   8.504
82953SOL    HW150756   7.092   4.871   8.466
82953SOL    HW250757   7.059   5.015   8.436
82954SOL     OW50758  13.009   7.366  13.010
82954SOL    HW150759  13.026   7.334  13.099
82954SOL    HW250760  12.975   7.455  13.023
82955SOL     OW50761   4.099  12.292   4.903
82955SOL    HW150762   4.157  12.314   4.831
82955SOL    HW250763   4.016  12.269   4.862
82956SOL     OW50764   0.483   3.223  10.203
82956SOL    HW150765   0.546   3.255  10.138
82956SOL    HW250766   0.487   3.128  10.195
82957SOL     OW50767  13.095   1.186   9.534
82957SOL    HW150768  13.087   1.165   9.627
82957SOL    HW250769  13.187   1.208   9.523
82958SOL     OW50770  14.355   0.866  12.628
82958SOL    HW150771  14.267   0.864  12.592
82958SOL    HW250772  14.360   0.788  12.684
82959SOL     OW50773  10.200   3.947   0.952
82959SOL    HW150774  10.253   3.931   0.874
82959SOL    HW250775  10.194   4.042   0.958
82960SOL     OW50776   6.618  13.943  13.321
82960SOL    HW150777   6.629  13.855  13.355
82960SOL    HW250778   6.537  13.939  13.270
82961SOL     OW50779   1.814   9.175   7.441
82961SOL    HW150780   1.863   9.241   7.490
82961SOL    HW250781   1.790   9.220   7.360
82962SOL     OW50782  11.236   5.366   3.371
82962SOL    HW150783  11.269   5.397   3.287
82962SOL    HW250784  11.147   5.337   3.352
82963SOL     OW50785  10.083  11.847   1.682
82963SOL    HW150786  10.178  11.861   1.676
82963SOL    HW250787  10.061  11.868   1.772
82964SOL     OW50788   7.967   9.145  11.743
82964SOL    HW150789   8.057   9.151  11.777
82964SOL    HW250790   7.929   9.071  11.790
82965SOL     OW50791   6.697   2.519  13.841
82965SOL    HW150792   6.636   2.532  13.914
82965SOL    HW250793   6.693   2.425  13.823
82966SOL     OW50794  13.959  14.445   3.315
82966SOL    HW150795  13.924  14.495   3.389
82966SOL    HW250796  14.003  14.511   3.261
82967SOL     OW50797   7.890   6.917   2.446
82967SOL    HW150798   7.816   6.893   2.502
82967SOL    HW250799   7.943   6.838   2.441
82968SOL     OW50800   6.659   8.776  12.198
82968SOL    HW150801   6.596   8.848  12.201
82968SOL    HW250802   6.613   8.703  12.240
82969SOL     OW50803  11.577   3.504  10.540
82969SOL    HW150804  11.567   3.446  10.464
82969SOL    HW250805  11.509   3.570  10.529
82970SOL     OW50806   8.287   9.154   2.110
82970SOL    HW150807   8.363   9.160   2.052
82970SOL    HW250808   8.320   9.176   2.197
82971SOL     OW50809   3.462   3.746   0.471
82971SOL    HW150810   3.404   3.729   0.397
82971SOL    HW250811   3.406   3.739   0.548
82972SOL     OW50812   1.354   7.489   1.801
82972SOL    HW150813   1.347   7.567   1.857
82972SOL    HW250814   1.438   7.450   1.824
82973SOL     OW50815  12.672   9.522   5.702
82973SOL    HW150816  12.746   9.503   5.761
82973SOL    HW250817  12.682   9.615   5.681
82974SOL     OW50818   0.517  13.095  13.693
82974SOL    HW150819   0.512  13.003  13.716
82974SOL    HW250820   0.598  13.126  13.734
82975SOL     OW50821  14.356  12.977   3.849
82975SOL    HW150822  14.269  13.011   3.829
82975SOL    HW250823  14.349  12.883   3.832
82976SOL     OW50824  11.632   8.241   4.976
82976SOL    HW150825  11.655   8.148   4.976
82976SOL    HW250826  11.686   8.279   4.906
82977SOL     OW50827   2.392   9.580   3.691
82977SOL    HW150828   2.409   9.502   3.744
82977SOL    HW250829   2.375   9.546   3.603
82978SOL     OW50830   2.335   3.647   5.317
82978SOL    HW150831   2.414   3.597   5.299
82978SOL    HW250832   2.329   3.650   5.413
82979SOL     OW50833   5.604  11.355  11.950
82979SOL    HW150834   5.659  11.401  12.013
82979SOL    HW250835   5.662  11.338  11.875
82980SOL     OW50836  12.263   5.725  13.379
82980SOL    HW150837  12.179   5.733  13.423
82980SOL    HW250838  12.325   5.707  13.450
82981SOL     OW50839   1.221   7.073   9.741
82981SOL    HW150840   1.150   7.070   9.805
82981SOL    HW250841   1.179   7.051   9.658
82982SOL     OW50842  13.836   7.367   6.285
82982SOL    HW150843  13.803   7.282   6.257
82982SOL    HW250844  13.812   7.372   6.377
82983SOL     OW50845  10.089   4.163  14.593
82983SOL    HW150846  10.113   4.217  14.668
82983SOL    HW250847  10.034   4.094  14.629
82984SOL     OW50848   8.893   3.568   3.463
82984SOL    HW150849   8.937   3.491   3.498
82984SOL    HW250850   8.834   3.596   3.533
82985SOL     OW50851   5.199   7.686   9.908
82985SOL    HW150852   5.214   7.745   9.982
82985SOL    HW250853   5.211   7.740   9.831
82986SOL     OW50854   0.855  12.380   5.265
82986SOL    HW150855   0.832  12.472   5.253
82986SOL    HW250856   0.830  12.337   5.183
82987SOL     OW50857  11.094   4.468   5.105
82987SOL    HW150858  11.153   4.515   5.165
82987SOL    HW250859  11.069   4.390   5.153
82988SOL     OW50860  14.359  14.799   0.680
82988SOL    HW150861  14.362  14.845   0.596
82988SOL    HW250862  14.426  14.731   0.673
82989SOL     OW50863  11.101   9.858   6.991
82989SOL    HW150864  11.091   9.764   7.002
82989SOL    HW250865  11.158   9.885   7.063
82990SOL     OW50866  11.308   4.906  12.114
82990SOL    HW150867  11.333   4.819  12.143
82990SOL    HW250868  11.383   4.961  12.134
82991SOL     OW50869  10.520   3.755  11.574
82991SOL    HW150870  10.568   3.768  11.656
82991SOL    HW250871  10.520   3.660  11.561
82992SOL     OW50872   9.104   2.075   5.702
82992SOL    HW150873   9.127   2.153   5.751
82992SOL    HW250874   9.109   2.003   5.765
82993SOL     OW50875   5.331   8.741   4.725
82993SOL    HW150876   5.378   8.821   4.702
82993SOL    HW250877   5.244   8.752   4.686
82994SOL     OW50878   2.380  12.650  10.923
82994SOL    HW150879   2.335  12.572  10.955
82994SOL    HW250880   2.473  12.630  10.929
82995SOL     OW50881   8.463   9.659  10.745
82995SOL    HW150882   8.415   9.587  10.785
82995SOL    HW250883   8.499   9.708  10.820
82996SOL     OW50884   3.507  11.985  14.676
82996SOL    HW150885   3.490  11.892  14.662
82996SOL    HW250886   3.541  12.016  14.592
82997SOL     OW50887   0.836   3.026  14.231
82997SOL    HW150888   0.802   3.065  14.311
82997SOL    HW250889   0.865   2.939  14.256
82998SOL     OW50890   8.627   9.022  11.185
82998SOL    HW150891   8.720   9.008  11.169
82998SOL    HW250892   8.615   9.116  11.176
82999SOL     OW50893   8.264   4.874   3.733
82999SOL    HW150894   8.304   4.789   3.756
82999SOL    HW250895   8.284   4.931   3.807
83000SOL     OW50896  12.020  10.010   2.103
83000SOL    HW150897  11.980   9.991   2.188
83000SOL    HW250898  12.076   9.934   2.086
83001SOL     OW50899   2.698  14.577   2.600
83001SOL    HW150900   2.780  14.608   2.640
83001SOL    HW250901   2.682  14.639   2.528
83002SOL     OW50902   8.801   7.723   1.606
83002SOL    HW150903   8.849   7.717   1.688
83002SOL    HW250904   8.867   7.741   1.540
83003SOL     OW50905   4.762   5.675   1.775
83003SOL    HW150906   4.808   5.611   1.721
83003SOL    HW250907   4.817   5.753   1.773
83004SOL     OW50908   2.569  10.880   4.450
83004SOL    HW150909   2.535  10.908   4.535
83004SOL    HW250910   2.527  10.796   4.434
83005SOL     OW50911  10.884   4.149   8.153
83005SOL    HW150912  10.921   4.107   8.231
83005SOL    HW250913  10.836   4.080   8.109
83006SOL     OW50914   6.394   1.501   5.779
83006SOL    HW150915   6.467   1.457   5.734
83006SOL    HW250916   6.400   1.592   5.750
83007SOL     OW50917   3.959   3.870   5.979
83007SOL    HW150918   4.010   3.879   5.898
83007SOL    HW250919   3.999   3.933   6.039
83008SOL     OW50920   9.011   0.588  13.115
83008SOL    HW150921   8.930   0.562  13.071
83008SOL    HW250922   9.026   0.520  13.180
83009SOL     OW50923   6.694  13.296   1.248
83009SOL    HW150924   6.652  13.268   1.329
83009SOL    HW250925   6.624  13.296   1.183
83010SOL     OW50926  13.403   3.221  14.876
83010SOL    HW150927  13.358   3.274   0.064
83010SOL    HW250928  13.409   3.134   0.038
83011SOL     OW50929   3.519  12.283   0.647
83011SOL    HW150930   3.600  12.292   0.697
83011SOL    HW250931   3.533  12.335   0.568
83012SOL     OW50932   8.071   7.714   5.874
83012SOL    HW150933   8.127   7.756   5.809
83012SOL    HW250934   7.983   7.748   5.856
83013SOL     OW50935   2.142   7.462   4.322
83013SOL    HW150936   2.224   7.440   4.366
83013SOL    HW250937   2.074   7.421   4.375
83014SOL     OW50938   8.762   8.275   2.707
83014SOL    HW150939   8.852   8.293   2.733
83014SOL    HW250940   8.740   8.347   2.648
83015SOL     OW50941   1.290   9.384   1.204
83015SOL    HW150942   1.313   9.292   1.198
83015SOL    HW250943   1.309   9.420   1.117
83016SOL     OW50944   8.911   7.899  13.442
83016SOL    HW150945   8.902   7.940  13.356
83016SOL    HW250946   8.852   7.823  13.439
83017SOL     OW50947   8.786  11.874   5.080
83017SOL    HW150948   8.766  11.782   5.096
83017SOL    HW250949   8.830  11.903   5.160
83018SOL     OW50950   7.902  13.542  11.183
83018SOL    HW150951   7.853  13.491  11.247
83018SOL    HW250952   7.834  13.586  11.132
83019SOL     OW50953   9.367  13.764   1.453
83019SOL    HW150954   9.294  13.823   1.475
83019SOL    HW250955   9.339  13.679   1.488
83020SOL     OW50956   1.326  14.102   6.053
83020SOL    HW150957   1.406  14.103   6.000
83020SOL    HW250958   1.344  14.162   6.125
83021SOL     OW50959  12.291  13.720  11.594
83021SOL    HW150960  12.342  13.727  11.675
83021SOL    HW250961  12.333  13.782  11.535
83022SOL     OW50962   2.518  12.402   4.921
83022SOL    HW150963   2.555  12.443   4.843
83022SOL    HW250964   2.585  12.413   4.988
83023SOL     OW50965  13.219  11.819  13.285
83023SOL    HW150966  13.201  11.734  13.245
83023SOL    HW250967  13.194  11.807  13.377
83024SOL     OW50968   0.608   9.513   5.962
83024SOL    HW150969   0.560   9.560   6.031
83024SOL    HW250970   0.613   9.575   5.890
83025SOL     OW50971   5.249  13.298   4.412
83025SOL    HW150972   5.234  13.304   4.506
83025SOL    HW250973   5.271  13.387   4.385
83026SOL     OW50974   6.896   5.866   0.909
83026SOL    HW150975   6.873   5.830   0.823
83026SOL    HW250976   6.949   5.943   0.890
83027SOL     OW50977   2.139   0.286  12.756
83027SOL    HW150978   2.077   0.281  12.684
83027SOL    HW250979   2.113   0.363  12.806
83028SOL     OW50980  11.717  11.063   6.228
83028SOL    HW150981  11.654  11.027   6.166
83028SOL    HW250982  11.799  11.068   6.178
83029SOL     OW50983  11.084   3.080  12.543
83029SOL    HW150984  11.030   3.002  12.528
83029SOL    HW250985  11.024   3.153  12.530
83030SOL     OW50986   0.592   3.986  13.795
83030SOL    HW150987   0.681   4.014  13.776
83030SOL    HW250988   0.545   4.067  13.815
83031SOL     OW50989   8.649   0.309   5.045
83031SOL    HW150990   8.739   0.338   5.060
83031SOL    HW250991   8.633   0.327   4.952
83032SOL     OW50992   9.391   3.125  12.995
83032SOL    HW150993   9.361   3.151  12.908
83032SOL    HW250994   9.311   3.106  13.044
83033SOL     OW50995   4.943   7.522   2.431
83033SOL    HW150996   4.890   7.542   2.509
83033SOL    HW250997   4.879   7.515   2.360
83034SOL     OW50998   2.662  11.436  14.661
83034SOL    HW150999   2.714  11.382  14.601
83034SOL    HW251000   2.716  11.513  14.678
83035SOL     OW51001   7.492   6.020   4.394
83035SOL    HW151002   7.423   5.965   4.430
83035SOL    HW251003   7.531   5.968   4.324
83036SOL     OW51004  11.978   9.744   5.870
83036SOL    HW151005  11.981   9.671   5.807
83036SOL    HW251006  12.032   9.812   5.830
83037SOL     OW51007  12.920   4.625   4.015
83037SOL    HW151008  12.956   4.551   4.063
83037SOL    HW251009  12.979   4.637   3.941
83038SOL     OW51010   5.896   1.095  10.958
83038SOL    HW151011   5.880   1.032  11.029
83038SOL    HW251012   5.814   1.100  10.910
83039SOL     OW51013   4.704   7.392   1.914
83039SOL    HW151014   4.641   7.439   1.858
83039SOL    HW251015   4.663   7.307   1.930
83040SOL     OW51016   6.551   7.380  11.174
83040SOL    HW151017   6.463   7.381  11.210
83040SOL    HW251018   6.550   7.311  11.108
83041SOL     OW51019   3.399   6.115   7.861
83041SOL    HW151020   3.447   6.115   7.944
83041SOL    HW251021   3.433   6.191   7.814
83042SOL     OW51022  12.087   9.665   3.774
83042SOL    HW151023  12.025   9.734   3.753
83042SOL    HW251024  12.040   9.609   3.836
83043SOL     OW51025   9.583   4.104   7.066
83043SOL    HW151026   9.625   4.174   7.016
83043SOL    HW251027   9.534   4.150   7.134
83044SOL     OW51028   9.532   1.368  10.611
83044SOL    HW151029   9.457   1.310  10.595
83044SOL    HW251030   9.522   1.395  10.703
83045SOL     OW51031  10.663  10.261  13.518
83045SOL    HW151032  10.667  10.320  13.594
83045SOL    HW251033  10.656  10.320  13.443
83046SOL     OW51034   2.130   3.475   2.485
83046SOL    HW151035   2.142   3.380   2.491
83046SOL    HW251036   2.151   3.495   2.394
83047SOL     OW51037  11.614   6.423   8.441
83047SOL    HW151038  11.560   6.502   8.441
83047SOL    HW251039  11.588   6.375   8.362
83048SOL     OW51040   8.141  10.820   4.930
83048SOL    HW151041   8.118  10.727   4.942
83048SOL    HW251042   8.119  10.838   4.839
83049SOL     OW51043   9.515   9.770  13.710
83049SOL    HW151044   9.569   9.775  13.631
83049SOL    HW251045   9.573   9.798  13.780
83050SOL     OW51046  10.519   7.299   1.527
83050SOL    HW151047  10.607   7.333   1.544
83050SOL    HW251048  10.499   7.328   1.438
83051SOL     OW51049   2.956   3.154  11.881
83051SOL    HW151050   3.000   3.202  11.952
83051SOL    HW251051   3.012   3.168  11.805
83052SOL     OW51052   6.721  12.683   7.865
83052SOL    HW151053   6.801  12.638   7.837
83052SOL    HW251054   6.702  12.744   7.794
83053SOL     OW51055   1.952   6.924   2.372
83053SOL    HW151056   1.997   6.866   2.434
83053SOL    HW251057   2.013   6.996   2.357
83054SOL     OW51058   8.826   5.443  13.414
83054SOL    HW151059   8.741   5.399  13.411
83054SOL    HW251060   8.863   5.417  13.499
83055SOL     OW51061  10.944  11.440   0.376
83055SOL    HW151062  10.983  11.356   0.353
83055SOL    HW251063  10.923  11.432   0.469
83056SOL     OW51064  10.056  13.645  10.383
83056SOL    HW151065  10.116  13.719  10.375
83056SOL    HW251066  10.108  13.569  10.356
83057SOL     OW51067   0.609   0.192  12.007
83057SOL    HW151068   0.572   0.106  12.027
83057SOL    HW251069   0.647   0.221  12.090
83058SOL     OW51070   2.251   5.217  10.510
83058SOL    HW151071   2.312   5.143  10.508
83058SOL    HW251072   2.253   5.251  10.420
83059SOL     OW51073   2.570   7.763   1.968
83059SOL    HW151074   2.647   7.712   1.989
83059SOL    HW251075   2.584   7.847   2.012
83060SOL     OW51076   2.327   0.644   9.708
83060SOL    HW151077   2.387   0.633   9.781
83060SOL    HW251078   2.244   0.669   9.748
83061SOL     OW51079  10.418   3.066   7.297
83061SOL    HW151080  10.502   3.019   7.300
83061SOL    HW251081  10.420   3.123   7.374
83062SOL     OW51082   1.275   5.149   1.491
83062SOL    HW151083   1.243   5.118   1.405
83062SOL    HW251084   1.302   5.070   1.536
83063SOL     OW51085   0.547   2.837  10.874
83063SOL    HW151086   0.602   2.911  10.898
83063SOL    HW251087   0.607   2.772  10.838
83064SOL     OW51088   4.071  13.783   7.791
83064SOL    HW151089   4.025  13.855   7.747
83064SOL    HW251090   4.123  13.826   7.859
83065SOL     OW51091   0.136  14.368   8.554
83065SOL    HW151092   0.145  14.363   8.459
83065SOL    HW251093   0.143  14.277   8.584
83066SOL     OW51094   3.049   7.333  13.131
83066SOL    HW151095   3.004   7.415  13.111
83066SOL    HW251096   3.130   7.360  13.174
83067SOL     OW51097  14.867   9.264  11.757
83067SOL    HW151098  14.832   9.204  11.690
83067SOL    HW251099  14.799   9.330  11.768
83068SOL     OW51100   1.941  11.336  11.394
83068SOL    HW151101   1.865  11.394  11.402
83068SOL    HW251102   2.015  11.396  11.381
83069SOL     OW51103  11.571   3.049   6.499
83069SOL    HW151104  11.501   3.010   6.448
83069SOL    HW251105  11.526   3.100   6.566
83070SOL     OW51106   2.260  11.072   5.107
83070SOL    HW151107   2.340  11.111   5.143
83070SOL    HW251108   2.283  10.980   5.094
83071SOL     OW51109   9.667   2.211   3.969
83071SOL    HW151110   9.629   2.261   3.897
83071SOL    HW251111   9.596   2.153   3.998
83072SOL     OW51112   3.678   3.764   6.386
83072SOL    HW151113   3.667   3.680   6.342
83072SOL    HW251114   3.772   3.770   6.404
83073SOL     OW51115   6.247   0.080   4.626
83073SOL    HW151116   6.259  14.863   4.615
83073SOL    HW251117   6.174   0.102   4.569
83074SOL     OW51118  13.520  10.392   0.255
83074SOL    HW151119  13.558  10.316   0.213
83074SOL    HW251120  13.472  10.357   0.330
83075SOL     OW51121   0.930  12.787  13.143
83075SOL    HW151122   0.855  12.738  13.107
83075SOL    HW251123   0.959  12.843  13.072
83076SOL     OW51124  10.306   9.555  11.119
83076SOL    HW151125  10.249   9.564  11.196
83076SOL    HW251126  10.265   9.486  11.067
83077SOL     OW51127  13.345   7.930  12.646
83077SOL    HW151128  13.371   8.009  12.695
83077SOL    HW251129  13.413   7.866  12.668
83078SOL     OW51130   2.047   7.698   6.984
83078SOL    HW151131   2.080   7.610   6.999
83078SOL    HW251132   2.092   7.752   7.049
83079SOL     OW51133   8.443  11.556  11.264
83079SOL    HW151134   8.446  11.601  11.180
83079SOL    HW251135   8.371  11.494  11.255
83080SOL     OW51136   5.016  11.944   3.519
83080SOL    HW151137   5.043  11.878   3.455
83080SOL    HW251138   5.008  12.025   3.469
83081SOL     OW51139   2.202   7.546   5.251
83081SOL    HW151140   2.298   7.543   5.249
83081SOL    HW251141   2.175   7.489   5.179
83082SOL     OW51142   5.376   1.767   7.765
83082SOL    HW151143   5.327   1.706   7.820
83082SOL    HW251144   5.335   1.852   7.780
83083SOL     OW51145  13.421   1.330  14.674
83083SOL    HW151146  13.429   1.235  14.680
83083SOL    HW251147  13.468   1.353  14.594
83084SOL     OW51148   7.632   5.652   4.415
83084SOL    HW151149   7.711   5.600   4.426
83084SOL    HW251150   7.631   5.710   4.491
83085SOL     OW51151   2.155  10.463  14.344
83085SOL    HW151152   2.175  10.403  14.416
83085SOL    HW251153   2.086  10.420  14.295
83086SOL     OW51154   2.661   9.813   7.086
83086SOL    HW151155   2.644   9.834   6.994
83086SOL    HW251156   2.725   9.742   7.083
83087SOL     OW51157  10.673   1.483   5.637
83087SOL    HW151158  10.578   1.481   5.647
83087SOL    HW251159  10.701   1.395   5.661
83088SOL     OW51160   2.652   9.221  11.729
83088SOL    HW151161   2.564   9.246  11.700
83088SOL    HW251162   2.637   9.177  11.813
83089SOL     OW51163   6.526  13.912   6.013
83089SOL    HW151164   6.549  13.825   5.981
83089SOL    HW251165   6.436  13.925   5.985
83090SOL     OW51166   9.846  12.413   1.852
83090SOL    HW151167   9.777  12.377   1.908
83090SOL    HW251168   9.800  12.465   1.787
83091SOL     OW51169  12.082  11.874  14.579
83091SOL    HW151170  12.052  11.912  14.662
83091SOL    HW251171  12.140  11.803  14.606
83092SOL     OW51172  14.417   8.073   6.370
83092SOL    HW151173  14.472   8.009   6.324
83092SOL    HW251174  14.331   8.030   6.375
83093SOL     OW51175  12.352  13.421  12.763
83093SOL    HW151176  12.288  13.491  12.749
83093SOL    HW251177  12.396  13.413  12.679
83094SOL     OW51178   7.731   2.564   7.666
83094SOL    HW151179   7.653   2.590   7.716
83094SOL    HW251180   7.744   2.472   7.687
83095SOL     OW51181   0.386   5.751  12.793
83095SOL    HW151182   0.396   5.694  12.869
83095SOL    HW251183   0.365   5.836  12.830
83096SOL     OW51184  11.204  14.391   9.487
83096SOL    HW151185  11.197  14.457   9.556
83096SOL    HW251186  11.253  14.319   9.527
83097SOL     OW51187   3.459   9.611   1.925
83097SOL    HW151188   3.486   9.523   1.899
83097SOL    HW251189   3.461   9.610   2.021
83098SOL     OW51190   3.887   2.620   4.269
83098SOL    HW151191   3.847   2.535   4.248
83098SOL    HW251192   3.899   2.662   4.184
83099SOL     OW51193   5.358  11.733   8.784
83099SOL    HW151194   5.362  11.677   8.707
83099SOL    HW251195   5.324  11.676   8.853
83100SOL     OW51196  10.543   6.182   4.902
83100SOL    HW151197  10.514   6.174   4.993
83100SOL    HW251198  10.481   6.128   4.852
83101SOL     OW51199  14.443   9.228  10.733
83101SOL    HW151200  14.511   9.242  10.799
83101SOL    HW251201  14.399   9.312  10.725
83102SOL     OW51202   8.629  12.781  13.275
83102SOL    HW151203   8.669  12.818  13.354
83102SOL    HW251204   8.704  12.749  13.224
83103SOL     OW51205   2.639   5.822   7.083
83103SOL    HW151206   2.731   5.801   7.098
83103SOL    HW251207   2.633   5.836   6.989
83104SOL     OW51208  12.135  12.409   1.721
83104SOL    HW151209  12.195  12.480   1.698
83104SOL    HW251210  12.169  12.375   1.804
83105SOL     OW51211  10.315  14.005   4.844
83105SOL    HW151212  10.254  13.938   4.874
83105SOL    HW251213  10.262  14.085   4.839
83106SOL     OW51214  13.323   7.685   6.507
83106SOL    HW151215  13.268   7.608   6.492
83106SOL    HW251216  13.410   7.649   6.525
83107SOL     OW51217   2.164   1.062   1.953
83107SOL    HW151218   2.191   0.995   1.890
83107SOL    HW251219   2.237   1.123   1.956
83108SOL     OW51220   5.204  12.275   8.556
83108SOL    HW151221   5.208  12.190   8.599
83108SOL    HW251222   5.278  12.324   8.591
83109SOL     OW51223  12.787   4.442   1.167
83109SOL    HW151224  12.769   4.500   1.241
83109SOL    HW251225  12.859   4.387   1.198
83110SOL     OW51226   4.533  10.275   5.328
83110SOL    HW151227   4.529  10.370   5.328
83110SOL    HW251228   4.503  10.250   5.416
83111SOL     OW51229   7.712   1.365   8.682
83111SOL    HW151230   7.637   1.410   8.721
83111SOL    HW251231   7.782   1.375   8.746
83112SOL     OW51232   1.870   4.578  13.204
83112SOL    HW151233   1.834   4.661  13.172
83112SOL    HW251234   1.866   4.585  13.299
83113SOL     OW51235   9.117  11.062   8.048
83113SOL    HW151236   9.107  11.122   8.122
83113SOL    HW251237   9.175  11.109   7.988
83114SOL     OW51238  14.686  13.555   7.136
83114SOL    HW151239  14.765  13.518   7.096
83114SOL    HW251240  14.627  13.571   7.063
83115SOL     OW51241  12.191  12.061   8.829
83115SOL    HW151242  12.128  11.997   8.864
83115SOL    HW251243  12.276  12.028   8.856
83116SOL     OW51244   8.690  13.744  13.761
83116SOL    HW151245   8.773  13.713  13.726
83116SOL    HW251246   8.623  13.697  13.710
83117SOL     OW51247  13.398  12.769   4.864
83117SOL    HW151248  13.388  12.845   4.921
83117SOL    HW251249  13.312  12.759   4.822
83118SOL     OW51250   7.194   0.706   7.818
83118SOL    HW151251   7.166   0.670   7.734
83118SOL    HW251252   7.185   0.801   7.809
83119SOL     OW51253   0.766   0.406   8.467
83119SOL    HW151254   0.672   0.417   8.455
83119SOL    HW251255   0.802   0.409   8.378
83120SOL     OW51256   8.724   4.468   1.385
83120SOL    HW151257   8.653   4.500   1.440
83120SOL    HW251258   8.800   4.465   1.443
83121SOL     OW51259   5.543   8.806   4.516
83121SOL    HW151260   5.622   8.759   4.488
83121SOL    HW251261   5.573   8.863   4.587
83122SOL     OW51262   2.524   3.525   9.761
83122SOL    HW151263   2.474   3.572   9.694
83122SOL    HW251264   2.459   3.473   9.807
83123SOL     OW51265  10.575   6.355  11.678
83123SOL    HW151266  10.507   6.289  11.695
83123SOL    HW251267  10.554   6.426  11.738
83124SOL     OW51268  13.138  10.632   2.095
83124SOL    HW151269  13.106  10.543   2.080
83124SOL    HW251270  13.224  10.620   2.136
83125SOL     OW51271  14.162  13.096   2.870
83125SOL    HW151272  14.232  13.040   2.902
83125SOL    HW251273  14.126  13.137   2.949
83126SOL     OW51274  12.296   6.014   5.549
83126SOL    HW151275  12.208   5.998   5.517
83126SOL    HW251276  12.325   6.092   5.503
83127SOL     OW51277   9.629   4.888   4.647
83127SOL    HW151278   9.539   4.900   4.680
83127SOL    HW251279   9.683   4.892   4.726
83128SOL     OW51280   6.485   7.457   0.216
83128SOL    HW151281   6.432   7.421   0.145
83128SOL    HW251282   6.544   7.519   0.173
83129SOL     OW51283   1.595  12.327   3.966
83129SOL    HW151284   1.510  12.360   3.936
83129SOL    HW251285   1.643  12.404   3.994
83130SOL     OW51286  13.409   7.769   2.541
83130SOL    HW151287  13.356   7.819   2.479
83130SOL    HW251288  13.347   7.739   2.608
83131SOL     OW51289   4.016   6.551  13.964
83131SOL    HW151290   4.052   6.640  13.975
83131SOL    HW251291   4.074   6.510  13.900
83132SOL     OW51292  12.666   7.677   0.006
83132SOL    HW151293  12.637   7.654  14.796
83132SOL    HW251294  12.761   7.662   0.005
83133SOL     OW51295   4.836   2.572   3.629
83133SOL    HW151296   4.907   2.512   3.652
83133SOL    HW251297   4.791   2.529   3.556
83134SOL     OW51298  13.351  13.336  13.982
83134SOL    HW151299  13.290  13.282  14.032
83134SOL    HW251300  13.358  13.417  14.032
83135SOL     OW51301   1.846  13.905   3.953
83135SOL    HW151302   1.841  13.922   3.859
83135SOL    HW251303   1.803  13.980   3.994
83136SOL     OW51304   7.469   3.023   6.444
83136SOL    HW151305   7.560   3.023   6.474
83136SOL    HW251306   7.417   3.039   6.523
83137SOL     OW51307   2.779   2.345   4.346
83137SOL    HW151308   2.759   2.435   4.369
83137SOL    HW251309   2.824   2.351   4.262
83138SOL     OW51310  12.051   4.394  10.385
83138SOL    HW151311  11.960   4.399  10.356
83138SOL    HW251312  12.053   4.319  10.444
83139SOL     OW51313   4.791   9.288  13.597
83139SOL    HW151314   4.726   9.220  13.614
83139SOL    HW251315   4.867   9.240  13.563
83140SOL     OW51316   0.763  10.115   8.585
83140SOL    HW151317   0.789  10.025   8.601
83140SOL    HW251318   0.842  10.158   8.552
83141SOL     OW51319   5.292   2.689  14.821
83141SOL    HW151320   5.310   2.596  14.834
83141SOL    HW251321   5.259   2.718   0.029
83142SOL     OW51322   6.814  14.609   5.080
83142SOL    HW151323   6.894  14.556   5.088
83142SOL    HW251324   6.800  14.643   5.168
83143SOL     OW51325   5.117  11.318   9.250
83143SOL    HW151326   5.180  11.297   9.319
83143SOL    HW251327   5.042  11.260   9.268
83144SOL     OW51328   9.918  11.867  12.210
83144SOL    HW151329   9.823  11.870  12.218
83144SOL    HW251330   9.940  11.946  12.159
83145SOL     OW51331   3.975  10.371   0.549
83145SOL    HW151332   3.888  10.396   0.518
83145SOL    HW251333   4.030  10.372   0.471
83146SOL     OW51334   4.552   7.608  12.800
83146SOL    HW151335   4.633   7.626  12.753
83146SOL    HW251336   4.483   7.625  12.736
83147SOL     OW51337   9.907  10.363   0.413
83147SOL    HW151338   9.858  10.410   0.345
83147SOL    HW251339   9.881  10.406   0.495
83148SOL     OW51340  11.244   2.302   8.535
83148SOL    HW151341  11.286   2.365   8.477
83148SOL    HW251342  11.150   2.314   8.521
83149SOL     OW51343   0.119   4.037   8.173
83149SOL    HW151344   0.111   4.124   8.212
83149SOL    HW251345   0.070   3.980   8.231
83150SOL     OW51346   6.594   1.846   3.767
83150SOL    HW151347   6.644   1.902   3.827
83150SOL    HW251348   6.511   1.832   3.812
83151SOL     OW51349  12.477   6.210   1.776
83151SOL    HW151350  12.466   6.227   1.683
83151SOL    HW251351  12.401   6.253   1.817
83152SOL     OW51352   1.878  13.246   6.430
83152SOL    HW151353   1.832  13.314   6.382
83152SOL    HW251354   1.833  13.165   6.406
83153SOL     OW51355   3.886  10.652   3.352
83153SOL    HW151356   3.809  10.690   3.393
83153SOL    HW251357   3.946  10.726   3.340
83154SOL     OW51358  11.117   5.588  14.620
83154SOL    HW151359  11.121   5.513  14.562
83154SOL    HW251360  11.205   5.595  14.657
83155SOL     OW51361   1.267  10.317   4.679
83155SOL    HW151362   1.197  10.296   4.618
83155SOL    HW251363   1.314  10.235   4.692
83156SOL     OW51364  14.856   4.783   6.915
83156SOL    HW151365  14.854   4.866   6.963
83156SOL    HW251366  14.812   4.801   6.832
83157SOL     OW51367   9.220   9.440  10.132
83157SOL    HW151368   9.127   9.417  10.135
83157SOL    HW251369   9.245   9.426  10.040
83158SOL     OW51370   4.528  10.468   5.712
83158SOL    HW151371   4.578  10.485   5.792
83158SOL    HW251372   4.437  10.474   5.738
83159SOL     OW51373   7.351   2.672  10.678
83159SOL    HW151374   7.418   2.735  10.653
83159SOL    HW251375   7.272   2.700  10.631
83160SOL     OW51376   4.402   8.437   2.034
83160SOL    HW151377   4.340   8.365   2.047
83160SOL    HW251378   4.462   8.405   1.966
83161SOL     OW51379  13.358   3.510  12.120
83161SOL    HW151380  13.417   3.549  12.184
83161SOL    HW251381  13.288   3.574  12.110
83162SOL     OW51382   5.780   3.301   3.543
83162SOL    HW151383   5.740   3.387   3.534
83162SOL    HW251384   5.745   3.266   3.625
83163SOL     OW51385   8.137   7.053   6.671
83163SOL    HW151386   8.118   7.002   6.592
83163SOL    HW251387   8.208   7.006   6.714
83164SOL     OW51388   2.031   6.768   6.370
83164SOL    HW151389   2.122   6.781   6.396
83164SOL    HW251390   2.033   6.688   6.317
83165SOL     OW51391   1.113  12.674   3.805
83165SOL    HW151392   1.141  12.583   3.812
83165SOL    HW251393   1.034  12.679   3.858
83166SOL     OW51394  12.485  10.688  14.035
83166SOL    HW151395  12.559  10.663  14.091
83166SOL    HW251396  12.526  10.733  13.961
83167SOL     OW51397   1.815   2.697  12.870
83167SOL    HW151398   1.870   2.761  12.824
83167SOL    HW251399   1.829   2.715  12.963
83168SOL     OW51400   4.132  14.269  14.139
83168SOL    HW151401   4.042  14.286  14.167
83168SOL    HW251402   4.126  14.193  14.082
83169SOL     OW51403   0.040   5.464   6.659
83169SOL    HW151404   0.102   5.486   6.730
83169SOL    HW251405  14.837   5.441   6.705
83170SOL     OW51406   1.761   3.756  12.833
83170SOL    HW151407   1.756   3.691  12.762
83170SOL    HW251408   1.713   3.831  12.800
83171SOL     OW51409  10.120   2.591   1.785
83171SOL    HW151410  10.072   2.552   1.859
83171SOL    HW251411  10.163   2.668   1.823
83172SOL     OW51412   8.853   7.891   0.959
83172SOL    HW151413   8.925   7.946   0.927
83172SOL    HW251414   8.798   7.877   0.882
83173SOL     OW51415   1.172  12.942  11.418
83173SOL    HW151416   1.155  12.863  11.468
83173SOL    HW251417   1.184  12.912  11.328
83174SOL     OW51418  10.028  11.296  10.807
83174SOL    HW151419  10.017  11.256  10.721
83174SOL    HW251420  10.061  11.225  10.862
83175SOL     OW51421  14.618  10.482   8.192
83175SOL    HW151422  14.558  10.506   8.263
83175SOL    HW251423  14.702  10.520   8.219
83176SOL     OW51424  13.954   0.344  14.264
83176SOL    HW151425  14.021   0.394  14.217
83176SOL    HW251426  13.938   0.395  14.344
83177SOL     OW51427   3.855   9.954   2.049
83177SOL    HW151428   3.802   9.874   2.053
83177SOL    HW251429   3.898   9.958   2.134
83178SOL     OW51430   7.342   8.510   8.645
83178SOL    HW151431   7.394   8.441   8.686
83178SOL    HW251432   7.257   8.505   8.689
83179SOL     OW51433   9.619  11.028   2.846
83179SOL    HW151434   9.608  11.039   2.940
83179SOL    HW251435   9.681  10.956   2.836
83180SOL     OW51436   3.433   6.112  14.773
83180SOL    HW151437   3.364   6.110  14.839
83180SOL    HW251438   3.415   6.190  14.721
83181SOL     OW51439   1.966   0.030  14.021
83181SOL    HW151440   2.017   0.039  13.941
83181SOL    HW251441   2.027  14.872  14.085
83182SOL     OW51442   2.077   6.380   3.892
83182SOL    HW151443   2.022   6.459   3.894
83182SOL    HW251444   2.165   6.412   3.911
83183SOL     OW51445   9.138   5.937   8.715
83183SOL    HW151446   9.146   6.018   8.765
83183SOL    HW251447   9.045   5.934   8.690
83184SOL     OW51448   6.930   8.545   6.592
83184SOL    HW151449   7.002   8.608   6.587
83184SOL    HW251450   6.939   8.505   6.678
83185SOL     OW51451   0.032   7.862   9.157
83185SOL    HW151452  14.829   7.824   9.122
83185SOL    HW251453   0.060   7.924   9.090
83186SOL     OW51454   0.270   6.268   2.279
83186SOL    HW151455   0.302   6.261   2.369
83186SOL    HW251456   0.176   6.250   2.284
83187SOL     OW51457   7.555   4.993   0.564
83187SOL    HW151458   7.464   5.020   0.576
83187SOL    HW251459   7.594   5.061   0.509
83188SOL     OW51460   3.352   0.667   6.738
83188SOL    HW151461   3.266   0.624   6.734
83188SOL    HW251462   3.407   0.616   6.679
83189SOL     OW51463   9.974   6.275   4.908
83189SOL    HW151464  10.001   6.333   4.837
83189SOL    HW251465   9.910   6.326   4.958
83190SOL     OW51466  14.288   8.690  14.187
83190SOL    HW151467  14.228   8.617  14.167
83190SOL    HW251468  14.375   8.655  14.168
83191SOL     OW51469   3.351  11.524   9.778
83191SOL    HW151470   3.371  11.544   9.686
83191SOL    HW251471   3.388  11.437   9.792
83192SOL     OW51472  12.158   4.173   7.727
83192SOL    HW151473  12.250   4.176   7.754
83192SOL    HW251474  12.110   4.154   7.808
83193SOL     OW51475  10.870   7.339  11.280
83193SOL    HW151476  10.829   7.268  11.330
83193SOL    HW251477  10.832   7.419  11.318
83194SOL     OW51478   9.930  14.436  13.120
83194SOL    HW151479   9.912  14.342  13.114
83194SOL    HW251480  10.007  14.442  13.176
83195SOL     OW51481   1.188  13.390   1.837
83195SOL    HW151482   1.176  13.450   1.763
83195SOL    HW251483   1.164  13.304   1.802
83196SOL     OW51484   1.626   0.640  11.150
83196SOL    HW151485   1.550   0.609  11.199
83196SOL    HW251486   1.680   0.562  11.137
83197SOL     OW51487   6.158   5.613   2.844
83197SOL    HW151488   6.245   5.652   2.835
83197SOL    HW251489   6.147   5.560   2.765
83198SOL     OW51490   0.622   0.068   6.674
83198SOL    HW151491   0.544   0.088   6.727
83198SOL    HW251492   0.588   0.018   6.600
83199SOL     OW51493   9.903   3.155   2.227
83199SOL    HW151494   9.829   3.207   2.195
83199SOL    HW251495   9.862   3.083   2.276
83200SOL     OW51496  13.185  13.301   3.611
83200SOL    HW151497  13.142  13.226   3.652
83200SOL    HW251498  13.176  13.372   3.674
83201SOL     OW51499  14.124   2.358   4.723
83201SOL    HW151500  14.197   2.411   4.756
83201SOL    HW251501  14.165   2.297   4.663
83202SOL     OW51502   9.928   1.734  10.859
83202SOL    HW151503   9.833   1.731  10.863
83202SOL    HW251504   9.953   1.796  10.928
83203SOL     OW51505   4.683  10.720   6.215
83203SOL    HW151506   4.764  10.716   6.165
83203SOL    HW251507   4.615  10.732   6.149
83204SOL     OW51508   6.521  11.973   7.372
83204SOL    HW151509   6.581  11.929   7.432
83204SOL    HW251510   6.479  11.902   7.324
83205SOL     OW51511   9.560   1.101   6.335
83205SOL    HW151512   9.555   1.162   6.261
83205SOL    HW251513   9.469   1.082   6.357
83206SOL     OW51514  14.164  11.952   2.352
83206SOL    HW151515  14.108  11.890   2.399
83206SOL    HW251516  14.179  11.910   2.267
83207SOL     OW51517   8.142  12.317   7.875
83207SOL    HW151518   8.127  12.335   7.967
83207SOL    HW251519   8.114  12.397   7.830
83208SOL     OW51520  13.388   7.467  10.699
83208SOL    HW151521  13.323   7.535  10.717
83208SOL    HW251522  13.383   7.453  10.605
83209SOL     OW51523   5.381   1.180  10.986
83209SOL    HW151524   5.433   1.099  10.989
83209SOL    HW251525   5.313   1.167  11.052
83210SOL     OW51526   8.353  14.375   8.015
83210SOL    HW151527   8.288  14.392   8.084
83210SOL    HW251528   8.411  14.309   8.052
83211SOL     OW51529   0.930   2.400  12.354
83211SOL    HW151530   0.912   2.323  12.407
83211SOL    HW251531   0.996   2.449  12.402
83212SOL     OW51532   5.020  13.165   9.158
83212SOL    HW151533   5.111  13.138   9.163
83212SOL    HW251534   5.010  13.200   9.069
83213SOL     OW51535   8.166   4.711  12.347
83213SOL    HW151536   8.091   4.707  12.288
83213SOL    HW251537   8.242   4.693  12.291
83214SOL     OW51538   1.858  13.676   4.474
83214SOL    HW151539   1.851  13.683   4.569
83214SOL    HW251540   1.898  13.590   4.459
83215SOL     OW51541   1.752   1.379   9.260
83215SOL    HW151542   1.741   1.473   9.274
83215SOL    HW251543   1.825   1.372   9.199
83216SOL     OW51544   5.064  10.002  11.071
83216SOL    HW151545   4.974   9.991  11.101
83216SOL    HW251546   5.091  10.086  11.109
83217SOL     OW51547   2.140   7.027   2.683
83217SOL    HW151548   2.046   7.010   2.682
83217SOL    HW251549   2.155   7.080   2.604
83218SOL     OW51550  12.357   9.357  13.660
83218SOL    HW151551  12.329   9.266  13.670
83218SOL    HW251552  12.297   9.406  13.717
83219SOL     OW51553   3.134   8.289   2.733
83219SOL    HW151554   3.195   8.232   2.780
83219SOL    HW251555   3.047   8.261   2.763
83220SOL     OW51556   7.934  13.258   1.674
83220SOL    HW151557   7.930  13.206   1.594
83220SOL    HW251558   7.874  13.214   1.735
83221SOL     OW51559  11.746  13.500   8.780
83221SOL    HW151560  11.697  13.546   8.712
83221SOL    HW251561  11.790  13.429   8.735
83222SOL     OW51562   7.378  11.054  13.536
83222SOL    HW151563   7.412  11.143  13.525
83222SOL    HW251564   7.343  11.032  13.450
83223SOL     OW51565   8.546  11.147  11.668
83223SOL    HW151566   8.466  11.154  11.615
83223SOL    HW251567   8.527  11.078  11.731
83224SOL     OW51568   7.387   5.350   1.732
83224SOL    HW151569   7.425   5.265   1.708
83224SOL    HW251570   7.293   5.334   1.735
83225SOL     OW51571   5.080   3.963   5.778
83225SOL    HW151572   5.175   3.970   5.770
83225SOL    HW251573   5.048   3.956   5.688
83226SOL     OW51574  11.961   2.871  10.061
83226SOL    HW151575  11.947   2.913  10.147
83226SOL    HW251576  11.980   2.779  10.082
83227SOL     OW51577   5.568   8.633   0.556
83227SOL    HW151578   5.659   8.661   0.561
83227SOL    HW251579   5.518   8.711   0.580
83228SOL     OW51580   7.161   6.704  13.444
83228SOL    HW151581   7.121   6.626  13.407
83228SOL    HW251582   7.236   6.722  13.387
83229SOL     OW51583   8.235   1.370   0.118
83229SOL    HW151584   8.190   1.384   0.035
83229SOL    HW251585   8.189   1.426   0.180
83230SOL     OW51586   6.827  10.050   2.585
83230SOL    HW151587   6.839  10.144   2.578
83230SOL    HW251588   6.839  10.017   2.496
83231SOL     OW51589   2.726   5.373  13.823
83231SOL    HW151590   2.800   5.321  13.856
83231SOL    HW251591   2.679   5.314  13.764
83232SOL     OW51592   1.602   4.298  11.204
83232SOL    HW151593   1.675   4.359  11.195
83232SOL    HW251594   1.635   4.216  11.167
83233SOL     OW51595   1.087   2.270   8.894
83233SOL    HW151596   1.074   2.335   8.825
83233SOL    HW251597   1.182   2.257   8.898
83234SOL     OW51598  14.751  11.826  10.539
83234SOL    HW151599  14.769  11.905  10.590
83234SOL    HW251600  14.687  11.853  10.474
83235SOL     OW51601   6.914   0.828  10.302
83235SOL    HW151602   6.819   0.836  10.316
83235SOL    HW251603   6.926   0.736  10.280
83236SOL     OW51604   1.030   6.589   7.039
83236SOL    HW151605   1.117   6.623   7.017
83236SOL    HW251606   1.000   6.547   6.959
83237SOL     OW51607  12.265  12.757   8.690
83237SOL    HW151608  12.340  12.747   8.748
83237SOL    HW251609  12.303  12.789   8.608
83238SOL     OW51610  14.383   7.500   9.170
83238SOL    HW151611  14.332   7.565   9.219
83238SOL    HW251612  14.472   7.535   9.170
83239SOL     OW51613   3.211  12.998   3.250
83239SOL    HW151614   3.150  12.932   3.281
83239SOL    HW251615   3.278  13.004   3.318
83240SOL     OW51616  11.586  10.492   7.401
83240SOL    HW151617  11.560  10.561   7.461
83240SOL    HW251618  11.668  10.523   7.362
83241SOL     OW51619   8.084   7.358   2.947
83241SOL    HW151620   8.044   7.319   3.025
83241SOL    HW251621   8.174   7.377   2.973
83242SOL     OW51622  10.977   9.051  12.013
83242SOL    HW151623  11.017   9.132  11.983
83242SOL    HW251624  11.005   8.985  11.951
83243SOL     OW51625   3.636   4.457   3.767
83243SOL    HW151626   3.638   4.367   3.732
83243SOL    HW251627   3.691   4.453   3.844
83244SOL     OW51628  11.719   4.299   8.356
83244SOL    HW151629  11.811   4.296   8.331
83244SOL    HW251630  11.718   4.337   8.443
83245SOL     OW51631   8.596   4.693   9.753
83245SOL    HW151632   8.676   4.686   9.805
83245SOL    HW251633   8.540   4.751   9.805
83246SOL     OW51634   5.987   1.569   3.867
83246SOL    HW151635   6.072   1.554   3.908
83246SOL    HW251636   5.954   1.649   3.908
83247SOL     OW51637   4.900  13.543   5.056
83247SOL    HW151638   4.876  13.455   5.027
83247SOL    HW251639   4.827  13.598   5.028
83248SOL     OW51640  13.261  10.206  10.069
83248SOL    HW151641  13.294  10.284  10.114
83248SOL    HW251642  13.294  10.133  10.122
83249SOL     OW51643   1.966   4.633   8.889
83249SOL    HW151644   1.959   4.564   8.954
83249SOL    HW251645   2.061   4.647   8.879
83250SOL     OW51646   6.991  13.376   1.852
83250SOL    HW151647   7.033  13.293   1.874
83250SOL    HW251648   7.045  13.411   1.781
83251SOL     OW51649   0.669   1.312  14.663
83251SOL    HW151650   0.686   1.356  14.747
83251SOL    HW251651   0.631   1.380  14.607
83252SOL     OW51652   0.247   3.849   9.442
83252SOL    HW151653   0.294   3.917   9.394
83252SOL    HW251654   0.316   3.796   9.483
83253SOL     OW51655   3.766   1.089   4.228
83253SOL    HW151656   3.739   1.012   4.178
83253SOL    HW251657   3.698   1.153   4.212
83254SOL     OW51658   2.462  11.349   0.007
83254SOL    HW151659   2.405  11.280  14.851
83254SOL    HW251660   2.513  11.377  14.808
83255SOL     OW51661   2.095   2.796   3.457
83255SOL    HW151662   2.159   2.728   3.436
83255SOL    HW251663   2.107   2.863   3.389
83256SOL     OW51664   6.658  13.385   8.355
83256SOL    HW151665   6.746  13.348   8.359
83256SOL    HW251666   6.605  13.326   8.409
83257SOL     OW51667   7.557   0.234  11.855
83257SOL    HW151668   7.545   0.170  11.925
83257SOL    HW251669   7.529   0.317  11.892
83258SOL     OW51670   5.303   9.649  10.845
83258SOL    HW151671   5.372   9.583  10.857
83258SOL    HW251672   5.222   9.605  10.873
83259SOL     OW51673  12.167   0.738  12.779
83259SOL    HW151674  12.203   0.771  12.861
83259SOL    HW251675  12.145   0.647  12.797
83260SOL     OW51676   3.118   2.514  11.506
83260SOL    HW151677   3.175   2.587  11.480
83260SOL    HW251678   3.040   2.523  11.450
83261SOL     OW51679   7.882   1.201   4.115
83261SOL    HW151680   7.912   1.139   4.181
83261SOL    HW251681   7.799   1.234   4.148
83262SOL     OW51682   3.540   2.793   5.341
83262SOL    HW151683   3.522   2.702   5.318
83262SOL    HW251684   3.636   2.800   5.336
83263SOL     OW51685  13.556   9.786   7.739
83263SOL    HW151686  13.554   9.707   7.792
83263SOL    HW251687  13.649   9.806   7.729
83264SOL     OW51688   8.292  12.048  14.762
83264SOL    HW151689   8.289  12.143  14.750
83264SOL    HW251690   8.231  12.015  14.696
83265SOL     OW51691   7.465   5.587  13.112
83265SOL    HW151692   7.380   5.579  13.069
83265SOL    HW251693   7.525   5.536  13.057
83266SOL     OW51694   4.360  12.806   4.889
83266SOL    HW151695   4.384  12.756   4.811
83266SOL    HW251696   4.351  12.741   4.959
83267SOL     OW51697   3.114   5.274   7.482
83267SOL    HW151698   3.181   5.213   7.452
83267SOL    HW251699   3.160   5.334   7.541
83268SOL     OW51700   4.214   2.871  11.057
83268SOL    HW151701   4.126   2.834  11.047
83268SOL    HW251702   4.268   2.824  10.993
83269SOL     OW51703  13.357   0.098  14.828
83269SOL    HW151704  13.442   0.143  14.831
83269SOL    HW251705  13.316   0.118   0.035
83270SOL     OW51706   5.449   0.855   3.856
83270SOL    HW151707   5.493   0.844   3.772
83270SOL    HW251708   5.357   0.869   3.834
83271SOL     OW51709   0.617   8.970   0.802
83271SOL    HW151710   0.675   8.908   0.760
83271SOL    HW251711   0.558   9.000   0.733
83272SOL     OW51712   7.893   9.062   3.527
83272SOL    HW151713   7.982   9.068   3.563
83272SOL    HW251714   7.836   9.087   3.600
83273SOL     OW51715  10.300  14.474   2.346
83273SOL    HW151716  10.239  14.454   2.274
83273SOL    HW251717  10.323  14.565   2.333
83274SOL     OW51718   0.886   8.273   9.474
83274SOL    HW151719   0.942   8.210   9.430
83274SOL    HW251720   0.797   8.247   9.451
83275SOL     OW51721  12.940   2.636   8.081
83275SOL    HW151722  12.964   2.704   8.018
83275SOL    HW251723  12.979   2.556   8.047
83276SOL     OW51724   2.210  12.324  14.863
83276SOL    HW151725   2.165  12.334  14.778
83276SOL    HW251726   2.145  12.352   0.050
83277SOL     OW51727  11.418  12.428  14.301
83277SOL    HW151728  11.415  12.366  14.374
83277SOL    HW251729  11.338  12.479  14.310
83278SOL     OW51730   3.348   6.999   5.134
83278SOL    HW151731   3.378   7.089   5.137
83278SOL    HW251732   3.283   6.998   5.063
83279SOL     OW51733   9.069  12.756   4.714
83279SOL    HW151734   9.066  12.826   4.779
83279SOL    HW251735   9.151  12.710   4.734
83280SOL     OW51736   3.301  10.351  13.397
83280SOL    HW151737   3.349  10.377  13.318
83280SOL    HW251738   3.318  10.421  13.459
83281SOL     OW51739   9.805   5.778   0.108
83281SOL    HW151740   9.750   5.845   0.067
83281SOL    HW251741   9.745   5.705   0.125
83282SOL     OW51742   9.210   6.785   1.715
83282SOL    HW151743   9.140   6.731   1.752
83282SOL    HW251744   9.195   6.780   1.620
83283SOL     OW51745   8.504   1.857   3.076
83283SOL    HW151746   8.542   1.940   3.105
83283SOL    HW251747   8.541   1.842   2.989
83284SOL     OW51748  13.147  14.490   3.163
83284SOL    HW151749  13.176  14.484   3.072
83284SOL    HW251750  13.119  14.581   3.173
83285SOL     OW51751   1.689   2.822   7.311
83285SOL    HW151752   1.721   2.732   7.318
83285SOL    HW251753   1.765   2.876   7.336
83286SOL     OW51754  10.617  13.779   5.043
83286SOL    HW151755  10.583  13.730   5.118
83286SOL    HW251756  10.685  13.835   5.080
83287SOL     OW51757  13.456  14.725   2.691
83287SOL    HW151758  13.518  14.709   2.761
83287SOL    HW251759  13.412  14.806   2.715
83288SOL     OW51760   8.150  10.418   2.199
83288SOL    HW151761   8.078  10.374   2.154
83288SOL    HW251762   8.125  10.419   2.291
83289SOL     OW51763  12.264   6.830  10.123
83289SOL    HW151764  12.268   6.736  10.140
83289SOL    HW251765  12.249   6.868  10.210
83290SOL     OW51766   0.744   9.803  10.634
83290SOL    HW151767   0.734   9.708  10.622
83290SOL    HW251768   0.828   9.812  10.681
83291SOL     OW51769  14.647  12.654   2.719
83291SOL    HW151770  14.658  12.740   2.759
83291SOL    HW251771  14.583  12.667   2.649
83292SOL     OW51772   7.703   4.743   3.764
83292SOL    HW151773   7.705   4.762   3.858
83292SOL    HW251774   7.755   4.664   3.754
83293SOL     OW51775  13.919   5.384   2.103
83293SOL    HW151776  13.931   5.357   2.012
83293SOL    HW251777  13.874   5.309   2.143
83294SOL     OW51778   6.391   5.395   3.000
83294SOL    HW151779   6.419   5.486   2.994
83294SOL    HW251780   6.340   5.391   3.081
83295SOL     OW51781   5.338   1.147   9.571
83295SOL    HW151782   5.262   1.203   9.556
83295SOL    HW251783   5.360   1.158   9.663
83296SOL     OW51784   6.832   5.018   7.224
83296SOL    HW151785   6.775   4.957   7.272
83296SOL    HW251786   6.890   5.053   7.291
83297SOL     OW51787   2.947   9.086   7.753
83297SOL    HW151788   2.967   9.020   7.820
83297SOL    HW251789   2.869   9.054   7.710
83298SOL     OW51790   3.720   0.939  10.816
83298SOL    HW151791   3.811   0.968  10.809
83298SOL    HW251792   3.669   1.021  10.819
83299SOL     OW51793   4.888   1.120   2.926
83299SOL    HW151794   4.953   1.065   2.881
83299SOL    HW251795   4.940   1.178   2.982
83300SOL     OW51796   4.748   2.045   9.311
83300SOL    HW151797   4.679   1.998   9.264
83300SOL    HW251798   4.822   1.985   9.310
83301SOL     OW51799   9.932   5.744  10.861
83301SOL    HW151800   9.897   5.736  10.772
83301SOL    HW251801   9.972   5.831  10.863
83302SOL     OW51802   8.806  10.822   8.288
83302SOL    HW151803   8.744  10.826   8.361
83302SOL    HW251804   8.761  10.865   8.215
83303SOL     OW51805   8.974   7.273   8.232
83303SOL    HW151806   8.955   7.192   8.186
83303SOL    HW251807   8.968   7.251   8.325
83304SOL     OW51808   6.552   4.002   3.372
83304SOL    HW151809   6.462   4.008   3.339
83304SOL    HW251810   6.545   4.017   3.466
83305SOL     OW51811   4.429   8.981  12.819
83305SOL    HW151812   4.513   9.005  12.858
83305SOL    HW251813   4.442   8.993  12.725
83306SOL     OW51814   2.591   7.993  13.621
83306SOL    HW151815   2.575   7.964  13.531
83306SOL    HW251816   2.555   7.924  13.676
83307SOL     OW51817  13.118   9.603   7.904
83307SOL    HW151818  13.152   9.691   7.922
83307SOL    HW251819  13.170   9.545   7.960
83308SOL     OW51820   4.755   2.380   4.757
83308SOL    HW151821   4.758   2.326   4.678
83308SOL    HW251822   4.789   2.465   4.730
83309SOL     OW51823  10.500  14.352   2.500
83309SOL    HW151824  10.516  14.274   2.447
83309SOL    HW251825  10.425  14.394   2.457
83310SOL     OW51826  13.265   6.747   9.622
83310SOL    HW151827  13.205   6.810   9.663
83310SOL    HW251828  13.290   6.788   9.540
83311SOL     OW51829   1.068  10.811   4.673
83311SOL    HW151830   1.080  10.716   4.665
83311SOL    HW251831   1.100  10.831   4.761
83312SOL     OW51832  14.404  13.964  14.415
83312SOL    HW151833  14.445  14.023  14.478
83312SOL    HW251834  14.311  13.970  14.434
83313SOL     OW51835   6.378  12.074  14.762
83313SOL    HW151836   6.436  11.999  14.759
83313SOL    HW251837   6.306  12.047  14.820
83314SOL     OW51838   6.430   6.705   2.551
83314SOL    HW151839   6.466   6.701   2.462
83314SOL    HW251840   6.467   6.628   2.595
83315SOL     OW51841   0.939   7.435   5.152
83315SOL    HW151842   0.983   7.436   5.236
83315SOL    HW251843   0.967   7.353   5.111
83316SOL     OW51844   7.973   4.285   0.834
83316SOL    HW151845   8.045   4.227   0.857
83316SOL    HW251846   7.969   4.348   0.906
83317SOL     OW51847   1.813   3.657   7.317
83317SOL    HW151848   1.723   3.643   7.287
83317SOL    HW251849   1.806   3.724   7.385
83318SOL     OW51850   8.969  13.331  14.456
83318SOL    HW151851   8.876  13.327  14.433
83318SOL    HW251852   9.014  13.328  14.371
83319SOL     OW51853   4.997  12.625   3.840
83319SOL    HW151854   4.960  12.713   3.849
83319SOL    HW251855   4.980  12.601   3.748
83320SOL     OW51856   4.365   9.429   8.718
83320SOL    HW151857   4.295   9.366   8.731
83320SOL    HW251858   4.341   9.504   8.774
83321SOL     OW51859   3.732  14.502   5.569
83321SOL    HW151860   3.791  14.429   5.548
83321SOL    HW251861   3.755  14.570   5.506
83322SOL     OW51862   0.065   6.916   1.788
83322SOL    HW151863   0.099   6.835   1.750
83322SOL    HW251864   0.095   6.915   1.879
83323SOL     OW51865   8.473   5.260  12.768
83323SOL    HW151866   8.440   5.242  12.856
83323SOL    HW251867   8.501   5.175  12.735
83324SOL     OW51868  11.860  12.250   6.454
83324SOL    HW151869  11.887  12.336   6.484
83324SOL    HW251870  11.770  12.263   6.423
83325SOL     OW51871   0.418   1.662   5.606
83325SOL    HW151872   0.331   1.657   5.566
83325SOL    HW251873   0.423   1.585   5.662
83326SOL     OW51874   6.587  13.144  14.673
83326SOL    HW151875   6.563  13.067  14.724
83326SOL    HW251876   6.513  13.159  14.615
83327SOL     OW51877  11.718   4.479   7.932
83327SOL    HW151878  11.787   4.413   7.936
83327SOL    HW251879  11.675   4.464   7.848
83328SOL     OW51880   1.313  13.252  13.253
83328SOL    HW151881   1.234  13.273  13.205
83328SOL    HW251882   1.364  13.198  13.192
83329SOL     OW51883   8.572  13.952   4.160
83329SOL    HW151884   8.616  14.010   4.098
83329SOL    HW251885   8.516  14.009   4.212
83330SOL     OW51886   7.316   0.319   2.918
83330SOL    HW151887   7.332   0.311   2.824
83330SOL    HW251888   7.251   0.252   2.938
83331SOL     OW51889  10.446  11.037   0.875
83331SOL    HW151890  10.454  10.973   0.947
83331SOL    HW251891  10.521  11.018   0.819
83332SOL     OW51892   8.807  11.483  13.464
83332SOL    HW151893   8.770  11.443  13.542
83332SOL    HW251894   8.901  11.466  13.469
83333SOL     OW51895  12.912   3.554  12.784
83333SOL    HW151896  12.900   3.539  12.878
83333SOL    HW251897  12.846   3.620  12.762
83334SOL     OW51898   5.767   8.753   0.257
83334SOL    HW151899   5.738   8.843   0.272
83334SOL    HW251900   5.749   8.707   0.340
83335SOL     OW51901   4.031   7.961  10.533
83335SOL    HW151902   4.089   7.897  10.575
83335SOL    HW251903   4.001   7.917  10.454
83336SOL     OW51904   1.608  11.185   3.084
83336SOL    HW151905   1.648  11.112   3.132
83336SOL    HW251906   1.631  11.168   2.993
83337SOL     OW51907  12.451   6.108   7.349
83337SOL    HW151908  12.358   6.121   7.370
83337SOL    HW251909  12.454   6.023   7.306
83338SOL     OW51910  11.667   5.032   4.629
83338SOL    HW151911  11.705   5.120   4.628
83338SOL    HW251912  11.594   5.037   4.567
83339SOL     OW51913   7.102   0.641   4.245
83339SOL    HW151914   7.102   0.638   4.149
83339SOL    HW251915   7.193   0.620   4.269
83340SOL     OW51916  10.921   1.803   9.457
83340SOL    HW151917  10.930   1.723   9.405
83340SOL    HW251918  10.898   1.871   9.394
83341SOL     OW51919  13.251   4.773   6.197
83341SOL    HW151920  13.284   4.800   6.283
83341SOL    HW251921  13.246   4.678   6.203
83342SOL     OW51922   6.334   7.154  14.797
83342SOL    HW151923   6.316   7.243  14.825
83342SOL    HW251924   6.356   7.162  14.704
83343SOL     OW51925   7.620   0.919  14.710
83343SOL    HW151926   7.689   0.853  14.705
83343SOL    HW251927   7.574   0.912  14.627
83344SOL     OW51928   0.762  10.124   0.955
83344SOL    HW151929   0.688  10.151   0.900
83344SOL    HW251930   0.836  10.116   0.895
83345SOL     OW51931   6.429   9.785   4.755
83345SOL    HW151932   6.456   9.747   4.839
83345SOL    HW251933   6.417   9.710   4.697
83346SOL     OW51934   7.836   0.624   8.231
83346SOL    HW151935   7.866   0.663   8.313
83346SOL    HW251936   7.741   0.630   8.235
83347SOL     OW51937   1.300   7.991  13.349
83347SOL    HW151938   1.271   8.058  13.411
83347SOL    HW251939   1.329   7.918  13.403
83348SOL     OW51940   6.967  11.015  11.556
83348SOL    HW151941   7.061  11.027  11.567
83348SOL    HW251942   6.946  10.939  11.610
83349SOL     OW51943   7.897  10.704   9.897
83349SOL    HW151944   7.841  10.628   9.912
83349SOL    HW251945   7.964  10.699   9.965
83350SOL     OW51946   4.863   0.290  11.375
83350SOL    HW151947   4.822   0.268  11.458
83350SOL    HW251948   4.838   0.219  11.316
83351SOL     OW51949  14.250   6.258  12.139
83351SOL    HW151950  14.169   6.308  12.154
83351SOL    HW251951  14.234   6.211  12.057
83352SOL     OW51952   4.554   5.964  13.967
83352SOL    HW151953   4.560   6.030  14.036
83352SOL    HW251954   4.622   5.900  13.989
83353SOL     OW51955   4.303   8.178  14.538
83353SOL    HW151956   4.265   8.093  14.517
83353SOL    HW251957   4.393   8.172  14.506
83354SOL     OW51958   1.761   5.829  11.922
83354SOL    HW151959   1.758   5.914  11.966
83354SOL    HW251960   1.848   5.827  11.881
83355SOL     OW51961   4.598   0.045   2.531
83355SOL    HW151962   4.616   0.136   2.506
83355SOL    HW251963   4.614   0.042   2.625
83356SOL     OW51964   2.529   9.511   1.266
83356SOL    HW151965   2.587   9.476   1.198
83356SOL    HW251966   2.487   9.434   1.303
83357SOL     OW51967  11.775   2.686   7.706
83357SOL    HW151968  11.864   2.712   7.682
83357SOL    HW251969  11.740   2.646   7.627
83358SOL     OW51970   1.295   2.290  11.456
83358SOL    HW151971   1.321   2.353  11.389
83358SOL    HW251972   1.368   2.290  11.518
83359SOL     OW51973   9.826  13.435   7.051
83359SOL    HW151974   9.840  13.352   7.004
83359SOL    HW251975   9.914  13.464   7.075
83360SOL     OW51976   0.527   7.859   9.742
83360SOL    HW151977   0.449   7.818   9.780
83360SOL    HW251978   0.600   7.804   9.770
83361SOL     OW51979   4.546   2.315   8.798
83361SOL    HW151980   4.461   2.334   8.839
83361SOL    HW251981   4.552   2.376   8.725
83362SOL     OW51982   5.403  13.966  13.184
83362SOL    HW151983   5.410  13.931  13.272
83362SOL    HW251984   5.465  13.913  13.133
83363SOL     OW51985   4.511   1.424   2.357
83363SOL    HW151986   4.486   1.494   2.417
83363SOL    HW251987   4.606   1.418   2.366
83364SOL     OW51988   2.281   8.056   3.458
83364SOL    HW151989   2.331   8.110   3.519
83364SOL    HW251990   2.346   8.023   3.396
83365SOL     OW51991  13.273   3.286  10.986
83365SOL    HW151992  13.292   3.204  11.033
83365SOL    HW251993  13.238   3.257  10.902
83366SOL     OW51994   5.347   0.118   6.959
83366SOL    HW151995   5.292   0.055   7.006
83366SOL    HW251996   5.421   0.066   6.928
83367SOL     OW51997   7.290   6.232  10.982
83367SOL    HW151998   7.232   6.305  11.005
83367SOL    HW251999   7.374   6.273  10.965
83368SOL     OW52000   2.944  14.260   4.861
83368SOL    HW152001   2.934  14.331   4.924
83368SOL    HW252002   2.855  14.233   4.840
83369SOL     OW52003   9.613   4.459   4.198
83369SOL    HW152004   9.539   4.520   4.190
83369SOL    HW252005   9.685   4.514   4.229
83370SOL     OW52006   1.508   9.274  12.629
83370SOL    HW152007   1.513   9.331  12.553
83370SOL    HW252008   1.422   9.232  12.622
83371SOL     OW52009   7.774  10.658  14.064
83371SOL    HW152010   7.744  10.598  14.132
83371SOL    HW252011   7.821  10.603  14.002
83372SOL     OW52012  14.659  13.995   2.536
83372SOL    HW152013  14.728  14.058   2.515
83372SOL    HW252014  14.626  14.024   2.621
83373SOL     OW52015  10.641   9.137   9.019
83373SOL    HW152016  10.627   9.047   9.050
83373SOL    HW252017  10.731   9.156   9.044
83374SOL     OW52018   6.535   4.414   7.518
83374SOL    HW152019   6.461   4.440   7.463
83374SOL    HW252020   6.540   4.319   7.508
83375SOL     OW52021   4.628   7.930   4.455
83375SOL    HW152022   4.655   7.908   4.544
83375SOL    HW252023   4.625   7.846   4.410
83376SOL     OW52024   7.812  12.822   4.584
83376SOL    HW152025   7.852  12.746   4.543
83376SOL    HW252026   7.782  12.877   4.511
83377SOL     OW52027   9.415   6.601   4.786
83377SOL    HW152028   9.343   6.547   4.752
83377SOL    HW252029   9.462   6.629   4.708
83378SOL     OW52030   5.617   1.707   1.802
83378SOL    HW152031   5.671   1.645   1.753
83378SOL    HW252032   5.552   1.738   1.739
83379SOL     OW52033   2.470   4.863  11.278
83379SOL    HW152034   2.524   4.935  11.244
83379SOL    HW252035   2.414   4.839  11.204
83380SOL     OW52036  13.507   0.571   0.526
83380SOL    HW152037  13.497   0.495   0.469
83380SOL    HW252038  13.588   0.554   0.574
83381SOL     OW52039   9.316   7.347   2.953
83381SOL    HW152040   9.341   7.299   2.874
83381SOL    HW252041   9.244   7.296   2.991
83382SOL     OW52042   0.630  11.886  12.769
83382SOL    HW152043   0.571  11.905  12.696
83382SOL    HW252044   0.588  11.814  12.815
83383SOL     OW52045  14.177  12.895  13.036
83383SOL    HW152046  14.144  12.928  12.953
83383SOL    HW252047  14.259  12.942  13.050
83384SOL     OW52048   4.826   5.944   6.799
83384SOL    HW152049   4.740   5.981   6.776
83384SOL    HW252050   4.808   5.889   6.875
83385SOL     OW52051   8.282   9.257  14.035
83385SOL    HW152052   8.199   9.263  13.988
83385SOL    HW252053   8.262   9.206  14.113
83386SOL     OW52054  13.880  13.802   2.315
83386SOL    HW152055  13.803  13.756   2.348
83386SOL    HW252056  13.871  13.800   2.220
83387SOL     OW52057   3.987   3.176   7.771
83387SOL    HW152058   4.033   3.260   7.770
83387SOL    HW252059   4.017   3.132   7.691
83388SOL     OW52060   5.806  14.120  12.839
83388SOL    HW152061   5.850  14.087  12.761
83388SOL    HW252062   5.875  14.122  12.906
83389SOL     OW52063   7.408  10.303   1.789
83389SOL    HW152064   7.450  10.255   1.860
83389SOL    HW252065   7.382  10.387   1.828
83390SOL     OW52066   5.588  11.043   4.405
83390SOL    HW152067   5.541  11.087   4.476
83390SOL    HW252068   5.671  11.089   4.399
83391SOL     OW52069  14.599   1.647  13.258
83391SOL    HW152070  14.605   1.560  13.220
83391SOL    HW252071  14.561   1.701  13.189
83392SOL     OW52072   8.425   5.928  13.489
83392SOL    HW152073   8.494   5.865  13.513
83392SOL    HW252074   8.413   5.916  13.395
83393SOL     OW52075   1.371  10.525   3.437
83393SOL    HW152076   1.342  10.545   3.526
83393SOL    HW252077   1.396  10.432   3.441
83394SOL     OW52078   2.882   8.918   8.036
83394SOL    HW152079   2.793   8.881   8.039
83394SOL    HW252080   2.939   8.842   8.030
83395SOL     OW52081  10.835  11.180   6.289
83395SOL    HW152082  10.762  11.141   6.337
83395SOL    HW252083  10.852  11.263   6.334
83396SOL     OW52084   2.302  11.744   4.238
83396SOL    HW152085   2.216  11.760   4.277
83396SOL    HW252086   2.327  11.827   4.199
83397SOL     OW52087   2.659  13.456  13.240
83397SOL    HW152088   2.753  13.457  13.225
83397SOL    HW252089   2.641  13.370  13.277
83398SOL     OW52090  13.115   1.792   3.654
83398SOL    HW152091  13.024   1.785   3.684
83398SOL    HW252092  13.110   1.781   3.559
83399SOL     OW52093   5.180  14.360  12.834
83399SOL    HW152094   5.200  14.385  12.924
83399SOL    HW252095   5.151  14.441  12.792
83400SOL     OW52096   9.494   9.495   7.487
83400SOL    HW152097   9.559   9.508   7.418
83400SOL    HW252098   9.522   9.552   7.558
83401SOL     OW52099  11.769   1.822   1.756
83401SOL    HW152100  11.748   1.915   1.763
83401SOL    HW252101  11.731   1.782   1.834
83402SOL     OW52102  12.380   6.965  10.730
83402SOL    HW152103  12.387   7.051  10.687
83402SOL    HW252104  12.340   6.984  10.815
83403SOL     OW52105   4.409  13.304   7.580
83403SOL    HW152106   4.401  13.341   7.492
83403SOL    HW252107   4.330  13.251   7.591
83404SOL     OW52108   4.737   8.471  14.286
83404SOL    HW152109   4.804   8.412  14.317
83404SOL    HW252110   4.775   8.512  14.208
83405SOL     OW52111   7.951  10.847   6.081
83405SOL    HW152112   7.876  10.884   6.035
83405SOL    HW252113   8.011  10.922   6.092
83406SOL     OW52114   5.753  13.715   9.899
83406SOL    HW152115   5.846  13.697   9.909
83406SOL    HW252116   5.718  13.637   9.856
83407SOL     OW52117   6.578  10.877   3.731
83407SOL    HW152118   6.535  10.792   3.731
83407SOL    HW252119   6.632  10.876   3.810
83408SOL     OW52120   4.821   8.206  12.036
83408SOL    HW152121   4.908   8.246  12.032
83408SOL    HW252122   4.783   8.239  12.118
83409SOL     OW52123   7.413   2.902  14.870
83409SOL    HW152124   7.344   2.899   0.058
83409SOL    HW252125   7.399   2.824  14.816
83410SOL     OW52126   8.590  14.836  11.263
83410SOL    HW152127   8.664  14.838  11.324
83410SOL    HW252128   8.622  14.782  11.190
83411SOL     OW52129   3.101   8.366   1.788
83411SOL    HW152130   3.065   8.365   1.876
83411SOL    HW252131   3.192   8.392   1.799
83412SOL     OW52132   2.759   7.930  10.925
83412SOL    HW152133   2.825   7.877  10.971
83412SOL    HW252134   2.762   8.015  10.969
83413SOL     OW52135   6.329   9.050   4.164
83413SOL    HW152136   6.322   9.011   4.077
83413SOL    HW252137   6.357   8.977   4.220
83414SOL     OW52138   6.415  14.133   5.811
83414SOL    HW152139   6.493  14.082   5.789
83414SOL    HW252140   6.422  14.147   5.905
83415SOL     OW52141   7.015  14.268   0.769
83415SOL    HW152142   7.048  14.341   0.717
83415SOL    HW252143   6.984  14.308   0.850
83416SOL     OW52144   3.804   9.854   5.685
83416SOL    HW152145   3.820   9.821   5.597
83416SOL    HW252146   3.841   9.789   5.743
83417SOL     OW52147   1.334   6.961   0.000
83417SOL    HW152148   1.328   6.997  14.790
83417SOL    HW252149   1.316   7.035   0.058
83418SOL     OW52150   2.651   8.424   9.097
83418SOL    HW152151   2.588   8.495   9.097
83418SOL    HW252152   2.627   8.370   9.172
83419SOL     OW52153   9.711  12.980   8.144
83419SOL    HW152154   9.654  13.045   8.186
83419SOL    HW252155   9.650  12.921   8.098
83420SOL     OW52156   0.944   7.326  12.524
83420SOL    HW152157   0.935   7.269  12.447
83420SOL    HW252158   0.944   7.266  12.599
83421SOL     OW52159  14.605  11.130   1.938
83421SOL    HW152160  14.594  11.053   1.883
83421SOL    HW252161  14.681  11.110   1.993
83422SOL     OW52162   5.022  12.981   7.486
83422SOL    HW152163   5.099  12.926   7.497
83422SOL    HW252164   4.957  12.923   7.446
83423SOL     OW52165   9.423   7.951  12.288
83423SOL    HW152166   9.343   7.997  12.260
83423SOL    HW252167   9.493   8.014  12.272
83424SOL     OW52168   4.025   0.646   6.810
83424SOL    HW152169   3.982   0.586   6.871
83424SOL    HW252170   4.052   0.720   6.865
83425SOL     OW52171  14.790   9.501  11.035
83425SOL    HW152172  14.775   9.426  11.092
83425SOL    HW252173   0.005   9.497  11.013
83426SOL     OW52174  12.972   0.068  13.212
83426SOL    HW152175  13.029   0.070  13.289
83426SOL    HW252176  12.926  14.861  13.217
83427SOL     OW52177   1.685   2.273   0.623
83427SOL    HW152178   1.759   2.304   0.571
83427SOL    HW252179   1.608   2.308   0.578
83428SOL     OW52180  14.124   0.865  12.088
83428SOL    HW152181  14.129   0.881  12.182
83428SOL    HW252182  14.093   0.774  12.081
83429SOL     OW52183   0.414   5.092   4.351
83429SOL    HW152184   0.336   5.147   4.344
83429SOL    HW252185   0.414   5.062   4.442
83430SOL     OW52186  13.891   5.547   1.747
83430SOL    HW152187  13.824   5.530   1.813
83430SOL    HW252188  13.862   5.626   1.702
83431SOL     OW52189   6.754   7.763   7.683
83431SOL    HW152190   6.793   7.766   7.770
83431SOL    HW252191   6.692   7.836   7.682
83432SOL     OW52192   1.813   7.046   2.728
83432SOL    HW152193   1.818   6.956   2.761
83432SOL    HW252194   1.775   7.038   2.640
83433SOL     OW52195   1.122   3.431   5.659
83433SOL    HW152196   1.118   3.347   5.613
83433SOL    HW252197   1.092   3.411   5.748
83434SOL     OW52198   3.807   4.945   2.092
83434SOL    HW152199   3.726   4.938   2.143
83434SOL    HW252200   3.791   5.019   2.033
83435SOL     OW52201  14.552   6.325   6.982
83435SOL    HW152202  14.505   6.265   6.925
83435SOL    HW252203  14.528   6.413   6.950
83436SOL     OW52204   5.857   0.753  13.721
83436SOL    HW152205   5.824   0.740  13.632
83436SOL    HW252206   5.779   0.769  13.773
83437SOL     OW52207   0.329   6.322  11.761
83437SOL    HW152208   0.371   6.328  11.847
83437SOL    HW252209   0.240   6.294  11.780
83438SOL     OW52210  10.435   9.276   5.326
83438SOL    HW152211  10.383   9.356   5.325
83438SOL    HW252212  10.464   9.268   5.417
83439SOL     OW52213   4.621   9.521   5.479
83439SOL    HW152214   4.529   9.509   5.454
83439SOL    HW252215   4.626   9.483   5.567
83440SOL     OW52216  13.591  11.178   8.467
83440SOL    HW152217  13.637  11.262   8.471
83440SOL    HW252218  13.661  11.113   8.455
83441SOL     OW52219   7.466   7.856   7.993
83441SOL    HW152220   7.441   7.931   7.940
83441SOL    HW252221   7.559   7.842   7.974
83442SOL     OW52222  14.132   6.170   8.577
83442SOL    HW152223  14.152   6.182   8.670
83442SOL    HW252224  14.039   6.191   8.570
83443SOL     OW52225   9.722   4.528   2.812
83443SOL    HW152226   9.735   4.580   2.733
83443SOL    HW252227   9.628   4.529   2.827
83444SOL     OW52228   5.128  13.367   9.293
83444SOL    HW152229   5.060  13.434   9.293
83444SOL    HW252230   5.105  13.308   9.222
83445SOL     OW52231  12.212  10.638   9.843
83445SOL    HW152232  12.125  10.672   9.823
83445SOL    HW252233  12.248  10.614   9.757
83446SOL     OW52234   1.654   9.921  11.178
83446SOL    HW152235   1.699   9.871  11.246
83446SOL    HW252236   1.672  10.012  11.199
83447SOL     OW52237  11.285   9.427   2.941
83447SOL    HW152238  11.349   9.370   2.899
83447SOL    HW252239  11.315   9.516   2.922
83448SOL     OW52240   7.296   6.038  11.222
83448SOL    HW152241   7.382   6.029  11.182
83448SOL    HW252242   7.265   6.124  11.193
83449SOL     OW52243   7.876  11.392   6.042
83449SOL    HW152244   7.935  11.433   6.106
83449SOL    HW252245   7.932  11.371   5.967
83450SOL     OW52246  12.855  14.222   5.383
83450SOL    HW152247  12.805  14.208   5.464
83450SOL    HW252248  12.803  14.179   5.315
83451SOL     OW52249  14.301   4.415  10.161
83451SOL    HW152250  14.224   4.463  10.131
83451SOL    HW252251  14.320   4.453  10.247
83452SOL     OW52252   6.728   3.831   8.339
83452SOL    HW152253   6.659   3.873   8.390
83452SOL    HW252254   6.729   3.878   8.256
83453SOL     OW52255   0.492  12.068   4.921
83453SOL    HW152256   0.401  12.090   4.901
83453SOL    HW252257   0.511  11.991   4.867
83454SOL     OW52258  10.842  13.090  11.829
83454SOL    HW152259  10.798  13.166  11.791
83454SOL    HW252260  10.772  13.038  11.868
83455SOL     OW52261   8.432  12.259  11.763
83455SOL    HW152262   8.373  12.271  11.837
83455SOL    HW252263   8.374  12.251  11.687
83456SOL     OW52264   6.284  11.772   2.545
83456SOL    HW152265   6.284  11.707   2.475
83456SOL    HW252266   6.301  11.722   2.625
83457SOL     OW52267   2.263  14.645   8.727
83457SOL    HW152268   2.329  14.669   8.793
83457SOL    HW252269   2.182  14.635   8.777
83458SOL     OW52270   5.857  14.627   6.266
83458SOL    HW152271   5.768  14.595   6.283
83458SOL    HW252272   5.905  14.549   6.237
83459SOL     OW52273   0.446  12.278  11.661
83459SOL    HW152274   0.358  12.247  11.682
83459SOL    HW252275   0.496  12.199  11.642
83460SOL     OW52276   1.185  13.300  14.201
83460SOL    HW152277   1.259  13.279  14.258
83460SOL    HW252278   1.182  13.395  14.199
83461SOL     OW52279  10.142   1.148   6.538
83461SOL    HW152280  10.199   1.206   6.589
83461SOL    HW252281  10.076   1.206   6.500
83462SOL     OW52282  12.998   1.360  13.639
83462SOL    HW152283  12.985   1.266  13.624
83462SOL    HW252284  13.055   1.388  13.568
83463SOL     OW52285  10.236   5.466   2.003
83463SOL    HW152286  10.194   5.531   2.059
83463SOL    HW252287  10.324   5.457   2.039
83464SOL     OW52288   2.305  12.287   2.854
83464SOL    HW152289   2.302  12.310   2.947
83464SOL    HW252290   2.355  12.357   2.813
83465SOL     OW52291   5.334   9.572  12.687
83465SOL    HW152292   5.368   9.488  12.717
83465SOL    HW252293   5.239   9.563  12.694
83466SOL     OW52294   9.892  14.039   0.956
83466SOL    HW152295   9.928  14.127   0.950
83466SOL    HW252296   9.866  14.031   1.048
83467SOL     OW52297  13.451  11.521  12.364
83467SOL    HW152298  13.372  11.569  12.340
83467SOL    HW252299  13.453  11.522  12.459
83468SOL     OW52300  12.424   1.684   4.248
83468SOL    HW152301  12.438   1.686   4.153
83468SOL    HW252302  12.373   1.605   4.263
83469SOL     OW52303  12.156   7.338  13.378
83469SOL    HW152304  12.141   7.421  13.333
83469SOL    HW252305  12.245   7.313  13.353
83470SOL     OW52306  14.272   9.115   5.196
83470SOL    HW152307  14.223   9.054   5.252
83470SOL    HW252308  14.211   9.134   5.124
83471SOL     OW52309   9.472   2.018   8.148
83471SOL    HW152310   9.380   2.040   8.132
83471SOL    HW252311   9.469   1.951   8.216
83472SOL     OW52312  14.192   3.811  11.727
83472SOL    HW152313  14.273   3.771  11.694
83472SOL    HW252314  14.145   3.739  11.769
83473SOL     OW52315  12.847   3.225   9.989
83473SOL    HW152316  12.928   3.188  10.026
83473SOL    HW252317  12.785   3.224  10.062
83474SOL     OW52318  10.958   2.432  12.912
83474SOL    HW152319  10.938   2.452  13.004
83474SOL    HW252320  10.992   2.342  12.914
83475SOL     OW52321   2.367   2.901  10.828
83475SOL    HW152322   2.281   2.887  10.788
83475SOL    HW252323   2.370   2.839  10.900
83476SOL     OW52324  14.299  14.258   4.060
83476SOL    HW152325  14.288  14.204   4.138
83476SOL    HW252326  14.392  14.256   4.041
83477SOL     OW52327  10.649  13.935   0.733
83477SOL    HW152328  10.665  13.869   0.665
83477SOL    HW252329  10.562  13.969   0.714
83478SOL     OW52330  11.611  13.369   1.347
83478SOL    HW152331  11.570  13.337   1.427
83478SOL    HW252332  11.540  13.368   1.282
83479SOL     OW52333   7.150   5.744   6.269
83479SOL    HW152334   7.114   5.825   6.305
83479SOL    HW252335   7.243   5.746   6.294
83480SOL     OW52336  12.115   5.721   3.649
83480SOL    HW152337  12.177   5.786   3.614
83480SOL    HW252338  12.133   5.720   3.743
83481SOL     OW52339   6.075   6.533   3.580
83481SOL    HW152340   6.086   6.581   3.497
83481SOL    HW252341   6.131   6.579   3.642
83482SOL     OW52342   0.872  12.919  11.467
83482SOL    HW152343   0.951  12.957  11.430
83482SOL    HW252344   0.853  12.843  11.412
83483SOL     OW52345   8.791   4.880  14.044
83483SOL    HW152346   8.849   4.918  13.978
83483SOL    HW252347   8.809   4.931  14.124
83484SOL     OW52348   5.749   3.602  14.512
83484SOL    HW152349   5.720   3.668  14.575
83484SOL    HW252350   5.704   3.522  14.538
83485SOL     OW52351   0.655   8.739   6.947
83485SOL    HW152352   0.561   8.726   6.942
83485SOL    HW252353   0.669   8.826   6.909
83486SOL     OW52354  11.301   1.636   1.379
83486SOL    HW152355  11.234   1.702   1.396
83486SOL    HW252356  11.317   1.596   1.464
83487SOL     OW52357  14.146  10.581  12.796
83487SOL    HW152358  14.149  10.672  12.824
83487SOL    HW252359  14.195  10.579  12.714
83488SOL     OW52360  14.542  11.663  10.814
83488SOL    HW152361  14.560  11.634  10.725
83488SOL    HW252362  14.457  11.626  10.835
83489SOL     OW52363  11.379   1.155  13.972
83489SOL    HW152364  11.401   1.199  14.053
83489SOL    HW252365  11.315   1.088  13.997
83490SOL     OW52366   0.539  13.643   9.806
83490SOL    HW152367   0.595  13.632   9.729
83490SOL    HW252368   0.575  13.719   9.852
83491SOL     OW52369   1.168   7.468  12.752
83491SOL    HW152370   1.179   7.491  12.844
83491SOL    HW252371   1.096   7.523  12.721
83492SOL     OW52372   4.441   0.297   9.567
83492SOL    HW152373   4.502   0.268   9.500
83492SOL    HW252374   4.355   0.280   9.530
83493SOL     OW52375   7.322   0.800   2.613
83493SOL    HW152376   7.329   0.791   2.518
83493SOL    HW252377   7.408   0.831   2.640
83494SOL     OW52378   7.243   0.139  13.869
83494SOL    HW152379   7.309   0.179  13.927
83494SOL    HW252380   7.258   0.045  13.876
83495SOL     OW52381   8.536   5.653   0.934
83495SOL    HW152382   8.599   5.718   0.966
83495SOL    HW252383   8.521   5.677   0.843
83496SOL     OW52384   5.175  14.233   7.583
83496SOL    HW152385   5.255  14.201   7.542
83496SOL    HW252386   5.174  14.327   7.565
83497SOL     OW52387  14.389  13.460   2.534
83497SOL    HW152388  14.440  13.521   2.479
83497SOL    HW252389  14.304  13.502   2.543
83498SOL     OW52390  12.884   9.455   1.243
83498SOL    HW152391  12.906   9.365   1.219
83498SOL    HW252392  12.918   9.465   1.332
83499SOL     OW52393   9.554  10.456   5.559
83499SOL    HW152394   9.522  10.367   5.568
83499SOL    HW252395   9.519  10.502   5.635
83500SOL     OW52396   7.563   3.718   2.079
83500SOL    HW152397   7.537   3.733   2.170
83500SOL    HW252398   7.657   3.702   2.084
83501SOL     OW52399  11.464   3.651   8.175
83501SOL    HW152400  11.512   3.636   8.256
83501SOL    HW252401  11.372   3.658   8.203
83502SOL     OW52402  13.081  13.179  12.682
83502SOL    HW152403  13.005  13.199  12.738
83502SOL    HW252404  13.047  13.188  12.593
83503SOL     OW52405  10.106   9.629   8.291
83503SOL    HW152406  10.156   9.605   8.213
83503SOL    HW252407  10.155   9.701   8.330
83504SOL     OW52408   9.798  12.272   6.338
83504SOL    HW152409   9.753  12.294   6.420
83504SOL    HW252410   9.832  12.184   6.352
83505SOL     OW52411  14.235   2.210   7.530
83505SOL    HW152412  14.233   2.125   7.576
83505SOL    HW252413  14.326   2.220   7.503
83506SOL     OW52414  10.051  11.689   5.062
83506SOL    HW152415  10.034  11.617   5.122
83506SOL    HW252416  10.139  11.718   5.083
83507SOL     OW52417   3.192   8.994  10.318
83507SOL    HW152418   3.184   8.990  10.413
83507SOL    HW252419   3.109   9.031  10.287
83508SOL     OW52420   3.573   6.187   8.030
83508SOL    HW152421   3.595   6.278   8.008
83508SOL    HW252422   3.619   6.171   8.113
83509SOL     OW52423  13.688   2.596   2.915
83509SOL    HW152424  13.759   2.625   2.971
83509SOL    HW252425  13.619   2.662   2.926
83510SOL     OW52426   0.920  11.729   2.491
83510SOL    HW152427   0.836  11.701   2.527
83510SOL    HW252428   0.939  11.811   2.537
83511SOL     OW52429  13.476  11.373  13.974
83511SOL    HW152430  13.495  11.280  13.971
83511SOL    HW252431  13.538  11.408  14.038
83512SOL     OW52432   2.825  14.225   6.994
83512SOL    HW152433   2.770  14.295   7.029
83512SOL    HW252434   2.871  14.264   6.920
83513SOL     OW52435   0.860   2.735   0.116
83513SOL    HW152436   0.829   2.704   0.201
83513SOL    HW252437   0.795   2.702   0.054
83514SOL     OW52438  13.990   4.813  10.004
83514SOL    HW152439  14.057   4.875   9.976
83514SOL    HW252440  14.030   4.727   9.989
83515SOL     OW52441  13.900  12.214  11.473
83515SOL    HW152442  13.973  12.201  11.412
83515SOL    HW252443  13.886  12.127  11.511
83516SOL     OW52444   5.565  10.861   7.429
83516SOL    HW152445   5.484  10.817   7.455
83516SOL    HW252446   5.632  10.793   7.433
83517SOL     OW52447  10.407   2.405   7.963
83517SOL    HW152448  10.359   2.487   7.953
83517SOL    HW252449  10.429   2.401   8.056
83518SOL     OW52450  12.250   7.653   1.901
83518SOL    HW152451  12.199   7.702   1.965
83518SOL    HW252452  12.279   7.718   1.838
83519SOL     OW52453  11.833  14.241   5.514
83519SOL    HW152454  11.854  14.278   5.429
83519SOL    HW252455  11.819  14.148   5.497
83520SOL     OW52456  13.146   0.671   4.920
83520SOL    HW152457  13.066   0.623   4.901
83520SOL    HW252458  13.215   0.622   4.876
83521SOL     OW52459   6.449   8.492  12.619
83521SOL    HW152460   6.514   8.513  12.552
83521SOL    HW252461   6.392   8.569  12.622
83522SOL     OW52462   2.804   7.674   0.539
83522SOL    HW152463   2.877   7.640   0.591
83522SOL    HW252464   2.786   7.606   0.475
83523SOL     OW52465   7.432   5.539  13.678
83523SOL    HW152466   7.464   5.629  13.674
83523SOL    HW252467   7.498   5.492  13.728
83524SOL     OW52468  14.673  11.178   0.151
83524SOL    HW152469  14.766  11.168   0.135
83524SOL    HW252470  14.631  11.148   0.070
83525SOL     OW52471   7.952   4.999   5.028
83525SOL    HW152472   8.036   4.961   5.002
83525SOL    HW252473   7.964   5.093   5.019
83526SOL     OW52474   3.930  10.724   9.962
83526SOL    HW152475   3.958  10.633   9.978
83526SOL    HW252476   3.893  10.722   9.873
83527SOL     OW52477  14.592   6.576   5.011
83527SOL    HW152478  14.577   6.667   4.984
83527SOL    HW252479  14.603   6.581   5.106
83528SOL     OW52480   8.765  10.323   1.419
83528SOL    HW152481   8.784  10.400   1.472
83528SOL    HW252482   8.722  10.262   1.479
83529SOL     OW52483   8.783   1.228   8.143
83529SOL    HW152484   8.754   1.174   8.069
83529SOL    HW252485   8.710   1.288   8.159
83530SOL     OW52486   0.763  11.777   0.136
83530SOL    HW152487   0.744  11.696   0.089
83530SOL    HW252488   0.790  11.749   0.223
83531SOL     OW52489  10.890   7.975  13.436
83531SOL    HW152490  10.900   8.040  13.506
83531SOL    HW252491  10.838   7.905  13.476
83532SOL     OW52492  11.769   9.271   2.466
83532SOL    HW152493  11.717   9.193   2.485
83532SOL    HW252494  11.731   9.305   2.385
83533SOL     OW52495  10.061  12.616   0.879
83533SOL    HW152496  10.061  12.704   0.917
83533SOL    HW252497  10.032  12.559   0.950
83534SOL     OW52498   4.941  13.520   1.784
83534SOL    HW152499   4.988  13.501   1.703
83534SOL    HW252500   4.848  13.511   1.760
83535SOL     OW52501  10.648   6.578   7.816
83535SOL    HW152502  10.637   6.623   7.900
83535SOL    HW252503  10.711   6.632   7.768
83536SOL     OW52504   5.504   2.152   9.285
83536SOL    HW152505   5.529   2.146   9.193
83536SOL    HW252506   5.571   2.208   9.324
83537SOL     OW52507   5.645   7.116   7.435
83537SOL    HW152508   5.703   7.041   7.417
83537SOL    HW252509   5.557   7.078   7.439
83538SOL     OW52510   0.925   5.937   5.850
83538SOL    HW152511   0.909   6.031   5.847
83538SOL    HW252512   0.838   5.897   5.838
83539SOL     OW52513   1.118   5.192   8.588
83539SOL    HW152514   1.090   5.278   8.556
83539SOL    HW252515   1.179   5.212   8.659
83540SOL     OW52516   0.824   4.970   6.900
83540SOL    HW152517   0.782   4.930   6.824
83540SOL    HW252518   0.917   4.968   6.880
83541SOL     OW52519   9.344   8.866   3.123
83541SOL    HW152520   9.381   8.815   3.051
83541SOL    HW252521   9.273   8.811   3.157
83542SOL     OW52522   4.109  12.057   7.018
83542SOL    HW152523   4.086  12.150   7.007
83542SOL    HW252524   4.190  12.047   6.967
83543SOL     OW52525  13.008   0.113   9.419
83543SOL    HW152526  12.913   0.104   9.418
83543SOL    HW252527  13.027   0.154   9.504
83544SOL     OW52528   5.217  10.023   5.008
83544SOL    HW152529   5.169  10.036   4.926
83544SOL    HW252530   5.297  10.075   4.997
83545SOL     OW52531   9.265  12.967   0.217
83545SOL    HW152532   9.284  12.881   0.179
83545SOL    HW252533   9.326  12.976   0.289
83546SOL     OW52534  14.858   8.828  12.211
83546SOL    HW152535   0.029   8.796  12.135
83546SOL    HW252536   0.002   8.767  12.281
83547SOL     OW52537  11.865  14.729   3.731
83547SOL    HW152538  11.910  14.676   3.666
83547SOL    HW252539  11.931  14.790   3.763
83548SOL     OW52540   2.036  10.936   2.780
83548SOL    HW152541   2.084  10.954   2.699
83548SOL    HW252542   2.066  11.003   2.841
83549SOL     OW52543   8.842   6.267   7.743
83549SOL    HW152544   8.763   6.248   7.794
83549SOL    HW252545   8.831   6.217   7.662
83550SOL     OW52546  10.596  10.759   4.371
83550SOL    HW152547  10.682  10.800   4.360
83550SOL    HW252548  10.597  10.686   4.308
83551SOL     OW52549  10.211   1.553  13.478
83551SOL    HW152550  10.262   1.607  13.418
83551SOL    HW252551  10.268   1.478  13.496
83552SOL     OW52552   6.030   3.491  11.434
83552SOL    HW152553   6.015   3.407  11.476
83552SOL    HW252554   6.061   3.469  11.346
83553SOL     OW52555   5.058   3.060   6.921
83553SOL    HW152556   5.053   3.107   6.838
83553SOL    HW252557   5.141   3.087   6.959
83554SOL     OW52558  12.375   1.780   2.957
83554SOL    HW152559  12.388   1.712   3.023
83554SOL    HW252560  12.391   1.862   3.003
83555SOL     OW52561   8.046  11.061   8.820
83555SOL    HW152562   7.963  11.108   8.815
83555SOL    HW252563   8.068  11.040   8.729
83556SOL     OW52564   1.950   6.106   6.969
83556SOL    HW152565   1.913   6.137   6.886
83556SOL    HW252566   1.924   6.172   7.033
83557SOL     OW52567   7.679   8.703   1.739
83557SOL    HW152568   7.757   8.752   1.767
83557SOL    HW252569   7.669   8.725   1.646
83558SOL     OW52570   6.381   5.225   3.510
83558SOL    HW152571   6.308   5.287   3.510
83558SOL    HW252572   6.373   5.179   3.426
83559SOL     OW52573   8.024  13.781   4.483
83559SOL    HW152574   7.968  13.704   4.479
83559SOL    HW252575   7.969  13.853   4.453
83560SOL     OW52576  12.920  11.797   3.970
83560SOL    HW152577  12.995  11.767   4.022
83560SOL    HW252578  12.953  11.873   3.922
83561SOL     OW52579   8.609   0.632  12.839
83561SOL    HW152580   8.677   0.587  12.889
83561SOL    HW252581   8.540   0.567  12.830
83562SOL     OW52582  10.201   6.730   6.846
83562SOL    HW152583  10.133   6.667   6.823
83562SOL    HW252584  10.191   6.744   6.940
83563SOL     OW52585   2.746   2.136  13.546
83563SOL    HW152586   2.728   2.042  13.539
83563SOL    HW252587   2.769   2.149  13.638
83564SOL     OW52588   7.735   1.402   0.294
83564SOL    HW152589   7.701   1.317   0.324
83564SOL    HW252590   7.793   1.430   0.365
83565SOL     OW52591   4.357   0.918   4.645
83565SOL    HW152592   4.443   0.884   4.621
83565SOL    HW252593   4.346   0.996   4.591
83566SOL     OW52594   2.060   1.866   1.316
83566SOL    HW152595   2.069   1.786   1.265
83566SOL    HW252596   2.019   1.838   1.398
83567SOL     OW52597   1.835   6.497  12.647
83567SOL    HW152598   1.871   6.467  12.731
83567SOL    HW252599   1.879   6.580  12.630
83568SOL     OW52600   5.905   3.266   4.786
83568SOL    HW152601   5.980   3.225   4.829
83568SOL    HW252602   5.896   3.218   4.703
83569SOL     OW52603   5.592  11.763   7.259
83569SOL    HW152604   5.573  11.855   7.238
83569SOL    HW252605   5.688  11.760   7.266
83570SOL     OW52606  12.363   6.818   3.263
83570SOL    HW152607  12.289   6.864   3.302
83570SOL    HW252608  12.393   6.758   3.331
83571SOL     OW52609  11.594   4.143  12.022
83571SOL    HW152610  11.647   4.201  11.968
83571SOL    HW252611  11.643   4.061  12.024
83572SOL     OW52612   8.903   1.870   1.146
83572SOL    HW152613   8.933   1.950   1.104
83572SOL    HW252614   8.809   1.866   1.125
83573SOL     OW52615   8.288   7.436   9.273
83573SOL    HW152616   8.255   7.365   9.218
83573SOL    HW252617   8.210   7.478   9.309
83574SOL     OW52618   4.589  10.478  10.741
83574SOL    HW152619   4.516  10.435  10.696
83574SOL    HW252620   4.564  10.477  10.834
83575SOL     OW52621   1.262  12.772  12.756
83575SOL    HW152622   1.171  12.792  12.778
83575SOL    HW252623   1.258  12.688  12.710
83576SOL     OW52624   7.612  13.608   5.516
83576SOL    HW152625   7.638  13.525   5.556
83576SOL    HW252626   7.692  13.659   5.514
83577SOL     OW52627   2.330   0.017  11.036
83577SOL    HW152628   2.377  14.843  11.102
83577SOL    HW252629   2.344  14.848  10.954
83578SOL     OW52630   7.054   3.114   7.141
83578SOL    HW152631   6.991   3.089   7.073
83578SOL    HW252632   7.116   3.041   7.144
83579SOL     OW52633   6.968   6.553   1.727
83579SOL    HW152634   6.919   6.598   1.658
83579SOL    HW252635   7.037   6.614   1.752
83580SOL     OW52636   9.701   7.472  13.109
83580SOL    HW152637   9.680   7.543  13.048
83580SOL    HW252638   9.789   7.443  13.083
83581SOL     OW52639  13.812   9.361  13.127
83581SOL    HW152640  13.806   9.268  13.104
83581SOL    HW252641  13.794   9.363  13.221
83582SOL     OW52642   5.232   0.797   8.572
83582SOL    HW152643   5.224   0.828   8.482
83582SOL    HW252644   5.165   0.729   8.580
83583SOL     OW52645   3.983   4.953  12.173
83583SOL    HW152646   3.990   4.874  12.226
83583SOL    HW252647   3.943   4.924  12.091
83584SOL     OW52648  13.695   6.244   3.263
83584SOL    HW152649  13.621   6.266   3.206
83584SOL    HW252650  13.656   6.231   3.349
83585SOL     OW52651  12.154   0.603   1.449
83585SOL    HW152652  12.112   0.621   1.365
83585SOL    HW252653  12.127   0.675   1.506
83586SOL     OW52654   0.041   2.340   7.373
83586SOL    HW152655   0.025   2.286   7.451
83586SOL    HW252656  14.850   2.406   7.375
83587SOL     OW52657   7.755   0.662  13.372
83587SOL    HW152658   7.753   0.621  13.285
83587SOL    HW252659   7.830   0.623  13.416
83588SOL     OW52660   5.521   6.575  10.948
83588SOL    HW152661   5.590   6.583  10.881
83588SOL    HW252662   5.485   6.664  10.955
83589SOL     OW52663   2.181  10.726   7.470
83589SOL    HW152664   2.267  10.696   7.442
83589SOL    HW252665   2.124  10.711   7.395
83590SOL     OW52666   1.177   6.846   4.150
83590SOL    HW152667   1.158   6.886   4.235
83590SOL    HW252668   1.157   6.914   4.086
83591SOL     OW52669   2.001  10.047   3.324
83591SOL    HW152670   1.960  10.091   3.399
83591SOL    HW252671   1.997   9.954   3.345
83592SOL     OW52672   5.385   0.528  10.784
83592SOL    HW152673   5.340   0.607  10.814
83592SOL    HW252674   5.365   0.462  10.851
83593SOL     OW52675  12.028  13.310   2.170
83593SOL    HW152676  12.041  13.304   2.264
83593SOL    HW252677  12.066  13.230   2.134
83594SOL     OW52678   2.703   2.604  10.794
83594SOL    HW152679   2.676   2.691  10.765
83594SOL    HW252680   2.623   2.565  10.829
83595SOL     OW52681   6.637  10.015   1.508
83595SOL    HW152682   6.648   9.980   1.419
83595SOL    HW252683   6.584   9.949   1.553
83596SOL     OW52684  12.353   1.804   4.722
83596SOL    HW152685  12.420   1.802   4.790
83596SOL    HW252686  12.401   1.790   4.640
83597SOL     OW52687  13.564  13.211   0.237
83597SOL    HW152688  13.650  13.215   0.278
83597SOL    HW252689  13.581  13.180   0.148
83598SOL     OW52690   8.896   9.606  11.544
83598SOL    HW152691   8.936   9.691  11.527
83598SOL    HW252692   8.966   9.543  11.530
83599SOL     OW52693   5.160   9.808  14.571
83599SOL    HW152694   5.090   9.750  14.542
83599SOL    HW252695   5.189   9.852  14.491
83600SOL     OW52696   7.517   9.678   2.039
83600SOL    HW152697   7.548   9.625   1.965
83600SOL    HW252698   7.433   9.713   2.009
83601SOL     OW52699  14.092   6.938  11.574
83601SOL    HW152700  14.043   6.898  11.646
83601SOL    HW252701  14.178   6.955  11.611
83602SOL     OW52702  12.283   6.781   5.300
83602SOL    HW152703  12.222   6.850   5.322
83602SOL    HW252704  12.368   6.824   5.294
83603SOL     OW52705   0.679   9.654  12.427
83603SOL    HW152706   0.722   9.616  12.349
83603SOL    HW252707   0.618   9.586  12.455
83604SOL     OW52708   6.257  12.622   4.502
83604SOL    HW152709   6.198  12.548   4.517
83604SOL    HW252710   6.334  12.601   4.555
83605SOL     OW52711   9.434   9.809   9.825
83605SOL    HW152712   9.413   9.891   9.781
83605SOL    HW252713   9.519   9.784   9.790
83606SOL     OW52714   1.142   6.695   3.449
83606SOL    HW152715   1.214   6.733   3.399
83606SOL    HW252716   1.184   6.628   3.503
83607SOL     OW52717   6.079  10.356   6.525
83607SOL    HW152718   6.099  10.442   6.564
83607SOL    HW252719   6.050  10.377   6.436
83608SOL     OW52720   2.314   4.202   4.471
83608SOL    HW152721   2.332   4.293   4.446
83608SOL    HW252722   2.279   4.209   4.561
83609SOL     OW52723   2.288   3.109   0.525
83609SOL    HW152724   2.323   3.024   0.552
83609SOL    HW252725   2.268   3.154   0.607
83610SOL     OW52726   5.204   1.582  10.363
83610SOL    HW152727   5.170   1.653  10.309
83610SOL    HW252728   5.299   1.589  10.354
83611SOL     OW52729   4.252   8.220   7.914
83611SOL    HW152730   4.173   8.226   7.968
83611SOL    HW252731   4.218   8.220   7.824
83612SOL     OW52732  11.917  12.000   8.517
83612SOL    HW152733  11.878  11.988   8.604
83612SOL    HW252734  11.945  11.912   8.492
83613SOL     OW52735   1.451  10.254   8.432
83613SOL    HW152736   1.389  10.304   8.380
83613SOL    HW252737   1.422  10.163   8.423
83614SOL     OW52738   6.593  11.335   8.443
83614SOL    HW152739   6.559  11.267   8.502
83614SOL    HW252740   6.688  11.324   8.446
83615SOL     OW52741  14.122  11.116  14.567
83615SOL    HW152742  14.149  11.032  14.530
83615SOL    HW252743  14.147  11.181  14.500
83616SOL     OW52744  10.602   3.284  11.063
83616SOL    HW152745  10.582   3.194  11.038
83616SOL    HW252746  10.690   3.280  11.099
83617SOL     OW52747   4.584   2.603  10.501
83617SOL    HW152748   4.554   2.692  10.518
83617SOL    HW252749   4.593   2.598  10.406
83618SOL     OW52750   1.336   1.106   9.421
83618SOL    HW152751   1.264   1.042   9.416
83618SOL    HW252752   1.296   1.183   9.461
83619SOL     OW52753   3.035   7.231   2.829
83619SOL    HW152754   3.023   7.321   2.798
83619SOL    HW252755   3.130   7.216   2.824
83620SOL     OW52756  13.223   1.075   4.443
83620SOL    HW152757  13.267   1.158   4.426
83620SOL    HW252758  13.156   1.070   4.375
83621SOL     OW52759   3.488  14.237  11.336
83621SOL    HW152760   3.420  14.263  11.398
83621SOL    HW252761   3.524  14.156  11.373
83622SOL     OW52762   5.066   0.484  12.678
83622SOL    HW152763   5.016   0.404  12.695
83622SOL    HW252764   5.001   0.554  12.681
83623SOL     OW52765   0.138  10.288  13.588
83623SOL    HW152766   0.070  10.223  13.607
83623SOL    HW252767   0.214  10.237  13.560
83624SOL     OW52768   4.477   5.005   1.136
83624SOL    HW152769   4.478   5.076   1.071
83624SOL    HW252770   4.568   4.973   1.137
83625SOL     OW52771   4.139   1.310   9.444
83625SOL    HW152772   4.109   1.275   9.528
83625SOL    HW252773   4.111   1.402   9.445
83626SOL     OW52774   1.217   3.990  13.375
83626SOL    HW152775   1.265   3.909  13.359
83626SOL    HW252776   1.223   4.003  13.470
83627SOL     OW52777   4.206  10.930   6.647
83627SOL    HW152778   4.285  10.979   6.623
83627SOL    HW252779   4.230  10.882   6.726
83628SOL     OW52780   8.466   8.449   2.646
83628SOL    HW152781   8.533   8.418   2.586
83628SOL    HW252782   8.403   8.377   2.651
83629SOL     OW52783   7.744   8.389   9.435
83629SOL    HW152784   7.750   8.483   9.452
83629SOL    HW252785   7.743   8.349   9.522
83630SOL     OW52786  12.528  14.658   8.287
83630SOL    HW152787  12.567  14.578   8.323
83630SOL    HW252788  12.584  14.729   8.319
83631SOL     OW52789   3.978   9.120  11.956
83631SOL    HW152790   4.043   9.121  12.027
83631SOL    HW252791   4.030   9.123  11.876
83632SOL     OW52792   3.345   2.729  14.344
83632SOL    HW152793   3.425   2.781  14.335
83632SOL    HW252794   3.372   2.651  14.392
83633SOL     OW52795   2.121   4.277  14.093
83633SOL    HW152796   2.118   4.221  14.015
83633SOL    HW252797   2.083   4.360  14.065
83634SOL     OW52798   7.931   5.261   1.337
83634SOL    HW152799   8.022   5.260   1.366
83634SOL    HW252800   7.882   5.220   1.408
83635SOL     OW52801   5.603   9.839  12.793
83635SOL    HW152802   5.598   9.819  12.700
83635SOL    HW252803   5.579   9.931  12.799
83636SOL     OW52804   3.726   4.546   2.040
83636SOL    HW152805   3.801   4.597   2.008
83636SOL    HW252806   3.651   4.605   2.032
83637SOL     OW52807   6.538   8.209  13.656
83637SOL    HW152808   6.456   8.208  13.608
83637SOL    HW252809   6.552   8.118  13.682
83638SOL     OW52810   9.513  14.530  14.456
83638SOL    HW152811   9.418  14.538  14.465
83638SOL    HW252812   9.527  14.517  14.363
83639SOL     OW52813   7.729   1.126   5.350
83639SOL    HW152814   7.817   1.161   5.336
83639SOL    HW252815   7.673   1.203   5.354
83640SOL     OW52816  13.896   4.700  12.347
83640SOL    HW152817  13.950   4.710  12.426
83640SOL    HW252818  13.863   4.788  12.329
83641SOL     OW52819  13.443  12.084   1.917
83641SOL    HW152820  13.462  12.166   1.873
83641SOL    HW252821  13.365  12.050   1.874
83642SOL     OW52822  10.818   2.982   5.902
83642SOL    HW152823  10.903   2.938   5.908
83642SOL    HW252824  10.798   2.984   5.809
83643SOL     OW52825  12.180  14.716   6.712
83643SOL    HW152826  12.221  14.687   6.793
83643SOL    HW252827  12.176  14.638   6.657
83644SOL     OW52828   0.583   1.143  13.136
83644SOL    HW152829   0.515   1.092  13.092
83644SOL    HW252830   0.644   1.078  13.170
83645SOL     OW52831  11.385  11.216   7.723
83645SOL    HW152832  11.345  11.157   7.660
83645SOL    HW252833  11.386  11.301   7.680
83646SOL     OW52834   9.176  12.112  13.426
83646SOL    HW152835   9.168  12.056  13.503
83646SOL    HW252836   9.169  12.201  13.460
83647SOL     OW52837  11.527  14.026   8.255
83647SOL    HW152838  11.531  14.082   8.178
83647SOL    HW252839  11.434  14.020   8.276
83648SOL     OW52840  13.392   7.575  14.678
83648SOL    HW152841  13.422   7.665  14.672
83648SOL    HW252842  13.390   7.544  14.587
83649SOL     OW52843  14.158   3.258   7.115
83649SOL    HW152844  14.145   3.236   7.207
83649SOL    HW252845  14.225   3.326   7.115
83650SOL     OW52846   8.397   4.031  14.709
83650SOL    HW152847   8.409   3.950  14.660
83650SOL    HW252848   8.327   4.077  14.662
83651SOL     OW52849   4.619   9.788   7.303
83651SOL    HW152850   4.570   9.858   7.347
83651SOL    HW252851   4.692   9.833   7.261
83652SOL     OW52852   5.833   6.773   4.528
83652SOL    HW152853   5.795   6.686   4.519
83652SOL    HW252854   5.758   6.832   4.527
83653SOL     OW52855  14.469  14.773   3.923
83653SOL    HW152856  14.441  14.682   3.932
83653SOL    HW252857  14.544  14.781   3.982
83654SOL     OW52858   4.539  12.221   4.699
83654SOL    HW152859   4.528  12.126   4.702
83654SOL    HW252860   4.593  12.237   4.622
83655SOL     OW52861   3.965  13.929  13.343
83655SOL    HW152862   4.000  13.929  13.254
83655SOL    HW252863   3.905  13.855  13.345
83656SOL     OW52864   8.944   3.433  10.848
83656SOL    HW152865   8.916   3.523  10.859
83656SOL    HW252866   8.988   3.432  10.763
83657SOL     OW52867  13.357   8.917   2.260
83657SOL    HW152868  13.296   8.938   2.331
83657SOL    HW252869  13.324   8.967   2.185
83658SOL     OW52870   3.731  11.772  12.896
83658SOL    HW152871   3.814  11.810  12.866
83658SOL    HW252872   3.714  11.700  12.835
83659SOL     OW52873  10.724  11.564   8.197
83659SOL    HW152874  10.704  11.576   8.104
83659SOL    HW252875  10.774  11.483   8.200
83660SOL     OW52876   8.125  10.831   0.423
83660SOL    HW152877   8.082  10.911   0.392
83660SOL    HW252878   8.197  10.863   0.478
83661SOL     OW52879  12.020   4.550   1.506
83661SOL    HW152880  12.100   4.603   1.496
83661SOL    HW252881  11.955   4.612   1.539
83662SOL     OW52882  14.354   0.905   6.667
83662SOL    HW152883  14.288   0.909   6.736
83662SOL    HW252884  14.336   0.981   6.611
83663SOL     OW52885   4.900  12.638   1.451
83663SOL    HW152886   4.984  12.682   1.466
83663SOL    HW252887   4.924  12.547   1.433
83664SOL     OW52888   0.241   0.094  11.555
83664SOL    HW152889   0.194   0.166  11.514
83664SOL    HW252890   0.173   0.043  11.600
83665SOL     OW52891  14.023   8.833   4.099
83665SOL    HW152892  14.011   8.923   4.067
83665SOL    HW252893  14.073   8.790   4.030
83666SOL     OW52894  12.548   2.630  14.622
83666SOL    HW152895  12.560   2.545  14.580
83666SOL    HW252896  12.629   2.645  14.671
83667SOL     OW52897  11.102   3.377  10.930
83667SOL    HW152898  11.022   3.424  10.904
83667SOL    HW252899  11.169   3.445  10.936
83668SOL     OW52900   9.840  11.208  11.481
83668SOL    HW152901   9.909  11.198  11.546
83668SOL    HW252902   9.773  11.144  11.507
83669SOL     OW52903  12.638   6.946   7.259
83669SOL    HW152904  12.565   6.953   7.322
83669SOL    HW252905  12.685   7.029   7.268
83670SOL     OW52906   7.050   6.008  10.418
83670SOL    HW152907   7.030   5.951  10.343
83670SOL    HW252908   6.987   6.080  10.411
83671SOL     OW52909   9.763   1.660   0.612
83671SOL    HW152910   9.810   1.661   0.529
83671SOL    HW252911   9.676   1.628   0.590
83672SOL     OW52912   0.278   8.454  10.076
83672SOL    HW152913   0.246   8.473   9.988
83672SOL    HW252914   0.236   8.372  10.100
83673SOL     OW52915  14.813   8.473   9.123
83673SOL    HW152916  14.850   8.455   9.037
83673SOL    HW252917  14.726   8.509   9.106
83674SOL     OW52918  13.997   7.401   2.315
83674SOL    HW152919  14.038   7.329   2.267
83674SOL    HW252920  13.910   7.409   2.276
83675SOL     OW52921   7.071  13.791   2.285
83675SOL    HW152922   7.099  13.853   2.352
83675SOL    HW252923   6.986  13.758   2.317
83676SOL     OW52924   5.926   5.164   4.763
83676SOL    HW152925   5.943   5.223   4.689
83676SOL    HW252926   5.979   5.200   4.835
83677SOL     OW52927   5.484   8.054   2.940
83677SOL    HW152928   5.455   8.076   2.851
83677SOL    HW252929   5.470   8.135   2.990
83678SOL     OW52930   0.593   6.304   3.958
83678SOL    HW152931   0.577   6.307   3.863
83678SOL    HW252932   0.686   6.324   3.967
83679SOL     OW52933  13.821   7.727   2.768
83679SOL    HW152934  13.784   7.802   2.814
83679SOL    HW252935  13.829   7.756   2.677
83680SOL     OW52936  12.553   3.952   5.986
83680SOL    HW152937  12.478   3.903   6.020
83680SOL    HW252938  12.592   3.993   6.063
83681SOL     OW52939   2.713  11.197   6.528
83681SOL    HW152940   2.771  11.121   6.536
83681SOL    HW252941   2.686  11.197   6.437
83682SOL     OW52942   8.124  13.497  10.975
83682SOL    HW152943   8.100  13.406  10.996
83682SOL    HW252944   8.078  13.550  11.039
83683SOL     OW52945   4.097   4.147   0.278
83683SOL    HW152946   4.187   4.147   0.245
83683SOL    HW252947   4.044   4.123   0.202
83684SOL     OW52948  14.464  11.840  13.845
83684SOL    HW152949  14.436  11.820  13.934
83684SOL    HW252950  14.501  11.928  13.851
83685SOL     OW52951  14.828  12.218  14.586
83685SOL    HW152952  14.825  12.183  14.497
83685SOL    HW252953  14.764  12.165  14.635
83686SOL     OW52954   6.880  10.294   3.696
83686SOL    HW152955   6.786  10.307   3.707
83686SOL    HW252956   6.888  10.219   3.638
83687SOL     OW52957   4.648   5.168   5.606
83687SOL    HW152958   4.648   5.216   5.524
83687SOL    HW252959   4.686   5.082   5.585
83688SOL     OW52960   3.979   2.559   1.006
83688SOL    HW152961   4.037   2.612   0.952
83688SOL    HW252962   4.005   2.579   1.096
83689SOL     OW52963   3.854  10.883   3.742
83689SOL    HW152964   3.803  10.944   3.796
83689SOL    HW252965   3.875  10.811   3.801
83690SOL     OW52966   1.012   1.430  10.181
83690SOL    HW152967   1.100   1.400  10.157
83690SOL    HW252968   1.011   1.430  10.276
83691SOL     OW52969   3.603   4.759   8.881
83691SOL    HW152970   3.691   4.746   8.915
83691SOL    HW252971   3.605   4.846   8.840
83692SOL     OW52972   7.413   0.649   1.369
83692SOL    HW152973   7.328   0.692   1.377
83692SOL    HW252974   7.424   0.602   1.452
83693SOL     OW52975   2.932   3.889   8.612
83693SOL    HW152976   2.901   3.919   8.697
83693SOL    HW252977   2.886   3.945   8.549
83694SOL     OW52978   2.550  11.309   7.215
83694SOL    HW152979   2.544  11.388   7.161
83694SOL    HW252980   2.625  11.325   7.273
83695SOL     OW52981  11.972  14.459   4.703
83695SOL    HW152982  12.044  14.446   4.765
83695SOL    HW252983  12.014  14.484   4.621
83696SOL     OW52984   9.954  11.772   2.814
83696SOL    HW152985  10.046  11.747   2.819
83696SOL    HW252986   9.953  11.866   2.827
83697SOL     OW52987   1.678   3.161  14.062
83697SOL    HW152988   1.752   3.123  14.110
83697SOL    HW252989   1.708   3.167  13.971
83698SOL     OW52990   3.014  12.297  11.578
83698SOL    HW152991   3.012  12.375  11.522
83698SOL    HW252992   2.929  12.256  11.565
83699SOL     OW52993  11.870   6.208   3.673
83699SOL    HW152994  11.946   6.259   3.699
83699SOL    HW252995  11.795   6.261   3.699
83700SOL     OW52996   9.219   8.662   7.366
83700SOL    HW152997   9.159   8.615   7.424
83700SOL    HW252998   9.164   8.692   7.294
83701SOL     OW52999   2.694  12.538  10.533
83701SOL    HW153000   2.647  12.619  10.548
83701SOL    HW253001   2.627  12.476  10.505
83702SOL     OW53002  13.629   9.581  13.593
83702SOL    HW153003  13.721   9.606  13.589
83702SOL    HW253004  13.619   9.513  13.526
83703SOL     OW53005   8.086   8.900  10.152
83703SOL    HW153006   8.116   8.956  10.080
83703SOL    HW253007   8.080   8.958  10.227
83704SOL     OW53008   1.737   6.120  10.539
83704SOL    HW153009   1.737   6.193  10.602
83704SOL    HW253010   1.649   6.082  10.546
83705SOL     OW53011   1.143  10.521   6.855
83705SOL    HW153012   1.119  10.610   6.831
83705SOL    HW253013   1.222  10.531   6.909
83706SOL     OW53014   3.288   6.508   9.125
83706SOL    HW153015   3.379   6.495   9.153
83706SOL    HW253016   3.278   6.603   9.123
83707SOL     OW53017   5.950   1.732  10.271
83707SOL    HW153018   5.902   1.792  10.328
83707SOL    HW253019   5.958   1.651  10.323
83708SOL     OW53020  10.184   7.943  14.494
83708SOL    HW153021  10.123   7.986  14.553
83708SOL    HW253022  10.197   7.856  14.532
83709SOL     OW53023  11.678  12.567  10.652
83709SOL    HW153024  11.592  12.583  10.613
83709SOL    HW253025  11.676  12.474  10.675
83710SOL     OW53026  14.282  11.809   6.184
83710SOL    HW153027  14.283  11.872   6.112
83710SOL    HW253028  14.212  11.748   6.162
83711SOL     OW53029   0.372   3.823  14.244
83711SOL    HW153030   0.277   3.827  14.250
83711SOL    HW253031   0.391   3.736  14.210
83712SOL     OW53032   1.896   2.921  10.904
83712SOL    HW153033   1.917   2.896  10.994
83712SOL    HW253034   1.849   3.004  10.913
83713SOL     OW53035   0.784  11.134  13.984
83713SOL    HW153036   0.762  11.055  14.033
83713SOL    HW253037   0.879  11.137  13.984
83714SOL     OW53038   8.379  11.867   9.404
83714SOL    HW153039   8.339  11.917   9.334
83714SOL    HW253040   8.391  11.779   9.368
83715SOL     OW53041  13.748   3.590   2.507
83715SOL    HW153042  13.840   3.573   2.487
83715SOL    HW253043  13.701   3.565   2.428
83716SOL     OW53044  13.399   1.022   6.907
83716SOL    HW153045  13.460   0.964   6.951
83716SOL    HW253046  13.384   1.093   6.969
83717SOL     OW53047   0.082   1.415  13.193
83717SOL    HW153048   0.116   1.489  13.243
83717SOL    HW253049   0.143   1.343  13.212
83718SOL     OW53050   4.244   7.894   2.297
83718SOL    HW153051   4.250   7.875   2.391
83718SOL    HW253052   4.335   7.889   2.266
83719SOL     OW53053  12.954   8.286   3.569
83719SOL    HW153054  12.972   8.342   3.494
83719SOL    HW253055  13.010   8.321   3.639
83720SOL     OW53056   3.127   5.131  11.695
83720SOL    HW153057   3.109   5.057  11.638
83720SOL    HW253058   3.181   5.190  11.642
83721SOL     OW53059  12.331   6.986   4.128
83721SOL    HW153060  12.262   6.920   4.135
83721SOL    HW253061  12.285   7.070   4.131
83722SOL     OW53062   9.473  10.483   1.167
83722SOL    HW153063   9.474  10.556   1.105
83722SOL    HW253064   9.553  10.494   1.218
83723SOL     OW53065  13.095   5.605  13.651
83723SOL    HW153066  13.137   5.526  13.686
83723SOL    HW253067  13.164   5.648  13.601
83724SOL     OW53068   3.255   3.847  14.580
83724SOL    HW153069   3.232   3.898  14.658
83724SOL    HW253070   3.240   3.906  14.507
83725SOL     OW53071   2.541  14.733  12.991
83725SOL    HW153072   2.591  14.752  12.912
83725SOL    HW253073   2.495  14.652  12.972
83726SOL     OW53074   3.605   8.486  11.088
83726SOL    HW153075   3.671   8.431  11.130
83726SOL    HW253076   3.522   8.449  11.117
83727SOL     OW53077  11.564   3.084  13.604
83727SOL    HW153078  11.535   2.993  13.609
83727SOL    HW253079  11.598   3.104  13.691
83728SOL     OW53080  12.839  13.179  13.170
83728SOL    HW153081  12.925  13.161  13.209
83728SOL    HW253082  12.793  13.233  13.234
83729SOL     OW53083  10.073   0.284  11.518
83729SOL    HW153084  10.047   0.269  11.427
83729SOL    HW253085  10.038   0.209  11.565
83730SOL     OW53086  11.887  10.726  11.565
83730SOL    HW153087  11.822  10.754  11.501
83730SOL    HW253088  11.959  10.692  11.512
83731SOL     OW53089  14.157   5.073   8.584
83731SOL    HW153090  14.151   5.035   8.496
83731SOL    HW253091  14.225   5.022   8.627
83732SOL     OW53092  10.898  10.736   4.610
83732SOL    HW153093  10.871  10.778   4.528
83732SOL    HW253094  10.886  10.642   4.594
83733SOL     OW53095  12.677   8.944   3.809
83733SOL    HW153096  12.673   8.855   3.772
83733SOL    HW253097  12.751   8.941   3.869
83734SOL     OW53098   3.943   8.602  13.384
83734SOL    HW153099   3.906   8.619  13.470
83734SOL    HW253100   3.870   8.616  13.323
83735SOL     OW53101   9.791   2.258  12.335
83735SOL    HW153102   9.879   2.219  12.333
83735SOL    HW253103   9.805   2.349  12.359
83736SOL     OW53104  14.644   1.450   5.333
83736SOL    HW153105  14.614   1.523   5.387
83736SOL    HW253106  14.690   1.392   5.395
83737SOL     OW53107   6.994   1.288   2.394
83737SOL    HW153108   7.006   1.308   2.487
83737SOL    HW253109   6.929   1.352   2.364
83738SOL     OW53110  10.147   1.365   3.973
83738SOL    HW153111  10.169   1.455   3.950
83738SOL    HW253112  10.154   1.361   4.068
83739SOL     OW53113   4.847  10.652   7.862
83739SOL    HW153114   4.923  10.645   7.804
83739SOL    HW253115   4.872  10.719   7.925
83740SOL     OW53116   3.402   8.261   0.112
83740SOL    HW153117   3.387   8.248   0.205
83740SOL    HW253118   3.366   8.347   0.093
83741SOL     OW53119   4.490   8.717   1.886
83741SOL    HW153120   4.525   8.720   1.975
83741SOL    HW253121   4.503   8.806   1.853
83742SOL     OW53122   0.596   9.776   0.671
83742SOL    HW153123   0.597   9.775   0.575
83742SOL    HW253124   0.688   9.782   0.696
83743SOL     OW53125   4.616  12.616   9.385
83743SOL    HW153126   4.676  12.684   9.353
83743SOL    HW253127   4.544  12.665   9.426
83744SOL     OW53128   9.315   1.988  13.916
83744SOL    HW153129   9.226   1.953  13.927
83744SOL    HW253130   9.302   2.081  13.897
83745SOL     OW53131   6.208  13.076   9.519
83745SOL    HW153132   6.274  13.086   9.588
83745SOL    HW253133   6.251  13.021   9.453
83746SOL     OW53134   0.416  14.425   9.216
83746SOL    HW153135   0.373  14.453   9.297
83746SOL    HW253136   0.479  14.359   9.244
83747SOL     OW53137   8.135   0.038  10.413
83747SOL    HW153138   8.171  14.843  10.464
83747SOL    HW253139   8.203   0.059  10.350
83748SOL     OW53140   6.100  13.178  14.666
83748SOL    HW153141   6.029  13.222  14.712
83748SOL    HW253142   6.159  13.148  14.736
83749SOL     OW53143  14.206   6.383   4.717
83749SOL    HW153144  14.148   6.458   4.700
83749SOL    HW253145  14.286   6.423   4.752
83750SOL     OW53146   8.110  13.869   2.012
83750SOL    HW153147   8.039  13.927   1.983
83750SOL    HW253148   8.081  13.836   2.097
83751SOL     OW53149   7.242   7.110   4.347
83751SOL    HW153150   7.188   7.173   4.394
83751SOL    HW253151   7.304   7.164   4.297
83752SOL     OW53152   8.493  12.632  14.809
83752SOL    HW153153   8.492  12.562  14.874
83752SOL    HW253154   8.404  12.634  14.774
83753SOL     OW53155   8.837  11.559   9.258
83753SOL    HW153156   8.889  11.584   9.335
83753SOL    HW253157   8.749  11.545   9.293
83754SOL     OW53158   8.376   4.217   1.682
83754SOL    HW153159   8.289   4.199   1.718
83754SOL    HW253160   8.359   4.258   1.598
83755SOL     OW53161  14.215  12.130  12.256
83755SOL    HW153162  14.190  12.165  12.170
83755SOL    HW253163  14.135  12.088  12.288
83756SOL     OW53164   9.528   4.311   6.563
83756SOL    HW153165   9.434   4.297   6.578
83756SOL    HW253166   9.552   4.381   6.623
83757SOL     OW53167  11.091   3.100  14.843
83757SOL    HW153168  11.061   3.081  14.754
83757SOL    HW253169  11.182   3.070  14.844
83758SOL     OW53170  11.939   3.043   6.908
83758SOL    HW153171  11.867   3.025   6.848
83758SOL    HW253172  11.965   3.133   6.890
83759SOL     OW53173   7.953   0.896   8.367
83759SOL    HW153174   7.993   0.958   8.429
83759SOL    HW253175   7.961   0.811   8.411
83760SOL     OW53176   0.131   5.379   5.382
83760SOL    HW153177   0.106   5.333   5.462
83760SOL    HW253178   0.214   5.422   5.404
83761SOL     OW53179   1.705  10.007   2.888
83761SOL    HW153180   1.638   9.942   2.913
83761SOL    HW253181   1.757  10.018   2.967
83762SOL     OW53182  11.534  13.477  11.189
83762SOL    HW153183  11.605  13.413  11.197
83762SOL    HW253184  11.468  13.433  11.135
83763SOL     OW53185  12.538   9.242   0.186
83763SOL    HW153186  12.536   9.297   0.107
83763SOL    HW253187  12.542   9.153   0.152
83764SOL     OW53188   2.595   9.564   5.018
83764SOL    HW153189   2.613   9.556   5.112
83764SOL    HW253190   2.601   9.658   5.001
83765SOL     OW53191   2.197   3.425  11.719
83765SOL    HW153192   2.231   3.502  11.673
83765SOL    HW253193   2.175   3.457  11.807
83766SOL     OW53194   5.540   9.876  10.069
83766SOL    HW153195   5.544   9.824  10.149
83766SOL    HW253196   5.588   9.957  10.091
83767SOL     OW53197   1.124   6.779   8.688
83767SOL    HW153198   1.122   6.846   8.756
83767SOL    HW253199   1.091   6.823   8.610
83768SOL     OW53200  14.777  14.617   6.679
83768SOL    HW153201  14.696  14.630   6.630
83768SOL    HW253202  14.773  14.681   6.751
83769SOL     OW53203   7.253   0.876  12.605
83769SOL    HW153204   7.339   0.916  12.594
83769SOL    HW253205   7.194   0.950  12.621
83770SOL     OW53206   8.580   3.674   7.557
83770SOL    HW153207   8.638   3.601   7.581
83770SOL    HW253208   8.514   3.635   7.501
83771SOL     OW53209  10.323  11.492  13.006
83771SOL    HW153210  10.253  11.527  13.061
83771SOL    HW253211  10.327  11.399  13.028
83772SOL     OW53212  10.246  14.604   8.706
83772SOL    HW153213  10.217  14.654   8.629
83772SOL    HW253214  10.215  14.656   8.780
83773SOL     OW53215   7.890   2.875   9.699
83773SOL    HW153216   7.984   2.864   9.711
83773SOL    HW253217   7.861   2.920   9.778
83774SOL     OW53218  14.224  11.074   0.828
83774SOL    HW153219  14.306  11.034   0.799
83774SOL    HW253220  14.187  11.010   0.888
83775SOL     OW53221   4.608   9.776   2.847
83775SOL    HW153222   4.580   9.827   2.923
83775SOL    HW253223   4.620   9.687   2.881
83776SOL     OW53224   1.439  13.459   3.809
83776SOL    HW153225   1.487  13.522   3.756
83776SOL    HW253226   1.361  13.506   3.839
83777SOL     OW53227   7.089  10.791   6.716
83777SOL    HW153228   7.039  10.734   6.774
83777SOL    HW253229   7.029  10.864   6.697
83778SOL     OW53230   3.112  11.544  10.933
83778SOL    HW153231   3.030  11.569  10.975
83778SOL    HW253232   3.149  11.626  10.900
83779SOL     OW53233  11.699   6.255   7.689
83779SOL    HW153234  11.788   6.287   7.675
83779SOL    HW253235  11.653   6.277   7.608
83780SOL     OW53236  10.507  11.551  10.058
83780SOL    HW153237  10.582  11.597  10.020
83780SOL    HW253238  10.538  11.520  10.143
83781SOL     OW53239   0.765  10.041   1.323
83781SOL    HW153240   0.732  10.130   1.310
83781SOL    HW253241   0.726   9.991   1.252
83782SOL     OW53242  14.794   3.853   4.208
83782SOL    HW153243  14.865   3.915   4.218
83782SOL    HW253244  14.781   3.817   4.296
83783SOL     OW53245  14.462  10.003  12.867
83783SOL    HW153246  14.474   9.941  12.939
83783SOL    HW253247  14.383  10.052  12.891
83784SOL     OW53248   4.832  14.011   4.503
83784SOL    HW153249   4.790  14.004   4.589
83784SOL    HW253250   4.760  14.016   4.441
83785SOL     OW53251   5.994   0.876   3.997
83785SOL    HW153252   5.917   0.930   4.014
83785SOL    HW253253   6.037   0.869   4.083
83786SOL     OW53254   8.527   3.375   9.550
83786SOL    HW153255   8.440   3.411   9.566
83786SOL    HW253256   8.520   3.334   9.464
83787SOL     OW53257   2.146  10.862  10.395
83787SOL    HW153258   2.182  10.810  10.467
83787SOL    HW253259   2.184  10.823  10.316
83788SOL     OW53260  12.383  12.367  13.647
83788SOL    HW153261  12.387  12.442  13.706
83788SOL    HW253262  12.320  12.392  13.580
83789SOL     OW53263  13.806  10.850   2.813
83789SOL    HW153264  13.825  10.905   2.889
83789SOL    HW253265  13.736  10.897   2.767
83790SOL     OW53266  11.213  13.943  13.048
83790SOL    HW153267  11.143  13.994  13.088
83790SOL    HW253268  11.169  13.865  13.014
83791SOL     OW53269   1.596   1.988  11.465
83791SOL    HW153270   1.684   1.953  11.479
83791SOL    HW253271   1.538   1.919  11.497
83792SOL     OW53272   3.590   3.240  10.402
83792SOL    HW153273   3.639   3.295  10.463
83792SOL    HW253274   3.624   3.152  10.417
83793SOL     OW53275   5.196   0.494   2.306
83793SOL    HW153276   5.170   0.581   2.277
83793SOL    HW253277   5.262   0.467   2.242
83794SOL     OW53278   5.400   9.833   0.105
83794SOL    HW153279   5.431   9.747   0.077
83794SOL    HW253280   5.480   9.881   0.129
83795SOL     OW53281   6.106   0.419   9.876
83795SOL    HW153282   6.149   0.494   9.834
83795SOL    HW253283   6.150   0.411   9.961
83796SOL     OW53284  11.662   7.453   0.523
83796SOL    HW153285  11.670   7.543   0.554
83796SOL    HW253286  11.632   7.462   0.432
83797SOL     OW53287   7.682   9.834   0.573
83797SOL    HW153288   7.746   9.767   0.549
83797SOL    HW253289   7.620   9.835   0.500
83798SOL     OW53290   9.994   1.009   6.726
83798SOL    HW153291  10.046   1.061   6.664
83798SOL    HW253292   9.994   0.921   6.688
83799SOL     OW53293   3.602   8.119   8.003
83799SOL    HW153294   3.548   8.054   8.049
83799SOL    HW253295   3.662   8.067   7.950
83800SOL     OW53296  10.696  11.686   9.676
83800SOL    HW153297  10.790  11.671   9.677
83800SOL    HW253298  10.682  11.751   9.607
83801SOL     OW53299   9.218   0.372   6.659
83801SOL    HW153300   9.176   0.400   6.740
83801SOL    HW253301   9.238   0.454   6.613
83802SOL     OW53302  13.489   3.567   8.853
83802SOL    HW153303  13.539   3.648   8.851
83802SOL    HW253304  13.462   3.558   8.945
83803SOL     OW53305   4.292  14.499   7.230
83803SOL    HW153306   4.211  14.543   7.204
83803SOL    HW253307   4.360  14.547   7.183
83804SOL     OW53308   4.827   3.156  13.856
83804SOL    HW153309   4.850   3.072  13.896
83804SOL    HW253310   4.859   3.221  13.919
83805SOL     OW53311  10.150   6.107  10.636
83805SOL    HW153312  10.149   6.203  10.636
83805SOL    HW253313  10.196   6.084  10.555
83806SOL     OW53314   4.560  13.009  11.584
83806SOL    HW153315   4.556  13.092  11.633
83806SOL    HW253316   4.476  13.004  11.539
83807SOL     OW53317  14.622   1.659   6.341
83807SOL    HW153318  14.687   1.625   6.403
83807SOL    HW253319  14.570   1.582   6.317
83808SOL     OW53320   5.792   4.425   3.335
83808SOL    HW153321   5.765   4.408   3.244
83808SOL    HW253322   5.774   4.343   3.381
83809SOL     OW53323   8.720   1.614   7.254
83809SOL    HW153324   8.646   1.610   7.194
83809SOL    HW253325   8.740   1.707   7.263
83810SOL     OW53326  11.088   1.737   5.837
83810SOL    HW153327  11.095   1.779   5.752
83810SOL    HW253328  10.995   1.716   5.845
83811SOL     OW53329   3.620   6.158   7.515
83811SOL    HW153330   3.606   6.206   7.434
83811SOL    HW253331   3.715   6.142   7.517
83812SOL     OW53332   9.182   9.515   7.066
83812SOL    HW153333   9.137   9.576   7.124
83812SOL    HW253334   9.116   9.450   7.043
83813SOL     OW53335   7.787   5.378  12.737
83813SOL    HW153336   7.702   5.348  12.703
83813SOL    HW253337   7.807   5.455  12.684
83814SOL     OW53338  11.667   3.550   9.243
83814SOL    HW153339  11.695   3.641   9.251
83814SOL    HW253340  11.717   3.516   9.169
83815SOL     OW53341   8.543  10.845   7.200
83815SOL    HW153342   8.532  10.785   7.127
83815SOL    HW253343   8.474  10.910   7.188
83816SOL     OW53344  14.533  14.224  10.454
83816SOL    HW153345  14.560  14.139  10.420
83816SOL    HW253346  14.613  14.276  10.455
83817SOL     OW53347   3.028   4.701  13.460
83817SOL    HW153348   3.036   4.797  13.460
83817SOL    HW253349   2.935   4.685  13.442
83818SOL     OW53350   3.653   4.368   5.483
83818SOL    HW153351   3.676   4.444   5.429
83818SOL    HW253352   3.699   4.295   5.442
83819SOL     OW53353   2.233  12.619   5.455
83819SOL    HW153354   2.217  12.534   5.413
83819SOL    HW253355   2.322  12.612   5.490
83820SOL     OW53356   7.297   9.117  13.928
83820SOL    HW153357   7.344   9.105  13.846
83820SOL    HW253358   7.330   9.048  13.985
83821SOL     OW53359   2.101  10.622  10.801
83821SOL    HW153360   2.011  10.656  10.809
83821SOL    HW253361   2.123  10.634  10.708
83822SOL     OW53362  11.474  10.805   4.119
83822SOL    HW153363  11.414  10.741   4.157
83822SOL    HW253364  11.457  10.802   4.025
83823SOL     OW53365  12.309   9.458   0.337
83823SOL    HW153366  12.375   9.471   0.405
83823SOL    HW253367  12.232   9.426   0.384
83824SOL     OW53368  10.054   2.385   5.298
83824SOL    HW153369  10.137   2.377   5.344
83824SOL    HW253370  10.020   2.296   5.293
83825SOL     OW53371   8.455   7.181   1.519
83825SOL    HW153372   8.516   7.214   1.453
83825SOL    HW253373   8.438   7.256   1.576
83826SOL     OW53374  13.488  14.833  14.469
83826SOL    HW153375  13.412  14.778  14.488
83826SOL    HW253376  13.458   0.044  14.487
83827SOL     OW53377   4.250   5.919   6.513
83827SOL    HW153378   4.245   5.935   6.608
83827SOL    HW253379   4.343   5.908   6.496
83828SOL     OW53380   4.494  12.842  10.758
83828SOL    HW153381   4.415  12.828  10.706
83828SOL    HW253382   4.524  12.754  10.780
83829SOL     OW53383   3.964   7.645   3.299
83829SOL    HW153384   3.876   7.652   3.264
83829SOL    HW253385   3.970   7.557   3.335
83830SOL     OW53386  10.400   2.008   6.899
83830SOL    HW153387  10.458   1.956   6.843
83830SOL    HW253388  10.321   2.021   6.846
83831SOL     OW53389   4.544   3.782  10.103
83831SOL    HW153390   4.554   3.690  10.076
83831SOL    HW253391   4.504   3.825  10.027
83832SOL     OW53392   3.615   4.445   5.844
83832SOL    HW153393   3.573   4.373   5.797
83832SOL    HW253394   3.543   4.491   5.886
83833SOL     OW53395   5.001   3.836   8.409
83833SOL    HW153396   5.040   3.910   8.363
83833SOL    HW253397   5.026   3.759   8.358
83834SOL     OW53398   5.842   7.268  11.500
83834SOL    HW153399   5.864   7.191  11.448
83834SOL    HW253400   5.890   7.255  11.582
83835SOL     OW53401   0.936   1.094   6.024
83835SOL    HW153402   0.917   1.087   6.118
83835SOL    HW253403   1.031   1.086   6.018
83836SOL     OW53404   5.178   0.477   1.853
83836SOL    HW153405   5.273   0.474   1.843
83836SOL    HW253406   5.149   0.388   1.835
83837SOL     OW53407  13.813   7.288   4.807
83837SOL    HW153408  13.822   7.238   4.726
83837SOL    HW253409  13.751   7.238   4.860
83838SOL     OW53410   7.965   6.567   2.609
83838SOL    HW153411   7.897   6.568   2.676
83838SOL    HW253412   7.978   6.474   2.589
83839SOL     OW53413  10.699   0.268  11.305
83839SOL    HW153414  10.669   0.178  11.321
83839SOL    HW253415  10.622   0.322  11.320
83840SOL     OW53416   2.528  13.292  11.174
83840SOL    HW153417   2.570  13.361  11.226
83840SOL    HW253418   2.435  13.309  11.181
83841SOL     OW53419   8.879  10.229   3.969
83841SOL    HW153420   8.844  10.166   4.032
83841SOL    HW253421   8.972  10.205   3.961
83842SOL     OW53422  14.244   0.842   4.590
83842SOL    HW153423  14.270   0.840   4.682
83842SOL    HW253424  14.322   0.874   4.544
83843SOL     OW53425   2.844   2.714   9.410
83843SOL    HW153426   2.915   2.761   9.454
83843SOL    HW253427   2.772   2.715   9.473
83844SOL     OW53428   1.353   3.710  11.163
83844SOL    HW153429   1.294   3.751  11.226
83844SOL    HW253430   1.424   3.774  11.152
83845SOL     OW53431   7.364   4.569   8.865
83845SOL    HW153432   7.347   4.653   8.823
83845SOL    HW253433   7.408   4.517   8.798
83846SOL     OW53434   1.850   5.685  11.146
83846SOL    HW153435   1.855   5.605  11.093
83846SOL    HW253436   1.911   5.745  11.103
83847SOL     OW53437   2.749   7.758   6.789
83847SOL    HW153438   2.843   7.754   6.771
83847SOL    HW253439   2.720   7.667   6.790
83848SOL     OW53440   7.573  12.243   6.853
83848SOL    HW153441   7.544  12.295   6.928
83848SOL    HW253442   7.668  12.238   6.862
83849SOL     OW53443   2.843  11.135   1.704
83849SOL    HW153444   2.896  11.058   1.687
83849SOL    HW253445   2.830  11.135   1.799
83850SOL     OW53446   8.564   3.850  12.482
83850SOL    HW153447   8.545   3.774  12.537
83850SOL    HW253448   8.560   3.817  12.392
83851SOL     OW53449   6.254  10.487   4.926
83851SOL    HW153450   6.200  10.409   4.938
83851SOL    HW253451   6.341  10.452   4.902
83852SOL     OW53452  13.202   5.177   6.625
83852SOL    HW153453  13.107   5.188   6.614
83852SOL    HW253454  13.235   5.160   6.537
83853SOL     OW53455   5.996   6.061  13.588
83853SOL    HW153456   5.928   6.123  13.559
83853SOL    HW253457   6.064   6.117  13.625
83854SOL     OW53458   2.134   0.662   7.889
83854SOL    HW153459   2.047   0.683   7.856
83854SOL    HW253460   2.168   0.745   7.923
83855SOL     OW53461   9.146   9.474   7.800
83855SOL    HW153462   9.173   9.539   7.736
83855SOL    HW253463   9.064   9.439   7.766
83856SOL     OW53464   6.445   6.245  14.721
83856SOL    HW153465   6.361   6.199  14.725
83856SOL    HW253466   6.424   6.336  14.740
83857SOL     OW53467   8.904   9.675   0.197
83857SOL    HW153468   8.884   9.741   0.264
83857SOL    HW253469   8.832   9.682   0.135
83858SOL     OW53470   0.941  11.453  14.032
83858SOL    HW153471   0.997  11.528  14.011
83858SOL    HW253472   0.891  11.438  13.951
83859SOL     OW53473   1.956  14.696  12.238
83859SOL    HW153474   1.907  14.778  12.242
83859SOL    HW253475   1.905  14.641  12.179
83860SOL     OW53476  14.036   2.244  10.916
83860SOL    HW153477  14.081   2.218  10.835
83860SOL    HW253478  13.943   2.234  10.896
83861SOL     OW53479  13.174   0.549  12.285
83861SOL    HW153480  13.109   0.480  12.298
83861SOL    HW253481  13.134   0.627  12.326
83862SOL     OW53482   0.386   9.286   2.593
83862SOL    HW153483   0.388   9.296   2.498
83862SOL    HW253484   0.476   9.298   2.622
83863SOL     OW53485  10.034   5.139   4.751
83863SOL    HW153486  10.043   5.085   4.672
83863SOL    HW253487  10.057   5.081   4.823
83864SOL     OW53488   8.436  11.923  13.408
83864SOL    HW153489   8.469  11.908  13.319
83864SOL    HW253490   8.509  11.898  13.465
83865SOL     OW53491  10.862   6.931   9.821
83865SOL    HW153492  10.852   6.971   9.907
83865SOL    HW253493  10.774   6.932   9.784
83866SOL     OW53494  12.090   0.901  14.602
83866SOL    HW153495  12.105   0.847  14.680
83866SOL    HW253496  12.003   0.876  14.572
83867SOL     OW53497   8.769   2.551  10.717
83867SOL    HW153498   8.763   2.646  10.711
83867SOL    HW253499   8.711   2.527  10.790
83868SOL     OW53500   7.702   3.651  12.768
83868SOL    HW153501   7.765   3.682  12.833
83868SOL    HW253502   7.617   3.666  12.808
83869SOL     OW53503   4.999   0.240  10.404
83869SOL    HW153504   5.079   0.236  10.352
83869SOL    HW253505   4.952   0.159  10.382
83870SOL     OW53506  12.548  10.484   2.870
83870SOL    HW153507  12.572  10.553   2.808
83870SOL    HW253508  12.501  10.530   2.940
83871SOL     OW53509  10.948   2.570  13.959
83871SOL    HW153510  10.939   2.646  13.900
83871SOL    HW253511  10.860   2.533  13.963
83872SOL     OW53512  12.683   4.540   2.537
83872SOL    HW153513  12.756   4.593   2.570
83872SOL    HW253514  12.606   4.576   2.581
83873SOL     OW53515  10.583   8.309  11.651
83873SOL    HW153516  10.594   8.313  11.556
83873SOL    HW253517  10.511   8.370  11.668
83874SOL     OW53518   1.455  12.817  13.583
83874SOL    HW153519   1.427  12.727  13.597
83874SOL    HW253520   1.426  12.838  13.494
83875SOL     OW53521   1.508   9.334  13.581
83875SOL    HW153522   1.458   9.356  13.660
83875SOL    HW253523   1.460   9.376  13.510
83876SOL     OW53524   5.952  11.459  13.726
83876SOL    HW153525   5.885  11.527  13.723
83876SOL    HW253526   5.904  11.380  13.752
83877SOL     OW53527  14.708  10.302  12.808
83877SOL    HW153528  14.641  10.324  12.743
83877SOL    HW253529  14.725  10.209  12.795
83878SOL     OW53530   8.334   8.715   8.498
83878SOL    HW153531   8.347   8.754   8.584
83878SOL    HW253532   8.255   8.758   8.464
83879SOL     OW53533   4.875   1.961   6.575
83879SOL    HW153534   4.886   2.049   6.611
83879SOL    HW253535   4.848   1.976   6.484
83880SOL     OW53536   8.319   8.269   0.915
83880SOL    HW153537   8.332   8.202   0.847
83880SOL    HW253538   8.251   8.231   0.972
83881SOL     OW53539  10.999  14.276  12.081
83881SOL    HW153540  11.089  14.245  12.071
83881SOL    HW253541  10.945  14.198  12.068
83882SOL     OW53542  13.275  14.729  13.565
83882SOL    HW153543  13.247  14.711  13.655
83882SOL    HW253544  13.208  14.789  13.531
83883SOL     OW53545   3.227   4.111   1.996
83883SOL    HW153546   3.307   4.122   1.943
83883SOL    HW253547   3.259   4.104   2.086
83884SOL     OW53548   9.085   5.351   6.840
83884SOL    HW153549   9.140   5.281   6.875
83884SOL    HW253550   9.034   5.381   6.915
83885SOL     OW53551   0.248   7.344   7.370
83885SOL    HW153552   0.191   7.277   7.331
83885SOL    HW253553   0.310   7.295   7.424
83886SOL     OW53554  11.850   8.607  11.623
83886SOL    HW153555  11.755   8.620  11.630
83886SOL    HW253556  11.886   8.695  11.631
83887SOL     OW53557   3.578   1.336  11.050
83887SOL    HW153558   3.623   1.417  11.027
83887SOL    HW253559   3.485   1.357  11.042
83888SOL     OW53560  14.787   2.901   4.599
83888SOL    HW153561  14.877   2.869   4.607
83888SOL    HW253562  14.749   2.847   4.530
83889SOL     OW53563  13.191   4.317   2.190
83889SOL    HW153564  13.248   4.394   2.196
83889SOL    HW253565  13.245   4.251   2.147
83890SOL     OW53566   8.097   0.353   5.199
83890SOL    HW153567   8.159   0.425   5.208
83890SOL    HW253568   8.143   0.277   5.234
83891SOL     OW53569   0.491  13.002   9.726
83891SOL    HW153570   0.415  13.000   9.785
83891SOL    HW253571   0.555  13.058   9.769
83892SOL     OW53572   0.960   6.374   7.222
83892SOL    HW153573   0.973   6.382   7.316
83892SOL    HW253574   0.992   6.456   7.186
83893SOL     OW53575   9.547  12.195   5.315
83893SOL    HW153576   9.570  12.249   5.239
83893SOL    HW253577   9.588  12.239   5.389
83894SOL     OW53578   4.479   0.596   9.422
83894SOL    HW153579   4.505   0.543   9.347
83894SOL    HW253580   4.540   0.669   9.423
83895SOL     OW53581  14.613   7.128   4.529
83895SOL    HW153582  14.534   7.171   4.561
83895SOL    HW253583  14.627   7.164   4.442
83896SOL     OW53584  10.690   3.361  14.676
83896SOL    HW153585  10.681   3.446  14.718
83896SOL    HW253586  10.736   3.307  14.740
83897SOL     OW53587   3.821   8.118   0.025
83897SOL    HW153588   3.914   8.130   0.046
83897SOL    HW253589   3.785   8.073   0.102
83898SOL     OW53590   0.403   1.389   0.297
83898SOL    HW153591   0.406   1.391   0.201
83898SOL    HW253592   0.484   1.345   0.323
83899SOL     OW53593   6.193  13.503   5.697
83899SOL    HW153594   6.153  13.450   5.629
83899SOL    HW253595   6.275  13.457   5.718
83900SOL     OW53596   3.483  12.950   4.778
83900SOL    HW153597   3.389  12.942   4.798
83900SOL    HW253598   3.526  12.893   4.842
83901SOL     OW53599  11.384   7.684  11.057
83901SOL    HW153600  11.395   7.620  11.126
83901SOL    HW253601  11.366   7.633  10.978
83902SOL     OW53602  10.641   1.203  13.492
83902SOL    HW153603  10.603   1.153  13.420
83902SOL    HW253604  10.704   1.142  13.532
83903SOL     OW53605  13.947  11.175   5.330
83903SOL    HW153606  14.038  11.173   5.300
83903SOL    HW253607  13.896  11.156   5.252
83904SOL     OW53608   4.238  12.437   6.279
83904SOL    HW153609   4.286  12.427   6.361
83904SOL    HW253610   4.192  12.521   6.287
83905SOL     OW53611   9.067  10.050   2.722
83905SOL    HW153612   8.976  10.022   2.737
83905SOL    HW253613   9.112   9.970   2.696
83906SOL     OW53614   5.002   4.117  10.255
83906SOL    HW153615   5.050   4.039  10.284
83906SOL    HW253616   5.018   4.181  10.324
83907SOL     OW53617   5.036   5.298  13.750
83907SOL    HW153618   5.033   5.353  13.672
83907SOL    HW253619   4.944   5.287  13.775
83908SOL     OW53620   7.634   1.069   3.541
83908SOL    HW153621   7.693   1.069   3.465
83908SOL    HW253622   7.660   0.992   3.592
83909SOL     OW53623   3.677   7.058   2.169
83909SOL    HW153624   3.728   6.987   2.129
83909SOL    HW253625   3.659   7.028   2.258
83910SOL     OW53626  11.062   2.258   8.806
83910SOL    HW153627  11.030   2.206   8.732
83910SOL    HW253628  11.088   2.341   8.766
83911SOL     OW53629  11.620  11.390  11.416
83911SOL    HW153630  11.603  11.475  11.457
83911SOL    HW253631  11.714  11.377  11.424
83912SOL     OW53632   0.071  13.077  10.695
83912SOL    HW153633   0.080  13.146  10.761
83912SOL    HW253634   0.054  13.125  10.614
83913SOL     OW53635   1.533  10.460  13.755
83913SOL    HW153636   1.616  10.508  13.757
83913SOL    HW253637   1.467  10.527  13.773
83914SOL     OW53638  14.583   1.583   3.888
83914SOL    HW153639  14.517   1.594   3.957
83914SOL    HW253640  14.605   1.672   3.862
83915SOL     OW53641   8.068   9.919   2.316
83915SOL    HW153642   8.102   9.968   2.242
83915SOL    HW253643   8.053   9.985   2.384
83916SOL     OW53644   1.643   3.117   0.197
83916SOL    HW153645   1.584   3.109   0.122
83916SOL    HW253646   1.625   3.040   0.250
83917SOL     OW53647  10.039   9.055  11.409
83917SOL    HW153648  10.044   9.017  11.497
83917SOL    HW253649   9.980   9.130  11.419
83918SOL     OW53650   6.682  11.371  12.644
83918SOL    HW153651   6.657  11.445  12.698
83918SOL    HW253652   6.662  11.398  12.554
83919SOL     OW53653   2.970   7.291   0.434
83919SOL    HW153654   2.929   7.350   0.371
83919SOL    HW253655   3.063   7.311   0.430
83920SOL     OW53656   9.518   9.122   0.472
83920SOL    HW153657   9.516   9.166   0.556
83920SOL    HW253658   9.472   9.181   0.412
83921SOL     OW53659   0.716   5.161  13.511
83921SOL    HW153660   0.673   5.114  13.440
83921SOL    HW253661   0.776   5.222  13.467
83922SOL     OW53662   1.120  14.589   5.297
83922SOL    HW153663   1.164  14.666   5.332
83922SOL    HW253664   1.047  14.573   5.358
83923SOL     OW53665   6.643  12.651   9.162
83923SOL    HW153666   6.664  12.627   9.253
83923SOL    HW253667   6.623  12.745   9.166
83924SOL     OW53668   8.456   1.643   6.809
83924SOL    HW153669   8.407   1.709   6.762
83924SOL    HW253670   8.468   1.572   6.746
83925SOL     OW53671   6.580  14.842   5.089
83925SOL    HW153672   6.611   0.049   5.120
83925SOL    HW253673   6.525  14.862   5.013
83926SOL     OW53674   7.405   5.824   3.080
83926SOL    HW153675   7.359   5.897   3.039
83926SOL    HW253676   7.414   5.850   3.171
83927SOL     OW53677   1.538   8.107  12.083
83927SOL    HW153678   1.545   8.038  12.017
83927SOL    HW253679   1.445   8.128  12.085
83928SOL     OW53680  13.794   8.449   8.073
83928SOL    HW153681  13.804   8.392   8.149
83928SOL    HW253682  13.877   8.443   8.027
83929SOL     OW53683   7.192   0.422   0.670
83929SOL    HW153684   7.250   0.497   0.679
83929SOL    HW253685   7.127   0.432   0.740
83930SOL     OW53686   2.743   8.962   7.634
83930SOL    HW153687   2.663   8.916   7.658
83930SOL    HW253688   2.776   8.915   7.558
83931SOL     OW53689  12.737  11.281  12.488
83931SOL    HW153690  12.795  11.277  12.564
83931SOL    HW253691  12.730  11.374  12.467
83932SOL     OW53692   6.903  13.603  14.441
83932SOL    HW153693   6.959  13.569  14.371
83932SOL    HW253694   6.824  13.549  14.437
83933SOL     OW53695   9.027  13.277   6.371
83933SOL    HW153696   9.061  13.235   6.291
83933SOL    HW253697   9.096  13.264   6.436
83934SOL     OW53698   5.922   5.830   9.379
83934SOL    HW153699   5.837   5.862   9.350
83934SOL    HW253700   5.902   5.772   9.452
83935SOL     OW53701   0.662   6.012   0.752
83935SOL    HW153702   0.580   5.966   0.735
83935SOL    HW253703   0.703   6.021   0.666
83936SOL     OW53704  13.913   6.273  11.907
83936SOL    HW153705  13.956   6.189  11.890
83936SOL    HW253706  13.849   6.282  11.837
83937SOL     OW53707   9.862  10.099   1.781
83937SOL    HW153708   9.946  10.091   1.737
83937SOL    HW253709   9.801  10.125   1.713
83938SOL     OW53710   0.985   4.975  14.511
83938SOL    HW153711   0.953   5.007  14.427
83938SOL    HW253712   0.965   5.046  14.573
83939SOL     OW53713   8.765   1.198   2.307
83939SOL    HW153714   8.809   1.146   2.239
83939SOL    HW253715   8.682   1.153   2.321
83940SOL     OW53716   2.822   1.134   0.414
83940SOL    HW153717   2.816   1.202   0.347
83940SOL    HW253718   2.733   1.103   0.426
83941SOL     OW53719  13.228   3.671   9.387
83941SOL    HW153720  13.239   3.583   9.421
83941SOL    HW253721  13.177   3.717   9.454
83942SOL     OW53722   7.769  14.592   3.190
83942SOL    HW153723   7.837  14.644   3.233
83942SOL    HW253724   7.715  14.655   3.143
83943SOL     OW53725   8.827   2.201   7.491
83943SOL    HW153726   8.911   2.246   7.491
83943SOL    HW253727   8.846   2.112   7.519
83944SOL     OW53728   8.174   1.834   3.912
83944SOL    HW153729   8.207   1.867   3.995
83944SOL    HW253730   8.092   1.790   3.933
83945SOL     OW53731   5.489   7.088   6.117
83945SOL    HW153732   5.444   7.039   6.186
83945SOL    HW253733   5.488   7.179   6.147
83946SOL     OW53734   4.678  13.874  13.088
83946SOL    HW153735   4.661  13.780  13.076
83946SOL    HW253736   4.772  13.879  13.102
83947SOL     OW53737   4.600  12.381   9.524
83947SOL    HW153738   4.696  12.378   9.519
83947SOL    HW253739   4.576  12.456   9.470
83948SOL     OW53740   5.968   9.934  14.328
83948SOL    HW153741   5.875   9.931  14.351
83948SOL    HW253742   5.983   9.852  14.281
83949SOL     OW53743  13.484  13.896   2.005
83949SOL    HW153744  13.549  13.896   2.076
83949SOL    HW253745  13.526  13.946   1.934
83950SOL     OW53746  12.019  10.121  11.342
83950SOL    HW153747  12.057  10.038  11.314
83950SOL    HW253748  11.926  10.113  11.322
83951SOL     OW53749  12.727   3.831   4.334
83951SOL    HW153750  12.754   3.916   4.369
83951SOL    HW253751  12.761   3.830   4.244
83952SOL     OW53752  13.789   9.628   0.979
83952SOL    HW153753  13.711   9.579   1.004
83952SOL    HW253754  13.856   9.601   1.041
83953SOL     OW53755  13.572   9.896   3.645
83953SOL    HW153756  13.564   9.941   3.562
83953SOL    HW253757  13.645   9.939   3.690
83954SOL     OW53758   1.456   5.447   8.675
83954SOL    HW153759   1.487   5.364   8.639
83954SOL    HW253760   1.455   5.507   8.600
83955SOL     OW53761  10.547   1.696   7.521
83955SOL    HW153762  10.574   1.763   7.458
83955SOL    HW253763  10.625   1.641   7.532
83956SOL     OW53764  10.488   0.924  14.128
83956SOL    HW153765  10.428   0.999  14.118
83956SOL    HW253766  10.523   0.910  14.040
83957SOL     OW53767  14.766   2.968   8.494
83957SOL    HW153768  14.681   3.000   8.526
83957SOL    HW253769  14.821   2.968   8.572
83958SOL     OW53770  11.593  13.765  12.658
83958SOL    HW153771  11.505  13.799  12.675
83958SOL    HW253772  11.636  13.764  12.744
83959SOL     OW53773   3.205   3.154   1.198
83959SOL    HW153774   3.290   3.148   1.153
83959SOL    HW253775   3.155   3.218   1.147
83960SOL     OW53776  11.391   3.655   4.349
83960SOL    HW153777  11.424   3.619   4.431
83960SOL    HW253778  11.390   3.749   4.362
83961SOL     OW53779   0.689   0.035  13.083
83961SOL    HW153780   0.680  14.868  12.998
83961SOL    HW253781   0.599   0.047  13.113
83962SOL     OW53782   0.180   1.248   1.073
83962SOL    HW153783   0.196   1.223   0.982
83962SOL    HW253784   0.143   1.170   1.113
83963SOL     OW53785   5.159   9.978   4.228
83963SOL    HW153786   5.165   9.942   4.317
83963SOL    HW253787   5.236   9.943   4.183
83964SOL     OW53788   9.305   6.518  12.361
83964SOL    HW153789   9.225   6.500  12.312
83964SOL    HW253790   9.276   6.566  12.438
83965SOL     OW53791   8.253   9.870   5.723
83965SOL    HW153792   8.176   9.890   5.670
83965SOL    HW253793   8.283   9.956   5.755
83966SOL     OW53794  11.153  14.630  14.385
83966SOL    HW153795  11.167  14.670  14.471
83966SOL    HW253796  11.164  14.536  14.400
83967SOL     OW53797  12.713   5.673   4.684
83967SOL    HW153798  12.695   5.740   4.751
83967SOL    HW253799  12.808   5.677   4.672
83968SOL     OW53800   6.443   9.297   9.854
83968SOL    HW153801   6.440   9.374   9.797
83968SOL    HW253802   6.373   9.240   9.822
83969SOL     OW53803   5.874   3.893   1.635
83969SOL    HW153804   5.967   3.902   1.613
83969SOL    HW253805   5.841   3.982   1.640
83970SOL     OW53806   1.104  10.669   8.660
83970SOL    HW153807   1.127  10.665   8.753
83970SOL    HW253808   1.139  10.588   8.624
83971SOL     OW53809  13.913  13.289   3.791
83971SOL    HW153810  13.964  13.323   3.865
83971SOL    HW253811  13.915  13.360   3.726
83972SOL     OW53812  12.002  11.866   0.216
83972SOL    HW153813  12.057  11.938   0.248
83972SOL    HW253814  12.051  11.787   0.238
83973SOL     OW53815   6.023   0.681   0.935
83973SOL    HW153816   5.940   0.669   0.980
83973SOL    HW253817   5.999   0.718   0.850
83974SOL     OW53818   9.990  12.442   6.188
83974SOL    HW153819  10.019  12.361   6.146
83974SOL    HW253820   9.922  12.415   6.249
83975SOL     OW53821  12.926   0.653  11.719
83975SOL    HW153822  12.833   0.633  11.728
83975SOL    HW253823  12.971   0.582  11.764
83976SOL     OW53824  14.613   6.301   2.834
83976SOL    HW153825  14.665   6.378   2.812
83976SOL    HW253826  14.523   6.325   2.813
83977SOL     OW53827  10.810   5.185   8.129
83977SOL    HW153828  10.761   5.265   8.108
83977SOL    HW253829  10.744   5.125   8.163
83978SOL     OW53830  11.466   8.641  11.133
83978SOL    HW153831  11.553   8.634  11.171
83978SOL    HW253832  11.444   8.552  11.106
83979SOL     OW53833   1.280   4.256  13.269
83979SOL    HW153834   1.223   4.189  13.308
83979SOL    HW253835   1.333   4.288  13.342
83980SOL     OW53836  13.791  13.805   1.373
83980SOL    HW153837  13.810  13.711   1.371
83980SOL    HW253838  13.706  13.813   1.329
83981SOL     OW53839   9.408   5.847   7.190
83981SOL    HW153840   9.395   5.828   7.097
83981SOL    HW253841   9.499   5.877   7.196
83982SOL     OW53842   7.622   1.677   9.615
83982SOL    HW153843   7.665   1.622   9.550
83982SOL    HW253844   7.621   1.764   9.575
83983SOL     OW53845   4.241   7.036   1.064
83983SOL    HW153846   4.307   6.989   1.115
83983SOL    HW253847   4.184   6.968   1.028
83984SOL     OW53848  11.767   4.521   5.552
83984SOL    HW153849  11.739   4.429   5.547
83984SOL    HW253850  11.851   4.518   5.598
83985SOL     OW53851   4.142  10.016   5.181
83985SOL    HW153852   4.195  10.094   5.162
83985SOL    HW253853   4.079  10.046   5.247
83986SOL     OW53854   3.801   7.985  14.659
83986SOL    HW153855   3.821   8.021  14.745
83986SOL    HW253856   3.847   7.901  14.656
83987SOL     OW53857   2.762   2.031  14.089
83987SOL    HW153858   2.683   2.061  14.134
83987SOL    HW253859   2.793   1.956  14.141
83988SOL     OW53860  14.569  14.543   7.368
83988SOL    HW153861  14.595  14.451   7.369
83988SOL    HW253862  14.488  14.545   7.317
83989SOL     OW53863   6.912   5.417   8.761
83989SOL    HW153864   6.842   5.352   8.773
83989SOL    HW253865   6.865   5.500   8.752
83990SOL     OW53866  10.524  10.929   1.875
83990SOL    HW153867  10.555  10.915   1.964
83990SOL    HW253868  10.550  11.019   1.855
83991SOL     OW53869   2.546   7.846  13.366
83991SOL    HW153870   2.500   7.763  13.376
83991SOL    HW253871   2.627   7.824  13.320
83992SOL     OW53872  12.358   4.441   5.925
83992SOL    HW153873  12.367   4.520   5.871
83992SOL    HW253874  12.264   4.421   5.924
83993SOL     OW53875   3.549   2.582   7.083
83993SOL    HW153876   3.538   2.664   7.132
83993SOL    HW253877   3.609   2.604   7.012
83994SOL     OW53878  11.394  13.204   4.415
83994SOL    HW153879  11.316  13.258   4.398
83994SOL    HW253880  11.466  13.267   4.421
83995SOL     OW53881  10.158   0.883  11.606
83995SOL    HW153882  10.143   0.812  11.543
83995SOL    HW253883  10.173   0.960  11.551
83996SOL     OW53884   6.353  10.960  14.647
83996SOL    HW153885   6.421  10.919  14.593
83996SOL    HW253886   6.398  11.029  14.695
83997SOL     OW53887   1.553  11.018   5.242
83997SOL    HW153888   1.527  11.106   5.214
83997SOL    HW253889   1.593  11.031   5.327
83998SOL     OW53890  10.043   6.183   2.172
83998SOL    HW153891  10.026   6.229   2.090
83998SOL    HW253892  10.093   6.245   2.225
83999SOL     OW53893   1.215   4.288   0.259
83999SOL    HW153894   1.272   4.278   0.335
83999SOL    HW253895   1.127   4.291   0.297
84000SOL     OW53896   8.375   9.594   9.758
84000SOL    HW153897   8.362   9.518   9.702
84000SOL    HW253898   8.355   9.563   9.846
84001SOL     OW53899   9.063  12.172   3.130
84001SOL    HW153900   9.106  12.156   3.047
84001SOL    HW253901   8.973  12.142   3.116
84002SOL     OW53902  13.551   5.016  12.142
84002SOL    HW153903  13.500   5.008  12.062
84002SOL    HW253904  13.519   5.097  12.182
84003SOL     OW53905   2.830   4.417  13.956
84003SOL    HW153906   2.750   4.454  13.992
84003SOL    HW253907   2.841   4.334  14.003
84004SOL     OW53908   5.237   3.879   7.520
84004SOL    HW153909   5.180   3.830   7.580
84004SOL    HW253910   5.259   3.959   7.568
84005SOL     OW53911   4.321   5.113   2.289
84005SOL    HW153912   4.238   5.086   2.250
84005SOL    HW253913   4.320   5.075   2.377
84006SOL     OW53914   0.669  12.007   2.044
84006SOL    HW153915   0.657  12.004   2.139
84006SOL    HW253916   0.763  11.998   2.031
84007SOL     OW53917   1.757  14.499   4.527
84007SOL    HW153918   1.788  14.564   4.464
84007SOL    HW253919   1.794  14.528   4.611
84008SOL     OW53920  13.132   5.500   2.903
84008SOL    HW153921  13.219   5.528   2.874
84008SOL    HW253922  13.128   5.525   2.996
84009SOL     OW53923  12.342   0.660   5.839
84009SOL    HW153924  12.311   0.653   5.929
84009SOL    HW253925  12.275   0.712   5.794
84010SOL     OW53926  10.135   5.186   5.955
84010SOL    HW153927  10.144   5.259   6.016
84010SOL    HW253928  10.216   5.186   5.905
84011SOL     OW53929   6.656   1.646  13.768
84011SOL    HW153930   6.702   1.708  13.712
84011SOL    HW253931   6.598   1.700  13.821
84012SOL     OW53932   7.666  14.638  13.449
84012SOL    HW153933   7.699  14.727  13.457
84012SOL    HW253934   7.722  14.598  13.382
84013SOL     OW53935  10.076   9.330   2.090
84013SOL    HW153936  10.027   9.413   2.085
84013SOL    HW253937  10.035   9.283   2.163
84014SOL     OW53938  14.644  12.708   7.332
84014SOL    HW153939  14.723  12.756   7.357
84014SOL    HW253940  14.581  12.727   7.401
84015SOL     OW53941  12.468  10.916   5.421
84015SOL    HW153942  12.480  10.985   5.356
84015SOL    HW253943  12.500  10.836   5.378
84016SOL     OW53944   0.027   1.873   0.471
84016SOL    HW153945  14.814   1.884   0.441
84016SOL    HW253946   0.020   1.816   0.547
84017SOL     OW53947   0.217   4.129   9.880
84017SOL    HW153948   0.221   4.084   9.964
84017SOL    HW253949   0.198   4.060   9.816
84018SOL     OW53950   1.866  13.280  11.589
84018SOL    HW153951   1.806  13.337  11.541
84018SOL    HW253952   1.918  13.237  11.522
84019SOL     OW53953  12.893   8.578   8.817
84019SOL    HW153954  12.869   8.507   8.877
84019SOL    HW253955  12.833   8.567   8.743
84020SOL     OW53956   6.229   2.203  13.066
84020SOL    HW153957   6.203   2.116  13.038
84020SOL    HW253958   6.321   2.210  13.040
84021SOL     OW53959  12.874   5.564  13.786
84021SOL    HW153960  12.952   5.612  13.759
84021SOL    HW253961  12.879   5.481  13.740
84022SOL     OW53962   8.222   0.461   4.056
84022SOL    HW153963   8.193   0.371   4.072
84022SOL    HW253964   8.150   0.501   4.007
84023SOL     OW53965   6.007   5.848   6.493
84023SOL    HW153966   5.934   5.910   6.483
84023SOL    HW253967   6.038   5.863   6.582
84024SOL     OW53968  12.404   1.323   1.503
84024SOL    HW153969  12.459   1.295   1.576
84024SOL    HW253970  12.315   1.318   1.537
84025SOL     OW53971   6.038  13.142  13.510
84025SOL    HW153972   6.022  13.144  13.604
84025SOL    HW253973   5.957  13.175  13.471
84026SOL     OW53974  12.873   5.035   4.892
84026SOL    HW153975  12.939   4.965   4.891
84026SOL    HW253976  12.883   5.075   4.978
84027SOL     OW53977   1.053  13.179   3.356
84027SOL    HW153978   1.048  13.085   3.335
84027SOL    HW253979   1.124  13.212   3.301
84028SOL     OW53980   8.706  10.262  10.134
84028SOL    HW153981   8.739  10.228  10.051
84028SOL    HW253982   8.698  10.185  10.191
84029SOL     OW53983   1.759   0.670  12.208
84029SOL    HW153984   1.853   0.669  12.223
84029SOL    HW253985   1.749   0.694  12.116
84030SOL     OW53986   3.181  12.493   7.837
84030SOL    HW153987   3.180  12.399   7.821
84030SOL    HW253988   3.151  12.503   7.927
84031SOL     OW53989   1.492   5.189   0.870
84031SOL    HW153990   1.432   5.236   0.928
84031SOL    HW253991   1.577   5.230   0.886
84032SOL     OW53992   5.889   1.173   0.411
84032SOL    HW153993   5.984   1.181   0.408
84032SOL    HW253994   5.864   1.145   0.323
84033SOL     OW53995   3.121   8.475   0.623
84033SOL    HW153996   3.047   8.527   0.656
84033SOL    HW253997   3.082   8.393   0.593
84034SOL     OW53998   0.055  14.504  10.371
84034SOL    HW153999   0.146  14.533  10.378
84034SOL    HW254000   0.004  14.585  10.379
84035SOL     OW54001  13.969   5.889   1.106
84035SOL    HW154002  14.023   5.875   1.029
84035SOL    HW254003  13.952   5.983   1.107
84036SOL     OW54004  13.134  11.982   1.990
84036SOL    HW154005  13.139  11.887   1.976
84036SOL    HW254006  13.119  11.992   2.084
84037SOL     OW54007   3.615   7.651   6.387
84037SOL    HW154008   3.544   7.662   6.450
84037SOL    HW254009   3.638   7.740   6.361
84038SOL     OW54010   3.090   5.024   5.015
84038SOL    HW154011   3.099   5.097   5.076
84038SOL    HW254012   3.017   5.050   4.958
84039SOL     OW54013  10.395   1.316  13.853
84039SOL    HW154014  10.321   1.371  13.878
84039SOL    HW254015  10.468   1.377  13.842
84040SOL     OW54016   6.409  11.281  13.317
84040SOL    HW154017   6.374  11.276  13.405
84040SOL    HW254018   6.338  11.252  13.260
84041SOL     OW54019   9.673  12.610   8.960
84041SOL    HW154020   9.579  12.594   8.952
84041SOL    HW254021   9.686  12.625   9.054
84042SOL     OW54022   0.848   3.977  13.448
84042SOL    HW154023   0.824   4.055  13.498
84042SOL    HW254024   0.901   3.925  13.508
84043SOL     OW54025  11.149  10.737   0.683
84043SOL    HW154026  11.145  10.710   0.775
84043SOL    HW254027  11.168  10.656   0.635
84044SOL     OW54028  14.328  10.274  12.838
84044SOL    HW154029  14.254  10.214  12.842
84044SOL    HW254030  14.356  10.285  12.929
84045SOL     OW54031  12.933   3.161   2.022
84045SOL    HW154032  12.968   3.204   2.101
84045SOL    HW254033  12.987   3.196   1.951
84046SOL     OW54034  12.070   9.646  12.164
84046SOL    HW154035  12.124   9.572  12.192
84046SOL    HW254036  12.126   9.722  12.177
84047SOL     OW54037   4.356   8.237   9.219
84047SOL    HW154038   4.270   8.230   9.261
84047SOL    HW254039   4.368   8.331   9.204
84048SOL     OW54040   4.556   6.452  13.316
84048SOL    HW154041   4.632   6.470  13.371
84048SOL    HW254042   4.591   6.454  13.227
84049SOL     OW54043   8.826  13.127  14.874
84049SOL    HW154044   8.871  13.106  14.793
84049SOL    HW254045   8.896  13.157   0.055
84050SOL     OW54046   3.656  10.286   2.692
84050SOL    HW154047   3.724  10.249   2.636
84050SOL    HW254048   3.668  10.381   2.683
84051SOL     OW54049  13.369   8.747   7.939
84051SOL    HW154050  13.348   8.713   7.852
84051SOL    HW254051  13.451   8.703   7.962
84052SOL     OW54052  10.622   1.804   5.383
84052SOL    HW154053  10.672   1.783   5.462
84052SOL    HW254054  10.689   1.812   5.315
84053SOL     OW54055  10.668   3.114   3.289
84053SOL    HW154056  10.657   3.066   3.207
84053SOL    HW254057  10.756   3.090   3.318
84054SOL     OW54058   3.173   0.386   2.016
84054SOL    HW154059   3.267   0.398   2.009
84054SOL    HW254060   3.136   0.462   1.971
84055SOL     OW54061   8.921  12.838  14.687
84055SOL    HW154062   8.908  12.845  14.593
84055SOL    HW254063   8.969  12.918  14.711
84056SOL     OW54064   9.735   7.398   6.397
84056SOL    HW154065   9.702   7.380   6.309
84056SOL    HW254066   9.659   7.433   6.444
84057SOL     OW54067   0.118   0.839   4.340
84057SOL    HW154068   0.033   0.834   4.295
84057SOL    HW254069   0.131   0.752   4.376
84058SOL     OW54070   1.150  11.761   1.422
84058SOL    HW154071   1.165  11.799   1.335
84058SOL    HW254072   1.238  11.741   1.455
84059SOL     OW54073  12.833   6.424   9.764
84059SOL    HW154074  12.802   6.334   9.753
84059SOL    HW254075  12.926   6.415   9.785
84060SOL     OW54076  11.908   9.915  14.646
84060SOL    HW154077  11.815   9.901  14.660
84060SOL    HW254078  11.925  10.002  14.682
84061SOL     OW54079   2.551   9.193  11.986
84061SOL    HW154080   2.485   9.195  12.056
84061SOL    HW254081   2.635   9.191  12.033
84062SOL     OW54082  14.590  12.117   4.874
84062SOL    HW154083  14.682  12.115   4.899
84062SOL    HW254084  14.560  12.205   4.896
84063SOL     OW54085   7.498  14.810   2.849
84063SOL    HW154086   7.429  14.756   2.886
84063SOL    HW254087   7.541  14.849   2.925
84064SOL     OW54088  10.225  10.146   2.522
84064SOL    HW154089  10.267  10.063   2.540
84064SOL    HW254090  10.220  10.151   2.427
84065SOL     OW54091   5.251   9.020   0.419
84065SOL    HW154092   5.183   9.056   0.474
84065SOL    HW254093   5.319   9.087   0.417
84066SOL     OW54094  14.466  12.125   7.402
84066SOL    HW154095  14.521  12.131   7.324
84066SOL    HW254096  14.462  12.215   7.435
84067SOL     OW54097   5.406   4.639   4.700
84067SOL    HW154098   5.446   4.611   4.782
84067SOL    HW254099   5.435   4.575   4.636
84068SOL     OW54100  14.770  14.385  10.626
84068SOL    HW154101  14.798  14.435  10.549
84068SOL    HW254102  14.698  14.435  10.663
84069SOL     OW54103   1.909   8.598  14.767
84069SOL    HW154104   1.938   8.510  14.792
84069SOL    HW254105   1.853   8.584  14.691
84070SOL     OW54106  14.308  13.632   5.946
84070SOL    HW154107  14.279  13.612   5.857
84070SOL    HW254108  14.398  13.600   5.949
84071SOL     OW54109   9.684  12.342   9.806
84071SOL    HW154110   9.756  12.403   9.820
84071SOL    HW254111   9.611  12.380   9.854
84072SOL     OW54112  11.526   0.505   0.084
84072SOL    HW154113  11.431   0.503   0.094
84072SOL    HW254114  11.559   0.447   0.153
84073SOL     OW54115  10.254   2.920   8.944
84073SOL    HW154116  10.165   2.892   8.922
84073SOL    HW254117  10.282   2.859   9.013
84074SOL     OW54118  10.228  13.229   8.273
84074SOL    HW154119  10.133  13.243   8.271
84074SOL    HW254120  10.240  13.151   8.327
84075SOL     OW54121   5.523   6.324   3.576
84075SOL    HW154122   5.593   6.261   3.593
84075SOL    HW254123   5.554   6.373   3.499
84076SOL     OW54124   9.920  13.615   7.904
84076SOL    HW154125   9.927  13.679   7.974
84076SOL    HW254126   9.883  13.537   7.945
84077SOL     OW54127  10.243  14.179   1.470
84077SOL    HW154128  10.312  14.113   1.470
84077SOL    HW254129  10.276  14.249   1.414
84078SOL     OW54130   8.154   9.657   5.914
84078SOL    HW154131   8.176   9.725   5.850
84078SOL    HW254132   8.233   9.604   5.922
84079SOL     OW54133   7.181   5.474  10.804
84079SOL    HW154134   7.216   5.487  10.716
84079SOL    HW254135   7.172   5.379  10.812
84080SOL     OW54136   5.806  14.838   1.110
84080SOL    HW154137   5.862  14.849   1.187
84080SOL    HW254138   5.868  14.820   1.039
84081SOL     OW54139   5.540  14.078   5.661
84081SOL    HW154140   5.488  14.010   5.616
84081SOL    HW254141   5.525  14.157   5.609
84082SOL     OW54142   2.864   7.543  11.014
84082SOL    HW154143   2.805   7.485  11.063
84082SOL    HW254144   2.866   7.506  10.926
84083SOL     OW54145   6.282   1.659   3.751
84083SOL    HW154146   6.291   1.748   3.783
84083SOL    HW254147   6.268   1.606   3.830
84084SOL     OW54148   5.743  12.496  11.075
84084SOL    HW154149   5.663  12.452  11.048
84084SOL    HW254150   5.740  12.580  11.028
84085SOL     OW54151   1.714   5.464  12.498
84085SOL    HW154152   1.680   5.553  12.498
84085SOL    HW254153   1.644   5.411  12.459
84086SOL     OW54154   1.156   1.780  11.457
84086SOL    HW154155   1.117   1.707  11.506
84086SOL    HW254156   1.169   1.745  11.369
84087SOL     OW54157   2.103   5.320   8.362
84087SOL    HW154158   2.069   5.404   8.330
84087SOL    HW254159   2.056   5.305   8.444
84088SOL     OW54160  12.796  12.573   0.717
84088SOL    HW154161  12.782  12.504   0.651
84088SOL    HW254162  12.890  12.568   0.737
84089SOL     OW54163  10.060   1.846  10.175
84089SOL    HW154164   9.999   1.841  10.100
84089SOL    HW254165  10.113   1.766  10.167
84090SOL     OW54166  10.266   7.188   3.597
84090SOL    HW154167  10.288   7.178   3.504
84090SOL    HW254168  10.350   7.181   3.642
84091SOL     OW54169  12.549   4.233   8.963
84091SOL    HW154170  12.558   4.185   8.881
84091SOL    HW254171  12.488   4.181   9.015
84092SOL     OW54172  13.898   4.081   2.627
84092SOL    HW154173  13.975   4.122   2.665
84092SOL    HW254174  13.928   4.042   2.546
84093SOL     OW54175   8.669   2.559   4.954
84093SOL    HW154176   8.656   2.654   4.960
84093SOL    HW254177   8.633   2.536   4.868
84094SOL     OW54178  13.478   0.360   0.834
84094SOL    HW154179  13.420   0.378   0.908
84094SOL    HW254180  13.560   0.405   0.857
84095SOL     OW54181  12.176   6.166   7.406
84095SOL    HW154182  12.118   6.172   7.482
84095SOL    HW254183  12.168   6.251   7.364
84096SOL     OW54184  14.341  10.157  14.306
84096SOL    HW154185  14.384  10.225  14.357
84096SOL    HW254186  14.411  10.096  14.283
84097SOL     OW54187   2.138   2.464  13.644
84097SOL    HW154188   2.227   2.472  13.611
84097SOL    HW254189   2.102   2.552  13.637
84098SOL     OW54190  11.503  14.270  13.650
84098SOL    HW154191  11.417  14.298  13.680
84098SOL    HW254192  11.488  14.232  13.563
84099SOL     OW54193   1.082   1.609   2.815
84099SOL    HW154194   1.087   1.520   2.849
84099SOL    HW254195   1.014   1.652   2.868
84100SOL     OW54196   6.436  12.479   2.516
84100SOL    HW154197   6.429  12.482   2.420
84100SOL    HW254198   6.507  12.417   2.533
84101SOL     OW54199   6.584  10.113   1.795
84101SOL    HW154200   6.589  10.110   1.699
84101SOL    HW254201   6.645  10.182   1.820
84102SOL     OW54202   5.610   5.879   0.305
84102SOL    HW154203   5.601   5.916   0.217
84102SOL    HW254204   5.682   5.927   0.344
84103SOL     OW54205   9.936  14.295  13.688
84103SOL    HW154206  10.009  14.277  13.628
84103SOL    HW254207   9.928  14.216  13.740
84104SOL     OW54208   3.523   8.593   4.361
84104SOL    HW154209   3.461   8.605   4.432
84104SOL    HW254210   3.580   8.669   4.365
84105SOL     OW54211  10.184  11.945   7.583
84105SOL    HW154212  10.269  11.934   7.539
84105SOL    HW254213  10.121  11.903   7.524
84106SOL     OW54214  14.683  10.360  13.618
84106SOL    HW154215  14.681  10.436  13.676
84106SOL    HW254216  14.712  10.288  13.674
84107SOL     OW54217   8.054   5.125   3.259
84107SOL    HW154218   8.031   5.136   3.167
84107SOL    HW254219   8.139   5.168   3.268
84108SOL     OW54220  10.659  12.620   1.614
84108SOL    HW154221  10.597  12.556   1.648
84108SOL    HW254222  10.660  12.604   1.519
84109SOL     OW54223  14.050  11.736  12.277
84109SOL    HW154224  14.007  11.821  12.270
84109SOL    HW254225  14.003  11.680  12.216
84110SOL     OW54226   4.984   9.106  12.954
84110SOL    HW154227   5.043   9.146  12.890
84110SOL    HW254228   5.039   9.049  13.006
84111SOL     OW54229  13.285   7.991  10.776
84111SOL    HW154230  13.224   8.054  10.738
84111SOL    HW254231  13.238   7.955  10.852
84112SOL     OW54232   3.689   3.102   5.162
84112SOL    HW154233   3.770   3.152   5.172
84112SOL    HW254234   3.714   3.012   5.186
84113SOL     OW54235   2.772   7.970   1.985
84113SOL    HW154236   2.756   8.065   1.980
84113SOL    HW254237   2.807   7.947   1.899
84114SOL     OW54238   2.638  14.181  11.577
84114SOL    HW154239   2.654  14.235  11.500
84114SOL    HW254240   2.548  14.149  11.565
84115SOL     OW54241   3.319  14.622  14.224
84115SOL    HW154242   3.381  14.561  14.184
84115SOL    HW254243   3.373  14.683  14.274
84116SOL     OW54244   1.103  14.115   4.034
84116SOL    HW154245   1.054  14.102   4.115
84116SOL    HW254246   1.035  14.116   3.966
84117SOL     OW54247   7.061   9.045  13.219
84117SOL    HW154248   7.107   8.987  13.158
84117SOL    HW254249   6.974   9.005  13.228
84118SOL     OW54250   6.081   5.280  10.406
84118SOL    HW154251   6.018   5.335  10.452
84118SOL    HW254252   6.053   5.190  10.425
84119SOL     OW54253   0.738  11.945   9.581
84119SOL    HW154254   0.757  11.865   9.531
84119SOL    HW254255   0.714  11.914   9.668
84120SOL     OW54256  12.248   3.948   9.212
84120SOL    HW154257  12.252   3.858   9.246
84120SOL    HW254258  12.225   4.001   9.288
84121SOL     OW54259  13.684  10.361  12.687
84121SOL    HW154260  13.759  10.331  12.635
84121SOL    HW254261  13.608  10.324  12.642
84122SOL     OW54262  11.696   0.758  10.087
84122SOL    HW154263  11.642   0.816  10.142
84122SOL    HW254264  11.693   0.798  10.000
84123SOL     OW54265   8.805  10.897  11.283
84123SOL    HW154266   8.737  10.836  11.255
84123SOL    HW254267   8.842  10.858  11.361
84124SOL     OW54268   9.668   2.707   3.414
84124SOL    HW154269   9.591   2.720   3.360
84124SOL    HW254270   9.645   2.742   3.500
84125SOL     OW54271  12.463   1.713   7.244
84125SOL    HW154272  12.483   1.795   7.200
84125SOL    HW254273  12.370   1.721   7.269
84126SOL     OW54274  13.648  14.382   8.185
84126SOL    HW154275  13.612  14.297   8.161
84126SOL    HW254276  13.712  14.401   8.116
84127SOL     OW54277  13.153   8.320  14.410
84127SOL    HW154278  13.179   8.233  14.382
84127SOL    HW254279  13.216   8.379  14.369
84128SOL     OW54280  11.291   4.452   2.670
84128SOL    HW154281  11.345   4.376   2.648
84128SOL    HW254282  11.344   4.504   2.730
84129SOL     OW54283  12.609  12.377   7.272
84129SOL    HW154284  12.605  12.380   7.367
84129SOL    HW254285  12.563  12.297   7.248
84130SOL     OW54286   7.168   3.276  14.583
84130SOL    HW154287   7.175   3.361  14.626
84130SOL    HW254288   7.184   3.212  14.653
84131SOL     OW54289   0.818   1.791   6.437
84131SOL    HW154290   0.883   1.733   6.477
84131SOL    HW254291   0.865   1.873   6.422
84132SOL     OW54292   7.106  13.026   7.376
84132SOL    HW154293   7.091  12.940   7.416
84132SOL    HW254294   7.022  13.048   7.335
84133SOL     OW54295   5.958   4.603   3.640
84133SOL    HW154296   6.035   4.564   3.599
84133SOL    HW254297   5.986   4.691   3.665
84134SOL     OW54298   3.946  11.847   1.164
84134SOL    HW154299   4.033  11.883   1.147
84134SOL    HW254300   3.960  11.782   1.233
84135SOL     OW54301  12.500   5.344  13.221
84135SOL    HW154302  12.525   5.307  13.136
84135SOL    HW254303  12.405   5.348  13.218
84136SOL     OW54304   9.165   0.631  11.768
84136SOL    HW154305   9.190   0.715  11.730
84136SOL    HW254306   9.111   0.654  11.843
84137SOL     OW54307   4.417  14.313   4.166
84137SOL    HW154308   4.491  14.317   4.226
84137SOL    HW254309   4.454  14.334   4.080
84138SOL     OW54310   6.900   3.968   8.038
84138SOL    HW154311   6.938   4.049   8.071
84138SOL    HW254312   6.807   3.973   8.063
84139SOL     OW54313   7.102   4.382  14.137
84139SOL    HW154314   7.077   4.396  14.046
84139SOL    HW254315   7.101   4.287  14.148
84140SOL     OW54316   5.207   3.541   6.212
84140SOL    HW154317   5.115   3.565   6.199
84140SOL    HW254318   5.241   3.609   6.271
84141SOL     OW54319   0.089  13.597   1.649
84141SOL    HW154320   0.073  13.519   1.594
84141SOL    HW254321   0.006  13.644   1.648
84142SOL     OW54322   5.262   3.748  13.579
84142SOL    HW154323   5.288   3.724  13.490
84142SOL    HW254324   5.336   3.798  13.613
84143SOL     OW54325  12.987   0.203   5.253
84143SOL    HW154326  13.073   0.167   5.228
84143SOL    HW254327  12.986   0.196   5.349
84144SOL     OW54328  10.671  13.268   0.255
84144SOL    HW154329  10.746  13.275   0.314
84144SOL    HW254330  10.672  13.350   0.205
84145SOL     OW54331  12.501   8.391   9.827
84145SOL    HW154332  12.558   8.375   9.752
84145SOL    HW254333  12.418   8.421   9.789
84146SOL     OW54334  11.606  13.728  14.741
84146SOL    HW154335  11.620  13.783  14.664
84146SOL    HW254336  11.541  13.775  14.793
84147SOL     OW54337  11.138   3.732  13.354
84147SOL    HW154338  11.131   3.788  13.432
84147SOL    HW254339  11.200   3.664  13.379
84148SOL     OW54340   6.479  10.456   0.161
84148SOL    HW154341   6.533  10.494   0.231
84148SOL    HW254342   6.519  10.489   0.081
84149SOL     OW54343   7.299  12.218   7.250
84149SOL    HW154344   7.354  12.178   7.183
84149SOL    HW254345   7.350  12.209   7.331
84150SOL     OW54346   4.207   8.185   0.755
84150SOL    HW154347   4.124   8.156   0.793
84150SOL    HW254348   4.271   8.175   0.825
84151SOL     OW54349   1.133   1.825  10.335
84151SOL    HW154350   1.038   1.830  10.324
84151SOL    HW254351   1.169   1.876  10.262
84152SOL     OW54352  13.697  10.232  13.813
84152SOL    HW154353  13.757  10.162  13.837
84152SOL    HW254354  13.748  10.289  13.756
84153SOL     OW54355  12.917  11.036  14.357
84153SOL    HW154356  12.822  11.027  14.369
84153SOL    HW254357  12.934  11.128  14.379
84154SOL     OW54358   9.852   3.768  10.803
84154SOL    HW154359   9.850   3.808  10.717
84154SOL    HW254360   9.938   3.791  10.838
84155SOL     OW54361   6.345   3.230   3.930
84155SOL    HW154362   6.432   3.210   3.966
84155SOL    HW254363   6.350   3.322   3.903
84156SOL     OW54364  12.420   4.308   8.347
84156SOL    HW154365  12.400   4.238   8.410
84156SOL    HW254366  12.337   4.323   8.302
84157SOL     OW54367  11.872  11.083  11.457
84157SOL    HW154368  11.850  11.135  11.534
84157SOL    HW254369  11.967  11.092  11.448
84158SOL     OW54370   1.959   8.806  12.959
84158SOL    HW154371   1.954   8.871  13.029
84158SOL    HW254372   1.868   8.780  12.943
84159SOL     OW54373   3.729  10.670   0.231
84159SOL    HW154374   3.686  10.724   0.165
84159SOL    HW254375   3.734  10.583   0.192
84160SOL     OW54376   6.201   4.551  11.908
84160SOL    HW154377   6.283   4.582  11.948
84160SOL    HW254378   6.222   4.543  11.815
84161SOL     OW54379   0.901  12.248  13.993
84161SOL    HW154380   0.945  12.303  14.058
84161SOL    HW254381   0.947  12.266  13.911
84162SOL     OW54382  10.395  14.218  13.607
84162SOL    HW154383  10.473  14.166  13.592
84162SOL    HW254384  10.419  14.278  13.677
84163SOL     OW54385   2.972   1.772   2.951
84163SOL    HW154386   3.034   1.811   3.013
84163SOL    HW254387   3.028   1.728   2.887
84164SOL     OW54388  11.132   2.002   4.566
84164SOL    HW154389  11.115   1.975   4.656
84164SOL    HW254390  11.076   2.078   4.552
84165SOL     OW54391   2.310   4.976   1.073
84165SOL    HW154392   2.334   4.993   1.164
84165SOL    HW254393   2.354   5.045   1.023
84166SOL     OW54394   2.195   2.869   1.093
84166SOL    HW154395   2.162   2.918   1.168
84166SOL    HW254396   2.214   2.935   1.027
84167SOL     OW54397   7.524   8.739   2.955
84167SOL    HW154398   7.603   8.732   2.902
84167SOL    HW254399   7.524   8.830   2.986
84168SOL     OW54400   3.277   6.946  10.157
84168SOL    HW154401   3.194   6.933  10.111
84168SOL    HW254402   3.280   6.874  10.220
84169SOL     OW54403   3.118   4.169  10.508
84169SOL    HW154404   3.209   4.141  10.494
84169SOL    HW254405   3.113   4.188  10.601
84170SOL     OW54406   8.811  12.518  14.357
84170SOL    HW154407   8.760  12.548  14.432
84170SOL    HW254408   8.806  12.422  14.361
84171SOL     OW54409   3.270  13.529  11.692
84171SOL    HW154410   3.267  13.436  11.670
84171SOL    HW254411   3.200  13.540  11.756
84172SOL     OW54412   9.058   1.676  10.903
84172SOL    HW154413   8.971   1.670  10.862
84172SOL    HW254414   9.044   1.648  10.993
84173SOL     OW54415   9.807   8.304   1.396
84173SOL    HW154416   9.763   8.223   1.421
84173SOL    HW254417   9.861   8.327   1.471
84174SOL     OW54418   2.412   9.474   9.327
84174SOL    HW154419   2.342   9.519   9.374
84174SOL    HW254420   2.438   9.403   9.386
84175SOL     OW54421   0.420  10.322  10.542
84175SOL    HW154422   0.468  10.241  10.526
84175SOL    HW254423   0.328  10.299  10.525
84176SOL     OW54424  14.818  13.256  10.514
84176SOL    HW154425   0.018  13.288  10.469
84176SOL    HW254426  14.783  13.332  10.561
84177SOL     OW54427  13.623   9.438  11.011
84177SOL    HW154428  13.551   9.448  10.949
84177SOL    HW254429  13.700   9.469  10.963
84178SOL     OW54430   0.009   8.123   5.132
84178SOL    HW154431   0.032   8.200   5.081
84178SOL    HW254432   0.007   8.153   5.223
84179SOL     OW54433   0.121   2.299   8.308
84179SOL    HW154434   0.128   2.394   8.303
84179SOL    HW254435   0.053   2.277   8.244
84180SOL     OW54436  10.702   3.393  12.154
84180SOL    HW154437  10.764   3.428  12.091
84180SOL    HW254438  10.754   3.377  12.233
84181SOL     OW54439  11.251  14.112  13.936
84181SOL    HW154440  11.212  14.044  13.882
84181SOL    HW254441  11.344  14.108  13.915
84182SOL     OW54442   5.800   5.148   2.947
84182SOL    HW154443   5.727   5.134   2.887
84182SOL    HW254444   5.761   5.197   3.020
84183SOL     OW54445  13.675  10.512  11.952
84183SOL    HW154446  13.608  10.449  11.979
84183SOL    HW254447  13.626  10.588  11.920
84184SOL     OW54448   3.124   9.347   9.078
84184SOL    HW154449   3.212   9.352   9.116
84184SOL    HW254450   3.073   9.409   9.130
84185SOL     OW54451  14.513   1.820   9.124
84185SOL    HW154452  14.457   1.745   9.105
84185SOL    HW254453  14.514   1.826   9.220
84186SOL     OW54454   8.769   0.994   1.135
84186SOL    HW154455   8.728   0.919   1.091
84186SOL    HW254456   8.822   0.954   1.204
84187SOL     OW54457  14.266   5.111   0.524
84187SOL    HW154458  14.308   5.195   0.506
84187SOL    HW254459  14.218   5.125   0.605
84188SOL     OW54460   5.227  14.632  10.113
84188SOL    HW154461   5.169  14.625  10.189
84188SOL    HW254462   5.315  14.635  10.150
84189SOL     OW54463   5.599  14.829  10.992
84189SOL    HW154464   5.688  14.864  10.990
84189SOL    HW254465   5.611  14.734  10.987
84190SOL     OW54466   7.495   1.822   8.419
84190SOL    HW154467   7.575   1.773   8.405
84190SOL    HW254468   7.498   1.848   8.511
84191SOL     OW54469   0.202  11.562   0.951
84191SOL    HW154470   0.209  11.473   0.986
84191SOL    HW254471   0.176  11.550   0.860
84192SOL     OW54472  14.178   2.089   5.901
84192SOL    HW154473  14.159   2.182   5.896
84192SOL    HW254474  14.273   2.083   5.886
84193SOL     OW54475  11.847   1.097   3.875
84193SOL    HW154476  11.840   1.087   3.969
84193SOL    HW254477  11.759   1.076   3.842
84194SOL     OW54478   9.659  11.367   3.970
84194SOL    HW154479   9.712  11.446   3.965
84194SOL    HW254480   9.569  11.398   3.965
84195SOL     OW54481  13.693  11.937  12.226
84195SOL    HW154482  13.664  11.981  12.307
84195SOL    HW254483  13.674  11.844  12.241
84196SOL     OW54484  14.331   3.242   4.646
84196SOL    HW154485  14.382   3.322   4.660
84196SOL    HW254486  14.359   3.183   4.716
84197SOL     OW54487  12.469  12.380   9.056
84197SOL    HW154488  12.375  12.397   9.066
84197SOL    HW254489  12.503  12.381   9.146
84198SOL     OW54490   3.819   4.043   3.522
84198SOL    HW154491   3.774   3.975   3.472
84198SOL    HW254492   3.912   4.025   3.510
84199SOL     OW54493   0.385  10.586   5.772
84199SOL    HW154494   0.312  10.637   5.807
84199SOL    HW254495   0.348  10.539   5.698
84200SOL     OW54496   4.589   9.341   2.128
84200SOL    HW154497   4.682   9.319   2.133
84200SOL    HW254498   4.566   9.325   2.036
84201SOL     OW54499   3.913   7.426  12.383
84201SOL    HW154500   3.930   7.345  12.336
84201SOL    HW254501   3.858   7.400  12.457
84202SOL     OW54502   1.364   8.973   5.105
84202SOL    HW154503   1.361   9.031   5.029
84202SOL    HW254504   1.379   9.032   5.179
84203SOL     OW54505   4.355   1.275   1.658
84203SOL    HW154506   4.399   1.245   1.578
84203SOL    HW254507   4.405   1.352   1.685
84204SOL     OW54508   7.458   2.087   8.882
84204SOL    HW154509   7.514   2.147   8.932
84204SOL    HW254510   7.377   2.135   8.868
84205SOL     OW54511   8.187  12.535   9.530
84205SOL    HW154512   8.110  12.503   9.482
84205SOL    HW254513   8.259  12.527   9.467
84206SOL     OW54514  10.459   2.332  13.985
84206SOL    HW154515  10.367   2.352  14.006
84206SOL    HW254516  10.456   2.245  13.945
84207SOL     OW54517   2.560   0.870  12.425
84207SOL    HW154518   2.545   0.946  12.368
84207SOL    HW254519   2.492   0.877  12.492
84208SOL     OW54520  11.276  13.293   4.675
84208SOL    HW154521  11.358  13.307   4.626
84208SOL    HW254522  11.216  13.256   4.610
84209SOL     OW54523   4.642  11.167  12.487
84209SOL    HW154524   4.684  11.108  12.550
84209SOL    HW254525   4.578  11.215  12.539
84210SOL     OW54526  12.807  13.182   9.008
84210SOL    HW154527  12.842  13.144   9.088
84210SOL    HW254528  12.832  13.274   9.013
84211SOL     OW54529   2.548   6.113  12.251
84211SOL    HW154530   2.592   6.105  12.166
84211SOL    HW254531   2.463   6.071  12.238
84212SOL     OW54532  12.305   0.265   0.343
84212SOL    HW154533  12.213   0.272   0.371
84212SOL    HW254534  12.336   0.186   0.387
84213SOL     OW54535   7.593   0.466  10.156
84213SOL    HW154536   7.570   0.481  10.248
84213SOL    HW254537   7.687   0.448  10.157
84214SOL     OW54538   2.323   1.665  10.494
84214SOL    HW154539   2.264   1.679  10.568
84214SOL    HW254540   2.356   1.753  10.473
84215SOL     OW54541   0.497  10.150  11.621
84215SOL    HW154542   0.542  10.197  11.551
84215SOL    HW254543   0.420  10.113  11.579
84216SOL     OW54544  13.846   2.505  10.392
84216SOL    HW154545  13.760   2.473  10.417
84216SOL    HW254546  13.871   2.565  10.462
84217SOL     OW54547   1.624   1.133   4.929
84217SOL    HW154548   1.701   1.098   4.883
84217SOL    HW254549   1.578   1.184   4.863
84218SOL     OW54550  13.961   3.262  11.702
84218SOL    HW154551  13.903   3.257  11.778
84218SOL    HW254552  13.903   3.253  11.627
84219SOL     OW54553   6.310   5.077   1.265
84219SOL    HW154554   6.315   5.149   1.328
84219SOL    HW254555   6.299   5.119   1.180
84220SOL     OW54556   1.399   4.935   4.943
84220SOL    HW154557   1.482   4.983   4.936
84220SOL    HW254558   1.423   4.843   4.930
84221SOL     OW54559  13.422   4.199  13.844
84221SOL    HW154560  13.394   4.149  13.920
84221SOL    HW254561  13.517   4.204  13.851
84222SOL     OW54562   1.270   6.373   2.908
84222SOL    HW154563   1.197   6.362   2.969
84222SOL    HW254564   1.268   6.466   2.885
84223SOL     OW54565  10.817   1.155   9.637
84223SOL    HW154566  10.759   1.200   9.576
84223SOL    HW254567  10.900   1.202   9.632
84224SOL     OW54568   0.674   3.208  13.077
84224SOL    HW154569   0.721   3.291  13.076
84224SOL    HW254570   0.739   3.143  13.049
84225SOL     OW54571   4.494   7.359   5.324
84225SOL    HW154572   4.525   7.412   5.250
84225SOL    HW254573   4.548   7.389   5.398
84226SOL     OW54574  13.932   3.029  13.807
84226SOL    HW154575  13.873   3.069  13.743
84226SOL    HW254576  13.967   3.103  13.856
84227SOL     OW54577  12.604   5.792   1.237
84227SOL    HW154578  12.636   5.718   1.185
84227SOL    HW254579  12.579   5.754   1.321
84228SOL     OW54580   6.528   1.128   7.182
84228SOL    HW154581   6.488   1.212   7.161
84228SOL    HW254582   6.581   1.107   7.105
84229SOL     OW54583  14.043  10.088  14.253
84229SOL    HW154584  14.132  10.092  14.218
84229SOL    HW254585  14.020   9.995  14.252
84230SOL     OW54586   5.187   6.408   0.238
84230SOL    HW154587   5.126   6.463   0.287
84230SOL    HW254588   5.268   6.460   0.233
84231SOL     OW54589   7.704   9.801   2.821
84231SOL    HW154590   7.666   9.731   2.874
84231SOL    HW254591   7.742   9.862   2.885
84232SOL     OW54592  14.596   9.054   8.399
84232SOL    HW154593  14.538   9.044   8.323
84232SOL    HW254594  14.536   9.055   8.474
84233SOL     OW54595   1.569  10.652   0.232
84233SOL    HW154596   1.661  10.647   0.261
84233SOL    HW254597   1.558  10.744   0.206
84234SOL     OW54598  13.526   9.763  12.248
84234SOL    HW154599  13.571   9.840  12.284
84234SOL    HW254600  13.449   9.798  12.203
84235SOL     OW54601  10.314   7.492  13.012
84235SOL    HW154602  10.251   7.446  12.956
84235SOL    HW254603  10.357   7.555  12.954
84236SOL     OW54604   8.227   1.346   3.322
84236SOL    HW154605   8.158   1.404   3.291
84236SOL    HW254606   8.288   1.404   3.369
84237SOL     OW54607   3.548   1.060  14.742
84237SOL    HW154608   3.549   1.012  14.659
84237SOL    HW254609   3.457   1.056  14.771
84238SOL     OW54610   6.469   1.703   8.912
84238SOL    HW154611   6.379   1.677   8.893
84238SOL    HW254612   6.512   1.705   8.827
84239SOL     OW54613   1.963   7.569  13.537
84239SOL    HW154614   1.897   7.533  13.477
84239SOL    HW254615   2.042   7.519  13.519
84240SOL     OW54616   4.163   2.040  14.453
84240SOL    HW154617   4.238   2.098  14.465
84240SOL    HW254618   4.159   2.024  14.359
84241SOL     OW54619   7.566  14.322  14.009
84241SOL    HW154620   7.577  14.230  13.984
84241SOL    HW254621   7.496  14.321  14.074
84242SOL     OW54622   3.643   2.735   9.196
84242SOL    HW154623   3.731   2.735   9.234
84242SOL    HW254624   3.587   2.704   9.267
84243SOL     OW54625  13.526   4.307   2.479
84243SOL    HW154626  13.479   4.390   2.485
84243SOL    HW254627  13.516   4.281   2.387
84244SOL     OW54628  10.343   9.350   0.987
84244SOL    HW154629  10.389   9.319   1.065
84244SOL    HW254630  10.262   9.300   0.985
84245SOL     OW54631   7.306  14.599   9.278
84245SOL    HW154632   7.371  14.591   9.208
84245SOL    HW254633   7.355  14.634   9.352
84246SOL     OW54634   4.794   3.916   8.587
84246SOL    HW154635   4.862   3.935   8.522
84246SOL    HW254636   4.770   4.002   8.622
84247SOL     OW54637   6.178   5.783   0.462
84247SOL    HW154638   6.243   5.830   0.514
84247SOL    HW254639   6.094   5.806   0.501
84248SOL     OW54640   4.830   5.959   1.721
84248SOL    HW154641   4.907   5.998   1.680
84248SOL    HW254642   4.756   5.997   1.675
84249SOL     OW54643   0.069   5.051   5.139
84249SOL    HW154644   0.085   5.130   5.190
84249SOL    HW254645   0.153   5.030   5.098
84250SOL     OW54646  14.227  14.237   6.704
84250SOL    HW154647  14.203  14.320   6.662
84250SOL    HW254648  14.146  14.187   6.708
84251SOL     OW54649  14.081   7.760   8.774
84251SOL    HW154650  14.146   7.708   8.821
84251SOL    HW254651  14.122   7.845   8.762
84252SOL     OW54652   7.522  10.984   3.051
84252SOL    HW154653   7.610  10.945   3.052
84252SOL    HW254654   7.464  10.909   3.040
84253SOL     OW54655   3.480   2.867   2.183
84253SOL    HW154656   3.530   2.912   2.251
84253SOL    HW254657   3.440   2.792   2.228
84254SOL     OW54658   8.436   8.944   9.835
84254SOL    HW154659   8.505   8.934   9.899
84254SOL    HW254660   8.424   8.856   9.799
84255SOL     OW54661   6.141  13.682  13.330
84255SOL    HW154662   6.122  13.596  13.368
84255SOL    HW254663   6.138  13.668  13.236
84256SOL     OW54664  10.077   0.541   0.849
84256SOL    HW154665  10.027   0.495   0.916
84256SOL    HW254666  10.124   0.471   0.803
84257SOL     OW54667   7.631   4.156  12.447
84257SOL    HW154668   7.619   4.249  12.427
84257SOL    HW254669   7.700   4.154  12.514
84258SOL     OW54670   0.154   3.040  14.197
84258SOL    HW154671   0.127   3.130  14.180
84258SOL    HW254672   0.234   3.049  14.248
84259SOL     OW54673   8.429   2.632  11.605
84259SOL    HW154674   8.353   2.690  11.613
84259SOL    HW254675   8.409   2.559  11.664
84260SOL     OW54676   9.299  11.917  14.553
84260SOL    HW154677   9.342  11.900  14.470
84260SOL    HW254678   9.323  11.843  14.609
84261SOL     OW54679   8.409   8.486  13.626
84261SOL    HW154680   8.484   8.427  13.617
84261SOL    HW254681   8.356   8.446  13.695
84262SOL     OW54682   4.302  11.138   0.794
84262SOL    HW154683   4.268  11.073   0.855
84262SOL    HW254684   4.290  11.222   0.840
84263SOL     OW54685  12.825  13.078  12.250
84263SOL    HW154686  12.755  13.015  12.232
84263SOL    HW254687  12.783  13.163  12.242
84264SOL     OW54688  11.873   7.403   8.790
84264SOL    HW154689  11.941   7.391   8.857
84264SOL    HW254690  11.792   7.374   8.833
84265SOL     OW54691   8.691   9.792  14.856
84265SOL    HW154692   8.687   9.737  14.777
84265SOL    HW254693   8.602   9.823  14.868
84266SOL     OW54694   1.255   3.074  11.432
84266SOL    HW154695   1.242   3.167  11.446
84266SOL    HW254696   1.212   3.056  11.348
84267SOL     OW54697   3.638   7.489   5.137
84267SOL    HW154698   3.602   7.401   5.127
84267SOL    HW254699   3.634   7.527   5.049
84268SOL     OW54700   9.524   4.845   6.920
84268SOL    HW154701   9.473   4.765   6.915
84268SOL    HW254702   9.511   4.877   7.009
84269SOL     OW54703   5.686  12.322  10.082
84269SOL    HW154704   5.715  12.232  10.068
84269SOL    HW254705   5.701  12.337  10.175
84270SOL     OW54706  14.261   6.073  11.307
84270SOL    HW154707  14.292   6.130  11.378
84270SOL    HW254708  14.221   5.999  11.353
84271SOL     OW54709   6.045   5.845   4.623
84271SOL    HW154710   6.072   5.920   4.570
84271SOL    HW254711   6.030   5.881   4.711
84272SOL     OW54712   4.835   6.113   3.992
84272SOL    HW154713   4.752   6.134   3.950
84272SOL    HW254714   4.843   6.177   4.063
84273SOL     OW54715  10.568   2.239  10.102
84273SOL    HW154716  10.564   2.178  10.176
84273SOL    HW254717  10.637   2.204  10.046
84274SOL     OW54718   7.847   9.436  11.303
84274SOL    HW154719   7.788   9.391  11.363
84274SOL    HW254720   7.820   9.407  11.216
84275SOL     OW54721   6.693  11.618   9.090
84275SOL    HW154722   6.616  11.661   9.127
84275SOL    HW254723   6.732  11.684   9.032
84276SOL     OW54724  10.805   7.792   6.992
84276SOL    HW154725  10.837   7.853   6.927
84276SOL    HW254726  10.772   7.718   6.941
84277SOL     OW54727  11.597   6.281   3.065
84277SOL    HW154728  11.507   6.313   3.060
84277SOL    HW254729  11.629   6.286   2.975
84278SOL     OW54730   6.844   2.238   4.759
84278SOL    HW154731   6.818   2.146   4.750
84278SOL    HW254732   6.762   2.286   4.765
84279SOL     OW54733   1.081   6.471  10.917
84279SOL    HW154734   1.002   6.448  10.966
84279SOL    HW254735   1.071   6.425  10.833
84280SOL     OW54736   4.075   0.800   8.180
84280SOL    HW154737   4.096   0.892   8.163
84280SOL    HW254738   4.095   0.755   8.098
84281SOL     OW54739   9.373   2.546  14.342
84281SOL    HW154740   9.457   2.553  14.388
84281SOL    HW254741   9.395   2.550  14.250
84282SOL     OW54742   8.283   4.838  12.934
84282SOL    HW154743   8.242   4.916  12.972
84282SOL    HW254744   8.358   4.820  12.991
84283SOL     OW54745  13.849   7.165   9.766
84283SOL    HW154746  13.925   7.113   9.791
84283SOL    HW254747  13.778   7.131   9.821
84284SOL     OW54748   3.186   5.134   6.826
84284SOL    HW154749   3.220   5.045   6.831
84284SOL    HW254750   3.257   5.189   6.859
84285SOL     OW54751   6.567  11.394   5.944
84285SOL    HW154752   6.472  11.387   5.940
84285SOL    HW254753   6.598  11.349   5.865
84286SOL     OW54754   4.220  14.784   5.486
84286SOL    HW154755   4.306  14.818   5.513
84286SOL    HW254756   4.177  14.758   5.567
84287SOL     OW54757   6.456   6.961   2.668
84287SOL    HW154758   6.388   6.949   2.735
84287SOL    HW254759   6.458   6.878   2.621
84288SOL     OW54760  11.502   7.677  14.200
84288SOL    HW154761  11.570   7.663  14.266
84288SOL    HW254762  11.508   7.770  14.179
84289SOL     OW54763   1.485   0.961   7.236
84289SOL    HW154764   1.579   0.981   7.238
84289SOL    HW254765   1.475   0.901   7.162
84290SOL     OW54766   5.628   1.356   5.671
84290SOL    HW154767   5.579   1.439   5.667
84290SOL    HW254768   5.672   1.358   5.756
84291SOL     OW54769   2.430   2.836   1.799
84291SOL    HW154770   2.481   2.755   1.795
84291SOL    HW254771   2.432   2.862   1.891
84292SOL     OW54772   7.632   9.414  13.068
84292SOL    HW154773   7.665   9.364  13.143
84292SOL    HW254774   7.709   9.428  13.013
84293SOL     OW54775  11.287  11.130   0.496
84293SOL    HW154776  11.368  11.153   0.450
84293SOL    HW254777  11.298  11.039   0.522
84294SOL     OW54778   2.845   2.645   3.352
84294SOL    HW154779   2.757   2.609   3.359
84294SOL    HW254780   2.839   2.713   3.285
84295SOL     OW54781   3.546   0.221  13.782
84295SOL    HW154782   3.532   0.312  13.807
84295SOL    HW254783   3.637   0.218  13.753
84296SOL     OW54784   0.485  12.119   3.987
84296SOL    HW154785   0.479  12.165   3.903
84296SOL    HW254786   0.572  12.141   4.020
84297SOL     OW54787   3.367  13.965  10.445
84297SOL    HW154788   3.434  14.021  10.485
84297SOL    HW254789   3.315  13.933  10.519
84298SOL     OW54790   2.734   8.154   0.423
84298SOL    HW154791   2.638   8.160   0.422
84298SOL    HW254792   2.755   8.094   0.352
84299SOL     OW54793   0.954   5.654   1.411
84299SOL    HW154794   0.968   5.635   1.504
84299SOL    HW254795   0.864   5.687   1.407
84300SOL     OW54796   5.825   1.581  14.401
84300SOL    HW154797   5.749   1.604  14.347
84300SOL    HW254798   5.896   1.636  14.368
84301SOL     OW54799   8.027   1.970  14.802
84301SOL    HW154800   8.055   1.883  14.831
84301SOL    HW254801   8.056   2.029  14.872
84302SOL     OW54802   8.086   2.446   6.111
84302SOL    HW154803   8.157   2.506   6.133
84302SOL    HW254804   8.129   2.368   6.077
84303SOL     OW54805   3.025   2.468   8.552
84303SOL    HW154806   3.118   2.456   8.573
84303SOL    HW254807   3.011   2.562   8.559
84304SOL     OW54808   5.802  11.655   4.243
84304SOL    HW154809   5.898  11.653   4.241
84304SOL    HW254810   5.775  11.643   4.152
84305SOL     OW54811   9.340   4.256   7.621
84305SOL    HW154812   9.353   4.331   7.563
84305SOL    HW254813   9.415   4.259   7.680
84306SOL     OW54814   3.427   6.733   1.432
84306SOL    HW154815   3.372   6.809   1.410
84306SOL    HW254816   3.510   6.751   1.389
84307SOL     OW54817  14.595   1.172   2.462
84307SOL    HW154818  14.568   1.262   2.477
84307SOL    HW254819  14.558   1.150   2.376
84308SOL     OW54820   2.434   4.328   0.409
84308SOL    HW154821   2.381   4.350   0.332
84308SOL    HW254822   2.424   4.404   0.467
84309SOL     OW54823   2.037   3.046  13.966
84309SOL    HW154824   2.106   3.016  13.907
84309SOL    HW254825   1.963   3.067  13.909
84310SOL     OW54826  13.943   1.139  12.417
84310SOL    HW154827  13.872   1.115  12.356
84310SOL    HW254828  13.899   1.149  12.501
84311SOL     OW54829   5.412  11.591  10.543
84311SOL    HW154830   5.326  11.588  10.501
84311SOL    HW254831   5.473  11.606  10.470
84312SOL     OW54832   4.838   9.493   6.165
84312SOL    HW154833   4.922   9.451   6.146
84312SOL    HW254834   4.819   9.470   6.256
84313SOL     OW54835  14.616  13.095   8.504
84313SOL    HW154836  14.568  13.041   8.440
84313SOL    HW254837  14.708  13.075   8.487
84314SOL     OW54838   2.147  11.894   0.739
84314SOL    HW154839   2.111  11.829   0.800
84314SOL    HW254840   2.090  11.889   0.663
84315SOL     OW54841   1.021   5.024   8.775
84315SOL    HW154842   1.065   5.084   8.715
84315SOL    HW254843   0.928   5.047   8.768
84316SOL     OW54844  13.538  11.615   4.426
84316SOL    HW154845  13.546  11.520   4.434
84316SOL    HW254846  13.550  11.648   4.515
84317SOL     OW54847   3.648   9.402   0.762
84317SOL    HW154848   3.698   9.337   0.712
84317SOL    HW254849   3.710   9.434   0.828
84318SOL     OW54850   1.412   1.315   6.808
84318SOL    HW154851   1.491   1.368   6.815
84318SOL    HW254852   1.343   1.371   6.845
84319SOL     OW54853   6.841   9.593  13.786
84319SOL    HW154854   6.791   9.512  13.795
84319SOL    HW254855   6.933   9.565  13.789
84320SOL     OW54856  10.605   4.097   4.826
84320SOL    HW154857  10.549   4.159   4.778
84320SOL    HW254858  10.565   4.012   4.810
84321SOL     OW54859  13.378  14.838   7.915
84321SOL    HW154860  13.396   0.001   7.999
84321SOL    HW254861  13.283  14.836   7.909
84322SOL     OW54862   5.663   6.421   0.632
84322SOL    HW154863   5.732   6.453   0.574
84322SOL    HW254864   5.642   6.495   0.688
84323SOL     OW54865   7.930  10.029   6.160
84323SOL    HW154866   7.983  10.108   6.150
84323SOL    HW254867   7.955   9.993   6.245
84324SOL     OW54868  11.027   8.666  12.287
84324SOL    HW154869  10.960   8.666  12.219
84324SOL    HW254870  11.063   8.755  12.286
84325SOL     OW54871   5.256   5.748  14.021
84325SOL    HW154872   5.177   5.726  13.971
84325SOL    HW254873   5.237   5.833  14.060
84326SOL     OW54874   8.879   8.161   9.622
84326SOL    HW154875   8.844   8.200   9.702
84326SOL    HW254876   8.880   8.067   9.641
84327SOL     OW54877   5.224  14.637   5.001
84327SOL    HW154878   5.293  14.606   4.942
84327SOL    HW254879   5.263  14.632   5.088
84328SOL     OW54880  13.862   2.194   5.846
84328SOL    HW154881  13.772   2.218   5.868
84328SOL    HW254882  13.853   2.112   5.798
84329SOL     OW54883   0.335   4.015  10.845
84329SOL    HW154884   0.363   3.962  10.919
84329SOL    HW254885   0.412   4.068  10.823
84330SOL     OW54886  10.892   6.299   1.512
84330SOL    HW154887  10.906   6.230   1.446
84330SOL    HW254888  10.931   6.264   1.592
84331SOL     OW54889   9.840   0.444   1.202
84331SOL    HW154890   9.872   0.481   1.120
84331SOL    HW254891   9.792   0.515   1.244
84332SOL     OW54892   1.702   2.308   1.471
84332SOL    HW154893   1.708   2.338   1.561
84332SOL    HW254894   1.666   2.220   1.477
84333SOL     OW54895   8.853  14.873   4.811
84333SOL    HW154896   8.933   0.036   4.776
84333SOL    HW254897   8.800  14.855   4.734
84334SOL     OW54898   3.338   5.178   9.779
84334SOL    HW154899   3.432   5.165   9.793
84334SOL    HW254900   3.299   5.160   9.865
84335SOL     OW54901   0.336  13.803   6.403
84335SOL    HW154902   0.328  13.899   6.403
84335SOL    HW254903   0.367  13.782   6.315
84336SOL     OW54904  12.884   5.390  11.448
84336SOL    HW154905  12.916   5.321  11.389
84336SOL    HW254906  12.799   5.414  11.412
84337SOL     OW54907   9.435   3.572   1.319
84337SOL    HW154908   9.477   3.657   1.306
84337SOL    HW254909   9.506   3.509   1.322
84338SOL     OW54910  10.213   1.071   1.828
84338SOL    HW154911  10.128   1.096   1.864
84338SOL    HW254912  10.259   1.029   1.900
84339SOL     OW54913  11.146   7.985   5.755
84339SOL    HW154914  11.154   7.891   5.770
84339SOL    HW254915  11.185   8.024   5.834
84340SOL     OW54916  10.001   6.818   8.453
84340SOL    HW154917   9.985   6.736   8.406
84340SOL    HW254918   9.914   6.852   8.473
84341SOL     OW54919   2.747   6.773   5.426
84341SOL    HW154920   2.794   6.689   5.426
84341SOL    HW254921   2.770   6.813   5.510
84342SOL     OW54922   7.291   8.467  14.466
84342SOL    HW154923   7.336   8.552  14.465
84342SOL    HW254924   7.362   8.403  14.461
84343SOL     OW54925   6.449  13.719  10.955
84343SOL    HW154926   6.473  13.674  10.874
84343SOL    HW254927   6.411  13.802  10.926
84344SOL     OW54928   8.573  12.759  14.035
84344SOL    HW154929   8.621  12.806  14.103
84344SOL    HW254930   8.560  12.825  13.966
84345SOL     OW54931   7.380   3.791  12.162
84345SOL    HW154932   7.455   3.842  12.194
84345SOL    HW254933   7.411   3.701  12.162
84346SOL     OW54934   1.700   5.775   7.069
84346SOL    HW154935   1.651   5.758   7.150
84346SOL    HW254936   1.646   5.839   7.023
84347SOL     OW54937   4.968  10.594  11.414
84347SOL    HW154938   5.014  10.580  11.330
84347SOL    HW254939   4.949  10.687  11.416
84348SOL     OW54940   5.616   7.691   6.178
84348SOL    HW154941   5.708   7.711   6.163
84348SOL    HW254942   5.597   7.619   6.117
84349SOL     OW54943   4.572  13.505  12.307
84349SOL    HW154944   4.606  13.580  12.355
84349SOL    HW254945   4.535  13.542  12.227
84350SOL     OW54946   8.565   6.016   9.934
84350SOL    HW154947   8.538   6.091   9.987
84350SOL    HW254948   8.656   6.034   9.910
84351SOL     OW54949   3.674   8.235   6.963
84351SOL    HW154950   3.616   8.300   7.002
84351SOL    HW254951   3.718   8.194   7.037
84352SOL     OW54952   3.298   9.734  11.206
84352SOL    HW154953   3.386   9.760  11.233
84352SOL    HW254954   3.312   9.683  11.127
84353SOL     OW54955   4.708  13.649   8.856
84353SOL    HW154956   4.614  13.667   8.863
84353SOL    HW254957   4.713  13.556   8.832
84354SOL     OW54958   1.567   8.685   5.144
84354SOL    HW154959   1.655   8.718   5.163
84354SOL    HW254960   1.565   8.597   5.182
84355SOL     OW54961   9.004   2.581   8.336
84355SOL    HW154962   9.072   2.514   8.329
84355SOL    HW254963   8.951   2.569   8.256
84356SOL     OW54964   2.331  14.410   9.013
84356SOL    HW154965   2.295  14.321   9.017
84356SOL    HW254966   2.292  14.455   9.088
84357SOL     OW54967  11.211   2.812   5.179
84357SOL    HW154968  11.138   2.870   5.158
84357SOL    HW254969  11.218   2.755   5.103
84358SOL     OW54970   6.525   4.388   2.111
84358SOL    HW154971   6.496   4.452   2.046
84358SOL    HW254972   6.470   4.404   2.187
84359SOL     OW54973   3.780  13.389  13.195
84359SOL    HW154974   3.816  13.327  13.131
84359SOL    HW254975   3.814  13.358  13.279
84360SOL     OW54976   2.488  11.025   3.420
84360SOL    HW154977   2.509  10.931   3.426
84360SOL    HW254978   2.491  11.055   3.511
84361SOL     OW54979   3.394  14.302   7.195
84361SOL    HW154980   3.427  14.381   7.151
84361SOL    HW254981   3.341  14.258   7.129
84362SOL     OW54982  13.578   7.794  12.740
84362SOL    HW154983  13.540   7.710  12.765
84362SOL    HW254984  13.617   7.827  12.821
84363SOL     OW54985   5.756   0.613   1.751
84363SOL    HW154986   5.782   0.679   1.814
84363SOL    HW254987   5.766   0.655   1.666
84364SOL     OW54988   2.563   8.209  14.394
84364SOL    HW154989   2.575   8.182  14.485
84364SOL    HW254990   2.651   8.228  14.363
84365SOL     OW54991  14.613  10.629   2.370
84365SOL    HW154992  14.522  10.639   2.399
84365SOL    HW254993  14.638  10.717   2.343
84366SOL     OW54994  10.740   7.335  10.035
84366SOL    HW154995  10.688   7.414  10.018
84366SOL    HW254996  10.734   7.321  10.129
84367SOL     OW54997  13.242   5.842   4.162
84367SOL    HW154998  13.235   5.788   4.083
84367SOL    HW254999  13.327   5.819   4.200
84368SOL     OW55000   4.705  13.952   7.336
84368SOL    HW155001   4.625  13.966   7.285
84368SOL    HW255002   4.765  14.019   7.305
84369SOL     OW55003  14.095   8.414  12.923
84369SOL    HW155004  14.134   8.482  12.978
84369SOL    HW255005  14.007   8.403  12.958
84370SOL     OW55006   0.419  13.016  14.573
84370SOL    HW155007   0.440  13.076  14.645
84370SOL    HW255008   0.326  13.030  14.556
84371SOL     OW55009   0.864   7.653   7.589
84371SOL    HW155010   0.853   7.708   7.512
84371SOL    HW255011   0.792   7.678   7.647
84372SOL     OW55012   4.368   1.668   5.613
84372SOL    HW155013   4.389   1.597   5.553
84372SOL    HW255014   4.303   1.631   5.673
84373SOL     OW55015   0.591   5.625   8.258
84373SOL    HW155016   0.646   5.683   8.311
84373SOL    HW255017   0.504   5.631   8.297
84374SOL     OW55018  14.623  13.064   4.236
84374SOL    HW155019  14.554  13.110   4.188
84374SOL    HW255020  14.701  13.074   4.183
84375SOL     OW55021   2.277   3.483  10.148
84375SOL    HW155022   2.287   3.553  10.212
84375SOL    HW255023   2.217   3.421  10.189
84376SOL     OW55024  10.656   8.665   4.855
84376SOL    HW155025  10.602   8.736   4.891
84376SOL    HW255026  10.744   8.703   4.849
84377SOL     OW55027   9.452   0.382  12.358
84377SOL    HW155028   9.484   0.467  12.329
84377SOL    HW255029   9.373   0.401  12.408
84378SOL     OW55030  10.645   9.342  13.259
84378SOL    HW155031  10.649   9.247  13.244
84378SOL    HW255032  10.718   9.360  13.317
84379SOL     OW55033   0.957  10.773  11.375
84379SOL    HW155034   1.038  10.770  11.425
84379SOL    HW255035   0.895  10.819  11.432
84380SOL     OW55036   3.338   7.451  10.684
84380SOL    HW155037   3.260   7.478  10.732
84380SOL    HW255038   3.304   7.414  10.602
84381SOL     OW55039  11.236   2.997   1.533
84381SOL    HW155040  11.171   3.028   1.597
84381SOL    HW255041  11.318   3.037   1.561
84382SOL     OW55042  12.179  11.992   4.384
84382SOL    HW155043  12.246  11.988   4.452
84382SOL    HW255044  12.125  11.915   4.400
84383SOL     OW55045   3.634   8.193   1.398
84383SOL    HW155046   3.549   8.150   1.403
84383SOL    HW255047   3.619   8.271   1.343
84384SOL     OW55048   4.934   5.749   9.221
84384SOL    HW155049   4.958   5.701   9.301
84384SOL    HW255050   5.013   5.748   9.168
84385SOL     OW55051   5.312   2.142   1.899
84385SOL    HW155052   5.285   2.067   1.952
84385SOL    HW255053   5.399   2.165   1.933
84386SOL     OW55054   5.829   8.853   2.355
84386SOL    HW155055   5.767   8.916   2.392
84386SOL    HW255056   5.866   8.898   2.279
84387SOL     OW55057   7.134   8.238  12.740
84387SOL    HW155058   7.136   8.316  12.684
84387SOL    HW255059   7.088   8.172  12.688
84388SOL     OW55060  12.988  12.019   8.959
84388SOL    HW155061  12.910  12.067   8.931
84388SOL    HW255062  12.979  12.013   9.054
84389SOL     OW55063  14.550   0.621   1.445
84389SOL    HW155064  14.511   0.692   1.394
84389SOL    HW255065  14.639   0.651   1.464
84390SOL     OW55066  12.662   7.356  12.582
84390SOL    HW155067  12.677   7.284  12.520
84390SOL    HW255068  12.694   7.321  12.666
84391SOL     OW55069   7.548   3.527   9.640
84391SOL    HW155070   7.458   3.524   9.607
84391SOL    HW255071   7.556   3.449   9.695
84392SOL     OW55072  12.319   7.990   6.334
84392SOL    HW155073  12.408   7.956   6.330
84392SOL    HW255074  12.281   7.969   6.248
84393SOL     OW55075   6.011  13.966  10.052
84393SOL    HW155076   6.043  13.880  10.025
84393SOL    HW255077   5.917  13.964  10.032
84394SOL     OW55078   4.547   4.415   6.804
84394SOL    HW155079   4.520   4.429   6.714
84394SOL    HW255080   4.631   4.369   6.797
84395SOL     OW55081   2.257   2.936   3.275
84395SOL    HW155082   2.350   2.915   3.267
84395SOL    HW255083   2.245   3.014   3.221
84396SOL     OW55084  11.255  13.673  12.744
84396SOL    HW155085  11.281  13.630  12.663
84396SOL    HW255086  11.296  13.759  12.741
84397SOL     OW55087   5.639  11.174   0.559
84397SOL    HW155088   5.727  11.198   0.530
84397SOL    HW255089   5.583  11.247   0.530
84398SOL     OW55090  11.299   5.324   3.659
84398SOL    HW155091  11.216   5.308   3.705
84398SOL    HW255092  11.272   5.347   3.570
84399SOL     OW55093   3.131   6.031   5.295
84399SOL    HW155094   3.167   5.979   5.367
84399SOL    HW255095   3.084   6.102   5.337
84400SOL     OW55096  13.838   3.437  12.867
84400SOL    HW155097  13.864   3.511  12.812
84400SOL    HW255098  13.755   3.408  12.829
84401SOL     OW55099  10.570  10.367  14.209
84401SOL    HW155100  10.593  10.321  14.289
84401SOL    HW255101  10.610  10.453  14.217
84402SOL     OW55102   7.617   5.159   9.045
84402SOL    HW155103   7.558   5.225   9.082
84402SOL    HW255104   7.703   5.201   9.044
84403SOL     OW55105  11.937   7.210   2.818
84403SOL    HW155106  11.956   7.245   2.905
84403SOL    HW255107  11.998   7.137   2.808
84404SOL     OW55108  13.001   4.110   2.191
84404SOL    HW155109  13.068   4.176   2.208
84404SOL    HW255110  12.925   4.137   2.242
84405SOL     OW55111  11.802  14.174   9.181
84405SOL    HW155112  11.707  14.171   9.173
84405SOL    HW255113  11.823  14.267   9.178
84406SOL     OW55114   8.600  13.070   8.437
84406SOL    HW155115   8.547  13.088   8.514
84406SOL    HW255116   8.562  12.990   8.400
84407SOL     OW55117   7.878  14.051   8.497
84407SOL    HW155118   7.800  14.023   8.543
84407SOL    HW255119   7.898  14.138   8.533
84408SOL     OW55120   3.989   2.560   9.170
84408SOL    HW155121   3.950   2.626   9.228
84408SOL    HW255122   4.057   2.607   9.123
84409SOL     OW55123  11.816   5.721  14.349
84409SOL    HW155124  11.810   5.723  14.444
84409SOL    HW255125  11.775   5.803  14.320
84410SOL     OW55126  12.371   1.354  11.211
84410SOL    HW155127  12.289   1.396  11.235
84410SOL    HW255128  12.383   1.285  11.277
84411SOL     OW55129  10.962   5.507   3.584
84411SOL    HW155130  10.899   5.576   3.605
84411SOL    HW255131  10.910   5.427   3.583
84412SOL     OW55132  13.874   9.982  11.326
84412SOL    HW155133  13.878  10.037  11.248
84412SOL    HW255134  13.914  10.034  11.395
84413SOL     OW55135   0.247   6.513   7.774
84413SOL    HW155136   0.237   6.609   7.772
84413SOL    HW255137   0.161   6.480   7.747
84414SOL     OW55138  12.371   7.580   9.276
84414SOL    HW155139  12.389   7.489   9.296
84414SOL    HW255140  12.358   7.622   9.361
84415SOL     OW55141  12.280   4.606   3.314
84415SOL    HW155142  12.200   4.564   3.284
84415SOL    HW255143  12.296   4.570   3.401
84416SOL     OW55144   8.841   0.960   6.249
84416SOL    HW155145   8.835   0.968   6.154
84416SOL    HW255146   8.752   0.980   6.280
84417SOL     OW55147  13.620   1.138  13.045
84417SOL    HW155148  13.677   1.130  13.121
84417SOL    HW255149  13.671   1.102  12.972
84418SOL     OW55150  13.736   6.045   8.679
84418SOL    HW155151  13.742   5.975   8.614
84418SOL    HW255152  13.643   6.049   8.701
84419SOL     OW55153  11.934   4.640  10.985
84419SOL    HW155154  11.901   4.559  11.026
84419SOL    HW255155  11.858   4.675  10.939
84420SOL     OW55156   6.261  13.379   9.631
84420SOL    HW155157   6.241  13.287   9.616
84420SOL    HW255158   6.311  13.406   9.554
84421SOL     OW55159   8.024   3.811  11.636
84421SOL    HW155160   7.956   3.875  11.656
84421SOL    HW255161   8.079   3.852  11.570
84422SOL     OW55162   5.991   9.841   8.189
84422SOL    HW155163   5.922   9.908   8.184
84422SOL    HW255164   5.956   9.774   8.247
84423SOL     OW55165   5.397  11.661  14.002
84423SOL    HW155166   5.384  11.676  13.909
84423SOL    HW255167   5.354  11.577  14.019
84424SOL     OW55168  12.215  11.086  12.375
84424SOL    HW155169  12.225  11.029  12.299
84424SOL    HW255170  12.280  11.055  12.438
84425SOL     OW55171   6.424   1.448  11.051
84425SOL    HW155172   6.464   1.362  11.041
84425SOL    HW255173   6.348   1.434  11.106
84426SOL     OW55174  10.180   8.995   2.169
84426SOL    HW155175  10.219   8.923   2.219
84426SOL    HW255176  10.096   9.012   2.214
84427SOL     OW55177   8.189   2.286   0.537
84427SOL    HW155178   8.206   2.220   0.605
84427SOL    HW255179   8.252   2.265   0.468
84428SOL     OW55180   2.746  12.705   9.697
84428SOL    HW155181   2.821  12.727   9.641
84428SOL    HW255182   2.785  12.679   9.780
84429SOL     OW55183   7.128  11.459   0.330
84429SOL    HW155184   7.050  11.496   0.370
84429SOL    HW255185   7.198  11.521   0.353
84430SOL     OW55186   6.620   8.470  11.337
84430SOL    HW155187   6.705   8.500  11.369
84430SOL    HW255188   6.569   8.455  11.417
84431SOL     OW55189  13.095   1.271  13.012
84431SOL    HW155190  13.029   1.281  13.081
84431SOL    HW255191  13.178   1.269  13.060
84432SOL     OW55192  13.566   2.931   9.545
84432SOL    HW155193  13.586   2.915   9.637
84432SOL    HW255194  13.489   2.988   9.547
84433SOL     OW55195   4.743  13.626  11.831
84433SOL    HW155196   4.812  13.608  11.894
84433SOL    HW255197   4.788  13.640  11.748
84434SOL     OW55198   6.552   5.558  12.960
84434SOL    HW155199   6.501   5.627  13.002
84434SOL    HW255200   6.643   5.579  12.981
84435SOL     OW55201   3.560  10.235  10.160
84435SOL    HW155202   3.478  10.211  10.118
84435SOL    HW255203   3.550  10.329  10.180
84436SOL     OW55204   7.520   2.366   4.363
84436SOL    HW155205   7.553   2.431   4.301
84436SOL    HW255206   7.594   2.348   4.421
84437SOL     OW55207   2.401  11.242   8.519
84437SOL    HW155208   2.422  11.206   8.433
84437SOL    HW255209   2.358  11.170   8.565
84438SOL     OW55210   6.545   8.062   9.903
84438SOL    HW155211   6.594   8.044   9.823
84438SOL    HW255212   6.611   8.056   9.973
84439SOL     OW55213  12.617   9.378   6.053
84439SOL    HW155214  12.621   9.473   6.068
84439SOL    HW255215  12.612   9.340   6.140
84440SOL     OW55216   9.834   5.733   6.296
84440SOL    HW155217   9.763   5.714   6.357
84440SOL    HW255218   9.845   5.828   6.301
84441SOL     OW55219   8.099   6.481  12.166
84441SOL    HW155220   8.088   6.519  12.254
84441SOL    HW255221   8.116   6.557  12.109
84442SOL     OW55222   0.078   7.671   9.473
84442SOL    HW155223   0.007   7.607   9.479
84442SOL    HW255224   0.048   7.745   9.525
84443SOL     OW55225   9.872  11.970  10.563
84443SOL    HW155226   9.912  11.893  10.523
84443SOL    HW255227   9.783  11.942  10.586
84444SOL     OW55228  11.596   0.050  11.607
84444SOL    HW155229  11.525   0.036  11.670
84444SOL    HW255230  11.636  14.841  11.596
84445SOL     OW55231  12.295  14.843   3.781
84445SOL    HW155232  12.222  14.820   3.838
84445SOL    HW255233  12.372  14.802   3.821
84446SOL     OW55234   6.787   2.152   8.093
84446SOL    HW155235   6.731   2.106   8.157
84446SOL    HW255236   6.876   2.125   8.116
84447SOL     OW55237   3.454   6.645   7.121
84447SOL    HW155238   3.533   6.639   7.067
84447SOL    HW255239   3.471   6.585   7.194
84448SOL     OW55240   0.473  13.981   2.933
84448SOL    HW155241   0.464  13.898   2.887
84448SOL    HW255242   0.513  13.958   3.017
84449SOL     OW55243  10.994   6.371   3.915
84449SOL    HW155244  10.966   6.318   3.840
84449SOL    HW255245  10.915   6.379   3.969
84450SOL     OW55246   2.668  13.316  12.008
84450SOL    HW155247   2.741  13.378  12.004
84450SOL    HW255248   2.593  13.366  11.976
84451SOL     OW55249  11.353  10.133   2.664
84451SOL    HW155250  11.419  10.066   2.642
84451SOL    HW255251  11.348  10.130   2.760
84452SOL     OW55252  11.507  10.014   8.494
84452SOL    HW155253  11.568  10.037   8.563
84452SOL    HW255254  11.456  10.093   8.479
84453SOL     OW55255   0.318  11.207   7.183
84453SOL    HW155256   0.311  11.148   7.258
84453SOL    HW255257   0.412  11.220   7.172
84454SOL     OW55258   2.375   7.919   5.104
84454SOL    HW155259   2.360   7.901   5.197
84454SOL    HW255260   2.294   7.958   5.073
84455SOL     OW55261  12.183   0.376  13.384
84455SOL    HW155262  12.134   0.363  13.465
84455SOL    HW255263  12.134   0.444  13.337
84456SOL     OW55264  13.657   4.241  11.332
84456SOL    HW155265  13.696   4.323  11.361
84456SOL    HW255266  13.718   4.206  11.266
84457SOL     OW55267   8.479  12.508   1.193
84457SOL    HW155268   8.562  12.483   1.234
84457SOL    HW255269   8.481  12.603   1.191
84458SOL     OW55270   0.142   8.758   1.200
84458SOL    HW155271   0.156   8.841   1.247
84458SOL    HW255272   0.229   8.730   1.174
84459SOL     OW55273  13.945   5.464   4.022
84459SOL    HW155274  14.027   5.508   4.041
84459SOL    HW255275  13.960   5.419   3.939
84460SOL     OW55276   7.428  12.791   4.228
84460SOL    HW155277   7.365  12.721   4.209
84460SOL    HW255278   7.383  12.847   4.291
84461SOL     OW55279   9.352   7.752   0.823
84461SOL    HW155280   9.272   7.728   0.870
84461SOL    HW255281   9.384   7.830   0.870
84462SOL     OW55282  12.803  10.074   0.400
84462SOL    HW155283  12.823   9.986   0.369
84462SOL    HW255284  12.727  10.101   0.350
84463SOL     OW55285   8.562  14.583   3.309
84463SOL    HW155286   8.653  14.557   3.324
84463SOL    HW255287   8.530  14.613   3.394
84464SOL     OW55288   8.265   0.064   4.934
84464SOL    HW155289   8.335   0.014   4.978
84464SOL    HW255290   8.308   0.145   4.906
84465SOL     OW55291   4.312   5.691   4.903
84465SOL    HW155292   4.286   5.709   4.813
84465SOL    HW255293   4.229   5.690   4.952
84466SOL     OW55294   1.040   3.765  11.608
84466SOL    HW155295   0.973   3.816  11.653
84466SOL    HW255296   1.074   3.705  11.675
84467SOL     OW55297   6.502   5.611   1.977
84467SOL    HW155298   6.415   5.623   2.015
84467SOL    HW255299   6.523   5.519   1.996
84468SOL     OW55300   3.760   4.344   8.896
84468SOL    HW155301   3.843   4.315   8.936
84468SOL    HW255302   3.696   4.335   8.966
84469SOL     OW55303  10.383   3.667   8.716
84469SOL    HW155304  10.444   3.738   8.693
84469SOL    HW255305  10.410   3.593   8.662
84470SOL     OW55306  14.387  14.129   0.359
84470SOL    HW155307  14.337  14.207   0.334
84470SOL    HW255308  14.413  14.145   0.449
84471SOL     OW55309   7.014   4.095   1.936
84471SOL    HW155310   6.958   4.019   1.922
84471SOL    HW255311   6.955   4.165   1.964
84472SOL     OW55312  11.986   3.138  11.266
84472SOL    HW155313  12.058   3.091  11.309
84472SOL    HW255314  11.913   3.131  11.329
84473SOL     OW55315   1.990  11.614   7.509
84473SOL    HW155316   2.074  11.626   7.553
84473SOL    HW255317   2.011  11.566   7.429
84474SOL     OW55318   9.772   6.535   4.039
84474SOL    HW155319   9.829   6.505   3.967
84474SOL    HW255320   9.686   6.500   4.017
84475SOL     OW55321  14.432   9.969   9.955
84475SOL    HW155322  14.371   9.937  10.021
84475SOL    HW255323  14.493   9.897   9.941
84476SOL     OW55324   8.231   3.392  14.359
84476SOL    HW155325   8.249   3.334  14.286
84476SOL    HW255326   8.177   3.462  14.322
84477SOL     OW55327  12.433  11.898  12.677
84477SOL    HW155328  12.358  11.957  12.677
84477SOL    HW255329  12.508  11.954  12.697
84478SOL     OW55330   5.204   2.944   9.703
84478SOL    HW155331   5.209   2.989   9.619
84478SOL    HW255332   5.127   2.981   9.746
84479SOL     OW55333   1.658  14.368   4.182
84479SOL    HW155334   1.652  14.297   4.118
84479SOL    HW255335   1.738  14.350   4.231
84480SOL     OW55336   7.805   3.018   9.907
84480SOL    HW155337   7.803   3.023  10.003
84480SOL    HW255338   7.777   3.104   9.878
84481SOL     OW55339   9.663  10.893  10.639
84481SOL    HW155340   9.751  10.915  10.667
84481SOL    HW255341   9.675  10.829  10.569
84482SOL     OW55342   5.612   7.891  14.639
84482SOL    HW155343   5.570   7.922  14.558
84482SOL    HW255344   5.604   7.796  14.634
84483SOL     OW55345   1.084   3.914   5.282
84483SOL    HW155346   1.109   3.979   5.216
84483SOL    HW255347   1.001   3.946   5.318
84484SOL     OW55348   5.156   9.036   5.776
84484SOL    HW155349   5.121   8.994   5.698
84484SOL    HW255350   5.122   8.984   5.849
84485SOL     OW55351  12.581  11.316   7.189
84485SOL    HW155352  12.602  11.324   7.282
84485SOL    HW255353  12.604  11.401   7.152
84486SOL     OW55354   5.261   1.124   3.602
84486SOL    HW155355   5.293   1.071   3.529
84486SOL    HW255356   5.232   1.060   3.667
84487SOL     OW55357  11.162  12.783   1.166
84487SOL    HW155358  11.084  12.792   1.221
84487SOL    HW255359  11.155  12.854   1.103
84488SOL     OW55360   4.955   8.502  14.660
84488SOL    HW155361   4.869   8.482  14.623
84488SOL    HW255362   4.973   8.592  14.631
84489SOL     OW55363   3.174   0.862   2.920
84489SOL    HW155364   3.114   0.936   2.927
84489SOL    HW255365   3.232   0.885   2.848
84490SOL     OW55366  10.373   1.477  10.980
84490SOL    HW155367  10.462   1.511  10.970
84490SOL    HW255368  10.385   1.389  11.016
84491SOL     OW55369  10.728   2.039   8.928
84491SOL    HW155370  10.774   2.093   8.992
84491SOL    HW255371  10.677   1.978   8.982
84492SOL     OW55372  13.749  11.646  10.304
84492SOL    HW155373  13.720  11.737  10.305
84492SOL    HW255374  13.813  11.643  10.233
84493SOL     OW55375   3.898  10.132  14.186
84493SOL    HW155376   3.809  10.107  14.162
84493SOL    HW255377   3.953  10.093  14.118
84494SOL     OW55378   0.062   2.644  13.806
84494SOL    HW155379   0.030   2.554  13.809
84494SOL    HW255380   0.013   2.684  13.734
84495SOL     OW55381   7.520   8.388   5.921
84495SOL    HW155382   7.603   8.343   5.937
84495SOL    HW255383   7.491   8.417   6.007
84496SOL     OW55384   4.438   4.817   4.258
84496SOL    HW155385   4.368   4.766   4.297
84496SOL    HW255386   4.467   4.765   4.183
84497SOL     OW55387   8.864  14.667  13.096
84497SOL    HW155388   8.890  14.575  13.104
84497SOL    HW255389   8.798  14.668  13.027
84498SOL     OW55390   1.239   9.733  12.075
84498SOL    HW155391   1.327   9.705  12.100
84498SOL    HW255392   1.188   9.724  12.155
84499SOL     OW55393  10.625  11.759  10.846
84499SOL    HW155394  10.693  11.720  10.791
84499SOL    HW255395  10.669  11.832  10.889
84500SOL     OW55396   4.018  14.109  14.582
84500SOL    HW155397   4.039  14.077  14.669
84500SOL    HW255398   3.967  14.038  14.542
84501SOL     OW55399   9.286   9.052  11.980
84501SOL    HW155400   9.281   8.994  12.056
84501SOL    HW255401   9.221   9.016  11.919
84502SOL     OW55402   9.802  13.349  13.471
84502SOL    HW155403   9.790  13.254  13.468
84502SOL    HW255404   9.729  13.384  13.420
84503SOL     OW55405   3.043   6.610   5.765
84503SOL    HW155406   3.100   6.678   5.728
84503SOL    HW255407   2.975   6.598   5.699
84504SOL     OW55408  12.714  11.020   7.531
84504SOL    HW155409  12.702  11.078   7.606
84504SOL    HW255410  12.802  10.985   7.541
84505SOL     OW55411  12.649  11.667   4.299
84505SOL    HW155412  12.635  11.656   4.393
84505SOL    HW255413  12.711  11.598   4.276
84506SOL     OW55414   1.490  14.207   7.988
84506SOL    HW155415   1.511  14.274   8.052
84506SOL    HW255416   1.503  14.249   7.903
84507SOL     OW55417  14.334   0.880   3.184
84507SOL    HW155418  14.307   0.855   3.096
84507SOL    HW255419  14.253   0.887   3.233
84508SOL     OW55420  12.550  13.134   7.808
84508SOL    HW155421  12.534  13.190   7.732
84508SOL    HW255422  12.521  13.047   7.781
84509SOL     OW55423   7.490   4.760  14.067
84509SOL    HW155424   7.423   4.699  14.096
84509SOL    HW255425   7.512   4.731  13.979
84510SOL     OW55426   1.209   8.740   1.082
84510SOL    HW155427   1.167   8.688   1.150
84510SOL    HW255428   1.239   8.819   1.126
84511SOL     OW55429  13.409   0.360   4.731
84511SOL    HW155430  13.486   0.305   4.748
84511SOL    HW255431  13.358   0.312   4.666
84512SOL     OW55432   3.006   5.052   3.933
84512SOL    HW155433   2.986   5.060   4.027
84512SOL    HW255434   2.999   4.958   3.916
84513SOL     OW55435   8.387   1.999   7.266
84513SOL    HW155436   8.294   1.981   7.275
84513SOL    HW255437   8.403   2.073   7.324
84514SOL     OW55438   3.926   1.994  12.406
84514SOL    HW155439   3.906   1.945  12.326
84514SOL    HW255440   4.021   2.006  12.403
84515SOL     OW55441   7.842   0.683   6.408
84515SOL    HW155442   7.860   0.696   6.501
84515SOL    HW255443   7.747   0.673   6.404
84516SOL     OW55444   1.290  14.212  11.742
84516SOL    HW155445   1.252  14.298  11.762
84516SOL    HW255446   1.223  14.149  11.770
84517SOL     OW55447  13.508   5.665  10.675
84517SOL    HW155448  13.415   5.681  10.689
84517SOL    HW255449  13.539   5.742  10.629
84518SOL     OW55450  11.164  10.597   5.834
84518SOL    HW155451  11.172  10.530   5.902
84518SOL    HW255452  11.174  10.549   5.752
84519SOL     OW55453   5.474  14.365  10.760
84519SOL    HW155454   5.482  14.438  10.699
84519SOL    HW255455   5.532  14.297  10.725
84520SOL     OW55456   3.513   1.445   5.079
84520SOL    HW155457   3.521   1.370   5.137
84520SOL    HW255458   3.533   1.521   5.133
84521SOL     OW55459   9.632  11.942   3.999
84521SOL    HW155460   9.587  11.869   4.039
84521SOL    HW255461   9.659  11.910   3.913
84522SOL     OW55462  14.248  13.785   8.403
84522SOL    HW155463  14.275  13.796   8.495
84522SOL    HW255464  14.154  13.800   8.404
84523SOL     OW55465  10.665  11.704  10.404
84523SOL    HW155466  10.700  11.694  10.493
84523SOL    HW255467  10.586  11.651  10.404
84524SOL     OW55468  14.327  14.615   3.001
84524SOL    HW155469  14.268  14.597   3.075
84524SOL    HW255470  14.410  14.575   3.027
84525SOL     OW55471   3.575   9.358   2.306
84525SOL    HW155472   3.651   9.333   2.358
84525SOL    HW255473   3.597   9.332   2.217
84526SOL     OW55474   5.539   4.004  10.281
84526SOL    HW155475   5.629   3.970  10.285
84526SOL    HW255476   5.495   3.945  10.220
84527SOL     OW55477  11.582   3.258   2.982
84527SOL    HW155478  11.664   3.283   3.024
84527SOL    HW255479  11.591   3.288   2.892
84528SOL     OW55480  10.992   4.519   3.269
84528SOL    HW155481  10.980   4.555   3.182
84528SOL    HW255482  11.087   4.515   3.280
84529SOL     OW55483   2.298   9.266   5.376
84529SOL    HW155484   2.319   9.245   5.467
84529SOL    HW255485   2.356   9.209   5.324
84530SOL     OW55486  12.346   3.719   2.999
84530SOL    HW155487  12.415   3.754   3.055
84530SOL    HW255488  12.307   3.648   3.050
84531SOL     OW55489  13.754   9.275   7.455
84531SOL    HW155490  13.816   9.347   7.447
84531SOL    HW255491  13.802   9.198   7.424
84532SOL     OW55492  12.787  10.598   0.549
84532SOL    HW155493  12.815  10.619   0.460
84532SOL    HW255494  12.807  10.505   0.560
84533SOL     OW55495   0.559   7.649  10.422
84533SOL    HW155496   0.553   7.644  10.326
84533SOL    HW255497   0.491   7.712  10.447
84534SOL     OW55498   6.128   5.943   6.735
84534SOL    HW155499   6.168   5.869   6.781
84534SOL    HW255500   6.195   6.012   6.738
84535SOL     OW55501   6.081   3.869   9.028
84535SOL    HW155502   6.078   3.965   9.031
84535SOL    HW255503   6.091   3.849   8.935
84536SOL     OW55504   5.086  11.484   0.998
84536SOL    HW155505   5.009  11.470   0.942
84536SOL    HW255506   5.074  11.572   1.033
84537SOL     OW55507   7.827  11.873   8.176
84537SOL    HW155508   7.769  11.897   8.104
84537SOL    HW255509   7.914  11.904   8.148
84538SOL     OW55510   6.653   1.433   5.618
84538SOL    HW155511   6.737   1.387   5.614
84538SOL    HW255512   6.647   1.478   5.534
84539SOL     OW55513   6.435  11.316  10.604
84539SOL    HW155514   6.455  11.409  10.595
84539SOL    HW255515   6.372  11.312  10.676
84540SOL     OW55516   8.104   7.126   8.238
84540SOL    HW155517   8.022   7.157   8.278
84540SOL    HW255518   8.079   7.099   8.150
84541SOL     OW55519   9.832   5.645   1.198
84541SOL    HW155520   9.855   5.589   1.272
84541SOL    HW255521   9.912   5.692   1.177
84542SOL     OW55522   5.703   5.270  14.467
84542SOL    HW155523   5.676   5.247  14.556
84542SOL    HW255524   5.641   5.225  14.410
84543SOL     OW55525   3.583   2.986   7.599
84543SOL    HW155526   3.605   3.003   7.691
84543SOL    HW255527   3.509   3.044   7.581
84544SOL     OW55528  12.647  13.279  11.757
84544SOL    HW155529  12.561  13.296  11.794
84544SOL    HW255530  12.704  13.344  11.797
84545SOL     OW55531   9.709   6.528   7.775
84545SOL    HW155532   9.616   6.505   7.779
84545SOL    HW255533   9.740   6.488   7.693
84546SOL     OW55534   6.001   4.745  10.346
84546SOL    HW155535   5.975   4.835  10.326
84546SOL    HW255536   6.091   4.754  10.378
84547SOL     OW55537   2.615   0.379   8.710
84547SOL    HW155538   2.629   0.287   8.734
84547SOL    HW255539   2.530   0.401   8.748
84548SOL     OW55540   3.517   5.715   7.409
84548SOL    HW155541   3.575   5.759   7.472
84548SOL    HW255542   3.487   5.785   7.352
84549SOL     OW55543  13.020  10.325  12.851
84549SOL    HW155544  13.036  10.365  12.765
84549SOL    HW255545  12.945  10.372  12.886
84550SOL     OW55546  10.065  13.979  11.034
84550SOL    HW155547  10.060  13.981  10.939
84550SOL    HW255548  10.118  13.902  11.054
84551SOL     OW55549   7.724   3.196  14.661
84551SOL    HW155550   7.812   3.189  14.622
84551SOL    HW255551   7.704   3.289  14.657
84552SOL     OW55552   4.813   5.990   7.838
84552SOL    HW155553   4.728   6.024   7.812
84552SOL    HW255554   4.840   5.934   7.765
84553SOL     OW55555  11.094  10.127   0.470
84553SOL    HW155556  11.014  10.144   0.420
84553SOL    HW255557  11.082  10.175   0.551
84554SOL     OW55558   3.502  11.556   2.346
84554SOL    HW155559   3.549  11.629   2.307
84554SOL    HW255560   3.557  11.480   2.328
84555SOL     OW55561   5.650   9.296   7.977
84555SOL    HW155562   5.730   9.243   7.973
84555SOL    HW255563   5.598   9.265   7.903
84556SOL     OW55564  12.294   3.877   9.769
84556SOL    HW155565  12.357   3.949   9.760
84556SOL    HW255566  12.348   3.799   9.783
84557SOL     OW55567   2.064  12.926   6.841
84557SOL    HW155568   2.092  12.849   6.791
84557SOL    HW255569   2.087  12.906   6.932
84558SOL     OW55570   8.271   5.898   9.384
84558SOL    HW155571   8.337   5.894   9.315
84558SOL    HW255572   8.197   5.849   9.349
84559SOL     OW55573  14.584  10.518   0.684
84559SOL    HW155574  14.560  10.482   0.769
84559SOL    HW255575  14.648  10.586   0.704
84560SOL     OW55576   8.226   6.673   6.329
84560SOL    HW155577   8.293   6.616   6.368
84560SOL    HW255578   8.158   6.614   6.298
84561SOL     OW55579   6.201   9.331  14.454
84561SOL    HW155580   6.214   9.247  14.410
84561SOL    HW255581   6.264   9.330  14.526
84562SOL     OW55582  14.688  10.379  13.347
84562SOL    HW155583  14.684  10.354  13.439
84562SOL    HW255584  14.728  10.465  13.348
84563SOL     OW55585   1.841   4.955   3.228
84563SOL    HW155586   1.864   4.871   3.186
84563SOL    HW255587   1.747   4.964   3.212
84564SOL     OW55588   0.925  11.686   3.624
84564SOL    HW155589   0.897  11.625   3.693
84564SOL    HW255590   1.015  11.709   3.647
84565SOL     OW55591   1.482   5.359  13.857
84565SOL    HW155592   1.575   5.346  13.837
84565SOL    HW255593   1.480   5.438  13.911
84566SOL     OW55594  13.854   9.331   3.073
84566SOL    HW155595  13.846   9.393   3.000
84566SOL    HW255596  13.947   9.308   3.075
84567SOL     OW55597  11.677   3.036   2.179
84567SOL    HW155598  11.680   3.131   2.164
84567SOL    HW255599  11.623   3.002   2.108
84568SOL     OW55600  10.262   0.744  12.795
84568SOL    HW155601  10.329   0.726  12.860
84568SOL    HW255602  10.268   0.839  12.780
84569SOL     OW55603  11.993   5.389  13.547
84569SOL    HW155604  11.935   5.392  13.623
84569SOL    HW255605  12.072   5.436  13.575
84570SOL     OW55606  10.864   4.314   3.999
84570SOL    HW155607  10.793   4.289   4.059
84570SOL    HW255608  10.818   4.340   3.919
84571SOL     OW55609  10.722   0.710  13.292
84571SOL    HW155610  10.634   0.675  13.301
84571SOL    HW255611  10.730   0.773  13.364
84572SOL     OW55612   0.574  13.505  11.105
84572SOL    HW155613   0.666  13.484  11.089
84572SOL    HW255614   0.528  13.423  11.085
84573SOL     OW55615   0.812   1.702  11.849
84573SOL    HW155616   0.872   1.638  11.810
84573SOL    HW255617   0.857   1.785  11.840
84574SOL     OW55618   7.283  11.632   5.308
84574SOL    HW155619   7.322  11.662   5.226
84574SOL    HW255620   7.314  11.695   5.373
84575SOL     OW55621  12.156  13.692   1.015
84575SOL    HW155622  12.099  13.619   1.036
84575SOL    HW255623  12.114  13.734   0.939
84576SOL     OW55624   6.855  11.203   3.486
84576SOL    HW155625   6.841  11.118   3.527
84576SOL    HW255626   6.782  11.213   3.425
84577SOL     OW55627   4.731   6.886   4.911
84577SOL    HW155628   4.753   6.977   4.931
84577SOL    HW255629   4.661   6.865   4.974
84578SOL     OW55630   3.162   6.550  12.409
84578SOL    HW155631   3.097   6.556  12.338
84578SOL    HW255632   3.144   6.466  12.450
84579SOL     OW55633  14.215   7.822   5.974
84579SOL    HW155634  14.291   7.870   5.940
84579SOL    HW255635  14.253   7.747   6.021
84580SOL     OW55636   4.206  12.094   1.661
84580SOL    HW155637   4.260  12.161   1.703
84580SOL    HW255638   4.230  12.013   1.704
84581SOL     OW55639   6.742   6.570  13.246
84581SOL    HW155640   6.832   6.593  13.273
84581SOL    HW255641   6.691   6.575  13.327
84582SOL     OW55642   5.725  14.023   9.895
84582SOL    HW155643   5.643  14.061   9.865
84582SOL    HW255644   5.728  13.936   9.854
84583SOL     OW55645   4.366  10.201  11.147
84583SOL    HW155646   4.354  10.294  11.129
84583SOL    HW255647   4.461  10.190  11.152
84584SOL     OW55648   3.588   4.732   3.401
84584SOL    HW155649   3.606   4.799   3.335
84584SOL    HW255650   3.658   4.668   3.389
84585SOL     OW55651   3.687  14.029   7.384
84585SOL    HW155652   3.764  14.063   7.339
84585SOL    HW255653   3.625  14.009   7.314
84586SOL     OW55654   6.909  13.754  12.455
84586SOL    HW155655   6.834  13.769  12.512
84586SOL    HW255656   6.880  13.686  12.395
84587SOL     OW55657  11.307  14.398   6.419
84587SOL    HW155658  11.329  14.327   6.359
84587SOL    HW255659  11.375  14.464   6.405
84588SOL     OW55660   6.074  10.150   8.791
84588SOL    HW155661   6.132  10.140   8.867
84588SOL    HW255662   6.133  10.143   8.716
84589SOL     OW55663   9.177   9.221   4.192
84589SOL    HW155664   9.187   9.195   4.283
84589SOL    HW255665   9.251   9.279   4.175
84590SOL     OW55666   5.796  12.167   3.412
84590SOL    HW155667   5.737  12.139   3.342
84590SOL    HW255668   5.791  12.262   3.411
84591SOL     OW55669   6.960  14.336   5.437
84591SOL    HW155670   6.994  14.329   5.348
84591SOL    HW255671   6.871  14.301   5.431
84592SOL     OW55672   2.944   8.841  13.178
84592SOL    HW155673   2.914   8.752  13.199
84592SOL    HW255674   2.870   8.897  13.200
84593SOL     OW55675  11.393   5.735   8.359
84593SOL    HW155676  11.376   5.643   8.377
84593SOL    HW255677  11.436   5.735   8.273
84594SOL     OW55678   0.545   4.927   2.202
84594SOL    HW155679   0.548   5.013   2.244
84594SOL    HW255680   0.504   4.942   2.117
84595SOL     OW55681   8.454  11.424   3.050
84595SOL    HW155682   8.505  11.502   3.030
84595SOL    HW255683   8.515  11.366   3.095
84596SOL     OW55684   6.804   2.626   0.756
84596SOL    HW155685   6.885   2.580   0.736
84596SOL    HW255686   6.735   2.564   0.734
84597SOL     OW55687   5.305   1.651   0.381
84597SOL    HW155688   5.211   1.649   0.368
84597SOL    HW255689   5.317   1.640   0.475
84598SOL     OW55690  11.204  13.969   7.327
84598SOL    HW155691  11.124  13.967   7.380
84598SOL    HW255692  11.242  14.055   7.345
84599SOL     OW55693   2.020   0.190  12.505
84599SOL    HW155694   2.013   0.220  12.415
84599SOL    HW255695   2.065   0.106  12.499
84600SOL     OW55696  12.754  10.162   5.733
84600SOL    HW155697  12.837  10.178   5.779
84600SOL    HW255698  12.687  10.198   5.792
84601SOL     OW55699  12.892   8.988   3.998
84601SOL    HW155700  12.874   8.974   4.091
84601SOL    HW255701  12.858   9.075   3.980
84602SOL     OW55702   9.367   6.046   8.168
84602SOL    HW155703   9.339   6.092   8.247
84602SOL    HW255704   9.300   5.979   8.154
84603SOL     OW55705  10.241   8.351  12.150
84603SOL    HW155706  10.154   8.343  12.112
84603SOL    HW255707  10.262   8.263  12.181
84604SOL     OW55708  14.365   3.046   8.430
84604SOL    HW155709  14.445   3.063   8.480
84604SOL    HW255710  14.329   3.132   8.412
84605SOL     OW55711   7.110  11.833   8.797
84605SOL    HW155712   7.169  11.906   8.818
84605SOL    HW255713   7.023  11.872   8.801
84606SOL     OW55714   4.320   9.511   4.510
84606SOL    HW155715   4.251   9.451   4.538
84606SOL    HW255716   4.367   9.463   4.443
84607SOL     OW55717   1.720  13.031  14.311
84607SOL    HW155718   1.799  12.989  14.275
84607SOL    HW255719   1.701  12.982  14.391
84608SOL     OW55720   6.487   7.606   5.652
84608SOL    HW155721   6.477   7.547   5.726
84608SOL    HW255722   6.573   7.647   5.665
84609SOL     OW55723  14.671  12.377   9.948
84609SOL    HW155724  14.588  12.384   9.900
84609SOL    HW255725  14.736  12.412   9.888
84610SOL     OW55726  14.135   4.571  14.760
84610SOL    HW155727  14.195   4.619  14.817
84610SOL    HW255728  14.127   4.485  14.801
84611SOL     OW55729   9.198  13.871   1.878
84611SOL    HW155730   9.257  13.947   1.878
84611SOL    HW255731   9.111  13.909   1.867
84612SOL     OW55732   7.287   8.388  10.168
84612SOL    HW155733   7.275   8.417  10.078
84612SOL    HW255734   7.205   8.411  10.212
84613SOL     OW55735  11.053   8.706   9.479
84613SOL    HW155736  11.140   8.683   9.447
84613SOL    HW255737  11.067   8.785   9.532
84614SOL     OW55738   0.391  11.272  14.563
84614SOL    HW155739   0.306  11.315  14.554
84614SOL    HW255740   0.400  11.221  14.482
84615SOL     OW55741   1.707   1.874   7.209
84615SOL    HW155742   1.715   1.965   7.183
84615SOL    HW255743   1.654   1.834   7.139
84616SOL     OW55744   3.186   1.460  10.141
84616SOL    HW155745   3.262   1.428  10.190
84616SOL    HW255746   3.223   1.491  10.058
84617SOL     OW55747   2.883  12.377   9.168
84617SOL    HW155748   2.906  12.290   9.136
84617SOL    HW255749   2.947  12.396   9.236
84618SOL     OW55750   5.342   2.529   0.216
84618SOL    HW155751   5.393   2.448   0.213
84618SOL    HW255752   5.253   2.502   0.192
84619SOL     OW55753   9.278   0.034  11.157
84619SOL    HW155754   9.282  14.836  11.216
84619SOL    HW255755   9.224   0.005  11.084
84620SOL     OW55756   6.137   2.831   6.488
84620SOL    HW155757   6.087   2.767   6.438
84620SOL    HW255758   6.224   2.828   6.450
84621SOL     OW55759   1.837  14.402   0.271
84621SOL    HW155760   1.834  14.469   0.340
84621SOL    HW255761   1.892  14.333   0.308
84622SOL     OW55762  10.375  13.239   1.725
84622SOL    HW155763  10.415  13.304   1.782
84622SOL    HW255764  10.302  13.284   1.684
84623SOL     OW55765  14.551  11.194   7.766
84623SOL    HW155766  14.542  11.143   7.846
84623SOL    HW255767  14.639  11.231   7.770
84624SOL     OW55768  13.756   1.604   3.486
84624SOL    HW155769  13.844   1.567   3.483
84624SOL    HW255770  13.698   1.527   3.485
84625SOL     OW55771   5.673   2.762   3.508
84625SOL    HW155772   5.635   2.830   3.563
84625SOL    HW255773   5.743   2.807   3.460
84626SOL     OW55774   7.839   3.682   7.367
84626SOL    HW155775   7.750   3.716   7.363
84626SOL    HW255776   7.893   3.753   7.332
84627SOL     OW55777   8.723   5.875   1.010
84627SOL    HW155778   8.800   5.873   0.954
84627SOL    HW255779   8.757   5.890   1.098
84628SOL     OW55780  12.928  10.741   0.029
84628SOL    HW155781  12.970  10.810   0.081
84628SOL    HW255782  12.977  10.742  14.824
84629SOL     OW55783   3.457   1.771  12.977
84629SOL    HW155784   3.459   1.773  13.073
84629SOL    HW255785   3.519   1.702  12.954
84630SOL     OW55786  13.054   5.818   9.119
84630SOL    HW155787  13.102   5.776   9.191
84630SOL    HW255788  12.964   5.823   9.151
84631SOL     OW55789   0.232   1.496  12.362
84631SOL    HW155790   0.286   1.457  12.431
84631SOL    HW255791   0.152   1.523  12.407
84632SOL     OW55792   0.335   4.338   3.941
84632SOL    HW155793   0.275   4.298   3.878
84632SOL    HW255794   0.422   4.314   3.909
84633SOL     OW55795   3.994   5.546   2.065
84633SOL    HW155796   3.938   5.542   2.143
84633SOL    HW255797   3.991   5.457   2.029
84634SOL     OW55798   7.551   6.153  12.124
84634SOL    HW155799   7.585   6.187  12.207
84634SOL    HW255800   7.517   6.229  12.078
84635SOL     OW55801   7.753   9.367   6.328
84635SOL    HW155802   7.845   9.347   6.311
84635SOL    HW255803   7.728   9.309   6.400
84636SOL     OW55804   9.074   4.600   7.930
84636SOL    HW155805   9.061   4.559   7.845
84636SOL    HW255806   9.149   4.657   7.918
84637SOL     OW55807   5.309   2.971  11.364
84637SOL    HW155808   5.399   2.938  11.357
84637SOL    HW255809   5.313   3.037  11.433
84638SOL     OW55810   6.901  11.587   0.439
84638SOL    HW155811   6.954  11.667   0.440
84638SOL    HW255812   6.829  11.605   0.499
84639SOL     OW55813   0.493  14.090   0.948
84639SOL    HW155814   0.512  14.165   1.004
84639SOL    HW255815   0.472  14.129   0.863
84640SOL     OW55816   0.561   2.581   5.141
84640SOL    HW155817   0.501   2.532   5.198
84640SOL    HW255818   0.520   2.577   5.055
84641SOL     OW55819   5.784  10.553   8.131
84641SOL    HW155820   5.708  10.609   8.114
84641SOL    HW255821   5.854  10.590   8.078
84642SOL     OW55822  12.390  10.886   0.945
84642SOL    HW155823  12.373  10.950   1.014
84642SOL    HW255824  12.304  10.859   0.914
84643SOL     OW55825   0.497  10.256   7.284
84643SOL    HW155826   0.474  10.325   7.222
84643SOL    HW255827   0.562  10.203   7.239
84644SOL     OW55828   4.447   4.596   6.185
84644SOL    HW155829   4.363   4.605   6.230
84644SOL    HW255830   4.513   4.616   6.251
84645SOL     OW55831   1.903  10.642   0.907
84645SOL    HW155832   1.923  10.598   0.989
84645SOL    HW255833   1.874  10.730   0.933
84646SOL     OW55834   9.974  12.044   9.779
84646SOL    HW155835   9.953  12.114   9.840
84646SOL    HW255836  10.066  12.060   9.756
84647SOL     OW55837  13.702   0.597   5.901
84647SOL    HW155838  13.668   0.541   5.832
84647SOL    HW255839  13.648   0.676   5.897
84648SOL     OW55840  14.415   9.228  14.051
84648SOL    HW155841  14.477   9.177  14.103
84648SOL    HW255842  14.360   9.162  14.008
84649SOL     OW55843   0.186   7.663   8.571
84649SOL    HW155844   0.144   7.579   8.553
84649SOL    HW255845   0.136   7.727   8.520
84650SOL     OW55846  13.430   0.008   1.885
84650SOL    HW155847  13.376   0.015   1.964
84650SOL    HW255848  13.499  14.823   1.910
84651SOL     OW55849  11.892   9.599   3.977
84651SOL    HW155850  11.862   9.684   4.010
84651SOL    HW255851  11.874   9.538   4.048
84652SOL     OW55852   5.872   3.664   2.050
84652SOL    HW155853   5.925   3.586   2.067
84652SOL    HW255854   5.811   3.637   1.981
84653SOL     OW55855  12.272   7.360   9.006
84653SOL    HW155856  12.182   7.350   9.039
84653SOL    HW255857  12.262   7.404   8.922
84654SOL     OW55858  11.709   6.933   7.542
84654SOL    HW155859  11.679   6.842   7.543
84654SOL    HW255860  11.725   6.954   7.634
84655SOL     OW55861   3.009   7.112   8.019
84655SOL    HW155862   2.959   7.191   8.001
84655SOL    HW255863   2.966   7.044   7.966
84656SOL     OW55864   0.020   0.164   8.477
84656SOL    HW155865   0.023   0.112   8.397
84656SOL    HW255866   0.000   0.101   8.547
84657SOL     OW55867  11.753  11.110  14.679
84657SOL    HW155868  11.841  11.128  14.713
84657SOL    HW255869  11.769  11.064  14.596
84658SOL     OW55870   9.830  14.745  14.161
84658SOL    HW155871   9.819  14.832  14.122
84658SOL    HW255872   9.865  14.762  14.248
84659SOL     OW55873  12.626  12.270  11.597
84659SOL    HW155874  12.608  12.325  11.673
84659SOL    HW255875  12.555  12.291  11.536
84660SOL     OW55876   6.350  10.327   5.628
84660SOL    HW155877   6.352  10.288   5.541
84660SOL    HW255878   6.362  10.421   5.613
84661SOL     OW55879   7.023   9.804   7.637
84661SOL    HW155880   6.960   9.733   7.622
84661SOL    HW255881   7.057   9.825   7.550
84662SOL     OW55882   8.853  10.616  11.349
84662SOL    HW155883   8.763  10.588  11.331
84662SOL    HW255884   8.851  10.650  11.438
84663SOL     OW55885   7.394   8.900  13.366
84663SOL    HW155886   7.435   8.987  13.361
84663SOL    HW255887   7.394   8.868  13.276
84664SOL     OW55888   1.944  10.144  12.353
84664SOL    HW155889   1.851  10.126  12.369
84664SOL    HW255890   1.956  10.123  12.261
84665SOL     OW55891   0.186  10.240  11.608
84665SOL    HW155892   0.255  10.280  11.660
84665SOL    HW255893   0.129  10.313  11.582
84666SOL     OW55894  11.554  14.134  14.600
84666SOL    HW155895  11.644  14.108  14.581
84666SOL    HW255896  11.501  14.088  14.534
84667SOL     OW55897   9.704   1.497   3.178
84667SOL    HW155898   9.713   1.592   3.166
84667SOL    HW255899   9.621   1.475   3.136
84668SOL     OW55900  12.333  11.240  12.132
84668SOL    HW155901  12.282  11.319  12.117
84668SOL    HW255902  12.312  11.213  12.221
84669SOL     OW55903  13.511   9.256   4.858
84669SOL    HW155904  13.551   9.220   4.778
84669SOL    HW255905  13.578   9.314   4.894
84670SOL     OW55906   1.668  11.502   2.859
84670SOL    HW155907   1.584  11.537   2.891
84670SOL    HW255908   1.733  11.539   2.919
84671SOL     OW55909   5.641   1.410   3.102
84671SOL    HW155910   5.700   1.459   3.159
84671SOL    HW255911   5.678   1.321   3.101
84672SOL     OW55912   6.754  11.136   5.326
84672SOL    HW155913   6.792  11.060   5.370
84672SOL    HW255914   6.828  11.196   5.315
84673SOL     OW55915   3.577   7.040  11.584
84673SOL    HW155916   3.522   7.097  11.530
84673SOL    HW255917   3.521   7.014  11.657
84674SOL     OW55918   5.230   0.621  14.509
84674SOL    HW155919   5.178   0.632  14.589
84674SOL    HW255920   5.164   0.609  14.440
84675SOL     OW55921  10.777   4.387   0.215
84675SOL    HW155922  10.691   4.346   0.214
84675SOL    HW255923  10.785   4.425   0.303
84676SOL     OW55924   1.228   4.359   5.133
84676SOL    HW155925   1.261   4.350   5.222
84676SOL    HW255926   1.207   4.270   5.105
84677SOL     OW55927   2.018   7.339   0.867
84677SOL    HW155928   2.050   7.338   0.777
84677SOL    HW255929   2.086   7.385   0.916
84678SOL     OW55930   5.736   3.294   7.656
84678SOL    HW155931   5.802   3.352   7.619
84678SOL    HW255932   5.785   3.215   7.680
84679SOL     OW55933   8.735  12.357   8.492
84679SOL    HW155934   8.801  12.325   8.554
84679SOL    HW255935   8.784  12.405   8.426
84680SOL     OW55936  11.194  14.823   8.099
84680SOL    HW155937  11.276  14.797   8.056
84680SOL    HW255938  11.149  14.876   8.034
84681SOL     OW55939  10.642  11.936   4.441
84681SOL    HW155940  10.599  11.939   4.527
84681SOL    HW255941  10.662  12.027   4.421
84682SOL     OW55942   3.017   8.673   8.054
84682SOL    HW155943   3.039   8.585   8.083
84682SOL    HW255944   3.057   8.680   7.967
84683SOL     OW55945   2.865  10.957   3.423
84683SOL    HW155946   2.850  10.865   3.445
84683SOL    HW255947   2.855  10.960   3.328
84684SOL     OW55948   0.862   0.574   6.032
84684SOL    HW155949   0.869   0.484   6.065
84684SOL    HW255950   0.952   0.599   6.011
84685SOL     OW55951   9.417   9.633  11.033
84685SOL    HW155952   9.333   9.673  11.011
84685SOL    HW255953   9.460   9.620  10.949
84686SOL     OW55954   0.796  12.645  12.509
84686SOL    HW155955   0.710  12.675  12.539
84686SOL    HW255956   0.777  12.593  12.430
84687SOL     OW55957  14.478   9.502   2.839
84687SOL    HW155958  14.573   9.502   2.837
84687SOL    HW255959  14.455   9.479   2.929
84688SOL     OW55960  14.020   5.210   9.997
84688SOL    HW155961  14.018   5.285   9.938
84688SOL    HW255962  14.012   5.134   9.940
84689SOL     OW55963   9.545   2.489  12.349
84689SOL    HW155964   9.607   2.552  12.387
84689SOL    HW255965   9.534   2.517  12.259
84690SOL     OW55966   3.748   2.726   6.904
84690SOL    HW155967   3.707   2.690   6.826
84690SOL    HW255968   3.764   2.818   6.882
84691SOL     OW55969  10.846   8.661   0.586
84691SOL    HW155970  10.882   8.710   0.512
84691SOL    HW255971  10.768   8.618   0.550
84692SOL     OW55972   6.893  11.567  13.225
84692SOL    HW155973   6.981  11.531  13.214
84692SOL    HW255974   6.841  11.523  13.158
84693SOL     OW55975  11.045   9.676   4.084
84693SOL    HW155976  11.064   9.770   4.088
84693SOL    HW255977  11.068   9.644   4.171
84694SOL     OW55978   9.556   0.793   2.951
84694SOL    HW155979   9.466   0.815   2.928
84694SOL    HW255980   9.605   0.874   2.937
84695SOL     OW55981   8.061   5.420   1.578
84695SOL    HW155982   7.992   5.372   1.622
84695SOL    HW255983   8.119   5.450   1.648
84696SOL     OW55984  12.064  14.272  12.434
84696SOL    HW155985  12.045  14.184  12.466
84696SOL    HW255986  12.117  14.258  12.356
84697SOL     OW55987   4.292   0.757  11.313
84697SOL    HW155988   4.313   0.683  11.257
84697SOL    HW255989   4.368   0.814  11.308
84698SOL     OW55990   3.168   9.341   1.362
84698SOL    HW155991   3.210   9.424   1.385
84698SOL    HW255992   3.076   9.365   1.348
84699SOL     OW55993   2.183   8.586   2.886
84699SOL    HW155994   2.214   8.675   2.869
84699SOL    HW255995   2.238   8.530   2.830
84700SOL     OW55996   2.975   6.225  13.721
84700SOL    HW155997   3.012   6.311  13.744
84700SOL    HW255998   2.930   6.240  13.639
84701SOL     OW55999   9.304   8.898   0.679
84701SOL    HW156000   9.311   8.842   0.757
84701SOL    HW256001   9.213   8.890   0.653
84702SOL     OW56002   6.244   9.815   8.696
84702SOL    HW156003   6.198   9.888   8.655
84702SOL    HW256004   6.332   9.848   8.711
84703SOL     OW56005   0.669   8.506  12.416
84703SOL    HW156006   0.711   8.515  12.502
84703SOL    HW256007   0.665   8.412  12.400
84704SOL     OW56008   7.596   8.853  13.556
84704SOL    HW156009   7.547   8.823  13.632
84704SOL    HW256010   7.530   8.869  13.489
84705SOL     OW56011   2.763  13.808   2.509
84705SOL    HW156012   2.796  13.898   2.511
84705SOL    HW256013   2.683  13.814   2.456
84706SOL     OW56014   4.755  13.796  13.645
84706SOL    HW156015   4.670  13.753  13.660
84706SOL    HW256016   4.735  13.889  13.644
84707SOL     OW56017   9.270   5.237   9.892
84707SOL    HW156018   9.290   5.250   9.984
84707SOL    HW256019   9.180   5.267   9.882
84708SOL     OW56020   7.428   5.330  11.620
84708SOL    HW156021   7.377   5.407  11.594
84708SOL    HW256022   7.420   5.270  11.547
84709SOL     OW56023   2.909   6.917  10.961
84709SOL    HW156024   2.951   6.863  11.028
84709SOL    HW256025   2.847   6.858  10.918
84710SOL     OW56026  12.919  13.353   5.102
84710SOL    HW156027  12.882  13.360   5.014
84710SOL    HW256028  12.962  13.267   5.104
84711SOL     OW56029   5.039  14.806   5.759
84711SOL    HW156030   5.054   0.020   5.783
84711SOL    HW256031   5.033  14.760   5.843
84712SOL     OW56032  14.369   6.044   6.463
84712SOL    HW156033  14.274   6.053   6.469
84712SOL    HW256034  14.385   6.024   6.370
84713SOL     OW56035  13.290   3.143   0.524
84713SOL    HW156036  13.262   3.088   0.598
84713SOL    HW256037  13.380   3.114   0.507
84714SOL     OW56038   6.033  11.167  13.672
84714SOL    HW156039   6.125  11.163  13.698
84714SOL    HW256040   6.014  11.260  13.666
84715SOL     OW56041   0.535  14.397   7.037
84715SOL    HW156042   0.567  14.403   7.126
84715SOL    HW256043   0.440  14.383   7.046
84716SOL     OW56044   4.020   9.875   9.268
84716SOL    HW156045   4.031   9.966   9.294
84716SOL    HW256046   4.085   9.861   9.199
84717SOL     OW56047  10.629   2.275  12.770
84717SOL    HW156048  10.551   2.248  12.721
84717SOL    HW256049  10.632   2.370  12.760
84718SOL     OW56050  12.030   0.230   0.383
84718SOL    HW156051  12.020   0.188   0.468
84718SOL    HW256052  12.020   0.324   0.401
84719SOL     OW56053   5.095   0.933   5.694
84719SOL    HW156054   5.042   1.012   5.682
84719SOL    HW256055   5.140   0.946   5.777
84720SOL     OW56056   7.218  13.582  10.955
84720SOL    HW156057   7.298  13.543  10.989
84720SOL    HW256058   7.155  13.509  10.951
84721SOL     OW56059   1.534  14.331   1.868
84721SOL    HW156060   1.538  14.323   1.773
84721SOL    HW256061   1.549  14.242   1.900
84722SOL     OW56062  11.484  12.599   6.603
84722SOL    HW156063  11.510  12.667   6.665
84722SOL    HW256064  11.389  12.590   6.615
84723SOL     OW56065  14.327   0.537   5.389
84723SOL    HW156066  14.290   0.454   5.361
84723SOL    HW256067  14.381   0.515   5.465
84724SOL     OW56068   3.199  10.780   8.360
84724SOL    HW156069   3.290  10.807   8.374
84724SOL    HW256070   3.193  10.694   8.402
84725SOL     OW56071   2.382   3.919   9.058
84725SOL    HW156072   2.461   3.929   9.004
84725SOL    HW256073   2.410   3.864   9.131
84726SOL     OW56074  12.468   1.943   3.880
84726SOL    HW156075  12.394   1.895   3.917
84726SOL    HW256076  12.523   1.874   3.841
84727SOL     OW56077  10.995  10.677  11.037
84727SOL    HW156078  11.021  10.659  11.127
84727SOL    HW256079  11.067  10.640  10.984
84728SOL     OW56080   4.274  14.496   5.997
84728SOL    HW156081   4.312  14.454   5.919
84728SOL    HW256082   4.283  14.590   5.981
84729SOL     OW56083   5.400   5.670   1.940
84729SOL    HW156084   5.381   5.730   2.013
84729SOL    HW256085   5.392   5.725   1.862
84730SOL     OW56086   2.465   4.861   0.810
84730SOL    HW156087   2.520   4.909   0.748
84730SOL    HW256088   2.389   4.917   0.822
84731SOL     OW56089   0.276  11.405  12.508
84731SOL    HW156090   0.247  11.394  12.417
84731SOL    HW256091   0.197  11.430  12.555
84732SOL     OW56092  10.350   2.749  11.967
84732SOL    HW156093  10.369   2.722  12.057
84732SOL    HW256094  10.259   2.777  11.969
84733SOL     OW56095   0.382   9.192   8.919
84733SOL    HW156096   0.362   9.256   8.851
84733SOL    HW256097   0.421   9.244   8.989
84734SOL     OW56098   3.873  14.644  12.285
84734SOL    HW156099   3.950  14.638  12.343
84734SOL    HW256100   3.908  14.679  12.203
84735SOL     OW56101   7.074  12.474   5.237
84735SOL    HW156102   7.078  12.381   5.213
84735SOL    HW256103   6.985  12.486   5.271
84736SOL     OW56104  12.926   6.228   8.301
84736SOL    HW156105  12.899   6.141   8.332
84736SOL    HW256106  12.964   6.213   8.215
84737SOL     OW56107   6.197   0.477   0.569
84737SOL    HW156108   6.111   0.442   0.547
84737SOL    HW256109   6.227   0.422   0.642
84738SOL     OW56110  11.735   6.072  10.736
84738SOL    HW156111  11.804   6.022  10.779
84738SOL    HW256112  11.656   6.020  10.747
84739SOL     OW56113   1.733   7.313   5.332
84739SOL    HW156114   1.760   7.221   5.326
84739SOL    HW256115   1.797   7.352   5.392
84740SOL     OW56116   6.447   5.077   9.157
84740SOL    HW156117   6.488   5.151   9.111
84740SOL    HW256118   6.520   5.023   9.187
84741SOL     OW56119   1.661   6.850   7.581
84741SOL    HW156120   1.641   6.805   7.663
84741SOL    HW256121   1.665   6.780   7.516
84742SOL     OW56122   4.802   4.088  14.553
84742SOL    HW156123   4.895   4.073  14.538
84742SOL    HW256124   4.762   4.083  14.466
84743SOL     OW56125   8.090   9.587  13.353
84743SOL    HW156126   8.106   9.661  13.412
84743SOL    HW256127   8.002   9.557  13.376
84744SOL     OW56128  13.706  12.099   5.370
84744SOL    HW156129  13.650  12.058   5.435
84744SOL    HW256130  13.718  12.031   5.303
84745SOL     OW56131   3.388   6.224   4.157
84745SOL    HW156132   3.421   6.203   4.244
84745SOL    HW256133   3.320   6.289   4.172
84746SOL     OW56134  12.826   9.172   5.170
84746SOL    HW156135  12.796   9.255   5.134
84746SOL    HW256136  12.918   9.165   5.142
84747SOL     OW56137   8.720  13.612   3.487
84747SOL    HW156138   8.763  13.695   3.467
84747SOL    HW256139   8.759  13.549   3.427
84748SOL     OW56140   4.791  13.841   3.054
84748SOL    HW156141   4.701  13.865   3.034
84748SOL    HW256142   4.844  13.906   3.009
84749SOL     OW56143   8.225   8.017   9.675
84749SOL    HW156144   8.213   7.971   9.592
84749SOL    HW256145   8.221   8.110   9.652
84750SOL     OW56146   0.561   0.559  10.324
84750SOL    HW156147   0.632   0.614  10.358
84750SOL    HW256148   0.591   0.470  10.339
84751SOL     OW56149   7.471   2.112  13.160
84751SOL    HW156150   7.401   2.090  13.222
84751SOL    HW256151   7.491   2.030  13.117
84752SOL     OW56152   4.530   1.675   8.103
84752SOL    HW156153   4.613   1.646   8.141
84752SOL    HW256154   4.523   1.626   8.021
84753SOL     OW56155   8.994  14.243   5.113
84753SOL    HW156156   8.905  14.219   5.086
84753SOL    HW256157   9.035  14.160   5.135
84754SOL     OW56158   4.048   8.202   9.257
84754SOL    HW156159   4.020   8.265   9.323
84754SOL    HW256160   3.967   8.178   9.211
84755SOL     OW56161  11.191   5.586   5.749
84755SOL    HW156162  11.244   5.663   5.769
84755SOL    HW256163  11.103   5.621   5.732
84756SOL     OW56164   6.496   2.430   6.188
84756SOL    HW156165   6.558   2.430   6.115
84756SOL    HW256166   6.548   2.405   6.264
84757SOL     OW56167   3.616   9.196  13.267
84757SOL    HW156168   3.669   9.235  13.197
84757SOL    HW256169   3.529   9.186  13.230
84758SOL     OW56170  13.687  12.719   7.474
84758SOL    HW156171  13.685  12.630   7.510
84758SOL    HW256172  13.780  12.735   7.457
84759SOL     OW56173   7.523  10.001  13.200
84759SOL    HW156174   7.427   9.999  13.199
84759SOL    HW256175   7.547   9.964  13.285
84760SOL     OW56176   8.311  10.420   9.704
84760SOL    HW156177   8.251  10.457   9.768
84760SOL    HW256178   8.378  10.488   9.692
84761SOL     OW56179   0.203   0.801  10.724
84761SOL    HW156180   0.165   0.885  10.750
84761SOL    HW256181   0.173   0.788  10.634
84762SOL     OW56182   1.982   6.047   0.061
84762SOL    HW156183   1.984   6.046  14.842
84762SOL    HW256184   2.068   6.015   0.087
84763SOL     OW56185  12.627   8.435  11.316
84763SOL    HW156186  12.535   8.436  11.287
84763SOL    HW256187  12.625   8.390  11.400
84764SOL     OW56188  11.554   2.136  12.210
84764SOL    HW156189  11.630   2.171  12.163
84764SOL    HW256190  11.500   2.213  12.227
84765SOL     OW56191   5.133   8.912  10.162
84765SOL    HW156192   5.154   9.000  10.133
84765SOL    HW256193   5.041   8.900  10.141
84766SOL     OW56194  11.033  11.032   2.815
84766SOL    HW156195  11.118  11.018   2.774
84766SOL    HW256196  11.034  10.974   2.892
84767SOL     OW56197   9.557   7.083   9.010
84767SOL    HW156198   9.471   7.089   8.969
84767SOL    HW256199   9.618   7.116   8.944
84768SOL     OW56200   3.741   6.943   2.749
84768SOL    HW156201   3.822   6.935   2.698
84768SOL    HW256202   3.671   6.943   2.683
84769SOL     OW56203   0.084   5.700   9.624
84769SOL    HW156204   0.042   5.740   9.701
84769SOL    HW256205   0.148   5.639   9.661
84770SOL     OW56206   7.154  11.811   5.742
84770SOL    HW156207   7.194  11.845   5.662
84770SOL    HW256208   7.140  11.718   5.724
84771SOL     OW56209   5.592   8.975   6.033
84771SOL    HW156210   5.682   8.951   6.010
84771SOL    HW256211   5.545   8.971   5.950
84772SOL     OW56212   7.613   5.932  14.872
84772SOL    HW156213   7.565   5.891  14.800
84772SOL    HW256214   7.618   5.864   0.061
84773SOL     OW56215  12.106   3.464   6.000
84773SOL    HW156216  12.050   3.527   5.954
84773SOL    HW256217  12.195   3.495   5.982
84774SOL     OW56218   1.624  12.788   4.811
84774SOL    HW156219   1.717  12.770   4.819
84774SOL    HW256220   1.616  12.881   4.830
84775SOL     OW56221   6.154  14.218   7.914
84775SOL    HW156222   6.086  14.200   7.979
84775SOL    HW256223   6.232  14.237   7.966
84776SOL     OW56224   6.366   2.680  11.695
84776SOL    HW156225   6.297   2.704  11.756
84776SOL    HW256226   6.372   2.584  11.702
84777SOL     OW56227   8.007   3.280   8.500
84777SOL    HW156228   7.973   3.361   8.461
84777SOL    HW256229   8.001   3.215   8.430
84778SOL     OW56230   5.440   6.603   3.913
84778SOL    HW156231   5.446   6.532   3.849
84778SOL    HW256232   5.519   6.593   3.966
84779SOL     OW56233   2.123   0.721   4.584
84779SOL    HW156234   2.213   0.691   4.570
84779SOL    HW256235   2.101   0.692   4.673
84780SOL     OW56236   6.400   0.637   0.469
84780SOL    HW156237   6.452   0.566   0.431
84780SOL    HW256238   6.314   0.597   0.486
84781SOL     OW56239   9.524   0.841  12.549
84781SOL    HW156240   9.512   0.931  12.518
84781SOL    HW256241   9.608   0.813  12.512
84782SOL     OW56242   6.202   8.391   6.394
84782SOL    HW156243   6.221   8.389   6.488
84782SOL    HW256244   6.141   8.319   6.380
84783SOL     OW56245   0.423   2.629   0.794
84783SOL    HW156246   0.431   2.605   0.702
84783SOL    HW256247   0.391   2.720   0.793
84784SOL     OW56248  13.463   4.492   8.218
84784SOL    HW156249  13.509   4.454   8.143
84784SOL    HW256250  13.533   4.517   8.279
84785SOL     OW56251   6.696  12.132   1.826
84785SOL    HW156252   6.694  12.181   1.743
84785SOL    HW256253   6.648  12.051   1.808
84786SOL     OW56254  10.241  11.721  12.395
84786SOL    HW156255  10.159  11.695  12.353
84786SOL    HW256256  10.279  11.639  12.425
84787SOL     OW56257   2.566  10.772  10.985
84787SOL    HW156258   2.627  10.728  10.925
84787SOL    HW256259   2.484  10.724  10.974
84788SOL     OW56260  11.579   2.133  13.490
84788SOL    HW156261  11.674   2.139  13.505
84788SOL    HW256262  11.553   2.224  13.472
84789SOL     OW56263   7.842   1.784   2.986
84789SOL    HW156264   7.848   1.801   3.080
84789SOL    HW256265   7.845   1.688   2.979
84790SOL     OW56266   1.251  11.338   2.884
84790SOL    HW156267   1.236  11.245   2.865
84790SOL    HW256268   1.256  11.343   2.979
84791SOL     OW56269   6.831   1.600   9.493
84791SOL    HW156270   6.858   1.691   9.479
84791SOL    HW256271   6.878   1.572   9.571
84792SOL     OW56272  14.071   1.480   0.757
84792SOL    HW156273  14.001   1.424   0.723
84792SOL    HW256274  14.095   1.440   0.840
84793SOL     OW56275   2.801   6.468   7.837
84793SOL    HW156276   2.889   6.504   7.845
84793SOL    HW256277   2.759   6.523   7.770
84794SOL     OW56278   4.698   4.142   5.608
84794SOL    HW156279   4.609   4.176   5.621
84794SOL    HW256280   4.691   4.048   5.627
84795SOL     OW56281   9.696   4.011   2.486
84795SOL    HW156282   9.633   4.081   2.475
84795SOL    HW256283   9.705   4.001   2.580
84796SOL     OW56284   5.295   2.616   1.416
84796SOL    HW156285   5.257   2.642   1.332
84796SOL    HW256286   5.243   2.540   1.443
84797SOL     OW56287  13.895  11.589  11.003
84797SOL    HW156288  13.922  11.680  11.002
84797SOL    HW256289  13.976  11.539  10.989
84798SOL     OW56290  12.979   7.151   5.592
84798SOL    HW156291  12.995   7.070   5.639
84798SOL    HW256292  13.035   7.146   5.514
84799SOL     OW56293   0.556  10.761   9.938
84799SOL    HW156294   0.633  10.813   9.963
84799SOL    HW256295   0.491  10.826   9.912
84800SOL     OW56296   8.679   8.223   0.480
84800SOL    HW156297   8.660   8.139   0.438
84800SOL    HW256298   8.632   8.218   0.563
84801SOL     OW56299   8.034   1.662  13.511
84801SOL    HW156300   7.977   1.738  13.500
84801SOL    HW256301   8.076   1.652  13.425
84802SOL     OW56302   0.754  13.126   8.169
84802SOL    HW156303   0.665  13.097   8.188
84802SOL    HW256304   0.748  13.165   8.081
84803SOL     OW56305   0.907   6.804   4.407
84803SOL    HW156306   0.982   6.857   4.433
84803SOL    HW256307   0.939   6.714   4.412
84804SOL     OW56308   3.890  14.612   1.846
84804SOL    HW156309   3.874  14.530   1.892
84804SOL    HW256310   3.966  14.650   1.889
84805SOL     OW56311   3.802   8.130   5.157
84805SOL    HW156312   3.885   8.082   5.151
84805SOL    HW256313   3.763   8.099   5.239
84806SOL     OW56314   6.594  10.580   9.896
84806SOL    HW156315   6.618  10.569   9.988
84806SOL    HW256316   6.542  10.503   9.875
84807SOL     OW56317  11.388   7.224  14.435
84807SOL    HW156318  11.430   7.308  14.419
84807SOL    HW256319  11.320   7.244  14.500
84808SOL     OW56320   8.729   6.541  14.475
84808SOL    HW156321   8.755   6.460  14.520
84808SOL    HW256322   8.735   6.520  14.382
84809SOL     OW56323   5.821   7.543   9.808
84809SOL    HW156324   5.891   7.478   9.802
84809SOL    HW256325   5.850   7.604   9.876
84810SOL     OW56326   7.033  13.583   9.842
84810SOL    HW156327   7.059  13.633   9.920
84810SOL    HW256328   6.958  13.532   9.871
84811SOL     OW56329   8.292   3.616   1.306
84811SOL    HW156330   8.328   3.695   1.347
84811SOL    HW256331   8.306   3.628   1.212
84812SOL     OW56332  11.106   0.212   3.170
84812SOL    HW156333  11.190   0.206   3.125
84812SOL    HW256334  11.045   0.165   3.113
84813SOL     OW56335   2.454  11.353   5.394
84813SOL    HW156336   2.541  11.327   5.425
84813SOL    HW256337   2.462  11.353   5.299
84814SOL     OW56338   0.919   4.225   5.099
84814SOL    HW156339   0.985   4.226   5.030
84814SOL    HW256340   0.963   4.187   5.175
84815SOL     OW56341   5.866  12.319   3.746
84815SOL    HW156342   5.771  12.314   3.734
84815SOL    HW256343   5.877  12.356   3.834
84816SOL     OW56344  13.847  12.826   7.110
84816SOL    HW156345  13.848  12.860   7.021
84816SOL    HW256346  13.852  12.731   7.100
84817SOL     OW56347  11.260   3.473  13.072
84817SOL    HW156348  11.235   3.557  13.035
84817SOL    HW256349  11.179   3.437  13.109
84818SOL     OW56350   5.528   3.279   5.825
84818SOL    HW156351   5.537   3.369   5.855
84818SOL    HW256352   5.589   3.272   5.752
84819SOL     OW56353   9.340   0.105   9.536
84819SOL    HW156354   9.245   0.099   9.530
84819SOL    HW256355   9.370   0.014   9.534
84820SOL     OW56356   7.647   5.918   5.928
84820SOL    HW156357   7.731   5.961   5.910
84820SOL    HW256358   7.613   5.896   5.842
84821SOL     OW56359  13.786   7.935   9.203
84821SOL    HW156360  13.783   7.995   9.128
84821SOL    HW256361  13.741   7.981   9.274
84822SOL     OW56362   8.138   7.342   0.787
84822SOL    HW156363   8.146   7.248   0.775
84822SOL    HW256364   8.074   7.369   0.721
84823SOL     OW56365   8.937   7.796   8.254
84823SOL    HW156366   9.024   7.837   8.258
84823SOL    HW256367   8.921   7.766   8.343
84824SOL     OW56368   1.015   9.501   3.638
84824SOL    HW156369   0.983   9.411   3.647
84824SOL    HW256370   1.067   9.516   3.717
84825SOL     OW56371   6.139  14.286   2.582
84825SOL    HW156372   6.192  14.302   2.505
84825SOL    HW256373   6.114  14.193   2.575
84826SOL     OW56374   7.864  14.266   0.132
84826SOL    HW156375   7.797  14.298   0.071
84826SOL    HW256376   7.832  14.180   0.158
84827SOL     OW56377  12.640  11.813   2.654
84827SOL    HW156378  12.555  11.812   2.697
84827SOL    HW256379  12.696  11.759   2.710
84828SOL     OW56380   9.535   3.693  11.131
84828SOL    HW156381   9.490   3.644  11.063
84828SOL    HW256382   9.608   3.637  11.157
84829SOL     OW56383  13.598   7.332   7.551
84829SOL    HW156384  13.507   7.331   7.524
84829SOL    HW256385  13.617   7.424   7.569
84830SOL     OW56386   5.029  14.084   1.692
84830SOL    HW156387   5.118  14.048   1.694
84830SOL    HW256388   4.973  14.010   1.718
84831SOL     OW56389   0.372   6.309  14.848
84831SOL    HW156390   0.342   6.397  14.872
84831SOL    HW256391   0.293   6.266  14.813
84832SOL     OW56392   4.525   7.117   4.759
84832SOL    HW156393   4.459   7.055   4.791
84832SOL    HW256394   4.481   7.202   4.763
84833SOL     OW56395   6.062   4.760  12.989
84833SOL    HW156396   6.122   4.784  13.060
84833SOL    HW256397   6.000   4.700  13.030
84834SOL     OW56398   3.393   4.356  13.024
84834SOL    HW156399   3.444   4.395  12.953
84834SOL    HW256400   3.386   4.427  13.089
84835SOL     OW56401  12.050  12.990  12.867
84835SOL    HW156402  12.139  12.972  12.837
84835SOL    HW256403  12.004  12.906  12.857
84836SOL     OW56404   7.754   2.771   9.048
84836SOL    HW156405   7.821   2.737   8.989
84836SOL    HW256406   7.800   2.834   9.104
84837SOL     OW56407   1.313  10.837   1.786
84837SOL    HW156408   1.273  10.760   1.745
84837SOL    HW256409   1.364  10.802   1.859
84838SOL     OW56410   0.577   8.738   3.385
84838SOL    HW156411   0.573   8.699   3.297
84838SOL    HW256412   0.574   8.663   3.444
84839SOL     OW56413   0.457   9.465   0.583
84839SOL    HW156414   0.462   9.536   0.520
84839SOL    HW256415   0.371   9.425   0.566
84840SOL     OW56416   8.589   9.805   8.682
84840SOL    HW156417   8.518   9.833   8.625
84840SOL    HW256418   8.644   9.883   8.692
84841SOL     OW56419  14.444  10.829  11.843
84841SOL    HW156420  14.492  10.773  11.782
84841SOL    HW256421  14.467  10.918  11.817
84842SOL     OW56422   3.265   6.872   3.385
84842SOL    HW156423   3.354   6.851   3.413
84842SOL    HW256424   3.214   6.872   3.466
84843SOL     OW56425   0.593   8.424   2.992
84843SOL    HW156426   0.619   8.335   3.014
84843SOL    HW256427   0.581   8.468   3.076
84844SOL     OW56428   1.112   3.004   8.589
84844SOL    HW156429   1.155   3.029   8.507
84844SOL    HW256430   1.140   2.914   8.605
84845SOL     OW56431   8.933   5.160  12.377
84845SOL    HW156432   8.874   5.085  12.388
84845SOL    HW256433   8.874   5.235  12.366
84846SOL     OW56434  10.039   6.195   7.138
84846SOL    HW156435  10.063   6.120   7.192
84846SOL    HW256436  10.054   6.271   7.195
84847SOL     OW56437   0.051  13.093   3.688
84847SOL    HW156438  14.863  13.153   3.724
84847SOL    HW256439   0.133  13.118   3.732
84848SOL     OW56440   0.781   7.674  13.772
84848SOL    HW156441   0.743   7.632  13.850
84848SOL    HW256442   0.848   7.613  13.742
84849SOL     OW56443   6.615   7.047  12.521
84849SOL    HW156444   6.628   7.073  12.612
84849SOL    HW256445   6.602   7.129  12.474
84850SOL     OW56446   5.364   2.869   1.387
84850SOL    HW156447   5.458   2.873   1.403
84850SOL    HW256448   5.341   2.777   1.403
84851SOL     OW56449   2.564  10.296   8.184
84851SOL    HW156450   2.496  10.305   8.117
84851SOL    HW256451   2.647  10.301   8.136
84852SOL     OW56452   7.180  12.428  10.398
84852SOL    HW156453   7.268  12.460  10.414
84852SOL    HW256454   7.169  12.434  10.303
84853SOL     OW56455   7.923  12.426   7.644
84853SOL    HW156456   8.006  12.401   7.603
84853SOL    HW256457   7.870  12.347   7.638
84854SOL     OW56458   7.670   8.159   6.752
84854SOL    HW156459   7.613   8.209   6.811
84854SOL    HW256460   7.664   8.069   6.782
84855SOL     OW56461   9.214   3.747   3.777
84855SOL    HW156462   9.286   3.788   3.824
84855SOL    HW256463   9.139   3.755   3.837
84856SOL     OW56464   2.463   8.282  13.101
84856SOL    HW156465   2.404   8.220  13.058
84856SOL    HW256466   2.471   8.250  13.191
84857SOL     OW56467   3.131   7.709   2.677
84857SOL    HW156468   3.057   7.665   2.634
84857SOL    HW256469   3.189   7.638   2.703
84858SOL     OW56470   3.031   8.238   0.931
84858SOL    HW156471   2.981   8.211   0.855
84858SOL    HW256472   2.992   8.320   0.959
84859SOL     OW56473  11.906  14.104   9.428
84859SOL    HW156474  11.875  14.142   9.346
84859SOL    HW256475  11.828  14.071   9.471
84860SOL     OW56476   2.082  12.379  11.641
84860SOL    HW156477   2.068  12.306  11.702
84860SOL    HW256478   2.173  12.404  11.655
84861SOL     OW56479   4.193   4.604  10.551
84861SOL    HW156480   4.143   4.685  10.562
84861SOL    HW256481   4.207   4.572  10.640
84862SOL     OW56482   2.377  12.308   6.236
84862SOL    HW156483   2.353  12.271   6.151
84862SOL    HW256484   2.411  12.235   6.287
84863SOL     OW56485   7.496   3.525   6.211
84863SOL    HW156486   7.501   3.455   6.276
84863SOL    HW256487   7.546   3.597   6.249
84864SOL     OW56488   6.441   7.784   4.428
84864SOL    HW156489   6.535   7.802   4.432
84864SOL    HW256490   6.436   7.696   4.390
84865SOL     OW56491  11.902   1.656   5.799
84865SOL    HW156492  11.863   1.636   5.884
84865SOL    HW256493  11.922   1.750   5.804
84866SOL     OW56494  12.196  10.681  12.447
84866SOL    HW156495  12.276  10.733  12.450
84866SOL    HW256496  12.215  10.612  12.383
84867SOL     OW56497  14.742  11.301   1.055
84867SOL    HW156498  14.714  11.354   0.981
84867SOL    HW256499  14.722  11.353   1.132
84868SOL     OW56500   1.982   5.052   7.342
84868SOL    HW156501   2.031   5.006   7.274
84868SOL    HW256502   2.048   5.103   7.389
84869SOL     OW56503  13.747  14.080   8.672
84869SOL    HW156504  13.764  14.124   8.589
84869SOL    HW256505  13.676  14.130   8.712
84870SOL     OW56506   3.807   3.610  12.033
84870SOL    HW156507   3.850   3.691  12.006
84870SOL    HW256508   3.759   3.582  11.955
84871SOL     OW56509   7.788   7.529   1.445
84871SOL    HW156510   7.700   7.545   1.411
84871SOL    HW256511   7.809   7.607   1.496
84872SOL     OW56512   1.686   8.818   1.672
84872SOL    HW156513   1.647   8.858   1.593
84872SOL    HW256514   1.613   8.773   1.714
84873SOL     OW56515   7.412   3.530  12.965
84873SOL    HW156516   7.482   3.530  13.031
84873SOL    HW256517   7.424   3.611  12.916
84874SOL     OW56518   3.106   8.928  14.439
84874SOL    HW156519   3.048   8.860  14.474
84874SOL    HW256520   3.182   8.926  14.497
84875SOL     OW56521   8.793   5.405  13.960
84875SOL    HW156522   8.754   5.412  13.873
84875SOL    HW256523   8.879   5.366  13.945
84876SOL     OW56524   9.214  12.710   0.871
84876SOL    HW156525   9.292  12.723   0.924
84876SOL    HW256526   9.223  12.622   0.836
84877SOL     OW56527   0.615   9.214   4.594
84877SOL    HW156528   0.693   9.182   4.639
84877SOL    HW256529   0.602   9.152   4.522
84878SOL     OW56530   0.502  14.351   1.454
84878SOL    HW156531   0.452  14.409   1.396
84878SOL    HW256532   0.567  14.408   1.495
84879SOL     OW56533   1.574   4.768   9.967
84879SOL    HW156534   1.537   4.780  10.054
84879SOL    HW256535   1.596   4.675   9.962
84880SOL     OW56536   6.417  14.097   9.458
84880SOL    HW156537   6.348  14.057   9.511
84880SOL    HW256538   6.492  14.102   9.517
84881SOL     OW56539   1.962   6.788  11.996
84881SOL    HW156540   1.945   6.705  11.952
84881SOL    HW256541   2.054   6.783  12.022
84882SOL     OW56542   9.981   2.403   5.710
84882SOL    HW156543  10.012   2.487   5.743
84882SOL    HW256544   9.936   2.423   5.628
84883SOL     OW56545   8.574   4.897   0.913
84883SOL    HW156546   8.580   4.939   0.999
84883SOL    HW256547   8.661   4.908   0.875
84884SOL     OW56548   2.883   9.855   1.019
84884SOL    HW156549   2.802   9.813   0.988
84884SOL    HW256550   2.950   9.824   0.958
84885SOL     OW56551   2.328   2.277   7.849
84885SOL    HW156552   2.380   2.291   7.928
84885SOL    HW256553   2.246   2.238   7.881
84886SOL     OW56554   3.029   0.482  11.241
84886SOL    HW156555   2.987   0.506  11.324
84886SOL    HW256556   3.069   0.563  11.210
84887SOL     OW56557   7.702  10.203  12.168
84887SOL    HW156558   7.666  10.221  12.256
84887SOL    HW256559   7.654  10.263  12.111
84888SOL     OW56560   0.466   6.055  12.860
84888SOL    HW156561   0.475   6.046  12.766
84888SOL    HW256562   0.409   6.131  12.872
84889SOL     OW56563   4.702  11.014   1.486
84889SOL    HW156564   4.768  10.955   1.450
84889SOL    HW256565   4.619  10.968   1.476
84890SOL     OW56566   9.527  14.598  14.186
84890SOL    HW156567   9.571  14.576  14.103
84890SOL    HW256568   9.435  14.610  14.162
84891SOL     OW56569   8.472   8.181   9.019
84891SOL    HW156570   8.461   8.275   9.003
84891SOL    HW256571   8.461   8.172   9.114
84892SOL     OW56572   2.550   4.989   7.980
84892SOL    HW156573   2.553   5.078   7.945
84892SOL    HW256574   2.472   4.950   7.941
84893SOL     OW56575  11.252   9.972  10.852
84893SOL    HW156576  11.273   9.982  10.945
84893SOL    HW256577  11.193  10.045  10.832
84894SOL     OW56578  14.779   5.480  11.238
84894SOL    HW156579  14.815   5.509  11.154
84894SOL    HW256580  14.686   5.466  11.220
84895SOL     OW56581   2.332   9.796   3.281
84895SOL    HW156582   2.341   9.832   3.369
84895SOL    HW256583   2.292   9.867   3.230
84896SOL     OW56584   4.294  10.204   9.153
84896SOL    HW156585   4.270  10.186   9.062
84896SOL    HW256586   4.251  10.286   9.174
84897SOL     OW56587  11.746   7.135   3.175
84897SOL    HW156588  11.682   7.115   3.107
84897SOL    HW256589  11.815   7.070   3.164
84898SOL     OW56590   0.252   3.392   7.511
84898SOL    HW156591   0.272   3.441   7.431
84898SOL    HW256592   0.162   3.417   7.533
84899SOL     OW56593   0.085  14.398   1.583
84899SOL    HW156594   0.027  14.322   1.598
84899SOL    HW256595   0.173  14.361   1.585
84900SOL     OW56596   6.386   7.511   7.578
84900SOL    HW156597   6.365   7.428   7.620
84900SOL    HW256598   6.330   7.513   7.500
84901SOL     OW56599  12.932   7.650  10.949
84901SOL    HW156600  12.908   7.661  11.041
84901SOL    HW256601  12.850   7.661  10.901
84902SOL     OW56602   6.362   4.357   0.183
84902SOL    HW156603   6.417   4.426   0.146
84902SOL    HW256604   6.409   4.276   0.163
84903SOL     OW56605   7.285  12.712   7.318
84903SOL    HW156606   7.354  12.725   7.253
84903SOL    HW256607   7.290  12.789   7.374
84904SOL     OW56608  14.557  14.087   7.172
84904SOL    HW156609  14.587  14.013   7.226
84904SOL    HW256610  14.579  14.164   7.223
84905SOL     OW56611   9.580   4.304   2.194
84905SOL    HW156612   9.587   4.347   2.279
84905SOL    HW256613   9.670   4.304   2.160
84906SOL     OW56614  12.013   8.427   3.552
84906SOL    HW156615  12.105   8.406   3.534
84906SOL    HW256616  12.017   8.492   3.623
84907SOL     OW56617   4.709   5.190   6.605
84907SOL    HW156618   4.749   5.203   6.520
84907SOL    HW256619   4.660   5.108   6.596
84908SOL     OW56620   2.222  14.475   1.446
84908SOL    HW156621   2.191  14.387   1.426
84908SOL    HW256622   2.317  14.468   1.449
84909SOL     OW56623   2.028   0.696  12.230
84909SOL    HW156624   2.063   0.654  12.308
84909SOL    HW256625   2.090   0.768  12.212
84910SOL     OW56626  13.958   9.520   1.158
84910SOL    HW156627  14.051   9.538   1.142
84910SOL    HW256628  13.933   9.583   1.225
84911SOL     OW56629   1.472   1.597   3.442
84911SOL    HW156630   1.495   1.630   3.529
84911SOL    HW256631   1.451   1.505   3.456
84912SOL     OW56632   2.029  10.282   2.349
84912SOL    HW156633   2.050  10.188   2.341
84912SOL    HW256634   2.069  10.321   2.271
84913SOL     OW56635   6.114  13.495   2.141
84913SOL    HW156636   6.194  13.451   2.169
84913SOL    HW256637   6.053  13.482   2.214
84914SOL     OW56638  13.156   0.194   7.358
84914SOL    HW156639  13.181   0.160   7.443
84914SOL    HW256640  13.141   0.287   7.373
84915SOL     OW56641   7.978   3.017   6.241
84915SOL    HW156642   8.048   2.954   6.224
84915SOL    HW256643   7.913   2.968   6.292
84916SOL     OW56644  11.331   8.370   4.178
84916SOL    HW156645  11.418   8.374   4.219
84916SOL    HW256646  11.271   8.393   4.249
84917SOL     OW56647  11.976   5.148   5.947
84917SOL    HW156648  11.999   5.239   5.964
84917SOL    HW256649  11.899   5.153   5.890
84918SOL     OW56650   3.363  14.505  10.441
84918SOL    HW156651   3.372  14.417  10.407
84918SOL    HW256652   3.432  14.555  10.398
84919SOL     OW56653  11.165  12.156   6.027
84919SOL    HW156654  11.163  12.225   5.961
84919SOL    HW256655  11.073  12.139   6.047
84920SOL     OW56656  11.922  13.196   9.956
84920SOL    HW156657  11.957  13.180  10.044
84920SOL    HW256658  11.892  13.109   9.927
84921SOL     OW56659  11.386   2.364  12.454
84921SOL    HW156660  11.318   2.332  12.395
84921SOL    HW256661  11.413   2.287  12.504
84922SOL     OW56662  11.388   6.459  14.210
84922SOL    HW156663  11.355   6.454  14.300
84922SOL    HW256664  11.431   6.375  14.196
84923SOL     OW56665  13.788   4.714   7.788
84923SOL    HW156666  13.774   4.693   7.880
84923SOL    HW256667  13.844   4.792   7.789
84924SOL     OW56668  13.048  12.860   8.006
84924SOL    HW156669  13.072  12.813   7.926
84924SOL    HW256670  13.119  12.841   8.067
84925SOL     OW56671  11.396  14.834   4.836
84925SOL    HW156672  11.484  14.797   4.835
84925SOL    HW256673  11.388   0.003   4.752
84926SOL     OW56674  10.394   2.467  12.741
84926SOL    HW156675  10.434   2.497  12.823
84926SOL    HW256676  10.334   2.396  12.769
84927SOL     OW56677   0.100   5.548  14.379
84927SOL    HW156678   0.063   5.554  14.467
84927SOL    HW256679   0.079   5.458  14.351
84928SOL     OW56680   0.156   4.107   1.732
84928SOL    HW156681   0.069   4.067   1.727
84928SOL    HW256682   0.197   4.086   1.649
84929SOL     OW56683  12.207   6.116   0.172
84929SOL    HW156684  12.274   6.149   0.112
84929SOL    HW256685  12.161   6.048   0.123
84930SOL     OW56686  12.448   4.945  11.884
84930SOL    HW156687  12.435   4.930  11.790
84930SOL    HW256688  12.390   4.883  11.927
84931SOL     OW56689   6.418   2.994   6.195
84931SOL    HW156690   6.430   2.968   6.104
84931SOL    HW256691   6.443   2.916   6.246
84932SOL     OW56692   5.086   7.977  12.782
84932SOL    HW156693   5.035   7.920  12.840
84932SOL    HW256694   5.081   8.063  12.823
84933SOL     OW56695   4.416   9.292   1.876
84933SOL    HW156696   4.383   9.342   1.951
84933SOL    HW256697   4.396   9.347   1.800
84934SOL     OW56698   2.224  14.519  14.281
84934SOL    HW156699   2.201  14.570  14.358
84934SOL    HW256700   2.157  14.542  14.215
84935SOL     OW56701  11.368   6.679   5.325
84935SOL    HW156702  11.377   6.597   5.375
84935SOL    HW256703  11.330   6.740   5.388
84936SOL     OW56704  11.227   7.565   9.551
84936SOL    HW156705  11.277   7.619   9.489
84936SOL    HW256706  11.203   7.487   9.501
84937SOL     OW56707  11.235   2.253  14.825
84937SOL    HW156708  11.249   2.319   0.016
84937SOL    HW256709  11.268   2.295  14.745
84938SOL     OW56710   1.897   5.288  11.720
84938SOL    HW156711   1.945   5.371  11.711
84938SOL    HW256712   1.814   5.303  11.676
84939SOL     OW56713   1.803  11.118   7.936
84939SOL    HW156714   1.822  11.026   7.954
84939SOL    HW256715   1.760  11.149   8.016
84940SOL     OW56716   1.398   0.049  13.800
84940SOL    HW156717   1.335   0.065  13.729
84940SOL    HW256718   1.456  14.859  13.765
84941SOL     OW56719   2.462   0.882   5.583
84941SOL    HW156720   2.484   0.850   5.671
84941SOL    HW256721   2.394   0.948   5.597
84942SOL     OW56722  13.631   4.869   5.894
84942SOL    HW156723  13.672   4.919   5.965
84942SOL    HW256724  13.624   4.780   5.929
84943SOL     OW56725  11.627  11.422   1.305
84943SOL    HW156726  11.623  11.354   1.238
84943SOL    HW256727  11.650  11.375   1.386
84944SOL     OW56728   2.809   7.545   7.450
84944SOL    HW156729   2.886   7.579   7.404
84944SOL    HW256730   2.779   7.472   7.396
84945SOL     OW56731   2.280   2.178   4.981
84945SOL    HW156732   2.350   2.233   5.017
84945SOL    HW256733   2.271   2.207   4.891
84946SOL     OW56734   1.466  10.273   3.349
84946SOL    HW156735   1.548  10.300   3.308
84946SOL    HW256736   1.487  10.268   3.442
84947SOL     OW56737   6.026   5.603   3.242
84947SOL    HW156738   6.114   5.576   3.268
84947SOL    HW256739   6.040   5.664   3.170
84948SOL     OW56740   3.075   7.465   3.849
84948SOL    HW156741   3.099   7.405   3.920
84948SOL    HW256742   3.150   7.524   3.842
84949SOL     OW56743   6.347   2.271   8.098
84949SOL    HW156744   6.306   2.341   8.049
84949SOL    HW256745   6.426   2.250   8.048
84950SOL     OW56746  13.732   8.891  12.926
84950SOL    HW156747  13.755   8.940  12.847
84950SOL    HW256748  13.642   8.862  12.911
84951SOL     OW56749  13.367   4.605   7.414
84951SOL    HW156750  13.328   4.626   7.329
84951SOL    HW256751  13.398   4.689   7.447
84952SOL     OW56752   0.786   3.045  11.322
84952SOL    HW156753   0.715   3.023  11.262
84952SOL    HW256754   0.825   2.960  11.344
84953SOL     OW56755  14.464   6.516   5.829
84953SOL    HW156756  14.394   6.558   5.877
84953SOL    HW256757  14.531   6.498   5.895
84954SOL     OW56758   5.374  10.934   7.199
84954SOL    HW156759   5.422  10.909   7.278
84954SOL    HW256760   5.438  10.926   7.129
84955SOL     OW56761   3.758   2.867   7.405
84955SOL    HW156762   3.701   2.920   7.462
84955SOL    HW256763   3.811   2.815   7.465
84956SOL     OW56764  13.325   7.846   9.668
84956SOL    HW156765  13.246   7.803   9.637
84956SOL    HW256766  13.378   7.859   9.589
84957SOL     OW56767  12.863   7.248   4.936
84957SOL    HW156768  12.907   7.267   5.019
84957SOL    HW256769  12.825   7.332   4.910
84958SOL     OW56770  11.844   0.078   4.717
84958SOL    HW156771  11.842   0.149   4.780
84958SOL    HW256772  11.799   0.113   4.640
84959SOL     OW56773  11.212   1.859   7.774
84959SOL    HW156774  11.198   1.782   7.719
84959SOL    HW256775  11.307   1.868   7.779
84960SOL     OW56776   9.966  13.478   0.249
84960SOL    HW156777   9.965  13.414   0.320
84960SOL    HW256778   9.889  13.533   0.264
84961SOL     OW56779   0.474   8.665  10.502
84961SOL    HW156780   0.504   8.603  10.568
84961SOL    HW256781   0.522   8.641  10.423
84962SOL     OW56782  14.630   4.277   2.226
84962SOL    HW156783  14.631   4.351   2.165
84962SOL    HW256784  14.599   4.203   2.174
84963SOL     OW56785   1.521  11.051   0.086
84963SOL    HW156786   1.612  11.025   0.098
84963SOL    HW256787   1.475  11.016   0.162
84964SOL     OW56788   6.319   7.560   3.950
84964SOL    HW156789   6.241   7.524   3.994
84964SOL    HW256790   6.295   7.650   3.928
84965SOL     OW56791   7.466   6.632   1.577
84965SOL    HW156792   7.511   6.704   1.534
84965SOL    HW256793   7.397   6.673   1.628
84966SOL     OW56794   3.118   2.765   1.830
84966SOL    HW156795   3.205   2.795   1.804
84966SOL    HW256796   3.091   2.708   1.757
84967SOL     OW56797  12.081   8.179   5.455
84967SOL    HW156798  12.137   8.106   5.431
84967SOL    HW256799  12.136   8.235   5.509
84968SOL     OW56800   0.972  13.244   1.717
84968SOL    HW156801   0.925  13.269   1.796
84968SOL    HW256802   0.916  13.274   1.645
84969SOL     OW56803   1.189   6.052   3.113
84969SOL    HW156804   1.124   6.120   3.097
84969SOL    HW256805   1.142   5.970   3.099
84970SOL     OW56806   2.555   7.134   6.627
84970SOL    HW156807   2.490   7.086   6.677
84970SOL    HW256808   2.639   7.097   6.653
84971SOL     OW56809   3.043   0.617   2.846
84971SOL    HW156810   3.062   0.639   2.755
84971SOL    HW256811   3.079   0.689   2.896
84972SOL     OW56812   5.074  13.857   4.913
84972SOL    HW156813   5.085  13.830   5.005
84972SOL    HW256814   5.003  13.921   4.916
84973SOL     OW56815   0.101  13.098   2.040
84973SOL    HW156816   0.014  13.076   2.009
84973SOL    HW256817   0.159  13.038   1.992
84974SOL     OW56818  12.194   3.968   3.138
84974SOL    HW156819  12.157   4.055   3.123
84974SOL    HW256820  12.129   3.907   3.102
84975SOL     OW56821  14.381   6.406   9.860
84975SOL    HW156822  14.343   6.318   9.859
84975SOL    HW256823  14.475   6.392   9.874
84976SOL     OW56824   1.496   0.440  12.798
84976SOL    HW156825   1.444   0.369  12.761
84976SOL    HW256826   1.482   0.513  12.738
84977SOL     OW56827   7.784   9.515   5.108
84977SOL    HW156828   7.761   9.562   5.188
84977SOL    HW256829   7.784   9.423   5.134
84978SOL     OW56830   2.766  14.652  14.475
84978SOL    HW156831   2.749  14.737  14.514
84978SOL    HW256832   2.834  14.613  14.531
84979SOL     OW56833   3.421  13.333   6.050
84979SOL    HW156834   3.394  13.242   6.058
84979SOL    HW256835   3.517  13.329   6.048
84980SOL     OW56836   1.871  13.887   3.079
84980SOL    HW156837   1.815  13.859   3.151
84980SOL    HW256838   1.824  13.862   3.000
84981SOL     OW56839   4.307   3.696   6.902
84981SOL    HW156840   4.306   3.638   6.978
84981SOL    HW256841   4.397   3.731   6.900
84982SOL     OW56842   0.745   1.106   7.663
84982SOL    HW156843   0.653   1.088   7.680
84982SOL    HW256844   0.792   1.069   7.738
84983SOL     OW56845   5.830  12.326   6.062
84983SOL    HW156846   5.738  12.314   6.087
84983SOL    HW256847   5.878  12.322   6.145
84984SOL     OW56848   6.483   1.555   7.974
84984SOL    HW156849   6.575   1.549   8.000
84984SOL    HW256850   6.440   1.601   8.045
84985SOL     OW56851   9.737   5.946   7.756
84985SOL    HW156852   9.662   5.992   7.719
84985SOL    HW256853   9.811   6.006   7.742
84986SOL     OW56854   5.204  13.208   7.426
84986SOL    HW156855   5.283  13.220   7.374
84986SOL    HW256856   5.156  13.138   7.382
84987SOL     OW56857   1.020  14.712  11.302
84987SOL    HW156858   1.110  14.695  11.274
84987SOL    HW256859   1.026  14.722  11.397
84988SOL     OW56860   9.146   7.802   6.265
84988SOL    HW156861   9.080   7.832   6.202
84988SOL    HW256862   9.116   7.714   6.291
84989SOL     OW56863   9.570   8.849   8.395
84989SOL    HW156864   9.614   8.926   8.359
84989SOL    HW256865   9.488   8.883   8.431
84990SOL     OW56866  12.186   9.916   6.287
84990SOL    HW156867  12.151   9.964   6.212
84990SOL    HW256868  12.278   9.944   6.293
84991SOL     OW56869   5.244  10.857   1.122
84991SOL    HW156870   5.267  10.923   1.057
84991SOL    HW256871   5.301  10.877   1.197
84992SOL     OW56872   8.203   3.837   2.333
84992SOL    HW156873   8.278   3.815   2.277
84992SOL    HW256874   8.191   3.759   2.387
84993SOL     OW56875  10.557   7.187  13.392
84993SOL    HW156876  10.601   7.171  13.475
84993SOL    HW256877  10.628   7.205  13.331
84994SOL     OW56878  13.726  12.233   8.379
84994SOL    HW156879  13.706  12.275   8.462
84994SOL    HW256880  13.749  12.143   8.403
84995SOL     OW56881   2.353   9.890  14.353
84995SOL    HW156882   2.315   9.964  14.307
84995SOL    HW256883   2.293   9.817  14.336
84996SOL     OW56884   9.805   8.344   9.803
84996SOL    HW156885   9.819   8.329   9.897
84996SOL    HW256886   9.796   8.256   9.766
84997SOL     OW56887   8.961   7.439  14.599
84997SOL    HW156888   8.929   7.485  14.677
84997SOL    HW256889   8.977   7.350  14.628
84998SOL     OW56890  10.314  13.907   9.035
84998SOL    HW156891  10.244  13.968   9.010
84998SOL    HW256892  10.285  13.822   9.003
84999SOL     OW56893  11.778   8.126  11.401
84999SOL    HW156894  11.860   8.084  11.427
84999SOL    HW256895  11.740   8.156  11.484
85000SOL     OW56896   0.357   8.444   6.953
85000SOL    HW156897   0.389   8.532   6.976
85000SOL    HW256898   0.419   8.413   6.887
85001SOL     OW56899   5.682  10.428  10.075
85001SOL    HW156900   5.767  10.438  10.032
85001SOL    HW256901   5.704  10.414  10.167
85002SOL     OW56902   0.671   6.728   9.990
85002SOL    HW156903   0.578   6.723  10.011
85002SOL    HW256904   0.676   6.789   9.916
85003SOL     OW56905   1.946   9.468   9.602
85003SOL    HW156906   1.859   9.507   9.595
85003SOL    HW256907   1.956   9.447   9.695
85004SOL     OW56908  11.131   9.816   9.435
85004SOL    HW156909  11.137   9.911   9.420
85004SOL    HW256910  11.197   9.798   9.503
85005SOL     OW56911  12.335  13.946  13.603
85005SOL    HW156912  12.429  13.964  13.612
85005SOL    HW256913  12.323  13.861  13.646
85006SOL     OW56914  10.886   5.217   7.406
85006SOL    HW156915  10.905   5.200   7.314
85006SOL    HW256916  10.798   5.181   7.420
85007SOL     OW56917   9.565   5.939   6.132
85007SOL    HW156918   9.639   5.999   6.130
85007SOL    HW256919   9.527   5.951   6.219
85008SOL     OW56920   8.486   6.320   1.512
85008SOL    HW156921   8.419   6.308   1.579
85008SOL    HW256922   8.469   6.251   1.447
85009SOL     OW56923  10.066  12.878   2.755
85009SOL    HW156924   9.986  12.831   2.731
85009SOL    HW256925  10.038  12.942   2.820
85010SOL     OW56926   8.959   4.319  11.380
85010SOL    HW156927   8.908   4.397  11.402
85010SOL    HW256928   8.951   4.311  11.285
85011SOL     OW56929  11.834  12.385   9.707
85011SOL    HW156930  11.793  12.299   9.716
85011SOL    HW256931  11.761  12.444   9.689
85012SOL     OW56932   8.475   4.819  13.169
85012SOL    HW156933   8.564   4.854  13.175
85012SOL    HW256934   8.422   4.878  13.222
85013SOL     OW56935   2.908  11.703   2.172
85013SOL    HW156936   2.933  11.622   2.128
85013SOL    HW256937   2.988  11.756   2.173
85014SOL     OW56938  10.296   6.978  10.122
85014SOL    HW156939  10.390   6.967  10.110
85014SOL    HW256940  10.274   7.053  10.068
85015SOL     OW56941  14.601   2.541   2.025
85015SOL    HW156942  14.513   2.511   2.003
85015SOL    HW256943  14.629   2.485   2.098
85016SOL     OW56944   0.828  10.984   0.382
85016SOL    HW156945   0.808  11.060   0.327
85016SOL    HW256946   0.878  10.926   0.324
85017SOL     OW56947  12.798  13.138   0.243
85017SOL    HW156948  12.723  13.190   0.273
85017SOL    HW256949  12.819  13.082   0.318
85018SOL     OW56950   9.832   9.065   9.777
85018SOL    HW156951   9.761   9.121   9.809
85018SOL    HW256952   9.869   9.114   9.703
85019SOL     OW56953   4.988   2.245   9.579
85019SOL    HW156954   4.897   2.273   9.591
85019SOL    HW256955   5.033   2.275   9.657
85020SOL     OW56956   0.653   5.194   6.029
85020SOL    HW156957   0.681   5.103   6.038
85020SOL    HW256958   0.576   5.191   5.973
85021SOL     OW56959   8.391   8.325  11.785
85021SOL    HW156960   8.326   8.355  11.722
85021SOL    HW256961   8.475   8.343  11.742
85022SOL     OW56962   9.757   6.591  11.664
85022SOL    HW156963   9.737   6.670  11.713
85022SOL    HW256964   9.713   6.521  11.711
85023SOL     OW56965   2.175   2.793  12.048
85023SOL    HW156966   2.151   2.764  11.960
85023SOL    HW256967   2.257   2.841  12.036
85024SOL     OW56968   4.360   6.502  11.206
85024SOL    HW156969   4.396   6.590  11.204
85024SOL    HW256970   4.270   6.513  11.237
85025SOL     OW56971   7.988   1.107   3.688
85025SOL    HW156972   8.025   1.023   3.661
85025SOL    HW256973   7.905   1.084   3.730
85026SOL     OW56974   8.512  10.621   4.747
85026SOL    HW156975   8.494  10.528   4.761
85026SOL    HW256976   8.481  10.664   4.827
85027SOL     OW56977   9.085   9.965   9.216
85027SOL    HW156978   9.149   9.938   9.151
85027SOL    HW256979   9.134   9.967   9.299
85028SOL     OW56980   2.249   7.102   8.233
85028SOL    HW156981   2.250   7.048   8.155
85028SOL    HW256982   2.337   7.091   8.270
85029SOL     OW56983  13.392   7.809  13.876
85029SOL    HW156984  13.359   7.745  13.813
85029SOL    HW256985  13.427   7.756  13.948
85030SOL     OW56986   4.484   6.797   2.822
85030SOL    HW156987   4.514   6.714   2.784
85030SOL    HW256988   4.441   6.772   2.904
85031SOL     OW56989  11.061   9.806   8.703
85031SOL    HW156990  11.013   9.830   8.624
85031SOL    HW256991  11.061   9.886   8.756
85032SOL     OW56992   4.940  12.411  12.368
85032SOL    HW156993   4.970  12.380  12.453
85032SOL    HW256994   4.964  12.341  12.307
85033SOL     OW56995   7.899   9.996   0.115
85033SOL    HW156996   7.823   9.942   0.095
85033SOL    HW256997   7.951   9.995   0.035
85034SOL     OW56998   9.962   4.734  13.902
85034SOL    HW156999   9.978   4.753  13.809
85034SOL    HW257000   9.872   4.761  13.917
85035SOL     OW57001   8.755   8.922   4.022
85035SOL    HW157002   8.783   8.908   4.113
85035SOL    HW257003   8.710   9.006   4.024
85036SOL     OW57004   7.315  10.900   9.988
85036SOL    HW157005   7.244  10.964   9.974
85036SOL    HW257006   7.270  10.815   9.989
85037SOL     OW57007  11.508   8.615   1.188
85037SOL    HW157008  11.428   8.658   1.218
85037SOL    HW257009  11.517   8.643   1.096
85038SOL     OW57010  12.540   6.088   6.684
85038SOL    HW157011  12.561   6.162   6.742
85038SOL    HW257012  12.625   6.060   6.650
85039SOL     OW57013   5.124   9.263  13.716
85039SOL    HW157014   5.148   9.170  13.721
85039SOL    HW257015   5.192   9.307  13.767
85040SOL     OW57016   0.760   2.741   2.373
85040SOL    HW157017   0.705   2.686   2.317
85040SOL    HW257018   0.834   2.765   2.318
85041SOL     OW57019  12.419  10.046   1.970
85041SOL    HW157020  12.473  10.005   2.038
85041SOL    HW257021  12.458  10.017   1.888
85042SOL     OW57022  14.177  10.490  10.706
85042SOL    HW157023  14.125  10.570  10.711
85042SOL    HW257024  14.127  10.432  10.648
85043SOL     OW57025   8.472  12.426   8.256
85043SOL    HW157026   8.466  12.331   8.252
85043SOL    HW257027   8.382  12.456   8.270
85044SOL     OW57028   2.360   0.389  14.650
85044SOL    HW157029   2.272   0.386  14.613
85044SOL    HW257030   2.363   0.315  14.711
85045SOL     OW57031   0.249   6.871   0.300
85045SOL    HW157032   0.283   6.895   0.214
85045SOL    HW257033   0.244   6.954   0.348
85046SOL     OW57034  14.594   8.386   4.090
85046SOL    HW157035  14.530   8.382   4.161
85046SOL    HW257036  14.552   8.440   4.023
85047SOL     OW57037   3.411  11.083   4.460
85047SOL    HW157038   3.340  11.083   4.524
85047SOL    HW257039   3.367  11.096   4.376
85048SOL     OW57040  13.448   0.386   7.668
85048SOL    HW157041  13.474   0.294   7.665
85048SOL    HW257042  13.369   0.387   7.722
85049SOL     OW57043  13.913   4.777   4.733
85049SOL    HW157044  13.862   4.856   4.751
85049SOL    HW257045  14.004   4.806   4.732
85050SOL     OW57046   6.035  12.114   4.555
85050SOL    HW157047   6.009  12.028   4.589
85050SOL    HW257048   5.958  12.145   4.508
85051SOL     OW57049   6.106   1.735   5.705
85051SOL    HW157050   6.198   1.715   5.718
85051SOL    HW257051   6.075   1.768   5.789
85052SOL     OW57052  13.940   0.764   4.220
85052SOL    HW157053  13.968   0.725   4.303
85052SOL    HW257054  13.867   0.821   4.244
85053SOL     OW57055  11.467  11.863   6.326
85053SOL    HW157056  11.393  11.891   6.272
85053SOL    HW257057  11.444  11.892   6.414
85054SOL     OW57058   9.547   4.522   7.155
85054SOL    HW157059   9.604   4.575   7.099
85054SOL    HW257060   9.479   4.583   7.185
85055SOL     OW57061   3.558  11.225  10.123
85055SOL    HW157062   3.511  11.240  10.205
85055SOL    HW257063   3.508  11.155  10.080
85056SOL     OW57064   3.598   2.796   0.156
85056SOL    HW157065   3.614   2.763   0.245
85056SOL    HW257066   3.679   2.775   0.108
85057SOL     OW57067   6.273  10.516   6.862
85057SOL    HW157068   6.276  10.421   6.875
85057SOL    HW257069   6.365  10.542   6.859
85058SOL     OW57070  14.525   1.781  13.041
85058SOL    HW157071  14.532   1.873  13.069
85058SOL    HW257072  14.482   1.786  12.956
85059SOL     OW57073  11.318   7.504  11.790
85059SOL    HW157074  11.279   7.575  11.841
85059SOL    HW257075  11.412   7.523  11.790
85060SOL     OW57076   7.372   9.039   9.175
85060SOL    HW157077   7.370   9.128   9.141
85060SOL    HW257078   7.327   9.044   9.259
85061SOL     OW57079  12.856  14.559  12.603
85061SOL    HW157080  12.782  14.606  12.565
85061SOL    HW257081  12.838  14.466  12.585
85062SOL     OW57082   7.458   3.185   0.011
85062SOL    HW157083   7.478   3.094  14.868
85062SOL    HW257084   7.543   3.224   0.031
85063SOL     OW57085   5.923  12.272  11.564
85063SOL    HW157086   5.977  12.278  11.485
85063SOL    HW257087   5.885  12.359  11.574
85064SOL     OW57088   5.974   7.828  13.841
85064SOL    HW157089   5.965   7.734  13.858
85064SOL    HW257090   5.984   7.834  13.746
85065SOL     OW57091  11.296   3.636   4.680
85065SOL    HW157092  11.274   3.581   4.756
85065SOL    HW257093  11.233   3.610   4.613
85066SOL     OW57094  14.135   6.268   2.121
85066SOL    HW157095  14.094   6.273   2.035
85066SOL    HW257096  14.117   6.179   2.151
85067SOL     OW57097  10.871   3.924   5.617
85067SOL    HW157098  10.872   4.019   5.629
85067SOL    HW257099  10.945   3.907   5.558
85068SOL     OW57100  14.792   6.822  11.563
85068SOL    HW157101  14.814   6.731  11.583
85068SOL    HW257102  14.697   6.822  11.553
85069SOL     OW57103  10.246   3.754  12.935
85069SOL    HW157104  10.305   3.786  13.003
85069SOL    HW257105  10.161   3.793  12.957
85070SOL     OW57106  14.624   1.859  10.254
85070SOL    HW157107  14.699   1.806  10.279
85070SOL    HW257108  14.649   1.948  10.277
85071SOL     OW57109   5.994  14.054  10.472
85071SOL    HW157110   6.088  14.060  10.489
85071SOL    HW257111   5.953  14.085  10.553
85072SOL     OW57112   2.506   1.331   7.328
85072SOL    HW157113   2.475   1.318   7.417
85072SOL    HW257114   2.428   1.322   7.273
85073SOL     OW57115  11.985   0.156  12.823
85073SOL    HW157116  11.902   0.153  12.870
85073SOL    HW257117  12.045   0.106  12.878
85074SOL     OW57118   9.803   2.712  10.893
85074SOL    HW157119   9.894   2.735  10.914
85074SOL    HW257120   9.790   2.746  10.804
85075SOL     OW57121   3.370   3.339   6.463
85075SOL    HW157122   3.361   3.320   6.557
85075SOL    HW257123   3.425   3.268   6.429
85076SOL     OW57124   3.474   2.750  11.592
85076SOL    HW157125   3.551   2.807  11.595
85076SOL    HW257126   3.510   2.662  11.588
85077SOL     OW57127   9.305  11.564   8.682
85077SOL    HW157128   9.299  11.632   8.750
85077SOL    HW257129   9.221  11.518   8.687
85078SOL     OW57130   6.452   3.628  10.857
85078SOL    HW157131   6.403   3.586  10.786
85078SOL    HW257132   6.508   3.692  10.813
85079SOL     OW57133   6.651   7.691   1.971
85079SOL    HW157134   6.616   7.770   1.931
85079SOL    HW257135   6.727   7.721   2.022
85080SOL     OW57136   8.932   1.832   3.687
85080SOL    HW157137   8.964   1.749   3.721
85080SOL    HW257138   8.976   1.899   3.740
85081SOL     OW57139   6.308  14.095  10.404
85081SOL    HW157140   6.287  14.167  10.464
85081SOL    HW257141   6.286  14.129  10.317
85082SOL     OW57142  11.448  14.858  12.081
85082SOL    HW157143  11.392  14.791  12.121
85082SOL    HW257144  11.403   0.005  12.000
85083SOL     OW57145  12.922   2.758   9.441
85083SOL    HW157146  12.971   2.811   9.379
85083SOL    HW257147  12.959   2.671   9.433
85084SOL     OW57148   6.841  14.741  13.535
85084SOL    HW157149   6.901  14.799  13.582
85084SOL    HW257150   6.757  14.786  13.537
85085SOL     OW57151   2.441   2.061  14.801
85085SOL    HW157152   2.494   2.114  14.860
85085SOL    HW257153   2.350   2.080  14.825
85086SOL     OW57154  14.483   5.547   7.547
85086SOL    HW157155  14.537   5.626   7.544
85086SOL    HW257156  14.540   5.478   7.513
85087SOL     OW57157   9.578   5.676  12.299
85087SOL    HW157158   9.509   5.623  12.257
85087SOL    HW257159   9.601   5.627  12.378
85088SOL     OW57160   4.436   9.844   4.215
85088SOL    HW157161   4.511   9.821   4.270
85088SOL    HW257162   4.456   9.933   4.183
85089SOL     OW57163   1.669   5.766  11.371
85089SOL    HW157164   1.582   5.738  11.398
85089SOL    HW257165   1.696   5.700  11.307
85090SOL     OW57166  11.796  11.326  13.622
85090SOL    HW157167  11.738  11.284  13.559
85090SOL    HW257168  11.836  11.253  13.669
85091SOL     OW57169   2.438   3.290   5.587
85091SOL    HW157170   2.412   3.359   5.526
85091SOL    HW257171   2.430   3.209   5.536
85092SOL     OW57172  12.319  11.234   1.696
85092SOL    HW157173  12.261  11.282   1.636
85092SOL    HW257174  12.284  11.252   1.783
85093SOL     OW57175   3.968   2.131   8.610
85093SOL    HW157176   3.931   2.210   8.647
85093SOL    HW257177   3.982   2.073   8.685
85094SOL     OW57178   1.701   2.430   7.301
85094SOL    HW157179   1.610   2.417   7.273
85094SOL    HW257180   1.750   2.435   7.219
85095SOL     OW57181   0.314   2.073   1.488
85095SOL    HW157182   0.373   2.142   1.457
85095SOL    HW257183   0.356   2.040   1.567
85096SOL     OW57184  13.604  14.347  12.939
85096SOL    HW157185  13.673  14.413  12.946
85096SOL    HW257186  13.523  14.397  12.947
85097SOL     OW57187   4.079   5.438  14.571
85097SOL    HW157188   4.026   5.361  14.589
85097SOL    HW257189   4.091   5.437  14.476
85098SOL     OW57190   5.108   3.896   1.837
85098SOL    HW157191   5.082   3.891   1.745
85098SOL    HW257192   5.171   3.969   1.840
85099SOL     OW57193   6.690  11.689  12.622
85099SOL    HW157194   6.727  11.759  12.568
85099SOL    HW257195   6.631  11.642  12.563
85100SOL     OW57196   8.868   9.300   7.301
85100SOL    HW157197   8.815   9.371   7.339
85100SOL    HW257198   8.895   9.333   7.215
85101SOL     OW57199  14.297  11.777   9.597
85101SOL    HW157200  14.279  11.853   9.541
85101SOL    HW257201  14.222  11.719   9.583
85102SOL     OW57202   6.161   0.453   5.552
85102SOL    HW157203   6.248   0.472   5.588
85102SOL    HW257204   6.178   0.399   5.475
85103SOL     OW57205   1.783   5.934   3.127
85103SOL    HW157206   1.785   5.945   3.032
85103SOL    HW257207   1.707   5.985   3.156
85104SOL     OW57208   0.001   1.546  13.842
85104SOL    HW157209  14.807   1.589  13.889
85104SOL    HW257210  14.839   1.516  13.760
85105SOL     OW57211   5.230  11.691   5.510
85105SOL    HW157212   5.306  11.692   5.568
85105SOL    HW257213   5.171  11.757   5.547
85106SOL     OW57214   1.019   8.973   4.079
85106SOL    HW157215   0.996   9.026   4.155
85106SOL    HW257216   0.965   8.894   4.087
85107SOL     OW57217   2.094   4.928   2.673
85107SOL    HW157218   2.127   4.994   2.612
85107SOL    HW257219   2.167   4.913   2.733
85108SOL     OW57220   5.821  10.004  11.132
85108SOL    HW157221   5.809   9.909  11.139
85108SOL    HW257222   5.882  10.015  11.059
85109SOL     OW57223  12.613   9.709  14.802
85109SOL    HW157224  12.537   9.743  14.849
85109SOL    HW257225  12.684   9.709  14.866
85110SOL     OW57226   4.983   4.678  14.328
85110SOL    HW157227   4.974   4.672  14.423
85110SOL    HW257228   5.000   4.771  14.312
85111SOL     OW57229   4.966   6.076  13.573
85111SOL    HW157230   4.885   6.126  13.580
85111SOL    HW257231   5.029   6.137  13.534
85112SOL     OW57232   8.819   0.600  12.114
85112SOL    HW157233   8.858   0.650  12.185
85112SOL    HW257234   8.733   0.641  12.100
85113SOL     OW57235  14.390  12.458  12.603
85113SOL    HW157236  14.466  12.459  12.662
85113SOL    HW257237  14.391  12.545  12.563
85114SOL     OW57238  10.427   0.725   0.157
85114SOL    HW157239  10.439   0.712   0.063
85114SOL    HW257240  10.368   0.653   0.184
85115SOL     OW57241   1.211  13.952  12.912
85115SOL    HW157242   1.271  13.976  12.982
85115SOL    HW257243   1.238  13.864  12.886
85116SOL     OW57244   1.358   6.149   9.881
85116SOL    HW157245   1.343   6.055   9.891
85116SOL    HW257246   1.318   6.188   9.959
85117SOL     OW57247   7.782  10.883   2.395
85117SOL    HW157248   7.699  10.911   2.356
85117SOL    HW257249   7.772  10.902   2.488
85118SOL     OW57250  14.015  12.267  13.962
85118SOL    HW157251  14.033  12.306  14.048
85118SOL    HW257252  14.091  12.289  13.909
85119SOL     OW57253   0.075   8.311   3.690
85119SOL    HW157254   0.108   8.222   3.680
85119SOL    HW257255   0.114   8.360   3.618
85120SOL     OW57256   7.452  11.953  14.559
85120SOL    HW157257   7.386  12.021  14.553
85120SOL    HW257258   7.510  11.982  14.631
85121SOL     OW57259  13.904   4.470  14.667
85121SOL    HW157260  13.884   4.459  14.760
85121SOL    HW257261  13.989   4.513  14.666
85122SOL     OW57262  11.191   2.603   3.731
85122SOL    HW157263  11.153   2.521   3.701
85122SOL    HW257264  11.266   2.577   3.785
85123SOL     OW57265   5.900   2.988   0.758
85123SOL    HW157266   5.980   2.957   0.716
85123SOL    HW257267   5.924   2.996   0.851
85124SOL     OW57268  10.868   9.923  12.606
85124SOL    HW157269  10.774   9.903  12.613
85124SOL    HW257270  10.908   9.873  12.676
85125SOL     OW57271   7.057  13.387  10.853
85125SOL    HW157272   7.070  13.381  10.758
85125SOL    HW257273   6.972  13.429  10.863
85126SOL     OW57274  14.060   8.317   0.030
85126SOL    HW157275  13.986   8.296  14.850
85126SOL    HW257276  14.072   8.238   0.083
85127SOL     OW57277   2.028   9.552   6.555
85127SOL    HW157278   1.985   9.473   6.522
85127SOL    HW257279   2.098   9.519   6.611
85128SOL     OW57280   6.652   5.265  14.470
85128SOL    HW157281   6.610   5.208  14.407
85128SOL    HW257282   6.659   5.212  14.550
85129SOL     OW57283   2.883   3.469  13.935
85129SOL    HW157284   2.852   3.538  13.876
85129SOL    HW257285   2.957   3.429  13.889
85130SOL     OW57286   3.701   6.035   1.670
85130SOL    HW157287   3.734   5.949   1.697
85130SOL    HW257288   3.606   6.025   1.670
85131SOL     OW57289  10.178   2.082   1.942
85131SOL    HW157290  10.239   2.011   1.922
85131SOL    HW257291  10.143   2.108   1.857
85132SOL     OW57292   4.181   1.801  10.848
85132SOL    HW157293   4.186   1.879  10.793
85132SOL    HW257294   4.157   1.730  10.788
85133SOL     OW57295  13.525   9.224  10.317
85133SOL    HW157296  13.584   9.160  10.357
85133SOL    HW257297  13.555   9.232  10.227
85134SOL     OW57298  11.072  13.686   6.016
85134SOL    HW157299  11.045  13.622   6.082
85134SOL    HW257300  10.992  13.730   5.990
85135SOL     OW57301   8.384   5.727  13.960
85135SOL    HW157302   8.400   5.632  13.966
85135SOL    HW257303   8.470   5.766  13.975
85136SOL     OW57304   2.058  11.439  13.760
85136SOL    HW157305   2.139  11.428  13.809
85136SOL    HW257306   1.993  11.387  13.808
85137SOL     OW57307   4.437   1.251   9.408
85137SOL    HW157308   4.457   1.342   9.388
85137SOL    HW257309   4.353   1.254   9.454
85138SOL     OW57310  13.558   6.953   9.636
85138SOL    HW157311  13.539   7.044   9.658
85138SOL    HW257312  13.502   6.934   9.561
85139SOL     OW57313  10.826   0.528  11.677
85139SOL    HW157314  10.744   0.521  11.724
85139SOL    HW257315  10.894   0.525  11.745
85140SOL     OW57316   8.181   8.933   3.459
85140SOL    HW157317   8.274   8.917   3.474
85140SOL    HW257318   8.157   8.876   3.387
85141SOL     OW57319   3.896  10.346  13.717
85141SOL    HW157320   3.803  10.325  13.715
85141SOL    HW257321   3.901  10.438  13.692
85142SOL     OW57322   6.441   2.953   9.940
85142SOL    HW157323   6.378   2.926  10.006
85142SOL    HW257324   6.511   2.996   9.990
85143SOL     OW57325   9.979  13.734   9.640
85143SOL    HW157326   9.980  13.702   9.730
85143SOL    HW257327  10.068  13.721   9.609
85144SOL     OW57328  10.684   2.973   2.793
85144SOL    HW157329  10.592   2.976   2.767
85144SOL    HW257330  10.730   3.021   2.724
85145SOL     OW57331   2.804   9.863   0.078
85145SOL    HW157332   2.738   9.793   0.070
85145SOL    HW257333   2.858   9.836   0.152
85146SOL     OW57334  12.041   4.343   8.408
85146SOL    HW157335  12.080   4.376   8.328
85146SOL    HW257336  12.062   4.249   8.409
85147SOL     OW57337  12.903   2.966  11.457
85147SOL    HW157338  12.845   3.037  11.429
85147SOL    HW257339  12.991   3.005  11.454
85148SOL     OW57340   0.100   9.000   0.714
85148SOL    HW157341   0.045   8.964   0.784
85148SOL    HW257342   0.187   8.964   0.733
85149SOL     OW57343  13.074   0.256   6.757
85149SOL    HW157344  13.040   0.265   6.846
85149SOL    HW257345  13.115   0.340   6.738
85150SOL     OW57346   4.151  10.269   4.276
85150SOL    HW157347   4.186  10.201   4.334
85150SOL    HW257348   4.225  10.327   4.259
85151SOL     OW57349   7.377   3.173   2.027
85151SOL    HW157350   7.392   3.220   1.945
85151SOL    HW257351   7.392   3.238   2.096
85152SOL     OW57352   2.685  13.876  11.603
85152SOL    HW157353   2.721  13.881  11.514
85152SOL    HW257354   2.750  13.921  11.658
85153SOL     OW57355  10.865   6.918   2.908
85153SOL    HW157356  10.784   6.954   2.870
85153SOL    HW257357  10.931   6.931   2.840
85154SOL     OW57358   4.314   0.900  10.430
85154SOL    HW157359   4.388   0.847  10.398
85154SOL    HW257360   4.310   0.974  10.370
85155SOL     OW57361   9.019   1.374   8.698
85155SOL    HW157362   8.962   1.358   8.623
85155SOL    HW257363   8.977   1.445   8.746
85156SOL     OW57364   4.712   2.957  11.111
85156SOL    HW157365   4.766   2.909  11.175
85156SOL    HW257366   4.772   3.019  11.071
85157SOL     OW57367  11.164   3.870   4.702
85157SOL    HW157368  11.229   3.802   4.688
85157SOL    HW257369  11.082   3.822   4.714
85158SOL     OW57370   7.213  11.444  11.415
85158SOL    HW157371   7.290  11.406  11.372
85158SOL    HW257372   7.139  11.395  11.377
85159SOL     OW57373   4.315  14.228  13.565
85159SOL    HW157374   4.323  14.193  13.654
85159SOL    HW257375   4.404  14.224  13.531
85160SOL     OW57376  10.661  12.058   5.019
85160SOL    HW157377  10.740  12.091   4.977
85160SOL    HW257378  10.685  12.047   5.111
85161SOL     OW57379   2.923  13.541  13.438
85161SOL    HW157380   2.844  13.553  13.491
85161SOL    HW257381   2.904  13.465  13.383
85162SOL     OW57382   2.434  13.869   4.153
85162SOL    HW157383   2.395  13.781   4.150
85162SOL    HW257384   2.461  13.887   4.063
85163SOL     OW57385  12.951  12.748  10.544
85163SOL    HW157386  12.968  12.705  10.460
85163SOL    HW257387  13.037  12.763  10.582
85164SOL     OW57388   5.705   3.799  14.696
85164SOL    HW157389   5.796   3.828  14.697
85164SOL    HW257390   5.655   3.873  14.729
85165SOL     OW57391   2.356  14.648   2.025
85165SOL    HW157392   2.319  14.736   2.027
85165SOL    HW257393   2.357  14.620   2.117
85166SOL     OW57394   7.173  14.061   8.980
85166SOL    HW157395   7.099  14.114   8.950
85166SOL    HW257396   7.133  13.981   9.015
85167SOL     OW57397   4.599  13.105   5.743
85167SOL    HW157398   4.586  13.021   5.789
85167SOL    HW257399   4.652  13.157   5.804
85168SOL     OW57400  14.776   7.786   1.638
85168SOL    HW157401  14.695   7.766   1.685
85168SOL    HW257402  14.815   7.858   1.687
85169SOL     OW57403   5.813   6.994   1.975
85169SOL    HW157404   5.885   6.974   2.035
85169SOL    HW257405   5.736   7.002   2.031
85170SOL     OW57406  11.844  13.412   2.511
85170SOL    HW157407  11.879  13.451   2.591
85170SOL    HW257408  11.885  13.325   2.508
85171SOL     OW57409  11.559  13.687   9.902
85171SOL    HW157410  11.534  13.749   9.970
85171SOL    HW257411  11.574  13.741   9.824
85172SOL     OW57412  12.688   0.692   0.335
85172SOL    HW157413  12.617   0.630   0.318
85172SOL    HW257414  12.644   0.778   0.334
85173SOL     OW57415  14.095   1.726  11.130
85173SOL    HW157416  14.169   1.749  11.185
85173SOL    HW257417  14.085   1.631  11.142
85174SOL     OW57418   3.237   1.843   1.496
85174SOL    HW157419   3.258   1.816   1.586
85174SOL    HW257420   3.259   1.767   1.443
85175SOL     OW57421   8.889  12.572  12.436
85175SOL    HW157422   8.936  12.640  12.483
85175SOL    HW257423   8.812  12.616  12.400
85176SOL     OW57424  12.525  10.415  11.031
85176SOL    HW157425  12.559  10.348  10.972
85176SOL    HW257426  12.602  10.447  11.079
85177SOL     OW57427   5.149   2.671   4.175
85177SOL    HW157428   5.124   2.718   4.096
85177SOL    HW257429   5.155   2.579   4.149
85178SOL     OW57430   9.774   0.324  13.310
85178SOL    HW157431   9.866   0.328  13.286
85178SOL    HW257432   9.749   0.232  13.295
85179SOL     OW57433   5.449   2.682   7.103
85179SOL    HW157434   5.398   2.705   7.025
85179SOL    HW257435   5.540   2.699   7.078
85180SOL     OW57436   0.904   9.361  10.188
85180SOL    HW157437   0.992   9.400  10.195
85180SOL    HW257438   0.914   9.291  10.123
85181SOL     OW57439  14.035   0.758   8.566
85181SOL    HW157440  14.119   0.722   8.539
85181SOL    HW257441  14.015   0.825   8.501
85182SOL     OW57442  10.334  11.965   2.017
85182SOL    HW157443  10.355  11.897   2.080
85182SOL    HW257444  10.409  11.967   1.957
85183SOL     OW57445   3.009   5.674   7.629
85183SOL    HW157446   3.074   5.744   7.629
85183SOL    HW257447   3.033   5.619   7.555
85184SOL     OW57448  12.108   7.207  10.740
85184SOL    HW157449  12.170   7.259  10.791
85184SOL    HW257450  12.087   7.133  10.796
85185SOL     OW57451   8.599   0.470  10.931
85185SOL    HW157452   8.553   0.388  10.947
85185SOL    HW257453   8.572   0.527  11.003
85186SOL     OW57454   9.472   2.983   1.633
85186SOL    HW157455   9.382   2.968   1.662
85186SOL    HW257456   9.487   3.076   1.646
85187SOL     OW57457  13.180  11.676   6.285
85187SOL    HW157458  13.243  11.726   6.234
85187SOL    HW257459  13.135  11.741   6.339
85188SOL     OW57460  10.686   7.545   7.315
85188SOL    HW157461  10.621   7.573   7.379
85188SOL    HW257462  10.767   7.587   7.343
85189SOL     OW57463   0.167   5.461   2.882
85189SOL    HW157464   0.084   5.418   2.899
85189SOL    HW257465   0.159   5.546   2.925
85190SOL     OW57466   6.767   1.789  13.095
85190SOL    HW157467   6.742   1.865  13.147
85190SOL    HW257468   6.685   1.742  13.081
85191SOL     OW57469   4.815  11.465  10.760
85191SOL    HW157470   4.902  11.476  10.722
85191SOL    HW257471   4.813  11.527  10.833
85192SOL     OW57472  14.189   6.134   3.659
85192SOL    HW157473  14.211   6.043   3.637
85192SOL    HW257474  14.101   6.130   3.695
85193SOL     OW57475   9.093   4.839  14.091
85193SOL    HW157476   9.051   4.755  14.111
85193SOL    HW257477   9.125   4.871  14.175
85194SOL     OW57478   0.356   4.324   3.562
85194SOL    HW157479   0.281   4.327   3.621
85194SOL    HW257480   0.335   4.255   3.500
85195SOL     OW57481   8.223  14.628   5.834
85195SOL    HW157482   8.179  14.601   5.915
85195SOL    HW257483   8.155  14.623   5.767
85196SOL     OW57484   0.169   5.835   5.301
85196SOL    HW157485   0.181   5.879   5.217
85196SOL    HW257486   0.126   5.752   5.280
85197SOL     OW57487  12.542   7.121  14.179
85197SOL    HW157488  12.558   7.040  14.228
85197SOL    HW257489  12.466   7.100  14.124
85198SOL     OW57490   3.941   7.738   0.281
85198SOL    HW157491   4.032   7.715   0.264
85198SOL    HW257492   3.925   7.815   0.226
85199SOL     OW57493   0.729  14.196  13.949
85199SOL    HW157494   0.718  14.205  13.854
85199SOL    HW257495   0.822  14.177  13.960
85200SOL     OW57496   6.907   4.966   4.164
85200SOL    HW157497   6.813   4.958   4.183
85200SOL    HW257498   6.942   4.879   4.183
85201SOL     OW57499   5.700  11.525  12.165
85201SOL    HW157500   5.669  11.616  12.162
85201SOL    HW257501   5.792  11.530  12.142
85202SOL     OW57502   0.274  11.477   5.239
85202SOL    HW157503   0.290  11.507   5.329
85202SOL    HW257504   0.254  11.557   5.191
85203SOL     OW57505  14.570  10.638  12.282
85203SOL    HW157506  14.476  10.635  12.298
85203SOL    HW257507  14.583  10.720  12.232
85204SOL     OW57508   2.227   7.404   1.493
85204SOL    HW157509   2.263   7.352   1.422
85204SOL    HW257510   2.206   7.489   1.453
85205SOL     OW57511   6.878  10.561   2.126
85205SOL    HW157512   6.888  10.471   2.158
85205SOL    HW257513   6.789  10.564   2.091
85206SOL     OW57514  11.704   7.418  10.861
85206SOL    HW157515  11.786   7.433  10.813
85206SOL    HW257516  11.641   7.477  10.819
85207SOL     OW57517   2.103   8.725   9.827
85207SOL    HW157518   2.019   8.683   9.808
85207SOL    HW257519   2.143   8.738   9.741
85208SOL     OW57520   0.972   1.423  12.789
85208SOL    HW157521   1.012   1.399  12.705
85208SOL    HW257522   1.044   1.455  12.842
85209SOL     OW57523   3.266   1.386  11.887
85209SOL    HW157524   3.216   1.467  11.885
85209SOL    HW257525   3.209   1.324  11.932
85210SOL     OW57526  14.368   5.385   0.554
85210SOL    HW157527  14.346   5.477   0.568
85210SOL    HW257528  14.461   5.385   0.534
85211SOL     OW57529   6.297   7.893   1.296
85211SOL    HW157530   6.280   7.817   1.240
85211SOL    HW257531   6.211   7.915   1.332
85212SOL     OW57532   8.156   9.883   8.379
85212SOL    HW157533   8.078   9.840   8.414
85212SOL    HW257534   8.229   9.846   8.430
85213SOL     OW57535  11.652   2.607   0.063
85213SOL    HW157536  11.604   2.525   0.072
85213SOL    HW257537  11.585   2.672   0.043
85214SOL     OW57538   9.787  13.233  12.598
85214SOL    HW157539   9.870  13.205  12.636
85214SOL    HW257540   9.778  13.179  12.519
85215SOL     OW57541   9.602   2.003   2.744
85215SOL    HW157542   9.531   2.068   2.737
85215SOL    HW257543   9.640   2.019   2.830
85216SOL     OW57544   6.687   3.626   2.018
85216SOL    HW157545   6.679   3.676   1.936
85216SOL    HW257546   6.781   3.621   2.034
85217SOL     OW57547  14.388   2.591   5.815
85217SOL    HW157548  14.405   2.528   5.885
85217SOL    HW257549  14.348   2.538   5.745
85218SOL     OW57550   2.960   1.121  11.425
85218SOL    HW157551   3.003   1.153  11.504
85218SOL    HW257552   2.899   1.055  11.456
85219SOL     OW57553   0.475   3.037  11.524
85219SOL    HW157554   0.402   2.977  11.508
85219SOL    HW257555   0.551   2.980  11.535
85220SOL     OW57556   6.882   0.914   7.036
85220SOL    HW157557   6.811   0.975   7.058
85220SOL    HW257558   6.946   0.926   7.106
85221SOL     OW57559   8.507   6.560   3.972
85221SOL    HW157560   8.469   6.627   3.915
85221SOL    HW257561   8.594   6.543   3.935
85222SOL     OW57562  10.309   2.310   2.002
85222SOL    HW157563  10.250   2.236   1.988
85222SOL    HW257564  10.396   2.270   2.005
85223SOL     OW57565   7.352   0.814   7.329
85223SOL    HW157566   7.358   0.756   7.405
85223SOL    HW257567   7.384   0.898   7.361
85224SOL     OW57568  11.036   0.589  12.941
85224SOL    HW157569  11.034   0.535  12.862
85224SOL    HW257570  11.111   0.647  12.929
85225SOL     OW57571   9.692   2.247   0.199
85225SOL    HW157572   9.613   2.241   0.253
85225SOL    HW257573   9.764   2.235   0.261
85226SOL     OW57574   3.761  14.085   1.941
85226SOL    HW157575   3.800  14.015   1.887
85226SOL    HW257576   3.767  14.052   2.031
85227SOL     OW57577  14.141   1.246   4.496
85227SOL    HW157578  14.143   1.245   4.400
85227SOL    HW257579  14.229   1.277   4.521
85228SOL     OW57580  13.953   3.180   5.725
85228SOL    HW157581  13.995   3.094   5.715
85228SOL    HW257582  13.860   3.162   5.722
85229SOL     OW57583   7.791   1.001   4.310
85229SOL    HW157584   7.809   1.054   4.387
85229SOL    HW257585   7.855   0.929   4.315
85230SOL     OW57586  11.761   2.400   6.539
85230SOL    HW157587  11.692   2.397   6.472
85230SOL    HW257588  11.783   2.308   6.554
85231SOL     OW57589  12.138   8.356   0.532
85231SOL    HW157590  12.045   8.364   0.508
85231SOL    HW257591  12.144   8.396   0.619
85232SOL     OW57592   4.970  14.044   2.980
85232SOL    HW157593   5.004  14.114   2.924
85232SOL    HW257594   4.956  14.086   3.065
85233SOL     OW57595  14.458   8.007   0.757
85233SOL    HW157596  14.530   7.963   0.711
85233SOL    HW257597  14.500   8.070   0.814
85234SOL     OW57598  13.116  14.037  12.792
85234SOL    HW157599  13.132  13.977  12.720
85234SOL    HW257600  13.036  14.083  12.768
85235SOL     OW57601  14.550  10.767  10.982
85235SOL    HW157602  14.551  10.673  10.964
85235SOL    HW257603  14.481  10.778  11.047
85236SOL     OW57604   9.162  12.816  13.071
85236SOL    HW157605   9.202  12.863  12.998
85236SOL    HW257606   9.236  12.773  13.114
85237SOL     OW57607   1.174   1.551   4.606
85237SOL    HW157608   1.195   1.643   4.625
85237SOL    HW257609   1.219   1.532   4.524
85238SOL     OW57610   7.151   9.180   2.053
85238SOL    HW157611   7.065   9.186   2.093
85238SOL    HW257612   7.149   9.099   2.001
85239SOL     OW57613   1.154  12.505  11.982
85239SOL    HW157614   1.115  12.518  12.068
85239SOL    HW257615   1.242  12.541  11.990
85240SOL     OW57616   5.916  10.033  12.535
85240SOL    HW157617   5.997   9.996  12.498
85240SOL    HW257618   5.856  10.037  12.460
85241SOL     OW57619   7.498  13.499  11.051
85241SOL    HW157620   7.487  13.412  11.013
85241SOL    HW257621   7.446  13.497  11.131
85242SOL     OW57622  11.819   4.765   6.043
85242SOL    HW157623  11.753   4.696   6.031
85242SOL    HW257624  11.772   4.835   6.090
85243SOL     OW57625   9.243   3.466  11.914
85243SOL    HW157626   9.148   3.470  11.905
85243SOL    HW257627   9.268   3.381  11.878
85244SOL     OW57628   3.922   1.710   2.314
85244SOL    HW157629   3.914   1.653   2.237
85244SOL    HW257630   4.011   1.695   2.346
85245SOL     OW57631   7.751  10.887   2.015
85245SOL    HW157632   7.681  10.907   1.952
85245SOL    HW257633   7.708  10.834   2.082
85246SOL     OW57634   8.855   8.318  13.745
85246SOL    HW157635   8.868   8.235  13.790
85246SOL    HW257636   8.935   8.368  13.762
85247SOL     OW57637   0.399   8.779   9.019
85247SOL    HW157638   0.391   8.713   8.950
85247SOL    HW257639   0.488   8.813   9.008
85248SOL     OW57640  10.157   9.462   3.126
85248SOL    HW157641  10.072   9.443   3.085
85248SOL    HW257642  10.212   9.491   3.054
85249SOL     OW57643   7.894  11.047  14.580
85249SOL    HW157644   7.928  11.036  14.491
85249SOL    HW257645   7.947  10.988  14.634
85250SOL     OW57646  13.605  12.552   7.815
85250SOL    HW157647  13.555  12.477   7.846
85250SOL    HW257648  13.552  12.628   7.839
85251SOL     OW57649   8.271   9.701   4.571
85251SOL    HW157650   8.301   9.791   4.582
85251SOL    HW257651   8.208   9.688   4.642
85252SOL     OW57652   9.841   0.857   7.184
85252SOL    HW157653   9.886   0.804   7.119
85252SOL    HW257654   9.753   0.870   7.148
85253SOL     OW57655  13.634   1.173  14.227
85253SOL    HW157656  13.566   1.107  14.244
85253SOL    HW257657  13.677   1.143  14.147
85254SOL     OW57658   5.644  10.123  12.622
85254SOL    HW157659   5.729  10.079  12.615
85254SOL    HW257660   5.657  10.209  12.583
85255SOL     OW57661   3.689  12.632   9.149
85255SOL    HW157662   3.761  12.622   9.212
85255SOL    HW257663   3.734  12.642   9.064
85256SOL     OW57664   0.176  12.153   6.049
85256SOL    HW157665   0.148  12.062   6.047
85256SOL    HW257666   0.125  12.195   5.980
85257SOL     OW57667  12.520   5.389  14.481
85257SOL    HW157668  12.424   5.393  14.478
85257SOL    HW257669  12.548   5.431  14.399
85258SOL     OW57670  10.568   3.166   6.770
85258SOL    HW157671  10.534   3.201   6.852
85258SOL    HW257672  10.648   3.119   6.795
85259SOL     OW57673  14.614   1.346   1.238
85259SOL    HW157674  14.622   1.383   1.151
85259SOL    HW257675  14.677   1.395   1.292
85260SOL     OW57676   4.507  12.925  10.467
85260SOL    HW157677   4.434  12.986  10.466
85260SOL    HW257678   4.466  12.839  10.459
85261SOL     OW57679   3.930   5.549   4.309
85261SOL    HW157680   3.943   5.641   4.286
85261SOL    HW257681   4.004   5.528   4.366
85262SOL     OW57682  12.130  13.720   1.484
85262SOL    HW157683  12.050  13.741   1.437
85262SOL    HW257684  12.148  13.629   1.463
85263SOL     OW57685  10.227   1.024   7.003
85263SOL    HW157686  10.134   1.004   7.018
85263SOL    HW257687  10.270   0.999   7.085
85264SOL     OW57688   9.602  14.069   2.826
85264SOL    HW157689   9.539  14.065   2.755
85264SOL    HW257690   9.685  14.041   2.786
85265SOL     OW57691  11.462  12.239   0.266
85265SOL    HW157692  11.461  12.333   0.248
85265SOL    HW257693  11.383  12.205   0.223
85266SOL     OW57694   1.696   9.488   6.760
85266SOL    HW157695   1.629   9.472   6.693
85266SOL    HW257696   1.647   9.487   6.843
85267SOL     OW57697  10.038   0.868   5.501
85267SOL    HW157698  10.083   0.948   5.528
85267SOL    HW257699  10.090   0.835   5.427
85268SOL     OW57700   4.904  13.422   7.636
85268SOL    HW157701   4.871  13.478   7.566
85268SOL    HW257702   4.836  13.424   7.704
85269SOL     OW57703   6.221  13.843   1.323
85269SOL    HW157704   6.284  13.777   1.354
85269SOL    HW257705   6.253  13.925   1.359
85270SOL     OW57706   8.095   4.448   0.533
85270SOL    HW157707   8.091   4.380   0.466
85270SOL    HW257708   8.144   4.519   0.492
85271SOL     OW57709   9.285  11.148   9.307
85271SOL    HW157710   9.262  11.241   9.304
85271SOL    HW257711   9.234  11.108   9.236
85272SOL     OW57712  14.074   4.397   5.979
85272SOL    HW157713  14.023   4.479   5.972
85272SOL    HW257714  14.073   4.376   6.072
85273SOL     OW57715   7.795   2.854  13.833
85273SOL    HW157716   7.707   2.843  13.870
85273SOL    HW257717   7.779   2.875  13.741
85274SOL     OW57718  13.670   1.219   7.519
85274SOL    HW157719  13.697   1.128   7.529
85274SOL    HW257720  13.717   1.266   7.589
85275SOL     OW57721  12.791   1.440   8.222
85275SOL    HW157722  12.797   1.348   8.247
85275SOL    HW257723  12.735   1.441   8.145
85276SOL     OW57724  10.932   2.268  12.515
85276SOL    HW157725  10.920   2.302  12.604
85276SOL    HW257726  10.990   2.192  12.526
85277SOL     OW57727   4.557   7.775   4.720
85277SOL    HW157728   4.618   7.844   4.747
85277SOL    HW257729   4.480   7.788   4.776
85278SOL     OW57730  12.897   8.130  14.844
85278SOL    HW157731  12.888   8.056   0.026
85278SOL    HW257732  12.991   8.144  14.837
85279SOL     OW57733   3.847   0.551   4.421
85279SOL    HW157734   3.909   0.618   4.451
85279SOL    HW257735   3.902   0.484   4.380
85280SOL     OW57736   0.051   8.775  14.818
85280SOL    HW157737   0.115   8.842  14.842
85280SOL    HW257738   0.068   8.703   0.001
85281SOL     OW57739   8.706   0.116   9.594
85281SOL    HW157740   8.621   0.144   9.628
85281SOL    HW257741   8.766   0.187   9.619
85282SOL     OW57742   9.123   1.885  12.203
85282SOL    HW157743   9.177   1.840  12.268
85282SOL    HW257744   9.170   1.874  12.120
85283SOL     OW57745   8.204   3.480   5.795
85283SOL    HW157746   8.283   3.501   5.745
85283SOL    HW257747   8.133   3.525   5.748
85284SOL     OW57748   1.003   2.603   3.280
85284SOL    HW157749   0.956   2.681   3.252
85284SOL    HW257750   0.952   2.530   3.245
85285SOL     OW57751  13.633   4.767   6.408
85285SOL    HW157752  13.672   4.693   6.454
85285SOL    HW257753  13.544   4.772   6.442
85286SOL     OW57754  11.618  10.452   8.520
85286SOL    HW157755  11.619  10.450   8.424
85286SOL    HW257756  11.687  10.513   8.543
85287SOL     OW57757   6.959   5.675   0.573
85287SOL    HW157758   6.894   5.672   0.502
85287SOL    HW257759   6.946   5.593   0.621
85288SOL     OW57760   3.428  12.533  11.568
85288SOL    HW157761   3.447  12.511  11.476
85288SOL    HW257762   3.412  12.627  11.567
85289SOL     OW57763   8.583   2.466  11.305
85289SOL    HW157764   8.661   2.506  11.342
85289SOL    HW257765   8.607   2.447  11.214
85290SOL     OW57766   2.673   9.632  13.521
85290SOL    HW157767   2.766   9.652  13.531
85290SOL    HW257768   2.649   9.587  13.602
85291SOL     OW57769  11.629   6.104   9.180
85291SOL    HW157770  11.594   6.037   9.120
85291SOL    HW257771  11.657   6.175   9.123
85292SOL     OW57772   9.130   6.716   7.551
85292SOL    HW157773   9.124   6.807   7.579
85292SOL    HW257774   9.040   6.687   7.540
85293SOL     OW57775   5.921   3.198  14.681
85293SOL    HW157776   5.895   3.146  14.757
85293SOL    HW257777   5.846   3.255  14.665
85294SOL     OW57778   2.288   3.296   4.199
85294SOL    HW157779   2.278   3.301   4.104
85294SOL    HW257780   2.382   3.295   4.213
85295SOL     OW57781   5.628  11.808   8.811
85295SOL    HW157782   5.669  11.742   8.755
85295SOL    HW257783   5.534  11.801   8.791
85296SOL     OW57784   0.045  10.993   6.391
85296SOL    HW157785   0.032  10.900   6.410
85296SOL    HW257786  14.863  11.011   6.318
85297SOL     OW57787   9.164   2.149   9.355
85297SOL    HW157788   9.190   2.241   9.361
85297SOL    HW257789   9.079   2.146   9.399
85298SOL     OW57790   4.596  10.806  10.585
85298SOL    HW157791   4.629  10.716  10.587
85298SOL    HW257792   4.510  10.801  10.627
85299SOL     OW57793   7.216   1.524  10.538
85299SOL    HW157794   7.267   1.540  10.617
85299SOL    HW257795   7.125   1.527  10.567
85300SOL     OW57796   4.755  14.810   9.757
85300SOL    HW157797   4.685  14.850   9.705
85300SOL    HW257798   4.745  14.716   9.744
85301SOL     OW57799   0.589  13.069   9.472
85301SOL    HW157800   0.565  13.038   9.559
85301SOL    HW257801   0.600  12.989   9.420
85302SOL     OW57802   2.333   8.677  14.589
85302SOL    HW157803   2.371   8.614  14.528
85302SOL    HW257804   2.399   8.685  14.659
85303SOL     OW57805   3.667   8.916  13.406
85303SOL    HW157806   3.651   9.010  13.394
85303SOL    HW257807   3.752   8.912  13.449
85304SOL     OW57808  11.666  14.631   2.882
85304SOL    HW157809  11.682  14.544   2.919
85304SOL    HW257810  11.734  14.642   2.816
85305SOL     OW57811   6.422   2.606   9.353
85305SOL    HW157812   6.334   2.592   9.388
85305SOL    HW257813   6.424   2.555   9.272
85306SOL     OW57814   3.305  13.283  14.817
85306SOL    HW157815   3.353  13.201  14.811
85306SOL    HW257816   3.344  13.340  14.751
85307SOL     OW57817  11.151   9.817   1.934
85307SOL    HW157818  11.117   9.888   1.988
85307SOL    HW257819  11.074   9.779   1.893
85308SOL     OW57820  13.572  14.509   1.624
85308SOL    HW157821  13.623  14.431   1.602
85308SOL    HW257822  13.490  14.499   1.575
85309SOL     OW57823  11.858  14.758   1.636
85309SOL    HW157824  11.832  14.739   1.546
85309SOL    HW257825  11.945  14.719   1.645
85310SOL     OW57826   8.810   2.086   2.743
85310SOL    HW157827   8.756   2.123   2.812
85310SOL    HW257828   8.821   2.157   2.680
85311SOL     OW57829  10.220   9.856   0.184
85311SOL    HW157830  10.176   9.852   0.100
85311SOL    HW257831  10.165   9.805   0.244
85312SOL     OW57832   4.553  13.045   0.590
85312SOL    HW157833   4.537  12.959   0.629
85312SOL    HW257834   4.467  13.071   0.555
85313SOL     OW57835   1.014   8.957  10.845
85313SOL    HW157836   0.966   8.966  10.762
85313SOL    HW257837   1.090   9.014  10.835
85314SOL     OW57838   7.563   2.947   2.850
85314SOL    HW157839   7.469   2.959   2.834
85314SOL    HW257840   7.569   2.861   2.892
85315SOL     OW57841  13.503  12.206   3.542
85315SOL    HW157842  13.434  12.220   3.607
85315SOL    HW257843  13.549  12.289   3.536
85316SOL     OW57844  13.500   3.647   0.726
85316SOL    HW157845  13.550   3.723   0.695
85316SOL    HW257846  13.539   3.625   0.810
85317SOL     OW57847   3.200   6.507   7.423
85317SOL    HW157848   3.225   6.417   7.403
85317SOL    HW257849   3.186   6.548   7.337
85318SOL     OW57850   9.468  12.698   8.611
85318SOL    HW157851   9.436  12.611   8.586
85318SOL    HW257852   9.478  12.745   8.528
85319SOL     OW57853   3.065   3.051   1.647
85319SOL    HW157854   3.070   2.982   1.713
85319SOL    HW257855   3.135   3.030   1.584
85320SOL     OW57856  10.002  14.845   5.790
85320SOL    HW157857  10.042  14.833   5.876
85320SOL    HW257858  10.058   0.033   5.748
85321SOL     OW57859  12.724   3.525   8.723
85321SOL    HW157860  12.643   3.491   8.764
85321SOL    HW257861  12.717   3.500   8.631
85322SOL     OW57862   2.932   7.206   3.452
85322SOL    HW157863   3.025   7.213   3.476
85322SOL    HW257864   2.887   7.268   3.509
85323SOL     OW57865   3.274  10.729  11.570
85323SOL    HW157866   3.190  10.693  11.597
85323SOL    HW257867   3.258  10.823  11.560
85324SOL     OW57868  14.632  13.788   5.336
85324SOL    HW157869  14.544  13.824   5.324
85324SOL    HW257870  14.636  13.716   5.273
85325SOL     OW57871   3.328   2.004   9.374
85325SOL    HW157872   3.409   2.046   9.405
85325SOL    HW257873   3.262   2.073   9.378
85326SOL     OW57874   6.923  10.873  10.449
85326SOL    HW157875   6.987  10.919  10.503
85326SOL    HW257876   6.963  10.869  10.362
85327SOL     OW57877   6.857  12.363  14.009
85327SOL    HW157878   6.870  12.272  13.983
85327SOL    HW257879   6.912  12.413  13.949
85328SOL     OW57880  14.565  11.893   6.984
85328SOL    HW157881  14.624  11.870   7.055
85328SOL    HW257882  14.591  11.982   6.959
85329SOL     OW57883   7.550  14.596  14.589
85329SOL    HW157884   7.564  14.513  14.544
85329SOL    HW257885   7.459  14.593  14.618
85330SOL     OW57886  14.332   7.913   5.567
85330SOL    HW157887  14.338   8.008   5.583
85330SOL    HW257888  14.412   7.877   5.605
85331SOL     OW57889   8.921   1.043   7.856
85331SOL    HW157890   8.944   0.993   7.934
85331SOL    HW257891   8.869   0.983   7.803
85332SOL     OW57892   5.322   4.775   3.551
85332SOL    HW157893   5.368   4.773   3.467
85332SOL    HW257894   5.331   4.865   3.581
85333SOL     OW57895   8.420  10.571   8.524
85333SOL    HW157896   8.369  10.558   8.444
85333SOL    HW257897   8.357  10.606   8.587
85334SOL     OW57898  12.645   8.021   4.596
85334SOL    HW157899  12.550   8.028   4.596
85334SOL    HW257900  12.672   8.061   4.513
85335SOL     OW57901  14.188   7.750   8.499
85335SOL    HW157902  14.121   7.718   8.560
85335SOL    HW257903  14.147   7.745   8.413
85336SOL     OW57904   9.805   1.759   4.982
85336SOL    HW157905   9.726   1.796   5.020
85336SOL    HW257906   9.850   1.833   4.943
85337SOL     OW57907  12.388   8.967   8.941
85337SOL    HW157908  12.347   8.951   9.026
85337SOL    HW257909  12.478   8.935   8.952
85338SOL     OW57910   9.484   1.306   4.018
85338SOL    HW157911   9.571   1.340   4.039
85338SOL    HW257912   9.474   1.230   4.076
85339SOL     OW57913  12.162  10.209   1.690
85339SOL    HW157914  12.241  10.263   1.694
85339SOL    HW257915  12.098  10.264   1.645
85340SOL     OW57916  10.372   8.098  14.742
85340SOL    HW157917  10.353   8.037  14.813
85340SOL    HW257918  10.378   8.183  14.786
85341SOL     OW57919  11.518   5.765   8.600
85341SOL    HW157920  11.464   5.748   8.523
85341SOL    HW257921  11.460   5.750   8.674
85342SOL     OW57922   8.982   4.060   8.767
85342SOL    HW157923   8.939   4.060   8.853
85342SOL    HW257924   8.925   4.007   8.712
85343SOL     OW57925  10.660  13.317  14.777
85343SOL    HW157926  10.717  13.377  14.826
85343SOL    HW257927  10.577  13.318  14.825
85344SOL     OW57928   7.702  11.908  10.445
85344SOL    HW157929   7.674  11.867  10.527
85344SOL    HW257930   7.663  11.854  10.377
85345SOL     OW57931   6.996   5.040   4.662
85345SOL    HW157932   6.994   5.135   4.667
85345SOL    HW257933   6.931   5.017   4.595
85346SOL     OW57934   1.575  13.370   9.735
85346SOL    HW157935   1.507  13.407   9.791
85346SOL    HW257936   1.652  13.366   9.791
85347SOL     OW57937  12.831   9.069   0.232
85347SOL    HW157938  12.923   9.094   0.231
85347SOL    HW257939  12.796   9.100   0.148
85348SOL     OW57940  13.016   7.245   5.160
85348SOL    HW157941  13.095   7.202   5.193
85348SOL    HW257942  13.007   7.323   5.216
85349SOL     OW57943   3.725   7.401   9.740
85349SOL    HW157944   3.802   7.349   9.763
85349SOL    HW257945   3.761   7.473   9.686
85350SOL     OW57946   9.297  11.410   0.225
85350SOL    HW157947   9.390  11.399   0.207
85350SOL    HW257948   9.262  11.321   0.228
85351SOL     OW57949  13.176  10.248  10.774
85351SOL    HW157950  13.118  10.201  10.833
85351SOL    HW257951  13.133  10.244  10.689
85352SOL     OW57952  13.602   7.029   3.114
85352SOL    HW157953  13.606   7.089   3.188
85352SOL    HW257954  13.679   6.973   3.123
85353SOL     OW57955   4.893  11.603   2.225
85353SOL    HW157956   4.800  11.594   2.203
85353SOL    HW257957   4.938  11.563   2.151
85354SOL     OW57958  12.026   4.333  11.979
85354SOL    HW157959  12.106   4.287  12.004
85354SOL    HW257960  12.019   4.405  12.042
85355SOL     OW57961   8.510   0.891  13.056
85355SOL    HW157962   8.578   0.825  13.044
85355SOL    HW257963   8.554   0.974  13.046
85356SOL     OW57964  13.563   5.503  13.659
85356SOL    HW157965  13.593   5.413  13.667
85356SOL    HW257966  13.627   5.545  13.602
85357SOL     OW57967  10.759   1.510   0.860
85357SOL    HW157968  10.791   1.499   0.770
85357SOL    HW257969  10.664   1.521   0.849
85358SOL     OW57970   2.528   7.022   8.849
85358SOL    HW157971   2.578   7.038   8.929
85358SOL    HW257972   2.457   7.087   8.851
85359SOL     OW57973   9.114  13.565   6.155
85359SOL    HW157974   9.093  13.484   6.201
85359SOL    HW257975   9.156  13.620   6.222
85360SOL     OW57976   2.951   8.146  10.883
85360SOL    HW157977   2.977   8.076  10.943
85360SOL    HW257978   3.023   8.152  10.820
85361SOL     OW57979   1.260   0.890   1.176
85361SOL    HW157980   1.261   0.794   1.184
85361SOL    HW257981   1.334   0.910   1.119
85362SOL     OW57982  14.643  13.376   1.353
85362SOL    HW157983  14.625  13.469   1.369
85362SOL    HW257984  14.558  13.333   1.367
85363SOL     OW57985  13.195   4.722   5.229
85363SOL    HW157986  13.205   4.645   5.285
85363SOL    HW257987  13.274   4.774   5.246
85364SOL     OW57988  12.167   7.072   1.464
85364SOL    HW157989  12.116   7.034   1.536
85364SOL    HW257990  12.101   7.111   1.406
85365SOL     OW57991   6.799   9.652   6.865
85365SOL    HW157992   6.713   9.640   6.824
85365SOL    HW257993   6.785   9.624   6.956
85366SOL     OW57994   9.867  14.319  12.461
85366SOL    HW157995   9.834  14.246  12.408
85366SOL    HW257996   9.790  14.374  12.476
85367SOL     OW57997   0.896   9.480   2.634
85367SOL    HW157998   0.960   9.423   2.591
85367SOL    HW257999   0.944   9.519   2.707
85368SOL     OW58000   7.715   1.588  14.050
85368SOL    HW158001   7.721   1.657  14.117
85368SOL    HW258002   7.784   1.610  13.988
85369SOL     OW58003  13.676  10.582   9.425
85369SOL    HW158004  13.613  10.629   9.480
85369SOL    HW258005  13.759  10.588   9.473
85370SOL     OW58006   1.105   0.094   5.547
85370SOL    HW158007   1.156   0.041   5.609
85370SOL    HW258008   1.033   0.129   5.599
85371SOL     OW58009   6.960   0.805   2.074
85371SOL    HW158010   7.026   0.840   2.014
85371SOL    HW258011   6.997   0.816   2.161
85372SOL     OW58012  11.131  10.665   2.281
85372SOL    HW158013  11.114  10.701   2.368
85372SOL    HW258014  11.205  10.716   2.247
85373SOL     OW58015  13.293   4.000   1.741
85373SOL    HW158016  13.303   3.907   1.718
85373SOL    HW258017  13.356   4.014   1.812
85374SOL     OW58018  14.528   4.085  13.651
85374SOL    HW158019  14.539   3.995  13.620
85374SOL    HW258020  14.459   4.079  13.717
85375SOL     OW58021   4.946   7.653   4.020
85375SOL    HW158022   4.990   7.583   4.068
85375SOL    HW258023   4.875   7.609   3.973
85376SOL     OW58024  12.803   6.678   9.815
85376SOL    HW158025  12.806   6.587   9.785
85376SOL    HW258026  12.731   6.680   9.878
85377SOL     OW58027  13.454   2.662   6.040
85377SOL    HW158028  13.430   2.606   6.114
85377SOL    HW258029  13.541   2.695   6.061
85378SOL     OW58030   5.245   2.510   6.252
85378SOL    HW158031   5.318   2.455   6.223
85378SOL    HW258032   5.169   2.477   6.203
85379SOL     OW58033   8.542  14.645  14.571
85379SOL    HW158034   8.459  14.681  14.603
85379SOL    HW258035   8.603  14.659  14.643
85380SOL     OW58036   5.066  11.216   2.176
85380SOL    HW158037   5.026  11.288   2.126
85380SOL    HW258038   5.160  11.232   2.169
85381SOL     OW58039   2.960  10.178  11.823
85381SOL    HW158040   3.017  10.127  11.765
85381SOL    HW258041   2.963  10.131  11.907
85382SOL     OW58042   7.887   3.511   3.426
85382SOL    HW158043   7.793   3.497   3.426
85382SOL    HW258044   7.910   3.528   3.335
85383SOL     OW58045  11.029   3.022   9.385
85383SOL    HW158046  10.958   3.019   9.321
85383SOL    HW258047  11.098   3.071   9.341
85384SOL     OW58048   2.161   2.037   8.573
85384SOL    HW158049   2.148   2.052   8.667
85384SOL    HW258050   2.125   2.114   8.531
85385SOL     OW58051   2.225  12.795   2.879
85385SOL    HW158052   2.291  12.782   2.947
85385SOL    HW258053   2.253  12.739   2.807
85386SOL     OW58054   7.954   1.928  11.705
85386SOL    HW158055   8.037   1.938  11.659
85386SOL    HW258056   7.889   1.966  11.646
85387SOL     OW58057   6.762   7.391   7.248
85387SOL    HW158058   6.853   7.365   7.263
85387SOL    HW258059   6.762   7.486   7.257
85388SOL     OW58060   6.967   6.899  14.486
85388SOL    HW158061   6.939   6.896  14.578
85388SOL    HW258062   6.915   6.970  14.449
85389SOL     OW58063   9.478   4.911  11.844
85389SOL    HW158064   9.448   4.827  11.878
85389SOL    HW258065   9.559   4.891  11.798
85390SOL     OW58066   4.062   1.208   3.153
85390SOL    HW158067   3.984   1.173   3.111
85390SOL    HW258068   4.036   1.223   3.244
85391SOL     OW58069   9.541  12.384  14.772
85391SOL    HW158070   9.485  12.324  14.723
85391SOL    HW258071   9.620  12.391  14.719
85392SOL     OW58072   7.597   7.313   4.418
85392SOL    HW158073   7.557   7.378   4.475
85392SOL    HW258074   7.688   7.339   4.411
85393SOL     OW58075   0.027   2.426  14.254
85393SOL    HW158076   0.058   2.402  14.166
85393SOL    HW258077   0.022   2.521  14.252
85394SOL     OW58078   9.443   6.750   6.063
85394SOL    HW158079   9.455   6.798   6.144
85394SOL    HW258080   9.523   6.698   6.055
85395SOL     OW58081   9.878   9.784  10.961
85395SOL    HW158082   9.947   9.776  10.895
85395SOL    HW258083   9.824   9.856  10.930
85396SOL     OW58084  13.313   3.156   6.604
85396SOL    HW158085  13.279   3.244   6.619
85396SOL    HW258086  13.247   3.114   6.548
85397SOL     OW58087   2.219   9.660   4.909
85397SOL    HW158088   2.149   9.641   4.846
85397SOL    HW258089   2.265   9.576   4.919
85398SOL     OW58090  11.691  12.486   0.457
85398SOL    HW158091  11.728  12.442   0.533
85398SOL    HW258092  11.734  12.445   0.382
85399SOL     OW58093  13.381  14.766   3.006
85399SOL    HW158094  13.374  14.845   3.060
85399SOL    HW258095  13.475  14.758   2.989
85400SOL     OW58096  14.357   7.319   6.200
85400SOL    HW158097  14.390   7.294   6.115
85400SOL    HW258098  14.298   7.248   6.225
85401SOL     OW58099  12.124  13.864   7.171
85401SOL    HW158100  12.110  13.867   7.266
85401SOL    HW258101  12.036  13.866   7.134
85402SOL     OW58102  10.750   4.091  12.129
85402SOL    HW158103  10.829   4.107  12.078
85402SOL    HW258104  10.682   4.074  12.064
85403SOL     OW58105  10.513   4.928  10.344
85403SOL    HW158106  10.460   5.003  10.317
85403SOL    HW258107  10.593   4.966  10.380
85404SOL     OW58108   7.796  12.783   7.255
85404SOL    HW158109   7.842  12.712   7.300
85404SOL    HW258110   7.788  12.852   7.320
85405SOL     OW58111   7.181   8.389   5.398
85405SOL    HW158112   7.133   8.343   5.330
85405SOL    HW258113   7.181   8.329   5.473
85406SOL     OW58114   7.105   6.330  10.560
85406SOL    HW158115   7.084   6.369  10.474
85406SOL    HW258116   7.189   6.369  10.584
85407SOL     OW58117   2.087   6.078  11.660
85407SOL    HW158118   2.095   6.010  11.592
85407SOL    HW258119   2.142   6.150  11.628
85408SOL     OW58120   1.475   6.563  13.295
85408SOL    HW158121   1.506   6.509  13.368
85408SOL    HW258122   1.552   6.611  13.267
85409SOL     OW58123   5.862   8.251   7.615
85409SOL    HW158124   5.945   8.273   7.571
85409SOL    HW258125   5.875   8.160   7.643
85410SOL     OW58126   7.643   7.335  10.591
85410SOL    HW158127   7.603   7.278  10.656
85410SOL    HW258128   7.737   7.324  10.604
85411SOL     OW58129  11.841  10.958   2.772
85411SOL    HW158130  11.813  10.902   2.699
85411SOL    HW258131  11.811  11.046   2.748
85412SOL     OW58132  11.327   7.687   1.192
85412SOL    HW158133  11.234   7.674   1.172
85412SOL    HW258134  11.328   7.752   1.262
85413SOL     OW58135   4.115  14.722   3.168
85413SOL    HW158136   4.162  14.674   3.100
85413SOL    HW258137   4.094  14.656   3.234
85414SOL     OW58138   3.237   6.030   0.455
85414SOL    HW158139   3.300   5.977   0.505
85414SOL    HW258140   3.278   6.041   0.369
85415SOL     OW58141   7.286   7.205   8.408
85415SOL    HW158142   7.216   7.143   8.431
85415SOL    HW258143   7.366   7.162   8.436
85416SOL     OW58144   5.658  12.107  14.870
85416SOL    HW158145   5.622  12.019  14.869
85416SOL    HW258146   5.606  12.155  14.806
85417SOL     OW58147   8.892   5.491   6.589
85417SOL    HW158148   8.896   5.400   6.560
85417SOL    HW258149   8.821   5.493   6.652
85418SOL     OW58150  10.183  11.383   6.351
85418SOL    HW158151  10.234  11.443   6.405
85418SOL    HW258152  10.242  11.360   6.279
85419SOL     OW58153   1.287   3.398  11.067
85419SOL    HW158154   1.278   3.410  10.973
85419SOL    HW258155   1.380   3.410  11.085
85420SOL     OW58156   2.098   6.845   0.525
85420SOL    HW158157   2.100   6.807   0.613
85420SOL    HW258158   2.048   6.782   0.474
85421SOL     OW58159   2.607   8.114  12.757
85421SOL    HW158160   2.672   8.089  12.823
85421SOL    HW258161   2.528   8.067  12.782
85422SOL     OW58162  10.679  11.479  12.396
85422SOL    HW158163  10.756  11.438  12.355
85422SOL    HW258164  10.689  11.462  12.489
85423SOL     OW58165   8.909  12.513   8.336
85423SOL    HW158166   8.960  12.546   8.411
85423SOL    HW258167   8.970  12.517   8.262
85424SOL     OW58168  14.804   6.085   8.615
85424SOL    HW158169  14.784   6.084   8.522
85424SOL    HW258170  14.875   6.021   8.626
85425SOL     OW58171   6.450   8.017   8.236
85425SOL    HW158172   6.426   8.062   8.155
85425SOL    HW258173   6.449   7.924   8.213
85426SOL     OW58174   9.106   1.761   5.204
85426SOL    HW158175   9.159   1.840   5.198
85426SOL    HW258176   9.121   1.715   5.121
85427SOL     OW58177   3.790   5.191  12.081
85427SOL    HW158178   3.857   5.145  12.133
85427SOL    HW258179   3.821   5.182  11.990
85428SOL     OW58180   9.170  14.877   6.801
85428SOL    HW158181   9.138   0.089   6.815
85428SOL    HW258182   9.161  14.835   6.887
85429SOL     OW58183   7.477   2.155  14.348
85429SOL    HW158184   7.484   2.065  14.314
85429SOL    HW258185   7.495   2.211  14.272
85430SOL     OW58186   2.860  13.254   3.713
85430SOL    HW158187   2.799  13.219   3.648
85430SOL    HW258188   2.914  13.179   3.738
85431SOL     OW58189   9.902  13.479  11.201
85431SOL    HW158190   9.903  13.543  11.130
85431SOL    HW258191   9.922  13.395  11.158
85432SOL     OW58192   5.940   2.757   2.309
85432SOL    HW158193   5.852   2.753   2.272
85432SOL    HW258194   5.944   2.682   2.369
85433SOL     OW58195   6.772   6.782   2.224
85433SOL    HW158196   6.727   6.817   2.301
85433SOL    HW258197   6.865   6.784   2.248
85434SOL     OW58198  11.243  14.801   2.058
85434SOL    HW158199  11.314  14.860   2.032
85434SOL    HW258200  11.218  14.757   1.977
85435SOL     OW58201   5.716   1.980   1.730
85435SOL    HW158202   5.735   1.982   1.636
85435SOL    HW258203   5.790   1.933   1.768
85436SOL     OW58204  12.075   3.447  13.413
85436SOL    HW158205  12.141   3.516  13.415
85436SOL    HW258206  12.063   3.422  13.504
85437SOL     OW58207  13.037   0.505   2.530
85437SOL    HW158208  13.044   0.564   2.454
85437SOL    HW258209  12.948   0.519   2.563
85438SOL     OW58210   4.646  10.006  13.278
85438SOL    HW158211   4.659  10.097  13.251
85438SOL    HW258212   4.689   9.999  13.363
85439SOL     OW58213   6.583   2.718   1.636
85439SOL    HW158214   6.505   2.665   1.648
85439SOL    HW258215   6.581   2.782   1.707
85440SOL     OW58216  13.910   3.377   7.149
85440SOL    HW158217  13.897   3.392   7.243
85440SOL    HW258218  13.998   3.341   7.142
85441SOL     OW58219   9.827  11.474   8.140
85441SOL    HW158220   9.844  11.529   8.216
85441SOL    HW258221   9.890  11.504   8.074
85442SOL     OW58222   5.863   0.978   4.956
85442SOL    HW158223   5.876   0.993   5.050
85442SOL    HW258224   5.804   0.903   4.952
85443SOL     OW58225  10.326   2.576   0.682
85443SOL    HW158226  10.373   2.493   0.687
85443SOL    HW258227  10.328   2.610   0.771
85444SOL     OW58228   3.746  11.655  12.641
85444SOL    HW158229   3.675  11.694  12.590
85444SOL    HW258230   3.800  11.610  12.577
85445SOL     OW58231  10.532   8.386  14.360
85445SOL    HW158232  10.590   8.461  14.348
85445SOL    HW258233  10.501   8.394  14.451
85446SOL     OW58234   9.122   5.864   7.206
85446SOL    HW158235   9.217   5.848   7.203
85446SOL    HW258236   9.109   5.943   7.153
85447SOL     OW58237   0.499   7.933  13.538
85447SOL    HW158238   0.514   7.932  13.632
85447SOL    HW258239   0.406   7.914  13.528
85448SOL     OW58240  10.833   3.035  13.269
85448SOL    HW158241  10.852   2.985  13.189
85448SOL    HW258242  10.781   3.109  13.239
85449SOL     OW58243  12.529  12.757  13.107
85449SOL    HW158244  12.499  12.840  13.143
85449SOL    HW258245  12.610  12.738  13.155
85450SOL     OW58246  10.867   8.849   6.783
85450SOL    HW158247  10.881   8.766   6.738
85450SOL    HW258248  10.898   8.833   6.872
85451SOL     OW58249   8.540  10.477  12.545
85451SOL    HW158250   8.484  10.520  12.480
85451SOL    HW258251   8.608  10.542  12.564
85452SOL     OW58252   7.890   2.958  11.100
85452SOL    HW158253   7.961   2.904  11.066
85452SOL    HW258254   7.870   2.920  11.186
85453SOL     OW58255   0.617   5.541   5.725
85453SOL    HW158256   0.673   5.518   5.799
85453SOL    HW258257   0.642   5.631   5.703
85454SOL     OW58258   0.180  11.381  11.387
85454SOL    HW158259   0.273  11.374  11.407
85454SOL    HW258260   0.177  11.423  11.301
85455SOL     OW58261  11.113   5.777  12.764
85455SOL    HW158262  11.140   5.689  12.737
85455SOL    HW258263  11.028   5.791  12.722
85456SOL     OW58264   2.539   6.714   4.852
85456SOL    HW158265   2.466   6.653   4.859
85456SOL    HW258266   2.565   6.730   4.943
85457SOL     OW58267   4.079   5.245   5.128
85457SOL    HW158268   4.042   5.225   5.043
85457SOL    HW258269   4.162   5.197   5.130
85458SOL     OW58270   5.482   4.788   6.931
85458SOL    HW158271   5.456   4.740   6.852
85458SOL    HW258272   5.567   4.825   6.908
85459SOL     OW58273   8.934   9.078   9.679
85459SOL    HW158274   8.957   8.998   9.632
85459SOL    HW258275   8.847   9.102   9.646
85460SOL     OW58276  14.614   5.495   5.660
85460SOL    HW158277  14.530   5.455   5.684
85460SOL    HW258278  14.673   5.420   5.647
85461SOL     OW58279  12.634  10.051  11.592
85461SOL    HW158280  12.689  10.036  11.669
85461SOL    HW258281  12.688  10.025  11.518
85462SOL     OW58282   7.775   0.814   0.566
85462SOL    HW158283   7.757   0.818   0.472
85462SOL    HW258284   7.859   0.858   0.576
85463SOL     OW58285   2.102  10.526  14.014
85463SOL    HW158286   2.184  10.569  13.989
85463SOL    HW258287   2.037  10.597  14.013
85464SOL     OW58288  13.506  11.406   0.639
85464SOL    HW158289  13.574  11.474   0.641
85464SOL    HW258290  13.553  11.325   0.661
85465SOL     OW58291   1.427   5.070  11.748
85465SOL    HW158292   1.475   5.144  11.785
85465SOL    HW258293   1.492   5.000  11.742
85466SOL     OW58294   0.864   3.884  10.885
85466SOL    HW158295   0.806   3.903  10.811
85466SOL    HW258296   0.804   3.863  10.956
85467SOL     OW58297   7.455  14.736  10.898
85467SOL    HW158298   7.374  14.768  10.859
85467SOL    HW258299   7.524  14.767  10.840
85468SOL     OW58300   2.910   1.617  14.668
85468SOL    HW158301   2.941   1.638  14.757
85468SOL    HW258302   2.931   1.524  14.657
85469SOL     OW58303   1.608  13.126  10.132
85469SOL    HW158304   1.560  13.062  10.080
85469SOL    HW258305   1.575  13.115  10.221
85470SOL     OW58306  11.264   8.381  10.839
85470SOL    HW158307  11.267   8.289  10.812
85470SOL    HW258308  11.228   8.379  10.928
85471SOL     OW58309   7.145   5.329   8.710
85471SOL    HW158310   7.064   5.377   8.728
85471SOL    HW258311   7.162   5.346   8.617
85472SOL     OW58312   2.783   7.162  10.881
85472SOL    HW158313   2.820   7.080  10.913
85472SOL    HW258314   2.763   7.212  10.961
85473SOL     OW58315   2.795  13.659  14.428
85473SOL    HW158316   2.762  13.569  14.438
85473SOL    HW258317   2.728  13.703  14.376
85474SOL     OW58318   5.004  12.311   7.951
85474SOL    HW158319   5.086  12.358   7.967
85474SOL    HW258320   4.957  12.316   8.035
85475SOL     OW58321   3.799   0.995   6.612
85475SOL    HW158322   3.812   0.998   6.707
85475SOL    HW258323   3.840   0.913   6.585
85476SOL     OW58324  10.196  11.740  14.743
85476SOL    HW158325  10.158  11.730  14.830
85476SOL    HW258326  10.263  11.807  14.754
85477SOL     OW58327   3.355   9.565  12.894
85477SOL    HW158328   3.277   9.584  12.948
85477SOL    HW258329   3.329   9.589  12.805
85478SOL     OW58330  14.118   5.143  12.804
85478SOL    HW158331  14.099   5.054  12.773
85478SOL    HW258332  14.066   5.151  12.884
85479SOL     OW58333   5.635  13.694   4.117
85479SOL    HW158334   5.639  13.728   4.206
85479SOL    HW258335   5.700  13.745   4.069
85480SOL     OW58336  14.075  10.158   0.381
85480SOL    HW158337  14.079  10.089   0.447
85480SOL    HW258338  13.992  10.202   0.398
85481SOL     OW58339   5.317   9.761  12.912
85481SOL    HW158340   5.321   9.669  12.888
85481SOL    HW258341   5.402   9.796  12.885
85482SOL     OW58342   8.648   7.055   1.256
85482SOL    HW158343   8.646   7.135   1.309
85482SOL    HW258344   8.700   7.078   1.179
85483SOL     OW58345   9.310  11.004  14.094
85483SOL    HW158346   9.216  10.995  14.080
85483SOL    HW258347   9.327  10.956  14.174
85484SOL     OW58348   5.351  14.094   7.440
85484SOL    HW158349   5.441  14.081   7.471
85484SOL    HW258350   5.313  14.006   7.441
85485SOL     OW58351  13.246  14.014   4.599
85485SOL    HW158352  13.170  14.012   4.541
85485SOL    HW258353  13.279  13.924   4.599
85486SOL     OW58354  14.215   3.792   5.784
85486SOL    HW158355  14.197   3.706   5.746
85486SOL    HW258356  14.305   3.786   5.816
85487SOL     OW58357   7.147   4.703   4.663
85487SOL    HW158358   7.143   4.778   4.605
85487SOL    HW258359   7.219   4.650   4.630
85488SOL     OW58360  10.855   7.208   0.209
85488SOL    HW158361  10.921   7.252   0.155
85488SOL    HW258362  10.798   7.279   0.240
85489SOL     OW58363  11.188   1.952   3.725
85489SOL    HW158364  11.224   1.964   3.637
85489SOL    HW258365  11.243   2.006   3.782
85490SOL     OW58366  12.728   2.374   0.936
85490SOL    HW158367  12.692   2.292   0.902
85490SOL    HW258368  12.686   2.442   0.883
85491SOL     OW58369   3.663   3.536   3.356
85491SOL    HW158370   3.610   3.512   3.432
85491SOL    HW258371   3.715   3.458   3.338
85492SOL     OW58372   8.939  10.422  12.753
85492SOL    HW158373   8.942  10.364  12.677
85492SOL    HW258374   8.952  10.365  12.829
85493SOL     OW58375  14.696  13.162   2.326
85493SOL    HW158376  14.704  13.134   2.417
85493SOL    HW258377  14.769  13.222   2.312
85494SOL     OW58378  13.962   2.303   4.316
85494SOL    HW158379  14.021   2.301   4.241
85494SOL    HW258380  14.014   2.266   4.388
85495SOL     OW58381   8.138   2.379   6.845
85495SOL    HW158382   8.104   2.290   6.841
85495SOL    HW258383   8.220   2.372   6.893
85496SOL     OW58384   3.643   0.621   6.375
85496SOL    HW158385   3.604   0.560   6.313
85496SOL    HW258386   3.734   0.631   6.345
85497SOL     OW58387  12.780   3.772  13.732
85497SOL    HW158388  12.739   3.855  13.757
85497SOL    HW258389  12.799   3.782  13.639
85498SOL     OW58390  13.251  10.014   3.389
85498SOL    HW158391  13.219   9.987   3.302
85498SOL    HW258392  13.242  10.109   3.389
85499SOL     OW58393   4.362   5.481  11.082
85499SOL    HW158394   4.268   5.500  11.085
85499SOL    HW258395   4.378   5.458  10.990
85500SOL     OW58396   3.370   5.702   9.572
85500SOL    HW158397   3.318   5.632   9.535
85500SOL    HW258398   3.457   5.692   9.532
85501SOL     OW58399   8.407  10.421   4.172
85501SOL    HW158400   8.340  10.385   4.115
85501SOL    HW258401   8.427  10.507   4.135
85502SOL     OW58402  10.598  11.445  13.038
85502SOL    HW158403  10.665  11.476  12.977
85502SOL    HW258404  10.520  11.496  13.015
85503SOL     OW58405   9.436  13.431  11.918
85503SOL    HW158406   9.504  13.364  11.918
85503SOL    HW258407   9.469  13.498  11.858
85504SOL     OW58408  11.857   5.385  11.911
85504SOL    HW158409  11.935   5.423  11.873
85504SOL    HW258410  11.828   5.320  11.847
85505SOL     OW58411   4.601  12.297   0.915
85505SOL    HW158412   4.532  12.230   0.920
85505SOL    HW258413   4.646  12.278   0.833
85506SOL     OW58414   4.549   3.999   6.361
85506SOL    HW158415   4.513   3.947   6.433
85506SOL    HW258416   4.515   4.087   6.377
85507SOL     OW58417  10.359   7.043   1.945
85507SOL    HW158418  10.413   7.114   1.910
85507SOL    HW258419  10.280   7.088   1.978
85508SOL     OW58420  13.883   3.607  10.497
85508SOL    HW158421  13.955   3.544  10.500
85508SOL    HW258422  13.880   3.635  10.406
85509SOL     OW58423  12.869   8.344   5.950
85509SOL    HW158424  12.871   8.428   5.995
85509SOL    HW258425  12.775   8.324   5.941
85510SOL     OW58426   6.815  12.726   5.019
85510SOL    HW158427   6.784  12.814   5.040
85510SOL    HW258428   6.908  12.737   4.998
85511SOL     OW58429  10.504   0.210   6.726
85511SOL    HW158430  10.494   0.114   6.724
85511SOL    HW258431  10.448   0.241   6.654
85512SOL     OW58432   9.620   1.109   7.264
85512SOL    HW158433   9.711   1.136   7.253
85512SOL    HW258434   9.607   1.042   7.196
85513SOL     OW58435  11.885  12.928  12.478
85513SOL    HW158436  11.879  12.985  12.555
85513SOL    HW258437  11.917  12.845  12.512
85514SOL     OW58438  11.196   4.535  14.780
85514SOL    HW158439  11.204   4.622  14.820
85514SOL    HW258440  11.112   4.502  14.812
85515SOL     OW58441  11.396  14.055   4.373
85515SOL    HW158442  11.450  14.063   4.452
85515SOL    HW258443  11.415  14.134   4.323
85516SOL     OW58444  14.013  10.590  11.706
85516SOL    HW158445  14.103  10.605  11.678
85516SOL    HW258446  14.016  10.510  11.757
85517SOL     OW58447  12.342   6.192   2.977
85517SOL    HW158448  12.259   6.191   2.929
85517SOL    HW258449  12.352   6.103   3.010
85518SOL     OW58450   3.195   6.572   6.291
85518SOL    HW158451   3.287   6.556   6.315
85518SOL    HW258452   3.190   6.544   6.200
85519SOL     OW58453  12.973   3.740   2.635
85519SOL    HW158454  13.012   3.752   2.548
85519SOL    HW258455  12.879   3.741   2.619
85520SOL     OW58456  10.043  10.277   2.026
85520SOL    HW158457  10.110  10.254   2.092
85520SOL    HW258458  10.086  10.261   1.942
85521SOL     OW58459   4.020   4.570   5.567
85521SOL    HW158460   4.096   4.547   5.620
85521SOL    HW258461   3.950   4.513   5.598
85522SOL     OW58462  13.335   7.198   7.026
85522SOL    HW158463  13.337   7.268   6.961
85522SOL    HW258464  13.288   7.236   7.101
85523SOL     OW58465   2.655   1.413  10.965
85523SOL    HW158466   2.617   1.327  10.983
85523SOL    HW258467   2.664   1.415  10.870
85524SOL     OW58468  10.882   8.739   9.117
85524SOL    HW158469  10.825   8.764   9.044
85524SOL    HW258470  10.949   8.808   9.120
85525SOL     OW58471   7.369   3.044   5.200
85525SOL    HW158472   7.408   3.012   5.282
85525SOL    HW258473   7.381   3.139   5.203
85526SOL     OW58474   3.977  13.354   9.494
85526SOL    HW158475   4.032  13.389   9.565
85526SOL    HW258476   3.911  13.422   9.480
85527SOL     OW58477   7.061  13.443   2.447
85527SOL    HW158478   7.063  13.355   2.486
85527SOL    HW258479   6.973  13.476   2.468
85528SOL     OW58480  14.761   1.313   7.649
85528SOL    HW158481  14.747   1.353   7.562
85528SOL    HW258482  14.833   1.363   7.686
85529SOL     OW58483   9.967  11.867  10.145
85529SOL    HW158484   9.998  11.934  10.207
85529SOL    HW258485  10.024  11.792  10.161
85530SOL     OW58486  12.947   0.980   5.288
85530SOL    HW158487  12.973   1.008   5.376
85530SOL    HW258488  12.853   0.999   5.284
85531SOL     OW58489   7.045  14.580   7.844
85531SOL    HW158490   7.000  14.506   7.803
85531SOL    HW258491   6.977  14.647   7.852
85532SOL     OW58492   1.596   2.643   8.856
85532SOL    HW158493   1.596   2.695   8.936
85532SOL    HW258494   1.639   2.698   8.791
85533SOL     OW58495   3.449  13.324   9.441
85533SOL    HW158496   3.416  13.315   9.352
85533SOL    HW258497   3.454  13.419   9.455
85534SOL     OW58498   6.365   7.342   6.086
85534SOL    HW158499   6.316   7.261   6.073
85534SOL    HW258500   6.338   7.373   6.172
85535SOL     OW58501   4.886  10.447  11.961
85535SOL    HW158502   4.896  10.479  11.871
85535SOL    HW258503   4.837  10.517  12.005
85536SOL     OW58504   6.443   9.121   6.170
85536SOL    HW158505   6.533   9.129   6.201
85536SOL    HW258506   6.439   9.180   6.095
85537SOL     OW58507   5.043   2.698   5.253
85537SOL    HW158508   5.054   2.613   5.210
85537SOL    HW258509   5.038   2.761   5.181
85538SOL     OW58510   0.394   0.427   0.382
85538SOL    HW158511   0.441   0.498   0.425
85538SOL    HW258512   0.449   0.350   0.395
85539SOL     OW58513  11.250   5.946   6.545
85539SOL    HW158514  11.253   5.996   6.464
85539SOL    HW258515  11.162   5.962   6.580
85540SOL     OW58516   6.928   0.755  13.002
85540SOL    HW158517   6.986   0.689  13.038
85540SOL    HW258518   6.938   0.830  13.060
85541SOL     OW58519   5.639   4.187   5.152
85541SOL    HW158520   5.707   4.242   5.192
85541SOL    HW258521   5.655   4.099   5.188
85542SOL     OW58522  13.348  13.604  11.158
85542SOL    HW158523  13.331  13.560  11.241
85542SOL    HW258524  13.320  13.542  11.091
85543SOL     OW58525  10.751   0.596   3.743
85543SOL    HW158526  10.777   0.525   3.684
85543SOL    HW258527  10.676   0.561   3.791
85544SOL     OW58528   6.368   6.186   0.347
85544SOL    HW158529   6.317   6.159   0.423
85544SOL    HW258530   6.306   6.237   0.294
85545SOL     OW58531  11.730   3.405  12.022
85545SOL    HW158532  11.820   3.381  12.003
85545SOL    HW258533  11.700   3.339  12.085
85546SOL     OW58534   0.339   7.554  12.965
85546SOL    HW158535   0.260   7.504  12.985
85546SOL    HW258536   0.346   7.552  12.870
85547SOL     OW58537   7.172   4.193   9.884
85547SOL    HW158538   7.158   4.190   9.979
85547SOL    HW258539   7.247   4.251   9.872
85548SOL     OW58540  12.813   6.061  14.017
85548SOL    HW158541  12.776   6.088  13.933
85548SOL    HW258542  12.904   6.039  13.997
85549SOL     OW58543   1.656   8.287   6.479
85549SOL    HW158544   1.579   8.316   6.430
85549SOL    HW258545   1.673   8.199   6.448
85550SOL     OW58546  14.011  14.833   5.744
85550SOL    HW158547  13.979  14.759   5.796
85550SOL    HW258548  13.934   0.012   5.733
85551SOL     OW58549  10.927  12.334  13.804
85551SOL    HW158550  10.958  12.244  13.812
85551SOL    HW258551  10.995  12.378  13.755
85552SOL     OW58552   5.323  14.143  14.328
85552SOL    HW158553   5.243  14.177  14.288
85552SOL    HW258554   5.300  14.054  14.356
85553SOL     OW58555   2.086   2.357   7.168
85553SOL    HW158556   2.152   2.288   7.157
85553SOL    HW258557   2.004   2.310   7.181
85554SOL     OW58558   4.981   4.395  13.642
85554SOL    HW158559   4.946   4.342  13.714
85554SOL    HW258560   4.976   4.485  13.674
85555SOL     OW58561  11.673  11.403  13.048
85555SOL    HW158562  11.766  11.408  13.069
85555SOL    HW258563  11.646  11.317  13.080
85556SOL     OW58564   7.936   7.661   9.154
85556SOL    HW158565   7.921   7.615   9.237
85556SOL    HW258566   7.976   7.745   9.180
85557SOL     OW58567   4.060   4.767  14.147
85557SOL    HW158568   4.129   4.821  14.185
85557SOL    HW258569   4.100   4.681  14.135
85558SOL     OW58570   1.622  10.822   9.527
85558SOL    HW158571   1.588  10.841   9.615
85558SOL    HW258572   1.677  10.896   9.506
85559SOL     OW58573   6.508   0.190   5.809
85559SOL    HW158574   6.555   0.273   5.812
85559SOL    HW258575   6.556   0.136   5.746
85560SOL     OW58576   1.034   7.383   1.202
85560SOL    HW158577   0.941   7.403   1.215
85560SOL    HW258578   1.072   7.466   1.172
85561SOL     OW58579   8.922   9.604   6.808
85561SOL    HW158580   8.996   9.627   6.865
85561SOL    HW258581   8.857   9.671   6.825
85562SOL     OW58582  10.189   9.052   0.296
85562SOL    HW158583  10.224   9.138   0.320
85562SOL    HW258584  10.119   9.035   0.359
85563SOL     OW58585  14.553   0.451   5.537
85563SOL    HW158586  14.608   0.524   5.568
85563SOL    HW258587  14.556   0.387   5.607
85564SOL     OW58588   7.876  10.049   1.483
85564SOL    HW158589   7.858  10.035   1.390
85564SOL    HW258590   7.791  10.046   1.525
85565SOL     OW58591  13.341   9.065   6.692
85565SOL    HW158592  13.278   9.070   6.765
85565SOL    HW258593  13.397   8.991   6.714
85566SOL     OW58594   7.124   3.479   7.618
85566SOL    HW158595   7.076   3.454   7.697
85566SOL    HW258596   7.210   3.506   7.650
85567SOL     OW58597  12.405   1.090   6.450
85567SOL    HW158598  12.334   1.101   6.387
85567SOL    HW258599  12.484   1.110   6.401
85568SOL     OW58600   6.223   1.376   1.765
85568SOL    HW158601   6.258   1.288   1.781
85568SOL    HW258602   6.132   1.361   1.739
85569SOL     OW58603   2.796   8.494   2.874
85569SOL    HW158604   2.823   8.579   2.838
85569SOL    HW258605   2.766   8.445   2.797
85570SOL     OW58606   3.328   6.941   3.133
85570SOL    HW158607   3.299   6.907   3.217
85570SOL    HW258608   3.258   6.918   3.072
85571SOL     OW58609  11.077   0.347   7.191
85571SOL    HW158610  11.120   0.278   7.141
85571SOL    HW258611  11.149   0.397   7.229
85572SOL     OW58612   7.512   0.785   5.222
85572SOL    HW158613   7.489   0.878   5.223
85572SOL    HW258614   7.572   0.774   5.296
85573SOL     OW58615  12.790   0.683   2.082
85573SOL    HW158616  12.872   0.728   2.061
85573SOL    HW258617  12.809   0.590   2.067
85574SOL     OW58618   0.659  13.696   8.032
85574SOL    HW158619   0.582  13.660   8.075
85574SOL    HW258620   0.730  13.686   8.096
85575SOL     OW58621   0.493  13.849  11.963
85575SOL    HW158622   0.527  13.799  12.038
85575SOL    HW258623   0.547  13.927  11.960
85576SOL     OW58624   6.662   3.831   0.210
85576SOL    HW158625   6.708   3.754   0.178
85576SOL    HW258626   6.705   3.905   0.166
85577SOL     OW58627  14.749   1.512   5.066
85577SOL    HW158628  14.683   1.579   5.085
85577SOL    HW258629  14.742   1.450   5.139
85578SOL     OW58630   0.273   9.141   7.020
85578SOL    HW158631   0.364   9.171   7.028
85578SOL    HW258632   0.268   9.064   7.077
85579SOL     OW58633  14.615  10.240   0.457
85579SOL    HW158634  14.520  10.241   0.447
85579SOL    HW258635  14.633  10.166   0.514
85580SOL     OW58636   9.472   3.985  11.563
85580SOL    HW158637   9.465   4.052  11.495
85580SOL    HW258638   9.548   4.010  11.615
85581SOL     OW58639   1.351  10.133   3.993
85581SOL    HW158640   1.381  10.160   3.906
85581SOL    HW258641   1.256  10.127   3.985
85582SOL     OW58642   3.816   1.317   9.444
85582SOL    HW158643   3.889   1.365   9.404
85582SOL    HW258644   3.835   1.225   9.427
85583SOL     OW58645   6.315  11.387   2.656
85583SOL    HW158646   6.270  11.308   2.688
85583SOL    HW258647   6.269  11.459   2.699
85584SOL     OW58648  11.805  13.965   5.459
85584SOL    HW158649  11.794  13.890   5.400
85584SOL    HW258650  11.867  13.934   5.525
85585SOL     OW58651   8.607  14.260  10.567
85585SOL    HW158652   8.627  14.217  10.484
85585SOL    HW258653   8.626  14.193  10.633
85586SOL     OW58654   6.824   4.585   5.234
85586SOL    HW158655   6.730   4.589   5.250
85586SOL    HW258656   6.853   4.676   5.234
85587SOL     OW58657  10.818  10.187   6.298
85587SOL    HW158658  10.860  10.229   6.373
85587SOL    HW258659  10.797  10.098   6.329
85588SOL     OW58660  12.105   6.999  12.031
85588SOL    HW158661  12.074   7.030  11.946
85588SOL    HW258662  12.039   6.935  12.058
85589SOL     OW58663  14.012   6.035  12.072
85589SOL    HW158664  13.924   6.048  12.108
85589SOL    HW258665  14.041   5.952  12.110
85590SOL     OW58666   1.929  11.832  14.411
85590SOL    HW158667   1.984  11.754  14.406
85590SOL    HW258668   1.839  11.798  14.405
85591SOL     OW58669   1.094   4.862   5.064
85591SOL    HW158670   1.167   4.800   5.057
85591SOL    HW258671   1.135   4.941   5.099
85592SOL     OW58672  14.393  11.547  11.075
85592SOL    HW158673  14.435  11.462  11.086
85592SOL    HW258674  14.373  11.576  11.164
85593SOL     OW58675  11.806   9.041  14.807
85593SOL    HW158676  11.850   9.125  14.820
85593SOL    HW258677  11.859   8.997  14.739
85594SOL     OW58678   9.699  10.788   6.738
85594SOL    HW158679   9.696  10.711   6.794
85594SOL    HW258680   9.757  10.849   6.784
85595SOL     OW58681   5.595   2.259  12.799
85595SOL    HW158682   5.634   2.307  12.726
85595SOL    HW258683   5.534   2.198  12.757
85596SOL     OW58684  10.363  11.173  12.271
85596SOL    HW158685  10.338  11.253  12.223
85596SOL    HW258686  10.293  11.161  12.335
85597SOL     OW58687   2.015   5.901  13.805
85597SOL    HW158688   2.054   5.835  13.748
85597SOL    HW258689   2.057   5.983  13.779
85598SOL     OW58690   4.250  12.399  10.272
85598SOL    HW158691   4.338  12.382  10.238
85598SOL    HW258692   4.197  12.328  10.234
85599SOL     OW58693  12.272   3.962   7.890
85599SOL    HW158694  12.243   3.877   7.859
85599SOL    HW258695  12.239   3.967   7.980
85600SOL     OW58696   0.225  10.185   4.304
85600SOL    HW158697   0.147  10.241   4.301
85600SOL    HW258698   0.223  10.146   4.391
85601SOL     OW58699   4.656   1.907  10.313
85601SOL    HW158700   4.709   1.829  10.328
85601SOL    HW258701   4.640   1.908  10.219
85602SOL     OW58702   5.050  13.948  14.859
85602SOL    HW158703   5.076  14.026   0.030
85602SOL    HW258704   4.955  13.942  14.871
85603SOL     OW58705  11.717   2.620   3.845
85603SOL    HW158706  11.748   2.664   3.766
85603SOL    HW258707  11.786   2.557   3.866
85604SOL     OW58708   0.237   8.925  14.679
85604SOL    HW158709   0.279   8.840  14.665
85604SOL    HW258710   0.244   8.970  14.594
85605SOL     OW58711  13.783   3.498   3.909
85605SOL    HW158712  13.788   3.587   3.945
85605SOL    HW258713  13.690   3.483   3.896
85606SOL     OW58714   7.980   2.834  12.371
85606SOL    HW158715   7.971   2.929  12.367
85606SOL    HW258716   7.997   2.807  12.281
85607SOL     OW58717   7.823   7.748   0.579
85607SOL    HW158718   7.865   7.759   0.494
85607SOL    HW258719   7.873   7.678   0.621
85608SOL     OW58720   5.616   8.414  12.054
85608SOL    HW158721   5.573   8.378  11.977
85608SOL    HW258722   5.628   8.339  12.112
85609SOL     OW58723   7.794   2.612  11.966
85609SOL    HW158724   7.755   2.530  11.938
85609SOL    HW258725   7.800   2.665  11.887
85610SOL     OW58726   9.786  14.048   7.583
85610SOL    HW158727   9.788  14.006   7.497
85610SOL    HW258728   9.707  14.103   7.582
85611SOL     OW58729   7.134   2.674  10.039
85611SOL    HW158730   7.046   2.639  10.025
85611SOL    HW258731   7.149   2.664  10.133
85612SOL     OW58732   4.935   0.020   4.523
85612SOL    HW158733   4.924   0.058   4.610
85612SOL    HW258734   4.874   0.069   4.468
85613SOL     OW58735   2.500   3.010  14.147
85613SOL    HW158736   2.405   3.008  14.164
85613SOL    HW258737   2.537   3.052  14.225
85614SOL     OW58738   0.714   0.732   4.420
85614SOL    HW158739   0.742   0.656   4.472
85614SOL    HW258740   0.794   0.762   4.377
85615SOL     OW58741   1.765   4.929  12.282
85615SOL    HW158742   1.705   4.959  12.213
85615SOL    HW258743   1.838   4.890  12.235
85616SOL     OW58744   4.783   4.382   4.353
85616SOL    HW158745   4.846   4.446   4.321
85616SOL    HW258746   4.723   4.370   4.279
85617SOL     OW58747   5.677   4.263   0.001
85617SOL    HW158748   5.610   4.245   0.066
85617SOL    HW258749   5.665   4.356  14.857
85618SOL     OW58750   6.844   2.526   3.403
85618SOL    HW158751   6.796   2.443   3.407
85618SOL    HW258752   6.837   2.562   3.491
85619SOL     OW58753   7.556   6.336   7.668
85619SOL    HW158754   7.488   6.372   7.611
85619SOL    HW258755   7.510   6.315   7.749
85620SOL     OW58756  12.797  13.321   1.563
85620SOL    HW158757  12.723  13.348   1.617
85620SOL    HW258758  12.761  13.316   1.474
85621SOL     OW58759   1.315   0.018   3.300
85621SOL    HW158760   1.368   0.069   3.361
85621SOL    HW258761   1.317  14.807   3.335
85622SOL     OW58762   2.070  10.557   5.299
85622SOL    HW158763   2.129  10.484   5.316
85622SOL    HW258764   2.119  10.634   5.328
85623SOL     OW58765   8.475   8.643  11.619
85623SOL    HW158766   8.504   8.561  11.658
85623SOL    HW258767   8.386   8.655  11.651
85624SOL     OW58768   5.412   0.107  10.544
85624SOL    HW158769   5.335   0.053  10.527
85624SOL    HW258770   5.417   0.113  10.639
85625SOL     OW58771   1.748   0.399  14.464
85625SOL    HW158772   1.808   0.436  14.400
85625SOL    HW258773   1.661   0.424  14.432
85626SOL     OW58774   4.510  14.276   8.509
85626SOL    HW158775   4.529  14.265   8.416
85626SOL    HW258776   4.523  14.189   8.547
85627SOL     OW58777   8.469   0.434   9.164
85627SOL    HW158778   8.441   0.518   9.127
85627SOL    HW258779   8.505   0.386   9.089
85628SOL     OW58780  14.603   4.629   2.895
85628SOL    HW158781  14.691   4.667   2.888
85628SOL    HW258782  14.614   4.552   2.951
85629SOL     OW58783   0.919   4.462   1.416
85629SOL    HW158784   1.011   4.487   1.422
85629SOL    HW258785   0.875   4.517   1.481
85630SOL     OW58786   7.978  12.995  14.597
85630SOL    HW158787   7.901  12.984  14.542
85630SOL    HW258788   8.002  13.088  14.588
85631SOL     OW58789   0.081   2.613   3.971
85631SOL    HW158790   0.150   2.623   3.906
85631SOL    HW258791   0.067   2.701   4.005
85632SOL     OW58792   6.987   8.489   3.816
85632SOL    HW158793   6.912   8.542   3.843
85632SOL    HW258794   7.063   8.540   3.843
85633SOL     OW58795   2.255   6.314   4.652
85633SOL    HW158796   2.200   6.278   4.721
85633SOL    HW258797   2.227   6.268   4.573
85634SOL     OW58798  14.187  14.651   9.349
85634SOL    HW158799  14.185  14.640   9.253
85634SOL    HW258800  14.245  14.581   9.380
85635SOL     OW58801   6.695   1.994   1.088
85635SOL    HW158802   6.757   1.989   1.161
85635SOL    HW258803   6.642   1.914   1.095
85636SOL     OW58804   8.681   1.370  11.393
85636SOL    HW158805   8.647   1.413  11.471
85636SOL    HW258806   8.650   1.280  11.399
85637SOL     OW58807   4.584   3.287   2.758
85637SOL    HW158808   4.567   3.327   2.843
85637SOL    HW258809   4.599   3.361   2.699
85638SOL     OW58810  10.631   2.930  14.664
85638SOL    HW158811  10.576   2.911  14.741
85638SOL    HW258812  10.593   3.010  14.628
85639SOL     OW58813   1.950   5.081  10.538
85639SOL    HW158814   2.001   5.161  10.533
85639SOL    HW258815   2.002   5.016  10.491
85640SOL     OW58816  10.549   4.948  10.065
85640SOL    HW158817  10.456   4.932  10.046
85640SOL    HW258818  10.563   4.905  10.149
85641SOL     OW58819   4.574  12.425   4.880
85641SOL    HW158820   4.584  12.358   4.948
85641SOL    HW258821   4.572  12.375   4.798
85642SOL     OW58822  13.653   1.347   4.962
85642SOL    HW158823  13.677   1.409   5.030
85642SOL    HW258824  13.679   1.262   4.997
85643SOL     OW58825  13.760   6.632   6.592
85643SOL    HW158826  13.721   6.594   6.514
85643SOL    HW258827  13.828   6.691   6.559
85644SOL     OW58828   9.290   4.737  11.555
85644SOL    HW158829   9.321   4.647  11.559
85644SOL    HW258830   9.209   4.738  11.606
85645SOL     OW58831  13.058  14.183  14.169
85645SOL    HW158832  13.018  14.260  14.128
85645SOL    HW258833  12.983  14.130  14.196
85646SOL     OW58834  11.040   7.930   8.425
85646SOL    HW158835  10.945   7.926   8.412
85646SOL    HW258836  11.050   7.958   8.516
85647SOL     OW58837   5.415   0.390  12.579
85647SOL    HW158838   5.348   0.449  12.543
85647SOL    HW258839   5.469   0.367  12.503
85648SOL     OW58840   1.980  11.388   1.046
85648SOL    HW158841   1.977  11.434   0.961
85648SOL    HW258842   1.961  11.297   1.024
85649SOL     OW58843   2.376   6.897   7.160
85649SOL    HW158844   2.287   6.883   7.127
85649SOL    HW258845   2.404   6.811   7.191
85650SOL     OW58846   7.210   9.909   6.415
85650SOL    HW158847   7.144   9.850   6.378
85650SOL    HW258848   7.258   9.941   6.340
85651SOL     OW58849   6.932  11.443  11.593
85651SOL    HW158850   6.942  11.359  11.638
85651SOL    HW258851   6.979  11.505  11.649
85652SOL     OW58852   5.435   7.418  14.666
85652SOL    HW158853   5.351   7.442  14.628
85652SOL    HW258854   5.449   7.327  14.638
85653SOL     OW58855   8.358   2.253   1.499
85653SOL    HW158856   8.418   2.205   1.442
85653SOL    HW258857   8.346   2.196   1.575
85654SOL     OW58858  10.000  13.990   6.386
85654SOL    HW158859  10.017  14.082   6.406
85654SOL    HW258860   9.915  13.991   6.342
85655SOL     OW58861   1.805  14.477   7.428
85655SOL    HW158862   1.859  14.415   7.379
85655SOL    HW258863   1.736  14.424   7.468
85656SOL     OW58864   1.904   3.418  10.025
85656SOL    HW158865   1.826   3.419   9.969
85656SOL    HW258866   1.896   3.498  10.077
85657SOL     OW58867   4.954  11.493  14.682
85657SOL    HW158868   4.938  11.478  14.589
85657SOL    HW258869   5.034  11.546  14.684
85658SOL     OW58870   5.482   7.752   4.615
85658SOL    HW158871   5.463   7.844   4.599
85658SOL    HW258872   5.578   7.747   4.616
85659SOL     OW58873   0.495  14.047   5.758
85659SOL    HW158874   0.480  14.142   5.761
85659SOL    HW258875   0.410  14.010   5.736
85660SOL     OW58876   1.528   2.898  12.633
85660SOL    HW158877   1.587   2.970  12.655
85660SOL    HW258878   1.446   2.941  12.608
85661SOL     OW58879   1.889   4.597  13.455
85661SOL    HW158880   1.841   4.536  13.511
85661SOL    HW258881   1.900   4.675  13.509
85662SOL     OW58882   6.785   0.078  10.438
85662SOL    HW158883   6.876   0.107  10.447
85662SOL    HW258884   6.736   0.158  10.418
85663SOL     OW58885   4.422   1.619  11.873
85663SOL    HW158886   4.496   1.669  11.839
85663SOL    HW258887   4.458   1.531  11.889
85664SOL     OW58888  10.542  12.035   8.104
85664SOL    HW158889  10.478  11.967   8.123
85664SOL    HW258890  10.492  12.117   8.112
85665SOL     OW58891   7.205   7.216   2.635
85665SOL    HW158892   7.175   7.294   2.590
85665SOL    HW258893   7.221   7.245   2.725
85666SOL     OW58894   4.706   8.489  14.543
85666SOL    HW158895   4.699   8.474  14.449
85666SOL    HW258896   4.702   8.584  14.552
85667SOL     OW58897  13.032  13.757   2.212
85667SOL    HW158898  13.075  13.765   2.297
85667SOL    HW258899  13.071  13.828   2.159
85668SOL     OW58900   8.015   8.859  12.139
85668SOL    HW158901   7.966   8.788  12.098
85668SOL    HW258902   7.961   8.887  12.213
85669SOL     OW58903   1.254   5.147   3.242
85669SOL    HW158904   1.316   5.149   3.169
85669SOL    HW258905   1.184   5.089   3.213
85670SOL     OW58906  12.737   1.835   8.197
85670SOL    HW158907  12.672   1.786   8.248
85670SOL    HW258908  12.687   1.906   8.156
85671SOL     OW58909  14.342  13.026  10.869
85671SOL    HW158910  14.288  13.022  10.790
85671SOL    HW258911  14.399  12.949  10.862
85672SOL     OW58912  10.976   2.241   4.573
85672SOL    HW158913  10.980   2.282   4.487
85672SOL    HW258914  10.972   2.315   4.634
85673SOL     OW58915   7.046  14.350   4.410
85673SOL    HW158916   7.029  14.391   4.495
85673SOL    HW258917   6.966  14.301   4.391
85674SOL     OW58918   2.763   1.930   2.703
85674SOL    HW158919   2.748   1.869   2.774
85674SOL    HW258920   2.740   2.016   2.740
85675SOL     OW58921   3.995   0.371  10.314
85675SOL    HW158922   4.018   0.462  10.332
85675SOL    HW258923   4.076   0.333  10.279
85676SOL     OW58924  12.494   3.087   2.749
85676SOL    HW158925  12.535   3.113   2.666
85676SOL    HW258926  12.536   3.004   2.772
85677SOL     OW58927   1.609   0.240   0.463
85677SOL    HW158928   1.546   0.285   0.408
85677SOL    HW258929   1.594   0.274   0.551
85678SOL     OW58930  14.545  10.686   7.048
85678SOL    HW158931  14.486  10.744   7.095
85678SOL    HW258932  14.492  10.649   6.978
85679SOL     OW58933   3.724  11.040   6.821
85679SOL    HW158934   3.730  11.004   6.733
85679SOL    HW258935   3.667  11.116   6.812
85680SOL     OW58936   2.178   9.660   7.475
85680SOL    HW158937   2.144   9.736   7.428
85680SOL    HW258938   2.264   9.689   7.507
85681SOL     OW58939   2.746  10.077   7.195
85681SOL    HW158940   2.734   9.983   7.205
85681SOL    HW258941   2.664  10.116   7.226
85682SOL     OW58942   9.361   4.894  13.796
85682SOL    HW158943   9.291   4.944  13.838
85682SOL    HW258944   9.320   4.812  13.770
85683SOL     OW58945   8.621   9.277  10.126
85683SOL    HW158946   8.665   9.335  10.189
85683SOL    HW258947   8.679   9.201  10.120
85684SOL     OW58948   8.108   9.515   2.387
85684SOL    HW158949   8.030   9.546   2.434
85684SOL    HW258950   8.139   9.440   2.438
85685SOL     OW58951   0.793   4.551   1.197
85685SOL    HW158952   0.709   4.509   1.213
85685SOL    HW258953   0.841   4.541   1.280
85686SOL     OW58954   9.483   0.321   9.627
85686SOL    HW158955   9.569   0.314   9.585
85686SOL    HW258956   9.434   0.245   9.595
85687SOL     OW58957  10.182   2.830  14.280
85687SOL    HW158958  10.254   2.851  14.340
85687SOL    HW258959  10.183   2.901  14.216
85688SOL     OW58960   3.472  14.103   0.824
85688SOL    HW158961   3.441  14.181   0.779
85688SOL    HW258962   3.430  14.030   0.778
85689SOL     OW58963   2.574   3.810   7.142
85689SOL    HW158964   2.520   3.731   7.131
85689SOL    HW258965   2.577   3.822   7.237
85690SOL     OW58966   2.374   9.332  11.656
85690SOL    HW158967   2.306   9.358  11.719
85690SOL    HW258968   2.329   9.323  11.573
85691SOL     OW58969   1.334   6.875   1.018
85691SOL    HW158970   1.352   6.912   1.105
85691SOL    HW258971   1.312   6.784   1.036
85692SOL     OW58972   7.430   9.743   9.975
85692SOL    HW158973   7.370   9.674   9.946
85692SOL    HW258974   7.452   9.718  10.065
85693SOL     OW58975  13.111   5.224   2.896
85693SOL    HW158976  13.049   5.193   2.961
85693SOL    HW258977  13.099   5.319   2.894
85694SOL     OW58978   0.103   9.047   7.907
85694SOL    HW158979   0.145   9.108   7.968
85694SOL    HW258980   0.168   8.979   7.892
85695SOL     OW58981   8.166   3.100   1.870
85695SOL    HW158982   8.074   3.086   1.892
85695SOL    HW258983   8.192   3.020   1.825
85696SOL     OW58984   0.730  12.742   4.549
85696SOL    HW158985   0.670  12.669   4.565
85696SOL    HW258986   0.730  12.754   4.454
85697SOL     OW58987   6.104   6.052   4.483
85697SOL    HW158988   6.158   6.112   4.534
85697SOL    HW258989   6.148   6.044   4.398
85698SOL     OW58990   6.794   8.873   4.313
85698SOL    HW158991   6.777   8.785   4.279
85698SOL    HW258992   6.889   8.883   4.308
85699SOL     OW58993  12.964   0.028   6.982
85699SOL    HW158994  13.008   0.014   6.898
85699SOL    HW258995  13.029   0.004   7.048
85700SOL     OW58996   1.578  10.793  14.337
85700SOL    HW158997   1.577  10.704  14.372
85700SOL    HW258998   1.532  10.845  14.403
85701SOL     OW58999  10.413   4.932   1.869
85701SOL    HW159000  10.488   4.910   1.814
85701SOL    HW259001  10.400   4.856   1.926
85702SOL     OW59002   6.182   6.239   9.606
85702SOL    HW159003   6.249   6.205   9.665
85702SOL    HW259004   6.132   6.163   9.580
85703SOL     OW59005  10.882  12.918   3.123
85703SOL    HW159006  10.941  12.863   3.072
85703SOL    HW259007  10.811  12.860   3.150
85704SOL     OW59008   1.886  14.432   4.782
85704SOL    HW159009   1.829  14.367   4.823
85704SOL    HW259010   1.958  14.381   4.744
85705SOL     OW59011   9.703   6.753   1.300
85705SOL    HW159012   9.735   6.837   1.331
85705SOL    HW259013   9.749   6.688   1.354
85706SOL     OW59014  12.622  13.495   0.574
85706SOL    HW159015  12.538  13.502   0.528
85706SOL    HW259016  12.616  13.560   0.645
85707SOL     OW59017   3.550   9.493   8.883
85707SOL    HW159018   3.489   9.567   8.894
85707SOL    HW259019   3.590   9.482   8.969
85708SOL     OW59020  13.270   1.790  11.156
85708SOL    HW159021  13.260   1.827  11.243
85708SOL    HW259022  13.188   1.808  11.111
85709SOL     OW59023   5.515   9.001   2.241
85709SOL    HW159024   5.433   8.959   2.267
85709SOL    HW259025   5.499   9.028   2.150
85710SOL     OW59026  13.345  13.253   8.735
85710SOL    HW159027  13.278  13.285   8.675
85710SOL    HW259028  13.408  13.208   8.679
85711SOL     OW59029   8.198  13.523  11.725
85711SOL    HW159030   8.150  13.539  11.807
85711SOL    HW259031   8.130  13.513  11.659
85712SOL     OW59032   1.097   3.228   2.100
85712SOL    HW159033   1.179   3.184   2.120
85712SOL    HW259034   1.116   3.321   2.113
85713SOL     OW59035   0.059   8.294   4.752
85713SOL    HW159036   0.027   8.384   4.754
85713SOL    HW259037   0.131   8.294   4.691
85714SOL     OW59038  12.827   5.521   7.471
85714SOL    HW159039  12.897   5.584   7.456
85714SOL    HW259040  12.862   5.463   7.539
85715SOL     OW59041   2.326   6.520   0.526
85715SOL    HW159042   2.340   6.514   0.431
85715SOL    HW259043   2.413   6.535   0.562
85716SOL     OW59044   7.408   8.758   1.067
85716SOL    HW159045   7.330   8.723   1.109
85716SOL    HW259046   7.376   8.830   1.012
85717SOL     OW59047  10.692   8.754   1.375
85717SOL    HW159048  10.645   8.705   1.308
85717SOL    HW259049  10.784   8.728   1.364
85718SOL     OW59050  14.589  10.633   5.632
85718SOL    HW159051  14.600  10.636   5.537
85718SOL    HW259052  14.508  10.585   5.646
85719SOL     OW59053  14.069   4.451  12.777
85719SOL    HW159054  14.041   4.421  12.863
85719SOL    HW259055  14.143   4.509  12.795
85720SOL     OW59056  10.700  10.428   0.252
85720SOL    HW159057  10.721  10.385   0.169
85720SOL    HW259058  10.607  10.447   0.246
85721SOL     OW59059   3.477  13.755   3.901
85721SOL    HW159060   3.481  13.795   3.814
85721SOL    HW259061   3.490  13.662   3.885
85722SOL     OW59062   4.408   6.400   9.290
85722SOL    HW159063   4.333   6.458   9.308
85722SOL    HW259064   4.485   6.452   9.314
85723SOL     OW59065   1.803   3.571   4.713
85723SOL    HW159066   1.837   3.482   4.713
85723SOL    HW259067   1.815   3.601   4.623
85724SOL     OW59068   0.971  12.053   1.402
85724SOL    HW159069   0.985  12.146   1.384
85724SOL    HW259070   0.998  12.042   1.493
85725SOL     OW59071  14.128  13.631   0.453
85725SOL    HW159072  14.180  13.572   0.399
85725SOL    HW259073  14.183  13.708   0.466
85726SOL     OW59074   4.498   9.090   6.236
85726SOL    HW159075   4.537   9.035   6.304
85726SOL    HW259076   4.572   9.114   6.179
85727SOL     OW59077  11.924   0.202   2.440
85727SOL    HW159078  11.999   0.246   2.479
85727SOL    HW259079  11.852   0.217   2.502
85728SOL     OW59080   8.861   0.344   9.588
85728SOL    HW159081   8.782   0.386   9.624
85728SOL    HW259082   8.914   0.417   9.556
85729SOL     OW59083   6.337  11.141  14.354
85729SOL    HW159084   6.415  11.134  14.408
85729SOL    HW259085   6.331  11.057  14.309
85730SOL     OW59086  12.534   9.762   4.073
85730SOL    HW159087  12.609   9.711   4.104
85730SOL    HW259088  12.462   9.699   4.070
85731SOL     OW59089   3.083   9.205   3.313
85731SOL    HW159090   3.094   9.184   3.406
85731SOL    HW259091   3.091   9.121   3.268
85732SOL     OW59092   4.080   0.760   6.095
85732SOL    HW159093   4.013   0.749   6.028
85732SOL    HW259094   4.130   0.678   6.092
85733SOL     OW59095   1.088  14.436  14.579
85733SOL    HW159096   1.060  14.347  14.557
85733SOL    HW259097   1.184  14.433  14.575
85734SOL     OW59098   8.634  10.515  11.566
85734SOL    HW159099   8.561  10.576  11.574
85734SOL    HW259100   8.596  10.436  11.528
85735SOL     OW59101   1.566  10.456   5.580
85735SOL    HW159102   1.527  10.398   5.645
85735SOL    HW259103   1.586  10.536   5.629
85736SOL     OW59104   8.508   0.367   5.254
85736SOL    HW159105   8.574   0.380   5.186
85736SOL    HW259106   8.427   0.404   5.217
85737SOL     OW59107  12.716   1.216  10.724
85737SOL    HW159108  12.731   1.142  10.665
85737SOL    HW259109  12.795   1.219  10.778
85738SOL     OW59110   7.439   8.231   8.476
85738SOL    HW159111   7.457   8.234   8.570
85738SOL    HW259112   7.368   8.168   8.467
85739SOL     OW59113  13.115   9.427  11.129
85739SOL    HW159114  13.106   9.391  11.041
85739SOL    HW259115  13.153   9.356  11.180
85740SOL     OW59116   2.651   5.184  11.491
85740SOL    HW159117   2.668   5.091  11.473
85740SOL    HW259118   2.677   5.195  11.583
85741SOL     OW59119   9.164   1.598   2.320
85741SOL    HW159120   9.135   1.589   2.229
85741SOL    HW259121   9.160   1.510   2.356
85742SOL     OW59122  10.577  10.195   7.051
85742SOL    HW159123  10.567  10.259   7.121
85742SOL    HW259124  10.670  10.173   7.052
85743SOL     OW59125   7.303  14.407   7.312
85743SOL    HW159126   7.240  14.475   7.289
85743SOL    HW259127   7.258  14.324   7.293
85744SOL     OW59128   9.155  13.081  11.669
85744SOL    HW159129   9.079  13.109  11.618
85744SOL    HW259130   9.166  12.988  11.647
85745SOL     OW59131   1.734   2.663   9.363
85745SOL    HW159132   1.730   2.757   9.348
85745SOL    HW259133   1.822   2.649   9.399
85746SOL     OW59134   2.331   7.243   9.023
85746SOL    HW159135   2.245   7.283   9.010
85746SOL    HW259136   2.317   7.178   9.092
85747SOL     OW59137  14.732   1.722  10.010
85747SOL    HW159138  14.721   1.815  10.028
85747SOL    HW259139  14.827   1.708  10.017
85748SOL     OW59140   0.656   4.276  13.083
85748SOL    HW159141   0.699   4.342  13.138
85748SOL    HW259142   0.692   4.291  12.996
85749SOL     OW59143  12.556  14.041   7.131
85749SOL    HW159144  12.575  13.961   7.081
85749SOL    HW259145  12.525  14.103   7.065
85750SOL     OW59146  13.094   7.275   3.094
85750SOL    HW159147  13.141   7.320   3.164
85750SOL    HW259148  13.081   7.186   3.127
85751SOL     OW59149   1.517   9.621   3.999
85751SOL    HW159150   1.599   9.640   3.954
85751SOL    HW259151   1.497   9.702   4.048
85752SOL     OW59152   3.143  11.880   9.359
85752SOL    HW159153   3.225  11.925   9.379
85752SOL    HW259154   3.075  11.945   9.373
85753SOL     OW59155   2.551   5.229   7.417
85753SOL    HW159156   2.546   5.229   7.321
85753SOL    HW259157   2.603   5.306   7.439
85754SOL     OW59158   3.250   2.186   6.921
85754SOL    HW159159   3.340   2.214   6.934
85754SOL    HW259160   3.257   2.093   6.900
85755SOL     OW59161   4.681  14.572   6.443
85755SOL    HW159162   4.774  14.558   6.461
85755SOL    HW259163   4.659  14.651   6.493
85756SOL     OW59164   7.901   6.937   3.240
85756SOL    HW159165   7.919   6.976   3.154
85756SOL    HW259166   7.833   6.871   3.223
85757SOL     OW59167   4.183  13.122  10.808
85757SOL    HW159168   4.121  13.191  10.786
85757SOL    HW259169   4.138  13.040  10.787
85758SOL     OW59170   9.934  11.413   0.996
85758SOL    HW159171   9.871  11.368   1.053
85758SOL    HW259172   9.909  11.505   1.001
85759SOL     OW59173  10.619   9.472  10.940
85759SOL    HW159174  10.638   9.402  10.878
85759SOL    HW259175  10.657   9.441  11.022
85760SOL     OW59176   2.576  10.575   3.458
85760SOL    HW159177   2.663  10.604   3.431
85760SOL    HW259178   2.589  10.487   3.493
85761SOL     OW59179   8.404  13.603   7.078
85761SOL    HW159180   8.367  13.546   7.146
85761SOL    HW259181   8.356  13.580   6.999
85762SOL     OW59182   1.973   0.984   2.126
85762SOL    HW159183   1.912   0.923   2.084
85762SOL    HW259184   2.040   1.000   2.060
85763SOL     OW59185   1.711  14.095  10.529
85763SOL    HW159186   1.704  14.085  10.624
85763SOL    HW259187   1.770  14.024  10.502
85764SOL     OW59188   2.417  14.728   9.232
85764SOL    HW159189   2.403  14.683   9.315
85764SOL    HW259190   2.431  14.820   9.256
85765SOL     OW59191  12.631   1.217   6.860
85765SOL    HW159192  12.662   1.304   6.836
85765SOL    HW259193  12.680   1.157   6.804
85766SOL     OW59194   5.999   4.184  10.074
85766SOL    HW159195   6.065   4.159  10.139
85766SOL    HW259196   6.035   4.154   9.991
85767SOL     OW59197   5.731   5.085   7.857
85767SOL    HW159198   5.753   4.998   7.824
85767SOL    HW259199   5.788   5.145   7.808
85768SOL     OW59200   2.829   3.618  10.572
85768SOL    HW159201   2.815   3.568  10.491
85768SOL    HW259202   2.804   3.558  10.642
85769SOL     OW59203   0.516  10.020   1.536
85769SOL    HW159204   0.581  10.060   1.594
85769SOL    HW259205   0.437  10.013   1.590
85770SOL     OW59206   0.811  13.384   4.921
85770SOL    HW159207   0.789  13.291   4.921
85770SOL    HW259208   0.731  13.427   4.889
85771SOL     OW59209  10.107   4.427   6.409
85771SOL    HW159210  10.102   4.518   6.380
85771SOL    HW259211  10.159   4.383   6.342
85772SOL     OW59212   2.643  11.806   8.970
85772SOL    HW159213   2.610  11.828   8.883
85772SOL    HW259214   2.592  11.860   9.030
85773SOL     OW59215   0.178   3.571   9.187
85773SOL    HW159216   0.230   3.646   9.157
85773SOL    HW259217   0.088   3.592   9.161
85774SOL     OW59218   3.795   0.643   9.170
85774SOL    HW159219   3.706   0.627   9.137
85774SOL    HW259220   3.786   0.642   9.265
85775SOL     OW59221  12.839   4.399   4.596
85775SOL    HW159222  12.766   4.349   4.559
85775SOL    HW259223  12.838   4.376   4.689
85776SOL     OW59224   9.480   3.207  10.617
85776SOL    HW159225   9.431   3.219  10.698
85776SOL    HW259226   9.555   3.151  10.642
85777SOL     OW59227  12.019  13.536   2.686
85777SOL    HW159228  12.006  13.625   2.652
85777SOL    HW259229  11.982  13.539   2.774
85778SOL     OW59230  12.713   0.199   3.049
85778SOL    HW159231  12.668   0.273   3.090
85778SOL    HW259232  12.790   0.237   3.008
85779SOL     OW59233   1.532   7.013   0.620
85779SOL    HW159234   1.564   6.993   0.532
85779SOL    HW259235   1.608   7.050   0.665
85780SOL     OW59236  14.793  14.733   6.082
85780SOL    HW159237  14.842  14.794   6.028
85780SOL    HW259238  14.823  14.750   6.171
85781SOL     OW59239   0.362   2.651  13.142
85781SOL    HW159240   0.430   2.626  13.204
85781SOL    HW259241   0.404   2.646  13.056
85782SOL     OW59242   4.259  10.420   9.302
85782SOL    HW159243   4.178  10.466   9.280
85782SOL    HW259244   4.318  10.488   9.334
85783SOL     OW59245  11.417   0.043  12.728
85783SOL    HW159246  11.326   0.067  12.747
85783SOL    HW259247  11.460   0.127  12.713
85784SOL     OW59248  14.406  10.545   3.241
85784SOL    HW159249  14.432  10.475   3.299
85784SOL    HW259250  14.487  10.593   3.223
85785SOL     OW59251   2.779  13.811   4.234
85785SOL    HW159252   2.715  13.747   4.204
85785SOL    HW259253   2.854  13.758   4.262
85786SOL     OW59254   2.484   7.052  11.297
85786SOL    HW159255   2.389   7.042  11.290
85786SOL    HW259256   2.520   6.969  11.268
85787SOL     OW59257   5.927  10.710  11.138
85787SOL    HW159258   5.887  10.788  11.177
85787SOL    HW259259   5.884  10.637  11.181
85788SOL     OW59260  13.818  14.094  10.357
85788SOL    HW159261  13.836  14.151  10.432
85788SOL    HW259262  13.843  14.006  10.387
85789SOL     OW59263  11.752   4.434   3.270
85789SOL    HW159264  11.808   4.399   3.339
85789SOL    HW259265  11.673   4.462   3.315
85790SOL     OW59266  14.805   8.757   4.962
85790SOL    HW159267  14.775   8.682   4.911
85790SOL    HW259268   0.022   8.760   4.948
85791SOL     OW59269   7.732   7.721   4.922
85791SOL    HW159270   7.768   7.637   4.951
85791SOL    HW259271   7.640   7.718   4.946
85792SOL     OW59272  13.660   7.570   6.839
85792SOL    HW159273  13.708   7.652   6.826
85792SOL    HW259274  13.704   7.507   6.782
85793SOL     OW59275   8.786   2.386  12.858
85793SOL    HW159276   8.785   2.315  12.922
85793SOL    HW259277   8.760   2.464  12.907
85794SOL     OW59278   0.651  13.527   4.142
85794SOL    HW159279   0.674  13.434   4.136
85794SOL    HW259280   0.562  13.528   4.176
85795SOL     OW59281  14.086   6.394  13.182
85795SOL    HW159282  14.044   6.330  13.239
85795SOL    HW259283  14.014   6.437  13.136
85796SOL     OW59284  11.413   9.283  11.046
85796SOL    HW159285  11.381   9.373  11.047
85796SOL    HW259286  11.446   9.267  11.134
85797SOL     OW59287   4.472  12.551   7.799
85797SOL    HW159288   4.559  12.512   7.805
85797SOL    HW259289   4.486  12.637   7.760
85798SOL     OW59290   1.617   6.630   7.426
85798SOL    HW159291   1.549   6.574   7.464
85798SOL    HW259292   1.576   6.667   7.348
85799SOL     OW59293  13.463   6.358   3.736
85799SOL    HW159294  13.461   6.452   3.756
85799SOL    HW259295  13.372   6.331   3.741
85800SOL     OW59296   6.275   7.792   9.568
85800SOL    HW159297   6.242   7.703   9.580
85800SOL    HW259298   6.353   7.782   9.513
85801SOL     OW59299   9.916   1.522   5.101
85801SOL    HW159300   9.868   1.599   5.069
85801SOL    HW259301   9.974   1.556   5.169
85802SOL     OW59302  12.154  11.094   4.657
85802SOL    HW159303  12.156  11.160   4.726
85802SOL    HW259304  12.200  11.135   4.584
85803SOL     OW59305  10.043   4.441   5.187
85803SOL    HW159306   9.977   4.396   5.240
85803SOL    HW259307  10.039   4.398   5.102
85804SOL     OW59308   3.275   8.527   0.062
85804SOL    HW159309   3.288   8.617   0.033
85804SOL    HW259310   3.254   8.534   0.155
85805SOL     OW59311   5.551   1.202   5.308
85805SOL    HW159312   5.619   1.224   5.371
85805SOL    HW259313   5.527   1.112   5.329
85806SOL     OW59314   0.954   4.957  11.699
85806SOL    HW159315   1.037   4.998  11.675
85806SOL    HW259316   0.918   4.927  11.615
85807SOL     OW59317  13.705   0.805   2.338
85807SOL    HW159318  13.644   0.758   2.281
85807SOL    HW259319  13.679   0.897   2.332
85808SOL     OW59320   7.692  12.622   6.755
85808SOL    HW159321   7.657  12.607   6.667
85808SOL    HW259322   7.729  12.538   6.781
85809SOL     OW59323  11.776   6.814  13.217
85809SOL    HW159324  11.807   6.751  13.153
85809SOL    HW259325  11.689   6.839  13.186
85810SOL     OW59326   9.372  11.311   6.800
85810SOL    HW159327   9.294  11.366   6.811
85810SOL    HW259328   9.342  11.235   6.750
85811SOL     OW59329  12.935   4.628   8.947
85811SOL    HW159330  12.952   4.715   8.981
85811SOL    HW259331  12.945   4.569   9.022
85812SOL     OW59332   1.945   6.269   7.694
85812SOL    HW159333   2.032   6.239   7.720
85812SOL    HW259334   1.897   6.275   7.776
85813SOL     OW59335  12.451  11.806  13.189
85813SOL    HW159336  12.431  11.829  13.098
85813SOL    HW259337  12.543  11.781  13.188
85814SOL     OW59338   8.903  12.940   0.364
85814SOL    HW159339   8.919  12.849   0.339
85814SOL    HW259340   8.966  12.956   0.434
85815SOL     OW59341   7.941   3.660  12.931
85815SOL    HW159342   7.972   3.713  13.005
85815SOL    HW259343   8.020   3.626  12.890
85816SOL     OW59344  10.834   8.431   3.813
85816SOL    HW159345  10.889   8.459   3.886
85816SOL    HW259346  10.883   8.360   3.771
85817SOL     OW59347  10.208   7.220   6.506
85817SOL    HW159348  10.244   7.155   6.567
85817SOL    HW259349  10.284   7.249   6.455
85818SOL     OW59350   3.970   1.054   0.282
85818SOL    HW159351   3.999   1.127   0.338
85818SOL    HW259352   4.005   0.976   0.324
85819SOL     OW59353  14.223   1.188  11.729
85819SOL    HW159354  14.190   1.203  11.817
85819SOL    HW259355  14.153   1.218  11.671
85820SOL     OW59356   6.405  13.949   8.722
85820SOL    HW159357   6.426  13.959   8.815
85820SOL    HW259358   6.343  14.019   8.703
85821SOL     OW59359  13.105   0.917   0.053
85821SOL    HW159360  13.166   0.978   0.012
85821SOL    HW259361  13.021   0.934   0.011
85822SOL     OW59362   1.979   1.101   7.947
85822SOL    HW159363   2.065   1.138   7.931
85822SOL    HW259364   1.923   1.141   7.880
85823SOL     OW59365  10.189  12.131   9.061
85823SOL    HW159366  10.154  12.081   9.135
85823SOL    HW259367  10.194  12.067   8.989
85824SOL     OW59368   0.475  14.065   8.234
85824SOL    HW159369   0.540  14.009   8.276
85824SOL    HW259370   0.482  14.046   8.141
85825SOL     OW59371   6.412   7.790  11.404
85825SOL    HW159372   6.451   7.835  11.329
85825SOL    HW259373   6.370   7.860  11.454
85826SOL     OW59374   8.599   6.433   7.484
85826SOL    HW159375   8.545   6.501   7.443
85826SOL    HW259376   8.544   6.396   7.553
85827SOL     OW59377   7.088   5.375   2.424
85827SOL    HW159378   7.095   5.431   2.347
85827SOL    HW259379   7.077   5.287   2.390
85828SOL     OW59380   6.638   4.580   6.171
85828SOL    HW159381   6.641   4.594   6.266
85828SOL    HW259382   6.730   4.569   6.146
85829SOL     OW59383   5.923   6.779   1.843
85829SOL    HW159384   5.972   6.711   1.890
85829SOL    HW259385   5.897   6.841   1.910
85830SOL     OW59386  11.671   6.178  10.511
85830SOL    HW159387  11.708   6.130  10.585
85830SOL    HW259388  11.578   6.185  10.530
85831SOL     OW59389  14.674  14.123   1.629
85831SOL    HW159390  14.764  14.108   1.601
85831SOL    HW259391  14.672  14.095   1.720
85832SOL     OW59392   4.245  12.866  10.704
85832SOL    HW159393   4.194  12.786  10.719
85832SOL    HW259394   4.236  12.916  10.785
85833SOL     OW59395  13.913   4.981   1.498
85833SOL    HW159396  13.972   5.038   1.547
85833SOL    HW259397  13.829   4.989   1.543
85834SOL     OW59398   3.096  14.171   9.172
85834SOL    HW159399   3.169  14.231   9.189
85834SOL    HW259400   3.058  14.202   9.090
85835SOL     OW59401   9.776   5.436   9.193
85835SOL    HW159402   9.735   5.520   9.210
85835SOL    HW259403   9.862   5.458   9.158
85836SOL     OW59404   5.876   3.557  10.057
85836SOL    HW159405   5.941   3.541  10.124
85836SOL    HW259406   5.914   3.520   9.977
85837SOL     OW59407   6.622   7.467  10.307
85837SOL    HW159408   6.661   7.380  10.310
85837SOL    HW259409   6.572   7.474  10.388
85838SOL     OW59410   8.636   4.558   6.696
85838SOL    HW159411   8.637   4.646   6.735
85838SOL    HW259412   8.579   4.566   6.620
85839SOL     OW59413  10.371   4.776   4.957
85839SOL    HW159414  10.344   4.734   4.875
85839SOL    HW259415  10.321   4.730   5.024
85840SOL     OW59416  12.577   3.963  12.746
85840SOL    HW159417  12.518   3.924  12.682
85840SOL    HW259418  12.534   3.951  12.830
85841SOL     OW59419   8.511   8.484   3.885
85841SOL    HW159420   8.530   8.549   3.952
85841SOL    HW259421   8.596   8.441   3.868
85842SOL     OW59422   2.598   8.822   9.327
85842SOL    HW159423   2.658   8.874   9.272
85842SOL    HW259424   2.511   8.859   9.309
85843SOL     OW59425   4.303   6.063   9.492
85843SOL    HW159426   4.375   6.081   9.430
85843SOL    HW259427   4.330   6.107   9.573
85844SOL     OW59428   8.024   5.462   4.283
85844SOL    HW159429   7.974   5.488   4.206
85844SOL    HW259430   8.082   5.393   4.251
85845SOL     OW59431   0.694  14.682   2.509
85845SOL    HW159432   0.659  14.596   2.532
85845SOL    HW259433   0.777  14.663   2.465
85846SOL     OW59434   8.595  14.374   6.548
85846SOL    HW159435   8.613  14.309   6.616
85846SOL    HW259436   8.585  14.456   6.595
85847SOL     OW59437   2.245  11.024   6.254
85847SOL    HW159438   2.270  10.933   6.271
85847SOL    HW259439   2.315  11.076   6.295
85848SOL     OW59440   9.441  14.550   8.042
85848SOL    HW159441   9.372  14.552   8.109
85848SOL    HW259442   9.505  14.616   8.072
85849SOL     OW59443  10.069   3.071   8.669
85849SOL    HW159444   9.995   3.121   8.635
85849SOL    HW259445  10.029   3.009   8.730
85850SOL     OW59446  12.611   0.158  12.513
85850SOL    HW159447  12.562   0.165  12.430
85850SOL    HW259448  12.569   0.224  12.570
85851SOL     OW59449   9.436   6.888   0.635
85851SOL    HW159450   9.359   6.883   0.578
85851SOL    HW259451   9.507   6.852   0.581
85852SOL     OW59452  12.779   0.715   9.580
85852SOL    HW159453  12.766   0.810   9.583
85852SOL    HW259454  12.728   0.686   9.504
85853SOL     OW59455   0.188   3.283   0.157
85853SOL    HW159456   0.170   3.359   0.102
85853SOL    HW259457   0.280   3.263   0.141
85854SOL     OW59458  10.383  10.152   3.794
85854SOL    HW159459  10.451  10.091   3.821
85854SOL    HW259460  10.428  10.216   3.739
85855SOL     OW59461  11.692   0.293   1.872
85855SOL    HW159462  11.688   0.359   1.940
85855SOL    HW259463  11.601   0.265   1.860
85856SOL     OW59464   1.601   8.763  14.589
85856SOL    HW159465   1.544   8.771  14.513
85856SOL    HW259466   1.559   8.817  14.656
85857SOL     OW59467  13.353   2.101   2.161
85857SOL    HW159468  13.345   2.193   2.135
85857SOL    HW259469  13.294   2.091   2.236
85858SOL     OW59470   7.526   2.759   7.166
85858SOL    HW159471   7.562   2.725   7.248
85858SOL    HW259472   7.452   2.813   7.193
85859SOL     OW59473   2.565   4.088  12.665
85859SOL    HW159474   2.505   4.031  12.714
85859SOL    HW259475   2.561   4.055  12.575
85860SOL     OW59476  13.291  10.529   4.394
85860SOL    HW159477  13.245  10.479   4.326
85860SOL    HW259478  13.375  10.552   4.353
85861SOL     OW59479  11.510   7.975   9.621
85861SOL    HW159480  11.480   7.976   9.712
85861SOL    HW259481  11.470   7.896   9.583
85862SOL     OW59482   9.374   5.948  13.683
85862SOL    HW159483   9.391   5.892  13.759
85862SOL    HW259484   9.305   5.903  13.634
85863SOL     OW59485  11.525   7.971   5.452
85863SOL    HW159486  11.508   7.895   5.396
85863SOL    HW259487  11.544   7.933   5.538
85864SOL     OW59488  13.922   4.140  11.441
85864SOL    HW159489  13.976   4.182  11.508
85864SOL    HW259490  13.977   4.141  11.362
85865SOL     OW59491   4.462   0.937   8.351
85865SOL    HW159492   4.415   1.011   8.313
85865SOL    HW259493   4.394   0.884   8.393
85866SOL     OW59494   6.013  14.143   8.115
85866SOL    HW159495   5.949  14.074   8.099
85866SOL    HW259496   6.067  14.110   8.187
85867SOL     OW59497   7.624  14.783  14.060
85867SOL    HW159498   7.613  14.733  13.979
85867SOL    HW259499   7.666  14.721  14.120
85868SOL     OW59500  10.139   8.306   9.628
85868SOL    HW159501  10.172   8.396   9.621
85868SOL    HW259502  10.088   8.294   9.548
85869SOL     OW59503   1.886  14.306  12.051
85869SOL    HW159504   1.958  14.282  12.110
85869SOL    HW259505   1.874  14.400  12.065
85870SOL     OW59506   7.270  10.030  10.099
85870SOL    HW159507   7.201   9.967  10.118
85870SOL    HW259508   7.251  10.061  10.010
85871SOL     OW59509  14.314  10.204   9.209
85871SOL    HW159510  14.232  10.243   9.177
85871SOL    HW259511  14.377  10.275   9.208
85872SOL     OW59512   2.256   5.816  10.436
85872SOL    HW159513   2.263   5.780  10.525
85872SOL    HW259514   2.168   5.854  10.433
85873SOL     OW59515   8.941   5.329   8.718
85873SOL    HW159516   8.849   5.355   8.715
85873SOL    HW259517   8.938   5.233   8.710
85874SOL     OW59518  10.837   9.092  12.428
85874SOL    HW159519  10.784   9.127  12.356
85874SOL    HW259520  10.833   8.997  12.417
85875SOL     OW59521   9.702  12.770  12.095
85875SOL    HW159522   9.698  12.721  12.013
85875SOL    HW259523   9.622  12.745  12.142
85876SOL     OW59524   4.868  10.528  10.742
85876SOL    HW159525   4.867  10.545  10.648
85876SOL    HW259526   4.776  10.521  10.766
85877SOL     OW59527   4.088  14.398   0.230
85877SOL    HW159528   4.018  14.367   0.173
85877SOL    HW259529   4.069  14.491   0.243
85878SOL     OW59530   3.058   3.835   9.067
85878SOL    HW159531   3.063   3.746   9.100
85878SOL    HW259532   3.140   3.848   9.019
85879SOL     OW59533   7.709  10.508   6.804
85879SOL    HW159534   7.791  10.543   6.839
85879SOL    HW259535   7.641  10.541   6.864
85880SOL     OW59536   3.612   1.712   0.353
85880SOL    HW159537   3.681   1.751   0.299
85880SOL    HW259538   3.596   1.626   0.314
85881SOL     OW59539   4.351   2.668   5.170
85881SOL    HW159540   4.274   2.685   5.116
85881SOL    HW259541   4.360   2.745   5.226
85882SOL     OW59542   1.941  13.950  13.326
85882SOL    HW159543   1.969  14.041  13.329
85882SOL    HW259544   1.856  13.949  13.369
85883SOL     OW59545   1.051  12.560  13.345
85883SOL    HW159546   1.004  12.560  13.262
85883SOL    HW259547   1.083  12.649  13.355
85884SOL     OW59548   8.599  10.932   5.746
85884SOL    HW159549   8.646  10.970   5.673
85884SOL    HW259550   8.545  10.863   5.706
85885SOL     OW59551   4.383   1.278   6.621
85885SOL    HW159552   4.359   1.352   6.565
85885SOL    HW259553   4.446   1.228   6.570
85886SOL     OW59554  10.022   7.592  12.696
85886SOL    HW159555   9.951   7.636  12.650
85886SOL    HW259556  10.010   7.499  12.676
85887SOL     OW59557  11.615   3.480   8.678
85887SOL    HW159558  11.615   3.385   8.695
85887SOL    HW259559  11.620   3.520   8.765
85888SOL     OW59560   2.024   4.100   5.697
85888SOL    HW159561   2.074   4.062   5.769
85888SOL    HW259562   1.933   4.075   5.716
85889SOL     OW59563   4.280   7.491   0.047
85889SOL    HW159564   4.292   7.407   0.093
85889SOL    HW259565   4.369   7.525   0.035
85890SOL     OW59566   3.951  13.716   6.975
85890SOL    HW159567   3.953  13.767   7.057
85890SOL    HW259568   3.882  13.757   6.923
85891SOL     OW59569   8.128  13.839   6.417
85891SOL    HW159570   8.037  13.866   6.423
85891SOL    HW259571   8.174  13.915   6.382
85892SOL     OW59572   4.350   3.420  12.915
85892SOL    HW159573   4.273   3.381  12.957
85892SOL    HW259574   4.331   3.514  12.912
85893SOL     OW59575   1.866  12.938  13.566
85893SOL    HW159576   1.831  12.952  13.478
85893SOL    HW259577   1.940  12.878  13.553
85894SOL     OW59578   4.177   4.427   3.505
85894SOL    HW159579   4.241   4.379   3.557
85894SOL    HW259580   4.185   4.391   3.417
85895SOL     OW59581  12.902   5.553   6.890
85895SOL    HW159582  12.867   5.641   6.873
85895SOL    HW259583  12.845   5.518   6.958
85896SOL     OW59584  12.140   3.918  10.823
85896SOL    HW159585  12.130   4.007  10.856
85896SOL    HW259586  12.073   3.867  10.869
85897SOL     OW59587   5.364   9.643   0.574
85897SOL    HW159588   5.458   9.649   0.556
85897SOL    HW259589   5.356   9.569   0.633
85898SOL     OW59590   7.685   8.433   9.001
85898SOL    HW159591   7.657   8.346   8.971
85898SOL    HW259592   7.706   8.420   9.094
85899SOL     OW59593  12.816  11.834   8.364
85899SOL    HW159594  12.874  11.910   8.355
85899SOL    HW259595  12.729  11.866   8.340
85900SOL     OW59596   3.445  13.950   2.177
85900SOL    HW159597   3.367  13.991   2.140
85900SOL    HW259598   3.414  13.905   2.255
85901SOL     OW59599   5.305   1.766   8.798
85901SOL    HW159600   5.250   1.843   8.805
85901SOL    HW259601   5.346   1.757   8.884
85902SOL     OW59602   5.070   9.232  14.395
85902SOL    HW159603   5.010   9.256  14.324
85902SOL    HW259604   5.026   9.161  14.441
85903SOL     OW59605   0.104   1.364  11.603
85903SOL    HW159606   0.163   1.414  11.659
85903SOL    HW259607   0.027   1.421  11.593
85904SOL     OW59608   7.735   6.031   4.768
85904SOL    HW159609   7.739   6.085   4.848
85904SOL    HW259610   7.820   5.987   4.765
85905SOL     OW59611  12.034   5.613  12.007
85905SOL    HW159612  12.099   5.680  12.029
85905SOL    HW259613  12.042   5.549  12.078
85906SOL     OW59614  14.070  11.245   7.722
85906SOL    HW159615  14.134  11.279   7.660
85906SOL    HW259616  14.082  11.150   7.720
85907SOL     OW59617   9.092  13.855   2.485
85907SOL    HW159618   9.133  13.778   2.447
85907SOL    HW259619   9.073  13.912   2.411
85908SOL     OW59620  11.517   1.449   3.281
85908SOL    HW159621  11.423   1.439   3.262
85908SOL    HW259622  11.519   1.499   3.363
85909SOL     OW59623   5.409   7.246   3.576
85909SOL    HW159624   5.431   7.292   3.657
85909SOL    HW259625   5.478   7.181   3.566
85910SOL     OW59626   6.011  11.011   6.009
85910SOL    HW159627   5.924  11.049   5.992
85910SOL    HW259628   6.068  11.053   5.944
85911SOL     OW59629  11.566  12.236   5.413
85911SOL    HW159630  11.649  12.224   5.367
85911SOL    HW259631  11.561  12.161   5.473
85912SOL     OW59632   9.453   3.066   7.261
85912SOL    HW159633   9.378   3.084   7.318
85912SOL    HW259634   9.425   3.096   7.175
85913SOL     OW59635   2.425   3.525  12.033
85913SOL    HW159636   2.341   3.570  12.023
85913SOL    HW259637   2.437   3.520  12.128
85914SOL     OW59638  10.210   8.357  10.640
85914SOL    HW159639  10.299   8.389  10.627
85914SOL    HW259640  10.198   8.358  10.735
85915SOL     OW59641   4.401   3.536   1.590
85915SOL    HW159642   4.359   3.616   1.557
85915SOL    HW259643   4.368   3.527   1.679
85916SOL     OW59644   0.371   7.833   7.647
85916SOL    HW159645   0.384   7.809   7.555
85916SOL    HW259646   0.321   7.760   7.684
85917SOL     OW59647  11.187   2.849   4.439
85917SOL    HW159648  11.149   2.766   4.467
85917SOL    HW259649  11.182   2.847   4.344
85918SOL     OW59650   3.759  11.468  13.527
85918SOL    HW159651   3.757  11.555  13.488
85918SOL    HW259652   3.667  11.448  13.547
85919SOL     OW59653  14.719  10.215   0.193
85919SOL    HW159654  14.704  10.210   0.287
85919SOL    HW259655  14.802  10.262   0.185
85920SOL     OW59656   0.016   0.676  14.348
85920SOL    HW159657   0.053   0.736  14.413
85920SOL    HW259658   0.089   0.617  14.326
85921SOL     OW59659  14.115   0.436  11.410
85921SOL    HW159660  14.168   0.515  11.398
85921SOL    HW259661  14.028   0.468  11.433
85922SOL     OW59662   1.333   9.329   4.476
85922SOL    HW159663   1.310   9.307   4.386
85922SOL    HW259664   1.288   9.264   4.529
85923SOL     OW59665   9.063  12.516   8.728
85923SOL    HW159666   9.044  12.565   8.648
85923SOL    HW259667   9.003  12.552   8.793
85924SOL     OW59668   6.363  11.852   5.706
85924SOL    HW159669   6.346  11.934   5.661
85924SOL    HW259670   6.357  11.785   5.637
85925SOL     OW59671  14.239   3.319   1.346
85925SOL    HW159672  14.143   3.312   1.342
85925SOL    HW259673  14.257   3.411   1.328
85926SOL     OW59674   1.416   2.072   9.844
85926SOL    HW159675   1.395   1.989   9.802
85926SOL    HW259676   1.331   2.110   9.867
85927SOL     OW59677   9.277   2.367   3.817
85927SOL    HW159678   9.242   2.357   3.905
85927SOL    HW259679   9.372   2.369   3.828
85928SOL     OW59680  13.263   0.550  13.716
85928SOL    HW159681  13.237   0.633  13.756
85928SOL    HW259682  13.349   0.567  13.679
85929SOL     OW59683  10.676  12.084  12.892
85929SOL    HW159684  10.614  12.141  12.937
85929SOL    HW259685  10.630  12.054  12.814
85930SOL     OW59686  12.042   1.778  13.249
85930SOL    HW159687  12.087   1.848  13.296
85930SOL    HW259688  12.064   1.698  13.297
85931SOL     OW59689   3.458   2.714  14.007
85931SOL    HW159690   3.467   2.635  14.060
85931SOL    HW259691   3.490   2.688  13.921
85932SOL     OW59692   6.216  10.876   9.414
85932SOL    HW159693   6.128  10.862   9.379
85932SOL    HW259694   6.248  10.788   9.434
85933SOL     OW59695  11.027   2.701  12.143
85933SOL    HW159696  11.087   2.667  12.210
85933SOL    HW259697  11.024   2.796  12.159
85934SOL     OW59698  10.588  10.563  12.726
85934SOL    HW159699  10.589  10.599  12.815
85934SOL    HW259700  10.560  10.636  12.671
85935SOL     OW59701   7.412   6.898   0.037
85935SOL    HW159702   7.321   6.923   0.055
85935SOL    HW259703   7.445   6.969  14.860
85936SOL     OW59704  13.678   2.458   6.137
85936SOL    HW159705  13.731   2.536   6.119
85936SOL    HW259706  13.643   2.433   6.051
85937SOL     OW59707   7.891   2.462   1.913
85937SOL    HW159708   7.864   2.391   1.855
85937SOL    HW259709   7.861   2.435   2.000
85938SOL     OW59710  10.300  13.573   6.422
85938SOL    HW159711  10.305  13.652   6.368
85938SOL    HW259712  10.317  13.604   6.511
85939SOL     OW59713   0.511  10.859   3.091
85939SOL    HW159714   0.572  10.848   3.018
85939SOL    HW259715   0.535  10.942   3.130
85940SOL     OW59716  11.650   9.509   3.222
85940SOL    HW159717  11.638   9.570   3.295
85940SOL    HW259718  11.561   9.480   3.201
85941SOL     OW59719   5.188  14.808   5.254
85941SOL    HW159720   5.126  14.799   5.327
85941SOL    HW259721   5.135  14.842   5.182
85942SOL     OW59722   7.750   4.068   4.222
85942SOL    HW159723   7.701   3.987   4.238
85942SOL    HW259724   7.692   4.122   4.168
85943SOL     OW59725   5.361   1.003   0.371
85943SOL    HW159726   5.425   0.956   0.424
85943SOL    HW259727   5.326   1.071   0.429
85944SOL     OW59728  11.253   8.165  13.250
85944SOL    HW159729  11.200   8.207  13.183
85944SOL    HW259730  11.288   8.087  13.207
85945SOL     OW59731   4.748   9.662   9.014
85945SOL    HW159732   4.692   9.642   8.939
85945SOL    HW259733   4.816   9.595   9.012
85946SOL     OW59734  13.963   3.609   8.533
85946SOL    HW159735  13.991   3.695   8.501
85946SOL    HW259736  13.960   3.553   8.456
85947SOL     OW59737  12.126   1.301  14.250
85947SOL    HW159738  12.169   1.262  14.174
85947SOL    HW259739  12.141   1.238  14.321
85948SOL     OW59740   6.485   9.587  12.681
85948SOL    HW159741   6.455   9.671  12.716
85948SOL    HW259742   6.429   9.522  12.722
85949SOL     OW59743   9.090  11.447   6.804
85949SOL    HW159744   9.100  11.429   6.711
85949SOL    HW259745   9.122  11.536   6.815
85950SOL     OW59746  13.041   7.359  13.760
85950SOL    HW159747  13.029   7.281  13.815
85950SOL    HW259748  13.109   7.334  13.698
85951SOL     OW59749  10.166   6.329   0.135
85951SOL    HW159750  10.199   6.381   0.208
85951SOL    HW259751  10.234   6.335   0.068
85952SOL     OW59752   6.116   7.966   1.002
85952SOL    HW159753   6.179   7.894   0.993
85952SOL    HW259754   6.036   7.932   0.962
85953SOL     OW59755   1.283   1.539   4.332
85953SOL    HW159756   1.196   1.576   4.317
85953SOL    HW259757   1.290   1.468   4.269
85954SOL     OW59758   7.990  13.066  10.788
85954SOL    HW159759   8.058  13.027  10.733
85954SOL    HW259760   7.960  12.994  10.844
85955SOL     OW59761   1.949   4.825   4.138
85955SOL    HW159762   1.909   4.812   4.224
85955SOL    HW259763   1.990   4.741   4.118
85956SOL     OW59764  12.778   8.768   0.142
85956SOL    HW159765  12.823   8.811   0.070
85956SOL    HW259766  12.827   8.688   0.157
85957SOL     OW59767   2.624  13.462   1.294
85957SOL    HW159768   2.604  13.425   1.380
85957SOL    HW259769   2.549  13.518   1.273
85958SOL     OW59770   8.554  13.522   4.135
85958SOL    HW159771   8.619  13.458   4.106
85958SOL    HW259772   8.483  13.469   4.172
85959SOL     OW59773   7.492   0.422   7.667
85959SOL    HW159774   7.567   0.452   7.718
85959SOL    HW259775   7.429   0.390   7.732
85960SOL     OW59776   9.844  11.420  14.812
85960SOL    HW159777   9.893  11.382   0.007
85960SOL    HW259778   9.908  11.473  14.764
85961SOL     OW59779  11.541   0.550   5.714
85961SOL    HW159780  11.633   0.557   5.686
85961SOL    HW259781  11.543   0.482   5.782
85962SOL     OW59782  12.493   3.019  12.563
85962SOL    HW159783  12.448   2.942  12.597
85962SOL    HW259784  12.440   3.093  12.592
85963SOL     OW59785   1.434   8.871   8.218
85963SOL    HW159786   1.417   8.933   8.289
85963SOL    HW259787   1.380   8.795   8.239
85964SOL     OW59788   6.321   5.289   1.430
85964SOL    HW159789   6.259   5.360   1.419
85964SOL    HW259790   6.395   5.329   1.476
85965SOL     OW59791   8.685   3.203  11.932
85965SOL    HW159792   8.715   3.226  12.020
85965SOL    HW259793   8.664   3.110  11.938
85966SOL     OW59794  13.999   3.927  13.567
85966SOL    HW159795  13.953   3.882  13.637
85966SOL    HW259796  14.092   3.911  13.584
85967SOL     OW59797   1.241   8.112  14.094
85967SOL    HW159798   1.178   8.109  14.023
85967SOL    HW259799   1.198   8.163  14.163
85968SOL     OW59800   6.351  14.842   9.230
85968SOL    HW159801   6.291  14.861   9.158
85968SOL    HW259802   6.422  14.791   9.190
85969SOL     OW59803  14.798  14.340   1.953
85969SOL    HW159804  14.810  14.425   1.911
85969SOL    HW259805  14.714  14.308   1.919
85970SOL     OW59806  12.336  13.171   9.992
85970SOL    HW159807  12.264  13.186   9.930
85970SOL    HW259808  12.340  13.251  10.044
85971SOL     OW59809   2.445   1.623   7.741
85971SOL    HW159810   2.445   1.670   7.657
85971SOL    HW259811   2.463   1.690   7.806
85972SOL     OW59812  12.881  13.399   3.926
85972SOL    HW159813  12.953  13.340   3.947
85972SOL    HW259814  12.904  13.435   3.840
85973SOL     OW59815   4.418   3.653   8.320
85973SOL    HW159816   4.497   3.683   8.364
85973SOL    HW259817   4.411   3.709   8.242
85974SOL     OW59818   7.101  10.496   1.311
85974SOL    HW159819   7.100  10.404   1.285
85974SOL    HW259820   7.077  10.496   1.403
85975SOL     OW59821  13.436   9.647   3.642
85975SOL    HW159822  13.464   9.739   3.641
85975SOL    HW259823  13.461   9.616   3.730
85976SOL     OW59824   0.310   6.558  12.885
85976SOL    HW159825   0.231   6.586  12.840
85976SOL    HW259826   0.317   6.616  12.960
85977SOL     OW59827   4.842   6.709   6.216
85977SOL    HW159828   4.802   6.752   6.140
85977SOL    HW259829   4.925   6.755   6.228
85978SOL     OW59830   2.468   2.514  13.966
85978SOL    HW159831   2.457   2.593  13.912
85978SOL    HW259832   2.549   2.529  14.014
85979SOL     OW59833  11.975   0.049   3.082
85979SOL    HW159834  11.970   0.104   3.004
85979SOL    HW259835  12.040  14.860   3.061
85980SOL     OW59836  11.309   9.521   1.433
85980SOL    HW159837  11.287   9.598   1.380
85980SOL    HW259838  11.233   9.509   1.490
85981SOL     OW59839   8.503   4.041   7.136
85981SOL    HW159840   8.409   4.060   7.137
85981SOL    HW259841   8.512   3.965   7.079
85982SOL     OW59842   4.591   6.549   4.078
85982SOL    HW159843   4.546   6.466   4.065
85982SOL    HW259844   4.671   6.526   4.125
85983SOL     OW59845   1.670   4.989   1.715
85983SOL    HW159846   1.667   4.954   1.626
85983SOL    HW259847   1.761   4.980   1.742
85984SOL     OW59848   4.840   2.363  10.983
85984SOL    HW159849   4.761   2.322  11.020
85984SOL    HW259850   4.863   2.307  10.909
85985SOL     OW59851   5.732   1.857   9.554
85985SOL    HW159852   5.665   1.853   9.486
85985SOL    HW259853   5.812   1.884   9.508
85986SOL     OW59854   2.008   3.481  13.921
85986SOL    HW159855   2.030   3.451  14.010
85986SOL    HW259856   1.914   3.463  13.913
85987SOL     OW59857  12.298   1.616   3.785
85987SOL    HW159858  12.283   1.582   3.873
85987SOL    HW259859  12.392   1.606   3.771
85988SOL     OW59860  11.257   1.434   9.321
85988SOL    HW159861  11.176   1.385   9.308
85988SOL    HW259862  11.319   1.369   9.354
85989SOL     OW59863   0.218  12.567   4.555
85989SOL    HW159864   0.169  12.485   4.555
85989SOL    HW259865   0.160  12.629   4.511
85990SOL     OW59866   2.184  12.583   0.237
85990SOL    HW159867   2.095  12.610   0.257
85990SOL    HW259868   2.185  12.489   0.256
85991SOL     OW59869  11.744   8.639   1.656
85991SOL    HW159870  11.691   8.612   1.581
85991SOL    HW259871  11.828   8.665   1.618
85992SOL     OW59872   3.900   1.844   2.628
85992SOL    HW159873   3.956   1.916   2.599
85992SOL    HW259874   3.950   1.765   2.607
85993SOL     OW59875  12.977   4.133   5.591
85993SOL    HW159876  12.989   4.155   5.498
85993SOL    HW259877  12.944   4.043   5.590
85994SOL     OW59878  14.800  13.693   8.371
85994SOL    HW159879  14.813  13.599   8.359
85994SOL    HW259880  14.767  13.701   8.460
85995SOL     OW59881   8.237   8.660  10.035
85995SOL    HW159882   8.184   8.740  10.034
85995SOL    HW259883   8.277   8.659  10.122
85996SOL     OW59884  11.976  10.672  12.929
85996SOL    HW159885  12.003  10.656  12.839
85996SOL    HW259886  11.897  10.619  12.941
85997SOL     OW59887  13.668   5.402   4.311
85997SOL    HW159888  13.626   5.317   4.322
85997SOL    HW259889  13.657   5.445   4.396
85998SOL     OW59890   9.241   8.428  14.417
85998SOL    HW159891   9.186   8.421  14.495
85998SOL    HW259892   9.216   8.354  14.363
85999SOL     OW59893  13.712   7.944   2.925
85999SOL    HW159894  13.722   8.036   2.902
85999SOL    HW259895  13.754   7.936   3.011
86000SOL     OW59896   7.455   6.999   2.000
86000SOL    HW159897   7.370   6.957   1.991
86000SOL    HW259898   7.498   6.985   1.916
86001SOL     OW59899   3.836  11.882  13.687
86001SOL    HW159900   3.887  11.814  13.643
86001SOL    HW259901   3.797  11.932  13.615
86002SOL     OW59902  12.955   7.666  12.653
86002SOL    HW159903  13.009   7.737  12.618
86002SOL    HW259904  13.012   7.589  12.649
86003SOL     OW59905  10.096   0.510   5.337
86003SOL    HW159906  10.014   0.556   5.353
86003SOL    HW259907  10.092   0.486   5.244
86004SOL     OW59908   1.451  12.211  12.403
86004SOL    HW159909   1.392  12.225  12.477
86004SOL    HW259910   1.431  12.282  12.342
86005SOL     OW59911   5.366   1.698   1.934
86005SOL    HW159912   5.344   1.622   1.987
86005SOL    HW259913   5.451   1.678   1.896
86006SOL     OW59914   5.210   6.947  11.505
86006SOL    HW159915   5.171   6.948  11.593
86006SOL    HW259916   5.294   6.903  11.517
86007SOL     OW59917   7.341   5.790   0.444
86007SOL    HW159918   7.279   5.856   0.473
86007SOL    HW259919   7.304   5.757   0.362
86008SOL     OW59920  14.328   9.139  11.318
86008SOL    HW159921  14.384   9.210  11.287
86008SOL    HW259922  14.349   9.130  11.411
86009SOL     OW59923   4.014   0.006  11.699
86009SOL    HW159924   3.920   0.001  11.720
86009SOL    HW259925   4.055  14.823  11.760
86010SOL     OW59926   7.426   0.881  11.554
86010SOL    HW159927   7.360   0.922  11.498
86010SOL    HW259928   7.504   0.874  11.498
86011SOL     OW59929   6.203   6.780  12.994
86011SOL    HW159930   6.198   6.801  13.087
86011SOL    HW259931   6.286   6.731  12.985
86012SOL     OW59932  14.200  13.297  11.523
86012SOL    HW159933  14.205  13.300  11.427
86012SOL    HW259934  14.106  13.304  11.542
86013SOL     OW59935  13.280  14.581  11.969
86013SOL    HW159936  13.293  14.488  11.989
86013SOL    HW259937  13.284  14.585  11.873
86014SOL     OW59938  11.828  12.956  11.429
86014SOL    HW159939  11.771  12.972  11.504
86014SOL    HW259940  11.813  12.864  11.406
86015SOL     OW59941  14.056   4.665  14.504
86015SOL    HW159942  14.109   4.644  14.581
86015SOL    HW259943  13.994   4.731  14.534
86016SOL     OW59944   9.877   6.862   0.370
86016SOL    HW159945   9.938   6.843   0.298
86016SOL    HW259946   9.870   6.957   0.370
86017SOL     OW59947   2.013   8.667  10.218
86017SOL    HW159948   2.066   8.739  10.184
86017SOL    HW259949   1.933   8.710  10.250
86018SOL     OW59950   6.649   8.531  10.805
86018SOL    HW159951   6.605   8.532  10.890
86018SOL    HW259952   6.737   8.563  10.823
86019SOL     OW59953  11.100   9.239  13.564
86019SOL    HW159954  11.142   9.323  13.580
86019SOL    HW259955  11.116   9.189  13.644
86020SOL     OW59956  11.301   5.272   2.349
86020SOL    HW159957  11.361   5.279   2.274
86020SOL    HW259958  11.294   5.178   2.366
86021SOL     OW59959   5.027  12.117  11.589
86021SOL    HW159960   5.018  12.027  11.558
86021SOL    HW259961   4.984  12.118  11.674
86022SOL     OW59962   4.835   7.218   4.493
86022SOL    HW159963   4.920   7.257   4.473
86022SOL    HW259964   4.854   7.148   4.555
86023SOL     OW59965   8.457  13.772   7.571
86023SOL    HW159966   8.541  13.729   7.584
86023SOL    HW259967   8.444  13.773   7.476
86024SOL     OW59968   1.569   4.718   1.321
86024SOL    HW159969   1.484   4.758   1.302
86024SOL    HW259970   1.549   4.649   1.385
86025SOL     OW59971   3.284   6.081  13.944
86025SOL    HW159972   3.200   6.039  13.927
86025SOL    HW259973   3.309   6.120  13.861
86026SOL     OW59974  12.539  12.512   2.890
86026SOL    HW159975  12.545  12.606   2.906
86026SOL    HW259976  12.607  12.493   2.825
86027SOL     OW59977  12.893  13.957   4.849
86027SOL    HW159978  12.948  14.011   4.906
86027SOL    HW259979  12.915  13.984   4.760
86028SOL     OW59980   9.729   7.153  13.188
86028SOL    HW159981   9.702   7.240  13.217
86028SOL    HW259982   9.821   7.147  13.214
86029SOL     OW59983  10.030   6.367   8.249
86029SOL    HW159984  10.101   6.393   8.191
86029SOL    HW259985   9.997   6.450   8.285
86030SOL     OW59986   7.808   0.809  10.245
86030SOL    HW159987   7.726   0.791  10.291
86030SOL    HW259988   7.859   0.861  10.307
86031SOL     OW59989   8.121   8.644   5.379
86031SOL    HW159990   8.109   8.732   5.415
86031SOL    HW259991   8.092   8.652   5.288
86032SOL     OW59992   9.513  12.406  12.227
86032SOL    HW159993   9.495  12.380  12.137
86032SOL    HW259994   9.447  12.360  12.279
86033SOL     OW59995  12.397   4.520  13.548
86033SOL    HW159996  12.304   4.535  13.529
86033SOL    HW259997  12.405   4.534  13.642
86034SOL     OW59998   2.373   5.338  13.908
86034SOL    HW159999   2.299   5.384  13.870
86034SOL    HW260000   2.400   5.276  13.841
86035SOL     OW60001   2.713   9.572   7.367
86035SOL    HW160002   2.721   9.483   7.332
86035SOL    HW260003   2.733   9.629   7.293
86036SOL     OW60004  13.512   1.221   3.994
86036SOL    HW160005  13.514   1.315   4.010
86036SOL    HW260006  13.604   1.197   3.982
86037SOL     OW60007  14.562  13.554  14.208
86037SOL    HW160008  14.529  13.591  14.290
86037SOL    HW260009  14.597  13.629  14.160
86038SOL     OW60010   3.863   9.857   0.913
86038SOL    HW160011   3.776   9.895   0.896
86038SOL    HW260012   3.900   9.843   0.826
86039SOL     OW60013  12.134   5.288  11.692
86039SOL    HW160014  12.044   5.270  11.719
86039SOL    HW260015  12.187   5.265  11.769
86040SOL     OW60016   7.054  14.176   3.961
86040SOL    HW160017   7.010  14.160   3.877
86040SOL    HW260018   6.983  14.194   4.022
86041SOL     OW60019  10.017  12.255  13.525
86041SOL    HW160020  10.111  12.264  13.512
86041SOL    HW260021   9.979  12.326  13.474
86042SOL     OW60022  11.299  14.306   4.691
86042SOL    HW160023  11.340  14.322   4.606
86042SOL    HW260024  11.366  14.332   4.754
86043SOL     OW60025   7.018   8.372   9.398
86043SOL    HW160026   7.097   8.422   9.420
86043SOL    HW260027   6.978   8.354   9.483
86044SOL     OW60028   3.733   8.791  12.188
86044SOL    HW160029   3.762   8.882  12.198
86044SOL    HW260030   3.649   8.798  12.143
86045SOL     OW60031   3.718   2.423  12.172
86045SOL    HW160032   3.629   2.389  12.168
86045SOL    HW260033   3.770   2.350  12.206
86046SOL     OW60034   1.600  10.461   8.159
86046SOL    HW160035   1.658  10.385   8.172
86046SOL    HW260036   1.605  10.508   8.242
86047SOL     OW60037  10.134   8.020   2.297
86047SOL    HW160038  10.217   8.001   2.339
86047SOL    HW260039  10.157   8.061   2.214
86048SOL     OW60040   3.089  13.651  10.302
86048SOL    HW160041   3.125  13.697  10.378
86048SOL    HW260042   3.002  13.689  10.289
86049SOL     OW60043   0.892   5.968  14.213
86049SOL    HW160044   0.970   6.002  14.256
86049SOL    HW260045   0.833   6.043  14.206
86050SOL     OW60046  11.005   3.734   1.030
86050SOL    HW160047  11.039   3.672   1.094
86050SOL    HW260048  10.934   3.686   0.986
86051SOL     OW60049   6.020   3.812   4.800
86051SOL    HW160050   5.945   3.787   4.854
86051SOL    HW260051   5.983   3.826   4.713
86052SOL     OW60052   3.295   4.063   7.906
86052SOL    HW160053   3.215   4.020   7.936
86052SOL    HW260054   3.294   4.050   7.811
86053SOL     OW60055  12.176  12.637   6.710
86053SOL    HW160056  12.141  12.704   6.651
86053SOL    HW260057  12.219  12.686   6.780
86054SOL     OW60058   9.337   4.274   1.386
86054SOL    HW160059   9.264   4.307   1.333
86054SOL    HW260060   9.396   4.349   1.394
86055SOL     OW60061   8.994   1.309  12.204
86055SOL    HW160062   8.924   1.243  12.207
86055SOL    HW260063   8.982   1.360  12.284
86056SOL     OW60064   7.613   7.027  13.222
86056SOL    HW160065   7.694   6.976  13.224
86056SOL    HW260066   7.566   7.001  13.301
86057SOL     OW60067   2.884   3.740  10.285
86057SOL    HW160068   2.868   3.770  10.195
86057SOL    HW260069   2.806   3.766  10.333
86058SOL     OW60070  10.205   0.590   3.141
86058SOL    HW160071  10.279   0.622   3.090
86058SOL    HW260072  10.205   0.644   3.220
86059SOL     OW60073   1.968  11.673   8.491
86059SOL    HW160074   2.039  11.698   8.550
86059SOL    HW260075   1.930  11.595   8.531
86060SOL     OW60076   2.930  11.062   7.244
86060SOL    HW160077   2.974  10.979   7.227
86060SOL    HW260078   2.858  11.039   7.302
86061SOL     OW60079   6.892   3.803   8.795
86061SOL    HW160080   6.967   3.829   8.849
86061SOL    HW260081   6.901   3.856   8.716
86062SOL     OW60082  14.359   5.481   4.362
86062SOL    HW160083  14.287   5.438   4.409
86062SOL    HW260084  14.315   5.532   4.294
86063SOL     OW60085   6.188  14.667  12.436
86063SOL    HW160086   6.144  14.682  12.519
86063SOL    HW260087   6.275  14.705  12.447
86064SOL     OW60088   4.516   3.032  10.946
86064SOL    HW160089   4.592   2.999  10.994
86064SOL    HW260090   4.460   2.955  10.934
86065SOL     OW60091  11.566   3.820   7.000
86065SOL    HW160092  11.628   3.749   6.990
86065SOL    HW260093  11.570   3.843   7.093
86066SOL     OW60094   3.598  13.638  11.027
86066SOL    HW160095   3.639  13.723  11.043
86066SOL    HW260096   3.515  13.641  11.074
86067SOL     OW60097  13.143   8.063  13.682
86067SOL    HW160098  13.144   7.974  13.647
86067SOL    HW260099  13.062   8.101  13.646
86068SOL     OW60100   3.779  11.658   5.988
86068SOL    HW160101   3.817  11.572   6.006
86068SOL    HW260102   3.855  11.715   5.976
86069SOL     OW60103   3.881  12.988   8.172
86069SOL    HW160104   3.802  13.024   8.213
86069SOL    HW260105   3.907  12.916   8.229
86070SOL     OW60106   8.773  14.703  10.721
86070SOL    HW160107   8.727  14.782  10.690
86070SOL    HW260108   8.706  14.635  10.722
86071SOL     OW60109   2.932   2.584  12.793
86071SOL    HW160110   2.874   2.557  12.864
86071SOL    HW260111   2.939   2.679  12.803
86072SOL     OW60112   4.711  11.974   2.375
86072SOL    HW160113   4.695  12.046   2.315
86072SOL    HW260114   4.688  12.009   2.461
86073SOL     OW60115   4.625   9.049   6.457
86073SOL    HW160116   4.629   9.108   6.532
86073SOL    HW260117   4.703   8.994   6.465
86074SOL     OW60118   9.531   6.347   3.744
86074SOL    HW160119   9.476   6.286   3.695
86074SOL    HW260120   9.599   6.292   3.782
86075SOL     OW60121   4.784   7.295   6.587
86075SOL    HW160122   4.825   7.340   6.661
86075SOL    HW260123   4.811   7.346   6.510
86076SOL     OW60124  14.136  14.722   6.485
86076SOL    HW160125  14.085  14.642   6.469
86076SOL    HW260126  14.197  14.727   6.411
86077SOL     OW60127  13.852   5.465  12.444
86077SOL    HW160128  13.897   5.433  12.366
86077SOL    HW260129  13.845   5.389  12.502
86078SOL     OW60130   3.296   2.670  13.221
86078SOL    HW160131   3.337   2.629  13.297
86078SOL    HW260132   3.307   2.764  13.237
86079SOL     OW60133   9.709   8.279   5.046
86079SOL    HW160134   9.718   8.184   5.060
86079SOL    HW260135   9.798   8.309   5.028
86080SOL     OW60136   4.382   9.769  14.729
86080SOL    HW160137   4.347   9.729  14.649
86080SOL    HW260138   4.462   9.813  14.700
86081SOL     OW60139   7.652   1.452   7.269
86081SOL    HW160140   7.578   1.408   7.229
86081SOL    HW260141   7.685   1.390   7.333
86082SOL     OW60142  12.034  10.871  14.309
86082SOL    HW160143  11.971  10.814  14.265
86082SOL    HW260144  12.120  10.832  14.289
86083SOL     OW60145   2.358  12.067   9.938
86083SOL    HW160146   2.292  12.064  10.008
86083SOL    HW260147   2.411  11.989   9.953
86084SOL     OW60148  14.774  13.501  10.680
86084SOL    HW160149  14.684  13.530  10.695
86084SOL    HW260150  14.823  13.582  10.663
86085SOL     OW60151   0.018   9.715   5.944
86085SOL    HW160152  14.816   9.697   5.894
86085SOL    HW260153   0.071   9.768   5.885
86086SOL     OW60154  14.283  14.252   2.502
86086SOL    HW160155  14.359  14.277   2.449
86086SOL    HW260156  14.312  14.267   2.592
86087SOL     OW60157   1.276  10.996   8.052
86087SOL    HW160158   1.180  10.991   8.045
86087SOL    HW260159   1.308  10.956   7.970
86088SOL     OW60160   2.113   3.332   9.468
86088SOL    HW160161   2.067   3.257   9.507
86088SOL    HW260162   2.192   3.341   9.521
86089SOL     OW60163  14.859   7.527  14.079
86089SOL    HW160164  14.855   7.542  13.985
86089SOL    HW260165   0.016   7.609  14.115
86090SOL     OW60166   5.691   6.203   1.146
86090SOL    HW160167   5.697   6.216   1.240
86090SOL    HW260168   5.646   6.281   1.114
86091SOL     OW60169   0.458  10.124   0.773
86091SOL    HW160170   0.415  10.192   0.824
86091SOL    HW260171   0.490  10.061   0.837
86092SOL     OW60172   9.842  11.853   6.772
86092SOL    HW160173   9.884  11.767   6.761
86092SOL    HW260174   9.904  11.904   6.823
86093SOL     OW60175   7.165   3.017  14.714
86093SOL    HW160176   7.219   3.017  14.635
86093SOL    HW260177   7.169   2.926  14.745
86094SOL     OW60178   5.915   0.463   5.702
86094SOL    HW160179   5.996   0.445   5.653
86094SOL    HW260180   5.920   0.405   5.778
86095SOL     OW60181  13.570  14.375   5.599
86095SOL    HW160182  13.612  14.323   5.531
86095SOL    HW260183  13.640  14.392   5.662
86096SOL     OW60184   8.871   1.567   7.980
86096SOL    HW160185   8.893   1.634   8.044
86096SOL    HW260186   8.955   1.547   7.937
86097SOL     OW60187   1.234   7.075  11.175
86097SOL    HW160188   1.192   7.005  11.225
86097SOL    HW260189   1.229   7.152  11.232
86098SOL     OW60190   2.485   6.695   1.177
86098SOL    HW160191   2.457   6.633   1.244
86098SOL    HW260192   2.581   6.686   1.174
86099SOL     OW60193  13.613   4.311   2.918
86099SOL    HW160194  13.645   4.377   2.856
86099SOL    HW260195  13.691   4.285   2.967
86100SOL     OW60196   6.761   6.968   6.011
86100SOL    HW160197   6.789   7.059   6.002
86100SOL    HW260198   6.843   6.919   6.024
86101SOL     OW60199   1.621  12.248   2.106
86101SOL    HW160200   1.604  12.336   2.072
86101SOL    HW260201   1.641  12.195   2.028
86102SOL     OW60202   5.901   6.912  13.461
86102SOL    HW160203   5.921   6.941  13.372
86102SOL    HW260204   5.883   6.818  13.452
86103SOL     OW60205  13.127  13.607   9.468
86103SOL    HW160206  13.142  13.517   9.437
86103SOL    HW260207  13.112  13.597   9.562
86104SOL     OW60208  12.593   7.927  14.571
86104SOL    HW160209  12.683   7.952  14.547
86104SOL    HW260210  12.590   7.937  14.666
86105SOL     OW60211   6.118   7.081   4.691
86105SOL    HW160212   6.049   7.095   4.756
86105SOL    HW260213   6.194   7.055   4.743
86106SOL     OW60214   8.247  13.194   0.954
86106SOL    HW160215   8.222  13.196   0.861
86106SOL    HW260216   8.341  13.173   0.952
86107SOL     OW60217  12.266   8.286   6.252
86107SOL    HW160218  12.220   8.319   6.329
86107SOL    HW260219  12.246   8.192   6.251
86108SOL     OW60220   9.171   7.978   5.602
86108SOL    HW160221   9.197   7.974   5.510
86108SOL    HW260222   9.227   7.914   5.645
86109SOL     OW60223   3.412   2.012  12.244
86109SOL    HW160224   3.446   2.005  12.155
86109SOL    HW260225   3.489   2.017  12.300
86110SOL     OW60226  14.379   2.303  14.120
86110SOL    HW160227  14.424   2.245  14.059
86110SOL    HW260228  14.305   2.252  14.152
86111SOL     OW60229   3.561  10.039  10.524
86111SOL    HW160230   3.532  10.120  10.481
86111SOL    HW260231   3.657  10.045  10.525
86112SOL     OW60232  12.080   4.395   5.947
86112SOL    HW160233  12.014   4.330   5.973
86112SOL    HW260234  12.071   4.465   6.012
86113SOL     OW60235  12.860  12.078  10.547
86113SOL    HW160236  12.812  12.038  10.619
86113SOL    HW260237  12.943  12.106  10.586
86114SOL     OW60238  10.579  13.069   7.608
86114SOL    HW160239  10.548  13.150   7.649
86114SOL    HW260240  10.520  13.054   7.535
86115SOL     OW60241   1.708   8.207  12.248
86115SOL    HW160242   1.645   8.180  12.181
86115SOL    HW260243   1.662   8.272  12.300
86116SOL     OW60244   0.629  12.361  10.514
86116SOL    HW160245   0.637  12.353  10.419
86116SOL    HW260246   0.716  12.389  10.543
86117SOL     OW60247   5.308   8.195   7.092
86117SOL    HW160248   5.398   8.206   7.122
86117SOL    HW260249   5.295   8.100   7.091
86118SOL     OW60250   2.511  12.646  10.194
86118SOL    HW160251   2.537  12.721  10.141
86118SOL    HW260252   2.568  12.575  10.165
86119SOL     OW60253  10.205   6.990  12.792
86119SOL    HW160254  10.251   6.910  12.817
86119SOL    HW260255  10.176   6.974  12.702
86120SOL     OW60256   1.036  13.151   9.912
86120SOL    HW160257   0.978  13.166   9.838
86120SOL    HW260258   0.979  13.119   9.982
86121SOL     OW60259  10.646   9.155   2.004
86121SOL    HW160260  10.583   9.196   2.064
86121SOL    HW260261  10.662   9.222   1.937
86122SOL     OW60262  10.556  14.610   6.547
86122SOL    HW160263  10.613  14.576   6.478
86122SOL    HW260264  10.517  14.532   6.585
86123SOL     OW60265   7.134  12.607   8.203
86123SOL    HW160266   7.186  12.541   8.157
86123SOL    HW260267   7.065  12.558   8.247
86124SOL     OW60268   4.680   4.171   3.409
86124SOL    HW160269   4.658   4.135   3.496
86124SOL    HW260270   4.595   4.186   3.368
86125SOL     OW60271   6.375   9.802   9.811
86125SOL    HW160272   6.287   9.813   9.774
86125SOL    HW260273   6.430   9.860   9.759
86126SOL     OW60274   7.282   4.447   4.622
86126SOL    HW160275   7.322   4.383   4.682
86126SOL    HW260276   7.199   4.406   4.596
86127SOL     OW60277   4.425  13.651   9.179
86127SOL    HW160278   4.414  13.675   9.087
86127SOL    HW260279   4.482  13.719   9.215
86128SOL     OW60280   6.159  10.674   9.025
86128SOL    HW160281   6.121  10.730   8.958
86128SOL    HW260282   6.171  10.589   8.982
86129SOL     OW60283  11.956   2.174   8.454
86129SOL    HW160284  11.947   2.187   8.549
86129SOL    HW260285  12.046   2.201   8.435
86130SOL     OW60286  11.223   1.327   0.773
86130SOL    HW160287  11.260   1.318   0.685
86130SOL    HW260288  11.217   1.237   0.805
86131SOL     OW60289   3.377   5.065  13.492
86131SOL    HW160290   3.346   5.033  13.407
86131SOL    HW260291   3.338   5.152  13.501
86132SOL     OW60292   8.580  10.149   1.542
86132SOL    HW160293   8.493  10.131   1.578
86132SOL    HW260294   8.640  10.108   1.604
86133SOL     OW60295   9.482   2.830   0.193
86133SOL    HW160296   9.559   2.828   0.136
86133SOL    HW260297   9.444   2.917   0.180
86134SOL     OW60298   3.440  11.223  12.528
86134SOL    HW160299   3.426  11.317  12.525
86134SOL    HW260300   3.358  11.187  12.560
86135SOL     OW60301  13.367   8.202   0.615
86135SOL    HW160302  13.365   8.145   0.692
86135SOL    HW260303  13.460   8.219   0.601
86136SOL     OW60304   7.137  10.933   8.297
86136SOL    HW160305   7.060  10.913   8.351
86136SOL    HW260306   7.110  11.008   8.244
86137SOL     OW60307   0.208   9.093   8.197
86137SOL    HW160308   0.230   9.166   8.255
86137SOL    HW260309   0.176   9.024   8.256
86138SOL     OW60310  11.790   7.373  14.725
86138SOL    HW160311  11.791   7.412  14.637
86138SOL    HW260312  11.847   7.297  14.719
86139SOL     OW60313   8.990   2.214   3.983
86139SOL    HW160314   9.062   2.258   4.029
86139SOL    HW260315   8.911   2.244   4.028
86140SOL     OW60316   3.527   3.247  12.575
86140SOL    HW160317   3.546   3.156  12.596
86140SOL    HW260318   3.596   3.272  12.513
86141SOL     OW60319   5.429  11.195   7.574
86141SOL    HW160320   5.491  11.147   7.629
86141SOL    HW260321   5.358  11.219   7.633
86142SOL     OW60322   1.243   6.196   2.675
86142SOL    HW160323   1.294   6.118   2.695
86142SOL    HW260324   1.245   6.248   2.756
86143SOL     OW60325  10.930  11.841  11.127
86143SOL    HW160326  10.895  11.763  11.172
86143SOL    HW260327  10.855  11.875  11.078
86144SOL     OW60328  14.871  13.958   4.436
86144SOL    HW160329   0.036  14.043   4.439
86144SOL    HW260330   0.064  13.896   4.419
86145SOL     OW60331   6.349   7.254   9.443
86145SOL    HW160332   6.389   7.266   9.357
86145SOL    HW260333   6.416   7.282   9.505
86146SOL     OW60334   0.219   4.600  13.861
86146SOL    HW160335   0.161   4.534  13.824
86146SOL    HW260336   0.284   4.617  13.792
86147SOL     OW60337   2.907   3.203  14.339
86147SOL    HW160338   2.996   3.184  14.370
86147SOL    HW260339   2.904   3.298  14.330
86148SOL     OW60340  14.064  10.676   9.727
86148SOL    HW160341  14.012  10.595   9.725
86148SOL    HW260342  14.154  10.646   9.715
86149SOL     OW60343   4.055  14.731  13.257
86149SOL    HW160344   3.983  14.682  13.217
86149SOL    HW260345   4.129  14.718  13.197
86150SOL     OW60346   5.136  13.681  14.803
86150SOL    HW160347   5.084  13.761  14.801
86150SOL    HW260348   5.095  13.624  14.739
86151SOL     OW60349  10.682  14.012  10.379
86151SOL    HW160350  10.679  14.063  10.460
86151SOL    HW260351  10.762  13.961  10.385
86152SOL     OW60352   7.514  14.174   6.171
86152SOL    HW160353   7.555  14.260   6.164
86152SOL    HW260354   7.524  14.150   6.264
86153SOL     OW60355   4.495   1.564   4.945
86153SOL    HW160356   4.546   1.533   5.020
86153SOL    HW260357   4.446   1.639   4.979
86154SOL     OW60358   6.798   2.007  14.323
86154SOL    HW160359   6.737   2.057  14.376
86154SOL    HW260360   6.821   2.065  14.251
86155SOL     OW60361   0.702   8.131   1.386
86155SOL    HW160362   0.661   8.075   1.451
86155SOL    HW260363   0.724   8.071   1.314
86156SOL     OW60364   1.434  11.468   1.008
86156SOL    HW160365   1.440  11.483   0.914
86156SOL    HW260366   1.397  11.380   1.016
86157SOL     OW60367   5.104   8.037   6.961
86157SOL    HW160368   5.066   8.122   6.981
86157SOL    HW260369   5.039   7.974   6.993
86158SOL     OW60370   6.613  12.045   6.343
86158SOL    HW160371   6.678  12.069   6.276
86158SOL    HW260372   6.546  11.996   6.295
86159SOL     OW60373   9.134   6.101   5.678
86159SOL    HW160374   9.134   6.042   5.603
86159SOL    HW260375   9.041   6.117   5.695
86160SOL     OW60376  13.067   2.402   4.081
86160SOL    HW160377  12.974   2.415   4.063
86160SOL    HW260378  13.110   2.477   4.040
86161SOL     OW60379   8.213   1.133   4.906
86161SOL    HW160380   8.303   1.102   4.915
86161SOL    HW260381   8.202   1.198   4.975
86162SOL     OW60382   1.252  11.979  12.345
86162SOL    HW160383   1.242  11.994  12.251
86162SOL    HW260384   1.308  12.050  12.376
86163SOL     OW60385   9.988   6.860   8.944
86163SOL    HW160386   9.939   6.832   9.021
86163SOL    HW260387   9.921   6.893   8.884
86164SOL     OW60388   9.660  13.074   7.827
86164SOL    HW160389   9.686  13.139   7.762
86164SOL    HW260390   9.738  13.064   7.882
86165SOL     OW60391   9.808  11.267  13.763
86165SOL    HW160392   9.750  11.338  13.792
86165SOL    HW260393   9.868  11.254  13.837
86166SOL     OW60394   9.015  11.094   2.612
86166SOL    HW160395   9.062  11.016   2.583
86166SOL    HW260396   9.035  11.101   2.705
86167SOL     OW60397   9.460  14.472   5.052
86167SOL    HW160398   9.496  14.459   5.140
86167SOL    HW260399   9.374  14.429   5.056
86168SOL     OW60400  10.840  14.383   4.609
86168SOL    HW160401  10.926  14.342   4.609
86168SOL    HW260402  10.848  14.458   4.668
86169SOL     OW60403  13.663   0.817  11.332
86169SOL    HW160404  13.598   0.874  11.373
86169SOL    HW260405  13.622   0.730  11.331
86170SOL     OW60406   2.696   2.519  14.607
86170SOL    HW160407   2.713   2.457  14.677
86170SOL    HW260408   2.780   2.563  14.593
86171SOL     OW60409  13.553  14.495   2.547
86171SOL    HW160410  13.534  14.462   2.459
86171SOL    HW260411  13.505  14.577   2.553
86172SOL     OW60412   0.574   1.685  13.385
86172SOL    HW160413   0.600   1.598  13.354
86172SOL    HW260414   0.592   1.683  13.479
86173SOL     OW60415   4.507   5.480   5.473
86173SOL    HW160416   4.591   5.443   5.448
86173SOL    HW260417   4.527   5.570   5.499
86174SOL     OW60418   7.305  12.385   1.609
86174SOL    HW160419   7.232  12.350   1.558
86174SOL    HW260420   7.284  12.363   1.699
86175SOL     OW60421   2.916   3.213  11.111
86175SOL    HW160422   2.986   3.246  11.167
86175SOL    HW260423   2.864   3.156  11.167
86176SOL     OW60424  11.957   3.522   7.204
86176SOL    HW160425  11.986   3.593   7.262
86176SOL    HW260426  11.900   3.468   7.258
86177SOL     OW60427  10.760   7.126   3.120
86177SOL    HW160428  10.740   7.049   3.067
86177SOL    HW260429  10.847   7.153   3.091
86178SOL     OW60430   2.886  13.957  13.094
86178SOL    HW160431   2.893  13.885  13.030
86178SOL    HW260432   2.914  13.918  13.177
86179SOL     OW60433   5.293   3.830   4.526
86179SOL    HW160434   5.213   3.878   4.504
86179SOL    HW260435   5.277   3.795   4.613
86180SOL     OW60436   2.947  10.255   4.605
86180SOL    HW160437   2.880  10.215   4.548
86180SOL    HW260438   3.006  10.183   4.626
86181SOL     OW60439  14.561   2.997   9.178
86181SOL    HW160440  14.622   3.054   9.224
86181SOL    HW260441  14.474   3.027   9.205
86182SOL     OW60442   6.083   9.457   1.786
86182SOL    HW160443   6.154   9.394   1.773
86182SOL    HW260444   6.016   9.408   1.834
86183SOL     OW60445   9.485   0.161   9.207
86183SOL    HW160446   9.550   0.175   9.275
86183SOL    HW260447   9.404   0.142   9.254
86184SOL     OW60448  11.165   2.978   6.215
86184SOL    HW160449  11.173   3.045   6.148
86184SOL    HW260450  11.101   2.916   6.180
86185SOL     OW60451   6.088   0.519   4.666
86185SOL    HW160452   6.000   0.558   4.663
86185SOL    HW260453   6.122   0.531   4.577
86186SOL     OW60454   4.391   4.598   7.138
86186SOL    HW160455   4.334   4.537   7.185
86186SOL    HW260456   4.391   4.677   7.191
86187SOL     OW60457   1.855  10.873   2.484
86187SOL    HW160458   1.763  10.849   2.496
86187SOL    HW260459   1.856  10.925   2.403
86188SOL     OW60460   7.285   6.111   2.084
86188SOL    HW160461   7.288   6.183   2.020
86188SOL    HW260462   7.341   6.043   2.046
86189SOL     OW60463   3.470   8.457  14.663
86189SOL    HW160464   3.383   8.417  14.659
86189SOL    HW260465   3.472   8.503  14.747
86190SOL     OW60466  11.503  12.982  12.699
86190SOL    HW160467  11.422  12.957  12.655
86190SOL    HW260468  11.486  13.070  12.733
86191SOL     OW60469   5.611   5.677   6.262
86191SOL    HW160470   5.605   5.629   6.180
86191SOL    HW260471   5.700   5.712   6.263
86192SOL     OW60472  13.428   1.647   4.561
86192SOL    HW160473  13.371   1.610   4.627
86192SOL    HW260474  13.418   1.742   4.571
86193SOL     OW60475   3.737  11.991   9.023
86193SOL    HW160476   3.807  11.926   9.014
86193SOL    HW260477   3.697  11.971   9.108
86194SOL     OW60478   5.111  11.276  10.598
86194SOL    HW160479   5.016  11.264  10.597
86194SOL    HW260480   5.143  11.202  10.650
86195SOL     OW60481   4.477  13.952  13.340
86195SOL    HW160482   4.403  14.009  13.317
86195SOL    HW260483   4.448  13.864  13.315
86196SOL     OW60484  13.416   6.407  13.083
86196SOL    HW160485  13.492   6.360  13.118
86196SOL    HW260486  13.345   6.384  13.142
86197SOL     OW60487  10.205   5.421   6.080
86197SOL    HW160488  10.289   5.454   6.112
86197SOL    HW260489  10.174   5.489   6.021
86198SOL     OW60490  12.141  10.804  10.839
86198SOL    HW160491  12.085  10.881  10.834
86198SOL    HW260492  12.156  10.779  10.748
86199SOL     OW60493   7.003  10.716   0.163
86199SOL    HW160494   7.077  10.773   0.144
86199SOL    HW260495   7.015  10.641   0.106
86200SOL     OW60496  11.126  11.290  14.201
86200SOL    HW160497  11.055  11.270  14.141
86200SOL    HW260498  11.178  11.356  14.156
86201SOL     OW60499   5.551  11.446   3.876
86201SOL    HW160500   5.626  11.471   3.822
86201SOL    HW260501   5.488  11.518   3.866
86202SOL     OW60502  12.679  11.156   4.883
86202SOL    HW160503  12.702  11.175   4.974
86202SOL    HW260504  12.589  11.126   4.887
86203SOL     OW60505  10.244   6.544   5.280
86203SOL    HW160506  10.322   6.565   5.229
86203SOL    HW260507  10.242   6.611   5.349
86204SOL     OW60508   6.305   9.800   0.831
86204SOL    HW160509   6.298   9.757   0.745
86204SOL    HW260510   6.355   9.738   0.884
86205SOL     OW60511   8.723  13.384   0.908
86205SOL    HW160512   8.735  13.453   0.972
86205SOL    HW260513   8.632  13.393   0.879
86206SOL     OW60514  12.419   6.347   4.130
86206SOL    HW160515  12.425   6.350   4.225
86206SOL    HW260516  12.423   6.253   4.109
86207SOL     OW60517   1.525   0.489   4.903
86207SOL    HW160518   1.434   0.457   4.905
86207SOL    HW260519   1.552   0.488   4.995
86208SOL     OW60520  14.566   6.994  11.244
86208SOL    HW160521  14.569   7.071  11.299
86208SOL    HW260522  14.559   7.028  11.155
86209SOL     OW60523   5.273   4.976  10.959
86209SOL    HW160524   5.177   4.985  10.959
86209SOL    HW260525   5.294   4.944  10.872
86210SOL     OW60526   2.804   4.619   4.988
86210SOL    HW160527   2.730   4.642   5.045
86210SOL    HW260528   2.782   4.532   4.955
86211SOL     OW60529  11.886   6.535   4.725
86211SOL    HW160530  11.931   6.522   4.642
86211SOL    HW260531  11.807   6.481   4.719
86212SOL     OW60532   5.237   1.158   6.139
86212SOL    HW160533   5.244   1.065   6.161
86212SOL    HW260534   5.160   1.188   6.186
86213SOL     OW60535  13.086  10.845  12.313
86213SOL    HW160536  13.068  10.937  12.290
86213SOL    HW260537  13.174  10.847  12.351
86214SOL     OW60538  11.635   2.467  14.336
86214SOL    HW160539  11.670   2.536  14.391
86214SOL    HW260540  11.594   2.405  14.397
86215SOL     OW60541   8.294   8.606   1.473
86215SOL    HW160542   8.261   8.582   1.387
86215SOL    HW260543   8.257   8.541   1.532
86216SOL     OW60544   3.563   7.769   5.637
86216SOL    HW160545   3.526   7.803   5.555
86216SOL    HW260546   3.631   7.708   5.608
86217SOL     OW60547   5.159  11.251   8.220
86217SOL    HW160548   5.090  11.303   8.178
86217SOL    HW260549   5.156  11.276   8.312
86218SOL     OW60550   9.662   2.462   0.652
86218SOL    HW160551   9.589   2.446   0.712
86218SOL    HW260552   9.718   2.524   0.699
86219SOL     OW60553   3.619   5.838   0.354
86219SOL    HW160554   3.695   5.781   0.350
86219SOL    HW260555   3.552   5.792   0.303
86220SOL     OW60556   8.567   7.339   2.618
86220SOL    HW160557   8.538   7.301   2.534
86220SOL    HW260558   8.485   7.363   2.662
86221SOL     OW60559   7.026   2.473  10.795
86221SOL    HW160560   6.958   2.536  10.773
86221SOL    HW260561   7.042   2.426  10.713
86222SOL     OW60562   5.441  10.913   2.478
86222SOL    HW160563   5.397  10.860   2.411
86222SOL    HW260564   5.529  10.926   2.444
86223SOL     OW60565  13.099   8.276   8.354
86223SOL    HW160566  13.191   8.279   8.380
86223SOL    HW260567  13.051   8.276   8.437
86224SOL     OW60568  12.990   1.551  10.170
86224SOL    HW160569  12.905   1.507  10.161
86224SOL    HW260570  13.044   1.514  10.100
86225SOL     OW60571  13.380  10.443   7.169
86225SOL    HW160572  13.403  10.352   7.149
86225SOL    HW260573  13.416  10.494   7.096
86226SOL     OW60574  13.381   3.563   1.084
86226SOL    HW160575  13.417   3.645   1.049
86226SOL    HW260576  13.394   3.571   1.179
86227SOL     OW60577   0.412   0.676   3.013
86227SOL    HW160578   0.432   0.653   2.923
86227SOL    HW260579   0.379   0.765   3.008
86228SOL     OW60580   4.662   0.190  13.770
86228SOL    HW160581   4.597   0.178  13.701
86228SOL    HW260582   4.623   0.254  13.829
86229SOL     OW60583  12.052   5.865  10.261
86229SOL    HW160584  12.020   5.952  10.284
86229SOL    HW260585  11.973   5.817  10.236
86230SOL     OW60586   3.021   5.985   4.470
86230SOL    HW160587   3.099   5.943   4.432
86230SOL    HW260588   3.046   6.005   4.560
86231SOL     OW60589  12.972   7.827  12.349
86231SOL    HW160590  12.917   7.749  12.339
86231SOL    HW260591  12.956   7.857  12.438
86232SOL     OW60592   8.329  13.072   8.863
86232SOL    HW160593   8.244  13.047   8.901
86232SOL    HW260594   8.377  13.112   8.936
86233SOL     OW60595   9.797  12.365  13.349
86233SOL    HW160596   9.815  12.297  13.283
86233SOL    HW260597   9.787  12.445  13.298
86234SOL     OW60598  11.280   6.831   7.204
86234SOL    HW160599  11.255   6.815   7.295
86234SOL    HW260600  11.373   6.853   7.209
86235SOL     OW60601  13.597   0.552   4.100
86235SOL    HW160602  13.643   0.549   4.184
86235SOL    HW260603  13.506   0.536   4.122
86236SOL     OW60604   0.012   9.890   1.572
86236SOL    HW160605  14.805   9.860   1.604
86236SOL    HW260606   0.011   9.984   1.587
86237SOL     OW60607   4.754   0.398   2.171
86237SOL    HW160608   4.787   0.359   2.089
86237SOL    HW260609   4.831   0.438   2.211
86238SOL     OW60610  11.205  13.133   5.102
86238SOL    HW160611  11.206  13.040   5.080
86238SOL    HW260612  11.234  13.136   5.193
86239SOL     OW60613  12.865  13.879   6.212
86239SOL    HW160614  12.827  13.844   6.131
86239SOL    HW260615  12.876  13.973   6.194
86240SOL     OW60616   9.689  14.499  10.925
86240SOL    HW160617   9.627  14.512  10.996
86240SOL    HW260618   9.763  14.555  10.946
86241SOL     OW60619   1.975   2.111  13.144
86241SOL    HW160620   1.995   2.201  13.170
86241SOL    HW260621   1.880   2.103  13.155
86242SOL     OW60622  13.614   9.587   8.942
86242SOL    HW160623  13.696   9.567   8.986
86242SOL    HW260624  13.547   9.547   8.997
86243SOL     OW60625   3.290   0.306   4.470
86243SOL    HW160626   3.232   0.235   4.445
86243SOL    HW260627   3.312   0.349   4.388
86244SOL     OW60628  10.485  13.642  10.956
86244SOL    HW160629  10.442  13.686  10.883
86244SOL    HW260630  10.455  13.551  10.950
86245SOL     OW60631   1.271   1.785   0.456
86245SOL    HW160632   1.305   1.874   0.459
86245SOL    HW260633   1.329   1.739   0.395
86246SOL     OW60634   2.114   1.129  13.540
86246SOL    HW160635   2.139   1.108  13.450
86246SOL    HW260636   2.187   1.095  13.593
86247SOL     OW60637   2.993  13.283  13.611
86247SOL    HW160638   2.912  13.332  13.626
86247SOL    HW260639   3.056  13.322  13.672
86248SOL     OW60640   5.614   1.157   6.467
86248SOL    HW160641   5.582   1.225   6.527
86248SOL    HW260642   5.701   1.186   6.442
86249SOL     OW60643  14.524   7.413  13.272
86249SOL    HW160644  14.528   7.481  13.205
86249SOL    HW260645  14.523   7.331  13.223
86250SOL     OW60646  10.368  12.776   1.699
86250SOL    HW160647  10.304  12.832   1.743
86250SOL    HW260648  10.452  12.800   1.739
86251SOL     OW60649   2.162  12.839   7.481
86251SOL    HW160650   2.130  12.786   7.553
86251SOL    HW260651   2.241  12.794   7.451
86252SOL     OW60652  14.337  10.801   0.533
86252SOL    HW160653  14.411  10.835   0.584
86252SOL    HW260654  14.295  10.738   0.592
86253SOL     OW60655  13.141  12.590   0.511
86253SOL    HW160656  13.191  12.511   0.489
86253SOL    HW260657  13.190  12.661   0.470
86254SOL     OW60658  13.276   4.501   6.144
86254SOL    HW160659  13.205   4.459   6.095
86254SOL    HW260660  13.354   4.488   6.089
86255SOL     OW60661   8.275   9.422  11.823
86255SOL    HW160662   8.300   9.395  11.735
86255SOL    HW260663   8.252   9.341  11.868
86256SOL     OW60664   3.208  10.516   8.463
86256SOL    HW160665   3.179  10.539   8.551
86256SOL    HW260666   3.169  10.430   8.447
86257SOL     OW60667  11.196   6.729   3.788
86257SOL    HW160668  11.174   6.810   3.832
86257SOL    HW260669  11.112   6.690   3.764
86258SOL     OW60670  14.559   2.105   7.602
86258SOL    HW160671  14.500   2.049   7.652
86258SOL    HW260672  14.543   2.193   7.635
86259SOL     OW60673  10.677   4.167  10.459
86259SOL    HW160674  10.645   4.248  10.418
86259SOL    HW260675  10.699   4.193  10.548
86260SOL     OW60676   6.569  10.956  13.715
86260SOL    HW160677   6.503  10.929  13.651
86260SOL    HW260678   6.561  10.892  13.787
86261SOL     OW60679   6.760   0.974   8.570
86261SOL    HW160680   6.850   0.942   8.562
86261SOL    HW260681   6.711   0.929   8.502
86262SOL     OW60682   5.026   3.961   7.852
86262SOL    HW160683   4.997   4.007   7.930
86262SOL    HW260684   5.098   4.014   7.818
86263SOL     OW60685  14.788   4.328   6.466
86263SOL    HW160686  14.784   4.378   6.548
86263SOL    HW260687  14.763   4.239   6.492
86264SOL     OW60688  10.437   0.082   8.804
86264SOL    HW160689  10.482   0.163   8.826
86264SOL    HW260690  10.503   0.028   8.760
86265SOL     OW60691   6.968  11.713   9.483
86265SOL    HW160692   6.873  11.711   9.473
86265SOL    HW260693   7.001  11.665   9.407
86266SOL     OW60694   7.131  14.539   5.094
86266SOL    HW160695   7.215  14.499   5.116
86266SOL    HW260696   7.093  14.481   5.028
86267SOL     OW60697   6.195   1.450   4.639
86267SOL    HW160698   6.138   1.526   4.634
86267SOL    HW260699   6.271   1.479   4.690
86268SOL     OW60700   1.795   6.917  12.619
86268SOL    HW160701   1.704   6.915  12.592
86268SOL    HW260702   1.838   6.976  12.557
86269SOL     OW60703   6.062   9.796   8.960
86269SOL    HW160704   6.110   9.780   9.041
86269SOL    HW260705   6.118   9.760   8.892
86270SOL     OW60706  14.452  12.612  10.895
86270SOL    HW160707  14.391  12.540  10.907
86270SOL    HW260708  14.520  12.577  10.837
86271SOL     OW60709   3.947   5.905   4.616
86271SOL    HW160710   4.008   5.975   4.595
86271SOL    HW260711   4.003   5.829   4.632
86272SOL     OW60712  11.346   2.768   9.016
86272SOL    HW160713  11.267   2.807   8.979
86272SOL    HW260714  11.392   2.732   8.940
86273SOL     OW60715  14.588  14.103   8.391
86273SOL    HW160716  14.523  14.170   8.368
86273SOL    HW260717  14.599  14.051   8.312
86274SOL     OW60718  14.550   2.499   2.461
86274SOL    HW160719  14.515   2.524   2.376
86274SOL    HW260720  14.616   2.566   2.480
86275SOL     OW60721   7.499  10.094   3.768
86275SOL    HW160722   7.531  10.003   3.770
86275SOL    HW260723   7.534  10.130   3.687
86276SOL     OW60724  11.400  12.227   7.401
86276SOL    HW160725  11.329  12.278   7.361
86276SOL    HW260726  11.356  12.153   7.442
86277SOL     OW60727   0.059   3.338   9.801
86277SOL    HW160728   0.008   3.339   9.882
86277SOL    HW260729   0.119   3.412   9.810
86278SOL     OW60730   2.275   6.035   6.686
86278SOL    HW160731   2.327   6.004   6.761
86278SOL    HW260732   2.186   6.007   6.707
86279SOL     OW60733   1.574   2.548   4.090
86279SOL    HW160734   1.635   2.615   4.121
86279SOL    HW260735   1.497   2.597   4.063
86280SOL     OW60736   9.546   1.722  14.847
86280SOL    HW160737   9.607   1.756  14.781
86280SOL    HW260738   9.494   1.798  14.873
86281SOL     OW60739   7.081   3.155   6.759
86281SOL    HW160740   7.063   3.242   6.795
86281SOL    HW260741   7.007   3.137   6.701
86282SOL     OW60742   9.699   8.319   9.400
86282SOL    HW160743   9.672   8.228   9.390
86282SOL    HW260744   9.719   8.329   9.493
86283SOL     OW60745  13.181  12.536   2.398
86283SOL    HW160746  13.269  12.571   2.412
86283SOL    HW260747  13.137  12.548   2.482
86284SOL     OW60748  12.013   4.604  12.093
86284SOL    HW160749  11.919   4.608  12.113
86284SOL    HW260750  12.025   4.667  12.023
86285SOL     OW60751  13.466  14.800  11.150
86285SOL    HW160752  13.445  14.767  11.238
86285SOL    HW260753  13.476  14.721  11.097
86286SOL     OW60754  12.493  10.948  13.808
86286SOL    HW160755  12.539  10.883  13.755
86286SOL    HW260756  12.402  10.944  13.779
86287SOL     OW60757  13.737  14.571  12.382
86287SOL    HW160758  13.744  14.520  12.301
86287SOL    HW260759  13.675  14.522  12.436
86288SOL     OW60760   2.984  13.975   8.384
86288SOL    HW160761   2.928  13.952   8.459
86288SOL    HW260762   2.996  14.069   8.391
86289SOL     OW60763   8.186  10.441  12.597
86289SOL    HW160764   8.260  10.381  12.592
86289SOL    HW260765   8.123  10.407  12.534
86290SOL     OW60766   1.023  12.701  11.212
86290SOL    HW160767   1.020  12.615  11.255
86290SOL    HW260768   1.100  12.743  11.249
86291SOL     OW60769   5.956  11.464   9.258
86291SOL    HW160770   6.014  11.461   9.334
86291SOL    HW260771   5.907  11.546   9.268
86292SOL     OW60772   6.292   7.440  14.877
86292SOL    HW160773   6.218   7.436   0.061
86292SOL    HW260774   6.285   7.528  14.839
86293SOL     OW60775   1.674   1.608  13.915
86293SOL    HW160776   1.694   1.700  13.895
86293SOL    HW260777   1.580   1.608  13.935
86294SOL     OW60778   2.645   2.611  13.701
86294SOL    HW160779   2.689   2.621  13.617
86294SOL    HW260780   2.679   2.682  13.755
86295SOL     OW60781   0.686  14.167  10.419
86295SOL    HW160782   0.595  14.172  10.447
86295SOL    HW260783   0.735  14.148  10.499
86296SOL     OW60784  10.732   9.033   9.590
86296SOL    HW160785  10.774   9.115   9.565
86296SOL    HW260786  10.749   8.974   9.516
86297SOL     OW60787  10.258  13.120  13.521
86297SOL    HW160788  10.331  13.181  13.510
86297SOL    HW260789  10.207  13.157  13.592
86298SOL     OW60790   6.428  10.264  14.637
86298SOL    HW160791   6.435  10.179  14.681
86298SOL    HW260792   6.370  10.315  14.693
86299SOL     OW60793  11.504   5.044  13.624
86299SOL    HW160794  11.492   4.952  13.600
86299SOL    HW260795  11.510   5.045  13.719
86300SOL     OW60796   1.585   9.244   7.660
86300SOL    HW160797   1.554   9.254   7.570
86300SOL    HW260798   1.570   9.152   7.681
86301SOL     OW60799  14.373   7.232   0.302
86301SOL    HW160800  14.436   7.298   0.272
86301SOL    HW260801  14.294   7.248   0.251
86302SOL     OW60802   4.095   9.020   4.932
86302SOL    HW160803   4.129   8.955   4.870
86302SOL    HW260804   4.122   8.987   5.018
86303SOL     OW60805  10.008   7.787   4.692
86303SOL    HW160806   9.940   7.743   4.743
86303SOL    HW260807   9.991   7.880   4.705
86304SOL     OW60808   3.176  12.508  11.044
86304SOL    HW160809   3.120  12.439  11.080
86304SOL    HW260810   3.227  12.464  10.976
86305SOL     OW60811   5.137   9.065  11.435
86305SOL    HW160812   5.189   9.123  11.490
86305SOL    HW260813   5.192   8.987  11.422
86306SOL     OW60814   6.595   3.277  10.764
86306SOL    HW160815   6.593   3.189  10.726
86306SOL    HW260816   6.634   3.331  10.695
86307SOL     OW60817   0.040   5.930   9.410
86307SOL    HW160818   0.040   6.015   9.367
86307SOL    HW260819   0.090   5.943   9.491
86308SOL     OW60820   2.662  12.119   8.723
86308SOL    HW160821   2.679  12.213   8.728
86308SOL    HW260822   2.737  12.079   8.768
86309SOL     OW60823   1.741   3.677  10.672
86309SOL    HW160824   1.726   3.731  10.594
86309SOL    HW260825   1.653   3.660  10.705
86310SOL     OW60826  12.148   0.177  11.711
86310SOL    HW160827  12.109   0.200  11.795
86310SOL    HW260828  12.135   0.082  11.704
86311SOL     OW60829   9.890  11.430  11.342
86311SOL    HW160830   9.862  11.345  11.376
86311SOL    HW260831   9.826  11.450  11.274
86312SOL     OW60832   0.592  12.320   2.205
86312SOL    HW160833   0.589  12.237   2.253
86312SOL    HW260834   0.502  12.353   2.208
86313SOL     OW60835   7.944   9.226   4.056
86313SOL    HW160836   7.916   9.135   4.044
86313SOL    HW260837   7.930   9.243   4.149
86314SOL     OW60838   4.943  11.188  11.918
86314SOL    HW160839   4.931  11.093  11.920
86314SOL    HW260840   5.026  11.203  11.963
86315SOL     OW60841   8.678   4.688   7.959
86315SOL    HW160842   8.615   4.671   7.889
86315SOL    HW260843   8.759   4.712   7.913
86316SOL     OW60844   1.083   1.714   8.690
86316SOL    HW160845   1.087   1.810   8.682
86316SOL    HW260846   1.162   1.691   8.738
86317SOL     OW60847   4.295  12.534   9.809
86317SOL    HW160848   4.310  12.468   9.740
86317SOL    HW260849   4.372  12.590   9.806
86318SOL     OW60850   1.386   9.716   1.082
86318SOL    HW160851   1.443   9.687   1.154
86318SOL    HW260852   1.445   9.759   1.021
86319SOL     OW60853  10.438  13.603   0.163
86319SOL    HW160854  10.496  13.625   0.236
86319SOL    HW260855  10.441  13.508   0.157
86320SOL     OW60856   7.968   0.376   3.682
86320SOL    HW160857   8.026   0.300   3.690
86320SOL    HW260858   7.901   0.362   3.749
86321SOL     OW60859   9.178  10.461   0.265
86321SOL    HW160860   9.165  10.553   0.241
86321SOL    HW260861   9.089  10.429   0.282
86322SOL     OW60862   2.581   6.196  12.721
86322SOL    HW160863   2.503   6.151  12.753
86322SOL    HW260864   2.654   6.144  12.756
86323SOL     OW60865  13.197   8.153   2.247
86323SOL    HW160866  13.214   8.081   2.308
86323SOL    HW260867  13.282   8.172   2.208
86324SOL     OW60868   9.020  12.418   1.811
86324SOL    HW160869   8.931  12.409   1.776
86324SOL    HW260870   9.045  12.508   1.791
86325SOL     OW60871   9.453  10.887  12.298
86325SOL    HW160872   9.376  10.832  12.287
86325SOL    HW260873   9.424  10.958  12.356
86326SOL     OW60874   9.098   4.245  13.709
86326SOL    HW160875   9.166   4.281  13.653
86326SOL    HW260876   9.141   4.175  13.757
86327SOL     OW60877   7.573  14.580  13.887
86327SOL    HW160878   7.569  14.492  13.924
86327SOL    HW260879   7.542  14.569  13.797
86328SOL     OW60880   2.702   4.649   5.249
86328SOL    HW160881   2.672   4.739   5.260
86328SOL    HW260882   2.628   4.595   5.278
86329SOL     OW60883   0.778   6.982   1.118
86329SOL    HW160884   0.863   6.951   1.086
86329SOL    HW260885   0.714   6.923   1.077
86330SOL     OW60886   6.880  10.166   1.040
86330SOL    HW160887   6.902  10.241   0.985
86330SOL    HW260888   6.824  10.111   0.986
86331SOL     OW60889  13.726  14.429  13.805
86331SOL    HW160890  13.820  14.411  13.800
86331SOL    HW260891  13.711  14.501  13.744
86332SOL     OW60892  12.848   2.007   4.324
86332SOL    HW160893  12.879   1.920   4.350
86332SOL    HW260894  12.809   1.993   4.238
86333SOL     OW60895  11.813   0.801   4.688
86333SOL    HW160896  11.811   0.882   4.636
86333SOL    HW260897  11.854   0.736   4.631
86334SOL     OW60898  11.564   8.610   1.445
86334SOL    HW160899  11.560   8.675   1.375
86334SOL    HW260900  11.524   8.532   1.407
86335SOL     OW60901   5.149   0.295  10.630
86335SOL    HW160902   5.195   0.210  10.629
86335SOL    HW260903   5.096   0.293  10.550
86336SOL     OW60904   5.171  10.732   6.121
86336SOL    HW160905   5.164  10.783   6.040
86336SOL    HW260906   5.092  10.678   6.122
86337SOL     OW60907  14.758   8.765   2.889
86337SOL    HW160908  14.767   8.718   2.972
86337SOL    HW260909  14.811   8.716   2.827
86338SOL     OW60910   2.648   5.644   8.447
86338SOL    HW160911   2.631   5.558   8.410
86338SOL    HW260912   2.743   5.651   8.448
86339SOL     OW60913  13.160  14.187   3.793
86339SOL    HW160914  13.155  14.239   3.873
86339SOL    HW260915  13.085  14.127   3.798
86340SOL     OW60916  10.124   2.195  13.393
86340SOL    HW160917  10.131   2.289  13.376
86340SOL    HW260918  10.030   2.179  13.400
86341SOL     OW60919   5.315   1.910   2.073
86341SOL    HW160920   5.347   1.839   2.018
86341SOL    HW260921   5.390   1.934   2.127
86342SOL     OW60922   0.825   7.025   1.648
86342SOL    HW160923   0.887   7.069   1.707
86342SOL    HW260924   0.823   7.080   1.570
86343SOL     OW60925  13.886   1.989  10.831
86343SOL    HW160926  13.795   2.012  10.812
86343SOL    HW260927  13.885   1.964  10.923
86344SOL     OW60928  11.042   0.920  13.509
86344SOL    HW160929  11.038   0.879  13.422
86344SOL    HW260930  11.018   0.849  13.569
86345SOL     OW60931   1.687  13.124   4.458
86345SOL    HW160932   1.734  13.083   4.531
86345SOL    HW260933   1.597  13.131   4.489
86346SOL     OW60934   3.855   1.384   2.578
86346SOL    HW160935   3.819   1.460   2.532
86346SOL    HW260936   3.893   1.329   2.509
86347SOL     OW60937  11.146   0.996  14.604
86347SOL    HW160938  11.113   0.914  14.567
86347SOL    HW260939  11.185   0.971  14.688
86348SOL     OW60940   8.568   9.309   0.639
86348SOL    HW160941   8.513   9.234   0.617
86348SOL    HW260942   8.598   9.292   0.728
86349SOL     OW60943   7.344   7.721   8.639
86349SOL    HW160944   7.379   7.717   8.550
86349SOL    HW260945   7.420   7.740   8.694
86350SOL     OW60946   9.179   2.021   3.876
86350SOL    HW160947   9.116   2.006   3.946
86350SOL    HW260948   9.182   2.116   3.866
86351SOL     OW60949  12.682   9.670   7.051
86351SOL    HW160950  12.618   9.643   7.117
86351SOL    HW260951  12.687   9.596   6.990
86352SOL     OW60952   3.130   3.188   4.699
86352SOL    HW160953   3.158   3.126   4.766
86352SOL    HW260954   3.210   3.207   4.650
86353SOL     OW60955   5.921   2.771   8.709
86353SOL    HW160956   6.000   2.772   8.653
86353SOL    HW260957   5.937   2.841   8.772
86354SOL     OW60958  13.458  13.930   0.464
86354SOL    HW160959  13.480  13.844   0.501
86354SOL    HW260960  13.422  13.979   0.537
86355SOL     OW60961   6.119   6.405   5.728
86355SOL    HW160962   6.085   6.494   5.723
86355SOL    HW260963   6.107   6.380   5.819
86356SOL     OW60964   2.842  14.730   1.196
86356SOL    HW160965   2.931  14.760   1.217
86356SOL    HW260966   2.848  14.635   1.194
86357SOL     OW60967   2.041  12.142   3.652
86357SOL    HW160968   2.059  12.058   3.609
86357SOL    HW260969   2.031  12.121   3.744
86358SOL     OW60970  14.682   5.539   4.806
86358SOL    HW160971  14.713   5.483   4.734
86358SOL    HW260972  14.607   5.493   4.841
86359SOL     OW60973   2.522   2.844   3.173
86359SOL    HW160974   2.610   2.811   3.156
86359SOL    HW260975   2.483   2.855   3.086
86360SOL     OW60976  10.075   8.025   6.790
86360SOL    HW160977   9.999   8.007   6.845
86360SOL    HW260978  10.150   7.995   6.841
86361SOL     OW60979  10.465   2.966   8.773
86361SOL    HW160980  10.494   3.057   8.774
86361SOL    HW260981  10.388   2.965   8.831
86362SOL     OW60982   4.853   0.525   8.665
86362SOL    HW160983   4.768   0.570   8.658
86362SOL    HW260984   4.838   0.457   8.731
86363SOL     OW60985   0.931   0.533   9.189
86363SOL    HW160986   0.917   0.514   9.096
86363SOL    HW260987   0.894   0.621   9.200
86364SOL     OW60988   9.654  10.796   1.939
86364SOL    HW160989   9.667  10.881   1.981
86364SOL    HW260990   9.642  10.734   2.011
86365SOL     OW60991  11.316   9.567   7.678
86365SOL    HW160992  11.249   9.506   7.646
86365SOL    HW260993  11.326   9.545   7.771
86366SOL     OW60994   4.281   6.134  10.095
86366SOL    HW160995   4.312   6.110  10.008
86366SOL    HW260996   4.208   6.074  10.112
86367SOL     OW60997   7.063  14.559   7.224
86367SOL    HW160998   7.028  14.555   7.135
86367SOL    HW260999   6.986  14.552   7.280
86368SOL     OW61000  13.625  14.053   9.529
86368SOL    HW161001  13.577  14.128   9.564
86368SOL    HW261002  13.680  14.024   9.602
86369SOL     OW61003   7.257   1.038   4.926
86369SOL    HW161004   7.188   1.102   4.906
86369SOL    HW261005   7.309   1.033   4.846
86370SOL     OW61006   9.961   4.056   7.665
86370SOL    HW161007   9.984   4.015   7.582
86370SOL    HW261008   9.901   3.994   7.706
86371SOL     OW61009   3.196  12.153   4.592
86371SOL    HW161010   3.233  12.238   4.565
86371SOL    HW261011   3.122  12.140   4.533
86372SOL     OW61012   2.426  12.822  10.408
86372SOL    HW161013   2.412  12.782  10.493
86372SOL    HW261014   2.448  12.749  10.350
86373SOL     OW61015  12.052   8.121   8.083
86373SOL    HW161016  11.989   8.108   8.153
86373SOL    HW261017  12.116   8.050   8.095
86374SOL     OW61018  14.448  14.711   9.772
86374SOL    HW161019  14.511  14.722   9.700
86374SOL    HW261020  14.363  14.731   9.733
86375SOL     OW61021   6.235   2.296   2.242
86375SOL    HW161022   6.157   2.347   2.222
86375SOL    HW261023   6.282   2.347   2.308
86376SOL     OW61024   7.827  12.172   8.005
86376SOL    HW161025   7.827  12.138   7.915
86376SOL    HW261026   7.773  12.250   8.001
86377SOL     OW61027  12.522  13.869   5.287
86377SOL    HW161028  12.594  13.862   5.350
86377SOL    HW261029  12.519  13.784   5.244
86378SOL     OW61030  13.779   2.077  13.526
86378SOL    HW161031  13.768   2.149  13.589
86378SOL    HW261032  13.691   2.060  13.494
86379SOL     OW61033   8.541  11.137   2.442
86379SOL    HW161034   8.446  11.140   2.428
86379SOL    HW261035   8.550  11.106   2.532
86380SOL     OW61036   5.686   1.422  11.962
86380SOL    HW161037   5.630   1.499  11.972
86380SOL    HW261038   5.773   1.453  11.987
86381SOL     OW61039   6.136   0.464   3.947
86381SOL    HW161040   6.204   0.512   3.995
86381SOL    HW261041   6.071   0.442   4.013
86382SOL     OW61042   9.127   9.704  14.175
86382SOL    HW161043   9.222   9.691  14.175
86382SOL    HW261044   9.098   9.668  14.091
86383SOL     OW61045  11.489  13.095  11.266
86383SOL    HW161046  11.438  13.039  11.325
86383SOL    HW261047  11.505  13.174  11.317
86384SOL     OW61048  13.364   8.854  10.618
86384SOL    HW161049  13.312   8.920  10.663
86384SOL    HW261050  13.310   8.775  10.620
86385SOL     OW61051  10.882   2.646   0.509
86385SOL    HW161052  10.970   2.665   0.477
86385SOL    HW261053  10.824   2.695   0.451
86386SOL     OW61054   5.699   5.145   0.593
86386SOL    HW161055   5.674   5.063   0.551
86386SOL    HW261056   5.795   5.146   0.587
86387SOL     OW61057   4.998  10.529   9.830
86387SOL    HW161058   4.972  10.452   9.881
86387SOL    HW261059   4.981  10.504   9.739
86388SOL     OW61060   3.094   2.434  10.769
86388SOL    HW161061   3.098   2.411  10.676
86388SOL    HW261062   3.060   2.523  10.771
86389SOL     OW61063  12.271  11.566   4.475
86389SOL    HW161064  12.193  11.574   4.531
86389SOL    HW261065  12.243  11.599   4.390
86390SOL     OW61066   3.162   1.936   5.501
86390SOL    HW161067   3.126   1.905   5.584
86390SOL    HW261068   3.156   2.031   5.505
86391SOL     OW61069   5.320   0.944   2.912
86391SOL    HW161070   5.277   0.869   2.870
86391SOL    HW261071   5.395   0.962   2.855
86392SOL     OW61072   8.765   1.552   4.027
86392SOL    HW161073   8.677   1.516   4.037
86392SOL    HW261074   8.823   1.476   4.031
86393SOL     OW61075  13.677  10.480   6.334
86393SOL    HW161076  13.736  10.421   6.287
86393SOL    HW261077  13.612  10.507   6.269
86394SOL     OW61078   7.857  12.834   5.269
86394SOL    HW161079   7.813  12.761   5.312
86394SOL    HW261080   7.806  12.911   5.295
86395SOL     OW61081  12.661  14.716   5.041
86395SOL    HW161082  12.724  14.775   5.000
86395SOL    HW261083  12.577  14.761   5.032
86396SOL     OW61084  14.621   4.910   8.987
86396SOL    HW161085  14.630   4.822   8.950
86396SOL    HW261086  14.577   4.960   8.918
86397SOL     OW61087   8.323   4.999   3.153
86397SOL    HW161088   8.346   5.078   3.202
86397SOL    HW261089   8.406   4.969   3.116
86398SOL     OW61090  12.704  11.576   9.934
86398SOL    HW161091  12.673  11.609  10.018
86398SOL    HW261092  12.634  11.598   9.872
86399SOL     OW61093  14.475   5.202   5.665
86399SOL    HW161094  14.437   5.195   5.578
86399SOL    HW261095  14.560   5.243   5.651
86400SOL     OW61096  10.433  14.344   3.578
86400SOL    HW161097  10.399  14.367   3.492
86400SOL    HW261098  10.477  14.424   3.608
86401SOL     OW61099  10.353   7.901  12.790
86401SOL    HW161100  10.287   7.958  12.750
86401SOL    HW261101  10.334   7.814  12.754
86402SOL     OW61102   9.833  13.005   6.276
86402SOL    HW161103   9.870  13.083   6.316
86402SOL    HW261104   9.739  13.024   6.269
86403SOL     OW61105   0.065   1.151  14.278
86403SOL    HW161106   0.060   1.180  14.187
86403SOL    HW261107   0.089   1.059  14.273
86404SOL     OW61108   2.975  12.426   2.824
86404SOL    HW161109   2.987  12.349   2.880
86404SOL    HW261110   3.063  12.462   2.814
86405SOL     OW61111  14.046  14.597  14.865
86405SOL    HW161112  14.061  14.687  14.837
86405SOL    HW261113  14.047  14.601   0.083
86406SOL     OW61114  13.488  10.377   1.812
86406SOL    HW161115  13.566  10.432   1.808
86406SOL    HW261116  13.521  10.288   1.796
86407SOL     OW61117   4.662  13.163   3.061
86407SOL    HW161118   4.631  13.239   3.011
86407SOL    HW261119   4.702  13.106   2.996
86408SOL     OW61120   6.692  12.798   7.621
86408SOL    HW161121   6.674  12.711   7.587
86408SOL    HW261122   6.697  12.854   7.544
86409SOL     OW61123   0.458   7.292  13.347
86409SOL    HW161124   0.385   7.317  13.404
86409SOL    HW261125   0.515   7.369  13.347
86410SOL     OW61126   1.857  12.494   4.956
86410SOL    HW161127   1.906  12.493   4.873
86410SOL    HW261128   1.828  12.585   4.965
86411SOL     OW61129  10.819   5.543   6.426
86411SOL    HW161130  10.855   5.531   6.338
86411SOL    HW261131  10.778   5.458   6.446
86412SOL     OW61132   4.896   1.527   0.706
86412SOL    HW161133   4.814   1.543   0.753
86412SOL    HW261134   4.961   1.578   0.754
86413SOL     OW61135  11.285   9.705  12.371
86413SOL    HW161136  11.225   9.701  12.297
86413SOL    HW261137  11.330   9.621  12.369
86414SOL     OW61138   8.591  11.754   2.837
86414SOL    HW161139   8.594  11.661   2.813
86414SOL    HW261140   8.638  11.759   2.920
86415SOL     OW61141  11.060   4.738   4.042
86415SOL    HW161142  11.138   4.687   4.067
86415SOL    HW261143  11.007   4.676   3.992
86416SOL     OW61144   7.564  12.655  12.775
86416SOL    HW161145   7.521  12.736  12.799
86416SOL    HW261146   7.658  12.672  12.786
86417SOL     OW61147   2.864   5.706   1.300
86417SOL    HW161148   2.847   5.613   1.284
86417SOL    HW261149   2.781   5.749   1.279
86418SOL     OW61150   5.059  13.671   3.024
86418SOL    HW161151   5.097  13.591   3.058
86418SOL    HW261152   5.006  13.643   2.949
86419SOL     OW61153   9.233   1.087  12.743
86419SOL    HW161154   9.217   0.992  12.751
86419SOL    HW261155   9.312   1.102  12.794
86420SOL     OW61156   3.473  11.052  14.653
86420SOL    HW161157   3.530  11.126  14.630
86420SOL    HW261158   3.478  11.047  14.749
86421SOL     OW61159   7.939  12.317   6.167
86421SOL    HW161160   7.872  12.384   6.156
86421SOL    HW261161   7.900  12.238   6.130
86422SOL     OW61162   5.990   8.981   4.724
86422SOL    HW161163   6.005   9.002   4.632
86422SOL    HW261164   5.971   8.887   4.724
86423SOL     OW61165   2.729   9.650   8.280
86423SOL    HW161166   2.741   9.645   8.375
86423SOL    HW261167   2.749   9.563   8.248
86424SOL     OW61168   0.785  11.046   6.337
86424SOL    HW161169   0.783  11.116   6.272
86424SOL    HW261170   0.721  11.073   6.403
86425SOL     OW61171   8.163   9.360  13.660
86425SOL    HW161172   8.241   9.386  13.611
86425SOL    HW261173   8.107   9.437  13.658
86426SOL     OW61174   9.473   3.116   1.343
86426SOL    HW161175   9.514   3.109   1.257
86426SOL    HW261176   9.540   3.085   1.404
86427SOL     OW61177  14.730  11.248   2.955
86427SOL    HW161178  14.706  11.178   3.015
86427SOL    HW261179  14.768  11.202   2.879
86428SOL     OW61180   2.090   2.354   0.875
86428SOL    HW161181   2.137   2.385   0.952
86428SOL    HW261182   2.045   2.275   0.905
86429SOL     OW61183  10.510   2.741   0.129
86429SOL    HW161184  10.521   2.647   0.144
86429SOL    HW261185  10.561   2.782   0.198
86430SOL     OW61186  11.192  13.759   0.904
86430SOL    HW161187  11.151  13.697   0.964
86430SOL    HW261188  11.150  13.843   0.925
86431SOL     OW61189  14.075  12.968  12.787
86431SOL    HW161190  14.114  12.890  12.748
86431SOL    HW261191  14.122  13.041  12.748
86432SOL     OW61192   5.723   3.385  13.611
86432SOL    HW161193   5.794   3.337  13.569
86432SOL    HW261194   5.732   3.366  13.704
86433SOL     OW61195  14.085   0.485   3.544
86433SOL    HW161196  14.099   0.427   3.469
86433SOL    HW261197  14.112   0.434   3.620
86434SOL     OW61198  11.855   0.370   3.810
86434SOL    HW161199  11.877   0.301   3.747
86434SOL    HW261200  11.760   0.382   3.799
86435SOL     OW61201   3.966   5.841  10.916
86435SOL    HW161202   3.913   5.867  10.840
86435SOL    HW261203   4.030   5.912  10.925
86436SOL     OW61204  14.216   7.698   0.259
86436SOL    HW161205  14.207   7.769   0.322
86436SOL    HW261206  14.303   7.710   0.221
86437SOL     OW61207   9.005  14.675   7.012
86437SOL    HW161208   8.917  14.687   7.049
86437SOL    HW261209   9.060  14.737   7.060
86438SOL     OW61210   6.994  14.239  10.149
86438SOL    HW161211   7.081  14.202  10.164
86438SOL    HW261212   6.934  14.169  10.173
86439SOL     OW61213  10.422   0.965  13.436
86439SOL    HW161214  10.435   0.992  13.346
86439SOL    HW261215  10.504   0.921  13.460
86440SOL     OW61216  12.708   3.047  10.872
86440SOL    HW161217  12.801   3.042  10.892
86440SOL    HW261218  12.671   3.098  10.944
86441SOL     OW61219   9.645   8.442   5.341
86441SOL    HW161220   9.577   8.483   5.287
86441SOL    HW261221   9.717   8.426   5.280
86442SOL     OW61222   5.120  11.053  10.742
86442SOL    HW161223   5.177  11.012  10.677
86442SOL    HW261224   5.106  10.986  10.809
86443SOL     OW61225  11.758  10.220   2.230
86443SOL    HW161226  11.849  10.250   2.231
86443SOL    HW261227  11.723  10.246   2.315
86444SOL     OW61228   0.092  13.124   8.700
86444SOL    HW161229   0.015  13.096   8.749
86444SOL    HW261230   0.119  13.206   8.741
86445SOL     OW61231   1.474   0.158  13.092
86445SOL    HW161232   1.395   0.127  13.136
86445SOL    HW261233   1.458   0.140  12.999
86446SOL     OW61234  12.854  10.438   2.997
86446SOL    HW161235  12.761  10.426   2.978
86446SOL    HW261236  12.856  10.493   3.076
86447SOL     OW61237   9.534   9.579   8.089
86447SOL    HW161238   9.457   9.588   8.145
86447SOL    HW261239   9.498   9.572   8.000
86448SOL     OW61240  13.571   0.987   7.318
86448SOL    HW161241  13.501   1.034   7.364
86448SOL    HW261242  13.650   1.006   7.369
86449SOL     OW61243   8.932  14.517   9.462
86449SOL    HW161244   8.964  14.572   9.392
86449SOL    HW261245   8.848  14.556   9.488
86450SOL     OW61246   5.523   7.499   3.801
86450SOL    HW161247   5.474   7.578   3.827
86450SOL    HW261248   5.497   7.434   3.866
86451SOL     OW61249   3.435   3.303   5.502
86451SOL    HW161250   3.400   3.221   5.467
86451SOL    HW261251   3.380   3.321   5.579
86452SOL     OW61252   3.147   2.818   6.670
86452SOL    HW161253   3.184   2.766   6.741
86452SOL    HW261254   3.095   2.755   6.620
86453SOL     OW61255   8.708   8.015   6.040
86453SOL    HW161256   8.727   8.108   6.028
86453SOL    HW261257   8.790   7.971   6.019
86454SOL     OW61258   7.854   1.761   2.471
86454SOL    HW161259   7.791   1.707   2.425
86454SOL    HW261260   7.806   1.795   2.547
86455SOL     OW61261  10.141  14.856   3.247
86455SOL    HW161262  10.193   0.051   3.282
86455SOL    HW261263  10.197  14.780   3.258
86456SOL     OW61264  11.240   6.897   3.311
86456SOL    HW161265  11.258   6.954   3.385
86456SOL    HW261266  11.213   6.955   3.241
86457SOL     OW61267   0.648  10.778   5.055
86457SOL    HW161268   0.602  10.805   5.134
86457SOL    HW261269   0.699  10.854   5.028
86458SOL     OW61270  12.151   6.183  14.458
86458SOL    HW161271  12.095   6.147  14.388
86458SOL    HW261272  12.194   6.106  14.496
86459SOL     OW61273   7.430   9.726  11.835
86459SOL    HW161274   7.473   9.653  11.879
86459SOL    HW261275   7.351   9.687  11.797
86460SOL     OW61276   6.456   8.999   9.393
86460SOL    HW161277   6.451   9.052   9.473
86460SOL    HW261278   6.544   8.962   9.395
86461SOL     OW61279   9.608   4.896  10.916
86461SOL    HW161280   9.673   4.967  10.915
86461SOL    HW261281   9.582   4.886  10.825
86462SOL     OW61282   7.597  10.684   0.679
86462SOL    HW161283   7.600  10.710   0.586
86462SOL    HW261284   7.572  10.592   0.677
86463SOL     OW61285   0.789   4.850  11.190
86463SOL    HW161286   0.750   4.825  11.106
86463SOL    HW261287   0.719   4.839  11.254
86464SOL     OW61288   3.057   7.778   0.936
86464SOL    HW161289   2.988   7.776   1.001
86464SOL    HW261290   3.135   7.804   0.984
86465SOL     OW61291  11.328   9.944  10.187
86465SOL    HW161292  11.366   9.985  10.265
86465SOL    HW261293  11.387   9.871  10.167
86466SOL     OW61294  11.386   3.069   9.030
86466SOL    HW161295  11.383   2.981   9.067
86466SOL    HW261296  11.295   3.095   9.021
86467SOL     OW61297   9.886   5.704   9.859
86467SOL    HW161298   9.801   5.730   9.896
86467SOL    HW261299   9.904   5.618   9.898
86468SOL     OW61300   0.286   9.565  13.513
86468SOL    HW161301   0.231   9.556  13.436
86468SOL    HW261302   0.284   9.659  13.534
86469SOL     OW61303  10.166   5.893   8.991
86469SOL    HW161304  10.122   5.967   9.034
86469SOL    HW261305  10.127   5.890   8.903
86470SOL     OW61306   0.615  14.648  12.183
86470SOL    HW161307   0.677  14.608  12.122
86470SOL    HW261308   0.608  14.585  12.254
86471SOL     OW61309   0.606  11.353   9.758
86471SOL    HW161310   0.577  11.331   9.669
86471SOL    HW261311   0.682  11.297   9.773
86472SOL     OW61312   4.655   4.056   8.324
86472SOL    HW161313   4.581   4.023   8.376
86472SOL    HW261314   4.695   3.977   8.287
86473SOL     OW61315   9.860   4.392  12.614
86473SOL    HW161316   9.788   4.451  12.637
86473SOL    HW261317   9.903   4.433  12.539
86474SOL     OW61318  13.075  10.281   4.240
86474SOL    HW161319  12.988  10.242   4.253
86474SOL    HW261320  13.081  10.295   4.146
86475SOL     OW61321   3.692   4.278  14.668
86475SOL    HW161322   3.730   4.342  14.728
86475SOL    HW261323   3.670   4.329  14.589
86476SOL     OW61324  13.280   0.607   1.820
86476SOL    HW161325  13.299   0.684   1.765
86476SOL    HW261326  13.329   0.536   1.779
86477SOL     OW61327   0.458  14.127  13.072
86477SOL    HW161328   0.516  14.076  13.015
86477SOL    HW261329   0.407  14.061  13.120
86478SOL     OW61330   9.696   5.518   0.314
86478SOL    HW161331   9.669   5.555   0.398
86478SOL    HW261332   9.635   5.555   0.251
86479SOL     OW61333   0.526   4.934   6.207
86479SOL    HW161334   0.518   4.892   6.121
86479SOL    HW261335   0.552   4.863   6.266
86480SOL     OW61336   7.043   8.295   1.932
86480SOL    HW161337   6.962   8.272   1.977
86480SOL    HW261338   7.031   8.386   1.905
86481SOL     OW61339   2.499  13.226   2.811
86481SOL    HW161340   2.594  13.238   2.807
86481SOL    HW261341   2.487  13.132   2.825
86482SOL     OW61342   0.565  13.032  12.686
86482SOL    HW161343   0.653  13.024  12.649
86482SOL    HW261344   0.507  12.997  12.618
86483SOL     OW61345   4.069   8.951   9.264
86483SOL    HW161346   4.058   9.039   9.229
86483SOL    HW261347   4.001   8.942   9.330
86484SOL     OW61348   1.413  13.268  11.461
86484SOL    HW161349   1.410  13.292  11.369
86484SOL    HW261350   1.468  13.336  11.502
86485SOL     OW61351   6.816  11.832  10.789
86485SOL    HW161352   6.869  11.908  10.812
86485SOL    HW261353   6.861  11.758  10.829
86486SOL     OW61354   1.730   5.815   3.400
86486SOL    HW161355   1.763   5.886   3.345
86486SOL    HW261356   1.807   5.778   3.442
86487SOL     OW61357   6.027   1.074  12.047
86487SOL    HW161358   5.986   1.144  11.996
86487SOL    HW261359   6.106   1.113  12.083
86488SOL     OW61360  13.560   2.827   9.113
86488SOL    HW161361  13.615   2.873   9.049
86488SOL    HW261362  13.616   2.815   9.189
86489SOL     OW61363   5.736   2.437   0.161
86489SOL    HW161364   5.661   2.378   0.171
86489SOL    HW261365   5.769   2.448   0.251
86490SOL     OW61366  14.150   9.465  14.423
86490SOL    HW161367  14.185   9.400  14.362
86490SOL    HW261368  14.214   9.536  14.423
86491SOL     OW61369   5.525   6.905   5.023
86491SOL    HW161370   5.578   6.954   4.960
86491SOL    HW261371   5.494   6.829   4.974
86492SOL     OW61372   3.278   3.532   2.040
86492SOL    HW161373   3.319   3.544   2.126
86492SOL    HW261374   3.241   3.618   2.019
86493SOL     OW61375  13.726  11.891  12.706
86493SOL    HW161376  13.800  11.843  12.668
86493SOL    HW261377  13.742  11.890  12.800
86494SOL     OW61378   4.642  11.198   6.445
86494SOL    HW161379   4.717  11.197   6.385
86494SOL    HW261380   4.680  11.218   6.530
86495SOL     OW61381  14.751  10.505   9.719
86495SOL    HW161382  14.794  10.578   9.764
86495SOL    HW261383  14.681  10.546   9.668
86496SOL     OW61384  11.250   2.374   3.183
86496SOL    HW161385  11.315   2.305   3.198
86496SOL    HW261386  11.299   2.456   3.196
86497SOL     OW61387   8.799   6.410   9.189
86497SOL    HW161388   8.808   6.315   9.186
86497SOL    HW261389   8.760   6.428   9.274
86498SOL     OW61390   2.988  12.602  12.883
86498SOL    HW161391   2.938  12.650  12.949
86498SOL    HW261392   3.069  12.653  12.874
86499SOL     OW61393   4.269   3.996   4.409
86499SOL    HW161394   4.208   4.019   4.479
86499SOL    HW261395   4.294   3.905   4.428
86500SOL     OW61396   2.570   2.346  13.185
86500SOL    HW161397   2.664   2.361  13.196
86500SOL    HW261398   2.563   2.277  13.120
86501SOL     OW61399   4.909   2.762   9.971
86501SOL    HW161400   5.001   2.748   9.996
86501SOL    HW261401   4.864   2.776  10.054
86502SOL     OW61402   5.991  13.918   7.651
86502SOL    HW161403   5.902  13.884   7.661
86502SOL    HW261404   6.046  13.856   7.699
86503SOL     OW61405  13.025   3.947  12.253
86503SOL    HW161406  13.095   3.961  12.317
86503SOL    HW261407  13.026   4.027  12.199
86504SOL     OW61408   6.801  13.847  11.852
86504SOL    HW161409   6.881  13.858  11.800
86504SOL    HW261410   6.734  13.895  11.803
86505SOL     OW61411   0.082  14.481   6.009
86505SOL    HW161412   0.037  14.397   6.009
86505SOL    HW261413   0.019  14.542   6.045
86506SOL     OW61414   3.575   1.917   6.767
86506SOL    HW161415   3.602   1.987   6.827
86506SOL    HW261416   3.655   1.866   6.752
86507SOL     OW61417   4.016   4.317  10.749
86507SOL    HW161418   4.110   4.309  10.735
86507SOL    HW261419   3.977   4.279  10.670
86508SOL     OW61420   9.450  10.340   8.991
86508SOL    HW161421   9.528  10.352   9.044
86508SOL    HW261422   9.446  10.418   8.936
86509SOL     OW61423   3.291   7.239   1.030
86509SOL    HW161424   3.257   7.326   1.007
86509SOL    HW261425   3.274   7.185   0.953
86510SOL     OW61426   9.975   0.530   2.687
86510SOL    HW161427   9.881   0.511   2.689
86510SOL    HW261428   9.987   0.598   2.754
86511SOL     OW61429   7.258   2.271  11.715
86511SOL    HW161430   7.178   2.284  11.664
86511SOL    HW261431   7.237   2.309  11.801
86512SOL     OW61432   5.533  10.865  10.840
86512SOL    HW161433   5.515  10.931  10.773
86512SOL    HW261434   5.591  10.802  10.797
86513SOL     OW61435   2.811  13.633   1.590
86513SOL    HW161436   2.737  13.686   1.561
86513SOL    HW261437   2.812  13.643   1.685
86514SOL     OW61438  14.006   2.012   3.342
86514SOL    HW161439  14.070   2.026   3.272
86514SOL    HW261440  13.925   2.049   3.307
86515SOL     OW61441  12.022  11.039   0.580
86515SOL    HW161442  11.956  10.972   0.597
86515SOL    HW261443  11.992  11.082   0.500
86516SOL     OW61444   6.761  10.743  11.118
86516SOL    HW161445   6.714  10.659  11.120
86516SOL    HW261446   6.781  10.761  11.210
86517SOL     OW61447   3.598  14.018  12.147
86517SOL    HW161448   3.670  14.077  12.125
86517SOL    HW261449   3.616  13.938  12.096
86518SOL     OW61450   2.373   9.438  13.232
86518SOL    HW161451   2.409   9.355  13.200
86518SOL    HW261452   2.363   9.424  13.326
86519SOL     OW61453   8.718   0.914   9.568
86519SOL    HW161454   8.720   0.837   9.510
86519SOL    HW261455   8.809   0.943   9.570
86520SOL     OW61456  13.296  12.523   3.697
86520SOL    HW161457  13.362  12.575   3.651
86520SOL    HW261458  13.347  12.460   3.748
86521SOL     OW61459   0.694  12.974   2.441
86521SOL    HW161460   0.630  13.044   2.427
86521SOL    HW261461   0.729  12.956   2.354
86522SOL     OW61462  12.724  12.713   1.852
86522SOL    HW161463  12.766  12.745   1.772
86522SOL    HW261464  12.655  12.777   1.870
86523SOL     OW61465   2.899   8.912   2.352
86523SOL    HW161466   2.985   8.944   2.377
86523SOL    HW261467   2.840   8.986   2.366
86524SOL     OW61468  14.811   0.652   1.803
86524SOL    HW161469  14.848   0.678   1.887
86524SOL    HW261470  14.729   0.609   1.825
86525SOL     OW61471   2.151   9.519  12.455
86525SOL    HW161472   2.115   9.482  12.375
86525SOL    HW261473   2.185   9.605  12.429
86526SOL     OW61474  12.982  10.819  13.628
86526SOL    HW161475  12.994  10.726  13.613
86526SOL    HW261476  12.982  10.828  13.723
86527SOL     OW61477  14.403   0.546  14.496
86527SOL    HW161478  14.491   0.543  14.535
86527SOL    HW261479  14.419   0.566  14.403
86528SOL     OW61480   8.488   2.432  12.734
86528SOL    HW161481   8.537   2.513  12.748
86528SOL    HW261482   8.555   2.370  12.704
86529SOL     OW61483  12.579   4.393   2.078
86529SOL    HW161484  12.530   4.330   2.025
86529SOL    HW261485  12.586   4.352   2.164
86530SOL     OW61486   7.525  13.766  13.267
86530SOL    HW161487   7.558  13.794  13.352
86530SOL    HW261488   7.585  13.696  13.240
86531SOL     OW61489  13.000   2.559   7.750
86531SOL    HW161490  13.058   2.634   7.733
86531SOL    HW261491  13.028   2.493   7.686
86532SOL     OW61492   4.995  14.171  10.037
86532SOL    HW161493   4.956  14.166   9.949
86532SOL    HW261494   5.036  14.257  10.040
86533SOL     OW61495   4.966  13.952  13.156
86533SOL    HW161496   4.933  13.897  13.227
86533SOL    HW261497   5.003  14.029  13.200
86534SOL     OW61498   8.043   3.514  14.805
86534SOL    HW161499   8.081   3.507   0.015
86534SOL    HW261500   8.108   3.472  14.748
86535SOL     OW61501  14.711   6.270  11.894
86535SOL    HW161502  14.660   6.316  11.961
86535SOL    HW261503  14.785   6.233  11.942
86536SOL     OW61504   1.459  14.401  10.870
86536SOL    HW161505   1.543  14.378  10.909
86536SOL    HW261506   1.407  14.320  10.876
86537SOL     OW61507  12.276  14.229   5.109
86537SOL    HW161508  12.295  14.135   5.116
86537SOL    HW261509  12.357  14.272   5.135
86538SOL     OW61510   3.810  14.143  12.352
86538SOL    HW161511   3.723  14.174  12.324
86538SOL    HW261512   3.871  14.204  12.312
86539SOL     OW61513   1.632  13.767   1.088
86539SOL    HW161514   1.691  13.841   1.100
86539SOL    HW261515   1.663  13.701   1.151
86540SOL     OW61516  10.516   5.985   9.731
86540SOL    HW161517  10.429   5.964   9.695
86540SOL    HW261518  10.531   5.919   9.798
86541SOL     OW61519  14.006  12.990   0.216
86541SOL    HW161520  14.089  12.995   0.264
86541SOL    HW261521  14.015  12.913   0.161
86542SOL     OW61522   0.347  13.291  13.765
86542SOL    HW161523   0.269  13.284  13.709
86542SOL    HW261524   0.401  13.217  13.739
86543SOL     OW61525  11.994  11.333   8.321
86543SOL    HW161526  12.083  11.302   8.303
86543SOL    HW261527  12.004  11.394   8.394
86544SOL     OW61528   8.407   0.738  13.282
86544SOL    HW161529   8.440   0.802  13.219
86544SOL    HW261530   8.316   0.722  13.254
86545SOL     OW61531   4.517   0.955   1.009
86545SOL    HW161532   4.477   0.955   0.922
86545SOL    HW261533   4.601   0.998   0.997
86546SOL     OW61534   0.503   4.152  11.160
86546SOL    HW161535   0.475   4.061  11.146
86546SOL    HW261536   0.490   4.167  11.254
86547SOL     OW61537   2.864   0.667   7.750
86547SOL    HW161538   2.804   0.607   7.794
86547SOL    HW261539   2.898   0.723   7.820
86548SOL     OW61540   7.836   8.542   1.277
86548SOL    HW161541   7.876   8.474   1.333
86548SOL    HW261542   7.757   8.501   1.242
86549SOL     OW61543  10.773  13.566  12.541
86549SOL    HW161544  10.714  13.636  12.569
86549SOL    HW261545  10.727  13.525  12.467
86550SOL     OW61546  11.158   6.966   5.724
86550SOL    HW161547  11.234   6.951   5.668
86550SOL    HW261548  11.135   6.879   5.758
86551SOL     OW61549   3.241   8.363   5.337
86551SOL    HW161550   3.307   8.369   5.268
86551SOL    HW261551   3.278   8.413   5.410
86552SOL     OW61552   1.869   9.316   8.541
86552SOL    HW161553   1.810   9.283   8.609
86552SOL    HW261554   1.954   9.323   8.584
86553SOL     OW61555   0.563   8.350   1.304
86553SOL    HW161556   0.476   8.316   1.324
86553SOL    HW261557   0.623   8.282   1.334
86554SOL     OW61558   3.254   6.977   3.883
86554SOL    HW161559   3.273   7.066   3.855
86554SOL    HW261560   3.158   6.972   3.883
86555SOL     OW61561   9.044   7.352   5.501
86555SOL    HW161562   9.050   7.438   5.541
86555SOL    HW261563   8.998   7.367   5.419
86556SOL     OW61564   6.396   9.569  13.852
86556SOL    HW161565   6.408   9.537  13.942
86556SOL    HW261566   6.416   9.493  13.797
86557SOL     OW61567   2.506   8.439   3.871
86557SOL    HW161568   2.469   8.457   3.785
86557SOL    HW261569   2.470   8.507   3.928
86558SOL     OW61570   5.525   6.834  13.587
86558SOL    HW161571   5.543   6.761  13.528
86558SOL    HW261572   5.474   6.895  13.535
86559SOL     OW61573   8.415   0.973   8.376
86559SOL    HW161574   8.348   1.012   8.320
86559SOL    HW261575   8.482   0.943   8.315
86560SOL     OW61576   6.297   8.986   9.163
86560SOL    HW161577   6.351   8.982   9.242
86560SOL    HW261578   6.220   8.933   9.184
86561SOL     OW61579  14.030  14.054   3.842
86561SOL    HW161580  14.097  14.070   3.775
86561SOL    HW261581  14.064  13.980   3.892
86562SOL     OW61582  14.457   3.189  14.005
86562SOL    HW161583  14.523   3.159  14.068
86562SOL    HW261584  14.412   3.261  14.049
86563SOL     OW61585   7.939   9.943   0.789
86563SOL    HW161586   7.845   9.930   0.786
86563SOL    HW261587   7.976   9.854   0.795
86564SOL     OW61588   3.887   8.948  13.569
86564SOL    HW161589   3.847   9.011  13.629
86564SOL    HW261590   3.965   8.993  13.536
86565SOL     OW61591  14.405   3.154  14.497
86565SOL    HW161592  14.472   3.194  14.443
86565SOL    HW261593  14.451   3.087  14.547
86566SOL     OW61594  12.491  14.777   7.063
86566SOL    HW161595  12.506  14.727   6.983
86566SOL    HW261596  12.561  14.842   7.064
86567SOL     OW61597  12.275   2.383   0.971
86567SOL    HW161598  12.187   2.349   0.982
86567SOL    HW261599  12.270   2.438   0.893
86568SOL     OW61600  13.920  14.136  11.193
86568SOL    HW161601  13.938  14.101  11.106
86568SOL    HW261602  13.871  14.067  11.236
86569SOL     OW61603   8.200   8.909   2.175
86569SOL    HW161604   8.207   9.002   2.155
86569SOL    HW261605   8.277   8.889   2.228
86570SOL     OW61606   4.710   7.531   2.277
86570SOL    HW161607   4.669   7.446   2.294
86570SOL    HW261608   4.658   7.593   2.326
86571SOL     OW61609   3.545   8.968   9.861
86571SOL    HW161610   3.607   8.973   9.933
86571SOL    HW261611   3.538   8.874   9.842
86572SOL     OW61612   7.159   6.453  12.063
86572SOL    HW161613   7.068   6.474  12.082
86572SOL    HW261614   7.193   6.532  12.020
86573SOL     OW61615  10.660   8.386   1.604
86573SOL    HW161616  10.673   8.380   1.699
86573SOL    HW261617  10.727   8.448   1.574
86574SOL     OW61618   4.152   2.523  12.545
86574SOL    HW161619   4.157   2.529  12.640
86574SOL    HW261620   4.243   2.515  12.517
86575SOL     OW61621  14.150   6.644   4.604
86575SOL    HW161622  14.204   6.630   4.526
86575SOL    HW261623  14.202   6.702   4.660
86576SOL     OW61624  11.404  11.816   5.446
86576SOL    HW161625  11.361  11.803   5.362
86576SOL    HW261626  11.494  11.786   5.432
86577SOL     OW61627  14.093   5.673  14.078
86577SOL    HW161628  14.043   5.676  13.996
86577SOL    HW261629  14.065   5.592  14.120
86578SOL     OW61630  14.101  10.153   3.249
86578SOL    HW161631  14.124  10.095   3.322
86578SOL    HW261632  14.166  10.133   3.181
86579SOL     OW61633   7.609   9.440   3.205
86579SOL    HW161634   7.522   9.410   3.230
86579SOL    HW261635   7.631   9.506   3.271
86580SOL     OW61636   2.552  12.953   4.494
86580SOL    HW161637   2.534  12.955   4.588
86580SOL    HW261638   2.523  13.039   4.463
86581SOL     OW61639   3.017   0.071   7.451
86581SOL    HW161640   3.061   0.155   7.454
86581SOL    HW261641   3.054   0.022   7.524
86582SOL     OW61642   2.826  13.108  10.164
86582SOL    HW161643   2.758  13.110  10.231
86582SOL    HW261644   2.797  13.170  10.098
86583SOL     OW61645   5.177   8.413  10.709
86583SOL    HW161646   5.267   8.418  10.677
86583SOL    HW261647   5.131   8.360  10.644
86584SOL     OW61648  13.495  12.215  12.140
86584SOL    HW161649  13.478  12.128  12.176
86584SOL    HW261650  13.547  12.259  12.207
86585SOL     OW61651  11.758   5.258   6.487
86585SOL    HW161652  11.805   5.175   6.480
86585SOL    HW261653  11.700   5.260   6.411
86586SOL     OW61654   0.504   6.342  13.598
86586SOL    HW161655   0.545   6.429  13.593
86586SOL    HW261656   0.411   6.359  13.589
86587SOL     OW61657   9.613   2.435   2.257
86587SOL    HW161658   9.642   2.350   2.222
86587SOL    HW261659   9.595   2.488   2.180
86588SOL     OW61660   1.613   7.634   3.120
86588SOL    HW161661   1.646   7.564   3.177
86588SOL    HW261662   1.652   7.617   3.035
86589SOL     OW61663  11.542   3.691   3.482
86589SOL    HW161664  11.620   3.636   3.487
86589SOL    HW261665  11.571   3.769   3.436
86590SOL     OW61666   3.796   2.059   9.744
86590SOL    HW161667   3.802   1.973   9.704
86590SOL    HW261668   3.733   2.106   9.690
86591SOL     OW61669   5.898   4.499   5.111
86591SOL    HW161670   5.861   4.498   5.022
86591SOL    HW261671   5.825   4.473   5.167
86592SOL     OW61672   4.829   7.548   5.331
86592SOL    HW161673   4.774   7.575   5.257
86592SOL    HW261674   4.916   7.537   5.294
86593SOL     OW61675   1.836   9.003   8.523
86593SOL    HW161676   1.831   8.966   8.611
86593SOL    HW261677   1.895   9.078   8.532
86594SOL     OW61678  13.822   9.917  10.920
86594SOL    HW161679  13.825   9.912  10.825
86594SOL    HW261680  13.740   9.963  10.939
86595SOL     OW61681   3.708   1.107   0.059
86595SOL    HW161682   3.651   1.086  14.863
86595SOL    HW261683   3.674   1.055   0.132
86596SOL     OW61684   4.441   7.263  11.753
86596SOL    HW161685   4.421   7.338  11.808
86596SOL    HW261686   4.537   7.264  11.746
86597SOL     OW61687   9.914   5.846  13.895
86597SOL    HW161688   9.853   5.810  13.959
86597SOL    HW261689   9.870   5.923  13.860
86598SOL     OW61690   3.563  12.324   8.363
86598SOL    HW161691   3.468  12.324   8.350
86598SOL    HW261692   3.598  12.311   8.275
86599SOL     OW61693   6.667   9.416   1.341
86599SOL    HW161694   6.677   9.462   1.258
86599SOL    HW261695   6.752   9.426   1.385
86600SOL     OW61696   3.238  12.392  12.941
86600SOL    HW161697   3.171  12.440  12.891
86600SOL    HW261698   3.250  12.445  13.020
86601SOL     OW61699  14.101   0.435  12.741
86601SOL    HW161700  14.017   0.412  12.779
86601SOL    HW261701  14.103   0.531  12.741
86602SOL     OW61702   3.761   4.556  10.233
86602SOL    HW161703   3.706   4.632  10.252
86602SOL    HW261704   3.838   4.593  10.190
86603SOL     OW61705  14.322   9.280   4.191
86603SOL    HW161706  14.386   9.322   4.247
86603SOL    HW261707  14.237   9.307   4.226
86604SOL     OW61708   7.009  10.058   8.952
86604SOL    HW161709   7.027   9.965   8.969
86604SOL    HW261710   7.069  10.082   8.882
86605SOL     OW61711   3.823   4.167  10.037
86605SOL    HW161712   3.888   4.237  10.032
86605SOL    HW261713   3.770   4.176   9.958
86606SOL     OW61714   7.051   0.998   9.411
86606SOL    HW161715   6.965   0.957   9.403
86606SOL    HW261716   7.031   1.090   9.429
86607SOL     OW61717   7.183   9.911   0.946
86607SOL    HW161718   7.140   9.990   0.978
86607SOL    HW261719   7.266   9.943   0.908
86608SOL     OW61720   1.066   3.436  14.275
86608SOL    HW161721   1.056   3.423  14.181
86608SOL    HW261722   0.983   3.407  14.312
86609SOL     OW61723  10.170  11.472   0.874
86609SOL    HW161724  10.113  11.470   0.797
86609SOL    HW261725  10.113  11.448   0.947
86610SOL     OW61726  13.818   1.587   0.495
86610SOL    HW161727  13.811   1.505   0.445
86610SOL    HW261728  13.757   1.574   0.568
86611SOL     OW61729   8.566  13.502  13.919
86611SOL    HW161730   8.603  13.576  13.966
86611SOL    HW261731   8.583  13.521  13.827
86612SOL     OW61732   4.164   4.565  10.857
86612SOL    HW161733   4.109   4.488  10.865
86612SOL    HW261734   4.245   4.542  10.903
86613SOL     OW61735   1.678   4.298  10.874
86613SOL    HW161736   1.583   4.308  10.879
86613SOL    HW261737   1.697   4.286  10.781
86614SOL     OW61738   3.432   7.130  11.869
86614SOL    HW161739   3.360   7.097  11.817
86614SOL    HW261740   3.475   7.052  11.904
86615SOL     OW61741   5.314  12.776   4.498
86615SOL    HW161742   5.264  12.829   4.560
86615SOL    HW261743   5.276  12.688   4.506
86616SOL     OW61744   5.695   3.667   3.133
86616SOL    HW161745   5.772   3.611   3.128
86616SOL    HW261746   5.729   3.756   3.121
86617SOL     OW61747   0.264   4.594  14.561
86617SOL    HW161748   0.198   4.611  14.493
86617SOL    HW261749   0.345   4.631  14.527
86618SOL     OW61750   0.967   3.784  13.590
86618SOL    HW161751   0.994   3.809  13.678
86618SOL    HW261752   1.027   3.715  13.564
86619SOL     OW61753   9.094  10.423   3.116
86619SOL    HW161754   9.035  10.458   3.183
86619SOL    HW261755   9.039  10.362   3.066
86620SOL     OW61756   9.542   9.131   2.068
86620SOL    HW161757   9.463   9.086   2.096
86620SOL    HW261758   9.559   9.195   2.137
86621SOL     OW61759   9.762   9.422  11.737
86621SOL    HW161760   9.690   9.464  11.690
86621SOL    HW261761   9.779   9.342  11.687
86622SOL     OW61762  11.382   2.962  14.028
86622SOL    HW161763  11.332   2.950  13.947
86622SOL    HW261764  11.473   2.952  14.001
86623SOL     OW61765   1.146   2.606   4.356
86623SOL    HW161766   1.072   2.553   4.388
86623SOL    HW261767   1.198   2.544   4.304
86624SOL     OW61768   3.302   9.401   1.085
86624SOL    HW161769   3.224   9.454   1.067
86624SOL    HW261770   3.269   9.327   1.136
86625SOL     OW61771   6.036  14.719   6.725
86625SOL    HW161772   5.982  14.661   6.671
86625SOL    HW261773   6.031  14.804   6.681
86626SOL     OW61774   3.483   5.832   8.581
86626SOL    HW161775   3.433   5.905   8.618
86626SOL    HW261776   3.424   5.795   8.515
86627SOL     OW61777   7.836  11.536  12.783
86627SOL    HW161778   7.908  11.490  12.825
86627SOL    HW261779   7.802  11.474  12.718
86628SOL     OW61780   6.353   3.840   5.317
86628SOL    HW161781   6.371   3.752   5.351
86628SOL    HW261782   6.278   3.871   5.368
86629SOL     OW61783   2.470  10.939   0.917
86629SOL    HW161784   2.524  10.864   0.940
86629SOL    HW261785   2.519  10.985   0.849
86630SOL     OW61786  11.044  12.979   4.630
86630SOL    HW161787  11.020  12.886   4.626
86630SOL    HW261788  11.089  12.995   4.547
86631SOL     OW61789   1.761   4.576   3.491
86631SOL    HW161790   1.766   4.481   3.486
86631SOL    HW261791   1.847   4.606   3.461
86632SOL     OW61792   2.635  12.424   8.367
86632SOL    HW161793   2.544  12.449   8.353
86632SOL    HW261794   2.671  12.493   8.422
86633SOL     OW61795   8.548   2.581  14.347
86633SOL    HW161796   8.634   2.540  14.340
86633SOL    HW261797   8.503   2.558  14.266
86634SOL     OW61798   7.538   9.318  14.149
86634SOL    HW161799   7.574   9.301  14.236
86634SOL    HW261800   7.596   9.271  14.089
86635SOL     OW61801   6.815   6.599   6.921
86635SOL    HW161802   6.863   6.681   6.925
86635SOL    HW261803   6.831   6.558   7.006
86636SOL     OW61804   5.193   0.053   1.657
86636SOL    HW161805   5.263  14.876   1.692
86636SOL    HW261806   5.134   0.068   1.731
86637SOL     OW61807  12.736  13.935   2.708
86637SOL    HW161808  12.717  13.855   2.660
86637SOL    HW261809  12.694  13.922   2.793
86638SOL     OW61810  11.423  12.951  11.027
86638SOL    HW161811  11.457  12.871  11.067
86638SOL    HW261812  11.410  13.010  11.101
86639SOL     OW61813  12.081   9.197   4.595
86639SOL    HW161814  12.032   9.278   4.610
86639SOL    HW261815  12.045   9.134   4.656
86640SOL     OW61816   0.100   4.605   2.481
86640SOL    HW161817   0.061   4.519   2.467
86640SOL    HW261818   0.102   4.645   2.394
86641SOL     OW61819   2.402   8.354  12.368
86641SOL    HW161820   2.496   8.338  12.375
86641SOL    HW261821   2.362   8.284  12.421
86642SOL     OW61822  14.291   9.189  13.019
86642SOL    HW161823  14.247   9.142  12.949
86642SOL    HW261824  14.299   9.279  12.987
86643SOL     OW61825   2.003  14.803   0.613
86643SOL    HW161826   2.010  14.718   0.656
86643SOL    HW261827   1.950  14.786   0.536
86644SOL     OW61828  11.167   8.249   3.993
86644SOL    HW161829  11.120   8.186   4.048
86644SOL    HW261830  11.245   8.272   4.045
86645SOL     OW61831   0.864   0.415  11.354
86645SOL    HW161832   0.904   0.376  11.432
86645SOL    HW261833   0.859   0.508  11.375
86646SOL     OW61834   3.162   5.873   8.561
86646SOL    HW161835   3.203   5.789   8.541
86646SOL    HW261836   3.138   5.908   8.475
86647SOL     OW61837  13.724   4.512   8.945
86647SOL    HW161838  13.807   4.560   8.950
86647SOL    HW261839  13.657   4.580   8.958
86648SOL     OW61840  12.504   5.611  11.652
86648SOL    HW161841  12.450   5.576  11.581
86648SOL    HW261842  12.503   5.706  11.638
86649SOL     OW61843   3.296  11.759   6.250
86649SOL    HW161844   3.290  11.835   6.192
86649SOL    HW261845   3.382  11.723   6.232
86650SOL     OW61846  14.444   8.562   3.927
86650SOL    HW161847  14.349   8.564   3.942
86650SOL    HW261848  14.474   8.648   3.957
86651SOL     OW61849  10.723   3.718  13.685
86651SOL    HW161850  10.725   3.625  13.661
86651SOL    HW261851  10.755   3.721  13.775
86652SOL     OW61852  12.744   0.816   6.965
86652SOL    HW161853  12.765   0.827   7.058
86652SOL    HW261854  12.817   0.857   6.919
86653SOL     OW61855   9.117   2.387   5.228
86653SOL    HW161856   9.110   2.372   5.322
86653SOL    HW261857   9.027   2.397   5.198
86654SOL     OW61858  13.549  13.396   2.418
86654SOL    HW161859  13.508  13.477   2.387
86654SOL    HW261860  13.601  13.365   2.345
86655SOL     OW61861   0.594   7.228   4.290
86655SOL    HW161862   0.614   7.136   4.273
86655SOL    HW261863   0.635   7.275   4.217
86656SOL     OW61864   4.604   5.642   7.364
86656SOL    HW161865   4.533   5.664   7.305
86656SOL    HW261866   4.683   5.674   7.320
86657SOL     OW61867   9.984   1.213  14.746
86657SOL    HW161868  10.052   1.259  14.796
86657SOL    HW261869   9.903   1.259  14.769
86658SOL     OW61870  11.439   2.917  11.106
86658SOL    HW161871  11.393   2.929  11.023
86658SOL    HW261872  11.508   2.854  11.086
86659SOL     OW61873   2.857   3.139  10.138
86659SOL    HW161874   2.859   3.085  10.217
86659SOL    HW261875   2.948   3.145  10.109
86660SOL     OW61876   4.405  10.973   6.177
86660SOL    HW161877   4.325  11.016   6.208
86660SOL    HW261878   4.469  11.044   6.169
86661SOL     OW61879   7.828   4.725  13.935
86661SOL    HW161880   7.828   4.674  14.016
86661SOL    HW261881   7.757   4.686  13.883
86662SOL     OW61882   6.724   5.105   9.619
86662SOL    HW161883   6.688   5.155   9.693
86662SOL    HW261884   6.808   5.073   9.651
86663SOL     OW61885   7.220   5.439   9.880
86663SOL    HW161886   7.251   5.436   9.789
86663SOL    HW261887   7.284   5.493   9.926
86664SOL     OW61888   2.911   3.689   4.674
86664SOL    HW161889   2.908   3.773   4.719
86664SOL    HW261890   2.985   3.643   4.714
86665SOL     OW61891   5.800   7.827   4.721
86665SOL    HW161892   5.867   7.783   4.668
86665SOL    HW261893   5.794   7.915   4.685
86666SOL     OW61894   1.609  14.664  11.122
86666SOL    HW161895   1.607  14.568  11.128
86666SOL    HW261896   1.540  14.685  11.059
86667SOL     OW61897   3.447  11.621   9.539
86667SOL    HW161898   3.535  11.606   9.503
86667SOL    HW261899   3.440  11.716   9.546
86668SOL     OW61900   5.619   7.664  12.975
86668SOL    HW161901   5.696   7.611  12.996
86668SOL    HW261902   5.562   7.605  12.926
86669SOL     OW61903  14.469   3.289   7.868
86669SOL    HW161904  14.536   3.300   7.936
86669SOL    HW261905  14.518   3.279   7.787
86670SOL     OW61906  11.126  10.678  14.543
86670SOL    HW161907  11.199  10.690  14.604
86670SOL    HW261908  11.113  10.764  14.503
86671SOL     OW61909   8.002   4.030   5.517
86671SOL    HW161910   7.953   4.083   5.580
86671SOL    HW261911   8.014   4.088   5.442
86672SOL     OW61912   2.895  14.478   3.519
86672SOL    HW161913   2.862  14.392   3.492
86672SOL    HW261914   2.988  14.462   3.537
86673SOL     OW61915  11.864   6.505   8.227
86673SOL    HW161916  11.895   6.517   8.317
86673SOL    HW261917  11.797   6.437   8.234
86674SOL     OW61918  14.763   3.410  10.068
86674SOL    HW161919  14.835   3.357  10.100
86674SOL    HW261920  14.727   3.453  10.146
86675SOL     OW61921  13.893   5.878   0.034
86675SOL    HW161922  13.959   5.839   0.091
86675SOL    HW261923  13.869   5.960   0.078
86676SOL     OW61924   7.473   6.556   3.502
86676SOL    HW161925   7.560   6.591   3.518
86676SOL    HW261926   7.484   6.461   3.510
86677SOL     OW61927  12.519  12.903   7.628
86677SOL    HW161928  12.486  12.857   7.706
86677SOL    HW261929  12.576  12.840   7.586
86678SOL     OW61930  11.332   1.838  14.652
86678SOL    HW161931  11.374   1.923  14.665
86678SOL    HW261932  11.271   1.829  14.724
86679SOL     OW61933   4.998   7.844   2.234
86679SOL    HW161934   5.067   7.801   2.286
86679SOL    HW261935   4.938   7.773   2.211
86680SOL     OW61936  13.545   1.774   2.981
86680SOL    HW161937  13.466   1.829   2.979
86680SOL    HW261938  13.514   1.688   3.010
86681SOL     OW61939   3.483   1.490   0.225
86681SOL    HW161940   3.421   1.460   0.291
86681SOL    HW261941   3.504   1.412   0.174
86682SOL     OW61942  14.209  13.379  11.909
86682SOL    HW161943  14.244  13.294  11.937
86682SOL    HW261944  14.286  13.434  11.899
86683SOL     OW61945   4.877   7.412  14.164
86683SOL    HW161946   4.797   7.448  14.126
86683SOL    HW261947   4.947   7.467  14.129
86684SOL     OW61948   0.075   9.188   6.166
86684SOL    HW161949   0.161   9.155   6.139
86684SOL    HW261950   0.013   9.144   6.109
86685SOL     OW61951   1.700   0.970  11.912
86685SOL    HW161952   1.760   0.974  11.987
86685SOL    HW261953   1.712   0.881  11.877
86686SOL     OW61954   8.723   1.705   2.542
86686SOL    HW161955   8.637   1.725   2.506
86686SOL    HW261956   8.779   1.693   2.465
86687SOL     OW61957   2.290   6.275   6.040
86687SOL    HW161958   2.253   6.271   6.128
86687SOL    HW261959   2.253   6.198   5.996
86688SOL     OW61960   4.639  12.388  11.534
86688SOL    HW161961   4.682  12.382  11.619
86688SOL    HW261962   4.566  12.325  11.540
86689SOL     OW61963   6.060   7.002   1.291
86689SOL    HW161964   6.091   6.968   1.375
86689SOL    HW261965   6.122   7.071   1.268
86690SOL     OW61966   5.856   1.916  11.247
86690SOL    HW161967   5.769   1.926  11.285
86690SOL    HW261968   5.842   1.930  11.153
86691SOL     OW61969   7.398  11.930  11.424
86691SOL    HW161970   7.408  11.971  11.339
86691SOL    HW261971   7.359  11.845  11.406
86692SOL     OW61972   8.710   8.473   1.996
86692SOL    HW161973   8.739   8.418   1.923
86692SOL    HW261974   8.659   8.542   1.954
86693SOL     OW61975   4.163   9.291  11.207
86693SOL    HW161976   4.208   9.360  11.158
86693SOL    HW261977   4.201   9.210  11.173
86694SOL     OW61978   3.972   3.081  10.861
86694SOL    HW161979   4.048   3.138  10.847
86694SOL    HW261980   3.974   3.060  10.954
86695SOL     OW61981   5.872  13.900   8.054
86695SOL    HW161982   5.829  13.815   8.066
86695SOL    HW261983   5.961  13.878   8.026
86696SOL     OW61984   4.258   1.594  13.239
86696SOL    HW161985   4.303   1.673  13.270
86696SOL    HW261986   4.246   1.609  13.145
86697SOL     OW61987   3.514   3.301  14.094
86697SOL    HW161988   3.437   3.244  14.084
86697SOL    HW261989   3.483   3.388  14.072
86698SOL     OW61990   3.129   1.588  12.535
86698SOL    HW161991   3.205   1.626  12.578
86698SOL    HW261992   3.139   1.612  12.443
86699SOL     OW61993   3.882   6.192   0.448
86699SOL    HW161994   3.905   6.284   0.463
86699SOL    HW261995   3.796   6.183   0.489
86700SOL     OW61996   7.003   1.411   4.208
86700SOL    HW161997   6.985   1.329   4.161
86700SOL    HW261998   7.096   1.407   4.229
86701SOL     OW61999   5.509   7.295  10.806
86701SOL    HW162000   5.603   7.309  10.792
86701SOL    HW262001   5.467   7.368  10.760
86702SOL     OW62002  10.837   4.958   5.176
86702SOL    HW162003  10.779   4.924   5.108
86702SOL    HW262004  10.891   5.023   5.131
86703SOL     OW62005  11.270  12.821   1.882
86703SOL    HW162006  11.225  12.897   1.920
86703SOL    HW262007  11.316  12.856   1.806
86704SOL     OW62008   4.165   0.816   4.384
86704SOL    HW162009   4.109   0.769   4.446
86704SOL    HW262010   4.249   0.826   4.430
86705SOL     OW62011   4.854   3.993   6.623
86705SOL    HW162012   4.828   3.902   6.607
86705SOL    HW262013   4.886   3.994   6.713
86706SOL     OW62014   3.211   3.695   5.543
86706SOL    HW162015   3.257   3.673   5.624
86706SOL    HW262016   3.262   3.654   5.473
86707SOL     OW62017  13.093   3.337   8.915
86707SOL    HW162018  13.030   3.390   8.865
86707SOL    HW262019  13.113   3.389   8.992
86708SOL     OW62020   0.956  13.709   0.855
86708SOL    HW162021   0.969  13.775   0.924
86708SOL    HW262022   1.032  13.650   0.864
86709SOL     OW62023  13.447   5.589  14.530
86709SOL    HW162024  13.417   5.654  14.594
86709SOL    HW262025  13.376   5.524  14.528
86710SOL     OW62026   1.468   8.109  12.621
86710SOL    HW162027   1.459   8.088  12.529
86710SOL    HW262028   1.448   8.202  12.627
86711SOL     OW62029   5.991  11.736  10.595
86711SOL    HW162030   5.905  11.768  10.623
86711SOL    HW262031   6.016  11.793  10.523
86712SOL     OW62032  13.200   8.542  12.431
86712SOL    HW162033  13.180   8.605  12.362
86712SOL    HW262034  13.201   8.457  12.386
86713SOL     OW62035  14.234   9.690  11.142
86713SOL    HW162036  14.169   9.749  11.103
86713SOL    HW262037  14.243   9.720  11.232
86714SOL     OW62038   6.176   3.217  11.945
86714SOL    HW162039   6.171   3.140  11.888
86714SOL    HW262040   6.249   3.199  12.004
86715SOL     OW62041  13.203  13.230  12.933
86715SOL    HW162042  13.188  13.318  12.968
86715SOL    HW262043  13.181  13.237  12.840
86716SOL     OW62044  10.419   5.335  12.232
86716SOL    HW162045  10.351   5.401  12.220
86716SOL    HW262046  10.371   5.252  12.233
86717SOL     OW62047   5.144  10.761   8.911
86717SOL    HW162048   5.058  10.727   8.888
86717SOL    HW262049   5.203  10.686   8.904
86718SOL     OW62050   3.445  12.757   4.051
86718SOL    HW162051   3.421  12.665   4.045
86718SOL    HW262052   3.364  12.802   4.076
86719SOL     OW62053   4.356  13.649   5.581
86719SOL    HW162054   4.393  13.672   5.495
86719SOL    HW262055   4.332  13.557   5.573
86720SOL     OW62056  12.403  10.617   4.931
86720SOL    HW162057  12.379  10.581   5.016
86720SOL    HW262058  12.446  10.700   4.952
86721SOL     OW62059  12.034  14.410   3.364
86721SOL    HW162060  11.961  14.467   3.389
86721SOL    HW262061  12.104  14.434   3.425
86722SOL     OW62062  13.490   1.405   8.642
86722SOL    HW162063  13.495   1.385   8.549
86722SOL    HW262064  13.531   1.330   8.685
86723SOL     OW62065   3.364   4.024  10.536
86723SOL    HW162066   3.394   4.080  10.464
86723SOL    HW262067   3.431   3.956  10.543
86724SOL     OW62068   0.378   6.610   5.372
86724SOL    HW162069   0.382   6.520   5.405
86724SOL    HW262070   0.285   6.632   5.370
86725SOL     OW62071   6.189  13.722  11.387
86725SOL    HW162072   6.159  13.645  11.434
86725SOL    HW262073   6.156  13.796  11.437
86726SOL     OW62074   4.089  10.515   5.745
86726SOL    HW162075   4.011  10.483   5.701
86726SOL    HW262076   4.159  10.455   5.716
86727SOL     OW62077   0.086   0.195   0.258
86727SOL    HW162078   0.040   0.157   0.333
86727SOL    HW262079   0.025   0.187   0.185
86728SOL     OW62080  13.834   7.077  12.312
86728SOL    HW162081  13.749   7.053  12.349
86728SOL    HW262082  13.812   7.136  12.240
86729SOL     OW62083   0.091   1.422   9.118
86729SOL    HW162084   0.089   1.357   9.188
86729SOL    HW262085   0.064   1.503   9.160
86730SOL     OW62086   0.485  12.814  10.684
86730SOL    HW162087   0.403  12.837  10.641
86730SOL    HW262088   0.553  12.854  10.629
86731SOL     OW62089   1.464   8.186   4.379
86731SOL    HW162090   1.555   8.190   4.349
86731SOL    HW262091   1.461   8.110   4.437
86732SOL     OW62092   3.461  10.533   5.123
86732SOL    HW162093   3.534  10.559   5.067
86732SOL    HW262094   3.399  10.490   5.064
86733SOL     OW62095   5.125   9.284   4.546
86733SOL    HW162096   5.042   9.254   4.509
86733SOL    HW262097   5.106   9.299   4.638
86734SOL     OW62098   1.590   9.922   9.904
86734SOL    HW162099   1.602   9.990   9.838
86734SOL    HW262100   1.603   9.966   9.988
86735SOL     OW62101   7.425   2.670   0.723
86735SOL    HW162102   7.334   2.675   0.696
86735SOL    HW262103   7.429   2.721   0.804
86736SOL     OW62104   3.207   7.548  12.526
86736SOL    HW162105   3.188   7.638  12.500
86736SOL    HW262106   3.275   7.519  12.465
86737SOL     OW62107  14.233   0.012   9.455
86737SOL    HW162108  14.205  14.824   9.392
86737SOL    HW262109  14.250   0.090   9.402
86738SOL     OW62110   0.476  11.388  14.099
86738SOL    HW162111   0.496  11.350  14.185
86738SOL    HW262112   0.498  11.480  14.109
86739SOL     OW62113   5.405  11.745   8.197
86739SOL    HW162114   5.349  11.752   8.119
86739SOL    HW262115   5.370  11.670   8.245
86740SOL     OW62116   5.797   3.383   5.374
86740SOL    HW162117   5.807   3.337   5.290
86740SOL    HW262118   5.811   3.475   5.353
86741SOL     OW62119   5.527  11.950   4.348
86741SOL    HW162120   5.452  11.987   4.394
86741SOL    HW262121   5.561  12.022   4.295
86742SOL     OW62122   4.214  11.296   9.786
86742SOL    HW162123   4.148  11.359   9.759
86742SOL    HW262124   4.165  11.219   9.813
86743SOL     OW62125   8.415  14.517   3.086
86743SOL    HW162126   8.465  14.528   3.167
86743SOL    HW262127   8.454  14.579   3.025
86744SOL     OW62128   1.167  10.294   7.145
86744SOL    HW162129   1.190  10.284   7.053
86744SOL    HW262130   1.075  10.321   7.145
86745SOL     OW62131  12.785   5.893   8.131
86745SOL    HW162132  12.781   5.797   8.134
86745SOL    HW262133  12.779   5.914   8.037
86746SOL     OW62134  13.755   1.286  10.207
86746SOL    HW162135  13.824   1.241  10.255
86746SOL    HW262136  13.686   1.300  10.272
86747SOL     OW62137   0.181   2.022   6.173
86747SOL    HW162138   0.156   2.106   6.213
86747SOL    HW262139   0.103   1.993   6.127
86748SOL     OW62140   8.242   1.098   0.745
86748SOL    HW162141   8.148   1.083   0.738
86748SOL    HW262142   8.265   1.146   0.666
86749SOL     OW62143  12.158  11.077   2.355
86749SOL    HW162144  12.092  11.015   2.387
86749SOL    HW262145  12.146  11.077   2.260
86750SOL     OW62146   0.504   6.300   1.588
86750SOL    HW162147   0.444   6.228   1.567
86750SOL    HW262148   0.520   6.291   1.682
86751SOL     OW62149  11.666   7.408   2.402
86751SOL    HW162150  11.589   7.443   2.446
86751SOL    HW262151  11.732   7.402   2.471
86752SOL     OW62152  10.266   0.820   7.223
86752SOL    HW162153  10.207   0.813   7.298
86752SOL    HW262154  10.353   0.828   7.261
86753SOL     OW62155   4.842  13.059   9.324
86753SOL    HW162156   4.902  13.088   9.255
86753SOL    HW262157   4.889  13.077   9.406
86754SOL     OW62158   4.682  12.626  14.225
86754SOL    HW162159   4.701  12.533  14.211
86754SOL    HW262160   4.588  12.634  14.205
86755SOL     OW62161   2.014   5.124   6.551
86755SOL    HW162162   2.094   5.177   6.559
86755SOL    HW262163   1.994   5.097   6.641
86756SOL     OW62164   4.312  13.178  10.110
86756SOL    HW162165   4.323  13.268  10.138
86756SOL    HW262166   4.374  13.128  10.163
86757SOL     OW62167   9.911  13.385   3.774
86757SOL    HW162168   9.995  13.428   3.790
86757SOL    HW262169   9.919  13.348   3.686
86758SOL     OW62170   6.861   1.540   2.397
86758SOL    HW162171   6.914   1.618   2.413
86758SOL    HW262172   6.817   1.523   2.481
86759SOL     OW62173   8.235  12.298   9.955
86759SOL    HW162174   8.261  12.322   9.866
86759SOL    HW262175   8.241  12.202   9.956
86760SOL     OW62176   4.731   9.476   3.179
86760SOL    HW162177   4.823   9.473   3.205
86760SOL    HW262178   4.733   9.499   3.086
86761SOL     OW62179   1.075  13.754   2.291
86761SOL    HW162180   0.989  13.732   2.255
86761SOL    HW262181   1.133  13.755   2.214
86762SOL     OW62182   9.351   2.644   1.821
86762SOL    HW162183   9.362   2.552   1.795
86762SOL    HW262184   9.262   2.666   1.795
86763SOL     OW62185   9.107  12.558  11.594
86763SOL    HW162186   9.189  12.532  11.637
86763SOL    HW262187   9.044  12.491  11.621
86764SOL     OW62188  10.942   9.017  14.872
86764SOL    HW162189  10.940   8.961  14.795
86764SOL    HW262190  10.952   9.106  14.837
86765SOL     OW62191  13.033  12.231  10.023
86765SOL    HW162192  12.999  12.144  10.005
86765SOL    HW262193  13.027  12.277   9.939
86766SOL     OW62194   4.766   9.543   2.887
86766SOL    HW162195   4.749   9.508   2.799
86766SOL    HW262196   4.824   9.618   2.872
86767SOL     OW62197   8.874   6.321   2.820
86767SOL    HW162198   8.872   6.264   2.743
86767SOL    HW262199   8.959   6.304   2.861
86768SOL     OW62200   4.107   1.419  10.231
86768SOL    HW162201   4.019   1.431  10.194
86768SOL    HW262202   4.161   1.482  10.184
86769SOL     OW62203   2.338   3.171   1.428
86769SOL    HW162204   2.416   3.224   1.411
86769SOL    HW262205   2.284   3.181   1.350
86770SOL     OW62206   7.057   5.967   7.981
86770SOL    HW162207   7.010   6.021   8.044
86770SOL    HW262208   7.141   5.948   8.024
86771SOL     OW62209   4.445  11.268  10.494
86771SOL    HW162210   4.371  11.322  10.467
86771SOL    HW262211   4.471  11.222  10.415
86772SOL     OW62212   9.582   8.037  13.584
86772SOL    HW162213   9.543   8.124  13.584
86772SOL    HW262214   9.512   7.978  13.556
86773SOL     OW62215   8.187   6.717  13.818
86773SOL    HW162216   8.209   6.805  13.850
86773SOL    HW262217   8.091   6.712  13.828
86774SOL     OW62218   6.547   2.835   2.102
86774SOL    HW162219   6.453   2.825   2.115
86774SOL    HW262220   6.555   2.860   2.010
86775SOL     OW62221   2.320   6.385   3.622
86775SOL    HW162222   2.258   6.315   3.642
86775SOL    HW262223   2.291   6.459   3.675
86776SOL     OW62224   2.573   5.343   6.330
86776SOL    HW162225   2.658   5.349   6.285
86776SOL    HW262226   2.586   5.274   6.395
86777SOL     OW62227   4.199   9.076   0.658
86777SOL    HW162228   4.209   9.151   0.716
86777SOL    HW262229   4.225   9.001   0.711
86778SOL     OW62230  12.990  10.476   1.671
86778SOL    HW162231  12.966  10.392   1.711
86778SOL    HW262232  12.971  10.541   1.739
86779SOL     OW62233   7.641   8.866   0.572
86779SOL    HW162234   7.555   8.845   0.607
86779SOL    HW262235   7.636   8.842   0.479
86780SOL     OW62236   4.430  11.609   7.194
86780SOL    HW162237   4.442  11.665   7.117
86780SOL    HW262238   4.439  11.520   7.159
86781SOL     OW62239   3.795   6.429   2.317
86781SOL    HW162240   3.784   6.426   2.222
86781SOL    HW262241   3.886   6.403   2.331
86782SOL     OW62242  11.090   2.202  13.333
86782SOL    HW162243  11.082   2.189  13.427
86782SOL    HW262244  11.047   2.125  13.295
86783SOL     OW62245   0.930   7.665   3.103
86783SOL    HW162246   0.979   7.664   3.186
86783SOL    HW262247   0.957   7.585   3.059
86784SOL     OW62248   8.391   3.601   4.388
86784SOL    HW162249   8.446   3.581   4.464
86784SOL    HW262250   8.306   3.625   4.425
86785SOL     OW62251   9.639  14.514   3.566
86785SOL    HW162252   9.598  14.440   3.521
86785SOL    HW262253   9.574  14.584   3.559
86786SOL     OW62254  10.544   3.649   9.366
86786SOL    HW162255  10.538   3.605   9.451
86786SOL    HW262256  10.584   3.734   9.386
86787SOL     OW62257   1.976   6.135   4.646
86787SOL    HW162258   2.049   6.098   4.695
86787SOL    HW262259   1.913   6.162   4.713
86788SOL     OW62260   7.502   1.497  10.816
86788SOL    HW162261   7.425   1.541  10.853
86788SOL    HW262262   7.529   1.552  10.743
86789SOL     OW62263  12.486   7.756   2.206
86789SOL    HW162264  12.471   7.811   2.283
86789SOL    HW262265  12.444   7.673   2.226
86790SOL     OW62266   1.196   5.750   8.211
86790SOL    HW162267   1.126   5.789   8.264
86790SOL    HW262268   1.154   5.679   8.163
86791SOL     OW62269  12.234   2.536   1.567
86791SOL    HW162270  12.304   2.502   1.511
86791SOL    HW262271  12.164   2.471   1.560
86792SOL     OW62272  11.270  13.669  10.033
86792SOL    HW162273  11.352  13.709  10.062
86792SOL    HW262274  11.241  13.616  10.107
86793SOL     OW62275  11.916   6.786   1.755
86793SOL    HW162276  11.877   6.795   1.841
86793SOL    HW262277  11.936   6.693   1.747
86794SOL     OW62278   4.693   1.509   0.385
86794SOL    HW162279   4.719   1.504   0.293
86794SOL    HW262280   4.732   1.591   0.416
86795SOL     OW62281   4.466   7.146   7.932
86795SOL    HW162282   4.494   7.106   7.850
86795SOL    HW262283   4.515   7.227   7.938
86796SOL     OW62284   4.453  13.307  10.457
86796SOL    HW162285   4.392  13.234  10.474
86796SOL    HW262286   4.431  13.337  10.369
86797SOL     OW62287   6.083  11.189   5.795
86797SOL    HW162288   6.130  11.109   5.772
86797SOL    HW262289   6.050  11.223   5.712
86798SOL     OW62290  14.618  11.126  12.284
86798SOL    HW162291  14.690  11.190  12.285
86798SOL    HW262292  14.636  11.070  12.360
86799SOL     OW62293   1.445   3.973  10.271
86799SOL    HW162294   1.364   3.941  10.310
86799SOL    HW262295   1.472   4.045  10.329
86800SOL     OW62296   9.110   9.050  11.762
86800SOL    HW162297   9.084   9.137  11.731
86800SOL    HW262298   9.041   9.025  11.824
86801SOL     OW62299   6.473   4.957  10.533
86801SOL    HW162300   6.421   5.010  10.594
86801SOL    HW262301   6.544   5.015  10.505
86802SOL     OW62302  13.490   1.433   6.739
86802SOL    HW162303  13.572   1.390   6.761
86802SOL    HW262304  13.424   1.393   6.796
86803SOL     OW62305   5.663   2.031  13.608
86803SOL    HW162306   5.664   2.121  13.642
86803SOL    HW262307   5.579   2.025  13.562
86804SOL     OW62308  10.906   8.838   1.916
86804SOL    HW162309  10.969   8.798   1.856
86804SOL    HW262310  10.834   8.775   1.921
86805SOL     OW62311   1.203   7.988  10.937
86805SOL    HW162312   1.235   7.909  10.893
86805SOL    HW262313   1.235   7.979  11.027
86806SOL     OW62314  13.258  11.829   6.797
86806SOL    HW162315  13.311  11.811   6.875
86806SOL    HW262316  13.322  11.834   6.726
86807SOL     OW62317  12.060  13.432   4.211
86807SOL    HW162318  12.029  13.341   4.210
86807SOL    HW262319  12.133  13.432   4.274
86808SOL     OW62320   9.524   5.661   1.660
86808SOL    HW162321   9.604   5.703   1.629
86808SOL    HW262322   9.478   5.730   1.708
86809SOL     OW62323   1.445   5.992   7.920
86809SOL    HW162324   1.356   5.981   7.886
86809SOL    HW262325   1.441   5.957   8.009
86810SOL     OW62326   0.662   1.338   0.646
86810SOL    HW162327   0.664   1.433   0.657
86810SOL    HW262328   0.754   1.312   0.650
86811SOL     OW62329   4.273  14.473   8.994
86811SOL    HW162330   4.357  14.448   9.033
86811SOL    HW262331   4.226  14.517   9.064
86812SOL     OW62332   8.052  14.229  11.316
86812SOL    HW162333   8.012  14.291  11.377
86812SOL    HW262334   8.028  14.143  11.351
86813SOL     OW62335   4.475  11.346   9.955
86813SOL    HW162336   4.393  11.298   9.940
86813SOL    HW262337   4.543  11.288   9.922
86814SOL     OW62338   4.318   0.063  13.975
86814SOL    HW162339   4.344  14.875  13.910
86814SOL    HW262340   4.321   0.146  13.928
86815SOL     OW62341   0.565   1.563   1.192
86815SOL    HW162342   0.581   1.549   1.286
86815SOL    HW262343   0.649   1.547   1.151
86816SOL     OW62344  12.273   6.293   1.339
86816SOL    HW162345  12.346   6.251   1.385
86816SOL    HW262346  12.216   6.220   1.314
86817SOL     OW62347  11.905   3.994   4.860
86817SOL    HW162348  11.932   4.077   4.900
86817SOL    HW262349  11.981   3.967   4.808
86818SOL     OW62350   8.516   9.754  11.430
86818SOL    HW162351   8.450   9.801  11.379
86818SOL    HW262352   8.466   9.712  11.500
86819SOL     OW62353   9.424  10.743  13.466
86819SOL    HW162354   9.478  10.666  13.482
86819SOL    HW262355   9.351  10.710  13.413
86820SOL     OW62356   8.538   7.765  12.799
86820SOL    HW162357   8.516   7.727  12.715
86820SOL    HW262358   8.608   7.708  12.834
86821SOL     OW62359   5.763  14.872   4.820
86821SOL    HW162360   5.816   0.020   4.895
86821SOL    HW262361   5.688  14.826   4.857
86822SOL     OW62362   5.474   7.213   8.889
86822SOL    HW162363   5.392   7.162   8.885
86822SOL    HW262364   5.512   7.203   8.802
86823SOL     OW62365   3.166  11.311   9.601
86823SOL    HW162366   3.084  11.357   9.620
86823SOL    HW262367   3.196  11.349   9.519
86824SOL     OW62368  10.998   5.560  11.966
86824SOL    HW162369  11.015   5.471  11.996
86824SOL    HW262370  10.911   5.581  12.001
86825SOL     OW62371  11.263   0.505  12.453
86825SOL    HW162372  11.271   0.418  12.492
86825SOL    HW262373  11.333   0.509  12.388
86826SOL     OW62374   3.612  11.806   8.059
86826SOL    HW162375   3.690  11.859   8.044
86826SOL    HW262376   3.539  11.866   8.047
86827SOL     OW62377  13.981  11.897   0.617
86827SOL    HW162378  13.893  11.934   0.613
86827SOL    HW262379  14.009  11.891   0.526
86828SOL     OW62380   8.056   9.916   4.035
86828SOL    HW162381   7.962   9.929   4.024
86828SOL    HW262382   8.079   9.847   3.972
86829SOL     OW62383   4.354  13.416   1.531
86829SOL    HW162384   4.317  13.418   1.619
86829SOL    HW262385   4.286  13.374   1.477
86830SOL     OW62386  13.053  13.393  11.098
86830SOL    HW162387  13.042  13.460  11.030
86830SOL    HW262388  13.003  13.426  11.173
86831SOL     OW62389  10.944  14.131   6.059
86831SOL    HW162390  11.028  14.107   6.099
86831SOL    HW262391  10.911  14.050   6.021
86832SOL     OW62392   3.734   3.638   3.104
86832SOL    HW162393   3.807   3.584   3.074
86832SOL    HW262394   3.724   3.616   3.196
86833SOL     OW62395   5.867   3.416   8.163
86833SOL    HW162396   5.871   3.400   8.069
86833SOL    HW262397   5.957   3.439   8.187
86834SOL     OW62398  11.640   9.595   8.549
86834SOL    HW162399  11.687   9.645   8.617
86834SOL    HW262400  11.564   9.649   8.528
86835SOL     OW62401   4.194   4.901  14.331
86835SOL    HW162402   4.269   4.938  14.378
86835SOL    HW262403   4.127   4.970  14.334
86836SOL     OW62404   5.464   5.704   5.149
86836SOL    HW162405   5.380   5.676   5.113
86836SOL    HW262406   5.443   5.783   5.199
86837SOL     OW62407   9.450   4.547   8.143
86837SOL    HW162408   9.518   4.612   8.158
86837SOL    HW262409   9.497   4.473   8.103
86838SOL     OW62410  11.626   5.584   9.825
86838SOL    HW162411  11.721   5.592   9.820
86838SOL    HW262412  11.604   5.518   9.760
86839SOL     OW62413   5.277   8.135   3.849
86839SOL    HW162414   5.362   8.127   3.805
86839SOL    HW262415   5.246   8.045   3.857
86840SOL     OW62416  11.991   9.853   0.183
86840SOL    HW162417  11.942   9.810   0.253
86840SOL    HW262418  11.926   9.905   0.136
86841SOL     OW62419  12.656   5.466   4.912
86841SOL    HW162420  12.703   5.540   4.873
86841SOL    HW262421  12.613   5.423   4.838
86842SOL     OW62422   9.194  10.449   6.024
86842SOL    HW162423   9.118  10.506   6.015
86842SOL    HW262424   9.180  10.402   6.106
86843SOL     OW62425   0.220   6.234   4.940
86843SOL    HW162426   0.132   6.227   4.977
86843SOL    HW262427   0.231   6.154   4.889
86844SOL     OW62428   2.705   0.325   8.007
86844SOL    HW162429   2.796   0.342   8.029
86844SOL    HW262430   2.677   0.402   7.958
86845SOL     OW62431   6.965   6.896  11.268
86845SOL    HW162432   7.022   6.833  11.313
86845SOL    HW262433   6.888   6.904  11.325
86846SOL     OW62434  11.492  11.605   2.260
86846SOL    HW162435  11.417  11.567   2.214
86846SOL    HW262436  11.462  11.693   2.285
86847SOL     OW62437   6.293  13.151   7.303
86847SOL    HW162438   6.299  13.237   7.261
86847SOL    HW262439   6.212  13.113   7.268
86848SOL     OW62440   8.435   5.162   8.572
86848SOL    HW162441   8.375   5.227   8.609
86848SOL    HW262442   8.519   5.207   8.567
86849SOL     OW62443   2.369   6.808   9.418
86849SOL    HW162444   2.409   6.737   9.369
86849SOL    HW262445   2.283   6.819   9.379
86850SOL     OW62446   6.277   7.069   9.907
86850SOL    HW162447   6.312   6.980   9.899
86850SOL    HW262448   6.335   7.110   9.971
86851SOL     OW62449   2.699  11.145  13.960
86851SOL    HW162450   2.736  11.069  14.004
86851SOL    HW262451   2.722  11.134  13.868
86852SOL     OW62452   2.971   2.178   9.144
86852SOL    HW162453   3.053   2.227   9.151
86852SOL    HW262454   2.907   2.242   9.111
86853SOL     OW62455  13.981  12.390  12.451
86853SOL    HW162456  13.937  12.313  12.415
86853SOL    HW262457  13.916  12.460  12.447
86854SOL     OW62458  12.294  12.033   0.581
86854SOL    HW162459  12.325  12.061   0.495
86854SOL    HW262460  12.347  11.955   0.601
86855SOL     OW62461   6.376   9.624   9.025
86855SOL    HW162462   6.347   9.560   8.960
86855SOL    HW262463   6.346   9.589   9.109
86856SOL     OW62464  13.047   2.875  10.361
86856SOL    HW162465  13.048   2.784  10.390
86856SOL    HW262466  12.958   2.891  10.332
86857SOL     OW62467   3.337   9.741   3.410
86857SOL    HW162468   3.259   9.725   3.462
86857SOL    HW262469   3.305   9.773   3.326
86858SOL     OW62470   0.291   5.431   6.178
86858SOL    HW162471   0.305   5.432   6.273
86858SOL    HW262472   0.379   5.421   6.141
86859SOL     OW62473   0.435  12.580   4.301
86859SOL    HW162474   0.492  12.631   4.359
86859SOL    HW262475   0.347  12.599   4.331
86860SOL     OW62476  10.705  10.544   1.748
86860SOL    HW162477  10.651  10.517   1.822
86860SOL    HW262478  10.657  10.617   1.708
86861SOL     OW62479   0.939  11.245  12.585
86861SOL    HW162480   0.856  11.199  12.581
86861SOL    HW262481   1.003  11.176  12.604
86862SOL     OW62482   5.852  11.758   7.290
86862SOL    HW162483   5.917  11.752   7.220
86862SOL    HW262484   5.896  11.722   7.367
86863SOL     OW62485   0.547   3.785   0.109
86863SOL    HW162486   0.516   3.695   0.117
86863SOL    HW262487   0.476   3.830   0.063
86864SOL     OW62488  13.330  10.008  14.229
86864SOL    HW162489  13.325  10.093  14.185
86864SOL    HW262490  13.417   9.975  14.206
86865SOL     OW62491  13.812   0.137   5.735
86865SOL    HW162492  13.742   0.113   5.795
86865SOL    HW262493  13.821   0.232   5.745
86866SOL     OW62494   7.155   6.984  13.055
86866SOL    HW162495   7.110   6.904  13.027
86866SOL    HW262496   7.086   7.050  13.061
86867SOL     OW62497   4.836   9.575   1.255
86867SOL    HW162498   4.858   9.491   1.216
86867SOL    HW262499   4.916   9.603   1.300
86868SOL     OW62500   8.820  14.799   0.620
86868SOL    HW162501   8.830  14.706   0.641
86868SOL    HW262502   8.795  14.800   0.528
86869SOL     OW62503  13.268   8.455   4.725
86869SOL    HW162504  13.237   8.503   4.801
86869SOL    HW262505  13.189   8.431   4.677
86870SOL     OW62506   5.480  13.422  10.807
86870SOL    HW162507   5.494  13.439  10.900
86870SOL    HW262508   5.568  13.423  10.769
86871SOL     OW62509   3.257   5.726   4.130
86871SOL    HW162510   3.199   5.723   4.053
86871SOL    HW262511   3.268   5.634   4.154
86872SOL     OW62512   5.445   3.674   9.061
86872SOL    HW162513   5.414   3.592   9.098
86872SOL    HW262514   5.541   3.669   9.067
86873SOL     OW62515   5.619   0.972   5.970
86873SOL    HW162516   5.541   0.937   5.927
86873SOL    HW262517   5.632   0.915   6.047
86874SOL     OW62518   7.422   1.039   5.137
86874SOL    HW162519   7.394   1.120   5.178
86874SOL    HW262520   7.371   1.033   5.057
86875SOL     OW62521  13.608   4.230  10.243
86875SOL    HW162522  13.562   4.202  10.164
86875SOL    HW262523  13.548   4.208  10.315
86876SOL     OW62524   0.169   5.708   9.122
86876SOL    HW162525   0.101   5.775   9.120
86876SOL    HW262526   0.176   5.685   9.215
86877SOL     OW62527   8.111   5.257  10.737
86877SOL    HW162528   8.066   5.242  10.654
86877SOL    HW262529   8.100   5.175  10.786
86878SOL     OW62530   8.674  12.561  14.593
86878SOL    HW162531   8.720  12.480  14.617
86878SOL    HW262532   8.609  12.573  14.662
86879SOL     OW62533   4.680   7.826   7.476
86879SOL    HW162534   4.676   7.780   7.559
86879SOL    HW262535   4.746   7.895   7.489
86880SOL     OW62536   1.952   5.509   4.778
86880SOL    HW162537   1.877   5.553   4.818
86880SOL    HW262538   1.973   5.562   4.701
86881SOL     OW62539   1.623   0.622  10.815
86881SOL    HW162540   1.567   0.580  10.880
86881SOL    HW262541   1.710   0.585  10.830
86882SOL     OW62542  12.127   4.934  13.736
86882SOL    HW162543  12.113   5.013  13.787
86882SOL    HW262544  12.220   4.938  13.710
86883SOL     OW62545   0.303   5.606  11.961
86883SOL    HW162546   0.337   5.543  11.897
86883SOL    HW262547   0.285   5.685  11.909
86884SOL     OW62548   3.357  13.814  14.240
86884SOL    HW162549   3.387  13.726  14.217
86884SOL    HW262550   3.301  13.840  14.166
86885SOL     OW62551   9.425   4.014   1.283
86885SOL    HW162552   9.351   4.067   1.311
86885SOL    HW262553   9.445   4.046   1.195
86886SOL     OW62554   3.797   2.420   4.147
86886SOL    HW162555   3.870   2.364   4.119
86886SOL    HW262556   3.743   2.362   4.202
86887SOL     OW62557   3.793   4.946   1.384
86887SOL    HW162558   3.865   5.000   1.417
86887SOL    HW262559   3.821   4.856   1.400
86888SOL     OW62560  10.038   2.379  10.866
86888SOL    HW162561  10.123   2.337  10.877
86888SOL    HW262562  10.024   2.428  10.947
86889SOL     OW62563   6.571  11.833  11.396
86889SOL    HW162564   6.530  11.900  11.341
86889SOL    HW262565   6.642  11.799  11.343
86890SOL     OW62566   4.193   2.952   9.146
86890SOL    HW162567   4.166   2.980   9.058
86890SOL    HW262568   4.266   3.009   9.169
86891SOL     OW62569  11.170   6.614   0.380
86891SOL    HW162570  11.201   6.568   0.458
86891SOL    HW262571  11.077   6.591   0.375
86892SOL     OW62572   2.466   9.724   4.504
86892SOL    HW162573   2.463   9.817   4.485
86892SOL    HW262574   2.511   9.718   4.589
86893SOL     OW62575   5.763   4.584  10.354
86893SOL    HW162576   5.743   4.563  10.263
86893SOL    HW262577   5.828   4.654  10.350
86894SOL     OW62578   9.052   0.345  13.377
86894SOL    HW162579   9.077   0.322  13.466
86894SOL    HW262580   8.977   0.289  13.357
86895SOL     OW62581   9.542   8.989   2.568
86895SOL    HW162582   9.609   9.002   2.635
86895SOL    HW262583   9.491   9.070   2.570
86896SOL     OW62584   2.076   1.142   0.045
86896SOL    HW162585   2.068   1.069   0.106
86896SOL    HW262586   2.171   1.159   0.041
86897SOL     OW62587  13.485   6.556  11.093
86897SOL    HW162588  13.455   6.479  11.044
86897SOL    HW262589  13.544   6.520  11.159
86898SOL     OW62590   7.790   3.059   6.055
86898SOL    HW162591   7.737   3.023   6.125
86898SOL    HW262592   7.876   3.073   6.094
86899SOL     OW62593   3.718  14.817   8.161
86899SOL    HW162594   3.697   0.015   8.106
86899SOL    HW262595   3.661  14.826   8.237
86900SOL     OW62596  12.855   4.418  13.716
86900SOL    HW162597  12.827   4.361  13.645
86900SOL    HW262598  12.853   4.362  13.794
86901SOL     OW62599  13.323   4.366   7.814
86901SOL    HW162600  13.233   4.397   7.802
86901SOL    HW262601  13.326   4.284   7.765
86902SOL     OW62602  14.687   9.840   6.502
86902SOL    HW162603  14.615   9.811   6.558
86902SOL    HW262604  14.644   9.876   6.424
86903SOL     OW62605   3.982   9.970   4.480
86903SOL    HW162606   4.062   9.943   4.436
86903SOL    HW262607   4.011  10.004   4.565
86904SOL     OW62608   1.385   4.083   1.224
86904SOL    HW162609   1.349   4.061   1.138
86904SOL    HW262610   1.462   4.137   1.204
86905SOL     OW62611   4.049   5.870   3.561
86905SOL    HW162612   4.136   5.907   3.545
86905SOL    HW262613   3.992   5.947   3.565
86906SOL     OW62614   2.515   4.428  12.156
86906SOL    HW162615   2.444   4.374  12.190
86906SOL    HW262616   2.506   4.423  12.061
86907SOL     OW62617   4.266   6.967   5.225
86907SOL    HW162618   4.282   7.057   5.250
86907SOL    HW262619   4.256   6.920   5.308
86908SOL     OW62620   0.197   2.348  14.061
86908SOL    HW162621   0.252   2.305  14.126
86908SOL    HW262622   0.258   2.404  14.012
86909SOL     OW62623   4.356   4.470   6.558
86909SOL    HW162624   4.279   4.469   6.615
86909SOL    HW262625   4.362   4.561   6.529
86910SOL     OW62626   3.074  13.589  11.862
86910SOL    HW162627   3.084  13.515  11.921
86910SOL    HW262628   3.071  13.666  11.919
86911SOL     OW62629   3.975  11.984   4.355
86911SOL    HW162630   3.915  11.946   4.419
86911SOL    HW262631   4.031  12.042   4.406
86912SOL     OW62632  13.984   5.862   2.621
86912SOL    HW162633  13.947   5.876   2.534
86912SOL    HW262634  13.914   5.887   2.681
86913SOL     OW62635   2.406   2.539  12.049
86913SOL    HW162636   2.371   2.521  12.136
86913SOL    HW262637   2.482   2.595  12.064
86914SOL     OW62638   8.199  13.308   3.480
86914SOL    HW162639   8.162  13.388   3.443
86914SOL    HW262640   8.162  13.304   3.569
86915SOL     OW62641   5.351   5.223   8.750
86915SOL    HW162642   5.271   5.179   8.722
86915SOL    HW262643   5.391   5.255   8.669
86916SOL     OW62644   0.484  10.747   1.890
86916SOL    HW162645   0.419  10.809   1.923
86916SOL    HW262646   0.568  10.792   1.905
86917SOL     OW62647   9.322   3.422   6.258
86917SOL    HW162648   9.277   3.433   6.341
86917SOL    HW262649   9.385   3.494   6.255
86918SOL     OW62650   3.819   8.658   0.165
86918SOL    HW162651   3.887   8.672   0.099
86918SOL    HW262652   3.745   8.624   0.116
86919SOL     OW62653  11.169   0.821   6.924
86919SOL    HW162654  11.243   0.824   6.984
86919SOL    HW262655  11.189   0.749   6.864
86920SOL     OW62656   6.677  11.138  13.269
86920SOL    HW162657   6.584  11.152  13.289
86920SOL    HW262658   6.681  11.048  13.238
86921SOL     OW62659   0.297   1.903   6.816
86921SOL    HW162660   0.258   1.957   6.884
86921SOL    HW262661   0.275   1.947   6.734
86922SOL     OW62662   4.524   2.685   6.949
86922SOL    HW162663   4.573   2.766   6.935
86922SOL    HW262664   4.590   2.618   6.959
86923SOL     OW62665   4.531  10.371   2.167
86923SOL    HW162666   4.585  10.298   2.136
86923SOL    HW262667   4.489  10.406   2.088
86924SOL     OW62668   3.109   0.276  12.739
86924SOL    HW162669   3.201   0.262  12.762
86924SOL    HW262670   3.099   0.372  12.741
86925SOL     OW62671   0.759  13.453   0.376
86925SOL    HW162672   0.801  13.508   0.443
86925SOL    HW262673   0.681  13.502   0.351
86926SOL     OW62674   5.360   3.415  14.776
86926SOL    HW162675   5.426   3.484  14.780
86926SOL    HW262676   5.394   3.346  14.834
86927SOL     OW62677   9.426  12.580   8.885
86927SOL    HW162678   9.333  12.567   8.906
86927SOL    HW262679   9.426  12.614   8.796
86928SOL     OW62680   8.470  13.530   3.425
86928SOL    HW162681   8.487  13.448   3.380
86928SOL    HW262682   8.556  13.560   3.455
86929SOL     OW62683  13.123  11.571  13.202
86929SOL    HW162684  13.114  11.505  13.271
86929SOL    HW262685  13.142  11.521  13.123
86930SOL     OW62686  14.334  14.716   5.971
86930SOL    HW162687  14.312  14.698   6.062
86930SOL    HW262688  14.277  14.789   5.947
86931SOL     OW62689   8.118   7.821   7.246
86931SOL    HW162690   8.181   7.807   7.317
86931SOL    HW262691   8.118   7.738   7.198
86932SOL     OW62692   4.901   8.541   2.858
86932SOL    HW162693   4.930   8.619   2.906
86932SOL    HW262694   4.921   8.468   2.917
86933SOL     OW62695  13.027   5.574  10.758
86933SOL    HW162696  12.986   5.547  10.676
86933SOL    HW262697  12.958   5.563  10.824
86934SOL     OW62698  10.290   0.438  11.486
86934SOL    HW162699  10.350   0.388  11.430
86934SOL    HW262700  10.210   0.386  11.487
86935SOL     OW62701  10.258   0.932   9.597
86935SOL    HW162702  10.296   0.974   9.520
86935SOL    HW262703  10.295   0.980   9.671
86936SOL     OW62704   5.934   2.971  13.569
86936SOL    HW162705   5.899   2.891  13.610
86936SOL    HW262706   5.994   2.939  13.502
86937SOL     OW62707   7.216  12.764  12.860
86937SOL    HW162708   7.268  12.716  12.926
86937SOL    HW262709   7.183  12.840  12.908
86938SOL     OW62710   5.225   5.073   7.848
86938SOL    HW162711   5.237   5.000   7.788
86938SOL    HW262712   5.311   5.115   7.851
86939SOL     OW62713  12.706   2.919   3.745
86939SOL    HW162714  12.622   2.958   3.770
86939SOL    HW262715  12.771   2.968   3.796
86940SOL     OW62716  12.631   9.057  13.183
86940SOL    HW162717  12.722   9.045  13.210
86940SOL    HW262718  12.616   9.152  13.188
86941SOL     OW62719   3.312   3.348   1.402
86941SOL    HW162720   3.287   3.265   1.362
86941SOL    HW262721   3.246   3.361   1.471
86942SOL     OW62722  12.294   7.084   9.536
86942SOL    HW162723  12.326   7.013   9.592
86942SOL    HW262724  12.200   7.070   9.530
86943SOL     OW62725   9.221   6.500   9.137
86943SOL    HW162726   9.287   6.539   9.195
86943SOL    HW262727   9.190   6.423   9.184
86944SOL     OW62728  13.653   4.807  14.362
86944SOL    HW162729  13.742   4.778  14.344
86944SOL    HW262730  13.635   4.777  14.451
86945SOL     OW62731   3.623   6.517   4.386
86945SOL    HW162732   3.698   6.475   4.342
86945SOL    HW262733   3.556   6.522   4.318
86946SOL     OW62734  12.896   8.514  13.095
86946SOL    HW162735  12.932   8.588  13.045
86946SOL    HW262736  12.947   8.438  13.066
86947SOL     OW62737  10.990   4.254  11.334
86947SOL    HW162738  11.017   4.198  11.406
86947SOL    HW262739  10.895   4.242  11.329
86948SOL     OW62740   9.230  12.708   8.336
86948SOL    HW162741   9.201  12.629   8.290
86948SOL    HW262742   9.161  12.724   8.401
86949SOL     OW62743   4.544  10.154   9.353
86949SOL    HW162744   4.480  10.126   9.287
86949SOL    HW262745   4.494  10.213   9.409
86950SOL     OW62746  12.362  14.609   2.258
86950SOL    HW162747  12.350  14.522   2.220
86950SOL    HW262748  12.444  14.602   2.308
86951SOL     OW62749   6.711   0.389   2.729
86951SOL    HW162750   6.637   0.436   2.766
86951SOL    HW262751   6.755   0.349   2.804
86952SOL     OW62752   1.241  13.861   0.922
86952SOL    HW162753   1.245  13.927   0.853
86952SOL    HW262754   1.268  13.780   0.879
86953SOL     OW62755   2.716   9.048  12.561
86953SOL    HW162756   2.643   9.068  12.620
86953SOL    HW262757   2.715   8.953  12.552
86954SOL     OW62758   4.928   4.230  13.429
86954SOL    HW162759   4.960   4.288  13.498
86954SOL    HW262760   4.839   4.206  13.456
86955SOL     OW62761   6.277   7.664   8.029
86955SOL    HW162762   6.224   7.741   8.051
86955SOL    HW262763   6.281   7.664   7.934
86956SOL     OW62764  14.380   6.872   3.579
86956SOL    HW162765  14.441   6.917   3.637
86956SOL    HW262766  14.352   6.795   3.628
86957SOL     OW62767   3.592   6.959   0.098
86957SOL    HW162768   3.585   6.864   0.107
86957SOL    HW262769   3.563   6.976   0.008
86958SOL     OW62770   2.814   3.879   5.941
86958SOL    HW162771   2.909   3.887   5.936
86958SOL    HW262772   2.783   3.909   5.855
86959SOL     OW62773  10.952   3.138   3.390
86959SOL    HW162774  11.015   3.075   3.355
86959SOL    HW262775  10.926   3.101   3.475
86960SOL     OW62776   2.075  13.475   3.121
86960SOL    HW162777   2.156  13.519   3.095
86960SOL    HW262778   2.104  13.396   3.166
86961SOL     OW62779   9.442   9.709   3.387
86961SOL    HW162780   9.450   9.655   3.465
86961SOL    HW262781   9.407   9.650   3.320
86962SOL     OW62782   9.179  11.156  10.816
86962SOL    HW162783   9.143  11.163  10.727
86962SOL    HW262784   9.266  11.118  10.803
86963SOL     OW62785   2.642   2.259   4.800
86963SOL    HW162786   2.636   2.163   4.805
86963SOL    HW262787   2.725   2.275   4.756
86964SOL     OW62788   0.231  12.244   3.161
86964SOL    HW162789   0.301  12.251   3.096
86964SOL    HW262790   0.156  12.286   3.121
86965SOL     OW62791  13.135   4.214   7.402
86965SOL    HW162792  13.047   4.178   7.389
86965SOL    HW262793  13.192   4.137   7.403
86966SOL     OW62794  11.381  12.486  10.662
86966SOL    HW162795  11.286  12.475  10.668
86966SOL    HW262796  11.411  12.483  10.752
86967SOL     OW62797  12.394   0.763   3.879
86967SOL    HW162798  12.429   0.674   3.877
86967SOL    HW262799  12.301   0.752   3.861
86968SOL     OW62800   0.645   2.360   1.043
86968SOL    HW162801   0.644   2.285   1.103
86968SOL    HW262802   0.570   2.413   1.071
86969SOL     OW62803  14.094   7.870  13.549
86969SOL    HW162804  14.141   7.884  13.632
86969SOL    HW262805  14.117   7.947  13.496
86970SOL     OW62806  13.533  13.481   7.476
86970SOL    HW162807  13.476  13.504   7.402
86970SOL    HW262808  13.619  13.514   7.451
86971SOL     OW62809  10.549   4.647   4.502
86971SOL    HW162810  10.474   4.672   4.557
86971SOL    HW262811  10.615   4.616   4.564
86972SOL     OW62812   5.210   9.223   7.845
86972SOL    HW162813   5.225   9.317   7.853
86972SOL    HW262814   5.130   9.217   7.793
86973SOL     OW62815   8.841   1.890  14.045
86973SOL    HW162816   8.920   1.843  14.018
86973SOL    HW262817   8.845   1.890  14.141
86974SOL     OW62818  12.727   1.265   9.497
86974SOL    HW162819  12.719   1.223   9.583
86974SOL    HW262820  12.814   1.306   9.498
86975SOL     OW62821   5.512  13.269   7.653
86975SOL    HW162822   5.462  13.317   7.587
86975SOL    HW262823   5.601  13.269   7.620
86976SOL     OW62824   7.542  11.785  13.825
86976SOL    HW162825   7.552  11.832  13.908
86976SOL    HW262826   7.451  11.756  13.825
86977SOL     OW62827   2.733   6.511   1.125
86977SOL    HW162828   2.764   6.454   1.195
86977SOL    HW262829   2.668   6.459   1.078
86978SOL     OW62830   9.663  10.747   8.865
86978SOL    HW162831   9.705  10.740   8.780
86978SOL    HW262832   9.665  10.841   8.885
86979SOL     OW62833  12.754   9.150   8.437
86979SOL    HW162834  12.755   9.223   8.375
86979SOL    HW262835  12.671   9.159   8.484
86980SOL     OW62836   6.351   9.819   1.359
86980SOL    HW162837   6.429   9.862   1.324
86980SOL    HW262838   6.331   9.750   1.295
86981SOL     OW62839  12.009   6.193   0.772
86981SOL    HW162840  12.103   6.210   0.780
86981SOL    HW262841  11.967   6.261   0.826
86982SOL     OW62842   0.513   0.982   8.106
86982SOL    HW162843   0.435   0.992   8.052
86982SOL    HW262844   0.570   0.924   8.054
86983SOL     OW62845  13.477   8.337  11.169
86983SOL    HW162846  13.532   8.265  11.200
86983SOL    HW262847  13.502   8.412  11.222
86984SOL     OW62848   7.765  14.866   9.236
86984SOL    HW162849   7.699   0.019   9.174
86984SOL    HW262850   7.846  14.863   9.186
86985SOL     OW62851   3.612  11.939   0.496
86985SOL    HW162852   3.668  11.922   0.573
86985SOL    HW262853   3.523  11.937   0.530
86986SOL     OW62854   7.339  10.712   6.720
86986SOL    HW162855   7.249  10.740   6.705
86986SOL    HW262856   7.330  10.622   6.752
86987SOL     OW62857   6.230   6.227   3.288
86987SOL    HW162858   6.179   6.267   3.359
86987SOL    HW262859   6.170   6.165   3.248
86988SOL     OW62860   9.275   8.827   8.139
86988SOL    HW162861   9.220   8.879   8.199
86988SOL    HW262862   9.364   8.848   8.165
86989SOL     OW62863   1.302   2.480   1.851
86989SOL    HW162864   1.207   2.485   1.860
86989SOL    HW262865   1.316   2.417   1.780
86990SOL     OW62866   9.746   7.658  14.270
86990SOL    HW162867   9.713   7.665  14.180
86990SOL    HW262868   9.832   7.700  14.267
86991SOL     OW62869   0.997   3.100   8.218
86991SOL    HW162870   1.079   3.088   8.171
86991SOL    HW262871   0.952   3.016   8.209
86992SOL     OW62872   1.750   5.193   5.724
86992SOL    HW162873   1.738   5.223   5.814
86992SOL    HW262874   1.775   5.273   5.677
86993SOL     OW62875  11.533   6.653   7.313
86993SOL    HW162876  11.461   6.598   7.342
86993SOL    HW262877  11.587   6.667   7.391
86994SOL     OW62878   9.167  10.097  10.581
86994SOL    HW162879   9.089  10.119  10.531
86994SOL    HW262880   9.239  10.110  10.519
86995SOL     OW62881   2.185   7.756  11.303
86995SOL    HW162882   2.254   7.709  11.348
86995SOL    HW262883   2.212   7.848  11.307
86996SOL     OW62884   4.116   8.545  10.535
86996SOL    HW162885   4.076   8.460  10.544
86996SOL    HW262886   4.080   8.580  10.453
86997SOL     OW62887   6.770   5.680  14.269
86997SOL    HW162888   6.786   5.696  14.361
86997SOL    HW262889   6.851   5.706  14.225
86998SOL     OW62890   4.102   3.521   7.942
86998SOL    HW162891   4.120   3.588   8.007
86998SOL    HW262892   4.021   3.550   7.899
86999SOL     OW62893   9.162   5.392   8.550
86999SOL    HW162894   9.090   5.352   8.597
86999SOL    HW262895   9.237   5.387   8.610
87000SOL     OW62896   3.493  11.517  10.176
87000SOL    HW162897   3.494  11.428  10.140
87000SOL    HW262898   3.426  11.563  10.124
87001SOL     OW62899   7.430  12.648   0.654
87001SOL    HW162900   7.452  12.563   0.617
87001SOL    HW262901   7.507  12.673   0.706
87002SOL     OW62902   8.974   3.557  14.119
87002SOL    HW162903   8.979   3.479  14.065
87002SOL    HW262904   9.006   3.530  14.205
87003SOL     OW62905  12.291   6.626  11.333
87003SOL    HW162906  12.338   6.654  11.254
87003SOL    HW262907  12.316   6.689  11.400
87004SOL     OW62908   9.339  14.520   1.254
87004SOL    HW162909   9.336  14.610   1.222
87004SOL    HW262910   9.420  14.484   1.216
87005SOL     OW62911  14.125  13.655   1.952
87005SOL    HW162912  14.166  13.690   1.873
87005SOL    HW262913  14.195  13.654   2.017
87006SOL     OW62914   9.967   1.656   8.193
87006SOL    HW162915   9.944   1.596   8.123
87006SOL    HW262916   9.924   1.738   8.169
87007SOL     OW62917   8.657  12.470  12.160
87007SOL    HW162918   8.676  12.545  12.216
87007SOL    HW262919   8.637  12.399  12.221
87008SOL     OW62920  13.718   1.973   9.366
87008SOL    HW162921  13.637   2.021   9.384
87008SOL    HW262922  13.786   2.023   9.410
87009SOL     OW62923   6.864   2.830   5.801
87009SOL    HW162924   6.786   2.787   5.766
87009SOL    HW262925   6.859   2.920   5.767
87010SOL     OW62926   2.280   1.801   8.275
87010SOL    HW162927   2.318   1.716   8.295
87010SOL    HW262928   2.342   1.841   8.214
87011SOL     OW62929  10.033   9.689   6.973
87011SOL    HW162930  10.017   9.667   6.881
87011SOL    HW262931   9.948   9.720   7.006
87012SOL     OW62932   0.311   7.692   2.358
87012SOL    HW162933   0.218   7.673   2.365
87012SOL    HW262934   0.344   7.683   2.448
87013SOL     OW62935   3.584   0.581  12.489
87013SOL    HW162936   3.654   0.622  12.438
87013SOL    HW262937   3.504   0.604  12.441
87014SOL     OW62938   9.176   7.570  11.579
87014SOL    HW162939   9.140   7.607  11.660
87014SOL    HW262940   9.239   7.634  11.549
87015SOL     OW62941   0.638   3.828  14.043
87015SOL    HW162942   0.618   3.848  13.952
87015SOL    HW262943   0.636   3.913  14.087
87016SOL     OW62944  13.944   0.768  14.663
87016SOL    HW162945  14.013   0.740  14.602
87016SOL    HW262946  13.991   0.800  14.740
87017SOL     OW62947  13.829   7.653   2.442
87017SOL    HW162948  13.921   7.665   2.465
87017SOL    HW262949  13.798   7.741   2.422
87018SOL     OW62950   2.331   2.443  12.301
87018SOL    HW162951   2.314   2.351  12.279
87018SOL    HW262952   2.261   2.465  12.362
87019SOL     OW62953   9.605   2.400   5.040
87019SOL    HW162954   9.697   2.403   5.067
87019SOL    HW262955   9.566   2.479   5.079
87020SOL     OW62956   9.152  11.767   9.145
87020SOL    HW162957   9.074  11.822   9.144
87020SOL    HW262958   9.179  11.763   9.237
87021SOL     OW62959  13.424   4.689  11.605
87021SOL    HW162960  13.375   4.646  11.535
87021SOL    HW262961  13.495   4.736  11.560
87022SOL     OW62962   9.015  11.756   0.724
87022SOL    HW162963   9.011  11.691   0.794
87022SOL    HW262964   9.099  11.800   0.736
87023SOL     OW62965   2.653  10.527   9.209
87023SOL    HW162966   2.561  10.522   9.236
87023SOL    HW262967   2.699  10.555   9.288
87024SOL     OW62968  10.628   1.315   5.001
87024SOL    HW162969  10.672   1.399   5.014
87024SOL    HW262970  10.603   1.315   4.909
87025SOL     OW62971  11.165   7.689   7.411
87025SOL    HW162972  11.186   7.783   7.405
87025SOL    HW262973  11.195   7.663   7.499
87026SOL     OW62974   9.158   0.500   1.065
87026SOL    HW162975   9.103   0.441   1.013
87026SOL    HW262976   9.114   0.504   1.150
87027SOL     OW62977   2.192   0.121  13.535
87027SOL    HW162978   2.158   0.039  13.498
87027SOL    HW262979   2.275   0.096  13.575
87028SOL     OW62980   9.168  13.277  13.852
87028SOL    HW162981   9.255  13.296  13.886
87028SOL    HW262982   9.170  13.183  13.832
87029SOL     OW62983  13.646  11.829  14.511
87029SOL    HW162984  13.580  11.878  14.463
87029SOL    HW262985  13.722  11.826  14.453
87030SOL     OW62986   1.537   4.711   4.875
87030SOL    HW162987   1.621   4.744   4.907
87030SOL    HW262988   1.558   4.671   4.791
87031SOL     OW62989  11.301   6.958  13.069
87031SOL    HW162990  11.283   6.964  13.163
87031SOL    HW262991  11.374   6.897  13.062
87032SOL     OW62992  12.785  10.103   9.866
87032SOL    HW162993  12.846  10.177   9.862
87032SOL    HW262994  12.701  10.142   9.890
87033SOL     OW62995   2.483   5.603   6.326
87033SOL    HW162996   2.475   5.635   6.236
87033SOL    HW262997   2.523   5.517   6.318
87034SOL     OW62998   5.621   0.630  12.978
87034SOL    HW162999   5.707   0.600  13.005
87034SOL    HW263000   5.586   0.559  12.925
87035SOL     OW63001   7.702   3.075   1.296
87035SOL    HW163002   7.607   3.068   1.294
87035SOL    HW263003   7.727   3.097   1.206
87036SOL     OW63004  14.853   5.813   6.344
87036SOL    HW163005   0.019   5.770   6.417
87036SOL    HW263006   0.045   5.826   6.279
87037SOL     OW63007  10.180   5.128   1.222
87037SOL    HW163008  10.173   5.102   1.314
87037SOL    HW263009  10.180   5.046   1.173
87038SOL     OW63010   2.379   7.217   9.962
87038SOL    HW163011   2.377   7.301  10.006
87038SOL    HW263012   2.392   7.153  10.032
87039SOL     OW63013   1.397  13.513  14.053
87039SOL    HW163014   1.459  13.498  13.983
87039SOL    HW263015   1.356  13.597  14.032
87040SOL     OW63016   9.196   9.654   4.736
87040SOL    HW163017   9.207   9.593   4.663
87040SOL    HW263018   9.133   9.612   4.794
87041SOL     OW63019  10.401  12.974   7.390
87041SOL    HW163020  10.355  12.890   7.395
87041SOL    HW263021  10.336  13.033   7.351
87042SOL     OW63022   8.905   7.229  12.878
87042SOL    HW163023   8.858   7.191  12.953
87042SOL    HW263024   8.849   7.301  12.849
87043SOL     OW63025   1.483   1.241   4.715
87043SOL    HW163026   1.455   1.269   4.629
87043SOL    HW263027   1.423   1.170   4.738
87044SOL     OW63028  14.035  12.292   7.283
87044SOL    HW163029  14.079  12.287   7.368
87044SOL    HW263030  13.942  12.300   7.304
87045SOL     OW63031  10.480   6.435   8.940
87045SOL    HW163032  10.539   6.409   8.870
87045SOL    HW263033  10.503   6.526   8.959
87046SOL     OW63034   1.594   2.595  12.194
87046SOL    HW163035   1.590   2.633  12.282
87046SOL    HW263036   1.636   2.510  12.206
87047SOL     OW63037  10.863   3.901   6.980
87047SOL    HW163038  10.932   3.836   6.966
87047SOL    HW263039  10.782   3.850   6.976
87048SOL     OW63040  14.050   9.103  12.868
87048SOL    HW163041  14.009   9.037  12.924
87048SOL    HW263042  13.999   9.101  12.787
87049SOL     OW63043   0.031  11.969  12.483
87049SOL    HW163044  14.847  11.925  12.424
87049SOL    HW263045   0.060  11.900  12.542
87050SOL     OW63046   2.990  12.133   4.197
87050SOL    HW163047   3.029  12.083   4.269
87050SOL    HW263048   2.904  12.094   4.184
87051SOL     OW63049   2.218   9.702   5.197
87051SOL    HW163050   2.218   9.679   5.104
87051SOL    HW263051   2.240   9.795   5.200
87052SOL     OW63052   9.065   8.612   9.000
87052SOL    HW163053   8.991   8.669   9.022
87052SOL    HW263054   9.072   8.619   8.905
87053SOL     OW63055   3.917  13.330   7.532
87053SOL    HW163056   3.888  13.324   7.623
87053SOL    HW263057   4.001  13.376   7.536
87054SOL     OW63058   4.771   1.577   8.161
87054SOL    HW163059   4.825   1.509   8.203
87054SOL    HW263060   4.835   1.634   8.119
87055SOL     OW63061   6.265   3.663   2.493
87055SOL    HW163062   6.350   3.669   2.537
87055SOL    HW263063   6.201   3.662   2.564
87056SOL     OW63064   3.351   2.515   5.933
87056SOL    HW163065   3.405   2.436   5.945
87056SOL    HW263066   3.281   2.507   5.998
87057SOL     OW63067   5.158   0.379   9.673
87057SOL    HW163068   5.120   0.300   9.633
87057SOL    HW263069   5.251   0.375   9.650
87058SOL     OW63070   0.502  14.018  14.037
87058SOL    HW163071   0.573  14.076  14.010
87058SOL    HW263072   0.517  13.937  13.988
87059SOL     OW63073  10.590  13.687   2.053
87059SOL    HW163074  10.530  13.632   2.003
87059SOL    HW263075  10.674  13.641   2.050
87060SOL     OW63076  11.521   9.748   2.960
87060SOL    HW163077  11.576   9.737   2.883
87060SOL    HW263078  11.577   9.792   3.024
87061SOL     OW63079   5.849   8.930   5.588
87061SOL    HW163080   5.918   8.867   5.566
87061SOL    HW263081   5.887   8.984   5.658
87062SOL     OW63082  14.480   3.794   2.205
87062SOL    HW163083  14.507   3.792   2.297
87062SOL    HW263084  14.400   3.742   2.202
87063SOL     OW63085  14.650   6.998   2.433
87063SOL    HW163086  14.582   6.975   2.369
87063SOL    HW263087  14.695   7.073   2.395
87064SOL     OW63088   8.278   0.631   2.893
87064SOL    HW163089   8.271   0.549   2.844
87064SOL    HW263090   8.246   0.698   2.832
87065SOL     OW63091   6.420  12.791   2.191
87065SOL    HW163092   6.396  12.879   2.162
87065SOL    HW263093   6.368  12.777   2.270
87066SOL     OW63094   9.874  12.309   9.422
87066SOL    HW163095   9.795  12.313   9.476
87066SOL    HW263096   9.851  12.249   9.351
87067SOL     OW63097  10.164   2.571   2.679
87067SOL    HW163098  10.115   2.576   2.597
87067SOL    HW263099  10.248   2.614   2.659
87068SOL     OW63100  10.212  10.979   0.741
87068SOL    HW163101  10.296  11.012   0.773
87068SOL    HW263102  10.209  10.887   0.768
87069SOL     OW63103   1.264  11.324  12.903
87069SOL    HW163104   1.237  11.343  12.813
87069SOL    HW263105   1.183  11.315  12.951
87070SOL     OW63106  11.048   1.245   2.391
87070SOL    HW163107  11.133   1.202   2.403
87070SOL    HW263108  10.996   1.181   2.344
87071SOL     OW63109   3.953   9.280   0.725
87071SOL    HW163110   3.961   9.369   0.689
87071SOL    HW263111   4.032   9.269   0.779
87072SOL     OW63112  10.903  14.320   6.283
87072SOL    HW163113  10.899  14.252   6.216
87072SOL    HW263114  10.856  14.283   6.358
87073SOL     OW63115  11.467   5.208  12.152
87073SOL    HW163116  11.459   5.189  12.058
87073SOL    HW263117  11.533   5.277  12.157
87074SOL     OW63118   4.398   4.724   8.518
87074SOL    HW163119   4.411   4.629   8.516
87074SOL    HW263120   4.353   4.740   8.601
87075SOL     OW63121   4.021  10.152   0.721
87075SOL    HW163122   3.987  10.230   0.678
87075SOL    HW263123   4.115  10.167   0.728
87076SOL     OW63124   0.582   5.241   2.740
87076SOL    HW163125   0.503   5.187   2.743
87076SOL    HW263126   0.654   5.178   2.737
87077SOL     OW63127  10.148  12.718   9.576
87077SOL    HW163128  10.232  12.702   9.618
87077SOL    HW263129  10.133  12.640   9.522
87078SOL     OW63130   2.988  11.949  10.034
87078SOL    HW163131   3.047  11.901   9.976
87078SOL    HW263132   2.948  11.881  10.089
87079SOL     OW63133  14.686   8.598  14.374
87079SOL    HW163134  14.622   8.570  14.309
87079SOL    HW263135  14.641   8.591  14.458
87080SOL     OW63136  11.426   9.348   0.178
87080SOL    HW163137  11.480   9.289   0.231
87080SOL    HW263138  11.338   9.309   0.180
87081SOL     OW63139  13.636   4.764  10.638
87081SOL    HW163140  13.670   4.781  10.725
87081SOL    HW263141  13.601   4.675  10.643
87082SOL     OW63142   3.054  11.931   6.145
87082SOL    HW163143   3.118  11.964   6.208
87082SOL    HW263144   3.009  12.009   6.113
87083SOL     OW63145  13.053   3.994   6.726
87083SOL    HW163146  13.026   3.909   6.760
87083SOL    HW263147  13.149   3.991   6.729
87084SOL     OW63148   5.397   7.506   8.039
87084SOL    HW163149   5.338   7.509   8.115
87084SOL    HW263150   5.426   7.596   8.027
87085SOL     OW63151   8.588   2.615   1.568
87085SOL    HW163152   8.523   2.650   1.506
87085SOL    HW263153   8.654   2.574   1.512
87086SOL     OW63154   0.865   6.681   7.593
87086SOL    HW163155   0.900   6.695   7.506
87086SOL    HW263156   0.770   6.689   7.582
87087SOL     OW63157   9.386   2.978  12.044
87087SOL    HW163158   9.367   3.070  12.061
87087SOL    HW263159   9.300   2.936  12.039
87088SOL     OW63160  11.597   6.721   1.873
87088SOL    HW163161  11.582   6.633   1.909
87088SOL    HW263162  11.561   6.780   1.938
87089SOL     OW63163  13.894   8.976  11.215
87089SOL    HW163164  13.892   8.972  11.310
87089SOL    HW263165  13.976   9.020  11.194
87090SOL     OW63166   3.990   3.464  13.875
87090SOL    HW163167   4.031   3.544  13.843
87090SOL    HW263168   3.896   3.477  13.861
87091SOL     OW63169  13.751  11.250   7.363
87091SOL    HW163170  13.766  11.279   7.453
87091SOL    HW263171  13.838  11.222   7.332
87092SOL     OW63172   0.371   0.882   1.153
87092SOL    HW163173   0.366   0.941   1.228
87092SOL    HW263174   0.314   0.809   1.176
87093SOL     OW63175   4.765   2.620   3.323
87093SOL    HW163176   4.685   2.667   3.302
87093SOL    HW263177   4.831   2.689   3.336
87094SOL     OW63178   3.826  11.457   1.192
87094SOL    HW163179   3.903  11.482   1.140
87094SOL    HW263180   3.756  11.447   1.128
87095SOL     OW63181  10.162   8.829   7.304
87095SOL    HW163182  10.071   8.822   7.275
87095SOL    HW263183  10.170   8.765   7.375
87096SOL     OW63184   2.986   3.948   2.832
87096SOL    HW163185   2.971   4.031   2.788
87096SOL    HW263186   3.062   3.910   2.786
87097SOL     OW63187   4.423  13.875  13.891
87097SOL    HW163188   4.496  13.818  13.868
87097SOL    HW263189   4.347  13.834  13.850
87098SOL     OW63190  12.574   4.693   2.773
87098SOL    HW163191  12.579   4.775   2.725
87098SOL    HW263192  12.616   4.711   2.857
87099SOL     OW63193   0.426   5.839   0.697
87099SOL    HW163194   0.349   5.891   0.721
87099SOL    HW263195   0.454   5.799   0.780
87100SOL     OW63196   4.318   6.004  14.160
87100SOL    HW163197   4.373   6.083  14.159
87100SOL    HW263198   4.262   6.015  14.236
87101SOL     OW63199   8.946   9.349  13.988
87101SOL    HW163200   9.029   9.302  14.000
87101SOL    HW263201   8.894   9.325  14.064
87102SOL     OW63202   8.070   7.613   3.939
87102SOL    HW163203   8.041   7.660   3.861
87102SOL    HW263204   8.165   7.603   3.927
87103SOL     OW63205   4.243   8.121  14.794
87103SOL    HW163206   4.255   8.159  14.707
87103SOL    HW263207   4.331   8.096  14.822
87104SOL     OW63208   3.105   8.719  13.903
87104SOL    HW163209   3.015   8.699  13.874
87104SOL    HW263210   3.159   8.703  13.825
87105SOL     OW63211   3.996  11.685   7.323
87105SOL    HW163212   3.904  11.689   7.348
87105SOL    HW263213   4.033  11.768   7.353
87106SOL     OW63214   6.753  12.495   8.967
87106SOL    HW163215   6.685  12.448   8.919
87106SOL    HW263216   6.706  12.559   9.020
87107SOL     OW63217  12.010   4.307   4.256
87107SOL    HW163218  11.981   4.297   4.346
87107SOL    HW263219  11.931   4.333   4.208
87108SOL     OW63220   8.811  12.805   9.372
87108SOL    HW163221   8.827  12.882   9.426
87108SOL    HW263222   8.898  12.773   9.350
87109SOL     OW63223  14.791   4.976  12.161
87109SOL    HW163224  14.819   5.003  12.249
87109SOL    HW263225  14.710   5.024  12.145
87110SOL     OW63226   5.740   3.856   4.274
87110SOL    HW163227   5.679   3.908   4.326
87110SOL    HW263228   5.825   3.900   4.284
87111SOL     OW63229   9.993   0.246   0.903
87111SOL    HW163230  10.039   0.240   0.819
87111SOL    HW263231   9.900   0.252   0.880
87112SOL     OW63232   8.011   0.357  14.397
87112SOL    HW163233   7.987   0.370  14.305
87112SOL    HW263234   8.075   0.286  14.395
87113SOL     OW63235   7.272   8.904   2.791
87113SOL    HW163236   7.349   8.850   2.772
87113SOL    HW263237   7.205   8.874   2.730
87114SOL     OW63238   6.950   4.173   5.629
87114SOL    HW163239   6.911   4.241   5.684
87114SOL    HW263240   7.008   4.125   5.687
87115SOL     OW63241  14.007   0.808  13.930
87115SOL    HW163242  13.939   0.761  13.979
87115SOL    HW263243  14.020   0.889  13.980
87116SOL     OW63244   1.354  13.870   7.853
87116SOL    HW163245   1.319  13.951   7.890
87116SOL    HW263246   1.398  13.898   7.773
87117SOL     OW63247   4.928  11.648  12.904
87117SOL    HW163248   4.863  11.590  12.863
87117SOL    HW263249   5.010  11.625  12.860
87118SOL     OW63250   6.710   6.545   0.704
87118SOL    HW163251   6.800   6.524   0.677
87118SOL    HW263252   6.700   6.638   0.683
87119SOL     OW63253   3.803   1.170   1.783
87119SOL    HW163254   3.844   1.122   1.855
87119SOL    HW263255   3.876   1.202   1.730
87120SOL     OW63256   1.450  14.029   3.887
87120SOL    HW163257   1.428  14.115   3.851
87120SOL    HW263258   1.486  13.980   3.813
87121SOL     OW63259   1.769   2.875  12.109
87121SOL    HW163260   1.850   2.925  12.112
87121SOL    HW263261   1.720   2.904  12.186
87122SOL     OW63262  10.151   3.496   1.049
87122SOL    HW163263  10.063   3.513   1.083
87122SOL    HW263264  10.197   3.580   1.060
87123SOL     OW63265   0.547   8.932   7.178
87123SOL    HW163266   0.622   8.920   7.120
87123SOL    HW263267   0.541   9.027   7.190
87124SOL     OW63268   9.173  14.499  12.891
87124SOL    HW163269   9.171  14.453  12.807
87124SOL    HW263270   9.097  14.557  12.887
87125SOL     OW63271   0.256   4.882   0.949
87125SOL    HW163272   0.287   4.965   0.913
87125SOL    HW263273   0.334   4.844   0.989
87126SOL     OW63274   4.241  10.924  12.062
87126SOL    HW163275   4.221  11.018  12.067
87126SOL    HW263276   4.174  10.882  12.115
87127SOL     OW63277   1.059   3.918   5.859
87127SOL    HW163278   0.964   3.924   5.848
87127SOL    HW263279   1.092   4.001   5.825
87128SOL     OW63280   5.807  14.737  11.895
87128SOL    HW163281   5.774  14.710  11.981
87128SOL    HW263282   5.882  14.794  11.915
87129SOL     OW63283   1.417  14.333   2.660
87129SOL    HW163284   1.464  14.307   2.739
87129SOL    HW263285   1.333  14.368   2.691
87130SOL     OW63286  14.618  14.741   0.492
87130SOL    HW163287  14.612  14.669   0.429
87130SOL    HW263288  14.632  14.698   0.577
87131SOL     OW63289  12.168  14.201   0.143
87131SOL    HW163290  12.093  14.246   0.103
87131SOL    HW263291  12.137  14.112   0.160
87132SOL     OW63292   3.454   4.864  14.327
87132SOL    HW163293   3.485   4.777  14.304
87132SOL    HW263294   3.378   4.848  14.384
87133SOL     OW63295   3.275   6.985   1.446
87133SOL    HW163296   3.256   7.076   1.470
87133SOL    HW263297   3.233   6.974   1.360
87134SOL     OW63298   5.432   2.940   2.896
87134SOL    HW163299   5.407   2.848   2.909
87134SOL    HW263300   5.506   2.953   2.954
87135SOL     OW63301  11.488   7.654   3.678
87135SOL    HW163302  11.514   7.745   3.695
87135SOL    HW263303  11.481   7.615   3.765
87136SOL     OW63304  11.065  11.743  12.177
87136SOL    HW163305  11.049  11.829  12.138
87136SOL    HW263306  10.983  11.695  12.164
87137SOL     OW63307   8.023   2.922   2.684
87137SOL    HW163308   8.049   2.886   2.600
87137SOL    HW263309   8.025   3.017   2.671
87138SOL     OW63310   8.811   0.874   2.972
87138SOL    HW163311   8.778   0.784   2.976
87138SOL    HW263312   8.784   0.914   3.054
87139SOL     OW63313   2.431   9.913  13.865
87139SOL    HW163314   2.475   9.964  13.934
87139SOL    HW263315   2.496   9.848  13.839
87140SOL     OW63316  11.199  11.501  13.427
87140SOL    HW163317  11.147  11.561  13.374
87140SOL    HW263318  11.152  11.494  13.510
87141SOL     OW63319   9.658   2.162  14.278
87141SOL    HW163320   9.744   2.120  14.270
87141SOL    HW263321   9.600   2.106  14.227
87142SOL     OW63322   7.860   7.564  10.170
87142SOL    HW163323   7.786   7.582  10.229
87142SOL    HW263324   7.938   7.577  10.224
87143SOL     OW63325   3.782   9.616  10.644
87143SOL    HW163326   3.803   9.546  10.582
87143SOL    HW263327   3.757   9.690  10.588
87144SOL     OW63328   9.885   9.340   2.908
87144SOL    HW163329   9.791   9.350   2.916
87144SOL    HW263330   9.903   9.254   2.946
87145SOL     OW63331   8.969  14.198   5.475
87145SOL    HW163332   9.003  14.152   5.552
87145SOL    HW263333   9.048  14.230   5.431
87146SOL     OW63334   2.943   4.995   9.070
87146SOL    HW163335   2.949   4.921   9.130
87146SOL    HW263336   3.023   5.045   9.086
87147SOL     OW63337  11.487   9.671   7.169
87147SOL    HW163338  11.530   9.742   7.216
87147SOL    HW263339  11.553   9.639   7.107
87148SOL     OW63340  10.119   8.478  13.594
87148SOL    HW163341  10.112   8.393  13.550
87148SOL    HW263342  10.083   8.541  13.532
87149SOL     OW63343   6.721   9.880   3.977
87149SOL    HW163344   6.677   9.960   3.949
87149SOL    HW263345   6.750   9.839   3.895
87150SOL     OW63346   8.345  11.437   6.864
87150SOL    HW163347   8.340  11.379   6.789
87150SOL    HW263348   8.383  11.518   6.830
87151SOL     OW63349   5.786   9.529   4.101
87151SOL    HW163350   5.867   9.514   4.149
87151SOL    HW263351   5.763   9.443   4.064
87152SOL     OW63352   6.707   5.822   0.669
87152SOL    HW163353   6.779   5.861   0.620
87152SOL    HW263354   6.635   5.885   0.659
87153SOL     OW63355  11.997  10.900   0.028
87153SOL    HW163356  11.978  10.970  14.842
87153SOL    HW263357  12.062  10.939   0.087
87154SOL     OW63358   5.139   6.347   4.625
87154SOL    HW163359   5.044   6.333   4.621
87154SOL    HW263360   5.171   6.313   4.541
87155SOL     OW63361  10.375  11.196   0.397
87155SOL    HW163362  10.357  11.171   0.306
87155SOL    HW263363  10.309  11.262   0.417
87156SOL     OW63364   5.809   5.373   5.635
87156SOL    HW163365   5.847   5.420   5.709
87156SOL    HW263366   5.885   5.330   5.593
87157SOL     OW63367   2.382   2.925   3.593
87157SOL    HW163368   2.387   2.896   3.502
87157SOL    HW263369   2.297   2.970   3.599
87158SOL     OW63370   0.555   2.469  14.215
87158SOL    HW163371   0.499   2.394  14.235
87158SOL    HW263372   0.566   2.466  14.120
87159SOL     OW63373   8.804  12.455  10.255
87159SOL    HW163374   8.711  12.474  10.267
87159SOL    HW263375   8.822  12.381  10.313
87160SOL     OW63376  14.373  13.880   5.353
87160SOL    HW163377  14.330  13.963   5.376
87160SOL    HW263378  14.301  13.820   5.334
87161SOL     OW63379   6.970   5.147   1.875
87161SOL    HW163380   6.912   5.121   1.947
87161SOL    HW263381   6.989   5.065   1.829
87162SOL     OW63382   0.593  13.421   2.632
87162SOL    HW163383   0.612  13.455   2.719
87162SOL    HW263384   0.648  13.343   2.624
87163SOL     OW63385   8.405   8.561   3.552
87163SOL    HW163386   8.403   8.468   3.577
87163SOL    HW263387   8.454   8.563   3.470
87164SOL     OW63388  12.444  12.188   0.038
87164SOL    HW163389  12.429  12.258  14.853
87164SOL    HW263390  12.540  12.182   0.044
87165SOL     OW63391   2.427   3.576  13.990
87165SOL    HW163392   2.377   3.497  14.013
87165SOL    HW263393   2.505   3.571  14.045
87166SOL     OW63394   3.930  14.207  12.749
87166SOL    HW163395   3.912  14.158  12.829
87166SOL    HW263396   3.983  14.281  12.776
87167SOL     OW63397   0.648   5.942   3.440
87167SOL    HW163398   0.696   5.942   3.523
87167SOL    HW263399   0.627   6.033   3.424
87168SOL     OW63400   5.090   2.163   8.416
87168SOL    HW163401   5.164   2.126   8.465
87168SOL    HW263402   5.121   2.166   8.325
87169SOL     OW63403  10.683  11.556   1.000
87169SOL    HW163404  10.757  11.586   0.948
87169SOL    HW263405  10.626  11.633   1.008
87170SOL     OW63406   5.265  10.630   8.375
87170SOL    HW163407   5.193  10.571   8.355
87170SOL    HW263408   5.306  10.649   8.290
87171SOL     OW63409   7.654  11.275   1.873
87171SOL    HW163410   7.642  11.349   1.814
87171SOL    HW263411   7.684  11.315   1.955
87172SOL     OW63412  13.061   1.842   2.186
87172SOL    HW163413  13.063   1.778   2.257
87172SOL    HW263414  13.026   1.922   2.226
87173SOL     OW63415   1.723  13.594   1.276
87173SOL    HW163416   1.743  13.578   1.368
87173SOL    HW263417   1.773  13.527   1.228
87174SOL     OW63418   3.724   3.567  11.784
87174SOL    HW163419   3.806   3.550  11.738
87174SOL    HW263420   3.703   3.658  11.764
87175SOL     OW63421   9.096   8.977   8.279
87175SOL    HW163422   9.005   8.945   8.284
87175SOL    HW263423   9.088   9.069   8.255
87176SOL     OW63424   7.352  10.406  13.106
87176SOL    HW163425   7.341  10.484  13.052
87176SOL    HW263426   7.264  10.386  13.137
87177SOL     OW63427   9.693   4.538   5.331
87177SOL    HW163428   9.650   4.622   5.314
87177SOL    HW263429   9.687   4.527   5.426
87178SOL     OW63430   9.218   2.300   2.150
87178SOL    HW163431   9.233   2.257   2.234
87178SOL    HW263432   9.274   2.378   2.153
87179SOL     OW63433   3.944  12.844   6.362
87179SOL    HW163434   3.939  12.926   6.314
87179SOL    HW263435   3.882  12.855   6.434
87180SOL     OW63436   9.351   2.653   5.407
87180SOL    HW163437   9.414   2.683   5.472
87180SOL    HW263438   9.294   2.728   5.391
87181SOL     OW63439   8.702  10.865  11.928
87181SOL    HW163440   8.628  10.898  11.876
87181SOL    HW263441   8.663  10.800  11.987
87182SOL     OW63442  10.175  12.067   2.216
87182SOL    HW163443  10.238  12.048   2.146
87182SOL    HW263444  10.106  12.116   2.173
87183SOL     OW63445  11.865   0.132   8.515
87183SOL    HW163446  11.898   0.174   8.594
87183SOL    HW263447  11.943   0.097   8.472
87184SOL     OW63448   2.808   2.684  13.913
87184SOL    HW163449   2.869   2.746  13.950
87184SOL    HW263450   2.773   2.636  13.989
87185SOL     OW63451  13.259  13.930   6.643
87185SOL    HW163452  13.340  13.879   6.636
87185SOL    HW263453  13.198  13.871   6.688
87186SOL     OW63454   5.877   0.431   4.137
87186SOL    HW163455   5.795   0.382   4.142
87186SOL    HW263456   5.857   0.506   4.080
87187SOL     OW63457   8.542  13.348  14.615
87187SOL    HW163458   8.543  13.336  14.709
87187SOL    HW263459   8.605  13.419  14.599
87188SOL     OW63460  13.756  13.768   4.325
87188SOL    HW163461  13.829  13.718   4.362
87188SOL    HW263462  13.779  13.859   4.342
87189SOL     OW63463   9.385   7.727   8.584
87189SOL    HW163464   9.301   7.718   8.628
87189SOL    HW263465   9.442   7.770   8.647
87190SOL     OW63466   9.058  14.275  10.440
87190SOL    HW163467   9.089  14.291  10.529
87190SOL    HW263468   8.997  14.202  10.448
87191SOL     OW63469   1.046   4.417   5.868
87191SOL    HW163470   1.097   4.344   5.832
87191SOL    HW263471   0.957   4.383   5.874
87192SOL     OW63472   7.094  10.533   1.962
87192SOL    HW163473   7.084  10.595   1.890
87192SOL    HW263474   7.020  10.552   2.020
87193SOL     OW63475   5.134   7.869  11.192
87193SOL    HW163476   5.227   7.859  11.210
87193SOL    HW263477   5.100   7.918  11.267
87194SOL     OW63478  14.033  11.035   6.931
87194SOL    HW163479  14.124  11.025   6.901
87194SOL    HW263480  13.993  11.092   6.866
87195SOL     OW63481  11.065  10.861  10.291
87195SOL    HW163482  11.128  10.929  10.268
87195SOL    HW263483  11.118  10.781  10.298
87196SOL     OW63484  14.299  13.026   9.050
87196SOL    HW163485  14.322  12.961   9.116
87196SOL    HW263486  14.346  12.998   8.971
87197SOL     OW63487  14.467   9.477   6.706
87197SOL    HW163488  14.431   9.565   6.696
87197SOL    HW263489  14.552   9.490   6.748
87198SOL     OW63490   9.416  14.610   0.206
87198SOL    HW163491   9.433  14.516   0.203
87198SOL    HW263492   9.501  14.650   0.186
87199SOL     OW63493   5.020   6.579  11.001
87199SOL    HW163494   5.068   6.550  11.079
87199SOL    HW263495   4.959   6.508  10.982
87200SOL     OW63496   7.704   7.828   7.861
87200SOL    HW163497   7.747   7.828   7.776
87200SOL    HW263498   7.763   7.779   7.919
87201SOL     OW63499  14.771   7.212   0.815
87201SOL    HW163500  14.753   7.226   0.722
87201SOL    HW263501  14.698   7.157   0.845
87202SOL     OW63502   8.374   5.553   9.787
87202SOL    HW163503   8.437   5.619   9.817
87202SOL    HW263504   8.357   5.576   9.696
87203SOL     OW63505   4.923  11.198  14.306
87203SOL    HW163506   4.896  11.132  14.370
87203SOL    HW263507   4.866  11.273  14.323
87204SOL     OW63508   9.089   8.212  14.319
87204SOL    HW163509   9.009   8.163  14.340
87204SOL    HW263510   9.101   8.199  14.226
87205SOL     OW63511   8.657   0.275   4.776
87205SOL    HW163512   8.751   0.265   4.791
87205SOL    HW263513   8.637   0.212   4.706
87206SOL     OW63514   5.942   6.824   3.822
87206SOL    HW163515   6.017   6.767   3.842
87206SOL    HW263516   5.957   6.849   3.730
87207SOL     OW63517   1.175   1.044  12.928
87207SOL    HW163518   1.084   1.061  12.951
87207SOL    HW263519   1.209   0.992  13.001
87208SOL     OW63520  12.113  14.356  10.754
87208SOL    HW163521  12.113  14.378  10.661
87208SOL    HW263522  12.083  14.265  10.758
87209SOL     OW63523  13.462   5.514  10.307
87209SOL    HW163524  13.457   5.473  10.393
87209SOL    HW263525  13.537   5.573  10.313
87210SOL     OW63526   3.783   1.075   4.879
87210SOL    HW163527   3.835   1.059   4.801
87210SOL    HW263528   3.692   1.066   4.850
87211SOL     OW63529   4.961   0.323   7.122
87211SOL    HW163530   4.913   0.396   7.081
87211SOL    HW263531   5.044   0.320   7.074
87212SOL     OW63532   7.190  10.239   6.204
87212SOL    HW163533   7.227  10.153   6.184
87212SOL    HW263534   7.124  10.253   6.136
87213SOL     OW63535   7.264   2.982  13.824
87213SOL    HW163536   7.273   3.027  13.740
87213SOL    HW263537   7.323   3.029  13.882
87214SOL     OW63538  14.236  12.760  13.309
87214SOL    HW163539  14.213  12.834  13.365
87214SOL    HW263540  14.301  12.796  13.248
87215SOL     OW63541  12.435   6.922   7.459
87215SOL    HW163542  12.413   6.836   7.423
87215SOL    HW263543  12.355   6.974   7.446
87216SOL     OW63544   8.991  11.176   6.414
87216SOL    HW163545   8.921  11.168   6.479
87216SOL    HW263546   8.948  11.215   6.337
87217SOL     OW63547   4.538   1.197   5.462
87217SOL    HW163548   4.452   1.165   5.437
87217SOL    HW263549   4.593   1.180   5.386
87218SOL     OW63550   8.303   6.982  10.002
87218SOL    HW163551   8.265   7.010   9.918
87218SOL    HW263552   8.391   7.019  10.002
87219SOL     OW63553  11.570  12.003   0.908
87219SOL    HW163554  11.502  12.034   0.849
87219SOL    HW263555  11.604  12.083   0.949
87220SOL     OW63556   9.731   1.414   4.075
87220SOL    HW163557   9.671   1.489   4.070
87220SOL    HW263558   9.791   1.436   4.147
87221SOL     OW63559  14.214   8.460   7.652
87221SOL    HW163560  14.119   8.459   7.660
87221SOL    HW263561  14.241   8.370   7.670
87222SOL     OW63562   3.588   2.233   1.508
87222SOL    HW163563   3.571   2.168   1.576
87222SOL    HW263564   3.667   2.202   1.464
87223SOL     OW63565   8.328   7.275  13.516
87223SOL    HW163566   8.285   7.333  13.453
87223SOL    HW263567   8.255   7.235  13.564
87224SOL     OW63568  12.871  11.366   3.012
87224SOL    HW163569  12.810  11.366   3.086
87224SOL    HW263570  12.913  11.451   3.015
87225SOL     OW63571  11.223   6.682   9.924
87225SOL    HW163572  11.303   6.631   9.924
87225SOL    HW263573  11.247   6.765   9.882
87226SOL     OW63574   2.161  14.194   0.915
87226SOL    HW163575   2.076  14.206   0.872
87226SOL    HW263576   2.217  14.158   0.846
87227SOL     OW63577  12.447   2.768   9.351
87227SOL    HW163578  12.434   2.826   9.426
87227SOL    HW263579  12.440   2.824   9.275
87228SOL     OW63580  14.058   3.515  11.776
87228SOL    HW163581  13.977   3.561  11.797
87228SOL    HW263582  14.030   3.428  11.748
87229SOL     OW63583   2.311  11.755   9.831
87229SOL    HW163584   2.406  11.766   9.824
87229SOL    HW263585   2.299  11.678   9.886
87230SOL     OW63586   0.376  10.239   0.200
87230SOL    HW163587   0.411  10.322   0.230
87230SOL    HW263588   0.426  10.173   0.247
87231SOL     OW63589  14.796   0.214   6.742
87231SOL    HW163590  14.801   0.253   6.830
87231SOL    HW263591  14.810   0.121   6.757
87232SOL     OW63592  11.249   3.866   2.647
87232SOL    HW163593  11.230   3.958   2.668
87232SOL    HW263594  11.271   3.826   2.731
87233SOL     OW63595  14.386  14.058  12.824
87233SOL    HW163596  14.427  13.996  12.885
87233SOL    HW263597  14.292  14.051  12.842
87234SOL     OW63598   3.489   7.905   5.855
87234SOL    HW163599   3.573   7.945   5.879
87234SOL    HW263600   3.507   7.858   5.774
87235SOL     OW63601   7.526  13.971  10.257
87235SOL    HW163602   7.571  14.007  10.181
87235SOL    HW263603   7.541  14.037  10.326
87236SOL     OW63604   9.750  12.089   6.639
87236SOL    HW163605   9.834  12.134   6.631
87236SOL    HW263606   9.764  12.025   6.710
87237SOL     OW63607   2.307   2.061   8.821
87237SOL    HW163608   2.286   1.979   8.865
87237SOL    HW263609   2.373   2.103   8.877
87238SOL     OW63610   4.812   1.246   2.675
87238SOL    HW163611   4.831   1.217   2.764
87238SOL    HW263612   4.897   1.242   2.630
87239SOL     OW63613   3.505   3.597  14.033
87239SOL    HW163614   3.444   3.658  13.991
87239SOL    HW263615   3.485   3.603  14.126
87240SOL     OW63616  13.103  12.877   3.562
87240SOL    HW163617  13.050  12.875   3.482
87240SOL    HW263618  13.193  12.865   3.531
87241SOL     OW63619   4.534  13.992  11.007
87241SOL    HW163620   4.536  13.955  11.095
87241SOL    HW263621   4.620  13.972  10.970
87242SOL     OW63622   7.651   7.033   4.472
87242SOL    HW163623   7.641   7.128   4.468
87242SOL    HW263624   7.564   7.000   4.493
87243SOL     OW63625   7.495   0.197   5.127
87243SOL    HW163626   7.513   0.161   5.214
87243SOL    HW263627   7.404   0.173   5.109
87244SOL     OW63628   5.906  14.645   2.989
87244SOL    HW163629   5.831  14.605   2.945
87244SOL    HW263630   5.917  14.729   2.945
87245SOL     OW63631   3.493   5.493   1.197
87245SOL    HW163632   3.514   5.564   1.137
87245SOL    HW263633   3.458   5.536   1.275
87246SOL     OW63634   3.518   3.010   4.674
87246SOL    HW163635   3.493   2.994   4.765
87246SOL    HW263636   3.608   2.979   4.669
87247SOL     OW63637   0.228   4.788  12.966
87247SOL    HW163638   0.296   4.743  12.915
87247SOL    HW263639   0.192   4.853  12.906
87248SOL     OW63640  12.478  14.740  11.285
87248SOL    HW163641  12.542  14.723  11.355
87248SOL    HW263642  12.521  14.711  11.205
87249SOL     OW63643   1.965   1.226  10.897
87249SOL    HW163644   1.972   1.220  10.993
87249SOL    HW263645   2.024   1.298  10.874
87250SOL     OW63646   1.031  13.560  14.869
87250SOL    HW163647   0.946  13.516  14.868
87250SOL    HW263648   1.027  13.622  14.797
87251SOL     OW63649   8.284  11.606   6.629
87251SOL    HW163650   8.333  11.573   6.554
87251SOL    HW263651   8.196  11.569   6.618
87252SOL     OW63652  13.654  12.917  12.474
87252SOL    HW163653  13.713  12.895  12.546
87252SOL    HW263654  13.709  12.967  12.413
87253SOL     OW63655   0.374   2.110  13.191
87253SOL    HW163656   0.280   2.122  13.197
87253SOL    HW263657   0.389   2.019  13.216
87254SOL     OW63658   1.900  13.524   9.530
87254SOL    HW163659   1.933  13.532   9.441
87254SOL    HW263660   1.820  13.472   9.522
87255SOL     OW63661   8.919  14.573   8.123
87255SOL    HW163662   8.880  14.493   8.087
87255SOL    HW263663   8.961  14.614   8.048
87256SOL     OW63664   0.518  10.098   2.886
87256SOL    HW163665   0.558  10.173   2.929
87256SOL    HW263666   0.474  10.050   2.957
87257SOL     OW63667   6.004   4.055   2.983
87257SOL    HW163668   6.063   4.123   3.018
87257SOL    HW263669   6.061   3.981   2.965
87258SOL     OW63670  12.956   5.319   0.953
87258SOL    HW163671  12.934   5.226   0.965
87258SOL    HW263672  13.006   5.342   1.031
87259SOL     OW63673  14.051  14.260  12.042
87259SOL    HW163674  14.015  14.248  11.954
87259SOL    HW263675  13.988  14.217  12.100
87260SOL     OW63676   6.528   2.185   7.937
87260SOL    HW163677   6.480   2.108   7.907
87260SOL    HW263678   6.620   2.165   7.921
87261SOL     OW63679   6.583   3.796  13.174
87261SOL    HW163680   6.602   3.714  13.219
87261SOL    HW263681   6.510   3.834  13.223
87262SOL     OW63682   7.204   8.131  13.316
87262SOL    HW163683   7.228   8.128  13.223
87262SOL    HW263684   7.288   8.136  13.362
87263SOL     OW63685   5.294   0.127  12.780
87263SOL    HW163686   5.200   0.136  12.799
87263SOL    HW263687   5.297   0.098  12.689
87264SOL     OW63688   2.039   0.284   0.003
87264SOL    HW163689   2.040   0.225   0.079
87264SOL    HW263690   1.965   0.253  14.828
87265SOL     OW63691   6.280  14.159   7.125
87265SOL    HW163692   6.374  14.162   7.110
87265SOL    HW263693   6.261  14.238   7.176
87266SOL     OW63694   5.646   5.297   0.057
87266SOL    HW163695   5.701   5.372   0.079
87266SOL    HW263696   5.600   5.276   0.139
87267SOL     OW63697   9.356  10.308  11.728
87267SOL    HW163698   9.384  10.257  11.804
87267SOL    HW263699   9.347  10.243  11.658
87268SOL     OW63700  14.084  12.658  11.414
87268SOL    HW163701  14.045  12.736  11.454
87268SOL    HW263702  14.080  12.675  11.320
87269SOL     OW63703  12.669   7.897  12.586
87269SOL    HW163704  12.662   7.804  12.564
87269SOL    HW263705  12.605   7.910  12.656
87270SOL     OW63706   5.641   0.299   4.110
87270SOL    HW163707   5.616   0.356   4.183
87270SOL    HW263708   5.623   0.351   4.032
87271SOL     OW63709   9.626   6.190  11.946
87271SOL    HW163710   9.685   6.254  11.908
87271SOL    HW263711   9.586   6.147  11.871
87272SOL     OW63712   9.329   6.976   8.531
87272SOL    HW163713   9.246   6.963   8.577
87272SOL    HW263714   9.341   7.071   8.531
87273SOL     OW63715  10.662   5.702  11.312
87273SOL    HW163716  10.752   5.700  11.279
87273SOL    HW263717  10.619   5.770  11.260
87274SOL     OW63718   7.260  10.667   1.032
87274SOL    HW163719   7.209  10.695   1.108
87274SOL    HW263720   7.316  10.597   1.065
87275SOL     OW63721   3.186  10.859  12.580
87275SOL    HW163722   3.139  10.776  12.592
87275SOL    HW263723   3.120  10.926  12.596
87276SOL     OW63724  11.981  11.547  14.368
87276SOL    HW163725  11.898  11.590  14.347
87276SOL    HW263726  12.039  11.570  14.296
87277SOL     OW63727   4.797   9.121   9.014
87277SOL    HW163728   4.741   9.074   9.076
87277SOL    HW263729   4.749   9.201   8.994
87278SOL     OW63730   0.273   9.007   9.105
87278SOL    HW163731   0.266   9.086   9.051
87278SOL    HW263732   0.309   8.940   9.046
87279SOL     OW63733   8.804  14.546   6.810
87279SOL    HW163734   8.878  14.600   6.781
87279SOL    HW263735   8.730  14.607   6.815
87280SOL     OW63736  11.986   1.262   0.593
87280SOL    HW163737  11.901   1.256   0.637
87280SOL    HW263738  11.987   1.350   0.554
87281SOL     OW63739  14.114   5.897   8.095
87281SOL    HW163740  14.149   5.845   8.023
87281SOL    HW263741  14.022   5.871   8.101
87282SOL     OW63742   8.821  12.774   4.067
87282SOL    HW163743   8.899  12.821   4.035
87282SOL    HW263744   8.847  12.682   4.068
87283SOL     OW63745   0.498   5.168   7.714
87283SOL    HW163746   0.526   5.141   7.802
87283SOL    HW263747   0.580   5.174   7.665
87284SOL     OW63748  13.029   7.023  10.764
87284SOL    HW163749  12.962   7.036  10.830
87284SOL    HW263750  13.019   7.097  10.704
87285SOL     OW63751   7.565   0.451   2.934
87285SOL    HW163752   7.511   0.382   2.971
87285SOL    HW263753   7.644   0.452   2.988
87286SOL     OW63754  13.198   8.570   0.671
87286SOL    HW163755  13.231   8.657   0.691
87286SOL    HW263756  13.258   8.536   0.604
87287SOL     OW63757   1.116  14.129   3.585
87287SOL    HW163758   1.076  14.216   3.580
87287SOL    HW263759   1.210  14.146   3.587
87288SOL     OW63760   8.273   9.497   3.281
87288SOL    HW163761   8.234   9.582   3.260
87288SOL    HW263762   8.365   9.505   3.253
87289SOL     OW63763   7.103  12.439  10.770
87289SOL    HW163764   7.017  12.482  10.765
87289SOL    HW263765   7.094  12.361  10.716
87290SOL     OW63766   1.876  11.528  12.187
87290SOL    HW163767   1.845  11.451  12.234
87290SOL    HW263768   1.909  11.494  12.104
87291SOL     OW63769   2.544   5.883   4.636
87291SOL    HW163770   2.636   5.906   4.647
87291SOL    HW263771   2.515   5.934   4.560
87292SOL     OW63772   8.840  12.249  10.422
87292SOL    HW163773   8.798  12.295  10.495
87292SOL    HW263774   8.776  12.184  10.394
87293SOL     OW63775   0.194  10.593   2.056
87293SOL    HW163776   0.242  10.674   2.073
87293SOL    HW263777   0.224  10.565   1.970
87294SOL     OW63778  10.039  13.676  13.436
87294SOL    HW163779  10.042  13.598  13.492
87294SOL    HW263780  10.081  13.649  13.355
87295SOL     OW63781  11.435   3.872   7.788
87295SOL    HW163782  11.382   3.837   7.860
87295SOL    HW263783  11.525   3.869   7.821
87296SOL     OW63784  10.951   0.972   2.301
87296SOL    HW163785  10.875   0.917   2.287
87296SOL    HW263786  10.997   0.932   2.375
87297SOL     OW63787  13.325  11.008   5.988
87297SOL    HW163788  13.404  11.057   6.009
87297SOL    HW263789  13.319  10.941   6.056
87298SOL     OW63790   3.867   6.047   3.144
87298SOL    HW163791   3.840   6.024   3.056
87298SOL    HW263792   3.956   6.081   3.134
87299SOL     OW63793  10.486  13.343   0.488
87299SOL    HW163794  10.546  13.362   0.416
87299SOL    HW263795  10.524  13.388   0.563
87300SOL     OW63796   2.855   1.779   5.941
87300SOL    HW163797   2.868   1.781   5.846
87300SOL    HW263798   2.768   1.817   5.954
87301SOL     OW63799  11.721   1.613   1.578
87301SOL    HW163800  11.804   1.623   1.532
87301SOL    HW263801  11.722   1.683   1.644
87302SOL     OW63802   0.906  11.363   4.921
87302SOL    HW163803   0.920  11.456   4.905
87302SOL    HW263804   0.963  11.319   4.859
87303SOL     OW63805   5.375  14.749  10.830
87303SOL    HW163806   5.465  14.760  10.860
87303SOL    HW263807   5.331  14.830  10.855
87304SOL     OW63808  14.622   7.285  10.825
87304SOL    HW163809  14.653   7.344  10.893
87304SOL    HW263810  14.640   7.331  10.743
87305SOL     OW63811   4.375   0.169   7.029
87305SOL    HW163812   4.375   0.264   7.040
87305SOL    HW263813   4.447   0.152   6.968
87306SOL     OW63814   8.170   1.787   8.794
87306SOL    HW163815   8.259   1.756   8.775
87306SOL    HW263816   8.129   1.793   8.708
87307SOL     OW63817   2.098   1.993   7.019
87307SOL    HW163818   2.134   1.904   7.016
87307SOL    HW263819   2.167   2.046   7.059
87308SOL     OW63820   0.271  12.391  11.319
87308SOL    HW163821   0.255  12.309  11.364
87308SOL    HW263822   0.186  12.414  11.280
87309SOL     OW63823  12.864  12.344   4.347
87309SOL    HW163824  12.833  12.285   4.278
87309SOL    HW263825  12.942  12.302   4.382
87310SOL     OW63826   9.524   1.526   8.587
87310SOL    HW163827   9.526   1.554   8.496
87310SOL    HW263828   9.606   1.479   8.600
87311SOL     OW63829   7.274   2.742   8.249
87311SOL    HW163830   7.227   2.821   8.223
87311SOL    HW263831   7.343   2.733   8.183
87312SOL     OW63832   1.460   5.019   9.771
87312SOL    HW163833   1.475   4.924   9.770
87312SOL    HW263834   1.375   5.030   9.729
87313SOL     OW63835   9.034   4.017   2.384
87313SOL    HW163836   8.954   4.069   2.383
87313SOL    HW263837   9.005   3.928   2.364
87314SOL     OW63838  12.683   3.516  10.260
87314SOL    HW163839  12.677   3.424  10.286
87314SOL    HW263840  12.777   3.535  10.260
87315SOL     OW63841   8.487   7.814   7.717
87315SOL    HW163842   8.419   7.855   7.772
87315SOL    HW263843   8.444   7.801   7.633
87316SOL     OW63844  10.094  10.574  13.764
87316SOL    HW163845  10.121  10.638  13.829
87316SOL    HW263846  10.022  10.615  13.717
87317SOL     OW63847   2.825  12.838   3.460
87317SOL    HW163848   2.866  12.767   3.511
87317SOL    HW263849   2.890  12.860   3.394
87318SOL     OW63850   3.914   9.323  14.051
87318SOL    HW163851   3.936   9.377  14.126
87318SOL    HW263852   3.986   9.260  14.045
87319SOL     OW63853   8.505  14.481   9.172
87319SOL    HW163854   8.560  14.559   9.172
87319SOL    HW263855   8.443  14.495   9.244
87320SOL     OW63856   9.135   3.380   1.621
87320SOL    HW163857   9.133   3.468   1.583
87320SOL    HW263858   9.226   3.366   1.645
87321SOL     OW63859   8.625  11.421   7.228
87321SOL    HW163860   8.656  11.488   7.167
87321SOL    HW263861   8.666  11.444   7.312
87322SOL     OW63862   8.610   3.604   2.044
87322SOL    HW163863   8.531   3.657   2.051
87322SOL    HW263864   8.663   3.647   1.977
87323SOL     OW63865   2.365  11.873  10.467
87323SOL    HW163866   2.361  11.802  10.403
87323SOL    HW263867   2.437  11.849  10.525
87324SOL     OW63868   2.550  11.158  10.098
87324SOL    HW163869   2.631  11.207  10.098
87324SOL    HW263870   2.508  11.178  10.014
87325SOL     OW63871  10.754   9.210   8.554
87325SOL    HW163872  10.748   9.121   8.519
87325SOL    HW263873  10.775   9.198   8.646
87326SOL     OW63874   3.646   2.625  13.055
87326SOL    HW163875   3.698   2.594  12.980
87326SOL    HW263876   3.555   2.606  13.030
87327SOL     OW63877   0.330   3.391  11.062
87327SOL    HW163878   0.248   3.369  11.017
87327SOL    HW263879   0.375   3.451  11.002
87328SOL     OW63880   9.471   0.872   5.160
87328SOL    HW163881   9.494   0.779   5.169
87328SOL    HW263882   9.433   0.895   5.244
87329SOL     OW63883  13.254   5.143   1.903
87329SOL    HW163884  13.184   5.081   1.884
87329SOL    HW263885  13.315   5.135   1.829
87330SOL     OW63886   1.576   5.875  12.178
87330SOL    HW163887   1.653   5.932  12.185
87330SOL    HW263888   1.612   5.786  12.184
87331SOL     OW63889  13.871   3.597  12.394
87331SOL    HW163890  13.852   3.618  12.303
87331SOL    HW263891  13.792   3.624  12.442
87332SOL     OW63892  13.475  13.143   8.255
87332SOL    HW163893  13.509  13.213   8.310
87332SOL    HW263894  13.486  13.175   8.165
87333SOL     OW63895   9.673   1.757  11.757
87333SOL    HW163896   9.626   1.759  11.840
87333SOL    HW263897   9.721   1.674  11.758
87334SOL     OW63898  11.079   3.196   3.813
87334SOL    HW163899  11.136   3.252   3.761
87334SOL    HW263900  11.111   3.205   3.903
87335SOL     OW63901  12.992  13.362   8.769
87335SOL    HW163902  13.051  13.350   8.694
87335SOL    HW263903  13.018  13.293   8.831
87336SOL     OW63904  14.098  14.471   8.070
87336SOL    HW163905  14.187  14.487   8.099
87336SOL    HW263906  14.107  14.447   7.978
87337SOL     OW63907   6.483   0.560   7.753
87337SOL    HW163908   6.503   0.643   7.795
87337SOL    HW263909   6.430   0.513   7.817
87338SOL     OW63910   8.868   2.687   5.319
87338SOL    HW163911   8.945   2.734   5.287
87338SOL    HW263912   8.794   2.745   5.299
87339SOL     OW63913   2.538   7.918   1.457
87339SOL    HW163914   2.512   7.874   1.538
87339SOL    HW263915   2.551   8.009   1.483
87340SOL     OW63916   8.225   7.128   4.861
87340SOL    HW163917   8.205   7.147   4.953
87340SOL    HW263918   8.187   7.202   4.813
87341SOL     OW63919  13.390   9.571  13.183
87341SOL    HW163920  13.313   9.627  13.174
87341SOL    HW263921  13.422   9.559  13.094
87342SOL     OW63922   6.247   8.090  10.509
87342SOL    HW163923   6.174   8.144  10.477
87342SOL    HW263924   6.205   8.009  10.539
87343SOL     OW63925   3.710  13.097   2.483
87343SOL    HW163926   3.782  13.040   2.456
87343SOL    HW263927   3.711  13.094   2.578
87344SOL     OW63928  10.912   6.007   6.636
87344SOL    HW163929  10.846   6.027   6.701
87344SOL    HW263930  10.927   5.912   6.644
87345SOL     OW63931  10.954  13.965   9.658
87345SOL    HW163932  10.984  13.911   9.731
87345SOL    HW263933  11.025  13.960   9.595
87346SOL     OW63934   0.317  10.664   0.095
87346SOL    HW163935   0.318  10.589   0.035
87346SOL    HW263936   0.393  10.716   0.069
87347SOL     OW63937   4.620  12.392  12.839
87347SOL    HW163938   4.698  12.441  12.865
87347SOL    HW263939   4.560  12.459  12.806
87348SOL     OW63940   9.847  10.496   5.657
87348SOL    HW163941   9.848  10.401   5.666
87348SOL    HW263942   9.754  10.519   5.655
87349SOL     OW63943   6.116   7.386  14.168
87349SOL    HW163944   6.184   7.361  14.232
87349SOL    HW263945   6.152   7.462  14.124
87350SOL     OW63946   7.940   0.484   1.186
87350SOL    HW163947   7.911   0.483   1.277
87350SOL    HW263948   8.003   0.413   1.180
87351SOL     OW63949  11.504  12.783   8.241
87351SOL    HW163950  11.467  12.708   8.288
87351SOL    HW263951  11.506  12.854   8.306
87352SOL     OW63952   7.317   3.910   9.283
87352SOL    HW163953   7.357   3.834   9.241
87352SOL    HW263954   7.321   3.979   9.218
87353SOL     OW63955   8.935   3.711  10.873
87353SOL    HW163956   9.011   3.698  10.929
87353SOL    HW263957   8.891   3.787  10.911
87354SOL     OW63958  12.776   9.639   5.287
87354SOL    HW163959  12.866   9.607   5.280
87354SOL    HW263960  12.780   9.709   5.353
87355SOL     OW63961   5.508   0.834  10.814
87355SOL    HW163962   5.421   0.796  10.817
87355SOL    HW263963   5.552   0.789  10.742
87356SOL     OW63964   1.199  11.770  14.665
87356SOL    HW163965   1.132  11.755  14.731
87356SOL    HW263966   1.277  11.727  14.700
87357SOL     OW63967   3.108  14.444  11.637
87357SOL    HW163968   3.126  14.445  11.543
87357SOL    HW263969   3.107  14.537  11.662
87358SOL     OW63970  10.958   3.796  10.616
87358SOL    HW163971  10.946   3.743  10.537
87358SOL    HW263972  10.911   3.748  10.684
87359SOL     OW63973  10.232  13.710   9.522
87359SOL    HW163974  10.239  13.626   9.476
87359SOL    HW263975  10.321  13.727   9.554
87360SOL     OW63976  13.954   6.290   7.850
87360SOL    HW163977  14.017   6.235   7.896
87360SOL    HW263978  13.868   6.254   7.873
87361SOL     OW63979  12.592  13.929   0.373
87361SOL    HW163980  12.553  14.015   0.390
87361SOL    HW263981  12.576  13.880   0.454
87362SOL     OW63982  12.086   9.474   6.507
87362SOL    HW163983  12.038   9.392   6.503
87362SOL    HW263984  12.093   9.502   6.416
87363SOL     OW63985   7.357   2.541   4.519
87363SOL    HW163986   7.375   2.456   4.478
87363SOL    HW263987   7.440   2.565   4.560
87364SOL     OW63988   5.864   8.435  14.470
87364SOL    HW163989   5.786   8.467  14.516
87364SOL    HW263990   5.879   8.348  14.506
87365SOL     OW63991  14.021   5.019   5.900
87365SOL    HW163992  13.950   5.043   5.959
87365SOL    HW263993  13.981   5.018   5.813
87366SOL     OW63994   8.732  13.538  13.072
87366SOL    HW163995   8.826  13.520  13.072
87366SOL    HW263996   8.707  13.536  13.164
87367SOL     OW63997  14.379  10.722   3.964
87367SOL    HW163998  14.446  10.663   3.998
87367SOL    HW263999  14.375  10.703   3.870
87368SOL     OW64000  11.203  11.304  11.587
87368SOL    HW164001  11.189  11.219  11.629
87368SOL    HW264002  11.280  11.340  11.631
87369SOL     OW64003   3.344   6.561  10.583
87369SOL    HW164004   3.403   6.506  10.634
87369SOL    HW264005   3.308   6.623  10.647
87370SOL     OW64006  14.573  11.938   1.320
87370SOL    HW164007  14.604  11.886   1.394
87370SOL    HW264008  14.527  11.874   1.265
87371SOL     OW64009   2.830   1.967  14.720
87371SOL    HW164010   2.789   1.937  14.639
87371SOL    HW264011   2.777   1.928  14.790
87372SOL     OW64012  13.060   7.402   5.996
87372SOL    HW164013  13.006   7.366   5.925
87372SOL    HW264014  13.024   7.489   6.011
87373SOL     OW64015   3.534   7.966   7.453
87373SOL    HW164016   3.603   7.904   7.429
87373SOL    HW264017   3.460   7.940   7.398
87374SOL     OW64018  12.034   1.961  12.293
87374SOL    HW164019  12.035   1.878  12.245
87374SOL    HW264020  12.119   1.965  12.336
87375SOL     OW64021   3.790  14.629  13.197
87375SOL    HW164022   3.797  14.535  13.182
87375SOL    HW264023   3.733  14.637  13.274
87376SOL     OW64024   6.000   2.461  13.523
87376SOL    HW164025   6.003   2.374  13.482
87376SOL    HW264026   5.906   2.476  13.538
87377SOL     OW64027  14.310   2.607  13.197
87377SOL    HW164028  14.319   2.703  13.192
87377SOL    HW264029  14.399   2.574  13.186
87378SOL     OW64030   0.076   2.222   5.802
87378SOL    HW164031   0.131   2.143   5.805
87378SOL    HW264032   0.003   2.198   5.746
87379SOL     OW64033   5.878   2.290  14.611
87379SOL    HW164034   5.910   2.200  14.616
87379SOL    HW264035   5.791   2.282  14.571
87380SOL     OW64036  13.203  14.805  12.090
87380SOL    HW164037  13.251  14.739  12.040
87380SOL    HW264038  13.267  14.875  12.105
87381SOL     OW64039  12.336   0.827   1.661
87381SOL    HW164040  12.335   0.752   1.721
87381SOL    HW264041  12.263   0.882   1.689
87382SOL     OW64042   8.954  13.153   6.095
87382SOL    HW164043   8.935  13.243   6.069
87382SOL    HW264044   8.883  13.130   6.155
87383SOL     OW64045  13.174  14.349  13.405
87383SOL    HW164046  13.190  14.333  13.498
87383SOL    HW264047  13.095  14.298  13.385
87384SOL     OW64048  14.806  13.892   6.304
87384SOL    HW164049  14.778  13.821   6.246
87384SOL    HW264050  14.873  13.852   6.359
87385SOL     OW64051   1.853  12.962   5.077
87385SOL    HW164052   1.920  12.997   5.019
87385SOL    HW264053   1.874  12.870   5.087
87386SOL     OW64054  12.236  10.812   7.365
87386SOL    HW164055  12.220  10.719   7.357
87386SOL    HW264056  12.157  10.847   7.406
87387SOL     OW64057   7.023  13.232   9.531
87387SOL    HW164058   7.011  13.185   9.614
87387SOL    HW264059   7.051  13.164   9.469
87388SOL     OW64060  12.745   6.389   6.659
87388SOL    HW164061  12.652   6.407   6.641
87388SOL    HW264062  12.786   6.383   6.573
87389SOL     OW64063   1.877   3.302   4.718
87389SOL    HW164064   1.850   3.211   4.702
87389SOL    HW264065   1.966   3.306   4.685
87390SOL     OW64066  12.297  10.436   7.781
87390SOL    HW164067  12.386  10.463   7.805
87390SOL    HW264068  12.309  10.352   7.736
87391SOL     OW64069   1.666   5.913   5.523
87391SOL    HW164070   1.759   5.894   5.538
87391SOL    HW264071   1.627   5.828   5.506
87392SOL     OW64072  10.054   2.669   5.752
87392SOL    HW164073   9.989   2.722   5.798
87392SOL    HW264074  10.127   2.728   5.737
87393SOL     OW64075   3.043  11.624   8.405
87393SOL    HW164076   3.054  11.710   8.364
87393SOL    HW264077   2.951  11.621   8.430
87394SOL     OW64078   3.132   9.358  14.365
87394SOL    HW164079   3.101   9.394  14.282
87394SOL    HW264080   3.163   9.434  14.415
87395SOL     OW64081  13.631   4.611   4.218
87395SOL    HW164082  13.689   4.535   4.222
87395SOL    HW264083  13.678   4.679   4.266
87396SOL     OW64084   5.871   9.549   6.629
87396SOL    HW164085   5.837   9.531   6.541
87396SOL    HW264086   5.836   9.479   6.683
87397SOL     OW64087   6.023   6.899   8.507
87397SOL    HW164088   6.057   6.819   8.467
87397SOL    HW264089   5.939   6.873   8.545
87398SOL     OW64090   6.940  10.246   4.680
87398SOL    HW164091   6.984  10.256   4.595
87398SOL    HW264092   6.863  10.193   4.660
87399SOL     OW64093   3.400   5.368   9.434
87399SOL    HW164094   3.468   5.301   9.441
87399SOL    HW264095   3.351   5.362   9.515
87400SOL     OW64096   2.287   2.068   0.919
87400SOL    HW164097   2.369   2.029   0.952
87400SOL    HW264098   2.236   2.085   0.998
87401SOL     OW64099  12.305  13.551   0.535
87401SOL    HW164100  12.293  13.645   0.517
87401SOL    HW264101  12.220  13.513   0.513
87402SOL     OW64102  13.788   9.011   5.028
87402SOL    HW164103  13.850   8.939   5.040
87402SOL    HW264104  13.703   8.971   5.047
87403SOL     OW64105   9.900  11.622  14.354
87403SOL    HW164106   9.845  11.643  14.430
87403SOL    HW264107   9.981  11.669  14.370
87404SOL     OW64108   9.668   6.798   4.074
87404SOL    HW164109   9.698   6.708   4.067
87404SOL    HW264110   9.578   6.796   4.041
87405SOL     OW64111  11.818  13.444   7.941
87405SOL    HW164112  11.830  13.463   7.848
87405SOL    HW264113  11.878  13.503   7.985
87406SOL     OW64114   9.836   9.570   6.751
87406SOL    HW164115   9.760   9.578   6.808
87406SOL    HW264116   9.803   9.587   6.663
87407SOL     OW64117  12.963   8.608  13.343
87407SOL    HW164118  12.969   8.703  13.353
87407SOL    HW264119  12.931   8.595  13.254
87408SOL     OW64120  10.165   0.462  14.738
87408SOL    HW164121  10.079   0.479  14.776
87408SOL    HW264122  10.185   0.540  14.686
87409SOL     OW64123   7.265   3.456  14.764
87409SOL    HW164124   7.305   3.490  14.844
87409SOL    HW264125   7.231   3.533  14.719
87410SOL     OW64126   8.871   8.938  11.891
87410SOL    HW164127   8.782   8.949  11.925
87410SOL    HW264128   8.905   8.863  11.938
87411SOL     OW64129  13.777   0.638   8.564
87411SOL    HW164130  13.863   0.675   8.544
87411SOL    HW264131  13.749   0.598   8.481
87412SOL     OW64132  10.842   3.999   3.544
87412SOL    HW164133  10.859   3.990   3.637
87412SOL    HW264134  10.822   4.092   3.532
87413SOL     OW64135   4.750   5.698   8.541
87413SOL    HW164136   4.832   5.741   8.564
87413SOL    HW264137   4.686   5.731   8.604
87414SOL     OW64138   2.283  14.621   6.540
87414SOL    HW164139   2.344  14.694   6.534
87414SOL    HW264140   2.320  14.564   6.607
87415SOL     OW64141  11.886   3.190   4.204
87415SOL    HW164142  11.880   3.157   4.115
87415SOL    HW264143  11.869   3.284   4.196
87416SOL     OW64144   5.012   9.979   6.479
87416SOL    HW164145   5.082   9.926   6.441
87416SOL    HW264146   5.030   9.979   6.573
87417SOL     OW64147  10.985   2.733   4.847
87417SOL    HW164148  10.965   2.644   4.817
87417SOL    HW264149  11.076   2.729   4.876
87418SOL     OW64150   5.837  10.598   4.571
87418SOL    HW164151   5.772  10.639   4.628
87418SOL    HW264152   5.785  10.549   4.507
87419SOL     OW64153  13.381  14.052   1.753
87419SOL    HW164154  13.356  14.127   1.807
87419SOL    HW264155  13.386  14.088   1.664
87420SOL     OW64156   1.235   7.620   6.393
87420SOL    HW164157   1.294   7.660   6.329
87420SOL    HW264158   1.287   7.612   6.473
87421SOL     OW64159   6.976   9.206  12.626
87421SOL    HW164160   7.050   9.153  12.657
87421SOL    HW264161   6.907   9.142  12.609
87422SOL     OW64162  12.979   0.324   8.009
87422SOL    HW164163  12.888   0.328   8.039
87422SOL    HW264164  13.023   0.395   8.056
87423SOL     OW64165   3.178  11.398   0.077
87423SOL    HW164166   3.182  11.493   0.067
87423SOL    HW264167   3.115  11.384   0.148
87424SOL     OW64168   9.717  13.010   2.866
87424SOL    HW164169   9.736  13.045   2.779
87424SOL    HW264170   9.655  13.072   2.904
87425SOL     OW64171   7.719   4.648   0.994
87425SOL    HW164172   7.684   4.569   1.034
87425SOL    HW264173   7.642   4.704   0.981
87426SOL     OW64174  13.334  10.287   7.815
87426SOL    HW164175  13.357  10.254   7.728
87426SOL    HW264176  13.241  10.309   7.808
87427SOL     OW64177   4.631  13.638   6.973
87427SOL    HW164178   4.551  13.595   6.943
87427SOL    HW264179   4.669  13.578   7.037
87428SOL     OW64180   6.698   2.177   0.425
87428SOL    HW164181   6.756   2.249   0.449
87428SOL    HW264182   6.638   2.169   0.499
87429SOL     OW64183   4.218   2.529   4.386
87429SOL    HW164184   4.314   2.532   4.390
87429SOL    HW264185   4.193   2.610   4.342
87430SOL     OW64186  12.032   8.758   3.469
87430SOL    HW164187  12.052   8.728   3.558
87430SOL    HW264188  12.008   8.678   3.422
87431SOL     OW64189  12.896   8.719   1.401
87431SOL    HW164190  12.841   8.797   1.402
87431SOL    HW264191  12.843   8.651   1.444
87432SOL     OW64192  14.079   7.064  14.276
87432SOL    HW164193  14.052   7.155  14.271
87432SOL    HW264194  14.025   7.019  14.210
87433SOL     OW64195  13.496   8.820  12.865
87433SOL    HW164196  13.467   8.779  12.947
87433SOL    HW264197  13.415   8.836  12.817
87434SOL     OW64198  10.748   1.746   5.612
87434SOL    HW164199  10.714   1.657   5.620
87434SOL    HW264200  10.789   1.764   5.697
87435SOL     OW64201  13.327  10.520   3.878
87435SOL    HW164202  13.362  10.604   3.908
87435SOL    HW264203  13.372  10.455   3.933
87436SOL     OW64204   0.418   4.886   1.911
87436SOL    HW164205   0.503   4.925   1.894
87436SOL    HW264206   0.388   4.855   1.826
87437SOL     OW64207   5.669   4.686   5.304
87437SOL    HW164208   5.679   4.781   5.299
87437SOL    HW264209   5.733   4.657   5.368
87438SOL     OW64210  11.575   5.185  13.155
87438SOL    HW164211  11.541   5.200  13.243
87438SOL    HW264212  11.591   5.272  13.119
87439SOL     OW64213  14.452  10.423  10.274
87439SOL    HW164214  14.545  10.415  10.254
87439SOL    HW264215  14.439  10.369  10.352
87440SOL     OW64216   0.488   6.947  13.524
87440SOL    HW164217   0.490   6.891  13.446
87440SOL    HW264218   0.401   6.933  13.561
87441SOL     OW64219   5.521   6.655   0.487
87441SOL    HW164220   5.603   6.704   0.475
87441SOL    HW264221   5.546   6.563   0.476
87442SOL     OW64222  13.892   4.842  11.989
87442SOL    HW164223  13.818   4.807  12.040
87442SOL    HW264224  13.886   4.796  11.905
87443SOL     OW64225  10.711   1.975   8.334
87443SOL    HW164226  10.767   2.049   8.314
87443SOL    HW264227  10.771   1.902   8.350
87444SOL     OW64228   5.024   3.124   8.291
87444SOL    HW164229   5.079   3.051   8.262
87444SOL    HW264230   4.976   3.090   8.367
87445SOL     OW64231   9.368   3.716   3.355
87445SOL    HW164232   9.280   3.731   3.320
87445SOL    HW264233   9.395   3.632   3.318
87446SOL     OW64234  13.784  10.651  13.839
87446SOL    HW164235  13.767  10.741  13.867
87446SOL    HW264236  13.700  10.619  13.807
87447SOL     OW64237  13.382  11.161  10.799
87447SOL    HW164238  13.384  11.244  10.751
87447SOL    HW264239  13.379  11.094  10.731
87448SOL     OW64240   0.524   7.935   9.446
87448SOL    HW164241   0.458   7.873   9.413
87448SOL    HW264242   0.550   7.899   9.531
87449SOL     OW64243   6.993   0.649   8.077
87449SOL    HW164244   7.012   0.730   8.125
87449SOL    HW264245   7.062   0.644   8.010
87450SOL     OW64246   4.293  10.030   6.779
87450SOL    HW164247   4.376  10.000   6.743
87450SOL    HW264248   4.312  10.045   6.872
87451SOL     OW64249  12.409   9.972  11.450
87451SOL    HW164250  12.337   9.971  11.513
87451SOL    HW264251  12.485   9.998  11.501
87452SOL     OW64252  14.773  14.608   3.820
87452SOL    HW164253  14.734  14.653   3.745
87452SOL    HW264254  14.731  14.648   3.896
87453SOL     OW64255  11.651   0.312   9.117
87453SOL    HW164256  11.633   0.246   9.051
87453SOL    HW264257  11.639   0.266   9.201
87454SOL     OW64258   9.600   7.928   2.520
87454SOL    HW164259   9.572   8.015   2.549
87454SOL    HW264260   9.599   7.874   2.599
87455SOL     OW64261   6.664   5.571  11.147
87455SOL    HW164262   6.641   5.608  11.062
87455SOL    HW264263   6.622   5.485  11.149
87456SOL     OW64264   5.545  13.835   4.971
87456SOL    HW164265   5.629  13.814   4.930
87456SOL    HW264266   5.491  13.868   4.899
87457SOL     OW64267   9.499   5.456   7.533
87457SOL    HW164268   9.420   5.451   7.587
87457SOL    HW264269   9.570   5.471   7.595
87458SOL     OW64270  11.589   9.233  14.281
87458SOL    HW164271  11.545   9.212  14.199
87458SOL    HW264272  11.589   9.329  14.285
87459SOL     OW64273   5.876   2.270   0.748
87459SOL    HW164274   5.861   2.363   0.762
87459SOL    HW264275   5.888   2.234   0.836
87460SOL     OW64276  13.397   6.018   5.764
87460SOL    HW164277  13.392   6.074   5.842
87460SOL    HW264278  13.320   6.041   5.713
87461SOL     OW64279   2.188  10.320   5.384
87461SOL    HW164280   2.266  10.305   5.438
87461SOL    HW264281   2.142  10.237   5.385
87462SOL     OW64282  13.496   8.226  14.253
87462SOL    HW164283  13.451   8.309  14.237
87462SOL    HW264284  13.438   8.160  14.217
87463SOL     OW64285   4.639   3.796   2.253
87463SOL    HW164286   4.646   3.709   2.216
87463SOL    HW264287   4.545   3.810   2.266
87464SOL     OW64288  14.407   1.484   2.740
87464SOL    HW164289  14.428   1.564   2.789
87464SOL    HW264290  14.323   1.455   2.775
87465SOL     OW64291   6.036   8.327  14.183
87465SOL    HW164292   5.994   8.244  14.208
87465SOL    HW264293   6.056   8.369  14.267
87466SOL     OW64294   2.128  12.765   1.222
87466SOL    HW164295   2.204  12.721   1.261
87466SOL    HW264296   2.160  12.796   1.137
87467SOL     OW64297  11.059   5.159   3.245
87467SOL    HW164298  11.045   5.206   3.162
87467SOL    HW264299  10.978   5.110   3.259
87468SOL     OW64300   0.519  12.430   7.986
87468SOL    HW164301   0.428  12.441   8.013
87468SOL    HW264302   0.555  12.364   8.045
87469SOL     OW64303   5.485   4.828   1.667
87469SOL    HW164304   5.543   4.897   1.635
87469SOL    HW264305   5.405   4.874   1.694
87470SOL     OW64306   2.914   1.748  12.036
87470SOL    HW164307   2.821   1.773  12.040
87470SOL    HW264308   2.944   1.755  12.127
87471SOL     OW64309   0.392   9.006  11.847
87471SOL    HW164310   0.368   9.035  11.935
87471SOL    HW264311   0.419   8.915  11.858
87472SOL     OW64312   3.489  13.118  11.691
87472SOL    HW164313   3.490  13.113  11.595
87472SOL    HW264314   3.408  13.074  11.716
87473SOL     OW64315   7.767  14.438   4.335
87473SOL    HW164316   7.719  14.371   4.384
87473SOL    HW264317   7.714  14.517   4.345
87474SOL     OW64318  11.125   1.645   9.554
87474SOL    HW164319  11.107   1.600   9.471
87474SOL    HW264320  11.062   1.716   9.557
87475SOL     OW64321   3.260   8.679  14.588
87475SOL    HW164322   3.276   8.634  14.505
87475SOL    HW264323   3.224   8.612  14.645
87476SOL     OW64324   8.038  13.564   7.575
87476SOL    HW164325   7.951  13.546   7.540
87476SOL    HW264326   8.058  13.653   7.546
87477SOL     OW64327   9.456   7.470  13.423
87477SOL    HW164328   9.422   7.433  13.342
87477SOL    HW264329   9.490   7.556  13.398
87478SOL     OW64330  13.886   7.700   2.012
87478SOL    HW164331  13.932   7.738   2.086
87478SOL    HW264332  13.953   7.688   1.945
87479SOL     OW64333   9.495   0.834   8.977
87479SOL    HW164334   9.564   0.834   8.911
87479SOL    HW264335   9.459   0.923   8.974
87480SOL     OW64336   8.121   2.878   6.788
87480SOL    HW164337   8.177   2.932   6.845
87480SOL    HW264338   8.040   2.868   6.837
87481SOL     OW64339   4.304  12.371  13.334
87481SOL    HW164340   4.293  12.406  13.245
87481SOL    HW264341   4.215  12.349  13.362
87482SOL     OW64342  10.395   8.640   8.886
87482SOL    HW164343  10.447   8.569   8.850
87482SOL    HW264344  10.423   8.646   8.978
87483SOL     OW64345  14.841   3.240   5.682
87483SOL    HW164346  14.836   3.331   5.713
87483SOL    HW264347  14.870   3.190   5.758
87484SOL     OW64348   0.642   1.407   7.706
87484SOL    HW164349   0.573   1.365   7.758
87484SOL    HW264350   0.717   1.412   7.765
87485SOL     OW64351   1.836  10.310  11.302
87485SOL    HW164352   1.833  10.245  11.372
87485SOL    HW264353   1.816  10.261  11.222
87486SOL     OW64354   7.170   7.245  14.076
87486SOL    HW164355   7.180   7.171  14.136
87486SOL    HW264356   7.259   7.266  14.047
87487SOL     OW64357  10.553   7.930  12.018
87487SOL    HW164358  10.519   7.991  11.952
87487SOL    HW264359  10.477   7.877  12.042
87488SOL     OW64360   1.544   4.422   6.509
87488SOL    HW164361   1.490   4.357   6.556
87488SOL    HW264362   1.504   4.506   6.531
87489SOL     OW64363  14.309   6.411   6.428
87489SOL    HW164364  14.294   6.316   6.423
87489SOL    HW264365  14.369   6.422   6.502
87490SOL     OW64366  12.480   8.671   6.472
87490SOL    HW164367  12.557   8.723   6.450
87490SOL    HW264368  12.515   8.595   6.519
87491SOL     OW64369  11.696  12.507   6.816
87491SOL    HW164370  11.610  12.465   6.813
87491SOL    HW264371  11.707  12.533   6.907
87492SOL     OW64372   8.156   6.786   5.992
87492SOL    HW164373   8.088   6.842   6.029
87492SOL    HW264374   8.117   6.698   5.993
87493SOL     OW64375   5.063   9.990   3.404
87493SOL    HW164376   4.990  10.012   3.461
87493SOL    HW264377   5.089   9.902   3.430
87494SOL     OW64378   4.102   5.643   1.855
87494SOL    HW164379   4.048   5.612   1.928
87494SOL    HW264380   4.192   5.623   1.881
87495SOL     OW64381   7.876   7.001  14.382
87495SOL    HW164382   7.930   7.069  14.342
87495SOL    HW264383   7.927   6.921  14.373
87496SOL     OW64384  14.282   5.882   8.793
87496SOL    HW164385  14.270   5.960   8.847
87496SOL    HW264386  14.377   5.875   8.781
87497SOL     OW64387   8.822  13.950   0.268
87497SOL    HW164388   8.857  13.890   0.334
87497SOL    HW264389   8.756  13.898   0.221
87498SOL     OW64390   1.065   6.382   8.041
87498SOL    HW164391   1.006   6.325   7.991
87498SOL    HW264392   1.120   6.322   8.090
87499SOL     OW64393  10.311   3.963   2.231
87499SOL    HW164394  10.295   3.994   2.142
87499SOL    HW264395  10.318   4.043   2.284
87500SOL     OW64396   6.316  13.867   0.287
87500SOL    HW164397   6.249  13.903   0.229
87500SOL    HW264398   6.364  13.805   0.233
87501SOL     OW64399   6.678   6.439   1.835
87501SOL    HW164400   6.673   6.535   1.837
87501SOL    HW264401   6.712   6.419   1.748
87502SOL     OW64402   2.220   7.517   2.576
87502SOL    HW164403   2.259   7.603   2.590
87502SOL    HW264404   2.293   7.455   2.587
87503SOL     OW64405   3.363   8.573   8.451
87503SOL    HW164406   3.416   8.636   8.401
87503SOL    HW264407   3.361   8.495   8.396
87504SOL     OW64408   2.889  10.506   4.561
87504SOL    HW164409   2.811  10.489   4.508
87504SOL    HW264410   2.909  10.421   4.601
87505SOL     OW64411   5.989  13.886   1.878
87505SOL    HW164412   6.063  13.912   1.933
87505SOL    HW264413   5.989  13.790   1.880
87506SOL     OW64414  10.716  13.861  10.709
87506SOL    HW164415  10.687  13.795  10.646
87506SOL    HW264416  10.750  13.810  10.783
87507SOL     OW64417   7.811   5.734   0.259
87507SOL    HW164418   7.876   5.801   0.238
87507SOL    HW264419   7.727   5.777   0.242
87508SOL     OW64420   8.789  10.361   2.833
87508SOL    HW164421   8.801  10.437   2.890
87508SOL    HW264422   8.736  10.395   2.761
87509SOL     OW64423  11.399  13.474   0.096
87509SOL    HW164424  11.437  13.459   0.010
87509SOL    HW264425  11.323  13.529   0.079
87510SOL     OW64426  11.024  12.656   8.570
87510SOL    HW164427  11.118  12.641   8.583
87510SOL    HW264428  11.007  12.740   8.612
87511SOL     OW64429   2.073  12.504  11.064
87511SOL    HW164430   1.979  12.495  11.080
87511SOL    HW264431   2.088  12.598  11.066
87512SOL     OW64432  14.315  11.558   0.077
87512SOL    HW164433  14.386  11.497   0.057
87512SOL    HW264434  14.319  11.571   0.171
87513SOL     OW64435   9.100  10.001   6.600
87513SOL    HW164436   9.154  10.076   6.623
87513SOL    HW264437   9.160   9.926   6.603
87514SOL     OW64438   9.338  10.823  14.297
87514SOL    HW164439   9.280  10.825  14.373
87514SOL    HW264440   9.308  10.748  14.246
87515SOL     OW64441   7.432   7.801   5.889
87515SOL    HW164442   7.399   7.755   5.966
87515SOL    HW264443   7.463   7.885   5.923
87516SOL     OW64444  14.243   7.722  13.390
87516SOL    HW164445  14.178   7.765  13.446
87516SOL    HW264446  14.197   7.646  13.354
87517SOL     OW64447   7.701   3.430   1.580
87517SOL    HW164448   7.720   3.339   1.602
87517SOL    HW264449   7.702   3.476   1.664
87518SOL     OW64450   8.142   5.031   9.612
87518SOL    HW164451   8.169   5.123   9.618
87518SOL    HW264452   8.131   5.003   9.702
87519SOL     OW64453  13.664   2.527   4.633
87519SOL    HW164454  13.735   2.555   4.575
87519SOL    HW264455  13.675   2.432   4.640
87520SOL     OW64456  11.737   5.941   2.627
87520SOL    HW164457  11.803   5.905   2.685
87520SOL    HW264458  11.775   5.931   2.539
87521SOL     OW64459   9.961   8.263  14.078
87521SOL    HW164460  10.016   8.300  14.009
87521SOL    HW264461   9.974   8.169  14.072
87522SOL     OW64462   9.352  13.361  14.484
87522SOL    HW164463   9.355  13.445  14.530
87522SOL    HW264464   9.444  13.340  14.466
87523SOL     OW64465   2.748  11.690  10.920
87523SOL    HW164466   2.686  11.693  10.993
87523SOL    HW264467   2.760  11.596  10.903
87524SOL     OW64468   2.112   3.308   5.023
87524SOL    HW164469   2.127   3.315   4.929
87524SOL    HW264470   2.017   3.302   5.032
87525SOL     OW64471   4.427  11.342  12.517
87525SOL    HW164472   4.488  11.371  12.450
87525SOL    HW264473   4.450  11.394  12.594
87526SOL     OW64474  14.069  11.943   7.914
87526SOL    HW164475  13.988  11.919   7.868
87526SOL    HW264476  14.136  11.888   7.876
87527SOL     OW64477  13.183   8.101   3.016
87527SOL    HW164478  13.174   8.196   3.016
87527SOL    HW264479  13.244   8.084   3.088
87528SOL     OW64480   8.713  12.620   0.531
87528SOL    HW164481   8.730  12.708   0.564
87528SOL    HW264482   8.760  12.616   0.448
87529SOL     OW64483   4.690   2.253   6.854
87529SOL    HW164484   4.629   2.192   6.814
87529SOL    HW264485   4.770   2.245   6.801
87530SOL     OW64486  12.352   3.151   9.317
87530SOL    HW164487  12.426   3.188   9.269
87530SOL    HW264488  12.368   3.176   9.408
87531SOL     OW64489  10.376  11.862   1.233
87531SOL    HW164490  10.281  11.859   1.221
87531SOL    HW264491  10.393  11.947   1.272
87532SOL     OW64492  13.062   1.282   5.156
87532SOL    HW164493  12.981   1.283   5.207
87532SOL    HW264494  13.033   1.282   5.065
87533SOL     OW64495   8.147  12.337  14.365
87533SOL    HW164496   8.195  12.398  14.309
87533SOL    HW264497   8.209  12.316  14.436
87534SOL     OW64498  12.380  12.749   7.779
87534SOL    HW164499  12.407  12.697   7.854
87534SOL    HW264500  12.391  12.690   7.704
87535SOL     OW64501   3.490  14.578  10.944
87535SOL    HW164502   3.564  14.564  10.884
87535SOL    HW264503   3.499  14.509  11.010
87536SOL     OW64504  11.007  13.973   1.617
87536SOL    HW164505  11.055  13.969   1.700
87536SOL    HW264506  11.067  14.016   1.557
87537SOL     OW64507  12.283   2.259  12.041
87537SOL    HW164508  12.350   2.192  12.055
87537SOL    HW264509  12.237   2.230  11.962
87538SOL     OW64510   4.687   1.909   0.196
87538SOL    HW164511   4.691   1.892   0.102
87538SOL    HW264512   4.596   1.934   0.212
87539SOL     OW64513  11.449   9.772   4.969
87539SOL    HW164514  11.387   9.752   5.039
87539SOL    HW264515  11.457   9.867   4.970
87540SOL     OW64516   0.007   3.740   5.976
87540SOL    HW164517   0.070   3.732   6.047
87540SOL    HW264518  14.800   3.722   6.017
87541SOL     OW64519   2.092   4.974   2.278
87541SOL    HW164520   2.104   4.914   2.352
87541SOL    HW264521   2.120   5.059   2.311
87542SOL     OW64522   2.215   6.931  10.540
87542SOL    HW164523   2.252   7.015  10.568
87542SOL    HW264524   2.126   6.930  10.576
87543SOL     OW64525   9.859   5.128  10.280
87543SOL    HW164526   9.825   5.209  10.317
87543SOL    HW264527   9.898   5.082  10.355
87544SOL     OW64528   0.721   2.155   3.407
87544SOL    HW164529   0.646   2.172   3.350
87544SOL    HW264530   0.763   2.078   3.369
87545SOL     OW64531   5.315   2.097  11.509
87545SOL    HW164532   5.339   2.035  11.578
87545SOL    HW264533   5.394   2.106  11.456
87546SOL     OW64534  12.726   7.211  11.364
87546SOL    HW164535  12.808   7.195  11.316
87546SOL    HW264536  12.660   7.160  11.316
87547SOL     OW64537   1.078   3.299   1.090
87547SOL    HW164538   1.076   3.212   1.050
87547SOL    HW264539   0.986   3.319   1.109
87548SOL     OW64540   8.440  10.042  13.235
87548SOL    HW164541   8.479  10.038  13.147
87548SOL    HW264542   8.481  10.119  13.276
87549SOL     OW64543   4.695   3.429   8.458
87549SOL    HW164544   4.646   3.360   8.413
87549SOL    HW264545   4.781   3.390   8.475
87550SOL     OW64546  13.212   0.909   3.572
87550SOL    HW164547  13.278   0.878   3.509
87550SOL    HW264548  13.206   1.003   3.555
87551SOL     OW64549   8.325  10.647  10.290
87551SOL    HW164550   8.276  10.574  10.251
87551SOL    HW264551   8.389  10.671  10.222
87552SOL     OW64552   9.454  10.971  13.334
87552SOL    HW164553   9.456  10.894  13.391
87552SOL    HW264554   9.364  11.002  13.338
87553SOL     OW64555   5.172   0.293   4.238
87553SOL    HW164556   5.240   0.338   4.288
87553SOL    HW264557   5.219   0.256   4.163
87554SOL     OW64558   8.162  14.277   8.789
87554SOL    HW164559   8.161  14.204   8.850
87554SOL    HW264560   8.071  14.284   8.759
87555SOL     OW64561  11.984   3.149  13.321
87555SOL    HW164562  11.971   3.126  13.230
87555SOL    HW264563  12.048   3.086  13.354
87556SOL     OW64564   9.664   3.300   6.091
87556SOL    HW164565   9.692   3.245   6.018
87556SOL    HW264566   9.729   3.284   6.159
87557SOL     OW64567  11.572   1.358  14.151
87557SOL    HW164568  11.610   1.413  14.083
87557SOL    HW264569  11.491   1.402  14.175
87558SOL     OW64570   0.676   5.844  12.874
87558SOL    HW164571   0.582   5.836  12.856
87558SOL    HW264572   0.709   5.899  12.802
87559SOL     OW64573  10.960  14.140  14.658
87559SOL    HW164574  11.052  14.116  14.646
87559SOL    HW264575  10.916  14.103  14.581
87560SOL     OW64576   7.543  12.198   2.853
87560SOL    HW164577   7.539  12.103   2.839
87560SOL    HW264578   7.620  12.226   2.802
87561SOL     OW64579   6.476  11.649   1.677
87561SOL    HW164580   6.383  11.632   1.684
87561SOL    HW264581   6.518  11.572   1.715
87562SOL     OW64582   8.387  14.752  10.729
87562SOL    HW164583   8.311  14.809  10.740
87562SOL    HW264584   8.457  14.796  10.777
87563SOL     OW64585   6.478  11.138   5.298
87563SOL    HW164586   6.446  11.138   5.208
87563SOL    HW264587   6.574  11.142   5.288
87564SOL     OW64588  13.082   0.553   9.670
87564SOL    HW164589  13.085   0.648   9.684
87564SOL    HW264590  12.990   0.534   9.654
87565SOL     OW64591   7.780   1.056   7.019
87565SOL    HW164592   7.706   1.032   6.963
87565SOL    HW264593   7.837   0.980   7.018
87566SOL     OW64594   0.871  11.423   8.666
87566SOL    HW164595   0.816  11.498   8.640
87566SOL    HW264596   0.940  11.421   8.599
87567SOL     OW64597   2.915   4.040   4.314
87567SOL    HW164598   2.955   4.042   4.227
87567SOL    HW264599   2.827   4.007   4.300
87568SOL     OW64600   4.817   4.166   4.729
87568SOL    HW164601   4.878   4.182   4.657
87568SOL    HW264602   4.733   4.199   4.698
87569SOL     OW64603   2.605   2.293  11.955
87569SOL    HW164604   2.644   2.242  12.026
87569SOL    HW264605   2.646   2.379  11.961
87570SOL     OW64606  12.688  10.493   9.932
87570SOL    HW164607  12.644  10.421   9.978
87570SOL    HW264608  12.628  10.567   9.941
87571SOL     OW64609   2.083  10.503   2.973
87571SOL    HW164610   2.080  10.416   2.932
87571SOL    HW264611   2.014  10.552   2.929
87572SOL     OW64612  10.189  10.698   3.412
87572SOL    HW164613  10.146  10.767   3.463
87572SOL    HW264614  10.279  10.698   3.444
87573SOL     OW64615  12.886  10.648   8.730
87573SOL    HW164616  12.882  10.628   8.824
87573SOL    HW264617  12.863  10.740   8.724
87574SOL     OW64618   4.472  10.057   2.162
87574SOL    HW164619   4.379  10.074   2.176
87574SOL    HW264620   4.501  10.127   2.105
87575SOL     OW64621  14.063  11.771   0.383
87575SOL    HW164622  13.992  11.722   0.341
87575SOL    HW264623  14.117  11.704   0.426
87576SOL     OW64624   3.883  10.950  13.388
87576SOL    HW164625   3.899  10.986  13.300
87576SOL    HW264626   3.931  11.009  13.447
87577SOL     OW64627   8.621  10.294  14.457
87577SOL    HW164628   8.691  10.358  14.471
87577SOL    HW264629   8.658  10.232  14.394
87578SOL     OW64630   6.547  11.801  11.014
87578SOL    HW164631   6.621  11.795  11.074
87578SOL    HW264632   6.556  11.726  10.956
87579SOL     OW64633   1.439  12.696   9.914
87579SOL    HW164634   1.397  12.615   9.943
87579SOL    HW264635   1.370  12.762   9.916
87580SOL     OW64636   4.404  10.288  12.525
87580SOL    HW164637   4.413  10.217  12.589
87580SOL    HW264638   4.432  10.249  12.442
87581SOL     OW64639   8.279   4.340   8.858
87581SOL    HW164640   8.253   4.398   8.930
87581SOL    HW264641   8.330   4.271   8.901
87582SOL     OW64642   4.413   2.944   3.098
87582SOL    HW164643   4.341   2.972   3.042
87582SOL    HW264644   4.478   3.014   3.091
87583SOL     OW64645   1.548   4.698   0.938
87583SOL    HW164646   1.628   4.691   0.885
87583SOL    HW264647   1.560   4.632   1.007
87584SOL     OW64648   7.733   3.255  11.899
87584SOL    HW164649   7.732   3.269  11.993
87584SOL    HW264650   7.641   3.252  11.874
87585SOL     OW64651  12.912  13.609  14.744
87585SOL    HW164652  12.857  13.534  14.719
87585SOL    HW264653  12.881  13.681  14.689
87586SOL     OW64654  12.540   0.319   0.990
87586SOL    HW164655  12.529   0.387   1.056
87586SOL    HW264656  12.582   0.363   0.916
87587SOL     OW64657   9.605   4.800  12.359
87587SOL    HW164658   9.563   4.713  12.355
87587SOL    HW264659   9.548   4.851  12.416
87588SOL     OW64660   8.330   9.359   6.681
87588SOL    HW164661   8.294   9.341   6.594
87588SOL    HW264662   8.266   9.418   6.721
87589SOL     OW64663   2.792  13.787   6.387
87589SOL    HW164664   2.789  13.711   6.330
87589SOL    HW264665   2.708  13.786   6.433
87590SOL     OW64666   2.911   2.952   0.128
87590SOL    HW164667   3.000   2.959   0.162
87590SOL    HW264668   2.918   2.892   0.055
87591SOL     OW64669   9.640   6.994   9.778
87591SOL    HW164670   9.653   6.953   9.693
87591SOL    HW264671   9.725   7.033   9.799
87592SOL     OW64672   4.464  14.527   1.946
87592SOL    HW164673   4.423  14.585   1.882
87592SOL    HW264674   4.391  14.480   1.986
87593SOL     OW64675   9.882  12.140  10.074
87593SOL    HW164676   9.807  12.083  10.093
87593SOL    HW264677   9.952  12.106  10.129
87594SOL     OW64678   7.432   0.626  12.594
87594SOL    HW164679   7.406   0.718  12.606
87594SOL    HW264680   7.465   0.600  12.680
87595SOL     OW64681  13.834   8.464  11.832
87595SOL    HW164682  13.870   8.509  11.757
87595SOL    HW264683  13.739   8.464  11.818
87596SOL     OW64684   2.216   9.205   2.225
87596SOL    HW164685   2.248   9.188   2.136
87596SOL    HW264686   2.173   9.290   2.220
87597SOL     OW64687   4.199   3.698  11.845
87597SOL    HW164688   4.257   3.770  11.821
87597SOL    HW264689   4.257   3.630  11.879
87598SOL     OW64690  13.233  13.653   6.071
87598SOL    HW164691  13.172  13.591   6.112
87598SOL    HW264692  13.286  13.600   6.011
87599SOL     OW64693   2.619   3.109   7.595
87599SOL    HW164694   2.539   3.095   7.544
87599SOL    HW264695   2.599   3.073   7.681
87600SOL     OW64696  13.494   7.700   5.875
87600SOL    HW164697  13.427   7.657   5.928
87600SOL    HW264698  13.564   7.635   5.868
87601SOL     OW64699  11.943   1.365  12.215
87601SOL    HW164700  11.997   1.365  12.294
87601SOL    HW264701  12.006   1.371  12.143
87602SOL     OW64702   6.519   2.193   3.091
87602SOL    HW164703   6.465   2.263   3.054
87602SOL    HW264704   6.460   2.147   3.152
87603SOL     OW64705  11.691   2.423   9.224
87603SOL    HW164706  11.614   2.384   9.265
87603SOL    HW264707  11.739   2.464   9.296
87604SOL     OW64708   7.233   2.669   5.062
87604SOL    HW164709   7.267   2.648   4.975
87604SOL    HW264710   7.225   2.585   5.107
87605SOL     OW64711   3.169   4.216   7.100
87605SOL    HW164712   3.102   4.279   7.127
87605SOL    HW264713   3.122   4.134   7.089
87606SOL     OW64714   0.162   5.956  10.180
87606SOL    HW164715   0.202   5.890  10.238
87606SOL    HW264716   0.229   6.024  10.172
87607SOL     OW64717  14.714  12.363   7.804
87607SOL    HW164718  14.650  12.393   7.868
87607SOL    HW264719  14.746  12.280   7.840
87608SOL     OW64720   5.851   2.206   3.789
87608SOL    HW164721   5.783   2.211   3.721
87608SOL    HW264722   5.920   2.154   3.750
87609SOL     OW64723  10.925  10.122   1.287
87609SOL    HW164724  10.973  10.042   1.265
87609SOL    HW264725  10.903  10.111   1.379
87610SOL     OW64726  11.794  11.250   1.464
87610SOL    HW164727  11.842  11.174   1.431
87610SOL    HW264728  11.861  11.306   1.503
87611SOL     OW64729   1.474   4.262   2.999
87611SOL    HW164730   1.410   4.285   2.931
87611SOL    HW264731   1.540   4.331   2.993
87612SOL     OW64732   1.465   3.961   5.194
87612SOL    HW164733   1.528   3.954   5.266
87612SOL    HW264734   1.469   3.877   5.149
87613SOL     OW64735  14.579   8.289   9.980
87613SOL    HW164736  14.515   8.288  10.051
87613SOL    HW264737  14.575   8.378   9.945
87614SOL     OW64738   9.109   7.209   6.361
87614SOL    HW164739   9.200   7.220   6.388
87614SOL    HW264740   9.107   7.124   6.317
87615SOL     OW64741   8.879  10.855  12.694
87615SOL    HW164742   8.847  10.888  12.610
87615SOL    HW264743   8.948  10.792  12.670
87616SOL     OW64744  10.724  14.540   7.922
87616SOL    HW164745  10.795  14.476   7.922
87616SOL    HW264746  10.684  14.531   8.009
87617SOL     OW64747   9.403   3.714  10.421
87617SOL    HW164748   9.410   3.626  10.457
87617SOL    HW264749   9.493   3.746  10.416
87618SOL     OW64750  11.822  14.338  12.294
87618SOL    HW164751  11.902  14.334  12.348
87618SOL    HW264752  11.817  14.429  12.265
87619SOL     OW64753  11.262  14.213  12.064
87619SOL    HW164754  11.290  14.259  12.143
87619SOL    HW264755  11.319  14.136  12.059
87620SOL     OW64756  14.855   1.617  10.668
87620SOL    HW164757  14.760   1.617  10.654
87620SOL    HW264758  14.866   1.645  10.759
87621SOL     OW64759   2.380   3.650   0.045
87621SOL    HW164760   2.413   3.561   0.049
87621SOL    HW264761   2.364   3.674   0.136
87622SOL     OW64762   5.011   3.762   7.690
87622SOL    HW164763   5.015   3.832   7.755
87622SOL    HW264764   4.918   3.746   7.676
87623SOL     OW64765  14.018   7.173   2.479
87623SOL    HW164766  14.094   7.197   2.532
87623SOL    HW264767  14.010   7.245   2.416
87624SOL     OW64768   0.051   6.709  13.560
87624SOL    HW164769   0.098   6.792  13.565
87624SOL    HW264770  14.842   6.732  13.528
87625SOL     OW64771   1.627   8.623  10.851
87625SOL    HW164772   1.580   8.562  10.796
87625SOL    HW264773   1.696   8.658  10.795
87626SOL     OW64774  14.335  10.492   2.984
87626SOL    HW164775  14.334  10.512   3.078
87626SOL    HW264776  14.374  10.405   2.979
87627SOL     OW64777   4.264  13.000   6.018
87627SOL    HW164778   4.286  12.980   5.927
87627SOL    HW264779   4.238  12.915   6.056
87628SOL     OW64780   0.409  12.286  13.547
87628SOL    HW164781   0.395  12.210  13.604
87628SOL    HW264782   0.501  12.308  13.559
87629SOL     OW64783   2.464   5.909   9.583
87629SOL    HW164784   2.534   5.848   9.560
87629SOL    HW264785   2.450   5.960   9.503
87630SOL     OW64786   5.785  10.328  10.740
87630SOL    HW164787   5.785  10.389  10.814
87630SOL    HW264788   5.693  10.303  10.730
87631SOL     OW64789   1.505   3.466   2.623
87631SOL    HW164790   1.574   3.401   2.640
87631SOL    HW264791   1.526   3.500   2.536
87632SOL     OW64792   0.073   1.851  11.901
87632SOL    HW164793   0.052   1.770  11.948
87632SOL    HW264794   0.065   1.828  11.808
87633SOL     OW64795   8.299   7.527  14.465
87633SOL    HW164796   8.303   7.610  14.513
87633SOL    HW264797   8.231   7.541  14.399
87634SOL     OW64798   0.300   3.534  12.144
87634SOL    HW164799   0.265   3.456  12.187
87634SOL    HW264800   0.321   3.593  12.216
87635SOL     OW64801   7.926   2.826  12.997
87635SOL    HW164802   7.915   2.810  12.903
87635SOL    HW264803   8.012   2.868  13.004
87636SOL     OW64804   4.418   3.697   0.671
87636SOL    HW164805   4.374   3.653   0.743
87636SOL    HW264806   4.470   3.766   0.712
87637SOL     OW64807   2.685  12.498   0.557
87637SOL    HW164808   2.658  12.580   0.599
87637SOL    HW264809   2.611  12.438   0.572
87638SOL     OW64810   2.808   0.783   4.788
87638SOL    HW164811   2.903   0.789   4.776
87638SOL    HW264812   2.784   0.699   4.748
87639SOL     OW64813   4.420  10.828   5.581
87639SOL    HW164814   4.342  10.772   5.577
87639SOL    HW264815   4.493  10.767   5.573
87640SOL     OW64816   1.915  10.321   8.476
87640SOL    HW164817   1.847  10.322   8.409
87640SOL    HW264818   1.982  10.262   8.442
87641SOL     OW64819  13.314   4.478  13.553
87641SOL    HW164820  13.227   4.511  13.576
87641SOL    HW264821  13.297   4.414  13.484
87642SOL     OW64822   3.880  12.222  14.039
87642SOL    HW164823   3.953  12.201  14.097
87642SOL    HW264824   3.861  12.141  13.993
87643SOL     OW64825  11.624   1.954  10.059
87643SOL    HW164826  11.570   1.876  10.074
87643SOL    HW264827  11.663   1.973  10.144
87644SOL     OW64828   6.762   9.664   5.218
87644SOL    HW164829   6.706   9.741   5.215
87644SOL    HW264830   6.820   9.673   5.143
87645SOL     OW64831   5.193   6.745   7.899
87645SOL    HW164832   5.102   6.762   7.924
87645SOL    HW264833   5.245   6.791   7.965
87646SOL     OW64834   3.198   0.531  10.267
87646SOL    HW164835   3.105   0.520  10.284
87646SOL    HW264836   3.209   0.625  10.252
87647SOL     OW64837   1.857  12.326   7.345
87647SOL    HW164838   1.945  12.335   7.309
87647SOL    HW264839   1.800  12.368   7.280
87648SOL     OW64840   5.603   0.521  13.656
87648SOL    HW164841   5.578   0.597  13.604
87648SOL    HW264842   5.528   0.462  13.649
87649SOL     OW64843   7.276   4.186   3.134
87649SOL    HW164844   7.294   4.192   3.040
87649SOL    HW264845   7.183   4.202   3.142
87650SOL     OW64846   9.413   5.851  14.792
87650SOL    HW164847   9.379   5.853   0.004
87650SOL    HW264848   9.451   5.937  14.779
87651SOL     OW64849   1.471   9.940  12.832
87651SOL    HW164850   1.459   9.970  12.923
87651SOL    HW264851   1.559   9.968  12.809
87652SOL     OW64852  14.029   7.070  10.440
87652SOL    HW164853  14.033   6.994  10.499
87652SOL    HW264854  14.007   7.032  10.354
87653SOL     OW64855   9.775   1.911   6.967
87653SOL    HW164856   9.729   1.988   7.000
87653SOL    HW264857   9.787   1.928   6.873
87654SOL     OW64858  13.981   5.069   9.285
87654SOL    HW164859  13.888   5.048   9.274
87654SOL    HW264860  13.983   5.135   9.354
87655SOL     OW64861   4.445  11.119   1.695
87655SOL    HW164862   4.486  11.082   1.774
87655SOL    HW264863   4.516  11.125   1.631
87656SOL     OW64864  13.199  11.758   1.025
87656SOL    HW164865  13.149  11.718   1.095
87656SOL    HW264866  13.259  11.689   0.997
87657SOL     OW64867   5.990   6.829   9.745
87657SOL    HW164868   5.946   6.759   9.696
87657SOL    HW264869   5.975   6.807   9.836
87658SOL     OW64870   0.790   3.329   0.266
87658SOL    HW164871   0.885   3.330   0.271
87658SOL    HW264872   0.769   3.260   0.204
87659SOL     OW64873   1.702  14.543   7.076
87659SOL    HW164874   1.796  14.553   7.065
87659SOL    HW264875   1.664  14.591   7.003
87660SOL     OW64876  13.422   9.344  12.344
87660SOL    HW164877  13.407   9.307  12.431
87660SOL    HW264878  13.354   9.410  12.334
87661SOL     OW64879  10.931  11.383   5.514
87661SOL    HW164880  10.955  11.467   5.476
87661SOL    HW264881  10.913  11.327   5.438
87662SOL     OW64882   0.362   6.879   7.691
87662SOL    HW164883   0.342   6.831   7.772
87662SOL    HW264884   0.454   6.904   7.701
87663SOL     OW64885  14.823   1.466   8.192
87663SOL    HW164886  14.864   1.544   8.154
87663SOL    HW264887  14.792   1.416   8.117
87664SOL     OW64888   5.978  10.222   0.608
87664SOL    HW164889   6.013  10.138   0.638
87664SOL    HW264890   5.908  10.243   0.669
87665SOL     OW64891   8.584   1.413   3.556
87665SOL    HW164892   8.531   1.473   3.504
87665SOL    HW264893   8.669   1.456   3.562
87666SOL     OW64894  11.612  11.288  14.307
87666SOL    HW164895  11.659  11.214  14.269
87666SOL    HW264896  11.578  11.336  14.232
87667SOL     OW64897   3.572  11.096  11.008
87667SOL    HW164898   3.495  11.079  11.063
87667SOL    HW264899   3.589  11.012  10.965
87668SOL     OW64900   5.710   8.943  11.366
87668SOL    HW164901   5.780   8.880  11.345
87668SOL    HW264902   5.755   9.016  11.408
87669SOL     OW64903  14.319   8.061   4.641
87669SOL    HW164904  14.345   8.012   4.563
87669SOL    HW264905  14.292   7.995   4.704
87670SOL     OW64906   2.914  10.350   8.337
87670SOL    HW164907   2.830  10.384   8.367
87670SOL    HW264908   2.897  10.320   8.248
87671SOL     OW64909   7.909   3.160  13.326
87671SOL    HW164910   7.938   3.102  13.396
87671SOL    HW264911   7.849   3.221  13.369
87672SOL     OW64912  10.673  10.927  11.834
87672SOL    HW164913  10.696  10.835  11.822
87672SOL    HW264914  10.651  10.958  11.746
87673SOL     OW64915   7.578  13.027   0.800
87673SOL    HW164916   7.492  13.065   0.819
87673SOL    HW264917   7.592  12.965   0.871
87674SOL     OW64918   2.239  14.435  13.921
87674SOL    HW164919   2.321  14.473  13.952
87674SOL    HW264920   2.260  14.344  13.900
87675SOL     OW64921   3.118  10.008   1.286
87675SOL    HW164922   3.196  10.062   1.271
87675SOL    HW264923   3.056  10.036   1.218
87676SOL     OW64924   2.547  11.965   1.842
87676SOL    HW164925   2.598  11.904   1.895
87676SOL    HW264926   2.604  11.988   1.769
87677SOL     OW64927   3.452  11.105   5.573
87677SOL    HW164928   3.487  11.172   5.514
87677SOL    HW264929   3.435  11.030   5.516
87678SOL     OW64930   2.065  12.241   6.032
87678SOL    HW164931   2.037  12.201   5.950
87678SOL    HW264932   2.068  12.168   6.094
87679SOL     OW64933   3.255   3.039  12.391
87679SOL    HW164934   3.282   3.115  12.443
87679SOL    HW264935   3.337   2.998  12.363
87680SOL     OW64936  11.441  11.875   2.711
87680SOL    HW164937  11.374  11.881   2.643
87680SOL    HW264938  11.396  11.832   2.784
87681SOL     OW64939   1.063  13.602   6.850
87681SOL    HW164940   1.156  13.624   6.862
87681SOL    HW264941   1.025  13.613   6.938
87682SOL     OW64942  13.115   8.546   2.401
87682SOL    HW164943  13.101   8.511   2.313
87682SOL    HW264944  13.099   8.640   2.393
87683SOL     OW64945   4.606   5.146  12.521
87683SOL    HW164946   4.679   5.204  12.543
87683SOL    HW264947   4.530   5.186  12.564
87684SOL     OW64948   6.696   9.381  14.132
87684SOL    HW164949   6.752   9.352  14.204
87684SOL    HW264950   6.753   9.376  14.055
87685SOL     OW64951   4.560   4.971   4.954
87685SOL    HW164952   4.645   5.001   4.987
87685SOL    HW264953   4.576   4.948   4.863
87686SOL     OW64954   0.916   2.046   5.572
87686SOL    HW164955   0.962   1.981   5.519
87686SOL    HW264956   0.873   1.995   5.640
87687SOL     OW64957   0.583  11.592   9.471
87687SOL    HW164958   0.540  11.601   9.386
87687SOL    HW264959   0.530  11.528   9.518
87688SOL     OW64960   5.620   3.596   2.274
87688SOL    HW164961   5.636   3.649   2.352
87688SOL    HW264962   5.691   3.620   2.214
87689SOL     OW64963   1.434   2.497  11.935
87689SOL    HW164964   1.494   2.510  12.008
87689SOL    HW264965   1.429   2.402  11.925
87690SOL     OW64966  12.388   1.294   9.750
87690SOL    HW164967  12.395   1.338   9.665
87690SOL    HW264968  12.443   1.346   9.809
87691SOL     OW64969   8.129   1.504  14.780
87691SOL    HW164970   8.117   1.470  14.691
87691SOL    HW264971   8.219   1.536  14.782
87692SOL     OW64972   8.844   2.497   3.971
87692SOL    HW164973   8.788   2.551   4.027
87692SOL    HW264974   8.827   2.407   4.000
87693SOL     OW64975   5.790   0.493  14.834
87693SOL    HW164976   5.747   0.556  14.777
87693SOL    HW264977   5.721   0.433  14.861
87694SOL     OW64978   7.208   0.168   4.547
87694SOL    HW164979   7.155   0.245   4.529
87694SOL    HW264980   7.297   0.201   4.557
87695SOL     OW64981   9.397   9.298   7.010
87695SOL    HW164982   9.319   9.341   7.045
87695SOL    HW264983   9.383   9.205   7.027
87696SOL     OW64984   2.419  14.650   5.235
87696SOL    HW164985   2.498  14.652   5.181
87696SOL    HW264986   2.367  14.724   5.205
87697SOL     OW64987   8.419   5.757   1.830
87697SOL    HW164988   8.363   5.744   1.754
87697SOL    HW264989   8.363   5.799   1.895
87698SOL     OW64990   0.907   8.028   0.549
87698SOL    HW164991   0.846   7.982   0.492
87698SOL    HW264992   0.952   7.958   0.598
87699SOL     OW64993   0.328   4.079   4.084
87699SOL    HW164994   0.338   4.173   4.102
87699SOL    HW264995   0.416   4.043   4.097
87700SOL     OW64996   7.804  14.283   3.246
87700SOL    HW164997   7.708  14.287   3.243
87700SOL    HW264998   7.831  14.374   3.233
87701SOL     OW64999  13.841   1.768   1.176
87701SOL    HW165000  13.883   1.769   1.262
87701SOL    HW265001  13.750   1.795   1.193
87702SOL     OW65002  12.107  14.291   0.416
87702SOL    HW165003  12.150  14.308   0.332
87702SOL    HW265004  12.146  14.354   0.477
87703SOL     OW65005  13.853   1.716   6.565
87703SOL    HW165006  13.809   1.674   6.638
87703SOL    HW265007  13.797   1.790   6.542
87704SOL     OW65008   8.915   7.757  11.581
87704SOL    HW165009   8.943   7.792  11.497
87704SOL    HW265010   8.877   7.672  11.561
87705SOL     OW65011   8.903  11.960   5.340
87705SOL    HW165012   8.972  11.953   5.406
87705SOL    HW265013   8.855  12.039   5.364
87706SOL     OW65014   1.588   3.275  12.292
87706SOL    HW165015   1.681   3.294  12.301
87706SOL    HW265016   1.565   3.307  12.205
87707SOL     OW65017   3.460   5.791   1.559
87707SOL    HW165018   3.409   5.710   1.567
87707SOL    HW265019   3.414   5.842   1.492
87708SOL     OW65020   1.086   5.342  12.732
87708SOL    HW165021   1.150   5.330  12.661
87708SOL    HW265022   1.001   5.340  12.688
87709SOL     OW65023   6.560  10.002   9.676
87709SOL    HW165024   6.604  10.076   9.717
87709SOL    HW265025   6.611   9.985   9.597
87710SOL     OW65026  13.390   2.570   0.587
87710SOL    HW165027  13.477   2.592   0.555
87710SOL    HW265028  13.395   2.580   0.682
87711SOL     OW65029   4.616   0.449  10.712
87711SOL    HW165030   4.696   0.429  10.760
87711SOL    HW265031   4.646   0.487  10.629
87712SOL     OW65032  13.436  14.630   0.431
87712SOL    HW165033  13.381  14.662   0.359
87712SOL    HW265034  13.394  14.664   0.510
87713SOL     OW65035   0.057   7.713   5.856
87713SOL    HW165036   0.149   7.704   5.832
87713SOL    HW265037   0.042   7.807   5.861
87714SOL     OW65038  11.184   9.162   2.657
87714SOL    HW165039  11.160   9.079   2.617
87714SOL    HW265040  11.275   9.149   2.686
87715SOL     OW65041   6.026  13.745  14.177
87715SOL    HW165042   5.968  13.775  14.107
87715SOL    HW265043   6.113  13.776  14.151
87716SOL     OW65044   1.276   8.683   4.882
87716SOL    HW165045   1.364   8.713   4.902
87716SOL    HW265046   1.282   8.588   4.888
87717SOL     OW65047  12.742   1.056   2.461
87717SOL    HW165048  12.666   1.056   2.403
87717SOL    HW265049  12.785   1.140   2.445
87718SOL     OW65050  13.055  13.930   1.137
87718SOL    HW165051  12.991  13.998   1.157
87718SOL    HW265052  13.039  13.862   1.203
87719SOL     OW65053   1.444  13.816   1.291
87719SOL    HW165054   1.513  13.842   1.229
87719SOL    HW265055   1.405  13.738   1.251
87720SOL     OW65056   8.520   0.774   7.788
87720SOL    HW165057   8.450   0.837   7.775
87720SOL    HW265058   8.518   0.719   7.710
87721SOL     OW65059  10.702   0.084  13.045
87721SOL    HW165060  10.629   0.059  12.989
87721SOL    HW265061  10.723   0.174  13.019
87722SOL     OW65062  10.680   6.029   8.869
87722SOL    HW165063  10.733   5.955   8.897
87722SOL    HW265064  10.609   6.034   8.932
87723SOL     OW65065   1.234  10.721   8.895
87723SOL    HW165066   1.192  10.783   8.954
87723SOL    HW265067   1.304  10.682   8.947
87724SOL     OW65068   9.408   9.411  12.018
87724SOL    HW165069   9.464   9.479  12.055
87724SOL    HW265070   9.469   9.353  11.973
87725SOL     OW65071   3.367   7.022   6.944
87725SOL    HW165072   3.419   6.944   6.923
87725SOL    HW265073   3.381   7.081   6.870
87726SOL     OW65074   4.591   9.171   2.393
87726SOL    HW165075   4.602   9.224   2.313
87726SOL    HW265076   4.521   9.109   2.371
87727SOL     OW65077   5.393   3.853   3.845
87727SOL    HW165078   5.320   3.863   3.907
87727SOL    HW265079   5.467   3.895   3.889
87728SOL     OW65080   4.805  14.718   2.396
87728SOL    HW165081   4.807  14.724   2.300
87728SOL    HW265082   4.716  14.744   2.419
87729SOL     OW65083   0.531   0.580   7.097
87729SOL    HW165084   0.565   0.657   7.050
87729SOL    HW265085   0.445   0.607   7.128
87730SOL     OW65086  10.285   6.470   8.123
87730SOL    HW165087  10.301   6.383   8.087
87730SOL    HW265088  10.312   6.464   8.215
87731SOL     OW65089  11.591   0.282  12.748
87731SOL    HW165090  11.649   0.300  12.673
87731SOL    HW265091  11.649   0.242  12.813
87732SOL     OW65092   6.249   9.578  13.580
87732SOL    HW165093   6.244   9.611  13.670
87732SOL    HW265094   6.244   9.483  13.589
87733SOL     OW65095   9.390   3.693   5.466
87733SOL    HW165096   9.430   3.696   5.553
87733SOL    HW265097   9.337   3.614   5.466
87734SOL     OW65098   3.800   0.293  10.486
87734SOL    HW165099   3.792   0.367  10.545
87734SOL    HW265100   3.872   0.317  10.427
87735SOL     OW65101   6.395  14.418   0.261
87735SOL    HW165102   6.339  14.347   0.293
87735SOL    HW265103   6.464  14.425   0.326
87736SOL     OW65104   9.588  12.023   7.111
87736SOL    HW165105   9.598  11.933   7.079
87736SOL    HW265106   9.503  12.024   7.154
87737SOL     OW65107   9.431   5.628   2.169
87737SOL    HW165108   9.375   5.565   2.124
87737SOL    HW265109   9.371   5.692   2.206
87738SOL     OW65110  14.195  11.972   4.774
87738SOL    HW165111  14.218  12.063   4.755
87738SOL    HW265112  14.114  11.956   4.724
87739SOL     OW65113   6.976   1.830  10.068
87739SOL    HW165114   6.917   1.811  10.140
87739SOL    HW265115   7.064   1.819  10.105
87740SOL     OW65116  13.495   3.491   0.316
87740SOL    HW165117  13.430   3.552   0.352
87740SOL    HW265118  13.571   3.546   0.298
87741SOL     OW65119  13.674  12.378   9.071
87741SOL    HW165120  13.599  12.354   9.125
87741SOL    HW265121  13.709  12.294   9.040
87742SOL     OW65122   8.012   4.898   5.724
87742SOL    HW165123   7.978   4.906   5.813
87742SOL    HW265124   8.005   4.986   5.688
87743SOL     OW65125  10.575   0.243  10.180
87743SOL    HW165126  10.601   0.319  10.231
87743SOL    HW265127  10.493   0.269  10.137
87744SOL     OW65128   7.946  10.321  12.120
87744SOL    HW165129   8.008  10.256  12.088
87744SOL    HW265130   7.866  10.272  12.139
87745SOL     OW65131   2.287   8.822  12.463
87745SOL    HW165132   2.333   8.809  12.546
87745SOL    HW265133   2.352   8.862  12.405
87746SOL     OW65134   2.799   9.472  10.811
87746SOL    HW165135   2.880   9.468  10.760
87746SOL    HW265136   2.762   9.558  10.789
87747SOL     OW65137   0.177   8.311  10.928
87747SOL    HW165138   0.250   8.353  10.974
87747SOL    HW265139   0.099   8.355  10.961
87748SOL     OW65140   6.365   2.444   8.331
87748SOL    HW165141   6.412   2.399   8.261
87748SOL    HW265142   6.343   2.375   8.393
87749SOL     OW65143   4.463   1.468  10.173
87749SOL    HW165144   4.473   1.557  10.138
87749SOL    HW265145   4.486   1.411  10.100
87750SOL     OW65146   9.908   0.178   9.066
87750SOL    HW165147   9.877   0.209   8.981
87750SOL    HW265148   9.893   0.084   9.064
87751SOL     OW65149  12.208   8.245   3.158
87751SOL    HW165150  12.200   8.335   3.190
87751SOL    HW265151  12.291   8.214   3.193
87752SOL     OW65152   2.598  13.352  12.541
87752SOL    HW165153   2.607  13.365  12.447
87752SOL    HW265154   2.688  13.357  12.575
87753SOL     OW65155   0.615   7.260   5.788
87753SOL    HW165156   0.674   7.309   5.730
87753SOL    HW265157   0.634   7.168   5.769
87754SOL     OW65158  13.055   5.242   4.506
87754SOL    HW165159  12.991   5.171   4.505
87754SOL    HW265160  13.003   5.322   4.496
87755SOL     OW65161   2.217  10.694  14.548
87755SOL    HW165162   2.224  10.618  14.490
87755SOL    HW265163   2.144  10.672  14.607
87756SOL     OW65164   2.094   2.808   9.386
87756SOL    HW165165   2.153   2.875   9.421
87756SOL    HW265166   2.007   2.834   9.416
87757SOL     OW65167  13.522  13.624   4.336
87757SOL    HW165168  13.584  13.696   4.321
87757SOL    HW265169  13.461  13.659   4.401
87758SOL     OW65170   2.269   0.511  11.836
87758SOL    HW165171   2.204   0.578  11.857
87758SOL    HW265172   2.289   0.469  11.919
87759SOL     OW65173   2.418  14.564  10.403
87759SOL    HW165174   2.497  14.611  10.375
87759SOL    HW265175   2.374  14.540  10.322
87760SOL     OW65176   4.428   7.770  13.026
87760SOL    HW165177   4.513   7.807  13.000
87760SOL    HW265178   4.432   7.680  12.995
87761SOL     OW65179   8.746   9.333  14.527
87761SOL    HW165180   8.818   9.271  14.540
87761SOL    HW265181   8.786   9.405  14.478
87762SOL     OW65182   4.243   1.466   8.267
87762SOL    HW165183   4.279   1.385   8.232
87762SOL    HW265184   4.242   1.452   8.362
87763SOL     OW65185  14.340   9.051   9.381
87763SOL    HW165186  14.433   9.076   9.384
87763SOL    HW265187  14.293   9.134   9.381
87764SOL     OW65188  12.753   7.670   2.234
87764SOL    HW165189  12.733   7.589   2.280
87764SOL    HW265190  12.671   7.719   2.234
87765SOL     OW65191   0.634  10.311   2.985
87765SOL    HW165192   0.594  10.266   3.059
87765SOL    HW265193   0.676  10.388   3.024
87766SOL     OW65194   4.046   5.734   1.193
87766SOL    HW165195   4.034   5.648   1.233
87766SOL    HW265196   3.992   5.732   1.114
87767SOL     OW65197   5.743   0.002   2.807
87767SOL    HW165198   5.792   0.076   2.770
87767SOL    HW265199   5.734  14.818   2.734
87768SOL     OW65200   4.354   5.226   0.675
87768SOL    HW165201   4.300   5.154   0.644
87768SOL    HW265202   4.299   5.304   0.665
87769SOL     OW65203  14.524  13.970   7.458
87769SOL    HW165204  14.595  13.915   7.492
87769SOL    HW265205  14.485  13.919   7.387
87770SOL     OW65206  13.945  10.957   9.613
87770SOL    HW165207  13.960  10.948   9.518
87770SOL    HW265208  13.985  10.878   9.650
87771SOL     OW65209   7.126   3.380   0.395
87771SOL    HW165210   7.213   3.366   0.359
87771SOL    HW265211   7.071   3.402   0.319
87772SOL     OW65212   8.951   1.457   1.498
87772SOL    HW165213   9.007   1.412   1.434
87772SOL    HW265214   8.881   1.394   1.515
87773SOL     OW65215  13.598  14.834  12.265
87773SOL    HW165216  13.624  14.771  12.332
87773SOL    HW265217  13.675  14.843  12.209
87774SOL     OW65218  10.946  12.211   9.333
87774SOL    HW165219  11.020  12.217   9.393
87774SOL    HW265220  10.977  12.255   9.253
87775SOL     OW65221   2.007   8.217  10.821
87775SOL    HW165222   1.968   8.268  10.751
87775SOL    HW265223   2.028   8.282  10.889
87776SOL     OW65224   7.480   5.579   1.850
87776SOL    HW165225   7.549   5.617   1.796
87776SOL    HW265226   7.432   5.521   1.791
87777SOL     OW65227   7.394   8.513   0.823
87777SOL    HW165228   7.299   8.525   0.827
87777SOL    HW265229   7.414   8.451   0.893
87778SOL     OW65230   0.512  13.874  10.343
87778SOL    HW165231   0.543  13.945  10.400
87778SOL    HW265232   0.530  13.794  10.393
87779SOL     OW65233  11.227   9.258   1.119
87779SOL    HW165234  11.160   9.238   1.184
87779SOL    HW265235  11.281   9.179   1.116
87780SOL     OW65236   0.772   5.335  14.258
87780SOL    HW165237   0.741   5.424  14.276
87780SOL    HW265238   0.703   5.296  14.206
87781SOL     OW65239   7.757   6.773   4.617
87781SOL    HW165240   7.753   6.707   4.548
87781SOL    HW265241   7.760   6.856   4.570
87782SOL     OW65242   6.704   3.852   9.561
87782SOL    HW165243   6.798   3.870   9.557
87782SOL    HW265244   6.698   3.764   9.599
87783SOL     OW65245  10.706  14.280  12.272
87783SOL    HW165246  10.671  14.287  12.360
87783SOL    HW265247  10.792  14.242  12.283
87784SOL     OW65248  11.653   5.835   0.541
87784SOL    HW165249  11.582   5.792   0.493
87784SOL    HW265250  11.717   5.857   0.474
87785SOL     OW65251   5.906   1.549   2.688
87785SOL    HW165252   5.855   1.579   2.614
87785SOL    HW265253   5.932   1.460   2.665
87786SOL     OW65254  13.895  14.277  10.585
87786SOL    HW165255  13.894  14.359  10.635
87786SOL    HW265256  13.963  14.224  10.627
87787SOL     OW65257   5.419   4.020  13.547
87787SOL    HW165258   5.369   4.018  13.465
87787SOL    HW265259   5.397   4.105  13.586
87788SOL     OW65260   9.227  12.213   9.789
87788SOL    HW165261   9.165  12.160   9.739
87788SOL    HW265262   9.265  12.272   9.725
87789SOL     OW65263   8.435   3.906  11.356
87789SOL    HW165264   8.485   3.847  11.413
87789SOL    HW265265   8.491   3.983  11.347
87790SOL     OW65266   9.283   0.968   8.585
87790SOL    HW165267   9.349   0.902   8.565
87790SOL    HW265268   9.311   1.045   8.535
87791SOL     OW65269   8.616   8.918  11.997
87791SOL    HW165270   8.524   8.896  12.014
87791SOL    HW265271   8.650   8.950  12.080
87792SOL     OW65272   5.571   5.099   8.876
87792SOL    HW165273   5.605   5.052   8.800
87792SOL    HW265274   5.500   5.152   8.842
87793SOL     OW65275   1.085   1.418  13.112
87793SOL    HW165276   1.084   1.383  13.201
87793SOL    HW265277   0.993   1.433  13.090
87794SOL     OW65278   5.705  10.206  14.366
87794SOL    HW165279   5.739  10.289  14.335
87794SOL    HW265280   5.722  10.207  14.461
87795SOL     OW65281   6.995   2.807  12.037
87795SOL    HW165282   6.949   2.881  11.997
87795SOL    HW265283   6.936   2.733  12.025
87796SOL     OW65284  13.886   0.184  14.040
87796SOL    HW165285  13.925   0.233  14.113
87796SOL    HW265286  13.957   0.174  13.977
87797SOL     OW65287  12.616  13.750  13.152
87797SOL    HW165288  12.668  13.742  13.072
87797SOL    HW265289  12.675  13.792  13.214
87798SOL     OW65290  12.871   3.811  10.550
87798SOL    HW165291  12.776   3.802  10.553
87798SOL    HW265292  12.902   3.764  10.627
87799SOL     OW65293   2.743   0.785   7.146
87799SOL    HW165294   2.828   0.741   7.154
87799SOL    HW265295   2.762   0.864   7.095
87800SOL     OW65296   4.961  10.227  11.339
87800SOL    HW165297   5.046  10.233  11.295
87800SOL    HW265298   4.911  10.300  11.304
87801SOL     OW65299  11.732  14.276   0.857
87801SOL    HW165300  11.768  14.200   0.812
87801SOL    HW265301  11.645  14.248   0.884
87802SOL     OW65302   8.605   3.385  14.208
87802SOL    HW165303   8.650   3.302  14.228
87802SOL    HW265304   8.628   3.403  14.117
87803SOL     OW65305  10.489   3.657  12.558
87803SOL    HW165306  10.556   3.710  12.600
87803SOL    HW265307  10.535   3.611  12.488
87804SOL     OW65308   1.978   6.314  10.899
87804SOL    HW165309   1.899   6.260  10.899
87804SOL    HW265310   2.011   6.308  10.809
87805SOL     OW65311   7.350   0.707  11.283
87805SOL    HW165312   7.428   0.724  11.336
87805SOL    HW265313   7.341   0.785  11.228
87806SOL     OW65314  10.367   9.432  13.314
87806SOL    HW165315  10.454   9.397  13.292
87806SOL    HW265316  10.379   9.471  13.401
87807SOL     OW65317  14.177   6.832   7.554
87807SOL    HW165318  14.182   6.777   7.632
87807SOL    HW265319  14.235   6.789   7.491
87808SOL     OW65320   8.691   8.661   4.283
87808SOL    HW165321   8.755   8.596   4.311
87808SOL    HW265322   8.653   8.694   4.364
87809SOL     OW65323   8.726   7.541  11.499
87809SOL    HW165324   8.669   7.616  11.519
87809SOL    HW265325   8.671   7.483  11.446
87810SOL     OW65326  13.026  14.668   4.120
87810SOL    HW165327  13.027  14.749   4.171
87810SOL    HW265328  12.935  14.639   4.122
87811SOL     OW65329  11.038   3.803   1.379
87811SOL    HW165330  10.979   3.878   1.389
87811SOL    HW265331  11.124   3.838   1.401
87812SOL     OW65332   9.207   3.350   6.018
87812SOL    HW165333   9.253   3.364   6.101
87812SOL    HW265334   9.148   3.276   6.036
87813SOL     OW65335  14.364  10.707   9.347
87813SOL    HW165336  14.403  10.619   9.348
87813SOL    HW265337  14.388  10.745   9.431
87814SOL     OW65338   1.995   5.089  13.870
87814SOL    HW165339   2.088   5.107  13.861
87814SOL    HW265340   1.987   5.039  13.951
87815SOL     OW65341   0.641  12.970  12.963
87815SOL    HW165342   0.550  12.973  12.995
87815SOL    HW265343   0.634  12.989  12.870
87816SOL     OW65344   3.919  12.566   8.270
87816SOL    HW165345   3.866  12.548   8.347
87816SOL    HW265346   3.878  12.515   8.200
87817SOL     OW65347  10.504   9.580   5.657
87817SOL    HW165348  10.574   9.633   5.619
87817SOL    HW265349  10.545   9.536   5.731
87818SOL     OW65350   0.245   9.059   5.610
87818SOL    HW165351   0.316   9.076   5.672
87818SOL    HW265352   0.192   8.991   5.652
87819SOL     OW65353   1.828   9.984   1.800
87819SOL    HW165354   1.872  10.064   1.829
87819SOL    HW265355   1.806   9.938   1.882
87820SOL     OW65356   6.870  11.855   9.227
87820SOL    HW165357   6.955  11.898   9.225
87820SOL    HW265358   6.807  11.928   9.231
87821SOL     OW65359  10.434   3.930  13.449
87821SOL    HW165360  10.408   4.022  13.454
87821SOL    HW265361  10.424   3.898  13.539
87822SOL     OW65362  11.362   3.969   6.002
87822SOL    HW165363  11.330   4.052   6.039
87822SOL    HW265364  11.323   3.966   5.914
87823SOL     OW65365   5.553   5.246   8.311
87823SOL    HW165366   5.535   5.279   8.399
87823SOL    HW265367   5.480   5.279   8.257
87824SOL     OW65368   0.116  14.511   7.161
87824SOL    HW165369   0.148  14.560   7.237
87824SOL    HW265370   0.021  14.512   7.170
87825SOL     OW65371   9.477  10.542  11.079
87825SOL    HW165372   9.564  10.577  11.060
87825SOL    HW265373   9.418  10.615  11.060
87826SOL     OW65374   8.740   2.734   9.160
87826SOL    HW165375   8.825   2.764   9.192
87826SOL    HW265376   8.698   2.814   9.127
87827SOL     OW65377   5.897  11.917  14.359
87827SOL    HW165378   5.987  11.950  14.357
87827SOL    HW265379   5.897  11.843  14.297
87828SOL     OW65380   0.404   4.982   7.069
87828SOL    HW165381   0.490   5.023   7.074
87828SOL    HW265382   0.374   4.999   6.980
87829SOL     OW65383   1.599   7.650   6.494
87829SOL    HW165384   1.570   7.580   6.552
87829SOL    HW265385   1.590   7.730   6.546
87830SOL     OW65386   4.735   8.831   9.113
87830SOL    HW165387   4.650   8.862   9.144
87830SOL    HW265388   4.771   8.782   9.187
87831SOL     OW65389   8.763  11.967   3.070
87831SOL    HW165390   8.673  11.955   3.100
87831SOL    HW265391   8.817  11.923   3.135
87832SOL     OW65392  10.057   8.307  11.254
87832SOL    HW165393  10.093   8.395  11.263
87832SOL    HW265394  10.108   8.254  11.316
87833SOL     OW65395   9.538   4.560  10.303
87833SOL    HW165396   9.486   4.601  10.235
87833SOL    HW265397   9.596   4.500  10.256
87834SOL     OW65398  10.993   6.099  11.930
87834SOL    HW165399  10.931   6.107  12.003
87834SOL    HW265400  11.056   6.034  11.960
87835SOL     OW65401  11.363   4.111   7.679
87835SOL    HW165402  11.415   4.032   7.695
87835SOL    HW265403  11.290   4.104   7.741
87836SOL     OW65404  11.860   2.299  13.962
87836SOL    HW165405  11.851   2.241  13.887
87836SOL    HW265406  11.843   2.244  14.038
87837SOL     OW65407  10.384   3.162   5.090
87837SOL    HW165408  10.392   3.257   5.093
87837SOL    HW265409  10.442   3.135   5.018
87838SOL     OW65410   7.243   4.981   5.041
87838SOL    HW165411   7.160   4.947   5.007
87838SOL    HW265412   7.218   5.053   5.099
87839SOL     OW65413  11.403   2.573   3.279
87839SOL    HW165414  11.480   2.576   3.336
87839SOL    HW265415  11.336   2.620   3.327
87840SOL     OW65416  13.581   1.752   2.612
87840SOL    HW165417  13.593   1.825   2.551
87840SOL    HW265418  13.499   1.773   2.657
87841SOL     OW65419  13.615   0.316   6.391
87841SOL    HW165420  13.655   0.372   6.457
87841SOL    HW265421  13.586   0.238   6.439
87842SOL     OW65422  13.259  11.011  11.619
87842SOL    HW165423  13.293  10.982  11.703
87842SOL    HW265424  13.197  11.080  11.641
87843SOL     OW65425   5.411   5.663  14.254
87843SOL    HW165426   5.395   5.731  14.320
87843SOL    HW265427   5.372   5.698  14.174
87844SOL     OW65428   2.503   5.661  11.811
87844SOL    HW165429   2.479   5.725  11.744
87844SOL    HW265430   2.420   5.621  11.837
87845SOL     OW65431   6.835   7.213   5.943
87845SOL    HW165432   6.825   7.300   5.982
87845SOL    HW265433   6.803   7.223   5.853
87846SOL     OW65434   0.492   2.186  11.934
87846SOL    HW165435   0.423   2.188  11.868
87846SOL    HW265436   0.456   2.132  12.005
87847SOL     OW65437   0.361   6.318  13.960
87847SOL    HW165438   0.326   6.229  13.964
87847SOL    HW265439   0.286   6.372  13.934
87848SOL     OW65440   3.546  14.217  13.194
87848SOL    HW165441   3.527  14.232  13.101
87848SOL    HW265442   3.511  14.130  13.213
87849SOL     OW65443  14.498   7.049   7.058
87849SOL    HW165444  14.529   7.135   7.033
87849SOL    HW265445  14.432   7.066   7.126
87850SOL     OW65446  13.459   8.937   7.049
87850SOL    HW165447  13.510   8.902   6.976
87850SOL    HW265448  13.496   8.895   7.126
87851SOL     OW65449   9.939   5.552   5.586
87851SOL    HW165450   9.894   5.538   5.503
87851SOL    HW265451   9.868   5.558   5.650
87852SOL     OW65452   6.262   3.859   9.317
87852SOL    HW165453   6.232   3.787   9.372
87852SOL    HW265454   6.205   3.856   9.240
87853SOL     OW65455   3.634   6.524   4.845
87853SOL    HW165456   3.581   6.600   4.873
87853SOL    HW265457   3.723   6.557   4.842
87854SOL     OW65458   4.110   8.399   3.010
87854SOL    HW165459   4.034   8.443   3.049
87854SOL    HW265460   4.120   8.439   2.924
87855SOL     OW65461   8.960  10.791  11.920
87855SOL    HW165462   8.870  10.818  11.941
87855SOL    HW265463   8.951  10.739  11.840
87856SOL     OW65464  10.115   2.800   3.381
87856SOL    HW165465  10.160   2.754   3.309
87856SOL    HW265466  10.032   2.828   3.342
87857SOL     OW65467  12.018   8.212  14.146
87857SOL    HW165468  12.036   8.135  14.200
87857SOL    HW265469  12.075   8.280  14.182
87858SOL     OW65470  13.164   0.533  10.564
87858SOL    HW165471  13.125   0.484  10.636
87858SOL    HW265472  13.099   0.601  10.544
87859SOL     OW65473   6.324   3.446  11.030
87859SOL    HW165474   6.378   3.515  10.991
87859SOL    HW265475   6.272   3.411  10.958
87860SOL     OW65476   6.231  10.417   5.913
87860SOL    HW165477   6.198  10.341   5.962
87860SOL    HW265478   6.319  10.391   5.886
87861SOL     OW65479  10.219   6.716  13.225
87861SOL    HW165480  10.312   6.694  13.223
87861SOL    HW265481  10.215   6.808  13.200
87862SOL     OW65482   1.920   2.255   6.004
87862SOL    HW165483   1.911   2.166   5.972
87862SOL    HW265484   1.886   2.310   5.934
87863SOL     OW65485   6.871   5.803   5.311
87863SOL    HW165486   6.853   5.778   5.220
87863SOL    HW265487   6.966   5.794   5.320
87864SOL     OW65488  14.592   6.966  12.992
87864SOL    HW165489  14.603   6.872  12.973
87864SOL    HW265490  14.535   6.998  12.923
87865SOL     OW65491  11.289   4.630   8.252
87865SOL    HW165492  11.374   4.604   8.216
87865SOL    HW265493  11.227   4.609   8.182
87866SOL     OW65494   0.274  14.128  13.905
87866SOL    HW165495   0.325  14.092  13.977
87866SOL    HW265496   0.245  14.051  13.855
87867SOL     OW65497   1.859   0.495   5.313
87867SOL    HW165498   1.787   0.433   5.326
87867SOL    HW265499   1.927   0.444   5.269
87868SOL     OW65500  11.545   7.119   4.368
87868SOL    HW165501  11.509   7.081   4.448
87868SOL    HW265502  11.512   7.209   4.368
87869SOL     OW65503  11.409   8.525   7.715
87869SOL    HW165504  11.504   8.515   7.719
87869SOL    HW265505  11.387   8.503   7.625
87870SOL     OW65506  14.317   4.926   7.755
87870SOL    HW165507  14.296   4.992   7.821
87870SOL    HW265508  14.281   4.962   7.674
87871SOL     OW65509  14.595   6.019   9.209
87871SOL    HW165510  14.524   6.051   9.265
87871SOL    HW265511  14.562   6.033   9.119
87872SOL     OW65512   3.979   0.774   1.451
87872SOL    HW165513   3.980   0.681   1.473
87872SOL    HW265514   4.063   0.807   1.483
87873SOL     OW65515  14.196  14.195  14.454
87873SOL    HW165516  14.138  14.210  14.379
87873SOL    HW265517  14.251  14.273  14.458
87874SOL     OW65518  10.217  12.415   4.505
87874SOL    HW165519  10.170  12.415   4.588
87874SOL    HW265520  10.298  12.463   4.524
87875SOL     OW65521   3.707  11.172   5.193
87875SOL    HW165522   3.749  11.088   5.207
87875SOL    HW265523   3.674  11.169   5.103
87876SOL     OW65524   8.522   0.231   7.352
87876SOL    HW165525   8.515   0.137   7.367
87876SOL    HW265526   8.510   0.270   7.439
87877SOL     OW65527   3.311   9.496  13.731
87877SOL    HW165528   3.274   9.528  13.649
87877SOL    HW265529   3.366   9.422  13.706
87878SOL     OW65530   3.493   4.308   6.560
87878SOL    HW165531   3.487   4.397   6.524
87878SOL    HW265532   3.586   4.285   6.552
87879SOL     OW65533   7.595   6.420   3.108
87879SOL    HW165534   7.563   6.510   3.098
87879SOL    HW265535   7.516   6.368   3.125
87880SOL     OW65536   2.432   4.678   5.974
87880SOL    HW165537   2.483   4.735   5.917
87880SOL    HW265538   2.482   4.676   6.056
87881SOL     OW65539   3.810  14.470  11.545
87881SOL    HW165540   3.904  14.478  11.562
87881SOL    HW265541   3.768  14.514  11.619
87882SOL     OW65542   6.041   0.728   8.958
87882SOL    HW165543   5.999   0.766   9.035
87882SOL    HW265544   5.969   0.689   8.908
87883SOL     OW65545   7.046   7.932   2.023
87883SOL    HW165546   7.108   7.996   2.057
87883SOL    HW265547   6.969   7.941   2.080
87884SOL     OW65548  11.739   4.936  11.117
87884SOL    HW165549  11.729   4.997  11.044
87884SOL    HW265550  11.735   4.849  11.076
87885SOL     OW65551  13.820   9.097  10.270
87885SOL    HW165552  13.816   9.006  10.243
87885SOL    HW265553  13.885   9.099  10.340
87886SOL     OW65554   9.843   2.603  14.652
87886SOL    HW165555   9.847   2.644  14.738
87886SOL    HW265556   9.815   2.513  14.669
87887SOL     OW65557  11.567  13.232   6.090
87887SOL    HW165558  11.657  13.266   6.086
87887SOL    HW265559  11.512  13.309   6.072
87888SOL     OW65560   1.938   2.269  12.489
87888SOL    HW165561   1.844   2.275  12.502
87888SOL    HW265562   1.963   2.353  12.450
87889SOL     OW65563   4.374  12.956  14.862
87889SOL    HW165564   4.431  13.025  14.829
87889SOL    HW265565   4.361  12.977   0.077
87890SOL     OW65566   9.412   4.201  12.254
87890SOL    HW165567   9.387   4.117  12.213
87890SOL    HW265568   9.332   4.252  12.254
87891SOL     OW65569   3.901   8.034   1.965
87891SOL    HW165570   3.990   8.014   1.937
87891SOL    HW265571   3.870   8.098   1.902
87892SOL     OW65572   0.667   0.774   8.355
87892SOL    HW165573   0.700   0.746   8.270
87892SOL    HW265574   0.582   0.730   8.365
87893SOL     OW65575   1.895   6.720  10.986
87893SOL    HW165576   1.980   6.737  10.946
87893SOL    HW265577   1.832   6.729  10.914
87894SOL     OW65578   4.872   4.791   7.638
87894SOL    HW165579   4.899   4.830   7.721
87894SOL    HW265580   4.950   4.793   7.583
87895SOL     OW65581   9.311   6.546  11.254
87895SOL    HW165582   9.277   6.457  11.253
87895SOL    HW265583   9.237   6.600  11.285
87896SOL     OW65584   5.660   8.753  10.828
87896SOL    HW165585   5.679   8.720  10.740
87896SOL    HW265586   5.575   8.715  10.850
87897SOL     OW65587  14.560   0.364   3.975
87897SOL    HW165588  14.650   0.330   3.979
87897SOL    HW265589  14.571   0.457   3.956
87898SOL     OW65590   4.660   8.346  14.759
87898SOL    HW165591   4.665   8.380  14.670
87898SOL    HW265592   4.631   8.420  14.812
87899SOL     OW65593  11.875   5.937   1.897
87899SOL    HW165594  11.784   5.916   1.921
87899SOL    HW265595  11.928   5.884   1.956
87900SOL     OW65596   7.050  10.074  14.200
87900SOL    HW165597   7.087  10.080  14.112
87900SOL    HW265598   7.000   9.993  14.200
87901SOL     OW65599   7.113   3.486   3.960
87901SOL    HW165600   7.162   3.414   4.000
87901SOL    HW265601   7.159   3.565   3.990
87902SOL     OW65602   8.895   6.328   2.247
87902SOL    HW165603   8.958   6.262   2.218
87902SOL    HW265604   8.835   6.281   2.305
87903SOL     OW65605   0.283   7.371   8.164
87903SOL    HW165606   0.367   7.377   8.209
87903SOL    HW265607   0.302   7.322   8.084
87904SOL     OW65608   1.780  13.811   5.019
87904SOL    HW165609   1.726  13.884   4.989
87904SOL    HW265610   1.798  13.831   5.111
87905SOL     OW65611   2.579  14.875   4.183
87905SOL    HW165612   2.608  14.804   4.125
87905SOL    HW265613   2.543   0.063   4.124
87906SOL     OW65614  12.431   0.613   1.467
87906SOL    HW165615  12.424   0.634   1.560
87906SOL    HW265616  12.341   0.593   1.440
87907SOL     OW65617   1.064   2.814   7.823
87907SOL    HW165618   1.065   2.775   7.910
87907SOL    HW265619   1.137   2.773   7.777
87908SOL     OW65620  11.120   1.797  11.107
87908SOL    HW165621  11.178   1.797  11.031
87908SOL    HW265622  11.117   1.888  11.135
87909SOL     OW65623   6.586   4.145   4.041
87909SOL    HW165624   6.537   4.077   3.995
87909SOL    HW265625   6.567   4.131   4.134
87910SOL     OW65626  10.445  11.971   0.868
87910SOL    HW165627  10.400  11.919   0.802
87910SOL    HW265628  10.375  12.007   0.922
87911SOL     OW65629   1.361  10.856   0.779
87911SOL    HW165630   1.348  10.901   0.862
87911SOL    HW265631   1.330  10.767   0.795
87912SOL     OW65632   6.618   8.094   4.290
87912SOL    HW165633   6.528   8.075   4.261
87912SOL    HW265634   6.646   8.015   4.335
87913SOL     OW65635  11.860   8.513   9.946
87913SOL    HW165636  11.882   8.467  10.027
87913SOL    HW265637  11.909   8.467   9.878
87914SOL     OW65638  11.040  14.743  12.009
87914SOL    HW165639  11.039  14.693  11.927
87914SOL    HW265640  11.117  14.712  12.056
87915SOL     OW65641   7.628   5.150  11.390
87915SOL    HW165642   7.579   5.071  11.370
87915SOL    HW265643   7.712   5.139  11.346
87916SOL     OW65644   5.303   9.502   7.768
87916SOL    HW165645   5.241   9.479   7.700
87916SOL    HW265646   5.261   9.573   7.817
87917SOL     OW65647   0.177   0.545   9.634
87917SOL    HW165648   0.090   0.526   9.668
87917SOL    HW265649   0.162   0.610   9.565
87918SOL     OW65650  14.804   4.318   1.697
87918SOL    HW165651  14.830   4.331   1.789
87918SOL    HW265652  14.746   4.242   1.699
87919SOL     OW65653   1.199  10.542   4.336
87919SOL    HW165654   1.169  10.548   4.245
87919SOL    HW265655   1.290  10.573   4.334
87920SOL     OW65656   6.135   5.516  14.381
87920SOL    HW165657   6.061   5.457  14.367
87920SOL    HW265658   6.210   5.458  14.394
87921SOL     OW65659   8.070   4.268   1.345
87921SOL    HW165660   7.990   4.251   1.395
87921SOL    HW265661   8.121   4.188   1.353
87922SOL     OW65662  14.063  13.917  11.552
87922SOL    HW165663  14.066  13.836  11.501
87922SOL    HW265664  14.058  13.986  11.486
87923SOL     OW65665   9.097   8.292  10.484
87923SOL    HW165666   9.128   8.382  10.490
87923SOL    HW265667   9.174   8.239  10.505
87924SOL     OW65668   6.561  11.344   1.589
87924SOL    HW165669   6.626  11.321   1.523
87924SOL    HW265670   6.594  11.305   1.670
87925SOL     OW65671   8.711   5.741   1.258
87925SOL    HW165672   8.778   5.804   1.285
87925SOL    HW265673   8.635   5.764   1.312
87926SOL     OW65674   2.275   1.327   1.952
87926SOL    HW165675   2.270   1.332   2.048
87926SOL    HW265676   2.242   1.412   1.923
87927SOL     OW65677   6.022   1.071   6.530
87927SOL    HW165678   5.998   1.130   6.459
87927SOL    HW265679   6.059   0.994   6.487
87928SOL     OW65680  13.086   0.335   3.028
87928SOL    HW165681  13.042   0.348   3.112
87928SOL    HW265682  13.113   0.423   3.001
87929SOL     OW65683   8.936   5.369  12.583
87929SOL    HW165684   8.866   5.304  12.591
87929SOL    HW265685   9.013   5.319  12.558
87930SOL     OW65686  14.614  12.918  11.019
87930SOL    HW165687  14.699  12.877  11.001
87930SOL    HW265688  14.550  12.854  10.988
87931SOL     OW65689   0.426   8.511  10.940
87931SOL    HW165690   0.338   8.528  10.908
87931SOL    HW265691   0.483   8.553  10.875
87932SOL     OW65692  11.721  10.223   5.392
87932SOL    HW165693  11.730  10.318   5.400
87932SOL    HW265694  11.627  10.207   5.405
87933SOL     OW65695  14.083  13.688  11.344
87933SOL    HW165696  14.027  13.619  11.308
87933SOL    HW265697  14.075  13.760  11.283
87934SOL     OW65698  12.666   0.367   5.651
87934SOL    HW165699  12.711   0.374   5.567
87934SOL    HW265700  12.635   0.277   5.654
87935SOL     OW65701   4.660   4.458  12.495
87935SOL    HW165702   4.719   4.383  12.498
87935SOL    HW265703   4.718   4.534  12.484
87936SOL     OW65704   5.105   6.097   9.993
87936SOL    HW165705   5.189   6.112   9.949
87936SOL    HW265706   5.130   6.061  10.078
87937SOL     OW65707   2.582  10.278   1.064
87937SOL    HW165708   2.661  10.253   1.016
87937SOL    HW265709   2.515  10.219   1.030
87938SOL     OW65710   5.394   7.437   1.196
87938SOL    HW165711   5.443   7.392   1.126
87938SOL    HW265712   5.405   7.380   1.272
87939SOL     OW65713   9.929   0.376   3.467
87939SOL    HW165714   9.970   0.460   3.490
87939SOL    HW265715   9.855   0.401   3.411
87940SOL     OW65716   8.731  12.229  11.297
87940SOL    HW165717   8.653  12.266  11.255
87940SOL    HW265718   8.795  12.221  11.225
87941SOL     OW65719   8.982  11.866   7.134
87941SOL    HW165720   8.911  11.921   7.101
87941SOL    HW265721   9.003  11.902   7.220
87942SOL     OW65722  10.040   4.794  14.747
87942SOL    HW165723   9.999   4.720  14.702
87942SOL    HW265724  10.034   4.772  14.840
87943SOL     OW65725   2.387   9.400   6.873
87943SOL    HW165726   2.377   9.314   6.914
87943SOL    HW265727   2.457   9.443   6.923
87944SOL     OW65728  13.861   5.141   7.600
87944SOL    HW165729  13.898   5.229   7.597
87944SOL    HW265730  13.821   5.134   7.687
87945SOL     OW65731   4.407  10.227   1.064
87945SOL    HW165732   4.339  10.294   1.065
87945SOL    HW265733   4.420  10.207   0.972
87946SOL     OW65734  13.829  12.855  12.689
87946SOL    HW165735  13.900  12.909  12.724
87946SOL    HW265736  13.770  12.843  12.764
87947SOL     OW65737  10.107   5.481   7.154
87947SOL    HW165738  10.121   5.561   7.102
87947SOL    HW265739  10.030   5.440   7.115
87948SOL     OW65740   3.835  10.296  13.400
87948SOL    HW165741   3.782  10.255  13.468
87948SOL    HW265742   3.896  10.352  13.447
87949SOL     OW65743   3.407   6.590   9.588
87949SOL    HW165744   3.382   6.614   9.678
87949SOL    HW265745   3.471   6.520   9.600
87950SOL     OW65746   1.225   8.707  11.757
87950SOL    HW165747   1.316   8.710  11.787
87950SOL    HW265748   1.174   8.741  11.831
87951SOL     OW65749   9.262   8.595   2.344
87951SOL    HW165750   9.278   8.528   2.277
87951SOL    HW265751   9.215   8.548   2.413
87952SOL     OW65752   1.318   2.512   9.241
87952SOL    HW165753   1.344   2.483   9.153
87952SOL    HW265754   1.382   2.471   9.299
87953SOL     OW65755   8.084  14.122   5.467
87953SOL    HW165756   8.155  14.142   5.405
87953SOL    HW265757   8.068  14.029   5.455
87954SOL     OW65758   6.946  10.658  13.982
87954SOL    HW165759   6.998  10.690  13.908
87954SOL    HW265760   6.960  10.563  13.982
87955SOL     OW65761  13.379   8.432   5.046
87955SOL    HW165762  13.442   8.403   5.112
87955SOL    HW265763  13.430   8.488   4.988
87956SOL     OW65764  11.120   2.070  12.536
87956SOL    HW165765  11.189   2.065  12.470
87956SOL    HW265766  11.135   1.995  12.593
87957SOL     OW65767  14.464   4.990  11.775
87957SOL    HW165768  14.548   4.961  11.740
87957SOL    HW265769  14.486   5.055  11.841
87958SOL     OW65770  10.588   9.377   3.208
87958SOL    HW165771  10.558   9.443   3.146
87958SOL    HW265772  10.681   9.368   3.191
87959SOL     OW65773  14.517   9.689   4.358
87959SOL    HW165774  14.613   9.688   4.356
87959SOL    HW265775  14.493   9.596   4.359
87960SOL     OW65776  11.013   8.841  11.297
87960SOL    HW165777  11.062   8.919  11.270
87960SOL    HW265778  11.033   8.830  11.390
87961SOL     OW65779   0.569  11.903   7.295
87961SOL    HW165780   0.496  11.912   7.356
87961SOL    HW265781   0.608  11.818   7.316
87962SOL     OW65782   3.667   2.144   1.044
87962SOL    HW165783   3.625   2.171   0.961
87962SOL    HW265784   3.599   2.095   1.090
87963SOL     OW65785   2.945   1.453   9.652
87963SOL    HW165786   3.015   1.426   9.712
87963SOL    HW265787   2.949   1.548   9.652
87964SOL     OW65788   4.044   9.017   2.438
87964SOL    HW165789   4.110   8.994   2.503
87964SOL    HW265790   3.961   8.986   2.476
87965SOL     OW65791   1.230  12.139  12.113
87965SOL    HW165792   1.266  12.155  12.026
87965SOL    HW265793   1.270  12.206  12.169
87966SOL     OW65794   4.579   1.280   3.690
87966SOL    HW165795   4.526   1.307   3.615
87966SOL    HW265796   4.541   1.197   3.718
87967SOL     OW65797  11.279  14.331  10.520
87967SOL    HW165798  11.244  14.251  10.481
87967SOL    HW265799  11.240  14.402  10.469
87968SOL     OW65800   9.811   5.611  11.120
87968SOL    HW165801   9.840   5.521  11.108
87968SOL    HW265802   9.826   5.653  11.035
87969SOL     OW65803   3.826   5.121   8.845
87969SOL    HW165804   3.858   5.141   8.933
87969SOL    HW265805   3.880   5.174   8.787
87970SOL     OW65806  10.453   7.027   4.525
87970SOL    HW165807  10.533   7.067   4.489
87970SOL    HW265808  10.435   6.953   4.467
87971SOL     OW65809   4.647   8.810   5.997
87971SOL    HW165810   4.646   8.722   6.034
87971SOL    HW265811   4.708   8.859   6.053
87972SOL     OW65812  10.155   6.434  12.628
87972SOL    HW165813  10.242   6.468  12.650
87972SOL    HW265814  10.168   6.382  12.549
87973SOL     OW65815   6.751   7.113  13.528
87973SOL    HW165816   6.773   7.184  13.466
87973SOL    HW265817   6.784   7.144  13.612
87974SOL     OW65818   4.115   0.443  11.247
87974SOL    HW165819   4.061   0.421  11.323
87974SOL    HW265820   4.183   0.376  11.245
87975SOL     OW65821   6.257   7.828  13.551
87975SOL    HW165822   6.248   7.761  13.619
87975SOL    HW265823   6.347   7.817  13.518
87976SOL     OW65824  13.229   2.192   7.646
87976SOL    HW165825  13.294   2.133   7.606
87976SOL    HW265826  13.258   2.201   7.736
87977SOL     OW65827   5.568   0.032  12.370
87977SOL    HW165828   5.508  14.837  12.356
87977SOL    HW265829   5.591   0.027  12.463
87978SOL     OW65830   7.756   5.791   1.480
87978SOL    HW165831   7.798   5.726   1.424
87978SOL    HW265832   7.790   5.875   1.449
87979SOL     OW65833   5.435  14.761   9.601
87979SOL    HW165834   5.343  14.760   9.574
87979SOL    HW265835   5.480  14.807   9.530
87980SOL     OW65836   6.720   8.751   4.710
87980SOL    HW165837   6.775   8.738   4.632
87980SOL    HW265838   6.664   8.825   4.687
87981SOL     OW65839   0.265  13.872  11.802
87981SOL    HW165840   0.332  13.845  11.865
87981SOL    HW265841   0.227  13.951  11.841
87982SOL     OW65842  12.877   4.419  14.044
87982SOL    HW165843  12.926   4.343  14.076
87982SOL    HW265844  12.944   4.480  14.013
87983SOL     OW65845   7.205  11.589   5.563
87983SOL    HW165846   7.190  11.635   5.481
87983SOL    HW265847   7.169  11.501   5.549
87984SOL     OW65848  11.822  14.424   2.532
87984SOL    HW165849  11.840  14.464   2.447
87984SOL    HW265850  11.842  14.493   2.596
87985SOL     OW65851   3.588   2.542   3.373
87985SOL    HW165852   3.620   2.460   3.336
87985SOL    HW265853   3.493   2.531   3.379
87986SOL     OW65854  14.267  10.471  14.187
87986SOL    HW165855  14.299  10.418  14.114
87986SOL    HW265856  14.347  10.498  14.233
87987SOL     OW65857   8.613   7.312   6.174
87987SOL    HW165858   8.603   7.223   6.141
87987SOL    HW265859   8.526   7.351   6.165
87988SOL     OW65860   9.335   7.296   1.020
87988SOL    HW165861   9.338   7.214   1.069
87988SOL    HW265862   9.411   7.345   1.051
87989SOL     OW65863   7.280  11.718  11.116
87989SOL    HW165864   7.339  11.794  11.113
87989SOL    HW265865   7.254  11.712  11.208
87990SOL     OW65866   9.036  12.319  13.623
87990SOL    HW165867   8.973  12.340  13.554
87990SOL    HW265868   9.012  12.232  13.652
87991SOL     OW65869   5.734   6.038  13.731
87991SOL    HW165870   5.737   6.096  13.807
87991SOL    HW265871   5.724   6.097  13.656
87992SOL     OW65872   2.087  11.059  11.535
87992SOL    HW165873   2.053  11.146  11.513
87992SOL    HW265874   2.143  11.036  11.462
87993SOL     OW65875  13.187   9.611   5.512
87993SOL    HW165876  13.142   9.530   5.538
87993SOL    HW265877  13.213   9.651   5.595
87994SOL     OW65878  14.034   2.046   3.629
87994SOL    HW165879  14.129   2.045   3.614
87994SOL    HW265880  13.996   2.040   3.541
87995SOL     OW65881  14.241   4.570   2.715
87995SOL    HW165882  14.169   4.626   2.689
87995SOL    HW265883  14.293   4.623   2.775
87996SOL     OW65884   9.613   9.531  10.465
87996SOL    HW165885   9.570   9.446  10.458
87996SOL    HW265886   9.553   9.592  10.423
87997SOL     OW65887   9.507   3.055   4.357
87997SOL    HW165888   9.437   3.071   4.421
87997SOL    HW265889   9.460   3.027   4.278
87998SOL     OW65890  12.376  13.505  11.450
87998SOL    HW165891  12.303  13.458  11.490
87998SOL    HW265892  12.360  13.597  11.470
87999SOL     OW65893  14.415   0.516  10.417
87999SOL    HW165894  14.442   0.472  10.337
87999SOL    HW265895  14.348   0.578  10.388
88000SOL     OW65896   8.696   4.761   6.953
88000SOL    HW165897   8.785   4.781   6.923
88000SOL    HW265898   8.708   4.723   7.039
88001SOL     OW65899   5.499   3.385  11.967
88001SOL    HW165900   5.586   3.424  11.977
88001SOL    HW265901   5.516   3.297  11.935
88002SOL     OW65902  11.056  10.994   1.348
88002SOL    HW165903  11.110  11.058   1.395
88002SOL    HW265904  10.974  11.040   1.331
88003SOL     OW65905   1.777  11.729  13.828
88003SOL    HW165906   1.814  11.733  13.916
88003SOL    HW265907   1.847  11.763  13.772
88004SOL     OW65908   0.866   1.811  10.373
88004SOL    HW165909   0.814   1.791  10.294
88004SOL    HW265910   0.870   1.728  10.420
88005SOL     OW65911   1.269   1.077  11.656
88005SOL    HW165912   1.339   1.072  11.720
88005SOL    HW265913   1.313   1.093  11.573
88006SOL     OW65914  12.114   4.348   6.996
88006SOL    HW165915  12.091   4.268   6.948
88006SOL    HW265916  12.106   4.418   6.931
88007SOL     OW65917  12.157   3.371   8.017
88007SOL    HW165918  12.160   3.369   8.113
88007SOL    HW265919  12.088   3.308   7.994
88008SOL     OW65920  11.454  13.878  10.057
88008SOL    HW165921  11.434  13.955  10.004
88008SOL    HW265922  11.450  13.909  10.148
88009SOL     OW65923  14.460  12.473   2.470
88009SOL    HW165924  14.388  12.534   2.485
88009SOL    HW265925  14.536  12.529   2.454
88010SOL     OW65926   3.289   4.359   9.857
88010SOL    HW165927   3.196   4.371   9.839
88010SOL    HW265928   3.328   4.337   9.773
88011SOL     OW65929  12.857   9.293  10.494
88011SOL    HW165930  12.897   9.290  10.407
88011SOL    HW265931  12.814   9.207  10.503
88012SOL     OW65932   0.505  11.050   8.330
88012SOL    HW165933   0.532  11.098   8.252
88012SOL    HW265934   0.417  11.018   8.309
88013SOL     OW65935   6.614   9.447   5.353
88013SOL    HW165936   6.533   9.454   5.303
88013SOL    HW265937   6.668   9.520   5.322
88014SOL     OW65938   1.611  14.649   1.343
88014SOL    HW165939   1.685  14.709   1.346
88014SOL    HW265940   1.634  14.580   1.406
88015SOL     OW65941  14.148   0.013   7.449
88015SOL    HW165942  14.104  14.850   7.375
88015SOL    HW265943  14.079   0.059   7.497
88016SOL     OW65944   4.454   5.126   6.025
88016SOL    HW165945   4.510   5.128   6.104
88016SOL    HW265946   4.443   5.032   6.007
88017SOL     OW65947  12.941   3.311  10.465
88017SOL    HW165948  12.994   3.231  10.469
88017SOL    HW265949  13.001   3.379  10.435
88018SOL     OW65950   6.964   3.827   9.311
88018SOL    HW165951   7.029   3.762   9.284
88018SOL    HW265952   6.881   3.790   9.280
88019SOL     OW65953   4.598   6.656  11.749
88019SOL    HW165954   4.651   6.726  11.712
88019SOL    HW265955   4.518   6.656  11.697
88020SOL     OW65956  12.066  12.349  12.975
88020SOL    HW165957  12.145  12.402  12.974
88020SOL    HW265958  12.046  12.337  13.068
88021SOL     OW65959   8.997  13.848   8.649
88021SOL    HW165960   9.070  13.818   8.703
88021SOL    HW265961   8.937  13.890   8.710
88022SOL     OW65962   1.095   1.394  10.430
88022SOL    HW165963   1.157   1.462  10.458
88022SOL    HW265964   1.124   1.315  10.475
88023SOL     OW65965   7.374   5.761   1.328
88023SOL    HW165966   7.366   5.856   1.333
88023SOL    HW265967   7.448   5.745   1.269
88024SOL     OW65968   8.477   5.070  10.702
88024SOL    HW165969   8.438   5.152  10.671
88024SOL    HW265970   8.404   5.023  10.742
88025SOL     OW65971  13.188  13.939   0.621
88025SOL    HW165972  13.124  13.883   0.577
88025SOL    HW265973  13.156  13.947   0.711
88026SOL     OW65974  13.967   0.620   4.012
88026SOL    HW165975  13.972   0.527   4.035
88026SOL    HW265976  13.961   0.665   4.096
88027SOL     OW65977  14.099   3.898   2.882
88027SOL    HW165978  14.097   3.983   2.838
88027SOL    HW265979  14.026   3.850   2.844
88028SOL     OW65980  14.289  12.952   7.905
88028SOL    HW165981  14.295  12.969   7.999
88028SOL    HW265982  14.378  12.925   7.880
88029SOL     OW65983   5.262   7.013   7.797
88029SOL    HW165984   5.285   6.973   7.881
88029SOL    HW265985   5.340   7.061   7.771
88030SOL     OW65986   4.469   7.157  11.443
88030SOL    HW165987   4.485   7.210  11.521
88030SOL    HW265988   4.416   7.212  11.386
88031SOL     OW65989  11.940  12.585  13.354
88031SOL    HW165990  11.978  12.510  13.399
88031SOL    HW265991  11.895  12.634  13.423
88032SOL     OW65992  13.654   4.062   8.903
88032SOL    HW165993  13.664   4.119   8.980
88032SOL    HW265994  13.596   4.111   8.845
88033SOL     OW65995   3.508   3.393   8.709
88033SOL    HW165996   3.449   3.457   8.750
88033SOL    HW265997   3.495   3.406   8.615
88034SOL     OW65998   2.302  10.602   6.699
88034SOL    HW165999   2.372  10.589   6.635
88034SOL    HW266000   2.229  10.549   6.667
88035SOL     OW66001  10.371   6.404  13.089
88035SOL    HW166002  10.458   6.375  13.113
88035SOL    HW266003  10.339   6.453  13.165
88036SOL     OW66004  13.587   5.191   9.051
88036SOL    HW166005  13.546   5.258   8.996
88036SOL    HW266006  13.516   5.154   9.102
88037SOL     OW66007   1.287   9.864   2.643
88037SOL    HW166008   1.328   9.862   2.730
88037SOL    HW266009   1.194   9.852   2.661
88038SOL     OW66010   9.065  11.624   7.430
88038SOL    HW166011   9.060  11.615   7.335
88038SOL    HW266012   9.130  11.559   7.457
88039SOL     OW66013   4.097   0.067   8.967
88039SOL    HW166014   4.072   0.121   8.892
88039SOL    HW266015   4.180   0.104   8.996
88040SOL     OW66016   8.428  10.533   9.007
88040SOL    HW166017   8.353  10.497   8.959
88040SOL    HW266018   8.445  10.469   9.076
88041SOL     OW66019   8.822   9.921  10.514
88041SOL    HW166020   8.914   9.908  10.539
88041SOL    HW266021   8.791   9.992  10.571
88042SOL     OW66022   8.468   4.443  11.845
88042SOL    HW166023   8.474   4.500  11.922
88042SOL    HW266024   8.424   4.495  11.779
88043SOL     OW66025  13.879   2.946   9.788
88043SOL    HW166026  13.896   2.963   9.696
88043SOL    HW266027  13.784   2.954   9.796
88044SOL     OW66028   5.409  12.085  12.864
88044SOL    HW166029   5.383  12.160  12.917
88044SOL    HW266030   5.327  12.037  12.850
88045SOL     OW66031  11.963   1.567   4.573
88045SOL    HW166032  12.024   1.576   4.499
88045SOL    HW266033  11.878   1.591   4.538
88046SOL     OW66034   3.828   4.975  13.016
88046SOL    HW166035   3.825   5.066  12.987
88046SOL    HW266036   3.864   4.979  13.104
88047SOL     OW66037   4.939  13.590   2.785
88047SOL    HW166038   4.850  13.608   2.755
88047SOL    HW266039   4.995  13.645   2.731
88048SOL     OW66040   7.383   0.433   4.828
88048SOL    HW166041   7.354   0.380   4.902
88048SOL    HW266042   7.393   0.371   4.756
88049SOL     OW66043  14.180   4.870   1.380
88049SOL    HW166044  14.163   4.937   1.447
88049SOL    HW266045  14.141   4.905   1.300
88050SOL     OW66046   1.987  13.082   7.697
88050SOL    HW166047   1.970  13.174   7.720
88050SOL    HW266048   1.900  13.041   7.696
88051SOL     OW66049   8.365   5.061   3.917
88051SOL    HW166050   8.453   5.038   3.945
88051SOL    HW266051   8.347   5.144   3.961
88052SOL     OW66052   6.152   6.536  14.017
88052SOL    HW166053   6.072   6.482  14.024
88052SOL    HW266054   6.205   6.508  14.092
88053SOL     OW66055   3.689   5.507  13.808
88053SOL    HW166056   3.677   5.594  13.771
88053SOL    HW266057   3.706   5.522  13.901
88054SOL     OW66058   0.955  10.783   0.234
88054SOL    HW166059   1.004  10.712   0.276
88054SOL    HW266060   0.930  10.747   0.149
88055SOL     OW66061  13.763   2.706   7.341
88055SOL    HW166062  13.829   2.674   7.280
88055SOL    HW266063  13.803   2.696   7.427
88056SOL     OW66064   8.778  13.397   0.603
88056SOL    HW166065   8.734  13.427   0.523
88056SOL    HW266066   8.706  13.373   0.661
88057SOL     OW66067  14.825   2.755   9.879
88057SOL    HW166068  14.817   2.662   9.898
88057SOL    HW266069   0.042   2.772   9.880
88058SOL     OW66070  11.873   6.434   2.944
88058SOL    HW166071  11.957   6.479   2.943
88058SOL    HW266072  11.828   6.468   3.021
88059SOL     OW66073   3.734   7.487   5.639
88059SOL    HW166074   3.774   7.548   5.576
88059SOL    HW266075   3.777   7.403   5.622
88060SOL     OW66076  14.505  10.189   7.851
88060SOL    HW166077  14.527  10.182   7.944
88060SOL    HW266078  14.460  10.273   7.843
88061SOL     OW66079  11.966   1.386  13.220
88061SOL    HW166080  11.936   1.296  13.235
88061SOL    HW266081  11.887   1.439  13.226
88062SOL     OW66082  13.047   9.866   5.412
88062SOL    HW166083  13.090   9.883   5.328
88062SOL    HW266084  13.098   9.795   5.450
88063SOL     OW66085   4.075   2.575   9.916
88063SOL    HW166086   4.087   2.637   9.988
88063SOL    HW266087   4.152   2.587   9.861
88064SOL     OW66088   2.491   3.137   3.711
88064SOL    HW166089   2.581   3.130   3.681
88064SOL    HW266090   2.445   3.064   3.669
88065SOL     OW66091   5.822   8.996   7.446
88065SOL    HW166092   5.826   9.000   7.542
88065SOL    HW266093   5.872   8.917   7.423
88066SOL     OW66094   8.532   2.346   0.561
88066SOL    HW166095   8.590   2.381   0.629
88066SOL    HW266096   8.514   2.420   0.504
88067SOL     OW66097   8.103   8.436  11.137
88067SOL    HW166098   8.137   8.522  11.163
88067SOL    HW266099   8.068   8.399  11.218
88068SOL     OW66100  10.228  10.125   8.728
88068SOL    HW166101  10.135  10.143   8.730
88068SOL    HW266102  10.269  10.201   8.769
88069SOL     OW66103  14.846  11.919  13.604
88069SOL    HW166104   0.051  11.908  13.558
88069SOL    HW266105  14.858  11.997  13.658
88070SOL     OW66106  14.764  12.880  10.744
88070SOL    HW166107  14.807  12.869  10.829
88070SOL    HW266108  14.802  12.960  10.708
88071SOL     OW66109   8.174   9.313   1.239
88071SOL    HW166110   8.114   9.368   1.289
88071SOL    HW266111   8.160   9.225   1.273
88072SOL     OW66112   4.349   3.542   5.296
88072SOL    HW166113   4.350   3.638   5.293
88072SOL    HW266114   4.360   3.521   5.388
88073SOL     OW66115   8.163   7.224   1.897
88073SOL    HW166116   8.254   7.218   1.927
88073SOL    HW266117   8.161   7.172   1.816
88074SOL     OW66118   6.914  13.904  13.220
88074SOL    HW166119   6.920  13.833  13.283
88074SOL    HW266120   6.823  13.934  13.227
88075SOL     OW66121   2.335  13.325  13.431
88075SOL    HW166122   2.302  13.252  13.483
88075SOL    HW266123   2.391  13.284  13.365
88076SOL     OW66124   3.012   2.602  10.418
88076SOL    HW166125   2.958   2.659  10.473
88076SOL    HW266126   2.994   2.514  10.451
88077SOL     OW66127   4.332  10.088   3.237
88077SOL    HW166128   4.346  10.014   3.296
88077SOL    HW266129   4.242  10.115   3.254
88078SOL     OW66130   1.775  13.292  11.199
88078SOL    HW166131   1.795  13.244  11.279
88078SOL    HW266132   1.857  13.291  11.149
88079SOL     OW66133   1.828   6.292   5.978
88079SOL    HW166134   1.874   6.328   5.902
88079SOL    HW266135   1.871   6.208   5.996
88080SOL     OW66136  11.737   4.878   8.674
88080SOL    HW166137  11.651   4.900   8.637
88080SOL    HW266138  11.774   4.963   8.697
88081SOL     OW66139   4.736  13.286   5.881
88081SOL    HW166140   4.760  13.313   5.792
88081SOL    HW266141   4.816  13.299   5.932
88082SOL     OW66142  13.330   7.948   1.326
88082SOL    HW166143  13.272   8.017   1.358
88082SOL    HW266144  13.416   7.991   1.319
88083SOL     OW66145   5.407   4.435  13.320
88083SOL    HW166146   5.400   4.515  13.372
88083SOL    HW266147   5.317   4.416  13.294
88084SOL     OW66148   9.982  14.498  13.875
88084SOL    HW166149   9.953  14.435  13.810
88084SOL    HW266150  10.075  14.479  13.888
88085SOL     OW66151   9.537   0.892   9.715
88085SOL    HW166152   9.569   0.943   9.790
88085SOL    HW266153   9.567   0.803   9.734
88086SOL     OW66154  11.113   0.425  10.342
88086SOL    HW166155  11.207   0.405  10.338
88086SOL    HW266156  11.104   0.482  10.418
88087SOL     OW66157   5.403  12.421   5.983
88087SOL    HW166158   5.401  12.405   6.077
88087SOL    HW266159   5.447  12.505   5.973
88088SOL     OW66160   0.325  12.517   5.771
88088SOL    HW166161   0.300  12.428   5.749
88088SOL    HW266162   0.420  12.520   5.758
88089SOL     OW66163   4.311   8.470   8.776
88089SOL    HW166164   4.255   8.516   8.839
88089SOL    HW266165   4.323   8.383   8.813
88090SOL     OW66166   9.855   7.862   6.453
88090SOL    HW166167   9.922   7.830   6.512
88090SOL    HW266168   9.895   7.936   6.408
88091SOL     OW66169  11.597   7.430   6.948
88091SOL    HW166170  11.623   7.472   6.867
88091SOL    HW266171  11.551   7.499   6.997
88092SOL     OW66172   1.382  10.631   8.608
88092SOL    HW166173   1.473  10.611   8.587
88092SOL    HW266174   1.363  10.582   8.687
88093SOL     OW66175   6.615  11.974   6.642
88093SOL    HW166176   6.641  11.988   6.551
88093SOL    HW266177   6.553  12.045   6.660
88094SOL     OW66178  12.974  10.633   6.175
88094SOL    HW166179  12.994  10.622   6.268
88094SOL    HW266180  13.059  10.627   6.132
88095SOL     OW66181  12.122  14.783   1.387
88095SOL    HW166182  12.074  14.820   1.314
88095SOL    HW266183  12.062  14.720   1.426
88096SOL     OW66184   1.769   0.933   7.254
88096SOL    HW166185   1.822   0.894   7.323
88096SOL    HW266186   1.785   1.027   7.262
88097SOL     OW66187  11.548   5.500  13.379
88097SOL    HW166188  11.628   5.533  13.421
88097SOL    HW266189  11.548   5.406  13.399
88098SOL     OW66190   6.514   0.322   8.812
88098SOL    HW166191   6.523   0.311   8.907
88098SOL    HW266192   6.428   0.363   8.800
88099SOL     OW66193   8.175   8.798  10.720
88099SOL    HW166194   8.237   8.785  10.648
88099SOL    HW266195   8.170   8.713  10.763
88100SOL     OW66196   0.816  12.128   7.362
88100SOL    HW166197   0.748  12.083   7.412
88100SOL    HW266198   0.863  12.058   7.317
88101SOL     OW66199   1.386   0.304   0.303
88101SOL    HW166200   1.301   0.293   0.345
88101SOL    HW266201   1.374   0.376   0.241
88102SOL     OW66202  10.436  13.651   9.295
88102SOL    HW166203  10.374  13.699   9.241
88102SOL    HW266204  10.430  13.561   9.263
88103SOL     OW66205   0.306   5.893   9.915
88103SOL    HW166206   0.375   5.903   9.981
88103SOL    HW266207   0.244   5.831   9.954
88104SOL     OW66208   8.707  13.531   5.142
88104SOL    HW166209   8.728  13.470   5.072
88104SOL    HW266210   8.788  13.539   5.193
88105SOL     OW66211   1.808   1.501   8.029
88105SOL    HW166212   1.845   1.566   8.088
88105SOL    HW266213   1.822   1.417   8.074
88106SOL     OW66214   3.524  13.412   7.337
88106SOL    HW166215   3.432  13.386   7.344
88106SOL    HW266216   3.571  13.349   7.391
88107SOL     OW66217  10.531  13.312   8.696
88107SOL    HW166218  10.546  13.257   8.619
88107SOL    HW266219  10.483  13.255   8.757
88108SOL     OW66220   4.259   4.513  12.995
88108SOL    HW166221   4.312   4.592  13.004
88108SOL    HW266222   4.232   4.512  12.903
88109SOL     OW66223   6.561  14.599  10.363
88109SOL    HW166224   6.587  14.679  10.317
88109SOL    HW266225   6.562  14.531  10.295
88110SOL     OW66226   0.358   4.379  11.064
88110SOL    HW166227   0.396   4.299  11.101
88110SOL    HW266228   0.323   4.426  11.139
88111SOL     OW66229  12.883   4.369  10.225
88111SOL    HW166230  12.957   4.406  10.273
88111SOL    HW266231  12.865   4.433  10.156
88112SOL     OW66232  10.296  13.126  11.573
88112SOL    HW166233  10.388  13.150  11.562
88112SOL    HW266234  10.247  13.197  11.531
88113SOL     OW66235   8.032   3.791   8.904
88113SOL    HW166236   8.001   3.881   8.901
88113SOL    HW266237   8.043   3.772   8.997
88114SOL     OW66238   6.549  12.868   9.675
88114SOL    HW166239   6.488  12.798   9.700
88114SOL    HW266240   6.591  12.892   9.758
88115SOL     OW66241   0.083   3.108   1.896
88115SOL    HW166242   0.128   3.040   1.847
88115SOL    HW266243   0.152   3.166   1.926
88116SOL     OW66244  12.216  14.782  12.084
88116SOL    HW166245  12.218  14.789  12.180
88116SOL    HW266246  12.304  14.753  12.060
88117SOL     OW66247  13.903   3.636  10.127
88117SOL    HW166248  13.953   3.561  10.160
88117SOL    HW266249  13.862   3.604  10.047
88118SOL     OW66250  12.164   7.365   6.554
88118SOL    HW166251  12.171   7.430   6.623
88118SOL    HW266252  12.254   7.338   6.536
88119SOL     OW66253  10.302  10.069   4.175
88119SOL    HW166254  10.257  10.067   4.260
88119SOL    HW266255  10.232  10.080   4.111
88120SOL     OW66256   3.431   4.575   9.150
88120SOL    HW166257   3.417   4.545   9.060
88120SOL    HW266258   3.344   4.603   9.179
88121SOL     OW66259   1.883   1.954   0.083
88121SOL    HW166260   1.902   1.866   0.049
88121SOL    HW266261   1.838   1.998   0.011
88122SOL     OW66262   9.369  13.369   4.882
88122SOL    HW166263   9.360  13.276   4.901
88122SOL    HW266264   9.370  13.411   4.968
88123SOL     OW66265   5.113   9.393   7.596
88123SOL    HW166266   5.065   9.314   7.621
88123SOL    HW266267   5.052   9.464   7.612
88124SOL     OW66268  14.723   6.110  13.345
88124SOL    HW166269  14.717   6.196  13.303
88124SOL    HW266270  14.734   6.049  13.273
88125SOL     OW66271   5.801   3.169   6.228
88125SOL    HW166272   5.720   3.170   6.177
88125SOL    HW266273   5.854   3.100   6.188
88126SOL     OW66274   8.029   1.218   7.599
88126SOL    HW166275   8.089   1.187   7.531
88126SOL    HW266276   8.000   1.138   7.643
88127SOL     OW66277   5.851   0.229  10.593
88127SOL    HW166278   5.798   0.302  10.561
88127SOL    HW266279   5.801   0.151  10.571
88128SOL     OW66280   0.870  14.705   0.620
88128SOL    HW166281   0.861  14.777   0.683
88128SOL    HW266282   0.902  14.631   0.673
88129SOL     OW66283   1.976  14.697  12.897
88129SOL    HW166284   1.928  14.614  12.903
88129SOL    HW266285   1.925  14.759  12.949
88130SOL     OW66286   1.929   5.124   9.080
88130SOL    HW166287   1.856   5.098   9.135
88130SOL    HW266288   1.900   5.103   8.991
88131SOL     OW66289   0.057   2.478  11.191
88131SOL    HW166290   0.149   2.474  11.165
88131SOL    HW266291   0.012   2.513  11.115
88132SOL     OW66292   2.730  11.482   0.125
88132SOL    HW166293   2.643  11.442   0.118
88132SOL    HW266294   2.714  11.566   0.169
88133SOL     OW66295   2.733   1.657   6.285
88133SOL    HW166296   2.802   1.718   6.259
88133SOL    HW266297   2.662   1.675   6.224
88134SOL     OW66298   6.340   4.653   8.038
88134SOL    HW166299   6.335   4.694   7.952
88134SOL    HW266300   6.249   4.648   8.067
88135SOL     OW66301   0.104   3.271   1.035
88135SOL    HW166302   0.017   3.305   1.016
88135SOL    HW266303   0.098   3.177   1.014
88136SOL     OW66304  14.068  12.772  10.114
88136SOL    HW166305  14.104  12.859  10.094
88136SOL    HW266306  14.101  12.716  10.044
88137SOL     OW66307   7.032   7.059   1.203
88137SOL    HW166308   7.092   6.991   1.172
88137SOL    HW266309   6.945   7.028   1.178
88138SOL     OW66310   1.278  10.327  14.611
88138SOL    HW166311   1.292  10.248  14.560
88138SOL    HW266312   1.270  10.297  14.701
88139SOL     OW66313  12.569   7.812   8.128
88139SOL    HW166314  12.540   7.787   8.216
88139SOL    HW266315  12.662   7.791   8.126
88140SOL     OW66316  13.545   4.222  14.143
88140SOL    HW166317  13.631   4.182  14.152
88140SOL    HW266318  13.527   4.260  14.228
88141SOL     OW66319  13.178   5.406   6.059
88141SOL    HW166320  13.090   5.437   6.081
88141SOL    HW266321  13.166   5.354   5.979
88142SOL     OW66322   9.346   7.479   6.757
88142SOL    HW166323   9.290   7.530   6.815
88142SOL    HW266324   9.425   7.463   6.807
88143SOL     OW66325   3.446   1.280   4.030
88143SOL    HW166326   3.469   1.360   3.982
88143SOL    HW266327   3.465   1.210   3.968
88144SOL     OW66328  13.047  10.122   5.514
88144SOL    HW166329  13.014  10.176   5.442
88144SOL    HW266330  13.047  10.033   5.478
88145SOL     OW66331   2.889  10.906  10.011
88145SOL    HW166332   2.864  10.971  10.076
88145SOL    HW266333   2.848  10.936   9.930
88146SOL     OW66334  13.461   9.053   9.484
88146SOL    HW166335  13.416   8.985   9.433
88146SOL    HW266336  13.506   9.005   9.553
88147SOL     OW66337   3.792   8.765   4.194
88147SOL    HW166338   3.819   8.727   4.278
88147SOL    HW266339   3.790   8.691   4.133
88148SOL     OW66340   2.133   4.480  11.331
88148SOL    HW166341   2.162   4.418  11.398
88148SOL    HW266342   2.098   4.554  11.381
88149SOL     OW66343  10.218   9.771   3.238
88149SOL    HW166344  10.166   9.691   3.235
88149SOL    HW266345  10.167   9.830   3.293
88150SOL     OW66346   5.545  12.922  14.846
88150SOL    HW166347   5.578  12.965   0.047
88150SOL    HW266348   5.583  12.834  14.848
88151SOL     OW66349   7.406   7.393   6.202
88151SOL    HW166350   7.375   7.433   6.121
88151SOL    HW266351   7.464   7.459   6.241
88152SOL     OW66352   7.058   8.861  14.147
88152SOL    HW166353   7.095   8.802  14.081
88152SOL    HW266354   7.079   8.819  14.230
88153SOL     OW66355  10.788   4.281   3.484
88153SOL    HW166356  10.722   4.334   3.440
88153SOL    HW266357  10.869   4.298   3.436
88154SOL     OW66358  14.357  10.312  10.483
88154SOL    HW166359  14.383  10.353  10.565
88154SOL    HW266360  14.308  10.233  10.510
88155SOL     OW66361  10.117   7.222   5.083
88155SOL    HW166362  10.038   7.198   5.133
88155SOL    HW266363  10.189   7.185   5.133
88156SOL     OW66364   4.167   3.723   8.141
88156SOL    HW166365   4.073   3.737   8.151
88156SOL    HW266366   4.188   3.649   8.198
88157SOL     OW66367   8.174   6.644   9.908
88157SOL    HW166368   8.173   6.667   9.815
88157SOL    HW266369   8.086   6.612   9.926
88158SOL     OW66370   6.731   4.124  10.206
88158SOL    HW166371   6.750   4.032  10.222
88158SOL    HW266372   6.741   4.134  10.111
88159SOL     OW66373  13.147   6.326   8.911
88159SOL    HW166374  13.162   6.267   8.984
88159SOL    HW266375  13.216   6.392   8.918
88160SOL     OW66376   2.659   3.219   9.257
88160SOL    HW166377   2.749   3.193   9.236
88160SOL    HW266378   2.625   3.146   9.309
88161SOL     OW66379   6.411   4.663  14.010
88161SOL    HW166380   6.346   4.654  14.079
88161SOL    HW266381   6.484   4.607  14.038
88162SOL     OW66382   1.812  10.473   1.334
88162SOL    HW166383   1.786  10.565   1.333
88162SOL    HW266384   1.730  10.424   1.339
88163SOL     OW66385   6.210   3.551   0.322
88163SOL    HW166386   6.303   3.563   0.304
88163SOL    HW266387   6.183   3.634   0.363
88164SOL     OW66388   6.935  12.071  14.262
88164SOL    HW166389   6.981  12.091  14.181
88164SOL    HW266390   6.980  12.123  14.329
88165SOL     OW66391   1.854  11.447  10.681
88165SOL    HW166392   1.904  11.456  10.762
88165SOL    HW266393   1.795  11.523  10.680
88166SOL     OW66394   0.213  13.811  10.602
88166SOL    HW166395   0.201  13.721  10.632
88166SOL    HW266396   0.239  13.803  10.510
88167SOL     OW66397   8.354   0.361   9.925
88167SOL    HW166398   8.395   0.447   9.923
88167SOL    HW266399   8.267   0.376   9.889
88168SOL     OW66400  12.282   6.434  14.436
88168SOL    HW166401  12.259   6.348  14.471
88168SOL    HW266402  12.205   6.488  14.453
88169SOL     OW66403   0.394   6.335  12.745
88169SOL    HW166404   0.378   6.407  12.805
88169SOL    HW266405   0.478   6.356  12.704
88170SOL     OW66406   5.732   8.123  14.431
88170SOL    HW166407   5.781   8.094  14.354
88170SOL    HW266408   5.796   8.121  14.502
88171SOL     OW66409   9.828   0.171   1.985
88171SOL    HW166410   9.865   0.255   2.012
88171SOL    HW266411   9.794   0.133   2.066
88172SOL     OW66412   8.380  12.648   5.271
88172SOL    HW166413   8.382  12.556   5.247
88172SOL    HW266414   8.288  12.665   5.294
88173SOL     OW66415  11.242   0.894  12.308
88173SOL    HW166416  11.300   0.911  12.382
88173SOL    HW266417  11.242   0.976  12.258
88174SOL     OW66418   6.774   8.748   8.223
88174SOL    HW166419   6.764   8.758   8.318
88174SOL    HW266420   6.853   8.695   8.212
88175SOL     OW66421   4.602  14.754   5.110
88175SOL    HW166422   4.681  14.758   5.164
88175SOL    HW266423   4.622  14.810   5.035
88176SOL     OW66424   6.897   4.276  14.374
88176SOL    HW166425   6.820   4.219  14.377
88176SOL    HW266426   6.881   4.333  14.299
88177SOL     OW66427  11.801  14.499  10.413
88177SOL    HW166428  11.796  14.445  10.492
88177SOL    HW266429  11.889  14.537  10.415
88178SOL     OW66430   5.260   1.029   5.886
88178SOL    HW166431   5.250   1.059   5.977
88178SOL    HW266432   5.283   1.109   5.838
88179SOL     OW66433   5.999   0.439   7.831
88179SOL    HW166434   6.015   0.374   7.763
88179SOL    HW266435   6.016   0.393   7.913
88180SOL     OW66436  13.394   5.634  12.021
88180SOL    HW166437  13.334   5.666  11.953
88180SOL    HW266438  13.421   5.548  11.990
88181SOL     OW66439   3.708   4.214   8.248
88181SOL    HW166440   3.730   4.303   8.221
88181SOL    HW266441   3.720   4.215   8.343
88182SOL     OW66442   8.790   5.625   3.575
88182SOL    HW166443   8.864   5.680   3.550
88182SOL    HW266444   8.809   5.597   3.665
88183SOL     OW66445   3.040   1.240   1.024
88183SOL    HW166446   3.024   1.220   0.932
88183SOL    HW266447   2.968   1.198   1.071
88184SOL     OW66448   8.327  13.444   9.748
88184SOL    HW166449   8.343  13.390   9.671
88184SOL    HW266450   8.411  13.488   9.764
88185SOL     OW66451   1.263   0.392   1.445
88185SOL    HW166452   1.271   0.323   1.511
88185SOL    HW266453   1.307   0.468   1.483
88186SOL     OW66454   7.750   0.726  12.490
88186SOL    HW166455   7.683   0.665  12.460
88186SOL    HW266456   7.776   0.775  12.411
88187SOL     OW66457   7.872   3.044   9.498
88187SOL    HW166458   7.872   2.976   9.565
88187SOL    HW266459   7.808   3.013   9.433
88188SOL     OW66460   7.534   7.856   2.674
88188SOL    HW166461   7.464   7.836   2.612
88188SOL    HW266462   7.501   7.824   2.758
88189SOL     OW66463  13.429   0.425  13.352
88189SOL    HW166464  13.344   0.410  13.311
88189SOL    HW266465  13.477   0.343  13.337
88190SOL     OW66466   1.135   5.233  12.993
88190SOL    HW166467   1.226   5.260  12.999
88190SOL    HW266468   1.108   5.257  12.904
88191SOL     OW66469   6.578  11.931  13.287
88191SOL    HW166470   6.617  11.886  13.363
88191SOL    HW266471   6.648  11.986  13.253
88192SOL     OW66472   0.246   8.099   6.926
88192SOL    HW166473   0.181   8.055   6.873
88192SOL    HW266474   0.208   8.104   7.013
88193SOL     OW66475  10.184   8.849   3.437
88193SOL    HW166476  10.090   8.848   3.418
88193SOL    HW266477  10.219   8.775   3.386
88194SOL     OW66478   2.659   0.121   8.722
88194SOL    HW166479   2.654   0.033   8.683
88194SOL    HW266480   2.746   0.125   8.761
88195SOL     OW66481   9.787   3.520   5.655
88195SOL    HW166482   9.751   3.591   5.709
88195SOL    HW266483   9.880   3.517   5.677
88196SOL     OW66484   3.766   4.238   6.595
88196SOL    HW166485   3.819   4.212   6.670
88196SOL    HW266486   3.779   4.332   6.587
88197SOL     OW66487   9.980   0.580   9.785
88197SOL    HW166488   9.905   0.617   9.739
88197SOL    HW266489  10.031   0.537   9.715
88198SOL     OW66490   4.690   3.031  11.401
88198SOL    HW166491   4.692   3.039  11.306
88198SOL    HW266492   4.641   2.950  11.417
88199SOL     OW66493   4.638   9.202   7.099
88199SOL    HW166494   4.588   9.270   7.053
88199SOL    HW266495   4.603   9.120   7.066
88200SOL     OW66496  12.302   5.063  14.747
88200SOL    HW166497  12.288   4.973  14.718
88200SOL    HW266498  12.280   5.063  14.840
88201SOL     OW66499  11.652   2.257  14.729
88201SOL    HW166500  11.594   2.327  14.699
88201SOL    HW266501  11.734   2.272  14.684
88202SOL     OW66502   1.439  11.712  14.234
88202SOL    HW166503   1.411  11.625  14.206
88202SOL    HW266504   1.372  11.771  14.200
88203SOL     OW66505   8.425   9.865   4.301
88203SOL    HW166506   8.377   9.901   4.227
88203SOL    HW266507   8.367   9.877   4.376
88204SOL     OW66508   7.937  11.910   8.619
88204SOL    HW166509   8.030  11.889   8.629
88204SOL    HW266510   7.930  11.952   8.533
88205SOL     OW66511  13.531   9.915  11.106
88205SOL    HW166512  13.555   9.823  11.123
88205SOL    HW266513  13.497   9.946  11.190
88206SOL     OW66514  12.396   5.572   6.163
88206SOL    HW166515  12.412   5.642   6.099
88206SOL    HW266516  12.478   5.567   6.213
88207SOL     OW66517   1.098   7.344  11.758
88207SOL    HW166518   1.193   7.348  11.744
88207SOL    HW266519   1.084   7.388  11.842
88208SOL     OW66520   6.636   3.791  10.747
88208SOL    HW166521   6.712   3.788  10.689
88208SOL    HW266522   6.583   3.864  10.713
88209SOL     OW66523   9.442   5.881   1.429
88209SOL    HW166524   9.494   5.811   1.388
88209SOL    HW266525   9.505   5.948   1.452
88210SOL     OW66526   9.267   9.160  12.801
88210SOL    HW166527   9.261   9.236  12.744
88210SOL    HW266528   9.345   9.176  12.854
88211SOL     OW66529   8.175   2.095   5.757
88211SOL    HW166530   8.095   2.134   5.724
88211SOL    HW266531   8.224   2.070   5.678
88212SOL     OW66532   8.590   2.204   6.006
88212SOL    HW166533   8.616   2.197   6.098
88212SOL    HW266534   8.667   2.176   5.957
88213SOL     OW66535  10.795   2.591   4.498
88213SOL    HW166536  10.780   2.655   4.429
88213SOL    HW266537  10.708   2.567   4.529
88214SOL     OW66538  14.246   6.729   6.836
88214SOL    HW166539  14.157   6.713   6.805
88214SOL    HW266540  14.235   6.784   6.913
88215SOL     OW66541   2.265  10.419   7.361
88215SOL    HW166542   2.208  10.353   7.400
88215SOL    HW266543   2.327  10.441   7.431
88216SOL     OW66544   9.033   3.567  12.936
88216SOL    HW166545   9.054   3.606  13.021
88216SOL    HW266546   8.941   3.588  12.921
88217SOL     OW66547   0.787   7.938  12.419
88217SOL    HW166548   0.778   7.849  12.452
88217SOL    HW266549   0.882   7.949  12.405
88218SOL     OW66550   7.683  13.357   2.693
88218SOL    HW166551   7.747  13.314   2.750
88218SOL    HW266552   7.631  13.412   2.752
88219SOL     OW66553  12.187   6.467   1.563
88219SOL    HW166554  12.245   6.529   1.518
88219SOL    HW266555  12.182   6.392   1.503
88220SOL     OW66556   6.527  11.225   9.847
88220SOL    HW166557   6.481  11.165   9.788
88220SOL    HW266558   6.616  11.189   9.852
88221SOL     OW66559   6.461  13.726   2.116
88221SOL    HW166560   6.529  13.659   2.114
88221SOL    HW266561   6.411  13.712   2.036
88222SOL     OW66562  11.595   6.640   6.464
88222SOL    HW166563  11.627   6.718   6.418
88222SOL    HW266564  11.593   6.572   6.397
88223SOL     OW66565   8.432   4.217   2.765
88223SOL    HW166566   8.378   4.241   2.690
88223SOL    HW266567   8.515   4.262   2.750
88224SOL     OW66568  14.197  11.745   2.190
88224SOL    HW166569  14.235  11.738   2.103
88224SOL    HW266570  14.174  11.655   2.214
88225SOL     OW66571  13.258   7.296  11.502
88225SOL    HW166572  13.340   7.247  11.504
88225SOL    HW266573  13.233   7.297  11.409
88226SOL     OW66574   5.362   8.446   6.990
88226SOL    HW166575   5.330   8.363   7.023
88226SOL    HW266576   5.299   8.511   7.023
88227SOL     OW66577   7.345  10.614   3.440
88227SOL    HW166578   7.384  10.529   3.464
88227SOL    HW266579   7.417  10.676   3.446
88228SOL     OW66580   9.700   4.668   2.578
88228SOL    HW166581   9.686   4.759   2.552
88228SOL    HW266582   9.762   4.634   2.514
88229SOL     OW66583   0.383   2.442   7.462
88229SOL    HW166584   0.429   2.473   7.383
88229SOL    HW266585   0.360   2.352   7.442
88230SOL     OW66586  13.308   2.536   1.450
88230SOL    HW166587  13.257   2.503   1.376
88230SOL    HW266588  13.396   2.549   1.414
88231SOL     OW66589   0.661   3.645   7.486
88231SOL    HW166590   0.611   3.694   7.422
88231SOL    HW266591   0.602   3.638   7.562
88232SOL     OW66592  11.815   7.288   9.690
88232SOL    HW166593  11.881   7.251   9.749
88232SOL    HW266594  11.786   7.214   9.637
88233SOL     OW66595   2.235  12.141   7.988
88233SOL    HW166596   2.249  12.138   7.893
88233SOL    HW266597   2.252  12.052   8.018
88234SOL     OW66598  12.583   0.250   9.695
88234SOL    HW166599  12.628   0.226   9.776
88234SOL    HW266600  12.567   0.344   9.703
88235SOL     OW66601   4.823   1.487  10.130
88235SOL    HW166602   4.812   1.517  10.040
88235SOL    HW266603   4.786   1.399  10.131
88236SOL     OW66604   8.428   8.086   4.686
88236SOL    HW166605   8.505   8.049   4.644
88236SOL    HW266606   8.379   8.009   4.718
88237SOL     OW66607   3.847  11.704   8.844
88237SOL    HW166608   3.836  11.615   8.811
88237SOL    HW266609   3.860  11.757   8.765
88238SOL     OW66610   7.909   9.875  13.264
88238SOL    HW166611   7.893   9.781  13.254
88238SOL    HW266612   8.004   9.884  13.256
88239SOL     OW66613  12.091  11.515  11.068
88239SOL    HW166614  12.107  11.481  10.980
88239SOL    HW266615  12.168  11.567  11.088
88240SOL     OW66616   7.026   0.269  14.414
88240SOL    HW166617   7.003   0.362  14.419
88240SOL    HW266618   7.116   0.269  14.382
88241SOL     OW66619  11.692  12.790   7.325
88241SOL    HW166620  11.646  12.825   7.248
88241SOL    HW266621  11.623  12.770   7.387
88242SOL     OW66622   9.076  11.544   1.069
88242SOL    HW166623   9.122  11.461   1.059
88242SOL    HW266624   9.010  11.543   0.999
88243SOL     OW66625  14.060   3.989   5.123
88243SOL    HW166626  14.046   4.084   5.128
88243SOL    HW266627  14.143   3.980   5.077
88244SOL     OW66628   5.068   0.576   8.527
88244SOL    HW166629   5.028   0.619   8.451
88244SOL    HW266630   4.996   0.568   8.590
88245SOL     OW66631   6.694  11.065  12.692
88245SOL    HW166632   6.715  11.045  12.783
88245SOL    HW266633   6.662  11.155  12.694
88246SOL     OW66634   5.181  10.822  13.622
88246SOL    HW166635   5.115  10.890  13.612
88246SOL    HW266636   5.132  10.743  13.645
88247SOL     OW66637   5.105   5.981   4.578
88247SOL    HW166638   5.118   6.040   4.653
88247SOL    HW266639   5.192   5.947   4.559
88248SOL     OW66640   9.619   6.025   2.161
88248SOL    HW166641   9.605   5.969   2.237
88248SOL    HW266642   9.646   6.109   2.199
88249SOL     OW66643   6.570   3.842   0.779
88249SOL    HW166644   6.482   3.844   0.740
88249SOL    HW266645   6.573   3.920   0.834
88250SOL     OW66646  13.686   2.338   2.061
88250SOL    HW166647  13.683   2.246   2.034
88250SOL    HW266648  13.632   2.341   2.140
88251SOL     OW66649  10.070   2.735   0.294
88251SOL    HW166650  10.140   2.670   0.296
88251SOL    HW266651  10.102   2.806   0.350
88252SOL     OW66652  14.185   6.565   5.293
88252SOL    HW166653  14.169   6.598   5.204
88252SOL    HW266654  14.099   6.567   5.335
88253SOL     OW66655   7.390   3.584  11.516
88253SOL    HW166656   7.448   3.603  11.442
88253SOL    HW266657   7.302   3.589  11.480
88254SOL     OW66658  14.835  12.866   0.308
88254SOL    HW166659   0.009  12.915   0.244
88254SOL    HW266660  14.852  12.910   0.392
88255SOL     OW66661  10.830   2.493   6.764
88255SOL    HW166662  10.914   2.496   6.811
88255SOL    HW266663  10.766   2.524   6.829
88256SOL     OW66664   5.229   9.901   0.312
88256SOL    HW166665   5.282   9.871   0.238
88256SOL    HW266666   5.145   9.855   0.302
88257SOL     OW66667  11.290   6.446   4.697
88257SOL    HW166668  11.249   6.505   4.634
88257SOL    HW266669  11.222   6.427   4.761
88258SOL     OW66670  10.904   8.459   3.071
88258SOL    HW166671  10.974   8.523   3.057
88258SOL    HW266672  10.943   8.391   3.125
88259SOL     OW66673  13.427   4.765   7.136
88259SOL    HW166674  13.465   4.784   7.050
88259SOL    HW266675  13.503   4.756   7.194
88260SOL     OW66676   6.269   4.248   3.733
88260SOL    HW166677   6.179   4.279   3.723
88260SOL    HW266678   6.307   4.307   3.798
88261SOL     OW66679   5.004   5.551  13.520
88261SOL    HW166680   5.095   5.561  13.492
88261SOL    HW266681   4.961   5.633  13.494
88262SOL     OW66682  13.353   3.624  13.405
88262SOL    HW166683  13.320   3.691  13.465
88262SOL    HW266684  13.433   3.592  13.447
88263SOL     OW66685  13.657   6.497   8.422
88263SOL    HW166686  13.661   6.403   8.404
88263SOL    HW266687  13.574   6.526   8.383
88264SOL     OW66688   7.854   6.274  14.045
88264SOL    HW166689   7.840   6.323  13.964
88264SOL    HW266690   7.948   6.262  14.050
88265SOL     OW66691   4.281   7.495  11.586
88265SOL    HW166692   4.350   7.429  11.597
88265SOL    HW266693   4.284   7.546  11.667
88266SOL     OW66694   2.905   6.293  13.422
88266SOL    HW166695   2.911   6.310  13.328
88266SOL    HW266696   2.827   6.238  13.431
88267SOL     OW66697   6.147  13.707  12.529
88267SOL    HW166698   6.057  13.690  12.501
88267SOL    HW266699   6.197  13.633  12.493
88268SOL     OW66700   0.128   5.206  12.073
88268SOL    HW166701   0.082   5.264  12.012
88268SOL    HW266702   0.061   5.146  12.104
88269SOL     OW66703  10.209   4.077  10.421
88269SOL    HW166704  10.155   4.004  10.392
88269SOL    HW266705  10.288   4.036  10.455
88270SOL     OW66706   3.060   5.402   6.742
88270SOL    HW166707   3.072   5.408   6.647
88270SOL    HW266708   3.143   5.366   6.773
88271SOL     OW66709  13.348   3.469   6.850
88271SOL    HW166710  13.294   3.433   6.921
88271SOL    HW266711  13.318   3.422   6.772
88272SOL     OW66712  11.765  13.560   9.539
88272SOL    HW166713  11.849  13.605   9.533
88272SOL    HW266714  11.788  13.472   9.570
88273SOL     OW66715   5.676  11.638   3.717
88273SOL    HW166716   5.626  11.621   3.637
88273SOL    HW266717   5.767  11.632   3.689
88274SOL     OW66718   8.521   3.862  10.902
88274SOL    HW166719   8.504   3.911  10.821
88274SOL    HW266720   8.506   3.770  10.878
88275SOL     OW66721   3.680  12.942   2.782
88275SOL    HW166722   3.612  13.008   2.770
88275SOL    HW266723   3.706  12.949   2.874
88276SOL     OW66724   1.086   3.426   8.583
88276SOL    HW166725   1.175   3.453   8.564
88276SOL    HW266726   1.066   3.359   8.517
88277SOL     OW66727   9.940   2.954   3.769
88277SOL    HW166728   9.887   3.001   3.833
88277SOL    HW266729  10.029   2.986   3.783
88278SOL     OW66730  14.160   5.451  14.871
88278SOL    HW166731  14.147   5.391   0.068
88278SOL    HW266732  14.201   5.528   0.032
88279SOL     OW66733   9.006  13.541   3.225
88279SOL    HW166734   9.059  13.463   3.211
88279SOL    HW266735   8.966  13.559   3.140
88280SOL     OW66736   7.827  14.094   3.056
88280SOL    HW166737   7.862  14.143   2.982
88280SOL    HW266738   7.812  14.160   3.124
88281SOL     OW66739   0.880  12.540   9.936
88281SOL    HW166740   0.929  12.568   9.859
88281SOL    HW266741   0.790  12.529   9.905
88282SOL     OW66742   4.068  14.049   4.549
88282SOL    HW166743   4.149  14.070   4.502
88282SOL    HW266744   4.002  14.107   4.512
88283SOL     OW66745   1.858   6.202   2.258
88283SOL    HW166746   1.890   6.113   2.273
88283SOL    HW266747   1.764   6.197   2.277
88284SOL     OW66748  11.305  14.485   4.989
88284SOL    HW166749  11.269  14.396   4.990
88284SOL    HW266750  11.391  14.475   4.948
88285SOL     OW66751   7.265   7.493  10.281
88285SOL    HW166752   7.340   7.437  10.301
88285SOL    HW266753   7.280   7.523  10.191
88286SOL     OW66754   7.898   9.934   8.647
88286SOL    HW166755   7.895   9.878   8.569
88286SOL    HW266756   7.875  10.021   8.615
88287SOL     OW66757   0.245   0.350  12.093
88287SOL    HW166758   0.294   0.426  12.063
88287SOL    HW266759   0.296   0.315  12.166
88288SOL     OW66760   1.255   7.323   8.163
88288SOL    HW166761   1.326   7.272   8.202
88288SOL    HW266762   1.255   7.406   8.212
88289SOL     OW66763   2.193   8.662   3.158
88289SOL    HW166764   2.210   8.612   3.078
88289SOL    HW266765   2.120   8.617   3.200
88290SOL     OW66766   5.735  14.687   2.068
88290SOL    HW166767   5.685  14.713   2.146
88290SOL    HW266768   5.826  14.695   2.094
88291SOL     OW66769  12.748  12.842  10.816
88291SOL    HW166770  12.736  12.818  10.908
88291SOL    HW266771  12.704  12.772  10.767
88292SOL     OW66772  10.740  13.452   8.863
88292SOL    HW166773  10.819  13.445   8.810
88292SOL    HW266774  10.671  13.413   8.810
88293SOL     OW66775   5.886   8.113   5.785
88293SOL    HW166776   5.818   8.096   5.851
88293SOL    HW266777   5.967   8.113   5.835
88294SOL     OW66778   9.206   8.845   9.305
88294SOL    HW166779   9.130   8.860   9.361
88294SOL    HW266780   9.234   8.932   9.278
88295SOL     OW66781  13.660  13.789  14.781
88295SOL    HW166782  13.654  13.764  14.689
88295SOL    HW266783  13.596  13.860  14.790
88296SOL     OW66784   1.779   6.740   3.616
88296SOL    HW166785   1.794   6.657   3.663
88296SOL    HW266786   1.858   6.791   3.633
88297SOL     OW66787   8.774   6.297   8.784
88297SOL    HW166788   8.752   6.387   8.804
88297SOL    HW266789   8.724   6.276   8.706
88298SOL     OW66790  14.431   3.788  11.144
88298SOL    HW166791  14.525   3.785  11.161
88298SOL    HW266792  14.392   3.736  11.213
88299SOL     OW66793  11.798   6.256  13.673
88299SOL    HW166794  11.772   6.199  13.600
88299SOL    HW266795  11.809   6.197  13.747
88300SOL     OW66796  14.340  12.896  11.291
88300SOL    HW166797  14.260  12.864  11.249
88300SOL    HW266798  14.407  12.833  11.265
88301SOL     OW66799   3.956   7.255   2.723
88301SOL    HW166800   3.929   7.166   2.700
88301SOL    HW266801   3.890   7.311   2.682
88302SOL     OW66802   8.541   1.897   2.169
88302SOL    HW166803   8.534   1.877   2.262
88302SOL    HW266804   8.634   1.885   2.148
88303SOL     OW66805  10.896   9.595   0.399
88303SOL    HW166806  10.941   9.558   0.323
88303SOL    HW266807  10.805   9.602   0.371
88304SOL     OW66808   5.350  14.412  11.134
88304SOL    HW166809   5.391  14.326  11.132
88304SOL    HW266810   5.363  14.443  11.224
88305SOL     OW66811   8.413  14.379  10.031
88305SOL    HW166812   8.411  14.457  10.087
88305SOL    HW266813   8.460  14.407   9.952
88306SOL     OW66814   5.668   2.878   1.157
88306SOL    HW166815   5.585   2.901   1.115
88306SOL    HW266816   5.710   2.962   1.175
88307SOL     OW66817  14.828   1.312  14.447
88307SOL    HW166818  14.860   1.249  14.382
88307SOL    HW266819   0.026   1.368  14.466
88308SOL     OW66820   5.818   9.752   0.693
88308SOL    HW166821   5.760   9.710   0.630
88308SOL    HW266822   5.885   9.686   0.711
88309SOL     OW66823   5.239   2.505   2.589
88309SOL    HW166824   5.267   2.576   2.531
88309SOL    HW266825   5.260   2.536   2.677
88310SOL     OW66826   1.813   8.617   5.902
88310SOL    HW166827   1.769   8.537   5.931
88310SOL    HW266828   1.904   8.605   5.929
88311SOL     OW66829   5.852  12.997   7.025
88311SOL    HW166830   5.758  12.979   7.028
88311SOL    HW266831   5.891  12.916   6.993
88312SOL     OW66832   5.336   4.829   8.957
88312SOL    HW166833   5.281   4.754   8.980
88312SOL    HW266834   5.278   4.887   8.908
88313SOL     OW66835  14.031   2.265   0.169
88313SOL    HW166836  13.982   2.221   0.100
88313SOL    HW266837  13.978   2.254   0.247
88314SOL     OW66838   6.646   0.312   9.305
88314SOL    HW166839   6.664   0.405   9.294
88314SOL    HW266840   6.617   0.303   9.396
88315SOL     OW66841   6.396   9.739   8.063
88315SOL    HW166842   6.340   9.778   7.996
88315SOL    HW266843   6.479   9.722   8.017
88316SOL     OW66844   3.973   3.930   9.462
88316SOL    HW166845   4.057   3.890   9.483
88316SOL    HW266846   3.909   3.878   9.512
88317SOL     OW66847   4.866   3.013  13.217
88317SOL    HW166848   4.795   3.051  13.269
88317SOL    HW266849   4.838   3.024  13.126
88318SOL     OW66850   6.870  12.028   4.801
88318SOL    HW166851   6.829  12.063   4.722
88318SOL    HW266852   6.939  12.090   4.822
88319SOL     OW66853   9.477  12.069   8.517
88319SOL    HW166854   9.562  12.025   8.529
88319SOL    HW266855   9.488  12.120   8.437
88320SOL     OW66856   7.154   5.794   5.352
88320SOL    HW166857   7.235   5.759   5.315
88320SOL    HW266858   7.184   5.851   5.423
88321SOL     OW66859   3.234   2.383   2.003
88321SOL    HW166860   3.236   2.367   1.909
88321SOL    HW266861   3.227   2.297   2.042
88322SOL     OW66862  10.847  14.451   3.710
88322SOL    HW166863  10.897  14.417   3.636
88322SOL    HW266864  10.836  14.544   3.691
88323SOL     OW66865  13.037   9.132  14.797
88323SOL    HW166866  13.103   9.142  14.865
88323SOL    HW266867  13.008   9.042  14.805
88324SOL     OW66868   0.055  10.452  10.538
88324SOL    HW166869   0.126  10.420  10.483
88324SOL    HW266870   0.086  10.438  10.628
88325SOL     OW66871  12.820   2.031  11.151
88325SOL    HW166872  12.851   2.109  11.196
88325SOL    HW266873  12.852   1.958  11.204
88326SOL     OW66874   3.520   9.357   8.432
88326SOL    HW166875   3.493   9.290   8.495
88326SOL    HW266876   3.492   9.440   8.472
88327SOL     OW66877   0.643   0.897  14.102
88327SOL    HW166878   0.560   0.879  14.058
88327SOL    HW266879   0.700   0.823  14.078
88328SOL     OW66880   4.449   5.241  11.587
88328SOL    HW166881   4.480   5.318  11.635
88328SOL    HW266882   4.416   5.277  11.505
88329SOL     OW66883  13.517   5.402  10.948
88329SOL    HW166884  13.461   5.477  10.930
88329SOL    HW266885  13.474   5.329  10.904
88330SOL     OW66886   2.965  11.485  12.600
88330SOL    HW166887   2.975  11.452  12.511
88330SOL    HW266888   2.897  11.551  12.594
88331SOL     OW66889   3.875   2.856  13.425
88331SOL    HW166890   3.909   2.835  13.512
88331SOL    HW266891   3.953   2.873  13.372
88332SOL     OW66892   9.181   9.418   1.414
88332SOL    HW166893   9.238   9.436   1.489
88332SOL    HW266894   9.133   9.500   1.401
88333SOL     OW66895  13.132   2.451   0.363
88333SOL    HW166896  13.118   2.416   0.451
88333SOL    HW266897  13.212   2.409   0.333
88334SOL     OW66898   4.111   4.342  11.510
88334SOL    HW166899   4.048   4.273  11.530
88334SOL    HW266900   4.195   4.297  11.506
88335SOL     OW66901   5.780   6.406  12.702
88335SOL    HW166902   5.856   6.402  12.760
88335SOL    HW266903   5.721   6.468  12.744
88336SOL     OW66904   2.043   8.721   8.858
88336SOL    HW166905   2.123   8.728   8.910
88336SOL    HW266906   2.073   8.726   8.767
88337SOL     OW66907   0.476  12.381   7.731
88337SOL    HW166908   0.391  12.344   7.756
88337SOL    HW266909   0.513  12.415   7.813
88338SOL     OW66910  11.881   7.358   0.292
88338SOL    HW166911  11.838   7.416   0.355
88338SOL    HW266912  11.861   7.270   0.322
88339SOL     OW66913  11.215  13.220   0.901
88339SOL    HW166914  11.198  13.284   0.970
88339SOL    HW266915  11.296  13.249   0.860
88340SOL     OW66916   6.566   2.475   0.791
88340SOL    HW166917   6.504   2.413   0.752
88340SOL    HW266918   6.552   2.465   0.886
88341SOL     OW66919   7.720  10.341   4.619
88341SOL    HW166920   7.744  10.380   4.703
88341SOL    HW266921   7.798  10.351   4.565
88342SOL     OW66922   4.040  11.500   2.423
88342SOL    HW166923   3.962  11.490   2.478
88342SOL    HW266924   4.007  11.535   2.340
88343SOL     OW66925  10.514   8.612   9.123
88343SOL    HW166926  10.546   8.702   9.127
88343SOL    HW266927  10.550   8.570   9.202
88344SOL     OW66928   3.161   5.565  11.030
88344SOL    HW166929   3.151   5.531  11.119
88344SOL    HW266930   3.256   5.571  11.018
88345SOL     OW66931  10.642  12.572  11.044
88345SOL    HW166932  10.666  12.575  11.136
88345SOL    HW266933  10.678  12.489  11.012
88346SOL     OW66934  10.279   1.680   3.894
88346SOL    HW166935  10.292   1.670   3.800
88346SOL    HW266936  10.354   1.637   3.934
88347SOL     OW66937   9.936   7.848   8.461
88347SOL    HW166938   9.851   7.876   8.495
88347SOL    HW266939  10.000   7.897   8.513
88348SOL     OW66940   7.940   6.507   5.713
88348SOL    HW166941   7.850   6.537   5.726
88348SOL    HW266942   7.985   6.531   5.794
88349SOL     OW66943   7.911   0.579   5.426
88349SOL    HW166944   7.934   0.622   5.343
88349SOL    HW266945   7.988   0.527   5.449
88350SOL     OW66946   8.224  10.914   5.522
88350SOL    HW166947   8.199  10.860   5.447
88350SOL    HW266948   8.143  10.924   5.572
88351SOL     OW66949   3.381   9.862   7.153
88351SOL    HW166950   3.384   9.769   7.129
88351SOL    HW266951   3.440   9.870   7.228
88352SOL     OW66952   6.175  12.604   2.614
88352SOL    HW166953   6.200  12.536   2.552
88352SOL    HW266954   6.111  12.658   2.566
88353SOL     OW66955   3.031   8.486   1.262
88353SOL    HW166956   3.089   8.410   1.258
88353SOL    HW266957   3.026   8.508   1.354
88354SOL     OW66958  10.706  11.198   2.107
88354SOL    HW166959  10.627  11.248   2.082
88354SOL    HW266960  10.739  11.243   2.185
88355SOL     OW66961   7.184   5.995  11.483
88355SOL    HW166962   7.164   6.016  11.392
88355SOL    HW266963   7.250   6.060  11.509
88356SOL     OW66964   3.514   9.540   5.700
88356SOL    HW166965   3.606   9.514   5.711
88356SOL    HW266966   3.468   9.499   5.773
88357SOL     OW66967   9.754  13.754   4.962
88357SOL    HW166968   9.828  13.700   4.988
88357SOL    HW266969   9.690  13.741   5.032
88358SOL     OW66970  13.476   2.050   4.056
88358SOL    HW166971  13.460   2.075   3.965
88358SOL    HW266972  13.442   2.124   4.107
88359SOL     OW66973   8.423   1.946  11.115
88359SOL    HW166974   8.390   1.900  11.192
88359SOL    HW266975   8.506   1.984  11.143
88360SOL     OW66976   1.386   1.526  10.395
88360SOL    HW166977   1.419   1.616  10.400
88360SOL    HW266978   1.398   1.491  10.483
88361SOL     OW66979   0.472  14.751  14.460
88361SOL    HW166980   0.542  14.707  14.411
88361SOL    HW266981   0.394  14.736  14.406
88362SOL     OW66982   5.221  14.157  13.303
88362SOL    HW166983   5.221  14.144  13.398
88362SOL    HW266984   5.280  14.089  13.270
88363SOL     OW66985   9.128   6.622   2.811
88363SOL    HW166986   9.176   6.690   2.764
88363SOL    HW266987   9.090   6.667   2.887
88364SOL     OW66988   5.420   8.338   2.158
88364SOL    HW166989   5.373   8.364   2.237
88364SOL    HW266990   5.453   8.420   2.121
88365SOL     OW66991   0.400  13.727   4.148
88365SOL    HW166992   0.393  13.652   4.089
88365SOL    HW266993   0.373  13.802   4.096
88366SOL     OW66994   1.025   3.111  14.778
88366SOL    HW166995   1.073   3.064  14.845
88366SOL    HW266996   1.089   3.171  14.740
88367SOL     OW66997   2.217   2.997  11.437
88367SOL    HW166998   2.226   2.912  11.482
88367SOL    HW266999   2.270   3.057  11.489
88368SOL     OW67000   9.486   1.708   2.878
88368SOL    HW167001   9.402   1.754   2.874
88368SOL    HW267002   9.545   1.770   2.923
88369SOL     OW67003  13.022   0.134  10.823
88369SOL    HW167004  13.060   0.222  10.815
88369SOL    HW267005  13.094   0.075  10.799
88370SOL     OW67006   9.615   8.067  11.322
88370SOL    HW167007   9.670   8.140  11.293
88370SOL    HW267008   9.670   7.990  11.309
88371SOL     OW67009   4.668   5.919  11.330
88371SOL    HW167010   4.723   5.963  11.265
88371SOL    HW267011   4.653   5.986  11.397
88372SOL     OW67012   9.681   7.998  12.970
88372SOL    HW167013   9.733   8.073  12.943
88372SOL    HW267014   9.614   8.035  13.028
88373SOL     OW67015   0.216   6.673  11.128
88373SOL    HW167016   0.158   6.745  11.152
88373SOL    HW267017   0.197   6.657  11.035
88374SOL     OW67018   2.778   2.390   1.491
88374SOL    HW167019   2.699   2.434   1.459
88374SOL    HW267020   2.777   2.404   1.586
88375SOL     OW67021   8.511   1.026  14.261
88375SOL    HW167022   8.548   1.038  14.348
88375SOL    HW267023   8.419   1.005  14.277
88376SOL     OW67024   7.975   5.413  13.430
88376SOL    HW167025   7.989   5.366  13.513
88376SOL    HW267026   8.062   5.448  13.408
88377SOL     OW67027  11.995   0.383   2.212
88377SOL    HW167028  11.922   0.433   2.175
88377SOL    HW267029  12.068   0.398   2.152
88378SOL     OW67030   1.232   2.236   3.283
88378SOL    HW167031   1.282   2.163   3.321
88378SOL    HW267032   1.144   2.226   3.320
88379SOL     OW67033  11.201  12.356   7.267
88379SOL    HW167034  11.279  12.371   7.214
88379SOL    HW267035  11.133  12.331   7.204
88380SOL     OW67036   0.790   9.291   5.338
88380SOL    HW167037   0.755   9.360   5.394
88380SOL    HW267038   0.734   9.216   5.355
88381SOL     OW67039   8.978  11.438   8.137
88381SOL    HW167040   9.027  11.466   8.060
88381SOL    HW267041   8.980  11.513   8.196
88382SOL     OW67042   3.015   0.850   7.907
88382SOL    HW167043   2.973   0.933   7.883
88382SOL    HW267044   3.030   0.858   8.001
88383SOL     OW67045  11.763   8.980   2.778
88383SOL    HW167046  11.786   8.979   2.871
88383SOL    HW267047  11.835   9.027   2.736
88384SOL     OW67048  11.193   9.574  14.848
88384SOL    HW167049  11.287   9.556  14.847
88384SOL    HW267050  11.172   9.595  14.756
88385SOL     OW67051   9.947   7.048   3.803
88385SOL    HW167052   9.856   7.035   3.775
88385SOL    HW267053   9.950   7.139   3.832
88386SOL     OW67054   7.632  11.264   3.746
88386SOL    HW167055   7.629  11.299   3.835
88386SOL    HW267056   7.542  11.266   3.715
88387SOL     OW67057   9.778  12.904   1.689
88387SOL    HW167058   9.826  12.984   1.711
88387SOL    HW267059   9.687  12.932   1.677
88388SOL     OW67060   2.902   4.753  11.368
88388SOL    HW167061   2.923   4.767  11.275
88388SOL    HW267062   2.914   4.660  11.382
88389SOL     OW67063   1.331   9.655   8.592
88389SOL    HW167064   1.287   9.704   8.662
88389SOL    HW267065   1.260   9.618   8.540
88390SOL     OW67066   5.225   5.058  10.360
88390SOL    HW167067   5.133   5.073  10.382
88390SOL    HW267068   5.229   4.965  10.338
88391SOL     OW67069   6.441   7.443  10.573
88391SOL    HW167070   6.346   7.443  10.581
88391SOL    HW267071   6.467   7.533  10.591
88392SOL     OW67072  11.747   4.882   8.232
88392SOL    HW167073  11.738   4.861   8.139
88392SOL    HW267074  11.669   4.935   8.251
88393SOL     OW67075   7.891  10.801   4.438
88393SOL    HW167076   7.962  10.843   4.487
88393SOL    HW267077   7.815  10.856   4.454
88394SOL     OW67078   9.117  10.877   2.498
88394SOL    HW167079   9.107  10.835   2.413
88394SOL    HW267080   9.207  10.857   2.524
88395SOL     OW67081   9.484   6.614   0.910
88395SOL    HW167082   9.550   6.591   0.975
88395SOL    HW267083   9.529   6.675   0.852
88396SOL     OW67084  13.469   2.479   2.556
88396SOL    HW167085  13.386   2.484   2.509
88396SOL    HW267086  13.527   2.538   2.508
88397SOL     OW67087   8.049   0.148  11.765
88397SOL    HW167088   8.002   0.071  11.797
88397SOL    HW267089   7.982   0.200  11.720
88398SOL     OW67090   4.655   7.343  11.923
88398SOL    HW167091   4.570   7.384  11.940
88398SOL    HW267092   4.658   7.269  11.983
88399SOL     OW67093   9.434   9.350  14.136
88399SOL    HW167094   9.379   9.344  14.214
88399SOL    HW267095   9.461   9.259  14.119
88400SOL     OW67096   9.070   7.986   4.738
88400SOL    HW167097   8.999   7.930   4.769
88400SOL    HW267098   9.029   8.044   4.673
88401SOL     OW67099  14.810  13.135  13.645
88401SOL    HW167100  14.847  13.059  13.601
88401SOL    HW267101  14.877  13.203  13.637
88402SOL     OW67102   0.039   6.608   8.024
88402SOL    HW167103   0.019   6.514   8.029
88402SOL    HW267104   0.118   6.618   8.078
88403SOL     OW67105   7.748   3.985  13.500
88403SOL    HW167106   7.839   4.014  13.494
88403SOL    HW267107   7.698   4.057  13.461
88404SOL     OW67108   2.988  13.170   3.298
88404SOL    HW167109   2.979  13.122   3.381
88404SOL    HW267110   3.079  13.157   3.272
88405SOL     OW67111   5.041   5.266  11.949
88405SOL    HW167112   5.059   5.359  11.933
88405SOL    HW267113   5.058   5.254  12.042
88406SOL     OW67114  10.250   5.466   0.580
88406SOL    HW167115  10.226   5.428   0.664
88406SOL    HW267116  10.315   5.406   0.544
88407SOL     OW67117  11.686   6.703   3.353
88407SOL    HW167118  11.713   6.623   3.308
88407SOL    HW267119  11.601   6.725   3.313
88408SOL     OW67120  13.711   1.727  12.984
88408SOL    HW167121  13.739   1.795  13.045
88408SOL    HW267122  13.756   1.648  13.014
88409SOL     OW67123   3.036   8.004   0.745
88409SOL    HW167124   3.088   7.934   0.704
88409SOL    HW267125   3.074   8.015   0.832
88410SOL     OW67126   4.202  14.613   4.773
88410SOL    HW167127   4.116  14.573   4.780
88410SOL    HW267128   4.185  14.704   4.749
88411SOL     OW67129   3.860   0.461  12.847
88411SOL    HW167130   3.808   0.535  12.818
88411SOL    HW267131   3.910   0.494  12.922
88412SOL     OW67132  10.965  12.343   9.892
88412SOL    HW167133  10.876  12.376   9.893
88412SOL    HW267134  10.991  12.346   9.800
88413SOL     OW67135   5.896   1.379   8.556
88413SOL    HW167136   5.953   1.302   8.554
88413SOL    HW267137   5.880   1.394   8.649
88414SOL     OW67138   7.096   5.766  11.567
88414SOL    HW167139   7.103   5.758  11.662
88414SOL    HW267140   7.122   5.856  11.547
88415SOL     OW67141   6.667  12.857   5.942
88415SOL    HW167142   6.573  12.863   5.924
88415SOL    HW267143   6.675  12.883   6.034
88416SOL     OW67144   7.988   9.936   6.451
88416SOL    HW167145   8.054  10.006   6.456
88416SOL    HW267146   7.921   9.962   6.514
88417SOL     OW67147  11.958   7.164   7.929
88417SOL    HW167148  12.006   7.189   8.008
88417SOL    HW267149  12.012   7.197   7.857
88418SOL     OW67150   2.250   3.136   8.845
88418SOL    HW167151   2.345   3.125   8.847
88418SOL    HW267152   2.215   3.047   8.840
88419SOL     OW67153   1.732   7.213   4.910
88419SOL    HW167154   1.796   7.237   4.843
88419SOL    HW267155   1.753   7.269   4.985
88420SOL     OW67156   2.323   4.272   8.612
88420SOL    HW167157   2.348   4.238   8.697
88420SOL    HW267158   2.257   4.339   8.631
88421SOL     OW67159   9.619  14.851   5.815
88421SOL    HW167160   9.529  14.871   5.842
88421SOL    HW267161   9.668   0.053   5.837
88422SOL     OW67162  14.218   5.866  12.737
88422SOL    HW167163  14.166   5.787  12.719
88422SOL    HW267164  14.279   5.840  12.805
88423SOL     OW67165   8.384   8.214  12.811
88423SOL    HW167166   8.468   8.248  12.780
88423SOL    HW267167   8.323   8.287  12.798
88424SOL     OW67168  11.632   0.491   9.885
88424SOL    HW167169  11.638   0.491   9.981
88424SOL    HW267170  11.549   0.534   9.866
88425SOL     OW67171   3.892  13.532  14.629
88425SOL    HW167172   3.899  13.494  14.717
88425SOL    HW267173   3.939  13.471  14.573
88426SOL     OW67174   8.890   5.877   1.534
88426SOL    HW167175   8.977   5.841   1.518
88426SOL    HW267176   8.872   5.931   1.457
88427SOL     OW67177   5.079   7.080   3.918
88427SOL    HW167178   5.096   7.039   3.833
88427SOL    HW267179   5.081   7.174   3.900
88428SOL     OW67180   6.832   5.669   2.334
88428SOL    HW167181   6.796   5.752   2.364
88428SOL    HW267182   6.907   5.693   2.279
88429SOL     OW67183   4.389  13.645  14.808
88429SOL    HW167184   4.333  13.717  14.778
88429SOL    HW267185   4.354  13.621   0.016
88430SOL     OW67186   4.406   2.303   3.347
88430SOL    HW167187   4.353   2.349   3.282
88430SOL    HW267188   4.359   2.221   3.363
88431SOL     OW67189   4.794   1.661  10.367
88431SOL    HW167190   4.758   1.591  10.420
88431SOL    HW267191   4.815   1.619  10.283
88432SOL     OW67192   1.612   1.605   0.074
88432SOL    HW167193   1.650   1.645  14.873
88432SOL    HW267194   1.687   1.581   0.128
88433SOL     OW67195   3.139   2.032  12.785
88433SOL    HW167196   3.168   1.996  12.701
88433SOL    HW267197   3.107   2.120  12.763
88434SOL     OW67198  12.405  12.089   7.522
88434SOL    HW167199  12.378  12.044   7.601
88434SOL    HW267200  12.340  12.158   7.509
88435SOL     OW67201  11.493   9.435   0.836
88435SOL    HW167202  11.487   9.438   0.932
88435SOL    HW267203  11.404   9.453   0.807
88436SOL     OW67204   7.842   5.459   2.827
88436SOL    HW167205   7.860   5.524   2.759
88436SOL    HW267206   7.895   5.384   2.804
88437SOL     OW67207   7.441  11.105   2.765
88437SOL    HW167208   7.426  11.064   2.850
88437SOL    HW267209   7.477  11.035   2.710
88438SOL     OW67210   3.181   7.760   4.927
88438SOL    HW167211   3.238   7.770   4.851
88438SOL    HW267212   3.159   7.850   4.952
88439SOL     OW67213  14.196   0.383   4.786
88439SOL    HW167214  14.209   0.313   4.722
88439SOL    HW267215  14.223   0.345   4.870
88440SOL     OW67216   6.296   9.359   7.045
88440SOL    HW167217   6.257   9.327   7.127
88440SOL    HW267218   6.238   9.326   6.977
88441SOL     OW67219   4.175   1.733   2.661
88441SOL    HW167220   4.249   1.743   2.721
88441SOL    HW267221   4.155   1.640   2.664
88442SOL     OW67222   3.759   6.672  14.176
88442SOL    HW167223   3.834   6.723  14.207
88442SOL    HW267224   3.787   6.581  14.182
88443SOL     OW67225   5.064   3.768   2.390
88443SOL    HW167226   5.053   3.815   2.472
88443SOL    HW267227   5.131   3.701   2.409
88444SOL     OW67228   3.212   9.128   8.937
88444SOL    HW167229   3.300   9.133   8.974
88444SOL    HW267230   3.164   9.197   8.982
88445SOL     OW67231   9.601  13.719  14.150
88445SOL    HW167232   9.596  13.624  14.149
88445SOL    HW267233   9.577  13.745  14.061
88446SOL     OW67234   2.522   1.728   8.988
88446SOL    HW167235   2.515   1.633   8.978
88446SOL    HW267236   2.433   1.757   9.009
88447SOL     OW67237   1.722   7.471   1.532
88447SOL    HW167238   1.685   7.551   1.569
88447SOL    HW267239   1.768   7.429   1.605
88448SOL     OW67240   9.750   7.334   3.919
88448SOL    HW167241   9.728   7.408   3.862
88448SOL    HW267242   9.846   7.330   3.917
88449SOL     OW67243   7.326  12.112   3.361
88449SOL    HW167244   7.372  12.028   3.359
88449SOL    HW267245   7.344  12.146   3.449
88450SOL     OW67246  11.515   7.970  11.534
88450SOL    HW167247  11.582   7.910  11.500
88450SOL    HW267248  11.563   8.032  11.588
88451SOL     OW67249  10.592   9.875   2.257
88451SOL    HW167250  10.662   9.896   2.195
88451SOL    HW267251  10.633   9.881   2.343
88452SOL     OW67252  10.391   0.806  11.723
88452SOL    HW167253  10.306   0.820  11.681
88452SOL    HW267254  10.454   0.805  11.651
88453SOL     OW67255  14.335  11.287   2.414
88453SOL    HW167256  14.293  11.216   2.463
88453SOL    HW267257  14.391  11.243   2.350
88454SOL     OW67258  13.475   8.369  10.851
88454SOL    HW167259  13.515   8.456  10.840
88454SOL    HW267260  13.451   8.366  10.944
88455SOL     OW67261   9.938  12.293  11.270
88455SOL    HW167262   9.921  12.201  11.291
88455SOL    HW267263   9.957  12.292  11.176
88456SOL     OW67264   2.388   6.000   3.850
88456SOL    HW167265   2.460   6.024   3.792
88456SOL    HW267266   2.407   6.045   3.932
88457SOL     OW67267  12.703   5.869  14.746
88457SOL    HW167268  12.729   5.799  14.806
88457SOL    HW267269  12.608   5.872  14.752
88458SOL     OW67270  11.788   9.491   1.083
88458SOL    HW167271  11.730   9.520   1.154
88458SOL    HW267272  11.854   9.438   1.126
88459SOL     OW67273   9.476  13.450   6.700
88459SOL    HW167274   9.536  13.406   6.759
88459SOL    HW267275   9.437  13.520   6.754
88460SOL     OW67276  14.062   0.988   4.116
88460SOL    HW167277  14.031   0.903   4.147
88460SOL    HW267278  14.029   1.051   4.181
88461SOL     OW67279   7.310  10.249  10.294
88461SOL    HW167280   7.274  10.208  10.373
88461SOL    HW267281   7.311  10.178  10.230
88462SOL     OW67282   1.563  13.811  13.854
88462SOL    HW167283   1.552  13.717  13.839
88462SOL    HW267284   1.474  13.846  13.844
88463SOL     OW67285   2.747  14.062   2.369
88463SOL    HW167286   2.687  14.118   2.420
88463SOL    HW267287   2.723  14.078   2.278
88464SOL     OW67288   2.824   9.337   0.542
88464SOL    HW167289   2.778   9.260   0.511
88464SOL    HW267290   2.828   9.326   0.637
88465SOL     OW67291   3.261   1.242   3.063
88465SOL    HW167292   3.254   1.163   3.116
88465SOL    HW267293   3.181   1.292   3.084
88466SOL     OW67294   5.802  14.613  14.250
88466SOL    HW167295   5.809  14.657  14.166
88466SOL    HW267296   5.736  14.545  14.237
88467SOL     OW67297   9.080   4.618   7.448
88467SOL    HW167298   9.048   4.681   7.383
88467SOL    HW267299   9.129   4.670   7.511
88468SOL     OW67300   1.837   6.519  13.313
88468SOL    HW167301   1.778   6.514  13.388
88468SOL    HW267302   1.810   6.447  13.257
88469SOL     OW67303   9.172   0.911  11.671
88469SOL    HW167304   9.148   0.876  11.586
88469SOL    HW267305   9.127   0.995  11.676
88470SOL     OW67306   1.466  11.929   7.725
88470SOL    HW167307   1.481  11.877   7.646
88470SOL    HW267308   1.531  12.000   7.720
88471SOL     OW67309  11.604   4.232   5.667
88471SOL    HW167310  11.573   4.272   5.749
88471SOL    HW267311  11.581   4.139   5.677
88472SOL     OW67312   7.320   2.643   5.604
88472SOL    HW167313   7.224   2.640   5.596
88472SOL    HW267314   7.352   2.603   5.523
88473SOL     OW67315   8.810   2.971  12.605
88473SOL    HW167316   8.812   2.878  12.580
88473SOL    HW267317   8.862   3.015  12.538
88474SOL     OW67318   4.700   7.922   8.710
88474SOL    HW167319   4.720   8.013   8.691
88474SOL    HW267320   4.697   7.918   8.806
88475SOL     OW67321   6.730   7.226   6.720
88475SOL    HW167322   6.637   7.243   6.708
88475SOL    HW267323   6.744   7.230   6.814
88476SOL     OW67324   8.725  13.384   7.545
88476SOL    HW167325   8.728  13.423   7.458
88476SOL    HW267326   8.796  13.321   7.546
88477SOL     OW67327  11.236   1.977   6.715
88477SOL    HW167328  11.229   2.072   6.706
88477SOL    HW267329  11.260   1.946   6.627
88478SOL     OW67330   0.095   8.579  10.914
88478SOL    HW167331   0.009   8.598  10.877
88478SOL    HW267332   0.150   8.653  10.887
88479SOL     OW67333  11.109   4.625   7.148
88479SOL    HW167334  11.170   4.674   7.204
88479SOL    HW267335  11.158   4.548   7.120
88480SOL     OW67336   8.871   1.456  13.608
88480SOL    HW167337   8.959   1.438  13.577
88480SOL    HW267338   8.880   1.535  13.662
88481SOL     OW67339  13.092  12.891   6.805
88481SOL    HW167340  13.058  12.810   6.769
88481SOL    HW267341  13.054  12.898   6.893
88482SOL     OW67342   4.406   8.479   2.309
88482SOL    HW167343   4.417   8.465   2.215
88482SOL    HW267344   4.348   8.409   2.337
88483SOL     OW67345   4.909   6.591  12.114
88483SOL    HW167346   4.971   6.598  12.041
88483SOL    HW267347   4.823   6.601  12.074
88484SOL     OW67348   3.144  12.514   2.293
88484SOL    HW167349   3.224  12.462   2.285
88484SOL    HW267350   3.087  12.462   2.351
88485SOL     OW67351  12.313   7.710   8.442
88485SOL    HW167352  12.355   7.657   8.510
88485SOL    HW267353  12.223   7.678   8.439
88486SOL     OW67354   9.069  13.815  13.775
88486SOL    HW167355   9.023  13.807  13.859
88486SOL    HW267356   9.010  13.774  13.711
88487SOL     OW67357  12.826   9.284  13.108
88487SOL    HW167358  12.875   9.220  13.056
88487SOL    HW267359  12.813   9.358  13.049
88488SOL     OW67360  12.923  13.465   9.074
88488SOL    HW167361  12.949  13.557   9.076
88488SOL    HW267362  12.914  13.441   9.166
88489SOL     OW67363   7.450  13.793   4.647
88489SOL    HW167364   7.523  13.731   4.653
88489SOL    HW267365   7.405  13.785   4.731
88490SOL     OW67366   0.956   2.254   9.450
88490SOL    HW167367   0.874   2.204   9.455
88490SOL    HW267368   1.012   2.214   9.517
88491SOL     OW67369  14.219   1.564  12.871
88491SOL    HW167370  14.140   1.617  12.877
88491SOL    HW267371  14.289   1.627  12.857
88492SOL     OW67372  13.630   8.096  14.609
88492SOL    HW167373  13.627   8.085  14.513
88492SOL    HW267374  13.539   8.109  14.634
88493SOL     OW67375   6.111   0.856   4.234
88493SOL    HW167376   6.204   0.880   4.236
88493SOL    HW267377   6.088   0.843   4.326
88494SOL     OW67378   0.107  14.301   0.064
88494SOL    HW167379   0.197  14.323   0.088
88494SOL    HW267380   0.081  14.371   0.004
88495SOL     OW67381  12.426   2.757   5.633
88495SOL    HW167382  12.378   2.678   5.609
88495SOL    HW267383  12.477   2.732   5.709
88496SOL     OW67384  10.854  11.396   6.460
88496SOL    HW167385  10.863  11.406   6.554
88496SOL    HW267386  10.833  11.484   6.428
88497SOL     OW67387  13.686   6.003   4.874
88497SOL    HW167388  13.615   5.940   4.880
88497SOL    HW267389  13.680   6.055   4.954
88498SOL     OW67390  12.086   7.776  10.212
88498SOL    HW167391  12.101   7.816  10.126
88498SOL    HW267392  12.077   7.683  10.194
88499SOL     OW67393  12.713   4.567  11.276
88499SOL    HW167394  12.724   4.660  11.293
88499SOL    HW267395  12.620   4.550  11.290
88500SOL     OW67396   4.023  12.818   8.335
88500SOL    HW167397   3.969  12.806   8.414
88500SOL    HW267398   4.024  12.731   8.294
88501SOL     OW67399   0.070   7.970   5.845
88501SOL    HW167400   0.033   8.027   5.777
88501SOL    HW267401   0.041   8.010   5.927
88502SOL     OW67402   9.341   2.306   3.555
88502SOL    HW167403   9.302   2.300   3.643
88502SOL    HW267404   9.423   2.257   3.563
88503SOL     OW67405   7.010   4.149   7.347
88503SOL    HW167406   7.036   4.142   7.438
88503SOL    HW267407   7.067   4.217   7.311
88504SOL     OW67408  12.511   8.885   5.441
88504SOL    HW167409  12.466   8.937   5.507
88504SOL    HW267410  12.576   8.945   5.404
88505SOL     OW67411   4.756  14.694   8.723
88505SOL    HW167412   4.678  14.638   8.726
88505SOL    HW267413   4.803  14.665   8.644
88506SOL     OW67414   3.960   3.946   9.875
88506SOL    HW167415   3.946   3.997   9.955
88506SOL    HW267416   3.880   3.894   9.866
88507SOL     OW67417   1.563  11.765   9.967
88507SOL    HW167418   1.549  11.712   9.888
88507SOL    HW267419   1.640  11.818   9.947
88508SOL     OW67420   1.008   0.015   3.244
88508SOL    HW167421   1.097  14.864   3.263
88508SOL    HW267422   1.009   0.032   3.150
88509SOL     OW67423   7.733   2.249   1.761
88509SOL    HW167424   7.687   2.168   1.783
88509SOL    HW267425   7.669   2.318   1.777
88510SOL     OW67426  10.219   1.903   2.212
88510SOL    HW167427  10.278   1.971   2.244
88510SOL    HW267428  10.276   1.827   2.197
88511SOL     OW67429  11.168   4.923   3.681
88511SOL    HW167430  11.159   4.954   3.771
88511SOL    HW267431  11.259   4.942   3.658
88512SOL     OW67432   6.660   6.819  11.099
88512SOL    HW167433   6.642   6.787  11.011
88512SOL    HW267434   6.695   6.743  11.145
88513SOL     OW67435   7.703  13.725   5.930
88513SOL    HW167436   7.734  13.649   5.980
88513SOL    HW267437   7.609  13.712   5.922
88514SOL     OW67438   3.947   3.205   5.199
88514SOL    HW167439   4.027   3.235   5.156
88514SOL    HW267440   3.974   3.182   5.288
88515SOL     OW67441  13.967  10.724   5.152
88515SOL    HW167442  14.042  10.784   5.144
88515SOL    HW267443  13.931  10.719   5.063
88516SOL     OW67444   8.429   0.549  11.743
88516SOL    HW167445   8.517   0.575  11.717
88516SOL    HW267446   8.441   0.463  11.784
88517SOL     OW67447   3.041  12.124   3.302
88517SOL    HW167448   2.978  12.077   3.357
88517SOL    HW267449   3.006  12.213   3.297
88518SOL     OW67450   7.467   1.762   2.454
88518SOL    HW167451   7.526   1.687   2.443
88518SOL    HW267452   7.456   1.796   2.365
88519SOL     OW67453  14.772  10.172  11.286
88519SOL    HW167454  14.856  10.130  11.307
88519SOL    HW267455  14.706  10.114  11.326
88520SOL     OW67456   4.551   3.270   6.632
88520SOL    HW167457   4.465   3.271   6.675
88520SOL    HW267458   4.613   3.294   6.701
88521SOL     OW67459   7.269  11.214   0.938
88521SOL    HW167460   7.226  11.214   1.023
88521SOL    HW267461   7.343  11.154   0.948
88522SOL     OW67462   9.804  12.835   4.425
88522SOL    HW167463   9.873  12.785   4.469
88522SOL    HW267464   9.723  12.790   4.448
88523SOL     OW67465   7.288   8.244   9.843
88523SOL    HW167466   7.315   8.238   9.751
88523SOL    HW267467   7.368   8.262   9.891
88524SOL     OW67468  11.491  14.195   6.285
88524SOL    HW167469  11.509  14.236   6.200
88524SOL    HW267470  11.574  14.198   6.332
88525SOL     OW67471  12.922  13.808  12.544
88525SOL    HW167472  12.991  13.755  12.584
88525SOL    HW267473  12.962  13.844  12.465
88526SOL     OW67474  12.785   1.992  10.014
88526SOL    HW167475  12.744   1.942   9.944
88526SOL    HW267476  12.879   1.987   9.995
88527SOL     OW67477   3.137   2.662   3.118
88527SOL    HW167478   3.093   2.727   3.062
88527SOL    HW267479   3.117   2.689   3.207
88528SOL     OW67480  10.754   0.903   0.490
88528SOL    HW167481  10.769   0.986   0.445
88528SOL    HW267482  10.738   0.927   0.581
88529SOL     OW67483   4.324   6.071   6.192
88529SOL    HW167484   4.399   6.097   6.245
88529SOL    HW267485   4.356   5.997   6.139
88530SOL     OW67486   7.307   7.411   0.032
88530SOL    HW167487   7.361   7.336   0.004
88530SOL    HW267488   7.221   7.373   0.048
88531SOL     OW67489   8.633   9.250   6.000
88531SOL    HW167490   8.559   9.245   6.060
88531SOL    HW267491   8.643   9.343   5.982
88532SOL     OW67492  11.924  10.470   7.641
88532SOL    HW167493  11.933  10.454   7.547
88532SOL    HW267494  11.997  10.527   7.663
88533SOL     OW67495  13.969   4.626   5.730
88533SOL    HW167496  13.969   4.598   5.821
88533SOL    HW267497  13.880   4.606   5.699
88534SOL     OW67498   6.175   0.069  10.518
88534SOL    HW167499   6.119   0.049  10.592
88534SOL    HW267500   6.169  14.870  10.461
88535SOL     OW67501   5.808   6.519   1.256
88535SOL    HW167502   5.808   6.454   1.325
88535SOL    HW267503   5.716   6.532   1.235
88536SOL     OW67504  11.252  13.961  10.660
88536SOL    HW167505  11.281  13.951  10.751
88536SOL    HW267506  11.183  14.027  10.664
88537SOL     OW67507   4.930   9.594   3.633
88537SOL    HW167508   4.914   9.664   3.570
88537SOL    HW267509   4.843   9.567   3.662
88538SOL     OW67510   8.128  14.373   3.888
88538SOL    HW167511   8.172  14.384   3.804
88538SOL    HW267512   8.070  14.449   3.895
88539SOL     OW67513  10.566  13.051   5.209
88539SOL    HW167514  10.530  12.981   5.155
88539SOL    HW267515  10.528  13.131   5.173
88540SOL     OW67516  13.850   3.016   9.527
88540SOL    HW167517  13.843   3.100   9.482
88540SOL    HW267518  13.761   2.981   9.528
88541SOL     OW67519  13.648   1.681  13.406
88541SOL    HW167520  13.741   1.667  13.391
88541SOL    HW267521  13.643   1.725  13.491
88542SOL     OW67522   3.554   3.904   4.752
88542SOL    HW167523   3.622   3.853   4.795
88542SOL    HW267524   3.594   3.932   4.669
88543SOL     OW67525   5.303   9.639  14.224
88543SOL    HW167526   5.223   9.590  14.212
88543SOL    HW267527   5.348   9.633  14.139
88544SOL     OW67528   0.064   2.004  10.982
88544SOL    HW167529   0.152   2.041  10.970
88544SOL    HW267530   0.053   1.999  11.077
88545SOL     OW67531   1.247   1.526  12.916
88545SOL    HW167532   1.204   1.469  12.980
88545SOL    HW267533   1.340   1.522  12.940
88546SOL     OW67534   8.607   0.762  12.083
88546SOL    HW167535   8.523   0.730  12.048
88546SOL    HW267536   8.603   0.743  12.176
88547SOL     OW67537   4.451   1.895  14.646
88547SOL    HW167538   4.360   1.873  14.630
88547SOL    HW267539   4.482   1.936  14.565
88548SOL     OW67540   9.429   4.333  10.133
88548SOL    HW167541   9.361   4.399  10.140
88548SOL    HW267542   9.384   4.256  10.098
88549SOL     OW67543   2.461  12.017  14.183
88549SOL    HW167544   2.431  11.944  14.130
88549SOL    HW267545   2.383  12.070  14.199
88550SOL     OW67546  11.345   5.447   6.419
88550SOL    HW167547  11.329   5.532   6.380
88550SOL    HW267548  11.411   5.463   6.486
88551SOL     OW67549   9.500  13.532   6.185
88551SOL    HW167550   9.437  13.553   6.116
88551SOL    HW267551   9.452  13.547   6.266
88552SOL     OW67552   0.294   3.002  13.672
88552SOL    HW167553   0.240   2.985  13.594
88552SOL    HW267554   0.303   3.097  13.676
88553SOL     OW67555   1.537  13.805  14.218
88553SOL    HW167556   1.522  13.842  14.131
88553SOL    HW267557   1.613  13.749  14.208
88554SOL     OW67558   1.074   8.957   1.349
88554SOL    HW167559   0.986   8.975   1.313
88554SOL    HW267560   1.063   8.875   1.397
88555SOL     OW67561   0.730   6.311  10.887
88555SOL    HW167562   0.635   6.304  10.883
88555SOL    HW267563   0.757   6.328  10.796
88556SOL     OW67564   3.713  10.250   0.907
88556SOL    HW167565   3.662  10.172   0.883
88556SOL    HW267566   3.803  10.218   0.916
88557SOL     OW67567   4.101  14.264   7.145
88557SOL    HW167568   4.147  14.302   7.071
88557SOL    HW267569   4.105  14.331   7.213
88558SOL     OW67570  12.535   6.861  12.395
88558SOL    HW167571  12.604   6.884  12.332
88558SOL    HW267572  12.464   6.923  12.376
88559SOL     OW67573  11.831   1.515   7.363
88559SOL    HW167574  11.859   1.599   7.326
88559SOL    HW267575  11.834   1.455   7.288
88560SOL     OW67576   6.464  10.760  11.563
88560SOL    HW167577   6.449  10.741  11.655
88560SOL    HW267578   6.430  10.848  11.550
88561SOL     OW67579   9.769   1.571  12.422
88561SOL    HW167580   9.841   1.510  12.403
88561SOL    HW267581   9.740   1.601  12.336
88562SOL     OW67582   1.980   4.305   1.918
88562SOL    HW167583   1.997   4.211   1.916
88562SOL    HW267584   2.061   4.343   1.952
88563SOL     OW67585  12.025   6.332   0.143
88563SOL    HW167586  12.100   6.329   0.202
88563SOL    HW267587  12.063   6.343   0.055
88564SOL     OW67588   5.461   8.996   5.734
88564SOL    HW167589   5.369   8.972   5.739
88564SOL    HW267590   5.461   9.088   5.707
88565SOL     OW67591   6.007   8.972  14.112
88565SOL    HW167592   5.932   8.912  14.102
88565SOL    HW267593   6.067   8.947  14.042
88566SOL     OW67594   3.798   4.714  14.210
88566SOL    HW167595   3.886   4.726  14.174
88566SOL    HW267596   3.766   4.803  14.224
88567SOL     OW67597   7.792   0.610   7.546
88567SOL    HW167598   7.744   0.685   7.582
88567SOL    HW267599   7.769   0.610   7.453
88568SOL     OW67600  10.793   6.689   2.738
88568SOL    HW167601  10.866   6.627   2.732
88568SOL    HW267602  10.815   6.745   2.812
88569SOL     OW67603   9.021   1.087  13.084
88569SOL    HW167604   9.077   1.084  13.161
88569SOL    HW267605   9.005   0.995  13.062
88570SOL     OW67606  13.175  12.306   1.172
88570SOL    HW167607  13.228  12.369   1.122
88570SOL    HW267608  13.100  12.356   1.202
88571SOL     OW67609   2.694   9.353   4.804
88571SOL    HW167610   2.695   9.269   4.850
88571SOL    HW267611   2.692   9.419   4.874
88572SOL     OW67612   5.540  10.429   6.491
88572SOL    HW167613   5.499  10.357   6.443
88572SOL    HW267614   5.488  10.506   6.469
88573SOL     OW67615   4.801   9.018  10.548
88573SOL    HW167616   4.872   8.985  10.603
88573SOL    HW267617   4.838   9.093  10.502
88574SOL     OW67618   6.224   1.248   7.293
88574SOL    HW167619   6.263   1.294   7.368
88574SOL    HW267620   6.263   1.290   7.216
88575SOL     OW67621  12.605   3.231  11.898
88575SOL    HW167622  12.561   3.195  11.975
88575SOL    HW267623  12.698   3.226  11.919
88576SOL     OW67624   7.915   4.105   4.418
88576SOL    HW167625   7.990   4.153   4.382
88576SOL    HW267626   7.861   4.084   4.342
88577SOL     OW67627   8.887   0.711   4.608
88577SOL    HW167628   8.894   0.696   4.702
88577SOL    HW267629   8.826   0.644   4.577
88578SOL     OW67630   4.111   0.548  13.936
88578SOL    HW167631   4.150   0.632  13.912
88578SOL    HW267632   4.060   0.567  14.014
88579SOL     OW67633  11.321   5.833   6.773
88579SOL    HW167634  11.345   5.911   6.823
88579SOL    HW267635  11.309   5.865   6.683
88580SOL     OW67636   4.509   7.709   1.966
88580SOL    HW167637   4.519   7.614   1.960
88580SOL    HW267638   4.486   7.736   1.877
88581SOL     OW67639   8.169   0.325   3.464
88581SOL    HW167640   8.126   0.401   3.503
88581SOL    HW267641   8.255   0.322   3.505
88582SOL     OW67642   2.505  13.463  13.631
88582SOL    HW167643   2.449  13.427  13.562
88582SOL    HW267644   2.471  13.427  13.712
88583SOL     OW67645   6.382   0.668   8.580
88583SOL    HW167646   6.355   0.728   8.510
88583SOL    HW267647   6.449   0.717   8.629
88584SOL     OW67648   8.040   2.590   7.928
88584SOL    HW167649   8.089   2.540   7.862
88584SOL    HW267650   8.098   2.663   7.950
88585SOL     OW67651   6.498   1.934   1.749
88585SOL    HW167652   6.569   1.891   1.701
88585SOL    HW267653   6.504   1.898   1.838
88586SOL     OW67654   3.457   4.178  14.339
88586SOL    HW167655   3.495   4.164  14.252
88586SOL    HW267656   3.501   4.113  14.394
88587SOL     OW67657   9.922   6.809   7.384
88587SOL    HW167658   9.940   6.816   7.478
88587SOL    HW267659   9.942   6.896   7.350
88588SOL     OW67660   6.636  14.292   3.870
88588SOL    HW167661   6.583  14.215   3.848
88588SOL    HW267662   6.645  14.340   3.788
88589SOL     OW67663   4.436   9.620   9.958
88589SOL    HW167664   4.518   9.581   9.928
88589SOL    HW267665   4.383   9.546   9.986
88590SOL     OW67666  12.130  13.117  10.635
88590SOL    HW167667  12.076  13.162  10.699
88590SOL    HW267668  12.208  13.172  10.624
88591SOL     OW67669   1.937   1.665   7.003
88591SOL    HW167670   1.907   1.578   6.975
88591SOL    HW267671   2.030   1.667   6.978
88592SOL     OW67672  14.696   0.332   2.613
88592SOL    HW167673  14.623   0.274   2.634
88592SOL    HW267674  14.768   0.301   2.667
88593SOL     OW67675   3.190   7.617   8.908
88593SOL    HW167676   3.176   7.700   8.863
88593SOL    HW267677   3.144   7.627   8.992
88594SOL     OW67678   1.470   1.378   0.390
88594SOL    HW167679   1.403   1.310   0.402
88594SOL    HW267680   1.550   1.338   0.425
88595SOL     OW67681   9.064   1.689   5.466
88595SOL    HW167682   9.003   1.751   5.504
88595SOL    HW267683   9.065   1.711   5.373
88596SOL     OW67684   6.007   1.142   1.025
88596SOL    HW167685   5.930   1.096   0.993
88596SOL    HW267686   6.079   1.081   1.012
88597SOL     OW67687   5.381   0.370  13.964
88597SOL    HW167688   5.386   0.373  14.059
88597SOL    HW267689   5.426   0.449  13.935
88598SOL     OW67690   3.703   1.301   6.960
88598SOL    HW167691   3.665   1.367   7.017
88598SOL    HW267692   3.739   1.236   7.020
88599SOL     OW67693  14.541   0.959   7.660
88599SOL    HW167694  14.483   1.015   7.608
88599SOL    HW267695  14.510   0.971   7.750
88600SOL     OW67696  13.337  11.079   1.000
88600SOL    HW167697  13.295  11.028   1.070
88600SOL    HW267698  13.328  11.170   1.028
88601SOL     OW67699   8.401   3.538   8.958
88601SOL    HW167700   8.362   3.602   8.898
88601SOL    HW267701   8.407   3.457   8.907
88602SOL     OW67702   5.295  14.608   8.519
88602SOL    HW167703   5.336  14.536   8.469
88602SOL    HW267704   5.201  14.593   8.509
88603SOL     OW67705   1.421   2.445  11.268
88603SOL    HW167706   1.500   2.394  11.247
88603SOL    HW267707   1.448   2.536  11.255
88604SOL     OW67708   5.810   4.727  13.185
88604SOL    HW167709   5.857   4.794  13.234
88604SOL    HW267710   5.780   4.665  13.251
88605SOL     OW67711  11.499   0.842  13.801
88605SOL    HW167712  11.460   0.864  13.886
88605SOL    HW267713  11.435   0.872  13.737
88606SOL     OW67714   5.744   2.027  11.594
88606SOL    HW167715   5.780   1.941  11.615
88606SOL    HW267716   5.668   2.008  11.539
88607SOL     OW67717  13.021   6.821   9.457
88607SOL    HW167718  12.964   6.817   9.380
88607SOL    HW267719  12.963   6.850   9.527
88608SOL     OW67720   2.026   5.657   0.506
88608SOL    HW167721   2.122   5.657   0.508
88608SOL    HW267722   2.002   5.750   0.501
88609SOL     OW67723   6.064   0.999   2.006
88609SOL    HW167724   6.141   1.053   2.021
88609SOL    HW267725   6.046   0.959   2.091
88610SOL     OW67726  11.816  11.892  11.761
88610SOL    HW167727  11.783  11.854  11.842
88610SOL    HW267728  11.766  11.973  11.750
88611SOL     OW67729   5.250   3.575   1.118
88611SOL    HW167730   5.318   3.576   1.051
88611SOL    HW267731   5.230   3.482   1.130
88612SOL     OW67732   1.646   5.292   4.077
88612SOL    HW167733   1.719   5.239   4.046
88612SOL    HW267734   1.628   5.353   4.006
88613SOL     OW67735   8.147   1.634  13.246
88613SOL    HW167736   8.116   1.612  13.158
88613SOL    HW267737   8.230   1.586  13.254
88614SOL     OW67738  13.965   2.895   8.520
88614SOL    HW167739  13.941   2.900   8.612
88614SOL    HW267740  14.005   2.809   8.509
88615SOL     OW67741   0.585   3.827   2.051
88615SOL    HW167742   0.519   3.827   1.982
88615SOL    HW267743   0.646   3.896   2.026
88616SOL     OW67744   7.737  13.950   5.336
88616SOL    HW167745   7.652  13.931   5.375
88616SOL    HW267746   7.800  13.902   5.390
88617SOL     OW67747   6.612  10.174   6.955
88617SOL    HW167748   6.642  10.083   6.948
88617SOL    HW267749   6.518  10.169   6.938
88618SOL     OW67750   1.324   8.679  12.468
88618SOL    HW167751   1.309   8.589  12.441
88618SOL    HW267752   1.284   8.732  12.399
88619SOL     OW67753   9.440  14.400  12.633
88619SOL    HW167754   9.364  14.388  12.575
88619SOL    HW267755   9.425  14.340  12.706
88620SOL     OW67756  14.561  14.127   1.890
88620SOL    HW167757  14.530  14.189   1.823
88620SOL    HW267758  14.505  14.144   1.966
88621SOL     OW67759  11.990   0.986   0.011
88621SOL    HW167760  11.916   1.034  14.852
88621SOL    HW267761  12.044   1.054   0.054
88622SOL     OW67762  12.481   4.986  12.968
88622SOL    HW167763  12.463   5.067  12.921
88622SOL    HW267764  12.398   4.938  12.967
88623SOL     OW67765   7.931   6.755  11.333
88623SOL    HW167766   7.864   6.822  11.323
88623SOL    HW267767   8.010   6.803  11.357
88624SOL     OW67768   0.889   4.620   6.798
88624SOL    HW167769   0.840   4.556   6.746
88624SOL    HW267770   0.925   4.681   6.733
88625SOL     OW67771   8.407  12.491   4.018
88625SOL    HW167772   8.384  12.555   3.951
88625SOL    HW267773   8.489  12.451   3.986
88626SOL     OW67774   6.996  13.343  12.891
88626SOL    HW167775   7.024  13.391  12.969
88626SOL    HW267776   7.056  13.372  12.822
88627SOL     OW67777  14.125  12.713  12.671
88627SOL    HW167778  14.030  12.726  12.666
88627SOL    HW267779  14.135  12.626  12.708
88628SOL     OW67780   5.241  13.151   2.167
88628SOL    HW167781   5.305  13.099   2.119
88628SOL    HW267782   5.293  13.218   2.211
88629SOL     OW67783   4.762  14.566   6.816
88629SOL    HW167784   4.823  14.591   6.886
88629SOL    HW267785   4.687  14.625   6.827
88630SOL     OW67786   2.636  12.552  13.682
88630SOL    HW167787   2.605  12.500  13.607
88630SOL    HW267788   2.712  12.599  13.648
88631SOL     OW67789  10.264   0.564  11.137
88631SOL    HW167790  10.320   0.596  11.066
88631SOL    HW267791  10.174   0.578  11.105
88632SOL     OW67792   0.612   3.456  11.769
88632SOL    HW167793   0.698   3.423  11.796
88632SOL    HW267794   0.571   3.484  11.850
88633SOL     OW67795  13.436   1.579   7.821
88633SOL    HW167796  13.442   1.485   7.804
88633SOL    HW267797  13.381   1.612   7.750
88634SOL     OW67798   6.388  10.526   1.238
88634SOL    HW167799   6.388  10.508   1.332
88634SOL    HW267800   6.461  10.475   1.203
88635SOL     OW67801   6.461   4.608   9.692
88635SOL    HW167802   6.417   4.661   9.758
88635SOL    HW267803   6.522   4.553   9.742
88636SOL     OW67804   1.326   2.498   6.453
88636SOL    HW167805   1.317   2.470   6.362
88636SOL    HW267806   1.301   2.422   6.505
88637SOL     OW67807   7.542   0.003  11.994
88637SOL    HW167808   7.493  14.821  12.052
88637SOL    HW267809   7.631   0.003  12.029
88638SOL     OW67810  12.906  10.719  13.932
88638SOL    HW167811  12.916  10.737  14.025
88638SOL    HW267812  12.934  10.628  13.922
88639SOL     OW67813   2.799  13.491   3.809
88639SOL    HW167814   2.839  13.406   3.793
88639SOL    HW267815   2.732  13.500   3.741
88640SOL     OW67816  14.166   3.607   5.591
88640SOL    HW167817  14.119   3.541   5.642
88640SOL    HW267818  14.103   3.638   5.527
88641SOL     OW67819   7.106   4.456   5.463
88641SOL    HW167820   7.043   4.498   5.522
88641SOL    HW267821   7.067   4.371   5.442
88642SOL     OW67822  11.742   5.975   8.851
88642SOL    HW167823  11.666   5.973   8.909
88642SOL    HW267824  11.810   6.020   8.903
88643SOL     OW67825   8.188   3.800   7.338
88643SOL    HW167826   8.140   3.785   7.257
88643SOL    HW267827   8.177   3.893   7.356
88644SOL     OW67828   1.006   6.608   0.603
88644SOL    HW167829   0.934   6.661   0.635
88644SOL    HW267830   1.017   6.636   0.512
88645SOL     OW67831  13.510   5.630  12.654
88645SOL    HW167832  13.473   5.645  12.741
88645SOL    HW267833  13.440   5.586  12.606
88646SOL     OW67834   0.473  11.188   6.747
88646SOL    HW167835   0.469  11.263   6.688
88646SOL    HW267836   0.428  11.217   6.826
88647SOL     OW67837   4.457  12.520   2.188
88647SOL    HW167838   4.431  12.558   2.271
88647SOL    HW267839   4.545  12.554   2.172
88648SOL     OW67840   1.022   3.925   3.704
88648SOL    HW167841   1.004   4.019   3.713
88648SOL    HW267842   1.116   3.920   3.690
88649SOL     OW67843   5.390  13.497   1.938
88649SOL    HW167844   5.372  13.514   1.846
88649SOL    HW267845   5.308  13.462   1.973
88650SOL     OW67846   0.634  13.801   2.546
88650SOL    HW167847   0.608  13.837   2.462
88650SOL    HW267848   0.679  13.873   2.590
88651SOL     OW67849  11.982   8.590  14.281
88651SOL    HW167850  12.057   8.634  14.322
88651SOL    HW267851  12.015   8.560  14.196
88652SOL     OW67852   9.811  11.016   8.866
88652SOL    HW167853   9.894  10.968   8.864
88652SOL    HW267854   9.835  11.105   8.841
88653SOL     OW67855   8.920  10.608   9.020
88653SOL    HW167856   8.940  10.562   8.938
88653SOL    HW267857   8.919  10.540   9.087
88654SOL     OW67858  11.376   7.055  13.574
88654SOL    HW167859  11.308   7.038  13.639
88654SOL    HW267860  11.456   7.018  13.612
88655SOL     OW67861   4.794   0.914  10.368
88655SOL    HW167862   4.889   0.928  10.370
88655SOL    HW267863   4.761   0.969  10.439
88656SOL     OW67864   5.937   4.609  11.460
88656SOL    HW167865   5.870   4.641  11.520
88656SOL    HW267866   5.920   4.656  11.378
88657SOL     OW67867   2.819   1.601   7.469
88657SOL    HW167868   2.847   1.589   7.378
88657SOL    HW267869   2.899   1.597   7.520
88658SOL     OW67870  14.656  14.010   4.572
88658SOL    HW167871  14.731  13.973   4.525
88658SOL    HW267872  14.612  14.065   4.507
88659SOL     OW67873   5.239  14.577   6.752
88659SOL    HW167874   5.228  14.509   6.820
88659SOL    HW267875   5.285  14.648   6.797
88660SOL     OW67876   0.131   2.976   4.960
88660SOL    HW167877   0.091   2.965   5.045
88660SOL    HW267878   0.123   2.891   4.918
88661SOL     OW67879   0.743   8.997   6.928
88661SOL    HW167880   0.827   9.043   6.935
88661SOL    HW267881   0.677   9.066   6.938
88662SOL     OW67882   8.629   3.420   4.634
88662SOL    HW167883   8.664   3.372   4.709
88662SOL    HW267884   8.561   3.362   4.599
88663SOL     OW67885  12.369   9.404  11.420
88663SOL    HW167886  12.388   9.386  11.512
88663SOL    HW267887  12.412   9.333  11.372
88664SOL     OW67888   5.504   6.651  14.179
88664SOL    HW167889   5.435   6.716  14.197
88664SOL    HW267890   5.518   6.608  14.263
88665SOL     OW67891   2.860  11.852  10.496
88665SOL    HW167892   2.797  11.922  10.511
88665SOL    HW267893   2.900  11.836  10.581
88666SOL     OW67894   1.991   0.725  10.478
88666SOL    HW167895   2.066   0.785  10.480
88666SOL    HW267896   1.916   0.781  10.459
88667SOL     OW67897   0.558   4.784   0.380
88667SOL    HW167898   0.586   4.718   0.317
88667SOL    HW267899   0.545   4.736   0.461
88668SOL     OW67900   6.228   8.210   4.489
88668SOL    HW167901   6.276   8.149   4.546
88668SOL    HW267902   6.284   8.220   4.412
88669SOL     OW67903   7.086   5.573   8.537
88669SOL    HW167904   7.097   5.486   8.501
88669SOL    HW267905   6.993   5.592   8.528
88670SOL     OW67906  12.789   4.835  10.268
88670SOL    HW167907  12.732   4.761  10.288
88670SOL    HW267908  12.808   4.875  10.353
88671SOL     OW67909   1.810   8.149   1.160
88671SOL    HW167910   1.886   8.147   1.218
88671SOL    HW267911   1.752   8.215   1.199
88672SOL     OW67912   7.278  11.947   3.634
88672SOL    HW167913   7.217  11.976   3.702
88672SOL    HW267914   7.224  11.897   3.573
88673SOL     OW67915   1.751  14.611   3.150
88673SOL    HW167916   1.798  14.651   3.077
88673SOL    HW267917   1.768  14.669   3.224
88674SOL     OW67918   4.720   0.274   5.112
88674SOL    HW167919   4.675   0.333   5.052
88674SOL    HW267920   4.721   0.321   5.196
88675SOL     OW67921   0.111   8.787   0.304
88675SOL    HW167922   0.157   8.867   0.278
88675SOL    HW267923   0.130   8.725   0.234
88676SOL     OW67924   1.727   2.196   9.012
88676SOL    HW167925   1.757   2.272   9.062
88676SOL    HW267926   1.758   2.212   8.923
88677SOL     OW67927   2.708   0.152  13.194
88677SOL    HW167928   2.757   0.126  13.116
88677SOL    HW267929   2.775   0.181  13.256
88678SOL     OW67930   4.303  13.010   0.948
88678SOL    HW167931   4.268  12.921   0.954
88678SOL    HW267932   4.233  13.066   0.980
88679SOL     OW67933   6.551   9.602   9.352
88679SOL    HW167934   6.612   9.528   9.362
88679SOL    HW267935   6.606   9.680   9.357
88680SOL     OW67936  12.734  12.195  14.860
88680SOL    HW167937  12.751  12.144  14.780
88680SOL    HW267938  12.762  12.138   0.054
88681SOL     OW67939   1.305   9.802  12.609
88681SOL    HW167940   1.395   9.804  12.579
88681SOL    HW267941   1.311   9.788  12.704
88682SOL     OW67942   6.087  12.762   3.164
88682SOL    HW167943   5.993  12.775   3.151
88682SOL    HW267944   6.097  12.668   3.178
88683SOL     OW67945   0.893   8.724   1.670
88683SOL    HW167946   0.910   8.630   1.672
88683SOL    HW267947   0.917   8.751   1.581
88684SOL     OW67948   7.232   4.196   6.959
88684SOL    HW167949   7.204   4.153   6.878
88684SOL    HW267950   7.218   4.130   7.027
88685SOL     OW67951   9.212   4.723   3.800
88685SOL    HW167952   9.146   4.730   3.731
88685SOL    HW267953   9.262   4.805   3.794
88686SOL     OW67954  10.143  10.135   3.957
88686SOL    HW167955  10.127  10.227   3.975
88686SOL    HW267956  10.226  10.134   3.909
88687SOL     OW67957   1.144   6.692   0.358
88687SOL    HW167958   1.225   6.646   0.382
88687SOL    HW267959   1.152   6.778   0.400
88688SOL     OW67960   1.493  14.778   8.465
88688SOL    HW167961   1.439  14.786   8.543
88688SOL    HW267962   1.569  14.833   8.482
88689SOL     OW67963   0.576  14.012  11.650
88689SOL    HW167964   0.517  14.036  11.578
88689SOL    HW267965   0.650  13.969  11.608
88690SOL     OW67966  13.246   0.805  11.243
88690SOL    HW167967  13.293   0.722  11.252
88690SOL    HW267968  13.218   0.807  11.151
88691SOL     OW67969   5.711  10.737   0.598
88691SOL    HW167970   5.617  10.731   0.615
88691SOL    HW267971   5.732  10.657   0.551
88692SOL     OW67972   5.127   4.592  13.985
88692SOL    HW167973   5.160   4.647  13.914
88692SOL    HW267974   5.113   4.506  13.944
88693SOL     OW67975   1.495   6.831   2.879
88693SOL    HW167976   1.481   6.738   2.858
88693SOL    HW267977   1.412   6.873   2.855
88694SOL     OW67978   5.200   5.565   0.882
88694SOL    HW167979   5.197   5.529   0.793
88694SOL    HW267980   5.126   5.626   0.885
88695SOL     OW67981  13.073   0.971  12.976
88695SOL    HW167982  13.058   1.065  12.975
88695SOL    HW267983  12.988   0.933  12.997
88696SOL     OW67984   5.875   2.111   4.425
88696SOL    HW167985   5.965   2.092   4.396
88696SOL    HW267986   5.831   2.143   4.346
88697SOL     OW67987   4.927  10.582   4.138
88697SOL    HW167988   4.986  10.513   4.109
88697SOL    HW267989   4.981  10.637   4.195
88698SOL     OW67990   2.254   5.352  10.253
88698SOL    HW167991   2.203   5.313  10.182
88698SOL    HW267992   2.248   5.446  10.238
88699SOL     OW67993   4.096   6.236   3.657
88699SOL    HW167994   4.039   6.192   3.594
88699SOL    HW267995   4.050   6.228   3.741
88700SOL     OW67996  13.249   5.695  10.697
88700SOL    HW167997  13.168   5.655  10.728
88700SOL    HW267998  13.227   5.788  10.688
88701SOL     OW67999  13.264  11.943   9.288
88701SOL    HW168000  13.189  11.946   9.347
88701SOL    HW268001  13.246  11.869   9.230
88702SOL     OW68002  14.528  13.126   7.190
88702SOL    HW168003  14.435  13.137   7.206
88702SOL    HW268004  14.534  13.106   7.096
88703SOL     OW68005   7.031   5.979   1.229
88703SOL    HW168006   7.123   5.999   1.212
88703SOL    HW268007   7.032   5.926   1.308
88704SOL     OW68008   8.332  12.115   5.409
88704SOL    HW168009   8.278  12.035   5.401
88704SOL    HW268010   8.419  12.088   5.382
88705SOL     OW68011   0.727   4.996  10.331
88705SOL    HW168012   0.738   4.973  10.239
88705SOL    HW268013   0.713   4.913  10.375
88706SOL     OW68014   1.329   2.318   4.564
88706SOL    HW168015   1.350   2.386   4.628
88706SOL    HW268016   1.414   2.291   4.529
88707SOL     OW68017   7.463   5.423  14.279
88707SOL    HW168018   7.385   5.373  14.302
88707SOL    HW268019   7.431   5.513  14.266
88708SOL     OW68020   7.840  13.970   4.328
88708SOL    HW168021   7.779  13.943   4.259
88708SOL    HW268022   7.785  13.978   4.406
88709SOL     OW68023  10.652   8.038   1.592
88709SOL    HW168024  10.713   7.995   1.653
88709SOL    HW268025  10.566   8.023   1.630
88710SOL     OW68026   2.030   6.554   8.784
88710SOL    HW168027   2.115   6.594   8.769
88710SOL    HW268028   1.972   6.595   8.719
88711SOL     OW68029   9.696   9.545   0.078
88711SOL    HW168030   9.772   9.545   0.020
88711SOL    HW268031   9.724   9.493   0.154
88712SOL     OW68032   7.479  11.849   7.660
88712SOL    HW168033   7.438  11.873   7.743
88712SOL    HW268034   7.551  11.792   7.685
88713SOL     OW68035   1.549   7.205   0.298
88713SOL    HW168036   1.559   7.110   0.305
88713SOL    HW268037   1.481   7.227   0.362
88714SOL     OW68038  14.492   2.486  13.849
88714SOL    HW168039  14.423   2.508  13.786
88714SOL    HW268040  14.446   2.443  13.921
88715SOL     OW68041   1.777   0.037   3.725
88715SOL    HW168042   1.851  14.855   3.736
88715SOL    HW268043   1.799   0.113   3.779
88716SOL     OW68044   0.086   7.951  10.631
88716SOL    HW168045   0.113   7.895  10.703
88716SOL    HW268046   0.078   8.038  10.670
88717SOL     OW68047  10.035  14.086   7.665
88717SOL    HW168048  10.090  14.092   7.587
88717SOL    HW268049   9.946  14.086   7.631
88718SOL     OW68050  12.223  10.903   9.677
88718SOL    HW168051  12.252  10.825   9.724
88718SOL    HW268052  12.175  10.868   9.601
88719SOL     OW68053   9.645   9.165  13.846
88719SOL    HW168054   9.690   9.093  13.803
88719SOL    HW268055   9.556   9.133  13.860
88720SOL     OW68056   7.408   8.959  11.037
88720SOL    HW168057   7.487   8.941  11.088
88720SOL    HW268058   7.389   9.051  11.053
88721SOL     OW68059  13.770   6.224   9.070
88721SOL    HW168060  13.852   6.269   9.088
88721SOL    HW268061  13.705   6.294   9.065
88722SOL     OW68062   6.816   5.800   7.925
88722SOL    HW168063   6.901   5.823   7.964
88722SOL    HW268064   6.780   5.884   7.897
88723SOL     OW68065  13.166   2.892   7.282
88723SOL    HW168066  13.254   2.899   7.320
88723SOL    HW268067  13.134   2.807   7.313
88724SOL     OW68068  13.268  12.288   0.725
88724SOL    HW168069  13.289  12.196   0.711
88724SOL    HW268070  13.288  12.330   0.641
88725SOL     OW68071   8.886   9.041  11.126
88725SOL    HW168072   8.929   9.010  11.047
88725SOL    HW268073   8.875   9.135  11.111
88726SOL     OW68074  11.554   4.876   5.074
88726SOL    HW168075  11.514   4.939   5.014
88726SOL    HW268076  11.602   4.930   5.136
88727SOL     OW68077   0.578   6.594  14.622
88727SOL    HW168078   0.527   6.643  14.558
88727SOL    HW268079   0.669   6.616  14.602
88728SOL     OW68080   6.114  10.213   9.789
88728SOL    HW168081   6.148  10.303   9.792
88728SOL    HW268082   6.072  10.201   9.874
88729SOL     OW68083   0.938   4.368   5.569
88729SOL    HW168084   0.945   4.447   5.622
88729SOL    HW268085   1.027   4.334   5.564
88730SOL     OW68086   6.620   9.270  14.480
88730SOL    HW168087   6.685   9.278  14.411
88730SOL    HW268088   6.670   9.239  14.556
88731SOL     OW68089   2.043  12.747   3.676
88731SOL    HW168090   2.074  12.833   3.703
88731SOL    HW268091   1.973  12.765   3.613
88732SOL     OW68092   9.653   8.120   3.300
88732SOL    HW168093   9.560   8.099   3.296
88732SOL    HW268094   9.664   8.195   3.241
88733SOL     OW68095   7.417  11.387   2.587
88733SOL    HW168096   7.384  11.473   2.561
88733SOL    HW268097   7.430  11.395   2.681
88734SOL     OW68098  13.453  14.688   9.404
88734SOL    HW168099  13.509  14.699   9.482
88734SOL    HW268100  13.475  14.762   9.348
88735SOL     OW68101  13.475  10.583   8.871
88735SOL    HW168102  13.536  10.620   8.936
88735SOL    HW268103  13.513  10.609   8.787
88736SOL     OW68104   8.344   7.837   7.456
88736SOL    HW168105   8.262   7.822   7.503
88736SOL    HW268106   8.388   7.751   7.457
88737SOL     OW68107   1.437  10.215  12.717
88737SOL    HW168108   1.500  10.147  12.693
88737SOL    HW268109   1.480  10.263  12.788
88738SOL     OW68110  11.255   2.051   8.660
88738SOL    HW168111  11.226   2.132   8.617
88738SOL    HW268112  11.281   2.078   8.748
88739SOL     OW68113  14.530   1.080   7.962
88739SOL    HW168114  14.473   1.142   7.917
88739SOL    HW268115  14.501   1.083   8.053
88740SOL     OW68116  13.828  12.208  10.239
88740SOL    HW168117  13.912  12.194  10.195
88740SOL    HW268118  13.852  12.226  10.330
88741SOL     OW68119   6.569   4.501   0.379
88741SOL    HW168120   6.592   4.567   0.444
88741SOL    HW268121   6.650   4.451   0.365
88742SOL     OW68122   6.596   8.365   4.202
88742SOL    HW168123   6.599   8.271   4.220
88742SOL    HW268124   6.613   8.373   4.109
88743SOL     OW68125  13.955  12.400   8.735
88743SOL    HW168126  13.872  12.435   8.702
88743SOL    HW268127  14.003  12.374   8.657
88744SOL     OW68128   3.066  11.261   0.556
88744SOL    HW168129   3.131  11.191   0.548
88744SOL    HW268130   3.022  11.264   0.472
88745SOL     OW68131   9.698   8.753   6.984
88745SOL    HW168132   9.612   8.788   7.010
88745SOL    HW268133   9.682   8.661   6.965
88746SOL     OW68134   8.327   8.323   3.746
88746SOL    HW168135   8.389   8.361   3.808
88746SOL    HW268136   8.382   8.274   3.685
88747SOL     OW68137   3.530  13.684   4.181
88747SOL    HW168138   3.506  13.689   4.089
88747SOL    HW268139   3.448  13.662   4.226
88748SOL     OW68140   5.232  13.373  13.863
88748SOL    HW168141   5.153  13.401  13.817
88748SOL    HW268142   5.296  13.356  13.794
88749SOL     OW68143   3.541  11.278   5.379
88749SOL    HW168144   3.501  11.363   5.358
88749SOL    HW268145   3.593  11.256   5.302
88750SOL     OW68146  13.352   4.079   2.704
88750SOL    HW168147  13.320   4.163   2.737
88750SOL    HW268148  13.439   4.070   2.742
88751SOL     OW68149  13.500   7.483   8.142
88751SOL    HW168150  13.406   7.477   8.127
88751SOL    HW268151  13.512   7.563   8.193
88752SOL     OW68152   6.564   1.159   0.193
88752SOL    HW168153   6.624   1.232   0.177
88752SOL    HW268154   6.537   1.131   0.105
88753SOL     OW68155   8.745   1.173  13.223
88753SOL    HW168156   8.807   1.110  13.185
88753SOL    HW268157   8.796   1.219  13.289
88754SOL     OW68158   9.898   0.066   2.790
88754SOL    HW168159   9.921   0.107   2.874
88754SOL    HW268160   9.818   0.017   2.808
88755SOL     OW68161   4.657   1.497   8.794
88755SOL    HW168162   4.723   1.453   8.847
88755SOL    HW268163   4.688   1.487   8.704
88756SOL     OW68164  12.378   2.437  14.163
88756SOL    HW168165  12.369   2.389  14.245
88756SOL    HW268166  12.296   2.485  14.154
88757SOL     OW68167   5.409   1.080   6.864
88757SOL    HW168168   5.476   1.076   6.796
88757SOL    HW268169   5.441   1.023   6.933
88758SOL     OW68170   3.961  14.734  14.268
88758SOL    HW168171   3.992  14.786  14.194
88758SOL    HW268172   3.881  14.779  14.296
88759SOL     OW68173   2.981   2.842  13.993
88759SOL    HW168174   3.024   2.820  13.911
88759SOL    HW268175   3.053   2.856  14.055
88760SOL     OW68176   5.128  11.944  12.160
88760SOL    HW168177   5.068  11.870  12.157
88760SOL    HW268178   5.191  11.928  12.090
88761SOL     OW68179   5.550   7.807   3.932
88761SOL    HW168180   5.593   7.889   3.908
88761SOL    HW268181   5.507   7.826   4.015
88762SOL     OW68182   0.209   0.322   3.372
88762SOL    HW168183   0.250   0.388   3.317
88762SOL    HW268184   0.260   0.324   3.454
88763SOL     OW68185   6.965  11.239   0.490
88763SOL    HW168186   6.914  11.196   0.558
88763SOL    HW268187   7.035  11.284   0.537
88764SOL     OW68188   2.603  10.802   8.463
88764SOL    HW168189   2.657  10.880   8.451
88764SOL    HW268190   2.656  10.745   8.519
88765SOL     OW68191   6.741   3.426   7.423
88765SOL    HW168192   6.716   3.435   7.331
88765SOL    HW268193   6.716   3.509   7.462
88766SOL     OW68194   6.484   3.800   9.820
88766SOL    HW168195   6.571   3.772   9.791
88766SOL    HW268196   6.448   3.847   9.745
88767SOL     OW68197   8.589  11.160   1.467
88767SOL    HW168198   8.532  11.094   1.428
88767SOL    HW268199   8.579  11.148   1.562
88768SOL     OW68200  14.211  12.563   6.063
88768SOL    HW168201  14.198  12.468   6.067
88768SOL    HW268202  14.154  12.599   6.130
88769SOL     OW68203   7.584   9.375   4.139
88769SOL    HW168204   7.537   9.424   4.071
88769SOL    HW268205   7.540   9.290   4.142
88770SOL     OW68206  14.332   8.896   2.722
88770SOL    HW168207  14.377   8.979   2.709
88770SOL    HW268208  14.399   8.829   2.706
88771SOL     OW68209   9.303   1.827   6.482
88771SOL    HW168210   9.356   1.864   6.552
88771SOL    HW268211   9.213   1.845   6.509
88772SOL     OW68212  10.553   0.253   8.560
88772SOL    HW168213  10.503   0.263   8.641
88772SOL    HW268214  10.602   0.336   8.552
88773SOL     OW68215  10.952   2.535   1.123
88773SOL    HW168216  10.866   2.569   1.145
88773SOL    HW268217  10.988   2.597   1.060
88774SOL     OW68218   9.784  13.437   9.005
88774SOL    HW168219   9.708  13.496   9.009
88774SOL    HW268220   9.747  13.352   8.983
88775SOL     OW68221  13.629  11.279   1.789
88775SOL    HW168222  13.577  11.314   1.862
88775SOL    HW268223  13.620  11.345   1.720
88776SOL     OW68224   4.172   0.893  12.734
88776SOL    HW168225   4.179   0.966  12.673
88776SOL    HW268226   4.182   0.814  12.680
88777SOL     OW68227   3.211   3.128   2.320
88777SOL    HW168228   3.121   3.102   2.301
88777SOL    HW268229   3.258   3.114   2.237
88778SOL     OW68230   9.071  11.198   8.271
88778SOL    HW168231   8.987  11.164   8.303
88778SOL    HW268232   9.052  11.287   8.241
88779SOL     OW68233  11.992   0.719  11.541
88779SOL    HW168234  11.948   0.709  11.457
88779SOL    HW268235  12.064   0.780  11.523
88780SOL     OW68236   6.269  10.381   0.861
88780SOL    HW168237   6.207  10.352   0.928
88780SOL    HW268238   6.354  10.349   0.890
88781SOL     OW68239  13.268   1.911   9.007
88781SOL    HW168240  13.304   1.929   8.920
88781SOL    HW268241  13.196   1.975   9.016
88782SOL     OW68242  10.269  11.632   5.336
88782SOL    HW168243  10.204  11.597   5.396
88782SOL    HW268244  10.319  11.556   5.306
88783SOL     OW68245   4.897   5.084   7.607
88783SOL    HW168246   4.979   5.085   7.558
88783SOL    HW268247   4.831   5.058   7.543
88784SOL     OW68248   7.911   0.910   6.232
88784SOL    HW168249   7.999   0.947   6.226
88784SOL    HW268250   7.913   0.855   6.310
88785SOL     OW68251   6.361  10.606  14.426
88785SOL    HW168252   6.425  10.635  14.361
88785SOL    HW268253   6.278  10.642  14.395
88786SOL     OW68254  14.813  14.172   2.360
88786SOL    HW168255  14.846  14.164   2.270
88786SOL    HW268256   0.011  14.202   2.411
88787SOL     OW68257   3.572   6.756   2.102
88787SOL    HW168258   3.555   6.670   2.064
88787SOL    HW268259   3.662   6.751   2.134
88788SOL     OW68260   3.081  13.257   6.810
88788SOL    HW168261   3.020  13.276   6.739
88788SOL    HW268262   3.051  13.172   6.844
88789SOL     OW68263   1.217   9.652   4.698
88789SOL    HW168264   1.255   9.610   4.775
88789SOL    HW268265   1.129   9.617   4.691
88790SOL     OW68266  14.715   2.212   6.968
88790SOL    HW168267  14.713   2.164   6.885
88790SOL    HW268268  14.642   2.272   6.963
88791SOL     OW68269   7.398   9.336   6.431
88791SOL    HW168270   7.335   9.271   6.461
88791SOL    HW268271   7.448   9.290   6.363
88792SOL     OW68272  12.927   5.041   1.103
88792SOL    HW168273  12.937   5.089   1.185
88792SOL    HW268274  13.016   5.022   1.075
88793SOL     OW68275  13.912  14.627   0.256
88793SOL    HW168276  13.968  14.563   0.300
88793SOL    HW268277  13.828  14.582   0.244
88794SOL     OW68278   1.577   1.791  12.490
88794SOL    HW168279   1.624   1.827  12.414
88794SOL    HW268280   1.564   1.866  12.548
88795SOL     OW68281  13.828   2.135   7.662
88795SOL    HW168282  13.857   2.187   7.587
88795SOL    HW268283  13.741   2.103   7.637
88796SOL     OW68284   3.122   2.604   4.428
88796SOL    HW168285   3.171   2.600   4.510
88796SOL    HW268286   3.161   2.676   4.379
88797SOL     OW68287   5.599  13.550   2.997
88797SOL    HW168288   5.555  13.480   3.045
88797SOL    HW268289   5.692  13.524   2.998
88798SOL     OW68290  10.301   4.802   2.086
88798SOL    HW168291  10.328   4.722   2.040
88798SOL    HW268292  10.209   4.788   2.106
88799SOL     OW68293   7.381   0.384   3.919
88799SOL    HW168294   7.322   0.339   3.980
88799SOL    HW268295   7.372   0.476   3.940
88800SOL     OW68296  10.384   4.706   3.448
88800SOL    HW168297  10.346   4.793   3.437
88800SOL    HW268298  10.439   4.714   3.526
88801SOL     OW68299   5.843  12.177   5.548
88801SOL    HW168300   5.836  12.219   5.634
88801SOL    HW268301   5.890  12.096   5.565
88802SOL     OW68302  13.477  12.991   2.912
88802SOL    HW168303  13.472  13.050   2.988
88802SOL    HW268304  13.520  13.043   2.844
88803SOL     OW68305   2.316   4.147   7.554
88803SOL    HW168306   2.229   4.164   7.518
88803SOL    HW268307   2.346   4.068   7.508
88804SOL     OW68308  10.855   8.160   5.270
88804SOL    HW168309  10.911   8.087   5.244
88804SOL    HW268310  10.779   8.119   5.311
88805SOL     OW68311   7.313   3.018   5.887
88805SOL    HW168312   7.322   2.937   5.936
88805SOL    HW268313   7.352   3.085   5.942
88806SOL     OW68314   8.941  10.742   0.677
88806SOL    HW168315   8.873  10.764   0.740
88806SOL    HW268316   8.892  10.715   0.598
88807SOL     OW68317   5.650   2.094   9.854
88807SOL    HW168318   5.742   2.116   9.840
88807SOL    HW268319   5.604   2.132   9.779
88808SOL     OW68320   8.786  13.827  12.261
88808SOL    HW168321   8.831  13.743  12.255
88808SOL    HW268322   8.856  13.892  12.262
88809SOL     OW68323  10.254   3.463  10.966
88809SOL    HW168324  10.270   3.530  11.033
88809SOL    HW268325  10.260   3.380  11.013
88810SOL     OW68326   1.148  10.498   9.899
88810SOL    HW168327   1.105  10.415   9.881
88810SOL    HW268328   1.153  10.542   9.814
88811SOL     OW68329  11.711   8.778   0.329
88811SOL    HW168330  11.637   8.806   0.382
88811SOL    HW268331  11.784   8.773   0.391
88812SOL     OW68332  14.729   3.970   9.659
88812SOL    HW168333  14.708   4.061   9.680
88812SOL    HW268334  14.708   3.961   9.566
88813SOL     OW68335   8.392   4.241   8.328
88813SOL    HW168336   8.318   4.247   8.388
88813SOL    HW268337   8.354   4.254   8.241
88814SOL     OW68338  13.542   7.511  11.694
88814SOL    HW168339  13.476   7.569  11.732
88814SOL    HW268340  13.528   7.518  11.599
88815SOL     OW68341   2.193  12.532   3.727
88815SOL    HW168342   2.197  12.481   3.647
88815SOL    HW268343   2.142  12.610   3.704
88816SOL     OW68344   2.732  14.250  13.343
88816SOL    HW168345   2.686  14.275  13.263
88816SOL    HW268346   2.785  14.175  13.317
88817SOL     OW68347   3.032   7.241   8.571
88817SOL    HW168348   3.079   7.267   8.651
88817SOL    HW268349   3.073   7.291   8.501
88818SOL     OW68350   1.277  12.378   0.333
88818SOL    HW168351   1.187  12.398   0.307
88818SOL    HW268352   1.268  12.314   0.404
88819SOL     OW68353   1.575   1.563   3.751
88819SOL    HW168354   1.554   1.641   3.804
88819SOL    HW268355   1.666   1.575   3.725
88820SOL     OW68356  13.618   4.391  12.435
88820SOL    HW168357  13.684   4.437  12.384
88820SOL    HW268358  13.553   4.458  12.456
88821SOL     OW68359   0.637   2.435   4.498
88821SOL    HW168360   0.624   2.448   4.404
88821SOL    HW268361   0.554   2.459   4.538
88822SOL     OW68362  11.043  10.234  14.291
88822SOL    HW168363  11.053  10.139  14.284
88822SOL    HW268364  11.070  10.267  14.205
88823SOL     OW68365   9.490   6.219   9.866
88823SOL    HW168366   9.429   6.219   9.792
88823SOL    HW268367   9.437   6.194   9.941
88824SOL     OW68368   2.674   4.844   6.819
88824SOL    HW168369   2.681   4.754   6.788
88824SOL    HW268370   2.581   4.866   6.809
88825SOL     OW68371  10.646   6.828   7.133
88825SOL    HW168372  10.554   6.812   7.155
88825SOL    HW268373  10.694   6.759   7.178
88826SOL     OW68374   2.498   7.636   9.198
88826SOL    HW168375   2.438   7.633   9.124
88826SOL    HW268376   2.460   7.577   9.263
88827SOL     OW68377  12.152  14.033   6.314
88827SOL    HW168378  12.080  14.013   6.254
88827SOL    HW268379  12.230  14.032   6.260
88828SOL     OW68380  12.765   0.878   0.115
88828SOL    HW168381  12.713   0.885   0.035
88828SOL    HW268382  12.796   0.787   0.115
88829SOL     OW68383   6.762   0.578   5.418
88829SOL    HW168384   6.803   0.625   5.345
88829SOL    HW268385   6.764   0.640   5.490
88830SOL     OW68386   1.808   6.222   6.751
88830SOL    HW168387   1.781   6.262   6.668
88830SOL    HW268388   1.765   6.275   6.818
88831SOL     OW68389   8.699  11.088   1.012
88831SOL    HW168390   8.757  11.139   0.955
88831SOL    HW268391   8.695  11.138   1.093
88832SOL     OW68392   6.244  13.861   7.318
88832SOL    HW168393   6.243  13.837   7.226
88832SOL    HW268394   6.249  13.777   7.365
88833SOL     OW68395   0.836   0.744  13.586
88833SOL    HW168396   0.771   0.803  13.548
88833SOL    HW268397   0.869   0.694  13.511
88834SOL     OW68398  10.075   2.903   5.003
88834SOL    HW168399  10.149   2.853   4.971
88834SOL    HW268400  10.032   2.936   4.924
88835SOL     OW68401  14.183   9.005   1.261
88835SOL    HW168402  14.253   8.977   1.320
88835SOL    HW268403  14.219   9.081   1.217
88836SOL     OW68404   4.335   0.197  11.248
88836SOL    HW168405   4.338   0.151  11.164
88836SOL    HW268406   4.290   0.136  11.306
88837SOL     OW68407   7.276  12.217   7.895
88837SOL    HW168408   7.228  12.235   7.814
88837SOL    HW268409   7.211  12.225   7.964
88838SOL     OW68410   6.550   2.516  12.534
88838SOL    HW168411   6.527   2.563  12.614
88838SOL    HW268412   6.499   2.558  12.465
88839SOL     OW68413   4.654   6.774   8.953
88839SOL    HW168414   4.602   6.694   8.952
88839SOL    HW268415   4.730   6.753   9.008
88840SOL     OW68416  11.322  14.404   7.471
88840SOL    HW168417  11.362  14.336   7.525
88840SOL    HW268418  11.339  14.377   7.381
88841SOL     OW68419   3.561   9.071   4.344
88841SOL    HW168420   3.466   9.077   4.347
88841SOL    HW268421   3.591   9.162   4.351
88842SOL     OW68422  11.139  12.972   0.984
88842SOL    HW168423  11.186  13.050   0.955
88842SOL    HW268424  11.056  13.006   1.019
88843SOL     OW68425   9.098   9.038   1.584
88843SOL    HW168426   9.169   9.053   1.647
88843SOL    HW268427   9.141   9.045   1.499
88844SOL     OW68428   4.212   3.815   9.914
88844SOL    HW168429   4.124   3.853   9.910
88844SOL    HW268430   4.261   3.861   9.846
88845SOL     OW68431  13.786  10.759   0.546
88845SOL    HW168432  13.771  10.852   0.529
88845SOL    HW268433  13.869  10.740   0.503
88846SOL     OW68434   5.551   5.695   6.867
88846SOL    HW168435   5.553   5.609   6.825
88846SOL    HW268436   5.638   5.731   6.852
88847SOL     OW68437   9.933   9.747   3.894
88847SOL    HW168438  10.024   9.753   3.866
88847SOL    HW268439   9.882   9.766   3.815
88848SOL     OW68440   7.372   7.161   4.698
88848SOL    HW168441   7.387   7.085   4.641
88848SOL    HW268442   7.390   7.129   4.786
88849SOL     OW68443   4.081   9.449  13.178
88849SOL    HW168444   4.056   9.536  13.146
88849SOL    HW268445   4.118   9.405  13.103
88850SOL     OW68446   9.712   6.044   9.887
88850SOL    HW168447   9.631   6.095   9.880
88850SOL    HW268448   9.687   5.968   9.940
88851SOL     OW68449   8.169   2.002   5.221
88851SOL    HW168450   8.094   2.046   5.261
88851SOL    HW268451   8.215   2.072   5.174
88852SOL     OW68452   8.645   0.782   1.749
88852SOL    HW168453   8.646   0.817   1.838
88852SOL    HW268454   8.553   0.759   1.734
88853SOL     OW68455   4.176  13.446   0.899
88853SOL    HW168456   4.265  13.410   0.897
88853SOL    HW268457   4.176  13.506   0.973
88854SOL     OW68458   7.175   8.922   0.545
88854SOL    HW168459   7.150   8.871   0.467
88854SOL    HW268460   7.239   8.985   0.513
88855SOL     OW68461   7.851  11.147  12.768
88855SOL    HW168462   7.796  11.079  12.728
88855SOL    HW268463   7.841  11.134  12.862
88856SOL     OW68464   0.287   1.252  13.269
88856SOL    HW168465   0.329   1.171  13.238
88856SOL    HW268466   0.276   1.238  13.363
88857SOL     OW68467   6.522   4.584   0.128
88857SOL    HW168468   6.470   4.662   0.110
88857SOL    HW268469   6.526   4.579   0.224
88858SOL     OW68470  14.661  13.334  13.516
88858SOL    HW168471  14.695  13.250  13.545
88858SOL    HW268472  14.730  13.369  13.459
88859SOL     OW68473  13.210   1.418   9.676
88859SOL    HW168474  13.288   1.364   9.686
88859SOL    HW268475  13.231   1.478   9.605
88860SOL     OW68476   6.354  12.559   0.572
88860SOL    HW168477   6.282  12.615   0.539
88860SOL    HW268478   6.354  12.484   0.513
88861SOL     OW68479  14.584  12.711   0.966
88861SOL    HW168480  14.647  12.782   0.953
88861SOL    HW268481  14.509  12.753   1.008
88862SOL     OW68482   1.547   8.548  13.475
88862SOL    HW168483   1.551   8.610  13.402
88862SOL    HW268484   1.475   8.580  13.530
88863SOL     OW68485   4.208  12.168   0.435
88863SOL    HW168486   4.190  12.166   0.529
88863SOL    HW268487   4.131  12.127   0.395
88864SOL     OW68488  11.872  11.450  11.439
88864SOL    HW168489  11.955  11.407  11.421
88864SOL    HW268490  11.858  11.507  11.363
88865SOL     OW68491   8.080   7.142   6.126
88865SOL    HW168492   8.039   7.177   6.047
88865SOL    HW268493   8.167   7.113   6.098
88866SOL     OW68494  13.447   2.091   9.864
88866SOL    HW168495  13.369   2.067   9.813
88866SOL    HW268496  13.478   2.173   9.825
88867SOL     OW68497   4.433  14.312   1.101
88867SOL    HW168498   4.451  14.356   1.184
88867SOL    HW268499   4.377  14.238   1.125
88868SOL     OW68500   8.696  10.591   9.939
88868SOL    HW168501   8.691  10.656   9.869
88868SOL    HW268502   8.760  10.626  10.000
88869SOL     OW68503   7.614   8.659  10.402
88869SOL    HW168504   7.600   8.632  10.312
88869SOL    HW268505   7.704   8.636  10.421
88870SOL     OW68506  10.412  13.250   9.873
88870SOL    HW168507  10.402  13.273   9.781
88870SOL    HW268508  10.326  13.218   9.900
88871SOL     OW68509   5.307   3.354  14.129
88871SOL    HW168510   5.232   3.309  14.090
88871SOL    HW268511   5.340   3.411  14.060
88872SOL     OW68512   2.616   8.118   5.274
88872SOL    HW168513   2.533   8.074   5.290
88872SOL    HW268514   2.592   8.206   5.245
88873SOL     OW68515   1.235  10.201  13.106
88873SOL    HW168516   1.221  10.173  13.016
88873SOL    HW268517   1.238  10.296  13.102
88874SOL     OW68518  11.040  13.224  14.165
88874SOL    HW168519  10.949  13.208  14.138
88874SOL    HW268520  11.047  13.319  14.173
88875SOL     OW68521   5.537  12.638   0.551
88875SOL    HW168522   5.576  12.674   0.471
88875SOL    HW268523   5.443  12.654   0.542
88876SOL     OW68524   9.046   1.899   6.553
88876SOL    HW168525   9.089   1.955   6.617
88876SOL    HW268526   9.015   1.958   6.484
88877SOL     OW68527   6.422  13.267  13.384
88877SOL    HW168528   6.511  13.267  13.419
88877SOL    HW268529   6.416  13.349  13.335
88878SOL     OW68530   4.162  12.803   1.034
88878SOL    HW168531   4.163  12.772   1.124
88878SOL    HW268532   4.082  12.855   1.027
88879SOL     OW68533   3.428   9.314  10.481
88879SOL    HW168534   3.502   9.295  10.539
88879SOL    HW268535   3.400   9.402  10.504
88880SOL     OW68536   7.914  13.028   2.597
88880SOL    HW168537   7.876  12.941   2.583
88880SOL    HW268538   7.966  13.044   2.519
88881SOL     OW68539   2.422   5.017   7.098
88881SOL    HW168540   2.505   5.040   7.055
88881SOL    HW268541   2.359   5.081   7.066
88882SOL     OW68542   0.657  13.489   6.782
88882SOL    HW168543   0.572  13.502   6.823
88882SOL    HW268544   0.719  13.530   6.842
88883SOL     OW68545   0.815   7.598  11.026
88883SOL    HW168546   0.864   7.582  11.107
88883SOL    HW268547   0.857   7.542  10.961
88884SOL     OW68548  14.379   5.126   7.262
88884SOL    HW168549  14.452   5.068   7.245
88884SOL    HW268550  14.366   5.122   7.357
88885SOL     OW68551   3.634   4.059   3.910
88885SOL    HW168552   3.622   3.980   3.856
88885SOL    HW268553   3.546   4.081   3.939
88886SOL     OW68554   2.842   5.784   4.468
88886SOL    HW168555   2.912   5.849   4.471
88886SOL    HW268556   2.862   5.725   4.540
88887SOL     OW68557   0.133   8.004   9.353
88887SOL    HW168558   0.058   8.060   9.374
88887SOL    HW268559   0.094   7.929   9.309
88888SOL     OW68560  14.226   4.685   1.954
88888SOL    HW168561  14.297   4.718   1.899
88888SOL    HW268562  14.230   4.737   2.034
88889SOL     OW68563  13.710  12.135   4.347
88889SOL    HW168564  13.673  12.048   4.331
88889SOL    HW268565  13.645  12.177   4.403
88890SOL     OW68566   4.698  11.037   3.941
88890SOL    HW168567   4.780  11.032   3.892
88890SOL    HW268568   4.715  10.986   4.021
88891SOL     OW68569  14.781   8.672   2.305
88891SOL    HW168570  14.872   8.654   2.284
88891SOL    HW268571  14.731   8.634   2.233
88892SOL     OW68572  13.901  10.475   5.244
88892SOL    HW168573  13.948  10.550   5.207
88892SOL    HW268574  13.968  10.407   5.253
88893SOL     OW68575  10.200  14.541  13.596
88893SOL    HW168576  10.212  14.448  13.579
88893SOL    HW268577  10.286  14.572  13.623
88894SOL     OW68578   1.420   3.761   8.981
88894SOL    HW168579   1.362   3.830   8.947
88894SOL    HW268580   1.435   3.784   9.072
88895SOL     OW68581   0.799   0.520   4.900
88895SOL    HW168582   0.722   0.477   4.863
88895SOL    HW268583   0.829   0.460   4.969
88896SOL     OW68584   1.881   7.003  12.145
88896SOL    HW168585   1.889   6.917  12.104
88896SOL    HW268586   1.934   7.061  12.090
88897SOL     OW68587   8.272   2.220   2.774
88897SOL    HW168588   8.268   2.196   2.681
88897SOL    HW268589   8.337   2.289   2.778
88898SOL     OW68590  13.485  13.315  10.475
88898SOL    HW168591  13.452  13.255  10.541
88898SOL    HW268592  13.520  13.389  10.525
88899SOL     OW68593   2.925   2.813   5.641
88899SOL    HW168594   2.881   2.750   5.583
88899SOL    HW268595   2.879   2.805   5.724
88900SOL     OW68596   4.030  10.468   3.627
88900SOL    HW168597   4.030  10.392   3.685
88900SOL    HW268598   3.939  10.476   3.599
88901SOL     OW68599   3.695   0.400   8.936
88901SOL    HW168600   3.608   0.361   8.942
88901SOL    HW268601   3.680   0.494   8.947
88902SOL     OW68602   1.143   4.873  10.301
88902SOL    HW168603   1.098   4.853  10.383
88902SOL    HW268604   1.153   4.788  10.257
88903SOL     OW68605   0.511   0.311   8.490
88903SOL    HW168606   0.466   0.365   8.424
88903SOL    HW268607   0.441   0.261   8.532
88904SOL     OW68608   7.775   1.789  14.215
88904SOL    HW168609   7.785   1.780  14.310
88904SOL    HW268610   7.835   1.859  14.191
88905SOL     OW68611   8.743   1.679   5.775
88905SOL    HW168612   8.749   1.694   5.681
88905SOL    HW268613   8.691   1.600   5.784
88906SOL     OW68614  11.470   4.862   3.187
88906SOL    HW168615  11.461   4.838   3.095
88906SOL    HW268616  11.454   4.957   3.189
88907SOL     OW68617   8.178   3.551   0.154
88907SOL    HW168618   8.254   3.500   0.124
88907SOL    HW268619   8.190   3.637   0.115
88908SOL     OW68620   2.359   4.196   9.172
88908SOL    HW168621   2.387   4.200   9.263
88908SOL    HW268622   2.364   4.103   9.149
88909SOL     OW68623   7.820   3.503   6.600
88909SOL    HW168624   7.754   3.557   6.557
88909SOL    HW268625   7.882   3.566   6.637
88910SOL     OW68626   3.380   1.876   9.024
88910SOL    HW168627   3.372   1.861   9.118
88910SOL    HW268628   3.308   1.937   9.004
88911SOL     OW68629   7.676   8.470  12.056
88911SOL    HW168630   7.616   8.448  12.127
88911SOL    HW268631   7.724   8.389  12.038
88912SOL     OW68632   5.803   2.292  13.393
88912SOL    HW168633   5.817   2.339  13.311
88912SOL    HW268634   5.708   2.282  13.398
88913SOL     OW68635   6.008   9.648   5.444
88913SOL    HW168636   6.092   9.695   5.445
88913SOL    HW268637   6.029   9.559   5.471
88914SOL     OW68638   8.996   7.162   5.269
88914SOL    HW168639   9.017   7.086   5.215
88914SOL    HW268640   9.060   7.228   5.244
88915SOL     OW68641   9.337  12.866  11.788
88915SOL    HW168642   9.248  12.849  11.755
88915SOL    HW268643   9.350  12.800  11.857
88916SOL     OW68644   5.415   6.610  12.830
88916SOL    HW168645   5.444   6.648  12.747
88916SOL    HW268646   5.465   6.528  12.837
88917SOL     OW68647   6.057   6.535   6.563
88917SOL    HW168648   5.999   6.476   6.612
88917SOL    HW268649   6.068   6.611   6.620
88918SOL     OW68650   5.307   3.183   6.989
88918SOL    HW168651   5.267   3.258   7.034
88918SOL    HW268652   5.366   3.145   7.053
88919SOL     OW68653   9.680   4.253  13.355
88919SOL    HW168654   9.691   4.244  13.449
88919SOL    HW268655   9.594   4.292  13.345
88920SOL     OW68656   6.604  10.430  10.644
88920SOL    HW168657   6.530  10.482  10.675
88920SOL    HW268658   6.565  10.363  10.587
88921SOL     OW68659  12.227   5.754   2.433
88921SOL    HW168660  12.133   5.748   2.452
88921SOL    HW268661  12.264   5.674   2.469
88922SOL     OW68662  12.099   8.734   4.925
88922SOL    HW168663  12.134   8.721   4.837
88922SOL    HW268664  12.161   8.793   4.967
88923SOL     OW68665  13.999   5.721  10.692
88923SOL    HW168666  14.070   5.658  10.704
88923SOL    HW268667  13.925   5.668  10.662
88924SOL     OW68668  10.935   1.583  13.099
88924SOL    HW168669  10.894   1.507  13.057
88924SOL    HW268670  10.886   1.595  13.180
88925SOL     OW68671   1.887  10.616   8.494
88925SOL    HW168672   1.847  10.664   8.421
88925SOL    HW268673   1.946  10.554   8.451
88926SOL     OW68674   9.982   6.970   6.787
88926SOL    HW168675   9.933   6.928   6.717
88926SOL    HW268676  10.074   6.958   6.763
88927SOL     OW68677   3.815   1.102  11.412
88927SOL    HW168678   3.762   1.177  11.439
88927SOL    HW268679   3.796   1.091  11.319
88928SOL     OW68680  12.052  12.653  10.947
88928SOL    HW168681  11.959  12.629  10.941
88928SOL    HW268682  12.055  12.719  11.015
88929SOL     OW68683   5.872   9.711   4.401
88929SOL    HW168684   5.913   9.651   4.340
88929SOL    HW268685   5.916   9.695   4.485
88930SOL     OW68686   3.993   9.159  10.410
88930SOL    HW168687   4.083   9.186  10.392
88930SOL    HW268688   4.001   9.068  10.440
88931SOL     OW68689   0.500  11.939   7.035
88931SOL    HW168690   0.504  11.941   7.131
88931SOL    HW268691   0.411  11.966   7.014
88932SOL     OW68692  11.038  14.678  10.762
88932SOL    HW168693  11.073  14.599  10.721
88932SOL    HW268694  10.983  14.646  10.834
88933SOL     OW68695   1.331   0.508  13.006
88933SOL    HW168696   1.382   0.465  12.937
88933SOL    HW268697   1.358   0.599  13.003
88934SOL     OW68698  10.996   8.822  13.949
88934SOL    HW168699  10.992   8.808  14.043
88934SOL    HW268700  11.065   8.888  13.938
88935SOL     OW68701  11.363  10.818  11.706
88935SOL    HW168702  11.434  10.755  11.719
88935SOL    HW268703  11.302  10.772  11.647
88936SOL     OW68704  12.615   9.484   7.781
88936SOL    HW168705  12.703   9.507   7.811
88936SOL    HW268706  12.557   9.516   7.850
88937SOL     OW68707  14.231   6.872  11.858
88937SOL    HW168708  14.296   6.825  11.806
88937SOL    HW268709  14.161   6.808  11.873
88938SOL     OW68710   1.419   2.399   7.291
88938SOL    HW168711   1.379   2.388   7.377
88938SOL    HW268712   1.439   2.310   7.263
88939SOL     OW68713   7.882  10.208   9.530
88939SOL    HW168714   7.925  10.191   9.614
88939SOL    HW268715   7.814  10.141   9.524
88940SOL     OW68716   2.381   7.989   2.877
88940SOL    HW168717   2.474   8.009   2.889
88940SOL    HW268718   2.348   7.974   2.966
88941SOL     OW68719  13.541   2.986   2.154
88941SOL    HW168720  13.598   3.038   2.098
88941SOL    HW268721  13.483   2.940   2.093
88942SOL     OW68722  10.027   8.167  11.013
88942SOL    HW168723  10.009   8.080  11.049
88942SOL    HW268724  10.044   8.222  11.089
88943SOL     OW68725  13.214   6.615  13.667
88943SOL    HW168726  13.168   6.559  13.605
88943SOL    HW268727  13.305   6.585  13.665
88944SOL     OW68728   0.129  14.197   4.430
88944SOL    HW168729   0.045  14.234   4.455
88944SOL    HW268730   0.184  14.207   4.507
88945SOL     OW68731  13.898   6.205  13.090
88945SOL    HW168732  13.903   6.121  13.136
88945SOL    HW268733  13.922   6.184  13.000
88946SOL     OW68734  11.412   8.017  13.749
88946SOL    HW168735  11.393   7.926  13.728
88946SOL    HW268736  11.384   8.066  13.671
88947SOL     OW68737   3.367   4.088   5.018
88947SOL    HW168738   3.461   4.070   5.013
88947SOL    HW268739   3.341   4.102   4.927
88948SOL     OW68740   0.013   0.227   5.135
88948SOL    HW168741   0.023   0.289   5.207
88948SOL    HW268742   0.062   0.150   5.164
88949SOL     OW68743   1.722   9.611   6.482
88949SOL    HW168744   1.714   9.516   6.474
88949SOL    HW268745   1.659   9.635   6.549
88950SOL     OW68746   7.389  13.393   6.347
88950SOL    HW168747   7.445  13.459   6.306
88950SOL    HW268748   7.399  13.316   6.292
88951SOL     OW68749   1.615  13.322   9.460
88951SOL    HW168750   1.578  13.321   9.549
88951SOL    HW268751   1.577  13.245   9.418
88952SOL     OW68752   4.065   3.684   2.118
88952SOL    HW168753   4.109   3.738   2.183
88952SOL    HW268754   4.111   3.700   2.036
88953SOL     OW68755  12.115  14.602   2.506
88953SOL    HW168756  12.147  14.512   2.500
88953SOL    HW268757  12.102  14.629   2.415
88954SOL     OW68758   7.565   9.437  10.752
88954SOL    HW168759   7.657   9.423  10.732
88954SOL    HW268760   7.548   9.378  10.826
88955SOL     OW68761   5.505   9.388   5.256
88955SOL    HW168762   5.453   9.449   5.204
88955SOL    HW268763   5.441   9.329   5.295
88956SOL     OW68764  12.714   6.254   7.810
88956SOL    HW168765  12.697   6.217   7.723
88956SOL    HW268766  12.686   6.186   7.871
88957SOL     OW68767   8.941   7.476  11.033
88957SOL    HW168768   8.857   7.437  11.056
88957SOL    HW268769   9.006   7.413  11.065
88958SOL     OW68770  12.810   0.479   5.425
88958SOL    HW168771  12.864   0.555   5.401
88958SOL    HW268772  12.870   0.405   5.423
88959SOL     OW68773   1.153   3.888  12.499
88959SOL    HW168774   1.069   3.867  12.460
88959SOL    HW268775   1.146   3.857  12.589
88960SOL     OW68776   1.489  10.682  12.202
88960SOL    HW168777   1.582  10.689  12.222
88960SOL    HW268778   1.487  10.653  12.110
88961SOL     OW68779  14.117   9.321  14.668
88961SOL    HW168780  14.091   9.238  14.627
88961SOL    HW268781  14.137   9.379  14.595
88962SOL     OW68782   3.532   8.166   2.772
88962SOL    HW168783   3.579   8.087   2.801
88962SOL    HW268784   3.575   8.190   2.690
88963SOL     OW68785   2.428   3.280  10.801
88963SOL    HW168786   2.511   3.234  10.812
88963SOL    HW268787   2.419   3.292  10.707
88964SOL     OW68788   5.068  10.119   8.057
88964SOL    HW168789   5.132  10.083   7.996
88964SOL    HW268790   5.026  10.043   8.096
88965SOL     OW68791   3.668   1.341   4.657
88965SOL    HW168792   3.595   1.352   4.597
88965SOL    HW268793   3.657   1.410   4.722
88966SOL     OW68794   9.084   1.546   0.601
88966SOL    HW168795   9.075   1.596   0.520
88966SOL    HW268796   9.072   1.455   0.574
88967SOL     OW68797   9.084   7.842  10.248
88967SOL    HW168798   9.009   7.796  10.285
88967SOL    HW268799   9.048   7.888  10.171
88968SOL     OW68800   9.730   4.836  14.498
88968SOL    HW168801   9.699   4.889  14.424
88968SOL    HW268802   9.794   4.892  14.542
88969SOL     OW68803   8.534   6.053  14.702
88969SOL    HW168804   8.517   6.110  14.627
88969SOL    HW268805   8.578   6.109  14.765
88970SOL     OW68806   9.369  13.042  13.058
88970SOL    HW168807   9.307  13.091  13.004
88970SOL    HW268808   9.443  13.025  12.999
88971SOL     OW68809   6.100   4.558   7.209
88971SOL    HW168810   6.157   4.619   7.161
88971SOL    HW268811   6.160   4.510   7.266
88972SOL     OW68812   5.369  10.334  11.634
88972SOL    HW168813   5.332  10.282  11.705
88972SOL    HW268814   5.331  10.422  11.647
88973SOL     OW68815   6.546   1.650   3.218
88973SOL    HW168816   6.576   1.667   3.308
88973SOL    HW268817   6.623   1.612   3.175
88974SOL     OW68818   5.673   9.508   2.817
88974SOL    HW168819   5.633   9.590   2.847
88974SOL    HW268820   5.766   9.528   2.810
88975SOL     OW68821   8.972   8.140   4.560
88975SOL    HW168822   8.929   8.222   4.588
88975SOL    HW268823   9.025   8.166   4.484
88976SOL     OW68824  14.592   2.342  10.967
88976SOL    HW168825  14.611   2.367  10.877
88976SOL    HW268826  14.619   2.250  10.972
88977SOL     OW68827  12.547  14.402   3.492
88977SOL    HW168828  12.536  14.366   3.404
88977SOL    HW268829  12.628  14.451   3.487
88978SOL     OW68830  11.597  10.440   4.342
88978SOL    HW168831  11.576  10.349   4.320
88978SOL    HW268832  11.549  10.457   4.422
88979SOL     OW68833  12.365  13.851   1.074
88979SOL    HW168834  12.297  13.787   1.051
88979SOL    HW268835  12.397  13.822   1.159
88980SOL     OW68836  11.528  10.103   6.724
88980SOL    HW168837  11.455  10.149   6.683
88980SOL    HW268838  11.544  10.152   6.805
88981SOL     OW68839  10.623  12.857   6.940
88981SOL    HW168840  10.675  12.802   6.999
88981SOL    HW268841  10.662  12.944   6.947
88982SOL     OW68842   3.906   3.496   4.851
88982SOL    HW168843   3.842   3.441   4.895
88982SOL    HW268844   3.978   3.503   4.914
88983SOL     OW68845   9.375  11.271   7.167
88983SOL    HW168846   9.343  11.203   7.227
88983SOL    HW268847   9.433  11.224   7.106
88984SOL     OW68848  10.757   8.319   7.790
88984SOL    HW168849  10.690   8.263   7.828
88984SOL    HW268850  10.740   8.406   7.826
88985SOL     OW68851   4.486  10.030   7.394
88985SOL    HW168852   4.513  10.042   7.485
88985SOL    HW268853   4.393  10.051   7.393
88986SOL     OW68854   6.848   2.625   6.133
88986SOL    HW168855   6.868   2.599   6.043
88986SOL    HW268856   6.931   2.654   6.170
88987SOL     OW68857   5.328   8.116  10.833
88987SOL    HW168858   5.380   8.042  10.866
88987SOL    HW268859   5.237   8.090  10.848
88988SOL     OW68860   3.128   3.994  11.075
88988SOL    HW168861   3.178   4.075  11.076
88988SOL    HW268862   3.192   3.927  11.099
88989SOL     OW68863  13.746  13.679   2.522
88989SOL    HW168864  13.806  13.610   2.548
88989SOL    HW268865  13.737  13.733   2.601
88990SOL     OW68866  10.629  10.038   3.953
88990SOL    HW168867  10.719  10.067   3.968
88990SOL    HW268868  10.633   9.986   3.873
88991SOL     OW68869   6.678  13.824  12.590
88991SOL    HW168870   6.586  13.826  12.561
88991SOL    HW268871   6.676  13.857  12.679
88992SOL     OW68872   1.930   1.835   3.227
88992SOL    HW168873   1.877   1.757   3.241
88992SOL    HW268874   1.915   1.890   3.304
88993SOL     OW68875  12.239   5.230   6.005
88993SOL    HW168876  12.329   5.229   5.973
88993SOL    HW268877  12.186   5.207   5.928
88994SOL     OW68878  14.552   1.018   0.589
88994SOL    HW168879  14.482   1.063   0.542
88994SOL    HW268880  14.621   1.007   0.524
88995SOL     OW68881  13.634   2.833  10.981
88995SOL    HW168882  13.638   2.908  11.041
88995SOL    HW268883  13.720   2.792  10.988
88996SOL     OW68884  11.743   3.910   0.748
88996SOL    HW168885  11.690   3.912   0.827
88996SOL    HW268886  11.743   4.001   0.717
88997SOL     OW68887   3.835   7.605   8.665
88997SOL    HW168888   3.843   7.699   8.649
88997SOL    HW268889   3.894   7.588   8.739
88998SOL     OW68890   1.295  14.434  11.462
88998SOL    HW168891   1.344  14.361  11.424
88998SOL    HW268892   1.299  14.502  11.395
88999SOL     OW68893   8.892  14.274   2.883
88999SOL    HW168894   8.851  14.343   2.934
88999SOL    HW268895   8.819  14.226   2.843
89000SOL     OW68896   8.263  14.554   8.899
89000SOL    HW168897   8.186  14.537   8.845
89000SOL    HW268898   8.274  14.474   8.950
89001SOL     OW68899   7.953   9.522  11.587
89001SOL    HW168900   8.039   9.560  11.568
89001SOL    HW268901   7.933   9.469  11.510
89002SOL     OW68902   5.872  13.833   5.889
89002SOL    HW168903   5.937  13.819   5.820
89002SOL    HW268904   5.919  13.816   5.970
89003SOL     OW68905   8.021  12.094   2.877
89003SOL    HW168906   8.030  12.077   2.971
89003SOL    HW268907   8.099  12.145   2.854
89004SOL     OW68908   8.234   2.571   4.275
89004SOL    HW168909   8.189   2.496   4.313
89004SOL    HW268910   8.316   2.534   4.240
89005SOL     OW68911  12.421   6.350   9.000
89005SOL    HW168912  12.429   6.268   9.049
89005SOL    HW268913  12.480   6.411   9.045
89006SOL     OW68914   4.313   2.365   3.768
89006SOL    HW168915   4.226   2.394   3.741
89006SOL    HW268916   4.327   2.408   3.853
89007SOL     OW68917   1.191  10.454  12.991
89007SOL    HW168918   1.109  10.497  12.968
89007SOL    HW268919   1.254  10.525  13.002
89008SOL     OW68920   7.279   2.393   6.588
89008SOL    HW168921   7.324   2.474   6.561
89008SOL    HW268922   7.269   2.401   6.683
89009SOL     OW68923   9.638   2.744  14.852
89009SOL    HW168924   9.565   2.697  14.811
89009SOL    HW268925   9.699   2.675   0.000
89010SOL     OW68926   3.358   6.683   2.253
89010SOL    HW168927   3.427   6.712   2.193
89010SOL    HW268928   3.302   6.626   2.200
89011SOL     OW68929   3.044  10.564   7.457
89011SOL    HW168930   2.956  10.599   7.474
89011SOL    HW268931   3.061  10.505   7.530
89012SOL     OW68932  14.043  13.227  12.408
89012SOL    HW168933  13.957  13.186  12.400
89012SOL    HW268934  14.080  13.223  12.319
89013SOL     OW68935   3.288  12.237  10.936
89013SOL    HW168936   3.303  12.151  10.898
89013SOL    HW268937   3.261  12.292  10.862
89014SOL     OW68938   1.500   1.253  13.146
89014SOL    HW168939   1.507   1.309  13.068
89014SOL    HW268940   1.419   1.282  13.188
89015SOL     OW68941  10.113   3.108   5.167
89015SOL    HW168942  10.200   3.138   5.142
89015SOL    HW268943  10.097   3.031   5.113
89016SOL     OW68944  13.896   8.326   6.923
89016SOL    HW168945  13.970   8.354   6.870
89016SOL    HW268946  13.822   8.323   6.862
89017SOL     OW68947  11.057  11.560   5.878
89017SOL    HW168948  11.099  11.510   5.808
89017SOL    HW268949  11.003  11.496   5.924
89018SOL     OW68950   2.053   1.037   4.612
89018SOL    HW168951   2.063   0.944   4.596
89018SOL    HW268952   2.142   1.072   4.610
89019SOL     OW68953   2.033   2.873   4.673
89019SOL    HW168954   2.044   2.930   4.598
89019SOL    HW268955   1.953   2.824   4.655
89020SOL     OW68956   0.723   8.111   9.762
89020SOL    HW168957   0.684   8.159   9.690
89020SOL    HW268958   0.668   8.033   9.772
89021SOL     OW68959   5.833  12.737   1.161
89021SOL    HW168960   5.865  12.651   1.134
89021SOL    HW268961   5.873  12.798   1.099
89022SOL     OW68962   8.302  10.765   4.609
89022SOL    HW168963   8.362  10.696   4.639
89022SOL    HW268964   8.323  10.776   4.516
89023SOL     OW68965   4.836   3.440   1.884
89023SOL    HW168966   4.869   3.529   1.892
89023SOL    HW268967   4.741   3.449   1.883
89024SOL     OW68968  13.998   0.134   9.785
89024SOL    HW168969  13.977   0.143   9.692
89024SOL    HW268970  14.034   0.219   9.810
89025SOL     OW68971   9.658   4.930   0.575
89025SOL    HW168972   9.595   4.865   0.608
89025SOL    HW268973   9.727   4.931   0.641
89026SOL     OW68974   5.007  10.412   6.362
89026SOL    HW168975   5.075  10.364   6.410
89026SOL    HW268976   5.046  10.431   6.277
89027SOL     OW68977   1.092   6.058  10.889
89027SOL    HW168978   1.170   6.081  10.838
89027SOL    HW268979   1.038   6.007  10.829
89028SOL     OW68980   4.228   1.174   2.907
89028SOL    HW168981   4.290   1.232   2.950
89028SOL    HW268982   4.178   1.135   2.979
89029SOL     OW68983  14.722  11.128   6.631
89029SOL    HW168984  14.757  11.045   6.599
89029SOL    HW268985  14.676  11.106   6.712
89030SOL     OW68986  11.160   6.616   7.877
89030SOL    HW168987  11.091   6.683   7.878
89030SOL    HW268988  11.156   6.578   7.790
89031SOL     OW68989  11.265   3.817   8.743
89031SOL    HW168990  11.285   3.857   8.658
89031SOL    HW268991  11.268   3.723   8.726
89032SOL     OW68992   0.948   6.090   5.159
89032SOL    HW168993   0.922   6.054   5.074
89032SOL    HW268994   0.992   6.016   5.203
89033SOL     OW68995   7.915   6.965  14.074
89033SOL    HW168996   7.954   7.041  14.118
89033SOL    HW268997   7.956   6.964  13.987
89034SOL     OW68998   6.553  14.724   9.110
89034SOL    HW168999   6.568  14.632   9.132
89034SOL    HW269000   6.620  14.771   9.159
89035SOL     OW69001   7.418   3.472  14.074
89035SOL    HW169002   7.350   3.455  14.009
89035SOL    HW269003   7.381   3.540  14.130
89036SOL     OW69004   5.818  10.247   8.911
89036SOL    HW169005   5.905  10.245   8.872
89036SOL    HW269006   5.824  10.314   8.980
89037SOL     OW69007   2.131   1.108   1.136
89037SOL    HW169008   2.126   1.169   1.062
89037SOL    HW269009   2.212   1.133   1.181
89038SOL     OW69010  13.284   9.600   2.815
89038SOL    HW169011  13.355   9.536   2.813
89038SOL    HW269012  13.227   9.572   2.886
89039SOL     OW69013  11.405   6.691  13.578
89039SOL    HW169014  11.358   6.760  13.623
89039SOL    HW269015  11.497   6.708  13.596
89040SOL     OW69016  11.981   2.978   9.429
89040SOL    HW169017  11.998   2.913   9.361
89040SOL    HW269018  11.975   3.061   9.382
89041SOL     OW69019   2.199   3.889  13.385
89041SOL    HW169020   2.175   3.940  13.463
89041SOL    HW269021   2.291   3.912  13.369
89042SOL     OW69022   8.610   2.052  14.308
89042SOL    HW169023   8.535   2.014  14.262
89042SOL    HW269024   8.680   1.988  14.298
89043SOL     OW69025   2.264   8.507  10.375
89043SOL    HW169026   2.330   8.536  10.312
89043SOL    HW269027   2.213   8.586  10.394
89044SOL     OW69028   8.731   2.935  13.348
89044SOL    HW169029   8.797   2.871  13.323
89044SOL    HW269030   8.736   3.002  13.280
89045SOL     OW69031  12.610  11.826   6.096
89045SOL    HW169032  12.540  11.878   6.056
89045SOL    HW269033  12.625  11.754   6.034
89046SOL     OW69034   3.425   0.373  11.371
89046SOL    HW169035   3.405   0.446  11.430
89046SOL    HW269036   3.489   0.320  11.418
89047SOL     OW69037   8.602   3.023   4.046
89047SOL    HW169038   8.697   3.030   4.043
89047SOL    HW269039   8.577   3.065   4.129
89048SOL     OW69040  14.619   5.753  10.054
89048SOL    HW169041  14.672   5.722  10.128
89048SOL    HW269042  14.658   5.837  10.030
89049SOL     OW69043   2.478   2.346  10.061
89049SOL    HW169044   2.427   2.419  10.025
89049SOL    HW269045   2.442   2.335  10.150
89050SOL     OW69046   8.473  11.024  14.069
89050SOL    HW169047   8.458  11.087  14.139
89050SOL    HW269048   8.526  11.071  14.005
89051SOL     OW69049   0.887  11.544   4.070
89051SOL    HW169050   0.851  11.590   4.146
89051SOL    HW269051   0.955  11.488   4.105
89052SOL     OW69052   0.688  10.992   8.975
89052SOL    HW169053   0.741  11.072   8.987
89052SOL    HW269054   0.702  10.943   9.056
89053SOL     OW69055  10.789   6.531  12.116
89053SOL    HW169056  10.754   6.620  12.111
89053SOL    HW269057  10.755   6.497  12.199
89054SOL     OW69058  12.847  11.737  12.261
89054SOL    HW169059  12.839  11.706  12.171
89054SOL    HW269060  12.912  11.808  12.257
89055SOL     OW69061   5.793  12.587   5.305
89055SOL    HW169062   5.806  12.509   5.252
89055SOL    HW269063   5.762  12.554   5.389
89056SOL     OW69064   0.297  13.808  14.476
89056SOL    HW169065   0.206  13.829  14.456
89056SOL    HW269066   0.299  13.795  14.571
89057SOL     OW69067  14.069   6.950   9.579
89057SOL    HW169068  13.993   6.927   9.632
89057SOL    HW269069  14.066   6.889   9.505
89058SOL     OW69070  11.179  10.450   4.643
89058SOL    HW169071  11.102  10.442   4.699
89058SOL    HW269072  11.197  10.544   4.639
89059SOL     OW69073   8.429  14.337   0.871
89059SOL    HW169074   8.370  14.331   0.945
89059SOL    HW269075   8.406  14.263   0.815
89060SOL     OW69076   5.050  12.969  13.791
89060SOL    HW169077   4.973  12.949  13.738
89060SOL    HW269078   5.018  13.026  13.860
89061SOL     OW69079   1.680   4.292   2.624
89061SOL    HW169080   1.631   4.214   2.598
89061SOL    HW269081   1.634   4.324   2.701
89062SOL     OW69082  14.340  14.684  10.467
89062SOL    HW169083  14.287  14.703  10.545
89062SOL    HW269084  14.378  14.598  10.485
89063SOL     OW69085   4.367  12.204   1.221
89063SOL    HW169086   4.316  12.276   1.185
89063SOL    HW269087   4.324  12.125   1.191
89064SOL     OW69088   2.683   6.116   9.167
89064SOL    HW169089   2.778   6.121   9.152
89064SOL    HW269090   2.671   6.151   9.255
89065SOL     OW69091   1.487  10.916   0.308
89065SOL    HW169092   1.501  10.833   0.354
89065SOL    HW269093   1.398  10.942   0.334
89066SOL     OW69094  11.097  12.546   4.757
89066SOL    HW169095  11.118  12.606   4.828
89066SOL    HW269096  11.155  12.471   4.771
89067SOL     OW69097  10.853   8.868   4.868
89067SOL    HW169098  10.947   8.880   4.858
89067SOL    HW269099  10.828   8.929   4.938
89068SOL     OW69100   1.330  12.958   1.794
89068SOL    HW169101   1.367  13.010   1.723
89068SOL    HW269102   1.246  12.999   1.813
89069SOL     OW69103   3.674  10.153   4.673
89069SOL    HW169104   3.735  10.083   4.698
89069SOL    HW269105   3.729  10.230   4.660
89070SOL     OW69106   5.320  10.114   1.878
89070SOL    HW169107   5.242  10.107   1.931
89070SOL    HW269108   5.290  10.154   1.796
89071SOL     OW69109   8.529   5.604   4.124
89071SOL    HW169110   8.443   5.566   4.105
89071SOL    HW269111   8.550   5.656   4.047
89072SOL     OW69112   6.250   4.080  14.796
89072SOL    HW169113   6.181   4.142  14.816
89072SOL    HW269114   6.231   4.003  14.850
89073SOL     OW69115  14.427  13.123  13.382
89073SOL    HW169116  14.494  13.061  13.353
89073SOL    HW269117  14.381  13.077  13.453
89074SOL     OW69118   1.677   3.347   6.113
89074SOL    HW169119   1.760   3.395   6.110
89074SOL    HW269120   1.696   3.265   6.067
89075SOL     OW69121  10.588   6.525  14.341
89075SOL    HW169122  10.621   6.535  14.252
89075SOL    HW269123  10.511   6.468  14.332
89076SOL     OW69124  14.467   7.357   9.857
89076SOL    HW169125  14.421   7.437   9.883
89076SOL    HW269126  14.435   7.339   9.769
89077SOL     OW69127   0.798   5.913   5.428
89077SOL    HW169128   0.871   5.912   5.489
89077SOL    HW269129   0.817   5.841   5.367
89078SOL     OW69130   2.423   8.584   3.625
89078SOL    HW169131   2.335   8.622   3.622
89078SOL    HW269132   2.481   8.656   3.600
89079SOL     OW69133  12.112  10.625  11.951
89079SOL    HW169134  12.053  10.643  12.025
89079SOL    HW269135  12.056  10.587  11.884
89080SOL     OW69136   3.898   5.106  11.067
89080SOL    HW169137   3.828   5.083  11.128
89080SOL    HW269138   3.952   5.027  11.061
89081SOL     OW69139   9.182   6.287  12.970
89081SOL    HW169140   9.093   6.287  12.935
89081SOL    HW269141   9.172   6.261  13.062
89082SOL     OW69142   3.610  14.212  14.368
89082SOL    HW169143   3.676  14.159  14.321
89082SOL    HW269144   3.659  14.255  14.437
89083SOL     OW69145  12.100  14.435  14.195
89083SOL    HW169146  12.102  14.489  14.116
89083SOL    HW269147  12.126  14.348  14.165
89084SOL     OW69148   6.235  13.304   7.756
89084SOL    HW169149   6.243  13.243   7.682
89084SOL    HW269150   6.156  13.275   7.803
89085SOL     OW69151  14.258   4.598   4.438
89085SOL    HW169152  14.182   4.541   4.427
89085SOL    HW269153  14.238   4.652   4.514
89086SOL     OW69154  12.797  13.650   4.042
89086SOL    HW169155  12.800  13.567   3.994
89086SOL    HW269156  12.806  13.625   4.134
89087SOL     OW69157  12.119  13.154   8.711
89087SOL    HW169158  12.195  13.182   8.660
89087SOL    HW269159  12.155  13.129   8.796
89088SOL     OW69160  14.323   5.393   1.830
89088SOL    HW169161  14.336   5.487   1.823
89088SOL    HW269162  14.230   5.380   1.809
89089SOL     OW69163   1.027   2.594   7.261
89089SOL    HW169164   1.003   2.651   7.333
89089SOL    HW269165   1.099   2.639   7.217
89090SOL     OW69166   6.859   7.886   8.245
89090SOL    HW169167   6.842   7.946   8.318
89090SOL    HW269168   6.809   7.808   8.267
89091SOL     OW69169   2.342   2.673   2.047
89091SOL    HW169170   2.375   2.696   2.134
89091SOL    HW269171   2.353   2.753   1.996
89092SOL     OW69172   3.115  11.403  13.052
89092SOL    HW169173   3.180  11.471  13.030
89092SOL    HW269174   3.035  11.431  13.009
89093SOL     OW69175  12.742   4.807   8.779
89093SOL    HW169176  12.663   4.754   8.786
89093SOL    HW269177  12.775   4.814   8.869
89094SOL     OW69178   1.103  10.823   6.825
89094SOL    HW169179   1.008  10.812   6.821
89094SOL    HW269180   1.130  10.839   6.735
89095SOL     OW69181   0.824   6.915   2.790
89095SOL    HW169182   0.855   7.005   2.803
89095SOL    HW269183   0.741   6.925   2.743
89096SOL     OW69184   3.900   3.674   5.771
89096SOL    HW169185   3.838   3.626   5.825
89096SOL    HW269186   3.918   3.754   5.819
89097SOL     OW69187   6.674   1.356   6.150
89097SOL    HW169188   6.605   1.309   6.102
89097SOL    HW269189   6.743   1.291   6.161
89098SOL     OW69190  14.379   6.616   0.649
89098SOL    HW169191  14.371   6.545   0.713
89098SOL    HW269192  14.453   6.668   0.680
89099SOL     OW69193  11.636   1.141   8.266
89099SOL    HW169194  11.627   1.219   8.320
89099SOL    HW269195  11.622   1.171   8.176
89100SOL     OW69196   8.641   4.939   8.992
89100SOL    HW169197   8.588   4.890   9.055
89100SOL    HW269198   8.731   4.917   9.013
89101SOL     OW69199   3.410   0.123  13.580
89101SOL    HW169200   3.415   0.027  13.580
89101SOL    HW269201   3.454   0.149  13.661
89102SOL     OW69202  10.398   0.399   5.301
89102SOL    HW169203  10.436   0.325   5.254
89102SOL    HW269204  10.303   0.388   5.288
89103SOL     OW69205  12.285  13.976   5.919
89103SOL    HW169206  12.377  13.962   5.941
89103SOL    HW269207  12.241  13.897   5.950
89104SOL     OW69208   7.386   0.052   2.529
89104SOL    HW169209   7.402   0.065   2.623
89104SOL    HW269210   7.295   0.082   2.517
89105SOL     OW69211   1.652   2.266  10.935
89105SOL    HW169212   1.615   2.192  10.985
89105SOL    HW269213   1.700   2.317  11.000
89106SOL     OW69214   7.237  12.154  10.326
89106SOL    HW169215   7.255  12.248  10.329
89106SOL    HW269216   7.267  12.126  10.240
89107SOL     OW69217  14.814  11.693   1.668
89107SOL    HW169218   0.031  11.697   1.659
89107SOL    HW269219  14.798  11.685   1.762
89108SOL     OW69220   6.567   2.587  10.383
89108SOL    HW169221   6.619   2.556  10.309
89108SOL    HW269222   6.579   2.520  10.451
89109SOL     OW69223   5.693   3.776  10.455
89109SOL    HW169224   5.720   3.779  10.363
89109SOL    HW269225   5.769   3.744  10.502
89110SOL     OW69226   3.283   8.115   2.880
89110SOL    HW169227   3.364   8.146   2.840
89110SOL    HW269228   3.291   8.019   2.880
89111SOL     OW69229   0.218  13.224  12.873
89111SOL    HW169230   0.292  13.215  12.812
89111SOL    HW269231   0.163  13.292  12.834
89112SOL     OW69232  12.324   9.536   7.381
89112SOL    HW169233  12.253   9.485   7.343
89112SOL    HW269234  12.305   9.537   7.475
89113SOL     OW69235   0.886  14.415   2.794
89113SOL    HW169236   0.848  14.372   2.718
89113SOL    HW269237   0.831  14.492   2.807
89114SOL     OW69238  11.863   5.687  13.717
89114SOL    HW169239  11.823   5.732  13.792
89114SOL    HW269240  11.831   5.597  13.725
89115SOL     OW69241  13.471   7.993   5.211
89115SOL    HW169242  13.448   8.068   5.266
89115SOL    HW269243  13.426   7.919   5.251
89116SOL     OW69244   5.265   6.083   8.879
89116SOL    HW169245   5.283   6.042   8.794
89116SOL    HW269246   5.169   6.082   8.887
89117SOL     OW69247   9.441  11.672   2.499
89117SOL    HW169248   9.473  11.665   2.409
89117SOL    HW269249   9.449  11.583   2.534
89118SOL     OW69250  10.714   5.067  12.261
89118SOL    HW169251  10.657   5.047  12.335
89118SOL    HW269252  10.656   5.104  12.195
89119SOL     OW69253   1.392  13.157   5.433
89119SOL    HW169254   1.377  13.098   5.359
89119SOL    HW269255   1.444  13.229   5.397
89120SOL     OW69256   6.959   8.562   1.286
89120SOL    HW169257   6.875   8.559   1.241
89120SOL    HW269258   6.937   8.571   1.379
89121SOL     OW69259   0.656  12.145   5.476
89121SOL    HW169260   0.665  12.102   5.391
89121SOL    HW269261   0.660  12.238   5.456
89122SOL     OW69262  13.680  12.340   8.053
89122SOL    HW169263  13.744  12.272   8.034
89122SOL    HW269264  13.672  12.339   8.148
89123SOL     OW69265   5.800   2.281   6.391
89123SOL    HW169266   5.857   2.215   6.431
89123SOL    HW269267   5.719   2.276   6.441
89124SOL     OW69268   6.636   9.001   9.712
89124SOL    HW169269   6.545   9.030   9.703
89124SOL    HW269270   6.629   8.909   9.736
89125SOL     OW69271   1.918  12.119  12.021
89125SOL    HW169272   1.918  12.080  12.109
89125SOL    HW269273   1.895  12.211  12.036
89126SOL     OW69274  12.871   0.580   3.397
89126SOL    HW169275  12.783   0.604   3.369
89126SOL    HW269276  12.884   0.626   3.480
89127SOL     OW69277   3.002  11.406   5.590
89127SOL    HW169278   3.027  11.475   5.651
89127SOL    HW269279   3.081  11.354   5.577
89128SOL     OW69280   1.641   2.266  11.368
89128SOL    HW169281   1.578   2.260  11.440
89128SOL    HW269282   1.686   2.182  11.369
89129SOL     OW69283   6.100  11.632  12.770
89129SOL    HW169284   6.173  11.676  12.727
89129SOL    HW269285   6.023  11.681  12.741
89130SOL     OW69286  11.803   8.467   5.661
89130SOL    HW169287  11.775   8.377   5.650
89130SOL    HW269288  11.857   8.485   5.584
89131SOL     OW69289  13.112   0.147   4.594
89131SOL    HW169290  13.096   0.108   4.680
89131SOL    HW269291  13.082   0.238   4.603
89132SOL     OW69292   1.110  12.916   3.302
89132SOL    HW169293   1.204  12.934   3.300
89132SOL    HW269294   1.104  12.824   3.328
89133SOL     OW69295  12.827   6.675  14.176
89133SOL    HW169296  12.795   6.602  14.122
89133SOL    HW269297  12.922   6.664  14.176
89134SOL     OW69298  14.845   4.716   8.005
89134SOL    HW169299   0.026   4.789   8.025
89134SOL    HW269300   0.025   4.649   7.965
89135SOL     OW69301  13.450  12.069  13.326
89135SOL    HW169302  13.456  12.124  13.248
89135SOL    HW269303  13.396  11.995  13.299
89136SOL     OW69304   3.832   2.726  13.692
89136SOL    HW169305   3.796   2.688  13.772
89136SOL    HW269306   3.771   2.699  13.623
89137SOL     OW69307   4.334   1.366   9.840
89137SOL    HW169308   4.308   1.286   9.795
89137SOL    HW269309   4.384   1.416   9.775
89138SOL     OW69310  13.205   7.842   0.184
89138SOL    HW169311  13.293   7.806   0.173
89138SOL    HW269312  13.186   7.831   0.277
89139SOL     OW69313  11.055  13.484  12.436
89139SOL    HW169314  10.971  13.528  12.449
89139SOL    HW269315  11.120  13.547  12.466
89140SOL     OW69316  13.789  12.939  14.598
89140SOL    HW169317  13.788  12.992  14.518
89140SOL    HW269318  13.868  12.968  14.645
89141SOL     OW69319  13.193   0.512   6.820
89141SOL    HW169320  13.225   0.595   6.855
89141SOL    HW269321  13.237   0.504   6.735
89142SOL     OW69322   6.734  13.290   0.527
89142SOL    HW169323   6.647  13.293   0.487
89142SOL    HW269324   6.785  13.355   0.479
89143SOL     OW69325   9.565   4.983  14.297
89143SOL    HW169326   9.476   4.948  14.294
89143SOL    HW269327   9.582   5.013  14.208
89144SOL     OW69328   8.920  10.194   5.839
89144SOL    HW169329   8.948  10.118   5.890
89144SOL    HW269330   8.908  10.263   5.904
89145SOL     OW69331  11.454   3.143   5.324
89145SOL    HW169332  11.490   3.135   5.236
89145SOL    HW269333  11.439   3.237   5.336
89146SOL     OW69334   0.669   8.044   7.756
89146SOL    HW169335   0.743   8.016   7.701
89146SOL    HW269336   0.618   7.964   7.770
89147SOL     OW69337   4.844   7.723   9.679
89147SOL    HW169338   4.760   7.728   9.723
89147SOL    HW269339   4.870   7.631   9.687
89148SOL     OW69340  14.596   4.199  11.233
89148SOL    HW169341  14.552   4.206  11.318
89148SOL    HW269342  14.622   4.289  11.212
89149SOL     OW69343  10.585   0.963   1.785
89149SOL    HW169344  10.537   1.043   1.805
89149SOL    HW269345  10.677   0.992   1.782
89150SOL     OW69346   6.435   2.872   5.386
89150SOL    HW169347   6.426   2.894   5.478
89150SOL    HW269348   6.519   2.909   5.360
89151SOL     OW69349  14.350  12.130   8.792
89151SOL    HW169350  14.289  12.201   8.816
89151SOL    HW269351  14.307  12.085   8.720
89152SOL     OW69352   7.259  12.272   8.956
89152SOL    HW169353   7.210  12.353   8.936
89152SOL    HW269354   7.307  12.293   9.036
89153SOL     OW69355   1.696   7.063   9.950
89153SOL    HW169356   1.648   7.021   9.879
89153SOL    HW269357   1.788   7.061   9.921
89154SOL     OW69358  12.759   2.653   6.496
89154SOL    HW169359  12.822   2.711   6.539
89154SOL    HW269360  12.716   2.708   6.431
89155SOL     OW69361   7.505   8.116   1.439
89155SOL    HW169362   7.592   8.152   1.424
89155SOL    HW269363   7.475   8.088   1.353
89156SOL     OW69364   2.541  13.040  13.952
89156SOL    HW169365   2.457  13.085  13.947
89156SOL    HW269366   2.605  13.110  13.960
89157SOL     OW69367   4.972   8.477   9.057
89157SOL    HW169368   4.894   8.510   9.013
89157SOL    HW269369   5.026   8.555   9.070
89158SOL     OW69370  12.355   8.716  13.665
89158SOL    HW169371  12.406   8.769  13.727
89158SOL    HW269372  12.417   8.649  13.635
89159SOL     OW69373   1.776   3.205   7.715
89159SOL    HW169374   1.765   3.122   7.669
89159SOL    HW269375   1.840   3.253   7.663
89160SOL     OW69376   7.300   2.472   6.141
89160SOL    HW169377   7.285   2.534   6.069
89160SOL    HW269378   7.389   2.491   6.171
89161SOL     OW69379   2.995   2.901  13.461
89161SOL    HW169380   2.996   2.862  13.374
89161SOL    HW269381   3.088   2.911  13.484
89162SOL     OW69382  11.288   7.038  11.091
89162SOL    HW169383  11.274   7.120  11.046
89162SOL    HW269384  11.226   7.039  11.164
89163SOL     OW69385  13.993  10.591   1.650
89163SOL    HW169386  14.052  10.662   1.676
89163SOL    HW269387  13.920  10.597   1.712
89164SOL     OW69388   3.486   7.169   6.746
89164SOL    HW169389   3.464   7.259   6.769
89164SOL    HW269390   3.563   7.176   6.690
89165SOL     OW69391  11.158   3.329   8.391
89165SOL    HW169392  11.120   3.322   8.479
89165SOL    HW269393  11.109   3.267   8.338
89166SOL     OW69394   0.331  12.462   9.361
89166SOL    HW169395   0.354  12.371   9.379
89166SOL    HW269396   0.290  12.493   9.441
89167SOL     OW69397  13.397  10.172   0.860
89167SOL    HW169398  13.315  10.191   0.906
89167SOL    HW269399  13.399  10.076   0.854
89168SOL     OW69400   9.943   8.564   9.714
89168SOL    HW169401   9.915   8.486   9.762
89168SOL    HW269402   9.896   8.559   9.631
89169SOL     OW69403  13.044   7.466   0.918
89169SOL    HW169404  13.052   7.535   0.852
89169SOL    HW269405  13.133   7.434   0.930
89170SOL     OW69406   1.820  11.643   3.037
89170SOL    HW169407   1.817  11.588   3.115
89170SOL    HW269408   1.794  11.730   3.067
89171SOL     OW69409   2.712   4.203   3.558
89171SOL    HW169410   2.657   4.210   3.637
89171SOL    HW269411   2.801   4.195   3.592
89172SOL     OW69412   9.541   2.669   0.402
89172SOL    HW169413   9.511   2.717   0.325
89172SOL    HW269414   9.634   2.654   0.386
89173SOL     OW69415  14.652   0.022  13.389
89173SOL    HW169416  14.609   0.062  13.465
89173SOL    HW269417  14.592  14.830  13.361
89174SOL     OW69418  11.789  13.022  10.398
89174SOL    HW169419  11.743  13.008  10.480
89174SOL    HW269420  11.870  12.971  10.406
89175SOL     OW69421   6.186  12.238  14.103
89175SOL    HW169422   6.108  12.263  14.055
89175SOL    HW269423   6.234  12.321  14.117
89176SOL     OW69424  12.936   0.690  10.442
89176SOL    HW169425  12.883   0.654  10.512
89176SOL    HW269426  12.949   0.782  10.466
89177SOL     OW69427  12.169   1.405   4.015
89177SOL    HW169428  12.087   1.452   4.004
89177SOL    HW269429  12.181   1.357   3.933
89178SOL     OW69430   2.777   4.571   1.123
89178SOL    HW169431   2.824   4.491   1.098
89178SOL    HW269432   2.709   4.580   1.057
89179SOL     OW69433  12.807   2.164   2.039
89179SOL    HW169434  12.800   2.189   2.131
89179SOL    HW269435  12.883   2.212   2.007
89180SOL     OW69436   0.096  11.107  10.446
89180SOL    HW169437   0.011  11.070  10.423
89180SOL    HW269438   0.156  11.033  10.440
89181SOL     OW69439   7.259   6.793   1.667
89181SOL    HW169440   7.207   6.805   1.588
89181SOL    HW269441   7.270   6.881   1.703
89182SOL     OW69442  12.884  13.589  13.222
89182SOL    HW169443  12.894  13.684  13.218
89182SOL    HW269444  12.959  13.559  13.274
89183SOL     OW69445   2.859   9.633   6.853
89183SOL    HW169446   2.884   9.715   6.811
89183SOL    HW269447   2.769   9.617   6.823
89184SOL     OW69448  11.560  11.020   4.599
89184SOL    HW169449  11.535  11.034   4.507
89184SOL    HW269450  11.650  11.050   4.604
89185SOL     OW69451   4.205   9.864  14.386
89185SOL    HW169452   4.286   9.844  14.339
89185SOL    HW269453   4.142   9.885  14.317
89186SOL     OW69454  13.846   6.540  14.637
89186SOL    HW169455  13.838   6.578  14.550
89186SOL    HW269456  13.799   6.602  14.694
89187SOL     OW69457  12.435  14.050   8.010
89187SOL    HW169458  12.437  14.035   8.104
89187SOL    HW269459  12.366  13.991   7.978
89188SOL     OW69460  14.409   1.751   7.389
89188SOL    HW169461  14.337   1.738   7.450
89188SOL    HW269462  14.368   1.783   7.309
89189SOL     OW69463   1.323  13.246   1.404
89189SOL    HW169464   1.250  13.187   1.422
89189SOL    HW269465   1.289  13.307   1.338
89190SOL     OW69466   5.400  13.975  12.741
89190SOL    HW169467   5.334  14.015  12.797
89190SOL    HW269468   5.358  13.895  12.709
89191SOL     OW69469   0.763  11.413  11.737
89191SOL    HW169470   0.785  11.343  11.798
89191SOL    HW269471   0.708  11.473  11.789
89192SOL     OW69472  13.927   8.285   9.913
89192SOL    HW169473  13.953   8.281   9.821
89192SOL    HW269474  13.927   8.193   9.941
89193SOL     OW69475   9.124   7.530   7.098
89193SOL    HW169476   9.131   7.576   7.014
89193SOL    HW269477   9.143   7.439   7.076
89194SOL     OW69478   9.560  13.403  13.346
89194SOL    HW169479   9.536  13.459  13.273
89194SOL    HW269480   9.504  13.326  13.337
89195SOL     OW69481  10.704   8.022   3.585
89195SOL    HW169482  10.686   8.076   3.508
89195SOL    HW269483  10.655   8.065   3.656
89196SOL     OW69484  13.782  10.698   8.456
89196SOL    HW169485  13.733  10.771   8.418
89196SOL    HW269486  13.717  10.628   8.466
89197SOL     OW69487  12.778   2.336  13.360
89197SOL    HW169488  12.721   2.400  13.402
89197SOL    HW269489  12.760   2.254  13.406
89198SOL     OW69490  13.225  13.961  14.224
89198SOL    HW169491  13.200  13.909  14.147
89198SOL    HW269492  13.207  14.052  14.199
89199SOL     OW69493   9.321   4.008   9.293
89199SOL    HW169494   9.374   3.952   9.236
89199SOL    HW269495   9.384   4.045   9.354
89200SOL     OW69496   6.853   5.447   5.824
89200SOL    HW169497   6.912   5.497   5.881
89200SOL    HW269498   6.878   5.474   5.735
89201SOL     OW69499   9.452   6.634  10.064
89201SOL    HW169500   9.481   6.597   9.981
89201SOL    HW269501   9.478   6.726  10.061
89202SOL     OW69502  11.658   6.369   2.438
89202SOL    HW169503  11.740   6.354   2.485
89202SOL    HW269504  11.668   6.320   2.356
89203SOL     OW69505  10.391   2.119   8.654
89203SOL    HW169506  10.447   2.081   8.586
89203SOL    HW269507  10.320   2.056   8.664
89204SOL     OW69508  12.040  12.785  11.805
89204SOL    HW169509  12.088  12.868  11.809
89204SOL    HW269510  12.075  12.733  11.877
89205SOL     OW69511   4.198   6.853   9.765
89205SOL    HW169512   4.250   6.884   9.691
89205SOL    HW269513   4.109   6.880   9.745
89206SOL     OW69514  11.602   1.939   7.053
89206SOL    HW169515  11.587   1.992   7.131
89206SOL    HW269516  11.517   1.935   7.009
89207SOL     OW69517   8.824   7.529   8.186
89207SOL    HW169518   8.849   7.438   8.176
89207SOL    HW269519   8.905   7.574   8.208
89208SOL     OW69520   0.698   9.433   3.528
89208SOL    HW169521   0.791   9.432   3.508
89208SOL    HW269522   0.683   9.518   3.571
89209SOL     OW69523   9.114   6.588   0.044
89209SOL    HW169524   9.047   6.620  14.860
89209SOL    HW269525   9.159   6.518  14.873
89210SOL     OW69526  11.008   7.513  12.708
89210SOL    HW169527  10.928   7.490  12.756
89210SOL    HW269528  11.003   7.608  12.696
89211SOL     OW69529  11.818   0.805  14.559
89211SOL    HW169530  11.813   0.737  14.627
89211SOL    HW269531  11.741   0.860  14.573
89212SOL     OW69532  13.006   3.101   7.387
89212SOL    HW169533  13.057   3.024   7.363
89212SOL    HW269534  13.008   3.102   7.483
89213SOL     OW69535   9.840   4.714   1.751
89213SOL    HW169536   9.797   4.628   1.753
89213SOL    HW269537   9.793   4.762   1.683
89214SOL     OW69538  14.517   9.522   3.330
89214SOL    HW169539  14.548   9.514   3.420
89214SOL    HW269540  14.438   9.576   3.337
89215SOL     OW69541  11.100   3.143   6.766
89215SOL    HW169542  11.112   3.071   6.705
89215SOL    HW269543  11.146   3.117   6.845
89216SOL     OW69544   8.049   8.714  11.344
89216SOL    HW169545   8.065   8.631  11.389
89216SOL    HW269546   8.099   8.708  11.263
89217SOL     OW69547   8.494   6.143   9.434
89217SOL    HW169548   8.438   6.067   9.417
89217SOL    HW269549   8.570   6.129   9.378
89218SOL     OW69550   4.037   7.348   4.769
89218SOL    HW169551   3.972   7.290   4.729
89218SOL    HW269552   4.121   7.312   4.741
89219SOL     OW69553  14.818   9.050  14.602
89219SOL    HW169554  14.727   9.026  14.620
89219SOL    HW269555  14.870   8.991  14.656
89220SOL     OW69556   7.236   6.243   4.329
89220SOL    HW169557   7.270   6.261   4.241
89220SOL    HW269558   7.315   6.233   4.383
89221SOL     OW69559  13.264   7.367   5.824
89221SOL    HW169560  13.206   7.363   5.900
89221SOL    HW269561  13.341   7.414   5.854
89222SOL     OW69562   6.005   5.935   6.021
89222SOL    HW169563   6.085   5.954   6.070
89222SOL    HW269564   6.010   5.842   6.001
89223SOL     OW69565   5.752   8.499   0.151
89223SOL    HW169566   5.752   8.592   0.173
89223SOL    HW269567   5.700   8.458   0.220
89224SOL     OW69568   5.216  10.678   9.263
89224SOL    HW169569   5.171  10.706   9.343
89224SOL    HW269570   5.234  10.760   9.216
89225SOL     OW69571   4.376   3.825   2.307
89225SOL    HW169572   4.304   3.872   2.265
89225SOL    HW269573   4.360   3.834   2.400
89226SOL     OW69574   8.524  13.570   7.883
89226SOL    HW169575   8.451  13.575   7.822
89226SOL    HW269576   8.601  13.554   7.828
89227SOL     OW69577   3.367   5.712   0.291
89227SOL    HW169578   3.332   5.720   0.379
89227SOL    HW269579   3.382   5.618   0.279
89228SOL     OW69580   0.293   5.361  11.753
89228SOL    HW169581   0.266   5.351  11.662
89228SOL    HW269582   0.385   5.338  11.754
89229SOL     OW69583   3.156   7.443  13.515
89229SOL    HW169584   3.232   7.453  13.458
89229SOL    HW269585   3.091   7.399  13.460
89230SOL     OW69586  14.311  11.202   3.201
89230SOL    HW169587  14.373  11.268   3.233
89230SOL    HW269588  14.233  11.252   3.178
89231SOL     OW69589   4.286   2.623   4.823
89231SOL    HW169590   4.298   2.539   4.778
89231SOL    HW269591   4.372   2.664   4.821
89232SOL     OW69592   7.647   9.798   8.347
89232SOL    HW169593   7.555   9.781   8.324
89232SOL    HW269594   7.651   9.892   8.363
89233SOL     OW69595   3.281   4.071   5.805
89233SOL    HW169596   3.234   4.109   5.730
89233SOL    HW269597   3.363   4.038   5.767
89234SOL     OW69598  11.555   0.103   2.698
89234SOL    HW169599  11.469   0.064   2.679
89234SOL    HW269600  11.614   0.058   2.638
89235SOL     OW69601   8.255   8.704   9.238
89235SOL    HW169602   8.303   8.786   9.248
89235SOL    HW269603   8.274   8.655   9.318
89236SOL     OW69604   5.847  10.211  10.459
89236SOL    HW169605   5.871  10.216  10.552
89236SOL    HW269606   5.929  10.225  10.412
89237SOL     OW69607   2.072   8.917   3.568
89237SOL    HW169608   2.003   8.940   3.506
89237SOL    HW269609   2.025   8.896   3.649
89238SOL     OW69610   1.195  10.420  13.654
89238SOL    HW169611   1.218  10.412  13.561
89238SOL    HW269612   1.275  10.394  13.700
89239SOL     OW69613   6.624   0.788  11.774
89239SOL    HW169614   6.597   0.828  11.857
89239SOL    HW269615   6.717   0.767  11.786
89240SOL     OW69616  12.418   4.225   7.607
89240SOL    HW169617  12.400   4.277   7.529
89240SOL    HW269618  12.397   4.283   7.681
89241SOL     OW69619  14.098  10.959   9.375
89241SOL    HW169620  14.170  10.985   9.317
89241SOL    HW269621  14.079  10.869   9.350
89242SOL     OW69622  10.589  11.784   5.937
89242SOL    HW169623  10.605  11.797   5.844
89242SOL    HW269624  10.664  11.734   5.968
89243SOL     OW69625   6.614   1.338   4.283
89243SOL    HW169626   6.571   1.365   4.201
89243SOL    HW269627   6.542   1.305   4.337
89244SOL     OW69628   5.093  14.236   8.559
89244SOL    HW169629   5.075  14.170   8.625
89244SOL    HW269630   5.032  14.307   8.578
89245SOL     OW69631  14.014  10.973   3.122
89245SOL    HW169632  14.065  10.999   3.199
89245SOL    HW269633  14.039  10.882   3.107
89246SOL     OW69634   2.428  11.707   3.066
89246SOL    HW169635   2.469  11.773   3.009
89246SOL    HW269636   2.357  11.671   3.013
89247SOL     OW69637   6.920   1.105  10.283
89247SOL    HW169638   6.844   1.155  10.315
89247SOL    HW269639   6.910   1.019  10.324
89248SOL     OW69640   8.866  13.393   6.556
89248SOL    HW169641   8.905  13.326   6.499
89248SOL    HW269642   8.901  13.476   6.523
89249SOL     OW69643  13.300   1.691  12.396
89249SOL    HW169644  13.231   1.633  12.427
89249SOL    HW269645  13.379   1.661  12.441
89250SOL     OW69646   1.166   7.698  14.600
89250SOL    HW169647   1.115   7.674  14.677
89250SOL    HW269648   1.106   7.687  14.527
89251SOL     OW69649   3.201   4.752  14.416
89251SOL    HW169650   3.120   4.755  14.365
89251SOL    HW269651   3.219   4.658  14.427
89252SOL     OW69652   3.571   0.281   8.290
89252SOL    HW169653   3.617   0.271   8.373
89252SOL    HW269654   3.479   0.276   8.313
89253SOL     OW69655   3.190   1.969   1.227
89253SOL    HW169656   3.172   2.053   1.270
89253SOL    HW269657   3.176   1.903   1.295
89254SOL     OW69658  13.397   0.338   2.499
89254SOL    HW169659  13.421   0.320   2.408
89254SOL    HW269660  13.442   0.419   2.521
89255SOL     OW69661   5.431   8.406   1.748
89255SOL    HW169662   5.471   8.352   1.680
89255SOL    HW269663   5.337   8.395   1.735
89256SOL     OW69664  13.784   4.762   4.376
89256SOL    HW169665  13.868   4.791   4.412
89256SOL    HW269666  13.741   4.843   4.348
89257SOL     OW69667  13.983   8.543  12.048
89257SOL    HW169668  13.946   8.492  11.975
89257SOL    HW269669  14.021   8.620  12.006
89258SOL     OW69670   9.193  11.707   2.715
89258SOL    HW169671   9.287  11.715   2.728
89258SOL    HW269672   9.166  11.637   2.774
89259SOL     OW69673  11.623   1.693   9.802
89259SOL    HW169674  11.551   1.657   9.751
89259SOL    HW269675  11.632   1.783   9.771
89260SOL     OW69676   0.604   6.807   5.593
89260SOL    HW169677   0.644   6.801   5.680
89260SOL    HW269678   0.510   6.808   5.610
89261SOL     OW69679   9.521   2.504   6.495
89261SOL    HW169680   9.459   2.569   6.462
89261SOL    HW269681   9.527   2.439   6.425
89262SOL     OW69682  11.019   5.456   3.022
89262SOL    HW169683  11.083   5.505   2.969
89262SOL    HW269684  11.034   5.487   3.112
89263SOL     OW69685   3.216   2.594   2.539
89263SOL    HW169686   3.264   2.534   2.596
89263SOL    HW269687   3.230   2.680   2.579
89264SOL     OW69688  10.560   6.399   8.671
89264SOL    HW169689  10.516   6.479   8.646
89264SOL    HW269690  10.642   6.400   8.622
89265SOL     OW69691   8.333  13.298   6.624
89265SOL    HW169692   8.419  13.330   6.650
89265SOL    HW269693   8.340  13.203   6.627
89266SOL     OW69694  10.163  12.571   5.146
89266SOL    HW169695  10.157  12.666   5.158
89266SOL    HW269696  10.140  12.534   5.231
89267SOL     OW69697   3.901   6.640  12.330
89267SOL    HW169698   3.903   6.567  12.268
89267SOL    HW269699   3.834   6.615  12.394
89268SOL     OW69700   3.709  10.652  12.306
89268SOL    HW169701   3.626  10.619  12.340
89268SOL    HW269702   3.776  10.606  12.355
89269SOL     OW69703  13.048  13.566  10.889
89269SOL    HW169704  12.979  13.588  10.827
89269SOL    HW269705  13.090  13.650  10.910
89270SOL     OW69706  11.237   7.605   8.581
89270SOL    HW169707  11.190   7.544   8.637
89270SOL    HW269708  11.219   7.691   8.618
89271SOL     OW69709   7.262   3.275  13.909
89271SOL    HW169710   7.357   3.269  13.919
89271SOL    HW269711   7.246   3.254  13.817
89272SOL     OW69712  11.266   9.064   7.239
89272SOL    HW169713  11.212   9.108   7.173
89272SOL    HW269714  11.328   9.131   7.268
89273SOL     OW69715   8.093   3.198   0.066
89273SOL    HW169716   8.170   3.255   0.058
89273SOL    HW269717   8.108   3.129   0.002
89274SOL     OW69718   9.774  13.880   9.504
89274SOL    HW169719   9.735  13.800   9.470
89274SOL    HW269720   9.854  13.851   9.548
89275SOL     OW69721   2.990   7.901  12.686
89275SOL    HW169722   3.033   7.884  12.769
89275SOL    HW269723   3.046   7.860  12.621
89276SOL     OW69724   1.344   3.141   9.827
89276SOL    HW169725   1.412   3.088   9.784
89276SOL    HW269726   1.338   3.220   9.774
89277SOL     OW69727  12.405  10.243  12.993
89277SOL    HW169728  12.390  10.255  13.087
89277SOL    HW269729  12.331  10.288  12.951
89278SOL     OW69730  13.367   1.692   8.122
89278SOL    HW169731  13.346   1.660   8.034
89278SOL    HW269732  13.463   1.690   8.126
89279SOL     OW69733  12.072  13.233   6.251
89279SOL    HW169734  12.046  13.151   6.292
89279SOL    HW269735  12.167  13.226   6.243
89280SOL     OW69736  14.810   9.664   4.310
89280SOL    HW169737  14.805   9.609   4.232
89280SOL    HW269738  14.873   9.620   4.367
89281SOL     OW69739   1.692  10.968   9.770
89281SOL    HW169740   1.727  11.056   9.759
89281SOL    HW269741   1.764  10.918   9.808
89282SOL     OW69742   9.702  13.518   0.002
89282SOL    HW169743   9.666  13.562   0.079
89282SOL    HW269744   9.785  13.562  14.864
89283SOL     OW69745   5.042   0.782   3.168
89283SOL    HW169746   4.984   0.835   3.114
89283SOL    HW269747   5.076   0.715   3.109
89284SOL     OW69748   4.122  11.986   2.515
89284SOL    HW169749   4.164  11.902   2.532
89284SOL    HW269750   4.188  12.036   2.467
89285SOL     OW69751   6.502   5.482  14.355
89285SOL    HW169752   6.508   5.545  14.428
89285SOL    HW269753   6.553   5.407  14.384
89286SOL     OW69754   2.171  11.430   6.103
89286SOL    HW169755   2.082  11.463   6.116
89286SOL    HW269756   2.176  11.411   6.009
89287SOL     OW69757   1.023   3.880  13.832
89287SOL    HW169758   0.985   3.839  13.910
89287SOL    HW269759   1.000   3.972  13.839
89288SOL     OW69760  13.697  13.179   7.487
89288SOL    HW169761  13.624  13.142   7.536
89288SOL    HW269762  13.763  13.110   7.484
89289SOL     OW69763   1.341   7.890  10.067
89289SOL    HW169764   1.429   7.919  10.090
89289SOL    HW269765   1.295   7.883  10.151
89290SOL     OW69766  12.314  10.009   3.272
89290SOL    HW169767  12.298   9.965   3.189
89290SOL    HW269768  12.306   9.940   3.338
89291SOL     OW69769   1.248   6.033   4.960
89291SOL    HW169770   1.248   6.085   5.040
89291SOL    HW269771   1.191   5.958   4.981
89292SOL     OW69772   6.560  12.224  10.694
89292SOL    HW169773   6.544  12.294  10.758
89292SOL    HW269774   6.602  12.155  10.744
89293SOL     OW69775   2.092  12.434   6.586
89293SOL    HW169776   2.105  12.353   6.535
89293SOL    HW269777   2.003  12.427   6.619
89294SOL     OW69778  12.331  10.284   6.989
89294SOL    HW169779  12.426  10.285   7.004
89294SOL    HW269780  12.309  10.191   6.980
89295SOL     OW69781  14.255   4.867   0.660
89295SOL    HW169782  14.238   4.932   0.591
89295SOL    HW269783  14.298   4.795   0.615
89296SOL     OW69784   2.545  11.278   8.930
89296SOL    HW169785   2.530  11.211   8.863
89296SOL    HW269786   2.627  11.252   8.972
89297SOL     OW69787   7.838   0.745  14.514
89297SOL    HW169788   7.757   0.701  14.488
89297SOL    HW269789   7.839   0.826  14.464
89298SOL     OW69790   1.247  10.513  12.617
89298SOL    HW169791   1.235  10.593  12.669
89298SOL    HW269792   1.342  10.505  12.609
89299SOL     OW69793   6.088   7.078   9.675
89299SOL    HW169794   6.070   6.988   9.702
89299SOL    HW269795   6.153   7.110   9.738
89300SOL     OW69796   9.089  10.696   3.618
89300SOL    HW169797   9.061  10.749   3.543
89300SOL    HW269798   9.150  10.632   3.581
89301SOL     OW69799   8.660  10.075   9.695
89301SOL    HW169800   8.589  10.013   9.680
89301SOL    HW269801   8.639  10.150   9.639
89302SOL     OW69802   9.994   1.773   9.585
89302SOL    HW169803   9.907   1.811   9.574
89302SOL    HW269804   9.985   1.713   9.658
89303SOL     OW69805   9.259  11.556  13.397
89303SOL    HW169806   9.270  11.488  13.331
89303SOL    HW269807   9.332  11.542  13.458
89304SOL     OW69808   9.762   7.050   6.406
89304SOL    HW169809   9.750   7.042   6.501
89304SOL    HW269810   9.846   7.095   6.397
89305SOL     OW69811  12.989   1.531   0.660
89305SOL    HW169812  13.038   1.466   0.710
89305SOL    HW269813  12.897   1.506   0.670
89306SOL     OW69814   4.273   8.330   6.938
89306SOL    HW169815   4.278   8.344   6.843
89306SOL    HW269816   4.180   8.328   6.958
89307SOL     OW69817   6.367   5.501   4.315
89307SOL    HW169818   6.273   5.522   4.317
89307SOL    HW269819   6.377   5.433   4.382
89308SOL     OW69820   2.008   4.790  10.382
89308SOL    HW169821   1.988   4.877  10.348
89308SOL    HW269822   2.095   4.769  10.347
89309SOL     OW69823   0.907   2.558   4.515
89309SOL    HW169824   0.811   2.549   4.517
89309SOL    HW269825   0.939   2.469   4.524
89310SOL     OW69826   0.656  11.766   3.824
89310SOL    HW169827   0.745  11.785   3.856
89310SOL    HW269828   0.669  11.706   3.751
89311SOL     OW69829   4.480   0.296  13.255
89311SOL    HW169830   4.507   0.292  13.347
89311SOL    HW269831   4.561   0.312  13.207
89312SOL     OW69832   4.875   1.736   5.117
89312SOL    HW169833   4.869   1.730   5.212
89312SOL    HW269834   4.912   1.651   5.090
89313SOL     OW69835  13.755  12.381   0.178
89313SOL    HW169836  13.828  12.369   0.239
89313SOL    HW269837  13.784  12.337   0.098
89314SOL     OW69838  13.690   7.259  10.247
89314SOL    HW169839  13.692   7.219  10.334
89314SOL    HW269840  13.745   7.203  10.193
89315SOL     OW69841   5.613  11.992   8.483
89315SOL    HW169842   5.579  12.036   8.561
89315SOL    HW269843   5.538  11.945   8.448
89316SOL     OW69844  14.823   1.306   8.390
89316SOL    HW169845  14.861   1.365   8.454
89316SOL    HW269846  14.828   1.353   8.307
89317SOL     OW69847   5.975  13.628   1.943
89317SOL    HW169848   6.021  13.569   2.003
89317SOL    HW269849   5.995  13.594   1.856
89318SOL     OW69850   7.884   5.750  13.366
89318SOL    HW169851   7.962   5.764  13.419
89318SOL    HW269852   7.812   5.751  13.428
89319SOL     OW69853   0.059   2.673   3.299
89319SOL    HW169854   0.009   2.715   3.229
89319SOL    HW269855   0.079   2.744   3.360
89320SOL     OW69856   3.741  13.951   2.570
89320SOL    HW169857   3.793  14.022   2.607
89320SOL    HW269858   3.726  13.978   2.479
89321SOL     OW69859  13.809   4.281   0.680
89321SOL    HW169860  13.818   4.340   0.605
89321SOL    HW269861  13.820   4.338   0.756
89322SOL     OW69862  13.847   9.853   5.015
89322SOL    HW169863  13.844   9.879   5.108
89322SOL    HW269864  13.816   9.930   4.968
89323SOL     OW69865   6.849   5.100   5.685
89323SOL    HW169866   6.864   5.077   5.593
89323SOL    HW269867   6.880   5.190   5.693
89324SOL     OW69868   9.347   1.778   3.949
89324SOL    HW169869   9.281   1.842   3.920
89324SOL    HW269870   9.304   1.693   3.939
89325SOL     OW69871  10.135  13.080   8.049
89325SOL    HW169872  10.084  13.022   8.105
89325SOL    HW269873  10.212  13.103   8.101
89326SOL     OW69874   0.050   5.605   5.291
89326SOL    HW169875   0.067   5.516   5.322
89326SOL    HW269876  14.834   5.618   5.307
89327SOL     OW69877  13.406   3.825  13.629
89327SOL    HW169878  13.359   3.766  13.688
89327SOL    HW269879  13.459   3.880  13.687
89328SOL     OW69880   3.914   9.898   7.108
89328SOL    HW169881   3.860   9.906   7.186
89328SOL    HW269882   3.950   9.810   7.112
89329SOL     OW69883  12.287   6.076  10.470
89329SOL    HW169884  12.315   5.987  10.489
89329SOL    HW269885  12.192   6.073  10.474
89330SOL     OW69886  11.373   7.850   0.090
89330SOL    HW169887  11.350   7.836  14.876
89330SOL    HW269888  11.423   7.771   0.114
89331SOL     OW69889  14.478   5.588   1.083
89331SOL    HW169890  14.547   5.605   1.147
89331SOL    HW269891  14.500   5.503   1.046
89332SOL     OW69892  11.490   7.547   4.786
89332SOL    HW169893  11.433   7.610   4.741
89332SOL    HW269894  11.467   7.462   4.749
89333SOL     OW69895  10.640  11.214   7.139
89333SOL    HW169896  10.640  11.183   7.229
89333SOL    HW269897  10.553  11.252   7.126
89334SOL     OW69898   2.381  11.756   0.607
89334SOL    HW169899   2.355  11.800   0.527
89334SOL    HW269900   2.299  11.729   0.648
89335SOL     OW69901  11.062   1.977   4.825
89335SOL    HW169902  11.009   1.904   4.859
89335SOL    HW269903  11.010   2.055   4.846
89336SOL     OW69904  10.389  10.417   7.419
89336SOL    HW169905  10.408  10.386   7.508
89336SOL    HW269906  10.335  10.349   7.380
89337SOL     OW69907   1.449   0.405   0.897
89337SOL    HW169908   1.518   0.406   0.830
89337SOL    HW269909   1.392   0.333   0.871
89338SOL     OW69910   4.140  14.611   1.348
89338SOL    HW169911   4.122  14.607   1.442
89338SOL    HW269912   4.090  14.539   1.310
89339SOL     OW69913   4.026   3.859  10.868
89339SOL    HW169914   4.084   3.784  10.853
89339SOL    HW269915   3.942   3.831  10.833
89340SOL     OW69916  12.526   6.411  11.398
89340SOL    HW169917  12.471   6.470  11.347
89340SOL    HW269918  12.465   6.365  11.456
89341SOL     OW69919  10.058  14.515   3.207
89341SOL    HW169920  10.032  14.428   3.175
89341SOL    HW269921  10.144  14.530   3.168
89342SOL     OW69922   7.040   3.933   2.616
89342SOL    HW169923   7.006   3.876   2.685
89342SOL    HW269924   7.082   3.873   2.554
89343SOL     OW69925  12.167   1.764   8.581
89343SOL    HW169926  12.210   1.827   8.640
89343SOL    HW269927  12.097   1.814   8.540
89344SOL     OW69928   9.849   9.333   9.267
89344SOL    HW169929   9.846   9.262   9.331
89344SOL    HW269930   9.863   9.412   9.319
89345SOL     OW69931  10.761  13.657   9.065
89345SOL    HW169932  10.854  13.641   9.046
89345SOL    HW269933  10.714  13.594   9.010
89346SOL     OW69934   0.128   4.656  14.345
89346SOL    HW169935   0.147   4.608  14.264
89346SOL    HW269936   0.069   4.726  14.318
89347SOL     OW69937   7.248  14.041  12.344
89347SOL    HW169938   7.293  14.114  12.302
89347SOL    HW269939   7.310  14.009  12.409
89348SOL     OW69940   3.491  10.820   4.116
89348SOL    HW169941   3.522  10.768   4.190
89348SOL    HW269942   3.401  10.791   4.101
89349SOL     OW69943   6.840  11.529  11.343
89349SOL    HW169944   6.875  11.444  11.315
89349SOL    HW269945   6.895  11.554  11.418
89350SOL     OW69946   2.500   4.165   7.331
89350SOL    HW169947   2.477   4.253   7.363
89350SOL    HW269948   2.595   4.162   7.336
89351SOL     OW69949   0.446  10.323  12.767
89351SOL    HW169950   0.420  10.253  12.707
89351SOL    HW269951   0.363  10.365  12.792
89352SOL     OW69952   1.386   5.180  11.377
89352SOL    HW169953   1.404   5.265  11.419
89352SOL    HW269954   1.468   5.131  11.387
89353SOL     OW69955  12.031   5.809   4.913
89353SOL    HW169956  12.083   5.853   4.980
89353SOL    HW269957  11.966   5.874   4.885
89354SOL     OW69958   8.855   8.150   6.422
89354SOL    HW169959   8.944   8.178   6.401
89354SOL    HW269960   8.850   8.060   6.389
89355SOL     OW69961  11.301   8.750   5.087
89355SOL    HW169962  11.392   8.777   5.100
89355SOL    HW269963  11.271   8.726   5.175
89356SOL     OW69964  11.439   5.083  11.612
89356SOL    HW169965  11.456   5.142  11.539
89356SOL    HW269966  11.379   5.017  11.577
89357SOL     OW69967   8.235  11.549   9.081
89357SOL    HW169968   8.218  11.460   9.113
89357SOL    HW269969   8.164  11.602   9.116
89358SOL     OW69970  14.071   6.049   2.249
89358SOL    HW169971  14.120   5.974   2.216
89358SOL    HW269972  13.992   6.012   2.289
89359SOL     OW69973   6.403   8.280  12.983
89359SOL    HW169974   6.427   8.214  13.049
89359SOL    HW269975   6.469   8.348  12.993
89360SOL     OW69976  12.961  12.194  12.662
89360SOL    HW169977  12.992  12.268  12.611
89360SOL    HW269978  12.970  12.222  12.753
89361SOL     OW69979  12.200   7.375   3.170
89361SOL    HW169980  12.121   7.341   3.126
89361SOL    HW269981  12.263   7.387   3.099
89362SOL     OW69982   1.615   3.858  14.155
89362SOL    HW169983   1.666   3.805  14.093
89362SOL    HW269984   1.600   3.800  14.230
89363SOL     OW69985   5.403  14.867   5.635
89363SOL    HW169986   5.334   0.054   5.622
89363SOL    HW269987   5.358  14.789   5.666
89364SOL     OW69988   5.395  10.731   1.992
89364SOL    HW169989   5.472  10.702   2.042
89364SOL    HW269990   5.394  10.673   1.915
89365SOL     OW69991   8.585  11.339   1.955
89365SOL    HW169992   8.644  11.371   2.023
89365SOL    HW269993   8.628  11.261   1.920
89366SOL     OW69994   7.268   7.894   3.262
89366SOL    HW169995   7.258   7.973   3.210
89366SOL    HW269996   7.230   7.917   3.348
89367SOL     OW69997  14.073   2.898   0.608
89367SOL    HW169998  14.090   2.814   0.652
89367SOL    HW269999  14.154   2.917   0.561
89368SOL     OW70000   6.564   7.053  14.133
89368SOL    HW170001   6.488   7.046  14.191
89368SOL    HW270002   6.557   6.978  14.075
89369SOL     OW70003   5.302  14.223   3.044
89369SOL    HW170004   5.228  14.267   3.001
89369SOL    HW270005   5.369  14.290   3.052
89370SOL     OW70006   1.731  12.177   8.376
89370SOL    HW170007   1.765  12.098   8.418
89370SOL    HW270008   1.673  12.144   8.307
89371SOL     OW70009  10.982   8.387  14.171
89371SOL    HW170010  10.949   8.353  14.088
89371SOL    HW270011  11.064   8.341  14.186
89372SOL     OW70012   9.592   0.927   7.090
89372SOL    HW170013   9.513   0.872   7.089
89372SOL    HW270014   9.587   0.975   7.008
89373SOL     OW70015  10.344   6.007   5.306
89373SOL    HW170016  10.297   6.090   5.294
89373SOL    HW270017  10.306   5.969   5.385
89374SOL     OW70018  11.894   8.320   6.586
89374SOL    HW170019  11.971   8.370   6.562
89374SOL    HW270020  11.851   8.300   6.503
89375SOL     OW70021  11.424  10.355   4.052
89375SOL    HW170022  11.346  10.367   3.998
89375SOL    HW270023  11.448  10.444   4.080
89376SOL     OW70024   8.591   0.230   1.707
89376SOL    HW170025   8.504   0.270   1.707
89376SOL    HW270026   8.648   0.300   1.674
89377SOL     OW70027   8.917  10.419   2.390
89377SOL    HW170028   8.887  10.496   2.437
89377SOL    HW270029   8.848  10.402   2.325
89378SOL     OW70030   1.141   6.317   9.805
89378SOL    HW170031   1.107   6.360   9.727
89378SOL    HW270032   1.226   6.281   9.778
89379SOL     OW70033   4.989   1.144   4.837
89379SOL    HW170034   5.073   1.188   4.848
89379SOL    HW270035   5.013   1.055   4.809
89380SOL     OW70036   9.909   9.262  10.310
89380SOL    HW170037   9.882   9.334  10.254
89380SOL    HW270038   9.928   9.190  10.250
89381SOL     OW70039   2.586   0.831   7.993
89381SOL    HW170040   2.573   0.917   7.953
89381SOL    HW270041   2.559   0.843   8.084
89382SOL     OW70042  10.386  13.546   0.856
89382SOL    HW170043  10.342  13.475   0.809
89382SOL    HW270044  10.332  13.561   0.933
89383SOL     OW70045   2.423   1.963  13.730
89383SOL    HW170046   2.499   1.910  13.757
89383SOL    HW270047   2.456   2.017  13.659
89384SOL     OW70048  10.229   6.219  11.536
89384SOL    HW170049  10.259   6.228  11.627
89384SOL    HW270050  10.258   6.132  11.510
89385SOL     OW70051   4.300   0.667   0.719
89385SOL    HW170052   4.268   0.676   0.809
89385SOL    HW270053   4.285   0.574   0.697
89386SOL     OW70054   6.911   8.050  11.092
89386SOL    HW170055   6.992   8.021  11.135
89386SOL    HW270056   6.846   7.984  11.116
89387SOL     OW70057   8.033   7.642   4.395
89387SOL    HW170058   8.109   7.655   4.452
89387SOL    HW270059   7.983   7.723   4.403
89388SOL     OW70060   4.905   2.807   9.659
89388SOL    HW170061   4.846   2.787   9.586
89388SOL    HW270062   4.917   2.901   9.655
89389SOL     OW70063   0.196  13.253  14.845
89389SOL    HW170064   0.221  13.273   0.058
89389SOL    HW270065   0.279  13.230  14.802
89390SOL     OW70066   0.488   0.280   8.079
89390SOL    HW170067   0.502   0.307   7.988
89390SOL    HW270068   0.412   0.222   8.076
89391SOL     OW70069   7.338   1.867  13.655
89391SOL    HW170070   7.302   1.888  13.741
89391SOL    HW270071   7.400   1.938  13.637
89392SOL     OW70072   3.570   0.544   4.296
89392SOL    HW170073   3.559   0.517   4.205
89392SOL    HW270074   3.665   0.546   4.309
89393SOL     OW70075   8.784   3.405  10.493
89393SOL    HW170076   8.747   3.407  10.405
89393SOL    HW270077   8.728   3.462  10.545
89394SOL     OW70078  11.302   2.549   2.500
89394SOL    HW170079  11.306   2.462   2.460
89394SOL    HW270080  11.292   2.531   2.593
89395SOL     OW70081   6.054   1.121   3.666
89395SOL    HW170082   6.115   1.174   3.614
89395SOL    HW270083   6.110   1.076   3.730
89396SOL     OW70084   1.064  13.622   7.861
89396SOL    HW170085   1.012  13.697   7.890
89396SOL    HW270086   0.998  13.556   7.837
89397SOL     OW70087   2.545  10.738   3.693
89397SOL    HW170088   2.471  10.694   3.736
89397SOL    HW270089   2.566  10.681   3.619
89398SOL     OW70090   5.692   9.110  10.675
89398SOL    HW170091   5.712   9.065  10.593
89398SOL    HW270092   5.733   9.055  10.743
89399SOL     OW70093  13.685   8.369  14.803
89399SOL    HW170094  13.731   8.438  14.755
89399SOL    HW270095  13.740   8.291  14.789
89400SOL     OW70096  14.556   2.989   9.966
89400SOL    HW170097  14.565   2.954   9.877
89400SOL    HW270098  14.546   2.912  10.021
89401SOL     OW70099   2.908   6.186   8.581
89401SOL    HW170100   2.883   6.192   8.673
89401SOL    HW270101   2.826   6.198   8.533
89402SOL     OW70102   1.478   7.936   2.761
89402SOL    HW170103   1.533   7.930   2.683
89402SOL    HW270104   1.477   7.847   2.796
89403SOL     OW70105   7.790  12.319   0.273
89403SOL    HW170106   7.878  12.284   0.284
89403SOL    HW270107   7.734  12.259   0.322
89404SOL     OW70108   9.636   0.462  13.516
89404SOL    HW170109   9.677   0.430  13.436
89404SOL    HW270110   9.546   0.430  13.511
89405SOL     OW70111   8.086  14.406   3.349
89405SOL    HW170112   8.002  14.437   3.384
89405SOL    HW270113   8.123  14.482   3.304
89406SOL     OW70114  13.423  11.550   5.259
89406SOL    HW170115  13.507  11.505   5.249
89406SOL    HW270116  13.388  11.558   5.171
89407SOL     OW70117  10.045   4.706   6.349
89407SOL    HW170118  10.047   4.786   6.401
89407SOL    HW270119   9.983   4.725   6.278
89408SOL     OW70120   9.667   0.380   3.334
89408SOL    HW170121   9.595   0.408   3.278
89408SOL    HW270122   9.663   0.284   3.333
89409SOL     OW70123  10.244   7.823  13.331
89409SOL    HW170124  10.317   7.879  13.304
89409SOL    HW270125  10.181   7.831  13.259
89410SOL     OW70126   6.851   6.156   7.604
89410SOL    HW170127   6.873   6.100   7.529
89410SOL    HW270128   6.844   6.096   7.678
89411SOL     OW70129   8.004  11.412  13.683
89411SOL    HW170130   8.090  11.423  13.643
89411SOL    HW270131   7.949  11.380  13.612
89412SOL     OW70132   9.361   5.234  14.537
89412SOL    HW170133   9.404   5.176  14.599
89412SOL    HW270134   9.270   5.238  14.567
89413SOL     OW70135   3.531   1.428   4.383
89413SOL    HW170136   3.491   1.349   4.348
89413SOL    HW270137   3.460   1.472   4.431
89414SOL     OW70138   9.485   0.626  13.247
89414SOL    HW170139   9.461   0.640  13.155
89414SOL    HW270140   9.415   0.571  13.282
89415SOL     OW70141   9.934   6.934   4.947
89415SOL    HW170142   9.863   6.888   4.991
89415SOL    HW270143  10.013   6.905   4.992
89416SOL     OW70144   6.604   2.963  13.614
89416SOL    HW170145   6.522   2.947  13.661
89416SOL    HW270146   6.655   3.020  13.672
89417SOL     OW70147  14.831   0.908   9.844
89417SOL    HW170148   0.033   0.929   9.893
89417SOL    HW270149  14.816   0.816   9.862
89418SOL     OW70150   9.770   5.142   9.389
89418SOL    HW170151   9.805   5.148   9.300
89418SOL    HW270152   9.675   5.139   9.377
89419SOL     OW70153  10.782   4.768  12.345
89419SOL    HW170154  10.701   4.732  12.382
89419SOL    HW270155  10.799   4.846  12.398
89420SOL     OW70156   8.680   6.894  12.072
89420SOL    HW170157   8.597   6.848  12.088
89420SOL    HW270158   8.654   6.986  12.063
89421SOL     OW70159   9.928   2.485  10.385
89421SOL    HW170160   9.875   2.405  10.376
89421SOL    HW270161   9.965   2.479  10.473
89422SOL     OW70162   9.139  10.006   0.836
89422SOL    HW170163   9.162   9.917   0.810
89422SOL    HW270164   9.222  10.054   0.834
89423SOL     OW70165  10.753   8.411   4.229
89423SOL    HW170166  10.758   8.356   4.151
89423SOL    HW270167  10.680   8.471   4.212
89424SOL     OW70168   7.919   2.850   0.468
89424SOL    HW170169   7.914   2.765   0.424
89424SOL    HW270170   7.992   2.895   0.426
89425SOL     OW70171   8.503   8.520  12.926
89425SOL    HW170172   8.467   8.580  12.990
89425SOL    HW270173   8.449   8.533  12.848
89426SOL     OW70174   2.046  13.469   2.502
89426SOL    HW170175   1.954  13.488   2.519
89426SOL    HW270176   2.044  13.405   2.430
89427SOL     OW70177   9.228   2.915   3.690
89427SOL    HW170178   9.182   2.836   3.717
89427SOL    HW270179   9.295   2.885   3.629
89428SOL     OW70180  13.944  10.645   5.731
89428SOL    HW170181  13.983  10.573   5.781
89428SOL    HW270182  14.001  10.654   5.654
89429SOL     OW70183   3.845   2.846  11.777
89429SOL    HW170184   3.841   2.850  11.873
89429SOL    HW270185   3.881   2.759  11.759
89430SOL     OW70186   6.145  14.044   2.502
89430SOL    HW170187   6.223  14.011   2.457
89430SOL    HW270188   6.076  14.040   2.436
89431SOL     OW70189   7.296   0.147  13.595
89431SOL    HW170190   7.221   0.152  13.535
89431SOL    HW270191   7.259   0.162  13.682
89432SOL     OW70192  11.703  10.857   0.570
89432SOL    HW170193  11.718  10.770   0.534
89432SOL    HW270194  11.676  10.842   0.660
89433SOL     OW70195   0.002  10.275  14.057
89433SOL    HW170196  14.871  10.194  14.109
89433SOL    HW270197   0.093  10.301  14.069
89434SOL     OW70198   7.446  12.039   4.287
89434SOL    HW170199   7.496  11.964   4.317
89434SOL    HW270200   7.409  12.077   4.367
89435SOL     OW70201  10.603   7.338   2.482
89435SOL    HW170202  10.533   7.311   2.541
89435SOL    HW270203  10.558   7.365   2.402
89436SOL     OW70204   8.739   1.451  10.064
89436SOL    HW170205   8.653   1.436  10.103
89436SOL    HW270206   8.784   1.367  10.074
89437SOL     OW70207  14.726  12.105   6.887
89437SOL    HW170208  14.729  12.155   6.805
89437SOL    HW270209  14.804  12.050   6.884
89438SOL     OW70210   7.401   3.233   6.039
89438SOL    HW170211   7.380   3.318   6.000
89438SOL    HW270212   7.405   3.250   6.133
89439SOL     OW70213   4.977   0.813   9.868
89439SOL    HW170214   4.921   0.741   9.899
89439SOL    HW270215   5.020   0.778   9.791
89440SOL     OW70216  11.061   2.503  10.984
89440SOL    HW170217  11.110   2.569  10.935
89440SOL    HW270218  10.972   2.537  10.990
89441SOL     OW70219   6.727  10.581  13.585
89441SOL    HW170220   6.637  10.572  13.617
89441SOL    HW270221   6.762  10.656  13.631
89442SOL     OW70222  11.047   7.414   5.632
89442SOL    HW170223  11.054   7.484   5.568
89442SOL    HW270224  11.125   7.423   5.687
89443SOL     OW70225  11.097   0.252  13.905
89443SOL    HW170226  11.163   0.298  13.852
89443SOL    HW270227  11.146   0.183  13.949
89444SOL     OW70228   0.387  10.788  11.916
89444SOL    HW170229   0.427  10.827  11.839
89444SOL    HW270230   0.454  10.728  11.951
89445SOL     OW70231   0.421   1.013  13.703
89445SOL    HW170232   0.514   1.032  13.691
89445SOL    HW270233   0.418   0.922  13.730
89446SOL     OW70234   7.220   1.598  10.829
89446SOL    HW170235   7.137   1.592  10.781
89446SOL    HW270236   7.197   1.569  10.918
89447SOL     OW70237   1.304   9.682   2.047
89447SOL    HW170238   1.350   9.685   1.963
89447SOL    HW270239   1.221   9.638   2.028
89448SOL     OW70240   4.499   9.411   4.276
89448SOL    HW170241   4.521   9.348   4.207
89448SOL    HW270242   4.441   9.474   4.234
89449SOL     OW70243   8.427  10.671   4.111
89449SOL    HW170244   8.346  10.700   4.069
89449SOL    HW270245   8.492  10.736   4.083
89450SOL     OW70246  14.433   1.883   6.357
89450SOL    HW170247  14.382   1.914   6.432
89450SOL    HW270248  14.484   1.809   6.392
89451SOL     OW70249   5.231   7.699   9.631
89451SOL    HW170250   5.303   7.637   9.644
89451SOL    HW270251   5.274   7.781   9.606
89452SOL     OW70252   4.617   5.354  14.040
89452SOL    HW170253   4.591   5.446  14.042
89452SOL    HW270254   4.535   5.305  14.045
89453SOL     OW70255  12.849   5.798   5.472
89453SOL    HW170256  12.868   5.742   5.547
89453SOL    HW270257  12.775   5.756   5.428
89454SOL     OW70258   1.261   8.553   9.672
89454SOL    HW170259   1.277   8.561   9.578
89454SOL    HW270260   1.190   8.490   9.679
89455SOL     OW70261   9.404   6.203  10.468
89455SOL    HW170262   9.426   6.180  10.558
89455SOL    HW270263   9.435   6.129  10.416
89456SOL     OW70264   5.991   6.165  11.815
89456SOL    HW170265   5.982   6.152  11.720
89456SOL    HW270266   5.945   6.090  11.853
89457SOL     OW70267   9.618   1.520   8.320
89457SOL    HW170268   9.679   1.475   8.378
89457SOL    HW270269   9.580   1.451   8.266
89458SOL     OW70270  11.278   8.025   3.823
89458SOL    HW170271  11.219   8.073   3.881
89458SOL    HW270272  11.233   7.943   3.805
89459SOL     OW70273   9.831   6.131   2.750
89459SOL    HW170274   9.809   6.068   2.682
89459SOL    HW270275   9.786   6.211   2.723
89460SOL     OW70276  12.363   2.435  13.765
89460SOL    HW170277  12.272   2.427  13.796
89460SOL    HW270278  12.411   2.371  13.818
89461SOL     OW70279   6.005  12.430  10.632
89461SOL    HW170280   6.023  12.523  10.642
89461SOL    HW270281   6.080  12.396  10.582
89462SOL     OW70282  14.807   0.443   5.310
89462SOL    HW170283  14.715   0.471   5.310
89462SOL    HW270284  14.854   0.514   5.355
89463SOL     OW70285   2.169   3.331  11.441
89463SOL    HW170286   2.195   3.333  11.533
89463SOL    HW270287   2.213   3.407  11.402
89464SOL     OW70288  10.771  10.084   7.865
89464SOL    HW170289  10.778  10.099   7.770
89464SOL    HW270290  10.723  10.002   7.873
89465SOL     OW70291   4.459   7.288   7.007
89465SOL    HW170292   4.368   7.264   7.027
89465SOL    HW270293   4.451   7.350   6.934
89466SOL     OW70294   4.579   4.834   6.072
89466SOL    HW170295   4.514   4.764   6.069
89466SOL    HW270296   4.605   4.847   5.981
89467SOL     OW70297  13.171   8.242  13.311
89467SOL    HW170298  13.120   8.209  13.385
89467SOL    HW270299  13.202   8.328  13.339
89468SOL     OW70300   4.316  13.249   5.633
89468SOL    HW170301   4.408  13.223   5.624
89468SOL    HW270302   4.316  13.314   5.703
89469SOL     OW70303   0.122   1.847   9.442
89469SOL    HW170304   0.110   1.753   9.457
89469SOL    HW270305   0.105   1.887   9.527
89470SOL     OW70306   0.924  11.854  12.072
89470SOL    HW170307   0.944  11.813  12.156
89470SOL    HW270308   0.975  11.804  12.008
89471SOL     OW70309   1.825  11.102  12.170
89471SOL    HW170310   1.754  11.040  12.153
89471SOL    HW270311   1.876  11.102  12.090
89472SOL     OW70312  13.795  14.010   7.228
89472SOL    HW170313  13.853  14.085   7.242
89472SOL    HW270314  13.784  14.006   7.133
89473SOL     OW70315  11.627  11.170   5.745
89473SOL    HW170316  11.616  11.232   5.673
89473SOL    HW270317  11.722  11.162   5.755
89474SOL     OW70318  14.815   3.091  14.609
89474SOL    HW170319  14.864   3.164  14.573
89474SOL    HW270320  14.877   3.018  14.607
89475SOL     OW70321  13.779  13.861  10.713
89475SOL    HW170322  13.816  13.776  10.736
89475SOL    HW270323  13.789  13.867  10.618
89476SOL     OW70324   2.563   4.539   3.657
89476SOL    HW170325   2.547   4.518   3.565
89476SOL    HW270326   2.596   4.457   3.694
89477SOL     OW70327   7.805   6.704  12.148
89477SOL    HW170328   7.888   6.670  12.114
89477SOL    HW270329   7.814   6.800  12.141
89478SOL     OW70330   6.007   0.173   4.469
89478SOL    HW170331   5.959   0.230   4.530
89478SOL    HW270332   5.939   0.116   4.432
89479SOL     OW70333  11.703   9.934   9.863
89479SOL    HW170334  11.711  10.029   9.878
89479SOL    HW270335  11.754   9.919   9.783
89480SOL     OW70336  14.866  11.155   5.211
89480SOL    HW170337  14.813  11.104   5.148
89480SOL    HW270338   0.075  11.115   5.207
89481SOL     OW70339   2.009   3.497   9.767
89481SOL    HW170340   1.932   3.472   9.818
89481SOL    HW270341   2.079   3.442   9.802
89482SOL     OW70342   9.866   6.403   3.832
89482SOL    HW170343   9.921   6.369   3.761
89482SOL    HW270344   9.808   6.330   3.853
89483SOL     OW70345   2.479   7.071   3.612
89483SOL    HW170346   2.526   6.989   3.599
89483SOL    HW270347   2.517   7.108   3.691
89484SOL     OW70348   8.173   4.087   0.053
89484SOL    HW170349   8.172   3.994   0.032
89484SOL    HW270350   8.102   4.099   0.116
89485SOL     OW70351  13.681   4.901   8.015
89485SOL    HW170352  13.650   4.906   8.106
89485SOL    HW270353  13.640   4.823   7.979
89486SOL     OW70354   9.773   1.627   4.547
89486SOL    HW170355   9.778   1.722   4.546
89486SOL    HW270356   9.784   1.601   4.456
89487SOL     OW70357   6.570  10.847   1.717
89487SOL    HW170358   6.499  10.784   1.725
89487SOL    HW270359   6.562  10.881   1.628
89488SOL     OW70360   9.793   2.253  10.916
89488SOL    HW170361   9.714   2.283  10.873
89488SOL    HW270362   9.864   2.302  10.874
89489SOL     OW70363  13.247  14.270   8.092
89489SOL    HW170364  13.163  14.312   8.078
89489SOL    HW270365  13.229  14.176   8.080
89490SOL     OW70366   1.886   3.049   0.519
89490SOL    HW170367   1.806   3.097   0.496
89490SOL    HW270368   1.906   2.998   0.440
89491SOL     OW70369   4.700   9.994   9.514
89491SOL    HW170370   4.769  10.054   9.541
89491SOL    HW270371   4.648  10.044   9.451
89492SOL     OW70372   7.325   1.628  11.291
89492SOL    HW170373   7.272   1.595  11.219
89492SOL    HW270374   7.262   1.646  11.361
89493SOL     OW70375   1.302  10.035  10.569
89493SOL    HW170376   1.368  10.023  10.638
89493SOL    HW270377   1.273  10.126  10.579
89494SOL     OW70378   5.781  14.235   1.299
89494SOL    HW170379   5.839  14.309   1.282
89494SOL    HW270380   5.814  14.196   1.380
89495SOL     OW70381   3.436  11.414   3.270
89495SOL    HW170382   3.399  11.332   3.236
89495SOL    HW270383   3.475  11.456   3.193
89496SOL     OW70384   1.975   2.860  12.734
89496SOL    HW170385   1.993   2.954  12.736
89496SOL    HW270386   2.019   2.829  12.656
89497SOL     OW70387  11.758   4.905   3.662
89497SOL    HW170388  11.797   4.886   3.748
89497SOL    HW270389  11.797   4.840   3.604
89498SOL     OW70390   0.616   4.723   6.420
89498SOL    HW170391   0.610   4.707   6.515
89498SOL    HW270392   0.628   4.636   6.382
89499SOL     OW70393  10.957   8.076  10.092
89499SOL    HW170394  11.024   8.017  10.128
89499SOL    HW270395  10.876   8.051  10.137
89500SOL     OW70396   7.773   8.868   4.283
89500SOL    HW170397   7.704   8.896   4.342
89500SOL    HW270398   7.850   8.917   4.311
89501SOL     OW70399   5.618  13.247  10.035
89501SOL    HW170400   5.665  13.170  10.005
89501SOL    HW270401   5.541  13.213  10.082
89502SOL     OW70402   1.761   6.049  12.090
89502SOL    HW170403   1.836   6.081  12.040
89502SOL    HW270404   1.724   6.127  12.130
89503SOL     OW70405  13.100   2.461   4.747
89503SOL    HW170406  13.046   2.446   4.824
89503SOL    HW270407  13.182   2.416   4.766
89504SOL     OW70408  13.661  12.691  14.407
89504SOL    HW170409  13.632  12.632  14.336
89504SOL    HW270410  13.597  12.762  14.407
89505SOL     OW70411  12.430  11.585   5.700
89505SOL    HW170412  12.406  11.662   5.649
89505SOL    HW270413  12.522  11.569   5.677
89506SOL     OW70414   6.413   5.652  14.551
89506SOL    HW170415   6.376   5.727  14.597
89506SOL    HW270416   6.505   5.650  14.577
89507SOL     OW70417   0.492   1.979   2.585
89507SOL    HW170418   0.398   1.989   2.600
89507SOL    HW270419   0.516   1.901   2.636
89508SOL     OW70420   3.109  12.089   3.964
89508SOL    HW170421   3.078  12.115   4.051
89508SOL    HW270422   3.089  12.165   3.909
89509SOL     OW70423   3.754   1.186   7.214
89509SOL    HW170424   3.839   1.195   7.258
89509SOL    HW270425   3.704   1.263   7.243
89510SOL     OW70426  13.193  12.923   8.909
89510SOL    HW170427  13.262  12.857   8.918
89510SOL    HW270428  13.116  12.882   8.948
89511SOL     OW70429  12.996   1.678   2.402
89511SOL    HW170430  13.040   1.621   2.464
89511SOL    HW270431  12.918   1.710   2.449
89512SOL     OW70432   4.121   5.481  12.299
89512SOL    HW170433   4.196   5.531  12.331
89512SOL    HW270434   4.122   5.494  12.204
89513SOL     OW70435  12.370   0.341   8.835
89513SOL    HW170436  12.279   0.357   8.862
89513SOL    HW270437  12.421   0.407   8.883
89514SOL     OW70438   3.316   8.763   5.144
89514SOL    HW170439   3.234   8.806   5.119
89514SOL    HW270440   3.378   8.835   5.155
89515SOL     OW70441   7.941   5.288   7.962
89515SOL    HW170442   7.864   5.328   8.002
89515SOL    HW270443   7.908   5.241   7.885
89516SOL     OW70444  10.784   7.319  13.223
89516SOL    HW170445  10.837   7.345  13.298
89516SOL    HW270446  10.831   7.354  13.147
89517SOL     OW70447   0.977   6.736   9.583
89517SOL    HW170448   1.045   6.669   9.585
89517SOL    HW270449   0.975   6.765   9.491
89518SOL     OW70450   1.088   3.869   3.058
89518SOL    HW170451   1.015   3.928   3.079
89518SOL    HW270452   1.055   3.814   2.986
89519SOL     OW70453  14.038  11.997   3.830
89519SOL    HW170454  14.096  12.074   3.825
89519SOL    HW270455  14.019  11.988   3.923
89520SOL     OW70456   1.327  14.099   1.577
89520SOL    HW170457   1.236  14.069   1.586
89520SOL    HW270458   1.380  14.022   1.594
89521SOL     OW70459   1.061   0.950   8.805
89521SOL    HW170460   0.984   1.006   8.795
89521SOL    HW270461   1.100   0.977   8.888
89522SOL     OW70462   3.880   4.178   2.939
89522SOL    HW170463   3.877   4.154   2.846
89522SOL    HW270464   3.845   4.102   2.985
89523SOL     OW70465   9.866   2.302   6.714
89523SOL    HW170466   9.927   2.270   6.648
89523SOL    HW270467   9.811   2.227   6.735
89524SOL     OW70468   6.917   7.793  11.982
89524SOL    HW170469   6.862   7.869  12.002
89524SOL    HW270470   6.922   7.745  12.064
89525SOL     OW70471  11.696  12.002   2.538
89525SOL    HW170472  11.740  11.952   2.469
89525SOL    HW270473  11.750  12.081   2.549
89526SOL     OW70474  13.462   6.467   5.679
89526SOL    HW170475  13.404   6.501   5.610
89526SOL    HW270476  13.412   6.476   5.760
89527SOL     OW70477   4.873   6.028  12.274
89527SOL    HW170478   4.900   6.111  12.315
89527SOL    HW270479   4.881   5.963  12.344
89528SOL     OW70480  12.099   7.679   0.164
89528SOL    HW170481  12.005   7.681   0.142
89528SOL    HW270482  12.102   7.701   0.257
89529SOL     OW70483   3.974   6.006  14.276
89529SOL    HW170484   3.963   6.092  14.235
89529SOL    HW270485   4.067   6.000  14.295
89530SOL     OW70486   8.072   0.143   3.198
89530SOL    HW170487   8.037   0.223   3.158
89530SOL    HW270488   8.031   0.140   3.285
89531SOL     OW70489   0.868  10.679  12.127
89531SOL    HW170490   0.782  10.696  12.089
89531SOL    HW270491   0.854  10.606  12.187
89532SOL     OW70492   2.686   7.620   4.042
89532SOL    HW170493   2.741   7.607   3.965
89532SOL    HW270494   2.721   7.698   4.084
89533SOL     OW70495   4.184  12.320   2.632
89533SOL    HW170496   4.199  12.399   2.684
89533SOL    HW270497   4.134  12.262   2.689
89534SOL     OW70498   9.626   7.985   2.005
89534SOL    HW170499   9.670   8.048   1.948
89534SOL    HW270500   9.648   7.900   1.967
89535SOL     OW70501  13.748  12.291  11.875
89535SOL    HW170502  13.654  12.300  11.888
89535SOL    HW270503  13.767  12.346  11.799
89536SOL     OW70504   8.470   2.904   9.350
89536SOL    HW170505   8.477   2.809   9.359
89536SOL    HW270506   8.502   2.938   9.434
89537SOL     OW70507   2.144  10.099   5.660
89537SOL    HW170508   2.096  10.161   5.715
89537SOL    HW270509   2.232  10.136   5.653
89538SOL     OW70510  10.009   6.767  13.914
89538SOL    HW170511   9.952   6.842  13.895
89538SOL    HW270512   9.980   6.737  14.000
89539SOL     OW70513   5.916  10.583   1.896
89539SOL    HW170514   5.898  10.644   1.825
89539SOL    HW270515   5.920  10.497   1.852
89540SOL     OW70516   2.925  11.257   7.606
89540SOL    HW170517   3.014  11.288   7.622
89540SOL    HW270518   2.916  11.181   7.663
89541SOL     OW70519   0.063  12.654   5.736
89541SOL    HW170520   0.048  12.644   5.642
89541SOL    HW270521   0.156  12.635   5.748
89542SOL     OW70522   1.519  13.747  11.131
89542SOL    HW170523   1.582  13.781  11.194
89542SOL    HW270524   1.558  13.666  11.098
89543SOL     OW70525  12.956   7.212  11.221
89543SOL    HW170526  12.977   7.172  11.137
89543SOL    HW270527  13.031   7.269  11.240
89544SOL     OW70528   6.141   5.761   4.341
89544SOL    HW170529   6.139   5.683   4.286
89544SOL    HW270530   6.072   5.747   4.406
89545SOL     OW70531   7.405  14.167   4.275
89545SOL    HW170532   7.376  14.081   4.306
89545SOL    HW270533   7.413  14.219   4.355
89546SOL     OW70534  13.572   7.523  13.759
89546SOL    HW170535  13.574   7.574  13.678
89546SOL    HW270536  13.501   7.460  13.746
89547SOL     OW70537   7.035   8.866   8.036
89547SOL    HW170538   6.984   8.895   7.960
89547SOL    HW270539   7.041   8.943   8.092
89548SOL     OW70540   1.885  13.253   4.269
89548SOL    HW170541   1.931  13.307   4.334
89548SOL    HW270542   1.813  13.213   4.317
89549SOL     OW70543   0.450   0.458   0.886
89549SOL    HW170544   0.480   0.528   0.944
89549SOL    HW270545   0.427   0.502   0.804
89550SOL     OW70546  13.649  12.355  10.110
89550SOL    HW170547  13.722  12.311  10.151
89550SOL    HW270548  13.577  12.347  10.174
89551SOL     OW70549  11.049   1.404   8.645
89551SOL    HW170550  10.981   1.447   8.697
89551SOL    HW270551  11.014   1.403   8.556
89552SOL     OW70552  11.813  11.623   0.336
89552SOL    HW170553  11.812  11.614   0.241
89552SOL    HW270554  11.731  11.583   0.365
89553SOL     OW70555  12.892  10.699   4.452
89553SOL    HW170556  12.891  10.604   4.448
89553SOL    HW270557  12.808  10.724   4.489
89554SOL     OW70558  13.677   1.780  11.314
89554SOL    HW170559  13.653   1.872  11.304
89554SOL    HW270560  13.718   1.776  11.401
89555SOL     OW70561  11.093   0.084  10.549
89555SOL    HW170562  11.098   0.076  10.644
89555SOL    HW270563  11.166   0.141  10.526
89556SOL     OW70564   2.319   0.073  11.357
89556SOL    HW170565   2.347   0.164  11.360
89556SOL    HW270566   2.242   0.074  11.299
89557SOL     OW70567   3.598   2.995  11.569
89557SOL    HW170568   3.683   3.028  11.599
89557SOL    HW270569   3.549   3.073  11.546
89558SOL     OW70570  12.611  14.616  12.842
89558SOL    HW170571  12.585  14.553  12.775
89558SOL    HW270572  12.682  14.573  12.889
89559SOL     OW70573   0.832   8.161  11.177
89559SOL    HW170574   0.911   8.156  11.230
89559SOL    HW270575   0.840   8.089  11.115
89560SOL     OW70576   7.730   9.726   0.114
89560SOL    HW170577   7.814   9.739   0.158
89560SOL    HW270578   7.725   9.632   0.097
89561SOL     OW70579  12.940  10.228  13.555
89561SOL    HW170580  12.943  10.207  13.462
89561SOL    HW270581  13.029  10.212  13.586
89562SOL     OW70582  11.426  10.550   7.831
89562SOL    HW170583  11.339  10.540   7.792
89562SOL    HW270584  11.412  10.535   7.924
89563SOL     OW70585   5.394   8.723   4.191
89563SOL    HW170586   5.407   8.802   4.243
89563SOL    HW270587   5.311   8.687   4.223
89564SOL     OW70588  14.021   9.099   5.356
89564SOL    HW170589  13.932   9.123   5.332
89564SOL    HW270590  14.066   9.183   5.364
89565SOL     OW70591  14.433   9.317   5.245
89565SOL    HW170592  14.389   9.232   5.248
89565SOL    HW270593  14.512   9.305   5.299
89566SOL     OW70594   8.356   8.070  11.646
89566SOL    HW170595   8.373   8.135  11.714
89566SOL    HW270596   8.265   8.043  11.661
89567SOL     OW70597   1.315   3.134  14.647
89567SOL    HW170598   1.355   3.047  14.648
89567SOL    HW270599   1.333   3.168  14.559
89568SOL     OW70600   0.645   7.695   0.203
89568SOL    HW170601   0.561   7.739   0.191
89568SOL    HW270602   0.693   7.751   0.264
89569SOL     OW70603  14.359   7.719  13.663
89569SOL    HW170604  14.388   7.810  13.662
89569SOL    HW270605  14.303   7.711  13.586
89570SOL     OW70606   5.590  13.650   3.311
89570SOL    HW170607   5.678  13.685   3.322
89570SOL    HW270608   5.545  13.714   3.256
89571SOL     OW70609  13.637   2.196   5.388
89571SOL    HW170610  13.633   2.108   5.427
89571SOL    HW270611  13.729   2.221   5.397
89572SOL     OW70612   0.953  12.749   6.205
89572SOL    HW170613   0.961  12.781   6.295
89572SOL    HW270614   0.880  12.687   6.209
89573SOL     OW70615   6.584   9.624   7.773
89573SOL    HW170616   6.628   9.539   7.780
89573SOL    HW270617   6.655   9.688   7.773
89574SOL     OW70618  11.861   0.976   3.251
89574SOL    HW170619  11.823   0.888   3.241
89574SOL    HW270620  11.852   1.017   3.165
89575SOL     OW70621   8.732   6.109  12.220
89575SOL    HW170622   8.804   6.047  12.207
89575SOL    HW270623   8.734   6.131  12.313
89576SOL     OW70624  13.062  10.903   2.098
89576SOL    HW170625  13.088  10.819   2.137
89576SOL    HW270626  13.111  10.908   2.017
89577SOL     OW70627   3.304  12.125  13.021
89577SOL    HW170628   3.328  12.136  13.113
89577SOL    HW270629   3.269  12.211  12.995
89578SOL     OW70630   1.339   9.843   3.848
89578SOL    HW170631   1.281   9.773   3.878
89578SOL    HW270632   1.357   9.894   3.927
89579SOL     OW70633   2.332   2.824   7.692
89579SOL    HW170634   2.385   2.765   7.638
89579SOL    HW270635   2.368   2.814   7.781
89580SOL     OW70636   3.111   2.628   3.724
89580SOL    HW170637   3.135   2.719   3.742
89580SOL    HW270638   3.108   2.586   3.810
89581SOL     OW70639  12.136   3.599   2.533
89581SOL    HW170640  12.187   3.552   2.467
89581SOL    HW270641  12.196   3.610   2.607
89582SOL     OW70642   2.542   2.175   7.050
89582SOL    HW170643   2.496   2.122   6.985
89582SOL    HW270644   2.627   2.194   7.009
89583SOL     OW70645  10.623  10.217   1.393
89583SOL    HW170646  10.543  10.270   1.393
89583SOL    HW270647  10.692  10.279   1.418
89584SOL     OW70648   6.442   8.918   5.920
89584SOL    HW170649   6.474   9.008   5.923
89584SOL    HW270650   6.425   8.902   5.827
89585SOL     OW70651  11.057  14.008   1.076
89585SOL    HW170652  11.014  13.940   1.128
89585SOL    HW270653  10.991  14.035   1.012
89586SOL     OW70654   8.317   6.324   6.753
89586SOL    HW170655   8.227   6.354   6.741
89586SOL    HW270656   8.331   6.261   6.682
89587SOL     OW70657   3.401   1.832   3.463
89587SOL    HW170658   3.489   1.846   3.497
89587SOL    HW270659   3.397   1.738   3.446
89588SOL     OW70660   2.507   2.714   9.204
89588SOL    HW170661   2.468   2.759   9.279
89588SOL    HW270662   2.493   2.774   9.130
89589SOL     OW70663   1.094   1.392  14.189
89589SOL    HW170664   1.148   1.464  14.221
89589SOL    HW270665   1.010   1.404  14.233
89590SOL     OW70666   5.828   0.807  11.957
89590SOL    HW170667   5.764   0.740  11.979
89590SOL    HW270668   5.905   0.785  12.009
89591SOL     OW70669   5.712   0.200  13.930
89591SOL    HW170670   5.757   0.176  14.011
89591SOL    HW270671   5.625   0.228  13.958
89592SOL     OW70672   3.751   8.176   9.543
89592SOL    HW170673   3.661   8.196   9.568
89592SOL    HW270674   3.743   8.138   9.455
89593SOL     OW70675   7.354   8.294   1.035
89593SOL    HW170676   7.320   8.213   0.996
89593SOL    HW270677   7.281   8.329   1.085
89594SOL     OW70678   0.373   2.346  10.453
89594SOL    HW170679   0.313   2.419  10.440
89594SOL    HW270680   0.407   2.327  10.365
89595SOL     OW70681  13.446   4.804   9.993
89595SOL    HW170682  13.432   4.759  10.077
89595SOL    HW270683  13.538   4.789   9.973
89596SOL     OW70684   0.844   8.781   9.231
89596SOL    HW170685   0.877   8.701   9.272
89596SOL    HW270686   0.837   8.758   9.138
89597SOL     OW70687   6.538  10.041  10.434
89597SOL    HW170688   6.529   9.977  10.363
89597SOL    HW270689   6.516  10.125  10.394
89598SOL     OW70690  12.365   8.332   1.853
89598SOL    HW170691  12.383   8.374   1.937
89598SOL    HW270692  12.430   8.262   1.846
89599SOL     OW70693   0.965   5.863   7.823
89599SOL    HW170694   1.047   5.905   7.796
89599SOL    HW270695   0.993   5.786   7.872
89600SOL     OW70696   5.990   4.706   9.155
89600SOL    HW170697   5.970   4.781   9.099
89600SOL    HW270698   6.040   4.647   9.098
89601SOL     OW70699   6.892   2.594   8.096
89601SOL    HW170700   6.951   2.551   8.158
89601SOL    HW270701   6.804   2.568   8.123
89602SOL     OW70702  13.941   5.724  12.732
89602SOL    HW170703  13.884   5.785  12.779
89602SOL    HW270704  13.882   5.658  12.696
89603SOL     OW70705  12.507   0.610   8.327
89603SOL    HW170706  12.456   0.664   8.387
89603SOL    HW270707  12.532   0.533   8.379
89604SOL     OW70708   6.562  11.530   5.031
89604SOL    HW170709   6.627  11.581   4.982
89604SOL    HW270710   6.487  11.524   4.972
89605SOL     OW70711   4.054  13.349  10.194
89605SOL    HW170712   4.078  13.305  10.276
89605SOL    HW270713   3.959  13.344  10.191
89606SOL     OW70714  12.142   0.264   0.788
89606SOL    HW170715  12.130   0.256   0.882
89606SOL    HW270716  12.055   0.289   0.755
89607SOL     OW70717   9.799   0.828  12.474
89607SOL    HW170718   9.807   0.733  12.469
89607SOL    HW270719   9.850   0.853  12.551
89608SOL     OW70720   7.877  11.590   4.206
89608SOL    HW170721   7.964  11.623   4.185
89608SOL    HW270722   7.859  11.526   4.138
89609SOL     OW70723  13.794   5.938   3.889
89609SOL    HW170724  13.867   5.993   3.916
89609SOL    HW270725  13.826   5.848   3.897
89610SOL     OW70726  12.124  14.724   2.734
89610SOL    HW170727  12.158  14.657   2.794
89610SOL    HW270728  12.143  14.689   2.647
89611SOL     OW70729   4.101   0.982  12.007
89611SOL    HW170730   4.186   0.940  12.008
89611SOL    HW270731   4.102   1.042  12.081
89612SOL     OW70732   1.608  13.517  10.433
89612SOL    HW170733   1.684  13.462  10.451
89612SOL    HW270734   1.640  13.606  10.445
89613SOL     OW70735  10.130  12.276   4.904
89613SOL    HW170736  10.060  12.300   4.964
89613SOL    HW270737  10.118  12.182   4.888
89614SOL     OW70738   8.697   1.763  11.371
89614SOL    HW170739   8.766   1.714  11.417
89614SOL    HW270740   8.688   1.844  11.420
89615SOL     OW70741  13.196   8.123   5.748
89615SOL    HW170742  13.252   8.051   5.779
89615SOL    HW270743  13.184   8.105   5.655
89616SOL     OW70744   9.889  10.198   5.233
89616SOL    HW170745   9.875  10.244   5.150
89616SOL    HW270746   9.802  10.197   5.275
89617SOL     OW70747   9.938  12.757  10.568
89617SOL    HW170748   9.850  12.772  10.602
89617SOL    HW270749   9.952  12.663  10.576
89618SOL     OW70750   9.421   7.392  11.533
89618SOL    HW170751   9.445   7.394  11.626
89618SOL    HW270752   9.327   7.374  11.534
89619SOL     OW70753   6.186   3.308  11.239
89619SOL    HW170754   6.132   3.246  11.190
89619SOL    HW270755   6.250   3.340  11.175
89620SOL     OW70756  11.490   8.743   6.884
89620SOL    HW170757  11.557   8.684   6.919
89620SOL    HW270758  11.414   8.729   6.941
89621SOL     OW70759  14.317  12.009   2.573
89621SOL    HW170760  14.297  11.927   2.619
89621SOL    HW270761  14.261  12.008   2.496
89622SOL     OW70762  12.246  13.487  10.748
89622SOL    HW170763  12.299  13.505  10.670
89622SOL    HW270764  12.283  13.543  10.816
89623SOL     OW70765   1.130   7.867  10.630
89623SOL    HW170766   1.063   7.815  10.586
89623SOL    HW270767   1.208   7.812  10.629
89624SOL     OW70768   4.548  13.685   6.158
89624SOL    HW170769   4.465  13.726   6.183
89624SOL    HW270770   4.596  13.753   6.111
89625SOL     OW70771   0.444  10.544  10.355
89625SOL    HW170772   0.469  10.468  10.302
89625SOL    HW270773   0.433  10.508  10.443
89626SOL     OW70774   7.429   0.566   1.637
89626SOL    HW170775   7.355   0.611   1.677
89626SOL    HW270776   7.506   0.602   1.681
89627SOL     OW70777   9.893   7.197   4.499
89627SOL    HW170778   9.859   7.139   4.430
89627SOL    HW270779   9.935   7.138   4.562
89628SOL     OW70780   2.703   5.771  12.010
89628SOL    HW170781   2.780   5.749  11.957
89628SOL    HW270782   2.631   5.772  11.947
89629SOL     OW70783  12.217   5.027   5.053
89629SOL    HW170784  12.303   5.069   5.062
89629SOL    HW270785  12.220   4.954   5.114
89630SOL     OW70786  11.096   4.967   5.455
89630SOL    HW170787  11.010   5.001   5.480
89630SOL    HW270788  11.077   4.909   5.381
89631SOL     OW70789   3.899  12.994   7.638
89631SOL    HW170790   3.863  13.026   7.555
89631SOL    HW270791   3.835  13.023   7.703
89632SOL     OW70792   6.244  14.470   4.038
89632SOL    HW170793   6.163  14.459   3.989
89632SOL    HW270794   6.221  14.529   4.109
89633SOL     OW70795  13.866  10.472   2.802
89633SOL    HW170796  13.843  10.401   2.862
89633SOL    HW270797  13.864  10.432   2.715
89634SOL     OW70798   0.556   1.424  10.780
89634SOL    HW170799   0.572   1.331  10.795
89634SOL    HW270800   0.642   1.465  10.787
89635SOL     OW70801   5.452  10.984   9.606
89635SOL    HW170802   5.405  11.047   9.660
89635SOL    HW270803   5.477  10.915   9.667
89636SOL     OW70804  12.895   0.310   3.238
89636SOL    HW170805  12.820   0.369   3.228
89636SOL    HW270806  12.893   0.283   3.330
89637SOL     OW70807   4.904   5.881   7.591
89637SOL    HW170808   4.944   5.795   7.590
89637SOL    HW270809   4.977   5.942   7.593
89638SOL     OW70810  13.869   3.498   3.457
89638SOL    HW170811  13.921   3.541   3.524
89638SOL    HW270812  13.819   3.570   3.416
89639SOL     OW70813   0.621  12.134   6.882
89639SOL    HW170814   0.601  12.177   6.965
89639SOL    HW270815   0.592  12.044   6.893
89640SOL     OW70816  12.723   8.498   1.793
89640SOL    HW170817  12.786   8.552   1.840
89640SOL    HW270818  12.639   8.517   1.834
89641SOL     OW70819  10.920  14.090   0.816
89641SOL    HW170820  10.856  14.084   0.745
89641SOL    HW270821  10.935  14.184   0.827
89642SOL     OW70822   0.364  14.216   1.638
89642SOL    HW170823   0.358  14.125   1.611
89642SOL    HW270824   0.425  14.256   1.575
89643SOL     OW70825   9.177  13.459  13.292
89643SOL    HW170826   9.141  13.498  13.372
89643SOL    HW270827   9.264  13.428  13.318
89644SOL     OW70828   7.281  12.685   1.201
89644SOL    HW170829   7.369  12.659   1.176
89644SOL    HW270830   7.238  12.708   1.118
89645SOL     OW70831   0.409  13.015   7.672
89645SOL    HW170832   0.461  13.004   7.752
89645SOL    HW270833   0.444  13.095   7.632
89646SOL     OW70834   5.117   5.317  10.919
89646SOL    HW170835   5.044   5.256  10.923
89646SOL    HW270836   5.154   5.316  11.007
89647SOL     OW70837   4.525   7.792   9.256
89647SOL    HW170838   4.545   7.880   9.224
89647SOL    HW270839   4.533   7.798   9.351
89648SOL     OW70840   1.450   4.727   6.582
89648SOL    HW170841   1.391   4.697   6.651
89648SOL    HW270842   1.391   4.763   6.515
89649SOL     OW70843   9.782   5.739  14.170
89649SOL    HW170844   9.739   5.658  14.199
89649SOL    HW270845   9.829   5.770  14.247
89650SOL     OW70846  10.078   9.984   1.958
89650SOL    HW170847  10.064  10.031   2.040
89650SOL    HW270848  10.014  10.021   1.898
89651SOL     OW70849   8.140   4.635   6.145
89651SOL    HW170850   8.083   4.662   6.217
89651SOL    HW270851   8.227   4.661   6.173
89652SOL     OW70852  12.356   5.514  14.029
89652SOL    HW170853  12.394   5.448  14.088
89652SOL    HW270854  12.291   5.466  13.978
89653SOL     OW70855   4.100   3.210   0.442
89653SOL    HW170856   4.104   3.305   0.453
89653SOL    HW270857   4.010   3.187   0.463
89654SOL     OW70858   0.648  12.900   8.774
89654SOL    HW170859   0.734  12.911   8.734
89654SOL    HW270860   0.609  12.825   8.728
89655SOL     OW70861   7.803  13.467   4.255
89655SOL    HW170862   7.786  13.552   4.213
89655SOL    HW270863   7.723  13.448   4.304
89656SOL     OW70864   7.530   8.270   4.319
89656SOL    HW170865   7.579   8.239   4.243
89656SOL    HW270866   7.445   8.298   4.283
89657SOL     OW70867  10.145   7.547  11.228
89657SOL    HW170868  10.192   7.474  11.268
89657SOL    HW270869  10.200   7.623  11.243
89658SOL     OW70870   4.902   1.648  14.547
89658SOL    HW170871   4.955   1.569  14.540
89658SOL    HW270872   4.812   1.616  14.554
89659SOL     OW70873   6.142   9.065   0.002
89659SOL    HW170874   6.175   9.153  14.860
89659SOL    HW270875   6.157   9.054   0.095
89660SOL     OW70876  10.800   5.856   1.751
89660SOL    HW170877  10.795   5.929   1.813
89660SOL    HW270878  10.744   5.883   1.678
89661SOL     OW70879   8.648  11.383  13.716
89661SOL    HW170880   8.571  11.369  13.771
89661SOL    HW270881   8.694  11.456  13.757
89662SOL     OW70882  14.219  11.905  11.412
89662SOL    HW170883  14.188  11.979  11.360
89662SOL    HW270884  14.294  11.939  11.461
89663SOL     OW70885  10.714   2.301   7.545
89663SOL    HW170886  10.640   2.243   7.525
89663SOL    HW270887  10.701   2.325   7.636
89664SOL     OW70888  13.680   2.313   1.142
89664SOL    HW170889  13.741   2.239   1.143
89664SOL    HW270890  13.736   2.389   1.126
89665SOL     OW70891   8.548  12.255  12.697
89665SOL    HW170892   8.600  12.334  12.712
89665SOL    HW270893   8.613  12.186  12.683
89666SOL     OW70894   5.997  13.142   3.419
89666SOL    HW170895   6.008  13.047   3.416
89666SOL    HW270896   5.934  13.157   3.489
89667SOL     OW70897   7.766   0.323   8.415
89667SOL    HW170898   7.851   0.367   8.413
89667SOL    HW270899   7.741   0.317   8.323
89668SOL     OW70900   0.843   2.046  10.515
89668SOL    HW170901   0.748   2.051  10.525
89668SOL    HW270902   0.858   1.965  10.466
89669SOL     OW70903   5.164   6.304  10.450
89669SOL    HW170904   5.175   6.251  10.529
89669SOL    HW270905   5.251   6.308  10.411
89670SOL     OW70906   6.959   5.043   9.730
89670SOL    HW170907   7.034   5.037   9.670
89670SOL    HW270908   6.998   5.035   9.817
89671SOL     OW70909   5.338  12.425   3.672
89671SOL    HW170910   5.340  12.333   3.648
89671SOL    HW270911   5.269  12.463   3.617
89672SOL     OW70912   5.741  12.684  14.231
89672SOL    HW170913   5.698  12.757  14.186
89672SOL    HW270914   5.690  12.672  14.311
89673SOL     OW70915   9.840   5.941   1.964
89673SOL    HW170916   9.851   5.990   1.882
89673SOL    HW270917   9.800   6.003   2.025
89674SOL     OW70918  14.250  11.369   6.746
89674SOL    HW170919  14.293  11.353   6.830
89674SOL    HW270920  14.238  11.282   6.709
89675SOL     OW70921   6.822   7.005   8.451
89675SOL    HW170922   6.907   7.047   8.462
89675SOL    HW270923   6.842   6.912   8.444
89676SOL     OW70924   9.388   0.671   7.258
89676SOL    HW170925   9.343   0.754   7.244
89676SOL    HW270926   9.371   0.620   7.179
89677SOL     OW70927   6.902   6.515   4.086
89677SOL    HW170928   6.883   6.602   4.120
89677SOL    HW270929   6.992   6.497   4.115
89678SOL     OW70930  10.679   6.517   2.228
89678SOL    HW170931  10.747   6.457   2.260
89678SOL    HW270932  10.598   6.467   2.234
89679SOL     OW70933   8.025   2.576   3.370
89679SOL    HW170934   8.004   2.586   3.277
89679SOL    HW270935   8.077   2.653   3.392
89680SOL     OW70936   3.314  10.469   7.135
89680SOL    HW170937   3.220  10.486   7.131
89680SOL    HW270938   3.343  10.475   7.044
89681SOL     OW70939   1.450   6.753   2.114
89681SOL    HW170940   1.541   6.774   2.135
89681SOL    HW270941   1.423   6.820   2.052
89682SOL     OW70942  11.537   9.133   3.187
89682SOL    HW170943  11.517   9.094   3.103
89682SOL    HW270944  11.533   9.061   3.249
89683SOL     OW70945  13.081  10.119   7.448
89683SOL    HW170946  13.002  10.108   7.395
89683SOL    HW270947  13.066  10.064   7.525
89684SOL     OW70948  13.588   0.691   0.821
89684SOL    HW170949  13.667   0.732   0.859
89684SOL    HW270950  13.608   0.597   0.823
89685SOL     OW70951   4.166  14.282   5.395
89685SOL    HW170952   4.141  14.343   5.326
89685SOL    HW270953   4.178  14.336   5.472
89686SOL     OW70954  14.813   2.617  13.325
89686SOL    HW170955   0.027   2.600  13.346
89686SOL    HW270956  14.810   2.711  13.307
89687SOL     OW70957   1.567  12.246  10.997
89687SOL    HW170958   1.605  12.303  10.930
89687SOL    HW270959   1.508  12.188  10.949
89688SOL     OW70960  12.407   9.647   5.556
89688SOL    HW170961  12.446   9.680   5.475
89688SOL    HW270962  12.378   9.559   5.534
89689SOL     OW70963   1.814  10.894   5.404
89689SOL    HW170964   1.789  10.851   5.486
89689SOL    HW270965   1.816  10.824   5.339
89690SOL     OW70966   0.433  14.643   9.668
89690SOL    HW170967   0.377  14.648   9.746
89690SOL    HW270968   0.518  14.615   9.701
89691SOL     OW70969   9.669   8.146   2.220
89691SOL    HW170970   9.638   8.090   2.149
89691SOL    HW270971   9.722   8.088   2.275
89692SOL     OW70972   8.784   1.839   4.571
89692SOL    HW170973   8.812   1.763   4.622
89692SOL    HW270974   8.812   1.820   4.482
89693SOL     OW70975   7.011   8.359   6.253
89693SOL    HW170976   6.947   8.363   6.324
89693SOL    HW270977   6.958   8.348   6.174
89694SOL     OW70978   7.684   0.731   4.097
89694SOL    HW170979   7.757   0.784   4.066
89694SOL    HW270980   7.618   0.794   4.126
89695SOL     OW70981   8.443  11.496   4.620
89695SOL    HW170982   8.463  11.441   4.543
89695SOL    HW270983   8.528  11.530   4.648
89696SOL     OW70984   0.972   6.926  11.141
89696SOL    HW170985   0.983   7.018  11.119
89696SOL    HW270986   0.877   6.912  11.142
89697SOL     OW70987   2.384   2.694   1.137
89697SOL    HW170988   2.311   2.746   1.104
89697SOL    HW270989   2.433   2.754   1.193
89698SOL     OW70990  11.684   3.217   7.680
89698SOL    HW170991  11.641   3.223   7.595
89698SOL    HW270992  11.691   3.123   7.697
89699SOL     OW70993  11.241   0.928   5.604
89699SOL    HW170994  11.252   0.987   5.678
89699SOL    HW270995  11.249   0.840   5.643
89700SOL     OW70996   6.354   7.431   5.824
89700SOL    HW170997   6.272   7.470   5.794
89700SOL    HW270998   6.336   7.403   5.913
89701SOL     OW70999  13.611   6.846  14.278
89701SOL    HW171000  13.580   6.856  14.368
89701SOL    HW271001  13.643   6.933  14.255
89702SOL     OW71002   1.916  11.756   1.828
89702SOL    HW171003   2.011  11.761   1.836
89702SOL    HW271004   1.883  11.770   1.916
89703SOL     OW71005   9.834   4.819  12.224
89703SOL    HW171006   9.905   4.857  12.276
89703SOL    HW271007   9.757   4.822  12.282
89704SOL     OW71008  13.100  11.029   5.031
89704SOL    HW171009  13.192  11.029   5.005
89704SOL    HW271010  13.094  11.099   5.096
89705SOL     OW71011   5.982   1.316   6.011
89705SOL    HW171012   5.962   1.383   5.946
89705SOL    HW271013   6.047   1.357   6.068
89706SOL     OW71014   4.557  11.262   3.908
89706SOL    HW171015   4.608  11.188   3.942
89706SOL    HW271016   4.467  11.242   3.932
89707SOL     OW71017  13.733   5.802   7.041
89707SOL    HW171018  13.793   5.872   7.016
89707SOL    HW271019  13.785   5.722   7.036
89708SOL     OW71020   4.072   9.581   8.255
89708SOL    HW171021   4.050   9.555   8.345
89708SOL    HW271022   4.155   9.629   8.264
89709SOL     OW71023  13.644   3.439   5.590
89709SOL    HW171024  13.638   3.370   5.656
89709SOL    HW271025  13.604   3.401   5.511
89710SOL     OW71026   2.316   7.077   5.799
89710SOL    HW171027   2.224   7.054   5.812
89710SOL    HW271028   2.361   7.033   5.871
89711SOL     OW71029   1.579  10.818  14.714
89711SOL    HW171030   1.606  10.858  14.797
89711SOL    HW271031   1.591  10.724  14.728
89712SOL     OW71032   4.265  14.499   6.271
89712SOL    HW171033   4.275  14.499   6.176
89712SOL    HW271034   4.299  14.584   6.299
89713SOL     OW71035   7.755   3.308   9.917
89713SOL    HW171036   7.716   3.320  10.003
89713SOL    HW271037   7.839   3.354   9.923
89714SOL     OW71038   1.098  10.288  12.791
89714SOL    HW171039   1.029  10.339  12.748
89714SOL    HW271040   1.169  10.350  12.805
89715SOL     OW71041   3.966   5.081  14.281
89715SOL    HW171042   3.881   5.060  14.243
89715SOL    HW271043   3.946   5.143  14.352
89716SOL     OW71044   5.401  12.162   7.057
89716SOL    HW171045   5.328  12.135   7.113
89716SOL    HW271046   5.445  12.080   7.034
89717SOL     OW71047   0.204   2.108  10.498
89717SOL    HW171048   0.259   2.184  10.515
89717SOL    HW271049   0.258   2.033  10.524
89718SOL     OW71050   0.676   7.678   3.067
89718SOL    HW171051   0.668   7.599   3.012
89718SOL    HW271052   0.768   7.704   3.056
89719SOL     OW71053   4.108   6.989  11.666
89719SOL    HW171054   4.013   6.991  11.678
89719SOL    HW271055   4.123   6.922  11.599
89720SOL     OW71056   8.368   9.442  10.916
89720SOL    HW171057   8.349   9.351  10.939
89720SOL    HW271058   8.392   9.483  11.000
89721SOL     OW71059   5.611   0.724  10.002
89721SOL    HW171060   5.543   0.684   9.947
89721SOL    HW271061   5.612   0.816   9.975
89722SOL     OW71062   0.985   4.508   6.354
89722SOL    HW171063   1.003   4.425   6.398
89722SOL    HW271064   0.942   4.483   6.272
89723SOL     OW71065   5.457  13.384   5.311
89723SOL    HW171066   5.431  13.416   5.224
89723SOL    HW271067   5.551  13.401   5.316
89724SOL     OW71068  12.582  13.061   9.360
89724SOL    HW171069  12.673  13.030   9.357
89724SOL    HW271070  12.566  13.080   9.452
89725SOL     OW71071  14.000   2.477   2.454
89725SOL    HW171072  14.020   2.466   2.547
89725SOL    HW271073  14.054   2.551   2.426
89726SOL     OW71074  13.916   6.572   7.658
89726SOL    HW171075  13.922   6.479   7.681
89726SOL    HW271076  13.982   6.583   7.589
89727SOL     OW71077   5.561  11.362   9.092
89727SOL    HW171078   5.629  11.370   9.025
89727SOL    HW271079   5.491  11.314   9.049
89728SOL     OW71080   6.176  12.960   1.795
89728SOL    HW171081   6.251  12.999   1.840
89728SOL    HW271082   6.172  12.871   1.830
89729SOL     OW71083   4.492   7.393  10.174
89729SOL    HW171084   4.402   7.360  10.177
89729SOL    HW271085   4.541   7.326  10.128
89730SOL     OW71086   3.062   3.213  14.864
89730SOL    HW171087   3.106   3.208   0.072
89730SOL    HW271088   3.104   3.288  14.820
89731SOL     OW71089   0.031   2.263   7.643
89731SOL    HW171090   0.114   2.283   7.686
89731SOL    HW271091   0.000   2.184   7.687
89732SOL     OW71092  12.954   6.611   5.890
89732SOL    HW171093  12.990   6.535   5.845
89732SOL    HW271094  12.861   6.591   5.900
89733SOL     OW71095   1.555   7.943  11.877
89733SOL    HW171096   1.580   7.982  11.793
89733SOL    HW271097   1.609   7.864  11.883
89734SOL     OW71098  11.068   2.157   8.015
89734SOL    HW171099  11.046   2.147   7.922
89734SOL    HW271100  11.163   2.152   8.018
89735SOL     OW71101   5.800   8.726   8.658
89735SOL    HW171102   5.739   8.766   8.719
89735SOL    HW271103   5.751   8.718   8.576
89736SOL     OW71104   6.700  11.703   9.499
89736SOL    HW171105   6.629  11.639   9.488
89736SOL    HW271106   6.657  11.788   9.493
89737SOL     OW71107   3.756   8.336   1.011
89737SOL    HW171108   3.783   8.403   0.947
89737SOL    HW271109   3.787   8.254   0.973
89738SOL     OW71110   9.010   5.836   6.269
89738SOL    HW171111   8.947   5.901   6.238
89738SOL    HW271112   8.958   5.771   6.315
89739SOL     OW71113   3.344   9.512   4.200
89739SOL    HW171114   3.430   9.550   4.187
89739SOL    HW271115   3.331   9.454   4.125
89740SOL     OW71116   3.135  12.148   8.831
89740SOL    HW171117   3.151  12.134   8.925
89740SOL    HW271118   3.123  12.059   8.796
89741SOL     OW71119   6.029   4.974  10.576
89741SOL    HW171120   6.035   4.987  10.671
89741SOL    HW271121   6.001   4.883  10.565
89742SOL     OW71122  11.928   5.501   0.608
89742SOL    HW171123  11.914   5.407   0.620
89742SOL    HW271124  11.913   5.538   0.695
89743SOL     OW71125  12.352   0.404   8.180
89743SOL    HW171126  12.376   0.312   8.167
89743SOL    HW271127  12.292   0.403   8.254
89744SOL     OW71128   8.184   3.525  11.435
89744SOL    HW171129   8.239   3.515  11.358
89744SOL    HW271130   8.244   3.553  11.504
89745SOL     OW71131   6.571   8.595  13.516
89745SOL    HW171132   6.535   8.666  13.568
89745SOL    HW271133   6.620   8.542  13.578
89746SOL     OW71134   8.208   9.796  13.490
89746SOL    HW171135   8.214   9.879  13.538
89746SOL    HW271136   8.236   9.818  13.401
89747SOL     OW71137  10.057   1.401  11.642
89747SOL    HW171138  10.038   1.471  11.705
89747SOL    HW271139   9.980   1.344  11.647
89748SOL     OW71140   6.405   0.311  10.197
89748SOL    HW171141   6.356   0.393  10.192
89748SOL    HW271142   6.339   0.243  10.183
89749SOL     OW71143   3.407  13.583   6.594
89749SOL    HW171144   3.379  13.664   6.637
89749SOL    HW271145   3.325  13.544   6.562
89750SOL     OW71146   1.301   9.100   1.960
89750SOL    HW171147   1.261   9.043   1.895
89750SOL    HW271148   1.309   9.045   2.038
89751SOL     OW71149   1.464  10.378   5.110
89751SOL    HW171150   1.397  10.417   5.055
89751SOL    HW271151   1.475  10.439   5.182
89752SOL     OW71152   3.772   9.981   1.452
89752SOL    HW171153   3.756   9.940   1.367
89752SOL    HW271154   3.855  10.027   1.442
89753SOL     OW71155  10.298   1.544   4.949
89753SOL    HW171156  10.335   1.631   4.960
89753SOL    HW271157  10.322   1.497   5.029
89754SOL     OW71158   2.981  12.735   6.423
89754SOL    HW171159   2.945  12.761   6.507
89754SOL    HW271160   3.040  12.662   6.444
89755SOL     OW71161  11.639   5.839  13.876
89755SOL    HW171162  11.551   5.804  13.889
89755SOL    HW271163  11.682   5.830  13.962
89756SOL     OW71164  11.626  13.141   2.620
89756SOL    HW171165  11.707  13.163   2.667
89756SOL    HW271166  11.557  13.188   2.668
89757SOL     OW71167   2.621  12.524   0.019
89757SOL    HW171168   2.698  12.501   0.071
89757SOL    HW271169   2.644  12.606  14.853
89758SOL     OW71170   3.541   2.356  13.436
89758SOL    HW171171   3.521   2.276  13.386
89758SOL    HW271172   3.463   2.411  13.424
89759SOL     OW71173  10.776  10.482   8.558
89759SOL    HW171174  10.857  10.497   8.510
89759SOL    HW271175  10.725  10.424   8.501
89760SOL     OW71176   6.204   8.139  14.062
89760SOL    HW171177   6.157   8.205  14.112
89760SOL    HW271178   6.160   8.056  14.085
89761SOL     OW71179   4.211  11.280   7.022
89761SOL    HW171180   4.214  11.350   7.087
89761SOL    HW271181   4.120  11.278   6.993
89762SOL     OW71182   8.226  13.389  12.457
89762SOL    HW171183   8.205  13.432  12.374
89762SOL    HW271184   8.147  13.341  12.480
89763SOL     OW71185  12.197  10.601   2.713
89763SOL    HW171186  12.184  10.508   2.731
89763SOL    HW271187  12.241  10.603   2.628
89764SOL     OW71188   9.236  14.758   8.883
89764SOL    HW171189   9.170  14.690   8.866
89764SOL    HW271190   9.259  14.747   8.975
89765SOL     OW71191  13.711   8.068   5.048
89765SOL    HW171192  13.620   8.055   5.078
89765SOL    HW271193  13.757   7.990   5.078
89766SOL     OW71194   7.975  14.020   2.363
89766SOL    HW171195   8.017  13.998   2.446
89766SOL    HW271196   7.974  13.937   2.314
89767SOL     OW71197  13.495   0.583   7.276
89767SOL    HW171198  13.556   0.554   7.344
89767SOL    HW271199  13.521   0.535   7.198
89768SOL     OW71200   1.424  10.125   0.865
89768SOL    HW171201   1.424  10.190   0.794
89768SOL    HW271202   1.408  10.175   0.944
89769SOL     OW71203   5.822   3.592  10.969
89769SOL    HW171204   5.911   3.603  10.936
89769SOL    HW271205   5.828   3.525  11.036
89770SOL     OW71206   8.915   7.548   8.486
89770SOL    HW171207   8.893   7.456   8.502
89770SOL    HW271208   9.005   7.545   8.453
89771SOL     OW71209   0.439  12.458   3.942
89771SOL    HW171210   0.347  12.448   3.914
89771SOL    HW271211   0.489  12.417   3.872
89772SOL     OW71212  14.222   3.330   0.548
89772SOL    HW171213  14.305   3.283   0.537
89772SOL    HW271214  14.242   3.420   0.519
89773SOL     OW71215   5.606   1.339   0.626
89773SOL    HW171216   5.556   1.420   0.634
89773SOL    HW271217   5.677   1.348   0.690
89774SOL     OW71218  14.209   9.780  14.549
89774SOL    HW171219  14.251   9.775  14.464
89774SOL    HW271220  14.221   9.871  14.577
89775SOL     OW71221   0.427   1.731   0.123
89775SOL    HW171222   0.339   1.737   0.159
89775SOL    HW271223   0.475   1.803   0.165
89776SOL     OW71224  13.799   0.102  12.621
89776SOL    HW171225  13.732   0.151  12.575
89776SOL    HW271226  13.838   0.046  12.554
89777SOL     OW71227  14.262  13.892   3.192
89777SOL    HW171228  14.211  13.817   3.160
89777SOL    HW271229  14.196  13.957   3.218
89778SOL     OW71230   8.712   0.295  11.280
89778SOL    HW171231   8.640   0.292  11.217
89778SOL    HW271232   8.674   0.265  11.362
89779SOL     OW71233  11.630   3.958  10.792
89779SOL    HW171234  11.706   3.944  10.848
89779SOL    HW271235  11.633   3.885  10.729
89780SOL     OW71236   0.561   1.644   7.584
89780SOL    HW171237   0.632   1.640   7.519
89780SOL    HW271238   0.575   1.566   7.638
89781SOL     OW71239  14.397   5.743  11.548
89781SOL    HW171240  14.323   5.764  11.491
89781SOL    HW271241  14.356   5.711  11.629
89782SOL     OW71242   0.204  10.199  11.267
89782SOL    HW171243   0.285  10.229  11.225
89782SOL    HW271244   0.187  10.113  11.229
89783SOL     OW71245  10.361  12.083   1.448
89783SOL    HW171246  10.407  12.063   1.530
89783SOL    HW271247  10.430  12.113   1.389
89784SOL     OW71248   2.286  10.300  12.353
89784SOL    HW171249   2.224  10.362  12.392
89784SOL    HW271250   2.368  10.317  12.400
89785SOL     OW71251  12.804  12.668   0.017
89785SOL    HW171252  12.749  12.594  14.870
89785SOL    HW271253  12.866  12.632   0.080
89786SOL     OW71254   3.151  12.574   3.575
89786SOL    HW171255   3.238  12.614   3.572
89786SOL    HW271256   3.162  12.491   3.530
89787SOL     OW71257  10.854  12.631   7.595
89787SOL    HW171258  10.885  12.541   7.587
89787SOL    HW271259  10.891  12.662   7.677
89788SOL     OW71260   1.340   7.365   9.508
89788SOL    HW171261   1.376   7.391   9.593
89788SOL    HW271262   1.289   7.440   9.479
89789SOL     OW71263   2.294  10.757   2.734
89789SOL    HW171264   2.242  10.801   2.666
89789SOL    HW271265   2.239  10.762   2.812
89790SOL     OW71266   7.450   0.434   8.106
89790SOL    HW171267   7.491   0.519   8.122
89790SOL    HW271268   7.412   0.409   8.190
89791SOL     OW71269  10.367  12.803   9.346
89791SOL    HW171270  10.449  12.780   9.302
89791SOL    HW271271  10.305  12.736   9.318
89792SOL     OW71272   7.879   6.756   4.878
89792SOL    HW171273   7.862   6.752   4.784
89792SOL    HW271274   7.796   6.785   4.917
89793SOL     OW71275  13.626  10.950  12.958
89793SOL    HW171276  13.602  11.039  12.983
89793SOL    HW271277  13.699  10.927  13.016
89794SOL     OW71278   4.346   7.608   4.283
89794SOL    HW171279   4.274   7.583   4.341
89794SOL    HW271280   4.417   7.632   4.342
89795SOL     OW71281   9.232   1.439   2.856
89795SOL    HW171282   9.171   1.401   2.920
89795SOL    HW271283   9.175   1.482   2.792
89796SOL     OW71284   2.260   9.139  14.146
89796SOL    HW171285   2.223   9.129  14.058
89796SOL    HW271286   2.193   9.188  14.194
89797SOL     OW71287  14.442   8.655   8.973
89797SOL    HW171288  14.515   8.612   8.928
89797SOL    HW271289  14.423   8.732   8.920
89798SOL     OW71290  13.696   2.613   0.877
89798SOL    HW171291  13.758   2.543   0.857
89798SOL    HW271292  13.655   2.634   0.793
89799SOL     OW71293  13.157   1.742   3.323
89799SOL    HW171294  13.150   1.647   3.333
89799SOL    HW271295  13.251   1.758   3.315
89800SOL     OW71296  10.349  11.849  12.642
89800SOL    HW171297  10.335  11.795  12.564
89800SOL    HW271298  10.261  11.866  12.675
89801SOL     OW71299  10.395   0.448   0.680
89801SOL    HW171300  10.449   0.390   0.734
89801SOL    HW271301  10.407   0.535   0.718
89802SOL     OW71302   2.916   2.380   3.297
89802SOL    HW171303   2.849   2.435   3.256
89802SOL    HW271304   2.960   2.439   3.359
89803SOL     OW71305  10.854   1.132   0.339
89803SOL    HW171306  10.800   1.200   0.299
89803SOL    HW271307  10.938   1.174   0.354
89804SOL     OW71308   1.740   7.122   7.590
89804SOL    HW171309   1.722   7.028   7.597
89804SOL    HW271310   1.733   7.140   7.496
89805SOL     OW71311   4.980  10.807  10.108
89805SOL    HW171312   4.918  10.837  10.174
89805SOL    HW271313   5.003  10.718  10.134
89806SOL     OW71314   3.243   0.235  11.883
89806SOL    HW171315   3.157   0.260  11.916
89806SOL    HW271316   3.276   0.314  11.840
89807SOL     OW71317  14.785   9.916   4.221
89807SOL    HW171318  14.818   9.830   4.249
89807SOL    HW271319  14.723   9.895   4.150
89808SOL     OW71320   8.563   6.190  14.441
89808SOL    HW171321   8.635   6.213  14.381
89808SOL    HW271322   8.529   6.274  14.470
89809SOL     OW71323   7.474  12.040   6.665
89809SOL    HW171324   7.381  12.062   6.678
89809SOL    HW271325   7.519  12.082   6.737
89810SOL     OW71326   2.804   1.414  10.453
89810SOL    HW171327   2.864   1.443  10.384
89810SOL    HW271328   2.718   1.447  10.426
89811SOL     OW71329  13.571   4.144   0.603
89811SOL    HW171330  13.658   4.163   0.638
89811SOL    HW271331  13.583   4.144   0.508
89812SOL     OW71332   0.465  13.480  13.414
89812SOL    HW171333   0.431  13.391  13.414
89812SOL    HW271334   0.549  13.474  13.368
89813SOL     OW71335   0.516   9.832   1.340
89813SOL    HW171336   0.440   9.861   1.289
89813SOL    HW271337   0.525   9.898   1.409
89814SOL     OW71338  13.921   0.043  13.576
89814SOL    HW171339  13.957  14.851  13.631
89814SOL    HW271340  13.836   0.063  13.614
89815SOL     OW71341  12.046   6.378   7.982
89815SOL    HW171342  12.005   6.419   8.058
89815SOL    HW271343  12.125   6.336   8.017
89816SOL     OW71344   4.666   7.049  13.503
89816SOL    HW171345   4.683   6.958  13.479
89816SOL    HW271346   4.582   7.070  13.460
89817SOL     OW71347  11.892   4.159  10.563
89817SOL    HW171348  11.848   4.076  10.549
89817SOL    HW271349  11.985   4.138  10.557
89818SOL     OW71350   9.814  11.372  12.522
89818SOL    HW171351   9.891  11.332  12.562
89818SOL    HW271352   9.741  11.343  12.576
89819SOL     OW71353   6.943   9.294   4.041
89819SOL    HW171354   6.943   9.221   3.980
89819SOL    HW271355   6.869   9.348   4.012
89820SOL     OW71356   8.973   1.734  13.645
89820SOL    HW171357   8.890   1.780  13.661
89820SOL    HW271358   8.996   1.757  13.555
89821SOL     OW71359   8.438   6.736  12.149
89821SOL    HW171360   8.351   6.755  12.115
89821SOL    HW271361   8.443   6.641  12.149
89822SOL     OW71362   9.331   0.036   7.709
89822SOL    HW171363   9.325   0.070   7.620
89822SOL    HW271364   9.243   0.004   7.729
89823SOL     OW71365   7.487  13.940  13.067
89823SOL    HW171366   7.497  13.871  13.132
89823SOL    HW271367   7.402  13.979  13.087
89824SOL     OW71368  11.927   2.957  14.681
89824SOL    HW171369  11.902   2.877  14.633
89824SOL    HW271370  11.982   3.005  14.620
89825SOL     OW71371  10.016   1.433   9.727
89825SOL    HW171372  10.110   1.436   9.711
89825SOL    HW271373  10.004   1.353   9.778
89826SOL     OW71374   4.693   2.467  12.489
89826SOL    HW171375   4.710   2.503  12.402
89826SOL    HW271376   4.626   2.525  12.526
89827SOL     OW71377   5.638  12.410   2.611
89827SOL    HW171378   5.721  12.418   2.659
89827SOL    HW271379   5.657  12.348   2.540
89828SOL     OW71380  12.350   5.434   5.629
89828SOL    HW171381  12.391   5.433   5.543
89828SOL    HW271382  12.403   5.496   5.680
89829SOL     OW71383  12.169   7.367   0.248
89829SOL    HW171384  12.113   7.439   0.220
89829SOL    HW271385  12.109   7.305   0.292
89830SOL     OW71386  12.473   0.414   8.551
89830SOL    HW171387  12.537   0.440   8.618
89830SOL    HW271388  12.388   0.422   8.595
89831SOL     OW71389  14.391  13.951  14.047
89831SOL    HW171390  14.430  13.874  14.006
89831SOL    HW271391  14.447  13.968  14.123
89832SOL     OW71392   9.716   7.559   7.585
89832SOL    HW171393   9.760   7.511   7.514
89832SOL    HW271394   9.624   7.532   7.578
89833SOL     OW71395   5.538   7.604   7.574
89833SOL    HW171396   5.600   7.557   7.631
89833SOL    HW271397   5.551   7.566   7.488
89834SOL     OW71398   9.718   4.298   9.328
89834SOL    HW171399   9.735   4.393   9.332
89834SOL    HW271400   9.795   4.263   9.283
89835SOL     OW71401   9.874   9.164   1.862
89835SOL    HW171402   9.854   9.249   1.823
89835SOL    HW271403   9.969   9.158   1.860
89836SOL     OW71404   5.915   1.408  11.422
89836SOL    HW171405   5.922   1.358  11.341
89836SOL    HW271406   5.915   1.342  11.491
89837SOL     OW71407  12.413   7.482   5.951
89837SOL    HW171408  12.476   7.445   5.889
89837SOL    HW271409  12.402   7.414   6.018
89838SOL     OW71410   7.975   8.790   2.292
89838SOL    HW171411   8.052   8.833   2.255
89838SOL    HW271412   7.914   8.861   2.309
89839SOL     OW71413   0.927   1.275   2.307
89839SOL    HW171414   0.925   1.338   2.235
89839SOL    HW271415   0.836   1.246   2.315
89840SOL     OW71416   7.548   1.426   4.420
89840SOL    HW171417   7.614   1.370   4.461
89840SOL    HW271418   7.485   1.444   4.491
89841SOL     OW71419   3.142   7.288   5.643
89841SOL    HW171420   3.226   7.329   5.621
89841SOL    HW271421   3.156   7.252   5.731
89842SOL     OW71422   0.718   1.616  11.097
89842SOL    HW171423   0.727   1.532  11.141
89842SOL    HW271424   0.624   1.630  11.091
89843SOL     OW71425   3.308  14.471   3.844
89843SOL    HW171426   3.364  14.394   3.833
89843SOL    HW271427   3.243  14.444   3.909
89844SOL     OW71428   1.782   3.523   3.876
89844SOL    HW171429   1.703   3.569   3.904
89844SOL    HW271430   1.817   3.484   3.956
89845SOL     OW71431   3.630   2.918  14.564
89845SOL    HW171432   3.612   2.830  14.598
89845SOL    HW271433   3.572   2.975  14.615
89846SOL     OW71434   0.232   6.107  12.212
89846SOL    HW171435   0.260   6.191  12.246
89846SOL    HW271436   0.209   6.056  12.290
89847SOL     OW71437  13.108   3.062   7.094
89847SOL    HW171438  13.051   3.124   7.140
89847SOL    HW271439  13.116   2.988   7.154
89848SOL     OW71440   5.114  12.709  14.153
89848SOL    HW171441   5.107  12.669  14.067
89848SOL    HW271442   5.205  12.695  14.179
89849SOL     OW71443  14.149  10.410   7.278
89849SOL    HW171444  14.127  10.356   7.355
89849SOL    HW271445  14.067  10.454   7.256
89850SOL     OW71446   4.452   0.508   3.437
89850SOL    HW171447   4.471   0.432   3.492
89850SOL    HW271448   4.538   0.536   3.405
89851SOL     OW71449   8.169   2.620  10.680
89851SOL    HW171450   8.079   2.588  10.684
89851SOL    HW271451   8.211   2.565  10.614
89852SOL     OW71452   5.402   3.922   2.644
89852SOL    HW171453   5.454   3.900   2.566
89852SOL    HW271454   5.462   3.908   2.717
89853SOL     OW71455   4.229   2.513   2.215
89853SOL    HW171456   4.242   2.445   2.282
89853SOL    HW271457   4.161   2.477   2.158
89854SOL     OW71458   2.148  11.336  14.195
89854SOL    HW171459   2.206  11.344  14.120
89854SOL    HW271460   2.070  11.386  14.171
89855SOL     OW71461  10.265  14.475   0.495
89855SOL    HW171462  10.306  14.543   0.548
89855SOL    HW271463  10.334  14.411   0.480
89856SOL     OW71464   7.537   9.282   3.489
89856SOL    HW171465   7.488   9.297   3.408
89856SOL    HW271466   7.534   9.187   3.501
89857SOL     OW71467   8.200   2.861  11.872
89857SOL    HW171468   8.243   2.946  11.860
89857SOL    HW271469   8.183   2.855  11.966
89858SOL     OW71470   4.121   9.430   4.726
89858SOL    HW171471   4.213   9.432   4.755
89858SOL    HW271472   4.077   9.374   4.791
89859SOL     OW71473  11.453   9.017   2.905
89859SOL    HW171474  11.369   8.977   2.883
89859SOL    HW271475  11.504   9.011   2.825
89860SOL     OW71476  14.107   6.920   6.019
89860SOL    HW171477  14.104   6.993   5.957
89860SOL    HW271478  14.175   6.863   5.984
89861SOL     OW71479   9.142   7.961   7.027
89861SOL    HW171480   9.179   8.011   7.100
89861SOL    HW271481   9.109   7.881   7.067
89862SOL     OW71482  11.393  10.977   6.450
89862SOL    HW171483  11.438  10.920   6.513
89862SOL    HW271484  11.450  10.977   6.373
89863SOL     OW71485   6.532   1.861  10.516
89863SOL    HW171486   6.571   1.848  10.602
89863SOL    HW271487   6.477   1.938  10.526
89864SOL     OW71488   2.335   3.391   0.212
89864SOL    HW171489   2.412   3.420   0.261
89864SOL    HW271490   2.270   3.372   0.279
89865SOL     OW71491   2.945   3.332   7.525
89865SOL    HW171492   2.895   3.277   7.466
89865SOL    HW271493   2.906   3.419   7.517
89866SOL     OW71494   8.746  11.525   5.558
89866SOL    HW171495   8.790  11.533   5.474
89866SOL    HW271496   8.789  11.589   5.614
89867SOL     OW71497  14.460   0.912  11.066
89867SOL    HW171498  14.481   0.934  10.975
89867SOL    HW271499  14.515   0.836  11.086
89868SOL     OW71500  10.650   6.162   4.024
89868SOL    HW171501  10.689   6.250   4.030
89868SOL    HW271502  10.604   6.162   3.940
89869SOL     OW71503   9.660  12.634  11.360
89869SOL    HW171504   9.700  12.708  11.314
89869SOL    HW271505   9.586  12.673  11.407
89870SOL     OW71506  14.626   9.821   4.006
89870SOL    HW171507  14.653   9.730   4.016
89870SOL    HW271508  14.597   9.828   3.915
89871SOL     OW71509   4.681   6.847   1.189
89871SOL    HW171510   4.773   6.853   1.162
89871SOL    HW271511   4.676   6.768   1.243
89872SOL     OW71512   4.995   9.070   3.033
89872SOL    HW171513   4.942   9.097   2.958
89872SOL    HW271514   5.081   9.053   2.996
89873SOL     OW71515   8.729  13.262  11.320
89873SOL    HW171516   8.654  13.203  11.319
89873SOL    HW271517   8.708  13.327  11.387
89874SOL     OW71518   6.996   2.578   2.869
89874SOL    HW171519   6.960   2.579   2.958
89874SOL    HW271520   7.089   2.559   2.881
89875SOL     OW71521  12.804   5.573   1.340
89875SOL    HW171522  12.805   5.649   1.397
89875SOL    HW271523  12.754   5.507   1.388
89876SOL     OW71524   9.487   5.109   7.229
89876SOL    HW171525   9.558   5.131   7.289
89876SOL    HW271526   9.531   5.085   7.148
89877SOL     OW71527   3.363   6.357  14.626
89877SOL    HW171528   3.272   6.361  14.596
89877SOL    HW271529   3.379   6.442  14.666
89878SOL     OW71530   3.716  10.492   3.666
89878SOL    HW171531   3.663  10.501   3.587
89878SOL    HW271532   3.656  10.512   3.738
89879SOL     OW71533   7.335   1.080  14.590
89879SOL    HW171534   7.401   1.113  14.650
89879SOL    HW271535   7.292   1.158  14.556
89880SOL     OW71536   6.538   8.932  14.733
89880SOL    HW171537   6.514   8.922  14.825
89880SOL    HW271538   6.632   8.917  14.731
89881SOL     OW71539   1.976   6.603   0.666
89881SOL    HW171540   1.945   6.564   0.584
89881SOL    HW271541   1.907   6.584   0.729
89882SOL     OW71542   4.887   7.678   1.233
89882SOL    HW171543   4.955   7.612   1.245
89882SOL    HW271544   4.901   7.711   1.144
89883SOL     OW71545  13.640   8.831   9.170
89883SOL    HW171546  13.624   8.756   9.113
89883SOL    HW271547  13.616   8.801   9.257
89884SOL     OW71548  11.103   2.227   6.664
89884SOL    HW171549  11.086   2.189   6.578
89884SOL    HW271550  11.017   2.251   6.697
89885SOL     OW71551   3.875   6.982  10.597
89885SOL    HW171552   3.923   6.901  10.584
89885SOL    HW271553   3.866   6.991  10.692
89886SOL     OW71554  11.438  14.867   7.988
89886SOL    HW171555  11.448   0.054   7.919
89886SOL    HW271556  11.489   0.024   8.061
89887SOL     OW71557  12.752  10.144   3.664
89887SOL    HW171558  12.765  10.086   3.739
89887SOL    HW271559  12.658  10.161   3.663
89888SOL     OW71560   0.065   0.059   3.032
89888SOL    HW171561   0.141   0.109   3.058
89888SOL    HW271562   0.068  14.857   3.087
89889SOL     OW71563   5.369  14.055   1.371
89889SOL    HW171564   5.350  13.982   1.312
89889SOL    HW271565   5.336  14.026   1.456
89890SOL     OW71566   6.863  13.781   7.124
89890SOL    HW171567   6.837  13.692   7.100
89890SOL    HW271568   6.782  13.821   7.157
89891SOL     OW71569   0.917  13.198   0.811
89891SOL    HW171570   0.853  13.248   0.862
89891SOL    HW271571   0.890  13.212   0.720
89892SOL     OW71572   5.834  12.308   7.896
89892SOL    HW171573   5.792  12.300   7.981
89892SOL    HW271574   5.888  12.229   7.888
89893SOL     OW71575  11.548  12.454   5.238
89893SOL    HW171576  11.576  12.526   5.294
89893SOL    HW271577  11.545  12.378   5.296
89894SOL     OW71578  11.316   0.128   3.539
89894SOL    HW171579  11.245   0.076   3.502
89894SOL    HW271580  11.391   0.112   3.482
89895SOL     OW71581  11.939   0.231   9.805
89895SOL    HW171582  11.907   0.320   9.792
89895SOL    HW271583  11.895   0.201   9.885
89896SOL     OW71584  13.864   4.601   3.081
89896SOL    HW171585  13.821   4.616   3.166
89896SOL    HW271586  13.816   4.657   3.020
89897SOL     OW71587  13.941   8.018   0.118
89897SOL    HW171588  13.908   8.034   0.030
89897SOL    HW271589  13.863   8.025   0.174
89898SOL     OW71590   8.555  12.919  13.818
89898SOL    HW171591   8.557  13.007  13.780
89898SOL    HW271592   8.465  12.889  13.803
89899SOL     OW71593   0.682   8.425   4.878
89899SOL    HW171594   0.767   8.468   4.873
89899SOL    HW271595   0.648   8.447   4.965
89900SOL     OW71596  10.056   0.812  13.276
89900SOL    HW171597  10.026   0.732  13.233
89900SOL    HW271598  10.128   0.843  13.221
89901SOL     OW71599  10.748  12.099  12.051
89901SOL    HW171600  10.698  12.144  12.119
89901SOL    HW271601  10.707  12.013  12.043
89902SOL     OW71602  10.078   9.775  10.501
89902SOL    HW171603   9.986   9.751  10.494
89902SOL    HW271604  10.097   9.770  10.595
89903SOL     OW71605   1.799   1.584   5.875
89903SOL    HW171606   1.819   1.491   5.865
89903SOL    HW271607   1.864   1.616   5.938
89904SOL     OW71608   1.651   3.862  13.555
89904SOL    HW171609   1.741   3.894  13.547
89904SOL    HW271610   1.599   3.940  13.574
89905SOL     OW71611  10.293   4.838  10.045
89905SOL    HW171612  10.230   4.811  10.112
89905SOL    HW271613  10.282   4.933  10.038
89906SOL     OW71614  13.952   8.409  11.365
89906SOL    HW171615  13.983   8.498  11.385
89906SOL    HW271616  13.960   8.362  11.448
89907SOL     OW71617   0.919   8.577  13.538
89907SOL    HW171618   1.001   8.623  13.521
89907SOL    HW271619   0.884   8.556  13.452
89908SOL     OW71620   0.739   7.407  13.160
89908SOL    HW171621   0.794   7.477  13.126
89908SOL    HW271622   0.751   7.410  13.255
89909SOL     OW71623   5.357   9.800  10.550
89909SOL    HW171624   5.276   9.848  10.530
89909SOL    HW271625   5.352   9.782  10.643
89910SOL     OW71626   0.026   9.901   9.234
89910SOL    HW171627   0.028   9.843   9.310
89910SOL    HW271628   0.045   9.988   9.270
89911SOL     OW71629  12.912   2.936   4.322
89911SOL    HW171630  12.931   2.884   4.400
89911SOL    HW271631  12.830   2.899   4.288
89912SOL     OW71632  11.100  10.725   8.375
89912SOL    HW171633  11.131  10.794   8.318
89912SOL    HW271634  11.118  10.756   8.464
89913SOL     OW71635   8.452   4.646   6.471
89913SOL    HW171636   8.467   4.657   6.377
89913SOL    HW271637   8.391   4.573   6.477
89914SOL     OW71638   2.812   6.296   3.037
89914SOL    HW171639   2.900   6.301   3.073
89914SOL    HW271640   2.762   6.360   3.088
89915SOL     OW71641   7.037   6.301   6.536
89915SOL    HW171642   6.992   6.353   6.603
89915SOL    HW271643   7.057   6.218   6.580
89916SOL     OW71644  10.555   5.071   0.825
89916SOL    HW171645  10.505   5.107   0.898
89916SOL    HW271646  10.593   5.148   0.782
89917SOL     OW71647   8.579   6.989   3.248
89917SOL    HW171648   8.578   6.980   3.343
89917SOL    HW271649   8.513   7.056   3.229
89918SOL     OW71650   2.586   3.071  13.739
89918SOL    HW171651   2.580   3.134  13.667
89918SOL    HW271652   2.665   3.019  13.718
89919SOL     OW71653   7.194   4.137  12.606
89919SOL    HW171654   7.160   4.139  12.516
89919SOL    HW271655   7.134   4.193  12.655
89920SOL     OW71656  10.265   7.666  12.615
89920SOL    HW171657  10.178   7.634  12.639
89920SOL    HW271658  10.254   7.701  12.527
89921SOL     OW71659  14.117  10.378   6.890
89921SOL    HW171660  14.163  10.312   6.839
89921SOL    HW271661  14.029  10.380   6.853
89922SOL     OW71662   4.632  12.946   2.775
89922SOL    HW171663   4.537  12.943   2.778
89922SOL    HW271664   4.660  12.855   2.764
89923SOL     OW71665   2.746   2.197   3.435
89923SOL    HW171666   2.774   2.225   3.348
89923SOL    HW271667   2.714   2.277   3.476
89924SOL     OW71668  11.649  11.825  10.618
89924SOL    HW171669  11.741  11.843  10.598
89924SOL    HW271670  11.637  11.732  10.599
89925SOL     OW71671   4.987  13.664   8.486
89925SOL    HW171672   5.053  13.730   8.465
89925SOL    HW271673   4.903  13.709   8.476
89926SOL     OW71674   8.584  13.159  13.041
89926SOL    HW171675   8.613  13.229  12.982
89926SOL    HW271676   8.651  13.157  13.109
89927SOL     OW71677   0.394   0.605  11.999
89927SOL    HW171678   0.417   0.610  11.906
89927SOL    HW271679   0.477   0.599  12.045
89928SOL     OW71680  10.668  11.817   9.137
89928SOL    HW171681  10.690  11.879   9.206
89928SOL    HW271682  10.629  11.870   9.068
89929SOL     OW71683   5.053   0.227   1.919
89929SOL    HW171684   4.965   0.261   1.905
89929SOL    HW271685   5.065   0.228   2.014
89930SOL     OW71686   7.274   1.887   4.359
89930SOL    HW171687   7.186   1.877   4.323
89930SOL    HW271688   7.298   1.978   4.339
89931SOL     OW71689  12.582   6.379   0.781
89931SOL    HW171690  12.677   6.371   0.788
89931SOL    HW271691  12.567   6.459   0.732
89932SOL     OW71692   7.580   3.047  14.226
89932SOL    HW171693   7.667   3.013  14.204
89932SOL    HW271694   7.575   3.039  14.322
89933SOL     OW71695   2.945   8.505   8.723
89933SOL    HW171696   3.034   8.508   8.689
89933SOL    HW271697   2.951   8.541   8.811
89934SOL     OW71698  11.660  12.770   2.351
89934SOL    HW171699  11.682  12.846   2.404
89934SOL    HW271700  11.717  12.778   2.274
89935SOL     OW71701   0.136   2.713   4.851
89935SOL    HW171702   0.169   2.631   4.889
89935SOL    HW271703   0.161   2.709   4.759
89936SOL     OW71704   5.042   3.967   4.589
89936SOL    HW171705   5.028   3.932   4.677
89936SOL    HW271706   5.077   4.055   4.603
89937SOL     OW71707  10.818   3.819  13.969
89937SOL    HW171708  10.868   3.832  14.050
89937SOL    HW271709  10.729   3.799  14.000
89938SOL     OW71710   3.112   7.161  10.317
89938SOL    HW171711   3.205   7.157  10.298
89938SOL    HW271712   3.070   7.155  10.231
89939SOL     OW71713   8.140  13.626  13.518
89939SOL    HW171714   8.190  13.685  13.574
89939SOL    HW271715   8.052  13.626  13.554
89940SOL     OW71716   4.203   9.797   1.097
89940SOL    HW171717   4.206   9.891   1.083
89940SOL    HW271718   4.244   9.784   1.183
89941SOL     OW71719  12.340   5.931   3.069
89941SOL    HW171720  12.276   5.953   3.137
89941SOL    HW271721  12.384   5.854   3.102
89942SOL     OW71722  12.741   2.460   9.614
89942SOL    HW171723  12.707   2.379   9.652
89942SOL    HW271724  12.663   2.508   9.587
89943SOL     OW71725   7.342   2.224  13.726
89943SOL    HW171726   7.252   2.209  13.697
89943SOL    HW271727   7.337   2.299  13.784
89944SOL     OW71728   1.739   8.164   4.828
89944SOL    HW171729   1.759   8.192   4.739
89944SOL    HW271730   1.747   8.069   4.826
89945SOL     OW71731  13.270   2.018  14.691
89945SOL    HW171732  13.219   1.941  14.717
89945SOL    HW271733  13.249   2.031  14.599
89946SOL     OW71734   6.095  13.220  13.946
89946SOL    HW171735   6.107  13.272  14.026
89946SOL    HW271736   6.142  13.138  13.964
89947SOL     OW71737  10.225  12.152   7.297
89947SOL    HW171738  10.308  12.122   7.334
89947SOL    HW271739  10.189  12.075   7.252
89948SOL     OW71740  14.499   1.690   1.301
89948SOL    HW171741  14.485   1.778   1.336
89948SOL    HW271742  14.411   1.655   1.287
89949SOL     OW71743   8.396   3.735   1.898
89949SOL    HW171744   8.354   3.798   1.839
89949SOL    HW271745   8.482   3.720   1.860
89950SOL     OW71746   9.355   9.207   0.852
89950SOL    HW171747   9.358   9.261   0.773
89950SOL    HW271748   9.427   9.145   0.842
89951SOL     OW71749  11.545  14.299   5.346
89951SOL    HW171750  11.468  14.347   5.317
89951SOL    HW271751  11.540  14.300   5.442
89952SOL     OW71752  14.068   7.696  14.354
89952SOL    HW171753  14.010   7.640  14.405
89952SOL    HW271754  14.019   7.713  14.273
89953SOL     OW71755   1.361  10.931   8.736
89953SOL    HW171756   1.335  10.847   8.775
89953SOL    HW271757   1.450  10.916   8.705
89954SOL     OW71758   7.389   5.281   3.847
89954SOL    HW171759   7.426   5.192   3.843
89954SOL    HW271760   7.463   5.336   3.874
89955SOL     OW71761  13.674   1.526   0.724
89955SOL    HW171762  13.700   1.558   0.811
89955SOL    HW271763  13.586   1.491   0.737
89956SOL     OW71764   1.317   7.342   0.443
89956SOL    HW171765   1.245   7.404   0.434
89956SOL    HW271766   1.344   7.349   0.535
89957SOL     OW71767  12.015   8.818   1.142
89957SOL    HW171768  12.069   8.838   1.219
89957SOL    HW271769  11.951   8.754   1.172
89958SOL     OW71770  10.571   7.603   5.186
89958SOL    HW171771  10.571   7.643   5.100
89958SOL    HW271772  10.662   7.575   5.200
89959SOL     OW71773   3.775  14.584   2.167
89959SOL    HW171774   3.833  14.660   2.164
89959SOL    HW271775   3.687  14.621   2.167
89960SOL     OW71776   1.769   8.058  10.485
89960SOL    HW171777   1.676   8.051  10.502
89960SOL    HW271778   1.811   8.035  10.568
89961SOL     OW71779  11.093   6.978  13.642
89961SOL    HW171780  11.083   6.917  13.569
89961SOL    HW271781  11.038   7.052  13.618
89962SOL     OW71782   4.267  14.486   9.461
89962SOL    HW171783   4.201  14.416   9.454
89962SOL    HW271784   4.337  14.458   9.401
89963SOL     OW71785  12.002  11.366   0.679
89963SOL    HW171786  12.098  11.360   0.679
89963SOL    HW271787  11.982  11.423   0.605
89964SOL     OW71788   8.485   0.127   0.612
89964SOL    HW171789   8.405   0.087   0.578
89964SOL    HW271790   8.498   0.205   0.559
89965SOL     OW71791  12.938   5.302   3.433
89965SOL    HW171792  12.972   5.220   3.469
89965SOL    HW271793  13.015   5.360   3.430
89966SOL     OW71794   2.278   8.425   8.494
89966SOL    HW171795   2.325   8.344   8.474
89966SOL    HW271796   2.261   8.465   8.409
89967SOL     OW71797   3.837   1.243   1.401
89967SOL    HW171798   3.928   1.220   1.424
89967SOL    HW271799   3.840   1.338   1.387
89968SOL     OW71800   0.114   7.975  11.838
89968SOL    HW171801   0.159   7.916  11.778
89968SOL    HW271802   0.096   8.054  11.786
89969SOL     OW71803   8.051  10.116  11.097
89969SOL    HW171804   8.037  10.090  11.006
89969SOL    HW271805   7.981  10.073  11.145
89970SOL     OW71806   1.837   2.806   1.832
89970SOL    HW171807   1.764   2.758   1.793
89970SOL    HW271808   1.899   2.738   1.859
89971SOL     OW71809  12.137  11.466   7.877
89971SOL    HW171810  12.091  11.392   7.916
89971SOL    HW271811  12.113  11.463   7.785
89972SOL     OW71812   4.499   8.734   4.761
89972SOL    HW171813   4.564   8.704   4.698
89972SOL    HW271814   4.546   8.794   4.818
89973SOL     OW71815   9.984   9.452  13.178
89973SOL    HW171816   9.990   9.418  13.088
89973SOL    HW271817  10.063   9.505  13.188
89974SOL     OW71818  10.404  13.400   9.203
89974SOL    HW171819  10.436  13.444   9.125
89974SOL    HW271820  10.411  13.306   9.182
89975SOL     OW71821  10.700   7.665   0.847
89975SOL    HW171822  10.640   7.656   0.774
89975SOL    HW271823  10.714   7.760   0.855
89976SOL     OW71824  13.007   1.551   1.949
89976SOL    HW171825  13.085   1.521   1.996
89976SOL    HW271826  13.038   1.624   1.896
89977SOL     OW71827   6.210   0.541   7.484
89977SOL    HW171828   6.132   0.537   7.539
89977SOL    HW271829   6.279   0.501   7.537
89978SOL     OW71830  12.136  12.099   3.378
89978SOL    HW171831  12.092  12.143   3.306
89978SOL    HW271832  12.071  12.036   3.411
89979SOL     OW71833  12.094   9.260  12.191
89979SOL    HW171834  12.096   9.321  12.266
89979SOL    HW271835  12.114   9.175  12.230
89980SOL     OW71836   1.188  12.698   0.772
89980SOL    HW171837   1.216  12.778   0.817
89980SOL    HW271838   1.266  12.642   0.772
89981SOL     OW71839  10.408   0.457   4.701
89981SOL    HW171840  10.394   0.551   4.712
89981SOL    HW271841  10.489   0.439   4.749
89982SOL     OW71842  14.430   6.890  10.501
89982SOL    HW171843  14.482   6.822  10.545
89982SOL    HW271844  14.441   6.968  10.555
89983SOL     OW71845   7.524  10.632   5.804
89983SOL    HW171846   7.573  10.603   5.880
89983SOL    HW271847   7.554  10.575   5.733
89984SOL     OW71848  12.079  12.899  10.121
89984SOL    HW171849  12.081  12.825  10.182
89984SOL    HW271850  12.061  12.975  10.176
89985SOL     OW71851   6.523   1.497  14.109
89985SOL    HW171852   6.449   1.539  14.065
89985SOL    HW271853   6.541   1.553  14.185
89986SOL     OW71854  13.357   9.245   2.056
89986SOL    HW171855  13.406   9.167   2.029
89986SOL    HW271856  13.416   9.318   2.038
89987SOL     OW71857  11.458  12.504  10.405
89987SOL    HW171858  11.427  12.465  10.487
89987SOL    HW271859  11.446  12.435  10.340
89988SOL     OW71860  13.651  10.844   4.396
89988SOL    HW171861  13.560  10.868   4.380
89988SOL    HW271862  13.702  10.902   4.340
89989SOL     OW71863   4.015  11.778   0.100
89989SOL    HW171864   4.093  11.823   0.133
89989SOL    HW271865   3.952  11.848   0.086
89990SOL     OW71866   5.219   9.850   6.380
89990SOL    HW171867   5.312   9.853   6.361
89990SOL    HW271868   5.186   9.775   6.329
89991SOL     OW71869   9.958  12.280   5.124
89991SOL    HW171870   9.918  12.194   5.123
89991SOL    HW271871  10.011  12.282   5.204
89992SOL     OW71872  10.836  14.677   1.163
89992SOL    HW171873  10.778  14.750   1.143
89992SOL    HW271874  10.872  14.697   1.249
89993SOL     OW71875   0.531   6.010   4.982
89993SOL    HW171876   0.497   6.008   4.892
89993SOL    HW271877   0.490   6.087   5.021
89994SOL     OW71878   1.158   6.544  14.277
89994SOL    HW171879   1.105   6.608  14.229
89994SOL    HW271880   1.243   6.545  14.233
89995SOL     OW71881   7.447   1.905   3.092
89995SOL    HW171882   7.384   1.957   3.142
89995SOL    HW271883   7.474   1.835   3.151
89996SOL     OW71884  11.591  12.432   4.240
89996SOL    HW171885  11.498  12.455   4.246
89996SOL    HW271886  11.593  12.337   4.238
89997SOL     OW71887   6.314   5.626   3.586
89997SOL    HW171888   6.342   5.668   3.504
89997SOL    HW271889   6.231   5.584   3.564
89998SOL     OW71890  12.421  12.510  11.587
89998SOL    HW171891  12.342  12.502  11.640
89998SOL    HW271892  12.402  12.457  11.509
89999SOL     OW71893   2.863   1.990   2.330
89999SOL    HW171894   2.817   1.969   2.249
89999SOL    HW271895   2.906   1.909   2.356
90000SOL     OW71896  14.211   9.407   4.416
90000SOL    HW171897  14.235   9.382   4.505
90000SOL    HW271898  14.207   9.503   4.418
90001SOL     OW71899  10.609  11.683  13.551
90001SOL    HW171900  10.621  11.611  13.488
90001SOL    HW271901  10.634  11.762  13.502
90002SOL     OW71902   5.630   6.288  12.516
90002SOL    HW171903   5.656   6.328  12.432
90002SOL    HW271904   5.692   6.324  12.579
90003SOL     OW71905   9.739  11.203   9.942
90003SOL    HW171906   9.734  11.292   9.975
90003SOL    HW271907   9.826  11.197   9.902
90004SOL     OW71908  11.982   6.175   2.904
90004SOL    HW171909  11.978   6.166   2.999
90004SOL    HW271910  11.930   6.254   2.885
90005SOL     OW71911  10.012  14.262   0.387
90005SOL    HW171912   9.938  14.201   0.389
90005SOL    HW271913  10.064  14.235   0.311
90006SOL     OW71914  11.996   9.066   2.056
90006SOL    HW171915  12.023   8.986   2.101
90006SOL    HW271916  12.060   9.076   1.986
90007SOL     OW71917   1.141   1.157   1.486
90007SOL    HW171918   1.190   1.230   1.524
90007SOL    HW271919   1.072   1.138   1.549
90008SOL     OW71920   5.438   3.659   1.711
90008SOL    HW171921   5.420   3.688   1.800
90008SOL    HW271922   5.529   3.633   1.712
90009SOL     OW71923   4.173   2.838   7.832
90009SOL    HW171924   4.157   2.819   7.739
90009SOL    HW271925   4.215   2.760   7.866
90010SOL     OW71926  11.830   5.188  14.381
90010SOL    HW171927  11.843   5.110  14.435
90010SOL    HW271928  11.738   5.184  14.355
90011SOL     OW71929  14.196   4.214   0.224
90011SOL    HW171930  14.291   4.209   0.226
90011SOL    HW271931  14.168   4.171   0.306
90012SOL     OW71932   9.532  10.666   2.136
90012SOL    HW171933   9.459  10.609   2.113
90012SOL    HW271934   9.496  10.726   2.201
90013SOL     OW71935  10.757   1.132   1.158
90013SOL    HW171936  10.810   1.145   1.080
90013SOL    HW271937  10.728   1.220   1.183
90014SOL     OW71938  10.903   2.545   5.868
90014SOL    HW171939  10.974   2.523   5.808
90014SOL    HW271940  10.842   2.597   5.816
90015SOL     OW71941   4.812  12.724   4.217
90015SOL    HW171942   4.897  12.761   4.242
90015SOL    HW271943   4.814  12.635   4.252
90016SOL     OW71944  12.722   8.963   2.822
90016SOL    HW171945  12.798   8.905   2.820
90016SOL    HW271946  12.751   9.044   2.780
90017SOL     OW71947   0.650   7.716   3.976
90017SOL    HW171948   0.591   7.648   4.009
90017SOL    HW271949   0.613   7.797   4.011
90018SOL     OW71950   9.666   4.704   8.251
90018SOL    HW171951   9.619   4.787   8.261
90018SOL    HW271952   9.758   4.728   8.259
90019SOL     OW71953   1.132   1.923   2.247
90019SOL    HW171954   1.110   1.968   2.165
90019SOL    HW271955   1.057   1.865   2.263
90020SOL     OW71956  12.816  10.458   5.632
90020SOL    HW171957  12.865  10.456   5.550
90020SOL    HW271958  12.748  10.392   5.621
90021SOL     OW71959  13.145   4.824  14.317
90021SOL    HW171960  13.162   4.806  14.409
90021SOL    HW271961  13.232   4.830  14.277
90022SOL     OW71962   9.909   4.489  11.673
90022SOL    HW171963   9.875   4.547  11.741
90022SOL    HW271964   9.843   4.493  11.603
90023SOL     OW71965   4.085   2.340   2.915
90023SOL    HW171966   4.050   2.404   2.854
90023SOL    HW271967   4.072   2.256   2.871
90024SOL     OW71968   1.322  12.923   6.907
90024SOL    HW171969   1.230  12.946   6.917
90024SOL    HW271970   1.366  12.967   6.980
90025SOL     OW71971  12.564  11.268   4.032
90025SOL    HW171972  12.654  11.301   4.029
90025SOL    HW271973  12.548  11.250   4.124
90026SOL     OW71974   6.708   3.504  12.705
90026SOL    HW171975   6.775   3.441  12.731
90026SOL    HW271976   6.672   3.536  12.788
90027SOL     OW71977  10.812   5.430   9.251
90027SOL    HW171978  10.903   5.450   9.229
90027SOL    HW271979  10.817   5.380   9.333
90028SOL     OW71980   2.755   2.429   5.037
90028SOL    HW171981   2.712   2.374   4.972
90028SOL    HW271982   2.810   2.368   5.087
90029SOL     OW71983   5.122   4.438  10.810
90029SOL    HW171984   5.166   4.432  10.725
90029SOL    HW271985   5.104   4.347  10.834
90030SOL     OW71986  11.045  11.225   9.234
90030SOL    HW171987  10.984  11.259   9.168
90030SOL    HW271988  11.035  11.130   9.230
90031SOL     OW71989  13.479   0.336  12.263
90031SOL    HW171990  13.442   0.421  12.239
90031SOL    HW271991  13.432   0.273  12.209
90032SOL     OW71992   6.758   4.844   8.450
90032SOL    HW171993   6.833   4.835   8.390
90032SOL    HW271994   6.786   4.798   8.529
90033SOL     OW71995  12.686   8.733   5.631
90033SOL    HW171996  12.673   8.661   5.693
90033SOL    HW271997  12.603   8.740   5.585
90034SOL     OW71998   1.902   5.018   0.392
90034SOL    HW171999   1.995   4.999   0.379
90034SOL    HW272000   1.859   4.933   0.382
90035SOL     OW72001   9.100   9.108   6.966
90035SOL    HW172002   9.165   9.073   6.905
90035SOL    HW272003   9.082   9.196   6.934
90036SOL     OW72004   2.302   1.866  13.436
90036SOL    HW172005   2.246   1.825  13.503
90036SOL    HW272006   2.253   1.854  13.354
90037SOL     OW72007   0.652  10.687   4.285
90037SOL    HW172008   0.728  10.685   4.343
90037SOL    HW272009   0.688  10.683   4.197
90038SOL     OW72010  12.815  14.500   0.441
90038SOL    HW172011  12.806  14.493   0.536
90038SOL    HW272012  12.769  14.581   0.418
90039SOL     OW72013  11.634   3.834   5.244
90039SOL    HW172014  11.639   3.787   5.327
90039SOL    HW272015  11.560   3.795   5.198
90040SOL     OW72016   1.353   6.864   5.239
90040SOL    HW172017   1.289   6.854   5.169
90040SOL    HW272018   1.407   6.785   5.233
90041SOL     OW72019   5.686   2.781   9.514
90041SOL    HW172020   5.672   2.693   9.479
90041SOL    HW272021   5.660   2.775   9.606
90042SOL     OW72022   4.490   9.803   9.458
90042SOL    HW172023   4.573   9.845   9.479
90042SOL    HW272024   4.511   9.711   9.445
90043SOL     OW72025   8.380   6.731  10.547
90043SOL    HW172026   8.432   6.715  10.626
90043SOL    HW272027   8.429   6.686  10.478
90044SOL     OW72028   1.746   8.565   3.711
90044SOL    HW172029   1.774   8.572   3.619
90044SOL    HW272030   1.657   8.530   3.707
90045SOL     OW72031   4.662   3.314   1.380
90045SOL    HW172032   4.671   3.230   1.334
90045SOL    HW272033   4.712   3.303   1.460
90046SOL     OW72034  13.072   6.896   1.396
90046SOL    HW172035  12.999   6.880   1.457
90046SOL    HW272036  13.050   6.980   1.354
90047SOL     OW72037  14.262   0.965   0.505
90047SOL    HW172038  14.215   1.032   0.555
90047SOL    HW272039  14.221   0.882   0.530
90048SOL     OW72040   5.138  10.606  12.631
90048SOL    HW172041   5.120  10.592  12.724
90048SOL    HW272042   5.077  10.547  12.586
90049SOL     OW72043  14.496   2.825   5.914
90049SOL    HW172044  14.479   2.736   5.884
90049SOL    HW272045  14.449   2.830   5.998
90050SOL     OW72046   9.921   3.792  14.556
90050SOL    HW172047   9.856   3.773  14.625
90050SOL    HW272048   9.988   3.725  14.568
90051SOL     OW72049  11.212   6.417  12.270
90051SOL    HW172050  11.126   6.390  12.240
90051SOL    HW272051  11.269   6.342  12.251
90052SOL     OW72052   3.096   6.857   5.201
90052SOL    HW172053   3.051   6.930   5.243
90052SOL    HW272054   3.186   6.865   5.231
90053SOL     OW72055   6.898   9.318   0.814
90053SOL    HW172056   6.873   9.244   0.869
90053SOL    HW272057   6.936   9.277   0.735
90054SOL     OW72058  10.236   7.010   0.037
90054SOL    HW172059  10.306   6.968   0.088
90054SOL    HW272060  10.271   7.096   0.015
90055SOL     OW72061  11.665   3.821   4.855
90055SOL    HW172062  11.724   3.893   4.877
90055SOL    HW272063  11.604   3.817   4.928
90056SOL     OW72064   0.208   5.288   4.353
90056SOL    HW172065   0.153   5.273   4.429
90056SOL    HW272066   0.148   5.291   4.279
90057SOL     OW72067   0.999   4.353   9.626
90057SOL    HW172068   0.966   4.286   9.567
90057SOL    HW272069   1.043   4.305   9.696
90058SOL     OW72070  12.123  12.886   5.312
90058SOL    HW172071  12.202  12.849   5.274
90058SOL    HW272072  12.057  12.817   5.305
90059SOL     OW72073  12.541  14.859  12.725
90059SOL    HW172074  12.567  14.773  12.757
90059SOL    HW272075  12.592  14.871  12.645
90060SOL     OW72076   0.447  10.837   7.558
90060SOL    HW172077   0.531  10.881   7.552
90060SOL    HW272078   0.450  10.788   7.640
90061SOL     OW72079   0.576   3.974   4.103
90061SOL    HW172080   0.591   3.918   4.179
90061SOL    HW272081   0.663   3.991   4.067
90062SOL     OW72082  11.895  14.114   3.346
90062SOL    HW172083  11.929  14.141   3.431
90062SOL    HW272084  11.805  14.146   3.345
90063SOL     OW72085   1.854   7.081   5.730
90063SOL    HW172086   1.768   7.041   5.715
90063SOL    HW272087   1.842   7.133   5.810
90064SOL     OW72088   2.477  10.931  10.261
90064SOL    HW172089   2.491  11.004  10.201
90064SOL    HW272090   2.431  10.970  10.336
90065SOL     OW72091   5.284   2.273   2.881
90065SOL    HW172092   5.280   2.205   2.815
90065SOL    HW272093   5.357   2.329   2.854
90066SOL     OW72094  14.682   7.768   9.068
90066SOL    HW172095  14.673   7.703   9.138
90066SOL    HW272096  14.660   7.721   8.988
90067SOL     OW72097  12.342   6.423   5.102
90067SOL    HW172098  12.304   6.474   5.031
90067SOL    HW272099  12.269   6.409   5.162
90068SOL     OW72100   0.039   4.232  11.211
90068SOL    HW172101   0.075   4.179  11.282
90068SOL    HW272102   0.086   4.204  11.133
90069SOL     OW72103   5.480   9.384   2.357
90069SOL    HW172104   5.421   9.382   2.433
90069SOL    HW272105   5.465   9.300   2.314
90070SOL     OW72106   4.213  11.600   1.730
90070SOL    HW172107   4.128  11.568   1.761
90070SOL    HW272108   4.276  11.566   1.794
90071SOL     OW72109  11.332  10.834  13.832
90071SOL    HW172110  11.388  10.764  13.798
90071SOL    HW272111  11.246  10.793  13.843
90072SOL     OW72112   6.273   7.145  10.883
90072SOL    HW172113   6.331   7.197  10.938
90072SOL    HW272114   6.202   7.119  10.942
90073SOL     OW72115  10.402   2.597  12.247
90073SOL    HW172116  10.367   2.680  12.279
90073SOL    HW272117  10.435   2.553  12.325
90074SOL     OW72118   9.435   5.973   2.797
90074SOL    HW172119   9.356   5.998   2.846
90074SOL    HW272120   9.498   6.042   2.817
90075SOL     OW72121  10.402  13.999   0.685
90075SOL    HW172122  10.383  13.959   0.770
90075SOL    HW272123  10.331  14.061   0.672
90076SOL     OW72124  13.514   8.763   5.564
90076SOL    HW172125  13.437   8.746   5.618
90076SOL    HW272126  13.587   8.764   5.625
90077SOL     OW72127   0.095  11.211  14.817
90077SOL    HW172128   0.114  11.150  14.746
90077SOL    HW272129   0.085  11.156   0.017
90078SOL     OW72130   4.465   6.544   7.694
90078SOL    HW172131   4.374   6.563   7.714
90078SOL    HW272132   4.509   6.548   7.779
90079SOL     OW72133   5.302  10.539  10.855
90079SOL    HW172134   5.212  10.522  10.880
90079SOL    HW272135   5.339  10.589  10.928
90080SOL     OW72136   8.242   5.822  10.321
90080SOL    HW172137   8.193   5.758  10.269
90080SOL    HW272138   8.313   5.850  10.264
90081SOL     OW72139  13.941   3.561   9.823
90081SOL    HW172140  13.943   3.586   9.730
90081SOL    HW272141  13.885   3.483   9.825
90082SOL     OW72142  12.397   1.382  12.797
90082SOL    HW172143  12.356   1.441  12.734
90082SOL    HW272144  12.395   1.430  12.880
90083SOL     OW72145   1.682   5.842   0.131
90083SOL    HW172146   1.609   5.780   0.135
90083SOL    HW272147   1.710   5.839   0.039
90084SOL     OW72148   1.008  14.703   2.953
90084SOL    HW172149   0.919  14.684   2.924
90084SOL    HW272150   1.044  14.618   2.978
90085SOL     OW72151   5.419   3.486   6.052
90085SOL    HW172152   5.358   3.454   5.984
90085SOL    HW272153   5.362   3.516   6.123
90086SOL     OW72154  11.349   4.814   9.108
90086SOL    HW172155  11.349   4.858   9.023
90086SOL    HW272156  11.439   4.785   9.121
90087SOL     OW72157   1.951   5.862   6.931
90087SOL    HW172158   1.876   5.820   6.973
90087SOL    HW272159   1.952   5.950   6.967
90088SOL     OW72160   9.123   2.697  11.562
90088SOL    HW172161   9.046   2.705  11.619
90088SOL    HW272162   9.190   2.750  11.605
90089SOL     OW72163  10.649  10.300   9.774
90089SOL    HW172164  10.673  10.212   9.745
90089SOL    HW272165  10.559  10.311   9.745
90090SOL     OW72166   8.450   6.640   7.409
90090SOL    HW172167   8.392   6.661   7.336
90090SOL    HW272168   8.489   6.724   7.434
90091SOL     OW72169   3.885   9.375   2.337
90091SOL    HW172170   3.871   9.466   2.311
90091SOL    HW272171   3.966   9.349   2.292
90092SOL     OW72172  13.975   4.146  13.762
90092SOL    HW172173  14.042   4.117  13.699
90092SOL    HW272174  14.007   4.116  13.847
90093SOL     OW72175   0.620   4.821  13.630
90093SOL    HW172176   0.550   4.860  13.576
90093SOL    HW272177   0.624   4.877  13.707
90094SOL     OW72178   1.012   6.223   7.001
90094SOL    HW172179   0.987   6.271   7.080
90094SOL    HW272180   1.096   6.262   6.976
90095SOL     OW72181  10.967   0.300   3.849
90095SOL    HW172182  11.018   0.295   3.768
90095SOL    HW272183  10.977   0.390   3.878
90096SOL     OW72184  12.983  13.119  12.029
90096SOL    HW172185  13.075  13.102  12.047
90096SOL    HW272186  12.941  13.120  12.115
90097SOL     OW72187  13.334   8.863   9.304
90097SOL    HW172188  13.340   8.769   9.289
90097SOL    HW272189  13.242   8.878   9.328
90098SOL     OW72190   5.936   6.386  10.747
90098SOL    HW172191   5.981   6.303  10.734
90098SOL    HW272192   5.997   6.452  10.714
90099SOL     OW72193   7.150   1.811   2.228
90099SOL    HW172194   7.243   1.814   2.250
90099SOL    HW272195   7.108   1.772   2.306
90100SOL     OW72196  14.599  12.776   5.319
90100SOL    HW172197  14.540  12.743   5.250
90100SOL    HW272198  14.683  12.788   5.275
90101SOL     OW72199   6.492   8.989   5.165
90101SOL    HW172200   6.432   8.915   5.158
90101SOL    HW272201   6.457   9.042   5.237
90102SOL     OW72202  12.629   8.825   1.982
90102SOL    HW172203  12.668   8.831   1.894
90102SOL    HW272204  12.538   8.800   1.966
90103SOL     OW72205   4.533   1.249   4.940
90103SOL    HW172206   4.511   1.271   4.850
90103SOL    HW272207   4.479   1.308   4.993
90104SOL     OW72208   1.284   7.562   5.422
90104SOL    HW172209   1.238   7.486   5.387
90104SOL    HW272210   1.371   7.557   5.382
90105SOL     OW72211  12.686   6.579   5.673
90105SOL    HW172212  12.717   6.503   5.722
90105SOL    HW272213  12.762   6.607   5.622
90106SOL     OW72214   7.257   9.714  12.283
90106SOL    HW172215   7.311   9.708  12.204
90106SOL    HW272216   7.253   9.808  12.303
90107SOL     OW72217   7.603   2.983  14.548
90107SOL    HW172218   7.649   3.057  14.587
90107SOL    HW272219   7.514   3.015  14.532
90108SOL     OW72220   2.009  11.548  13.109
90108SOL    HW172221   2.078  11.488  13.079
90108SOL    HW272222   2.039  11.579  13.195
90109SOL     OW72223   0.166  10.075   1.971
90109SOL    HW172224   0.218  10.114   2.040
90109SOL    HW272225   0.201  10.113   1.890
90110SOL     OW72226   4.872  13.832   5.940
90110SOL    HW172227   4.955  13.789   5.960
90110SOL    HW272228   4.880  13.857   5.848
90111SOL     OW72229  12.349   8.673   4.360
90111SOL    HW172230  12.292   8.728   4.306
90111SOL    HW272231  12.407   8.630   4.297
90112SOL     OW72232  10.843   0.046   9.026
90112SOL    HW172233  10.908   0.095   9.076
90112SOL    HW272234  10.831   0.096   8.946
90113SOL     OW72235   5.105  13.146  12.664
90113SOL    HW172236   5.025  13.096  12.676
90113SOL    HW272237   5.122  13.143  12.570
90114SOL     OW72238   7.402   4.079  11.647
90114SOL    HW172239   7.320   4.034  11.666
90114SOL    HW272240   7.388   4.119  11.561
90115SOL     OW72241  12.442   9.732   5.183
90115SOL    HW172242  12.392   9.812   5.201
90115SOL    HW272243  12.511   9.760   5.123
90116SOL     OW72244   2.593   8.910  12.976
90116SOL    HW172245   2.670   8.964  12.961
90116SOL    HW272246   2.520   8.962  12.944
90117SOL     OW72247  13.154   8.583   5.503
90117SOL    HW172248  13.059   8.579   5.503
90117SOL    HW272249  13.178   8.589   5.410
90118SOL     OW72250   8.422   7.484  10.269
90118SOL    HW172251   8.343   7.472  10.217
90118SOL    HW272252   8.492   7.496  10.204
90119SOL     OW72253   3.648   8.646   6.913
90119SOL    HW172254   3.723   8.593   6.886
90119SOL    HW272255   3.667   8.734   6.879
90120SOL     OW72256   8.625   3.545  11.014
90120SOL    HW172257   8.609   3.453  11.034
90120SOL    HW272258   8.604   3.553  10.920
90121SOL     OW72259  10.473   0.603  14.802
90121SOL    HW172260  10.394   0.548  14.798
90121SOL    HW272261  10.526   0.564  14.872
90122SOL     OW72262  14.283   0.298  12.580
90122SOL    HW172263  14.362   0.335  12.620
90122SOL    HW272264  14.212   0.327  12.638
90123SOL     OW72265   6.834   6.250   2.626
90123SOL    HW172266   6.910   6.302   2.654
90123SOL    HW272267   6.844   6.167   2.672
90124SOL     OW72268   8.972  10.033   1.433
90124SOL    HW172269   8.975  10.125   1.461
90124SOL    HW272270   8.982   9.983   1.513
90125SOL     OW72271   7.074  11.843  14.454
90125SOL    HW172272   7.004  11.796  14.409
90125SOL    HW272273   7.148  11.783  14.453
90126SOL     OW72274  12.633  11.835   6.396
90126SOL    HW172275  12.560  11.788   6.357
90126SOL    HW272276  12.592  11.907   6.445
90127SOL     OW72277  10.175   2.412   4.159
90127SOL    HW172278  10.153   2.504   4.144
90127SOL    HW272279  10.102   2.363   4.121
90128SOL     OW72280   8.017   0.553  13.458
90128SOL    HW172281   8.029   0.484  13.523
90128SOL    HW272282   8.069   0.525  13.383
90129SOL     OW72283   2.679   9.835   5.013
90129SOL    HW172284   2.685   9.870   5.102
90129SOL    HW272285   2.767   9.846   4.978
90130SOL     OW72286   7.264  11.255   1.699
90130SOL    HW172287   7.310  11.279   1.779
90130SOL    HW272288   7.308  11.304   1.629
90131SOL     OW72289   1.825   9.136   5.222
90131SOL    HW172290   1.914   9.111   5.249
90131SOL    HW272291   1.775   9.138   5.304
90132SOL     OW72292   9.939   2.041   1.598
90132SOL    HW172293   9.950   2.108   1.665
90132SOL    HW272294  10.001   2.064   1.530
90133SOL     OW72295  11.167   2.483   8.163
90133SOL    HW172296  11.216   2.401   8.153
90133SOL    HW272297  11.117   2.492   8.082
90134SOL     OW72298   1.105   5.089   2.903
90134SOL    HW172299   1.124   5.182   2.889
90134SOL    HW272300   1.149   5.045   2.830
90135SOL     OW72301   6.842   5.431  14.437
90135SOL    HW172302   6.902   5.386  14.497
90135SOL    HW272303   6.763   5.377  14.438
90136SOL     OW72304   2.279  13.440   7.170
90136SOL    HW172305   2.248  13.382   7.239
90136SOL    HW272306   2.238  13.406   7.090
90137SOL     OW72307   3.199   8.847   0.076
90137SOL    HW172308   3.118   8.861   0.125
90137SOL    HW272309   3.266   8.831   0.142
90138SOL     OW72310   8.051  10.002  14.764
90138SOL    HW172311   8.136   9.962  14.785
90138SOL    HW272312   8.041   9.987  14.670
90139SOL     OW72313   7.369  12.248   5.105
90139SOL    HW172314   7.354  12.305   5.030
90139SOL    HW272315   7.287  12.249   5.153
90140SOL     OW72316  14.541   8.510   6.665
90140SOL    HW172317  14.636   8.517   6.677
90140SOL    HW272318  14.531   8.460   6.584
90141SOL     OW72319  11.977  14.430   1.085
90141SOL    HW172320  12.072  14.430   1.068
90141SOL    HW272321  11.959  14.515   1.124
90142SOL     OW72322   8.339  11.724  12.121
90142SOL    HW172323   8.378  11.658  12.064
90142SOL    HW272324   8.296  11.785  12.062
90143SOL     OW72325  14.858  10.567   3.281
90143SOL    HW172326   0.072  10.541   3.294
90143SOL    HW272327  14.863  10.645   3.226
90144SOL     OW72328  14.534  11.675   0.788
90144SOL    HW172329  14.578  11.641   0.710
90144SOL    HW272330  14.540  11.770   0.779
90145SOL     OW72331   0.232   5.808  13.455
90145SOL    HW172332   0.139   5.790  13.442
90145SOL    HW272333   0.239   5.903  13.447
90146SOL     OW72334  10.652   1.333   2.783
90146SOL    HW172335  10.717   1.265   2.766
90146SOL    HW272336  10.568   1.288   2.779
90147SOL     OW72337   7.043   9.063  14.620
90147SOL    HW172338   7.111   9.002  14.646
90147SOL    HW272339   7.091   9.141  14.590
90148SOL     OW72340   4.661   6.366  11.900
90148SOL    HW172341   4.662   6.458  11.873
90148SOL    HW272342   4.570   6.350  11.926
90149SOL     OW72343   0.195   1.114  13.866
90149SOL    HW172344   0.146   1.044  13.910
90149SOL    HW272345   0.260   1.068  13.813
90150SOL     OW72346  13.032   8.295   2.863
90150SOL    HW172347  13.030   8.382   2.903
90150SOL    HW272348  13.035   8.311   2.769
90151SOL     OW72349  13.393   0.998   8.700
90151SOL    HW172350  13.361   0.973   8.786
90151SOL    HW272351  13.314   1.020   8.650
90152SOL     OW72352   6.066  13.582   4.718
90152SOL    HW172353   6.118  13.526   4.660
90152SOL    HW272354   6.053  13.663   4.669
90153SOL     OW72355  11.487  11.429   0.978
90153SOL    HW172356  11.570  11.467   0.949
90153SOL    HW272357  11.508  11.338   1.001
90154SOL     OW72358  10.007   4.681   0.689
90154SOL    HW172359  10.102   4.681   0.678
90154SOL    HW272360   9.989   4.755   0.746
90155SOL     OW72361  14.064  12.546  14.718
90155SOL    HW172362  13.976  12.522  14.687
90155SOL    HW272363  14.081  12.485  14.790
90156SOL     OW72364   9.764   9.677   2.694
90156SOL    HW172365   9.762   9.613   2.623
90156SOL    HW272366   9.853   9.670   2.730
90157SOL     OW72367   2.153   0.488   6.497
90157SOL    HW172368   2.157   0.395   6.521
90157SOL    HW272369   2.096   0.490   6.420
90158SOL     OW72370   8.606   4.989   3.996
90158SOL    HW172371   8.616   4.893   3.992
90158SOL    HW272372   8.679   5.022   3.943
90159SOL     OW72373   0.606   2.783  13.942
90159SOL    HW172374   0.519   2.751  13.920
90159SOL    HW272375   0.665   2.712  13.915
90160SOL     OW72376   8.130   6.125   1.083
90160SOL    HW172377   8.106   6.090   0.997
90160SOL    HW272378   8.093   6.062   1.145
90161SOL     OW72379   4.259   3.096  11.254
90161SOL    HW172380   4.236   3.010  11.219
90161SOL    HW272381   4.250   3.087  11.349
90162SOL     OW72382   1.068   0.608  12.939
90162SOL    HW172383   1.083   0.651  12.855
90162SOL    HW272384   1.148   0.559  12.955
90163SOL     OW72385   1.974  11.750   0.024
90163SOL    HW172386   1.890  11.729   0.065
90163SOL    HW272387   2.027  11.672   0.037
90164SOL     OW72388   3.797   6.205  11.586
90164SOL    HW172389   3.876   6.194  11.640
90164SOL    HW272390   3.831   6.217  11.497
90165SOL     OW72391   3.495   9.994   5.440
90165SOL    HW172392   3.416   9.990   5.386
90165SOL    HW272393   3.551  10.059   5.396
90166SOL     OW72394   1.849   9.345   2.405
90166SOL    HW172395   1.902   9.270   2.432
90166SOL    HW272396   1.791   9.362   2.479
90167SOL     OW72397   6.865   1.897   9.468
90167SOL    HW172398   6.847   1.986   9.437
90167SOL    HW272399   6.780   1.863   9.497
90168SOL     OW72400  14.082   7.643   1.829
90168SOL    HW172401  14.143   7.569   1.822
90168SOL    HW272402  14.066   7.669   1.739
90169SOL     OW72403   2.554   5.046   3.049
90169SOL    HW172404   2.557   5.142   3.046
90169SOL    HW272405   2.483   5.027   3.110
90170SOL     OW72406   6.960   9.631   9.223
90170SOL    HW172407   6.915   9.563   9.173
90170SOL    HW272408   6.911   9.637   9.305
90171SOL     OW72409  11.011   9.672   5.932
90171SOL    HW172410  11.046   9.584   5.945
90171SOL    HW272411  10.962   9.667   5.850
90172SOL     OW72412   4.418   1.258   1.412
90172SOL    HW172413   4.355   1.328   1.395
90172SOL    HW272414   4.370   1.178   1.392
90173SOL     OW72415   9.917   4.380   9.866
90173SOL    HW172416   9.846   4.392   9.930
90173SOL    HW272417   9.913   4.287   9.844
90174SOL     OW72418   0.770   0.706  10.399
90174SOL    HW172419   0.737   0.759  10.326
90174SOL    HW272420   0.866   0.715  10.393
90175SOL     OW72421  13.773   1.626   5.354
90175SOL    HW172422  13.745   1.535   5.342
90175SOL    HW272423  13.710   1.663   5.415
90176SOL     OW72424   8.190  12.619  10.364
90176SOL    HW172425   8.209  12.547  10.304
90176SOL    HW272426   8.276  12.654  10.388
90177SOL     OW72427   2.033   2.388   6.846
90177SOL    HW172428   2.092   2.314   6.833
90177SOL    HW272429   2.020   2.424   6.758
90178SOL     OW72430  13.195   2.114   2.404
90178SOL    HW172431  13.252   2.073   2.469
90178SOL    HW272432  13.109   2.115   2.444
90179SOL     OW72433   8.210   2.225   8.240
90179SOL    HW172434   8.279   2.192   8.182
90179SOL    HW272435   8.171   2.146   8.277
90180SOL     OW72436  13.627   4.088   2.659
90180SOL    HW172437  13.595   4.163   2.609
90180SOL    HW272438  13.686   4.126   2.724
90181SOL     OW72439   5.113   3.378   8.248
90181SOL    HW172440   5.084   3.287   8.250
90181SOL    HW272441   5.208   3.373   8.234
90182SOL     OW72442  11.736  13.089  13.078
90182SOL    HW172443  11.678  13.146  13.128
90182SOL    HW272444  11.815  13.083  13.131
90183SOL     OW72445  10.352  11.850  13.399
90183SOL    HW172446  10.312  11.769  13.431
90183SOL    HW272447  10.279  11.900  13.364
90184SOL     OW72448   8.982   1.868   2.737
90184SOL    HW172449   8.922   1.941   2.724
90184SOL    HW272450   8.976   1.817   2.656
90185SOL     OW72451   8.819  11.870  11.050
90185SOL    HW172452   8.905  11.874  11.008
90185SOL    HW272453   8.758  11.859  10.977
90186SOL     OW72454  10.247   4.342   7.469
90186SOL    HW172455  10.315   4.277   7.487
90186SOL    HW272456  10.181   4.294   7.417
90187SOL     OW72457   9.006   3.582   0.464
90187SOL    HW172458   8.980   3.672   0.481
90187SOL    HW272459   8.946   3.529   0.516
90188SOL     OW72460  11.431  10.704  14.139
90188SOL    HW172461  11.404  10.758  14.212
90188SOL    HW272462  11.377  10.626  14.144
90189SOL     OW72463   3.862  10.469  10.256
90189SOL    HW172464   3.863  10.378  10.287
90189SOL    HW272465   3.923  10.515  10.315
90190SOL     OW72466   8.896  10.513   4.456
90190SOL    HW172467   8.818  10.458   4.444
90190SOL    HW272468   8.864  10.602   4.443
90191SOL     OW72469  13.469  14.103   8.394
90191SOL    HW172470  13.382  14.074   8.418
90191SOL    HW272471  13.458  14.145   8.309
90192SOL     OW72472  14.289  12.085   2.901
90192SOL    HW172473  14.237  12.163   2.921
90192SOL    HW272474  14.341  12.109   2.825
90193SOL     OW72475   4.282  12.167   2.397
90193SOL    HW172476   4.267  12.246   2.449
90193SOL    HW272477   4.296  12.198   2.308
90194SOL     OW72478  12.900  11.995   9.899
90194SOL    HW172479  12.837  11.953   9.958
90194SOL    HW272480  12.937  11.923   9.848
90195SOL     OW72481   7.740   5.474   1.263
90195SOL    HW172482   7.790   5.423   1.326
90195SOL    HW272483   7.805   5.530   1.220
90196SOL     OW72484   9.607   3.806   1.296
90196SOL    HW172485   9.551   3.883   1.288
90196SOL    HW272486   9.679   3.822   1.234
90197SOL     OW72487  11.809  12.012   6.166
90197SOL    HW172488  11.832  12.015   6.259
90197SOL    HW272489  11.727  12.062   6.160
90198SOL     OW72490   3.292  10.377   5.920
90198SOL    HW172491   3.360  10.369   5.987
90198SOL    HW272492   3.332  10.341   5.841
90199SOL     OW72493  10.813   3.510   3.205
90199SOL    HW172494  10.835   3.538   3.116
90199SOL    HW272495  10.743   3.446   3.193
90200SOL     OW72496   6.267  10.815  11.073
90200SOL    HW172497   6.222  10.758  11.011
90200SOL    HW272498   6.359  10.789  11.067
90201SOL     OW72499   0.281   0.519   2.055
90201SOL    HW172500   0.259   0.484   1.968
90201SOL    HW272501   0.358   0.575   2.040
90202SOL     OW72502   4.032   2.602   1.281
90202SOL    HW172503   4.072   2.686   1.259
90202SOL    HW272504   3.940   2.622   1.297
90203SOL     OW72505   8.442  14.857   8.216
90203SOL    HW172506   8.503  14.861   8.290
90203SOL    HW272507   8.407  14.768   8.219
90204SOL     OW72508   4.238   9.160  14.490
90204SOL    HW172509   4.262   9.193  14.403
90204SOL    HW272510   4.197   9.235  14.533
90205SOL     OW72511   3.492   4.001   5.673
90205SOL    HW172512   3.487   4.005   5.577
90205SOL    HW272513   3.510   3.909   5.693
90206SOL     OW72514   9.505   8.239   1.806
90206SOL    HW172515   9.564   8.261   1.878
90206SOL    HW272516   9.536   8.154   1.775
90207SOL     OW72517   0.148  11.485   3.628
90207SOL    HW172518   0.090  11.409   3.617
90207SOL    HW272519   0.220  11.453   3.682
90208SOL     OW72520   1.972   3.741   3.793
90208SOL    HW172521   1.901   3.679   3.811
90208SOL    HW272522   1.934   3.803   3.731
90209SOL     OW72523   8.061   0.569   7.535
90209SOL    HW172524   8.076   0.516   7.457
90209SOL    HW272525   7.966   0.579   7.539
90210SOL     OW72526   4.079   6.150   4.326
90210SOL    HW172527   4.106   6.120   4.413
90210SOL    HW272528   4.129   6.231   4.312
90211SOL     OW72529   9.571  13.768   6.962
90211SOL    HW172530   9.632  13.833   6.997
90211SOL    HW272531   9.484  13.804   6.977
90212SOL     OW72532  10.138  12.926   1.771
90212SOL    HW172533  10.161  12.979   1.694
90212SOL    HW272534  10.050  12.895   1.753
90213SOL     OW72535   4.483  10.204   4.461
90213SOL    HW172536   4.397  10.222   4.498
90213SOL    HW272537   4.466  10.157   4.380
90214SOL     OW72538   3.213   5.087  11.970
90214SOL    HW172539   3.305   5.105  11.990
90214SOL    HW272540   3.205   5.106  11.876
90215SOL     OW72541   3.403   5.696  14.047
90215SOL    HW172542   3.473   5.643  14.086
90215SOL    HW272543   3.339   5.631  14.016
90216SOL     OW72544  12.412   0.692   2.003
90216SOL    HW172545  12.475   0.663   2.069
90216SOL    HW272546  12.375   0.773   2.037
90217SOL     OW72547  10.381   7.354  10.240
90217SOL    HW172548  10.374   7.295  10.165
90217SOL    HW272549  10.292   7.386  10.253
90218SOL     OW72550  11.200  12.530   9.747
90218SOL    HW172551  11.253  12.609   9.734
90218SOL    HW272552  11.263  12.461   9.767
90219SOL     OW72553   2.410   7.128  14.868
90219SOL    HW172554   2.489   7.105  14.820
90219SOL    HW272555   2.339   7.091  14.816
90220SOL     OW72556  12.613   0.395  12.296
90220SOL    HW172557  12.554   0.338  12.247
90220SOL    HW272558  12.679   0.423  12.232
90221SOL     OW72559   6.017  11.843   1.583
90221SOL    HW172560   6.101  11.855   1.538
90221SOL    HW272561   5.963  11.916   1.554
90222SOL     OW72562  14.071  13.174   3.109
90222SOL    HW172563  14.123  13.159   3.187
90222SOL    HW272564  13.982  13.150   3.134
90223SOL     OW72565   7.792  13.308   8.409
90223SOL    HW172566   7.701  13.298   8.437
90223SOL    HW272567   7.791  13.382   8.349
90224SOL     OW72568  11.888   5.744  11.806
90224SOL    HW172569  11.931   5.714  11.886
90224SOL    HW272570  11.956   5.737  11.739
90225SOL     OW72571   3.501   2.144   2.285
90225SOL    HW172572   3.582   2.174   2.326
90225SOL    HW272573   3.432   2.175   2.344
90226SOL     OW72574   6.780   4.317   1.759
90226SOL    HW172575   6.727   4.376   1.705
90226SOL    HW272576   6.806   4.247   1.700
90227SOL     OW72577  14.303  13.698   4.715
90227SOL    HW172578  14.352  13.736   4.642
90227SOL    HW272579  14.347  13.731   4.793
90228SOL     OW72580  12.306   8.475   3.514
90228SOL    HW172581  12.308   8.530   3.592
90228SOL    HW272582  12.398   8.456   3.496
90229SOL     OW72583  14.849   5.023   1.694
90229SOL    HW172584   0.032   5.009   1.621
90229SOL    HW272585  14.782   5.081   1.659
90230SOL     OW72586   3.324  12.854   3.796
90230SOL    HW172587   3.366  12.940   3.791
90230SOL    HW272588   3.322  12.833   3.889
90231SOL     OW72589   3.536  11.117   5.826
90231SOL    HW172590   3.493  11.200   5.847
90231SOL    HW272591   3.502  11.094   5.740
90232SOL     OW72592  12.445  10.128   8.926
90232SOL    HW172593  12.397  10.202   8.962
90232SOL    HW272594  12.534  10.139   8.959
90233SOL     OW72595  14.502  13.117   2.004
90233SOL    HW172596  14.478  13.073   2.086
90233SOL    HW272597  14.431  13.096   1.944
90234SOL     OW72598   7.184   2.346   9.597
90234SOL    HW172599   7.169   2.394   9.679
90234SOL    HW272600   7.240   2.404   9.546
90235SOL     OW72601   1.224   6.196  14.051
90235SOL    HW172602   1.159   6.247  14.003
90235SOL    HW272603   1.177   6.164  14.128
90236SOL     OW72604   3.060   6.506  12.797
90236SOL    HW172605   3.140   6.472  12.837
90236SOL    HW272606   3.088   6.586  12.752
90237SOL     OW72607  14.597   0.657   7.446
90237SOL    HW172608  14.664   0.638   7.510
90237SOL    HW272609  14.645   0.672   7.364
90238SOL     OW72610   4.819  13.020   8.006
90238SOL    HW172611   4.764  13.081   8.055
90238SOL    HW272612   4.896  13.006   8.061
90239SOL     OW72613  14.527   2.565  12.066
90239SOL    HW172614  14.599   2.618  12.030
90239SOL    HW272615  14.479   2.626  12.123
90240SOL     OW72616  10.239  10.832   6.441
90240SOL    HW172617  10.287  10.852   6.361
90240SOL    HW272618  10.282  10.754   6.476
90241SOL     OW72619   3.102   9.626  12.948
90241SOL    HW172620   3.041   9.619  13.021
90241SOL    HW272621   3.097   9.718  12.921
90242SOL     OW72622   5.632   2.958  10.215
90242SOL    HW172623   5.715   2.914  10.198
90242SOL    HW272624   5.621   2.953  10.310
90243SOL     OW72625   1.978  13.439   5.281
90243SOL    HW172626   2.042  13.427   5.351
90243SOL    HW272627   1.928  13.357   5.280
90244SOL     OW72628  14.775   6.058   8.041
90244SOL    HW172629  14.851   6.083   7.987
90244SOL    HW272630  14.810   5.992   8.100
90245SOL     OW72631   8.831  10.885   1.192
90245SOL    HW172632   8.849  10.896   1.286
90245SOL    HW272633   8.789  10.967   1.166
90246SOL     OW72634   4.574   4.110   1.554
90246SOL    HW172635   4.662   4.086   1.584
90246SOL    HW272636   4.554   4.047   1.485
90247SOL     OW72637   0.096  11.715  11.181
90247SOL    HW172638   0.154  11.642  11.155
90247SOL    HW272639   0.034  11.675  11.241
90248SOL     OW72640   0.416  12.366   6.873
90248SOL    HW172641   0.453  12.278   6.874
90248SOL    HW272642   0.322  12.352   6.859
90249SOL     OW72643  11.297   2.516   7.050
90249SOL    HW172644  11.243   2.522   7.129
90249SOL    HW272645  11.365   2.583   7.062
90250SOL     OW72646   6.404  13.936   4.011
90250SOL    HW172647   6.420  13.843   3.992
90250SOL    HW272648   6.398  13.940   4.106
90251SOL     OW72649   4.736  13.394   6.639
90251SOL    HW172650   4.642  13.411   6.644
90251SOL    HW272651   4.777  13.471   6.678
90252SOL     OW72652  10.958   2.632   4.076
90252SOL    HW172653  11.027   2.691   4.105
90252SOL    HW272654  10.879   2.664   4.119
90253SOL     OW72655   8.134   9.893  10.456
90253SOL    HW172656   8.147   9.927  10.367
90253SOL    HW272657   8.222   9.873  10.487
90254SOL     OW72658   0.305   5.933   7.824
90254SOL    HW172659   0.338   5.978   7.902
90254SOL    HW272660   0.366   5.957   7.755
90255SOL     OW72661  13.182  13.696  10.236
90255SOL    HW172662  13.210  13.604  10.243
90255SOL    HW272663  13.262  13.746  10.245
90256SOL     OW72664  13.910   8.272  13.379
90256SOL    HW172665  13.955   8.206  13.432
90256SOL    HW272666  13.832   8.295  13.429
90257SOL     OW72667   0.474  14.187   7.308
90257SOL    HW172668   0.404  14.230   7.357
90257SOL    HW272669   0.535  14.158   7.376
90258SOL     OW72670   1.671   1.976  12.675
90258SOL    HW172671   1.631   1.932  12.750
90258SOL    HW272672   1.744   2.025  12.712
90259SOL     OW72673   1.560  12.049  14.601
90259SOL    HW172674   1.512  11.974  14.564
90259SOL    HW272675   1.554  12.117  14.533
90260SOL     OW72676   8.587   7.016   2.141
90260SOL    HW172677   8.677   7.047   2.130
90260SOL    HW272678   8.582   6.937   2.087
90261SOL     OW72679   2.343   3.304  12.615
90261SOL    HW172680   2.387   3.219  12.621
90261SOL    HW272681   2.414   3.368  12.610
90262SOL     OW72682  10.097  10.316   5.394
90262SOL    HW172683  10.104  10.408   5.368
90262SOL    HW272684  10.027  10.281   5.340
90263SOL     OW72685   5.394   0.963   3.413
90263SOL    HW172686   5.349   0.881   3.432
90263SOL    HW272687   5.423   0.954   3.322
90264SOL     OW72688  14.215   2.400   0.894
90264SOL    HW172689  14.206   2.383   0.801
90264SOL    HW272690  14.287   2.462   0.901
90265SOL     OW72691   0.313   3.882   2.326
90265SOL    HW172692   0.400   3.868   2.363
90265SOL    HW272693   0.255   3.827   2.378
90266SOL     OW72694  13.474   1.335  10.983
90266SOL    HW172695  13.460   1.280  11.060
90266SOL    HW272696  13.413   1.408  10.993
90267SOL     OW72697   2.786  13.079  12.383
90267SOL    HW172698   2.803  13.060  12.475
90267SOL    HW272699   2.691  13.080  12.375
90268SOL     OW72700   0.355  11.640  11.826
90268SOL    HW172701   0.285  11.597  11.777
90268SOL    HW272702   0.317  11.723  11.855
90269SOL     OW72703  13.730   1.354   7.753
90269SOL    HW172704  13.635   1.356   7.754
90269SOL    HW272705  13.753   1.283   7.814
90270SOL     OW72706   4.504  13.996   6.215
90270SOL    HW172707   4.536  13.972   6.128
90270SOL    HW272708   4.572  13.965   6.274
90271SOL     OW72709   4.141   3.372   0.731
90271SOL    HW172710   4.190   3.446   0.766
90271SOL    HW272711   4.161   3.371   0.637
90272SOL     OW72712   8.943  10.337  13.738
90272SOL    HW172713   8.873  10.313  13.677
90272SOL    HW272714   8.929  10.430  13.755
90273SOL     OW72715   6.233  10.176   3.255
90273SOL    HW172716   6.255  10.128   3.335
90273SOL    HW272717   6.315  10.181   3.206
90274SOL     OW72718   4.886   9.207   8.501
90274SOL    HW172719   4.905   9.284   8.555
90274SOL    HW272720   4.895   9.133   8.562
90275SOL     OW72721   8.133   4.745   2.773
90275SOL    HW172722   8.140   4.798   2.693
90275SOL    HW272723   8.150   4.807   2.844
90276SOL     OW72724   0.279   1.059   7.958
90276SOL    HW172725   0.196   1.023   7.989
90276SOL    HW272726   0.261   1.090   7.869
90277SOL     OW72727   2.869   8.204   6.176
90277SOL    HW172728   2.786   8.213   6.129
90277SOL    HW272729   2.919   8.281   6.150
90278SOL     OW72730   9.776   3.442   8.187
90278SOL    HW172731   9.777   3.524   8.237
90278SOL    HW272732   9.741   3.467   8.101
90279SOL     OW72733   5.593   5.876   1.348
90279SOL    HW172734   5.639   5.824   1.281
90279SOL    HW272735   5.604   5.967   1.318
90280SOL     OW72736   9.425   1.950   0.016
90280SOL    HW172737   9.338   1.974   0.047
90280SOL    HW272738   9.485   1.988   0.080
90281SOL     OW72739   5.495  12.092   3.487
90281SOL    HW172740   5.513  12.143   3.408
90281SOL    HW272741   5.510  12.001   3.461
90282SOL     OW72742   9.978   7.091   5.302
90282SOL    HW172743  10.068   7.081   5.335
90282SOL    HW272744   9.954   7.003   5.273
90283SOL     OW72745   2.312   1.724   2.871
90283SOL    HW172746   2.346   1.669   2.941
90283SOL    HW272747   2.226   1.753   2.902
90284SOL     OW72748  14.598  14.735   5.864
90284SOL    HW172749  14.678  14.721   5.914
90284SOL    HW272750  14.527  14.722   5.928
90285SOL     OW72751   6.121   8.168   9.507
90285SOL    HW172752   6.185   8.216   9.456
90285SOL    HW272753   6.171   8.097   9.548
90286SOL     OW72754   5.846   5.146   3.975
90286SOL    HW172755   5.807   5.059   3.972
90286SOL    HW272756   5.780   5.203   3.936
90287SOL     OW72757   2.281   0.106  14.421
90287SOL    HW172758   2.285   0.067  14.508
90287SOL    HW272759   2.223   0.181  14.430
90288SOL     OW72760   2.202   1.121   2.883
90288SOL    HW172761   2.160   1.040   2.913
90288SOL    HW272762   2.135   1.188   2.898
90289SOL     OW72763  14.310   6.071   1.769
90289SOL    HW172764  14.334   5.993   1.718
90289SOL    HW272765  14.220   6.089   1.745
90290SOL     OW72766   7.679   9.675   6.079
90290SOL    HW172767   7.666   9.769   6.090
90290SOL    HW272768   7.773   9.665   6.065
90291SOL     OW72769   7.732  13.112  12.290
90291SOL    HW172770   7.737  13.049  12.218
90291SOL    HW272771   7.823  13.136  12.306
90292SOL     OW72772   0.770  10.083   2.271
90292SOL    HW172773   0.791   9.999   2.230
90292SOL    HW272774   0.742  10.138   2.197
90293SOL     OW72775   7.270  12.579   4.503
90293SOL    HW172776   7.335  12.541   4.562
90293SOL    HW272777   7.270  12.673   4.524
90294SOL     OW72778   9.084  11.204  10.576
90294SOL    HW172779   9.065  11.146  10.502
90294SOL    HW272780   9.155  11.260  10.545
90295SOL     OW72781  13.843   0.989   0.480
90295SOL    HW172782  13.831   0.897   0.456
90295SOL    HW272783  13.875   1.030   0.399
90296SOL     OW72784  10.071   2.915  11.300
90296SOL    HW172785  10.025   2.838  11.333
90296SOL    HW272786  10.133   2.881  11.236
90297SOL     OW72787  11.344   4.339   5.699
90297SOL    HW172788  11.316   4.267   5.642
90297SOL    HW272789  11.292   4.329   5.778
90298SOL     OW72790  10.824  12.558   8.740
90298SOL    HW172791  10.873  12.519   8.667
90298SOL    HW272792  10.773  12.485   8.776
90299SOL     OW72793   9.113   7.442  12.641
90299SOL    HW172794   9.051   7.393  12.587
90299SOL    HW272795   9.126   7.524  12.592
90300SOL     OW72796   9.663  12.638   2.441
90300SOL    HW172797   9.625  12.722   2.415
90300SOL    HW272798   9.591  12.592   2.486
90301SOL     OW72799   9.214  13.833  12.202
90301SOL    HW172800   9.145  13.899  12.210
90301SOL    HW272801   9.170  13.757  12.165
90302SOL     OW72802   8.912   5.518   6.948
90302SOL    HW172803   8.855   5.531   6.872
90302SOL    HW272804   8.887   5.587   7.009
90303SOL     OW72805  10.219   3.385   6.519
90303SOL    HW172806  10.170   3.303   6.530
90303SOL    HW272807  10.311   3.357   6.513
90304SOL     OW72808  13.363   5.308  11.351
90304SOL    HW172809  13.422   5.294  11.425
90304SOL    HW272810  13.283   5.261  11.375
90305SOL     OW72811   5.802   9.735   9.596
90305SOL    HW172812   5.887   9.758   9.633
90305SOL    HW272813   5.765   9.819   9.570
90306SOL     OW72814   3.770  10.478   6.645
90306SOL    HW172815   3.742  10.568   6.635
90306SOL    HW272816   3.844  10.469   6.585
90307SOL     OW72817   5.585   4.546   8.405
90307SOL    HW172818   5.678   4.545   8.381
90307SOL    HW272819   5.558   4.637   8.395
90308SOL     OW72820   3.965  12.555  12.681
90308SOL    HW172821   3.940  12.569  12.590
90308SOL    HW272822   4.011  12.635  12.706
90309SOL     OW72823  13.394   7.692  11.042
90309SOL    HW172824  13.436   7.708  10.957
90309SOL    HW272825  13.355   7.775  11.066
90310SOL     OW72826   6.796   4.813   5.606
90310SOL    HW172827   6.863   4.878   5.628
90310SOL    HW272828   6.770   4.835   5.516
90311SOL     OW72829   0.776   6.963   8.689
90311SOL    HW172830   0.792   6.871   8.667
90311SOL    HW272831   0.714   6.993   8.622
90312SOL     OW72832   0.559   0.005   2.004
90312SOL    HW172833   0.634   0.048   2.044
90312SOL    HW272834   0.550  14.800   2.051
90313SOL     OW72835   6.876   1.677   1.924
90313SOL    HW172836   6.837   1.627   1.995
90313SOL    HW272837   6.898   1.762   1.963
90314SOL     OW72838   0.539  10.531  10.701
90314SOL    HW172839   0.527  10.464  10.633
90314SOL    HW272840   0.456  10.579  10.703
90315SOL     OW72841  14.683  13.404   0.374
90315SOL    HW172842  14.678  13.313   0.402
90315SOL    HW272843  14.592  13.432   0.364
90316SOL     OW72844   6.250  14.233  12.943
90316SOL    HW172845   6.302  14.313  12.950
90316SOL    HW272846   6.306  14.171  12.896
90317SOL     OW72847  14.067  10.471   1.149
90317SOL    HW172848  13.988  10.505   1.191
90317SOL    HW272849  14.136  10.533   1.173
90318SOL     OW72850  13.312   4.392   8.596
90318SOL    HW172851  13.243   4.419   8.656
90318SOL    HW272852  13.381   4.457   8.607
90319SOL     OW72853  12.819  14.305   5.738
90319SOL    HW172854  12.901  14.325   5.783
90319SOL    HW272855  12.764  14.382   5.754
90320SOL     OW72856  13.272   7.060  11.316
90320SOL    HW172857  13.342   7.100  11.366
90320SOL    HW272858  13.310   7.044  11.230
90321SOL     OW72859  11.591   3.397   9.913
90321SOL    HW172860  11.502   3.405   9.880
90321SOL    HW272861  11.618   3.488   9.929
90322SOL     OW72862   0.598   8.810   8.546
90322SOL    HW172863   0.575   8.802   8.453
90322SOL    HW272864   0.668   8.875   8.548
90323SOL     OW72865   7.048  10.616   5.920
90323SOL    HW172866   6.961  10.656   5.927
90323SOL    HW272867   7.043  10.538   5.976
90324SOL     OW72868  10.830   1.775  11.054
90324SOL    HW172869  10.817   1.858  11.009
90324SOL    HW272870  10.925   1.769  11.065
90325SOL     OW72871   9.805  10.486   2.824
90325SOL    HW172872   9.848  10.511   2.742
90325SOL    HW272873   9.824  10.393   2.834
90326SOL     OW72874   8.806   2.284  10.121
90326SOL    HW172875   8.854   2.208  10.155
90326SOL    HW272876   8.797   2.342  10.196
90327SOL     OW72877  13.050   2.441  14.621
90327SOL    HW172878  12.979   2.486  14.668
90327SOL    HW272879  13.015   2.354  14.603
90328SOL     OW72880   0.215   1.700   8.707
90328SOL    HW172881   0.293   1.753   8.687
90328SOL    HW272882   0.240   1.649   8.784
90329SOL     OW72883   9.138   4.977  12.333
90329SOL    HW172884   9.184   5.032  12.269
90329SOL    HW272885   9.073   5.035  12.372
90330SOL     OW72886   0.131  11.655   8.877
90330SOL    HW172887   0.074  11.605   8.818
90330SOL    HW272888   0.153  11.594   8.947
90331SOL     OW72889   8.578   8.881   1.410
90331SOL    HW172890   8.484   8.895   1.400
90331SOL    HW272891   8.589   8.786   1.404
90332SOL     OW72892   6.997   2.392   8.267
90332SOL    HW172893   6.922   2.348   8.306
90332SOL    HW272894   7.071   2.336   8.287
90333SOL     OW72895   0.827   6.222   6.172
90333SOL    HW172896   0.797   6.291   6.113
90333SOL    HW272897   0.904   6.260   6.215
90334SOL     OW72898  12.061   6.813   6.553
90334SOL    HW172899  12.139   6.868   6.543
90334SOL    HW272900  12.005   6.862   6.613
90335SOL     OW72901   9.222  10.500   8.667
90335SOL    HW172902   9.268  10.456   8.595
90335SOL    HW272903   9.291  10.543   8.718
90336SOL     OW72904   4.967   3.413  13.811
90336SOL    HW172905   4.874   3.391  13.809
90336SOL    HW272906   4.986   3.444  13.722
90337SOL     OW72907   1.328  14.715   7.221
90337SOL    HW172908   1.301  14.734   7.311
90337SOL    HW272909   1.372  14.630   7.226
90338SOL     OW72910   7.131   3.858   2.972
90338SOL    HW172911   7.110   3.905   3.053
90338SOL    HW272912   7.048   3.852   2.925
90339SOL     OW72913   2.946   4.442   6.551
90339SOL    HW172914   3.030   4.397   6.541
90339SOL    HW272915   2.891   4.404   6.483
90340SOL     OW72916   4.308  12.700   2.373
90340SOL    HW172917   4.303  12.781   2.321
90340SOL    HW272918   4.217  12.675   2.387
90341SOL     OW72919  11.911   3.841  10.514
90341SOL    HW172920  11.994   3.831  10.560
90341SOL    HW272921  11.863   3.760  10.532
90342SOL     OW72922  11.141   2.131   1.108
90342SOL    HW172923  11.059   2.181   1.111
90342SOL    HW272924  11.136   2.070   1.181
90343SOL     OW72925  14.143   0.923   4.923
90343SOL    HW172926  14.210   0.952   4.861
90343SOL    HW272927  14.087   1.000   4.936
90344SOL     OW72928  11.037  10.478   7.421
90344SOL    HW172929  11.039  10.491   7.516
90344SOL    HW272930  11.000  10.560   7.387
90345SOL     OW72931   6.128   3.041   1.782
90345SOL    HW172932   6.176   3.062   1.703
90345SOL    HW272933   6.046   3.003   1.751
90346SOL     OW72934   8.943   8.139   2.345
90346SOL    HW172935   8.873   8.126   2.409
90346SOL    HW272936   8.945   8.234   2.330
90347SOL     OW72937   5.165  10.234   1.661
90347SOL    HW172938   5.086  10.182   1.647
90347SOL    HW272939   5.195  10.256   1.573
90348SOL     OW72940   6.199   8.761   0.946
90348SOL    HW172941   6.112   8.793   0.970
90348SOL    HW272942   6.254   8.782   1.021
90349SOL     OW72943   2.622   3.387   8.948
90349SOL    HW172944   2.546   3.420   8.995
90349SOL    HW272945   2.652   3.461   8.895
90350SOL     OW72946  12.054   6.739  13.215
90350SOL    HW172947  12.039   6.755  13.308
90350SOL    HW272948  12.050   6.826  13.175
90351SOL     OW72949   9.798  12.762  11.731
90351SOL    HW172950   9.799  12.857  11.726
90351SOL    HW272951   9.887  12.736  11.707
90352SOL     OW72952  11.157   0.285  12.256
90352SOL    HW172953  11.242   0.330  12.253
90352SOL    HW272954  11.165   0.214  12.192
90353SOL     OW72955   8.735   7.973   4.178
90353SOL    HW172956   8.784   7.958   4.259
90353SOL    HW272957   8.707   7.886   4.151
90354SOL     OW72958   3.665   1.669   8.951
90354SOL    HW172959   3.740   1.613   8.934
90354SOL    HW272960   3.679   1.701   9.040
90355SOL     OW72961  13.400  11.315   9.441
90355SOL    HW172962  13.472  11.314   9.379
90355SOL    HW272963  13.391  11.406   9.468
90356SOL     OW72964  11.402  12.291   7.686
90356SOL    HW172965  11.388  12.250   7.600
90356SOL    HW272966  11.437  12.220   7.740
90357SOL     OW72967  14.016   2.488  14.030
90357SOL    HW172968  13.956   2.552  13.992
90357SOL    HW272969  13.997   2.407  13.984
90358SOL     OW72970   9.221   0.497   4.837
90358SOL    HW172971   9.206   0.402   4.841
90358SOL    HW272972   9.240   0.514   4.745
90359SOL     OW72973  12.702  12.551  14.441
90359SOL    HW172974  12.655  12.634  14.443
90359SOL    HW272975  12.638  12.488  14.408
90360SOL     OW72976   4.350   4.825   2.729
90360SOL    HW172977   4.348   4.731   2.712
90360SOL    HW272978   4.296   4.836   2.807
90361SOL     OW72979  12.713   7.769   3.980
90361SOL    HW172980  12.625   7.733   3.973
90361SOL    HW272981  12.767   7.712   3.925
90362SOL     OW72982   2.742  13.395   8.012
90362SOL    HW172983   2.649  13.412   7.998
90362SOL    HW272984   2.784  13.479   7.995
90363SOL     OW72985   9.573  11.965   7.518
90363SOL    HW172986   9.592  11.875   7.490
90363SOL    HW272987   9.637  12.019   7.471
90364SOL     OW72988   0.891   2.389   5.720
90364SOL    HW172989   0.967   2.380   5.663
90364SOL    HW272990   0.818   2.352   5.670
90365SOL     OW72991  11.970   1.764   6.182
90365SOL    HW172992  12.056   1.728   6.204
90365SOL    HW272993  11.936   1.706   6.115
90366SOL     OW72994   4.034   5.746   6.537
90366SOL    HW172995   4.104   5.795   6.493
90366SOL    HW272996   3.964   5.811   6.549
90367SOL     OW72997  11.549   9.886  11.242
90367SOL    HW172998  11.488   9.880  11.316
90367SOL    HW272999  11.575   9.796  11.225
90368SOL     OW73000   4.830  14.122  10.237
90368SOL    HW173001   4.835  14.026  10.238
90368SOL    HW273002   4.873  14.147  10.156
90369SOL     OW73003  13.074   7.741   5.969
90369SOL    HW173004  13.054   7.835   5.965
90369SOL    HW273005  13.109   7.721   5.882
90370SOL     OW73006  13.538   8.779   7.294
90370SOL    HW173007  13.584   8.700   7.322
90370SOL    HW273008  13.474   8.796   7.363
90371SOL     OW73009   0.783  10.525   4.543
90371SOL    HW173010   0.796  10.452   4.602
90371SOL    HW273011   0.865  10.575   4.548
90372SOL     OW73012  13.600  14.241  11.332
90372SOL    HW173013  13.652  14.161  11.328
90372SOL    HW273014  13.516  14.218  11.291
90373SOL     OW73015   6.750   3.718   3.845
90373SOL    HW173016   6.815   3.778   3.881
90373SOL    HW273017   6.792   3.632   3.848
90374SOL     OW73018   3.318   1.469  14.668
90374SOL    HW173019   3.375   1.502  14.599
90374SOL    HW273020   3.375   1.462  14.745
90375SOL     OW73021  13.923  10.254  12.553
90375SOL    HW173022  13.972  10.259  12.470
90375SOL    HW273023  13.951  10.172  12.593
90376SOL     OW73024  13.964  10.125  11.526
90376SOL    HW173025  14.010  10.205  11.551
90376SOL    HW273026  13.931  10.090  11.609
90377SOL     OW73027  10.729   6.398   8.161
90377SOL    HW173028  10.747   6.359   8.246
90377SOL    HW273029  10.795   6.360   8.103
90378SOL     OW73030   7.403   9.406   3.902
90378SOL    HW173031   7.413   9.319   3.939
90378SOL    HW273032   7.376   9.390   3.811
90379SOL     OW73033   3.930   8.636  14.794
90379SOL    HW173034   3.850   8.609  14.749
90379SOL    HW273035   3.995   8.645  14.725
90380SOL     OW73036  13.119   0.432  13.394
90380SOL    HW173037  13.158   0.516  13.373
90380SOL    HW273038  13.026   0.441  13.372
90381SOL     OW73039  11.527  10.640  12.375
90381SOL    HW173040  11.507  10.653  12.467
90381SOL    HW273041  11.482  10.711  12.330
90382SOL     OW73042   0.912   5.550   3.459
90382SOL    HW173043   0.943   5.630   3.502
90382SOL    HW273044   0.991   5.508   3.427
90383SOL     OW73045  14.558  12.743   9.481
90383SOL    HW173046  14.611  12.812   9.520
90383SOL    HW273047  14.469  12.761   9.511
90384SOL     OW73048   0.282   9.990   2.379
90384SOL    HW173049   0.360  10.020   2.425
90384SOL    HW273050   0.296   9.896   2.367
90385SOL     OW73051   1.043   4.516   7.724
90385SOL    HW173052   1.133   4.535   7.749
90385SOL    HW273053   0.999   4.601   7.724
90386SOL     OW73054   7.434  10.128   5.401
90386SOL    HW173055   7.438  10.180   5.322
90386SOL    HW273056   7.494  10.055   5.385
90387SOL     OW73057   9.879  10.419  10.837
90387SOL    HW173058   9.853  10.492  10.781
90387SOL    HW273059   9.947  10.455  10.894
90388SOL     OW73060   6.454   7.124  13.037
90388SOL    HW173061   6.401   7.132  12.957
90388SOL    HW273062   6.478   7.032  13.040
90389SOL     OW73063   1.199   4.572   2.516
90389SOL    HW173064   1.160   4.507   2.459
90389SOL    HW273065   1.283   4.535   2.541
90390SOL     OW73066  10.458   6.408   9.371
90390SOL    HW173067  10.537   6.370   9.333
90390SOL    HW273068  10.399   6.334   9.385
90391SOL     OW73069   7.059   5.213   0.453
90391SOL    HW173070   6.991   5.261   0.406
90391SOL    HW273071   7.062   5.255   0.539
90392SOL     OW73072   4.082  14.849   4.940
90392SOL    HW173073   4.035  14.849   4.856
90392SOL    HW273074   4.036  14.784   4.993
90393SOL     OW73075   2.325  13.253   8.561
90393SOL    HW173076   2.299  13.161   8.556
90393SOL    HW273077   2.243  13.302   8.549
90394SOL     OW73078   2.875  11.632   1.181
90394SOL    HW173079   2.834  11.717   1.196
90394SOL    HW273080   2.823  11.593   1.111
90395SOL     OW73081   3.272   3.724   9.974
90395SOL    HW173082   3.256   3.784  10.047
90395SOL    HW273083   3.210   3.652   9.988
90396SOL     OW73084   1.723   4.906  13.917
90396SOL    HW173085   1.675   4.939  13.993
90396SOL    HW273086   1.658   4.904  13.846
90397SOL     OW73087   6.594  12.846  13.957
90397SOL    HW173088   6.669  12.898  13.926
90397SOL    HW273089   6.523  12.868  13.897
90398SOL     OW73090  14.823  12.849   2.139
90398SOL    HW173091  14.797  12.756   2.143
90398SOL    HW273092   0.017  12.856   2.201
90399SOL     OW73093   8.142   8.852   2.912
90399SOL    HW173094   8.205   8.824   2.978
90399SOL    HW273095   8.101   8.771   2.881
90400SOL     OW73096   7.805   3.177   0.224
90400SOL    HW173097   7.784   3.110   0.158
90400SOL    HW273098   7.898   3.197   0.208
90401SOL     OW73099  13.174  10.064  13.106
90401SOL    HW173100  13.259  10.049  13.063
90401SOL    HW273101  13.110  10.033  13.042
90402SOL     OW73102   4.881   4.202   1.955
90402SOL    HW173103   4.889   4.183   1.862
90402SOL    HW273104   4.790   4.231   1.966
90403SOL     OW73105   9.854   7.966  11.628
90403SOL    HW173106   9.884   8.027  11.561
90403SOL    HW273107   9.775   7.927  11.591
90404SOL     OW73108   3.362  12.932  12.619
90404SOL    HW173109   3.268  12.922  12.635
90404SOL    HW273110   3.369  12.945  12.524
90405SOL     OW73111   7.840  12.003   3.439
90405SOL    HW173112   7.790  11.958   3.371
90405SOL    HW273113   7.903  12.057   3.390
90406SOL     OW73114  13.705   4.242   7.647
90406SOL    HW173115  13.720   4.198   7.564
90406SOL    HW273116  13.713   4.335   7.628
90407SOL     OW73117   5.757  14.310  13.704
90407SOL    HW173118   5.749  14.401  13.677
90407SOL    HW273119   5.714  14.260  13.635
90408SOL     OW73120  13.113   6.583   3.499
90408SOL    HW173121  13.208   6.583   3.488
90408SOL    HW273122  13.092   6.494   3.530
90409SOL     OW73123  12.908   7.084   9.642
90409SOL    HW173124  12.818   7.117   9.643
90409SOL    HW273125  12.909   7.015   9.708
90410SOL     OW73126   6.350  12.296   3.646
90410SOL    HW173127   6.358  12.231   3.577
90410SOL    HW273128   6.440  12.313   3.673
90411SOL     OW73129  13.964   0.750  10.672
90411SOL    HW173130  13.894   0.802  10.710
90411SOL    HW273131  14.013   0.811  10.617
90412SOL     OW73132   8.071  11.492   6.928
90412SOL    HW173133   8.166  11.498   6.939
90412SOL    HW273134   8.042  11.582   6.919
90413SOL     OW73135  12.572   4.027   1.634
90413SOL    HW173136  12.667   4.020   1.644
90413SOL    HW273137  12.559   4.053   1.543
90414SOL     OW73138   8.624   4.021   6.740
90414SOL    HW173139   8.638   4.014   6.646
90414SOL    HW273140   8.559   4.091   6.749
90415SOL     OW73141   7.119  12.543  12.439
90415SOL    HW173142   7.037  12.541  12.389
90415SOL    HW273143   7.184  12.574  12.376
90416SOL     OW73144   1.572  10.255   8.697
90416SOL    HW173145   1.510  10.231   8.628
90416SOL    HW273146   1.653  10.210   8.673
90417SOL     OW73147  13.815  12.499   4.767
90417SOL    HW173148  13.860  12.448   4.834
90417SOL    HW273149  13.732  12.525   4.808
90418SOL     OW73150   6.649   3.674   7.519
90418SOL    HW173151   6.570   3.720   7.549
90418SOL    HW273152   6.713   3.689   7.588
90419SOL     OW73153  10.959   3.925   5.914
90419SOL    HW173154  10.910   3.895   5.837
90419SOL    HW273155  11.007   3.848   5.943
90420SOL     OW73156  14.465   8.982   7.802
90420SOL    HW173157  14.530   8.978   7.872
90420SOL    HW273158  14.389   8.936   7.837
90421SOL     OW73159   0.533   8.492   1.686
90421SOL    HW173160   0.481   8.411   1.693
90421SOL    HW273161   0.527   8.531   1.773
90422SOL     OW73162   1.180   7.996   1.004
90422SOL    HW173163   1.096   7.950   1.010
90422SOL    HW273164   1.202   8.018   1.095
90423SOL     OW73165   4.114  14.134  12.001
90423SOL    HW173166   4.165  14.054  12.000
90423SOL    HW273167   4.094  14.152  11.910
90424SOL     OW73168  13.514   2.509  10.772
90424SOL    HW173169  13.469   2.585  10.809
90424SOL    HW273170  13.605   2.521  10.799
90425SOL     OW73171   6.550   9.595   6.788
90425SOL    HW173172   6.515   9.570   6.703
90425SOL    HW273173   6.555   9.513   6.837
90426SOL     OW73174  14.079  11.693   5.864
90426SOL    HW173175  13.993  11.654   5.851
90426SOL    HW273176  14.079  11.723   5.955
90427SOL     OW73177   3.430   2.139  11.829
90427SOL    HW173178   3.448   2.219  11.877
90427SOL    HW273179   3.362   2.163  11.766
90428SOL     OW73180   1.156   2.006   4.743
90428SOL    HW173181   1.153   1.919   4.783
90428SOL    HW273182   1.089   2.056   4.789
90429SOL     OW73183   9.124   7.151   4.085
90429SOL    HW173184   9.193   7.163   4.150
90429SOL    HW273185   9.087   7.065   4.105
90430SOL     OW73186   7.501  10.724  14.728
90430SOL    HW173187   7.557  10.790  14.687
90430SOL    HW273188   7.421  10.724  14.675
90431SOL     OW73189   2.038   4.707  11.439
90431SOL    HW173190   2.026   4.776  11.503
90431SOL    HW273191   1.979   4.730  11.367
90432SOL     OW73192  13.790   2.787  11.515
90432SOL    HW173193  13.870   2.744  11.545
90432SOL    HW273194  13.754   2.827  11.594
90433SOL     OW73195   9.381   3.750  13.240
90433SOL    HW173196   9.383   3.845  13.250
90433SOL    HW273197   9.414   3.717  13.324
90434SOL     OW73198   8.832   8.260   3.026
90434SOL    HW173199   8.900   8.204   2.990
90434SOL    HW273200   8.750   8.220   2.997
90435SOL     OW73201   2.370  12.853  11.136
90435SOL    HW173202   2.375  12.763  11.168
90435SOL    HW273203   2.368  12.845  11.040
90436SOL     OW73204   0.698   6.608   6.825
90436SOL    HW173205   0.690   6.693   6.782
90436SOL    HW273206   0.793   6.593   6.832
90437SOL     OW73207  14.128  12.763  11.161
90437SOL    HW173208  14.048  12.788  11.114
90437SOL    HW273209  14.177  12.710  11.098
90438SOL     OW73210  14.299  11.944  14.051
90438SOL    HW173211  14.363  12.003  14.092
90438SOL    HW273212  14.224  11.945  14.112
90439SOL     OW73213  11.009  10.357  14.037
90439SOL    HW173214  10.946  10.426  14.015
90439SOL    HW273215  10.984  10.283  13.982
90440SOL     OW73216  13.800  13.924   5.788
90440SOL    HW173217  13.804  14.014   5.756
90440SOL    HW273218  13.892  13.897   5.795
90441SOL     OW73219   8.980   0.583   5.298
90441SOL    HW173220   8.891   0.603   5.327
90441SOL    HW273221   9.016   0.529   5.368
90442SOL     OW73222   8.073   3.758  11.201
90442SOL    HW173223   8.149   3.722  11.246
90442SOL    HW273224   8.036   3.822  11.261
90443SOL     OW73225  14.192  10.598  11.007
90443SOL    HW173226  14.245  10.613  10.928
90443SOL    HW273227  14.101  10.608  10.977
90444SOL     OW73228   4.512   5.494  13.151
90444SOL    HW173229   4.600   5.459  13.157
90444SOL    HW273230   4.506   5.557  13.223
90445SOL     OW73231  10.406   9.649   7.270
90445SOL    HW173232  10.354   9.572   7.292
90445SOL    HW273233  10.485   9.614   7.229
90446SOL     OW73234  10.689   7.460   7.652
90446SOL    HW173235  10.710   7.478   7.744
90446SOL    HW273236  10.642   7.538   7.622
90447SOL     OW73237   5.630  10.043   1.287
90447SOL    HW173238   5.559  10.034   1.223
90447SOL    HW273239   5.673  10.125   1.263
90448SOL     OW73240   4.247   4.304   9.585
90448SOL    HW173241   4.192   4.269   9.655
90448SOL    HW273242   4.283   4.226   9.542
90449SOL     OW73243   8.668   8.660   5.858
90449SOL    HW173244   8.691   8.673   5.766
90449SOL    HW273245   8.669   8.564   5.869
90450SOL     OW73246   9.231   1.303   0.896
90450SOL    HW173247   9.154   1.321   0.950
90450SOL    HW273248   9.301   1.287   0.959
90451SOL     OW73249   9.966   1.024  10.107
90451SOL    HW173250   9.950   0.973  10.028
90451SOL    HW273251   9.989   1.111  10.074
90452SOL     OW73252   8.580   7.375   9.182
90452SOL    HW173253   8.663   7.419   9.198
90452SOL    HW273254   8.526   7.396   9.258
90453SOL     OW73255  12.406   3.809   6.990
90453SOL    HW173256  12.438   3.869   6.923
90453SOL    HW273257  12.453   3.834   7.069
90454SOL     OW73258   6.048   0.055   2.301
90454SOL    HW173259   5.996  14.853   2.290
90454SOL    HW273260   6.091   0.068   2.217
90455SOL     OW73261   6.429   7.088   5.411
90455SOL    HW173262   6.440   7.119   5.501
90455SOL    HW273263   6.391   7.001   5.419
90456SOL     OW73264  14.754   5.511   0.440
90456SOL    HW173265  14.688   5.549   0.497
90456SOL    HW273266  14.811   5.460   0.498
90457SOL     OW73267   9.165  12.895  12.098
90457SOL    HW173268   9.096  12.883  12.034
90457SOL    HW273269   9.145  12.833  12.168
90458SOL     OW73270   7.900   1.422  13.405
90458SOL    HW173271   7.929   1.494  13.461
90458SOL    HW273272   7.967   1.354  13.415
90459SOL     OW73273   9.704  12.029  11.926
90459SOL    HW173274   9.740  11.942  11.944
90459SOL    HW273275   9.629  12.013  11.869
90460SOL     OW73276   3.742   3.376   2.680
90460SOL    HW173277   3.649   3.383   2.703
90460SOL    HW273278   3.741   3.354   2.587
90461SOL     OW73279  13.099   3.412   0.348
90461SOL    HW173280  13.149   3.376   0.275
90461SOL    HW273281  13.114   3.350   0.420
90462SOL     OW73282   8.754   3.547   6.942
90462SOL    HW173283   8.795   3.528   7.026
90462SOL    HW273284   8.787   3.479   6.883
90463SOL     OW73285  12.929   1.739   8.382
90463SOL    HW173286  12.849   1.768   8.340
90463SOL    HW273287  12.998   1.756   8.318
90464SOL     OW73288   3.593   7.822  10.856
90464SOL    HW173289   3.514   7.814  10.802
90464SOL    HW273290   3.604   7.736  10.895
90465SOL     OW73291  13.194   6.306   6.206
90465SOL    HW173292  13.255   6.261   6.263
90465SOL    HW273293  13.219   6.281   6.118
90466SOL     OW73294   8.691   0.215   6.530
90466SOL    HW173295   8.699   0.120   6.524
90466SOL    HW273296   8.690   0.245   6.439
90467SOL     OW73297   1.636   2.637   1.403
90467SOL    HW173298   1.640   2.628   1.498
90467SOL    HW273299   1.721   2.606   1.372
90468SOL     OW73300  12.758  10.293  13.732
90468SOL    HW173301  12.715  10.211  13.755
90468SOL    HW273302  12.825  10.268  13.668
90469SOL     OW73303   6.253   3.586   3.530
90469SOL    HW173304   6.227   3.551   3.616
90469SOL    HW273305   6.334   3.539   3.509
90470SOL     OW73306   9.199   2.003   6.786
90470SOL    HW173307   9.139   1.995   6.860
90470SOL    HW273308   9.281   1.966   6.818
90471SOL     OW73309  11.218  12.751  12.367
90471SOL    HW173310  11.182  12.709  12.289
90471SOL    HW273311  11.223  12.680  12.431
90472SOL     OW73312   0.925   2.317  13.013
90472SOL    HW173313   0.929   2.328  13.108
90472SOL    HW273314   1.011   2.283  12.989
90473SOL     OW73315   2.721   2.750   2.849
90473SOL    HW173316   2.801   2.706   2.818
90473SOL    HW273317   2.704   2.818   2.784
90474SOL     OW73318  13.013  10.244  10.137
90474SOL    HW173319  13.094  10.232  10.087
90474SOL    HW273320  13.029  10.198  10.219
90475SOL     OW73321   8.546  10.777  11.201
90475SOL    HW173322   8.471  10.721  11.223
90475SOL    HW273323   8.530  10.803  11.110
90476SOL     OW73324  12.084   7.110   3.886
90476SOL    HW173325  12.067   7.067   3.802
90476SOL    HW273326  12.015   7.176   3.893
90477SOL     OW73327  12.007   5.036   7.383
90477SOL    HW173328  11.948   5.111   7.379
90477SOL    HW273329  12.094   5.074   7.392
90478SOL     OW73330   8.531  11.931   4.936
90478SOL    HW173331   8.626  11.934   4.939
90478SOL    HW273332   8.510  11.924   4.843
90479SOL     OW73333   3.045   2.678  13.300
90479SOL    HW173334   3.130   2.660  13.259
90479SOL    HW273335   2.990   2.604  13.273
90480SOL     OW73336   8.501   3.406   1.783
90480SOL    HW173337   8.406   3.410   1.771
90480SOL    HW273338   8.515   3.335   1.845
90481SOL     OW73339  13.430   0.790   4.061
90481SOL    HW173340  13.339   0.804   4.037
90481SOL    HW273341  13.454   0.708   4.016
90482SOL     OW73342  11.988   3.440   8.427
90482SOL    HW173343  12.060   3.412   8.370
90482SOL    HW273344  11.928   3.366   8.428
90483SOL     OW73345   8.319  10.174   1.974
90483SOL    HW173346   8.409  10.142   1.975
90483SOL    HW273347   8.302  10.195   1.882
90484SOL     OW73348   5.124   8.380   5.322
90484SOL    HW173349   5.137   8.286   5.313
90484SOL    HW273350   5.210   8.419   5.305
90485SOL     OW73351   6.161   1.073   0.479
90485SOL    HW173352   6.125   1.000   0.429
90485SOL    HW273353   6.248   1.086   0.443
90486SOL     OW73354   4.155   9.785   0.018
90486SOL    HW173355   4.239   9.781  14.850
90486SOL    HW273356   4.131   9.694   0.033
90487SOL     OW73357  14.472   2.194   9.619
90487SOL    HW173358  14.464   2.118   9.675
90487SOL    HW273359  14.394   2.247   9.639
90488SOL     OW73360   9.062   7.257  11.919
90488SOL    HW173361   8.973   7.291  11.927
90488SOL    HW273362   9.052   7.162  11.923
90489SOL     OW73363  11.880   1.771   7.321
90489SOL    HW173364  11.835   1.781   7.405
90489SOL    HW273365  11.876   1.858   7.282
90490SOL     OW73366   1.160   8.888   0.215
90490SOL    HW173367   1.124   8.974   0.235
90490SOL    HW273368   1.089   8.841   0.171
90491SOL     OW73369   9.612   2.194   8.299
90491SOL    HW173370   9.597   2.136   8.224
90491SOL    HW273371   9.554   2.162   8.367
90492SOL     OW73372   8.628   3.183   8.303
90492SOL    HW173373   8.628   3.123   8.228
90492SOL    HW273374   8.658   3.129   8.376
90493SOL     OW73375   4.055  11.434  12.273
90493SOL    HW173376   4.035  11.450  12.181
90493SOL    HW273377   4.139  11.478  12.287
90494SOL     OW73378   2.013   1.404   2.722
90494SOL    HW173379   2.047   1.384   2.809
90494SOL    HW273380   2.090   1.431   2.672
90495SOL     OW73381   2.598   7.375   2.297
90495SOL    HW173382   2.596   7.355   2.203
90495SOL    HW273383   2.545   7.306   2.337
90496SOL     OW73384   3.638   7.944   6.625
90496SOL    HW173385   3.612   7.976   6.539
90496SOL    HW273386   3.583   7.994   6.687
90497SOL     OW73387  12.449  11.408  11.453
90497SOL    HW173388  12.396  11.383  11.528
90497SOL    HW273389  12.436  11.503  11.444
90498SOL     OW73390   8.620   6.279  10.979
90498SOL    HW173391   8.707   6.293  11.018
90498SOL    HW273392   8.592   6.365  10.950
90499SOL     OW73393  14.263   3.953  13.559
90499SOL    HW173394  14.253   4.048  13.564
90499SOL    HW273395  14.321   3.939  13.484
90500SOL     OW73396   6.438   1.015   1.596
90500SOL    HW173397   6.489   0.963   1.658
90500SOL    HW273398   6.406   0.951   1.532
90501SOL     OW73399   6.122   9.675   3.271
90501SOL    HW173400   6.122   9.751   3.212
90501SOL    HW273401   6.125   9.713   3.359
90502SOL     OW73402  11.777   1.450   8.898
90502SOL    HW173403  11.845   1.513   8.922
90502SOL    HW273404  11.743   1.419   8.982
90503SOL     OW73405  12.926   5.708  12.629
90503SOL    HW173406  12.830   5.698  12.628
90503SOL    HW273407  12.955   5.664  12.549
90504SOL     OW73408   1.299  13.823   3.038
90504SOL    HW173409   1.209  13.854   3.031
90504SOL    HW273410   1.352  13.902   3.048
90505SOL     OW73411  11.424  13.748  10.567
90505SOL    HW173412  11.493  13.782  10.509
90505SOL    HW273413  11.367  13.823  10.583
90506SOL     OW73414   4.943  11.808  10.108
90506SOL    HW173415   4.968  11.785  10.197
90506SOL    HW273416   4.943  11.725  10.060
90507SOL     OW73417   6.290   5.173   1.028
90507SOL    HW173418   6.285   5.099   0.967
90507SOL    HW273419   6.219   5.231   1.001
90508SOL     OW73420  10.349   8.691   1.634
90508SOL    HW173421  10.314   8.778   1.617
90508SOL    HW273422  10.441   8.706   1.656
90509SOL     OW73423   2.488   9.453   8.261
90509SOL    HW173424   2.474   9.547   8.278
90509SOL    HW273425   2.567   9.432   8.311
90510SOL     OW73426  14.562   1.131   0.847
90510SOL    HW173427  14.641   1.077   0.852
90510SOL    HW273428  14.528   1.114   0.759
90511SOL     OW73429   2.324  10.340  13.206
90511SOL    HW173430   2.302  10.291  13.127
90511SOL    HW273431   2.283  10.290  13.277
90512SOL     OW73432   5.382   4.663   8.100
90512SOL    HW173433   5.416   4.708   8.177
90512SOL    HW273434   5.302   4.711   8.077
90513SOL     OW73435   2.941  14.705   3.352
90513SOL    HW173436   2.860  14.697   3.302
90513SOL    HW273437   2.933  14.638   3.421
90514SOL     OW73438  10.438   9.869   6.387
90514SOL    HW173439  10.422   9.917   6.306
90514SOL    HW273440  10.512   9.812   6.367
90515SOL     OW73441  12.855  10.745   7.738
90515SOL    HW173442  12.795  10.702   7.677
90515SOL    HW273443  12.799  10.779   7.807
90516SOL     OW73444   0.461   6.637  11.237
90516SOL    HW173445   0.372   6.663  11.214
90516SOL    HW273446   0.453   6.546  11.264
90517SOL     OW73447   9.182   3.929   7.214
90517SOL    HW173448   9.095   3.927   7.252
90517SOL    HW273449   9.176   3.994   7.143
90518SOL     OW73450   7.563   5.714  11.910
90518SOL    HW173451   7.530   5.752  11.829
90518SOL    HW273452   7.633   5.773  11.938
90519SOL     OW73453  11.561   1.888   4.986
90519SOL    HW173454  11.624   1.831   5.031
90519SOL    HW273455  11.519   1.938   5.056
90520SOL     OW73456   8.640  10.464   2.625
90520SOL    HW173457   8.553  10.490   2.655
90520SOL    HW273458   8.629  10.446   2.532
90521SOL     OW73459   7.797   7.854   9.405
90521SOL    HW173460   7.747   7.898   9.336
90521SOL    HW273461   7.788   7.761   9.385
90522SOL     OW73462  10.873   7.827   4.823
90522SOL    HW173463  10.881   7.752   4.882
90522SOL    HW273464  10.794   7.872   4.852
90523SOL     OW73465   7.557  12.618   3.603
90523SOL    HW173466   7.514  12.657   3.679
90523SOL    HW273467   7.603  12.691   3.561
90524SOL     OW73468   5.602  10.023   8.882
90524SOL    HW173469   5.646  10.107   8.868
90524SOL    HW273470   5.673   9.961   8.899
90525SOL     OW73471   7.258  11.080   3.080
90525SOL    HW173472   7.352  11.068   3.066
90525SOL    HW273473   7.249  11.170   3.110
90526SOL     OW73474   5.397   3.057  10.865
90526SOL    HW173475   5.467   3.102  10.913
90526SOL    HW273476   5.412   3.080  10.773
90527SOL     OW73477   7.322   4.628   9.764
90527SOL    HW173478   7.359   4.549   9.726
90527SOL    HW273479   7.352   4.627   9.855
90528SOL     OW73480  14.456   1.864   7.099
90528SOL    HW173481  14.364   1.880   7.123
90528SOL    HW273482  14.506   1.898   7.173
90529SOL     OW73483   8.661   9.943   6.215
90529SOL    HW173484   8.608   9.952   6.295
90529SOL    HW273485   8.751   9.941   6.246
90530SOL     OW73486   8.877   4.358   9.818
90530SOL    HW173487   8.852   4.318   9.734
90530SOL    HW273488   8.934   4.293   9.859
90531SOL     OW73489  13.686   5.541   4.050
90531SOL    HW173490  13.780   5.540   4.032
90531SOL    HW273491  13.677   5.506   4.138
90532SOL     OW73492   3.646   1.742   7.194
90532SOL    HW173493   3.616   1.800   7.124
90532SOL    HW273494   3.726   1.703   7.160
90533SOL     OW73495   6.605   7.131   1.632
90533SOL    HW173496   6.565   7.164   1.712
90533SOL    HW273497   6.628   7.209   1.582
90534SOL     OW73498  10.881   4.992   2.885
90534SOL    HW173499  10.887   4.905   2.846
90534SOL    HW273500  10.973   5.018   2.898
90535SOL     OW73501   1.503   4.413  14.648
90535SOL    HW173502   1.458   4.488  14.608
90535SOL    HW273503   1.558   4.452  14.716
90536SOL     OW73504   3.994  14.521  14.546
90536SOL    HW173505   4.001  14.497  14.638
90536SOL    HW273506   3.983  14.616  14.547
90537SOL     OW73507   6.982   6.002   7.342
90537SOL    HW173508   6.949   5.912   7.339
90537SOL    HW273509   7.077   5.993   7.338
90538SOL     OW73510  11.706   6.927  14.744
90538SOL    HW173511  11.762   6.930  14.821
90538SOL    HW273512  11.632   6.984  14.765
90539SOL     OW73513   8.626   7.041   4.934
90539SOL    HW173514   8.626   6.963   4.989
90539SOL    HW273515   8.609   7.114   4.994
90540SOL     OW73516   5.343  13.600   8.408
90540SOL    HW173517   5.261  13.556   8.431
90540SOL    HW273518   5.327  13.637   8.322
90541SOL     OW73519   4.372   6.662   4.932
90541SOL    HW173520   4.413   6.576   4.923
90541SOL    HW273521   4.438   6.716   4.976
90542SOL     OW73522   4.244  13.566   2.927
90542SOL    HW173523   4.221  13.658   2.918
90542SOL    HW273524   4.333  13.560   2.893
90543SOL     OW73525   8.654   1.247   6.303
90543SOL    HW173526   8.581   1.305   6.327
90543SOL    HW273527   8.615   1.160   6.298
90544SOL     OW73528   1.644  14.304   9.770
90544SOL    HW173529   1.605  14.391   9.774
90544SOL    HW273530   1.590  14.251   9.829
90545SOL     OW73531  12.325   3.231   4.539
90545SOL    HW173532  12.337   3.137   4.523
90545SOL    HW273533  12.286   3.264   4.458
90546SOL     OW73534   0.348  14.717   2.181
90546SOL    HW173535   0.263  14.676   2.161
90546SOL    HW273536   0.326  14.805   2.211
90547SOL     OW73537  14.346   3.049   7.931
90547SOL    HW173538  14.375   3.140   7.937
90547SOL    HW273539  14.383   3.008   8.009
90548SOL     OW73540  12.908   5.774  11.680
90548SOL    HW173541  12.952   5.754  11.598
90548SOL    HW273542  12.973   5.823  11.730
90549SOL     OW73543  11.400  14.605   7.936
90549SOL    HW173544  11.427  14.692   7.964
90549SOL    HW273545  11.366  14.618   7.847
90550SOL     OW73546  11.453  13.754   8.809
90550SOL    HW173547  11.496  13.824   8.859
90550SOL    HW273548  11.517  13.729   8.743
90551SOL     OW73549  10.205   3.845   8.212
90551SOL    HW173550  10.184   3.917   8.154
90551SOL    HW273551  10.123   3.826   8.257
90552SOL     OW73552  14.555   1.036   1.133
90552SOL    HW173553  14.584   1.057   1.045
90552SOL    HW273554  14.543   1.121   1.176
90553SOL     OW73555  14.142   0.118  13.437
90553SOL    HW173556  14.180   0.034  13.412
90553SOL    HW273557  14.051   0.098  13.457
90554SOL     OW73558   3.462   9.920  12.332
90554SOL    HW173559   3.548   9.949  12.363
90554SOL    HW273560   3.477   9.894  12.241
90555SOL     OW73561   4.866   9.219   2.451
90555SOL    HW173562   4.782   9.188   2.417
90555SOL    HW273563   4.891   9.153   2.516
90556SOL     OW73564   8.971   4.308   2.932
90556SOL    HW173565   8.905   4.373   2.907
90556SOL    HW273566   9.007   4.277   2.849
90557SOL     OW73567  11.221  11.725  12.626
90557SOL    HW173568  11.286  11.792  12.651
90557SOL    HW273569  11.152  11.774  12.582
90558SOL     OW73570   5.930   4.553   3.964
90558SOL    HW173571   5.874   4.628   3.981
90558SOL    HW273572   5.922   4.498   4.041
90559SOL     OW73573  13.683   4.113   6.181
90559SOL    HW173574  13.624   4.081   6.113
90559SOL    HW273575  13.735   4.181   6.138
90560SOL     OW73576   3.352  11.872   1.751
90560SOL    HW173577   3.257  11.864   1.760
90560SOL    HW273578   3.382  11.784   1.729
90561SOL     OW73579   7.926  10.303   5.628
90561SOL    HW173580   7.926  10.260   5.714
90561SOL    HW273581   8.014  10.341   5.621
90562SOL     OW73582   0.797   5.273   8.368
90562SOL    HW173583   0.779   5.325   8.445
90562SOL    HW273584   0.710   5.246   8.336
90563SOL     OW73585  13.931  12.003  13.936
90563SOL    HW173586  13.977  11.950  13.871
90563SOL    HW273587  13.982  12.083  13.943
90564SOL     OW73588   4.974   4.214  11.941
90564SOL    HW173589   5.057   4.191  11.983
90564SOL    HW273590   4.926   4.131  11.936
90565SOL     OW73591   2.248   3.562   4.003
90565SOL    HW173592   2.329   3.610   3.987
90565SOL    HW273593   2.214   3.541   3.916
90566SOL     OW73594   6.143   8.165   9.882
90566SOL    HW173595   6.181   8.194   9.799
90566SOL    HW273596   6.054   8.198   9.880
90567SOL     OW73597   0.034   7.358   7.785
90567SOL    HW173598   0.124   7.329   7.774
90567SOL    HW273599   0.030   7.390   7.875
90568SOL     OW73600   8.468  10.463  14.131
90568SOL    HW173601   8.465  10.369  14.144
90568SOL    HW273602   8.376  10.491  14.133
90569SOL     OW73603   9.586  10.211   6.569
90569SOL    HW173604   9.583  10.143   6.636
90569SOL    HW273605   9.668  10.257   6.584
90570SOL     OW73606  11.045   9.744   5.416
90570SOL    HW173607  11.072   9.666   5.464
90570SOL    HW273608  11.128   9.790   5.397
90571SOL     OW73609  10.632   1.043  14.404
90571SOL    HW173610  10.569   0.990  14.355
90571SOL    HW273611  10.595   1.131  14.405
90572SOL     OW73612  13.756   5.922   1.835
90572SOL    HW173613  13.706   5.873   1.900
90572SOL    HW273614  13.778   6.004   1.879
90573SOL     OW73615   9.530  10.049   4.878
90573SOL    HW173616   9.550  10.127   4.827
90573SOL    HW273617   9.469  10.000   4.822
90574SOL     OW73618  11.994   1.839   9.842
90574SOL    HW173619  12.034   1.764   9.886
90574SOL    HW273620  12.022   1.914   9.893
90575SOL     OW73621   1.704   9.594   9.545
90575SOL    HW173622   1.705   9.625   9.635
90575SOL    HW273623   1.624   9.631   9.507
90576SOL     OW73624   7.921   9.412   1.634
90576SOL    HW173625   7.941   9.470   1.707
90576SOL    HW273626   7.929   9.324   1.670
90577SOL     OW73627   4.550  14.291   3.129
90577SOL    HW173628   4.547  14.196   3.118
90577SOL    HW273629   4.461  14.320   3.109
90578SOL     OW73630   2.267   4.227   6.799
90578SOL    HW173631   2.264   4.156   6.735
90578SOL    HW273632   2.204   4.201   6.867
90579SOL     OW73633   3.239   6.662  14.857
90579SOL    HW173634   3.179   6.594  14.826
90579SOL    HW273635   3.242   6.649   0.074
90580SOL     OW73636   4.073   0.551  14.475
90580SOL    HW173637   3.983   0.571  14.447
90580SOL    HW273638   4.109   0.499  14.403
90581SOL     OW73639   7.444   1.236   1.321
90581SOL    HW173640   7.377   1.229   1.389
90581SOL    HW273641   7.467   1.145   1.302
90582SOL     OW73642   9.230   1.309   5.747
90582SOL    HW173643   9.227   1.213   5.758
90582SOL    HW273644   9.147   1.331   5.705
90583SOL     OW73645   2.025   7.522  14.028
90583SOL    HW173646   1.935   7.517  13.998
90583SOL    HW273647   2.076   7.474  13.963
90584SOL     OW73648  12.277   5.417   4.745
90584SOL    HW173649  12.208   5.410   4.811
90584SOL    HW273650  12.252   5.353   4.678
90585SOL     OW73651   1.908  13.603   8.894
90585SOL    HW173652   1.951  13.636   8.972
90585SOL    HW273653   1.911  13.508   8.903
90586SOL     OW73654  13.373   0.154  14.024
90586SOL    HW173655  13.398   0.065  14.051
90586SOL    HW273656  13.301   0.177  14.081
90587SOL     OW73657  10.956  12.412  11.083
90587SOL    HW173658  10.886  12.360  11.042
90587SOL    HW273659  11.032  12.354  11.082
90588SOL     OW73660  11.981   3.873  13.151
90588SOL    HW173661  11.964   3.779  13.158
90588SOL    HW273662  11.897   3.911  13.126
90589SOL     OW73663   0.929  14.132  14.208
90589SOL    HW173664   0.966  14.215  14.238
90589SOL    HW273665   0.870  14.105  14.279
90590SOL     OW73666  13.783   0.402   0.804
90590SOL    HW173667  13.789   0.398   0.899
90590SOL    HW273668  13.756   0.315   0.777
90591SOL     OW73669  11.256   0.614  11.734
90591SOL    HW173670  11.175   0.568  11.713
90591SOL    HW273671  11.276   0.587  11.824
90592SOL     OW73672  12.303   0.917  10.751
90592SOL    HW173673  12.283   0.823  10.755
90592SOL    HW273674  12.261   0.946  10.670
90593SOL     OW73675  12.049  12.519   3.889
90593SOL    HW173676  12.129  12.487   3.930
90593SOL    HW273677  12.033  12.459   3.817
90594SOL     OW73678   8.056   1.085  12.309
90594SOL    HW173679   8.085   1.176  12.304
90594SOL    HW273680   7.961   1.090  12.313
90595SOL     OW73681  10.826  12.013   7.110
90595SOL    HW173682  10.901  12.008   7.169
90595SOL    HW273683  10.795  12.103   7.118
90596SOL     OW73684   3.423   6.270   9.803
90596SOL    HW173685   3.365   6.304   9.871
90596SOL    HW273686   3.476   6.345   9.776
90597SOL     OW73687   1.168   9.222   1.559
90597SOL    HW173688   1.112   9.280   1.611
90597SOL    HW273689   1.126   9.219   1.473
90598SOL     OW73690   7.907   4.021   1.180
90598SOL    HW173691   7.889   4.026   1.274
90598SOL    HW273692   8.000   4.001   1.174
90599SOL     OW73693   9.118  10.258  11.992
90599SOL    HW173694   9.164  10.342  11.986
90599SOL    HW273695   9.160  10.213  12.065
90600SOL     OW73696   0.934   8.493   8.105
90600SOL    HW173697   0.988   8.534   8.037
90600SOL    HW273698   0.930   8.401   8.081
90601SOL     OW73699  11.932   3.383   1.355
90601SOL    HW173700  12.007   3.331   1.327
90601SOL    HW273701  11.905   3.342   1.438
90602SOL     OW73702  13.503   0.657   3.388
90602SOL    HW173703  13.535   0.616   3.307
90602SOL    HW273704  13.524   0.593   3.457
90603SOL     OW73705  11.202  13.714  13.335
90603SOL    HW173706  11.112  13.748  13.327
90603SOL    HW273707  11.224  13.728  13.427
90604SOL     OW73708   3.010  12.655   0.285
90604SOL    HW173709   2.922  12.620   0.273
90604SOL    HW273710   3.000  12.750   0.278
90605SOL     OW73711  13.370   6.368   7.826
90605SOL    HW173712  13.343   6.430   7.758
90605SOL    HW273713  13.355   6.414   7.909
90606SOL     OW73714   2.806   8.657   2.368
90606SOL    HW173715   2.878   8.606   2.403
90606SOL    HW273716   2.845   8.740   2.340
90607SOL     OW73717  14.051   0.297   9.400
90607SOL    HW173718  13.991   0.226   9.380
90607SOL    HW273719  14.002   0.354   9.459
90608SOL     OW73720  14.393   9.817   7.463
90608SOL    HW173721  14.449   9.755   7.511
90608SOL    HW273722  14.305   9.802   7.497
90609SOL     OW73723   9.803  10.603  12.804
90609SOL    HW173724   9.879  10.635  12.852
90609SOL    HW273725   9.731  10.609  12.866
90610SOL     OW73726   2.155   3.802   0.399
90610SOL    HW173727   2.090   3.740   0.367
90610SOL    HW273728   2.145   3.801   0.494
90611SOL     OW73729   8.614  13.892  13.984
90611SOL    HW173730   8.610  13.814  14.040
90611SOL    HW273731   8.660  13.863  13.905
90612SOL     OW73732  12.036   5.755   2.019
90612SOL    HW173733  12.082   5.769   2.101
90612SOL    HW273734  12.104   5.759   1.952
90613SOL     OW73735   6.116  11.246   3.972
90613SOL    HW173736   6.120  11.196   3.891
90613SOL    HW273737   6.117  11.338   3.944
90614SOL     OW73738  10.906   5.247   8.913
90614SOL    HW173739  10.887   5.219   8.824
90614SOL    HW273740  10.822   5.242   8.959
90615SOL     OW73741   0.407   1.267  12.227
90615SOL    HW173742   0.387   1.260  12.320
90615SOL    HW273743   0.322   1.257  12.183
90616SOL     OW73744  14.183   6.927  14.783
90616SOL    HW173745  14.131   6.848  14.770
90616SOL    HW273746  14.119   6.999  14.779
90617SOL     OW73747   7.406   7.629  10.569
90617SOL    HW173748   7.448   7.546  10.546
90617SOL    HW273749   7.328   7.605  10.618
90618SOL     OW73750   8.805   5.006   3.160
90618SOL    HW173751   8.900   5.014   3.154
90618SOL    HW273752   8.777   5.090   3.198
90619SOL     OW73753  10.669   6.448   3.745
90619SOL    HW173754  10.597   6.423   3.802
90619SOL    HW273755  10.671   6.380   3.677
90620SOL     OW73756  10.010  10.467   4.431
90620SOL    HW173757   9.958  10.386   4.430
90620SOL    HW273758  10.002  10.501   4.342
90621SOL     OW73759  12.003   1.173   9.391
90621SOL    HW173760  12.080   1.180   9.448
90621SOL    HW273761  11.938   1.232   9.430
90622SOL     OW73762   8.831   5.252   0.031
90622SOL    HW173763   8.819   5.211   0.117
90622SOL    HW273764   8.850   5.344   0.051
90623SOL     OW73765  10.776   4.073   6.117
90623SOL    HW173766  10.773   3.984   6.152
90623SOL    HW273767  10.812   4.063   6.029
90624SOL     OW73768  10.189   7.717   5.708
90624SOL    HW173769  10.130   7.745   5.638
90624SOL    HW273770  10.275   7.750   5.681
90625SOL     OW73771   1.936  11.655   9.682
90625SOL    HW173772   1.982  11.733   9.714
90625SOL    HW273773   2.002  11.605   9.634
90626SOL     OW73774   1.677   3.950   8.810
90626SOL    HW173775   1.724   3.930   8.729
90626SOL    HW273776   1.586   3.925   8.792
90627SOL     OW73777   1.593   4.544  10.461
90627SOL    HW173778   1.551   4.609  10.517
90627SOL    HW273779   1.521   4.503  10.413
90628SOL     OW73780   7.744  11.879   4.645
90628SOL    HW173781   7.688  11.817   4.691
90628SOL    HW273782   7.752  11.953   4.705
90629SOL     OW73783   6.944   6.134  10.727
90629SOL    HW173784   6.992   6.189  10.665
90629SOL    HW273785   7.012   6.097  10.783
90630SOL     OW73786  12.571   0.971   1.631
90630SOL    HW173787  12.632   0.975   1.704
90630SOL    HW273788  12.486   0.952   1.671
90631SOL     OW73789  12.145   7.401  14.787
90631SOL    HW173790  12.099   7.330  14.832
90631SOL    HW273791  12.170   7.462  14.856
90632SOL     OW73792   9.477   2.702  13.826
90632SOL    HW173793   9.463   2.629  13.765
90632SOL    HW273794   9.562   2.738  13.801
90633SOL     OW73795  13.580   4.833  11.429
90633SOL    HW173796  13.661   4.881  11.411
90633SOL    HW273797  13.573   4.770  11.357
90634SOL     OW73798  10.996  12.667  13.050
90634SOL    HW173799  11.066  12.725  13.082
90634SOL    HW273800  10.916  12.718  13.060
90635SOL     OW73801   5.824   1.667   9.059
90635SOL    HW173802   5.821   1.628   8.971
90635SOL    HW273803   5.914   1.700   9.067
90636SOL     OW73804  11.858  12.692  12.844
90636SOL    HW173805  11.829  12.783  12.846
90636SOL    HW273806  11.892  12.675  12.932
90637SOL     OW73807   0.700   9.194  11.190
90637SOL    HW173808   0.791   9.164  11.181
90637SOL    HW273809   0.705   9.289  11.180
90638SOL     OW73810  10.012   1.806   7.055
90638SOL    HW173811   9.921   1.833   7.038
90638SOL    HW273812  10.035   1.850   7.136
90639SOL     OW73813  12.599   0.451   3.138
90639SOL    HW173814  12.533   0.480   3.200
90639SOL    HW273815  12.636   0.531   3.102
90640SOL     OW73816   9.794   5.170   8.211
90640SOL    HW173817   9.884   5.148   8.234
90640SOL    HW273818   9.785   5.140   8.121
90641SOL     OW73819   1.997  12.700  13.610
90641SOL    HW173820   2.050  12.642  13.665
90641SOL    HW273821   1.907  12.673  13.628
90642SOL     OW73822   0.719   0.033   0.852
90642SOL    HW173823   0.787   0.101   0.856
90642SOL    HW273824   0.740  14.852   0.924
90643SOL     OW73825   5.591  10.730   5.651
90643SOL    HW173826   5.658  10.663   5.661
90643SOL    HW273827   5.565  10.752   5.741
90644SOL     OW73828   8.068   7.599   3.642
90644SOL    HW173829   8.159   7.568   3.639
90644SOL    HW273830   8.016   7.520   3.630
90645SOL     OW73831   9.395   1.257  13.372
90645SOL    HW173832   9.420   1.164  13.375
90645SOL    HW273833   9.304   1.256  13.343
90646SOL     OW73834   7.588  11.366   3.994
90646SOL    HW173835   7.541  11.432   4.044
90646SOL    HW273836   7.680  11.392   4.000
90647SOL     OW73837   4.449   1.845   7.890
90647SOL    HW173838   4.511   1.860   7.961
90647SOL    HW273839   4.363   1.848   7.933
90648SOL     OW73840   9.623   4.274   3.064
90648SOL    HW173841   9.653   4.189   3.029
90648SOL    HW273842   9.699   4.309   3.110
90649SOL     OW73843  13.943  12.672   1.727
90649SOL    HW173844  14.020  12.714   1.767
90649SOL    HW273845  13.977  12.630   1.648
90650SOL     OW73846  10.967   6.806   6.583
90650SOL    HW173847  11.045   6.861   6.571
90650SOL    HW273848  10.912   6.855   6.644
90651SOL     OW73849   8.258  13.311   1.968
90651SOL    HW173850   8.267  13.293   1.875
90651SOL    HW273851   8.344  13.344   1.994
90652SOL     OW73852   5.684   5.475   6.061
90652SOL    HW173853   5.697   5.532   5.984
90652SOL    HW273854   5.769   5.434   6.074
90653SOL     OW73855  13.340   2.943  14.156
90653SOL    HW173856  13.326   2.851  14.179
90653SOL    HW273857  13.340   2.944  14.060
90654SOL     OW73858   8.025  11.426   9.975
90654SOL    HW173859   7.945  11.416  10.026
90654SOL    HW273860   7.998  11.406   9.885
90655SOL     OW73861   5.618   0.682   2.637
90655SOL    HW173862   5.624   0.596   2.679
90655SOL    HW273863   5.582   0.664   2.550
90656SOL     OW73864   6.607  13.502   2.029
90656SOL    HW173865   6.597  13.493   1.934
90656SOL    HW273866   6.699  13.481   2.045
90657SOL     OW73867   9.390  13.319   0.851
90657SOL    HW173868   9.359  13.230   0.831
90657SOL    HW273869   9.312  13.364   0.884
90658SOL     OW73870  10.202  14.115   5.501
90658SOL    HW173871  10.206  14.211   5.501
90658SOL    HW273872  10.204  14.091   5.409
90659SOL     OW73873   2.438   5.188   9.660
90659SOL    HW173874   2.519   5.146   9.631
90659SOL    HW273875   2.392   5.208   9.579
90660SOL     OW73876   4.130   0.862   2.459
90660SOL    HW173877   4.102   0.900   2.543
90660SOL    HW273878   4.117   0.768   2.471
90661SOL     OW73879   4.657   5.885   2.806
90661SOL    HW173880   4.673   5.973   2.842
90661SOL    HW273881   4.577   5.856   2.849
90662SOL     OW73882   4.746   8.211   9.024
90662SOL    HW173883   4.795   8.129   9.011
90662SOL    HW273884   4.801   8.278   8.984
90663SOL     OW73885  11.644  12.026  13.639
90663SOL    HW173886  11.554  12.048  13.663
90663SOL    HW273887  11.673  12.100  13.586
90664SOL     OW73888   9.217  10.230   1.126
90664SOL    HW173889   9.129  10.201   1.150
90664SOL    HW273890   9.260  10.247   1.209
90665SOL     OW73891   1.029   9.968  13.363
90665SOL    HW173892   0.971   9.894  13.384
90665SOL    HW273893   1.031   9.968  13.267
90666SOL     OW73894   6.047  14.201   1.758
90666SOL    HW173895   6.123  14.147   1.780
90666SOL    HW273896   6.046  14.204   1.663
90667SOL     OW73897   4.026   7.844   8.366
90667SOL    HW173898   3.994   7.862   8.455
90667SOL    HW273899   4.029   7.931   8.325
90668SOL     OW73900  11.758   2.769  13.304
90668SOL    HW173901  11.745   2.821  13.225
90668SOL    HW273902  11.674   2.724  13.317
90669SOL     OW73903   1.404   5.928  14.300
90669SOL    HW173904   1.347   5.883  14.238
90669SOL    HW273905   1.442   6.000  14.250
90670SOL     OW73906   5.863   9.704   8.809
90670SOL    HW173907   5.910   9.758   8.872
90670SOL    HW273908   5.890   9.738   8.724
90671SOL     OW73909  14.479  14.199  13.861
90671SOL    HW173910  14.547  14.256  13.897
90671SOL    HW273911  14.451  14.145  13.935
90672SOL     OW73912   8.905   9.975  12.504
90672SOL    HW173913   8.988   9.962  12.550
90672SOL    HW273914   8.841   9.924  12.553
90673SOL     OW73915   2.262  12.038   3.135
90673SOL    HW173916   2.228  11.976   3.199
90673SOL    HW273917   2.322  12.093   3.185
90674SOL     OW73918   8.352   7.462   3.812
90674SOL    HW173919   8.324   7.375   3.839
90674SOL    HW273920   8.435   7.476   3.858
90675SOL     OW73921  10.044  11.538  13.084
90675SOL    HW173922  10.012  11.588  13.010
90675SOL    HW273923   9.994  11.456  13.082
90676SOL     OW73924   7.527   6.747  12.747
90676SOL    HW173925   7.525   6.754  12.843
90676SOL    HW273926   7.436   6.729  12.723
90677SOL     OW73927   0.270   8.214   2.919
90677SOL    HW173928   0.317   8.193   3.000
90677SOL    HW273929   0.309   8.296   2.889
90678SOL     OW73930   1.083   6.606   1.850
90678SOL    HW173931   1.016   6.543   1.877
90678SOL    HW273932   1.157   6.551   1.823
90679SOL     OW73933   1.249   3.493   8.310
90679SOL    HW173934   1.296   3.417   8.344
90679SOL    HW273935   1.209   3.462   8.228
90680SOL     OW73936  11.977   8.247   1.275
90680SOL    HW173937  12.007   8.282   1.358
90680SOL    HW273938  11.999   8.314   1.210
90681SOL     OW73939   1.097   8.941   7.983
90681SOL    HW173940   1.121   8.849   7.979
90681SOL    HW273941   1.177   8.986   8.011
90682SOL     OW73942  13.091   7.117  13.403
90682SOL    HW173943  13.026   7.046  13.403
90682SOL    HW273944  13.142   7.102  13.483
90683SOL     OW73945  13.114   5.277   5.377
90683SOL    HW173946  13.117   5.248   5.286
90683SOL    HW273947  13.117   5.197   5.428
90684SOL     OW73948  10.296   4.513   4.715
90684SOL    HW173949  10.311   4.602   4.683
90684SOL    HW273950  10.225   4.522   4.779
90685SOL     OW73951   3.694  13.838   6.799
90685SOL    HW173952   3.721  13.922   6.834
90685SOL    HW273953   3.667  13.856   6.709
90686SOL     OW73954  14.822   6.221   3.882
90686SOL    HW173955  14.747   6.178   3.921
90686SOL    HW273956  14.857   6.276   3.952
90687SOL     OW73957   4.303   7.095  14.752
90687SOL    HW173958   4.223   7.046  14.735
90687SOL    HW273959   4.281   7.186  14.730
90688SOL     OW73960   9.976  14.238   7.351
90688SOL    HW173961  10.007  14.323   7.319
90688SOL    HW273962   9.887  14.232   7.317
90689SOL     OW73963  11.722  11.750   4.073
90689SOL    HW173964  11.730  11.703   3.990
90689SOL    HW273965  11.783  11.824   4.064
90690SOL     OW73966   7.631  12.585   2.994
90690SOL    HW173967   7.593  12.668   3.021
90690SOL    HW273968   7.586  12.519   3.048
90691SOL     OW73969   2.745   3.426   1.215
90691SOL    HW173970   2.785   3.386   1.292
90691SOL    HW273971   2.799   3.502   1.197
90692SOL     OW73972   0.828  13.286  12.584
90692SOL    HW173973   0.918  13.313  12.566
90692SOL    HW273974   0.777  13.323  12.511
90693SOL     OW73975   7.329   8.440   0.033
90693SOL    HW173976   7.383   8.397  14.844
90693SOL    HW273977   7.311   8.370   0.097
90694SOL     OW73978  12.338   2.754  11.830
90694SOL    HW173979  12.255   2.742  11.782
90694SOL    HW273980  12.374   2.835  11.794
90695SOL     OW73981  13.457  14.539   7.462
90695SOL    HW173982  13.367  14.510   7.446
90695SOL    HW273983  13.467  14.535   7.557
90696SOL     OW73984   9.432   7.665  11.894
90696SOL    HW173985   9.515   7.709  11.873
90696SOL    HW273986   9.367   7.735  11.890
90697SOL     OW73987   6.049   2.443   5.201
90697SOL    HW173988   6.116   2.405   5.144
90697SOL    HW273989   5.973   2.386   5.188
90698SOL     OW73990   5.723   9.768   9.891
90698SOL    HW173991   5.664   9.795   9.962
90698SOL    HW273992   5.673   9.783   9.811
90699SOL     OW73993   2.779   0.714  12.189
90699SOL    HW173994   2.712   0.646  12.184
90699SOL    HW273995   2.860   0.668  12.212
90700SOL     OW73996   5.439   8.114   8.087
90700SOL    HW173997   5.429   8.098   7.994
90700SOL    HW273998   5.532   8.131   8.099
90701SOL     OW73999  13.688   7.461  14.028
90701SOL    HW174000  13.759   7.428  13.972
90701SOL    HW274001  13.614   7.473  13.968
90702SOL     OW74002  13.478  11.169   7.392
90702SOL    HW174003  13.570  11.165   7.363
90702SOL    HW274004  13.468  11.257   7.428
90703SOL     OW74005   0.961   8.274   0.426
90703SOL    HW174006   0.922   8.199   0.471
90703SOL    HW274007   1.055   8.260   0.434
90704SOL     OW74008  14.036  14.355  11.280
90704SOL    HW174009  13.983  14.427  11.246
90704SOL    HW274010  13.999  14.277  11.237
90705SOL     OW74011  14.437   2.983  10.882
90705SOL    HW174012  14.357   2.930  10.887
90705SOL    HW274013  14.456   2.990  10.789
90706SOL     OW74014   4.140   7.841   3.326
90706SOL    HW174015   4.081   7.769   3.304
90706SOL    HW274016   4.212   7.798   3.374
90707SOL     OW74017   1.432   9.881   5.386
90707SOL    HW174018   1.391   9.841   5.309
90707SOL    HW274019   1.395   9.969   5.390
90708SOL     OW74020  12.309   3.984   0.603
90708SOL    HW174021  12.342   3.899   0.632
90708SOL    HW274022  12.368   4.048   0.643
90709SOL     OW74023   6.568   8.257  12.451
90709SOL    HW174024   6.662   8.276  12.445
90709SOL    HW274025   6.560   8.170  12.413
90710SOL     OW74026   3.358   1.821   5.938
90710SOL    HW174027   3.383   1.872   6.014
90710SOL    HW274028   3.440   1.788   5.902
90711SOL     OW74029   8.515   9.099   4.775
90711SOL    HW174030   8.567   9.024   4.746
90711SOL    HW274031   8.479   9.136   4.694
90712SOL     OW74032  14.563   6.167   3.764
90712SOL    HW174033  14.579   6.248   3.813
90712SOL    HW274034  14.509   6.114   3.823
90713SOL     OW74035   2.107  12.402  14.283
90713SOL    HW174036   2.186  12.366  14.324
90713SOL    HW274037   2.037  12.385  14.346
90714SOL     OW74038  11.666   8.500   8.423
90714SOL    HW174039  11.737   8.563   8.411
90714SOL    HW274040  11.587   8.554   8.431
90715SOL     OW74041   9.007  13.834   8.157
90715SOL    HW174042   8.924  13.819   8.112
90715SOL    HW274043   8.982  13.862   8.245
90716SOL     OW74044  11.075   9.579   7.024
90716SOL    HW174045  11.102   9.505   6.970
90716SOL    HW274046  11.030   9.539   7.098
90717SOL     OW74047   2.995  13.928   5.797
90717SOL    HW174048   3.004  13.867   5.870
90717SOL    HW274049   3.042  14.006   5.825
90718SOL     OW74050   4.810   1.122   6.292
90718SOL    HW174051   4.849   1.040   6.263
90718SOL    HW274052   4.742   1.141   6.228
90719SOL     OW74053   1.434   0.846   5.366
90719SOL    HW174054   1.390   0.763   5.348
90719SOL    HW274055   1.438   0.890   5.282
90720SOL     OW74056   2.799   5.598  10.735
90720SOL    HW174057   2.859   5.583  10.661
90720SOL    HW274058   2.731   5.654  10.699
90721SOL     OW74059  12.507  14.269   3.731
90721SOL    HW174060  12.503  14.330   3.657
90721SOL    HW274061  12.455  14.194   3.703
90722SOL     OW74062   7.996   8.648   3.540
90722SOL    HW174063   8.067   8.666   3.601
90722SOL    HW274064   8.031   8.672   3.455
90723SOL     OW74065  14.817   9.750  13.698
90723SOL    HW174066   0.002   9.677  13.702
90723SOL    HW274067  14.782   9.757  13.786
90724SOL     OW74068   4.159   6.850   8.014
90724SOL    HW174069   4.120   6.814   7.935
90724SOL    HW274070   4.253   6.852   7.996
90725SOL     OW74071  13.093   8.199   4.806
90725SOL    HW174072  13.126   8.180   4.894
90725SOL    HW274073  12.999   8.181   4.811
90726SOL     OW74074  12.515   4.380   4.881
90726SOL    HW174075  12.526   4.299   4.932
90726SOL    HW274076  12.601   4.422   4.885
90727SOL     OW74077   2.511   7.316   9.743
90727SOL    HW174078   2.472   7.403   9.750
90727SOL    HW274079   2.455   7.260   9.798
90728SOL     OW74080   1.367   2.605   1.358
90728SOL    HW174081   1.459   2.612   1.383
90728SOL    HW274082   1.369   2.562   1.272
90729SOL     OW74083   6.598   0.017   2.667
90729SOL    HW174084   6.637  14.809   2.686
90729SOL    HW274085   6.515   0.016   2.715
90730SOL     OW74086   9.183  10.756  12.394
90730SOL    HW174087   9.124  10.736  12.321
90730SOL    HW274088   9.183  10.677  12.447
90731SOL     OW74089  13.718   2.864   8.775
90731SOL    HW174090  13.756   2.823   8.852
90731SOL    HW274091  13.689   2.950   8.805
90732SOL     OW74092   0.944  11.841   9.865
90732SOL    HW174093   0.885  11.781   9.819
90732SOL    HW274094   1.032  11.809   9.844
90733SOL     OW74095   0.905   6.618   8.690
90733SOL    HW174096   0.878   6.636   8.600
90733SOL    HW274097   0.999   6.636   8.691
90734SOL     OW74098   6.304   3.379   2.472
90734SOL    HW174099   6.297   3.474   2.463
90734SOL    HW274100   6.397   3.365   2.494
90735SOL     OW74101  14.384  10.221   2.108
90735SOL    HW174102  14.445  10.293   2.128
90735SOL    HW274103  14.427  10.173   2.037
90736SOL     OW74104  10.630   7.535  13.619
90736SOL    HW174105  10.579   7.527  13.538
90736SOL    HW274106  10.721   7.530  13.590
90737SOL     OW74107   1.536   9.200   3.647
90737SOL    HW174108   1.591   9.274   3.673
90737SOL    HW274109   1.520   9.153   3.729
90738SOL     OW74110  12.497   4.656   6.995
90738SOL    HW174111  12.502   4.563   6.975
90738SOL    HW274112  12.547   4.699   6.926
90739SOL     OW74113   5.535   6.788  13.140
90739SOL    HW174114   5.473   6.850  13.102
90739SOL    HW274115   5.497   6.766  13.226
90740SOL     OW74116   4.928   5.560   3.883
90740SOL    HW174117   4.903   5.650   3.901
90740SOL    HW274118   4.938   5.557   3.788
90741SOL     OW74119  13.663   1.555  11.780
90741SOL    HW174120  13.589   1.576  11.838
90741SOL    HW274121  13.676   1.635  11.729
90742SOL     OW74122   7.167   0.156   5.063
90742SOL    HW174123   7.158   0.250   5.055
90742SOL    HW274124   7.081   0.121   5.041
90743SOL     OW74125   6.362   9.451   4.077
90743SOL    HW174126   6.332   9.397   4.004
90743SOL    HW274127   6.361   9.540   4.044
90744SOL     OW74128  11.543   8.884   5.167
90744SOL    HW174129  11.602   8.848   5.234
90744SOL    HW274130  11.600   8.940   5.113
90745SOL     OW74131   7.991   3.499   9.014
90745SOL    HW174132   7.990   3.434   8.944
90745SOL    HW274133   7.959   3.580   8.974
90746SOL     OW74134   7.580   3.074   0.774
90746SOL    HW174135   7.552   3.158   0.738
90746SOL    HW274136   7.574   3.013   0.701
90747SOL     OW74137  13.919  10.548  12.106
90747SOL    HW174138  13.967  10.604  12.045
90747SOL    HW274139  13.836  10.529  12.061
90748SOL     OW74140   2.893   9.846   9.761
90748SOL    HW174141   2.845   9.928   9.753
90748SOL    HW274142   2.827   9.781   9.784
90749SOL     OW74143   1.817   6.048  14.426
90749SOL    HW174144   1.866   5.985  14.478
90749SOL    HW274145   1.839   6.133  14.465
90750SOL     OW74146   9.941   1.588  13.125
90750SOL    HW174147   9.859   1.610  13.080
90750SOL    HW274148  10.004   1.573  13.054
90751SOL     OW74149   9.133  10.589   8.385
90751SOL    HW174150   9.187  10.665   8.362
90751SOL    HW274151   9.156  10.569   8.475
90752SOL     OW74152  12.212   7.045   6.631
90752SOL    HW174153  12.129   7.067   6.674
90752SOL    HW274154  12.279   7.082   6.687
90753SOL     OW74155   4.616   8.735   5.147
90753SOL    HW174156   4.654   8.798   5.086
90753SOL    HW274157   4.560   8.680   5.093
90754SOL     OW74158   1.628   4.989   8.335
90754SOL    HW174159   1.674   4.919   8.288
90754SOL    HW274160   1.663   4.984   8.424
90755SOL     OW74161   2.985  11.921  13.198
90755SOL    HW174162   3.045  11.848  13.212
90755SOL    HW274163   2.926  11.918  13.274
90756SOL     OW74164  11.811   5.562  13.433
90756SOL    HW174165  11.770   5.599  13.511
90756SOL    HW274166  11.882   5.507  13.467
90757SOL     OW74167  10.183   6.429  10.004
90757SOL    HW174168  10.143   6.346   9.976
90757SOL    HW274169  10.208   6.471   9.922
90758SOL     OW74170   6.679   6.046  11.075
90758SOL    HW174171   6.761   6.073  11.118
90758SOL    HW274172   6.675   6.099  10.995
90759SOL     OW74173   4.923  10.663   6.047
90759SOL    HW174174   4.934  10.571   6.069
90759SOL    HW274175   4.945  10.668   5.954
90760SOL     OW74176   1.592  11.073   4.862
90760SOL    HW174177   1.656  11.136   4.829
90760SOL    HW274178   1.614  10.991   4.818
90761SOL     OW74179  13.618   3.366  14.152
90761SOL    HW174180  13.596   3.280  14.188
90761SOL    HW274181  13.603   3.358  14.058
90762SOL     OW74182   0.823  11.432  10.460
90762SOL    HW174183   0.821  11.522  10.491
90762SOL    HW274184   0.745  11.422  10.406
90763SOL     OW74185  12.020   2.029   9.631
90763SOL    HW174186  11.977   1.975   9.697
90763SOL    HW274187  12.020   2.117   9.669
90764SOL     OW74188   0.941   6.438  12.237
90764SOL    HW174189   0.922   6.465  12.327
90764SOL    HW274190   0.921   6.344  12.235
90765SOL     OW74191   6.960  13.579   4.144
90765SOL    HW174192   7.035  13.594   4.086
90765SOL    HW274193   6.999  13.545   4.224
90766SOL     OW74194  14.837   3.979  13.370
90766SOL    HW174195   0.006   3.950  13.449
90766SOL    HW274196   0.013   4.050  13.335
90767SOL     OW74197   9.000   6.631   9.076
90767SOL    HW174198   8.924   6.575   9.063
90767SOL    HW274199   9.071   6.570   9.097
90768SOL     OW74200  13.665   8.499  13.678
90768SOL    HW174201  13.718   8.455  13.744
90768SOL    HW274202  13.593   8.539  13.727
90769SOL     OW74203   8.348  12.708  14.406
90769SOL    HW174204   8.353  12.616  14.380
90769SOL    HW274205   8.439  12.735  14.417
90770SOL     OW74206   6.844   5.375   0.372
90770SOL    HW174207   6.837   5.464   0.408
90770SOL    HW274208   6.857   5.389   0.278
90771SOL     OW74209   5.900  14.072  11.311
90771SOL    HW174210   5.859  14.138  11.255
90771SOL    HW274211   5.957  14.022  11.253
90772SOL     OW74212  14.239   8.635  10.139
90772SOL    HW174213  14.308   8.679  10.089
90772SOL    HW274214  14.160   8.687  10.121
90773SOL     OW74215   8.943   3.353   0.678
90773SOL    HW174216   9.029   3.340   0.638
90773SOL    HW274217   8.935   3.282   0.742
90774SOL     OW74218  13.669  13.505   3.370
90774SOL    HW174219  13.635  13.595   3.372
90774SOL    HW274220  13.631  13.464   3.447
90775SOL     OW74221   6.097   8.282   8.485
90775SOL    HW174222   6.077   8.342   8.557
90775SOL    HW274223   6.046   8.203   8.506
90776SOL     OW74224  10.376   1.840   2.653
90776SOL    HW174225  10.440   1.842   2.582
90776SOL    HW274226  10.330   1.757   2.641
90777SOL     OW74227   8.628  13.554  12.525
90777SOL    HW174228   8.596  13.472  12.486
90777SOL    HW274229   8.627  13.617  12.452
90778SOL     OW74230  10.779   7.102   2.517
90778SOL    HW174231  10.770   7.180   2.463
90778SOL    HW274232  10.729   7.122   2.597
90779SOL     OW74233   5.569   1.889   0.659
90779SOL    HW174234   5.571   1.847   0.574
90779SOL    HW274235   5.597   1.979   0.642
90780SOL     OW74236   6.246   8.142  11.090
90780SOL    HW174237   6.252   8.237  11.092
90780SOL    HW274238   6.222   8.120  11.000
90781SOL     OW74239   4.159   8.977   3.599
90781SOL    HW174240   4.205   8.993   3.681
90781SOL    HW274241   4.184   8.887   3.575
90782SOL     OW74242   1.557   8.294  13.366
90782SOL    HW174243   1.570   8.370  13.423
90782SOL    HW274244   1.471   8.260  13.391
90783SOL     OW74245   5.962  14.373  14.502
90783SOL    HW174246   6.014  14.403  14.427
90783SOL    HW274247   6.025  14.368  14.574
90784SOL     OW74248   6.807   3.281  10.981
90784SOL    HW174249   6.717   3.313  10.975
90784SOL    HW274250   6.827   3.248  10.893
90785SOL     OW74251  13.565  11.146   9.596
90785SOL    HW174252  13.511  11.214   9.556
90785SOL    HW274253  13.517  11.122   9.676
90786SOL     OW74254   4.931   3.219  14.230
90786SOL    HW174255   4.890   3.232  14.315
90786SOL    HW274256   5.025   3.225  14.247
90787SOL     OW74257   8.090   8.456   0.196
90787SOL    HW174258   8.057   8.543   0.217
90787SOL    HW274259   8.164   8.472   0.138
90788SOL     OW74260   4.508   9.166   5.814
90788SOL    HW174261   4.437   9.133   5.870
90788SOL    HW274262   4.513   9.102   5.742
90789SOL     OW74263   0.634   0.083   9.903
90789SOL    HW174264   0.633   0.126   9.818
90789SOL    HW274265   0.670   0.148   9.963
90790SOL     OW74266   8.551   5.021   9.983
90790SOL    HW174267   8.591   5.088  10.038
90790SOL    HW274268   8.457   5.028  10.000
90791SOL     OW74269   9.364  12.679  11.970
90791SOL    HW174270   9.342  12.697  12.061
90791SOL    HW274271   9.457  12.655  11.972
90792SOL     OW74272  14.668   8.706   4.262
90792SOL    HW174273  14.663   8.742   4.174
90792SOL    HW274274  14.583   8.724   4.301
90793SOL     OW74275   2.626   5.270  12.467
90793SOL    HW174276   2.604   5.322  12.544
90793SOL    HW274277   2.691   5.206  12.498
90794SOL     OW74278   0.883   5.346   2.908
90794SOL    HW174279   0.805   5.399   2.928
90794SOL    HW274280   0.897   5.294   2.986
90795SOL     OW74281   7.225   6.452   3.090
90795SOL    HW174282   7.233   6.547   3.088
90795SOL    HW274283   7.131   6.435   3.088
90796SOL     OW74284  14.136   0.501   5.079
90796SOL    HW174285  14.133   0.406   5.082
90796SOL    HW274286  14.045   0.528   5.069
90797SOL     OW74287   4.656   7.419  10.529
90797SOL    HW174288   4.671   7.458  10.615
90797SOL    HW274289   4.742   7.388  10.501
90798SOL     OW74290   4.073   6.249   3.046
90798SOL    HW174291   3.985   6.283   3.029
90798SOL    HW274292   4.132   6.320   3.022
90799SOL     OW74293   3.457   8.553  14.068
90799SOL    HW174294   3.413   8.627  14.109
90799SOL    HW274295   3.545   8.584  14.048
90800SOL     OW74296  14.105  11.110   5.109
90800SOL    HW174297  14.064  11.052   5.044
90800SOL    HW274298  14.199  11.102   5.092
90801SOL     OW74299  12.019   2.960   6.308
90801SOL    HW174300  11.988   2.896   6.373
90801SOL    HW274301  12.014   2.913   6.225
90802SOL     OW74302   9.203   2.637  13.349
90802SOL    HW174303   9.166   2.620  13.263
90802SOL    HW274304   9.295   2.610  13.341
90803SOL     OW74305   0.378   4.865  13.482
90803SOL    HW174306   0.383   4.950  13.438
90803SOL    HW274307   0.379   4.801  13.410
90804SOL     OW74308   0.317  13.667   1.906
90804SOL    HW174309   0.278  13.666   1.993
90804SOL    HW274310   0.315  13.576   1.877
90805SOL     OW74311   0.071   7.184   1.685
90805SOL    HW174312   0.135   7.235   1.734
90805SOL    HW274313   0.079   7.095   1.720
90806SOL     OW74314   4.202  12.668   2.721
90806SOL    HW174315   4.263  12.621   2.779
90806SOL    HW274316   4.258  12.732   2.675
90807SOL     OW74317   0.343  12.795  14.434
90807SOL    HW174318   0.395  12.861  14.480
90807SOL    HW274319   0.265  12.842  14.406
90808SOL     OW74320   7.722  11.200   9.434
90808SOL    HW174321   7.806  11.211   9.389
90808SOL    HW274322   7.734  11.241   9.519
90809SOL     OW74323   6.184   4.227  11.600
90809SOL    HW174324   6.158   4.249  11.689
90809SOL    HW274325   6.194   4.132  11.601
90810SOL     OW74326   6.511  11.298  10.963
90810SOL    HW174327   6.543  11.209  10.980
90810SOL    HW274328   6.445  11.287  10.895
90811SOL     OW74329   2.497  11.955   9.152
90811SOL    HW174330   2.498  11.889   9.221
90811SOL    HW274331   2.406  11.957   9.122
90812SOL     OW74332   3.664   9.617   2.510
90812SOL    HW174333   3.663   9.601   2.416
90812SOL    HW274334   3.648   9.711   2.518
90813SOL     OW74335   9.595   3.858   7.948
90813SOL    HW174336   9.638   3.850   8.033
90813SOL    HW274337   9.524   3.922   7.963
90814SOL     OW74338  10.858   0.857  12.344
90814SOL    HW174339  10.814   0.858  12.259
90814SOL    HW274340  10.935   0.802  12.330
90815SOL     OW74341  13.241   6.958  14.612
90815SOL    HW174342  13.180   7.015  14.565
90815SOL    HW274343  13.194   6.876  14.622
90816SOL     OW74344   1.708   3.336   1.545
90816SOL    HW174345   1.783   3.358   1.491
90816SOL    HW274346   1.740   3.267   1.604
90817SOL     OW74347   7.359   0.816   9.925
90817SOL    HW174348   7.417   0.796   9.999
90817SOL    HW274349   7.297   0.743   9.922
90818SOL     OW74350   4.937  14.695  10.671
90818SOL    HW174351   4.989  14.661  10.744
90818SOL    HW274352   4.902  14.617  10.628
90819SOL     OW74353  11.869  14.059   0.766
90819SOL    HW174354  11.911  13.977   0.740
90819SOL    HW274355  11.775  14.039   0.767
90820SOL     OW74356   9.844  14.711   5.627
90820SOL    HW174357   9.893  14.775   5.679
90820SOL    HW274358   9.758  14.706   5.670
90821SOL     OW74359   7.828  10.518   2.179
90821SOL    HW174360   7.876  10.563   2.249
90821SOL    HW274361   7.777  10.587   2.137
90822SOL     OW74362   1.295  12.879   0.324
90822SOL    HW174363   1.208  12.840   0.334
90822SOL    HW274364   1.327  12.847   0.240
90823SOL     OW74365   3.263  12.796   2.591
90823SOL    HW174366   3.275  12.724   2.529
90823SOL    HW274367   3.304  12.871   2.548
90824SOL     OW74368   3.270   4.842   5.968
90824SOL    HW174369   3.214   4.776   6.010
90824SOL    HW274370   3.215   4.878   5.898
90825SOL     OW74371   6.140  11.601  14.129
90825SOL    HW174372   6.051  11.637  14.131
90825SOL    HW274373   6.197  11.678  14.119
90826SOL     OW74374   5.910  14.440  10.921
90826SOL    HW174375   5.975  14.417  10.854
90826SOL    HW274376   5.930  14.531  10.943
90827SOL     OW74377   5.430   9.837   6.082
90827SOL    HW174378   5.453   9.747   6.060
90827SOL    HW274379   5.381   9.869   6.006
90828SOL     OW74380   1.170  14.495  10.074
90828SOL    HW174381   1.157  14.418  10.019
90828SOL    HW274382   1.265  14.510  10.074
90829SOL     OW74383   5.942   4.836   8.114
90829SOL    HW174384   6.006   4.856   8.045
90829SOL    HW274385   5.865   4.805   8.066
90830SOL     OW74386   5.932   9.820   1.694
90830SOL    HW174387   5.850   9.776   1.719
90830SOL    HW274388   5.918   9.848   1.604
90831SOL     OW74389  10.052   4.763   1.568
90831SOL    HW174390   9.992   4.780   1.496
90831SOL    HW274391   9.996   4.736   1.641
90832SOL     OW74392   9.774   5.459   7.235
90832SOL    HW174393   9.805   5.410   7.158
90832SOL    HW274394   9.679   5.448   7.233
90833SOL     OW74395   7.264   4.641   2.580
90833SOL    HW174396   7.228   4.588   2.509
90833SOL    HW274397   7.336   4.689   2.540
90834SOL     OW74398  11.170   4.454   9.950
90834SOL    HW174399  11.244   4.438  10.008
90834SOL    HW274400  11.095   4.417   9.997
90835SOL     OW74401   6.843  14.462  13.471
90835SOL    HW174402   6.751  14.482  13.453
90835SOL    HW274403   6.887  14.547  13.473
90836SOL     OW74404   1.743   8.056  14.653
90836SOL    HW174405   1.663   8.011  14.624
90836SOL    HW274406   1.807   8.037  14.585
90837SOL     OW74407  13.730  12.746   3.093
90837SOL    HW174408  13.788  12.696   3.149
90837SOL    HW274409  13.675  12.796   3.154
90838SOL     OW74410  12.668   3.692  12.674
90838SOL    HW174411  12.577   3.721  12.663
90838SOL    HW274412  12.686   3.705  12.767
90839SOL     OW74413   8.598  11.082   0.611
90839SOL    HW174414   8.506  11.106   0.604
90839SOL    HW274415   8.599  11.004   0.666
90840SOL     OW74416   3.310   4.787   3.773
90840SOL    HW174417   3.389   4.772   3.721
90840SOL    HW274418   3.270   4.700   3.781
90841SOL     OW74419   6.605   3.376   9.054
90841SOL    HW174420   6.626   3.395   9.146
90841SOL    HW274421   6.519   3.416   9.041
90842SOL     OW74422   2.603  13.732  14.181
90842SOL    HW174423   2.630  13.674  14.109
90842SOL    HW274424   2.555  13.675  14.241
90843SOL     OW74425   7.909   2.135   8.742
90843SOL    HW174426   7.982   2.096   8.789
90843SOL    HW274427   7.891   2.074   8.671
90844SOL     OW74428  13.142  12.069  10.453
90844SOL    HW174429  13.173  12.128  10.385
90844SOL    HW274430  13.075  12.016  10.409
90845SOL     OW74431   0.974  10.820  11.764
90845SOL    HW174432   1.017  10.904  11.751
90845SOL    HW274433   0.913  10.812  11.690
90846SOL     OW74434   5.890   5.081   8.769
90846SOL    HW174435   5.916   5.027   8.843
90846SOL    HW274436   5.968   5.087   8.714
90847SOL     OW74437   6.282  10.093   2.837
90847SOL    HW174438   6.287  10.008   2.794
90847SOL    HW274439   6.340  10.085   2.913
90848SOL     OW74440  11.172  10.467   7.673
90848SOL    HW174441  11.207  10.386   7.637
90848SOL    HW274442  11.106  10.439   7.737
90849SOL     OW74443   2.110   3.997   3.866
90849SOL    HW174444   2.085   3.931   3.802
90849SOL    HW274445   2.062   3.972   3.946
90850SOL     OW74446   7.667   5.720   3.021
90850SOL    HW174447   7.713   5.799   2.993
90850SOL    HW274448   7.574   5.741   3.010
90851SOL     OW74449   6.953   3.981   9.849
90851SOL    HW174450   7.017   4.051   9.862
90851SOL    HW274451   6.972   3.946   9.762
90852SOL     OW74452   6.404   8.839   4.295
90852SOL    HW174453   6.317   8.800   4.308
90852SOL    HW274454   6.457   8.805   4.366
90853SOL     OW74455   7.808   2.816  11.326
90853SOL    HW174456   7.894   2.783  11.353
90853SOL    HW274457   7.769   2.852  11.405
90854SOL     OW74458  10.958  14.337   8.138
90854SOL    HW174459  10.921  14.318   8.052
90854SOL    HW274460  10.958  14.252   8.183
90855SOL     OW74461   3.868   0.318   0.347
90855SOL    HW174462   3.812   0.333   0.271
90855SOL    HW274463   3.895   0.406   0.375
90856SOL     OW74464   7.606   4.804  10.074
90856SOL    HW174465   7.676   4.868  10.062
90856SOL    HW274466   7.552   4.812   9.995
90857SOL     OW74467  14.223  12.504  13.568
90857SOL    HW174468  14.165  12.570  13.605
90857SOL    HW274469  14.188  12.489  13.480
90858SOL     OW74470   4.289   1.078   1.250
90858SOL    HW174471   4.320   1.114   1.167
90858SOL    HW274472   4.334   0.994   1.258
90859SOL     OW74473   1.968   3.315   7.200
90859SOL    HW174474   1.875   3.293   7.205
90859SOL    HW274475   2.006   3.247   7.143
90860SOL     OW74476   6.546   8.253   1.726
90860SOL    HW174477   6.477   8.188   1.738
90860SOL    HW274478   6.624   8.202   1.707
90861SOL     OW74479   0.548  12.872   1.713
90861SOL    HW174480   0.488  12.888   1.641
90861SOL    HW274481   0.555  12.777   1.718
90862SOL     OW74482  13.672  13.421   6.970
90862SOL    HW174483  13.651  13.360   7.041
90862SOL    HW274484  13.749  13.382   6.928
90863SOL     OW74485   9.553  14.334   4.585
90863SOL    HW174486   9.576  14.242   4.591
90863SOL    HW274487   9.630  14.376   4.547
90864SOL     OW74488  10.784   4.526  14.156
90864SOL    HW174489  10.698   4.550  14.121
90864SOL    HW274490  10.779   4.548  14.249
90865SOL     OW74491   4.968  12.775  14.597
90865SOL    HW174492   5.001  12.713  14.533
90865SOL    HW274493   4.884  12.804  14.561
90866SOL     OW74494   8.587   0.209  13.888
90866SOL    HW174495   8.512   0.264  13.910
90866SOL    HW274496   8.581   0.135  13.949
90867SOL     OW74497   8.250   3.040   7.586
90867SOL    HW174498   8.333   3.010   7.623
90867SOL    HW274499   8.184   2.991   7.635
90868SOL     OW74500  11.229   4.034  12.499
90868SOL    HW174501  11.312   3.990  12.515
90868SOL    HW274502  11.250   4.106  12.440
90869SOL     OW74503  10.003   7.470   6.549
90869SOL    HW174504  10.058   7.417   6.607
90869SOL    HW274505   9.932   7.412   6.523
90870SOL     OW74506   8.986   3.428   5.399
90870SOL    HW174507   8.934   3.349   5.417
90870SOL    HW274508   9.076   3.398   5.401
90871SOL     OW74509   4.080  10.512  14.526
90871SOL    HW174510   4.111  10.451  14.593
90871SOL    HW274511   3.990  10.486  14.510
90872SOL     OW74512   8.097  12.135   1.217
90872SOL    HW174513   8.145  12.217   1.230
90872SOL    HW274514   8.163  12.066   1.231
90873SOL     OW74515   2.487   8.764  11.468
90873SOL    HW174516   2.449   8.754  11.381
90873SOL    HW274517   2.417   8.738  11.528
90874SOL     OW74518   3.889   7.827   6.584
90874SOL    HW174519   3.798   7.846   6.605
90874SOL    HW274520   3.939   7.873   6.651
90875SOL     OW74521  11.683  12.818   2.797
90875SOL    HW174522  11.629  12.819   2.719
90875SOL    HW274523  11.735  12.738   2.789
90876SOL     OW74524   5.427   9.556  14.444
90876SOL    HW174525   5.441   9.629  14.504
90876SOL    HW274526   5.385   9.595  14.368
90877SOL     OW74527   8.306   6.575  13.627
90877SOL    HW174528   8.272   6.634  13.694
90877SOL    HW274529   8.248   6.588  13.552
90878SOL     OW74530   0.297  12.755  12.605
90878SOL    HW174531   0.265  12.784  12.520
90878SOL    HW274532   0.251  12.811  12.668
90879SOL     OW74533  12.898   7.937   0.168
90879SOL    HW174534  12.885   7.951   0.262
90879SOL    HW274535  12.951   7.858   0.162
90880SOL     OW74536   2.379   1.225   9.583
90880SOL    HW174537   2.351   1.305   9.538
90880SOL    HW274538   2.423   1.256   9.663
90881SOL     OW74539   1.224   9.919  14.836
90881SOL    HW174540   1.221   9.922   0.054
90881SOL    HW274541   1.317   9.933  14.814
90882SOL     OW74542   3.380   0.231  12.790
90882SOL    HW174543   3.458   0.176  12.793
90882SOL    HW274544   3.411   0.314  12.754
90883SOL     OW74545   1.113   7.588   0.874
90883SOL    HW174546   1.076   7.658   0.928
90883SOL    HW274547   1.183   7.551   0.928
90884SOL     OW74548   4.873  12.479   5.155
90884SOL    HW174549   4.952  12.508   5.200
90884SOL    HW274550   4.805  12.479   5.223
90885SOL     OW74551   1.464  13.780  12.599
90885SOL    HW174552   1.471  13.835  12.676
90885SOL    HW274553   1.545  13.798  12.550
90886SOL     OW74554   9.585  12.864  10.867
90886SOL    HW174555   9.607  12.908  10.949
90886SOL    HW274556   9.502  12.903  10.840
90887SOL     OW74557   5.531   8.102   5.508
90887SOL    HW174558   5.626   8.112   5.505
90887SOL    HW274559   5.513   8.068   5.595
90888SOL     OW74560   6.642   1.746  11.508
90888SOL    HW174561   6.573   1.717  11.568
90888SOL    HW274562   6.713   1.777  11.565
90889SOL     OW74563   1.934   1.049  11.777
90889SOL    HW174564   1.905   1.081  11.692
90889SOL    HW274565   1.861   0.997  11.810
90890SOL     OW74566  10.724  13.765  10.972
90890SOL    HW174567  10.701  13.858  10.983
90890SOL    HW274568  10.640  13.720  10.971
90891SOL     OW74569  11.361   9.839   4.151
90891SOL    HW174570  11.417   9.901   4.104
90891SOL    HW274571  11.276   9.882   4.155
90892SOL     OW74572   3.487  12.516  13.558
90892SOL    HW174573   3.505  12.498  13.650
90892SOL    HW274574   3.510  12.608  13.547
90893SOL     OW74575  11.665   2.675  12.800
90893SOL    HW174576  11.580   2.637  12.778
90893SOL    HW274577  11.643   2.760  12.840
90894SOL     OW74578   6.692   5.591  14.648
90894SOL    HW174579   6.732   5.513  14.609
90894SOL    HW274580   6.760   5.628  14.704
90895SOL     OW74581   3.111   9.786   8.295
90895SOL    HW174582   3.132   9.727   8.222
90895SOL    HW274583   3.078   9.865   8.253
90896SOL     OW74584   6.605   1.098  10.573
90896SOL    HW174585   6.621   1.158  10.500
90896SOL    HW274586   6.558   1.151  10.637
90897SOL     OW74587  12.881  13.395   9.339
90897SOL    HW174588  12.816  13.452   9.382
90897SOL    HW274589  12.945  13.378   9.408
90898SOL     OW74590   0.722  12.549   6.209
90898SOL    HW174591   0.758  12.541   6.297
90898SOL    HW274592   0.651  12.613   6.217
90899SOL     OW74593  12.729   6.325  12.495
90899SOL    HW174594  12.821   6.318  12.467
90899SOL    HW274595  12.705   6.416  12.474
90900SOL     OW74596   6.209   6.007  11.935
90900SOL    HW174597   6.128   6.057  11.941
90900SOL    HW274598   6.202   5.942  12.004
90901SOL     OW74599   2.105   5.197  14.802
90901SOL    HW174600   2.186   5.158  14.834
90901SOL    HW274601   2.061   5.127  14.755
90902SOL     OW74602  14.816  11.095   9.682
90902SOL    HW174603  14.817  11.106   9.587
90902SOL    HW274604   0.023  11.127   9.711
90903SOL     OW74605   1.182   4.431  14.764
90903SOL    HW174606   1.196   4.341  14.794
90903SOL    HW274607   1.115   4.423  14.695
90904SOL     OW74608  11.482  13.638   4.715
90904SOL    HW174609  11.408  13.658   4.657
90904SOL    HW274610  11.447  13.649   4.803
90905SOL     OW74611   0.334   1.977   8.555
90905SOL    HW174612   0.418   1.947   8.588
90905SOL    HW274613   0.318   2.060   8.601
90906SOL     OW74614   4.700  10.597  14.507
90906SOL    HW174615   4.728  10.633  14.423
90906SOL    HW274616   4.678  10.673  14.560
90907SOL     OW74617   1.700   6.507   7.753
90907SOL    HW174618   1.642   6.432   7.740
90907SOL    HW274619   1.641   6.579   7.776
90908SOL     OW74620  12.219   3.092  11.407
90908SOL    HW174621  12.280   3.024  11.378
90908SOL    HW274622  12.212   3.078  11.501
90909SOL     OW74623   0.362   0.472   7.853
90909SOL    HW174624   0.346   0.519   7.935
90909SOL    HW274625   0.398   0.539   7.794
90910SOL     OW74626  12.257   0.203   9.390
90910SOL    HW174627  12.335   0.157   9.420
90910SOL    HW274628  12.235   0.160   9.307
90911SOL     OW74629   4.044   6.841  13.936
90911SOL    HW174630   4.105   6.888  13.880
90911SOL    HW274631   3.960   6.886  13.923
90912SOL     OW74632   4.349   0.143   9.095
90912SOL    HW174633   4.283   0.201   9.132
90912SOL    HW274634   4.417   0.201   9.061
90913SOL     OW74635   3.717   4.122   0.414
90913SOL    HW174636   3.676   4.148   0.496
90913SOL    HW274637   3.791   4.066   0.441
90914SOL     OW74638   3.964  11.573   6.766
90914SOL    HW174639   3.980  11.578   6.860
90914SOL    HW274640   3.872  11.547   6.759
90915SOL     OW74641   9.576   0.320  14.368
90915SOL    HW174642   9.563   0.345  14.276
90915SOL    HW274643   9.557   0.226  14.370
90916SOL     OW74644   3.211   8.575   0.387
90916SOL    HW174645   3.220   8.534   0.473
90916SOL    HW274646   3.125   8.547   0.356
90917SOL     OW74647   3.479   2.309   8.379
90917SOL    HW174648   3.529   2.271   8.452
90917SOL    HW274649   3.459   2.234   8.323
90918SOL     OW74650   1.751  13.089  13.082
90918SOL    HW174651   1.793  13.096  12.997
90918SOL    HW274652   1.769  12.999  13.111
90919SOL     OW74653   4.656   1.925   4.611
90919SOL    HW174654   4.714   1.848   4.613
90919SOL    HW274655   4.656   1.957   4.701
90920SOL     OW74656  10.239   3.468   9.679
90920SOL    HW174657  10.194   3.551   9.693
90920SOL    HW274658  10.315   3.491   9.625
90921SOL     OW74659   2.905   0.158   5.572
90921SOL    HW174660   2.882   0.249   5.593
90921SOL    HW274661   2.838   0.131   5.509
90922SOL     OW74662  13.271  12.062   7.794
90922SOL    HW174663  13.224  12.076   7.712
90922SOL    HW274664  13.346  12.121   7.791
90923SOL     OW74665   7.793  12.440   4.142
90923SOL    HW174666   7.831  12.502   4.203
90923SOL    HW274667   7.743  12.494   4.081
90924SOL     OW74668  10.617   3.880  12.688
90924SOL    HW174669  10.672   3.958  12.696
90924SOL    HW274670  10.678   3.808  12.675
90925SOL     OW74671   0.367  10.282   4.628
90925SOL    HW174672   0.360  10.377   4.632
90925SOL    HW274673   0.426  10.265   4.554
90926SOL     OW74674   5.622   0.202   1.535
90926SOL    HW174675   5.716   0.205   1.515
90926SOL    HW274676   5.580   0.235   1.456
90927SOL     OW74677  10.962  10.876   7.663
90927SOL    HW174678  11.032  10.810   7.659
90927SOL    HW274679  10.923  10.864   7.749
90928SOL     OW74680  12.840   0.727   9.861
90928SOL    HW174681  12.916   0.677   9.891
90928SOL    HW274682  12.833   0.707   9.768
90929SOL     OW74683   9.345  13.551   7.935
90929SOL    HW174684   9.290  13.623   7.967
90929SOL    HW274685   9.350  13.564   7.841
90930SOL     OW74686   1.434  12.142   5.216
90930SOL    HW174687   1.363  12.113   5.274
90930SOL    HW274688   1.509  12.089   5.241
90931SOL     OW74689  10.898  10.293   6.860
90931SOL    HW174690  10.985  10.324   6.833
90931SOL    HW274691  10.908  10.198   6.867
90932SOL     OW74692   1.691   8.139  12.865
90932SOL    HW174693   1.657   8.179  12.785
90932SOL    HW274694   1.626   8.072  12.888
90933SOL     OW74695   6.422   1.158   2.866
90933SOL    HW174696   6.471   1.230   2.906
90933SOL    HW274697   6.346   1.201   2.825
90934SOL     OW74698   7.004  10.033   3.057
90934SOL    HW174699   7.004   9.959   2.996
90934SOL    HW274700   6.958  10.102   3.010
90935SOL     OW74701  10.630   9.153  14.063
90935SOL    HW174702  10.581   9.081  14.022
90935SOL    HW274703  10.608   9.230  14.010
90936SOL     OW74704   6.078   8.748   0.221
90936SOL    HW174705   6.117   8.680   0.166
90936SOL    HW274706   5.991   8.763   0.183
90937SOL     OW74707   4.397   2.436   7.425
90937SOL    HW174708   4.346   2.358   7.445
90937SOL    HW274709   4.481   2.421   7.470
90938SOL     OW74710  10.084   3.485   1.416
90938SOL    HW174711  10.163   3.431   1.421
90938SOL    HW274712  10.021   3.432   1.367
90939SOL     OW74713   8.698   2.620  12.998
90939SOL    HW174714   8.626   2.638  13.059
90939SOL    HW274715   8.670   2.660  12.916
90940SOL     OW74716  13.466  11.950  10.479
90940SOL    HW174717  13.553  11.988  10.496
90940SOL    HW274718  13.407  12.025  10.478
90941SOL     OW74719   4.117   9.248   5.495
90941SOL    HW174720   4.099   9.200   5.576
90941SOL    HW274721   4.081   9.192   5.426
90942SOL     OW74722  11.704  10.108  12.742
90942SOL    HW174723  11.750  10.191  12.754
90942SOL    HW274724  11.709  10.065  12.828
90943SOL     OW74725   9.624  11.291   8.148
90943SOL    HW174726   9.651  11.244   8.227
90943SOL    HW274727   9.672  11.373   8.150
90944SOL     OW74728   8.793   6.642   0.867
90944SOL    HW174729   8.735   6.566   0.859
90944SOL    HW274730   8.879   6.609   0.843
90945SOL     OW74731  10.904   1.362  13.474
90945SOL    HW174732  10.836   1.295  13.475
90945SOL    HW274733  10.912   1.390  13.565
90946SOL     OW74734   3.318   6.007   5.653
90946SOL    HW174735   3.402   6.006   5.606
90946SOL    HW274736   3.261   5.950   5.602
90947SOL     OW74737   5.026   1.213   0.920
90947SOL    HW174738   4.983   1.211   1.006
90947SOL    HW274739   5.090   1.284   0.927
90948SOL     OW74740   2.903   6.578   6.241
90948SOL    HW174741   2.907   6.672   6.223
90948SOL    HW274742   2.987   6.558   6.284
90949SOL     OW74743   6.815   8.243  14.547
90949SOL    HW174744   6.785   8.199  14.467
90949SOL    HW274745   6.907   8.264  14.530
90950SOL     OW74746   7.203   1.084  10.699
90950SOL    HW174747   7.247   1.119  10.777
90950SOL    HW274748   7.248   1.126  10.626
90951SOL     OW74749   7.626   3.565   7.014
90951SOL    HW174750   7.585   3.603   7.092
90951SOL    HW274751   7.707   3.614   7.004
90952SOL     OW74752  10.029   7.053   1.971
90952SOL    HW174753   9.937   7.079   1.967
90952SOL    HW274754  10.067   7.087   1.890
90953SOL     OW74755   0.305  10.536  11.691
90953SOL    HW174756   0.384  10.539  11.637
90953SOL    HW274757   0.262  10.620  11.677
90954SOL     OW74758   8.979  13.463  10.619
90954SOL    HW174759   8.894  13.457  10.575
90954SOL    HW274760   9.031  13.519  10.563
90955SOL     OW74761  11.162  10.407  11.440
90955SOL    HW174762  11.081  10.387  11.488
90955SOL    HW274763  11.144  10.381  11.350
90956SOL     OW74764   9.127   2.706  13.080
90956SOL    HW174765   9.103   2.679  12.991
90956SOL    HW274766   9.046   2.700  13.130
90957SOL     OW74767   8.464   9.000   7.215
90957SOL    HW174768   8.464   8.906   7.194
90957SOL    HW274769   8.556   9.023   7.221
90958SOL     OW74770   7.234  12.760  10.345
90958SOL    HW174771   7.303  12.733  10.405
90958SOL    HW274772   7.162  12.787  10.401
90959SOL     OW74773   4.518   3.843   4.876
90959SOL    HW174774   4.594   3.847   4.818
90959SOL    HW274775   4.484   3.933   4.878
90960SOL     OW74776   3.202   2.776  14.125
90960SOL    HW174777   3.277   2.776  14.066
90960SOL    HW274778   3.241   2.775  14.213
90961SOL     OW74779   2.891   5.001   0.882
90961SOL    HW174780   2.954   5.063   0.846
90961SOL    HW274781   2.818   5.055   0.913
90962SOL     OW74782   1.403   0.135   1.178
90962SOL    HW174783   1.455   0.215   1.188
90962SOL    HW274784   1.314   0.162   1.199
90963SOL     OW74785   3.857   0.581   3.224
90963SOL    HW174786   3.946   0.613   3.210
90963SOL    HW274787   3.862   0.487   3.208
90964SOL     OW74788   4.276   9.280   4.070
90964SOL    HW174789   4.265   9.325   4.154
90964SOL    HW274790   4.258   9.188   4.089
90965SOL     OW74791  11.605   7.981   0.810
90965SOL    HW174792  11.662   7.995   0.734
90965SOL    HW274793  11.664   7.947   0.878
90966SOL     OW74794   9.099  14.517  13.315
90966SOL    HW174795   9.192  14.495  13.317
90966SOL    HW274796   9.064  14.467  13.242
90967SOL     OW74797  14.065  11.844   8.807
90967SOL    HW174798  14.072  11.927   8.854
90967SOL    HW274799  13.973  11.819   8.816
90968SOL     OW74800   2.518  14.429   9.574
90968SOL    HW174801   2.470  14.511   9.573
90968SOL    HW274802   2.484  14.380   9.499
90969SOL     OW74803   1.776   5.797  13.877
90969SOL    HW174804   1.708   5.858  13.849
90969SOL    HW274805   1.855   5.851  13.884
90970SOL     OW74806   3.241  12.427  10.698
90970SOL    HW174807   3.182  12.496  10.727
90970SOL    HW274808   3.252  12.443  10.604
90971SOL     OW74809   9.839  12.040  13.484
90971SOL    HW174810   9.757  12.086  13.502
90971SOL    HW274811   9.907  12.106  13.498
90972SOL     OW74812   3.892   2.895  12.048
90972SOL    HW174813   3.839   2.942  12.113
90972SOL    HW274814   3.980   2.894  12.086
90973SOL     OW74815   0.908  13.819   7.915
90973SOL    HW174816   0.813  13.818   7.926
90973SOL    HW274817   0.928  13.908   7.885
90974SOL     OW74818   4.276  10.291   6.465
90974SOL    HW174819   4.206  10.229   6.448
90974SOL    HW274820   4.279  10.298   6.561
90975SOL     OW74821   7.229   9.253  10.205
90975SOL    HW174822   7.219   9.341  10.239
90975SOL    HW274823   7.280   9.263  10.124
90976SOL     OW74824   8.116   7.352   4.715
90976SOL    HW174825   8.042   7.299   4.686
90976SOL    HW274826   8.094   7.442   4.689
90977SOL     OW74827   0.928   2.044   9.864
90977SOL    HW174828   0.868   2.003   9.801
90977SOL    HW274829   0.903   2.007   9.949
90978SOL     OW74830   6.536   5.803   0.115
90978SOL    HW174831   6.604   5.860   0.080
90978SOL    HW274832   6.454   5.846   0.090
90979SOL     OW74833   3.327   5.514   2.335
90979SOL    HW174834   3.362   5.435   2.376
90979SOL    HW274835   3.249   5.485   2.288
90980SOL     OW74836  10.614   7.681   3.043
90980SOL    HW174837  10.667   7.610   3.081
90980SOL    HW274838  10.524   7.659   3.068
90981SOL     OW74839  10.361  12.573   9.735
90981SOL    HW174840  10.442  12.595   9.690
90981SOL    HW274841  10.342  12.483   9.708
90982SOL     OW74842  14.109   8.821   2.549
90982SOL    HW174843  14.173   8.866   2.604
90982SOL    HW274844  14.151   8.816   2.463
90983SOL     OW74845   1.635   8.617   0.626
90983SOL    HW174846   1.573   8.689   0.643
90983SOL    HW274847   1.689   8.649   0.555
90984SOL     OW74848  12.349  14.631  12.963
90984SOL    HW174849  12.339  14.629  13.059
90984SOL    HW274850  12.440  14.608  12.948
90985SOL     OW74851  12.476  12.292  11.343
90985SOL    HW174852  12.532  12.312  11.268
90985SOL    HW274853  12.458  12.198  11.336
90986SOL     OW74854   2.979  10.208   2.958
90986SOL    HW174855   3.033  10.257   2.896
90986SOL    HW274856   2.983  10.118   2.928
90987SOL     OW74857   9.493   5.281   3.594
90987SOL    HW174858   9.412   5.331   3.586
90987SOL    HW274859   9.502   5.234   3.511
90988SOL     OW74860   9.822   0.936   4.629
90988SOL    HW174861   9.860   1.023   4.644
90988SOL    HW274862   9.861   0.907   4.547
90989SOL     OW74863   3.733   7.271   4.124
90989SOL    HW174864   3.693   7.191   4.159
90989SOL    HW274865   3.795   7.240   4.058
90990SOL     OW74866  14.076  14.283  12.935
90990SOL    HW174867  14.168  14.306  12.952
90990SOL    HW274868  14.065  14.197  12.977
90991SOL     OW74869   4.903   5.882  13.763
90991SOL    HW174870   4.923   5.971  13.736
90991SOL    HW274871   4.874   5.838  13.683
90992SOL     OW74872   1.114   2.497   0.396
90992SOL    HW174873   1.207   2.517   0.389
90992SOL    HW274874   1.111   2.405   0.424
90993SOL     OW74875   5.725  11.950   7.685
90993SOL    HW174876   5.662  11.898   7.634
90993SOL    HW274877   5.770  11.886   7.740
90994SOL     OW74878   4.132  14.594   2.412
90994SOL    HW174879   4.047  14.584   2.456
90994SOL    HW274880   4.128  14.683   2.375
90995SOL     OW74881   2.802   1.567   6.573
90995SOL    HW174882   2.792   1.615   6.491
90995SOL    HW274883   2.896   1.569   6.591
90996SOL     OW74884  11.477   1.890   7.462
90996SOL    HW174885  11.524   1.942   7.397
90996SOL    HW274886  11.416   1.951   7.502
90997SOL     OW74887   6.375   9.259   3.026
90997SOL    HW174888   6.331   9.174   3.018
90997SOL    HW274889   6.467   9.236   3.044
90998SOL     OW74890   5.396   3.652   6.761
90998SOL    HW174891   5.439   3.654   6.847
90998SOL    HW274892   5.463   3.684   6.700
90999SOL     OW74893   7.152   1.392  11.514
90999SOL    HW174894   7.064   1.355  11.513
90999SOL    HW274895   7.149   1.465  11.452
91000SOL     OW74896  13.867  11.854  14.375
91000SOL    HW174897  13.854  11.935  14.326
91000SOL    HW274898  13.959  11.832  14.360
91001SOL     OW74899  12.368  10.071  14.767
91001SOL    HW174900  12.320  10.110  14.839
91001SOL    HW274901  12.313  10.086  14.690
91002SOL     OW74902   2.113  13.666   0.309
91002SOL    HW174903   2.180  13.730   0.284
91002SOL    HW274904   2.157  13.612   0.375
91003SOL     OW74905   3.522  12.548  12.347
91003SOL    HW174906   3.492  12.586  12.265
91003SOL    HW274907   3.546  12.458  12.325
91004SOL     OW74908  14.488   4.619  13.458
91004SOL    HW174909  14.435   4.670  13.396
91004SOL    HW274910  14.537   4.558  13.403
91005SOL     OW74911   8.572   8.785   4.520
91005SOL    HW174912   8.507   8.716   4.533
91005SOL    HW274913   8.595   8.813   4.609
91006SOL     OW74914   3.490   9.146   9.017
91006SOL    HW174915   3.538   9.226   9.039
91006SOL    HW274916   3.522   9.081   9.080
91007SOL     OW74917   1.078   9.443  12.568
91007SOL    HW174918   1.048   9.430  12.658
91007SOL    HW274919   1.103   9.535  12.564
91008SOL     OW74920   5.986  14.719   2.624
91008SOL    HW174921   5.891  14.721   2.613
91008SOL    HW274922   6.015  14.807   2.600
91009SOL     OW74923   9.823   1.547   8.876
91009SOL    HW174924   9.813   1.480   8.808
91009SOL    HW274925   9.865   1.502   8.949
91010SOL     OW74926   8.210   4.138   6.294
91010SOL    HW174927   8.192   4.219   6.343
91010SOL    HW274928   8.218   4.071   6.361
91011SOL     OW74929  14.757   0.608  12.425
91011SOL    HW174930  14.775   0.530  12.372
91011SOL    HW274931  14.830   0.612  12.487
91012SOL     OW74932   6.006   7.489   2.914
91012SOL    HW174933   5.934   7.543   2.881
91012SOL    HW274934   6.007   7.506   3.008
91013SOL     OW74935   3.384  10.920  11.309
91013SOL    HW174936   3.430  10.837  11.318
91013SOL    HW274937   3.385  10.959  11.396
91014SOL     OW74938   9.684   1.130   0.507
91014SOL    HW174939   9.721   1.206   0.551
91014SOL    HW274940   9.734   1.056   0.542
91015SOL     OW74941   9.078   1.223  11.481
91015SOL    HW174942   9.113   1.298  11.530
91015SOL    HW274943   8.990   1.210  11.517
91016SOL     OW74944   6.873   5.907  12.265
91016SOL    HW174945   6.931   5.841  12.304
91016SOL    HW274946   6.803   5.856  12.224
91017SOL     OW74947   1.088  11.815   5.894
91017SOL    HW174948   1.114  11.832   5.803
91017SOL    HW274949   1.168  11.784   5.937
91018SOL     OW74950  10.851   8.228   0.722
91018SOL    HW174951  10.861   8.275   0.639
91018SOL    HW274952  10.822   8.295   0.784
91019SOL     OW74953  13.988   7.280   3.674
91019SOL    HW174954  14.033   7.305   3.755
91019SOL    HW274955  14.055   7.235   3.622
91020SOL     OW74956  14.246   7.807   7.657
91020SOL    HW174957  14.209   7.864   7.590
91020SOL    HW274958  14.324   7.855   7.688
91021SOL     OW74959  12.776  13.799   2.354
91021SOL    HW174960  12.807  13.769   2.440
91021SOL    HW274961  12.836  13.758   2.292
91022SOL     OW74962   8.622   6.430   9.415
91022SOL    HW174963   8.570   6.482   9.353
91022SOL    HW274964   8.578   6.346   9.419
91023SOL     OW74965   0.428  12.908   3.417
91023SOL    HW174966   0.402  12.969   3.486
91023SOL    HW274967   0.497  12.954   3.369
91024SOL     OW74968   9.867   4.600  11.204
91024SOL    HW174969   9.918   4.523  11.225
91024SOL    HW274970   9.925   4.674  11.223
91025SOL     OW74971   7.143   8.610   4.809
91025SOL    HW174972   7.208   8.667   4.768
91025SOL    HW274973   7.072   8.669   4.835
91026SOL     OW74974   0.143   4.020  11.910
91026SOL    HW174975   0.062   3.991  11.951
91026SOL    HW274976   0.204   4.032  11.983
91027SOL     OW74977   7.640   3.987   8.274
91027SOL    HW174978   7.654   4.076   8.306
91027SOL    HW274979   7.587   3.945   8.343
91028SOL     OW74980   4.625   1.071   9.501
91028SOL    HW174981   4.560   1.121   9.450
91028SOL    HW274982   4.633   1.120   9.583
91029SOL     OW74983   4.462  13.680   3.541
91029SOL    HW174984   4.516  13.709   3.468
91029SOL    HW274985   4.399  13.620   3.501
91030SOL     OW74986   9.204   1.944   4.728
91030SOL    HW174987   9.249   2.020   4.691
91030SOL    HW274988   9.124   1.980   4.767
91031SOL     OW74989  14.342   0.560   0.884
91031SOL    HW174990  14.365   0.538   0.975
91031SOL    HW274991  14.400   0.632   0.862
91032SOL     OW74992   5.356   9.245  13.500
91032SOL    HW174993   5.381   9.325  13.546
91032SOL    HW274994   5.433   9.220  13.449
91033SOL     OW74995  10.836  14.765   7.798
91033SOL    HW174996  10.798  14.689   7.843
91033SOL    HW274997  10.823  14.838   7.859
91034SOL     OW74998   2.665  10.383   8.462
91034SOL    HW174999   2.569  10.388   8.455
91034SOL    HW275000   2.692  10.473   8.478
91035SOL     OW75001  10.263  12.199   8.219
91035SOL    HW175002  10.205  12.165   8.151
91035SOL    HW275003  10.235  12.289   8.231
91036SOL     OW75004  10.470   1.502   2.974
91036SOL    HW175005  10.400   1.553   2.933
91036SOL    HW275006  10.514   1.459   2.901
91037SOL     OW75007   8.851   0.561   6.206
91037SOL    HW175008   8.760   0.558   6.234
91037SOL    HW275009   8.902   0.549   6.286
91038SOL     OW75010   0.779   8.218   6.373
91038SOL    HW175011   0.807   8.258   6.291
91038SOL    HW275012   0.756   8.292   6.430
91039SOL     OW75013  12.067   4.488   7.356
91039SOL    HW175014  12.004   4.551   7.391
91039SOL    HW275015  12.148   4.539   7.346
91040SOL     OW75016   0.884  13.044  14.416
91040SOL    HW175017   0.904  12.968  14.470
91040SOL    HW275018   0.789  13.051  14.418
91041SOL     OW75019   8.720   4.109  11.626
91041SOL    HW175020   8.743   4.187  11.676
91041SOL    HW275021   8.634   4.128  11.590
91042SOL     OW75022   1.236  13.592   3.967
91042SOL    HW175023   1.238  13.687   3.967
91042SOL    HW275024   1.160  13.570   3.912
91043SOL     OW75025  10.995  12.755   5.931
91043SOL    HW175026  11.074  12.702   5.941
91043SOL    HW275027  10.991  12.776   5.838
91044SOL     OW75028  12.889   3.710  11.084
91044SOL    HW175029  12.840   3.645  11.134
91044SOL    HW275030  12.822   3.764  11.042
91045SOL     OW75031  10.936  12.180   6.156
91045SOL    HW175032  10.851  12.219   6.174
91045SOL    HW275033  10.932  12.093   6.197
91046SOL     OW75034   9.714  10.139   7.848
91046SOL    HW175035   9.760  10.099   7.921
91046SOL    HW275036   9.782  10.156   7.782
91047SOL     OW75037   7.703  11.699   7.809
91047SOL    HW175038   7.678  11.639   7.879
91047SOL    HW275039   7.723  11.643   7.735
91048SOL     OW75040   0.299   3.810  10.472
91048SOL    HW175041   0.253   3.795  10.555
91048SOL    HW275042   0.304   3.906  10.465
91049SOL     OW75043  11.882  10.824   8.658
91049SOL    HW175044  11.856  10.749   8.605
91049SOL    HW275045  11.852  10.900   8.608
91050SOL     OW75046  13.094   7.863   4.782
91050SOL    HW175047  13.140   7.807   4.844
91050SOL    HW275048  13.163   7.903   4.729
91051SOL     OW75049  12.204   0.208   2.508
91051SOL    HW175050  12.227   0.294   2.541
91051SOL    HW275051  12.276   0.184   2.451
91052SOL     OW75052  11.715   7.107  10.039
91052SOL    HW175053  11.777   7.044  10.075
91052SOL    HW275054  11.633   7.090  10.086
91053SOL     OW75055   9.633  12.426   0.939
91053SOL    HW175056   9.690  12.413   0.863
91053SOL    HW275057   9.690  12.464   1.005
91054SOL     OW75058  12.914  12.252   3.742
91054SOL    HW175059  12.848  12.223   3.678
91054SOL    HW275060  12.882  12.337   3.772
91055SOL     OW75061   4.687  13.930   4.737
91055SOL    HW175062   4.709  13.879   4.815
91055SOL    HW275063   4.595  13.951   4.747
91056SOL     OW75064   3.718   5.076  10.547
91056SOL    HW175065   3.720   4.981  10.556
91056SOL    HW275066   3.777   5.108  10.615
91057SOL     OW75067  12.887  10.269   1.134
91057SOL    HW175068  12.817  10.293   1.073
91057SOL    HW275069  12.940  10.347   1.142
91058SOL     OW75070  13.390  12.390   4.992
91058SOL    HW175071  13.398  12.469   5.045
91058SOL    HW275072  13.320  12.409   4.930
91059SOL     OW75073  14.131   4.925  10.970
91059SOL    HW175074  14.164   5.011  10.944
91059SOL    HW275075  14.144   4.921  11.064
91060SOL     OW75076  11.066  14.239   7.395
91060SOL    HW175077  11.014  14.159   7.401
91060SOL    HW275078  11.017  14.295   7.334
91061SOL     OW75079  12.210   0.207   3.703
91061SOL    HW175080  12.270   0.134   3.720
91061SOL    HW275081  12.266   0.284   3.699
91062SOL     OW75082   8.233  10.841   3.907
91062SOL    HW175083   8.186  10.912   3.951
91062SOL    HW275084   8.192  10.761   3.940
91063SOL     OW75085  14.362   0.783   7.426
91063SOL    HW175086  14.371   0.865   7.379
91063SOL    HW275087  14.451   0.750   7.435
91064SOL     OW75088   8.759  14.383   4.356
91064SOL    HW175089   8.801  14.465   4.380
91064SOL    HW275090   8.681  14.379   4.411
91065SOL     OW75091  14.133   7.522  13.268
91065SOL    HW175092  14.062   7.465  13.299
91065SOL    HW275093  14.198   7.462  13.231
91066SOL     OW75094   4.417  10.397   0.137
91066SOL    HW175095   4.489  10.402   0.074
91066SOL    HW275096   4.460  10.391   0.222
91067SOL     OW75097   1.309  10.019   6.462
91067SOL    HW175098   1.369  10.092   6.448
91067SOL    HW275099   1.354   9.943   6.426
91068SOL     OW75100  12.229   9.751   8.550
91068SOL    HW175101  12.235   9.814   8.479
91068SOL    HW275102  12.137   9.752   8.576
91069SOL     OW75103   8.025   1.225  12.701
91069SOL    HW175104   7.977   1.215  12.783
91069SOL    HW275105   7.960   1.204  12.633
91070SOL     OW75106   1.049  10.246   4.540
91070SOL    HW175107   1.046  10.265   4.446
91070SOL    HW275108   1.043  10.151   4.545
91071SOL     OW75109   4.468  11.999  11.557
91071SOL    HW175110   4.488  11.935  11.488
91071SOL    HW275111   4.540  11.991  11.619
91072SOL     OW75112   3.698   0.013   9.673
91072SOL    HW175113   3.643   0.085   9.703
91072SOL    HW275114   3.637  14.820   9.653
91073SOL     OW75115   5.338   0.269   4.667
91073SOL    HW175116   5.376   0.182   4.680
91073SOL    HW275117   5.390   0.326   4.725
91074SOL     OW75118  12.917   3.227  14.583
91074SOL    HW175119  12.922   3.302  14.642
91074SOL    HW275120  12.902   3.265  14.497
91075SOL     OW75121   2.923   3.955   1.001
91075SOL    HW175122   3.016   3.976   1.003
91075SOL    HW275123   2.890   4.000   0.923
91076SOL     OW75124   8.663   8.823  11.476
91076SOL    HW175125   8.636   8.754  11.537
91076SOL    HW275126   8.607   8.811  11.399
91077SOL     OW75127   1.805  13.946   8.454
91077SOL    HW175128   1.818  13.890   8.377
91077SOL    HW275129   1.823  14.035   8.422
91078SOL     OW75130   8.033  14.818   4.843
91078SOL    HW175131   7.977  14.815   4.921
91078SOL    HW275132   8.109  14.869   4.870
91079SOL     OW75133   3.937  13.326   3.966
91079SOL    HW175134   3.857  13.279   3.988
91079SOL    HW275135   4.003  13.258   3.951
91080SOL     OW75136   0.403   0.686   0.733
91080SOL    HW175137   0.425   0.760   0.790
91080SOL    HW275138   0.385   0.726   0.648
91081SOL     OW75139  13.972   1.798   9.946
91081SOL    HW175140  13.912   1.798   9.871
91081SOL    HW275141  14.037   1.865   9.924
91082SOL     OW75142  11.253   4.567  13.050
91082SOL    HW175143  11.195   4.542  12.978
91082SOL    HW275144  11.320   4.622  13.010
91083SOL     OW75145   3.042   4.452   7.179
91083SOL    HW175146   3.058   4.438   7.272
91083SOL    HW275147   2.991   4.533   7.175
91084SOL     OW75148  10.076   8.943   3.143
91084SOL    HW175149  10.090   8.862   3.190
91084SOL    HW275150  10.114   9.011   3.199
91085SOL     OW75151  12.863   4.620  11.628
91085SOL    HW175152  12.831   4.709  11.612
91085SOL    HW275153  12.922   4.602  11.555
91086SOL     OW75154   2.360   7.829  10.707
91086SOL    HW175155   2.302   7.903  10.727
91086SOL    HW275156   2.317   7.783  10.636
91087SOL     OW75157   0.565   0.523   0.591
91087SOL    HW175158   0.576   0.485   0.678
91087SOL    HW275159   0.511   0.600   0.604
91088SOL     OW75160   2.560   1.952   0.956
91088SOL    HW175161   2.519   1.903   0.886
91088SOL    HW275162   2.633   1.998   0.913
91089SOL     OW75163   1.834   4.788   7.344
91089SOL    HW175164   1.781   4.825   7.273
91089SOL    HW275165   1.852   4.862   7.402
91090SOL     OW75166   1.469   2.921   7.115
91090SOL    HW175167   1.511   2.887   7.194
91090SOL    HW275168   1.489   2.857   7.047
91091SOL     OW75169  13.317   1.222   8.326
91091SOL    HW175170  13.234   1.239   8.371
91091SOL    HW275171  13.335   1.130   8.343
91092SOL     OW75172  10.983   0.080   2.144
91092SOL    HW175173  11.077   0.072   2.160
91092SOL    HW275174  10.943   0.056   2.228
91093SOL     OW75175  14.736  10.478   3.678
91093SOL    HW175176  14.675  10.414   3.713
91093SOL    HW275177  14.818  10.463   3.726
91094SOL     OW75178  14.829  10.844  10.170
91094SOL    HW175179  14.858  10.921  10.218
91094SOL    HW275180   0.033  10.804  10.137
91095SOL     OW75181   3.055  13.898   7.314
91095SOL    HW175182   3.033  13.980   7.357
91095SOL    HW275183   2.972  13.852   7.305
91096SOL     OW75184   8.502   4.631   8.997
91096SOL    HW175185   8.475   4.611   8.908
91096SOL    HW275186   8.422   4.665   9.039
91097SOL     OW75187   8.960   3.279  13.153
91097SOL    HW175188   9.049   3.292  13.120
91097SOL    HW275189   8.934   3.364  13.187
91098SOL     OW75190   2.057   8.381   9.817
91098SOL    HW175191   1.987   8.447   9.809
91098SOL    HW275192   2.097   8.399   9.902
91099SOL     OW75193  13.736   5.206   5.283
91099SOL    HW175194  13.665   5.246   5.333
91099SOL    HW275195  13.775   5.278   5.233
91100SOL     OW75196  13.697   1.595   1.002
91100SOL    HW175197  13.680   1.521   1.060
91100SOL    HW275198  13.755   1.653   1.052
91101SOL     OW75199   2.305   6.485   8.228
91101SOL    HW175200   2.318   6.530   8.312
91101SOL    HW275201   2.289   6.555   8.165
91102SOL     OW75202   5.350   2.259   4.792
91102SOL    HW175203   5.403   2.328   4.830
91102SOL    HW275204   5.375   2.257   4.700
91103SOL     OW75205   5.492   3.434   5.290
91103SOL    HW175206   5.430   3.430   5.362
91103SOL    HW275207   5.576   3.408   5.328
91104SOL     OW75208   2.572  14.154   0.596
91104SOL    HW175209   2.666  14.172   0.595
91104SOL    HW275210   2.554  14.116   0.510
91105SOL     OW75211  11.519  11.570   8.687
91105SOL    HW175212  11.505  11.532   8.773
91105SOL    HW275213  11.479  11.657   8.691
91106SOL     OW75214   1.446   1.450  10.642
91106SOL    HW175215   1.386   1.379  10.664
91106SOL    HW275216   1.474   1.486  10.726
91107SOL     OW75217  12.545   4.896   2.591
91107SOL    HW175218  12.493   4.962   2.637
91107SOL    HW275219  12.480   4.838   2.550
91108SOL     OW75220   7.697   1.620  13.557
91108SOL    HW175221   7.654   1.555  13.502
91108SOL    HW275222   7.753   1.669  13.497
91109SOL     OW75223   6.183  10.756   3.276
91109SOL    HW175224   6.116  10.823   3.288
91109SOL    HW275225   6.233  10.785   3.200
91110SOL     OW75226  10.632  14.759  12.705
91110SOL    HW175227  10.582  14.775  12.785
91110SOL    HW275228  10.568  14.726  12.643
91111SOL     OW75229  14.762   4.785   1.346
91111SOL    HW175230  14.726   4.697   1.336
91111SOL    HW275231  14.811   4.799   1.264
91112SOL     OW75232   3.938  10.239   6.261
91112SOL    HW175233   3.941  10.299   6.185
91112SOL    HW275234   3.970  10.156   6.226
91113SOL     OW75235   5.875   7.922   2.474
91113SOL    HW175236   5.836   7.845   2.433
91113SOL    HW275237   5.938   7.887   2.537
91114SOL     OW75238  10.161  12.312  10.703
91114SOL    HW175239  10.088  12.355  10.747
91114SOL    HW275240  10.167  12.356  10.618
91115SOL     OW75241   2.061   7.371   7.602
91115SOL    HW175242   2.072   7.412   7.516
91115SOL    HW275243   2.060   7.444   7.664
91116SOL     OW75244  12.888   2.462   4.509
91116SOL    HW175245  12.956   2.480   4.444
91116SOL    HW275246  12.937   2.441   4.589
91117SOL     OW75247   5.384  12.250   0.624
91117SOL    HW175248   5.444  12.181   0.651
91117SOL    HW275249   5.377  12.308   0.700
91118SOL     OW75250   1.991  12.807   4.037
91118SOL    HW175251   2.027  12.734   3.986
91118SOL    HW275252   2.060  12.830   4.098
91119SOL     OW75253  11.087   0.434  11.552
91119SOL    HW175254  11.038   0.427  11.470
91119SOL    HW275255  11.022   0.417  11.620
91120SOL     OW75256  14.634   5.634   6.641
91120SOL    HW175257  14.545   5.667   6.624
91120SOL    HW275258  14.621   5.544   6.672
91121SOL     OW75259   9.306   3.514  10.740
91121SOL    HW175260   9.250   3.443  10.708
91121SOL    HW275261   9.272   3.593  10.698
91122SOL     OW75262   4.432   8.622   9.808
91122SOL    HW175263   4.454   8.621   9.715
91122SOL    HW275264   4.424   8.530   9.832
91123SOL     OW75265   2.327  13.485   1.874
91123SOL    HW175266   2.253  13.524   1.920
91123SOL    HW275267   2.405  13.524   1.916
91124SOL     OW75268   0.435  14.664   7.386
91124SOL    HW175269   0.479  14.622   7.460
91124SOL    HW275270   0.491  14.645   7.310
91125SOL     OW75271   4.579   7.950   8.297
91125SOL    HW175272   4.621   8.010   8.235
91125SOL    HW275273   4.492   7.936   8.261
91126SOL     OW75274   0.022  12.339   8.219
91126SOL    HW175275   0.001  12.284   8.144
91126SOL    HW275276  14.825  12.331   8.277
91127SOL     OW75277  11.408  11.506   2.765
91127SOL    HW175278  11.366  11.466   2.689
91127SOL    HW275279  11.469  11.570   2.727
91128SOL     OW75280   6.098  14.744   6.383
91128SOL    HW175281   6.131  14.807   6.318
91128SOL    HW275282   6.007  14.729   6.357
91129SOL     OW75283   5.962   0.903  12.306
91129SOL    HW175284   5.988   0.982  12.259
91129SOL    HW275285   5.981   0.831  12.246
91130SOL     OW75286   5.207   6.584   4.747
91130SOL    HW175287   5.115   6.601   4.766
91130SOL    HW275288   5.209   6.493   4.718
91131SOL     OW75289   6.271  12.651   3.421
91131SOL    HW175290   6.323  12.651   3.340
91131SOL    HW275291   6.283  12.563   3.456
91132SOL     OW75292   1.446   7.624  12.938
91132SOL    HW175293   1.437   7.718  12.921
91132SOL    HW275294   1.540   7.608  12.932
91133SOL     OW75295  11.069   1.587   1.664
91133SOL    HW175296  11.015   1.624   1.733
91133SOL    HW275297  11.048   1.639   1.587
91134SOL     OW75298  12.552  13.478   7.174
91134SOL    HW175299  12.548  13.382   7.183
91134SOL    HW275300  12.630  13.493   7.120
91135SOL     OW75301  10.537   7.380  11.622
91135SOL    HW175302  10.481   7.451  11.652
91135SOL    HW275303  10.624   7.403  11.655
91136SOL     OW75304  11.834   8.373  12.958
91136SOL    HW175305  11.900   8.347  13.023
91136SOL    HW275306  11.797   8.455  12.993
91137SOL     OW75307  14.631   5.728   1.293
91137SOL    HW175308  14.687   5.786   1.344
91137SOL    HW275309  14.617   5.774   1.210
91138SOL     OW75310   0.655   2.348   9.610
91138SOL    HW175311   0.680   2.260   9.582
91138SOL    HW275312   0.727   2.378   9.665
91139SOL     OW75313   5.684   6.313  10.133
91139SOL    HW175314   5.702   6.342  10.222
91139SOL    HW275315   5.748   6.360  10.079
91140SOL     OW75316  12.133   1.769   9.168
91140SOL    HW175317  12.100   1.774   9.258
91140SOL    HW275318  12.221   1.733   9.177
91141SOL     OW75319   6.694   0.654  13.220
91141SOL    HW175320   6.765   0.597  13.188
91141SOL    HW275321   6.689   0.724  13.154
91142SOL     OW75322  11.251  13.999   8.351
91142SOL    HW175323  11.188  14.060   8.390
91142SOL    HW275324  11.255  13.926   8.412
91143SOL     OW75325  13.901   5.278   9.482
91143SOL    HW175326  13.946   5.215   9.538
91143SOL    HW275327  13.850   5.332   9.542
91144SOL     OW75328  14.042  13.688   4.793
91144SOL    HW175329  14.039  13.595   4.818
91144SOL    HW275330  14.130  13.701   4.758
91145SOL     OW75331   8.624   9.215   2.594
91145SOL    HW175332   8.575   9.161   2.531
91145SOL    HW275333   8.708   9.232   2.551
91146SOL     OW75334   0.908  12.234  10.899
91146SOL    HW175335   0.821  12.235  10.938
91146SOL    HW275336   0.899  12.178  10.821
91147SOL     OW75337  14.312   8.621   0.362
91147SOL    HW175338  14.303   8.531   0.392
91147SOL    HW275339  14.249   8.670   0.414
91148SOL     OW75340   0.079   7.233  14.829
91148SOL    HW175341   0.163   7.199  14.796
91148SOL    HW275342   0.015   7.207  14.763
91149SOL     OW75343   7.759   5.646  11.351
91149SOL    HW175344   7.679   5.694  11.332
91149SOL    HW275345   7.728   5.561  11.384
91150SOL     OW75346   4.737   9.516  10.214
91150SOL    HW175347   4.762   9.524  10.306
91150SOL    HW275348   4.821   9.517  10.167
91151SOL     OW75349  11.766  12.450   0.173
91151SOL    HW175350  11.838  12.492   0.125
91151SOL    HW275351  11.689  12.502   0.151
91152SOL     OW75352   3.632   0.704   6.945
91152SOL    HW175353   3.595   0.706   7.034
91152SOL    HW275354   3.621   0.613   6.917
91153SOL     OW75355   6.704   5.495  13.232
91153SOL    HW175356   6.664   5.409  13.238
91153SOL    HW275357   6.751   5.505  13.315
91154SOL     OW75358   5.548   5.391   8.052
91154SOL    HW175359   5.564   5.476   8.094
91154SOL    HW275360   5.632   5.346   8.059
91155SOL     OW75361   6.490   8.372   2.859
91155SOL    HW175362   6.414   8.395   2.806
91155SOL    HW275363   6.551   8.330   2.797
91156SOL     OW75364  11.362   9.617   3.470
91156SOL    HW175365  11.297   9.550   3.449
91156SOL    HW275366  11.387   9.653   3.384
91157SOL     OW75367   1.710   8.600  13.797
91157SOL    HW175368   1.684   8.511  13.773
91157SOL    HW275369   1.770   8.588  13.870
91158SOL     OW75370   7.809   8.206   2.475
91158SOL    HW175371   7.755   8.144   2.524
91158SOL    HW275372   7.748   8.273   2.445
91159SOL     OW75373   0.237  12.866   2.634
91159SOL    HW175374   0.174  12.938   2.639
91159SOL    HW275375   0.261  12.863   2.541
91160SOL     OW75376   7.384   9.991   3.099
91160SOL    HW175377   7.410   9.899   3.090
91160SOL    HW275378   7.346   9.997   3.187
91161SOL     OW75379   8.759   0.578  11.382
91161SOL    HW175380   8.749   0.484  11.370
91161SOL    HW275381   8.730   0.616  11.298
91162SOL     OW75382   8.632  14.361  13.551
91162SOL    HW175383   8.633  14.451  13.583
91162SOL    HW275384   8.718  14.347  13.513
91163SOL     OW75385   1.702   4.704   3.974
91163SOL    HW175386   1.713   4.646   3.898
91163SOL    HW275387   1.750   4.661   4.044
91164SOL     OW75388   1.013  11.338   7.194
91164SOL    HW175389   0.973  11.392   7.126
91164SOL    HW275390   1.073  11.281   7.147
91165SOL     OW75391   7.793   0.803   2.441
91165SOL    HW175392   7.810   0.735   2.507
91165SOL    HW275393   7.784   0.755   2.359
91166SOL     OW75394   8.985   2.843  11.239
91166SOL    HW175395   9.067   2.794  11.250
91166SOL    HW275396   8.999   2.896  11.160
91167SOL     OW75397   0.378   8.913  13.446
91167SOL    HW175398   0.422   8.834  13.413
91167SOL    HW275399   0.403   8.918  13.538
91168SOL     OW75400   8.198   7.681   8.549
91168SOL    HW175401   8.205   7.662   8.643
91168SOL    HW275402   8.137   7.615   8.516
91169SOL     OW75403  10.057  11.230   2.117
91169SOL    HW175404  10.026  11.155   2.066
91169SOL    HW275405  10.063  11.197   2.206
91170SOL     OW75406   6.161   5.126  12.646
91170SOL    HW175407   6.130   5.070  12.717
91170SOL    HW275408   6.080   5.163  12.609
91171SOL     OW75409   0.978  13.115   2.469
91171SOL    HW175410   0.885  13.111   2.489
91171SOL    HW275411   0.983  13.171   2.392
91172SOL     OW75412   5.615  12.662   8.653
91172SOL    HW175413   5.623  12.614   8.736
91172SOL    HW275414   5.635  12.753   8.676
91173SOL     OW75415   6.361   8.543   1.486
91173SOL    HW175416   6.316   8.466   1.521
91173SOL    HW275417   6.308   8.569   1.410
91174SOL     OW75418  14.217  10.382   8.392
91174SOL    HW175419  14.274  10.414   8.462
91174SOL    HW275420  14.128  10.396   8.425
91175SOL     OW75421  14.225  11.623   8.202
91175SOL    HW175422  14.274  11.586   8.130
91175SOL    HW275423  14.251  11.572   8.279
91176SOL     OW75424   2.809  14.733  14.135
91176SOL    HW175425   2.770  14.646  14.142
91176SOL    HW275426   2.901  14.720  14.158
91177SOL     OW75427  11.692   1.291   6.481
91177SOL    HW175428  11.783   1.299   6.451
91177SOL    HW275429  11.672   1.375   6.520
91178SOL     OW75430   5.802   9.298  11.088
91178SOL    HW175431   5.715   9.335  11.105
91178SOL    HW275432   5.806   9.290  10.993
91179SOL     OW75433   7.163   8.025   9.958
91179SOL    HW175434   7.217   8.094   9.920
91179SOL    HW275435   7.128   8.064  10.038
91180SOL     OW75436  11.904   9.678   2.021
91180SOL    HW175437  11.840   9.649   1.956
91180SOL    HW275438  11.928   9.767   1.993
91181SOL     OW75439  14.775   5.449   8.664
91181SOL    HW175440  14.763   5.373   8.721
91181SOL    HW275441  14.739   5.421   8.580
91182SOL     OW75442   8.040   4.788  11.528
91182SOL    HW175443   8.075   4.869  11.562
91182SOL    HW275444   7.948   4.788  11.555
91183SOL     OW75445  11.864   9.801   0.435
91183SOL    HW175446  11.799   9.744   0.477
91183SOL    HW275447  11.948   9.760   0.455
91184SOL     OW75448  10.001  11.785   0.379
91184SOL    HW175449   9.937  11.739   0.434
91184SOL    HW275450  10.086  11.753   0.409
91185SOL     OW75451  13.534   1.975  12.522
91185SOL    HW175452  13.449   1.962  12.564
91185SOL    HW275453  13.513   1.999  12.432
91186SOL     OW75454   4.711   7.717  11.538
91186SOL    HW175455   4.693   7.750  11.626
91186SOL    HW275456   4.651   7.766  11.482
91187SOL     OW75457   5.111  10.634  13.222
91187SOL    HW175458   5.140  10.550  13.186
91187SOL    HW275459   5.043  10.610  13.285
91188SOL     OW75460   7.952  12.556   0.197
91188SOL    HW175461   7.948  12.614   0.273
91188SOL    HW275462   7.895  12.483   0.220
91189SOL     OW75463  13.315  14.203   7.542
91189SOL    HW175464  13.385  14.140   7.530
91189SOL    HW275465  13.326  14.235   7.632
91190SOL     OW75466   4.769   4.924   4.663
91190SOL    HW175467   4.744   4.840   4.624
91190SOL    HW275468   4.688   4.975   4.662
91191SOL     OW75469   1.874   9.659   8.617
91191SOL    HW175470   1.841   9.581   8.571
91191SOL    HW275471   1.798   9.692   8.665
91192SOL     OW75472   7.919  13.242  14.848
91192SOL    HW175473   7.995  13.248  14.791
91192SOL    HW275474   7.953  13.211   0.054
91193SOL     OW75475   9.778   8.253  10.048
91193SOL    HW175476   9.747   8.164  10.067
91193SOL    HW275477   9.823   8.280  10.128
91194SOL     OW75478   8.618   4.639  10.791
91194SOL    HW175479   8.657   4.679  10.714
91194SOL    HW275480   8.669   4.560  10.806
91195SOL     OW75481  12.541  13.098   2.766
91195SOL    HW175482  12.597  13.080   2.842
91195SOL    HW275483  12.565  13.187   2.739
91196SOL     OW75484  14.818   9.767   0.973
91196SOL    HW175485  14.784   9.739   0.888
91196SOL    HW275486  14.858   9.688   1.009
91197SOL     OW75487   5.084   0.740   2.250
91197SOL    HW175488   5.068   0.832   2.271
91197SOL    HW275489   5.081   0.737   2.154
91198SOL     OW75490  11.273   5.180  14.034
91198SOL    HW175491  11.201   5.145  13.981
91198SOL    HW275492  11.246   5.269  14.056
91199SOL     OW75493   3.852  13.589   2.573
91199SOL    HW175494   3.814  13.502   2.562
91199SOL    HW275495   3.935  13.574   2.618
91200SOL     OW75496   4.871  12.395   1.279
91200SOL    HW175497   4.827  12.431   1.203
91200SOL    HW275498   4.802  12.350   1.328
91201SOL     OW75499   7.303  11.522  13.004
91201SOL    HW175500   7.237  11.487  13.064
91201SOL    HW275501   7.329  11.605  13.043
91202SOL     OW75502   8.917   7.720  12.709
91202SOL    HW175503   9.005   7.741  12.679
91202SOL    HW275504   8.878   7.804  12.733
91203SOL     OW75505   8.873  10.345   8.523
91203SOL    HW175506   8.866  10.378   8.433
91203SOL    HW275507   8.792  10.374   8.564
91204SOL     OW75508   9.353   8.341  12.869
91204SOL    HW175509   9.290   8.270  12.881
91204SOL    HW275510   9.326   8.408  12.932
91205SOL     OW75511   8.208   6.059  10.123
91205SOL    HW175512   8.172   6.060  10.211
91205SOL    HW275513   8.224   5.966  10.105
91206SOL     OW75514   0.616   5.240   5.275
91206SOL    HW175515   0.602   5.330   5.247
91206SOL    HW275516   0.707   5.237   5.303
91207SOL     OW75517   6.431   4.517  12.977
91207SOL    HW175518   6.379   4.589  13.013
91207SOL    HW275519   6.367   4.462  12.932
91208SOL     OW75520   2.088   4.420  14.347
91208SOL    HW175521   2.094   4.348  14.410
91208SOL    HW275522   2.105   4.378  14.262
91209SOL     OW75523   4.892   8.031  13.589
91209SOL    HW175524   4.864   8.015  13.499
91209SOL    HW275525   4.891   8.126  13.598
91210SOL     OW75526   2.368   1.371   3.561
91210SOL    HW175527   2.314   1.297   3.532
91210SOL    HW275528   2.342   1.443   3.504
91211SOL     OW75529  10.824  14.556   7.300
91211SOL    HW175530  10.917  14.541   7.314
91211SOL    HW275531  10.788  14.468   7.285
91212SOL     OW75532   9.385   4.293  13.292
91212SOL    HW175533   9.377   4.315  13.385
91212SOL    HW275534   9.303   4.325  13.253
91213SOL     OW75535  13.220  13.339   2.258
91213SOL    HW175536  13.181  13.269   2.309
91213SOL    HW275537  13.206  13.418   2.311
91214SOL     OW75538   6.307   0.188   3.147
91214SOL    HW175539   6.390   0.226   3.116
91214SOL    HW275540   6.313   0.191   3.242
91215SOL     OW75541  11.467  12.564   2.851
91215SOL    HW175542  11.543  12.520   2.888
91215SOL    HW275543  11.443  12.630   2.916
91216SOL     OW75544   5.172   2.886  11.670
91216SOL    HW175545   5.083   2.872  11.636
91216SOL    HW275546   5.201   2.967  11.629
91217SOL     OW75547   8.111  11.302   5.452
91217SOL    HW175548   8.082  11.393   5.460
91217SOL    HW275549   8.045  11.251   5.498
91218SOL     OW75550  11.299  11.266   8.442
91218SOL    HW175551  11.207  11.246   8.424
91218SOL    HW275552  11.344  11.182   8.431
91219SOL     OW75553  14.710   0.920  14.453
91219SOL    HW175554  14.709   0.992  14.390
91219SOL    HW275555  14.698   0.842  14.398
91220SOL     OW75556   4.568   1.387   7.385
91220SOL    HW175557   4.505   1.323   7.419
91220SOL    HW275558   4.560   1.380   7.290
91221SOL     OW75559   1.622   9.336  11.131
91221SOL    HW175560   1.622   9.431  11.128
91221SOL    HW275561   1.600   9.314  11.222
91222SOL     OW75562   1.641   5.130   9.603
91222SOL    HW175563   1.715   5.071   9.588
91222SOL    HW275564   1.586   5.083   9.665
91223SOL     OW75565  12.943  13.308  14.124
91223SOL    HW175566  12.908  13.222  14.102
91223SOL    HW275567  13.017  13.290  14.181
91224SOL     OW75568  13.362   7.899  14.794
91224SOL    HW175569  13.300   7.860  14.855
91224SOL    HW275570  13.420   7.951  14.849
91225SOL     OW75571   3.002   3.030   7.121
91225SOL    HW175572   2.986   3.115   7.082
91225SOL    HW275573   2.993   2.968   7.048
91226SOL     OW75574   4.928  14.749  11.359
91226SOL    HW175575   4.979  14.678  11.320
91226SOL    HW275576   4.912  14.810  11.287
91227SOL     OW75577   2.014   1.909  14.437
91227SOL    HW175578   2.016   1.814  14.449
91227SOL    HW275579   1.952   1.923  14.365
91228SOL     OW75580   5.147   9.323   5.785
91228SOL    HW175581   5.142   9.228   5.778
91228SOL    HW275582   5.218   9.348   5.725
91229SOL     OW75583   1.741   7.723  10.242
91229SOL    HW175584   1.774   7.749  10.328
91229SOL    HW275585   1.806   7.662  10.209
91230SOL     OW75586  13.291   9.411   8.073
91230SOL    HW175587  13.381   9.395   8.101
91230SOL    HW275588  13.277   9.348   8.002
91231SOL     OW75589  12.945   0.099   1.332
91231SOL    HW175590  12.872   0.118   1.272
91231SOL    HW275591  13.020   0.143   1.291
91232SOL     OW75592   7.226   9.114   2.470
91232SOL    HW175593   7.321   9.108   2.477
91232SOL    HW275594   7.196   9.122   2.561
91233SOL     OW75595   6.189  13.981  10.663
91233SOL    HW175596   6.195  14.058  10.720
91233SOL    HW275597   6.280  13.953  10.652
91234SOL     OW75598  11.132   1.272   2.014
91234SOL    HW175599  11.076   1.197   2.036
91234SOL    HW275600  11.219   1.234   2.005
91235SOL     OW75601  14.687   7.588  12.805
91235SOL    HW175602  14.681   7.558  12.714
91235SOL    HW275603  14.776   7.623  12.813
91236SOL     OW75604  13.171   7.732   2.999
91236SOL    HW175605  13.108   7.677   2.953
91236SOL    HW275606  13.216   7.780   2.930
91237SOL     OW75607   2.683   2.212   5.873
91237SOL    HW175608   2.611   2.274   5.862
91237SOL    HW275609   2.761   2.262   5.849
91238SOL     OW75610   4.176  13.912   7.241
91238SOL    HW175611   4.131  13.947   7.164
91238SOL    HW275612   4.268  13.936   7.228
91239SOL     OW75613   4.623  11.281  10.243
91239SOL    HW175614   4.685  11.241  10.182
91239SOL    HW275615   4.538  11.248  10.215
91240SOL     OW75616   4.889   0.059   2.542
91240SOL    HW175617   4.922   0.124   2.480
91240SOL    HW275618   4.834   0.001   2.490
91241SOL     OW75619  11.269   3.926  13.190
91241SOL    HW175620  11.356   3.954  13.218
91241SOL    HW275621  11.246   3.856  13.250
91242SOL     OW75622  14.616   6.470   0.232
91242SOL    HW175623  14.535   6.516   0.250
91242SOL    HW275624  14.589   6.382   0.204
91243SOL     OW75625  13.657  11.186   1.384
91243SOL    HW175626  13.694  11.147   1.305
91243SOL    HW275627  13.567  11.154   1.387
91244SOL     OW75628   4.679   1.907  12.142
91244SOL    HW175629   4.615   1.973  12.116
91244SOL    HW275630   4.744   1.907  12.073
91245SOL     OW75631  13.362   9.676   2.550
91245SOL    HW175632  13.323   9.632   2.625
91245SOL    HW275633  13.440   9.719   2.585
91246SOL     OW75634   1.393   4.493   9.448
91246SOL    HW175635   1.404   4.575   9.401
91246SOL    HW275636   1.465   4.490   9.510
91247SOL     OW75637   3.286   8.362   1.090
91247SOL    HW175638   3.264   8.433   1.151
91247SOL    HW275639   3.291   8.405   1.005
91248SOL     OW75640   8.011  13.042  13.293
91248SOL    HW175641   8.045  12.989  13.220
91248SOL    HW275642   8.028  12.989  13.371
91249SOL     OW75643   5.641   9.712   3.271
91249SOL    HW175644   5.586   9.785   3.241
91249SOL    HW275645   5.581   9.654   3.317
91250SOL     OW75646   9.343  12.334  12.926
91250SOL    HW175647   9.404  12.284  12.872
91250SOL    HW275648   9.279  12.369  12.864
91251SOL     OW75649   6.328   8.859   5.662
91251SOL    HW175650   6.250   8.894   5.620
91251SOL    HW275651   6.319   8.764   5.654
91252SOL     OW75652   4.900  14.497  10.978
91252SOL    HW175653   4.978  14.546  10.953
91252SOL    HW275654   4.840  14.563  11.013
91253SOL     OW75655   4.981   4.675  13.688
91253SOL    HW175656   5.049   4.740  13.709
91253SOL    HW275657   4.904   4.706  13.735
91254SOL     OW75658   9.531  10.583  12.038
91254SOL    HW175659   9.464  10.650  12.022
91254SOL    HW275660   9.556  10.598  12.129
91255SOL     OW75661   9.843   4.928   6.077
91255SOL    HW175662   9.905   4.996   6.104
91255SOL    HW275663   9.771   4.935   6.140
91256SOL     OW75664   0.382  12.581  11.621
91256SOL    HW175665   0.404  12.500  11.574
91256SOL    HW275666   0.323  12.553  11.691
91257SOL     OW75667  14.378   9.496   0.859
91257SOL    HW175668  14.465   9.481   0.822
91257SOL    HW275669  14.318   9.447   0.802
91258SOL     OW75670  10.957   4.912  11.206
91258SOL    HW175671  10.878   4.965  11.218
91258SOL    HW275672  11.006   4.923  11.288
91259SOL     OW75673   5.893  13.624  12.433
91259SOL    HW175674   5.830  13.566  12.475
91259SOL    HW275675   5.841  13.698  12.401
91260SOL     OW75676  12.784   6.726   6.140
91260SOL    HW175677  12.722   6.760   6.075
91260SOL    HW275678  12.761   6.634   6.150
91261SOL     OW75679  13.152  14.763   2.791
91261SOL    HW175680  13.121  14.854   2.799
91261SOL    HW275681  13.162  14.733   2.881
91262SOL     OW75682   5.363   2.347  10.197
91262SOL    HW175683   5.366   2.337  10.102
91262SOL    HW275684   5.436   2.295  10.230
91263SOL     OW75685   8.253   1.405   4.447
91263SOL    HW175686   8.179   1.356   4.484
91263SOL    HW275687   8.300   1.439   4.523
91264SOL     OW75688  10.020   4.918   6.544
91264SOL    HW175689  10.101   4.968   6.536
91264SOL    HW275690   9.950   4.983   6.539
91265SOL     OW75691  13.358   6.178   6.374
91265SOL    HW175692  13.413   6.224   6.438
91265SOL    HW275693  13.318   6.106   6.424
91266SOL     OW75694   4.352   4.390  10.397
91266SOL    HW175695   4.377   4.479  10.375
91266SOL    HW275696   4.402   4.335  10.336
91267SOL     OW75697   2.643   9.206   5.564
91267SOL    HW175698   2.638   9.118   5.527
91267SOL    HW275699   2.657   9.264   5.489
91268SOL     OW75700   0.270   0.974   1.865
91268SOL    HW175701   0.267   0.930   1.949
91268SOL    HW275702   0.202   1.042   1.871
91269SOL     OW75703   3.876   7.853  12.818
91269SOL    HW175704   3.848   7.915  12.886
91269SOL    HW275705   3.972   7.854  12.824
91270SOL     OW75706  13.007   2.504   1.904
91270SOL    HW175707  13.028   2.418   1.867
91270SOL    HW275708  12.924   2.528   1.862
91271SOL     OW75709   4.392   5.817   2.976
91271SOL    HW175710   4.424   5.794   3.063
91271SOL    HW275711   4.414   5.742   2.922
91272SOL     OW75712  11.568   0.655  12.088
91272SOL    HW175713  11.482   0.695  12.076
91272SOL    HW275714  11.602   0.641  12.000
91273SOL     OW75715   0.484   1.341   4.198
91273SOL    HW175716   0.537   1.262   4.203
91273SOL    HW275717   0.545   1.412   4.217
91274SOL     OW75718  11.801   5.257   7.123
91274SOL    HW175719  11.874   5.263   7.185
91274SOL    HW275720  11.770   5.167   7.131
91275SOL     OW75721   6.156  11.357   4.350
91275SOL    HW175722   6.209  11.384   4.275
91275SOL    HW275723   6.183  11.266   4.366
91276SOL     OW75724   7.969   2.850   9.204
91276SOL    HW175725   7.950   2.781   9.267
91276SOL    HW275726   7.953   2.932   9.251
91277SOL     OW75727   7.559   7.628   6.270
91277SOL    HW175728   7.637   7.585   6.235
91277SOL    HW275729   7.571   7.627   6.365
91278SOL     OW75730  12.411   7.282   7.990
91278SOL    HW175731  12.447   7.370   7.977
91278SOL    HW275732  12.348   7.291   8.061
91279SOL     OW75733   1.095  11.099   8.397
91279SOL    HW175734   1.003  11.128   8.400
91279SOL    HW275735   1.094  11.013   8.438
91280SOL     OW75736  12.198   2.876  10.785
91280SOL    HW175737  12.106   2.850  10.786
91280SOL    HW275738  12.243   2.804  10.742
91281SOL     OW75739   5.016   2.990  10.602
91281SOL    HW175740   4.986   2.910  10.559
91281SOL    HW275741   5.050   2.961  10.687
91282SOL     OW75742  10.898  10.518   6.987
91282SOL    HW175743  10.875  10.433   6.949
91282SOL    HW275744  10.960  10.557   6.925
91283SOL     OW75745  12.247   5.720  12.857
91283SOL    HW175746  12.176   5.659  12.875
91283SOL    HW275747  12.285   5.739  12.943
91284SOL     OW75748  13.300  11.256   4.532
91284SOL    HW175749  13.349  11.202   4.593
91284SOL    HW275750  13.280  11.336   4.581
91285SOL     OW75751   0.150  10.138  14.290
91285SOL    HW175752   0.168  10.063  14.347
91285SOL    HW275753   0.232  10.187  14.288
91286SOL     OW75754   3.380   8.231   6.429
91286SOL    HW175755   3.472   8.253   6.440
91286SOL    HW275756   3.354   8.279   6.350
91287SOL     OW75757  10.383   2.872  12.314
91287SOL    HW175758  10.350   2.944  12.261
91287SOL    HW275759  10.458   2.909  12.361
91288SOL     OW75760   9.107   0.049   9.791
91288SOL    HW175761   9.044   0.020   9.857
91288SOL    HW275762   9.136   0.135   9.822
91289SOL     OW75763   7.154   5.987   3.077
91289SOL    HW175764   7.112   5.936   3.007
91289SOL    HW275765   7.085   6.004   3.140
91290SOL     OW75766   8.054   6.330   6.619
91290SOL    HW175767   8.103   6.327   6.537
91290SOL    HW275768   7.969   6.366   6.595
91291SOL     OW75769   6.752   7.896   0.184
91291SOL    HW175770   6.826   7.871   0.239
91291SOL    HW275771   6.675   7.887   0.241
91292SOL     OW75772   9.362   8.704   6.740
91292SOL    HW175773   9.347   8.612   6.718
91292SOL    HW275774   9.331   8.752   6.663
91293SOL     OW75775   8.535  14.694  10.402
91293SOL    HW175776   8.547  14.665  10.492
91293SOL    HW275777   8.515  14.787  10.409
91294SOL     OW75778   3.978   6.727  10.067
91294SOL    HW175779   3.905   6.728  10.006
91294SOL    HW275780   4.014   6.816  10.063
91295SOL     OW75781   6.386   4.253  12.247
91295SOL    HW175782   6.452   4.262  12.178
91295SOL    HW275783   6.354   4.342  12.261
91296SOL     OW75784  10.354   0.672   7.550
91296SOL    HW175785  10.302   0.602   7.511
91296SOL    HW275786  10.290   0.739   7.573
91297SOL     OW75787  10.057   1.998   7.266
91297SOL    HW175788  10.127   2.063   7.272
91297SOL    HW275789   9.996   2.022   7.336
91298SOL     OW75790  12.103  10.138   7.367
91298SOL    HW175791  12.194  10.140   7.397
91298SOL    HW275792  12.061  10.072   7.423
91299SOL     OW75793   7.439   1.135   4.371
91299SOL    HW175794   7.402   1.114   4.456
91299SOL    HW275795   7.529   1.162   4.390
91300SOL     OW75796  14.006   3.843   8.442
91300SOL    HW175797  14.050   3.927   8.451
91300SOL    HW275798  13.913   3.862   8.457
91301SOL     OW75799   8.747  11.629   4.335
91301SOL    HW175800   8.825  11.676   4.306
91301SOL    HW275801   8.679  11.697   4.339
91302SOL     OW75802   5.863   3.700  12.709
91302SOL    HW175803   5.821   3.764  12.766
91302SOL    HW275804   5.809   3.699  12.630
91303SOL     OW75805   7.551   2.153  14.815
91303SOL    HW175806   7.569   2.077  14.871
91303SOL    HW275807   7.471   2.128  14.768
91304SOL     OW75808   6.300  14.476   3.143
91304SOL    HW175809   6.234  14.407   3.141
91304SOL    HW275810   6.257  14.552   3.104
91305SOL     OW75811   7.245   0.440   5.429
91305SOL    HW175812   7.184   0.484   5.370
91305SOL    HW275813   7.307   0.508   5.455
91306SOL     OW75814  12.104   6.167   5.014
91306SOL    HW175815  12.110   6.252   5.058
91306SOL    HW275816  12.011   6.155   4.997
91307SOL     OW75817   3.510   7.513   5.813
91307SOL    HW175818   3.517   7.608   5.809
91307SOL    HW275819   3.588   7.482   5.767
91308SOL     OW75820  13.666  10.351   3.664
91308SOL    HW175821  13.720  10.421   3.628
91308SOL    HW275822  13.683  10.353   3.758
91309SOL     OW75823  10.821   9.834   7.575
91309SOL    HW175824  10.755   9.769   7.597
91309SOL    HW275825  10.904   9.792   7.597
91310SOL     OW75826   1.866   7.647   1.028
91310SOL    HW175827   1.888   7.569   1.079
91310SOL    HW275828   1.805   7.696   1.083
91311SOL     OW75829  13.193   2.798   1.827
91311SOL    HW175830  13.124   2.732   1.825
91311SOL    HW275831  13.201   2.827   1.736
91312SOL     OW75832   5.855   0.062  10.938
91312SOL    HW175833   5.889  14.864  10.987
91312SOL    HW275834   5.864   0.136  10.998
91313SOL     OW75835   8.557   9.769   0.245
91313SOL    HW175836   8.568   9.676   0.228
91313SOL    HW275837   8.566   9.778   0.339
91314SOL     OW75838   7.836   0.855   0.929
91314SOL    HW175839   7.842   0.925   0.994
91314SOL    HW275840   7.809   0.778   0.979
91315SOL     OW75841   5.226  10.393   5.679
91315SOL    HW175842   5.249  10.409   5.771
91315SOL    HW275843   5.219  10.298   5.673
91316SOL     OW75844   8.415   9.356   8.343
91316SOL    HW175845   8.417   9.412   8.266
91316SOL    HW275846   8.501   9.367   8.384
91317SOL     OW75847  14.859   0.147   6.312
91317SOL    HW175848   0.077   0.144   6.302
91317SOL    HW275849  14.836   0.060   6.344
91318SOL     OW75850   8.134  13.909   1.539
91318SOL    HW175851   8.097  13.866   1.462
91318SOL    HW275852   8.095  13.997   1.539
91319SOL     OW75853   1.003   8.133   9.758
91319SOL    HW175854   0.915   8.145   9.723
91319SOL    HW275855   0.991   8.085   9.840
91320SOL     OW75856  13.088   8.154   6.954
91320SOL    HW175857  13.021   8.131   6.889
91320SOL    HW275858  13.134   8.072   6.971
91321SOL     OW75859  12.455   6.140  14.313
91321SOL    HW175860  12.422   6.054  14.339
91321SOL    HW275861  12.504   6.171  14.389
91322SOL     OW75862   5.300  12.053  11.805
91322SOL    HW175863   5.324  11.961  11.809
91322SOL    HW275864   5.249  12.062  11.725
91323SOL     OW75865  10.362  14.455  12.663
91323SOL    HW175866  10.287  14.397  12.670
91323SOL    HW275867  10.328  14.542  12.687
91324SOL     OW75868   5.734   8.560   1.683
91324SOL    HW175869   5.783   8.483   1.710
91324SOL    HW275870   5.782   8.595   1.608
91325SOL     OW75871  13.681  12.435   6.520
91325SOL    HW175872  13.656  12.490   6.594
91325SOL    HW275873  13.633  12.353   6.534
91326SOL     OW75874   7.772   7.205   2.910
91326SOL    HW175875   7.821   7.271   2.861
91326SOL    HW275876   7.680   7.228   2.895
91327SOL     OW75877   3.214   6.135   7.062
91327SOL    HW175878   3.235   6.211   7.008
91327SOL    HW275879   3.295   6.085   7.066
91328SOL     OW75880   3.943   7.230  14.584
91328SOL    HW175881   3.863   7.223  14.531
91328SOL    HW275882   3.921   7.185  14.666
91329SOL     OW75883  14.829   3.521   5.793
91329SOL    HW175884  14.759   3.499   5.855
91329SOL    HW275885  14.858   3.608   5.821
91330SOL     OW75886   9.103   1.773  13.886
91330SOL    HW175887   9.106   1.679  13.867
91330SOL    HW275888   9.082   1.813  13.802
91331SOL     OW75889   2.630  12.431   6.157
91331SOL    HW175890   2.668  12.444   6.244
91331SOL    HW275891   2.623  12.336   6.148
91332SOL     OW75892  11.722  13.216   6.842
91332SOL    HW175893  11.672  13.212   6.761
91332SOL    HW275894  11.755  13.306   6.846
91333SOL     OW75895   7.860   0.383   4.558
91333SOL    HW175896   7.927   0.452   4.556
91333SOL    HW275897   7.814   0.398   4.641
91334SOL     OW75898   9.112   7.271  10.485
91334SOL    HW175899   9.049   7.257  10.555
91334SOL    HW275900   9.182   7.207  10.502
91335SOL     OW75901  14.019  11.241   7.187
91335SOL    HW175902  14.076  11.186   7.240
91335SOL    HW275903  14.001  11.188   7.109
91336SOL     OW75904   6.620   6.043  14.455
91336SOL    HW175905   6.635   6.110  14.522
91336SOL    HW275906   6.706   6.029  14.416
91337SOL     OW75907   8.459   2.804   3.983
91337SOL    HW175908   8.524   2.873   3.992
91337SOL    HW275909   8.401   2.834   3.913
91338SOL     OW75910  11.064  14.099  10.192
91338SOL    HW175911  11.085  14.083  10.100
91338SOL    HW275912  10.996  14.166  10.190
91339SOL     OW75913  10.181   3.961   9.834
91339SOL    HW175914  10.215   3.986   9.920
91339SOL    HW275915  10.146   4.043   9.798
91340SOL     OW75916  10.221   0.605   2.034
91340SOL    HW175917  10.165   0.682   2.042
91340SOL    HW275918  10.163   0.532   2.055
91341SOL     OW75919  11.639   3.501   9.520
91341SOL    HW175920  11.605   3.515   9.432
91341SOL    HW275921  11.593   3.565   9.574
91342SOL     OW75922   5.171   9.972  10.201
91342SOL    HW175923   5.091   9.922  10.216
91342SOL    HW275924   5.201   9.944  10.114
91343SOL     OW75925  12.226   6.940   5.850
91343SOL    HW175926  12.237   6.918   5.757
91343SOL    HW275927  12.223   6.856   5.895
91344SOL     OW75928  12.748   3.607   2.973
91344SOL    HW175929  12.709   3.529   3.013
91344SOL    HW275930  12.800   3.574   2.901
91345SOL     OW75931   4.841   4.331   8.180
91345SOL    HW175932   4.832   4.404   8.119
91345SOL    HW275933   4.935   4.327   8.198
91346SOL     OW75934   4.079   2.807   6.826
91346SOL    HW175935   4.147   2.751   6.865
91346SOL    HW275936   4.043   2.855   6.900
91347SOL     OW75937  10.527   9.750   0.084
91347SOL    HW175938  10.466   9.773   0.014
91347SOL    HW275939  10.530   9.828   0.139
91348SOL     OW75940  12.814   9.644   4.204
91348SOL    HW175941  12.741   9.590   4.234
91348SOL    HW275942  12.857   9.673   4.285
91349SOL     OW75943  10.195   7.557   9.527
91349SOL    HW175944  10.141   7.619   9.575
91349SOL    HW275945  10.144   7.475   9.529
91350SOL     OW75946  12.974   5.719  10.319
91350SOL    HW175947  12.943   5.803  10.351
91350SOL    HW275948  12.930   5.707  10.235
91351SOL     OW75949   9.401  11.454   5.481
91351SOL    HW175950   9.447  11.376   5.513
91351SOL    HW275951   9.318  11.454   5.528
91352SOL     OW75952   9.452   9.849  13.032
91352SOL    HW175953   9.519   9.873  13.097
91352SOL    HW275954   9.493   9.780  12.979
91353SOL     OW75955   1.856   2.530   0.192
91353SOL    HW175956   1.916   2.604   0.192
91353SOL    HW275957   1.776   2.563   0.151
91354SOL     OW75958   8.239  12.684   8.975
91354SOL    HW175959   8.158  12.663   9.023
91354SOL    HW275960   8.274  12.598   8.949
91355SOL     OW75961  14.669  10.998  13.271
91355SOL    HW175962  14.686  10.954  13.355
91355SOL    HW275963  14.678  11.091  13.292
91356SOL     OW75964   8.797   0.154   1.954
91356SOL    HW175965   8.803   0.110   2.039
91356SOL    HW275966   8.726   0.217   1.965
91357SOL     OW75967  10.951   8.748  13.682
91357SOL    HW175968  11.043   8.772  13.682
91357SOL    HW275969  10.926   8.750  13.775
91358SOL     OW75970   2.153   5.310  13.569
91358SOL    HW175971   2.135   5.218  13.549
91358SOL    HW275972   2.133   5.357  13.487
91359SOL     OW75973   3.910   0.810  11.785
91359SOL    HW175974   3.940   0.900  11.773
91359SOL    HW275975   3.990   0.757  11.781
91360SOL     OW75976   2.862   2.432   7.325
91360SOL    HW175977   2.783   2.380   7.338
91360SOL    HW275978   2.920   2.377   7.272
91361SOL     OW75979   2.362   8.489   1.042
91361SOL    HW175980   2.339   8.473   1.134
91361SOL    HW275981   2.371   8.402   1.004
91362SOL     OW75982   5.930   6.150   6.837
91362SOL    HW175983   6.021   6.127   6.855
91362SOL    HW275984   5.935   6.237   6.797
91363SOL     OW75985  12.066   1.631   6.446
91363SOL    HW175986  12.127   1.671   6.508
91363SOL    HW275987  12.122   1.580   6.387
91364SOL     OW75988  12.888  14.155   1.166
91364SOL    HW175989  12.828  14.196   1.105
91364SOL    HW275990  12.835  14.136   1.244
91365SOL     OW75991  11.957   4.375   8.024
91365SOL    HW175992  12.014   4.389   8.100
91365SOL    HW275993  11.962   4.281   8.007
91366SOL     OW75994  12.845   8.702  11.122
91366SOL    HW175995  12.923   8.740  11.162
91366SOL    HW275996  12.838   8.615  11.162
91367SOL     OW75997   0.517  11.252   0.269
91367SOL    HW175998   0.525  11.170   0.317
91367SOL    HW275999   0.533  11.320   0.334
91368SOL     OW76000   4.350   3.974  11.990
91368SOL    HW176001   4.331   3.981  12.084
91368SOL    HW276002   4.304   4.049  11.951
91369SOL     OW76003   4.035  12.014   3.910
91369SOL    HW176004   3.954  12.055   3.938
91369SOL    HW276005   4.013  11.921   3.902
91370SOL     OW76006   3.668  14.088   2.324
91370SOL    HW176007   3.678  14.183   2.317
91370SOL    HW276008   3.602  14.065   2.259
91371SOL     OW76009   6.126   0.104   6.210
91371SOL    HW176010   6.047   0.063   6.175
91371SOL    HW276011   6.194   0.081   6.148
91372SOL     OW76012   5.238   2.747   5.421
91372SOL    HW176013   5.165   2.709   5.373
91372SOL    HW276014   5.252   2.688   5.495
91373SOL     OW76015  14.405   7.930   8.469
91373SOL    HW176016  14.383   8.023   8.467
91373SOL    HW276017  14.325   7.886   8.495
91374SOL     OW76018   8.239   7.306   8.760
91374SOL    HW176019   8.155   7.296   8.805
91374SOL    HW276020   8.297   7.344   8.826
91375SOL     OW76021   7.640   4.152   9.157
91375SOL    HW176022   7.585   4.229   9.140
91375SOL    HW276023   7.644   4.147   9.253
91376SOL     OW76024   4.892   7.492  11.815
91376SOL    HW176025   4.937   7.541  11.884
91376SOL    HW276026   4.808   7.469  11.855
91377SOL     OW76027  13.565   6.890   4.831
91377SOL    HW176028  13.622   6.909   4.756
91377SOL    HW276029  13.488   6.848   4.792
91378SOL     OW76030   8.316  13.625   8.902
91378SOL    HW176031   8.271  13.549   8.864
91378SOL    HW276032   8.328  13.685   8.828
91379SOL     OW76033   0.480  11.501   9.038
91379SOL    HW176034   0.563  11.455   9.052
91379SOL    HW276035   0.417  11.431   9.021
91380SOL     OW76036   1.068  12.788  12.524
91380SOL    HW176037   1.095  12.866  12.475
91380SOL    HW276038   0.982  12.766  12.489
91381SOL     OW76039   4.818   9.621   0.416
91381SOL    HW176040   4.830   9.540   0.366
91381SOL    HW276041   4.741   9.603   0.471
91382SOL     OW76042   8.744   4.036   5.202
91382SOL    HW176043   8.810   3.979   5.241
91382SOL    HW276044   8.795   4.109   5.164
91383SOL     OW76045  12.665  13.976  13.587
91383SOL    HW176046  12.708  13.898  13.622
91383SOL    HW276047  12.700  14.048  13.640
91384SOL     OW76048   6.127  13.274   3.628
91384SOL    HW176049   6.208  13.247   3.672
91384SOL    HW276050   6.111  13.205   3.564
91385SOL     OW76051   0.731   7.391   9.260
91385SOL    HW176052   0.657   7.369   9.316
91385SOL    HW276053   0.744   7.485   9.274
91386SOL     OW76054   8.186   1.969  11.582
91386SOL    HW176055   8.154   2.042  11.529
91386SOL    HW276056   8.248   1.923  11.524
91387SOL     OW76057   3.913  14.780   6.420
91387SOL    HW176058   3.911  14.770   6.325
91387SOL    HW276059   3.888  14.693   6.454
91388SOL     OW76060  13.790   0.222  11.457
91388SOL    HW176061  13.714   0.180  11.497
91388SOL    HW276062  13.825   0.156  11.397
91389SOL     OW76063  12.094   8.300   6.034
91389SOL    HW176064  12.174   8.311   6.085
91389SOL    HW276065  12.108   8.221   5.983
91390SOL     OW76066  10.054   1.084   1.477
91390SOL    HW176067  10.055   1.031   1.557
91390SOL    HW276068  10.143   1.074   1.441
91391SOL     OW76069   1.270  12.773   9.561
91391SOL    HW176070   1.217  12.842   9.521
91391SOL    HW276071   1.361  12.799   9.543
91392SOL     OW76072   1.314  13.336  11.226
91392SOL    HW176073   1.381  13.403  11.212
91392SOL    HW276074   1.235  13.386  11.247
91393SOL     OW76075   0.419   6.550   2.144
91393SOL    HW176076   0.367   6.573   2.068
91393SOL    HW276077   0.354   6.533   2.213
91394SOL     OW76078   4.240  13.632   4.520
91394SOL    HW176079   4.317  13.685   4.500
91394SOL    HW276080   4.260  13.546   4.484
91395SOL     OW76081   7.770  14.632   3.980
91395SOL    HW176082   7.706  14.578   4.027
91395SOL    HW276083   7.789  14.583   3.900
91396SOL     OW76084   8.356   9.178   9.382
91396SOL    HW176085   8.343   9.196   9.475
91396SOL    HW276086   8.427   9.237   9.356
91397SOL     OW76087   2.263  10.605   1.211
91397SOL    HW176088   2.291  10.545   1.142
91397SOL    HW276089   2.338  10.611   1.270
91398SOL     OW76090   3.382   9.399   6.753
91398SOL    HW176091   3.439   9.375   6.826
91398SOL    HW276092   3.383   9.495   6.751
91399SOL     OW76093   4.342   5.122   4.851
91399SOL    HW176094   4.414   5.070   4.886
91399SOL    HW276095   4.319   5.079   4.769
91400SOL     OW76096   7.036   2.495   0.735
91400SOL    HW176097   7.088   2.570   0.707
91400SOL    HW276098   7.100   2.432   0.768
91401SOL     OW76099   8.069  13.849   0.828
91401SOL    HW176100   8.031  13.820   0.745
91401SOL    HW276101   8.004  13.826   0.894
91402SOL     OW76102   1.163   7.876   1.931
91402SOL    HW176103   1.122   7.841   1.851
91402SOL    HW276104   1.092   7.924   1.974
91403SOL     OW76105   9.637   4.646  11.009
91403SOL    HW176106   9.639   4.739  10.985
91403SOL    HW276107   9.695   4.639  11.085
91404SOL     OW76108   8.608  11.190  12.430
91404SOL    HW176109   8.574  11.235  12.352
91404SOL    HW276110   8.679  11.246  12.461
91405SOL     OW76111  14.833   2.214   1.692
91405SOL    HW176112  14.781   2.158   1.636
91405SOL    HW276113  14.785   2.297   1.694
91406SOL     OW76114   4.303   1.908   7.107
91406SOL    HW176115   4.219   1.943   7.077
91406SOL    HW276116   4.337   1.976   7.165
91407SOL     OW76117  10.405   0.504   5.553
91407SOL    HW176118  10.405   0.592   5.515
91407SOL    HW276119  10.378   0.447   5.481
91408SOL     OW76120   6.950  11.174  14.469
91408SOL    HW176121   6.969  11.110  14.400
91408SOL    HW276122   7.032  11.220  14.482
91409SOL     OW76123   7.290   5.122  12.412
91409SOL    HW176124   7.264   5.195  12.468
91409SOL    HW276125   7.299   5.160  12.325
91410SOL     OW76126   8.528   9.611   3.281
91410SOL    HW176127   8.569   9.688   3.320
91410SOL    HW276128   8.509   9.638   3.191
91411SOL     OW76129   6.418  11.807  14.333
91411SOL    HW176130   6.422  11.721  14.291
91411SOL    HW276131   6.344  11.851  14.291
91412SOL     OW76132   5.386   7.111   3.944
91412SOL    HW176133   5.366   7.049   4.015
91412SOL    HW276134   5.375   7.061   3.864
91413SOL     OW76135   6.914   1.003   8.883
91413SOL    HW176136   6.825   0.974   8.864
91413SOL    HW276137   6.922   0.997   8.978
91414SOL     OW76138   0.459  14.348  13.926
91414SOL    HW176139   0.380  14.293  13.926
91414SOL    HW276140   0.528  14.291  13.961
91415SOL     OW76141   8.201  10.805   7.226
91415SOL    HW176142   8.147  10.877   7.259
91415SOL    HW276143   8.213  10.747   7.301
91416SOL     OW76144   6.778  12.305  13.573
91416SOL    HW176145   6.830  12.270  13.500
91416SOL    HW276146   6.843  12.344  13.632
91417SOL     OW76147   5.319   8.382  12.985
91417SOL    HW176148   5.262   8.329  13.042
91417SOL    HW276149   5.346   8.322  12.916
91418SOL     OW76150   5.111   1.330   3.559
91418SOL    HW176151   5.028   1.340   3.606
91418SOL    HW276152   5.142   1.243   3.584
91419SOL     OW76153  11.013  13.303   7.296
91419SOL    HW176154  11.103  13.335   7.286
91419SOL    HW276155  11.023  13.213   7.330
91420SOL     OW76156   2.860  14.189  12.960
91420SOL    HW176157   2.887  14.112  13.009
91420SOL    HW276158   2.940  14.239  12.948
91421SOL     OW76159  11.455   0.593   9.717
91421SOL    HW176160  11.361   0.614   9.717
91421SOL    HW276161  11.475   0.576   9.625
91422SOL     OW76162  10.829   5.415   6.138
91422SOL    HW176163  10.761   5.353   6.164
91422SOL    HW276164  10.796   5.454   6.058
91423SOL     OW76165   8.280   6.629  11.525
91423SOL    HW176166   8.358   6.680  11.546
91423SOL    HW276167   8.213   6.662  11.585
91424SOL     OW76168   4.690  12.794   8.820
91424SOL    HW176169   4.687  12.699   8.831
91424SOL    HW276170   4.643  12.810   8.738
91425SOL     OW76171   7.751   0.881   1.534
91425SOL    HW176172   7.758   0.809   1.472
91425SOL    HW276173   7.779   0.844   1.618
91426SOL     OW76174  14.060  13.834   9.750
91426SOL    HW176175  14.011  13.758   9.718
91426SOL    HW276176  14.140  13.798   9.787
91427SOL     OW76177  12.486  10.718   6.440
91427SOL    HW176178  12.545  10.700   6.513
91427SOL    HW276179  12.541  10.710   6.362
91428SOL     OW76180   5.866   2.112   5.623
91428SOL    HW176181   5.952   2.104   5.664
91428SOL    HW276182   5.884   2.121   5.530
91429SOL     OW76183   9.876   6.033   2.322
91429SOL    HW176184   9.902   6.075   2.240
91429SOL    HW276185   9.958   6.004   2.361
91430SOL     OW76186   8.194  11.857   1.939
91430SOL    HW176187   8.109  11.813   1.939
91430SOL    HW276188   8.258  11.787   1.925
91431SOL     OW76189   5.805  11.372   7.751
91431SOL    HW176190   5.829  11.382   7.659
91431SOL    HW276191   5.886  11.390   7.799
91432SOL     OW76192   2.035   9.892   2.103
91432SOL    HW176193   1.944   9.862   2.104
91432SOL    HW276194   2.040   9.949   2.026
91433SOL     OW76195   4.566  13.242   1.620
91433SOL    HW176196   4.521  13.158   1.621
91433SOL    HW276197   4.501  13.304   1.587
91434SOL     OW76198   0.498  14.172  14.239
91434SOL    HW176199   0.593  14.179  14.251
91434SOL    HW276200   0.489  14.127  14.154
91435SOL     OW76201  13.286   4.353  10.452
91435SOL    HW176202  13.296   4.273  10.400
91435SOL    HW276203  13.210   4.337  10.508
91436SOL     OW76204   6.157   2.380   6.401
91436SOL    HW176205   6.241   2.355   6.439
91436SOL    HW276206   6.092   2.337   6.457
91437SOL     OW76207   4.838   9.388  13.294
91437SOL    HW176208   4.777   9.322  13.326
91437SOL    HW276209   4.909   9.389  13.358
91438SOL     OW76210   1.655  10.573   5.810
91438SOL    HW176211   1.602  10.609   5.881
91438SOL    HW276212   1.729  10.531   5.855
91439SOL     OW76213   1.096   0.124   0.567
91439SOL    HW176214   1.056   0.073   0.496
91439SOL    HW276215   1.136   0.058   0.624
91440SOL     OW76216  14.118   8.990   4.455
91440SOL    HW176217  14.133   8.911   4.402
91440SOL    HW276218  14.084   8.957   4.538
91441SOL     OW76219  11.750  11.107   3.923
91441SOL    HW176220  11.838  11.115   3.887
91441SOL    HW276221  11.703  11.183   3.890
91442SOL     OW76222   7.287   8.505   1.553
91442SOL    HW176223   7.381   8.519   1.543
91442SOL    HW276224   7.254   8.589   1.586
91443SOL     OW76225   1.393   0.647   1.052
91443SOL    HW176226   1.412   0.578   0.989
91443SOL    HW276227   1.320   0.613   1.104
91444SOL     OW76228  12.258   6.926  10.397
91444SOL    HW176229  12.275   6.868  10.471
91444SOL    HW276230  12.188   6.983  10.426
91445SOL     OW76231   7.381   2.897   1.993
91445SOL    HW176232   7.363   2.982   2.031
91445SOL    HW276233   7.365   2.909   1.899
91446SOL     OW76234   8.132  14.724   0.474
91446SOL    HW176235   8.156  14.735   0.566
91446SOL    HW276236   8.046  14.682   0.476
91447SOL     OW76237   6.062   3.368   2.344
91447SOL    HW176238   6.147   3.363   2.387
91447SOL    HW276239   5.999   3.349   2.414
91448SOL     OW76240   4.345   3.655   0.206
91448SOL    HW176241   4.283   3.687   0.140
91448SOL    HW276242   4.345   3.723   0.273
91449SOL     OW76243  12.741   2.540   4.960
91449SOL    HW176244  12.782   2.454   4.962
91449SOL    HW276245  12.652   2.525   4.990
91450SOL     OW76246  10.601   6.895   6.116
91450SOL    HW176247  10.557   6.810   6.113
91450SOL    HW276248  10.549   6.951   6.058
91451SOL     OW76249   3.280   3.896   2.958
91451SOL    HW176250   3.341   3.823   2.964
91451SOL    HW276251   3.233   3.881   2.876
91452SOL     OW76252  13.276   1.659   7.594
91452SOL    HW176253  13.207   1.597   7.616
91452SOL    HW276254  13.297   1.642   7.503
91453SOL     OW76255   1.517  11.401   1.311
91453SOL    HW176256   1.513  11.433   1.221
91453SOL    HW276257   1.610  11.400   1.332
91454SOL     OW76258  11.473   9.438   1.863
91454SOL    HW176259  11.491   9.352   1.824
91454SOL    HW276260  11.512   9.500   1.801
91455SOL     OW76261   7.039   4.297  11.059
91455SOL    HW176262   7.101   4.358  11.019
91455SOL    HW276263   7.025   4.230  10.992
91456SOL     OW76264   5.587   8.646  13.642
91456SOL    HW176265   5.663   8.588  13.639
91456SOL    HW276266   5.586   8.679  13.732
91457SOL     OW76267   9.752   6.014  14.873
91457SOL    HW176268   9.745   6.087  14.811
91457SOL    HW276269   9.846   6.010   0.016
91458SOL     OW76270  13.065   9.105  14.032
91458SOL    HW176271  13.032   9.042  13.967
91458SOL    HW276272  12.986   9.145  14.068
91459SOL     OW76273  10.878  14.292   7.872
91459SOL    HW176274  10.837  14.213   7.837
91459SOL    HW276275  10.943  14.316   7.805
91460SOL     OW76276  12.737   4.023   6.988
91460SOL    HW176277  12.738   4.061   6.901
91460SOL    HW276278  12.683   4.082   7.040
91461SOL     OW76279   9.532   5.511   9.943
91461SOL    HW176280   9.498   5.490  10.030
91461SOL    HW276281   9.456   5.504   9.885
91462SOL     OW76282   5.222   7.404   1.475
91462SOL    HW176283   5.186   7.367   1.555
91462SOL    HW276284   5.312   7.427   1.498
91463SOL     OW76285  12.079  10.121  14.454
91463SOL    HW176286  12.011  10.101  14.389
91463SOL    HW276287  12.033  10.124  14.537
91464SOL     OW76288   5.136   9.051   9.452
91464SOL    HW176289   5.103   9.039   9.541
91464SOL    HW276290   5.057   9.060   9.398
91465SOL     OW76291   9.336   9.640   9.398
91465SOL    HW176292   9.318   9.598   9.314
91465SOL    HW276293   9.425   9.612   9.420
91466SOL     OW76294  12.176   6.996  12.464
91466SOL    HW176295  12.227   7.017  12.386
91466SOL    HW276296  12.232   6.938  12.515
91467SOL     OW76297   0.007  10.807   8.229
91467SOL    HW176298   0.043  10.751   8.161
91467SOL    HW276299  14.854  10.885   8.183
91468SOL     OW76300   0.321  13.152   8.959
91468SOL    HW176301   0.328  13.233   9.009
91468SOL    HW276302   0.404  13.146   8.912
91469SOL     OW76303  13.380   4.638   7.855
91469SOL    HW176304  13.359   4.550   7.824
91469SOL    HW276305  13.321   4.653   7.928
91470SOL     OW76306   3.830  10.732   1.154
91470SOL    HW176307   3.802  10.710   1.243
91470SOL    HW276308   3.769  10.800   1.125
91471SOL     OW76309   5.580   3.195   9.031
91471SOL    HW176310   5.585   3.122   8.969
91471SOL    HW276311   5.576   3.152   9.117
91472SOL     OW76312   7.742  12.247   1.529
91472SOL    HW176313   7.697  12.293   1.600
91472SOL    HW276314   7.688  12.263   1.452
91473SOL     OW76315   6.571   9.678  11.666
91473SOL    HW176316   6.521   9.720  11.596
91473SOL    HW276317   6.519   9.692  11.745
91474SOL     OW76318   6.132  10.534   8.717
91474SOL    HW176319   6.186  10.456   8.703
91474SOL    HW276320   6.079  10.540   8.637
91475SOL     OW76321   0.484   2.936   4.451
91475SOL    HW176322   0.566   2.976   4.480
91475SOL    HW276323   0.447   2.897   4.530
91476SOL     OW76324  12.608  14.331   4.064
91476SOL    HW176325  12.655  14.248   4.056
91476SOL    HW276326  12.516  14.308   4.055
91477SOL     OW76327  10.560   3.731   4.916
91477SOL    HW176328  10.547   3.740   4.822
91477SOL    HW276329  10.497   3.791   4.955
91478SOL     OW76330   9.570   4.151   1.891
91478SOL    HW176331   9.662   4.166   1.871
91478SOL    HW276332   9.522   4.217   1.841
91479SOL     OW76333   2.428  10.937  14.796
91479SOL    HW176334   2.399  11.027  14.807
91479SOL    HW276335   2.472  10.916   0.001
91480SOL     OW76336  14.274   3.346  12.254
91480SOL    HW176337  14.237   3.310  12.335
91480SOL    HW276338  14.328   3.275  12.219
91481SOL     OW76339   7.526   1.450   5.769
91481SOL    HW176340   7.456   1.386   5.761
91481SOL    HW276341   7.493   1.515   5.831
91482SOL     OW76342  12.223   6.757  14.829
91482SOL    HW176343  12.143   6.712  14.799
91482SOL    HW276344  12.210   6.767   0.046
91483SOL     OW76345   0.921   0.619   0.534
91483SOL    HW176346   0.947   0.530   0.558
91483SOL    HW276347   0.852   0.640   0.596
91484SOL     OW76348   5.069   0.683   6.824
91484SOL    HW176349   4.984   0.727   6.817
91484SOL    HW276350   5.080   0.667   6.917
91485SOL     OW76351   7.388   3.033  10.755
91485SOL    HW176352   7.424   2.973  10.689
91485SOL    HW276353   7.460   3.045  10.817
91486SOL     OW76354  10.320   4.269   3.424
91486SOL    HW176355  10.314   4.255   3.518
91486SOL    HW276356  10.353   4.186   3.390
91487SOL     OW76357   8.279  13.255  10.522
91487SOL    HW176358   8.317  13.342  10.523
91487SOL    HW276359   8.354  13.196  10.520
91488SOL     OW76360   8.087  13.992  12.318
91488SOL    HW176361   8.024  13.962  12.383
91488SOL    HW276362   8.084  14.088  12.324
91489SOL     OW76363   6.266  13.338   8.519
91489SOL    HW176364   6.312  13.354   8.436
91489SOL    HW276365   6.303  13.257   8.552
91490SOL     OW76366   8.338   4.050   2.017
91490SOL    HW176367   8.327   4.053   1.922
91490SOL    HW276368   8.258   4.008   2.049
91491SOL     OW76369   0.866  10.515   1.763
91491SOL    HW176370   0.955  10.548   1.772
91491SOL    HW276371   0.852  10.460   1.841
91492SOL     OW76372  12.835   6.991   6.696
91492SOL    HW176373  12.870   6.907   6.669
91492SOL    HW276374  12.910   7.051   6.696
91493SOL     OW76375   7.738   8.919   8.869
91493SOL    HW176376   7.681   8.884   8.938
91493SOL    HW276377   7.705   8.880   8.788
91494SOL     OW76378   2.825   6.200   1.946
91494SOL    HW176379   2.746   6.221   1.896
91494SOL    HW276380   2.793   6.146   2.018
91495SOL     OW76381  13.452  12.938   0.304
91495SOL    HW176382  13.414  13.022   0.328
91495SOL    HW276383  13.438  12.932   0.209
91496SOL     OW76384  13.673   5.010   0.798
91496SOL    HW176385  13.755   4.969   0.827
91496SOL    HW276386  13.637   4.947   0.735
91497SOL     OW76387  10.729   4.639   9.288
91497SOL    HW176388  10.708   4.664   9.378
91497SOL    HW276389  10.761   4.549   9.294
91498SOL     OW76390   1.794   1.764   2.897
91498SOL    HW176391   1.755   1.852   2.900
91498SOL    HW276392   1.724   1.709   2.861
91499SOL     OW76393  13.597  14.579  13.204
91499SOL    HW176394  13.519  14.527  13.188
91499SOL    HW276395  13.582  14.621  13.288
91500SOL     OW76396  12.627  10.377  13.470
91500SOL    HW176397  12.653  10.390  13.561
91500SOL    HW276398  12.643  10.284  13.453
91501SOL     OW76399   5.682  10.073   5.548
91501SOL    HW176400   5.601  10.124   5.546
91501SOL    HW276401   5.703  10.064   5.641
91502SOL     OW76402  10.008   2.317   0.196
91502SOL    HW176403   9.988   2.360   0.279
91502SOL    HW276404  10.104   2.313   0.193
91503SOL     OW76405  14.472   2.450   3.038
91503SOL    HW176406  14.507   2.445   3.127
91503SOL    HW276407  14.482   2.361   3.003
91504SOL     OW76408  14.075   8.716   1.507
91504SOL    HW176409  14.063   8.717   1.602
91504SOL    HW276410  14.082   8.809   1.483
91505SOL     OW76411   9.516   4.825   3.452
91505SOL    HW176412   9.608   4.804   3.468
91505SOL    HW276413   9.486   4.756   3.393
91506SOL     OW76414   4.150  14.493   3.334
91506SOL    HW176415   4.170  14.482   3.427
91506SOL    HW276416   4.066  14.448   3.322
91507SOL     OW76417   3.580  11.816   2.270
91507SOL    HW176418   3.487  11.798   2.254
91507SOL    HW276419   3.614  11.845   2.185
91508SOL     OW76420   4.681  11.511   3.992
91508SOL    HW176421   4.748  11.473   4.049
91508SOL    HW276422   4.613  11.445   3.988
91509SOL     OW76423  13.863  14.343   8.019
91509SOL    HW176424  13.880  14.327   7.926
91509SOL    HW276425  13.936  14.397   8.048
91510SOL     OW76426   8.265  13.983  10.497
91510SOL    HW176427   8.232  14.060  10.451
91510SOL    HW276428   8.190  13.925  10.503
91511SOL     OW76429  12.098   0.405   9.531
91511SOL    HW176430  12.126   0.354   9.456
91511SOL    HW276431  12.122   0.352   9.607
91512SOL     OW76432   9.977   4.197   0.397
91512SOL    HW176433  10.050   4.176   0.339
91512SOL    HW276434   9.932   4.113   0.411
91513SOL     OW76435   6.387   0.441   6.349
91513SOL    HW176436   6.479   0.418   6.344
91513SOL    HW276437   6.380   0.499   6.424
91514SOL     OW76438   6.190   4.445   1.403
91514SOL    HW176439   6.177   4.385   1.477
91514SOL    HW276440   6.204   4.530   1.444
91515SOL     OW76441   8.003   5.447   9.125
91515SOL    HW176442   7.968   5.378   9.181
91515SOL    HW276443   8.051   5.401   9.056
91516SOL     OW76444   2.088  13.407   9.659
91516SOL    HW176445   2.140  13.391   9.580
91516SOL    HW276446   2.012  13.457   9.628
91517SOL     OW76447   0.858   8.521   8.719
91517SOL    HW176448   0.946   8.484   8.726
91517SOL    HW276449   0.836   8.549   8.808
91518SOL     OW76450   7.670   5.970   2.450
91518SOL    HW176451   7.706   5.884   2.471
91518SOL    HW276452   7.620   5.956   2.369
91519SOL     OW76453   8.902   9.605   3.848
91519SOL    HW176454   8.986   9.578   3.884
91519SOL    HW276455   8.884   9.543   3.777
91520SOL     OW76456   7.187  12.277   0.429
91520SOL    HW176457   7.224  12.199   0.388
91520SOL    HW276458   7.110  12.246   0.476
91521SOL     OW76459   7.837  11.354  10.776
91521SOL    HW176460   7.774  11.337  10.706
91521SOL    HW276461   7.904  11.286  10.765
91522SOL     OW76462   7.777   9.042   5.565
91522SOL    HW176463   7.746   9.009   5.481
91522SOL    HW276464   7.710   9.015   5.628
91523SOL     OW76465   0.132   1.521   1.627
91523SOL    HW176466   0.141   1.581   1.700
91523SOL    HW276467   0.203   1.545   1.567
91524SOL     OW76468   0.690   3.020  11.015
91524SOL    HW176469   0.617   3.060  11.064
91524SOL    HW276470   0.726   3.092  10.963
91525SOL     OW76471   8.662  12.623  13.788
91525SOL    HW176472   8.612  12.629  13.707
91525SOL    HW276473   8.615  12.679  13.850
91526SOL     OW76474  12.615   8.494   9.128
91526SOL    HW176475  12.597   8.426   9.193
91526SOL    HW276476  12.531   8.506   9.082
91527SOL     OW76477  13.159   4.031   4.511
91527SOL    HW176478  13.150   3.938   4.489
91527SOL    HW276479  13.212   4.068   4.441
91528SOL     OW76480   2.270   4.590  11.751
91528SOL    HW176481   2.346   4.638  11.719
91528SOL    HW276482   2.223   4.563  11.671
91529SOL     OW76483   3.804  12.334   0.652
91529SOL    HW176484   3.826  12.321   0.560
91529SOL    HW276485   3.857  12.271   0.699
91530SOL     OW76486   9.089  10.236  10.170
91530SOL    HW176487   9.116  10.298  10.237
91530SOL    HW276488   9.031  10.286  10.113
91531SOL     OW76489  13.939   0.995   1.495
91531SOL    HW176490  13.978   1.080   1.512
91531SOL    HW276491  14.006   0.932   1.521
91532SOL     OW76492   2.253  13.525  11.661
91532SOL    HW176493   2.167  13.488  11.680
91532SOL    HW276494   2.287  13.553  11.746
91533SOL     OW76495   6.800   2.182   6.561
91533SOL    HW176496   6.786   2.135   6.643
91533SOL    HW276497   6.851   2.260   6.587
91534SOL     OW76498  10.948   2.384  14.674
91534SOL    HW176499  10.894   2.437  14.615
91534SOL    HW276500  10.943   2.429  14.758
91535SOL     OW76501  14.211  12.612  12.936
91535SOL    HW176502  14.295  12.614  12.891
91535SOL    HW276503  14.191  12.705  12.951
91536SOL     OW76504  12.609   4.165   2.785
91536SOL    HW176505  12.630   4.136   2.696
91536SOL    HW276506  12.527   4.121   2.806
91537SOL     OW76507   8.193   2.172  14.354
91537SOL    HW176508   8.220   2.263  14.368
91537SOL    HW276509   8.155   2.145  14.438
91538SOL     OW76510  14.180  10.724  11.976
91538SOL    HW176511  14.099  10.775  11.982
91538SOL    HW276512  14.241  10.782  11.930
91539SOL     OW76513   2.528   1.501   1.148
91539SOL    HW176514   2.598   1.449   1.188
91539SOL    HW276515   2.568   1.587   1.132
91540SOL     OW76516   9.327  11.005   9.942
91540SOL    HW176517   9.373  11.082   9.976
91540SOL    HW276518   9.301  10.956  10.021
91541SOL     OW76519  10.295  14.071   9.947
91541SOL    HW176520  10.228  14.133   9.919
91541SOL    HW276521  10.355  14.066   9.872
91542SOL     OW76522   1.176   1.172   4.354
91542SOL    HW176523   1.106   1.146   4.414
91542SOL    HW276524   1.253   1.179   4.410
91543SOL     OW76525   4.883  12.472  13.983
91543SOL    HW176526   4.874  12.390  14.032
91543SOL    HW276527   4.978  12.486  13.978
91544SOL     OW76528  11.373  12.137   5.212
91544SOL    HW176529  11.359  12.197   5.139
91544SOL    HW276530  11.418  12.189   5.278
91545SOL     OW76531  10.408   1.538   4.211
91545SOL    HW176532  10.461   1.544   4.132
91545SOL    HW276533  10.373   1.626   4.224
91546SOL     OW76534  10.521   3.694  11.084
91546SOL    HW176535  10.592   3.642  11.047
91546SOL    HW276536  10.562   3.775  11.113
91547SOL     OW76537  10.039   4.071   5.620
91547SOL    HW176538   9.990   4.139   5.572
91547SOL    HW276539  10.047   3.999   5.558
91548SOL     OW76540   2.714  11.590   9.125
91548SOL    HW176541   2.688  11.648   9.053
91548SOL    HW276542   2.708  11.645   9.203
91549SOL     OW76543   4.829   1.710   4.234
91549SOL    HW176544   4.791   1.768   4.300
91549SOL    HW276545   4.894   1.765   4.190
91550SOL     OW76546   8.059   2.824   3.582
91550SOL    HW176547   8.019   2.905   3.550
91550SOL    HW276548   8.028   2.816   3.672
91551SOL     OW76549   0.141   2.916   6.723
91551SOL    HW176550   0.199   2.992   6.722
91551SOL    HW276551   0.199   2.841   6.738
91552SOL     OW76552   9.434   9.476   1.090
91552SOL    HW176553   9.438   9.383   1.111
91552SOL    HW276554   9.523   9.499   1.064
91553SOL     OW76555  13.174  10.037   3.129
91553SOL    HW176556  13.109  10.104   3.148
91553SOL    HW276557  13.212  10.062   3.046
91554SOL     OW76558  10.156   3.757  13.311
91554SOL    HW176559  10.109   3.776  13.230
91554SOL    HW276560  10.145   3.836  13.364
91555SOL     OW76561  12.640  11.560  13.538
91555SOL    HW176562  12.674  11.536  13.624
91555SOL    HW276563  12.684  11.642  13.517
91556SOL     OW76564   6.816   2.145   9.414
91556SOL    HW176565   6.739   2.184   9.457
91556SOL    HW276566   6.829   2.199   9.336
91557SOL     OW76567   9.092   4.288   1.067
91557SOL    HW176568   9.002   4.286   1.034
91557SOL    HW276569   9.144   4.251   0.996
91558SOL     OW76570  14.313   6.156  14.368
91558SOL    HW176571  14.322   6.240  14.412
91558SOL    HW276572  14.234   6.165  14.313
91559SOL     OW76573   3.642   0.579  13.080
91559SOL    HW176574   3.684   0.581  13.166
91559SOL    HW276575   3.617   0.488  13.068
91560SOL     OW76576   4.645   0.583   6.025
91560SOL    HW176577   4.738   0.606   6.029
91560SOL    HW276578   4.623   0.588   5.932
91561SOL     OW76579   5.203  14.571   3.568
91561SOL    HW176580   5.228  14.511   3.497
91561SOL    HW276581   5.286  14.600   3.605
91562SOL     OW76582   3.242   1.055   3.246
91562SOL    HW176583   3.308   1.049   3.315
91562SOL    HW276584   3.189   0.977   3.256
91563SOL     OW76585  14.296   7.401   3.672
91563SOL    HW176586  14.320   7.397   3.765
91563SOL    HW276587  14.327   7.317   3.636
91564SOL     OW76588  14.604   2.039   4.554
91564SOL    HW176589  14.667   1.980   4.512
91564SOL    HW276590  14.534   2.049   4.489
91565SOL     OW76591   0.182  13.612   2.531
91565SOL    HW176592   0.166  13.701   2.499
91565SOL    HW276593   0.209  13.625   2.622
91566SOL     OW76594  11.024   8.310   1.112
91566SOL    HW176595  10.970   8.297   1.190
91566SOL    HW276596  10.962   8.307   1.039
91567SOL     OW76597  10.894  10.139   9.095
91567SOL    HW176598  10.981  10.176   9.085
91567SOL    HW276599  10.886  10.119   9.188
91568SOL     OW76600   8.227   2.332   2.339
91568SOL    HW176601   8.160   2.389   2.377
91568SOL    HW276602   8.265   2.287   2.414
91569SOL     OW76603   1.604  14.010   6.420
91569SOL    HW176604   1.528  13.965   6.382
91569SOL    HW276605   1.656  13.940   6.460
91570SOL     OW76606  10.392   3.375  11.918
91570SOL    HW176607  10.317   3.434  11.914
91570SOL    HW276608  10.354   3.287  11.915
91571SOL     OW76609   2.449   3.698  14.667
91571SOL    HW176610   2.450   3.606  14.641
91571SOL    HW276611   2.429   3.695  14.761
91572SOL     OW76612   3.939  13.513  13.467
91572SOL    HW176613   3.915  13.572  13.539
91572SOL    HW276614   3.898  13.553  13.390
91573SOL     OW76615  11.275   0.154   7.102
91573SOL    HW176616  11.357   0.172   7.148
91573SOL    HW276617  11.290   0.183   7.012
91574SOL     OW76618  12.963   3.755  14.406
91574SOL    HW176619  12.966   3.705  14.488
91574SOL    HW276620  12.870   3.770  14.390
91575SOL     OW76621   4.891   5.663   9.998
91575SOL    HW176622   4.874   5.593  10.061
91575SOL    HW276623   4.825   5.651   9.931
91576SOL     OW76624   7.025  14.348   4.864
91576SOL    HW176625   7.115  14.318   4.876
91576SOL    HW276626   7.033  14.422   4.804
91577SOL     OW76627  11.702  13.332   4.123
91577SOL    HW176628  11.789  13.300   4.148
91577SOL    HW276629  11.666  13.263   4.067
91578SOL     OW76630   8.405   3.593   7.383
91578SOL    HW176631   8.347   3.668   7.375
91578SOL    HW276632   8.435   3.576   7.294
91579SOL     OW76633   0.945   2.510   2.206
91579SOL    HW176634   1.030   2.509   2.161
91579SOL    HW276635   0.915   2.419   2.203
91580SOL     OW76636   7.152  13.716  11.396
91580SOL    HW176637   7.161  13.700  11.490
91580SOL    HW276638   7.208  13.792  11.379
91581SOL     OW76639   2.819   0.420   3.006
91581SOL    HW176640   2.856   0.435   2.919
91581SOL    HW276641   2.837   0.328   3.025
91582SOL     OW76642   8.261   9.681   8.181
91582SOL    HW176643   8.205   9.646   8.250
91582SOL    HW276644   8.207   9.747   8.138
91583SOL     OW76645  12.001   5.294  13.037
91583SOL    HW176646  11.955   5.283  13.121
91583SOL    HW276647  12.003   5.206  13.000
91584SOL     OW76648  13.011   9.802   2.529
91584SOL    HW176649  13.067   9.833   2.600
91584SOL    HW276650  13.057   9.725   2.495
91585SOL     OW76651   7.124   3.217  11.443
91585SOL    HW176652   7.131   3.305  11.408
91585SOL    HW276653   7.195   3.210  11.507
91586SOL     OW76654  14.026   9.273   7.864
91586SOL    HW176655  13.997   9.183   7.881
91586SOL    HW276656  13.946   9.325   7.871
91587SOL     OW76657  13.067  13.341   1.698
91587SOL    HW176658  12.987  13.351   1.646
91587SOL    HW276659  13.042  13.369   1.786
91588SOL     OW76660  13.281   7.749   4.234
91588SOL    HW176661  13.332   7.786   4.306
91588SOL    HW276662  13.216   7.694   4.277
91589SOL     OW76663   0.660  12.627   3.202
91589SOL    HW176664   0.653  12.721   3.188
91589SOL    HW276665   0.574  12.601   3.235
91590SOL     OW76666   3.033  10.746  13.651
91590SOL    HW176667   3.122  10.753  13.686
91590SOL    HW276668   3.046  10.716  13.561
91591SOL     OW76669   6.114   6.241   9.083
91591SOL    HW176670   6.091   6.150   9.102
91591SOL    HW276671   6.084   6.255   8.993
91592SOL     OW76672   0.042   6.323  11.405
91592SOL    HW176673   0.010   6.289  11.489
91592SOL    HW276674  14.870   6.275  11.339
91593SOL     OW76675  12.519  11.749  14.768
91593SOL    HW176676  12.600  11.799  14.777
91593SOL    HW276677  12.544  11.672  14.717
91594SOL     OW76678   2.385  14.510   3.441
91594SOL    HW176679   2.412  14.591   3.397
91594SOL    HW276680   2.299  14.529   3.476
91595SOL     OW76681  14.158  13.818   7.041
91595SOL    HW176682  14.194  13.907   7.049
91595SOL    HW276683  14.082  13.817   7.099
91596SOL     OW76684  11.652   6.062   5.370
91596SOL    HW176685  11.638   5.994   5.305
91596SOL    HW276686  11.703   6.019   5.439
91597SOL     OW76687  10.144   8.003   1.448
91597SOL    HW176688  10.058   7.988   1.409
91597SOL    HW276689  10.187   8.065   1.389
91598SOL     OW76690   8.142   9.472  13.073
91598SOL    HW176691   8.170   9.380  13.071
91598SOL    HW276692   8.177   9.506  13.155
91599SOL     OW76693   0.909   7.198  12.987
91599SOL    HW176694   0.904   7.171  13.079
91599SOL    HW276695   0.890   7.291  12.989
91600SOL     OW76696   0.071   6.162   5.353
91600SOL    HW176697   0.001   6.116   5.400
91600SOL    HW276698   0.037   6.174   5.265
91601SOL     OW76699   0.205  14.058   2.987
91601SOL    HW176700   0.297  14.060   2.962
91601SOL    HW276701   0.184  13.964   2.992
91602SOL     OW76702  12.007  11.959  12.933
91602SOL    HW176703  11.961  12.029  12.979
91602SOL    HW276704  12.033  11.897  13.001
91603SOL     OW76705   0.538   6.237   2.155
91603SOL    HW176706   0.455   6.253   2.199
91603SOL    HW276707   0.576   6.162   2.202
91604SOL     OW76708   3.056   8.217   7.914
91604SOL    HW176709   2.969   8.217   7.874
91604SOL    HW276710   3.104   8.285   7.866
91605SOL     OW76711   1.297   3.052  14.210
91605SOL    HW176712   1.351   3.119  14.167
91605SOL    HW276713   1.320   2.970  14.166
91606SOL     OW76714   6.188   9.202   8.648
91606SOL    HW176715   6.266   9.149   8.629
91606SOL    HW276716   6.171   9.248   8.566
91607SOL     OW76717   0.441  12.742  12.914
91607SOL    HW176718   0.369  12.789  12.955
91607SOL    HW276719   0.408  12.653  12.901
91608SOL     OW76720   4.731   9.789   3.371
91608SOL    HW176721   4.683   9.761   3.449
91608SOL    HW276722   4.695   9.735   3.300
91609SOL     OW76723  14.421  14.597  13.589
91609SOL    HW176724  14.500  14.622  13.638
91609SOL    HW276725  14.393  14.678  13.547
91610SOL     OW76726   3.146   6.531   1.355
91610SOL    HW176727   3.208   6.598   1.382
91610SOL    HW276728   3.076   6.579   1.312
91611SOL     OW76729  14.268  10.615  12.270
91611SOL    HW176730  14.213  10.565  12.330
91611SOL    HW276731  14.234  10.593  12.183
91612SOL     OW76732  14.738   3.913  10.062
91612SOL    HW176733  14.749   3.847   9.993
91612SOL    HW276734  14.763   3.868  10.143
91613SOL     OW76735   8.154  11.110  12.185
91613SOL    HW176736   8.126  11.086  12.097
91613SOL    HW276737   8.208  11.188  12.173
91614SOL     OW76738   1.121   8.856   3.405
91614SOL    HW176739   1.041   8.803   3.400
91614SOL    HW276740   1.126   8.901   3.321
91615SOL     OW76741   5.152   5.181   0.795
91615SOL    HW176742   5.168   5.219   0.881
91615SOL    HW276743   5.216   5.110   0.789
91616SOL     OW76744  12.393   1.060  13.665
91616SOL    HW176745  12.359   1.104  13.587
91616SOL    HW276746  12.322   1.065  13.728
91617SOL     OW76747  13.361  14.854   1.045
91617SOL    HW176748  13.447  14.871   1.083
91617SOL    HW276749  13.315   0.060   1.052
91618SOL     OW76750   2.947  12.636   5.915
91618SOL    HW176751   2.976  12.552   5.951
91618SOL    HW276752   3.027  12.679   5.886
91619SOL     OW76753  14.697  14.811  11.197
91619SOL    HW176754  14.709  14.756  11.275
91619SOL    HW276755  14.691  14.749  11.125
91620SOL     OW76756  10.267   4.951   5.261
91620SOL    HW176757  10.348   4.960   5.310
91620SOL    HW276758  10.214   5.027   5.288
91621SOL     OW76759  12.531  13.369  13.989
91621SOL    HW176760  12.467  13.428  14.030
91621SOL    HW276761  12.616  13.403  14.017
91622SOL     OW76762   5.392   5.053  11.435
91622SOL    HW176763   5.423   5.127  11.383
91622SOL    HW276764   5.465   5.031  11.493
91623SOL     OW76765   8.086  12.619   3.935
91623SOL    HW176766   8.025  12.677   3.891
91623SOL    HW276767   8.057  12.531   3.912
91624SOL     OW76768  10.565  13.035   4.713
91624SOL    HW176769  10.617  13.090   4.772
91624SOL    HW276770  10.629  12.988   4.660
91625SOL     OW76771  10.196   5.685   4.669
91625SOL    HW176772  10.104   5.659   4.660
91625SOL    HW276773  10.204   5.763   4.613
91626SOL     OW76774   0.435   8.837   7.937
91626SOL    HW176775   0.415   8.772   7.869
91626SOL    HW276776   0.471   8.912   7.889
91627SOL     OW76777   9.377  11.618   5.002
91627SOL    HW176778   9.357  11.555   4.933
91627SOL    HW276779   9.375  11.566   5.083
91628SOL     OW76780   7.018   3.026  10.232
91628SOL    HW176781   6.963   2.955  10.198
91628SOL    HW276782   7.067   3.057  10.156
91629SOL     OW76783   1.095   7.878   6.657
91629SOL    HW176784   1.063   7.875   6.567
91629SOL    HW276785   1.111   7.971   6.673
91630SOL     OW76786   5.443  10.279  14.053
91630SOL    HW176787   5.464  10.305  14.143
91630SOL    HW276788   5.350  10.255  14.057
91631SOL     OW76789   7.088  13.520   0.345
91631SOL    HW176790   7.044  13.529   0.261
91631SOL    HW276791   7.109  13.427   0.352
91632SOL     OW76792   2.409   1.156   2.636
91632SOL    HW176793   2.325   1.156   2.682
91632SOL    HW276794   2.474   1.157   2.706
91633SOL     OW76795   7.006   4.776   3.438
91633SOL    HW176796   7.040   4.768   3.349
91633SOL    HW276797   6.913   4.755   3.431
91634SOL     OW76798  10.463   1.942   8.419
91634SOL    HW176799  10.551   1.961   8.386
91634SOL    HW276800  10.476   1.882   8.492
91635SOL     OW76801  13.546  11.154  14.200
91635SOL    HW176802  13.489  11.211  14.252
91635SOL    HW276803  13.629  11.203  14.193
91636SOL     OW76804   5.844  12.097   8.409
91636SOL    HW176805   5.801  12.172   8.449
91636SOL    HW276806   5.780  12.026   8.415
91637SOL     OW76807  14.854   5.578   8.375
91637SOL    HW176808   0.021   5.524   8.310
91637SOL    HW276809  14.770   5.601   8.336
91638SOL     OW76810   4.004   3.701   3.421
91638SOL    HW176811   4.093   3.667   3.410
91638SOL    HW276812   3.982   3.737   3.335
91639SOL     OW76813  10.575   5.534   9.681
91639SOL    HW176814  10.656   5.572   9.646
91639SOL    HW276815  10.526   5.507   9.603
91640SOL     OW76816   8.668   4.654  13.539
91640SOL    HW176817   8.580   4.664  13.502
91640SOL    HW276818   8.665   4.570  13.585
91641SOL     OW76819  14.668   2.343   3.489
91641SOL    HW176820  14.728   2.272   3.466
91641SOL    HW276821  14.593   2.332   3.431
91642SOL     OW76822   2.585   5.166   5.711
91642SOL    HW176823   2.503   5.213   5.728
91642SOL    HW276824   2.612   5.134   5.796
91643SOL     OW76825  11.108  13.521   2.524
91643SOL    HW176826  11.067  13.559   2.602
91643SOL    HW276827  11.159  13.592   2.486
91644SOL     OW76828   1.631  14.688   6.844
91644SOL    HW176829   1.591  14.631   6.779
91644SOL    HW276830   1.692  14.742   6.793
91645SOL     OW76831  10.683  13.364   9.797
91645SOL    HW176832  10.591  13.382   9.815
91645SOL    HW276833  10.708  13.298   9.863
91646SOL     OW76834   5.061   6.692   5.603
91646SOL    HW176835   5.030   6.637   5.676
91646SOL    HW276836   5.152   6.667   5.591
91647SOL     OW76837   4.345   5.296  11.300
91647SOL    HW176838   4.372   5.382  11.267
91647SOL    HW276839   4.261   5.312  11.342
91648SOL     OW76840   2.898   1.698  13.423
91648SOL    HW176841   2.895   1.666  13.333
91648SOL    HW276842   2.946   1.630  13.471
91649SOL     OW76843   6.137   1.411  12.188
91649SOL    HW176844   6.134   1.350  12.262
91649SOL    HW276845   6.212   1.468  12.207
91650SOL     OW76846  11.259   4.278   4.391
91650SOL    HW176847  11.292   4.294   4.479
91650SOL    HW276848  11.190   4.213   4.402
91651SOL     OW76849  11.752  13.381  11.736
91651SOL    HW176850  11.674  13.345  11.778
91651SOL    HW276851  11.817  13.387  11.806
91652SOL     OW76852   3.008   9.156  11.392
91652SOL    HW176853   3.103   9.150  11.381
91652SOL    HW276854   2.994   9.135  11.484
91653SOL     OW76855  14.607   4.886  12.895
91653SOL    HW176856  14.610   4.847  12.982
91653SOL    HW276857  14.516   4.916  12.886
91654SOL     OW76858  12.576   6.733   9.982
91654SOL    HW176859  12.576   6.829   9.982
91654SOL    HW276860  12.493   6.710   9.941
91655SOL     OW76861  11.097  10.348   8.735
91655SOL    HW176862  11.065  10.425   8.781
91655SOL    HW276863  11.192  10.354   8.740
91656SOL     OW76864  13.810   3.680   1.421
91656SOL    HW176865  13.815   3.644   1.333
91656SOL    HW276866  13.719   3.710   1.430
91657SOL     OW76867   3.696   0.571   4.877
91657SOL    HW176868   3.625   0.546   4.818
91657SOL    HW276869   3.711   0.493   4.930
91658SOL     OW76870  10.625   2.977   3.816
91658SOL    HW176871  10.634   2.891   3.857
91658SOL    HW276872  10.711   2.993   3.776
91659SOL     OW76873   0.881   2.420   7.069
91659SOL    HW176874   0.803   2.393   7.117
91659SOL    HW276875   0.920   2.489   7.123
91660SOL     OW76876   4.345   6.809   6.750
91660SOL    HW176877   4.302   6.878   6.800
91660SOL    HW276878   4.369   6.743   6.815
91661SOL     OW76879   2.655   0.311   4.913
91661SOL    HW176880   2.678   0.403   4.923
91661SOL    HW276881   2.690   0.269   4.992
91662SOL     OW76882   2.275   4.185   0.659
91662SOL    HW176883   2.331   4.163   0.733
91662SOL    HW276884   2.329   4.241   0.603
91663SOL     OW76885  10.239  13.352   5.328
91663SOL    HW176886  10.222  13.426   5.386
91663SOL    HW276887  10.300  13.297   5.378
91664SOL     OW76888  10.551  14.585  13.944
91664SOL    HW176889  10.567  14.600  14.037
91664SOL    HW276890  10.457  14.598  13.934
91665SOL     OW76891   4.912   9.715   7.233
91665SOL    HW176892   4.997   9.714   7.187
91665SOL    HW276893   4.925   9.776   7.305
91666SOL     OW76894   1.133  13.802   7.601
91666SOL    HW176895   1.148  13.727   7.659
91666SOL    HW276896   1.219  13.821   7.564
91667SOL     OW76897  14.569   0.593  14.856
91667SOL    HW176898  14.595   0.647  14.781
91667SOL    HW276899  14.646   0.590   0.034
91668SOL     OW76900   7.763   8.083   4.818
91668SOL    HW176901   7.710   8.162   4.812
91668SOL    HW276902   7.845   8.111   4.860
91669SOL     OW76903   3.086   6.067  10.521
91669SOL    HW176904   3.060   5.978  10.545
91669SOL    HW276905   3.135   6.057  10.440
91670SOL     OW76906   4.672   9.006   7.390
91670SOL    HW176907   4.702   9.093   7.366
91670SOL    HW276908   4.700   8.995   7.481
91671SOL     OW76909  12.326   5.845   3.529
91671SOL    HW176910  12.406   5.800   3.556
91671SOL    HW276911  12.355   5.914   3.470
91672SOL     OW76912  12.373  13.323  14.778
91672SOL    HW176913  12.384  13.235  14.814
91672SOL    HW276914  12.417  13.381  14.841
91673SOL     OW76915   3.949   0.764   2.650
91673SOL    HW176916   3.925   0.720   2.568
91673SOL    HW276917   3.944   0.696   2.717
91674SOL     OW76918  12.430  10.115   2.897
91674SOL    HW176919  12.511  10.095   2.850
91674SOL    HW276920  12.459  10.148   2.982
91675SOL     OW76921  13.865   4.180   6.866
91675SOL    HW176922  13.807   4.135   6.928
91675SOL    HW276923  13.940   4.207   6.919
91676SOL     OW76924  14.233   1.534  10.358
91676SOL    HW176925  14.175   1.522  10.283
91676SOL    HW276926  14.227   1.627  10.379
91677SOL     OW76927   3.789   3.235   5.818
91677SOL    HW176928   3.795   3.275   5.731
91677SOL    HW276929   3.695   3.221   5.831
91678SOL     OW76930   2.231  13.866  10.551
91678SOL    HW176931   2.255  13.957  10.535
91678SOL    HW276932   2.276  13.817  10.483
91679SOL     OW76933  10.755   7.648   2.801
91679SOL    HW176934  10.706   7.648   2.719
91679SOL    HW276935  10.693   7.677   2.867
91680SOL     OW76936   9.778  12.898   7.494
91680SOL    HW176937   9.863  12.930   7.524
91680SOL    HW276938   9.794  12.809   7.465
91681SOL     OW76939   7.455   4.951   4.875
91681SOL    HW176940   7.379   4.963   4.932
91681SOL    HW276941   7.528   4.940   4.935
91682SOL     OW76942  10.002   2.627   4.172
91682SOL    HW176943   9.976   2.709   4.131
91682SOL    HW276944   9.930   2.567   4.153
91683SOL     OW76945  13.361  12.557   7.302
91683SOL    HW176946  13.268  12.576   7.287
91683SOL    HW276947  13.408  12.625   7.254
91684SOL     OW76948  13.498   9.121  14.761
91684SOL    HW176949  13.432   9.072  14.713
91684SOL    HW276950  13.578   9.111  14.709
91685SOL     OW76951   3.052  14.397   1.994
91685SOL    HW176952   3.011  14.386   2.079
91685SOL    HW276953   3.135  14.350   2.000
91686SOL     OW76954   7.095  13.274  11.882
91686SOL    HW176955   7.134  13.191  11.855
91686SOL    HW276956   7.033  13.251  11.951
91687SOL     OW76957   9.718  11.169   7.903
91687SOL    HW176958   9.699  11.215   7.985
91687SOL    HW276959   9.633  11.160   7.860
91688SOL     OW76960   2.167   9.214  12.965
91688SOL    HW176961   2.077   9.215  12.934
91688SOL    HW276962   2.160   9.227  13.060
91689SOL     OW76963   8.171   8.527   6.903
91689SOL    HW176964   8.198   8.472   6.977
91689SOL    HW276965   8.252   8.568   6.874
91690SOL     OW76966   2.328   1.449   4.407
91690SOL    HW176967   2.239   1.421   4.429
91690SOL    HW276968   2.349   1.515   4.473
91691SOL     OW76969   5.382   5.623   0.528
91691SOL    HW176970   5.310   5.561   0.543
91691SOL    HW276971   5.457   5.569   0.508
91692SOL     OW76972   4.003  12.904   1.661
91692SOL    HW176973   4.003  12.841   1.733
91692SOL    HW276974   4.072  12.873   1.602
91693SOL     OW76975  11.478   5.163   2.158
91693SOL    HW176976  11.550   5.225   2.145
91693SOL    HW276977  11.521   5.078   2.164
91694SOL     OW76978   2.279   8.455   5.449
91694SOL    HW176979   2.274   8.431   5.357
91694SOL    HW276980   2.325   8.539   5.450
91695SOL     OW76981   0.938   9.390  13.361
91695SOL    HW176982   0.955   9.300  13.335
91695SOL    HW276983   0.858   9.414  13.314
91696SOL     OW76984   4.216   5.339   1.972
91696SOL    HW176985   4.285   5.346   1.905
91696SOL    HW276986   4.198   5.245   1.977
91697SOL     OW76987   1.090   9.213   5.849
91697SOL    HW176988   1.040   9.133   5.836
91697SOL    HW276989   1.051   9.276   5.788
91698SOL     OW76990  13.211   7.141  13.147
91698SOL    HW176991  13.239   7.232  13.152
91698SOL    HW276992  13.164   7.126  13.230
91699SOL     OW76993   4.596   2.094   3.777
91699SOL    HW176994   4.573   2.076   3.868
91699SOL    HW276995   4.625   2.185   3.777
91700SOL     OW76996   5.208  11.978   9.091
91700SOL    HW176997   5.123  11.989   9.134
91700SOL    HW276998   5.234  11.888   9.109
91701SOL     OW76999   5.494  10.329   2.805
91701SOL    HW177000   5.512  10.401   2.865
91701SOL    HW277001   5.442  10.368   2.735
91702SOL     OW77002   2.839  13.129   6.667
91702SOL    HW177003   2.879  13.067   6.606
91702SOL    HW277004   2.788  13.074   6.727
91703SOL     OW77005  10.671   2.771   8.761
91703SOL    HW177006  10.694   2.763   8.669
91703SOL    HW277007  10.612   2.846   8.765
91704SOL     OW77008   5.077  13.232   7.731
91704SOL    HW177009   5.102  13.198   7.645
91704SOL    HW277010   5.002  13.288   7.713
91705SOL     OW77011  14.224  10.197   6.271
91705SOL    HW177012  14.157  10.187   6.339
91705SOL    HW277013  14.191  10.268   6.216
91706SOL     OW77014   6.687   8.154   8.298
91706SOL    HW177015   6.729   8.166   8.213
91706SOL    HW277016   6.605   8.108   8.279
91707SOL     OW77017   1.398   9.793  14.054
91707SOL    HW177018   1.399   9.840  14.137
91707SOL    HW277019   1.381   9.702  14.079
91708SOL     OW77020   7.634   3.881   7.314
91708SOL    HW177021   7.625   3.944   7.243
91708SOL    HW277022   7.545   3.850   7.332
91709SOL     OW77023   8.122   1.304  10.890
91709SOL    HW177024   8.148   1.394  10.870
91709SOL    HW277025   8.182   1.250  10.837
91710SOL     OW77026   4.732   5.360   8.108
91710SOL    HW177027   4.764   5.442   8.145
91710SOL    HW277028   4.691   5.385   8.025
91711SOL     OW77029   9.012   4.901   0.618
91711SOL    HW177030   9.025   4.990   0.586
91711SOL    HW277031   9.001   4.849   0.538
91712SOL     OW77032   8.511   2.867   1.328
91712SOL    HW177033   8.569   2.943   1.323
91712SOL    HW277034   8.528   2.819   1.247
91713SOL     OW77035  13.469   6.256   7.418
91713SOL    HW177036  13.539   6.216   7.365
91713SOL    HW277037  13.390   6.245   7.365
91714SOL     OW77038   6.782   9.041  12.549
91714SOL    HW177039   6.692   9.050  12.582
91714SOL    HW277040   6.796   8.947  12.545
91715SOL     OW77041  14.629   9.672  13.914
91715SOL    HW177042  14.674   9.616  13.977
91715SOL    HW277043  14.606   9.614  13.842
91716SOL     OW77044   3.190   4.543  10.916
91716SOL    HW177045   3.274   4.520  10.875
91716SOL    HW277046   3.142   4.588  10.847
91717SOL     OW77047   2.649  10.705   0.969
91717SOL    HW177048   2.719  10.645   0.995
91717SOL    HW277049   2.669  10.787   1.014
91718SOL     OW77050  14.147  12.095  10.566
91718SOL    HW177051  14.235  12.086  10.604
91718SOL    HW277052  14.162  12.092  10.471
91719SOL     OW77053   8.173   0.638   4.314
91719SOL    HW177054   8.249   0.661   4.368
91719SOL    HW277055   8.204   0.566   4.258
91720SOL     OW77056   1.756   0.367   6.579
91720SOL    HW177057   1.817   0.345   6.649
91720SOL    HW277058   1.680   0.405   6.623
91721SOL     OW77059   8.900   2.694  11.716
91721SOL    HW177060   8.896   2.632  11.788
91721SOL    HW277061   8.813   2.734  11.712
91722SOL     OW77062   9.095  10.724  14.791
91722SOL    HW177063   9.052  10.809  14.801
91722SOL    HW277064   9.065  10.673  14.866
91723SOL     OW77065   5.629   7.195   0.177
91723SOL    HW177066   5.615   7.238   0.093
91723SOL    HW277067   5.582   7.249   0.240
91724SOL     OW77068   7.332   3.440   9.328
91724SOL    HW177069   7.417   3.399   9.311
91724SOL    HW277070   7.268   3.377   9.294
91725SOL     OW77071   9.632   9.614   7.762
91725SOL    HW177072   9.724   9.632   7.782
91725SOL    HW277073   9.623   9.519   7.772
91726SOL     OW77074   0.841  13.639  14.605
91726SOL    HW177075   0.919  13.593  14.575
91726SOL    HW277076   0.788  13.649  14.526
91727SOL     OW77077   8.422  11.093   7.035
91727SOL    HW177078   8.441  11.159   6.968
91727SOL    HW277079   8.414  11.011   6.987
91728SOL     OW77080  12.486   5.619   8.077
91728SOL    HW177081  12.474   5.708   8.044
91728SOL    HW277082  12.581   5.606   8.077
91729SOL     OW77083   2.520   7.051   0.264
91729SOL    HW177084   2.493   7.042   0.355
91729SOL    HW277085   2.454   7.108   0.225
91730SOL     OW77086   2.931   3.274   9.450
91730SOL    HW177087   2.955   3.211   9.381
91730SOL    HW277088   2.840   3.253   9.472
91731SOL     OW77089   3.825   8.448   9.514
91731SOL    HW177090   3.916   8.448   9.545
91731SOL    HW277091   3.789   8.367   9.548
91732SOL     OW77092   3.786   2.330  13.800
91732SOL    HW177093   3.788   2.379  13.718
91732SOL    HW277094   3.850   2.374  13.856
91733SOL     OW77095   0.326  13.895  12.680
91733SOL    HW177096   0.346  13.802  12.681
91733SOL    HW277097   0.389  13.933  12.741
91734SOL     OW77098  11.621   5.857  10.217
91734SOL    HW177099  11.712   5.886  10.220
91734SOL    HW277100  11.606   5.836  10.125
91735SOL     OW77101   0.879   8.444   3.413
91735SOL    HW177102   0.945   8.476   3.475
91735SOL    HW277103   0.871   8.351   3.434
91736SOL     OW77104   2.454   1.143  11.229
91736SOL    HW177105   2.433   1.226  11.186
91736SOL    HW277106   2.538   1.159  11.271
91737SOL     OW77107   6.382   6.975   3.453
91737SOL    HW177108   6.426   7.059   3.443
91737SOL    HW277109   6.298   6.985   3.410
91738SOL     OW77110   7.138   9.109   7.375
91738SOL    HW177111   7.231   9.118   7.353
91738SOL    HW277112   7.093   9.154   7.304
91739SOL     OW77113   9.578  12.982   3.513
91739SOL    HW177114   9.574  13.009   3.421
91739SOL    HW277115   9.661  12.936   3.521
91740SOL     OW77116   2.534   5.389   8.014
91740SOL    HW177117   2.473   5.357   8.080
91740SOL    HW277118   2.485   5.455   7.966
91741SOL     OW77119   9.294   7.180   1.881
91741SOL    HW177120   9.284   7.141   1.967
91741SOL    HW277121   9.363   7.128   1.839
91742SOL     OW77122  11.400   4.003   9.702
91742SOL    HW177123  11.418   4.096   9.686
91742SOL    HW277124  11.402   3.963   9.615
91743SOL     OW77125   9.828  13.298   5.893
91743SOL    HW177126   9.737  13.274   5.873
91743SOL    HW277127   9.821  13.377   5.947
91744SOL     OW77128   9.303   6.350   4.249
91744SOL    HW177129   9.361   6.316   4.181
91744SOL    HW277130   9.217   6.353   4.207
91745SOL     OW77131   7.243   0.954   5.917
91745SOL    HW177132   7.275   0.865   5.902
91745SOL    HW277133   7.257   0.969   6.010
91746SOL     OW77134  11.535  12.770  11.194
91746SOL    HW177135  11.492  12.684  11.190
91746SOL    HW277136  11.625  12.750  11.220
91747SOL     OW77137  14.318   7.509  10.588
91747SOL    HW177138  14.248   7.572  10.569
91747SOL    HW277139  14.313   7.447  10.516
91748SOL     OW77140   7.358  14.491   7.580
91748SOL    HW177141   7.438  14.543   7.589
91748SOL    HW277142   7.340  14.492   7.486
91749SOL     OW77143   7.556  12.418  12.642
91749SOL    HW177144   7.574  12.499  12.690
91749SOL    HW277145   7.463  12.423  12.620
91750SOL     OW77146   8.793   2.393   0.124
91750SOL    HW177147   8.860   2.421   0.061
91750SOL    HW277148   8.811   2.444   0.203
91751SOL     OW77149   8.739  12.117   0.920
91751SOL    HW177150   8.761  12.072   0.838
91751SOL    HW277151   8.687  12.055   0.969
91752SOL     OW77152   9.723  14.571   9.886
91752SOL    HW177153   9.780  14.599   9.815
91752SOL    HW277154   9.712  14.649   9.940
91753SOL     OW77155  12.325  13.788   0.212
91753SOL    HW177156  12.410  13.755   0.185
91753SOL    HW277157  12.263  13.751   0.148
91754SOL     OW77158   7.608   2.287   2.485
91754SOL    HW177159   7.669   2.219   2.456
91754SOL    HW277160   7.526   2.267   2.440
91755SOL     OW77161   0.213  11.648   0.313
91755SOL    HW177162   0.234  11.613   0.227
91755SOL    HW277163   0.223  11.574   0.373
91756SOL     OW77164   5.392   6.492  12.493
91756SOL    HW177165   5.444   6.570  12.478
91756SOL    HW277166   5.456   6.422  12.505
91757SOL     OW77167  12.302   0.914  11.035
91757SOL    HW177168  12.377   0.965  11.064
91757SOL    HW277169  12.306   0.916  10.940
91758SOL     OW77170   4.838  12.137   4.692
91758SOL    HW177171   4.824  12.216   4.745
91758SOL    HW277172   4.848  12.170   4.603
91759SOL     OW77173   4.308  14.575   0.986
91759SOL    HW177174   4.313  14.486   1.021
91759SOL    HW277175   4.400  14.602   0.974
91760SOL     OW77176   9.987  14.749  13.221
91760SOL    HW177177  10.075  14.781  13.200
91760SOL    HW277178   9.956  14.709  13.141
91761SOL     OW77179   2.718   9.414  11.390
91761SOL    HW177180   2.781   9.425  11.461
91761SOL    HW277181   2.770   9.431  11.310
91762SOL     OW77182   3.178  14.826   8.107
91762SOL    HW177183   3.270  14.845   8.090
91762SOL    HW277184   3.177  14.733   8.133
91763SOL     OW77185   1.885  12.089   1.421
91763SOL    HW177186   1.826  12.156   1.454
91763SOL    HW277187   1.951  12.079   1.491
91764SOL     OW77188   3.040  13.995   2.370
91764SOL    HW177189   3.080  13.963   2.452
91764SOL    HW277190   2.946  13.996   2.388
91765SOL     OW77191   0.350   8.874   0.683
91765SOL    HW177192   0.408   8.799   0.675
91765SOL    HW277193   0.381   8.937   0.618
91766SOL     OW77194   2.625   0.008  10.944
91766SOL    HW177195   2.544  14.856  10.903
91766SOL    HW277196   2.693  14.828  10.909
91767SOL     OW77197   2.301   5.985   6.360
91767SOL    HW177198   2.261   5.903   6.331
91767SOL    HW277199   2.293   5.983   6.455
91768SOL     OW77200   0.482   3.142  11.784
91768SOL    HW177201   0.416   3.209  11.764
91768SOL    HW277202   0.462   3.070  11.724
91769SOL     OW77203  10.514   4.367   1.702
91769SOL    HW177204  10.589   4.321   1.740
91769SOL    HW277205  10.532   4.460   1.718
91770SOL     OW77206   9.695   5.927   4.750
91770SOL    HW177207   9.636   5.982   4.801
91770SOL    HW277208   9.768   5.985   4.727
91771SOL     OW77209   4.456  13.440   7.966
91771SOL    HW177210   4.428  13.450   8.057
91771SOL    HW277211   4.449  13.346   7.949
91772SOL     OW77212   7.385   2.809   6.089
91772SOL    HW177213   7.340   2.824   6.172
91772SOL    HW277214   7.444   2.736   6.107
91773SOL     OW77215  10.665  10.562   4.101
91773SOL    HW177216  10.614  10.619   4.044
91773SOL    HW277217  10.600  10.520   4.158
91774SOL     OW77218   6.693   5.182  11.451
91774SOL    HW177219   6.599   5.175  11.466
91774SOL    HW277220   6.732   5.117  11.509
91775SOL     OW77221   8.186   2.263  10.702
91775SOL    HW177222   8.239   2.197  10.746
91775SOL    HW277223   8.226   2.272  10.615
91776SOL     OW77224   7.026   0.499   7.348
91776SOL    HW177225   6.980   0.415   7.348
91776SOL    HW277226   6.958   0.564   7.330
91777SOL     OW77227   1.875  12.305   8.174
91777SOL    HW177228   1.837  12.287   8.260
91777SOL    HW277229   1.804  12.288   8.112
91778SOL     OW77230  14.307   5.590  11.768
91778SOL    HW177231  14.314   5.500  11.737
91778SOL    HW277232  14.346   5.588  11.856
91779SOL     OW77233   6.303  12.176   5.769
91779SOL    HW177234   6.272  12.139   5.686
91779SOL    HW277235   6.223  12.190   5.820
91780SOL     OW77236   8.241   8.401   4.351
91780SOL    HW177237   8.264   8.317   4.391
91780SOL    HW277238   8.318   8.425   4.299
91781SOL     OW77239   2.147  11.004  11.249
91781SOL    HW177240   2.126  11.087  11.206
91781SOL    HW277241   2.107  10.937  11.195
91782SOL     OW77242   1.264   8.798   1.841
91782SOL    HW177243   1.250   8.861   1.771
91782SOL    HW277244   1.359   8.781   1.840
91783SOL     OW77245   3.513   8.547  11.923
91783SOL    HW177246   3.546   8.458  11.918
91783SOL    HW277247   3.436   8.542  11.980
91784SOL     OW77248   3.827   2.059   2.247
91784SOL    HW177249   3.904   2.031   2.197
91784SOL    HW277250   3.793   2.134   2.198
91785SOL     OW77251   0.028   1.863   9.713
91785SOL    HW177252   0.105   1.819   9.749
91785SOL    HW277253  14.849   1.792   9.681
91786SOL     OW77254  11.723   0.186  13.497
91786SOL    HW177255  11.795   0.209  13.557
91786SOL    HW277256  11.762   0.193  13.410
91787SOL     OW77257   6.427   4.941  13.889
91787SOL    HW177258   6.378   5.010  13.932
91787SOL    HW277259   6.419   4.865  13.947
91788SOL     OW77260   4.006   7.840   6.099
91788SOL    HW177261   4.085   7.793   6.072
91788SOL    HW277262   3.934   7.791   6.058
91789SOL     OW77263  12.457   4.062  11.851
91789SOL    HW177264  12.378   4.113  11.865
91789SOL    HW277265  12.503   4.065  11.935
91790SOL     OW77266   9.204  10.170   5.916
91790SOL    HW177267   9.176  10.253   5.956
91790SOL    HW277268   9.293  10.157   5.948
91791SOL     OW77269   7.073  11.844   3.505
91791SOL    HW177270   7.013  11.899   3.453
91791SOL    HW277271   7.020  11.769   3.531
91792SOL     OW77272   1.420   8.099  12.355
91792SOL    HW177273   1.513   8.081  12.340
91792SOL    HW277274   1.377   8.068  12.275
91793SOL     OW77275   2.411   1.674   2.630
91793SOL    HW177276   2.393   1.688   2.723
91793SOL    HW277277   2.437   1.759   2.596
91794SOL     OW77278   1.618   4.737   3.019
91794SOL    HW177279   1.700   4.735   3.067
91794SOL    HW277280   1.551   4.720   3.085
91795SOL     OW77281  13.967   7.905  14.509
91795SOL    HW177282  13.872   7.894  14.508
91795SOL    HW277283  14.000   7.841  14.447
91796SOL     OW77284  10.100  11.073  11.274
91796SOL    HW177285  10.160  11.030  11.335
91796SOL    HW277286  10.038  11.004  11.249
91797SOL     OW77287  11.772   8.420  13.768
91797SOL    HW177288  11.729   8.334  13.760
91797SOL    HW277289  11.843   8.417  13.704
91798SOL     OW77290  11.269   8.280  10.558
91798SOL    HW177291  11.244   8.367  10.526
91798SOL    HW277292  11.213   8.220  10.509
91799SOL     OW77293   4.818   1.039   6.573
91799SOL    HW177294   4.912   1.055   6.582
91799SOL    HW277295   4.812   0.950   6.539
91800SOL     OW77296  10.494  10.028   0.905
91800SOL    HW177297  10.535  10.062   0.825
91800SOL    HW277298  10.567  10.000   0.959
91801SOL     OW77299   5.327   4.043  10.741
91801SOL    HW177300   5.372   4.065  10.823
91801SOL    HW277301   5.254   3.987  10.767
91802SOL     OW77302  13.206  12.262   2.036
91802SOL    HW177303  13.195  12.179   1.990
91802SOL    HW277304  13.117  12.291   2.056
91803SOL     OW77305  14.228  14.849   1.624
91803SOL    HW177306  14.274  14.865   1.707
91803SOL    HW277307  14.224  14.754   1.616
91804SOL     OW77308   8.941   2.898   2.143
91804SOL    HW177309   8.874   2.947   2.096
91804SOL    HW277310   8.908   2.809   2.147
91805SOL     OW77311   9.027   9.808   3.428
91805SOL    HW177312   9.084   9.733   3.410
91805SOL    HW277313   8.975   9.818   3.348
91806SOL     OW77314   3.245   9.629   9.532
91806SOL    HW177315   3.170   9.622   9.591
91806SOL    HW277316   3.243   9.719   9.500
91807SOL     OW77317   5.107  10.947  11.363
91807SOL    HW177318   5.178  10.980  11.308
91807SOL    HW277319   5.062  10.883  11.307
91808SOL     OW77320   6.917   0.467  10.571
91808SOL    HW177321   6.944   0.543  10.624
91808SOL    HW277322   6.977   0.397  10.597
91809SOL     OW77323   7.363  12.517   0.258
91809SOL    HW177324   7.408  12.504   0.175
91809SOL    HW277325   7.382  12.439   0.309
91810SOL     OW77326  13.978   8.736   7.489
91810SOL    HW177327  14.015   8.728   7.577
91810SOL    HW277328  13.997   8.652   7.448
91811SOL     OW77329   0.134   3.179   2.513
91811SOL    HW177330   0.118   3.086   2.529
91811SOL    HW277331   0.161   3.184   2.421
91812SOL     OW77332  13.254   8.102   6.401
91812SOL    HW177333  13.217   8.172   6.455
91812SOL    HW277334  13.317   8.146   6.344
91813SOL     OW77335   6.787   6.681   5.684
91813SOL    HW177336   6.838   6.729   5.619
91813SOL    HW277337   6.851   6.627   5.730
91814SOL     OW77338  13.307   3.905   3.607
91814SOL    HW177339  13.267   3.846   3.544
91814SOL    HW277340  13.285   3.868   3.693
91815SOL     OW77341   4.810  11.710   4.566
91815SOL    HW177342   4.899  11.695   4.595
91815SOL    HW277343   4.761  11.633   4.596
91816SOL     OW77344  11.366   5.284  11.235
91816SOL    HW177345  11.352   5.195  11.266
91816SOL    HW277346  11.281   5.312  11.201
91817SOL     OW77347   8.793   1.352   4.470
91817SOL    HW177348   8.790   1.256   4.468
91817SOL    HW277349   8.818   1.377   4.381
91818SOL     OW77350  10.742   1.054  11.376
91818SOL    HW177351  10.753   1.142  11.339
91818SOL    HW277352  10.813   1.046  11.440
91819SOL     OW77353   4.978  14.836  13.063
91819SOL    HW177354   5.066  14.800  13.067
91819SOL    HW277355   4.921  14.762  13.082
91820SOL     OW77356  10.558  12.327   0.591
91820SOL    HW177357  10.621  12.316   0.520
91820SOL    HW277358  10.475  12.346   0.547
91821SOL     OW77359   5.764  13.168   3.574
91821SOL    HW177360   5.685  13.149   3.523
91821SOL    HW277361   5.739  13.147   3.664
91822SOL     OW77362   0.836   3.380  10.194
91822SOL    HW177363   0.778   3.407  10.266
91822SOL    HW277364   0.782   3.390  10.115
91823SOL     OW77365   5.653   7.795  11.881
91823SOL    HW177366   5.673   7.872  11.828
91823SOL    HW277367   5.649   7.723  11.819
91824SOL     OW77368  13.832  10.909   7.100
91824SOL    HW177369  13.757  10.964   7.076
91824SOL    HW277370  13.905  10.948   7.051
91825SOL     OW77371   8.020   7.874   8.846
91825SOL    HW177372   8.076   7.950   8.834
91825SOL    HW277373   8.081   7.803   8.867
91826SOL     OW77374   4.277  12.019  14.063
91826SOL    HW177375   4.347  11.961  14.093
91826SOL    HW277376   4.246  11.979  13.982
91827SOL     OW77377   8.646   6.572  14.872
91827SOL    HW177378   8.579   6.522  14.825
91827SOL    HW277379   8.701   6.609  14.803
91828SOL     OW77380  12.417   5.844  12.443
91828SOL    HW177381  12.375   5.883  12.519
91828SOL    HW277382  12.506   5.880  12.443
91829SOL     OW77383  14.545   4.224  13.927
91829SOL    HW177384  14.449   4.224  13.924
91829SOL    HW277385  14.570   4.138  13.892
91830SOL     OW77386   4.706  11.747  11.699
91830SOL    HW177387   4.667  11.684  11.638
91830SOL    HW277388   4.694  11.707  11.785
91831SOL     OW77389   7.728   4.278   6.834
91831SOL    HW177390   7.680   4.279   6.917
91831SOL    HW277391   7.674   4.328   6.774
91832SOL     OW77392   0.175   3.130   9.389
91832SOL    HW177393   0.105   3.147   9.452
91832SOL    HW277394   0.184   3.034   9.389
91833SOL     OW77395   0.059   6.872   0.947
91833SOL    HW177396  14.870   6.893   0.880
91833SOL    HW277397   0.096   6.789   0.918
91834SOL     OW77398   1.262   2.893   6.870
91834SOL    HW177399   1.223   2.969   6.826
91834SOL    HW277400   1.351   2.920   6.892
91835SOL     OW77401  12.775  13.352  10.210
91835SOL    HW177402  12.706  13.327  10.272
91835SOL    HW277403  12.809  13.434  10.246
91836SOL     OW77404   5.528   3.327   3.047
91836SOL    HW177405   5.558   3.313   2.957
91836SOL    HW277406   5.470   3.403   3.041
91837SOL     OW77407   7.567   2.192  10.176
91837SOL    HW177408   7.473   2.172  10.170
91837SOL    HW277409   7.592   2.162  10.263
91838SOL     OW77410   4.995   8.586  13.560
91838SOL    HW177411   4.962   8.659  13.508
91838SOL    HW277412   4.986   8.509  13.503
91839SOL     OW77413   8.798   3.767   4.918
91839SOL    HW177414   8.718   3.811   4.889
91839SOL    HW277415   8.773   3.719   4.996
91840SOL     OW77416  14.794   5.761  11.470
91840SOL    HW177417  14.854   5.709  11.417
91840SOL    HW277418  14.783   5.711  11.550
91841SOL     OW77419   5.947   2.526  10.879
91841SOL    HW177420   5.891   2.483  10.814
91841SOL    HW277421   5.966   2.612  10.840
91842SOL     OW77422   3.988  13.240  11.030
91842SOL    HW177423   3.948  13.321  11.060
91842SOL    HW277424   3.952  13.226  10.942
91843SOL     OW77425  14.284   5.308  10.800
91843SOL    HW177426  14.262   5.277  10.888
91843SOL    HW277427  14.284   5.404  10.809
91844SOL     OW77428  14.151   3.697   7.212
91844SOL    HW177429  14.147   3.639   7.136
91844SOL    HW277430  14.188   3.643   7.281
91845SOL     OW77431   0.380  14.654   4.478
91845SOL    HW177432   0.392  14.741   4.515
91845SOL    HW277433   0.445  14.600   4.522
91846SOL     OW77434   6.194   9.802   2.914
91846SOL    HW177435   6.180   9.861   2.988
91846SOL    HW277436   6.174   9.715   2.949
91847SOL     OW77437  14.431   2.385  11.883
91847SOL    HW177438  14.424   2.465  11.934
91847SOL    HW277439  14.456   2.318  11.946
91848SOL     OW77440   4.864   9.282  14.195
91848SOL    HW177441   4.776   9.260  14.225
91848SOL    HW277442   4.876   9.230  14.115
91849SOL     OW77443   3.745  10.996   2.868
91849SOL    HW177444   3.765  11.015   2.776
91849SOL    HW277445   3.829  11.003   2.913
91850SOL     OW77446   4.468   9.773  11.814
91850SOL    HW177447   4.514   9.856  11.829
91850SOL    HW277448   4.500   9.744  11.728
91851SOL     OW77449   8.273   5.435   1.741
91851SOL    HW177450   8.365   5.406   1.743
91851SOL    HW277451   8.265   5.493   1.816
91852SOL     OW77452   6.802   2.689  11.461
91852SOL    HW177453   6.830   2.731  11.380
91852SOL    HW277454   6.876   2.698  11.520
91853SOL     OW77455   6.071   9.939  11.604
91853SOL    HW177456   6.035  10.006  11.546
91853SOL    HW277457   6.019   9.861  11.587
91854SOL     OW77458   5.998  14.330   0.943
91854SOL    HW177459   5.925  14.269   0.955
91854SOL    HW277460   6.040  14.334   1.029
91855SOL     OW77461  10.959   2.913   4.613
91855SOL    HW177462  10.989   2.857   4.684
91855SOL    HW277463  11.024   2.983   4.609
91856SOL     OW77464   3.854   3.013   0.391
91856SOL    HW177465   3.830   2.921   0.399
91856SOL    HW277466   3.852   3.030   0.296
91857SOL     OW77467   0.458   8.013   2.839
91857SOL    HW177468   0.479   7.965   2.759
91857SOL    HW277469   0.434   8.100   2.809
91858SOL     OW77470   7.464  14.193   7.004
91858SOL    HW177471   7.401  14.253   6.964
91858SOL    HW277472   7.410  14.132   7.054
91859SOL     OW77473   2.940  12.396  13.971
91859SOL    HW177474   2.880  12.350  13.912
91859SOL    HW277475   2.889  12.471  14.002
91860SOL     OW77476   8.165   7.730   3.391
91860SOL    HW177477   8.195   7.660   3.449
91860SOL    HW277478   8.142   7.801   3.451
91861SOL     OW77479  13.656   7.514   3.015
91861SOL    HW177480  13.654   7.555   3.102
91861SOL    HW277481  13.745   7.529   2.984
91862SOL     OW77482   9.542   6.405  12.649
91862SOL    HW177483   9.507   6.345  12.715
91862SOL    HW277484   9.621   6.362  12.617
91863SOL     OW77485   6.396  13.049   8.158
91863SOL    HW177486   6.431  13.034   8.069
91863SOL    HW277487   6.302  13.057   8.145
91864SOL     OW77488  11.753  14.261  14.276
91864SOL    HW177489  11.771  14.326  14.208
91864SOL    HW277490  11.701  14.309  14.341
91865SOL     OW77491   2.244   4.661   8.137
91865SOL    HW177492   2.212   4.590   8.081
91865SOL    HW277493   2.237   4.626   8.226
91866SOL     OW77494  10.877   7.575  11.901
91866SOL    HW177495  10.817   7.639  11.863
91866SOL    HW277496  10.917   7.621  11.975
91867SOL     OW77497  13.672  13.353  11.278
91867SOL    HW177498  13.670  13.297  11.200
91867SOL    HW277499  13.582  13.387  11.285
91868SOL     OW77500   5.875   4.477   4.489
91868SOL    HW177501   5.846   4.565   4.513
91868SOL    HW277502   5.818   4.419   4.539
91869SOL     OW77503  13.554  10.890   8.664
91869SOL    HW177504  13.479  10.915   8.611
91869SOL    HW277505  13.530  10.915   8.754
91870SOL     OW77506  12.689  10.491  12.443
91870SOL    HW177507  12.683  10.575  12.398
91870SOL    HW277508  12.686  10.426  12.373
91871SOL     OW77509   5.874  14.097  14.073
91871SOL    HW177510   5.892  14.187  14.045
91871SOL    HW277511   5.793  14.073  14.028
91872SOL     OW77512   3.760   7.573   4.719
91872SOL    HW177513   3.823   7.539   4.782
91872SOL    HW277514   3.781   7.666   4.710
91873SOL     OW77515   3.703  13.975   3.467
91873SOL    HW177516   3.704  13.951   3.560
91873SOL    HW277517   3.701  13.891   3.421
91874SOL     OW77518   7.456   1.999   4.062
91874SOL    HW177519   7.414   2.050   3.993
91874SOL    HW277520   7.426   2.040   4.144
91875SOL     OW77521   8.027   0.601   3.893
91875SOL    HW177522   7.958   0.575   3.833
91875SOL    HW277523   7.996   0.684   3.931
91876SOL     OW77524   2.965   8.882   6.555
91876SOL    HW177525   2.885   8.933   6.565
91876SOL    HW277526   2.982   8.845   6.642
91877SOL     OW77527   1.650  13.227  14.145
91877SOL    HW177528   1.690  13.163  14.204
91877SOL    HW277529   1.600  13.285  14.202
91878SOL     OW77530   4.381  12.542   5.049
91878SOL    HW177531   4.450  12.505   4.996
91878SOL    HW277532   4.330  12.466   5.079
91879SOL     OW77533   6.095  11.740  11.433
91879SOL    HW177534   6.082  11.797  11.357
91879SOL    HW277535   6.188  11.716  11.429
91880SOL     OW77536   6.437  14.680  12.165
91880SOL    HW177537   6.508  14.683  12.100
91880SOL    HW277538   6.393  14.597  12.148
91881SOL     OW77539   3.530   1.808   3.836
91881SOL    HW177540   3.501   1.787   3.925
91881SOL    HW277541   3.549   1.902   3.839
91882SOL     OW77542   3.697   8.851  10.140
91882SOL    HW177543   3.653   8.788  10.197
91882SOL    HW277544   3.665   8.936  10.169
91883SOL     OW77545   5.691   4.613   1.104
91883SOL    HW177546   5.736   4.581   1.182
91883SOL    HW277547   5.761   4.647   1.048
91884SOL     OW77548   4.194   2.225   4.800
91884SOL    HW177549   4.274   2.270   4.772
91884SOL    HW277550   4.184   2.152   4.739
91885SOL     OW77551  10.842  12.327  12.949
91885SOL    HW177552  10.818  12.238  12.974
91885SOL    HW277553  10.769  12.356  12.894
91886SOL     OW77554   9.434   4.257  14.629
91886SOL    HW177555   9.404   4.347  14.643
91886SOL    HW277556   9.368   4.218  14.571
91887SOL     OW77557   3.155   1.797  10.193
91887SOL    HW177558   3.165   1.713  10.148
91887SOL    HW277559   3.070   1.793  10.235
91888SOL     OW77560   3.681  11.990   5.487
91888SOL    HW177561   3.746  11.981   5.417
91888SOL    HW277562   3.729  11.968   5.567
91889SOL     OW77563  13.220   6.549   5.253
91889SOL    HW177564  13.186   6.467   5.216
91889SOL    HW277565  13.268   6.590   5.181
91890SOL     OW77566  13.335  12.995   6.744
91890SOL    HW177567  13.408  12.966   6.799
91890SOL    HW277568  13.265  12.932   6.762
91891SOL     OW77569   4.378   2.009   4.311
91891SOL    HW177570   4.328   1.928   4.307
91891SOL    HW277571   4.346   2.061   4.238
91892SOL     OW77572   6.587  14.526  11.137
91892SOL    HW177573   6.675  14.530  11.100
91892SOL    HW277574   6.534  14.581  11.079
91893SOL     OW77575  14.147   4.264   3.773
91893SOL    HW177576  14.197   4.188   3.741
91893SOL    HW277577  14.212   4.317   3.820
91894SOL     OW77578  12.383   2.171   1.132
91894SOL    HW177579  12.314   2.105   1.128
91894SOL    HW277580  12.363   2.231   1.060
91895SOL     OW77581   7.076   4.525   9.863
91895SOL    HW177582   7.133   4.574   9.804
91895SOL    HW277583   7.130   4.509   9.940
91896SOL     OW77584   6.712  13.956   5.672
91896SOL    HW177585   6.774  13.999   5.731
91896SOL    HW277586   6.766  13.895   5.621
91897SOL     OW77587  13.393   9.488   3.230
91897SOL    HW177588  13.414   9.475   3.323
91897SOL    HW277589  13.305   9.527   3.231
91898SOL     OW77590  12.364   7.316   6.147
91898SOL    HW177591  12.412   7.253   6.201
91898SOL    HW277592  12.328   7.263   6.076
91899SOL     OW77593  10.348  13.829   0.903
91899SOL    HW177594  10.256  13.814   0.924
91899SOL    HW277595  10.379  13.746   0.867
91900SOL     OW77596   5.317   5.793   6.695
91900SOL    HW177597   5.388   5.731   6.713
91900SOL    HW277598   5.342   5.873   6.741
91901SOL     OW77599   9.206  12.412   8.340
91901SOL    HW177600   9.291  12.407   8.383
91901SOL    HW277601   9.179  12.321   8.328
91902SOL     OW77602   6.065  10.562  12.874
91902SOL    HW177603   6.111  10.551  12.957
91902SOL    HW277604   6.076  10.479  12.828
91903SOL     OW77605   5.695  12.523   5.596
91903SOL    HW177606   5.630  12.454   5.609
91903SOL    HW277607   5.764  12.503   5.658
91904SOL     OW77608   7.993  12.103  11.946
91904SOL    HW177609   7.968  12.142  11.863
91904SOL    HW277610   7.945  12.020  11.949
91905SOL     OW77611   1.152   8.525   4.576
91905SOL    HW177612   1.083   8.459   4.572
91905SOL    HW277613   1.232   8.475   4.592
91906SOL     OW77614  10.534   5.156   7.854
91906SOL    HW177615  10.500   5.089   7.796
91906SOL    HW277616  10.460   5.213   7.872
91907SOL     OW77617  10.933   2.676   5.332
91907SOL    HW177618  11.015   2.629   5.318
91907SOL    HW277619  10.870   2.635   5.272
91908SOL     OW77620  13.893   3.553   5.038
91908SOL    HW177621  13.834   3.535   4.965
91908SOL    HW277622  13.872   3.642   5.066
91909SOL     OW77623   5.728   6.579   6.564
91909SOL    HW177624   5.640   6.548   6.540
91909SOL    HW277625   5.765   6.614   6.482
91910SOL     OW77626  11.431   0.988  14.313
91910SOL    HW177627  11.391   1.074  14.297
91910SOL    HW277628  11.524   1.001  14.293
91911SOL     OW77629  11.654   2.244   1.179
91911SOL    HW177630  11.659   2.152   1.153
91911SOL    HW277631  11.562   2.257   1.203
91912SOL     OW77632   2.195   2.743  13.044
91912SOL    HW177633   2.115   2.760  13.095
91912SOL    HW277634   2.256   2.811  13.072
91913SOL     OW77635   0.149   2.034  11.541
91913SOL    HW177636   0.190   2.079  11.468
91913SOL    HW277637   0.186   2.076  11.619
91914SOL     OW77638  14.571  14.297  13.151
91914SOL    HW177639  14.520  14.357  13.206
91914SOL    HW277640  14.638  14.353  13.111
91915SOL     OW77641  12.225   1.608  12.280
91915SOL    HW177642  12.173   1.635  12.205
91915SOL    HW277643  12.236   1.687  12.332
91916SOL     OW77644  13.786  12.837   1.102
91916SOL    HW177645  13.738  12.763   1.138
91916SOL    HW277646  13.726  12.876   1.038
91917SOL     OW77647   7.230  10.046   5.823
91917SOL    HW177648   7.281  10.121   5.792
91917SOL    HW277649   7.276   9.970   5.787
91918SOL     OW77650   2.480   4.088   8.471
91918SOL    HW177651   2.412   4.024   8.450
91918SOL    HW277652   2.432   4.161   8.511
91919SOL     OW77653  11.253  14.263   1.478
91919SOL    HW177654  11.347  14.249   1.472
91919SOL    HW277655  11.217  14.218   1.402
91920SOL     OW77656   5.279   4.751   3.831
91920SOL    HW177657   5.316   4.758   3.743
91920SOL    HW277658   5.237   4.666   3.833
91921SOL     OW77659   2.229   4.241   6.214
91921SOL    HW177660   2.267   4.321   6.178
91921SOL    HW277661   2.159   4.218   6.153
91922SOL     OW77662  11.253   0.109  11.141
91922SOL    HW177663  11.295   0.038  11.190
91922SOL    HW277664  11.170   0.072  11.112
91923SOL     OW77665   5.315   7.269   8.219
91923SOL    HW177666   5.283   7.289   8.307
91923SOL    HW277667   5.365   7.188   8.230
91924SOL     OW77668   4.459  12.889  13.020
91924SOL    HW177669   4.459  12.813  12.962
91924SOL    HW277670   4.457  12.853  13.108
91925SOL     OW77671   3.474   8.745  12.101
91925SOL    HW177672   3.389   8.785  12.086
91925SOL    HW277673   3.493   8.697  12.020
91926SOL     OW77674   7.972   1.445   8.518
91926SOL    HW177675   7.978   1.504   8.593
91926SOL    HW277676   7.909   1.378   8.545
91927SOL     OW77677   7.965  13.939  14.413
91927SOL    HW177678   8.037  13.958  14.473
91927SOL    HW277679   7.889  13.927  14.470
91928SOL     OW77680   9.960  11.140   9.779
91928SOL    HW177681   9.931  11.189   9.702
91928SOL    HW277682  10.049  11.171   9.794
91929SOL     OW77683   1.716   5.709   0.734
91929SOL    HW177684   1.775   5.761   0.789
91929SOL    HW277685   1.638   5.695   0.789
91930SOL     OW77686  11.707   2.708   7.422
91930SOL    HW177687  11.775   2.770   7.450
91930SOL    HW277688  11.631   2.764   7.405
91931SOL     OW77689  12.139  12.165  12.478
91931SOL    HW177690  12.191  12.245  12.475
91931SOL    HW277691  12.146  12.135  12.568
91932SOL     OW77692   0.126   7.650  12.759
91932SOL    HW177693   0.193   7.591  12.724
91932SOL    HW277694   0.175   7.715  12.808
91933SOL     OW77695   7.635   8.765   3.818
91933SOL    HW177696   7.687   8.763   3.738
91933SOL    HW277697   7.664   8.688   3.867
91934SOL     OW77698   5.648   2.021   7.399
91934SOL    HW177699   5.636   2.025   7.305
91934SOL    HW277700   5.694   1.939   7.414
91935SOL     OW77701  14.205   8.114   4.338
91935SOL    HW177702  14.189   8.019   4.336
91935SOL    HW277703  14.124   8.151   4.372
91936SOL     OW77704  12.510   1.534   5.382
91936SOL    HW177705  12.527   1.628   5.381
91936SOL    HW277706  12.550   1.504   5.463
91937SOL     OW77707   0.954   4.024   1.607
91937SOL    HW177708   0.946   4.048   1.699
91937SOL    HW277709   0.966   3.929   1.608
91938SOL     OW77710  12.655  13.563  12.512
91938SOL    HW177711  12.683  13.547  12.422
91938SOL    HW277712  12.735  13.588  12.558
91939SOL     OW77713  13.652   9.406   5.127
91939SOL    HW177714  13.701   9.442   5.201
91939SOL    HW277715  13.574   9.461   5.121
91940SOL     OW77716   3.519   7.779   5.165
91940SOL    HW177717   3.498   7.848   5.102
91940SOL    HW277718   3.562   7.711   5.114
91941SOL     OW77719   1.428   9.987   8.446
91941SOL    HW177720   1.473   9.990   8.530
91941SOL    HW277721   1.489   9.943   8.387
91942SOL     OW77722   7.318  10.627   8.231
91942SOL    HW177723   7.273  10.559   8.181
91942SOL    HW277724   7.286  10.617   8.320
91943SOL     OW77725   5.561   3.191   6.104
91943SOL    HW177726   5.529   3.209   6.015
91943SOL    HW277727   5.509   3.247   6.161
91944SOL     OW77728   0.924   8.882   7.621
91944SOL    HW177729   0.895   8.861   7.710
91944SOL    HW277730   0.842   8.897   7.573
91945SOL     OW77731  14.782   2.733   2.586
91945SOL    HW177732  14.790   2.649   2.631
91945SOL    HW277733  14.741   2.791   2.651
91946SOL     OW77734  11.295  12.445   0.509
91946SOL    HW177735  11.310  12.495   0.589
91946SOL    HW277736  11.360  12.375   0.512
91947SOL     OW77737  10.718   9.328   5.254
91947SOL    HW177738  10.732   9.390   5.326
91947SOL    HW277739  10.630   9.292   5.270
91948SOL     OW77740   5.252   6.250   4.409
91948SOL    HW177741   5.230   6.327   4.357
91948SOL    HW277742   5.213   6.177   4.361
91949SOL     OW77743   9.965  12.066  10.824
91949SOL    HW177744   9.915  12.070  10.742
91949SOL    HW277745  10.023  11.991  10.813
91950SOL     OW77746  10.201   3.468   2.329
91950SOL    HW177747  10.213   3.379   2.364
91950SOL    HW277748  10.106   3.478   2.320
91951SOL     OW77749  11.592   8.461  14.602
91951SOL    HW177750  11.681   8.463  14.567
91951SOL    HW277751  11.587   8.379  14.650
91952SOL     OW77752   9.189   8.184   2.493
91952SOL    HW177753   9.261   8.171   2.431
91952SOL    HW277754   9.112   8.154   2.445
91953SOL     OW77755   4.980   5.005   1.045
91953SOL    HW177756   5.026   5.053   0.976
91953SOL    HW277757   5.050   4.969   1.099
91954SOL     OW77758  14.871  14.299   4.192
91954SOL    HW177759  14.848  14.288   4.284
91954SOL    HW277760  14.856  14.213   4.153
91955SOL     OW77761   5.803  14.727   0.361
91955SOL    HW177762   5.833  14.667   0.429
91955SOL    HW277763   5.883  14.754   0.315
91956SOL     OW77764   7.149  13.546   8.698
91956SOL    HW177765   7.068  13.513   8.737
91956SOL    HW277766   7.145  13.641   8.709
91957SOL     OW77767   3.272   2.296   3.529
91957SOL    HW177768   3.198   2.356   3.518
91957SOL    HW277769   3.262   2.233   3.458
91958SOL     OW77770  14.675  13.488  11.566
91958SOL    HW177771  14.719  13.473  11.482
91958SOL    HW277772  14.603  13.425  11.567
91959SOL     OW77773  11.198   1.161   8.704
91959SOL    HW177774  11.148   1.152   8.785
91959SOL    HW277775  11.159   1.236   8.659
91960SOL     OW77776  12.646  11.338   1.465
91960SOL    HW177777  12.575  11.275   1.453
91960SOL    HW277778  12.688  11.345   1.379
91961SOL     OW77779   3.473   6.478   7.921
91961SOL    HW177780   3.389   6.499   7.962
91961SOL    HW277781   3.449   6.436   7.838
91962SOL     OW77782  10.311   9.277   7.900
91962SOL    HW177783  10.383   9.223   7.869
91962SOL    HW277784  10.270   9.226   7.970
91963SOL     OW77785  13.716   4.495   3.669
91963SOL    HW177786  13.686   4.405   3.682
91963SOL    HW277787  13.735   4.526   3.758
91964SOL     OW77788   9.689   8.086   3.580
91964SOL    HW177789   9.745   8.009   3.567
91964SOL    HW277790   9.666   8.113   3.491
91965SOL     OW77791   9.694   0.520   6.981
91965SOL    HW177792   9.620   0.572   6.949
91965SOL    HW277793   9.763   0.535   6.916
91966SOL     OW77794  12.970   9.465  13.865
91966SOL    HW177795  13.058   9.444  13.834
91966SOL    HW277796  12.983   9.537  13.927
91967SOL     OW77797   6.496   9.415  11.643
91967SOL    HW177798   6.518   9.508  11.643
91967SOL    HW277799   6.419   9.409  11.700
91968SOL     OW77800   2.757  14.585  12.074
91968SOL    HW177801   2.716  14.566  11.989
91968SOL    HW277802   2.839  14.535  12.072
91969SOL     OW77803  14.700   3.527   0.180
91969SOL    HW177804  14.628   3.466   0.165
91969SOL    HW277805  14.707   3.576   0.097
91970SOL     OW77806   6.164  14.484  11.902
91970SOL    HW177807   6.075  14.489  11.939
91970SOL    HW277808   6.204  14.409  11.946
91971SOL     OW77809   3.991   6.958   4.711
91971SOL    HW177810   3.929   7.030   4.712
91971SOL    HW277811   4.077   7.000   4.714
91972SOL     OW77812   6.128   5.876  11.643
91972SOL    HW177813   6.109   5.942  11.576
91972SOL    HW277814   6.157   5.926  11.719
91973SOL     OW77815   4.701   8.749  14.536
91973SOL    HW177816   4.640   8.793  14.477
91973SOL    HW277817   4.679   8.783  14.623
91974SOL     OW77818  11.260   5.346  13.049
91974SOL    HW177819  11.265   5.306  13.136
91974SOL    HW277820  11.351   5.365  13.026
91975SOL     OW77821   7.714  12.405   7.946
91975SOL    HW177822   7.794  12.453   7.928
91975SOL    HW277823   7.658  12.468   7.992
91976SOL     OW77824   9.903   3.437   7.700
91976SOL    HW177825   9.864   3.523   7.687
91976SOL    HW277826   9.944   3.442   7.786
91977SOL     OW77827  12.409   1.625  13.406
91977SOL    HW177828  12.323   1.639  13.366
91977SOL    HW277829  12.469   1.678  13.353
91978SOL     OW77830   4.294  12.951   8.535
91978SOL    HW177831   4.288  12.932   8.441
91978SOL    HW277832   4.204  12.968   8.562
91979SOL     OW77833   9.461  10.309   7.551
91979SOL    HW177834   9.506  10.240   7.502
91979SOL    HW277835   9.529  10.348   7.606
91980SOL     OW77836  10.485  12.815   4.043
91980SOL    HW177837  10.476  12.880   3.973
91980SOL    HW277838  10.455  12.733   4.004
91981SOL     OW77839   4.525   2.342   5.566
91981SOL    HW177840   4.582   2.381   5.633
91981SOL    HW277841   4.474   2.277   5.614
91982SOL     OW77842  12.068  14.117   6.562
91982SOL    HW177843  12.162  14.132   6.576
91982SOL    HW277844  12.065  14.058   6.486
91983SOL     OW77845  13.780   5.289   3.456
91983SOL    HW177846  13.784   5.210   3.510
91983SOL    HW277847  13.793   5.258   3.367
91984SOL     OW77848  10.125   1.939  11.690
91984SOL    HW177849  10.092   1.850  11.673
91984SOL    HW277850  10.060   1.996  11.649
91985SOL     OW77851   7.238  10.268   8.389
91985SOL    HW177852   7.163  10.214   8.413
91985SOL    HW277853   7.308  10.237   8.447
91986SOL     OW77854   4.040   0.727   3.880
91986SOL    HW177855   3.950   0.694   3.879
91986SOL    HW277856   4.040   0.795   3.948
91987SOL     OW77857   8.300   5.232  11.939
91987SOL    HW177858   8.354   5.308  11.965
91987SOL    HW277859   8.212   5.255  11.967
91988SOL     OW77860  12.523  13.618   7.624
91988SOL    HW177861  12.535  13.645   7.533
91988SOL    HW277862  12.589  13.667   7.673
91989SOL     OW77863   4.084   0.420   8.458
91989SOL    HW177864   4.163   0.369   8.477
91989SOL    HW277865   4.057   0.454   8.543
91990SOL     OW77866  13.622  10.014   2.393
91990SOL    HW177867  13.567   9.944   2.360
91990SOL    HW277868  13.561  10.075   2.435
91991SOL     OW77869  14.209   6.347   8.389
91991SOL    HW177870  14.256   6.299   8.321
91991SOL    HW277871  14.155   6.281   8.432
91992SOL     OW77872   4.146   7.592   4.802
91992SOL    HW177873   4.069   7.644   4.780
91992SOL    HW277874   4.116   7.501   4.796
91993SOL     OW77875   5.438  13.314   2.229
91993SOL    HW177876   5.438  13.409   2.240
91993SOL    HW277877   5.481  13.300   2.145
91994SOL     OW77878   6.016   8.700   9.316
91994SOL    HW177879   6.059   8.657   9.390
91994SOL    HW277880   6.034   8.644   9.241
91995SOL     OW77881   5.494   8.386   5.979
91995SOL    HW177882   5.506   8.459   5.917
91995SOL    HW277883   5.461   8.315   5.925
91996SOL     OW77884   3.329  10.873   2.942
91996SOL    HW177885   3.262  10.900   3.004
91996SOL    HW277886   3.401  10.842   2.996
91997SOL     OW77887  13.984   0.251  10.820
91997SOL    HW177888  13.940   0.312  10.760
91997SOL    HW277889  13.946   0.269  10.906
91998SOL     OW77890  13.532   7.759   4.971
91998SOL    HW177891  13.596   7.724   5.033
91998SOL    HW277892  13.553   7.852   4.963
91999SOL     OW77893   4.482   1.934   3.357
91999SOL    HW177894   4.422   1.945   3.284
91999SOL    HW277895   4.435   1.969   3.433
92000SOL     OW77896  10.109   7.937   2.896
92000SOL    HW177897  10.087   8.020   2.854
92000SOL    HW277898  10.096   7.954   2.989
92001SOL     OW77899   2.480   5.822   2.070
92001SOL    HW177900   2.390   5.821   2.105
92001SOL    HW277901   2.508   5.912   2.081
92002SOL     OW77902   1.955   9.830   2.744
92002SOL    HW177903   1.875   9.864   2.784
92002SOL    HW277904   2.009   9.908   2.728
92003SOL     OW77905  10.923   9.146   4.778
92003SOL    HW177906  10.849   9.173   4.724
92003SOL    HW277907  10.887   9.141   4.867
92004SOL     OW77908  13.912   7.743  13.037
92004SOL    HW177909  13.985   7.801  13.017
92004SOL    HW277910  13.893   7.760  13.129
92005SOL     OW77911  10.428   3.813   5.379
92005SOL    HW177912  10.382   3.852   5.305
92005SOL    HW277913  10.493   3.879   5.404
92006SOL     OW77914  13.545  12.533   0.545
92006SOL    HW177915  13.523  12.601   0.608
92006SOL    HW277916  13.617  12.484   0.586
92007SOL     OW77917  14.364   8.066   1.092
92007SOL    HW177918  14.281   8.027   1.118
92007SOL    HW277919  14.431   8.009   1.130
92008SOL     OW77920   1.173   8.685   7.374
92008SOL    HW177921   1.244   8.655   7.431
92008SOL    HW277922   1.160   8.777   7.398
92009SOL     OW77923  13.614   0.586  10.850
92009SOL    HW177924  13.657   0.533  10.783
92009SOL    HW277925  13.687   0.627  10.898
92010SOL     OW77926   5.033   2.262  13.378
92010SOL    HW177927   5.102   2.318  13.414
92010SOL    HW277928   4.952   2.304  13.408
92011SOL     OW77929  11.756   8.239   0.625
92011SOL    HW177930  11.799   8.275   0.548
92011SOL    HW277931  11.794   8.287   0.699
92012SOL     OW77932   8.321   0.324   1.156
92012SOL    HW177933   8.355   0.247   1.110
92012SOL    HW277934   8.309   0.390   1.087
92013SOL     OW77935   7.515  13.063  14.508
92013SOL    HW177936   7.434  13.031  14.469
92013SOL    HW277937   7.487  13.116  14.582
92014SOL     OW77938   6.263   8.583  13.977
92014SOL    HW177939   6.248   8.489  13.966
92014SOL    HW277940   6.195   8.611  14.038
92015SOL     OW77941   8.196  14.344  11.121
92015SOL    HW177942   8.130  14.290  11.164
92015SOL    HW277943   8.263  14.281  11.092
92016SOL     OW77944   8.320  11.552   0.443
92016SOL    HW177945   8.341  11.480   0.382
92016SOL    HW277946   8.339  11.631   0.394
92017SOL     OW77947   9.492   7.050   6.611
92017SOL    HW177948   9.448   7.109   6.548
92017SOL    HW277949   9.426   6.983   6.630
92018SOL     OW77950   5.184  11.356  10.163
92018SOL    HW177951   5.186  11.270  10.121
92018SOL    HW277952   5.112  11.402  10.120
92019SOL     OW77953   6.416   2.465   2.078
92019SOL    HW177954   6.371   2.442   2.160
92019SOL    HW277955   6.355   2.524   2.033
92020SOL     OW77956   2.509   8.654  14.785
92020SOL    HW177957   2.566   8.577  14.783
92020SOL    HW277958   2.566   8.727  14.763
92021SOL     OW77959   2.228  11.620  12.573
92021SOL    HW177960   2.256  11.712  12.573
92021SOL    HW277961   2.170  11.612  12.498
92022SOL     OW77962   7.553  11.726   9.762
92022SOL    HW177963   7.487  11.703   9.827
92022SOL    HW277964   7.628  11.758   9.813
92023SOL     OW77965   8.593  11.731   4.706
92023SOL    HW177966   8.654  11.791   4.663
92023SOL    HW277967   8.507  11.755   4.671
92024SOL     OW77968   6.244   1.822  14.510
92024SOL    HW177969   6.284   1.902  14.546
92024SOL    HW277970   6.318   1.768  14.482
92025SOL     OW77971   8.327   9.813   4.974
92025SOL    HW177972   8.351   9.721   4.975
92025SOL    HW277973   8.251   9.819   5.031
92026SOL     OW77974  14.105  14.046   8.692
92026SOL    HW177975  14.079  14.040   8.600
92026SOL    HW277976  14.179  14.107   8.693
92027SOL     OW77977  12.497   1.659   6.825
92027SOL    HW177978  12.448   1.578   6.838
92027SOL    HW277979  12.439   1.728   6.857
92028SOL     OW77980   7.505   5.103   1.304
92028SOL    HW177981   7.413   5.085   1.285
92028SOL    HW277982   7.521   5.189   1.265
92029SOL     OW77983  11.993   4.564   2.367
92029SOL    HW177984  11.924   4.503   2.340
92029SOL    HW277985  12.074   4.521   2.340
92030SOL     OW77986  10.441  10.975   5.246
92030SOL    HW177987  10.434  10.925   5.164
92030SOL    HW277988  10.493  11.052   5.222
92031SOL     OW77989  10.800  14.485   2.673
92031SOL    HW177990  10.840  14.526   2.750
92031SOL    HW277991  10.735  14.424   2.709
92032SOL     OW77992   8.980   3.475  13.683
92032SOL    HW177993   8.942   3.555  13.718
92032SOL    HW277994   9.055   3.504  13.631
92033SOL     OW77995   4.771   7.929   0.633
92033SOL    HW177996   4.763   7.834   0.641
92033SOL    HW277997   4.860   7.943   0.602
92034SOL     OW77998   4.272   0.308  10.569
92034SOL    HW177999   4.234   0.235  10.520
92034SOL    HW278000   4.340   0.343  10.510
92035SOL     OW78001   1.193   4.778   9.048
92035SOL    HW178002   1.147   4.695   9.053
92035SOL    HW278003   1.198   4.809   9.138
92036SOL     OW78004   9.173   2.100   0.723
92036SOL    HW178005   9.082   2.090   0.751
92036SOL    HW278006   9.214   2.016   0.745
92037SOL     OW78007  10.710   0.161  12.651
92037SOL    HW178008  10.689   0.068  12.664
92037SOL    HW278009  10.628   0.206  12.669
92038SOL     OW78010   7.037   0.266  13.219
92038SOL    HW178011   7.093   0.188  13.221
92038SOL    HW278012   6.967   0.246  13.281
92039SOL     OW78013   5.635  10.718  11.057
92039SOL    HW178014   5.690  10.782  11.101
92039SOL    HW278015   5.584  10.769  10.994
92040SOL     OW78016  12.795  13.907   3.233
92040SOL    HW178017  12.859  13.836   3.239
92040SOL    HW278018  12.818  13.965   3.305
92041SOL     OW78019  11.839  13.054   8.776
92041SOL    HW178020  11.862  12.963   8.758
92041SOL    HW278021  11.918  13.104   8.753
92042SOL     OW78022   8.129   1.129   0.231
92042SOL    HW178023   8.174   1.191   0.173
92042SOL    HW278024   8.039   1.128   0.199
92043SOL     OW78025   0.152  13.008  14.591
92043SOL    HW178026   0.164  12.956  14.671
92043SOL    HW278027   0.070  12.975  14.554
92044SOL     OW78028  14.369   2.221   8.067
92044SOL    HW178029  14.440   2.281   8.088
92044SOL    HW278030  14.324   2.208   8.151
92045SOL     OW78031  12.000  12.883   6.603
92045SOL    HW178032  12.043  12.872   6.688
92045SOL    HW278033  12.026  12.970   6.573
92046SOL     OW78034   0.027   7.042   4.308
92046SOL    HW178035   0.042   7.004   4.394
92046SOL    HW278036   0.047   6.972   4.246
92047SOL     OW78037  12.897   5.689   0.367
92047SOL    HW178038  12.810   5.712   0.336
92047SOL    HW278039  12.920   5.760   0.427
92048SOL     OW78040   5.174  14.793  14.374
92048SOL    HW178041   5.183  14.844  14.293
92048SOL    HW278042   5.087  14.755  14.368
92049SOL     OW78043   0.730  13.721   4.323
92049SOL    HW178044   0.684  13.673   4.253
92049SOL    HW278045   0.726  13.663   4.398
92050SOL     OW78046   9.686   3.292   2.068
92050SOL    HW178047   9.738   3.372   2.081
92050SOL    HW278048   9.601   3.312   2.108
92051SOL     OW78049  12.102   5.907   4.407
92051SOL    HW178050  12.132   5.997   4.418
92051SOL    HW278051  12.014   5.906   4.444
92052SOL     OW78052  11.969   7.859   4.438
92052SOL    HW178053  11.927   7.831   4.519
92052SOL    HW278054  12.054   7.894   4.466
92053SOL     OW78055   5.554   9.177   0.067
92053SOL    HW178056   5.612   9.231   0.013
92053SOL    HW278057   5.466   9.200   0.039
92054SOL     OW78058   9.525   0.035  14.336
92054SOL    HW178059   9.526  14.850  14.263
92054SOL    HW278060   9.595   0.005  14.394
92055SOL     OW78061  11.559  11.948   4.404
92055SOL    HW178062  11.617  12.011   4.361
92055SOL    HW278063  11.619  11.889   4.451
92056SOL     OW78064  10.560  14.143   8.243
92056SOL    HW178065  10.559  14.235   8.217
92056SOL    HW278066  10.497  14.138   8.315
92057SOL     OW78067   6.109   5.561   3.849
92057SOL    HW178068   6.182   5.571   3.910
92057SOL    HW278069   6.104   5.467   3.833
92058SOL     OW78070   6.586  14.733   4.335
92058SOL    HW178071   6.567  14.696   4.421
92058SOL    HW278072   6.593  14.657   4.277
92059SOL     OW78073  12.844   2.491  13.152
92059SOL    HW178074  12.820   2.463  13.241
92059SOL    HW278075  12.908   2.426  13.123
92060SOL     OW78076   0.035  14.875   2.402
92060SOL    HW178077   0.067   0.052   2.474
92060SOL    HW278078   0.102   0.005   2.334
92061SOL     OW78079   5.375   2.965   0.130
92061SOL    HW178080   5.440   2.896   0.140
92061SOL    HW278081   5.295   2.929   0.168
92062SOL     OW78082  11.671   7.369   9.248
92062SOL    HW178083  11.601   7.316   9.211
92062SOL    HW278084  11.660   7.456   9.209
92063SOL     OW78085   4.065   4.295  13.072
92063SOL    HW178086   3.999   4.352  13.109
92063SOL    HW278087   4.147   4.345  13.078
92064SOL     OW78088  12.588  11.391   6.635
92064SOL    HW178089  12.580  11.308   6.588
92064SOL    HW278090  12.498  11.425   6.638
92065SOL     OW78091   2.539  12.151   6.847
92065SOL    HW178092   2.530  12.117   6.758
92065SOL    HW278093   2.553  12.074   6.902
92066SOL     OW78094   1.343  11.023  10.931
92066SOL    HW178095   1.248  11.023  10.920
92066SOL    HW278096   1.357  11.004  11.023
92067SOL     OW78097   5.936   3.866   5.963
92067SOL    HW178098   5.894   3.948   5.937
92067SOL    HW278099   5.939   3.869   6.058
92068SOL     OW78100   0.727  13.880   9.832
92068SOL    HW178101   0.710  13.884   9.926
92068SOL    HW278102   0.819  13.903   9.823
92069SOL     OW78103   1.479   8.338  13.078
92069SOL    HW178104   1.534   8.260  13.089
92069SOL    HW278105   1.428   8.342  13.159
92070SOL     OW78106   2.664  13.864   8.528
92070SOL    HW178107   2.705  13.787   8.567
92070SOL    HW278108   2.670  13.849   8.434
92071SOL     OW78109   2.344   9.363  14.684
92071SOL    HW178110   2.320   9.448  14.722
92071SOL    HW278111   2.427   9.342  14.725
92072SOL     OW78112   6.008  14.314   0.228
92072SOL    HW178113   5.945  14.263   0.178
92072SOL    HW278114   6.025  14.391   0.174
92073SOL     OW78115  10.064   8.649   8.982
92073SOL    HW178116  10.002   8.590   8.940
92073SOL    HW278117  10.151   8.614   8.961
92074SOL     OW78118   7.675   5.705   2.521
92074SOL    HW178119   7.751   5.666   2.564
92074SOL    HW278120   7.602   5.648   2.544
92075SOL     OW78121   4.253  14.583   8.722
92075SOL    HW178122   4.309  14.509   8.699
92075SOL    HW278123   4.228  14.568   8.813
92076SOL     OW78124  10.678   5.419   6.998
92076SOL    HW178125  10.703   5.479   7.068
92076SOL    HW278126  10.668   5.475   6.921
92077SOL     OW78127   5.071   9.657   6.243
92077SOL    HW178128   5.059   9.646   6.149
92077SOL    HW278129   4.989   9.696   6.273
92078SOL     OW78130   4.148  12.237   0.003
92078SOL    HW178131   4.128  12.286   0.083
92078SOL    HW278132   4.065  12.234  14.833
92079SOL     OW78133  13.256   8.260  12.444
92079SOL    HW178134  13.341   8.247  12.403
92079SOL    HW278135  13.275   8.273  12.537
92080SOL     OW78136   0.773   8.726  13.819
92080SOL    HW178137   0.717   8.680  13.881
92080SOL    HW278138   0.846   8.665  13.803
92081SOL     OW78139  12.287   9.530   6.089
92081SOL    HW178140  12.239   9.579   6.155
92081SOL    HW278141  12.326   9.457   6.137
92082SOL     OW78142  13.104   4.272  14.705
92082SOL    HW178143  13.099   4.178  14.723
92082SOL    HW278144  13.055   4.284  14.624
92083SOL     OW78145   3.866  10.420   7.155
92083SOL    HW178146   3.866  10.384   7.066
92083SOL    HW278147   3.774  10.438   7.174
92084SOL     OW78148   7.123   4.460   1.842
92084SOL    HW178149   7.027   4.465   1.839
92084SOL    HW278150   7.151   4.552   1.838
92085SOL     OW78151   0.641   4.281   1.234
92085SOL    HW178152   0.555   4.245   1.214
92085SOL    HW278153   0.675   4.223   1.303
92086SOL     OW78154   7.065   2.060   7.711
92086SOL    HW178155   7.120   2.136   7.691
92086SOL    HW278156   6.976   2.093   7.706
92087SOL     OW78157  10.354  10.272   6.752
92087SOL    HW178158  10.423  10.257   6.817
92087SOL    HW278159  10.352  10.191   6.701
92088SOL     OW78160   2.027   4.573   6.665
92088SOL    HW178161   2.021   4.666   6.646
92088SOL    HW278162   2.055   4.568   6.757
92089SOL     OW78163   8.048   8.672   8.706
92089SOL    HW178164   8.041   8.763   8.734
92089SOL    HW278165   8.012   8.621   8.780
92090SOL     OW78166   4.481   1.793   6.537
92090SOL    HW178167   4.556   1.734   6.531
92090SOL    HW278168   4.478   1.820   6.629
92091SOL     OW78169   9.846  13.361   4.386
92091SOL    HW178170   9.840  13.374   4.291
92091SOL    HW278171   9.884  13.273   4.396
92092SOL     OW78172   2.009   0.249  13.049
92092SOL    HW178173   1.958   0.285  13.121
92092SOL    HW278174   2.026   0.323  12.992
92093SOL     OW78175  11.468   2.797   2.793
92093SOL    HW178176  11.397   2.733   2.800
92093SOL    HW278177  11.439   2.860   2.728
92094SOL     OW78178   4.859   0.287  12.806
92094SOL    HW178179   4.837   0.372  12.767
92094SOL    HW278180   4.791   0.228  12.774
92095SOL     OW78181   4.980  10.090  13.292
92095SOL    HW178182   5.063  10.132  13.269
92095SOL    HW278183   4.918  10.122  13.226
92096SOL     OW78184  10.297  12.882   9.000
92096SOL    HW178185  10.203  12.869   8.992
92096SOL    HW278186  10.308  12.931   9.082
92097SOL     OW78187   1.405   7.353   0.688
92097SOL    HW178188   1.431   7.424   0.746
92097SOL    HW278189   1.368   7.287   0.747
92098SOL     OW78190  12.745  11.847   8.693
92098SOL    HW178191  12.828  11.895   8.688
92098SOL    HW278192  12.690  11.887   8.627
92099SOL     OW78193   5.893   3.446   2.733
92099SOL    HW178194   5.801   3.472   2.735
92099SOL    HW278195   5.898   3.382   2.661
92100SOL     OW78196  14.228  14.124  10.470
92100SOL    HW178197  14.310  14.091  10.436
92100SOL    HW278198  14.202  14.193  10.409
92101SOL     OW78199   6.765  10.380   8.287
92101SOL    HW178200   6.672  10.403   8.281
92101SOL    HW278201   6.781  10.324   8.211
92102SOL     OW78202   6.287  12.544   9.440
92102SOL    HW178203   6.226  12.493   9.493
92102SOL    HW278204   6.231  12.599   9.385
92103SOL     OW78205   5.662  10.807   6.620
92103SOL    HW178206   5.708  10.746   6.679
92103SOL    HW278207   5.703  10.892   6.638
92104SOL     OW78208   5.479   0.703   8.473
92104SOL    HW178209   5.385   0.701   8.489
92104SOL    HW278210   5.486   0.715   8.378
92105SOL     OW78211  11.266  11.901   6.161
92105SOL    HW178212  11.260  11.815   6.120
92105SOL    HW278213  11.239  11.963   6.094
92106SOL     OW78214   8.818  10.927   7.134
92106SOL    HW178215   8.842  10.875   7.211
92106SOL    HW278216   8.723  10.938   7.142
92107SOL     OW78217   3.549  10.775   7.455
92107SOL    HW178218   3.480  10.727   7.410
92107SOL    HW278219   3.504  10.828   7.520
92108SOL     OW78220  13.294   1.350   6.934
92108SOL    HW178221  13.282   1.281   6.999
92108SOL    HW278222  13.311   1.429   6.985
92109SOL     OW78223   2.084   3.067   2.892
92109SOL    HW178224   2.000   3.072   2.846
92109SOL    HW278225   2.134   3.142   2.859
92110SOL     OW78226   9.034   7.133   0.473
92110SOL    HW178227   9.073   7.194   0.410
92110SOL    HW278228   9.021   7.052   0.422
92111SOL     OW78229   9.584   4.930   2.833
92111SOL    HW178230   9.568   4.885   2.916
92111SOL    HW278231   9.658   4.883   2.795
92112SOL     OW78232  14.779   9.493   9.790
92112SOL    HW178233  14.845   9.442   9.744
92112SOL    HW278234  14.716   9.429   9.821
92113SOL     OW78235   4.813  12.624   5.441
92113SOL    HW178236   4.868  12.611   5.518
92113SOL    HW278237   4.777  12.537   5.423
92114SOL     OW78238  12.738   4.605   3.196
92114SOL    HW178239  12.746   4.686   3.247
92114SOL    HW278240  12.799   4.544   3.237
92115SOL     OW78241   1.814   1.527   0.218
92115SOL    HW178242   1.889   1.492   0.170
92115SOL    HW278243   1.791   1.457   0.280
92116SOL     OW78244   4.273   4.402   4.904
92116SOL    HW178245   4.178   4.393   4.888
92116SOL    HW278246   4.309   4.427   4.819
92117SOL     OW78247   9.401   3.766   6.640
92117SOL    HW178248   9.434   3.755   6.729
92117SOL    HW278249   9.355   3.850   6.642
92118SOL     OW78250   2.874  12.034   5.534
92118SOL    HW178251   2.921  12.041   5.617
92118SOL    HW278252   2.824  12.115   5.529
92119SOL     OW78253   5.848   7.445  10.190
92119SOL    HW178254   5.858   7.522  10.246
92119SOL    HW278255   5.754   7.440  10.173
92120SOL     OW78256   6.891   5.461   1.673
92120SOL    HW178257   6.831   5.402   1.628
92120SOL    HW278258   6.895   5.538   1.618
92121SOL     OW78259  14.562  13.896  13.342
92121SOL    HW178260  14.507  13.828  13.302
92121SOL    HW278261  14.508  13.932  13.412
92122SOL     OW78262   1.380   3.549   3.892
92122SOL    HW178263   1.296   3.504   3.880
92122SOL    HW278264   1.420   3.549   3.805
92123SOL     OW78265  11.908   2.104  10.851
92123SOL    HW178266  11.978   2.045  10.880
92123SOL    HW278267  11.853   2.050  10.794
92124SOL     OW78268   8.965   4.871   1.957
92124SOL    HW178269   8.937   4.845   2.045
92124SOL    HW278270   9.050   4.830   1.946
92125SOL     OW78271   8.878   5.850   0.337
92125SOL    HW178272   8.867   5.794   0.414
92125SOL    HW278273   8.917   5.931   0.372
92126SOL     OW78274   5.924  10.957   0.507
92126SOL    HW178275   6.011  10.917   0.497
92126SOL    HW278276   5.894  10.928   0.593
92127SOL     OW78277   8.755   2.616   6.822
92127SOL    HW178278   8.703   2.562   6.762
92127SOL    HW278279   8.841   2.576   6.821
92128SOL     OW78280  13.125   1.489   3.650
92128SOL    HW178281  13.138   1.558   3.715
92128SOL    HW278282  13.213   1.472   3.616
92129SOL     OW78283   7.257   6.416  12.518
92129SOL    HW178284   7.198   6.402  12.444
92129SOL    HW278285   7.327   6.471  12.485
92130SOL     OW78286  12.778   1.871  11.833
92130SOL    HW178287  12.778   1.902  11.923
92130SOL    HW278288  12.769   1.950  11.780
92131SOL     OW78289   3.758   6.758   1.736
92131SOL    HW178290   3.836   6.802   1.768
92131SOL    HW278291   3.788   6.704   1.663
92132SOL     OW78292   3.113   8.703   2.484
92132SOL    HW178293   3.133   8.609   2.487
92132SOL    HW278294   3.126   8.727   2.393
92133SOL     OW78295   2.454   6.003   0.541
92133SOL    HW178296   2.535   5.966   0.576
92133SOL    HW278297   2.457   6.095   0.567
92134SOL     OW78298   0.448  10.172  12.184
92134SOL    HW178299   0.354  10.183  12.171
92134SOL    HW278300   0.483  10.161  12.095
92135SOL     OW78301  14.237   4.201   5.858
92135SOL    HW178302  14.209   4.175   5.770
92135SOL    HW278303  14.171   4.264   5.886
92136SOL     OW78304   2.408   0.093   5.750
92136SOL    HW178305   2.379   0.078   5.659
92136SOL    HW278306   2.480   0.031   5.762
92137SOL     OW78307   5.145  13.793   1.010
92137SOL    HW178308   5.147  13.760   0.920
92137SOL    HW278309   5.105  13.880   1.003
92138SOL     OW78310   4.430   9.880   9.190
92138SOL    HW178311   4.417   9.826   9.268
92138SOL    HW278312   4.359   9.945   9.194
92139SOL     OW78313   4.524   9.397   0.405
92139SOL    HW178314   4.435   9.371   0.429
92139SOL    HW278315   4.535   9.483   0.444
92140SOL     OW78316   9.235   2.050   9.649
92140SOL    HW178317   9.311   2.055   9.592
92140SOL    HW278318   9.161   2.075   9.593
92141SOL     OW78319   2.176   7.353   5.068
92141SOL    HW178320   2.146   7.285   5.128
92141SOL    HW278321   2.217   7.306   4.996
92142SOL     OW78322   1.136   8.605  10.868
92142SOL    HW178323   1.127   8.553  10.947
92142SOL    HW278324   1.151   8.694  10.899
92143SOL     OW78325  13.579   3.889   1.530
92143SOL    HW178326  13.639   3.889   1.605
92143SOL    HW278327  13.588   3.976   1.492
92144SOL     OW78328   5.195   8.380   0.844
92144SOL    HW178329   5.238   8.407   0.763
92144SOL    HW278330   5.178   8.462   0.891
92145SOL     OW78331   8.782   4.486   1.115
92145SOL    HW178332   8.735   4.472   1.197
92145SOL    HW278333   8.759   4.410   1.061
92146SOL     OW78334  12.148  13.738   2.047
92146SOL    HW178335  12.190  13.818   2.078
92146SOL    HW278336  12.082  13.718   2.113
92147SOL     OW78337  11.031   9.216   1.289
92147SOL    HW178338  11.013   9.123   1.301
92147SOL    HW278339  10.960   9.247   1.233
92148SOL     OW78340   9.392   6.189  14.386
92148SOL    HW178341   9.450   6.118  14.411
92148SOL    HW278342   9.316   6.180  14.444
92149SOL     OW78343   0.824   6.049   9.249
92149SOL    HW178344   0.758   6.111   9.220
92149SOL    HW278345   0.828   5.983   9.180
92150SOL     OW78346  10.656  10.719   9.663
92150SOL    HW178347  10.591  10.661   9.702
92150SOL    HW278348  10.652  10.799   9.716
92151SOL     OW78349  10.886   0.640   6.160
92151SOL    HW178350  10.796   0.672   6.155
92151SOL    HW278351  10.897   0.587   6.081
92152SOL     OW78352   2.570   0.278  12.337
92152SOL    HW178353   2.590   0.294  12.245
92152SOL    HW278354   2.515   0.200  12.337
92153SOL     OW78355  10.498   2.243   2.254
92153SOL    HW178356  10.478   2.149   2.264
92153SOL    HW278357  10.539   2.249   2.168
92154SOL     OW78358  11.611   6.181   2.799
92154SOL    HW178359  11.537   6.197   2.740
92154SOL    HW278360  11.689   6.196   2.745
92155SOL     OW78361   4.607   3.864   0.751
92155SOL    HW178362   4.631   3.956   0.763
92155SOL    HW278363   4.688   3.816   0.770
92156SOL     OW78364   5.443  13.606  13.046
92156SOL    HW178365   5.439  13.549  13.122
92156SOL    HW278366   5.352  13.627  13.026
92157SOL     OW78367   5.151   4.289   5.608
92157SOL    HW178368   5.105   4.210   5.578
92157SOL    HW278369   5.132   4.355   5.542
92158SOL     OW78370  13.260   3.681  13.822
92158SOL    HW178371  13.297   3.660  13.908
92158SOL    HW278372  13.229   3.597  13.788
92159SOL     OW78373   9.919   1.303  10.822
92159SOL    HW178374   9.925   1.228  10.880
92159SOL    HW278375   9.918   1.379  10.880
92160SOL     OW78376   8.127   1.069   5.884
92160SOL    HW178377   8.060   1.099   5.945
92160SOL    HW278378   8.200   1.042   5.940
92161SOL     OW78379  14.113   1.055  10.034
92161SOL    HW178380  14.060   1.107   9.973
92161SOL    HW278381  14.192   1.107  10.046
92162SOL     OW78382   9.396   4.117   2.168
92162SOL    HW178383   9.491   4.124   2.180
92162SOL    HW278384   9.362   4.203   2.192
92163SOL     OW78385  14.189   1.425   8.507
92163SOL    HW178386  14.126   1.470   8.451
92163SOL    HW278387  14.140   1.405   8.587
92164SOL     OW78388   5.929  11.514  11.492
92164SOL    HW178389   5.977  11.432  11.505
92164SOL    HW278390   5.997  11.580  11.481
92165SOL     OW78391   0.349  13.902   6.718
92165SOL    HW178392   0.327  13.991   6.744
92165SOL    HW278393   0.308  13.891   6.632
92166SOL     OW78394  14.076  13.445   4.981
92166SOL    HW178395  14.006  13.381   4.992
92166SOL    HW278396  14.153  13.393   4.960
92167SOL     OW78397   2.435   1.560  10.766
92167SOL    HW178398   2.499   1.496  10.736
92167SOL    HW278399   2.487   1.631  10.802
92168SOL     OW78400   1.368   4.615  14.854
92168SOL    HW178401   1.297   4.567  14.811
92168SOL    HW278402   1.348   4.609   0.069
92169SOL     OW78403   0.005  11.891   5.109
92169SOL    HW178404  14.804  11.873   5.161
92169SOL    HW278405  14.855  11.955   5.044
92170SOL     OW78406  11.526   5.745   1.010
92170SOL    HW178407  11.533   5.705   1.096
92170SOL    HW278408  11.573   5.686   0.951
92171SOL     OW78409  13.279   7.590   2.351
92171SOL    HW178410  13.348   7.656   2.366
92171SOL    HW278411  13.327   7.508   2.343
92172SOL     OW78412   0.480  12.212   6.157
92172SOL    HW178413   0.447  12.289   6.111
92172SOL    HW278414   0.537  12.248   6.225
92173SOL     OW78415   0.146   0.029   9.186
92173SOL    HW178416   0.064   0.070   9.214
92173SOL    HW278417   0.149  14.824   9.233
92174SOL     OW78418  12.056  13.488   0.802
92174SOL    HW178419  12.089  13.577   0.792
92174SOL    HW278420  12.003  13.473   0.724
92175SOL     OW78421   0.824  13.261   5.537
92175SOL    HW178422   0.820  13.350   5.571
92175SOL    HW278423   0.896  13.261   5.474
92176SOL     OW78424   3.477   1.743  11.715
92176SOL    HW178425   3.402   1.773  11.767
92176SOL    HW278426   3.525   1.685  11.773
92177SOL     OW78427   1.350  11.970   3.456
92177SOL    HW178428   1.314  12.032   3.519
92177SOL    HW278429   1.273  11.933   3.412
92178SOL     OW78430  10.806   6.846   4.796
92178SOL    HW178431  10.804   6.828   4.702
92178SOL    HW278432  10.859   6.926   4.804
92179SOL     OW78433   6.571   3.956   2.541
92179SOL    HW178434   6.574   3.931   2.448
92179SOL    HW278435   6.499   4.019   2.546
92180SOL     OW78436  13.058   6.307  11.506
92180SOL    HW178437  13.015   6.256  11.437
92180SOL    HW278438  13.119   6.364  11.459
92181SOL     OW78439   8.650   8.032   5.105
92181SOL    HW178440   8.617   8.086   5.177
92181SOL    HW278441   8.745   8.047   5.106
92182SOL     OW78442   7.753  10.918  11.039
92182SOL    HW178443   7.683  10.975  11.007
92182SOL    HW278444   7.764  10.853  10.969
92183SOL     OW78445  13.497  10.523   7.832
92183SOL    HW178446  13.434  10.455   7.856
92183SOL    HW278447  13.542  10.488   7.755
92184SOL     OW78448   6.818  10.949   7.465
92184SOL    HW178449   6.744  11.008   7.451
92184SOL    HW278450   6.890  10.991   7.418
92185SOL     OW78451   3.077   0.909   4.807
92185SOL    HW178452   3.130   0.987   4.792
92185SOL    HW278453   2.993   0.944   4.838
92186SOL     OW78454   0.055   0.693  12.641
92186SOL    HW178455   0.150   0.703  12.639
92186SOL    HW278456   0.034   0.674  12.732
92187SOL     OW78457  12.651   8.689  12.377
92187SOL    HW178458  12.568   8.642  12.383
92187SOL    HW278459  12.632   8.762  12.318
92188SOL     OW78460  13.109   3.195  10.047
92188SOL    HW178461  13.172   3.242   9.993
92188SOL    HW278462  13.163   3.148  10.111
92189SOL     OW78463   8.945   5.468   1.841
92189SOL    HW178464   9.038   5.473   1.820
92189SOL    HW278465   8.935   5.522   1.919
92190SOL     OW78466   6.711   0.641   3.624
92190SOL    HW178467   6.687   0.730   3.599
92190SOL    HW278468   6.738   0.647   3.715
92191SOL     OW78469   7.226   4.013   0.780
92191SOL    HW178470   7.225   4.076   0.853
92191SOL    HW278471   7.316   4.017   0.747
92192SOL     OW78472  12.282   4.534   7.202
92192SOL    HW178473  12.230   4.558   7.126
92192SOL    HW278474  12.373   4.550   7.176
92193SOL     OW78475  14.082   9.737  14.293
92193SOL    HW178476  14.166   9.763  14.255
92193SOL    HW278477  14.098   9.734  14.387
92194SOL     OW78478   3.393  14.080  11.973
92194SOL    HW178479   3.392  14.176  11.963
92194SOL    HW278480   3.448  14.065  12.049
92195SOL     OW78481  12.992   0.824   2.437
92195SOL    HW178482  13.086   0.806   2.427
92195SOL    HW278483  12.965   0.857   2.351
92196SOL     OW78484  14.108   6.173  13.612
92196SOL    HW178485  14.151   6.235  13.670
92196SOL    HW278486  14.058   6.116  13.670
92197SOL     OW78487  12.278   3.695   2.251
92197SOL    HW178488  12.249   3.608   2.224
92197SOL    HW278489  12.198   3.745   2.263
92198SOL     OW78490   4.642   5.237   9.985
92198SOL    HW178491   4.643   5.219   9.891
92198SOL    HW278492   4.643   5.151  10.027
92199SOL     OW78493   0.871  10.019  10.793
92199SOL    HW178494   0.846  10.083  10.726
92199SOL    HW278495   0.789   9.981  10.822
92200SOL     OW78496  13.800   9.624  13.009
92200SOL    HW178497  13.803   9.529  13.022
92200SOL    HW278498  13.826   9.637  12.918
92201SOL     OW78499   9.893   1.823   3.640
92201SOL    HW178500   9.912   1.913   3.667
92201SOL    HW278501   9.978   1.780   3.639
92202SOL     OW78502   0.197  10.921   5.646
92202SOL    HW178503   0.119  10.955   5.603
92202SOL    HW278504   0.257  10.995   5.650
92203SOL     OW78505  12.661   5.033   8.619
92203SOL    HW178506  12.703   4.986   8.691
92203SOL    HW278507  12.577   5.061   8.655
92204SOL     OW78508  11.187   6.174   4.701
92204SOL    HW178509  11.263   6.139   4.748
92204SOL    HW278510  11.186   6.127   4.618
92205SOL     OW78511  10.541   1.177   0.935
92205SOL    HW178512  10.525   1.140   1.022
92205SOL    HW278513  10.460   1.159   0.886
92206SOL     OW78514  13.435   6.175   9.641
92206SOL    HW178515  13.432   6.230   9.564
92206SOL    HW278516  13.434   6.085   9.607
92207SOL     OW78517   2.636  11.541  12.806
92207SOL    HW178518   2.669  11.587  12.730
92207SOL    HW278519   2.551  11.506  12.778
92208SOL     OW78520  14.553  14.373   4.189
92208SOL    HW178521  14.535  14.281   4.209
92208SOL    HW278522  14.625  14.397   4.248
92209SOL     OW78523   4.124   7.140   1.583
92209SOL    HW178524   4.102   7.187   1.663
92209SOL    HW278525   4.078   7.056   1.592
92210SOL     OW78526   3.221   0.297   7.461
92210SOL    HW178527   3.251   0.371   7.513
92210SOL    HW278528   3.245   0.220   7.514
92211SOL     OW78529   3.231  12.907   5.850
92211SOL    HW178530   3.161  12.935   5.791
92211SOL    HW278531   3.246  12.815   5.829
92212SOL     OW78532  11.256   5.257  14.721
92212SOL    HW178533  11.273   5.270  14.628
92212SOL    HW278534  11.218   5.169  14.726
92213SOL     OW78535   6.273   0.899  10.526
92213SOL    HW178536   6.247   0.943  10.445
92213SOL    HW278537   6.222   0.818  10.527
92214SOL     OW78538  10.297  10.517   3.877
92214SOL    HW178539  10.236  10.473   3.937
92214SOL    HW278540  10.361  10.450   3.854
92215SOL     OW78541   5.257  11.738  11.883
92215SOL    HW178542   5.235  11.645  11.898
92215SOL    HW278543   5.353  11.740  11.884
92216SOL     OW78544  10.298   8.761  13.105
92216SOL    HW178545  10.246   8.775  13.184
92216SOL    HW278546  10.241   8.711  13.047
92217SOL     OW78547   7.595   1.532   6.282
92217SOL    HW178548   7.506   1.504   6.306
92217SOL    HW278549   7.648   1.512   6.359
92218SOL     OW78550   6.397  11.561  14.220
92218SOL    HW178551   6.437  11.489  14.172
92218SOL    HW278552   6.302  11.548  14.209
92219SOL     OW78553  10.500  12.726   6.330
92219SOL    HW178554  10.421  12.753   6.284
92219SOL    HW278555  10.566  12.717   6.261
92220SOL     OW78556   0.907   8.661   5.969
92220SOL    HW178557   0.851   8.620   5.903
92220SOL    HW278558   0.952   8.731   5.922
92221SOL     OW78559  10.262   9.090   7.212
92221SOL    HW178560  10.186   9.105   7.157
92221SOL    HW278561  10.249   9.002   7.249
92222SOL     OW78562  14.176  13.257   3.962
92222SOL    HW178563  14.243  13.195   3.934
92222SOL    HW278564  14.155  13.231   4.051
92223SOL     OW78565  12.820   3.151   2.560
92223SOL    HW178566  12.790   3.060   2.559
92223SOL    HW278567  12.913   3.145   2.536
92224SOL     OW78568   6.624   3.412  13.863
92224SOL    HW178569   6.603   3.445  13.776
92224SOL    HW278570   6.554   3.446  13.919
92225SOL     OW78571  10.614   7.354   9.395
92225SOL    HW178572  10.705   7.379   9.413
92225SOL    HW278573  10.563   7.400   9.462
92226SOL     OW78574  11.997  14.132  10.597
92226SOL    HW178575  12.093  14.129  10.593
92226SOL    HW278576  11.976  14.121  10.689
92227SOL     OW78577   6.316  10.798   1.567
92227SOL    HW178578   6.375  10.844   1.507
92227SOL    HW278579   6.242  10.857   1.578
92228SOL     OW78580  14.837   7.580   4.570
92228SOL    HW178581   0.052   7.606   4.575
92228SOL    HW278582  14.837   7.489   4.601
92229SOL     OW78583  13.388   9.855   2.340
92229SOL    HW178584  13.348   9.802   2.410
92229SOL    HW278585  13.320   9.918   2.316
92230SOL     OW78586  14.181  10.839  14.518
92230SOL    HW178587  14.095  10.847  14.561
92230SOL    HW278588  14.161  10.799  14.433
92231SOL     OW78589   8.633   1.954   9.972
92231SOL    HW178590   8.631   2.040   9.931
92231SOL    HW278591   8.582   1.898   9.914
92232SOL     OW78592  12.601   8.025   6.027
92232SOL    HW178593  12.611   8.109   5.982
92232SOL    HW278594  12.534   8.041   6.093
92233SOL     OW78595   3.845   0.628   3.594
92233SOL    HW178596   3.902   0.696   3.557
92233SOL    HW278597   3.896   0.548   3.588
92234SOL     OW78598   5.637  12.320  11.416
92234SOL    HW178599   5.640  12.279  11.503
92234SOL    HW278600   5.592  12.403  11.431
92235SOL     OW78601   7.290   1.025  10.105
92235SOL    HW178602   7.255   1.100  10.058
92235SOL    HW278603   7.324   0.967  10.036
92236SOL     OW78604   4.674  11.331   8.824
92236SOL    HW178605   4.749  11.367   8.871
92236SOL    HW278606   4.610  11.402   8.823
92237SOL     OW78607   2.427   2.723  12.541
92237SOL    HW178608   2.344   2.692  12.505
92237SOL    HW278609   2.402   2.763  12.625
92238SOL     OW78610  14.536  13.732   2.458
92238SOL    HW178611  14.453  13.742   2.411
92238SOL    HW278612  14.564  13.822   2.477
92239SOL     OW78613  14.308  11.733   2.620
92239SOL    HW178614  14.310  11.662   2.556
92239SOL    HW278615  14.308  11.689   2.705
92240SOL     OW78616   4.532   4.169  12.401
92240SOL    HW178617   4.614   4.215  12.383
92240SOL    HW278618   4.533   4.154  12.495
92241SOL     OW78619  14.128   2.210  11.529
92241SOL    HW178620  14.156   2.289  11.576
92241SOL    HW278621  14.059   2.172  11.583
92242SOL     OW78622  14.149   1.963   7.962
92242SOL    HW178623  14.121   2.038   7.909
92242SOL    HW278624  14.229   1.992   8.005
92243SOL     OW78625  13.173   0.562  14.338
92243SOL    HW178626  13.096   0.537  14.286
92243SOL    HW278627  13.231   0.486  14.332
92244SOL     OW78628   6.113   8.135   5.945
92244SOL    HW178629   6.200   8.145   5.905
92244SOL    HW278630   6.130   8.090   6.028
92245SOL     OW78631   1.583   5.695   6.612
92245SOL    HW178632   1.564   5.624   6.672
92245SOL    HW278633   1.604   5.770   6.669
92246SOL     OW78634   2.210  10.339   7.664
92246SOL    HW178635   2.253  10.291   7.735
92246SOL    HW278636   2.280  10.392   7.626
92247SOL     OW78637  13.740   0.443  13.926
92247SOL    HW178638  13.650   0.472  13.908
92247SOL    HW278639  13.730   0.370  13.987
92248SOL     OW78640   0.856   5.521   4.016
92248SOL    HW178641   0.925   5.565   4.065
92248SOL    HW278642   0.775   5.561   4.046
92249SOL     OW78643  13.166   0.988   5.623
92249SOL    HW178644  13.111   1.044   5.678
92249SOL    HW278645  13.255   1.000   5.657
92250SOL     OW78646  10.559  14.037  14.745
92250SOL    HW178647  10.597  13.999  14.825
92250SOL    HW278648  10.506  13.967  14.709
92251SOL     OW78649   5.152   4.484   4.853
92251SOL    HW178650   5.226   4.425   4.866
92251SOL    HW278651   5.144   4.491   4.758
92252SOL     OW78652   1.544  12.229   6.394
92252SOL    HW178653   1.461  12.241   6.350
92252SOL    HW278654   1.606  12.283   6.345
92253SOL     OW78655   0.931   2.379   4.229
92253SOL    HW178656   0.893   2.464   4.205
92253SOL    HW278657   1.021   2.384   4.197
92254SOL     OW78658  14.266   0.569   2.966
92254SOL    HW178659  14.263   0.513   2.888
92254SOL    HW278660  14.351   0.614   2.960
92255SOL     OW78661  13.651   7.249   4.000
92255SOL    HW178662  13.689   7.241   4.087
92255SOL    HW278663  13.574   7.304   4.012
92256SOL     OW78664   2.808  13.180   4.043
92256SOL    HW178665   2.875  13.220   3.987
92256SOL    HW278666   2.726  13.219   4.015
92257SOL     OW78667   8.044   0.233   2.070
92257SOL    HW178668   8.106   0.248   1.999
92257SOL    HW278669   8.056   0.141   2.094
92258SOL     OW78670   7.293   3.040   9.699
92258SOL    HW178671   7.275   3.124   9.658
92258SOL    HW278672   7.386   3.043   9.720
92259SOL     OW78673   9.451   7.008  12.417
92259SOL    HW178674   9.400   6.987  12.339
92259SOL    HW278675   9.400   7.075  12.462
92260SOL     OW78676   1.013  12.207   6.364
92260SOL    HW178677   0.919  12.219   6.378
92260SOL    HW278678   1.036  12.271   6.297
92261SOL     OW78679   1.668   0.998  12.793
92261SOL    HW178680   1.650   0.905  12.780
92261SOL    HW278681   1.598   1.043  12.747
92262SOL     OW78682   5.769   8.778  10.168
92262SOL    HW178683   5.750   8.748  10.079
92262SOL    HW278684   5.853   8.823  10.160
92263SOL     OW78685  13.514   7.394  12.212
92263SOL    HW178686  13.479   7.381  12.123
92263SOL    HW278687  13.541   7.306  12.239
92264SOL     OW78688   4.587   5.333  12.267
92264SOL    HW178689   4.492   5.343  12.269
92264SOL    HW278690   4.606   5.270  12.336
92265SOL     OW78691   6.493   7.682   2.777
92265SOL    HW178692   6.515   7.719   2.692
92265SOL    HW278693   6.397   7.681   2.780
92266SOL     OW78694   2.061   2.675   0.345
92266SOL    HW178695   2.078   2.587   0.311
92266SOL    HW278696   2.135   2.693   0.403
92267SOL     OW78697  12.915  10.191   5.946
92267SOL    HW178698  12.874  10.187   6.033
92267SOL    HW278699  12.940  10.283   5.936
92268SOL     OW78700   6.529  13.021  10.842
92268SOL    HW178701   6.557  12.993  10.755
92268SOL    HW278702   6.609  13.054  10.884
92269SOL     OW78703   2.370  13.147   0.279
92269SOL    HW178704   2.419  13.226   0.303
92269SOL    HW278705   2.279  13.170   0.297
92270SOL     OW78706   3.476   6.356   7.661
92270SOL    HW178707   3.542   6.296   7.624
92270SOL    HW278708   3.410   6.364   7.591
92271SOL     OW78709   2.215   5.733   6.377
92271SOL    HW178710   2.270   5.676   6.323
92271SOL    HW278711   2.222   5.697   6.465
92272SOL     OW78712  13.030   6.701   4.554
92272SOL    HW178713  13.018   6.618   4.601
92272SOL    HW278714  12.960   6.757   4.586
92273SOL     OW78715   4.162   6.128   1.429
92273SOL    HW178716   4.230   6.105   1.493
92273SOL    HW278717   4.081   6.096   1.467
92274SOL     OW78718  11.345  13.097  10.830
92274SOL    HW178719  11.416  13.161  10.835
92274SOL    HW278720  11.368  13.031  10.895
92275SOL     OW78721   1.460   5.920  12.545
92275SOL    HW178722   1.468   5.971  12.465
92275SOL    HW278723   1.431   5.983  12.611
92276SOL     OW78724  10.964   5.442   8.437
92276SOL    HW178725  10.880   5.489   8.434
92276SOL    HW278726  11.022   5.492   8.380
92277SOL     OW78727   8.886   6.778   2.737
92277SOL    HW178728   8.921   6.858   2.777
92277SOL    HW278729   8.956   6.714   2.744
92278SOL     OW78730  11.977   8.810  13.157
92278SOL    HW178731  11.975   8.787  13.064
92278SOL    HW278732  12.058   8.859  13.169
92279SOL     OW78733   8.383  13.222   9.238
92279SOL    HW178734   8.425  13.236   9.153
92279SOL    HW278735   8.309  13.164   9.219
92280SOL     OW78736  12.236   3.020   7.380
92280SOL    HW178737  12.274   3.067   7.306
92280SOL    HW278738  12.146   3.052   7.384
92281SOL     OW78739   2.699  14.177   1.756
92281SOL    HW178740   2.688  14.169   1.662
92281SOL    HW278741   2.660  14.097   1.792
92282SOL     OW78742   6.114  12.654   0.472
92282SOL    HW178743   6.130  12.656   0.378
92282SOL    HW278744   6.021  12.676   0.481
92283SOL     OW78745   6.350   9.802   6.255
92283SOL    HW178746   6.293   9.819   6.330
92283SOL    HW278747   6.339   9.709   6.237
92284SOL     OW78748  13.942  11.591   9.613
92284SOL    HW178749  13.893  11.665   9.576
92284SOL    HW278750  13.901  11.514   9.574
92285SOL     OW78751   5.031   3.487  14.466
92285SOL    HW178752   5.029   3.564  14.524
92285SOL    HW278753   5.122   3.458  14.468
92286SOL     OW78754   7.969   6.978   1.672
92286SOL    HW178755   8.064   6.991   1.675
92286SOL    HW278756   7.935   7.039   1.738
92287SOL     OW78757   3.525   7.065  11.100
92287SOL    HW178758   3.588   7.018  11.155
92287SOL    HW278759   3.579   7.127  11.051
92288SOL     OW78760  12.379  12.407   0.478
92288SOL    HW178761  12.353  12.368   0.562
92288SOL    HW278762  12.310  12.381   0.417
92289SOL     OW78763   7.556   0.775  10.374
92289SOL    HW178764   7.538   0.841  10.442
92289SOL    HW278765   7.562   0.692  10.422
92290SOL     OW78766  13.432   8.358   1.285
92290SOL    HW178767  13.390   8.374   1.200
92290SOL    HW278768  13.497   8.428   1.294
92291SOL     OW78769   2.889   4.990  12.829
92291SOL    HW178770   2.803   4.954  12.851
92291SOL    HW278771   2.932   4.919  12.780
92292SOL     OW78772   6.420   0.908   3.845
92292SOL    HW178773   6.420   0.813   3.842
92292SOL    HW278774   6.328   0.933   3.849
92293SOL     OW78775   4.780   9.984   7.848
92293SOL    HW178776   4.742  10.072   7.846
92293SOL    HW278777   4.741   9.943   7.924
92294SOL     OW78778  13.045  11.311   5.147
92294SOL    HW178779  12.990  11.334   5.072
92294SOL    HW278780  13.114  11.376   5.148
92295SOL     OW78781   3.947   2.691   3.491
92295SOL    HW178782   3.854   2.668   3.491
92295SOL    HW278783   3.971   2.698   3.583
92296SOL     OW78784   2.189  14.573   4.322
92296SOL    HW178785   2.278  14.596   4.351
92296SOL    HW278786   2.195  14.567   4.227
92297SOL     OW78787   5.246   0.954   5.157
92297SOL    HW178788   5.328   0.935   5.202
92297SOL    HW278789   5.200   1.013   5.215
92298SOL     OW78790   1.033  12.368  11.123
92298SOL    HW178791   0.968  12.402  11.184
92298SOL    HW278792   0.987  12.304  11.070
92299SOL     OW78793   1.961   8.039  11.246
92299SOL    HW178794   2.022   8.057  11.317
92299SOL    HW278795   1.876   8.064  11.281
92300SOL     OW78796   0.203   9.942   4.174
92300SOL    HW178797   0.202  10.020   4.230
92300SOL    HW278798   0.112   9.933   4.145
92301SOL     OW78799   4.199  13.498   9.371
92301SOL    HW178800   4.111  13.469   9.349
92301SOL    HW278801   4.255  13.455   9.306
92302SOL     OW78802   6.729   2.907   6.499
92302SOL    HW178803   6.691   2.916   6.587
92302SOL    HW278804   6.653   2.892   6.442
92303SOL     OW78805   7.960  14.688  12.809
92303SOL    HW178806   8.053  14.677  12.788
92303SOL    HW278807   7.959  14.760  12.872
92304SOL     OW78808   3.600   8.285   9.192
92304SOL    HW178809   3.682   8.253   9.155
92304SOL    HW278810   3.541   8.209   9.189
92305SOL     OW78811  10.935  12.327   2.066
92305SOL    HW178812  11.002  12.390   2.093
92305SOL    HW278813  10.936  12.260   2.134
92306SOL     OW78814   8.462   9.053   1.896
92306SOL    HW178815   8.398   9.001   1.847
92306SOL    HW278816   8.424   9.141   1.896
92307SOL     OW78817   2.919   6.576   5.499
92307SOL    HW178818   3.011   6.551   5.495
92307SOL    HW278819   2.871   6.494   5.502
92308SOL     OW78820  14.837   6.764   5.609
92308SOL    HW178821  14.816   6.840   5.662
92308SOL    HW278822  14.752   6.732   5.578
92309SOL     OW78823  10.868   5.805   0.231
92309SOL    HW178824  10.781   5.774   0.205
92309SOL    HW278825  10.859   5.824   0.324
92310SOL     OW78826   3.114   6.065   8.333
92310SOL    HW178827   3.150   6.136   8.386
92310SOL    HW278828   3.031   6.098   8.301
92311SOL     OW78829   1.380  12.353  14.729
92311SOL    HW178830   1.469  12.380  14.751
92311SOL    HW278831   1.350  12.419  14.667
92312SOL     OW78832   1.182  11.784   2.242
92312SOL    HW178833   1.188  11.741   2.327
92312SOL    HW278834   1.261  11.755   2.195
92313SOL     OW78835  12.084   4.943   1.430
92313SOL    HW178836  12.001   4.920   1.472
92313SOL    HW278837  12.135   4.862   1.432
92314SOL     OW78838   8.339   0.897   2.442
92314SOL    HW178839   8.280   0.972   2.452
92314SOL    HW278840   8.289   0.822   2.472
92315SOL     OW78841   9.846  14.410  11.825
92315SOL    HW178842   9.868  14.332  11.774
92315SOL    HW278843   9.930  14.443  11.857
92316SOL     OW78844  10.250  10.903   1.820
92316SOL    HW178845  10.331  10.886   1.869
92316SOL    HW278846  10.280  10.945   1.739
92317SOL     OW78847  12.902   7.956   0.455
92317SOL    HW178848  12.977   8.008   0.485
92317SOL    HW278849  12.825   8.007   0.480
92318SOL     OW78850   0.292   9.054  13.955
92318SOL    HW178851   0.366   9.004  13.991
92318SOL    HW278852   0.217   9.026  14.007
92319SOL     OW78853   6.636   9.723   9.059
92319SOL    HW178854   6.667   9.669   9.131
92319SOL    HW278855   6.545   9.697   9.046
92320SOL     OW78856   7.637   3.583   5.575
92320SOL    HW178857   7.647   3.653   5.511
92320SOL    HW278858   7.689   3.511   5.541
92321SOL     OW78859   9.625  13.950   0.068
92321SOL    HW178860   9.562  14.017   0.095
92321SOL    HW278861   9.705  13.999   0.046
92322SOL     OW78862   6.614   8.478  11.067
92322SOL    HW178863   6.602   8.484  11.162
92322SOL    HW278864   6.614   8.384  11.049
92323SOL     OW78865   8.836   6.728   9.284
92323SOL    HW178866   8.761   6.766   9.238
92323SOL    HW278867   8.887   6.684   9.215
92324SOL     OW78868   9.801   5.079   7.019
92324SOL    HW178869   9.794   5.009   7.084
92324SOL    HW278870   9.711   5.101   6.997
92325SOL     OW78871   6.784  11.462  13.751
92325SOL    HW178872   6.754  11.482  13.662
92325SOL    HW278873   6.795  11.367  13.751
92326SOL     OW78874  13.948   9.064   7.237
92326SOL    HW178875  14.042   9.059   7.254
92326SOL    HW278876  13.939   9.041   7.145
92327SOL     OW78877   0.676  14.211   2.118
92327SOL    HW178878   0.651  14.297   2.083
92327SOL    HW278879   0.700  14.228   2.209
92328SOL     OW78880   2.593   0.263   5.314
92328SOL    HW178881   2.673   0.215   5.333
92328SOL    HW278882   2.523   0.204   5.343
92329SOL     OW78883   4.619  11.775   8.087
92329SOL    HW178884   4.574  11.730   8.159
92329SOL    HW278885   4.648  11.705   8.029
92330SOL     OW78886   9.224   4.729   7.672
92330SOL    HW178887   9.280   4.698   7.744
92330SOL    HW278888   9.285   4.758   7.605
92331SOL     OW78889   1.354   0.566   4.653
92331SOL    HW178890   1.407   0.645   4.662
92331SOL    HW278891   1.351   0.529   4.741
92332SOL     OW78892  10.194  12.007  14.209
92332SOL    HW178893  10.115  12.021  14.262
92332SOL    HW278894  10.259  11.973  14.271
92333SOL     OW78895   6.481   6.566   6.194
92333SOL    HW178896   6.449   6.495   6.139
92333SOL    HW278897   6.570   6.582   6.165
92334SOL     OW78898   7.171  13.424   3.292
92334SOL    HW178899   7.152  13.390   3.204
92334SOL    HW278900   7.195  13.347   3.343
92335SOL     OW78901  14.363   4.708  11.988
92335SOL    HW178902  14.397   4.762  12.059
92335SOL    HW278903  14.282   4.752  11.961
92336SOL     OW78904   8.985   0.376   1.984
92336SOL    HW178905   9.072   0.369   2.023
92336SOL    HW278906   8.958   0.285   1.970
92337SOL     OW78907  13.473   8.447   2.728
92337SOL    HW178908  13.458   8.541   2.714
92337SOL    HW278909  13.568   8.436   2.720
92338SOL     OW78910  11.434   2.952  11.622
92338SOL    HW178911  11.413   2.908  11.540
92338SOL    HW278912  11.492   2.892  11.668
92339SOL     OW78913  14.547   8.335  13.813
92339SOL    HW178914  14.551   8.382  13.729
92339SOL    HW278915  14.461   8.356  13.847
92340SOL     OW78916   2.672   7.934   6.957
92340SOL    HW178917   2.676   7.874   6.883
92340SOL    HW278918   2.578   7.944   6.975
92341SOL     OW78919  13.355  12.853   3.442
92341SOL    HW178920  13.358  12.837   3.348
92341SOL    HW278921  13.446  12.842   3.471
92342SOL     OW78922   4.641  10.120  12.130
92342SOL    HW178923   4.611  10.075  12.209
92342SOL    HW278924   4.717  10.170  12.158
92343SOL     OW78925   8.590   4.839  10.456
92343SOL    HW178926   8.600   4.817  10.363
92343SOL    HW278927   8.602   4.933  10.460
92344SOL     OW78928   4.006  14.291  12.256
92344SOL    HW178929   4.092  14.280  12.296
92344SOL    HW278930   4.024  14.323  12.168
92345SOL     OW78931   9.340   0.698   9.778
92345SOL    HW178932   9.380   0.784   9.766
92345SOL    HW278933   9.414   0.637   9.785
92346SOL     OW78934  10.434  14.598   8.012
92346SOL    HW178935  10.357  14.584   7.957
92346SOL    HW278936  10.436  14.692   8.028
92347SOL     OW78937   5.992   3.905   6.266
92347SOL    HW178938   6.060   3.863   6.318
92347SOL    HW278939   5.911   3.887   6.313
92348SOL     OW78940  12.220   8.992  13.142
92348SOL    HW178941  12.225   8.997  13.237
92348SOL    HW278942  12.277   9.063  13.111
92349SOL     OW78943  12.798   4.268  13.192
92349SOL    HW178944  12.803   4.363  13.203
92349SOL    HW278945  12.889   4.239  13.191
92350SOL     OW78946   1.000   9.580   9.387
92350SOL    HW178947   1.039   9.664   9.364
92350SOL    HW278948   0.940   9.560   9.314
92351SOL     OW78949   8.118   0.893  14.783
92351SOL    HW178950   8.150   0.925  14.699
92351SOL    HW278951   8.076   0.969  14.823
92352SOL     OW78952   1.439   4.142   7.701
92352SOL    HW178953   1.359   4.195   7.707
92352SOL    HW278954   1.461   4.123   7.792
92353SOL     OW78955   7.207  11.335   0.108
92353SOL    HW178956   7.139  11.304   0.048
92353SOL    HW278957   7.160  11.380   0.177
92354SOL     OW78958  14.501   2.764   5.440
92354SOL    HW178959  14.434   2.696   5.450
92354SOL    HW278960  14.476   2.832   5.503
92355SOL     OW78961   7.169   5.624  10.233
92355SOL    HW178962   7.176   5.640  10.139
92355SOL    HW278963   7.139   5.707  10.270
92356SOL     OW78964   8.882   2.317   6.318
92356SOL    HW178965   8.801   2.268   6.309
92356SOL    HW278966   8.882   2.347   6.409
92357SOL     OW78967   7.873   0.940   7.316
92357SOL    HW178968   7.800   0.917   7.374
92357SOL    HW278969   7.876   0.869   7.252
92358SOL     OW78970   5.875  12.685   0.718
92358SOL    HW178971   5.855  12.689   0.624
92358SOL    HW278972   5.824  12.610   0.749
92359SOL     OW78973  11.217  14.089   5.517
92359SOL    HW178974  11.127  14.118   5.502
92359SOL    HW278975  11.263  14.111   5.437
92360SOL     OW78976  13.646   9.815  14.681
92360SOL    HW178977  13.627   9.908  14.672
92360SOL    HW278978  13.732   9.804  14.639
92361SOL     OW78979   0.875  11.957   0.600
92361SOL    HW178980   0.834  12.026   0.547
92361SOL    HW278981   0.899  11.890   0.536
92362SOL     OW78982   0.043   4.121   2.985
92362SOL    HW178983   0.028   4.182   3.057
92362SOL    HW278984   0.101   4.054   3.022
92363SOL     OW78985   3.564   7.513  13.018
92363SOL    HW178986   3.540   7.591  12.969
92363SOL    HW278987   3.656   7.527  13.043
92364SOL     OW78988   6.559   0.911   5.760
92364SOL    HW178989   6.494   0.978   5.740
92364SOL    HW278990   6.640   0.943   5.720
92365SOL     OW78991  13.920   9.444   2.253
92365SOL    HW178992  13.902   9.512   2.318
92365SOL    HW278993  13.902   9.361   2.299
92366SOL     OW78994   7.431   3.210  10.257
92366SOL    HW178995   7.509   3.255  10.290
92366SOL    HW278996   7.364   3.229  10.322
92367SOL     OW78997  10.348  10.420  11.857
92367SOL    HW178998  10.418  10.361  11.885
92367SOL    HW278999  10.268  10.380  11.891
92368SOL     OW79000   8.192   2.903  13.671
92368SOL    HW179001   8.184   2.829  13.610
92368SOL    HW279002   8.260   2.876  13.733
92369SOL     OW79003   2.217  12.266   0.285
92369SOL    HW179004   2.192  12.217   0.364
92369SOL    HW279005   2.155  12.238   0.218
92370SOL     OW79006  13.837   3.207  14.610
92370SOL    HW179007  13.823   3.273  14.542
92370SOL    HW279008  13.749   3.183  14.639
92371SOL     OW79009   6.247   5.854  11.224
92371SOL    HW179010   6.334   5.843  11.185
92371SOL    HW279011   6.209   5.767  11.224
92372SOL     OW79012   3.052   4.898  10.780
92372SOL    HW179013   3.016   4.811  10.763
92372SOL    HW279014   3.073   4.898  10.874
92373SOL     OW79015  10.741   7.976   4.590
92373SOL    HW179016  10.664   8.028   4.566
92373SOL    HW279017  10.803   8.039   4.626
92374SOL     OW79018   2.024   8.386  14.572
92374SOL    HW179019   2.013   8.470  14.527
92374SOL    HW279020   1.936   8.349  14.575
92375SOL     OW79021  13.130  13.083   0.438
92375SOL    HW179022  13.067  13.138   0.483
92375SOL    HW279023  13.130  13.116   0.348
92376SOL     OW79024  12.800  14.243   1.977
92376SOL    HW179025  12.737  14.273   2.043
92376SOL    HW279026  12.746  14.211   1.905
92377SOL     OW79027   0.443  10.512   9.393
92377SOL    HW179028   0.358  10.556   9.386
92377SOL    HW279029   0.486  10.557   9.467
92378SOL     OW79030  12.559  10.426   9.214
92378SOL    HW179031  12.617  10.405   9.288
92378SOL    HW279032  12.576  10.356   9.151
92379SOL     OW79033   2.206  11.638   9.196
92379SOL    HW179034   2.250  11.723   9.194
92379SOL    HW279035   2.179  11.623   9.106
92380SOL     OW79036   3.354  12.761   9.792
92380SOL    HW179037   3.345  12.789   9.883
92380SOL    HW279038   3.359  12.843   9.743
92381SOL     OW79039  12.310   1.802  11.518
92381SOL    HW179040  12.237   1.825  11.461
92381SOL    HW279041  12.339   1.885  11.554
92382SOL     OW79042  12.840   6.013   7.057
92382SOL    HW179043  12.791   6.074   7.002
92382SOL    HW279044  12.887   6.068   7.119
92383SOL     OW79045   3.944   6.934  13.608
92383SOL    HW179046   3.880   6.925  13.538
92383SOL    HW279047   4.003   7.004  13.578
92384SOL     OW79048  12.139  12.884  12.293
92384SOL    HW179049  12.076  12.860  12.361
92384SOL    HW279050  12.152  12.978  12.305
92385SOL     OW79051  14.700   3.637   3.742
92385SOL    HW179052  14.781   3.592   3.764
92385SOL    HW279053  14.676   3.682   3.823
92386SOL     OW79054   1.452   2.829   4.303
92386SOL    HW179055   1.374   2.814   4.249
92386SOL    HW279056   1.454   2.923   4.316
92387SOL     OW79057   6.504   5.008  10.041
92387SOL    HW179058   6.546   5.069   9.980
92387SOL    HW279059   6.410   5.017  10.024
92388SOL     OW79060   6.631   2.419   6.951
92388SOL    HW179061   6.699   2.478   6.919
92388SOL    HW279062   6.624   2.439   7.044
92389SOL     OW79063   0.776  10.151  13.557
92389SOL    HW179064   0.801  10.241  13.536
92389SOL    HW279065   0.856  10.110  13.591
92390SOL     OW79066   7.978   1.581   5.941
92390SOL    HW179067   7.996   1.649   5.876
92390SOL    HW279068   7.917   1.522   5.897
92391SOL     OW79069   8.201   8.464   8.606
92391SOL    HW179070   8.221   8.494   8.517
92391SOL    HW279071   8.161   8.540   8.649
92392SOL     OW79072   8.013  14.868   9.156
92392SOL    HW179073   8.028  14.818   9.076
92392SOL    HW279074   8.091  14.853   9.209
92393SOL     OW79075   7.586   7.936   6.884
92393SOL    HW179076   7.613   7.851   6.849
92393SOL    HW279077   7.508   7.959   6.834
92394SOL     OW79078   1.025   1.669  12.434
92394SOL    HW179079   0.951   1.626  12.476
92394SOL    HW279080   1.101   1.639  12.484
92395SOL     OW79081  14.510  10.222   1.705
92395SOL    HW179082  14.414  10.221   1.699
92395SOL    HW279083  14.528  10.268   1.787
92396SOL     OW79084  11.626  13.728  10.347
92396SOL    HW179085  11.643  13.698  10.258
92396SOL    HW279086  11.611  13.822  10.339
92397SOL     OW79087   3.117  11.033   9.889
92397SOL    HW179088   3.040  10.997   9.933
92397SOL    HW279089   3.102  11.015   9.796
92398SOL     OW79090   9.141   7.294   3.388
92398SOL    HW179091   9.182   7.370   3.430
92398SOL    HW279092   9.118   7.235   3.460
92399SOL     OW79093  10.591   0.711   6.537
92399SOL    HW179094  10.557   0.623   6.555
92399SOL    HW279095  10.686   0.700   6.534
92400SOL     OW79096  10.889   7.593   0.427
92400SOL    HW179097  10.883   7.683   0.458
92400SOL    HW279098  10.808   7.579   0.379
92401SOL     OW79099  11.169   1.883   1.860
92401SOL    HW179100  11.093   1.825   1.861
92401SOL    HW279101  11.242   1.826   1.884
92402SOL     OW79102   6.192   2.682  10.477
92402SOL    HW179103   6.137   2.607  10.454
92402SOL    HW279104   6.249   2.649  10.547
92403SOL     OW79105  12.796  11.610   2.780
92403SOL    HW179106  12.837  11.523   2.781
92403SOL    HW279107  12.862  11.668   2.816
92404SOL     OW79108   6.640   1.011   8.823
92404SOL    HW179109   6.662   1.017   8.730
92404SOL    HW279110   6.610   0.921   8.835
92405SOL     OW79111   2.087   7.271   3.471
92405SOL    HW179112   2.137   7.202   3.514
92405SOL    HW279113   2.011   7.227   3.434
92406SOL     OW79114  13.473   0.398  13.895
92406SOL    HW179115  13.415   0.447  13.836
92406SOL    HW279116  13.414   0.340  13.943
92407SOL     OW79117  14.412   2.297   1.084
92407SOL    HW179118  14.378   2.207   1.085
92407SOL    HW279119  14.408   2.323   0.992
92408SOL     OW79120   3.082   9.607  11.381
92408SOL    HW179121   3.047   9.532  11.332
92408SOL    HW279122   3.151   9.642  11.325
92409SOL     OW79123   0.641  11.979   8.941
92409SOL    HW179124   0.727  11.993   8.981
92409SOL    HW279125   0.629  11.884   8.945
92410SOL     OW79126  12.867  11.395   6.653
92410SOL    HW179127  12.904  11.446   6.580
92410SOL    HW279128  12.773  11.391   6.634
92411SOL     OW79129   8.391  11.023   0.349
92411SOL    HW179130   8.387  10.977   0.433
92411SOL    HW279131   8.317  11.083   0.351
92412SOL     OW79132  14.245   4.121   9.391
92412SOL    HW179133  14.299   4.096   9.316
92412SOL    HW279134  14.167   4.066   9.384
92413SOL     OW79135  14.620   3.339  14.440
92413SOL    HW179136  14.635   3.433  14.450
92413SOL    HW279137  14.707   3.300  14.448
92414SOL     OW79138   8.185  14.570  10.330
92414SOL    HW179139   8.175  14.487  10.285
92414SOL    HW279140   8.264  14.559  10.383
92415SOL     OW79141   9.129  11.056   5.939
92415SOL    HW179142   9.203  11.116   5.943
92415SOL    HW279143   9.052  11.112   5.948
92416SOL     OW79144   6.936   6.050   0.585
92416SOL    HW179145   6.963   6.066   0.675
92416SOL    HW279146   6.848   6.088   0.580
92417SOL     OW79147  10.773   1.896  14.201
92417SOL    HW179148  10.736   1.853  14.124
92417SOL    HW279149  10.767   1.830  14.270
92418SOL     OW79150  13.508   0.288   1.970
92418SOL    HW179151  13.470   0.303   1.883
92418SOL    HW279152  13.480   0.200   1.994
92419SOL     OW79153   6.615   8.998   7.724
92419SOL    HW179154   6.603   9.046   7.643
92419SOL    HW279155   6.539   9.019   7.777
92420SOL     OW79156   1.997   6.126  11.930
92420SOL    HW179157   2.069   6.172  11.974
92420SOL    HW279158   2.029   6.109  11.842
92421SOL     OW79159   2.387  11.036  10.492
92421SOL    HW179160   2.466  11.020  10.543
92421SOL    HW279161   2.315  11.031  10.555
92422SOL     OW79162  14.123  11.895  13.813
92422SOL    HW179163  14.199  11.921  13.866
92422SOL    HW279164  14.162  11.853  13.736
92423SOL     OW79165   7.795  14.465   0.875
92423SOL    HW179166   7.782  14.470   0.969
92423SOL    HW279167   7.860  14.532   0.856
92424SOL     OW79168  11.636   6.108  12.600
92424SOL    HW179169  11.572   6.174  12.576
92424SOL    HW279170  11.649   6.119  12.694
92425SOL     OW79171  10.309   0.634   6.008
92425SOL    HW179172  10.328   0.656   6.099
92425SOL    HW279173  10.360   0.697   5.957
92426SOL     OW79174  13.282  10.251   2.154
92426SOL    HW179175  13.211  10.315   2.158
92426SOL    HW279176  13.269  10.195   2.230
92427SOL     OW79177   3.822  12.387  10.532
92427SOL    HW179178   3.913  12.419  10.526
92427SOL    HW279179   3.791  12.420  10.616
92428SOL     OW79180   7.139  10.743  11.387
92428SOL    HW179181   7.202  10.681  11.350
92428SOL    HW279182   7.192  10.798  11.445
92429SOL     OW79183  10.569   7.967   8.789
92429SOL    HW179184  10.538   7.997   8.703
92429SOL    HW279185  10.558   7.872   8.787
92430SOL     OW79186   8.465   7.389  14.666
92430SOL    HW179187   8.424   7.449  14.604
92430SOL    HW279188   8.395   7.329  14.692
92431SOL     OW79189  12.635  12.414  10.387
92431SOL    HW179190  12.691  12.463  10.447
92431SOL    HW279191  12.685  12.410  10.306
92432SOL     OW79192  12.247  10.980   3.369
92432SOL    HW179193  12.169  10.954   3.319
92432SOL    HW279194  12.220  10.974   3.460
92433SOL     OW79195   5.005  11.720  10.344
92433SOL    HW179196   4.927  11.726  10.399
92433SOL    HW279197   5.038  11.632  10.359
92434SOL     OW79198   9.446   1.752  10.202
92434SOL    HW179199   9.418   1.711  10.121
92434SOL    HW279200   9.540   1.734  10.208
92435SOL     OW79201  14.543   7.886   6.233
92435SOL    HW179202  14.592   7.924   6.160
92435SOL    HW279203  14.551   7.792   6.222
92436SOL     OW79204   8.534   6.088   3.329
92436SOL    HW179205   8.565   6.173   3.298
92436SOL    HW279206   8.474   6.058   3.261
92437SOL     OW79207   0.064  11.760  14.360
92437SOL    HW179208   0.071  11.801  14.274
92437SOL    HW279209   0.141  11.792  14.408
92438SOL     OW79210  11.269   5.067  11.018
92438SOL    HW179211  11.204   4.999  11.000
92438SOL    HW279212  11.280   5.065  11.113
92439SOL     OW79213  13.988  11.505  11.991
92439SOL    HW179214  13.992  11.434  11.926
92439SOL    HW279215  14.070  11.498  12.040
92440SOL     OW79216   7.689   7.161   3.667
92440SOL    HW179217   7.685   7.219   3.744
92440SOL    HW279218   7.621   7.095   3.684
92441SOL     OW79219  12.998  14.500   5.818
92441SOL    HW179220  13.034  14.550   5.745
92441SOL    HW279221  13.072  14.483   5.875
92442SOL     OW79222   5.816   2.137   8.345
92442SOL    HW179223   5.775   2.121   8.260
92442SOL    HW279224   5.861   2.221   8.335
92443SOL     OW79225   2.763  14.094   4.406
92443SOL    HW179226   2.768  14.012   4.356
92443SOL    HW279227   2.674  14.095   4.442
92444SOL     OW79228  14.873   5.855   8.196
92444SOL    HW179229   0.060   5.785   8.187
92444SOL    HW279230  14.865   5.869   8.291
92445SOL     OW79231  10.175   9.113  13.922
92445SOL    HW179232  10.220   9.030  13.940
92445SOL    HW279233  10.082   9.092  13.932
92446SOL     OW79234   6.886  11.799  13.054
92446SOL    HW179235   6.881  11.720  13.107
92446SOL    HW279236   6.936  11.773  12.977
92447SOL     OW79237   3.510  12.197   3.260
92447SOL    HW179238   3.443  12.159   3.317
92447SOL    HW279239   3.551  12.265   3.314
92448SOL     OW79240   1.611  12.412  13.962
92448SOL    HW179241   1.649  12.373  14.041
92448SOL    HW279242   1.577  12.497  13.992
92449SOL     OW79243   5.169  12.607  12.469
92449SOL    HW179244   5.106  12.544  12.434
92449SOL    HW279245   5.249  12.590  12.421
92450SOL     OW79246   0.858   1.082   4.067
92450SOL    HW179247   0.877   1.167   4.106
92450SOL    HW279248   0.933   1.027   4.089
92451SOL     OW79249   5.796  11.195   1.663
92451SOL    HW179250   5.874  11.244   1.688
92451SOL    HW279251   5.782  11.133   1.736
92452SOL     OW79252   7.604   7.232  14.097
92452SOL    HW179253   7.682   7.288  14.107
92452SOL    HW279254   7.535   7.293  14.071
92453SOL     OW79255   5.202  14.351  10.825
92453SOL    HW179256   5.167  14.296  10.755
92453SOL    HW279257   5.297  14.343  10.817
92454SOL     OW79258   7.490   4.715  11.501
92454SOL    HW179259   7.573   4.716  11.452
92454SOL    HW279260   7.447   4.797  11.476
92455SOL     OW79261   9.237   5.315   8.167
92455SOL    HW179262   9.186   5.243   8.130
92455SOL    HW279263   9.297   5.272   8.229
92456SOL     OW79264   6.356  13.792   8.110
92456SOL    HW179265   6.326  13.777   8.199
92456SOL    HW279266   6.392  13.708   8.082
92457SOL     OW79267   8.460  13.983  10.253
92457SOL    HW179268   8.427  14.007  10.339
92457SOL    HW279269   8.382  13.955  10.204
92458SOL     OW79270   6.725  11.423   4.398
92458SOL    HW179271   6.703  11.330   4.408
92458SOL    HW279272   6.679  11.466   4.470
92459SOL     OW79273   0.560   3.558   5.221
92459SOL    HW179274   0.654   3.567   5.236
92459SOL    HW279275   0.539   3.469   5.252
92460SOL     OW79276   3.693   1.699  13.775
92460SOL    HW179277   3.755   1.744  13.833
92460SOL    HW279278   3.721   1.607  13.778
92461SOL     OW79279  12.565   5.939  13.726
92461SOL    HW179280  12.593   6.030  13.732
92461SOL    HW279281  12.620   5.901  13.658
92462SOL     OW79282  14.367   4.362  14.333
92462SOL    HW179283  14.411   4.429  14.386
92462SOL    HW279284  14.274   4.378  14.347
92463SOL     OW79285   6.609   4.185  14.330
92463SOL    HW179286   6.562   4.105  14.309
92463SOL    HW279287   6.633   4.222  14.245
92464SOL     OW79288   1.646   5.097   9.981
92464SOL    HW179289   1.588   5.060   9.914
92464SOL    HW279290   1.589   5.154  10.033
92465SOL     OW79291   9.271   0.924   8.219
92465SOL    HW179292   9.289   0.930   8.125
92465SOL    HW279293   9.326   0.852   8.249
92466SOL     OW79294   6.211   5.878  10.296
92466SOL    HW179295   6.228   5.797  10.344
92466SOL    HW279296   6.293   5.927  10.303
92467SOL     OW79297  10.167   6.706   8.735
92467SOL    HW179298  10.168   6.802   8.725
92467SOL    HW279299  10.113   6.691   8.812
92468SOL     OW79300  13.845  12.047  12.004
92468SOL    HW179301  13.799  12.128  11.980
92468SOL    HW279302  13.793  12.011  12.076
92469SOL     OW79303   5.536   0.736  10.555
92469SOL    HW179304   5.463   0.720  10.495
92469SOL    HW279305   5.601   0.783  10.502
92470SOL     OW79306   7.536   9.148  13.380
92470SOL    HW179307   7.623   9.181  13.355
92470SOL    HW279308   7.477   9.183  13.313
92471SOL     OW79309  14.639   5.231   2.810
92471SOL    HW179310  14.726   5.192   2.819
92471SOL    HW279311  14.632   5.290   2.885
92472SOL     OW79312   5.802   3.343   4.485
92472SOL    HW179313   5.856   3.268   4.461
92472SOL    HW279314   5.865   3.413   4.503
92473SOL     OW79315  11.083   9.742   7.673
92473SOL    HW179316  11.129   9.825   7.684
92473SOL    HW279317  11.101   9.694   7.754
92474SOL     OW79318   1.138  10.995   1.917
92474SOL    HW179319   1.199  10.949   1.859
92474SOL    HW279320   1.190  11.014   1.996
92475SOL     OW79321   4.722   8.671   9.957
92475SOL    HW179322   4.681   8.628   9.882
92475SOL    HW279323   4.784   8.733   9.919
92476SOL     OW79324   1.612   0.727   9.230
92476SOL    HW179325   1.567   0.752   9.311
92476SOL    HW279326   1.681   0.667   9.259
92477SOL     OW79327   8.643   1.530  12.443
92477SOL    HW179328   8.577   1.461  12.450
92477SOL    HW279329   8.611   1.600  12.500
92478SOL     OW79330  12.018  13.282   0.203
92478SOL    HW179331  11.996  13.215   0.268
92478SOL    HW279332  12.007  13.237   0.119
92479SOL     OW79333   9.019   8.251   1.248
92479SOL    HW179334   8.960   8.190   1.292
92479SOL    HW279335   9.013   8.332   1.298
92480SOL     OW79336  14.814  13.228   5.667
92480SOL    HW179337  14.802  13.142   5.627
92480SOL    HW279338  14.812  13.289   5.594
92481SOL     OW79339  11.196   3.030   9.672
92481SOL    HW179340  11.240   2.972   9.610
92481SOL    HW279341  11.260   3.100   9.689
92482SOL     OW79342  12.497   0.061   0.202
92482SOL    HW179343  12.566   0.016   0.152
92482SOL    HW279344  12.472   0.134   0.146
92483SOL     OW79345   3.030   5.812  10.897
92483SOL    HW179346   3.042   5.793  10.804
92483SOL    HW279347   3.071   5.738  10.941
92484SOL     OW79348   8.811   6.790   7.693
92484SOL    HW179349   8.805   6.711   7.640
92484SOL    HW279350   8.754   6.773   7.768
92485SOL     OW79351   9.903  12.755   7.728
92485SOL    HW179352   9.984  12.730   7.771
92485SOL    HW279353   9.927  12.831   7.674
92486SOL     OW79354  14.479  12.499   5.414
92486SOL    HW179355  14.503  12.558   5.486
92486SOL    HW279356  14.557  12.493   5.359
92487SOL     OW79357   4.797  10.728   9.909
92487SOL    HW179358   4.740  10.769   9.975
92487SOL    HW279359   4.885  10.734   9.946
92488SOL     OW79360   3.899   9.656   5.871
92488SOL    HW179361   3.942   9.653   5.956
92488SOL    HW279362   3.900   9.566   5.839
92489SOL     OW79363  11.673  13.539   3.776
92489SOL    HW179364  11.587  13.508   3.804
92489SOL    HW279365  11.721  13.554   3.857
92490SOL     OW79366   6.290   0.870  12.379
92490SOL    HW179367   6.266   0.791  12.426
92490SOL    HW279368   6.213   0.891  12.327
92491SOL     OW79369   3.958  12.485   2.494
92491SOL    HW179370   4.008  12.405   2.512
92491SOL    HW279371   3.869  12.464   2.522
92492SOL     OW79372  13.733   0.435  11.816
92492SOL    HW179373  13.650   0.408  11.856
92492SOL    HW279374  13.721   0.528  11.796
92493SOL     OW79375   8.811   1.354   5.272
92493SOL    HW179376   8.797   1.433   5.219
92493SOL    HW279377   8.774   1.375   5.357
92494SOL     OW79378   5.247   0.988   7.823
92494SOL    HW179379   5.183   0.925   7.856
92494SOL    HW279380   5.202   1.073   7.828
92495SOL     OW79381  11.453   7.018   4.622
92495SOL    HW179382  11.529   7.037   4.677
92495SOL    HW279383  11.452   6.923   4.613
92496SOL     OW79384   7.537   3.636   3.160
92496SOL    HW179385   7.477   3.685   3.103
92496SOL    HW279386   7.583   3.703   3.210
92497SOL     OW79387  14.422   1.894   9.382
92497SOL    HW179388  14.330   1.921   9.391
92497SOL    HW279389  14.463   1.924   9.463
92498SOL     OW79390  11.684   0.028   0.752
92498SOL    HW179391  11.646  14.840   0.810
92498SOL    HW279392  11.671   0.111   0.798
92499SOL     OW79393  10.343  13.368  10.159
92499SOL    HW179394  10.272  13.305  10.175
92499SOL    HW279395  10.400  13.324  10.096
92500SOL     OW79396   7.744   8.170   1.364
92500SOL    HW179397   7.801   8.106   1.320
92500SOL    HW279398   7.804   8.240   1.392
92501SOL     OW79399   0.706   0.376   1.207
92501SOL    HW179400   0.745   0.348   1.124
92501SOL    HW279401   0.613   0.353   1.200
92502SOL     OW79402   6.522   3.311   4.916
92502SOL    HW179403   6.589   3.285   4.979
92502SOL    HW279404   6.462   3.366   4.966
92503SOL     OW79405  10.013  12.074  10.319
92503SOL    HW179406  10.096  12.057  10.363
92503SOL    HW279407   9.976  12.149  10.365
92504SOL     OW79408   4.211  11.725   2.506
92504SOL    HW179409   4.278  11.682   2.558
92504SOL    HW279410   4.139  11.662   2.502
92505SOL     OW79411   1.535   2.128   3.740
92505SOL    HW179412   1.474   2.133   3.814
92505SOL    HW279413   1.616   2.167   3.773
92506SOL     OW79414   3.885   1.244   2.851
92506SOL    HW179415   3.887   1.284   2.938
92506SOL    HW279416   3.904   1.315   2.790
92507SOL     OW79417   7.970   2.375   8.522
92507SOL    HW179418   8.036   2.306   8.526
92507SOL    HW279419   7.887   2.331   8.538
92508SOL     OW79420   6.744  13.149   1.987
92508SOL    HW179421   6.835  13.162   2.012
92508SOL    HW279422   6.717  13.070   2.033
92509SOL     OW79423  10.177   5.936   6.327
92509SOL    HW179424  10.144   5.883   6.254
92509SOL    HW279425  10.261   5.969   6.296
92510SOL     OW79426   7.714   2.798   1.546
92510SOL    HW179427   7.728   2.757   1.631
92510SOL    HW279428   7.767   2.746   1.486
92511SOL     OW79429   8.223  14.370  12.150
92511SOL    HW179430   8.144  14.413  12.118
92511SOL    HW279431   8.193  14.308  12.216
92512SOL     OW79432   9.476   4.251  13.804
92512SOL    HW179433   9.493   4.157  13.806
92512SOL    HW279434   9.447   4.272  13.893
92513SOL     OW79435   8.804   7.565   5.528
92513SOL    HW179436   8.761   7.537   5.448
92513SOL    HW279437   8.891   7.594   5.500
92514SOL     OW79438   6.162   8.795   2.109
92514SOL    HW179439   6.129   8.752   2.030
92514SOL    HW279440   6.083   8.820   2.158
92515SOL     OW79441   3.853  13.656  13.686
92515SOL    HW179442   3.880  13.744  13.713
92515SOL    HW279443   3.880  13.599  13.759
92516SOL     OW79444   2.934   9.168  14.822
92516SOL    HW179445   2.869   9.121  14.874
92516SOL    HW279446   2.931   9.125  14.736
92517SOL     OW79447   9.583   8.986   3.421
92517SOL    HW179448   9.596   8.960   3.512
92517SOL    HW279449   9.667   8.970   3.379
92518SOL     OW79450   0.366  13.048   8.451
92518SOL    HW179451   0.294  13.072   8.393
92518SOL    HW279452   0.386  13.128   8.499
92519SOL     OW79453   2.192  10.677   2.317
92519SOL    HW179454   2.285  10.682   2.297
92519SOL    HW279455   2.148  10.695   2.234
92520SOL     OW79456   8.410  12.995   6.680
92520SOL    HW179457   8.373  12.909   6.662
92520SOL    HW279458   8.502  12.987   6.656
92521SOL     OW79459   6.820   5.687  13.069
92521SOL    HW179460   6.813   5.771  13.114
92521SOL    HW279461   6.780   5.624  13.129
92522SOL     OW79462  13.922  14.815   9.975
92522SOL    HW179463  13.938  14.877   9.904
92522SOL    HW279464  13.999  14.759   9.977
92523SOL     OW79465   9.971   8.267   2.360
92523SOL    HW179466   9.956   8.206   2.288
92523SOL    HW279467   9.994   8.350   2.318
92524SOL     OW79468  11.239   1.167   6.583
92524SOL    HW179469  11.199   1.093   6.630
92524SOL    HW279470  11.329   1.138   6.566
92525SOL     OW79471   9.921   5.102   5.160
92525SOL    HW179472   9.859   5.050   5.212
92525SOL    HW279473   9.986   5.133   5.223
92526SOL     OW79474  12.593   7.326   2.856
92526SOL    HW179475  12.688   7.318   2.861
92526SOL    HW279476  12.565   7.254   2.799
92527SOL     OW79477   6.590   5.417   5.860
92527SOL    HW179478   6.684   5.413   5.843
92527SOL    HW279479   6.583   5.454   5.948
92528SOL     OW79480  12.856   9.468   9.564
92528SOL    HW179481  12.809   9.550   9.550
92528SOL    HW279482  12.843   9.419   9.482
92529SOL     OW79483   6.169   3.575   4.760
92529SOL    HW179484   6.142   3.533   4.842
92529SOL    HW279485   6.140   3.665   4.769
92530SOL     OW79486   6.021   7.653   1.054
92530SOL    HW179487   6.098   7.630   1.106
92530SOL    HW279488   5.979   7.724   1.104
92531SOL     OW79489  13.176   8.918  13.609
92531SOL    HW179490  13.084   8.946  13.606
92531SOL    HW279491  13.226   8.999  13.602
92532SOL     OW79492   0.355   7.324   4.393
92532SOL    HW179493   0.442   7.320   4.355
92532SOL    HW279494   0.296   7.301   4.321
92533SOL     OW79495  12.461  10.959  11.628
92533SOL    HW179496  12.432  10.877  11.668
92533SOL    HW279497  12.471  10.939  11.536
92534SOL     OW79498  12.407  10.019   5.000
92534SOL    HW179499  12.396  10.032   5.095
92534SOL    HW279500  12.346   9.948   4.979
92535SOL     OW79501   7.398   9.792   8.273
92535SOL    HW179502   7.307   9.779   8.303
92535SOL    HW279503   7.390   9.854   8.200
92536SOL     OW79504   8.249   3.233   5.025
92536SOL    HW179505   8.166   3.280   5.027
92536SOL    HW279506   8.255   3.191   5.111
92537SOL     OW79507   0.144   9.725  13.108
92537SOL    HW179508   0.232   9.694  13.131
92537SOL    HW279509   0.160   9.804  13.056
92538SOL     OW79510   6.450  12.024  12.424
92538SOL    HW179511   6.458  12.063  12.337
92538SOL    HW279512   6.442  12.098  12.483
92539SOL     OW79513   3.917   3.595   4.167
92539SOL    HW179514   4.007   3.564   4.177
92539SOL    HW279515   3.878   3.536   4.103
92540SOL     OW79516   2.146  13.893   8.618
92540SOL    HW179517   2.221  13.833   8.618
92540SOL    HW279518   2.071  13.838   8.638
92541SOL     OW79519   1.250   4.475   6.445
92541SOL    HW179520   1.276   4.390   6.409
92541SOL    HW279521   1.179   4.504   6.389
92542SOL     OW79522  10.422   3.738   6.560
92542SOL    HW179523  10.374   3.676   6.615
92542SOL    HW279524  10.442   3.811   6.618
92543SOL     OW79525   0.439  14.737  14.092
92543SOL    HW179526   0.397  14.660  14.131
92543SOL    HW279527   0.492  14.702  14.021
92544SOL     OW79528  13.563   7.096   3.642
92544SOL    HW179529  13.613   7.138   3.713
92544SOL    HW279530  13.529   7.016   3.681
92545SOL     OW79531   6.370   8.005   8.718
92545SOL    HW179532   6.290   7.985   8.766
92545SOL    HW279533   6.343   8.008   8.626
92546SOL     OW79534   8.736   3.137  11.069
92546SOL    HW179535   8.726   3.075  11.140
92546SOL    HW279536   8.814   3.188  11.091
92547SOL     OW79537  11.632   6.332   8.201
92547SOL    HW179538  11.578   6.276   8.145
92547SOL    HW279539  11.631   6.417   8.157
92548SOL     OW79540   5.215   9.309  13.087
92548SOL    HW179541   5.207   9.378  13.153
92548SOL    HW279542   5.132   9.311  13.040
92549SOL     OW79543  14.353   2.703   2.707
92549SOL    HW179544  14.370   2.608   2.705
92549SOL    HW279545  14.359   2.726   2.799
92550SOL     OW79546  11.048  11.307   2.349
92550SOL    HW179547  10.986  11.312   2.422
92550SOL    HW279548  11.009  11.360   2.280
92551SOL     OW79549   3.026   6.638   0.728
92551SOL    HW179550   2.981   6.556   0.745
92551SOL    HW279551   3.020   6.686   0.811
92552SOL     OW79552  12.495   2.533  11.140
92552SOL    HW179553  12.457   2.459  11.093
92552SOL    HW279554  12.447   2.609  11.109
92553SOL     OW79555   7.138   7.482  11.353
92553SOL    HW179556   7.115   7.389  11.353
92553SOL    HW279557   7.126   7.509  11.444
92554SOL     OW79558   7.441  13.873   5.175
92554SOL    HW179559   7.457  13.909   5.262
92554SOL    HW279560   7.346  13.874   5.166
92555SOL     OW79561  13.914  13.308   5.677
92555SOL    HW179562  13.914  13.226   5.628
92555SOL    HW279563  13.856  13.292   5.751
92556SOL     OW79564  11.915  13.837   3.614
92556SOL    HW179565  11.866  13.813   3.535
92556SOL    HW279566  11.883  13.924   3.637
92557SOL     OW79567  13.571  14.456  11.782
92557SOL    HW179568  13.609  14.541  11.807
92557SOL    HW279569  13.623  14.428  11.707
92558SOL     OW79570  11.225   8.324  12.516
92558SOL    HW179571  11.145   8.367  12.547
92558SOL    HW279572  11.270   8.297  12.596
92559SOL     OW79573  14.778   9.276  11.191
92559SOL    HW179574  14.765   9.182  11.179
92559SOL    HW279575  14.822   9.284  11.276
92560SOL     OW79576   8.189  11.477   1.879
92560SOL    HW179577   8.193  11.501   1.786
92560SOL    HW279578   8.101  11.504   1.906
92561SOL     OW79579   3.254   3.341   6.212
92561SOL    HW179580   3.205   3.424   6.214
92561SOL    HW279581   3.284   3.330   6.302
92562SOL     OW79582   5.360   8.082  14.018
92562SOL    HW179583   5.321   8.008  13.972
92562SOL    HW279584   5.380   8.146  13.950
92563SOL     OW79585  11.903   8.211   3.857
92563SOL    HW179586  11.844   8.201   3.932
92563SOL    HW279587  11.844   8.217   3.781
92564SOL     OW79588  10.401   1.502   7.002
92564SOL    HW179589  10.307   1.518   7.001
92564SOL    HW279590  10.424   1.489   6.910
92565SOL     OW79591   9.719   2.724  12.322
92565SOL    HW179592   9.787   2.663  12.352
92565SOL    HW279593   9.712   2.707  12.228
92566SOL     OW79594   5.226   6.270   8.651
92566SOL    HW179595   5.241   6.176   8.651
92566SOL    HW279596   5.195   6.290   8.739
92567SOL     OW79597   4.937  12.220   9.785
92567SOL    HW179598   4.967  12.287   9.846
92567SOL    HW279599   4.882  12.162   9.838
92568SOL     OW79600   4.561   6.595   5.603
92568SOL    HW179601   4.566   6.610   5.697
92568SOL    HW279602   4.583   6.680   5.564
92569SOL     OW79603  11.945   0.916   2.902
92569SOL    HW179604  11.998   0.836   2.908
92569SOL    HW279605  11.855   0.885   2.897
92570SOL     OW79606  13.478   5.424   6.537
92570SOL    HW179607  13.479   5.519   6.530
92570SOL    HW279608  13.394   5.397   6.499
92571SOL     OW79609   3.815   9.988   5.272
92571SOL    HW179610   3.763  10.064   5.242
92571SOL    HW279611   3.802   9.922   5.204
92572SOL     OW79612   0.412  10.446  14.790
92572SOL    HW179613   0.476  10.505  14.751
92572SOL    HW279614   0.465  10.381  14.836
92573SOL     OW79615   1.376   8.262   3.864
92573SOL    HW179616   1.376   8.204   3.941
92573SOL    HW279617   1.366   8.350   3.900
92574SOL     OW79618   1.295  13.335  10.735
92574SOL    HW179619   1.378  13.328  10.687
92574SOL    HW279620   1.231  13.291  10.679
92575SOL     OW79621  14.299   5.862   4.801
92575SOL    HW179622  14.384   5.820   4.812
92575SOL    HW279623  14.291   5.877   4.707
92576SOL     OW79624  14.031   9.284   6.055
92576SOL    HW179625  14.104   9.223   6.040
92576SOL    HW279626  14.027   9.294   6.150
92577SOL     OW79627   6.677  13.253   2.579
92577SOL    HW179628   6.623  13.200   2.520
92577SOL    HW279629   6.623  13.265   2.657
92578SOL     OW79630  10.509   9.673   7.574
92578SOL    HW179631  10.581   9.610   7.576
92578SOL    HW279632  10.471   9.665   7.487
92579SOL     OW79633   0.712  12.997   4.375
92579SOL    HW179634   0.686  12.942   4.301
92579SOL    HW279635   0.798  12.963   4.400
92580SOL     OW79636  14.592   0.993  12.519
92580SOL    HW179637  14.547   1.072  12.550
92580SOL    HW279638  14.529   0.922  12.535
92581SOL     OW79639   9.986  14.262   6.445
92581SOL    HW179640   9.946  14.268   6.359
92581SOL    HW279641   9.975  14.348   6.484
92582SOL     OW79642  10.822   1.676   0.332
92582SOL    HW179643  10.865   1.745   0.282
92582SOL    HW279644  10.728   1.689   0.315
92583SOL     OW79645   1.232  14.045   0.722
92583SOL    HW179646   1.218  14.063   0.629
92583SOL    HW279647   1.272  14.126   0.756
92584SOL     OW79648   8.185  11.212   5.194
92584SOL    HW179649   8.148  11.229   5.280
92584SOL    HW279650   8.230  11.293   5.170
92585SOL     OW79651   5.585   5.816   5.964
92585SOL    HW179652   5.618   5.895   6.006
92585SOL    HW279653   5.490   5.826   5.962
92586SOL     OW79654   2.730   9.523  11.995
92586SOL    HW179655   2.719   9.618  11.985
92586SOL    HW279656   2.824   9.509  11.983
92587SOL     OW79657   1.157   9.450  10.739
92587SOL    HW179658   1.129   9.458  10.647
92587SOL    HW279659   1.170   9.540  10.768
92588SOL     OW79660   1.858  13.738   7.908
92588SOL    HW179661   1.891  13.719   7.820
92588SOL    HW279662   1.925  13.704   7.967
92589SOL     OW79663   4.078   7.791   5.830
92589SOL    HW179664   4.111   7.880   5.842
92589SOL    HW279665   4.141   7.736   5.876
92590SOL     OW79666   4.962   4.066   7.135
92590SOL    HW179667   4.893   4.020   7.183
92590SOL    HW279668   4.989   4.137   7.194
92591SOL     OW79669   9.713  14.857  12.344
92591SOL    HW179670   9.653  14.799  12.391
92591SOL    HW279671   9.694  14.841  12.252
92592SOL     OW79672   0.911   2.267   8.473
92592SOL    HW179673   0.817   2.282   8.489
92592SOL    HW279674   0.915   2.233   8.384
92593SOL     OW79675   4.269   5.128   6.837
92593SOL    HW179676   4.234   5.039   6.835
92593SOL    HW279677   4.329   5.128   6.912
92594SOL     OW79678  13.359  11.012   4.668
92594SOL    HW179679  13.273  11.015   4.627
92594SOL    HW279680  13.366  10.923   4.702
92595SOL     OW79681   2.615   1.130   4.459
92595SOL    HW179682   2.592   1.179   4.380
92595SOL    HW279683   2.652   1.196   4.518
92596SOL     OW79684   2.692   6.940   8.143
92596SOL    HW179685   2.773   6.896   8.169
92596SOL    HW279686   2.666   6.896   8.061
92597SOL     OW79687   2.226   1.545  13.528
92597SOL    HW179688   2.208   1.564  13.620
92597SOL    HW279689   2.180   1.613  13.480
92598SOL     OW79690  12.360   3.151   7.148
92598SOL    HW179691  12.420   3.114   7.083
92598SOL    HW279692  12.307   3.214   7.100
92599SOL     OW79693   4.985   2.497  12.217
92599SOL    HW179694   4.999   2.578  12.168
92599SOL    HW279695   4.898   2.507  12.256
92600SOL     OW79696  10.055  14.446   4.194
92600SOL    HW179697  10.098  14.376   4.145
92600SOL    HW279698   9.986  14.478   4.136
92601SOL     OW79699   5.893  13.022   0.616
92601SOL    HW179700   5.816  12.975   0.587
92601SOL    HW279701   5.883  13.110   0.580
92602SOL     OW79702  12.785   9.564   6.774
92602SOL    HW179703  12.702   9.611   6.769
92602SOL    HW279704  12.852   9.630   6.756
92603SOL     OW79705  12.759   8.191  12.082
92603SOL    HW179706  12.717   8.261  12.132
92603SOL    HW279707  12.843   8.178  12.126
92604SOL     OW79708  11.952  10.749   6.662
92604SOL    HW179709  11.870  10.794   6.686
92604SOL    HW279710  11.992  10.726   6.745
92605SOL     OW79711   1.714   3.600   9.572
92605SOL    HW179712   1.659   3.648   9.510
92605SOL    HW279713   1.791   3.574   9.521
92606SOL     OW79714   1.845   5.658  14.294
92606SOL    HW179715   1.896   5.660  14.375
92606SOL    HW279716   1.771   5.716  14.310
92607SOL     OW79717  11.850   4.912   5.165
92607SOL    HW179718  11.814   4.870   5.244
92607SOL    HW279719  11.820   4.855   5.094
92608SOL     OW79720  13.183   7.722   9.176
92608SOL    HW179721  13.116   7.674   9.225
92608SOL    HW279722  13.159   7.814   9.187
92609SOL     OW79723   1.158   4.572   5.527
92609SOL    HW179724   1.122   4.613   5.448
92609SOL    HW279725   1.211   4.499   5.494
92610SOL     OW79726   6.780   8.230   2.083
92610SOL    HW179727   6.700   8.193   2.119
92610SOL    HW279728   6.754   8.316   2.050
92611SOL     OW79729  12.631   7.374   9.380
92611SOL    HW179730  12.638   7.468   9.401
92611SOL    HW279731  12.578   7.371   9.301
92612SOL     OW79732   1.817  11.327   4.373
92612SOL    HW179733   1.772  11.282   4.302
92612SOL    HW279734   1.850  11.408   4.333
92613SOL     OW79735  10.592   3.058  11.823
92613SOL    HW179736  10.661   3.003  11.860
92613SOL    HW279737  10.560   3.009  11.747
92614SOL     OW79738  14.821   9.383   3.256
92614SOL    HW179739  14.787   9.464   3.217
92614SOL    HW279740   0.037   9.384   3.237
92615SOL     OW79741   8.196   1.439   6.675
92615SOL    HW179742   8.253   1.401   6.742
92615SOL    HW279743   8.164   1.363   6.626
92616SOL     OW79744   1.483   9.880   7.036
92616SOL    HW179745   1.564   9.920   7.003
92616SOL    HW279746   1.413   9.939   7.007
92617SOL     OW79747  11.484  12.608  13.992
92617SOL    HW179748  11.400  12.565  13.975
92617SOL    HW279749  11.479  12.636  14.083
92618SOL     OW79750   3.277  10.385  13.862
92618SOL    HW179751   3.203  10.336  13.897
92618SOL    HW279752   3.343  10.384  13.931
92619SOL     OW79753   6.649   2.780   9.867
92619SOL    HW179754   6.568   2.823   9.893
92619SOL    HW279755   6.716   2.848   9.874
92620SOL     OW79756   7.518  11.206   2.163
92620SOL    HW179757   7.480  11.293   2.150
92620SOL    HW279758   7.562  11.186   2.080
92621SOL     OW79759   3.203   2.072   5.192
92621SOL    HW179760   3.252   2.146   5.157
92621SOL    HW279761   3.267   2.022   5.242
92622SOL     OW79762  11.724   8.764   3.754
92622SOL    HW179763  11.682   8.747   3.670
92622SOL    HW279764  11.786   8.834   3.736
92623SOL     OW79765  13.664   5.601   1.252
92623SOL    HW179766  13.745   5.628   1.295
92623SOL    HW279767  13.667   5.505   1.252
92624SOL     OW79768   2.030   8.515  13.708
92624SOL    HW179769   1.986   8.478  13.784
92624SOL    HW279770   2.020   8.449  13.640
92625SOL     OW79771  10.507   7.004  10.695
92625SOL    HW179772  10.575   6.940  10.675
92625SOL    HW279773  10.552   7.088  10.701
92626SOL     OW79774   2.630   4.123   2.849
92626SOL    HW179775   2.611   4.029   2.845
92626SOL    HW279776   2.693   4.137   2.779
92627SOL     OW79777   9.839   2.845   4.757
92627SOL    HW179778   9.837   2.752   4.780
92627SOL    HW279779   9.762   2.881   4.801
92628SOL     OW79780   7.234   6.025   3.468
92628SOL    HW179781   7.225   6.016   3.374
92628SOL    HW279782   7.208   5.940   3.504
92629SOL     OW79783  10.532  10.375   1.093
92629SOL    HW179784  10.504  10.368   1.185
92629SOL    HW279785  10.628  10.375   1.098
92630SOL     OW79786   7.507   1.640  12.569
92630SOL    HW179787   7.426   1.594  12.544
92630SOL    HW279788   7.496   1.728  12.535
92631SOL     OW79789   8.495   7.604  11.620
92631SOL    HW179790   8.488   7.642  11.708
92631SOL    HW279791   8.422   7.543  11.614
92632SOL     OW79792   1.602   2.641   0.906
92632SOL    HW179793   1.629   2.550   0.898
92632SOL    HW279794   1.681   2.688   0.932
92633SOL     OW79795   1.875   4.112   6.481
92633SOL    HW179796   1.968   4.135   6.474
92633SOL    HW279797   1.875   4.034   6.537
92634SOL     OW79798   1.271   4.615   4.943
92634SOL    HW179799   1.355   4.654   4.917
92634SOL    HW279800   1.274   4.527   4.907
92635SOL     OW79801   1.008   1.420   2.059
92635SOL    HW179802   0.916   1.427   2.032
92635SOL    HW279803   1.035   1.333   2.029
92636SOL     OW79804   2.349  11.627   4.941
92636SOL    HW179805   2.356  11.553   4.882
92636SOL    HW279806   2.434  11.670   4.936
92637SOL     OW79807   5.770  13.532  12.016
92637SOL    HW179808   5.729  13.543  12.102
92637SOL    HW279809   5.702  13.559  11.954
92638SOL     OW79810   1.808   5.693   5.790
92638SOL    HW179811   1.724   5.666   5.753
92638SOL    HW279812   1.849   5.611   5.817
92639SOL     OW79813  12.242   8.493   3.229
92639SOL    HW179814  12.248   8.478   3.323
92639SOL    HW279815  12.284   8.578   3.216
92640SOL     OW79816   8.715  11.372   2.350
92640SOL    HW179817   8.787  11.370   2.413
92640SOL    HW279818   8.649  11.313   2.387
92641SOL     OW79819   4.767   2.970   3.163
92641SOL    HW179820   4.826   2.922   3.221
92641SOL    HW279821   4.757   2.913   3.087
92642SOL     OW79822   8.863  12.370  11.534
92642SOL    HW179823   8.895  12.322  11.458
92642SOL    HW279824   8.767  12.371  11.524
92643SOL     OW79825   6.393   5.720   5.690
92643SOL    HW179826   6.405   5.734   5.784
92643SOL    HW279827   6.325   5.652   5.685
92644SOL     OW79828   2.433  11.058  11.873
92644SOL    HW179829   2.500  11.014  11.926
92644SOL    HW279830   2.477  11.078  11.791
92645SOL     OW79831   2.349   6.021   7.795
92645SOL    HW179832   2.309   5.938   7.822
92645SOL    HW279833   2.435   6.021   7.837
92646SOL     OW79834   5.515   1.590   1.330
92646SOL    HW179835   5.493   1.513   1.277
92646SOL    HW279836   5.510   1.664   1.269
92647SOL     OW79837   9.631   8.314   5.596
92647SOL    HW179838   9.538   8.297   5.612
92647SOL    HW279839   9.636   8.337   5.503
92648SOL     OW79840   3.435  11.217   1.929
92648SOL    HW179841   3.496  11.215   1.855
92648SOL    HW279842   3.362  11.271   1.898
92649SOL     OW79843   3.114  12.500   6.555
92649SOL    HW179844   3.045  12.464   6.611
92649SOL    HW279845   3.119  12.439   6.481
92650SOL     OW79846  13.143   1.707  13.397
92650SOL    HW179847  13.136   1.773  13.329
92650SOL    HW279848  13.236   1.705  13.419
92651SOL     OW79849   4.783   3.046   2.299
92651SOL    HW179850   4.855   3.091   2.343
92651SOL    HW279851   4.774   3.092   2.216
92652SOL     OW79852   6.466   3.993   9.201
92652SOL    HW179853   6.408   3.938   9.254
92652SOL    HW279854   6.545   3.942   9.191
92653SOL     OW79855  12.651   0.381   6.690
92653SOL    HW179856  12.648   0.398   6.784
92653SOL    HW279857  12.698   0.298   6.682
92654SOL     OW79858   3.188   3.861  10.196
92654SOL    HW179859   3.174   3.774  10.233
92654SOL    HW279860   3.216   3.914  10.270
92655SOL     OW79861  11.957  12.991   4.043
92655SOL    HW179862  11.911  12.951   4.117
92655SOL    HW279863  12.014  12.922   4.009
92656SOL     OW79864   0.612   3.542   0.361
92656SOL    HW179865   0.657   3.480   0.304
92656SOL    HW279866   0.540   3.491   0.400
92657SOL     OW79867  10.186  12.347   3.707
92657SOL    HW179868  10.202  12.317   3.618
92657SOL    HW279869  10.111  12.406   3.700
92658SOL     OW79870  11.061   3.393   4.040
92658SOL    HW179871  11.098   3.377   4.127
92658SOL    HW279872  11.096   3.479   4.015
92659SOL     OW79873  11.090   3.993   8.914
92659SOL    HW179874  11.143   3.926   8.871
92659SOL    HW279875  11.060   3.952   8.995
92660SOL     OW79876   1.476   0.816   7.486
92660SOL    HW179877   1.446   0.729   7.460
92660SOL    HW279878   1.461   0.871   7.409
92661SOL     OW79879   3.218   5.577  10.100
92661SOL    HW179880   3.311   5.558  10.087
92661SOL    HW279881   3.175   5.546  10.020
92662SOL     OW79882   4.541   3.105  12.518
92662SOL    HW179883   4.517   3.152  12.598
92662SOL    HW279884   4.631   3.078  12.532
92663SOL     OW79885   6.402   4.584   0.764
92663SOL    HW179886   6.327   4.642   0.749
92663SOL    HW279887   6.471   4.619   0.707
92664SOL     OW79888   0.270  10.659  13.275
92664SOL    HW179889   0.344  10.626  13.327
92664SOL    HW279890   0.264  10.598  13.202
92665SOL     OW79891   9.266   9.112   9.219
92665SOL    HW179892   9.298   9.170   9.288
92665SOL    HW279893   9.201   9.164   9.172
92666SOL     OW79894   1.727  12.087  10.137
92666SOL    HW179895   1.811  12.072  10.180
92666SOL    HW279896   1.740  12.057  10.047
92667SOL     OW79897   1.123  11.085   6.148
92667SOL    HW179898   1.167  11.001   6.137
92667SOL    HW279899   1.093  11.084   6.240
92668SOL     OW79900  10.485  12.043   6.765
92668SOL    HW179901  10.570  12.066   6.727
92668SOL    HW279902  10.506  11.981   6.835
92669SOL     OW79903   5.009   2.532  10.815
92669SOL    HW179904   4.937   2.492  10.864
92669SOL    HW279905   4.970   2.610  10.774
92670SOL     OW79906   3.579  11.855   5.811
92670SOL    HW179907   3.667  11.816   5.812
92670SOL    HW279908   3.596  11.949   5.816
92671SOL     OW79909  14.122   1.775   7.481
92671SOL    HW179910  14.089   1.695   7.440
92671SOL    HW279911  14.054   1.799   7.543
92672SOL     OW79912   5.635  13.253   1.247
92672SOL    HW179913   5.695  13.269   1.320
92672SOL    HW279914   5.651  13.325   1.187
92673SOL     OW79915   6.776   5.503   1.257
92673SOL    HW179916   6.691   5.539   1.282
92673SOL    HW279917   6.813   5.567   1.196
92674SOL     OW79918   2.251  14.481  10.223
92674SOL    HW179919   2.160  14.496  10.249
92674SOL    HW279920   2.255  14.387  10.204
92675SOL     OW79921   8.407   5.735   3.296
92675SOL    HW179922   8.443   5.712   3.382
92675SOL    HW279923   8.353   5.660   3.272
92676SOL     OW79924  10.470   5.965   9.059
92676SOL    HW179925  10.400   5.918   9.015
92676SOL    HW279926  10.452   5.953   9.152
92677SOL     OW79927  11.374  13.262   1.243
92677SOL    HW179928  11.279  13.259   1.252
92677SOL    HW279929  11.400  13.170   1.235
92678SOL     OW79930   4.224   4.599   0.066
92678SOL    HW179931   4.301   4.651   0.090
92678SOL    HW279932   4.152   4.639   0.115
92679SOL     OW79933   3.333   8.017   3.934
92679SOL    HW179934   3.334   8.007   3.839
92679SOL    HW279935   3.425   8.026   3.958
92680SOL     OW79936   2.221  14.682   2.991
92680SOL    HW179937   2.150  14.618   2.998
92680SOL    HW279938   2.293  14.634   2.951
92681SOL     OW79939  10.999   5.057   7.749
92681SOL    HW179940  11.031   5.088   7.834
92681SOL    HW279941  10.923   5.112   7.730
92682SOL     OW79942  14.353   0.738   2.184
92682SOL    HW179943  14.329   0.799   2.254
92682SOL    HW279944  14.276   0.736   2.127
92683SOL     OW79945   6.160   4.300   0.409
92683SOL    HW179946   6.206   4.290   0.326
92683SOL    HW279947   6.227   4.336   0.469
92684SOL     OW79948   2.075   4.682  11.935
92684SOL    HW179949   2.022   4.680  11.856
92684SOL    HW279950   2.165   4.669  11.904
92685SOL     OW79951   1.062   4.950   6.779
92685SOL    HW179952   1.079   5.029   6.728
92685SOL    HW279953   1.037   4.884   6.714
92686SOL     OW79954  13.997   2.502   2.730
92686SOL    HW179955  14.034   2.529   2.814
92686SOL    HW279956  13.944   2.425   2.751
92687SOL     OW79957  13.181  11.466  12.953
92687SOL    HW179958  13.096  11.451  12.912
92687SOL    HW279959  13.244  11.452  12.883
92688SOL     OW79960   2.047   2.110   5.154
92688SOL    HW179961   2.126   2.138   5.109
92688SOL    HW279962   2.057   2.142   5.244
92689SOL     OW79963   8.186  14.325   5.644
92689SOL    HW179964   8.171  14.255   5.580
92689SOL    HW279965   8.280  14.325   5.658
92690SOL     OW79966   3.488  11.594   0.922
92690SOL    HW179967   3.473  11.638   0.839
92690SOL    HW279968   3.505  11.665   0.985
92691SOL     OW79969   7.573   7.482   4.687
92691SOL    HW179970   7.584   7.400   4.735
92691SOL    HW279971   7.633   7.543   4.731
92692SOL     OW79972   3.889  13.863   6.151
92692SOL    HW179973   3.948  13.825   6.216
92692SOL    HW279974   3.887  13.799   6.080
92693SOL     OW79975   0.856  13.388   7.790
92693SOL    HW179976   0.774  13.435   7.799
92693SOL    HW279977   0.882  13.399   7.699
92694SOL     OW79978   9.890   7.494  10.532
92694SOL    HW179979   9.893   7.580  10.491
92694SOL    HW279980   9.810   7.495  10.585
92695SOL     OW79981   7.255   7.494   9.187
92695SOL    HW179982   7.174   7.542   9.169
92695SOL    HW279983   7.298   7.544   9.256
92696SOL     OW79984   6.880   0.744   5.873
92696SOL    HW179985   6.954   0.724   5.816
92696SOL    HW279986   6.910   0.720   5.961
92697SOL     OW79987  11.525  12.819   6.247
92697SOL    HW179988  11.487  12.737   6.279
92697SOL    HW279989  11.619  12.809   6.263
92698SOL     OW79990   3.512   4.336   2.124
92698SOL    HW179991   3.588   4.338   2.066
92698SOL    HW279992   3.439   4.364   2.068
92699SOL     OW79993   6.566   3.986   5.425
92699SOL    HW179994   6.504   3.922   5.390
92699SOL    HW279995   6.529   4.012   5.509
92700SOL     OW79996   7.454  13.478  14.073
92700SOL    HW179997   7.388  13.536  14.112
92700SOL    HW279998   7.418  13.390  14.084
92701SOL     OW79999   6.710  14.007   7.562
92701SOL    HW180000   6.708  14.092   7.605
92701SOL    HW280001   6.688  13.944   7.630
92702SOL     OW80002  13.003  11.416   0.560
92702SOL    HW180003  12.930  11.354   0.548
92702SOL    HW280004  12.973  11.474   0.631
92703SOL     OW80005  10.688   9.071  11.845
92703SOL    HW180006  10.610   9.087  11.792
92703SOL    HW280007  10.747   9.021  11.787
92704SOL     OW80008   1.981  12.109   3.333
92704SOL    HW180009   2.005  12.201   3.329
92704SOL    HW280010   2.046  12.069   3.391
92705SOL     OW80011   0.340   6.972  10.993
92705SOL    HW180012   0.300   6.887  11.012
92705SOL    HW280013   0.433   6.953  10.986
92706SOL     OW80014   0.132  13.002   9.074
92706SOL    HW180015   0.185  12.930   9.039
92706SOL    HW280016   0.181  13.080   9.051
92707SOL     OW80017   1.903   5.855   1.977
92707SOL    HW180018   1.949   5.885   1.899
92707SOL    HW280019   1.973   5.833   2.039
92708SOL     OW80020   8.912   7.879   5.078
92708SOL    HW180021   8.994   7.830   5.072
92708SOL    HW280022   8.862   7.834   5.147
92709SOL     OW80023   9.308  10.883   1.014
92709SOL    HW180024   9.353  10.948   1.067
92709SOL    HW280025   9.215  10.899   1.030
92710SOL     OW80026  10.719  10.772  13.463
92710SOL    HW180027  10.697  10.801  13.552
92710SOL    HW280028  10.813  10.752  13.467
92711SOL     OW80029   8.574   1.225  11.702
92711SOL    HW180030   8.599   1.236  11.793
92711SOL    HW280031   8.556   1.313  11.671
92712SOL     OW80032   0.096   8.494   1.257
92712SOL    HW180033   0.103   8.587   1.235
92712SOL    HW280034   0.086   8.493   1.353
92713SOL     OW80035   0.905   6.817   0.795
92713SOL    HW180036   0.973   6.873   0.832
92713SOL    HW280037   0.888   6.752   0.863
92714SOL     OW80038   8.611   8.545   6.593
92714SOL    HW180039   8.610   8.462   6.547
92714SOL    HW280040   8.554   8.602   6.541
92715SOL     OW80041   2.542   7.064  10.182
92715SOL    HW180042   2.530   6.979  10.139
92715SOL    HW280043   2.459   7.081  10.226
92716SOL     OW80044   1.972  11.571  10.925
92716SOL    HW180045   2.056  11.561  10.881
92716SOL    HW280046   1.981  11.653  10.974
92717SOL     OW80047   9.621  14.755   8.091
92717SOL    HW180048   9.570  14.835   8.088
92717SOL    HW280049   9.692  14.769   8.029
92718SOL     OW80050   3.526   6.614  12.049
92718SOL    HW180051   3.566   6.596  12.134
92718SOL    HW280052   3.475   6.535  12.030
92719SOL     OW80053   6.048  13.380  10.725
92719SOL    HW180054   6.045  13.448  10.658
92719SOL    HW280055   6.060  13.299  10.676
92720SOL     OW80056   2.383   3.646   8.005
92720SOL    HW180057   2.375   3.551   8.008
92720SOL    HW280058   2.468   3.664   8.046
92721SOL     OW80059  10.120  10.259   7.507
92721SOL    HW180060  10.124  10.227   7.417
92721SOL    HW280061  10.178  10.200   7.555
92722SOL     OW80062   4.569   5.726   9.489
92722SOL    HW180063   4.649   5.720   9.542
92722SOL    HW280064   4.598   5.707   9.400
92723SOL     OW80065  13.896   0.481  10.720
92723SOL    HW180066  13.831   0.523  10.663
92723SOL    HW280067  13.958   0.551  10.742
92724SOL     OW80068   6.120   2.216   2.514
92724SOL    HW180069   6.049   2.267   2.475
92724SOL    HW280070   6.166   2.177   2.439
92725SOL     OW80071   7.461   5.592   5.005
92725SOL    HW180072   7.464   5.649   5.082
92725SOL    HW280073   7.389   5.532   5.023
92726SOL     OW80074   3.861  10.203   3.046
92726SOL    HW180075   3.822  10.290   3.042
92726SOL    HW280076   3.821  10.155   2.973
92727SOL     OW80077   0.633   5.175   1.617
92727SOL    HW180078   0.610   5.232   1.690
92727SOL    HW280079   0.728   5.165   1.623
92728SOL     OW80080  13.856  11.436  10.469
92728SOL    HW180081  13.837  11.475  10.384
92728SOL    HW280082  13.826  11.501  10.533
92729SOL     OW80083  12.029   8.021  11.460
92729SOL    HW180084  12.075   8.063  11.532
92729SOL    HW280085  12.052   7.928  11.468
92730SOL     OW80086  12.320  10.832   7.654
92730SOL    HW180087  12.337  10.920   7.686
92730SOL    HW280088  12.390  10.815   7.591
92731SOL     OW80089  13.709  14.256   4.887
92731SOL    HW180090  13.620  14.281   4.912
92731SOL    HW280091  13.702  14.234   4.794
92732SOL     OW80092   5.759  14.009   1.844
92732SOL    HW180093   5.840  13.958   1.844
92732SOL    HW280094   5.776  14.080   1.906
92733SOL     OW80095  11.619   5.102  12.770
92733SOL    HW180096  11.665   5.185  12.758
92733SOL    HW280097  11.553   5.101  12.701
92734SOL     OW80098   1.305   5.820   5.597
92734SOL    HW180099   1.377   5.759   5.614
92734SOL    HW280100   1.345   5.891   5.547
92735SOL     OW80101   4.887   8.091   2.381
92735SOL    HW180102   4.920   8.063   2.466
92735SOL    HW280103   4.887   8.011   2.328
92736SOL     OW80104   4.973  14.596   6.632
92736SOL    HW180105   4.910  14.583   6.703
92736SOL    HW280106   5.054  14.623   6.677
92737SOL     OW80107   6.249   4.927   9.072
92737SOL    HW180108   6.289   4.842   9.051
92737SOL    HW280109   6.323   4.981   9.102
92738SOL     OW80110  13.035   5.620  14.800
92738SOL    HW180111  13.078   5.704  14.782
92738SOL    HW280112  13.085   5.582  14.872
92739SOL     OW80113  14.298   2.503   9.467
92739SOL    HW180114  14.287   2.480   9.559
92739SOL    HW280115  14.362   2.439   9.435
92740SOL     OW80116   1.113   0.949   7.724
92740SOL    HW180117   1.052   0.941   7.650
92740SOL    HW280118   1.176   0.878   7.711
92741SOL     OW80119   8.876   9.586   7.427
92741SOL    HW180120   8.903   9.625   7.344
92741SOL    HW280121   8.813   9.648   7.464
92742SOL     OW80122   1.365  12.056  10.956
92742SOL    HW180123   1.402  11.989  10.899
92742SOL    HW280124   1.271  12.048  10.945
92743SOL     OW80125   6.174  13.618  14.542
92743SOL    HW180126   6.086  13.644  14.515
92743SOL    HW280127   6.224  13.700  14.542
92744SOL     OW80128  12.401  13.545   4.494
92744SOL    HW180129  12.474  13.506   4.541
92744SOL    HW280130  12.402  13.637   4.520
92745SOL     OW80131  14.140   4.598   1.367
92745SOL    HW180132  14.134   4.693   1.376
92745SOL    HW280133  14.160   4.584   1.274
92746SOL     OW80134   9.270   7.832   2.297
92746SOL    HW180135   9.214   7.844   2.221
92746SOL    HW280136   9.209   7.812   2.368
92747SOL     OW80137   5.054  11.098   4.725
92747SOL    HW180138   4.997  11.123   4.798
92747SOL    HW280139   5.142  11.121   4.754
92748SOL     OW80140   6.270   8.928   3.922
92748SOL    HW180141   6.188   8.960   3.884
92748SOL    HW280142   6.243   8.856   3.979
92749SOL     OW80143  13.488   2.558   6.295
92749SOL    HW180144  13.549   2.511   6.239
92749SOL    HW280145  13.543   2.606   6.356
92750SOL     OW80146   3.533   1.946  11.988
92750SOL    HW180147   3.622   1.975  12.009
92750SOL    HW280148   3.502   2.009  11.923
92751SOL     OW80149   3.186   2.603   9.382
92751SOL    HW180150   3.124   2.643   9.443
92751SOL    HW280151   3.132   2.573   9.309
92752SOL     OW80152  13.158   9.247   8.461
92752SOL    HW180153  13.091   9.273   8.398
92752SOL    HW280154  13.188   9.329   8.500
92753SOL     OW80155   8.262   6.351   4.413
92753SOL    HW180156   8.261   6.268   4.365
92753SOL    HW280157   8.289   6.327   4.501
92754SOL     OW80158   6.227   8.619  12.645
92754SOL    HW180159   6.225   8.702  12.693
92754SOL    HW280160   6.182   8.557  12.703
92755SOL     OW80161   0.246   8.753   6.698
92755SOL    HW180162   0.276   8.843   6.686
92755SOL    HW280163   0.155   8.762   6.728
92756SOL     OW80164  11.809  11.599   0.045
92756SOL    HW180165  11.825  11.504   0.043
92756SOL    HW280166  11.866  11.634  14.855
92757SOL     OW80167   4.370   7.891   8.091
92757SOL    HW180168   4.406   7.899   8.003
92757SOL    HW280169   4.279   7.920   8.083
92758SOL     OW80170  14.637   3.016   0.162
92758SOL    HW180171  14.705   2.950   0.148
92758SOL    HW280172  14.685   3.098   0.170
92759SOL     OW80173  12.971   8.352   2.551
92759SOL    HW180174  13.010   8.401   2.478
92759SOL    HW280175  12.897   8.306   2.512
92760SOL     OW80176   7.579  13.483  11.422
92760SOL    HW180177   7.503  13.500  11.366
92760SOL    HW280178   7.601  13.569  11.459
92761SOL     OW80179  10.374  13.325   7.455
92761SOL    HW180180  10.307  13.258   7.442
92761SOL    HW280181  10.377  13.372   7.372
92762SOL     OW80182  13.827  13.549   5.828
92762SOL    HW180183  13.862  13.505   5.751
92762SOL    HW280184  13.905  13.569   5.881
92763SOL     OW80185   2.329   7.580   5.620
92763SOL    HW180186   2.236   7.603   5.621
92763SOL    HW280187   2.354   7.586   5.528
92764SOL     OW80188   0.858   1.742   5.100
92764SOL    HW180189   0.816   1.661   5.070
92764SOL    HW280190   0.797   1.779   5.164
92765SOL     OW80191   2.394   8.484  11.647
92765SOL    HW180192   2.337   8.406  11.651
92765SOL    HW280193   2.472   8.455  11.600
92766SOL     OW80194   4.939   3.439   4.264
92766SOL    HW180195   5.013   3.429   4.204
92766SOL    HW280196   4.937   3.533   4.283
92767SOL     OW80197  13.799  13.225   2.547
92767SOL    HW180198  13.711  13.242   2.513
92767SOL    HW280199  13.854  13.290   2.503
92768SOL     OW80200   1.129  14.363  13.492
92768SOL    HW180201   1.126  14.369  13.587
92768SOL    HW280202   1.106  14.273  13.472
92769SOL     OW80203   8.997   7.906   1.789
92769SOL    HW180204   8.970   7.880   1.877
92769SOL    HW280205   9.046   7.831   1.756
92770SOL     OW80206  11.056  14.176  14.386
92770SOL    HW180207  11.071  14.110  14.318
92770SOL    HW280208  11.115  14.249  14.362
92771SOL     OW80209   9.340   2.542   2.120
92771SOL    HW180210   9.323   2.636   2.124
92771SOL    HW280211   9.419   2.534   2.066
92772SOL     OW80212   7.077   8.948   1.942
92772SOL    HW180213   7.049   8.873   1.994
92772SOL    HW280214   7.157   8.920   1.899
92773SOL     OW80215  10.023   6.528   6.827
92773SOL    HW180216   9.930   6.506   6.830
92773SOL    HW280217  10.064   6.452   6.785
92774SOL     OW80218  10.591   4.944   8.920
92774SOL    HW180219  10.517   4.956   8.860
92774SOL    HW280220  10.626   4.858   8.898
92775SOL     OW80221   6.911   4.789   2.582
92775SOL    HW180222   6.935   4.752   2.667
92775SOL    HW280223   6.993   4.827   2.549
92776SOL     OW80224   7.164   7.882   1.102
92776SOL    HW180225   7.174   7.941   1.177
92776SOL    HW280226   7.204   7.931   1.029
92777SOL     OW80227   7.180  12.452  10.121
92777SOL    HW180228   7.211  12.541  10.105
92777SOL    HW280229   7.179  12.411  10.035
92778SOL     OW80230   9.476   1.576   6.113
92778SOL    HW180231   9.464   1.510   6.045
92778SOL    HW280232   9.392   1.621   6.119
92779SOL     OW80233  11.364  11.292   4.829
92779SOL    HW180234  11.318  11.375   4.842
92779SOL    HW280235  11.317  11.249   4.757
92780SOL     OW80236   5.849   6.078   1.500
92780SOL    HW180237   5.914   6.080   1.571
92780SOL    HW280238   5.870   5.999   1.451
92781SOL     OW80239  11.851   8.273   7.720
92781SOL    HW180240  11.852   8.319   7.636
92781SOL    HW280241  11.943   8.259   7.741
92782SOL     OW80242   8.428   4.748  14.806
92782SOL    HW180243   8.469   4.748  14.720
92782SOL    HW280244   8.348   4.799  14.795
92783SOL     OW80245  11.677  12.379   9.417
92783SOL    HW180246  11.759  12.409   9.377
92783SOL    HW280247  11.649  12.452   9.472
92784SOL     OW80248   4.577   6.894  12.508
92784SOL    HW180249   4.616   6.881  12.595
92784SOL    HW280250   4.488   6.924  12.526
92785SOL     OW80251   0.582   2.363  13.945
92785SOL    HW180252   0.545   2.289  13.896
92785SOL    HW280253   0.536   2.439  13.911
92786SOL     OW80254   4.494   0.513   1.191
92786SOL    HW180255   4.434   0.439   1.207
92786SOL    HW280256   4.438   0.590   1.197
92787SOL     OW80257  12.462   7.962   2.606
92787SOL    HW180258  12.507   8.018   2.669
92787SOL    HW280259  12.514   7.970   2.526
92788SOL     OW80260  13.649  14.529   6.378
92788SOL    HW180261  13.560  14.493   6.380
92788SOL    HW280262  13.640  14.618   6.411
92789SOL     OW80263   9.719  13.083   3.989
92789SOL    HW180264   9.650  13.061   3.926
92789SOL    HW280265   9.795  13.103   3.935
92790SOL     OW80266   3.597   5.004   8.775
92790SOL    HW180267   3.589   4.992   8.680
92790SOL    HW280268   3.688   5.029   8.788
92791SOL     OW80269   2.777  11.953   6.971
92791SOL    HW180270   2.754  11.970   6.879
92791SOL    HW280271   2.780  12.039   7.011
92792SOL     OW80272   3.599  12.095   4.844
92792SOL    HW180273   3.689  12.082   4.875
92792SOL    HW280274   3.608  12.098   4.748
92793SOL     OW80275   6.825  13.029  14.018
92793SOL    HW180276   6.821  13.083  14.097
92793SOL    HW280277   6.903  12.975  14.029
92794SOL     OW80278   5.502   4.345   9.916
92794SOL    HW180279   5.486   4.432   9.879
92794SOL    HW280280   5.494   4.285   9.841
92795SOL     OW80281   0.769  13.584   2.422
92795SOL    HW180282   0.711  13.627   2.485
92795SOL    HW280283   0.833  13.538   2.476
92796SOL     OW80284   4.190  12.625  12.012
92796SOL    HW180285   4.148  12.577  11.941
92796SOL    HW280286   4.280  12.592  12.013
92797SOL     OW80287  11.511  10.377  10.820
92797SOL    HW180288  11.591  10.326  10.809
92797SOL    HW280289  11.542  10.464  10.846
92798SOL     OW80290   0.892   2.841  11.508
92798SOL    HW180291   0.849   2.762  11.542
92798SOL    HW280292   0.976   2.845  11.555
92799SOL     OW80293   5.188   5.811  13.541
92799SOL    HW180294   5.274   5.807  13.584
92799SOL    HW280295   5.143   5.882  13.587
92800SOL     OW80296   0.007   5.482  13.543
92800SOL    HW180297   0.092   5.506  13.507
92800SOL    HW280298   0.023   5.468  13.637
92801SOL     OW80299   6.322   4.022  14.210
92801SOL    HW180300   6.258   4.029  14.139
92801SOL    HW280301   6.280   4.063  14.285
92802SOL     OW80302   1.927   7.669  11.396
92802SOL    HW180303   1.916   7.575  11.392
92802SOL    HW280304   2.020   7.684  11.378
92803SOL     OW80305   6.778   3.610  10.881
92803SOL    HW180306   6.862   3.625  10.838
92803SOL    HW280307   6.717   3.670  10.837
92804SOL     OW80308   0.679  12.612  10.720
92804SOL    HW180309   0.690  12.537  10.662
92804SOL    HW280310   0.591  12.645  10.701
92805SOL     OW80311  13.171   3.702  12.138
92805SOL    HW180312  13.096   3.644  12.149
92805SOL    HW280313  13.140   3.788  12.165
92806SOL     OW80314   9.542   1.483   6.959
92806SOL    HW180315   9.595   1.491   7.038
92806SOL    HW280316   9.586   1.416   6.907
92807SOL     OW80317   6.142   8.037   2.808
92807SOL    HW180318   6.074   8.098   2.777
92807SOL    HW280319   6.207   8.035   2.738
92808SOL     OW80320   3.371   5.126   1.225
92808SOL    HW180321   3.466   5.117   1.232
92808SOL    HW280322   3.338   5.036   1.232
92809SOL     OW80323  11.956   9.852  13.164
92809SOL    HW180324  11.946   9.791  13.237
92809SOL    HW280325  12.048   9.877  13.167
92810SOL     OW80326   4.317   7.822  10.934
92810SOL    HW180327   4.306   7.873  11.014
92810SOL    HW280328   4.335   7.733  10.965
92811SOL     OW80329  11.044   0.672  13.989
92811SOL    HW180330  10.978   0.605  14.005
92811SOL    HW280331  11.121   0.624  13.959
92812SOL     OW80332   8.149   5.107  11.433
92812SOL    HW180333   8.145   5.202  11.441
92812SOL    HW280334   8.067   5.083  11.390
92813SOL     OW80335  11.726   2.834  11.073
92813SOL    HW180336  11.714   2.751  11.027
92813SOL    HW280337  11.775   2.811  11.152
92814SOL     OW80338  11.891   7.689  11.381
92814SOL    HW180339  11.889   7.593  11.376
92814SOL    HW280340  11.983   7.710  11.396
92815SOL     OW80341  13.849  10.677   2.020
92815SOL    HW180342  13.923  10.625   2.052
92815SOL    HW280343  13.889  10.757   1.986
92816SOL     OW80344   0.461  12.445  12.894
92816SOL    HW180345   0.404  12.416  12.823
92816SOL    HW280346   0.549  12.424  12.865
92817SOL     OW80347   6.839  12.179   6.770
92817SOL    HW180348   6.869  12.136   6.690
92817SOL    HW280349   6.744  12.183   6.762
92818SOL     OW80350   0.948  11.155  10.858
92818SOL    HW180351   0.879  11.089  10.858
92818SOL    HW280352   0.983  11.153  10.769
92819SOL     OW80353   3.368  11.079   9.990
92819SOL    HW180354   3.421  11.008   9.954
92819SOL    HW280355   3.280  11.063   9.955
92820SOL     OW80356   6.466  13.910  10.678
92820SOL    HW180357   6.543  13.951  10.639
92820SOL    HW280358   6.494  13.820  10.696
92821SOL     OW80359  13.664   4.788   9.267
92821SOL    HW180360  13.689   4.880   9.276
92821SOL    HW280361  13.643   4.777   9.175
92822SOL     OW80362  10.690  12.694  14.439
92822SOL    HW180363  10.738  12.764  14.396
92822SOL    HW280364  10.757  12.649  14.492
92823SOL     OW80365   9.951   5.847  12.162
92823SOL    HW180366   9.922   5.768  12.117
92823SOL    HW280367   9.885   5.863  12.230
92824SOL     OW80368   9.448   4.704  12.595
92824SOL    HW180369   9.423   4.797  12.596
92824SOL    HW280370   9.365   4.657  12.595
92825SOL     OW80371   5.616   7.588   4.078
92825SOL    HW180372   5.708   7.616   4.075
92825SOL    HW280373   5.568   7.656   4.031
92826SOL     OW80374   6.077  10.218   8.067
92826SOL    HW180375   6.098  10.179   7.983
92826SOL    HW280376   5.985  10.244   8.060
92827SOL     OW80377  14.718  13.842   9.400
92827SOL    HW180378  14.692  13.854   9.308
92827SOL    HW280379  14.803  13.799   9.396
92828SOL     OW80380   3.554   4.671   7.678
92828SOL    HW180381   3.635   4.712   7.651
92828SOL    HW280382   3.574   4.631   7.763
92829SOL     OW80383  13.355   4.379   9.349
92829SOL    HW180384  13.301   4.426   9.413
92829SOL    HW280385  13.293   4.349   9.282
92830SOL     OW80386   4.373  14.672  12.102
92830SOL    HW180387   4.370  14.763  12.074
92830SOL    HW280388   4.459  14.641  12.075
92831SOL     OW80389  14.009  11.350   5.572
92831SOL    HW180390  14.098  11.315   5.575
92831SOL    HW280391  13.965  11.300   5.504
92832SOL     OW80392   3.663   4.697  11.781
92832SOL    HW180393   3.653   4.762  11.712
92832SOL    HW280394   3.634   4.615  11.741
92833SOL     OW80395   4.340   4.797   9.763
92833SOL    HW180396   4.275   4.818   9.695
92833SOL    HW280397   4.379   4.715   9.734
92834SOL     OW80398   1.575   4.602  11.307
92834SOL    HW180399   1.664   4.573  11.285
92834SOL    HW280400   1.573   4.694  11.280
92835SOL     OW80401  10.249   3.032  10.394
92835SOL    HW180402  10.313   3.019  10.324
92835SOL    HW280403  10.266   3.121  10.426
92836SOL     OW80404   9.631   5.005   2.157
92836SOL    HW180405   9.555   5.058   2.134
92836SOL    HW280406   9.688   5.009   2.081
92837SOL     OW80407  11.039  14.148   8.511
92837SOL    HW180408  10.974  14.111   8.570
92837SOL    HW280409  11.002  14.135   8.424
92838SOL     OW80410   9.089   0.673   8.985
92838SOL    HW180411   8.996   0.668   8.965
92838SOL    HW280412   9.125   0.732   8.919
92839SOL     OW80413   7.448  11.691  14.801
92839SOL    HW180414   7.453  11.687  14.706
92839SOL    HW280415   7.357  11.671  14.821
92840SOL     OW80416   3.755  11.286   3.368
92840SOL    HW180417   3.679  11.329   3.328
92840SOL    HW280418   3.803  11.248   3.294
92841SOL     OW80419   4.473   5.793   0.000
92841SOL    HW180420   4.562   5.795  14.843
92841SOL    HW280421   4.428   5.864  14.832
92842SOL     OW80422  10.649  14.399   3.942
92842SOL    HW180423  10.697  14.398   3.859
92842SOL    HW280424  10.557  14.395   3.917
92843SOL     OW80425  14.457   8.608  12.997
92843SOL    HW180426  14.400   8.536  13.026
92843SOL    HW280427  14.397   8.681  12.981
92844SOL     OW80428   2.758   7.004   4.022
92844SOL    HW180429   2.779   6.976   4.111
92844SOL    HW280430   2.755   6.923   3.971
92845SOL     OW80431   4.519   5.534   3.383
92845SOL    HW180432   4.608   5.514   3.414
92845SOL    HW280433   4.498   5.463   3.323
92846SOL     OW80434   5.649   1.464   2.008
92846SOL    HW180435   5.557   1.452   1.985
92846SOL    HW280436   5.693   1.476   1.923
92847SOL     OW80437  11.871  14.802  13.124
92847SOL    HW180438  11.815  14.741  13.076
92847SOL    HW280439  11.955  14.799  13.077
92848SOL     OW80440   4.803   3.366  11.945
92848SOL    HW180441   4.740   3.346  11.876
92848SOL    HW280442   4.876   3.307  11.929
92849SOL     OW80443  14.587   3.094  12.673
92849SOL    HW180444  14.630   3.029  12.728
92849SOL    HW280445  14.549   3.156  12.735
92850SOL     OW80446   6.180  14.714   4.511
92850SOL    HW180447   6.093  14.696   4.547
92850SOL    HW280448   6.172  14.697   4.417
92851SOL     OW80449   6.903   9.860   4.815
92851SOL    HW180450   6.866   9.946   4.836
92851SOL    HW280451   6.847   9.827   4.745
92852SOL     OW80452   8.073  13.156  14.286
92852SOL    HW180453   8.011  13.099  14.331
92852SOL    HW280454   8.021  13.229  14.253
92853SOL     OW80455   3.991  14.784   7.756
92853SOL    HW180456   3.911  14.834   7.770
92853SOL    HW280457   4.053  14.821   7.819
92854SOL     OW80458  11.682   0.922   7.161
92854SOL    HW180459  11.770   0.961   7.161
92854SOL    HW280460  11.696   0.831   7.187
92855SOL     OW80461  11.145   1.102  14.194
92855SOL    HW180462  11.199   1.166  14.241
92855SOL    HW280463  11.102   1.153  14.126
92856SOL     OW80464  14.133  10.751  10.771
92856SOL    HW180465  14.062  10.790  10.822
92856SOL    HW280466  14.161  10.820  10.712
92857SOL     OW80467  13.634   2.939   4.146
92857SOL    HW180468  13.577   2.988   4.087
92857SOL    HW280469  13.577   2.911   4.217
92858SOL     OW80470  10.524  14.358   4.851
92858SOL    HW180471  10.490  14.379   4.764
92858SOL    HW280472  10.591  14.291   4.835
92859SOL     OW80473   9.859   5.794  10.614
92859SOL    HW180474   9.890   5.791  10.524
92859SOL    HW280475   9.769   5.761  10.610
92860SOL     OW80476   0.363   6.852   3.206
92860SOL    HW180477   0.300   6.904   3.255
92860SOL    HW280478   0.417   6.916   3.160
92861SOL     OW80479   7.195  10.984   4.867
92861SOL    HW180480   7.205  11.078   4.883
92861SOL    HW280481   7.282  10.954   4.843
92862SOL     OW80482   0.886  12.421  10.580
92862SOL    HW180483   0.934  12.441  10.499
92862SOL    HW280484   0.953  12.426  10.649
92863SOL     OW80485   2.805   2.706  13.496
92863SOL    HW180486   2.880   2.765  13.505
92863SOL    HW280487   2.783   2.710  13.403
92864SOL     OW80488  11.853  13.927   7.073
92864SOL    HW180489  11.835  13.985   6.999
92864SOL    HW280490  11.767  13.891   7.096
92865SOL     OW80491  10.744   4.259  13.580
92865SOL    HW180492  10.802   4.320  13.534
92865SOL    HW280493  10.799   4.221  13.649
92866SOL     OW80494   0.309  11.431   4.543
92866SOL    HW180495   0.220  11.466   4.537
92866SOL    HW280496   0.365  11.503   4.513
92867SOL     OW80497   0.446  10.704   6.765
92867SOL    HW180498   0.462  10.721   6.858
92867SOL    HW280499   0.375  10.764   6.742
92868SOL     OW80500  12.588   2.079  14.632
92868SOL    HW180501  12.525   2.080  14.561
92868SOL    HW280502  12.626   1.991  14.629
92869SOL     OW80503   0.722  14.183   7.991
92869SOL    HW180504   0.643  14.236   7.989
92869SOL    HW280505   0.752  14.186   8.082
92870SOL     OW80506  11.959   1.363  11.465
92870SOL    HW180507  11.892   1.310  11.509
92870SOL    HW280508  11.944   1.452  11.498
92871SOL     OW80509   9.486   6.403  10.233
92871SOL    HW180510   9.567   6.353  10.246
92871SOL    HW280511   9.514   6.487  10.197
92872SOL     OW80512   2.178  13.836   7.474
92872SOL    HW180513   2.177  13.931   7.489
92872SOL    HW280514   2.130  13.825   7.392
92873SOL     OW80515   7.732   0.451  12.776
92873SOL    HW180516   7.793   0.381  12.751
92873SOL    HW280517   7.779   0.532  12.754
92874SOL     OW80518   1.293   7.043  14.610
92874SOL    HW180519   1.282   7.136  14.591
92874SOL    HW280520   1.367   7.016  14.557
92875SOL     OW80521   1.285   9.421   8.858
92875SOL    HW180522   1.272   9.417   8.763
92875SOL    HW280523   1.274   9.331   8.888
92876SOL     OW80524   2.364  13.780   0.624
92876SOL    HW180525   2.309  13.858   0.625
92876SOL    HW280526   2.431  13.797   0.690
92877SOL     OW80527  10.908   6.396  10.107
92877SOL    HW180528  10.840   6.463  10.110
92877SOL    HW280529  10.989   6.442  10.130
92878SOL     OW80530  13.427  14.322   9.658
92878SOL    HW180531  13.456  14.345   9.570
92878SOL    HW280532  13.344  14.276   9.645
92879SOL     OW80533   4.145   3.112   6.479
92879SOL    HW180534   4.055   3.088   6.502
92879SOL    HW280535   4.200   3.049   6.524
92880SOL     OW80536  10.907   1.428   9.759
92880SOL    HW180537  10.908   1.511   9.711
92880SOL    HW280538  10.847   1.442   9.832
92881SOL     OW80539  11.802   9.010   1.471
92881SOL    HW180540  11.824   9.062   1.394
92881SOL    HW280541  11.871   8.944   1.476
92882SOL     OW80542   4.417   2.408  13.557
92882SOL    HW180543   4.369   2.326  13.547
92882SOL    HW280544   4.429   2.418  13.651
92883SOL     OW80545   9.769   3.018   3.438
92883SOL    HW180546   9.801   2.962   3.366
92883SOL    HW280547   9.841   3.020   3.501
92884SOL     OW80548   5.846   9.985   3.044
92884SOL    HW180549   5.852   9.899   3.003
92884SOL    HW280550   5.783  10.033   2.990
92885SOL     OW80551   9.890   6.851  14.581
92885SOL    HW180552   9.841   6.839  14.500
92885SOL    HW280553   9.843   6.799  14.646
92886SOL     OW80554   8.720  14.615   0.829
92886SOL    HW180555   8.758  14.590   0.913
92886SOL    HW280556   8.710  14.710   0.834
92887SOL     OW80557   8.881   6.984  14.637
92887SOL    HW180558   8.955   6.936  14.675
92887SOL    HW280559   8.852   6.930  14.563
92888SOL     OW80560   9.182   7.348   7.364
92888SOL    HW180561   9.094   7.350   7.403
92888SOL    HW280562   9.208   7.256   7.367
92889SOL     OW80563   0.698   8.123  13.127
92889SOL    HW180564   0.704   8.070  13.207
92889SOL    HW280565   0.638   8.075  13.070
92890SOL     OW80566   4.741  12.844  14.024
92890SOL    HW180567   4.707  12.791  14.096
92890SOL    HW280568   4.828  12.871  14.053
92891SOL     OW80569   6.692   3.046  11.295
92891SOL    HW180570   6.740   2.986  11.238
92891SOL    HW280571   6.756   3.074  11.360
92892SOL     OW80572   6.138  13.260   4.603
92892SOL    HW180573   6.083  13.230   4.531
92892SOL    HW280574   6.077  13.273   4.676
92893SOL     OW80575   4.585  13.306   6.903
92893SOL    HW180576   4.537  13.339   6.827
92893SOL    HW280577   4.643  13.240   6.868
92894SOL     OW80578   5.838   8.796   7.031
92894SOL    HW180579   5.870   8.768   7.117
92894SOL    HW280580   5.912   8.840   6.990
92895SOL     OW80581   0.898   0.452  12.192
92895SOL    HW180582   0.970   0.492  12.143
92895SOL    HW280583   0.890   0.504  12.271
92896SOL     OW80584  14.191   4.738   9.099
92896SOL    HW180585  14.260   4.682   9.062
92896SOL    HW280586  14.235   4.822   9.114
92897SOL     OW80587   1.756  10.299   9.513
92897SOL    HW180588   1.730  10.389   9.531
92897SOL    HW280589   1.796  10.269   9.595
92898SOL     OW80590  14.005   0.364   3.288
92898SOL    HW180591  14.005   0.276   3.249
92898SOL    HW280592  13.915   0.395   3.277
92899SOL     OW80593  10.356   7.811  14.130
92899SOL    HW180594  10.290   7.838  14.066
92899SOL    HW280595  10.435   7.798  14.078
92900SOL     OW80596  11.761   2.463   4.305
92900SOL    HW180597  11.739   2.556   4.311
92900SOL    HW280598  11.799   2.452   4.218
92901SOL     OW80599   7.362  12.433  11.750
92901SOL    HW180600   7.456  12.449  11.759
92901SOL    HW280601   7.347  12.348  11.792
92902SOL     OW80602   7.170  13.910   8.030
92902SOL    HW180603   7.195  13.980   8.091
92902SOL    HW280604   7.217  13.833   8.063
92903SOL     OW80605  12.837   0.215   1.657
92903SOL    HW180606  12.860   0.124   1.636
92903SOL    HW280607  12.870   0.266   1.583
92904SOL     OW80608  13.326   6.449   4.525
92904SOL    HW180609  13.404   6.410   4.565
92904SOL    HW280610  13.270   6.375   4.504
92905SOL     OW80611   0.166   7.593   9.832
92905SOL    HW180612   0.188   7.685   9.816
92905SOL    HW280613   0.192   7.578   9.922
92906SOL     OW80614   9.511  10.530   9.962
92906SOL    HW180615   9.428  10.509   9.918
92906SOL    HW280616   9.493  10.514  10.055
92907SOL     OW80617  10.050   7.411   1.705
92907SOL    HW180618  10.075   7.464   1.630
92907SOL    HW280619   9.958   7.434   1.721
92908SOL     OW80620   6.764   6.213   1.970
92908SOL    HW180621   6.750   6.302   1.938
92908SOL    HW280622   6.718   6.157   1.908
92909SOL     OW80623   3.370   5.931   2.284
92909SOL    HW180624   3.419   5.869   2.231
92909SOL    HW280625   3.378   6.014   2.237
92910SOL     OW80626   1.314   5.527   5.719
92910SOL    HW180627   1.271   5.459   5.772
92910SOL    HW280628   1.266   5.607   5.739
92911SOL     OW80629   1.808   8.678   2.983
92911SOL    HW180630   1.809   8.630   2.900
92911SOL    HW280631   1.719   8.669   3.016
92912SOL     OW80632  13.481  12.497   1.428
92912SOL    HW180633  13.534  12.417   1.432
92912SOL    HW280634  13.405  12.478   1.484
92913SOL     OW80635  11.032   2.200   7.175
92913SOL    HW180636  10.996   2.207   7.264
92913SOL    HW280637  10.970   2.248   7.120
92914SOL     OW80638  12.880   5.399   0.332
92914SOL    HW180639  12.897   5.493   0.339
92914SOL    HW280640  12.843   5.388   0.244
92915SOL     OW80641  10.980   7.814   7.758
92915SOL    HW180642  10.980   7.888   7.819
92915SOL    HW280643  11.070   7.808   7.727
92916SOL     OW80644  12.055   3.470   1.743
92916SOL    HW180645  12.120   3.430   1.685
92916SOL    HW280646  12.073   3.564   1.738
92917SOL     OW80647   2.201  12.307  12.789
92917SOL    HW180648   2.171  12.369  12.855
92917SOL    HW280649   2.240  12.361  12.721
92918SOL     OW80650  12.160   6.047   3.871
92918SOL    HW180651  12.176   5.960   3.906
92918SOL    HW280652  12.090   6.035   3.807
92919SOL     OW80653   0.933  14.176   8.491
92919SOL    HW180654   0.988  14.097   8.488
92919SOL    HW280655   0.969  14.228   8.563
92920SOL     OW80656  10.205  10.128   2.211
92920SOL    HW180657  10.274  10.190   2.188
92920SOL    HW280658  10.251  10.047   2.232
92921SOL     OW80659   1.415  11.637  12.556
92921SOL    HW180660   1.345  11.669  12.613
92921SOL    HW280661   1.427  11.546  12.582
92922SOL     OW80662   2.841   1.037   6.819
92922SOL    HW180663   2.787   0.990   6.754
92922SOL    HW280664   2.920   0.984   6.827
92923SOL     OW80665   3.117   5.450   2.148
92923SOL    HW180666   3.035   5.423   2.190
92923SOL    HW280667   3.096   5.450   2.054
92924SOL     OW80668   1.930   2.417  11.821
92924SOL    HW180669   1.849   2.441  11.776
92924SOL    HW280670   1.977   2.362  11.758
92925SOL     OW80671  11.918  12.247   1.506
92925SOL    HW180672  12.011  12.255   1.530
92925SOL    HW280673  11.872  12.298   1.572
92926SOL     OW80674   7.117  11.145   3.441
92926SOL    HW180675   7.164  11.228   3.453
92926SOL    HW280676   7.026  11.166   3.462
92927SOL     OW80677  11.213   0.730   9.699
92927SOL    HW180678  11.146   0.690   9.754
92927SOL    HW280679  11.264   0.784   9.760
92928SOL     OW80680   3.283  11.872  10.312
92928SOL    HW180681   3.291  11.838  10.401
92928SOL    HW280682   3.222  11.945  10.319
92929SOL     OW80683   8.263   5.879  10.575
92929SOL    HW180684   8.253   5.845  10.486
92929SOL    HW280685   8.263   5.974  10.564
92930SOL     OW80686  10.148   1.112   5.519
92930SOL    HW180687  10.147   1.165   5.439
92930SOL    HW280688  10.223   1.144   5.568
92931SOL     OW80689   4.414   0.904   2.804
92931SOL    HW180690   4.509   0.889   2.800
92931SOL    HW280691   4.405   0.991   2.845
92932SOL     OW80692  11.253   3.895  10.660
92932SOL    HW180693  11.158   3.887  10.666
92932SOL    HW280694  11.281   3.916  10.749
92933SOL     OW80695   9.830   7.654  10.858
92933SOL    HW180696   9.801   7.599  10.785
92933SOL    HW280697   9.886   7.596  10.910
92934SOL     OW80698  11.819   2.693   7.155
92934SOL    HW180699  11.865   2.775   7.170
92934SOL    HW280700  11.785   2.668   7.241
92935SOL     OW80701  10.306   1.057   1.394
92935SOL    HW180702  10.334   1.089   1.479
92935SOL    HW280703  10.387   1.031   1.350
92936SOL     OW80704   3.152   0.308   0.766
92936SOL    HW180705   3.201   0.325   0.846
92936SOL    HW280706   3.081   0.249   0.793
92937SOL     OW80707  10.326   0.171  12.506
92937SOL    HW180708  10.284   0.251  12.475
92937SOL    HW280709  10.392   0.200  12.568
92938SOL     OW80710   3.478   5.106  13.078
92938SOL    HW180711   3.441   5.137  12.995
92938SOL    HW280712   3.482   5.011  13.069
92939SOL     OW80713  11.833  10.761   4.533
92939SOL    HW180714  11.837  10.690   4.597
92939SOL    HW280715  11.787  10.723   4.458
92940SOL     OW80716   1.873  14.478   8.521
92940SOL    HW180717   1.833  14.470   8.435
92940SOL    HW280718   1.808  14.441   8.581
92941SOL     OW80719  13.264   3.228   2.678
92941SOL    HW180720  13.303   3.156   2.727
92941SOL    HW280721  13.223   3.283   2.745
92942SOL     OW80722   1.234  13.671   2.750
92942SOL    HW180723   1.259  13.604   2.814
92942SOL    HW280724   1.301  13.665   2.682
92943SOL     OW80725   7.260  10.930  11.555
92943SOL    HW180726   7.346  10.954  11.520
92943SOL    HW280727   7.280  10.891  11.640
92944SOL     OW80728   6.006  12.996  11.431
92944SOL    HW180729   6.034  13.065  11.492
92944SOL    HW280730   5.990  13.041  11.349
92945SOL     OW80731   7.223  12.285   8.312
92945SOL    HW180732   7.154  12.345   8.341
92945SOL    HW280733   7.186  12.240   8.236
92946SOL     OW80734   0.015  12.601  14.045
92946SOL    HW180735   0.061  12.599  13.961
92946SOL    HW280736   0.064  12.542  14.101
92947SOL     OW80737   3.120  10.055   4.684
92947SOL    HW180738   3.215  10.050   4.688
92947SOL    HW280739   3.092   9.964   4.670
92948SOL     OW80740  14.816   0.717   5.093
92948SOL    HW180741  14.726   0.725   5.063
92948SOL    HW280742  14.822   0.774   5.169
92949SOL     OW80743   9.059   0.683   7.156
92949SOL    HW180744   9.073   0.776   7.143
92949SOL    HW280745   9.072   0.644   7.069
92950SOL     OW80746   1.486   2.460   9.013
92950SOL    HW180747   1.523   2.519   8.948
92950SOL    HW280748   1.538   2.475   9.092
92951SOL     OW80749  14.337  14.116   5.494
92951SOL    HW180750  14.281  14.181   5.453
92951SOL    HW280751  14.314  14.119   5.587
92952SOL     OW80752  13.328   3.616  14.110
92952SOL    HW180753  13.339   3.580  14.198
92952SOL    HW280754  13.247   3.667  14.115
92953SOL     OW80755   1.536  14.357   1.012
92953SOL    HW180756   1.541  14.261   1.009
92953SOL    HW280757   1.458  14.378   0.961
92954SOL     OW80758   1.607  11.671  10.330
92954SOL    HW180759   1.694  11.711  10.329
92954SOL    HW280760   1.546  11.745  10.325
92955SOL     OW80761   7.622  13.100  13.276
92955SOL    HW180762   7.645  13.137  13.191
92955SOL    HW280763   7.622  13.005  13.262
92956SOL     OW80764   0.599   5.764   7.079
92956SOL    HW180765   0.609   5.851   7.118
92956SOL    HW280766   0.506   5.744   7.088
92957SOL     OW80767   4.460   3.442   3.404
92957SOL    HW180768   4.487   3.504   3.471
92957SOL    HW280769   4.460   3.357   3.449
92958SOL     OW80770  13.795   8.687   7.764
92958SOL    HW180771  13.757   8.768   7.731
92958SOL    HW280772  13.731   8.655   7.828
92959SOL     OW80773  10.449   9.088   3.696
92959SOL    HW180774  10.495   9.112   3.616
92959SOL    HW280775  10.368   9.139   3.694
92960SOL     OW80776   2.840   3.813   7.024
92960SOL    HW180777   2.854   3.762   6.945
92960SOL    HW280778   2.746   3.826   7.028
92961SOL     OW80779  13.328   6.140   3.415
92961SOL    HW180780  13.275   6.173   3.488
92961SOL    HW280781  13.351   6.051   3.442
92962SOL     OW80782   0.397   4.298   8.132
92962SOL    HW180783   0.449   4.225   8.163
92962SOL    HW280784   0.424   4.311   8.041
92963SOL     OW80785   3.214   5.457   4.795
92963SOL    HW180786   3.257   5.428   4.876
92963SOL    HW280787   3.127   5.485   4.823
92964SOL     OW80788   0.737   0.001  14.737
92964SOL    HW180789   0.695  14.804  14.779
92964SOL    HW280790   0.821  14.845  14.706
92965SOL     OW80791  12.760  10.204   2.060
92965SOL    HW180792  12.695  10.252   2.008
92965SOL    HW280793  12.765  10.252   2.142
92966SOL     OW80794   7.023   4.180   2.775
92966SOL    HW180795   7.067   4.114   2.720
92966SOL    HW280796   6.931   4.155   2.774
92967SOL     OW80797   2.467   3.136  12.046
92967SOL    HW180798   2.531   3.201  12.074
92967SOL    HW280799   2.392   3.187  12.017
92968SOL     OW80800  14.739   8.625   6.360
92968SOL    HW180801  14.828   8.655   6.377
92968SOL    HW280802  14.684   8.698   6.387
92969SOL     OW80803   6.410   5.774   2.767
92969SOL    HW180804   6.478   5.760   2.834
92969SOL    HW280805   6.416   5.867   2.746
92970SOL     OW80806   9.838  12.227   2.496
92970SOL    HW180807   9.880  12.269   2.571
92970SOL    HW280808   9.865  12.279   2.421
92971SOL     OW80809  11.664   2.113   9.832
92971SOL    HW180810  11.638   2.053   9.903
92971SOL    HW280811  11.683   2.056   9.758
92972SOL     OW80812   4.404   8.791   1.330
92972SOL    HW180813   4.441   8.871   1.294
92972SOL    HW280814   4.474   8.726   1.320
92973SOL     OW80815  10.887   0.133   4.228
92973SOL    HW180816  10.898   0.088   4.144
92973SOL    HW280817  10.921   0.072   4.293
92974SOL     OW80818  13.341   5.383   7.387
92974SOL    HW180819  13.268   5.369   7.447
92974SOL    HW280820  13.309   5.449   7.325
92975SOL     OW80821  13.297   3.715  10.660
92975SOL    HW180822  13.358   3.772  10.613
92975SOL    HW280823  13.243   3.775  10.712
92976SOL     OW80824   7.306   7.976  14.816
92976SOL    HW180825   7.258   8.040  14.764
92976SOL    HW280826   7.274   7.891  14.786
92977SOL     OW80827   9.835   5.317  10.510
92977SOL    HW180828   9.812   5.366  10.589
92977SOL    HW280829   9.822   5.225  10.535
92978SOL     OW80830   9.961   1.915   8.546
92978SOL    HW180831   9.912   1.835   8.527
92978SOL    HW280832   9.904   1.985   8.513
92979SOL     OW80833   1.866   3.656  11.987
92979SOL    HW180834   1.846   3.673  12.079
92979SOL    HW280835   1.810   3.582  11.964
92980SOL     OW80836   9.847  10.062   0.137
92980SOL    HW180837   9.779  10.109   0.090
92980SOL    HW280838   9.802  10.024   0.213
92981SOL     OW80839   8.647  11.030   0.174
92981SOL    HW180840   8.553  11.014   0.186
92981SOL    HW280841   8.675  11.072   0.255
92982SOL     OW80842   0.819   2.068   6.135
92982SOL    HW180843   0.788   2.126   6.065
92982SOL    HW280844   0.753   2.076   6.203
92983SOL     OW80845   2.636   3.942  11.191
92983SOL    HW180846   2.726   3.940  11.159
92983SOL    HW280847   2.636   4.008  11.260
92984SOL     OW80848   7.492   4.192   4.393
92984SOL    HW180849   7.531   4.172   4.307
92984SOL    HW280850   7.466   4.284   4.386
92985SOL     OW80851   2.963  11.816  10.747
92985SOL    HW180852   2.897  11.794  10.813
92985SOL    HW280853   3.044  11.779  10.781
92986SOL     OW80854   2.137   4.159   1.632
92986SOL    HW180855   2.205   4.100   1.662
92986SOL    HW280856   2.072   4.102   1.591
92987SOL     OW80857  14.581   5.930   2.474
92987SOL    HW180858  14.671   5.960   2.456
92987SOL    HW280859  14.527   6.008   2.462
92988SOL     OW80860   5.048   4.175  10.888
92988SOL    HW180861   5.063   4.080  10.882
92988SOL    HW280862   5.062   4.195  10.980
92989SOL     OW80863   7.236  12.949   9.634
92989SOL    HW180864   7.153  12.961   9.589
92989SOL    HW280865   7.228  12.865   9.678
92990SOL     OW80866  12.796   0.611   3.690
92990SOL    HW180867  12.718   0.642   3.735
92990SOL    HW280868  12.857   0.684   3.695
92991SOL     OW80869   0.180   4.528  14.131
92991SOL    HW180870   0.186   4.558  14.040
92991SOL    HW280871   0.192   4.433  14.125
92992SOL     OW80872   8.375   4.604   1.068
92992SOL    HW180873   8.316   4.544   1.022
92992SOL    HW280874   8.369   4.686   1.020
92993SOL     OW80875  12.810   7.844  13.335
92993SOL    HW180876  12.861   7.763  13.342
92993SOL    HW280877  12.749   7.841  13.409
92994SOL     OW80878   3.825  12.567   6.878
92994SOL    HW180879   3.864  12.533   6.797
92994SOL    HW280880   3.866  12.515   6.947
92995SOL     OW80881  10.991  10.398  13.579
92995SOL    HW180882  10.983  10.304  13.596
92995SOL    HW280883  10.948  10.411  13.494
92996SOL     OW80884  14.814   5.865  11.936
92996SOL    HW180885  14.732   5.910  11.952
92996SOL    HW280886  14.850   5.907  11.858
92997SOL     OW80887   6.086  12.779   5.708
92997SOL    HW180888   6.012  12.836   5.686
92997SOL    HW280889   6.155  12.803   5.645
92998SOL     OW80890   5.534   8.570   9.278
92998SOL    HW180891   5.608   8.521   9.241
92998SOL    HW280892   5.459   8.545   9.225
92999SOL     OW80893   4.361   0.054   9.886
92999SOL    HW180894   4.364   0.056   9.790
92999SOL    HW280895   4.273   0.022   9.906
93000SOL     OW80896  10.366   2.837   9.785
93000SOL    HW180897  10.434   2.857   9.720
93000SOL    HW280898  10.352   2.743   9.776
93001SOL     OW80899  13.888  10.920  13.254
93001SOL    HW180900  13.887  10.854  13.184
93001SOL    HW280901  13.836  10.881  13.324
93002SOL     OW80902   8.733   8.950  12.253
93002SOL    HW180903   8.729   8.854  12.250
93002SOL    HW280904   8.808   8.970  12.308
93003SOL     OW80905   1.659  10.786   1.069
93003SOL    HW180906   1.575  10.831   1.082
93003SOL    HW280907   1.685  10.758   1.157
93004SOL     OW80908   6.439   5.094   5.822
93004SOL    HW180909   6.427   5.015   5.768
93004SOL    HW280910   6.534   5.108   5.823
93005SOL     OW80911  14.569  11.908  10.367
93005SOL    HW180912  14.611  11.867  10.292
93005SOL    HW280913  14.567  12.001  10.346
93006SOL     OW80914   4.677   2.543   6.039
93006SOL    HW180915   4.682   2.492   5.959
93006SOL    HW280916   4.584   2.547   6.059
93007SOL     OW80917  13.431   3.025  10.442
93007SOL    HW180918  13.506   3.027  10.382
93007SOL    HW280919  13.465   2.983  10.521
93008SOL     OW80920   7.969   8.009   4.325
93008SOL    HW180921   7.931   8.096   4.314
93008SOL    HW280922   8.058   8.017   4.292
93009SOL     OW80923  12.154  12.525   5.864
93009SOL    HW180924  12.224  12.576   5.823
93009SOL    HW280925  12.074  12.571   5.842
93010SOL     OW80926   8.974  12.914   1.872
93010SOL    HW180927   8.899  12.953   1.917
93010SOL    HW280928   8.997  12.838   1.926
93011SOL     OW80929   8.422  12.072   4.691
93011SOL    HW180930   8.435  12.118   4.775
93011SOL    HW280931   8.376  12.135   4.636
93012SOL     OW80932   4.809   0.233   2.768
93012SOL    HW180933   4.821   0.162   2.704
93012SOL    HW280934   4.715   0.239   2.780
93013SOL     OW80935   7.060   4.772   2.293
93013SOL    HW180936   7.113   4.711   2.242
93013SOL    HW280937   6.977   4.725   2.307
93014SOL     OW80938   0.456  12.000   8.194
93014SOL    HW180939   0.362  12.017   8.191
93014SOL    HW280940   0.485  12.008   8.103
93015SOL     OW80941   6.000  13.800   1.173
93015SOL    HW180942   5.988  13.709   1.200
93015SOL    HW280943   6.083  13.826   1.215
93016SOL     OW80944   7.321   8.277   4.098
93016SOL    HW180945   7.245   8.277   4.038
93016SOL    HW280946   7.373   8.352   4.070
93017SOL     OW80947   6.642  13.633   7.561
93017SOL    HW180948   6.731  13.642   7.526
93017SOL    HW280949   6.637  13.700   7.629
93018SOL     OW80950   9.468   8.202   8.383
93018SOL    HW180951   9.489   8.289   8.349
93018SOL    HW280952   9.474   8.212   8.478
93019SOL     OW80953   5.420   5.144  11.100
93019SOL    HW180954   5.376   5.214  11.149
93019SOL    HW280955   5.348   5.095  11.060
93020SOL     OW80956   6.837  11.575   8.777
93020SOL    HW180957   6.824  11.664   8.810
93020SOL    HW280958   6.924  11.577   8.737
93021SOL     OW80959   8.461   8.840   5.843
93021SOL    HW180960   8.529   8.779   5.815
93021SOL    HW280961   8.494   8.926   5.818
93022SOL     OW80962   7.403  13.185   0.178
93022SOL    HW180963   7.428  13.235   0.255
93022SOL    HW280964   7.454  13.104   0.184
93023SOL     OW80965   0.752   8.518   3.768
93023SOL    HW180966   0.730   8.584   3.834
93023SOL    HW280967   0.813   8.563   3.710
93024SOL     OW80968   6.802  10.276   2.837
93024SOL    HW180969   6.806  10.267   2.742
93024SOL    HW280970   6.834  10.365   2.854
93025SOL     OW80971  12.607  13.214   1.966
93025SOL    HW180972  12.551  13.171   2.031
93025SOL    HW280973  12.683  13.157   1.958
93026SOL     OW80974   2.107   1.322  10.553
93026SOL    HW180975   2.157   1.335  10.472
93026SOL    HW280976   2.145   1.243  10.592
93027SOL     OW80977   1.214   1.997   2.894
93027SOL    HW180978   1.175   1.941   2.962
93027SOL    HW280979   1.296   2.028   2.932
93028SOL     OW80980  11.244  10.228   7.554
93028SOL    HW180981  11.338  10.232   7.572
93028SOL    HW280982  11.237  10.183   7.470
93029SOL     OW80983   7.007  10.383   7.382
93029SOL    HW180984   7.082  10.339   7.340
93029SOL    HW280985   7.046  10.458   7.427
93030SOL     OW80986   1.215   4.111  10.040
93030SOL    HW180987   1.290   4.051  10.040
93030SOL    HW280988   1.146   4.062  10.084
93031SOL     OW80989  13.060   3.521  11.338
93031SOL    HW180990  12.967   3.538  11.321
93031SOL    HW280991  13.100   3.515  11.252
93032SOL     OW80992   6.083  13.821   2.146
93032SOL    HW180993   6.136  13.760   2.197
93032SOL    HW280994   6.018  13.766   2.102
93033SOL     OW80995   9.678  14.533  12.199
93033SOL    HW180996   9.656  14.476  12.125
93033SOL    HW280997   9.667  14.622  12.165
93034SOL     OW80998   3.394   1.915   5.320
93034SOL    HW180999   3.487   1.908   5.339
93034SOL    HW281000   3.351   1.901   5.404
93035SOL     OW81001  13.734   2.269   3.480
93035SOL    HW181002  13.819   2.306   3.503
93035SOL    HW281003  13.713   2.210   3.553
93036SOL     OW81004   0.046  13.425   7.898
93036SOL    HW181005   0.123  13.421   7.840
93036SOL    HW281006   0.009  13.337   7.893
93037SOL     OW81007   7.977  10.691   2.369
93037SOL    HW181008   8.057  10.743   2.374
93037SOL    HW281009   7.907  10.756   2.359
93038SOL     OW81010   2.243   6.292   0.045
93038SOL    HW181011   2.296   6.308   0.123
93038SOL    HW281012   2.208   6.378   0.022
93039SOL     OW81013   7.250   8.050   4.243
93039SOL    HW181014   7.317   7.986   4.220
93039SOL    HW281015   7.290   8.135   4.223
93040SOL     OW81016   5.588  11.873  11.257
93040SOL    HW181017   5.600  11.784  11.290
93040SOL    HW281018   5.677  11.903  11.237
93041SOL     OW81019  14.266   8.933  14.693
93041SOL    HW181020  14.191   8.981  14.658
93041SOL    HW281021  14.233   8.894  14.774
93042SOL     OW81022   2.358   5.564   2.896
93042SOL    HW181023   2.289   5.506   2.865
93042SOL    HW281024   2.318   5.651   2.895
93043SOL     OW81025   7.634   0.911  13.434
93043SOL    HW181026   7.659   0.819  13.422
93043SOL    HW281027   7.540   0.908  13.454
93044SOL     OW81028   2.174   1.847  14.749
93044SOL    HW181029   2.131   1.804  14.824
93044SOL    HW281030   2.149   1.939  14.758
93045SOL     OW81031   5.209  11.157   6.465
93045SOL    HW181032   5.260  11.208   6.527
93045SOL    HW281033   5.230  11.066   6.485
93046SOL     OW81034  11.445   1.432   7.314
93046SOL    HW181035  11.524   1.474   7.347
93046SOL    HW281036  11.421   1.369   7.383
93047SOL     OW81037  10.345   9.485  10.763
93047SOL    HW181038  10.383   9.506  10.678
93047SOL    HW281039  10.418   9.485  10.824
93048SOL     OW81040  12.813  13.156  14.844
93048SOL    HW181041  12.829  13.136   0.059
93048SOL    HW281042  12.719  13.146  14.834
93049SOL     OW81043  13.460   8.060   0.157
93049SOL    HW181044  13.512   8.138   0.176
93049SOL    HW281045  13.512   7.988   0.191
93050SOL     OW81046  14.606   9.554   8.435
93050SOL    HW181047  14.532   9.581   8.381
93050SOL    HW281048  14.618   9.626   8.497
93051SOL     OW81049   2.431   0.705   3.482
93051SOL    HW181050   2.502   0.745   3.432
93051SOL    HW281051   2.459   0.615   3.497
93052SOL     OW81052  13.804  12.203  12.314
93052SOL    HW181053  13.744  12.173  12.381
93052SOL    HW281054  13.764  12.283  12.280
93053SOL     OW81055  13.340   1.330  13.173
93053SOL    HW181056  13.425   1.337  13.216
93053SOL    HW281057  13.332   1.412  13.124
93054SOL     OW81058   8.827   2.444   6.049
93054SOL    HW181059   8.851   2.474   6.136
93054SOL    HW281060   8.828   2.349   6.055
93055SOL     OW81061   5.131  14.606  11.225
93055SOL    HW181062   5.162  14.563  11.305
93055SOL    HW281063   5.166  14.551  11.154
93056SOL     OW81064   8.438   6.442   0.658
93056SOL    HW181065   8.404   6.410   0.742
93056SOL    HW281066   8.374   6.508   0.630
93057SOL     OW81067   8.274   9.348   4.944
93057SOL    HW181068   8.318   9.410   5.003
93057SOL    HW281069   8.254   9.273   4.999
93058SOL     OW81070   1.128  10.272   4.243
93058SOL    HW181071   1.133  10.221   4.162
93058SOL    HW281072   1.069  10.344   4.221
93059SOL     OW81073   7.467  13.561   7.867
93059SOL    HW181074   7.459  13.492   7.801
93059SOL    HW281075   7.551  13.602   7.849
93060SOL     OW81076   6.018   1.658  11.396
93060SOL    HW181077   5.983   1.574  11.424
93060SOL    HW281078   5.952   1.694  11.336
93061SOL     OW81079  12.218   6.218   2.729
93061SOL    HW181080  12.134   6.198   2.770
93061SOL    HW281081  12.202   6.299   2.680
93062SOL     OW81082   3.261   3.134   5.839
93062SOL    HW181083   3.224   3.066   5.784
93062SOL    HW281084   3.198   3.145   5.910
93063SOL     OW81085  13.005   3.528   4.167
93063SOL    HW181086  13.074   3.564   4.111
93063SOL    HW281087  13.050   3.511   4.250
93064SOL     OW81088   4.036  11.926  12.024
93064SOL    HW181089   4.093  11.870  12.076
93064SOL    HW281090   4.084  12.008  12.016
93065SOL     OW81091   4.903   2.599   2.796
93065SOL    HW181092   4.927   2.526   2.854
93065SOL    HW281093   4.881   2.557   2.713
93066SOL     OW81094   1.236   6.726   7.445
93066SOL    HW181095   1.294   6.769   7.508
93066SOL    HW281096   1.289   6.656   7.407
93067SOL     OW81097  14.516   3.237   8.165
93067SOL    HW181098  14.434   3.200   8.197
93067SOL    HW281099  14.515   3.328   8.195
93068SOL     OW81100   2.584   1.805  10.799
93068SOL    HW181101   2.587   1.800  10.703
93068SOL    HW281102   2.655   1.866  10.822
93069SOL     OW81103  12.982  12.625   8.225
93069SOL    HW181104  13.015  12.714   8.236
93069SOL    HW281105  13.018  12.577   8.300
93070SOL     OW81106  11.939  11.006   8.892
93070SOL    HW181107  11.844  11.002   8.903
93070SOL    HW281108  11.961  10.928   8.840
93071SOL     OW81109  12.805   0.392   8.561
93071SOL    HW181110  12.757   0.380   8.479
93071SOL    HW281111  12.751   0.451   8.613
93072SOL     OW81112  10.159   5.987   8.043
93072SOL    HW181113  10.082   6.005   7.989
93072SOL    HW281114  10.129   5.999   8.133
93073SOL     OW81115   5.210  14.513   7.539
93073SOL    HW181116   5.296  14.552   7.554
93073SOL    HW281117   5.148  14.582   7.564
93074SOL     OW81118  14.726  11.886   4.240
93074SOL    HW181119  14.747  11.854   4.152
93074SOL    HW281120  14.733  11.981   4.234
93075SOL     OW81121   2.293   5.453   5.565
93075SOL    HW181122   2.311   5.375   5.618
93075SOL    HW281123   2.367   5.511   5.582
93076SOL     OW81124   3.242   0.377   8.159
93076SOL    HW181125   3.330   0.409   8.180
93076SOL    HW281126   3.189   0.456   8.151
93077SOL     OW81127  13.077   1.455   2.545
93077SOL    HW181128  13.053   1.362   2.553
93077SOL    HW281129  13.144   1.456   2.477
93078SOL     OW81130   2.707  11.074   2.785
93078SOL    HW181131   2.646  11.012   2.825
93078SOL    HW281132   2.780  11.020   2.755
93079SOL     OW81133   6.940   8.792   6.124
93079SOL    HW181134   6.857   8.820   6.086
93079SOL    HW281135   6.920   8.771   6.215
93080SOL     OW81136  10.955   6.520   3.097
93080SOL    HW181137  10.974   6.431   3.127
93080SOL    HW281138  10.935   6.568   3.177
93081SOL     OW81139   3.648   9.110  10.224
93081SOL    HW181140   3.678   9.071  10.306
93081SOL    HW281141   3.562   9.144  10.244
93082SOL     OW81142   5.422   5.389  12.016
93082SOL    HW181143   5.412   5.301  12.053
93082SOL    HW281144   5.501   5.424  12.058
93083SOL     OW81145  14.109   5.623   8.746
93083SOL    HW181146  14.033   5.597   8.798
93083SOL    HW281147  14.143   5.701   8.789
93084SOL     OW81148   3.924  13.591   3.978
93084SOL    HW181149   4.006  13.616   3.935
93084SOL    HW281150   3.913  13.498   3.958
93085SOL     OW81151   9.562   9.582   4.561
93085SOL    HW181152   9.582   9.580   4.654
93085SOL    HW281153   9.582   9.672   4.534
93086SOL     OW81154  13.642   2.724   0.609
93086SOL    HW181155  13.582   2.782   0.656
93086SOL    HW281156  13.656   2.768   0.525
93087SOL     OW81157   4.233   0.845  12.272
93087SOL    HW181158   4.310   0.827  12.218
93087SOL    HW281159   4.235   0.940  12.286
93088SOL     OW81160  14.552  12.749   6.595
93088SOL    HW181161  14.469  12.744   6.549
93088SOL    HW281162  14.603  12.675   6.561
93089SOL     OW81163   6.532   8.151   8.901
93089SOL    HW181164   6.451   8.160   8.850
93089SOL    HW281165   6.587   8.092   8.849
93090SOL     OW81166   6.986   4.897   9.448
93090SOL    HW181167   6.939   4.832   9.501
93090SOL    HW281168   7.066   4.852   9.421
93091SOL     OW81169  10.491   0.232   2.096
93091SOL    HW181170  10.436   0.282   2.155
93091SOL    HW281171  10.476   0.271   2.010
93092SOL     OW81172  13.074   5.418   7.313
93092SOL    HW181173  13.094   5.355   7.244
93092SOL    HW281174  13.056   5.365   7.390
93093SOL     OW81175   5.661   3.293   2.388
93093SOL    HW181176   5.648   3.387   2.371
93093SOL    HW281177   5.679   3.255   2.302
93094SOL     OW81178  12.147  11.245  11.415
93094SOL    HW181179  12.227  11.207  11.379
93094SOL    HW281180  12.161  11.244  11.510
93095SOL     OW81181   1.025  13.775  11.338
93095SOL    HW181182   0.987  13.858  11.367
93095SOL    HW281183   1.062  13.795  11.252
93096SOL     OW81184   1.736   0.540   6.021
93096SOL    HW181185   1.784   0.619   6.045
93096SOL    HW281186   1.768   0.519   5.933
93097SOL     OW81187   8.597  11.353  11.869
93097SOL    HW181188   8.593  11.297  11.792
93097SOL    HW281189   8.675  11.407  11.855
93098SOL     OW81190  11.474  14.666  12.406
93098SOL    HW181191  11.557  14.626  12.431
93098SOL    HW281192  11.410  14.626  12.466
93099SOL     OW81193   0.893   3.999   1.162
93099SOL    HW181194   0.963   4.065   1.164
93099SOL    HW281195   0.818   4.042   1.203
93100SOL     OW81196  13.721   6.259   2.605
93100SOL    HW181197  13.646   6.248   2.663
93100SOL    HW281198  13.731   6.354   2.596
93101SOL     OW81199  10.207  12.832   5.753
93101SOL    HW181200  10.245  12.850   5.839
93101SOL    HW281201  10.193  12.737   5.752
93102SOL     OW81202   2.895   0.875   9.262
93102SOL    HW181203   2.857   0.816   9.197
93102SOL    HW281204   2.960   0.822   9.308
93103SOL     OW81205   4.169   8.096  11.301
93103SOL    HW181206   4.199   8.017  11.256
93103SOL    HW281207   4.249   8.141  11.326
93104SOL     OW81208  11.052   4.784  12.626
93104SOL    HW181209  11.133   4.763  12.674
93104SOL    HW281210  11.065   4.874  12.596
93105SOL     OW81211  10.153   0.295   9.054
93105SOL    HW181212  10.066   0.255   9.047
93105SOL    HW281213  10.199   0.241   9.118
93106SOL     OW81214  13.395   3.261   0.829
93106SOL    HW181215  13.394   3.320   0.754
93106SOL    HW281216  13.302   3.246   0.848
93107SOL     OW81217  11.126   5.925   5.952
93107SOL    HW181218  11.033   5.947   5.964
93107SOL    HW281219  11.171   6.009   5.956
93108SOL     OW81220   1.411   9.580   2.751
93108SOL    HW181221   1.393   9.488   2.733
93108SOL    HW281222   1.481   9.603   2.690
93109SOL     OW81223   3.888   8.276  14.577
93109SOL    HW181224   3.937   8.261  14.495
93109SOL    HW281225   3.890   8.191  14.621
93110SOL     OW81226  10.285  11.754   3.104
93110SOL    HW181227  10.367  11.736   3.149
93110SOL    HW281228  10.228  11.790   3.173
93111SOL     OW81229  12.149   4.708   2.138
93111SOL    HW181230  12.195   4.637   2.181
93111SOL    HW281231  12.138   4.775   2.206
93112SOL     OW81232   5.525   2.952   1.715
93112SOL    HW181233   5.592   2.968   1.781
93112SOL    HW281234   5.567   2.896   1.651
93113SOL     OW81235   1.798   6.104  11.557
93113SOL    HW181236   1.867   6.168  11.576
93113SOL    HW281237   1.839   6.041  11.498
93114SOL     OW81238   3.243   0.887  10.065
93114SOL    HW181239   3.155   0.859  10.038
93114SOL    HW281240   3.267   0.954  10.001
93115SOL     OW81241   3.588   0.673   2.655
93115SOL    HW181242   3.542   0.711   2.730
93115SOL    HW281243   3.604   0.582   2.680
93116SOL     OW81244   0.164   4.559   7.917
93116SOL    HW181245   0.257   4.569   7.898
93116SOL    HW281246   0.134   4.493   7.854
93117SOL     OW81247   0.600   4.767   7.952
93117SOL    HW181248   0.654   4.691   7.927
93117SOL    HW281249   0.536   4.731   8.013
93118SOL     OW81250  14.391   5.246  14.200
93118SOL    HW181251  14.387   5.167  14.147
93118SOL    HW281252  14.466   5.233  14.257
93119SOL     OW81253   4.346  10.650  14.662
93119SOL    HW181254   4.352  10.666  14.568
93119SOL    HW281255   4.301  10.566  14.669
93120SOL     OW81256   1.082   1.314  10.909
93120SOL    HW181257   1.144   1.260  10.859
93120SOL    HW281258   1.136   1.358  10.974
93121SOL     OW81259   7.301   0.327   0.297
93121SOL    HW181260   7.385   0.319   0.341
93121SOL    HW281261   7.314   0.285   0.212
93122SOL     OW81262   4.654   7.894  13.482
93122SOL    HW181263   4.590   7.897  13.553
93122SOL    HW281264   4.611   7.844  13.413
93123SOL     OW81265  14.685  14.037   6.624
93123SOL    HW181266  14.720  13.953   6.655
93123SOL    HW281267  14.612  14.014   6.567
93124SOL     OW81268  10.443  14.105  13.078
93124SOL    HW181269  10.445  14.176  13.014
93124SOL    HW281270  10.473  14.028  13.029
93125SOL     OW81271   9.997   8.772   2.280
93125SOL    HW181272   9.943   8.775   2.201
93125SOL    HW281273  10.043   8.688   2.275
93126SOL     OW81274  10.745   7.099   5.594
93126SOL    HW181275  10.717   7.182   5.632
93126SOL    HW281276  10.836   7.114   5.568
93127SOL     OW81277   0.281   4.411   2.022
93127SOL    HW181278   0.313   4.498   2.043
93127SOL    HW281279   0.359   4.355   2.027
93128SOL     OW81280  12.655  10.338   4.599
93128SOL    HW181281  12.611  10.417   4.631
93128SOL    HW281282  12.583  10.278   4.578
93129SOL     OW81283  13.277   3.238   4.217
93129SOL    HW181284  13.273   3.246   4.122
93129SOL    HW281285  13.189   3.211   4.243
93130SOL     OW81286   7.664   3.610   9.274
93130SOL    HW181287   7.607   3.654   9.336
93130SOL    HW281288   7.743   3.589   9.324
93131SOL     OW81289  11.348  13.496   8.710
93131SOL    HW181290  11.365  13.577   8.758
93131SOL    HW281291  11.279  13.453   8.759
93132SOL     OW81292  13.108   5.372  13.236
93132SOL    HW181293  13.033   5.315  13.253
93132SOL    HW281294  13.184   5.313  13.238
93133SOL     OW81295   1.921  14.478   8.837
93133SOL    HW181296   1.920  14.573   8.831
93133SOL    HW281297   1.833  14.451   8.811
93134SOL     OW81298   9.177   2.684   8.541
93134SOL    HW181299   9.177   2.779   8.552
93134SOL    HW281300   9.140   2.671   8.453
93135SOL     OW81301   3.254  10.873   7.045
93135SOL    HW181302   3.164  10.858   7.074
93135SOL    HW281303   3.296  10.916   7.120
93136SOL     OW81304   1.182   3.794   9.803
93136SOL    HW181305   1.104   3.834   9.765
93136SOL    HW281306   1.254   3.822   9.747
93137SOL     OW81307   7.568  12.180   1.324
93137SOL    HW181308   7.481  12.213   1.348
93137SOL    HW281309   7.550  12.114   1.257
93138SOL     OW81310   4.545   8.048   9.154
93138SOL    HW181311   4.488   8.110   9.200
93138SOL    HW281312   4.606   8.104   9.106
93139SOL     OW81313  13.802  11.128   1.611
93139SOL    HW181314  13.764  11.175   1.685
93139SOL    HW281315  13.755  11.160   1.534
93140SOL     OW81316  11.283   8.311  14.171
93140SOL    HW181317  11.349   8.318  14.240
93140SOL    HW281318  11.332   8.312  14.090
93141SOL     OW81319  11.024   3.534   1.651
93141SOL    HW181320  11.093   3.575   1.599
93141SOL    HW281321  11.070   3.474   1.710
93142SOL     OW81322   5.830   7.479  11.017
93142SOL    HW181323   5.924   7.493  11.030
93142SOL    HW281324   5.788   7.554  11.060
93143SOL     OW81325   9.584   4.174  11.346
93143SOL    HW181326   9.670   4.142  11.376
93143SOL    HW281327   9.589   4.169  11.250
93144SOL     OW81328   8.670  11.757   0.407
93144SOL    HW181329   8.576  11.744   0.398
93144SOL    HW281330   8.684  11.774   0.500
93145SOL     OW81331  11.794  12.160  14.216
93145SOL    HW181332  11.743  12.151  14.136
93145SOL    HW281333  11.730  12.183  14.283
93146SOL     OW81334  14.227  10.060  14.580
93146SOL    HW181335  14.240  10.097  14.492
93146SOL    HW281336  14.288  10.109  14.635
93147SOL     OW81337   4.602   3.842  11.990
93147SOL    HW181338   4.637   3.889  12.065
93147SOL    HW281339   4.513   3.876  11.979
93148SOL     OW81340   0.149   9.326   1.329
93148SOL    HW181341   0.220   9.286   1.380
93148SOL    HW281342   0.125   9.404   1.379
93149SOL     OW81343   5.723   8.828   2.064
93149SOL    HW181344   5.675   8.869   2.136
93149SOL    HW281345   5.661   8.829   1.990
93150SOL     OW81346   7.842   4.019   1.466
93150SOL    HW181347   7.900   3.989   1.536
93150SOL    HW281348   7.762   4.046   1.511
93151SOL     OW81349   8.182   9.284  11.315
93151SOL    HW181350   8.105   9.258  11.365
93151SOL    HW281351   8.205   9.206  11.264
93152SOL     OW81352   8.867   7.552   7.344
93152SOL    HW181353   8.786   7.598   7.320
93152SOL    HW281354   8.891   7.589   7.429
93153SOL     OW81355  11.639   8.004   6.998
93153SOL    HW181356  11.665   8.094   6.980
93153SOL    HW281357  11.713   7.967   7.046
93154SOL     OW81358   6.937   1.691  11.977
93154SOL    HW181359   6.853   1.721  11.944
93154SOL    HW281360   6.935   1.708  12.071
93155SOL     OW81361   0.903  10.647   5.107
93155SOL    HW181362   0.812  10.676   5.115
93155SOL    HW281363   0.939  10.701   5.036
93156SOL     OW81364   5.924  11.055   4.523
93156SOL    HW181365   5.923  11.005   4.604
93156SOL    HW281366   5.881  11.138   4.544
93157SOL     OW81367   0.005   2.064  12.641
93157SOL    HW181368  14.817   2.060  12.711
93157SOL    HW281369   0.001   1.979  12.598
93158SOL     OW81370   7.495   8.434   9.900
93158SOL    HW181371   7.569   8.416   9.959
93158SOL    HW281372   7.535   8.473   9.822
93159SOL     OW81373   0.861   2.839   9.113
93159SOL    HW181374   0.881   2.746   9.125
93159SOL    HW281375   0.885   2.879   9.197
93160SOL     OW81376   1.168   0.138   7.968
93160SOL    HW181377   1.194   0.230   7.969
93160SOL    HW281378   1.082   0.138   8.010
93161SOL     OW81379  10.372   3.207   7.535
93161SOL    HW181380  10.466   3.224   7.537
93161SOL    HW281381  10.338   3.251   7.613
93162SOL     OW81382  12.608   0.610   9.362
93162SOL    HW181383  12.667   0.646   9.296
93162SOL    HW281384  12.563   0.538   9.317
93163SOL     OW81385  11.836   6.988   2.514
93163SOL    HW181386  11.929   6.970   2.530
93163SOL    HW281387  11.790   6.947   2.587
93164SOL     OW81388  10.291  14.027   4.126
93164SOL    HW181389  10.309  14.001   4.216
93164SOL    HW281390  10.378  14.035   4.085
93165SOL     OW81391   3.941   6.746   5.368
93165SOL    HW181392   3.981   6.660   5.352
93165SOL    HW281393   4.000   6.789   5.430
93166SOL     OW81394   4.204  13.293   3.353
93166SOL    HW181395   4.257  13.214   3.369
93166SOL    HW281396   4.132  13.263   3.297
93167SOL     OW81397   5.098   9.199   2.660
93167SOL    HW181398   5.147   9.154   2.591
93167SOL    HW281399   5.109   9.143   2.737
93168SOL     OW81400  10.926  12.754  10.049
93168SOL    HW181401  11.006  12.781  10.094
93168SOL    HW281402  10.955  12.730   9.961
93169SOL     OW81403   2.084  10.687   4.693
93169SOL    HW181404   2.093  10.727   4.607
93169SOL    HW281405   1.989  10.680   4.706
93170SOL     OW81406   7.659   6.304  13.006
93170SOL    HW181407   7.751   6.282  12.992
93170SOL    HW281408   7.641   6.372  12.941
93171SOL     OW81409   3.621   4.862   6.709
93171SOL    HW181410   3.669   4.815   6.642
93171SOL    HW281411   3.529   4.852   6.685
93172SOL     OW81412   4.059  10.241  11.352
93172SOL    HW181413   4.108  10.178  11.405
93172SOL    HW281414   4.114  10.319  11.350
93173SOL     OW81415   7.059   3.436  10.644
93173SOL    HW181416   7.035   3.352  10.683
93173SOL    HW281417   7.148   3.453  10.675
93174SOL     OW81418  11.899   7.826  10.622
93174SOL    HW181419  11.986   7.865  10.630
93174SOL    HW281420  11.854   7.880  10.557
93175SOL     OW81421   3.193   4.812  12.041
93175SOL    HW181422   3.127   4.790  11.975
93175SOL    HW281423   3.227   4.896  12.013
93176SOL     OW81424  14.571   9.114   9.058
93176SOL    HW181425  14.589   9.117   9.152
93176SOL    HW281426  14.615   9.034   9.028
93177SOL     OW81427  12.057  13.923   7.483
93177SOL    HW181428  11.999  13.952   7.553
93177SOL    HW281429  12.096  13.842   7.515
93178SOL     OW81430   3.136   5.575  14.701
93178SOL    HW181431   3.056   5.563  14.650
93178SOL    HW281432   3.179   5.651  14.661
93179SOL     OW81433  13.842  12.331   9.841
93179SOL    HW181434  13.766  12.287   9.878
93179SOL    HW281435  13.810  12.417   9.814
93180SOL     OW81436   9.502   9.233   3.432
93180SOL    HW181437   9.582   9.259   3.478
93180SOL    HW281438   9.509   9.139   3.422
93181SOL     OW81439   6.370   9.894   9.137
93181SOL    HW181440   6.457   9.927   9.157
93181SOL    HW281441   6.385   9.809   9.094
93182SOL     OW81442   7.730  10.094  10.412
93182SOL    HW181443   7.707  10.171  10.360
93182SOL    HW281444   7.698  10.113  10.500
93183SOL     OW81445   8.761  13.361   3.318
93183SOL    HW181446   8.845  13.345   3.275
93183SOL    HW281447   8.766  13.312   3.400
93184SOL     OW81448   9.740   5.297  12.887
93184SOL    HW181449   9.653   5.263  12.906
93184SOL    HW281450   9.794   5.272  12.962
93185SOL     OW81451   3.348   2.708  12.282
93185SOL    HW181452   3.383   2.796  12.292
93185SOL    HW281453   3.313   2.686  12.369
93186SOL     OW81454   5.923  12.533   6.508
93186SOL    HW181455   5.981  12.499   6.577
93186SOL    HW281456   5.905  12.457   6.452
93187SOL     OW81457   1.596   7.435   6.034
93187SOL    HW181458   1.520   7.493   6.038
93187SOL    HW281459   1.558   7.347   6.028
93188SOL     OW81460   7.937  14.417   7.593
93188SOL    HW181461   7.979  14.481   7.536
93188SOL    HW281462   8.001  14.401   7.662
93189SOL     OW81463   7.355   2.021   9.864
93189SOL    HW181464   7.328   1.949   9.807
93189SOL    HW281465   7.277   2.041   9.915
93190SOL     OW81466   6.450  11.752  12.378
93190SOL    HW181467   6.464  11.845  12.392
93190SOL    HW281468   6.467  11.739  12.284
93191SOL     OW81469   7.960   1.246   7.129
93191SOL    HW181470   7.940   1.244   7.223
93191SOL    HW281471   7.890   1.194   7.089
93192SOL     OW81472   8.031  11.317   7.509
93192SOL    HW181473   8.021  11.231   7.549
93192SOL    HW281474   8.030  11.301   7.415
93193SOL     OW81475   8.125   2.601  13.674
93193SOL    HW181476   8.204   2.567  13.631
93193SOL    HW281477   8.104   2.537  13.741
93194SOL     OW81478   7.131   9.792   3.442
93194SOL    HW181479   7.134   9.790   3.538
93194SOL    HW281480   7.188   9.865   3.418
93195SOL     OW81481   8.039   2.020   0.933
93195SOL    HW181482   7.961   2.000   0.880
93195SOL    HW281483   8.011   2.090   0.991
93196SOL     OW81484  12.880   7.857   8.126
93196SOL    HW181485  12.952   7.893   8.073
93196SOL    HW281486  12.884   7.763   8.110
93197SOL     OW81487   3.626   9.434  14.439
93197SOL    HW181488   3.602   9.358  14.386
93197SOL    HW281489   3.712   9.459  14.407
93198SOL     OW81490   7.505  14.660   8.414
93198SOL    HW181491   7.538  14.583   8.367
93198SOL    HW281492   7.516  14.732   8.352
93199SOL     OW81493   2.225  10.996  14.083
93199SOL    HW181494   2.151  11.056  14.070
93199SOL    HW281495   2.214  10.964  14.173
93200SOL     OW81496  11.148   5.766   4.043
93200SOL    HW181497  11.092   5.777   4.119
93200SOL    HW281498  11.106   5.817   3.974
93201SOL     OW81499  13.585   4.751  13.785
93201SOL    HW181500  13.662   4.773  13.838
93201SOL    HW281501  13.599   4.661  13.757
93202SOL     OW81502   8.733   8.261   4.165
93202SOL    HW181503   8.734   8.167   4.183
93202SOL    HW281504   8.784   8.299   4.237
93203SOL     OW81505  14.618   5.590  11.617
93203SOL    HW181506  14.563   5.515  11.641
93203SOL    HW281507  14.557   5.660  11.598
93204SOL     OW81508   1.240   1.308   2.868
93204SOL    HW181509   1.172   1.277   2.808
93204SOL    HW281510   1.310   1.338   2.810
93205SOL     OW81511   2.720   9.034   6.601
93205SOL    HW181512   2.724   9.128   6.619
93205SOL    HW281513   2.678   8.997   6.679
93206SOL     OW81514   8.940   2.315   5.454
93206SOL    HW181515   8.874   2.305   5.384
93206SOL    HW281516   8.924   2.241   5.512
93207SOL     OW81517   0.053   7.770   4.111
93207SOL    HW181518   0.006   7.751   4.192
93207SOL    HW281519   0.026   7.859   4.087
93208SOL     OW81520   3.341   5.611  11.740
93208SOL    HW181521   3.274   5.545  11.756
93208SOL    HW281522   3.293   5.688  11.713
93209SOL     OW81523   8.716  10.739   2.253
93209SOL    HW181524   8.703  10.693   2.171
93209SOL    HW281525   8.664  10.819   2.245
93210SOL     OW81526  10.888   9.242  10.385
93210SOL    HW181527  10.851   9.193  10.311
93210SOL    HW281528  10.850   9.329  10.377
93211SOL     OW81529  12.360  11.675   1.464
93211SOL    HW181530  12.360  11.620   1.385
93211SOL    HW281531  12.382  11.614   1.535
93212SOL     OW81532  11.256  12.652  12.065
93212SOL    HW181533  11.344  12.667  12.097
93212SOL    HW281534  11.244  12.557  12.070
93213SOL     OW81535  11.020  11.667   3.552
93213SOL    HW181536  10.941  11.618   3.530
93213SOL    HW281537  10.991  11.757   3.559
93214SOL     OW81538  13.000  11.220   1.078
93214SOL    HW181539  12.987  11.125   1.072
93214SOL    HW281540  13.092  11.231   1.100
93215SOL     OW81541   4.066   5.987   0.057
93215SOL    HW181542   4.084   6.029   0.141
93215SOL    HW281543   4.151   5.986   0.013
93216SOL     OW81544   2.672  11.776   0.976
93216SOL    HW181545   2.587  11.805   0.943
93216SOL    HW281546   2.729  11.852   0.966
93217SOL     OW81547   2.257  12.904   8.070
93217SOL    HW181548   2.253  12.998   8.054
93217SOL    HW281549   2.177  12.869   8.031
93218SOL     OW81550   9.501   3.863   9.144
93218SOL    HW181551   9.578   3.808   9.129
93218SOL    HW281552   9.494   3.917   9.065
93219SOL     OW81553   7.305   1.899   7.696
93219SOL    HW181554   7.345   1.882   7.781
93219SOL    HW281555   7.226   1.949   7.716
93220SOL     OW81556  11.106   0.811   6.030
93220SOL    HW181557  11.178   0.840   6.085
93220SOL    HW281558  11.123   0.718   6.014
93221SOL     OW81559  10.343   9.662   9.474
93221SOL    HW181560  10.410   9.670   9.406
93221SOL    HW281561  10.282   9.734   9.457
93222SOL     OW81562   8.245   4.206  11.520
93222SOL    HW181563   8.197   4.251  11.450
93222SOL    HW281564   8.182   4.199  11.592
93223SOL     OW81565   5.554  14.835   6.428
93223SOL    HW181566   5.523  14.744   6.424
93223SOL    HW281567   5.518  14.870   6.509
93224SOL     OW81568   0.471  14.268   9.814
93224SOL    HW181569   0.406  14.202   9.839
93224SOL    HW281570   0.420  14.347   9.796
93225SOL     OW81571  14.234   9.261   2.486
93225SOL    HW181572  14.255   9.274   2.579
93225SOL    HW281573  14.139   9.268   2.482
93226SOL     OW81574   2.825  10.967   8.797
93226SOL    HW181575   2.888  11.032   8.828
93226SOL    HW281576   2.758  10.964   8.865
93227SOL     OW81577  13.690   2.749   1.113
93227SOL    HW181578  13.675   2.683   1.045
93227SOL    HW281579  13.656   2.830   1.075
93228SOL     OW81580   5.393  11.976  11.442
93228SOL    HW181581   5.463  11.964  11.378
93228SOL    HW281582   5.402  11.900  11.500
93229SOL     OW81583  12.686   1.206   7.660
93229SOL    HW181584  12.737   1.283   7.636
93229SOL    HW281585  12.738   1.132   7.628
93230SOL     OW81586  13.484  13.956  10.058
93230SOL    HW181587  13.481  14.050  10.072
93230SOL    HW281588  13.457  13.944   9.967
93231SOL     OW81589   5.263   2.071   0.867
93231SOL    HW181590   5.223   2.038   0.948
93231SOL    HW281591   5.340   2.120   0.897
93232SOL     OW81592   1.415  10.003  14.662
93232SOL    HW181593   1.490   9.944  14.652
93232SOL    HW281594   1.380  10.012  14.573
93233SOL     OW81595   5.131   5.624   1.371
93233SOL    HW181596   5.183   5.699   1.401
93233SOL    HW281597   5.081   5.658   1.297
93234SOL     OW81598   7.981   3.690   6.696
93234SOL    HW181599   8.022   3.707   6.611
93234SOL    HW281600   8.053   3.656   6.750
93235SOL     OW81601  12.224  13.645  13.671
93235SOL    HW181602  12.145  13.657  13.618
93235SOL    HW281603  12.294  13.630  13.607
93236SOL     OW81604  13.540   5.588   2.514
93236SOL    HW181605  13.625   5.580   2.471
93236SOL    HW281606  13.553   5.658   2.579
93237SOL     OW81607  13.638   8.136  11.294
93237SOL    HW181608  13.673   8.147  11.383
93237SOL    HW281609  13.649   8.043  11.275
93238SOL     OW81610   3.413   0.036  10.753
93238SOL    HW181611   3.332   0.061  10.708
93238SOL    HW281612   3.447  14.841  10.701
93239SOL     OW81613   5.721   5.901   1.810
93239SOL    HW181614   5.638   5.949   1.819
93239SOL    HW281615   5.705   5.840   1.738
93240SOL     OW81616   1.911   8.934   3.035
93240SOL    HW181617   1.872   8.847   3.038
93240SOL    HW281618   1.962   8.934   2.953
93241SOL     OW81619   9.201   3.648   8.594
93241SOL    HW181620   9.178   3.723   8.650
93241SOL    HW281621   9.170   3.673   8.507
93242SOL     OW81622  14.184  10.021  12.914
93242SOL    HW181623  14.145   9.952  12.860
93242SOL    HW281624  14.178   9.988  13.003
93243SOL     OW81625   1.556   5.890  14.629
93243SOL    HW181626   1.467   5.855  14.622
93243SOL    HW281627   1.543   5.981  14.659
93244SOL     OW81628   6.839  11.310   7.818
93244SOL    HW181629   6.906  11.379   7.815
93244SOL    HW281630   6.822  11.290   7.726
93245SOL     OW81631   2.905   1.356  14.528
93245SOL    HW181632   2.978   1.295  14.534
93245SOL    HW281633   2.828   1.300  14.514
93246SOL     OW81634  14.799   6.827  10.369
93246SOL    HW181635  14.857   6.793  10.301
93246SOL    HW281636  14.711   6.816  10.332
93247SOL     OW81637  11.131  10.898   9.226
93247SOL    HW181638  11.054  10.902   9.284
93247SOL    HW281639  11.197  10.951   9.271
93248SOL     OW81640   6.033  11.136   2.150
93248SOL    HW181641   6.043  11.099   2.062
93248SOL    HW281642   5.977  11.075   2.196
93249SOL     OW81643   5.857   6.307  11.306
93249SOL    HW181644   5.934   6.325  11.360
93249SOL    HW281645   5.890   6.305  11.217
93250SOL     OW81646   5.453   0.602  14.191
93250SOL    HW181647   5.545   0.598  14.166
93250SOL    HW281648   5.405   0.601  14.108
93251SOL     OW81649   1.426  11.582  14.734
93251SOL    HW181650   1.422  11.541  14.820
93251SOL    HW281651   1.513  11.623  14.731
93252SOL     OW81652   6.420   6.758   3.188
93252SOL    HW181653   6.379   6.775   3.104
93252SOL    HW281654   6.394   6.831   3.243
93253SOL     OW81655   5.593   7.107   5.478
93253SOL    HW181656   5.626   7.098   5.389
93253SOL    HW281657   5.669   7.136   5.529
93254SOL     OW81658   2.772  11.312   7.386
93254SOL    HW181659   2.828  11.309   7.464
93254SOL    HW281660   2.779  11.225   7.348
93255SOL     OW81661   5.806   7.501   0.314
93255SOL    HW181662   5.836   7.458   0.394
93255SOL    HW281663   5.711   7.486   0.313
93256SOL     OW81664  12.841  12.186  11.465
93256SOL    HW181665  12.775  12.223  11.524
93256SOL    HW281666  12.923  12.226  11.493
93257SOL     OW81667   7.106   1.088   2.637
93257SOL    HW181668   7.119   1.182   2.634
93257SOL    HW281669   7.154   1.059   2.714
93258SOL     OW81670   8.516   3.292  10.826
93258SOL    HW181671   8.514   3.381  10.792
93258SOL    HW281672   8.424   3.272  10.845
93259SOL     OW81673  12.360  12.411   6.714
93259SOL    HW181674  12.316  12.496   6.710
93259SOL    HW281675  12.445  12.426   6.673
93260SOL     OW81676   2.441  12.346   0.393
93260SOL    HW181677   2.361  12.319   0.349
93260SOL    HW281678   2.510  12.334   0.327
93261SOL     OW81679   9.452   1.373  11.374
93261SOL    HW181680   9.439   1.319  11.452
93261SOL    HW281681   9.389   1.445  11.385
93262SOL     OW81682   0.962  11.687  11.800
93262SOL    HW181683   1.027  11.738  11.753
93262SOL    HW281684   0.891  11.674  11.738
93263SOL     OW81685  10.349  14.341   7.594
93263SOL    HW181686  10.428  14.373   7.637
93263SOL    HW281687  10.308  14.284   7.660
93264SOL     OW81688   0.863  13.325  10.086
93264SOL    HW181689   0.900  13.413  10.084
93264SOL    HW281690   0.910  13.281  10.158
93265SOL     OW81691   2.681   6.014   5.895
93265SOL    HW181692   2.767   5.980   5.920
93265SOL    HW281693   2.665   6.086   5.956
93266SOL     OW81694  13.091   4.644   5.771
93266SOL    HW181695  13.035   4.606   5.703
93266SOL    HW281696  13.144   4.709   5.724
93267SOL     OW81697   1.349   4.878  12.670
93267SOL    HW181698   1.396   4.908  12.592
93267SOL    HW281699   1.295   4.805  12.640
93268SOL     OW81700  10.304   1.544   9.646
93268SOL    HW181701  10.369   1.513   9.709
93268SOL    HW281702  10.319   1.638   9.639
93269SOL     OW81703  12.834  13.189   7.825
93269SOL    HW181704  12.844  13.215   7.733
93269SOL    HW281705  12.740  13.175   7.836
93270SOL     OW81706   9.209   5.671  10.720
93270SOL    HW181707   9.137   5.711  10.671
93270SOL    HW281708   9.241   5.741  10.777
93271SOL     OW81709   4.835   4.829   3.042
93271SOL    HW181710   4.920   4.808   3.080
93271SOL    HW281711   4.809   4.749   2.996
93272SOL     OW81712   6.196   5.577  13.769
93272SOL    HW181713   6.185   5.672  13.766
93272SOL    HW281714   6.290   5.563  13.776
93273SOL     OW81715  14.727  11.596   3.781
93273SOL    HW181716  14.662  11.644   3.832
93273SOL    HW281717  14.786  11.663   3.747
93274SOL     OW81718  12.818   3.912   0.446
93274SOL    HW181719  12.832   3.876   0.358
93274SOL    HW281720  12.738   3.871   0.477
93275SOL     OW81721   6.861   3.411   4.786
93275SOL    HW181722   6.895   3.323   4.807
93275SOL    HW281723   6.826   3.443   4.869
93276SOL     OW81724   5.022  13.511   6.426
93276SOL    HW181725   5.046  13.527   6.335
93276SOL    HW281726   5.011  13.598   6.464
93277SOL     OW81727   0.996  10.092   0.766
93277SOL    HW181728   1.019  10.184   0.777
93277SOL    HW281729   1.037  10.048   0.841
93278SOL     OW81730   0.322  12.835   9.022
93278SOL    HW181731   0.368  12.813   8.941
93278SOL    HW281732   0.350  12.768   9.084
93279SOL     OW81733  12.664  11.597   3.918
93279SOL    HW181734  12.612  11.627   3.843
93279SOL    HW281735  12.712  11.675   3.946
93280SOL     OW81736  14.336   2.244   6.898
93280SOL    HW181737  14.256   2.212   6.938
93280SOL    HW281738  14.307   2.311   6.836
93281SOL     OW81739   8.494   6.389   2.225
93281SOL    HW181740   8.491   6.483   2.239
93281SOL    HW281741   8.523   6.379   2.134
93282SOL     OW81742  12.688  13.361   9.696
93282SOL    HW181743  12.680  13.393   9.786
93282SOL    HW281744  12.705  13.440   9.644
93283SOL     OW81745   2.908   1.877  11.364
93283SOL    HW181746   2.984   1.830  11.330
93283SOL    HW281747   2.856   1.898  11.287
93284SOL     OW81748   6.044  13.937   8.313
93284SOL    HW181749   6.077  13.899   8.394
93284SOL    HW281750   5.993  13.867   8.272
93285SOL     OW81751   3.362   6.180   2.166
93285SOL    HW181752   3.415   6.225   2.231
93285SOL    HW281753   3.400   6.204   2.082
93286SOL     OW81754   6.098   9.318  11.317
93286SOL    HW181755   6.137   9.232  11.303
93286SOL    HW281756   6.068   9.345  11.230
93287SOL     OW81757   0.393   2.140   2.360
93287SOL    HW181758   0.452   2.105   2.427
93287SOL    HW281759   0.441   2.128   2.278
93288SOL     OW81760   0.677   9.866   4.556
93288SOL    HW181761   0.610   9.801   4.539
93288SOL    HW281762   0.708   9.846   4.645
93289SOL     OW81763   9.151  12.024   9.388
93289SOL    HW181764   9.078  12.029   9.326
93289SOL    HW281765   9.229  12.019   9.334
93290SOL     OW81766  14.775   0.587   0.767
93290SOL    HW181767  14.717   0.601   0.693
93290SOL    HW281768  14.728   0.624   0.842
93291SOL     OW81769   9.947   0.168   3.284
93291SOL    HW181770   9.975   0.244   3.335
93291SOL    HW281771  10.016   0.103   3.298
93292SOL     OW81772  12.034  10.991   5.024
93292SOL    HW181773  12.019  10.996   4.930
93292SOL    HW281774  11.950  11.015   5.063
93293SOL     OW81775   6.052  10.185  10.057
93293SOL    HW181776   6.043  10.090  10.057
93293SOL    HW281777   6.084  10.206  10.145
93294SOL     OW81778   0.830   8.456   2.564
93294SOL    HW181779   0.789   8.370   2.563
93294SOL    HW281780   0.923   8.439   2.578
93295SOL     OW81781  13.807  13.871   6.711
93295SOL    HW181782  13.731  13.903   6.661
93295SOL    HW281783  13.869  13.842   6.643
93296SOL     OW81784   4.896   1.784  11.647
93296SOL    HW181785   4.903   1.876  11.622
93296SOL    HW281786   4.911   1.784  11.742
93297SOL     OW81787  12.111   6.551   9.383
93297SOL    HW181788  12.154   6.627   9.344
93297SOL    HW281789  12.066   6.586   9.460
93298SOL     OW81790  14.633   2.503   1.524
93298SOL    HW181791  14.573   2.433   1.495
93298SOL    HW281792  14.671   2.536   1.442
93299SOL     OW81793   4.927   5.767   3.257
93299SOL    HW181794   4.965   5.717   3.184
93299SOL    HW281795   4.989   5.756   3.329
93300SOL     OW81796  12.105   2.529  13.363
93300SOL    HW181797  12.015   2.504  13.341
93300SOL    HW281798  12.095   2.603  13.423
93301SOL     OW81799  13.262  10.409  10.513
93301SOL    HW181800  13.338  10.454  10.476
93301SOL    HW281801  13.296  10.327  10.547
93302SOL     OW81802   6.190   9.780   7.133
93302SOL    HW181803   6.210   9.770   7.040
93302SOL    HW281804   6.155   9.868   7.141
93303SOL     OW81805   5.151  10.027   7.336
93303SOL    HW181806   5.084   9.967   7.367
93303SOL    HW281807   5.234   9.983   7.356
93304SOL     OW81808  12.173   5.943   8.898
93304SOL    HW181809  12.090   5.967   8.857
93304SOL    HW281810  12.170   5.983   8.984
93305SOL     OW81811   8.774  14.759   5.464
93305SOL    HW181812   8.685  14.742   5.492
93305SOL    HW281813   8.769  14.841   5.415
93306SOL     OW81814   8.795  12.421   0.185
93306SOL    HW181815   8.817  12.331   0.159
93306SOL    HW281816   8.700  12.424   0.184
93307SOL     OW81817  12.845   3.637  11.790
93307SOL    HW181818  12.788   3.637  11.713
93307SOL    HW281819  12.901   3.560  11.779
93308SOL     OW81820   6.701   7.809   1.108
93308SOL    HW181821   6.748   7.892   1.104
93308SOL    HW281822   6.641   7.819   1.182
93309SOL     OW81823  14.102   7.368   9.657
93309SOL    HW181824  14.013   7.391   9.684
93309SOL    HW281825  14.093   7.340   9.566
93310SOL     OW81826  12.013  14.077   8.241
93310SOL    HW181827  12.064  14.005   8.204
93310SOL    HW281828  11.951  14.100   8.173
93311SOL     OW81829  13.212   7.251  10.442
93311SOL    HW181830  13.196   7.294  10.358
93311SOL    HW281831  13.285   7.300  10.480
93312SOL     OW81832   4.557   9.183   1.023
93312SOL    HW181833   4.542   9.138   1.106
93312SOL    HW281834   4.613   9.123   0.973
93313SOL     OW81835   4.146   0.503  12.180
93313SOL    HW181836   4.089   0.517  12.256
93313SOL    HW281837   4.233   0.491  12.217
93314SOL     OW81838   2.757   7.699   5.213
93314SOL    HW181839   2.705   7.619   5.204
93314SOL    HW281840   2.829   7.687   5.151
93315SOL     OW81841   2.511   3.103   8.867
93315SOL    HW181842   2.570   3.032   8.895
93315SOL    HW281843   2.563   3.182   8.876
93316SOL     OW81844   8.206   8.680  11.791
93316SOL    HW181845   8.196   8.642  11.879
93316SOL    HW281846   8.179   8.609  11.732
93317SOL     OW81847   8.328   1.363  14.389
93317SOL    HW181848   8.314   1.327  14.301
93317SOL    HW281849   8.415   1.402  14.385
93318SOL     OW81850   7.244  14.014  13.808
93318SOL    HW181851   7.217  14.080  13.744
93318SOL    HW281852   7.339  14.025  13.815
93319SOL     OW81853  14.603   3.628  14.393
93319SOL    HW181854  14.659   3.705  14.383
93319SOL    HW281855  14.535   3.655  14.455
93320SOL     OW81856   6.333   4.313   5.738
93320SOL    HW181857   6.308   4.364   5.661
93320SOL    HW281858   6.264   4.331   5.802
93321SOL     OW81859   6.036   6.569   1.980
93321SOL    HW181860   6.047   6.480   1.947
93321SOL    HW281861   6.104   6.579   2.047
93322SOL     OW81862   9.023   7.973  12.176
93322SOL    HW181863   8.968   7.929  12.112
93322SOL    HW281864   8.994   7.938  12.260
93323SOL     OW81865   6.161  14.711   7.144
93323SOL    HW181866   6.229  14.706   7.211
93323SOL    HW281867   6.156  14.804   7.121
93324SOL     OW81868   8.477   3.715   5.450
93324SOL    HW181869   8.439   3.722   5.362
93324SOL    HW281870   8.431   3.781   5.501
93325SOL     OW81871  14.412   8.280  12.039
93325SOL    HW181872  14.467   8.243  12.107
93325SOL    HW281873  14.338   8.219  12.032
93326SOL     OW81874   7.690   1.877  11.367
93326SOL    HW181875   7.682   1.821  11.444
93326SOL    HW281876   7.604   1.873  11.325
93327SOL     OW81877  10.596  11.991   1.622
93327SOL    HW181878  10.627  12.072   1.581
93327SOL    HW281879  10.639  11.921   1.573
93328SOL     OW81880  14.176  10.240   7.536
93328SOL    HW181881  14.197  10.290   7.615
93328SOL    HW281882  14.250  10.180   7.525
93329SOL     OW81883  11.765  14.364   7.559
93329SOL    HW181884  11.708  14.415   7.503
93329SOL    HW281885  11.852  14.371   7.519
93330SOL     OW81886   1.806  12.006   4.385
93330SOL    HW181887   1.860  12.028   4.309
93330SOL    HW281888   1.820  12.078   4.446
93331SOL     OW81889  10.506   8.277   1.391
93331SOL    HW181890  10.551   8.330   1.457
93331SOL    HW281891  10.526   8.186   1.416
93332SOL     OW81892   1.344   1.693   2.183
93332SOL    HW181893   1.298   1.655   2.258
93332SOL    HW281894   1.275   1.732   2.130
93333SOL     OW81895   3.699   0.426   1.650
93333SOL    HW181896   3.763   0.355   1.651
93333SOL    HW281897   3.705   0.464   1.738
93334SOL     OW81898  13.334   1.689   0.544
93334SOL    HW181899  13.378   1.770   0.569
93334SOL    HW281900  13.358   1.677   0.452
93335SOL     OW81901  12.668   3.862   7.394
93335SOL    HW181902  12.686   3.798   7.325
93335SOL    HW281903  12.711   3.827   7.472
93336SOL     OW81904  14.869  14.577   4.604
93336SOL    HW181905   0.031  14.501   4.646
93336SOL    HW281906   0.055  14.606   4.539
93337SOL     OW81907   1.278   1.847   0.856
93337SOL    HW181908   1.327   1.873   0.934
93337SOL    HW281909   1.190   1.827   0.887
93338SOL     OW81910  12.220   4.005  13.139
93338SOL    HW181911  12.243   4.012  13.231
93338SOL    HW281912  12.142   3.948  13.138
93339SOL     OW81913   2.755   0.719  11.240
93339SOL    HW181914   2.792   0.755  11.160
93339SOL    HW281915   2.676   0.672  11.212
93340SOL     OW81916   5.489   2.499  14.187
93340SOL    HW181917   5.441   2.439  14.244
93340SOL    HW281918   5.525   2.565  14.246
93341SOL     OW81919   6.529   4.345   5.084
93341SOL    HW181920   6.537   4.258   5.123
93341SOL    HW281921   6.617   4.365   5.052
93342SOL     OW81922   7.119   3.825   8.965
93342SOL    HW181923   7.198   3.879   8.965
93342SOL    HW281924   7.145   3.745   9.011
93343SOL     OW81925   9.329   7.982   6.378
93343SOL    HW181926   9.272   7.915   6.339
93343SOL    HW281927   9.310   8.061   6.327
93344SOL     OW81928  12.949  13.982   0.267
93344SOL    HW181929  12.910  13.923   0.332
93344SOL    HW281930  13.043  13.964   0.271
93345SOL     OW81931  10.787   7.377  10.303
93345SOL    HW181932  10.831   7.363  10.386
93345SOL    HW281933  10.732   7.454  10.317
93346SOL     OW81934   8.167   7.739   0.235
93346SOL    HW181935   8.230   7.695   0.178
93346SOL    HW281936   8.151   7.823   0.192
93347SOL     OW81937   4.538  13.627   5.344
93347SOL    HW181938   4.505  13.657   5.260
93347SOL    HW281939   4.619  13.676   5.358
93348SOL     OW81940  12.480   4.154   3.490
93348SOL    HW181941  12.493   4.065   3.456
93348SOL    HW281942  12.555   4.168   3.547
93349SOL     OW81943  10.150  13.390   6.294
93349SOL    HW181944  10.234  13.427   6.322
93349SOL    HW281945  10.171  13.331   6.222
93350SOL     OW81946   9.006   4.555   2.328
93350SOL    HW181947   8.966   4.470   2.312
93350SOL    HW281948   9.100   4.537   2.324
93351SOL     OW81949   7.404   9.903   1.727
93351SOL    HW181950   7.333   9.946   1.775
93351SOL    HW281951   7.390   9.810   1.742
93352SOL     OW81952   6.334   5.337   8.244
93352SOL    HW181953   6.295   5.420   8.271
93352SOL    HW281954   6.428   5.350   8.251
93353SOL     OW81955  13.462   5.602   8.356
93353SOL    HW181956  13.482   5.675   8.299
93353SOL    HW281957  13.469   5.525   8.300
93354SOL     OW81958  14.843   0.709  14.082
93354SOL    HW181959  14.830   0.727  14.176
93354SOL    HW281960  14.824   0.616  14.073
93355SOL     OW81961  14.158   7.659   9.554
93355SOL    HW181962  14.155   7.565   9.572
93355SOL    HW281963  14.139   7.700   9.638
93356SOL     OW81964   9.547   6.272   1.406
93356SOL    HW181965   9.568   6.318   1.324
93356SOL    HW281966   9.616   6.207   1.415
93357SOL     OW81967  14.206  13.679  12.423
93357SOL    HW181968  14.279  13.635  12.380
93357SOL    HW281969  14.247  13.736  12.488
93358SOL     OW81970   7.464  13.705   2.369
93358SOL    HW181971   7.527  13.745   2.429
93358SOL    HW281972   7.436  13.777   2.313
93359SOL     OW81973   6.842  14.030   8.569
93359SOL    HW181974   6.789  14.106   8.593
93359SOL    HW281975   6.932  14.056   8.589
93360SOL     OW81976   1.470   7.270   8.800
93360SOL    HW181977   1.436   7.186   8.771
93360SOL    HW281978   1.549   7.247   8.849
93361SOL     OW81979   8.207  11.871  11.932
93361SOL    HW181980   8.207  11.830  11.846
93361SOL    HW281981   8.163  11.955  11.919
93362SOL     OW81982   1.345   6.093   5.225
93362SOL    HW181983   1.318   6.008   5.192
93362SOL    HW281984   1.367   6.078   5.317
93363SOL     OW81985   0.459   3.693   9.449
93363SOL    HW181986   0.551   3.712   9.432
93363SOL    HW281987   0.446   3.605   9.414
93364SOL     OW81988   3.498  12.601  12.667
93364SOL    HW181989   3.537  12.679  12.627
93364SOL    HW281990   3.416  12.588  12.619
93365SOL     OW81991  12.747   3.974   2.028
93365SOL    HW181992  12.748   4.069   2.040
93365SOL    HW281993  12.839   3.949   2.020
93366SOL     OW81994   8.408   3.528   3.020
93366SOL    HW181995   8.500   3.523   3.043
93366SOL    HW281996   8.392   3.449   2.968
93367SOL     OW81997  13.141  13.935   1.545
93367SOL    HW181998  13.112  13.864   1.602
93367SOL    HW281999  13.236  13.937   1.556
93368SOL     OW82000   3.114   4.614   9.174
93368SOL    HW182001   3.125   4.542   9.236
93368SOL    HW282002   3.053   4.579   9.108
93369SOL     OW82003  13.648   9.309   7.737
93369SOL    HW182004  13.671   9.278   7.650
93369SOL    HW282005  13.731   9.342   7.773
93370SOL     OW82006   3.285   5.363   4.074
93370SOL    HW182007   3.368   5.317   4.062
93370SOL    HW282008   3.298   5.415   4.154
93371SOL     OW82009  13.937  14.002  13.033
93371SOL    HW182010  13.947  14.015  13.127
93371SOL    HW282011  13.842  13.995  13.019
93372SOL     OW82012   5.441   0.916   8.751
93372SOL    HW182013   5.405   0.835   8.716
93372SOL    HW282014   5.528   0.891   8.784
93373SOL     OW82015  12.931   4.617  14.641
93373SOL    HW182016  12.914   4.591  14.731
93373SOL    HW282017  12.862   4.574  14.590
93374SOL     OW82018   6.684   2.909  12.736
93374SOL    HW182019   6.657   2.988  12.783
93374SOL    HW282020   6.605   2.880  12.691
93375SOL     OW82021  11.969  13.091   1.929
93375SOL    HW182022  11.887  13.072   1.884
93375SOL    HW282023  11.947  13.086   2.022
93376SOL     OW82024  11.273   8.247   2.024
93376SOL    HW182025  11.356   8.255   1.978
93376SOL    HW282026  11.285   8.171   2.081
93377SOL     OW82027  14.113  13.344   1.958
93377SOL    HW182028  14.018  13.335   1.946
93377SOL    HW282029  14.135  13.426   1.914
93378SOL     OW82030  11.130   0.383  13.092
93378SOL    HW182031  11.087   0.303  13.121
93378SOL    HW282032  11.059   0.441  13.066
93379SOL     OW82033  10.419  10.888  11.919
93379SOL    HW182034  10.384  10.800  11.911
93379SOL    HW282035  10.510  10.881  11.891
93380SOL     OW82036   6.454  13.400   3.455
93380SOL    HW182037   6.472  13.429   3.365
93380SOL    HW282038   6.376  13.448   3.480
93381SOL     OW82039  11.260  10.026  13.667
93381SOL    HW182040  11.321   9.955  13.645
93381SOL    HW282041  11.182  10.008  13.615
93382SOL     OW82042   0.818  11.880   4.707
93382SOL    HW182043   0.816  11.847   4.617
93382SOL    HW282044   0.777  11.966   4.702
93383SOL     OW82045   0.379   6.044   6.079
93383SOL    HW182046   0.356   6.137   6.078
93383SOL    HW282047   0.463   6.040   6.125
93384SOL     OW82048  14.877  14.858  14.513
93384SOL    HW182049   0.076  14.854  14.570
93384SOL    HW282050  14.861   0.075  14.501
93385SOL     OW82051   8.146   2.927   6.530
93385SOL    HW182052   8.136   2.926   6.625
93385SOL    HW282053   8.106   3.009   6.502
93386SOL     OW82054   7.992  10.062   4.787
93386SOL    HW182055   7.898  10.077   4.800
93386SOL    HW282056   8.003   9.968   4.800
93387SOL     OW82057   6.569  11.123   4.131
93387SOL    HW182058   6.646  11.071   4.154
93387SOL    HW282059   6.496  11.062   4.135
93388SOL     OW82060  11.785   2.793  11.781
93388SOL    HW182061  11.698   2.758  11.768
93388SOL    HW282062  11.776   2.854  11.854
93389SOL     OW82063   7.647  14.471  12.474
93389SOL    HW182064   7.634  14.548  12.531
93389SOL    HW282065   7.613  14.499  12.389
93390SOL     OW82066  10.837   1.590   2.361
93390SOL    HW182067  10.905   1.549   2.308
93390SOL    HW282068  10.884   1.645   2.424
93391SOL     OW82069   2.175   5.121  12.944
93391SOL    HW182070   2.225   5.040  12.956
93391SOL    HW282071   2.212   5.160  12.864
93392SOL     OW82072   3.146  13.782   9.645
93392SOL    HW182073   3.096  13.859   9.618
93392SOL    HW282074   3.233  13.797   9.608
93393SOL     OW82075  12.791   7.993   3.112
93393SOL    HW182076  12.761   7.913   3.069
93393SOL    HW282077  12.771   8.063   3.050
93394SOL     OW82078   0.498   9.650   2.455
93394SOL    HW182079   0.533   9.731   2.420
93394SOL    HW282080   0.403   9.657   2.441
93395SOL     OW82081  14.005   3.533   1.724
93395SOL    HW182082  13.919   3.525   1.765
93395SOL    HW282083  14.007   3.463   1.658
93396SOL     OW82084   1.898   1.812   6.579
93396SOL    HW182085   1.880   1.827   6.486
93396SOL    HW282086   1.972   1.869   6.599
93397SOL     OW82087   0.711   0.025   9.437
93397SOL    HW182088   0.741   0.041   9.527
93397SOL    HW282089   0.620  14.874   9.447
93398SOL     OW82090   5.533   9.318   4.979
93398SOL    HW182091   5.629   9.324   4.980
93398SOL    HW282092   5.507   9.345   5.068
93399SOL     OW82093  12.877   6.940  14.721
93399SOL    HW182094  12.863   6.998  14.645
93399SOL    HW282095  12.906   7.000  14.791
93400SOL     OW82096  12.074  14.314   2.813
93400SOL    HW182097  12.014  14.353   2.749
93400SOL    HW282098  12.078  14.222   2.790
93401SOL     OW82099  14.156  12.322  12.636
93401SOL    HW182100  14.237  12.372  12.621
93401SOL    HW282101  14.100  12.345  12.562
93402SOL     OW82102   1.870   7.536  12.754
93402SOL    HW182103   1.845   7.582  12.674
93402SOL    HW282104   1.957   7.569  12.775
93403SOL     OW82105   7.396   5.615   9.994
93403SOL    HW182106   7.324   5.676  10.009
93403SOL    HW282107   7.458   5.632  10.065
93404SOL     OW82108   6.702   0.302  14.378
93404SOL    HW182109   6.658   0.317  14.295
93404SOL    HW282110   6.723   0.209  14.378
93405SOL     OW82111   5.821  11.339   0.265
93405SOL    HW182112   5.886  11.402   0.231
93405SOL    HW282113   5.873  11.263   0.290
93406SOL     OW82114   5.869  14.495   4.971
93406SOL    HW182115   5.820  14.574   4.946
93406SOL    HW282116   5.823  14.423   4.929
93407SOL     OW82117   0.315   8.114   4.490
93407SOL    HW182118   0.404   8.080   4.481
93407SOL    HW282119   0.326   8.209   4.490
93408SOL     OW82120   4.735  13.386   8.450
93408SOL    HW182121   4.753  13.303   8.406
93408SOL    HW282122   4.751  13.452   8.382
93409SOL     OW82123  10.720   6.539   8.506
93409SOL    HW182124  10.740   6.469   8.445
93409SOL    HW282125  10.717   6.618   8.452
93410SOL     OW82126   7.358   1.576  11.876
93410SOL    HW182127   7.435   1.597  11.929
93410SOL    HW282128   7.292   1.549  11.940
93411SOL     OW82129  10.700   9.801   4.281
93411SOL    HW182130  10.608   9.816   4.259
93411SOL    HW282131  10.720   9.714   4.248
93412SOL     OW82132   0.382   6.875   9.333
93412SOL    HW182133   0.438   6.871   9.256
93412SOL    HW282134   0.400   6.794   9.380
93413SOL     OW82135  12.304   0.303   4.643
93413SOL    HW182136  12.213   0.277   4.653
93413SOL    HW282137  12.328   0.274   4.554
93414SOL     OW82138  12.447   5.120  13.985
93414SOL    HW182139  12.540   5.097  13.989
93414SOL    HW282140  12.410   5.060  13.921
93415SOL     OW82141   4.509   3.669  11.109
93415SOL    HW182142   4.554   3.584  11.113
93415SOL    HW282143   4.576   3.729  11.077
93416SOL     OW82144   1.022   3.797  11.197
93416SOL    HW182145   1.047   3.710  11.165
93416SOL    HW282146   1.046   3.857  11.126
93417SOL     OW82147   4.201   0.410   8.151
93417SOL    HW182148   4.281   0.377   8.109
93417SOL    HW282149   4.231   0.446   8.234
93418SOL     OW82150   2.888   5.893   4.085
93418SOL    HW182151   2.923   5.818   4.132
93418SOL    HW282152   2.965   5.942   4.056
93419SOL     OW82153  12.415   9.611  11.128
93419SOL    HW182154  12.509   9.595  11.119
93419SOL    HW282155  12.376   9.524  11.133
93420SOL     OW82156   5.756   2.852   2.794
93420SOL    HW182157   5.773   2.943   2.820
93420SOL    HW282158   5.765   2.802   2.875
93421SOL     OW82159   9.989   8.061   0.830
93421SOL    HW182160   9.992   8.102   0.917
93421SOL    HW282161   9.896   8.061   0.807
93422SOL     OW82162  10.167   9.618   7.573
93422SOL    HW182163  10.263   9.619   7.573
93422SOL    HW282164  10.145   9.546   7.632
93423SOL     OW82165   0.032  12.843   5.408
93423SOL    HW182166   0.046  12.800   5.324
93423SOL    HW282167   0.054  12.777   5.473
93424SOL     OW82168   6.029  11.345  11.859
93424SOL    HW182169   6.020  11.394  11.941
93424SOL    HW282170   6.105  11.384  11.816
93425SOL     OW82171  10.152   5.929  11.935
93425SOL    HW182172  10.214   5.954  11.867
93425SOL    HW282173  10.203   5.876  11.996
93426SOL     OW82174  12.154  11.708  10.598
93426SOL    HW182175  12.249  11.710  10.587
93426SOL    HW282176  12.141  11.656  10.677
93427SOL     OW82177  10.973   6.335   2.154
93427SOL    HW182178  10.911   6.372   2.090
93427SOL    HW282179  10.934   6.252   2.181
93428SOL     OW82180  12.475   3.325  10.487
93428SOL    HW182181  12.403   3.265  10.470
93428SOL    HW282182  12.490   3.318  10.582
93429SOL     OW82183  11.701  10.823   2.247
93429SOL    HW182184  11.652  10.762   2.191
93429SOL    HW282185  11.790  10.787   2.249
93430SOL     OW82186  14.466   4.472   7.576
93430SOL    HW182187  14.475   4.563   7.605
93430SOL    HW282188  14.409   4.431   7.641
93431SOL     OW82189  13.636  12.042   9.917
93431SOL    HW182190  13.563  12.059   9.976
93431SOL    HW282191  13.597  12.047   9.829
93432SOL     OW82192  10.169  13.801  12.474
93432SOL    HW182193  10.185  13.895  12.481
93432SOL    HW282194  10.104  13.792  12.405
93433SOL     OW82195  11.308  12.632   8.678
93433SOL    HW182196  11.345  12.718   8.700
93433SOL    HW282197  11.367  12.570   8.720
93434SOL     OW82198   1.861   7.795   1.592
93434SOL    HW182199   1.877   7.764   1.503
93434SOL    HW282200   1.779   7.752   1.618
93435SOL     OW82201   5.915  12.269  14.066
93435SOL    HW182202   5.890  12.280  13.974
93435SOL    HW282203   5.863  12.196  14.097
93436SOL     OW82204  12.549  11.202   5.984
93436SOL    HW182205  12.562  11.110   6.007
93436SOL    HW282206  12.482  11.200   5.916
93437SOL     OW82207   9.602  13.654   2.890
93437SOL    HW182208   9.588  13.559   2.884
93437SOL    HW282209   9.582  13.687   2.802
93438SOL     OW82210   0.055  10.778   3.625
93438SOL    HW182211  14.855  10.771   3.681
93438SOL    HW282212   0.024  10.819   3.545
93439SOL     OW82213   9.368   0.705  11.140
93439SOL    HW182214   9.303   0.639  11.167
93439SOL    HW282215   9.340   0.731  11.052
93440SOL     OW82216   7.260   0.335   4.178
93440SOL    HW182217   7.180   0.298   4.216
93440SOL    HW282218   7.324   0.264   4.183
93441SOL     OW82219   5.359  11.896   8.437
93441SOL    HW182220   5.264  11.898   8.449
93441SOL    HW282221   5.372  11.853   8.353
93442SOL     OW82222   5.200  10.896   6.582
93442SOL    HW182223   5.271  10.838   6.610
93442SOL    HW282224   5.127  10.873   6.640
93443SOL     OW82225   7.544   8.559  13.840
93443SOL    HW182226   7.462   8.601  13.815
93443SOL    HW282227   7.523   8.465  13.843
93444SOL     OW82228   2.677  10.366  13.799
93444SOL    HW182229   2.590  10.388  13.834
93444SOL    HW282230   2.715  10.450  13.776
93445SOL     OW82231   8.544  10.446  13.256
93445SOL    HW182232   8.635  10.429  13.279
93445SOL    HW282233   8.537  10.418  13.165
93446SOL     OW82234   8.660  14.845  12.089
93446SOL    HW182235   8.751  14.863  12.066
93446SOL    HW282236   8.633   0.044  12.141
93447SOL     OW82237  12.665   4.238   7.216
93447SOL    HW182238  12.587   4.265   7.169
93447SOL    HW282239  12.650   4.265   7.306
93448SOL     OW82240   6.425   2.969   8.548
93448SOL    HW182241   6.369   3.042   8.574
93448SOL    HW282242   6.365   2.900   8.522
93449SOL     OW82243  11.750  13.974   2.105
93449SOL    HW182244  11.838  13.955   2.136
93449SOL    HW282245  11.747  14.070   2.101
93450SOL     OW82246   4.610   8.944   3.316
93450SOL    HW182247   4.570   8.858   3.333
93450SOL    HW282248   4.701   8.924   3.293
93451SOL     OW82249   0.215   7.327  12.267
93451SOL    HW182250   0.200   7.359  12.178
93451SOL    HW282251   0.200   7.233  12.261
93452SOL     OW82252   4.070  10.188  14.449
93452SOL    HW182253   4.010  10.224  14.515
93452SOL    HW282254   4.015  10.173  14.372
93453SOL     OW82255   2.252   7.205  14.442
93453SOL    HW182256   2.285   7.260  14.514
93453SOL    HW282257   2.309   7.128  14.442
93454SOL     OW82258  10.555  10.400   5.944
93454SOL    HW182259  10.504  10.480   5.938
93454SOL    HW282260  10.575  10.391   6.037
93455SOL     OW82261   2.705   1.212   1.380
93455SOL    HW182262   2.752   1.148   1.326
93455SOL    HW282263   2.775   1.266   1.420
93456SOL     OW82264  11.312  13.995   2.808
93456SOL    HW182265  11.317  13.930   2.738
93456SOL    HW282266  11.225  14.033   2.800
93457SOL     OW82267   7.170   0.752   1.418
93457SOL    HW182268   7.195   0.836   1.380
93457SOL    HW282269   7.086   0.731   1.379
93458SOL     OW82270   1.289   8.994   4.072
93458SOL    HW182271   1.362   8.933   4.073
93458SOL    HW282272   1.211   8.938   4.080
93459SOL     OW82273   3.319   4.889   6.926
93459SOL    HW182274   3.365   4.944   6.989
93459SOL    HW282275   3.387   4.857   6.867
93460SOL     OW82276  12.642   2.100  13.816
93460SOL    HW182277  12.725   2.080  13.858
93460SOL    HW282278  12.592   2.147  13.883
93461SOL     OW82279  12.847   7.535  13.700
93461SOL    HW182280  12.928   7.494  13.730
93461SOL    HW282281  12.785   7.521  13.771
93462SOL     OW82282  10.832   6.085   0.484
93462SOL    HW182283  10.802   5.994   0.485
93462SOL    HW282284  10.772   6.131   0.426
93463SOL     OW82285  10.007   7.706   3.738
93463SOL    HW182286  10.075   7.771   3.754
93463SOL    HW282287  10.048   7.642   3.680
93464SOL     OW82288   0.719   3.844  12.998
93464SOL    HW182289   0.781   3.899  12.949
93464SOL    HW282290   0.745   3.755  12.977
93465SOL     OW82291   9.615   3.026   2.029
93465SOL    HW182292   9.639   3.119   2.031
93465SOL    HW282293   9.666   2.990   1.956
93466SOL     OW82294   9.750   1.426   2.736
93466SOL    HW182295   9.777   1.388   2.819
93466SOL    HW282296   9.655   1.415   2.735
93467SOL     OW82297   3.381  10.083   1.541
93467SOL    HW182298   3.328  10.157   1.514
93467SOL    HW282299   3.463  10.122   1.573
93468SOL     OW82300   7.047   9.410   7.921
93468SOL    HW182301   7.050   9.337   7.860
93468SOL    HW282302   7.004   9.375   7.999
93469SOL     OW82303  13.445  11.718   0.103
93469SOL    HW182304  13.499  11.642   0.124
93469SOL    HW282305  13.440  11.719   0.008
93470SOL     OW82306   5.098   5.766   1.808
93470SOL    HW182307   5.184   5.807   1.798
93470SOL    HW282308   5.092   5.705   1.734
93471SOL     OW82309  13.511   1.695   5.454
93471SOL    HW182310  13.467   1.634   5.394
93471SOL    HW282311  13.491   1.661   5.542
93472SOL     OW82312   3.906   0.538   6.221
93472SOL    HW182313   3.959   0.479   6.168
93472SOL    HW282314   3.864   0.595   6.157
93473SOL     OW82315   3.186   1.053  10.559
93473SOL    HW182316   3.266   1.079  10.605
93473SOL    HW282317   3.116   1.096  10.607
93474SOL     OW82318   2.848   8.630   9.286
93474SOL    HW182319   2.937   8.657   9.310
93474SOL    HW282320   2.793   8.703   9.316
93475SOL     OW82321  10.902   3.478   3.801
93475SOL    HW182322  10.848   3.427   3.741
93475SOL    HW282323  10.940   3.412   3.860
93476SOL     OW82324   4.481   4.151   6.680
93476SOL    HW182325   4.474   4.191   6.593
93476SOL    HW282326   4.568   4.176   6.711
93477SOL     OW82327   5.518   2.494   3.673
93477SOL    HW182328   5.613   2.492   3.664
93477SOL    HW282329   5.486   2.502   3.583
93478SOL     OW82330   6.282   9.757  11.752
93478SOL    HW182331   6.238   9.802  11.680
93478SOL    HW282332   6.322   9.827  11.804
93479SOL     OW82333   2.661   3.453  14.102
93479SOL    HW182334   2.613   3.376  14.071
93479SOL    HW282335   2.744   3.451  14.053
93480SOL     OW82336   4.500  10.418   4.732
93480SOL    HW182337   4.519  10.464   4.813
93480SOL    HW282338   4.546  10.467   4.664
93481SOL     OW82339   8.778   1.548   2.740
93481SOL    HW182340   8.747   1.595   2.663
93481SOL    HW282341   8.727   1.467   2.740
93482SOL     OW82342  10.520   3.459  14.291
93482SOL    HW182343  10.430   3.481  14.264
93482SOL    HW282344  10.518   3.365  14.307
93483SOL     OW82345   4.441  13.442   9.493
93483SOL    HW182346   4.351  13.447   9.459
93483SOL    HW282347   4.476  13.360   9.458
93484SOL     OW82348   4.370  10.286   6.189
93484SOL    HW182349   4.340  10.371   6.155
93484SOL    HW282350   4.324  10.277   6.273
93485SOL     OW82351   9.204  14.170   7.426
93485SOL    HW182352   9.149  14.124   7.362
93485SOL    HW282353   9.184  14.128   7.509
93486SOL     OW82354   6.526   1.665   2.142
93486SOL    HW182355   6.505   1.694   2.231
93486SOL    HW282356   6.505   1.740   2.087
93487SOL     OW82357   7.426   9.535   5.989
93487SOL    HW182358   7.503   9.587   6.012
93487SOL    HW282359   7.413   9.477   6.064
93488SOL     OW82360  14.825   1.033   5.953
93488SOL    HW182361  14.760   0.989   5.899
93488SOL    HW282362  14.774   1.091   6.009
93489SOL     OW82363  10.807  10.649  10.511
93489SOL    HW182364  10.846  10.724  10.467
93489SOL    HW282365  10.882  10.591  10.530
93490SOL     OW82366   3.205   9.647  14.369
93490SOL    HW182367   3.169   9.651  14.280
93490SOL    HW282368   3.200   9.737  14.401
93491SOL     OW82369   6.906   0.061   5.102
93491SOL    HW182370   6.862  14.853   5.102
93491SOL    HW282371   6.930   0.075   5.194
93492SOL     OW82372   1.804   9.751   7.318
93492SOL    HW182373   1.898   9.761   7.331
93492SOL    HW282374   1.796   9.702   7.236
93493SOL     OW82375  12.785   5.235  11.678
93493SOL    HW182376  12.816   5.306  11.622
93493SOL    HW282377  12.732   5.180  11.621
93494SOL     OW82378  14.805   6.440   1.922
93494SOL    HW182379  14.868   6.368   1.923
93494SOL    HW282380  14.765   6.438   2.009
93495SOL     OW82381   9.090   2.114   6.358
93495SOL    HW182382   9.046   2.195   6.332
93495SOL    HW282383   9.178   2.122   6.321
93496SOL     OW82384   4.055   3.756   0.223
93496SOL    HW182385   4.073   3.846   0.252
93496SOL    HW282386   4.066   3.758   0.128
93497SOL     OW82387  10.384   6.267  14.802
93497SOL    HW182388  10.410   6.356  14.778
93497SOL    HW282389  10.464   6.226  14.835
93498SOL     OW82390  12.207   2.965   9.180
93498SOL    HW182391  12.246   3.036   9.233
93498SOL    HW282392  12.283   2.921   9.142
93499SOL     OW82393   6.197   3.996   4.082
93499SOL    HW182394   6.203   4.088   4.105
93499SOL    HW282395   6.181   3.996   3.988
93500SOL     OW82396   0.002   3.684   6.464
93500SOL    HW182397  14.787   3.660   6.475
93500SOL    HW282398   0.016   3.679   6.369
93501SOL     OW82399   4.306  10.674  10.310
93501SOL    HW182400   4.306  10.627  10.227
93501SOL    HW282401   4.381  10.639  10.358
93502SOL     OW82402   5.892   7.475  11.774
93502SOL    HW182403   5.929   7.563  11.780
93502SOL    HW282404   5.967   7.418  11.758
93503SOL     OW82405   3.009   1.982   9.624
93503SOL    HW182406   2.914   1.987   9.614
93503SOL    HW282407   3.043   2.040   9.556
93504SOL     OW82408   9.463   8.002  11.890
93504SOL    HW182409   9.479   7.948  11.813
93504SOL    HW282410   9.385   7.962  11.931
93505SOL     OW82411   8.700   8.476   6.213
93505SOL    HW182412   8.631   8.542   6.206
93505SOL    HW282413   8.665   8.410   6.273
93506SOL     OW82414   2.459   0.441   1.870
93506SOL    HW182415   2.415   0.416   1.789
93506SOL    HW282416   2.391   0.439   1.937
93507SOL     OW82417  13.666  14.036   1.649
93507SOL    HW182418  13.617  14.055   1.569
93507SOL    HW282419  13.753  14.011   1.617
93508SOL     OW82420   9.019   4.455   9.429
93508SOL    HW182421   9.071   4.376   9.442
93508SOL    HW282422   8.932   4.423   9.405
93509SOL     OW82423   1.756   4.402  14.142
93509SOL    HW182424   1.707   4.477  14.176
93509SOL    HW282425   1.841   4.438  14.117
93510SOL     OW82426   4.815  13.780   7.153
93510SOL    HW182427   4.737  13.780   7.098
93510SOL    HW282428   4.788  13.827   7.232
93511SOL     OW82429  12.935   3.892   6.018
93511SOL    HW182430  12.927   3.957   6.088
93511SOL    HW282431  12.909   3.939   5.939
93512SOL     OW82432   1.440   2.926  14.540
93512SOL    HW182433   1.522   2.908  14.493
93512SOL    HW282434   1.374   2.932  14.471
93513SOL     OW82435   3.476  13.899   2.989
93513SOL    HW182436   3.454  13.812   2.955
93513SOL    HW282437   3.542  13.882   3.057
93514SOL     OW82438   1.369   8.685  13.663
93514SOL    HW182439   1.427   8.754  13.695
93514SOL    HW282440   1.302   8.731  13.613
93515SOL     OW82441   4.230   1.851  10.275
93515SOL    HW182442   4.156   1.908  10.252
93515SOL    HW282443   4.288   1.907  10.326
93516SOL     OW82444   7.674   0.031   8.388
93516SOL    HW182445   7.707  14.867   8.309
93516SOL    HW282446   7.701   0.123   8.379
93517SOL     OW82447  12.492   8.235   4.273
93517SOL    HW182448  12.577   8.202   4.300
93517SOL    HW282449  12.466   8.296   4.342
93518SOL     OW82450   3.864   8.085   9.777
93518SOL    HW182451   3.829   8.115   9.693
93518SOL    HW282452   3.913   8.161   9.810
93519SOL     OW82453  14.800   4.648   6.044
93519SOL    HW182454  14.842   4.576   6.091
93519SOL    HW282455  14.707   4.641   6.067
93520SOL     OW82456  13.838   9.610   4.712
93520SOL    HW182457  13.802   9.621   4.800
93520SOL    HW282458  13.863   9.518   4.708
93521SOL     OW82459   6.122   1.256  11.628
93521SOL    HW182460   6.126   1.336  11.680
93521SOL    HW282461   6.183   1.271  11.556
93522SOL     OW82462   9.327   0.831  13.839
93522SOL    HW182463   9.373   0.872  13.912
93522SOL    HW282464   9.261   0.775  13.880
93523SOL     OW82465  11.135   0.273   1.688
93523SOL    HW182466  11.152   0.272   1.594
93523SOL    HW282467  11.177   0.353   1.720
93524SOL     OW82468   1.454   4.592  11.044
93524SOL    HW182469   1.458   4.506  11.087
93524SOL    HW282470   1.546   4.611  11.021
93525SOL     OW82471   0.274  11.816  14.501
93525SOL    HW182472   0.242  11.740  14.549
93525SOL    HW282473   0.365  11.795  14.481
93526SOL     OW82474   5.585  14.307   0.069
93526SOL    HW182475   5.670  14.316   0.026
93526SOL    HW282476   5.594  14.359   0.149
93527SOL     OW82477   2.217   1.658   1.529
93527SOL    HW182478   2.255   1.717   1.464
93527SOL    HW282479   2.240   1.697   1.613
93528SOL     OW82480  13.543  11.343   5.638
93528SOL    HW182481  13.455  11.319   5.608
93528SOL    HW282482  13.599  11.271   5.610
93529SOL     OW82483   4.745  11.964  10.784
93529SOL    HW182484   4.755  12.032  10.850
93529SOL    HW282485   4.696  11.894  10.828
93530SOL     OW82486  11.378   2.699  14.328
93530SOL    HW182487  11.310   2.763  14.308
93530SOL    HW282488  11.417   2.730  14.409
93531SOL     OW82489   8.382  12.943  13.508
93531SOL    HW182490   8.359  13.036  13.511
93531SOL    HW282491   8.355  12.914  13.421
93532SOL     OW82492   8.702  11.159   4.032
93532SOL    HW182493   8.774  11.134   4.090
93532SOL    HW282494   8.633  11.189   4.092
93533SOL     OW82495   3.821   0.485   6.566
93533SOL    HW182496   3.761   0.416   6.537
93533SOL    HW282497   3.906   0.460   6.529
93534SOL     OW82498   4.024  14.602   0.908
93534SOL    HW182499   4.106  14.600   0.957
93534SOL    HW282500   4.050  14.631   0.820
93535SOL     OW82501  10.625   8.361   1.157
93535SOL    HW182502  10.587   8.311   1.229
93535SOL    HW282503  10.599   8.451   1.174
93536SOL     OW82504   0.375   0.876   2.570
93536SOL    HW182505   0.351   0.955   2.522
93536SOL    HW282506   0.468   0.864   2.552
93537SOL     OW82507   0.300   0.622   8.066
93537SOL    HW182508   0.290   0.578   8.151
93537SOL    HW282509   0.222   0.677   8.059
93538SOL     OW82510  13.488   9.550   7.080
93538SOL    HW182511  13.440   9.469   7.064
93538SOL    HW282512  13.522   9.575   6.994
93539SOL     OW82513   6.238  13.812  10.347
93539SOL    HW182514   6.266  13.901  10.324
93539SOL    HW282515   6.145  13.820  10.367
93540SOL     OW82516   5.939   7.144   8.468
93540SOL    HW182517   5.982   7.060   8.480
93540SOL    HW282518   5.995   7.191   8.406
93541SOL     OW82519   9.764  12.472  10.573
93541SOL    HW182520   9.744  12.545  10.514
93541SOL    HW282521   9.744  12.393  10.522
93542SOL     OW82522   9.765  12.659   4.187
93542SOL    HW182523   9.782  12.637   4.096
93542SOL    HW282524   9.688  12.716   4.184
93543SOL     OW82525   2.029   9.047   4.880
93543SOL    HW182526   2.026   9.134   4.920
93543SOL    HW282527   1.939   9.014   4.888
93544SOL     OW82528  14.134   1.965   6.252
93544SOL    HW182529  14.148   2.036   6.314
93544SOL    HW282530  14.204   1.902   6.271
93545SOL     OW82531  13.484  11.160  14.686
93545SOL    HW182532  13.493  11.200  14.600
93545SOL    HW282533  13.423  11.217  14.733
93546SOL     OW82534   2.494   9.535   4.304
93546SOL    HW182535   2.546   9.478   4.361
93546SOL    HW282536   2.480   9.614   4.356
93547SOL     OW82537   0.955  11.349   5.668
93547SOL    HW182538   0.968  11.367   5.575
93547SOL    HW282539   0.887  11.410   5.695
93548SOL     OW82540  12.007   6.444   3.260
93548SOL    HW182541  12.030   6.425   3.351
93548SOL    HW282542  12.067   6.514   3.235
93549SOL     OW82543   3.948   2.699   6.449
93549SOL    HW182544   3.937   2.607   6.426
93549SOL    HW282545   3.952   2.745   6.365
93550SOL     OW82546  10.633   6.449   4.447
93550SOL    HW182547  10.651   6.427   4.539
93550SOL    HW282548  10.551   6.403   4.427
93551SOL     OW82549  10.115  14.017  14.472
93551SOL    HW182550  10.177  14.087  14.451
93551SOL    HW282551  10.147  13.981  14.555
93552SOL     OW82552  14.643  12.318   8.306
93552SOL    HW182553  14.603  12.376   8.241
93552SOL    HW282554  14.574  12.302   8.370
93553SOL     OW82555   6.603   7.753  10.296
93553SOL    HW182556   6.622   7.666  10.261
93553SOL    HW282557   6.579   7.806  10.220
93554SOL     OW82558   1.167  13.409  10.201
93554SOL    HW182559   1.159  13.406  10.106
93554SOL    HW282560   1.112  13.338  10.233
93555SOL     OW82561   0.201   3.659   6.205
93555SOL    HW182562   0.216   3.565   6.189
93555SOL    HW282563   0.284   3.691   6.241
93556SOL     OW82564   8.143  10.370   5.225
93556SOL    HW182565   8.232  10.335   5.227
93556SOL    HW282566   8.145  10.443   5.287
93557SOL     OW82567  12.909  14.751   8.960
93557SOL    HW182568  12.891  14.802   9.039
93557SOL    HW282569  12.866  14.667   8.977
93558SOL     OW82570  11.511   0.114   7.272
93558SOL    HW182571  11.576   0.173   7.309
93558SOL    HW282572  11.563   0.043   7.234
93559SOL     OW82573   2.534  11.666  12.399
93559SOL    HW182574   2.454  11.708  12.366
93559SOL    HW282575   2.514  11.573  12.397
93560SOL     OW82576   4.154   8.066   5.743
93560SOL    HW182577   4.220   8.086   5.676
93560SOL    HW282578   4.073   8.104   5.709
93561SOL     OW82579   2.765   6.854   0.452
93561SOL    HW182580   2.716   6.817   0.378
93561SOL    HW282581   2.730   6.943   0.462
93562SOL     OW82582   0.669   1.674  13.628
93562SOL    HW182583   0.671   1.740  13.697
93562SOL    HW282584   0.736   1.610  13.654
93563SOL     OW82585   6.511   2.762   7.296
93563SOL    HW182586   6.534   2.764   7.389
93563SOL    HW282587   6.522   2.852   7.267
93564SOL     OW82588   2.827  11.967   7.496
93564SOL    HW182589   2.772  11.980   7.419
93564SOL    HW282590   2.869  12.052   7.511
93565SOL     OW82591   9.714   2.922   2.255
93565SOL    HW182592   9.727   2.828   2.246
93565SOL    HW282593   9.636   2.941   2.203
93566SOL     OW82594  11.490   6.036   8.272
93566SOL    HW182595  11.550   5.966   8.297
93566SOL    HW282596  11.459   6.011   8.185
93567SOL     OW82597   8.535   2.137   8.187
93567SOL    HW182598   8.492   2.121   8.103
93567SOL    HW282599   8.629   2.135   8.167
93568SOL     OW82600  11.593   4.063   8.313
93568SOL    HW182601  11.623   4.152   8.331
93568SOL    HW282602  11.583   4.023   8.399
93569SOL     OW82603   4.172  14.792  13.612
93569SOL    HW182604   4.109  14.742  13.560
93569SOL    HW282605   4.124  14.815  13.692
93570SOL     OW82606   5.331   4.211   6.356
93570SOL    HW182607   5.271   4.154   6.307
93570SOL    HW282608   5.412   4.211   6.305
93571SOL     OW82609   8.331   2.302  12.306
93571SOL    HW182610   8.324   2.345  12.221
93571SOL    HW282611   8.256   2.335  12.356
93572SOL     OW82612   7.715  12.806   1.731
93572SOL    HW182613   7.644  12.869   1.718
93572SOL    HW282614   7.761  12.837   1.808
93573SOL     OW82615   1.546   6.446   9.753
93573SOL    HW182616   1.525   6.539   9.753
93573SOL    HW282617   1.628   6.439   9.705
93574SOL     OW82618   7.245  10.764   4.487
93574SOL    HW182619   7.178  10.814   4.533
93574SOL    HW282620   7.266  10.817   4.410
93575SOL     OW82621   9.141   6.085  11.447
93575SOL    HW182622   9.128   6.053  11.358
93575SOL    HW282623   9.096   6.022  11.503
93576SOL     OW82624   6.242  10.900   6.151
93576SOL    HW182625   6.216  10.877   6.240
93576SOL    HW282626   6.160  10.928   6.109
93577SOL     OW82627   0.276   0.140   1.292
93577SOL    HW182628   0.183   0.144   1.266
93577SOL    HW282629   0.291   0.047   1.310
93578SOL     OW82630   0.363  13.921   0.307
93578SOL    HW182631   0.272  13.891   0.309
93578SOL    HW282632   0.369  13.985   0.378
93579SOL     OW82633   0.284  11.788  13.267
93579SOL    HW182634   0.251  11.814  13.181
93579SOL    HW282635   0.270  11.693  13.270
93580SOL     OW82636   1.851  11.024   2.248
93580SOL    HW182637   1.810  10.979   2.175
93580SOL    HW282638   1.810  11.111   2.249
93581SOL     OW82639  10.359   6.931   4.043
93581SOL    HW182640  10.392   6.972   4.123
93581SOL    HW282641  10.343   7.004   3.984
93582SOL     OW82642   3.646  10.576   2.792
93582SOL    HW182643   3.601  10.639   2.735
93582SOL    HW282644   3.731  10.616   2.809
93583SOL     OW82645  10.385   5.479  10.760
93583SOL    HW182646  10.354   5.559  10.804
93583SOL    HW282647  10.317   5.414  10.779
93584SOL     OW82648   8.368   4.394  14.408
93584SOL    HW182649   8.439   4.350  14.363
93584SOL    HW282650   8.335   4.330  14.471
93585SOL     OW82651  13.370   2.173   1.415
93585SOL    HW182652  13.398   2.256   1.454
93585SOL    HW282653  13.276   2.183   1.403
93586SOL     OW82654   1.346   3.176   1.637
93586SOL    HW182655   1.372   3.250   1.582
93586SOL    HW282656   1.259   3.200   1.669
93587SOL     OW82657  13.012  10.211  12.479
93587SOL    HW182658  12.972  10.298  12.486
93587SOL    HW282659  12.983  10.178  12.394
93588SOL     OW82660   2.176   2.146  14.782
93588SOL    HW182661   2.150   2.208  14.713
93588SOL    HW282662   2.130   2.176  14.860
93589SOL     OW82663   4.892   0.480   1.439
93589SOL    HW182664   4.973   0.443   1.404
93589SOL    HW282665   4.844   0.510   1.362
93590SOL     OW82666   1.126   1.673  13.235
93590SOL    HW182667   1.104   1.581  13.220
93590SOL    HW282668   1.077   1.721  13.168
93591SOL     OW82669   8.863   5.832   1.835
93591SOL    HW182670   8.790   5.870   1.883
93591SOL    HW282671   8.840   5.842   1.743
93592SOL     OW82672   9.149   7.613  10.089
93592SOL    HW182673   9.121   7.564  10.166
93592SOL    HW282674   9.127   7.704  10.108
93593SOL     OW82675   6.250   8.739   0.445
93593SOL    HW182676   6.180   8.743   0.511
93593SOL    HW282677   6.204   8.745   0.361
93594SOL     OW82678   5.393   3.020   9.253
93594SOL    HW182679   5.325   3.079   9.286
93594SOL    HW282680   5.346   2.962   9.192
93595SOL     OW82681   0.751  10.714   2.576
93595SOL    HW182682   0.685  10.645   2.589
93595SOL    HW282683   0.834  10.670   2.591
93596SOL     OW82684   9.478   2.114   8.521
93596SOL    HW182685   9.436   2.120   8.607
93596SOL    HW282686   9.406   2.124   8.459
93597SOL     OW82687   7.342  13.506   1.111
93597SOL    HW182688   7.431  13.504   1.078
93597SOL    HW282689   7.300  13.428   1.073
93598SOL     OW82690  11.331   7.167   6.479
93598SOL    HW182691  11.247   7.151   6.523
93598SOL    HW282692  11.325   7.257   6.448
93599SOL     OW82693  14.196  10.392   3.739
93599SOL    HW182694  14.226  10.393   3.648
93599SOL    HW282695  14.130  10.462   3.742
93600SOL     OW82696  12.173   3.013  13.454
93600SOL    HW182697  12.245   2.952  13.466
93600SOL    HW282698  12.185   3.079  13.521
93601SOL     OW82699   0.818   8.669   9.635
93601SOL    HW182700   0.851   8.584   9.661
93601SOL    HW282701   0.896   8.719   9.612
93602SOL     OW82702   5.689   8.178  12.171
93602SOL    HW182703   5.652   8.162  12.257
93602SOL    HW282704   5.647   8.114  12.114
93603SOL     OW82705   5.140   7.041   0.383
93603SOL    HW182706   5.197   6.988   0.438
93603SOL    HW282707   5.172   7.026   0.294
93604SOL     OW82708   9.004   1.763   8.131
93604SOL    HW182709   9.009   1.763   8.227
93604SOL    HW282710   9.095   1.754   8.103
93605SOL     OW82711   0.447   5.060  11.228
93605SOL    HW182712   0.492   5.105  11.156
93605SOL    HW282713   0.366   5.109  11.240
93606SOL     OW82714   8.076   0.411  11.866
93606SOL    HW182715   8.084   0.319  11.841
93606SOL    HW282716   8.134   0.420  11.942
93607SOL     OW82717   0.989   0.134  10.141
93607SOL    HW182718   0.991   0.174  10.228
93607SOL    HW282719   1.056   0.066  10.145
93608SOL     OW82720  12.313   6.224   3.725
93608SOL    HW182721  12.319   6.162   3.653
93608SOL    HW282722  12.291   6.170   3.801
93609SOL     OW82723   8.123  12.065  13.357
93609SOL    HW182724   8.128  11.989  13.298
93609SOL    HW282725   8.165  12.136  13.308
93610SOL     OW82726  13.972   2.822   5.229
93610SOL    HW182727  13.896   2.855   5.180
93610SOL    HW282728  14.028   2.783   5.162
93611SOL     OW82729  13.373   7.347   8.797
93611SOL    HW182730  13.322   7.408   8.850
93611SOL    HW282731  13.418   7.402   8.733
93612SOL     OW82732  11.923  13.986   6.179
93612SOL    HW182733  11.908  13.998   6.273
93612SOL    HW282734  11.849  13.932   6.150
93613SOL     OW82735   5.768   1.663   6.994
93613SOL    HW182736   5.699   1.721   7.024
93613SOL    HW282737   5.761   1.586   7.050
93614SOL     OW82738  11.261  14.380   7.186
93614SOL    HW182739  11.203  14.304   7.181
93614SOL    HW282740  11.201  14.455   7.190
93615SOL     OW82741  13.214  11.314   6.274
93615SOL    HW182742  13.297  11.273   6.299
93615SOL    HW282743  13.198  11.380   6.341
93616SOL     OW82744  14.143   5.775   3.161
93616SOL    HW182745  14.148   5.865   3.194
93616SOL    HW282746  14.218   5.766   3.102
93617SOL     OW82747  13.543   6.917  13.031
93617SOL    HW182748  13.487   6.850  12.991
93617SOL    HW282749  13.483   6.989  13.052
93618SOL     OW82750  11.340   0.446   1.761
93618SOL    HW182751  11.329   0.532   1.802
93618SOL    HW282752  11.389   0.464   1.680
93619SOL     OW82753   2.952  11.766   0.247
93619SOL    HW182754   2.981  11.678   0.272
93619SOL    HW282755   2.974  11.772   0.154
93620SOL     OW82756   4.677   1.354   1.425
93620SOL    HW182757   4.589   1.318   1.411
93620SOL    HW282758   4.662   1.444   1.454
93621SOL     OW82759   2.941   0.216   1.796
93621SOL    HW182760   3.015   0.234   1.738
93621SOL    HW282761   2.864   0.239   1.744
93622SOL     OW82762   0.318   5.727   7.018
93622SOL    HW182763   0.244   5.694   6.967
93622SOL    HW282764   0.292   5.713   7.109
93623SOL     OW82765   8.487   7.600   2.895
93623SOL    HW182766   8.491   7.685   2.852
93623SOL    HW282767   8.451   7.541   2.829
93624SOL     OW82768   0.949   4.838   8.340
93624SOL    HW182769   0.966   4.932   8.348
93624SOL    HW282770   0.929   4.826   8.247
93625SOL     OW82771   2.283  12.593   9.000
93625SOL    HW182772   2.260  12.667   8.944
93625SOL    HW282773   2.286  12.518   8.940
93626SOL     OW82774   7.436   3.990   5.012
93626SOL    HW182775   7.527   3.992   5.040
93626SOL    HW282776   7.390   4.045   5.075
93627SOL     OW82777   5.634   3.426   4.271
93627SOL    HW182778   5.686   3.378   4.336
93627SOL    HW282779   5.555   3.372   4.259
93628SOL     OW82780  12.760   5.369   6.206
93628SOL    HW182781  12.756   5.294   6.264
93628SOL    HW282782  12.775   5.332   6.119
93629SOL     OW82783  13.771   7.047   7.884
93629SOL    HW182784  13.822   7.117   7.923
93629SOL    HW282785  13.833   6.975   7.874
93630SOL     OW82786   4.465   8.586   2.734
93630SOL    HW182787   4.540   8.639   2.707
93630SOL    HW282788   4.391   8.647   2.733
93631SOL     OW82789  13.853   8.978  10.796
93631SOL    HW182790  13.808   8.909  10.747
93631SOL    HW282791  13.936   8.990  10.750
93632SOL     OW82792  10.175   7.783   4.165
93632SOL    HW182793  10.246   7.820   4.218
93632SOL    HW282794  10.118   7.858   4.146
93633SOL     OW82795   2.997   5.435  12.331
93633SOL    HW182796   2.967   5.525  12.318
93633SOL    HW282797   2.940   5.382  12.276
93634SOL     OW82798   5.221  14.608  13.317
93634SOL    HW182799   5.226  14.528  13.264
93634SOL    HW282800   5.241  14.679  13.256
93635SOL     OW82801  13.603   1.950   5.507
93635SOL    HW182802  13.562   1.864   5.490
93635SOL    HW282803  13.565   1.978   5.590
93636SOL     OW82804   4.834   4.424   9.725
93636SOL    HW182805   4.853   4.476   9.803
93636SOL    HW282806   4.907   4.362   9.718
93637SOL     OW82807   2.875  10.560   3.034
93637SOL    HW182808   2.786  10.591   3.050
93637SOL    HW282809   2.876  10.540   2.940
93638SOL     OW82810   8.731   1.533  10.691
93638SOL    HW182811   8.670   1.496  10.626
93638SOL    HW282812   8.774   1.456  10.729
93639SOL     OW82813   8.784   4.653  14.199
93639SOL    HW182814   8.712   4.664  14.261
93639SOL    HW282815   8.779   4.730  14.142
93640SOL     OW82816   9.557  12.498  10.798
93640SOL    HW182817   9.580  12.424  10.741
93640SOL    HW282818   9.632  12.557  10.793
93641SOL     OW82819  13.932   4.965   4.457
93641SOL    HW182820  13.892   5.042   4.497
93641SOL    HW282821  14.026   4.979   4.466
93642SOL     OW82822   5.256  14.764  12.067
93642SOL    HW182823   5.182  14.708  12.046
93642SOL    HW282824   5.323  14.740  12.002
93643SOL     OW82825  12.401  11.102   9.040
93643SOL    HW182826  12.428  11.160   8.970
93643SOL    HW282827  12.373  11.161   9.111
93644SOL     OW82828   5.792   1.157   3.112
93644SOL    HW182829   5.731   1.093   3.077
93644SOL    HW282830   5.764   1.172   3.202
93645SOL     OW82831   8.914   5.128   7.292
93645SOL    HW182832   8.937   5.160   7.205
93645SOL    HW282833   8.901   5.207   7.344
93646SOL     OW82834   8.298  13.792  12.327
93646SOL    HW182835   8.295  13.885  12.350
93646SOL    HW282836   8.213  13.775  12.286
93647SOL     OW82837  14.538  14.264   1.438
93647SOL    HW182838  14.593  14.223   1.505
93647SOL    HW282839  14.571  14.353   1.431
93648SOL     OW82840   5.919   5.606  12.208
93648SOL    HW182841   5.846   5.616  12.268
93648SOL    HW282842   5.973   5.536  12.246
93649SOL     OW82843   3.973  11.601   5.405
93649SOL    HW182844   3.946  11.584   5.315
93649SOL    HW282845   4.069  11.604   5.402
93650SOL     OW82846  10.316   4.335   2.592
93650SOL    HW182847  10.394   4.384   2.619
93650SOL    HW282848  10.244   4.397   2.603
93651SOL     OW82849   5.859  11.744   7.816
93651SOL    HW182850   5.833  11.738   7.909
93651SOL    HW282851   5.809  11.674   7.774
93652SOL     OW82852   2.383  13.488  12.666
93652SOL    HW182853   2.444  13.534  12.724
93652SOL    HW282854   2.439  13.445  12.602
93653SOL     OW82855   3.265   3.755  12.221
93653SOL    HW182856   3.198   3.715  12.276
93653SOL    HW282857   3.346   3.747  12.271
93654SOL     OW82858   9.487   6.379  13.179
93654SOL    HW182859   9.569   6.330  13.175
93654SOL    HW282860   9.435   6.333  13.244
93655SOL     OW82861  14.671   5.406   2.435
93655SOL    HW182862  14.740   5.342   2.421
93655SOL    HW282863  14.607   5.387   2.367
93656SOL     OW82864   6.186   8.045   7.250
93656SOL    HW182865   6.264   8.067   7.299
93656SOL    HW282866   6.177   8.116   7.185
93657SOL     OW82867   9.348  11.002   0.003
93657SOL    HW182868   9.436  10.995   0.040
93657SOL    HW282869   9.336  10.921  14.832
93658SOL     OW82870   3.295   6.374  10.029
93658SOL    HW182871   3.331   6.314  10.094
93658SOL    HW282872   3.238   6.432  10.079
93659SOL     OW82873   8.598  14.289   2.777
93659SOL    HW182874   8.596  14.378   2.743
93659SOL    HW282875   8.522  14.285   2.836
93660SOL     OW82876   9.536   6.911   2.049
93660SOL    HW182877   9.486   6.848   1.998
93660SOL    HW282878   9.470   6.962   2.095
93661SOL     OW82879   6.278   9.604   1.149
93661SOL    HW182880   6.194   9.619   1.104
93661SOL    HW282881   6.344   9.617   1.080
93662SOL     OW82882   2.774  12.627  10.823
93662SOL    HW182883   2.712  12.697  10.843
93662SOL    HW282884   2.857  12.672  10.808
93663SOL     OW82885   8.388   1.540  13.150
93663SOL    HW182886   8.441   1.475  13.197
93663SOL    HW282887   8.386   1.509  13.060
93664SOL     OW82888   7.732  11.972   5.300
93664SOL    HW182889   7.766  11.993   5.214
93664SOL    HW282890   7.666  12.040   5.316
93665SOL     OW82891  11.792   0.088   5.573
93665SOL    HW182892  11.791  14.876   5.540
93665SOL    HW282893  11.876   0.097   5.618
93666SOL     OW82894   1.835   7.075  13.137
93666SOL    HW182895   1.772   7.145  13.121
93666SOL    HW282896   1.828   7.019  13.059
93667SOL     OW82897  12.786   1.444   7.533
93667SOL    HW182898  12.777   1.503   7.608
93667SOL    HW282899  12.754   1.494   7.458
93668SOL     OW82900   9.095   4.413   1.887
93668SOL    HW182901   9.005   4.427   1.857
93668SOL    HW282902   9.138   4.497   1.874
93669SOL     OW82903   9.014   9.907   4.342
93669SOL    HW182904   8.950   9.977   4.325
93669SOL    HW282905   9.012   9.895   4.437
93670SOL     OW82906   0.343   4.673   7.228
93670SOL    HW182907   0.372   4.764   7.225
93670SOL    HW282908   0.338   4.652   7.321
93671SOL     OW82909  10.619   0.998   0.705
93671SOL    HW182910  10.599   1.060   0.635
93671SOL    HW282911  10.589   1.041   0.785
93672SOL     OW82912   6.617  12.590   9.908
93672SOL    HW182913   6.712  12.591   9.923
93672SOL    HW282914   6.608  12.575   9.814
93673SOL     OW82915   7.689   9.502  12.327
93673SOL    HW182916   7.738   9.442  12.271
93673SOL    HW282917   7.597   9.478  12.314
93674SOL     OW82918   1.122   8.805  10.174
93674SOL    HW182919   1.038   8.826  10.214
93674SOL    HW282920   1.100   8.782  10.083
93675SOL     OW82921  12.655   3.235   1.245
93675SOL    HW182922  12.686   3.221   1.155
93675SOL    HW282923  12.700   3.168   1.296
93676SOL     OW82924  14.282   1.159   0.878
93676SOL    HW182925  14.305   1.230   0.817
93676SOL    HW282926  14.363   1.141   0.925
93677SOL     OW82927   3.481   1.155   5.544
93677SOL    HW182928   3.446   1.076   5.502
93677SOL    HW282929   3.404   1.200   5.578
93678SOL     OW82930  14.473   1.875   8.579
93678SOL    HW182931  14.506   1.837   8.660
93678SOL    HW282932  14.524   1.834   8.510
93679SOL     OW82933  13.077  14.591   1.891
93679SOL    HW182934  13.124  14.583   1.807
93679SOL    HW282935  13.054  14.684   1.896
93680SOL     OW82936  12.194  14.466  11.895
93680SOL    HW182937  12.138  14.521  11.949
93680SOL    HW282938  12.208  14.517  11.815
93681SOL     OW82939   2.363  13.464   7.728
93681SOL    HW182940   2.328  13.552   7.715
93681SOL    HW282941   2.385  13.434   7.640
93682SOL     OW82942   8.752   2.890   6.698
93682SOL    HW182943   8.760   2.869   6.605
93682SOL    HW282944   8.699   2.820   6.734
93683SOL     OW82945  13.141   5.767   2.762
93683SOL    HW182946  13.045   5.765   2.763
93683SOL    HW282947  13.163   5.844   2.710
93684SOL     OW82948   8.152   1.661  11.671
93684SOL    HW182949   8.083   1.654  11.736
93684SOL    HW282950   8.118   1.724  11.607
93685SOL     OW82951  13.362   8.931   1.010
93685SOL    HW182952  13.446   8.948   1.053
93685SOL    HW282953  13.297   8.956   1.076
93686SOL     OW82954   1.529   1.447   3.074
93686SOL    HW182955   1.567   1.519   3.126
93686SOL    HW282956   1.435   1.455   3.088
93687SOL     OW82957   1.870  11.205  13.113
93687SOL    HW182958   1.817  11.284  13.112
93687SOL    HW282959   1.961  11.237  13.111
93688SOL     OW82960  10.922   1.659  10.119
93688SOL    HW182961  11.004   1.615  10.095
93688SOL    HW282962  10.933   1.680  10.212
93689SOL     OW82963   7.530   2.268   6.887
93689SOL    HW182964   7.564   2.291   6.800
93689SOL    HW282965   7.476   2.343   6.911
93690SOL     OW82966   9.903   4.098   2.120
93690SOL    HW182967   9.928   4.115   2.210
93690SOL    HW282968   9.853   4.175   2.094
93691SOL     OW82969  11.679   9.832  12.715
93691SOL    HW182970  11.723   9.821  12.799
93691SOL    HW282971  11.659   9.925  12.710
93692SOL     OW82972   8.389   8.529   2.899
93692SOL    HW182973   8.390   8.482   2.816
93692SOL    HW282974   8.481   8.539   2.923
93693SOL     OW82975  13.034   1.134   2.538
93693SOL    HW182976  12.946   1.114   2.505
93693SOL    HW282977  13.024   1.135   2.633
93694SOL     OW82978  14.143   6.011   3.294
93694SOL    HW182979  14.236   6.032   3.303
93694SOL    HW282980  14.101   6.096   3.279
93695SOL     OW82981   8.439   7.774  10.081
93695SOL    HW182982   8.513   7.802  10.028
93695SOL    HW282983   8.364   7.777  10.021
93696SOL     OW82984   7.171   5.923  10.664
93696SOL    HW182985   7.140   5.958  10.580
93696SOL    HW282986   7.255   5.967  10.679
93697SOL     OW82987  12.873  11.587  11.686
93697SOL    HW182988  12.819  11.657  11.649
93697SOL    HW282989  12.821  11.508  11.676
93698SOL     OW82990   3.060   1.297  12.604
93698SOL    HW182991   2.984   1.274  12.550
93698SOL    HW282992   3.088   1.382  12.572
93699SOL     OW82993  11.801   4.094   1.916
93699SOL    HW182994  11.809   4.176   1.965
93699SOL    HW282995  11.711   4.094   1.884
93700SOL     OW82996   1.579   3.902   1.788
93700SOL    HW182997   1.625   3.872   1.709
93700SOL    HW282998   1.501   3.945   1.755
93701SOL     OW82999  11.534   0.577   7.271
93701SOL    HW183000  11.577   0.574   7.186
93701SOL    HW283001  11.606   0.567   7.334
93702SOL     OW83002   3.847   1.541  10.593
93702SOL    HW183003   3.817   1.450  10.602
93702SOL    HW283004   3.770   1.594  10.614
93703SOL     OW83005  11.590   1.918  12.052
93703SOL    HW183006  11.565   1.955  12.137
93703SOL    HW283007  11.679   1.951  12.037
93704SOL     OW83008   8.256  13.232   0.315
93704SOL    HW183009   8.326  13.223   0.250
93704SOL    HW283010   8.280  13.172   0.385
93705SOL     OW83011  12.045   0.639   5.541
93705SOL    HW183012  12.058   0.684   5.624
93705SOL    HW283013  11.985   0.567   5.562
93706SOL     OW83014   6.326   5.038   4.901
93706SOL    HW183015   6.341   5.006   4.812
93706SOL    HW283016   6.350   5.131   4.897
93707SOL     OW83017  10.192   3.470  11.714
93707SOL    HW183018  10.190   3.565  11.725
93707SOL    HW283019  10.228   3.457  11.626
93708SOL     OW83020   2.783   1.659  12.315
93708SOL    HW183021   2.746   1.590  12.370
93708SOL    HW283022   2.727   1.735  12.331
93709SOL     OW83023   1.356   3.925   8.307
93709SOL    HW183024   1.275   3.958   8.267
93709SOL    HW283025   1.358   3.965   8.394
93710SOL     OW83026   2.739  14.804  12.796
93710SOL    HW183027   2.756  14.798  12.702
93710SOL    HW283028   2.780   0.008  12.823
93711SOL     OW83029   2.460   4.411   4.113
93711SOL    HW183030   2.549   4.396   4.080
93711SOL    HW283031   2.403   4.369   4.048
93712SOL     OW83032   5.732  14.338   8.238
93712SOL    HW183033   5.655  14.361   8.291
93712SOL    HW283034   5.696  14.286   8.166
93713SOL     OW83035   6.491   9.163   5.841
93713SOL    HW183036   6.528   9.243   5.877
93713SOL    HW283037   6.565   9.118   5.801
93714SOL     OW83038  11.297   8.848  13.253
93714SOL    HW183039  11.371   8.862  13.194
93714SOL    HW283040  11.232   8.912  13.224
93715SOL     OW83041   7.780  11.328  12.140
93715SOL    HW183042   7.824  11.267  12.200
93715SOL    HW283043   7.699  11.352  12.185
93716SOL     OW83044  14.066  10.689   3.088
93716SOL    HW183045  14.076  10.606   3.134
93716SOL    HW283046  14.068  10.666   2.995
93717SOL     OW83047   3.546   1.533   3.536
93717SOL    HW183048   3.593   1.458   3.572
93717SOL    HW283049   3.462   1.497   3.508
93718SOL     OW83050   7.285   9.676   4.197
93718SOL    HW183051   7.353   9.699   4.260
93718SOL    HW283052   7.215   9.637   4.248
93719SOL     OW83053  11.273   2.246   8.994
93719SOL    HW183054  11.196   2.213   8.947
93719SOL    HW283055  11.239   2.313   9.053
93720SOL     OW83056   5.716   5.674   3.567
93720SOL    HW183057   5.768   5.650   3.644
93720SOL    HW283058   5.704   5.591   3.520
93721SOL     OW83059  10.064   5.761   2.598
93721SOL    HW183060   9.969   5.756   2.603
93721SOL    HW283061  10.095   5.672   2.615
93722SOL     OW83062   8.036  12.101  13.011
93722SOL    HW183063   8.118  12.076  12.969
93722SOL    HW283064   7.975  12.117  12.939
93723SOL     OW83065   8.597   8.041   0.291
93723SOL    HW183066   8.594   8.082   0.204
93723SOL    HW283067   8.558   7.955   0.278
93724SOL     OW83068   2.092   9.478   7.168
93724SOL    HW183069   2.099   9.420   7.244
93724SOL    HW283070   2.169   9.535   7.174
93725SOL     OW83071   4.178  13.030   5.558
93725SOL    HW183072   4.203  12.962   5.621
93725SOL    HW283073   4.210  13.112   5.596
93726SOL     OW83074   0.476  10.627  13.461
93726SOL    HW183075   0.433  10.659  13.540
93726SOL    HW283076   0.478  10.532  13.471
93727SOL     OW83077   1.009   4.863   9.506
93727SOL    HW183078   1.033   4.776   9.535
93727SOL    HW283079   0.985   4.910   9.586
93728SOL     OW83080  14.875   5.030   7.033
93728SOL    HW183081  14.872   5.077   6.950
93728SOL    HW283082   0.069   5.071   7.081
93729SOL     OW83083  10.797  10.726   1.461
93729SOL    HW183084  10.756  10.767   1.385
93729SOL    HW283085  10.726  10.719   1.525
93730SOL     OW83086   9.798   2.507   1.431
93730SOL    HW183087   9.769   2.562   1.357
93730SOL    HW283088   9.885   2.539   1.452
93731SOL     OW83089   2.603  12.538   4.665
93731SOL    HW183090   2.529  12.570   4.614
93731SOL    HW283091   2.669  12.515   4.600
93732SOL     OW83092   9.723   2.144  12.729
93732SOL    HW183093   9.646   2.200  12.739
93732SOL    HW283094   9.714   2.078  12.798
93733SOL     OW83095   8.837   3.553  12.217
93733SOL    HW183096   8.828   3.645  12.190
93733SOL    HW283097   8.828   3.504  12.135
93734SOL     OW83098   1.404   5.973  11.062
93734SOL    HW183099   1.368   6.042  11.118
93734SOL    HW283100   1.463   6.018  11.002
93735SOL     OW83101   7.852  12.166   5.616
93735SOL    HW183102   7.934  12.182   5.568
93735SOL    HW283103   7.787  12.220   5.571
93736SOL     OW83104   5.295   2.712   3.704
93736SOL    HW183105   5.388   2.734   3.705
93736SOL    HW283106   5.286   2.650   3.632
93737SOL     OW83107  12.637  11.534   7.552
93737SOL    HW183108  12.622  11.453   7.501
93737SOL    HW283109  12.718  11.518   7.599
93738SOL     OW83110  13.483   1.221   5.353
93738SOL    HW183111  13.388   1.216   5.342
93738SOL    HW283112  13.511   1.287   5.290
93739SOL     OW83113   2.532  11.433   7.531
93739SOL    HW183114   2.480  11.483   7.468
93739SOL    HW283115   2.598  11.389   7.477
93740SOL     OW83116   3.830   0.383   8.700
93740SOL    HW183117   3.784   0.390   8.783
93740SOL    HW283118   3.765   0.350   8.639
93741SOL     OW83119   6.527  12.281  12.590
93741SOL    HW183120   6.622  12.287  12.577
93741SOL    HW283121   6.516  12.204  12.646
93742SOL     OW83122   5.444   4.598   5.223
93742SOL    HW183123   5.533   4.631   5.240
93742SOL    HW283124   5.387   4.665   5.260
93743SOL     OW83125   0.010   2.782   1.773
93743SOL    HW183126  14.808   2.785   1.720
93743SOL    HW283127  14.855   2.779   1.863
93744SOL     OW83128   5.741   1.328   4.663
93744SOL    HW183129   5.745   1.333   4.568
93744SOL    HW283130   5.681   1.256   4.681
93745SOL     OW83131   1.656   7.997   1.383
93745SOL    HW183132   1.717   8.000   1.310
93745SOL    HW283133   1.592   7.930   1.358
93746SOL     OW83134  12.778   3.455   1.395
93746SOL    HW183135  12.753   3.397   1.323
93746SOL    HW283136  12.730   3.422   1.471
93747SOL     OW83137   5.155   9.882   8.628
93747SOL    HW183138   5.078   9.869   8.683
93747SOL    HW283139   5.228   9.889   8.690
93748SOL     OW83140   1.596   5.723   2.344
93748SOL    HW183141   1.689   5.703   2.343
93748SOL    HW283142   1.558   5.660   2.406
93749SOL     OW83143  10.246   3.296   1.675
93749SOL    HW183144  10.268   3.223   1.617
93749SOL    HW283145  10.329   3.341   1.690
93750SOL     OW83146   9.860   9.682   5.507
93750SOL    HW183147   9.803   9.714   5.577
93750SOL    HW283148   9.847   9.745   5.436
93751SOL     OW83149   7.305   9.966   6.138
93751SOL    HW183150   7.396   9.957   6.110
93751SOL    HW283151   7.271   9.877   6.138
93752SOL     OW83152   1.274   7.308  14.589
93752SOL    HW183153   1.336   7.375  14.615
93752SOL    HW283154   1.205   7.312  14.656
93753SOL     OW83155   3.068   0.747  12.937
93753SOL    HW183156   3.047   0.700  12.856
93753SOL    HW283157   3.120   0.685  12.989
93754SOL     OW83158  13.370   2.441  13.673
93754SOL    HW183159  13.331   2.516  13.717
93754SOL    HW283160  13.358   2.459  13.580
93755SOL     OW83161   7.833  13.460   1.195
93755SOL    HW183162   7.918  13.488   1.229
93755SOL    HW283163   7.850  13.376   1.152
93756SOL     OW83164   8.881   0.578   8.295
93756SOL    HW183165   8.944   0.638   8.335
93756SOL    HW283166   8.935   0.508   8.257
93757SOL     OW83167   8.656  14.046   1.525
93757SOL    HW183168   8.684  13.976   1.584
93757SOL    HW283169   8.574  14.014   1.488
93758SOL     OW83170  13.067  14.050   7.301
93758SOL    HW183171  13.036  14.070   7.213
93758SOL    HW283172  13.109  13.964   7.293
93759SOL     OW83173  12.951   3.014   8.399
93759SOL    HW183174  12.888   3.001   8.327
93759SOL    HW283175  12.923   2.951   8.466
93760SOL     OW83176   0.782  10.235  14.572
93760SOL    HW183177   0.711  10.182  14.608
93760SOL    HW283178   0.754  10.255  14.482
93761SOL     OW83179  11.612   1.244   4.921
93761SOL    HW183180  11.658   1.171   4.878
93761SOL    HW283181  11.519   1.228   4.903
93762SOL     OW83182   0.111   5.303   4.823
93762SOL    HW183183   0.094   5.342   4.908
93762SOL    HW283184   0.105   5.375   4.761
93763SOL     OW83185   7.478  10.143   2.000
93763SOL    HW183186   7.451  10.118   2.088
93763SOL    HW283187   7.554  10.087   1.982
93764SOL     OW83188   3.652   7.322   4.935
93764SOL    HW183189   3.715   7.252   4.920
93764SOL    HW283190   3.575   7.278   4.973
93765SOL     OW83191  13.819   2.528   6.817
93765SOL    HW183192  13.770   2.607   6.840
93765SOL    HW283193  13.849   2.544   6.728
93766SOL     OW83194   4.399   1.537  10.633
93766SOL    HW183195   4.362   1.567  10.550
93766SOL    HW283196   4.462   1.469  10.608
93767SOL     OW83197   9.189   8.167  12.250
93767SOL    HW183198   9.143   8.250  12.238
93767SOL    HW283199   9.123   8.100  12.231
93768SOL     OW83200   9.523   8.811  10.611
93768SOL    HW183201   9.580   8.882  10.580
93768SOL    HW283202   9.524   8.819  10.706
93769SOL     OW83203   7.518  14.638   3.409
93769SOL    HW183204   7.496  14.730   3.422
93769SOL    HW283205   7.605  14.639   3.370
93770SOL     OW83206   3.313  13.585   0.159
93770SOL    HW183207   3.228  13.559   0.122
93770SOL    HW283208   3.350  13.645   0.094
93771SOL     OW83209   7.403  14.244  14.330
93771SOL    HW183210   7.438  14.160  14.301
93771SOL    HW283211   7.309  14.228  14.343
93772SOL     OW83212  13.385   1.803   9.878
93772SOL    HW183213  13.320   1.871   9.860
93772SOL    HW283214  13.336   1.734   9.922
93773SOL     OW83215   6.911   0.085  11.926
93773SOL    HW183216   6.911   0.108  11.833
93773SOL    HW283217   6.927  14.868  11.928
93774SOL     OW83218   2.107   6.619  14.092
93774SOL    HW183219   2.162   6.669  14.032
93774SOL    HW283220   2.020   6.656  14.081
93775SOL     OW83221   0.315   3.003   0.344
93775SOL    HW183222   0.343   3.063   0.274
93775SOL    HW283223   0.366   2.923   0.328
93776SOL     OW83224  10.728  14.868   0.595
93776SOL    HW183225  10.804  14.856   0.538
93776SOL    HW283226  10.730  14.792   0.653
93777SOL     OW83227   6.894   9.553   7.519
93777SOL    HW183228   6.834   9.570   7.446
93777SOL    HW283229   6.862   9.471   7.557
93778SOL     OW83230   6.492  14.491   3.387
93778SOL    HW183231   6.430  14.553   3.426
93778SOL    HW283232   6.483  14.505   3.292
93779SOL     OW83233  14.423  12.291  13.428
93779SOL    HW183234  14.358  12.360  13.419
93779SOL    HW283235  14.384  12.228  13.488
93780SOL     OW83236   6.411   8.004   9.154
93780SOL    HW183237   6.322   8.040   9.154
93780SOL    HW283238   6.468   8.081   9.140
93781SOL     OW83239   2.744   3.381   0.732
93781SOL    HW183240   2.694   3.433   0.795
93781SOL    HW283241   2.681   3.359   0.663
93782SOL     OW83242   0.354   0.723   2.321
93782SOL    HW183243   0.389   0.772   2.395
93782SOL    HW283244   0.268   0.692   2.351
93783SOL     OW83245   7.737  10.280  13.797
93783SOL    HW183246   7.774  10.197  13.771
93783SOL    HW283247   7.683  10.307  13.723
93784SOL     OW83248   2.045  13.014   9.843
93784SOL    HW183249   2.120  13.039   9.790
93784SOL    HW283250   1.978  12.988   9.779
93785SOL     OW83251   2.091  14.095  11.565
93785SOL    HW183252   2.053  14.081  11.479
93785SOL    HW283253   2.093  14.008  11.605
93786SOL     OW83254  13.726   7.014   7.008
93786SOL    HW183255  13.646   6.962   7.012
93786SOL    HW283256  13.769   6.998   7.092
93787SOL     OW83257   3.684  12.615  13.848
93787SOL    HW183258   3.775  12.592  13.864
93787SOL    HW283259   3.635  12.535  13.866
93788SOL     OW83260   4.609  13.896   5.986
93788SOL    HW183261   4.594  13.863   5.898
93788SOL    HW283262   4.698  13.870   6.007
93789SOL     OW83263  14.812   1.645   2.091
93789SOL    HW183264  14.778   1.718   2.143
93789SOL    HW283265  14.863   1.686   2.022
93790SOL     OW83266   1.962   6.516  13.767
93790SOL    HW183267   1.888   6.571  13.792
93790SOL    HW283268   1.925   6.428  13.761
93791SOL     OW83269   1.281  13.250   3.241
93791SOL    HW183270   1.328  13.236   3.158
93791SOL    HW283271   1.320  13.187   3.301
93792SOL     OW83272  13.395  12.039  14.135
93792SOL    HW183273  13.455  12.021  14.063
93792SOL    HW283274  13.310  12.048  14.093
93793SOL     OW83275   7.395   2.727   8.576
93793SOL    HW183276   7.467   2.729   8.513
93793SOL    HW283277   7.362   2.817   8.578
93794SOL     OW83278   4.943   6.723   8.019
93794SOL    HW183279   4.923   6.786   8.088
93794SOL    HW283280   4.930   6.638   8.060
93795SOL     OW83281   4.755   8.278   4.587
93795SOL    HW183282   4.779   8.232   4.506
93795SOL    HW283283   4.838   8.286   4.635
93796SOL     OW83284   4.044   4.392   8.981
93796SOL    HW183285   4.022   4.474   9.025
93796SOL    HW283286   4.112   4.415   8.917
93797SOL     OW83287  10.059   6.393   1.948
93797SOL    HW183288  10.091   6.478   1.919
93797SOL    HW283289  10.065   6.338   1.869
93798SOL     OW83290   5.234   4.065  10.477
93798SOL    HW183291   5.245   3.972  10.459
93798SOL    HW283292   5.235   4.071  10.573
93799SOL     OW83293   9.114   7.611  12.167
93799SOL    HW183294   9.040   7.658  12.128
93799SOL    HW283295   9.076   7.565  12.242
93800SOL     OW83296   1.897   0.598  13.412
93800SOL    HW183297   1.909   0.687  13.448
93800SOL    HW283298   1.803   0.584  13.412
93801SOL     OW83299   5.152  13.690   3.949
93801SOL    HW183300   5.221  13.707   4.013
93801SOL    HW283301   5.083  13.648   4.000
93802SOL     OW83302   2.532  13.714   0.290
93802SOL    HW183303   2.548  13.644   0.354
93802SOL    HW283304   2.575  13.683   0.210
93803SOL     OW83305  13.281  12.303   3.126
93803SOL    HW183306  13.302  12.213   3.151
93803SOL    HW283307  13.219  12.334   3.192
93804SOL     OW83308  12.959   6.650  12.076
93804SOL    HW183309  13.009   6.712  12.024
93804SOL    HW283310  12.877   6.638  12.028
93805SOL     OW83311   5.956  14.383   6.927
93805SOL    HW183312   5.915  14.429   7.000
93805SOL    HW283313   5.886  14.374   6.862
93806SOL     OW83314  14.077   6.502   6.573
93806SOL    HW183315  14.142   6.446   6.530
93806SOL    HW283316  14.062   6.573   6.510
93807SOL     OW83317   3.800  10.193   0.380
93807SOL    HW183318   3.786  10.167   0.288
93807SOL    HW283319   3.831  10.113   0.422
93808SOL     OW83320   9.907   2.086   3.691
93808SOL    HW183321   9.852   2.123   3.759
93808SOL    HW283322   9.900   2.148   3.618
93809SOL     OW83323  13.917   6.595   2.262
93809SOL    HW183324  13.932   6.567   2.172
93809SOL    HW283325  13.944   6.687   2.264
93810SOL     OW83326   9.218   5.452   1.841
93810SOL    HW183327   9.244   5.439   1.932
93810SOL    HW283328   9.286   5.410   1.789
93811SOL     OW83329   4.927  13.533  10.789
93811SOL    HW183330   4.834  13.513  10.801
93811SOL    HW283331   4.951  13.584  10.867
93812SOL     OW83332   7.532   4.948   1.864
93812SOL    HW183333   7.481   4.990   1.794
93812SOL    HW283334   7.593   5.016   1.893
93813SOL     OW83335  12.972   2.648   0.931
93813SOL    HW183336  12.900   2.669   0.990
93813SOL    HW283337  13.035   2.719   0.944
93814SOL     OW83338   5.476  10.145   6.644
93814SOL    HW183339   5.449  10.055   6.662
93814SOL    HW283340   5.549  10.136   6.583
93815SOL     OW83341   5.989   1.369   1.597
93815SOL    HW183342   6.028   1.379   1.510
93815SOL    HW283343   5.930   1.295   1.589
93816SOL     OW83344   6.249   3.159   8.583
93816SOL    HW183345   6.189   3.086   8.593
93816SOL    HW283346   6.223   3.222   8.651
93817SOL     OW83347   2.604  12.791  12.267
93817SOL    HW183348   2.582  12.880  12.238
93817SOL    HW283349   2.532  12.765  12.324
93818SOL     OW83350   7.677   0.997   4.731
93818SOL    HW183351   7.757   1.018   4.778
93818SOL    HW283352   7.697   0.916   4.684
93819SOL     OW83353   8.176  14.641   3.689
93819SOL    HW183354   8.209  14.699   3.620
93819SOL    HW283355   8.193  14.553   3.657
93820SOL     OW83356   4.528  11.203  12.789
93820SOL    HW183357   4.525  11.120  12.741
93820SOL    HW283358   4.437  11.232  12.794
93821SOL     OW83359  10.046   2.445   0.696
93821SOL    HW183360  10.136   2.476   0.708
93821SOL    HW283361   9.993   2.506   0.747
93822SOL     OW83362   8.179  10.405  10.245
93822SOL    HW183363   8.248  10.364  10.193
93822SOL    HW283364   8.180  10.358  10.328
93823SOL     OW83365   9.323  14.407  13.966
93823SOL    HW183366   9.291  14.478  14.021
93823SOL    HW283367   9.401  14.375  14.011
93824SOL     OW83368   2.836   6.864  11.607
93824SOL    HW183369   2.903   6.920  11.568
93824SOL    HW283370   2.763   6.924  11.626
93825SOL     OW83371   0.334   0.424   8.300
93825SOL    HW183372   0.252   0.376   8.314
93825SOL    HW283373   0.360   0.403   8.211
93826SOL     OW83374   4.004   9.065   5.319
93826SOL    HW183375   3.922   9.100   5.286
93826SOL    HW283376   3.979   9.012   5.395
93827SOL     OW83377  10.170   2.272   4.767
93827SOL    HW183378  10.256   2.279   4.808
93827SOL    HW283379  10.171   2.341   4.700
93828SOL     OW83380  11.995  13.999  11.084
93828SOL    HW183381  11.924  13.993  11.147
93828SOL    HW283382  12.051  14.070  11.116
93829SOL     OW83383   0.764   0.811   6.159
93829SOL    HW183384   0.764   0.837   6.067
93829SOL    HW283385   0.807   0.725   6.159
93830SOL     OW83386   5.364   6.488  13.675
93830SOL    HW183387   5.452   6.523  13.687
93830SOL    HW283388   5.326   6.487  13.763
93831SOL     OW83389  10.096  10.605   1.273
93831SOL    HW183390  10.129  10.695   1.269
93831SOL    HW283391  10.018  10.606   1.218
93832SOL     OW83392   8.583   9.051   3.730
93832SOL    HW183393   8.512   8.987   3.731
93832SOL    HW283394   8.660   9.002   3.701
93833SOL     OW83395   6.274  13.387   0.302
93833SOL    HW183396   6.350  13.362   0.354
93833SOL    HW283397   6.209  13.415   0.366
93834SOL     OW83398  10.731   9.960   7.348
93834SOL    HW183399  10.797  10.027   7.328
93834SOL    HW283400  10.768   9.911   7.421
93835SOL     OW83401   4.803   7.023  11.834
93835SOL    HW183402   4.785   6.989  11.746
93835SOL    HW283403   4.717   7.026  11.876
93836SOL     OW83404  13.119   4.130  11.325
93836SOL    HW183405  13.065   4.144  11.402
93836SOL    HW283406  13.162   4.046  11.340
93837SOL     OW83407   3.925  11.200   3.145
93837SOL    HW183408   3.984  11.261   3.190
93837SOL    HW283409   3.932  11.224   3.052
93838SOL     OW83410   0.531  10.625  11.544
93838SOL    HW183411   0.579  10.605  11.463
93838SOL    HW283412   0.476  10.699  11.522
93839SOL     OW83413  12.682   9.122   9.704
93839SOL    HW183414  12.652   9.064   9.634
93839SOL    HW283415  12.609   9.182   9.718
93840SOL     OW83416   8.352  13.330   1.717
93840SOL    HW183417   8.427  13.387   1.700
93840SOL    HW283418   8.279  13.372   1.671
93841SOL     OW83419  11.109   1.180   6.938
93841SOL    HW183420  11.123   1.211   7.028
93841SOL    HW283421  11.190   1.202   6.893
93842SOL     OW83422   0.436   3.337   7.950
93842SOL    HW183423   0.448   3.387   8.031
93842SOL    HW283424   0.510   3.362   7.895
93843SOL     OW83425   4.645   2.021  10.964
93843SOL    HW183426   4.577   1.972  10.917
93843SOL    HW283427   4.706   1.954  10.995
93844SOL     OW83428  14.782   7.643   3.014
93844SOL    HW183429  14.722   7.718   3.011
93844SOL    HW283430  14.799   7.621   2.923
93845SOL     OW83431  12.694   7.841  13.589
93845SOL    HW183432  12.638   7.840  13.667
93845SOL    HW283433  12.741   7.924  13.595
93846SOL     OW83434   7.876  10.437   4.122
93846SOL    HW183435   7.799  10.411   4.172
93846SOL    HW283436   7.940  10.465   4.188
93847SOL     OW83437  12.753  11.972   7.227
93847SOL    HW183438  12.827  11.966   7.167
93847SOL    HW283439  12.676  11.960   7.171
93848SOL     OW83440   7.782   7.668   8.625
93848SOL    HW183441   7.745   7.602   8.684
93848SOL    HW283442   7.820   7.734   8.683
93849SOL     OW83443   2.251  12.992   0.599
93849SOL    HW183444   2.238  13.086   0.586
93849SOL    HW283445   2.347  12.981   0.598
93850SOL     OW83446  13.349   3.748   6.717
93850SOL    HW183447  13.440   3.762   6.692
93850SOL    HW283448  13.353   3.685   6.789
93851SOL     OW83449  10.779   2.957   2.066
93851SOL    HW183450  10.870   2.949   2.094
93851SOL    HW283451  10.772   3.046   2.033
93852SOL     OW83452   4.412  10.485  10.067
93852SOL    HW183453   4.346  10.493   9.998
93852SOL    HW283454   4.492  10.460  10.021
93853SOL     OW83455   0.873   2.835   8.178
93853SOL    HW183456   0.801   2.834   8.114
93853SOL    HW283457   0.930   2.764   8.150
93854SOL     OW83458  13.302  14.802  13.197
93854SOL    HW183459  13.276  14.710  13.209
93854SOL    HW283460  13.339  14.804  13.109
93855SOL     OW83461   7.303   2.487   1.215
93855SOL    HW183462   7.218   2.494   1.170
93855SOL    HW283463   7.367   2.505   1.146
93856SOL     OW83464   0.379   2.691  14.827
93856SOL    HW183465   0.307   2.730  14.877
93856SOL    HW283466   0.373   2.597  14.845
93857SOL     OW83467   0.770   6.785  10.262
93857SOL    HW183468   0.762   6.743  10.176
93857SOL    HW283469   0.701   6.851  10.263
93858SOL     OW83470  14.616  14.226   6.107
93858SOL    HW183471  14.593  14.133   6.111
93858SOL    HW283472  14.711  14.226   6.098
93859SOL     OW83473  13.605   5.649   3.749
93859SOL    HW183474  13.597   5.737   3.786
93859SOL    HW283475  13.585   5.660   3.656
93860SOL     OW83476   3.715  12.270   4.090
93860SOL    HW183477   3.683  12.247   4.003
93860SOL    HW283478   3.780  12.203   4.111
93861SOL     OW83479   8.987  13.694   7.095
93861SOL    HW183480   9.039  13.650   7.163
93861SOL    HW283481   8.988  13.633   7.022
93862SOL     OW83482  10.740  11.705   9.990
93862SOL    HW183483  10.747  11.699   9.895
93862SOL    HW283484  10.828  11.729  10.019
93863SOL     OW83485  12.692   5.456  10.832
93863SOL    HW183486  12.701   5.369  10.792
93863SOL    HW283487  12.600   5.460  10.858
93864SOL     OW83488  11.121  13.066   8.232
93864SOL    HW183489  11.171  13.128   8.178
93864SOL    HW283490  11.050  13.037   8.176
93865SOL     OW83491   1.318  14.134   8.258
93865SOL    HW183492   1.360  14.063   8.209
93865SOL    HW283493   1.385  14.164   8.320
93866SOL     OW83494   7.623   4.304  13.634
93866SOL    HW183495   7.600   4.254  13.556
93866SOL    HW283496   7.593   4.393  13.616
93867SOL     OW83497  12.852   0.392   9.544
93867SOL    HW183498  12.877   0.365   9.632
93867SOL    HW283499  12.765   0.355   9.531
93868SOL     OW83500  13.932   9.748   1.285
93868SOL    HW183501  13.990   9.787   1.350
93868SOL    HW283502  13.928   9.813   1.215
93869SOL     OW83503   3.218  14.058  12.611
93869SOL    HW183504   3.266  14.139  12.628
93869SOL    HW283505   3.134  14.088  12.574
93870SOL     OW83506  10.264  13.933   5.954
93870SOL    HW183507  10.257  13.838   5.953
93870SOL    HW283508  10.175  13.964   5.935
93871SOL     OW83509  10.103  14.748   5.500
93871SOL    HW183510  10.068  14.713   5.418
93871SOL    HW283511  10.039  14.723   5.567
93872SOL     OW83512  13.150  12.851   2.436
93872SOL    HW183513  13.227  12.871   2.383
93872SOL    HW283514  13.185  12.840   2.524
93873SOL     OW83515  14.769   7.110  10.279
93873SOL    HW183516  14.826   7.075  10.348
93873SOL    HW283517  14.809   7.193  10.254
93874SOL     OW83518   2.594   7.066  11.593
93874SOL    HW183519   2.609   7.092  11.502
93874SOL    HW283520   2.517   7.009  11.589
93875SOL     OW83521  13.561  11.579   9.460
93875SOL    HW183522  13.587  11.670   9.474
93875SOL    HW283523  13.597  11.532   9.535
93876SOL     OW83524   2.511   3.448   8.600
93876SOL    HW183525   2.422   3.480   8.610
93876SOL    HW283526   2.563   3.503   8.660
93877SOL     OW83527  10.494   6.797   5.781
93877SOL    HW183528  10.449   6.770   5.862
93877SOL    HW283529  10.437   6.864   5.744
93878SOL     OW83530   9.646   7.377   2.917
93878SOL    HW183531   9.597   7.312   2.867
93878SOL    HW283532   9.584   7.409   2.982
93879SOL     OW83533   5.728  13.451   5.854
93879SOL    HW183534   5.664  13.510   5.894
93879SOL    HW283535   5.807  13.462   5.906
93880SOL     OW83536  11.841   7.303   6.911
93880SOL    HW183537  11.762   7.336   6.953
93880SOL    HW283538  11.818   7.298   6.818
93881SOL     OW83539   4.338   7.291  11.222
93881SOL    HW183540   4.364   7.381  11.239
93881SOL    HW283541   4.363   7.276  11.131
93882SOL     OW83542   6.817   1.560   8.949
93882SOL    HW183543   6.760   1.525   9.017
93882SOL    HW283544   6.880   1.490   8.931
93883SOL     OW83545   8.923   0.532   3.596
93883SOL    HW183546   8.999   0.507   3.542
93883SOL    HW283547   8.851   0.540   3.534
93884SOL     OW83548  12.603   5.493   8.543
93884SOL    HW183549  12.536   5.459   8.602
93884SOL    HW283550  12.624   5.580   8.578
93885SOL     OW83551   2.702   8.734   6.525
93885SOL    HW183552   2.650   8.783   6.589
93885SOL    HW283553   2.772   8.694   6.576
93886SOL     OW83554   4.923   8.575   6.306
93886SOL    HW183555   5.009   8.561   6.267
93886SOL    HW283556   4.914   8.504   6.370
93887SOL     OW83557   0.121   8.501  11.188
93887SOL    HW183558   0.124   8.563  11.115
93887SOL    HW283559   0.151   8.552  11.263
93888SOL     OW83560  13.598  10.161   0.028
93888SOL    HW183561  13.660  10.156  14.833
93888SOL    HW283562  13.633  10.099   0.093
93889SOL     OW83563   1.411   4.915   4.146
93889SOL    HW183564   1.361   4.995   4.154
93889SOL    HW283565   1.426   4.905   4.052
93890SOL     OW83566  10.484  13.184   1.465
93890SOL    HW183567  10.469  13.090   1.462
93890SOL    HW283568  10.472  13.208   1.557
93891SOL     OW83569  10.096   1.731   0.882
93891SOL    HW183570  10.137   1.815   0.860
93891SOL    HW283571  10.124   1.713   0.972
93892SOL     OW83572  11.695  10.114   7.295
93892SOL    HW183573  11.758  10.102   7.366
93892SOL    HW283574  11.748  10.114   7.215
93893SOL     OW83575   8.440   4.736  11.160
93893SOL    HW183576   8.378   4.794  11.203
93893SOL    HW283577   8.526   4.765  11.192
93894SOL     OW83578   6.450   3.035   2.328
93894SOL    HW183579   6.433   2.948   2.365
93894SOL    HW283580   6.368   3.060   2.286
93895SOL     OW83581  14.219   6.622   2.731
93895SOL    HW183582  14.173   6.637   2.814
93895SOL    HW283583  14.163   6.662   2.665
93896SOL     OW83584  12.288   9.067   3.173
93896SOL    HW183585  12.381   9.060   3.152
93896SOL    HW283586  12.244   9.021   3.102
93897SOL     OW83587   4.757  14.510   7.148
93897SOL    HW183588   4.818  14.556   7.206
93897SOL    HW283589   4.793  14.421   7.141
93898SOL     OW83590   2.846  13.145  11.733
93898SOL    HW183591   2.837  13.237  11.759
93898SOL    HW283592   2.907  13.108  11.796
93899SOL     OW83593  10.724   7.828  14.712
93899SOL    HW183594  10.696   7.904  14.661
93899SOL    HW283595  10.663   7.759  14.686
93900SOL     OW83596   0.933   9.591   9.070
93900SOL    HW183597   0.906   9.499   9.073
93900SOL    HW283598   1.024   9.590   9.099
93901SOL     OW83599  11.182   1.227   5.161
93901SOL    HW183600  11.144   1.203   5.246
93901SOL    HW283601  11.256   1.284   5.183
93902SOL     OW83602   3.299  13.453   3.052
93902SOL    HW183603   3.224  13.451   3.113
93902SOL    HW283604   3.276  13.389   2.985
93903SOL     OW83605   8.335   9.188   5.566
93903SOL    HW183606   8.242   9.183   5.543
93903SOL    HW283607   8.377   9.122   5.512
93904SOL     OW83608   7.298  14.419   2.502
93904SOL    HW183609   7.325  14.335   2.464
93904SOL    HW283610   7.354  14.484   2.460
93905SOL     OW83611  10.845   8.299  13.134
93905SOL    HW183612  10.803   8.365  13.079
93905SOL    HW283613  10.774   8.260  13.184
93906SOL     OW83614  12.029   0.713   8.593
93906SOL    HW183615  12.035   0.748   8.504
93906SOL    HW283616  11.936   0.695   8.606
93907SOL     OW83617   1.330   3.672   8.488
93907SOL    HW183618   1.295   3.595   8.442
93907SOL    HW283619   1.322   3.743   8.424
93908SOL     OW83620  12.255   8.070  10.490
93908SOL    HW183621  12.228   8.038  10.576
93908SOL    HW283622  12.346   8.041  10.481
93909SOL     OW83623  11.001   7.356   3.043
93909SOL    HW183624  11.007   7.264   3.019
93909SOL    HW283625  11.004   7.402   2.959
93910SOL     OW83626   5.635   1.847  12.027
93910SOL    HW183627   5.635   1.943  12.018
93910SOL    HW283628   5.666   1.831  12.116
93911SOL     OW83629   9.970   6.085  13.305
93911SOL    HW183630   9.952   6.050  13.218
93911SOL    HW283631   9.935   6.020  13.365
93912SOL     OW83632  13.741   2.962  12.877
93912SOL    HW183633  13.746   2.867  12.874
93912SOL    HW283634  13.814   2.992  12.823
93913SOL     OW83635   8.487   5.986  10.385
93913SOL    HW183636   8.470   5.937  10.305
93913SOL    HW283637   8.418   5.958  10.446
93914SOL     OW83638  10.109   3.949  13.508
93914SOL    HW183639  10.017   3.970  13.527
93914SOL    HW283640  10.143   4.027  13.465
93915SOL     OW83641   9.436   6.148   7.131
93915SOL    HW183642   9.393   6.072   7.091
93915SOL    HW283643   9.407   6.222   7.078
93916SOL     OW83644   9.674  12.835   4.696
93916SOL    HW183645   9.713  12.762   4.745
93916SOL    HW283646   9.656  12.799   4.610
93917SOL     OW83647   7.054   2.403   5.471
93917SOL    HW183648   7.026   2.479   5.521
93917SOL    HW283649   7.117   2.358   5.527
93918SOL     OW83650   6.698  11.892   2.479
93918SOL    HW183651   6.767  11.914   2.416
93918SOL    HW283652   6.622  11.941   2.449
93919SOL     OW83653   9.595   1.964   5.045
93919SOL    HW183654   9.598   2.035   4.981
93919SOL    HW283655   9.640   1.999   5.122
93920SOL     OW83656   0.777  11.548   5.725
93920SOL    HW183657   0.714  11.483   5.692
93920SOL    HW283658   0.725  11.628   5.736
93921SOL     OW83659   2.907   0.166   9.479
93921SOL    HW183660   2.866   0.246   9.512
93921SOL    HW283661   2.845   0.097   9.501
93922SOL     OW83662  14.451   7.267  12.776
93922SOL    HW183663  14.386   7.204  12.807
93922SOL    HW283664  14.522   7.213  12.741
93923SOL     OW83665   5.235   6.304   4.993
93923SOL    HW183666   5.232   6.392   5.029
93923SOL    HW283667   5.146   6.269   5.007
93924SOL     OW83668   4.964   7.473   1.750
93924SOL    HW183669   5.016   7.393   1.737
93924SOL    HW283670   4.880   7.441   1.785
93925SOL     OW83671   9.677   7.140  12.253
93925SOL    HW183672   9.613   7.209  12.238
93925SOL    HW283673   9.641   7.089  12.326
93926SOL     OW83674   5.489   0.072   0.462
93926SOL    HW183675   5.394   0.075   0.451
93926SOL    HW283676   5.502   0.074   0.556
93927SOL     OW83677   1.526  14.860   2.708
93927SOL    HW183678   1.471  14.853   2.786
93927SOL    HW283679   1.469  14.831   2.636
93928SOL     OW83680  12.849   2.006   6.861
93928SOL    HW183681  12.784   1.962   6.807
93928SOL    HW283682  12.842   2.098   6.836
93929SOL     OW83683   5.104   8.748  10.373
93929SOL    HW183684   5.091   8.830  10.421
93929SOL    HW283685   5.128   8.774  10.285
93930SOL     OW83686   4.225   1.306   0.562
93930SOL    HW183687   4.165   1.345   0.499
93930SOL    HW283688   4.287   1.255   0.509
93931SOL     OW83689   9.688   2.850  13.751
93931SOL    HW183690   9.736   2.816  13.675
93931SOL    HW283691   9.750   2.908  13.795
93932SOL     OW83692   3.656   8.670   2.609
93932SOL    HW183693   3.578   8.627   2.575
93932SOL    HW283694   3.622   8.736   2.670
93933SOL     OW83695   3.874   1.553   1.954
93933SOL    HW183696   3.896   1.636   1.912
93933SOL    HW283697   3.785   1.534   1.925
93934SOL     OW83698  10.262   9.974   7.490
93934SOL    HW183699  10.204   9.918   7.440
93934SOL    HW283700  10.339   9.985   7.435
93935SOL     OW83701  10.529   6.878   3.431
93935SOL    HW183702  10.599   6.817   3.456
93935SOL    HW283703  10.456   6.855   3.487
93936SOL     OW83704  12.088   2.555   5.773
93936SOL    HW183705  12.021   2.535   5.837
93936SOL    HW283706  12.154   2.606   5.821
93937SOL     OW83707   8.370  14.405  10.509
93937SOL    HW183708   8.361  14.411  10.604
93937SOL    HW283709   8.450  14.355  10.495
93938SOL     OW83710   1.829  13.248   5.985
93938SOL    HW183711   1.916  13.222   6.015
93938SOL    HW283712   1.769  13.191   6.033
93939SOL     OW83713  11.481  14.018  10.311
93939SOL    HW183714  11.402  14.041  10.361
93939SOL    HW283715  11.517  14.102  10.283
93940SOL     OW83716   4.641   5.259  12.001
93940SOL    HW183717   4.735   5.254  11.987
93940SOL    HW283718   4.631   5.268  12.095
93941SOL     OW83719  13.513   5.899   0.187
93941SOL    HW183720  13.544   5.884   0.097
93941SOL    HW283721  13.524   5.993   0.201
93942SOL     OW83722   6.851   8.387  12.388
93942SOL    HW183723   6.924   8.447  12.371
93942SOL    HW283724   6.852   8.326  12.314
93943SOL     OW83725  11.083   8.669   8.508
93943SOL    HW183726  11.092   8.653   8.414
93943SOL    HW283727  11.004   8.620   8.533
93944SOL     OW83728   9.986   9.868   0.518
93944SOL    HW183729   9.946   9.801   0.463
93944SOL    HW283730  10.012   9.937   0.457
93945SOL     OW83731  11.942   4.119   6.817
93945SOL    HW183732  11.881   4.151   6.750
93945SOL    HW283733  11.886   4.083   6.886
93946SOL     OW83734   0.859  10.573  10.329
93946SOL    HW183735   0.930  10.607  10.276
93946SOL    HW283736   0.866  10.619  10.413
93947SOL     OW83737  12.929  13.446  12.239
93947SOL    HW183738  12.930  13.539  12.258
93947SOL    HW283739  12.967  13.438  12.152
93948SOL     OW83740  10.159  11.376   2.352
93948SOL    HW183741  10.085  11.410   2.302
93948SOL    HW283742  10.131  11.289   2.379
93949SOL     OW83743  14.511   0.109   0.839
93949SOL    HW183744  14.428   0.076   0.803
93949SOL    HW283745  14.563   0.131   0.761
93950SOL     OW83746   9.331  12.960  11.289
93950SOL    HW183747   9.360  12.934  11.376
93950SOL    HW283748   9.299  12.879  11.249
93951SOL     OW83749   4.831  10.276   5.888
93951SOL    HW183750   4.904  10.223   5.855
93951SOL    HW283751   4.753  10.223   5.870
93952SOL     OW83752  13.429   6.681  12.931
93952SOL    HW183753  13.339   6.678  12.898
93952SOL    HW283754  13.431   6.615  13.001
93953SOL     OW83755   9.305   2.427   2.819
93953SOL    HW183756   9.281   2.519   2.806
93953SOL    HW283757   9.225   2.384   2.847
93954SOL     OW83758   2.601  11.638   3.943
93954SOL    HW183759   2.675  11.691   3.914
93954SOL    HW283760   2.615  11.553   3.902
93955SOL     OW83761   3.042   6.833  13.651
93955SOL    HW183762   3.104   6.811  13.582
93955SOL    HW283763   3.018   6.924  13.633
93956SOL     OW83764  14.517   3.939   8.581
93956SOL    HW183765  14.613   3.947   8.585
93956SOL    HW283766  14.495   3.886   8.658
93957SOL     OW83767   8.384   1.509   4.681
93957SOL    HW183768   8.471   1.534   4.648
93957SOL    HW283769   8.370   1.566   4.757
93958SOL     OW83770   8.159   6.487   1.633
93958SOL    HW183771   8.197   6.570   1.606
93958SOL    HW283772   8.139   6.498   1.725
93959SOL     OW83773   9.802  13.257   3.031
93959SOL    HW183774   9.781  13.318   2.960
93959SOL    HW283775   9.896  13.268   3.044
93960SOL     OW83776  13.633   7.198   9.068
93960SOL    HW183777  13.666   7.244   8.991
93960SOL    HW283778  13.657   7.254   9.142
93961SOL     OW83779   5.766   2.281   8.950
93961SOL    HW183780   5.714   2.303   8.873
93961SOL    HW283781   5.743   2.190   8.969
93962SOL     OW83782   1.862  12.935  11.775
93962SOL    HW183783   1.913  12.932  11.694
93962SOL    HW283784   1.887  12.856  11.823
93963SOL     OW83785  11.386  11.602   4.611
93963SOL    HW183786  11.326  11.603   4.536
93963SOL    HW283787  11.333  11.569   4.684
93964SOL     OW83788  14.791  11.374   4.500
93964SOL    HW183789  14.787  11.353   4.406
93964SOL    HW283790  14.713  11.334   4.537
93965SOL     OW83791   3.308  12.239  11.600
93965SOL    HW183792   3.214  12.238  11.615
93965SOL    HW283793   3.333  12.331  11.605
93966SOL     OW83794   1.968  12.362   0.707
93966SOL    HW183795   1.962  12.455   0.686
93966SOL    HW283796   1.952  12.357   0.801
93967SOL     OW83797   0.863   7.358   6.882
93967SOL    HW183798   0.894   7.445   6.861
93967SOL    HW283799   0.809   7.369   6.961
93968SOL     OW83800   4.635  12.058   2.645
93968SOL    HW183801   4.700  12.126   2.661
93968SOL    HW283802   4.572  12.067   2.717
93969SOL     OW83803  10.077   6.727   9.825
93969SOL    HW183804  10.055   6.733   9.918
93969SOL    HW283805  10.165   6.688   9.824
93970SOL     OW83806  14.685   3.633   3.169
93970SOL    HW183807  14.596   3.618   3.137
93970SOL    HW283808  14.675   3.700   3.237
93971SOL     OW83809   5.950  10.863   1.781
93971SOL    HW183810   5.866  10.907   1.770
93971SOL    HW283811   5.985  10.856   1.692
93972SOL     OW83812   1.853   3.965   9.022
93972SOL    HW183813   1.781   3.992   8.964
93972SOL    HW283814   1.823   3.990   9.110
93973SOL     OW83815   6.214   0.908   1.021
93973SOL    HW183816   6.154   0.843   0.984
93973SOL    HW283817   6.295   0.896   0.971
93974SOL     OW83818  14.841   0.006   9.437
93974SOL    HW183819  14.869  14.813   9.496
93974SOL    HW283820   0.007   0.084   9.470
93975SOL     OW83821  11.375  10.445   6.147
93975SOL    HW183822  11.322  10.525   6.148
93975SOL    HW283823  11.455  10.470   6.100
93976SOL     OW83824   8.156   8.656  12.995
93976SOL    HW183825   8.061   8.664  13.004
93976SOL    HW283826   8.176   8.699  12.912
93977SOL     OW83827   2.534   9.981   9.518
93977SOL    HW183828   2.579  10.054   9.559
93977SOL    HW283829   2.578   9.971   9.433
93978SOL     OW83830   3.023   2.427   6.833
93978SOL    HW183831   3.072   2.414   6.914
93978SOL    HW283832   3.078   2.386   6.765
93979SOL     OW83833  10.762   7.841   8.164
93979SOL    HW183834  10.799   7.781   8.229
93979SOL    HW283835  10.728   7.914   8.215
93980SOL     OW83836   2.453  13.786   8.304
93980SOL    HW183837   2.451  13.873   8.344
93980SOL    HW283838   2.546  13.769   8.288
93981SOL     OW83839   2.426   9.565  13.696
93981SOL    HW183840   2.398   9.651  13.665
93981SOL    HW283841   2.483   9.583  13.770
93982SOL     OW83842  10.512   3.890   6.796
93982SOL    HW183843  10.441   3.895   6.860
93982SOL    HW283844  10.583   3.845   6.843
93983SOL     OW83845  10.556   4.685   5.928
93983SOL    HW183846  10.633   4.643   5.890
93983SOL    HW283847  10.583   4.709   6.017
93984SOL     OW83848   4.629   6.479  13.061
93984SOL    HW183849   4.703   6.538  13.072
93984SOL    HW283850   4.605   6.486  12.969
93985SOL     OW83851   9.117   2.807  14.206
93985SOL    HW183852   9.199   2.852  14.227
93985SOL    HW283853   9.142   2.742  14.140
93986SOL     OW83854  14.250  14.527   4.995
93986SOL    HW183855  14.179  14.586   4.967
93986SOL    HW283856  14.268  14.472   4.919
93987SOL     OW83857   6.236  13.866   7.031
93987SOL    HW183858   6.273  13.872   6.943
93987SOL    HW283859   6.240  13.955   7.066
93988SOL     OW83860  14.437   1.797  10.674
93988SOL    HW183861  14.347   1.775  10.650
93988SOL    HW283862  14.451   1.753  10.758
93989SOL     OW83863   0.979   5.456   9.669
93989SOL    HW183864   0.965   5.545   9.636
93989SOL    HW283865   0.958   5.400   9.594
93990SOL     OW83866  13.070  13.336   9.529
93990SOL    HW183867  13.164  13.317   9.519
93990SOL    HW283868  13.054  13.328   9.623
93991SOL     OW83869   2.392   3.975   4.149
93991SOL    HW183870   2.348   3.994   4.232
93991SOL    HW283871   2.341   3.904   4.111
93992SOL     OW83872   9.108   7.254  13.125
93992SOL    HW183873   9.178   7.281  13.185
93992SOL    HW283874   9.078   7.170  13.160
93993SOL     OW83875  13.429   9.157   0.149
93993SOL    HW183876  13.499   9.112   0.196
93993SOL    HW283877  13.430   9.118   0.061
93994SOL     OW83878   1.518  11.954  10.296
93994SOL    HW183879   1.451  12.021  10.285
93994SOL    HW283880   1.580  11.970  10.225
93995SOL     OW83881   1.536  13.193   7.790
93995SOL    HW183882   1.592  13.254   7.743
93995SOL    HW283883   1.448  13.229   7.780
93996SOL     OW83884   3.258   0.783   2.136
93996SOL    HW183885   3.289   0.729   2.063
93996SOL    HW283886   3.275   0.730   2.214
93997SOL     OW83887  11.088   6.560   5.460
93997SOL    HW183888  11.090   6.644   5.414
93997SOL    HW283889  11.034   6.503   5.405
93998SOL     OW83890  14.039   5.032   3.810
93998SOL    HW183891  13.996   4.997   3.732
93998SOL    HW283892  13.999   5.118   3.824
93999SOL     OW83893  13.344   4.785   4.815
93999SOL    HW183894  13.328   4.745   4.729
93999SOL    HW283895  13.433   4.757   4.838
94000SOL     OW83896   9.348  12.470   0.767
94000SOL    HW183897   9.375  12.510   0.684
94000SOL    HW283898   9.414  12.499   0.830
94001SOL     OW83899   5.423  11.777   4.045
94001SOL    HW183900   5.405  11.862   4.005
94001SOL    HW283901   5.517  11.764   4.033
94002SOL     OW83902   0.012   0.134   7.568
94002SOL    HW183903   0.079   0.195   7.538
94002SOL    HW283904  14.813   0.154   7.513
94003SOL     OW83905  13.543  11.679   5.829
94003SOL    HW183906  13.448  11.672   5.839
94003SOL    HW283907  13.556  11.714   5.741
94004SOL     OW83908   5.662  13.227   4.174
94004SOL    HW183909   5.608  13.148   4.170
94004SOL    HW283910   5.599  13.298   4.190
94005SOL     OW83911   7.284  11.081   1.485
94005SOL    HW183912   7.286  11.115   1.574
94005SOL    HW283913   7.276  10.986   1.495
94006SOL     OW83914   2.835   4.133  12.225
94006SOL    HW183915   2.878   4.119  12.309
94006SOL    HW283916   2.744   4.105  12.240
94007SOL     OW83917   7.005  13.674   7.686
94007SOL    HW183918   7.098  13.692   7.676
94007SOL    HW283919   6.966  13.705   7.603
94008SOL     OW83920   1.025   7.070   5.318
94008SOL    HW183921   0.933   7.047   5.311
94008SOL    HW283922   1.060   7.057   5.229
94009SOL     OW83923  11.453  11.370  11.722
94009SOL    HW183924  11.487  11.439  11.664
94009SOL    HW283925  11.517  11.299  11.715
94010SOL     OW83926  12.318  10.947   5.654
94010SOL    HW183927  12.376  10.947   5.578
94010SOL    HW283928  12.368  10.904   5.723
94011SOL     OW83929   9.426   3.492  10.985
94011SOL    HW183930   9.478   3.413  10.973
94011SOL    HW283931   9.386   3.508  10.900
94012SOL     OW83932  11.709  12.312  10.714
94012SOL    HW183933  11.645  12.262  10.763
94012SOL    HW283934  11.721  12.263  10.633
94013SOL     OW83935   6.198   0.782   7.343
94013SOL    HW183936   6.286   0.802   7.309
94013SOL    HW283937   6.205   0.693   7.377
94014SOL     OW83938   7.994   2.700   9.985
94014SOL    HW183939   8.014   2.783  10.027
94014SOL    HW283940   7.908   2.676  10.020
94015SOL     OW83941   0.287   3.116   7.474
94015SOL    HW183942   0.297   3.210   7.487
94015SOL    HW283943   0.200   3.096   7.509
94016SOL     OW83944  13.843  12.375   5.589
94016SOL    HW183945  13.748  12.368   5.585
94016SOL    HW283946  13.864  12.353   5.680
94017SOL     OW83947  12.122   4.392   8.935
94017SOL    HW183948  12.151   4.480   8.959
94017SOL    HW283949  12.170   4.334   8.994
94018SOL     OW83950   2.784   3.456   3.630
94018SOL    HW183951   2.869   3.490   3.602
94018SOL    HW283952   2.759   3.394   3.561
94019SOL     OW83953   5.486   7.827   2.162
94019SOL    HW183954   5.453   7.915   2.140
94019SOL    HW283955   5.490   7.826   2.257
94020SOL     OW83956   2.997   0.641  10.652
94020SOL    HW183957   3.048   0.560  10.661
94020SOL    HW283958   3.001   0.681  10.739
94021SOL     OW83959   9.496   5.397   1.690
94021SOL    HW183960   9.584   5.390   1.652
94021SOL    HW283961   9.480   5.491   1.696
94022SOL     OW83962   6.103   9.267  13.524
94022SOL    HW183963   6.189   9.254  13.565
94022SOL    HW283964   6.121   9.326  13.450
94023SOL     OW83965   8.407  10.868   1.129
94023SOL    HW183966   8.418  10.946   1.075
94023SOL    HW283967   8.391  10.903   1.217
94024SOL     OW83968   2.504   4.637   7.852
94024SOL    HW183969   2.493   4.697   7.778
94024SOL    HW283970   2.456   4.558   7.826
94025SOL     OW83971  14.196  13.127  14.359
94025SOL    HW183972  14.145  13.163  14.432
94025SOL    HW283973  14.144  13.148  14.281
94026SOL     OW83974   6.472   7.591   3.207
94026SOL    HW183975   6.513   7.642   3.276
94026SOL    HW283976   6.536   7.591   3.136
94027SOL     OW83977   3.041   9.052  12.541
94027SOL    HW183978   3.007   8.962  12.550
94027SOL    HW283979   3.041   9.086  12.630
94028SOL     OW83980  13.930   2.384  10.659
94028SOL    HW183981  13.999   2.411  10.597
94028SOL    HW283982  13.922   2.290  10.646
94029SOL     OW83983   3.796   3.355   3.187
94029SOL    HW183984   3.850   3.291   3.141
94029SOL    HW283985   3.727   3.377   3.124
94030SOL     OW83986  13.688   4.510   2.736
94030SOL    HW183987  13.672   4.604   2.743
94030SOL    HW283988  13.681   4.492   2.642
94031SOL     OW83989  12.141  12.740   0.346
94031SOL    HW183990  12.069  12.799   0.324
94031SOL    HW283991  12.212  12.765   0.287
94032SOL     OW83992   1.659   9.186   5.472
94032SOL    HW183993   1.606   9.265   5.461
94032SOL    HW283994   1.606   9.130   5.529
94033SOL     OW83995  13.011   0.503   1.816
94033SOL    HW183996  13.103   0.528   1.824
94033SOL    HW283997  12.975   0.564   1.751
94034SOL     OW83998   0.698  10.254   2.724
94034SOL    HW183999   0.641  10.248   2.801
94034SOL    HW284000   0.787  10.252   2.760
94035SOL     OW84001  11.538   2.330   4.348
94035SOL    HW184002  11.578   2.243   4.341
94035SOL    HW284003  11.612   2.390   4.349
94036SOL     OW84004   8.510  11.702   3.184
94036SOL    HW184005   8.455  11.666   3.254
94036SOL    HW284006   8.593  11.656   3.193
94037SOL     OW84007  10.317  12.371  11.142
94037SOL    HW184008  10.266  12.438  11.097
94037SOL    HW284009  10.362  12.324  11.072
94038SOL     OW84010   3.082  13.091   7.789
94038SOL    HW184011   3.095  12.998   7.768
94038SOL    HW284012   3.006  13.092   7.848
94039SOL     OW84013  10.600   2.211   7.229
94039SOL    HW184014  10.602   2.209   7.325
94039SOL    HW284015  10.572   2.123   7.204
94040SOL     OW84016  12.114  10.439  10.396
94040SOL    HW184017  12.085  10.490  10.472
94040SOL    HW284018  12.043  10.378  10.380
94041SOL     OW84019   2.233   4.601   8.939
94041SOL    HW184020   2.261   4.554   9.017
94041SOL    HW284021   2.256   4.692   8.956
94042SOL     OW84022   8.694   6.117   3.644
94042SOL    HW184023   8.637   6.194   3.645
94042SOL    HW284024   8.765   6.141   3.585
94043SOL     OW84025  14.051   9.874   3.776
94043SOL    HW184026  14.139   9.905   3.798
94043SOL    HW284027  14.057   9.851   3.683
94044SOL     OW84028  12.711   7.621   7.719
94044SOL    HW184029  12.665   7.610   7.802
94044SOL    HW284030  12.723   7.531   7.687
94045SOL     OW84031  14.456   6.252   9.631
94045SOL    HW184032  14.432   6.208   9.549
94045SOL    HW284033  14.382   6.310   9.649
94046SOL     OW84034   3.274   2.360   9.508
94046SOL    HW184035   3.230   2.433   9.466
94046SOL    HW284036   3.367   2.373   9.488
94047SOL     OW84037  13.231   3.081  12.354
94047SOL    HW184038  13.221   3.167  12.312
94047SOL    HW284039  13.306   3.041  12.310
94048SOL     OW84040   4.841  12.821  12.133
94048SOL    HW184041   4.856  12.728  12.113
94048SOL    HW284042   4.888  12.835  12.216
94049SOL     OW84043  14.065   7.511   8.412
94049SOL    HW184044  14.081   7.504   8.318
94049SOL    HW284045  13.973   7.539   8.418
94050SOL     OW84046   2.775   5.926   0.581
94050SOL    HW184047   2.839   5.863   0.614
94050SOL    HW284048   2.794   6.006   0.630
94051SOL     OW84049   4.071   0.869   3.406
94051SOL    HW184050   4.067   0.956   3.444
94051SOL    HW284051   4.133   0.821   3.461
94052SOL     OW84052  12.256   4.808   7.470
94052SOL    HW184053  12.262   4.899   7.499
94052SOL    HW284054  12.164   4.796   7.448
94053SOL     OW84055   4.722   7.439   3.262
94053SOL    HW184056   4.653   7.379   3.290
94053SOL    HW284057   4.749   7.484   3.341
94054SOL     OW84058   4.427   1.526   2.089
94054SOL    HW184059   4.421   1.457   2.155
94054SOL    HW284060   4.491   1.588   2.126
94055SOL     OW84061   2.563   2.514   7.035
94055SOL    HW184062   2.472   2.512   7.005
94055SOL    HW284063   2.605   2.441   6.989
94056SOL     OW84064  10.853   9.770  10.103
94056SOL    HW184065  10.847   9.865  10.105
94056SOL    HW284066  10.802   9.741  10.178
94057SOL     OW84067   8.867  12.893  13.685
94057SOL    HW184068   8.951  12.930  13.657
94057SOL    HW284069   8.829  12.960  13.742
94058SOL     OW84070   8.131   5.397   8.167
94058SOL    HW184071   8.147   5.434   8.080
94058SOL    HW284072   8.035   5.396   8.175
94059SOL     OW84073   3.317  14.055   9.764
94059SOL    HW184074   3.329  14.138   9.809
94059SOL    HW284075   3.403  14.014   9.764
94060SOL     OW84076  11.960   8.744   8.893
94060SOL    HW184077  11.991   8.782   8.976
94060SOL    HW284078  12.036   8.752   8.834
94061SOL     OW84079  14.180  10.135  12.600
94061SOL    HW184080  14.266  10.113  12.563
94061SOL    HW284081  14.198  10.204  12.663
94062SOL     OW84082   9.191  10.551  12.832
94062SOL    HW184083   9.109  10.503  12.822
94062SOL    HW284084   9.202  10.562  12.926
94063SOL     OW84085  13.588  12.224  10.532
94063SOL    HW184086  13.646  12.299  10.520
94063SOL    HW284087  13.646  12.151  10.555
94064SOL     OW84088   8.498   8.956   2.658
94064SOL    HW184089   8.518   8.870   2.622
94064SOL    HW284090   8.568   9.013   2.627
94065SOL     OW84091  10.662   9.298   2.917
94065SOL    HW184092  10.568   9.295   2.936
94065SOL    HW284093  10.686   9.207   2.904
94066SOL     OW84094  11.737   2.402   1.585
94066SOL    HW184095  11.767   2.320   1.624
94066SOL    HW284096  11.656   2.378   1.539
94067SOL     OW84097   1.541   1.346  14.777
94067SOL    HW184098   1.539   1.420  14.837
94067SOL    HW284099   1.594   1.280  14.822
94068SOL     OW84100  12.764  12.354   9.869
94068SOL    HW184101  12.748  12.271   9.824
94068SOL    HW284102  12.852  12.379   9.842
94069SOL     OW84103   8.274   2.439  12.011
94069SOL    HW184104   8.202   2.405  12.064
94069SOL    HW284105   8.280   2.531  12.035
94070SOL     OW84106  14.197   0.329   8.139
94070SOL    HW184107  14.186   0.235   8.123
94070SOL    HW284108  14.239   0.334   8.225
94071SOL     OW84109  13.975   9.294   1.299
94071SOL    HW184110  14.070   9.293   1.310
94071SOL    HW284111  13.957   9.370   1.244
94072SOL     OW84112   2.104   9.977  12.766
94072SOL    HW184113   2.177   9.927  12.803
94072SOL    HW284114   2.026   9.939  12.807
94073SOL     OW84115   3.533   3.190  14.638
94073SOL    HW184116   3.598   3.242  14.685
94073SOL    HW284117   3.525   3.235  14.553
94074SOL     OW84118  14.034  12.896  11.580
94074SOL    HW184119  14.127  12.920  11.577
94074SOL    HW284120  14.003  12.931  11.663
94075SOL     OW84121  10.455   5.298   9.845
94075SOL    HW184122  10.505   5.362   9.795
94075SOL    HW284123  10.501   5.292   9.928
94076SOL     OW84124   8.473   1.928   8.358
94076SOL    HW184125   8.494   1.985   8.285
94076SOL    HW284126   8.557   1.893   8.387
94077SOL     OW84127   7.149   4.403   8.744
94077SOL    HW184128   7.069   4.438   8.783
94077SOL    HW284129   7.216   4.417   8.811
94078SOL     OW84130   1.885   6.231   9.705
94078SOL    HW184131   1.830   6.190   9.771
94078SOL    HW284132   1.935   6.159   9.666
94079SOL     OW84133   2.652   5.647  13.834
94079SOL    HW184134   2.689   5.559  13.828
94079SOL    HW284135   2.584   5.640  13.901
94080SOL     OW84136   2.530   1.447   1.854
94080SOL    HW184137   2.461   1.388   1.883
94080SOL    HW284138   2.583   1.462   1.933
94081SOL     OW84139   9.347  12.823  14.408
94081SOL    HW184140   9.336  12.908  14.449
94081SOL    HW284141   9.314  12.760  14.472
94082SOL     OW84142   2.244  10.531   4.850
94082SOL    HW184143   2.237  10.620   4.883
94082SOL    HW284144   2.187  10.529   4.773
94083SOL     OW84145   7.616   3.732   7.909
94083SOL    HW184146   7.679   3.727   7.837
94083SOL    HW284147   7.587   3.824   7.909
94084SOL     OW84148   8.242  10.729   8.654
94084SOL    HW184149   8.198  10.800   8.607
94084SOL    HW284150   8.178  10.699   8.719
94085SOL     OW84151  14.244   3.561   8.718
94085SOL    HW184152  14.178   3.492   8.711
94085SOL    HW284153  14.213   3.629   8.658
94086SOL     OW84154  11.094   0.237   8.559
94086SOL    HW184155  11.125   0.162   8.509
94086SOL    HW284156  11.020   0.271   8.509
94087SOL     OW84157  12.800   9.500   7.419
94087SOL    HW184158  12.866   9.512   7.350
94087SOL    HW284159  12.769   9.410   7.406
94088SOL     OW84160  14.708   4.167   3.424
94088SOL    HW184161  14.784   4.109   3.424
94088SOL    HW284162  14.740   4.249   3.386
94089SOL     OW84163  10.936  13.092  10.680
94089SOL    HW184164  11.005  13.025  10.678
94089SOL    HW284165  10.981  13.173  10.656
94090SOL     OW84166   3.180  11.415   7.346
94090SOL    HW184167   3.153  11.380   7.262
94090SOL    HW284168   3.275  11.423   7.340
94091SOL     OW84169  13.034   4.667   8.331
94091SOL    HW184170  13.097   4.729   8.293
94091SOL    HW284171  12.995   4.714   8.404
94092SOL     OW84172   6.266  12.134   1.971
94092SOL    HW184173   6.225  12.171   2.049
94092SOL    HW284174   6.287  12.044   1.996
94093SOL     OW84175   1.281   1.462   0.725
94093SOL    HW184176   1.305   1.401   0.655
94093SOL    HW284177   1.338   1.440   0.798
94094SOL     OW84178  13.410   8.116   1.881
94094SOL    HW184179  13.417   8.045   1.945
94094SOL    HW284180  13.443   8.193   1.926
94095SOL     OW84181   3.588  11.316   8.225
94095SOL    HW184182   3.644  11.291   8.299
94095SOL    HW284183   3.504  11.272   8.243
94096SOL     OW84184  10.638   1.775   2.791
94096SOL    HW184185  10.548   1.783   2.824
94096SOL    HW284186  10.632   1.713   2.719
94097SOL     OW84187   5.825   9.956  10.400
94097SOL    HW184188   5.773   9.923  10.474
94097SOL    HW284189   5.841  10.048  10.421
94098SOL     OW84190   7.320   1.827   9.404
94098SOL    HW184191   7.249   1.769   9.377
94098SOL    HW284192   7.275   1.903   9.441
94099SOL     OW84193   2.221  13.634   8.336
94099SOL    HW184194   2.270  13.553   8.340
94099SOL    HW284195   2.287  13.703   8.339
94100SOL     OW84196  11.976   3.061  10.272
94100SOL    HW184197  11.931   3.143  10.252
94100SOL    HW284198  12.069   3.083  10.270
94101SOL     OW84199  12.702   3.587  14.355
94101SOL    HW184200  12.668   3.525  14.420
94101SOL    HW284201  12.664   3.671  14.381
94102SOL     OW84202   3.221   6.788   0.261
94102SOL    HW184203   3.138   6.745   0.279
94102SOL    HW284204   3.202   6.881   0.267
94103SOL     OW84205  11.749  11.848   5.704
94103SOL    HW184206  11.734  11.754   5.692
94103SOL    HW284207  11.822  11.852   5.767
94104SOL     OW84208  14.554  11.329   8.786
94104SOL    HW184209  14.561  11.233   8.786
94104SOL    HW284210  14.555  11.354   8.694
94105SOL     OW84211   4.458  13.691   1.584
94105SOL    HW184212   4.454  13.598   1.560
94105SOL    HW284213   4.547  13.704   1.616
94106SOL     OW84214   4.922  11.869  14.826
94106SOL    HW184215   4.915  11.784  14.869
94106SOL    HW284216   4.973  11.922   0.009
94107SOL     OW84217  10.213  10.553   2.326
94107SOL    HW184218  10.144  10.487   2.336
94107SOL    HW284219  10.243  10.571   2.415
94108SOL     OW84220   6.206   1.522   1.196
94108SOL    HW184221   6.236   1.472   1.120
94108SOL    HW284222   6.219   1.462   1.270
94109SOL     OW84223   2.498  10.461   9.985
94109SOL    HW184224   2.567  10.395   9.981
94109SOL    HW284225   2.539  10.540   9.950
94110SOL     OW84226   6.210  11.270  10.386
94110SOL    HW184227   6.185  11.177  10.383
94110SOL    HW284228   6.269  11.277  10.461
94111SOL     OW84229   6.741   5.749  12.512
94111SOL    HW184230   6.770   5.658  12.520
94111SOL    HW284231   6.777   5.792  12.590
94112SOL     OW84232  10.498   7.854   7.939
94112SOL    HW184233  10.415   7.820   7.973
94112SOL    HW284234  10.561   7.838   8.009
94113SOL     OW84235   2.162   5.140   2.498
94113SOL    HW184236   2.112   5.212   2.535
94113SOL    HW284237   2.253   5.169   2.502
94114SOL     OW84238   0.176   5.301   6.476
94114SOL    HW184239   0.144   5.211   6.475
94114SOL    HW284240   0.115   5.347   6.533
94115SOL     OW84241  12.556  11.983  11.733
94115SOL    HW184242  12.597  12.043  11.796
94115SOL    HW284243  12.497  12.039  11.682
94116SOL     OW84244  14.828   9.914   8.366
94116SOL    HW184245  14.843   9.853   8.438
94116SOL    HW284246  14.806   9.997   8.409
94117SOL     OW84247   2.411   2.090   9.657
94117SOL    HW184248   2.374   2.047   9.734
94117SOL    HW284249   2.373   2.043   9.582
94118SOL     OW84250   2.401   7.150   2.359
94118SOL    HW184251   2.379   7.188   2.443
94118SOL    HW284252   2.464   7.081   2.380
94119SOL     OW84253   1.837  14.835  10.643
94119SOL    HW184254   1.911   0.018  10.636
94119SOL    HW284255   1.761   0.015  10.654
94120SOL     OW84256  10.905   6.404  14.097
94120SOL    HW184257  10.943   6.393  14.010
94120SOL    HW284258  10.923   6.495  14.120
94121SOL     OW84259  13.375   6.641  14.500
94121SOL    HW184260  13.291   6.659  14.543
94121SOL    HW284261  13.424   6.723  14.508
94122SOL     OW84262   7.236  13.705  13.837
94122SOL    HW184263   7.159  13.726  13.890
94122SOL    HW284264   7.274  13.790  13.815
94123SOL     OW84265   7.349  13.672   9.853
94123SOL    HW184266   7.357  13.577   9.852
94123SOL    HW284267   7.385  13.698   9.938
94124SOL     OW84268  12.566   2.388   2.248
94124SOL    HW184269  12.660   2.395   2.262
94124SOL    HW284270  12.540   2.473   2.212
94125SOL     OW84271   5.190  14.828  10.527
94125SOL    HW184272   5.177  14.757  10.465
94125SOL    HW284273   5.131  14.808  10.600
94126SOL     OW84274   1.141  12.372   8.640
94126SOL    HW184275   1.209  12.308   8.659
94126SOL    HW284276   1.186  12.457   8.642
94127SOL     OW84277   9.240   4.551   5.786
94127SOL    HW184278   9.212   4.522   5.873
94127SOL    HW284279   9.210   4.482   5.727
94128SOL     OW84280  13.216  10.067   5.017
94128SOL    HW184281  13.167  10.037   4.941
94128SOL    HW284282  13.237  10.158   4.998
94129SOL     OW84283  12.832   6.186  13.256
94129SOL    HW184284  12.744   6.186  13.293
94129SOL    HW284285  12.821   6.157  13.166
94130SOL     OW84286  12.623   5.749  12.616
94130SOL    HW184287  12.564   5.699  12.560
94130SOL    HW284288  12.652   5.822  12.561
94131SOL     OW84289   1.635  11.232   8.849
94131SOL    HW184290   1.632  11.221   8.754
94131SOL    HW284291   1.579  11.162   8.883
94132SOL     OW84292   9.621   1.771   3.160
94132SOL    HW184293   9.689   1.835   3.180
94132SOL    HW284294   9.541   1.809   3.195
94133SOL     OW84295   4.665   9.747   5.886
94133SOL    HW184296   4.679   9.669   5.941
94133SOL    HW284297   4.576   9.774   5.907
94134SOL     OW84298   1.222  14.095  13.771
94134SOL    HW184299   1.142  14.043  13.780
94134SOL    HW284300   1.284  14.036  13.727
94135SOL     OW84301  14.286   1.576  10.882
94135SOL    HW184302  14.328   1.503  10.929
94135SOL    HW284303  14.196   1.577  10.916
94136SOL     OW84304   5.374   6.973  13.018
94136SOL    HW184305   5.465   6.982  12.992
94136SOL    HW284306   5.336   7.060  13.006
94137SOL     OW84307   5.401   4.336   3.118
94137SOL    HW184308   5.384   4.256   3.067
94137SOL    HW284309   5.492   4.357   3.100
94138SOL     OW84310  10.916  11.880   4.261
94138SOL    HW184311  10.876  11.841   4.183
94138SOL    HW284312  10.864  11.959   4.278
94139SOL     OW84313   3.909   5.662   7.305
94139SOL    HW184314   3.930   5.588   7.362
94139SOL    HW284315   3.862   5.723   7.362
94140SOL     OW84316   0.187   3.187   7.798
94140SOL    HW184317   0.116   3.225   7.850
94140SOL    HW284318   0.267   3.221   7.837
94141SOL     OW84319  12.379   7.008  13.710
94141SOL    HW184320  12.372   7.070  13.638
94141SOL    HW284321  12.295   7.015  13.755
94142SOL     OW84322   2.187   7.540   7.380
94142SOL    HW184323   2.183   7.618   7.325
94142SOL    HW284324   2.243   7.479   7.332
94143SOL     OW84325  14.832  11.935   2.141
94143SOL    HW184326  14.840  12.022   2.103
94143SOL    HW284327  14.738  11.922   2.152
94144SOL     OW84328   2.488  12.869   4.766
94144SOL    HW184329   2.491  12.813   4.843
94144SOL    HW284330   2.476  12.957   4.801
94145SOL     OW84331   8.041   6.789  14.369
94145SOL    HW184332   8.029   6.699  14.399
94145SOL    HW284333   8.037   6.784  14.274
94146SOL     OW84334   3.170  12.868   4.893
94146SOL    HW184335   3.082  12.905   4.886
94146SOL    HW284336   3.169  12.820   4.977
94147SOL     OW84337   5.822   5.909  13.255
94147SOL    HW184338   5.810   5.825  13.212
94147SOL    HW284339   5.784   5.897  13.342
94148SOL     OW84340   5.204   6.306  13.330
94148SOL    HW184341   5.292   6.274  13.309
94148SOL    HW284342   5.148   6.229  13.321
94149SOL     OW84343   1.700   3.840   4.536
94149SOL    HW184344   1.699   3.842   4.632
94149SOL    HW284345   1.787   3.875   4.513
94150SOL     OW84346  11.044   7.421   1.839
94150SOL    HW184347  11.064   7.458   1.753
94150SOL    HW284348  11.074   7.488   1.901
94151SOL     OW84349  12.881   5.429   5.483
94151SOL    HW184350  12.819   5.356   5.474
94151SOL    HW284351  12.965   5.393   5.452
94152SOL     OW84352   7.234   5.930  14.805
94152SOL    HW184353   7.273   5.948   0.013
94152SOL    HW284354   7.272   5.847  14.778
94153SOL     OW84355   0.797  11.321   2.728
94153SOL    HW184356   0.843  11.360   2.802
94153SOL    HW284357   0.861  11.262   2.689
94154SOL     OW84358  10.491   4.313  14.178
94154SOL    HW184359  10.396   4.304  14.186
94154SOL    HW284360  10.525   4.282  14.262
94155SOL     OW84361  11.147  10.537   0.515
94155SOL    HW184362  11.115  10.470   0.575
94155SOL    HW284363  11.222  10.496   0.472
94156SOL     OW84364   9.953   7.505   3.080
94156SOL    HW184365   9.933   7.470   2.994
94156SOL    HW284366   9.879   7.561   3.101
94157SOL     OW84367   7.247   0.155  12.937
94157SOL    HW184368   7.340   0.176  12.942
94157SOL    HW284369   7.234   0.090  13.006
94158SOL     OW84370   7.314   4.365  12.155
94158SOL    HW184371   7.324   4.301  12.225
94158SOL    HW284372   7.357   4.444  12.188
94159SOL     OW84373  12.364   0.917   4.979
94159SOL    HW184374  12.342   1.010   4.968
94159SOL    HW284375  12.336   0.897   5.068
94160SOL     OW84376   9.252   7.911   2.003
94160SOL    HW184377   9.179   7.960   2.041
94160SOL    HW284378   9.314   7.979   1.976
94161SOL     OW84379   0.331  10.327   0.933
94161SOL    HW184380   0.302  10.418   0.924
94161SOL    HW284381   0.410  10.333   0.987
94162SOL     OW84382   9.774   3.018   1.013
94162SOL    HW184383   9.806   3.107   0.997
94162SOL    HW284384   9.688   3.030   1.051
94163SOL     OW84385   1.519  12.267   9.825
94163SOL    HW184386   1.534  12.174   9.807
94163SOL    HW284387   1.431  12.283   9.791
94164SOL     OW84388   3.641  12.733   6.726
94164SOL    HW184389   3.705  12.674   6.765
94164SOL    HW284390   3.597  12.774   6.800
94165SOL     OW84391   8.062   4.052  11.975
94165SOL    HW184392   8.009   4.045  11.896
94165SOL    HW284393   8.132   4.112  11.951
94166SOL     OW84394   8.159   3.560   2.424
94166SOL    HW184395   8.192   3.499   2.359
94166SOL    HW284396   8.235   3.582   2.478
94167SOL     OW84397   5.013   9.975   2.953
94167SOL    HW184398   5.082  10.012   3.008
94167SOL    HW284399   4.972   9.909   3.008
94168SOL     OW84400  10.431   5.805   4.142
94168SOL    HW184401  10.507   5.782   4.089
94168SOL    HW284402  10.372   5.851   4.082
94169SOL     OW84403   2.912  14.750  10.480
94169SOL    HW184404   2.862  14.830  10.496
94169SOL    HW284405   2.961  14.736  10.560
94170SOL     OW84406  14.128   4.962   8.332
94170SOL    HW184407  14.058   4.996   8.276
94170SOL    HW284408  14.127   4.868   8.318
94171SOL     OW84409   6.222  14.029   4.621
94171SOL    HW184410   6.192  13.950   4.666
94171SOL    HW284411   6.311  14.007   4.592
94172SOL     OW84412   3.503  13.295  11.879
94172SOL    HW184413   3.528  13.227  11.817
94172SOL    HW284414   3.441  13.350  11.831
94173SOL     OW84415  13.491  12.002   0.142
94173SOL    HW184416  13.444  11.919   0.135
94173SOL    HW284417  13.584  11.978   0.141
94174SOL     OW84418   9.291   3.093  12.531
94174SOL    HW184419   9.357   3.077  12.463
94174SOL    HW284420   9.229   3.154  12.491
94175SOL     OW84421   1.778  11.527   4.979
94175SOL    HW184422   1.784  11.570   5.065
94175SOL    HW284423   1.869  11.507   4.956
94176SOL     OW84424   0.747   8.108   3.985
94176SOL    HW184425   0.728   8.162   3.909
94176SOL    HW284426   0.842   8.115   3.996
94177SOL     OW84427  10.970   7.966  14.835
94177SOL    HW184428  10.887   7.938  14.796
94177SOL    HW284429  11.026   7.988  14.761
94178SOL     OW84430   7.676  10.008   5.737
94178SOL    HW184431   7.678   9.938   5.802
94178SOL    HW284432   7.753  10.061   5.757
94179SOL     OW84433  10.069  11.066   2.336
94179SOL    HW184434  10.148  11.015   2.354
94179SOL    HW284435   9.998  11.002   2.334
94180SOL     OW84436  13.795   8.459  14.441
94180SOL    HW184437  13.887   8.480  14.429
94180SOL    HW284438  13.748   8.530  14.396
94181SOL     OW84439   3.834   9.535  11.484
94181SOL    HW184440   3.911   9.547  11.429
94181SOL    HW284441   3.847   9.595  11.557
94182SOL     OW84442   4.457   9.397   6.477
94182SOL    HW184443   4.447   9.301   6.482
94182SOL    HW284444   4.370   9.428   6.452
94183SOL     OW84445  12.540  12.187   4.409
94183SOL    HW184446  12.546  12.281   4.393
94183SOL    HW284447  12.503  12.152   4.328
94184SOL     OW84448   7.724  11.634   5.928
94184SOL    HW184449   7.749  11.561   5.984
94184SOL    HW284450   7.787  11.633   5.856
94185SOL     OW84451  13.371   1.662   6.795
94185SOL    HW184452  13.435   1.602   6.756
94185SOL    HW284453  13.355   1.627   6.883
94186SOL     OW84454  13.548   6.094  12.366
94186SOL    HW184455  13.476   6.144  12.327
94186SOL    HW284456  13.521   6.080  12.457
94187SOL     OW84457   1.262  12.796   1.417
94187SOL    HW184458   1.176  12.835   1.432
94187SOL    HW284459   1.298  12.844   1.343
94188SOL     OW84460  10.611   5.676   1.002
94188SOL    HW184461  10.591   5.623   0.924
94188SOL    HW284462  10.556   5.753   0.992
94189SOL     OW84463   4.277  10.476   1.043
94189SOL    HW184464   4.299  10.456   0.952
94189SOL    HW284465   4.195  10.526   1.038
94190SOL     OW84466  12.818  13.570   6.865
94190SOL    HW184467  12.791  13.498   6.808
94190SOL    HW284468  12.809  13.648   6.811
94191SOL     OW84469  10.850   2.247  14.362
94191SOL    HW184470  10.902   2.268  14.285
94191SOL    HW284471  10.892   2.170  14.399
94192SOL     OW84472   3.679  13.888  10.967
94192SOL    HW184473   3.727  13.944  11.027
94192SOL    HW284474   3.596  13.932  10.953
94193SOL     OW84475   3.688   1.699  11.923
94193SOL    HW184476   3.772   1.739  11.901
94193SOL    HW284477   3.645   1.764  11.980
94194SOL     OW84478   9.930   3.689   5.447
94194SOL    HW184479   9.955   3.598   5.430
94194SOL    HW284480   9.962   3.707   5.535
94195SOL     OW84481  10.135   1.996   5.498
94195SOL    HW184482  10.174   1.923   5.450
94195SOL    HW284483  10.115   2.061   5.430
94196SOL     OW84484  11.744   7.380   4.779
94196SOL    HW184485  11.668   7.437   4.772
94196SOL    HW284486  11.816   7.431   4.740
94197SOL     OW84487   2.811   0.157  14.788
94197SOL    HW184488   2.807   0.154   0.006
94197SOL    HW284489   2.900   0.131  14.767
94198SOL     OW84490  11.188  13.711   4.350
94198SOL    HW184491  11.169  13.800   4.380
94198SOL    HW284492  11.223  13.666   4.428
94199SOL     OW84493   6.588   5.333  12.093
94199SOL    HW184494   6.619   5.361  12.007
94199SOL    HW284495   6.645   5.378  12.155
94200SOL     OW84496   9.831   0.643   1.518
94200SOL    HW184497   9.893   0.587   1.470
94200SOL    HW284498   9.784   0.583   1.575
94201SOL     OW84499   0.479  13.257   7.557
94201SOL    HW184500   0.527  13.255   7.474
94201SOL    HW284501   0.490  13.347   7.588
94202SOL     OW84502   9.796   5.562   5.049
94202SOL    HW184503   9.783   5.581   4.956
94202SOL    HW284504   9.736   5.622   5.093
94203SOL     OW84505  13.199  14.240  10.645
94203SOL    HW184506  13.165  14.285  10.567
94203SOL    HW284507  13.162  14.288  10.718
94204SOL     OW84508   2.620  13.917  11.098
94204SOL    HW184509   2.600  14.010  11.110
94204SOL    HW284510   2.636  13.908  11.004
94205SOL     OW84511   7.455  14.591   4.121
94205SOL    HW184512   7.360  14.598   4.111
94205SOL    HW284513   7.481  14.525   4.057
94206SOL     OW84514  11.488   2.041   1.559
94206SOL    HW184515  11.500   2.121   1.611
94206SOL    HW284516  11.399   2.012   1.579
94207SOL     OW84517   2.484   8.571   1.381
94207SOL    HW184518   2.469   8.553   1.473
94207SOL    HW284519   2.575   8.601   1.377
94208SOL     OW84520   2.655   1.258  11.966
94208SOL    HW184521   2.569   1.218  11.953
94208SOL    HW284522   2.647   1.344  11.927
94209SOL     OW84523   1.680   7.819   4.559
94209SOL    HW184524   1.774   7.807   4.545
94209SOL    HW284525   1.675   7.883   4.630
94210SOL     OW84526   6.427   2.956   5.680
94210SOL    HW184527   6.426   3.035   5.734
94210SOL    HW284528   6.340   2.917   5.692
94211SOL     OW84529   7.807   5.723  14.022
94211SOL    HW184530   7.856   5.802  14.042
94211SOL    HW284531   7.862   5.652  14.055
94212SOL     OW84532  14.515   9.130  10.367
94212SOL    HW184533  14.462   9.209  10.369
94212SOL    HW284534  14.476   9.077  10.297
94213SOL     OW84535  10.758  12.471   0.382
94213SOL    HW184536  10.735  12.379   0.394
94213SOL    HW284537  10.764  12.483   0.288
94214SOL     OW84538   7.837   7.155   4.209
94214SOL    HW184539   7.900   7.111   4.153
94214SOL    HW284540   7.756   7.156   4.159
94215SOL     OW84541   3.675   9.024   8.649
94215SOL    HW184542   3.626   8.946   8.624
94215SOL    HW284543   3.689   9.072   8.567
94216SOL     OW84544   1.570   2.142   2.497
94216SOL    HW184545   1.500   2.095   2.451
94216SOL    HW284546   1.636   2.157   2.429
94217SOL     OW84547   9.833   1.761  14.714
94217SOL    HW184548   9.795   1.841  14.678
94217SOL    HW284549   9.817   1.694  14.647
94218SOL     OW84550  10.150   4.237   4.998
94218SOL    HW184551  10.205   4.210   5.071
94218SOL    HW284552  10.133   4.156   4.950
94219SOL     OW84553  13.636   4.309   1.931
94219SOL    HW184554  13.648   4.243   1.999
94219SOL    HW284555  13.620   4.259   1.852
94220SOL     OW84556   2.949  11.591   4.025
94220SOL    HW184557   2.977  11.541   3.949
94220SOL    HW284558   3.018  11.657   4.037
94221SOL     OW84559   7.417   2.531   9.510
94221SOL    HW184560   7.430   2.574   9.594
94221SOL    HW284561   7.376   2.598   9.455
94222SOL     OW84562   6.478   5.652   7.138
94222SOL    HW184563   6.531   5.595   7.194
94222SOL    HW284564   6.416   5.693   7.197
94223SOL     OW84565  13.164   2.596  13.884
94223SOL    HW184566  13.249   2.572  13.921
94223SOL    HW284567  13.166   2.691  13.876
94224SOL     OW84568   2.294  12.928  14.177
94224SOL    HW184569   2.368  12.923  14.238
94224SOL    HW284570   2.286  12.840  14.142
94225SOL     OW84571  11.629   1.521   6.252
94225SOL    HW184572  11.631   1.604   6.299
94225SOL    HW284573  11.539   1.490   6.260
94226SOL     OW84574  13.719  14.190   7.746
94226SOL    HW184575  13.783  14.252   7.711
94226SOL    HW284576  13.660  14.244   7.798
94227SOL     OW84577  13.561   5.268  13.442
94227SOL    HW184578  13.613   5.305  13.513
94227SOL    HW284579  13.614   5.195  13.409
94228SOL     OW84580   5.546  12.622  12.105
94228SOL    HW184581   5.482  12.595  12.040
94228SOL    HW284582   5.573  12.709  12.078
94229SOL     OW84583  14.033   4.520  10.083
94229SOL    HW184584  13.952   4.500  10.129
94229SOL    HW284585  14.013   4.508   9.990
94230SOL     OW84586  12.819   2.513   8.864
94230SOL    HW184587  12.843   2.540   8.953
94230SOL    HW284588  12.900   2.476   8.829
94231SOL     OW84589  10.591   1.718  13.616
94231SOL    HW184590  10.603   1.783  13.546
94231SOL    HW284591  10.578   1.636  13.570
94232SOL     OW84592   6.930  12.842   8.242
94232SOL    HW184593   6.961  12.910   8.182
94232SOL    HW284594   6.979  12.764   8.217
94233SOL     OW84595  13.406   9.538  12.873
94233SOL    HW184596  13.448   9.453  12.860
94233SOL    HW284597  13.329   9.535  12.816
94234SOL     OW84598  11.294   6.393   8.300
94234SOL    HW184599  11.292   6.347   8.215
94234SOL    HW284600  11.313   6.324   8.364
94235SOL     OW84601  14.003   3.416   4.710
94235SOL    HW184602  14.058   3.433   4.633
94235SOL    HW284603  14.065   3.407   4.782
94236SOL     OW84604  10.553   4.110   7.118
94236SOL    HW184605  10.477   4.090   7.063
94236SOL    HW284606  10.562   4.033   7.175
94237SOL     OW84607   9.122  12.239   7.717
94237SOL    HW184608   9.193  12.175   7.717
94237SOL    HW284609   9.133  12.287   7.799
94238SOL     OW84610   5.101   3.983  12.802
94238SOL    HW184611   5.191   3.973  12.833
94238SOL    HW284612   5.054   3.910  12.840
94239SOL     OW84613   1.998   9.161   3.145
94239SOL    HW184614   1.975   9.082   3.095
94239SOL    HW284615   1.915   9.207   3.156
94240SOL     OW84616   6.466   2.187  10.362
94240SOL    HW184617   6.479   2.101  10.403
94240SOL    HW284618   6.432   2.242  10.433
94241SOL     OW84619  12.155   7.536   3.416
94241SOL    HW184620  12.066   7.509   3.397
94241SOL    HW284621  12.204   7.516   3.336
94242SOL     OW84622   9.795   0.022  11.351
94242SOL    HW184623   9.856   0.094  11.337
94242SOL    HW284624   9.711   0.056  11.321
94243SOL     OW84625  10.609   5.114   5.660
94243SOL    HW184626  10.587   5.029   5.699
94243SOL    HW284627  10.536   5.132   5.601
94244SOL     OW84628   6.669   8.146   9.160
94244SOL    HW184629   6.717   8.229   9.162
94244SOL    HW284630   6.646   8.134   9.068
94245SOL     OW84631   1.039  14.787   0.397
94245SOL    HW184632   1.060  14.694   0.390
94245SOL    HW284633   0.953  14.789   0.440
94246SOL     OW84634   9.960   5.365   8.656
94246SOL    HW184635   9.931   5.323   8.575
94246SOL    HW284636   9.936   5.303   8.725
94247SOL     OW84637   4.781   5.253  13.857
94247SOL    HW184638   4.710   5.203  13.815
94247SOL    HW284639   4.736   5.317  13.912
94248SOL     OW84640   4.167   5.440   1.614
94248SOL    HW184641   4.182   5.533   1.629
94248SOL    HW284642   4.240   5.396   1.659
94249SOL     OW84643   3.495   5.488   8.400
94249SOL    HW184644   3.435   5.430   8.353
94249SOL    HW284645   3.480   5.469   8.493
94250SOL     OW84646   3.512   7.539   6.097
94250SOL    HW184647   3.578   7.582   6.151
94250SOL    HW284648   3.531   7.569   6.008
94251SOL     OW84649  13.500   0.180  13.714
94251SOL    HW184650  13.509   0.240  13.787
94251SOL    HW284651  13.414   0.139  13.727
94252SOL     OW84652  13.095   3.184   3.593
94252SOL    HW184653  13.116   3.273   3.564
94252SOL    HW284654  13.019   3.195   3.651
94253SOL     OW84655   3.807  12.785   8.555
94253SOL    HW184656   3.724  12.822   8.586
94253SOL    HW284657   3.799  12.691   8.571
94254SOL     OW84658   9.963   1.845  10.407
94254SOL    HW184659  10.019   1.839  10.330
94254SOL    HW284660  10.021   1.829  10.481
94255SOL     OW84661   0.638  10.710   4.643
94255SOL    HW184662   0.680  10.635   4.601
94255SOL    HW284663   0.594  10.673   4.719
94256SOL     OW84664  14.402   0.222   9.924
94256SOL    HW184665  14.326   0.179   9.963
94256SOL    HW284666  14.393   0.314   9.951
94257SOL     OW84667   9.488   8.189   0.981
94257SOL    HW184668   9.457   8.278   0.963
94257SOL    HW284669   9.520   8.193   1.071
94258SOL     OW84670   9.419   4.783  13.018
94258SOL    HW184671   9.431   4.814  13.107
94258SOL    HW284672   9.484   4.831  12.966
94259SOL     OW84673  13.528  13.517   9.223
94259SOL    HW184674  13.558  13.538   9.135
94259SOL    HW284675  13.443  13.476   9.210
94260SOL     OW84676   5.424  11.315   5.372
94260SOL    HW184677   5.396  11.407   5.376
94260SOL    HW284678   5.366  11.270   5.434
94261SOL     OW84679  13.338   2.180  13.592
94261SOL    HW184680  13.369   2.270  13.607
94261SOL    HW284681  13.246   2.191  13.567
94262SOL     OW84682   2.469   2.102   2.190
94262SOL    HW184683   2.388   2.051   2.190
94262SOL    HW284684   2.491   2.113   2.098
94263SOL     OW84685   2.958   3.646   7.574
94263SOL    HW184686   2.900   3.612   7.642
94263SOL    HW284687   2.900   3.684   7.509
94264SOL     OW84688   5.214   7.800  12.271
94264SOL    HW184689   5.305   7.770  12.271
94264SOL    HW284690   5.198   7.828  12.361
94265SOL     OW84691   1.185  10.779   3.170
94265SOL    HW184692   1.162  10.776   3.263
94265SOL    HW284693   1.182  10.687   3.142
94266SOL     OW84694   5.063   4.529  10.213
94266SOL    HW184695   4.975   4.567  10.210
94266SOL    HW284696   5.059   4.462  10.280
94267SOL     OW84697   4.794   2.799  14.761
94267SOL    HW184698   4.842   2.716  14.773
94267SOL    HW284699   4.863   2.866  14.760
94268SOL     OW84700  10.668   8.403   1.910
94268SOL    HW184701  10.653   8.496   1.891
94268SOL    HW284702  10.664   8.397   2.005
94269SOL     OW84703   3.374   8.120  13.221
94269SOL    HW184704   3.346   8.109  13.312
94269SOL    HW284705   3.344   8.208  13.198
94270SOL     OW84706   0.036   6.689   8.932
94270SOL    HW184707   0.101   6.634   8.975
94270SOL    HW284708  14.847   6.705   9.000
94271SOL     OW84709   4.537   6.157   8.257
94271SOL    HW184710   4.480   6.222   8.298
94271SOL    HW284711   4.597   6.130   8.326
94272SOL     OW84712   4.374   5.979   8.525
94272SOL    HW184713   4.407   6.061   8.560
94272SOL    HW284714   4.302   5.955   8.583
94273SOL     OW84715   4.806   7.881   1.828
94273SOL    HW184716   4.730   7.890   1.772
94273SOL    HW284717   4.877   7.855   1.769
94274SOL     OW84718  13.855  13.690   7.747
94274SOL    HW184719  13.910  13.734   7.813
94274SOL    HW284720  13.886  13.599   7.748
94275SOL     OW84721  10.263  13.657   5.931
94275SOL    HW184722  10.194  13.605   5.890
94275SOL    HW284723  10.311  13.595   5.985
94276SOL     OW84724  13.481  12.536   8.284
94276SOL    HW184725  13.547  12.572   8.225
94276SOL    HW284726  13.476  12.443   8.261
94277SOL     OW84727   6.580  10.672   7.430
94277SOL    HW184728   6.557  10.621   7.353
94277SOL    HW284729   6.673  10.691   7.419
94278SOL     OW84730   1.380   3.901   7.558
94278SOL    HW184731   1.366   3.917   7.464
94278SOL    HW284732   1.433   3.976   7.587
94279SOL     OW84733   1.004   5.520   2.068
94279SOL    HW184734   0.912   5.542   2.083
94279SOL    HW284735   1.008   5.425   2.072
94280SOL     OW84736   7.156  10.069   2.108
94280SOL    HW184737   7.223  10.086   2.174
94280SOL    HW284738   7.122   9.982   2.131
94281SOL     OW84739   9.653   2.422  13.917
94281SOL    HW184740   9.661   2.344  13.863
94281SOL    HW284741   9.597   2.481  13.867
94282SOL     OW84742  11.625   5.904   1.411
94282SOL    HW184743  11.532   5.922   1.399
94282SOL    HW284744  11.652   5.963   1.481
94283SOL     OW84745   3.104  10.709   0.076
94283SOL    HW184746   3.076  10.635   0.021
94283SOL    HW284747   3.107  10.673   0.165
94284SOL     OW84748   8.677   3.835   1.575
94284SOL    HW184749   8.759   3.794   1.604
94284SOL    HW284750   8.685   3.926   1.604
94285SOL     OW84751   2.252   2.176  11.044
94285SOL    HW184752   2.246   2.210  11.134
94285SOL    HW284753   2.342   2.192  11.018
94286SOL     OW84754   1.371  13.031   6.258
94286SOL    HW184755   1.432  12.982   6.313
94286SOL    HW284756   1.357  12.976   6.181
94287SOL     OW84757   1.340   1.719  10.023
94287SOL    HW184758   1.388   1.796  10.052
94287SOL    HW284759   1.370   1.705   9.933
94288SOL     OW84760   9.519   6.956   5.897
94288SOL    HW184761   9.442   6.909   5.867
94288SOL    HW284762   9.504   6.968   5.991
94289SOL     OW84763  10.719   7.071   7.075
94289SOL    HW184764  10.693   6.979   7.077
94289SOL    HW284765  10.702   7.098   6.985
94290SOL     OW84766  14.683   7.424   0.510
94290SOL    HW184767  14.599   7.466   0.489
94290SOL    HW284768  14.659   7.334   0.533
94291SOL     OW84769  10.788   6.117   2.256
94291SOL    HW184770  10.799   6.039   2.310
94291SOL    HW284771  10.698   6.146   2.272
94292SOL     OW84772  11.733  14.476   6.197
94292SOL    HW184773  11.814  14.424   6.199
94292SOL    HW284774  11.684  14.439   6.123
94293SOL     OW84775   7.331   5.745  10.921
94293SOL    HW184776   7.313   5.750  11.015
94293SOL    HW284777   7.363   5.832  10.898
94294SOL     OW84778   1.853   7.390   8.791
94294SOL    HW184779   1.785   7.440   8.837
94294SOL    HW284780   1.820   7.383   8.701
94295SOL     OW84781   2.799   0.831  11.769
94295SOL    HW184782   2.889   0.800  11.772
94295SOL    HW284783   2.806   0.927  11.766
94296SOL     OW84784   9.760   3.601   1.498
94296SOL    HW184785   9.771   3.687   1.539
94296SOL    HW284786   9.737   3.621   1.407
94297SOL     OW84787   8.316   6.466  12.923
94297SOL    HW184788   8.346   6.428  12.840
94297SOL    HW284789   8.311   6.560  12.906
94298SOL     OW84790   3.994  13.474   1.381
94298SOL    HW184791   3.929  13.408   1.405
94298SOL    HW284792   3.952  13.558   1.403
94299SOL     OW84793   0.658  14.228  13.663
94299SOL    HW184794   0.674  14.319  13.686
94299SOL    HW284795   0.631  14.231  13.571
94300SOL     OW84796   0.357   1.109  11.623
94300SOL    HW184797   0.401   1.193  11.612
94300SOL    HW284798   0.349   1.098  11.718
94301SOL     OW84799   8.369   3.726  11.160
94301SOL    HW184800   8.441   3.733  11.097
94301SOL    HW284801   8.381   3.800  11.219
94302SOL     OW84802   3.319   4.556  12.174
94302SOL    HW184803   3.226   4.539  12.157
94302SOL    HW284804   3.360   4.554  12.087
94303SOL     OW84805   3.982  12.387  11.300
94303SOL    HW184806   3.916  12.317  11.302
94303SOL    HW284807   4.021  12.386  11.387
94304SOL     OW84808  10.432   9.915   8.700
94304SOL    HW184809  10.487   9.987   8.667
94304SOL    HW284810  10.343   9.950   8.699
94305SOL     OW84811  11.469  14.139  13.405
94305SOL    HW184812  11.476  14.074  13.335
94305SOL    HW284813  11.420  14.212  13.366
94306SOL     OW84814   0.070   1.874   8.549
94306SOL    HW184815   0.145   1.933   8.546
94306SOL    HW284816   0.101   1.797   8.597
94307SOL     OW84817   2.385   0.422   0.686
94307SOL    HW184818   2.379   0.348   0.627
94307SOL    HW284819   2.459   0.402   0.743
94308SOL     OW84820  11.911  13.647   6.240
94308SOL    HW184821  11.868  13.590   6.303
94308SOL    HW284822  11.999  13.609   6.229
94309SOL     OW84823   0.956  12.260   4.208
94309SOL    HW184824   0.933  12.235   4.298
94309SOL    HW284825   0.984  12.351   4.215
94310SOL     OW84826   2.126  12.989   0.878
94310SOL    HW184827   2.171  12.982   0.794
94310SOL    HW284828   2.103  12.899   0.901
94311SOL     OW84829   0.657   8.861   9.808
94311SOL    HW184830   0.700   8.837   9.726
94311SOL    HW284831   0.627   8.777   9.844
94312SOL     OW84832  11.751  13.469  11.427
94312SOL    HW184833  11.747  13.437  11.517
94312SOL    HW284834  11.744  13.391  11.373
94313SOL     OW84835  13.980  10.934   0.763
94313SOL    HW184836  13.925  10.881   0.705
94313SOL    HW284837  14.026  10.871   0.817
94314SOL     OW84838   7.614  14.325   0.024
94314SOL    HW184839   7.536  14.297  14.854
94314SOL    HW284840   7.585  14.402   0.074
94315SOL     OW84841  12.478  10.668   3.680
94315SOL    HW184842  12.535  10.597   3.653
94315SOL    HW284843  12.429  10.691   3.601
94316SOL     OW84844   3.138   2.015  14.469
94316SOL    HW184845   3.140   2.008  14.374
94316SOL    HW284846   3.045   2.012  14.492
94317SOL     OW84847   2.810   2.630   7.148
94317SOL    HW184848   2.746   2.573   7.105
94317SOL    HW284849   2.837   2.581   7.226
94318SOL     OW84850   1.259  13.265   4.697
94318SOL    HW184851   1.303  13.315   4.628
94318SOL    HW284852   1.309  13.286   4.776
94319SOL     OW84853   5.324   1.888   9.996
94319SOL    HW184854   5.366   1.898   9.910
94319SOL    HW284855   5.298   1.796   9.999
94320SOL     OW84856   2.332   7.390  14.624
94320SOL    HW184857   2.290   7.397  14.710
94320SOL    HW284858   2.336   7.480  14.592
94321SOL     OW84859   6.166  12.880  14.627
94321SOL    HW184860   6.160  12.975  14.621
94321SOL    HW284861   6.167  12.851  14.536
94322SOL     OW84862  13.444   1.690   0.920
94322SOL    HW184863  13.411   1.618   0.866
94322SOL    HW284864  13.539   1.684   0.914
94323SOL     OW84865  13.017  13.762   4.511
94323SOL    HW184866  13.106  13.783   4.482
94323SOL    HW284867  12.968  13.843   4.499
94324SOL     OW84868   6.136   4.664   8.237
94324SOL    HW184869   6.091   4.580   8.252
94324SOL    HW284870   6.065   4.725   8.218
94325SOL     OW84871   8.440   4.353   9.131
94325SOL    HW184872   8.385   4.418   9.088
94325SOL    HW284873   8.492   4.403   9.193
94326SOL     OW84874   6.006  14.150   4.497
94326SOL    HW184875   5.957  14.216   4.547
94326SOL    HW284876   6.083  14.131   4.550
94327SOL     OW84877   0.940   3.871   2.096
94327SOL    HW184878   1.009   3.830   2.148
94327SOL    HW284879   0.885   3.798   2.067
94328SOL     OW84880   8.912   6.439   6.195
94328SOL    HW184881   8.862   6.367   6.156
94328SOL    HW284882   8.854   6.473   6.264
94329SOL     OW84883   4.777   0.436   2.581
94329SOL    HW184884   4.818   0.405   2.662
94329SOL    HW284885   4.814   0.524   2.568
94330SOL     OW84886   7.191   5.164   5.286
94330SOL    HW184887   7.272   5.212   5.266
94330SOL    HW284888   7.171   5.187   5.377
94331SOL     OW84889  14.290   3.948   6.363
94331SOL    HW184890  14.385   3.935   6.360
94331SOL    HW284891  14.253   3.874   6.316
94332SOL     OW84892   1.170   7.170   1.016
94332SOL    HW184893   1.151   7.251   1.063
94332SOL    HW284894   1.263   7.176   0.995
94333SOL     OW84895   9.801   3.277   0.912
94333SOL    HW184896   9.758   3.237   0.836
94333SOL    HW284897   9.800   3.371   0.894
94334SOL     OW84898   3.521   2.661   4.753
94334SOL    HW184899   3.482   2.639   4.837
94334SOL    HW284900   3.615   2.669   4.772
94335SOL     OW84901  14.091  10.239   2.857
94335SOL    HW184902  14.004  10.254   2.894
94335SOL    HW284903  14.124  10.162   2.903
94336SOL     OW84904   7.607   9.320  12.592
94336SOL    HW184905   7.544   9.392  12.589
94336SOL    HW284906   7.691   9.362  12.613
94337SOL     OW84907  11.526   2.299   7.601
94337SOL    HW184908  11.463   2.370   7.591
94337SOL    HW284909  11.515   2.268   7.691
94338SOL     OW84910  13.230   3.990   3.869
94338SOL    HW184911  13.322   4.014   3.872
94338SOL    HW284912  13.186   4.070   3.839
94339SOL     OW84913   8.785   7.299   4.476
94339SOL    HW184914   8.721   7.236   4.444
94339SOL    HW284915   8.869   7.255   4.465
94340SOL     OW84916  14.350   2.711  12.207
94340SOL    HW184917  14.305   2.792  12.183
94340SOL    HW284918  14.280   2.653  12.238
94341SOL     OW84919   4.577   8.172  14.385
94341SOL    HW184920   4.636   8.128  14.323
94341SOL    HW284921   4.608   8.262  14.388
94342SOL     OW84922  11.155   6.428   2.425
94342SOL    HW184923  11.171   6.367   2.352
94342SOL    HW284924  11.207   6.392   2.497
94343SOL     OW84925  11.165   0.920  11.451
94343SOL    HW184926  11.215   0.915  11.370
94343SOL    HW284927  11.125   0.833  11.460
94344SOL     OW84928   9.904   8.520  11.115
94344SOL    HW184929   9.939   8.524  11.204
94344SOL    HW284930   9.972   8.558  11.060
94345SOL     OW84931   8.552   6.408   6.848
94345SOL    HW184932   8.563   6.419   6.942
94345SOL    HW284933   8.459   6.386   6.837
94346SOL     OW84934   2.380   7.300  11.367
94346SOL    HW184935   2.424   7.215  11.358
94346SOL    HW284936   2.318   7.287  11.438
94347SOL     OW84937   6.869   4.422   7.601
94347SOL    HW184938   6.892   4.499   7.653
94347SOL    HW284939   6.784   4.443   7.564
94348SOL     OW84940  14.290   9.421  13.857
94348SOL    HW184941  14.339   9.394  13.936
94348SOL    HW284942  14.300   9.347  13.797
94349SOL     OW84943   4.646   3.152  13.326
94349SOL    HW184944   4.551   3.146  13.317
94349SOL    HW284945   4.664   3.137  13.418
94350SOL     OW84946   7.592  11.090   6.383
94350SOL    HW184947   7.615  11.088   6.476
94350SOL    HW284948   7.661  11.142   6.343
94351SOL     OW84949  11.558   3.628   6.177
94351SOL    HW184950  11.473   3.589   6.199
94351SOL    HW284951  11.610   3.619   6.257
94352SOL     OW84952   5.430   9.764  14.646
94352SOL    HW184953   5.466   9.852  14.649
94352SOL    HW284954   5.335   9.775  14.653
94353SOL     OW84955   9.162   3.527   7.159
94353SOL    HW184956   9.192   3.593   7.096
94353SOL    HW284957   9.211   3.547   7.239
94354SOL     OW84958   6.257   6.838   2.011
94354SOL    HW184959   6.347   6.864   1.994
94354SOL    HW284960   6.263   6.749   2.045
94355SOL     OW84961   8.379   0.373   0.483
94355SOL    HW184962   8.379   0.325   0.400
94355SOL    HW284963   8.428   0.453   0.465
94356SOL     OW84964   4.333   5.315  12.306
94356SOL    HW184965   4.301   5.225  12.299
94356SOL    HW284966   4.254   5.368  12.297
94357SOL     OW84967   2.713   4.440  10.216
94357SOL    HW184968   2.737   4.356  10.255
94357SOL    HW284969   2.663   4.485  10.284
94358SOL     OW84970  11.572   2.634   2.445
94358SOL    HW184971  11.639   2.603   2.505
94358SOL    HW284972  11.490   2.600   2.480
94359SOL     OW84973   1.492   7.240   6.449
94359SOL    HW184974   1.546   7.255   6.372
94359SOL    HW284975   1.553   7.248   6.523
94360SOL     OW84976   3.616   2.170   5.543
94360SOL    HW184977   3.650   2.116   5.615
94360SOL    HW284978   3.664   2.253   5.550
94361SOL     OW84979   6.969  11.246  14.841
94361SOL    HW184980   6.973  11.193  14.762
94361SOL    HW284981   6.943  11.333  14.811
94362SOL     OW84982   5.210   4.477   2.667
94362SOL    HW184983   5.243   4.390   2.646
94362SOL    HW284984   5.115   4.471   2.655
94363SOL     OW84985  12.791   4.448   8.783
94363SOL    HW184986  12.719   4.421   8.840
94363SOL    HW284987  12.831   4.522   8.828
94364SOL     OW84988   6.536   8.731   4.943
94364SOL    HW184989   6.544   8.825   4.958
94364SOL    HW284990   6.582   8.716   4.860
94365SOL     OW84991  10.566  14.472   8.614
94365SOL    HW184992  10.596  14.404   8.554
94365SOL    HW284993  10.512  14.425   8.678
94366SOL     OW84994   4.337  12.489  14.296
94366SOL    HW184995   4.404  12.446  14.348
94366SOL    HW284996   4.285  12.418  14.259
94367SOL     OW84997  14.664   0.617   1.015
94367SOL    HW184998  14.592   0.554   1.016
94367SOL    HW284999  14.699   0.614   1.104
94368SOL     OW85000  10.790   5.828   3.396
94368SOL    HW185001  10.748   5.907   3.430
94368SOL    HW285002  10.775   5.762   3.464
94369SOL     OW85003   9.889  10.047   4.087
94369SOL    HW185004   9.960  10.094   4.044
94369SOL    HW285005   9.918   9.956   4.090
94370SOL     OW85006   5.422   6.419  10.362
94370SOL    HW185007   5.512   6.387  10.357
94370SOL    HW285008   5.422   6.497  10.306
94371SOL     OW85009  10.651   4.218  11.787
94371SOL    HW185010  10.560   4.244  11.794
94371SOL    HW285011  10.658   4.140  11.841
94372SOL     OW85012   1.356   6.596   5.670
94372SOL    HW185013   1.366   6.647   5.590
94372SOL    HW285014   1.333   6.508   5.640
94373SOL     OW85015   2.952   3.043   2.243
94373SOL    HW185016   2.864   3.014   2.218
94373SOL    HW285017   2.945   3.138   2.250
94374SOL     OW85018   0.736   9.157  13.282
94374SOL    HW185019   0.659   9.208  13.309
94374SOL    HW285020   0.709   9.116  13.200
94375SOL     OW85021   9.626  12.054   5.739
94375SOL    HW185022   9.597  12.131   5.787
94375SOL    HW285023   9.546  12.008   5.714
94376SOL     OW85024  13.160   6.497   0.900
94376SOL    HW185025  13.153   6.487   0.805
94376SOL    HW285026  13.091   6.441   0.936
94377SOL     OW85027   2.222   1.729   6.905
94377SOL    HW185028   2.255   1.670   6.837
94377SOL    HW285029   2.297   1.745   6.962
94378SOL     OW85030  11.230  12.045   6.418
94378SOL    HW185031  11.217  11.981   6.348
94378SOL    HW285032  11.195  12.127   6.384
94379SOL     OW85033   0.139  11.075   1.224
94379SOL    HW185034   0.205  11.024   1.271
94379SOL    HW285035   0.126  11.153   1.278
94380SOL     OW85036  10.059   7.000   3.429
94380SOL    HW185037  10.137   7.056   3.429
94380SOL    HW285038  10.093   6.911   3.445
94381SOL     OW85039   0.121   4.645   3.101
94381SOL    HW185040   0.188   4.583   3.130
94381SOL    HW285041   0.096   4.615   3.014
94382SOL     OW85042   4.847   9.944   8.613
94382SOL    HW185043   4.890  10.008   8.669
94382SOL    HW285044   4.833   9.990   8.530
94383SOL     OW85045   4.144   2.857   1.249
94383SOL    HW185046   4.097   2.932   1.286
94383SOL    HW285047   4.232   2.863   1.287
94384SOL     OW85048   1.282  13.325   7.784
94384SOL    HW185049   1.254  13.358   7.699
94384SOL    HW285050   1.200  13.315   7.834
94385SOL     OW85051  14.215  14.078  13.112
94385SOL    HW185052  14.182  14.023  13.184
94385SOL    HW285053  14.216  14.167  13.148
94386SOL     OW85054   6.322   7.070   6.190
94386SOL    HW185055   6.386   7.109   6.250
94386SOL    HW285056   6.334   6.976   6.201
94387SOL     OW85057  11.151  10.646  11.591
94387SOL    HW185058  11.172  10.568  11.539
94387SOL    HW285059  11.163  10.619  11.682
94388SOL     OW85060   9.636   8.580   4.396
94388SOL    HW185061   9.562   8.563   4.337
94388SOL    HW285062   9.698   8.629   4.343
94389SOL     OW85063   8.608   0.817  11.182
94389SOL    HW185064   8.605   0.825  11.086
94389SOL    HW285065   8.566   0.733  11.200
94390SOL     OW85066  10.370   3.840  10.774
94390SOL    HW185067  10.454   3.794  10.773
94390SOL    HW285068  10.385   3.917  10.828
94391SOL     OW85069   6.097   4.869   7.903
94391SOL    HW185070   6.092   4.829   7.816
94391SOL    HW285071   6.076   4.961   7.888
94392SOL     OW85072   0.398   9.202   5.006
94392SOL    HW185073   0.373   9.197   4.914
94392SOL    HW285074   0.477   9.148   5.012
94393SOL     OW85075  10.602   7.269   7.272
94393SOL    HW185076  10.645   7.349   7.301
94393SOL    HW285077  10.668   7.223   7.221
94394SOL     OW85078   0.444  11.851   9.696
94394SOL    HW185079   0.416  11.782   9.755
94394SOL    HW285080   0.391  11.837   9.617
94395SOL     OW85081   8.483   8.004   5.871
94395SOL    HW185082   8.516   7.994   5.781
94395SOL    HW285083   8.562   8.009   5.925
94396SOL     OW85084  11.666   0.309   2.544
94396SOL    HW185085  11.609   0.256   2.599
94396SOL    HW285086  11.621   0.312   2.459
94397SOL     OW85087   6.068   8.667  14.131
94397SOL    HW185088   6.061   8.727  14.205
94397SOL    HW285089   6.035   8.584  14.164
94398SOL     OW85090  12.122   2.254   8.702
94398SOL    HW185091  12.042   2.294   8.737
94398SOL    HW285092  12.181   2.328   8.688
94399SOL     OW85093  10.945  13.381   4.201
94399SOL    HW185094  10.914  13.376   4.111
94399SOL    HW285095  10.977  13.471   4.210
94400SOL     OW85096  10.125   3.869   1.814
94400SOL    HW185097  10.138   3.785   1.769
94400SOL    HW285098  10.081   3.924   1.750
94401SOL     OW85099  12.506  12.861  10.585
94401SOL    HW185100  12.466  12.930  10.533
94401SOL    HW285101  12.600  12.879  10.579
94402SOL     OW85102  14.073   0.103   3.104
94402SOL    HW185103  14.132   0.172   3.073
94402SOL    HW285104  14.132   0.038   3.143
94403SOL     OW85105   9.975   7.369   8.154
94403SOL    HW185106   9.922   7.305   8.202
94403SOL    HW285107   9.973   7.339   8.064
94404SOL     OW85108  14.225   7.928   6.921
94404SOL    HW185109  14.214   7.932   6.826
94404SOL    HW285110  14.320   7.923   6.935
94405SOL     OW85111   1.194   5.356   2.900
94405SOL    HW185112   1.116   5.411   2.893
94405SOL    HW285113   1.254   5.405   2.955
94406SOL     OW85114   5.159   3.548   8.777
94406SOL    HW185115   5.088   3.536   8.840
94406SOL    HW285116   5.145   3.636   8.742
94407SOL     OW85117   3.427  10.066  11.105
94407SOL    HW185118   3.373  10.046  11.181
94407SOL    HW285119   3.380  10.027  11.031
94408SOL     OW85120   2.452   5.576  10.848
94408SOL    HW185121   2.509   5.502  10.831
94408SOL    HW285122   2.485   5.645  10.790
94409SOL     OW85123  10.788   4.269  10.689
94409SOL    HW185124  10.853   4.264  10.758
94409SOL    HW285125  10.798   4.356  10.651
94410SOL     OW85126   7.209  10.517  12.567
94410SOL    HW185127   7.262  10.490  12.642
94410SOL    HW285128   7.266  10.505  12.491
94411SOL     OW85129   4.059   1.240  14.119
94411SOL    HW185130   4.096   1.182  14.185
94411SOL    HW285131   4.083   1.200  14.036
94412SOL     OW85132   9.212   5.784  10.422
94412SOL    HW185133   9.306   5.800  10.427
94412SOL    HW285134   9.172   5.861  10.463
94413SOL     OW85135   4.868   5.501  14.810
94413SOL    HW185136   4.807   5.492  14.736
94413SOL    HW285137   4.952   5.519  14.768
94414SOL     OW85138   7.270   4.236  13.652
94414SOL    HW185139   7.351   4.233  13.703
94414SOL    HW285140   7.298   4.223  13.562
94415SOL     OW85141   4.874  10.213   9.524
94415SOL    HW185142   4.844  10.243   9.609
94415SOL    HW285143   4.954  10.263   9.507
94416SOL     OW85144   8.489  11.010  12.132
94416SOL    HW185145   8.509  10.919  12.112
94416SOL    HW285146   8.527  11.024  12.219
94417SOL     OW85147   1.485   4.354   1.461
94417SOL    HW185148   1.511   4.358   1.369
94417SOL    HW285149   1.409   4.295   1.462
94418SOL     OW85150   0.670   7.078   2.354
94418SOL    HW185151   0.694   6.985   2.359
94418SOL    HW285152   0.622   7.085   2.271
94419SOL     OW85153   2.024   2.953   0.719
94419SOL    HW185154   1.944   2.902   0.727
94419SOL    HW285155   2.012   3.004   0.639
94420SOL     OW85156   9.167  10.432  12.295
94420SOL    HW185157   9.210  10.461  12.375
94420SOL    HW285158   9.179  10.337  12.295
94421SOL     OW85159   6.985   9.512   4.743
94421SOL    HW185160   6.955   9.592   4.701
94421SOL    HW285161   7.022   9.460   4.672
94422SOL     OW85162   7.151   9.006   5.281
94422SOL    HW185163   7.226   8.947   5.291
94422SOL    HW285164   7.132   9.005   5.188
94423SOL     OW85165   2.807   0.504   6.235
94423SOL    HW185166   2.768   0.483   6.150
94423SOL    HW285167   2.748   0.568   6.274
94424SOL     OW85168   5.598   1.709  13.172
94424SOL    HW185169   5.671   1.768  13.191
94424SOL    HW285170   5.639   1.623  13.162
94425SOL     OW85171  10.534   5.192   5.360
94425SOL    HW185172  10.550   5.199   5.266
94425SOL    HW285173  10.518   5.099   5.374
94426SOL     OW85174   8.432  10.040  10.631
94426SOL    HW185175   8.494  10.028  10.703
94426SOL    HW285176   8.354  10.077  10.672
94427SOL     OW85177   9.006   3.134   7.371
94427SOL    HW185178   9.032   3.043   7.388
94427SOL    HW285179   9.069   3.165   7.306
94428SOL     OW85180   4.987   6.154   8.884
94428SOL    HW185181   4.994   6.108   8.967
94428SOL    HW285182   4.989   6.247   8.907
94429SOL     OW85183   0.791  10.628  10.657
94429SOL    HW185184   0.703  10.592  10.664
94429SOL    HW285185   0.813  10.655  10.747
94430SOL     OW85186   6.611   1.527  10.565
94430SOL    HW185187   6.637   1.596  10.627
94430SOL    HW285188   6.694   1.493  10.531
94431SOL     OW85189   6.961  11.800  12.030
94431SOL    HW185190   6.971  11.711  11.997
94431SOL    HW285191   7.049  11.838  12.024
94432SOL     OW85192   8.403   2.945  14.711
94432SOL    HW185193   8.391   3.033  14.675
94432SOL    HW285194   8.426   2.891  14.636
94433SOL     OW85195   3.556  10.787   6.293
94433SOL    HW185196   3.561  10.845   6.217
94433SOL    HW285197   3.524  10.843   6.364
94434SOL     OW85198   6.904   1.582   0.527
94434SOL    HW185199   6.971   1.525   0.566
94434SOL    HW285200   6.835   1.523   0.499
94435SOL     OW85201  11.256   5.234   7.231
94435SOL    HW185202  11.346   5.254   7.260
94435SOL    HW285203  11.201   5.267   7.302
94436SOL     OW85204  12.659   7.586  10.833
94436SOL    HW185205  12.597   7.609  10.763
94436SOL    HW285206  12.621   7.625  10.912
94437SOL     OW85207  12.677   6.112   4.593
94437SOL    HW185208  12.612   6.045   4.572
94437SOL    HW285209  12.626   6.192   4.607
94438SOL     OW85210   0.740   0.141   3.055
94438SOL    HW185211   0.790   0.191   2.991
94438SOL    HW285212   0.676   0.203   3.090
94439SOL     OW85213   2.719  10.834   9.016
94439SOL    HW185214   2.793  10.799   9.066
94439SOL    HW285215   2.675  10.893   9.077
94440SOL     OW85216   4.807   6.296   0.281
94440SOL    HW185217   4.784   6.204   0.282
94440SOL    HW285218   4.740   6.339   0.334
94441SOL     OW85219   4.260  12.490   1.949
94441SOL    HW185220   4.315  12.543   2.008
94441SOL    HW285221   4.322  12.433   1.904
94442SOL     OW85222   9.974   3.621   6.781
94442SOL    HW185223   9.971   3.528   6.803
94442SOL    HW285224   9.965   3.666   6.865
94443SOL     OW85225  10.077   3.692   9.121
94443SOL    HW185226  10.124   3.726   9.197
94443SOL    HW285227  10.144   3.682   9.054
94444SOL     OW85228  10.655   5.879  12.847
94444SOL    HW185229  10.571   5.839  12.866
94444SOL    HW285230  10.713   5.850  12.918
94445SOL     OW85231   1.927  13.754   2.202
94445SOL    HW185232   2.006  13.714   2.238
94445SOL    HW285233   1.904  13.699   2.127
94446SOL     OW85234  10.363   4.732   1.525
94446SOL    HW185235  10.270   4.753   1.536
94446SOL    HW285236  10.366   4.636   1.531
94447SOL     OW85237  11.237   7.708  11.948
94447SOL    HW185238  11.269   7.789  11.909
94447SOL    HW285239  11.164   7.736  12.004
94448SOL     OW85240  14.346   6.207  11.852
94448SOL    HW185241  14.410   6.219  11.923
94448SOL    HW285242  14.284   6.279  11.862
94449SOL     OW85243  12.986  12.297   0.419
94449SOL    HW185244  13.039  12.360   0.370
94449SOL    HW285245  13.045  12.224   0.435
94450SOL     OW85246   2.040  13.456  13.865
94450SOL    HW185247   2.096  13.423  13.795
94450SOL    HW285248   1.957  13.475  13.823
94451SOL     OW85249   8.640   6.443   2.563
94451SOL    HW185250   8.635   6.440   2.658
94451SOL    HW285251   8.669   6.532   2.542
94452SOL     OW85252   6.834  12.541   5.568
94452SOL    HW185253   6.842  12.621   5.621
94452SOL    HW285254   6.818  12.472   5.633
94453SOL     OW85255  14.174   8.011   3.338
94453SOL    HW185256  14.084   8.037   3.358
94453SOL    HW285257  14.214   8.088   3.299
94454SOL     OW85258  10.792   5.710  10.025
94454SOL    HW185259  10.715   5.760   9.999
94454SOL    HW285260  10.791   5.633   9.968
94455SOL     OW85261   2.321  14.403  11.033
94455SOL    HW185262   2.331  14.318  11.075
94455SOL    HW285263   2.406  14.419  10.991
94456SOL     OW85264   1.877  11.902   7.428
94456SOL    HW185265   1.961  11.935   7.396
94456SOL    HW285266   1.898  11.813   7.459
94457SOL     OW85267   1.978  12.791  12.279
94457SOL    HW185268   2.042  12.722  12.262
94457SOL    HW285269   1.971  12.838  12.196
94458SOL     OW85270   7.029  10.431  10.465
94458SOL    HW185271   7.015  10.337  10.471
94458SOL    HW285272   6.963  10.469  10.523
94459SOL     OW85273   2.793   5.028  12.218
94459SOL    HW185274   2.788   5.013  12.312
94459SOL    HW285275   2.881   5.064  12.204
94460SOL     OW85276   4.439   5.385   9.545
94460SOL    HW185277   4.447   5.326   9.470
94460SOL    HW285278   4.521   5.433   9.545
94461SOL     OW85279   1.625  10.152  14.253
94461SOL    HW185280   1.716  10.170  14.275
94461SOL    HW285281   1.583  10.238  14.256
94462SOL     OW85282   7.408   2.269  14.084
94462SOL    HW185283   7.345   2.329  14.044
94462SOL    HW285284   7.420   2.200  14.018
94463SOL     OW85285   6.792  11.803  14.799
94463SOL    HW185286   6.700  11.813  14.825
94463SOL    HW285287   6.794  11.722  14.749
94464SOL     OW85288  13.166  12.472   8.341
94464SOL    HW185289  13.250  12.486   8.298
94464SOL    HW285290  13.188  12.457   8.433
94465SOL     OW85291   4.310   6.061   5.132
94465SOL    HW185292   4.375   6.091   5.068
94465SOL    HW285293   4.295   6.137   5.188
94466SOL     OW85294   4.051  13.762  10.554
94466SOL    HW185295   3.964  13.747  10.592
94466SOL    HW285296   4.051  13.712  10.473
94467SOL     OW85297   1.474   4.888   7.524
94467SOL    HW185298   1.497   4.980   7.536
94467SOL    HW285299   1.442   4.860   7.610
94468SOL     OW85300  10.828  12.888   8.369
94468SOL    HW185301  10.847  12.976   8.401
94468SOL    HW285302  10.797  12.841   8.446
94469SOL     OW85303  13.193  12.543  13.069
94469SOL    HW185304  13.103  12.515  13.048
94469SOL    HW285305  13.195  12.544  13.165
94470SOL     OW85306   1.268   4.883   6.963
94470SOL    HW185307   1.327   4.913   6.894
94470SOL    HW285308   1.181   4.908   6.933
94471SOL     OW85309   9.333   7.658   2.838
94471SOL    HW185310   9.244   7.654   2.875
94471SOL    HW285311   9.372   7.573   2.860
94472SOL     OW85312   4.430  14.857  13.421
94472SOL    HW185313   4.412  14.778  13.471
94472SOL    HW285314   4.416   0.052  13.482
94473SOL     OW85315   2.531   5.841   7.392
94473SOL    HW185316   2.586   5.894   7.333
94473SOL    HW285317   2.575   5.756   7.395
94474SOL     OW85318   0.452   6.822   8.686
94474SOL    HW185319   0.476   6.873   8.763
94474SOL    HW285320   0.535   6.799   8.645
94475SOL     OW85321  12.573  11.564   4.545
94475SOL    HW185322  12.590  11.645   4.594
94475SOL    HW285323  12.478  11.556   4.545
94476SOL     OW85324   0.792   5.851   4.024
94476SOL    HW185325   0.731   5.925   4.028
94476SOL    HW285326   0.748   5.787   3.968
94477SOL     OW85327   8.178   0.122   9.985
94477SOL    HW185328   8.101   0.178   9.982
94477SOL    HW285329   8.244   0.169   9.934
94478SOL     OW85330   1.342   0.251   5.237
94478SOL    HW185331   1.358   0.259   5.331
94478SOL    HW285332   1.251   0.279   5.226
94479SOL     OW85333  13.575  14.418   3.213
94479SOL    HW185334  13.492  14.401   3.257
94479SOL    HW285335  13.562  14.385   3.124
94480SOL     OW85336   2.004   6.728  10.449
94480SOL    HW185337   1.938   6.687  10.393
94480SOL    HW285338   1.955   6.763  10.522
94481SOL     OW85339   0.795  11.385  12.983
94481SOL    HW185340   0.744  11.452  13.029
94481SOL    HW285341   0.738  11.357  12.911
94482SOL     OW85342   9.747   7.869   4.170
94482SOL    HW185343   9.776   7.789   4.215
94482SOL    HW285344   9.732   7.932   4.240
94483SOL     OW85345  10.549   6.746   2.622
94483SOL    HW185346  10.557   6.666   2.673
94483SOL    HW285347  10.639   6.780   2.617
94484SOL     OW85348  13.963   0.264   7.879
94484SOL    HW185349  13.986   0.355   7.898
94484SOL    HW285350  13.868   0.263   7.877
94485SOL     OW85351   8.235  14.384   3.610
94485SOL    HW185352   8.305  14.324   3.585
94485SOL    HW285353   8.174  14.381   3.536
94486SOL     OW85354   8.588   7.187  12.361
94486SOL    HW185355   8.500   7.150  12.361
94486SOL    HW285356   8.623   7.166  12.275
94487SOL     OW85357  11.727  13.385  10.009
94487SOL    HW185358  11.815  13.348  10.000
94487SOL    HW285359  11.715  13.396  10.103
94488SOL     OW85360   3.277   8.083   6.965
94488SOL    HW185361   3.244   8.133   6.890
94488SOL    HW285362   3.214   8.101   7.035
94489SOL     OW85363   2.645  10.092  11.642
94489SOL    HW185364   2.679  10.148  11.572
94489SOL    HW285365   2.669  10.003  11.616
94490SOL     OW85366   1.335   7.574   5.694
94490SOL    HW185367   1.324   7.561   5.600
94490SOL    HW285368   1.397   7.647   5.701
94491SOL     OW85369   1.590  14.604  14.080
94491SOL    HW185370   1.683  14.627  14.085
94491SOL    HW285371   1.544  14.687  14.095
94492SOL     OW85372   0.908   0.838   9.073
94492SOL    HW185373   0.998   0.827   9.044
94492SOL    HW285374   0.856   0.821   8.994
94493SOL     OW85375   4.424  12.025   5.151
94493SOL    HW185376   4.330  12.028   5.167
94493SOL    HW285377   4.455  11.952   5.205
94494SOL     OW85378  10.471   6.334   6.245
94494SOL    HW185379  10.380   6.341   6.274
94494SOL    HW285380  10.521   6.332   6.326
94495SOL     OW85381   7.895  10.921  11.411
94495SOL    HW185382   7.841  10.982  11.360
94495SOL    HW285383   7.911  10.848  11.351
94496SOL     OW85384   8.176  11.336   8.640
94496SOL    HW185385   8.257  11.303   8.601
94496SOL    HW285386   8.204  11.377   8.722
94497SOL     OW85387  12.670  11.556   3.399
94497SOL    HW185388  12.688  11.487   3.335
94497SOL    HW285389  12.649  11.633   3.347
94498SOL     OW85390   8.591  13.514   3.698
94498SOL    HW185391   8.654  13.523   3.769
94498SOL    HW285392   8.642  13.531   3.618
94499SOL     OW85393   0.711  11.800   5.791
94499SOL    HW185394   0.645  11.846   5.739
94499SOL    HW285395   0.681  11.808   5.881
94500SOL     OW85396   7.114  14.100   9.424
94500SOL    HW185397   7.174  14.025   9.418
94500SOL    HW285398   7.151  14.165   9.364
94501SOL     OW85399   7.863  12.019   6.271
94501SOL    HW185400   7.851  12.040   6.178
94501SOL    HW285401   7.947  11.974   6.276
94502SOL     OW85402   0.792   6.894   9.094
94502SOL    HW185403   0.875   6.941   9.098
94502SOL    HW285404   0.800   6.836   9.018
94503SOL     OW85405   6.630   7.362   1.468
94503SOL    HW185406   6.611   7.439   1.522
94503SOL    HW285407   6.696   7.392   1.405
94504SOL     OW85408  13.619   0.066   5.897
94504SOL    HW185409  13.639  14.873   5.959
94504SOL    HW285410  13.550   0.030   5.842
94505SOL     OW85411   5.157  14.165   2.777
94505SOL    HW185412   5.194  14.117   2.703
94505SOL    HW285413   5.227  14.167   2.843
94506SOL     OW85414  10.340   0.750   9.971
94506SOL    HW185415  10.402   0.678   9.984
94506SOL    HW285416  10.391   0.817   9.927
94507SOL     OW85417  11.758   3.046   5.391
94507SOL    HW185418  11.771   3.067   5.483
94507SOL    HW285419  11.666   3.064   5.375
94508SOL     OW85420  11.630   4.154   0.503
94508SOL    HW185421  11.656   4.144   0.411
94508SOL    HW285422  11.565   4.085   0.517
94509SOL     OW85423   8.186   8.442   5.745
94509SOL    HW185424   8.177   8.535   5.768
94509SOL    HW285425   8.146   8.395   5.818
94510SOL     OW85426   0.143   8.327  14.544
94510SOL    HW185427   0.181   8.312  14.631
94510SOL    HW285428   0.165   8.417  14.523
94511SOL     OW85429   0.845   6.878   4.896
94511SOL    HW185430   0.915   6.937   4.869
94511SOL    HW285431   0.875   6.791   4.872
94512SOL     OW85432   4.712   2.293   0.189
94512SOL    HW185433   4.619   2.269   0.186
94512SOL    HW285434   4.743   2.261   0.274
94513SOL     OW85435   6.131   3.057   6.084
94513SOL    HW185436   6.221   3.025   6.089
94513SOL    HW285437   6.078   2.987   6.121
94514SOL     OW85438  12.926   8.716   5.842
94514SOL    HW185439  12.854   8.716   5.779
94514SOL    HW285440  12.966   8.802   5.833
94515SOL     OW85441  14.666   9.947  11.879
94515SOL    HW185442  14.618   9.941  11.961
94515SOL    HW285443  14.600   9.969  11.814
94516SOL     OW85444   7.121  11.111  10.923
94516SOL    HW185445   7.142  11.053  10.850
94516SOL    HW285446   7.068  11.057  10.982
94517SOL     OW85447   9.276  11.424  12.025
94517SOL    HW185448   9.293  11.476  12.103
94517SOL    HW285449   9.362  11.410  11.986
94518SOL     OW85450  13.726   2.259  14.548
94518SOL    HW185451  13.645   2.309  14.561
94518SOL    HW285452  13.705   2.171  14.580
94519SOL     OW85453  13.192  14.475   0.674
94519SOL    HW185454  13.134  14.548   0.657
94519SOL    HW285455  13.136  14.398   0.670
94520SOL     OW85456   0.876   4.078   7.042
94520SOL    HW185457   0.954   4.123   7.074
94520SOL    HW285458   0.823   4.147   7.003
94521SOL     OW85459  10.416  14.313   4.592
94521SOL    HW185460  10.495  14.285   4.547
94521SOL    HW285461  10.350  14.249   4.567
94522SOL     OW85462   2.872  14.381  14.832
94522SOL    HW185463   2.946  14.341  14.788
94522SOL    HW285464   2.836  14.312   0.010
94523SOL     OW85465   1.114   7.622   3.317
94523SOL    HW185466   1.193   7.668   3.287
94523SOL    HW285467   1.146   7.558   3.381
94524SOL     OW85468   2.018   5.774   9.800
94524SOL    HW185469   2.112   5.766   9.783
94524SOL    HW285470   1.978   5.782   9.713
94525SOL     OW85471   4.333   2.001   9.179
94525SOL    HW185472   4.325   2.078   9.235
94525SOL    HW285473   4.400   2.024   9.116
94526SOL     OW85474   8.416  11.221   9.477
94526SOL    HW185475   8.404  11.129   9.456
94526SOL    HW285476   8.496  11.246   9.431
94527SOL     OW85477   3.149  14.249   8.143
94527SOL    HW185478   3.239  14.266   8.169
94527SOL    HW285479   3.103  14.231   8.225
94528SOL     OW85480  13.511   6.681  13.379
94528SOL    HW185481  13.453   6.731  13.437
94528SOL    HW285482  13.519   6.595  13.421
94529SOL     OW85483   2.683   2.952   8.097
94529SOL    HW185484   2.743   3.015   8.056
94529SOL    HW285485   2.738   2.877   8.119
94530SOL     OW85486   0.988  10.371  10.736
94530SOL    HW185487   0.933  10.354  10.812
94530SOL    HW285488   0.935  10.341  10.662
94531SOL     OW85489  10.325   8.079   9.677
94531SOL    HW185490  10.300   8.164   9.639
94531SOL    HW285491  10.262   8.017   9.640
94532SOL     OW85492   0.095   1.019  10.820
94532SOL    HW185493   0.124   1.075  10.892
94532SOL    HW285494   0.012   1.057  10.792
94533SOL     OW85495  13.999   1.728  12.860
94533SOL    HW185496  13.909   1.732  12.892
94533SOL    HW285497  13.998   1.780  12.779
94534SOL     OW85498   6.637  14.425   7.890
94534SOL    HW185499   6.673  14.512   7.909
94534SOL    HW285500   6.677  14.368   7.956
94535SOL     OW85501  10.076   0.330  13.736
94535SOL    HW185502  10.025   0.391  13.788
94535SOL    HW285503  10.157   0.378  13.715
94536SOL     OW85504  10.486   4.636   7.832
94536SOL    HW185505  10.492   4.732   7.839
94536SOL    HW285506  10.395   4.620   7.809
94537SOL     OW85507  13.665   3.517   5.924
94537SOL    HW185508  13.714   3.600   5.928
94537SOL    HW285509  13.599   3.532   5.856
94538SOL     OW85510   5.028   9.536  13.711
94538SOL    HW185511   5.047   9.452  13.670
94538SOL    HW285512   4.953   9.570  13.663
94539SOL     OW85513   7.595  13.099   9.865
94539SOL    HW185514   7.525  13.041   9.897
94539SOL    HW285515   7.657  13.103   9.938
94540SOL     OW85516   5.684  13.795  10.343
94540SOL    HW185517   5.641  13.807  10.259
94540SOL    HW285518   5.657  13.707  10.372
94541SOL     OW85519   5.334   4.652  14.540
94541SOL    HW185520   5.303   4.739  14.564
94541SOL    HW285521   5.391   4.667  14.465
94542SOL     OW85522   6.613   6.122   6.633
94542SOL    HW185523   6.647   6.196   6.684
94542SOL    HW285524   6.691   6.077   6.601
94543SOL     OW85525   0.249   0.489  12.364
94543SOL    HW185526   0.218   0.575  12.336
94543SOL    HW285527   0.174   0.431  12.352
94544SOL     OW85528   7.604   0.082   6.065
94544SOL    HW185529   7.619   0.151   6.129
94544SOL    HW285530   7.550   0.123   5.997
94545SOL     OW85531   3.229  13.516   4.603
94545SOL    HW185532   3.290  13.589   4.593
94545SOL    HW285533   3.191  13.529   4.690
94546SOL     OW85534   7.941   8.262   1.035
94546SOL    HW185535   7.921   8.355   1.028
94546SOL    HW285536   7.997   8.255   1.113
94547SOL     OW85537   5.561   5.011   1.082
94547SOL    HW185538   5.499   5.077   1.052
94547SOL    HW285539   5.629   5.008   1.015
94548SOL     OW85540   9.812   1.479   9.540
94548SOL    HW185541   9.884   1.465   9.602
94548SOL    HW285542   9.835   1.425   9.464
94549SOL     OW85543  12.833   1.981   1.205
94549SOL    HW185544  12.899   1.957   1.139
94549SOL    HW285545  12.826   2.077   1.196
94550SOL     OW85546   8.927  13.756  14.825
94550SOL    HW185547   8.937  13.665  14.798
94550SOL    HW285548   9.015  13.793  14.814
94551SOL     OW85549   8.236   0.639  11.007
94551SOL    HW185550   8.248   0.721  11.056
94551SOL    HW285551   8.250   0.664  10.916
94552SOL     OW85552   4.008   8.693  11.912
94552SOL    HW185553   3.959   8.774  11.900
94552SOL    HW285554   3.942   8.629  11.940
94553SOL     OW85555   4.717  14.799   2.793
94553SOL    HW185556   4.725  14.713   2.753
94553SOL    HW285557   4.652  14.787   2.863
94554SOL     OW85558  13.411   9.735  13.434
94554SOL    HW185559  13.421   9.645  13.402
94554SOL    HW285560  13.465   9.739  13.513
94555SOL     OW85561   5.739   4.036   2.552
94555SOL    HW185562   5.831   4.010   2.553
94555SOL    HW285563   5.732   4.102   2.622
94556SOL     OW85564   5.718  13.860   9.373
94556SOL    HW185565   5.771  13.891   9.447
94556SOL    HW285566   5.634  13.904   9.383
94557SOL     OW85567   9.314   7.445   1.251
94557SOL    HW185568   9.234   7.459   1.301
94557SOL    HW285569   9.290   7.381   1.184
94558SOL     OW85570   4.135   0.419   1.668
94558SOL    HW185571   4.174   0.435   1.754
94558SOL    HW285572   4.208   0.427   1.607
94559SOL     OW85573   2.404  10.203   8.673
94559SOL    HW185574   2.460  10.127   8.656
94559SOL    HW285575   2.389  10.242   8.587
94560SOL     OW85576  13.044   9.368   5.564
94560SOL    HW185577  13.112   9.305   5.542
94560SOL    HW285578  12.962   9.322   5.549
94561SOL     OW85579   4.463   8.541  11.286
94561SOL    HW185580   4.367   8.541  11.285
94561SOL    HW285581   4.486   8.587  11.367
94562SOL     OW85582   6.882   7.677   9.813
94562SOL    HW185583   6.974   7.649   9.810
94562SOL    HW285584   6.845   7.644   9.732
94563SOL     OW85585  13.924   7.303   1.182
94563SOL    HW185586  13.858   7.365   1.150
94563SOL    HW285587  13.876   7.221   1.195
94564SOL     OW85588  12.049   8.883   8.227
94564SOL    HW185589  12.050   8.888   8.322
94564SOL    HW285590  12.138   8.859   8.202
94565SOL     OW85591   3.132  12.705   4.644
94565SOL    HW185592   3.175  12.727   4.726
94565SOL    HW285593   3.049  12.752   4.647
94566SOL     OW85594   0.044   0.007   8.715
94566SOL    HW185595   0.058  14.805   8.664
94566SOL    HW285596   0.112   0.004   8.783
94567SOL     OW85597  13.401   4.893   1.308
94567SOL    HW185598  13.312   4.863   1.323
94567SOL    HW285599  13.395   4.988   1.313
94568SOL     OW85600   6.091   5.499   1.471
94568SOL    HW185601   6.010   5.449   1.458
94568SOL    HW285602   6.112   5.485   1.564
94569SOL     OW85603   9.786   7.406  11.073
94569SOL    HW185604   9.866   7.427  11.025
94569SOL    HW285605   9.791   7.458  11.153
94570SOL     OW85606  11.008  12.978   3.479
94570SOL    HW185607  10.938  13.042   3.478
94570SOL    HW285608  11.037  12.973   3.388
94571SOL     OW85609   3.938   6.219  13.409
94571SOL    HW185610   4.022   6.192  13.447
94571SOL    HW285611   3.901   6.278  13.474
94572SOL     OW85612  14.425  11.916   4.899
94572SOL    HW185613  14.474  11.998   4.904
94572SOL    HW285614  14.340  11.940   4.864
94573SOL     OW85615  13.297   7.774   5.284
94573SOL    HW185616  13.269   7.739   5.369
94573SOL    HW285617  13.375   7.724   5.262
94574SOL     OW85618   5.596   5.552   1.091
94574SOL    HW185619   5.591   5.639   1.052
94574SOL    HW285620   5.538   5.498   1.037
94575SOL     OW85621   0.565  10.683   3.803
94575SOL    HW185622   0.483  10.638   3.822
94575SOL    HW285623   0.554  10.720   3.716
94576SOL     OW85624   9.798  14.610   7.859
94576SOL    HW185625   9.849  14.545   7.810
94576SOL    HW285626   9.708  14.578   7.855
94577SOL     OW85627  14.846   9.572   8.316
94577SOL    HW185628  14.840   9.507   8.246
94577SOL    HW285629  14.774   9.550   8.376
94578SOL     OW85630  13.546   9.394   8.537
94578SOL    HW185631  13.582   9.466   8.487
94578SOL    HW285632  13.461   9.426   8.568
94579SOL     OW85633   2.031  12.080   2.944
94579SOL    HW185634   2.104  12.037   2.988
94579SOL    HW285635   2.055  12.081   2.851
94580SOL     OW85636   1.407   7.913   7.183
94580SOL    HW185637   1.460   7.869   7.248
94580SOL    HW285638   1.318   7.912   7.219
94581SOL     OW85639  10.016  11.191   5.760
94581SOL    HW185640  10.075  11.255   5.801
94581SOL    HW285641  10.017  11.116   5.819
94582SOL     OW85642   5.261   6.521   2.084
94582SOL    HW185643   5.179   6.570   2.084
94582SOL    HW285644   5.330   6.588   2.086
94583SOL     OW85645   6.011   9.699   1.932
94583SOL    HW185646   6.046   9.625   1.881
94583SOL    HW285647   5.991   9.766   1.866
94584SOL     OW85648   4.558   3.007   7.832
94584SOL    HW185649   4.579   3.019   7.739
94584SOL    HW285650   4.551   2.912   7.842
94585SOL     OW85651   6.440   6.774   9.301
94585SOL    HW185652   6.469   6.782   9.210
94585SOL    HW285653   6.383   6.850   9.315
94586SOL     OW85654   4.743  13.527  11.482
94586SOL    HW185655   4.670  13.465  11.484
94586SOL    HW285656   4.818  13.477  11.517
94587SOL     OW85657   9.635  13.891   6.410
94587SOL    HW185658   9.674  13.948   6.343
94587SOL    HW285659   9.702  13.825   6.429
94588SOL     OW85660   6.333   7.509  14.531
94588SOL    HW185661   6.363   7.513  14.621
94588SOL    HW285662   6.259   7.570  14.527
94589SOL     OW85663   0.210   1.117   9.781
94589SOL    HW185664   0.303   1.114   9.760
94589SOL    HW285665   0.201   1.066   9.861
94590SOL     OW85666   4.203   1.699   2.389
94590SOL    HW185667   4.206   1.708   2.484
94590SOL    HW285668   4.168   1.783   2.358
94591SOL     OW85669   9.909  10.596   1.721
94591SOL    HW185670   9.946  10.573   1.636
94591SOL    HW285671   9.984  10.600   1.780
94592SOL     OW85672   5.028  12.911   4.276
94592SOL    HW185673   5.090  12.903   4.204
94592SOL    HW285674   5.071  12.967   4.339
94593SOL     OW85675  10.329   5.276   4.956
94593SOL    HW185676  10.280   5.194   4.956
94593SOL    HW285677  10.286   5.329   4.888
94594SOL     OW85678   8.675   2.184   7.230
94594SOL    HW185679   8.726   2.258   7.198
94594SOL    HW285680   8.627   2.218   7.306
94595SOL     OW85681   3.227   7.314   7.024
94595SOL    HW185682   3.155   7.377   7.033
94595SOL    HW285683   3.191   7.245   6.968
94596SOL     OW85684   9.907   9.470  14.799
94596SOL    HW185685   9.995   9.436  14.815
94596SOL    HW285686   9.915   9.521  14.719
94597SOL     OW85687   8.375   5.065   0.264
94597SOL    HW185688   8.316   5.047   0.337
94597SOL    HW285689   8.431   5.137   0.294
94598SOL     OW85690  12.040   4.062   1.240
94598SOL    HW185691  12.103   4.002   1.280
94598SOL    HW285692  12.091   4.110   1.175
94599SOL     OW85693   5.822   1.527   4.863
94599SOL    HW185694   5.800   1.462   4.797
94599SOL    HW285695   5.891   1.580   4.823
94600SOL     OW85696   5.212  11.939   1.642
94600SOL    HW185697   5.136  11.897   1.682
94600SOL    HW285698   5.275  11.949   1.713
94601SOL     OW85699   8.869   1.825  12.756
94601SOL    HW185700   8.878   1.842  12.662
94601SOL    HW285701   8.776   1.835  12.774
94602SOL     OW85702   8.303   6.489   8.652
94602SOL    HW185703   8.262   6.435   8.584
94602SOL    HW285704   8.230   6.537   8.692
94603SOL     OW85705  13.649   4.405   8.683
94603SOL    HW185706  13.672   4.411   8.776
94603SOL    HW285707  13.588   4.478   8.669
94604SOL     OW85708   9.715   0.723   6.611
94604SOL    HW185709   9.774   0.688   6.678
94604SOL    HW285710   9.770   0.731   6.532
94605SOL     OW85711   3.794   2.856   8.703
94605SOL    HW185712   3.780   2.930   8.644
94605SOL    HW285713   3.712   2.849   8.752
94606SOL     OW85714   4.968  13.411   1.341
94606SOL    HW185715   4.989  13.483   1.282
94606SOL    HW285716   4.925  13.346   1.285
94607SOL     OW85717   8.198   8.697   4.164
94607SOL    HW185718   8.120   8.716   4.112
94607SOL    HW285719   8.260   8.658   4.101
94608SOL     OW85720  10.133   6.854  10.349
94608SOL    HW185721  10.152   6.847  10.443
94608SOL    HW285722  10.218   6.871  10.309
94609SOL     OW85723   3.842   4.499  11.577
94609SOL    HW185724   3.930   4.514  11.612
94609SOL    HW285725   3.794   4.458  11.649
94610SOL     OW85726  11.258   0.889  14.001
94610SOL    HW185727  11.207   0.923  14.075
94610SOL    HW285728  11.206   0.816  13.967
94611SOL     OW85729   3.266   3.979   6.873
94611SOL    HW185730   3.332   3.962   6.940
94611SOL    HW285731   3.314   4.026   6.804
94612SOL     OW85732   2.356   7.946  11.532
94612SOL    HW185733   2.442   7.965  11.569
94612SOL    HW285734   2.353   7.850  11.527
94613SOL     OW85735  13.379  10.674  10.328
94613SOL    HW185736  13.415  10.725  10.256
94613SOL    HW285737  13.452  10.664  10.389
94614SOL     OW85738   6.800  10.875   3.921
94614SOL    HW185739   6.848  10.794   3.904
94614SOL    HW285740   6.861  10.944   3.897
94615SOL     OW85741   7.119   9.710   5.674
94615SOL    HW185742   7.104   9.699   5.580
94615SOL    HW285743   7.189   9.775   5.680
94616SOL     OW85744  10.209   5.036   4.961
94616SOL    HW185745  10.243   4.951   4.934
94616SOL    HW285746  10.170   5.020   5.047
94617SOL     OW85747  11.878   2.635   2.218
94617SOL    HW185748  11.846   2.639   2.128
94617SOL    HW285749  11.803   2.604   2.269
94618SOL     OW85750  10.921  14.340   7.170
94618SOL    HW185751  10.859  14.269   7.156
94618SOL    HW285752  10.928  14.383   7.085
94619SOL     OW85753   3.016  13.534   4.216
94619SOL    HW185754   2.961  13.455   4.217
94619SOL    HW285755   2.980  13.587   4.144
94620SOL     OW85756   2.549   9.268   8.547
94620SOL    HW185757   2.547   9.177   8.575
94620SOL    HW285758   2.457   9.291   8.531
94621SOL     OW85759  14.424   0.622   2.633
94621SOL    HW185760  14.507   0.645   2.675
94621SOL    HW285761  14.371   0.702   2.638
94622SOL     OW85762   9.791   4.021  11.668
94622SOL    HW185763   9.833   3.948  11.714
94622SOL    HW285764   9.743   4.068  11.736
94623SOL     OW85765   8.357   6.786   5.812
94623SOL    HW185766   8.334   6.717   5.749
94623SOL    HW285767   8.287   6.783   5.877
94624SOL     OW85768   8.359   9.283   3.509
94624SOL    HW185769   8.351   9.277   3.605
94624SOL    HW285770   8.283   9.335   3.482
94625SOL     OW85771   3.306  13.849   9.431
94625SOL    HW185772   3.343  13.934   9.457
94625SOL    HW285773   3.268  13.865   9.345
94626SOL     OW85774  13.962   6.951   8.268
94626SOL    HW185775  13.989   6.906   8.347
94626SOL    HW285776  14.031   6.932   8.204
94627SOL     OW85777   1.651   4.403  13.263
94627SOL    HW185778   1.704   4.327  13.241
94627SOL    HW285779   1.711   4.478  13.253
94628SOL     OW85780   0.656  13.446   3.412
94628SOL    HW185781   0.734  13.472   3.363
94628SOL    HW285782   0.676  13.470   3.502
94629SOL     OW85783   4.932  10.620   1.024
94629SOL    HW185784   4.946  10.632   1.118
94629SOL    HW285785   5.019  10.626   0.985
94630SOL     OW85786  13.564   7.434   0.388
94630SOL    HW185787  13.571   7.514   0.336
94630SOL    HW285788  13.520   7.371   0.331
94631SOL     OW85789   9.639   5.204   6.715
94631SOL    HW185790   9.727   5.168   6.701
94631SOL    HW285791   9.654   5.286   6.763
94632SOL     OW85792   1.801   8.854   6.630
94632SOL    HW185793   1.745   8.885   6.700
94632SOL    HW285794   1.819   8.763   6.652
94633SOL     OW85795  11.496   2.558  14.117
94633SOL    HW185796  11.557   2.508  14.171
94633SOL    HW285797  11.462   2.626  14.175
94634SOL     OW85798   2.470   3.212   7.242
94634SOL    HW185799   2.461   3.238   7.333
94634SOL    HW285800   2.564   3.216   7.224
94635SOL     OW85801  10.629   5.165   3.484
94635SOL    HW185802  10.550   5.173   3.537
94635SOL    HW285803  10.652   5.072   3.490
94636SOL     OW85804   9.395   7.994   7.482
94636SOL    HW185805   9.463   7.963   7.542
94636SOL    HW285806   9.396   8.089   7.491
94637SOL     OW85807   0.939   4.699   5.892
94637SOL    HW185808   0.935   4.696   5.796
94637SOL    HW285809   1.016   4.648   5.915
94638SOL     OW85810   6.208  11.269   6.162
94638SOL    HW185811   6.288  11.236   6.203
94638SOL    HW285812   6.152  11.296   6.235
94639SOL     OW85813   1.072   0.662   0.283
94639SOL    HW185814   1.035   0.710   0.209
94639SOL    HW285815   1.021   0.582   0.288
94640SOL     OW85816  10.877  10.968  13.741
94640SOL    HW185817  10.788  10.954  13.708
94640SOL    HW285818  10.866  10.973  13.836
94641SOL     OW85819   7.592   2.200   5.292
94641SOL    HW185820   7.665   2.243   5.335
94641SOL    HW285821   7.594   2.231   5.202
94642SOL     OW85822   2.717   4.859   4.864
94642SOL    HW185823   2.656   4.836   4.793
94642SOL    HW285824   2.752   4.775   4.893
94643SOL     OW85825   1.854   7.405   2.369
94643SOL    HW185826   1.883   7.389   2.458
94643SOL    HW285827   1.877   7.326   2.320
94644SOL     OW85828  13.107   6.882  10.003
94644SOL    HW185829  13.144   6.964  10.034
94644SOL    HW285830  13.170   6.815  10.030
94645SOL     OW85831   8.376   7.106   2.442
94645SOL    HW185832   8.312   7.066   2.384
94645SOL    HW285833   8.382   7.196   2.413
94646SOL     OW85834  14.080   6.435   6.824
94646SOL    HW185835  14.090   6.486   6.744
94646SOL    HW285836  14.038   6.354   6.796
94647SOL     OW85837   3.381   0.236  14.172
94647SOL    HW185838   3.448   0.168  14.163
94647SOL    HW285839   3.298   0.188  14.172
94648SOL     OW85840   9.550   0.259   3.610
94648SOL    HW185841   9.555   0.166   3.633
94648SOL    HW285842   9.530   0.258   3.516
94649SOL     OW85843   2.550  11.463   1.520
94649SOL    HW185844   2.639  11.494   1.532
94649SOL    HW285845   2.500  11.542   1.498
94650SOL     OW85846  11.230   6.251   1.316
94650SOL    HW185847  11.314   6.231   1.275
94650SOL    HW285848  11.242   6.227   1.408
94651SOL     OW85849   7.529  14.673   0.897
94651SOL    HW185850   7.612  14.710   0.866
94651SOL    HW285851   7.536  14.674   0.993
94652SOL     OW85852  14.472   2.053   7.316
94652SOL    HW185853  14.505   2.051   7.406
94652SOL    HW285854  14.547   2.077   7.263
94653SOL     OW85855   4.888   7.534  13.817
94653SOL    HW185856   4.849   7.614  13.781
94653SOL    HW285857   4.814   7.474  13.826
94654SOL     OW85858   5.083   2.736   1.657
94654SOL    HW185859   5.072   2.640   1.658
94654SOL    HW285860   5.163   2.751   1.708
94655SOL     OW85861   1.263   8.623  13.917
94655SOL    HW185862   1.328   8.644  13.850
94655SOL    HW285863   1.267   8.528  13.925
94656SOL     OW85864  11.140  14.133   2.302
94656SOL    HW185865  11.189  14.200   2.350
94656SOL    HW285866  11.084  14.183   2.242
94657SOL     OW85867  13.512   7.606   1.687
94657SOL    HW185868  13.455   7.675   1.653
94657SOL    HW285869  13.482   7.592   1.777
94658SOL     OW85870   2.887   0.480   0.853
94658SOL    HW185871   2.943   0.454   0.926
94658SOL    HW285872   2.944   0.532   0.796
94659SOL     OW85873   6.850  14.502   1.682
94659SOL    HW185874   6.866  14.423   1.631
94659SOL    HW285875   6.774  14.543   1.642
94660SOL     OW85876   5.348  12.746   6.553
94660SOL    HW185877   5.346  12.808   6.626
94660SOL    HW285878   5.302  12.791   6.482
94661SOL     OW85879   8.400   5.543  10.082
94661SOL    HW185880   8.384   5.459  10.125
94661SOL    HW285881   8.396   5.523   9.989
94662SOL     OW85882   3.915   8.497   0.770
94662SOL    HW185883   3.865   8.560   0.823
94662SOL    HW285884   3.862   8.486   0.691
94663SOL     OW85885   3.897   6.261  14.766
94663SOL    HW185886   3.841   6.284  14.840
94663SOL    HW285887   3.841   6.272  14.689
94664SOL     OW85888   8.916   1.134  13.669
94664SOL    HW185889   8.983   1.066  13.669
94664SOL    HW285890   8.833   1.086  13.667
94665SOL     OW85891  14.309   3.123   2.206
94665SOL    HW185892  14.320   3.218   2.204
94665SOL    HW285893  14.393   3.089   2.173
94666SOL     OW85894   5.186   9.065   6.477
94666SOL    HW185895   5.128   8.989   6.486
94666SOL    HW285896   5.196   9.075   6.382
94667SOL     OW85897   3.323  13.968  12.906
94667SOL    HW185898   3.255  14.016  12.859
94667SOL    HW285899   3.395  13.961  12.843
94668SOL     OW85900   7.674  12.159   2.307
94668SOL    HW185901   7.662  12.205   2.224
94668SOL    HW285902   7.693  12.228   2.370
94669SOL     OW85903  14.789   0.610   1.276
94669SOL    HW185904  14.822   0.529   1.316
94669SOL    HW285905  14.779   0.671   1.349
94670SOL     OW85906   8.728  11.011   7.533
94670SOL    HW185907   8.817  10.990   7.503
94670SOL    HW285908   8.686  11.053   7.458
94671SOL     OW85909  14.108   2.445   1.256
94671SOL    HW185910  14.190   2.456   1.304
94671SOL    HW285911  14.134   2.444   1.164
94672SOL     OW85912   4.986   7.931   0.317
94672SOL    HW185913   4.951   8.011   0.357
94672SOL    HW285914   5.011   7.956   0.229
94673SOL     OW85915   4.253   3.759   1.443
94673SOL    HW185916   4.175   3.799   1.481
94673SOL    HW285917   4.224   3.726   1.358
94674SOL     OW85918   1.341   3.310  14.388
94674SOL    HW185919   1.362   3.263  14.307
94674SOL    HW285920   1.266   3.364  14.365
94675SOL     OW85921   8.738  10.026   3.744
94675SOL    HW185922   8.671   9.999   3.806
94675SOL    HW285923   8.818   9.986   3.776
94676SOL     OW85924   7.225   1.218   0.501
94676SOL    HW185925   7.166   1.157   0.456
94676SOL    HW285926   7.267   1.267   0.431
94677SOL     OW85927   2.126   7.040  10.154
94677SOL    HW185928   2.048   7.039  10.210
94677SOL    HW285929   2.175   7.116  10.184
94678SOL     OW85930  11.031  10.482   0.025
94678SOL    HW185931  11.122  10.509   0.009
94678SOL    HW285932  11.009  10.521   0.110
94679SOL     OW85933   2.169   5.469  14.791
94679SOL    HW185934   2.132   5.381  14.785
94679SOL    HW285935   2.264   5.455  14.801
94680SOL     OW85936   4.364  10.337   1.572
94680SOL    HW185937   4.313  10.290   1.506
94680SOL    HW285938   4.405  10.409   1.525
94681SOL     OW85939  10.660   6.772  10.561
94681SOL    HW185940  10.643   6.693  10.613
94681SOL    HW285941  10.715   6.742  10.489
94682SOL     OW85942   8.727  14.787   9.922
94682SOL    HW185943   8.703  14.819   9.835
94682SOL    HW285944   8.702  14.858   9.982
94683SOL     OW85945   1.323   4.767   9.765
94683SOL    HW185946   1.317   4.784   9.859
94683SOL    HW285947   1.253   4.704   9.747
94684SOL     OW85948   4.692  14.560  12.325
94684SOL    HW185949   4.688  14.537  12.232
94684SOL    HW285950   4.683  14.476  12.370
94685SOL     OW85951   6.663  11.131   6.003
94685SOL    HW185952   6.578  11.101   5.973
94685SOL    HW285953   6.648  11.221   6.033
94686SOL     OW85954  10.167  14.701   6.292
94686SOL    HW185955  10.259  14.722   6.275
94686SOL    HW285956  10.138  14.767   6.354
94687SOL     OW85957   2.956  10.359   3.453
94687SOL    HW185958   2.967  10.454   3.459
94687SOL    HW285959   2.938  10.344   3.360
94688SOL     OW85960   5.744  12.326   8.528
94688SOL    HW185961   5.717  12.381   8.454
94688SOL    HW285962   5.663  12.311   8.577
94689SOL     OW85963   7.860   2.057   7.210
94689SOL    HW185964   7.850   2.134   7.154
94689SOL    HW285965   7.783   2.004   7.193
94690SOL     OW85966   6.449  12.694  14.157
94690SOL    HW185967   6.373  12.637  14.139
94690SOL    HW285968   6.461  12.743  14.076
94691SOL     OW85969   1.758   9.407   2.659
94691SOL    HW185970   1.823   9.460   2.706
94691SOL    HW285971   1.703   9.470   2.614
94692SOL     OW85972   0.571   5.533   8.920
94692SOL    HW185973   0.558   5.507   9.011
94692SOL    HW285974   0.647   5.483   8.891
94693SOL     OW85975   5.172   7.724  10.210
94693SOL    HW185976   5.102   7.737  10.274
94693SOL    HW285977   5.201   7.813  10.188
94694SOL     OW85978   9.699   9.441  10.714
94694SOL    HW185979   9.753   9.364  10.700
94694SOL    HW285980   9.675   9.470  10.626
94695SOL     OW85981  10.453  11.697  11.049
94695SOL    HW185982  10.363  11.721  11.028
94695SOL    HW285983  10.499  11.704  10.965
94696SOL     OW85984  13.552   3.452  13.480
94696SOL    HW185985  13.631   3.413  13.444
94696SOL    HW285986  13.582   3.503  13.554
94697SOL     OW85987  12.483   4.287   4.209
94697SOL    HW185988  12.420   4.220   4.233
94697SOL    HW285989  12.472   4.355   4.276
94698SOL     OW85990   1.972   0.179   3.209
94698SOL    HW185991   2.046   0.140   3.164
94698SOL    HW285992   1.946   0.254   3.155
94699SOL     OW85993   2.749   1.843   6.924
94699SOL    HW185994   2.759   1.938   6.916
94699SOL    HW285995   2.839   1.810   6.929
94700SOL     OW85996   0.510   1.475  13.949
94700SOL    HW185997   0.552   1.433  13.875
94700SOL    HW285998   0.420   1.489  13.920
94701SOL     OW85999   3.561  14.163   7.631
94701SOL    HW186000   3.610  14.191   7.554
94701SOL    HW286001   3.505  14.092   7.600
94702SOL     OW86002   8.341  11.404   4.336
94702SOL    HW186003   8.431  11.383   4.360
94702SOL    HW286004   8.313  11.330   4.282
94703SOL     OW86005   8.278  10.965   1.701
94703SOL    HW186006   8.239  10.932   1.781
94703SOL    HW286007   8.301  11.056   1.721
94704SOL     OW86008  10.022   3.625   5.738
94704SOL    HW186009  10.058   3.542   5.767
94704SOL    HW286010  10.098   3.680   5.720
94705SOL     OW86011  11.235   3.384  13.539
94705SOL    HW186012  11.268   3.301  13.504
94705SOL    HW286013  11.273   3.451  13.482
94706SOL     OW86014  11.748  12.067   8.307
94706SOL    HW186015  11.667  12.096   8.351
94706SOL    HW286016  11.810  12.054   8.379
94707SOL     OW86017   4.009   0.100   1.960
94707SOL    HW186018   3.955   0.152   1.900
94707SOL    HW286019   4.089   0.151   1.971
94708SOL     OW86020  11.558   8.853   9.146
94708SOL    HW186021  11.520   8.773   9.109
94708SOL    HW286022  11.645   8.827   9.175
94709SOL     OW86023   6.512   9.474  10.312
94709SOL    HW186024   6.596   9.450  10.272
94709SOL    HW286025   6.454   9.489  10.237
94710SOL     OW86026  11.687  12.052  10.251
94710SOL    HW186027  11.725  12.115  10.312
94710SOL    HW286028  11.690  11.969  10.297
94711SOL     OW86029  10.299   2.687  12.627
94711SOL    HW186030  10.339   2.609  12.666
94711SOL    HW286031  10.372   2.732  12.583
94712SOL     OW86032   0.486   3.360   0.017
94712SOL    HW186033   0.523   3.406  14.819
94712SOL    HW286034   0.496   3.421   0.090
94713SOL     OW86035   3.019   8.395   7.057
94713SOL    HW186036   3.078   8.330   7.018
94713SOL    HW286037   2.934   8.378   7.016
94714SOL     OW86038   5.415   9.882   2.203
94714SOL    HW186039   5.338   9.835   2.235
94714SOL    HW286040   5.489   9.825   2.223
94715SOL     OW86041  13.280  14.067   9.262
94715SOL    HW186042  13.252  14.158   9.271
94715SOL    HW286043  13.269  14.048   9.169
94716SOL     OW86044  13.043   2.348   0.582
94716SOL    HW186045  12.987   2.423   0.601
94716SOL    HW286046  12.985   2.286   0.537
94717SOL     OW86047   7.056   3.827   6.917
94717SOL    HW186048   7.088   3.751   6.869
94717SOL    HW286049   7.072   3.901   6.858
94718SOL     OW86050   7.504   1.025   6.943
94718SOL    HW186051   7.415   1.022   6.978
94718SOL    HW286052   7.492   1.028   6.848
94719SOL     OW86053  10.314   2.027  11.833
94719SOL    HW186054  10.260   1.982  11.768
94719SOL    HW286055  10.371   2.084  11.781
94720SOL     OW86056   1.344   4.860   5.674
94720SOL    HW186057   1.404   4.907   5.732
94720SOL    HW286058   1.292   4.805   5.732
94721SOL     OW86059   3.089   7.906   3.296
94721SOL    HW186060   3.081   8.001   3.289
94721SOL    HW286061   3.001   7.876   3.316
94722SOL     OW86062   5.890   0.793   0.725
94722SOL    HW186063   5.846   0.878   0.717
94722SOL    HW286064   5.821   0.733   0.754
94723SOL     OW86065   3.354   9.000   0.581
94723SOL    HW186066   3.425   8.955   0.537
94723SOL    HW286067   3.303   8.930   0.623
94724SOL     OW86068   9.535   0.929   7.452
94724SOL    HW186069   9.577   1.004   7.408
94724SOL    HW286070   9.456   0.913   7.402
94725SOL     OW86071   9.058   3.875   4.964
94725SOL    HW186072   9.069   3.956   4.914
94725SOL    HW286073   8.966   3.853   4.954
94726SOL     OW86074  14.547   1.369  14.492
94726SOL    HW186075  14.499   1.305  14.545
94726SOL    HW286076  14.629   1.325  14.470
94727SOL     OW86077   4.181  13.251   2.607
94727SOL    HW186078   4.179  13.300   2.525
94727SOL    HW286079   4.181  13.159   2.580
94728SOL     OW86080  13.855   4.108  12.774
94728SOL    HW186081  13.865   4.115  12.679
94728SOL    HW286082  13.780   4.163  12.794
94729SOL     OW86083   8.353   7.388   7.059
94729SOL    HW186084   8.306   7.367   6.978
94729SOL    HW286085   8.337   7.482   7.072
94730SOL     OW86086  10.401   9.557   5.402
94730SOL    HW186087  10.428   9.570   5.493
94730SOL    HW286088  10.402   9.644   5.364
94731SOL     OW86089   1.021  12.287   7.795
94731SOL    HW186090   1.106  12.256   7.764
94731SOL    HW286091   0.965  12.285   7.718
94732SOL     OW86092   0.943  11.250   5.227
94732SOL    HW186093   0.958  11.160   5.195
94732SOL    HW286094   0.906  11.296   5.152
94733SOL     OW86095   4.091   5.889  11.282
94733SOL    HW186096   4.128   5.862  11.198
94733SOL    HW286097   3.996   5.885  11.268
94734SOL     OW86098   4.369  10.188  10.786
94734SOL    HW186099   4.455  10.157  10.757
94734SOL    HW286100   4.330  10.113  10.830
94735SOL     OW86101   3.640  14.206   5.804
94735SOL    HW186102   3.686  14.184   5.885
94735SOL    HW286103   3.555  14.162   5.812
94736SOL     OW86104   4.636   5.705  10.321
94736SOL    HW186105   4.721   5.747  10.312
94736SOL    HW286106   4.647   5.618  10.283
94737SOL     OW86107   6.752   4.051   8.993
94737SOL    HW186108   6.846   4.069   8.993
94737SOL    HW286109   6.713   4.122   9.043
94738SOL     OW86110   9.290   8.916   1.165
94738SOL    HW186111   9.354   8.924   1.235
94738SOL    HW286112   9.330   8.856   1.102
94739SOL     OW86113  13.380   6.130   2.935
94739SOL    HW186114  13.289   6.111   2.912
94739SOL    HW286115  13.407   6.056   2.989
94740SOL     OW86116   3.552   1.395   0.738
94740SOL    HW186117   3.460   1.382   0.762
94740SOL    HW286118   3.557   1.486   0.710
94741SOL     OW86119  10.238  11.624   9.171
94741SOL    HW186120  10.203  11.668   9.248
94741SOL    HW286121  10.297  11.557   9.206
94742SOL     OW86122  12.768   2.565  11.642
94742SOL    HW186123  12.849   2.587  11.598
94742SOL    HW286124  12.793   2.550  11.733
94743SOL     OW86125   3.105   4.464   3.339
94743SOL    HW186126   3.171   4.533   3.340
94743SOL    HW286127   3.022   4.509   3.353
94744SOL     OW86128   4.745  12.120   8.948
94744SOL    HW186129   4.805  12.142   9.018
94744SOL    HW286130   4.801  12.099   8.873
94745SOL     OW86131   3.620  11.191  11.617
94745SOL    HW186132   3.564  11.202  11.540
94745SOL    HW286133   3.633  11.097  11.624
94746SOL     OW86134   9.065  12.953   4.921
94746SOL    HW186135   9.118  12.981   4.996
94746SOL    HW286136   8.986  13.006   4.925
94747SOL     OW86137   3.656  11.452   6.282
94747SOL    HW186138   3.649  11.396   6.359
94747SOL    HW286139   3.733  11.419   6.235
94748SOL     OW86140   1.104  14.151  10.094
94748SOL    HW186141   1.152  14.185  10.019
94748SOL    HW286142   1.152  14.182  10.170
94749SOL     OW86143   4.042   6.912   5.715
94749SOL    HW186144   4.048   6.817   5.725
94749SOL    HW286145   4.130   6.944   5.733
94750SOL     OW86146   5.621  10.888   7.074
94750SOL    HW186147   5.651  10.977   7.093
94750SOL    HW286148   5.694  10.849   7.025
94751SOL     OW86149   2.378  12.044   9.640
94751SOL    HW186150   2.335  12.013   9.720
94751SOL    HW286151   2.312  12.033   9.571
94752SOL     OW86152   3.407  14.839   6.097
94752SOL    HW186153   3.454   0.013   6.031
94752SOL    HW286154   3.383  14.758   6.051
94753SOL     OW86155   3.675   7.210   0.979
94753SOL    HW186156   3.642   7.234   0.893
94753SOL    HW286157   3.766   7.186   0.965
94754SOL     OW86158  14.382   3.724  11.546
94754SOL    HW186159  14.345   3.662  11.483
94754SOL    HW286160  14.427   3.669  11.610
94755SOL     OW86161  10.420   2.867   2.351
94755SOL    HW186162  10.326   2.846   2.353
94755SOL    HW286163  10.424   2.961   2.334
94756SOL     OW86164  10.487   0.899  10.535
94756SOL    HW186165  10.457   0.896  10.626
94756SOL    HW286166  10.428   0.959  10.491
94757SOL     OW86167   6.567   6.016   5.691
94757SOL    HW186168   6.501   6.082   5.670
94757SOL    HW286169   6.568   5.958   5.616
94758SOL     OW86170   9.473  10.808   1.666
94758SOL    HW186171   9.395  10.828   1.716
94758SOL    HW286172   9.517  10.740   1.717
94759SOL     OW86173   0.037   9.435   5.858
94759SOL    HW186174   0.129   9.414   5.875
94759SOL    HW286175   0.028   9.526   5.887
94760SOL     OW86176   6.978   1.787  14.343
94760SOL    HW186177   6.919   1.862  14.347
94760SOL    HW286178   7.066   1.824  14.342
94761SOL     OW86179   5.517   0.756  14.431
94761SOL    HW186180   5.422   0.765  14.431
94761SOL    HW286181   5.533   0.673  14.386
94762SOL     OW86182   4.033   0.561  13.467
94762SOL    HW186183   4.087   0.598  13.398
94762SOL    HW286184   4.023   0.631  13.531
94763SOL     OW86185  13.762   7.833   6.839
94763SOL    HW186186  13.721   7.903   6.889
94763SOL    HW286187  13.840   7.810   6.889
94764SOL     OW86188   6.271  12.332  13.714
94764SOL    HW186189   6.215  12.255  13.719
94764SOL    HW286190   6.215  12.405  13.740
94765SOL     OW86191  10.956  14.425  14.556
94765SOL    HW186192  10.959  14.330  14.543
94765SOL    HW286193  11.046  14.449  14.578
94766SOL     OW86194   4.272  10.382  14.331
94766SOL    HW186195   4.249  10.289  14.327
94766SOL    HW286196   4.212  10.419  14.396
94767SOL     OW86197   6.282  13.663   8.444
94767SOL    HW186198   6.376  13.676   8.459
94767SOL    HW286199   6.265  13.575   8.479
94768SOL     OW86200  10.235   4.795   9.795
94768SOL    HW186201  10.275   4.880   9.777
94768SOL    HW286202  10.236   4.788   9.891
94769SOL     OW86203   2.555  10.058   5.475
94769SOL    HW186204   2.617  10.075   5.403
94769SOL    HW286205   2.494  10.131   5.471
94770SOL     OW86206  12.542   1.049   9.189
94770SOL    HW186207  12.629   1.065   9.226
94770SOL    HW286208  12.503   1.135   9.179
94771SOL     OW86209  12.682  10.131  14.806
94771SOL    HW186210  12.698  10.047  14.764
94771SOL    HW286211  12.634  10.182  14.740
94772SOL     OW86212  10.642   0.491   3.232
94772SOL    HW186213  10.573   0.473   3.296
94772SOL    HW286214  10.683   0.406   3.217
94773SOL     OW86215   7.021   0.791   4.713
94773SOL    HW186216   7.039   0.854   4.643
94773SOL    HW286217   7.077   0.716   4.694
94774SOL     OW86218  11.808   0.330   3.285
94774SOL    HW186219  11.880   0.270   3.302
94774SOL    HW286220  11.816   0.352   3.193
94775SOL     OW86221  10.895   5.654   1.100
94775SOL    HW186222  10.957   5.728   1.100
94775SOL    HW286223  10.823   5.684   1.045
94776SOL     OW86224   9.920  10.336   9.939
94776SOL    HW186225   9.890  10.426   9.953
94776SOL    HW286226   9.873  10.308   9.860
94777SOL     OW86227   5.207   4.639   1.855
94777SOL    HW186228   5.148   4.565   1.843
94777SOL    HW286229   5.231   4.665   1.766
94778SOL     OW86230   7.034  14.817   7.561
94778SOL    HW186231   6.957  14.826   7.618
94778SOL    HW286232   7.013  14.743   7.504
94779SOL     OW86233   8.338   4.075   9.444
94779SOL    HW186234   8.245   4.054   9.433
94779SOL    HW286235   8.343   4.170   9.436
94780SOL     OW86236   8.734   6.723   2.521
94780SOL    HW186237   8.758   6.742   2.612
94780SOL    HW286238   8.817   6.706   2.477
94781SOL     OW86239   9.659   6.169  12.496
94781SOL    HW186240   9.710   6.100  12.539
94781SOL    HW286241   9.716   6.201  12.426
94782SOL     OW86242   6.299   3.729   5.604
94782SOL    HW186243   6.266   3.799   5.661
94782SOL    HW286244   6.392   3.750   5.592
94783SOL     OW86245   6.004  10.273   4.303
94783SOL    HW186246   5.978  10.360   4.270
94783SOL    HW286247   5.976  10.212   4.235
94784SOL     OW86248  11.019   8.645   0.267
94784SOL    HW186249  11.029   8.561   0.313
94784SOL    HW286250  11.021   8.621   0.174
94785SOL     OW86251  14.223   4.952   7.096
94785SOL    HW186252  14.277   5.024   7.129
94785SOL    HW286253  14.285   4.886   7.067
94786SOL     OW86254  12.543   8.928  11.230
94786SOL    HW186255  12.501   8.871  11.293
94786SOL    HW286256  12.477   8.945  11.163
94787SOL     OW86257  14.773  13.679   6.142
94787SOL    HW186258  14.848  13.625   6.119
94787SOL    HW286259  14.697  13.621   6.130
94788SOL     OW86260  10.605   6.592  10.771
94788SOL    HW186261  10.564   6.630  10.848
94788SOL    HW286262  10.551   6.517  10.749
94789SOL     OW86263  10.910  13.749  13.400
94789SOL    HW186264  10.864  13.833  13.396
94789SOL    HW286265  10.841  13.685  13.422
94790SOL     OW86266   2.386   3.323   2.269
94790SOL    HW186267   2.349   3.410   2.286
94790SOL    HW286268   2.419   3.329   2.179
94791SOL     OW86269  10.180   1.094   3.869
94791SOL    HW186270  10.161   1.181   3.902
94791SOL    HW286271  10.106   1.072   3.812
94792SOL     OW86272   0.265   8.034   9.590
94792SOL    HW186273   0.194   7.983   9.629
94792SOL    HW286274   0.239   8.044   9.498
94793SOL     OW86275   3.271   3.263   0.717
94793SOL    HW186276   3.175   3.268   0.715
94793SOL    HW286277   3.298   3.302   0.634
94794SOL     OW86278   1.857   8.925  14.620
94794SOL    HW186279   1.938   8.879  14.600
94794SOL    HW286280   1.788   8.859  14.607
94795SOL     OW86281   2.641   5.793   9.378
94795SOL    HW186282   2.641   5.795   9.283
94795SOL    HW286283   2.648   5.700   9.400
94796SOL     OW86284   9.235  14.023   9.041
94796SOL    HW186285   9.310  14.076   9.068
94796SOL    HW286286   9.159  14.074   9.068
94797SOL     OW86287   5.986   0.640  11.355
94797SOL    HW186288   6.044   0.637  11.431
94797SOL    HW286289   6.045   0.653  11.280
94798SOL     OW86290   2.097   8.117   6.187
94798SOL    HW186291   2.003   8.105   6.174
94798SOL    HW286292   2.137   8.038   6.150
94799SOL     OW86293   2.049   4.470  10.324
94799SOL    HW186294   2.044   4.499  10.233
94799SOL    HW286295   1.984   4.523  10.370
94800SOL     OW86296  12.262  12.201  14.219
94800SOL    HW186297  12.208  12.155  14.283
94800SOL    HW286298  12.322  12.135  14.185
94801SOL     OW86299   9.635   9.705  10.191
94801SOL    HW186300   9.544   9.679  10.205
94801SOL    HW286301   9.663   9.652  10.116
94802SOL     OW86302   9.320  11.946   2.140
94802SOL    HW186303   9.394  12.000   2.169
94802SOL    HW286304   9.343  11.857   2.167
94803SOL     OW86305  14.445   3.530   3.099
94803SOL    HW186306  14.390   3.467   3.053
94803SOL    HW286307  14.404   3.615   3.082
94804SOL     OW86308   3.968   4.670   2.389
94804SOL    HW186309   3.910   4.598   2.363
94804SOL    HW286310   3.909   4.736   2.426
94805SOL     OW86311  12.540  13.711   1.331
94805SOL    HW186312  12.513  13.646   1.396
94805SOL    HW286313  12.597  13.663   1.271
94806SOL     OW86314   2.857   6.926  11.959
94806SOL    HW186315   2.834   7.011  11.922
94806SOL    HW286316   2.773   6.887  11.984
94807SOL     OW86317   4.350  13.429   5.832
94807SOL    HW186318   4.434  13.476   5.833
94807SOL    HW286319   4.344  13.390   5.919
94808SOL     OW86320   0.807  14.075  12.722
94808SOL    HW186321   0.745  14.140  12.689
94808SOL    HW286322   0.879  14.126  12.759
94809SOL     OW86323   8.704  14.282   5.408
94809SOL    HW186324   8.695  14.339   5.332
94809SOL    HW286325   8.799  14.276   5.422
94810SOL     OW86326   8.466  10.198   0.670
94810SOL    HW186327   8.458  10.285   0.630
94810SOL    HW286328   8.377  10.163   0.671
94811SOL     OW86329   8.520   0.645   0.442
94811SOL    HW186330   8.566   0.729   0.448
94811SOL    HW286331   8.510   0.616   0.532
94812SOL     OW86332   0.732   5.327   3.828
94812SOL    HW186333   0.748   5.401   3.770
94812SOL    HW286334   0.701   5.366   3.909
94813SOL     OW86335   4.718   0.177   7.151
94813SOL    HW186336   4.714   0.171   7.247
94813SOL    HW286337   4.806   0.209   7.133
94814SOL     OW86338   3.742   6.332  11.951
94814SOL    HW186339   3.712   6.391  11.882
94814SOL    HW286340   3.774   6.254  11.904
94815SOL     OW86341   3.887   8.985  14.478
94815SOL    HW186342   3.947   8.974  14.551
94815SOL    HW286343   3.877   8.896  14.443
94816SOL     OW86344   6.729   1.159   7.008
94816SOL    HW186345   6.760   1.185   6.922
94816SOL    HW286346   6.734   1.240   7.060
94817SOL     OW86347   7.383   4.966  14.646
94817SOL    HW186348   7.380   4.987  14.553
94817SOL    HW286349   7.292   4.972  14.676
94818SOL     OW86350   7.730   5.371  14.652
94818SOL    HW186351   7.734   5.412  14.566
94818SOL    HW286352   7.644   5.329  14.655
94819SOL     OW86353   6.148   2.817  13.420
94819SOL    HW186354   6.149   2.722  13.413
94819SOL    HW286355   6.212   2.836  13.488
94820SOL     OW86356  13.207   5.602  14.177
94820SOL    HW186357  13.211   5.637  14.266
94820SOL    HW286358  13.125   5.552  14.174
94821SOL     OW86359  12.563   9.173   9.976
94821SOL    HW186360  12.630   9.147  10.038
94821SOL    HW286361  12.549   9.266   9.993
94822SOL     OW86362   5.076  13.486   8.290
94822SOL    HW186363   5.089  13.411   8.347
94822SOL    HW286364   5.033  13.551   8.346
94823SOL     OW86365   2.022  14.303   4.134
94823SOL    HW186366   2.100  14.253   4.155
94823SOL    HW286367   1.980  14.320   4.218
94824SOL     OW86368   9.338  12.758   9.961
94824SOL    HW186369   9.314  12.764   9.869
94824SOL    HW286370   9.337  12.848   9.993
94825SOL     OW86371   1.792   7.612   0.310
94825SOL    HW186372   1.755   7.660   0.384
94825SOL    HW286373   1.799   7.522   0.340
94826SOL     OW86374   4.377   9.856   1.786
94826SOL    HW186375   4.293   9.869   1.830
94826SOL    HW286376   4.354   9.823   1.699
94827SOL     OW86377   9.058   3.895   6.882
94827SOL    HW186378   9.081   3.965   6.943
94827SOL    HW286379   8.963   3.893   6.883
94828SOL     OW86380   3.822  12.258   5.536
94828SOL    HW186381   3.758  12.326   5.516
94828SOL    HW286382   3.790  12.180   5.491
94829SOL     OW86383  10.170   5.338  14.331
94829SOL    HW186384  10.199   5.429  14.329
94829SOL    HW286385  10.107   5.334  14.403
94830SOL     OW86386  14.537  14.552  11.548
94830SOL    HW186387  14.586  14.623  11.507
94830SOL    HW286388  14.596  14.476  11.543
94831SOL     OW86389   0.897   0.890   7.037
94831SOL    HW186390   0.885   0.859   6.948
94831SOL    HW286391   0.969   0.953   7.032
94832SOL     OW86392  12.842  10.977  12.806
94832SOL    HW186393  12.770  11.039  12.819
94832SOL    HW286394  12.909  11.028  12.760
94833SOL     OW86395  10.055   2.943   1.721
94833SOL    HW186396  10.018   3.031   1.719
94833SOL    HW286397  10.070   2.921   1.629
94834SOL     OW86398   1.964   7.536  12.052
94834SOL    HW186399   1.953   7.447  12.085
94834SOL    HW286400   1.967   7.590  12.131
94835SOL     OW86401   5.014  12.086  10.862
94835SOL    HW186402   5.028  11.991  10.867
94835SOL    HW286403   5.045  12.110  10.774
94836SOL     OW86404   3.860   1.800  13.101
94836SOL    HW186405   3.892   1.717  13.137
94836SOL    HW286406   3.817   1.844  13.175
94837SOL     OW86407  11.188   9.895   4.571
94837SOL    HW186408  11.230   9.937   4.646
94837SOL    HW286409  11.252   9.831   4.540
94838SOL     OW86410   8.840   1.777   6.198
94838SOL    HW186411   8.811   1.828   6.123
94838SOL    HW286412   8.846   1.840   6.270
94839SOL     OW86413   2.521   8.679   2.272
94839SOL    HW186414   2.597   8.678   2.329
94839SOL    HW286415   2.510   8.771   2.248
94840SOL     OW86416   2.570   7.412   3.215
94840SOL    HW186417   2.592   7.322   3.189
94840SOL    HW286418   2.546   7.455   3.133
94841SOL     OW86419   4.258  11.729   2.244
94841SOL    HW186420   4.167  11.707   2.226
94841SOL    HW286421   4.260  11.748   2.338
94842SOL     OW86422   1.418   6.213  14.260
94842SOL    HW186423   1.362   6.205  14.337
94842SOL    HW286424   1.361   6.246  14.191
94843SOL     OW86425  11.277  13.330  11.322
94843SOL    HW186426  11.289  13.259  11.385
94843SOL    HW286427  11.322  13.405  11.362
94844SOL     OW86428   0.456   0.323  13.856
94844SOL    HW186429   0.530   0.287  13.904
94844SOL    HW286430   0.421   0.249  13.807
94845SOL     OW86431  12.956  11.334   9.075
94845SOL    HW186432  12.873  11.357   9.032
94845SOL    HW286433  12.987  11.257   9.027
94846SOL     OW86434   3.707  12.799   5.541
94846SOL    HW186435   3.763  12.824   5.468
94846SOL    HW286436   3.767  12.768   5.609
94847SOL     OW86437   6.730  13.763   9.758
94847SOL    HW186438   6.737  13.670   9.778
94847SOL    HW286439   6.749  13.769   9.665
94848SOL     OW86440   8.915   7.987   0.172
94848SOL    HW186441   8.825   8.015   0.153
94848SOL    HW286442   8.946   8.048   0.238
94849SOL     OW86443   1.322  14.805   8.678
94849SOL    HW186444   1.228  14.790   8.669
94849SOL    HW286445   1.330   0.019   8.704
94850SOL     OW86446   1.783   9.305   3.442
94850SOL    HW186447   1.740   9.372   3.496
94850SOL    HW286448   1.774   9.337   3.353
94851SOL     OW86449   2.858   5.931   7.291
94851SOL    HW186450   2.924   5.988   7.331
94851SOL    HW286451   2.877   5.935   7.197
94852SOL     OW86452  10.326   0.758   2.421
94852SOL    HW186453  10.249   0.701   2.414
94852SOL    HW286454  10.340   0.768   2.516
94853SOL     OW86455   5.908   4.457   4.213
94853SOL    HW186456   5.886   4.364   4.213
94853SOL    HW286457   5.900   4.484   4.305
94854SOL     OW86458  10.164   8.479   3.428
94854SOL    HW186459  10.128   8.547   3.372
94854SOL    HW286460  10.205   8.527   3.500
94855SOL     OW86461   7.077   1.730   8.530
94855SOL    HW186462   7.140   1.758   8.597
94855SOL    HW286463   7.086   1.635   8.526
94856SOL     OW86464   4.311   7.954  14.169
94856SOL    HW186465   4.218   7.955  14.144
94856SOL    HW286466   4.343   8.041  14.145
94857SOL     OW86467   8.991   2.095   9.568
94857SOL    HW186468   8.963   2.147   9.644
94857SOL    HW286469   8.954   2.008   9.583
94858SOL     OW86470   4.406   3.873   2.567
94858SOL    HW186471   4.365   3.809   2.625
94858SOL    HW286472   4.499   3.848   2.564
94859SOL     OW86473  13.495   1.702  12.779
94859SOL    HW186474  13.426   1.750  12.824
94859SOL    HW286475  13.575   1.724  12.826
94860SOL     OW86476   3.156  13.841   2.570
94860SOL    HW186477   3.117  13.754   2.579
94860SOL    HW286478   3.223  13.831   2.503
94861SOL     OW86479  12.157  11.675   0.297
94861SOL    HW186480  12.244  11.716   0.300
94861SOL    HW286481  12.175  11.581   0.295
94862SOL     OW86482   5.017  10.093   0.713
94862SOL    HW186483   5.055  10.007   0.693
94862SOL    HW286484   4.923  10.075   0.723
94863SOL     OW86485  10.196  12.222   0.820
94863SOL    HW186486  10.188  12.285   0.748
94863SOL    HW286487  10.165  12.139   0.784
94864SOL     OW86488  14.502   0.784   1.206
94864SOL    HW186489  14.531   0.753   1.120
94864SOL    HW286490  14.517   0.879   1.203
94865SOL     OW86491   7.051   1.229   4.856
94865SOL    HW186492   7.023   1.319   4.843
94865SOL    HW286493   6.979   1.176   4.821
94866SOL     OW86494   6.285   8.323  13.861
94866SOL    HW186495   6.262   8.264  13.933
94866SOL    HW286496   6.376   8.304  13.842
94867SOL     OW86497   8.481   5.448  11.951
94867SOL    HW186498   8.485   5.533  11.908
94867SOL    HW286499   8.572   5.422  11.964
94868SOL     OW86500   5.019   1.437   6.522
94868SOL    HW186501   4.961   1.364   6.544
94868SOL    HW286502   4.990   1.509   6.578
94869SOL     OW86503   1.991   7.476  10.403
94869SOL    HW186504   1.942   7.531  10.464
94869SOL    HW286505   2.070   7.451  10.451
94870SOL     OW86506   7.819  11.991   5.036
94870SOL    HW186507   7.812  12.051   4.961
94870SOL    HW286508   7.790  11.906   5.000
94871SOL     OW86509   5.504  11.216   3.508
94871SOL    HW186510   5.483  11.178   3.423
94871SOL    HW286511   5.419  11.235   3.548
94872SOL     OW86512  13.457  12.954   2.054
94872SOL    HW186513  13.386  13.019   2.057
94872SOL    HW286514  13.446  12.912   1.968
94873SOL     OW86515  10.283  11.078  10.735
94873SOL    HW186516  10.375  11.101  10.748
94873SOL    HW286517  10.246  11.074  10.823
94874SOL     OW86518  13.513   6.644   9.719
94874SOL    HW186519  13.564   6.723   9.700
94874SOL    HW286520  13.422   6.669   9.706
94875SOL     OW86521  10.916   5.425   1.241
94875SOL    HW186522  10.899   5.501   1.186
94875SOL    HW286523  10.982   5.455   1.304
94876SOL     OW86524  13.516  10.850  11.526
94876SOL    HW186525  13.588  10.868  11.466
94876SOL    HW286526  13.442  10.900  11.491
94877SOL     OW86527   3.514   0.950  14.225
94877SOL    HW186528   3.476   0.999  14.152
94877SOL    HW286529   3.547   0.869  14.186
94878SOL     OW86530  14.660   3.316   6.899
94878SOL    HW186531  14.732   3.293   6.958
94878SOL    HW286532  14.596   3.246   6.912
94879SOL     OW86533   4.186  11.907   6.731
94879SOL    HW186534   4.154  11.995   6.713
94879SOL    HW286535   4.202  11.869   6.644
94880SOL     OW86536  13.599   0.852  10.434
94880SOL    HW186537  13.616   0.944  10.455
94880SOL    HW286538  13.674   0.825  10.380
94881SOL     OW86539   3.366   7.108   2.854
94881SOL    HW186540   3.340   7.183   2.907
94881SOL    HW286541   3.381   7.038   2.918
94882SOL     OW86542   2.138   9.446   1.517
94882SOL    HW186543   2.124   9.503   1.592
94882SOL    HW286544   2.154   9.360   1.554
94883SOL     OW86545   3.787   6.415  13.849
94883SOL    HW186546   3.830   6.477  13.908
94883SOL    HW286547   3.752   6.347  13.908
94884SOL     OW86548   4.011  13.259   8.426
94884SOL    HW186549   4.021  13.353   8.413
94884SOL    HW286550   4.035  13.221   8.342
94885SOL     OW86551  14.356  14.783   4.656
94885SOL    HW186552  14.287  14.784   4.723
94885SOL    HW286553  14.435  14.757   4.704
94886SOL     OW86554   2.638   3.672   8.126
94886SOL    HW186555   2.689   3.731   8.070
94886SOL    HW286556   2.646   3.708   8.214
94887SOL     OW86557   0.831   2.057  12.958
94887SOL    HW186558   0.736   2.069  12.966
94887SOL    HW286559   0.868   2.144  12.973
94888SOL     OW86560   2.326  11.209   1.327
94888SOL    HW186561   2.351  11.293   1.289
94888SOL    HW286562   2.352  11.215   1.418
94889SOL     OW86563   1.465   8.825   8.914
94889SOL    HW186564   1.479   8.910   8.955
94889SOL    HW286565   1.483   8.762   8.983
94890SOL     OW86566  12.970  10.214   3.142
94890SOL    HW186567  12.936  10.292   3.097
94890SOL    HW286568  12.945  10.226   3.233
94891SOL     OW86569   5.488  14.678   8.287
94891SOL    HW186570   5.484  14.767   8.322
94891SOL    HW286571   5.452  14.686   8.198
94892SOL     OW86572  13.368   9.144   6.428
94892SOL    HW186573  13.451   9.134   6.383
94892SOL    HW286574  13.380   9.100   6.512
94893SOL     OW86575   0.169   5.508   8.541
94893SOL    HW186576   0.083   5.512   8.500
94893SOL    HW286577   0.152   5.473   8.629
94894SOL     OW86578   7.976   6.816  13.461
94894SOL    HW186579   7.951   6.782  13.546
94894SOL    HW286580   8.046   6.757  13.431
94895SOL     OW86581   3.970   7.098   9.378
94895SOL    HW186582   3.994   7.009   9.407
94895SOL    HW286583   3.880   7.109   9.407
94896SOL     OW86584   0.442  12.915  12.057
94896SOL    HW186585   0.532  12.942  12.072
94896SOL    HW286586   0.399  12.993  12.020
94897SOL     OW86587   9.172   2.999   0.631
94897SOL    HW186588   9.167   3.019   0.538
94897SOL    HW286589   9.123   2.917   0.641
94898SOL     OW86590   7.051   8.544   3.342
94898SOL    HW186591   7.056   8.637   3.366
94898SOL    HW286592   6.983   8.508   3.399
94899SOL     OW86593  11.728   0.267   1.371
94899SOL    HW186594  11.801   0.261   1.433
94899SOL    HW286595  11.759   0.328   1.304
94900SOL     OW86596   9.647   3.613  14.533
94900SOL    HW186597   9.683   3.636  14.448
94900SOL    HW286598   9.634   3.697  14.577
94901SOL     OW86599   9.719   0.947   4.308
94901SOL    HW186600   9.748   0.896   4.233
94901SOL    HW286601   9.781   0.926   4.377
94902SOL     OW86602   1.468  11.517   0.129
94902SOL    HW186603   1.380  11.511   0.165
94902SOL    HW286604   1.501  11.601   0.160
94903SOL     OW86605   4.523   3.194   3.115
94903SOL    HW186606   4.511   3.177   3.209
94903SOL    HW286607   4.489   3.283   3.102
94904SOL     OW86608   5.615  14.205   1.649
94904SOL    HW186609   5.595  14.113   1.628
94904SOL    HW286610   5.710  14.210   1.649
94905SOL     OW86611  11.229   1.430  10.852
94905SOL    HW186612  11.259   1.429  10.943
94905SOL    HW286613  11.186   1.514  10.841
94906SOL     OW86614   2.967   4.653   0.034
94906SOL    HW186615   2.948   4.733   0.083
94906SOL    HW286616   2.883   4.628  14.873
94907SOL     OW86617  11.954   7.070   7.349
94907SOL    HW186618  11.874   7.029   7.316
94907SOL    HW286619  11.925   7.154   7.385
94908SOL     OW86620  13.168  13.166   8.261
94908SOL    HW186621  13.259  13.176   8.288
94908SOL    HW286622  13.173  13.153   8.166
94909SOL     OW86623  10.469   2.371   0.887
94909SOL    HW186624  10.384   2.355   0.929
94909SOL    HW286625  10.512   2.435   0.945
94910SOL     OW86626  13.251  14.669  13.826
94910SOL    HW186627  13.330  14.707  13.863
94910SOL    HW286628  13.249  14.580  13.861
94911SOL     OW86629  11.139   8.966  13.573
94911SOL    HW186630  11.202   8.903  13.610
94911SOL    HW286631  11.082   8.988  13.647
94912SOL     OW86632   7.325   8.108  10.948
94912SOL    HW186633   7.246   8.143  10.989
94912SOL    HW286634   7.319   8.013  10.963
94913SOL     OW86635  10.533  14.796   3.061
94913SOL    HW186636  10.570  14.864   3.004
94913SOL    HW286637  10.480  14.845   3.124
94914SOL     OW86638   6.764   4.439   4.093
94914SOL    HW186639   6.694   4.403   4.146
94914SOL    HW286640   6.844   4.416   4.140
94915SOL     OW86641   1.115   5.599   4.147
94915SOL    HW186642   1.132   5.524   4.090
94915SOL    HW286643   1.105   5.673   4.088
94916SOL     OW86644  13.600   9.065   9.925
94916SOL    HW186645  13.523   9.053   9.979
94916SOL    HW286646  13.662   9.111   9.981
94917SOL     OW86647   9.741   0.816   8.092
94917SOL    HW186648   9.835   0.799   8.095
94917SOL    HW286649   9.709   0.765   8.017
94918SOL     OW86650   2.872  12.007  13.630
94918SOL    HW186651   2.914  12.092  13.620
94918SOL    HW286652   2.779  12.024  13.615
94919SOL     OW86653  13.111   0.324   4.995
94919SOL    HW186654  13.037   0.378   5.023
94919SOL    HW286655  13.077   0.276   4.920
94920SOL     OW86656   3.542  14.382   9.409
94920SOL    HW186657   3.551  14.467   9.451
94920SOL    HW286658   3.613  14.329   9.446
94921SOL     OW86659  10.010   9.338   2.631
94921SOL    HW186660   9.965   9.380   2.557
94921SOL    HW286661   9.960   9.365   2.708
94922SOL     OW86662  12.278   2.344  13.440
94922SOL    HW186663  12.207   2.400  13.408
94922SOL    HW286664  12.243   2.307  13.522
94923SOL     OW86665   7.563   5.977   2.191
94923SOL    HW186666   7.525   6.055   2.150
94923SOL    HW286667   7.643   5.960   2.141
94924SOL     OW86668   5.007   3.608  12.544
94924SOL    HW186669   5.034   3.634  12.631
94924SOL    HW286670   5.016   3.513  12.542
94925SOL     OW86671  14.720   8.160  13.729
94925SOL    HW186672  14.642   8.202  13.765
94925SOL    HW286673  14.769   8.230  13.687
94926SOL     OW86674   1.741   5.572   4.940
94926SOL    HW186675   1.654   5.595   4.971
94926SOL    HW286676   1.789   5.547   5.019
94927SOL     OW86677  11.166  13.884   1.872
94927SOL    HW186678  11.169  13.980   1.869
94927SOL    HW286679  11.241  13.856   1.820
94928SOL     OW86680  10.392   6.616  10.446
94928SOL    HW186681  10.484   6.630  10.423
94928SOL    HW286682  10.358   6.563  10.374
94929SOL     OW86683   3.287   7.128  13.708
94929SOL    HW186684   3.369   7.087  13.680
94929SOL    HW286685   3.315   7.203  13.761
94930SOL     OW86686  14.807   4.829   0.619
94930SOL    HW186687  14.837   4.771   0.689
94930SOL    HW286688  14.738   4.881   0.661
94931SOL     OW86689   7.898  12.150   0.979
94931SOL    HW186690   7.863  12.075   1.027
94931SOL    HW286691   7.980  12.171   1.024
94932SOL     OW86692   4.760   9.058   0.908
94932SOL    HW186693   4.742   9.003   0.832
94932SOL    HW286694   4.851   9.037   0.931
94933SOL     OW86695   3.812   4.992   5.685
94933SOL    HW186696   3.903   5.018   5.704
94933SOL    HW286697   3.764   5.075   5.678
94934SOL     OW86698  12.436   0.436   3.904
94934SOL    HW186699  12.504   0.380   3.941
94934SOL    HW286700  12.366   0.437   3.970
94935SOL     OW86701   9.973  11.603   6.779
94935SOL    HW186702  10.014  11.540   6.720
94935SOL    HW286703   9.915  11.550   6.833
94936SOL     OW86704  13.938   4.703  14.250
94936SOL    HW186705  13.984   4.782  14.220
94936SOL    HW286706  13.984   4.678  14.330
94937SOL     OW86707   7.686   1.466   2.690
94937SOL    HW186708   7.702   1.374   2.712
94937SOL    HW286709   7.668   1.508   2.774
94938SOL     OW86710   4.951   2.747  12.442
94938SOL    HW186711   4.976   2.826  12.491
94938SOL    HW286712   4.858   2.735  12.461
94939SOL     OW86713   8.931   1.654   7.563
94939SOL    HW186714   8.862   1.587   7.559
94939SOL    HW286715   8.943   1.669   7.657
94940SOL     OW86716   5.356  10.046  12.634
94940SOL    HW186717   5.265  10.069  12.651
94940SOL    HW286718   5.407  10.100  12.694
94941SOL     OW86719   7.796  14.279  14.703
94941SOL    HW186720   7.736  14.297  14.775
94941SOL    HW286721   7.753  14.209  14.653
94942SOL     OW86722   1.869   1.105  14.467
94942SOL    HW186723   1.876   1.124  14.373
94942SOL    HW286724   1.817   1.177  14.502
94943SOL     OW86725  11.530   0.309   4.865
94943SOL    HW186726  11.554   0.300   4.957
94943SOL    HW286727  11.436   0.291   4.863
94944SOL     OW86728   1.333   5.877   9.911
94944SOL    HW186729   1.423   5.845   9.919
94944SOL    HW286730   1.293   5.821   9.845
94945SOL     OW86731   8.644  11.566  12.904
94945SOL    HW186732   8.694  11.536  12.979
94945SOL    HW286733   8.687  11.647  12.876
94946SOL     OW86734   9.867   4.317   0.776
94946SOL    HW186735   9.956   4.332   0.808
94946SOL    HW286736   9.811   4.340   0.850
94947SOL     OW86737  12.827  14.533   7.960
94947SOL    HW186738  12.798  14.614   8.003
94947SOL    HW286739  12.786  14.536   7.873
94948SOL     OW86740   6.276   0.525  13.032
94948SOL    HW186741   6.348   0.509  13.093
94948SOL    HW286742   6.224   0.445  13.034
94949SOL     OW86743   0.996   5.346   0.267
94949SOL    HW186744   1.035   5.261   0.286
94949SOL    HW286745   0.934   5.329   0.196
94950SOL     OW86746   4.650  12.533  10.258
94950SOL    HW186747   4.642  12.452  10.208
94950SOL    HW286748   4.728  12.575  10.223
94951SOL     OW86749   9.631   1.875   8.665
94951SOL    HW186750   9.700   1.811   8.650
94951SOL    HW286751   9.617   1.915   8.580
94952SOL     OW86752   1.683   5.436   5.318
94952SOL    HW186753   1.759   5.474   5.275
94952SOL    HW286754   1.636   5.390   5.248
94953SOL     OW86755   7.033  12.946  11.111
94953SOL    HW186756   7.067  12.975  11.196
94953SOL    HW286757   7.044  12.851  11.112
94954SOL     OW86758   6.583  12.112  11.811
94954SOL    HW186759   6.659  12.088  11.757
94954SOL    HW286760   6.510  12.116  11.749
94955SOL     OW86761  11.915  11.607  11.892
94955SOL    HW186762  11.876  11.570  11.972
94955SOL    HW286763  11.870  11.562  11.821
94956SOL     OW86764   2.691  13.441   0.798
94956SOL    HW186765   2.696  13.354   0.838
94956SOL    HW286766   2.776  13.481   0.818
94957SOL     OW86767   7.706  10.266   0.818
94957SOL    HW186768   7.665  10.338   0.866
94957SOL    HW286769   7.691  10.189   0.873
94958SOL     OW86770   6.907  10.507   5.335
94958SOL    HW186771   6.893  10.413   5.323
94958SOL    HW286772   6.995  10.523   5.299
94959SOL     OW86773  10.519  11.273   4.565
94959SOL    HW186774  10.560  11.285   4.479
94959SOL    HW286775  10.548  11.187   4.594
94960SOL     OW86776   9.618   6.132   6.532
94960SOL    HW186777   9.551   6.114   6.465
94960SOL    HW286778   9.588   6.085   6.609
94961SOL     OW86779   6.914   0.487   2.577
94961SOL    HW186780   6.829   0.458   2.609
94961SOL    HW286781   6.948   0.546   2.644
94962SOL     OW86782   0.674   6.554   5.011
94962SOL    HW186783   0.655   6.479   5.066
94962SOL    HW286784   0.740   6.603   5.060
94963SOL     OW86785   0.497  11.154  13.007
94963SOL    HW186786   0.438  11.104  12.951
94963SOL    HW286787   0.584  11.118  12.987
94964SOL     OW86788   6.113  13.058   8.138
94964SOL    HW186789   6.110  13.079   8.231
94964SOL    HW286790   6.037  13.002   8.123
94965SOL     OW86791  12.294  10.791   6.623
94965SOL    HW186792  12.369  10.752   6.579
94965SOL    HW286793  12.263  10.724   6.683
94966SOL     OW86794   1.578   6.120   4.205
94966SOL    HW186795   1.637   6.088   4.136
94966SOL    HW286796   1.623   6.099   4.287
94967SOL     OW86797  10.396   0.715   4.763
94967SOL    HW186798  10.341   0.684   4.835
94967SOL    HW286799  10.417   0.805   4.786
94968SOL     OW86800   0.149   0.580   2.788
94968SOL    HW186801   0.172   0.496   2.828
94968SOL    HW286802   0.114   0.557   2.702
94969SOL     OW86803   8.355  11.138  12.580
94969SOL    HW186804   8.425  11.167  12.521
94969SOL    HW286805   8.400  11.085  12.645
94970SOL     OW86806   2.935  11.744  10.210
94970SOL    HW186807   2.908  11.799  10.285
94970SOL    HW286808   3.011  11.696  10.242
94971SOL     OW86809   3.717  12.947  11.734
94971SOL    HW186810   3.735  12.939  11.641
94971SOL    HW286811   3.623  12.964  11.739
94972SOL     OW86812  14.363  12.864   0.797
94972SOL    HW186813  14.452  12.845   0.767
94972SOL    HW286814  14.374  12.893   0.887
94973SOL     OW86815  12.830   8.749   0.675
94973SOL    HW186816  12.914   8.777   0.713
94973SOL    HW286817  12.843   8.756   0.580
94974SOL     OW86818   9.735   7.056   9.221
94974SOL    HW186819   9.774   7.137   9.186
94974SOL    HW286820   9.662   7.037   9.162
94975SOL     OW86821   0.532  10.122   2.445
94975SOL    HW186822   0.536  10.065   2.522
94975SOL    HW286823   0.624  10.136   2.422
94976SOL     OW86824  11.885   2.616   1.629
94976SOL    HW186825  11.843   2.532   1.612
94976SOL    HW286826  11.845   2.677   1.567
94977SOL     OW86827   1.331   5.915   0.001
94977SOL    HW186828   1.345   5.881   0.089
94977SOL    HW286829   1.334   5.837  14.823
94978SOL     OW86830   3.727   5.248  14.058
94978SOL    HW186831   3.658   5.287  14.113
94978SOL    HW286832   3.705   5.155  14.055
94979SOL     OW86833   9.497   5.591   6.043
94979SOL    HW186834   9.562   5.521   6.047
94979SOL    HW286835   9.417   5.546   6.015
94980SOL     OW86836  12.538   8.425  10.350
94980SOL    HW186837  12.575   8.509  10.323
94980SOL    HW286838  12.552   8.422  10.444
94981SOL     OW86839   4.501   4.162   9.965
94981SOL    HW186840   4.585   4.140  10.005
94981SOL    HW286841   4.522   4.182   9.874
94982SOL     OW86842   2.475   9.018   1.068
94982SOL    HW186843   2.470   8.931   1.108
94982SOL    HW286844   2.568   9.040   1.069
94983SOL     OW86845   5.178   1.770   2.397
94983SOL    HW186846   5.178   1.863   2.374
94983SOL    HW286847   5.099   1.735   2.356
94984SOL     OW86848   3.383   8.514  14.339
94984SOL    HW186849   3.367   8.537  14.248
94984SOL    HW286850   3.331   8.435  14.353
94985SOL     OW86851   8.735   5.748  10.386
94985SOL    HW186852   8.656   5.714  10.428
94985SOL    HW286853   8.744   5.695  10.306
94986SOL     OW86854   4.703   7.166   9.533
94986SOL    HW186855   4.660   7.106   9.471
94986SOL    HW286856   4.796   7.160   9.511
94987SOL     OW86857   3.501  14.623  11.710
94987SOL    HW186858   3.466  14.652  11.626
94987SOL    HW286859   3.473  14.531  11.717
94988SOL     OW86860  10.775   1.008   6.662
94988SOL    HW186861  10.820   1.048   6.737
94988SOL    HW286862  10.757   1.081   6.603
94989SOL     OW86863  13.341   7.376   9.180
94989SOL    HW186864  13.301   7.302   9.225
94989SOL    HW286865  13.335   7.448   9.243
94990SOL     OW86866  13.830  11.373  12.157
94990SOL    HW186867  13.886  11.410  12.089
94990SOL    HW286868  13.758  11.434  12.166
94991SOL     OW86869   0.166   0.604   1.473
94991SOL    HW186870   0.142   0.512   1.482
94991SOL    HW286871   0.243   0.615   1.529
94992SOL     OW86872   1.420   4.374   9.932
94992SOL    HW186873   1.439   4.285   9.961
94992SOL    HW286874   1.486   4.428   9.976
94993SOL     OW86875   1.654  12.004   5.291
94993SOL    HW186876   1.658  11.981   5.384
94993SOL    HW286877   1.726  12.066   5.279
94994SOL     OW86878   2.223   6.562   6.501
94994SOL    HW186879   2.303   6.546   6.451
94994SOL    HW286880   2.172   6.481   6.489
94995SOL     OW86881  12.830  13.451   3.379
94995SOL    HW186882  12.747  13.413   3.408
94995SOL    HW286883  12.815  13.471   3.286
94996SOL     OW86884   7.466  10.063   4.697
94996SOL    HW186885   7.411  10.140   4.680
94996SOL    HW286886   7.419  10.015   4.766
94997SOL     OW86887   2.673   7.396   5.934
94997SOL    HW186888   2.605   7.457   5.906
94997SOL    HW286889   2.720   7.443   6.003
94998SOL     OW86890   5.787   2.813   8.253
94998SOL    HW186891   5.857   2.877   8.264
94998SOL    HW286892   5.798   2.751   8.326
94999SOL     OW86893  10.246  11.752   9.632
94999SOL    HW186894  10.184  11.704   9.688
94999SOL    HW286895  10.325  11.699   9.632
95000SOL     OW86896   4.005  12.855   9.981
95000SOL    HW186897   4.024  12.946  10.005
95000SOL    HW286898   3.910  12.851   9.975
95001SOL     OW86899   5.447  12.041   3.962
95001SOL    HW186900   5.469  12.118   4.014
95001SOL    HW286901   5.410  12.077   3.881
95002SOL     OW86902   9.070   7.456   9.705
95002SOL    HW186903   8.980   7.487   9.713
95002SOL    HW286904   9.081   7.434   9.613
95003SOL     OW86905  13.022  11.129  12.362
95003SOL    HW186906  13.059  11.194  12.302
95003SOL    HW286907  12.938  11.166  12.388
95004SOL     OW86908   9.841   2.068  13.098
95004SOL    HW186909   9.850   2.147  13.151
95004SOL    HW286910   9.926   2.024  13.106
95005SOL     OW86911  14.718  10.747   4.162
95005SOL    HW186912  14.735  10.824   4.107
95005SOL    HW286913  14.792  10.744   4.222
95006SOL     OW86914   8.688  13.201   4.408
95006SOL    HW186915   8.746  13.155   4.348
95006SOL    HW286916   8.718  13.292   4.404
95007SOL     OW86917  10.856   3.883  11.746
95007SOL    HW186918  10.882   3.969  11.711
95007SOL    HW286919  10.841   3.830  11.668
95008SOL     OW86920   3.827   7.151   8.261
95008SOL    HW186921   3.845   7.058   8.279
95008SOL    HW286922   3.743   7.150   8.215
95009SOL     OW86923   7.412   4.236   8.735
95009SOL    HW186924   7.356   4.276   8.668
95009SOL    HW286925   7.498   4.276   8.719
95010SOL     OW86926   4.630   3.663   0.266
95010SOL    HW186927   4.547   3.646   0.221
95010SOL    HW286928   4.623   3.613   0.347
95011SOL     OW86929  14.716   4.725  12.188
95011SOL    HW186930  14.622   4.731  12.199
95011SOL    HW286931  14.746   4.816  12.187
95012SOL     OW86932   3.173   2.179   2.213
95012SOL    HW186933   3.200   2.089   2.234
95012SOL    HW286934   3.145   2.215   2.297
95013SOL     OW86935   1.902   1.866   1.528
95013SOL    HW186936   1.918   1.954   1.562
95013SOL    HW286937   1.875   1.816   1.605
95014SOL     OW86938   1.701   6.382   6.222
95014SOL    HW186939   1.613   6.420   6.217
95014SOL    HW286940   1.717   6.347   6.135
95015SOL     OW86941   6.236  14.598   2.659
95015SOL    HW186942   6.140  14.603   2.660
95015SOL    HW286943   6.262  14.660   2.591
95016SOL     OW86944   1.224  12.765  10.770
95016SOL    HW186945   1.312  12.792  10.797
95016SOL    HW286946   1.198  12.701  10.836
95017SOL     OW86947  11.072   8.093   1.875
95017SOL    HW186948  11.133   8.145   1.928
95017SOL    HW286949  11.061   8.011   1.923
95018SOL     OW86950  11.563  14.106  11.281
95018SOL    HW186951  11.518  14.176  11.235
95018SOL    HW286952  11.493  14.047  11.310
95019SOL     OW86953   4.252  12.651  11.607
95019SOL    HW186954   4.300  12.707  11.668
95019SOL    HW286955   4.254  12.564  11.647
95020SOL     OW86956   4.242   7.055  11.893
95020SOL    HW186957   4.247   7.135  11.841
95020SOL    HW286958   4.207   6.990  11.833
95021SOL     OW86959   5.496   3.204  14.482
95021SOL    HW186960   5.530   3.148  14.551
95021SOL    HW286961   5.513   3.155  14.401
95022SOL     OW86962   6.535   0.844  13.046
95022SOL    HW186963   6.564   0.933  13.029
95022SOL    HW286964   6.442   0.852  13.067
95023SOL     OW86965   3.309  14.115   2.952
95023SOL    HW186966   3.346  14.029   2.971
95023SOL    HW286967   3.263  14.104   2.869
95024SOL     OW86968  11.451   6.523   9.949
95024SOL    HW186969  11.526   6.526  10.009
95024SOL    HW286970  11.424   6.431   9.950
95025SOL     OW86971  12.251  13.005   0.535
95025SOL    HW186972  12.209  13.030   0.617
95025SOL    HW286973  12.345  13.010   0.554
95026SOL     OW86974   7.549   5.798   0.242
95026SOL    HW186975   7.479   5.752   0.197
95026SOL    HW286976   7.518   5.806   0.333
95027SOL     OW86977   8.010   2.555   3.817
95027SOL    HW186978   8.067   2.498   3.765
95027SOL    HW286979   8.070   2.597   3.879
95028SOL     OW86980   2.842   2.718   7.806
95028SOL    HW186981   2.906   2.787   7.787
95028SOL    HW286982   2.781   2.721   7.732
95029SOL     OW86983   5.060  11.653   8.242
95029SOL    HW186984   5.073  11.739   8.202
95029SOL    HW286985   5.033  11.671   8.332
95030SOL     OW86986  10.724   5.731   8.623
95030SOL    HW186987  10.782   5.792   8.670
95030SOL    HW286988  10.703   5.777   8.541
95031SOL     OW86989  11.368   1.819   9.413
95031SOL    HW186990  11.304   1.749   9.420
95031SOL    HW286991  11.320   1.898   9.438
95032SOL     OW86992   8.198   3.520   3.763
95032SOL    HW186993   8.233   3.461   3.830
95032SOL    HW286994   8.219   3.477   3.680
95033SOL     OW86995  11.809   8.822  12.658
95033SOL    HW186996  11.747   8.884  12.696
95033SOL    HW286997  11.760   8.781  12.586
95034SOL     OW86998   1.201  12.133   7.604
95034SOL    HW186999   1.260  12.093   7.539
95034SOL    HW287000   1.123  12.077   7.603
95035SOL     OW87001   5.861   0.620   9.496
95035SOL    HW187002   5.922   0.587   9.430
95035SOL    HW287003   5.891   0.583   9.578
95036SOL     OW87004   6.757   3.321   6.295
95036SOL    HW187005   6.831   3.309   6.235
95036SOL    HW287006   6.776   3.403   6.339
95037SOL     OW87007   6.738   9.373  12.501
95037SOL    HW187008   6.769   9.431  12.432
95037SOL    HW287009   6.778   9.288  12.480
95038SOL     OW87010   3.548   7.350  13.487
95038SOL    HW187011   3.489   7.305  13.426
95038SOL    HW287012   3.494   7.419  13.526
95039SOL     OW87013  10.085   8.898   4.124
95039SOL    HW187014  10.008   8.943   4.158
95039SOL    HW287015  10.104   8.830   4.189
95040SOL     OW87016  13.464   5.135   2.465
95040SOL    HW187017  13.373   5.115   2.489
95040SOL    HW287018  13.514   5.060   2.497
95041SOL     OW87019  11.165  12.540   7.480
95041SOL    HW187020  11.085  12.490   7.463
95041SOL    HW287021  11.234  12.486   7.441
95042SOL     OW87022  13.097   7.919  11.431
95042SOL    HW187023  13.120   7.937  11.522
95042SOL    HW287024  13.002   7.927  11.428
95043SOL     OW87025  11.853   6.969   6.628
95043SOL    HW187026  11.776   6.970   6.572
95043SOL    HW287027  11.860   7.059   6.660
95044SOL     OW87028   7.797   1.056  12.108
95044SOL    HW187029   7.733   1.103  12.054
95044SOL    HW287030   7.882   1.093  12.084
95045SOL     OW87031   2.947   5.439  11.539
95045SOL    HW187032   3.006   5.495  11.490
95045SOL    HW287033   2.887   5.403  11.473
95046SOL     OW87034   9.847  10.127   6.911
95046SOL    HW187035   9.832  10.041   6.873
95046SOL    HW287036   9.941  10.143   6.896
95047SOL     OW87037  13.303   1.142   7.746
95047SOL    HW187038  13.288   1.052   7.719
95047SOL    HW287039  13.293   1.142   7.841
95048SOL     OW87040   9.547   2.329  10.439
95048SOL    HW187041   9.637   2.351  10.416
95048SOL    HW287042   9.496   2.351  10.361
95049SOL     OW87043   7.269   6.082   7.293
95049SOL    HW187044   7.330   6.031   7.347
95049SOL    HW287045   7.325   6.147   7.249
95050SOL     OW87046   3.135  12.831   7.858
95050SOL    HW187047   3.230  12.823   7.853
95050SOL    HW287048   3.102  12.756   7.809
95051SOL     OW87049   8.014   1.034   9.647
95051SOL    HW187050   8.010   0.996   9.559
95051SOL    HW287051   7.928   1.018   9.685
95052SOL     OW87052   6.194   3.845   0.084
95052SOL    HW187053   6.191   3.786   0.009
95052SOL    HW287054   6.102   3.861   0.105
95053SOL     OW87055  13.156   7.185   3.677
95053SOL    HW187056  13.092   7.217   3.614
95053SOL    HW287057  13.107   7.177   3.759
95054SOL     OW87058   5.311   9.048   2.502
95054SOL    HW187059   5.294   8.985   2.432
95054SOL    HW287060   5.313   8.994   2.582
95055SOL     OW87061  10.842   8.140  12.850
95055SOL    HW187062  10.798   8.108  12.928
95055SOL    HW287063  10.796   8.099  12.777
95056SOL     OW87064  13.537  10.910   1.224
95056SOL    HW187065  13.566  10.983   1.169
95056SOL    HW287066  13.614  10.888   1.276
95057SOL     OW87067   5.428   2.360   6.771
95057SOL    HW187068   5.356   2.366   6.833
95057SOL    HW287069   5.435   2.447   6.733
95058SOL     OW87070  12.613   6.688   1.290
95058SOL    HW187071  12.550   6.616   1.300
95058SOL    HW287072  12.569   6.749   1.231
95059SOL     OW87073   1.783   9.863   4.067
95059SOL    HW187074   1.858   9.860   4.126
95059SOL    HW287075   1.781   9.776   4.026
95060SOL     OW87076  10.275  11.754   4.594
95060SOL    HW187077  10.294  11.848   4.598
95060SOL    HW287078  10.316  11.718   4.673
95061SOL     OW87079   7.204  14.148   4.618
95061SOL    HW187080   7.154  14.209   4.673
95061SOL    HW287081   7.268  14.203   4.573
95062SOL     OW87082   7.084  11.501  12.161
95062SOL    HW187083   7.053  11.562  12.228
95062SOL    HW287084   7.179  11.497  12.174
95063SOL     OW87085  11.605   6.618   9.110
95063SOL    HW187086  11.615   6.676   9.034
95063SOL    HW287087  11.694   6.606   9.143
95064SOL     OW87088  12.151   4.505  14.219
95064SOL    HW187089  12.164   4.519  14.313
95064SOL    HW287090  12.069   4.457  14.213
95065SOL     OW87091   7.306   6.737  13.780
95065SOL    HW187092   7.320   6.813  13.724
95065SOL    HW287093   7.357   6.667  13.738
95066SOL     OW87094   8.881   5.803  10.854
95066SOL    HW187095   8.896   5.805  10.759
95066SOL    HW287096   8.809   5.864  10.868
95067SOL     OW87097   4.611  11.375   2.859
95067SOL    HW187098   4.557  11.352   2.783
95067SOL    HW287099   4.665  11.448   2.827
95068SOL     OW87100  11.105   2.688  11.336
95068SOL    HW187101  11.068   2.692  11.248
95068SOL    HW287102  11.113   2.594  11.354
95069SOL     OW87103  11.793   5.632   6.619
95069SOL    HW187104  11.821   5.712   6.663
95069SOL    HW287105  11.835   5.562   6.669
95070SOL     OW87106   4.032   3.955   1.308
95070SOL    HW187107   3.945   3.992   1.290
95070SOL    HW287108   4.093   4.022   1.278
95071SOL     OW87109   1.982   2.435   1.515
95071SOL    HW187110   1.922   2.390   1.454
95071SOL    HW287111   2.042   2.366   1.544
95072SOL     OW87112  13.461   0.995   6.268
95072SOL    HW187113  13.501   1.081   6.260
95072SOL    HW287114  13.531   0.933   6.245
95073SOL     OW87115  11.984   9.530  11.187
95073SOL    HW187116  11.917   9.557  11.250
95073SOL    HW287117  11.945   9.546  11.102
95074SOL     OW87118   3.136  13.827  11.352
95074SOL    HW187119   3.078  13.803  11.424
95074SOL    HW287120   3.126  13.921  11.342
95075SOL     OW87121   7.251   5.772  11.189
95075SOL    HW187122   7.264   5.866  11.198
95075SOL    HW287123   7.162   5.757  11.219
95076SOL     OW87124   5.214   5.727  14.508
95076SOL    HW187125   5.138   5.767  14.551
95076SOL    HW287126   5.184   5.709  14.419
95077SOL     OW87127  11.194  12.809  10.098
95077SOL    HW187128  11.189  12.796  10.193
95077SOL    HW287129  11.200  12.904  10.087
95078SOL     OW87130   3.705   9.289  13.011
95078SOL    HW187131   3.702   9.366  12.955
95078SOL    HW287132   3.681   9.216  12.954
95079SOL     OW87133   2.693   2.049   9.593
95079SOL    HW187134   2.603   2.083   9.590
95079SOL    HW287135   2.739   2.108   9.652
95080SOL     OW87136   7.349   8.608  12.176
95080SOL    HW187137   7.395   8.528  12.201
95080SOL    HW287138   7.390   8.677  12.227
95081SOL     OW87139   0.277   7.282   1.478
95081SOL    HW187140   0.314   7.255   1.394
95081SOL    HW287141   0.242   7.201   1.515
95082SOL     OW87142   8.358  13.480   4.842
95082SOL    HW187143   8.379  13.569   4.870
95082SOL    HW287144   8.309  13.443   4.915
95083SOL     OW87145  11.731  10.087   4.505
95083SOL    HW187146  11.647  10.051   4.476
95083SOL    HW287147  11.755  10.149   4.436
95084SOL     OW87148   1.833   5.912  12.779
95084SOL    HW187149   1.918   5.949  12.755
95084SOL    HW287150   1.831   5.917  12.875
95085SOL     OW87151   6.616   2.907   1.827
95085SOL    HW187152   6.543   2.955   1.789
95085SOL    HW287153   6.690   2.967   1.820
95086SOL     OW87154   5.192   1.926   1.531
95086SOL    HW187155   5.168   1.999   1.473
95086SOL    HW287156   5.189   1.849   1.474
95087SOL     OW87157   6.377   2.139  11.896
95087SOL    HW187158   6.403   2.069  11.837
95087SOL    HW287159   6.458   2.164  11.941
95088SOL     OW87160   3.147   9.625   2.557
95088SOL    HW187161   3.226   9.573   2.545
95088SOL    HW287162   3.157   9.698   2.495
95089SOL     OW87163  14.206   6.176   0.918
95089SOL    HW187164  14.111   6.168   0.932
95089SOL    HW287165  14.229   6.097   0.868
95090SOL     OW87166  10.748  10.591   2.108
95090SOL    HW187167  10.803  10.646   2.053
95090SOL    HW287168  10.667  10.580   2.058
95091SOL     OW87169   4.546  10.759  13.710
95091SOL    HW187170   4.560  10.816  13.634
95091SOL    HW287171   4.456  10.778  13.738
95092SOL     OW87172   4.993   6.082   2.545
95092SOL    HW187173   5.002   5.988   2.563
95092SOL    HW287174   4.987   6.122   2.631
95093SOL     OW87175   4.152   2.594   9.541
95093SOL    HW187176   4.186   2.682   9.526
95093SOL    HW287177   4.159   2.581   9.635
95094SOL     OW87178  10.355   0.987   3.403
95094SOL    HW187179  10.272   1.031   3.384
95094SOL    HW287180  10.350   0.964   3.495
95095SOL     OW87181   5.213   1.264   4.907
95095SOL    HW187182   5.279   1.316   4.860
95095SOL    HW287183   5.245   1.261   4.997
95096SOL     OW87184   4.143   2.743   0.861
95096SOL    HW187185   4.223   2.774   0.820
95096SOL    HW287186   4.078   2.743   0.791
95097SOL     OW87187  11.479   3.192   5.030
95097SOL    HW187188  11.565   3.192   4.988
95097SOL    HW287189  11.427   3.130   4.979
95098SOL     OW87190  11.664  13.203  13.736
95098SOL    HW187191  11.572  13.227  13.729
95098SOL    HW287192  11.712  13.282  13.713
95099SOL     OW87193  13.294   5.208   6.894
95099SOL    HW187194  13.390   5.212   6.899
95099SOL    HW287195  13.276   5.187   6.803
95100SOL     OW87196   7.222   2.198  14.455
95100SOL    HW187197   7.307   2.196  14.410
95100SOL    HW287198   7.221   2.117  14.507
95101SOL     OW87199  13.722   3.037   3.367
95101SOL    HW187200  13.763   3.123   3.371
95101SOL    HW287201  13.689   3.021   3.455
95102SOL     OW87202  14.265  11.516  12.986
95102SOL    HW187203  14.352  11.540  13.017
95102SOL    HW287204  14.205  11.556  13.050
95103SOL     OW87205   2.155   9.812  14.785
95103SOL    HW187206   2.147   9.883  14.721
95103SOL    HW287207   2.109   9.738  14.744
95104SOL     OW87208   7.621  12.389   3.758
95104SOL    HW187209   7.594  12.414   3.846
95104SOL    HW287210   7.599  12.465   3.703
95105SOL     OW87211   9.291   5.673  14.395
95105SOL    HW187212   9.252   5.604  14.342
95105SOL    HW287213   9.385   5.655  14.391
95106SOL     OW87214   7.645   1.555   2.959
95106SOL    HW187215   7.691   1.543   3.042
95106SOL    HW287216   7.553   1.537   2.980
95107SOL     OW87217  12.468   3.702   9.515
95107SOL    HW187218  12.375   3.701   9.495
95107SOL    HW287219  12.508   3.751   9.443
95108SOL     OW87220  13.911   2.140  12.872
95108SOL    HW187221  13.882   2.198  12.942
95108SOL    HW287222  13.830   2.099  12.840
95109SOL     OW87223   5.491   2.375   9.962
95109SOL    HW187224   5.499   2.334   9.876
95109SOL    HW287225   5.436   2.451   9.948
95110SOL     OW87226   4.928   7.595   4.933
95110SOL    HW187227   4.843   7.598   4.978
95110SOL    HW287228   4.967   7.512   4.961
95111SOL     OW87229   9.303   1.791   8.072
95111SOL    HW187230   9.358   1.869   8.058
95111SOL    HW287231   9.296   1.751   7.986
95112SOL     OW87232  10.337  13.033  13.835
95112SOL    HW187233  10.401  13.018  13.765
95112SOL    HW287234  10.293  12.948  13.845
95113SOL     OW87235   0.162   6.107  12.642
95113SOL    HW187236   0.160   6.059  12.725
95113SOL    HW287237   0.243   6.157  12.645
95114SOL     OW87238  10.019   5.355   3.144
95114SOL    HW187239   9.999   5.447   3.126
95114SOL    HW287240  10.087   5.358   3.211
95115SOL     OW87241   8.874   6.345  11.205
95115SOL    HW187242   8.809   6.367  11.272
95115SOL    HW287243   8.862   6.251  11.190
95116SOL     OW87244  12.807   7.127  11.921
95116SOL    HW187245  12.800   7.158  12.011
95116SOL    HW287246  12.857   7.195  11.876
95117SOL     OW87247   8.386  13.356   9.480
95117SOL    HW187248   8.442  13.434   9.478
95117SOL    HW287249   8.397  13.317   9.393
95118SOL     OW87250   3.158   0.115  13.213
95118SOL    HW187251   3.129   0.207  13.217
95118SOL    HW287252   3.144   0.082  13.302
95119SOL     OW87253  10.914   6.172   1.010
95119SOL    HW187254  10.833   6.151   0.964
95119SOL    HW287255  10.914   6.268   1.015
95120SOL     OW87256   0.286   2.596   6.393
95120SOL    HW187257   0.288   2.673   6.336
95120SOL    HW287258   0.224   2.620   6.462
95121SOL     OW87259  14.571   1.764   1.053
95121SOL    HW187260  14.502   1.821   1.020
95121SOL    HW287261  14.537   1.729   1.135
95122SOL     OW87262   1.714   0.398   9.494
95122SOL    HW187263   1.738   0.428   9.581
95122SOL    HW287264   1.627   0.436   9.479
95123SOL     OW87265   9.127   8.950  12.932
95123SOL    HW187266   9.059   8.976  12.994
95123SOL    HW287267   9.159   9.033  12.896
95124SOL     OW87268   3.797   0.818  13.251
95124SOL    HW187269   3.817   0.822  13.158
95124SOL    HW287270   3.804   0.725  13.272
95125SOL     OW87271   8.185  10.738  14.377
95125SOL    HW187272   8.184  10.819  14.428
95125SOL    HW287273   8.268  10.696  14.400
95126SOL     OW87274   1.908   2.752   6.697
95126SOL    HW187275   1.816   2.744   6.673
95126SOL    HW287276   1.956   2.739   6.615
95127SOL     OW87277   9.648   6.799   6.960
95127SOL    HW187278   9.654   6.724   7.019
95127SOL    HW287279   9.562   6.790   6.919
95128SOL     OW87280  10.458   1.271   9.229
95128SOL    HW187281  10.382   1.323   9.203
95128SOL    HW287282  10.530   1.335   9.234
95129SOL     OW87283  12.565   1.820   2.723
95129SOL    HW187284  12.524   1.812   2.809
95129SOL    HW287285  12.496   1.795   2.661
95130SOL     OW87286   8.522  10.462   0.934
95130SOL    HW187287   8.427  10.456   0.949
95130SOL    HW287288   8.560  10.457   1.022
95131SOL     OW87289   1.405   5.659   3.311
95131SOL    HW187290   1.448   5.595   3.367
95131SOL    HW287291   1.468   5.675   3.240
95132SOL     OW87292   3.407   9.855   8.677
95132SOL    HW187293   3.352   9.814   8.744
95132SOL    HW287294   3.404   9.948   8.697
95133SOL     OW87295  14.130   0.179   1.212
95133SOL    HW187296  14.132   0.110   1.145
95133SOL    HW287297  14.101   0.134   1.291
95134SOL     OW87298  10.852   2.504   8.761
95134SOL    HW187299  10.845   2.505   8.856
95134SOL    HW287300  10.763   2.486   8.730
95135SOL     OW87301   4.180  11.244  12.480
95135SOL    HW187302   4.160  11.277  12.393
95135SOL    HW287303   4.269  11.273  12.498
95136SOL     OW87304   1.773  10.381   5.988
95136SOL    HW187305   1.851  10.408   6.035
95136SOL    HW287306   1.712  10.353   6.056
95137SOL     OW87307  12.044   4.535   3.218
95137SOL    HW187308  12.001   4.452   3.199
95137SOL    HW287309  11.981   4.601   3.192
95138SOL     OW87310   4.041  14.476   5.215
95138SOL    HW187311   4.002  14.410   5.158
95138SOL    HW287312   4.134  14.473   5.196
95139SOL     OW87313  11.731   7.683   7.246
95139SOL    HW187314  11.707   7.633   7.324
95139SOL    HW287315  11.659   7.744   7.234
95140SOL     OW87316   2.531  14.113   3.165
95140SOL    HW187317   2.440  14.133   3.145
95140SOL    HW287318   2.569  14.086   3.082
95141SOL     OW87319   3.045   9.132   8.329
95141SOL    HW187320   3.053   9.198   8.398
95141SOL    HW287321   3.059   9.048   8.374
95142SOL     OW87322  11.445  13.942   7.864
95142SOL    HW187323  11.481  14.006   7.926
95142SOL    HW287324  11.418  13.868   7.919
95143SOL     OW87325  11.302  10.342   2.482
95143SOL    HW187326  11.215  10.380   2.490
95143SOL    HW287327  11.299  10.265   2.539
95144SOL     OW87328   0.242   9.819   2.061
95144SOL    HW187329   0.213   9.910   2.066
95144SOL    HW287330   0.315   9.820   1.998
95145SOL     OW87331   3.593  11.304   6.508
95145SOL    HW187332   3.592  11.311   6.603
95145SOL    HW287333   3.563  11.215   6.490
95146SOL     OW87334   2.749   9.051  11.272
95146SOL    HW187335   2.823   9.095  11.313
95146SOL    HW287336   2.683   9.043  11.341
95147SOL     OW87337   0.981   4.064   1.878
95147SOL    HW187338   0.885   4.063   1.885
95147SOL    HW287339   1.010   3.998   1.942
95148SOL     OW87340   7.232  10.636  10.871
95148SOL    HW187341   7.215  10.585  10.951
95148SOL    HW287342   7.282  10.576  10.816
95149SOL     OW87343   1.906   3.530   3.337
95149SOL    HW187344   1.811   3.524   3.349
95149SOL    HW287345   1.917   3.559   3.247
95150SOL     OW87346   8.311   6.405  14.319
95150SOL    HW187347   8.356   6.489  14.329
95150SOL    HW287348   8.256   6.417  14.241
95151SOL     OW87349   6.058  12.321   5.440
95151SOL    HW187350   6.122  12.342   5.508
95151SOL    HW287351   5.982  12.287   5.488
95152SOL     OW87352   6.873   5.501  12.459
95152SOL    HW187353   6.912   5.415  12.479
95152SOL    HW287354   6.939   5.564  12.486
95153SOL     OW87355  11.322   4.396   1.972
95153SOL    HW187356  11.240   4.429   1.934
95153SOL    HW287357  11.384   4.398   1.900
95154SOL     OW87358   8.585   8.060   0.987
95154SOL    HW187359   8.668   8.021   1.014
95154SOL    HW287360   8.539   7.990   0.941
95155SOL     OW87361   5.667  13.742   4.416
95155SOL    HW187362   5.658  13.666   4.474
95155SOL    HW287363   5.762  13.753   4.405
95156SOL     OW87364   3.855  10.939  10.673
95156SOL    HW187365   3.799  11.001  10.625
95156SOL    HW287366   3.894  10.885  10.605
95157SOL     OW87367   5.125   8.702   8.659
95157SOL    HW187368   5.054   8.761   8.683
95157SOL    HW287369   5.144   8.722   8.567
95158SOL     OW87370   3.776   9.025   9.135
95158SOL    HW187371   3.772   9.092   9.067
95158SOL    HW287372   3.784   8.943   9.087
95159SOL     OW87373  10.133  11.369  12.309
95159SOL    HW187374  10.119  11.410  12.224
95159SOL    HW287375  10.209  11.414  12.346
95160SOL     OW87376  10.108   1.508   5.670
95160SOL    HW187377  10.037   1.572   5.676
95160SOL    HW287378  10.120   1.493   5.576
95161SOL     OW87379  14.162  14.380   1.042
95161SOL    HW187380  14.177  14.413   1.131
95161SOL    HW287381  14.093  14.315   1.052
95162SOL     OW87382   4.026   1.348  11.195
95162SOL    HW187383   3.981   1.432  11.207
95162SOL    HW287384   3.960   1.291  11.155
95163SOL     OW87385   4.398   8.560   6.560
95163SOL    HW187386   4.482   8.542   6.517
95163SOL    HW287387   4.363   8.473   6.582
95164SOL     OW87388   3.558   5.201   7.319
95164SOL    HW187389   3.634   5.220   7.263
95164SOL    HW287390   3.535   5.286   7.357
95165SOL     OW87391   1.273  13.845   5.010
95165SOL    HW187392   1.301  13.903   5.081
95165SOL    HW287393   1.286  13.756   5.045
95166SOL     OW87394  12.233  12.440  14.420
95166SOL    HW187395  12.166  12.506  14.404
95166SOL    HW287396  12.227  12.380  14.345
95167SOL     OW87397  11.857   7.407   8.174
95167SOL    HW187398  11.777   7.401   8.121
95167SOL    HW287399  11.875   7.501   8.180
95168SOL     OW87400   4.200   3.530   2.995
95168SOL    HW187401   4.169   3.621   3.003
95168SOL    HW287402   4.139   3.479   3.047
95169SOL     OW87403   3.764   4.422   4.005
95169SOL    HW187404   3.730   4.479   4.074
95169SOL    HW287405   3.783   4.339   4.048
95170SOL     OW87406   2.110   5.621   9.466
95170SOL    HW187407   2.111   5.717   9.467
95170SOL    HW287408   2.100   5.599   9.373
95171SOL     OW87409  11.275   4.411   7.171
95171SOL    HW187410  11.356   4.415   7.221
95171SOL    HW287411  11.209   4.381   7.234
95172SOL     OW87412   4.924   4.756   0.852
95172SOL    HW187413   4.992   4.789   0.911
95172SOL    HW287414   4.895   4.833   0.803
95173SOL     OW87415   9.750  13.378   9.274
95173SOL    HW187416   9.724  13.414   9.189
95173SOL    HW287417   9.808  13.305   9.252
95174SOL     OW87418  11.829   3.325   3.901
95174SOL    HW187419  11.795   3.347   3.988
95174SOL    HW287420  11.797   3.395   3.844
95175SOL     OW87421   6.039   8.934  13.706
95175SOL    HW187422   6.053   9.018  13.663
95175SOL    HW287423   6.103   8.932  13.777
95176SOL     OW87424   2.753   6.524   6.458
95176SOL    HW187425   2.684   6.467   6.424
95176SOL    HW287426   2.803   6.550   6.381
95177SOL     OW87427   3.682   5.047  14.565
95177SOL    HW187428   3.685   4.955  14.589
95177SOL    HW287429   3.590   5.065  14.548
95178SOL     OW87430  14.873   4.091  12.729
95178SOL    HW187431  14.783   4.092  12.697
95178SOL    HW287432  14.868   4.051  12.816
95179SOL     OW87433   5.131   3.390   2.675
95179SOL    HW187434   5.057   3.337   2.705
95179SOL    HW287435   5.203   3.327   2.666
95180SOL     OW87436   2.717   1.447   7.674
95180SOL    HW187437   2.666   1.524   7.702
95180SOL    HW287438   2.743   1.466   7.584
95181SOL     OW87439  13.767   1.519   9.333
95181SOL    HW187440  13.792   1.555   9.249
95181SOL    HW287441  13.841   1.464   9.359
95182SOL     OW87442  10.086   1.576   1.410
95182SOL    HW187443   9.991   1.582   1.398
95182SOL    HW287444  10.122   1.589   1.323
95183SOL     OW87445   6.787   2.658   6.810
95183SOL    HW187446   6.840   2.685   6.735
95183SOL    HW287447   6.832   2.696   6.886
95184SOL     OW87448   9.389  11.196   5.950
95184SOL    HW187449   9.409  11.211   6.043
95184SOL    HW287450   9.474  11.178   5.910
95185SOL     OW87451  13.474   5.225  12.844
95185SOL    HW187452  13.408   5.295  12.849
95185SOL    HW287453  13.546   5.264  12.795
95186SOL     OW87454  12.899   9.106  10.847
95186SOL    HW187455  12.872   9.049  10.919
95186SOL    HW287456  12.820   9.121  10.796
95187SOL     OW87457  12.812  10.130   6.343
95187SOL    HW187458  12.883  10.181   6.305
95187SOL    HW287459  12.839  10.039   6.333
95188SOL     OW87460  13.927  13.793   3.576
95188SOL    HW187461  13.852  13.846   3.601
95188SOL    HW287462  13.990  13.857   3.541
95189SOL     OW87463  13.027  12.116  11.816
95189SOL    HW187464  13.028  12.061  11.738
95189SOL    HW287465  13.027  12.205  11.783
95190SOL     OW87466   5.160  10.872   5.887
95190SOL    HW187467   5.176  10.946   5.945
95190SOL    HW287468   5.078  10.892   5.844
95191SOL     OW87469   4.050   5.792   8.249
95191SOL    HW187470   4.075   5.787   8.157
95191SOL    HW287471   3.964   5.834   8.249
95192SOL     OW87472  11.447  10.985   3.817
95192SOL    HW187473  11.397  10.904   3.830
95192SOL    HW287474  11.532  10.968   3.856
95193SOL     OW87475  13.255  10.277   3.632
95193SOL    HW187476  13.171  10.303   3.594
95193SOL    HW287477  13.288  10.356   3.675
95194SOL     OW87478   3.594   7.442  14.580
95194SOL    HW187479   3.613   7.525  14.536
95194SOL    HW287480   3.636   7.451  14.666
95195SOL     OW87481   7.393  12.992  10.740
95195SOL    HW187482   7.333  13.053  10.782
95195SOL    HW287483   7.377  13.004  10.646
95196SOL     OW87484   2.797   7.001   6.678
95196SOL    HW187485   2.875   7.025   6.628
95196SOL    HW287486   2.822   6.922   6.726
95197SOL     OW87487   1.974  13.152   3.010
95197SOL    HW187488   2.032  13.195   3.073
95197SOL    HW287489   2.034  13.112   2.947
95198SOL     OW87490   7.085  14.775   6.764
95198SOL    HW187491   7.128  14.691   6.780
95198SOL    HW287492   7.157  14.838   6.760
95199SOL     OW87493   5.608   9.218  13.110
95199SOL    HW187494   5.576   9.274  13.039
95199SOL    HW287495   5.703   9.229  13.109
95200SOL     OW87496   0.331  13.210   6.967
95200SOL    HW187497   0.243  13.184   6.940
95200SOL    HW287498   0.372  13.129   6.996
95201SOL     OW87499   0.708  10.967   2.685
95201SOL    HW187500   0.744  10.883   2.655
95201SOL    HW287501   0.779  11.029   2.673
95202SOL     OW87502  13.778   8.057   0.330
95202SOL    HW187503  13.762   8.151   0.330
95202SOL    HW287504  13.847   8.044   0.395
95203SOL     OW87505   7.254   2.834   0.236
95203SOL    HW187506   7.183   2.871   0.288
95203SOL    HW287507   7.334   2.864   0.278
95204SOL     OW87508  13.446  10.187   3.806
95204SOL    HW187509  13.500  10.212   3.731
95204SOL    HW287510  13.357  10.182   3.772
95205SOL     OW87511  11.551  12.650   9.005
95205SOL    HW187512  11.617  12.715   8.981
95205SOL    HW287513  11.468  12.695   8.995
95206SOL     OW87514  14.401   5.683   9.585
95206SOL    HW187515  14.461   5.758   9.592
95206SOL    HW287516  14.415   5.633   9.665
95207SOL     OW87517   3.642   7.040  10.339
95207SOL    HW187518   3.636   7.025  10.245
95207SOL    HW287519   3.645   7.136  10.348
95208SOL     OW87520   5.538  12.476  13.357
95208SOL    HW187521   5.451  12.445  13.381
95208SOL    HW287522   5.525  12.567  13.330
95209SOL     OW87523  14.784   1.560   1.058
95209SOL    HW187524  14.708   1.617   1.076
95209SOL    HW287525  14.762   1.518   0.975
95210SOL     OW87526  14.541   9.845   9.608
95210SOL    HW187527  14.624   9.870   9.649
95210SOL    HW287528  14.513   9.768   9.656
95211SOL     OW87529   2.271  11.809  12.279
95211SOL    HW187530   2.234  11.721  12.272
95211SOL    HW287531   2.225  11.859  12.212
95212SOL     OW87532  12.290  10.698   6.878
95212SOL    HW187533  12.365  10.664   6.927
95212SOL    HW287534  12.248  10.759   6.938
95213SOL     OW87535   0.421  13.980  10.965
95213SOL    HW187536   0.409  13.886  10.979
95213SOL    HW287537   0.356  14.003  10.900
95214SOL     OW87538   3.883   8.117   3.824
95214SOL    HW187539   3.937   8.099   3.746
95214SOL    HW287540   3.918   8.059   3.891
95215SOL     OW87541   9.368  14.095  10.653
95215SOL    HW187542   9.300  14.162  10.657
95215SOL    HW287543   9.373  14.061  10.742
95216SOL     OW87544   1.333  10.094   8.734
95216SOL    HW187545   1.318  10.136   8.818
95216SOL    HW287546   1.417  10.049   8.744
95217SOL     OW87547   9.038  13.128   0.205
95217SOL    HW187548   8.977  13.081   0.261
95217SOL    HW287549   9.115  13.071   0.202
95218SOL     OW87550   6.121   4.618   4.816
95218SOL    HW187551   6.122   4.694   4.873
95218SOL    HW287552   6.193   4.563   4.849
95219SOL     OW87553   6.125  14.721   0.693
95219SOL    HW187554   6.165  14.800   0.659
95219SOL    HW287555   6.140  14.655   0.625
95220SOL     OW87556   8.238   3.334   1.349
95220SOL    HW187557   8.237   3.427   1.374
95220SOL    HW287558   8.213   3.333   1.257
95221SOL     OW87559   4.303   2.742  11.283
95221SOL    HW187560   4.288   2.781  11.196
95221SOL    HW287561   4.250   2.795  11.342
95222SOL     OW87562   7.554   0.325   2.156
95222SOL    HW187563   7.568   0.252   2.095
95222SOL    HW287564   7.465   0.313   2.188
95223SOL     OW87565  13.574   2.601  11.505
95223SOL    HW187566  13.659   2.627  11.470
95223SOL    HW287567  13.564   2.510  11.477
95224SOL     OW87568   0.390  10.037   6.556
95224SOL    HW187569   0.338   9.993   6.489
95224SOL    HW287570   0.405  10.125   6.521
95225SOL     OW87571   8.738  11.465  12.381
95225SOL    HW187572   8.787  11.396  12.336
95225SOL    HW287573   8.718  11.528  12.312
95226SOL     OW87574   3.411   5.181   4.614
95226SOL    HW187575   3.388   5.172   4.521
95226SOL    HW287576   3.368   5.107   4.657
95227SOL     OW87577   9.368   1.156   2.519
95227SOL    HW187578   9.454   1.113   2.517
95227SOL    HW287579   9.376   1.221   2.589
95228SOL     OW87580   4.270   7.218  10.258
95228SOL    HW187581   4.326   7.236  10.334
95228SOL    HW287582   4.234   7.131  10.275
95229SOL     OW87583   4.612   2.903   1.456
95229SOL    HW187584   4.645   2.949   1.379
95229SOL    HW287585   4.675   2.924   1.525
95230SOL     OW87586   4.754   8.820   3.981
95230SOL    HW187587   4.783   8.742   3.935
95230SOL    HW287588   4.659   8.812   3.985
95231SOL     OW87589   5.804   0.324   3.080
95231SOL    HW187590   5.815   0.345   2.988
95231SOL    HW287591   5.748   0.246   3.081
95232SOL     OW87592   9.881   7.099   3.103
95232SOL    HW187593   9.836   7.067   3.181
95232SOL    HW287594   9.817   7.155   3.059
95233SOL     OW87595   0.139   3.654   7.866
95233SOL    HW187596   0.135   3.642   7.960
95233SOL    HW287597   0.232   3.646   7.845
95234SOL     OW87598   9.763   8.434  13.590
95234SOL    HW187599   9.771   8.523  13.623
95234SOL    HW287600   9.732   8.383  13.665
95235SOL     OW87601  13.369   8.459   0.471
95235SOL    HW187602  13.341   8.372   0.501
95235SOL    HW287603  13.329   8.468   0.384
95236SOL     OW87604  14.794   6.297   6.035
95236SOL    HW187605  14.740   6.221   6.013
95236SOL    HW287606  14.873   6.260   6.074
95237SOL     OW87607   8.251  11.532  10.077
95237SOL    HW187608   8.217  11.620  10.065
95237SOL    HW287609   8.189  11.475  10.030
95238SOL     OW87610   4.060   2.634   3.256
95238SOL    HW187611   4.018   2.666   3.337
95238SOL    HW287612   4.057   2.709   3.197
95239SOL     OW87613  10.589  13.659  11.534
95239SOL    HW187614  10.605  13.613  11.451
95239SOL    HW287615  10.519  13.721  11.512
95240SOL     OW87616  10.742   3.643   6.478
95240SOL    HW187617  10.713   3.604   6.561
95240SOL    HW287618  10.693   3.725   6.472
95241SOL     OW87619   3.192   0.490   9.556
95241SOL    HW187620   3.175   0.499   9.650
95241SOL    HW287621   3.285   0.468   9.551
95242SOL     OW87622   2.426   8.535  12.569
95242SOL    HW187623   2.485   8.547  12.495
95242SOL    HW287624   2.356   8.480  12.536
95243SOL     OW87625  12.160   3.045  12.061
95243SOL    HW187626  12.208   3.006  11.989
95243SOL    HW287627  12.172   2.985  12.135
95244SOL     OW87628   4.544   5.107   1.534
95244SOL    HW187629   4.570   5.193   1.500
95244SOL    HW287630   4.501   5.064   1.460
95245SOL     OW87631  14.726   7.146   8.986
95245SOL    HW187632  14.724   7.241   8.997
95245SOL    HW287633  14.699   7.131   8.895
95246SOL     OW87634   4.520   3.377   9.757
95246SOL    HW187635   4.447   3.380   9.695
95246SOL    HW287636   4.519   3.288   9.791
95247SOL     OW87637  10.788   0.893   9.806
95247SOL    HW187638  10.796   0.979   9.765
95247SOL    HW287639  10.878   0.863   9.817
95248SOL     OW87640   6.389   3.113   1.343
95248SOL    HW187641   6.307   3.086   1.301
95248SOL    HW287642   6.408   3.043   1.405
95249SOL     OW87643   3.806   6.442  10.232
95249SOL    HW187644   3.844   6.529  10.241
95249SOL    HW287645   3.876   6.389  10.192
95250SOL     OW87646   2.155  13.827   2.886
95250SOL    HW187647   2.107  13.767   2.830
95250SOL    HW287648   2.115  13.912   2.870
95251SOL     OW87649   4.655   0.549   6.659
95251SOL    HW187650   4.592   0.580   6.724
95251SOL    HW287651   4.696   0.629   6.625
95252SOL     OW87652   3.271   3.188   8.046
95252SOL    HW187653   3.282   3.273   8.004
95252SOL    HW287654   3.261   3.126   7.974
95253SOL     OW87655  10.464  11.383   9.816
95253SOL    HW187656  10.470  11.460   9.872
95253SOL    HW287657  10.543  11.332   9.837
95254SOL     OW87658  13.477   6.024   2.135
95254SOL    HW187659  13.550   6.015   2.196
95254SOL    HW287660  13.433   6.105   2.162
95255SOL     OW87661  10.802  11.631  12.085
95255SOL    HW187662  10.816  11.600  11.995
95255SOL    HW287663  10.757  11.715  12.074
95256SOL     OW87664   2.789  14.785  12.492
95256SOL    HW187665   2.787  14.783  12.396
95256SOL    HW287666   2.824  14.871  12.514
95257SOL     OW87667  12.361   4.816   9.654
95257SOL    HW187668  12.347   4.911   9.657
95257SOL    HW287669  12.305   4.781   9.722
95258SOL     OW87670   2.352   9.306  10.486
95258SOL    HW187671   2.393   9.236  10.435
95258SOL    HW287672   2.306   9.360  10.421
95259SOL     OW87673   2.739  13.752   4.516
95259SOL    HW187674   2.817  13.704   4.488
95259SOL    HW287675   2.744  13.753   4.611
95260SOL     OW87676   8.211  14.599  12.877
95260SOL    HW187677   8.224  14.655  12.953
95260SOL    HW287678   8.197  14.511  12.914
95261SOL     OW87679   8.832   3.225   0.412
95261SOL    HW187680   8.781   3.160   0.363
95261SOL    HW287681   8.826   3.196   0.503
95262SOL     OW87682  13.871  14.499  10.751
95262SOL    HW187683  13.893  14.513  10.843
95262SOL    HW287684  13.853  14.587  10.716
95263SOL     OW87685   8.261   8.448   5.059
95263SOL    HW187686   8.333   8.461   5.121
95263SOL    HW287687   8.197   8.395   5.107
95264SOL     OW87688  14.251  14.654  14.370
95264SOL    HW187689  14.320  14.638  14.305
95264SOL    HW287690  14.262  14.585  14.435
95265SOL     OW87691   5.621   4.383  14.435
95265SOL    HW187692   5.570   4.431  14.370
95265SOL    HW287693   5.682   4.330  14.383
95266SOL     OW87694   2.819   7.880   7.223
95266SOL    HW187695   2.824   7.852   7.131
95266SOL    HW287696   2.731   7.853   7.251
95267SOL     OW87697   0.131   2.810  11.062
95267SOL    HW187698   0.082   2.881  11.104
95267SOL    HW287699   0.215   2.808  11.109
95268SOL     OW87700  13.908  11.672   0.160
95268SOL    HW187701  13.822  11.650   0.124
95268SOL    HW287702  13.969  11.615   0.113
95269SOL     OW87703   1.307   5.731   0.618
95269SOL    HW187704   1.360   5.721   0.539
95269SOL    HW287705   1.249   5.656   0.618
95270SOL     OW87706  14.145   8.027   8.837
95270SOL    HW187707  14.107   8.095   8.892
95270SOL    HW287708  14.127   8.055   8.747
95271SOL     OW87709   9.124  11.767   5.182
95271SOL    HW187710   9.066  11.766   5.106
95271SOL    HW287711   9.207  11.800   5.147
95272SOL     OW87712   4.641   2.694   8.075
95272SOL    HW187713   4.575   2.649   8.128
95272SOL    HW287714   4.597   2.710   7.991
95273SOL     OW87715  13.596   0.147  11.103
95273SOL    HW187716  13.562   0.059  11.116
95273SOL    HW287717  13.522   0.205  11.123
95274SOL     OW87718   9.289  10.762   1.884
95274SOL    HW187719   9.194  10.766   1.900
95274SOL    HW287720   9.319  10.689   1.938
95275SOL     OW87721   8.725  12.783   8.435
95275SOL    HW187722   8.650  12.796   8.376
95275SOL    HW287723   8.688  12.788   8.523
95276SOL     OW87724  10.320   0.877  10.246
95276SOL    HW187725  10.329   0.815  10.174
95276SOL    HW287726  10.377   0.843  10.314
95277SOL     OW87727  11.727   1.751   2.169
95277SOL    HW187728  11.781   1.830   2.160
95277SOL    HW287729  11.779   1.682   2.128
95278SOL     OW87730   9.023   3.072   1.218
95278SOL    HW187731   9.010   3.166   1.202
95278SOL    HW287732   9.049   3.067   1.310
95279SOL     OW87733  12.082  12.054  11.807
95279SOL    HW187734  12.046  11.966  11.819
95279SOL    HW287735  12.011  12.103  11.765
95280SOL     OW87736  13.466   2.628   3.988
95280SOL    HW187737  13.379   2.615   4.024
95280SOL    HW287738  13.459   2.709   3.937
95281SOL     OW87739  13.718   8.980   8.689
95281SOL    HW187740  13.711   9.048   8.621
95281SOL    HW287741  13.745   8.902   8.641
95282SOL     OW87742  14.016   4.871  12.823
95282SOL    HW187743  13.975   4.787  12.803
95282SOL    HW287744  13.949   4.936  12.802
95283SOL     OW87745  14.201   7.771  12.746
95283SOL    HW187746  14.269   7.708  12.723
95283SOL    HW287747  14.179   7.752  12.837
95284SOL     OW87748   4.521   8.236   8.711
95284SOL    HW187749   4.472   8.200   8.638
95284SOL    HW287750   4.468   8.216   8.789
95285SOL     OW87751   7.726  13.079  14.743
95285SOL    HW187752   7.758  13.027  14.669
95285SOL    HW287753   7.800  13.135  14.767
95286SOL     OW87754  14.406  11.285   3.870
95286SOL    HW187755  14.459  11.255   3.944
95286SOL    HW287756  14.469  11.305   3.802
95287SOL     OW87757   4.584  11.283   5.823
95287SOL    HW187758   4.512  11.252   5.768
95287SOL    HW287759   4.630  11.346   5.768
95288SOL     OW87760   8.519   2.979   3.144
95288SOL    HW187761   8.528   3.074   3.149
95288SOL    HW287762   8.603   2.946   3.175
95289SOL     OW87763  12.189   6.482  10.586
95289SOL    HW187764  12.144   6.534  10.652
95289SOL    HW287765  12.255   6.540  10.550
95290SOL     OW87766   8.049   5.812   3.428
95290SOL    HW187767   8.021   5.738   3.482
95290SOL    HW287768   8.121   5.777   3.376
95291SOL     OW87769   5.103  12.326   6.975
95291SOL    HW187770   5.107  12.234   7.001
95291SOL    HW287771   5.063  12.325   6.888
95292SOL     OW87772   3.721  10.620   0.529
95292SOL    HW187773   3.714  10.663   0.443
95292SOL    HW287774   3.654  10.552   0.527
95293SOL     OW87775   3.945  13.929  13.777
95293SOL    HW187776   3.977  13.969  13.697
95293SOL    HW287777   3.859  13.968  13.791
95294SOL     OW87778   7.112   3.816  10.803
95294SOL    HW187779   7.204   3.794  10.818
95294SOL    HW287780   7.096   3.790  10.713
95295SOL     OW87781  14.268  11.785  10.497
95295SOL    HW187782  14.212  11.753  10.426
95295SOL    HW287783  14.357  11.781  10.461
95296SOL     OW87784   0.002   8.219   8.513
95296SOL    HW187785   0.039   8.297   8.554
95296SOL    HW287786   0.035   8.220   8.424
95297SOL     OW87787  10.443   2.067  14.539
95297SOL    HW187788  10.484   2.151  14.517
95297SOL    HW287789  10.377   2.089  14.605
95298SOL     OW87790   1.265  12.984   2.820
95298SOL    HW187791   1.259  12.981   2.724
95298SOL    HW287792   1.183  12.944   2.850
95299SOL     OW87793  13.434  11.839   5.237
95299SOL    HW187794  13.448  11.883   5.321
95299SOL    HW287795  13.442  11.746   5.257
95300SOL     OW87796  13.583   3.009   7.090
95300SOL    HW187797  13.544   2.997   7.003
95300SOL    HW287798  13.563   3.099   7.113
95301SOL     OW87799   4.646   5.532   0.864
95301SOL    HW187800   4.609   5.520   0.776
95301SOL    HW287801   4.572   5.517   0.923
95302SOL     OW87802   4.110   3.542  13.241
95302SOL    HW187803   4.133   3.463  13.192
95302SOL    HW287804   4.194   3.580  13.266
95303SOL     OW87805   5.885   0.780  12.526
95303SOL    HW187806   5.939   0.702  12.511
95303SOL    HW287807   5.909   0.839  12.454
95304SOL     OW87808   8.544   8.029  12.574
95304SOL    HW187809   8.558   8.123  12.564
95304SOL    HW287810   8.594   7.989  12.503
95305SOL     OW87811   6.625   8.810  11.697
95305SOL    HW187812   6.704   8.849  11.659
95305SOL    HW287813   6.657   8.755  11.769
95306SOL     OW87814   3.402   5.464  10.694
95306SOL    HW187815   3.447   5.380  10.686
95306SOL    HW287816   3.309   5.444  10.680
95307SOL     OW87817   8.198   7.936   6.694
95307SOL    HW187818   8.285   7.903   6.715
95307SOL    HW287819   8.147   7.922   6.774
95308SOL     OW87820  12.028   5.394   6.449
95308SOL    HW187821  11.945   5.376   6.493
95308SOL    HW287822  12.016   5.360   6.360
95309SOL     OW87823  11.839  12.864   4.280
95309SOL    HW187824  11.818  12.787   4.227
95309SOL    HW287825  11.754  12.899   4.306
95310SOL     OW87826  11.273   8.628  10.178
95310SOL    HW187827  11.227   8.599  10.100
95310SOL    HW287828  11.297   8.719  10.159
95311SOL     OW87829   5.223   4.509  14.858
95311SOL    HW187830   5.162   4.559   0.034
95311SOL    HW287831   5.172   4.483  14.781
95312SOL     OW87832   4.833   3.180   2.060
95312SOL    HW187833   4.775   3.136   1.997
95312SOL    HW287834   4.852   3.264   2.019
95313SOL     OW87835   3.426   6.226   3.352
95313SOL    HW187836   3.352   6.288   3.359
95313SOL    HW287837   3.392   6.156   3.297
95314SOL     OW87838  12.005   3.990  13.626
95314SOL    HW187839  11.940   4.002  13.695
95314SOL    HW287840  11.983   3.906  13.586
95315SOL     OW87841   6.543   7.367  13.081
95315SOL    HW187842   6.619   7.346  13.135
95315SOL    HW287843   6.506   7.282  13.057
95316SOL     OW87844   4.140   9.425   7.270
95316SOL    HW187845   4.159   9.375   7.349
95316SOL    HW287846   4.203   9.497   7.271
95317SOL     OW87847  12.276  12.098   7.921
95317SOL    HW187848  12.371  12.091   7.926
95317SOL    HW287849  12.258  12.191   7.936
95318SOL     OW87850   3.677  13.114   8.312
95318SOL    HW187851   3.745  13.103   8.378
95318SOL    HW287852   3.601  13.145   8.360
95319SOL     OW87853  14.042   6.678   5.727
95319SOL    HW187854  14.039   6.598   5.781
95319SOL    HW287855  14.134   6.703   5.726
95320SOL     OW87856   3.039   8.952   0.298
95320SOL    HW187857   3.105   8.896   0.338
95320SOL    HW287858   2.957   8.927   0.342
95321SOL     OW87859   3.736   8.914   6.851
95321SOL    HW187860   3.769   8.996   6.888
95321SOL    HW287861   3.657   8.939   6.804
95322SOL     OW87862  11.736   7.962   0.525
95322SOL    HW187863  11.828   7.967   0.501
95322SOL    HW287864  11.700   8.047   0.501
95323SOL     OW87865   6.606   6.627   3.738
95323SOL    HW187866   6.568   6.702   3.691
95323SOL    HW287867   6.695   6.655   3.758
95324SOL     OW87868   4.308   0.482   5.111
95324SOL    HW187869   4.270   0.433   5.185
95324SOL    HW287870   4.270   0.570   5.119
95325SOL     OW87871   9.884  10.515   7.480
95325SOL    HW187872   9.979  10.514   7.480
95325SOL    HW287873   9.860  10.604   7.456
95326SOL     OW87874   3.417   2.856   2.915
95326SOL    HW187875   3.511   2.860   2.897
95326SOL    HW287876   3.382   2.937   2.879
95327SOL     OW87877  10.350   8.429   3.927
95327SOL    HW187878  10.400   8.469   3.855
95327SOL    HW287879  10.282   8.378   3.883
95328SOL     OW87880   3.221   5.443   5.278
95328SOL    HW187881   3.287   5.457   5.345
95328SOL    HW287882   3.148   5.498   5.304
95329SOL     OW87883   0.140  10.520  14.718
95329SOL    HW187884   0.098  10.510  14.632
95329SOL    HW287885   0.220  10.469  14.711
95330SOL     OW87886   5.301  13.467  11.605
95330SOL    HW187887   5.262  13.455  11.691
95330SOL    HW287888   5.292  13.560  11.587
95331SOL     OW87889   6.116  10.721   9.984
95331SOL    HW187890   6.175  10.700   9.911
95331SOL    HW287891   6.148  10.804  10.017
95332SOL     OW87892   9.877  11.804   9.886
95332SOL    HW187893   9.912  11.824   9.973
95332SOL    HW287894   9.877  11.888   9.840
95333SOL     OW87895  12.279   9.680   4.407
95333SOL    HW187896  12.243   9.592   4.422
95333SOL    HW287897  12.241   9.734   4.477
95334SOL     OW87898   5.592   3.391   8.543
95334SOL    HW187899   5.592   3.454   8.615
95334SOL    HW287900   5.519   3.332   8.562
95335SOL     OW87901  12.823   2.861   4.585
95335SOL    HW187902  12.899   2.816   4.624
95335SOL    HW287903  12.747   2.815   4.621
95336SOL     OW87904   6.083  10.664   1.342
95336SOL    HW187905   6.100  10.571   1.351
95336SOL    HW287906   6.142  10.694   1.273
95337SOL     OW87907  11.670   3.979   3.888
95337SOL    HW187908  11.684   4.032   3.967
95337SOL    HW287909  11.577   3.955   3.892
95338SOL     OW87910  12.596  10.822   4.963
95338SOL    HW187911  12.686  10.837   4.994
95338SOL    HW287912  12.588  10.876   4.885
95339SOL     OW87913  14.061  11.704  13.409
95339SOL    HW187914  14.105  11.777  13.451
95339SOL    HW287915  14.079  11.629  13.465
95340SOL     OW87916  10.104  12.263   4.336
95340SOL    HW187917  10.045  12.321   4.287
95340SOL    HW287918  10.141  12.319   4.404
95341SOL     OW87919   6.040   8.974   3.751
95341SOL    HW187920   5.948   8.998   3.749
95341SOL    HW287921   6.076   9.010   3.670
95342SOL     OW87922   5.935   7.129   2.331
95342SOL    HW187923   5.960   7.065   2.264
95342SOL    HW287924   5.851   7.097   2.364
95343SOL     OW87925   4.444   5.071   2.997
95343SOL    HW187926   4.468   4.981   3.020
95343SOL    HW287927   4.394   5.103   3.073
95344SOL     OW87928  11.461   3.374   0.171
95344SOL    HW187929  11.469   3.363   0.266
95344SOL    HW287930  11.391   3.439   0.160
95345SOL     OW87931  11.558  12.191   6.470
95345SOL    HW187932  11.482  12.230   6.514
95345SOL    HW287933  11.593  12.129   6.534
95346SOL     OW87934   8.605   4.372  12.904
95346SOL    HW187935   8.697   4.375  12.929
95346SOL    HW287936   8.558   4.412  12.978
95347SOL     OW87937  13.719   5.536  13.457
95347SOL    HW187938  13.800   5.563  13.414
95347SOL    HW287939  13.679   5.472  13.398
95348SOL     OW87940   2.367  10.873   4.657
95348SOL    HW187941   2.374  10.926   4.737
95348SOL    HW287942   2.388  10.784   4.686
95349SOL     OW87943   3.066  14.089   3.663
95349SOL    HW187944   3.159  14.099   3.642
95349SOL    HW287945   3.065  14.050   3.751
95350SOL     OW87946   5.978   2.268   1.027
95350SOL    HW187947   5.994   2.174   1.017
95350SOL    HW287948   6.050   2.310   0.980
95351SOL     OW87949  14.228   5.002   9.178
95351SOL    HW187950  14.159   5.045   9.228
95351SOL    HW287951  14.232   5.051   9.095
95352SOL     OW87952  11.618   6.232  14.607
95352SOL    HW187953  11.708   6.249  14.633
95352SOL    HW287954  11.565   6.265  14.680
95353SOL     OW87955   4.250   3.452   4.444
95353SOL    HW187956   4.232   3.459   4.350
95353SOL    HW287957   4.315   3.519   4.462
95354SOL     OW87958   5.045   4.652   0.621
95354SOL    HW187959   4.993   4.684   0.694
95354SOL    HW287960   5.033   4.718   0.552
95355SOL     OW87961  14.194   7.095   6.224
95355SOL    HW187962  14.215   7.011   6.264
95355SOL    HW287963  14.132   7.074   6.154
95356SOL     OW87964   6.911  12.261  10.400
95356SOL    HW187965   6.931  12.169  10.380
95356SOL    HW287966   6.992  12.308  10.381
95357SOL     OW87967   6.444  14.830  10.058
95357SOL    HW187968   6.364  14.780  10.040
95357SOL    HW287969   6.495  14.774  10.116
95358SOL     OW87970   9.118   9.375  14.657
95358SOL    HW187971   9.044   9.318  14.679
95358SOL    HW287972   9.170   9.379  14.738
95359SOL     OW87973  13.738  13.274  10.387
95359SOL    HW187974  13.769  13.352  10.433
95359SOL    HW287975  13.643  13.285  10.382
95360SOL     OW87976  13.690   7.152   6.046
95360SOL    HW187977  13.750   7.098   6.099
95360SOL    HW287978  13.615   7.095   6.030
95361SOL     OW87979   5.161   7.243   7.688
95361SOL    HW187980   5.180   7.167   7.742
95361SOL    HW287981   5.219   7.312   7.720
95362SOL     OW87982   4.052  14.727  12.072
95362SOL    HW187983   4.109  14.802  12.089
95362SOL    HW287984   4.104  14.651  12.099
95363SOL     OW87985   2.768   5.906   6.255
95363SOL    HW187986   2.682   5.915   6.215
95363SOL    HW287987   2.755   5.937   6.345
95364SOL     OW87988   6.123  11.209  10.999
95364SOL    HW187989   6.134  11.170  11.085
95364SOL    HW287990   6.036  11.248  11.001
95365SOL     OW87991   6.008   9.797   9.729
95365SOL    HW187992   6.051   9.881   9.710
95365SOL    HW287993   5.962   9.811   9.812
95366SOL     OW87994   5.534   5.991  11.892
95366SOL    HW187995   5.482   5.967  11.968
95366SOL    HW287996   5.512   5.926  11.826
95367SOL     OW87997   7.083   2.360   5.862
95367SOL    HW187998   7.171   2.398   5.865
95367SOL    HW287999   7.024   2.435   5.872
95368SOL     OW88000   6.780  14.852   4.555
95368SOL    HW188001   6.696  14.829   4.516
95368SOL    HW288002   6.769  14.837   4.649
95369SOL     OW88003   7.881  12.426  13.400
95369SOL    HW188004   7.828  12.351  13.427
95369SOL    HW288005   7.971  12.393  13.402
95370SOL     OW88006   7.459  13.441   5.999
95370SOL    HW188007   7.511  13.361   6.007
95370SOL    HW288008   7.455  13.476   6.089
95371SOL     OW88009   1.881   3.295  12.202
95371SOL    HW188010   1.924   3.209  12.203
95371SOL    HW288011   1.875   3.317  12.109
95372SOL     OW88012   4.872  12.149  14.254
95372SOL    HW188013   4.967  12.140  14.247
95372SOL    HW288014   4.838  12.062  14.230
95373SOL     OW88015   0.348   0.117   2.753
95373SOL    HW188016   0.428   0.167   2.739
95373SOL    HW288017   0.374   0.044   2.808
95374SOL     OW88018   5.096   9.808  14.828
95374SOL    HW188019   5.128   9.718  14.827
95374SOL    HW288020   5.105   9.838  14.738
95375SOL     OW88021   6.210  12.385   1.006
95375SOL    HW188022   6.241  12.323   0.940
95375SOL    HW288023   6.163  12.452   0.957
95376SOL     OW88024  13.162  10.625  11.187
95376SOL    HW188025  13.166  10.688  11.258
95376SOL    HW288026  13.147  10.678  11.108
95377SOL     OW88027  11.167  12.073  11.399
95377SOL    HW188028  11.086  12.122  11.388
95377SOL    HW288029  11.143  11.982  11.386
95378SOL     OW88030   7.144   2.411  11.940
95378SOL    HW188031   7.087   2.426  12.015
95378SOL    HW288032   7.228   2.384  11.978
95379SOL     OW88033  14.870  12.946   4.947
95379SOL    HW188034  14.815  13.024   4.944
95379SOL    HW288035   0.060  12.961   4.881
95380SOL     OW88036  11.888   2.365   9.018
95380SOL    HW188037  11.873   2.287   8.966
95380SOL    HW288038  11.821   2.363   9.086
95381SOL     OW88039  10.562   5.818   5.497
95381SOL    HW188040  10.531   5.906   5.520
95381SOL    HW288041  10.558   5.815   5.401
95382SOL     OW88042   6.412   2.310   6.528
95382SOL    HW188043   6.500   2.319   6.490
95382SOL    HW288044   6.402   2.216   6.544
95383SOL     OW88045  11.563   1.822   2.429
95383SOL    HW188046  11.470   1.841   2.442
95383SOL    HW288047  11.608   1.899   2.463
95384SOL     OW88048   5.225   0.802  13.387
95384SOL    HW188049   5.210   0.711  13.361
95384SOL    HW288050   5.271   0.841  13.313
95385SOL     OW88051   0.391  13.350   6.611
95385SOL    HW188052   0.317  13.408   6.629
95385SOL    HW288053   0.467  13.397   6.644
95386SOL     OW88054   7.021   9.784   2.372
95386SOL    HW188055   6.963   9.859   2.355
95386SOL    HW288056   7.078   9.814   2.443
95387SOL     OW88057  12.833   6.158   6.069
95387SOL    HW188058  12.873   6.209   6.139
95387SOL    HW288059  12.741   6.148   6.096
95388SOL     OW88060   6.056  11.216   8.304
95388SOL    HW188061   5.995  11.146   8.329
95388SOL    HW288062   6.143  11.180   8.324
95389SOL     OW88063   2.099   5.727  12.164
95389SOL    HW188064   2.076   5.774  12.083
95389SOL    HW288065   2.023   5.739  12.221
95390SOL     OW88066   1.976  11.510   1.642
95390SOL    HW188067   1.957  11.601   1.662
95390SOL    HW288068   2.072  11.504   1.648
95391SOL     OW88069   9.185  10.022   6.183
95391SOL    HW188070   9.273  10.003   6.215
95391SOL    HW288071   9.177  10.118   6.189
95392SOL     OW88072   5.893   2.774   1.963
95392SOL    HW188073   5.905   2.691   1.916
95392SOL    HW288074   5.829   2.754   2.031
95393SOL     OW88075   7.480  12.178   7.458
95393SOL    HW188076   7.424  12.163   7.534
95393SOL    HW288077   7.510  12.090   7.433
95394SOL     OW88078  12.073   0.669  12.056
95394SOL    HW188079  12.096   0.762  12.051
95394SOL    HW288080  12.058   0.643  11.966
95395SOL     OW88081  11.749  13.984   2.670
95395SOL    HW188082  11.773  14.057   2.613
95395SOL    HW288083  11.820  13.921   2.661
95396SOL     OW88084   5.217   8.382   1.453
95396SOL    HW188085   5.218   8.413   1.543
95396SOL    HW288086   5.222   8.286   1.461
95397SOL     OW88087   6.510  14.328   0.002
95397SOL    HW188088   6.463  14.345   0.084
95397SOL    HW288089   6.503  14.410  14.831
95398SOL     OW88090   0.419   7.854  10.530
95398SOL    HW188091   0.455   7.942  10.515
95398SOL    HW288092   0.403   7.851  10.624
95399SOL     OW88093  14.534   5.121   5.938
95399SOL    HW188094  14.531   5.132   5.843
95399SOL    HW288095  14.608   5.174   5.966
95400SOL     OW88096  12.583   5.925   0.417
95400SOL    HW188097  12.552   5.835   0.408
95400SOL    HW288098  12.503   5.977   0.431
95401SOL     OW88099   1.351  12.817   0.977
95401SOL    HW188100   1.336  12.755   1.049
95401SOL    HW288101   1.421  12.777   0.926
95402SOL     OW88102   7.498  13.071   8.631
95402SOL    HW188103   7.574  13.029   8.591
95402SOL    HW288104   7.524  13.162   8.642
95403SOL     OW88105  13.225   7.336   5.560
95403SOL    HW188106  13.252   7.350   5.651
95403SOL    HW288107  13.242   7.244   5.543
95404SOL     OW88108  13.201   8.020   1.613
95404SOL    HW188109  13.114   8.018   1.573
95404SOL    HW288110  13.220   8.114   1.624
95405SOL     OW88111  14.724   9.046   6.026
95405SOL    HW188112  14.783   8.971   6.026
95405SOL    HW288113  14.637   9.008   6.011
95406SOL     OW88114   6.587   5.380  10.536
95406SOL    HW188115   6.629   5.304  10.576
95406SOL    HW288116   6.496   5.352  10.522
95407SOL     OW88117   3.796  11.460   2.609
95407SOL    HW188118   3.771  11.443   2.700
95407SOL    HW288119   3.750  11.393   2.559
95408SOL     OW88120  11.593   2.926  12.928
95408SOL    HW188121  11.571   2.990  12.860
95408SOL    HW288122  11.643   2.976  12.993
95409SOL     OW88123   9.501   1.951   6.644
95409SOL    HW188124   9.528   2.041   6.658
95409SOL    HW288125   9.506   1.911   6.731
95410SOL     OW88126  12.109   3.963  14.106
95410SOL    HW188127  12.159   3.930  14.032
95410SOL    HW288128  12.168   4.024  14.151
95411SOL     OW88129  13.242   2.036   5.177
95411SOL    HW188130  13.317   2.089   5.201
95411SOL    HW288131  13.279   1.952   5.152
95412SOL     OW88132   6.315   6.030   7.368
95412SOL    HW188133   6.348   5.941   7.354
95412SOL    HW288134   6.351   6.080   7.295
95413SOL     OW88135   8.377   6.266   0.044
95413SOL    HW188136   8.436   6.219   0.103
95413SOL    HW288137   8.299   6.284   0.097
95414SOL     OW88138   1.168   2.142   9.876
95414SOL    HW188139   1.146   2.225   9.919
95414SOL    HW288140   1.084   2.098   9.865
95415SOL     OW88141  11.390   3.899   5.546
95415SOL    HW188142  11.378   3.946   5.464
95415SOL    HW288143  11.482   3.914   5.569
95416SOL     OW88144  13.749   8.332  10.788
95416SOL    HW188145  13.796   8.416  10.791
95416SOL    HW288146  13.656   8.357  10.795
95417SOL     OW88147   4.074  12.223   3.444
95417SOL    HW188148   4.019  12.252   3.518
95417SOL    HW288149   4.162  12.221   3.480
95418SOL     OW88150   9.789   3.416   2.856
95418SOL    HW188151   9.881   3.433   2.875
95418SOL    HW288152   9.791   3.357   2.780
95419SOL     OW88153   4.822   6.259   1.421
95419SOL    HW188154   4.820   6.259   1.325
95419SOL    HW288155   4.913   6.278   1.443
95420SOL     OW88156   1.849   8.199   0.235
95420SOL    HW188157   1.850   8.128   0.170
95420SOL    HW288158   1.872   8.156   0.317
95421SOL     OW88159  14.746  10.879   8.707
95421SOL    HW188160  14.834  10.869   8.744
95421SOL    HW288161  14.760  10.907   8.617
95422SOL     OW88162  11.202  10.218   9.605
95422SOL    HW188163  11.197  10.313   9.611
95422SOL    HW288164  11.116  10.188   9.635
95423SOL     OW88165   8.048   0.946   6.968
95423SOL    HW188166   8.132   0.904   6.949
95423SOL    HW288167   7.997   0.879   7.014
95424SOL     OW88168  14.662   4.655   0.373
95424SOL    HW188169  14.747   4.685   0.341
95424SOL    HW288170  14.671   4.655   0.469
95425SOL     OW88171   4.504   1.680   2.514
95425SOL    HW188172   4.441   1.717   2.576
95425SOL    HW288173   4.588   1.683   2.560
95426SOL     OW88174   4.414  10.428   4.295
95426SOL    HW188175   4.473  10.488   4.250
95426SOL    HW288176   4.469  10.354   4.319
95427SOL     OW88177   5.333  14.831   1.015
95427SOL    HW188178   5.401  14.777   0.976
95427SOL    HW288179   5.254  14.810   0.966
95428SOL     OW88180   1.512  14.777   9.603
95428SOL    HW188181   1.460  14.772   9.523
95428SOL    HW288182   1.521  14.687   9.632
95429SOL     OW88183   8.471   0.572   4.666
95429SOL    HW188184   8.517   0.603   4.744
95429SOL    HW288185   8.393   0.530   4.700
95430SOL     OW88186   2.592   7.752   7.533
95430SOL    HW188187   2.636   7.829   7.568
95430SOL    HW288188   2.663   7.691   7.512
95431SOL     OW88189   1.331   5.461   3.953
95431SOL    HW188190   1.424   5.476   3.933
95431SOL    HW288191   1.284   5.502   3.881
95432SOL     OW88192   9.462  12.687   0.994
95432SOL    HW188193   9.520  12.689   0.918
95432SOL    HW288194   9.491  12.612   1.045
95433SOL     OW88195   8.388  14.383   1.517
95433SOL    HW188196   8.404  14.474   1.492
95433SOL    HW288197   8.457  14.363   1.580
95434SOL     OW88198  12.511   7.209  12.147
95434SOL    HW188199  12.483   7.287  12.195
95434SOL    HW288200  12.605   7.222  12.132
95435SOL     OW88201   5.176  13.729   9.094
95435SOL    HW188202   5.089  13.700   9.065
95435SOL    HW288203   5.212  13.775   9.018
95436SOL     OW88204  12.419   3.114   9.888
95436SOL    HW188205  12.332   3.079   9.870
95436SOL    HW288206  12.470   3.039   9.917
95437SOL     OW88207   8.112   7.851   6.941
95437SOL    HW188208   8.189   7.822   6.989
95437SOL    HW288209   8.082   7.773   6.894
95438SOL     OW88210  14.757   7.629  11.323
95438SOL    HW188211  14.748   7.537  11.299
95438SOL    HW288212  14.689   7.674  11.274
95439SOL     OW88213  11.516   1.685   0.443
95439SOL    HW188214  11.559   1.620   0.498
95439SOL    HW288215  11.541   1.769   0.480
95440SOL     OW88216   6.761  12.633  13.361
95440SOL    HW188217   6.704  12.693  13.315
95440SOL    HW288218   6.823  12.689  13.408
95441SOL     OW88219   3.200  11.155  10.415
95441SOL    HW188220   3.206  11.085  10.349
95441SOL    HW288221   3.130  11.125  10.474
95442SOL     OW88222   9.264  10.762  11.294
95442SOL    HW188223   9.188  10.722  11.252
95442SOL    HW288224   9.251  10.745  11.388
95443SOL     OW88225  12.757   8.166  12.809
95443SOL    HW188226  12.797   8.171  12.723
95443SOL    HW288227  12.769   8.075  12.836
95444SOL     OW88228   6.993  12.327   0.184
95444SOL    HW188229   7.012  12.362   0.097
95444SOL    HW288230   7.072  12.344   0.235
95445SOL     OW88231  10.000  12.737  13.583
95445SOL    HW188232   9.985  12.673  13.653
95445SOL    HW288233   9.988  12.822  13.625
95446SOL     OW88234   5.998  14.647   9.887
95446SOL    HW188235   5.960  14.634   9.800
95446SOL    HW288236   5.952  14.584   9.943
95447SOL     OW88237   3.312   7.290   7.264
95447SOL    HW188238   3.229   7.266   7.304
95447SOL    HW288239   3.291   7.306   7.172
95448SOL     OW88240   8.579   8.252  14.008
95448SOL    HW188241   8.653   8.230  14.064
95448SOL    HW288242   8.602   8.216  13.922
95449SOL     OW88243  10.936  11.850   6.633
95449SOL    HW188244  10.974  11.787   6.572
95449SOL    HW288245  11.009  11.903   6.662
95450SOL     OW88246   2.872   0.087   3.917
95450SOL    HW188247   2.909   0.125   3.837
95450SOL    HW288248   2.780   0.114   3.917
95451SOL     OW88249   8.409   2.056   4.448
95451SOL    HW188250   8.443   2.039   4.360
95451SOL    HW288251   8.453   1.993   4.504
95452SOL     OW88252   1.022   2.230   0.091
95452SOL    HW188253   0.985   2.264   0.009
95452SOL    HW288254   0.949   2.186   0.134
95453SOL     OW88255   0.650   9.914  11.583
95453SOL    HW188256   0.630   9.833  11.631
95453SOL    HW288257   0.583   9.976  11.612
95454SOL     OW88258   6.441   0.316   0.142
95454SOL    HW188259   6.385   0.385   0.177
95454SOL    HW288260   6.380   0.259   0.094
95455SOL     OW88261  11.444  10.586  14.794
95455SOL    HW188262  11.401  10.510  14.754
95455SOL    HW288263  11.515  10.607  14.733
95456SOL     OW88264  13.650  10.908   5.810
95456SOL    HW188265  13.612  10.834   5.857
95456SOL    HW288266  13.743  10.887   5.804
95457SOL     OW88267  12.053   1.233   4.195
95457SOL    HW188268  12.076   1.304   4.136
95457SOL    HW288269  12.060   1.154   4.142
95458SOL     OW88270   3.512   8.421   7.038
95458SOL    HW188271   3.419   8.412   7.021
95458SOL    HW288272   3.536   8.505   7.000
95459SOL     OW88273   7.211  10.385  13.851
95459SOL    HW188274   7.135  10.426  13.809
95459SOL    HW288275   7.173  10.324  13.914
95460SOL     OW88276   2.995  12.734   1.905
95460SOL    HW188277   3.069  12.677   1.884
95460SOL    HW288278   3.020  12.820   1.873
95461SOL     OW88279   7.922  12.964  11.394
95461SOL    HW188280   7.897  12.880  11.431
95461SOL    HW288281   7.939  13.020  11.470
95462SOL     OW88282   7.359   0.280   6.638
95462SOL    HW188283   7.286   0.279   6.576
95462SOL    HW288284   7.331   0.340   6.707
95463SOL     OW88285  14.633   0.305   8.085
95463SOL    HW188286  14.639   0.214   8.056
95463SOL    HW288287  14.626   0.299   8.180
95464SOL     OW88288   7.090   4.109  10.865
95464SOL    HW188289   7.053   4.026  10.894
95464SOL    HW288290   7.097   4.101  10.770
95465SOL     OW88291   1.562  14.255   4.977
95465SOL    HW188292   1.560  14.329   4.918
95465SOL    HW288293   1.623  14.281   5.046
95466SOL     OW88294   8.707  12.843   0.714
95466SOL    HW188295   8.783  12.805   0.759
95466SOL    HW288296   8.744  12.907   0.654
95467SOL     OW88297  14.156  14.799   9.695
95467SOL    HW188298  14.186  14.828   9.609
95467SOL    HW288299  14.113  14.876   9.732
95468SOL     OW88300   4.767  10.235  11.634
95468SOL    HW188301   4.761  10.191  11.549
95468SOL    HW288302   4.853  10.276  11.634
95469SOL     OW88303   4.728   9.638  13.275
95469SOL    HW188304   4.765   9.551  13.291
95469SOL    HW288305   4.798   9.699  13.298
95470SOL     OW88306   0.741   6.308   1.455
95470SOL    HW188307   0.685   6.293   1.531
95470SOL    HW288308   0.830   6.299   1.489
95471SOL     OW88309   1.291   3.047   9.115
95471SOL    HW188310   1.308   2.955   9.136
95471SOL    HW288311   1.376   3.090   9.125
95472SOL     OW88312  11.027   5.864   9.178
95472SOL    HW188313  11.005   5.889   9.268
95472SOL    HW288314  11.035   5.947   9.131
95473SOL     OW88315  12.371  13.981  10.133
95473SOL    HW188316  12.282  13.957  10.107
95473SOL    HW288317  12.372  13.969  10.228
95474SOL     OW88318   1.875  12.710   6.135
95474SOL    HW188319   1.894  12.626   6.093
95474SOL    HW288320   1.820  12.688   6.210
95475SOL     OW88321   1.717   4.395   1.921
95475SOL    HW188322   1.809   4.382   1.898
95475SOL    HW288323   1.671   4.323   1.880
95476SOL     OW88324   6.110  13.007  14.329
95476SOL    HW188325   6.055  12.981  14.255
95476SOL    HW288326   6.173  12.936  14.338
95477SOL     OW88327   3.916   6.557   2.786
95477SOL    HW188328   3.824   6.561   2.811
95477SOL    HW288329   3.923   6.477   2.734
95478SOL     OW88330  13.269  11.563   2.719
95478SOL    HW188331  13.346  11.555   2.776
95478SOL    HW288332  13.305  11.558   2.630
95479SOL     OW88333  12.189  12.141   9.921
95479SOL    HW188334  12.232  12.153  10.006
95479SOL    HW288335  12.149  12.225   9.903
95480SOL     OW88336   2.623  10.720   4.909
95480SOL    HW188337   2.692  10.654   4.918
95480SOL    HW288338   2.645  10.767   4.829
95481SOL     OW88339  12.887  12.404   4.989
95481SOL    HW188340  12.888  12.332   4.925
95481SOL    HW288341  12.796  12.410   5.016
95482SOL     OW88342   6.462   0.567  10.002
95482SOL    HW188343   6.472   0.474   9.983
95482SOL    HW288344   6.386   0.594   9.949
95483SOL     OW88345   0.871   7.945   5.481
95483SOL    HW188346   0.958   7.904   5.485
95483SOL    HW288347   0.882   8.032   5.519
95484SOL     OW88348   2.406  10.607   6.947
95484SOL    HW188349   2.356  10.621   6.867
95484SOL    HW288350   2.343  10.626   7.017
95485SOL     OW88351  10.068   4.485   2.189
95485SOL    HW188352  10.156   4.470   2.221
95485SOL    HW288353  10.080   4.532   2.106
95486SOL     OW88354   9.447   8.664   9.384
95486SOL    HW188355   9.449   8.581   9.431
95486SOL    HW288356   9.360   8.667   9.343
95487SOL     OW88357  14.137   7.582   2.431
95487SOL    HW188358  14.195   7.594   2.355
95487SOL    HW288359  14.075   7.515   2.403
95488SOL     OW88360  11.904   0.381   0.054
95488SOL    HW188361  11.958   0.340  14.865
95488SOL    HW288362  11.962   0.393   0.129
95489SOL     OW88363   0.172   5.427  12.751
95489SOL    HW188364   0.125   5.509  12.739
95489SOL    HW288365   0.263   5.452  12.765
95490SOL     OW88366   1.996   5.882  14.549
95490SOL    HW188367   2.072   5.897  14.605
95490SOL    HW288368   2.031   5.881  14.460
95491SOL     OW88369   9.328   5.854  13.980
95491SOL    HW188370   9.258   5.849  13.914
95491SOL    HW288371   9.294   5.912  14.047
95492SOL     OW88372  13.642   9.419   2.481
95492SOL    HW188373  13.685   9.499   2.510
95492SOL    HW288374  13.655   9.357   2.552
95493SOL     OW88375   1.959   0.185   1.761
95493SOL    HW188376   2.042   0.137   1.761
95493SOL    HW288377   1.960   0.235   1.679
95494SOL     OW88378  11.185  11.540   3.327
95494SOL    HW188379  11.159  11.575   3.412
95494SOL    HW288380  11.186  11.445   3.339
95495SOL     OW88381   8.582   0.531   6.261
95495SOL    HW188382   8.546   0.463   6.204
95495SOL    HW288383   8.508   0.558   6.316
95496SOL     OW88384   0.413  13.392   7.226
95496SOL    HW188385   0.323  13.371   7.204
95496SOL    HW288386   0.450  13.310   7.259
95497SOL     OW88387   2.210   0.074   1.735
95497SOL    HW188388   2.276   0.058   1.803
95497SOL    HW288389   2.261   0.095   1.657
95498SOL     OW88390   1.730  10.345  12.602
95498SOL    HW188391   1.771  10.280  12.659
95498SOL    HW288392   1.728  10.303  12.515
95499SOL     OW88393   7.464  10.991   8.744
95499SOL    HW188394   7.503  10.961   8.662
95499SOL    HW288395   7.466  11.087   8.737
95500SOL     OW88396  10.731   5.329   0.016
95500SOL    HW188397  10.661   5.383  14.857
95500SOL    HW288398  10.792   5.392   0.056
95501SOL     OW88399   1.585  13.625   3.627
95501SOL    HW188400   1.673  13.598   3.602
95501SOL    HW288401   1.546  13.658   3.545
95502SOL     OW88402   8.152   1.283  11.598
95502SOL    HW188403   8.182   1.331  11.521
95502SOL    HW288404   8.205   1.319  11.670
95503SOL     OW88405   6.294   8.546   3.251
95503SOL    HW188406   6.353   8.611   3.214
95503SOL    HW288407   6.239   8.519   3.177
95504SOL     OW88408   5.612   6.134   9.551
95504SOL    HW188409   5.621   6.199   9.482
95504SOL    HW288410   5.687   6.149   9.609
95505SOL     OW88411   9.805  12.190   7.933
95505SOL    HW188412   9.804  12.125   7.862
95505SOL    HW288413   9.885  12.170   7.982
95506SOL     OW88414  10.736   6.843   0.770
95506SOL    HW188415  10.728   6.901   0.846
95506SOL    HW288416  10.671   6.775   0.784
95507SOL     OW88417   4.088   0.344   4.617
95507SOL    HW188418   4.152   0.274   4.628
95507SOL    HW288419   4.103   0.403   4.691
95508SOL     OW88420   7.866  11.881  12.072
95508SOL    HW188421   7.798  11.909  12.133
95508SOL    HW288422   7.930  11.837  12.127
95509SOL     OW88423  13.843   9.092   5.983
95509SOL    HW188424  13.888   9.176   5.994
95509SOL    HW288425  13.912   9.026   5.987
95510SOL     OW88426   7.484   0.327   2.696
95510SOL    HW188427   7.576   0.319   2.669
95510SOL    HW288428   7.487   0.377   2.777
95511SOL     OW88429   3.514   2.754  10.829
95511SOL    HW188430   3.509   2.663  10.858
95511SOL    HW288431   3.604   2.780  10.849
95512SOL     OW88432  13.297  11.084   3.937
95512SOL    HW188433  13.337  11.029   3.871
95512SOL    HW288434  13.368  11.105   3.997
95513SOL     OW88435   0.708   0.776   8.891
95513SOL    HW188436   0.731   0.722   8.815
95513SOL    HW288437   0.654   0.720   8.945
95514SOL     OW88438  14.492  11.893  13.471
95514SOL    HW188439  14.563  11.923  13.527
95514SOL    HW288440  14.531  11.885  13.384
95515SOL     OW88441  11.583  11.164  11.876
95515SOL    HW188442  11.513  11.103  11.901
95515SOL    HW288443  11.578  11.234  11.941
95516SOL     OW88444  12.079  11.939   8.097
95516SOL    HW188445  12.107  11.849   8.082
95516SOL    HW288446  12.123  11.989   8.028
95517SOL     OW88447   0.284   6.900  11.686
95517SOL    HW188448   0.331   6.973  11.724
95517SOL    HW288449   0.316   6.823  11.733
95518SOL     OW88450  12.948   2.209   5.650
95518SOL    HW188451  13.002   2.222   5.572
95518SOL    HW288452  13.008   2.167   5.713
95519SOL     OW88453   8.837   4.010  12.242
95519SOL    HW188454   8.760   3.972  12.200
95519SOL    HW288455   8.804   4.088  12.287
95520SOL     OW88456  14.176   4.294   4.550
95520SOL    HW188457  14.233   4.347   4.606
95520SOL    HW288458  14.097   4.281   4.603
95521SOL     OW88459  12.158   4.141   5.703
95521SOL    HW188460  12.231   4.148   5.765
95521SOL    HW288461  12.176   4.208   5.637
95522SOL     OW88462   3.531   0.236   3.097
95522SOL    HW188463   3.468   0.248   3.168
95522SOL    HW288464   3.617   0.246   3.139
95523SOL     OW88465   1.076  12.423  12.986
95523SOL    HW188466   1.018  12.481  12.936
95523SOL    HW288467   1.019  12.381  13.050
95524SOL     OW88468   7.392   3.351   7.086
95524SOL    HW188469   7.434   3.434   7.062
95524SOL    HW288470   7.424   3.333   7.175
95525SOL     OW88471   1.708   8.371   5.893
95525SOL    HW188472   1.689   8.278   5.884
95525SOL    HW288473   1.622   8.412   5.904
95526SOL     OW88474   1.438   5.423  10.789
95526SOL    HW188475   1.399   5.499  10.831
95526SOL    HW288476   1.368   5.386  10.735
95527SOL     OW88477   2.477  13.022  12.240
95527SOL    HW188478   2.503  13.102  12.194
95527SOL    HW288479   2.382  13.027  12.244
95528SOL     OW88480   4.422   0.786   1.707
95528SOL    HW188481   4.498   0.754   1.658
95528SOL    HW288482   4.422   0.735   1.788
95529SOL     OW88483   1.486   5.117   3.068
95529SOL    HW188484   1.523   5.112   3.156
95529SOL    HW288485   1.560   5.144   3.013
95530SOL     OW88486   0.962  10.896   3.812
95530SOL    HW188487   0.929  10.956   3.879
95530SOL    HW288488   1.030  10.947   3.767
95531SOL     OW88489  12.837  10.484  13.226
95531SOL    HW188490  12.931  10.495  13.209
95531SOL    HW288491  12.830  10.398  13.268
95532SOL     OW88492   1.441   1.230   4.436
95532SOL    HW188493   1.437   1.264   4.347
95532SOL    HW288494   1.516   1.170   4.435
95533SOL     OW88495  12.431  10.420   5.465
95533SOL    HW188496  12.474  10.396   5.547
95533SOL    HW288497  12.367  10.349   5.451
95534SOL     OW88498   1.533   9.580  11.460
95534SOL    HW188499   1.556   9.580  11.553
95534SOL    HW288500   1.544   9.490  11.432
95535SOL     OW88501  13.706   0.749   6.667
95535SOL    HW188502  13.613   0.731   6.657
95535SOL    HW288503  13.736   0.774   6.580
95536SOL     OW88504   3.555   3.060   0.274
95536SOL    HW188505   3.487   3.045   0.340
95536SOL    HW288506   3.567   2.974   0.233
95537SOL     OW88507   5.871   5.734   2.007
95537SOL    HW188508   5.798   5.672   2.012
95537SOL    HW288509   5.838   5.806   1.953
95538SOL     OW88510   1.876   2.422   0.505
95538SOL    HW188511   1.943   2.424   0.436
95538SOL    HW288512   1.800   2.465   0.465
95539SOL     OW88513   9.925   7.055   1.128
95539SOL    HW188514   9.901   7.011   1.209
95539SOL    HW288515   9.846   7.048   1.073
95540SOL     OW88516   7.995   1.973  10.196
95540SOL    HW188517   8.064   2.034  10.172
95540SOL    HW288518   8.029   1.887  10.173
95541SOL     OW88519   5.342   5.094   6.316
95541SOL    HW188520   5.376   5.109   6.228
95541SOL    HW288521   5.398   5.149   6.372
95542SOL     OW88522   9.996  11.014  10.052
95542SOL    HW188523  10.082  11.055  10.051
95542SOL    HW288524   9.945  11.062   9.987
95543SOL     OW88525  10.796   1.942  10.609
95543SOL    HW188526  10.712   1.988  10.614
95543SOL    HW288527  10.783   1.876  10.540
95544SOL     OW88528  14.451   7.351   6.626
95544SOL    HW188529  14.442   7.270   6.676
95544SOL    HW288530  14.436   7.420   6.690
95545SOL     OW88531   5.436   3.217   0.049
95545SOL    HW188532   5.466   3.262   0.128
95545SOL    HW288533   5.416   3.128   0.078
95546SOL     OW88534   7.922   8.673   6.200
95546SOL    HW188535   7.898   8.638   6.285
95546SOL    HW288536   7.844   8.660   6.146
95547SOL     OW88537  10.381   7.456   7.945
95547SOL    HW188538  10.301   7.499   7.912
95547SOL    HW288539  10.353   7.367   7.967
95548SOL     OW88540   5.630   9.598   8.025
95548SOL    HW188541   5.639   9.605   8.120
95548SOL    HW288542   5.659   9.509   8.005
95549SOL     OW88543   7.642   1.615   5.099
95549SOL    HW188544   7.696   1.610   5.178
95549SOL    HW288545   7.693   1.670   5.039
95550SOL     OW88546   2.621   6.354   8.886
95550SOL    HW188547   2.553   6.319   8.829
95550SOL    HW288548   2.693   6.377   8.827
95551SOL     OW88549   1.922  12.975  10.073
95551SOL    HW188550   1.860  12.908  10.047
95551SOL    HW288551   1.956  13.010   9.991
95552SOL     OW88552   2.831   7.723   4.581
95552SOL    HW188553   2.833   7.798   4.641
95552SOL    HW288554   2.821   7.763   4.494
95553SOL     OW88555  11.057   6.250   7.696
95553SOL    HW188556  11.042   6.195   7.619
95553SOL    HW288557  11.105   6.326   7.662
95554SOL     OW88558   4.226   4.447   8.135
95554SOL    HW188559   4.203   4.495   8.215
95554SOL    HW288560   4.220   4.355   8.160
95555SOL     OW88561  12.062   0.883  14.113
95555SOL    HW188562  12.148   0.919  14.136
95555SOL    HW288563  12.000   0.951  14.141
95556SOL     OW88564   0.376   3.032   2.696
95556SOL    HW188565   0.299   2.979   2.674
95556SOL    HW288566   0.436   2.972   2.739
95557SOL     OW88567   0.578   8.627   8.106
95557SOL    HW188568   0.579   8.683   8.028
95557SOL    HW288569   0.511   8.561   8.088
95558SOL     OW88570   7.503   5.747  11.615
95558SOL    HW188571   7.451   5.672  11.586
95558SOL    HW288572   7.559   5.768  11.541
95559SOL     OW88573   5.089  11.571   8.803
95559SOL    HW188574   5.040  11.508   8.857
95559SOL    HW288575   5.171  11.526   8.783
95560SOL     OW88576   5.454   1.406   7.294
95560SOL    HW188577   5.480   1.402   7.386
95560SOL    HW288578   5.376   1.352   7.289
95561SOL     OW88579  10.861  14.638   9.031
95561SOL    HW188580  10.953  14.647   9.058
95561SOL    HW288581  10.831  14.728   9.018
95562SOL     OW88582  14.131  10.769   0.010
95562SOL    HW188583  14.226  10.763  14.877
95562SOL    HW288584  14.107  10.691   0.059
95563SOL     OW88585  13.128   6.256   9.663
95563SOL    HW188586  13.141   6.338   9.709
95563SOL    HW288587  13.216   6.218   9.656
95564SOL     OW88588  12.134   7.792  11.062
95564SOL    HW188589  12.187   7.784  10.983
95564SOL    HW288590  12.061   7.848  11.036
95565SOL     OW88591   1.511  11.264   6.316
95565SOL    HW188592   1.473  11.178   6.335
95565SOL    HW288593   1.493  11.279   6.224
95566SOL     OW88594   5.374   7.979   9.677
95566SOL    HW188595   5.304   8.035   9.643
95566SOL    HW288596   5.449   7.997   9.620
95567SOL     OW88597   7.326   3.030   4.707
95567SOL    HW188598   7.250   2.975   4.721
95567SOL    HW288599   7.386   3.007   4.778
95568SOL     OW88600  10.991   0.244   9.130
95568SOL    HW188601  10.935   0.312   9.167
95568SOL    HW288602  11.067   0.291   9.095
95569SOL     OW88603   2.972  10.753   4.472
95569SOL    HW188604   2.935  10.666   4.487
95569SOL    HW288605   2.921  10.790   4.400
95570SOL     OW88606  13.953   3.304   1.271
95570SOL    HW188607  13.975   3.278   1.181
95570SOL    HW288608  13.874   3.356   1.263
95571SOL     OW88609   9.932  11.542  10.277
95571SOL    HW188610   9.879  11.553  10.198
95571SOL    HW288611   9.970  11.455  10.268
95572SOL     OW88612   5.978  14.772   0.908
95572SOL    HW188613   6.066  14.773   0.943
95572SOL    HW288614   5.989  14.750   0.815
95573SOL     OW88615  13.489  14.035   7.094
95573SOL    HW188616  13.495  14.129   7.111
95573SOL    HW288617  13.569  14.014   7.045
95574SOL     OW88618   9.002   0.715  12.269
95574SOL    HW188619   9.066   0.680  12.332
95574SOL    HW288620   8.992   0.806  12.294
95575SOL     OW88621   6.701  13.426  14.415
95575SOL    HW188622   6.605  13.427  14.416
95575SOL    HW288623   6.724  13.345  14.371
95576SOL     OW88624   6.635  11.717   5.750
95576SOL    HW188625   6.541  11.732   5.744
95576SOL    HW288626   6.655  11.659   5.676
95577SOL     OW88627  13.909   4.565   6.330
95577SOL    HW188628  13.895   4.646   6.281
95577SOL    HW288629  13.891   4.590   6.421
95578SOL     OW88630  10.588   9.175   1.660
95578SOL    HW188631  10.653   9.231   1.618
95578SOL    HW288632  10.640   9.107   1.704
95579SOL     OW88633  10.119  11.959   6.571
95579SOL    HW188634  10.089  11.878   6.528
95579SOL    HW288635  10.102  11.945   6.664
95580SOL     OW88636   0.227   1.694   6.598
95580SOL    HW188637   0.262   1.751   6.667
95580SOL    HW288638   0.179   1.626   6.645
95581SOL     OW88639   7.619  10.930   6.159
95581SOL    HW188640   7.633  10.844   6.199
95581SOL    HW288641   7.613  10.990   6.234
95582SOL     OW88642   4.539   9.760  12.446
95582SOL    HW188643   4.549   9.742  12.540
95582SOL    HW288644   4.614   9.718  12.406
95583SOL     OW88645  13.665  10.610   9.745
95583SOL    HW188646  13.607  10.668   9.694
95583SOL    HW288647  13.619  10.526   9.747
95584SOL     OW88648   4.434   5.279  10.256
95584SOL    HW188649   4.486   5.206  10.287
95584SOL    HW288650   4.378   5.242  10.188
95585SOL     OW88651   4.877   9.755   1.959
95585SOL    HW188652   4.794   9.796   1.938
95585SOL    HW288653   4.866   9.720   2.048
95586SOL     OW88654  12.445  10.634   3.965
95586SOL    HW188655  12.474  10.716   4.005
95586SOL    HW288656  12.434  10.655   3.872
95587SOL     OW88657   4.814   9.758   5.095
95587SOL    HW188658   4.801   9.776   5.002
95587SOL    HW288659   4.903   9.787   5.113
95588SOL     OW88660   6.263   9.266   1.659
95588SOL    HW188661   6.333   9.294   1.600
95588SOL    HW288662   6.267   9.171   1.659
95589SOL     OW88663   9.472   8.136   5.353
95589SOL    HW188664   9.565   8.159   5.342
95589SOL    HW288665   9.460   8.132   5.448
95590SOL     OW88666  12.885   0.272   4.801
95590SOL    HW188667  12.795   0.248   4.783
95590SOL    HW288668  12.910   0.330   4.729
95591SOL     OW88669   7.818   6.734   0.485
95591SOL    HW188670   7.723   6.744   0.489
95591SOL    HW288671   7.834   6.645   0.517
95592SOL     OW88672   3.456  13.216   6.414
95592SOL    HW188673   3.405  13.215   6.495
95592SOL    HW288674   3.417  13.147   6.360
95593SOL     OW88675   1.429  10.360   9.613
95593SOL    HW188676   1.441  10.342   9.706
95593SOL    HW288677   1.336  10.346   9.597
95594SOL     OW88678   6.494  13.389   7.601
95594SOL    HW188679   6.414  13.420   7.643
95594SOL    HW288680   6.554  13.464   7.606
95595SOL     OW88681  10.835   7.306   8.964
95595SOL    HW188682  10.859   7.255   9.041
95595SOL    HW288683  10.798   7.387   8.999
95596SOL     OW88684   9.173   4.589   6.658
95596SOL    HW188685   9.139   4.661   6.604
95596SOL    HW288686   9.108   4.578   6.727
95597SOL     OW88687  10.225   6.992  12.242
95597SOL    HW188688  10.273   6.967  12.162
95597SOL    HW288689  10.134   6.966  12.224
95598SOL     OW88690  12.764  11.515  13.768
95598SOL    HW188691  12.747  11.489  13.858
95598SOL    HW288692  12.790  11.607  13.774
95599SOL     OW88693  12.825   2.796   0.109
95599SOL    HW188694  12.899   2.743   0.079
95599SOL    HW288695  12.833   2.878   0.059
95600SOL     OW88696   7.346   4.182   9.447
95600SOL    HW188697   7.429   4.142   9.422
95600SOL    HW288698   7.306   4.119   9.507
95601SOL     OW88699  10.681   3.886   9.435
95601SOL    HW188700  10.642   3.911   9.519
95601SOL    HW288701  10.770   3.858   9.456
95602SOL     OW88702   5.409  11.213   4.512
95602SOL    HW188703   5.425  11.306   4.525
95602SOL    HW288704   5.346  11.209   4.439
95603SOL     OW88705   1.416   8.127   3.436
95603SOL    HW188706   1.465   8.091   3.362
95603SOL    HW288707   1.446   8.077   3.512
95604SOL     OW88708   1.379  11.361   7.588
95604SOL    HW188709   1.392  11.301   7.661
95604SOL    HW288710   1.467  11.386   7.561
95605SOL     OW88711   5.062   6.063   9.110
95605SOL    HW188712   5.008   6.076   9.188
95605SOL    HW288713   5.143   6.024   9.143
95606SOL     OW88714   1.066   7.960  12.389
95606SOL    HW188715   1.057   7.921  12.302
95606SOL    HW288716   1.135   7.910  12.432
95607SOL     OW88717   7.933  13.701   7.826
95607SOL    HW188718   7.996  13.771   7.840
95607SOL    HW288719   7.985  13.627   7.794
95608SOL     OW88720   5.169  10.383   3.378
95608SOL    HW188721   5.204  10.468   3.405
95608SOL    HW288722   5.078  10.402   3.353
95609SOL     OW88723   7.741   7.695   7.082
95609SOL    HW188724   7.708   7.693   6.992
95609SOL    HW288725   7.815   7.755   7.079
95610SOL     OW88726  13.408   2.003   2.574
95610SOL    HW188727  13.479   2.028   2.515
95610SOL    HW288728  13.430   2.045   2.657
95611SOL     OW88729   9.764   8.604   9.506
95611SOL    HW188730   9.709   8.548   9.450
95611SOL    HW288731   9.830   8.639   9.446
95612SOL     OW88732   5.932   1.544  12.083
95612SOL    HW188733   6.004   1.489  12.113
95612SOL    HW288734   5.941   1.625  12.132
95613SOL     OW88735   8.155   1.937   1.290
95613SOL    HW188736   8.231   1.984   1.255
95613SOL    HW288737   8.117   1.893   1.214
95614SOL     OW88738   8.666   7.835  10.842
95614SOL    HW188739   8.638   7.911  10.892
95614SOL    HW288740   8.585   7.797  10.807
95615SOL     OW88741   8.555   8.266   6.996
95615SOL    HW188742   8.601   8.301   7.071
95615SOL    HW288743   8.518   8.183   7.026
95616SOL     OW88744  14.332   6.673   9.852
95616SOL    HW188745  14.322   6.698   9.760
95616SOL    HW288746  14.339   6.578   9.851
95617SOL     OW88747   5.949   7.974   0.234
95617SOL    HW188748   5.855   7.989   0.242
95617SOL    HW288749   5.960   7.881   0.249
95618SOL     OW88750   8.992   6.404   1.984
95618SOL    HW188751   9.035   6.365   1.908
95618SOL    HW288752   9.031   6.361   2.059
95619SOL     OW88753   1.477   8.247  11.508
95619SOL    HW188754   1.456   8.295  11.427
95619SOL    HW288755   1.476   8.314  11.576
95620SOL     OW88756  13.676   4.627   3.952
95620SOL    HW188757  13.753   4.572   3.965
95620SOL    HW288758  13.646   4.649   4.040
95621SOL     OW88759   2.848  14.320   4.130
95621SOL    HW188760   2.782  14.262   4.168
95621SOL    HW288761   2.838  14.309   4.036
95622SOL     OW88762   4.414   2.776  13.059
95622SOL    HW188763   4.336   2.730  13.090
95622SOL    HW288764   4.463   2.797  13.138
95623SOL     OW88765   5.269  11.194  11.313
95623SOL    HW188766   5.225  11.274  11.285
95623SOL    HW288767   5.277  11.203  11.408
95624SOL     OW88768   5.358   8.699   9.857
95624SOL    HW188769   5.352   8.620   9.803
95624SOL    HW288770   5.329   8.770   9.799
95625SOL     OW88771   2.555   7.205   1.479
95625SOL    HW188772   2.611   7.269   1.435
95625SOL    HW288773   2.466   7.225   1.449
95626SOL     OW88774  11.347   0.917   6.161
95626SOL    HW188775  11.353   1.012   6.168
95626SOL    HW288776  11.399   0.896   6.083
95627SOL     OW88777  10.028  14.339   8.479
95627SOL    HW188778   9.997  14.401   8.414
95627SOL    HW288779   9.993  14.254   8.451
95628SOL     OW88780   3.043   6.731   4.605
95628SOL    HW188781   3.044   6.825   4.624
95628SOL    HW288782   3.002   6.724   4.519
95629SOL     OW88783   3.865   3.078   0.099
95629SOL    HW188784   3.785   3.130   0.101
95629SOL    HW288785   3.884   3.067   0.006
95630SOL     OW88786   9.017   4.205   7.381
95630SOL    HW188787   8.935   4.208   7.431
95630SOL    HW288788   9.074   4.148   7.433
95631SOL     OW88789  12.497  11.425  13.330
95631SOL    HW188790  12.523  11.478  13.405
95631SOL    HW288791  12.405  11.403  13.346
95632SOL     OW88792  14.506  13.988   1.320
95632SOL    HW188793  14.503  14.071   1.367
95632SOL    HW288794  14.472  13.924   1.382
95633SOL     OW88795  11.881  11.756   0.730
95633SOL    HW188796  11.792  11.722   0.734
95633SOL    HW288797  11.923  11.706   0.660
95634SOL     OW88798  11.264   5.750  14.413
95634SOL    HW188799  11.176   5.732  14.381
95634SOL    HW288800  11.259   5.841  14.445
95635SOL     OW88801   3.786  11.083   2.614
95635SOL    HW188802   3.861  11.077   2.555
95635SOL    HW288803   3.722  11.137   2.566
95636SOL     OW88804   5.375   2.893   5.933
95636SOL    HW188805   5.460   2.938   5.935
95636SOL    HW288806   5.326   2.930   6.007
95637SOL     OW88807  12.302   4.518   2.313
95637SOL    HW188808  12.296   4.428   2.345
95637SOL    HW288809  12.396   4.538   2.318
95638SOL     OW88810  11.561   9.771   6.353
95638SOL    HW188811  11.627   9.725   6.405
95638SOL    HW288812  11.555   9.857   6.394
95639SOL     OW88813   1.931  13.283  14.592
95639SOL    HW188814   1.965  13.198  14.566
95639SOL    HW288815   1.974  13.303  14.675
95640SOL     OW88816  10.520   8.420   6.124
95640SOL    HW188817  10.486   8.351   6.067
95640SOL    HW288818  10.592   8.458   6.075
95641SOL     OW88819   0.271   2.487   5.475
95641SOL    HW188820   0.251   2.538   5.553
95641SOL    HW288821   0.285   2.398   5.508
95642SOL     OW88822   1.417   2.067  10.550
95642SOL    HW188823   1.322   2.077  10.552
95642SOL    HW288824   1.444   2.084  10.641
95643SOL     OW88825   4.317  11.760   8.398
95643SOL    HW188826   4.267  11.830   8.356
95643SOL    HW288827   4.295  11.767   8.491
95644SOL     OW88828   7.473   8.955   3.680
95644SOL    HW188829   7.497   8.970   3.588
95644SOL    HW288830   7.532   8.885   3.709
95645SOL     OW88831   8.113  12.227   5.509
95645SOL    HW188832   8.202  12.204   5.483
95645SOL    HW288833   8.114  12.224   5.604
95646SOL     OW88834  14.660   1.212  10.997
95646SOL    HW188835  14.660   1.201  11.092
95646SOL    HW288836  14.734   1.160  10.966
95647SOL     OW88837  12.937   0.042   9.804
95647SOL    HW188838  12.903  14.867   9.732
95647SOL    HW288839  12.916  14.869   9.883
95648SOL     OW88840   6.873   2.646   8.897
95648SOL    HW188841   6.927   2.723   8.882
95648SOL    HW288842   6.860   2.644   8.991
95649SOL     OW88843   4.997   7.096   2.126
95649SOL    HW188844   4.910   7.119   2.157
95649SOL    HW288845   5.020   7.017   2.175
95650SOL     OW88846  13.235   9.159  12.743
95650SOL    HW188847  13.214   9.137  12.652
95650SOL    HW288848  13.241   9.254  12.744
95651SOL     OW88849   5.364  10.363   6.789
95651SOL    HW188850   5.391  10.279   6.753
95651SOL    HW288851   5.282  10.384   6.745
95652SOL     OW88852   4.582   8.353   3.225
95652SOL    HW188853   4.488   8.355   3.211
95652SOL    HW288854   4.614   8.437   3.192
95653SOL     OW88855   8.413  14.338   8.705
95653SOL    HW188856   8.324  14.317   8.732
95653SOL    HW288857   8.466  14.326   8.784
95654SOL     OW88858   8.047   9.435  14.670
95654SOL    HW188859   8.057   9.517  14.719
95654SOL    HW288860   8.096   9.371  14.720
95655SOL     OW88861   1.518  14.626   1.813
95655SOL    HW188862   1.580  14.587   1.875
95655SOL    HW288863   1.563  14.625   1.729
95656SOL     OW88864   3.830   2.906   5.282
95656SOL    HW188865   3.919   2.942   5.278
95656SOL    HW288866   3.836   2.836   5.348
95657SOL     OW88867   8.688   1.876  13.682
95657SOL    HW188868   8.670   1.815  13.753
95657SOL    HW288869   8.671   1.825  13.602
95658SOL     OW88870   9.994   8.853   0.441
95658SOL    HW188871  10.058   8.783   0.451
95658SOL    HW288872   9.929   8.835   0.509
95659SOL     OW88873   0.194   7.063   3.365
95659SOL    HW188874   0.224   7.076   3.455
95659SOL    HW288875   0.195   7.151   3.327
95660SOL     OW88876   7.132   0.651   7.541
95660SOL    HW188877   7.111   0.570   7.493
95660SOL    HW288878   7.226   0.663   7.529
95661SOL     OW88879   8.226   9.257   5.215
95661SOL    HW188880   8.172   9.329   5.182
95661SOL    HW288881   8.162   9.194   5.250
95662SOL     OW88882  13.894   7.495   2.847
95662SOL    HW188883  13.820   7.441   2.819
95662SOL    HW288884  13.871   7.584   2.818
95663SOL     OW88885   1.168   7.918   9.182
95663SOL    HW188886   1.254   7.879   9.167
95663SOL    HW288887   1.159   7.984   9.114
95664SOL     OW88888   3.943   6.935   9.741
95664SOL    HW188889   3.861   6.974   9.708
95664SOL    HW288890   3.942   6.845   9.709
95665SOL     OW88891   5.951  10.101  14.847
95665SOL    HW188892   5.970  10.066   0.056
95665SOL    HW288893   5.992  10.188  14.847
95666SOL     OW88894   8.089   8.720  14.144
95666SOL    HW188895   8.056   8.750  14.229
95666SOL    HW288896   8.184   8.718  14.155
95667SOL     OW88897   8.433  11.513   0.001
95667SOL    HW188898   8.437  11.605  14.853
95667SOL    HW288899   8.517  11.476  14.853
95668SOL     OW88900   2.674  14.098   4.112
95668SOL    HW188901   2.630  14.102   4.027
95668SOL    HW288902   2.691  14.004   4.126
95669SOL     OW88903   1.341   6.364  13.008
95669SOL    HW188904   1.270   6.302  13.025
95669SOL    HW288905   1.419   6.320  13.042
95670SOL     OW88906  12.016   2.899   4.029
95670SOL    HW188907  12.013   2.986   3.987
95670SOL    HW288908  11.927   2.866   4.024
95671SOL     OW88909  13.937   1.559   5.879
95671SOL    HW188910  14.028   1.527   5.884
95671SOL    HW288911  13.891   1.506   5.944
95672SOL     OW88912  11.676   4.397   9.378
95672SOL    HW188913  11.610   4.368   9.315
95672SOL    HW288914  11.714   4.475   9.339
95673SOL     OW88915   8.727   2.573  10.257
95673SOL    HW188916   8.667   2.590  10.185
95673SOL    HW288917   8.756   2.660  10.286
95674SOL     OW88918   4.109   7.949   1.624
95674SOL    HW188919   4.190   7.985   1.585
95674SOL    HW288920   4.071   8.023   1.671
95675SOL     OW88921   5.359   8.127  12.025
95675SOL    HW188922   5.444   8.089  12.048
95675SOL    HW288923   5.295   8.063  12.057
95676SOL     OW88924  13.340  14.281  11.043
95676SOL    HW188925  13.393  14.210  11.007
95676SOL    HW288926  13.397  14.358  11.042
95677SOL     OW88927   1.319  12.579  13.532
95677SOL    HW188928   1.269  12.557  13.453
95677SOL    HW288929   1.405  12.540  13.517
95678SOL     OW88930  13.259  13.093   9.600
95678SOL    HW188931  13.290  13.169   9.650
95678SOL    HW288932  13.323  13.082   9.530
95679SOL     OW88933   8.098  11.673   5.142
95679SOL    HW188934   8.166  11.640   5.200
95679SOL    HW288935   8.109  11.768   5.143
95680SOL     OW88936  14.730   0.504   2.082
95680SOL    HW188937  14.821   0.533   2.081
95680SOL    HW288938  14.685   0.567   2.138
95681SOL     OW88939   2.656  12.680   1.334
95681SOL    HW188940   2.670  12.766   1.373
95681SOL    HW288941   2.695  12.686   1.246
95682SOL     OW88942  10.943   6.851   2.112
95682SOL    HW188943  10.971   6.943   2.118
95682SOL    HW288944  10.850   6.855   2.091
95683SOL     OW88945  13.463   5.841  11.331
95683SOL    HW188946  13.447   5.808  11.243
95683SOL    HW288947  13.522   5.776  11.371
95684SOL     OW88948  12.453  11.362  13.750
95684SOL    HW188949  12.467  11.448  13.789
95684SOL    HW288950  12.422  11.380  13.661
95685SOL     OW88951   6.971   6.441   8.036
95685SOL    HW188952   6.904   6.392   8.084
95685SOL    HW288953   7.012   6.497   8.103
95686SOL     OW88954   8.770   8.519   6.811
95686SOL    HW188955   8.717   8.544   6.735
95686SOL    HW288956   8.772   8.424   6.808
95687SOL     OW88957   4.373   5.681   8.891
95687SOL    HW188958   4.352   5.729   8.971
95687SOL    HW288959   4.454   5.721   8.859
95688SOL     OW88960   2.202   8.800   1.393
95688SOL    HW188961   2.200   8.794   1.298
95688SOL    HW288962   2.111   8.816   1.418
95689SOL     OW88963   4.456   8.477  13.055
95689SOL    HW188964   4.400   8.423  12.999
95689SOL    HW288965   4.456   8.563  13.014
95690SOL     OW88966   6.562   4.075   4.315
95690SOL    HW188967   6.518   4.029   4.387
95690SOL    HW288968   6.655   4.062   4.333
95691SOL     OW88969   7.350   2.582   1.820
95691SOL    HW188970   7.364   2.675   1.836
95691SOL    HW288971   7.259   2.576   1.791
95692SOL     OW88972   2.702   2.610   4.345
95692SOL    HW188973   2.711   2.607   4.441
95692SOL    HW288974   2.764   2.678   4.318
95693SOL     OW88975   8.820   8.470   3.669
95693SOL    HW188976   8.803   8.442   3.759
95693SOL    HW288977   8.907   8.509   3.672
95694SOL     OW88978   9.689   5.097   1.491
95694SOL    HW188979   9.677   5.183   1.532
95694SOL    HW288980   9.637   5.100   1.411
95695SOL     OW88981   9.121   2.278   6.691
95695SOL    HW188982   9.128   2.185   6.709
95695SOL    HW288983   9.036   2.288   6.648
95696SOL     OW88984  12.429   8.085   0.421
95696SOL    HW188985  12.440   8.046   0.508
95696SOL    HW288986  12.334   8.088   0.408
95697SOL     OW88987   9.844  12.709   2.670
95697SOL    HW188988   9.802  12.634   2.713
95697SOL    HW288989   9.774  12.773   2.658
95698SOL     OW88990   9.762  10.219   3.604
95698SOL    HW188991   9.760  10.307   3.565
95698SOL    HW288992   9.771  10.235   3.698
95699SOL     OW88993   1.589   2.115   8.612
95699SOL    HW188994   1.497   2.139   8.609
95699SOL    HW288995   1.616   2.114   8.520
95700SOL     OW88996   6.092  12.569   9.997
95700SOL    HW188997   6.074  12.658   9.968
95700SOL    HW288998   6.008  12.523   9.987
95701SOL     OW88999   6.554   9.846   2.029
95701SOL    HW189000   6.511   9.761   2.016
95701SOL    HW289001   6.524   9.900   1.956
95702SOL     OW89002   5.982   7.788  13.576
95702SOL    HW189003   6.032   7.713  13.543
95702SOL    HW289004   6.037   7.864  13.557
95703SOL     OW89005   2.689   0.395  13.791
95703SOL    HW189006   2.741   0.466  13.827
95703SOL    HW289007   2.727   0.315  13.829
95704SOL     OW89008   8.132   6.978   1.043
95704SOL    HW189009   8.186   6.899   1.041
95704SOL    HW289010   8.194   7.050   1.041
95705SOL     OW89011   4.066   5.813  14.722
95705SOL    HW189012   4.059   5.890  14.778
95705SOL    HW289013   3.983   5.766  14.735
95706SOL     OW89014  11.791   7.190  13.916
95706SOL    HW189015  11.842   7.147  13.985
95706SOL    HW289016  11.780   7.280  13.947
95707SOL     OW89017   9.506   8.565   3.487
95707SOL    HW189018   9.565   8.542   3.559
95707SOL    HW289019   9.442   8.624   3.527
95708SOL     OW89020   9.592   3.649  13.415
95708SOL    HW189021   9.617   3.562  13.446
95708SOL    HW289022   9.673   3.685  13.378
95709SOL     OW89023   0.327   5.825   1.373
95709SOL    HW189024   0.255   5.767   1.349
95709SOL    HW289025   0.286   5.910   1.386
95710SOL     OW89026   7.531   6.453   0.034
95710SOL    HW189027   7.600   6.518   0.044
95710SOL    HW289028   7.535   6.400   0.114
95711SOL     OW89029   5.286  11.168   0.668
95711SOL    HW189030   5.290  11.084   0.715
95711SOL    HW289031   5.371  11.208   0.684
95712SOL     OW89032  10.370   6.998   4.945
95712SOL    HW189033  10.398   7.086   4.920
95712SOL    HW289034  10.443   6.963   4.996
95713SOL     OW89035   7.457  13.568  13.524
95713SOL    HW189036   7.398  13.514  13.577
95713SOL    HW289037   7.521  13.507  13.489
95714SOL     OW89038   8.174  10.154   9.736
95714SOL    HW189039   8.227  10.229   9.710
95714SOL    HW289040   8.094  10.193   9.771
95715SOL     OW89041  13.947  12.344   4.020
95715SOL    HW189042  13.883  12.295   4.071
95715SOL    HW289043  13.934  12.314   3.930
95716SOL     OW89044   1.012   7.298   3.285
95716SOL    HW189045   1.001   7.220   3.340
95716SOL    HW289046   1.087   7.343   3.322
95717SOL     OW89047   8.384   0.491  14.342
95717SOL    HW189048   8.428   0.570  14.372
95717SOL    HW289049   8.422   0.473  14.256
95718SOL     OW89050   1.786  11.321  11.654
95718SOL    HW189051   1.791  11.398  11.711
95718SOL    HW289052   1.853  11.338  11.587
95719SOL     OW89053   1.052   8.848  11.936
95719SOL    HW189054   1.013   8.884  12.015
95719SOL    HW289055   1.025   8.908  11.866
95720SOL     OW89056  12.090   9.546   5.052
95720SOL    HW189057  12.050   9.620   5.097
95720SOL    HW289058  12.133   9.584   4.975
95721SOL     OW89059   4.067  11.209  14.571
95721SOL    HW189060   4.028  11.209  14.658
95721SOL    HW289061   4.055  11.119  14.539
95722SOL     OW89062   7.415   3.816   8.145
95722SOL    HW189063   7.374   3.861   8.071
95722SOL    HW289064   7.480   3.878   8.178
95723SOL     OW89065   0.217  12.382   7.427
95723SOL    HW189066   0.223  12.452   7.493
95723SOL    HW289067   0.176  12.424   7.351
95724SOL     OW89068   0.184  10.492  13.966
95724SOL    HW189069   0.144  10.505  13.880
95724SOL    HW289070   0.213  10.400  13.965
95725SOL     OW89071  10.293   1.629   1.930
95725SOL    HW189072  10.290   1.537   1.903
95725SOL    HW289073  10.307   1.678   1.849
95726SOL     OW89074   1.163   6.303   0.042
95726SOL    HW189075   1.105   6.322   0.115
95726SOL    HW289076   1.248   6.339   0.068
95727SOL     OW89077  12.266   5.149   0.122
95727SOL    HW189078  12.324   5.102   0.183
95727SOL    HW289079  12.295   5.240   0.128
95728SOL     OW89080  13.576  12.909   6.879
95728SOL    HW189081  13.533  12.824   6.888
95728SOL    HW289082  13.665  12.888   6.854
95729SOL     OW89083  13.885  11.259   4.383
95729SOL    HW189084  13.947  11.251   4.455
95729SOL    HW289085  13.939  11.253   4.304
95730SOL     OW89086   7.604   3.568  10.401
95730SOL    HW189087   7.622   3.504  10.470
95730SOL    HW289088   7.512   3.552  10.377
95731SOL     OW89089  11.392   6.864  11.814
95731SOL    HW189090  11.441   6.928  11.867
95731SOL    HW289091  11.372   6.793  11.875
95732SOL     OW89092  11.954   7.987   5.054
95732SOL    HW189093  12.034   7.957   5.098
95732SOL    HW289094  11.958   8.083   5.062
95733SOL     OW89095   8.144   6.197  10.379
95733SOL    HW189096   8.173   6.165  10.465
95733SOL    HW289097   8.206   6.267  10.358
95734SOL     OW89098   4.404   8.852   7.627
95734SOL    HW189099   4.325   8.846   7.573
95734SOL    HW289100   4.387   8.927   7.685
95735SOL     OW89101  12.220  11.805  13.372
95735SOL    HW189102  12.159  11.790  13.300
95735SOL    HW289103  12.307  11.797  13.332
95736SOL     OW89104  14.142   8.960   0.247
95736SOL    HW189105  14.202   8.907   0.195
95736SOL    HW289106  14.135   9.043   0.199
95737SOL     OW89107   9.246  10.530  12.566
95737SOL    HW189108   9.225  10.529  12.660
95737SOL    HW289109   9.338  10.506  12.562
95738SOL     OW89110   5.159   8.664   5.418
95738SOL    HW189111   5.233   8.653   5.358
95738SOL    HW289112   5.097   8.596   5.393
95739SOL     OW89113  12.830   6.340   3.951
95739SOL    HW189114  12.796   6.254   3.926
95739SOL    HW289115  12.879   6.324   4.031
95740SOL     OW89116   5.154   5.078   5.150
95740SOL    HW189117   5.137   4.984   5.149
95740SOL    HW289118   5.113   5.111   5.069
95741SOL     OW89119  13.378   2.588   9.037
95741SOL    HW189120  13.430   2.666   9.059
95741SOL    HW289121  13.293   2.604   9.079
95742SOL     OW89122  10.503   9.233   8.791
95742SOL    HW189123  10.432   9.297   8.784
95742SOL    HW289124  10.539   9.248   8.879
95743SOL     OW89125  12.023  10.922   6.450
95743SOL    HW189126  11.996  10.859   6.517
95743SOL    HW289127  11.982  11.004   6.477
95744SOL     OW89128   1.500   0.835   9.449
95744SOL    HW189129   1.452   0.832   9.532
95744SOL    HW289130   1.460   0.907   9.401
95745SOL     OW89131  11.614   1.217   5.519
95745SOL    HW189132  11.615   1.123   5.502
95745SOL    HW289133  11.666   1.228   5.598
95746SOL     OW89134  13.060   6.153  12.832
95746SOL    HW189135  13.124   6.082  12.824
95746SOL    HW289136  12.979   6.109  12.859
95747SOL     OW89137   1.030  14.458  11.955
95747SOL    HW189138   1.069  14.386  12.004
95747SOL    HW289139   1.069  14.451  11.867
95748SOL     OW89140  14.327   0.946   5.972
95748SOL    HW189141  14.321   0.875   6.036
95748SOL    HW289142  14.262   0.925   5.906
95749SOL     OW89143  12.395   3.784  12.339
95749SOL    HW189144  12.378   3.771  12.246
95749SOL    HW289145  12.371   3.701  12.380
95750SOL     OW89146   4.062  10.616  10.420
95750SOL    HW189147   4.149  10.629  10.384
95750SOL    HW289148   4.077  10.596  10.512
95751SOL     OW89149   1.833   5.989   7.951
95751SOL    HW189150   1.803   6.059   8.009
95751SOL    HW289151   1.921   6.015   7.925
95752SOL     OW89152   2.258   1.365  12.056
95752SOL    HW189153   2.315   1.322  11.993
95752SOL    HW289154   2.255   1.456  12.027
95753SOL     OW89155   5.143   5.169   7.394
95753SOL    HW189156   5.202   5.114   7.342
95753SOL    HW289157   5.201   5.235   7.433
95754SOL     OW89158   6.986   9.319  12.166
95754SOL    HW189159   6.896   9.336  12.192
95754SOL    HW289160   6.984   9.324  12.070
95755SOL     OW89161  14.637   1.938   1.937
95755SOL    HW189162  14.687   1.863   1.970
95755SOL    HW289163  14.674   2.014   1.984
95756SOL     OW89164  12.440   0.880   3.549
95756SOL    HW189165  12.353   0.842   3.563
95756SOL    HW289166  12.424   0.957   3.495
95757SOL     OW89167  12.029  11.691   9.512
95757SOL    HW189168  11.965  11.756   9.484
95757SOL    HW289169  12.091  11.740   9.565
95758SOL     OW89170   3.392   0.908   5.406
95758SOL    HW189171   3.302   0.940   5.402
95758SOL    HW289172   3.422   0.907   5.316
95759SOL     OW89173   4.942   0.796   9.424
95759SOL    HW189174   5.020   0.822   9.374
95759SOL    HW289175   4.928   0.705   9.399
95760SOL     OW89176   2.161  12.547  11.944
95760SOL    HW189177   2.088  12.533  12.004
95760SOL    HW289178   2.197  12.459  11.929
95761SOL     OW89179   3.639  10.030   4.062
95761SOL    HW189180   3.732  10.049   4.045
95761SOL    HW289181   3.631  10.038   4.157
95762SOL     OW89182  10.796   6.375   4.104
95762SOL    HW189183  10.788   6.470   4.116
95762SOL    HW289184  10.794   6.339   4.192
95763SOL     OW89185   2.062   1.311  12.978
95763SOL    HW189186   1.990   1.339  13.035
95763SOL    HW289187   2.141   1.336  13.025
95764SOL     OW89188   5.440   9.574  14.000
95764SOL    HW189189   5.523   9.541  14.036
95764SOL    HW289190   5.465   9.648  13.945
95765SOL     OW89191   2.362  12.880   1.088
95765SOL    HW189192   2.431  12.943   1.072
95765SOL    HW289193   2.397  12.797   1.055
95766SOL     OW89194   6.978   1.988   5.400
95766SOL    HW189195   7.053   1.951   5.353
95766SOL    HW289196   6.962   2.072   5.357
95767SOL     OW89197  10.831   0.668   9.397
95767SOL    HW189198  10.788   0.741   9.352
95767SOL    HW289199  10.793   0.669   9.485
95768SOL     OW89200   7.861   4.804   2.557
95768SOL    HW189201   7.865   4.709   2.557
95768SOL    HW289202   7.788   4.826   2.615
95769SOL     OW89203  12.097   2.020   5.870
95769SOL    HW189204  12.109   2.026   5.965
95769SOL    HW289205  12.099   2.111   5.840
95770SOL     OW89206  11.586   8.814   8.703
95770SOL    HW189207  11.669   8.766   8.704
95770SOL    HW289208  11.521   8.749   8.731
95771SOL     OW89209  12.298   6.881  11.785
95771SOL    HW189210  12.369   6.833  11.742
95771SOL    HW289211  12.343   6.949  11.835
95772SOL     OW89212   1.901   4.580   2.627
95772SOL    HW189213   1.836   4.561   2.694
95772SOL    HW289214   1.851   4.615   2.554
95773SOL     OW89215  14.321   4.548  12.970
95773SOL    HW189216  14.315   4.490  13.046
95773SOL    HW289217  14.390   4.509  12.916
95774SOL     OW89218  13.251   6.034  11.343
95774SOL    HW189219  13.312   5.965  11.316
95774SOL    HW289220  13.165   6.000  11.320
95775SOL     OW89221   4.917   1.052   9.995
95775SOL    HW189222   4.929   0.966   9.955
95775SOL    HW289223   4.955   1.114   9.932
95776SOL     OW89224   3.194   8.586   4.146
95776SOL    HW189225   3.204   8.673   4.184
95776SOL    HW289226   3.230   8.594   4.057
95777SOL     OW89227  12.417   6.181   8.690
95777SOL    HW189228  12.343   6.189   8.629
95777SOL    HW289229  12.481   6.245   8.658
95778SOL     OW89230   3.146  13.382   2.026
95778SOL    HW189231   3.094  13.444   1.975
95778SOL    HW289232   3.086  13.309   2.043
95779SOL     OW89233   9.790   7.576  14.548
95779SOL    HW189234   9.749   7.614  14.470
95779SOL    HW289235   9.758   7.629  14.620
95780SOL     OW89236   6.762   5.082   4.483
95780SOL    HW189237   6.710   5.045   4.410
95780SOL    HW289238   6.723   5.043   4.561
95781SOL     OW89239   8.190   3.107   1.512
95781SOL    HW189240   8.213   3.171   1.444
95781SOL    HW289241   8.099   3.126   1.533
95782SOL     OW89242   6.690  14.119   8.964
95782SOL    HW189243   6.668  14.211   8.952
95782SOL    HW289244   6.605  14.074   8.965
95783SOL     OW89245   4.051   5.608   8.034
95783SOL    HW189246   3.984   5.551   7.995
95783SOL    HW289247   4.127   5.551   8.047
95784SOL     OW89248   2.184   7.640   2.975
95784SOL    HW189249   2.133   7.721   2.972
95784SOL    HW289250   2.148   7.587   2.904
95785SOL     OW89251  10.661  14.103  11.675
95785SOL    HW189252  10.570  14.107  11.646
95785SOL    HW289253  10.705  14.171  11.624
95786SOL     OW89254  12.291   2.709   0.765
95786SOL    HW189255  12.215   2.764   0.744
95786SOL    HW289256  12.293   2.644   0.695
95787SOL     OW89257   1.010   8.145   8.653
95787SOL    HW189258   0.931   8.156   8.600
95787SOL    HW289259   1.008   8.053   8.678
95788SOL     OW89260   5.132  12.279   0.654
95788SOL    HW189261   5.135  12.341   0.727
95788SOL    HW289262   5.218  12.287   0.613
95789SOL     OW89263   2.530  13.230   1.892
95789SOL    HW189264   2.451  13.277   1.920
95789SOL    HW289265   2.584  13.223   1.971
95790SOL     OW89266  11.461  12.774   7.773
95790SOL    HW189267  11.446  12.803   7.863
95790SOL    HW289268  11.441  12.681   7.774
95791SOL     OW89269   2.196   7.567   9.316
95791SOL    HW189270   2.165   7.602   9.232
95791SOL    HW289271   2.176   7.474   9.312
95792SOL     OW89272  10.737   8.461  10.692
95792SOL    HW189273  10.739   8.552  10.661
95792SOL    HW289274  10.818   8.423  10.660
95793SOL     OW89275   3.666   9.278   5.471
95793SOL    HW189276   3.699   9.357   5.428
95793SOL    HW289277   3.571   9.292   5.477
95794SOL     OW89278   4.586   3.182   8.360
95794SOL    HW189279   4.494   3.196   8.382
95794SOL    HW289280   4.589   3.188   8.265
95795SOL     OW89281   1.421   5.800  14.046
95795SOL    HW189282   1.483   5.739  14.006
95795SOL    HW289283   1.409   5.868  13.980
95796SOL     OW89284   9.856   5.602   7.434
95796SOL    HW189285   9.844   5.544   7.359
95796SOL    HW289286   9.770   5.641   7.449
95797SOL     OW89287   5.190  11.943   9.959
95797SOL    HW189288   5.130  11.872   9.981
95797SOL    HW289289   5.277  11.906   9.975
95798SOL     OW89290   5.071   5.102   9.616
95798SOL    HW189291   5.128   5.149   9.555
95798SOL    HW289292   5.014   5.050   9.560
95799SOL     OW89293   3.015  13.568   1.387
95799SOL    HW189294   2.932  13.586   1.431
95799SOL    HW289295   3.052  13.493   1.435
95800SOL     OW89296  13.223   9.049   9.832
95800SOL    HW189297  13.266   8.966   9.855
95800SOL    HW289298  13.245   9.108   9.904
95801SOL     OW89299   2.012   8.604   2.492
95801SOL    HW189300   2.058   8.682   2.462
95801SOL    HW289301   1.941   8.638   2.546
95802SOL     OW89302   8.089   6.884   6.949
95802SOL    HW189303   8.180   6.886   6.917
95802SOL    HW289304   8.074   6.972   6.983
95803SOL     OW89305  13.716   0.748   7.291
95803SOL    HW189306  13.676   0.833   7.307
95803SOL    HW289307  13.645   0.685   7.304
95804SOL     OW89308  14.598   7.501   7.043
95804SOL    HW189309  14.639   7.488   6.958
95804SOL    HW289310  14.661   7.466   7.106
95805SOL     OW89311   5.468   6.509   5.287
95805SOL    HW189312   5.443   6.528   5.377
95805SOL    HW289313   5.560   6.532   5.281
95806SOL     OW89314   4.729  11.458   1.300
95806SOL    HW189315   4.729  11.553   1.304
95806SOL    HW289316   4.741  11.438   1.207
95807SOL     OW89317   6.632   0.694  11.300
95807SOL    HW189318   6.593   0.751  11.366
95807SOL    HW289319   6.617   0.738  11.217
95808SOL     OW89320   9.882  13.306   9.845
95808SOL    HW189321   9.846  13.318   9.757
95808SOL    HW289322   9.833  13.233   9.881
95809SOL     OW89323  13.510   4.988  11.640
95809SOL    HW189324  13.472   4.918  11.693
95809SOL    HW289325  13.532   4.946  11.557
95810SOL     OW89326  14.598  12.135  12.074
95810SOL    HW189327  14.544  12.068  12.031
95810SOL    HW289328  14.557  12.148  12.159
95811SOL     OW89329   6.936   3.159   5.270
95811SOL    HW189330   7.017   3.139   5.224
95811SOL    HW289331   6.945   3.251   5.297
95812SOL     OW89332   6.587   3.212   6.457
95812SOL    HW189333   6.501   3.230   6.419
95812SOL    HW289334   6.649   3.231   6.387
95813SOL     OW89335   0.391   0.202   3.944
95813SOL    HW189336   0.299   0.226   3.955
95813SOL    HW289337   0.418   0.173   4.031
95814SOL     OW89338   0.426   7.273   9.129
95814SOL    HW189339   0.417   7.187   9.170
95814SOL    HW289340   0.509   7.307   9.162
95815SOL     OW89341   2.923  12.987   5.952
95815SOL    HW189342   2.863  12.912   5.962
95815SOL    HW289343   2.931  13.024   6.040
95816SOL     OW89344   5.485   1.563   7.603
95816SOL    HW189345   5.416   1.497   7.599
95816SOL    HW289346   5.445   1.638   7.645
95817SOL     OW89347   6.010  11.373  12.765
95817SOL    HW189348   5.960  11.362  12.846
95817SOL    HW289349   6.050  11.460  12.772
95818SOL     OW89350   9.494   1.513  11.640
95818SOL    HW189351   9.500   1.505  11.545
95818SOL    HW289352   9.564   1.456  11.673
95819SOL     OW89353   7.351   9.753  13.889
95819SOL    HW189354   7.392   9.681  13.841
95819SOL    HW289355   7.397   9.755  13.973
95820SOL     OW89356   6.757  12.488   2.003
95820SOL    HW189357   6.812  12.552   1.957
95820SOL    HW289358   6.705  12.446   1.934
95821SOL     OW89359   7.100   1.432   1.379
95821SOL    HW189360   7.178   1.475   1.413
95821SOL    HW289361   7.035   1.441   1.449
95822SOL     OW89362   2.324   5.488   1.301
95822SOL    HW189363   2.267   5.438   1.243
95822SOL    HW289364   2.266   5.545   1.350
95823SOL     OW89365   0.747  10.979  10.875
95823SOL    HW189366   0.662  10.972  10.832
95823SOL    HW289367   0.775  10.888  10.886
95824SOL     OW89368   1.087  14.128   5.410
95824SOL    HW189369   1.177  14.099   5.428
95824SOL    HW289370   1.040  14.048   5.387
95825SOL     OW89371  10.181  11.167   6.108
95825SOL    HW189372  10.229  11.237   6.066
95825SOL    HW289373  10.247  11.116   6.155
95826SOL     OW89374   4.358   6.077   4.198
95826SOL    HW189375   4.358   6.055   4.105
95826SOL    HW289376   4.268   6.104   4.216
95827SOL     OW89377  10.412  13.142   8.893
95827SOL    HW189378  10.444  13.053   8.875
95827SOL    HW289379  10.419  13.152   8.987
95828SOL     OW89380   6.525   9.294   9.227
95828SOL    HW189381   6.527   9.302   9.322
95828SOL    HW289382   6.431   9.291   9.206
95829SOL     OW89383   0.231   0.711  12.200
95829SOL    HW189384   0.272   0.667  12.125
95829SOL    HW289385   0.278   0.794  12.207
95830SOL     OW89386   7.992   3.226   2.092
95830SOL    HW189387   7.965   3.149   2.042
95830SOL    HW289388   7.943   3.219   2.174
95831SOL     OW89389   0.576   6.034   4.014
95831SOL    HW189390   0.587   6.126   3.993
95831SOL    HW289391   0.481   6.022   4.022
95832SOL     OW89392   3.110   3.562   0.503
95832SOL    HW189393   3.169   3.605   0.440
95832SOL    HW289394   3.023   3.592   0.478
95833SOL     OW89395   8.250   2.976   1.017
95833SOL    HW189396   8.230   3.063   1.054
95833SOL    HW289397   8.222   2.914   1.085
95834SOL     OW89398  14.763   8.318  10.950
95834SOL    HW189399  14.743   8.280  10.865
95834SOL    HW289400  14.753   8.412  10.937
95835SOL     OW89401   6.525  11.853   4.289
95835SOL    HW189402   6.478  11.925   4.246
95835SOL    HW289403   6.485  11.774   4.254
95836SOL     OW89404   3.350  13.327   4.451
95836SOL    HW189405   3.298  13.351   4.374
95836SOL    HW289406   3.311  13.377   4.523
95837SOL     OW89407   8.305   0.087  11.791
95837SOL    HW189408   8.319   0.063  11.699
95837SOL    HW289409   8.210   0.091  11.801
95838SOL     OW89410   6.489   2.199  12.957
95838SOL    HW189411   6.559   2.260  12.979
95838SOL    HW289412   6.474   2.212  12.864
95839SOL     OW89413  12.683   5.412  11.278
95839SOL    HW189414  12.695   5.359  11.199
95839SOL    HW289415  12.617   5.477  11.253
95840SOL     OW89416  11.088  11.460   4.359
95840SOL    HW189417  11.073  11.447   4.265
95840SOL    HW289418  11.058  11.549   4.376
95841SOL     OW89419  12.666   0.257   0.329
95841SOL    HW189420  12.601   0.197   0.294
95841SOL    HW289421  12.663   0.334   0.272
95842SOL     OW89422  11.595  12.805   9.259
95842SOL    HW189423  11.633  12.748   9.192
95842SOL    HW289424  11.500  12.796   9.247
95843SOL     OW89425  10.622   2.556   3.649
95843SOL    HW189426  10.531   2.583   3.642
95843SOL    HW289427  10.648   2.581   3.737
95844SOL     OW89428   8.993   3.664  14.486
95844SOL    HW189429   9.083   3.680  14.513
95844SOL    HW289430   8.983   3.713  14.404
95845SOL     OW89431   9.455   6.030   8.493
95845SOL    HW189432   9.428   6.117   8.522
95845SOL    HW289433   9.373   5.982   8.482
95846SOL     OW89434  13.096  10.424   7.809
95846SOL    HW189435  13.089  10.518   7.796
95846SOL    HW289436  13.048  10.386   7.735
95847SOL     OW89437  11.020  13.425   3.391
95847SOL    HW189438  10.950  13.487   3.411
95847SOL    HW289439  11.004  13.398   3.301
95848SOL     OW89440  12.689   8.931  10.971
95848SOL    HW189441  12.658   8.937  11.061
95848SOL    HW289442  12.727   8.843  10.965
95849SOL     OW89443   1.745   7.295   0.878
95849SOL    HW189444   1.753   7.202   0.899
95849SOL    HW289445   1.833   7.322   0.853
95850SOL     OW89446  11.281   2.870   3.923
95850SOL    HW189447  11.334   2.800   3.885
95850SOL    HW289448  11.194   2.858   3.885
95851SOL     OW89449  13.899   6.886   5.596
95851SOL    HW189450  13.952   6.822   5.645
95851SOL    HW289451  13.961   6.955   5.573
95852SOL     OW89452   0.030  14.015   0.945
95852SOL    HW189453   0.113  13.987   0.983
95852SOL    HW289454  14.844  14.009   1.016
95853SOL     OW89455  11.580  13.395   9.007
95853SOL    HW189456  11.628  13.444   8.940
95853SOL    HW289457  11.620  13.308   9.006
95854SOL     OW89458  10.862   0.395   9.287
95854SOL    HW189459  10.864   0.485   9.319
95854SOL    HW289460  10.883   0.342   9.365
95855SOL     OW89461   2.997  12.240   3.019
95855SOL    HW189462   2.960  12.294   3.090
95855SOL    HW289463   3.034  12.164   3.064
95856SOL     OW89464   6.782   8.584   8.008
95856SOL    HW189465   6.786   8.656   8.070
95856SOL    HW289466   6.857   8.597   7.950
95857SOL     OW89467  10.205   8.942  14.247
95857SOL    HW189468  10.116   8.936  14.280
95857SOL    HW289469  10.210   8.875  14.178
95858SOL     OW89470   6.304   7.817   5.668
95858SOL    HW189471   6.370   7.757   5.631
95858SOL    HW289472   6.317   7.811   5.762
95859SOL     OW89473  14.546  10.883   2.862
95859SOL    HW189474  14.511  10.964   2.826
95859SOL    HW289475  14.493  10.814   2.822
95860SOL     OW89476   1.300  11.604   3.864
95860SOL    HW189477   1.220  11.637   3.824
95860SOL    HW289478   1.274  11.582   3.954
95861SOL     OW89479  12.070  10.094   2.512
95861SOL    HW189480  12.038  10.034   2.445
95861SOL    HW289481  11.992  10.122   2.559
95862SOL     OW89482  14.678  10.672  14.597
95862SOL    HW189483  14.665  10.603  14.663
95862SOL    HW289484  14.609  10.735  14.614
95863SOL     OW89485   7.332  13.567   0.452
95863SOL    HW189486   7.300  13.569   0.541
95863SOL    HW289487   7.255  13.581   0.397
95864SOL     OW89488  13.692   8.066  10.202
95864SOL    HW189489  13.698   7.986  10.253
95864SOL    HW289490  13.609   8.058  10.154
95865SOL     OW89491  12.670   5.663   9.669
95865SOL    HW189492  12.658   5.728   9.738
95865SOL    HW289493  12.657   5.579   9.713
95866SOL     OW89494   6.677   2.576   1.435
95866SOL    HW189495   6.647   2.642   1.497
95866SOL    HW289496   6.694   2.498   1.489
95867SOL     OW89497   4.209   3.378   8.854
95867SOL    HW189498   4.235   3.456   8.804
95867SOL    HW289499   4.160   3.412   8.928
95868SOL     OW89500   2.381   0.787  12.062
95868SOL    HW189501   2.435   0.808  11.986
95868SOL    HW289502   2.436   0.729  12.115
95869SOL     OW89503  12.880   0.882  11.126
95869SOL    HW189504  12.891   0.836  11.209
95869SOL    HW289505  12.840   0.966  11.150
95870SOL     OW89506   0.745   5.719   2.861
95870SOL    HW189507   0.765   5.751   2.774
95870SOL    HW289508   0.684   5.646   2.846
95871SOL     OW89509  10.315   6.083   6.747
95871SOL    HW189510  10.306   6.014   6.813
95871SOL    HW289511  10.360   6.041   6.674
95872SOL     OW89512   6.121   8.138   3.308
95872SOL    HW189513   6.207   8.106   3.336
95872SOL    HW289514   6.090   8.192   3.381
95873SOL     OW89515   4.092   3.901   6.935
95873SOL    HW189516   4.153   3.971   6.913
95873SOL    HW289517   4.146   3.822   6.939
95874SOL     OW89518   4.088   2.910   3.163
95874SOL    HW189519   4.027   2.965   3.213
95874SOL    HW289520   4.117   2.966   3.091
95875SOL     OW89521   9.677  11.504  13.159
95875SOL    HW189522   9.643  11.577  13.210
95875SOL    HW289523   9.738  11.544  13.097
95876SOL     OW89524  11.558   9.955   5.570
95876SOL    HW189525  11.619   9.950   5.643
95876SOL    HW289526  11.539  10.048   5.560
95877SOL     OW89527   9.877  12.372   4.217
95877SOL    HW189528   9.841  12.459   4.233
95877SOL    HW289529   9.801  12.320   4.190
95878SOL     OW89530   8.915   1.627   0.815
95878SOL    HW189531   8.977   1.616   0.887
95878SOL    HW289532   8.966   1.611   0.736
95879SOL     OW89533   9.082  11.085   2.919
95879SOL    HW189534   9.158  11.078   2.978
95879SOL    HW289535   9.017  11.133   2.970
95880SOL     OW89536  14.791   0.534   6.938
95880SOL    HW189537  14.817   0.524   6.846
95880SOL    HW289538  14.851   0.600   6.972
95881SOL     OW89539   8.298  14.571  11.278
95881SOL    HW189540   8.249  14.489  11.265
95881SOL    HW289541   8.372  14.546  11.333
95882SOL     OW89542   4.223  12.891  12.634
95882SOL    HW189543   4.184  12.974  12.605
95882SOL    HW289544   4.279  12.865  12.561
95883SOL     OW89545   1.017   9.768   6.599
95883SOL    HW189546   1.030   9.863   6.591
95883SOL    HW289547   0.922   9.756   6.596
95884SOL     OW89548   4.935  13.369  11.614
95884SOL    HW189549   5.015  13.385  11.663
95884SOL    HW289550   4.966  13.339  11.528
95885SOL     OW89551   1.367   1.288   2.093
95885SOL    HW189552   1.353   1.284   2.188
95885SOL    HW289553   1.347   1.200   2.062
95886SOL     OW89554  10.920  10.353  14.515
95886SOL    HW189555  10.972  10.343  14.435
95886SOL    HW289556  10.977  10.322  14.585
95887SOL     OW89557   1.639   5.806   7.776
95887SOL    HW189558   1.595   5.724   7.754
95887SOL    HW289559   1.569   5.861   7.812
95888SOL     OW89560  14.252   9.730   2.084
95888SOL    HW189561  14.197   9.664   2.041
95888SOL    HW289562  14.215   9.814   2.056
95889SOL     OW89563   2.343   6.288  12.053
95889SOL    HW189564   2.282   6.218  12.073
95889SOL    HW289565   2.425   6.243  12.031
95890SOL     OW89566   3.202   0.264  11.169
95890SOL    HW189567   3.149   0.343  11.165
95890SOL    HW289568   3.272   0.285  11.230
95891SOL     OW89569  12.817   1.162  11.126
95891SOL    HW189570  12.864   1.164  11.042
95891SOL    HW289571  12.752   1.232  11.118
95892SOL     OW89572   6.812   0.927   7.809
95892SOL    HW189573   6.811   0.867   7.884
95892SOL    HW289574   6.830   0.871   7.734
95893SOL     OW89575   3.032   5.118   6.202
95893SOL    HW189576   3.026   5.108   6.107
95893SOL    HW289577   2.945   5.148   6.228
95894SOL     OW89578   1.369  14.400  12.613
95894SOL    HW189579   1.284  14.412  12.657
95894SOL    HW289580   1.387  14.306  12.622
95895SOL     OW89581  11.033  10.550   8.909
95895SOL    HW189582  11.109  10.583   8.955
95895SOL    HW289583  10.975  10.517   8.978
95896SOL     OW89584   6.952   2.868   3.014
95896SOL    HW189585   6.907   2.835   3.092
95896SOL    HW289586   7.044   2.848   3.029
95897SOL     OW89587   6.535  11.609   3.968
95897SOL    HW189588   6.543  11.595   3.874
95897SOL    HW289589   6.607  11.560   4.007
95898SOL     OW89590  13.521   8.817   6.798
95898SOL    HW189591  13.437   8.780   6.771
95898SOL    HW289592  13.578   8.741   6.812
95899SOL     OW89593  12.893  11.557   8.874
95899SOL    HW189594  12.897  11.561   8.778
95899SOL    HW289595  12.941  11.635   8.903
95900SOL     OW89596   6.861  11.038   5.871
95900SOL    HW189597   6.784  11.075   5.914
95900SOL    HW289598   6.917  11.010   5.943
95901SOL     OW89599  13.038   0.870   1.079
95901SOL    HW189600  13.100   0.873   1.152
95901SOL    HW289601  13.081   0.918   1.009
95902SOL     OW89602   1.487  12.650  13.193
95902SOL    HW189603   1.550  12.685  13.130
95902SOL    HW289604   1.432  12.725  13.217
95903SOL     OW89605   3.306   5.304   1.431
95903SOL    HW189606   3.316   5.251   1.352
95903SOL    HW289607   3.392   5.301   1.473
95904SOL     OW89608   7.136  14.583   6.063
95904SOL    HW189609   7.092  14.562   6.146
95904SOL    HW289610   7.220  14.537   6.068
95905SOL     OW89611   7.425  11.397   2.851
95905SOL    HW189612   7.458  11.422   2.938
95905SOL    HW289613   7.337  11.362   2.869
95906SOL     OW89614  14.525  12.360   4.999
95906SOL    HW189615  14.554  12.365   5.090
95906SOL    HW289616  14.589  12.413   4.951
95907SOL     OW89617   3.044   8.291   1.534
95907SOL    HW189618   3.030   8.337   1.616
95907SOL    HW289619   3.122   8.332   1.496
95908SOL     OW89620   8.491  13.749   3.970
95908SOL    HW189621   8.505  13.809   4.043
95908SOL    HW289622   8.518  13.663   4.004
95909SOL     OW89623   9.445  13.162   5.112
95909SOL    HW189624   9.520  13.212   5.143
95909SOL    HW289625   9.469  13.070   5.129
95910SOL     OW89626   0.743   4.023   2.562
95910SOL    HW189627   0.707   3.987   2.481
95910SOL    HW289628   0.667   4.039   2.618
95911SOL     OW89629   1.407   2.771  12.082
95911SOL    HW189630   1.398   2.856  12.123
95911SOL    HW289631   1.473   2.726  12.134
95912SOL     OW89632  13.184   1.288   0.203
95912SOL    HW189633  13.152   1.243   0.281
95912SOL    HW289634  13.206   1.218   0.142
95913SOL     OW89635   6.659   8.781   6.713
95913SOL    HW189636   6.736   8.835   6.692
95913SOL    HW289637   6.589   8.819   6.660
95914SOL     OW89638   8.559   2.472  12.395
95914SOL    HW189639   8.586   2.448  12.306
95914SOL    HW289640   8.475   2.429  12.407
95915SOL     OW89641   9.929   0.046   9.645
95915SOL    HW189642   9.969   0.129   9.620
95915SOL    HW289643   9.902   0.058   9.736
95916SOL     OW89644   9.158   9.094   3.956
95916SOL    HW189645   9.171   9.119   4.047
95916SOL    HW289646   9.210   9.156   3.906
95917SOL     OW89647  13.105   3.171  11.402
95917SOL    HW189648  13.125   3.263  11.416
95917SOL    HW289649  13.191   3.128  11.397
95918SOL     OW89650   4.503  14.403  13.752
95918SOL    HW189651   4.432  14.339  13.757
95918SOL    HW289652   4.534  14.412  13.842
95919SOL     OW89653   1.888  14.731  14.375
95919SOL    HW189654   1.980  14.754  14.387
95919SOL    HW289655   1.879  14.645  14.416
95920SOL     OW89656   8.804   5.090  13.757
95920SOL    HW189657   8.758   5.029  13.700
95920SOL    HW289658   8.742   5.110  13.827
95921SOL     OW89659   4.824   5.212   3.226
95921SOL    HW189660   4.896   5.150   3.233
95921SOL    HW289661   4.752   5.171   3.274
95922SOL     OW89662   7.892   0.177   1.682
95922SOL    HW189663   7.972   0.133   1.713
95922SOL    HW289664   7.842   0.108   1.639
95923SOL     OW89665   2.140   2.889   8.840
95923SOL    HW189666   2.085   2.856   8.769
95923SOL    HW289667   2.089   2.872   8.919
95924SOL     OW89668   7.981   5.833  12.676
95924SOL    HW189669   7.927   5.853  12.600
95924SOL    HW289670   7.929   5.772  12.728
95925SOL     OW89671  14.698  13.614   3.503
95925SOL    HW189672  14.793  13.625   3.503
95925SOL    HW289673  14.683  13.523   3.478
95926SOL     OW89674   8.360   4.739   1.514
95926SOL    HW189675   8.267   4.727   1.533
95926SOL    HW289676   8.379   4.678   1.443
95927SOL     OW89677  10.994  10.660  14.196
95927SOL    HW189678  11.039  10.585  14.235
95927SOL    HW289679  11.021  10.735  14.249
95928SOL     OW89680   9.183   2.472  11.687
95928SOL    HW189681   9.167   2.558  11.647
95928SOL    HW289682   9.098   2.446  11.723
95929SOL     OW89683   3.600   0.470  14.388
95929SOL    HW189684   3.551   0.475  14.471
95929SOL    HW289685   3.533   0.472  14.320
95930SOL     OW89686   6.462  13.318   7.922
95930SOL    HW189687   6.404  13.304   7.848
95930SOL    HW289688   6.496  13.231   7.943
95931SOL     OW89689   0.607  11.195   7.180
95931SOL    HW189690   0.647  11.170   7.096
95931SOL    HW289691   0.680  11.226   7.233
95932SOL     OW89692   7.838   9.509  13.420
95932SOL    HW189693   7.784   9.585  13.440
95932SOL    HW289694   7.777   9.444  13.386
95933SOL     OW89695   2.778   9.913   5.270
95933SOL    HW189696   2.838   9.987   5.265
95933SOL    HW289697   2.815   9.855   5.337
95934SOL     OW89698   1.763   3.096   2.495
95934SOL    HW189699   1.701   3.050   2.552
95934SOL    HW289700   1.824   3.028   2.466
95935SOL     OW89701  13.972  11.806   2.546
95935SOL    HW189702  13.997  11.716   2.569
95935SOL    HW289703  13.886  11.817   2.587
95936SOL     OW89704  14.326  14.633  12.290
95936SOL    HW189705  14.326  14.668  12.201
95936SOL    HW289706  14.262  14.562  12.289
95937SOL     OW89707   4.896   9.978   5.704
95937SOL    HW189708   4.832   9.997   5.771
95937SOL    HW289709   4.851   9.921   5.642
95938SOL     OW89710   6.643   7.084   0.878
95938SOL    HW189711   6.624   6.990   0.874
95938SOL    HW289712   6.712   7.097   0.813
95939SOL     OW89713  14.382  10.905  11.180
95939SOL    HW189714  14.424  10.972  11.233
95939SOL    HW289715  14.309  10.874  11.234
95940SOL     OW89716   7.527  12.408  13.347
95940SOL    HW189717   7.580  12.413  13.267
95940SOL    HW289718   7.445  12.367  13.318
95941SOL     OW89719   0.854   4.175   0.114
95941SOL    HW189720   0.801   4.102   0.082
95941SOL    HW289721   0.891   4.143   0.197
95942SOL     OW89722   8.995   8.963  13.940
95942SOL    HW189723   8.930   8.898  13.912
95942SOL    HW289724   9.061   8.962  13.871
95943SOL     OW89725   2.713   8.463  14.789
95943SOL    HW189726   2.670   8.378  14.797
95943SOL    HW289727   2.735   8.470  14.696
95944SOL     OW89728  11.638   9.211   0.308
95944SOL    HW189729  11.595   9.139   0.355
95944SOL    HW289730  11.689   9.168   0.240
95945SOL     OW89731   2.603   8.008   6.645
95945SOL    HW189732   2.636   7.944   6.707
95945SOL    HW289733   2.638   7.980   6.560
95946SOL     OW89734  14.424  14.707   5.394
95946SOL    HW189735  14.444  14.782   5.340
95946SOL    HW289736  14.423  14.633   5.333
95947SOL     OW89737   9.033  14.440   2.407
95947SOL    HW189738   9.025  14.534   2.391
95947SOL    HW289739   9.100  14.410   2.346
95948SOL     OW89740   0.836   2.288  10.356
95948SOL    HW189741   0.829   2.320  10.446
95948SOL    HW289742   0.834   2.193  10.363
95949SOL     OW89743   1.427  11.059   2.373
95949SOL    HW189744   1.508  11.009   2.383
95949SOL    HW289745   1.436  11.131   2.435
95950SOL     OW89746   9.762  14.066   8.607
95950SOL    HW189747   9.846  14.074   8.563
95950SOL    HW289748   9.708  14.134   8.567
95951SOL     OW89749  13.215   7.841   1.116
95951SOL    HW189750  13.254   7.894   1.185
95951SOL    HW289751  13.121   7.838   1.137
95952SOL     OW89752   3.204   0.590   1.412
95952SOL    HW189753   3.196   0.494   1.408
95952SOL    HW289754   3.263   0.606   1.486
95953SOL     OW89755  12.104   0.299   2.898
95953SOL    HW189756  12.090   0.221   2.844
95953SOL    HW289757  12.196   0.294   2.924
95954SOL     OW89758  12.566  14.438  10.269
95954SOL    HW189759  12.654  14.403  10.258
95954SOL    HW289760  12.515  14.396  10.200
95955SOL     OW89761  11.758   6.409   0.120
95955SOL    HW189762  11.721   6.471   0.183
95955SOL    HW289763  11.846   6.392   0.153
95956SOL     OW89764   5.335   0.504   9.164
95956SOL    HW189765   5.240   0.509   9.177
95956SOL    HW289766   5.346   0.436   9.097
95957SOL     OW89767  11.859   6.541   6.290
95957SOL    HW189768  11.871   6.473   6.356
95957SOL    HW289769  11.791   6.507   6.232
95958SOL     OW89770  11.257  12.737  12.882
95958SOL    HW189771  11.291  12.818  12.922
95958SOL    HW289772  11.309  12.667  12.921
95959SOL     OW89773  13.384   0.379   1.719
95959SOL    HW189774  13.318   0.309   1.715
95959SOL    HW289775  13.403   0.399   1.627
95960SOL     OW89776  11.104  10.729   5.198
95960SOL    HW189777  11.094  10.731   5.103
95960SOL    HW289778  11.065  10.647   5.226
95961SOL     OW89779   8.113   3.695   5.996
95961SOL    HW189780   8.075   3.709   5.909
95961SOL    HW289781   8.125   3.784   6.031
95962SOL     OW89782   7.178  11.247   2.725
95962SOL    HW189783   7.118  11.238   2.651
95962SOL    HW289784   7.263  11.221   2.690
95963SOL     OW89785   4.003  13.601   5.209
95963SOL    HW189786   4.019  13.676   5.151
95963SOL    HW289787   4.073  13.605   5.274
95964SOL     OW89788   6.681   9.843   6.034
95964SOL    HW189789   6.663   9.851   5.941
95964SOL    HW289790   6.638   9.919   6.074
95965SOL     OW89791  13.983  12.702   0.908
95965SOL    HW189792  13.903  12.749   0.932
95965SOL    HW289793  14.029  12.762   0.849
95966SOL     OW89794  13.245   1.656  13.886
95966SOL    HW189795  13.316   1.716  13.865
95966SOL    HW289796  13.220   1.618  13.802
95967SOL     OW89797  13.646   1.830   4.399
95967SOL    HW189798  13.590   1.879   4.458
95967SOL    HW289799  13.708   1.785   4.456
95968SOL     OW89800   1.892   2.013   2.447
95968SOL    HW189801   1.978   1.978   2.424
95968SOL    HW289802   1.841   1.937   2.475
95969SOL     OW89803  11.995  13.737  14.129
95969SOL    HW189804  12.033  13.784  14.203
95969SOL    HW289805  12.026  13.784  14.052
95970SOL     OW89806   9.759   8.143   5.992
95970SOL    HW189807   9.739   8.098   6.074
95970SOL    HW289808   9.832   8.202   6.014
95971SOL     OW89809   2.799  11.598   2.681
95971SOL    HW189810   2.838  11.593   2.594
95971SOL    HW289811   2.706  11.616   2.665
95972SOL     OW89812  12.195   7.356   7.329
95972SOL    HW189813  12.180   7.346   7.235
95972SOL    HW289814  12.208   7.450   7.341
95973SOL     OW89815  10.043  14.770   4.694
95973SOL    HW189816  10.063  14.730   4.610
95973SOL    HW289817   9.955  14.739   4.716
95974SOL     OW89818   7.059   6.912   6.004
95974SOL    HW189819   7.142   6.955   6.023
95974SOL    HW289820   7.067   6.825   6.044
95975SOL     OW89821   9.575   1.905   1.220
95975SOL    HW189822   9.600   1.845   1.289
95975SOL    HW289823   9.568   1.850   1.142
95976SOL     OW89824   8.650   3.883   6.211
95976SOL    HW189825   8.744   3.884   6.223
95976SOL    HW289826   8.635   3.928   6.128
95977SOL     OW89827   8.729   3.632   3.229
95977SOL    HW189828   8.803   3.642   3.289
95977SOL    HW289829   8.653   3.623   3.286
95978SOL     OW89830  12.157   6.439   7.563
95978SOL    HW189831  12.123   6.444   7.474
95978SOL    HW289832  12.078   6.436   7.618
95979SOL     OW89833   9.292   8.743   9.758
95979SOL    HW189834   9.356   8.728   9.828
95979SOL    HW289835   9.345   8.759   9.680
95980SOL     OW89836   3.825   2.366   9.302
95980SOL    HW189837   3.872   2.414   9.234
95980SOL    HW289838   3.826   2.424   9.378
95981SOL     OW89839   3.813   7.518  13.132
95981SOL    HW189840   3.818   7.610  13.160
95981SOL    HW289841   3.860   7.516  13.049
95982SOL     OW89842  13.912   4.323   4.668
95982SOL    HW189843  13.865   4.407   4.671
95982SOL    HW289844  13.856   4.266   4.615
95983SOL     OW89845   4.744  13.197   2.748
95983SOL    HW189846   4.682  13.251   2.797
95983SOL    HW289847   4.703  13.110   2.745
95984SOL     OW89848  10.382   1.480   5.701
95984SOL    HW189849  10.436   1.547   5.742
95984SOL    HW289850  10.297   1.521   5.689
95985SOL     OW89851   7.807   1.242   2.114
95985SOL    HW189852   7.897   1.212   2.114
95985SOL    HW289853   7.780   1.237   2.022
95986SOL     OW89854   1.486   8.439   9.418
95986SOL    HW189855   1.394   8.458   9.404
95986SOL    HW289856   1.530   8.523   9.406
95987SOL     OW89857   0.240   3.102   3.828
95987SOL    HW189858   0.154   3.145   3.825
95987SOL    HW289859   0.251   3.065   3.741
95988SOL     OW89860   1.302   2.995   6.486
95988SOL    HW189861   1.386   2.975   6.443
95988SOL    HW289862   1.243   3.018   6.414
95989SOL     OW89863   7.586   8.563   9.694
95989SOL    HW189864   7.605   8.608   9.611
95989SOL    HW289865   7.567   8.633   9.756
95990SOL     OW89866   3.544   1.870  14.548
95990SOL    HW189867   3.574   1.921  14.623
95990SOL    HW289868   3.456   1.842  14.571
95991SOL     OW89869   2.245   4.101   1.074
95991SOL    HW189870   2.221   4.108   1.166
95991SOL    HW289871   2.287   4.185   1.054
95992SOL     OW89872   6.699  11.169  11.617
95992SOL    HW189873   6.780  11.150  11.569
95992SOL    HW289874   6.680  11.260  11.597
95993SOL     OW89875  10.541   3.150  14.580
95993SOL    HW189876  10.579   3.233  14.608
95993SOL    HW289877  10.519   3.163  14.488
95994SOL     OW89878  14.588   0.235   8.611
95994SOL    HW189879  14.498   0.223   8.643
95994SOL    HW289880  14.640   0.173   8.661
95995SOL     OW89881   0.735  13.332   9.666
95995SOL    HW189882   0.787  13.410   9.685
95995SOL    HW289883   0.797  13.260   9.665
95996SOL     OW89884   5.241   4.299  11.552
95996SOL    HW189885   5.260   4.353  11.629
95996SOL    HW289886   5.204   4.361  11.489
95997SOL     OW89887   8.075   9.906   8.091
95997SOL    HW189888   8.000   9.963   8.076
95997SOL    HW289889   8.119   9.945   8.167
95998SOL     OW89890   8.736  11.772   5.893
95998SOL    HW189891   8.740  11.861   5.856
95998SOL    HW289892   8.648  11.767   5.931
95999SOL     OW89893  12.641  14.085   5.168
95999SOL    HW189894  12.599  14.008   5.206
95999SOL    HW289895  12.632  14.072   5.073
96000SOL     OW89896  13.767  11.343   6.234
96000SOL    HW189897  13.861  11.326   6.239
96000SOL    HW289898  13.756  11.400   6.158
96001SOL     OW89899   3.628   6.618  13.728
96001SOL    HW189900   3.662   6.654  13.810
96001SOL    HW289901   3.656   6.526  13.730
96002SOL     OW89902   5.857   7.398  13.529
96002SOL    HW189903   5.777   7.354  13.557
96002SOL    HW289904   5.851   7.486  13.569
96003SOL     OW89905   4.865   6.572   6.426
96003SOL    HW189906   4.868   6.633   6.500
96003SOL    HW289907   4.863   6.628   6.348
96004SOL     OW89908   5.689   8.246   7.400
96004SOL    HW189909   5.727   8.235   7.488
96004SOL    HW289910   5.735   8.321   7.364
96005SOL     OW89911   7.450  14.483  13.305
96005SOL    HW189912   7.527  14.428  13.290
96005SOL    HW289913   7.477  14.570  13.278
96006SOL     OW89914   9.995   9.467  12.095
96006SOL    HW189915  10.050   9.528  12.046
96006SOL    HW289916  10.057   9.418  12.150
96007SOL     OW89917   9.252   4.575  13.557
96007SOL    HW189918   9.203   4.644  13.602
96007SOL    HW289919   9.207   4.563  13.474
96008SOL     OW89920  14.042   2.641   0.308
96008SOL    HW189921  13.974   2.627   0.374
96008SOL    HW289922  14.005   2.707   0.249
96009SOL     OW89923   2.746   1.725  12.884
96009SOL    HW189924   2.840   1.727  12.867
96009SOL    HW289925   2.712   1.801  12.837
96010SOL     OW89926   8.582   0.173   1.208
96010SOL    HW189927   8.669   0.147   1.180
96010SOL    HW289928   8.525   0.103   1.174
96011SOL     OW89929   4.045  10.033   1.043
96011SOL    HW189930   4.072  10.109   0.991
96011SOL    HW289931   4.026   9.965   0.978
96012SOL     OW89932  14.299   7.392  14.819
96012SOL    HW189933  14.260   7.453  14.757
96012SOL    HW289934  14.363   7.445  14.867
96013SOL     OW89935   9.607   6.363   4.909
96013SOL    HW189936   9.652   6.415   4.843
96013SOL    HW289937   9.586   6.425   4.979
96014SOL     OW89938  12.022  11.497  13.367
96014SOL    HW189939  11.950  11.560  13.369
96014SOL    HW289940  12.029  11.471  13.276
96015SOL     OW89941   4.852   0.432  13.877
96015SOL    HW189942   4.810   0.415  13.961
96015SOL    HW289943   4.945   0.415  13.892
96016SOL     OW89944  12.150   0.812   6.439
96016SOL    HW189945  12.058   0.789   6.423
96016SOL    HW289946  12.148   0.904   6.463
96017SOL     OW89947  10.587   7.880   9.063
96017SOL    HW189948  10.587   7.912   8.973
96017SOL    HW289949  10.608   7.787   9.055
96018SOL     OW89950   4.437   4.485  10.984
96018SOL    HW189951   4.485   4.514  11.062
96018SOL    HW289952   4.498   4.495  10.912
96019SOL     OW89953   5.726   7.364   0.743
96019SOL    HW189954   5.725   7.382   0.837
96019SOL    HW289955   5.787   7.429   0.708
96020SOL     OW89956  10.737  11.119  14.694
96020SOL    HW189957  10.801  11.048  14.679
96020SOL    HW289958  10.732  11.127  14.789
96021SOL     OW89959   3.572   8.591   5.622
96021SOL    HW189960   3.606   8.681   5.626
96021SOL    HW289961   3.528   8.586   5.538
96022SOL     OW89962   5.081   5.495   3.253
96022SOL    HW189963   5.124   5.409   3.260
96022SOL    HW289964   5.113   5.544   3.329
96023SOL     OW89965   5.838   9.241  10.205
96023SOL    HW189966   5.894   9.240  10.283
96023SOL    HW289967   5.839   9.333  10.176
96024SOL     OW89968  13.479   9.279  12.063
96024SOL    HW189969  13.451   9.289  12.153
96024SOL    HW289970  13.479   9.368  12.028
96025SOL     OW89971   8.923   9.417  10.786
96025SOL    HW189972   8.838   9.440  10.747
96025SOL    HW289973   8.973   9.381  10.713
96026SOL     OW89974   2.712   7.134  11.858
96026SOL    HW189975   2.642   7.107  11.917
96026SOL    HW289976   2.671   7.133  11.771
96027SOL     OW89977  13.300   7.378  14.838
96027SOL    HW189978  13.340   7.448  14.784
96027SOL    HW289979  13.265   7.317  14.774
96028SOL     OW89980  13.407   5.623   9.053
96028SOL    HW189981  13.330   5.665   9.092
96028SOL    HW289982  13.379   5.533   9.036
96029SOL     OW89983   5.190   9.642   7.977
96029SOL    HW189984   5.246   9.594   8.038
96029SOL    HW289985   5.209   9.734   7.995
96030SOL     OW89986  12.551  10.631   5.307
96030SOL    HW189987  12.491  10.648   5.235
96030SOL    HW289988  12.503  10.572   5.365
96031SOL     OW89989   6.393   5.873   2.350
96031SOL    HW189990   6.389   5.944   2.413
96031SOL    HW289991   6.329   5.809   2.381
96032SOL     OW89992   4.065  12.082  11.625
96032SOL    HW189993   4.010  12.154  11.655
96032SOL    HW289994   4.138  12.081  11.687
96033SOL     OW89995   9.984   6.517   8.011
96033SOL    HW189996   9.959   6.436   8.057
96033SOL    HW289997  10.063   6.493   7.963
96034SOL     OW89998   0.705   2.616   2.051
96034SOL    HW189999   0.747   2.674   1.987
96034SOL    HW290000   0.774   2.598   2.115
96035SOL     OW90001   0.798   8.997   8.516
96035SOL    HW190002   0.889   8.966   8.522
96035SOL    HW290003   0.785   9.014   8.423
96036SOL     OW90004   3.833  12.179   3.011
96036SOL    HW190005   3.896  12.148   3.075
96036SOL    HW290006   3.806  12.265   3.043
96037SOL     OW90007  12.431  13.466   6.346
96037SOL    HW190008  12.435  13.394   6.284
96037SOL    HW290009  12.407  13.542   6.294
96038SOL     OW90010   8.639   4.998   2.281
96038SOL    HW190011   8.636   5.090   2.253
96038SOL    HW290012   8.565   4.957   2.237
96039SOL     OW90013   3.459   2.883   3.964
96039SOL    HW190014   3.455   2.976   3.986
96039SOL    HW290015   3.514   2.844   4.033
96040SOL     OW90016  10.615   7.572  10.044
96040SOL    HW190017  10.547   7.536   9.986
96040SOL    HW290018  10.572   7.580  10.129
96041SOL     OW90019   7.094   9.725   0.807
96041SOL    HW190020   7.024   9.682   0.856
96041SOL    HW290021   7.122   9.798   0.863
96042SOL     OW90022  13.501  13.088  12.149
96042SOL    HW190023  13.557  13.114  12.076
96042SOL    HW290024  13.527  13.144  12.221
96043SOL     OW90025  11.437   3.771   2.848
96043SOL    HW190026  11.533   3.771   2.850
96043SOL    HW290027  11.411   3.719   2.923
96044SOL     OW90028   7.859   0.255   7.264
96044SOL    HW190029   7.772   0.294   7.252
96044SOL    HW290030   7.846   0.162   7.244
96045SOL     OW90031  13.870  11.587   4.515
96045SOL    HW190032  13.803  11.522   4.538
96045SOL    HW290033  13.834  11.670   4.546
96046SOL     OW90034  10.847  13.973  12.538
96046SOL    HW190035  10.754  13.961  12.517
96046SOL    HW290036  10.849  13.985  12.633
96047SOL     OW90037  12.946   6.196  14.480
96047SOL    HW190038  12.898   6.175  14.560
96047SOL    HW290039  12.878   6.212  14.414
96048SOL     OW90040   6.575   1.462   3.927
96048SOL    HW190041   6.602   1.504   4.009
96048SOL    HW290042   6.481   1.446   3.938
96049SOL     OW90043  11.403  14.707   4.511
96049SOL    HW190044  11.388  14.795   4.545
96049SOL    HW290045  11.465  14.668   4.573
96050SOL     OW90046  14.772   8.810   2.012
96050SOL    HW190047  14.698   8.847   2.059
96050SOL    HW290048  14.755   8.716   2.012
96051SOL     OW90049   6.284  13.711   2.888
96051SOL    HW190050   6.262  13.796   2.851
96051SOL    HW290051   6.329  13.732   2.970
96052SOL     OW90052  14.700  11.047  13.572
96052SOL    HW190053  14.608  11.056  13.594
96052SOL    HW290054  14.747  11.095  13.641
96053SOL     OW90055   0.337  14.525  10.365
96053SOL    HW190056   0.352  14.470  10.442
96053SOL    HW290057   0.407  14.500  10.305
96054SOL     OW90058   5.204   6.587   6.529
96054SOL    HW190059   5.160   6.671   6.513
96054SOL    HW290060   5.219   6.584   6.623
96055SOL     OW90061   4.839   0.975   2.501
96055SOL    HW190062   4.753   0.935   2.488
96055SOL    HW290063   4.854   0.970   2.596
96056SOL     OW90064   9.398   7.554  12.132
96056SOL    HW190065   9.434   7.580  12.047
96056SOL    HW290066   9.304   7.547  12.117
96057SOL     OW90067   3.782   2.561   5.089
96057SOL    HW190068   3.693   2.551   5.056
96057SOL    HW290069   3.809   2.472   5.112
96058SOL     OW90070  12.962  10.892   3.427
96058SOL    HW190071  12.990  10.871   3.338
96058SOL    HW290072  12.870  10.864   3.429
96059SOL     OW90073  14.645  10.909   6.917
96059SOL    HW190074  14.674  10.884   6.829
96059SOL    HW290075  14.594  10.834   6.948
96060SOL     OW90076   2.821   0.972   1.286
96060SOL    HW190077   2.825   0.941   1.377
96060SOL    HW290078   2.875   0.910   1.237
96061SOL     OW90079  10.219   7.626   6.091
96061SOL    HW190080  10.205   7.603   5.999
96061SOL    HW290081  10.148   7.583   6.138
96062SOL     OW90082  13.297   3.654   3.044
96062SOL    HW190083  13.221   3.608   3.081
96062SOL    HW290084  13.270   3.746   3.040
96063SOL     OW90085   5.609   2.266  14.118
96063SOL    HW190086   5.563   2.234  14.041
96063SOL    HW290087   5.565   2.347  14.142
96064SOL     OW90088   7.116   3.123   5.609
96064SOL    HW190089   7.040   3.080   5.569
96064SOL    HW290090   7.178   3.051   5.626
96065SOL     OW90091   7.378  14.539  12.025
96065SOL    HW190092   7.325  14.619  12.026
96065SOL    HW290093   7.314  14.468  12.015
96066SOL     OW90094   3.989   9.340   6.022
96066SOL    HW190095   4.025   9.285   6.091
96066SOL    HW290096   4.008   9.430   6.051
96067SOL     OW90097   0.336  13.334   0.217
96067SOL    HW190098   0.431  13.345   0.208
96067SOL    HW290099   0.309  13.407   0.273
96068SOL     OW90100   2.990   7.058  11.489
96068SOL    HW190101   2.938   7.134  11.516
96068SOL    HW290102   3.038   7.087  11.412
96069SOL     OW90103   2.922   2.963  10.338
96069SOL    HW190104   2.952   3.024  10.406
96069SOL    HW290105   2.948   2.877  10.371
96070SOL     OW90106   9.569   3.087  12.412
96070SOL    HW190107   9.624   3.160  12.440
96070SOL    HW290108   9.590   3.016  12.474
96071SOL     OW90109   5.280   8.228   5.849
96071SOL    HW190110   5.216   8.254   5.783
96071SOL    HW290111   5.324   8.152   5.810
96072SOL     OW90112   2.045   6.751  13.313
96072SOL    HW190113   1.969   6.695  13.334
96072SOL    HW290114   2.097   6.751  13.393
96073SOL     OW90115   4.171   0.934   2.194
96073SOL    HW190116   4.163   0.925   2.288
96073SOL    HW290117   4.128   0.856   2.158
96074SOL     OW90118   4.003   2.139   5.752
96074SOL    HW190119   4.070   2.117   5.816
96074SOL    HW290120   4.036   2.103   5.670
96075SOL     OW90121  13.495   0.411   5.773
96075SOL    HW190122  13.448   0.491   5.798
96075SOL    HW290123  13.526   0.374   5.855
96076SOL     OW90124  10.934   0.575   5.282
96076SOL    HW190125  10.896   0.662   5.294
96076SOL    HW290126  10.858   0.517   5.273
96077SOL     OW90127  13.576  10.082  13.367
96077SOL    HW190128  13.513  10.029  13.416
96077SOL    HW290129  13.661  10.058  13.404
96078SOL     OW90130   1.708  14.027   1.763
96078SOL    HW190131   1.657  14.088   1.709
96078SOL    HW290132   1.794  14.024   1.720
96079SOL     OW90133   7.121   6.891   5.190
96079SOL    HW190134   7.179   6.954   5.233
96079SOL    HW290135   7.047   6.943   5.160
96080SOL     OW90136  14.855  11.371   1.937
96080SOL    HW190137  14.818  11.337   1.856
96080SOL    HW290138  14.833  11.464   1.937
96081SOL     OW90139   2.420   6.211   8.732
96081SOL    HW190140   2.356   6.223   8.662
96081SOL    HW290141   2.367   6.194   8.810
96082SOL     OW90142   3.601   9.197   2.698
96082SOL    HW190143   3.675   9.217   2.642
96082SOL    HW290144   3.595   9.101   2.696
96083SOL     OW90145  14.504  14.090   8.648
96083SOL    HW190146  14.548  14.081   8.564
96083SOL    HW290147  14.447  14.167   8.638
96084SOL     OW90148   7.176   1.145   7.253
96084SOL    HW190149   7.123   1.065   7.260
96084SOL    HW290150   7.114   1.216   7.269
96085SOL     OW90151   2.999   5.546   9.899
96085SOL    HW190152   2.935   5.553   9.971
96085SOL    HW290153   3.011   5.637   9.870
96086SOL     OW90154  13.918   8.981  11.791
96086SOL    HW190155  13.827   8.958  11.808
96086SOL    HW290156  13.949   8.912  11.732
96087SOL     OW90157   3.825   5.307   6.897
96087SOL    HW190158   3.918   5.286   6.894
96087SOL    HW290159   3.817   5.385   6.843
96088SOL     OW90160   1.891  14.330   9.423
96088SOL    HW190161   1.833  14.266   9.381
96088SOL    HW290162   1.940  14.369   9.350
96089SOL     OW90163  12.442   4.751   1.963
96089SOL    HW190164  12.420   4.667   2.003
96089SOL    HW290165  12.413   4.816   2.027
96090SOL     OW90166  11.221   4.202   0.028
96090SOL    HW190167  11.156   4.203   0.098
96090SOL    HW290168  11.182   4.147  14.838
96091SOL     OW90169  12.618   1.498  12.184
96091SOL    HW190170  12.626   1.409  12.218
96091SOL    HW290171  12.524   1.514  12.180
96092SOL     OW90172   7.477   9.178   1.690
96092SOL    HW190173   7.490   9.264   1.649
96092SOL    HW290174   7.447   9.122   1.618
96093SOL     OW90175   7.619   1.204  11.980
96093SOL    HW190176   7.533   1.234  12.009
96093SOL    HW290177   7.603   1.159  11.897
96094SOL     OW90178   0.294   1.272   1.796
96094SOL    HW190179   0.349   1.197   1.816
96094SOL    HW290180   0.316   1.337   1.862
96095SOL     OW90181   6.593   1.130   2.107
96095SOL    HW190182   6.687   1.128   2.121
96095SOL    HW290183   6.575   1.219   2.077
96096SOL     OW90184  11.442   8.814   3.907
96096SOL    HW190185  11.536   8.817   3.922
96096SOL    HW290186  11.404   8.819   3.995
96097SOL     OW90187  14.252  12.976  13.569
96097SOL    HW190188  14.192  13.045  13.597
96097SOL    HW290189  14.273  12.929  13.649
96098SOL     OW90190   1.192   3.559   6.903
96098SOL    HW190191   1.218   3.534   6.814
96098SOL    HW290192   1.127   3.494   6.929
96099SOL     OW90193   0.381   9.388   1.924
96099SOL    HW190194   0.334   9.309   1.950
96099SOL    HW290195   0.313   9.456   1.917
96100SOL     OW90196   0.419   3.191   4.156
96100SOL    HW190197   0.384   3.198   4.067
96100SOL    HW290198   0.403   3.100   4.181
96101SOL     OW90199   6.385  13.886  11.941
96101SOL    HW190200   6.303  13.895  11.893
96101SOL    HW290201   6.415  13.798  11.919
96102SOL     OW90202   3.841  10.799  13.858
96102SOL    HW190203   3.752  10.832  13.845
96102SOL    HW290204   3.833  10.735  13.929
96103SOL     OW90205  10.614  14.461   4.225
96103SOL    HW190206  10.611  14.436   4.133
96103SOL    HW290207  10.535  14.513   4.238
96104SOL     OW90208   0.344  10.053  14.816
96104SOL    HW190209   0.294  10.082  14.740
96104SOL    HW290210   0.330  10.122   0.003
96105SOL     OW90211   1.313  12.817   3.662
96105SOL    HW190212   1.229  12.804   3.707
96105SOL    HW290213   1.371  12.852   3.729
96106SOL     OW90214  10.093  14.833  11.334
96106SOL    HW190215  10.088  14.824  11.239
96106SOL    HW290216  10.002  14.839  11.363
96107SOL     OW90217   5.140   1.950   1.104
96107SOL    HW190218   5.134   1.974   1.197
96107SOL    HW290219   5.126   1.855   1.102
96108SOL     OW90220   5.913   9.403  10.518
96108SOL    HW190221   5.955   9.336  10.464
96108SOL    HW290222   5.968   9.480  10.506
96109SOL     OW90223   8.563   9.401  10.439
96109SOL    HW190224   8.490   9.350  10.474
96109SOL    HW290225   8.609   9.432  10.517
96110SOL     OW90226   8.155   5.121   0.461
96110SOL    HW190227   8.173   5.162   0.546
96110SOL    HW290228   8.151   5.195   0.400
96111SOL     OW90229   2.851  14.765   8.360
96111SOL    HW190230   2.773  14.811   8.391
96111SOL    HW290231   2.843  14.766   8.265
96112SOL     OW90232   7.959   8.675   9.178
96112SOL    HW190233   7.939   8.630   9.096
96112SOL    HW290234   8.038   8.726   9.158
96113SOL     OW90235   3.863   8.208  11.602
96113SOL    HW190236   3.918   8.286  11.602
96113SOL    HW290237   3.915   8.141  11.557
96114SOL     OW90238   6.804  12.032   5.604
96114SOL    HW190239   6.757  11.957   5.569
96114SOL    HW290240   6.753  12.108   5.576
96115SOL     OW90241   2.391   4.443   4.364
96115SOL    HW190242   2.461   4.463   4.426
96115SOL    HW290243   2.435   4.438   4.279
96116SOL     OW90244   7.626   2.552   9.816
96116SOL    HW190245   7.568   2.627   9.802
96116SOL    HW290246   7.632   2.543   9.911
96117SOL     OW90247   9.670  13.680   5.428
96117SOL    HW190248   9.726  13.743   5.384
96117SOL    HW290249   9.581  13.703   5.402
96118SOL     OW90250   3.077   8.730   9.434
96118SOL    HW190251   3.110   8.645   9.406
96118SOL    HW290252   3.152   8.789   9.428
96119SOL     OW90253  11.470   6.222  11.221
96119SOL    HW190254  11.559   6.209  11.190
96119SOL    HW290255  11.477   6.222  11.316
96120SOL     OW90256   8.419   6.227  11.870
96120SOL    HW190257   8.419   6.321  11.854
96120SOL    HW290258   8.506   6.197  11.842
96121SOL     OW90259   3.075  14.190  14.626
96121SOL    HW190260   2.999  14.135  14.606
96121SOL    HW290261   3.117  14.205  14.541
96122SOL     OW90262  14.333   6.486  14.147
96122SOL    HW190263  14.307   6.399  14.116
96122SOL    HW290264  14.423   6.475  14.176
96123SOL     OW90265  12.360   3.667   0.974
96123SOL    HW190266  12.330   3.641   1.061
96123SOL    HW290267  12.409   3.591   0.942
96124SOL     OW90268   0.431  14.215  12.236
96124SOL    HW190269   0.344  14.249  12.212
96124SOL    HW290270   0.414  14.153  12.306
96125SOL     OW90271  13.740  11.910   0.127
96125SOL    HW190272  13.773  11.831   0.170
96125SOL    HW290273  13.729  11.885   0.036
96126SOL     OW90274  12.014   0.571  11.115
96126SOL    HW190275  12.081   0.615  11.168
96126SOL    HW290276  11.966   0.642  11.074
96127SOL     OW90277   8.641   6.810   0.330
96127SOL    HW190278   8.610   6.881   0.387
96127SOL    HW290279   8.595   6.732   0.362
96128SOL     OW90280   6.767   0.595  14.653
96128SOL    HW190281   6.840   0.601  14.716
96128SOL    HW290282   6.691   0.576  14.707
96129SOL     OW90283  12.556   4.044   1.359
96129SOL    HW190284  12.587   4.105   1.293
96129SOL    HW290285  12.598   3.961   1.337
96130SOL     OW90286   9.047   4.829   7.287
96130SOL    HW190287   8.972   4.888   7.279
96130SOL    HW290288   9.122   4.887   7.301
96131SOL     OW90289  11.700   7.102   4.742
96131SOL    HW190290  11.729   7.193   4.748
96131SOL    HW290291  11.765   7.059   4.686
96132SOL     OW90292   6.499   4.084   4.849
96132SOL    HW190293   6.436   4.066   4.779
96132SOL    HW290294   6.456   4.053   4.929
96133SOL     OW90295  12.724   8.292   1.206
96133SOL    HW190296  12.706   8.244   1.288
96133SOL    HW290297  12.717   8.225   1.138
96134SOL     OW90298  10.017  12.878   4.821
96134SOL    HW190299  10.105  12.890   4.856
96134SOL    HW290300  10.027  12.886   4.726
96135SOL     OW90301   2.895   7.485   4.349
96135SOL    HW190302   2.837   7.417   4.314
96135SOL    HW290303   2.918   7.454   4.436
96136SOL     OW90304   3.591   7.394   1.164
96136SOL    HW190305   3.596   7.340   1.086
96136SOL    HW290306   3.600   7.484   1.132
96137SOL     OW90307  11.107   7.245   8.919
96137SOL    HW190308  11.014   7.262   8.931
96137SOL    HW290309  11.118   7.153   8.942
96138SOL     OW90310   5.697   9.304   7.565
96138SOL    HW190311   5.663   9.235   7.622
96138SOL    HW290312   5.660   9.385   7.600
96139SOL     OW90313   4.760   2.256   4.507
96139SOL    HW190314   4.697   2.193   4.472
96139SOL    HW290315   4.828   2.262   4.440
96140SOL     OW90316  10.257   2.856  13.489
96140SOL    HW190317  10.216   2.800  13.555
96140SOL    HW290318  10.290   2.795  13.423
96141SOL     OW90319   1.371   2.375  10.609
96141SOL    HW190320   1.310   2.353  10.539
96141SOL    HW290321   1.340   2.324  10.684
96142SOL     OW90322  13.018  10.828   3.146
96142SOL    HW190323  13.049  10.919   3.145
96142SOL    HW290324  13.075  10.782   3.084
96143SOL     OW90325  12.760  11.558   1.020
96143SOL    HW190326  12.789  11.649   1.028
96143SOL    HW290327  12.798  11.529   0.937
96144SOL     OW90328   1.581   7.583  12.096
96144SOL    HW190329   1.534   7.648  12.149
96144SOL    HW290330   1.645   7.634  12.047
96145SOL     OW90331   4.471   8.891   7.957
96145SOL    HW190332   4.534   8.848   7.900
96145SOL    HW290333   4.484   8.850   8.043
96146SOL     OW90334   5.286   6.105   4.774
96146SOL    HW190335   5.211   6.137   4.824
96146SOL    HW290336   5.312   6.179   4.720
96147SOL     OW90337   3.963   2.707  11.212
96147SOL    HW190338   3.955   2.629  11.158
96147SOL    HW290339   3.884   2.706  11.266
96148SOL     OW90340   1.327   0.586   3.970
96148SOL    HW190341   1.278   0.665   3.993
96148SOL    HW290342   1.260   0.518   3.959
96149SOL     OW90343   5.807   7.562  14.787
96149SOL    HW190344   5.853   7.560  14.703
96149SOL    HW290345   5.775   7.651  14.795
96150SOL     OW90346   3.095  10.704   3.135
96150SOL    HW190347   3.094  10.784   3.083
96150SOL    HW290348   3.028  10.648   3.095
96151SOL     OW90349   1.657   3.263   0.543
96151SOL    HW190350   1.737   3.315   0.537
96151SOL    HW290351   1.620   3.285   0.628
96152SOL     OW90352   1.271   9.255   5.189
96152SOL    HW190353   1.339   9.319   5.166
96152SOL    HW290354   1.189   9.301   5.172
96153SOL     OW90355   1.118  14.447   4.602
96153SOL    HW190356   1.163  14.367   4.573
96153SOL    HW290357   1.079  14.423   4.686
96154SOL     OW90358   0.623   6.402  14.419
96154SOL    HW190359   0.715   6.429  14.414
96154SOL    HW290360   0.605   6.398  14.513
96155SOL     OW90361   5.296   1.334  11.919
96155SOL    HW190362   5.296   1.266  11.851
96155SOL    HW290363   5.361   1.305  11.983
96156SOL     OW90364   9.610   3.820   9.414
96156SOL    HW190365   9.688   3.783   9.373
96156SOL    HW290366   9.548   3.830   9.342
96157SOL     OW90367   3.031   2.459  13.972
96157SOL    HW190368   2.964   2.456  13.903
96157SOL    HW290369   3.101   2.512  13.934
96158SOL     OW90370   0.694  10.120   7.140
96158SOL    HW190371   0.739  10.071   7.071
96158SOL    HW290372   0.764  10.170   7.183
96159SOL     OW90373   9.388  12.050   1.723
96159SOL    HW190374   9.390  11.967   1.771
96159SOL    HW290375   9.306  12.091   1.751
96160SOL     OW90376   6.018   9.736  10.741
96160SOL    HW190377   6.001   9.672  10.810
96160SOL    HW290378   5.997   9.820  10.782
96161SOL     OW90379  13.345   4.523   9.796
96161SOL    HW190380  13.287   4.532   9.872
96161SOL    HW290381  13.408   4.594   9.806
96162SOL     OW90382   3.805   2.821   2.244
96162SOL    HW190383   3.785   2.876   2.320
96162SOL    HW290384   3.878   2.865   2.201
96163SOL     OW90385   8.364   5.991   3.157
96163SOL    HW190386   8.312   5.989   3.077
96163SOL    HW290387   8.376   5.899   3.180
96164SOL     OW90388  11.185  11.731   0.293
96164SOL    HW190389  11.194  11.669   0.220
96164SOL    HW290390  11.243  11.698   0.361
96165SOL     OW90391   7.529   8.790   4.841
96165SOL    HW190392   7.567   8.710   4.806
96165SOL    HW290393   7.435   8.782   4.825
96166SOL     OW90394  13.864  10.233   3.959
96166SOL    HW190395  13.848  10.325   3.942
96166SOL    HW290396  13.922  10.232   4.035
96167SOL     OW90397  13.185  12.685   4.418
96167SOL    HW190398  13.270  12.649   4.390
96167SOL    HW290399  13.121  12.641   4.363
96168SOL     OW90400   9.408   5.104   7.626
96168SOL    HW190401   9.330   5.159   7.622
96168SOL    HW290402   9.452   5.132   7.706
96169SOL     OW90403   9.900   0.682   1.076
96169SOL    HW190404   9.895   0.751   1.010
96169SOL    HW290405   9.978   0.703   1.127
96170SOL     OW90406   2.606  11.293   1.745
96170SOL    HW190407   2.657  11.216   1.718
96170SOL    HW290408   2.619  11.356   1.674
96171SOL     OW90409   9.042  10.269   2.891
96171SOL    HW190410   9.052  10.197   2.829
96171SOL    HW290411   8.959  10.310   2.867
96172SOL     OW90412   7.150   9.681   2.942
96172SOL    HW190413   7.134   9.748   2.875
96172SOL    HW290414   7.063   9.664   2.979
96173SOL     OW90415   2.289   6.129   3.157
96173SOL    HW190416   2.318   6.044   3.191
96173SOL    HW290417   2.196   6.132   3.176
96174SOL     OW90418   5.957   9.038  11.727
96174SOL    HW190419   6.041   8.993  11.738
96174SOL    HW290420   5.891   8.971  11.745
96175SOL     OW90421   7.196   9.628  10.820
96175SOL    HW190422   7.280   9.633  10.774
96175SOL    HW290423   7.204   9.691  10.892
96176SOL     OW90424  13.690  13.921   5.464
96176SOL    HW190425  13.752  13.849   5.454
96176SOL    HW290426  13.660  13.914   5.554
96177SOL     OW90427  11.862   8.082  14.573
96177SOL    HW190428  11.842   8.061  14.664
96177SOL    HW290429  11.944   8.131  14.577
96178SOL     OW90430   2.481   2.403  10.605
96178SOL    HW190431   2.557   2.351  10.576
96178SOL    HW290432   2.489   2.404  10.701
96179SOL     OW90433   0.509   6.392  11.370
96179SOL    HW190434   0.468   6.395  11.457
96179SOL    HW290435   0.601   6.411  11.386
96180SOL     OW90436  10.582   4.845  11.913
96180SOL    HW190437  10.641   4.773  11.934
96180SOL    HW290438  10.627   4.893  11.844
96181SOL     OW90439   3.500  11.870   3.837
96181SOL    HW190440   3.441  11.901   3.905
96181SOL    HW290441   3.548  11.798   3.877
96182SOL     OW90442   6.655   5.638  10.599
96182SOL    HW190443   6.623   5.549  10.585
96182SOL    HW290444   6.580   5.694  10.577
96183SOL     OW90445   9.035   3.608  10.151
96183SOL    HW190446   8.969   3.560  10.102
96183SOL    HW290447   9.038   3.695  10.110
96184SOL     OW90448  11.275   0.666  13.625
96184SOL    HW190449  11.246   0.755  13.643
96184SOL    HW290450  11.241   0.647  13.538
96185SOL     OW90451  12.128  13.448   9.596
96185SOL    HW190452  12.046  13.458   9.645
96185SOL    HW290453  12.134  13.353   9.580
96186SOL     OW90454   5.737   6.974  10.644
96186SOL    HW190455   5.797   6.957  10.716
96186SOL    HW290456   5.665   7.022  10.684
96187SOL     OW90457   4.599  10.652   5.505
96187SOL    HW190458   4.671  10.692   5.553
96187SOL    HW290459   4.582  10.570   5.553
96188SOL     OW90460   5.165   0.063   1.364
96188SOL    HW190461   5.170   0.034   1.455
96188SOL    HW290462   5.245   0.031   1.323
96189SOL     OW90463  13.276   9.989   1.628
96189SOL    HW190464  13.197   9.942   1.603
96189SOL    HW290465  13.309  10.028   1.547
96190SOL     OW90466   3.842  11.605   7.673
96190SOL    HW190467   3.905  11.538   7.698
96190SOL    HW290468   3.758  11.573   7.706
96191SOL     OW90469  10.556   2.011   5.587
96191SOL    HW190470  10.642   2.031   5.625
96191SOL    HW290471  10.575   1.947   5.518
96192SOL     OW90472   3.209  13.092  11.293
96192SOL    HW190473   3.193  13.153  11.366
96192SOL    HW290474   3.304  13.086  11.287
96193SOL     OW90475  12.037   1.645   0.857
96193SOL    HW190476  12.026   1.563   0.905
96193SOL    HW290477  12.132   1.660   0.857
96194SOL     OW90478   2.009  13.997   6.425
96194SOL    HW190479   1.957  14.073   6.398
96194SOL    HW290480   1.986  13.984   6.517
96195SOL     OW90481   9.060   9.136   0.101
96195SOL    HW190482   9.010   9.125   0.021
96195SOL    HW290483   9.098   9.050   0.118
96196SOL     OW90484  10.543   4.572  11.354
96196SOL    HW190485  10.637   4.560  11.372
96196SOL    HW290486  10.534   4.666  11.336
96197SOL     OW90487   3.402   3.606  10.713
96197SOL    HW190488   3.347   3.645  10.782
96197SOL    HW290489   3.447   3.681  10.674
96198SOL     OW90490   6.803   4.685   1.405
96198SOL    HW190491   6.854   4.765   1.389
96198SOL    HW290492   6.844   4.646   1.482
96199SOL     OW90493   7.486  11.222   9.940
96199SOL    HW190494   7.397  11.250   9.918
96199SOL    HW290495   7.496  11.138   9.896
96200SOL     OW90496  13.075   2.170  11.588
96200SOL    HW190497  13.124   2.238  11.541
96200SOL    HW290498  13.115   2.088  11.560
96201SOL     OW90499   1.230   2.965   2.042
96201SOL    HW190500   1.172   2.889   2.031
96201SOL    HW290501   1.300   2.933   2.099
96202SOL     OW90502   7.130   4.282  14.839
96202SOL    HW190503   7.120   4.375  14.821
96202SOL    HW290504   7.151   4.278   0.055
96203SOL     OW90505   3.267  12.843   6.980
96203SOL    HW190506   3.340  12.860   7.039
96203SOL    HW290507   3.289  12.758   6.940
96204SOL     OW90508  14.575   9.906   6.236
96204SOL    HW190509  14.577   9.853   6.157
96204SOL    HW290510  14.512   9.976   6.217
96205SOL     OW90511   9.676  13.082  10.184
96205SOL    HW190512   9.626  13.112  10.260
96205SOL    HW290513   9.696  12.991  10.203
96206SOL     OW90514   7.813  13.361   8.986
96206SOL    HW190515   7.855  13.438   8.946
96206SOL    HW290516   7.720  13.381   8.985
96207SOL     OW90517   9.628   1.321   2.372
96207SOL    HW190518   9.577   1.270   2.309
96207SOL    HW290519   9.579   1.314   2.454
96208SOL     OW90520   6.278  11.119   8.383
96208SOL    HW190521   6.279  11.059   8.309
96208SOL    HW290522   6.354  11.095   8.436
96209SOL     OW90523   6.849  10.659   7.481
96209SOL    HW190524   6.931  10.631   7.522
96209SOL    HW290525   6.851  10.754   7.486
96210SOL     OW90526  10.636   3.509  11.869
96210SOL    HW190527  10.610   3.510  11.777
96210SOL    HW290528  10.570   3.455  11.912
96211SOL     OW90529  13.075   1.959  10.431
96211SOL    HW190530  13.021   2.010  10.491
96211SOL    HW290531  13.031   1.874  10.426
96212SOL     OW90532   8.136  13.980   0.014
96212SOL    HW190533   8.201  13.915   0.039
96212SOL    HW290534   8.146  14.050   0.080
96213SOL     OW90535   1.230   8.465  11.989
96213SOL    HW190536   1.258   8.382  11.950
96213SOL    HW290537   1.135   8.455  11.999
96214SOL     OW90538   3.981   9.102   2.718
96214SOL    HW190539   3.984   9.093   2.813
96214SOL    HW290540   3.924   9.031   2.688
96215SOL     OW90541  12.181   3.691   1.462
96215SOL    HW190542  12.180   3.686   1.558
96215SOL    HW290543  12.126   3.767   1.443
96216SOL     OW90544   2.974  12.744   2.298
96216SOL    HW190545   2.946  12.744   2.389
96216SOL    HW290546   3.026  12.664   2.288
96217SOL     OW90547  14.451   2.843   0.239
96217SOL    HW190548  14.495   2.779   0.294
96217SOL    HW290549  14.521   2.898   0.206
96218SOL     OW90550   0.006  14.582  11.822
96218SOL    HW190551   0.027  14.504  11.771
96218SOL    HW290552   0.056  14.572  11.903
96219SOL     OW90553  11.458   8.000   4.885
96219SOL    HW190554  11.468   7.907   4.863
96219SOL    HW290555  11.464   8.003   4.980
96220SOL     OW90556  13.973  11.119   0.286
96220SOL    HW190557  14.033  11.136   0.358
96220SOL    HW290558  14.027  11.075   0.220
96221SOL     OW90559   9.171   7.754   4.051
96221SOL    HW190560   9.185   7.816   4.122
96221SOL    HW290561   9.203   7.670   4.085
96222SOL     OW90562  12.878   6.336   5.008
96222SOL    HW190563  12.872   6.256   4.955
96222SOL    HW290564  12.882   6.407   4.943
96223SOL     OW90565   3.408   6.082   1.240
96223SOL    HW190566   3.353   6.160   1.251
96223SOL    HW290567   3.443   6.090   1.151
96224SOL     OW90568   2.010   1.018   2.395
96224SOL    HW190569   1.994   1.013   2.301
96224SOL    HW290570   2.030   1.110   2.411
96225SOL     OW90571  10.696   0.341   5.628
96225SOL    HW190572  10.663   0.424   5.661
96225SOL    HW290573  10.630   0.277   5.655
96226SOL     OW90574  11.382   3.388   4.237
96226SOL    HW190575  11.354   3.349   4.320
96226SOL    HW290576  11.400   3.479   4.258
96227SOL     OW90577   3.643   0.612   7.775
96227SOL    HW190578   3.571   0.572   7.824
96227SOL    HW290579   3.695   0.656   7.842
96228SOL     OW90580   5.653   6.492   3.368
96228SOL    HW190581   5.610   6.577   3.358
96228SOL    HW290582   5.719   6.491   3.300
96229SOL     OW90583  13.144   2.994  14.422
96229SOL    HW190584  13.157   3.089  14.414
96229SOL    HW290585  13.231   2.960  14.443
96230SOL     OW90586  10.877   2.546  13.334
96230SOL    HW190587  10.906   2.623  13.382
96230SOL    HW290588  10.951   2.523  13.279
96231SOL     OW90589   6.028   6.058   3.878
96231SOL    HW190590   6.050   6.092   3.965
96231SOL    HW290591   6.017   6.136   3.824
96232SOL     OW90592   3.678  11.155  13.711
96232SOL    HW190593   3.643  11.141  13.623
96232SOL    HW290594   3.735  11.232  13.702
96233SOL     OW90595   0.109  12.425   6.345
96233SOL    HW190596   0.156  12.477   6.411
96233SOL    HW290597   0.141  12.458   6.261
96234SOL     OW90598  11.053   9.335   3.572
96234SOL    HW190599  11.102   9.372   3.498
96234SOL    HW290600  11.121   9.305   3.633
96235SOL     OW90601  13.073  10.549   6.417
96235SOL    HW190602  13.052  10.516   6.505
96235SOL    HW290603  13.165  10.575   6.422
96236SOL     OW90604   8.947   6.128   0.959
96236SOL    HW190605   8.865   6.147   1.006
96236SOL    HW290606   9.011   6.113   1.029
96237SOL     OW90607   4.275   1.180   0.026
96237SOL    HW190608   4.297   1.269   0.052
96237SOL    HW290609   4.179   1.182   0.016
96238SOL     OW90610  10.496   6.244  14.233
96238SOL    HW190611  10.475   6.222  14.324
96238SOL    HW290612  10.411   6.252  14.190
96239SOL     OW90613   0.555   9.788  10.936
96239SOL    HW190614   0.485   9.770  10.999
96239SOL    HW290615   0.512   9.834  10.864
96240SOL     OW90616  14.177   8.595  13.128
96240SOL    HW190617  14.221   8.677  13.152
96240SOL    HW290618  14.135   8.565  13.208
96241SOL     OW90619   2.940  11.775   9.588
96241SOL    HW190620   2.998  11.851   9.588
96241SOL    HW290621   2.897  11.777   9.502
96242SOL     OW90622   5.170   9.246   6.856
96242SOL    HW190623   5.213   9.269   6.938
96242SOL    HW290624   5.181   9.151   6.848
96243SOL     OW90625  11.974   6.813  13.727
96243SOL    HW190626  12.002   6.905  13.729
96243SOL    HW290627  11.980   6.785  13.818
96244SOL     OW90628   1.761   4.771   0.344
96244SOL    HW190629   1.703   4.744   0.415
96244SOL    HW290630   1.791   4.689   0.305
96245SOL     OW90631  10.655   8.916  12.073
96245SOL    HW190632  10.564   8.888  12.061
96245SOL    HW290633  10.674   8.971  11.997
96246SOL     OW90634   3.403  12.248   7.609
96246SOL    HW190635   3.497  12.257   7.618
96246SOL    HW290636   3.374  12.333   7.574
96247SOL     OW90637   3.784   2.343  13.141
96247SOL    HW190638   3.855   2.349  13.078
96247SOL    HW290639   3.706   2.372  13.093
96248SOL     OW90640  10.735   6.044   8.582
96248SOL    HW190641  10.660   5.989   8.563
96248SOL    HW290642  10.735   6.052   8.678
96249SOL     OW90643   3.495   7.745   8.627
96249SOL    HW190644   3.412   7.720   8.587
96249SOL    HW290645   3.501   7.691   8.706
96250SOL     OW90646   8.153   3.654   9.397
96250SOL    HW190647   8.173   3.569   9.359
96250SOL    HW290648   8.144   3.713   9.321
96251SOL     OW90649   7.793   2.350  11.683
96251SOL    HW190650   7.717   2.377  11.734
96251SOL    HW290651   7.772   2.261  11.654
96252SOL     OW90652   8.369   2.972   7.844
96252SOL    HW190653   8.371   3.013   7.931
96252SOL    HW290654   8.311   2.897   7.854
96253SOL     OW90655  12.898  10.619   6.733
96253SOL    HW190656  12.814  10.580   6.755
96253SOL    HW290657  12.913  10.684   6.802
96254SOL     OW90658   4.088   5.669   8.669
96254SOL    HW190659   4.150   5.629   8.606
96254SOL    HW290660   4.002   5.643   8.636
96255SOL     OW90661   4.028   3.526   9.034
96255SOL    HW190662   3.991   3.538   9.122
96255SOL    HW290663   3.990   3.596   8.982
96256SOL     OW90664  14.042   0.710  11.808
96256SOL    HW190665  14.111   0.644  11.811
96256SOL    HW290666  14.006   0.702  11.720
96257SOL     OW90667  11.864   6.008   4.812
96257SOL    HW190668  11.840   6.050   4.730
96257SOL    HW290669  11.856   6.078   4.878
96258SOL     OW90670  13.411   9.003   8.077
96258SOL    HW190671  13.386   8.915   8.050
96258SOL    HW290672  13.333   9.038   8.121
96259SOL     OW90673   6.898   4.958  14.434
96259SOL    HW190674   6.882   5.021  14.365
96259SOL    HW290675   6.811   4.932  14.465
96260SOL     OW90676  12.114   4.513   7.864
96260SOL    HW190677  12.124   4.597   7.908
96260SOL    HW290678  12.050   4.466   7.918
96261SOL     OW90679  10.756  12.274  14.268
96261SOL    HW190680  10.749  12.331  14.191
96261SOL    HW290681  10.682  12.297  14.323
96262SOL     OW90682   8.834   4.806  14.502
96262SOL    HW190683   8.872   4.720  14.487
96262SOL    HW290684   8.910   4.864  14.511
96263SOL     OW90685  13.137   6.545   6.703
96263SOL    HW190686  13.218   6.544   6.754
96263SOL    HW290687  13.163   6.518   6.615
96264SOL     OW90688   1.110  13.443   7.192
96264SOL    HW190689   1.192  13.395   7.202
96264SOL    HW290690   1.136  13.535   7.192
96265SOL     OW90691  12.329   7.415   2.936
96265SOL    HW190692  12.423   7.399   2.934
96265SOL    HW290693  12.293   7.355   2.870
96266SOL     OW90694   1.722  13.530  13.337
96266SOL    HW190695   1.688  13.471  13.270
96266SOL    HW290696   1.815  13.540  13.316
96267SOL     OW90697   3.236   6.565  11.810
96267SOL    HW190698   3.264   6.516  11.887
96267SOL    HW290699   3.162   6.618  11.841
96268SOL     OW90700   5.798  10.638  14.444
96268SOL    HW190701   5.731  10.701  14.418
96268SOL    HW290702   5.773  10.557  14.399
96269SOL     OW90703  11.283   4.687   1.174
96269SOL    HW190704  11.371   4.653   1.161
96269SOL    HW290705  11.281   4.767   1.121
96270SOL     OW90706  14.499  12.811  10.456
96270SOL    HW190707  14.567  12.845  10.513
96270SOL    HW290708  14.538  12.811  10.369
96271SOL     OW90709   1.555  11.486   9.098
96271SOL    HW190710   1.618  11.472   9.027
96271SOL    HW290711   1.605  11.530   9.166
96272SOL     OW90712   7.294   6.601  12.715
96272SOL    HW190713   7.278   6.549  12.636
96272SOL    HW290714   7.257   6.548  12.786
96273SOL     OW90715  10.591  12.374   5.056
96273SOL    HW190716  10.501  12.406   5.050
96273SOL    HW290717  10.591  12.292   5.006
96274SOL     OW90718  13.400  12.308  10.223
96274SOL    HW190719  13.309  12.283  10.240
96274SOL    HW290720  13.434  12.333  10.309
96275SOL     OW90721   6.090   9.575   5.841
96275SOL    HW190722   6.150   9.537   5.777
96275SOL    HW290723   6.140   9.644   5.884
96276SOL     OW90724   9.509   8.709   2.499
96276SOL    HW190725   9.506   8.805   2.505
96276SOL    HW290726   9.423   8.686   2.463
96277SOL     OW90727   5.329  13.755   3.004
96277SOL    HW190728   5.364  13.675   2.965
96277SOL    HW290729   5.234  13.748   2.994
96278SOL     OW90730   3.444  12.440   5.220
96278SOL    HW190731   3.412  12.474   5.137
96278SOL    HW290732   3.385  12.477   5.286
96279SOL     OW90733   9.429  14.348   0.307
96279SOL    HW190734   9.338  14.367   0.331
96279SOL    HW290735   9.478  14.357   0.389
96280SOL     OW90736  12.397   2.871  11.342
96280SOL    HW190737  12.356   2.785  11.348
96280SOL    HW290738  12.470   2.859  11.282
96281SOL     OW90739   1.183   8.665   8.201
96281SOL    HW190740   1.160   8.664   8.108
96281SOL    HW290741   1.099   8.657   8.247
96282SOL     OW90742   7.405  10.869   8.190
96282SOL    HW190743   7.321  10.903   8.220
96282SOL    HW290744   7.394  10.774   8.186
96283SOL     OW90745   8.024   3.254   3.593
96283SOL    HW190746   8.075   3.207   3.527
96283SOL    HW290747   7.935   3.256   3.558
96284SOL     OW90748   9.906   4.371   8.933
96284SOL    HW190749   9.822   4.368   8.978
96284SOL    HW290750   9.971   4.355   9.001
96285SOL     OW90751   8.983   5.530  11.667
96285SOL    HW190752   9.000   5.555  11.576
96285SOL    HW290753   9.070   5.522  11.706
96286SOL     OW90754  14.810   5.792   2.760
96286SOL    HW190755  14.822   5.867   2.702
96286SOL    HW290756  14.724   5.757   2.736
96287SOL     OW90757   2.440   4.444   5.000
96287SOL    HW190758   2.511   4.460   4.938
96287SOL    HW290759   2.389   4.374   4.961
96288SOL     OW90760   8.155  10.725  12.124
96288SOL    HW190761   8.131  10.780  12.049
96288SOL    HW290762   8.098  10.648  12.116
96289SOL     OW90763  12.859   1.911  12.083
96289SOL    HW190764  12.849   1.995  12.127
96289SOL    HW290765  12.941   1.920  12.034
96290SOL     OW90766  13.796  14.364   5.767
96290SOL    HW190767  13.862  14.406   5.712
96290SOL    HW290768  13.845  14.303   5.822
96291SOL     OW90769  11.244   2.715   5.586
96291SOL    HW190770  11.222   2.800   5.548
96291SOL    HW290771  11.339   2.720   5.602
96292SOL     OW90772   6.263   2.556   6.215
96292SOL    HW190773   6.226   2.513   6.292
96292SOL    HW290774   6.340   2.504   6.193
96293SOL     OW90775   9.458   3.207   6.328
96293SOL    HW190776   9.536   3.196   6.274
96293SOL    HW290777   9.408   3.276   6.284
96294SOL     OW90778   1.541   4.858  11.225
96294SOL    HW190779   1.472   4.869  11.159
96294SOL    HW290780   1.593   4.938  11.218
96295SOL     OW90781   6.033   2.405   1.566
96295SOL    HW190782   6.092   2.345   1.521
96295SOL    HW290783   5.989   2.352   1.632
96296SOL     OW90784   2.477   1.307   9.205
96296SOL    HW190785   2.469   1.356   9.123
96296SOL    HW290786   2.477   1.215   9.178
96297SOL     OW90787   8.412  11.547  10.539
96297SOL    HW190788   8.405  11.533  10.444
96297SOL    HW290789   8.505  11.564  10.554
96298SOL     OW90790  14.595  10.032  14.205
96298SOL    HW190791  14.633   9.948  14.229
96298SOL    HW290792  14.630  10.093  14.270
96299SOL     OW90793   1.010   3.228  11.273
96299SOL    HW190794   0.961   3.146  11.265
96299SOL    HW290795   1.083   3.218  11.212
96300SOL     OW90796   4.785  11.658  14.231
96300SOL    HW190797   4.759  11.603  14.157
96300SOL    HW290798   4.709  11.715  14.246
96301SOL     OW90799   5.994  11.876   8.553
96301SOL    HW190800   5.984  11.963   8.515
96301SOL    HW290801   5.923  11.824   8.516
96302SOL     OW90802   2.993  14.227   2.578
96302SOL    HW190803   3.063  14.182   2.530
96302SOL    HW290804   3.003  14.319   2.552
96303SOL     OW90805   9.919   7.236   3.546
96303SOL    HW190806   9.971   7.316   3.550
96303SOL    HW290807   9.960   7.177   3.609
96304SOL     OW90808   0.090   5.128  14.689
96304SOL    HW190809   0.088   5.123  14.785
96304SOL    HW290810   0.156   5.063  14.664
96305SOL     OW90811   3.060   9.091   9.944
96305SOL    HW190812   3.074   9.033   9.869
96305SOL    HW290813   3.069   9.035  10.021
96306SOL     OW90814   4.551   2.678   4.348
96306SOL    HW190815   4.523   2.757   4.301
96306SOL    HW290816   4.628   2.648   4.300
96307SOL     OW90817   8.618   5.429  13.154
96307SOL    HW190818   8.664   5.409  13.073
96307SOL    HW290819   8.578   5.346  13.180
96308SOL     OW90820   9.796   1.826   6.283
96308SOL    HW190821   9.747   1.789   6.209
96308SOL    HW290822   9.856   1.889   6.243
96309SOL     OW90823   5.111  13.314   5.567
96309SOL    HW190824   5.022  13.290   5.593
96309SOL    HW290825   5.116  13.291   5.474
96310SOL     OW90826  11.687   0.062   0.249
96310SOL    HW190827  11.667   0.155   0.259
96310SOL    HW290828  11.737   0.040   0.327
96311SOL     OW90829  10.570   8.673  11.836
96311SOL    HW190830  10.552   8.762  11.867
96311SOL    HW290831  10.580   8.621  11.917
96312SOL     OW90832   9.776  10.922  13.202
96312SOL    HW190833   9.711  10.852  13.215
96312SOL    HW290834   9.727  10.991  13.157
96313SOL     OW90835   0.920  11.200  14.723
96313SOL    HW190836   0.854  11.133  14.704
96313SOL    HW290837   0.882  11.253  14.792
96314SOL     OW90838  12.507  11.320   1.992
96314SOL    HW190839  12.519  11.409   2.026
96314SOL    HW290840  12.415  11.316   1.966
96315SOL     OW90841   7.206   9.225  13.587
96315SOL    HW190842   7.168   9.137  13.582
96315SOL    HW290843   7.298   9.209  13.610
96316SOL     OW90844   0.644   4.555  11.193
96316SOL    HW190845   0.639   4.610  11.271
96316SOL    HW290846   0.600   4.606  11.125
96317SOL     OW90847   7.639   9.787   9.570
96317SOL    HW190848   7.558   9.750   9.535
96317SOL    HW290849   7.626   9.786   9.665
96318SOL     OW90850   7.899   1.553   4.546
96318SOL    HW190851   7.984   1.592   4.526
96318SOL    HW290852   7.856   1.617   4.604
96319SOL     OW90853   7.503   5.490   4.189
96319SOL    HW190854   7.417   5.525   4.214
96319SOL    HW290855   7.560   5.510   4.263
96320SOL     OW90856  10.090   9.802   5.037
96320SOL    HW190857   9.997   9.791   5.054
96320SOL    HW290858  10.122   9.855   5.110
96321SOL     OW90859  10.893   1.113  10.883
96321SOL    HW190860  10.966   1.100  10.823
96321SOL    HW290861  10.864   1.203  10.867
96322SOL     OW90862   5.533   2.498  13.348
96322SOL    HW190863   5.593   2.490  13.423
96322SOL    HW290864   5.511   2.591  13.345
96323SOL     OW90865   2.599  12.462   5.666
96323SOL    HW190866   2.537  12.390   5.658
96323SOL    HW290867   2.581  12.500   5.752
96324SOL     OW90868   6.806   6.203  11.917
96324SOL    HW190869   6.749   6.254  11.860
96324SOL    HW290870   6.879   6.177  11.861
96325SOL     OW90871  12.144  13.651   5.695
96325SOL    HW190872  12.128  13.557   5.689
96325SOL    HW290873  12.239  13.659   5.684
96326SOL     OW90874  10.325   7.491   5.106
96326SOL    HW190875  10.342   7.399   5.090
96326SOL    HW290876  10.411   7.533   5.102
96327SOL     OW90877   9.170   1.926  10.852
96327SOL    HW190878   9.149   1.835  10.874
96327SOL    HW290879   9.172   1.928  10.757
96328SOL     OW90880   0.531   6.612   0.481
96328SOL    HW190881   0.491   6.540   0.432
96328SOL    HW290882   0.591   6.653   0.419
96329SOL     OW90883   1.297   8.379  12.370
96329SOL    HW190884   1.338   8.305  12.327
96329SOL    HW290885   1.239   8.340  12.435
96330SOL     OW90886  10.732   4.552  13.267
96330SOL    HW190887  10.771   4.477  13.312
96330SOL    HW290888  10.788   4.566  13.191
96331SOL     OW90889   3.939   0.747   6.572
96331SOL    HW190890   3.874   0.677   6.571
96331SOL    HW290891   3.980   0.741   6.658
96332SOL     OW90892   4.040  12.942   8.629
96332SOL    HW190893   3.962  12.948   8.574
96332SOL    HW290894   4.030  12.859   8.677
96333SOL     OW90895  12.357  12.597   2.264
96333SOL    HW190896  12.418  12.605   2.337
96333SOL    HW290897  12.398  12.646   2.193
96334SOL     OW90898   0.748   2.480   8.915
96334SOL    HW190899   0.801   2.515   8.986
96334SOL    HW290900   0.699   2.555   8.882
96335SOL     OW90901   2.484   6.131   4.086
96335SOL    HW190902   2.496   6.189   4.161
96335SOL    HW290903   2.509   6.044   4.119
96336SOL     OW90904   1.394   4.373  12.655
96336SOL    HW190905   1.367   4.385  12.564
96336SOL    HW290906   1.489   4.362  12.651
96337SOL     OW90907  12.595   9.713  13.269
96337SOL    HW190908  12.620   9.626  13.300
96337SOL    HW290909  12.600   9.768  13.347
96338SOL     OW90910   7.252   4.356   5.209
96338SOL    HW190911   7.200   4.302   5.268
96338SOL    HW290912   7.187   4.408   5.161
96339SOL     OW90913   2.163  14.543   8.011
96339SOL    HW190914   2.104  14.523   7.939
96339SOL    HW290915   2.250  14.551   7.971
96340SOL     OW90916   6.803  13.748   3.308
96340SOL    HW190917   6.765  13.731   3.222
96340SOL    HW290918   6.891  13.710   3.304
96341SOL     OW90919   3.433   5.099   2.984
96341SOL    HW190920   3.488   5.118   3.059
96341SOL    HW290921   3.379   5.177   2.973
96342SOL     OW90922   1.820   9.203   5.718
96342SOL    HW190923   1.741   9.227   5.767
96342SOL    HW290924   1.787   9.158   5.640
96343SOL     OW90925   0.701  13.741   3.212
96343SOL    HW190926   0.711  13.777   3.124
96343SOL    HW290927   0.680  13.648   3.199
96344SOL     OW90928   8.259   2.471   1.304
96344SOL    HW190929   8.280   2.397   1.361
96344SOL    HW290930   8.215   2.534   1.361
96345SOL     OW90931  11.829   0.686   5.226
96345SOL    HW190932  11.758   0.742   5.194
96345SOL    HW290933  11.869   0.737   5.297
96346SOL     OW90934  13.181   7.101   5.375
96346SOL    HW190935  13.157   7.013   5.346
96346SOL    HW290936  13.270   7.113   5.342
96347SOL     OW90937   7.521   1.776   5.942
96347SOL    HW190938   7.487   1.696   5.982
96347SOL    HW290939   7.592   1.746   5.885
96348SOL     OW90940   8.240   7.058   1.664
96348SOL    HW190941   8.290   7.113   1.604
96348SOL    HW290942   8.307   7.009   1.713
96349SOL     OW90943  13.115   1.963   7.392
96349SOL    HW190944  13.066   1.881   7.388
96349SOL    HW290945  13.161   1.959   7.476
96350SOL     OW90946   1.527  14.652   8.783
96350SOL    HW190947   1.601  14.712   8.788
96350SOL    HW290948   1.453  14.707   8.756
96351SOL     OW90949   2.627   7.028   9.730
96351SOL    HW190950   2.607   7.121   9.740
96351SOL    HW290951   2.545   6.984   9.749
96352SOL     OW90952   9.455   2.677  13.040
96352SOL    HW190953   9.501   2.760  13.048
96352SOL    HW290954   9.369   2.700  13.006
96353SOL     OW90955   9.010  14.589   4.231
96353SOL    HW190956   8.969  14.559   4.151
96353SOL    HW290957   9.011  14.684   4.223
96354SOL     OW90958  10.869   8.609   6.055
96354SOL    HW190959  10.812   8.549   6.007
96354SOL    HW290960  10.812   8.683   6.077
96355SOL     OW90961   8.820   7.679  14.666
96355SOL    HW190962   8.883   7.731  14.615
96355SOL    HW290963   8.753   7.653  14.603
96356SOL     OW90964   6.092  10.183   6.033
96356SOL    HW190965   6.172  10.156   5.987
96356SOL    HW290966   6.083  10.120   6.105
96357SOL     OW90967   5.036   1.774   0.818
96357SOL    HW190968   4.990   1.828   0.753
96357SOL    HW290969   5.126   1.770   0.786
96358SOL     OW90970  12.307   0.124  13.767
96358SOL    HW190971  12.381   0.177  13.796
96358SOL    HW290972  12.311   0.126  13.672
96359SOL     OW90973   8.576  10.041  12.976
96359SOL    HW190974   8.547  10.032  12.886
96359SOL    HW290975   8.596   9.952  13.004
96360SOL     OW90976   5.045   8.733   2.379
96360SOL    HW190977   4.960   8.718   2.337
96360SOL    HW290978   5.102   8.665   2.343
96361SOL     OW90979   4.932   3.997   9.184
96361SOL    HW190980   4.997   4.012   9.115
96361SOL    HW290981   4.873   3.931   9.146
96362SOL     OW90982   9.795   9.361   0.533
96362SOL    HW190983   9.766   9.381   0.445
96362SOL    HW290984   9.876   9.310   0.521
96363SOL     OW90985   5.277   8.502   8.756
96363SOL    HW190986   5.202   8.451   8.785
96363SOL    HW290987   5.240   8.585   8.725
96364SOL     OW90988   5.147   9.956   4.505
96364SOL    HW190989   5.232  10.000   4.503
96364SOL    HW290990   5.141   9.919   4.592
96365SOL     OW90991   7.301   5.865   5.804
96365SOL    HW190992   7.359   5.795   5.835
96365SOL    HW290993   7.218   5.850   5.850
96366SOL     OW90994   7.280   1.292   6.527
96366SOL    HW190995   7.327   1.314   6.447
96366SOL    HW290996   7.318   1.209   6.555
96367SOL     OW90997  14.125   3.485   8.174
96367SOL    HW190998  14.156   3.505   8.086
96367SOL    HW290999  14.172   3.547   8.231
96368SOL     OW91000  12.419  10.725  11.431
96368SOL    HW191001  12.503  10.768  11.416
96368SOL    HW291002  12.430  10.679  11.514
96369SOL     OW91003   2.223   3.377   9.880
96369SOL    HW191004   2.262   3.292   9.902
96369SOL    HW291005   2.221   3.425   9.963
96370SOL     OW91006   7.880   4.603   0.792
96370SOL    HW191007   7.844   4.668   0.731
96370SOL    HW291008   7.842   4.625   0.877
96371SOL     OW91009   8.099  14.645   1.045
96371SOL    HW191010   8.151  14.605   1.115
96371SOL    HW291011   8.120  14.738   1.050
96372SOL     OW91012   2.270   6.161  10.190
96372SOL    HW191013   2.316   6.106  10.254
96372SOL    HW291014   2.257   6.104  10.114
96373SOL     OW91015   0.997   5.634   1.687
96373SOL    HW191016   1.053   5.585   1.747
96373SOL    HW291017   0.974   5.714   1.735
96374SOL     OW91018   4.073   0.395   6.525
96374SOL    HW191019   4.149   0.420   6.577
96374SOL    HW291020   4.050   0.307   6.556
96375SOL     OW91021   6.139  14.301   1.173
96375SOL    HW191022   6.130  14.316   1.267
96375SOL    HW291023   6.233  14.295   1.158
96376SOL     OW91024   6.578   4.778   3.616
96376SOL    HW191025   6.650   4.778   3.554
96376SOL    HW291026   6.593   4.854   3.671
96377SOL     OW91027  14.631   4.646  14.255
96377SOL    HW191028  14.594   4.681  14.174
96377SOL    HW291029  14.563   4.661  14.321
96378SOL     OW91030   3.189   7.418  13.810
96378SOL    HW191031   3.262   7.470  13.778
96378SOL    HW291032   3.145   7.387  13.730
96379SOL     OW91033  10.862   1.411  12.473
96379SOL    HW191034  10.779   1.364  12.468
96379SOL    HW291035  10.869   1.438  12.564
96380SOL     OW91036   7.393   9.893  12.117
96380SOL    HW191037   7.482   9.928  12.121
96380SOL    HW291038   7.381   9.869  12.025
96381SOL     OW91039  13.262  11.109   2.940
96381SOL    HW191040  13.273  11.117   2.845
96381SOL    HW291041  13.347  11.075   2.971
96382SOL     OW91042   2.217   5.792   2.870
96382SOL    HW191043   2.275   5.868   2.864
96382SOL    HW291044   2.159   5.801   2.794
96383SOL     OW91045   8.505   7.658   7.954
96383SOL    HW191046   8.507   7.698   7.868
96383SOL    HW291047   8.579   7.697   8.001
96384SOL     OW91048   0.693   0.668   3.030
96384SOL    HW191049   0.604   0.660   3.065
96384SOL    HW291050   0.690   0.746   2.975
96385SOL     OW91051   1.108   9.378   4.043
96385SOL    HW191052   1.107   9.473   4.035
96385SOL    HW291053   1.030   9.349   3.995
96386SOL     OW91054   4.654  14.178   7.733
96386SOL    HW191055   4.595  14.125   7.681
96386SOL    HW291056   4.707  14.226   7.669
96387SOL     OW91057   0.394   7.655   4.907
96387SOL    HW191058   0.327   7.717   4.878
96387SOL    HW291059   0.348   7.599   4.970
96388SOL     OW91060   5.122   1.394   4.058
96388SOL    HW191061   5.106   1.464   4.121
96388SOL    HW291062   5.064   1.415   3.984
96389SOL     OW91063  14.209   0.301   6.728
96389SOL    HW191064  14.177   0.241   6.661
96389SOL    HW291065  14.291   0.263   6.758
96390SOL     OW91066   4.886   5.810  10.376
96390SOL    HW191067   4.891   5.788  10.469
96390SOL    HW291068   4.958   5.761  10.336
96391SOL     OW91069  10.119   4.743   8.547
96391SOL    HW191070  10.056   4.809   8.575
96391SOL    HW291071  10.193   4.753   8.607
96392SOL     OW91072   1.073  10.045   5.515
96392SOL    HW191073   1.024  10.100   5.577
96392SOL    HW291074   1.084  10.100   5.438
96393SOL     OW91075   6.113   1.388   4.964
96393SOL    HW191076   6.087   1.468   4.919
96393SOL    HW291077   6.060   1.319   4.924
96394SOL     OW91078   8.869   5.344   7.879
96394SOL    HW191079   8.805   5.395   7.830
96394SOL    HW291080   8.885   5.395   7.959
96395SOL     OW91081  14.676   5.579   5.359
96395SOL    HW191082  14.619   5.611   5.289
96395SOL    HW291083  14.629   5.602   5.440
96396SOL     OW91084  11.040   6.689   1.459
96396SOL    HW191085  11.034   6.750   1.386
96396SOL    HW291086  11.008   6.606   1.423
96397SOL     OW91087  11.764  10.772   9.018
96397SOL    HW191088  11.853  10.745   8.998
96397SOL    HW291089  11.750  10.746   9.110
96398SOL     OW91090   2.962  13.262   5.873
96398SOL    HW191091   3.058  13.273   5.873
96398SOL    HW291092   2.948  13.169   5.891
96399SOL     OW91093   8.246   3.041   2.306
96399SOL    HW191094   8.276   2.986   2.234
96399SOL    HW291095   8.172   2.993   2.344
96400SOL     OW91096   1.540   7.588   6.985
96400SOL    HW191097   1.629   7.618   6.971
96400SOL    HW291098   1.538   7.559   7.076
96401SOL     OW91099   9.351   2.361  13.182
96401SOL    HW191100   9.261   2.349  13.153
96401SOL    HW291101   9.401   2.297  13.131
96402SOL     OW91102  13.099  11.472   1.756
96402SOL    HW191103  13.153  11.414   1.703
96402SOL    HW291104  13.010  11.460   1.722
96403SOL     OW91105   5.635  13.560  11.787
96403SOL    HW191106   5.672  13.476  11.762
96403SOL    HW291107   5.542  13.553  11.766
96404SOL     OW91108  12.751  11.667   7.351
96404SOL    HW191109  12.733  11.618   7.431
96404SOL    HW291110  12.728  11.757   7.372
96405SOL     OW91111   2.991   1.461   4.225
96405SOL    HW191112   2.986   1.546   4.181
96405SOL    HW291113   2.900   1.432   4.231
96406SOL     OW91114   0.739   9.708   0.233
96406SOL    HW191115   0.658   9.728   0.280
96406SOL    HW291116   0.781   9.640   0.284
96407SOL     OW91117   1.302   4.531   6.715
96407SOL    HW191118   1.237   4.477   6.760
96407SOL    HW291119   1.301   4.499   6.624
96408SOL     OW91120   7.268  13.571   1.405
96408SOL    HW191121   7.260  13.478   1.384
96408SOL    HW291122   7.278  13.613   1.320
96409SOL     OW91123   6.260   9.743  14.827
96409SOL    HW191124   6.340   9.740  14.776
96409SOL    HW291125   6.191   9.719  14.765
96410SOL     OW91126  11.190  10.179  13.341
96410SOL    HW191127  11.117  10.242  13.337
96410SOL    HW291128  11.150  10.096  13.315
96411SOL     OW91129  12.385  10.880  13.278
96411SOL    HW191130  12.422  10.967  13.264
96411SOL    HW291131  12.296  10.886  13.242
96412SOL     OW91132   1.626   7.328  12.058
96412SOL    HW191133   1.557   7.288  12.112
96412SOL    HW291134   1.612   7.422  12.068
96413SOL     OW91135   7.885   5.904   9.796
96413SOL    HW191136   7.973   5.869   9.813
96413SOL    HW291137   7.900   5.989   9.756
96414SOL     OW91138  10.353   3.982   8.816
96414SOL    HW191139  10.419   3.980   8.747
96414SOL    HW291140  10.299   3.905   8.800
96415SOL     OW91141   0.424   5.360   8.775
96415SOL    HW191142   0.467   5.399   8.851
96415SOL    HW291143   0.338   5.334   8.807
96416SOL     OW91144   8.949   1.365   5.565
96416SOL    HW191145   8.942   1.360   5.660
96416SOL    HW291146   8.990   1.450   5.548
96417SOL     OW91147   3.489   0.003  12.550
96417SOL    HW191148   3.494  14.867  12.455
96417SOL    HW291149   3.412  14.832  12.578
96418SOL     OW91150   8.571   8.722   2.545
96418SOL    HW191151   8.567   8.635   2.585
96418SOL    HW291152   8.664   8.745   2.550
96419SOL     OW91153   0.295   9.861   1.104
96419SOL    HW191154   0.266   9.782   1.148
96419SOL    HW291155   0.231   9.928   1.130
96420SOL     OW91156   7.800   2.335   1.392
96420SOL    HW191157   7.807   2.426   1.362
96420SOL    HW291158   7.836   2.336   1.481
96421SOL     OW91159   8.385  10.856   6.143
96421SOL    HW191160   8.456  10.919   6.130
96421SOL    HW291161   8.307  10.909   6.154
96422SOL     OW91162   5.274   7.755   9.073
96422SOL    HW191163   5.265   7.843   9.036
96422SOL    HW291164   5.355   7.721   9.036
96423SOL     OW91165  11.417   0.786   0.239
96423SOL    HW191166  11.325   0.791   0.212
96423SOL    HW291167  11.421   0.709   0.296
96424SOL     OW91168  12.575   1.567   2.199
96424SOL    HW191169  12.632   1.640   2.174
96424SOL    HW291170  12.490   1.589   2.161
96425SOL     OW91171   1.603  12.352   2.898
96425SOL    HW191172   1.595  12.267   2.854
96425SOL    HW291173   1.684  12.345   2.949
96426SOL     OW91174   3.993  10.883   5.548
96426SOL    HW191175   3.934  10.843   5.484
96426SOL    HW291176   3.935  10.927   5.610
96427SOL     OW91177   0.609  14.599   5.941
96427SOL    HW191178   0.576  14.668   5.999
96427SOL    HW291179   0.664  14.545   5.997
96428SOL     OW91180   1.196  11.263   2.069
96428SOL    HW191181   1.105  11.263   2.041
96428SOL    HW291182   1.202  11.192   2.133
96429SOL     OW91183   5.115  13.254   5.262
96429SOL    HW191184   5.048  13.194   5.230
96429SOL    HW291185   5.195  13.229   5.215
96430SOL     OW91186   7.828   3.540   8.110
96430SOL    HW191187   7.776   3.576   8.181
96430SOL    HW291188   7.785   3.572   8.030
96431SOL     OW91189  14.551   0.804   5.058
96431SOL    HW191190  14.470   0.759   5.037
96431SOL    HW291191  14.523   0.885   5.100
96432SOL     OW91192  10.279  14.586  11.668
96432SOL    HW191193  10.343  14.592  11.598
96432SOL    HW291194  10.311  14.646  11.735
96433SOL     OW91195   6.419   9.178   2.073
96433SOL    HW191196   6.452   9.246   2.013
96433SOL    HW291197   6.338   9.215   2.109
96434SOL     OW91198   3.668  12.056  11.789
96434SOL    HW191199   3.715  11.985  11.745
96434SOL    HW291200   3.695  12.135  11.742
96435SOL     OW91201   7.244   0.751   1.035
96435SOL    HW191202   7.194   0.677   1.069
96435SOL    HW291203   7.189   0.787   0.965
96436SOL     OW91204  14.033  13.216   4.223
96436SOL    HW191205  14.083  13.135   4.212
96436SOL    HW291206  13.942  13.186   4.235
96437SOL     OW91207   0.319  14.455   8.725
96437SOL    HW191208   0.260  14.422   8.657
96437SOL    HW291209   0.385  14.505   8.677
96438SOL     OW91210   0.203   9.502   1.527
96438SOL    HW191211   0.141   9.531   1.593
96438SOL    HW291212   0.278   9.470   1.576
96439SOL     OW91213   5.777  11.277  13.833
96439SOL    HW191214   5.711  11.303  13.897
96439SOL    HW291215   5.753  11.188  13.809
96440SOL     OW91216   1.819  11.000   8.807
96440SOL    HW191217   1.794  11.007   8.899
96440SOL    HW291218   1.897  10.945   8.809
96441SOL     OW91219  11.898  12.636   5.836
96441SOL    HW191220  11.818  12.585   5.835
96441SOL    HW291221  11.891  12.693   5.912
96442SOL     OW91222   5.154   0.141   4.872
96442SOL    HW191223   5.241   0.129   4.910
96442SOL    HW291224   5.169   0.193   4.793
96443SOL     OW91225   5.136   4.715  11.174
96443SOL    HW191226   5.224   4.707  11.137
96443SOL    HW291227   5.140   4.793  11.230
96444SOL     OW91228   5.726   0.617  14.037
96444SOL    HW191229   5.738   0.610  13.942
96444SOL    HW291230   5.789   0.555  14.073
96445SOL     OW91231   7.145   9.502  10.338
96445SOL    HW191232   7.151   9.588  10.379
96445SOL    HW291233   7.177   9.441  10.405
96446SOL     OW91234  10.848  14.323   9.859
96446SOL    HW191235  10.815  14.353   9.774
96446SOL    HW291236  10.792  14.249   9.881
96447SOL     OW91237   7.276  11.081   3.804
96447SOL    HW191238   7.280  10.998   3.851
96447SOL    HW291239   7.312  11.145   3.865
96448SOL     OW91240  10.206   5.159  11.026
96448SOL    HW191241  10.228   5.193  10.939
96448SOL    HW291242  10.195   5.238  11.080
96449SOL     OW91243  12.510   8.853   0.565
96449SOL    HW191244  12.499   8.792   0.638
96449SOL    HW291245  12.554   8.801   0.498
96450SOL     OW91246   5.211   0.084  14.162
96450SOL    HW191247   5.285   0.114  14.109
96450SOL    HW291248   5.200   0.151  14.230
96451SOL     OW91249  14.250  13.560   0.058
96451SOL    HW191250  14.252  13.470   0.026
96451SOL    HW291251  14.181  13.602   0.008
96452SOL     OW91252   0.018   2.389   6.545
96452SOL    HW191253   0.070   2.344   6.612
96452SOL    HW291254   0.042   2.482   6.555
96453SOL     OW91255   0.380  10.210   5.083
96453SOL    HW191256   0.319  10.243   5.018
96453SOL    HW291257   0.423  10.136   5.040
96454SOL     OW91258   7.037   5.190   2.229
96454SOL    HW191259   6.975   5.149   2.168
96454SOL    HW291260   7.120   5.147   2.209
96455SOL     OW91261   8.661   7.915   3.003
96455SOL    HW191262   8.642   8.008   2.988
96455SOL    HW291263   8.578   7.871   2.988
96456SOL     OW91264   6.462   4.730   6.842
96456SOL    HW191265   6.540   4.697   6.797
96456SOL    HW291266   6.427   4.796   6.783
96457SOL     OW91267   0.888   2.418   2.879
96457SOL    HW191268   0.878   2.370   2.796
96457SOL    HW291269   0.980   2.408   2.902
96458SOL     OW91270  10.219   4.136  13.926
96458SOL    HW191271  10.133   4.097  13.937
96458SOL    HW291272  10.222   4.206  13.991
96459SOL     OW91273  14.173   8.107   7.986
96459SOL    HW191274  14.147   8.027   7.941
96459SOL    HW291275  14.090   8.146   8.015
96460SOL     OW91276  13.423   1.517  14.876
96460SOL    HW191277  13.433   1.452  14.806
96460SOL    HW291278  13.430   1.601  14.831
96461SOL     OW91279   1.606  13.790   0.212
96461SOL    HW191280   1.515  13.796   0.240
96461SOL    HW291281   1.601  13.774   0.118
96462SOL     OW91282   7.364  14.024   0.382
96462SOL    HW191283   7.384  13.986   0.468
96462SOL    HW291284   7.395  14.115   0.389
96463SOL     OW91285   7.618   0.832   7.600
96463SOL    HW191286   7.631   0.855   7.692
96463SOL    HW291287   7.554   0.896   7.569
96464SOL     OW91288  13.186   4.511   4.271
96464SOL    HW191289  13.253   4.579   4.277
96464SOL    HW291290  13.163   4.492   4.362
96465SOL     OW91291  14.111  12.944   6.298
96465SOL    HW191292  14.047  12.976   6.235
96465SOL    HW291293  14.188  12.924   6.245
96466SOL     OW91294   0.559   3.681   6.646
96466SOL    HW191295   0.580   3.724   6.729
96466SOL    HW291296   0.525   3.752   6.591
96467SOL     OW91297   0.203   8.258  14.139
96467SOL    HW191298   0.255   8.301  14.070
96467SOL    HW291299   0.119   8.303  14.136
96468SOL     OW91300  14.055   2.075   5.199
96468SOL    HW191301  14.030   1.994   5.245
96468SOL    HW291302  14.145   2.059   5.170
96469SOL     OW91303  11.806   8.364   7.357
96469SOL    HW191304  11.793   8.404   7.271
96469SOL    HW291305  11.898   8.340   7.359
96470SOL     OW91306   3.256   2.673   0.261
96470SOL    HW191307   3.222   2.612   0.327
96470SOL    HW291308   3.240   2.629   0.177
96471SOL     OW91309   0.549  12.135   7.650
96471SOL    HW191310   0.642  12.153   7.657
96471SOL    HW291311   0.507  12.211   7.690
96472SOL     OW91312   2.341  14.754  11.969
96472SOL    HW191313   2.298  14.839  11.962
96472SOL    HW291314   2.282  14.694  11.923
96473SOL     OW91315   0.951   8.324   3.012
96473SOL    HW191316   0.976   8.295   2.924
96473SOL    HW291317   0.866   8.282   3.027
96474SOL     OW91318   9.604   1.105   6.892
96474SOL    HW191319   9.647   1.061   6.819
96474SOL    HW291320   9.514   1.117   6.862
96475SOL     OW91321  14.589   5.652   8.250
96475SOL    HW191322  14.541   5.590   8.305
96475SOL    HW291323  14.602   5.728   8.306
96476SOL     OW91324   8.532  12.677   5.690
96476SOL    HW191325   8.527  12.586   5.659
96476SOL    HW291326   8.597  12.718   5.632
96477SOL     OW91327   3.430   4.096   6.702
96477SOL    HW191328   3.489   4.027   6.673
96477SOL    HW291329   3.449   4.170   6.645
96478SOL     OW91330  14.513   7.432   7.938
96478SOL    HW191331  14.554   7.483   7.868
96478SOL    HW291332  14.585   7.384   7.978
96479SOL     OW91333   3.231   1.080   2.449
96479SOL    HW191334   3.171   1.060   2.378
96479SOL    HW291335   3.282   1.000   2.462
96480SOL     OW91336   3.000  11.322   6.483
96480SOL    HW191337   3.065  11.392   6.483
96480SOL    HW291338   2.921  11.363   6.448
96481SOL     OW91339   2.940  10.005   6.027
96481SOL    HW191340   3.005   9.937   6.010
96481SOL    HW291341   2.986  10.087   6.008
96482SOL     OW91342   2.870  11.027   7.800
96482SOL    HW191343   2.878  11.053   7.892
96482SOL    HW291344   2.921  10.947   7.794
96483SOL     OW91345  11.058   0.851  14.248
96483SOL    HW191346  11.096   0.938  14.255
96483SOL    HW291347  11.025   0.846  14.158
96484SOL     OW91348   0.347   6.007  13.963
96484SOL    HW191349   0.367   5.936  14.023
96484SOL    HW291350   0.339   5.965  13.878
96485SOL     OW91351   2.003  10.805   4.377
96485SOL    HW191352   1.916  10.821   4.412
96485SOL    HW291353   1.988  10.752   4.299
96486SOL     OW91354   8.505  14.370   4.560
96486SOL    HW191355   8.427  14.368   4.506
96486SOL    HW291356   8.497  14.450   4.612
96487SOL     OW91357   1.282   2.258   7.507
96487SOL    HW191358   1.333   2.291   7.581
96487SOL    HW291359   1.313   2.168   7.495
96488SOL     OW91360  13.880   4.259   3.019
96488SOL    HW191361  13.854   4.181   3.068
96488SOL    HW291362  13.908   4.225   2.934
96489SOL     OW91363   8.404   9.481   5.352
96489SOL    HW191364   8.378   9.419   5.284
96489SOL    HW291365   8.333   9.478   5.416
96490SOL     OW91366   3.079   2.548   3.467
96490SOL    HW191367   3.110   2.576   3.553
96490SOL    HW291368   3.014   2.614   3.442
96491SOL     OW91369  10.579  12.158  11.236
96491SOL    HW191370  10.535  12.243  11.235
96491SOL    HW291371  10.672  12.179  11.228
96492SOL     OW91372  11.373  12.892  11.603
96492SOL    HW191373  11.302  12.950  11.575
96492SOL    HW291374  11.358  12.811  11.556
96493SOL     OW91375   5.265   1.020  12.938
96493SOL    HW191376   5.214   0.996  12.860
96493SOL    HW291377   5.256   1.115  12.944
96494SOL     OW91378   3.932   1.782   4.250
96494SOL    HW191379   4.020   1.752   4.271
96494SOL    HW291380   3.892   1.708   4.204
96495SOL     OW91381   7.286  12.399  12.592
96495SOL    HW191382   7.218  12.461  12.567
96495SOL    HW291383   7.276  12.326  12.532
96496SOL     OW91384   2.063   3.296  13.365
96496SOL    HW191385   2.032   3.352  13.295
96496SOL    HW291386   2.071   3.354  13.441
96497SOL     OW91387   1.824   2.883  14.723
96497SOL    HW191388   1.750   2.895  14.663
96497SOL    HW291389   1.897   2.859  14.666
96498SOL     OW91390   5.909   6.359   7.980
96498SOL    HW191391   5.822   6.320   7.975
96498SOL    HW291392   5.929   6.384   7.889
96499SOL     OW91393   4.774   0.009   6.316
96499SOL    HW191394   4.787   0.056   6.234
96499SOL    HW291395   4.856  14.840   6.330
96500SOL     OW91396   6.800   5.207  12.634
96500SOL    HW191397   6.887   5.227  12.669
96500SOL    HW291398   6.742   5.269  12.679
96501SOL     OW91399   3.627   8.254   6.113
96501SOL    HW191400   3.566   8.207   6.169
96501SOL    HW291401   3.705   8.199   6.109
96502SOL     OW91402   8.454   1.153  13.795
96502SOL    HW191403   8.476   1.167  13.887
96502SOL    HW291404   8.460   1.240  13.755
96503SOL     OW91405   2.177   9.834   5.765
96503SOL    HW191406   2.174   9.914   5.711
96503SOL    HW291407   2.268   9.828   5.794
96504SOL     OW91408   0.092  12.179  11.405
96504SOL    HW191409   0.033  12.254  11.397
96504SOL    HW291410   0.033  12.103  11.409
96505SOL     OW91411   7.465   5.712   3.895
96505SOL    HW191412   7.523   5.778   3.857
96505SOL    HW291413   7.402   5.762   3.947
96506SOL     OW91414   6.647   4.166  13.430
96506SOL    HW191415   6.560   4.170  13.469
96506SOL    HW291416   6.632   4.188  13.337
96507SOL     OW91417   7.795   8.146   8.519
96507SOL    HW191418   7.868   8.085   8.507
96507SOL    HW291419   7.723   8.106   8.471
96508SOL     OW91420   3.446   0.263  13.333
96508SOL    HW191421   3.409   0.349  13.353
96508SOL    HW291422   3.418   0.207  13.405
96509SOL     OW91423  10.768   2.599  10.895
96509SOL    HW191424  10.722   2.562  10.820
96509SOL    HW291425  10.790   2.688  10.868
96510SOL     OW91426   9.638   8.580  10.552
96510SOL    HW191427   9.656   8.542  10.637
96510SOL    HW291428   9.574   8.649  10.569
96511SOL     OW91429  11.479   1.190   7.414
96511SOL    HW191430  11.444   1.169   7.500
96511SOL    HW291431  11.416   1.152   7.353
96512SOL     OW91432   5.221  13.954  10.748
96512SOL    HW191433   5.209  14.042  10.712
96512SOL    HW291434   5.306  13.926  10.716
96513SOL     OW91435   4.791   0.037  10.592
96513SOL    HW191436   4.744  14.861  10.528
96513SOL    HW291437   4.853  14.854  10.633
96514SOL     OW91438   3.877   5.590   3.142
96514SOL    HW191439   3.934   5.645   3.196
96514SOL    HW291440   3.849   5.647   3.071
96515SOL     OW91441  10.649   7.973   1.318
96515SOL    HW191442  10.670   8.002   1.406
96515SOL    HW291443  10.651   7.877   1.324
96516SOL     OW91444   2.689   5.894  11.405
96516SOL    HW191445   2.625   5.830  11.375
96516SOL    HW291446   2.760   5.889  11.342
96517SOL     OW91447  13.243  11.828   5.559
96517SOL    HW191448  13.174  11.816   5.624
96517SOL    HW291449  13.236  11.751   5.502
96518SOL     OW91450   0.322  11.104   6.177
96518SOL    HW191451   0.373  11.043   6.124
96518SOL    HW291452   0.293  11.052   6.252
96519SOL     OW91453   9.934   9.643   4.602
96519SOL    HW191454   9.851   9.667   4.561
96519SOL    HW291455   9.925   9.550   4.622
96520SOL     OW91456   9.493   8.986   4.330
96520SOL    HW191457   9.442   8.911   4.300
96520SOL    HW291458   9.527   9.026   4.250
96521SOL     OW91459  11.248   7.664   0.799
96521SOL    HW191460  11.317   7.597   0.799
96521SOL    HW291461  11.275   7.726   0.732
96522SOL     OW91462   0.661  13.743  12.180
96522SOL    HW191463   0.723  13.809  12.211
96522SOL    HW291464   0.619  13.711  12.259
96523SOL     OW91465   8.905  12.792   9.995
96523SOL    HW191466   8.943  12.734  10.061
96523SOL    HW291467   8.852  12.853  10.044
96524SOL     OW91468  11.315   9.150   8.103
96524SOL    HW191469  11.395   9.196   8.080
96524SOL    HW291470  11.250   9.219   8.118
96525SOL     OW91471   2.786   9.003  10.997
96525SOL    HW191472   2.861   8.944  10.997
96525SOL    HW291473   2.787   9.043  11.084
96526SOL     OW91474  13.182   0.246   7.775
96526SOL    HW191475  13.136   0.211   7.851
96526SOL    HW291476  13.114   0.294   7.727
96527SOL     OW91477   2.828   3.424   5.228
96527SOL    HW191478   2.899   3.366   5.258
96527SOL    HW291479   2.824   3.409   5.134
96528SOL     OW91480   1.494   2.624   4.490
96528SOL    HW191481   1.538   2.557   4.437
96528SOL    HW291482   1.478   2.696   4.430
96529SOL     OW91483   6.277   3.359   3.321
96529SOL    HW191484   6.361   3.314   3.324
96529SOL    HW291485   6.245   3.358   3.411
96530SOL     OW91486   0.253  13.213   0.638
96530SOL    HW191487   0.283  13.181   0.553
96530SOL    HW291488   0.303  13.162   0.702
96531SOL     OW91489   9.518  12.421   8.562
96531SOL    HW191490   9.560  12.403   8.646
96531SOL    HW291491   9.549  12.352   8.504
96532SOL     OW91492   2.126   3.890   0.685
96532SOL    HW191493   2.152   3.806   0.723
96532SOL    HW291494   2.135   3.952   0.758
96533SOL     OW91495  13.179   4.319   2.734
96533SOL    HW191496  13.088   4.344   2.750
96533SOL    HW291497  13.230   4.396   2.762
96534SOL     OW91498   7.790  13.459  12.035
96534SOL    HW191499   7.754  13.543  12.063
96534SOL    HW291500   7.769  13.454  11.942
96535SOL     OW91501  12.249  12.529  13.078
96535SOL    HW191502  12.296  12.458  13.123
96535SOL    HW291503  12.303  12.607  13.093
96536SOL     OW91504   6.119  11.990  11.664
96536SOL    HW191505   6.048  11.959  11.607
96536SOL    HW291506   6.077  12.052  11.723
96537SOL     OW91507   1.566  10.210   4.913
96537SOL    HW191508   1.535  10.256   4.992
96537SOL    HW291509   1.653  10.178   4.936
96538SOL     OW91510   9.864  13.927   2.429
96538SOL    HW191511   9.917  13.997   2.393
96538SOL    HW291512   9.838  13.958   2.516
96539SOL     OW91513   0.219   6.492   9.048
96539SOL    HW191514   0.150   6.425   9.039
96539SOL    HW291515   0.187   6.548   9.119
96540SOL     OW91516   1.602   2.970  11.153
96540SOL    HW191517   1.556   3.051  11.174
96540SOL    HW291518   1.694   2.996  11.145
96541SOL     OW91519  10.485   2.431   2.459
96541SOL    HW191520  10.470   2.385   2.376
96541SOL    HW291521  10.508   2.362   2.521
96542SOL     OW91522  10.127  10.244  11.497
96542SOL    HW191523  10.071  10.168  11.512
96542SOL    HW291524  10.133  10.251  11.401
96543SOL     OW91525   4.922  11.143   9.322
96543SOL    HW191526   4.841  11.091   9.332
96543SOL    HW291527   4.962  11.140   9.408
96544SOL     OW91528   6.802  11.118  14.032
96544SOL    HW191529   6.747  11.114  14.110
96544SOL    HW291530   6.788  11.034  13.988
96545SOL     OW91531  14.479  12.547   6.250
96545SOL    HW191532  14.558  12.495   6.265
96545SOL    HW291533  14.416  12.513   6.313
96546SOL     OW91534   4.200   7.114   7.991
96546SOL    HW191535   4.290   7.124   7.961
96546SOL    HW291536   4.187   7.019   7.998
96547SOL     OW91537   1.151   0.379   3.900
96547SOL    HW191538   1.074   0.403   3.849
96547SOL    HW291539   1.119   0.316   3.964
96548SOL     OW91540   1.345  10.866  12.597
96548SOL    HW191541   1.266  10.861  12.544
96548SOL    HW291542   1.384  10.951  12.573
96549SOL     OW91543   2.684   6.803   1.905
96549SOL    HW191544   2.677   6.806   1.809
96549SOL    HW291545   2.655   6.889   1.934
96550SOL     OW91546  13.368   4.033   5.036
96550SOL    HW191547  13.363   3.992   5.123
96550SOL    HW291548  13.459   4.019   5.009
96551SOL     OW91549  13.172  10.684  13.437
96551SOL    HW191550  13.130  10.634  13.507
96551SOL    HW291551  13.125  10.768  13.436
96552SOL     OW91552  13.045   8.267   9.128
96552SOL    HW191553  12.958   8.232   9.149
96552SOL    HW291554  13.058   8.336   9.193
96553SOL     OW91555   4.122  13.077   3.779
96553SOL    HW191556   4.181  13.026   3.724
96553SOL    HW291557   4.169  13.087   3.862
96554SOL     OW91558  12.405   5.711  13.755
96554SOL    HW191559  12.467   5.776  13.723
96554SOL    HW291560  12.437   5.687  13.842
96555SOL     OW91561  10.342   1.399   1.360
96555SOL    HW191562  10.380   1.461   1.423
96555SOL    HW291563  10.366   1.313   1.394
96556SOL     OW91564   3.217  11.785  10.854
96556SOL    HW191565   3.301  11.750  10.825
96556SOL    HW291566   3.235  11.823  10.940
96557SOL     OW91567   2.121   4.542  12.196
96557SOL    HW191568   2.096   4.598  12.270
96557SOL    HW291569   2.146   4.604  12.127
96558SOL     OW91570   5.114   1.467   9.405
96558SOL    HW191571   5.075   1.527   9.468
96558SOL    HW291572   5.097   1.507   9.319
96559SOL     OW91573   7.661  14.826   2.068
96559SOL    HW191574   7.690   0.036   2.042
96559SOL    HW291575   7.640  14.834   2.161
96560SOL     OW91576  10.051  10.944   6.623
96560SOL    HW191577   9.967  10.932   6.579
96560SOL    HW291578  10.114  10.903   6.564
96561SOL     OW91579  10.879   4.870   5.913
96561SOL    HW191580  10.965   4.871   5.872
96561SOL    HW291581  10.882   4.797   5.974
96562SOL     OW91582   3.862  13.756  10.800
96562SOL    HW191583   3.806  13.810  10.856
96562SOL    HW291584   3.803  13.716  10.737
96563SOL     OW91585  11.988  11.308   5.191
96563SOL    HW191586  11.992  11.249   5.116
96563SOL    HW291587  11.920  11.272   5.247
96564SOL     OW91588  14.540   2.156   3.628
96564SOL    HW191589  14.587   2.230   3.590
96564SOL    HW291590  14.572   2.151   3.719
96565SOL     OW91591   9.392  11.937   2.448
96565SOL    HW191592   9.450  11.966   2.378
96565SOL    HW291593   9.419  11.847   2.466
96566SOL     OW91594   6.281   9.402  12.097
96566SOL    HW191595   6.362   9.451  12.111
96566SOL    HW291596   6.290   9.324  12.153
96567SOL     OW91597   7.801   4.062   3.401
96567SOL    HW191598   7.875   4.074   3.460
96567SOL    HW291599   7.812   4.128   3.333
96568SOL     OW91600  12.209  11.289   1.949
96568SOL    HW191601  12.162  11.360   1.993
96568SOL    HW291602  12.183  11.210   1.996
96569SOL     OW91603   0.637   2.076   7.681
96569SOL    HW191604   0.598   2.002   7.635
96569SOL    HW291605   0.564   2.116   7.728
96570SOL     OW91606   5.146   1.152   1.542
96570SOL    HW191607   5.059   1.154   1.500
96570SOL    HW291608   5.148   1.068   1.587
96571SOL     OW91609   4.560   8.592  12.474
96571SOL    HW191610   4.537   8.506  12.509
96571SOL    HW291611   4.656   8.593  12.475
96572SOL     OW91612   5.016   5.353  14.237
96572SOL    HW191613   5.013   5.392  14.324
96572SOL    HW291614   4.926   5.326  14.219
96573SOL     OW91615  14.052   5.579   7.537
96573SOL    HW191616  14.024   5.670   7.550
96573SOL    HW291617  14.063   5.571   7.442
96574SOL     OW91618  12.390   9.014   2.679
96574SOL    HW191619  12.405   8.935   2.731
96574SOL    HW291620  12.356   9.078   2.741
96575SOL     OW91621   4.506  10.134   7.658
96575SOL    HW191622   4.584  10.163   7.706
96575SOL    HW291623   4.463  10.216   7.632
96576SOL     OW91624  14.578   4.746   8.069
96576SOL    HW191625  14.674   4.745   8.062
96576SOL    HW291626  14.553   4.654   8.077
96577SOL     OW91627   1.595   0.803   3.701
96577SOL    HW191628   1.559   0.832   3.784
96577SOL    HW291629   1.528   0.744   3.665
96578SOL     OW91630   8.851  14.058  14.370
96578SOL    HW191631   8.864  14.075  14.277
96578SOL    HW291632   8.792  14.127  14.399
96579SOL     OW91633   3.320   7.638   0.319
96579SOL    HW191634   3.368   7.656   0.400
96579SOL    HW291635   3.248   7.701   0.320
96580SOL     OW91636  13.563  12.363  13.470
96580SOL    HW191637  13.595  12.275  13.494
96580SOL    HW291638  13.498  12.384  13.538
96581SOL     OW91639   3.069   3.539   6.263
96581SOL    HW191640   3.012   3.470   6.298
96581SOL    HW291641   3.019   3.619   6.275
96582SOL     OW91642  14.049   1.653   9.465
96582SOL    HW191643  14.143   1.644   9.481
96582SOL    HW291644  14.020   1.566   9.439
96583SOL     OW91645   8.996   5.674  12.060
96583SOL    HW191646   9.082   5.689  12.020
96583SOL    HW291647   8.936   5.670  11.986
96584SOL     OW91648   6.032  14.449   3.551
96584SOL    HW191649   5.976  14.374   3.571
96584SOL    HW291650   6.083  14.421   3.475
96585SOL     OW91651  12.628   1.633   5.995
96585SOL    HW191652  12.721   1.630   6.015
96585SOL    HW291653  12.616   1.714   5.945
96586SOL     OW91654   5.091   1.985   2.226
96586SOL    HW191655   5.156   2.000   2.158
96586SOL    HW291656   5.036   1.915   2.192
96587SOL     OW91657  11.604  10.648  13.184
96587SOL    HW191658  11.605  10.743  13.199
96587SOL    HW291659  11.686  10.630  13.139
96588SOL     OW91660   8.879  13.719  12.892
96588SOL    HW191661   8.811  13.669  12.937
96588SOL    HW291662   8.898  13.667  12.814
96589SOL     OW91663  12.930   6.718  13.713
96589SOL    HW191664  12.907   6.734  13.805
96589SOL    HW291665  13.018   6.679  13.718
96590SOL     OW91666  10.516   9.398   3.991
96590SOL    HW191667  10.520   9.303   4.005
96590SOL    HW291668  10.507   9.408   3.897
96591SOL     OW91669  11.503  13.678   9.554
96591SOL    HW191670  11.588  13.651   9.521
96591SOL    HW291671  11.478  13.608   9.615
96592SOL     OW91672   0.550  11.797   4.800
96592SOL    HW191673   0.492  11.778   4.726
96592SOL    HW291674   0.635  11.811   4.760
96593SOL     OW91675   0.675   5.612  11.076
96593SOL    HW191676   0.755   5.576  11.040
96593SOL    HW291677   0.702   5.694  11.118
96594SOL     OW91678   0.524   8.641   1.921
96594SOL    HW191679   0.601   8.593   1.952
96594SOL    HW291680   0.452   8.611   1.978
96595SOL     OW91681   5.142   3.524   7.567
96595SOL    HW191682   5.096   3.606   7.584
96595SOL    HW291683   5.210   3.520   7.634
96596SOL     OW91684  12.306   5.443  12.066
96596SOL    HW191685  12.364   5.452  11.991
96596SOL    HW291686  12.318   5.524  12.116
96597SOL     OW91687  10.189   3.113   4.627
96597SOL    HW191688  10.272   3.105   4.673
96597SOL    HW291689  10.122   3.099   4.695
96598SOL     OW91690   0.487   7.648   6.162
96598SOL    HW191691   0.424   7.599   6.215
96598SOL    HW291692   0.546   7.582   6.127
96599SOL     OW91693   6.429  12.576  11.140
96599SOL    HW191694   6.399  12.648  11.194
96599SOL    HW291695   6.349  12.527  11.118
96600SOL     OW91696  10.806  10.898   3.834
96600SOL    HW191697  10.789  10.991   3.817
96600SOL    HW291698  10.844  10.897   3.922
96601SOL     OW91699   4.430  13.857   0.692
96601SOL    HW191700   4.379  13.813   0.623
96601SOL    HW291701   4.428  13.796   0.766
96602SOL     OW91702   6.183   4.888   3.995
96602SOL    HW191703   6.276   4.883   3.971
96602SOL    HW291704   6.166   4.981   4.007
96603SOL     OW91705   8.516  14.002   8.665
96603SOL    HW191706   8.459  14.057   8.612
96603SOL    HW291707   8.605  14.030   8.644
96604SOL     OW91708  12.176   9.813   3.113
96604SOL    HW191709  12.184   9.718   3.121
96604SOL    HW291710  12.191   9.831   3.020
96605SOL     OW91711  10.801   5.581  13.884
96605SOL    HW191712  10.849   5.565  13.965
96605SOL    HW291713  10.717   5.617  13.912
96606SOL     OW91714   3.506   0.333   1.204
96606SOL    HW191715   3.530   0.338   1.297
96606SOL    HW291716   3.571   0.389   1.160
96607SOL     OW91717   8.973   4.400   0.430
96607SOL    HW191718   8.925   4.346   0.367
96607SOL    HW291719   8.925   4.390   0.512
96608SOL     OW91720   0.394  11.176   8.060
96608SOL    HW191721   0.427  11.211   7.977
96608SOL    HW291722   0.338  11.103   8.035
96609SOL     OW91723   1.325   0.071  11.063
96609SOL    HW191724   1.300   0.155  11.023
96609SOL    HW291725   1.393   0.037  11.005
96610SOL     OW91726   1.224   9.128  13.879
96610SOL    HW191727   1.149   9.150  13.825
96610SOL    HW291728   1.195   9.054  13.932
96611SOL     OW91729   5.339   8.411   3.444
96611SOL    HW191730   5.363   8.492   3.488
96611SOL    HW291731   5.400   8.404   3.371
96612SOL     OW91732  10.165   3.150   9.001
96612SOL    HW191733  10.230   3.218   9.015
96612SOL    HW291734  10.212   3.079   8.959
96613SOL     OW91735   6.323   4.633  13.753
96613SOL    HW191736   6.369   4.654  13.835
96613SOL    HW291737   6.380   4.665  13.684
96614SOL     OW91738  12.428   7.995  13.532
96614SOL    HW191739  12.460   7.944  13.606
96614SOL    HW291740  12.448   7.941  13.455
96615SOL     OW91741   7.700   0.599   5.753
96615SOL    HW191742   7.617   0.601   5.705
96615SOL    HW291743   7.741   0.517   5.727
96616SOL     OW91744  10.871  11.181   0.852
96616SOL    HW191745  10.887  11.196   0.945
96616SOL    HW291746  10.948  11.133   0.822
96617SOL     OW91747  14.563   7.595  13.482
96617SOL    HW191748  14.523   7.538  13.416
96617SOL    HW291749  14.490   7.619  13.540
96618SOL     OW91750  11.214  13.856   9.558
96618SOL    HW191751  11.203  13.808   9.640
96618SOL    HW291752  11.305  13.886   9.560
96619SOL     OW91753   4.172  13.248   1.446
96619SOL    HW191754   4.122  13.324   1.416
96619SOL    HW291755   4.225  13.223   1.370
96620SOL     OW91756  12.381   8.576  14.486
96620SOL    HW191757  12.471   8.548  14.499
96620SOL    HW291758  12.333   8.536  14.558
96621SOL     OW91759   5.634   6.347   2.369
96621SOL    HW191760   5.608   6.259   2.395
96621SOL    HW291761   5.704   6.334   2.306
96622SOL     OW91762  10.242   3.131  13.478
96622SOL    HW191763  10.302   3.192  13.436
96622SOL    HW291764  10.295   3.053  13.496
96623SOL     OW91765   6.628   7.150   2.755
96623SOL    HW191766   6.578   7.069   2.744
96623SOL    HW291767   6.578   7.216   2.707
96624SOL     OW91768  10.528   6.521   2.786
96624SOL    HW191769  10.502   6.455   2.721
96624SOL    HW291770  10.593   6.476   2.841
96625SOL     OW91771   1.131  11.345   6.018
96625SOL    HW191772   1.077  11.276   5.981
96625SOL    HW291773   1.070  11.416   6.038
96626SOL     OW91774  11.444  10.719   5.856
96626SOL    HW191775  11.350  10.702   5.869
96626SOL    HW291776  11.458  10.804   5.898
96627SOL     OW91777   5.173  10.282   4.836
96627SOL    HW191778   5.255  10.233   4.843
96627SOL    HW291779   5.116  10.226   4.783
96628SOL     OW91780  11.676  13.839   4.176
96628SOL    HW191781  11.655  13.878   4.261
96628SOL    HW291782  11.771  13.850   4.168
96629SOL     OW91783   9.895  10.987   4.839
96629SOL    HW191784   9.935  10.988   4.925
96629SOL    HW291785   9.917  10.901   4.803
96630SOL     OW91786   4.179   7.976   6.451
96630SOL    HW191787   4.128   7.902   6.415
96630SOL    HW291788   4.225   8.012   6.375
96631SOL     OW91789   3.507   0.186   6.774
96631SOL    HW191790   3.495   0.124   6.846
96631SOL    HW291791   3.423   0.186   6.729
96632SOL     OW91792   4.986  11.415   8.053
96632SOL    HW191793   5.011  11.497   8.096
96632SOL    HW291794   4.940  11.443   7.974
96633SOL     OW91795  10.834   9.023  11.575
96633SOL    HW191796  10.883   9.079  11.514
96633SOL    HW291797  10.742   9.045  11.559
96634SOL     OW91798  14.022   6.708   2.911
96634SOL    HW191799  14.064   6.754   2.984
96634SOL    HW291800  14.004   6.777   2.847
96635SOL     OW91801   0.602  10.020  10.283
96635SOL    HW191802   0.524  10.012  10.228
96635SOL    HW291803   0.674  10.033  10.221
96636SOL     OW91804   7.007  11.954   6.328
96636SOL    HW191805   6.971  12.009   6.259
96636SOL    HW291806   6.989  11.864   6.298
96637SOL     OW91807   0.686   7.335  11.843
96637SOL    HW191808   0.749   7.268  11.817
96637SOL    HW291809   0.638   7.355  11.762
96638SOL     OW91810   1.799   4.299   6.071
96638SOL    HW191811   1.733   4.329   6.008
96638SOL    HW291812   1.755   4.305   6.156
96639SOL     OW91813   9.657   8.091   9.039
96639SOL    HW191814   9.593   8.020   9.049
96639SOL    HW291815   9.737   8.056   9.078
96640SOL     OW91816   9.184  14.002   8.496
96640SOL    HW191817   9.112  13.959   8.542
96640SOL    HW291818   9.248  13.932   8.482
96641SOL     OW91819   6.333   8.020   5.008
96641SOL    HW191820   6.343   8.112   5.034
96641SOL    HW291821   6.273   8.023   4.934
96642SOL     OW91822   9.058   2.830  13.918
96642SOL    HW191823   9.084   2.755  13.972
96642SOL    HW291824   9.140   2.871  13.893
96643SOL     OW91825   4.377   1.183   1.915
96643SOL    HW191826   4.471   1.189   1.930
96643SOL    HW291827   4.364   1.219   1.827
96644SOL     OW91828   0.489   9.202  10.087
96644SOL    HW191829   0.522   9.292  10.094
96644SOL    HW291830   0.492   9.183   9.994
96645SOL     OW91831   5.639   9.872  10.592
96645SOL    HW191832   5.646   9.861  10.687
96645SOL    HW291833   5.550   9.846  10.571
96646SOL     OW91834   3.743  14.129   4.079
96646SOL    HW191835   3.661  14.170   4.051
96646SOL    HW291836   3.759  14.060   4.015
96647SOL     OW91837   4.805  12.138   8.133
96647SOL    HW191838   4.790  12.066   8.194
96647SOL    HW291839   4.860  12.200   8.182
96648SOL     OW91840   4.019   6.157  13.773
96648SOL    HW191841   4.112   6.150  13.749
96648SOL    HW291842   3.975   6.093  13.718
96649SOL     OW91843  11.086  14.561   3.259
96649SOL    HW191844  11.040  14.479   3.241
96649SOL    HW291845  11.174  14.548   3.223
96650SOL     OW91846   8.407   8.674   6.867
96650SOL    HW191847   8.471   8.669   6.797
96650SOL    HW291848   8.363   8.758   6.854
96651SOL     OW91849   4.066   9.727   7.442
96651SOL    HW191850   4.120   9.725   7.363
96651SOL    HW291851   4.127   9.708   7.513
96652SOL     OW91852  12.341   8.080   7.538
96652SOL    HW191853  12.327   8.118   7.625
96652SOL    HW291854  12.429   8.111   7.513
96653SOL     OW91855   7.274   7.622   3.098
96653SOL    HW191856   7.256   7.536   3.135
96653SOL    HW291857   7.259   7.683   3.171
96654SOL     OW91858   8.356   4.694   2.498
96654SOL    HW191859   8.282   4.635   2.489
96654SOL    HW291860   8.319   4.782   2.485
96655SOL     OW91861   6.216  12.172   1.683
96655SOL    HW191862   6.284  12.121   1.638
96655SOL    HW291863   6.223  12.145   1.775
96656SOL     OW91864  13.594  10.789   9.105
96656SOL    HW191865  13.682  10.756   9.121
96656SOL    HW291866  13.550  10.782   9.189
96657SOL     OW91867   3.902   3.513   8.634
96657SOL    HW191868   3.867   3.474   8.714
96657SOL    HW291869   3.824   3.545   8.588
96658SOL     OW91870   2.018  11.788   0.462
96658SOL    HW191871   1.973  11.723   0.516
96658SOL    HW291872   2.094  11.742   0.427
96659SOL     OW91873   5.327   1.802   0.793
96659SOL    HW191874   5.293   1.887   0.819
96659SOL    HW291875   5.402   1.823   0.737
96660SOL     OW91876  10.467   7.046   8.572
96660SOL    HW191877  10.529   7.009   8.636
96660SOL    HW291878  10.464   6.981   8.502
96661SOL     OW91879   8.511   3.266  11.593
96661SOL    HW191880   8.501   3.221  11.677
96661SOL    HW291881   8.605   3.264  11.576
96662SOL     OW91882   0.733   7.261   0.281
96662SOL    HW191883   0.712   7.280   0.373
96662SOL    HW291884   0.678   7.186   0.260
96663SOL     OW91885   4.011   3.592  11.695
96663SOL    HW191886   4.036   3.609  11.604
96663SOL    HW291887   4.071   3.646  11.747
96664SOL     OW91888   3.101  12.513   9.305
96664SOL    HW191889   3.187  12.471   9.313
96664SOL    HW291890   3.103  12.556   9.220
96665SOL     OW91891   3.920  13.112  14.796
96665SOL    HW191892   3.915  13.081  14.705
96665SOL    HW291893   3.973  13.045  14.840
96666SOL     OW91894  13.488   2.443   3.729
96666SOL    HW191895  13.521   2.473   3.814
96666SOL    HW291896  13.554   2.472   3.666
96667SOL     OW91897   5.923   0.838   2.192
96667SOL    HW191898   5.925   0.745   2.216
96667SOL    HW291899   5.900   0.882   2.274
96668SOL     OW91900  10.518  13.329   3.508
96668SOL    HW191901  10.531  13.250   3.455
96668SOL    HW291902  10.451  13.305   3.572
96669SOL     OW91903   6.953  13.401  12.468
96669SOL    HW191904   6.902  13.416  12.388
96669SOL    HW291905   6.897  13.346  12.522
96670SOL     OW91906  14.323   4.840  10.626
96670SOL    HW191907  14.230   4.862  10.634
96670SOL    HW291908  14.353   4.887  10.549
96671SOL     OW91909   1.777   8.218   4.543
96671SOL    HW191910   1.871   8.231   4.545
96671SOL    HW291911   1.761   8.171   4.461
96672SOL     OW91912   1.746   6.489  11.970
96672SOL    HW191913   1.697   6.570  11.987
96672SOL    HW291914   1.836   6.511  11.993
96673SOL     OW91915  11.799   1.966   5.562
96673SOL    HW191916  11.804   1.974   5.467
96673SOL    HW291917  11.734   2.032   5.588
96674SOL     OW91918  14.536   1.249  11.826
96674SOL    HW191919  14.477   1.272  11.754
96674SOL    HW291920  14.540   1.154  11.823
96675SOL     OW91921  11.286   4.073   5.368
96675SOL    HW191922  11.241   4.152   5.398
96675SOL    HW291923  11.294   4.084   5.273
96676SOL     OW91924   4.673  13.717   4.952
96676SOL    HW191925   4.653  13.646   4.892
96676SOL    HW291926   4.587  13.748   4.981
96677SOL     OW91927   3.569  11.423   4.944
96677SOL    HW191928   3.512  11.401   5.017
96677SOL    HW291929   3.613  11.340   4.922
96678SOL     OW91930  10.649  11.760  13.004
96678SOL    HW191931  10.580  11.727  12.946
96678SOL    HW291932  10.633  11.855  13.008
96679SOL     OW91933   1.734   4.929   1.448
96679SOL    HW191934   1.764   4.997   1.388
96679SOL    HW291935   1.699   4.860   1.392
96680SOL     OW91936  10.418  13.544   6.109
96680SOL    HW191937  10.446  13.460   6.145
96680SOL    HW291938  10.490  13.604   6.129
96681SOL     OW91939  14.612   3.887  12.815
96681SOL    HW191940  14.671   3.945  12.865
96681SOL    HW291941  14.645   3.891  12.726
96682SOL     OW91942   9.393   5.989   4.374
96682SOL    HW191943   9.315   5.965   4.424
96682SOL    HW291944   9.461   5.929   4.406
96683SOL     OW91945   4.112   7.425   5.782
96683SOL    HW191946   4.179   7.408   5.848
96683SOL    HW291947   4.127   7.516   5.755
96684SOL     OW91948   7.512   0.794   6.633
96684SOL    HW191949   7.421   0.789   6.663
96684SOL    HW291950   7.508   0.768   6.541
96685SOL     OW91951   7.687  13.218  12.771
96685SOL    HW191952   7.736  13.272  12.709
96685SOL    HW291953   7.597  13.222  12.741
96686SOL     OW91954  14.382   4.931   8.143
96686SOL    HW191955  14.455   4.873   8.120
96686SOL    HW291956  14.397   4.954   8.234
96687SOL     OW91957   1.750   9.836   0.449
96687SOL    HW191958   1.757   9.757   0.395
96687SOL    HW291959   1.697   9.896   0.397
96688SOL     OW91960   7.670  10.862   8.085
96688SOL    HW191961   7.654  10.771   8.060
96688SOL    HW291962   7.590  10.891   8.127
96689SOL     OW91963  11.381   7.783   6.744
96689SOL    HW191964  11.395   7.876   6.730
96689SOL    HW291965  11.456   7.755   6.797
96690SOL     OW91966  13.160  10.475   2.489
96690SOL    HW191967  13.252  10.480   2.512
96690SOL    HW291968  13.140  10.559   2.449
96691SOL     OW91969   1.833  10.148   5.314
96691SOL    HW191970   1.802  10.064   5.279
96691SOL    HW291971   1.777  10.164   5.390
96692SOL     OW91972   6.182  14.136  14.108
96692SOL    HW191973   6.095  14.127  14.148
96692SOL    HW291974   6.243  14.129  14.182
96693SOL     OW91975  10.881   4.862   9.863
96693SOL    HW191976  10.789   4.886   9.875
96693SOL    HW291977  10.919   4.937   9.816
96694SOL     OW91978   4.083  14.520  14.004
96694SOL    HW191979   4.098  14.426  14.019
96694SOL    HW291980   4.028  14.548  14.077
96695SOL     OW91981   9.359   4.737  11.022
96695SOL    HW191982   9.351   4.654  11.068
96695SOL    HW291983   9.450   4.740  10.993
96696SOL     OW91984   5.664  14.605   1.156
96696SOL    HW191985   5.648  14.558   1.074
96696SOL    HW291986   5.704  14.688   1.128
96697SOL     OW91987   7.907  11.065   6.294
96697SOL    HW191988   7.914  11.082   6.387
96697SOL    HW291989   7.890  10.971   6.288
96698SOL     OW91990   0.272   9.388   9.388
96698SOL    HW191991   0.192   9.345   9.357
96698SOL    HW291992   0.327   9.395   9.310
96699SOL     OW91993   8.265   4.127  14.473
96699SOL    HW191994   8.275   4.042  14.429
96699SOL    HW291995   8.223   4.183  14.408
96700SOL     OW91996   2.257   5.958   4.779
96700SOL    HW191997   2.254   6.015   4.855
96700SOL    HW291998   2.343   5.916   4.784
96701SOL     OW91999   0.469  10.617   9.682
96701SOL    HW192000   0.479  10.692   9.741
96701SOL    HW292001   0.388  10.574   9.712
96702SOL     OW92002   0.430  11.537   2.859
96702SOL    HW192003   0.525  11.548   2.862
96702SOL    HW292004   0.399  11.606   2.801
96703SOL     OW92005   2.459   2.627   2.302
96703SOL    HW192006   2.479   2.538   2.272
96703SOL    HW292007   2.375   2.618   2.347
96704SOL     OW92008   6.989   1.402   7.600
96704SOL    HW192009   6.911   1.348   7.612
96704SOL    HW292010   7.057   1.339   7.572
96705SOL     OW92011   8.723   6.390   5.504
96705SOL    HW192012   8.791   6.406   5.569
96705SOL    HW292013   8.736   6.299   5.478
96706SOL     OW92014   5.060   1.048  10.690
96706SOL    HW192015   5.088   1.136  10.714
96706SOL    HW292016   4.975   1.038  10.733
96707SOL     OW92017   1.527  14.214   8.834
96707SOL    HW192018   1.504  14.215   8.927
96707SOL    HW292019   1.489  14.132   8.801
96708SOL     OW92020   2.766   5.064   3.290
96708SOL    HW192021   2.712   4.996   3.249
96708SOL    HW292022   2.716   5.090   3.367
96709SOL     OW92023  12.182  12.101  12.787
96709SOL    HW192024  12.115  12.049  12.832
96709SOL    HW292025  12.183  12.184  12.834
96710SOL     OW92026   4.457   3.417  11.450
96710SOL    HW192027   4.405   3.484  11.406
96710SOL    HW292028   4.534   3.406  11.394
96711SOL     OW92029  10.401   1.767  13.833
96711SOL    HW192030  10.317   1.737  13.797
96711SOL    HW292031  10.464   1.748  13.763
96712SOL     OW92032   8.112   2.141   2.974
96712SOL    HW192033   8.168   2.076   3.016
96712SOL    HW292034   8.167   2.177   2.904
96713SOL     OW92035  14.809  11.521   8.722
96713SOL    HW192036  14.736  11.509   8.782
96713SOL    HW292037  14.774  11.576   8.652
96714SOL     OW92038   6.175   8.680  10.685
96714SOL    HW192039   6.263   8.702  10.716
96714SOL    HW292040   6.145   8.760  10.641
96715SOL     OW92041   9.646   6.496   0.510
96715SOL    HW192042   9.658   6.458   0.597
96715SOL    HW292043   9.693   6.437   0.452
96716SOL     OW92044  12.501  11.593  12.166
96716SOL    HW192045  12.410  11.609  12.191
96716SOL    HW292046  12.525  11.670  12.114
96717SOL     OW92047   3.440   8.920   2.082
96717SOL    HW192048   3.466   8.837   2.041
96717SOL    HW292049   3.474   8.987   2.024
96718SOL     OW92050  11.273  13.242  14.311
96718SOL    HW192051  11.206  13.266  14.374
96718SOL    HW292052  11.225  13.227  14.229
96719SOL     OW92053   0.410   2.059   1.754
96719SOL    HW192054   0.471   2.130   1.772
96719SOL    HW292055   0.459   1.979   1.772
96720SOL     OW92056  13.263   1.932   7.620
96720SOL    HW192057  13.263   1.836   7.622
96720SOL    HW292058  13.346   1.957   7.660
96721SOL     OW92059  13.088   8.742   7.288
96721SOL    HW192060  13.027   8.695   7.231
96721SOL    HW292061  13.151   8.676   7.316
96722SOL     OW92062   8.870   1.563  12.004
96722SOL    HW192063   8.848   1.592  11.915
96722SOL    HW292064   8.881   1.645  12.053
96723SOL     OW92065   0.493   2.801   6.852
96723SOL    HW192066   0.477   2.859   6.927
96723SOL    HW292067   0.585   2.777   6.859
96724SOL     OW92068   4.972   8.762   0.050
96724SOL    HW192069   4.900   8.701   0.064
96724SOL    HW292070   5.000   8.788   0.138
96725SOL     OW92071   2.678   2.967   4.652
96725SOL    HW192072   2.663   3.057   4.623
96725SOL    HW292073   2.746   2.934   4.594
96726SOL     OW92074   1.880  11.407   6.164
96726SOL    HW192075   1.843  11.486   6.202
96726SOL    HW292076   1.805  11.361   6.125
96727SOL     OW92077   0.959   1.210   8.978
96727SOL    HW192078   0.995   1.273   8.916
96727SOL    HW292079   1.035   1.181   9.030
96728SOL     OW92080   3.397   4.189   8.408
96728SOL    HW192081   3.408   4.157   8.497
96728SOL    HW292082   3.384   4.284   8.418
96729SOL     OW92083   0.888   5.258   1.717
96729SOL    HW192084   0.911   5.277   1.808
96729SOL    HW292085   0.884   5.344   1.675
96730SOL     OW92086   6.680  10.464   5.540
96730SOL    HW192087   6.730  10.505   5.469
96730SOL    HW292088   6.640  10.387   5.499
96731SOL     OW92089  10.282  10.704   1.569
96731SOL    HW192090  10.193  10.695   1.537
96731SOL    HW292091  10.316  10.782   1.524
96732SOL     OW92092   6.307  13.456   5.232
96732SOL    HW192093   6.392  13.464   5.190
96732SOL    HW292094   6.316  13.381   5.291
96733SOL     OW92095  11.557   9.511  14.238
96733SOL    HW192096  11.570   9.525  14.144
96733SOL    HW292097  11.494   9.579  14.264
96734SOL     OW92098   3.223  14.616  12.355
96734SOL    HW192099   3.205  14.663  12.436
96734SOL    HW292100   3.211  14.681  12.286
96735SOL     OW92101   9.745   4.346   1.022
96735SOL    HW192102   9.819   4.379   1.073
96735SOL    HW292103   9.669   4.363   1.077
96736SOL     OW92104   2.468   6.430   0.281
96736SOL    HW192105   2.539   6.489   0.308
96736SOL    HW292106   2.483   6.416   0.187
96737SOL     OW92107  10.240  11.884   5.482
96737SOL    HW192108  10.274  11.810   5.432
96737SOL    HW292109  10.148  11.891   5.455
96738SOL     OW92110   3.010  12.954   9.395
96738SOL    HW192111   2.971  13.039   9.376
96738SOL    HW292112   2.947  12.891   9.361
96739SOL     OW92113   7.782   1.443  11.633
96739SOL    HW192114   7.708   1.383  11.627
96739SOL    HW292115   7.822   1.424  11.718
96740SOL     OW92116   0.752  13.102   4.979
96740SOL    HW192117   0.811  13.053   5.037
96740SOL    HW292118   0.749  13.049   4.899
96741SOL     OW92119   0.624   2.289  14.389
96741SOL    HW192120   0.682   2.213  14.376
96741SOL    HW292121   0.649   2.350  14.319
96742SOL     OW92122   2.361   8.111   6.987
96742SOL    HW192123   2.430   8.167   6.953
96742SOL    HW292124   2.296   8.172   7.024
96743SOL     OW92125   7.828   0.468   1.663
96743SOL    HW192126   7.772   0.476   1.587
96743SOL    HW292127   7.837   0.374   1.676
96744SOL     OW92128   6.723   5.349   3.182
96744SOL    HW192129   6.790   5.407   3.145
96744SOL    HW292130   6.745   5.262   3.148
96745SOL     OW92131  13.719   3.077   3.091
96745SOL    HW192132  13.809   3.072   3.060
96745SOL    HW292133  13.722   3.038   3.179
96746SOL     OW92134  12.773   1.006  14.396
96746SOL    HW192135  12.864   1.033  14.414
96746SOL    HW292136  12.779   0.912  14.382
96747SOL     OW92137  10.200  12.503   0.221
96747SOL    HW192138  10.142  12.474   0.151
96747SOL    HW292139  10.288  12.487   0.187
96748SOL     OW92140   4.618   7.023  14.199
96748SOL    HW192141   4.710   7.050  14.208
96748SOL    HW292142   4.569   7.090  14.246
96749SOL     OW92143   0.683   3.442   5.572
96749SOL    HW192144   0.763   3.425   5.521
96749SOL    HW292145   0.629   3.363   5.559
96750SOL     OW92146  12.265  10.241  14.096
96750SOL    HW192147  12.263  10.205  14.007
96750SOL    HW292148  12.176  10.228  14.129
96751SOL     OW92149   3.370   7.280   2.169
96751SOL    HW192150   3.381   7.223   2.093
96751SOL    HW292151   3.300   7.238   2.220
96752SOL     OW92152   3.980   8.718   5.741
96752SOL    HW192153   3.911   8.729   5.806
96752SOL    HW292154   4.036   8.795   5.751
96753SOL     OW92155  12.931   8.997   7.953
96753SOL    HW192156  12.856   9.056   7.962
96753SOL    HW292157  12.910   8.943   7.877
96754SOL     OW92158   4.165   3.885  14.029
96754SOL    HW192159   4.143   3.836  14.108
96754SOL    HW292160   4.081   3.907  13.989
96755SOL     OW92161   6.701  11.460  11.929
96755SOL    HW192162   6.713  11.469  12.023
96755SOL    HW292163   6.659  11.375  11.917
96756SOL     OW92164   5.749  14.010  13.177
96756SOL    HW192165   5.698  14.005  13.096
96756SOL    HW292166   5.838  14.029  13.149
96757SOL     OW92167  14.786   2.448   5.351
96757SOL    HW192168  14.786   2.513   5.280
96757SOL    HW292169  14.857   2.388   5.329
96758SOL     OW92170  10.716  10.419  11.723
96758SOL    HW192171  10.658  10.496  11.722
96758SOL    HW292172  10.768  10.429  11.802
96759SOL     OW92173   6.116   4.511   3.076
96759SOL    HW192174   6.059   4.523   3.000
96759SOL    HW292175   6.199   4.552   3.051
96760SOL     OW92176   2.386   0.286   4.797
96760SOL    HW192177   2.467   0.317   4.837
96760SOL    HW292178   2.400   0.192   4.785
96761SOL     OW92179  14.310   1.134  13.190
96761SOL    HW192180  14.269   1.090  13.264
96761SOL    HW292181  14.360   1.066  13.146
96762SOL     OW92182   8.103   8.927  13.952
96762SOL    HW192183   8.134   8.850  14.000
96762SOL    HW292184   8.029   8.895  13.901
96763SOL     OW92185   9.586   9.837   6.490
96763SOL    HW192186   9.674   9.867   6.466
96763SOL    HW292187   9.597   9.743   6.509
96764SOL     OW92188   1.479   0.712   6.227
96764SOL    HW192189   1.565   0.707   6.270
96764SOL    HW292190   1.430   0.639   6.262
96765SOL     OW92191   6.688   7.946  14.662
96765SOL    HW192192   6.635   7.879  14.619
96765SOL    HW292193   6.750   7.974  14.595
96766SOL     OW92194   3.159   0.055   6.159
96766SOL    HW192195   3.232   0.006   6.122
96766SOL    HW292196   3.175   0.055   6.253
96767SOL     OW92197   9.266  14.228  10.010
96767SOL    HW192198   9.342  14.184   9.974
96767SOL    HW292199   9.281  14.231  10.104
96768SOL     OW92200  10.367  10.348   2.191
96768SOL    HW192201  10.451  10.331   2.235
96768SOL    HW292202  10.330  10.422   2.237
96769SOL     OW92203   4.761   8.912   5.428
96769SOL    HW192204   4.796   8.927   5.340
96769SOL    HW292205   4.804   8.832   5.457
96770SOL     OW92206  14.297   7.671   3.679
96770SOL    HW192207  14.322   7.579   3.665
96770SOL    HW292208  14.255   7.696   3.597
96771SOL     OW92209   0.841   3.361   9.538
96771SOL    HW192210   0.798   3.360   9.453
96771SOL    HW292211   0.794   3.296   9.590
96772SOL     OW92212   9.572   9.684  12.843
96772SOL    HW192213   9.647   9.645  12.798
96772SOL    HW292214   9.547   9.758  12.787
96773SOL     OW92215   8.925   6.112   8.922
96773SOL    HW192216   8.846   6.159   8.897
96773SOL    HW292217   8.994   6.179   8.921
96774SOL     OW92218   0.103   6.209   3.298
96774SOL    HW192219   0.196   6.227   3.285
96774SOL    HW292220   0.101   6.141   3.365
96775SOL     OW92221  12.167   5.211  10.540
96775SOL    HW192222  12.154   5.131  10.489
96775SOL    HW292223  12.100   5.207  10.608
96776SOL     OW92224   9.791  12.419  12.177
96776SOL    HW192225   9.696  12.411  12.170
96776SOL    HW292226   9.825  12.354  12.116
96777SOL     OW92227   2.183   8.978   3.951
96777SOL    HW192228   2.158   8.982   4.044
96777SOL    HW292229   2.111   9.019   3.905
96778SOL     OW92230   7.132   5.533   5.986
96778SOL    HW192231   7.098   5.583   5.912
96778SOL    HW292232   7.201   5.478   5.948
96779SOL     OW92233   9.599  12.738   0.754
96779SOL    HW192234   9.692  12.732   0.734
96779SOL    HW292235   9.583  12.831   0.770
96780SOL     OW92236  13.585   4.091   0.996
96780SOL    HW192237  13.610   4.173   1.040
96780SOL    HW292238  13.666   4.041   0.990
96781SOL     OW92239   3.336   1.303  11.635
96781SOL    HW192240   3.253   1.257  11.620
96781SOL    HW292241   3.324   1.347  11.718
96782SOL     OW92242  11.512  12.760   4.373
96782SOL    HW192243  11.599  12.729   4.398
96782SOL    HW292244  11.527  12.816   4.297
96783SOL     OW92245   3.740   1.404  13.808
96783SOL    HW192246   3.737   1.360  13.892
96783SOL    HW292247   3.693   1.345  13.748
96784SOL     OW92248   3.062   5.998  13.295
96784SOL    HW192249   3.089   5.907  13.286
96784SOL    HW292250   2.995   6.009  13.228
96785SOL     OW92251  11.742   3.517  14.096
96785SOL    HW192252  11.827   3.480  14.072
96785SOL    HW292253  11.738   3.507  14.191
96786SOL     OW92254   7.269   3.166   7.424
96786SOL    HW192255   7.200   3.221   7.387
96786SOL    HW292256   7.227   3.120   7.497
96787SOL     OW92257   5.099   8.014  10.917
96787SOL    HW192258   5.057   7.952  10.857
96787SOL    HW292259   5.135   7.959  10.987
96788SOL     OW92260   5.091  14.002   8.703
96788SOL    HW192261   5.165  13.968   8.754
96788SOL    HW292262   5.020  14.011   8.767
96789SOL     OW92263  12.060  12.053   9.282
96789SOL    HW192264  12.098  12.118   9.340
96789SOL    HW292265  12.116  11.976   9.292
96790SOL     OW92266   8.256  12.567   0.987
96790SOL    HW192267   8.252  12.652   1.031
96790SOL    HW292268   8.341  12.531   1.013
96791SOL     OW92269  14.342   9.341   6.508
96791SOL    HW192270  14.342   9.398   6.584
96791SOL    HW292271  14.254   9.349   6.472
96792SOL     OW92272   8.600   5.558  12.244
96792SOL    HW192273   8.504   5.553  12.251
96792SOL    HW292274   8.620   5.509  12.164
96793SOL     OW92275   4.601   5.218   1.950
96793SOL    HW192276   4.684   5.191   1.911
96793SOL    HW292277   4.615   5.309   1.974
96794SOL     OW92278   3.976   0.709   4.850
96794SOL    HW192279   4.040   0.647   4.884
96794SOL    HW292280   3.893   0.662   4.852
96795SOL     OW92281   7.046   7.186   8.080
96795SOL    HW192282   7.069   7.249   8.148
96795SOL    HW292283   7.049   7.236   7.999
96796SOL     OW92284  13.640   0.466  11.294
96796SOL    HW192285  13.665   0.393  11.350
96796SOL    HW292286  13.722   0.494  11.252
96797SOL     OW92287   9.646   0.699   7.422
96797SOL    HW192288   9.615   0.787   7.442
96797SOL    HW292289   9.597   0.674   7.343
96798SOL     OW92290  14.673   8.246  14.403
96798SOL    HW192291  14.730   8.290  14.340
96798SOL    HW292292  14.696   8.284  14.487
96799SOL     OW92293  14.113   1.162   5.812
96799SOL    HW192294  14.184   1.118   5.765
96799SOL    HW292295  14.057   1.197   5.743
96800SOL     OW92296   6.585  11.819   3.013
96800SOL    HW192297   6.649  11.760   3.053
96800SOL    HW292298   6.619  11.836   2.926
96801SOL     OW92299   3.756   7.129   5.209
96801SOL    HW192300   3.723   7.069   5.276
96801SOL    HW292301   3.846   7.148   5.235
96802SOL     OW92302   9.137  13.937  13.350
96802SOL    HW192303   9.109  13.903  13.265
96802SOL    HW292304   9.145  14.031  13.337
96803SOL     OW92305   9.102   3.311   3.578
96803SOL    HW192306   9.155   3.387   3.603
96803SOL    HW292307   9.117   3.248   3.649
96804SOL     OW92308  10.590   6.903  10.085
96804SOL    HW192309  10.675   6.948  10.089
96804SOL    HW292310  10.561   6.899  10.176
96805SOL     OW92311  14.684   6.720   6.382
96805SOL    HW192312  14.637   6.803   6.370
96805SOL    HW292313  14.621   6.653   6.360
96806SOL     OW92314  14.280  10.162  11.404
96806SOL    HW192315  14.216  10.165  11.475
96806SOL    HW292316  14.227  10.156  11.325
96807SOL     OW92317   8.615  12.876   0.363
96807SOL    HW192318   8.699  12.908   0.394
96807SOL    HW292319   8.617  12.891   0.268
96808SOL     OW92320  12.541   2.789  12.865
96808SOL    HW192321  12.582   2.719  12.916
96808SOL    HW292322  12.504   2.848  12.930
96809SOL     OW92323   5.484   1.853   9.779
96809SOL    HW192324   5.552   1.789   9.798
96809SOL    HW292325   5.526   1.938   9.794
96810SOL     OW92326   0.950   9.174  14.708
96810SOL    HW192327   0.886   9.188  14.778
96810SOL    HW292328   0.927   9.089  14.672
96811SOL     OW92329   7.893   5.398   3.982
96811SOL    HW192330   7.809   5.361   3.955
96811SOL    HW292331   7.958   5.339   3.944
96812SOL     OW92332   1.003  11.078   8.756
96812SOL    HW192333   1.015  11.015   8.685
96812SOL    HW292334   1.071  11.144   8.741
96813SOL     OW92335   5.093  12.420   9.140
96813SOL    HW192336   5.109  12.442   9.048
96813SOL    HW292337   5.142  12.484   9.190
96814SOL     OW92338   9.916   3.549   2.327
96814SOL    HW192339   9.923   3.639   2.294
96814SOL    HW292340   9.909   3.495   2.248
96815SOL     OW92341   4.341   2.422   8.125
96815SOL    HW192342   4.428   2.433   8.164
96815SOL    HW292343   4.281   2.460   8.189
96816SOL     OW92344   2.271   5.827   0.492
96816SOL    HW192345   2.327   5.900   0.517
96816SOL    HW292346   2.182   5.859   0.505
96817SOL     OW92347  12.549   0.121   8.885
96817SOL    HW192348  12.558   0.112   8.980
96817SOL    HW292349  12.499   0.202   8.873
96818SOL     OW92350  12.605  10.080  13.414
96818SOL    HW192351  12.644  10.098  13.328
96818SOL    HW292352  12.665  10.017  13.455
96819SOL     OW92353   5.731  13.351   7.478
96819SOL    HW192354   5.820  13.319   7.491
96819SOL    HW292355   5.713  13.333   7.386
96820SOL     OW92356  13.585   1.811   4.140
96820SOL    HW192357  13.557   1.892   4.096
96820SOL    HW292358  13.604   1.838   4.229
96821SOL     OW92359   3.696  11.179   4.900
96821SOL    HW192360   3.680  11.135   4.817
96821SOL    HW292361   3.771  11.133   4.938
96822SOL     OW92362   8.768  13.425   7.823
96822SOL    HW192363   8.756  13.414   7.729
96822SOL    HW292364   8.781  13.336   7.856
96823SOL     OW92365  14.227  10.886   2.892
96823SOL    HW192366  14.146  10.840   2.913
96823SOL    HW292367  14.204  10.979   2.898
96824SOL     OW92368   7.271  12.268  13.644
96824SOL    HW192369   7.269  12.227  13.558
96824SOL    HW292370   7.321  12.207  13.699
96825SOL     OW92371   2.820  14.203   0.639
96825SOL    HW192372   2.878  14.144   0.591
96825SOL    HW292373   2.859  14.289   0.629
96826SOL     OW92374  12.892   1.590   9.742
96826SOL    HW192375  12.808   1.615   9.779
96826SOL    HW292376  12.917   1.665   9.688
96827SOL     OW92377   4.763   7.096   5.165
96827SOL    HW192378   4.781   7.165   5.228
96827SOL    HW292379   4.838   7.096   5.106
96828SOL     OW92380   5.238  10.857   5.304
96828SOL    HW192381   5.176  10.913   5.257
96828SOL    HW292382   5.247  10.780   5.248
96829SOL     OW92383  12.072   6.250  10.310
96829SOL    HW192384  12.023   6.332  10.318
96829SOL    HW292385  12.018   6.185  10.355
96830SOL     OW92386  14.346   2.410   3.710
96830SOL    HW192387  14.363   2.498   3.744
96830SOL    HW292388  14.374   2.351   3.780
96831SOL     OW92389   7.123   1.755  13.455
96831SOL    HW192390   7.196   1.802  13.495
96831SOL    HW292391   7.089   1.699  13.525
96832SOL     OW92392   9.229   6.151   8.903
96832SOL    HW192393   9.169   6.224   8.887
96832SOL    HW292394   9.316   6.191   8.899
96833SOL     OW92395  11.066   7.910  14.141
96833SOL    HW192396  11.057   7.963  14.062
96833SOL    HW292397  10.977   7.904  14.175
96834SOL     OW92398  12.867  10.694   5.924
96834SOL    HW192399  12.910  10.769   5.965
96834SOL    HW292400  12.892  10.620   5.979
96835SOL     OW92401  12.329   0.600  13.712
96835SOL    HW192402  12.255   0.563  13.760
96835SOL    HW292403  12.306   0.589  13.620
96836SOL     OW92404   6.685   5.582   4.675
96836SOL    HW192405   6.590   5.591   4.679
96836SOL    HW292406   6.699   5.501   4.625
96837SOL     OW92407  11.579   8.990   6.806
96837SOL    HW192408  11.565   8.990   6.712
96837SOL    HW292409  11.533   8.913   6.838
96838SOL     OW92410   9.993   7.938  11.174
96838SOL    HW192411   9.914   7.903  11.216
96838SOL    HW292412  10.064   7.885  11.208
96839SOL     OW92413   8.885  14.326   7.562
96839SOL    HW192414   8.835  14.245   7.572
96839SOL    HW292415   8.832  14.392   7.607
96840SOL     OW92416   1.212   0.955   5.933
96840SOL    HW192417   1.220   1.030   5.874
96840SOL    HW292418   1.302   0.922   5.942
96841SOL     OW92419   8.738   7.837   0.716
96841SOL    HW192420   8.695   7.753   0.734
96841SOL    HW292421   8.680   7.881   0.654
96842SOL     OW92422  14.662   2.069   0.766
96842SOL    HW192423  14.663   1.974   0.757
96842SOL    HW292424  14.670   2.085   0.860
96843SOL     OW92425   3.964   9.671  13.078
96843SOL    HW192426   3.987   9.763  13.064
96843SOL    HW292427   3.938   9.639  12.992
96844SOL     OW92428   7.360  11.858   0.456
96844SOL    HW192429   7.325  11.778   0.416
96844SOL    HW292430   7.401  11.828   0.537
96845SOL     OW92431   9.440   7.729   6.441
96845SOL    HW192432   9.477   7.791   6.504
96845SOL    HW292433   9.476   7.756   6.357
96846SOL     OW92434   3.484  13.163   2.793
96846SOL    HW192435   3.540  13.205   2.858
96846SOL    HW292436   3.406  13.136   2.841
96847SOL     OW92437  10.384   1.791   5.761
96847SOL    HW192438  10.370   1.885   5.759
96847SOL    HW292439  10.308   1.756   5.807
96848SOL     OW92440   0.986   7.468   7.193
96848SOL    HW192441   0.961   7.529   7.263
96848SOL    HW292442   0.975   7.519   7.113
96849SOL     OW92443   2.945   9.670   3.198
96849SOL    HW192444   2.944   9.580   3.164
96849SOL    HW292445   2.906   9.663   3.285
96850SOL     OW92446  13.655   4.581   1.956
96850SOL    HW192447  13.624   4.491   1.947
96850SOL    HW292448  13.745   4.579   1.923
96851SOL     OW92449  11.912  10.344   5.193
96851SOL    HW192450  11.867  10.260   5.207
96851SOL    HW292451  11.897  10.393   5.274
96852SOL     OW92452   1.799   6.820   2.991
96852SOL    HW192453   1.708   6.832   2.963
96852SOL    HW292454   1.848   6.814   2.909
96853SOL     OW92455  11.521   7.739   2.644
96853SOL    HW192456  11.575   7.801   2.595
96853SOL    HW292457  11.441   7.788   2.664
96854SOL     OW92458   0.375  12.754   5.407
96854SOL    HW192459   0.323  12.674   5.412
96854SOL    HW292460   0.369  12.793   5.494
96855SOL     OW92461   7.758   1.457  13.141
96855SOL    HW192462   7.813   1.456  13.220
96855SOL    HW292463   7.676   1.416  13.168
96856SOL     OW92464   6.375   3.469   4.206
96856SOL    HW192465   6.403   3.481   4.115
96856SOL    HW292466   6.285   3.499   4.207
96857SOL     OW92467   1.950   5.081   6.806
96857SOL    HW192468   2.014   5.096   6.875
96857SOL    HW292469   1.866   5.107   6.844
96858SOL     OW92470   1.784   6.600   1.759
96858SOL    HW192471   1.766   6.507   1.745
96858SOL    HW292472   1.857   6.619   1.701
96859SOL     OW92473   2.972  13.007   0.417
96859SOL    HW192474   2.981  13.072   0.486
96859SOL    HW292475   2.880  13.010   0.391
96860SOL     OW92476  10.133   1.705   1.180
96860SOL    HW192477  10.151   1.786   1.227
96860SOL    HW292478  10.041   1.686   1.200
96861SOL     OW92479  14.520   9.439   9.394
96861SOL    HW192480  14.593   9.494   9.419
96861SOL    HW292481  14.501   9.387   9.472
96862SOL     OW92482  10.146   4.769   4.335
96862SOL    HW192483  10.153   4.674   4.340
96862SOL    HW292484  10.219   4.796   4.279
96863SOL     OW92485   3.176   4.312  14.548
96863SOL    HW192486   3.199   4.398  14.582
96863SOL    HW292487   3.080   4.314  14.543
96864SOL     OW92488   3.276   6.291  11.235
96864SOL    HW192489   3.372   6.287  11.233
96864SOL    HW292490   3.252   6.265  11.324
96865SOL     OW92491   0.399  14.158  10.324
96865SOL    HW192492   0.337  14.164  10.397
96865SOL    HW292493   0.404  14.064  10.304
96866SOL     OW92494   7.347   8.142  11.375
96866SOL    HW192495   7.432   8.181  11.355
96866SOL    HW292496   7.313   8.193  11.448
96867SOL     OW92497   7.687  10.255   4.200
96867SOL    HW192498   7.623  10.190   4.228
96867SOL    HW292499   7.651  10.292   4.119
96868SOL     OW92500   9.656  14.604   1.350
96868SOL    HW192501   9.647  14.614   1.255
96868SOL    HW292502   9.638  14.691   1.385
96869SOL     OW92503   8.445  10.228  14.642
96869SOL    HW192504   8.468  10.139  14.617
96869SOL    HW292505   8.490  10.284  14.579
96870SOL     OW92506   5.833   7.660   2.792
96870SOL    HW192507   5.752   7.626   2.755
96870SOL    HW292508   5.810   7.748   2.822
96871SOL     OW92509   8.906  14.253  11.050
96871SOL    HW192510   8.856  14.332  11.071
96871SOL    HW292511   8.841  14.183  11.052
96872SOL     OW92512  10.592  11.838  12.039
96872SOL    HW192513  10.526  11.842  12.109
96872SOL    HW292514  10.550  11.880  11.964
96873SOL     OW92515   6.943   0.793   2.928
96873SOL    HW192516   7.000   0.811   3.003
96873SOL    HW292517   6.993   0.823   2.852
96874SOL     OW92518   5.333  14.318   6.357
96874SOL    HW192519   5.401  14.253   6.376
96874SOL    HW292520   5.309  14.302   6.266
96875SOL     OW92521   5.337  11.522   6.261
96875SOL    HW192522   5.351  11.463   6.187
96875SOL    HW292523   5.420  11.570   6.269
96876SOL     OW92524   0.258   8.244   7.879
96876SOL    HW192525   0.246   8.309   7.810
96876SOL    HW292526   0.352   8.226   7.880
96877SOL     OW92527   8.879   8.346  13.139
96877SOL    HW192528   8.826   8.276  13.178
96877SOL    HW292529   8.876   8.329  13.045
96878SOL     OW92530   6.657  10.401   1.124
96878SOL    HW192531   6.721  10.330   1.133
96878SOL    HW292532   6.631  10.398   1.032
96879SOL     OW92533  13.149  13.311   1.330
96879SOL    HW192534  13.182  13.269   1.251
96879SOL    HW292535  13.090  13.246   1.369
96880SOL     OW92536  13.382   1.046  11.722
96880SOL    HW192537  13.404   1.139  11.729
96880SOL    HW292538  13.336   1.026  11.803
96881SOL     OW92539   3.360   0.859   4.508
96881SOL    HW192540   3.398   0.860   4.421
96881SOL    HW292541   3.408   0.925   4.557
96882SOL     OW92542   3.087   5.122  12.220
96882SOL    HW192543   3.150   5.188  12.250
96882SOL    HW292544   3.123   5.090  12.137
96883SOL     OW92545   6.605  10.486  11.947
96883SOL    HW192546   6.562  10.476  12.032
96883SOL    HW292547   6.695  10.511  11.968
96884SOL     OW92548   4.625   8.362   8.134
96884SOL    HW192549   4.646   8.376   8.227
96884SOL    HW292550   4.648   8.270   8.119
96885SOL     OW92551   0.894   6.385  11.106
96885SOL    HW192552   0.827   6.347  11.048
96885SOL    HW292553   0.846   6.409  11.185
96886SOL     OW92554  11.444  14.830   7.653
96886SOL    HW192555  11.400  14.747   7.671
96886SOL    HW292556  11.535  14.816   7.680
96887SOL     OW92557   5.322   7.257   0.942
96887SOL    HW192558   5.408   7.236   0.978
96887SOL    HW292559   5.260   7.217   1.004
96888SOL     OW92560  11.553  10.623   2.389
96888SOL    HW192561  11.590  10.706   2.359
96888SOL    HW292562  11.580  10.559   2.323
96889SOL     OW92563   8.999  12.070  13.221
96889SOL    HW192564   9.077  12.083  13.276
96889SOL    HW292565   8.926  12.068  13.282
96890SOL     OW92566   2.829   0.632   3.576
96890SOL    HW192567   2.752   0.589   3.540
96890SOL    HW292568   2.885   0.648   3.501
96891SOL     OW92569  12.913   3.175  11.202
96891SOL    HW192570  12.827   3.171  11.245
96891SOL    HW292571  12.976   3.171  11.274
96892SOL     OW92572  10.217   8.547   2.478
96892SOL    HW192573  10.300   8.589   2.502
96892SOL    HW292574  10.184   8.512   2.561
96893SOL     OW92575   8.597   5.105  13.929
96893SOL    HW192576   8.513   5.064  13.910
96893SOL    HW292577   8.603   5.105  14.024
96894SOL     OW92578   8.915   2.066  10.246
96894SOL    HW192579   9.007   2.090  10.246
96894SOL    HW292580   8.915   1.972  10.265
96895SOL     OW92581   3.778   9.903   8.947
96895SOL    HW192582   3.735   9.914   8.862
96895SOL    HW292583   3.840   9.976   8.951
96896SOL     OW92584  13.014   6.759  10.630
96896SOL    HW192585  13.021   6.852  10.653
96896SOL    HW292586  13.070   6.714  10.694
96897SOL     OW92587  11.302   5.467  13.715
96897SOL    HW192588  11.328   5.406  13.646
96897SOL    HW292589  11.229   5.423  13.759
96898SOL     OW92590   5.265  14.518   7.152
96898SOL    HW192591   5.271  14.424   7.169
96898SOL    HW292592   5.221  14.525   7.068
96899SOL     OW92593  12.151   3.627  11.822
96899SOL    HW192594  12.070   3.677  11.810
96899SOL    HW292595  12.211   3.688  11.865
96900SOL     OW92596  10.490   1.338   3.184
96900SOL    HW192597  10.485   1.416   3.129
96900SOL    HW292598  10.572   1.347   3.232
96901SOL     OW92599  12.701   2.396  13.682
96901SOL    HW192600  12.768   2.329  13.695
96901SOL    HW292601  12.643   2.387  13.757
96902SOL     OW92602  12.203   4.652   8.671
96902SOL    HW192603  12.211   4.691   8.585
96902SOL    HW292604  12.155   4.570   8.656
96903SOL     OW92605   7.902   5.159  14.073
96903SOL    HW192606   7.884   5.077  14.119
96903SOL    HW292607   7.819   5.207  14.076
96904SOL     OW92608   0.738  14.489   1.176
96904SOL    HW192609   0.768  14.528   1.258
96904SOL    HW292610   0.706  14.563   1.125
96905SOL     OW92611   9.175  10.785   7.237
96905SOL    HW192612   9.093  10.738   7.222
96905SOL    HW292613   9.233  10.754   7.168
96906SOL     OW92614  14.368  13.716  10.406
96906SOL    HW192615  14.385  13.622  10.403
96906SOL    HW292616  14.454  13.756  10.408
96907SOL     OW92617   2.330   6.381   1.376
96907SOL    HW192618   2.251   6.434   1.360
96907SOL    HW292619   2.391   6.442   1.418
96908SOL     OW92620  10.613   4.469  12.840
96908SOL    HW192621  10.675   4.421  12.895
96908SOL    HW292622  10.664   4.497  12.764
96909SOL     OW92623  12.528   0.207   1.384
96909SOL    HW192624  12.549   0.172   1.471
96909SOL    HW292625  12.493   0.294   1.401
96910SOL     OW92626   8.298   5.757   7.079
96910SOL    HW192627   8.234   5.809   7.030
96910SOL    HW292628   8.325   5.815   7.151
96911SOL     OW92629   9.242  12.811   7.356
96911SOL    HW192630   9.245  12.732   7.301
96911SOL    HW292631   9.185  12.787   7.429
96912SOL     OW92632   8.266   0.591   7.177
96912SOL    HW192633   8.188   0.544   7.206
96912SOL    HW292634   8.326   0.523   7.145
96913SOL     OW92635   4.703   8.116   8.100
96913SOL    HW192636   4.687   8.076   8.015
96913SOL    HW292637   4.795   8.142   8.099
96914SOL     OW92638   9.929   4.049   6.291
96914SOL    HW192639   9.900   4.091   6.372
96914SOL    HW292640   9.948   4.122   6.231
96915SOL     OW92641   8.836  10.532  11.007
96915SOL    HW192642   8.892  10.476  10.954
96915SOL    HW292643   8.844  10.619  10.966
96916SOL     OW92644   9.677  12.937   1.262
96916SOL    HW192645   9.600  12.920   1.207
96916SOL    HW292646   9.725  13.006   1.216
96917SOL     OW92647   1.368   4.434   6.092
96917SOL    HW192648   1.294   4.495   6.094
96917SOL    HW292649   1.333   4.351   6.122
96918SOL     OW92650  13.238  14.505   2.093
96918SOL    HW192651  13.179  14.556   2.038
96918SOL    HW292652  13.181  14.444   2.139
96919SOL     OW92653  14.171  14.561  13.704
96919SOL    HW192654  14.144  14.638  13.755
96919SOL    HW292655  14.252  14.587  13.661
96920SOL     OW92656   4.205   8.672   3.920
96920SOL    HW192657   4.136   8.710   3.865
96920SOL    HW292658   4.164   8.596   3.961
96921SOL     OW92659  14.355  14.198   1.653
96921SOL    HW192660  14.403  14.164   1.577
96921SOL    HW292661  14.330  14.119   1.702
96922SOL     OW92662  13.598   7.250  10.879
96922SOL    HW192663  13.647   7.330  10.861
96922SOL    HW292664  13.513   7.265  10.839
96923SOL     OW92665   3.992   1.319  13.761
96923SOL    HW192666   3.919   1.380  13.764
96923SOL    HW292667   3.951   1.233  13.752
96924SOL     OW92668  13.965   1.209  10.350
96924SOL    HW192669  14.005   1.235  10.434
96924SOL    HW292670  13.977   1.114  10.347
96925SOL     OW92671   6.072  12.709   9.676
96925SOL    HW192672   6.058  12.648   9.604
96925SOL    HW292673   6.019  12.786   9.652
96926SOL     OW92674   6.647   6.593   2.709
96926SOL    HW192675   6.697   6.664   2.669
96926SOL    HW292676   6.661   6.518   2.651
96927SOL     OW92677   1.812  11.522   6.926
96927SOL    HW192678   1.840  11.599   6.974
96927SOL    HW292679   1.860  11.450   6.965
96928SOL     OW92680   5.400   9.536   8.587
96928SOL    HW192681   5.382   9.515   8.679
96928SOL    HW292682   5.485   9.495   8.570
96929SOL     OW92683   0.726   2.090  12.210
96929SOL    HW192684   0.760   2.113  12.123
96929SOL    HW292685   0.799   2.047  12.253
96930SOL     OW92686   6.999  11.822  11.501
96930SOL    HW192687   7.043  11.907  11.505
96930SOL    HW292688   6.953  11.815  11.585
96931SOL     OW92689  13.563   9.003  10.466
96931SOL    HW192690  13.587   9.078  10.520
96931SOL    HW292691  13.495   8.958  10.517
96932SOL     OW92692   3.421  12.652  10.498
96932SOL    HW192693   3.478  12.605  10.437
96932SOL    HW292694   3.465  12.735  10.513
96933SOL     OW92695   1.746  11.260   2.220
96933SOL    HW192696   1.763  11.351   2.244
96933SOL    HW292697   1.697  11.265   2.138
96934SOL     OW92698   1.578   2.237   7.904
96934SOL    HW192699   1.509   2.179   7.936
96934SOL    HW292700   1.653   2.178   7.889
96935SOL     OW92701   9.822  11.594  12.119
96935SOL    HW192702   9.753  11.649  12.156
96935SOL    HW292703   9.838  11.631  12.033
96936SOL     OW92704   3.790   7.431  10.016
96936SOL    HW192705   3.882   7.442   9.990
96936SOL    HW292706   3.747   7.397   9.937
96937SOL     OW92707   6.342  10.416   9.098
96937SOL    HW192708   6.418  10.368   9.066
96937SOL    HW292709   6.339  10.397   9.192
96938SOL     OW92710  10.748   0.459   1.262
96938SOL    HW192711  10.762   0.400   1.336
96938SOL    HW292712  10.750   0.547   1.299
96939SOL     OW92713   4.412  10.768   7.380
96939SOL    HW192714   4.355  10.837   7.346
96939SOL    HW292715   4.498  10.810   7.386
96940SOL     OW92716   6.996   6.369   2.070
96940SOL    HW192717   6.990   6.303   2.139
96940SOL    HW292718   7.065   6.429   2.100
96941SOL     OW92719   4.366  11.004   2.410
96941SOL    HW192720   4.415  10.997   2.492
96941SOL    HW292721   4.283  11.043   2.435
96942SOL     OW92722   1.507  12.779   8.674
96942SOL    HW192723   1.448  12.794   8.749
96942SOL    HW292724   1.585  12.739   8.713
96943SOL     OW92725  10.668  14.590  12.414
96943SOL    HW192726  10.741  14.581  12.354
96943SOL    HW292727  10.651  14.501  12.445
96944SOL     OW92728   3.463   7.406   6.923
96944SOL    HW192729   3.533   7.419   6.987
96944SOL    HW292730   3.393   7.363   6.972
96945SOL     OW92731  14.404  10.847   5.604
96945SOL    HW192732  14.331  10.861   5.664
96945SOL    HW292733  14.469  10.799   5.656
96946SOL     OW92734   8.102   8.416   7.598
96946SOL    HW192735   8.180   8.367   7.570
96946SOL    HW292736   8.079   8.469   7.522
96947SOL     OW92737  12.744  12.822  11.407
96947SOL    HW192738  12.673  12.803  11.346
96947SOL    HW292739  12.718  12.777  11.488
96948SOL     OW92740   5.377  10.208   8.798
96948SOL    HW192741   5.440  10.230   8.867
96948SOL    HW292742   5.305  10.166   8.844
96949SOL     OW92743  12.050   1.161   2.999
96949SOL    HW192744  12.001   1.078   3.002
96949SOL    HW292745  11.993   1.220   2.949
96950SOL     OW92746   9.276   9.012   6.767
96950SOL    HW192747   9.242   9.058   6.690
96950SOL    HW292748   9.217   8.937   6.777
96951SOL     OW92749   2.832  14.058   0.179
96951SOL    HW192750   2.909  14.002   0.169
96951SOL    HW292751   2.868  14.144   0.202
96952SOL     OW92752  10.423   6.030   7.445
96952SOL    HW192753  10.327   6.026   7.448
96952SOL    HW292754  10.450   6.017   7.536
96953SOL     OW92755  13.602   3.302   5.340
96953SOL    HW192756  13.679   3.314   5.285
96953SOL    HW292757  13.530   3.293   5.278
96954SOL     OW92758   0.244   3.600   7.344
96954SOL    HW192759   0.220   3.656   7.417
96954SOL    HW292760   0.247   3.658   7.268
96955SOL     OW92761  14.347   9.441  10.966
96955SOL    HW192762  14.372   9.533  10.956
96955SOL    HW292763  14.256   9.438  10.935
96956SOL     OW92764   5.069   6.016   1.555
96956SOL    HW192765   5.151   5.971   1.537
96956SOL    HW292766   5.018   6.008   1.475
96957SOL     OW92767   7.384   7.836  11.001
96957SOL    HW192768   7.463   7.794  11.034
96957SOL    HW292769   7.313   7.797  11.052
96958SOL     OW92770   0.246   9.134   1.908
96958SOL    HW192771   0.165   9.084   1.913
96958SOL    HW292772   0.291   9.099   1.831
96959SOL     OW92773   0.602  10.477  10.001
96959SOL    HW192774   0.560  10.562   9.989
96959SOL    HW292775   0.674  10.494  10.062
96960SOL     OW92776   2.621   9.662   0.054
96960SOL    HW192777   2.539   9.651   0.005
96960SOL    HW292778   2.679   9.595   0.018
96961SOL     OW92779   4.115   5.814   2.386
96961SOL    HW192780   4.113   5.759   2.465
96961SOL    HW292781   4.103   5.752   2.314
96962SOL     OW92782   4.591   5.848   6.970
96962SOL    HW192783   4.542   5.930   6.966
96962SOL    HW292784   4.529   5.782   6.938
96963SOL     OW92785   7.066   1.517   1.796
96963SOL    HW192786   7.134   1.558   1.743
96963SOL    HW292787   6.996   1.582   1.800
96964SOL     OW92788   7.800   2.831  10.731
96964SOL    HW192789   7.843   2.819  10.816
96964SOL    HW292790   7.821   2.750  10.683
96965SOL     OW92791   3.345   8.379   3.205
96965SOL    HW192792   3.412   8.375   3.136
96965SOL    HW292793   3.392   8.408   3.283
96966SOL     OW92794   5.149   7.319  10.751
96966SOL    HW192795   5.103   7.380  10.809
96966SOL    HW292796   5.191   7.257  10.811
96967SOL     OW92797   8.508  13.249   9.008
96967SOL    HW192798   8.589  13.225   9.053
96967SOL    HW292799   8.532  13.324   8.954
96968SOL     OW92800  12.905   4.179   1.486
96968SOL    HW192801  12.893   4.147   1.575
96968SOL    HW292802  12.830   4.237   1.471
96969SOL     OW92803  13.161   0.924   1.313
96969SOL    HW192804  13.250   0.958   1.326
96969SOL    HW292805  13.111   0.960   1.386
96970SOL     OW92806   0.112   9.315   9.715
96970SOL    HW192807   0.199   9.353   9.701
96970SOL    HW292808   0.109   9.240   9.655
96971SOL     OW92809   4.883   6.737   5.209
96971SOL    HW192810   4.840   6.657   5.180
96971SOL    HW292811   4.812   6.792   5.242
96972SOL     OW92812   9.493  10.672   8.238
96972SOL    HW192813   9.486  10.631   8.152
96972SOL    HW292814   9.558  10.621   8.284
96973SOL     OW92815  13.273   2.261  11.035
96973SOL    HW192816  13.319   2.207  10.970
96973SOL    HW292817  13.243   2.337  10.986
96974SOL     OW92818   3.047  12.599   3.143
96974SOL    HW192819   3.121  12.553   3.183
96974SOL    HW292820   3.080  12.628   3.058
96975SOL     OW92821   9.834   3.955   3.725
96975SOL    HW192822   9.798   4.042   3.706
96975SOL    HW292823   9.924   3.959   3.694
96976SOL     OW92824   6.748   7.231   5.673
96976SOL    HW192825   6.667   7.191   5.641
96976SOL    HW292826   6.798   7.251   5.594
96977SOL     OW92827   8.311   7.243  10.357
96977SOL    HW192828   8.363   7.317  10.327
96977SOL    HW292829   8.346   7.168  10.309
96978SOL     OW92830   3.755  10.022   4.361
96978SOL    HW192831   3.837  10.008   4.408
96978SOL    HW292832   3.687   9.994   4.423
96979SOL     OW92833   5.567   1.694   5.670
96979SOL    HW192834   5.631   1.652   5.727
96979SOL    HW292835   5.593   1.786   5.668
96980SOL     OW92836  14.332   6.101  12.800
96980SOL    HW192837  14.293   6.137  12.879
96980SOL    HW292838  14.272   6.032  12.772
96981SOL     OW92839   9.299  13.690   3.261
96981SOL    HW192840   9.348  13.758   3.308
96981SOL    HW292841   9.249  13.645   3.329
96982SOL     OW92842   6.292  11.716   8.107
96982SOL    HW192843   6.209  11.759   8.125
96982SOL    HW292844   6.284  11.630   8.149
96983SOL     OW92845   4.470  13.920   9.425
96983SOL    HW192846   4.545  13.963   9.466
96983SOL    HW292847   4.464  13.835   9.468
96984SOL     OW92848  11.432   2.543   4.134
96984SOL    HW192849  11.424   2.615   4.196
96984SOL    HW292850  11.432   2.464   4.189
96985SOL     OW92851   8.524  12.263   0.738
96985SOL    HW192852   8.607  12.299   0.771
96985SOL    HW292853   8.498  12.323   0.668
96986SOL     OW92854   3.625   0.023   3.480
96986SOL    HW192855   3.531   0.012   3.468
96986SOL    HW292856   3.633   0.099   3.538
96987SOL     OW92857   0.290  11.983   8.637
96987SOL    HW192858   0.283  11.901   8.589
96987SOL    HW292859   0.367  12.027   8.600
96988SOL     OW92860  10.783  10.633   6.180
96988SOL    HW192861  10.771  10.555   6.126
96988SOL    HW292862  10.854  10.609   6.240
96989SOL     OW92863   5.917   1.269   1.338
96989SOL    HW192864   5.859   1.321   1.281
96989SOL    HW292865   5.989   1.243   1.281
96990SOL     OW92866   4.459   2.000   0.309
96990SOL    HW192867   4.518   2.010   0.384
96990SOL    HW292868   4.389   1.944   0.342
96991SOL     OW92869   8.273   4.938  13.324
96991SOL    HW192870   8.245   4.909  13.410
96991SOL    HW292871   8.217   5.014  13.305
96992SOL     OW92872   5.142  11.081  10.081
96992SOL    HW192873   5.115  11.031  10.158
96992SOL    HW292874   5.235  11.063  10.071
96993SOL     OW92875   2.894   2.323   1.795
96993SOL    HW192876   2.862   2.248   1.744
96993SOL    HW292877   2.905   2.288   1.884
96994SOL     OW92878  10.215   8.341   4.455
96994SOL    HW192879  10.228   8.378   4.368
96994SOL    HW292880  10.186   8.414   4.509
96995SOL     OW92881   7.945   9.797   4.813
96995SOL    HW192882   7.879   9.798   4.882
96995SOL    HW292883   7.935   9.712   4.771
96996SOL     OW92884   2.030   1.167  12.487
96996SOL    HW192885   2.087   1.226  12.438
96996SOL    HW292886   2.010   1.215  12.567
96997SOL     OW92887   3.708  13.821   2.151
96997SOL    HW192888   3.613  13.819   2.168
96997SOL    HW292889   3.715  13.817   2.056
96998SOL     OW92890   7.341   4.371   1.016
96998SOL    HW192891   7.256   4.332   0.999
96998SOL    HW292892   7.338   4.399   1.107
96999SOL     OW92893  12.865   7.124   1.414
96999SOL    HW192894  12.783   7.093   1.452
96999SOL    HW292895  12.872   7.216   1.441
97000SOL     OW92896  11.732  12.633  13.892
97000SOL    HW192897  11.775  12.706  13.938
97000SOL    HW292898  11.643  12.631  13.927
97001SOL     OW92899   8.511   8.138  13.501
97001SOL    HW192900   8.434   8.195  13.505
97001SOL    HW292901   8.497   8.082  13.425
97002SOL     OW92902   1.261  11.893   9.998
97002SOL    HW192903   1.329  11.913   9.934
97002SOL    HW292904   1.225  11.809   9.969
97003SOL     OW92905  14.517   6.698   3.426
97003SOL    HW192906  14.455   6.627   3.406
97003SOL    HW292907  14.462   6.769   3.458
97004SOL     OW92908   0.142   9.607   7.035
97004SOL    HW192909   0.175   9.601   6.945
97004SOL    HW292910   0.154   9.519   7.070
97005SOL     OW92911   3.951   5.900   6.893
97005SOL    HW192912   3.963   5.964   6.963
97005SOL    HW292913   3.909   5.950   6.822
97006SOL     OW92914   9.882  14.006   4.798
97006SOL    HW192915   9.792  14.002   4.828
97006SOL    HW292916   9.923  13.927   4.833
97007SOL     OW92917   3.689  14.707   4.436
97007SOL    HW192918   3.632  14.634   4.415
97007SOL    HW292919   3.763  14.698   4.376
97008SOL     OW92920   9.308  14.220   4.033
97008SOL    HW192921   9.271  14.273   3.962
97008SOL    HW292922   9.401  14.213   4.011
97009SOL     OW92923   6.650   3.259   2.793
97009SOL    HW192924   6.623   3.185   2.740
97009SOL    HW292925   6.717   3.304   2.741
97010SOL     OW92926   6.694   7.737   3.473
97010SOL    HW192927   6.733   7.810   3.521
97010SOL    HW292928   6.674   7.671   3.540
97011SOL     OW92929   9.997  12.330   1.183
97011SOL    HW192930   9.997  12.236   1.201
97011SOL    HW292931  10.004  12.372   1.269
97012SOL     OW92932   5.333   1.317   9.303
97012SOL    HW192933   5.246   1.347   9.328
97012SOL    HW292934   5.385   1.327   9.382
97013SOL     OW92935  11.274   9.467   2.189
97013SOL    HW192936  11.278   9.408   2.264
97013SOL    HW292937  11.248   9.411   2.116
97014SOL     OW92938  14.631  12.610   0.618
97014SOL    HW192939  14.634  12.625   0.713
97014SOL    HW292940  14.616  12.516   0.610
97015SOL     OW92941  13.294   1.511   6.404
97015SOL    HW192942  13.341   1.443   6.356
97015SOL    HW292943  13.355   1.585   6.407
97016SOL     OW92944   3.930   1.922  11.242
97016SOL    HW192945   3.987   1.857  11.201
97016SOL    HW292946   3.990   1.981  11.287
97017SOL     OW92947   8.198   1.743  10.166
97017SOL    HW192948   8.184   1.649  10.170
97017SOL    HW292949   8.254   1.756  10.090
97018SOL     OW92950   1.277   5.130  13.830
97018SOL    HW192951   1.312   5.084  13.907
97018SOL    HW292952   1.326   5.211  13.825
97019SOL     OW92953   9.071   0.676   7.440
97019SOL    HW192954   9.082   0.685   7.346
97019SOL    HW292955   9.002   0.740   7.463
97020SOL     OW92956  12.698   7.128  10.603
97020SOL    HW192957  12.779   7.173  10.579
97020SOL    HW292958  12.657   7.186  10.667
97021SOL     OW92959  12.148  13.936   8.031
97021SOL    HW192960  12.202  13.881   7.973
97021SOL    HW292961  12.114  14.005   7.973
97022SOL     OW92962  14.309  14.540   7.249
97022SOL    HW192963  14.237  14.599   7.226
97022SOL    HW292964  14.315  14.478   7.176
97023SOL     OW92965  11.235   0.668   0.624
97023SOL    HW192966  11.248   0.678   0.718
97023SOL    HW292967  11.197   0.751   0.596
97024SOL     OW92968  12.480  12.406   5.279
97024SOL    HW192969  12.458  12.315   5.300
97024SOL    HW292970  12.507  12.403   5.188
97025SOL     OW92971  14.079   5.468   2.968
97025SOL    HW192972  14.005   5.485   2.910
97025SOL    HW292973  14.044   5.480   3.056
97026SOL     OW92974   4.510   5.462   4.839
97026SOL    HW192975   4.578   5.429   4.779
97026SOL    HW292976   4.519   5.557   4.834
97027SOL     OW92977   7.771   0.461  13.164
97027SOL    HW192978   7.757   0.389  13.225
97027SOL    HW292979   7.857   0.444  13.126
97028SOL     OW92980   5.999   7.089  11.024
97028SOL    HW192981   5.915   7.056  10.991
97028SOL    HW292982   5.986   7.183  11.031
97029SOL     OW92983   0.390   0.128  13.239
97029SOL    HW192984   0.387   0.032  13.245
97029SOL    HW292985   0.372   0.147  13.147
97030SOL     OW92986  12.240   9.409   4.407
97030SOL    HW192987  12.159   9.388   4.360
97030SOL    HW292988  12.307   9.357   4.362
97031SOL     OW92989   6.659   0.774  14.479
97031SOL    HW192990   6.744   0.814  14.496
97031SOL    HW292991   6.673   0.681  14.498
97032SOL     OW92992   4.628   4.572  11.155
97032SOL    HW192993   4.669   4.659  11.154
97032SOL    HW292994   4.619   4.551  11.248
97033SOL     OW92995  10.168  11.869  10.796
97033SOL    HW192996  10.173  11.824  10.881
97033SOL    HW292997  10.257  11.901  10.782
97034SOL     OW92998  11.514   6.841   8.239
97034SOL    HW192999  11.450   6.794   8.293
97034SOL    HW293000  11.488   6.933   8.244
97035SOL     OW93001   4.381   2.764   0.697
97035SOL    HW193002   4.452   2.699   0.694
97035SOL    HW293003   4.374   2.795   0.606
97036SOL     OW93004   6.240   3.536   6.017
97036SOL    HW193005   6.297   3.461   6.033
97036SOL    HW293006   6.277   3.606   6.071
97037SOL     OW93007   0.668   7.974   2.153
97037SOL    HW193008   0.625   8.046   2.200
97037SOL    HW293009   0.604   7.903   2.154
97038SOL     OW93010  14.191   6.804   0.462
97038SOL    HW193011  14.192   6.826   0.369
97038SOL    HW293012  14.283   6.808   0.489
97039SOL     OW93013   5.870  14.419  11.741
97039SOL    HW193014   5.807  14.485  11.711
97039SOL    HW293015   5.870  14.353  11.671
97040SOL     OW93016  10.557  13.910   7.900
97040SOL    HW193017  10.503  13.979   7.938
97040SOL    HW293018  10.509  13.882   7.823
97041SOL     OW93019   6.806   4.214   3.909
97041SOL    HW193020   6.737   4.206   3.976
97041SOL    HW293021   6.824   4.308   3.905
97042SOL     OW93022  11.184  10.202  10.436
97042SOL    HW193023  11.230  10.285  10.452
97042SOL    HW293024  11.128  10.220  10.361
97043SOL     OW93025  12.949  11.353  12.844
97043SOL    HW193026  12.854  11.364  12.845
97043SOL    HW293027  12.966  11.294  12.771
97044SOL     OW93028   4.879   7.118   2.734
97044SOL    HW193029   4.827   7.080   2.664
97044SOL    HW293030   4.827   7.194   2.763
97045SOL     OW93031  14.264  11.324   6.417
97045SOL    HW193032  14.241  11.389   6.483
97045SOL    HW293033  14.272  11.242   6.466
97046SOL     OW93034  14.194   7.915   1.243
97046SOL    HW193035  14.127   7.977   1.272
97046SOL    HW293036  14.145   7.847   1.197
97047SOL     OW93037   5.403  14.384   3.745
97047SOL    HW193038   5.467  14.386   3.674
97047SOL    HW293039   5.430  14.456   3.803
97048SOL     OW93040  11.016   2.880   1.157
97048SOL    HW193041  11.082   2.812   1.143
97048SOL    HW293042  10.951   2.838   1.213
97049SOL     OW93043  11.240  12.272  14.137
97049SOL    HW193044  11.280  12.191  14.104
97049SOL    HW293045  11.289  12.292  14.217
97050SOL     OW93046  10.632   2.025   6.322
97050SOL    HW193047  10.612   2.113   6.290
97050SOL    HW293048  10.554   1.973   6.301
97051SOL     OW93049   9.566   2.945  13.055
97051SOL    HW193050   9.494   3.005  13.037
97051SOL    HW293051   9.626   2.995  13.109
97052SOL     OW93052  12.619   0.791   5.803
97052SOL    HW193053  12.662   0.706   5.814
97052SOL    HW293054  12.528   0.775   5.826
97053SOL     OW93055  11.372  13.619  12.500
97053SOL    HW193056  11.380  13.551  12.433
97053SOL    HW293057  11.452  13.671  12.492
97054SOL     OW93058   0.902   9.922   0.195
97054SOL    HW193059   0.984   9.901   0.239
97054SOL    HW293060   0.852   9.840   0.195
97055SOL     OW93061   3.758   5.881   8.556
97055SOL    HW193062   3.816   5.807   8.539
97055SOL    HW293063   3.676   5.857   8.513
97056SOL     OW93064   4.196   0.084   6.632
97056SOL    HW193065   4.223   0.167   6.671
97056SOL    HW293066   4.103   0.095   6.613
97057SOL     OW93067   5.157  10.481  11.170
97057SOL    HW193068   5.175  10.391  11.196
97057SOL    HW293069   5.241  10.514  11.138
97058SOL     OW93070   2.554   9.144   1.802
97058SOL    HW193071   2.497   9.168   1.876
97058SOL    HW293072   2.534   9.052   1.787
97059SOL     OW93073   4.393   4.342  12.202
97059SOL    HW193074   4.429   4.379  12.283
97059SOL    HW293075   4.371   4.252  12.226
97060SOL     OW93076  13.559  14.159   4.349
97060SOL    HW193077  13.514  14.203   4.277
97060SOL    HW293078  13.498  14.162   4.422
97061SOL     OW93079   8.412   7.037   3.836
97061SOL    HW193080   8.495   7.050   3.883
97061SOL    HW293081   8.345   7.056   3.901
97062SOL     OW93082   4.241   7.949  13.746
97062SOL    HW193083   4.302   7.887  13.785
97062SOL    HW293084   4.270   8.035  13.776
97063SOL     OW93085   2.935  13.292  12.300
97063SOL    HW193086   3.023  13.283  12.336
97063SOL    HW293087   2.885  13.219  12.339
97064SOL     OW93088   5.757  13.778   2.551
97064SOL    HW193089   5.835  13.723   2.562
97064SOL    HW293090   5.722  13.786   2.640
97065SOL     OW93091  11.954   3.157   8.183
97065SOL    HW193092  11.882   3.104   8.218
97065SOL    HW293093  11.926   3.180   8.095
97066SOL     OW93094  13.474   3.880   9.509
97066SOL    HW193095  13.433   3.966   9.511
97066SOL    HW293096  13.414   3.826   9.457
97067SOL     OW93097   6.793   4.015   2.959
97067SOL    HW193098   6.818   3.929   2.925
97067SOL    HW293099   6.805   4.008   3.054
97068SOL     OW93100  12.601   5.545  14.258
97068SOL    HW193101  12.579   5.565  14.167
97068SOL    HW293102  12.697   5.550  14.261
97069SOL     OW93103   6.348   8.980   2.696
97069SOL    HW193104   6.428   9.033   2.695
97069SOL    HW293105   6.325   8.973   2.789
97070SOL     OW93106   1.396   4.026  12.910
97070SOL    HW193107   1.365   4.098  12.855
97070SOL    HW293108   1.457   4.067  12.971
97071SOL     OW93109  10.028  13.641   6.234
97071SOL    HW193110  10.085  13.566   6.247
97071SOL    HW293111  10.087  13.716   6.234
97072SOL     OW93112  11.711   2.319   7.390
97072SOL    HW193113  11.663   2.388   7.344
97072SOL    HW293114  11.659   2.302   7.469
97073SOL     OW93115   4.397   6.146  12.822
97073SOL    HW193116   4.364   6.218  12.875
97073SOL    HW293117   4.473   6.182  12.777
97074SOL     OW93118   8.739   3.354   2.493
97074SOL    HW193119   8.753   3.286   2.558
97074SOL    HW293120   8.707   3.429   2.543
97075SOL     OW93121   5.978  10.345   1.741
97075SOL    HW193122   5.886  10.318   1.741
97075SOL    HW293123   6.019  10.288   1.806
97076SOL     OW93124   5.141   6.450   5.373
97076SOL    HW193125   5.218   6.412   5.416
97076SOL    HW293126   5.126   6.533   5.418
97077SOL     OW93127  11.385   1.223   9.100
97077SOL    HW193128  11.460   1.246   9.156
97077SOL    HW293129  11.423   1.204   9.015
97078SOL     OW93130  12.666   9.721   9.959
97078SOL    HW193131  12.659   9.685  10.047
97078SOL    HW293132  12.581   9.701   9.918
97079SOL     OW93133   7.103   4.184   5.362
97079SOL    HW193134   7.108   4.145   5.449
97079SOL    HW293135   7.010   4.183   5.341
97080SOL     OW93136   9.220   8.565  13.004
97080SOL    HW193137   9.170   8.611  13.071
97080SOL    HW293138   9.293   8.624  12.983
97081SOL     OW93139   5.039  12.245   8.257
97081SOL    HW193140   5.013  12.246   8.349
97081SOL    HW293141   5.109  12.310   8.251
97082SOL     OW93142  10.801  13.052   7.762
97082SOL    HW193143  10.737  13.060   7.691
97082SOL    HW293144  10.864  13.123   7.745
97083SOL     OW93145   4.181   1.665   2.072
97083SOL    HW193146   4.165   1.637   2.162
97083SOL    HW293147   4.224   1.591   2.030
97084SOL     OW93148   8.790   2.843  10.981
97084SOL    HW193149   8.811   2.852  10.888
97084SOL    HW293150   8.837   2.914  11.024
97085SOL     OW93151  14.816   9.921   8.781
97085SOL    HW193152   0.030   9.896   8.776
97085SOL    HW293153  14.816  10.016   8.784
97086SOL     OW93154  11.360   3.201  14.417
97086SOL    HW193155  11.338   3.226  14.328
97086SOL    HW293156  11.427   3.134  14.408
97087SOL     OW93157   7.984   3.479   7.495
97087SOL    HW193158   7.951   3.391   7.474
97087SOL    HW293159   7.939   3.537   7.433
97088SOL     OW93160  12.529   8.575  10.744
97088SOL    HW193161  12.563   8.559  10.832
97088SOL    HW293162  12.438   8.599  10.758
97089SOL     OW93163   5.001   4.940   4.011
97089SOL    HW193164   5.084   4.988   4.009
97089SOL    HW293165   4.948   4.982   3.943
97090SOL     OW93166   3.479  11.379  14.023
97090SOL    HW193167   3.430  11.315  14.074
97090SOL    HW293168   3.440  11.374  13.935
97091SOL     OW93169   1.590   5.473   3.849
97091SOL    HW193170   1.559   5.448   3.762
97091SOL    HW293171   1.685   5.477   3.841
97092SOL     OW93172   5.669   8.435   6.257
97092SOL    HW193173   5.640   8.504   6.198
97092SOL    HW293174   5.639   8.464   6.344
97093SOL     OW93175   1.005   0.890   2.911
97093SOL    HW193176   1.059   0.844   2.848
97093SOL    HW293177   0.916   0.882   2.878
97094SOL     OW93178  12.571   6.530   9.148
97094SOL    HW193179  12.649   6.486   9.114
97094SOL    HW293180  12.556   6.491   9.234
97095SOL     OW93181   4.558  10.281  11.827
97095SOL    HW193182   4.638  10.240  11.795
97095SOL    HW293183   4.580  10.374  11.835
97096SOL     OW93184   6.437   7.915  10.170
97096SOL    HW193185   6.463   8.007  10.181
97096SOL    HW293186   6.396   7.912  10.083
97097SOL     OW93187  14.861   1.975   3.076
97097SOL    HW193188  14.872   1.936   2.989
97097SOL    HW293189  14.797   1.919   3.120
97098SOL     OW93190  10.375   9.253  11.113
97098SOL    HW193191  10.352   9.246  11.206
97098SOL    HW293192  10.451   9.196  11.103
97099SOL     OW93193   5.229  13.534   8.840
97099SOL    HW193194   5.155  13.550   8.782
97099SOL    HW293195   5.299  13.503   8.782
97100SOL     OW93196   0.434   7.986   6.748
97100SOL    HW193197   0.374   8.000   6.821
97100SOL    HW293198   0.516   8.026   6.776
97101SOL     OW93199   4.475   2.753   5.603
97101SOL    HW193200   4.523   2.753   5.685
97101SOL    HW293201   4.537   2.717   5.539
97102SOL     OW93202  12.237  13.273  10.368
97102SOL    HW193203  12.194  13.354  10.339
97102SOL    HW293204  12.295  13.300  10.438
97103SOL     OW93205  10.651   6.569  10.321
97103SOL    HW193206  10.640   6.537  10.231
97103SOL    HW293207  10.730   6.623  10.318
97104SOL     OW93208   9.129   5.251   1.362
97104SOL    HW193209   9.216   5.234   1.399
97104SOL    HW293210   9.085   5.166   1.363
97105SOL     OW93211   9.356   1.613   6.809
97105SOL    HW193212   9.428   1.571   6.856
97105SOL    HW293213   9.282   1.554   6.821
97106SOL     OW93214  12.501  14.708   3.897
97106SOL    HW193215  12.587  14.710   3.938
97106SOL    HW293216  12.516  14.661   3.814
97107SOL     OW93217   0.121   0.954   4.604
97107SOL    HW193218   0.153   0.880   4.655
97107SOL    HW293219   0.091   0.915   4.521
97108SOL     OW93220   4.748   2.793   8.622
97108SOL    HW193221   4.727   2.843   8.543
97108SOL    HW293222   4.754   2.860   8.691
97109SOL     OW93223   6.080   5.193   6.453
97109SOL    HW193224   6.033   5.128   6.402
97109SOL    HW293225   6.056   5.174   6.544
97110SOL     OW93226   3.880   7.520   1.429
97110SOL    HW193227   3.924   7.595   1.469
97110SOL    HW293228   3.935   7.497   1.354
97111SOL     OW93229   1.722   7.062  12.846
97111SOL    HW193230   1.734   7.156  12.857
97111SOL    HW293231   1.772   7.040  12.768
97112SOL     OW93232   8.988   1.276   8.967
97112SOL    HW193233   9.029   1.331   9.034
97112SOL    HW293234   9.003   1.324   8.885
97113SOL     OW93235   8.707  12.340   5.135
97113SOL    HW193236   8.773  12.303   5.076
97113SOL    HW293237   8.729  12.433   5.141
97114SOL     OW93238   4.445   0.113   6.033
97114SOL    HW193239   4.399   0.153   6.107
97114SOL    HW293240   4.446   0.181   5.966
97115SOL     OW93241   7.396   9.871  14.423
97115SOL    HW193242   7.468   9.843  14.480
97115SOL    HW293243   7.353   9.941  14.471
97116SOL     OW93244   3.676  13.128  14.500
97116SOL    HW193245   3.763  13.090  14.514
97116SOL    HW293246   3.629  13.062  14.450
97117SOL     OW93247  13.746  11.657  11.209
97117SOL    HW193248  13.776  11.747  11.198
97117SOL    HW293249  13.812  11.604  11.163
97118SOL     OW93250  12.536  10.481   2.293
97118SOL    HW193251  12.604  10.513   2.233
97118SOL    HW293252  12.487  10.417   2.241
97119SOL     OW93253   8.413  11.720   2.430
97119SOL    HW193254   8.386  11.806   2.398
97119SOL    HW293255   8.363  11.658   2.378
97120SOL     OW93256   6.954   9.637   0.381
97120SOL    HW193257   7.031   9.639   0.437
97120SOL    HW293258   6.908   9.557   0.405
97121SOL     OW93259   9.588   6.984   8.263
97121SOL    HW193260   9.572   6.897   8.227
97121SOL    HW293261   9.527   7.041   8.217
97122SOL     OW93262   4.875  12.989  12.626
97122SOL    HW193263   4.806  13.036  12.580
97122SOL    HW293264   4.846  12.986  12.717
97123SOL     OW93265  14.161   8.525  10.467
97123SOL    HW193266  14.137   8.578  10.542
97123SOL    HW293267  14.173   8.589  10.396
97124SOL     OW93268   1.986  12.927   0.252
97124SOL    HW193269   1.952  12.909   0.164
97124SOL    HW293270   1.910  12.923   0.309
97125SOL     OW93271  14.600   3.550  11.635
97125SOL    HW193272  14.682   3.550  11.585
97125SOL    HW293273  14.625   3.577  11.723
97126SOL     OW93274  14.098   0.082   4.876
97126SOL    HW193275  14.104   0.089   4.781
97126SOL    HW293276  14.187   0.062   4.905
97127SOL     OW93277   3.867  14.298  14.082
97127SOL    HW193278   3.843  14.211  14.115
97127SOL    HW293279   3.885  14.283  13.989
97128SOL     OW93280   2.523   2.774   0.267
97128SOL    HW193281   2.518   2.869   0.277
97128SOL    HW293282   2.538   2.760   0.174
97129SOL     OW93283   8.771  13.605   1.119
97129SOL    HW193284   8.776  13.654   1.201
97129SOL    HW293285   8.692  13.639   1.076
97130SOL     OW93286   7.631   9.645   3.016
97130SOL    HW193287   7.552   9.687   3.050
97130SOL    HW293288   7.626   9.555   3.047
97131SOL     OW93289   7.452   9.780   3.583
97131SOL    HW193290   7.413   9.701   3.619
97131SOL    HW293291   7.526   9.799   3.641
97132SOL     OW93292   4.938  13.920  14.146
97132SOL    HW193293   5.014  13.864  14.165
97132SOL    HW293294   4.942  13.934  14.051
97133SOL     OW93295  13.059   8.508   1.572
97133SOL    HW193296  13.039   8.490   1.480
97133SOL    HW293297  13.104   8.592   1.571
97134SOL     OW93298  11.134  14.787  10.347
97134SOL    HW193299  11.085  14.851  10.295
97134SOL    HW293300  11.123  14.816  10.437
97135SOL     OW93301   8.155   3.365   8.004
97135SOL    HW193302   8.060   3.361   7.994
97135SOL    HW293303   8.189   3.373   7.915
97136SOL     OW93304   8.032   4.645  13.075
97136SOL    HW193305   8.031   4.559  13.034
97136SOL    HW293306   8.073   4.702  13.010
97137SOL     OW93307   4.201   5.221  13.074
97137SOL    HW193308   4.168   5.144  13.120
97137SOL    HW293309   4.133   5.287  13.087
97138SOL     OW93310   9.604   6.835   4.345
97138SOL    HW193311   9.639   6.809   4.260
97138SOL    HW293312   9.658   6.910   4.371
97139SOL     OW93313   2.793   7.428   9.558
97139SOL    HW193314   2.821   7.379   9.636
97139SOL    HW293315   2.828   7.377   9.484
97140SOL     OW93316   5.814   8.929  14.697
97140SOL    HW193317   5.830   8.932  14.603
97140SOL    HW293318   5.719   8.939  14.706
97141SOL     OW93319  13.865   3.389  13.126
97141SOL    HW193320  13.881   3.411  13.034
97141SOL    HW293321  13.935   3.328  13.149
97142SOL     OW93322   4.675  11.843  13.668
97142SOL    HW193323   4.746  11.882  13.616
97142SOL    HW293324   4.659  11.906  13.737
97143SOL     OW93325  13.493   1.096  13.316
97143SOL    HW193326  13.421   1.134  13.367
97143SOL    HW293327  13.495   1.148  13.236
97144SOL     OW93328   4.566   9.424   1.211
97144SOL    HW193329   4.524   9.371   1.144
97144SOL    HW293330   4.645   9.459   1.169
97145SOL     OW93331  14.493  12.469  14.623
97145SOL    HW193332  14.433  12.492  14.552
97145SOL    HW293333  14.520  12.554  14.659
97146SOL     OW93334  10.346   7.348   5.901
97146SOL    HW193335  10.421   7.403   5.924
97146SOL    HW293336  10.349   7.343   5.805
97147SOL     OW93337   2.379   9.648  14.807
97147SOL    HW193338   2.333   9.730  14.789
97147SOL    HW293339   2.423   9.627  14.724
97148SOL     OW93340   3.372   1.284  12.816
97148SOL    HW193341   3.426   1.233  12.756
97148SOL    HW293342   3.290   1.235  12.823
97149SOL     OW93343   2.660   5.034   7.558
97149SOL    HW193344   2.596   5.078   7.503
97149SOL    HW293345   2.732   5.097   7.567
97150SOL     OW93346   6.901   8.722  13.846
97150SOL    HW193347   6.962   8.696  13.777
97150SOL    HW293348   6.826   8.760  13.799
97151SOL     OW93349  14.469   5.060   1.022
97151SOL    HW193350  14.467   5.024   1.110
97151SOL    HW293351  14.380   5.048   0.989
97152SOL     OW93352  12.072   4.026   2.619
97152SOL    HW193353  11.983   4.029   2.585
97152SOL    HW293354  12.067   4.072   2.703
97153SOL     OW93355   1.082  10.085   1.894
97153SOL    HW193356   1.144  10.042   1.954
97153SOL    HW293357   1.135  10.108   1.818
97154SOL     OW93358  13.658   2.077   1.909
97154SOL    HW193359  13.740   2.036   1.880
97154SOL    HW293360  13.596   2.004   1.917
97155SOL     OW93361   1.497  13.137   5.911
97155SOL    HW193362   1.414  13.110   5.871
97155SOL    HW293363   1.525  13.213   5.860
97156SOL     OW93364   3.368   0.599  12.340
97156SOL    HW193365   3.367   0.571  12.249
97156SOL    HW293366   3.288   0.650  12.351
97157SOL     OW93367   8.429   6.743   9.944
97157SOL    HW193368   8.342   6.710   9.922
97157SOL    HW293369   8.412   6.823   9.994
97158SOL     OW93370   2.258  12.125   2.325
97158SOL    HW193371   2.330  12.109   2.386
97158SOL    HW293372   2.210  12.199   2.363
97159SOL     OW93373  11.744   6.737   8.901
97159SOL    HW193374  11.807   6.808   8.891
97159SOL    HW293375  11.709   6.723   8.812
97160SOL     OW93376   1.788  14.594  13.797
97160SOL    HW193377   1.834  14.540  13.734
97160SOL    HW293378   1.793  14.546  13.879
97161SOL     OW93379  11.929   5.311   2.950
97161SOL    HW193380  12.017   5.344   2.970
97161SOL    HW293381  11.886   5.303   3.035
97162SOL     OW93382  14.347  13.361   8.249
97162SOL    HW193383  14.407  13.432   8.228
97162SOL    HW293384  14.401  13.282   8.247
97163SOL     OW93385   4.547   7.092  12.330
97163SOL    HW193386   4.573   7.017  12.384
97163SOL    HW293387   4.494   7.055  12.260
97164SOL     OW93388   6.722  13.568   6.055
97164SOL    HW193389   6.749  13.508   6.125
97164SOL    HW293390   6.720  13.654   6.098
97165SOL     OW93391   3.864   1.709   6.335
97165SOL    HW193392   3.789   1.733   6.389
97165SOL    HW293393   3.843   1.621   6.303
97166SOL     OW93394   4.699   1.000   2.079
97166SOL    HW193395   4.703   1.059   2.003
97166SOL    HW293396   4.608   1.006   2.108
97167SOL     OW93397   6.473   5.506   3.754
97167SOL    HW193398   6.406   5.555   3.706
97167SOL    HW293399   6.507   5.443   3.690
97168SOL     OW93400   4.077   6.872   0.902
97168SOL    HW193401   4.020   6.827   0.840
97168SOL    HW293402   4.115   6.802   0.955
97169SOL     OW93403   8.513   1.038   4.869
97169SOL    HW193404   8.563   1.120   4.867
97169SOL    HW293405   8.576   0.971   4.841
97170SOL     OW93406   0.128   1.875   3.894
97170SOL    HW193407   0.219   1.846   3.892
97170SOL    HW293408   0.117   1.915   3.980
97171SOL     OW93409   0.783   1.441   0.012
97171SOL    HW193410   0.877   1.424   0.022
97171SOL    HW293411   0.770   1.527   0.052
97172SOL     OW93412   4.560   1.282  10.357
97172SOL    HW193413   4.571   1.362  10.306
97172SOL    HW293414   4.480   1.242  10.323
97173SOL     OW93415   2.707  11.343   0.604
97173SOL    HW193416   2.727  11.429   0.641
97173SOL    HW293417   2.764  11.335   0.528
97174SOL     OW93418  14.345  10.824   1.398
97174SOL    HW193419  14.382  10.767   1.466
97174SOL    HW293420  14.408  10.895   1.388
97175SOL     OW93421  10.672  11.761   3.680
97175SOL    HW193422  10.579  11.763   3.655
97175SOL    HW293423  10.682  11.834   3.740
97176SOL     OW93424   8.107   0.384   0.848
97176SOL    HW193425   8.191   0.431   0.847
97176SOL    HW293426   8.068   0.404   0.763
97177SOL     OW93427   0.448  11.903   7.567
97177SOL    HW193428   0.451  11.838   7.637
97177SOL    HW293429   0.469  11.986   7.610
97178SOL     OW93430   7.116   7.408   1.617
97178SOL    HW193431   7.141   7.369   1.700
97178SOL    HW293432   7.100   7.333   1.559
97179SOL     OW93433  12.418   0.835   2.996
97179SOL    HW193434  12.475   0.759   3.011
97179SOL    HW293435  12.439   0.895   3.067
97180SOL     OW93436  13.840  10.859   7.703
97180SOL    HW193437  13.906  10.928   7.693
97180SOL    HW293438  13.783  10.890   7.773
97181SOL     OW93439   1.067   6.386   0.790
97181SOL    HW193440   1.068   6.447   0.716
97181SOL    HW293441   1.065   6.299   0.749
97182SOL     OW93442   7.294   4.029  13.428
97182SOL    HW193443   7.337   3.946  13.448
97182SOL    HW293444   7.213   4.027  13.478
97183SOL     OW93445   9.031   8.083   3.458
97183SOL    HW193446   9.022   8.131   3.540
97183SOL    HW293447   9.083   8.005   3.481
97184SOL     OW93448   8.872   5.413   8.214
97184SOL    HW193449   8.839   5.465   8.141
97184SOL    HW293450   8.963   5.439   8.223
97185SOL     OW93451   5.533   3.009   2.176
97185SOL    HW193452   5.588   2.972   2.245
97185SOL    HW293453   5.591   3.069   2.129
97186SOL     OW93454  11.082   3.763   7.488
97186SOL    HW193455  11.055   3.854   7.501
97186SOL    HW293456  11.113   3.759   7.398
97187SOL     OW93457   7.962   4.979   0.831
97187SOL    HW193458   7.896   5.007   0.894
97187SOL    HW293459   8.024   4.927   0.882
97188SOL     OW93460   8.366  12.437   7.658
97188SOL    HW193461   8.415  12.446   7.576
97188SOL    HW293462   8.433  12.447   7.726
97189SOL     OW93463  10.951   6.971   0.467
97189SOL    HW193464  10.971   7.011   0.552
97189SOL    HW293465  11.037   6.960   0.426
97190SOL     OW93466  12.751   9.157  12.217
97190SOL    HW193467  12.710   9.211  12.150
97190SOL    HW293468  12.844   9.177  12.211
97191SOL     OW93469  10.085  11.287  13.351
97191SOL    HW193470  10.073  11.305  13.445
97191SOL    HW293471  10.000  11.305  13.312
97192SOL     OW93472   7.570   6.661   5.003
97192SOL    HW193473   7.580   6.566   5.000
97192SOL    HW293474   7.478   6.675   5.025
97193SOL     OW93475   3.753  10.071  14.658
97193SOL    HW193476   3.810  10.107  14.726
97193SOL    HW293477   3.794  10.098  14.575
97194SOL     OW93478  14.313  11.558   4.306
97194SOL    HW193479  14.342  11.648   4.290
97194SOL    HW293480  14.293  11.523   4.219
97195SOL     OW93481   4.336  14.194   6.562
97195SOL    HW193482   4.271  14.218   6.497
97195SOL    HW293483   4.406  14.258   6.552
97196SOL     OW93484   5.864  12.977   7.886
97196SOL    HW193485   5.829  12.920   7.955
97196SOL    HW293486   5.823  13.062   7.903
97197SOL     OW93487  13.827  10.259   0.880
97197SOL    HW193488  13.913  10.300   0.871
97197SOL    HW293489  13.842  10.182   0.934
97198SOL     OW93490   0.604  14.226   4.201
97198SOL    HW193491   0.668  14.262   4.139
97198SOL    HW293492   0.547  14.171   4.147
97199SOL     OW93493  10.044   7.469  14.537
97199SOL    HW193494   9.956   7.502  14.552
97199SOL    HW293495  10.038   7.422  14.453
97200SOL     OW93496   9.025  13.858   2.133
97200SOL    HW193497   9.108  13.868   2.086
97200SOL    HW293498   8.961  13.903   2.078
97201SOL     OW93499   1.031   0.502   4.232
97201SOL    HW193500   1.059   0.412   4.217
97201SOL    HW293501   1.083   0.530   4.308
97202SOL     OW93502   9.457  10.492  14.795
97202SOL    HW193503   9.430  10.486   0.009
97202SOL    HW293504   9.426  10.411  14.755
97203SOL     OW93505   4.484  11.650   7.689
97203SOL    HW193506   4.528  11.735   7.683
97203SOL    HW293507   4.424  11.649   7.615
97204SOL     OW93508   5.752   8.021  11.051
97204SOL    HW193509   5.769   7.947  10.994
97204SOL    HW293510   5.713   8.088  10.993
97205SOL     OW93511   5.400   9.149   9.360
97205SOL    HW193512   5.306   9.152   9.379
97205SOL    HW293513   5.419   9.056   9.349
97206SOL     OW93514  13.825  13.638   1.739
97206SOL    HW193515  13.798  13.700   1.808
97206SOL    HW293516  13.804  13.552   1.775
97207SOL     OW93517  13.028  12.806   9.674
97207SOL    HW193518  13.059  12.724   9.712
97207SOL    HW293519  13.012  12.863   9.750
97208SOL     OW93520   2.257   1.560   8.639
97208SOL    HW193521   2.258   1.655   8.626
97208SOL    HW293522   2.309   1.524   8.567
97209SOL     OW93523   6.164   0.323   1.041
97209SOL    HW193524   6.153   0.277   0.958
97209SOL    HW293525   6.097   0.287   1.098
97210SOL     OW93526   3.220  14.345   2.306
97210SOL    HW193527   3.232  14.269   2.363
97210SOL    HW293528   3.308  14.368   2.278
97211SOL     OW93529  12.307  14.340   3.223
97211SOL    HW193530  12.352  14.256   3.232
97211SOL    HW293531  12.220  14.325   3.260
97212SOL     OW93532   8.611   7.917  14.877
97212SOL    HW193533   8.618   8.011   0.015
97212SOL    HW293534   8.642   7.906  14.787
97213SOL     OW93535  14.313  13.920  13.690
97213SOL    HW193536  14.354  13.872  13.762
97213SOL    HW293537  14.223  13.934  13.718
97214SOL     OW93538   2.159  14.416   2.801
97214SOL    HW193539   2.091  14.454   2.858
97214SOL    HW293540   2.162  14.324   2.826
97215SOL     OW93541   2.063   4.461   3.307
97215SOL    HW193542   2.095   4.390   3.363
97215SOL    HW293543   2.131   4.527   3.310
97216SOL     OW93544  13.321   2.074  13.862
97216SOL    HW193545  13.293   2.126  13.786
97216SOL    HW293546  13.378   2.007  13.826
97217SOL     OW93547   8.924   0.248   4.014
97217SOL    HW193548   8.939   0.299   3.935
97217SOL    HW293549   8.856   0.296   4.062
97218SOL     OW93550  11.193   6.946   0.298
97218SOL    HW193551  11.221   7.034   0.324
97218SOL    HW293552  11.249   6.887   0.350
97219SOL     OW93553   8.797   3.774  14.660
97219SOL    HW193554   8.732   3.713  14.624
97219SOL    HW293555   8.881   3.737  14.634
97220SOL     OW93556   8.748   2.964  11.327
97220SOL    HW193557   8.818   2.903  11.304
97220SOL    HW293558   8.677   2.908  11.358
97221SOL     OW93559   6.843   9.062  12.980
97221SOL    HW193560   6.931   9.041  12.947
97221SOL    HW293561   6.809   9.127  12.918
97222SOL     OW93562   5.414  13.765  13.388
97222SOL    HW193563   5.401  13.683  13.342
97222SOL    HW293564   5.494  13.751  13.439
97223SOL     OW93565  12.666   6.052   3.044
97223SOL    HW193566  12.576   6.023   3.033
97223SOL    HW293567  12.682   6.111   2.971
97224SOL     OW93568   0.857   7.208   2.679
97224SOL    HW193569   0.766   7.179   2.689
97224SOL    HW293570   0.888   7.163   2.600
97225SOL     OW93571   7.884   4.898  11.076
97225SOL    HW193572   7.853   4.819  11.033
97225SOL    HW293573   7.979   4.898  11.059
97226SOL     OW93574   7.363  13.441  13.290
97226SOL    HW193575   7.318  13.380  13.348
97226SOL    HW293576   7.455  13.433  13.313
97227SOL     OW93577   7.213   8.514   9.033
97227SOL    HW193578   7.184   8.502   8.943
97227SOL    HW293579   7.290   8.570   9.026
97228SOL     OW93580  14.178   4.793   5.846
97228SOL    HW193581  14.113   4.854   5.881
97228SOL    HW293582  14.127   4.720   5.811
97229SOL     OW93583  12.339   0.248   4.925
97229SOL    HW193584  12.336   0.340   4.953
97229SOL    HW293585  12.342   0.253   4.830
97230SOL     OW93586  13.781  10.895   5.285
97230SOL    HW193587  13.831  10.818   5.259
97230SOL    HW293588  13.826  10.929   5.362
97231SOL     OW93589   7.761   9.977  12.701
97231SOL    HW193590   7.780  10.009  12.789
97231SOL    HW293591   7.750   9.883  12.711
97232SOL     OW93592  14.397   5.390   5.283
97232SOL    HW193593  14.484   5.371   5.249
97232SOL    HW293594  14.369   5.309   5.326
97233SOL     OW93595  11.171  11.734  13.714
97233SOL    HW193596  11.102  11.769  13.770
97233SOL    HW293597  11.184  11.645  13.744
97234SOL     OW93598   4.773   7.456   3.927
97234SOL    HW193599   4.781   7.371   3.884
97234SOL    HW293600   4.678   7.471   3.931
97235SOL     OW93601   4.460   5.903   7.841
97235SOL    HW193602   4.493   5.986   7.808
97235SOL    HW293603   4.428   5.924   7.929
97236SOL     OW93604   1.746   5.208   6.002
97236SOL    HW193605   1.842   5.216   5.998
97236SOL    HW293606   1.718   5.283   6.055
97237SOL     OW93607   4.948  10.966   2.116
97237SOL    HW193608   4.867  10.988   2.163
97237SOL    HW293609   4.998  11.048   2.114
97238SOL     OW93610  10.894   0.224   8.801
97238SOL    HW193611  10.848   0.149   8.762
97238SOL    HW293612  10.983   0.218   8.768
97239SOL     OW93613   2.629   3.825  13.846
97239SOL    HW193614   2.559   3.846  13.784
97239SOL    HW293615   2.585   3.818  13.931
97240SOL     OW93616   3.427  13.235   5.371
97240SOL    HW193617   3.339  13.243   5.335
97240SOL    HW293618   3.413  13.220   5.465
97241SOL     OW93619   8.006   6.579  12.414
97241SOL    HW193620   7.922   6.586  12.460
97241SOL    HW293621   8.052   6.660  12.437
97242SOL     OW93622  10.510   0.655   9.147
97242SOL    HW193623  10.466   0.571   9.130
97242SOL    HW293624  10.438   0.718   9.152
97243SOL     OW93625   8.712  12.331   2.965
97243SOL    HW193626   8.742  12.404   3.018
97243SOL    HW293627   8.632  12.300   3.009
97244SOL     OW93628   6.461   3.685   1.039
97244SOL    HW193629   6.550   3.662   1.067
97244SOL    HW293630   6.455   3.651   0.949
97245SOL     OW93631  12.051  10.128   1.206
97245SOL    HW193632  12.107  10.101   1.133
97245SOL    HW293633  12.017  10.214   1.180
97246SOL     OW93634   1.959   4.821   0.579
97246SOL    HW193635   1.925   4.755   0.518
97246SOL    HW293636   1.881   4.868   0.610
97247SOL     OW93637  13.039   6.051   8.779
97247SOL    HW193638  13.036   6.112   8.852
97247SOL    HW293639  13.057   6.106   8.703
97248SOL     OW93640   2.301  10.831   9.902
97248SOL    HW193641   2.264  10.768   9.965
97248SOL    HW293642   2.247  10.909   9.913
97249SOL     OW93643   5.741  13.953   2.344
97249SOL    HW193644   5.704  13.896   2.276
97249SOL    HW293645   5.728  13.905   2.426
97250SOL     OW93646   1.420  13.833   4.297
97250SOL    HW193647   1.444  13.916   4.256
97250SOL    HW293648   1.491  13.815   4.358
97251SOL     OW93649   1.825   9.886  12.503
97251SOL    HW193650   1.878   9.830  12.559
97251SOL    HW293651   1.775   9.940  12.564
97252SOL     OW93652   9.354   9.633   0.008
97252SOL    HW193653   9.414   9.561   0.029
97252SOL    HW293654   9.270   9.590  14.867
97253SOL     OW93655  12.829   7.612   9.557
97253SOL    HW193656  12.865   7.525   9.575
97253SOL    HW293657  12.790   7.639   9.641
97254SOL     OW93658   4.744  11.147   3.614
97254SOL    HW193659   4.754  11.241   3.624
97254SOL    HW293660   4.774  11.110   3.697
97255SOL     OW93661   1.099  11.136  14.307
97255SOL    HW193662   1.114  11.229  14.328
97255SOL    HW293663   1.182  11.093  14.326
97256SOL     OW93664   5.800   0.272   6.550
97256SOL    HW193665   5.825   0.334   6.482
97256SOL    HW293666   5.764   0.197   6.501
97257SOL     OW93667   3.575  12.678   3.807
97257SOL    HW193668   3.535  12.719   3.883
97257SOL    HW293669   3.648  12.736   3.784
97258SOL     OW93670  11.981  14.025  14.722
97258SOL    HW193671  11.951  14.100  14.670
97258SOL    HW293672  11.949  13.948  14.675
97259SOL     OW93673   3.933  13.191   6.761
97259SOL    HW193674   3.867  13.207   6.828
97259SOL    HW293675   4.016  13.212   6.804
97260SOL     OW93676  13.534   9.205  10.680
97260SOL    HW193677  13.599   9.176  10.744
97260SOL    HW293678  13.455   9.221  10.731
97261SOL     OW93679  11.208   2.689   8.613
97261SOL    HW193680  11.166   2.649   8.537
97261SOL    HW293681  11.136   2.711   8.672
97262SOL     OW93682   9.683   1.702   1.679
97262SOL    HW193683   9.772   1.715   1.711
97262SOL    HW293684   9.659   1.614   1.710
97263SOL     OW93685   8.681   0.042   3.630
97263SOL    HW193686   8.680   0.097   3.551
97263SOL    HW293687   8.709   0.102   3.700
97264SOL     OW93688  11.939   4.699   0.587
97264SOL    HW193689  11.894   4.781   0.567
97264SOL    HW293690  12.028   4.712   0.554
97265SOL     OW93691   4.409   0.621   8.786
97265SOL    HW193692   4.357   0.597   8.709
97265SOL    HW293693   4.369   0.571   8.858
97266SOL     OW93694   8.805   9.431   9.868
97266SOL    HW193695   8.754   9.510   9.888
97266SOL    HW293696   8.876   9.463   9.812
97267SOL     OW93697  11.387   6.351   2.169
97267SOL    HW193698  11.406   6.413   2.240
97267SOL    HW293699  11.355   6.273   2.213
97268SOL     OW93700   1.225   8.053   9.572
97268SOL    HW193701   1.256   7.971   9.611
97268SOL    HW293702   1.176   8.096   9.642
97269SOL     OW93703   4.005  11.459  13.692
97269SOL    HW193704   3.931  11.462  13.632
97269SOL    HW293705   3.985  11.388  13.753
97270SOL     OW93706  12.814   8.722  11.482
97270SOL    HW193707  12.749   8.720  11.412
97270SOL    HW293708  12.816   8.813  11.510
97271SOL     OW93709   0.489   0.602   8.427
97271SOL    HW193710   0.407   0.560   8.401
97271SOL    HW293711   0.482   0.612   8.522
97272SOL     OW93712   3.367  10.080   3.662
97272SOL    HW193713   3.342  10.154   3.608
97272SOL    HW293714   3.353  10.003   3.606
97273SOL     OW93715   9.736   3.032   9.979
97273SOL    HW193716   9.811   3.051  10.034
97273SOL    HW293717   9.770   2.975   9.910
97274SOL     OW93718   2.071   7.056   8.896
97274SOL    HW193719   2.062   7.148   8.921
97274SOL    HW293720   1.981   7.024   8.889
97275SOL     OW93721   6.748  11.109   4.413
97275SOL    HW193722   6.745  11.033   4.355
97275SOL    HW293723   6.659  11.116   4.447
97276SOL     OW93724   7.252   7.286   7.419
97276SOL    HW193725   7.225   7.367   7.461
97276SOL    HW293726   7.251   7.221   7.490
97277SOL     OW93727   2.227  12.925   1.909
97277SOL    HW193728   2.206  13.005   1.862
97277SOL    HW293729   2.322  12.916   1.901
97278SOL     OW93730  11.273  11.438  12.684
97278SOL    HW193731  11.229  11.523  12.690
97278SOL    HW293732  11.231  11.384  12.752
97279SOL     OW93733   9.527  14.252   5.334
97279SOL    HW193734   9.590  14.285   5.398
97279SOL    HW293735   9.468  14.326   5.319
97280SOL     OW93736   8.282  11.219   1.775
97280SOL    HW193737   8.268  11.314   1.769
97280SOL    HW293738   8.202  11.185   1.815
97281SOL     OW93739   4.664   4.821  11.811
97281SOL    HW193740   4.625   4.903  11.842
97281SOL    HW293741   4.593   4.757  11.816
97282SOL     OW93742   9.603  10.826   4.004
97282SOL    HW193743   9.618  10.797   3.914
97282SOL    HW293744   9.523  10.879   3.999
97283SOL     OW93745   4.421   0.833   5.788
97283SOL    HW193746   4.484   0.853   5.719
97283SOL    HW293747   4.413   0.915   5.837
97284SOL     OW93748   9.099  12.645   5.622
97284SOL    HW193749   9.036  12.632   5.692
97284SOL    HW293750   9.065  12.718   5.571
97285SOL     OW93751  12.177   3.283   8.778
97285SOL    HW193752  12.142   3.262   8.865
97285SOL    HW293753  12.151   3.374   8.763
97286SOL     OW93754   4.474   8.989   0.261
97286SOL    HW193755   4.548   9.050   0.262
97286SOL    HW293756   4.510   8.908   0.226
97287SOL     OW93757   7.276   3.931  10.119
97287SOL    HW193758   7.246   4.018  10.147
97287SOL    HW293759   7.222   3.870  10.170
97288SOL     OW93760   2.265   2.037   5.354
97288SOL    HW193761   2.222   1.970   5.406
97288SOL    HW293762   2.214   2.116   5.371
97289SOL     OW93763  11.163   1.064   8.057
97289SOL    HW193764  11.218   0.986   8.052
97289SOL    HW293765  11.077   1.035   8.025
97290SOL     OW93766   1.522   3.632  13.520
97290SOL    HW193767   1.577   3.709  13.535
97290SOL    HW293768   1.481   3.647  13.435
97291SOL     OW93769  12.486  11.845   2.034
97291SOL    HW193770  12.451  11.906   1.970
97291SOL    HW293771  12.460  11.881   2.118
97292SOL     OW93772   6.468   7.743   6.571
97292SOL    HW193773   6.464   7.696   6.654
97292SOL    HW293774   6.475   7.674   6.505
97293SOL     OW93775   7.927   5.676  11.132
97293SOL    HW193776   7.867   5.664  11.205
97293SOL    HW293777   7.881   5.638  11.057
97294SOL     OW93778   3.272   8.377  13.936
97294SOL    HW193779   3.326   8.424  14.000
97294SOL    HW293780   3.282   8.427  13.855
97295SOL     OW93781   8.517   7.362   0.775
97295SOL    HW193782   8.611   7.348   0.762
97295SOL    HW293783   8.474   7.295   0.723
97296SOL     OW93784   5.913   2.723   4.380
97296SOL    HW193785   5.902   2.760   4.467
97296SOL    HW293786   5.870   2.637   4.384
97297SOL     OW93787  12.827   3.061   0.243
97297SOL    HW193788  12.909   3.016   0.260
97297SOL    HW293789  12.783   3.065   0.328
97298SOL     OW93790  14.486   1.638   4.602
97298SOL    HW193791  14.404   1.609   4.641
97298SOL    HW293792  14.553   1.613   4.666
97299SOL     OW93793  12.465   7.184   3.326
97299SOL    HW193794  12.512   7.133   3.392
97299SOL    HW293795  12.401   7.234   3.376
97300SOL     OW93796  13.310  12.665   0.094
97300SOL    HW193797  13.382  12.680   0.155
97300SOL    HW293798  13.309  12.570   0.082
97301SOL     OW93799   4.335   9.138   6.475
97301SOL    HW193800   4.373   9.050   6.486
97301SOL    HW293801   4.258   9.124   6.420
97302SOL     OW93802   6.038  10.321  13.997
97302SOL    HW193803   5.953  10.285  13.970
97302SOL    HW293804   6.045  10.299  14.089
97303SOL     OW93805   7.745   1.157  12.357
97303SOL    HW193806   7.747   1.124  12.267
97303SOL    HW293807   7.729   1.251  12.348
97304SOL     OW93808   5.677   7.481   6.007
97304SOL    HW193809   5.771   7.500   6.011
97304SOL    HW293810   5.669   7.414   5.940
97305SOL     OW93811   0.567  11.403   0.996
97305SOL    HW193812   0.638  11.363   0.946
97305SOL    HW293813   0.606  11.424   1.081
97306SOL     OW93814   7.811  11.376  13.477
97306SOL    HW193815   7.755  11.454  13.484
97306SOL    HW293816   7.869  11.395  13.403
97307SOL     OW93817   2.565  13.568   0.054
97307SOL    HW193818   2.579  13.607  14.846
97307SOL    HW293819   2.473  13.543   0.055
97308SOL     OW93820   4.698  14.725   9.075
97308SOL    HW193821   4.760  14.705   9.005
97308SOL    HW293822   4.642  14.647   9.080
97309SOL     OW93823   2.561  12.040  13.266
97309SOL    HW193824   2.524  11.953  13.250
97309SOL    HW293825   2.614  12.057  13.188
97310SOL     OW93826  14.319   2.046   0.933
97310SOL    HW193827  14.347   2.101   0.860
97310SOL    HW293828  14.242   2.000   0.901
97311SOL     OW93829   9.626   2.699  10.451
97311SOL    HW193830   9.600   2.641  10.380
97311SOL    HW293831   9.553   2.695  10.513
97312SOL     OW93832  13.954   9.308   9.290
97312SOL    HW193833  13.970   9.220   9.255
97312SOL    HW293834  13.860   9.321   9.280
97313SOL     OW93835  10.235   5.389  11.599
97313SOL    HW193836  10.251   5.378  11.692
97313SOL    HW293837  10.273   5.474  11.577
97314SOL     OW93838  13.441   6.202   9.907
97314SOL    HW193839  13.419   6.175   9.818
97314SOL    HW293840  13.445   6.120   9.957
97315SOL     OW93841   3.313   1.368   4.885
97315SOL    HW193842   3.247   1.432   4.912
97315SOL    HW293843   3.394   1.400   4.924
97316SOL     OW93844   4.385   6.570   1.741
97316SOL    HW193845   4.476   6.549   1.722
97316SOL    HW293846   4.337   6.538   1.664
97317SOL     OW93847   9.062  11.952   1.489
97317SOL    HW193848   9.099  11.956   1.401
97317SOL    HW293849   9.000  11.879   1.486
97318SOL     OW93850  11.364  11.559  10.551
97318SOL    HW193851  11.435  11.609  10.511
97318SOL    HW293852  11.348  11.487  10.490
97319SOL     OW93853   7.272  12.690  14.431
97319SOL    HW193854   7.270  12.784  14.416
97319SOL    HW293855   7.356  12.674  14.473
97320SOL     OW93856   7.767   2.571   1.284
97320SOL    HW193857   7.818   2.650   1.266
97320SOL    HW293858   7.703   2.566   1.213
97321SOL     OW93859   0.640  13.688  11.296
97321SOL    HW193860   0.613  13.625  11.229
97321SOL    HW293861   0.679  13.761  11.247
97322SOL     OW93862   5.546  11.315  14.554
97322SOL    HW193863   5.485  11.242  14.567
97322SOL    HW293864   5.619  11.277  14.506
97323SOL     OW93865   8.844   1.967   3.998
97323SOL    HW193866   8.910   1.911   4.039
97323SOL    HW293867   8.890   2.048   3.977
97324SOL     OW93868   2.383   2.179   7.434
97324SOL    HW193869   2.447   2.153   7.500
97324SOL    HW293870   2.341   2.258   7.470
97325SOL     OW93871   0.228   1.018   7.653
97325SOL    HW193872   0.232   0.978   7.566
97325SOL    HW293873   0.135   1.022   7.674
97326SOL     OW93874   3.825  10.116   8.255
97326SOL    HW193875   3.833  10.210   8.271
97326SOL    HW293876   3.912  10.081   8.276
97327SOL     OW93877   7.723   6.126   7.608
97327SOL    HW193878   7.795   6.142   7.669
97327SOL    HW293879   7.663   6.199   7.622
97328SOL     OW93880   5.457  10.539   5.303
97328SOL    HW193881   5.511  10.616   5.320
97328SOL    HW293882   5.381  10.551   5.360
97329SOL     OW93883   9.024   2.771  14.719
97329SOL    HW193884   9.075   2.745  14.643
97329SOL    HW293885   8.975   2.848  14.690
97330SOL     OW93886   3.372   5.634  12.152
97330SOL    HW193887   3.446   5.599  12.104
97330SOL    HW293888   3.355   5.571  12.222
97331SOL     OW93889   4.737   4.768   0.496
97331SOL    HW193890   4.791   4.843   0.472
97331SOL    HW293891   4.796   4.693   0.492
97332SOL     OW93892   9.868   6.979   4.067
97332SOL    HW193893   9.786   6.932   4.049
97332SOL    HW293894   9.911   6.986   3.982
97333SOL     OW93895  13.218  13.942   2.133
97333SOL    HW193896  13.208  14.032   2.163
97333SOL    HW293897  13.312  13.923   2.144
97334SOL     OW93898  12.539  13.225   0.852
97334SOL    HW193899  12.605  13.274   0.901
97334SOL    HW293900  12.485  13.292   0.810
97335SOL     OW93901  10.934   0.647   8.172
97335SOL    HW193902  10.888   0.709   8.229
97335SOL    HW293903  10.890   0.564   8.187
97336SOL     OW93904  10.603   7.561   3.810
97336SOL    HW193905  10.646   7.476   3.813
97336SOL    HW293906  10.662   7.616   3.758
97337SOL     OW93907   3.604   0.413  10.674
97337SOL    HW193908   3.590   0.391  10.766
97337SOL    HW293909   3.526   0.380  10.629
97338SOL     OW93910  14.872  10.095   4.729
97338SOL    HW193911   0.012  10.076   4.821
97338SOL    HW293912   0.026  10.185   4.717
97339SOL     OW93913  13.672  12.862   9.582
97339SOL    HW193914  13.745  12.829   9.530
97339SOL    HW293915  13.642  12.786   9.632
97340SOL     OW93916   0.669   6.642  13.248
97340SOL    HW193917   0.624   6.721  13.278
97340SOL    HW293918   0.687   6.658  13.156
97341SOL     OW93919  14.546  13.945   8.082
97341SOL    HW193920  14.478  13.891   8.123
97341SOL    HW293921  14.568  13.897   8.002
97342SOL     OW93922   9.196   1.264  10.219
97342SOL    HW193923   9.182   1.279  10.312
97342SOL    HW293924   9.291   1.276  10.207
97343SOL     OW93925  11.156   0.316   3.655
97343SOL    HW193926  11.149   0.366   3.574
97343SOL    HW293927  11.223   0.250   3.637
97344SOL     OW93928   0.217  12.374   1.253
97344SOL    HW193929   0.139  12.321   1.239
97344SOL    HW293930   0.277  12.346   1.184
97345SOL     OW93931   8.326  13.219   6.310
97345SOL    HW193932   8.248  13.166   6.327
97345SOL    HW293933   8.341  13.265   6.393
97346SOL     OW93934  10.456   3.514  13.092
97346SOL    HW193935  10.513   3.562  13.031
97346SOL    HW293936  10.453   3.425  13.056
97347SOL     OW93937  14.100  14.444  12.242
97347SOL    HW193938  14.063  14.520  12.197
97347SOL    HW293939  14.104  14.376  12.175
97348SOL     OW93940  14.427  11.364   5.140
97348SOL    HW193941  14.515  11.377   5.106
97348SOL    HW293942  14.378  11.440   5.108
97349SOL     OW93943  14.433   5.497   5.986
97349SOL    HW193944  14.410   5.477   5.895
97349SOL    HW293945  14.513   5.549   5.980
97350SOL     OW93946   6.888   0.616   8.310
97350SOL    HW193947   6.933   0.617   8.225
97350SOL    HW293948   6.826   0.544   8.303
97351SOL     OW93949   8.235  13.728   1.021
97351SOL    HW193950   8.193  13.642   1.029
97351SOL    HW293951   8.175  13.779   0.967
97352SOL     OW93952   9.254  12.256   7.116
97352SOL    HW193953   9.341  12.284   7.145
97352SOL    HW293954   9.260  12.259   7.020
97353SOL     OW93955   0.871   7.602   9.530
97353SOL    HW193956   0.825   7.596   9.446
97353SOL    HW293957   0.929   7.677   9.520
97354SOL     OW93958   4.743   5.025   7.339
97354SOL    HW193959   4.823   5.019   7.287
97354SOL    HW293960   4.706   5.111   7.317
97355SOL     OW93961   4.697  11.680   3.800
97355SOL    HW193962   4.682  11.610   3.737
97355SOL    HW293963   4.682  11.640   3.886
97356SOL     OW93964  12.487  11.997   6.804
97356SOL    HW193965  12.506  11.972   6.714
97356SOL    HW293966  12.396  12.026   6.803
97357SOL     OW93967   1.271   4.032   2.095
97357SOL    HW193968   1.318   4.103   2.052
97357SOL    HW293969   1.185   4.069   2.116
97358SOL     OW93970   5.688  10.831   1.563
97358SOL    HW193971   5.784  10.833   1.554
97358SOL    HW293972   5.667  10.738   1.571
97359SOL     OW93973   5.193  10.216  14.490
97359SOL    HW193974   5.193  10.182  14.579
97359SOL    HW293975   5.266  10.170  14.447
97360SOL     OW93976   3.012   5.988   2.685
97360SOL    HW193977   2.981   6.051   2.750
97360SOL    HW293978   2.989   6.028   2.601
97361SOL     OW93979  12.906  11.110   3.858
97361SOL    HW193980  12.928  11.066   3.775
97361SOL    HW293981  12.855  11.186   3.832
97362SOL     OW93982   4.104   9.912  13.044
97362SOL    HW193983   4.160   9.966  13.098
97362SOL    HW293984   4.155   9.894  12.965
97363SOL     OW93985   6.214   1.551   6.962
97363SOL    HW193986   6.289   1.596   6.923
97363SOL    HW293987   6.174   1.616   7.020
97364SOL     OW93988   8.267   2.734  12.992
97364SOL    HW193989   8.258   2.655  12.938
97364SOL    HW293990   8.334   2.786  12.947
97365SOL     OW93991  11.328   3.082   0.898
97365SOL    HW193992  11.338   3.000   0.947
97365SOL    HW293993  11.285   3.055   0.816
97366SOL     OW93994  14.031   6.923  13.651
97366SOL    HW193995  14.030   6.889  13.561
97366SOL    HW293996  14.108   6.980  13.654
97367SOL     OW93997   3.244  13.156  10.012
97367SOL    HW193998   3.175  13.191  10.069
97367SOL    HW293999   3.229  13.197   9.927
97368SOL     OW94000  13.967  13.515  10.298
97368SOL    HW194001  14.024  13.581  10.259
97368SOL    HW294002  13.879  13.554  10.292
97369SOL     OW94003   2.268   3.877  10.029
97369SOL    HW194004   2.184   3.896   9.987
97369SOL    HW294005   2.246   3.860  10.121
97370SOL     OW94006   9.202   0.357  14.441
97370SOL    HW194007   9.119   0.331  14.401
97370SOL    HW294008   9.218   0.290  14.508
97371SOL     OW94009  11.674   0.243   0.942
97371SOL    HW194010  11.603   0.300   0.911
97371SOL    HW294011  11.632   0.185   1.005
97372SOL     OW94012   5.305   8.360   2.689
97372SOL    HW194013   5.336   8.446   2.717
97372SOL    HW294014   5.381   8.303   2.697
97373SOL     OW94015  12.298   1.914  12.396
97373SOL    HW194016  12.313   1.894  12.488
97373SOL    HW294017  12.368   1.975  12.372
97374SOL     OW94018   5.350   8.017  12.520
97374SOL    HW194019   5.386   7.945  12.571
97374SOL    HW294020   5.257   7.995  12.511
97375SOL     OW94021  11.754   0.866   8.679
97375SOL    HW194022  11.830   0.899   8.726
97375SOL    HW294023  11.764   0.902   8.590
97376SOL     OW94024   7.241   3.323   5.261
97376SOL    HW194025   7.149   3.340   5.241
97376SOL    HW294026   7.283   3.408   5.255
97377SOL     OW94027   0.106   0.579   7.163
97377SOL    HW194028   0.080   0.647   7.225
97377SOL    HW294029   0.078   0.497   7.203
97378SOL     OW94030  14.293   3.658   9.113
97378SOL    HW194031  14.308   3.605   9.035
97378SOL    HW294032  14.330   3.606   9.185
97379SOL     OW94033   2.199   8.828  11.759
97379SOL    HW194034   2.292   8.804  11.763
97379SOL    HW294035   2.195   8.914  11.801
97380SOL     OW94036   8.206  11.699   8.080
97380SOL    HW194037   8.218  11.647   8.000
97380SOL    HW294038   8.191  11.635   8.149
97381SOL     OW94039  11.966  14.346   6.209
97381SOL    HW194040  12.059  14.367   6.209
97381SOL    HW294041  11.950  14.308   6.296
97382SOL     OW94042   3.560   1.862  14.109
97382SOL    HW194043   3.474   1.888  14.076
97382SOL    HW294044   3.610   1.943  14.112
97383SOL     OW94045   0.282   8.049   4.872
97383SOL    HW194046   0.371   8.021   4.847
97383SOL    HW294047   0.295   8.104   4.949
97384SOL     OW94048   4.041  10.616   7.935
97384SOL    HW194049   4.047  10.700   7.981
97384SOL    HW294050   4.132  10.587   7.925
97385SOL     OW94051  12.518   0.694   6.460
97385SOL    HW194052  12.436   0.645   6.449
97385SOL    HW294053  12.587   0.631   6.439
97386SOL     OW94054   0.612   6.420  13.897
97386SOL    HW194055   0.614   6.432  13.802
97386SOL    HW294056   0.521   6.398  13.916
97387SOL     OW94057  12.276   7.604   7.401
97387SOL    HW194058  12.369   7.593   7.422
97387SOL    HW294059  12.264   7.698   7.393
97388SOL     OW94060   6.290  10.716   2.450
97388SOL    HW194061   6.329  10.773   2.517
97388SOL    HW294062   6.215  10.676   2.494
97389SOL     OW94063  12.555   2.759   3.583
97389SOL    HW194064  12.618   2.802   3.640
97389SOL    HW294065  12.538   2.822   3.513
97390SOL     OW94066   3.095  14.748   9.126
97390SOL    HW194067   3.019  14.731   9.070
97390SOL    HW294068   3.160  14.787   9.068
97391SOL     OW94069   0.106  13.338  12.332
97391SOL    HW194070   0.183  13.395  12.325
97391SOL    HW294071   0.032  13.398  12.326
97392SOL     OW94072  11.045   4.822  13.066
97392SOL    HW194073  11.061   4.908  13.027
97392SOL    HW294074  11.116   4.767  13.032
97393SOL     OW94075   4.102   1.620   3.600
97393SOL    HW194076   4.185   1.625   3.648
97393SOL    HW294077   4.048   1.689   3.639
97394SOL     OW94078   7.464   0.844  12.246
97394SOL    HW194079   7.554   0.820  12.224
97394SOL    HW294080   7.473   0.907  12.317
97395SOL     OW94081  14.138   3.172   0.774
97395SOL    HW194082  14.109   3.102   0.716
97395SOL    HW294083  14.149   3.248   0.717
97396SOL     OW94084   9.205   9.270  13.321
97396SOL    HW194085   9.291   9.270  13.362
97396SOL    HW294086   9.160   9.346  13.359
97397SOL     OW94087   8.745   2.318   9.606
97397SOL    HW194088   8.762   2.389   9.544
97397SOL    HW294089   8.764   2.356   9.692
97398SOL     OW94090   3.109   9.909  12.967
97398SOL    HW194091   3.151   9.977  13.020
97398SOL    HW294092   3.161   9.906  12.886
97399SOL     OW94093   9.641   6.262   1.132
97399SOL    HW194094   9.634   6.357   1.124
97399SOL    HW294095   9.566   6.228   1.083
97400SOL     OW94096  11.713   5.482  10.157
97400SOL    HW194097  11.635   5.473  10.212
97400SOL    HW294098  11.691   5.434  10.077
97401SOL     OW94099   8.082   0.197   4.121
97401SOL    HW194100   8.008   0.142   4.094
97401SOL    HW294101   8.043   0.261   4.181
97402SOL     OW94102  13.868   4.404  11.930
97402SOL    HW194103  13.796   4.401  11.994
97402SOL    HW294104  13.929   4.469  11.966
97403SOL     OW94105  14.000   0.981   3.047
97403SOL    HW194106  13.913   0.985   3.007
97403SOL    HW294107  14.029   1.072   3.048
97404SOL     OW94108  14.722   4.159  11.801
97404SOL    HW194109  14.816   4.159  11.780
97404SOL    HW294110  14.680   4.124  11.723
97405SOL     OW94111  14.681   2.200   4.775
97405SOL    HW194112  14.666   2.137   4.704
97405SOL    HW294113  14.698   2.145   4.852
97406SOL     OW94114   2.895   8.549   7.638
97406SOL    HW194115   2.923   8.464   7.605
97406SOL    HW294116   2.935   8.555   7.725
97407SOL     OW94117  13.370  12.310   9.887
97407SOL    HW194118  13.322  12.282   9.809
97407SOL    HW294119  13.320  12.275   9.960
97408SOL     OW94120   4.588  13.774  14.490
97408SOL    HW194121   4.627  13.802  14.573
97408SOL    HW294122   4.642  13.817  14.423
97409SOL     OW94123   8.899  11.880   9.280
97409SOL    HW194124   8.809  11.910   9.294
97409SOL    HW294125   8.922  11.835   9.361
97410SOL     OW94126   4.038  14.129   0.625
97410SOL    HW194127   3.947  14.151   0.644
97410SOL    HW294128   4.067  14.079   0.702
97411SOL     OW94129  11.498   7.218   6.788
97411SOL    HW194130  11.508   7.299   6.838
97411SOL    HW294131  11.583   7.203   6.748
97412SOL     OW94132  13.707   6.736   1.745
97412SOL    HW194133  13.774   6.765   1.684
97412SOL    HW294134  13.633   6.711   1.690
97413SOL     OW94135   0.330  13.475   2.759
97413SOL    HW194136   0.384  13.410   2.713
97413SOL    HW294137   0.297  13.428   2.835
97414SOL     OW94138  14.311   0.192   1.858
97414SOL    HW194139  14.362   0.270   1.837
97414SOL    HW294140  14.370   0.119   1.840
97415SOL     OW94141  10.373   4.111   7.399
97415SOL    HW194142  10.382   4.155   7.315
97415SOL    HW294143  10.386   4.018   7.380
97416SOL     OW94144  11.736  10.076  11.376
97416SOL    HW194145  11.667  10.123  11.328
97416SOL    HW294146  11.746   9.993  11.329
97417SOL     OW94147  13.052   4.240   6.934
97417SOL    HW194148  13.069   4.147   6.948
97417SOL    HW294149  13.139   4.280   6.932
97418SOL     OW94150   8.613   9.796   8.229
97418SOL    HW194151   8.580   9.881   8.199
97418SOL    HW294152   8.708   9.806   8.229
97419SOL     OW94153  10.431  10.634   5.873
97419SOL    HW194154  10.446  10.672   5.960
97419SOL    HW294155  10.368  10.692   5.832
97420SOL     OW94156   2.825   5.148  11.733
97420SOL    HW194157   2.920   5.133  11.735
97420SOL    HW294158   2.816   5.243  11.718
97421SOL     OW94159   4.672  14.070  13.776
97421SOL    HW194160   4.677  14.143  13.837
97421SOL    HW294161   4.671  14.111  13.689
97422SOL     OW94162   3.398  13.915   0.613
97422SOL    HW194163   3.468  13.924   0.548
97422SOL    HW294164   3.425  13.840   0.666
97423SOL     OW94165   4.209   0.867   1.567
97423SOL    HW194166   4.218   0.802   1.637
97423SOL    HW294167   4.294   0.867   1.524
97424SOL     OW94168   1.247  13.823  10.760
97424SOL    HW194169   1.248  13.805  10.854
97424SOL    HW294170   1.161  13.793  10.731
97425SOL     OW94171   3.096  13.257   4.313
97425SOL    HW194172   3.111  13.163   4.306
97425SOL    HW294173   3.152  13.296   4.246
97426SOL     OW94174  11.176   0.559  13.391
97426SOL    HW194175  11.206   0.481  13.344
97426SOL    HW294176  11.082   0.546  13.402
97427SOL     OW94177   8.840  10.599   1.078
97427SOL    HW194178   8.768  10.647   1.119
97427SOL    HW294179   8.876  10.661   1.014
97428SOL     OW94180   7.823   5.798  14.705
97428SOL    HW194181   7.802   5.869  14.644
97428SOL    HW294182   7.761   5.809  14.777
97429SOL     OW94183   9.392  10.671   5.035
97429SOL    HW194184   9.346  10.725   5.099
97429SOL    HW294185   9.466  10.725   5.007
97430SOL     OW94186  14.778   1.892   2.223
97430SOL    HW194187  14.710   1.936   2.275
97430SOL    HW294188  14.853   1.950   2.228
97431SOL     OW94189   8.976  11.684   4.195
97431SOL    HW194190   8.995  11.646   4.109
97431SOL    HW294191   9.042  11.646   4.253
97432SOL     OW94192  14.241  10.385  14.684
97432SOL    HW194193  14.223  10.476  14.709
97432SOL    HW294194  14.158  10.340  14.697
97433SOL     OW94195   1.026  14.216   5.076
97433SOL    HW194196   1.078  14.180   5.147
97433SOL    HW294197   0.936  14.192   5.098
97434SOL     OW94198   2.266   4.075  10.330
97434SOL    HW194199   2.226   3.991  10.307
97434SOL    HW294200   2.192   4.132  10.349
97435SOL     OW94201   0.340  13.895   7.666
97435SOL    HW194202   0.263  13.840   7.659
97435SOL    HW294203   0.410  13.845   7.623
97436SOL     OW94204   9.824   3.699   3.241
97436SOL    HW194205   9.853   3.651   3.318
97436SOL    HW294206   9.801   3.786   3.273
97437SOL     OW94207   4.581  12.992   5.234
97437SOL    HW194208   4.607  13.020   5.321
97437SOL    HW294209   4.587  12.896   5.237
97438SOL     OW94210   0.624  14.446   3.370
97438SOL    HW194211   0.540  14.403   3.381
97438SOL    HW294212   0.687  14.374   3.361
97439SOL     OW94213   0.331  12.888   8.708
97439SOL    HW194214   0.372  12.937   8.636
97439SOL    HW294215   0.281  12.953   8.756
97440SOL     OW94216   6.696  10.768   8.589
97440SOL    HW194217   6.778  10.783   8.637
97440SOL    HW294218   6.679  10.674   8.599
97441SOL     OW94219  10.102   5.125  12.458
97441SOL    HW194220  10.152   5.167  12.528
97441SOL    HW294221  10.010   5.143  12.480
97442SOL     OW94222   4.192   9.643  11.879
97442SOL    HW194223   4.287   9.654  11.876
97442SOL    HW294224   4.178   9.574  11.944
97443SOL     OW94225   6.438   3.579  11.282
97443SOL    HW194226   6.494   3.632  11.225
97443SOL    HW294227   6.464   3.489  11.265
97444SOL     OW94228  11.577  10.040   6.347
97444SOL    HW194229  11.545  10.114   6.399
97444SOL    HW294230  11.671  10.038   6.364
97445SOL     OW94231   0.586  11.524  14.419
97445SOL    HW194232   0.644  11.506  14.346
97445SOL    HW294233   0.578  11.441  14.465
97446SOL     OW94234   3.769   8.956   0.999
97446SOL    HW194235   3.786   9.024   0.933
97446SOL    HW294236   3.792   8.997   1.082
97447SOL     OW94237  13.133   5.623   9.982
97447SOL    HW194238  13.046   5.642  10.019
97447SOL    HW294239  13.147   5.531  10.003
97448SOL     OW94240   0.720   0.940   4.657
97448SOL    HW194241   0.643   0.991   4.683
97448SOL    HW294242   0.686   0.872   4.599
97449SOL     OW94243   6.805   3.265  11.927
97449SOL    HW194244   6.848   3.341  11.889
97449SOL    HW294245   6.797   3.285  12.020
97450SOL     OW94246   2.071   6.767   0.955
97450SOL    HW194247   2.138   6.768   0.886
97450SOL    HW294248   1.990   6.748   0.910
97451SOL     OW94249   4.376   3.800  13.879
97451SOL    HW194250   4.416   3.769  13.960
97451SOL    HW294251   4.297   3.846  13.908
97452SOL     OW94252  11.912   7.022  11.823
97452SOL    HW194253  11.911   7.022  11.728
97452SOL    HW294254  11.927   6.931  11.848
97453SOL     OW94255  11.635   3.436   6.430
97453SOL    HW194256  11.556   3.388   6.406
97453SOL    HW294257  11.706   3.386   6.390
97454SOL     OW94258   9.257   1.838  13.057
97454SOL    HW194259   9.271   1.747  13.083
97454SOL    HW294260   9.163   1.844  13.040
97455SOL     OW94261   4.601   7.161   6.257
97455SOL    HW194262   4.661   7.161   6.183
97455SOL    HW294263   4.560   7.075   6.255
97456SOL     OW94264   9.410   7.276  14.644
97456SOL    HW194265   9.365   7.360  14.643
97456SOL    HW294266   9.500   7.298  14.669
97457SOL     OW94267  14.139   1.284   4.215
97457SOL    HW194268  14.097   1.308   4.132
97457SOL    HW294269  14.227   1.323   4.209
97458SOL     OW94270   0.718   6.981   0.664
97458SOL    HW194271   0.787   6.919   0.689
97458SOL    HW294272   0.645   6.960   0.722
97459SOL     OW94273   3.044   2.196   3.160
97459SOL    HW194274   2.970   2.140   3.137
97459SOL    HW294275   3.005   2.270   3.205
97460SOL     OW94276   7.862   4.995   2.362
97460SOL    HW194277   7.800   5.055   2.404
97460SOL    HW294278   7.877   4.927   2.427
97461SOL     OW94279   1.074  14.266   1.057
97461SOL    HW194280   0.996  14.261   1.002
97461SOL    HW294281   1.040  14.266   1.147
97462SOL     OW94282  13.591   6.926   6.202
97462SOL    HW194283  13.618   6.834   6.196
97462SOL    HW294284  13.497   6.924   6.183
97463SOL     OW94285   9.585   6.325   6.008
97463SOL    HW194286   9.667   6.282   6.032
97463SOL    HW294287   9.564   6.290   5.921
97464SOL     OW94288  10.081   4.513   4.026
97464SOL    HW194289  10.014   4.558   4.078
97464SOL    HW294290  10.160   4.516   4.081
97465SOL     OW94291   5.642  11.040  13.804
97465SOL    HW194292   5.619  10.983  13.878
97465SOL    HW294293   5.578  11.112  13.809
97466SOL     OW94294   0.909   8.585  11.947
97466SOL    HW194295   0.846   8.554  12.012
97466SOL    HW294296   0.950   8.662  11.986
97467SOL     OW94297   3.011   5.780   0.466
97467SOL    HW194298   3.106   5.783   0.480
97467SOL    HW294299   3.001   5.744   0.378
97468SOL     OW94300   8.274   3.832   5.708
97468SOL    HW194301   8.357   3.790   5.733
97468SOL    HW294302   8.210   3.798   5.771
97469SOL     OW94303  10.717   7.377  14.520
97469SOL    HW194304  10.645   7.336  14.568
97469SOL    HW294305  10.793   7.363  14.576
97470SOL     OW94306   5.524  11.422   0.524
97470SOL    HW194307   5.442  11.455   0.488
97470SOL    HW294308   5.568  11.500   0.558
97471SOL     OW94309   0.991   1.212  11.292
97471SOL    HW194310   0.950   1.296  11.271
97471SOL    HW294311   0.977   1.158  11.215
97472SOL     OW94312   6.018   3.961   1.909
97472SOL    HW194313   5.931   3.943   1.874
97472SOL    HW294314   6.003   3.979   2.002
97473SOL     OW94315   7.690  12.827   2.685
97473SOL    HW194316   7.632  12.889   2.730
97473SOL    HW294317   7.632  12.778   2.628
97474SOL     OW94318   7.337   5.679  12.684
97474SOL    HW194319   7.307   5.735  12.755
97474SOL    HW294320   7.335   5.736  12.607
97475SOL     OW94321  14.057  11.731   1.518
97475SOL    HW194322  13.994  11.767   1.456
97475SOL    HW294323  14.009  11.661   1.563
97476SOL     OW94324  12.237  10.401   1.393
97476SOL    HW194325  12.214  10.416   1.301
97476SOL    HW294326  12.154  10.408   1.440
97477SOL     OW94327  10.155   3.422   8.396
97477SOL    HW194328  10.243   3.405   8.429
97477SOL    HW294329  10.117   3.335   8.383
97478SOL     OW94330   6.176   5.568   8.338
97478SOL    HW194331   6.121   5.586   8.263
97478SOL    HW294332   6.215   5.653   8.361
97479SOL     OW94333  12.716   0.507   0.876
97479SOL    HW194334  12.774   0.510   0.952
97479SOL    HW294335  12.737   0.587   0.827
97480SOL     OW94336  10.254   5.673  11.268
97480SOL    HW194337  10.276   5.667  11.361
97480SOL    HW294338  10.159   5.661  11.265
97481SOL     OW94339   8.323   1.221  13.431
97481SOL    HW194340   8.268   1.198  13.356
97481SOL    HW294341   8.402   1.259  13.392
97482SOL     OW94342   1.777   8.042   5.352
97482SOL    HW194343   1.848   8.062   5.413
97482SOL    HW294344   1.818   7.993   5.281
97483SOL     OW94345  14.852  10.889   2.326
97483SOL    HW194346   0.057  10.859   2.363
97483SOL    HW294347  14.832  10.826   2.257
97484SOL     OW94348   5.435   4.501  13.710
97484SOL    HW194349   5.396   4.431  13.657
97484SOL    HW294350   5.441   4.464  13.798
97485SOL     OW94351   4.788   3.440   2.901
97485SOL    HW194352   4.744   3.490   2.971
97485SOL    HW294353   4.850   3.384   2.948
97486SOL     OW94354   5.143   3.777   9.532
97486SOL    HW194355   5.224   3.795   9.484
97486SOL    HW294356   5.138   3.847   9.597
97487SOL     OW94357   3.200  13.210  14.304
97487SOL    HW194358   3.138  13.280  14.285
97487SOL    HW294359   3.233  13.229  14.392
97488SOL     OW94360  14.417  12.469   3.992
97488SOL    HW194361  14.511  12.465   4.011
97488SOL    HW294362  14.377  12.409   4.054
97489SOL     OW94363  10.289   5.522  13.296
97489SOL    HW194364  10.362   5.585  13.293
97489SOL    HW294365  10.229   5.559  13.361
97490SOL     OW94366  10.400   3.102   2.000
97490SOL    HW194367  10.399   3.058   1.915
97490SOL    HW294368  10.355   3.185   1.984
97491SOL     OW94369  13.177   1.286  12.322
97491SOL    HW194370  13.100   1.306  12.269
97491SOL    HW294371  13.197   1.195  12.302
97492SOL     OW94372  12.218   4.814  14.634
97492SOL    HW194373  12.279   4.785  14.702
97492SOL    HW294374  12.133   4.780  14.663
97493SOL     OW94375   3.642  13.672   6.115
97493SOL    HW194376   3.717  13.659   6.057
97493SOL    HW294377   3.680  13.691   6.201
97494SOL     OW94378  13.744   6.203   4.717
97494SOL    HW194379  13.799   6.163   4.649
97494SOL    HW294380  13.726   6.132   4.778
97495SOL     OW94381   9.071  10.430  11.677
97495SOL    HW194382   9.119  10.493  11.622
97495SOL    HW294383   9.140  10.381  11.722
97496SOL     OW94384   4.350   0.057  14.237
97496SOL    HW194385   4.322  14.847  14.262
97496SOL    HW294386   4.342   0.059  14.141
97497SOL     OW94387   6.379   1.479  10.436
97497SOL    HW194388   6.358   1.386  10.443
97497SOL    HW294389   6.463   1.488  10.480
97498SOL     OW94390  13.216  13.548   6.498
97498SOL    HW194391  13.190  13.483   6.563
97498SOL    HW294392  13.228  13.628   6.549
97499SOL     OW94393   0.084   2.988   1.046
97499SOL    HW194394  14.877   2.961   1.084
97499SOL    HW294395   0.136   2.908   1.045
97500SOL     OW94396   6.207  14.280  14.713
97500SOL    HW194397   6.265  14.214  14.751
97500SOL    HW294398   6.242  14.363  14.744
97501SOL     OW94399  13.749   1.692   7.482
97501SOL    HW194400  13.700   1.726   7.557
97501SOL    HW294401  13.809   1.628   7.519
97502SOL     OW94402   3.615  13.033  12.692
97502SOL    HW194403   3.530  12.989  12.683
97502SOL    HW294404   3.672  12.987  12.630
97503SOL     OW94405   1.119   3.876   3.332
97503SOL    HW194406   1.091   3.967   3.345
97503SOL    HW294407   1.122   3.865   3.237
97504SOL     OW94408   9.936  12.532  10.792
97504SOL    HW194409   9.886  12.565  10.867
97504SOL    HW294410   9.869  12.497  10.732
97505SOL     OW94411   5.298   9.389  13.882
97505SOL    HW194412   5.346   9.461  13.923
97505SOL    HW294413   5.300   9.319  13.948
97506SOL     OW94414   9.184   7.492   0.593
97506SOL    HW194415   9.136   7.569   0.562
97506SOL    HW294416   9.155   7.481   0.684
97507SOL     OW94417   6.957  14.499  11.354
97507SOL    HW194418   6.869  14.471  11.383
97507SOL    HW294419   7.016  14.461  11.419
97508SOL     OW94420   0.883   0.227   0.727
97508SOL    HW194421   0.969   0.213   0.689
97508SOL    HW294422   0.832   0.270   0.658
97509SOL     OW94423   7.705  12.823   4.265
97509SOL    HW194424   7.613  12.810   4.287
97509SOL    HW294425   7.710  12.913   4.232
97510SOL     OW94426  14.177  14.819   4.324
97510SOL    HW194427  14.261  14.773   4.321
97510SOL    HW294428  14.146  14.808   4.414
97511SOL     OW94429   7.050  14.789   5.881
97511SOL    HW194430   7.102  14.744   5.947
97511SOL    HW294431   7.064   0.004   5.897
97512SOL     OW94432   4.438  12.993   9.228
97512SOL    HW194433   4.490  12.956   9.157
97512SOL    HW294434   4.407  12.917   9.277
97513SOL     OW94435  12.610   3.656   5.834
97513SOL    HW194436  12.589   3.750   5.831
97513SOL    HW294437  12.602   3.627   5.743
97514SOL     OW94438   4.721   3.740  14.708
97514SOL    HW194439   4.768   3.817  14.740
97514SOL    HW294440   4.761   3.666  14.754
97515SOL     OW94441   0.173   0.954  12.363
97515SOL    HW194442   0.155   1.014  12.290
97515SOL    HW294443   0.109   0.884  12.353
97516SOL     OW94444  11.190   1.989  12.079
97516SOL    HW194445  11.130   2.062  12.096
97516SOL    HW294446  11.235   2.015  11.998
97517SOL     OW94447   2.234   8.313  12.143
97517SOL    HW194448   2.160   8.255  12.163
97517SOL    HW294449   2.284   8.317  12.224
97518SOL     OW94450   7.303   0.482  13.445
97518SOL    HW194451   7.347   0.403  13.476
97518SOL    HW294452   7.314   0.479  13.350
97519SOL     OW94453   8.450   1.573   2.653
97519SOL    HW194454   8.356   1.590   2.646
97519SOL    HW294455   8.471   1.523   2.574
97520SOL     OW94456   4.169   7.199   5.648
97520SOL    HW194457   4.155   7.275   5.705
97520SOL    HW294458   4.083   7.179   5.613
97521SOL     OW94459  13.696   5.279  14.331
97521SOL    HW194460  13.612   5.248  14.366
97521SOL    HW294461  13.673   5.323  14.250
97522SOL     OW94462   7.133   8.559  11.948
97522SOL    HW194463   7.201   8.607  11.996
97522SOL    HW294464   7.182   8.494  11.897
97523SOL     OW94465  13.450   9.432   3.495
97523SOL    HW194466  13.535   9.392   3.517
97523SOL    HW294467  13.436   9.496   3.565
97524SOL     OW94468   2.732  14.072   8.022
97524SOL    HW194469   2.664  14.011   8.048
97524SOL    HW294470   2.720  14.149   8.078
97525SOL     OW94471   7.747   9.197   3.106
97525SOL    HW194472   7.713   9.277   3.146
97525SOL    HW294473   7.819   9.228   3.050
97526SOL     OW94474   7.030   5.810   4.586
97526SOL    HW194475   7.037   5.904   4.569
97526SOL    HW294476   6.939   5.797   4.615
97527SOL     OW94477  10.976   1.110  14.869
97527SOL    HW194478  10.948   1.033   0.042
97527SOL    HW294479  10.968   1.082  14.777
97528SOL     OW94480   9.180  14.451   9.079
97528SOL    HW194481   9.213  14.444   8.990
97528SOL    HW294482   9.112  14.384   9.085
97529SOL     OW94483   8.364   2.682  10.842
97529SOL    HW194484   8.292   2.638  10.798
97529SOL    HW294485   8.441   2.664  10.787
97530SOL     OW94486  11.026   9.037   2.490
97530SOL    HW194487  10.984   8.973   2.432
97530SOL    HW294488  10.958   9.060   2.553
97531SOL     OW94489   8.532  13.178   8.718
97531SOL    HW194490   8.607  13.121   8.735
97531SOL    HW294491   8.465  13.147   8.779
97532SOL     OW94492  12.657   1.494   3.108
97532SOL    HW194493  12.735   1.473   3.056
97532SOL    HW294494  12.661   1.435   3.183
97533SOL     OW94495   1.201   4.143   2.790
97533SOL    HW194496   1.219   4.059   2.832
97533SOL    HW294497   1.114   4.167   2.821
97534SOL     OW94498  14.410   1.069   9.136
97534SOL    HW194499  14.400   0.999   9.071
97534SOL    HW294500  14.375   1.033   9.217
97535SOL     OW94501   2.143   6.620   3.440
97535SOL    HW194502   2.202   6.589   3.371
97535SOL    HW294503   2.185   6.700   3.472
97536SOL     OW94504  12.657   1.577   9.256
97536SOL    HW194505  12.751   1.564   9.244
97536SOL    HW294506  12.648   1.671   9.273
97537SOL     OW94507  12.272   7.435  12.372
97537SOL    HW194508  12.207   7.381  12.328
97537SOL    HW294509  12.232   7.522  12.377
97538SOL     OW94510  12.394   4.060  11.565
97538SOL    HW194511  12.431   4.078  11.651
97538SOL    HW294512  12.366   3.969  11.569
97539SOL     OW94513   6.824  13.493   5.014
97539SOL    HW194514   6.907  13.487   4.967
97539SOL    HW294515   6.841  13.454   5.099
97540SOL     OW94516   2.070   4.393   4.474
97540SOL    HW194517   2.121   4.398   4.555
97540SOL    HW294518   2.133   4.416   4.405
97541SOL     OW94519   3.767   9.544   8.727
97541SOL    HW194520   3.693   9.522   8.784
97541SOL    HW294521   3.839   9.562   8.788
97542SOL     OW94522  10.480   3.875   6.012
97542SOL    HW194523  10.473   3.926   5.931
97542SOL    HW294524  10.546   3.922   6.064
97543SOL     OW94525   4.453   0.257  10.347
97543SOL    HW194526   4.512   0.233  10.276
97543SOL    HW294527   4.497   0.224  10.426
97544SOL     OW94528  12.451   2.973   4.318
97544SOL    HW194529  12.424   2.881   4.329
97544SOL    HW294530  12.518   2.986   4.385
97545SOL     OW94531   5.835   5.460   8.062
97545SOL    HW194532   5.921   5.502   8.066
97545SOL    HW294533   5.802   5.481   7.975
97546SOL     OW94534   1.792   1.976   4.795
97546SOL    HW194535   1.786   1.899   4.738
97546SOL    HW294536   1.886   1.993   4.801
97547SOL     OW94537   5.206  13.802   0.740
97547SOL    HW194538   5.128  13.846   0.705
97547SOL    HW294539   5.275  13.868   0.735
97548SOL     OW94540   5.376   8.828   1.726
97548SOL    HW194541   5.434   8.762   1.763
97548SOL    HW294542   5.288   8.790   1.733
97549SOL     OW94543  11.619  13.645   7.526
97549SOL    HW194544  11.555  13.711   7.551
97549SOL    HW294545  11.641  13.665   7.435
97550SOL     OW94546   6.143  12.944  13.657
97550SOL    HW194547   6.151  13.008  13.586
97550SOL    HW294548   6.090  12.873  13.620
97551SOL     OW94549   4.541   6.399   4.917
97551SOL    HW194550   4.533   6.417   4.823
97551SOL    HW294551   4.523   6.305   4.925
97552SOL     OW94552   5.123   4.042   3.744
97552SOL    HW194553   5.107   3.991   3.824
97552SOL    HW294554   5.140   3.977   3.676
97553SOL     OW94555  11.184  13.508   0.441
97553SOL    HW194556  11.088  13.503   0.442
97553SOL    HW294557  11.212  13.432   0.390
97554SOL     OW94558   9.665  12.253  12.874
97554SOL    HW194559   9.671  12.162  12.844
97554SOL    HW294560   9.714  12.303  12.808
97555SOL     OW94561  11.869   9.741   7.338
97555SOL    HW194562  11.892   9.803   7.268
97555SOL    HW294563  11.783   9.770   7.367
97556SOL     OW94564   9.277   6.949  13.145
97556SOL    HW194565   9.260   6.910  13.231
97556SOL    HW294566   9.364   6.987  13.152
97557SOL     OW94567   8.195   7.262  10.668
97557SOL    HW194568   8.254   7.336  10.681
97557SOL    HW294569   8.175   7.231  10.756
97558SOL     OW94570   0.857  10.877   0.627
97558SOL    HW194571   0.832  10.926   0.548
97558SOL    HW294572   0.942  10.839   0.605
97559SOL     OW94573   2.301   6.623   7.174
97559SOL    HW194574   2.357   6.562   7.222
97559SOL    HW294575   2.240   6.566   7.127
97560SOL     OW94576  13.772   0.912  10.780
97560SOL    HW194577  13.805   0.998  10.806
97560SOL    HW294578  13.677   0.924  10.770
97561SOL     OW94579   6.648  12.090   8.932
97561SOL    HW194580   6.601  12.084   9.015
97561SOL    HW294581   6.596  12.150   8.879
97562SOL     OW94582  13.684   7.146  14.350
97562SOL    HW194583  13.715   7.155  14.441
97562SOL    HW294584  13.720   7.223  14.305
97563SOL     OW94585   4.191   3.607   1.202
97563SOL    HW194586   4.114   3.628   1.150
97563SOL    HW294587   4.183   3.514   1.222
97564SOL     OW94588   5.927  13.575  13.573
97564SOL    HW194589   5.952  13.608  13.486
97564SOL    HW294590   6.009  13.572  13.622
97565SOL     OW94591   5.238  12.547   5.548
97565SOL    HW194592   5.276  12.634   5.536
97565SOL    HW294593   5.163  12.561   5.604
97566SOL     OW94594   8.423  12.127  14.457
97566SOL    HW194595   8.409  12.085  14.372
97566SOL    HW294596   8.445  12.056  14.516
97567SOL     OW94597   7.666   2.353  14.068
97567SOL    HW194598   7.607   2.311  14.131
97567SOL    HW294599   7.628   2.439  14.054
97568SOL     OW94600  13.514  12.879   8.173
97568SOL    HW194601  13.511  12.962   8.219
97568SOL    HW294602  13.422  12.855   8.159
97569SOL     OW94603  11.176   3.565   8.136
97569SOL    HW194604  11.091   3.575   8.094
97569SOL    HW294605  11.171   3.621   8.214
97570SOL     OW94606   7.264   9.575   5.378
97570SOL    HW194607   7.322   9.644   5.411
97570SOL    HW294608   7.254   9.594   5.285
97571SOL     OW94609  10.516   4.700   9.935
97571SOL    HW194610  10.424   4.676   9.924
97571SOL    HW294611  10.514   4.789   9.971
97572SOL     OW94612  12.968   5.932   1.316
97572SOL    HW194613  12.948   5.937   1.222
97572SOL    HW294614  12.950   6.020   1.349
97573SOL     OW94615   5.040   6.395   3.746
97573SOL    HW194616   5.089   6.477   3.742
97573SOL    HW294617   4.958   6.419   3.789
97574SOL     OW94618   0.214   3.592  11.891
97574SOL    HW194619   0.235   3.580  11.984
97574SOL    HW294620   0.259   3.673  11.866
97575SOL     OW94621   1.114   9.555   2.871
97575SOL    HW194622   1.208   9.534   2.867
97575SOL    HW294623   1.097   9.573   2.963
97576SOL     OW94624   0.269   6.363   7.493
97576SOL    HW194625   0.273   6.454   7.525
97576SOL    HW294626   0.357   6.329   7.508
97577SOL     OW94627   0.701  14.574   9.765
97577SOL    HW194628   0.691  14.538   9.853
97577SOL    HW294629   0.705  14.669   9.779
97578SOL     OW94630   1.795  14.548   5.394
97578SOL    HW194631   1.859  14.586   5.454
97578SOL    HW294632   1.758  14.623   5.347
97579SOL     OW94633   5.541   4.891  13.720
97579SOL    HW194634   5.600   4.933  13.782
97579SOL    HW294635   5.518   4.961  13.658
97580SOL     OW94636   2.749   7.848   7.759
97580SOL    HW194637   2.747   7.760   7.797
97580SOL    HW294638   2.840   7.876   7.768
97581SOL     OW94639  14.302   9.241   1.068
97581SOL    HW194640  14.245   9.244   0.992
97581SOL    HW294641  14.305   9.331   1.100
97582SOL     OW94642   3.107  14.480   7.066
97582SOL    HW194643   3.138  14.499   6.978
97582SOL    HW294644   3.109  14.385   7.072
97583SOL     OW94645   6.895   9.253   2.498
97583SOL    HW194646   6.987   9.278   2.485
97583SOL    HW294647   6.848   9.335   2.508
97584SOL     OW94648   6.585   6.915   4.493
97584SOL    HW194649   6.539   6.968   4.428
97584SOL    HW294650   6.516   6.878   4.548
97585SOL     OW94651   4.043   6.430  10.948
97585SOL    HW194652   3.964   6.378  10.936
97585SOL    HW294653   4.093   6.418  10.867
97586SOL     OW94654  10.381  10.694   7.720
97586SOL    HW194655  10.305  10.726   7.769
97586SOL    HW294656  10.448  10.677   7.786
97587SOL     OW94657   3.526   2.561   4.024
97587SOL    HW194658   3.476   2.560   4.106
97587SOL    HW294659   3.605   2.611   4.046
97588SOL     OW94660   3.450   9.268   8.729
97588SOL    HW194661   3.489   9.355   8.739
97588SOL    HW294662   3.416   9.247   8.816
97589SOL     OW94663  14.233  14.573   5.522
97589SOL    HW194664  14.295  14.628   5.475
97589SOL    HW294665  14.268  14.568   5.611
97590SOL     OW94666  12.393   7.331  11.728
97590SOL    HW194667  12.360   7.411  11.686
97590SOL    HW294668  12.465   7.302  11.672
97591SOL     OW94669  11.721   3.216  12.212
97591SOL    HW194670  11.792   3.274  12.238
97591SOL    HW294671  11.746   3.131  12.248
97592SOL     OW94672   8.987  14.833   5.142
97592SOL    HW194673   8.991  14.765   5.076
97592SOL    HW294674   8.904   0.001   5.126
97593SOL     OW94675   9.200   3.485   7.558
97593SOL    HW194676   9.213   3.549   7.628
97593SOL    HW294677   9.220   3.534   7.478
97594SOL     OW94678   8.478   2.149   6.615
97594SOL    HW194679   8.504   2.071   6.665
97594SOL    HW294680   8.445   2.114   6.532
97595SOL     OW94681  12.360   0.528  10.947
97595SOL    HW194682  12.350   0.556  10.857
97595SOL    HW294683  12.290   0.463  10.960
97596SOL     OW94684  12.013   1.066   2.674
97596SOL    HW194685  12.105   1.038   2.675
97596SOL    HW294686  11.975   1.026   2.753
97597SOL     OW94687   3.042   5.374   7.929
97597SOL    HW194688   2.952   5.348   7.951
97597SOL    HW294689   3.082   5.294   7.895
97598SOL     OW94690   9.212   7.931   8.308
97598SOL    HW194691   9.190   8.009   8.359
97598SOL    HW294692   9.296   7.902   8.345
97599SOL     OW94693   6.834  14.454  10.227
97599SOL    HW194694   6.900  14.391  10.197
97599SOL    HW294695   6.885  14.526  10.265
97600SOL     OW94696  13.235   7.273   6.644
97600SOL    HW194697  13.317   7.302   6.685
97600SOL    HW294698  13.215   7.341   6.580
97601SOL     OW94699  11.222  11.184  12.777
97601SOL    HW194700  11.208  11.238  12.855
97601SOL    HW294701  11.306  11.141  12.793
97602SOL     OW94702   1.042  12.106   8.834
97602SOL    HW194703   1.075  12.099   8.924
97602SOL    HW294704   1.119  12.130   8.782
97603SOL     OW94705   9.059  11.448  10.024
97603SOL    HW194706   8.978  11.397  10.029
97603SOL    HW294707   9.106  11.425  10.104
97604SOL     OW94708   4.091  10.640   5.208
97604SOL    HW194709   4.059  10.609   5.123
97604SOL    HW294710   4.061  10.573   5.270
97605SOL     OW94711   7.092   4.174   1.540
97605SOL    HW194712   7.176   4.220   1.550
97605SOL    HW294713   7.114   4.095   1.491
97606SOL     OW94714   8.199   4.625  14.375
97606SOL    HW194715   8.264   4.557  14.360
97606SOL    HW294716   8.201   4.640  14.470
97607SOL     OW94717  10.562   2.516  10.102
97607SOL    HW194718  10.613   2.557  10.032
97607SOL    HW294719  10.570   2.422  10.086
97608SOL     OW94720  12.692   4.960  13.962
97608SOL    HW194721  12.782   4.975  13.992
97608SOL    HW294722  12.702   4.922  13.875
97609SOL     OW94723   5.749   3.923   5.277
97609SOL    HW194724   5.785   3.887   5.358
97609SOL    HW294725   5.708   3.848   5.233
97610SOL     OW94726  14.042  11.503  14.853
97610SOL    HW194727  14.126  11.539   0.002
97610SOL    HW294728  14.061  11.411  14.832
97611SOL     OW94729   6.593   8.494   1.622
97611SOL    HW194730   6.516   8.515   1.570
97611SOL    HW294731   6.571   8.412   1.667
97612SOL     OW94732  11.213   8.531  10.417
97612SOL    HW194733  11.269   8.597  10.459
97612SOL    HW294734  11.239   8.532  10.325
97613SOL     OW94735   7.848   4.453   0.386
97613SOL    HW194736   7.826   4.546   0.390
97613SOL    HW294737   7.774   4.413   0.341
97614SOL     OW94738   3.870   8.558   3.037
97614SOL    HW194739   3.795   8.607   3.005
97614SOL    HW294740   3.866   8.568   3.132
97615SOL     OW94741  11.741   6.468  11.772
97615SOL    HW194742  11.674   6.482  11.839
97615SOL    HW294743  11.705   6.509  11.694
97616SOL     OW94744   0.586   0.303   3.204
97616SOL    HW194745   0.660   0.363   3.215
97616SOL    HW294746   0.528   0.324   3.278
97617SOL     OW94747   5.582   9.743   2.642
97617SOL    HW194748   5.575   9.728   2.548
97617SOL    HW294749   5.662   9.795   2.652
97618SOL     OW94750   7.629  11.451   0.566
97618SOL    HW194751   7.699  11.392   0.592
97618SOL    HW294752   7.673  11.532   0.543
97619SOL     OW94753  10.604  10.165   6.578
97619SOL    HW194754  10.655  10.131   6.505
97619SOL    HW294755  10.526  10.110   6.581
97620SOL     OW94756   6.740   7.842  11.169
97620SOL    HW194757   6.731   7.887  11.253
97620SOL    HW294758   6.674   7.773  11.172
97621SOL     OW94759   8.661   4.600   0.883
97621SOL    HW194760   8.641   4.694   0.884
97621SOL    HW294761   8.698   4.583   0.970
97622SOL     OW94762   1.151  11.038   5.788
97622SOL    HW194763   1.213  11.045   5.861
97622SOL    HW294764   1.201  10.996   5.718
97623SOL     OW94765   1.112  12.955   5.126
97623SOL    HW194766   1.101  13.050   5.121
97623SOL    HW294767   1.194  12.943   5.174
97624SOL     OW94768   1.865   9.482   0.911
97624SOL    HW194769   1.822   9.427   0.845
97624SOL    HW294770   1.930   9.532   0.861
97625SOL     OW94771   6.802   2.618   3.680
97625SOL    HW194772   6.723   2.646   3.635
97625SOL    HW294773   6.831   2.695   3.728
97626SOL     OW94774  14.828   8.910   3.674
97626SOL    HW194775  14.785   8.891   3.757
97626SOL    HW294776  14.839   9.005   3.673
97627SOL     OW94777   4.955  11.547  12.316
97627SOL    HW194778   4.939  11.594  12.234
97627SOL    HW294779   5.020  11.480  12.292
97628SOL     OW94780   0.562   4.123   7.678
97628SOL    HW194781   0.625   4.127   7.607
97628SOL    HW294782   0.560   4.031   7.703
97629SOL     OW94783   1.991  12.988   2.147
97629SOL    HW194784   1.951  13.068   2.180
97629SOL    HW294785   1.919  12.939   2.107
97630SOL     OW94786   5.666  10.781   7.978
97630SOL    HW194787   5.586  10.749   7.937
97630SOL    HW294788   5.645  10.870   8.006
97631SOL     OW94789   9.410   0.219  12.693
97631SOL    HW194790   9.353   0.187  12.764
97631SOL    HW294791   9.421   0.144  12.635
97632SOL     OW94792   9.700   9.308  13.589
97632SOL    HW194793   9.681   9.248  13.661
97632SOL    HW294794   9.775   9.269  13.544
97633SOL     OW94795  11.894   5.542  14.173
97633SOL    HW194796  11.965   5.488  14.209
97633SOL    HW294797  11.872   5.603  14.244
97634SOL     OW94798  13.201  14.082   8.433
97634SOL    HW194799  13.160  14.096   8.348
97634SOL    HW294800  13.142  14.023   8.480
97635SOL     OW94801   8.242   9.850   0.893
97635SOL    HW194802   8.215   9.909   0.823
97635SOL    HW294803   8.337   9.862   0.899
97636SOL     OW94804   8.571   8.284  12.498
97636SOL    HW194805   8.484   8.319  12.481
97636SOL    HW294806   8.629   8.360  12.490
97637SOL     OW94807  10.555   9.622   0.451
97637SOL    HW194808  10.495   9.688   0.485
97637SOL    HW294809  10.525   9.605   0.362
97638SOL     OW94810   3.684   4.722   6.449
97638SOL    HW194811   3.602   4.675   6.464
97638SOL    HW294812   3.676   4.759   6.361
97639SOL     OW94813   6.093   6.736   8.789
97639SOL    HW194814   6.108   6.680   8.865
97639SOL    HW294815   6.002   6.764   8.798
97640SOL     OW94816   8.020  13.460   2.043
97640SOL    HW194817   7.946  13.426   2.094
97640SOL    HW294818   8.075  13.384   2.027
97641SOL     OW94819   5.999  11.542   2.402
97641SOL    HW194820   5.952  11.475   2.352
97641SOL    HW294821   5.936  11.571   2.468
97642SOL     OW94822  13.542   4.315   3.307
97642SOL    HW194823  13.539   4.348   3.218
97642SOL    HW294824  13.487   4.375   3.357
97643SOL     OW94825   2.190  14.427  14.781
97643SOL    HW194826   2.111  14.380  14.808
97643SOL    HW294827   2.245  14.360  14.739
97644SOL     OW94828  11.128   0.626   3.251
97644SOL    HW194829  11.058   0.679   3.212
97644SOL    HW294830  11.191   0.690   3.284
97645SOL     OW94831   4.001  13.593  14.213
97645SOL    HW194832   3.932  13.636  14.264
97645SOL    HW294833   4.072  13.580  14.276
97646SOL     OW94834  14.743   5.111   0.292
97646SOL    HW194835  14.821   5.105   0.346
97646SOL    HW294836  14.670   5.107   0.355
97647SOL     OW94837   8.429   9.410  13.882
97647SOL    HW194838   8.380   9.344  13.930
97647SOL    HW294839   8.365   9.479  13.865
97648SOL     OW94840   7.684   6.722  12.446
97648SOL    HW194841   7.671   6.741  12.353
97648SOL    HW294842   7.617   6.657  12.467
97649SOL     OW94843   1.908   2.796   8.354
97649SOL    HW194844   1.926   2.872   8.299
97649SOL    HW294845   1.863   2.735   8.296
97650SOL     OW94846   3.297  13.398   4.936
97650SOL    HW194847   3.257  13.361   5.015
97650SOL    HW294848   3.311  13.490   4.958
97651SOL     OW94849   6.712   7.304   2.386
97651SOL    HW194850   6.667   7.232   2.430
97651SOL    HW294851   6.664   7.382   2.412
97652SOL     OW94852  11.042   5.171  11.895
97652SOL    HW194853  11.080   5.093  11.937
97652SOL    HW294854  10.990   5.212  11.965
97653SOL     OW94855   5.709   6.691   3.790
97653SOL    HW194856   5.669   6.638   3.859
97653SOL    HW294857   5.783   6.735   3.833
97654SOL     OW94858  14.634  10.498   0.427
97654SOL    HW194859  14.580  10.523   0.501
97654SOL    HW294860  14.618  10.404   0.417
97655SOL     OW94861  12.712   7.092   5.641
97655SOL    HW194862  12.782   7.138   5.594
97655SOL    HW294863  12.752   7.069   5.725
97656SOL     OW94864  10.716   2.420   7.813
97656SOL    HW194865  10.701   2.515   7.813
97656SOL    HW294866  10.727   2.398   7.906
97657SOL     OW94867   3.216   9.227   6.396
97657SOL    HW194868   3.298   9.248   6.440
97657SOL    HW294869   3.180   9.153   6.445
97658SOL     OW94870  10.021   3.881   7.458
97658SOL    HW194871  10.062   3.842   7.381
97658SOL    HW294872   9.940   3.831   7.470
97659SOL     OW94873   0.919   6.630  12.732
97659SOL    HW194874   1.008   6.624  12.696
97659SOL    HW294875   0.930   6.682  12.811
97660SOL     OW94876   7.500   6.985   5.820
97660SOL    HW194877   7.444   7.052   5.862
97660SOL    HW294878   7.442   6.941   5.759
97661SOL     OW94879   0.124  14.642   5.395
97661SOL    HW194880   0.041  14.597   5.378
97661SOL    HW294881   0.190  14.574   5.386
97662SOL     OW94882   0.938  11.903   9.213
97662SOL    HW194883   0.915  11.881   9.123
97662SOL    HW294884   0.870  11.861   9.266
97663SOL     OW94885   1.315  12.816   6.097
97663SOL    HW194886   1.296  12.752   6.166
97663SOL    HW294887   1.358  12.766   6.028
97664SOL     OW94888   4.769  10.141  11.043
97664SOL    HW194889   4.849  10.184  11.072
97664SOL    HW294890   4.722  10.121  11.123
97665SOL     OW94891  10.244  13.620  13.218
97665SOL    HW194892  10.259  13.713  13.234
97665SOL    HW294893  10.195  13.618  13.136
97666SOL     OW94894   7.646  11.213   2.556
97666SOL    HW194895   7.553  11.236   2.550
97666SOL    HW294896   7.692  11.297   2.546
97667SOL     OW94897   9.366   8.905   0.419
97667SOL    HW194898   9.443   8.961   0.426
97667SOL    HW294899   9.323   8.913   0.505
97668SOL     OW94900   3.420   3.080  14.873
97668SOL    HW194901   3.464   3.141  14.814
97668SOL    HW294902   3.458   3.098   0.082
97669SOL     OW94903   2.213  11.813   1.515
97669SOL    HW194904   2.183  11.873   1.447
97669SOL    HW294905   2.165  11.841   1.594
97670SOL     OW94906   1.466  10.751  11.318
97670SOL    HW194907   1.538  10.781  11.374
97670SOL    HW294908   1.435  10.671  11.360
97671SOL     OW94909  12.679   9.032   8.710
97671SOL    HW194910  12.658   9.100   8.774
97671SOL    HW294911  12.752   8.984   8.749
97672SOL     OW94912   7.112   5.338   1.738
97672SOL    HW194913   7.044   5.397   1.704
97672SOL    HW294914   7.067   5.284   1.802
97673SOL     OW94915   5.159  10.416  14.173
97673SOL    HW194916   5.107  10.465  14.237
97673SOL    HW294917   5.244  10.404  14.215
97674SOL     OW94918   4.675   5.488   1.975
97674SOL    HW194919   4.736   5.472   2.047
97674SOL    HW294920   4.686   5.581   1.955
97675SOL     OW94921   2.875   5.811   8.109
97675SOL    HW194922   2.941   5.815   8.177
97675SOL    HW294923   2.912   5.752   8.043
97676SOL     OW94924  13.095   9.987   0.353
97676SOL    HW194925  13.090  10.057   0.418
97676SOL    HW294926  13.137   9.914   0.399
97677SOL     OW94927  12.910   3.131  12.031
97677SOL    HW194928  12.871   3.103  12.114
97677SOL    HW294929  12.920   3.050  11.980
97678SOL     OW94930  12.112   6.423   2.609
97678SOL    HW194931  12.154   6.509   2.606
97678SOL    HW294932  12.067   6.414   2.525
97679SOL     OW94933   9.882   0.607  11.486
97679SOL    HW194934   9.787   0.620  11.473
97679SOL    HW294935   9.888   0.555  11.566
97680SOL     OW94936  14.856  13.199   4.444
97680SOL    HW194937  14.769  13.161   4.449
97680SOL    HW294938  14.866  13.224   4.352
97681SOL     OW94939  11.557   4.998   2.732
97681SOL    HW194940  11.615   5.034   2.800
97681SOL    HW294941  11.585   5.042   2.652
97682SOL     OW94942   9.054   1.116  10.030
97682SOL    HW194943   9.064   1.175   9.955
97682SOL    HW294944   9.102   1.160  10.101
97683SOL     OW94945   5.645   6.636  11.930
97683SOL    HW194946   5.654   6.729  11.910
97683SOL    HW294947   5.610   6.598  11.849
97684SOL     OW94948  10.363   7.594  10.403
97684SOL    HW194949  10.275   7.560  10.416
97684SOL    HW294950  10.351   7.677  10.358
97685SOL     OW94951   2.126   7.637  12.846
97685SOL    HW194952   2.126   7.720  12.893
97685SOL    HW294953   2.201   7.643  12.787
97686SOL     OW94954   0.076   9.984   0.504
97686SOL    HW194955   0.091   9.951   0.593
97686SOL    HW294956  14.861   9.964   0.487
97687SOL     OW94957   9.928   2.904   4.500
97687SOL    HW194958   9.909   2.923   4.592
97687SOL    HW294959   9.874   2.965   4.451
97688SOL     OW94960   9.312   9.475   1.662
97688SOL    HW194961   9.362   9.557   1.665
97688SOL    HW294962   9.367   9.412   1.710
97689SOL     OW94963  11.746  10.486   9.964
97689SOL    HW194964  11.783  10.466  10.050
97689SOL    HW294965  11.773  10.576   9.946
97690SOL     OW94966   2.185   9.653  11.691
97690SOL    HW194967   2.134   9.717  11.740
97690SOL    HW294968   2.246   9.706  11.639
97691SOL     OW94969  12.919  14.734  10.108
97691SOL    HW194970  12.952  14.756  10.195
97691SOL    HW294971  12.922  14.638  10.105
97692SOL     OW94972   5.517   1.814   7.140
97692SOL    HW194973   5.472   1.812   7.224
97692SOL    HW294974   5.577   1.889   7.146
97693SOL     OW94975   1.968   3.949  11.005
97693SOL    HW194976   1.996   3.952  10.913
97693SOL    HW294977   2.046   3.976  11.054
97694SOL     OW94978  12.294   8.872   0.316
97694SOL    HW194979  12.295   8.968   0.320
97694SOL    HW294980  12.383   8.848   0.289
97695SOL     OW94981   4.220   9.842  10.670
97695SOL    HW194982   4.281   9.818  10.740
97695SOL    HW294983   4.137   9.804  10.697
97696SOL     OW94984   8.351  13.301  11.479
97696SOL    HW194985   8.388  13.362  11.543
97696SOL    HW294986   8.297  13.242  11.531
97697SOL     OW94987   8.144   6.749   4.469
97697SOL    HW194988   8.150   6.739   4.374
97697SOL    HW294989   8.054   6.778   4.484
97698SOL     OW94990   1.401  10.501   7.674
97698SOL    HW194991   1.460  10.429   7.655
97698SOL    HW294992   1.450  10.580   7.650
97699SOL     OW94993  10.974   1.582   9.311
97699SOL    HW194994  10.960   1.598   9.218
97699SOL    HW294995  10.972   1.487   9.320
97700SOL     OW94996   8.707   1.658  10.926
97700SOL    HW194997   8.629   1.693  10.968
97700SOL    HW294998   8.675   1.605  10.853
97701SOL     OW94999   8.907   1.694   2.971
97701SOL    HW195000   8.960   1.748   2.912
97701SOL    HW295001   8.873   1.624   2.916
97702SOL     OW95002   8.927   8.527  12.008
97702SOL    HW195003   8.850   8.472  12.025
97702SOL    HW295004   8.969   8.486  11.933
97703SOL     OW95005   2.749  14.361  14.556
97703SOL    HW195006   2.670  14.415  14.546
97703SOL    HW295007   2.775  14.374  14.647
97704SOL     OW95008  14.335   8.379  13.324
97704SOL    HW195009  14.248   8.412  13.344
97704SOL    HW295010  14.327   8.283  13.331
97705SOL     OW95011   3.699   9.729   3.298
97705SOL    HW195012   3.792   9.706   3.290
97705SOL    HW295013   3.697   9.824   3.291
97706SOL     OW95014   7.116   3.378   7.114
97706SOL    HW195015   7.094   3.291   7.148
97706SOL    HW295016   7.209   3.372   7.092
97707SOL     OW95017   2.647   0.273  11.323
97707SOL    HW195018   2.649   0.264  11.228
97707SOL    HW295019   2.718   0.216  11.354
97708SOL     OW95020   3.146  13.160   0.676
97708SOL    HW195021   3.154  13.222   0.748
97708SOL    HW295022   3.183  13.206   0.600
97709SOL     OW95023   4.123   1.523   3.357
97709SOL    HW195024   4.181   1.447   3.368
97709SOL    HW295025   4.121   1.565   3.443
97710SOL     OW95026   1.189   0.956   5.066
97710SOL    HW195027   1.129   0.996   5.129
97710SOL    HW295028   1.136   0.941   4.988
97711SOL     OW95029   0.540   7.357   6.247
97711SOL    HW195030   0.468   7.407   6.285
97711SOL    HW295031   0.498   7.280   6.210
97712SOL     OW95032  11.543   5.301   1.898
97712SOL    HW195033  11.635   5.272   1.895
97712SOL    HW295034  11.546   5.394   1.875
97713SOL     OW95035  13.116   3.947   9.088
97713SOL    HW195036  13.203   3.913   9.070
97713SOL    HW295037  13.068   3.935   9.006
97714SOL     OW95038   0.550   7.922   0.989
97714SOL    HW195039   0.592   7.893   1.070
97714SOL    HW295040   0.607   7.991   0.955
97715SOL     OW95041   9.144   9.285   5.274
97715SOL    HW195042   9.202   9.338   5.329
97715SOL    HW295043   9.177   9.195   5.286
97716SOL     OW95044   6.289  10.648   7.483
97716SOL    HW195045   6.251  10.579   7.428
97716SOL    HW295046   6.383  10.636   7.475
97717SOL     OW95047  12.859  10.434   4.448
97717SOL    HW195048  12.799  10.423   4.523
97717SOL    HW295049  12.806  10.409   4.372
97718SOL     OW95050   4.575  11.798   3.004
97718SOL    HW195051   4.488  11.762   2.991
97718SOL    HW295052   4.612  11.806   2.916
97719SOL     OW95053  13.539  13.265  12.399
97719SOL    HW195054  13.589  13.322  12.457
97719SOL    HW295055  13.455  13.253  12.444
97720SOL     OW95056  14.225   4.062   1.221
97720SOL    HW195057  14.141   4.030   1.255
97720SOL    HW295058  14.287   3.992   1.241
97721SOL     OW95059  14.065  13.221  14.563
97721SOL    HW195060  14.101  13.164  14.631
97721SOL    HW295061  14.096  13.308  14.584
97722SOL     OW95062   9.401  10.718   7.097
97722SOL    HW195063   9.384  10.624   7.088
97722SOL    HW295064   9.490  10.722   7.133
97723SOL     OW95065  10.083   6.227   1.737
97723SOL    HW195066  10.024   6.223   1.662
97723SOL    HW295067  10.118   6.138   1.744
97724SOL     OW95068   1.635  11.065  10.604
97724SOL    HW195069   1.594  10.995  10.554
97724SOL    HW295070   1.577  11.140  10.592
97725SOL     OW95071  12.276  12.397   9.754
97725SOL    HW195072  12.277  12.403   9.850
97725SOL    HW295073  12.327  12.319   9.735
97726SOL     OW95074   5.756   6.760  13.814
97726SOL    HW195075   5.742   6.850  13.784
97726SOL    HW295076   5.747   6.706  13.736
97727SOL     OW95077   5.902  12.705  14.683
97727SOL    HW195078   5.917  12.665  14.597
97727SOL    HW295079   5.911  12.799  14.667
97728SOL     OW95080   2.437  13.084  10.747
97728SOL    HW195081   2.498  13.030  10.697
97728SOL    HW295082   2.371  13.023  10.778
97729SOL     OW95083   4.706   8.086   1.126
97729SOL    HW195084   4.695   8.068   1.033
97729SOL    HW295085   4.622   8.062   1.165
97730SOL     OW95086   1.123   7.820   2.517
97730SOL    HW195087   1.033   7.836   2.547
97730SOL    HW295088   1.156   7.753   2.576
97731SOL     OW95089   0.575  13.643   6.064
97731SOL    HW195090   0.647  13.663   6.004
97731SOL    HW295091   0.578  13.548   6.074
97732SOL     OW95092  13.161   6.494   9.767
97732SOL    HW195093  13.145   6.520   9.676
97732SOL    HW295094  13.224   6.558   9.799
97733SOL     OW95095   0.671  14.415   2.529
97733SOL    HW195096   0.604  14.347   2.534
97733SOL    HW295097   0.739  14.379   2.472
97734SOL     OW95098   0.112  12.116   9.546
97734SOL    HW195099   0.186  12.143   9.492
97734SOL    HW295100   0.077  12.197   9.583
97735SOL     OW95101  10.361   3.425   1.322
97735SOL    HW195102  10.438   3.481   1.329
97735SOL    HW295103  10.295   3.481   1.282
97736SOL     OW95104  11.467   6.485   4.900
97736SOL    HW195105  11.416   6.429   4.959
97736SOL    HW295106  11.402   6.521   4.840
97737SOL     OW95107   5.584   3.299  14.133
97737SOL    HW195108   5.589   3.217  14.183
97737SOL    HW295109   5.496   3.333  14.153
97738SOL     OW95110   9.134   4.196   9.383
97738SOL    HW195111   9.204   4.136   9.355
97738SOL    HW295112   9.053   4.148   9.363
97739SOL     OW95113   2.585   0.440   3.774
97739SOL    HW195114   2.574   0.419   3.681
97739SOL    HW295115   2.591   0.535   3.776
97740SOL     OW95116  10.664   8.839   5.312
97740SOL    HW195117  10.737   8.785   5.341
97740SOL    HW295118  10.605   8.779   5.267
97741SOL     OW95119   9.929  13.220   7.389
97741SOL    HW195120   9.860  13.230   7.454
97741SOL    HW295121   9.893  13.258   7.309
97742SOL     OW95122   6.367   5.345   2.179
97742SOL    HW195123   6.326   5.338   2.265
97742SOL    HW295124   6.321   5.418   2.137
97743SOL     OW95125   7.331   9.365   1.916
97743SOL    HW195126   7.396   9.298   1.893
97743SOL    HW295127   7.276   9.322   1.982
97744SOL     OW95128   6.088  10.606   5.425
97744SOL    HW195129   6.075  10.678   5.487
97744SOL    HW295130   6.091  10.528   5.480
97745SOL     OW95131   7.035   6.733   9.519
97745SOL    HW195132   7.007   6.645   9.494
97745SOL    HW295133   7.071   6.770   9.439
97746SOL     OW95134   8.301  11.569   4.863
97746SOL    HW195135   8.290  11.656   4.823
97746SOL    HW295136   8.372  11.529   4.813
97747SOL     OW95137   3.600  14.550  10.270
97747SOL    HW195138   3.630  14.465  10.238
97747SOL    HW295139   3.559  14.591  10.194
97748SOL     OW95140   7.797   2.923   5.052
97748SOL    HW195141   7.795   2.944   4.958
97748SOL    HW295142   7.779   3.007   5.095
97749SOL     OW95143   9.113   2.566   9.155
97749SOL    HW195144   9.084   2.644   9.203
97749SOL    HW295145   9.033   2.533   9.113
97750SOL     OW95146   3.893   2.742   9.348
97750SOL    HW195147   3.953   2.803   9.390
97750SOL    HW295148   3.834   2.714   9.418
97751SOL     OW95149  11.772   2.720  12.096
97751SOL    HW195150  11.859   2.725  12.134
97751SOL    HW295151  11.767   2.631  12.059
97752SOL     OW95152  12.022  11.232   9.026
97752SOL    HW195153  11.999  11.202   9.113
97752SOL    HW295154  12.008  11.156   8.969
97753SOL     OW95155  12.692  12.805   5.145
97753SOL    HW195156  12.674  12.733   5.205
97753SOL    HW295157  12.622  12.867   5.160
97754SOL     OW95158   3.146  10.217  10.850
97754SOL    HW195159   3.234  10.195  10.821
97754SOL    HW295160   3.154  10.226  10.945
97755SOL     OW95161   8.919  13.202   4.099
97755SOL    HW195162   8.875  13.125   4.136
97755SOL    HW295163   9.010  13.175   4.088
97756SOL     OW95164   6.871  14.008   6.074
97756SOL    HW195165   6.910  14.078   6.126
97756SOL    HW295166   6.931  13.934   6.086
97757SOL     OW95167  13.611   5.138   5.606
97757SOL    HW195168  13.682   5.197   5.582
97757SOL    HW295169  13.558   5.188   5.668
97758SOL     OW95170   7.443   3.357   3.608
97758SOL    HW195171   7.486   3.342   3.692
97758SOL    HW295172   7.452   3.274   3.561
97759SOL     OW95173   2.775  12.378   1.155
97759SOL    HW195174   2.732  12.420   1.080
97759SOL    HW295175   2.714  12.390   1.228
97760SOL     OW95176  13.269   3.296   8.683
97760SOL    HW195177  13.207   3.295   8.755
97760SOL    HW295178  13.293   3.204   8.671
97761SOL     OW95179  13.903  14.638   9.431
97761SOL    HW195180  13.858  14.581   9.369
97761SOL    HW295181  13.984  14.591   9.452
97762SOL     OW95182   6.565   8.009  12.276
97762SOL    HW195183   6.493   8.011  12.213
97762SOL    HW295184   6.643   8.028  12.223
97763SOL     OW95185  13.960   4.190   9.086
97763SOL    HW195186  13.944   4.095   9.090
97763SOL    HW295187  13.873   4.229   9.086
97764SOL     OW95188   4.845   9.295  12.424
97764SOL    HW195189   4.804   9.373  12.387
97764SOL    HW295190   4.774   9.232  12.431
97765SOL     OW95191   9.139   8.547   0.551
97765SOL    HW195192   9.213   8.505   0.594
97765SOL    HW295193   9.135   8.506   0.465
97766SOL     OW95194  14.448   0.095   3.764
97766SOL    HW195195  14.455   0.163   3.831
97766SOL    HW295196  14.432   0.015   3.815
97767SOL     OW95197   2.790   8.389   6.886
97767SOL    HW195198   2.697   8.374   6.899
97767SOL    HW295199   2.825   8.304   6.858
97768SOL     OW95200  12.202   6.184   4.515
97768SOL    HW195201  12.227   6.167   4.605
97768SOL    HW295202  12.284   6.196   4.468
97769SOL     OW95203  12.541   1.482   1.317
97769SOL    HW195204  12.495   1.424   1.378
97769SOL    HW295205  12.622   1.435   1.297
97770SOL     OW95206   4.252   1.947  12.803
97770SOL    HW195207   4.229   1.999  12.726
97770SOL    HW295208   4.192   1.976  12.871
97771SOL     OW95209   0.295   9.682   0.745
97771SOL    HW195210   0.250   9.766   0.752
97771SOL    HW295211   0.383   9.703   0.716
97772SOL     OW95212   0.774  13.518   8.774
97772SOL    HW195213   0.701  13.563   8.730
97772SOL    HW295214   0.837  13.587   8.792
97773SOL     OW95215  11.929   3.212  13.631
97773SOL    HW195216  11.911   3.163  13.712
97773SOL    HW295217  11.922   3.146  13.562
97774SOL     OW95218  10.128   4.636   0.390
97774SOL    HW195219  10.043   4.657   0.428
97774SOL    HW295220  10.143   4.544   0.414
97775SOL     OW95221   7.480   1.010  12.468
97775SOL    HW195222   7.516   0.988  12.554
97775SOL    HW295223   7.521   1.094  12.446
97776SOL     OW95224   4.420   2.774  10.007
97776SOL    HW195225   4.499   2.772   9.953
97776SOL    HW295226   4.450   2.808  10.091
97777SOL     OW95227   5.140  11.621   1.823
97777SOL    HW195228   5.045  11.610   1.831
97777SOL    HW295229   5.170  11.540   1.782
97778SOL     OW95230   3.579   6.051   6.834
97778SOL    HW195231   3.652   6.042   6.772
97778SOL    HW295232   3.596   6.134   6.879
97779SOL     OW95233  11.876  10.580   4.738
97779SOL    HW195234  11.817  10.641   4.780
97779SOL    HW295235  11.959  10.590   4.785
97780SOL     OW95236  13.948  13.607  12.472
97780SOL    HW195237  13.922  13.603  12.380
97780SOL    HW295238  14.041  13.630  12.470
97781SOL     OW95239   1.899   6.990  10.607
97781SOL    HW195240   1.899   7.043  10.687
97781SOL    HW295241   1.847   6.913  10.629
97782SOL     OW95242   0.641   7.710   7.788
97782SOL    HW195243   0.586   7.691   7.863
97782SOL    HW295244   0.580   7.733   7.718
97783SOL     OW95245   7.387   6.912  14.297
97783SOL    HW195246   7.414   6.872  14.214
97783SOL    HW295247   7.466   6.955  14.330
97784SOL     OW95248  12.853   6.888   0.981
97784SOL    HW195249  12.947   6.870   0.978
97784SOL    HW295250  12.843   6.956   1.047
97785SOL     OW95251   8.675  10.177  12.136
97785SOL    HW195252   8.740  10.190  12.205
97785SOL    HW295253   8.672  10.261  12.090
97786SOL     OW95254   4.645   3.083   1.879
97786SOL    HW195255   4.677   3.010   1.827
97786SOL    HW295256   4.601   3.140   1.816
97787SOL     OW95257   0.823   9.075   2.474
97787SOL    HW195258   0.857   9.029   2.397
97787SOL    HW295259   0.740   9.113   2.444
97788SOL     OW95260   7.739   1.300   6.181
97788SOL    HW195261   7.722   1.317   6.273
97788SOL    HW295262   7.654   1.312   6.138
97789SOL     OW95263   0.908  10.550   1.450
97789SOL    HW195264   0.933  10.469   1.407
97789SOL    HW295265   0.910  10.529   1.544
97790SOL     OW95266   0.945   5.230   2.120
97790SOL    HW195267   0.896   5.263   2.195
97790SOL    HW295268   1.035   5.221   2.152
97791SOL     OW95269  14.424   6.076   8.975
97791SOL    HW195270  14.358   6.145   8.967
97791SOL    HW295271  14.486   6.094   8.905
97792SOL     OW95272  12.478   7.720  10.673
97792SOL    HW195273  12.570   7.738  10.651
97792SOL    HW295274  12.447   7.665  10.601
97793SOL     OW95275  14.696   0.074   1.939
97793SOL    HW195276  14.729   0.070   1.850
97793SOL    HW295277  14.735  14.876   1.983
97794SOL     OW95278  13.464  11.755   7.596
97794SOL    HW195279  13.376  11.717   7.599
97794SOL    HW295280  13.501  11.723   7.514
97795SOL     OW95281  12.068   9.035   2.964
97795SOL    HW195282  11.988   8.989   2.990
97795SOL    HW295283  12.037   9.121   2.936
97796SOL     OW95284  10.955  12.390   5.053
97796SOL    HW195285  10.911  12.336   4.988
97796SOL    HW295286  10.968  12.332   5.128
97797SOL     OW95287   8.187  10.516   9.938
97797SOL    HW195288   8.251  10.582   9.966
97797SOL    HW295289   8.131  10.503  10.015
97798SOL     OW95290  12.349  10.246  14.475
97798SOL    HW195291  12.368  10.283  14.388
97798SOL    HW295292  12.260  10.212  14.467
97799SOL     OW95293  13.332  10.815  12.405
97799SOL    HW195294  13.345  10.888  12.465
97799SOL    HW295295  13.386  10.745  12.441
97800SOL     OW95296   4.442   2.864   3.808
97800SOL    HW195297   4.358   2.819   3.806
97800SOL    HW295298   4.502   2.804   3.764
97801SOL     OW95299  12.851   3.460   0.197
97801SOL    HW195300  12.771   3.477   0.246
97801SOL    HW295301  12.916   3.437   0.263
97802SOL     OW95302   1.891   0.421   4.450
97802SOL    HW195303   1.832   0.397   4.378
97802SOL    HW295304   1.913   0.513   4.432
97803SOL     OW95305   1.798   6.495  10.534
97803SOL    HW195306   1.877   6.454  10.500
97803SOL    HW295307   1.749   6.521  10.456
97804SOL     OW95308   8.613   4.312   8.511
97804SOL    HW195309   8.576   4.389   8.555
97804SOL    HW295310   8.543   4.283   8.452
97805SOL     OW95311   3.052  10.547  11.206
97805SOL    HW195312   3.146  10.537  11.219
97805SOL    HW295313   3.013  10.514  11.287
97806SOL     OW95314   0.639   9.612   4.242
97806SOL    HW195315   0.566   9.560   4.207
97806SOL    HW295316   0.597   9.691   4.277
97807SOL     OW95317   5.282  10.514   0.083
97807SOL    HW195318   5.263  10.427   0.118
97807SOL    HW295319   5.318  10.498  14.874
97808SOL     OW95320  10.582  10.391   3.767
97808SOL    HW195321  10.643  10.330   3.808
97808SOL    HW295322  10.635  10.467   3.744
97809SOL     OW95323  13.671  13.907   3.583
97809SOL    HW195324  13.642  13.897   3.674
97809SOL    HW295325  13.609  13.969   3.545
97810SOL     OW95326   5.556   0.952  11.056
97810SOL    HW195327   5.569   0.925  10.965
97810SOL    HW295328   5.485   0.897  11.088
97811SOL     OW95329   1.683  12.283   4.867
97811SOL    HW195330   1.645  12.359   4.823
97811SOL    HW295331   1.756  12.318   4.917
97812SOL     OW95332   4.784   1.010   1.020
97812SOL    HW195333   4.810   0.949   1.088
97812SOL    HW295334   4.795   0.962   0.938
97813SOL     OW95335   1.769  13.975   3.513
97813SOL    HW195336   1.847  13.951   3.564
97813SOL    HW295337   1.786  14.065   3.484
97814SOL     OW95338  10.722   1.752   3.847
97814SOL    HW195339  10.685   1.733   3.761
97814SOL    HW295340  10.812   1.780   3.828
97815SOL     OW95341  14.464  10.612  14.353
97815SOL    HW195342  14.468  10.668  14.275
97815SOL    HW295343  14.470  10.672  14.427
97816SOL     OW95344   5.696   9.746   1.820
97816SOL    HW195345   5.622   9.794   1.858
97816SOL    HW295346   5.674   9.654   1.834
97817SOL     OW95347   9.397   2.141   1.170
97817SOL    HW195348   9.452   2.069   1.201
97817SOL    HW295349   9.455   2.217   1.170
97818SOL     OW95350   0.439   4.710  13.273
97818SOL    HW195351   0.385   4.647  13.226
97818SOL    HW295352   0.472   4.769  13.205
97819SOL     OW95353   2.323   1.628  14.702
97819SOL    HW195354   2.369   1.626  14.786
97819SOL    HW295355   2.294   1.719  14.693
97820SOL     OW95356   0.747   9.323  12.730
97820SOL    HW195357   0.715   9.336  12.640
97820SOL    HW295358   0.680   9.364  12.784
97821SOL     OW95359   1.509  10.816   3.231
97821SOL    HW195360   1.439  10.846   3.172
97821SOL    HW295361   1.586  10.867   3.206
97822SOL     OW95362   1.783  10.685   3.615
97822SOL    HW195363   1.804  10.606   3.665
97822SOL    HW295364   1.732  10.653   3.540
97823SOL     OW95365   6.365   1.108   9.900
97823SOL    HW195366   6.398   1.197   9.913
97823SOL    HW295367   6.389   1.085   9.811
97824SOL     OW95368   3.522   1.580   9.241
97824SOL    HW195369   3.454   1.643   9.265
97824SOL    HW295370   3.477   1.495   9.241
97825SOL     OW95371   5.677   9.204   5.760
97825SOL    HW195372   5.680   9.297   5.780
97825SOL    HW295373   5.660   9.200   5.666
97826SOL     OW95374   0.870   6.709  14.663
97826SOL    HW195375   0.860   6.728  14.757
97826SOL    HW295376   0.934   6.638  14.660
97827SOL     OW95377   8.355   7.884   2.342
97827SOL    HW195378   8.264   7.884   2.371
97827SOL    HW295379   8.382   7.976   2.345
97828SOL     OW95380   7.328  10.764   9.449
97828SOL    HW195381   7.275  10.689   9.424
97828SOL    HW295382   7.415  10.744   9.415
97829SOL     OW95383   9.702   2.420  14.212
97829SOL    HW195384   9.664   2.336  14.238
97829SOL    HW295385   9.688   2.425  14.118
97830SOL     OW95386   6.037  13.918   9.736
97830SOL    HW195387   5.996  13.982   9.679
97830SOL    HW295388   5.998  13.834   9.710
97831SOL     OW95389   6.574  11.826  12.843
97831SOL    HW195390   6.563  11.783  12.928
97831SOL    HW295391   6.640  11.774  12.798
97832SOL     OW95392   4.800   9.202   6.281
97832SOL    HW195393   4.786   9.199   6.186
97832SOL    HW295394   4.713   9.189   6.319
97833SOL     OW95395   0.515  12.286  10.069
97833SOL    HW195396   0.478  12.199  10.057
97833SOL    HW295397   0.486  12.335   9.992
97834SOL     OW95398   0.224   6.619   9.936
97834SOL    HW195399   0.156   6.562   9.902
97834SOL    HW295400   0.280   6.637   9.860
97835SOL     OW95401  11.357   9.702   4.406
97835SOL    HW195402  11.367   9.738   4.318
97835SOL    HW295403  11.383   9.610   4.398
97836SOL     OW95404   0.229  11.149   3.470
97836SOL    HW195405   0.221  11.217   3.403
97836SOL    HW295406   0.180  11.183   3.545
97837SOL     OW95407   2.970  12.792   8.065
97837SOL    HW195408   3.008  12.822   8.147
97837SOL    HW295409   3.036  12.812   7.999
97838SOL     OW95410   0.751   3.687  12.368
97838SOL    HW195411   0.758   3.757  12.433
97838SOL    HW295412   0.693   3.723  12.301
97839SOL     OW95413  14.463  11.811   9.840
97839SOL    HW195414  14.428  11.799   9.752
97839SOL    HW295415  14.546  11.765   9.840
97840SOL     OW95416   8.138  14.791   0.022
97840SOL    HW195417   8.184  14.739  14.834
97840SOL    HW295418   8.073  14.841  14.850
97841SOL     OW95419  12.125   7.703   6.474
97841SOL    HW195420  12.198   7.682   6.417
97841SOL    HW295421  12.064   7.752   6.418
97842SOL     OW95422   0.834  14.596   0.867
97842SOL    HW195423   0.788  14.635   0.941
97842SOL    HW295424   0.792  14.511   0.854
97843SOL     OW95425   0.217   0.678   3.785
97843SOL    HW195426   0.307   0.657   3.812
97843SOL    HW295427   0.210   0.773   3.795
97844SOL     OW95428  14.113  14.728  13.043
97844SOL    HW195429  14.146  14.741  12.954
97844SOL    HW295430  14.044  14.793  13.053
97845SOL     OW95431   9.797  11.592   3.351
97845SOL    HW195432   9.890  11.602   3.374
97845SOL    HW295433   9.753  11.578   3.435
97846SOL     OW95434   9.916  12.575  12.513
97846SOL    HW195435   9.890  12.588  12.422
97846SOL    HW295436  10.011  12.583  12.512
97847SOL     OW95437   3.139  12.996  12.798
97847SOL    HW195438   3.160  12.904  12.815
97847SOL    HW295439   3.139  13.037  12.885
97848SOL     OW95440   1.220   0.710   6.498
97848SOL    HW195441   1.273   0.697   6.420
97848SOL    HW295442   1.130   0.718   6.465
97849SOL     OW95443   8.847   4.813   9.189
97849SOL    HW195444   8.820   4.879   9.252
97849SOL    HW295445   8.913   4.761   9.235
97850SOL     OW95446   5.444   7.247   6.438
97850SOL    HW195447   5.367   7.193   6.423
97850SOL    HW295448   5.458   7.293   6.355
97851SOL     OW95449   2.071   4.254   4.009
97851SOL    HW195450   2.038   4.203   4.083
97851SOL    HW295451   2.025   4.219   3.933
97852SOL     OW95452   7.133  11.620   8.427
97852SOL    HW195453   7.203  11.666   8.381
97852SOL    HW295454   7.081  11.689   8.467
97853SOL     OW95455  13.515  11.446   7.999
97853SOL    HW195456  13.506  11.378   8.065
97853SOL    HW295457  13.516  11.399   7.916
97854SOL     OW95458   2.090  10.731   2.070
97854SOL    HW195459   2.147  10.724   1.994
97854SOL    HW295460   2.031  10.804   2.049
97855SOL     OW95461  14.783   8.341   1.591
97855SOL    HW195462  14.775   8.247   1.573
97855SOL    HW295463  14.704   8.362   1.641
97856SOL     OW95464   1.217   8.519   9.403
97856SOL    HW195465   1.168   8.452   9.356
97856SOL    HW295466   1.236   8.586   9.338
97857SOL     OW95467   8.599   8.981   8.604
97857SOL    HW195468   8.511   8.968   8.641
97857SOL    HW295469   8.584   8.996   8.511
97858SOL     OW95470  12.547  11.849   9.188
97858SOL    HW195471  12.619  11.883   9.136
97858SOL    HW295472  12.525  11.765   9.147
97859SOL     OW95473   3.120   1.783   5.270
97859SOL    HW195474   3.137   1.824   5.355
97859SOL    HW295475   3.072   1.702   5.292
97860SOL     OW95476  13.550  10.402   3.343
97860SOL    HW195477  13.531  10.461   3.270
97860SOL    HW295478  13.610  10.338   3.307
97861SOL     OW95479   5.841   9.986   6.240
97861SOL    HW195480   5.932  10.010   6.257
97861SOL    HW295481   5.847   9.904   6.190
97862SOL     OW95482   6.793  12.514  11.066
97862SOL    HW195483   6.773  12.559  10.984
97862SOL    HW295484   6.836  12.433  11.039
97863SOL     OW95485  13.587   5.936  14.561
97863SOL    HW195486  13.663   5.880  14.579
97863SOL    HW295487  13.625   6.022  14.544
97864SOL     OW95488   7.148   2.364   1.412
97864SOL    HW195489   7.228   2.387   1.365
97864SOL    HW295490   7.078   2.403   1.360
97865SOL     OW95491   9.154   1.766   9.008
97865SOL    HW195492   9.086   1.824   9.044
97865SOL    HW295493   9.221   1.763   9.076
97866SOL     OW95494   8.951   4.935   9.956
97866SOL    HW195495   8.944   4.840   9.943
97866SOL    HW295496   8.884   4.972   9.899
97867SOL     OW95497  13.377   4.874  14.782
97867SOL    HW195498  13.421   4.790  14.774
97867SOL    HW295499  13.437   4.937  14.741
97868SOL     OW95500  12.876   5.675   4.253
97868SOL    HW195501  12.800   5.695   4.308
97868SOL    HW295502  12.862   5.585   4.225
97869SOL     OW95503   3.266   2.279   0.137
97869SOL    HW195504   3.209   2.275   0.060
97869SOL    HW295505   3.249   2.366   0.174
97870SOL     OW95506   0.682  13.729   3.952
97870SOL    HW195507   0.674  13.658   4.015
97870SOL    HW295508   0.777  13.739   3.940
97871SOL     OW95509  14.398   0.595   4.783
97871SOL    HW195510  14.371   0.629   4.869
97871SOL    HW295511  14.361   0.507   4.780
97872SOL     OW95512   9.771  14.262  10.536
97872SOL    HW195513   9.756  14.215  10.618
97872SOL    HW295514   9.746  14.200  10.467
97873SOL     OW95515   7.470   0.246  13.114
97873SOL    HW195516   7.549   0.238  13.167
97873SOL    HW295517   7.455   0.158  13.079
97874SOL     OW95518  11.593  12.098   8.024
97874SOL    HW195519  11.569  12.167   8.087
97874SOL    HW295520  11.674  12.061   8.059
97875SOL     OW95521   9.664   5.708   3.400
97875SOL    HW195522   9.587   5.709   3.457
97875SOL    HW295523   9.683   5.616   3.386
97876SOL     OW95524   8.225   3.211   5.576
97876SOL    HW195525   8.310   3.204   5.618
97876SOL    HW295526   8.163   3.225   5.648
97877SOL     OW95527  11.339   0.399   9.311
97877SOL    HW195528  11.314   0.359   9.395
97877SOL    HW295529  11.268   0.459   9.291
97878SOL     OW95530   7.532  11.896   7.398
97878SOL    HW195531   7.483  11.832   7.346
97878SOL    HW295532   7.498  11.886   7.487
97879SOL     OW95533  12.848   1.860  14.513
97879SOL    HW195534  12.882   1.895  14.431
97879SOL    HW295535  12.755   1.843  14.496
97880SOL     OW95536  12.918   5.202  10.416
97880SOL    HW195537  12.941   5.262  10.486
97880SOL    HW295538  12.838   5.237  10.379
97881SOL     OW95539   2.707   6.778  12.958
97881SOL    HW195540   2.795   6.763  12.992
97881SOL    HW295541   2.686   6.698  12.910
97882SOL     OW95542  14.148   4.779   3.927
97882SOL    HW195543  14.111   4.865   3.907
97882SOL    HW295544  14.098   4.749   4.003
97883SOL     OW95545   8.744   9.729  11.970
97883SOL    HW195546   8.676   9.697  12.030
97883SOL    HW295547   8.760   9.656  11.911
97884SOL     OW95548   1.524   6.783  10.655
97884SOL    HW195549   1.455   6.741  10.707
97884SOL    HW295550   1.508   6.876  10.667
97885SOL     OW95551  11.263   3.881   6.939
97885SOL    HW195552  11.326   3.869   7.010
97885SOL    HW295553  11.231   3.970   6.949
97886SOL     OW95554  12.223   7.509   1.648
97886SOL    HW195555  12.223   7.564   1.570
97886SOL    HW295556  12.209   7.569   1.721
97887SOL     OW95557  14.057  13.100   3.468
97887SOL    HW195558  14.112  13.129   3.541
97887SOL    HW295559  14.016  13.180   3.436
97888SOL     OW95560   3.919   5.422   0.355
97888SOL    HW195561   3.927   5.338   0.400
97888SOL    HW295562   3.926   5.400   0.262
97889SOL     OW95563   5.495  11.940   0.243
97889SOL    HW195564   5.454  11.899   0.319
97889SOL    HW295565   5.574  11.888   0.227
97890SOL     OW95566   0.502   3.940   7.146
97890SOL    HW195567   0.412   3.936   7.177
97890SOL    HW295568   0.541   4.014   7.193
97891SOL     OW95569   0.885  12.759   2.891
97891SOL    HW195570   0.799  12.720   2.879
97891SOL    HW295571   0.892  12.826   2.823
97892SOL     OW95572  13.039   5.201  10.698
97892SOL    HW195573  13.066   5.247  10.777
97892SOL    HW295574  13.085   5.245  10.627
97893SOL     OW95575   1.093   0.318   2.554
97893SOL    HW195576   1.178   0.325   2.598
97893SOL    HW295577   1.030   0.308   2.625
97894SOL     OW95578  12.164   7.892   6.989
97894SOL    HW195579  12.212   7.975   6.992
97894SOL    HW295580  12.142   7.881   6.896
97895SOL     OW95581   0.133   1.834  14.761
97895SOL    HW195582   0.065   1.897  14.739
97895SOL    HW295583   0.103   1.794  14.842
97896SOL     OW95584   5.123   2.755   4.434
97896SOL    HW195585   5.032   2.780   4.420
97896SOL    HW295586   5.153   2.725   4.348
97897SOL     OW95587   3.427   3.549   9.656
97897SOL    HW195588   3.372   3.627   9.670
97897SOL    HW295589   3.511   3.572   9.694
97898SOL     OW95590   1.293   4.597   8.658
97898SOL    HW195591   1.334   4.511   8.660
97898SOL    HW295592   1.253   4.607   8.744
97899SOL     OW95593  10.428   3.886   0.525
97899SOL    HW195594  10.361   3.916   0.463
97899SOL    HW295595  10.505   3.938   0.503
97900SOL     OW95596   1.401   8.498   0.324
97900SOL    HW195597   1.489   8.512   0.289
97900SOL    HW295598   1.364   8.585   0.331
97901SOL     OW95599  12.890  10.529   1.427
97901SOL    HW195600  12.956  10.507   1.361
97901SOL    HW295601  12.934  10.516   1.511
97902SOL     OW95602  12.734  13.720  12.867
97902SOL    HW195603  12.647  13.757  12.858
97902SOL    HW295604  12.757  13.690  12.779
97903SOL     OW95605   4.746  13.243  11.934
97903SOL    HW195606   4.675  13.292  11.975
97903SOL    HW295607   4.759  13.167  11.991
97904SOL     OW95608   4.020  11.037   1.472
97904SOL    HW195609   3.941  10.982   1.474
97904SOL    HW295610   4.011  11.094   1.549
97905SOL     OW95611   9.837   0.316   9.287
97905SOL    HW195612   9.883   0.280   9.211
97905SOL    HW295613   9.810   0.403   9.260
97906SOL     OW95614   5.850   4.156   5.613
97906SOL    HW195615   5.758   4.129   5.619
97906SOL    HW295616   5.899   4.074   5.612
97907SOL     OW95617  10.667   2.562  13.168
97907SOL    HW195618  10.736   2.539  13.231
97907SOL    HW295619  10.630   2.644  13.202
97908SOL     OW95620   4.011   6.502   6.649
97908SOL    HW195621   4.106   6.506   6.639
97908SOL    HW295622   3.987   6.417   6.613
97909SOL     OW95623  14.790   2.658   6.959
97909SOL    HW195624  14.823   2.574   6.990
97909SOL    HW295625  14.860   2.720   6.977
97910SOL     OW95626   3.418   7.480   6.597
97910SOL    HW195627   3.332   7.445   6.621
97910SOL    HW295628   3.403   7.573   6.582
97911SOL     OW95629  14.473   3.324  10.184
97911SOL    HW195630  14.397   3.333  10.127
97911SOL    HW295631  14.515   3.410  10.184
97912SOL     OW95632   4.552  10.794   1.303
97912SOL    HW195633   4.601  10.713   1.311
97912SOL    HW295634   4.513  10.791   1.216
97913SOL     OW95635   5.526   7.870   7.269
97913SOL    HW195636   5.606   7.898   7.225
97913SOL    HW295637   5.456   7.910   7.220
97914SOL     OW95638   7.626   3.044   7.442
97914SOL    HW195639   7.664   3.132   7.436
97914SOL    HW295640   7.702   2.986   7.452
97915SOL     OW95641   6.620   4.349   4.300
97915SOL    HW195642   6.580   4.263   4.294
97915SOL    HW295643   6.552   4.405   4.337
97916SOL     OW95644   3.044   8.301  10.139
97916SOL    HW195645   2.950   8.295  10.151
97916SOL    HW295646   3.057   8.383  10.092
97917SOL     OW95647  13.549   8.129   4.344
97917SOL    HW195648  13.555   8.034   4.347
97917SOL    HW295649  13.462   8.149   4.378
97918SOL     OW95650  14.468   9.571   8.736
97918SOL    HW195651  14.546   9.622   8.715
97918SOL    HW295652  14.400   9.635   8.751
97919SOL     OW95653  12.366   3.225   4.212
97919SOL    HW195654  12.382   3.133   4.234
97919SOL    HW295655  12.453   3.266   4.216
97920SOL     OW95656  13.651  10.159  11.049
97920SOL    HW195657  13.611  10.076  11.075
97920SOL    HW295658  13.721  10.173  11.113
97921SOL     OW95659  14.066   7.517   5.146
97921SOL    HW195660  14.114   7.463   5.209
97921SOL    HW295661  14.058   7.462   5.068
97922SOL     OW95662   0.835   7.946  10.173
97922SOL    HW195663   0.916   7.944  10.224
97922SOL    HW295664   0.840   7.868  10.117
97923SOL     OW95665   4.714  13.564  12.988
97923SOL    HW195666   4.782  13.594  12.928
97923SOL    HW295667   4.755  13.495  13.039
97924SOL     OW95668   9.695   1.941  10.598
97924SOL    HW195669   9.658   1.857  10.625
97924SOL    HW295670   9.776   1.917  10.552
97925SOL     OW95671  13.775  13.058   4.611
97925SOL    HW195672  13.845  13.016   4.661
97925SOL    HW295673  13.725  12.985   4.574
97926SOL     OW95674   7.457   0.256   4.600
97926SOL    HW195675   7.499   0.172   4.578
97926SOL    HW295676   7.504   0.320   4.548
97927SOL     OW95677   0.341   3.167   1.186
97927SOL    HW195678   0.314   3.108   1.257
97927SOL    HW295679   0.314   3.122   1.106
97928SOL     OW95680   1.063  13.394   0.952
97928SOL    HW195681   1.047  13.319   0.894
97928SOL    HW295682   1.117  13.453   0.900
97929SOL     OW95683  12.715  10.016   5.495
97929SOL    HW195684  12.791  10.046   5.446
97929SOL    HW295685  12.728  10.051   5.583
97930SOL     OW95686   3.070  13.748   8.897
97930SOL    HW195687   3.113  13.831   8.875
97930SOL    HW295688   3.053  13.754   8.991
97931SOL     OW95689  11.093   6.972   2.742
97931SOL    HW195690  11.188   6.964   2.733
97931SOL    HW295691  11.058   6.936   2.661
97932SOL     OW95692  13.732   6.388  12.722
97932SOL    HW195693  13.711   6.380  12.629
97932SOL    HW295694  13.671   6.327  12.765
97933SOL     OW95695  13.073   9.791  10.331
97933SOL    HW195696  13.102   9.750  10.413
97933SOL    HW295697  13.036   9.719  10.281
97934SOL     OW95698   4.587   8.161  11.524
97934SOL    HW195699   4.515   8.099  11.539
97934SOL    HW295700   4.647   8.145  11.597
97935SOL     OW95701   5.055  14.442   3.805
97935SOL    HW195702   4.991  14.468   3.739
97935SOL    HW295703   5.140  14.455   3.762
97936SOL     OW95704   6.848   8.325   8.491
97936SOL    HW195705   6.791   8.264   8.446
97936SOL    HW295706   6.894   8.271   8.556
97937SOL     OW95707   9.587  11.908  11.093
97937SOL    HW195708   9.562  11.890  11.184
97937SOL    HW295709   9.616  11.999  11.093
97938SOL     OW95710  11.336  14.378   3.708
97938SOL    HW195711  11.262  14.438   3.698
97938SOL    HW295712  11.302  14.293   3.680
97939SOL     OW95713   5.367  11.774  11.598
97939SOL    HW195714   5.292  11.735  11.642
97939SOL    HW295715   5.439  11.714  11.615
97940SOL     OW95716   3.804   1.865   7.478
97940SOL    HW195717   3.873   1.927   7.501
97940SOL    HW295718   3.850   1.794   7.432
97941SOL     OW95719  10.681  13.987   3.263
97941SOL    HW195720  10.700  13.973   3.171
97941SOL    HW295721  10.678  13.899   3.301
97942SOL     OW95722  10.984   2.155  12.131
97942SOL    HW195723  10.933   2.081  12.097
97942SOL    HW295724  10.918   2.216  12.163
97943SOL     OW95725  10.031  12.182  12.958
97943SOL    HW195726   9.976  12.154  13.032
97943SOL    HW295727   9.981  12.252  12.916
97944SOL     OW95728  11.597   8.297   9.119
97944SOL    HW195729  11.636   8.356   9.183
97944SOL    HW295730  11.664   8.284   9.053
97945SOL     OW95731  14.705   2.940  12.874
97945SOL    HW195732  14.647   2.967  12.946
97945SOL    HW295733  14.711   2.845  12.883
97946SOL     OW95734  12.949   3.934   8.869
97946SOL    HW195735  12.963   3.996   8.797
97946SOL    HW295736  12.876   3.879   8.840
97947SOL     OW95737   0.068   5.842   4.975
97947SOL    HW195738   0.142   5.900   4.996
97947SOL    HW295739  14.868   5.893   5.001
97948SOL     OW95740  14.826   8.583  11.838
97948SOL    HW195741  14.812   8.489  11.841
97948SOL    HW295742   0.033   8.596  11.880
97949SOL     OW95743   5.645   6.020   3.182
97949SOL    HW195744   5.710   5.950   3.181
97949SOL    HW295745   5.686   6.089   3.235
97950SOL     OW95746   7.205   9.179   1.158
97950SOL    HW195747   7.176   9.104   1.107
97950SOL    HW295748   7.244   9.239   1.094
97951SOL     OW95749  12.672   6.769   3.584
97951SOL    HW195750  12.728   6.811   3.520
97951SOL    HW295751  12.657   6.837   3.650
97952SOL     OW95752   5.328   7.723  10.496
97952SOL    HW195753   5.346   7.660  10.566
97952SOL    HW295754   5.236   7.747  10.509
97953SOL     OW95755   9.183  10.454   5.266
97953SOL    HW195756   9.274  10.471   5.242
97953SOL    HW295757   9.188  10.413   5.352
97954SOL     OW95758  11.236  12.466  13.943
97954SOL    HW195759  11.257  12.419  13.862
97954SOL    HW295760  11.209  12.398  14.004
97955SOL     OW95761  10.811   6.921  14.163
97955SOL    HW195762  10.840   7.001  14.207
97955SOL    HW295763  10.839   6.932  14.072
97956SOL     OW95764  10.658   5.068   3.883
97956SOL    HW195765  10.750   5.072   3.855
97956SOL    HW295766  10.659   5.009   3.958
97957SOL     OW95767   2.687  14.658   3.536
97957SOL    HW195768   2.735  14.576   3.528
97957SOL    HW295769   2.740  14.712   3.595
97958SOL     OW95770   0.874  12.642  12.792
97958SOL    HW195771   0.884  12.632  12.697
97958SOL    HW295772   0.880  12.736  12.807
97959SOL     OW95773   9.706  10.706   0.908
97959SOL    HW195774   9.721  10.793   0.870
97959SOL    HW295775   9.614  10.707   0.935
97960SOL     OW95776   2.830  13.011   5.504
97960SOL    HW195777   2.804  13.091   5.549
97960SOL    HW295778   2.796  13.022   5.415
97961SOL     OW95779   6.142  10.991   1.926
97961SOL    HW195780   6.094  10.936   1.864
97961SOL    HW295781   6.155  10.935   2.003
97962SOL     OW95782   2.891   3.684   3.892
97962SOL    HW195783   2.940   3.605   3.869
97962SOL    HW295784   2.853   3.663   3.978
97963SOL     OW95785  12.646   2.356   9.279
97963SOL    HW195786  12.733   2.393   9.296
97963SOL    HW295787  12.626   2.381   9.189
97964SOL     OW95788  11.276   9.673   3.715
97964SOL    HW195789  11.312   9.595   3.756
97964SOL    HW295790  11.315   9.673   3.627
97965SOL     OW95791   6.523  13.930   8.447
97965SOL    HW195792   6.537  13.835   8.441
97965SOL    HW295793   6.489  13.944   8.535
97966SOL     OW95794   7.132   3.679  14.649
97966SOL    HW195795   7.045   3.649  14.623
97966SOL    HW295796   7.123   3.773  14.661
97967SOL     OW95797   6.859   2.045   0.871
97967SOL    HW195798   6.793   2.018   0.934
97967SOL    HW295799   6.822   2.124   0.831
97968SOL     OW95800   1.321  11.524   0.748
97968SOL    HW195801   1.322  11.454   0.682
97968SOL    HW295802   1.339  11.604   0.699
97969SOL     OW95803   6.014   0.505   3.171
97969SOL    HW195804   6.020   0.477   3.263
97969SOL    HW295805   5.941   0.455   3.136
97970SOL     OW95806   9.982   5.388  12.186
97970SOL    HW195807  10.038   5.329  12.136
97970SOL    HW295808   9.899   5.341  12.194
97971SOL     OW95809   4.553   7.389   9.282
97971SOL    HW195810   4.530   7.457   9.345
97971SOL    HW295811   4.486   7.395   9.214
97972SOL     OW95812  14.752   3.356   3.279
97972SOL    HW195813  14.659   3.336   3.274
97972SOL    HW295814  14.760   3.441   3.235
97973SOL     OW95815   7.325  14.669   0.115
97973SOL    HW195816   7.309  14.681   0.209
97973SOL    HW295817   7.275  14.738   0.073
97974SOL     OW95818   9.622  12.903   5.134
97974SOL    HW195819   9.701  12.928   5.087
97974SOL    HW295820   9.565  12.867   5.066
97975SOL     OW95821   7.565  12.371  14.244
97975SOL    HW195822   7.480  12.327  14.250
97975SOL    HW295823   7.550  12.458  14.280
97976SOL     OW95824   4.505   2.968  12.021
97976SOL    HW195825   4.425   2.918  12.036
97976SOL    HW295826   4.504   3.035  12.090
97977SOL     OW95827   3.330  12.185   6.496
97977SOL    HW195828   3.332  12.091   6.477
97977SOL    HW295829   3.357  12.192   6.588
97978SOL     OW95830  12.222   4.003  10.352
97978SOL    HW195831  12.302   3.984  10.303
97978SOL    HW295832  12.162   4.038  10.286
97979SOL     OW95833   6.190   4.132  11.262
97979SOL    HW195834   6.139   4.107  11.185
97979SOL    HW295835   6.154   4.217  11.289
97980SOL     OW95836   6.783   9.507  12.269
97980SOL    HW195837   6.715   9.494  12.203
97980SOL    HW295838   6.791   9.602  12.278
97981SOL     OW95839   8.112   9.691   3.898
97981SOL    HW195840   8.093   9.611   3.947
97981SOL    HW295841   8.203   9.680   3.870
97982SOL     OW95842  10.302   8.766   7.039
97982SOL    HW195843  10.254   8.836   6.994
97982SOL    HW295844  10.245   8.740   7.111
97983SOL     OW95845  12.798   3.984   9.099
97983SOL    HW195846  12.869   3.991   9.036
97983SOL    HW295847  12.841   3.958   9.181
97984SOL     OW95848   2.136   5.038   8.399
97984SOL    HW195849   2.105   5.059   8.487
97984SOL    HW295850   2.145   5.123   8.356
97985SOL     OW95851   4.707  14.555  12.694
97985SOL    HW195852   4.652  14.488  12.734
97985SOL    HW295853   4.706  14.535  12.601
97986SOL     OW95854   1.278   0.871   1.504
97986SOL    HW195855   1.239   0.949   1.465
97986SOL    HW295856   1.343   0.841   1.439
97987SOL     OW95857  13.945   2.461  11.085
97987SOL    HW195858  13.999   2.397  11.039
97987SOL    HW295859  13.923   2.419  11.168
97988SOL     OW95860   0.452   6.048   3.698
97988SOL    HW195861   0.459   6.143   3.702
97988SOL    HW295862   0.543   6.017   3.700
97989SOL     OW95863  14.533   1.003   5.244
97989SOL    HW195864  14.624   0.981   5.263
97989SOL    HW295865  14.522   1.092   5.277
97990SOL     OW95866   6.429   3.796   7.656
97990SOL    HW195867   6.463   3.882   7.680
97990SOL    HW295868   6.418   3.750   7.739
97991SOL     OW95869   1.797  12.491   6.635
97991SOL    HW195870   1.801  12.531   6.722
97991SOL    HW295871   1.790  12.566   6.575
97992SOL     OW95872   8.613   2.262   2.827
97992SOL    HW195873   8.538   2.259   2.887
97992SOL    HW295874   8.656   2.345   2.847
97993SOL     OW95875   5.270  14.306   6.071
97993SOL    HW195876   5.196  14.261   6.111
97993SOL    HW295877   5.258  14.293   5.977
97994SOL     OW95878  11.575   8.777  12.073
97994SOL    HW195879  11.488   8.816  12.081
97994SOL    HW295880  11.559   8.693  12.029
97995SOL     OW95881   6.657  11.279   3.277
97995SOL    HW195882   6.588  11.291   3.342
97995SOL    HW295883   6.642  11.190   3.243
97996SOL     OW95884  11.903   4.066   5.269
97996SOL    HW195885  11.847   4.129   5.314
97996SOL    HW295886  11.846   4.025   5.205
97997SOL     OW95887   7.443   7.955   1.662
97997SOL    HW195888   7.413   8.009   1.735
97997SOL    HW295889   7.461   8.017   1.592
97998SOL     OW95890   9.986   5.015  14.267
97998SOL    HW195891  10.015   5.064  14.190
97998SOL    HW295892   9.906   5.060  14.296
97999SOL     OW95893  14.264   4.273  12.040
97999SOL    HW195894  14.318   4.219  11.982
97999SOL    HW295895  14.185   4.221  12.054
98000SOL     OW95896   7.128   0.300  10.674
98000SOL    HW195897   7.192   0.315  10.605
98000SOL    HW295898   7.176   0.316  10.755
98001SOL     OW95899   1.709   4.468   2.412
98001SOL    HW195900   1.695   4.393   2.470
98001SOL    HW295901   1.774   4.438   2.348
98002SOL     OW95902  14.356   0.317   1.329
98002SOL    HW195903  14.284   0.280   1.278
98002SOL    HW295904  14.320   0.328   1.417
98003SOL     OW95905   6.198   5.208   0.776
98003SOL    HW195906   6.250   5.286   0.799
98003SOL    HW295907   6.249   5.165   0.707
98004SOL     OW95908   6.313   0.068  12.564
98004SOL    HW195909   6.375   0.131  12.601
98004SOL    HW295910   6.367   0.010  12.510
98005SOL     OW95911   2.625  11.983   9.560
98005SOL    HW195912   2.543  11.997   9.608
98005SOL    HW295913   2.673  12.065   9.569
98006SOL     OW95914   4.379  13.918   3.354
98006SOL    HW195915   4.374  13.945   3.445
98006SOL    HW295916   4.465  13.878   3.345
98007SOL     OW95917   4.455  13.949   7.211
98007SOL    HW195918   4.445  13.992   7.126
98007SOL    HW295919   4.457  13.855   7.190
98008SOL     OW95920   9.254  14.676  11.265
98008SOL    HW195921   9.197  14.601  11.252
98008SOL    HW295922   9.309  14.651  11.340
98009SOL     OW95923  13.175  13.504  12.983
98009SOL    HW195924  13.152  13.595  12.965
98009SOL    HW295925  13.247  13.510  13.045
98010SOL     OW95926   0.793   3.643   1.995
98010SOL    HW195927   0.717   3.609   1.949
98010SOL    HW295928   0.789   3.603   2.082
98011SOL     OW95929  13.956   2.473   9.969
98011SOL    HW195930  14.039   2.455   9.925
98011SOL    HW295931  13.941   2.566   9.955
98012SOL     OW95932   5.501   4.762  12.944
98012SOL    HW195933   5.472   4.803  13.026
98012SOL    HW295934   5.452   4.808  12.876
98013SOL     OW95935   8.620   9.204   3.108
98013SOL    HW195936   8.650   9.276   3.054
98013SOL    HW295937   8.676   9.207   3.186
98014SOL     OW95938  10.311  10.401   7.950
98014SOL    HW195939  10.332  10.357   8.032
98014SOL    HW295940  10.376  10.471   7.943
98015SOL     OW95941  10.098   2.999  11.672
98015SOL    HW195942  10.135   3.042  11.750
98015SOL    HW295943  10.144   3.039  11.599
98016SOL     OW95944   4.841  11.798  13.919
98016SOL    HW195945   4.836  11.893  13.912
98016SOL    HW295946   4.935  11.781  13.931
98017SOL     OW95947  14.746  11.790   4.505
98017SOL    HW195948  14.753  11.808   4.412
98017SOL    HW295949  14.705  11.867   4.542
98018SOL     OW95950   3.736   0.413   5.247
98018SOL    HW195951   3.748   0.372   5.161
98018SOL    HW295952   3.695   0.345   5.300
98019SOL     OW95953   3.281   8.580  12.907
98019SOL    HW195954   3.251   8.615  12.991
98019SOL    HW295955   3.356   8.634  12.883
98020SOL     OW95956   7.853   0.430  10.299
98020SOL    HW195957   7.813   0.475  10.373
98020SOL    HW295958   7.903   0.358  10.339
98021SOL     OW95959   8.888  13.066  13.079
98021SOL    HW195960   8.857  13.053  12.989
98021SOL    HW295961   8.929  13.153  13.077
98022SOL     OW95962  13.479  13.471   8.198
98022SOL    HW195963  13.480  13.548   8.140
98022SOL    HW295964  13.478  13.396   8.138
98023SOL     OW95965  12.101   9.002  11.279
98023SOL    HW195966  12.127   9.088  11.313
98023SOL    HW295967  12.091   9.016  11.185
98024SOL     OW95968   0.157   6.667  10.863
98024SOL    HW195969   0.069   6.628  10.862
98024SOL    HW295970   0.200   6.632  10.785
98025SOL     OW95971   8.276   7.689   6.069
98025SOL    HW195972   8.195   7.708   6.020
98025SOL    HW295973   8.272   7.595   6.086
98026SOL     OW95974  12.812  14.816   2.994
98026SOL    HW195975  12.778  14.780   2.912
98026SOL    HW295976  12.765   0.020   3.006
98027SOL     OW95977  10.143  11.341  11.298
98027SOL    HW195978  10.131  11.246  11.292
98027SOL    HW295979  10.057  11.375  11.319
98028SOL     OW95980  12.920  14.604  14.092
98028SOL    HW195981  12.844  14.589  14.148
98028SOL    HW295982  12.993  14.617  14.153
98029SOL     OW95983   1.684  13.470   7.769
98029SOL    HW195984   1.626  13.489   7.843
98029SOL    HW295985   1.649  13.521   7.696
98030SOL     OW95986   9.552   8.881   3.667
98030SOL    HW195987   9.556   8.904   3.760
98030SOL    HW295988   9.466   8.840   3.657
98031SOL     OW95989   0.036   3.607   9.698
98031SOL    HW195990   0.034   3.513   9.683
98031SOL    HW295991   0.011   3.646   9.614
98032SOL     OW95992   3.778   7.540  11.002
98032SOL    HW195993   3.861   7.565  11.042
98032SOL    HW295994   3.801   7.511  10.914
98033SOL     OW95995  13.981  13.472   8.592
98033SOL    HW195996  13.991  13.470   8.687
98033SOL    HW295997  14.070  13.470   8.559
98034SOL     OW95998   1.278  14.232  10.304
98034SOL    HW195999   1.322  14.292  10.364
98034SOL    HW296000   1.327  14.150  10.312
98035SOL     OW96001   2.929   6.696   2.639
98035SOL    HW196002   2.964   6.750   2.568
98035SOL    HW296003   2.907   6.759   2.708
98036SOL     OW96004  12.607   3.750   3.438
98036SOL    HW196005  12.669   3.677   3.445
98036SOL    HW296006  12.604   3.786   3.527
98037SOL     OW96007  13.062  13.754   1.335
98037SOL    HW196008  13.024  13.671   1.365
98037SOL    HW296009  13.117  13.782   1.407
98038SOL     OW96010   5.435   9.779  12.552
98038SOL    HW196011   5.374   9.850  12.572
98038SOL    HW296012   5.388   9.700  12.577
98039SOL     OW96013  11.539   2.663  11.614
98039SOL    HW196014  11.589   2.660  11.533
98039SOL    HW296015  11.448   2.662  11.586
98040SOL     OW96016  13.301  11.808   2.384
98040SOL    HW196017  13.336  11.730   2.427
98040SOL    HW296018  13.319  11.879   2.446
98041SOL     OW96019  11.461  12.112   2.146
98041SOL    HW196020  11.401  12.187   2.153
98041SOL    HW296021  11.548  12.150   2.157
98042SOL     OW96022  12.483  12.320  12.752
98042SOL    HW196023  12.390  12.343  12.748
98042SOL    HW296024  12.514  12.358  12.833
98043SOL     OW96025  10.326   0.630  11.949
98043SOL    HW196026  10.306   0.679  11.869
98043SOL    HW296027  10.299   0.540  11.929
98044SOL     OW96028   1.467   0.943   8.425
98044SOL    HW196029   1.561   0.960   8.430
98044SOL    HW296030   1.458   0.872   8.362
98045SOL     OW96031   0.478   5.137   5.581
98045SOL    HW196032   0.563   5.105   5.612
98045SOL    HW296033   0.493   5.160   5.489
98046SOL     OW96034   1.131   0.009  13.705
98046SOL    HW196035   1.146  14.844  13.790
98046SOL    HW296036   1.100  14.816  13.648
98047SOL     OW96037   0.491   6.904   0.915
98047SOL    HW196038   0.399   6.901   0.940
98047SOL    HW296039   0.492   6.878   0.823
98048SOL     OW96040   2.113   1.728  11.152
98048SOL    HW196041   2.087   1.763  11.237
98048SOL    HW296042   2.106   1.802  11.092
98049SOL     OW96043   4.612   2.711  11.980
98049SOL    HW196044   4.572   2.798  11.980
98049SOL    HW296045   4.538   2.651  11.994
98050SOL     OW96046   3.325   3.373   4.337
98050SOL    HW196047   3.306   3.319   4.414
98050SOL    HW296048   3.387   3.438   4.367
98051SOL     OW96049  14.405   2.959  13.668
98051SOL    HW196050  14.470   3.012  13.715
98051SOL    HW296051  14.338   3.021  13.641
98052SOL     OW96052  12.161   5.412   0.946
98052SOL    HW196053  12.096   5.476   0.914
98052SOL    HW296054  12.245   5.446   0.913
98053SOL     OW96055   0.254  13.951   5.649
98053SOL    HW196056   0.224  13.953   5.558
98053SOL    HW296057   0.174  13.952   5.701
98054SOL     OW96058   2.955  14.483   7.751
98054SOL    HW196059   3.022  14.429   7.792
98054SOL    HW296060   2.898  14.510   7.823
98055SOL     OW96061   2.797  13.428  13.693
98055SOL    HW196062   2.789  13.470  13.779
98055SOL    HW296063   2.708  13.408  13.667
98056SOL     OW96064  10.375  11.726   2.181
98056SOL    HW196065  10.365  11.687   2.268
98056SOL    HW296066  10.469  11.733   2.167
98057SOL     OW96067  11.445   6.977   8.664
98057SOL    HW196068  11.492   6.904   8.705
98057SOL    HW296069  11.505   7.009   8.597
98058SOL     OW96070   3.040  10.261   1.922
98058SOL    HW196071   3.078  10.200   1.858
98058SOL    HW296072   2.949  10.232   1.932
98059SOL     OW96073   6.210   0.365   6.928
98059SOL    HW196074   6.299   0.397   6.917
98059SOL    HW296075   6.173   0.366   6.840
98060SOL     OW96076   4.848  12.056   8.564
98060SOL    HW196077   4.867  12.148   8.578
98060SOL    HW296078   4.883  12.012   8.642
98061SOL     OW96079  13.097   8.615  14.800
98061SOL    HW196080  13.008   8.580  14.803
98061SOL    HW296081  13.150   8.549  14.846
98062SOL     OW96082   0.115   7.973   6.717
98062SOL    HW196083   0.156   7.981   6.631
98062SOL    HW296084   0.108   7.878   6.731
98063SOL     OW96085  10.528  13.035  14.397
98063SOL    HW196086  10.441  13.001  14.375
98063SOL    HW296087  10.543  13.007  14.487
98064SOL     OW96088   2.875   1.761  10.310
98064SOL    HW196089   2.857   1.671  10.282
98064SOL    HW296090   2.863   1.814  10.231
98065SOL     OW96091   0.945   9.996   6.301
98065SOL    HW196092   1.000   9.925   6.267
98065SOL    HW296093   0.903   9.958   6.379
98066SOL     OW96094   3.250   0.951   0.781
98066SOL    HW196095   3.176   0.949   0.841
98066SOL    HW296096   3.211   0.933   0.695
98067SOL     OW96097   7.671   3.725   6.230
98067SOL    HW196098   7.684   3.795   6.166
98067SOL    HW296099   7.736   3.659   6.208
98068SOL     OW96100   3.797   8.914  12.776
98068SOL    HW196101   3.761   8.961  12.701
98068SOL    HW296102   3.885   8.951  12.788
98069SOL     OW96103   5.165   6.809   5.175
98069SOL    HW196104   5.082   6.775   5.209
98069SOL    HW296105   5.209   6.732   5.139
98070SOL     OW96106   1.071   1.637   9.984
98070SOL    HW196107   1.064   1.590  10.067
98070SOL    HW296108   1.156   1.681   9.988
98071SOL     OW96109   4.887   0.137   0.789
98071SOL    HW196110   4.845   0.109   0.870
98071SOL    HW296111   4.818   0.135   0.723
98072SOL     OW96112   6.603   7.952  13.671
98072SOL    HW196113   6.608   7.858  13.651
98072SOL    HW296114   6.648   7.961  13.755
98073SOL     OW96115   5.431   6.379   9.208
98073SOL    HW196116   5.517   6.359   9.244
98073SOL    HW296117   5.435   6.346   9.118
98074SOL     OW96118   4.136   8.683  13.880
98074SOL    HW196119   4.127   8.594  13.917
98074SOL    HW296120   4.046   8.715  13.876
98075SOL     OW96121  11.477  10.379   4.780
98075SOL    HW196122  11.449  10.343   4.696
98075SOL    HW296123  11.560  10.336   4.798
98076SOL     OW96124   4.373   0.338  10.000
98076SOL    HW196125   4.390   0.245  10.012
98076SOL    HW296126   4.425   0.362   9.923
98077SOL     OW96127   6.753  11.472  14.225
98077SOL    HW196128   6.681  11.408  14.222
98077SOL    HW296129   6.828  11.424  14.190
98078SOL     OW96130   7.266  13.256   3.851
98078SOL    HW196131   7.322  13.325   3.816
98078SOL    HW296132   7.177  13.287   3.837
98079SOL     OW96133   9.342   5.135  12.201
98079SOL    HW196134   9.395   5.057  12.217
98079SOL    HW296135   9.320   5.131  12.108
98080SOL     OW96136  10.660   3.660   3.676
98080SOL    HW196137  10.716   3.636   3.602
98080SOL    HW296138  10.580   3.693   3.636
98081SOL     OW96139   1.408  11.660   1.494
98081SOL    HW196140   1.444  11.635   1.579
98081SOL    HW296141   1.429  11.585   1.437
98082SOL     OW96142  10.442   6.632  10.998
98082SOL    HW196143  10.475   6.578  11.069
98082SOL    HW296144  10.359   6.591  10.973
98083SOL     OW96145   1.613   3.291   2.376
98083SOL    HW196146   1.665   3.231   2.429
98083SOL    HW296147   1.665   3.372   2.374
98084SOL     OW96148   0.752   6.015   2.647
98084SOL    HW196149   0.687   6.053   2.706
98084SOL    HW296150   0.814   6.086   2.631
98085SOL     OW96151   0.914   6.206   5.815
98085SOL    HW196152   0.902   6.287   5.864
98085SOL    HW296153   0.922   6.234   5.724
98086SOL     OW96154   2.238  12.248  14.571
98086SOL    HW196155   2.265  12.289  14.489
98086SOL    HW296156   2.204  12.163  14.545
98087SOL     OW96157   0.111   1.488   2.203
98087SOL    HW196158   0.043   1.540   2.162
98087SOL    HW296159   0.157   1.550   2.260
98088SOL     OW96160   6.386   4.620   4.557
98088SOL    HW196161   6.296   4.593   4.578
98088SOL    HW296162   6.438   4.589   4.632
98089SOL     OW96163  10.370   4.598   9.623
98089SOL    HW196164  10.352   4.531   9.690
98089SOL    HW296165  10.313   4.671   9.646
98090SOL     OW96166   9.127   3.045  12.967
98090SOL    HW196167   9.160   3.117  12.914
98090SOL    HW296168   9.051   3.013  12.919
98091SOL     OW96169   0.588  13.461  14.732
98091SOL    HW196170   0.497  13.478  14.707
98091SOL    HW296171   0.624  13.547  14.753
98092SOL     OW96172   0.082   5.255  10.920
98092SOL    HW196173   0.136   5.307  10.860
98092SOL    HW296174   0.142   5.190  10.956
98093SOL     OW96175   1.814   2.861  11.389
98093SOL    HW196176   1.861   2.943  11.403
98093SOL    HW296177   1.731   2.873  11.435
98094SOL     OW96178   2.586   3.066   2.450
98094SOL    HW196179   2.499   3.034   2.426
98094SOL    HW296180   2.622   3.102   2.369
98095SOL     OW96181  10.916   2.870   9.581
98095SOL    HW196182  10.946   2.927   9.510
98095SOL    HW296183  10.869   2.929   9.640
98096SOL     OW96184   5.115  11.028   8.851
98096SOL    HW196185   5.188  11.048   8.792
98096SOL    HW296186   5.128  10.936   8.875
98097SOL     OW96187   9.487  12.584   2.165
98097SOL    HW196188   9.518  12.513   2.221
98097SOL    HW296189   9.560  12.646   2.162
98098SOL     OW96190   4.049  12.341   7.008
98098SOL    HW196191   4.140  12.367   6.991
98098SOL    HW296192   4.019  12.404   7.074
98099SOL     OW96193  11.218   9.644  12.783
98099SOL    HW196194  11.190   9.606  12.700
98099SOL    HW296195  11.200   9.576  12.848
98100SOL     OW96196   8.449  14.646   7.867
98100SOL    HW196197   8.403  14.572   7.905
98100SOL    HW296198   8.535  14.644   7.908
98101SOL     OW96199  11.338   6.100   6.861
98101SOL    HW196200  11.366   6.182   6.820
98101SOL    HW296201  11.378   6.102   6.948
98102SOL     OW96202   7.149  11.996   5.970
98102SOL    HW196203   7.130  11.937   5.897
98102SOL    HW296204   7.065  12.009   6.014
98103SOL     OW96205   0.847   9.948  12.301
98103SOL    HW196206   0.766   9.999  12.309
98103SOL    HW296207   0.828   9.883  12.234
98104SOL     OW96208   7.676   8.558   4.050
98104SOL    HW196209   7.748   8.555   4.114
98104SOL    HW296210   7.615   8.621   4.087
98105SOL     OW96211   8.240   2.861   1.759
98105SOL    HW196212   8.291   2.843   1.680
98105SOL    HW296213   8.243   2.779   1.808
98106SOL     OW96214   5.650   7.922  11.293
98106SOL    HW196215   5.659   7.965  11.378
98106SOL    HW296216   5.692   7.982  11.231
98107SOL     OW96217   7.973   8.150   8.088
98107SOL    HW196218   8.041   8.175   8.151
98107SOL    HW296219   8.000   8.191   8.006
98108SOL     OW96220   7.330   4.629   9.176
98108SOL    HW196221   7.304   4.602   9.088
98108SOL    HW296222   7.405   4.686   9.163
98109SOL     OW96223   6.823   3.459   8.099
98109SOL    HW196224   6.795   3.389   8.157
98109SOL    HW296225   6.855   3.528   8.157
98110SOL     OW96226   6.634  13.716   9.051
98110SOL    HW196227   6.700  13.743   8.987
98110SOL    HW296228   6.620  13.623   9.034
98111SOL     OW96229   4.258  11.200   1.880
98111SOL    HW196230   4.316  11.203   1.804
98111SOL    HW296231   4.266  11.111   1.914
98112SOL     OW96232   4.919   4.355   7.823
98112SOL    HW196233   5.013   4.359   7.806
98112SOL    HW296234   4.885   4.288   7.763
98113SOL     OW96235  12.830   4.739   9.887
98113SOL    HW196236  12.754   4.783   9.924
98113SOL    HW296237  12.794   4.664   9.840
98114SOL     OW96238  14.220  13.658   6.740
98114SOL    HW196239  14.238  13.741   6.697
98114SOL    HW296240  14.218  13.679   6.833
98115SOL     OW96241   6.178  11.512   6.591
98115SOL    HW196242   6.127  11.533   6.513
98115SOL    HW296243   6.232  11.437   6.565
98116SOL     OW96244   3.932  11.428  14.453
98116SOL    HW196245   3.988  11.481  14.397
98116SOL    HW296246   3.986  11.352  14.476
98117SOL     OW96247   8.321   8.206   6.221
98117SOL    HW196248   8.302   8.134   6.280
98117SOL    HW296249   8.348   8.164   6.139
98118SOL     OW96250   1.868   0.408   3.107
98118SOL    HW196251   1.900   0.475   3.167
98118SOL    HW296252   1.876   0.448   3.020
98119SOL     OW96253   9.904   6.546   4.497
98119SOL    HW196254   9.840   6.514   4.433
98119SOL    HW296255   9.987   6.542   4.451
98120SOL     OW96256   6.593   8.981   3.449
98120SOL    HW196257   6.584   9.070   3.414
98120SOL    HW296258   6.533   8.977   3.523
98121SOL     OW96259   8.005  13.457  13.121
98121SOL    HW196260   8.033  13.378  13.075
98121SOL    HW296261   8.057  13.527  13.081
98122SOL     OW96262   9.048   6.757  12.391
98122SOL    HW196263   9.053   6.849  12.416
98122SOL    HW296264   8.976   6.753  12.328
98123SOL     OW96265   6.940   2.323   6.853
98123SOL    HW196266   6.998   2.272   6.796
98123SOL    HW296267   6.990   2.335   6.933
98124SOL     OW96268   9.760  11.097   6.460
98124SOL    HW196269   9.713  11.083   6.377
98124SOL    HW296270   9.846  11.129   6.433
98125SOL     OW96271  14.846   7.376   3.977
98125SOL    HW196272   0.039   7.364   3.913
98125SOL    HW296273  14.832   7.471   3.979
98126SOL     OW96274   6.667   4.327   8.294
98126SOL    HW196275   6.582   4.343   8.252
98126SOL    HW296276   6.651   4.340   8.387
98127SOL     OW96277   3.962   7.275   9.826
98127SOL    HW196278   4.028   7.239   9.885
98127SOL    HW296279   4.001   7.268   9.739
98128SOL     OW96280  11.754   4.039  11.727
98128SOL    HW196281  11.698   4.116  11.715
98128SOL    HW296282  11.692   3.967  11.744
98129SOL     OW96283   1.462   6.168  10.629
98129SOL    HW196284   1.511   6.239  10.669
98129SOL    HW296285   1.410   6.209  10.560
98130SOL     OW96286   9.637   5.124   6.037
98130SOL    HW196287   9.635   5.039   6.082
98130SOL    HW296288   9.569   5.118   5.971
98131SOL     OW96289   2.967   0.482   0.139
98131SOL    HW196290   2.995   0.391   0.148
98131SOL    HW296291   2.883   0.477   0.093
98132SOL     OW96292  12.502   4.634  13.199
98132SOL    HW196293  12.444   4.564  13.170
98132SOL    HW296294  12.547   4.663  13.119
98133SOL     OW96295  14.349   6.412   9.014
98133SOL    HW196296  14.292   6.482   9.044
98133SOL    HW296297  14.374   6.365   9.095
98134SOL     OW96298  14.326   7.274  11.093
98134SOL    HW196299  14.340   7.340  11.025
98134SOL    HW296300  14.243   7.232  11.069
98135SOL     OW96301   1.024  12.811   9.306
98135SOL    HW196302   1.086  12.871   9.348
98135SOL    HW296303   1.004  12.746   9.373
98136SOL     OW96304   3.513   3.619   6.683
98136SOL    HW196305   3.441   3.682   6.688
98136SOL    HW296306   3.471   3.535   6.702
98137SOL     OW96307   7.191  14.588   4.221
98137SOL    HW196308   7.162  14.507   4.263
98137SOL    HW296309   7.110  14.636   4.202
98138SOL     OW96310   8.863   5.336   0.908
98138SOL    HW196311   8.884   5.404   0.973
98138SOL    HW296312   8.875   5.380   0.824
98139SOL     OW96313   8.625  13.657   2.981
98139SOL    HW196314   8.581  13.676   2.898
98139SOL    HW296315   8.569  13.696   3.048
98140SOL     OW96316   2.798  13.932  10.243
98140SOL    HW196317   2.877  13.945  10.295
98140SOL    HW296318   2.791  14.011  10.189
98141SOL     OW96319   1.717   4.008   0.799
98141SOL    HW196320   1.728   4.053   0.716
98141SOL    HW296321   1.667   3.930   0.778
98142SOL     OW96322  12.905   8.705  10.533
98142SOL    HW196323  12.839   8.683  10.467
98142SOL    HW296324  12.866   8.677  10.616
98143SOL     OW96325   7.497   2.780   6.764
98143SOL    HW196326   7.430   2.744   6.823
98143SOL    HW296327   7.535   2.853   6.813
98144SOL     OW96328   6.701   9.629  10.507
98144SOL    HW196329   6.634   9.595  10.448
98144SOL    HW296330   6.742   9.551  10.546
98145SOL     OW96331   2.944   3.814  13.044
98145SOL    HW196332   3.013   3.837  12.981
98145SOL    HW296333   2.947   3.884  13.110
98146SOL     OW96334   8.250  11.512   5.763
98146SOL    HW196335   8.264  11.602   5.735
98146SOL    HW296336   8.294  11.459   5.696
98147SOL     OW96337   7.444  12.769  11.277
98147SOL    HW196338   7.503  12.754  11.203
98147SOL    HW296339   7.455  12.862  11.298
98148SOL     OW96340   7.872  14.531   1.132
98148SOL    HW196341   7.959  14.566   1.111
98148SOL    HW296342   7.890  14.464   1.199
98149SOL     OW96343   4.859  10.844   4.128
98149SOL    HW196344   4.853  10.749   4.132
98149SOL    HW296345   4.792  10.875   4.190
98150SOL     OW96346   0.474   4.100   6.562
98150SOL    HW196347   0.463   4.009   6.536
98150SOL    HW296348   0.388   4.126   6.595
98151SOL     OW96349   6.064   1.032  12.767
98151SOL    HW196350   6.089   1.123  12.786
98151SOL    HW296351   5.975   1.040  12.732
98152SOL     OW96352  13.471   3.778   3.850
98152SOL    HW196353  13.527   3.815   3.781
98152SOL    HW296354  13.482   3.684   3.841
98153SOL     OW96355   6.128  11.992  13.272
98153SOL    HW196356   6.212  12.037  13.261
98153SOL    HW296357   6.070  12.034  13.208
98154SOL     OW96358   6.366   8.614   9.030
98154SOL    HW196359   6.390   8.543   8.972
98154SOL    HW296360   6.366   8.692   8.975
98155SOL     OW96361   1.591  14.084   0.530
98155SOL    HW196362   1.541  14.003   0.520
98155SOL    HW296363   1.525  14.150   0.550
98156SOL     OW96364   5.068   2.425   9.011
98156SOL    HW196365   5.036   2.478   8.938
98156SOL    HW296366   5.007   2.351   9.015
98157SOL     OW96367   0.982  10.679   5.380
98157SOL    HW196368   1.066  10.634   5.390
98157SOL    HW296369   0.955  10.658   5.290
98158SOL     OW96370  11.962  14.519   3.992
98158SOL    HW196371  11.899  14.591   3.988
98158SOL    HW296372  11.908  14.440   3.991
98159SOL     OW96373  11.447   2.171   3.108
98159SOL    HW196374  11.404   2.090   3.082
98159SOL    HW296375  11.522   2.144   3.161
98160SOL     OW96376   3.306  12.555  11.299
98160SOL    HW196377   3.271  12.549  11.210
98160SOL    HW296378   3.230  12.544  11.355
98161SOL     OW96379   1.977   2.946   2.454
98161SOL    HW196380   2.042   2.923   2.520
98161SOL    HW296381   1.948   2.862   2.418
98162SOL     OW96382   7.217   6.899   0.809
98162SOL    HW196383   7.211   6.987   0.771
98162SOL    HW296384   7.210   6.840   0.735
98163SOL     OW96385  11.084   4.604   9.728
98163SOL    HW196386  11.016   4.661   9.763
98163SOL    HW296387  11.114   4.553   9.803
98164SOL     OW96388   9.830   2.206   9.725
98164SOL    HW196389   9.765   2.250   9.780
98164SOL    HW296390   9.858   2.272   9.662
98165SOL     OW96391   5.190  12.784  10.743
98165SOL    HW196392   5.225  12.759  10.658
98165SOL    HW296393   5.096  12.795  10.729
98166SOL     OW96394   6.615   2.810   7.560
98166SOL    HW196395   6.525   2.812   7.593
98166SOL    HW296396   6.633   2.901   7.535
98167SOL     OW96397   2.969  14.544   2.734
98167SOL    HW196398   2.990  14.457   2.700
98167SOL    HW296399   3.042  14.599   2.707
98168SOL     OW96400   0.345   7.918   5.748
98168SOL    HW196401   0.256   7.934   5.780
98168SOL    HW296402   0.349   7.963   5.664
98169SOL     OW96403   3.499   3.450   8.425
98169SOL    HW196404   3.424   3.462   8.368
98169SOL    HW296405   3.541   3.370   8.394
98170SOL     OW96406   6.393   2.800   4.576
98170SOL    HW196407   6.323   2.742   4.547
98170SOL    HW296408   6.406   2.860   4.503
98171SOL     OW96409   5.453   5.387   5.332
98171SOL    HW196410   5.436   5.347   5.247
98171SOL    HW296411   5.533   5.344   5.363
98172SOL     OW96412  14.477   4.382   4.408
98172SOL    HW196413  14.436   4.304   4.371
98172SOL    HW296414  14.474   4.447   4.337
98173SOL     OW96415   6.530   0.968  11.523
98173SOL    HW196416   6.446   0.945  11.561
98173SOL    HW296417   6.594   0.951  11.593
98174SOL     OW96418   2.990   7.592   5.040
98174SOL    HW196419   3.067   7.640   5.010
98174SOL    HW296420   2.968   7.535   4.966
98175SOL     OW96421   1.126   8.105  13.838
98175SOL    HW196422   1.049   8.049  13.846
98175SOL    HW296423   1.133   8.123  13.745
98176SOL     OW96424  12.217   0.057   6.556
98176SOL    HW196425  12.252   0.117   6.622
98176SOL    HW296426  12.199  14.854   6.603
98177SOL     OW96427  10.271  11.135  14.345
98177SOL    HW196428  10.220  11.185  14.409
98177SOL    HW296429  10.218  11.137  14.265
98178SOL     OW96430   8.390   4.248   7.379
98178SOL    HW196431   8.425   4.327   7.419
98178SOL    HW296432   8.350   4.278   7.297
98179SOL     OW96433   8.117   9.928   5.143
98179SOL    HW196434   8.054   9.874   5.190
98179SOL    HW296435   8.064   9.985   5.088
98180SOL     OW96436   3.121   0.069  14.508
98180SOL    HW196437   3.031   0.096  14.492
98180SOL    HW296438   3.174   0.142  14.476
98181SOL     OW96439   0.168  14.126  10.486
98181SOL    HW196440   0.102  14.154  10.549
98181SOL    HW296441   0.141  14.039  10.459
98182SOL     OW96442  14.225   8.006   0.159
98182SOL    HW196443  14.227   7.970   0.248
98182SOL    HW296444  14.134   8.033   0.146
98183SOL     OW96445   0.180   8.585  14.542
98183SOL    HW196446   0.264   8.629  14.546
98183SOL    HW296447   0.134   8.612  14.621
98184SOL     OW96448   0.157   6.281   2.023
98184SOL    HW196449   0.173   6.225   1.946
98184SOL    HW296450   0.198   6.235   2.095
98185SOL     OW96451   0.563   5.714  13.266
98185SOL    HW196452   0.644   5.763  13.271
98185SOL    HW296453   0.495   5.780  13.251
98186SOL     OW96454   0.637   3.173   8.478
98186SOL    HW196455   0.714   3.229   8.491
98186SOL    HW296456   0.610   3.189   8.388
98187SOL     OW96457  12.045   0.102   2.725
98187SOL    HW196458  12.108   0.120   2.655
98187SOL    HW296459  12.048   0.008   2.737
98188SOL     OW96460  14.547   6.312   4.237
98188SOL    HW196461  14.460   6.316   4.279
98188SOL    HW296462  14.531   6.268   4.154
98189SOL     OW96463   9.460   1.460   2.998
98189SOL    HW196464   9.372   1.444   2.965
98189SOL    HW296465   9.473   1.554   2.985
98190SOL     OW96466   2.312   7.138   2.082
98190SOL    HW196467   2.360   7.141   2.165
98190SOL    HW296468   2.351   7.206   2.028
98191SOL     OW96469   5.930   6.281  11.063
98191SOL    HW196470   5.955   6.304  10.974
98191SOL    HW296471   5.929   6.186  11.064
98192SOL     OW96472   7.041  12.597   2.525
98192SOL    HW196473   7.072  12.517   2.567
98192SOL    HW296474   7.097  12.606   2.447
98193SOL     OW96475   9.906  11.970   5.435
98193SOL    HW196476   9.839  11.959   5.367
98193SOL    HW296477   9.884  11.904   5.501
98194SOL     OW96478  11.315   7.708   4.654
98194SOL    HW196479  11.220   7.695   4.662
98194SOL    HW296480  11.338   7.670   4.569
98195SOL     OW96481   3.670   3.900   6.873
98195SOL    HW196482   3.626   3.940   6.798
98195SOL    HW296483   3.758   3.881   6.842
98196SOL     OW96484   0.676   5.337   9.482
98196SOL    HW196485   0.709   5.265   9.537
98196SOL    HW296486   0.754   5.375   9.442
98197SOL     OW96487  14.769  11.455  13.030
98197SOL    HW196488  14.792  11.538  13.073
98197SOL    HW296489  14.853  11.411  13.019
98198SOL     OW96490  12.509   9.713   2.726
98198SOL    HW196491  12.481   9.715   2.818
98198SOL    HW296492  12.443   9.765   2.680
98199SOL     OW96493  12.152   8.606   7.307
98199SOL    HW196494  12.116   8.655   7.382
98199SOL    HW296495  12.082   8.608   7.242
98200SOL     OW96496   1.882  12.667   0.586
98200SOL    HW196497   1.955  12.711   0.544
98200SOL    HW296498   1.805  12.717   0.558
98201SOL     OW96499   5.825   0.909   2.444
98201SOL    HW196500   5.730   0.910   2.455
98201SOL    HW296501   5.857   0.848   2.510
98202SOL     OW96502  10.186  10.704   6.865
98202SOL    HW196503  10.222  10.622   6.831
98202SOL    HW296504  10.205  10.701   6.959
98203SOL     OW96505   6.462  13.776   5.759
98203SOL    HW196506   6.541  13.828   5.746
98203SOL    HW296507   6.426  13.763   5.671
98204SOL     OW96508   9.224  12.961   2.073
98204SOL    HW196509   9.179  12.878   2.089
98204SOL    HW296510   9.301  12.937   2.022
98205SOL     OW96511   5.553  12.243   5.606
98205SOL    HW196512   5.605  12.225   5.684
98205SOL    HW296513   5.599  12.197   5.535
98206SOL     OW96514  11.398   9.066   0.054
98206SOL    HW196515  11.483   9.025   0.071
98206SOL    HW296516  11.334   9.007   0.095
98207SOL     OW96517   9.789  10.560  10.002
98207SOL    HW196518   9.787  10.649  10.038
98207SOL    HW296519   9.697  10.536   9.991
98208SOL     OW96520  12.575   0.929   9.516
98208SOL    HW196521  12.550   1.009   9.470
98208SOL    HW296522  12.512   0.863   9.487
98209SOL     OW96523   2.048   8.212   4.579
98209SOL    HW196524   2.113   8.152   4.544
98209SOL    HW296525   2.056   8.203   4.674
98210SOL     OW96526  13.546   5.629   1.625
98210SOL    HW196527  13.610   5.684   1.580
98210SOL    HW296528  13.589   5.543   1.632
98211SOL     OW96529  10.665  10.214   5.269
98211SOL    HW196530  10.644  10.288   5.326
98211SOL    HW296531  10.581  10.187   5.232
98212SOL     OW96532  14.711   7.840   7.509
98212SOL    HW196533  14.804   7.849   7.533
98212SOL    HW296534  14.689   7.923   7.467
98213SOL     OW96535  11.306   9.388   8.427
98213SOL    HW196536  11.373   9.354   8.488
98213SOL    HW296537  11.250   9.442   8.482
98214SOL     OW96538   3.435   7.700  14.365
98214SOL    HW196539   3.355   7.704  14.312
98214SOL    HW296540   3.483   7.779  14.343
98215SOL     OW96541   6.267  10.376   7.739
98215SOL    HW196542   6.297  10.441   7.675
98215SOL    HW296543   6.232  10.305   7.686
98216SOL     OW96544   7.379   9.643   8.848
98216SOL    HW196545   7.377   9.627   8.942
98216SOL    HW296546   7.436   9.574   8.813
98217SOL     OW96547   3.565  10.972   6.058
98217SOL    HW196548   3.475  10.943   6.044
98217SOL    HW296549   3.582  11.034   5.987
98218SOL     OW96550   9.064   9.802   1.078
98218SOL    HW196551   9.099   9.844   0.999
98218SOL    HW296552   9.137   9.750   1.112
98219SOL     OW96553  13.418   1.031   5.139
98219SOL    HW196554  13.396   1.058   5.050
98219SOL    HW296555  13.349   1.070   5.194
98220SOL     OW96556   5.340   7.461   3.364
98220SOL    HW196557   5.378   7.539   3.404
98220SOL    HW296558   5.340   7.395   3.434
98221SOL     OW96559   8.338   1.965   3.472
98221SOL    HW196560   8.256   1.966   3.421
98221SOL    HW296561   8.330   1.890   3.530
98222SOL     OW96562   5.566   5.644   9.816
98222SOL    HW196563   5.543   5.566   9.868
98222SOL    HW296564   5.513   5.714   9.854
98223SOL     OW96565  11.824   6.179   8.493
98223SOL    HW196566  11.830   6.097   8.542
98223SOL    HW296567  11.753   6.163   8.430
98224SOL     OW96568  13.546   4.350   0.069
98224SOL    HW196569  13.504   4.320  14.866
98224SOL    HW296570  13.492   4.422   0.100
98225SOL     OW96571   6.317   3.126  10.558
98225SOL    HW196572   6.287   3.060  10.621
98225SOL    HW296573   6.255   3.198  10.569
98226SOL     OW96574   8.154   6.999   5.839
98226SOL    HW196575   8.101   6.960   5.769
98226SOL    HW296576   8.164   6.929   5.903
98227SOL     OW96577   1.356  11.594   3.264
98227SOL    HW196578   1.372  11.591   3.358
98227SOL    HW296579   1.330  11.504   3.241
98228SOL     OW96580  11.467  10.409  11.433
98228SOL    HW196581  11.375  10.435  11.444
98228SOL    HW296582  11.489  10.364  11.515
98229SOL     OW96583   0.790   5.191   8.001
98229SOL    HW196584   0.726   5.259   8.020
98229SOL    HW296585   0.739   5.110   7.999
98230SOL     OW96586   1.475   8.487  10.412
98230SOL    HW196587   1.423   8.551  10.363
98230SOL    HW296588   1.489   8.416  10.349
98231SOL     OW96589  13.257   3.910  11.428
98231SOL    HW196590  13.264   3.840  11.493
98231SOL    HW296591  13.342   3.911  11.385
98232SOL     OW96592  13.164   3.163   4.593
98232SOL    HW196593  13.192   3.074   4.571
98232SOL    HW296594  13.239   3.202   4.637
98233SOL     OW96595   4.497   6.225  14.125
98233SOL    HW196596   4.484   6.251  14.217
98233SOL    HW296597   4.568   6.280  14.094
98234SOL     OW96598  10.597   0.026  14.692
98234SOL    HW196599  10.596   0.112  14.652
98234SOL    HW296600  10.682  14.866  14.669
98235SOL     OW96601  11.491  13.756   0.435
98235SOL    HW196602  11.490  13.733   0.528
98235SOL    HW296603  11.516  13.675   0.390
98236SOL     OW96604   2.527   3.748  14.351
98236SOL    HW196605   2.583   3.783  14.282
98236SOL    HW296606   2.528   3.816  14.419
98237SOL     OW96607  10.081   8.029  11.859
98237SOL    HW196608   9.999   8.027  11.810
98237SOL    HW296609  10.055   8.008  11.949
98238SOL     OW96610   6.189   5.499   5.789
98238SOL    HW196611   6.195   5.507   5.884
98238SOL    HW296612   6.262   5.441   5.765
98239SOL     OW96613   5.356   4.690  13.408
98239SOL    HW196614   5.395   4.726  13.328
98239SOL    HW296615   5.276   4.741  13.420
98240SOL     OW96616  10.361  11.644   0.993
98240SOL    HW196617  10.345  11.661   1.086
98240SOL    HW296618  10.295  11.579   0.969
98241SOL     OW96619   2.855   4.068   5.341
98241SOL    HW196620   2.926   4.010   5.371
98241SOL    HW296621   2.885   4.156   5.365
98242SOL     OW96622   1.470   3.545   7.424
98242SOL    HW196623   1.391   3.578   7.466
98242SOL    HW296624   1.527   3.517   7.496
98243SOL     OW96625  14.038   3.233   3.586
98243SOL    HW196626  13.957   3.241   3.637
98243SOL    HW296627  14.081   3.318   3.597
98244SOL     OW96628   5.826   7.751   0.610
98244SOL    HW196629   5.762   7.821   0.629
98244SOL    HW296630   5.867   7.734   0.695
98245SOL     OW96631   8.748  11.666   8.230
98245SOL    HW196632   8.824  11.694   8.281
98245SOL    HW296633   8.767  11.695   8.140
98246SOL     OW96634   8.062  13.152   8.121
98246SOL    HW196635   8.020  13.155   8.035
98246SOL    HW296636   8.149  13.190   8.106
98247SOL     OW96637  13.961   7.651   8.042
98247SOL    HW196638  14.032   7.692   7.992
98247SOL    HW296639  14.001   7.573   8.080
98248SOL     OW96640   3.774   6.501   8.908
98248SOL    HW196641   3.714   6.444   8.956
98248SOL    HW296642   3.775   6.466   8.819
98249SOL     OW96643   5.965   2.216   1.738
98249SOL    HW196644   5.880   2.243   1.773
98249SOL    HW296645   6.000   2.156   1.803
98250SOL     OW96646  14.322   1.980   6.582
98250SOL    HW196647  14.395   2.017   6.630
98250SOL    HW296648  14.247   1.988   6.641
98251SOL     OW96649  12.419   4.272   3.234
98251SOL    HW196650  12.469   4.211   3.179
98251SOL    HW296651  12.420   4.232   3.321
98252SOL     OW96652   5.576  10.631  12.630
98252SOL    HW196653   5.635  10.707  12.629
98252SOL    HW296654   5.628  10.559  12.595
98253SOL     OW96655  11.748   5.502  11.681
98253SOL    HW196656  11.779   5.507  11.772
98253SOL    HW296657  11.816   5.454  11.635
98254SOL     OW96658   4.345   3.393   9.547
98254SOL    HW196659   4.402   3.378   9.472
98254SOL    HW296660   4.326   3.487   9.545
98255SOL     OW96661   0.225   5.468  10.784
98255SOL    HW196662   0.241   5.506  10.697
98255SOL    HW296663   0.283   5.516  10.842
98256SOL     OW96664   3.185  11.102   1.613
98256SOL    HW196665   3.278  11.115   1.632
98256SOL    HW296666   3.153  11.047   1.684
98257SOL     OW96667  12.094  11.148  13.584
98257SOL    HW196668  12.038  11.116  13.655
98257SOL    HW296669  12.039  11.145  13.506
98258SOL     OW96670   7.517   9.768   7.490
98258SOL    HW196671   7.507   9.712   7.414
98258SOL    HW296672   7.552   9.711   7.558
98259SOL     OW96673  13.157   3.775   9.965
98259SOL    HW196674  13.229   3.715   9.984
98259SOL    HW296675  13.086   3.748  10.023
98260SOL     OW96676   0.436   1.161   7.224
98260SOL    HW196677   0.448   1.232   7.286
98260SOL    HW296678   0.512   1.165   7.167
98261SOL     OW96679  13.291   7.837   6.273
98261SOL    HW196680  13.296   7.771   6.343
98261SOL    HW296681  13.261   7.916   6.317
98262SOL     OW96682   2.968   8.034   3.535
98262SOL    HW196683   2.899   8.094   3.563
98262SOL    HW296684   2.923   7.951   3.520
98263SOL     OW96685  13.809   6.006   2.773
98263SOL    HW196686  13.777   6.007   2.864
98263SOL    HW296687  13.798   6.096   2.743
98264SOL     OW96688   3.224   9.552  10.719
98264SOL    HW196689   3.286   9.580  10.652
98264SOL    HW296690   3.211   9.459  10.701
98265SOL     OW96691   7.748   8.336   3.754
98265SOL    HW196692   7.778   8.348   3.664
98265SOL    HW296693   7.748   8.241   3.766
98266SOL     OW96694  13.941   2.692   4.763
98266SOL    HW196695  13.917   2.646   4.683
98266SOL    HW296696  13.861   2.738   4.789
98267SOL     OW96697   5.430   5.126   4.030
98267SOL    HW196698   5.350   5.171   4.056
98267SOL    HW296699   5.462   5.084   4.110
98268SOL     OW96700  10.779  11.100   1.610
98268SOL    HW196701  10.846  11.066   1.669
98268SOL    HW296702  10.698  11.095   1.660
98269SOL     OW96703  12.789  11.651   5.123
98269SOL    HW196704  12.878  11.637   5.157
98269SOL    HW296705  12.801  11.706   5.046
98270SOL     OW96706  12.152  11.814   5.511
98270SOL    HW196707  12.132  11.721   5.496
98270SOL    HW296708  12.219  11.834   5.446
98271SOL     OW96709  11.636   4.083   6.154
98271SOL    HW196710  11.553   4.118   6.121
98271SOL    HW296711  11.645   3.998   6.113
98272SOL     OW96712   1.531   9.196   2.058
98272SOL    HW196713   1.570   9.125   2.110
98272SOL    HW296714   1.452   9.157   2.020
98273SOL     OW96715   4.112  13.728   3.241
98273SOL    HW196716   4.059  13.662   3.195
98273SOL    HW296717   4.057  13.756   3.314
98274SOL     OW96718   7.559   0.116  13.626
98274SOL    HW196719   7.576   0.180  13.695
98274SOL    HW296720   7.464   0.117  13.615
98275SOL     OW96721  13.364   4.585   1.809
98275SOL    HW196722  13.299   4.650   1.839
98275SOL    HW296723  13.359   4.515   1.875
98276SOL     OW96724   5.989  10.177   4.551
98276SOL    HW196725   5.969  10.201   4.461
98276SOL    HW296726   6.017  10.259   4.593
98277SOL     OW96727   7.377   4.465   7.168
98277SOL    HW196728   7.338   4.441   7.084
98277SOL    HW296729   7.343   4.552   7.186
98278SOL     OW96730   7.215   8.692   2.149
98278SOL    HW196731   7.282   8.674   2.083
98278SOL    HW296732   7.135   8.652   2.114
98279SOL     OW96733   2.524   5.975  11.734
98279SOL    HW196734   2.614   5.980  11.704
98279SOL    HW296735   2.476   5.935  11.662
98280SOL     OW96736   3.859   5.033   7.287
98280SOL    HW196737   3.804   4.955   7.293
98280SOL    HW296738   3.797   5.104   7.269
98281SOL     OW96739  13.268  13.385  12.138
98281SOL    HW196740  13.358  13.400  12.166
98281SOL    HW296741  13.272  13.306  12.084
98282SOL     OW96742   7.807   7.943   0.834
98282SOL    HW196743   7.842   7.870   0.886
98282SOL    HW296744   7.794   7.906   0.747
98283SOL     OW96745   1.955   7.310  10.753
98283SOL    HW196746   1.882   7.365  10.780
98283SOL    HW296747   1.937   7.225  10.793
98284SOL     OW96748   4.684   4.441   1.036
98284SOL    HW196749   4.773   4.458   1.005
98284SOL    HW296750   4.683   4.347   1.055
98285SOL     OW96751   4.943   3.521   6.145
98285SOL    HW196752   4.899   3.580   6.085
98285SOL    HW296753   4.889   3.442   6.145
98286SOL     OW96754   9.818  10.700   7.071
98286SOL    HW196755   9.892  10.699   7.131
98286SOL    HW296756   9.825  10.618   7.022
98287SOL     OW96757   3.583   5.384   5.210
98287SOL    HW196758   3.655   5.414   5.154
98287SOL    HW296759   3.557   5.462   5.259
98288SOL     OW96760   5.700  14.709   2.546
98288SOL    HW196761   5.730  14.620   2.525
98288SOL    HW296762   5.620  14.720   2.496
98289SOL     OW96763   4.363   0.951  10.898
98289SOL    HW196764   4.439   0.926  10.845
98289SOL    HW296765   4.394   1.024  10.951
98290SOL     OW96766   5.096  10.829   3.451
98290SOL    HW196767   5.108  10.922   3.469
98290SOL    HW296768   5.081  10.825   3.356
98291SOL     OW96769   4.695   3.392  13.747
98291SOL    HW196770   4.641   3.358  13.676
98291SOL    HW296771   4.669   3.340  13.824
98292SOL     OW96772  14.652  11.314   6.416
98292SOL    HW196773  14.697  11.274   6.490
98292SOL    HW296774  14.693  11.400   6.405
98293SOL     OW96775   6.424  10.155   4.592
98293SOL    HW196776   6.391  10.219   4.530
98293SOL    HW296777   6.348  10.102   4.615
98294SOL     OW96778  13.729  13.658  10.243
98294SOL    HW196779  13.644  13.615  10.254
98294SOL    HW296780  13.725  13.696  10.155
98295SOL     OW96781   4.069   1.999  13.375
98295SOL    HW196782   4.017   2.078  13.361
98295SOL    HW296783   4.135   1.999  13.306
98296SOL     OW96784  10.521   9.625  13.964
98296SOL    HW196785  10.430   9.623  13.934
98296SOL    HW296786  10.570   9.582  13.894
98297SOL     OW96787  14.293  13.327   9.921
98297SOL    HW196788  14.229  13.286   9.980
98297SOL    HW296789  14.247  13.403   9.885
98298SOL     OW96790   8.035   4.420   3.809
98298SOL    HW196791   8.006   4.506   3.780
98298SOL    HW296792   8.030   4.365   3.730
98299SOL     OW96793  11.295   4.876   1.007
98299SOL    HW196794  11.222   4.936   1.023
98299SOL    HW296795  11.360   4.930   0.960
98300SOL     OW96796   5.871   2.207  14.095
98300SOL    HW196797   5.787   2.248  14.118
98300SOL    HW296798   5.936   2.276  14.112
98301SOL     OW96799   6.149  11.853   2.262
98301SOL    HW196800   6.083  11.785   2.273
98301SOL    HW296801   6.181  11.870   2.350
98302SOL     OW96802   8.185   4.795   1.874
98302SOL    HW196803   8.196   4.733   1.802
98302SOL    HW296804   8.256   4.858   1.863
98303SOL     OW96805  13.560   1.690   5.090
98303SOL    HW196806  13.579   1.734   5.008
98303SOL    HW296807  13.644   1.687   5.136
98304SOL     OW96808   9.922   5.859   5.074
98304SOL    HW196809   9.851   5.923   5.079
98304SOL    HW296810   9.957   5.854   5.163
98305SOL     OW96811   3.386  13.648   2.892
98305SOL    HW196812   3.389  13.574   2.951
98305SOL    HW296813   3.443  13.623   2.819
98306SOL     OW96814   6.140   1.617   1.809
98306SOL    HW196815   6.198   1.541   1.809
98306SOL    HW296816   6.079   1.601   1.881
98307SOL     OW96817   2.227   4.902  12.484
98307SOL    HW196818   2.148   4.952  12.502
98307SOL    HW296819   2.286   4.965  12.443
98308SOL     OW96820  10.771  10.134  10.388
98308SOL    HW196821  10.689  10.177  10.413
98308SOL    HW296822  10.755  10.041  10.403
98309SOL     OW96823   5.258   5.917   6.408
98309SOL    HW196824   5.169   5.952   6.399
98309SOL    HW296825   5.266   5.894   6.500
98310SOL     OW96826   7.658   2.917   4.063
98310SOL    HW196827   7.741   2.965   4.062
98310SOL    HW296828   7.682   2.828   4.037
98311SOL     OW96829   4.698   2.457  10.290
98311SOL    HW196830   4.753   2.422  10.360
98311SOL    HW296831   4.641   2.385  10.264
98312SOL     OW96832  11.764   7.871   2.031
98312SOL    HW196833  11.718   7.954   2.047
98312SOL    HW296834  11.856   7.896   2.020
98313SOL     OW96835   7.466   1.290   6.057
98313SOL    HW196836   7.384   1.263   6.098
98313SOL    HW296837   7.455   1.270   5.964
98314SOL     OW96838   0.778  14.833   7.289
98314SOL    HW196839   0.701  14.800   7.243
98314SOL    HW296840   0.774  14.789   7.374
98315SOL     OW96841   2.291  12.019  12.489
98315SOL    HW196842   2.331  11.976  12.565
98315SOL    HW296843   2.337  11.982  12.413
98316SOL     OW96844  12.285  10.915   6.297
98316SOL    HW196845  12.211  10.919   6.357
98316SOL    HW296846  12.351  10.863   6.343
98317SOL     OW96847  10.111   0.252   5.910
98317SOL    HW196848  10.164   0.320   5.870
98317SOL    HW296849  10.165   0.218   5.982
98318SOL     OW96850  10.799   7.881  10.987
98318SOL    HW196851  10.705   7.888  10.970
98318SOL    HW296852  10.805   7.849  11.077
98319SOL     OW96853   5.854  12.002   6.715
98319SOL    HW196854   5.804  11.972   6.790
98319SOL    HW296855   5.790  12.046   6.659
98320SOL     OW96856   1.380   4.224   6.611
98320SOL    HW196857   1.330   4.253   6.687
98320SOL    HW296858   1.314   4.209   6.543
98321SOL     OW96859   7.413   4.885   1.523
98321SOL    HW196860   7.426   4.855   1.433
98321SOL    HW296861   7.334   4.839   1.553
98322SOL     OW96862  11.729   2.015   1.437
98322SOL    HW196863  11.644   2.021   1.481
98322SOL    HW296864  11.709   1.976   1.352
98323SOL     OW96865   4.445   8.882   3.655
98323SOL    HW196866   4.499   8.874   3.734
98323SOL    HW296867   4.451   8.974   3.630
98324SOL     OW96868  11.985  11.937   0.908
98324SOL    HW196869  11.990  11.890   0.991
98324SOL    HW296870  11.950  11.872   0.846
98325SOL     OW96871   3.077   0.273   6.028
98325SOL    HW196872   3.009   0.232   5.976
98325SOL    HW296873   3.113   0.202   6.082
98326SOL     OW96874  13.139   6.086  10.138
98326SOL    HW196875  13.189   6.097  10.219
98326SOL    HW296876  13.146   6.171  10.094
98327SOL     OW96877   7.554  11.415  11.280
98327SOL    HW196878   7.476  11.443  11.231
98327SOL    HW296879   7.627  11.435  11.222
98328SOL     OW96880   4.192   9.370   6.689
98328SOL    HW196881   4.139   9.320   6.751
98328SOL    HW296882   4.145   9.363   6.606
98329SOL     OW96883   4.517   2.615  12.639
98329SOL    HW196884   4.474   2.699  12.655
98329SOL    HW296885   4.520   2.572  12.724
98330SOL     OW96886   7.445   9.007   6.680
98330SOL    HW196887   7.423   8.972   6.766
98330SOL    HW296888   7.536   8.980   6.665
98331SOL     OW96889  13.205   1.940   6.473
98331SOL    HW196890  13.150   1.985   6.409
98331SOL    HW296891  13.144   1.908   6.539
98332SOL     OW96892   7.789   4.314   1.401
98332SOL    HW196893   7.811   4.338   1.490
98332SOL    HW296894   7.772   4.219   1.405
98333SOL     OW96895  13.858   3.981   9.775
98333SOL    HW196896  13.887   3.957   9.863
98333SOL    HW296897  13.936   3.976   9.721
98334SOL     OW96898  11.755  13.676  14.181
98334SOL    HW196899  11.787  13.615  14.247
98334SOL    HW296900  11.834  13.715  14.144
98335SOL     OW96901   6.927   3.219   6.093
98335SOL    HW196902   6.907   3.132   6.057
98335SOL    HW296903   7.009   3.244   6.050
98336SOL     OW96904   1.482  14.479   7.271
98336SOL    HW196905   1.445  14.397   7.237
98336SOL    HW296906   1.568  14.485   7.229
98337SOL     OW96907   7.255   5.593   4.235
98337SOL    HW196908   7.192   5.666   4.232
98337SOL    HW296909   7.272   5.573   4.143
98338SOL     OW96910  14.603   2.966   7.459
98338SOL    HW196911  14.632   2.895   7.515
98338SOL    HW296912  14.536   2.927   7.403
98339SOL     OW96913   4.295  12.107   8.197
98339SOL    HW196914   4.263  12.185   8.152
98339SOL    HW296915   4.296  12.131   8.290
98340SOL     OW96916   9.028   1.587   4.190
98340SOL    HW196917   8.996   1.536   4.116
98340SOL    HW296918   9.099   1.534   4.227
98341SOL     OW96919   7.960   0.299   4.982
98341SOL    HW196920   7.946   0.205   4.996
98341SOL    HW296921   7.991   0.331   5.067
98342SOL     OW96922  10.858  13.467   5.380
98342SOL    HW196923  10.923  13.408   5.342
98342SOL    HW296924  10.895  13.491   5.465
98343SOL     OW96925   4.832  14.496  13.159
98343SOL    HW196926   4.832  14.440  13.081
98343SOL    HW296927   4.750  14.545  13.153
98344SOL     OW96928   1.752   6.315  13.148
98344SOL    HW196929   1.658   6.294  13.145
98344SOL    HW296930   1.792   6.238  13.188
98345SOL     OW96931  10.861   0.677   4.954
98345SOL    HW196932  10.887   0.620   4.882
98345SOL    HW296933  10.829   0.617   5.022
98346SOL     OW96934  11.156   9.149  10.335
98346SOL    HW196935  11.191   9.200  10.262
98346SOL    HW296936  11.067   9.182  10.348
98347SOL     OW96937  12.220  11.901   1.370
98347SOL    HW196938  12.181  11.954   1.439
98347SOL    HW296939  12.259  11.827   1.417
98348SOL     OW96940   1.999  10.640   2.496
98348SOL    HW196941   2.065  10.645   2.426
98348SOL    HW296942   1.971  10.731   2.509
98349SOL     OW96943   2.477  11.814   9.397
98349SOL    HW196944   2.406  11.794   9.459
98349SOL    HW296945   2.531  11.878   9.442
98350SOL     OW96946   4.430   7.214   3.683
98350SOL    HW196947   4.518   7.222   3.719
98350SOL    HW296948   4.430   7.130   3.638
98351SOL     OW96949   9.670   6.533   2.910
98351SOL    HW196950   9.755   6.563   2.942
98351SOL    HW296951   9.637   6.476   2.979
98352SOL     OW96952   9.345   5.725   7.937
98352SOL    HW196953   9.269   5.754   7.987
98352SOL    HW296954   9.408   5.796   7.947
98353SOL     OW96955   0.568  13.112   4.568
98353SOL    HW196956   0.627  13.080   4.500
98353SOL    HW296957   0.606  13.080   4.650
98354SOL     OW96958  11.007   7.202  13.430
98354SOL    HW196959  11.038   7.264  13.496
98354SOL    HW296960  11.018   7.248  13.347
98355SOL     OW96961   9.640   5.165   6.339
98355SOL    HW196962   9.557   5.163   6.387
98355SOL    HW296963   9.614   5.164   6.247
98356SOL     OW96964   5.132   4.554  12.083
98356SOL    HW196965   5.047   4.590  12.056
98356SOL    HW296966   5.112   4.465  12.111
98357SOL     OW96967   6.961   4.586   5.674
98357SOL    HW196968   6.923   4.673   5.683
98357SOL    HW296969   7.053   4.598   5.698
98358SOL     OW96970   1.016   2.640   5.810
98358SOL    HW196971   0.940   2.603   5.766
98358SOL    HW296972   1.071   2.673   5.739
98359SOL     OW96973  14.373  10.451  12.644
98359SOL    HW196974  14.368  10.380  12.708
98359SOL    HW296975  14.374  10.407  12.559
98360SOL     OW96976   7.413   5.011   7.077
98360SOL    HW196977   7.327   5.043   7.049
98360SOL    HW296978   7.458   4.989   6.995
98361SOL     OW96979  12.594   1.803  14.484
98361SOL    HW196980  12.525   1.858  14.448
98361SOL    HW296981  12.549   1.725  14.517
98362SOL     OW96982   2.476   8.145  13.354
98362SOL    HW196983   2.460   8.053  13.332
98362SOL    HW296984   2.428   8.159  13.436
98363SOL     OW96985   5.942  14.829   6.101
98363SOL    HW196986   5.913  14.753   6.152
98363SOL    HW296987   5.944  14.798   6.010
98364SOL     OW96988   2.379   5.735   9.240
98364SOL    HW196989   2.440   5.741   9.314
98364SOL    HW296990   2.364   5.641   9.229
98365SOL     OW96991   6.203   2.218   1.474
98365SOL    HW196992   6.234   2.176   1.554
98365SOL    HW296993   6.281   2.258   1.436
98366SOL     OW96994  12.168   3.981  12.780
98366SOL    HW196995  12.094   3.944  12.829
98366SOL    HW296996  12.153   4.076  12.782
98367SOL     OW96997   4.015   4.221   5.445
98367SOL    HW196998   3.924   4.193   5.443
98367SOL    HW296999   4.023   4.283   5.373
98368SOL     OW97000  11.326  11.022   1.966
98368SOL    HW197001  11.261  11.034   1.897
98368SOL    HW297002  11.306  11.089   2.030
98369SOL     OW97003  10.194   8.669   3.190
98369SOL    HW197004  10.232   8.736   3.133
98369SOL    HW297005  10.181   8.594   3.132
98370SOL     OW97006   6.396   6.522   9.448
98370SOL    HW197007   6.376   6.610   9.416
98370SOL    HW297008   6.349   6.464   9.389
98371SOL     OW97009   3.905   9.693   1.932
98371SOL    HW197010   3.931   9.645   1.853
98371SOL    HW297011   3.928   9.784   1.912
98372SOL     OW97012   6.942  13.908  10.938
98372SOL    HW197013   7.012  13.938  10.995
98372SOL    HW297014   6.865  13.957  10.967
98373SOL     OW97015   4.685   8.864  11.557
98373SOL    HW197016   4.699   8.829  11.469
98373SOL    HW297017   4.741   8.941  11.561
98374SOL     OW97018   2.688   6.036   6.488
98374SOL    HW197019   2.733   5.969   6.539
98374SOL    HW297020   2.649   6.094   6.553
98375SOL     OW97021   6.710   8.123   5.959
98375SOL    HW197022   6.771   8.192   5.986
98375SOL    HW297023   6.728   8.051   6.019
98376SOL     OW97024   4.941   7.866   7.062
98376SOL    HW197025   4.938   7.784   7.012
98376SOL    HW297026   4.970   7.839   7.149
98377SOL     OW97027   1.608   9.299  10.471
98377SOL    HW197028   1.554   9.374  10.498
98377SOL    HW297029   1.619   9.310  10.377
98378SOL     OW97030   3.522   6.792  11.434
98378SOL    HW197031   3.516   6.883  11.465
98378SOL    HW297032   3.444   6.780  11.379
98379SOL     OW97033   7.190  11.674   6.854
98379SOL    HW197034   7.240  11.733   6.912
98379SOL    HW297035   7.217  11.700   6.766
98380SOL     OW97036   9.166   0.315   2.608
98380SOL    HW197037   9.120   0.368   2.674
98380SOL    HW297038   9.131   0.345   2.524
98381SOL     OW97039   9.272   0.465  14.162
98381SOL    HW197040   9.226   0.416  14.231
98381SOL    HW297041   9.312   0.539  14.208
98382SOL     OW97042   9.481   5.977   7.627
98382SOL    HW197043   9.411   5.913   7.611
98382SOL    HW297044   9.489   6.024   7.544
98383SOL     OW97045   6.885  13.786   1.111
98383SOL    HW197046   6.871  13.865   1.059
98383SOL    HW297047   6.939  13.730   1.056
98384SOL     OW97048   8.199   1.620   7.810
98384SOL    HW197049   8.108   1.630   7.839
98384SOL    HW297050   8.245   1.694   7.848
98385SOL     OW97051   3.183   6.400   4.593
98385SOL    HW197052   3.116   6.416   4.527
98385SOL    HW297053   3.134   6.396   4.676
98386SOL     OW97054  12.237   6.336   1.791
98386SOL    HW197055  12.148   6.307   1.812
98386SOL    HW297056  12.228   6.384   1.709
98387SOL     OW97057   2.783   0.268   4.613
98387SOL    HW197058   2.740   0.210   4.550
98387SOL    HW297059   2.726   0.264   4.690
98388SOL     OW97060   5.416  11.052  13.597
98388SOL    HW197061   5.473  11.115  13.552
98388SOL    HW297062   5.333  11.057  13.550
98389SOL     OW97063   4.721  12.255   1.457
98389SOL    HW197064   4.752  12.170   1.424
98389SOL    HW297065   4.631  12.238   1.485
98390SOL     OW97066   4.361  10.502   2.592
98390SOL    HW197067   4.397  10.586   2.618
98390SOL    HW297068   4.375  10.445   2.668
98391SOL     OW97069   1.365   9.535  14.121
98391SOL    HW197070   1.413   9.498  14.196
98391SOL    HW297071   1.309   9.464  14.090
98392SOL     OW97072   8.913   7.696  10.874
98392SOL    HW197073   8.882   7.606  10.885
98392SOL    HW297074   8.832   7.747  10.862
98393SOL     OW97075   7.917   6.066   9.451
98393SOL    HW197076   7.944   6.098   9.365
98393SOL    HW297077   7.894   6.144   9.500
98394SOL     OW97078  14.503   1.787   2.533
98394SOL    HW197079  14.426   1.843   2.538
98394SOL    HW297080  14.575   1.847   2.514
98395SOL     OW97081  11.359   9.570   0.331
98395SOL    HW197082  11.389   9.504   0.268
98395SOL    HW297083  11.431   9.578   0.393
98396SOL     OW97084  13.730   0.816   9.132
98396SOL    HW197085  13.643   0.817   9.092
98396SOL    HW297086  13.729   0.888   9.195
98397SOL     OW97087  11.310   4.961   9.452
98397SOL    HW197088  11.253   4.984   9.379
98397SOL    HW297089  11.250   4.925   9.518
98398SOL     OW97090  10.847   7.319   5.818
98398SOL    HW197091  10.887   7.352   5.738
98398SOL    HW297092  10.834   7.397   5.872
98399SOL     OW97093   5.375   5.994   1.034
98399SOL    HW197094   5.309   6.043   1.084
98399SOL    HW297095   5.386   6.045   0.954
98400SOL     OW97096   9.008   2.418  10.997
98400SOL    HW197097   9.062   2.496  10.987
98400SOL    HW297098   9.070   2.346  11.000
98401SOL     OW97099   8.791  10.362  13.307
98401SOL    HW197100   8.884  10.364  13.330
98401SOL    HW297101   8.790  10.346  13.213
98402SOL     OW97102  12.367   2.073   9.941
98402SOL    HW197103  12.274   2.079   9.919
98402SOL    HW297104  12.393   2.163   9.963
98403SOL     OW97105   2.231   0.247   6.630
98403SOL    HW197106   2.243   0.220   6.721
98403SOL    HW297107   2.312   0.292   6.608
98404SOL     OW97108  13.122  12.532  11.042
98404SOL    HW197109  13.113  12.505  11.133
98404SOL    HW297110  13.057  12.479  10.995
98405SOL     OW97111   4.872   5.167   6.377
98405SOL    HW197112   4.828   5.102   6.323
98405SOL    HW297113   4.955   5.183   6.332
98406SOL     OW97114  10.916  14.543  13.440
98406SOL    HW197115  10.906  14.578  13.528
98406SOL    HW297116  10.837  14.491  13.426
98407SOL     OW97117  10.746  12.702   8.949
98407SOL    HW197118  10.665  12.664   8.981
98407SOL    HW297119  10.764  12.656   8.867
98408SOL     OW97120   4.867   9.039   6.810
98408SOL    HW197121   4.795   9.093   6.777
98408SOL    HW297122   4.875   9.064   6.902
98409SOL     OW97123   8.035   1.730  11.422
98409SOL    HW197124   7.957   1.682  11.448
98409SOL    HW297125   8.003   1.800  11.365
98410SOL     OW97126   0.587  13.498  14.199
98410SOL    HW197127   0.649  13.463  14.135
98410SOL    HW297128   0.508  13.446  14.187
98411SOL     OW97129   7.263  11.392   6.174
98411SOL    HW197130   7.277  11.302   6.146
98411SOL    HW297131   7.341  11.439   6.144
98412SOL     OW97132   6.289   8.477   2.668
98412SOL    HW197133   6.317   8.553   2.618
98412SOL    HW297134   6.277   8.408   2.603
98413SOL     OW97135  10.665   7.885   7.462
98413SOL    HW197136  10.607   7.809   7.472
98413SOL    HW297137  10.675   7.920   7.551
98414SOL     OW97138   1.575  10.100   9.679
98414SOL    HW197139   1.489  10.060   9.666
98414SOL    HW297140   1.571  10.182   9.629
98415SOL     OW97141  14.659  12.180   6.532
98415SOL    HW197142  14.694  12.091   6.524
98415SOL    HW297143  14.648  12.209   6.441
98416SOL     OW97144   4.230   2.850  14.856
98416SOL    HW197145   4.154   2.908  14.853
98416SOL    HW297146   4.281   2.874  14.778
98417SOL     OW97147  13.076   5.270  11.204
98417SOL    HW197148  13.125   5.347  11.176
98417SOL    HW297149  13.123   5.196  11.164
98418SOL     OW97150  10.464  11.223   5.513
98418SOL    HW197151  10.410  11.145   5.527
98418SOL    HW297152  10.527  11.196   5.446
98419SOL     OW97153   3.587   0.872  11.657
98419SOL    HW197154   3.632   0.926  11.721
98419SOL    HW297155   3.653   0.854  11.589
98420SOL     OW97156  11.261   9.939  12.039
98420SOL    HW197157  11.326   9.875  12.070
98420SOL    HW297158  11.199   9.887  11.989
98421SOL     OW97159   4.633   6.525   6.980
98421SOL    HW197160   4.673   6.443   6.952
98421SOL    HW297161   4.703   6.571   7.028
98422SOL     OW97162   5.316  13.638   7.305
98422SOL    HW197163   5.262  13.646   7.226
98422SOL    HW297164   5.382  13.706   7.296
98423SOL     OW97165  13.678   7.759  10.241
98423SOL    HW197166  13.582   7.767  10.243
98423SOL    HW297167  13.696   7.714  10.159
98424SOL     OW97168   8.699   8.621  11.123
98424SOL    HW197169   8.718   8.531  11.149
98424SOL    HW297170   8.744   8.631  11.039
98425SOL     OW97171   5.089   3.770   3.116
98425SOL    HW197172   5.069   3.676   3.117
98425SOL    HW297173   5.082   3.797   3.207
98426SOL     OW97174   5.682   4.675   9.706
98426SOL    HW197175   5.709   4.586   9.685
98426SOL    HW297176   5.760   4.715   9.745
98427SOL     OW97177  11.281  12.671   6.372
98427SOL    HW197178  11.229  12.724   6.311
98427SOL    HW297179  11.324  12.606   6.317
98428SOL     OW97180   2.102   6.189  13.289
98428SOL    HW197181   2.111   6.282  13.271
98428SOL    HW297182   2.140   6.146  13.212
98429SOL     OW97183   0.803   2.126  13.782
98429SOL    HW197184   0.719   2.171  13.776
98429SOL    HW297185   0.794   2.049  13.725
98430SOL     OW97186   3.694   9.469   6.064
98430SOL    HW197187   3.742   9.459   5.982
98430SOL    HW297188   3.762   9.471   6.132
98431SOL     OW97189  11.676   4.782  13.045
98431SOL    HW197190  11.584   4.765  13.021
98431SOL    HW297191  11.671   4.825  13.130
98432SOL     OW97192   0.509  11.032   2.388
98432SOL    HW197193   0.533  11.124   2.379
98432SOL    HW297194   0.477  11.024   2.478
98433SOL     OW97195   3.132   7.130   2.287
98433SOL    HW197196   3.037   7.115   2.286
98433SOL    HW297197   3.169   7.048   2.256
98434SOL     OW97198  11.583   8.688   4.460
98434SOL    HW197199  11.614   8.748   4.528
98434SOL    HW297200  11.513   8.638   4.502
98435SOL     OW97201   6.974  11.330   8.885
98435SOL    HW197202   6.992  11.390   8.812
98435SOL    HW297203   6.879  11.334   8.895
98436SOL     OW97204   2.636   2.716   2.081
98436SOL    HW197205   2.699   2.651   2.050
98436SOL    HW297206   2.588   2.670   2.151
98437SOL     OW97207  12.351  12.273  11.818
98437SOL    HW197208  12.434  12.319  11.826
98437SOL    HW297209  12.358  12.225  11.736
98438SOL     OW97210  10.629  14.020   2.757
98438SOL    HW197211  10.659  14.102   2.719
98438SOL    HW297212  10.539  14.009   2.724
98439SOL     OW97213   8.834   9.739   5.980
98439SOL    HW197214   8.862   9.829   5.993
98439SOL    HW297215   8.761   9.744   5.919
98440SOL     OW97216  14.806  11.067   9.399
98440SOL    HW197217  14.783  10.993   9.343
98440SOL    HW297218  14.775  11.144   9.352
98441SOL     OW97219  10.103   0.775   6.241
98441SOL    HW197220  10.080   0.786   6.149
98441SOL    HW297221  10.156   0.852   6.262
98442SOL     OW97222  11.637   8.108   8.355
98442SOL    HW197223  11.645   8.121   8.260
98442SOL    HW297224  11.575   8.036   8.364
98443SOL     OW97225  11.753   2.606   8.624
98443SOL    HW197226  11.709   2.594   8.540
98443SOL    HW297227  11.683   2.605   8.689
98444SOL     OW97228   7.074   2.465   1.673
98444SOL    HW197229   7.140   2.437   1.609
98444SOL    HW297230   6.991   2.462   1.625
98445SOL     OW97231  12.743  14.329  12.436
98445SOL    HW197232  12.826  14.329  12.388
98445SOL    HW297233  12.691  14.398  12.394
98446SOL     OW97234  14.807   4.210  10.066
98446SOL    HW197235  14.795   4.117  10.051
98446SOL    HW297236  14.745   4.253  10.007
98447SOL     OW97237   8.476  14.601  10.157
98447SOL    HW197238   8.513  14.618  10.243
98447SOL    HW297239   8.443  14.685  10.127
98448SOL     OW97240  12.234   1.522   1.836
98448SOL    HW197241  12.286   1.586   1.787
98448SOL    HW297242  12.145   1.558   1.836
98449SOL     OW97243  10.596   1.582  12.565
98449SOL    HW197244  10.684   1.599  12.598
98449SOL    HW297245  10.594   1.487  12.548
98450SOL     OW97246  13.381   4.240  12.363
98450SOL    HW197247  13.460   4.265  12.412
98450SOL    HW297248  13.345   4.323  12.332
98451SOL     OW97249  11.482   5.475   8.907
98451SOL    HW197250  11.573   5.502   8.903
98451SOL    HW297251  11.483   5.382   8.884
98452SOL     OW97252   5.276  11.044  14.360
98452SOL    HW197253   5.192  10.999  14.365
98452SOL    HW297254   5.301  11.059  14.451
98453SOL     OW97255  13.005   9.141  12.222
98453SOL    HW197256  13.094   9.171  12.206
98453SOL    HW297257  12.995   9.065  12.165
98454SOL     OW97258   8.690   6.957   9.441
98454SOL    HW197259   8.703   6.976   9.348
98454SOL    HW297260   8.595   6.952   9.452
98455SOL     OW97261   3.922   8.746   0.382
98455SOL    HW197262   3.925   8.660   0.424
98455SOL    HW297263   3.866   8.734   0.306
98456SOL     OW97264   4.977  13.808  11.942
98456SOL    HW197265   5.034  13.781  11.870
98456SOL    HW297266   5.024  13.782  12.021
98457SOL     OW97267  10.953  11.476   7.659
98457SOL    HW197268  10.900  11.441   7.730
98457SOL    HW297269  10.914  11.440   7.579
98458SOL     OW97270   0.544  11.276  10.357
98458SOL    HW197271   0.545  11.269  10.453
98458SOL    HW297272   0.498  11.358  10.340
98459SOL     OW97273   0.525   0.093  11.654
98459SOL    HW197274   0.588   0.107  11.583
98459SOL    HW297275   0.441   0.122  11.618
98460SOL     OW97276  12.620   1.156   0.282
98460SOL    HW197277  12.637   1.175   0.190
98460SOL    HW297278  12.707   1.148   0.322
98461SOL     OW97279  12.224   0.026   1.808
98461SOL    HW197280  12.173   0.042   1.888
98461SOL    HW297281  12.277   0.105   1.798
98462SOL     OW97282   9.727   0.023   4.560
98462SOL    HW197283   9.716   0.023   4.655
98462SOL    HW297284   9.683  14.820   4.531
98463SOL     OW97285  12.062  13.428   0.482
98463SOL    HW197286  12.056  13.387   0.395
98463SOL    HW297287  11.973  13.460   0.499
98464SOL     OW97288   8.015  14.729  10.203
98464SOL    HW197289   8.041  14.803  10.148
98464SOL    HW297290   8.097  14.698  10.241
98465SOL     OW97291   2.552   2.517   4.855
98465SOL    HW197292   2.630   2.537   4.907
98465SOL    HW297293   2.568   2.429   4.820
98466SOL     OW97294   1.795   0.316  10.092
98466SOL    HW197295   1.765   0.383  10.154
98466SOL    HW297296   1.863   0.359  10.041
98467SOL     OW97297   0.472   5.525   4.411
98467SOL    HW197298   0.409   5.456   4.389
98467SOL    HW297299   0.557   5.481   4.410
98468SOL     OW97300  12.683   5.017  12.377
98468SOL    HW197301  12.692   5.052  12.288
98468SOL    HW297302  12.750   5.063  12.427
98469SOL     OW97303  14.743   9.266   4.418
98469SOL    HW197304  14.820   9.277   4.363
98469SOL    HW297305  14.754   9.328   4.490
98470SOL     OW97306   9.419   0.725  13.015
98470SOL    HW197307   9.334   0.690  12.989
98470SOL    HW297308   9.434   0.799  12.956
98471SOL     OW97309   2.388  11.422   5.651
98471SOL    HW197310   2.378  11.416   5.556
98471SOL    HW297311   2.393  11.331   5.681
98472SOL     OW97312   2.746  10.937  12.417
98472SOL    HW197313   2.683  10.896  12.357
98472SOL    HW297314   2.811  10.977  12.360
98473SOL     OW97315   5.810  10.520  12.764
98473SOL    HW197316   5.746  10.562  12.822
98473SOL    HW297317   5.893  10.562  12.787
98474SOL     OW97318   3.438  10.447  14.097
98474SOL    HW197319   3.371  10.436  14.164
98474SOL    HW297320   3.521  10.448  14.145
98475SOL     OW97321  13.655  11.447   7.199
98475SOL    HW197322  13.689  11.451   7.109
98475SOL    HW297323  13.658  11.355   7.222
98476SOL     OW97324  12.534  13.100   1.256
98476SOL    HW197325  12.463  13.046   1.290
98476SOL    HW297326  12.574  13.047   1.188
98477SOL     OW97327  10.421  14.743  13.621
98477SOL    HW197328  10.369  14.818  13.592
98477SOL    HW297329  10.501  14.781  13.657
98478SOL     OW97330   0.833   8.715  12.294
98478SOL    HW197331   0.916   8.679  12.264
98478SOL    HW297332   0.773   8.640  12.298
98479SOL     OW97333   2.102   0.620   1.532
98479SOL    HW197334   2.010   0.611   1.507
98479SOL    HW297335   2.149   0.625   1.449
98480SOL     OW97336   3.858  10.282   9.546
98480SOL    HW197337   3.793  10.256   9.481
98480SOL    HW297338   3.834  10.372   9.570
98481SOL     OW97339   5.673   4.402   0.843
98481SOL    HW197340   5.666   4.448   0.926
98481SOL    HW297341   5.725   4.324   0.862
98482SOL     OW97342   9.371   8.262   6.986
98482SOL    HW197343   9.353   8.182   6.937
98482SOL    HW297344   9.467   8.271   6.982
98483SOL     OW97345  10.770   7.440  11.697
98483SOL    HW197346  10.851   7.399  11.668
98483SOL    HW297347  10.793   7.485  11.778
98484SOL     OW97348   0.906   0.429  13.570
98484SOL    HW197349   0.987   0.378  13.574
98484SOL    HW297350   0.861   0.410  13.653
98485SOL     OW97351   3.275   8.900   2.611
98485SOL    HW197352   3.204   8.843   2.581
98485SOL    HW297353   3.234   8.957   2.677
98486SOL     OW97354   6.412  14.325  12.718
98486SOL    HW197355   6.469  14.344  12.793
98486SOL    HW297356   6.399  14.231  12.721
98487SOL     OW97357  12.894   3.517   9.949
98487SOL    HW197358  12.906   3.423   9.933
98487SOL    HW297359  12.887   3.525  10.044
98488SOL     OW97360  11.417   4.975   3.975
98488SOL    HW197361  11.324   4.982   3.996
98488SOL    HW297362  11.421   4.990   3.881
98489SOL     OW97363   4.304   2.203   7.918
98489SOL    HW197364   4.298   2.273   7.984
98489SOL    HW297365   4.397   2.195   7.900
98490SOL     OW97366   2.753   6.318   7.252
98490SOL    HW197367   2.792   6.398   7.217
98490SOL    HW297368   2.794   6.307   7.338
98491SOL     OW97369   2.321   4.328   1.749
98491SOL    HW197370   2.249   4.277   1.712
98491SOL    HW297371   2.387   4.330   1.680
98492SOL     OW97372  11.438   4.550   9.623
98492SOL    HW197373  11.455   4.464   9.585
98492SOL    HW297374  11.447   4.537   9.717
98493SOL     OW97375  10.752  12.805   5.165
98493SOL    HW197376  10.769  12.894   5.197
98493SOL    HW297377  10.721  12.816   5.075
98494SOL     OW97378   9.536   0.008  12.590
98494SOL    HW197379   9.487  14.809  12.621
98494SOL    HW297380   9.600   0.025  12.659
98495SOL     OW97381  14.569  12.540   3.512
98495SOL    HW197382  14.568  12.525   3.606
98495SOL    HW297383  14.514  12.471   3.476
98496SOL     OW97384   0.992   2.311  10.864
98496SOL    HW197385   0.993   2.282  10.955
98496SOL    HW297386   1.079   2.289  10.831
98497SOL     OW97387   5.013   1.466   0.471
98497SOL    HW197388   5.015   1.545   0.416
98497SOL    HW297389   4.953   1.488   0.542
98498SOL     OW97390   3.140   9.514  11.633
98498SOL    HW197391   3.093   9.515  11.549
98498SOL    HW297392   3.230   9.490  11.608
98499SOL     OW97393   6.494   8.577  10.548
98499SOL    HW197394   6.549   8.518  10.599
98499SOL    HW297395   6.457   8.637  10.613
98500SOL     OW97396   9.540   8.280  11.759
98500SOL    HW197397   9.474   8.274  11.828
98500SOL    HW297398   9.503   8.232  11.685
98501SOL     OW97399   8.540  10.506  14.725
98501SOL    HW197400   8.449  10.490  14.748
98501SOL    HW297401   8.589  10.437  14.770
98502SOL     OW97402   5.581  13.785   5.338
98502SOL    HW197403   5.657  13.728   5.326
98502SOL    HW297404   5.584  13.808   5.431
98503SOL     OW97405  11.160   2.696   1.011
98503SOL    HW197406  11.110   2.686   0.930
98503SOL    HW297407  11.247   2.725   0.982
98504SOL     OW97408   2.294   4.407  10.410
98504SOL    HW197409   2.204   4.440  10.405
98504SOL    HW297410   2.328   4.419  10.321
98505SOL     OW97411   2.776   0.416  10.771
98505SOL    HW197412   2.684   0.433  10.791
98505SOL    HW297413   2.821   0.433  10.854
98506SOL     OW97414   8.426   3.392   8.399
98506SOL    HW197415   8.454   3.484   8.404
98506SOL    HW297416   8.500   3.347   8.358
98507SOL     OW97417   4.631  11.045  14.146
98507SOL    HW197418   4.609  11.111  14.080
98507SOL    HW297419   4.546  11.006  14.170
98508SOL     OW97420   9.363  10.080  14.096
98508SOL    HW197421   9.340  10.038  14.013
98508SOL    HW297422   9.432  10.026  14.133
98509SOL     OW97423   6.001   1.735  12.251
98509SOL    HW197424   6.093   1.709  12.262
98509SOL    HW297425   6.006   1.824  12.215
98510SOL     OW97426   5.293   8.291   4.752
98510SOL    HW197427   5.305   8.365   4.811
98510SOL    HW297428   5.347   8.311   4.676
98511SOL     OW97429   7.788   3.213   3.467
98511SOL    HW197430   7.765   3.154   3.395
98511SOL    HW297431   7.739   3.293   3.449
98512SOL     OW97432   1.891   3.418   5.350
98512SOL    HW197433   1.821   3.390   5.409
98512SOL    HW297434   1.948   3.341   5.343
98513SOL     OW97435   7.193  10.049   4.183
98513SOL    HW197436   7.230  10.131   4.150
98513SOL    HW297437   7.240  10.032   4.264
98514SOL     OW97438   4.435   4.504   4.385
98514SOL    HW197439   4.373   4.576   4.376
98514SOL    HW297440   4.388   4.427   4.353
98515SOL     OW97441   5.819  12.316   6.670
98515SOL    HW197442   5.781  12.287   6.587
98515SOL    HW297443   5.749  12.363   6.714
98516SOL     OW97444  12.578   0.134   9.150
98516SOL    HW197445  12.586   0.039   9.144
98516SOL    HW297446  12.536   0.150   9.234
98517SOL     OW97447   3.279   0.481  14.066
98517SOL    HW197448   3.289   0.390  14.094
98517SOL    HW297449   3.327   0.531  14.131
98518SOL     OW97450   0.690   3.127  14.485
98518SOL    HW197451   0.723   3.172  14.563
98518SOL    HW297452   0.612   3.081  14.516
98519SOL     OW97453   1.701  12.766   3.168
98519SOL    HW197454   1.646  12.689   3.154
98519SOL    HW297455   1.778  12.732   3.214
98520SOL     OW97456   3.529  12.567  14.100
98520SOL    HW197457   3.488  12.623  14.034
98520SOL    HW297458   3.620  12.598  14.105
98521SOL     OW97459  12.522   5.558   6.625
98521SOL    HW197460  12.517   5.469   6.590
98521SOL    HW297461  12.433   5.577   6.653
98522SOL     OW97462   7.792   0.962   5.561
98522SOL    HW197463   7.736   1.029   5.523
98522SOL    HW297464   7.881   0.991   5.541
98523SOL     OW97465   5.216  14.653   1.306
98523SOL    HW197466   5.236  14.569   1.266
98523SOL    HW297467   5.291  14.671   1.363
98524SOL     OW97468   3.428   6.244   3.771
98524SOL    HW197469   3.389   6.183   3.709
98524SOL    HW297470   3.435   6.194   3.853
98525SOL     OW97471  11.295   2.167   5.579
98525SOL    HW197472  11.307   2.160   5.485
98525SOL    HW297473  11.332   2.253   5.602
98526SOL     OW97474   2.479   5.818   3.304
98526SOL    HW197475   2.550   5.796   3.243
98526SOL    HW297476   2.400   5.814   3.251
98527SOL     OW97477  13.927   3.204  11.213
98527SOL    HW197478  13.904   3.111  11.206
98527SOL    HW297479  13.976   3.222  11.133
98528SOL     OW97480   6.736   8.644   5.106
98528SOL    HW197481   6.739   8.702   5.182
98528SOL    HW297482   6.659   8.672   5.058
98529SOL     OW97483  11.683  13.137  14.701
98529SOL    HW197484  11.725  13.072  14.644
98529SOL    HW297485  11.629  13.189  14.642
98530SOL     OW97486   2.767  11.267  14.490
98530SOL    HW197487   2.748  11.226  14.405
98530SOL    HW297488   2.835  11.211  14.528
98531SOL     OW97489   4.579   3.714   6.849
98531SOL    HW197490   4.637   3.758   6.911
98531SOL    HW297491   4.609   3.741   6.763
98532SOL     OW97492   1.592   6.470  12.783
98532SOL    HW197493   1.670   6.456  12.729
98532SOL    HW297494   1.625   6.473  12.873
98533SOL     OW97495   0.634  10.217  10.712
98533SOL    HW197496   0.552  10.267  10.706
98533SOL    HW297497   0.615  10.134  10.668
98534SOL     OW97498   2.997  14.542  10.275
98534SOL    HW197499   2.994  14.611  10.209
98534SOL    HW297500   3.005  14.589  10.358
98535SOL     OW97501   9.464   4.092   7.411
98535SOL    HW197502   9.413   4.122   7.486
98535SOL    HW297503   9.449   4.159   7.344
98536SOL     OW97504   2.979  13.174   2.125
98536SOL    HW197505   2.904  13.115   2.113
98536SOL    HW297506   3.027  13.137   2.199
98537SOL     OW97507   2.960  11.172   0.123
98537SOL    HW197508   3.027  11.115   0.083
98537SOL    HW297509   2.900  11.192   0.051
98538SOL     OW97510   3.998  12.731  10.899
98538SOL    HW197511   4.066  12.767  10.956
98538SOL    HW297512   4.032  12.645  10.872
98539SOL     OW97513  13.901  11.986   4.102
98539SOL    HW197514  13.980  11.955   4.145
98539SOL    HW297515  13.844  11.909   4.097
98540SOL     OW97516   2.925   7.064  12.363
98540SOL    HW197517   2.957   7.025  12.444
98540SOL    HW297518   2.859   7.002  12.331
98541SOL     OW97519   1.842  10.726  10.893
98541SOL    HW197520   1.757  10.733  10.937
98541SOL    HW297521   1.845  10.802  10.835
98542SOL     OW97522   5.754   8.358  11.162
98542SOL    HW197523   5.789   8.271  11.144
98542SOL    HW297524   5.800   8.415  11.101
98543SOL     OW97525  14.629   6.372   1.478
98543SOL    HW197526  14.562   6.342   1.417
98543SOL    HW297527  14.622   6.467   1.478
98544SOL     OW97528  14.595  11.224   4.085
98544SOL    HW197529  14.683  11.217   4.123
98544SOL    HW297530  14.542  11.164   4.137
98545SOL     OW97531   4.927   0.357   0.268
98545SOL    HW197532   4.937   0.448   0.243
98545SOL    HW297533   5.016   0.322   0.268
98546SOL     OW97534   9.705   6.593  13.273
98546SOL    HW197535   9.692   6.500  13.258
98546SOL    HW297536   9.798   6.601  13.296
98547SOL     OW97537  12.940   5.697  12.895
98547SOL    HW197538  12.951   5.710  12.800
98547SOL    HW297539  12.846   5.683  12.905
98548SOL     OW97540   1.302   7.402   3.158
98548SOL    HW197541   1.310   7.310   3.185
98548SOL    HW297542   1.363   7.410   3.084
98549SOL     OW97543   0.079  14.018   4.887
98549SOL    HW197544  14.877  14.032   4.939
98549SOL    HW297545   0.128  14.100   4.897
98550SOL     OW97546  12.614  12.309   4.678
98550SOL    HW197547  12.583  12.293   4.767
98550SOL    HW297548  12.557  12.255   4.623
98551SOL     OW97549  11.257  12.900  11.885
98551SOL    HW197550  11.274  12.869  11.796
98551SOL    HW297551  11.234  12.821  11.934
98552SOL     OW97552   3.494   4.755   0.024
98552SOL    HW197553   3.399   4.756   0.014
98552SOL    HW297554   3.517   4.662   0.032
98553SOL     OW97555   3.159   1.847   7.452
98553SOL    HW197556   3.185   1.815   7.365
98553SOL    HW297557   3.194   1.935   7.457
98554SOL     OW97558   8.285  11.433   5.092
98554SOL    HW197559   8.264  11.470   5.007
98554SOL    HW297560   8.380  11.442   5.099
98555SOL     OW97561  10.081  12.003  11.784
98555SOL    HW197562  10.077  12.007  11.879
98555SOL    HW297563  10.156  12.057  11.760
98556SOL     OW97564  12.424   0.185   7.582
98556SOL    HW197565  12.428   0.093   7.608
98556SOL    HW297566  12.388   0.230   7.658
98557SOL     OW97567  14.129  13.379   8.127
98557SOL    HW197568  14.203  13.375   8.187
98557SOL    HW297569  14.135  13.299   8.075
98558SOL     OW97570   7.298  12.827  14.754
98558SOL    HW197571   7.306  12.922  14.747
98558SOL    HW297572   7.389  12.795  14.761
98559SOL     OW97573   4.976   7.284   4.862
98559SOL    HW197574   5.003   7.199   4.827
98559SOL    HW297575   4.883   7.275   4.881
98560SOL     OW97576  10.498  13.160   3.088
98560SOL    HW197577  10.568  13.203   3.039
98560SOL    HW297578  10.423  13.159   3.029
98561SOL     OW97579   7.574   0.847   3.289
98561SOL    HW197580   7.595   0.790   3.216
98561SOL    HW297581   7.638   0.919   3.282
98562SOL     OW97582   1.243  13.802  13.401
98562SOL    HW197583   1.180  13.833  13.336
98562SOL    HW297584   1.322  13.782  13.350
98563SOL     OW97585   1.774   3.246  11.782
98563SOL    HW197586   1.775   3.220  11.690
98563SOL    HW297587   1.733   3.172  11.827
98564SOL     OW97588   1.051   0.667  12.655
98564SOL    HW197589   1.105   0.628  12.586
98564SOL    HW297590   0.967   0.684  12.614
98565SOL     OW97591   3.749  11.076   2.210
98565SOL    HW197592   3.835  11.118   2.217
98565SOL    HW297593   3.766  10.984   2.229
98566SOL     OW97594   6.097   9.741  11.118
98566SOL    HW197595   6.102   9.674  11.050
98566SOL    HW297596   6.006   9.738  11.147
98567SOL     OW97597  11.333  13.545   4.204
98567SOL    HW197598  11.407  13.541   4.263
98567SOL    HW297599  11.271  13.604   4.247
98568SOL     OW97600   3.514   9.714   3.066
98568SOL    HW197601   3.533   9.713   3.160
98568SOL    HW297602   3.584   9.661   3.028
98569SOL     OW97603  11.752   4.382   7.042
98569SOL    HW197604  11.836   4.335   7.049
98569SOL    HW297605  11.701   4.329   6.981
98570SOL     OW97606   1.735   3.173   9.420
98570SOL    HW197607   1.665   3.163   9.485
98570SOL    HW297608   1.725   3.097   9.362
98571SOL     OW97609   2.506   6.670  10.265
98571SOL    HW197610   2.567   6.717  10.208
98571SOL    HW297611   2.435   6.732  10.281
98572SOL     OW97612   2.174   7.185   6.702
98572SOL    HW197613   2.129   7.143   6.629
98572SOL    HW297614   2.158   7.128   6.777
98573SOL     OW97615  14.162   9.587   6.774
98573SOL    HW197616  14.153   9.538   6.856
98573SOL    HW297617  14.208   9.667   6.799
98574SOL     OW97618   2.516   6.026   8.967
98574SOL    HW197619   2.554   6.034   9.055
98574SOL    HW297620   2.575   6.076   8.911
98575SOL     OW97621  13.715   5.954  11.872
98575SOL    HW197622  13.731   5.990  11.960
98575SOL    HW297623  13.622   5.967  11.857
98576SOL     OW97624  11.276   8.342   7.094
98576SOL    HW197625  11.245   8.320   7.182
98576SOL    HW297626  11.196   8.359   7.044
98577SOL     OW97627   2.658  12.850  12.687
98577SOL    HW197628   2.612  12.930  12.663
98577SOL    HW297629   2.633  12.787  12.619
98578SOL     OW97630  10.727  14.359  13.422
98578SOL    HW197631  10.684  14.288  13.469
98578SOL    HW297632  10.737  14.326  13.333
98579SOL     OW97633   6.656   0.107   0.635
98579SOL    HW197634   6.732   0.101   0.693
98579SOL    HW297635   6.682   0.172   0.569
98580SOL     OW97636  10.985  12.898  11.661
98580SOL    HW197637  10.973  12.970  11.722
98580SOL    HW297638  11.045  12.932  11.595
98581SOL     OW97639   0.290  13.549  12.266
98581SOL    HW197640   0.325  13.490  12.199
98581SOL    HW297641   0.305  13.637  12.232
98582SOL     OW97642   9.702   5.341  10.137
98582SOL    HW197643   9.620   5.390  10.142
98582SOL    HW297644   9.680   5.262  10.088
98583SOL     OW97645   5.806   9.566   0.301
98583SOL    HW197646   5.846   9.479   0.304
98583SOL    HW297647   5.791   9.582   0.208
98584SOL     OW97648  10.633  11.156  13.535
98584SOL    HW197649  10.629  11.236  13.589
98584SOL    HW297650  10.620  11.187  13.445
98585SOL     OW97651   9.169  10.082   5.654
98585SOL    HW197652   9.108  10.139   5.607
98585SOL    HW297653   9.139  10.084   5.745
98586SOL     OW97654   0.468   6.184   5.525
98586SOL    HW197655   0.424   6.268   5.511
98586SOL    HW297656   0.397   6.120   5.521
98587SOL     OW97657   3.796   7.916   4.278
98587SOL    HW197658   3.824   7.855   4.346
98587SOL    HW297659   3.875   7.964   4.254
98588SOL     OW97660   0.348  11.106  11.080
98588SOL    HW197661   0.290  11.052  11.027
98588SOL    HW297662   0.344  11.193  11.040
98589SOL     OW97663   8.192  13.795  13.725
98589SOL    HW197664   8.156  13.879  13.752
98589SOL    HW297665   8.244  13.765  13.800
98590SOL     OW97666   5.791   4.161   1.652
98590SOL    HW197667   5.846   4.193   1.581
98590SOL    HW297668   5.778   4.237   1.709
98591SOL     OW97669   4.807   1.582  11.126
98591SOL    HW197670   4.758   1.560  11.206
98591SOL    HW297671   4.872   1.512  11.119
98592SOL     OW97672  13.738  13.902   7.889
98592SOL    HW197673  13.718  13.846   7.814
98592SOL    HW297674  13.667  13.966   7.891
98593SOL     OW97675   0.992   5.399  14.467
98593SOL    HW197676   0.927   5.360  14.409
98593SOL    HW297677   1.044   5.325  14.498
98594SOL     OW97678   5.760   0.560  11.673
98594SOL    HW197679   5.757   0.539  11.767
98594SOL    HW297680   5.709   0.640  11.664
98595SOL     OW97681   3.074  14.584   1.680
98595SOL    HW197682   3.103  14.514   1.621
98595SOL    HW297683   3.003  14.544   1.731
98596SOL     OW97684   7.532  10.976   9.832
98596SOL    HW197685   7.481  10.977   9.751
98596SOL    HW297686   7.469  10.952   9.900
98597SOL     OW97687  11.377   9.448  10.258
98597SOL    HW197688  11.433   9.435  10.335
98597SOL    HW297689  11.311   9.510  10.287
98598SOL     OW97690  12.812   1.103  11.404
98598SOL    HW197691  12.815   1.114  11.309
98598SOL    HW297692  12.787   1.189  11.437
98599SOL     OW97693   8.935   2.410  11.795
98599SOL    HW197694   8.948   2.330  11.845
98599SOL    HW297695   8.851   2.396  11.750
98600SOL     OW97696   3.705   1.254   3.216
98600SOL    HW197697   3.636   1.284   3.158
98600SOL    HW297698   3.741   1.334   3.255
98601SOL     OW97699   8.776  11.086   0.414
98601SOL    HW197700   8.722  11.088   0.493
98601SOL    HW297701   8.861  11.121   0.443
98602SOL     OW97702   5.101  12.576  11.351
98602SOL    HW197703   5.124  12.648  11.410
98602SOL    HW297704   5.129  12.605  11.265
98603SOL     OW97705  10.444  13.727   7.249
98603SOL    HW197706  10.402  13.688   7.172
98603SOL    HW297707  10.371  13.762   7.300
98604SOL     OW97708   4.987   9.720  14.188
98604SOL    HW197709   5.006   9.704  14.095
98604SOL    HW297710   5.072   9.741  14.226
98605SOL     OW97711  13.163   4.013   8.469
98605SOL    HW197712  13.211   3.969   8.399
98605SOL    HW297713  13.197   3.975   8.549
98606SOL     OW97714  12.371   9.351   8.773
98606SOL    HW197715  12.377   9.279   8.711
98606SOL    HW297716  12.284   9.341   8.813
98607SOL     OW97717   1.984   4.982   6.050
98607SOL    HW197718   1.919   4.931   6.003
98607SOL    HW297719   2.046   4.917   6.084
98608SOL     OW97720   0.354   7.067  13.914
98608SOL    HW197721   0.346   6.972  13.925
98608SOL    HW297722   0.337   7.103  14.001
98609SOL     OW97723   0.267   1.713   9.072
98609SOL    HW197724   0.341   1.772   9.083
98609SOL    HW297725   0.297   1.649   9.008
98610SOL     OW97726  13.895   8.977   6.652
98610SOL    HW197727  13.952   8.909   6.615
98610SOL    HW297728  13.821   8.929   6.690
98611SOL     OW97729   2.556  12.999  12.964
98611SOL    HW197730   2.570  13.092  12.946
98611SOL    HW297731   2.633  12.956  12.925
98612SOL     OW97732   0.147   3.869  10.708
98612SOL    HW197733   0.220   3.905  10.758
98612SOL    HW297734   0.072   3.873  10.768
98613SOL     OW97735  10.411  11.111   2.584
98613SOL    HW197736  10.443  11.168   2.514
98613SOL    HW297737  10.457  11.141   2.662
98614SOL     OW97738  10.598   7.284  14.294
98614SOL    HW197739  10.648   7.307  14.372
98614SOL    HW297740  10.559   7.199  14.315
98615SOL     OW97741   0.730  12.367  10.264
98615SOL    HW197742   0.815  12.340  10.228
98615SOL    HW297743   0.666  12.312  10.218
98616SOL     OW97744   9.101   0.098   5.681
98616SOL    HW197745   9.153   0.034   5.731
98616SOL    HW297746   9.113   0.071   5.590
98617SOL     OW97747   1.926   3.068   7.022
98617SOL    HW197748   1.860   3.000   7.035
98617SOL    HW297749   2.006   3.020   7.003
98618SOL     OW97750  10.146  12.962  10.624
98618SOL    HW197751  10.080  12.892  10.625
98618SOL    HW297752  10.204  12.941  10.698
98619SOL     OW97753   0.788   3.648  13.880
98619SOL    HW197754   0.696   3.672  13.865
98619SOL    HW297755   0.810   3.690  13.963
98620SOL     OW97756  10.672  12.315  10.934
98620SOL    HW197757  10.577  12.306  10.921
98620SOL    HW297758  10.710  12.241  10.888
98621SOL     OW97759   3.960  12.508   6.620
98621SOL    HW197760   4.030  12.563   6.584
98621SOL    HW297761   3.998  12.421   6.625
98622SOL     OW97762  10.658   3.888  12.279
98622SOL    HW197763  10.660   3.951  12.351
98622SOL    HW297764  10.712   3.928  12.210
98623SOL     OW97765   5.208  14.348  10.081
98623SOL    HW197766   5.297  14.319  10.099
98623SOL    HW297767   5.216  14.443  10.069
98624SOL     OW97768  14.380  13.901  12.141
98624SOL    HW197769  14.305  13.912  12.199
98624SOL    HW297770  14.341  13.880  12.056
98625SOL     OW97771   3.319   9.977   0.474
98625SOL    HW197772   3.353  10.038   0.408
98625SOL    HW297773   3.227   9.966   0.451
98626SOL     OW97774   0.232  13.656   1.113
98626SOL    HW197775   0.224  13.653   1.208
98626SOL    HW297776   0.325  13.639   1.096
98627SOL     OW97777   6.600  11.852  10.611
98627SOL    HW197778   6.642  11.887  10.533
98627SOL    HW297779   6.670  11.846  10.676
98628SOL     OW97780   1.650   2.926   8.135
98628SOL    HW197781   1.703   2.860   8.091
98628SOL    HW297782   1.620   2.984   8.064
98629SOL     OW97783   7.370  14.625   3.020
98629SOL    HW197784   7.381  14.550   2.962
98629SOL    HW297785   7.351  14.586   3.106
98630SOL     OW97786   4.912   5.178  10.665
98630SOL    HW197787   4.883   5.140  10.582
98630SOL    HW297788   4.924   5.103  10.723
98631SOL     OW97789   2.288   4.205   8.875
98631SOL    HW197790   2.296   4.215   8.970
98631SOL    HW297791   2.213   4.147   8.863
98632SOL     OW97792   3.752   7.166   7.729
98632SOL    HW197793   3.707   7.226   7.789
98632SOL    HW297794   3.808   7.113   7.785
98633SOL     OW97795  10.762  11.233   8.061
98633SOL    HW197796  10.826  11.198   8.123
98633SOL    HW297797  10.682  11.184   8.079
98634SOL     OW97798   0.241   4.804   6.398
98634SOL    HW197799   0.224   4.762   6.483
98634SOL    HW297800   0.304   4.873   6.417
98635SOL     OW97801   6.835  13.786   5.061
98635SOL    HW197802   6.905  13.721   5.066
98635SOL    HW297803   6.754  13.735   5.071
98636SOL     OW97804   5.461  13.727   8.025
98636SOL    HW197805   5.414  13.653   8.064
98636SOL    HW297806   5.413  13.804   8.055
98637SOL     OW97807  11.974   1.029  11.001
98637SOL    HW197808  12.051   1.074  11.038
98637SOL    HW297809  11.912   1.100  10.983
98638SOL     OW97810   8.023   1.119  10.079
98638SOL    HW197811   7.965   1.175  10.026
98638SOL    HW297812   8.018   1.156  10.167
98639SOL     OW97813   2.056   1.862   0.884
98639SOL    HW197814   2.081   1.925   0.952
98639SOL    HW297815   1.962   1.875   0.872
98640SOL     OW97816  11.714   4.946   6.742
98640SOL    HW197817  11.748   5.033   6.723
98640SOL    HW297818  11.621   4.950   6.719
98641SOL     OW97819   3.764  13.686   0.103
98641SOL    HW197820   3.831  13.718   0.162
98641SOL    HW297821   3.691  13.662   0.160
98642SOL     OW97822   3.132   8.579   9.134
98642SOL    HW197823   3.113   8.512   9.200
98642SOL    HW297824   3.224   8.601   9.147
98643SOL     OW97825  14.425  12.230   2.671
98643SOL    HW197826  14.485  12.269   2.608
98643SOL    HW297827  14.383  12.159   2.622
98644SOL     OW97828   1.046   8.616   2.819
98644SOL    HW197829   1.051   8.601   2.725
98644SOL    HW297830   0.954   8.635   2.835
98645SOL     OW97831   6.559   2.363  12.325
98645SOL    HW197832   6.548   2.387  12.417
98645SOL    HW297833   6.585   2.271  12.328
98646SOL     OW97834   1.375   7.675  10.605
98646SOL    HW197835   1.469   7.665  10.620
98646SOL    HW297836   1.345   7.587  10.582
98647SOL     OW97837   5.245   5.369   7.554
98647SOL    HW197838   5.165   5.362   7.606
98647SOL    HW297839   5.253   5.463   7.535
98648SOL     OW97840   7.484   9.034   8.890
98648SOL    HW197841   7.409   9.026   8.947
98648SOL    HW297842   7.555   9.065   8.947
98649SOL     OW97843   5.362   9.245  10.743
98649SOL    HW197844   5.284   9.193  10.761
98649SOL    HW297845   5.421   9.185  10.697
98650SOL     OW97846   8.477  12.505  13.381
98650SOL    HW197847   8.382  12.503  13.371
98650SOL    HW297848   8.507  12.423  13.342
98651SOL     OW97849   6.354   3.031  13.325
98651SOL    HW197850   6.311   2.950  13.299
98651SOL    HW297851   6.448   3.011  13.323
98652SOL     OW97852  14.814   0.432   3.443
98652SOL    HW197853  14.746   0.404   3.382
98652SOL    HW297854   0.018   0.404   3.401
98653SOL     OW97855   3.916   6.638   1.527
98653SOL    HW197856   3.964   6.589   1.593
98653SOL    HW297857   3.974   6.639   1.451
98654SOL     OW97858   4.740   0.842   5.733
98654SOL    HW197859   4.705   0.875   5.650
98654SOL    HW297860   4.794   0.914   5.767
98655SOL     OW97861   4.361   4.816   6.918
98655SOL    HW197862   4.306   4.770   6.981
98655SOL    HW297863   4.409   4.880   6.971
98656SOL     OW97864   4.815   6.572   7.647
98656SOL    HW197865   4.770   6.580   7.732
98656SOL    HW297866   4.877   6.500   7.659
98657SOL     OW97867   2.277   6.812   3.051
98657SOL    HW197868   2.327   6.733   3.031
98657SOL    HW297869   2.186   6.788   3.034
98658SOL     OW97870   0.812   9.023   1.676
98658SOL    HW197871   0.732   8.973   1.694
98658SOL    HW297872   0.880   8.979   1.728
98659SOL     OW97873  14.370   7.275   8.092
98659SOL    HW197874  14.406   7.329   8.022
98659SOL    HW297875  14.445   7.250   8.145
98660SOL     OW97876   5.915   4.846   8.544
98660SOL    HW197877   5.913   4.802   8.629
98660SOL    HW297878   5.982   4.914   8.554
98661SOL     OW97879   0.764   7.719  13.193
98661SOL    HW197880   0.774   7.714  13.288
98661SOL    HW297881   0.669   7.722  13.179
98662SOL     OW97882   7.051   5.726   8.200
98662SOL    HW197883   7.119   5.760   8.259
98662SOL    HW297884   6.971   5.727   8.253
98663SOL     OW97885   7.403   2.399  10.029
98663SOL    HW197886   7.481   2.349  10.008
98663SOL    HW297887   7.376   2.368  10.115
98664SOL     OW97888   0.149  14.231   5.788
98664SOL    HW197889   0.218  14.238   5.722
98664SOL    HW297890   0.105  14.149   5.768
98665SOL     OW97891   3.939   9.248  14.494
98665SOL    HW197892   3.942   9.154  14.474
98665SOL    HW297893   4.003   9.259  14.563
98666SOL     OW97894   9.338   7.449  11.019
98666SOL    HW197895   9.319   7.417  10.931
98666SOL    HW297896   9.387   7.377  11.060
98667SOL     OW97897   5.651  11.029   2.664
98667SOL    HW197898   5.565  11.016   2.624
98667SOL    HW297899   5.662  10.954   2.722
98668SOL     OW97900   8.268   5.558   4.432
98668SOL    HW197901   8.288   5.465   4.435
98668SOL    HW297902   8.188   5.564   4.380
98669SOL     OW97903   6.219  12.766  14.356
98669SOL    HW197904   6.151  12.698  14.351
98669SOL    HW297905   6.290  12.733  14.302
98670SOL     OW97906   5.242   8.676   6.610
98670SOL    HW197907   5.222   8.655   6.701
98670SOL    HW297908   5.334   8.649   6.600
98671SOL     OW97909   8.173   3.474   6.485
98671SOL    HW197910   8.154   3.408   6.419
98671SOL    HW297911   8.189   3.554   6.436
98672SOL     OW97912   7.014  14.848   3.137
98672SOL    HW197913   6.974   0.019   3.209
98672SOL    HW297914   7.082  14.795   3.178
98673SOL     OW97915  12.152   3.792  10.577
98673SOL    HW197916  12.205   3.839  10.512
98673SOL    HW297917  12.162   3.843  10.657
98674SOL     OW97918   7.820   3.552   8.646
98674SOL    HW197919   7.870   3.633   8.653
98674SOL    HW297920   7.751   3.560   8.712
98675SOL     OW97921   7.470   8.214   6.926
98675SOL    HW197922   7.492   8.176   7.011
98675SOL    HW297923   7.486   8.307   6.936
98676SOL     OW97924   0.246   2.133   4.918
98676SOL    HW197925   0.244   2.119   5.013
98676SOL    HW297926   0.234   2.046   4.881
98677SOL     OW97927  10.620  10.721  10.689
98677SOL    HW197928  10.653  10.692  10.604
98677SOL    HW297929  10.670  10.670  10.753
98678SOL     OW97930  11.736   0.724   6.852
98678SOL    HW197931  11.670   0.778   6.894
98678SOL    HW297932  11.770   0.778   6.781
98679SOL     OW97933  11.960   7.324   7.490
98679SOL    HW197934  12.034   7.356   7.439
98679SOL    HW297935  11.899   7.398   7.493
98680SOL     OW97936   7.411   1.318  12.295
98680SOL    HW197937   7.414   1.316  12.199
98680SOL    HW297938   7.419   1.411  12.317
98681SOL     OW97939   0.747   2.849   2.931
98681SOL    HW197940   0.782   2.912   2.868
98681SOL    HW297941   0.656   2.877   2.945
98682SOL     OW97942   4.350   3.956   6.001
98682SOL    HW197943   4.426   3.899   6.010
98682SOL    HW297944   4.306   3.951   6.086
98683SOL     OW97945   4.061   5.298   8.790
98683SOL    HW197946   4.014   5.311   8.708
98683SOL    HW297947   4.127   5.367   8.792
98684SOL     OW97948   3.904  11.098  13.057
98684SOL    HW197949   3.989  11.136  13.036
98684SOL    HW297950   3.879  11.051  12.977
98685SOL     OW97951  11.326   5.448   9.876
98685SOL    HW197952  11.273   5.381   9.833
98685SOL    HW297953  11.415   5.414   9.874
98686SOL     OW97954   2.647  10.870   6.721
98686SOL    HW197955   2.658  10.840   6.811
98686SOL    HW297956   2.727  10.920   6.703
98687SOL     OW97957   9.123   4.047  11.927
98687SOL    HW197958   9.201   4.001  11.893
98687SOL    HW297959   9.115   4.017  12.017
98688SOL     OW97960  12.125   9.963  12.368
98688SOL    HW197961  12.148   9.909  12.443
98688SOL    HW297962  12.034   9.986  12.382
98689SOL     OW97963   4.233   4.195   1.539
98689SOL    HW197964   4.258   4.191   1.446
98689SOL    HW297965   4.137   4.190   1.537
98690SOL     OW97966  11.711   5.106   0.652
98690SOL    HW197967  11.765   5.109   0.573
98690SOL    HW297968  11.644   5.041   0.632
98691SOL     OW97969   5.532   8.903  14.517
98691SOL    HW197970   5.542   8.951  14.434
98691SOL    HW297971   5.577   8.820  14.503
98692SOL     OW97972   8.169  13.801   7.557
98692SOL    HW197973   8.241  13.792   7.619
98692SOL    HW297974   8.199  13.867   7.495
98693SOL     OW97975   7.418  13.654   8.406
98693SOL    HW197976   7.472  13.700   8.342
98693SOL    HW297977   7.422  13.708   8.485
98694SOL     OW97978  10.144   5.957   3.126
98694SOL    HW197979  10.158   5.968   3.032
98694SOL    HW297980  10.124   5.864   3.137
98695SOL     OW97981   1.187   4.168   6.434
98695SOL    HW197982   1.205   4.121   6.353
98695SOL    HW297983   1.091   4.171   6.439
98696SOL     OW97984  10.174   1.845   4.955
98696SOL    HW197985  10.250   1.841   4.896
98696SOL    HW297986  10.115   1.777   4.923
98697SOL     OW97987   0.406  14.842   7.722
98697SOL    HW197988   0.487  14.840   7.774
98697SOL    HW297989   0.376   0.055   7.727
98698SOL     OW97990   1.743   1.645  10.039
98698SOL    HW197991   1.754   1.740  10.036
98698SOL    HW297992   1.762   1.621  10.129
98699SOL     OW97993  14.283   6.119  14.694
98699SOL    HW197994  14.243   6.042  14.652
98699SOL    HW297995  14.217   6.150  14.756
98700SOL     OW97996   1.514   5.527   6.384
98700SOL    HW197997   1.563   5.572   6.453
98700SOL    HW297998   1.462   5.596   6.343
98701SOL     OW97999   6.925   3.226   4.977
98701SOL    HW198000   6.958   3.175   5.051
98701SOL    HW298001   7.003   3.253   4.930
98702SOL     OW98002   8.130   1.021  14.532
98702SOL    HW198003   8.218   1.056  14.545
98702SOL    HW298004   8.072   1.094  14.552
98703SOL     OW98005   9.221   3.830   0.593
98703SOL    HW198006   9.129   3.847   0.610
98703SOL    HW298007   9.267   3.908   0.625
98704SOL     OW98008   7.959   5.536  12.582
98704SOL    HW198009   8.052   5.557  12.570
98704SOL    HW298010   7.913   5.607  12.539
98705SOL     OW98011  12.276  14.777   5.268
98705SOL    HW198012  12.308  14.760   5.179
98705SOL    HW298013  12.354  14.804   5.317
98706SOL     OW98014   4.653   4.454   1.788
98706SOL    HW198015   4.692   4.538   1.811
98706SOL    HW298016   4.636   4.410   1.871
98707SOL     OW98017  10.124   3.756   3.708
98707SOL    HW198018  10.079   3.716   3.634
98707SOL    HW298019  10.146   3.844   3.678
98708SOL     OW98020   0.722   4.033   8.827
98708SOL    HW198021   0.658   3.963   8.809
98708SOL    HW298022   0.763   4.007   8.909
98709SOL     OW98023  13.698   2.567   8.655
98709SOL    HW198024  13.750   2.638   8.690
98709SOL    HW298025  13.746   2.538   8.577
98710SOL     OW98026   3.458   0.472  12.700
98710SOL    HW198027   3.383   0.531  12.698
98710SOL    HW298028   3.518   0.507  12.634
98711SOL     OW98029   3.163   9.333   9.904
98711SOL    HW198030   3.128   9.244   9.899
98711SOL    HW298031   3.222   9.332   9.979
98712SOL     OW98032   7.179  10.829   3.635
98712SOL    HW198033   7.181  10.925   3.645
98712SOL    HW298034   7.253  10.799   3.687
98713SOL     OW98035   3.468   9.586   8.601
98713SOL    HW198036   3.555   9.563   8.633
98713SOL    HW298037   3.460   9.679   8.621
98714SOL     OW98038  11.491   6.199  11.539
98714SOL    HW198039  11.502   6.116  11.586
98714SOL    HW298040  11.580   6.221  11.510
98715SOL     OW98041   8.355  10.865   0.580
98715SOL    HW198042   8.376  10.836   0.669
98715SOL    HW298043   8.425  10.829   0.526
98716SOL     OW98044  12.551   1.847  13.881
98716SOL    HW198045  12.551   1.795  13.801
98716SOL    HW298046  12.561   1.938  13.851
98717SOL     OW98047   2.010   9.182  12.071
98717SOL    HW198048   1.958   9.111  12.108
98717SOL    HW298049   2.004   9.252  12.136
98718SOL     OW98050  11.218   7.020  12.059
98718SOL    HW198051  11.224   7.075  12.137
98718SOL    HW298052  11.150   6.956  12.081
98719SOL     OW98053   3.029  14.206  12.458
98719SOL    HW198054   3.071  14.244  12.381
98719SOL    HW298055   2.935  14.217  12.442
98720SOL     OW98056   6.180   0.065   2.058
98720SOL    HW198057   6.239   0.083   1.985
98720SOL    HW298058   6.094   0.052   2.017
98721SOL     OW98059   1.288   9.018   1.687
98721SOL    HW198060   1.382   9.038   1.679
98721SOL    HW298061   1.244   9.095   1.653
98722SOL     OW98062   3.724   8.091  11.157
98722SOL    HW198063   3.705   8.067  11.066
98722SOL    HW298064   3.790   8.029  11.185
98723SOL     OW98065  13.736   9.456  12.621
98723SOL    HW198066  13.659   9.448  12.677
98723SOL    HW298067  13.703   9.493  12.539
98724SOL     OW98068   1.135   4.306   8.255
98724SOL    HW198069   1.134   4.384   8.311
98724SOL    HW298070   1.155   4.340   8.168
98725SOL     OW98071   9.507   2.179  12.404
98725SOL    HW198072   9.486   2.261  12.360
98725SOL    HW298073   9.600   2.166  12.387
98726SOL     OW98074   4.123   7.315   8.790
98726SOL    HW198075   4.146   7.249   8.856
98726SOL    HW298076   4.206   7.340   8.751
98727SOL     OW98077   5.458   6.052   4.986
98727SOL    HW198078   5.388   6.072   4.925
98727SOL    HW298079   5.515   5.991   4.939
98728SOL     OW98080   2.516  10.102  14.058
98728SOL    HW198081   2.599  10.086  14.103
98728SOL    HW298082   2.535  10.172  13.997
98729SOL     OW98083   5.339   3.625   0.201
98729SOL    HW198084   5.257   3.580   0.182
98729SOL    HW298085   5.316   3.691   0.266
98730SOL     OW98086   4.524   0.904   5.549
98730SOL    HW198087   4.511   0.817   5.510
98730SOL    HW298088   4.454   0.957   5.511
98731SOL     OW98089  12.822   3.181   8.646
98731SOL    HW198090  12.896   3.234   8.616
98731SOL    HW298091  12.775   3.157   8.565
98732SOL     OW98092   1.685   4.850   6.682
98732SOL    HW198093   1.604   4.800   6.675
98732SOL    HW298094   1.731   4.812   6.757
98733SOL     OW98095   7.581   0.326   3.728
98733SOL    HW198096   7.523   0.379   3.782
98733SOL    HW298097   7.655   0.304   3.785
98734SOL     OW98098  13.135   7.597  10.609
98734SOL    HW198099  13.120   7.547  10.689
98734SOL    HW298100  13.050   7.637  10.590
98735SOL     OW98101   0.177   2.884   4.005
98735SOL    HW198102   0.195   2.900   3.913
98735SOL    HW298103   0.257   2.912   4.050
98736SOL     OW98104  11.528  12.631  12.129
98736SOL    HW198105  11.597  12.606  12.190
98736SOL    HW298106  11.569  12.626  12.043
98737SOL     OW98107  12.160  10.891   7.097
98737SOL    HW198108  12.128  10.807   7.132
98737SOL    HW298109  12.218  10.924   7.166
98738SOL     OW98110   3.512  14.472   6.199
98738SOL    HW198111   3.551  14.393   6.160
98738SOL    HW298112   3.490  14.527   6.124
98739SOL     OW98113  13.510   0.297   2.239
98739SOL    HW198114  13.559   0.360   2.293
98739SOL    HW298115  13.523   0.327   2.149
98740SOL     OW98116  10.607   7.309  12.021
98740SOL    HW198117  10.688   7.275  11.983
98740SOL    HW298118  10.540   7.247  11.994
98741SOL     OW98119   6.367   8.329   8.605
98741SOL    HW198120   6.289   8.273   8.604
98741SOL    HW298121   6.399   8.328   8.515
98742SOL     OW98122   8.817   2.102  13.691
98742SOL    HW198123   8.769   2.019  13.695
98742SOL    HW298124   8.794   2.139  13.606
98743SOL     OW98125  11.597  10.596   2.117
98743SOL    HW198126  11.515  10.576   2.073
98743SOL    HW298127  11.664  10.553   2.065
98744SOL     OW98128   7.763   2.612   7.981
98744SOL    HW198129   7.858   2.621   7.989
98744SOL    HW298130   7.751   2.526   7.942
98745SOL     OW98131  13.394   5.104   7.338
98745SOL    HW198132  13.341   5.074   7.412
98745SOL    HW298133  13.380   5.198   7.334
98746SOL     OW98134  13.523  10.586   3.116
98746SOL    HW198135  13.607  10.633   3.120
98746SOL    HW298136  13.515  10.561   3.024
98747SOL     OW98137   2.502  11.589   7.138
98747SOL    HW198138   2.578  11.647   7.152
98747SOL    HW298139   2.458  11.585   7.223
98748SOL     OW98140   6.273   8.827   8.828
98748SOL    HW198141   6.199   8.810   8.770
98748SOL    HW298142   6.256   8.914   8.864
98749SOL     OW98143   0.406  12.376   9.825
98749SOL    HW198144   0.316  12.396   9.803
98749SOL    HW298145   0.420  12.287   9.794
98750SOL     OW98146   1.874   5.934  11.330
98750SOL    HW198147   1.805   5.867  11.336
98750SOL    HW298148   1.851   5.984  11.252
98751SOL     OW98149   0.486   8.735  11.887
98751SOL    HW198150   0.452   8.675  11.821
98751SOL    HW298151   0.478   8.688  11.970
98752SOL     OW98152   4.239   9.489  12.261
98752SOL    HW198153   4.324   9.458  12.291
98752SOL    HW298154   4.223   9.442  12.179
98753SOL     OW98155   4.150  11.210   0.414
98753SOL    HW198156   4.142  11.220   0.319
98753SOL    HW298157   4.077  11.261   0.449
98754SOL     OW98158   2.280   5.239  14.137
98754SOL    HW198159   2.333   5.258  14.059
98754SOL    HW298160   2.342   5.203  14.200
98755SOL     OW98161  10.367  10.960  14.027
98755SOL    HW198162  10.358  10.884  14.085
98755SOL    HW298163  10.447  11.003  14.057
98756SOL     OW98164   9.205   0.876   8.833
98756SOL    HW198165   9.252   0.958   8.850
98756SOL    HW298166   9.213   0.863   8.739
98757SOL     OW98167   7.485   8.604   8.946
98757SOL    HW198168   7.537   8.523   8.952
98757SOL    HW298169   7.545   8.673   8.973
98758SOL     OW98170   6.605  12.035   3.163
98758SOL    HW198171   6.578  11.967   3.225
98758SOL    HW298172   6.598  11.993   3.077
98759SOL     OW98173   4.658   2.243   7.160
98759SOL    HW198174   4.746   2.226   7.195
98759SOL    HW298175   4.674   2.282   7.074
98760SOL     OW98176   1.535   9.550  12.545
98760SOL    HW198177   1.513   9.557  12.638
98760SOL    HW298178   1.536   9.641  12.514
98761SOL     OW98179   7.124  12.566   9.847
98761SOL    HW198180   7.154  12.504   9.780
98761SOL    HW298181   7.029  12.561   9.843
98762SOL     OW98182   9.126  10.011  13.474
98762SOL    HW198183   9.177   9.934  13.448
98762SOL    HW298184   9.074   9.981  13.548
98763SOL     OW98185   2.365   8.962   9.303
98763SOL    HW198186   2.270   8.962   9.300
98763SOL    HW298187   2.390   9.046   9.264
98764SOL     OW98188  13.086   4.399  12.750
98764SOL    HW198189  13.026   4.407  12.824
98764SOL    HW298190  13.031   4.372  12.677
98765SOL     OW98191  14.385   4.581   5.083
98765SOL    HW198192  14.421   4.640   5.149
98765SOL    HW298193  14.442   4.590   5.007
98766SOL     OW98194  10.947   4.645   6.051
98766SOL    HW198195  10.905   4.559   6.051
98766SOL    HW298196  10.928   4.682   6.138
98767SOL     OW98197   8.850  10.245   8.817
98767SOL    HW198198   8.861  10.337   8.796
98767SOL    HW298199   8.937  10.206   8.802
98768SOL     OW98200   9.780   4.990   3.093
98768SOL    HW198201   9.747   5.080   3.093
98768SOL    HW298202   9.701   4.937   3.083
98769SOL     OW98203   8.819  13.926  12.606
98769SOL    HW198204   8.820  13.836  12.571
98769SOL    HW298205   8.727  13.942  12.627
98770SOL     OW98206  10.035  13.444   9.101
98770SOL    HW198207  10.094  13.396   9.042
98770SOL    HW298208   9.952  13.449   9.053
98771SOL     OW98209  12.917  13.336   2.977
98771SOL    HW198210  12.826  13.323   3.002
98771SOL    HW298211  12.919  13.421   2.933
98772SOL     OW98212  10.517   2.582   8.436
98772SOL    HW198213  10.456   2.528   8.385
98772SOL    HW298214  10.462   2.650   8.475
98773SOL     OW98215   4.292   7.662   3.484
98773SOL    HW198216   4.361   7.718   3.520
98773SOL    HW298217   4.293   7.585   3.540
98774SOL     OW98218  14.076   5.250  13.754
98774SOL    HW198219  14.130   5.318  13.713
98774SOL    HW298220  14.117   5.168  13.727
98775SOL     OW98221  13.941  12.736   7.412
98775SOL    HW198222  13.962  12.735   7.318
98775SOL    HW298223  13.993  12.664   7.448
98776SOL     OW98224   9.882  12.052   1.900
98776SOL    HW198225   9.902  11.958   1.906
98776SOL    HW298226   9.819  12.059   1.828
98777SOL     OW98227   7.918   0.134   6.281
98777SOL    HW198228   7.960   0.048   6.273
98777SOL    HW298229   7.889   0.154   6.192
98778SOL     OW98230   6.423   0.949   3.117
98778SOL    HW198231   6.462   0.893   3.051
98778SOL    HW298232   6.331   0.955   3.092
98779SOL     OW98233  10.857  14.066  11.978
98779SOL    HW198234  10.903  14.057  11.895
98779SOL    HW298235  10.773  14.107  11.956
98780SOL     OW98236   5.603  11.515   3.185
98780SOL    HW198237   5.564  11.442   3.138
98780SOL    HW298238   5.641  11.570   3.116
98781SOL     OW98239   5.683   5.742   8.824
98781SOL    HW198240   5.632   5.760   8.903
98781SOL    HW298241   5.774   5.758   8.849
98782SOL     OW98242  10.098   9.745  10.805
98782SOL    HW198243  10.151   9.798  10.865
98782SOL    HW298244  10.148   9.665  10.793
98783SOL     OW98245   7.910   7.275   6.297
98783SOL    HW198246   7.825   7.250   6.263
98783SOL    HW298247   7.971   7.211   6.259
98784SOL     OW98248  10.542  11.964   5.714
98784SOL    HW198249  10.593  12.002   5.785
98784SOL    HW298250  10.498  12.038   5.673
98785SOL     OW98251  11.683  11.081   0.127
98785SOL    HW198252  11.598  11.040   0.109
98785SOL    HW298253  11.726  11.022   0.188
98786SOL     OW98254   1.328   1.376   3.780
98786SOL    HW198255   1.328   1.454   3.836
98786SOL    HW298256   1.285   1.308   3.833
98787SOL     OW98257   3.122   4.754   0.796
98787SOL    HW198258   3.060   4.810   0.842
98787SOL    HW298259   3.095   4.758   0.704
98788SOL     OW98260   5.122   0.711   8.854
98788SOL    HW198261   5.172   0.792   8.843
98788SOL    HW298262   5.031   0.739   8.849
98789SOL     OW98263  12.651   7.730   9.745
98789SOL    HW198264  12.673   7.733   9.838
98789SOL    HW298265  12.588   7.658   9.738
98790SOL     OW98266  14.460   8.081   3.546
98790SOL    HW198267  14.403   8.129   3.485
98790SOL    HW298268  14.422   8.099   3.632
98791SOL     OW98269  13.804   5.658   7.799
98791SOL    HW198270  13.775   5.746   7.776
98791SOL    HW298271  13.745   5.600   7.752
98792SOL     OW98272   1.273   1.677   3.275
98792SOL    HW198273   1.253   1.589   3.242
98792SOL    HW298274   1.337   1.662   3.344
98793SOL     OW98275   8.330   9.172   2.728
98793SOL    HW198276   8.308   9.181   2.820
98793SOL    HW298277   8.395   9.102   2.725
98794SOL     OW98278   4.929   4.087   8.083
98794SOL    HW198279   4.904   4.172   8.119
98794SOL    HW298280   4.999   4.056   8.140
98795SOL     OW98281  13.136   4.041  13.921
98795SOL    HW198282  13.113   3.970  13.861
98795SOL    HW298283  13.210   4.007  13.971
98796SOL     OW98284  12.415   7.456   0.975
98796SOL    HW198285  12.490   7.463   0.917
98796SOL    HW298286  12.429   7.525   1.041
98797SOL     OW98287   8.070  11.729   9.253
98797SOL    HW198288   8.008  11.656   9.257
98797SOL    HW298289   8.103  11.738   9.343
98798SOL     OW98290  14.665  12.521  13.582
98798SOL    HW198291  14.663  12.500  13.675
98798SOL    HW298292  14.593  12.584  13.571
98799SOL     OW98293   8.421   8.938  10.149
98799SOL    HW198294   8.385   8.988  10.076
98799SOL    HW298295   8.387   8.980  10.227
98800SOL     OW98296  11.484  13.230  10.040
98800SOL    HW198297  11.527  13.182  10.112
98800SOL    HW298298  11.549  13.295  10.013
98801SOL     OW98299   9.481  11.222   6.194
98801SOL    HW198300   9.465  11.242   6.286
98801SOL    HW298301   9.576  11.233   6.184
98802SOL     OW98302   4.565  14.327   6.489
98802SOL    HW198303   4.566  14.423   6.493
98802SOL    HW298304   4.656  14.302   6.479
98803SOL     OW98305   0.390   6.186   6.377
98803SOL    HW198306   0.409   6.102   6.419
98803SOL    HW298307   0.376   6.246   6.449
98804SOL     OW98308   4.162   6.774  11.459
98804SOL    HW198309   4.108   6.739  11.388
98804SOL    HW298310   4.216   6.841  11.417
98805SOL     OW98311   9.310   1.053   1.283
98805SOL    HW198312   9.394   1.100   1.279
98805SOL    HW298313   9.275   1.061   1.195
98806SOL     OW98314   1.588  12.930   3.014
98806SOL    HW198315   1.545  12.861   2.964
98806SOL    HW298316   1.650  12.884   3.070
98807SOL     OW98317   4.165  13.811   0.143
98807SOL    HW198318   4.192  13.720   0.156
98807SOL    HW298319   4.227  13.862   0.195
98808SOL     OW98320  10.102   4.863   4.575
98808SOL    HW198321  10.043   4.794   4.606
98808SOL    HW298322  10.122   4.839   4.485
98809SOL     OW98323   2.163   7.667   1.486
98809SOL    HW198324   2.203   7.751   1.465
98809SOL    HW298325   2.077   7.670   1.444
98810SOL     OW98326   2.950  13.192   4.554
98810SOL    HW198327   2.985  13.234   4.475
98810SOL    HW298328   2.866  13.236   4.569
98811SOL     OW98329   5.357   2.740   7.358
98811SOL    HW198330   5.316   2.827   7.357
98811SOL    HW298331   5.379   2.723   7.266
98812SOL     OW98332   8.822  10.145   9.908
98812SOL    HW198333   8.752  10.119   9.849
98812SOL    HW298334   8.896  10.090   9.882
98813SOL     OW98335   1.129   7.653   1.766
98813SOL    HW198336   1.108   7.559   1.769
98813SOL    HW298337   1.218   7.656   1.729
98814SOL     OW98338   7.016   0.700  12.660
98814SOL    HW198339   7.102   0.725  12.627
98814SOL    HW298340   7.034   0.650  12.739
98815SOL     OW98341  13.106   4.707   4.964
98815SOL    HW198342  13.136   4.719   5.054
98815SOL    HW298343  13.174   4.746   4.910
98816SOL     OW98344   4.256  11.077  11.698
98816SOL    HW198345   4.181  11.046  11.647
98816SOL    HW298346   4.314  11.116  11.632
98817SOL     OW98347   8.000   5.646   1.428
98817SOL    HW198348   8.010   5.555   1.457
98817SOL    HW298349   8.079   5.690   1.460
98818SOL     OW98350   8.724   6.538   8.875
98818SOL    HW198351   8.741   6.632   8.871
98818SOL    HW298352   8.665   6.527   8.949
98819SOL     OW98353   5.174  11.637   9.803
98819SOL    HW198354   5.095  11.598   9.767
98819SOL    HW298355   5.230  11.563   9.826
98820SOL     OW98356   8.353   9.504  14.592
98820SOL    HW198357   8.345   9.525  14.499
98820SOL    HW298358   8.334   9.410  14.597
98821SOL     OW98359  14.442  10.802  14.610
98821SOL    HW198360  14.438  10.753  14.692
98821SOL    HW298361  14.350  10.823  14.591
98822SOL     OW98362   1.451   7.472  10.951
98822SOL    HW198363   1.390   7.544  10.966
98822SOL    HW298364   1.428   7.407  11.017
98823SOL     OW98365   9.521   4.449   1.512
98823SOL    HW198366   9.609   4.413   1.523
98823SOL    HW298367   9.484   4.449   1.600
98824SOL     OW98368   8.888   7.721  12.054
98824SOL    HW198369   8.807   7.768  12.075
98824SOL    HW298370   8.870   7.680  11.969
98825SOL     OW98371   6.269   9.253  11.894
98825SOL    HW198372   6.300   9.299  11.973
98825SOL    HW298373   6.309   9.167  11.899
98826SOL     OW98374  12.360   0.537   2.303
98826SOL    HW198375  12.411   0.617   2.288
98826SOL    HW298376  12.287   0.566   2.358
98827SOL     OW98377  13.232   6.242   3.721
98827SOL    HW198378  13.251   6.193   3.800
98827SOL    HW298379  13.139   6.264   3.728
98828SOL     OW98380   5.333  13.236  10.594
98828SOL    HW198381   5.276  13.206  10.665
98828SOL    HW298382   5.386  13.306  10.633
98829SOL     OW98383   9.171  11.745  12.172
98829SOL    HW198384   9.191  11.752  12.079
98829SOL    HW298385   9.088  11.697  12.176
98830SOL     OW98386   8.619   9.366   3.469
98830SOL    HW198387   8.597   9.436   3.408
98830SOL    HW298388   8.535   9.325   3.490
98831SOL     OW98389  13.551   6.159   1.559
98831SOL    HW198390  13.496   6.228   1.596
98831SOL    HW298391  13.552   6.091   1.625
98832SOL     OW98392   8.587   1.989   0.784
98832SOL    HW198393   8.532   2.018   0.711
98832SOL    HW298394   8.525   1.953   0.848
98833SOL     OW98395   7.946  11.908  11.662
98833SOL    HW198396   7.998  11.827  11.667
98833SOL    HW298397   7.880  11.898  11.730
98834SOL     OW98398   8.500   3.039  13.133
98834SOL    HW198399   8.489   3.013  13.224
98834SOL    HW298400   8.595   3.041  13.120
98835SOL     OW98401   4.931  11.574   5.469
98835SOL    HW198402   4.984  11.568   5.389
98835SOL    HW298403   4.934  11.666   5.493
98836SOL     OW98404   3.711   9.194   8.124
98836SOL    HW198405   3.661   9.276   8.127
98836SOL    HW298406   3.738   9.185   8.033
98837SOL     OW98407   0.016  13.571   0.415
98837SOL    HW198408  14.857  13.636   0.475
98837SOL    HW298409  14.823  13.508   0.402
98838SOL     OW98410   0.735  14.674   2.777
98838SOL    HW198411   0.650  14.687   2.818
98838SOL    HW298412   0.723  14.703   2.687
98839SOL     OW98413   2.369   8.995   2.446
98839SOL    HW198414   2.412   8.962   2.524
98839SOL    HW298415   2.388   9.089   2.446
98840SOL     OW98416   0.416   8.154   8.562
98840SOL    HW198417   0.330   8.112   8.554
98840SOL    HW298418   0.405   8.239   8.520
98841SOL     OW98419   2.172  10.866   5.704
98841SOL    HW198420   2.102  10.836   5.762
98841SOL    HW298421   2.151  10.958   5.688
98842SOL     OW98422   4.395   8.961  11.838
98842SOL    HW198423   4.468   8.899  11.843
98842SOL    HW298424   4.420   9.021  11.767
98843SOL     OW98425   1.565   6.805   8.427
98843SOL    HW198426   1.478   6.768   8.444
98843SOL    HW298427   1.620   6.729   8.409
98844SOL     OW98428   2.488  13.406   7.497
98844SOL    HW198429   2.575  13.387   7.532
98844SOL    HW298430   2.493  13.498   7.470
98845SOL     OW98431   9.794   3.226   4.769
98845SOL    HW198432   9.788   3.319   4.792
98845SOL    HW298433   9.707   3.203   4.739
98846SOL     OW98434   0.274   3.158   6.758
98846SOL    HW198435   0.364   3.143   6.729
98846SOL    HW298436   0.264   3.253   6.755
98847SOL     OW98437  12.329  11.123   9.983
98847SOL    HW198438  12.245  11.092  10.018
98847SOL    HW298439  12.394  11.062  10.019
98848SOL     OW98440   8.627   0.703   2.444
98848SOL    HW198441   8.535   0.725   2.433
98848SOL    HW298442   8.629   0.641   2.516
98849SOL     OW98443   6.354   9.440   3.391
98849SOL    HW198444   6.356   9.365   3.332
98849SOL    HW298445   6.270   9.483   3.373
98850SOL     OW98446  13.528  11.442   6.332
98850SOL    HW198447  13.506  11.412   6.420
98850SOL    HW298448  13.622  11.428   6.325
98851SOL     OW98449   3.442   3.825   0.059
98851SOL    HW198450   3.507   3.882   0.018
98851SOL    HW298451   3.487   3.789   0.136
98852SOL     OW98452  11.339   6.409   0.924
98852SOL    HW198453  11.423   6.442   0.955
98852SOL    HW298454  11.280   6.421   0.999
98853SOL     OW98455   7.743   0.012  13.447
98853SOL    HW198456   7.665   0.028  13.499
98853SOL    HW298457   7.812   0.061  13.493
98854SOL     OW98458   8.623  13.353  12.854
98854SOL    HW198459   8.545  13.352  12.799
98854SOL    HW298460   8.620  13.438  12.899
98855SOL     OW98461  14.207   2.643  14.430
98855SOL    HW198462  14.280   2.642  14.368
98855SOL    HW298463  14.194   2.551  14.453
98856SOL     OW98464  13.552   7.586   2.146
98856SOL    HW198465  13.564   7.519   2.213
98856SOL    HW298466  13.562   7.669   2.193
98857SOL     OW98467   3.318   1.449  11.063
98857SOL    HW198468   3.265   1.420  11.137
98857SOL    HW298469   3.332   1.542  11.078
98858SOL     OW98470   1.154   4.229   6.811
98858SOL    HW198471   1.067   4.266   6.825
98858SOL    HW298472   1.138   4.135   6.796
98859SOL     OW98473   7.940   5.900   4.566
98859SOL    HW198474   7.955   5.845   4.643
98859SOL    HW298475   7.846   5.897   4.552
98860SOL     OW98476  13.569   9.806   2.609
98860SOL    HW198477  13.571   9.892   2.567
98860SOL    HW298478  13.649   9.804   2.662
98861SOL     OW98479  11.847   9.516   2.622
98861SOL    HW198480  11.848   9.428   2.585
98861SOL    HW298481  11.926   9.558   2.586
98862SOL     OW98482   2.955   3.893   3.506
98862SOL    HW198483   2.976   3.986   3.497
98862SOL    HW298484   2.957   3.859   3.416
98863SOL     OW98485  12.746  11.122   4.366
98863SOL    HW198486  12.723  11.186   4.433
98863SOL    HW298487  12.840  11.108   4.377
98864SOL     OW98488   5.114   8.403   4.279
98864SOL    HW198489   5.046   8.350   4.320
98864SOL    HW298490   5.185   8.341   4.260
98865SOL     OW98491   5.931   4.090  12.021
98865SOL    HW198492   5.891   4.095  11.933
98865SOL    HW298493   5.856   4.083  12.080
98866SOL     OW98494   5.282  10.866   2.699
98866SOL    HW198495   5.320  10.892   2.615
98866SOL    HW298496   5.325  10.923   2.763
98867SOL     OW98497   8.198   9.136   8.067
98867SOL    HW198498   8.237   9.121   8.153
98867SOL    HW298499   8.266   9.182   8.018
98868SOL     OW98500   1.061   9.404   8.196
98868SOL    HW198501   1.125   9.428   8.129
98868SOL    HW298502   0.999   9.346   8.151
98869SOL     OW98503   5.344   6.419   2.809
98869SOL    HW198504   5.258   6.453   2.783
98869SOL    HW298505   5.406   6.463   2.750
98870SOL     OW98506   2.721  11.338  13.365
98870SOL    HW198507   2.644  11.303  13.320
98870SOL    HW298508   2.791  11.277  13.342
98871SOL     OW98509   4.805   6.323   0.643
98871SOL    HW198510   4.746   6.335   0.569
98871SOL    HW298511   4.750   6.288   0.712
98872SOL     OW98512  14.237   1.400   4.995
98872SOL    HW198513  14.193   1.412   4.911
98872SOL    HW298514  14.166   1.403   5.059
98873SOL     OW98515  14.353  12.442  11.565
98873SOL    HW198516  14.397  12.526  11.579
98873SOL    HW298517  14.303  12.455  11.484
98874SOL     OW98518   3.912   7.970  12.404
98874SOL    HW198519   3.918   8.026  12.326
98874SOL    HW298520   3.917   7.881  12.370
98875SOL     OW98521  10.748  13.989  13.344
98875SOL    HW198522  10.672  13.935  13.326
98875SOL    HW298523  10.735  14.067  13.290
98876SOL     OW98524  11.981   7.599   7.027
98876SOL    HW198525  11.913   7.625   7.090
98876SOL    HW298526  11.942   7.615   6.941
98877SOL     OW98527   2.622  14.710   7.195
98877SOL    HW198528   2.678  14.726   7.271
98877SOL    HW298529   2.548  14.769   7.207
98878SOL     OW98530   2.389   9.210   5.645
98878SOL    HW198531   2.473   9.164   5.639
98878SOL    HW298532   2.413   9.301   5.661
98879SOL     OW98533  12.256   0.012   0.529
98879SOL    HW198534  12.304   0.067   0.590
98879SOL    HW298535  12.164   0.023   0.554
98880SOL     OW98536   8.382   0.548   8.209
98880SOL    HW198537   8.301   0.596   8.195
98880SOL    HW298538   8.439   0.574   8.137
98881SOL     OW98539   1.806   9.687  11.830
98881SOL    HW198540   1.821   9.664  11.921
98881SOL    HW298541   1.765   9.609  11.792
98882SOL     OW98542   8.889   3.502   7.175
98882SOL    HW198543   8.850   3.552   7.247
98882SOL    HW298544   8.979   3.534   7.170
98883SOL     OW98545   7.702  12.672   1.267
98883SOL    HW198546   7.660  12.743   1.316
98883SOL    HW298547   7.791  12.667   1.302
98884SOL     OW98548   6.000   4.376  11.254
98884SOL    HW198549   5.962   4.387  11.341
98884SOL    HW298550   5.930   4.403  11.194
98885SOL     OW98551  11.425  10.977  14.064
98885SOL    HW198552  11.409  10.934  13.979
98885SOL    HW298553  11.471  10.911  14.115
98886SOL     OW98554   8.819   3.388  11.427
98886SOL    HW198555   8.730   3.411  11.401
98886SOL    HW298556   8.875   3.452  11.383
98887SOL     OW98557   8.181   4.583   5.854
98887SOL    HW198558   8.230   4.501   5.856
98887SOL    HW298559   8.164   4.604   5.946
98888SOL     OW98560   1.649   6.649   8.140
98888SOL    HW198561   1.676   6.741   8.138
98888SOL    HW298562   1.727   6.601   8.169
98889SOL     OW98563   3.595  11.649  12.185
98889SOL    HW198564   3.650  11.571  12.194
98889SOL    HW298565   3.644  11.707  12.127
98890SOL     OW98566  11.349   5.011   5.573
98890SOL    HW198567  11.373   4.969   5.490
98890SOL    HW298568  11.254   5.022   5.568
98891SOL     OW98569   4.744  10.713  13.991
98891SOL    HW198570   4.837  10.723  13.969
98891SOL    HW298571   4.742  10.642  14.055
98892SOL     OW98572   8.472  14.224   5.520
98892SOL    HW198573   8.557  14.240   5.479
98892SOL    HW298574   8.494  14.202   5.611
98893SOL     OW98575   4.537   2.890   2.282
98893SOL    HW198576   4.631   2.898   2.266
98893SOL    HW298577   4.497   2.956   2.224
98894SOL     OW98578   7.745  13.394   5.612
98894SOL    HW198579   7.832  13.380   5.647
98894SOL    HW298580   7.692  13.323   5.650
98895SOL     OW98581  10.156   9.668   0.622
98895SOL    HW198582  10.098   9.744   0.623
98895SOL    HW298583  10.244   9.705   0.627
98896SOL     OW98584  13.170  12.068   0.994
98896SOL    HW198585  13.157  12.152   1.038
98896SOL    HW298586  13.169  12.004   1.065
98897SOL     OW98587  12.948   0.970  14.681
98897SOL    HW198588  12.853   0.958  14.686
98897SOL    HW298589  12.960   1.065  14.673
98898SOL     OW98590   9.801   7.066  10.066
98898SOL    HW198591   9.866   7.060  10.136
98898SOL    HW298592   9.845   7.028   9.990
98899SOL     OW98593  13.084  13.058  14.643
98899SOL    HW198594  13.106  12.974  14.685
98899SOL    HW298595  13.044  13.033  14.560
98900SOL     OW98596   5.221  10.617   2.619
98900SOL    HW198597   5.249  10.708   2.614
98900SOL    HW298598   5.203  10.603   2.712
98901SOL     OW98599   8.215   3.694   7.598
98901SOL    HW198600   8.190   3.752   7.526
98901SOL    HW298601   8.258   3.620   7.555
98902SOL     OW98602   9.024  10.893   8.493
98902SOL    HW198603   9.096  10.833   8.477
98902SOL    HW298604   8.957  10.868   8.429
98903SOL     OW98605  12.352   0.964   2.582
98903SOL    HW198606  12.357   1.052   2.545
98903SOL    HW298607  12.313   0.976   2.669
98904SOL     OW98608   0.011   7.795  10.969
98904SOL    HW198609   0.040   7.884  10.989
98904SOL    HW298610  14.794   7.796  10.984
98905SOL     OW98611  12.714   1.822   9.428
98905SOL    HW198612  12.733   1.894   9.368
98905SOL    HW298613  12.787   1.822   9.490
98906SOL     OW98614  12.193   1.757   7.352
98906SOL    HW198615  12.234   1.842   7.364
98906SOL    HW298616  12.099   1.776   7.346
98907SOL     OW98617  13.123   3.795   5.056
98907SOL    HW198618  13.068   3.761   5.127
98907SOL    HW298619  13.068   3.860   5.013
98908SOL     OW98620  14.350   8.517  11.884
98908SOL    HW198621  14.357   8.457  11.958
98908SOL    HW298622  14.436   8.559  11.880
98909SOL     OW98623  13.315   6.697  10.323
98909SOL    HW198624  13.228   6.687  10.363
98909SOL    HW298625  13.372   6.641  10.375
98910SOL     OW98626   7.657   1.309  13.543
98910SOL    HW198627   7.700   1.224  13.538
98910SOL    HW298628   7.722   1.372  13.513
98911SOL     OW98629   2.964   6.172  11.490
98911SOL    HW198630   3.058   6.185  11.483
98911SOL    HW298631   2.929   6.209  11.408
98912SOL     OW98632   6.810   4.585   4.396
98912SOL    HW198633   6.726   4.540   4.384
98912SOL    HW298634   6.831   4.572   4.488
98913SOL     OW98635   1.895  11.785   4.839
98913SOL    HW198636   1.800  11.788   4.851
98913SOL    HW298637   1.908  11.755   4.749
98914SOL     OW98638  13.620  13.658   5.168
98914SOL    HW198639  13.621  13.660   5.073
98914SOL    HW298640  13.588  13.745   5.194
98915SOL     OW98641   3.315   6.647   4.643
98915SOL    HW198642   3.296   6.554   4.630
98915SOL    HW298643   3.232   6.691   4.622
98916SOL     OW98644   1.178  11.077  14.711
98916SOL    HW198645   1.090  11.115  14.717
98916SOL    HW298646   1.164  10.993  14.667
98917SOL     OW98647   8.339   8.325  13.381
98917SOL    HW198648   8.315   8.341  13.290
98917SOL    HW298649   8.380   8.407  13.410
98918SOL     OW98650   9.896   9.816  12.037
98918SOL    HW198651   9.866   9.865  12.113
98918SOL    HW298652   9.825   9.753  12.020
98919SOL     OW98653   9.490  13.477   5.806
98919SOL    HW198654   9.400  13.489   5.838
98919SOL    HW298655   9.522  13.401   5.855
98920SOL     OW98656   9.437  12.332   1.788
98920SOL    HW198657   9.441  12.236   1.789
98920SOL    HW298658   9.430  12.355   1.695
98921SOL     OW98659   1.697   2.339   3.946
98921SOL    HW198660   1.737   2.291   4.019
98921SOL    HW298661   1.636   2.400   3.987
98922SOL     OW98662   3.405  12.554   8.998
98922SOL    HW198663   3.356  12.608   9.059
98922SOL    HW298664   3.496  12.580   9.010
98923SOL     OW98665   0.936  11.558   5.958
98923SOL    HW198666   0.975  11.645   5.949
98923SOL    HW298667   0.881  11.547   5.880
98924SOL     OW98668   2.830   8.764  13.822
98924SOL    HW198669   2.869   8.788  13.738
98924SOL    HW298670   2.759   8.703  13.799
98925SOL     OW98671   2.666  11.122  11.678
98925SOL    HW198672   2.740  11.108  11.737
98925SOL    HW298673   2.677  11.056  11.610
98926SOL     OW98674   8.440   8.925   9.316
98926SOL    HW198675   8.535   8.940   9.324
98926SOL    HW298676   8.400   9.004   9.351
98927SOL     OW98677   9.068   8.063   5.886
98927SOL    HW198678   9.038   8.001   5.953
98927SOL    HW298679   9.086   8.008   5.810
98928SOL     OW98680   6.073  14.332   4.257
98928SOL    HW198681   6.129  14.316   4.333
98928SOL    HW298682   6.017  14.405   4.284
98929SOL     OW98683  12.633  10.111   0.648
98929SOL    HW198684  12.688  10.116   0.570
98929SOL    HW298685  12.609  10.201   0.667
98930SOL     OW98686   1.209  11.566  13.558
98930SOL    HW198687   1.208  11.587  13.464
98930SOL    HW298688   1.189  11.649  13.601
98931SOL     OW98689   7.331   5.327  12.959
98931SOL    HW198690   7.411   5.280  12.984
98931SOL    HW298691   7.280   5.263  12.909
98932SOL     OW98692   4.900   0.607  12.432
98932SOL    HW198693   4.839   0.608  12.505
98932SOL    HW298694   4.855   0.656  12.363
98933SOL     OW98695  11.333   5.391   1.560
98933SOL    HW198696  11.385   5.437   1.494
98933SOL    HW298697  11.377   5.306   1.569
98934SOL     OW98698   8.867   2.516   9.069
98934SOL    HW198699   8.835   2.602   9.093
98934SOL    HW298700   8.803   2.455   9.106
98935SOL     OW98701   7.043  13.708  10.764
98935SOL    HW198702   7.016  13.771  10.832
98935SOL    HW298703   7.138  13.698  10.778
98936SOL     OW98704   5.516   5.704   4.557
98936SOL    HW198705   5.584   5.661   4.609
98936SOL    HW298706   5.473   5.764   4.618
98937SOL     OW98707   7.999   7.526   8.475
98937SOL    HW198708   7.937   7.549   8.543
98937SOL    HW298709   7.946   7.488   8.405
98938SOL     OW98710  12.993   3.220   0.616
98938SOL    HW198711  13.044   3.273   0.678
98938SOL    HW298712  13.035   3.134   0.618
98939SOL     OW98713  12.160  14.381   2.182
98939SOL    HW198714  12.214  14.354   2.108
98939SOL    HW298715  12.196  14.335   2.257
98940SOL     OW98716   2.375   8.106   9.219
98940SOL    HW198717   2.339   8.095   9.131
98940SOL    HW298718   2.395   8.017   9.248
98941SOL     OW98719   1.874   1.578   7.509
98941SOL    HW198720   1.948   1.624   7.469
98941SOL    HW298721   1.905   1.555   7.597
98942SOL     OW98722   7.865   7.340   2.553
98942SOL    HW198723   7.863   7.384   2.638
98942SOL    HW298724   7.781   7.294   2.548
98943SOL     OW98725  13.716  14.178   2.905
98943SOL    HW198726  13.766  14.121   2.964
98943SOL    HW298727  13.727  14.140   2.818
98944SOL     OW98728   2.768  13.419   4.832
98944SOL    HW198729   2.753  13.344   4.889
98944SOL    HW298730   2.831  13.473   4.880
98945SOL     OW98731  14.161   2.393   7.299
98945SOL    HW198732  14.240   2.420   7.254
98945SOL    HW298733  14.192   2.354   7.381
98946SOL     OW98734   1.063   0.767   6.788
98946SOL    HW198735   1.155   0.771   6.813
98946SOL    HW298736   1.044   0.673   6.780
98947SOL     OW98737   4.473   8.722  12.920
98947SOL    HW198738   4.441   8.725  12.830
98947SOL    HW298739   4.411   8.776  12.969
98948SOL     OW98740   0.151  13.273  14.528
98948SOL    HW198741   0.059  13.290  14.509
98948SOL    HW298742   0.150  13.194  14.582
98949SOL     OW98743   3.976  12.731   4.107
98949SOL    HW198744   3.890  12.718   4.148
98949SOL    HW298745   4.025  12.784   4.170
98950SOL     OW98746   5.081   5.981   0.286
98950SOL    HW198747   5.059   6.060   0.337
98950SOL    HW298748   5.122   6.015   0.207
98951SOL     OW98749   7.262  11.949  12.305
98951SOL    HW198750   7.168  11.941  12.316
98951SOL    HW298751   7.298  11.867  12.339
98952SOL     OW98752   2.176   7.093   4.846
98952SOL    HW198753   2.108   7.120   4.785
98952SOL    HW298754   2.132   7.033   4.907
98953SOL     OW98755   0.220   1.102   5.984
98953SOL    HW198756   0.221   1.100   6.079
98953SOL    HW298757   0.139   1.056   5.960
98954SOL     OW98758   8.223  14.092   7.138
98954SOL    HW198759   8.150  14.119   7.082
98954SOL    HW298760   8.261  14.017   7.093
98955SOL     OW98761  11.065   5.284  11.159
98955SOL    HW198762  11.022   5.228  11.095
98955SOL    HW298763  11.057   5.373  11.123
98956SOL     OW98764   9.574   4.000   4.686
98956SOL    HW198765   9.546   4.012   4.595
98956SOL    HW298766   9.529   4.069   4.734
98957SOL     OW98767  10.008   3.182  12.471
98957SOL    HW198768  10.064   3.105  12.460
98957SOL    HW298769   9.963   3.166  12.554
98958SOL     OW98770   4.426   5.317   7.452
98958SOL    HW198771   4.449   5.277   7.537
98958SOL    HW298772   4.502   5.299   7.396
98959SOL     OW98773  11.467   8.271   2.397
98959SOL    HW198774  11.477   8.326   2.319
98959SOL    HW298775  11.394   8.309   2.444
98960SOL     OW98776   1.308  14.676  11.239
98960SOL    HW198777   1.316  14.588  11.201
98960SOL    HW298778   1.333  14.735  11.168
98961SOL     OW98779   8.081   3.341  13.674
98961SOL    HW198780   8.090   3.433  13.652
98961SOL    HW298781   8.166   3.303  13.652
98962SOL     OW98782  14.506  14.389   9.525
98962SOL    HW198783  14.438  14.400   9.591
98962SOL    HW298784  14.463  14.344   9.453
98963SOL     OW98785   2.444   4.244  13.955
98963SOL    HW198786   2.437   4.293  14.037
98963SOL    HW298787   2.501   4.171  13.975
98964SOL     OW98788  12.077  12.160   8.262
98964SOL    HW198789  12.070  12.100   8.188
98964SOL    HW298790  12.127  12.112   8.328
98965SOL     OW98791   6.742  10.561   1.386
98965SOL    HW198792   6.773  10.515   1.464
98965SOL    HW298793   6.683  10.500   1.343
98966SOL     OW98794   6.843   8.505   4.790
98966SOL    HW198795   6.790   8.585   4.781
98966SOL    HW298796   6.928   8.528   4.753
98967SOL     OW98797   2.904   8.444  12.864
98967SOL    HW198798   2.920   8.537  12.877
98967SOL    HW298799   2.828   8.440  12.806
98968SOL     OW98800   8.701   3.663   0.031
98968SOL    HW198801   8.757   3.719  14.855
98968SOL    HW298802   8.735   3.575   0.017
98969SOL     OW98803  12.245   1.676   9.509
98969SOL    HW198804  12.217   1.768   9.511
98969SOL    HW298805  12.340   1.681   9.512
98970SOL     OW98806   8.240  11.926   7.150
98970SOL    HW198807   8.153  11.932   7.188
98970SOL    HW298808   8.299  11.963   7.216
98971SOL     OW98809   9.581   3.704  10.075
98971SOL    HW198810   9.485   3.699  10.075
98971SOL    HW298811   9.603   3.736   9.987
98972SOL     OW98812   9.487  11.366  10.315
98972SOL    HW198813   9.573  11.407  10.328
98972SOL    HW298814   9.484  11.345  10.222
98973SOL     OW98815   8.076   4.784  13.827
98973SOL    HW198816   7.993   4.772  13.872
98973SOL    HW298817   8.142   4.749  13.887
98974SOL     OW98818  12.942   3.185   6.772
98974SOL    HW198819  12.927   3.171   6.865
98974SOL    HW298820  12.877   3.251   6.746
98975SOL     OW98821   0.777   0.353   4.322
98975SOL    HW198822   0.846   0.418   4.308
98975SOL    HW298823   0.773   0.304   4.239
98976SOL     OW98824  13.953   3.874   2.447
98976SOL    HW198825  13.973   3.797   2.501
98976SOL    HW298826  14.028   3.882   2.389
98977SOL     OW98827   3.395  12.770   1.534
98977SOL    HW198828   3.385  12.734   1.622
98977SOL    HW298829   3.456  12.710   1.491
98978SOL     OW98830   7.149   0.858   5.387
98978SOL    HW198831   7.137   0.788   5.323
98978SOL    HW298832   7.238   0.845   5.421
98979SOL     OW98833   7.118   3.752   1.853
98979SOL    HW198834   7.072   3.832   1.878
98979SOL    HW298835   7.144   3.766   1.762
98980SOL     OW98836   7.762   5.461  10.126
98980SOL    HW198837   7.806   5.545  10.113
98980SOL    HW298838   7.705   5.452  10.049
98981SOL     OW98839  11.435  10.727  10.980
98981SOL    HW198840  11.383  10.801  10.948
98981SOL    HW298841  11.373  10.673  11.028
98982SOL     OW98842   6.271   3.965   4.718
98982SOL    HW198843   6.291   3.906   4.645
98982SOL    HW298844   6.178   3.952   4.735
98983SOL     OW98845   9.931   3.876   2.905
98983SOL    HW198846   9.948   3.845   2.816
98983SOL    HW298847   9.889   3.802   2.949
98984SOL     OW98848   3.696   1.278   8.061
98984SOL    HW198849   3.614   1.264   8.108
98984SOL    HW298850   3.689   1.221   7.984
98985SOL     OW98851  10.227  11.502   3.570
98985SOL    HW198852  10.228  11.472   3.661
98985SOL    HW298853  10.264  11.428   3.520
98986SOL     OW98854  10.469  13.270   1.036
98986SOL    HW198855  10.455  13.177   1.050
98986SOL    HW298856  10.519  13.276   0.955
98987SOL     OW98857   4.833  10.337  14.183
98987SOL    HW198858   4.817  10.344  14.278
98987SOL    HW298859   4.926  10.317  14.176
98988SOL     OW98860  12.068   6.741  13.492
98988SOL    HW198861  12.020   6.758  13.573
98988SOL    HW298862  12.159   6.728  13.520
98989SOL     OW98863  10.400   4.318  12.912
98989SOL    HW198864  10.405   4.283  12.822
98989SOL    HW298865  10.462   4.390  12.913
98990SOL     OW98866   4.824  12.374   0.235
98990SOL    HW198867   4.800  12.291   0.195
98990SOL    HW298868   4.904  12.356   0.284
98991SOL     OW98869   3.353   9.868   3.945
98991SOL    HW198870   3.275   9.913   3.913
98991SOL    HW298871   3.400   9.934   3.997
98992SOL     OW98872  13.079   9.796   7.503
98992SOL    HW198873  13.130   9.753   7.572
98992SOL    HW298874  13.109   9.755   7.422
98993SOL     OW98875   2.101  11.497  14.839
98993SOL    HW198876   2.135  11.510  14.750
98993SOL    HW298877   2.037  11.426  14.830
98994SOL     OW98878   9.196   3.270   1.876
98994SOL    HW198879   9.258   3.244   1.944
98994SOL    HW298880   9.244   3.257   1.794
98995SOL     OW98881   4.925   9.570  11.205
98995SOL    HW198882   5.001   9.533  11.250
98995SOL    HW298883   4.961   9.613  11.128
98996SOL     OW98884   4.516   3.111  12.240
98996SOL    HW198885   4.520   3.074  12.328
98996SOL    HW298886   4.515   3.206  12.254
98997SOL     OW98887  13.885   7.207  11.829
98997SOL    HW198888  13.855   7.289  11.791
98997SOL    HW298889  13.975   7.225  11.856
98998SOL     OW98890   1.289  12.214   9.291
98998SOL    HW198891   1.380  12.185   9.298
98998SOL    HW298892   1.282  12.289   9.350
98999SOL     OW98893   8.847   6.723   8.581
98999SOL    HW198894   8.879   6.773   8.506
98999SOL    HW298895   8.801   6.787   8.635
99000SOL     OW98896   1.248   5.328   9.134
99000SOL    HW198897   1.222   5.339   9.225
99000SOL    HW298898   1.278   5.415   9.107
99001SOL     OW98899   5.997   7.667   6.900
99001SOL    HW198900   5.968   7.576   6.889
99001SOL    HW298901   6.056   7.682   6.826
99002SOL     OW98902  13.185   3.910  10.392
99002SOL    HW198903  13.096   3.899  10.356
99002SOL    HW298904  13.230   3.829  10.366
99003SOL     OW98905  13.673   0.827   1.582
99003SOL    HW198906  13.683   0.759   1.515
99003SOL    HW298907  13.690   0.909   1.536
99004SOL     OW98908   1.885   3.976   2.479
99004SOL    HW198909   1.843   3.900   2.519
99004SOL    HW298910   1.939   3.939   2.409
99005SOL     OW98911   8.367   2.021   1.126
99005SOL    HW198912   8.379   1.955   1.058
99005SOL    HW298913   8.322   2.093   1.082
99006SOL     OW98914  10.972   7.904   2.041
99006SOL    HW198915  10.880   7.901   2.067
99006SOL    HW298916  11.007   7.819   2.069
99007SOL     OW98917   8.588   8.718   5.284
99007SOL    HW198918   8.537   8.759   5.354
99007SOL    HW298919   8.611   8.791   5.226
99008SOL     OW98920  11.589   0.160  10.664
99008SOL    HW198921  11.604   0.251  10.636
99008SOL    HW298922  11.509   0.163  10.715
99009SOL     OW98923  11.761  10.941   6.743
99009SOL    HW198924  11.780  10.981   6.828
99009SOL    HW298925  11.793  11.005   6.679
99010SOL     OW98926   6.859   9.521   3.589
99010SOL    HW198927   6.926   9.453   3.588
99010SOL    HW298928   6.815   9.510   3.673
99011SOL     OW98929   6.145   7.573  12.170
99011SOL    HW198930   6.105   7.488  12.187
99011SOL    HW298931   6.118   7.628  12.244
99012SOL     OW98932  14.440  13.064   0.532
99012SOL    HW198933  14.487  12.983   0.514
99012SOL    HW298934  14.481  13.099   0.610
99013SOL     OW98935  14.279   9.474   7.730
99013SOL    HW198936  14.236   9.551   7.769
99013SOL    HW298937  14.211   9.433   7.676
99014SOL     OW98938  14.238   1.943   4.579
99014SOL    HW198939  14.236   2.019   4.636
99014SOL    HW298940  14.158   1.895   4.599
99015SOL     OW98941   0.063   5.743   4.673
99015SOL    HW198942   0.068   5.775   4.763
99015SOL    HW298943   0.090   5.818   4.620
99016SOL     OW98944  11.362   5.379  10.818
99016SOL    HW198945  11.338   5.417  10.734
99016SOL    HW298946  11.310   5.427  10.882
99017SOL     OW98947   3.254  10.866   8.758
99017SOL    HW198948   3.160  10.883   8.753
99017SOL    HW298949   3.268  10.826   8.843
99018SOL     OW98950   7.970  11.535   2.124
99018SOL    HW198951   7.968  11.577   2.038
99018SOL    HW298952   7.883  11.499   2.135
99019SOL     OW98953  14.300   7.866   5.295
99019SOL    HW198954  14.326   7.783   5.256
99019SOL    HW298955  14.325   7.858   5.387
99020SOL     OW98956   6.419   3.946   1.106
99020SOL    HW198957   6.486   3.950   1.174
99020SOL    HW298958   6.413   3.853   1.084
99021SOL     OW98959   2.671  14.259  12.788
99021SOL    HW198960   2.664  14.186  12.727
99021SOL    HW298961   2.726  14.226  12.859
99022SOL     OW98962  13.968  13.256  10.821
99022SOL    HW198963  13.989  13.163  10.807
99022SOL    HW298964  14.016  13.302  10.752
99023SOL     OW98965   5.973   5.788  10.193
99023SOL    HW198966   5.987   5.702  10.155
99023SOL    HW298967   6.059   5.814  10.226
99024SOL     OW98968   2.299   6.911  13.492
99024SOL    HW198969   2.387   6.872  13.499
99024SOL    HW298970   2.281   6.944  13.580
99025SOL     OW98971  12.217   8.095  13.681
99025SOL    HW198972  12.263   8.096  13.764
99025SOL    HW298973  12.284   8.077  13.615
99026SOL     OW98974   0.104   3.763  11.154
99026SOL    HW198975   0.094   3.668  11.150
99026SOL    HW298976   0.161   3.778  11.229
99027SOL     OW98977   2.842   6.877   4.940
99027SOL    HW198978   2.877   6.789   4.922
99027SOL    HW298979   2.785   6.864   5.016
99028SOL     OW98980   9.867   4.278  10.569
99028SOL    HW198981   9.954   4.279  10.609
99028SOL    HW298982   9.817   4.215  10.622
99029SOL     OW98983   7.772  10.969   2.638
99029SOL    HW198984   7.731  11.056   2.637
99029SOL    HW298985   7.701  10.910   2.664
99030SOL     OW98986   0.640   5.756   6.025
99030SOL    HW198987   0.675   5.699   5.957
99030SOL    HW298988   0.546   5.740   6.025
99031SOL     OW98989   1.801   1.916  10.364
99031SOL    HW198990   1.755   2.000  10.377
99031SOL    HW298991   1.785   1.869  10.446
99032SOL     OW98992   2.236   9.417  11.285
99032SOL    HW198993   2.324   9.380  11.287
99032SOL    HW298994   2.208   9.409  11.194
99033SOL     OW98995   6.494  10.895   7.291
99033SOL    HW198996   6.464  10.873   7.202
99033SOL    HW298997   6.498  10.810   7.336
99034SOL     OW98998   3.791  10.422   5.364
99034SOL    HW198999   3.782  10.495   5.303
99034SOL    HW299000   3.885  10.408   5.371
99035SOL     OW99001   2.198   9.256   3.762
99035SOL    HW199002   2.133   9.214   3.818
99035SOL    HW299003   2.152   9.270   3.679
99036SOL     OW99004  12.912   1.671   6.852
99036SOL    HW199005  12.853   1.668   6.776
99036SOL    HW299006  12.993   1.708   6.818
99037SOL     OW99007  13.032   1.016   1.559
99037SOL    HW199008  12.986   1.079   1.503
99037SOL    HW299009  12.995   1.030   1.646
99038SOL     OW99010   1.838   5.073   8.790
99038SOL    HW199011   1.800   5.036   8.710
99038SOL    HW299012   1.781   5.042   8.860
99039SOL     OW99013  10.719  13.268   9.071
99039SOL    HW199014  10.679  13.310   8.995
99039SOL    HW299015  10.811  13.296   9.069
99040SOL     OW99016   8.728   6.224   5.176
99040SOL    HW199017   8.736   6.156   5.108
99040SOL    HW299018   8.640   6.260   5.164
99041SOL     OW99019   6.857   0.258   2.935
99041SOL    HW199020   6.909   0.316   2.991
99041SOL    HW299021   6.916   0.184   2.917
99042SOL     OW99022   6.738   9.861   0.408
99042SOL    HW199023   6.810   9.798   0.402
99042SOL    HW299024   6.662   9.815   0.371
99043SOL     OW99025  11.240  13.979   9.290
99043SOL    HW199026  11.270  13.889   9.305
99043SOL    HW299027  11.160  13.987   9.341
99044SOL     OW99028   4.470   7.943   5.789
99044SOL    HW199029   4.402   8.000   5.753
99044SOL    HW299030   4.529   7.926   5.715
99045SOL     OW99031   4.945   5.126   4.248
99045SOL    HW199032   4.906   5.130   4.161
99045SOL    HW299033   4.932   5.035   4.275
99046SOL     OW99034   2.890  13.708   5.387
99046SOL    HW199035   2.959  13.737   5.446
99046SOL    HW299036   2.848  13.789   5.357
99047SOL     OW99037  10.847   4.808   1.570
99047SOL    HW199038  10.755   4.802   1.595
99047SOL    HW299039  10.845   4.840   1.480
99048SOL     OW99040   9.417  10.231   1.341
99048SOL    HW199041   9.500  10.185   1.351
99048SOL    HW299042   9.436  10.306   1.285
99049SOL     OW99043  12.953  12.849  13.352
99049SOL    HW199044  12.975  12.850  13.445
99049SOL    HW299045  12.959  12.941  13.326
99050SOL     OW99046   2.755  13.229  10.761
99050SOL    HW199047   2.684  13.290  10.738
99050SOL    HW299048   2.718  13.176  10.831
99051SOL     OW99049  11.603   1.386  11.760
99051SOL    HW199050  11.612   1.291  11.774
99051SOL    HW299051  11.634   1.400  11.671
99052SOL     OW99052   7.580   7.963   9.888
99052SOL    HW199053   7.546   7.877   9.914
99052SOL    HW299054   7.619   7.949   9.802
99053SOL     OW99055  11.033  13.657  11.714
99053SOL    HW199056  10.973  13.728  11.690
99053SOL    HW299057  11.049  13.670  11.807
99054SOL     OW99058  10.653   8.126   5.465
99054SOL    HW199059  10.565   8.130   5.502
99054SOL    HW299060  10.710   8.104   5.539
99055SOL     OW99061  10.351  13.693  14.164
99055SOL    HW199062  10.358  13.630  14.092
99055SOL    HW299063  10.282  13.657  14.220
99056SOL     OW99064   6.722   2.057  12.902
99056SOL    HW199065   6.633   2.079  12.927
99056SOL    HW299066   6.711   1.986  12.837
99057SOL     OW99067   7.203   8.403   3.127
99057SOL    HW199068   7.175   8.451   3.204
99057SOL    HW299069   7.221   8.472   3.062
99058SOL     OW99070   3.268  13.693   0.730
99058SOL    HW199071   3.282  13.608   0.772
99058SOL    HW299072   3.230  13.672   0.645
99059SOL     OW99073  11.684   7.075   8.492
99059SOL    HW199074  11.754   7.139   8.475
99059SOL    HW299075  11.727   7.007   8.544
99060SOL     OW99076   1.585   0.953   3.295
99060SOL    HW199077   1.651   0.914   3.352
99060SOL    HW299078   1.610   1.045   3.288
99061SOL     OW99079  12.210  11.484  13.073
99061SOL    HW199080  12.221  11.535  12.993
99061SOL    HW299081  12.277  11.417  13.068
99062SOL     OW99082   4.172   7.466   2.718
99062SOL    HW199083   4.220   7.396   2.763
99062SOL    HW299084   4.080   7.445   2.731
99063SOL     OW99085   5.371   5.521  12.982
99063SOL    HW199086   5.436   5.581  13.020
99063SOL    HW299087   5.421   5.466  12.922
99064SOL     OW99088   1.653  10.409   3.827
99064SOL    HW199089   1.682  10.326   3.866
99064SOL    HW299090   1.568  10.425   3.866
99065SOL     OW99091  12.912   3.312  12.354
99065SOL    HW199092  12.866   3.388  12.388
99065SOL    HW299093  12.982   3.296  12.417
99066SOL     OW99094   2.645   7.331   8.715
99066SOL    HW199095   2.553   7.304   8.719
99066SOL    HW299096   2.670   7.317   8.624
99067SOL     OW99097   7.681   8.542  14.062
99067SOL    HW199098   7.644   8.551  13.974
99067SOL    HW299099   7.682   8.448  14.078
99068SOL     OW99100   9.229   1.846   2.870
99068SOL    HW199101   9.151   1.840   2.814
99068SOL    HW299102   9.261   1.935   2.856
99069SOL     OW99103   8.325   7.008  10.548
99069SOL    HW199104   8.406   7.058  10.559
99069SOL    HW299105   8.354   6.917  10.546
99070SOL     OW99106   9.689   3.982  12.185
99070SOL    HW199107   9.620   3.995  12.119
99070SOL    HW299108   9.650   4.014  12.267
99071SOL     OW99109  14.646  13.040   6.634
99071SOL    HW199110  14.713  12.987   6.677
99071SOL    HW299111  14.594  12.976   6.584
99072SOL     OW99112   0.379   0.982   4.451
99072SOL    HW199113   0.289   0.955   4.465
99072SOL    HW299114   0.416   0.915   4.394
99073SOL     OW99115   1.545   9.665   0.719
99073SOL    HW199116   1.634   9.699   0.731
99073SOL    HW299117   1.490   9.743   0.713
99074SOL     OW99118   4.496  14.047   1.479
99074SOL    HW199119   4.542  14.088   1.552
99074SOL    HW299120   4.559  13.984   1.443
99075SOL     OW99121   1.014   0.158  10.862
99075SOL    HW199122   1.025   0.069  10.896
99075SOL    HW299123   1.031   0.215  10.936
99076SOL     OW99124   7.268   3.628   6.934
99076SOL    HW199125   7.254   3.662   7.023
99076SOL    HW299126   7.355   3.661   6.910
99077SOL     OW99127   4.821   7.357   9.220
99077SOL    HW199128   4.728   7.359   9.242
99077SOL    HW299129   4.865   7.396   9.295
99078SOL     OW99130   4.580   2.149   5.796
99078SOL    HW199131   4.498   2.148   5.846
99078SOL    HW299132   4.601   2.057   5.783
99079SOL     OW99133  13.421   3.478  11.821
99079SOL    HW199134  13.474   3.554  11.845
99079SOL    HW299135  13.360   3.467  11.894
99080SOL     OW99136   5.569   7.373   5.791
99080SOL    HW199137   5.502   7.379   5.723
99080SOL    HW299138   5.608   7.460   5.794
99081SOL     OW99139   0.445  14.726  10.118
99081SOL    HW199140   0.414  14.809  10.154
99081SOL    HW299141   0.491  14.684  10.191
99082SOL     OW99142   2.239   5.750   8.562
99082SOL    HW199143   2.272   5.788   8.643
99082SOL    HW299144   2.305   5.774   8.496
99083SOL     OW99145   6.005  10.744   0.970
99083SOL    HW199146   5.961  10.669   1.010
99083SOL    HW299147   6.091  10.746   1.012
99084SOL     OW99148  13.445  10.009   2.885
99084SOL    HW199149  13.520  10.067   2.885
99084SOL    HW299150  13.410  10.015   2.796
99085SOL     OW99151  11.730   5.762   7.439
99085SOL    HW199152  11.743   5.814   7.359
99085SOL    HW299153  11.727   5.826   7.509
99086SOL     OW99154  12.387  12.127  11.555
99086SOL    HW199155  12.319  12.190  11.531
99086SOL    HW299156  12.364  12.047  11.508
99087SOL     OW99157  14.339   5.998   1.180
99087SOL    HW199158  14.289   6.046   1.114
99087SOL    HW299159  14.278   5.986   1.252
99088SOL     OW99160   9.893  12.739   5.531
99088SOL    HW199161   9.937  12.672   5.584
99088SOL    HW299162   9.804  12.743   5.566
99089SOL     OW99163   2.984   0.098   0.870
99089SOL    HW199164   2.890   0.093   0.886
99089SOL    HW299165   3.023   0.040   0.936
99090SOL     OW99166   3.612   0.449   6.829
99090SOL    HW199167   3.563   0.367   6.829
99090SOL    HW299168   3.598   0.485   6.741
99091SOL     OW99169  13.601  14.450  10.495
99091SOL    HW199170  13.694  14.440  10.513
99091SOL    HW299171  13.570  14.510  10.563
99092SOL     OW99172   0.398   3.306   7.225
99092SOL    HW199173   0.454   3.334   7.297
99092SOL    HW299174   0.442   3.228   7.190
99093SOL     OW99175   5.274   0.728  10.504
99093SOL    HW199176   5.277   0.824  10.498
99093SOL    HW299177   5.263   0.711  10.598
99094SOL     OW99178   7.481   4.013   7.104
99094SOL    HW199179   7.390   4.005   7.131
99094SOL    HW299180   7.500   4.106   7.109
99095SOL     OW99181   5.083   2.664   8.701
99095SOL    HW199182   5.077   2.576   8.662
99095SOL    HW299183   5.102   2.721   8.626
99096SOL     OW99184   9.050  13.682  14.242
99096SOL    HW199185   9.129  13.627  14.246
99096SOL    HW299186   9.030  13.688  14.149
99097SOL     OW99187  14.000   0.706   3.725
99097SOL    HW199188  13.978   0.667   3.809
99097SOL    HW299189  14.072   0.653   3.691
99098SOL     OW99190   0.702  14.473   7.365
99098SOL    HW199191   0.718  14.559   7.405
99098SOL    HW299192   0.636  14.433   7.420
99099SOL     OW99193   3.788   6.995   4.952
99099SOL    HW199194   3.877   6.965   4.969
99099SOL    HW299195   3.759   7.033   5.035
99100SOL     OW99196   6.309  14.122   7.434
99100SOL    HW199197   6.283  14.109   7.525
99100SOL    HW299198   6.281  14.042   7.390
99101SOL     OW99199   5.404   1.764   6.911
99101SOL    HW199200   5.425   1.671   6.910
99101SOL    HW299201   5.449   1.798   6.988
99102SOL     OW99202  10.627   3.965  13.262
99102SOL    HW199203  10.549   3.963  13.317
99102SOL    HW299204  10.691   3.911  13.309
99103SOL     OW99205  13.492   6.307   6.569
99103SOL    HW199206  13.485   6.253   6.648
99103SOL    HW299207  13.489   6.397   6.600
99104SOL     OW99208   4.529   0.638   0.893
99104SOL    HW199209   4.462   0.682   0.946
99104SOL    HW299210   4.609   0.687   0.910
99105SOL     OW99211   8.828   9.077   0.670
99105SOL    HW199212   8.768   9.012   0.636
99105SOL    HW299213   8.869   9.036   0.746
99106SOL     OW99214  13.760  14.238   3.280
99106SOL    HW199215  13.692  14.306   3.276
99106SOL    HW299216  13.841  14.286   3.296
99107SOL     OW99217   0.945   6.208   2.649
99107SOL    HW199218   0.906   6.292   2.622
99107SOL    HW299219   1.032   6.231   2.680
99108SOL     OW99220   6.760   7.206   7.023
99108SOL    HW199221   6.839   7.156   7.045
99108SOL    HW299222   6.753   7.272   7.092
99109SOL     OW99223   7.161   7.978  11.231
99109SOL    HW199224   7.127   7.904  11.281
99109SOL    HW299225   7.245   7.998  11.273
99110SOL     OW99226   4.658  12.127  12.731
99110SOL    HW199227   4.743  12.142  12.689
99110SOL    HW299228   4.640  12.208  12.779
99111SOL     OW99229   2.406  11.213  14.038
99111SOL    HW199230   2.375  11.128  14.066
99111SOL    HW299231   2.484  11.194  13.986
99112SOL     OW99232   5.288   8.410   7.680
99112SOL    HW199233   5.342   8.431   7.756
99112SOL    HW299234   5.278   8.493   7.633
99113SOL     OW99235  14.790   7.826   3.726
99113SOL    HW199236  14.734   7.864   3.794
99113SOL    HW299237  14.760   7.867   3.645
99114SOL     OW99238   6.459   1.358   9.836
99114SOL    HW199239   6.376   1.379   9.792
99114SOL    HW299240   6.504   1.442   9.843
99115SOL     OW99241   6.306   1.524  10.163
99115SOL    HW199242   6.310   1.513  10.258
99115SOL    HW299243   6.306   1.618  10.150
99116SOL     OW99244  11.392   2.572  12.646
99116SOL    HW199245  11.400   2.487  12.603
99116SOL    HW299246  11.318   2.563  12.705
99117SOL     OW99247   9.222   2.606   3.678
99117SOL    HW199248   9.273   2.621   3.598
99117SOL    HW299249   9.208   2.511   3.680
99118SOL     OW99250   1.124  13.455   2.091
99118SOL    HW199251   1.156  13.444   2.002
99118SOL    HW299252   1.173  13.531   2.124
99119SOL     OW99253  13.613  12.172   0.374
99119SOL    HW199254  13.670  12.239   0.336
99119SOL    HW299255  13.596  12.111   0.302
99120SOL     OW99256   8.765  12.585   3.665
99120SOL    HW199257   8.815  12.519   3.616
99120SOL    HW299258   8.773  12.665   3.613
99121SOL     OW99259  13.035   4.065   9.784
99121SOL    HW199260  13.039   3.978   9.744
99121SOL    HW299261  13.120   4.104   9.764
99122SOL     OW99262   1.761   8.032   7.757
99122SOL    HW199263   1.718   8.093   7.698
99122SOL    HW299264   1.728   8.054   7.844
99123SOL     OW99265   7.899  10.037   6.981
99123SOL    HW199266   7.906   9.946   6.952
99123SOL    HW299267   7.805  10.049   6.996
99124SOL     OW99268  12.486   0.038   3.112
99124SOL    HW199269  12.569   0.079   3.089
99124SOL    HW299270  12.494  14.825   3.082
99125SOL     OW99271   0.281   5.784  10.340
99125SOL    HW199272   0.294   5.718  10.408
99125SOL    HW299273   0.354   5.769  10.279
99126SOL     OW99274  13.505   2.993  10.827
99126SOL    HW199275  13.481   2.933  10.757
99126SOL    HW299276  13.548   2.938  10.892
99127SOL     OW99277  11.036  10.788   7.028
99127SOL    HW199278  11.032  10.837   6.946
99127SOL    HW299279  10.961  10.821   7.079
99128SOL     OW99280  10.289  10.344   8.509
99128SOL    HW199281  10.316  10.343   8.601
99128SOL    HW299282  10.212  10.288   8.506
99129SOL     OW99283   4.557  11.975   7.226
99129SOL    HW199284   4.587  12.024   7.149
99129SOL    HW299285   4.463  11.994   7.231
99130SOL     OW99286  13.047   8.013   1.371
99130SOL    HW199287  12.994   7.936   1.349
99130SOL    HW299288  13.027   8.076   1.301
99131SOL     OW99289  11.979   0.708   0.042
99131SOL    HW199290  11.899   0.677  14.876
99131SOL    HW299291  11.963   0.801   0.058
99132SOL     OW99292  14.786  14.830  10.060
99132SOL    HW199293  14.753  14.761  10.003
99132SOL    HW299294  14.710   0.006  10.080
99133SOL     OW99295  14.613   8.058   8.016
99133SOL    HW199296  14.563   7.989   8.059
99133SOL    HW299297  14.568   8.139   8.041
99134SOL     OW99298  10.584  14.296  14.295
99134SOL    HW199299  10.527  14.289  14.371
99134SOL    HW299300  10.665  14.252  14.321
99135SOL     OW99301  12.669   8.779   2.482
99135SOL    HW199302  12.696   8.815   2.398
99135SOL    HW299303  12.588   8.732   2.463
99136SOL     OW99304   0.855  12.639  14.229
99136SOL    HW199305   0.860  12.664  14.137
99136SOL    HW299306   0.781  12.687  14.264
99137SOL     OW99307   9.495   1.229   1.847
99137SOL    HW199308   9.442   1.214   1.769
99137SOL    HW299309   9.549   1.150   1.855
99138SOL     OW99310   3.334  13.971   9.132
99138SOL    HW199311   3.254  14.025   9.129
99138SOL    HW299312   3.353  13.950   9.041
99139SOL     OW99313   6.154   1.424   2.995
99139SOL    HW199314   6.135   1.429   2.902
99139SOL    HW299315   6.234   1.475   3.006
99140SOL     OW99316   6.157  13.472   0.736
99140SOL    HW199317   6.156  13.559   0.775
99140SOL    HW299318   6.215  13.480   0.661
99141SOL     OW99319   0.190   6.133   8.482
99141SOL    HW199320   0.244   6.055   8.469
99141SOL    HW299321   0.156   6.125   8.571
99142SOL     OW99322   8.486   8.487   5.221
99142SOL    HW199323   8.532   8.567   5.248
99142SOL    HW299324   8.517   8.421   5.283
99143SOL     OW99325  13.519   6.187  12.025
99143SOL    HW199326  13.475   6.211  12.107
99143SOL    HW299327  13.548   6.271  11.988
99144SOL     OW99328   5.430  12.943  12.610
99144SOL    HW199329   5.411  13.027  12.651
99144SOL    HW299330   5.348  12.895  12.614
99145SOL     OW99331   3.232  12.608  12.542
99145SOL    HW199332   3.176  12.530  12.538
99145SOL    HW299333   3.182  12.675  12.495
99146SOL     OW99334   3.261   8.799   3.358
99146SOL    HW199335   3.198   8.729   3.342
99146SOL    HW299336   3.295   8.781   3.446
99147SOL     OW99337   3.016   9.750   2.316
99147SOL    HW199338   2.983   9.794   2.238
99147SOL    HW299339   3.019   9.818   2.383
99148SOL     OW99340   1.947  13.428   4.495
99148SOL    HW199341   2.025  13.392   4.537
99148SOL    HW299342   1.880  13.426   4.563
99149SOL     OW99343   5.490  14.301   5.461
99149SOL    HW199344   5.436  14.379   5.477
99149SOL    HW299345   5.452  14.262   5.382
99150SOL     OW99346  11.293   4.496  14.547
99150SOL    HW199347  11.276   4.579  14.503
99150SOL    HW299348  11.259   4.509  14.635
99151SOL     OW99349   6.970   9.561  10.678
99151SOL    HW199350   6.964   9.643  10.627
99151SOL    HW299351   7.054   9.567  10.722
99152SOL     OW99352   7.230   9.487   7.123
99152SOL    HW199353   7.161   9.524   7.068
99152SOL    HW299354   7.184   9.440   7.192
99153SOL     OW99355   5.630   4.662  13.608
99153SOL    HW199356   5.620   4.756  13.625
99153SOL    HW299357   5.548   4.623  13.640
99154SOL     OW99358  10.381   8.357   3.304
99154SOL    HW199359  10.315   8.415   3.341
99154SOL    HW299360  10.455   8.415   3.283
99155SOL     OW99361   0.176   8.047   1.677
99155SOL    HW199362   0.096   8.050   1.729
99155SOL    HW299363   0.147   8.027   1.588
99156SOL     OW99364   9.158  13.251   5.880
99156SOL    HW199365   9.071  13.288   5.868
99156SOL    HW299366   9.144  13.170   5.929
99157SOL     OW99367   0.778   9.121   8.758
99157SOL    HW199368   0.784   9.072   8.676
99157SOL    HW299369   0.869   9.135   8.783
99158SOL     OW99370   5.475  13.226  13.415
99158SOL    HW199371   5.425  13.151  13.383
99158SOL    HW299372   5.466  13.222  13.510
99159SOL     OW99373   0.981  10.210   5.710
99159SOL    HW199374   0.935  10.283   5.668
99159SOL    HW299375   0.941  10.203   5.796
99160SOL     OW99376  14.764   9.148  13.938
99160SOL    HW199377  14.700   9.194  13.884
99160SOL    HW299378  14.715   9.121  14.016
99161SOL     OW99379   5.624   9.073   3.291
99161SOL    HW199380   5.606   9.005   3.356
99161SOL    HW299381   5.539   9.114   3.274
99162SOL     OW99382  13.363   2.802   3.778
99162SOL    HW199383  13.401   2.814   3.691
99162SOL    HW299384  13.281   2.755   3.762
99163SOL     OW99385   9.948  12.305  11.952
99163SOL    HW199386   9.913  12.332  11.868
99163SOL    HW299387  10.026  12.359  11.965
99164SOL     OW99388   3.989   4.958  10.143
99164SOL    HW199389   3.903   4.954  10.185
99164SOL    HW299390   4.018   5.048  10.156
99165SOL     OW99391   7.282   0.713   6.756
99165SOL    HW199392   7.227   0.785   6.787
99165SOL    HW299393   7.276   0.646   6.824
99166SOL     OW99394   5.006   9.877  12.948
99166SOL    HW199395   4.981   9.785  12.957
99166SOL    HW299396   5.102   9.875  12.939
99167SOL     OW99397   8.625   1.554   4.840
99167SOL    HW199398   8.624   1.465   4.874
99167SOL    HW299399   8.705   1.592   4.877
99168SOL     OW99400   9.861   8.091   7.374
99168SOL    HW199401   9.943   8.114   7.331
99168SOL    HW299402   9.799   8.160   7.350
99169SOL     OW99403   7.994  14.114   3.726
99169SOL    HW199404   8.062  14.128   3.793
99169SOL    HW299405   8.030  14.046   3.669
99170SOL     OW99406   1.600   1.873   3.339
99170SOL    HW199407   1.678   1.929   3.336
99170SOL    HW299408   1.576   1.870   3.432
99171SOL     OW99409  10.176  12.492  12.085
99171SOL    HW199410  10.255  12.547  12.084
99171SOL    HW299411  10.197  12.421  12.146
99172SOL     OW99412   0.592  13.635   6.540
99172SOL    HW199413   0.602  13.606   6.630
99172SOL    HW299414   0.517  13.695   6.542
99173SOL     OW99415  10.603   8.555   3.314
99173SOL    HW199416  10.669   8.598   3.259
99173SOL    HW299417  10.598   8.610   3.392
99174SOL     OW99418   5.877   4.007   9.267
99174SOL    HW199419   5.918   4.082   9.224
99174SOL    HW299420   5.870   3.940   9.199
99175SOL     OW99421   9.986  14.486   1.412
99175SOL    HW199422   9.939  14.458   1.334
99175SOL    HW299423   9.990  14.581   1.405
99176SOL     OW99424   8.035  14.327   2.594
99176SOL    HW199425   8.110  14.279   2.559
99176SOL    HW299426   8.002  14.272   2.665
99177SOL     OW99427   0.331   1.860   2.199
99177SOL    HW199428   0.291   1.810   2.271
99177SOL    HW299429   0.275   1.937   2.189
99178SOL     OW99430   7.887   3.565   6.160
99178SOL    HW199431   7.954   3.623   6.126
99178SOL    HW299432   7.919   3.477   6.138
99179SOL     OW99433   1.703  12.539   1.446
99179SOL    HW199434   1.617  12.571   1.418
99179SOL    HW299435   1.734  12.605   1.508
99180SOL     OW99436  10.375  12.873   8.080
99180SOL    HW199437  10.404  12.927   8.006
99180SOL    HW299438  10.456  12.842   8.121
99181SOL     OW99439  14.248   8.343   4.709
99181SOL    HW199440  14.279   8.281   4.643
99181SOL    HW299441  14.284   8.310   4.791
99182SOL     OW99442   2.418  13.909  12.815
99182SOL    HW199443   2.463  13.936  12.894
99182SOL    HW299444   2.359  13.982  12.795
99183SOL     OW99445   5.925   1.532   7.261
99183SOL    HW199446   5.855   1.502   7.320
99183SOL    HW299447   5.938   1.459   7.200
99184SOL     OW99448   7.324   6.189   8.249
99184SOL    HW199449   7.392   6.256   8.249
99184SOL    HW299450   7.245   6.236   8.277
99185SOL     OW99451   4.543   7.338   2.357
99185SOL    HW199452   4.535   7.315   2.450
99185SOL    HW299453   4.452   7.340   2.326
99186SOL     OW99454   3.221  14.480   6.809
99186SOL    HW199455   3.296  14.539   6.818
99186SOL    HW299456   3.185  14.499   6.723
99187SOL     OW99457   3.036   5.632   5.331
99187SOL    HW199458   2.953   5.585   5.338
99187SOL    HW299459   3.031   5.676   5.246
99188SOL     OW99460  12.262  14.523  14.738
99188SOL    HW199461  12.223  14.600  14.697
99188SOL    HW299462  12.340  14.556  14.783
99189SOL     OW99463  11.007   9.035  13.328
99189SOL    HW199464  11.050   9.031  13.413
99189SOL    HW299465  11.078   9.041  13.265
99190SOL     OW99466   4.244   1.523   9.111
99190SOL    HW199467   4.304   1.511   9.037
99190SOL    HW299468   4.185   1.593   9.083
99191SOL     OW99469  11.078   8.119   8.001
99191SOL    HW199470  11.005   8.068   7.967
99191SOL    HW299471  11.118   8.063   8.067
99192SOL     OW99472   0.531   4.112  11.738
99192SOL    HW199473   0.519   4.121  11.833
99192SOL    HW299474   0.594   4.042  11.728
99193SOL     OW99475   5.498  13.427   4.251
99193SOL    HW199476   5.536  13.500   4.299
99193SOL    HW299477   5.403  13.442   4.255
99194SOL     OW99478  12.791   7.139   1.806
99194SOL    HW199479  12.743   7.113   1.728
99194SOL    HW299480  12.728   7.187   1.859
99195SOL     OW99481  13.463   2.773   8.158
99195SOL    HW199482  13.516   2.844   8.121
99195SOL    HW299483  13.376   2.811   8.170
99196SOL     OW99484   0.497   0.252   4.204
99196SOL    HW199485   0.435   0.259   4.276
99196SOL    HW299486   0.465   0.314   4.139
99197SOL     OW99487  10.766   2.890  11.348
99197SOL    HW199488  10.828   2.837  11.398
99197SOL    HW299489  10.683   2.879  11.394
99198SOL     OW99490   3.960  14.729   5.158
99198SOL    HW199491   3.895  14.682   5.106
99198SOL    HW299492   4.018  14.661   5.191
99199SOL     OW99493  12.764   0.977   5.611
99199SOL    HW199494  12.692   1.037   5.591
99199SOL    HW299495  12.730   0.921   5.681
99200SOL     OW99496   8.340   7.663   7.013
99200SOL    HW199497   8.396   7.725   7.060
99200SOL    HW299498   8.394   7.633   6.940
99201SOL     OW99499   7.164  14.831  12.257
99201SOL    HW199500   7.237  14.867  12.307
99201SOL    HW299501   7.086  14.852  12.309
99202SOL     OW99502   0.216  13.301   8.309
99202SOL    HW199503   0.283  13.305   8.241
99202SOL    HW299504   0.240  13.372   8.370
99203SOL     OW99505  10.513   9.955   2.866
99203SOL    HW199506  10.530   9.863   2.886
99203SOL    HW299507  10.590  10.002   2.901
99204SOL     OW99508   2.190  10.068  10.321
99204SOL    HW199509   2.231  10.108  10.244
99204SOL    HW299510   2.252  10.083  10.392
99205SOL     OW99511   1.906   7.079   0.026
99205SOL    HW199512   1.865   6.998  14.873
99205SOL    HW299513   1.894   7.141  14.831
99206SOL     OW99514   0.983  11.498  13.348
99206SOL    HW199515   0.933  11.517  13.428
99206SOL    HW299516   0.961  11.407  13.328
99207SOL     OW99517   8.343   3.468  11.224
99207SOL    HW199518   8.354   3.560  11.199
99207SOL    HW299519   8.431   3.431  11.221
99208SOL     OW99520   4.404   8.637   3.554
99208SOL    HW199521   4.394   8.730   3.577
99208SOL    HW299522   4.464   8.637   3.479
99209SOL     OW99523   1.368  14.270   7.155
99209SOL    HW199524   1.292  14.321   7.127
99209SOL    HW299525   1.385  14.211   7.082
99210SOL     OW99526   8.334   1.345   1.250
99210SOL    HW199527   8.312   1.274   1.190
99210SOL    HW299528   8.311   1.425   1.204
99211SOL     OW99529  12.208   3.929   1.033
99211SOL    HW199530  12.209   3.834   1.025
99211SOL    HW299531  12.257   3.948   1.113
99212SOL     OW99532  12.986   1.923   0.978
99212SOL    HW199533  12.954   1.992   0.920
99212SOL    HW299534  12.971   1.842   0.930
99213SOL     OW99535   1.241   3.476   1.883
99213SOL    HW199536   1.319   3.480   1.828
99213SOL    HW299537   1.182   3.416   1.838
99214SOL     OW99538   4.358   5.255   5.460
99214SOL    HW199539   4.395   5.341   5.438
99214SOL    HW299540   4.318   5.268   5.546
99215SOL     OW99541   8.591   6.802   0.665
99215SOL    HW199542   8.617   6.880   0.716
99215SOL    HW299543   8.654   6.735   0.691
99216SOL     OW99544  10.854   9.704  13.311
99216SOL    HW199545  10.784   9.671  13.367
99216SOL    HW299546  10.846   9.653  13.230
99217SOL     OW99547   3.983  11.852   6.006
99217SOL    HW199548   3.991  11.946   6.023
99217SOL    HW299549   4.071  11.817   6.020
99218SOL     OW99550  14.407   4.246   9.056
99218SOL    HW199551  14.490   4.292   9.064
99218SOL    HW299552  14.424   4.177   8.992
99219SOL     OW99553   8.480   2.313   8.794
99219SOL    HW199554   8.454   2.231   8.751
99219SOL    HW299555   8.570   2.327   8.764
99220SOL     OW99556   8.417  14.856   1.113
99220SOL    HW199557   8.386  14.860   1.023
99220SOL    HW299558   8.339  14.870   1.166
99221SOL     OW99559   3.985   8.004  11.463
99221SOL    HW199560   4.068   8.046  11.439
99221SOL    HW299561   3.938   7.995  11.380
99222SOL     OW99562   5.589   6.037   2.789
99222SOL    HW199563   5.684   6.037   2.778
99222SOL    HW299564   5.559   6.114   2.742
99223SOL     OW99565   6.760  11.281   3.795
99223SOL    HW199566   6.797  11.324   3.872
99223SOL    HW299567   6.833  11.275   3.733
99224SOL     OW99568   4.241   9.450  10.090
99224SOL    HW199569   4.183   9.517  10.126
99224SOL    HW299570   4.184   9.393  10.039
99225SOL     OW99571  14.788   2.915   3.944
99225SOL    HW199572  14.747   2.919   4.031
99225SOL    HW299573  14.877   2.947   3.958
99226SOL     OW99574   5.687   8.294  12.568
99226SOL    HW199575   5.764   8.331  12.524
99226SOL    HW299576   5.686   8.336  12.654
99227SOL     OW99577   6.751   4.309   7.198
99227SOL    HW199578   6.745   4.231   7.253
99227SOL    HW299579   6.727   4.279   7.110
99228SOL     OW99580   4.000  11.145   8.255
99228SOL    HW199581   4.019  11.063   8.209
99228SOL    HW299582   4.058  11.209   8.214
99229SOL     OW99583   0.207   8.108   0.545
99229SOL    HW199584   0.134   8.168   0.559
99229SOL    HW299585   0.243   8.093   0.633
99230SOL     OW99586  10.779  10.871   6.509
99230SOL    HW199587  10.873  10.873   6.524
99230SOL    HW299588  10.743  10.929   6.576
99231SOL     OW99589   7.465   7.326   5.620
99231SOL    HW199590   7.547   7.319   5.670
99231SOL    HW299591   7.437   7.416   5.633
99232SOL     OW99592  13.526   1.391   4.490
99232SOL    HW199593  13.458   1.357   4.433
99232SOL    HW299594  13.489   1.472   4.526
99233SOL     OW99595   7.459   8.811   4.198
99233SOL    HW199596   7.512   8.874   4.150
99233SOL    HW299597   7.501   8.805   4.284
99234SOL     OW99598   8.803   4.308   9.007
99234SOL    HW199599   8.813   4.402   9.020
99234SOL    HW299600   8.744   4.301   8.931
99235SOL     OW99601   3.210   0.524   0.610
99235SOL    HW199602   3.127   0.570   0.627
99235SOL    HW299603   3.206   0.447   0.666
99236SOL     OW99604   1.039  12.832   0.044
99236SOL    HW199605   1.031  12.926   0.058
99236SOL    HW299606   0.957  12.796   0.079
99237SOL     OW99607   9.232   9.036   5.217
99237SOL    HW199608   9.284   8.959   5.241
99237SOL    HW299609   9.287   9.084   5.155
99238SOL     OW99610  13.219   5.900   4.919
99238SOL    HW199611  13.203   5.806   4.912
99238SOL    HW299612  13.137   5.936   4.953
99239SOL     OW99613   6.454   6.877   9.003
99239SOL    HW199614   6.450   6.790   8.963
99239SOL    HW299615   6.537   6.878   9.051
99240SOL     OW99616  11.261  11.781   9.955
99240SOL    HW199617  11.202  11.855   9.942
99240SOL    HW299618  11.203  11.705   9.956
99241SOL     OW99619   8.166   0.765   1.991
99241SOL    HW199620   8.167   0.734   2.082
99241SOL    HW299621   8.119   0.698   1.943
99242SOL     OW99622  13.367   5.975   6.162
99242SOL    HW199623  13.389   6.019   6.245
99242SOL    HW299624  13.349   5.885   6.187
99243SOL     OW99625   3.474   4.463   7.191
99243SOL    HW199626   3.452   4.438   7.101
99243SOL    HW299627   3.451   4.556   7.197
99244SOL     OW99628   2.434  14.348   6.339
99244SOL    HW199629   2.514  14.326   6.386
99244SOL    HW299630   2.366  14.351   6.406
99245SOL     OW99631  12.483  14.144   3.346
99245SOL    HW199632  12.503  14.050   3.346
99245SOL    HW299633  12.409  14.152   3.406
99246SOL     OW99634  13.915   0.321   3.786
99246SOL    HW199635  14.000   0.283   3.765
99246SOL    HW299636  13.868   0.323   3.703
99247SOL     OW99637   9.510   9.854  14.571
99247SOL    HW199638   9.466   9.784  14.523
99247SOL    HW299639   9.476   9.846  14.660
99248SOL     OW99640  14.443  12.698   0.200
99248SOL    HW199641  14.534  12.700   0.229
99248SOL    HW299642  14.424  12.788   0.173
99249SOL     OW99643   7.781   7.520   6.133
99249SOL    HW199644   7.843   7.590   6.111
99249SOL    HW299645   7.836   7.448   6.162
99250SOL     OW99646   4.061   6.724  12.781
99250SOL    HW199647   4.049   6.818  12.764
99250SOL    HW299648   4.141   6.701  12.733
99251SOL     OW99649   4.895   9.376   6.504
99251SOL    HW199650   4.989   9.360   6.502
99251SOL    HW299651   4.860   9.324   6.432
99252SOL     OW99652   5.728  14.559  12.360
99252SOL    HW199653   5.651  14.529  12.409
99252SOL    HW299654   5.782  14.604  12.425
99253SOL     OW99655   1.660  10.002   1.328
99253SOL    HW199656   1.709   9.986   1.247
99253SOL    HW299657   1.722   9.982   1.398
99254SOL     OW99658   4.177   1.619   5.806
99254SOL    HW199659   4.148   1.544   5.857
99254SOL    HW299660   4.203   1.684   5.871
99255SOL     OW99661  12.092   2.481  14.307
99255SOL    HW199662  12.091   2.405  14.249
99255SOL    HW299663  12.080   2.446  14.395
99256SOL     OW99664  10.156  14.650   7.543
99256SOL    HW199665  10.207  14.596   7.482
99256SOL    HW299666  10.078  14.676   7.494
99257SOL     OW99667   5.557   9.610   8.281
99257SOL    HW199668   5.482   9.581   8.229
99257SOL    HW299669   5.566   9.544   8.349
99258SOL     OW99670  14.559   7.274  11.574
99258SOL    HW199671  14.618   7.200  11.563
99258SOL    HW299672  14.500   7.269  11.498
99259SOL     OW99673   6.715   3.533  14.325
99259SOL    HW199674   6.680   3.579  14.248
99259SOL    HW299675   6.637   3.501  14.371
99260SOL     OW99676   4.399   9.098   9.299
99260SOL    HW199677   4.387   9.160   9.227
99260SOL    HW299678   4.341   9.025   9.279
99261SOL     OW99679   7.971  12.352   3.232
99261SOL    HW199680   7.890  12.369   3.280
99261SOL    HW299681   7.948  12.365   3.140
99262SOL     OW99682   8.528   9.856   1.658
99262SOL    HW199683   8.583   9.917   1.707
99262SOL    HW299684   8.567   9.853   1.571
99263SOL     OW99685   3.041   7.099   9.670
99263SOL    HW199686   3.121   7.066   9.710
99263SOL    HW299687   3.037   7.054   9.585
99264SOL     OW99688  11.517   9.586   2.184
99264SOL    HW199689  11.457   9.526   2.141
99264SOL    HW299690  11.505   9.669   2.138
99265SOL     OW99691  10.235  14.828   8.911
99265SOL    HW199692  10.165  14.874   8.864
99265SOL    HW299693  10.316  14.866   8.878
99266SOL     OW99694   5.246   3.802   7.178
99266SOL    HW199695   5.200   3.816   7.095
99266SOL    HW299696   5.200   3.856   7.241
99267SOL     OW99697   1.652   2.138   4.640
99267SOL    HW199698   1.707   2.091   4.703
99267SOL    HW299699   1.564   2.101   4.653
99268SOL     OW99700   8.238   5.830  10.877
99268SOL    HW199701   8.228   5.818  10.971
99268SOL    HW299702   8.185   5.907  10.856
99269SOL     OW99703   5.326   9.892   9.880
99269SOL    HW199704   5.398   9.911   9.939
99269SOL    HW299705   5.317   9.971   9.826
99270SOL     OW99706   4.676   2.684   5.762
99270SOL    HW199707   4.682   2.591   5.742
99270SOL    HW299708   4.735   2.696   5.837
99271SOL     OW99709   4.652   4.493   3.151
99271SOL    HW199710   4.746   4.493   3.133
99271SOL    HW299711   4.618   4.566   3.100
99272SOL     OW99712  12.586   1.420   5.832
99272SOL    HW199713  12.525   1.456   5.767
99272SOL    HW299714  12.595   1.489   5.897
99273SOL     OW99715   5.256   8.696  11.922
99273SOL    HW199716   5.333   8.672  11.974
99273SOL    HW299717   5.284   8.686  11.831
99274SOL     OW99718   2.579   7.915  10.528
99274SOL    HW199719   2.522   7.871  10.592
99274SOL    HW299720   2.585   8.005  10.559
99275SOL     OW99721   4.189   1.197  10.765
99275SOL    HW199722   4.248   1.176  10.693
99275SOL    HW299723   4.235   1.264  10.815
99276SOL     OW99724   9.657   8.181   4.157
99276SOL    HW199725   9.564   8.164   4.170
99276SOL    HW299726   9.677   8.144   4.071
99277SOL     OW99727   6.723   9.663   5.639
99277SOL    HW199728   6.735   9.712   5.721
99277SOL    HW299729   6.714   9.572   5.667
99278SOL     OW99730  10.310   1.523   1.091
99278SOL    HW199731  10.238   1.582   1.113
99278SOL    HW299732  10.328   1.475   1.172
99279SOL     OW99733  13.523  14.101   0.243
99279SOL    HW199734  13.507  14.044   0.318
99279SOL    HW299735  13.548  14.185   0.281
99280SOL     OW99736   6.038   6.587   6.909
99280SOL    HW199737   6.059   6.618   6.998
99280SOL    HW299738   5.988   6.659   6.870
99281SOL     OW99739  10.226  12.281  10.059
99281SOL    HW199740  10.208  12.218   9.990
99281SOL    HW299741  10.268  12.230  10.129
99282SOL     OW99742   5.882   6.393   8.248
99282SOL    HW199743   5.787   6.402   8.253
99282SOL    HW299744   5.904   6.413   8.157
99283SOL     OW99745   3.551   2.252   4.056
99283SOL    HW199746   3.484   2.245   4.125
99283SOL    HW299747   3.551   2.345   4.033
99284SOL     OW99748  12.638  13.323   4.072
99284SOL    HW199749  12.709  13.313   4.009
99284SOL    HW299750  12.682  13.344   4.154
99285SOL     OW99751  10.072   0.930   3.557
99285SOL    HW199752  10.125   0.870   3.611
99285SOL    HW299753   9.984   0.924   3.595
99286SOL     OW99754   5.362  12.932   6.747
99286SOL    HW199755   5.304  13.005   6.768
99286SOL    HW299756   5.348  12.869   6.818
99287SOL     OW99757   3.515   1.304   6.791
99287SOL    HW199758   3.584   1.296   6.857
99287SOL    HW299759   3.449   1.240   6.818
99288SOL     OW99760   7.536  13.033  11.714
99288SOL    HW199761   7.506  13.068  11.798
99288SOL    HW299762   7.482  13.078  11.649
99289SOL     OW99763   4.029   7.066   7.780
99289SOL    HW199764   3.978   6.999   7.826
99289SOL    HW299765   4.082   7.107   7.849
99290SOL     OW99766   2.515  10.684   6.558
99290SOL    HW199767   2.591  10.626   6.548
99290SOL    HW299768   2.547  10.756   6.612
99291SOL     OW99769  12.656   1.192  13.705
99291SOL    HW199770  12.669   1.258  13.637
99291SOL    HW299771  12.581   1.141  13.674
99292SOL     OW99772   4.032  14.842  12.866
99292SOL    HW199773   4.007   0.054  12.890
99292SOL    HW299774   3.949  14.799  12.845
99293SOL     OW99775  13.156   0.331   9.831
99293SOL    HW199776  13.125   0.411   9.788
99293SOL    HW299777  13.241   0.314   9.792
99294SOL     OW99778   4.175   4.113  14.787
99294SOL    HW199779   4.249   4.053  14.788
99294SOL    HW299780   4.215   4.200  14.793
99295SOL     OW99781  13.200  13.071   5.520
99295SOL    HW199782  13.272  13.034   5.468
99295SOL    HW299783  13.228  13.160   5.539
99296SOL     OW99784   3.027  11.829  14.246
99296SOL    HW199785   2.990  11.839  14.334
99296SOL    HW299786   3.037  11.735  14.235
99297SOL     OW99787   6.329  12.730  12.514
99297SOL    HW199788   6.334  12.699  12.424
99297SOL    HW299789   6.321  12.651  12.567
99298SOL     OW99790  13.821   9.332  13.661
99298SOL    HW199791  13.828   9.295  13.573
99298SOL    HW299792  13.850   9.423  13.652
99299SOL     OW99793  12.855   7.679  14.513
99299SOL    HW199794  12.943   7.711  14.496
99299SOL    HW299795  12.802   7.758  14.524
99300SOL     OW99796  13.457  13.987   4.831
99300SOL    HW199797  13.446  13.892   4.837
99300SOL    HW299798  13.376  14.018   4.790
99301SOL     OW99799  10.305   9.152  14.594
99301SOL    HW199800  10.359   9.087  14.637
99301SOL    HW299801  10.236   9.102  14.551
99302SOL     OW99802   1.201   3.509   2.142
99302SOL    HW199803   1.177   3.600   2.155
99302SOL    HW299804   1.223   3.502   2.050
99303SOL     OW99805   4.102  14.530   7.590
99303SOL    HW199806   4.042  14.591   7.634
99303SOL    HW299807   4.081  14.539   7.497
99304SOL     OW99808   3.199   0.707   6.326
99304SOL    HW199809   3.284   0.673   6.354
99304SOL    HW299810   3.172   0.649   6.255
99305SOL     OW99811   1.700   2.358   5.302
99305SOL    HW199812   1.641   2.301   5.252
99305SOL    HW299813   1.693   2.443   5.259
99306SOL     OW99814   7.459   1.700   3.276
99306SOL    HW199815   7.499   1.614   3.265
99306SOL    HW299816   7.468   1.719   3.369
99307SOL     OW99817   5.702   4.342   2.792
99307SOL    HW199818   5.710   4.250   2.818
99307SOL    HW299819   5.782   4.361   2.743
99308SOL     OW99820   0.984   3.816   0.036
99308SOL    HW199821   1.049   3.746   0.042
99308SOL    HW299822   0.958   3.832   0.127
99309SOL     OW99823   0.867  11.656   1.662
99309SOL    HW199824   0.811  11.683   1.589
99309SOL    HW299825   0.807  11.619   1.727
99310SOL     OW99826   3.836   6.335  14.489
99310SOL    HW199827   3.745   6.352  14.463
99310SOL    HW299828   3.886   6.348  14.409
99311SOL     OW99829   9.686  10.695   7.914
99311SOL    HW199830   9.603  10.665   7.952
99311SOL    HW299831   9.750  10.682   7.984
99312SOL     OW99832   9.539  13.627   1.069
99312SOL    HW199833   9.558  13.677   1.149
99312SOL    HW299834   9.536  13.536   1.098
99313SOL     OW99835   0.161   0.012   5.186
99313SOL    HW199836   0.177  14.835   5.264
99313SOL    HW299837   0.236  14.872   5.129
99314SOL     OW99838   6.738   6.681   0.365
99314SOL    HW199839   6.710   6.707   0.453
99314SOL    HW299840   6.658   6.645   0.325
99315SOL     OW99841   7.921   3.769   7.776
99315SOL    HW199842   8.005   3.790   7.737
99315SOL    HW299843   7.858   3.825   7.730
99316SOL     OW99844   1.023   0.509   5.308
99316SOL    HW199845   0.985   0.423   5.289
99316SOL    HW299846   0.947   0.564   5.329
99317SOL     OW99847   2.661   6.746   8.697
99317SOL    HW199848   2.573   6.738   8.733
99317SOL    HW299849   2.657   6.825   8.642
99318SOL     OW99850  10.254   7.099   5.286
99318SOL    HW199851  10.307   7.163   5.334
99318SOL    HW299852  10.317   7.046   5.238
99319SOL     OW99853   3.463   1.096  10.628
99319SOL    HW199854   3.526   1.166  10.608
99319SOL    HW299855   3.469   1.085  10.723
99320SOL     OW99856  10.367   5.845   8.448
99320SOL    HW199857  10.374   5.846   8.543
99320SOL    HW299858  10.345   5.755   8.426
99321SOL     OW99859   0.660   8.440   0.347
99321SOL    HW199860   0.703   8.518   0.313
99321SOL    HW299861   0.567   8.453   0.326
99322SOL     OW99862   2.881   8.996   6.083
99322SOL    HW199863   2.845   9.074   6.040
99322SOL    HW299864   2.807   8.959   6.131
99323SOL     OW99865   4.760   0.799   1.873
99323SOL    HW199866   4.794   0.826   1.958
99323SOL    HW299867   4.782   0.872   1.815
99324SOL     OW99868   3.866   7.576   2.658
99324SOL    HW199869   3.850   7.566   2.564
99324SOL    HW299870   3.781   7.557   2.699
99325SOL     OW99871   1.046   4.762   7.946
99325SOL    HW199872   1.122   4.816   7.966
99325SOL    HW299873   1.029   4.777   7.853
99326SOL     OW99874  10.326   3.376   2.025
99326SOL    HW199875  10.258   3.434   1.989
99326SOL    HW299876  10.307   3.372   2.119
99327SOL     OW99877   6.435   4.306  11.141
99327SOL    HW199878   6.450   4.393  11.178
99327SOL    HW299879   6.363   4.270  11.194
99328SOL     OW99880   4.875   3.777  13.619
99328SOL    HW199881   4.900   3.693  13.580
99328SOL    HW299882   4.946   3.837  13.595
99329SOL     OW99883   0.268   6.660   3.410
99329SOL    HW199884   0.206   6.613   3.466
99329SOL    HW299885   0.214   6.694   3.339
99330SOL     OW99886   6.636  13.736  10.348
99330SOL    HW199887   6.601  13.787  10.275
99330SOL    HW299888   6.562  13.685  10.380
99331SOL     OW99889   5.121   3.892  10.827
99331SOL    HW199890   5.180   3.833  10.874
99331SOL    HW299891   5.087   3.840  10.755
99332SOL     OW99892   9.364  12.809   9.669
99332SOL    HW199893   9.296  12.824   9.604
99332SOL    HW299894   9.382  12.896   9.705
99333SOL     OW99895   8.363   8.354  11.066
99333SOL    HW199896   8.271   8.380  11.067
99333SOL    HW299897   8.362   8.262  11.039
99334SOL     OW99898  11.239  14.794   3.006
99334SOL    HW199899  11.153  14.757   3.023
99334SOL    HW299900  11.291  14.771   3.083
99335SOL     OW99901   4.890   5.511  13.172
99335SOL    HW199902   4.984   5.527  13.169
99335SOL    HW299903   4.881   5.419  13.146
99336SOL     OW99904   9.408   2.880   8.586
99336SOL    HW199905   9.323   2.924   8.592
99336SOL    HW299906   9.468   2.947   8.554
99337SOL     OW99907  12.103   8.598  11.904
99337SOL    HW199908  12.084   8.609  11.998
99337SOL    HW299909  12.135   8.684  11.877
99338SOL     OW99910   1.244  10.939   4.194
99338SOL    HW199911   1.163  10.991   4.193
99338SOL    HW299912   1.257  10.918   4.286
99339SOL     OW99913   8.357  14.181   0.653
99339SOL    HW199914   8.303  14.226   0.588
99339SOL    HW299915   8.333  14.089   0.645
99340SOL     OW99916  10.107  10.308  12.027
99340SOL    HW199917  10.087  10.216  12.040
99340SOL    HW299918  10.179  10.325  12.088
99341SOL     OW99919   9.331   6.266  13.381
99341SOL    HW199920   9.324   6.250  13.475
99341SOL    HW299921   9.241   6.260  13.348
99342SOL     OW99922   8.282  14.172  10.724
99342SOL    HW199923   8.195  14.139  10.745
99342SOL    HW299924   8.303  14.133  10.639
99343SOL     OW99925   9.633  12.244   1.948
99343SOL    HW199926   9.565  12.292   1.901
99343SOL    HW299927   9.643  12.163   1.898
99344SOL     OW99928   2.050   4.647   5.726
99344SOL    HW199929   2.100   4.654   5.808
99344SOL    HW299930   1.991   4.573   5.741
99345SOL     OW99931   2.316   5.294  10.996
99345SOL    HW199932   2.266   5.217  11.022
99345SOL    HW299933   2.261   5.369  11.019
99346SOL     OW99934   4.670  12.633   5.785
99346SOL    HW199935   4.603  12.631   5.717
99346SOL    HW299936   4.629  12.591   5.860
99347SOL     OW99937   9.349   3.063  10.415
99347SOL    HW199938   9.324   3.142  10.367
99347SOL    HW299939   9.381   3.095  10.499
99348SOL     OW99940  10.844   2.103   0.583
99348SOL    HW199941  10.767   2.075   0.533
99348SOL    HW299942  10.915   2.047   0.551
99349SOL     OW99943   6.453   4.956  13.456
99349SOL    HW199944   6.539   4.926  13.426
99349SOL    HW299945   6.434   5.032  13.401
99350SOL     OW99946  11.891  10.990   7.161
99350SOL    HW199947  11.870  11.055   7.095
99350SOL    HW299948  11.983  10.968   7.145
99351SOL     OW99949   9.733  12.008   2.826
99351SOL    HW199950   9.746  11.988   2.734
99351SOL    HW299951   9.706  11.925   2.865
99352SOL     OW99952   5.622   0.110   3.035
99352SOL    HW199953   5.667   0.051   3.096
99352SOL    HW299954   5.615   0.060   2.954
99353SOL     OW99955   9.055   3.609   1.434
99353SOL    HW199956   9.010   3.640   1.356
99353SOL    HW299957   9.133   3.665   1.442
99354SOL     OW99958   2.461  11.164   3.943
99354SOL    HW199959   2.491  11.138   4.030
99354SOL    HW299960   2.367  11.143   3.944
99355SOL     OW99961   4.006   6.114  12.057
99355SOL    HW199962   3.933   6.109  11.995
99355SOL    HW299963   4.076   6.157  12.008
99356SOL     OW99964  11.870   5.640  14.831
99356SOL    HW199965  11.798   5.669   0.009
99356SOL    HW299966  11.842   5.664  14.742
99357SOL     OW99967  12.464  11.021   1.708
99357SOL    HW199968  12.413  11.103   1.706
99357SOL    HW299969  12.538  11.037   1.650
99358SOL     OW99970   5.463   9.515   3.294
99358SOL    HW199971   5.534   9.470   3.249
99358SOL    HW299972   5.410   9.444   3.330
99359SOL     OW99973   4.409  12.565  10.629
99359SOL    HW199974   4.403  12.505  10.704
99359SOL    HW299975   4.320  12.567  10.594
99360SOL     OW99976  12.928   6.167   6.336
99360SOL    HW199977  12.979   6.191   6.413
99360SOL    HW299978  12.981   6.100   6.292
99361SOL     OW99979  14.477   1.176  12.883
99361SOL    HW199980  14.389   1.212  12.874
99361SOL    HW299981  14.468   1.083  12.863
99362SOL     OW99982  10.692  11.505   8.588
99362SOL    HW199983  10.722  11.520   8.678
99362SOL    HW299984  10.637  11.580   8.568
99363SOL     OW99985   1.486  14.472  14.320
99363SOL    HW199986   1.512  14.512  14.237
99363SOL    HW299987   1.530  14.525  14.387
99364SOL     OW99988  14.092   3.878  12.194
99364SOL    HW199989  14.020   3.878  12.257
99364SOL    HW299990  14.105   3.970  12.173
99365SOL     OW99991  13.290   0.623   4.658
99365SOL    HW199992  13.325   0.549   4.707
99365SOL    HW299993  13.365   0.657   4.608
99366SOL     OW99994   7.264  10.772   2.223
99366SOL    HW199995   7.266  10.727   2.138
99366SOL    HW299996   7.277  10.865   2.201
99367SOL     OW99997  14.661  11.016  14.506
99367SOL    HW199998  14.682  10.977  14.421
99367SOL    HW299999  14.566  11.022  14.507
99368SOL     OW    0  12.871   5.483  14.606
99368SOL    HW1    1  12.901   5.532  14.682
99368SOL    HW2    2  12.849   5.550  14.541
99369SOL     OW    3   1.804   4.456   4.150
99369SOL    HW1    4   1.803   4.469   4.245
99369SOL    HW2    5   1.752   4.377   4.136
99370SOL     OW    6   6.217   4.508   5.578
99370SOL    HW1    7   6.261   4.589   5.553
99370SOL    HW2    8   6.208   4.460   5.495
99371SOL     OW    9  12.844  13.061   3.880
99371SOL    HW1   10  12.900  13.109   3.940
99371SOL    HW2   11  12.809  12.988   3.932
99372SOL     OW   12   7.692   8.206  12.056
99372SOL    HW1   13   7.625   8.140  12.040
99372SOL    HW2   14   7.774   8.159  12.050
99373SOL     OW   15  13.150   0.009   2.336
99373SOL    HW1   16  13.143   0.082   2.396
99373SOL    HW2   17  13.178  14.813   2.391
99374SOL     OW   18  14.277  14.415   0.306
99374SOL    HW1   19  14.343  14.428   0.374
99374SOL    HW2   20  14.283  14.494   0.252
99375SOL     OW   21  11.805   7.477  13.678
99375SOL    HW1   22  11.812   7.416  13.605
99375SOL    HW2   23  11.719   7.519  13.668
99376SOL     OW   24   5.500  14.655   3.201
99376SOL    HW1   25   5.462  14.692   3.121
99376SOL    HW2   26   5.586  14.697   3.209
99377SOL     OW   27   1.436   8.915  14.762
99377SOL    HW1   28   1.459   8.987  14.702
99377SOL    HW2   29   1.401   8.959  14.839
99378SOL     OW   30  12.322   4.848   7.000
99378SOL    HW1   31  12.356   4.885   6.919
99378SOL    HW2   32  12.361   4.761   7.005
99379SOL     OW   33   8.841  10.562   2.984
99379SOL    HW1   34   8.772  10.568   3.050
99379SOL    HW2   35   8.891  10.643   2.994
99380SOL     OW   36   1.227   8.498   2.973
99380SOL    HW1   37   1.151   8.533   2.927
99380SOL    HW2   38   1.191   8.435   3.035
99381SOL     OW   39   1.116  10.907   8.590
99381SOL    HW1   40   1.194  10.926   8.642
99381SOL    HW2   41   1.099  10.814   8.604
99382SOL     OW   42  13.719   9.136   9.183
99382SOL    HW1   43  13.683   9.199   9.120
99382SOL    HW2   44  13.677   9.053   9.160
99383SOL     OW   45   0.350   7.519  14.594
99383SOL    HW1   46   0.356   7.527  14.689
99383SOL    HW2   47   0.434   7.554  14.562
99384SOL     OW   48   4.255   3.061   8.278
99384SOL    HW1   49   4.263   3.125   8.348
99384SOL    HW2   50   4.232   3.112   8.201
99385SOL     OW   51   0.367   0.690  11.347
99385SOL    HW1   52   0.449   0.656  11.382
99385SOL    HW2   53   0.373   0.784  11.361
99386SOL     OW   54  14.318   8.485   3.062
99386SOL    HW1   55  14.409   8.459   3.079
99386SOL    HW2   56  14.322   8.529   2.977
99387SOL     OW   57   2.998   5.028   8.264
99387SOL    HW1   58   2.945   4.984   8.197
99387SOL    HW2   59   2.935   5.052   8.332
99388SOL     OW   60   1.310  11.255   5.738
99388SOL    HW1   61   1.220  11.254   5.705
99388SOL    HW2   62   1.364  11.253   5.659
99389SOL     OW   63   3.315   8.396   8.266
99389SOL    HW1   64   3.248   8.327   8.271
99389SOL    HW2   65   3.309   8.428   8.176
99390SOL     OW   66  10.487   5.884   0.857
99390SOL    HW1   67  10.479   5.934   0.776
99390SOL    HW2   68  10.410   5.910   0.908
99391SOL     OW   69  13.367   1.600   1.688
99391SOL    HW1   70  13.352   1.634   1.600
99391SOL    HW2   71  13.460   1.611   1.703
99392SOL     OW   72   7.708  11.342  14.629
99392SOL    HW1   73   7.790  11.295  14.644
99392SOL    HW2   74   7.688  11.383  14.713
99393SOL     OW   75  12.383   0.526   4.988
99393SOL    HW1   76  12.459   0.561   5.034
99393SOL    HW2   77  12.406   0.531   4.896
99394SOL     OW   78  11.754   2.066  11.620
99394SOL    HW1   79  11.688   2.062  11.689
99394SOL    HW2   80  11.781   1.974  11.607
99395SOL     OW   81   2.073  12.909   6.087
99395SOL    HW1   82   2.139  12.897   6.155
99395SOL    HW2   83   2.005  12.844   6.107
99396SOL     OW   84   4.269  14.128  13.251
99396SOL    HW1   85   4.219  14.197  13.295
99396SOL    HW2   86   4.203  14.062  13.230
99397SOL     OW   87   3.119   7.729   2.292
99397SOL    HW1   88   3.204   7.772   2.306
99397SOL    HW2   89   3.126   7.690   2.204
99398SOL     OW   90  10.123  14.155  10.599
99398SOL    HW1   91  10.201  14.113  10.636
99398SOL    HW2   92  10.090  14.091  10.535
99399SOL     OW   93   1.027  11.923   7.570
99399SOL    HW1   94   1.046  11.883   7.484
99399SOL    HW2   95   1.056  11.858   7.633
99400SOL     OW   96   5.566   3.040   4.393
99400SOL    HW1   97   5.483   3.062   4.350
99400SOL    HW2   98   5.561   3.084   4.478
99401SOL     OW   99  10.265   9.939   0.753
99401SOL    HW1  100  10.331   9.987   0.803
99401SOL    HW2  101  10.199  10.006   0.732
99402SOL     OW  102   1.610   3.902   1.336
99402SOL    HW1  103   1.535   3.945   1.296
99402SOL    HW2  104   1.667   3.973   1.364
99403SOL     OW  105   6.675   1.403   0.462
99403SOL    HW1  106   6.631   1.456   0.528
99403SOL    HW2  107   6.682   1.316   0.502
99404SOL     OW  108  14.727  13.243   7.808
99404SOL    HW1  109  14.700  13.218   7.719
99404SOL    HW2  110  14.762  13.162   7.846
99405SOL     OW  111   8.079  11.998  11.462
99405SOL    HW1  112   8.020  11.957  11.526
99405SOL    HW2  113   8.158  11.944  11.465
99406SOL     OW  114   9.851   9.618  12.741
99406SOL    HW1  115   9.919   9.578  12.796
99406SOL    HW2  116   9.795   9.545  12.715
99407SOL     OW  117   1.086  12.812  13.457
99407SOL    HW1  118   1.129  12.876  13.513
99407SOL    HW2  119   1.011  12.782  13.508
99408SOL     OW  120   8.931   2.802  12.440
99408SOL    HW1  121   9.018   2.770  12.466
99408SOL    HW2  122   8.936   2.809  12.345
99409SOL     OW  123   4.824  10.402  12.896
99409SOL    HW1  124   4.785  10.444  12.973
99409SOL    HW2  125   4.823  10.471  12.829
99410SOL     OW  126  10.629   5.853   8.403
99410SOL    HW1  127  10.663   5.920   8.343
99410SOL    HW2  128  10.537   5.875   8.415
99411SOL     OW  129  10.582   9.763  13.160
99411SOL    HW1  130  10.507   9.755  13.220
99411SOL    HW2  131  10.582   9.680  13.111
99412SOL     OW  132   9.727   9.553  13.200
99412SOL    HW1  133   9.809   9.518  13.167
99412SOL    HW2  134   9.734   9.647  13.186
99413SOL     OW  135   0.406  12.155   6.664
99413SOL    HW1  136   0.447  12.241   6.654
99413SOL    HW2  137   0.479  12.093   6.659
99414SOL     OW  138   4.138  11.750   1.487
99414SOL    HW1  139   4.126  11.697   1.408
99414SOL    HW2  140   4.128  11.688   1.560
99415SOL     OW  141  13.814   2.240  13.765
99415SOL    HW1  142  13.732   2.280  13.793
99415SOL    HW2  143  13.856   2.306  13.710
99416SOL     OW  144   8.673   8.706  13.615
99416SOL    HW1  145   8.623   8.705  13.696
99416SOL    HW2  146   8.631   8.641  13.559
99417SOL     OW  147   8.422  10.699  14.508
99417SOL    HW1  148   8.478  10.648  14.567
99417SOL    HW2  149   8.481  10.729  14.439
99418SOL     OW  150   6.783   9.317  13.828
99418SOL    HW1  151   6.688   9.314  13.828
99418SOL    HW2  152   6.808   9.292  13.739
99419SOL     OW  153   8.070  11.067   3.262
99419SOL    HW1  154   8.082  11.144   3.318
99419SOL    HW2  155   8.031  11.101   3.182
99420SOL     OW  156   2.666   9.306   7.291
99420SOL    HW1  157   2.705   9.232   7.245
99420SOL    HW2  158   2.617   9.267   7.363
99421SOL     OW  159   0.567   2.475  11.964
99421SOL    HW1  160   0.569   2.388  11.923
99421SOL    HW2  161   0.602   2.461  12.052
99422SOL     OW  162   7.959   8.924   1.505
99422SOL    HW1  163   8.053   8.931   1.520
99422SOL    HW2  164   7.951   8.880   1.420
99423SOL     OW  165   8.448   7.736   6.511
99423SOL    HW1  166   8.492   7.768   6.589
99423SOL    HW2  167   8.497   7.774   6.438
99424SOL     OW  168   6.370   3.153   9.728
99424SOL    HW1  169   6.427   3.085   9.765
99424SOL    HW2  170   6.285   3.111   9.719
99425SOL     OW  171  11.854   6.606   9.222
99425SOL    HW1  172  11.829   6.520   9.254
99425SOL    HW2  173  11.940   6.623   9.261
99426SOL     OW  174  10.328  10.229  12.493
99426SOL    HW1  175  10.311  10.316  12.529
99426SOL    HW2  176  10.374  10.182  12.564
99427SOL     OW  177   0.137  10.234   0.590
99427SOL    HW1  178   0.157  10.208   0.680
99427SOL    HW2  179   0.116  10.153   0.545
99428SOL     OW  180  11.595   1.530   0.665
99428SOL    HW1  181  11.664   1.464   0.655
99428SOL    HW2  182  11.636   1.600   0.716
99429SOL     OW  183  14.179   1.527  11.823
99429SOL    HW1  184  14.258   1.492  11.864
99429SOL    HW2  185  14.192   1.512  11.729
99430SOL     OW  186   6.322   0.066   3.828
99430SOL    HW1  187   6.362  14.874   3.880
99430SOL    HW2  188   6.237   0.081   3.870
99431SOL     OW  189   7.575  13.884   2.554
99431SOL    HW1  190   7.511  13.877   2.625
99431SOL    HW2  191   7.653  13.839   2.588
99432SOL     OW  192   4.054   9.091   8.700
99432SOL    HW1  193   4.005   9.170   8.676
99432SOL    HW2  194   3.987   9.024   8.712
99433SOL     OW  195  13.710  12.816  11.626
99433SOL    HW1  196  13.672  12.741  11.671
99433SOL    HW2  197  13.797  12.787  11.600
99434SOL     OW  198   3.502   9.797  13.482
99434SOL    HW1  199   3.431   9.841  13.435
99434SOL    HW2  200   3.579   9.852  13.465
99435SOL     OW  201   5.228   4.974   4.252
99435SOL    HW1  202   5.197   5.044   4.195
99435SOL    HW2  203   5.284   4.920   4.195
99436SOL     OW  204   8.455   4.662   1.967
99436SOL    HW1  205   8.546   4.685   1.947
99436SOL    HW2  206   8.430   4.600   1.898
99437SOL     OW  207   1.685   8.955   6.007
99437SOL    HW1  208   1.655   8.875   6.051
99437SOL    HW2  209   1.737   8.923   5.933
99438SOL     OW  210   2.870  14.028  14.548
99438SOL    HW1  211   2.780  14.060  14.551
99438SOL    HW2  212   2.885  14.007  14.456
99439SOL     OW  213   3.742  12.425   1.950
99439SOL    HW1  214   3.695  12.392   2.027
99439SOL    HW2  215   3.835  12.410   1.970
99440SOL     OW  216   8.629   1.101   7.460
99440SOL    HW1  217   8.577   1.146   7.393
99440SOL    HW2  218   8.718   1.131   7.446
99441SOL     OW  219   8.256   5.532   1.987
99441SOL    HW1  220   8.204   5.458   2.020
99441SOL    HW2  221   8.250   5.598   2.056
99442SOL     OW  222  13.304   5.411  13.540
99442SOL    HW1  223  13.316   5.481  13.475
99442SOL    HW2  224  13.376   5.351  13.524
99443SOL     OW  225  11.084  14.618   6.757
99443SOL    HW1  226  11.028  14.540   6.758
99443SOL    HW2  227  11.116  14.626   6.847
99444SOL     OW  228  11.456   3.415   5.374
99444SOL    HW1  229  11.497   3.394   5.458
99444SOL    HW2  230  11.425   3.505   5.384
99445SOL     OW  231   1.095   9.334   6.660
99445SOL    HW1  232   1.120   9.425   6.646
99445SOL    HW2  233   1.043   9.335   6.740
99446SOL     OW  234  14.717   3.059  13.315
99446SOL    HW1  235  14.666   2.991  13.359
99446SOL    HW2  236  14.653   3.112  13.270
99447SOL     OW  237   7.992   5.229   3.519
99447SOL    HW1  238   8.032   5.192   3.440
99447SOL    HW2  239   7.901   5.246   3.494
99448SOL     OW  240   6.431  11.511  14.726
99448SOL    HW1  241   6.402  11.507  14.817
99448SOL    HW2  242   6.522  11.480  14.729
99449SOL     OW  243   4.003  13.687   1.668
99449SOL    HW1  244   4.089  13.673   1.708
99449SOL    HW2  245   3.957  13.605   1.683
99450SOL     OW  246   2.019   8.431   6.082
99450SOL    HW1  247   2.007   8.486   6.160
99450SOL    HW2  248   1.986   8.345   6.108
99451SOL     OW  249   0.602   5.731  10.271
99451SOL    HW1  250   0.678   5.703  10.220
99451SOL    HW2  251   0.633   5.807  10.320
99452SOL     OW  252   5.585   4.867   4.259
99452SOL    HW1  253   5.606   4.960   4.264
99452SOL    HW2  254   5.529   4.850   4.335
99453SOL     OW  255   9.382  14.510   6.995
99453SOL    HW1  256   9.435  14.551   6.926
99453SOL    HW2  257   9.421  14.543   7.077
99454SOL     OW  258  12.936  10.208   1.744
99454SOL    HW1  259  12.989  10.133   1.773
99454SOL    HW2  260  12.880  10.172   1.675
99455SOL     OW  261  12.769  12.602  13.586
99455SOL    HW1  262  12.827  12.527  13.577
99455SOL    HW2  263  12.707  12.576  13.654
99456SOL     OW  264  14.230   5.823   0.004
99456SOL    HW1  265  14.266   5.838  14.794
99456SOL    HW2  266  14.139   5.800  14.867
99457SOL     OW  267   7.078   3.116   3.640
99457SOL    HW1  268   7.095   3.202   3.603
99457SOL    HW2  269   7.127   3.114   3.722
99458SOL     OW  270  11.350   9.479   5.252
99458SOL    HW1  271  11.439   9.447   5.267
99458SOL    HW2  272  11.330   9.532   5.329
99459SOL     OW  273   7.793   1.478  11.370
99459SOL    HW1  274   7.782   1.476  11.465
99459SOL    HW2  275   7.758   1.562  11.343
99460SOL     OW  276   5.516   7.113   2.576
99460SOL    HW1  277   5.504   7.039   2.637
99460SOL    HW2  278   5.427   7.137   2.551
99461SOL     OW  279   4.231   0.533   2.637
99461SOL    HW1  280   4.151   0.540   2.585
99461SOL    HW2  281   4.203   0.556   2.726
99462SOL     OW  282   4.211   7.341   7.513
99462SOL    HW1  283   4.218   7.374   7.424
99462SOL    HW2  284   4.275   7.270   7.517
99463SOL     OW  285   1.023   5.256   5.572
99463SOL    HW1  286   0.935   5.221   5.578
99463SOL    HW2  287   1.080   5.179   5.575
99464SOL     OW  288   8.682  10.048   8.800
99464SOL    HW1  289   8.595  10.082   8.820
99464SOL    HW2  290   8.736  10.126   8.786
99465SOL     OW  291   8.233   8.860   1.509
99465SOL    HW1  292   8.259   8.768   1.514
99465SOL    HW2  293   8.259   8.888   1.421
99466SOL     OW  294  14.056   7.000   7.983
99466SOL    HW1  295  14.057   6.915   7.940
99466SOL    HW2  296  14.134   7.045   7.949
99467SOL     OW  297   3.393  14.647   6.390
99467SOL    HW1  298   3.470  14.638   6.447
99467SOL    HW2  299   3.420  14.609   6.307
99468SOL     OW  300  12.452   3.689   1.666
99468SOL    HW1  301  12.517   3.678   1.596
99468SOL    HW2  302  12.436   3.783   1.670
99469SOL     OW  303   4.073   2.106   2.766
99469SOL    HW1  304   4.164   2.126   2.743
99469SOL    HW2  305   4.034   2.074   2.685
99470SOL     OW  306   6.243  10.778   4.610
99470SOL    HW1  307   6.278  10.695   4.642
99470SOL    HW2  308   6.156  10.757   4.577
99471SOL     OW  309   3.847   8.034   9.125
99471SOL    HW1  310   3.869   7.944   9.150
99471SOL    HW2  311   3.780   8.024   9.058
99472SOL     OW  312  14.316  12.356   6.830
99472SOL    HW1  313  14.321  12.316   6.917
99472SOL    HW2  314  14.377  12.304   6.777
99473SOL     OW  315  13.229  10.435   8.087
99473SOL    HW1  316  13.214  10.455   7.995
99473SOL    HW2  317  13.157  10.375   8.110
99474SOL     OW  318   9.983  10.415   7.138
99474SOL    HW1  319   9.968  10.341   7.198
99474SOL    HW2  320   9.930  10.394   7.061
99475SOL     OW  321  12.889   4.666   2.671
99475SOL    HW1  322  12.881   4.639   2.762
99475SOL    HW2  323  12.911   4.759   2.675
99476SOL     OW  324   2.399   7.567   1.662
99476SOL    HW1  325   2.363   7.548   1.749
99476SOL    HW2  326   2.338   7.527   1.601
99477SOL     OW  327   1.951   5.753   1.167
99477SOL    HW1  328   1.950   5.661   1.192
99477SOL    HW2  329   1.859   5.779   1.169
99478SOL     OW  330   8.746   2.780   6.400
99478SOL    HW1  331   8.752   2.814   6.310
99478SOL    HW2  332   8.673   2.719   6.397
99479SOL     OW  333  10.869   3.587   0.621
99479SOL    HW1  334  10.851   3.494   0.603
99479SOL    HW2  335  10.953   3.604   0.578
99480SOL     OW  336   6.524  14.063   8.000
99480SOL    HW1  337   6.612  14.063   7.964
99480SOL    HW2  338   6.506  13.971   8.018
99481SOL     OW  339   9.015   2.575   2.696
99481SOL    HW1  340   9.078   2.528   2.641
99481SOL    HW2  341   8.940   2.591   2.639
99482SOL     OW  342   4.141   7.608  13.844
99482SOL    HW1  343   4.152   7.523  13.888
99482SOL    HW2  344   4.053   7.636  13.869
99483SOL     OW  345  10.409   5.471   1.714
99483SOL    HW1  346  10.462   5.392   1.723
99483SOL    HW2  347  10.337   5.460   1.775
99484SOL     OW  348   8.450   1.707  12.536
99484SOL    HW1  349   8.393   1.684  12.610
99484SOL    HW2  350   8.390   1.720  12.463
99485SOL     OW  351   6.552  10.197  12.819
99485SOL    HW1  352   6.580  10.148  12.742
99485SOL    HW2  353   6.467  10.233  12.794
99486SOL     OW  354   2.486  10.321   1.622
99486SOL    HW1  355   2.391  10.312   1.629
99486SOL    HW2  356   2.521  10.241   1.662
99487SOL     OW  357  14.800  12.355   0.809
99487SOL    HW1  358  14.874  12.295   0.811
99487SOL    HW2  359  14.747  12.326   0.735
99488SOL     OW  360   4.039   8.550   2.200
99488SOL    HW1  361   4.000   8.476   2.153
99488SOL    HW2  362   4.052   8.517   2.289
99489SOL     OW  363  11.071   6.240   7.385
99489SOL    HW1  364  11.081   6.214   7.293
99489SOL    HW2  365  10.979   6.265   7.392
99490SOL     OW  366   6.166  14.546   8.465
99490SOL    HW1  367   6.106  14.474   8.446
99490SOL    HW2  368   6.215  14.558   8.383
99491SOL     OW  369   5.773   5.804   7.616
99491SOL    HW1  370   5.803   5.894   7.602
99491SOL    HW2  371   5.805   5.781   7.703
99492SOL     OW  372   0.725   4.544   8.213
99492SOL    HW1  373   0.650   4.555   8.271
99492SOL    HW2  374   0.766   4.630   8.209
99493SOL     OW  375  11.545   7.985  14.303
99493SOL    HW1  376  11.462   8.030  14.287
99493SOL    HW2  377  11.584   7.976  14.216
99494SOL     OW  378   8.910  12.170   4.755
99494SOL    HW1  379   8.845  12.226   4.714
99494SOL    HW2  380   8.917  12.202   4.845
99495SOL     OW  381  12.749   9.909  14.674
99495SOL    HW1  382  12.838   9.873  14.670
99495SOL    HW2  383  12.693   9.833  14.691
99496SOL     OW  384  10.185  10.598   3.154
99496SOL    HW1  385  10.189  10.610   3.249
99496SOL    HW2  386  10.100  10.559   3.139
99497SOL     OW  387  10.021   3.885  10.355
99497SOL    HW1  388  10.065   3.801  10.371
99497SOL    HW2  389   9.959   3.866  10.285
99498SOL     OW  390  14.023   4.326   6.266
99498SOL    HW1  391  14.009   4.269   6.341
99498SOL    HW2  392  13.977   4.407   6.288
99499SOL     OW  393  10.569   0.831  11.423
99499SOL    HW1  394  10.615   0.902  11.469
99499SOL    HW2  395  10.507   0.876  11.365
99500SOL     OW  396   6.652  14.492   4.740
99500SOL    HW1  397   6.573  14.488   4.686
99500SOL    HW2  398   6.619  14.512   4.828
99501SOL     OW  399  10.280   8.866  11.518
99501SOL    HW1  400  10.251   8.782  11.553
99501SOL    HW2  401  10.337   8.842  11.445
99502SOL     OW  402   8.589   5.467  10.384
99502SOL    HW1  403   8.495   5.481  10.392
99502SOL    HW2  404   8.622   5.475  10.474
99503SOL     OW  405  11.492  14.491  10.946
99503SOL    HW1  406  11.465  14.560  10.885
99503SOL    HW2  407  11.583  14.473  10.924
99504SOL     OW  408   6.251   7.402   9.940
99504SOL    HW1  409   6.235   7.323   9.992
99504SOL    HW2  410   6.343   7.423   9.955
99505SOL     OW  411   1.181   4.868  13.237
99505SOL    HW1  412   1.227   4.951  13.248
99505SOL    HW2  413   1.135   4.876  13.154
99506SOL     OW  414  14.707  14.040  12.830
99506SOL    HW1  415  14.661  14.034  12.914
99506SOL    HW2  416  14.707  14.133  12.808
99507SOL     OW  417   6.374   8.575   5.600
99507SOL    HW1  418   6.451   8.631   5.603
99507SOL    HW2  419   6.376   8.528   5.684
99508SOL     OW  420   7.667   9.178   9.787
99508SOL    HW1  421   7.638   9.235   9.715
99508SOL    HW2  422   7.682   9.093   9.746
99509SOL     OW  423  12.075   6.375   3.787
99509SOL    HW1  424  12.105   6.417   3.868
99509SOL    HW2  425  12.153   6.334   3.751
99510SOL     OW  426  14.021   6.835   8.857
99510SOL    HW1  427  14.027   6.900   8.787
99510SOL    HW2  428  14.095   6.777   8.842
99511SOL     OW  429   6.628   0.586   9.334
99511SOL    HW1  430   6.599   0.643   9.405
99511SOL    HW2  431   6.682   0.642   9.278
99512SOL     OW  432  11.285  12.825   5.792
99512SOL    HW1  433  11.239  12.760   5.846
99512SOL    HW2  434  11.273  12.907   5.839
99513SOL     OW  435  14.242   6.650   3.696
99513SOL    HW1  436  14.202   6.598   3.627
99513SOL    HW2  437  14.224   6.602   3.776
99514SOL     OW  438  10.453   2.580   2.885
99514SOL    HW1  439  10.528   2.571   2.944
99514SOL    HW2  440  10.492   2.609   2.802
99515SOL     OW  441   2.013   7.629  14.632
99515SOL    HW1  442   1.996   7.590  14.718
99515SOL    HW2  443   2.024   7.723  14.651
99516SOL     OW  444  11.956   6.186   8.744
99516SOL    HW1  445  11.880   6.241   8.723
99516SOL    HW2  446  12.030   6.248   8.745
99517SOL     OW  447   6.206   7.030  14.048
99517SOL    HW1  448   6.256   7.074  13.978
99517SOL    HW2  449   6.191   6.942  14.015
99518SOL     OW  450   9.713  14.266  12.063
99518SOL    HW1  451   9.771  14.289  11.990
99518SOL    HW2  452   9.648  14.207  12.026
99519SOL     OW  453   0.213   5.178   8.908
99519SOL    HW1  454   0.250   5.090   8.902
99519SOL    HW2  455   0.249   5.213   8.989
99520SOL     OW  456   8.945   6.535  10.242
99520SOL    HW1  457   9.038   6.530  10.264
99520SOL    HW2  458   8.941   6.519  10.148
99521SOL     OW  459   5.301   1.366   7.600
99521SOL    HW1  460   5.347   1.291   7.637
99521SOL    HW2  461   5.211   1.335   7.590
99522SOL     OW  462   6.219   3.616  13.423
99522SOL    HW1  463   6.182   3.688  13.372
99522SOL    HW2  464   6.261   3.560  13.358
99523SOL     OW  465   1.554   0.871  12.180
99523SOL    HW1  466   1.625   0.904  12.125
99523SOL    HW2  467   1.597   0.817  12.246
99524SOL     OW  468   0.042  12.144   7.511
99524SOL    HW1  469   0.054  12.239   7.503
99524SOL    HW2  470   0.099  12.118   7.583
99525SOL     OW  471   8.509   8.742   2.061
99525SOL    HW1  472   8.535   8.815   2.004
99525SOL    HW2  473   8.546   8.664   2.019
99526SOL     OW  474  12.447   6.255   4.400
99526SOL    HW1  475  12.452   6.315   4.474
99526SOL    HW2  476  12.537   6.229   4.383
99527SOL     OW  477  10.230   7.721   7.292
99527SOL    HW1  478  10.250   7.803   7.336
99527SOL    HW2  479  10.152   7.740   7.240
99528SOL     OW  480   0.521   9.421   1.428
99528SOL    HW1  481   0.496   9.458   1.513
99528SOL    HW2  482   0.597   9.365   1.448
99529SOL     OW  483  10.513  14.687   8.786
99529SOL    HW1  484  10.571  14.636   8.730
99529SOL    HW2  485  10.424  14.661   8.760
99530SOL     OW  486  12.737   2.422   8.603
99530SOL    HW1  487  12.745   2.426   8.698
99530SOL    HW2  488  12.660   2.474   8.582
99531SOL     OW  489  11.479  12.950   4.598
99531SOL    HW1  490  11.468  12.876   4.539
99531SOL    HW2  491  11.517  13.020   4.544
99532SOL     OW  492  12.676   9.473  12.876
99532SOL    HW1  493  12.663   9.556  12.923
99532SOL    HW2  494  12.758   9.485  12.828
99533SOL     OW  495   6.217   9.686   8.479
99533SOL    HW1  496   6.124   9.674   8.463
99533SOL    HW2  497   6.221   9.735   8.562
99534SOL     OW  498  12.655   0.356   0.008
99534SOL    HW1  499  12.652   0.397  14.799
99534SOL    HW2  500  12.566   0.367   0.043
99535SOL     OW  501   6.962   7.785   0.364
99535SOL    HW1  502   6.977   7.754   0.274
99535SOL    HW2  503   6.950   7.705   0.415
99536SOL     OW  504   9.284  10.560   2.092
99536SOL    HW1  505   9.238  10.575   2.174
99536SOL    HW2  506   9.261  10.470   2.068
99537SOL     OW  507   2.621   8.835   6.009
99537SOL    HW1  508   2.644   8.914   5.960
99537SOL    HW2  509   2.540   8.859   6.055
99538SOL     OW  510  13.101  12.096  13.263
99538SOL    HW1  511  13.122  12.003  13.266
99538SOL    HW2  512  13.159  12.131  13.195
99539SOL     OW  513   3.265   7.783   6.010
99539SOL    HW1  514   3.243   7.707   5.956
99539SOL    HW2  515   3.348   7.816   5.973
99540SOL     OW  516  14.050   8.478   7.090
99540SOL    HW1  517  14.077   8.531   7.015
99540SOL    HW2  518  13.996   8.410   7.052
99541SOL     OW  519   3.690   9.771   9.487
99541SOL    HW1  520   3.717   9.764   9.396
99541SOL    HW2  521   3.632   9.697   9.502
99542SOL     OW  522   4.714  14.797  13.820
99542SOL    HW1  523   4.732   0.013  13.829
99542SOL    HW2  524   4.632  14.793  13.771
99543SOL     OW  525  12.190   9.526  13.136
99543SOL    HW1  526  12.211   9.507  13.227
99543SOL    HW2  527  12.234   9.610  13.118
99544SOL     OW  528   8.245  13.556   2.222
99544SOL    HW1  529   8.298  13.614   2.167
99544SOL    HW2  530   8.188  13.510   2.160
99545SOL     OW  531   1.956   2.285  11.380
99545SOL    HW1  532   2.020   2.307  11.447
99545SOL    HW2  533   1.888   2.352  11.389
99546SOL     OW  534   4.310   7.617   0.766
99546SOL    HW1  535   4.300   7.712   0.763
99546SOL    HW2  536   4.304   7.589   0.675
99547SOL     OW  537   8.586  13.980  12.371
99547SOL    HW1  538   8.641  13.918  12.323
99547SOL    HW2  539   8.630  14.064  12.360
99548SOL     OW  540  14.415  10.255   9.644
99548SOL    HW1  541  14.395  10.233   9.735
99548SOL    HW2  542  14.511  10.260   9.641
99549SOL     OW  543  13.765   6.472  13.638
99549SOL    HW1  544  13.755   6.383  13.671
99549SOL    HW2  545  13.720   6.527  13.702
99550SOL     OW  546  13.973   5.438   0.550
99550SOL    HW1  547  13.942   5.525   0.574
99550SOL    HW2  548  13.973   5.439   0.454
99551SOL     OW  549   8.459   4.206  13.691
99551SOL    HW1  550   8.425   4.146  13.625
99551SOL    HW2  551   8.474   4.152  13.768
99552SOL     OW  552  10.867   4.695   0.713
99552SOL    HW1  553  10.940   4.707   0.652
99552SOL    HW2  554  10.892   4.618   0.765
99553SOL     OW  555   0.325   9.724  11.079
99553SOL    HW1  556   0.392   9.709  11.145
99553SOL    HW2  557   0.275   9.643  11.077
99554SOL     OW  558   5.770   6.418  12.051
99554SOL    HW1  559   5.745   6.440  12.141
99554SOL    HW2  560   5.726   6.484  11.997
99555SOL     OW  561   4.963   9.857   8.101
99555SOL    HW1  562   4.950   9.825   8.011
99555SOL    HW2  563   4.963   9.778   8.155
99556SOL     OW  564   8.515   1.220  14.076
99556SOL    HW1  565   8.584   1.279  14.109
99556SOL    HW2  566   8.509   1.151  14.142
99557SOL     OW  567   7.235   5.942   5.547
99557SOL    HW1  568   7.177   5.913   5.618
99557SOL    HW2  569   7.321   5.947   5.588
99558SOL     OW  570   0.457   8.928   3.553
99558SOL    HW1  571   0.504   8.859   3.506
99558SOL    HW2  572   0.499   9.009   3.523
99559SOL     OW  573  14.671   7.187   9.339
99559SOL    HW1  574  14.745   7.222   9.290
99559SOL    HW2  575  14.708   7.164   9.424
99560SOL     OW  576  11.108  14.650   3.570
99560SOL    HW1  577  11.110  14.572   3.514
99560SOL    HW2  578  11.129  14.722   3.511
99561SOL     OW  579   1.877   1.913  14.678
99561SOL    HW1  580   1.860   2.006  14.661
99561SOL    HW2  581   1.947   1.890  14.616
99562SOL     OW  582  11.730   9.534   3.765
99562SOL    HW1  583  11.786   9.553   3.841
99562SOL    HW2  584  11.646   9.509   3.804
99563SOL     OW  585  10.269   9.396  10.210
99563SOL    HW1  586  10.219   9.361  10.284
99563SOL    HW2  587  10.235   9.484  10.198
99564SOL     OW  588   5.380   3.035  12.006
99564SOL    HW1  589   5.426   3.077  11.934
99564SOL    HW2  590   5.449   3.010  12.068
99565SOL     OW  591   1.681  14.424   7.891
99565SOL    HW1  592   1.648  14.513   7.896
99565SOL    HW2  593   1.625  14.381   7.826
99566SOL     OW  594  11.189   2.306  11.589
99566SOL    HW1  595  11.208   2.213  11.575
99566SOL    HW2  596  11.238   2.328  11.668
99567SOL     OW  597   1.762   8.894   1.194
99567SOL    HW1  598   1.845   8.899   1.239
99567SOL    HW2  599   1.764   8.809   1.149
99568SOL     OW  600  12.395   4.350   7.384
99568SOL    HW1  601  12.427   4.290   7.317
99568SOL    HW2  602  12.343   4.415   7.337
99569SOL     OW  603  10.553   4.889   0.370
99569SOL    HW1  604  10.612   4.820   0.337
99569SOL    HW2  605  10.469   4.869   0.328
99570SOL     OW  606   4.226  12.741  14.280
99570SOL    HW1  607   4.168  12.685  14.228
99570SOL    HW2  608   4.305  12.688  14.293
99571SOL     OW  609   2.819   2.777   3.702
99571SOL    HW1  610   2.852   2.687   3.702
99571SOL    HW2  611   2.865   2.820   3.774
99572SOL     OW  612   9.958   0.366   7.620
99572SOL    HW1  613  10.013   0.406   7.688
99572SOL    HW2  614   9.924   0.441   7.570
99573SOL     OW  615  11.854   3.888   2.126
99573SOL    HW1  616  11.862   3.968   2.073
99573SOL    HW2  617  11.820   3.822   2.066
99574SOL     OW  618   3.894   6.006  12.531
99574SOL    HW1  619   3.938   5.972  12.453
99574SOL    HW2  620   3.965   6.030  12.590
99575SOL     OW  621   9.307   1.520  13.697
99575SOL    HW1  622   9.319   1.464  13.774
99575SOL    HW2  623   9.319   1.609  13.731
99576SOL     OW  624  14.398  13.499  12.321
99576SOL    HW1  625  14.451  13.499  12.242
99576SOL    HW2  626  14.459  13.474  12.391
99577SOL     OW  627  14.647   0.727   2.213
99577SOL    HW1  628  14.552   0.742   2.213
99577SOL    HW2  629  14.685   0.813   2.234
99578SOL     OW  630  12.633   3.505   0.373
99578SOL    HW1  631  12.577   3.453   0.316
99578SOL    HW2  632  12.576   3.574   0.408
99579SOL     OW  633   6.966  10.318   3.955
99579SOL    HW1  634   6.939  10.301   3.865
99579SOL    HW2  635   6.884  10.314   4.005
99580SOL     OW  636  11.350  10.882  14.363
99580SOL    HW1  637  11.328  10.865  14.454
99580SOL    HW2  638  11.362  10.977  14.359
99581SOL     OW  639   0.287   1.324  12.967
99581SOL    HW1  640   0.200   1.349  13.000
99581SOL    HW2  641   0.340   1.312  13.046
99582SOL     OW  642   8.920  13.283   5.745
99582SOL    HW1  643   8.849  13.297   5.683
99582SOL    HW2  644   8.956  13.197   5.720
99583SOL     OW  645   3.951   6.937   1.256
99583SOL    HW1  646   3.983   6.900   1.339
99583SOL    HW2  647   4.031   6.958   1.207
99584SOL     OW  648   8.408   0.505   6.912
99584SOL    HW1  649   8.324   0.488   6.869
99584SOL    HW2  650   8.456   0.559   6.849
99585SOL     OW  651   7.651   0.662   0.754
99585SOL    HW1  652   7.678   0.675   0.845
99585SOL    HW2  653   7.714   0.713   0.703
99586SOL     OW  654   7.934   2.659   8.879
99586SOL    HW1  655   7.905   2.607   8.804
99586SOL    HW2  656   7.955   2.744   8.842
99587SOL     OW  657  11.700   2.970   9.942
99587SOL    HW1  658  11.710   3.053   9.988
99587SOL    HW2  659  11.789   2.943   9.920
99588SOL     OW  660  12.256   6.020   6.566
99588SOL    HW1  661  12.350   6.013   6.582
99588SOL    HW2  662  12.244   5.981   6.480
99589SOL     OW  663  11.699  12.454   5.718
99589SOL    HW1  664  11.744  12.445   5.634
99589SOL    HW2  665  11.607  12.470   5.694
99590SOL     OW  666   9.136   7.342   0.316
99590SOL    HW1  667   9.054   7.386   0.292
99590SOL    HW2  668   9.163   7.386   0.397
99591SOL     OW  669   8.204   2.558   6.644
99591SOL    HW1  670   8.163   2.637   6.680
99591SOL    HW2  671   8.200   2.495   6.716
99592SOL     OW  672   3.534  12.862  10.855
99592SOL    HW1  673   3.538  12.767  10.870
99592SOL    HW2  674   3.599  12.898  10.915
99593SOL     OW  675   8.014   2.732  14.766
99593SOL    HW1  676   7.943   2.669  14.774
99593SOL    HW2  677   8.094   2.680  14.774
99594SOL     OW  678  12.038  12.400   4.711
99594SOL    HW1  679  11.950  12.423   4.740
99594SOL    HW2  680  12.081  12.365   4.789
99595SOL     OW  681   7.560   8.322   0.536
99595SOL    HW1  682   7.597   8.248   0.584
99595SOL    HW2  683   7.504   8.282   0.470
99596SOL     OW  684   1.952  14.215   8.945
99596SOL    HW1  685   1.988  14.296   8.909
99596SOL    HW2  686   1.900  14.178   8.874
99597SOL     OW  687   5.057   2.605  12.954
99597SOL    HW1  688   5.031   2.557  13.032
99597SOL    HW2  689   5.149   2.581  12.940
99598SOL     OW  690   4.634   1.253   8.120
99598SOL    HW1  691   4.682   1.263   8.038
99598SOL    HW2  692   4.684   1.304   8.184
99599SOL     OW  693  10.682   4.222   4.170
99599SOL    HW1  694  10.591   4.250   4.179
99599SOL    HW2  695  10.676   4.134   4.132
99600SOL     OW  696  13.379   2.521   3.413
99600SOL    HW1  697  13.471   2.520   3.440
99600SOL    HW2  698  13.345   2.436   3.442
99601SOL     OW  699   6.054  10.389   9.046
99601SOL    HW1  700   6.141  10.422   9.068
99601SOL    HW2  701   6.046  10.308   9.096
99602SOL     OW  702  14.758   6.354   9.546
99602SOL    HW1  703  14.764   6.375   9.453
99602SOL    HW2  704  14.665   6.367   9.567
99603SOL     OW  705   4.127   0.675   9.701
99603SOL    HW1  706   4.220   0.653   9.692
99603SOL    HW2  707   4.109   0.667   9.794
99604SOL     OW  708  12.452   0.044   5.069
99604SOL    HW1  709  12.422   0.110   5.006
99604SOL    HW2  710  12.513   0.091   5.126
99605SOL     OW  711  13.056  14.737   3.094
99605SOL    HW1  712  13.116  14.811   3.107
99605SOL    HW2  713  12.977  14.777   3.057
99606SOL     OW  714   9.917   9.580  11.179
99606SOL    HW1  715   9.840   9.631  11.202
99606SOL    HW2  716   9.907   9.562  11.085
99607SOL     OW  717  12.485   6.397   7.279
99607SOL    HW1  718  12.449   6.309   7.277
99607SOL    HW2  719  12.464   6.430   7.366
99608SOL     OW  720   1.826   3.384  12.661
99608SOL    HW1  721   1.863   3.297  12.674
99608SOL    HW2  722   1.739   3.368  12.624
99609SOL     OW  723  11.291   9.838   2.174
99609SOL    HW1  724  11.316   9.844   2.082
99609SOL    HW2  725  11.340   9.907   2.217
99610SOL     OW  726   0.894   3.173   7.969
99610SOL    HW1  727   0.949   3.138   7.899
99610SOL    HW2  728   0.947   3.165   8.048
99611SOL     OW  729  10.070   3.464  12.351
99611SOL    HW1  730  10.025   3.385  12.382
99611SOL    HW2  731  10.108   3.502  12.430
99612SOL     OW  732   2.110   9.238   6.180
99612SOL    HW1  733   2.117   9.181   6.256
99612SOL    HW2  734   2.024   9.218   6.142
99613SOL     OW  735   1.045  14.702   6.637
99613SOL    HW1  736   0.996  14.696   6.720
99613SOL    HW2  737   1.015  14.627   6.586
99614SOL     OW  738  14.481   7.140   1.473
99614SOL    HW1  739  14.515   7.053   1.496
99614SOL    HW2  740  14.551   7.200   1.498
99615SOL     OW  741  14.599   8.935   7.325
99615SOL    HW1  742  14.551   8.977   7.253
99615SOL    HW2  743  14.612   9.005   7.389
99616SOL     OW  744  13.047   9.961  12.570
99616SOL    HW1  745  12.957   9.927  12.573
99616SOL    HW2  746  13.036  10.053  12.548
99617SOL     OW  747   2.832  12.640  14.078
99617SOL    HW1  748   2.823  12.596  14.163
99617SOL    HW2  749   2.745  12.677  14.062
99618SOL     OW  750   6.412   2.663  14.610
99618SOL    HW1  751   6.339   2.636  14.666
99618SOL    HW2  752   6.381   2.743  14.567
99619SOL     OW  753  12.066   8.384   1.491
99619SOL    HW1  754  12.064   8.377   1.587
99619SOL    HW2  755  12.024   8.468   1.472
99620SOL     OW  756   7.680  10.960   4.441
99620SOL    HW1  757   7.665  11.011   4.361
99620SOL    HW2  758   7.663  11.022   4.512
99621SOL     OW  759   7.755   7.470   8.016
99621SOL    HW1  760   7.659   7.465   8.021
99621SOL    HW2  761   7.773   7.502   7.928
99622SOL     OW  762  11.584  10.395   0.691
99622SOL    HW1  763  11.535  10.427   0.615
99622SOL    HW2  764  11.667  10.364   0.655
99623SOL     OW  765   5.777  10.107  13.064
99623SOL    HW1  766   5.801  10.014  13.067
99623SOL    HW2  767   5.861  10.153  13.070
99624SOL     OW  768   1.547   1.171   8.683
99624SOL    HW1  769   1.555   1.251   8.631
99624SOL    HW2  770   1.453   1.151   8.682
99625SOL     OW  771  11.122   9.183   1.842
99625SOL    HW1  772  11.178   9.107   1.831
99625SOL    HW2  773  11.091   9.177   1.933
99626SOL     OW  774  11.408   7.104   2.299
99626SOL    HW1  775  11.347   7.044   2.257
99626SOL    HW2  776  11.356   7.147   2.367
99627SOL     OW  777  10.891   0.834   7.565
99627SOL    HW1  778  10.979   0.806   7.540
99627SOL    HW2  779  10.900   0.927   7.585
99628SOL     OW  780   7.905   7.724   0.283
99628SOL    HW1  781   7.878   7.782   0.211
99628SOL    HW2  782   8.000   7.718   0.275
99629SOL     OW  783  12.702   3.222   9.573
99629SOL    HW1  784  12.700   3.134   9.536
99629SOL    HW2  785  12.677   3.279   9.500
99630SOL     OW  786  10.969   0.967   8.581
99630SOL    HW1  787  11.039   0.903   8.592
99630SOL    HW2  788  10.993   1.040   8.637
99631SOL     OW  789  13.787  13.972   0.418
99631SOL    HW1  790  13.734  13.982   0.338
99631SOL    HW2  791  13.723  13.963   0.488
99632SOL     OW  792   1.384  10.588  14.454
99632SOL    HW1  793   1.323  10.553  14.519
99632SOL    HW2  794   1.331  10.647  14.401
99633SOL     OW  795  14.404   6.446  10.485
99633SOL    HW1  796  14.360   6.489  10.559
99633SOL    HW2  797  14.444   6.368  10.523
99634SOL     OW  798   8.889   0.590   1.416
99634SOL    HW1  799   8.933   0.562   1.497
99634SOL    HW2  800   8.949   0.654   1.377
99635SOL     OW  801   6.670  13.686  13.379
99635SOL    HW1  802   6.708  13.694  13.466
99635SOL    HW2  803   6.589  13.636  13.392
99636SOL     OW  804   6.019  14.407   3.908
99636SOL    HW1  805   6.018  14.316   3.935
99636SOL    HW2  806   5.947  14.415   3.846
99637SOL     OW  807  11.847   8.816  14.371
99637SOL    HW1  808  11.754   8.808  14.350
99637SOL    HW2  809  11.889   8.746  14.320
99638SOL     OW  810  10.976  10.157   3.415
99638SOL    HW1  811  10.920  10.099   3.363
99638SOL    HW2  812  11.023  10.098   3.474
99639SOL     OW  813   8.584  12.905   4.080
99639SOL    HW1  814   8.670  12.863   4.081
99639SOL    HW2  815   8.578  12.945   3.993
99640SOL     OW  816   8.777   2.929  13.899
99640SOL    HW1  817   8.766   2.945  13.806
99640SOL    HW2  818   8.866   2.895  13.907
99641SOL     OW  819   8.886   2.683   1.637
99641SOL    HW1  820   8.794   2.687   1.610
99641SOL    HW2  821   8.934   2.668   1.556
99642SOL     OW  822   7.719  13.494  14.102
99642SOL    HW1  823   7.624  13.482  14.101
99642SOL    HW2  824   7.750  13.437  14.032
99643SOL     OW  825   6.105   8.577  14.527
99643SOL    HW1  826   6.093   8.540  14.615
99643SOL    HW2  827   6.028   8.550  14.478
99644SOL     OW  828   3.815  10.375   6.881
99644SOL    HW1  829   3.747  10.314   6.909
99644SOL    HW2  830   3.795  10.393   6.790
99645SOL     OW  831   2.714   4.116  11.449
99645SOL    HW1  832   2.754   4.030  11.461
99645SOL    HW2  833   2.788   4.173  11.426
99646SOL     OW  834  11.891  10.145   3.201
99646SOL    HW1  835  11.985  10.163   3.209
99646SOL    HW2  836  11.876  10.073   3.262
99647SOL     OW  837  14.799  10.240   2.377
99647SOL    HW1  838  14.829  10.323   2.339
99647SOL    HW2  839  14.872  10.212   2.433
99648SOL     OW  840   9.543  14.687   1.700
99648SOL    HW1  841   9.526  14.741   1.622
99648SOL    HW2  842   9.459  14.645   1.719
99649SOL     OW  843   0.706   8.889   0.404
99649SOL    HW1  844   0.770   8.909   0.472
99649SOL    HW2  845   0.752   8.834   0.341
99650SOL     OW  846  11.609   4.120   6.410
99650SOL    HW1  847  11.633   4.119   6.318
99650SOL    HW2  848  11.515   4.104   6.411
99651SOL     OW  849   5.329   3.524   7.756
99651SOL    HW1  850   5.368   3.574   7.827
99651SOL    HW2  851   5.259   3.474   7.797
99652SOL     OW  852  13.126   1.448   4.458
99652SOL    HW1  853  13.088   1.428   4.544
99652SOL    HW2  854  13.108   1.541   4.445
99653SOL     OW  855   2.226  12.727  10.144
99653SOL    HW1  856   2.208  12.809  10.096
99653SOL    HW2  857   2.320  12.713  10.132
99654SOL     OW  858   5.152   4.368   2.976
99654SOL    HW1  859   5.231   4.377   3.030
99654SOL    HW2  860   5.177   4.404   2.891
99655SOL     OW  861  10.660  11.459   2.269
99655SOL    HW1  862  10.661  11.483   2.177
99655SOL    HW2  863  10.568  11.443   2.289
99656SOL     OW  864   4.102  12.252   5.396
99656SOL    HW1  865   4.029  12.279   5.452
99656SOL    HW2  866   4.086  12.160   5.378
99657SOL     OW  867   8.050  10.600   6.188
99657SOL    HW1  868   8.004  10.682   6.171
99657SOL    HW2  869   8.022  10.542   6.117
99658SOL     OW  870  11.361  10.827  12.243
99658SOL    HW1  871  11.336  10.919  12.238
99658SOL    HW2  872  11.390  10.805  12.155
99659SOL     OW  873   4.725  14.394   4.685
99659SOL    HW1  874   4.665  14.320   4.676
99659SOL    HW2  875   4.801  14.368   4.633
99660SOL     OW  876   9.983  13.351  14.787
99660SOL    HW1  877  10.013  13.342  14.697
99660SOL    HW2  878  10.015  13.271  14.830
99661SOL     OW  879  10.449   7.177  12.961
99661SOL    HW1  880  10.461   7.192  13.055
99661SOL    HW2  881  10.415   7.088  12.955
99662SOL     OW  882   8.186   3.657  12.779
99662SOL    HW1  883   8.226   3.603  12.848
99662SOL    HW2  884   8.203   3.608  12.699
99663SOL     OW  885   6.048   3.144   3.804
99663SOL    HW1  886   6.037   3.051   3.828
99663SOL    HW2  887   5.974   3.163   3.747
99664SOL     OW  888   8.360  13.700  12.580
99664SOL    HW1  889   8.282  13.654  12.612
99664SOL    HW2  890   8.355  13.693  12.485
99665SOL     OW  891  12.722   7.279   8.771
99665SOL    HW1  892  12.684   7.353   8.724
99665SOL    HW2  893  12.786   7.242   8.711
99666SOL     OW  894  11.749  13.772   3.375
99666SOL    HW1  895  11.681  13.836   3.396
99666SOL    HW2  896  11.711  13.688   3.401
99667SOL     OW  897   2.867   5.467   0.760
99667SOL    HW1  898   2.845   5.382   0.724
99667SOL    HW2  899   2.787   5.496   0.804
99668SOL     OW  900   4.053   9.006  12.826
99668SOL    HW1  901   4.141   8.991  12.860
99668SOL    HW2  902   4.060   8.986  12.732
99669SOL     OW  903  13.727  13.178  14.840
99669SOL    HW1  904  13.813  13.205  14.874
99669SOL    HW2  905  13.721  13.086  14.864
99670SOL     OW  906   4.250   3.128  10.179
99670SOL    HW1  907   4.280   3.215  10.153
99670SOL    HW2  908   4.255   3.076  10.099
99671SOL     OW  909  14.145   5.886   0.904
99671SOL    HW1  910  14.211   5.819   0.923
99671SOL    HW2  911  14.087   5.845   0.840
99672SOL     OW  912   7.636   9.206   7.673
99672SOL    HW1  913   7.659   9.199   7.766
99672SOL    HW2  914   7.584   9.128   7.656
99673SOL     OW  915   1.823  12.106   8.972
99673SOL    HW1  916   1.828  12.039   8.904
99673SOL    HW2  917   1.885  12.174   8.944
99674SOL     OW  918   2.183   3.724   8.982
99674SOL    HW1  919   2.205   3.811   9.014
99674SOL    HW2  920   2.213   3.723   8.891
99675SOL     OW  921   0.050  12.555   9.383
99675SOL    HW1  922   0.098  12.616   9.327
99675SOL    HW2  923   0.107  12.541   9.458
99676SOL     OW  924   6.213   6.566   7.844
99676SOL    HW1  925   6.239   6.478   7.817
99676SOL    HW2  926   6.210   6.561   7.940
99677SOL     OW  927   4.799  10.149   1.816
99677SOL    HW1  928   4.735  10.146   1.746
99677SOL    HW2  929   4.803  10.059   1.850
99678SOL     OW  930   8.527   7.476   1.087
99678SOL    HW1  931   8.453   7.422   1.061
99678SOL    HW2  932   8.517   7.488   1.181
99679SOL     OW  933  12.160   4.818   5.612
99679SOL    HW1  934  12.238   4.799   5.561
99679SOL    HW2  935  12.192   4.866   5.688
99680SOL     OW  936   8.140   9.479   5.699
99680SOL    HW1  937   8.230   9.510   5.692
99680SOL    HW2  938   8.112   9.506   5.786
99681SOL     OW  939   5.114   8.938   7.074
99681SOL    HW1  940   5.036   8.990   7.089
99681SOL    HW2  941   5.173   8.963   7.145
99682SOL     OW  942   8.801  14.432   6.365
99682SOL    HW1  943   8.790  14.526   6.378
99682SOL    HW2  944   8.718  14.394   6.393
99683SOL     OW  945   4.665  10.070   5.854
99683SOL    HW1  946   4.626   9.987   5.828
99683SOL    HW2  947   4.632  10.086   5.942
99684SOL     OW  948  12.881   1.241   3.181
99684SOL    HW1  949  12.902   1.316   3.236
99684SOL    HW2  950  12.883   1.276   3.091
99685SOL     OW  951  12.860   2.536   0.605
99685SOL    HW1  952  12.823   2.598   0.543
99685SOL    HW2  953  12.874   2.587   0.685
99686SOL     OW  954   6.551   0.533   3.146
99686SOL    HW1  955   6.571   0.446   3.111
99686SOL    HW2  956   6.635   0.580   3.143
99687SOL     OW  957  10.534   8.880   7.910
99687SOL    HW1  958  10.447   8.846   7.930
99687SOL    HW2  959  10.587   8.856   7.986
99688SOL     OW  960   2.160   0.824   9.904
99688SOL    HW1  961   2.084   0.827   9.962
99688SOL    HW2  962   2.231   0.790   9.958
99689SOL     OW  963   0.270  13.215   3.232
99689SOL    HW1  964   0.225  13.279   3.287
99689SOL    HW2  965   0.316  13.158   3.293
99690SOL     OW  966   6.352  14.026   3.376
99690SOL    HW1  967   6.324  13.935   3.385
99690SOL    HW2  968   6.448  14.023   3.380
99691SOL     OW  969   9.154   3.387   4.626
99691SOL    HW1  970   9.109   3.437   4.695
99691SOL    HW2  971   9.105   3.406   4.546
99692SOL     OW  972  14.145  11.390   9.660
99692SOL    HW1  973  14.163  11.332   9.586
99692SOL    HW2  974  14.098  11.464   9.622
99693SOL     OW  975  12.996  10.101   8.969
99693SOL    HW1  976  13.055  10.099   9.045
99693SOL    HW2  977  13.023  10.179   8.921
99694SOL     OW  978  12.168  11.789  10.051
99694SOL    HW1  979  12.214  11.819  10.129
99694SOL    HW2  980  12.125  11.868  10.017
99695SOL     OW  981  11.319  13.058   6.986
99695SOL    HW1  982  11.284  12.983   7.035
99695SOL    HW2  983  11.374  13.018   6.918
99696SOL     OW  984   3.687   9.310   6.390
99696SOL    HW1  985   3.610   9.277   6.437
99696SOL    HW2  986   3.659   9.396   6.357
99697SOL     OW  987   3.291   1.803   7.208
99697SOL    HW1  988   3.361   1.744   7.182
99697SOL    HW2  989   3.223   1.789   7.142
99698SOL     OW  990   0.766  13.810   1.932
99698SOL    HW1  991   0.774  13.771   2.019
99698SOL    HW2  992   0.815  13.750   1.875
99699SOL     OW  993  11.431   4.447   8.581
99699SOL    HW1  994  11.515   4.402   8.585
99699SOL    HW2  995  11.444   4.526   8.634
99700SOL     OW  996   6.842  14.843   4.252
99700SOL    HW1  997   6.791  14.807   4.325
99700SOL    HW2  998   6.840  14.774   4.185
99701SOL     OW  999   2.474   6.412   4.527
99701SOL    HW1 1000   2.523   6.422   4.608
99701SOL    HW2 1001   2.403   6.352   4.549
99702SOL     OW 1002   9.701   6.677  14.013
99702SOL    HW1 1003   9.694   6.754  14.070
99702SOL    HW2 1004   9.617   6.675  13.966
99703SOL     OW 1005  12.145   0.927  11.769
99703SOL    HW1 1006  12.087   0.996  11.802
99703SOL    HW2 1007  12.121   0.918  11.677
99704SOL     OW 1008   4.831   2.636   9.187
99704SOL    HW1 1009   4.916   2.611   9.224
99704SOL    HW2 1010   4.844   2.634   9.093
99705SOL     OW 1011   2.425   9.714   7.561
99705SOL    HW1 1012   2.459   9.740   7.475
99705SOL    HW2 1013   2.490   9.746   7.623
99706SOL     OW 1014  13.274   7.583   5.490
99706SOL    HW1 1015  13.369   7.592   5.500
99706SOL    HW2 1016  13.259   7.489   5.485
99707SOL     OW 1017   9.718   7.123  12.885
99707SOL    HW1 1018   9.626   7.143  12.900
99707SOL    HW2 1019   9.765   7.173  12.952
99708SOL     OW 1020   8.280   4.789   9.050
99708SOL    HW1 1021   8.313   4.867   9.006
99708SOL    HW2 1022   8.239   4.822   9.130
99709SOL     OW 1023   0.933   4.461   9.962
99709SOL    HW1 1024   0.853   4.510   9.941
99709SOL    HW2 1025   0.917   4.427  10.050
99710SOL     OW 1026  11.027   5.792   5.623
99710SOL    HW1 1027  11.049   5.875   5.582
99710SOL    HW2 1028  10.947   5.809   5.672
99711SOL     OW 1029   6.641  10.129  13.379
99711SOL    HW1 1030   6.732  10.100  13.370
99711SOL    HW2 1031   6.622  10.117  13.472
99712SOL     OW 1032   5.690   1.426   3.961
99712SOL    HW1 1033   5.640   1.345   3.948
99712SOL    HW2 1034   5.777   1.406   3.928
99713SOL     OW 1035  14.506   8.295   0.665
99713SOL    HW1 1036  14.477   8.265   0.751
99713SOL    HW2 1037  14.521   8.214   0.615
99714SOL     OW 1038  12.033   2.399   3.102
99714SOL    HW1 1039  12.058   2.307   3.094
99714SOL    HW2 1040  11.942   2.397   3.133
99715SOL     OW 1041  13.751   2.641  14.842
99715SOL    HW1 1042  13.731   2.578   0.034
99715SOL    HW2 1043  13.840   2.671  14.861
99716SOL     OW 1044   0.699   9.469  13.258
99716SOL    HW1 1045   0.715   9.561  13.239
99716SOL    HW2 1046   0.653   9.469  13.342
99717SOL     OW 1047  13.096  12.302   9.340
99717SOL    HW1 1048  13.010  12.341   9.324
99717SOL    HW2 1049  13.080  12.208   9.335
99718SOL     OW 1050   4.471  11.152  11.964
99718SOL    HW1 1051   4.389  11.165  12.011
99718SOL    HW2 1052   4.475  11.058  11.946
99719SOL     OW 1053  11.819  14.363   7.089
99719SOL    HW1 1054  11.903  14.401   7.061
99719SOL    HW2 1055  11.843  14.286   7.140
99720SOL     OW 1056   2.842   2.198   9.760
99720SOL    HW1 1057   2.904   2.249   9.708
99720SOL    HW2 1058   2.805   2.260   9.822
99721SOL     OW 1059   3.319   0.788   0.153
99721SOL    HW1 1060   3.262   0.711   0.157
99721SOL    HW2 1061   3.283   0.840   0.081
99722SOL     OW 1062   8.971  12.276  11.778
99722SOL    HW1 1063   8.971  12.182  11.758
99722SOL    HW2 1064   8.921  12.315  11.706
99723SOL     OW 1065   1.090   7.929   7.795
99723SOL    HW1 1066   1.011   7.931   7.849
99723SOL    HW2 1067   1.162   7.939   7.858
99724SOL     OW 1068   8.891   9.891   8.839
99724SOL    HW1 1069   8.879   9.796   8.837
99724SOL    HW2 1070   8.801   9.926   8.837
99725SOL     OW 1071   0.895   2.059   8.997
99725SOL    HW1 1072   0.846   2.137   9.024
99725SOL    HW2 1073   0.960   2.093   8.934
99726SOL     OW 1074   5.582   2.637  12.199
99726SOL    HW1 1075   5.517   2.657  12.266
99726SOL    HW2 1076   5.562   2.548  12.172
99727SOL     OW 1077   7.698  11.764  12.843
99727SOL    HW1 1078   7.761  11.704  12.804
99727SOL    HW2 1079   7.725  11.850  12.813
99728SOL     OW 1080   9.256   7.543  14.636
99728SOL    HW1 1081   9.206   7.532  14.555
99728SOL    HW2 1082   9.190   7.541  14.705
99729SOL     OW 1083   1.453   4.669   3.216
99729SOL    HW1 1084   1.476   4.727   3.289
99729SOL    HW2 1085   1.364   4.696   3.192
99730SOL     OW 1086  12.364   3.175   9.602
99730SOL    HW1 1087  12.443   3.214   9.640
99730SOL    HW2 1088  12.294   3.200   9.663
99731SOL     OW 1089  10.048   2.136  10.580
99731SOL    HW1 1090  10.087   2.193  10.646
99731SOL    HW2 1091   9.974   2.187  10.546
99732SOL     OW 1092   3.830   9.666   4.355
99732SOL    HW1 1093   3.894   9.663   4.426
99732SOL    HW2 1094   3.879   9.639   4.277
99733SOL     OW 1095   5.529   0.413  12.862
99733SOL    HW1 1096   5.534   0.388  12.770
99733SOL    HW2 1097   5.436   0.430  12.877
99734SOL     OW 1098   2.920   0.342   6.735
99734SOL    HW1 1099   2.962   0.360   6.651
99734SOL    HW2 1100   2.844   0.288   6.713
99735SOL     OW 1101   7.012  10.636   7.759
99735SOL    HW1 1102   7.085  10.695   7.742
99735SOL    HW2 1103   6.969  10.672   7.837
99736SOL     OW 1104   8.186   5.555   9.264
99736SOL    HW1 1105   8.124   5.504   9.211
99736SOL    HW2 1106   8.132   5.593   9.333
99737SOL     OW 1107   4.142  13.722  14.560
99737SOL    HW1 1108   4.088  13.667  14.616
99737SOL    HW2 1109   4.164  13.798  14.614
99738SOL     OW 1110  12.443   8.200   8.697
99738SOL    HW1 1111  12.397   8.271   8.654
99738SOL    HW2 1112  12.404   8.120   8.661
99739SOL     OW 1113   6.223   1.575   8.456
99739SOL    HW1 1114   6.246   1.651   8.510
99739SOL    HW2 1115   6.133   1.555   8.480
99740SOL     OW 1116   9.604   4.449   8.678
99740SOL    HW1 1117   9.591   4.382   8.611
99740SOL    HW2 1118   9.694   4.477   8.667
99741SOL     OW 1119   6.786   7.875   4.704
99741SOL    HW1 1120   6.875   7.842   4.716
99741SOL    HW2 1121   6.761   7.909   4.790
99742SOL     OW 1122   5.434   7.992   5.791
99742SOL    HW1 1123   5.443   7.980   5.886
99742SOL    HW2 1124   5.389   7.913   5.761
99743SOL     OW 1125  14.773   3.420   7.297
99743SOL    HW1 1126  14.854   3.379   7.266
99743SOL    HW2 1127  14.737   3.462   7.219
99744SOL     OW 1128  12.123  12.338   7.954
99744SOL    HW1 1129  12.087  12.416   7.996
99744SOL    HW2 1130  12.126  12.360   7.861
99745SOL     OW 1131   1.371  11.727  10.593
99745SOL    HW1 1132   1.301  11.747  10.531
99745SOL    HW2 1133   1.445  11.780  10.563
99746SOL     OW 1134   2.805   5.562   6.311
99746SOL    HW1 1135   2.822   5.619   6.237
99746SOL    HW2 1136   2.753   5.616   6.371
99747SOL     OW 1137  14.036  10.229   2.187
99747SOL    HW1 1138  14.044  10.323   2.172
99747SOL    HW2 1139  13.949  10.206   2.154
99748SOL     OW 1140   0.590   3.377   4.229
99748SOL    HW1 1141   0.529   3.304   4.227
99748SOL    HW2 1142   0.644   3.362   4.306
99749SOL     OW 1143  12.393   1.511   5.654
99749SOL    HW1 1144  12.387   1.606   5.660
99749SOL    HW2 1145  12.313   1.485   5.607
99750SOL     OW 1146   2.191   8.457   6.847
99750SOL    HW1 1147   2.139   8.418   6.917
99750SOL    HW2 1148   2.166   8.408   6.769
99751SOL     OW 1149  14.573   8.392   1.768
99751SOL    HW1 1150  14.498   8.388   1.709
99751SOL    HW2 1151  14.563   8.476   1.814
99752SOL     OW 1152   9.905   7.769   3.368
99752SOL    HW1 1153   9.827   7.714   3.370
99752SOL    HW2 1154   9.977   7.707   3.352
99753SOL     OW 1155   1.209  11.940   0.066
99753SOL    HW1 1156   1.201  11.850   0.098
99753SOL    HW2 1157   1.121  11.962   0.036
99754SOL     OW 1158   8.802   1.204   1.426
99754SOL    HW1 1159   8.721   1.254   1.436
99754SOL    HW2 1160   8.787   1.125   1.478
99755SOL     OW 1161  14.745   8.012   4.390
99755SOL    HW1 1162  14.798   8.049   4.320
99755SOL    HW2 1163  14.768   8.063   4.467
99756SOL     OW 1164   1.193   2.130  11.876
99756SOL    HW1 1165   1.152   2.119  11.962
99756SOL    HW2 1166   1.191   2.224  11.860
99757SOL     OW 1167   2.917  10.524   2.760
99757SOL    HW1 1168   2.901  10.550   2.669
99757SOL    HW2 1169   3.011  10.507   2.764
99758SOL     OW 1170  11.205   6.978   1.812
99758SOL    HW1 1171  11.273   6.923   1.772
99758SOL    HW2 1172  11.160   6.920   1.873
99759SOL     OW 1173  14.266   2.145  12.345
99759SOL    HW1 1174  14.189   2.182  12.302
99759SOL    HW2 1175  14.243   2.144  12.438
99760SOL     OW 1176   4.089   6.893  13.179
99760SOL    HW1 1177   4.028   6.963  13.156
99760SOL    HW2 1178   4.034   6.818  13.199
99761SOL     OW 1179  10.470   3.281   6.398
99761SOL    HW1 1180  10.442   3.329   6.319
99761SOL    HW2 1181  10.563   3.300   6.406
99762SOL     OW 1182  13.664   6.976   9.361
99762SOL    HW1 1183  13.606   7.047   9.386
99762SOL    HW2 1184  13.685   6.931   9.443
99763SOL     OW 1185   0.414   7.262   1.239
99763SOL    HW1 1186   0.509   7.263   1.245
99763SOL    HW2 1187   0.396   7.271   1.145
99764SOL     OW 1188   5.946  10.437  10.010
99764SOL    HW1 1189   5.996  10.366  10.050
99764SOL    HW2 1190   6.013  10.500   9.981
99765SOL     OW 1191   7.891   3.264   8.008
99765SOL    HW1 1192   7.844   3.332   8.056
99765SOL    HW2 1193   7.869   3.280   7.916
99766SOL     OW 1194  13.749   5.281   0.050
99766SOL    HW1 1195  13.677   5.264  14.868
99766SOL    HW2 1196  13.822   5.305  14.871
99767SOL     OW 1197  11.095   4.977  13.863
99767SOL    HW1 1198  11.135   5.023  13.790
99767SOL    HW2 1199  11.156   4.906  13.883
99768SOL     OW 1200   5.044   7.093   5.419
99768SOL    HW1 1201   5.134   7.093   5.452
99768SOL    HW2 1202   5.054   7.090   5.324
99769SOL     OW 1203  11.721  12.795   6.694
99769SOL    HW1 1204  11.812  12.817   6.672
99769SOL    HW2 1205  11.718  12.699   6.687
99770SOL     OW 1206   1.408   9.026   6.871
99770SOL    HW1 1207   1.476   8.985   6.925
99770SOL    HW2 1208   1.329   8.976   6.890
99771SOL     OW 1209  13.524   3.990  14.620
99771SOL    HW1 1210  13.484   3.934  14.687
99771SOL    HW2 1211  13.591   3.935  14.580
99772SOL     OW 1212   1.846   2.470   4.229
99772SOL    HW1 1213   1.880   2.382   4.214
99772SOL    HW2 1214   1.925   2.523   4.245
99773SOL     OW 1215   5.087  10.362   2.305
99773SOL    HW1 1216   5.126  10.397   2.226
99773SOL    HW2 1217   4.999  10.333   2.278
99774SOL     OW 1218   8.575   9.443   9.564
99774SOL    HW1 1219   8.657   9.492   9.558
99774SOL    HW2 1220   8.589   9.382   9.636
99775SOL     OW 1221   8.073  10.362  13.200
99775SOL    HW1 1222   7.999  10.394  13.148
99775SOL    HW2 1223   8.135  10.434  13.200
99776SOL     OW 1224   3.917  14.549   2.741
99776SOL    HW1 1225   3.892  14.636   2.773
99776SOL    HW2 1226   3.984  14.519   2.803
99777SOL     OW 1227   4.934   5.313   3.990
99777SOL    HW1 1228   4.938   5.397   3.945
99777SOL    HW2 1229   4.841   5.301   4.009
99778SOL     OW 1230   9.044  10.014   9.792
99778SOL    HW1 1231   9.071   9.923   9.785
99778SOL    HW2 1232   9.114  10.056   9.842
99779SOL     OW 1233   3.971   0.983  10.245
99779SOL    HW1 1234   3.897   0.961  10.189
99779SOL    HW2 1235   4.048   0.956  10.195
99780SOL     OW 1236  10.622  12.409   7.706
99780SOL    HW1 1237  10.699  12.397   7.761
99780SOL    HW2 1238  10.643  12.483   7.649
99781SOL     OW 1239  13.751  12.383   0.619
99781SOL    HW1 1240  13.723  12.305   0.666
99781SOL    HW2 1241  13.846  12.383   0.627
99782SOL     OW 1242   2.499  12.285  11.999
99782SOL    HW1 1243   2.436  12.279  11.928
99782SOL    HW2 1244   2.551  12.363  11.980
99783SOL     OW 1245   8.673   5.528   8.049
99783SOL    HW1 1246   8.633   5.445   8.078
99783SOL    HW2 1247   8.673   5.521   7.953
99784SOL     OW 1248  14.170  12.185   5.791
99784SOL    HW1 1249  14.090  12.209   5.837
99784SOL    HW2 1250  14.148  12.193   5.699
99785SOL     OW 1251  14.209   4.398   0.513
99785SOL    HW1 1252  14.207   4.446   0.431
99785SOL    HW2 1253  14.164   4.454   0.576
99786SOL     OW 1254   3.183   0.626   7.901
99786SOL    HW1 1255   3.158   0.604   7.991
99786SOL    HW2 1256   3.132   0.705   7.881
99787SOL     OW 1257   3.202   2.393   4.198
99787SOL    HW1 1258   3.217   2.300   4.178
99787SOL    HW2 1259   3.280   2.420   4.246
99788SOL     OW 1260   6.474   5.861  10.561
99788SOL    HW1 1261   6.559   5.895  10.586
99788SOL    HW2 1262   6.444   5.921  10.492
99789SOL     OW 1263   9.414  11.726   0.275
99789SOL    HW1 1264   9.366  11.701   0.196
99789SOL    HW2 1265   9.350  11.716   0.346
99790SOL     OW 1266  10.025   1.881   7.644
99790SOL    HW1 1267  10.005   1.963   7.600
99790SOL    HW2 1268  10.051   1.907   7.732
99791SOL     OW 1269  14.062   7.185   2.170
99791SOL    HW1 1270  14.088   7.252   2.106
99791SOL    HW2 1271  14.075   7.102   2.123
99792SOL     OW 1272   5.910   4.497  13.021
99792SOL    HW1 1273   5.862   4.569  13.062
99792SOL    HW2 1274   5.865   4.484  12.937
99793SOL     OW 1275   4.806   4.608   9.922
99793SOL    HW1 1276   4.743   4.608   9.994
99793SOL    HW2 1277   4.770   4.671   9.860
99794SOL     OW 1278   5.854  12.752   0.458
99794SOL    HW1 1279   5.825  12.688   0.392
99794SOL    HW2 1280   5.857  12.835   0.411
99795SOL     OW 1281   5.155  13.746  13.642
99795SOL    HW1 1282   5.130  13.824  13.592
99795SOL    HW2 1283   5.082  13.732  13.702
99796SOL     OW 1284   0.531   0.652   0.243
99796SOL    HW1 1285   0.527   0.573   0.190
99796SOL    HW2 1286   0.596   0.707   0.200
99797SOL     OW 1287   0.741   2.467  13.584
99797SOL    HW1 1288   0.672   2.481  13.519
99797SOL    HW2 1289   0.813   2.430  13.534
99798SOL     OW 1290  13.210   5.682   9.711
99798SOL    HW1 1291  13.200   5.685   9.806
99798SOL    HW2 1292  13.294   5.638   9.697
99799SOL     OW 1293  13.401  14.737   8.372
99799SOL    HW1 1294  13.340  14.741   8.446
99799SOL    HW2 1295  13.424  14.645   8.364
99800SOL     OW 1296   0.412   1.037   1.396
99800SOL    HW1 1297   0.338   1.080   1.439
99800SOL    HW2 1298   0.436   1.096   1.324
99801SOL     OW 1299  10.314   1.122  10.506
99801SOL    HW1 1300  10.307   1.205  10.460
99801SOL    HW2 1301  10.270   1.136  10.589
99802SOL     OW 1302   1.632  13.266  14.621
99802SOL    HW1 1303   1.715  13.224  14.598
99802SOL    HW2 1304   1.654  13.321  14.697
99803SOL     OW 1305   0.473  11.996  11.078
99803SOL    HW1 1306   0.418  11.963  11.149
99803SOL    HW2 1307   0.457  11.936  11.006
99804SOL     OW 1308   9.407  11.155  14.398
99804SOL    HW1 1309   9.489  11.167  14.349
99804SOL    HW2 1310   9.383  11.064  14.380
99805SOL     OW 1311   4.873   1.173   1.494
99805SOL    HW1 1312   4.907   1.135   1.413
99805SOL    HW2 1313   4.801   1.229   1.467
99806SOL     OW 1314   0.984   1.777  13.477
99806SOL    HW1 1315   1.008   1.745  13.564
99806SOL    HW2 1316   1.027   1.716  13.417
99807SOL     OW 1317   4.490   0.027   4.769
99807SOL    HW1 1318   4.438   0.080   4.830
99807SOL    HW2 1319   4.581   0.045   4.793
99808SOL     OW 1320   6.649   5.085  14.677
99808SOL    HW1 1321   6.690   5.083  14.763
99808SOL    HW2 1322   6.555   5.084  14.695
99809SOL     OW 1323  13.612   4.959   4.290
99809SOL    HW1 1324  13.581   4.966   4.381
99809SOL    HW2 1325  13.558   5.022   4.242
99810SOL     OW 1326   9.671   4.412  10.028
99810SOL    HW1 1327   9.633   4.393   9.943
99810SOL    HW2 1328   9.609   4.374  10.091
99811SOL     OW 1329   6.123   8.494   0.924
99811SOL    HW1 1330   6.155   8.582   0.911
99811SOL    HW2 1331   6.186   8.437   0.879
99812SOL     OW 1332  11.887  10.419  13.631
99812SOL    HW1 1333  11.965  10.425  13.577
99812SOL    HW2 1334  11.899  10.339  13.682
99813SOL     OW 1335  10.433   7.576  10.686
99813SOL    HW1 1336  10.521   7.547  10.712
99813SOL    HW2 1337  10.442   7.600  10.594
99814SOL     OW 1338   3.513  12.598   0.783
99814SOL    HW1 1339   3.515  12.561   0.695
99814SOL    HW2 1340   3.490  12.690   0.770
99815SOL     OW 1341   0.579   4.825   1.655
99815SOL    HW1 1342   0.493   4.865   1.638
99815SOL    HW2 1343   0.622   4.886   1.716
99816SOL     OW 1344   7.070   3.440   6.424
99816SOL    HW1 1345   7.124   3.451   6.345
99816SOL    HW2 1346   7.133   3.428   6.495
99817SOL     OW 1347   6.005   3.883   2.547
99817SOL    HW1 1348   6.076   3.916   2.603
99817SOL    HW2 1349   6.005   3.788   2.562
99818SOL     OW 1350   2.625  13.137   9.600
99818SOL    HW1 1351   2.720  13.131   9.615
99818SOL    HW2 1352   2.590  13.062   9.647
99819SOL     OW 1353   2.898  10.106   3.876
99819SOL    HW1 1354   2.836  10.038   3.850
99819SOL    HW2 1355   2.886  10.176   3.813
99820SOL     OW 1356   5.132  13.049   5.980
99820SOL    HW1 1357   5.158  13.141   5.984
99820SOL    HW2 1358   5.104  13.036   5.889
99821SOL     OW 1359   6.653   8.119   0.530
99821SOL    HW1 1360   6.627   8.075   0.449
99821SOL    HW2 1361   6.749   8.118   0.528
99822SOL     OW 1362   7.063   3.482   5.973
99822SOL    HW1 1363   7.095   3.404   5.926
99822SOL    HW2 1364   7.118   3.487   6.051
99823SOL     OW 1365   8.260   4.462  10.975
99823SOL    HW1 1366   8.171   4.497  10.973
99823SOL    HW2 1367   8.315   4.535  10.945
99824SOL     OW 1368  13.429   8.395   7.895
99824SOL    HW1 1369  13.363   8.398   7.964
99824SOL    HW2 1370  13.502   8.447   7.929
99825SOL     OW 1371   0.834   6.664   8.262
99825SOL    HW1 1372   0.913   6.654   8.209
99825SOL    HW2 1373   0.763   6.671   8.198
99826SOL     OW 1374   1.088   2.102   6.200
99826SOL    HW1 1375   1.002   2.089   6.159
99826SOL    HW2 1376   1.140   2.145   6.132
99827SOL     OW 1377   0.134  12.728   1.712
99827SOL    HW1 1378   0.138  12.635   1.690
99827SOL    HW2 1379   0.072  12.766   1.649
99828SOL     OW 1380   8.496   3.586   1.036
99828SOL    HW1 1381   8.571   3.617   0.985
99828SOL    HW2 1382   8.534   3.532   1.105
99829SOL     OW 1383   7.706  12.468  10.440
99829SOL    HW1 1384   7.791  12.470  10.483
99829SOL    HW2 1385   7.726  12.463  10.347
99830SOL     OW 1386  13.193   1.004   6.734
99830SOL    HW1 1387  13.261   0.996   6.801
99830SOL    HW2 1388  13.203   0.927   6.679
99831SOL     OW 1389   1.766  13.690   5.590
99831SOL    HW1 1390   1.780  13.596   5.592
99831SOL    HW2 1391   1.760  13.716   5.682
99832SOL     OW 1392  12.134   1.039  13.459
99832SOL    HW1 1393  12.202   1.088  13.413
99832SOL    HW2 1394  12.125   0.957  13.410
99833SOL     OW 1395  10.958   8.044   8.676
99833SOL    HW1 1396  10.890   8.111   8.670
99833SOL    HW2 1397  10.939   7.997   8.757
99834SOL     OW 1398   3.087   2.942   5.055
99834SOL    HW1 1399   3.142   2.954   5.133
99834SOL    HW2 1400   3.038   2.862   5.073
99835SOL     OW 1401   1.788   8.553  14.519
99835SOL    HW1 1402   1.733   8.474  14.520
99835SOL    HW2 1403   1.725   8.625  14.524
99836SOL     OW 1404   3.657   5.286   3.747
99836SOL    HW1 1405   3.673   5.330   3.663
99836SOL    HW2 1406   3.565   5.262   3.745
99837SOL     OW 1407   8.954  10.236   0.823
99837SOL    HW1 1408   8.950  10.328   0.796
99837SOL    HW2 1409   9.046  10.222   0.846
99838SOL     OW 1410  13.258   0.798   7.861
99838SOL    HW1 1411  13.221   0.710   7.848
99838SOL    HW2 1412  13.274   0.830   7.772
99839SOL     OW 1413   2.687   9.387  13.365
99839SOL    HW1 1414   2.668   9.408  13.456
99839SOL    HW2 1415   2.629   9.314  13.344
99840SOL     OW 1416  13.196   8.712   2.006
99840SOL    HW1 1417  13.178   8.622   1.976
99840SOL    HW2 1418  13.292   8.718   2.006
99841SOL     OW 1419  13.411  13.900  13.527
99841SOL    HW1 1420  13.435  13.869  13.614
99841SOL    HW2 1421  13.434  13.993  13.528
99842SOL     OW 1422   3.554   5.667  11.524
99842SOL    HW1 1423   3.570   5.574  11.508
99842SOL    HW2 1424   3.484   5.670  11.589
99843SOL     OW 1425   4.398   2.696   8.680
99843SOL    HW1 1426   4.345   2.629   8.723
99843SOL    HW2 1427   4.383   2.776   8.731
99844SOL     OW 1428  13.391   1.717   9.368
99844SOL    HW1 1429  13.478   1.709   9.406
99844SOL    HW2 1430  13.406   1.750   9.279
99845SOL     OW 1431   4.020   8.780   0.890
99845SOL    HW1 1432   3.968   8.842   0.942
99845SOL    HW2 1433   3.979   8.783   0.803
99846SOL     OW 1434   3.717  14.551  10.786
99846SOL    HW1 1435   3.732  14.500  10.706
99846SOL    HW2 1436   3.802  14.592  10.804
99847SOL     OW 1437  13.800   3.714  13.340
99847SOL    HW1 1438  13.716   3.733  13.381
99847SOL    HW2 1439  13.818   3.622  13.361
99848SOL     OW 1440   3.445  14.445   2.221
99848SOL    HW1 1441   3.500  14.438   2.143
99848SOL    HW2 1442   3.504  14.480   2.288
99849SOL     OW 1443   4.758  14.544  13.428
99849SOL    HW1 1444   4.705  14.517  13.353
99849SOL    HW2 1445   4.815  14.612  13.393
99850SOL     OW 1446   2.801   5.638  11.028
99850SOL    HW1 1447   2.883   5.589  11.027
99850SOL    HW2 1448   2.784   5.660  10.936
99851SOL     OW 1449   5.701   0.920   7.709
99851SOL    HW1 1450   5.612   0.954   7.701
99851SOL    HW2 1451   5.755   0.986   7.665
99852SOL     OW 1452   1.751  11.538  11.131
99852SOL    HW1 1453   1.806  11.554  11.054
99852SOL    HW2 1454   1.667  11.579  11.110
99853SOL     OW 1455  11.934   6.191   6.780
99853SOL    HW1 1456  11.922   6.204   6.686
99853SOL    HW2 1457  11.872   6.121   6.803
99854SOL     OW 1458  13.763  12.498   7.601
99854SOL    HW1 1459  13.729  12.421   7.556
99854SOL    HW2 1460  13.699  12.516   7.670
99855SOL     OW 1461  13.811   5.269   2.511
99855SOL    HW1 1462  13.885   5.286   2.568
99855SOL    HW2 1463  13.778   5.184   2.540
99856SOL     OW 1464   9.014   8.063  11.021
99856SOL    HW1 1465   8.934   8.110  10.997
99856SOL    HW2 1466   9.023   7.994  10.955
99857SOL     OW 1467  12.746   9.781  11.256
99857SOL    HW1 1468  12.780   9.833  11.329
99857SOL    HW2 1469  12.687   9.841  11.210
99858SOL     OW 1470   9.681  14.347   1.414
99858SOL    HW1 1471   9.676  14.434   1.373
99858SOL    HW2 1472   9.690  14.365   1.507
99859SOL     OW 1473  12.729   2.762   8.807
99859SOL    HW1 1474  12.790   2.802   8.745
99859SOL    HW2 1475  12.776   2.687   8.842
99860SOL     OW 1476   3.925   6.731   6.497
99860SOL    HW1 1477   3.963   6.655   6.543
99860SOL    HW2 1478   3.999   6.791   6.487
99861SOL     OW 1479   5.931  11.876   0.070
99861SOL    HW1 1480   5.962  11.825  14.873
99861SOL    HW2 1481   5.835  11.874   0.062
99862SOL     OW 1482   5.288   7.990  11.536
99862SOL    HW1 1483   5.207   7.997  11.486
99862SOL    HW2 1484   5.263   8.011  11.626
99863SOL     OW 1485   1.727   3.670  12.535
99863SOL    HW1 1486   1.711   3.666  12.440
99863SOL    HW2 1487   1.711   3.581  12.565
99864SOL     OW 1488  13.569   4.196   1.686
99864SOL    HW1 1489  13.511   4.120   1.679
99864SOL    HW2 1490  13.530   4.261   1.629
99865SOL     OW 1491   9.034   9.185   8.535
99865SOL    HW1 1492   9.027   9.093   8.509
99865SOL    HW2 1493   9.098   9.184   8.606
99866SOL     OW 1494   9.995   5.973   9.887
99866SOL    HW1 1495   9.906   6.006   9.896
99866SOL    HW2 1496   9.984   5.886   9.847
99867SOL     OW 1497   8.217   1.671   6.996
99867SOL    HW1 1498   8.137   1.645   6.950
99867SOL    HW2 1499   8.283   1.607   6.967
99868SOL     OW 1500  11.162   4.443   0.336
99868SOL    HW1 1501  11.099   4.432   0.264
99868SOL    HW2 1502  11.190   4.354   0.356
99869SOL     OW 1503  10.967  12.747   2.263
99869SOL    HW1 1504  10.954  12.779   2.174
99869SOL    HW2 1505  11.016  12.818   2.307
99870SOL     OW 1506   3.242   8.203  11.237
99870SOL    HW1 1507   3.250   8.199  11.333
99870SOL    HW2 1508   3.147   8.203  11.221
99871SOL     OW 1509  13.285   4.504  14.461
99871SOL    HW1 1510  13.260   4.559  14.536
99871SOL    HW2 1511  13.206   4.503  14.406
99872SOL     OW 1512  11.354   7.226  11.855
99872SOL    HW1 1513  11.267   7.250  11.888
99872SOL    HW2 1514  11.341   7.142  11.812
99873SOL     OW 1515   9.009   0.306   7.964
99873SOL    HW1 1516   8.975   0.232   7.914
99873SOL    HW2 1517   9.049   0.266   8.041
99874SOL     OW 1518  10.569   9.009  10.798
99874SOL    HW1 1519  10.653   9.003  10.751
99874SOL    HW2 1520  10.584   9.073  10.867
99875SOL     OW 1521   9.038   3.941   3.427
99875SOL    HW1 1522   8.986   3.861   3.436
99875SOL    HW2 1523   8.977   4.012   3.447
99876SOL     OW 1524   8.636   4.403  13.656
99876SOL    HW1 1525   8.717   4.375  13.612
99876SOL    HW2 1526   8.579   4.327  13.652
99877SOL     OW 1527   9.520   5.135   6.962
99877SOL    HW1 1528   9.552   5.162   6.876
99877SOL    HW2 1529   9.445   5.193   6.980
99878SOL     OW 1530   6.332  11.058  12.253
99878SOL    HW1 1531   6.348  11.028  12.342
99878SOL    HW2 1532   6.353  11.151  12.254
99879SOL     OW 1533  14.718  13.769   3.734
99879SOL    HW1 1534  14.797  13.806   3.694
99879SOL    HW2 1535  14.695  13.694   3.679
99880SOL     OW 1536  14.790   0.567  10.447
99880SOL    HW1 1537  14.801   0.509  10.372
99880SOL    HW2 1538  14.765   0.508  10.519
99881SOL     OW 1539   5.617   5.376   1.836
99881SOL    HW1 1540   5.626   5.410   1.747
99881SOL    HW2 1541   5.668   5.436   1.890
99882SOL     OW 1542   5.906   9.246   8.686
99882SOL    HW1 1543   5.997   9.218   8.687
99882SOL    HW2 1544   5.896   9.301   8.764
99883SOL     OW 1545   1.127   5.740   2.653
99883SOL    HW1 1546   1.142   5.757   2.746
99883SOL    HW2 1547   1.032   5.752   2.641
99884SOL     OW 1548   3.214  14.625   1.923
99884SOL    HW1 1549   3.168  14.554   1.968
99884SOL    HW2 1550   3.200  14.607   1.830
99885SOL     OW 1551   4.852  13.973  10.636
99885SOL    HW1 1552   4.797  13.946  10.561
99885SOL    HW2 1553   4.939  13.939  10.615
99886SOL     OW 1554   7.647  14.599   9.759
99886SOL    HW1 1555   7.625  14.603   9.852
99886SOL    HW2 1556   7.637  14.689   9.727
99887SOL     OW 1557   2.731   1.092   1.763
99887SOL    HW1 1558   2.647   1.093   1.809
99887SOL    HW2 1559   2.745   1.000   1.740
99888SOL     OW 1560  10.410  12.011   6.025
99888SOL    HW1 1561  10.379  11.940   6.081
99888SOL    HW2 1562  10.493  11.979   5.989
99889SOL     OW 1563   3.503   0.910   5.875
99889SOL    HW1 1564   3.474   1.001   5.874
99889SOL    HW2 1565   3.456   0.870   5.947
99890SOL     OW 1566   0.058  12.863  10.373
99890SOL    HW1 1567   0.009  12.784  10.351
99890SOL    HW2 1568   0.051  12.918  10.294
99891SOL     OW 1569   1.016   1.514   3.078
99891SOL    HW1 1570   0.973   1.475   3.155
99891SOL    HW2 1571   0.943   1.549   3.026
99892SOL     OW 1572   5.066  13.984   0.597
99892SOL    HW1 1573   5.080  13.993   0.503
99892SOL    HW2 1574   5.061  14.074   0.629
99893SOL     OW 1575  10.013   0.180   7.125
99893SOL    HW1 1576  10.096   0.226   7.130
99893SOL    HW2 1577   9.975   0.190   7.213
99894SOL     OW 1578  11.877   8.191   2.450
99894SOL    HW1 1579  11.818   8.118   2.431
99894SOL    HW2 1580  11.926   8.204   2.369
99895SOL     OW 1581   1.035   5.617   2.955
99895SOL    HW1 1582   0.960   5.618   2.896
99895SOL    HW2 1583   1.004   5.569   3.032
99896SOL     OW 1584   2.231   5.900  13.227
99896SOL    HW1 1585   2.295   5.834  13.200
99896SOL    HW2 1586   2.272   5.943  13.302
99897SOL     OW 1587   6.869  13.310   2.834
99897SOL    HW1 1588   6.825  13.226   2.817
99897SOL    HW2 1589   6.798  13.374   2.837
99898SOL     OW 1590   5.121   6.170  10.684
99898SOL    HW1 1591   5.123   6.075  10.701
99898SOL    HW2 1592   5.102   6.209  10.769
99899SOL     OW 1593   7.720  10.958  12.655
99899SOL    HW1 1594   7.797  10.953  12.598
99899SOL    HW2 1595   7.648  10.923  12.602
99900SOL     OW 1596  13.233   6.230  14.530
99900SOL    HW1 1597  13.261   6.216  14.440
99900SOL    HW2 1598  13.137   6.221  14.527
99901SOL     OW 1599   3.071  10.075   8.770
99901SOL    HW1 1600   3.071   9.988   8.730
99901SOL    HW2 1601   3.100  10.133   8.700
99902SOL     OW 1602   5.597  11.799   1.738
99902SOL    HW1 1603   5.628  11.845   1.660
99902SOL    HW2 1604   5.595  11.707   1.713
99903SOL     OW 1605  11.786   4.303   6.047
99903SOL    HW1 1606  11.758   4.261   6.128
99903SOL    HW2 1607  11.810   4.231   5.989
99904SOL     OW 1608   5.634   7.113  14.065
99904SOL    HW1 1609   5.695   7.069  14.005
99904SOL    HW2 1610   5.554   7.126  14.013
99905SOL     OW 1611  14.037  14.399   8.543
99905SOL    HW1 1612  14.027  14.311   8.507
99905SOL    HW2 1613  13.977  14.401   8.618
99906SOL     OW 1614  14.745  12.796   5.833
99906SOL    HW1 1615  14.768  12.861   5.766
99906SOL    HW2 1616  14.800  12.721   5.812
99907SOL     OW 1617  14.496  13.118   7.575
99907SOL    HW1 1618  14.542  13.178   7.515
99907SOL    HW2 1619  14.409  13.108   7.537
99908SOL     OW 1620   0.436  14.853  12.139
99908SOL    HW1 1621   0.414  14.818  12.053
99908SOL    HW2 1622   0.514  14.804  12.166
99909SOL     OW 1623   3.866   2.456   9.819
99909SOL    HW1 1624   3.937   2.509   9.856
99909SOL    HW2 1625   3.810   2.435   9.893
99910SOL     OW 1626  14.562  11.464   9.866
99910SOL    HW1 1627  14.553  11.481   9.960
99910SOL    HW2 1628  14.637  11.517   9.839
99911SOL     OW 1629   4.638  14.677  13.121
99911SOL    HW1 1630   4.624  14.747  13.057
99911SOL    HW2 1631   4.551  14.644  13.140
99912SOL     OW 1632   8.091  13.214  13.704
99912SOL    HW1 1633   8.072  13.307  13.694
99912SOL    HW2 1634   8.005  13.172  13.709
99913SOL     OW 1635   5.576   9.108   1.048
99913SOL    HW1 1636   5.555   9.061   0.967
99913SOL    HW2 1637   5.655   9.158   1.027
99914SOL     OW 1638   3.049   1.243  11.672
99914SOL    HW1 1639   3.081   1.154  11.687
99914SOL    HW2 1640   3.024   1.274  11.759
99915SOL     OW 1641   1.873   2.196  14.124
99915SOL    HW1 1642   1.826   2.278  14.105
99915SOL    HW2 1643   1.942   2.192  14.057
99916SOL     OW 1644   8.648  11.912  13.945
99916SOL    HW1 1645   8.557  11.910  13.915
99916SOL    HW2 1646   8.680  11.999  13.921
99917SOL     OW 1647   2.007   8.602   0.741
99917SOL    HW1 1648   2.045   8.523   0.778
99917SOL    HW2 1649   1.950   8.636   0.810
99918SOL     OW 1650   1.283   9.613   3.162
99918SOL    HW1 1651   1.261   9.523   3.139
99918SOL    HW2 1652   1.215   9.640   3.224
99919SOL     OW 1653   7.926   8.168   0.776
99919SOL    HW1 1654   7.885   8.086   0.801
99919SOL    HW2 1655   7.947   8.211   0.859
99920SOL     OW 1656   3.796   3.785   7.510
99920SOL    HW1 1657   3.806   3.879   7.520
99920SOL    HW2 1658   3.765   3.773   7.420
99921SOL     OW 1659   4.817   9.035   1.267
99921SOL    HW1 1660   4.851   9.098   1.331
99921SOL    HW2 1661   4.893   8.980   1.245
99922SOL     OW 1662   6.417   0.643   4.535
99922SOL    HW1 1663   6.427   0.709   4.603
99922SOL    HW2 1664   6.493   0.586   4.544
99923SOL     OW 1665   0.959   4.262  11.411
99923SOL    HW1 1666   1.024   4.230  11.473
99923SOL    HW2 1667   0.948   4.354  11.432
99924SOL     OW 1668   0.511   4.570  11.627
99924SOL    HW1 1669   0.587   4.513  11.611
99924SOL    HW2 1670   0.543   4.634  11.691
99925SOL     OW 1671  11.088   5.159   2.684
99925SOL    HW1 1672  11.071   5.087   2.624
99925SOL    HW2 1673  11.181   5.151   2.705
99926SOL     OW 1674   9.572   9.859  12.220
99926SOL    HW1 1675   9.579   9.933  12.281
99926SOL    HW2 1676   9.660   9.850  12.183
99927SOL     OW 1677   5.226  10.081  11.782
99927SOL    HW1 1678   5.214  10.030  11.861
99927SOL    HW2 1679   5.257  10.018  11.717
99928SOL     OW 1680   5.947   0.655   7.633
99928SOL    HW1 1681   5.968   0.737   7.679
99928SOL    HW2 1682   5.949   0.588   7.701
99929SOL     OW 1683   7.546  11.066   1.209
99929SOL    HW1 1684   7.472  11.006   1.221
99929SOL    HW2 1685   7.560  11.069   1.115
99930SOL     OW 1686  13.976   7.785   6.992
99930SOL    HW1 1687  14.052   7.837   6.967
99930SOL    HW2 1688  14.013   7.704   7.028
99931SOL     OW 1689   4.835   0.829   6.879
99931SOL    HW1 1690   4.830   0.901   6.942
99931SOL    HW2 1691   4.762   0.844   6.820
99932SOL     OW 1692   5.246  10.420   0.978
99932SOL    HW1 1693   5.197  10.371   0.911
99932SOL    HW2 1694   5.260  10.356   1.048
99933SOL     OW 1695  12.669   4.713   3.575
99933SOL    HW1 1696  12.746   4.657   3.561
99933SOL    HW2 1697  12.653   4.709   3.669
99934SOL     OW 1698   3.740   3.825  10.823
99934SOL    HW1 1699   3.674   3.869  10.875
99934SOL    HW2 1700   3.713   3.733  10.822
99935SOL     OW 1701   5.789  12.957   6.404
99935SOL    HW1 1702   5.730  12.967   6.330
99935SOL    HW2 1703   5.760  12.877   6.448
99936SOL     OW 1704   0.701   1.392  12.846
99936SOL    HW1 1705   0.665   1.303  12.856
99936SOL    HW2 1706   0.788   1.378  12.809
99937SOL     OW 1707  11.374  13.784   3.742
99937SOL    HW1 1708  11.436  13.782   3.814
99937SOL    HW2 1709  11.343  13.694   3.734
99938SOL     OW 1710   6.104  11.127   3.523
99938SOL    HW1 1711   6.183  11.084   3.557
99938SOL    HW2 1712   6.121  11.220   3.534
99939SOL     OW 1713   2.802   4.600   7.689
99939SOL    HW1 1714   2.837   4.670   7.635
99939SOL    HW2 1715   2.783   4.641   7.773
99940SOL     OW 1716   8.258   0.904  12.219
99940SOL    HW1 1717   8.219   0.860  12.144
99940SOL    HW2 1718   8.187   0.956  12.257
99941SOL     OW 1719  13.468   9.899   6.482
99941SOL    HW1 1720  13.402   9.939   6.539
99941SOL    HW2 1721  13.464   9.806   6.503
99942SOL     OW 1722   8.923  13.244   8.744
99942SOL    HW1 1723   8.926  13.331   8.782
99942SOL    HW2 1724   8.853  13.199   8.791
99943SOL     OW 1725   1.961   7.486  14.413
99943SOL    HW1 1726   1.876   7.519  14.381
99943SOL    HW2 1727   1.985   7.546  14.483
99944SOL     OW 1728   6.401  14.861   0.588
99944SOL    HW1 1729   6.407  14.799   0.515
99944SOL    HW2 1730   6.491   0.012   0.602
99945SOL     OW 1731   4.846  13.139   2.498
99945SOL    HW1 1732   4.845  13.152   2.593
99945SOL    HW2 1733   4.885  13.053   2.486
99946SOL     OW 1734  12.396  11.811   9.574
99946SOL    HW1 1735  12.368  11.883   9.630
99946SOL    HW2 1736  12.428  11.744   9.634
99947SOL     OW 1737  12.094   7.099  10.504
99947SOL    HW1 1738  12.116   7.136  10.589
99947SOL    HW2 1739  12.009   7.136  10.482
99948SOL     OW 1740   8.679  10.428   5.793
99948SOL    HW1 1741   8.633  10.369   5.733
99948SOL    HW2 1742   8.766  10.436   5.756
99949SOL     OW 1743  14.288   5.650   5.281
99949SOL    HW1 1744  14.318   5.559   5.284
99949SOL    HW2 1745  14.193   5.644   5.294
99950SOL     OW 1746  14.222   8.361   6.330
99950SOL    HW1 1747  14.148   8.381   6.272
99950SOL    HW2 1748  14.227   8.266   6.330
99951SOL     OW 1749  10.424  11.138   2.033
99951SOL    HW1 1750  10.402  11.072   1.966
99951SOL    HW2 1751  10.368  11.213   2.011
99952SOL     OW 1752   3.743   2.780  10.960
99952SOL    HW1 1753   3.800   2.855  10.970
99952SOL    HW2 1754   3.676   2.791  11.029
99953SOL     OW 1755  12.486  11.155   4.278
99953SOL    HW1 1756  12.444  11.185   4.359
99953SOL    HW2 1757  12.575  11.133   4.304
99954SOL     OW 1758   9.306   6.994   2.133
99954SOL    HW1 1759   9.304   6.926   2.200
99954SOL    HW2 1760   9.244   7.060   2.163
99955SOL     OW 1761   2.275   6.377  12.471
99955SOL    HW1 1762   2.199   6.349  12.420
99955SOL    HW2 1763   2.312   6.450  12.421
99956SOL     OW 1764   4.452   7.151   0.574
99956SOL    HW1 1765   4.479   7.077   0.519
99956SOL    HW2 1766   4.378   7.118   0.625
99957SOL     OW 1767   8.159   4.527   2.371
99957SOL    HW1 1768   8.239   4.506   2.324
99957SOL    HW2 1769   8.110   4.584   2.312
99958SOL     OW 1770  12.342  12.607  13.782
99958SOL    HW1 1771  12.352  12.700  13.802
99958SOL    HW2 1772  12.306  12.569  13.862
99959SOL     OW 1773   7.947   8.126  10.835
99959SOL    HW1 1774   7.921   8.204  10.883
99959SOL    HW2 1775   8.020   8.090  10.885
99960SOL     OW 1776   7.743   3.091   1.008
99960SOL    HW1 1777   7.825   3.135   0.985
99960SOL    HW2 1778   7.704   3.068   0.924
99961SOL     OW 1779   4.433   3.957   8.480
99961SOL    HW1 1780   4.424   4.011   8.558
99961SOL    HW2 1781   4.342   3.939   8.453
99962SOL     OW 1782  10.078   7.338  12.102
99962SOL    HW1 1783  10.050   7.252  12.070
99962SOL    HW2 1784  10.004   7.396  12.085
99963SOL     OW 1785   4.326   5.051  14.866
99963SOL    HW1 1786   4.376   4.976  14.836
99963SOL    HW2 1787   4.320   5.109  14.790
99964SOL     OW 1788   2.033   3.765  12.849
99964SOL    HW1 1789   2.072   3.698  12.792
99964SOL    HW2 1790   1.939   3.746  12.846
99965SOL     OW 1791   8.585   5.856   7.220
99965SOL    HW1 1792   8.520   5.898   7.277
99965SOL    HW2 1793   8.614   5.926   7.162
99966SOL     OW 1794   0.593  12.239   0.222
99966SOL    HW1 1795   0.535  12.208   0.152
99966SOL    HW2 1796   0.677  12.253   0.179
99967SOL     OW 1797   4.178  11.585   3.559
99967SOL    HW1 1798   4.249  11.610   3.618
99967SOL    HW2 1799   4.126  11.665   3.548
99968SOL     OW 1800   1.383  14.645  10.954
99968SOL    HW1 1801   1.314  14.677  10.896
99968SOL    HW2 1802   1.410  14.562  10.914
99969SOL     OW 1803  11.739  14.466   9.538
99969SOL    HW1 1804  11.747  14.556   9.567
99969SOL    HW2 1805  11.775  14.414   9.610
99970SOL     OW 1806   6.904   1.421   2.896
99970SOL    HW1 1807   6.895   1.447   2.804
99970SOL    HW2 1808   6.998   1.427   2.913
99971SOL     OW 1809  14.065   4.062   3.197
99971SOL    HW1 1810  14.015   3.997   3.247
99971SOL    HW2 1811  14.048   4.041   3.105
99972SOL     OW 1812  11.449   0.294  11.157
99972SOL    HW1 1813  11.410   0.377  11.184
99972SOL    HW2 1814  11.374   0.235  11.146
99973SOL     OW 1815   1.265  13.227  14.671
99973SOL    HW1 1816   1.250  13.268  14.585
99973SOL    HW2 1817   1.335  13.164  14.655
99974SOL     OW 1818   2.939   6.868  13.297
99974SOL    HW1 1819   2.853   6.898  13.269
99974SOL    HW2 1820   2.964   6.802  13.232
99975SOL     OW 1821   2.532  13.302   6.830
99975SOL    HW1 1822   2.608  13.260   6.872
99975SOL    HW2 1823   2.537  13.393   6.856
99976SOL     OW 1824   0.409   6.214  14.201
99976SOL    HW1 1825   0.410   6.118  14.192
99976SOL    HW2 1826   0.436   6.246  14.115
99977SOL     OW 1827   6.998   1.378   9.654
99977SOL    HW1 1828   6.970   1.368   9.745
99977SOL    HW2 1829   7.064   1.310   9.641
99978SOL     OW 1830  11.395  10.811   7.489
99978SOL    HW1 1831  11.484  10.847   7.500
99978SOL    HW2 1832  11.387  10.795   7.395
99979SOL     OW 1833   4.791   1.418   7.892
99979SOL    HW1 1834   4.703   1.436   7.858
99979SOL    HW2 1835   4.840   1.499   7.878
99980SOL     OW 1836   1.560  11.775   7.499
99980SOL    HW1 1837   1.621  11.756   7.570
99980SOL    HW2 1838   1.507  11.696   7.490
99981SOL     OW 1839  10.458  14.118   7.398
99981SOL    HW1 1840  10.542  14.116   7.444
99981SOL    HW2 1841  10.481  14.114   7.305
99982SOL     OW 1842   0.692   2.760  12.360
99982SOL    HW1 1843   0.609   2.764  12.313
99982SOL    HW2 1844   0.751   2.815  12.309
99983SOL     OW 1845   8.045  11.826   7.363
99983SOL    HW1 1846   8.090  11.859   7.440
99983SOL    HW2 1847   8.054  11.731   7.368
99984SOL     OW 1848  10.386  12.060  13.580
99984SOL    HW1 1849  10.376  12.007  13.501
99984SOL    HW2 1850  10.335  12.014  13.646
99985SOL     OW 1851   1.878  12.363   0.985
99985SOL    HW1 1852   1.849  12.273   0.973
99985SOL    HW2 1853   1.863  12.382   1.077
99986SOL     OW 1854  11.790  11.173   6.926
99986SOL    HW1 1855  11.826  11.229   6.857
99986SOL    HW2 1856  11.696  11.193   6.927
99987SOL     OW 1857   9.822  14.360   2.459
99987SOL    HW1 1858   9.747  14.310   2.490
99987SOL    HW2 1859   9.841  14.422   2.529
99988SOL     OW 1860   5.299   9.866   5.796
99988SOL    HW1 1861   5.261   9.951   5.771
99988SOL    HW2 1862   5.382   9.862   5.748
99989SOL     OW 1863   9.608  13.702   1.606
99989SOL    HW1 1864   9.536  13.714   1.545
99989SOL    HW2 1865   9.609  13.781   1.659
99990SOL     OW 1866   5.169  13.516   5.737
99990SOL    HW1 1867   5.177  13.448   5.670
99990SOL    HW2 1868   5.095  13.570   5.708
99991SOL     OW 1869   3.991  14.049   3.427
99991SOL    HW1 1870   3.986  13.956   3.447
99991SOL    HW2 1871   3.918  14.065   3.368
99992SOL     OW 1872   7.579   7.565   5.942
99992SOL    HW1 1873   7.621   7.624   5.879
99992SOL    HW2 1874   7.646   7.547   6.007
99993SOL     OW 1875  12.207   6.285  13.579
99993SOL    HW1 1876  12.213   6.284  13.675
99993SOL    HW2 1877  12.164   6.202  13.557
99994SOL     OW 1878  10.314  10.049   3.424
99994SOL    HW1 1879  10.303  10.134   3.466
99994SOL    HW2 1880  10.307  10.067   3.330
99995SOL     OW 1881   6.166  12.078  14.303
99995SOL    HW1 1882   6.241  12.100  14.359
99995SOL    HW2 1883   6.154  12.156  14.248
99996SOL     OW 1884   2.091  12.221  12.457
99996SOL    HW1 1885   2.037  12.214  12.535
99996SOL    HW2 1886   2.157  12.153  12.468
99997SOL     OW 1887   0.973   2.859   6.829
99997SOL    HW1 1888   0.958   2.858   6.735
99997SOL    HW2 1889   1.068   2.850   6.838
99998SOL     OW 1890   0.555   6.267  12.338
99998SOL    HW1 1891   0.577   6.246  12.247
99998SOL    HW2 1892   0.461   6.286  12.335
99999SOL     OW 1893  12.213   9.058   8.003
99999SOL    HW1 1894  12.239   9.149   7.989
99999SOL    HW2 1895  12.185   9.054   8.094
    0SOL     OW 1896  14.147   9.145  10.039
    0SOL    HW1 1897  14.174   9.226   9.994
    0SOL    HW2 1898  14.128   9.084   9.968
    1SOL     OW 1899  13.510   9.699  10.749
    1SOL    HW1 1900  13.454   9.648  10.691
    1SOL    HW2 1901  13.497   9.660  10.836
    2SOL     OW 1902   0.461  11.117   0.038
    2SOL    HW1 1903   0.508  11.160  14.844
    2SOL    HW2 1904   0.479  11.172   0.115
    3SOL     OW 1905   8.477  12.266   2.454
    3SOL    HW1 1906   8.520  12.205   2.395
    3SOL    HW2 1907   8.423  12.211   2.511
    4SOL     OW 1908   5.651   4.669  12.316
    4SOL    HW1 1909   5.570   4.716  12.296
    4SOL    HW2 1910   5.651   4.595  12.256
    5SOL     OW 1911   0.659  10.037  13.244
    5SOL    HW1 1912   0.712  10.117  13.249
    5SOL    HW2 1913   0.633  10.021  13.335
    6SOL     OW 1914  14.077   2.528   3.010
    6SOL    HW1 1915  14.152   2.587   3.005
    6SOL    HW2 1916  14.002   2.587   3.021
    7SOL     OW 1917   6.270  10.348  14.394
    7SOL    HW1 1918   6.305  10.294  14.465
    7SOL    HW2 1919   6.298  10.437  14.415
    8SOL     OW 1920  13.875   5.249   5.576
    8SOL    HW1 1921  13.949   5.287   5.624
    8SOL    HW2 1922  13.909   5.166   5.542
    9SOL     OW 1923  10.031  12.193   6.078
    9SOL    HW1 1924  10.024  12.129   6.149
    9SOL    HW2 1925   9.971  12.161   6.011
   10SOL     OW 1926   0.123   6.193  14.737
   10SOL    HW1 1927   0.074   6.209  14.818
   10SOL    HW2 1928   0.061   6.149  14.680
   11SOL     OW 1929   0.330   3.461  13.815
   11SOL    HW1 1930   0.359   3.496  13.730
   11SOL    HW2 1931   0.405   3.413  13.848
   12SOL     OW 1932  13.503  12.731   3.661
   12SOL    HW1 1933  13.552  12.809   3.636
   12SOL    HW2 1934  13.524  12.717   3.753
   13SOL     OW 1935   6.830   6.412  10.133
   13SOL    HW1 1936   6.764   6.478  10.112
   13SOL    HW2 1937   6.894   6.458  10.188
   14SOL     OW 1938   6.042   1.978  12.154
   14SOL    HW1 1939   6.072   1.939  12.073
   14SOL    HW2 1940   6.077   2.067  12.154
   15SOL     OW 1941   2.385   0.746   6.842
   15SOL    HW1 1942   2.474   0.718   6.823
   15SOL    HW2 1943   2.334   0.718   6.765
   16SOL     OW 1944  13.633   7.860   4.139
   16SOL    HW1 1945  13.573   7.858   4.213
   16SOL    HW2 1946  13.694   7.931   4.160
   17SOL     OW 1947  11.585   2.865  10.321
   17SOL    HW1 1948  11.656   2.839  10.263
   17SOL    HW2 1949  11.510   2.812  10.294
   18SOL     OW 1950   5.417  14.803   7.315
   18SOL    HW1 1951   5.437  14.711   7.332
   18SOL    HW2 1952   5.490  14.852   7.353
   19SOL     OW 1953   5.932   7.595  12.831
   19SOL    HW1 1954   5.954   7.587  12.923
   19SOL    HW2 1955   6.008   7.638  12.791
   20SOL     OW 1956   8.275  10.534  13.276
   20SOL    HW1 1957   8.369  10.526  13.291
   20SOL    HW2 1958   8.253  10.621  13.310
   21SOL     OW 1959  11.549  10.335   8.285
   21SOL    HW1 1960  11.592  10.268   8.231
   21SOL    HW2 1961  11.483  10.287   8.334
   22SOL     OW 1962  12.444   4.339  10.180
   22SOL    HW1 1963  12.511   4.308  10.119
   22SOL    HW2 1964  12.494   4.367  10.257
   23SOL     OW 1965   9.722   6.082  11.148
   23SOL    HW1 1966   9.631   6.097  11.124
   23SOL    HW2 1967   9.722   6.083  11.244
   24SOL     OW 1968   8.516   6.411   4.235
   24SOL    HW1 1969   8.424   6.393   4.257
   24SOL    HW2 1970   8.520   6.401   4.140
   25SOL     OW 1971  13.571   4.480  10.629
   25SOL    HW1 1972  13.554   4.473  10.723
   25SOL    HW2 1973  13.508   4.418  10.590
   26SOL     OW 1974  11.456   9.995  13.263
   26SOL    HW1 1975  11.393  10.044  13.210
   26SOL    HW2 1976  11.540  10.036  13.244
   27SOL     OW 1977  11.038   1.298   4.879
   27SOL    HW1 1978  11.043   1.264   4.968
   27SOL    HW2 1979  11.100   1.244   4.830
   28SOL     OW 1980   1.581   1.514  10.875
   28SOL    HW1 1981   1.671   1.513  10.908
   28SOL    HW2 1982   1.557   1.607  10.874
   29SOL     OW 1983   0.677   8.028   2.527
   29SOL    HW1 1984   0.745   7.978   2.572
   29SOL    HW2 1985   0.707   8.119   2.530
   30SOL     OW 1986  12.027  10.540   3.300
   30SOL    HW1 1987  12.036  10.626   3.341
   30SOL    HW2 1988  12.041  10.557   3.206
   31SOL     OW 1989   2.054  13.762   1.387
   31SOL    HW1 1990   2.068  13.708   1.465
   31SOL    HW2 1991   2.136  13.757   1.338
   32SOL     OW 1992   5.282   3.446   1.814
   32SOL    HW1 1993   5.303   3.489   1.897
   32SOL    HW2 1994   5.338   3.490   1.749
   33SOL     OW 1995   6.606   0.081  12.460
   33SOL    HW1 1996   6.632   0.100  12.370
   33SOL    HW2 1997   6.675   0.024  12.495
   34SOL     OW 1998   2.894   0.260   3.406
   34SOL    HW1 1999   2.808   0.220   3.397
   34SOL    HW2 2000   2.947   0.218   3.338
   35SOL     OW 2001  11.310   9.445   7.151
   35SOL    HW1 2002  11.222   9.463   7.118
   35SOL    HW2 2003  11.346   9.532   7.172
   36SOL     OW 2004  14.860   6.449   8.351
   36SOL    HW1 2005   0.069   6.411   8.339
   36SOL    HW2 2006  14.844   6.441   8.445
   37SOL     OW 2007  12.158   6.421   3.489
   37SOL    HW1 2008  12.202   6.338   3.474
   37SOL    HW2 2009  12.215   6.469   3.549
   38SOL     OW 2010  12.763  14.403   0.028
   38SOL    HW1 2011  12.789  14.318   0.063
   38SOL    HW2 2012  12.705  14.383  14.832
   39SOL     OW 2013   2.913   5.847   2.036
   39SOL    HW1 2014   2.948   5.779   2.094
   39SOL    HW2 2015   2.885   5.799   1.958
   40SOL     OW 2016  10.445   0.160   6.017
   40SOL    HW1 2017  10.377   0.200   6.072
   40SOL    HW2 2018  10.400   0.091   5.969
   41SOL     OW 2019   6.176   7.675   2.321
   41SOL    HW1 2020   6.234   7.619   2.269
   41SOL    HW2 2021   6.130   7.614   2.378
   42SOL     OW 2022   9.425  10.978  11.445
   42SOL    HW1 2023   9.339  10.997  11.480
   42SOL    HW2 2024   9.408  10.925  11.367
   43SOL     OW 2025  13.294   4.917   2.896
   43SOL    HW1 2026  13.214   4.872   2.870
   43SOL    HW2 2027  13.298   4.993   2.839
   44SOL     OW 2028  10.993   8.957   1.518
   44SOL    HW1 2029  10.956   8.960   1.430
   44SOL    HW2 2030  10.968   8.871   1.552
   45SOL     OW 2031   6.194  14.359   7.328
   45SOL    HW1 2032   6.102  14.331   7.324
   45SOL    HW2 2033   6.235  14.296   7.388
   46SOL     OW 2034   8.431   0.466  14.056
   46SOL    HW1 2035   8.510   0.516  14.078
   46SOL    HW2 2036   8.359   0.526  14.072
   47SOL     OW 2037  14.758   9.049   0.163
   47SOL    HW1 2038  14.713   8.971   0.196
   47SOL    HW2 2039  14.689   9.113   0.149
   48SOL     OW 2040   4.821   1.077  11.815
   48SOL    HW1 2041   4.891   1.134  11.847
   48SOL    HW2 2042   4.843   1.061  11.723
   49SOL     OW 2043   2.565   7.710   8.109
   49SOL    HW1 2044   2.658   7.718   8.129
   49SOL    HW2 2045   2.539   7.627   8.151
   50SOL     OW 2046  14.629   9.420   1.438
   50SOL    HW1 2047  14.537   9.442   1.447
   50SOL    HW2 2048  14.676   9.500   1.461
   51SOL     OW 2049  12.319   9.767  12.024
   51SOL    HW1 2050  12.308   9.846  12.075
   51SOL    HW2 2051  12.321   9.797  11.933
   52SOL     OW 2052  10.007   2.001   6.205
   52SOL    HW1 2053  10.046   2.079   6.245
   52SOL    HW2 2054  10.083   1.949   6.178
   53SOL     OW 2055  13.304   6.424  14.749
   53SOL    HW1 2056  13.319   6.352  14.687
   53SOL    HW2 2057  13.330   6.389  14.834
   54SOL     OW 2058   4.807  13.108  12.248
   54SOL    HW1 2059   4.789  13.023  12.208
   54SOL    HW2 2060   4.723  13.154  12.245
   55SOL     OW 2061  14.300   4.321   6.241
   55SOL    HW1 2062  14.316   4.235   6.201
   55SOL    HW2 2063  14.206   4.333   6.235
   56SOL     OW 2064   5.670   8.727  14.021
   56SOL    HW1 2065   5.662   8.808  13.971
   56SOL    HW2 2066   5.709   8.665  13.960
   57SOL     OW 2067  11.771   0.476  11.857
   57SOL    HW1 2068  11.784   0.401  11.916
   57SOL    HW2 2069  11.756   0.436  11.771
   58SOL     OW 2070  14.529   9.976   8.496
   58SOL    HW1 2071  14.582  10.039   8.446
   58SOL    HW2 2072  14.460  10.029   8.535
   59SOL     OW 2073   0.576   1.699  10.594
   59SOL    HW1 2074   0.560   1.713  10.687
   59SOL    HW2 2075   0.660   1.653  10.590
   60SOL     OW 2076   4.991   1.605   3.705
   60SOL    HW1 2077   5.054   1.675   3.718
   60SOL    HW2 2078   5.041   1.535   3.663
   61SOL     OW 2079   0.030   3.980   7.712
   61SOL    HW1 2080  14.872   4.033   7.641
   61SOL    HW2 2081   0.093   4.037   7.756
   62SOL     OW 2082   7.283   4.589   3.875
   62SOL    HW1 2083   7.253   4.680   3.877
   62SOL    HW2 2084   7.335   4.582   3.795
   63SOL     OW 2085   6.484  14.144   0.813
   63SOL    HW1 2086   6.535  14.193   0.748
   63SOL    HW2 2087   6.394  14.170   0.797
   64SOL     OW 2088   0.470  13.918  13.598
   64SOL    HW1 2089   0.552  13.870  13.582
   64SOL    HW2 2090   0.482  13.956  13.685
   65SOL     OW 2091   3.018   9.525  10.453
   65SOL    HW1 2092   2.986   9.440  10.422
   65SOL    HW2 2093   3.100   9.504  10.498
   66SOL     OW 2094  11.950   6.563   3.622
   66SOL    HW1 2095  11.914   6.489   3.671
   66SOL    HW2 2096  12.029   6.529   3.581
   67SOL     OW 2097   6.662  10.480  10.930
   67SOL    HW1 2098   6.734  10.465  10.991
   67SOL    HW2 2099   6.684  10.428  10.853
   68SOL     OW 2100  10.784   8.159   4.095
   68SOL    HW1 2101  10.709   8.159   4.155
   68SOL    HW2 2102  10.786   8.070   4.060
   69SOL     OW 2103  10.510   9.636   4.880
   69SOL    HW1 2104  10.534   9.571   4.947
   69SOL    HW2 2105  10.593   9.660   4.839
   70SOL     OW 2106   6.270   7.869   6.792
   70SOL    HW1 2107   6.227   7.789   6.761
   70SOL    HW2 2108   6.279   7.856   6.887
   71SOL     OW 2109   9.370   6.202   9.198
   71SOL    HW1 2110   9.292   6.148   9.183
   71SOL    HW2 2111   9.346   6.259   9.271
   72SOL     OW 2112  11.651  11.208   1.109
   72SOL    HW1 2113  11.593  11.132   1.117
   72SOL    HW2 2114  11.737  11.171   1.092
   73SOL     OW 2115   3.908  14.201  10.935
   73SOL    HW1 2116   4.000  14.181  10.953
   73SOL    HW2 2117   3.906  14.229  10.844
   74SOL     OW 2118   9.265  13.378   7.089
   74SOL    HW1 2119   9.285  13.295   7.134
   74SOL    HW2 2120   9.349  13.424   7.085
   75SOL     OW 2121   3.796   1.015  12.162
   75SOL    HW1 2122   3.890   1.029  12.177
   75SOL    HW2 2123   3.762   0.989  12.248
   76SOL     OW 2124  13.427   1.084  13.726
   76SOL    HW1 2125  13.388   1.057  13.809
   76SOL    HW2 2126  13.500   1.022  13.712
   77SOL     OW 2127   6.770   6.315  12.997
   77SOL    HW1 2128   6.845   6.266  12.965
   77SOL    HW2 2129   6.774   6.399  12.951
   78SOL     OW 2130   5.023  11.136   1.241
   78SOL    HW1 2131   5.002  11.077   1.169
   78SOL    HW2 2132   4.957  11.205   1.235
   79SOL     OW 2133   0.940   9.259  13.870
   79SOL    HW1 2134   0.875   9.254  13.800
   79SOL    HW2 2135   0.890   9.247  13.950
   80SOL     OW 2136   7.709   6.711   2.413
   80SOL    HW1 2137   7.802   6.731   2.400
   80SOL    HW2 2138   7.663   6.778   2.362
   81SOL     OW 2139  10.529   9.656  11.476
   81SOL    HW1 2140  10.536   9.642  11.570
   81SOL    HW2 2141  10.520   9.751  11.466
   82SOL     OW 2142  11.642   6.240   6.669
   82SOL    HW1 2143  11.700   6.297   6.617
   82SOL    HW2 2144  11.569   6.297   6.695
   83SOL     OW 2145   4.228   3.228   0.091
   83SOL    HW1 2146   4.206   3.139   0.116
   83SOL    HW2 2147   4.146   3.277   0.102
   84SOL     OW 2148  11.467   5.940   2.602
   84SOL    HW1 2149  11.428   5.993   2.671
   84SOL    HW2 2150  11.561   5.948   2.617
   85SOL     OW 2151  10.626   1.111  13.786
   85SOL    HW1 2152  10.718   1.119  13.809
   85SOL    HW2 2153  10.598   1.201  13.768
   86SOL     OW 2154  13.391   4.501   3.951
   86SOL    HW1 2155  13.360   4.592   3.951
   86SOL    HW2 2156  13.480   4.506   3.984
   87SOL     OW 2157   6.543   1.810  12.833
   87SOL    HW1 2158   6.467   1.843  12.784
   87SOL    HW2 2159   6.511   1.802  12.923
   88SOL     OW 2160   4.771  12.697   4.652
   88SOL    HW1 2161   4.807  12.746   4.726
   88SOL    HW2 2162   4.680  12.726   4.645
   89SOL     OW 2163  11.168  13.940   2.587
   89SOL    HW1 2164  11.076  13.965   2.592
   89SOL    HW2 2165  11.198  13.975   2.503
   90SOL     OW 2166  12.709  13.653  12.067
   90SOL    HW1 2167  12.759  13.660  12.149
   90SOL    HW2 2168  12.627  13.699  12.086
   91SOL     OW 2169  12.637   0.518  14.675
   91SOL    HW1 2170  12.619   0.553  14.588
   91SOL    HW2 2171  12.714   0.567  14.705
   92SOL     OW 2172   2.143   4.011   3.303
   92SOL    HW1 2173   2.098   3.945   3.355
   92SOL    HW2 2174   2.144   4.089   3.358
   93SOL     OW 2175   5.151   2.855  13.033
   93SOL    HW1 2176   5.120   2.778  12.985
   93SOL    HW2 2177   5.159   2.923  12.966
   94SOL     OW 2178   3.795  10.820  10.374
   94SOL    HW1 2179   3.827  10.730  10.365
   94SOL    HW2 2180   3.840  10.869  10.306
   95SOL     OW 2181   4.909   9.023   9.610
   95SOL    HW1 2182   4.858   9.104   9.605
   95SOL    HW2 2183   4.847   8.954   9.585
   96SOL     OW 2184   3.051   1.507  14.030
   96SOL    HW1 2185   2.980   1.507  13.966
   96SOL    HW2 2186   3.012   1.471  14.110
   97SOL     OW 2187   9.303   2.892  10.926
   97SOL    HW1 2188   9.374   2.952  10.902
   97SOL    HW2 2189   9.292   2.836  10.849
   98SOL     OW 2190   5.686  10.729   2.499
   98SOL    HW1 2191   5.718  10.746   2.411
   98SOL    HW2 2192   5.667  10.635   2.499
   99SOL     OW 2193  14.222   5.560  12.964
   99SOL    HW1 2194  14.269   5.643  12.969
   99SOL    HW2 2195  14.204   5.537  13.055
  100SOL     OW 2196  11.286   9.773   6.360
  100SOL    HW1 2197  11.381   9.767   6.345
  100SOL    HW2 2198  11.248   9.767   6.273
  101SOL     OW 2199  10.097   5.090   4.245
  101SOL    HW1 2200  10.136   5.092   4.333
  101SOL    HW2 2201  10.004   5.105   4.260
  102SOL     OW 2202   4.412   1.849  11.209
  102SOL    HW1 2203   4.460   1.802  11.278
  102SOL    HW2 2204   4.447   1.814  11.128
  103SOL     OW 2205   2.642   6.274   0.940
  103SOL    HW1 2206   2.555   6.259   0.904
  103SOL    HW2 2207   2.654   6.204   1.005
  104SOL     OW 2208  13.726   9.233   2.706
  104SOL    HW1 2209  13.760   9.203   2.791
  104SOL    HW2 2210  13.703   9.153   2.659
  105SOL     OW 2211  14.367   2.420   2.660
  105SOL    HW1 2212  14.430   2.448   2.594
  105SOL    HW2 2213  14.294   2.384   2.609
  106SOL     OW 2214   3.411   5.255  11.332
  106SOL    HW1 2215   3.381   5.202  11.258
  106SOL    HW2 2216   3.351   5.330  11.334
  107SOL     OW 2217  12.055   1.006   1.719
  107SOL    HW1 2218  11.999   0.950   1.772
  107SOL    HW2 2219  12.018   1.000   1.631
  108SOL     OW 2220   4.290  13.027  13.738
  108SOL    HW1 2221   4.238  12.986  13.806
  108SOL    HW2 2222   4.318  13.111  13.775
  109SOL     OW 2223  12.070   2.239   0.860
  109SOL    HW1 2224  11.978   2.216   0.871
  109SOL    HW2 2225  12.096   2.195   0.778
  110SOL     OW 2226   8.306  11.395   6.251
  110SOL    HW1 2227   8.327  11.366   6.162
  110SOL    HW2 2228   8.270  11.318   6.294
  111SOL     OW 2229   4.922  14.263  14.466
  111SOL    HW1 2230   4.843  14.317  14.467
  111SOL    HW2 2231   4.896  14.181  14.508
  112SOL     OW 2232   0.299   2.208  13.501
  112SOL    HW1 2233   0.240   2.221  13.427
  112SOL    HW2 2234   0.363   2.143  13.470
  113SOL     OW 2235   3.547  11.371   3.975
  113SOL    HW1 2236   3.579  11.460   3.966
  113SOL    HW2 2237   3.455  11.380   3.997
  114SOL     OW 2238   5.830  12.019  12.568
  114SOL    HW1 2239   5.782  12.100  12.587
  114SOL    HW2 2240   5.781  11.950  12.611
  115SOL     OW 2241   7.964   1.226  14.579
  115SOL    HW1 2242   8.006   1.307  14.552
  115SOL    HW2 2243   7.874   1.251  14.599
  116SOL     OW 2244   2.372  14.288   9.375
  116SOL    HW1 2245   2.302  14.230   9.404
  116SOL    HW2 2246   2.333  14.337   9.302
  117SOL     OW 2247  12.095   7.580   7.625
  117SOL    HW1 2248  12.184   7.547   7.615
  117SOL    HW2 2249  12.103   7.675   7.614
  118SOL     OW 2250   2.101   1.394  14.165
  118SOL    HW1 2251   2.050   1.449  14.106
  118SOL    HW2 2252   2.156   1.456  14.214
  119SOL     OW 2253   4.210   8.542  11.334
  119SOL    HW1 2254   4.143   8.564  11.269
  119SOL    HW2 2255   4.163   8.534  11.416
  120SOL     OW 2256   6.121  12.402   4.579
  120SOL    HW1 2257   6.203  12.377   4.622
  120SOL    HW2 2258   6.067  12.323   4.584
  121SOL     OW 2259   2.223   1.313   0.637
  121SOL    HW1 2260   2.312   1.294   0.666
  121SOL    HW2 2261   2.174   1.233   0.655
  122SOL     OW 2262  10.076   0.746   4.691
  122SOL    HW1 2263  10.157   0.716   4.732
  122SOL    HW2 2264  10.090   0.734   4.597
  123SOL     OW 2265   8.789   8.693  11.760
  123SOL    HW1 2266   8.754   8.777  11.788
  123SOL    HW2 2267   8.868   8.715  11.711
  124SOL     OW 2268  14.571   8.585   0.425
  124SOL    HW1 2269  14.577   8.612   0.517
  124SOL    HW2 2270  14.490   8.624   0.393
  125SOL     OW 2271   5.065   2.258   4.612
  125SOL    HW1 2272   5.141   2.225   4.660
  125SOL    HW2 2273   5.066   2.353   4.628
  126SOL     OW 2274   2.996   4.590   4.034
  126SOL    HW1 2275   2.970   4.654   3.967
  126SOL    HW2 2276   3.092   4.591   4.031
  127SOL     OW 2277   1.542   2.623  12.847
  127SOL    HW1 2278   1.498   2.635  12.763
  127SOL    HW2 2279   1.630   2.656  12.834
  128SOL     OW 2280  14.110   2.782  10.781
  128SOL    HW1 2281  14.068   2.748  10.860
  128SOL    HW2 2282  14.167   2.712  10.751
  129SOL     OW 2283  12.484   5.263   5.860
  129SOL    HW1 2284  12.467   5.306   5.775
  129SOL    HW2 2285  12.564   5.304   5.892
  130SOL     OW 2286   8.837  12.576  13.345
  130SOL    HW1 2287   8.914  12.619  13.383
  130SOL    HW2 2288   8.787  12.544  13.420
  131SOL     OW 2289  12.762   3.796   6.231
  131SOL    HW1 2290  12.801   3.826   6.149
  131SOL    HW2 2291  12.730   3.708   6.212
  132SOL     OW 2292  10.562   6.122   3.290
  132SOL    HW1 2293  10.501   6.048   3.288
  132SOL    HW2 2294  10.547   6.168   3.208
  133SOL     OW 2295  14.461   4.831   1.823
  133SOL    HW1 2296  14.458   4.926   1.831
  133SOL    HW2 2297  14.542   4.805   1.867
  134SOL     OW 2298  14.120  10.469   5.818
  134SOL    HW1 2299  14.114  10.455   5.912
  134SOL    HW2 2300  14.212  10.454   5.796
  135SOL     OW 2301   7.928   9.552  14.188
  135SOL    HW1 2302   7.837   9.531  14.168
  135SOL    HW2 2303   7.941   9.639  14.149
  136SOL     OW 2304   1.269  12.888   8.201
  136SOL    HW1 2305   1.245  12.799   8.226
  136SOL    HW2 2306   1.233  12.943   8.271
  137SOL     OW 2307  11.566   1.936   9.230
  137SOL    HW1 2308  11.569   2.011   9.290
  137SOL    HW2 2309  11.519   1.868   9.278
  138SOL     OW 2310   8.282  11.017  13.858
  138SOL    HW1 2311   8.253  10.927  13.873
  138SOL    HW2 2312   8.364  11.025  13.907
  139SOL     OW 2313  14.699   1.627   0.236
  139SOL    HW1 2314  14.609   1.623   0.265
  139SOL    HW2 2315  14.749   1.578   0.302
  140SOL     OW 2316   0.350   0.113   6.784
  140SOL    HW1 2317   0.286   0.046   6.761
  140SOL    HW2 2318   0.315   0.153   6.863
  141SOL     OW 2319   7.448  14.737   7.445
  141SOL    HW1 2320   7.380  14.778   7.391
  141SOL    HW2 2321   7.456  14.794   7.521
  142SOL     OW 2322   6.950  14.508  12.381
  142SOL    HW1 2323   6.951  14.512  12.285
  142SOL    HW2 2324   6.910  14.590  12.408
  143SOL     OW 2325  13.824   9.439   9.882
  143SOL    HW1 2326  13.753   9.412   9.941
  143SOL    HW2 2327  13.785   9.434   9.794
  144SOL     OW 2328  11.147   7.915   6.527
  144SOL    HW1 2329  11.206   7.892   6.599
  144SOL    HW2 2330  11.077   7.849   6.531
  145SOL     OW 2331   6.993   1.053   5.501
  145SOL    HW1 2332   7.009   1.139   5.461
  145SOL    HW2 2333   7.065   0.999   5.469
  146SOL     OW 2334   1.495  13.933  12.816
  146SOL    HW1 2335   1.581  13.894  12.837
  146SOL    HW2 2336   1.476  13.991  12.890
  147SOL     OW 2337   3.299   9.446   4.473
  147SOL    HW1 2338   3.369   9.507   4.495
  147SOL    HW2 2339   3.285   9.459   4.379
  148SOL     OW 2340   6.970   5.369   8.113
  148SOL    HW1 2341   6.981   5.334   8.025
  148SOL    HW2 2342   7.057   5.403   8.136
  149SOL     OW 2343  12.136   2.775  14.447
  149SOL    HW1 2344  12.148   2.733  14.361
  149SOL    HW2 2345  12.042   2.795  14.450
  150SOL     OW 2346  14.150   7.714  13.830
  150SOL    HW1 2347  14.183   7.714  13.920
  150SOL    HW2 2348  14.229   7.721  13.775
  151SOL     OW 2349   3.859  12.206  13.153
  151SOL    HW1 2350   3.912  12.221  13.231
  151SOL    HW2 2351   3.863  12.289  13.105
  152SOL     OW 2352  12.432  11.619   0.401
  152SOL    HW1 2353  12.413  11.530   0.372
  152SOL    HW2 2354  12.438  11.670   0.320
  153SOL     OW 2355   6.198   9.846  13.186
  153SOL    HW1 2356   6.251   9.773  13.217
  153SOL    HW2 2357   6.144   9.808  13.116
  154SOL     OW 2358   3.510   7.091   7.207
  154SOL    HW1 2359   3.456   7.150   7.259
  154SOL    HW2 2360   3.479   7.102   7.117
  155SOL     OW 2361   9.867   8.706   7.809
  155SOL    HW1 2362   9.873   8.622   7.764
  155SOL    HW2 2363   9.795   8.751   7.765
  156SOL     OW 2364  13.744   4.784   2.911
  156SOL    HW1 2365  13.653   4.815   2.907
  156SOL    HW2 2366  13.795   4.861   2.936
  157SOL     OW 2367  13.463  10.557   5.785
  157SOL    HW1 2368  13.523  10.555   5.710
  157SOL    HW2 2369  13.399  10.624   5.763
  158SOL     OW 2370   8.515  10.020   7.437
  158SOL    HW1 2371   8.498   9.995   7.346
  158SOL    HW2 2372   8.429  10.029   7.477
  159SOL     OW 2373  11.365  10.235   4.484
  159SOL    HW1 2374  11.296  10.291   4.450
  159SOL    HW2 2375  11.324  10.186   4.556
  160SOL     OW 2376   8.202   7.627  14.760
  160SOL    HW1 2377   8.236   7.703  14.712
  160SOL    HW2 2378   8.109   7.646  14.771
  161SOL     OW 2379   3.485   4.127  12.495
  161SOL    HW1 2380   3.543   4.162  12.563
  161SOL    HW2 2381   3.455   4.203  12.447
  162SOL     OW 2382   2.405   4.062   9.823
  162SOL    HW1 2383   2.349   4.032   9.751
  162SOL    HW2 2384   2.381   4.005   9.896
  163SOL     OW 2385   6.085  11.098   9.829
  163SOL    HW1 2386   6.119  11.171   9.777
  163SOL    HW2 2387   6.031  11.047   9.768
  164SOL     OW 2388   1.182  10.769   7.210
  164SOL    HW1 2389   1.262  10.720   7.188
  164SOL    HW2 2390   1.214  10.854   7.239
  165SOL     OW 2391   6.645  14.697  13.946
  165SOL    HW1 2392   6.608  14.745  13.873
  165SOL    HW2 2393   6.635  14.605  13.922
  166SOL     OW 2394  10.886  13.026   1.167
  166SOL    HW1 2395  10.837  13.058   1.091
  166SOL    HW2 2396  10.819  12.987   1.223
  167SOL     OW 2397   6.154   8.114   0.773
  167SOL    HW1 2398   6.120   8.050   0.836
  167SOL    HW2 2399   6.147   8.070   0.688
  168SOL     OW 2400   0.338   6.811   5.685
  168SOL    HW1 2401   0.349   6.777   5.774
  168SOL    HW2 2402   0.294   6.740   5.638
  169SOL     OW 2403   0.536   4.635  12.177
  169SOL    HW1 2404   0.609   4.624  12.116
  169SOL    HW2 2405   0.560   4.585  12.254
  170SOL     OW 2406  13.386  12.142   1.525
  170SOL    HW1 2407  13.469  12.141   1.477
  170SOL    HW2 2408  13.373  12.234   1.549
  171SOL     OW 2409   3.584   8.150  10.750
  171SOL    HW1 2410   3.671   8.179  10.776
  171SOL    HW2 2411   3.585   8.155  10.655
  172SOL     OW 2412   1.434   4.179  10.457
  172SOL    HW1 2413   1.386   4.253  10.495
  172SOL    HW2 2414   1.462   4.211  10.371
  173SOL     OW 2415   7.731  12.397   9.875
  173SOL    HW1 2416   7.656  12.456   9.883
  173SOL    HW2 2417   7.800  12.438   9.927
  174SOL     OW 2418   9.619   2.411   7.085
  174SOL    HW1 2419   9.588   2.489   7.131
  174SOL    HW2 2420   9.663   2.445   7.008
  175SOL     OW 2421  13.714   9.931   6.773
  175SOL    HW1 2422  13.795   9.911   6.725
  175SOL    HW2 2423  13.661   9.853   6.764
  176SOL     OW 2424  11.766  11.910  11.377
  176SOL    HW1 2425  11.768  11.867  11.292
  176SOL    HW2 2426  11.819  11.988  11.366
  177SOL     OW 2427   3.412   2.213   5.143
  177SOL    HW1 2428   3.488   2.170   5.182
  177SOL    HW2 2429   3.437   2.227   5.051
  178SOL     OW 2430  11.535   3.552   7.759
  178SOL    HW1 2431  11.493   3.556   7.673
  178SOL    HW2 2432  11.463   3.548   7.822
  179SOL     OW 2433   0.015   7.363   8.241
  179SOL    HW1 2434   0.019   7.336   8.333
  179SOL    HW2 2435   0.106   7.362   8.212
  180SOL     OW 2436  14.842   1.443   1.423
  180SOL    HW1 2437   0.005   1.459   1.509
  180SOL    HW2 2438   0.036   1.455   1.360
  181SOL     OW 2439  13.262   3.949   7.019
  181SOL    HW1 2440  13.263   3.856   7.041
  181SOL    HW2 2441  13.179   3.981   7.052
  182SOL     OW 2442   1.994  13.651   6.671
  182SOL    HW1 2443   1.914  13.684   6.713
  182SOL    HW2 2444   2.005  13.563   6.707
  183SOL     OW 2445   7.082  11.761   7.488
  183SOL    HW1 2446   7.017  11.705   7.447
  183SOL    HW2 2447   7.090  11.729   7.577
  184SOL     OW 2448  11.335   3.403  12.695
  184SOL    HW1 2449  11.398   3.357  12.751
  184SOL    HW2 2450  11.307   3.337  12.631
  185SOL     OW 2451  12.690   9.839   1.095
  185SOL    HW1 2452  12.652   9.857   1.009
  185SOL    HW2 2453  12.677   9.919   1.145
  186SOL     OW 2454  13.125  10.627   4.863
  186SOL    HW1 2455  13.038  10.594   4.885
  186SOL    HW2 2456  13.141  10.594   4.774
  187SOL     OW 2457   1.719  12.570  10.631
  187SOL    HW1 2458   1.813  12.580  10.617
  187SOL    HW2 2459   1.711  12.541  10.721
  188SOL     OW 2460   7.535  13.200   2.283
  188SOL    HW1 2461   7.513  13.203   2.376
  188SOL    HW2 2462   7.473  13.261   2.242
  189SOL     OW 2463   1.614  10.828   6.071
  189SOL    HW1 2464   1.562  10.876   6.006
  189SOL    HW2 2465   1.665  10.896   6.115
  190SOL     OW 2466   4.979   8.401   7.803
  190SOL    HW1 2467   4.940   8.406   7.891
  190SOL    HW2 2468   5.071   8.420   7.817
  191SOL     OW 2469   9.346   8.080   3.931
  191SOL    HW1 2470   9.315   8.144   3.866
  191SOL    HW2 2471   9.376   8.005   3.879
  192SOL     OW 2472  14.038  12.748   0.032
  192SOL    HW1 2473  14.038  12.692  14.831
  192SOL    HW2 2474  14.059  12.689   0.104
  193SOL     OW 2475   1.378   2.855   2.834
  193SOL    HW1 2476   1.394   2.790   2.766
  193SOL    HW2 2477   1.296   2.828   2.875
  194SOL     OW 2478   8.510   4.982  12.837
  194SOL    HW1 2479   8.426   4.954  12.872
  194SOL    HW2 2480   8.562   4.901  12.832
  195SOL     OW 2481  14.226   7.710  13.034
  195SOL    HW1 2482  14.170   7.788  13.042
  195SOL    HW2 2483  14.235   7.677  13.123
  196SOL     OW 2484  12.269   8.423   7.594
  196SOL    HW1 2485  12.239   8.473   7.669
  196SOL    HW2 2486  12.222   8.339   7.600
  197SOL     OW 2487   2.976  12.857   3.233
  197SOL    HW1 2488   3.007  12.781   3.182
  197SOL    HW2 2489   2.972  12.928   3.169
  198SOL     OW 2490   9.677   2.087  11.986
  198SOL    HW1 2491   9.733   2.075  12.062
  198SOL    HW2 2492   9.603   2.028  12.001
  199SOL     OW 2493  10.250   4.994  11.239
  199SOL    HW1 2494  10.233   5.031  11.152
  199SOL    HW2 2495  10.283   5.068  11.290
  200SOL     OW 2496   1.553  14.094   2.277
  200SOL    HW1 2497   1.520  14.132   2.195
  200SOL    HW2 2498   1.640  14.062   2.254
  201SOL     OW 2499   5.239   1.665   8.376
  201SOL    HW1 2500   5.198   1.675   8.461
  201SOL    HW2 2501   5.313   1.726   8.377
  202SOL     OW 2502   9.526   7.218  14.017
  202SOL    HW1 2503   9.618   7.196  14.001
  202SOL    HW2 2504   9.519   7.311  13.997
  203SOL     OW 2505  10.832   8.904   9.366
  203SOL    HW1 2506  10.879   8.967   9.311
  203SOL    HW2 2507  10.875   8.820   9.350
  204SOL     OW 2508  12.698  14.513  10.749
  204SOL    HW1 2509  12.673  14.457  10.822
  204SOL    HW2 2510  12.654  14.475  10.673
  205SOL     OW 2511   1.831   4.567  12.764
  205SOL    HW1 2512   1.786   4.575  12.680
  205SOL    HW2 2513   1.801   4.483  12.800
  206SOL     OW 2514   9.549  12.168  10.189
  206SOL    HW1 2515   9.584  12.095  10.138
  206SOL    HW2 2516   9.505  12.223  10.124
  207SOL     OW 2517  13.366  14.162   3.268
  207SOL    HW1 2518  13.290  14.106   3.283
  207SOL    HW2 2519  13.401  14.133   3.184
  208SOL     OW 2520   8.118  11.710   4.177
  208SOL    HW1 2521   8.116  11.797   4.136
  208SOL    HW2 2522   8.196  11.669   4.142
  209SOL     OW 2523   9.102  11.030   7.521
  209SOL    HW1 2524   9.076  11.117   7.549
  209SOL    HW2 2525   9.198  11.029   7.529
  210SOL     OW 2526  12.738  11.160  12.253
  210SOL    HW1 2527  12.692  11.227  12.202
  210SOL    HW2 2528  12.711  11.176  12.343
  211SOL     OW 2529   1.533   6.909   4.543
  211SOL    HW1 2530   1.494   6.960   4.615
  211SOL    HW2 2531   1.477   6.833   4.534
  212SOL     OW 2532  13.900  13.915   4.490
  212SOL    HW1 2533  13.909  13.993   4.545
  212SOL    HW2 2534  13.981  13.867   4.502
  213SOL     OW 2535  10.220  14.506   9.661
  213SOL    HW1 2536  10.299  14.464   9.626
  213SOL    HW2 2537  10.191  14.563   9.590
  214SOL     OW 2538  14.229  13.641   9.380
  214SOL    HW1 2539  14.170  13.706   9.416
  214SOL    HW2 2540  14.251  13.584   9.454
  215SOL     OW 2541  11.477   2.334   2.746
  215SOL    HW1 2542  11.537   2.306   2.815
  215SOL    HW2 2543  11.526   2.322   2.665
  216SOL     OW 2544   5.863  12.388   8.760
  216SOL    HW1 2545   5.955  12.413   8.747
  216SOL    HW2 2546   5.834  12.360   8.673
  217SOL     OW 2547  11.895   5.641  11.047
  217SOL    HW1 2548  11.887   5.703  11.120
  217SOL    HW2 2549  11.837   5.676  10.979
  218SOL     OW 2550   5.495  10.479  12.096
  218SOL    HW1 2551   5.545  10.527  12.030
  218SOL    HW2 2552   5.515  10.387  12.079
  219SOL     OW 2553  13.667   1.661  12.443
  219SOL    HW1 2554  13.591   1.620  12.484
  219SOL    HW2 2555  13.737   1.650  12.506
  220SOL     OW 2556   0.283   4.416   6.940
  220SOL    HW1 2557   0.272   4.416   6.845
  220SOL    HW2 2558   0.243   4.498   6.969
  221SOL     OW 2559   7.917   4.376  10.082
  221SOL    HW1 2560   7.958   4.291  10.065
  221SOL    HW2 2561   7.825   4.362  10.060
  222SOL     OW 2562   4.645   5.943   2.151
  222SOL    HW1 2563   4.659   5.860   2.195
  222SOL    HW2 2564   4.727   5.959   2.103
  223SOL     OW 2565  12.658  12.647   6.847
  223SOL    HW1 2566  12.679  12.578   6.910
  223SOL    HW2 2567  12.728  12.712   6.858
  224SOL     OW 2568  14.353  10.558  13.459
  224SOL    HW1 2569  14.326  10.478  13.414
  224SOL    HW2 2570  14.276  10.615  13.455
  225SOL     OW 2571   3.271  14.771   4.484
  225SOL    HW1 2572   3.326  14.725   4.548
  225SOL    HW2 2573   3.222  14.702   4.439
  226SOL     OW 2574   7.268   6.736   5.018
  226SOL    HW1 2575   7.211   6.794   5.067
  226SOL    HW2 2576   7.268   6.771   4.929
  227SOL     OW 2577   9.507   2.365   5.744
  227SOL    HW1 2578   9.593   2.333   5.719
  227SOL    HW2 2579   9.500   2.347   5.838
  228SOL     OW 2580   4.113   7.327  11.359
  228SOL    HW1 2581   4.040   7.372  11.316
  228SOL    HW2 2582   4.179   7.319  11.290
  229SOL     OW 2583   1.286   1.141  10.772
  229SOL    HW1 2584   1.264   1.050  10.790
  229SOL    HW2 2585   1.262   1.153  10.680
  230SOL     OW 2586   3.925   5.398   8.570
  230SOL    HW1 2587   3.880   5.347   8.502
  230SOL    HW2 2588   3.858   5.459   8.602
  231SOL     OW 2589  11.250  13.992   3.441
  231SOL    HW1 2590  11.210  13.989   3.528
  231SOL    HW2 2591  11.179  14.017   3.382
  232SOL     OW 2592  13.657  14.571   0.254
  232SOL    HW1 2593  13.666  14.634   0.183
  232SOL    HW2 2594  13.571  14.590   0.292
  233SOL     OW 2595  10.549  10.584  11.996
  233SOL    HW1 2596  10.470  10.556  12.043
  233SOL    HW2 2597  10.612  10.605  12.066
  234SOL     OW 2598   8.950  14.218   4.282
  234SOL    HW1 2599   8.870  14.269   4.296
  234SOL    HW2 2600   9.020  14.272   4.320
  235SOL     OW 2601   5.374   8.217   5.149
  235SOL    HW1 2602   5.392   8.149   5.214
  235SOL    HW2 2603   5.326   8.172   5.079
  236SOL     OW 2604  12.322   2.002   2.348
  236SOL    HW1 2605  12.265   2.076   2.370
  236SOL    HW2 2606  12.264   1.935   2.314
  237SOL     OW 2607   7.730   4.161   6.326
  237SOL    HW1 2608   7.788   4.150   6.251
  237SOL    HW2 2609   7.786   4.193   6.396
  238SOL     OW 2610   0.041  12.762   8.419
  238SOL    HW1 2611   0.031  12.694   8.487
  238SOL    HW2 2612   0.070  12.714   8.342
  239SOL     OW 2613   8.136   5.143   1.917
  239SOL    HW1 2614   8.229   5.129   1.903
  239SOL    HW2 2615   8.130   5.189   2.000
  240SOL     OW 2616   3.514   3.162  13.562
  240SOL    HW1 2617   3.468   3.205  13.491
  240SOL    HW2 2618   3.572   3.229  13.599
  241SOL     OW 2619  11.442   5.562   3.761
  241SOL    HW1 2620  11.393   5.517   3.693
  241SOL    HW2 2621  11.377   5.615   3.807
  242SOL     OW 2622   6.210   7.778   4.747
  242SOL    HW1 2623   6.198   7.701   4.692
  242SOL    HW2 2624   6.236   7.744   4.832
  243SOL     OW 2625  12.331   8.916   8.227
  243SOL    HW1 2626  12.301   9.001   8.259
  243SOL    HW2 2627  12.427   8.922   8.233
  244SOL     OW 2628  12.947   5.049   0.676
  244SOL    HW1 2629  13.042   5.044   0.685
  244SOL    HW2 2630  12.932   5.130   0.627
  245SOL     OW 2631   4.904   4.982   8.849
  245SOL    HW1 2632   4.823   5.003   8.896
  245SOL    HW2 2633   4.895   5.028   8.765
  246SOL     OW 2634   6.191   6.673   3.843
  246SOL    HW1 2635   6.272   6.630   3.873
  246SOL    HW2 2636   6.219   6.761   3.816
  247SOL     OW 2637   3.017   2.465   8.171
  247SOL    HW1 2638   3.033   2.537   8.231
  247SOL    HW2 2639   2.986   2.507   8.090
  248SOL     OW 2640   1.485   4.761   9.519
  248SOL    HW1 2641   1.466   4.776   9.611
  248SOL    HW2 2642   1.570   4.803   9.504
  249SOL     OW 2643  13.066   5.357   5.806
  249SOL    HW1 2644  13.092   5.267   5.788
  249SOL    HW2 2645  12.992   5.350   5.866
  250SOL     OW 2646   2.279   5.637   1.656
  250SOL    HW1 2647   2.260   5.674   1.569
  250SOL    HW2 2648   2.374   5.630   1.659
  251SOL     OW 2649   6.515  11.130   8.635
  251SOL    HW1 2650   6.521  11.035   8.632
  251SOL    HW2 2651   6.447  11.148   8.700
  252SOL     OW 2652  12.846   8.581  12.086
  252SOL    HW1 2653  12.882   8.633  12.013
  252SOL    HW2 2654  12.872   8.630  12.164
  253SOL     OW 2655   1.505  11.433  12.888
  253SOL    HW1 2656   1.418  11.394  12.895
  253SOL    HW2 2657   1.538  11.433  12.978
  254SOL     OW 2658   1.214  13.693  12.575
  254SOL    HW1 2659   1.170  13.758  12.521
  254SOL    HW2 2660   1.304  13.723  12.580
  255SOL     OW 2661  11.476   0.286  11.739
  255SOL    HW1 2662  11.433   0.266  11.655
  255SOL    HW2 2663  11.569   0.286  11.718
  256SOL     OW 2664   4.977   3.371   8.966
  256SOL    HW1 2665   5.032   3.309   8.918
  256SOL    HW2 2666   4.893   3.369   8.920
  257SOL     OW 2667  14.143  13.352   6.138
  257SOL    HW1 2668  14.208  13.286   6.112
  257SOL    HW2 2669  14.121  13.397   6.057
  258SOL     OW 2670   5.006  11.858  14.223
  258SOL    HW1 2671   4.988  11.823  14.310
  258SOL    HW2 2672   4.955  11.804  14.163
  259SOL     OW 2673   7.578  12.812  14.768
  259SOL    HW1 2674   7.653  12.768  14.808
  259SOL    HW2 2675   7.597  12.906  14.777
  260SOL     OW 2676  13.619   1.811   4.822
  260SOL    HW1 2677  13.560   1.885   4.836
  260SOL    HW2 2678  13.706   1.849   4.832
  261SOL     OW 2679  12.318   7.939  11.575
  261SOL    HW1 2680  12.407   7.957  11.608
  261SOL    HW2 2681  12.332   7.906  11.487
  262SOL     OW 2682   2.269  13.147  14.459
  262SOL    HW1 2683   2.334  13.080  14.436
  262SOL    HW2 2684   2.201  13.098  14.506
  263SOL     OW 2685  14.025  14.129   0.443
  263SOL    HW1 2686  14.050  14.153   0.353
  263SOL    HW2 2687  13.945  14.079   0.433
  264SOL     OW 2688   2.647   6.591   7.593
  264SOL    HW1 2689   2.609   6.641   7.521
  264SOL    HW2 2690   2.580   6.593   7.661
  265SOL     OW 2691   1.484   6.725   4.184
  265SOL    HW1 2692   1.399   6.729   4.142
  265SOL    HW2 2693   1.499   6.813   4.218
  266SOL     OW 2694   4.433  10.449  13.381
  266SOL    HW1 2695   4.420  10.484  13.293
  266SOL    HW2 2696   4.353  10.401  13.401
  267SOL     OW 2697   0.738   2.727  10.183
  267SOL    HW1 2698   0.751   2.758  10.093
  267SOL    HW2 2699   0.763   2.635  10.180
  268SOL     OW 2700   3.094   3.594   3.195
  268SOL    HW1 2701   3.096   3.687   3.217
  268SOL    HW2 2702   3.179   3.561   3.222
  269SOL     OW 2703  12.265   4.656   4.345
  269SOL    HW1 2704  12.262   4.620   4.256
  269SOL    HW2 2705  12.315   4.737   4.336
  270SOL     OW 2706   8.650   2.518   6.433
  270SOL    HW1 2707   8.634   2.487   6.344
  270SOL    HW2 2708   8.746   2.515   6.442
  271SOL     OW 2709   9.761  12.415   7.269
  271SOL    HW1 2710   9.797  12.331   7.297
  271SOL    HW2 2711   9.824  12.448   7.204
  272SOL     OW 2712  12.986   2.552   8.540
  272SOL    HW1 2713  12.903   2.506   8.554
  272SOL    HW2 2714  13.046   2.512   8.603
  273SOL     OW 2715   0.598   7.735   3.688
  273SOL    HW1 2716   0.520   7.782   3.716
  273SOL    HW2 2717   0.639   7.707   3.769
  274SOL     OW 2718  12.629   0.487  10.620
  274SOL    HW1 2719  12.538   0.515  10.612
  274SOL    HW2 2720  12.640   0.420  10.553
  275SOL     OW 2721   8.797   8.474   0.861
  275SOL    HW1 2722   8.823   8.392   0.903
  275SOL    HW2 2723   8.702   8.477   0.871
  276SOL     OW 2724   5.839   5.856   3.176
  276SOL    HW1 2725   5.865   5.786   3.235
  276SOL    HW2 2726   5.913   5.867   3.117
  277SOL     OW 2727   6.688   5.187   1.450
  277SOL    HW1 2728   6.665   5.136   1.372
  277SOL    HW2 2729   6.618   5.251   1.458
  278SOL     OW 2730   1.972   5.209   0.189
  278SOL    HW1 2731   1.987   5.150   0.115
  278SOL    HW2 2732   1.919   5.157   0.250
  279SOL     OW 2733  11.858  11.728   1.616
  279SOL    HW1 2734  11.848  11.791   1.687
  279SOL    HW2 2735  11.774  11.681   1.614
  280SOL     OW 2736  12.815   4.859  14.480
  280SOL    HW1 2737  12.844   4.772  14.506
  280SOL    HW2 2738  12.798   4.852  14.386
  281SOL     OW 2739   7.014   4.408   8.432
  281SOL    HW1 2740   7.086   4.460   8.467
  281SOL    HW2 2741   6.979   4.462   8.361
  282SOL     OW 2742  10.198   0.116   5.525
  282SOL    HW1 2743  10.119   0.159   5.556
  282SOL    HW2 2744  10.168   0.031   5.493
  283SOL     OW 2745   3.396   0.911   1.475
  283SOL    HW1 2746   3.477   0.867   1.448
  283SOL    HW2 2747   3.401   0.997   1.432
  284SOL     OW 2748   4.152   0.985   7.228
  284SOL    HW1 2749   4.084   1.005   7.293
  284SOL    HW2 2750   4.138   1.050   7.158
  285SOL     OW 2751   7.144   6.463  14.167
  285SOL    HW1 2752   7.186   6.377  14.174
  285SOL    HW2 2753   7.188   6.516  14.234
  286SOL     OW 2754  10.638   2.829  12.175
  286SOL    HW1 2755  10.649   2.853  12.268
  286SOL    HW2 2756  10.563   2.769  12.175
  287SOL     OW 2757   0.452   9.554   8.986
  287SOL    HW1 2758   0.431   9.616   9.057
  287SOL    HW2 2759   0.369   9.543   8.939
  288SOL     OW 2760   4.346  13.911   3.641
  288SOL    HW1 2761   4.255  13.913   3.669
  288SOL    HW2 2762   4.357  13.825   3.601
  289SOL     OW 2763   8.297   5.440  13.563
  289SOL    HW1 2764   8.302   5.346  13.577
  289SOL    HW2 2765   8.387   5.467  13.547
  290SOL     OW 2766   7.935   8.189   7.531
  290SOL    HW1 2767   7.967   8.270   7.572
  290SOL    HW2 2768   7.978   8.188   7.445
  291SOL     OW 2769  14.601  13.781   4.780
  291SOL    HW1 2770  14.643  13.846   4.724
  291SOL    HW2 2771  14.570  13.714   4.720
  292SOL     OW 2772  11.303   9.206   2.104
  292SOL    HW1 2773  11.232   9.146   2.080
  292SOL    HW2 2774  11.374   9.184   2.045
  293SOL     OW 2775  14.032   3.566  14.250
  293SOL    HW1 2776  14.081   3.495  14.292
  293SOL    HW2 2777  13.966   3.522  14.197
  294SOL     OW 2778   3.752   4.462   6.860
  294SOL    HW1 2779   3.659   4.476   6.842
  294SOL    HW2 2780   3.796   4.532   6.812
  295SOL     OW 2781   3.618  14.568  13.394
  295SOL    HW1 2782   3.544  14.514  13.366
  295SOL    HW2 2783   3.645  14.530  13.478
  296SOL     OW 2784   3.141   1.914  11.520
  296SOL    HW1 2785   3.048   1.894  11.529
  296SOL    HW2 2786   3.185   1.858  11.583
  297SOL     OW 2787   8.921   8.116  11.322
  297SOL    HW1 2788   8.830   8.086  11.323
  297SOL    HW2 2789   8.972   8.037  11.305
  298SOL     OW 2790  11.682   9.737   9.383
  298SOL    HW1 2791  11.649   9.725   9.294
  298SOL    HW2 2792  11.744   9.665   9.395
  299SOL     OW 2793   4.118   6.672   5.945
  299SOL    HW1 2794   4.122   6.747   6.005
  299SOL    HW2 2795   4.047   6.617   5.980
  300SOL     OW 2796   8.416  12.076   1.665
  300SOL    HW1 2797   8.321  12.072   1.652
  300SOL    HW2 2798   8.441  11.986   1.684
  301SOL     OW 2799  11.207   9.904   7.960
  301SOL    HW1 2800  11.256   9.948   8.030
  301SOL    HW2 2801  11.183   9.819   7.997
  302SOL     OW 2802  10.886   9.890   3.219
  302SOL    HW1 2803  10.975   9.923   3.210
  302SOL    HW2 2804  10.895   9.795   3.214
  303SOL     OW 2805  11.190   3.010   7.037
  303SOL    HW1 2806  11.269   2.960   7.015
  303SOL    HW2 2807  11.189   3.011   7.133
  304SOL     OW 2808   4.230   8.127  12.083
  304SOL    HW1 2809   4.241   8.060  12.150
  304SOL    HW2 2810   4.176   8.194  12.125
  305SOL     OW 2811  13.856   5.982   7.953
  305SOL    HW1 2812  13.790   5.947   7.894
  305SOL    HW2 2813  13.829   6.073   7.969
  306SOL     OW 2814   7.418   9.608  13.537
  306SOL    HW1 2815   7.370   9.538  13.493
  306SOL    HW2 2816   7.436   9.573  13.624
  307SOL     OW 2817   1.919  10.359   0.850
  307SOL    HW1 2818   1.917  10.453   0.871
  307SOL    HW2 2819   2.011  10.336   0.852
  308SOL     OW 2820   3.987   8.863   8.535
  308SOL    HW1 2821   3.925   8.790   8.530
  308SOL    HW2 2822   3.966   8.918   8.460
  309SOL     OW 2823   3.221  12.806  10.607
  309SOL    HW1 2824   3.289  12.873  10.620
  309SOL    HW2 2825   3.266  12.737  10.558
  310SOL     OW 2826   4.518   6.897  14.001
  310SOL    HW1 2827   4.562   6.945  14.071
  310SOL    HW2 2828   4.521   6.956  13.926
  311SOL     OW 2829   3.152   4.208   9.619
  311SOL    HW1 2830   3.095   4.134   9.636
  311SOL    HW2 2831   3.240   4.171   9.617
  312SOL     OW 2832  14.365   9.916   0.225
  312SOL    HW1 2833  14.283   9.893   0.181
  312SOL    HW2 2834  14.429   9.920   0.154
  313SOL     OW 2835   9.516   4.984   1.244
  313SOL    HW1 2836   9.436   4.931   1.249
  313SOL    HW2 2837   9.587   4.920   1.235
  314SOL     OW 2838   8.446  10.936  13.230
  314SOL    HW1 2839   8.389  10.918  13.155
  314SOL    HW2 2840   8.393  10.991  13.288
  315SOL     OW 2841   0.368   6.198   4.299
  315SOL    HW1 2842   0.366   6.245   4.216
  315SOL    HW2 2843   0.397   6.110   4.276
  316SOL     OW 2844  12.476  13.565   2.332
  316SOL    HW1 2845  12.502  13.480   2.366
  316SOL    HW2 2846  12.523  13.573   2.249
  317SOL     OW 2847   3.980   2.562   1.680
  317SOL    HW1 2848   4.018   2.621   1.746
  317SOL    HW2 2849   4.049   2.552   1.614
  318SOL     OW 2850   8.217  11.516   1.071
  318SOL    HW1 2851   8.128  11.545   1.092
  318SOL    HW2 2852   8.274  11.576   1.119
  319SOL     OW 2853   6.000  14.148   8.628
  319SOL    HW1 2854   5.908  14.156   8.653
  319SOL    HW2 2855   6.002  14.074   8.567
  320SOL     OW 2856  14.022  14.408   2.275
  320SOL    HW1 2857  14.007  14.491   2.230
  320SOL    HW2 2858  14.027  14.431   2.368
  321SOL     OW 2859  13.629  11.751   4.632
  321SOL    HW1 2860  13.631  11.843   4.657
  321SOL    HW2 2861  13.662  11.704   4.710
  322SOL     OW 2862  13.069   5.272   3.841
  322SOL    HW1 2863  13.164   5.272   3.833
  322SOL    HW2 2864  13.043   5.358   3.809
  323SOL     OW 2865   6.000   2.363  12.474
  323SOL    HW1 2866   5.921   2.354  12.421
  323SOL    HW2 2867   5.981   2.435  12.534
  324SOL     OW 2868  13.415   0.808   6.520
  324SOL    HW1 2869  13.438   0.851   6.438
  324SOL    HW2 2870  13.330   0.767   6.502
  325SOL     OW 2871   4.253   2.654   8.273
  325SOL    HW1 2872   4.323   2.710   8.240
  325SOL    HW2 2873   4.197   2.712   8.324
  326SOL     OW 2874   4.461   4.766   0.514
  326SOL    HW1 2875   4.422   4.740   0.598
  326SOL    HW2 2876   4.555   4.758   0.529
  327SOL     OW 2877   5.422   1.162   5.623
  327SOL    HW1 2878   5.330   1.181   5.601
  327SOL    HW2 2879   5.469   1.243   5.604
  328SOL     OW 2880   7.325  11.607   7.632
  328SOL    HW1 2881   7.357  11.589   7.721
  328SOL    HW2 2882   7.343  11.700   7.619
  329SOL     OW 2883   4.668   0.714  13.370
  329SOL    HW1 2884   4.702   0.802  13.354
  329SOL    HW2 2885   4.742   0.656  13.352
  330SOL     OW 2886  10.763  11.434  11.131
  330SOL    HW1 2887  10.703  11.508  11.128
  330SOL    HW2 2888  10.746  11.392  11.215
  331SOL     OW 2889   9.521  13.869   8.897
  331SOL    HW1 2890   9.587  13.800   8.890
  331SOL    HW2 2891   9.554  13.929   8.964
  332SOL     OW 2892  10.914   2.219  10.389
  332SOL    HW1 2893  10.960   2.253  10.312
  332SOL    HW2 2894  10.840   2.170  10.353
  333SOL     OW 2895  10.569  12.484  13.383
  333SOL    HW1 2896  10.573  12.564  13.331
  333SOL    HW2 2897  10.659  12.450  13.382
  334SOL     OW 2898   1.466  12.174  11.366
  334SOL    HW1 2899   1.446  12.105  11.303
  334SOL    HW2 2900   1.380  12.205  11.395
  335SOL     OW 2901   1.391   4.912   0.893
  335SOL    HW1 2902   1.444   4.833   0.905
  335SOL    HW2 2903   1.440   4.981   0.937
  336SOL     OW 2904   0.944   7.414   0.746
  336SOL    HW1 2905   0.979   7.325   0.741
  336SOL    HW2 2906   0.999   7.456   0.813
  337SOL     OW 2907  10.388   1.029   6.714
  337SOL    HW1 2908  10.331   0.978   6.656
  337SOL    HW2 2909  10.343   1.029   6.798
  338SOL     OW 2910  14.297   6.874  13.304
  338SOL    HW1 2911  14.203   6.886  13.318
  338SOL    HW2 2912  14.306   6.784  13.274
  339SOL     OW 2913   9.050   8.585   4.898
  339SOL    HW1 2914   9.040   8.601   4.804
  339SOL    HW2 2915   9.108   8.655   4.928
  340SOL     OW 2916  13.016   0.626   4.096
  340SOL    HW1 2917  13.103   0.626   4.055
  340SOL    HW2 2918  13.027   0.575   4.176
  341SOL     OW 2919   4.370  13.158  11.233
  341SOL    HW1 2920   4.403  13.127  11.148
  341SOL    HW2 2921   4.405  13.095  11.296
  342SOL     OW 2922   8.396   2.029   8.719
  342SOL    HW1 2923   8.472   2.032   8.777
  342SOL    HW2 2924   8.356   1.943   8.737
  343SOL     OW 2925   0.601   4.521   3.595
  343SOL    HW1 2926   0.572   4.591   3.653
  343SOL    HW2 2927   0.520   4.481   3.563
  344SOL     OW 2928   7.924  11.663  10.251
  344SOL    HW1 2929   7.840  11.636  10.214
  344SOL    HW2 2930   7.979  11.684  10.175
  345SOL     OW 2931   2.366  11.749  10.212
  345SOL    HW1 2932   2.409  11.665  10.192
  345SOL    HW2 2933   2.438  11.811  10.223
  346SOL     OW 2934   1.760  11.893   8.479
  346SOL    HW1 2935   1.756  11.928   8.568
  346SOL    HW2 2936   1.811  11.812   8.487
  347SOL     OW 2937  12.786   3.366  13.464
  347SOL    HW1 2938  12.858   3.430  13.470
  347SOL    HW2 2939  12.775   3.334  13.553
  348SOL     OW 2940   9.252  12.587   4.132
  348SOL    HW1 2941   9.190  12.592   4.059
  348SOL    HW2 2942   9.332  12.550   4.093
  349SOL     OW 2943   3.658   9.294   4.072
  349SOL    HW1 2944   3.568   9.298   4.105
  349SOL    HW2 2945   3.650   9.311   3.978
  350SOL     OW 2946   1.370   8.494  11.623
  350SOL    HW1 2947   1.375   8.449  11.708
  350SOL    HW2 2948   1.303   8.561  11.636
  351SOL     OW 2949   5.259   8.831  14.420
  351SOL    HW1 2950   5.181   8.851  14.472
  351SOL    HW2 2951   5.332   8.862  14.474
  352SOL     OW 2952   3.453   1.981   1.658
  352SOL    HW1 2953   3.456   2.035   1.736
  352SOL    HW2 2954   3.452   1.891   1.690
  353SOL     OW 2955  12.282   1.283  10.157
  353SOL    HW1 2956  12.257   1.192  10.172
  353SOL    HW2 2957  12.216   1.315  10.095
  354SOL     OW 2958  12.109   8.402   1.774
  354SOL    HW1 2959  12.094   8.496   1.777
  354SOL    HW2 2960  12.199   8.391   1.808
  355SOL     OW 2961   4.853   0.667   5.421
  355SOL    HW1 2962   4.921   0.665   5.354
  355SOL    HW2 2963   4.786   0.726   5.385
  356SOL     OW 2964   4.625   9.989  11.898
  356SOL    HW1 2965   4.621  10.029  11.984
  356SOL    HW2 2966   4.718   9.992  11.875
  357SOL     OW 2967   9.307   5.511  13.693
  357SOL    HW1 2968   9.305   5.488  13.600
  357SOL    HW2 2969   9.281   5.603  13.695
  358SOL     OW 2970   7.868  14.620   7.007
  358SOL    HW1 2971   7.779  14.590   6.989
  358SOL    HW2 2972   7.919  14.540   7.019
  359SOL     OW 2973   8.078   1.020   5.483
  359SOL    HW1 2974   8.135   0.982   5.416
  359SOL    HW2 2975   8.103   0.975   5.563
  360SOL     OW 2976   4.801  12.800   9.291
  360SOL    HW1 2977   4.802  12.896   9.293
  360SOL    HW2 2978   4.811  12.779   9.198
  361SOL     OW 2979   0.771   9.487  10.630
  361SOL    HW1 2980   0.724   9.474  10.547
  361SOL    HW2 2981   0.730   9.426  10.691
  362SOL     OW 2982   6.668   9.924   3.388
  362SOL    HW1 2983   6.594   9.882   3.342
  362SOL    HW2 2984   6.745   9.874   3.360
  363SOL     OW 2985  11.291   1.251  14.587
  363SOL    HW1 2986  11.260   1.307  14.658
  363SOL    HW2 2987  11.227   1.180  14.582
  364SOL     OW 2988   5.831   4.612   1.601
  364SOL    HW1 2989   5.758   4.555   1.623
  364SOL    HW2 2990   5.877   4.626   1.683
  365SOL     OW 2991   0.941   1.810  14.399
  365SOL    HW1 2992   0.997   1.884  14.424
  365SOL    HW2 2993   0.943   1.752  14.475
  366SOL     OW 2994   6.016  11.296   1.376
  366SOL    HW1 2995   5.983  11.299   1.466
  366SOL    HW2 2996   5.975  11.372   1.334
  367SOL     OW 2997   2.159   2.087  14.197
  367SOL    HW1 2998   2.197   2.051  14.117
  367SOL    HW2 2999   2.128   2.009  14.244
  368SOL     OW 3000   3.403   0.514   5.352
  368SOL    HW1 3001   3.414   0.560   5.268
  368SOL    HW2 3002   3.308   0.511   5.365
  369SOL     OW 3003   5.146  14.547  12.572
  369SOL    HW1 3004   5.121  14.512  12.487
  369SOL    HW2 3005   5.068  14.535  12.626
  370SOL     OW 3006   7.159   3.353   8.237
  370SOL    HW1 3007   7.121   3.400   8.163
  370SOL    HW2 3008   7.084   3.332   8.292
  371SOL     OW 3009   8.014   9.312   0.877
  371SOL    HW1 3010   8.103   9.294   0.909
  371SOL    HW2 3011   7.981   9.380   0.935
  372SOL     OW 3012  10.578   7.352   6.182
  372SOL    HW1 3013  10.656   7.318   6.224
  372SOL    HW2 3014  10.568   7.300   6.102
  373SOL     OW 3015  12.801   3.578   3.484
  373SOL    HW1 3016  12.849   3.548   3.407
  373SOL    HW2 3017  12.868   3.590   3.552
  374SOL     OW 3018   5.447   5.385   8.538
  374SOL    HW1 3019   5.499   5.422   8.609
  374SOL    HW2 3020   5.380   5.451   8.520
  375SOL     OW 3021   4.864  10.155  10.756
  375SOL    HW1 3022   4.794  10.198  10.706
  375SOL    HW2 3023   4.849  10.183  10.846
  376SOL     OW 3024   9.630   0.562   3.611
  376SOL    HW1 3025   9.685   0.596   3.540
  376SOL    HW2 3026   9.619   0.470   3.590
  377SOL     OW 3027  10.099   1.830   4.042
  377SOL    HW1 3028  10.152   1.778   3.983
  377SOL    HW2 3029  10.064   1.901   3.987
  378SOL     OW 3030   1.060  13.094   0.145
  378SOL    HW1 3031   0.999  13.166   0.158
  378SOL    HW2 3032   1.105  13.085   0.229
  379SOL     OW 3033   0.681   1.396   1.751
  379SOL    HW1 3034   0.692   1.327   1.686
  379SOL    HW2 3035   0.603   1.443   1.723
  380SOL     OW 3036   5.332   5.274   8.150
  380SOL    HW1 3037   5.275   5.217   8.098
  380SOL    HW2 3038   5.398   5.305   8.089
  381SOL     OW 3039   2.754   5.382  12.216
  381SOL    HW1 3040   2.674   5.401  12.167
  381SOL    HW2 3041   2.723   5.342  12.297
  382SOL     OW 3042   7.867   4.695  10.408
  382SOL    HW1 3043   7.782   4.693  10.454
  382SOL    HW2 3044   7.907   4.777  10.435
  383SOL     OW 3045  14.463   1.390   2.497
  383SOL    HW1 3046  14.445   1.432   2.581
  383SOL    HW2 3047  14.396   1.424   2.438
  384SOL     OW 3048  13.067   1.536   2.797
  384SOL    HW1 3049  13.059   1.522   2.702
  384SOL    HW2 3050  13.080   1.630   2.806
  385SOL     OW 3051   7.152  13.005   2.697
  385SOL    HW1 3052   7.237  12.978   2.661
  385SOL    HW2 3053   7.099  12.926   2.698
  386SOL     OW 3054   7.910   9.214   9.444
  386SOL    HW1 3055   7.842   9.228   9.378
  386SOL    HW2 3056   7.963   9.294   9.442
  387SOL     OW 3057  11.172   1.739   3.165
  387SOL    HW1 3058  11.121   1.818   3.150
  387SOL    HW2 3059  11.172   1.694   3.080
  388SOL     OW 3060  10.216   4.326  14.184
  388SOL    HW1 3061  10.162   4.386  14.133
  388SOL    HW2 3062  10.154   4.270  14.231
  389SOL     OW 3063  14.460   8.917   6.068
  389SOL    HW1 3064  14.486   8.848   6.007
  389SOL    HW2 3065  14.421   8.871   6.141
  390SOL     OW 3066   5.969   1.746  14.611
  390SOL    HW1 3067   5.909   1.699  14.554
  390SOL    HW2 3068   6.039   1.776  14.552
  391SOL     OW 3069   3.822   5.074  11.776
  391SOL    HW1 3070   3.768   5.031  11.710
  391SOL    HW2 3071   3.795   5.166  11.772
  392SOL     OW 3072   0.231   3.880   2.766
  392SOL    HW1 3073   0.143   3.845   2.758
  392SOL    HW2 3074   0.286   3.804   2.785
  393SOL     OW 3075  12.107   7.573  13.259
  393SOL    HW1 3076  12.016   7.599  13.251
  393SOL    HW2 3077  12.139   7.570  13.169
  394SOL     OW 3078  11.441   8.714   8.120
  394SOL    HW1 3079  11.526   8.697   8.080
  394SOL    HW2 3080  11.380   8.722   8.047
  395SOL     OW 3081   7.143   6.909  12.086
  395SOL    HW1 3082   7.086   6.910  12.163
  395SOL    HW2 3083   7.196   6.988  12.094
  396SOL     OW 3084   6.976  14.602   9.741
  396SOL    HW1 3085   7.029  14.588   9.663
  396SOL    HW2 3086   6.989  14.524   9.795
  397SOL     OW 3087   9.641   0.776   0.775
  397SOL    HW1 3088   9.652   0.691   0.818
  397SOL    HW2 3089   9.730   0.812   0.773
  398SOL     OW 3090  12.149  13.260   2.855
  398SOL    HW1 3091  12.194  13.178   2.835
  398SOL    HW2 3092  12.105  13.245   2.938
  399SOL     OW 3093   4.725   9.531   5.221
  399SOL    HW1 3094   4.772   9.614   5.217
  399SOL    HW2 3095   4.675   9.535   5.302
  400SOL     OW 3096  10.141  12.075   5.671
  400SOL    HW1 3097  10.131  12.047   5.580
  400SOL    HW2 3098  10.225  12.120   5.673
  401SOL     OW 3099   3.555   9.516   4.522
  401SOL    HW1 3100   3.609   9.438   4.516
  401SOL    HW2 3101   3.558   9.554   4.434
  402SOL     OW 3102  10.834  14.877  10.546
  402SOL    HW1 3103  10.808  14.863  10.637
  402SOL    HW2 3104  10.930   0.004  10.549
  403SOL     OW 3105   6.598   0.656  13.481
  403SOL    HW1 3106   6.592   0.669  13.386
  403SOL    HW2 3107   6.690   0.634  13.496
  404SOL     OW 3108   7.281   3.061   1.076
  404SOL    HW1 3109   7.197   3.102   1.100
  404SOL    HW2 3110   7.340   3.135   1.061
  405SOL     OW 3111  13.011   6.072   0.314
  405SOL    HW1 3112  13.092   6.028   0.288
  405SOL    HW2 3113  12.999   6.047   0.406
  406SOL     OW 3114  14.802   0.580   6.587
  406SOL    HW1 3115  14.761   0.504   6.545
  406SOL    HW2 3116  14.730   0.630   6.623
  407SOL     OW 3117  14.058   9.044   0.727
  407SOL    HW1 3118  14.036   9.122   0.677
  407SOL    HW2 3119  13.985   9.033   0.788
  408SOL     OW 3120   1.384   1.181  11.094
  408SOL    HW1 3121   1.332   1.101  11.090
  408SOL    HW2 3122   1.475   1.151  11.101
  409SOL     OW 3123   2.231   3.785  13.037
  409SOL    HW1 3124   2.157   3.806  12.980
  409SOL    HW2 3125   2.202   3.812  13.124
  410SOL     OW 3126   1.289  13.974   4.766
  410SOL    HW1 3127   1.291  13.933   4.853
  410SOL    HW2 3128   1.296  13.901   4.705
  411SOL     OW 3129   0.249   7.851   9.881
  411SOL    HW1 3130   0.305   7.839   9.957
  411SOL    HW2 3131   0.214   7.940   9.891
  412SOL     OW 3132  14.740   5.521   9.599
  412SOL    HW1 3133  14.689   5.518   9.680
  412SOL    HW2 3134  14.804   5.590   9.614
  413SOL     OW 3135   1.325   4.048  13.873
  413SOL    HW1 3136   1.246   4.102  13.866
  413SOL    HW2 3137   1.361   4.045  13.785
  414SOL     OW 3138   0.930   7.203  12.275
  414SOL    HW1 3139   0.900   7.254  12.200
  414SOL    HW2 3140   0.903   7.113  12.255
  415SOL     OW 3141   5.892  13.330   9.768
  415SOL    HW1 3142   5.836  13.253   9.762
  415SOL    HW2 3143   5.858  13.379   9.843
  416SOL     OW 3144   1.921   5.498  13.063
  416SOL    HW1 3145   1.907   5.405  13.049
  416SOL    HW2 3146   1.981   5.525  12.994
  417SOL     OW 3147  12.664   9.381   5.022
  417SOL    HW1 3148  12.581   9.364   4.976
  417SOL    HW2 3149  12.730   9.383   4.953
  418SOL     OW 3150   8.297   4.035   6.527
  418SOL    HW1 3151   8.384   4.071   6.510
  418SOL    HW2 3152   8.291   4.029   6.622
  419SOL     OW 3153   2.683  12.076   3.271
  419SOL    HW1 3154   2.602  12.063   3.321
  419SOL    HW2 3155   2.736  11.998   3.290
  420SOL     OW 3156  10.362   6.703   7.763
  420SOL    HW1 3157  10.435   6.693   7.824
  420SOL    HW2 3158  10.403   6.704   7.676
  421SOL     OW 3159   0.483  10.646   2.349
  421SOL    HW1 3160   0.574  10.670   2.362
  421SOL    HW2 3161   0.485  10.552   2.334
  422SOL     OW 3162   3.285   8.958   9.426
  422SOL    HW1 3163   3.339   8.930   9.352
  422SOL    HW2 3164   3.346   8.962   9.500
  423SOL     OW 3165   4.946   3.559  13.297
  423SOL    HW1 3166   4.994   3.588  13.220
  423SOL    HW2 3167   4.924   3.467  13.279
  424SOL     OW 3168  10.859  14.219   9.563
  424SOL    HW1 3169  10.876  14.156   9.633
  424SOL    HW2 3170  10.928  14.285   9.573
  425SOL     OW 3171  14.186   3.295  12.534
  425SOL    HW1 3172  14.165   3.215  12.582
  425SOL    HW2 3173  14.218   3.356  12.600
  426SOL     OW 3174   8.509  12.144   1.282
  426SOL    HW1 3175   8.569  12.071   1.297
  426SOL    HW2 3176   8.423  12.108   1.304
  427SOL     OW 3177  14.788   4.769  14.561
  427SOL    HW1 3178  14.760   4.853  14.596
  427SOL    HW2 3179  14.804   4.786  14.468
  428SOL     OW 3180   2.307  14.728   0.299
  428SOL    HW1 3181   2.333  14.677   0.222
  428SOL    HW2 3182   2.223  14.690   0.326
  429SOL     OW 3183  14.282  12.445   3.198
  429SOL    HW1 3184  14.214  12.420   3.260
  429SOL    HW2 3185  14.357  12.389   3.220
  430SOL     OW 3186   9.898   7.340   0.356
  430SOL    HW1 3187   9.964   7.327   0.289
  430SOL    HW2 3188   9.823   7.287   0.327
  431SOL     OW 3189   1.018   8.578   0.821
  431SOL    HW1 3190   0.944   8.636   0.806
  431SOL    HW2 3191   1.067   8.578   0.739
  432SOL     OW 3192   5.882   0.484   6.343
  432SOL    HW1 3193   5.967   0.442   6.330
  432SOL    HW2 3194   5.837   0.472   6.259
  433SOL     OW 3195   7.398   2.066   5.012
  433SOL    HW1 3196   7.432   2.006   5.078
  433SOL    HW2 3197   7.446   2.148   5.026
  434SOL     OW 3198   5.868  14.429   3.272
  434SOL    HW1 3199   5.826  14.479   3.342
  434SOL    HW2 3200   5.823  14.344   3.272
  435SOL     OW 3201   5.947   4.132   0.898
  435SOL    HW1 3202   6.033   4.119   0.938
  435SOL    HW2 3203   5.965   4.153   0.807
  436SOL     OW 3204   0.657   1.259   2.349
  436SOL    HW1 3205   0.668   1.334   2.292
  436SOL    HW2 3206   0.562   1.254   2.365
  437SOL     OW 3207   7.565   0.470  10.446
  437SOL    HW1 3208   7.506   0.499  10.516
  437SOL    HW2 3209   7.589   0.380  10.471
  438SOL     OW 3210   6.942   0.200   5.629
  438SOL    HW1 3211   6.880   0.144   5.676
  438SOL    HW2 3212   6.889   0.242   5.561
  439SOL     OW 3213   3.793   2.916   9.000
  439SOL    HW1 3214   3.842   2.891   8.921
  439SOL    HW2 3215   3.762   2.833   9.037
  440SOL     OW 3216  11.616   3.850   6.028
  440SOL    HW1 3217  11.524   3.871   6.016
  440SOL    HW2 3218  11.619   3.797   6.107
  441SOL     OW 3219  14.580   3.852   9.187
  441SOL    HW1 3220  14.484   3.857   9.192
  441SOL    HW2 3221  14.599   3.759   9.180
  442SOL     OW 3222  12.310   1.601   7.592
  442SOL    HW1 3223  12.284   1.512   7.614
  442SOL    HW2 3224  12.267   1.619   7.508
  443SOL     OW 3225  10.345   7.676   6.698
  443SOL    HW1 3226  10.350   7.584   6.727
  443SOL    HW2 3227  10.251   7.694   6.691
  444SOL     OW 3228  11.691   5.808   2.089
  444SOL    HW1 3229  11.771   5.762   2.117
  444SOL    HW2 3230  11.620   5.753   2.122
  445SOL     OW 3231   8.431   9.489   1.476
  445SOL    HW1 3232   8.389   9.538   1.405
  445SOL    HW2 3233   8.361   9.435   1.512
  446SOL     OW 3234  13.089   6.703  11.369
  446SOL    HW1 3235  13.045   6.787  11.356
  446SOL    HW2 3236  13.018   6.639  11.374
  447SOL     OW 3237   9.783   1.236   0.238
  447SOL    HW1 3238   9.840   1.167   0.270
  447SOL    HW2 3239   9.713   1.243   0.303
  448SOL     OW 3240   3.016   5.395   4.095
  448SOL    HW1 3241   3.102   5.353   4.094
  448SOL    HW2 3242   2.967   5.350   4.026
  449SOL     OW 3243   4.975   0.707  11.266
  449SOL    HW1 3244   4.903   0.691  11.206
  449SOL    HW2 3245   4.991   0.623  11.309
  450SOL     OW 3246   6.193  14.411   1.433
  450SOL    HW1 3247   6.288  14.404   1.425
  450SOL    HW2 3248   6.178  14.431   1.525
  451SOL     OW 3249   7.178  14.519  12.577
  451SOL    HW1 3250   7.214  14.431  12.564
  451SOL    HW2 3251   7.098  14.519  12.525
  452SOL     OW 3252  14.560   0.036  13.866
  452SOL    HW1 3253  14.608  14.842  13.909
  452SOL    HW2 3254  14.516   0.081  13.938
  453SOL     OW 3255  11.644  14.789   9.243
  453SOL    HW1 3256  11.575  14.855   9.246
  453SOL    HW2 3257  11.612  14.719   9.301
  454SOL     OW 3258   4.442   1.441  11.447
  454SOL    HW1 3259   4.392   1.452  11.528
  454SOL    HW2 3260   4.379   1.403  11.385
  455SOL     OW 3261   9.846   2.615  12.055
  455SOL    HW1 3262   9.767   2.563  12.047
  455SOL    HW2 3263   9.918   2.553  12.046
  456SOL     OW 3264   0.087  12.455   6.045
  456SOL    HW1 3265   0.044  12.540   6.060
  456SOL    HW2 3266   0.080  12.442   5.951
  457SOL     OW 3267   0.185   7.582   3.425
  457SOL    HW1 3268   0.167   7.582   3.519
  457SOL    HW2 3269   0.207   7.492   3.405
  458SOL     OW 3270  12.846   1.084   2.086
  458SOL    HW1 3271  12.766   1.077   2.138
  458SOL    HW2 3272  12.859   1.178   2.075
  459SOL     OW 3273  11.057   6.083   1.956
  459SOL    HW1 3274  10.995   6.010   1.960
  459SOL    HW2 3275  11.142   6.044   1.979
  460SOL     OW 3276   5.250   9.156   3.809
  460SOL    HW1 3277   5.162   9.120   3.801
  460SOL    HW2 3278   5.250   9.200   3.894
  461SOL     OW 3279  14.518  13.759   8.552
  461SOL    HW1 3280  14.564  13.829   8.599
  461SOL    HW2 3281  14.506  13.690   8.617
  462SOL     OW 3282   5.997   7.262  10.029
  462SOL    HW1 3283   6.022   7.323   9.960
  462SOL    HW2 3284   5.954   7.316  10.095
  463SOL     OW 3285   7.721   1.655   8.909
  463SOL    HW1 3286   7.689   1.738   8.944
  463SOL    HW2 3287   7.815   1.656   8.930
  464SOL     OW 3288  13.824   0.850   2.575
  464SOL    HW1 3289  13.765   0.819   2.506
  464SOL    HW2 3290  13.906   0.803   2.559
  465SOL     OW 3291   7.670   5.089  11.929
  465SOL    HW1 3292   7.642   4.998  11.923
  465SOL    HW2 3293   7.759   5.084  11.964
  466SOL     OW 3294   0.561   8.019  14.041
  466SOL    HW1 3295   0.531   7.947  13.987
  466SOL    HW2 3296   0.567   8.094  13.981
  467SOL     OW 3297   5.759   1.072  14.080
  467SOL    HW1 3298   5.745   1.139  14.147
  467SOL    HW2 3299   5.682   1.016  14.087
  468SOL     OW 3300   3.182   4.254   3.211
  468SOL    HW1 3301   3.214   4.195   3.279
  468SOL    HW2 3302   3.147   4.329   3.259
  469SOL     OW 3303   7.356  14.100   2.483
  469SOL    HW1 3304   7.338  14.059   2.399
  469SOL    HW2 3305   7.430  14.051   2.519
  470SOL     OW 3306   0.112   4.810   5.273
  470SOL    HW1 3307   0.120   4.903   5.253
  470SOL    HW2 3308   0.023   4.787   5.248
  471SOL     OW 3309   7.209   9.085  10.776
  471SOL    HW1 3310   7.126   9.118  10.741
  471SOL    HW2 3311   7.234   9.014  10.717
  472SOL     OW 3312   4.908  13.947  13.887
  472SOL    HW1 3313   4.820  13.979  13.867
  472SOL    HW2 3314   4.967  14.010  13.844
  473SOL     OW 3315   7.586   1.527   0.107
  473SOL    HW1 3316   7.537   1.596   0.151
  473SOL    HW2 3317   7.645   1.493   0.175
  474SOL     OW 3318   2.920  14.630   1.990
  474SOL    HW1 3319   2.934  14.539   1.966
  474SOL    HW2 3320   2.891  14.673   1.910
  475SOL     OW 3321   0.912  12.278   7.085
  475SOL    HW1 3322   0.895  12.228   7.005
  475SOL    HW2 3323   0.854  12.238   7.150
  476SOL     OW 3324  12.078   5.295   7.280
  476SOL    HW1 3325  12.075   5.325   7.371
  476SOL    HW2 3326  12.133   5.359   7.236
  477SOL     OW 3327  10.540   4.682  14.645
  477SOL    HW1 3328  10.501   4.699  14.559
  477SOL    HW2 3329  10.588   4.762  14.666
  478SOL     OW 3330   8.277   0.409   8.744
  478SOL    HW1 3331   8.327   0.490   8.755
  478SOL    HW2 3332   8.303   0.376   8.658
  479SOL     OW 3333   4.085   4.068  11.580
  479SOL    HW1 3334   4.135   3.995  11.616
  479SOL    HW2 3335   4.084   4.052  11.486
  480SOL     OW 3336  13.752   9.527   8.716
  480SOL    HW1 3337  13.720   9.533   8.806
  480SOL    HW2 3338  13.714   9.447   8.681
  481SOL     OW 3339  12.519  11.111   3.220
  481SOL    HW1 3340  12.573  11.034   3.201
  481SOL    HW2 3341  12.440  11.076   3.261
  482SOL     OW 3342   3.573  14.625   9.530
  482SOL    HW1 3343   3.528  14.650   9.611
  482SOL    HW2 3344   3.519  14.661   9.460
  483SOL     OW 3345   4.904   9.375   1.594
  483SOL    HW1 3346   4.838   9.441   1.578
  483SOL    HW2 3347   4.961   9.413   1.660
  484SOL     OW 3348   5.464   3.224  13.606
  484SOL    HW1 3349   5.535   3.250  13.548
  484SOL    HW2 3350   5.425   3.147  13.564
  485SOL     OW 3351  14.087   3.866   7.511
  485SOL    HW1 3352  14.164   3.821   7.545
  485SOL    HW2 3353  14.120   3.920   7.439
  486SOL     OW 3354   0.608   9.891  14.399
  486SOL    HW1 3355   0.650   9.844  14.327
  486SOL    HW2 3356   0.524   9.846  14.410
  487SOL     OW 3357   2.894  13.626  11.357
  487SOL    HW1 3358   2.878  13.720  11.356
  487SOL    HW2 3359   2.808  13.588  11.375
  488SOL     OW 3360   0.449  12.821   3.710
  488SOL    HW1 3361   0.397  12.886   3.662
  488SOL    HW2 3362   0.430  12.838   3.802
  489SOL     OW 3363  12.057   3.608  11.039
  489SOL    HW1 3364  12.097   3.598  10.952
  489SOL    HW2 3365  12.007   3.690  11.032
  490SOL     OW 3366   6.512   8.679   0.049
  490SOL    HW1 3367   6.525   8.700  14.834
  490SOL    HW2 3368   6.421   8.650   0.054
  491SOL     OW 3369   9.775   2.071   2.528
  491SOL    HW1 3370   9.720   2.051   2.452
  491SOL    HW2 3371   9.726   2.039   2.603
  492SOL     OW 3372   0.659   7.975   8.081
  492SOL    HW1 3373   0.583   7.957   8.026
  492SOL    HW2 3374   0.626   8.035   8.148
  493SOL     OW 3375   0.730  10.351  14.313
  493SOL    HW1 3376   0.672  10.315  14.246
  493SOL    HW2 3377   0.743  10.442  14.287
  494SOL     OW 3378   5.211  10.432   7.244
  494SOL    HW1 3379   5.158  10.500   7.203
  494SOL    HW2 3380   5.225  10.368   7.174
  495SOL     OW 3381  10.221  11.604   8.454
  495SOL    HW1 3382  10.206  11.604   8.549
  495SOL    HW2 3383  10.168  11.677   8.421
  496SOL     OW 3384   2.500   4.797   9.843
  496SOL    HW1 3385   2.524   4.882   9.880
  496SOL    HW2 3386   2.535   4.798   9.754
  497SOL     OW 3387   1.708  11.797   6.809
  497SOL    HW1 3388   1.711  11.723   6.869
  497SOL    HW2 3389   1.636  11.776   6.749
  498SOL     OW 3390  14.181   6.343  12.450
  498SOL    HW1 3391  14.208   6.310  12.364
  498SOL    HW2 3392  14.100   6.296  12.469
  499SOL     OW 3393  11.776  10.506   0.223
  499SOL    HW1 3394  11.684  10.533   0.231
  499SOL    HW2 3395  11.796  10.517   0.130
  500SOL     OW 3396  14.684   1.982   0.389
  500SOL    HW1 3397  14.690   1.966   0.295
  500SOL    HW2 3398  14.604   2.033   0.400
  501SOL     OW 3399   0.046   7.545   1.198
  501SOL    HW1 3400   0.027   7.480   1.129
  501SOL    HW2 3401   0.041   7.629   1.154
  502SOL     OW 3402   2.831   3.154   7.986
  502SOL    HW1 3403   2.846   3.138   7.893
  502SOL    HW2 3404   2.796   3.243   7.990
  503SOL     OW 3405   5.991   1.398  14.529
  503SOL    HW1 3406   5.940   1.436  14.458
  503SOL    HW2 3407   6.077   1.440  14.523
  504SOL     OW 3408   8.872  14.497  12.279
  504SOL    HW1 3409   8.934  14.526  12.212
  504SOL    HW2 3410   8.806  14.567  12.283
  505SOL     OW 3411  14.200   9.462   5.882
  505SOL    HW1 3412  14.153   9.384   5.912
  505SOL    HW2 3413  14.285   9.457   5.926
  506SOL     OW 3414   9.323  12.271  14.166
  506SOL    HW1 3415   9.248  12.262  14.107
  506SOL    HW2 3416   9.295  12.334  14.232
  507SOL     OW 3417  13.904   1.821   9.683
  507SOL    HW1 3418  13.819   1.792   9.650
  507SOL    HW2 3419  13.945   1.865   9.609
  508SOL     OW 3420   1.966   4.853  13.643
  508SOL    HW1 3421   1.966   4.770  13.692
  508SOL    HW2 3422   1.899   4.906  13.686
  509SOL     OW 3423  14.234   1.682  11.465
  509SOL    HW1 3424  14.283   1.642  11.393
  509SOL    HW2 3425  14.275   1.767  11.478
  510SOL     OW 3426  11.625  14.059   3.976
  510SOL    HW1 3427  11.660  14.002   4.044
  510SOL    HW2 3428  11.530  14.059   3.990
  511SOL     OW 3429   2.714  11.592  13.438
  511SOL    HW1 3430   2.634  11.637  13.409
  511SOL    HW2 3431   2.729  11.525  13.371
  512SOL     OW 3432  11.745  14.801   8.757
  512SOL    HW1 3433  11.753  14.706   8.754
  512SOL    HW2 3434  11.828  14.834   8.723
  513SOL     OW 3435   4.621   9.101  14.333
  513SOL    HW1 3436   4.543   9.149  14.305
  513SOL    HW2 3437   4.604   9.079  14.425
  514SOL     OW 3438   9.035  13.713  11.586
  514SOL    HW1 3439   9.048  13.643  11.650
  514SOL    HW2 3440   9.123  13.744  11.567
  515SOL     OW 3441   7.992   6.646   7.047
  515SOL    HW1 3442   8.024   6.734   7.028
  515SOL    HW2 3443   7.960   6.650   7.137
  516SOL     OW 3444   6.433   7.364   3.789
  516SOL    HW1 3445   6.466   7.292   3.842
  516SOL    HW2 3446   6.395   7.425   3.853
  517SOL     OW 3447   9.688   9.866   6.760
  517SOL    HW1 3448   9.604   9.853   6.804
  517SOL    HW2 3449   9.678   9.822   6.676
  518SOL     OW 3450   8.750   4.469  14.662
  518SOL    HW1 3451   8.656   4.481  14.650
  518SOL    HW2 3452   8.788   4.490  14.577
  519SOL     OW 3453   4.207  10.045   7.467
  519SOL    HW1 3454   4.135  10.102   7.494
  519SOL    HW2 3455   4.230   9.996   7.546
  520SOL     OW 3456   1.775  13.174   8.830
  520SOL    HW1 3457   1.709  13.183   8.898
  520SOL    HW2 3458   1.854  13.213   8.868
  521SOL     OW 3459   5.725   9.418  13.543
  521SOL    HW1 3460   5.801   9.474  13.528
  521SOL    HW2 3461   5.735   9.388  13.633
  522SOL     OW 3462   4.235  10.187   4.582
  522SOL    HW1 3463   4.287  10.139   4.646
  522SOL    HW2 3464   4.147  10.188   4.619
  523SOL     OW 3465  11.223   2.152  11.182
  523SOL    HW1 3466  11.202   2.111  11.266
  523SOL    HW2 3467  11.138   2.167  11.141
  524SOL     OW 3468   0.344   5.621   8.366
  524SOL    HW1 3469   0.282   5.586   8.430
  524SOL    HW2 3470   0.297   5.616   8.282
  525SOL     OW 3471   0.938   7.738   6.950
  525SOL    HW1 3472   0.959   7.743   6.857
  525SOL    HW2 3473   0.848   7.708   6.953
  526SOL     OW 3474   2.842   9.913   4.575
  526SOL    HW1 3475   2.834   9.826   4.538
  526SOL    HW2 3476   2.901   9.902   4.650
  527SOL     OW 3477  10.834  10.570  14.003
  527SOL    HW1 3478  10.747  10.611  14.001
  527SOL    HW2 3479  10.871  10.596  14.088
  528SOL     OW 3480   9.944   1.735  12.519
  528SOL    HW1 3481   9.882   1.808  12.520
  528SOL    HW2 3482   9.893   1.659  12.493
  529SOL     OW 3483  12.843   4.884   2.058
  529SOL    HW1 3484  12.849   4.900   2.153
  529SOL    HW2 3485  12.793   4.803   2.050
  530SOL     OW 3486   8.659   0.452  10.466
  530SOL    HW1 3487   8.649   0.390  10.395
  530SOL    HW2 3488   8.752   0.474  10.468
  531SOL     OW 3489   9.777   8.482   6.188
  531SOL    HW1 3490   9.744   8.572   6.200
  531SOL    HW2 3491   9.707   8.438   6.140
  532SOL     OW 3492   0.761  12.101  11.855
  532SOL    HW1 3493   0.721  12.015  11.861
  532SOL    HW2 3494   0.856  12.084  11.859
  533SOL     OW 3495  12.915   6.755  14.479
  533SOL    HW1 3496  12.845   6.821  14.484
  533SOL    HW2 3497  12.894   6.705  14.400
  534SOL     OW 3498  12.688  12.732   7.493
  534SOL    HW1 3499  12.763  12.791   7.491
  534SOL    HW2 3500  12.717  12.654   7.446
  535SOL     OW 3501  10.080   1.237   5.277
  535SOL    HW1 3502  10.089   1.278   5.192
  535SOL    HW2 3503  10.041   1.151   5.259
  536SOL     OW 3504   5.305  14.030  11.138
  536SOL    HW1 3505   5.380  14.088  11.154
  536SOL    HW2 3506   5.342  13.954  11.095
  537SOL     OW 3507   0.893   4.960   2.058
  537SOL    HW1 3508   0.886   5.055   2.068
  537SOL    HW2 3509   0.987   4.943   2.050
  538SOL     OW 3510   8.692   0.671  13.289
  538SOL    HW1 3511   8.669   0.745  13.345
  538SOL    HW2 3512   8.755   0.621  13.340
  539SOL     OW 3513  14.799  13.802   0.252
  539SOL    HW1 3514  14.711  13.827   0.226
  539SOL    HW2 3515  14.788  13.755   0.335
  540SOL     OW 3516   3.964   0.201  12.127
  540SOL    HW1 3517   3.898   0.160  12.183
  540SOL    HW2 3518   3.914   0.239  12.055
  541SOL     OW 3519  14.349   9.252   1.716
  541SOL    HW1 3520  14.376   9.335   1.754
  541SOL    HW2 3521  14.425   9.195   1.729
  542SOL     OW 3522  11.708  11.239   6.448
  542SOL    HW1 3523  11.727  11.177   6.378
  542SOL    HW2 3524  11.622  11.276   6.426
  543SOL     OW 3525   3.438   2.794   6.705
  543SOL    HW1 3526   3.392   2.781   6.623
  543SOL    HW2 3527   3.503   2.725   6.708
  544SOL     OW 3528   4.105   9.498   2.740
  544SOL    HW1 3529   4.011   9.510   2.728
  544SOL    HW2 3530   4.124   9.416   2.696
  545SOL     OW 3531  12.730   0.180   3.925
  545SOL    HW1 3532  12.690   0.136   3.850
  545SOL    HW2 3533  12.821   0.195   3.900
  546SOL     OW 3534   8.973  10.855   2.201
  546SOL    HW1 3535   8.903  10.919   2.206
  546SOL    HW2 3536   8.930  10.771   2.216
  547SOL     OW 3537   1.733   3.260   3.745
  547SOL    HW1 3538   1.728   3.350   3.777
  547SOL    HW2 3539   1.643   3.228   3.748
  548SOL     OW 3540  14.696   3.555   5.557
  548SOL    HW1 3541  14.603   3.574   5.570
  548SOL    HW2 3542  14.723   3.514   5.639
  549SOL     OW 3543   9.885   0.990  14.294
  549SOL    HW1 3544   9.938   1.055  14.340
  549SOL    HW2 3545   9.948   0.938  14.244
  550SOL     OW 3546  14.784   6.879  14.850
  550SOL    HW1 3547  14.760   6.802  14.798
  550SOL    HW2 3548  14.747   6.952  14.801
  551SOL     OW 3549   1.924   7.711   9.118
  551SOL    HW1 3550   1.895   7.645   9.181
  551SOL    HW2 3551   1.848   7.768   9.106
  552SOL     OW 3552   1.764   0.695  11.938
  552SOL    HW1 3553   1.759   0.706  11.843
  552SOL    HW2 3554   1.794   0.605  11.950
  553SOL     OW 3555  14.465   2.200  10.036
  553SOL    HW1 3556  14.375   2.187  10.066
  553SOL    HW2 3557  14.517   2.206  10.116
  554SOL     OW 3558   1.218  12.737   6.338
  554SOL    HW1 3559   1.153  12.808   6.339
  554SOL    HW2 3560   1.201  12.688   6.419
  555SOL     OW 3561   4.401   5.798  12.730
  555SOL    HW1 3562   4.495   5.803  12.712
  555SOL    HW2 3563   4.392   5.827  12.821
  556SOL     OW 3564   4.221   7.630   0.515
  556SOL    HW1 3565   4.255   7.670   0.435
  556SOL    HW2 3566   4.143   7.680   0.536
  557SOL     OW 3567   3.501   0.663  11.252
  557SOL    HW1 3568   3.589   0.690  11.278
  557SOL    HW2 3569   3.471   0.606  11.322
  558SOL     OW 3570   1.997   9.213   2.741
  558SOL    HW1 3571   1.932   9.282   2.753
  558SOL    HW2 3572   2.060   9.225   2.811
  559SOL     OW 3573   8.693   6.669  13.832
  559SOL    HW1 3574   8.636   6.745  13.815
  559SOL    HW2 3575   8.735   6.690  13.916
  560SOL     OW 3576  10.099   4.747   8.908
  560SOL    HW1 3577  10.006   4.727   8.914
  560SOL    HW2 3578  10.140   4.690   8.974
  561SOL     OW 3579   8.744   6.353  14.675
  561SOL    HW1 3580   8.652   6.376  14.687
  561SOL    HW2 3581   8.758   6.278  14.734
  562SOL     OW 3582   0.334   8.813   5.090
  562SOL    HW1 3583   0.402   8.875   5.062
  562SOL    HW2 3584   0.271   8.813   5.018
  563SOL     OW 3585   2.397   8.941   6.141
  563SOL    HW1 3586   2.345   8.861   6.135
  563SOL    HW2 3587   2.403   8.958   6.235
  564SOL     OW 3588   9.077  12.122   5.170
  564SOL    HW1 3589   9.146  12.144   5.233
  564SOL    HW2 3590   9.028  12.052   5.212
  565SOL     OW 3591   5.845   8.118   4.419
  565SOL    HW1 3592   5.826   8.180   4.490
  565SOL    HW2 3593   5.760   8.077   4.400
  566SOL     OW 3594   9.221   5.078  11.037
  566SOL    HW1 3595   9.156   5.049  10.972
  566SOL    HW2 3596   9.178   5.062  11.121
  567SOL     OW 3597   0.511  12.703  11.417
  567SOL    HW1 3598   0.473  12.651  11.489
  567SOL    HW2 3599   0.435  12.742  11.373
  568SOL     OW 3600  10.997   4.723   6.581
  568SOL    HW1 3601  10.920   4.727   6.638
  568SOL    HW2 3602  11.052   4.654   6.619
  569SOL     OW 3603   6.108  13.530   1.436
  569SOL    HW1 3604   6.051  13.515   1.360
  569SOL    HW2 3605   6.193  13.551   1.397
  570SOL     OW 3606  10.520   2.847  13.710
  570SOL    HW1 3607  10.498   2.842  13.803
  570SOL    HW2 3608  10.557   2.935  13.698
  571SOL     OW 3609   5.653   6.515   5.941
  571SOL    HW1 3610   5.696   6.501   6.025
  571SOL    HW2 3611   5.561   6.527   5.963
  572SOL     OW 3612   7.035   6.844   4.060
  572SOL    HW1 3613   6.941   6.829   4.051
  572SOL    HW2 3614   7.046   6.871   4.151
  573SOL     OW 3615   0.189   5.650   4.026
  573SOL    HW1 3616   0.267   5.699   4.052
  573SOL    HW2 3617   0.116   5.703   4.054
  574SOL     OW 3618  12.428   9.935   0.548
  574SOL    HW1 3619  12.446   9.929   0.455
  574SOL    HW2 3620  12.511   9.962   0.588
  575SOL     OW 3621   0.702   7.393   3.563
  575SOL    HW1 3622   0.704   7.313   3.510
  575SOL    HW2 3623   0.687   7.463   3.500
  576SOL     OW 3624  11.828  11.575  12.149
  576SOL    HW1 3625  11.822  11.504  12.214
  576SOL    HW2 3626  11.738  11.607  12.140
  577SOL     OW 3627  14.730   6.130  12.330
  577SOL    HW1 3628  14.771   6.059  12.379
  577SOL    HW2 3629  14.722   6.202  12.394
  578SOL     OW 3630   5.698   3.845   0.283
  578SOL    HW1 3631   5.679   3.936   0.305
  578SOL    HW2 3632   5.759   3.850   0.210
  579SOL     OW 3633  11.614   7.421  12.278
  579SOL    HW1 3634  11.560   7.487  12.236
  579SOL    HW2 3635  11.628   7.453  12.367
  580SOL     OW 3636   8.312   1.995   4.114
  580SOL    HW1 3637   8.405   1.982   4.099
  580SOL    HW2 3638   8.290   2.073   4.062
  581SOL     OW 3639   9.802   6.999   3.342
  581SOL    HW1 3640   9.768   6.924   3.391
  581SOL    HW2 3641   9.895   7.003   3.366
  582SOL     OW 3642   6.832  13.049   2.893
  582SOL    HW1 3643   6.874  13.006   2.967
  582SOL    HW2 3644   6.755  12.994   2.874
  583SOL     OW 3645   2.576   7.885   3.499
  583SOL    HW1 3646   2.505   7.822   3.484
  583SOL    HW2 3647   2.612   7.859   3.584
  584SOL     OW 3648   6.082   2.773  10.083
  584SOL    HW1 3649   6.147   2.714  10.119
  584SOL    HW2 3650   6.093   2.767   9.988
  585SOL     OW 3651  11.999   2.846   2.833
  585SOL    HW1 3652  11.905   2.846   2.814
  585SOL    HW2 3653  12.023   2.939   2.838
  586SOL     OW 3654   5.587   9.015  13.605
  586SOL    HW1 3655   5.631   8.934  13.581
  586SOL    HW2 3656   5.603   9.074  13.531
  587SOL     OW 3657   0.299   9.725   2.311
  587SOL    HW1 3658   0.258   9.641   2.332
  587SOL    HW2 3659   0.256   9.753   2.231
  588SOL     OW 3660   3.493  11.134   2.915
  588SOL    HW1 3661   3.452  11.115   2.999
  588SOL    HW2 3662   3.537  11.053   2.891
  589SOL     OW 3663   8.073  14.442  12.573
  589SOL    HW1 3664   8.110  14.527  12.595
  589SOL    HW2 3665   8.050  14.403  12.657
  590SOL     OW 3666  12.081   5.696   8.922
  590SOL    HW1 3667  12.126   5.777   8.901
  590SOL    HW2 3668  11.989   5.720   8.929
  591SOL     OW 3669  14.064   7.889   5.732
  591SOL    HW1 3670  14.139   7.919   5.680
  591SOL    HW2 3671  14.096   7.890   5.823
  592SOL     OW 3672  14.328   7.995  13.698
  592SOL    HW1 3673  14.384   8.061  13.658
  592SOL    HW2 3674  14.290   8.038  13.774
  593SOL     OW 3675   5.705   9.770  12.489
  593SOL    HW1 3676   5.761   9.830  12.442
  593SOL    HW2 3677   5.616   9.798  12.468
  594SOL     OW 3678   0.772  14.114   5.788
  594SOL    HW1 3679   0.690  14.112   5.738
  594SOL    HW2 3680   0.749  14.072   5.871
  595SOL     OW 3681  12.722   3.486   8.456
  595SOL    HW1 3682  12.648   3.484   8.395
  595SOL    HW2 3683  12.796   3.455   8.404
  596SOL     OW 3684  10.927  11.317   4.062
  596SOL    HW1 3685  10.921  11.342   3.970
  596SOL    HW2 3686  10.981  11.386   4.102
  597SOL     OW 3687   9.131   6.545  11.005
  597SOL    HW1 3688   9.162   6.503  11.085
  597SOL    HW2 3689   9.056   6.597  11.033
  598SOL     OW 3690   7.801  14.744   8.576
  598SOL    HW1 3691   7.886  14.721   8.539
  598SOL    HW2 3692   7.757  14.795   8.507
  599SOL     OW 3693   9.387   0.247   5.415
  599SOL    HW1 3694   9.452   0.250   5.485
  599SOL    HW2 3695   9.432   0.207   5.341
  600SOL     OW 3696   8.863  10.267   6.999
  600SOL    HW1 3697   8.886  10.359   6.986
  600SOL    HW2 3698   8.896  10.246   7.086
  601SOL     OW 3699   8.214  12.269  11.174
  601SOL    HW1 3700   8.175  12.244  11.257
  601SOL    HW2 3701   8.147  12.250  11.109
  602SOL     OW 3702  10.620   0.483   0.117
  602SOL    HW1 3703  10.656   0.503   0.203
  602SOL    HW2 3704  10.682   0.419   0.080
  603SOL     OW 3705  13.438   8.520   8.474
  603SOL    HW1 3706  13.446   8.565   8.558
  603SOL    HW2 3707  13.424   8.428   8.497
  604SOL     OW 3708  12.229   6.355   0.896
  604SOL    HW1 3709  12.152   6.412   0.898
  604SOL    HW2 3710  12.291   6.398   0.955
  605SOL     OW 3711   7.665   5.443  12.979
  605SOL    HW1 3712   7.730   5.394  12.928
  605SOL    HW2 3713   7.704   5.450  13.066
  606SOL     OW 3714  10.038   9.318   8.484
  606SOL    HW1 3715  10.131   9.298   8.484
  606SOL    HW2 3716  10.027   9.386   8.550
  607SOL     OW 3717   6.880  10.068  13.867
  607SOL    HW1 3718   6.931   9.991  13.892
  607SOL    HW2 3719   6.815  10.077  13.936
  608SOL     OW 3720   8.136  10.819   5.283
  608SOL    HW1 3721   8.061  10.831   5.225
  608SOL    HW2 3722   8.209  10.861   5.237
  609SOL     OW 3723   7.557   7.629   8.226
  609SOL    HW1 3724   7.499   7.561   8.263
  609SOL    HW2 3725   7.496   7.695   8.192
  610SOL     OW 3726   6.848   4.033  14.086
  610SOL    HW1 3727   6.812   4.121  14.094
  610SOL    HW2 3728   6.827   4.007  13.996
  611SOL     OW 3729   0.176  11.028   2.616
  611SOL    HW1 3730   0.270  11.019   2.625
  611SOL    HW2 3731   0.164  11.078   2.535
  612SOL     OW 3732   1.540   8.514  14.863
  612SOL    HW1 3733   1.595   8.458  14.810
  612SOL    HW2 3734   1.518   8.461   0.063
  613SOL     OW 3735   6.547  14.003   9.815
  613SOL    HW1 3736   6.466  13.998   9.765
  613SOL    HW2 3737   6.586  13.916   9.807
  614SOL     OW 3738   1.513   5.269   6.359
  614SOL    HW1 3739   1.482   5.356   6.386
  614SOL    HW2 3740   1.602   5.264   6.392
  615SOL     OW 3741   7.034   3.429  10.967
  615SOL    HW1 3742   7.084   3.351  10.943
  615SOL    HW2 3743   6.944   3.409  10.943
  616SOL     OW 3744   7.411   0.665  11.730
  616SOL    HW1 3745   7.433   0.739  11.674
  616SOL    HW2 3746   7.393   0.594  11.669
  617SOL     OW 3747   4.147   2.853   9.386
  617SOL    HW1 3748   4.182   2.875   9.300
  617SOL    HW2 3749   4.185   2.919   9.444
  618SOL     OW 3750   0.091   3.290   9.031
  618SOL    HW1 3751   0.164   3.259   9.084
  618SOL    HW2 3752   0.131   3.343   8.962
  619SOL     OW 3753   0.650  12.496   0.832
  619SOL    HW1 3754   0.628  12.589   0.829
  619SOL    HW2 3755   0.703  12.486   0.911
  620SOL     OW 3756   9.943   1.105  11.013
  620SOL    HW1 3757   9.857   1.065  10.997
  620SOL    HW2 3758   9.923   1.186  11.060
  621SOL     OW 3759   4.380   6.496   8.772
  621SOL    HW1 3760   4.388   6.410   8.730
  621SOL    HW2 3761   4.304   6.488   8.829
  622SOL     OW 3762  11.104  13.650  13.878
  622SOL    HW1 3763  11.176  13.632  13.939
  622SOL    HW2 3764  11.050  13.571  13.880
  623SOL     OW 3765   3.553   5.850  13.576
  623SOL    HW1 3766   3.578   5.930  13.530
  623SOL    HW2 3767   3.617   5.842  13.647
  624SOL     OW 3768   9.079   7.529   6.346
  624SOL    HW1 3769   9.010   7.491   6.290
  624SOL    HW2 3770   9.143   7.458   6.355
  625SOL     OW 3771  14.206   6.649   5.982
  625SOL    HW1 3772  14.188   6.672   6.073
  625SOL    HW2 3773  14.136   6.587   5.959
  626SOL     OW 3774   5.192   2.875   9.121
  626SOL    HW1 3775   5.197   2.781   9.100
  626SOL    HW2 3776   5.113   2.905   9.076
  627SOL     OW 3777  14.447   0.170  10.950
  627SOL    HW1 3778  14.354   0.150  10.950
  627SOL    HW2 3779  14.466   0.200  10.862
  628SOL     OW 3780   3.991   6.427   9.063
  628SOL    HW1 3781   3.942   6.394   9.138
  628SOL    HW2 3782   3.926   6.435   8.994
  629SOL     OW 3783  13.863   8.798   1.091
  629SOL    HW1 3784  13.845   8.760   1.177
  629SOL    HW2 3785  13.957   8.814   1.091
  630SOL     OW 3786  11.724  10.479  12.341
  630SOL    HW1 3787  11.681  10.398  12.317
  630SOL    HW2 3788  11.656  10.546  12.334
  631SOL     OW 3789   2.355  11.298   1.587
  631SOL    HW1 3790   2.297  11.366   1.619
  631SOL    HW2 3791   2.443  11.336   1.592
  632SOL     OW 3792  13.787   7.921   5.995
  632SOL    HW1 3793  13.715   7.880   6.042
  632SOL    HW2 3794  13.747   7.951   5.913
  633SOL     OW 3795   4.592   1.980  11.475
  633SOL    HW1 3796   4.641   2.008  11.552
  633SOL    HW2 3797   4.607   1.886  11.469
  634SOL     OW 3798   7.193   9.501  14.278
  634SOL    HW1 3799   7.236   9.415  14.279
  634SOL    HW2 3800   7.208   9.534  14.190
  635SOL     OW 3801  13.656   0.892   2.770
  635SOL    HW1 3802  13.689   0.974   2.807
  635SOL    HW2 3803  13.721   0.868   2.704
  636SOL     OW 3804   3.186   7.593  12.793
  636SOL    HW1 3805   3.197   7.568  12.701
  636SOL    HW2 3806   3.174   7.511  12.839
  637SOL     OW 3807  10.417   6.862   8.877
  637SOL    HW1 3808  10.460   6.806   8.812
  637SOL    HW2 3809  10.488   6.894   8.932
  638SOL     OW 3810   1.043   1.874   0.994
  638SOL    HW1 3811   1.062   1.792   1.040
  638SOL    HW2 3812   0.948   1.884   1.000
  639SOL     OW 3813   6.132   5.006   8.528
  639SOL    HW1 3814   6.113   4.976   8.439
  639SOL    HW2 3815   6.194   5.078   8.516
  640SOL     OW 3816   8.632   6.942  10.555
  640SOL    HW1 3817   8.620   6.882  10.629
  640SOL    HW2 3818   8.631   7.029  10.596
  641SOL     OW 3819   9.064  10.494   0.707
  641SOL    HW1 3820   9.038  10.586   0.716
  641SOL    HW2 3821   9.139  10.485   0.766
  642SOL     OW 3822  13.000   7.048   4.382
  642SOL    HW1 3823  13.034   7.078   4.466
  642SOL    HW2 3824  13.077   7.030   4.329
  643SOL     OW 3825   7.180  12.948   7.024
  643SOL    HW1 3826   7.192  13.041   7.007
  643SOL    HW2 3827   7.101  12.943   7.079
  644SOL     OW 3828   1.501   6.451   6.663
  644SOL    HW1 3829   1.494   6.363   6.626
  644SOL    HW2 3830   1.410   6.480   6.674
  645SOL     OW 3831   6.136   3.211  12.999
  645SOL    HW1 3832   6.193   3.147  12.956
  645SOL    HW2 3833   6.099   3.262  12.927
  646SOL     OW 3834   8.186   4.065  10.905
  646SOL    HW1 3835   8.111   4.092  10.959
  646SOL    HW2 3836   8.262   4.106  10.946
  647SOL     OW 3837   6.774  10.817   3.235
  647SOL    HW1 3838   6.813  10.901   3.212
  647SOL    HW2 3839   6.704  10.804   3.171
  648SOL     OW 3840   4.033   6.554  11.756
  648SOL    HW1 3841   3.946   6.578  11.724
  648SOL    HW2 3842   4.043   6.462  11.731
  649SOL     OW 3843   8.626   2.217  13.960
  649SOL    HW1 3844   8.670   2.228  14.044
  649SOL    HW2 3845   8.696   2.188  13.901
  650SOL     OW 3846   4.869  14.367   2.794
  650SOL    HW1 3847   4.815  14.433   2.752
  650SOL    HW2 3848   4.882  14.300   2.728
  651SOL     OW 3849   8.774  10.843   7.746
  651SOL    HW1 3850   8.812  10.914   7.797
  651SOL    HW2 3851   8.728  10.888   7.675
  652SOL     OW 3852   2.127  12.227   2.077
  652SOL    HW1 3853   2.185  12.211   2.151
  652SOL    HW2 3854   2.042  12.247   2.116
  653SOL     OW 3855   2.890   0.712   5.211
  653SOL    HW1 3856   2.874   0.756   5.295
  653SOL    HW2 3857   2.936   0.631   5.235
  654SOL     OW 3858   8.323   9.621  12.014
  654SOL    HW1 3859   8.397   9.594  12.070
  654SOL    HW2 3860   8.314   9.549  11.951
  655SOL     OW 3861  12.164   3.277   8.268
  655SOL    HW1 3862  12.084   3.230   8.241
  655SOL    HW2 3863  12.217   3.210   8.311
  656SOL     OW 3864   0.718   2.040  11.659
  656SOL    HW1 3865   0.778   2.018  11.588
  656SOL    HW2 3866   0.643   1.981  11.645
  657SOL     OW 3867  10.192   4.416   9.804
  657SOL    HW1 3868  10.199   4.413   9.899
  657SOL    HW2 3869  10.106   4.379   9.784
  658SOL     OW 3870   3.766   6.009  11.184
  658SOL    HW1 3871   3.726   6.000  11.271
  658SOL    HW2 3872   3.794   5.920  11.162
  659SOL     OW 3873   9.929   2.187   3.001
  659SOL    HW1 3874  10.005   2.173   3.057
  659SOL    HW2 3875   9.889   2.100   2.993
  660SOL     OW 3876   2.829   7.831  12.459
  660SOL    HW1 3877   2.747   7.803  12.499
  660SOL    HW2 3878   2.848   7.915  12.502
  661SOL     OW 3879  10.516   2.046  13.946
  661SOL    HW1 3880  10.465   1.977  13.904
  661SOL    HW2 3881  10.591   2.059  13.888
  662SOL     OW 3882  13.600   2.172   0.906
  662SOL    HW1 3883  13.598   2.244   0.969
  662SOL    HW2 3884  13.532   2.112   0.937
  663SOL     OW 3885   0.847   6.641   8.954
  663SOL    HW1 3886   0.907   6.588   9.007
  663SOL    HW2 3887   0.867   6.617   8.864
  664SOL     OW 3888  10.387   5.788  12.611
  664SOL    HW1 3889  10.379   5.780  12.706
  664SOL    HW2 3890  10.420   5.877  12.598
  665SOL     OW 3891   9.828   4.495  12.291
  665SOL    HW1 3892   9.736   4.495  12.264
  665SOL    HW2 3893   9.877   4.489  12.209
  666SOL     OW 3894  13.647   4.674  12.111
  666SOL    HW1 3895  13.574   4.688  12.171
  666SOL    HW2 3896  13.636   4.584  12.080
  667SOL     OW 3897   1.687   0.174  11.569
  667SOL    HW1 3898   1.727   0.087  11.570
  667SOL    HW2 3899   1.594   0.158  11.584
  668SOL     OW 3900  11.149  10.438   0.872
  668SOL    HW1 3901  11.079  10.489   0.913
  668SOL    HW2 3902  11.104  10.360   0.838
  669SOL     OW 3903   9.911   4.457  14.424
  669SOL    HW1 3904   9.818   4.457  14.400
  669SOL    HW2 3905   9.939   4.366  14.410
  670SOL     OW 3906   0.849   8.546   3.163
  670SOL    HW1 3907   0.872   8.493   3.239
  670SOL    HW2 3908   0.879   8.496   3.088
  671SOL     OW 3909   6.514   0.466   8.443
  671SOL    HW1 3910   6.487   0.537   8.501
  671SOL    HW2 3911   6.524   0.507   8.358
  672SOL     OW 3912   6.551  12.909  14.842
  672SOL    HW1 3913   6.614  12.837  14.832
  672SOL    HW2 3914   6.581  12.956   0.042
  673SOL     OW 3915   3.193  10.987  10.192
  673SOL    HW1 3916   3.263  11.016  10.132
  673SOL    HW2 3917   3.166  10.902  10.158
  674SOL     OW 3918  12.402   6.560  11.683
  674SOL    HW1 3919  12.433   6.595  11.599
  674SOL    HW2 3920  12.390   6.466  11.667
  675SOL     OW 3921  13.193   6.668  10.797
  675SOL    HW1 3922  13.210   6.578  10.768
  675SOL    HW2 3923  13.185   6.661  10.892
  676SOL     OW 3924   4.550   3.300  10.802
  676SOL    HW1 3925   4.644   3.289  10.786
  676SOL    HW2 3926   4.522   3.216  10.839
  677SOL     OW 3927   4.105   2.724  12.349
  677SOL    HW1 3928   4.153   2.653  12.392
  677SOL    HW2 3929   4.061   2.681  12.275
  678SOL     OW 3930   9.767   1.134   0.840
  678SOL    HW1 3931   9.768   1.212   0.786
  678SOL    HW2 3932   9.675   1.126   0.868
  679SOL     OW 3933  11.501   0.323   6.893
  679SOL    HW1 3934  11.534   0.233   6.890
  679SOL    HW2 3935  11.490   0.347   6.801
  680SOL     OW 3936   7.311   7.974   8.728
  680SOL    HW1 3937   7.361   8.051   8.700
  680SOL    HW2 3938   7.348   7.902   8.677
  681SOL     OW 3939   8.746  11.252  11.511
  681SOL    HW1 3940   8.695  11.324  11.475
  681SOL    HW2 3941   8.682  11.197  11.555
  682SOL     OW 3942   5.895   5.383  11.671
  682SOL    HW1 3943   5.860   5.324  11.604
  682SOL    HW2 3944   5.981   5.347  11.692
  683SOL     OW 3945   6.369  13.851  13.793
  683SOL    HW1 3946   6.422  13.772  13.787
  683SOL    HW2 3947   6.420  13.918  13.747
  684SOL     OW 3948  11.934  10.141   2.858
  684SOL    HW1 3949  11.894  10.081   2.921
  684SOL    HW2 3950  12.015  10.170   2.901
  685SOL     OW 3951  10.034  10.962   5.949
  685SOL    HW1 3952  10.098  10.991   6.013
  685SOL    HW2 3953   9.966  10.918   6.001
  686SOL     OW 3954   8.020  12.635  13.749
  686SOL    HW1 3955   8.038  12.542  13.736
  686SOL    HW2 3956   8.104  12.671  13.780
  687SOL     OW 3957   8.248  12.001  12.237
  687SOL    HW1 3958   8.208  11.994  12.150
  687SOL    HW2 3959   8.314  11.931  12.238
  688SOL     OW 3960   4.882   2.424   6.353
  688SOL    HW1 3961   4.939   2.426   6.276
  688SOL    HW2 3962   4.942   2.412   6.427
  689SOL     OW 3963   0.489   8.152   7.129
  689SOL    HW1 3964   0.449   8.205   7.060
  689SOL    HW2 3965   0.546   8.092   7.082
  690SOL     OW 3966   8.173  10.408   1.526
  690SOL    HW1 3967   8.098  10.424   1.583
  690SOL    HW2 3968   8.137  10.360   1.452
  691SOL     OW 3969   5.434   2.816   9.660
  691SOL    HW1 3970   5.349   2.849   9.688
  691SOL    HW2 3971   5.438   2.836   9.567
  692SOL     OW 3972   2.717   0.206   1.648
  692SOL    HW1 3973   2.647   0.171   1.593
  692SOL    HW2 3974   2.711   0.301   1.639
  693SOL     OW 3975   1.175  12.971   8.931
  693SOL    HW1 3976   1.100  13.010   8.976
  693SOL    HW2 3977   1.214  13.044   8.882
  694SOL     OW 3978   8.060   6.135  14.260
  694SOL    HW1 3979   8.045   6.228  14.241
  694SOL    HW2 3980   8.153   6.129  14.279
  695SOL     OW 3981   1.341  10.626   1.163
  695SOL    HW1 3982   1.353  10.620   1.258
  695SOL    HW2 3983   1.370  10.541   1.130
  696SOL     OW 3984   3.634  13.651   8.680
  696SOL    HW1 3985   3.710  13.601   8.651
  696SOL    HW2 3986   3.567  13.586   8.699
  697SOL     OW 3987   4.358  10.515  12.020
  697SOL    HW1 3988   4.268  10.503  11.988
  697SOL    HW2 3989   4.376  10.436  12.071
  698SOL     OW 3990   0.771   5.084   8.788
  698SOL    HW1 3991   0.716   5.116   8.716
  698SOL    HW2 3992   0.710   5.038   8.845
  699SOL     OW 3993  11.557   9.868  10.946
  699SOL    HW1 3994  11.582   9.945  10.896
  699SOL    HW2 3995  11.541   9.901  11.035
  700SOL     OW 3996   8.180   9.441  10.429
  700SOL    HW1 3997   8.202   9.463  10.519
  700SOL    HW2 3998   8.198   9.347  10.422
  701SOL     OW 3999   1.442   4.582   1.608
  701SOL    HW1 4000   1.368   4.559   1.664
  701SOL    HW2 4001   1.447   4.510   1.545
  702SOL     OW 4002   8.116  12.682   5.474
  702SOL    HW1 4003   8.139  12.617   5.541
  702SOL    HW2 4004   8.038  12.725   5.508
  703SOL     OW 4005  11.675  13.101   1.869
  703SOL    HW1 4006  11.665  13.075   1.777
  703SOL    HW2 4007  11.588  13.087   1.907
  704SOL     OW 4008  14.055   3.353   5.417
  704SOL    HW1 4009  14.135   3.391   5.380
  704SOL    HW2 4010  14.087   3.293   5.484
  705SOL     OW 4011  10.809   3.028  14.037
  705SOL    HW1 4012  10.846   3.094  13.978
  705SOL    HW2 4013  10.881   2.968  14.055
  706SOL     OW 4014   3.910   6.794   3.095
  706SOL    HW1 4015   3.930   6.723   3.033
  706SOL    HW2 4016   3.856   6.855   3.044
  707SOL     OW 4017   1.431   7.947   4.621
  707SOL    HW1 4018   1.494   7.895   4.571
  707SOL    HW2 4019   1.368   7.883   4.655
  708SOL     OW 4020  14.587   7.684  14.023
  708SOL    HW1 4021  14.632   7.679  14.108
  708SOL    HW2 4022  14.640   7.630  13.964
  709SOL     OW 4023  12.944   1.922   1.444
  709SOL    HW1 4024  12.872   1.951   1.500
  709SOL    HW2 4025  12.912   1.936   1.355
  710SOL     OW 4026   0.080   8.048   0.055
  710SOL    HW1 4027   0.017   8.000   0.002
  710SOL    HW2 4028   0.071   8.011   0.143
  711SOL     OW 4029   1.500  11.636  11.063
  711SOL    HW1 4030   1.497  11.711  11.003
  711SOL    HW2 4031   1.411  11.632  11.100
  712SOL     OW 4032   6.512   6.423  13.791
  712SOL    HW1 4033   6.594   6.465  13.817
  712SOL    HW2 4034   6.532   6.329  13.792
  713SOL     OW 4035  14.391  13.204   2.403
  713SOL    HW1 4036  14.382  13.276   2.466
  713SOL    HW2 4037  14.358  13.127   2.449
  714SOL     OW 4038   7.278   6.124   0.393
  714SOL    HW1 4039   7.243   6.208   0.363
  714SOL    HW2 4040   7.314   6.142   0.479
  715SOL     OW 4041   2.435   6.633  14.781
  715SOL    HW1 4042   2.471   6.612  14.867
  715SOL    HW2 4043   2.340   6.632  14.793
  716SOL     OW 4044   9.958   0.226  11.275
  716SOL    HW1 4045  10.018   0.198  11.206
  716SOL    HW2 4046   9.884   0.264  11.227
  717SOL     OW 4047   3.520  10.269   8.449
  717SOL    HW1 4048   3.551  10.216   8.523
  717SOL    HW2 4049   3.453  10.215   8.408
  718SOL     OW 4050  14.759   9.545   2.798
  718SOL    HW1 4051  14.836   9.488   2.794
  718SOL    HW2 4052  14.734   9.557   2.707
  719SOL     OW 4053   7.588   4.369   4.707
  719SOL    HW1 4054   7.610   4.445   4.653
  719SOL    HW2 4055   7.672   4.326   4.724
  720SOL     OW 4056  11.584   1.499   6.617
  720SOL    HW1 4057  11.645   1.561   6.576
  720SOL    HW2 4058  11.585   1.523   6.710
  721SOL     OW 4059  10.066   5.315   5.554
  721SOL    HW1 4060  10.035   5.263   5.628
  721SOL    HW2 4061  10.034   5.403   5.571
  722SOL     OW 4062   5.573  11.218   8.822
  722SOL    HW1 4063   5.655  11.172   8.840
  722SOL    HW2 4064   5.505  11.151   8.824
  723SOL     OW 4065   2.316   8.623   5.158
  723SOL    HW1 4066   2.280   8.686   5.222
  723SOL    HW2 4067   2.404   8.657   5.139
  724SOL     OW 4068  11.755   1.099  11.414
  724SOL    HW1 4069  11.780   1.117  11.504
  724SOL    HW2 4070  11.836   1.070  11.372
  725SOL     OW 4071   4.327   5.613   6.181
  725SOL    HW1 4072   4.321   5.569   6.266
  725SOL    HW2 4073   4.408   5.663   6.185
  726SOL     OW 4074   9.028  11.697  14.120
  726SOL    HW1 4075   9.085  11.710  14.196
  726SOL    HW2 4076   8.940  11.694  14.157
  727SOL     OW 4077   3.575  11.761  11.554
  727SOL    HW1 4078   3.607  11.706  11.625
  727SOL    HW2 4079   3.539  11.700  11.490
  728SOL     OW 4080  13.665   5.445   5.968
  728SOL    HW1 4081  13.625   5.381   5.909
  728SOL    HW2 4082  13.717   5.501   5.910
  729SOL     OW 4083   0.422   5.372   4.129
  729SOL    HW1 4084   0.371   5.367   4.048
  729SOL    HW2 4085   0.365   5.337   4.196
  730SOL     OW 4086  10.644   6.829   0.476
  730SOL    HW1 4087  10.691   6.898   0.429
  730SOL    HW2 4088  10.667   6.842   0.568
  731SOL     OW 4089   3.339   2.940   0.404
  731SOL    HW1 4090   3.280   2.991   0.460
  731SOL    HW2 4091   3.284   2.871   0.367
  732SOL     OW 4092   7.401   0.254   0.649
  732SOL    HW1 4093   7.459   0.306   0.704
  732SOL    HW2 4094   7.313   0.290   0.664
  733SOL     OW 4095  10.133  14.210   0.158
  733SOL    HW1 4096  10.177  14.125   0.151
  733SOL    HW2 4097  10.198  14.274   0.130
  734SOL     OW 4098   7.886   2.614   7.237
  734SOL    HW1 4099   7.927   2.571   7.162
  734SOL    HW2 4100   7.815   2.554   7.263
  735SOL     OW 4101   5.820   6.506   5.346
  735SOL    HW1 4102   5.825   6.436   5.280
  735SOL    HW2 4103   5.875   6.475   5.418
  736SOL     OW 4104   1.980   7.536   8.134
  736SOL    HW1 4105   2.062   7.563   8.175
  736SOL    HW2 4106   1.960   7.605   8.071
  737SOL     OW 4107   6.541   2.611   8.777
  737SOL    HW1 4108   6.536   2.684   8.839
  737SOL    HW2 4109   6.460   2.617   8.727
  738SOL     OW 4110   3.319  10.440  10.014
  738SOL    HW1 4111   3.258  10.424  10.086
  738SOL    HW2 4112   3.325  10.536  10.008
  739SOL     OW 4113   9.731   4.936  13.230
  739SOL    HW1 4114   9.768   4.856  13.193
  739SOL    HW2 4115   9.641   4.914  13.252
  740SOL     OW 4116  13.797  13.284  11.504
  740SOL    HW1 4117  13.822  13.195  11.477
  740SOL    HW2 4118  13.757  13.322  11.426
  741SOL     OW 4119  12.504  14.802  13.851
  741SOL    HW1 4120  12.600  14.804  13.842
  741SOL    HW2 4121  12.472  14.808  13.761
  742SOL     OW 4122   7.563   8.597   5.097
  742SOL    HW1 4123   7.628   8.533   5.124
  742SOL    HW2 4124   7.507   8.549   5.036
  743SOL     OW 4125   4.587   2.003   4.060
  743SOL    HW1 4126   4.541   1.922   4.038
  743SOL    HW2 4127   4.532   2.045   4.127
  744SOL     OW 4128  10.492   3.029  13.158
  744SOL    HW1 4129  10.569   3.055  13.108
  744SOL    HW2 4130  10.419   3.040  13.097
  745SOL     OW 4131  14.832  12.078  11.932
  745SOL    HW1 4132  14.757  12.087  11.992
  745SOL    HW2 4133   0.031  12.075  11.990
  746SOL     OW 4134   9.814  12.360  12.663
  746SOL    HW1 4135   9.856  12.439  12.629
  746SOL    HW2 4136   9.810  12.301  12.588
  747SOL     OW 4137  10.920  13.660  10.242
  747SOL    HW1 4138  10.930  13.593  10.309
  747SOL    HW2 4139  10.931  13.614  10.159
  748SOL     OW 4140   6.973  13.565  10.558
  748SOL    HW1 4141   7.022  13.615  10.493
  748SOL    HW2 4142   6.973  13.621  10.636
  749SOL     OW 4143   6.233  12.001   4.932
  749SOL    HW1 4144   6.221  12.039   5.019
  749SOL    HW2 4145   6.325  11.977   4.929
  750SOL     OW 4146   4.618   6.998   4.515
  750SOL    HW1 4147   4.630   7.046   4.596
  750SOL    HW2 4148   4.580   7.061   4.454
  751SOL     OW 4149  11.658   0.981   6.054
  751SOL    HW1 4150  11.599   0.955   5.983
  751SOL    HW2 4151  11.688   1.068   6.030
  752SOL     OW 4152   9.915   5.881   6.878
  752SOL    HW1 4153   9.823   5.879   6.905
  752SOL    HW2 4154   9.913   5.862   6.784
  753SOL     OW 4155   3.193   9.328  11.825
  753SOL    HW1 4156   3.245   9.395  11.868
  753SOL    HW2 4157   3.158   9.371  11.747
  754SOL     OW 4158  12.031   6.168   4.087
  754SOL    HW1 4159  12.083   6.141   4.012
  754SOL    HW2 4160  11.950   6.118   4.080
  755SOL     OW 4161  11.837  14.178   8.054
  755SOL    HW1 4162  11.754  14.222   8.037
  755SOL    HW2 4163  11.902  14.249   8.052
  756SOL     OW 4164   1.550   1.582   5.757
  756SOL    HW1 4165   1.641   1.571   5.785
  756SOL    HW2 4166   1.509   1.635   5.825
  757SOL     OW 4167   1.200  10.641   9.684
  757SOL    HW1 4168   1.236  10.616   9.599
  757SOL    HW2 4169   1.220  10.735   9.692
  758SOL     OW 4170   5.201   8.120   1.451
  758SOL    HW1 4171   5.128   8.100   1.392
  758SOL    HW2 4172   5.240   8.034   1.471
  759SOL     OW 4173   4.274   7.275   0.213
  759SOL    HW1 4174   4.227   7.309   0.289
  759SOL    HW2 4175   4.290   7.183   0.234
  760SOL     OW 4176  10.432   6.445   5.812
  760SOL    HW1 4177  10.440   6.350   5.823
  760SOL    HW2 4178  10.521   6.478   5.828
  761SOL     OW 4179   4.315   5.104   3.268
  761SOL    HW1 4180   4.287   5.142   3.351
  761SOL    HW2 4181   4.347   5.017   3.291
  762SOL     OW 4182   3.491   0.505  13.840
  762SOL    HW1 4183   3.461   0.591  13.810
  762SOL    HW2 4184   3.422   0.474  13.899
  763SOL     OW 4185   0.856  10.714   6.773
  763SOL    HW1 4186   0.803  10.764   6.711
  763SOL    HW2 4187   0.805  10.635   6.790
  764SOL     OW 4188   9.319   8.142   7.891
  764SOL    HW1 4189   9.293   8.205   7.958
  764SOL    HW2 4190   9.358   8.069   7.940
  765SOL     OW 4191  12.689   3.366  12.168
  765SOL    HW1 4192  12.658   3.352  12.258
  765SOL    HW2 4193  12.770   3.315  12.163
  766SOL     OW 4194   4.223  10.855   9.831
  766SOL    HW1 4195   4.130  10.875   9.827
  766SOL    HW2 4196   4.236  10.784   9.768
  767SOL     OW 4197   4.904   3.988   2.257
  767SOL    HW1 4198   4.877   4.014   2.345
  767SOL    HW2 4199   4.938   3.899   2.267
  768SOL     OW 4200   8.965   9.313  11.714
  768SOL    HW1 4201   9.029   9.373  11.752
  768SOL    HW2 4202   8.885   9.327  11.766
  769SOL     OW 4203   4.311   4.365   0.942
  769SOL    HW1 4204   4.344   4.297   1.000
  769SOL    HW2 4205   4.390   4.408   0.908
  770SOL     OW 4206  13.195   3.733   5.712
  770SOL    HW1 4207  13.251   3.671   5.759
  770SOL    HW2 4208  13.106   3.707   5.736
  771SOL     OW 4209   0.721   5.253   4.128
  771SOL    HW1 4210   0.802   5.223   4.087
  771SOL    HW2 4211   0.742   5.338   4.164
  772SOL     OW 4212  11.439  12.158   2.452
  772SOL    HW1 4213  11.507  12.095   2.474
  772SOL    HW2 4214  11.486  12.241   2.441
  773SOL     OW 4215  13.298  11.814  12.579
  773SOL    HW1 4216  13.385  11.783  12.604
  773SOL    HW2 4217  13.251  11.822  12.662
  774SOL     OW 4218   9.820   3.910   0.117
  774SOL    HW1 4219   9.806   3.929   0.210
  774SOL    HW2 4220   9.888   3.843   0.116
  775SOL     OW 4221   6.717   7.801   7.259
  775SOL    HW1 4222   6.805   7.828   7.286
  775SOL    HW2 4223   6.725   7.782   7.166
  776SOL     OW 4224  10.773   6.259  12.544
  776SOL    HW1 4225  10.828   6.190  12.508
  776SOL    HW2 4226  10.821   6.293  12.619
  777SOL     OW 4227   4.912   9.388   2.712
  777SOL    HW1 4228   4.964   9.314   2.683
  777SOL    HW2 4229   4.964   9.428   2.782
  778SOL     OW 4230   2.048   0.644   7.146
  778SOL    HW1 4231   2.139   0.661   7.121
  778SOL    HW2 4232   2.009   0.601   7.070
  779SOL     OW 4233  10.246  13.847  10.417
  779SOL    HW1 4234  10.290  13.906  10.479
  779SOL    HW2 4235  10.316  13.789  10.387
  780SOL     OW 4236   4.323   0.256  14.869
  780SOL    HW1 4237   4.232   0.264   0.019
  780SOL    HW2 4238   4.319   0.242  14.775
  781SOL     OW 4239   6.342   2.128   4.805
  781SOL    HW1 4240   6.318   2.098   4.893
  781SOL    HW2 4241   6.314   2.220   4.803
  782SOL     OW 4242   3.195   0.124  10.381
  782SOL    HW1 4243   3.204   0.219  10.383
  782SOL    HW2 4244   3.206   0.096  10.472
  783SOL     OW 4245   8.714   8.046   8.687
  783SOL    HW1 4246   8.691   7.985   8.617
  783SOL    HW2 4247   8.808   8.060   8.676
  784SOL     OW 4248   3.252   2.684  12.029
  784SOL    HW1 4249   3.306   2.756  11.997
  784SOL    HW2 4250   3.278   2.673  12.121
  785SOL     OW 4251  12.406   8.116   8.262
  785SOL    HW1 4252  12.488   8.141   8.220
  785SOL    HW2 4253  12.386   8.188   8.322
  786SOL     OW 4254   8.492   3.566   7.114
  786SOL    HW1 4255   8.563   3.569   7.051
  786SOL    HW2 4256   8.425   3.512   7.072
  787SOL     OW 4257   1.796   3.388  11.133
  787SOL    HW1 4258   1.826   3.426  11.216
  787SOL    HW2 4259   1.701   3.402  11.134
  788SOL     OW 4260  14.322  13.289   4.608
  788SOL    HW1 4261  14.243  13.245   4.638
  788SOL    HW2 4262  14.291  13.356   4.547
  789SOL     OW 4263   8.965   0.251   3.424
  789SOL    HW1 4264   9.039   0.195   3.449
  789SOL    HW2 4265   8.898   0.190   3.394
  790SOL     OW 4266  10.139   5.741   6.111
  790SOL    HW1 4267  10.072   5.793   6.066
  790SOL    HW2 4268  10.196   5.709   6.041
  791SOL     OW 4269  14.199  13.306   5.207
  791SOL    HW1 4270  14.157  13.310   5.293
  791SOL    HW2 4271  14.254  13.384   5.203
  792SOL     OW 4272   7.870   4.260   6.530
  792SOL    HW1 4273   7.921   4.207   6.592
  792SOL    HW2 4274   7.796   4.292   6.582
  793SOL     OW 4275   7.229  10.299  12.355
  793SOL    HW1 4276   7.269  10.215  12.334
  793SOL    HW2 4277   7.302  10.362  12.353
  794SOL     OW 4278   9.835   0.065   7.918
  794SOL    HW1 4279   9.910   0.007   7.911
  794SOL    HW2 4280   9.797   0.065   7.830
  795SOL     OW 4281  13.530  11.389  13.565
  795SOL    HW1 4282  13.517  11.295  13.579
  795SOL    HW2 4283  13.615  11.407  13.607
  796SOL     OW 4284  11.980   3.768   0.673
  796SOL    HW1 4285  11.920   3.695   0.658
  796SOL    HW2 4286  11.924   3.839   0.704
  797SOL     OW 4287  11.012  11.828  12.461
  797SOL    HW1 4288  11.010  11.923  12.450
  797SOL    HW2 4289  11.038  11.794  12.374
  798SOL     OW 4290   7.921   1.329   5.054
  798SOL    HW1 4291   7.934   1.276   5.133
  798SOL    HW2 4292   7.952   1.416   5.078
  799SOL     OW 4293   7.286  12.732  12.312
  799SOL    HW1 4294   7.332  12.809  12.279
  799SOL    HW2 4295   7.334  12.707  12.391
  800SOL     OW 4296  13.070   8.488   7.869
  800SOL    HW1 4297  12.996   8.489   7.808
  800SOL    HW2 4298  13.060   8.570   7.918
  801SOL     OW 4299   8.694  10.206  12.478
  801SOL    HW1 4300   8.659  10.188  12.565
  801SOL    HW2 4301   8.657  10.292  12.455
  802SOL     OW 4302   3.763  10.999   5.652
  802SOL    HW1 4303   3.734  10.922   5.701
  802SOL    HW2 4304   3.741  11.074   5.707
  803SOL     OW 4305  14.042   5.592  11.000
  803SOL    HW1 4306  14.017   5.627  11.086
  803SOL    HW2 4307  13.976   5.525  10.981
  804SOL     OW 4308   4.091   8.582  12.320
  804SOL    HW1 4309   4.077   8.508  12.260
  804SOL    HW2 4310   4.037   8.562  12.396
  805SOL     OW 4311   0.853  13.282   4.370
  805SOL    HW1 4312   0.931  13.293   4.316
  805SOL    HW2 4313   0.827  13.191   4.356
  806SOL     OW 4314  10.087  13.435   6.623
  806SOL    HW1 4315  10.110  13.467   6.535
  806SOL    HW2 4316   9.993  13.422   6.620
  807SOL     OW 4317   0.736   0.168  13.685
  807SOL    HW1 4318   0.735   0.100  13.618
  807SOL    HW2 4319   0.666   0.144  13.745
  808SOL     OW 4320  14.456   0.559  13.508
  808SOL    HW1 4321  14.424   0.469  13.512
  808SOL    HW2 4322  14.411   0.597  13.432
  809SOL     OW 4323  14.380  12.740   3.672
  809SOL    HW1 4324  14.454  12.773   3.621
  809SOL    HW2 4325  14.397  12.647   3.681
  810SOL     OW 4326   2.249   3.198   6.265
  810SOL    HW1 4327   2.298   3.188   6.346
  810SOL    HW2 4328   2.261   3.116   6.218
  811SOL     OW 4329   9.727   8.632  13.836
  811SOL    HW1 4330   9.795   8.629  13.903
  811SOL    HW2 4331   9.645   8.633  13.885
  812SOL     OW 4332  10.328   3.163   0.157
  812SOL    HW1 4333  10.240   3.129   0.168
  812SOL    HW2 4334  10.318   3.241   0.101
  813SOL     OW 4335  12.983  11.638  12.605
  813SOL    HW1 4336  12.887  11.636  12.607
  813SOL    HW2 4337  13.007  11.703  12.671
  814SOL     OW 4338   3.184   0.834   3.465
  814SOL    HW1 4339   3.246   0.905   3.484
  814SOL    HW2 4340   3.098   0.871   3.481
  815SOL     OW 4341   1.720   8.920   9.816
  815SOL    HW1 4342   1.737   8.847   9.876
  815SOL    HW2 4343   1.627   8.939   9.827
  816SOL     OW 4344   5.502   4.207   1.480
  816SOL    HW1 4345   5.545   4.292   1.474
  816SOL    HW2 4346   5.567   4.150   1.521
  817SOL     OW 4347   1.452   8.399   5.180
  817SOL    HW1 4348   1.362   8.428   5.192
  817SOL    HW2 4349   1.454   8.361   5.092
  818SOL     OW 4350   6.716   9.358   9.882
  818SOL    HW1 4351   6.637   9.307   9.866
  818SOL    HW2 4352   6.685   9.437   9.926
  819SOL     OW 4353  10.205   5.120  12.729
  819SOL    HW1 4354  10.261   5.193  12.704
  819SOL    HW2 4355  10.237   5.046  12.678
  820SOL     OW 4356   0.856   5.946   7.591
  820SOL    HW1 4357   0.880   5.881   7.525
  820SOL    HW2 4358   0.880   5.907   7.674
  821SOL     OW 4359   3.496   1.439   1.533
  821SOL    HW1 4360   3.433   1.500   1.494
  821SOL    HW2 4361   3.448   1.357   1.542
  822SOL     OW 4362   4.914   3.663   4.746
  822SOL    HW1 4363   4.898   3.681   4.839
  822SOL    HW2 4364   5.008   3.675   4.735
  823SOL     OW 4365   3.266   2.409   5.358
  823SOL    HW1 4366   3.231   2.484   5.405
  823SOL    HW2 4367   3.189   2.356   5.337
  824SOL     OW 4368  12.281  11.215   2.562
  824SOL    HW1 4369  12.262  11.151   2.630
  824SOL    HW2 4370  12.231  11.185   2.486
  825SOL     OW 4371   9.221   0.003   3.239
  825SOL    HW1 4372   9.250   0.050   3.161
  825SOL    HW2 4373   9.251  14.791   3.225
  826SOL     OW 4374   6.791   9.828  11.573
  826SOL    HW1 4375   6.810   9.900  11.632
  826SOL    HW2 4376   6.697   9.812  11.584
  827SOL     OW 4377  13.391   3.258   4.738
  827SOL    HW1 4378  13.477   3.220   4.755
  827SOL    HW2 4379  13.403   3.352   4.751
  828SOL     OW 4380   2.148  10.077  13.145
  828SOL    HW1 4381   2.149   9.983  13.166
  828SOL    HW2 4382   2.060  10.105  13.170
  829SOL     OW 4383   1.661  10.662  10.092
  829SOL    HW1 4384   1.592  10.720  10.123
  829SOL    HW2 4385   1.735  10.720  10.074
  830SOL     OW 4386   9.694   1.865   4.170
  830SOL    HW1 4387   9.691   1.923   4.247
  830SOL    HW2 4388   9.756   1.796   4.195
  831SOL     OW 4389  13.470  13.745   4.590
  831SOL    HW1 4390  13.555  13.774   4.624
  831SOL    HW2 4391  13.463  13.654   4.617
  832SOL     OW 4392   3.790  12.388   6.166
  832SOL    HW1 4393   3.843  12.464   6.190
  832SOL    HW2 4394   3.748  12.361   6.248
  833SOL     OW 4395  13.871   7.270   7.141
  833SOL    HW1 4396  13.782   7.260   7.176
  833SOL    HW2 4397  13.913   7.330   7.201
  834SOL     OW 4398  12.675   0.531   5.876
  834SOL    HW1 4399  12.662   0.467   5.805
  834SOL    HW2 4400  12.767   0.523   5.898
  835SOL     OW 4401  11.439  12.716  14.265
  835SOL    HW1 4402  11.488  12.677  14.337
  835SOL    HW2 4403  11.376  12.775  14.307
  836SOL     OW 4404  11.781   0.385  12.594
  836SOL    HW1 4405  11.809   0.438  12.669
  836SOL    HW2 4406  11.846   0.402  12.526
  837SOL     OW 4407  14.355  13.214   6.072
  837SOL    HW1 4408  14.407  13.141   6.106
  837SOL    HW2 4409  14.355  13.201   5.977
  838SOL     OW 4410  13.718  11.039  10.388
  838SOL    HW1 4411  13.805  11.076  10.400
  838SOL    HW2 4412  13.680  11.040  10.476
  839SOL     OW 4413   4.849   3.084   7.129
  839SOL    HW1 4414   4.909   3.085   7.055
  839SOL    HW2 4415   4.833   3.176   7.149
  840SOL     OW 4416   4.878  12.638   0.993
  840SOL    HW1 4417   4.855  12.730   0.981
  840SOL    HW2 4418   4.797  12.596   1.021
  841SOL     OW 4419  11.596  14.513   3.724
  841SOL    HW1 4420  11.506  14.480   3.721
  841SOL    HW2 4421  11.588  14.606   3.706
  842SOL     OW 4422  13.462  13.447   2.057
  842SOL    HW1 4423  13.410  13.403   2.124
  842SOL    HW2 4424  13.501  13.377   2.006
  843SOL     OW 4425   2.148  13.225   2.050
  843SOL    HW1 4426   2.136  13.236   1.956
  843SOL    HW2 4427   2.132  13.132   2.065
  844SOL     OW 4428   2.678   3.594   8.749
  844SOL    HW1 4429   2.720   3.647   8.816
  844SOL    HW2 4430   2.736   3.600   8.673
  845SOL     OW 4431   9.031  13.767   9.413
  845SOL    HW1 4432   9.062  13.773   9.322
  845SOL    HW2 4433   9.019  13.857   9.440
  846SOL     OW 4434  13.616   2.905   9.827
  846SOL    HW1 4435  13.606   2.810   9.832
  846SOL    HW2 4436  13.535   2.939   9.866
  847SOL     OW 4437   6.503   0.486  12.555
  847SOL    HW1 4438   6.482   0.465  12.465
  847SOL    HW2 4439   6.481   0.406  12.604
  848SOL     OW 4440  10.127  11.490   7.305
  848SOL    HW1 4441  10.084  11.434   7.240
  848SOL    HW2 4442  10.200  11.437   7.337
  849SOL     OW 4443   9.744   5.982   9.615
  849SOL    HW1 4444   9.746   6.021   9.703
  849SOL    HW2 4445   9.652   5.959   9.602
  850SOL     OW 4446   8.485   1.622   1.065
  850SOL    HW1 4447   8.549   1.552   1.075
  850SOL    HW2 4448   8.401   1.580   1.084
  851SOL     OW 4449  10.690   6.617   1.722
  851SOL    HW1 4450  10.652   6.642   1.806
  851SOL    HW2 4451  10.777   6.659   1.722
  852SOL     OW 4452   9.637   5.239   0.335
  852SOL    HW1 4453   9.654   5.333   0.330
  852SOL    HW2 4454   9.640   5.219   0.428
  853SOL     OW 4455   8.135   4.026   3.866
  853SOL    HW1 4456   8.217   4.073   3.884
  853SOL    HW2 4457   8.068   4.075   3.913
  854SOL     OW 4458  14.635   2.353   6.158
  854SOL    HW1 4459  14.648   2.294   6.232
  854SOL    HW2 4460  14.722   2.362   6.119
  855SOL     OW 4461   1.511   3.987   2.821
  855SOL    HW1 4462   1.505   4.004   2.727
  855SOL    HW2 4463   1.546   3.899   2.827
  856SOL     OW 4464  14.054  12.366   1.236
  856SOL    HW1 4465  14.010  12.433   1.184
  856SOL    HW2 4466  14.101  12.313   1.172
  857SOL     OW 4467   5.789  10.510  10.972
  857SOL    HW1 4468   5.786  10.429  11.024
  857SOL    HW2 4469   5.720  10.565  11.010
  858SOL     OW 4470  14.492   6.164  12.113
  858SOL    HW1 4471  14.418   6.203  12.160
  858SOL    HW2 4472  14.562   6.158  12.178
  859SOL     OW 4473  13.694   7.334   8.802
  859SOL    HW1 4474  13.668   7.255   8.754
  859SOL    HW2 4475  13.789   7.334   8.799
  860SOL     OW 4476  12.798   3.765  14.130
  860SOL    HW1 4477  12.720   3.754  14.184
  860SOL    HW2 4478  12.819   3.858  14.137
  861SOL     OW 4479   0.123   1.715   0.976
  861SOL    HW1 4480   0.034   1.707   1.012
  861SOL    HW2 4481   0.138   1.631   0.933
  862SOL     OW 4482   0.503  10.846  10.807
  862SOL    HW1 4483   0.432  10.868  10.748
  862SOL    HW2 4484   0.533  10.760  10.778
  863SOL     OW 4485   2.825  12.179   4.589
  863SOL    HW1 4486   2.857  12.089   4.590
  863SOL    HW2 4487   2.730  12.171   4.583
  864SOL     OW 4488   9.753   0.695   3.394
  864SOL    HW1 4489   9.743   0.657   3.306
  864SOL    HW2 4490   9.846   0.683   3.415
  865SOL     OW 4491   7.068   0.308   0.426
  865SOL    HW1 4492   7.105   0.303   0.515
  865SOL    HW2 4493   7.143   0.327   0.370
  866SOL     OW 4494   0.046  10.242   3.047
  866SOL    HW1 4495   0.104  10.316   3.031
  866SOL    HW2 4496   0.082  10.171   2.994
  867SOL     OW 4497   8.971   2.335   1.647
  867SOL    HW1 4498   8.968   2.431   1.640
  867SOL    HW2 4499   9.027   2.318   1.723
  868SOL     OW 4500   3.755  14.837   6.745
  868SOL    HW1 4501   3.843  14.799   6.749
  868SOL    HW2 4502   3.755   0.024   6.816
  869SOL     OW 4503   4.811   6.479  13.409
  869SOL    HW1 4504   4.885   6.533  13.437
  869SOL    HW2 4505   4.848   6.419  13.345
  870SOL     OW 4506  12.460   4.954   3.831
  870SOL    HW1 4507  12.413   4.879   3.795
  870SOL    HW2 4508  12.500   4.995   3.754
  871SOL     OW 4509  11.181   1.264   4.531
  871SOL    HW1 4510  11.224   1.221   4.457
  871SOL    HW2 4511  11.093   1.226   4.534
  872SOL     OW 4512  12.897   8.191   6.517
  872SOL    HW1 4513  12.868   8.147   6.437
  872SOL    HW2 4514  12.978   8.235   6.491
  873SOL     OW 4515   1.390   2.409  13.041
  873SOL    HW1 4516   1.406   2.409  13.135
  873SOL    HW2 4517   1.470   2.446  13.003
  874SOL     OW 4518   3.011   7.408  14.454
  874SOL    HW1 4519   2.971   7.495  14.443
  874SOL    HW2 4520   2.962   7.351  14.396
  875SOL     OW 4521   1.707  12.006   0.729
  875SOL    HW1 4522   1.780  12.068   0.735
  875SOL    HW2 4523   1.743  11.924   0.763
  876SOL     OW 4524  12.983  14.873   8.381
  876SOL    HW1 4525  12.999  14.792   8.332
  876SOL    HW2 4526  12.889  14.870   8.401
  877SOL     OW 4527   0.227   4.287   6.218
  877SOL    HW1 4528   0.185   4.209   6.254
  877SOL    HW2 4529   0.297   4.308   6.280
  878SOL     OW 4530   5.280  12.972  14.188
  878SOL    HW1 4531   5.335  12.894  14.183
  878SOL    HW2 4532   5.287  13.010  14.100
  879SOL     OW 4533   9.513   5.628  12.929
  879SOL    HW1 4534   9.506   5.699  12.993
  879SOL    HW2 4535   9.591   5.579  12.957
  880SOL     OW 4536   5.503   6.328   4.277
  880SOL    HW1 4537   5.447   6.291   4.346
  880SOL    HW2 4538   5.524   6.253   4.221
  881SOL     OW 4539   7.875   0.558   8.735
  881SOL    HW1 4540   7.927   0.484   8.767
  881SOL    HW2 4541   7.786   0.524   8.729
  882SOL     OW 4542   5.050   4.803   5.680
  882SOL    HW1 4543   5.058   4.897   5.661
  882SOL    HW2 4544   5.025   4.799   5.772
  883SOL     OW 4545   4.297  12.733   0.424
  883SOL    HW1 4546   4.331  12.723   0.335
  883SOL    HW2 4547   4.371  12.710   0.480
  884SOL     OW 4548  12.128   2.897   2.574
  884SOL    HW1 4549  12.056   2.837   2.554
  884SOL    HW2 4550  12.110   2.926   2.663
  885SOL     OW 4551   1.686  12.480   9.769
  885SOL    HW1 4552   1.626  12.533   9.716
  885SOL    HW2 4553   1.649  12.392   9.765
  886SOL     OW 4554   6.072   4.239   2.192
  886SOL    HW1 4555   6.151   4.243   2.139
  886SOL    HW2 4556   6.080   4.157   2.241
  887SOL     OW 4557  12.762  11.125   9.141
  887SOL    HW1 4558  12.801  11.038   9.153
  887SOL    HW2 4559  12.736  11.127   9.049
  888SOL     OW 4560   8.478  12.211   9.327
  888SOL    HW1 4561   8.385  12.212   9.304
  888SOL    HW2 4562   8.481  12.236   9.420
  889SOL     OW 4563  13.461   2.414   9.492
  889SOL    HW1 4564  13.383   2.451   9.450
  889SOL    HW2 4565  13.456   2.443   9.583
  890SOL     OW 4566   8.997   5.227   4.907
  890SOL    HW1 4567   8.904   5.249   4.917
  890SOL    HW2 4568   9.009   5.217   4.813
  891SOL     OW 4569   8.993  10.925   9.889
  891SOL    HW1 4570   9.037  10.989   9.944
  891SOL    HW2 4571   9.064  10.877   9.845
  892SOL     OW 4572   2.828   7.542  13.351
  892SOL    HW1 4573   2.887   7.466  13.361
  892SOL    HW2 4574   2.831   7.561  13.257
  893SOL     OW 4575   3.179   6.494   6.016
  893SOL    HW1 4576   3.105   6.438   6.038
  893SOL    HW2 4577   3.143   6.558   5.954
  894SOL     OW 4578  13.547   3.672   3.151
  894SOL    HW1 4579  13.575   3.583   3.173
  894SOL    HW2 4580  13.456   3.662   3.123
  895SOL     OW 4581  10.404   7.313  12.522
  895SOL    HW1 4582  10.456   7.368  12.463
  895SOL    HW2 4583  10.318   7.306  12.479
  896SOL     OW 4584  12.053  10.252   2.024
  896SOL    HW1 4585  12.033  10.166   2.062
  896SOL    HW2 4586  11.996  10.258   1.947
  897SOL     OW 4587   4.919  10.987   1.054
  897SOL    HW1 4588   4.965  10.904   1.045
  897SOL    HW2 4589   4.843  10.979   0.996
  898SOL     OW 4590   8.333   2.234   4.815
  898SOL    HW1 4591   8.247   2.223   4.776
  898SOL    HW2 4592   8.394   2.218   4.743
  899SOL     OW 4593  12.860   5.870   0.133
  899SOL    HW1 4594  12.905   5.869   0.049
  899SOL    HW2 4595  12.924   5.905   0.195
  900SOL     OW 4596   5.444   2.358  14.706
  900SOL    HW1 4597   5.369   2.339  14.762
  900SOL    HW2 4598   5.486   2.273  14.692
  901SOL     OW 4599  14.390   9.940  12.338
  901SOL    HW1 4600  14.383   9.928  12.433
  901SOL    HW2 4601  14.400   9.851  12.304
  902SOL     OW 4602   1.723   7.117   3.654
  902SOL    HW1 4603   1.645   7.138   3.602
  902SOL    HW2 4604   1.695   7.042   3.708
  903SOL     OW 4605   9.672   8.008  14.075
  903SOL    HW1 4606   9.625   7.936  14.034
  903SOL    HW2 4607   9.624   8.086  14.049
  904SOL     OW 4608  10.958  12.996   6.097
  904SOL    HW1 4609  10.957  12.915   6.047
  904SOL    HW2 4610  10.875  13.038   6.077
  905SOL     OW 4611   3.023   5.555   3.687
  905SOL    HW1 4612   3.100   5.590   3.731
  905SOL    HW2 4613   3.002   5.476   3.736
  906SOL     OW 4614   6.564  10.634   7.133
  906SOL    HW1 4615   6.561  10.585   7.051
  906SOL    HW2 4616   6.657  10.636   7.156
  907SOL     OW 4617   2.065  12.783   1.600
  907SOL    HW1 4618   2.039  12.781   1.692
  907SOL    HW2 4619   2.088  12.692   1.580
  908SOL     OW 4620   4.604   0.975   4.935
  908SOL    HW1 4621   4.568   0.988   4.847
  908SOL    HW2 4622   4.547   1.025   4.992
  909SOL     OW 4623   0.055   1.285   5.617
  909SOL    HW1 4624   0.082   1.193   5.614
  909SOL    HW2 4625  14.860   1.290   5.554
  910SOL     OW 4626   4.641   8.571  10.982
  910SOL    HW1 4627   4.661   8.657  11.018
  910SOL    HW2 4628   4.577   8.587  10.912
  911SOL     OW 4629   9.447   8.752   1.616
  911SOL    HW1 4630   9.408   8.785   1.696
  911SOL    HW2 4631   9.467   8.661   1.634
  912SOL     OW 4632   6.649   2.413  12.881
  912SOL    HW1 4633   6.714   2.363  12.831
  912SOL    HW2 4634   6.625   2.486  12.824
  913SOL     OW 4635   6.855   9.144  11.882
  913SOL    HW1 4636   6.914   9.216  11.861
  913SOL    HW2 4637   6.778   9.186  11.920
  914SOL     OW 4638  13.158   7.446  10.237
  914SOL    HW1 4639  13.075   7.446  10.284
  914SOL    HW2 4640  13.133   7.440  10.144
  915SOL     OW 4641  10.669   3.976  11.467
  915SOL    HW1 4642  10.620   3.993  11.387
  915SOL    HW2 4643  10.619   3.906  11.510
  916SOL     OW 4644   7.930   4.643  14.803
  916SOL    HW1 4645   7.930   4.700   0.003
  916SOL    HW2 4646   7.859   4.677  14.749
  917SOL     OW 4647  12.694   8.789  14.238
  917SOL    HW1 4648  12.659   8.847  14.306
  917SOL    HW2 4649  12.617   8.751  14.197
  918SOL     OW 4650   2.767   2.931   0.357
  918SOL    HW1 4651   2.808   2.949   0.272
  918SOL    HW2 4652   2.689   2.986   0.358
  919SOL     OW 4653  10.993   2.269  10.125
  919SOL    HW1 4654  10.954   2.287  10.039
  919SOL    HW2 4655  10.995   2.174  10.131
  920SOL     OW 4656   6.509   1.619   2.579
  920SOL    HW1 4657   6.508   1.675   2.502
  920SOL    HW2 4658   6.455   1.666   2.643
  921SOL     OW 4659   9.665  14.168   8.168
  921SOL    HW1 4660   9.660  14.072   8.175
  921SOL    HW2 4661   9.574  14.197   8.165
  922SOL     OW 4662   4.019   2.019  10.203
  922SOL    HW1 4663   3.970   1.942  10.174
  922SOL    HW2 4664   3.953   2.089  10.209
  923SOL     OW 4665   4.796   2.490  11.263
  923SOL    HW1 4666   4.700   2.492  11.262
  923SOL    HW2 4667   4.820   2.449  11.180
  924SOL     OW 4668   4.913   8.859   9.835
  924SOL    HW1 4669   4.918   8.879   9.742
  924SOL    HW2 4670   4.905   8.945   9.878
  925SOL     OW 4671  13.583  12.114   5.956
  925SOL    HW1 4672  13.556  12.179   6.021
  925SOL    HW2 4673  13.516  12.119   5.887
  926SOL     OW 4674   1.727   4.586   1.573
  926SOL    HW1 4675   1.768   4.673   1.568
  926SOL    HW2 4676   1.639   4.603   1.608
  927SOL     OW 4677   0.978   0.191   3.659
  927SOL    HW1 4678   0.916   0.219   3.725
  927SOL    HW2 4679   0.924   0.156   3.588
  928SOL     OW 4680   6.651   6.627   5.978
  928SOL    HW1 4681   6.713   6.697   6.000
  928SOL    HW2 4682   6.628   6.644   5.887
  929SOL     OW 4683   5.215   4.631   2.442
  929SOL    HW1 4684   5.241   4.573   2.513
  929SOL    HW2 4685   5.194   4.573   2.370
  930SOL     OW 4686  11.395   0.534  11.238
  930SOL    HW1 4687  11.465   0.571  11.183
  930SOL    HW2 4688  11.415   0.565  11.326
  931SOL     OW 4689   2.980  14.122   7.429
  931SOL    HW1 4690   2.982  14.200   7.374
  931SOL    HW2 4691   2.897  14.128   7.475
  932SOL     OW 4692  11.917   7.880   9.417
  932SOL    HW1 4693  12.004   7.916   9.434
  932SOL    HW2 4694  11.929   7.818   9.346
  933SOL     OW 4695  10.038  13.816   1.016
  933SOL    HW1 4696  10.064  13.846   1.103
  933SOL    HW2 4697  10.002  13.894   0.974
  934SOL     OW 4698  12.998   3.573   4.763
  934SOL    HW1 4699  12.953   3.504   4.714
  934SOL    HW2 4700  12.929   3.617   4.813
  935SOL     OW 4701   9.111   6.902   5.758
  935SOL    HW1 4702   9.086   6.945   5.839
  935SOL    HW2 4703   9.028   6.888   5.711
  936SOL     OW 4704   3.832  10.348  12.606
  936SOL    HW1 4705   3.881  10.426  12.581
  936SOL    HW2 4706   3.783  10.374  12.684
  937SOL     OW 4707   5.353   9.404   4.092
  937SOL    HW1 4708   5.307   9.461   4.154
  937SOL    HW2 4709   5.288   9.337   4.069
  938SOL     OW 4710  10.674  11.430   6.768
  938SOL    HW1 4711  10.602  11.388   6.721
  938SOL    HW2 4712  10.646  11.430   6.860
  939SOL     OW 4713  14.736  11.014  10.431
  939SOL    HW1 4714  14.686  11.095  10.417
  939SOL    HW2 4715  14.672  10.952  10.467
  940SOL     OW 4716   2.534   6.978   7.633
  940SOL    HW1 4717   2.598   7.021   7.575
  940SOL    HW2 4718   2.459   6.960   7.577
  941SOL     OW 4719   8.646   0.126   4.551
  941SOL    HW1 4720   8.720   0.149   4.495
  941SOL    HW2 4721   8.569   0.137   4.496
  942SOL     OW 4722  14.617   4.248   2.682
  942SOL    HW1 4723  14.607   4.337   2.649
  942SOL    HW2 4724  14.609   4.193   2.604
  943SOL     OW 4725   4.787   5.933   5.332
  943SOL    HW1 4726   4.877   5.918   5.359
  943SOL    HW2 4727   4.757   6.006   5.387
  944SOL     OW 4728  11.012   7.713   1.550
  944SOL    HW1 4729  11.020   7.728   1.644
  944SOL    HW2 4730  10.947   7.643   1.543
  945SOL     OW 4731  13.804   3.353  13.657
  945SOL    HW1 4732  13.737   3.413  13.691
  945SOL    HW2 4733  13.880   3.368  13.712
  946SOL     OW 4734   5.018  10.763   0.232
  946SOL    HW1 4735   4.988  10.852   0.251
  946SOL    HW2 4736   5.102  10.756   0.277
  947SOL     OW 4737   1.518  14.542   9.845
  947SOL    HW1 4738   1.491  14.605   9.912
  947SOL    HW2 4739   1.436  14.506   9.811
  948SOL     OW 4740   2.342   6.704  13.167
  948SOL    HW1 4741   2.248   6.686  13.168
  948SOL    HW2 4742   2.369   6.687  13.077
  949SOL     OW 4743  13.995   9.897  10.237
  949SOL    HW1 4744  14.064   9.869  10.177
  949SOL    HW2 4745  13.992   9.992  10.229
  950SOL     OW 4746  11.368  13.900  10.895
  950SOL    HW1 4747  11.390  13.838  10.965
  950SOL    HW2 4748  11.358  13.984  10.940
  951SOL     OW 4749  13.004   2.835  13.251
  951SOL    HW1 4750  12.955   2.916  13.261
  951SOL    HW2 4751  13.009   2.821  13.157
  952SOL     OW 4752   8.514   6.916   8.659
  952SOL    HW1 4753   8.469   6.958   8.732
  952SOL    HW2 4754   8.501   6.823   8.672
  953SOL     OW 4755   9.547  13.206   5.858
  953SOL    HW1 4756   9.509  13.182   5.943
  953SOL    HW2 4757   9.547  13.124   5.808
  954SOL     OW 4758   9.534   1.109  12.509
  954SOL    HW1 4759   9.545   1.204  12.506
  954SOL    HW2 4760   9.440   1.095  12.500
  955SOL     OW 4761   1.089   1.520   8.106
  955SOL    HW1 4762   1.046   1.517   8.021
  955SOL    HW2 4763   1.064   1.604   8.143
  956SOL     OW 4764   2.073   7.790   0.844
  956SOL    HW1 4765   2.000   7.730   0.858
  956SOL    HW2 4766   2.067   7.853   0.916
  957SOL     OW 4767   9.609   7.374  10.342
  957SOL    HW1 4768   9.602   7.315  10.268
  957SOL    HW2 4769   9.543   7.342  10.404
  958SOL     OW 4770   4.301   5.756   3.782
  958SOL    HW1 4771   4.376   5.733   3.728
  958SOL    HW2 4772   4.244   5.807   3.724
  959SOL     OW 4773  11.598   3.262  12.502
  959SOL    HW1 4774  11.556   3.348  12.495
  959SOL    HW2 4775  11.565   3.213  12.426
  960SOL     OW 4776  11.251   3.473  12.172
  960SOL    HW1 4777  11.232   3.386  12.137
  960SOL    HW2 4778  11.343   3.488  12.151
  961SOL     OW 4779   2.542   6.237   4.327
  961SOL    HW1 4780   2.512   6.308   4.384
  961SOL    HW2 4781   2.617   6.199   4.373
  962SOL     OW 4782   6.428   2.421  13.260
  962SOL    HW1 4783   6.518   2.388  13.256
  962SOL    HW2 4784   6.418   2.470  13.178
  963SOL     OW 4785   3.116   3.722  11.913
  963SOL    HW1 4786   3.069   3.764  11.985
  963SOL    HW2 4787   3.048   3.698  11.850
  964SOL     OW 4788  13.939   1.724  12.427
  964SOL    HW1 4789  13.899   1.676  12.355
  964SOL    HW2 4790  14.007   1.777  12.386
  965SOL     OW 4791  12.861   4.877   2.322
  965SOL    HW1 4792  12.833   4.797   2.367
  965SOL    HW2 4793  12.852   4.946   2.387
  966SOL     OW 4794  11.565   9.592   0.491
  966SOL    HW1 4795  11.587   9.668   0.545
  966SOL    HW2 4796  11.579   9.517   0.550
  967SOL     OW 4797   0.368   0.449  12.682
  967SOL    HW1 4798   0.435   0.433  12.749
  967SOL    HW2 4799   0.339   0.539  12.699
  968SOL     OW 4800   4.334   5.155   0.250
  968SOL    HW1 4801   4.345   5.119   0.162
  968SOL    HW2 4802   4.239   5.160   0.261
  969SOL     OW 4803   3.936  10.841   0.294
  969SOL    HW1 4804   3.878  10.768   0.273
  969SOL    HW2 4805   4.023  10.812   0.266
  970SOL     OW 4806   9.429   9.242  11.084
  970SOL    HW1 4807   9.386   9.301  11.023
  970SOL    HW2 4808   9.490   9.298  11.133
  971SOL     OW 4809   9.654  10.170   7.095
  971SOL    HW1 4810   9.657  10.248   7.149
  971SOL    HW2 4811   9.731  10.175   7.039
  972SOL     OW 4812  12.301   5.133  14.469
  972SOL    HW1 4813  12.263   5.221  14.475
  972SOL    HW2 4814  12.315   5.107  14.560
  973SOL     OW 4815   9.204  13.305  12.254
  973SOL    HW1 4816   9.264  13.249  12.304
  973SOL    HW2 4817   9.260  13.369  12.211
  974SOL     OW 4818   6.178  10.656   7.072
  974SOL    HW1 4819   6.233  10.612   7.007
  974SOL    HW2 4820   6.177  10.596   7.147
  975SOL     OW 4821  13.115  11.043   8.639
  975SOL    HW1 4822  13.128  11.066   8.731
  975SOL    HW2 4823  13.202  11.051   8.599
  976SOL     OW 4824   4.476   6.819   6.028
  976SOL    HW1 4825   4.532   6.836   6.104
  976SOL    HW2 4826   4.387   6.828   6.060
  977SOL     OW 4827  11.750   3.480   0.006
  977SOL    HW1 4828  11.768   3.541  14.812
  977SOL    HW2 4829  11.736   3.535   0.083
  978SOL     OW 4830  12.040   5.700  11.578
  978SOL    HW1 4831  12.118   5.713  11.523
  978SOL    HW2 4832  12.025   5.605  11.576
  979SOL     OW 4833  11.595   9.674  11.571
  979SOL    HW1 4834  11.602   9.765  11.599
  979SOL    HW2 4835  11.516   9.672  11.516
  980SOL     OW 4836   3.894  10.307   8.731
  980SOL    HW1 4837   3.967  10.288   8.672
  980SOL    HW2 4838   3.816  10.295   8.678
  981SOL     OW 4839   5.485   9.524  12.067
  981SOL    HW1 4840   5.536   9.582  12.123
  981SOL    HW2 4841   5.500   9.436  12.102
  982SOL     OW 4842  10.756  10.192  12.729
  982SOL    HW1 4843  10.754  10.227  12.640
  982SOL    HW2 4844  10.778  10.099  12.718
  983SOL     OW 4845   9.356   8.471   6.280
  983SOL    HW1 4846   9.284   8.410   6.298
  983SOL    HW2 4847   9.366   8.469   6.185
  984SOL     OW 4848   2.589   5.337  11.116
  984SOL    HW1 4849   2.500   5.329  11.082
  984SOL    HW2 4850   2.627   5.408  11.065
  985SOL     OW 4851   9.372   3.998   2.727
  985SOL    HW1 4852   9.414   3.922   2.765
  985SOL    HW2 4853   9.421   4.015   2.646
  986SOL     OW 4854  13.050   7.983  13.086
  986SOL    HW1 4855  13.109   8.000  13.159
  986SOL    HW2 4856  13.097   7.917  13.033
  987SOL     OW 4857   6.402  12.670   6.755
  987SOL    HW1 4858   6.475  12.731   6.749
  987SOL    HW2 4859   6.432  12.592   6.710
  988SOL     OW 4860  11.957  13.398  10.707
  988SOL    HW1 4861  11.921  13.487  10.700
  988SOL    HW2 4862  12.050  13.409  10.690
  989SOL     OW 4863  14.199  12.748   1.840
  989SOL    HW1 4864  14.263  12.694   1.886
  989SOL    HW2 4865  14.251  12.802   1.780
  990SOL     OW 4866   9.934   5.177   9.608
  990SOL    HW1 4867  10.023   5.164   9.574
  990SOL    HW2 4868   9.883   5.204   9.532
  991SOL     OW 4869   5.191   8.594   7.159
  991SOL    HW1 4870   5.265   8.634   7.205
  991SOL    HW2 4871   5.117   8.604   7.218
  992SOL     OW 4872  10.186   7.824   5.002
  992SOL    HW1 4873  10.211   7.731   5.008
  992SOL    HW2 4874  10.092   7.825   5.018
  993SOL     OW 4875  10.320   4.645  11.502
  993SOL    HW1 4876  10.367   4.609  11.578
  993SOL    HW2 4877  10.373   4.620  11.427
  994SOL     OW 4878   9.423   9.992   6.314
  994SOL    HW1 4879   9.500   9.936   6.326
  994SOL    HW2 4880   9.384   9.997   6.401
  995SOL     OW 4881   1.706   4.086   5.037
  995SOL    HW1 4882   1.622   4.109   5.077
  995SOL    HW2 4883   1.748   4.029   5.102
  996SOL     OW 4884   6.586  11.485   4.618
  996SOL    HW1 4885   6.526  11.560   4.613
  996SOL    HW2 4886   6.528  11.410   4.632
  997SOL     OW 4887   7.949   2.233   0.417
  997SOL    HW1 4888   7.885   2.218   0.485
  997SOL    HW2 4889   8.030   2.256   0.464
  998SOL     OW 4890   0.954   1.196   5.459
  998SOL    HW1 4891   0.906   1.114   5.473
  998SOL    HW2 4892   0.959   1.205   5.364
  999SOL     OW 4893   7.561   4.808  10.337
  999SOL    HW1 4894   7.605   4.892  10.349
  999SOL    HW2 4895   7.568   4.791  10.243
 1000SOL     OW 4896   5.201   4.028   8.254
 1000SOL    HW1 4897   5.243   3.964   8.312
 1000SOL    HW2 4898   5.274   4.074   8.212
 1001SOL     OW 4899   7.382  12.382   9.176
 1001SOL    HW1 4900   7.413  12.327   9.248
 1001SOL    HW2 4901   7.459  12.394   9.120
 1002SOL     OW 4902  12.995   3.230   4.073
 1002SOL    HW1 4903  12.984   3.245   4.167
 1002SOL    HW2 4904  13.043   3.147   4.068
 1003SOL     OW 4905  10.518   0.169  10.562
 1003SOL    HW1 4906  10.517   0.137  10.472
 1003SOL    HW2 4907  10.541   0.262  10.554
 1004SOL     OW 4908   2.453   1.704   2.328
 1004SOL    HW1 4909   2.375   1.650   2.341
 1004SOL    HW2 4910   2.454   1.763   2.404
 1005SOL     OW 4911   6.685   5.624   3.520
 1005SOL    HW1 4912   6.694   5.535   3.553
 1005SOL    HW2 4913   6.627   5.668   3.583
 1006SOL     OW 4914   2.109   1.317   0.963
 1006SOL    HW1 4915   2.071   1.395   0.922
 1006SOL    HW2 4916   2.179   1.351   1.019
 1007SOL     OW 4917   3.700  13.770   3.098
 1007SOL    HW1 4918   3.695  13.748   3.192
 1007SOL    HW2 4919   3.757  13.702   3.062
 1008SOL     OW 4920   0.656   0.064   3.694
 1008SOL    HW1 4921   0.728   0.079   3.633
 1008SOL    HW2 4922   0.582   0.039   3.638
 1009SOL     OW 4923  13.051   6.679   8.782
 1009SOL    HW1 4924  13.108   6.727   8.722
 1009SOL    HW2 4925  13.027   6.600   8.734
 1010SOL     OW 4926   9.385   3.431   0.139
 1010SOL    HW1 4927   9.340   3.422   0.055
 1010SOL    HW2 4928   9.448   3.503   0.125
 1011SOL     OW 4929   3.430  14.766   9.289
 1011SOL    HW1 4930   3.376  14.732   9.217
 1011SOL    HW2 4931   3.432  14.860   9.275
 1012SOL     OW 4932   1.246   9.919   3.597
 1012SOL    HW1 4933   1.317   9.901   3.534
 1012SOL    HW2 4934   1.285   9.898   3.682
 1013SOL     OW 4935  13.506  10.842   6.902
 1013SOL    HW1 4936  13.552  10.923   6.926
 1013SOL    HW2 4937  13.554  10.773   6.949
 1014SOL     OW 4938   5.714   9.373   0.693
 1014SOL    HW1 4939   5.789   9.314   0.697
 1014SOL    HW2 4940   5.676   9.369   0.781
 1015SOL     OW 4941   7.617   7.197   2.584
 1015SOL    HW1 4942   7.562   7.252   2.528
 1015SOL    HW2 4943   7.578   7.206   2.672
 1016SOL     OW 4944   8.361   0.921  11.385
 1016SOL    HW1 4945   8.400   0.833  11.382
 1016SOL    HW2 4946   8.305   0.920  11.463
 1017SOL     OW 4947   7.197   0.574  12.935
 1017SOL    HW1 4948   7.224   0.665  12.922
 1017SOL    HW2 4949   7.235   0.550  13.020
 1018SOL     OW 4950   1.659   0.144   9.637
 1018SOL    HW1 4951   1.633   0.062   9.594
 1018SOL    HW2 4952   1.582   0.200   9.629
 1019SOL     OW 4953   7.249   6.443   5.062
 1019SOL    HW1 4954   7.267   6.424   5.155
 1019SOL    HW2 4955   7.229   6.536   5.060
 1020SOL     OW 4956   2.789   2.578   3.972
 1020SOL    HW1 4957   2.698   2.550   3.984
 1020SOL    HW2 4958   2.842   2.507   4.008
 1021SOL     OW 4959   9.584   8.593   2.760
 1021SOL    HW1 4960   9.531   8.514   2.758
 1021SOL    HW2 4961   9.576   8.630   2.672
 1022SOL     OW 4962  10.001  12.398   1.466
 1022SOL    HW1 4963   9.954  12.476   1.494
 1022SOL    HW2 4964  10.077  12.393   1.523
 1023SOL     OW 4965  11.933  12.003   4.913
 1023SOL    HW1 4966  11.922  12.090   4.952
 1023SOL    HW2 4967  11.900  11.943   4.979
 1024SOL     OW 4968  14.444  13.741   1.858
 1024SOL    HW1 4969  14.407  13.696   1.934
 1024SOL    HW2 4970  14.419  13.686   1.783
 1025SOL     OW 4971   2.031   3.914  13.185
 1025SOL    HW1 4972   2.097   3.909  13.254
 1025SOL    HW2 4973   1.951   3.879  13.225
 1026SOL     OW 4974   9.813   0.215   5.051
 1026SOL    HW1 4975   9.839   0.243   4.963
 1026SOL    HW2 4976   9.895   0.210   5.099
 1027SOL     OW 4977   2.642   4.367  12.542
 1027SOL    HW1 4978   2.673   4.294  12.488
 1027SOL    HW2 4979   2.671   4.344  12.631
 1028SOL     OW 4980  10.582   6.120   3.757
 1028SOL    HW1 4981  10.523   6.047   3.738
 1028SOL    HW2 4982  10.605   6.155   3.671
 1029SOL     OW 4983  12.434  11.062   1.171
 1029SOL    HW1 4984  12.438  10.995   1.238
 1029SOL    HW2 4985  12.423  11.144   1.219
 1030SOL     OW 4986  13.755  13.628  13.098
 1030SOL    HW1 4987  13.809  13.574  13.040
 1030SOL    HW2 4988  13.726  13.700  13.042
 1031SOL     OW 4989   0.980   0.272  11.927
 1031SOL    HW1 4990   0.940   0.255  12.012
 1031SOL    HW2 4991   1.074   0.281  11.946
 1032SOL     OW 4992  11.868   3.484  10.831
 1032SOL    HW1 4993  11.932   3.503  10.762
 1032SOL    HW2 4994  11.917   3.434  10.896
 1033SOL     OW 4995   1.027   3.679   8.106
 1033SOL    HW1 4996   1.094   3.611   8.102
 1033SOL    HW2 4997   1.007   3.687   8.199
 1034SOL     OW 4998   7.444  14.295   5.395
 1034SOL    HW1 4999   7.408  14.379   5.367
 1034SOL    HW2 5000   7.443  14.299   5.491
 1035SOL     OW 5001   6.929  12.097  10.723
 1035SOL    HW1 5002   7.011  12.106  10.674
 1035SOL    HW2 5003   6.864  12.077  10.656
 1036SOL     OW 5004   9.034  13.428  10.875
 1036SOL    HW1 5005   9.022  13.439  10.781
 1036SOL    HW2 5006   9.092  13.352  10.883
 1037SOL     OW 5007  12.155   0.596   1.772
 1037SOL    HW1 5008  12.236   0.571   1.729
 1037SOL    HW2 5009  12.094   0.524   1.754
 1038SOL     OW 5010   6.103   0.280   4.248
 1038SOL    HW1 5011   6.036   0.349   4.252
 1038SOL    HW2 5012   6.079   0.221   4.319
 1039SOL     OW 5013   5.621  11.927  13.642
 1039SOL    HW1 5014   5.695  11.974  13.603
 1039SOL    HW2 5015   5.543  11.975  13.613
 1040SOL     OW 5016  10.773   9.760   5.009
 1040SOL    HW1 5017  10.770   9.752   4.914
 1040SOL    HW2 5018  10.681   9.769   5.035
 1041SOL     OW 5019  14.246   3.059   3.406
 1041SOL    HW1 5020  14.244   3.083   3.498
 1041SOL    HW2 5021  14.253   3.142   3.359
 1042SOL     OW 5022   8.937   5.697   3.044
 1042SOL    HW1 5023   8.962   5.766   3.105
 1042SOL    HW2 5024   9.006   5.631   3.050
 1043SOL     OW 5025   0.836   4.333  10.193
 1043SOL    HW1 5026   0.795   4.255  10.155
 1043SOL    HW2 5027   0.781   4.355  10.269
 1044SOL     OW 5028  12.888  12.405  11.935
 1044SOL    HW1 5029  12.939  12.390  11.855
 1044SOL    HW2 5030  12.861  12.496  11.930
 1045SOL     OW 5031  14.072   7.040   0.706
 1045SOL    HW1 5032  14.020   7.076   0.778
 1045SOL    HW2 5033  14.053   7.098   0.632
 1046SOL     OW 5034   6.124   6.544  12.726
 1046SOL    HW1 5035   6.214   6.561  12.753
 1046SOL    HW2 5036   6.133   6.506  12.638
 1047SOL     OW 5037  10.267   0.010   1.403
 1047SOL    HW1 5038  10.323  14.873   1.479
 1047SOL    HW2 5039  10.293   0.097   1.372
 1048SOL     OW 5040   0.111  12.602   8.189
 1048SOL    HW1 5041   0.154  12.585   8.106
 1048SOL    HW2 5042   0.100  12.516   8.229
 1049SOL     OW 5043   2.693  11.098   8.170
 1049SOL    HW1 5044   2.637  11.174   8.157
 1049SOL    HW2 5045   2.780  11.127   8.140
 1050SOL     OW 5046  13.965   0.636   0.058
 1050SOL    HW1 5047  13.963   0.630   0.153
 1050SOL    HW2 5048  14.023   0.710   0.039
 1051SOL     OW 5049  14.754   4.452   7.278
 1051SOL    HW1 5050  14.697   4.386   7.317
 1051SOL    HW2 5051  14.843   4.424   7.300
 1052SOL     OW 5052   2.083   3.182   3.961
 1052SOL    HW1 5053   2.177   3.189   3.943
 1052SOL    HW2 5054   2.051   3.120   3.895
 1053SOL     OW 5055  10.715   5.070  14.723
 1053SOL    HW1 5056  10.729   5.147  14.779
 1053SOL    HW2 5057  10.622   5.050  14.732
 1054SOL     OW 5058  11.042   5.533   8.102
 1054SOL    HW1 5059  11.064   5.567   8.188
 1054SOL    HW2 5060  11.118   5.480   8.076
 1055SOL     OW 5061   7.602   4.271   2.610
 1055SOL    HW1 5062   7.587   4.295   2.702
 1055SOL    HW2 5063   7.521   4.227   2.584
 1056SOL     OW 5064   6.476   9.263   5.003
 1056SOL    HW1 5065   6.551   9.292   4.950
 1056SOL    HW2 5066   6.496   9.172   5.025
 1057SOL     OW 5067  11.298   0.382  14.534
 1057SOL    HW1 5068  11.217   0.416  14.572
 1057SOL    HW2 5069  11.284   0.288  14.528
 1058SOL     OW 5070   4.757   6.087   4.416
 1058SOL    HW1 5071   4.781   5.994   4.422
 1058SOL    HW2 5072   4.821   6.125   4.356
 1059SOL     OW 5073   2.277  10.992  12.322
 1059SOL    HW1 5074   2.306  11.047  12.250
 1059SOL    HW2 5075   2.290  10.902  12.290
 1060SOL     OW 5076   7.818   5.742  10.055
 1060SOL    HW1 5077   7.814   5.796   9.976
 1060SOL    HW2 5078   7.877   5.789  10.114
 1061SOL     OW 5079   3.716  13.413   2.023
 1061SOL    HW1 5080   3.631  13.454   2.044
 1061SOL    HW2 5081   3.763  13.411   2.106
 1062SOL     OW 5082   3.886   6.912   4.264
 1062SOL    HW1 5083   3.952   6.905   4.194
 1062SOL    HW2 5084   3.802   6.916   4.217
 1063SOL     OW 5085   0.322  13.844   8.073
 1063SOL    HW1 5086   0.340  13.809   8.161
 1063SOL    HW2 5087   0.407  13.846   8.030
 1064SOL     OW 5088   0.234   1.640   8.358
 1064SOL    HW1 5089   0.214   1.731   8.377
 1064SOL    HW2 5090   0.223   1.632   8.263
 1065SOL     OW 5091  12.221   7.042  14.783
 1065SOL    HW1 5092  12.230   6.946  14.782
 1065SOL    HW2 5093  12.261   7.068  14.866
 1066SOL     OW 5094   0.059  13.876   0.687
 1066SOL    HW1 5095   0.065  13.925   0.605
 1066SOL    HW2 5096   0.052  13.943   0.755
 1067SOL     OW 5097  14.540  13.066   1.633
 1067SOL    HW1 5098  14.628  13.033   1.651
 1067SOL    HW2 5099  14.545  13.160   1.649
 1068SOL     OW 5100   2.842   2.225  14.699
 1068SOL    HW1 5101   2.868   2.242  14.608
 1068SOL    HW2 5102   2.832   2.130  14.703
 1069SOL     OW 5103   8.237   0.092   4.341
 1069SOL    HW1 5104   8.297   0.036   4.293
 1069SOL    HW2 5105   8.176   0.126   4.275
 1070SOL     OW 5106   5.920   3.635   2.396
 1070SOL    HW1 5107   5.936   3.576   2.470
 1070SOL    HW2 5108   5.989   3.615   2.334
 1071SOL     OW 5109   8.105   2.537   9.318
 1071SOL    HW1 5110   8.043   2.600   9.353
 1071SOL    HW2 5111   8.098   2.545   9.223
 1072SOL     OW 5112   4.050   1.821   3.375
 1072SOL    HW1 5113   3.955   1.821   3.380
 1072SOL    HW2 5114   4.079   1.794   3.462
 1073SOL     OW 5115   1.616   3.876  11.393
 1073SOL    HW1 5116   1.677   3.948  11.378
 1073SOL    HW2 5117   1.531   3.919  11.406
 1074SOL     OW 5118   0.624  12.521   1.775
 1074SOL    HW1 5119   0.632  12.524   1.870
 1074SOL    HW2 5120   0.544  12.471   1.759
 1075SOL     OW 5121   1.637   9.367   6.452
 1075SOL    HW1 5122   1.605   9.316   6.526
 1075SOL    HW2 5123   1.634   9.307   6.378
 1076SOL     OW 5124  11.169   1.091   0.378
 1076SOL    HW1 5125  11.175   1.076   0.284
 1076SOL    HW2 5126  11.239   1.154   0.397
 1077SOL     OW 5127  14.713   5.498  12.071
 1077SOL    HW1 5128  14.796   5.462  12.041
 1077SOL    HW2 5129  14.733   5.588  12.095
 1078SOL     OW 5130   1.589  12.455   6.168
 1078SOL    HW1 5131   1.559  12.489   6.084
 1078SOL    HW2 5132   1.514  12.406   6.202
 1079SOL     OW 5133  10.013   5.125   3.324
 1079SOL    HW1 5134  10.010   5.151   3.232
 1079SOL    HW2 5135   9.980   5.035   3.325
 1080SOL     OW 5136   8.552  14.084   6.299
 1080SOL    HW1 5137   8.637  14.069   6.340
 1080SOL    HW2 5138   8.560  14.170   6.257
 1081SOL     OW 5139  14.697   0.162  10.551
 1081SOL    HW1 5140  14.698   0.093  10.617
 1081SOL    HW2 5141  14.673   0.117  10.470
 1082SOL     OW 5142   0.235   6.486  11.543
 1082SOL    HW1 5143   0.210   6.424  11.475
 1082SOL    HW2 5144   0.249   6.432  11.621
 1083SOL     OW 5145   6.873   3.983  11.744
 1083SOL    HW1 5146   6.816   3.906  11.754
 1083SOL    HW2 5147   6.816   4.051  11.710
 1084SOL     OW 5148   0.468   8.832  11.328
 1084SOL    HW1 5149   0.512   8.854  11.245
 1084SOL    HW2 5150   0.495   8.742  11.347
 1085SOL     OW 5151   0.946  11.725   5.551
 1085SOL    HW1 5152   0.863  11.753   5.514
 1085SOL    HW2 5153   0.922  11.660   5.617
 1086SOL     OW 5154   5.761   8.064  13.583
 1086SOL    HW1 5155   5.700   8.118  13.533
 1086SOL    HW2 5156   5.835   8.051  13.524
 1087SOL     OW 5157   5.007  10.940   5.665
 1087SOL    HW1 5158   5.068  10.951   5.593
 1087SOL    HW2 5159   4.960  11.023   5.670
 1088SOL     OW 5160   6.110  11.856   3.289
 1088SOL    HW1 5161   6.168  11.928   3.262
 1088SOL    HW2 5162   6.165  11.798   3.341
 1089SOL     OW 5163  14.308  14.645   0.158
 1089SOL    HW1 5164  14.282  14.695   0.081
 1089SOL    HW2 5165  14.402  14.658   0.165
 1090SOL     OW 5166   6.296  13.847   5.166
 1090SOL    HW1 5167   6.233  13.847   5.238
 1090SOL    HW2 5168   6.338  13.933   5.172
 1091SOL     OW 5169   6.935   9.842  10.276
 1091SOL    HW1 5170   6.854   9.795  10.258
 1091SOL    HW2 5171   6.982   9.842  10.193
 1092SOL     OW 5172   0.499   1.879  11.596
 1092SOL    HW1 5173   0.456   1.947  11.544
 1092SOL    HW2 5174   0.441   1.864  11.670
 1093SOL     OW 5175  12.326   4.573  14.437
 1093SOL    HW1 5176  12.383   4.513  14.486
 1093SOL    HW2 5177  12.309   4.645  14.498
 1094SOL     OW 5178   8.487  12.429   0.154
 1094SOL    HW1 5179   8.474  12.453   0.246
 1094SOL    HW2 5180   8.422  12.361   0.137
 1095SOL     OW 5181   0.682   2.173   1.253
 1095SOL    HW1 5182   0.680   2.077   1.250
 1095SOL    HW2 5183   0.771   2.194   1.281
 1096SOL     OW 5184  13.873  14.695   6.957
 1096SOL    HW1 5185  13.965  14.722   6.950
 1096SOL    HW2 5186  13.823  14.775   6.938
 1097SOL     OW 5187   1.861  13.904  11.057
 1097SOL    HW1 5188   1.865  13.822  11.107
 1097SOL    HW2 5189   1.794  13.956  11.101
 1098SOL     OW 5190   2.903   2.842  11.492
 1098SOL    HW1 5191   2.985   2.838  11.540
 1098SOL    HW2 5192   2.910   2.774  11.425
 1099SOL     OW 5193   8.238  14.006   9.760
 1099SOL    HW1 5194   8.241  14.054   9.843
 1099SOL    HW2 5195   8.150  14.023   9.726
 1100SOL     OW 5196  13.694  13.586   6.679
 1100SOL    HW1 5197  13.766  13.611   6.736
 1100SOL    HW2 5198  13.729  13.594   6.591
 1101SOL     OW 5199   9.271   6.851   2.725
 1101SOL    HW1 5200   9.356   6.812   2.744
 1101SOL    HW2 5201   9.291   6.933   2.680
 1102SOL     OW 5202  10.349   8.112   9.946
 1102SOL    HW1 5203  10.357   8.207   9.957
 1102SOL    HW2 5204  10.351   8.099   9.851
 1103SOL     OW 5205   7.332  13.401   0.771
 1103SOL    HW1 5206   7.420  13.391   0.734
 1103SOL    HW2 5207   7.309  13.492   0.752
 1104SOL     OW 5208  14.316   3.924  10.613
 1104SOL    HW1 5209  14.301   3.981  10.538
 1104SOL    HW2 5210  14.291   3.977  10.689
 1105SOL     OW 5211   3.997  12.882   4.375
 1105SOL    HW1 5212   4.024  12.948   4.439
 1105SOL    HW2 5213   4.022  12.798   4.414
 1106SOL     OW 5214   4.486   1.982   9.509
 1106SOL    HW1 5215   4.407   2.030   9.485
 1106SOL    HW2 5216   4.517   1.944   9.426
 1107SOL     OW 5217   5.360   2.340   8.908
 1107SOL    HW1 5218   5.392   2.429   8.893
 1107SOL    HW2 5219   5.267   2.351   8.927
 1108SOL     OW 5220   4.450  11.000   9.975
 1108SOL    HW1 5221   4.377  10.952   9.935
 1108SOL    HW2 5222   4.499  11.035   9.901
 1109SOL     OW 5223   6.181   3.436   9.379
 1109SOL    HW1 5224   6.191   3.352   9.334
 1109SOL    HW2 5225   6.097   3.470   9.346
 1110SOL     OW 5226  13.425  13.879  11.491
 1110SOL    HW1 5227  13.501  13.885  11.549
 1110SOL    HW2 5228  13.411  13.968  11.459
 1111SOL     OW 5229  14.584   4.352   5.220
 1111SOL    HW1 5230  14.513   4.289   5.230
 1111SOL    HW2 5231  14.662   4.305   5.249
 1112SOL     OW 5232   6.690  10.532   9.075
 1112SOL    HW1 5233   6.778  10.495   9.065
 1112SOL    HW2 5234   6.704  10.617   9.116
 1113SOL     OW 5235  11.110  13.589   2.880
 1113SOL    HW1 5236  11.171  13.515   2.878
 1113SOL    HW2 5237  11.052  13.569   2.954
 1114SOL     OW 5238  10.891   7.513  13.534
 1114SOL    HW1 5239  10.947   7.508  13.456
 1114SOL    HW2 5240  10.924   7.589  13.582
 1115SOL     OW 5241  11.779   1.139   5.864
 1115SOL    HW1 5242  11.701   1.192   5.846
 1115SOL    HW2 5243  11.848   1.203   5.877
 1116SOL     OW 5244   3.162   7.088  11.713
 1116SOL    HW1 5245   3.108   7.165  11.732
 1116SOL    HW2 5246   3.127   7.053  11.632
 1117SOL     OW 5247   6.458  11.799   7.192
 1117SOL    HW1 5248   6.409  11.871   7.152
 1117SOL    HW2 5249   6.533  11.786   7.134
 1118SOL     OW 5250   8.030  13.982  12.013
 1118SOL    HW1 5251   8.112  13.936  11.994
 1118SOL    HW2 5252   8.032  13.997  12.107
 1119SOL     OW 5253  12.364   5.667   4.792
 1119SOL    HW1 5254  12.367   5.573   4.772
 1119SOL    HW2 5255  12.301   5.674   4.864
 1120SOL     OW 5256  11.749   8.227  14.365
 1120SOL    HW1 5257  11.783   8.180  14.441
 1120SOL    HW2 5258  11.707   8.160  14.311
 1121SOL     OW 5259   8.670   3.803   1.296
 1121SOL    HW1 5260   8.643   3.830   1.384
 1121SOL    HW2 5261   8.692   3.710   1.305
 1122SOL     OW 5262   1.091   1.168   2.511
 1122SOL    HW1 5263   1.044   1.191   2.592
 1122SOL    HW2 5264   1.039   1.206   2.441
 1123SOL     OW 5265  11.306   3.620   0.431
 1123SOL    HW1 5266  11.371   3.566   0.477
 1123SOL    HW2 5267  11.331   3.616   0.339
 1124SOL     OW 5268  14.533   8.364  10.519
 1124SOL    HW1 5269  14.556   8.417  10.444
 1124SOL    HW2 5270  14.608   8.305  10.531
 1125SOL     OW 5271   6.505  11.362  14.472
 1125SOL    HW1 5272   6.457  11.373  14.390
 1125SOL    HW2 5273   6.454  11.412  14.537
 1126SOL     OW 5274   0.946   9.083   2.964
 1126SOL    HW1 5275   0.866   9.134   2.965
 1126SOL    HW2 5276   0.958   9.058   2.873
 1127SOL     OW 5277  12.893  14.769   1.530
 1127SOL    HW1 5278  12.975  14.734   1.566
 1127SOL    HW2 5279  12.921  14.836   1.468
 1128SOL     OW 5280   0.587   8.563   6.213
 1128SOL    HW1 5281   0.648   8.494   6.188
 1128SOL    HW2 5282   0.637   8.618   6.273
 1129SOL     OW 5283  14.356  14.564   2.574
 1129SOL    HW1 5284  14.433  14.572   2.517
 1129SOL    HW2 5285  14.286  14.607   2.526
 1130SOL     OW 5286  12.684  12.246   1.849
 1130SOL    HW1 5287  12.698  12.326   1.899
 1130SOL    HW2 5288  12.751  12.185   1.881
 1131SOL     OW 5289   2.153  12.109  14.172
 1131SOL    HW1 5290   2.069  12.153  14.159
 1131SOL    HW2 5291   2.180  12.133  14.260
 1132SOL     OW 5292   7.771  12.422   7.156
 1132SOL    HW1 5293   7.844  12.398   7.212
 1132SOL    HW2 5294   7.709  12.466   7.215
 1133SOL     OW 5295   2.147   3.186   3.159
 1133SOL    HW1 5296   2.111   3.139   3.084
 1133SOL    HW2 5297   2.169   3.273   3.125
 1134SOL     OW 5298  11.962  12.278   5.024
 1134SOL    HW1 5299  11.887  12.291   4.966
 1134SOL    HW2 5300  11.979  12.364   5.062
 1135SOL     OW 5301  13.063   7.747   9.786
 1135SOL    HW1 5302  13.105   7.727   9.870
 1135SOL    HW2 5303  13.019   7.830   9.801
 1136SOL     OW 5304   2.588  14.465  11.506
 1136SOL    HW1 5305   2.668  14.450  11.555
 1136SOL    HW2 5306   2.571  14.559  11.516
 1137SOL     OW 5307  11.130   7.573  12.251
 1137SOL    HW1 5308  11.208   7.594  12.303
 1137SOL    HW2 5309  11.118   7.650  12.195
 1138SOL     OW 5310  11.670   2.431   0.769
 1138SOL    HW1 5311  11.583   2.471   0.776
 1138SOL    HW2 5312  11.674   2.400   0.679
 1139SOL     OW 5313  11.438   0.504   2.025
 1139SOL    HW1 5314  11.377   0.544   2.088
 1139SOL    HW2 5315  11.401   0.418   2.008
 1140SOL     OW 5316   3.158   5.524   6.204
 1140SOL    HW1 5317   3.248   5.556   6.190
 1140SOL    HW2 5318   3.138   5.473   6.126
 1141SOL     OW 5319  10.413   8.496   0.791
 1141SOL    HW1 5320  10.503   8.510   0.759
 1141SOL    HW2 5321  10.358   8.547   0.732
 1142SOL     OW 5322   3.718   9.559   2.952
 1142SOL    HW1 5323   3.712   9.562   2.857
 1142SOL    HW2 5324   3.714   9.466   2.974
 1143SOL     OW 5325   7.142   4.405  13.850
 1143SOL    HW1 5326   7.153   4.342  13.779
 1143SOL    HW2 5327   7.224   4.402  13.898
 1144SOL     OW 5328   8.553   9.549  12.137
 1144SOL    HW1 5329   8.598   9.464  12.129
 1144SOL    HW2 5330   8.491   9.535  12.208
 1145SOL     OW 5331   7.618  14.438  10.273
 1145SOL    HW1 5332   7.695  14.448  10.217
 1145SOL    HW2 5333   7.612  14.520  10.321
 1146SOL     OW 5334   1.014  14.406   1.817
 1146SOL    HW1 5335   0.980  14.396   1.728
 1146SOL    HW2 5336   1.075  14.333   1.828
 1147SOL     OW 5337   1.153   0.821   6.211
 1147SOL    HW1 5338   1.212   0.897   6.210
 1147SOL    HW2 5339   1.166   0.779   6.126
 1148SOL     OW 5340   3.767   7.529   4.243
 1148SOL    HW1 5341   3.741   7.448   4.199
 1148SOL    HW2 5342   3.810   7.500   4.323
 1149SOL     OW 5343  13.337  14.062  13.870
 1149SOL    HW1 5344  13.419  14.078  13.823
 1149SOL    HW2 5345  13.353  14.094  13.959
 1150SOL     OW 5346   0.699   5.769   3.222
 1150SOL    HW1 5347   0.679   5.830   3.292
 1150SOL    HW2 5348   0.654   5.805   3.145
 1151SOL     OW 5349   2.074  14.828   9.634
 1151SOL    HW1 5350   1.995  14.778   9.654
 1151SOL    HW2 5351   2.043   0.028   9.588
 1152SOL     OW 5352   1.605  13.514  13.860
 1152SOL    HW1 5353   1.682  13.560  13.829
 1152SOL    HW2 5354   1.634  13.423  13.872
 1153SOL     OW 5355   7.008   0.859   0.202
 1153SOL    HW1 5356   7.049   0.922   0.144
 1153SOL    HW2 5357   6.974   0.912   0.275
 1154SOL     OW 5358  13.076   1.814   0.628
 1154SOL    HW1 5359  13.167   1.791   0.609
 1154SOL    HW2 5360  13.037   1.733   0.663
 1155SOL     OW 5361   1.390   8.571   1.260
 1155SOL    HW1 5362   1.327   8.589   1.190
 1155SOL    HW2 5363   1.362   8.627   1.332
 1156SOL     OW 5364   3.084   1.055  13.937
 1156SOL    HW1 5365   3.102   1.130  13.880
 1156SOL    HW2 5366   3.003   1.018  13.901
 1157SOL     OW 5367   9.462   1.265   0.446
 1157SOL    HW1 5368   9.543   1.217   0.460
 1157SOL    HW2 5369   9.421   1.270   0.532
 1158SOL     OW 5370   3.985  11.556   1.886
 1158SOL    HW1 5371   4.003  11.498   1.960
 1158SOL    HW2 5372   3.925  11.622   1.921
 1159SOL     OW 5373   8.872  11.221   5.786
 1159SOL    HW1 5374   8.795  11.239   5.732
 1159SOL    HW2 5375   8.945  11.220   5.724
 1160SOL     OW 5376   5.163   3.139   9.372
 1160SOL    HW1 5377   5.108   3.142   9.450
 1160SOL    HW2 5378   5.102   3.152   9.299
 1161SOL     OW 5379   7.288   5.167   9.915
 1161SOL    HW1 5380   7.265   5.259   9.927
 1161SOL    HW2 5381   7.209   5.119   9.938
 1162SOL     OW 5382   6.532  13.288  13.004
 1162SOL    HW1 5383   6.451  13.238  13.011
 1162SOL    HW2 5384   6.509  13.375  13.036
 1163SOL     OW 5385   1.583  11.046   1.479
 1163SOL    HW1 5386   1.657  11.058   1.539
 1163SOL    HW2 5387   1.506  11.062   1.533
 1164SOL     OW 5388   6.053  14.537  10.523
 1164SOL    HW1 5389   6.066  14.598  10.451
 1164SOL    HW2 5390   5.984  14.479  10.494
 1165SOL     OW 5391  11.935   5.527   7.867
 1165SOL    HW1 5392  11.916   5.598   7.805
 1165SOL    HW2 5393  11.868   5.537   7.935
 1166SOL     OW 5394   8.194  14.172   1.465
 1166SOL    HW1 5395   8.161  14.171   1.554
 1166SOL    HW2 5396   8.268  14.233   1.468
 1167SOL     OW 5397   6.571  13.070  14.174
 1167SOL    HW1 5398   6.560  13.009  14.247
 1167SOL    HW2 5399   6.607  13.016  14.103
 1168SOL     OW 5400  14.735  13.561  10.331
 1168SOL    HW1 5401  14.815  13.567  10.383
 1168SOL    HW2 5402  14.685  13.639  10.354
 1169SOL     OW 5403   5.341   5.694   6.240
 1169SOL    HW1 5404   5.300   5.717   6.323
 1169SOL    HW2 5405   5.428   5.662   6.264
 1170SOL     OW 5406  11.084  10.760   8.688
 1170SOL    HW1 5407  10.994  10.770   8.655
 1170SOL    HW2 5408  11.073  10.712   8.771
 1171SOL     OW 5409   8.729   7.660   3.622
 1171SOL    HW1 5410   8.644   7.704   3.615
 1171SOL    HW2 5411   8.789   7.715   3.572
 1172SOL     OW 5412   4.789   6.832  10.553
 1172SOL    HW1 5413   4.849   6.849  10.625
 1172SOL    HW2 5414   4.756   6.918  10.529
 1173SOL     OW 5415  11.772   9.175  12.419
 1173SOL    HW1 5416  11.848   9.166  12.477
 1173SOL    HW2 5417  11.697   9.150  12.472
 1174SOL     OW 5418   1.138  11.127   6.837
 1174SOL    HW1 5419   1.121  11.036   6.863
 1174SOL    HW2 5420   1.233  11.135   6.837
 1175SOL     OW 5421  11.354   3.485   5.914
 1175SOL    HW1 5422  11.345   3.473   6.008
 1175SOL    HW2 5423  11.440   3.451   5.893
 1176SOL     OW 5424   4.734   7.245  14.704
 1176SOL    HW1 5425   4.690   7.323  14.737
 1176SOL    HW2 5426   4.664   7.181  14.689
 1177SOL     OW 5427  14.185   5.418  12.725
 1177SOL    HW1 5428  14.207   5.334  12.767
 1177SOL    HW2 5429  14.211   5.484  12.788
 1178SOL     OW 5430   3.482  11.538   0.487
 1178SOL    HW1 5431   3.441  11.610   0.535
 1178SOL    HW2 5432   3.409  11.481   0.463
 1179SOL     OW 5433  13.544   8.868   4.998
 1179SOL    HW1 5434  13.531   8.844   4.906
 1179SOL    HW2 5435  13.456   8.877   5.033
 1180SOL     OW 5436   5.755   8.099  12.863
 1180SOL    HW1 5437   5.751   8.159  12.788
 1180SOL    HW2 5438   5.838   8.052  12.852
 1181SOL     OW 5439   0.364   7.128   8.054
 1181SOL    HW1 5440   0.425   7.096   7.988
 1181SOL    HW2 5441   0.277   7.115   8.015
 1182SOL     OW 5442   9.039  12.860   9.761
 1182SOL    HW1 5443   9.035  12.788   9.699
 1182SOL    HW2 5444   9.005  12.824   9.843
 1183SOL     OW 5445   4.113  13.321  12.020
 1183SOL    HW1 5446   4.067  13.242  12.048
 1183SOL    HW2 5447   4.205  13.294  12.012
 1184SOL     OW 5448  12.494   2.908   5.044
 1184SOL    HW1 5449  12.461   2.904   5.134
 1184SOL    HW2 5450  12.565   2.972   5.047
 1185SOL     OW 5451   7.566  13.474   4.387
 1185SOL    HW1 5452   7.517  13.393   4.396
 1185SOL    HW2 5453   7.503  13.535   4.347
 1186SOL     OW 5454   9.467   1.423   9.292
 1186SOL    HW1 5455   9.501   1.410   9.381
 1186SOL    HW2 5456   9.427   1.340   9.270
 1187SOL     OW 5457   5.202   8.555  13.949
 1187SOL    HW1 5458   5.284   8.596  13.977
 1187SOL    HW2 5459   5.196   8.475  14.001
 1188SOL     OW 5460  13.728  11.103   1.114
 1188SOL    HW1 5461  13.768  11.181   1.077
 1188SOL    HW2 5462  13.765  11.031   1.062
 1189SOL     OW 5463   7.086   7.765   9.005
 1189SOL    HW1 5464   7.096   7.753   9.099
 1189SOL    HW2 5465   6.994   7.789   8.993
 1190SOL     OW 5466   0.328  12.958   3.011
 1190SOL    HW1 5467   0.405  12.906   3.034
 1190SOL    HW2 5468   0.358  13.014   2.939
 1191SOL     OW 5469   0.772   8.711   0.755
 1191SOL    HW1 5470   0.742   8.664   0.832
 1191SOL    HW2 5471   0.780   8.644   0.687
 1192SOL     OW 5472   5.058   7.528  11.356
 1192SOL    HW1 5473   5.128   7.479  11.399
 1192SOL    HW2 5474   5.043   7.603  11.413
 1193SOL     OW 5475  13.992   3.347  12.082
 1193SOL    HW1 5476  13.977   3.259  12.046
 1193SOL    HW2 5477  14.039   3.331  12.164
 1194SOL     OW 5478   0.474   3.611  14.096
 1194SOL    HW1 5479   0.431   3.604  14.011
 1194SOL    HW2 5480   0.521   3.694  14.092
 1195SOL     OW 5481  11.552  10.264  11.643
 1195SOL    HW1 5482  11.474  10.228  11.686
 1195SOL    HW2 5483  11.601  10.307  11.713
 1196SOL     OW 5484   2.602  10.795  11.772
 1196SOL    HW1 5485   2.665  10.797  11.700
 1196SOL    HW2 5486   2.583  10.703  11.785
 1197SOL     OW 5487   2.909   5.482   1.517
 1197SOL    HW1 5488   2.950   5.533   1.448
 1197SOL    HW2 5489   2.856   5.545   1.567
 1198SOL     OW 5490   4.810   4.745   3.877
 1198SOL    HW1 5491   4.827   4.837   3.857
 1198SOL    HW2 5492   4.870   4.696   3.820
 1199SOL     OW 5493   1.882   8.744  10.006
 1199SOL    HW1 5494   1.950   8.688  10.045
 1199SOL    HW2 5495   1.884   8.824  10.059
 1200SOL     OW 5496   1.978   6.390   4.531
 1200SOL    HW1 5497   1.903   6.373   4.474
 1200SOL    HW2 5498   2.007   6.304   4.560
 1201SOL     OW 5499   1.497  10.163   9.208
 1201SOL    HW1 5500   1.589  10.187   9.215
 1201SOL    HW2 5501   1.498  10.070   9.185
 1202SOL     OW 5502   2.964   0.895  13.157
 1202SOL    HW1 5503   3.015   0.864  13.083
 1202SOL    HW2 5504   2.970   0.824  13.221
 1203SOL     OW 5505   7.697  12.836  10.719
 1203SOL    HW1 5506   7.692  12.931  10.709
 1203SOL    HW2 5507   7.625  12.803  10.666
 1204SOL     OW 5508   1.157  12.355   6.761
 1204SOL    HW1 5509   1.202  12.353   6.845
 1204SOL    HW2 5510   1.064  12.347   6.783
 1205SOL     OW 5511  13.769   7.531   4.613
 1205SOL    HW1 5512  13.794   7.449   4.655
 1205SOL    HW2 5513  13.674   7.525   4.603
 1206SOL     OW 5514   1.420   1.767   4.171
 1206SOL    HW1 5515   1.352   1.835   4.174
 1206SOL    HW2 5516   1.378   1.690   4.209
 1207SOL     OW 5517   2.033  13.316   8.005
 1207SOL    HW1 5518   1.946  13.322   8.045
 1207SOL    HW2 5519   2.016  13.291   7.914
 1208SOL     OW 5520  13.860   6.659  11.371
 1208SOL    HW1 5521  13.802   6.694  11.439
 1208SOL    HW2 5522  13.876   6.734  11.313
 1209SOL     OW 5523   6.456   6.201   9.746
 1209SOL    HW1 5524   6.526   6.223   9.806
 1209SOL    HW2 5525   6.500   6.162   9.670
 1210SOL     OW 5526  14.657   8.531   1.243
 1210SOL    HW1 5527  14.708   8.578   1.176
 1210SOL    HW2 5528  14.654   8.591   1.318
 1211SOL     OW 5529  14.844   6.237   0.073
 1211SOL    HW1 5530  14.845   6.145   0.096
 1211SOL    HW2 5531  14.759   6.269   0.104
 1212SOL     OW 5532   2.545   0.562  13.087
 1212SOL    HW1 5533   2.563   0.656  13.076
 1212SOL    HW2 5534   2.468   0.546  13.032
 1213SOL     OW 5535  13.185  10.978   8.925
 1213SOL    HW1 5536  13.270  10.947   8.895
 1213SOL    HW2 5537  13.163  10.922   9.000
 1214SOL     OW 5538   6.303   5.752   0.853
 1214SOL    HW1 5539   6.343   5.801   0.781
 1214SOL    HW2 5540   6.304   5.812   0.927
 1215SOL     OW 5541   3.387  10.914  12.897
 1215SOL    HW1 5542   3.338  10.974  12.954
 1215SOL    HW2 5543   3.449  10.970  12.851
 1216SOL     OW 5544  14.144   6.637  14.743
 1216SOL    HW1 5545  14.203   6.655  14.671
 1216SOL    HW2 5546  14.071   6.589  14.704
 1217SOL     OW 5547   3.887   8.719   1.786
 1217SOL    HW1 5548   3.965   8.740   1.837
 1217SOL    HW2 5549   3.876   8.793   1.727
 1218SOL     OW 5550   8.780  13.015   3.822
 1218SOL    HW1 5551   8.738  12.932   3.801
 1218SOL    HW2 5552   8.867  12.991   3.853
 1219SOL     OW 5553  11.157   3.371   3.618
 1219SOL    HW1 5554  11.075   3.385   3.571
 1219SOL    HW2 5555  11.221   3.356   3.548
 1220SOL     OW 5556   7.429  13.920   9.692
 1220SOL    HW1 5557   7.395  13.849   9.747
 1220SOL    HW2 5558   7.523  13.900   9.683
 1221SOL     OW 5559  11.506  13.368  12.978
 1221SOL    HW1 5560  11.499  13.273  12.990
 1221SOL    HW2 5561  11.424  13.392  12.935
 1222SOL     OW 5562   7.473   2.718   3.381
 1222SOL    HW1 5563   7.469   2.658   3.306
 1222SOL    HW2 5564   7.501   2.801   3.343
 1223SOL     OW 5565   5.483  14.869   1.276
 1223SOL    HW1 5566   5.433  14.877   1.195
 1223SOL    HW2 5567   5.515  14.779   1.277
 1224SOL     OW 5568   8.604  11.963   8.305
 1224SOL    HW1 5569   8.542  11.904   8.262
 1224SOL    HW2 5570   8.645  11.910   8.373
 1225SOL     OW 5571  12.238   5.123   1.265
 1225SOL    HW1 5572  12.253   5.194   1.328
 1225SOL    HW2 5573  12.200   5.052   1.317
 1226SOL     OW 5574   9.402  10.973   3.957
 1226SOL    HW1 5575   9.389  11.057   3.914
 1226SOL    HW2 5576   9.361  10.909   3.898
 1227SOL     OW 5577  11.811   3.903   1.154
 1227SOL    HW1 5578  11.885   3.938   1.202
 1227SOL    HW2 5579  11.770   3.841   1.214
 1228SOL     OW 5580   4.662  10.809   9.649
 1228SOL    HW1 5581   4.710  10.785   9.728
 1228SOL    HW2 5582   4.626  10.726   9.617
 1229SOL     OW 5583   9.775  14.097   1.387
 1229SOL    HW1 5584   9.729  14.177   1.412
 1229SOL    HW2 5585   9.796  14.054   1.470
 1230SOL     OW 5586   2.707  11.203  14.802
 1230SOL    HW1 5587   2.761  11.170  14.730
 1230SOL    HW2 5588   2.691  11.295  14.780
 1231SOL     OW 5589  13.697   9.291   3.557
 1231SOL    HW1 5590  13.763   9.267   3.492
 1231SOL    HW2 5591  13.742   9.283   3.641
 1232SOL     OW 5592   8.327   4.847  10.557
 1232SOL    HW1 5593   8.411   4.850  10.512
 1232SOL    HW2 5594   8.280   4.774  10.517
 1233SOL     OW 5595  11.943   5.436   5.956
 1233SOL    HW1 5596  11.922   5.519   5.914
 1233SOL    HW2 5597  12.034   5.446   5.985
 1234SOL     OW 5598   5.690  14.864   3.513
 1234SOL    HW1 5599   5.706  14.805   3.439
 1234SOL    HW2 5600   5.760  14.845   3.575
 1235SOL     OW 5601   0.910  11.517  11.990
 1235SOL    HW1 5602   0.945  11.581  11.928
 1235SOL    HW2 5603   0.815  11.523  11.980
 1236SOL     OW 5604   3.300   3.361  10.771
 1236SOL    HW1 5605   3.360   3.427  10.735
 1236SOL    HW2 5606   3.288   3.298  10.700
 1237SOL     OW 5607   4.072   6.198   7.883
 1237SOL    HW1 5608   4.113   6.112   7.891
 1237SOL    HW2 5609   3.993   6.193   7.935
 1238SOL     OW 5610   6.899  13.404   1.098
 1238SOL    HW1 5611   6.926  13.453   1.176
 1238SOL    HW2 5612   6.826  13.350   1.128
 1239SOL     OW 5613   7.702  12.246  14.452
 1239SOL    HW1 5614   7.638  12.265  14.384
 1239SOL    HW2 5615   7.669  12.290  14.530
 1240SOL     OW 5616  13.661  14.109  12.802
 1240SOL    HW1 5617  13.745  14.146  12.775
 1240SOL    HW2 5618  13.611  14.184  12.835
 1241SOL     OW 5619  13.634   5.397   1.715
 1241SOL    HW1 5620  13.674   5.321   1.757
 1241SOL    HW2 5621  13.624   5.461   1.785
 1242SOL     OW 5622   5.268   4.096   1.599
 1242SOL    HW1 5623   5.334   4.147   1.553
 1242SOL    HW2 5624   5.311   4.012   1.618
 1243SOL     OW 5625   8.996   8.496   7.482
 1243SOL    HW1 5626   9.004   8.436   7.556
 1243SOL    HW2 5627   8.923   8.554   7.505
 1244SOL     OW 5628  10.602   0.489   4.225
 1244SOL    HW1 5629  10.591   0.500   4.131
 1244SOL    HW2 5630  10.635   0.399   4.235
 1245SOL     OW 5631   9.436   8.794  12.685
 1245SOL    HW1 5632   9.408   8.815  12.774
 1245SOL    HW2 5633   9.398   8.708  12.667
 1246SOL     OW 5634   1.123   3.142  10.984
 1246SOL    HW1 5635   1.211   3.171  10.957
 1246SOL    HW2 5636   1.065   3.211  10.952
 1247SOL     OW 5637  12.209   7.033   6.360
 1247SOL    HW1 5638  12.204   7.054   6.453
 1247SOL    HW2 5639  12.265   6.956   6.356
 1248SOL     OW 5640   6.310  12.793  11.286
 1248SOL    HW1 5641   6.256  12.871  11.275
 1248SOL    HW2 5642   6.247  12.724  11.307
 1249SOL     OW 5643   0.100   2.610   0.567
 1249SOL    HW1 5644   0.157   2.577   0.498
 1249SOL    HW2 5645   0.042   2.672   0.523
 1250SOL     OW 5646  13.216   8.272   7.681
 1250SOL    HW1 5647  13.181   8.357   7.653
 1250SOL    HW2 5648  13.251   8.288   7.768
 1251SOL     OW 5649  10.677  13.392   3.233
 1251SOL    HW1 5650  10.712  13.388   3.144
 1251SOL    HW2 5651  10.589  13.354   3.226
 1252SOL     OW 5652   3.447  13.074   4.080
 1252SOL    HW1 5653   3.520  13.085   4.141
 1252SOL    HW2 5654   3.376  13.039   4.135
 1253SOL     OW 5655   1.785   9.617  13.453
 1253SOL    HW1 5656   1.732   9.573  13.520
 1253SOL    HW2 5657   1.802   9.704  13.489
 1254SOL     OW 5658   6.310   1.050  12.606
 1254SOL    HW1 5659   6.231   1.002  12.630
 1254SOL    HW2 5660   6.350   0.997  12.537
 1255SOL     OW 5661   4.356  11.515  12.712
 1255SOL    HW1 5662   4.311  11.594  12.683
 1255SOL    HW2 5663   4.285  11.456  12.740
 1256SOL     OW 5664   3.197   9.893  14.425
 1256SOL    HW1 5665   3.203   9.948  14.347
 1256SOL    HW2 5666   3.270   9.923  14.480
 1257SOL     OW 5667   7.035   3.612   3.732
 1257SOL    HW1 5668   7.126   3.616   3.703
 1257SOL    HW2 5669   7.038   3.565   3.815
 1258SOL     OW 5670   1.138   2.037   4.447
 1258SOL    HW1 5671   1.120   2.042   4.541
 1258SOL    HW2 5672   1.134   2.127   4.417
 1259SOL     OW 5673   8.161  10.636   1.147
 1259SOL    HW1 5674   8.185  10.659   1.236
 1259SOL    HW2 5675   8.074  10.598   1.155
 1260SOL     OW 5676  13.081   7.784  14.415
 1260SOL    HW1 5677  13.149   7.818  14.474
 1260SOL    HW2 5678  13.120   7.789  14.328
 1261SOL     OW 5679  10.631  14.272   4.446
 1261SOL    HW1 5680  10.637  14.334   4.373
 1261SOL    HW2 5681  10.705  14.293   4.502
 1262SOL     OW 5682   1.603   1.597  12.695
 1262SOL    HW1 5683   1.588   1.638  12.610
 1262SOL    HW2 5684   1.695   1.617  12.715
 1263SOL     OW 5685   8.694  12.575   4.601
 1263SOL    HW1 5686   8.653  12.661   4.609
 1263SOL    HW2 5687   8.751  12.569   4.678
 1264SOL     OW 5688  12.372  11.029   8.109
 1264SOL    HW1 5689  12.394  10.944   8.146
 1264SOL    HW2 5690  12.456  11.075   8.105
 1265SOL     OW 5691  11.633  12.794  13.117
 1265SOL    HW1 5692  11.678  12.845  13.050
 1265SOL    HW2 5693  11.546  12.832  13.122
 1266SOL     OW 5694   8.127   9.061   7.710
 1266SOL    HW1 5695   8.074   8.981   7.704
 1266SOL    HW2 5696   8.217   9.030   7.706
 1267SOL     OW 5697   8.857   0.408   0.655
 1267SOL    HW1 5698   8.848   0.462   0.576
 1267SOL    HW2 5699   8.937   0.357   0.640
 1268SOL     OW 5700   6.748   1.225  12.580
 1268SOL    HW1 5701   6.654   1.244  12.580
 1268SOL    HW2 5702   6.753   1.131  12.597
 1269SOL     OW 5703  12.701  11.284   5.171
 1269SOL    HW1 5704  12.772  11.265   5.233
 1269SOL    HW2 5705  12.628  11.230   5.201
 1270SOL     OW 5706  14.249   2.488   1.622
 1270SOL    HW1 5707  14.268   2.555   1.557
 1270SOL    HW2 5708  14.300   2.412   1.593
 1271SOL     OW 5709  10.925   2.808   2.430
 1271SOL    HW1 5710  10.854   2.870   2.411
 1271SOL    HW2 5711  10.952   2.776   2.344
 1272SOL     OW 5712   2.674   8.038   4.312
 1272SOL    HW1 5713   2.692   7.947   4.337
 1272SOL    HW2 5714   2.754   8.085   4.333
 1273SOL     OW 5715   6.947  11.947  13.714
 1273SOL    HW1 5716   6.998  11.899  13.779
 1273SOL    HW2 5717   6.856  11.935  13.741
 1274SOL     OW 5718  13.850   5.962   9.086
 1274SOL    HW1 5719  13.780   5.906   9.118
 1274SOL    HW2 5720  13.809   6.047   9.073
 1275SOL     OW 5721   9.474   5.245  12.940
 1275SOL    HW1 5722   9.469   5.281  13.029
 1275SOL    HW2 5723   9.413   5.299  12.890
 1276SOL     OW 5724   3.011  12.455   7.428
 1276SOL    HW1 5725   2.924  12.494   7.422
 1276SOL    HW2 5726   3.041  12.451   7.337
 1277SOL     OW 5727  10.887  13.438  10.452
 1277SOL    HW1 5728  10.926  13.394  10.527
 1277SOL    HW2 5729  10.801  13.466  10.483
 1278SOL     OW 5730   7.905  12.436   3.788
 1278SOL    HW1 5731   7.910  12.487   3.707
 1278SOL    HW2 5732   7.812  12.414   3.796
 1279SOL     OW 5733   5.949  10.927  11.529
 1279SOL    HW1 5734   5.873  10.902  11.475
 1279SOL    HW2 5735   5.988  11.000  11.482
 1280SOL     OW 5736   5.112   4.788  12.958
 1280SOL    HW1 5737   5.142   4.706  12.996
 1280SOL    HW2 5738   5.018   4.777  12.949
 1281SOL     OW 5739   2.406   4.921   4.916
 1281SOL    HW1 5740   2.337   4.971   4.960
 1281SOL    HW2 5741   2.418   4.843   4.970
 1282SOL     OW 5742  13.572   8.262  10.055
 1282SOL    HW1 5743  13.558   8.353  10.083
 1282SOL    HW2 5744  13.658   8.239  10.089
 1283SOL     OW 5745   2.711  10.925   1.112
 1283SOL    HW1 5746   2.760  10.993   1.065
 1283SOL    HW2 5747   2.701  10.959   1.200
 1284SOL     OW 5748   5.135   3.807   5.253
 1284SOL    HW1 5749   5.155   3.744   5.183
 1284SOL    HW2 5750   5.221   3.830   5.289
 1285SOL     OW 5751   4.418  10.128  10.295
 1285SOL    HW1 5752   4.341  10.091  10.339
 1285SOL    HW2 5753   4.407  10.103  10.204
 1286SOL     OW 5754  12.980   7.592   2.856
 1286SOL    HW1 5755  12.924   7.623   2.785
 1286SOL    HW2 5756  12.937   7.512   2.888
 1287SOL     OW 5757   9.067   5.468   9.364
 1287SOL    HW1 5758   9.116   5.403   9.313
 1287SOL    HW2 5759   9.084   5.551   9.320
 1288SOL     OW 5760   3.979   8.349  12.551
 1288SOL    HW1 5761   3.989   8.258  12.578
 1288SOL    HW2 5762   3.967   8.397  12.633
 1289SOL     OW 5763   9.175  11.597  14.638
 1289SOL    HW1 5764   9.092  11.564  14.672
 1289SOL    HW2 5765   9.238  11.527  14.655
 1290SOL     OW 5766   8.019   7.408   7.675
 1290SOL    HW1 5767   7.961   7.333   7.687
 1290SOL    HW2 5768   7.962   7.485   7.685
 1291SOL     OW 5769   0.009   8.998  11.831
 1291SOL    HW1 5770   0.079   8.986  11.895
 1291SOL    HW2 5771   0.055   9.014  11.748
 1292SOL     OW 5772  13.226   0.970  10.848
 1292SOL    HW1 5773  13.208   1.008  10.934
 1292SOL    HW2 5774  13.170   0.893  10.844
 1293SOL     OW 5775   1.656  11.900   4.175
 1293SOL    HW1 5776   1.632  11.989   4.148
 1293SOL    HW2 5777   1.684  11.910   4.266
 1294SOL     OW 5778   7.736   0.638   5.068
 1294SOL    HW1 5779   7.714   0.553   5.105
 1294SOL    HW2 5780   7.665   0.695   5.097
 1295SOL     OW 5781  14.746  10.457   7.693
 1295SOL    HW1 5782  14.835  10.487   7.714
 1295SOL    HW2 5783  14.756  10.406   7.613
 1296SOL     OW 5784  12.378   2.851  13.435
 1296SOL    HW1 5785  12.468   2.880  13.450
 1296SOL    HW2 5786  12.381   2.804  13.352
 1297SOL     OW 5787  12.590  13.447   5.999
 1297SOL    HW1 5788  12.542  13.442   5.916
 1297SOL    HW2 5789  12.677  13.414   5.978
 1298SOL     OW 5790   1.445  13.565  11.384
 1298SOL    HW1 5791   1.411  13.617  11.457
 1298SOL    HW2 5792   1.457  13.628  11.313
 1299SOL     OW 5793   2.922   2.128  11.493
 1299SOL    HW1 5794   2.946   2.115  11.401
 1299SOL    HW2 5795   3.005   2.123  11.540
 1300SOL     OW 5796   9.014  11.806   0.088
 1300SOL    HW1 5797   8.994  11.896   0.115
 1300SOL    HW2 5798   9.008  11.756   0.170
 1301SOL     OW 5799   2.570   7.511   5.175
 1301SOL    HW1 5800   2.578   7.421   5.207
 1301SOL    HW2 5801   2.545   7.501   5.083
 1302SOL     OW 5802  13.263   0.675   2.388
 1302SOL    HW1 5803  13.343   0.630   2.416
 1302SOL    HW2 5804  13.289   0.724   2.310
 1303SOL     OW 5805  10.594  11.402  10.284
 1303SOL    HW1 5806  10.688  11.422  10.278
 1303SOL    HW2 5807  10.591  11.308  10.302
 1304SOL     OW 5808   6.857   9.485   7.097
 1304SOL    HW1 5809   6.823   9.405   7.058
 1304SOL    HW2 5810   6.789   9.513   7.158
 1305SOL     OW 5811   0.914   7.528   4.745
 1305SOL    HW1 5812   0.846   7.481   4.795
 1305SOL    HW2 5813   0.941   7.466   4.678
 1306SOL     OW 5814   3.356  14.068  14.398
 1306SOL    HW1 5815   3.436  14.120  14.407
 1306SOL    HW2 5816   3.376  14.006  14.328
 1307SOL     OW 5817   5.154   2.588  14.102
 1307SOL    HW1 5818   5.236   2.603  14.056
 1307SOL    HW2 5819   5.132   2.496  14.086
 1308SOL     OW 5820   3.965   3.105   6.157
 1308SOL    HW1 5821   3.953   3.198   6.139
 1308SOL    HW2 5822   4.047   3.101   6.206
 1309SOL     OW 5823  13.529  11.021   2.457
 1309SOL    HW1 5824  13.446  10.979   2.436
 1309SOL    HW2 5825  13.540  11.088   2.390
 1310SOL     OW 5826   3.993   3.011   4.341
 1310SOL    HW1 5827   3.954   3.064   4.272
 1310SOL    HW2 5828   4.009   3.073   4.412
 1311SOL     OW 5829   0.375   3.456   1.053
 1311SOL    HW1 5830   0.320   3.398   1.106
 1311SOL    HW2 5831   0.406   3.522   1.114
 1312SOL     OW 5832   0.129  12.821   3.103
 1312SOL    HW1 5833   0.106  12.764   3.030
 1312SOL    HW2 5834   0.205  12.871   3.073
 1313SOL     OW 5835   6.952  11.226  12.989
 1313SOL    HW1 5836   7.020  11.285  12.957
 1313SOL    HW2 5837   6.887  11.283  13.028
 1314SOL     OW 5838   1.711   3.556   2.183
 1314SOL    HW1 5839   1.660   3.506   2.119
 1314SOL    HW2 5840   1.649   3.580   2.251
 1315SOL     OW 5841   1.148  12.048   2.768
 1315SOL    HW1 5842   1.169  11.974   2.824
 1315SOL    HW2 5843   1.095  12.010   2.697
 1316SOL     OW 5844  12.593   0.817   2.526
 1316SOL    HW1 5845  12.653   0.887   2.500
 1316SOL    HW2 5846  12.506   0.857   2.520
 1317SOL     OW 5847   8.229  12.828   1.105
 1317SOL    HW1 5848   8.223  12.894   1.174
 1317SOL    HW2 5849   8.144  12.832   1.060
 1318SOL     OW 5850   4.491  12.635   5.587
 1318SOL    HW1 5851   4.482  12.619   5.493
 1318SOL    HW2 5852   4.412  12.599   5.626
 1319SOL     OW 5853  13.433   1.466   4.080
 1319SOL    HW1 5854  13.505   1.512   4.123
 1319SOL    HW2 5855  13.354   1.513   4.107
 1320SOL     OW 5856  14.298   6.590   3.225
 1320SOL    HW1 5857  14.205   6.590   3.245
 1320SOL    HW2 5858  14.309   6.656   3.157
 1321SOL     OW 5859   7.327  13.339  13.022
 1321SOL    HW1 5860   7.303  13.327  13.113
 1321SOL    HW2 5861   7.385  13.415  13.021
 1322SOL     OW 5862   5.664  11.201   4.933
 1322SOL    HW1 5863   5.737  11.204   4.995
 1322SOL    HW2 5864   5.625  11.114   4.946
 1323SOL     OW 5865   0.007   2.231   5.510
 1323SOL    HW1 5866  14.873   2.247   5.417
 1323SOL    HW2 5867   0.102   2.227   5.523
 1324SOL     OW 5868  10.914   9.827   8.204
 1324SOL    HW1 5869  10.875   9.909   8.235
 1324SOL    HW2 5870  10.842   9.764   8.206
 1325SOL     OW 5871   2.674  10.767   1.995
 1325SOL    HW1 5872   2.672  10.796   1.904
 1325SOL    HW2 5873   2.763  10.786   2.025
 1326SOL     OW 5874   1.312  12.801  12.145
 1326SOL    HW1 5875   1.369  12.802  12.068
 1326SOL    HW2 5876   1.373  12.807  12.219
 1327SOL     OW 5877   4.740   1.598   2.703
 1327SOL    HW1 5878   4.829   1.633   2.700
 1327SOL    HW2 5879   4.749   1.510   2.739
 1328SOL     OW 5880   0.960   6.532   6.762
 1328SOL    HW1 5881   0.920   6.446   6.749
 1328SOL    HW2 5882   0.971   6.567   6.674
 1329SOL     OW 5883   0.954  10.505   3.386
 1329SOL    HW1 5884   1.015  10.578   3.384
 1329SOL    HW2 5885   0.975  10.455   3.307
 1330SOL     OW 5886  13.209  12.544   6.509
 1330SOL    HW1 5887  13.191  12.635   6.488
 1330SOL    HW2 5888  13.124  12.508   6.534
 1331SOL     OW 5889  14.486  11.755   4.238
 1331SOL    HW1 5890  14.564  11.810   4.249
 1331SOL    HW2 5891  14.465  11.763   4.145
 1332SOL     OW 5892   9.239   2.717   0.198
 1332SOL    HW1 5893   9.270   2.629   0.181
 1332SOL    HW2 5894   9.315   2.763   0.234
 1333SOL     OW 5895   5.734  10.646  12.991
 1333SOL    HW1 5896   5.658  10.642  13.050
 1333SOL    HW2 5897   5.808  10.663  13.049
 1334SOL     OW 5898   9.154  12.242   0.490
 1334SOL    HW1 5899   9.193  12.208   0.571
 1334SOL    HW2 5900   9.117  12.166   0.447
 1335SOL     OW 5901   8.102   2.209   4.670
 1335SOL    HW1 5902   8.011   2.193   4.697
 1335SOL    HW2 5903   8.111   2.162   4.588
 1336SOL     OW 5904  12.043   7.320   9.098
 1336SOL    HW1 5905  12.056   7.227   9.117
 1336SOL    HW2 5906  12.045   7.363   9.183
 1337SOL     OW 5907   4.978   3.731  10.638
 1337SOL    HW1 5908   4.953   3.770  10.555
 1337SOL    HW2 5909   4.898   3.735  10.691
 1338SOL     OW 5910   9.579   2.913   4.853
 1338SOL    HW1 5911   9.512   2.982   4.857
 1338SOL    HW2 5912   9.617   2.911   4.940
 1339SOL     OW 5913   1.263   1.117   5.400
 1339SOL    HW1 5914   1.250   1.196   5.348
 1339SOL    HW2 5915   1.356   1.097   5.391
 1340SOL     OW 5916   4.978  10.658   5.495
 1340SOL    HW1 5917   4.933  10.578   5.467
 1340SOL    HW2 5918   4.949  10.725   5.433
 1341SOL     OW 5919   7.181   6.770   3.183
 1341SOL    HW1 5920   7.183   6.856   3.224
 1341SOL    HW2 5921   7.144   6.786   3.096
 1342SOL     OW 5922   6.315   2.500   2.420
 1342SOL    HW1 5923   6.286   2.554   2.494
 1342SOL    HW2 5924   6.402   2.534   2.399
 1343SOL     OW 5925   5.422  12.636   4.798
 1343SOL    HW1 5926   5.334  12.613   4.829
 1343SOL    HW2 5927   5.449  12.561   4.745
 1344SOL     OW 5928  10.193   8.235   0.747
 1344SOL    HW1 5929  10.115   8.198   0.788
 1344SOL    HW2 5930  10.231   8.289   0.816
 1345SOL     OW 5931   4.748  11.006   6.671
 1345SOL    HW1 5932   4.740  10.952   6.592
 1345SOL    HW2 5933   4.824  11.062   6.653
 1346SOL     OW 5934  11.151  11.366   7.275
 1346SOL    HW1 5935  11.124  11.275   7.289
 1346SOL    HW2 5936  11.230  11.376   7.327
 1347SOL     OW 5937  11.534  13.921  13.543
 1347SOL    HW1 5938  11.504  14.000  13.499
 1347SOL    HW2 5939  11.619  13.944  13.579
 1348SOL     OW 5940   5.568  14.729  11.395
 1348SOL    HW1 5941   5.645  14.677  11.372
 1348SOL    HW2 5942   5.599  14.820  11.391
 1349SOL     OW 5943  11.857   4.941   9.107
 1349SOL    HW1 5944  11.802   5.002   9.157
 1349SOL    HW2 5945  11.936   4.931   9.160
 1350SOL     OW 5946   4.491   1.768  10.981
 1350SOL    HW1 5947   4.561   1.709  10.954
 1350SOL    HW2 5948   4.439   1.782  10.902
 1351SOL     OW 5949   8.984   3.488   4.947
 1351SOL    HW1 5950   9.022   3.530   5.024
 1351SOL    HW2 5951   8.992   3.555   4.878
 1352SOL     OW 5952  13.522   3.900   7.570
 1352SOL    HW1 5953  13.615   3.923   7.572
 1352SOL    HW2 5954  13.521   3.807   7.589
 1353SOL     OW 5955   6.010  11.911  13.962
 1353SOL    HW1 5956   6.047  11.911  13.874
 1353SOL    HW2 5957   6.085  11.897  14.020
 1354SOL     OW 5958  14.220  11.582   0.512
 1354SOL    HW1 5959  14.195  11.501   0.466
 1354SOL    HW2 5960  14.303  11.608   0.472
 1355SOL     OW 5961   6.122   5.159   4.432
 1355SOL    HW1 5962   6.073   5.089   4.476
 1355SOL    HW2 5963   6.084   5.164   4.344
 1356SOL     OW 5964  12.157   6.427   4.085
 1356SOL    HW1 5965  12.125   6.337   4.094
 1356SOL    HW2 5966  12.248   6.423   4.111
 1357SOL     OW 5967  10.789   7.925   0.937
 1357SOL    HW1 5968  10.811   7.953   1.026
 1357SOL    HW2 5969  10.868   7.946   0.886
 1358SOL     OW 5970   3.664  10.694   7.064
 1358SOL    HW1 5971   3.657  10.788   7.079
 1358SOL    HW2 5972   3.748  10.683   7.019
 1359SOL     OW 5973  13.434   3.600   3.539
 1359SOL    HW1 5974  13.361   3.640   3.491
 1359SOL    HW2 5975  13.430   3.507   3.516
 1360SOL     OW 5976   5.949  13.215   4.359
 1360SOL    HW1 5977   5.885  13.278   4.325
 1360SOL    HW2 5978   5.909  13.182   4.440
 1361SOL     OW 5979   2.921  11.364   2.775
 1361SOL    HW1 5980   2.939  11.324   2.691
 1361SOL    HW2 5981   2.875  11.445   2.753
 1362SOL     OW 5982   0.733  12.912   0.804
 1362SOL    HW1 5983   0.791  12.836   0.811
 1362SOL    HW2 5984   0.726  12.945   0.893
 1363SOL     OW 5985  14.420  11.583  11.882
 1363SOL    HW1 5986  14.353  11.622  11.939
 1363SOL    HW2 5987  14.393  11.607  11.793
 1364SOL     OW 5988   2.150   5.502   2.508
 1364SOL    HW1 5989   2.091   5.438   2.548
 1364SOL    HW2 5990   2.145   5.483   2.414
 1365SOL     OW 5991  12.112   4.473   0.805
 1365SOL    HW1 5992  12.047   4.428   0.859
 1365SOL    HW2 5993  12.075   4.560   0.791
 1366SOL     OW 5994   0.263   1.779   1.663
 1366SOL    HW1 5995   0.198   1.846   1.685
 1366SOL    HW2 5996   0.340   1.803   1.715
 1367SOL     OW 5997   8.265   0.368   4.598
 1367SOL    HW1 5998   8.220   0.284   4.589
 1367SOL    HW2 5999   8.195   0.433   4.595
 1368SOL     OW 6000   5.439  10.185   4.848
 1368SOL    HW1 6001   5.490  10.108   4.874
 1368SOL    HW2 6002   5.505  10.250   4.823
 1369SOL     OW 6003   2.735   8.729  10.141
 1369SOL    HW1 6004   2.820   8.772  10.131
 1369SOL    HW2 6005   2.691   8.744  10.057
 1370SOL     OW 6006   7.837  14.304   3.577
 1370SOL    HW1 6007   7.903  14.250   3.621
 1370SOL    HW2 6008   7.818  14.259   3.495
 1371SOL     OW 6009   6.191  13.953   2.781
 1371SOL    HW1 6010   6.160  13.978   2.694
 1371SOL    HW2 6011   6.239  14.030   2.812
 1372SOL     OW 6012   8.218   2.211  12.695
 1372SOL    HW1 6013   8.306   2.183  12.670
 1372SOL    HW2 6014   8.204   2.172  12.781
 1373SOL     OW 6015  12.326   6.360  14.167
 1373SOL    HW1 6016  12.283   6.416  14.232
 1373SOL    HW2 6017  12.365   6.289  14.218
 1374SOL     OW 6018   5.489  14.042   0.286
 1374SOL    HW1 6019   5.436  13.987   0.228
 1374SOL    HW2 6020   5.441  14.125   0.291
 1375SOL     OW 6021   9.244   4.957   0.243
 1375SOL    HW1 6022   9.218   4.992   0.157
 1375SOL    HW2 6023   9.257   4.864   0.228
 1376SOL     OW 6024  12.370   1.715   1.715
 1376SOL    HW1 6025  12.419   1.702   1.635
 1376SOL    HW2 6026  12.318   1.794   1.699
 1377SOL     OW 6027  11.699   7.670   5.889
 1377SOL    HW1 6028  11.633   7.694   5.954
 1377SOL    HW2 6029  11.725   7.581   5.913
 1378SOL     OW 6030   7.129   8.843  10.629
 1378SOL    HW1 6031   7.041   8.811  10.612
 1378SOL    HW2 6032   7.178   8.821  10.550
 1379SOL     OW 6033   9.918   4.177   9.220
 1379SOL    HW1 6034   9.997   4.209   9.175
 1379SOL    HW2 6035   9.907   4.088   9.188
 1380SOL     OW 6036   2.855  11.132  11.889
 1380SOL    HW1 6037   2.899  11.075  11.953
 1380SOL    HW2 6038   2.786  11.176  11.940
 1381SOL     OW 6039   8.911   1.549  11.472
 1381SOL    HW1 6040   8.961   1.484  11.423
 1381SOL    HW2 6041   8.831   1.503  11.499
 1382SOL     OW 6042   0.883  14.509  11.225
 1382SOL    HW1 6043   0.809  14.501  11.284
 1382SOL    HW2 6044   0.928  14.590  11.252
 1383SOL     OW 6045   3.442   2.509   4.302
 1383SOL    HW1 6046   3.452   2.595   4.343
 1383SOL    HW2 6047   3.527   2.467   4.314
 1384SOL     OW 6048   2.390   3.675   1.032
 1384SOL    HW1 6049   2.431   3.748   1.080
 1384SOL    HW2 6050   2.298   3.700   1.024
 1385SOL     OW 6051   7.271   0.223   1.112
 1385SOL    HW1 6052   7.275   0.146   1.168
 1385SOL    HW2 6053   7.342   0.211   1.049
 1386SOL     OW 6054  12.868  12.522  11.586
 1386SOL    HW1 6055  12.794  12.580  11.604
 1386SOL    HW2 6056  12.849  12.486  11.500
 1387SOL     OW 6057  13.535   7.181   8.061
 1387SOL    HW1 6058  13.522   7.261   8.113
 1387SOL    HW2 6059  13.621   7.192   8.021
 1388SOL     OW 6060   3.463   2.237   4.851
 1388SOL    HW1 6061   3.435   2.244   4.760
 1388SOL    HW2 6062   3.512   2.317   4.868
 1389SOL     OW 6063  12.875  14.572   6.863
 1389SOL    HW1 6064  12.842  14.527   6.941
 1389SOL    HW2 6065  12.867  14.508   6.793
 1390SOL     OW 6066   9.964   7.317  11.493
 1390SOL    HW1 6067   9.956   7.223  11.476
 1390SOL    HW2 6068  10.053   7.339  11.464
 1391SOL     OW 6069  10.417   1.839  12.938
 1391SOL    HW1 6070  10.352   1.819  12.870
 1391SOL    HW2 6071  10.498   1.854  12.889
 1392SOL     OW 6072  11.489   1.500  12.625
 1392SOL    HW1 6073  11.461   1.414  12.655
 1392SOL    HW2 6074  11.409   1.553  12.623
 1393SOL     OW 6075   5.805  10.127  13.943
 1393SOL    HW1 6076   5.760  10.199  13.987
 1393SOL    HW2 6077   5.755  10.049  13.967
 1394SOL     OW 6078   8.680   2.849  14.158
 1394SOL    HW1 6079   8.592   2.812  14.168
 1394SOL    HW2 6080   8.692   2.855  14.063
 1395SOL     OW 6081   0.128   3.935  12.401
 1395SOL    HW1 6082   0.148   3.983  12.481
 1395SOL    HW2 6083   0.092   3.851  12.431
 1396SOL     OW 6084   4.625   0.423   9.201
 1396SOL    HW1 6085   4.597   0.369   9.127
 1396SOL    HW2 6086   4.682   0.366   9.253
 1397SOL     OW 6087   9.899  11.763   0.658
 1397SOL    HW1 6088   9.860  11.709   0.590
 1397SOL    HW2 6089   9.926  11.701   0.726
 1398SOL     OW 6090   5.550   1.938   2.210
 1398SOL    HW1 6091   5.608   1.908   2.140
 1398SOL    HW2 6092   5.604   1.997   2.263
 1399SOL     OW 6093   9.114  10.543   1.703
 1399SOL    HW1 6094   9.144  10.629   1.732
 1399SOL    HW2 6095   9.188  10.506   1.656
 1400SOL     OW 6096   5.830   7.862   1.517
 1400SOL    HW1 6097   5.872   7.915   1.584
 1400SOL    HW2 6098   5.737   7.864   1.539
 1401SOL     OW 6099   5.282   7.962  13.073
 1401SOL    HW1 6100   5.362   7.961  13.020
 1401SOL    HW2 6101   5.218   8.008  13.018
 1402SOL     OW 6102  10.569   1.503   4.438
 1402SOL    HW1 6103  10.559   1.443   4.512
 1402SOL    HW2 6104  10.489   1.493   4.387
 1403SOL     OW 6105   4.871   0.132   0.010
 1403SOL    HW1 6106   4.903   0.044   0.028
 1403SOL    HW2 6107   4.841   0.165   0.095
 1404SOL     OW 6108  13.341   3.679  10.271
 1404SOL    HW1 6109  13.341   3.635  10.186
 1404SOL    HW2 6110  13.433   3.678  10.298
 1405SOL     OW 6111   0.352   6.008   7.037
 1405SOL    HW1 6112   0.346   5.913   7.028
 1405SOL    HW2 6113   0.270   6.034   7.078
 1406SOL     OW 6114   1.518   6.286   7.989
 1406SOL    HW1 6115   1.597   6.234   7.973
 1406SOL    HW2 6116   1.452   6.221   8.017
 1407SOL     OW 6117  12.738   8.830  11.967
 1407SOL    HW1 6118  12.690   8.894  11.914
 1407SOL    HW2 6119  12.670   8.786  12.018
 1408SOL     OW 6120  14.397   4.658   0.518
 1408SOL    HW1 6121  14.381   4.597   0.445
 1408SOL    HW2 6122  14.432   4.603   0.588
 1409SOL     OW 6123   3.019   7.752   5.645
 1409SOL    HW1 6124   3.112   7.737   5.628
 1409SOL    HW2 6125   2.985   7.788   5.563
 1410SOL     OW 6126   4.668  13.264   1.884
 1410SOL    HW1 6127   4.648  13.280   1.792
 1410SOL    HW2 6128   4.750  13.214   1.883
 1411SOL     OW 6129   5.722   1.669   2.186
 1411SOL    HW1 6130   5.723   1.749   2.132
 1411SOL    HW2 6131   5.698   1.599   2.125
 1412SOL     OW 6132   5.809   0.425  13.414
 1412SOL    HW1 6133   5.762   0.377  13.346
 1412SOL    HW2 6134   5.785   0.380  13.495
 1413SOL     OW 6135  14.844  10.750   5.734
 1413SOL    HW1 6136   0.021  10.784   5.664
 1413SOL    HW2 6137  14.767  10.715   5.689
 1414SOL     OW 6138   3.889   1.363  13.496
 1414SOL    HW1 6139   3.921   1.419  13.426
 1414SOL    HW2 6140   3.969   1.329  13.537
 1415SOL     OW 6141  10.777  14.227   4.071
 1415SOL    HW1 6142  10.712  14.282   4.027
 1415SOL    HW2 6143  10.810  14.282   4.142
 1416SOL     OW 6144   4.045   5.525   9.876
 1416SOL    HW1 6145   3.979   5.459   9.897
 1416SOL    HW2 6146   4.070   5.506   9.786
 1417SOL     OW 6147   2.803   4.526   5.574
 1417SOL    HW1 6148   2.895   4.509   5.596
 1417SOL    HW2 6149   2.772   4.444   5.534
 1418SOL     OW 6150   6.902   9.829  12.255
 1418SOL    HW1 6151   6.941   9.763  12.198
 1418SOL    HW2 6152   6.950   9.820  12.338
 1419SOL     OW 6153  14.369   0.590   8.754
 1419SOL    HW1 6154  14.352   0.550   8.669
 1419SOL    HW2 6155  14.379   0.683   8.736
 1420SOL     OW 6156  12.673  11.492  14.708
 1420SOL    HW1 6157  12.645  11.496  14.616
 1420SOL    HW2 6158  12.754  11.544  14.709
 1421SOL     OW 6159   2.586   2.434  14.363
 1421SOL    HW1 6160   2.492   2.433  14.380
 1421SOL    HW2 6161   2.626   2.460  14.446
 1422SOL     OW 6162   9.714  12.676   8.699
 1422SOL    HW1 6163   9.623  12.672   8.670
 1422SOL    HW2 6164   9.709  12.676   8.795
 1423SOL     OW 6165   2.991   9.547  12.033
 1423SOL    HW1 6166   2.995   9.616  12.099
 1423SOL    HW2 6167   3.074   9.501  12.043
 1424SOL     OW 6168   0.069   2.732   7.739
 1424SOL    HW1 6169   0.090   2.679   7.662
 1424SOL    HW2 6170   0.144   2.790   7.749
 1425SOL     OW 6171  14.058  14.089   2.491
 1425SOL    HW1 6172  14.142  14.131   2.506
 1425SOL    HW2 6173  14.018  14.139   2.420
 1426SOL     OW 6174   8.143   7.516  12.555
 1426SOL    HW1 6175   8.134   7.586  12.490
 1426SOL    HW2 6176   8.064   7.463  12.545
 1427SOL     OW 6177   4.367  13.206  12.726
 1427SOL    HW1 6178   4.445  13.194  12.780
 1427SOL    HW2 6179   4.299  13.156  12.770
 1428SOL     OW 6180  11.804   6.490  13.496
 1428SOL    HW1 6181  11.757   6.553  13.551
 1428SOL    HW2 6182  11.814   6.413  13.552
 1429SOL     OW 6183   8.659   8.432   2.466
 1429SOL    HW1 6184   8.702   8.517   2.461
 1429SOL    HW2 6185   8.639   8.410   2.375
 1430SOL     OW 6186  13.645  11.673   8.445
 1430SOL    HW1 6187  13.629  11.593   8.495
 1430SOL    HW2 6188  13.620  11.650   8.355
 1431SOL     OW 6189   1.881   1.471  14.717
 1431SOL    HW1 6190   1.898   1.486  14.624
 1431SOL    HW2 6191   1.790   1.494  14.730
 1432SOL     OW 6192  13.600   5.570   2.988
 1432SOL    HW1 6193  13.522   5.623   3.001
 1432SOL    HW2 6194  13.671   5.623   3.024
 1433SOL     OW 6195  10.607   6.947   7.560
 1433SOL    HW1 6196  10.574   6.985   7.478
 1433SOL    HW2 6197  10.604   7.019   7.622
 1434SOL     OW 6198   6.025  12.189   2.599
 1434SOL    HW1 6199   6.101  12.170   2.545
 1434SOL    HW2 6200   6.011  12.109   2.650
 1435SOL     OW 6201   8.793   6.751  11.328
 1435SOL    HW1 6202   8.731   6.822  11.314
 1435SOL    HW2 6203   8.848   6.779  11.401
 1436SOL     OW 6204  13.570  10.625  12.650
 1436SOL    HW1 6205  13.599  10.543  12.689
 1436SOL    HW2 6206  13.530  10.600  12.567
 1437SOL     OW 6207  10.855   6.185   3.776
 1437SOL    HW1 6208  10.854   6.197   3.681
 1437SOL    HW2 6209  10.769   6.148   3.797
 1438SOL     OW 6210   8.498   1.476   5.323
 1438SOL    HW1 6211   8.542   1.535   5.261
 1438SOL    HW2 6212   8.405   1.483   5.302
 1439SOL     OW 6213   3.408   0.605   1.613
 1439SOL    HW1 6214   3.494   0.645   1.628
 1439SOL    HW2 6215   3.424   0.511   1.622
 1440SOL     OW 6216  10.350   6.082  12.541
 1440SOL    HW1 6217  10.293   6.022  12.588
 1440SOL    HW2 6218  10.298   6.112  12.466
 1441SOL     OW 6219   6.191  12.101   5.224
 1441SOL    HW1 6220   6.198  12.021   5.276
 1441SOL    HW2 6221   6.121  12.151   5.266
 1442SOL     OW 6222  12.671   7.768   8.900
 1442SOL    HW1 6223  12.738   7.782   8.967
 1442SOL    HW2 6224  12.591   7.754   8.950
 1443SOL     OW 6225  11.269   3.603   4.039
 1443SOL    HW1 6226  11.206   3.675   4.044
 1443SOL    HW2 6227  11.314   3.605   4.123
 1444SOL     OW 6228  10.502   6.479  11.203
 1444SOL    HW1 6229  10.597   6.481  11.212
 1444SOL    HW2 6230  10.469   6.490  11.292
 1445SOL     OW 6231   8.329   6.160   7.461
 1445SOL    HW1 6232   8.277   6.238   7.441
 1445SOL    HW2 6233   8.364   6.176   7.549
 1446SOL     OW 6234  10.882  13.677   8.533
 1446SOL    HW1 6235  10.891  13.768   8.505
 1446SOL    HW2 6236  10.944  13.668   8.605
 1447SOL     OW 6237  13.649  14.724   2.904
 1447SOL    HW1 6238  13.716  14.663   2.871
 1447SOL    HW2 6239  13.697  14.806   2.919
 1448SOL     OW 6240   9.361   3.420   8.612
 1448SOL    HW1 6241   9.308   3.498   8.595
 1448SOL    HW2 6242   9.451   3.453   8.621
 1449SOL     OW 6243   0.562   8.434   7.764
 1449SOL    HW1 6244   0.561   8.341   7.743
 1449SOL    HW2 6245   0.638   8.469   7.717
 1450SOL     OW 6246  11.688   1.141   1.571
 1450SOL    HW1 6247  11.704   1.048   1.556
 1450SOL    HW2 6248  11.595   1.146   1.594
 1451SOL     OW 6249  12.617  14.096  10.034
 1451SOL    HW1 6250  12.527  14.066  10.050
 1451SOL    HW2 6251  12.656  14.102  10.121
 1452SOL     OW 6252   1.903   0.147  14.455
 1452SOL    HW1 6253   1.850   0.074  14.422
 1452SOL    HW2 6254   1.845   0.223  14.449
 1453SOL     OW 6255  14.789  10.685   2.126
 1453SOL    HW1 6256  14.725  10.617   2.109
 1453SOL    HW2 6257  14.870  10.653   2.086
 1454SOL     OW 6258   9.784  13.931   7.054
 1454SOL    HW1 6259   9.864  13.975   7.026
 1454SOL    HW2 6260   9.714  13.995   7.041
 1455SOL     OW 6261   3.582  11.350   7.228
 1455SOL    HW1 6262   3.572  11.274   7.285
 1455SOL    HW2 6263   3.539  11.421   7.276
 1456SOL     OW 6264   9.674   6.915  14.381
 1456SOL    HW1 6265   9.689   6.905  14.287
 1456SOL    HW2 6266   9.637   7.002  14.391
 1457SOL     OW 6267   6.227  14.653  10.711
 1457SOL    HW1 6268   6.186  14.740  10.714
 1457SOL    HW2 6269   6.192  14.612  10.632
 1458SOL     OW 6270  10.965   0.709  13.675
 1458SOL    HW1 6271  11.025   0.653  13.725
 1458SOL    HW2 6272  10.880   0.664  13.681
 1459SOL     OW 6273  12.551  10.357   0.721
 1459SOL    HW1 6274  12.518  10.381   0.635
 1459SOL    HW2 6275  12.506  10.417   0.781
 1460SOL     OW 6276  11.320   6.232   4.327
 1460SOL    HW1 6277  11.322   6.278   4.243
 1460SOL    HW2 6278  11.235   6.256   4.365
 1461SOL     OW 6279   8.810   1.728   0.232
 1461SOL    HW1 6280   8.749   1.800   0.215
 1461SOL    HW2 6281   8.839   1.741   0.322
 1462SOL     OW 6282   5.889   3.147  10.493
 1462SOL    HW1 6283   5.843   3.189  10.565
 1462SOL    HW2 6284   5.827   3.082  10.459
 1463SOL     OW 6285   4.801   8.654   8.354
 1463SOL    HW1 6286   4.782   8.690   8.441
 1463SOL    HW2 6287   4.725   8.600   8.333
 1464SOL     OW 6288   8.433   2.425   6.043
 1464SOL    HW1 6289   8.421   2.375   6.124
 1464SOL    HW2 6290   8.491   2.370   5.990
 1465SOL     OW 6291   5.846   0.825  14.188
 1465SOL    HW1 6292   5.843   0.900  14.127
 1465SOL    HW2 6293   5.793   0.758  14.145
 1466SOL     OW 6294   3.305   2.394  11.962
 1466SOL    HW1 6295   3.298   2.487  11.987
 1466SOL    HW2 6296   3.246   2.386  11.887
 1467SOL     OW 6297   7.608  12.956  11.432
 1467SOL    HW1 6298   7.556  12.957  11.512
 1467SOL    HW2 6299   7.678  12.894  11.451
 1468SOL     OW 6300   7.287   1.589   2.664
 1468SOL    HW1 6301   7.349   1.645   2.618
 1468SOL    HW2 6302   7.251   1.645   2.733
 1469SOL     OW 6303  13.355   8.841   3.856
 1469SOL    HW1 6304  13.297   8.863   3.784
 1469SOL    HW2 6305  13.345   8.746   3.867
 1470SOL     OW 6306   4.955   2.172   4.854
 1470SOL    HW1 6307   4.879   2.138   4.902
 1470SOL    HW2 6308   4.918   2.206   4.773
 1471SOL     OW 6309  12.904  13.522   7.909
 1471SOL    HW1 6310  12.844  13.466   7.959
 1471SOL    HW2 6311  12.991  13.487   7.927
 1472SOL     OW 6312   4.532   3.729  11.748
 1472SOL    HW1 6313   4.464   3.794  11.728
 1472SOL    HW2 6314   4.571   3.760  11.829
 1473SOL     OW 6315  10.484   5.355   3.061
 1473SOL    HW1 6316  10.519   5.305   3.135
 1473SOL    HW2 6317  10.525   5.316   2.984
 1474SOL     OW 6318   5.283   4.039   6.780
 1474SOL    HW1 6319   5.345   3.985   6.829
 1474SOL    HW2 6320   5.219   4.067   6.846
 1475SOL     OW 6321   5.873   5.365   9.884
 1475SOL    HW1 6322   5.827   5.411   9.814
 1475SOL    HW2 6323   5.833   5.277   9.886
 1476SOL     OW 6324   2.514  14.457   7.853
 1476SOL    HW1 6325   2.502  14.528   7.916
 1476SOL    HW2 6326   2.542  14.501   7.772
 1477SOL     OW 6327   3.182  11.371   4.373
 1477SOL    HW1 6328   3.218  11.352   4.459
 1477SOL    HW2 6329   3.125  11.296   4.353
 1478SOL     OW 6330  11.607  10.632  10.815
 1478SOL    HW1 6331  11.553  10.667  10.886
 1478SOL    HW2 6332  11.696  10.632  10.849
 1479SOL     OW 6333  12.489   6.222   1.499
 1479SOL    HW1 6334  12.559   6.287   1.489
 1479SOL    HW2 6335  12.509   6.155   1.433
 1480SOL     OW 6336   6.307   3.869   9.618
 1480SOL    HW1 6337   6.358   3.938   9.577
 1480SOL    HW2 6338   6.326   3.790   9.566
 1481SOL     OW 6339  12.775  13.251   2.557
 1481SOL    HW1 6340  12.701  13.297   2.596
 1481SOL    HW2 6341  12.797  13.303   2.480
 1482SOL     OW 6342   3.305  12.294  14.126
 1482SOL    HW1 6343   3.223  12.246  14.113
 1482SOL    HW2 6344   3.322  12.288  14.220
 1483SOL     OW 6345   8.352  13.569   6.246
 1483SOL    HW1 6346   8.306  13.520   6.177
 1483SOL    HW2 6347   8.283  13.594   6.308
 1484SOL     OW 6348  13.921   7.816   3.112
 1484SOL    HW1 6349  13.839   7.768   3.106
 1484SOL    HW2 6350  13.950   7.803   3.202
 1485SOL     OW 6351   1.025   1.090  11.546
 1485SOL    HW1 6352   1.021   1.120  11.455
 1485SOL    HW2 6353   1.119   1.089  11.567
 1486SOL     OW 6354  12.882  13.115   3.260
 1486SOL    HW1 6355  12.909  13.206   3.274
 1486SOL    HW2 6356  12.964  13.067   3.250
 1487SOL     OW 6357   1.944  11.840  11.051
 1487SOL    HW1 6358   2.017  11.894  11.083
 1487SOL    HW2 6359   1.879  11.846  11.121
 1488SOL     OW 6360  10.825   0.493  12.499
 1488SOL    HW1 6361  10.866   0.436  12.564
 1488SOL    HW2 6362  10.810   0.437  12.423
 1489SOL     OW 6363  13.053  14.560   8.525
 1489SOL    HW1 6364  12.981  14.541   8.585
 1489SOL    HW2 6365  13.076  14.651   8.542
 1490SOL     OW 6366   8.897  11.285  10.730
 1490SOL    HW1 6367   8.965  11.243  10.677
 1490SOL    HW2 6368   8.936  11.296  10.816
 1491SOL     OW 6369   8.462  10.648  12.332
 1491SOL    HW1 6370   8.550  10.687  12.335
 1491SOL    HW2 6371   8.403  10.718  12.359
 1492SOL     OW 6372   3.792   4.220  13.832
 1492SOL    HW1 6373   3.827   4.220  13.921
 1492SOL    HW2 6374   3.860   4.177  13.780
 1493SOL     OW 6375   5.984   2.393   8.024
 1493SOL    HW1 6376   6.060   2.348   7.987
 1493SOL    HW2 6377   5.911   2.367   7.967
 1494SOL     OW 6378   2.467   8.155   9.686
 1494SOL    HW1 6379   2.504   8.116   9.607
 1494SOL    HW2 6380   2.477   8.249   9.674
 1495SOL     OW 6381  13.332   5.327  14.638
 1495SOL    HW1 6382  13.276   5.264  14.684
 1495SOL    HW2 6383  13.276   5.364  14.570
 1496SOL     OW 6384   9.149   4.056   6.437
 1496SOL    HW1 6385   9.180   4.031   6.524
 1496SOL    HW2 6386   9.055   4.066   6.446
 1497SOL     OW 6387   6.773  11.788   8.532
 1497SOL    HW1 6388   6.701  11.766   8.473
 1497SOL    HW2 6389   6.828  11.709   8.534
 1498SOL     OW 6390  10.764  14.820   2.519
 1498SOL    HW1 6391  10.714  14.778   2.589
 1498SOL    HW2 6392  10.706   0.011   2.485
 1499SOL     OW 6393   0.971   4.162  14.130
 1499SOL    HW1 6394   1.062   4.193  14.131
 1499SOL    HW2 6395   0.974   4.078  14.176
 1500SOL     OW 6396  14.465   3.335  13.537
 1500SOL    HW1 6397  14.498   3.401  13.477
 1500SOL    HW2 6398  14.513   3.255  13.515
 1501SOL     OW 6399   5.514   3.976   6.418
 1501SOL    HW1 6400   5.520   3.984   6.322
 1501SOL    HW2 6401   5.422   3.994   6.437
 1502SOL     OW 6402   6.986   2.261  10.541
 1502SOL    HW1 6403   6.930   2.185  10.559
 1502SOL    HW2 6404   7.072   2.222  10.523
 1503SOL     OW 6405   6.648   9.925   5.240
 1503SOL    HW1 6406   6.710   9.997   5.252
 1503SOL    HW2 6407   6.569   9.967   5.205
 1504SOL     OW 6408  10.471   5.643   7.049
 1504SOL    HW1 6409  10.448   5.578   7.115
 1504SOL    HW2 6410  10.435   5.608   6.967
 1505SOL     OW 6411  10.617   9.436   8.485
 1505SOL    HW1 6412  10.594   9.477   8.568
 1505SOL    HW2 6413  10.656   9.352   8.509
 1506SOL     OW 6414   4.302   5.086   8.599
 1506SOL    HW1 6415   4.297   5.181   8.608
 1506SOL    HW2 6416   4.396   5.066   8.600
 1507SOL     OW 6417   3.991   7.220   5.275
 1507SOL    HW1 6418   4.086   7.210   5.277
 1507SOL    HW2 6419   3.977   7.300   5.223
 1508SOL     OW 6420  13.520   5.437   8.131
 1508SOL    HW1 6421  13.435   5.395   8.116
 1508SOL    HW2 6422  13.580   5.364   8.143
 1509SOL     OW 6423   7.512   9.617   2.495
 1509SOL    HW1 6424   7.503   9.579   2.408
 1509SOL    HW2 6425   7.548   9.705   2.479
 1510SOL     OW 6426   9.005   2.410   7.179
 1510SOL    HW1 6427   9.087   2.362   7.175
 1510SOL    HW2 6428   8.982   2.427   7.088
 1511SOL     OW 6429   4.910   3.253  12.937
 1511SOL    HW1 6430   4.861   3.171  12.940
 1511SOL    HW2 6431   4.845   3.321  12.958
 1512SOL     OW 6432   0.997   4.763   1.207
 1512SOL    HW1 6433   0.933   4.720   1.150
 1512SOL    HW2 6434   1.078   4.765   1.156
 1513SOL     OW 6435   5.921  13.455   6.030
 1513SOL    HW1 6436   5.991  13.512   6.062
 1513SOL    HW2 6437   5.883  13.417   6.109
 1514SOL     OW 6438   4.899   7.308  10.365
 1514SOL    HW1 6439   4.970   7.248  10.385
 1514SOL    HW2 6440   4.909   7.327  10.272
 1515SOL     OW 6441  10.697  12.394  12.586
 1515SOL    HW1 6442  10.671  12.400  12.678
 1515SOL    HW2 6443  10.780  12.347  12.587
 1516SOL     OW 6444   4.432  13.725   5.128
 1516SOL    HW1 6445   4.370  13.701   5.058
 1516SOL    HW2 6446   4.389  13.798   5.173
 1517SOL     OW 6447   7.912   3.920   3.707
 1517SOL    HW1 6448   7.984   3.949   3.764
 1517SOL    HW2 6449   7.932   3.828   3.689
 1518SOL     OW 6450  10.988   8.001   0.717
 1518SOL    HW1 6451  10.937   8.082   0.727
 1518SOL    HW2 6452  11.049   8.002   0.791
 1519SOL     OW 6453   6.499   4.448  11.462
 1519SOL    HW1 6454   6.493   4.353  11.452
 1519SOL    HW2 6455   6.435   4.483  11.400
 1520SOL     OW 6456   7.035   4.037  11.985
 1520SOL    HW1 6457   6.994   3.973  11.927
 1520SOL    HW2 6458   6.964   4.096  12.010
 1521SOL     OW 6459  10.031  12.032   2.854
 1521SOL    HW1 6460  10.011  12.106   2.911
 1521SOL    HW2 6461  10.110  12.058   2.807
 1522SOL     OW 6462   2.445  14.260  13.408
 1522SOL    HW1 6463   2.417  14.250  13.318
 1522SOL    HW2 6464   2.493  14.180  13.428
 1523SOL     OW 6465   4.191   5.070  12.274
 1523SOL    HW1 6466   4.241   4.990  12.261
 1523SOL    HW2 6467   4.108   5.054  12.229
 1524SOL     OW 6468   7.795  13.184   3.905
 1524SOL    HW1 6469   7.866  13.119   3.904
 1524SOL    HW2 6470   7.723  13.140   3.859
 1525SOL     OW 6471  12.323   4.453   1.704
 1525SOL    HW1 6472  12.309   4.458   1.799
 1525SOL    HW2 6473  12.299   4.540   1.672
 1526SOL     OW 6474   7.918  12.151  12.716
 1526SOL    HW1 6475   7.983  12.142  12.646
 1526SOL    HW2 6476   7.869  12.230  12.693
 1527SOL     OW 6477  13.566   7.741  10.533
 1527SOL    HW1 6478  13.545   7.676  10.467
 1527SOL    HW2 6479  13.635   7.795  10.494
 1528SOL     OW 6480   6.126   7.261   5.000
 1528SOL    HW1 6481   6.165   7.229   5.081
 1528SOL    HW2 6482   6.179   7.337   4.976
 1529SOL     OW 6483   0.182   3.538  14.728
 1529SOL    HW1 6484   0.249   3.590  14.683
 1529SOL    HW2 6485   0.224   3.510  14.809
 1530SOL     OW 6486   0.109   3.196  11.637
 1530SOL    HW1 6487   0.180   3.249  11.672
 1530SOL    HW2 6488   0.034   3.215  11.694
 1531SOL     OW 6489   8.993   1.000   4.731
 1531SOL    HW1 6490   9.046   0.951   4.669
 1531SOL    HW2 6491   9.032   1.088   4.732
 1532SOL     OW 6492   2.715   4.912  11.467
 1532SOL    HW1 6493   2.771   4.845  11.427
 1532SOL    HW2 6494   2.627   4.875  11.465
 1533SOL     OW 6495   8.087  10.068  12.066
 1533SOL    HW1 6496   8.154  10.022  12.016
 1533SOL    HW2 6497   8.135  10.111  12.137
 1534SOL     OW 6498   5.017   7.224  12.525
 1534SOL    HW1 6499   5.012   7.193  12.435
 1534SOL    HW2 6500   4.938   7.189  12.567
 1535SOL     OW 6501  10.378  13.851  10.103
 1535SOL    HW1 6502  10.360  13.938  10.067
 1535SOL    HW2 6503  10.465  13.858  10.142
 1536SOL     OW 6504   0.204   2.401  10.838
 1536SOL    HW1 6505   0.129   2.453  10.868
 1536SOL    HW2 6506   0.249   2.374  10.918
 1537SOL     OW 6507  14.066   4.619   0.639
 1537SOL    HW1 6508  14.044   4.651   0.552
 1537SOL    HW2 6509  14.128   4.683   0.674
 1538SOL     OW 6510  14.548   8.729  10.474
 1538SOL    HW1 6511  14.624   8.778  10.442
 1538SOL    HW2 6512  14.545   8.650  10.420
 1539SOL     OW 6513  10.658   9.822   7.917
 1539SOL    HW1 6514  10.701   9.743   7.883
 1539SOL    HW2 6515  10.672   9.819   8.011
 1540SOL     OW 6516   0.192   4.399  12.631
 1540SOL    HW1 6517   0.098   4.422  12.628
 1540SOL    HW2 6518   0.210   4.385  12.724
 1541SOL     OW 6519   7.337   2.983  12.657
 1541SOL    HW1 6520   7.262   2.937  12.619
 1541SOL    HW2 6521   7.319   2.986  12.751
 1542SOL     OW 6522   4.018  13.697  12.058
 1542SOL    HW1 6523   4.000  13.770  11.998
 1542SOL    HW2 6524   3.968  13.624  12.021
 1543SOL     OW 6525   2.737  11.696  14.523
 1543SOL    HW1 6526   2.692  11.680  14.440
 1543SOL    HW2 6527   2.771  11.785  14.515
 1544SOL     OW 6528   0.900  10.432  12.311
 1544SOL    HW1 6529   0.889  10.378  12.233
 1544SOL    HW2 6530   0.905  10.369  12.383
 1545SOL     OW 6531  13.942   9.620   8.052
 1545SOL    HW1 6532  13.999   9.697   8.038
 1545SOL    HW2 6533  13.903   9.635   8.138
 1546SOL     OW 6534   3.117   6.024   7.315
 1546SOL    HW1 6535   3.154   5.936   7.323
 1546SOL    HW2 6536   3.140   6.053   7.227
 1547SOL     OW 6537  12.599   7.961  14.010
 1547SOL    HW1 6538  12.694   7.972  14.014
 1547SOL    HW2 6539  12.577   7.916  14.091
 1548SOL     OW 6540   1.719   2.281   0.262
 1548SOL    HW1 6541   1.783   2.228   0.308
 1548SOL    HW2 6542   1.767   2.361   0.238
 1549SOL     OW 6543   1.043   4.131   3.322
 1549SOL    HW1 6544   0.978   4.180   3.373
 1549SOL    HW2 6545   1.069   4.191   3.253
 1550SOL     OW 6546  12.044   8.905   2.360
 1550SOL    HW1 6547  12.121   8.868   2.402
 1550SOL    HW2 6548  11.973   8.846   2.384
 1551SOL     OW 6549   2.730  11.190  12.186
 1551SOL    HW1 6550   2.733  11.285  12.204
 1551SOL    HW2 6551   2.822  11.162  12.194
 1552SOL     OW 6552   9.992   6.174  13.757
 1552SOL    HW1 6553   9.902   6.144  13.773
 1552SOL    HW2 6554   9.989   6.212  13.669
 1553SOL     OW 6555   0.709  13.849   0.841
 1553SOL    HW1 6556   0.792  13.803   0.854
 1553SOL    HW2 6557   0.683  13.877   0.929
 1554SOL     OW 6558  10.354  11.463  12.478
 1554SOL    HW1 6559  10.434  11.414  12.460
 1554SOL    HW2 6560  10.323  11.428  12.561
 1555SOL     OW 6561   2.545   8.884   5.641
 1555SOL    HW1 6562   2.471   8.881   5.581
 1555SOL    HW2 6563   2.506   8.882   5.728
 1556SOL     OW 6564   9.248   4.351   6.548
 1556SOL    HW1 6565   9.209   4.336   6.462
 1556SOL    HW2 6566   9.230   4.443   6.567
 1557SOL     OW 6567  11.810  13.623  11.109
 1557SOL    HW1 6568  11.724  13.665  11.111
 1557SOL    HW2 6569  11.819  13.581  11.194
 1558SOL     OW 6570   3.138   0.857  14.118
 1558SOL    HW1 6571   3.196   0.902  14.179
 1558SOL    HW2 6572   3.123   0.920  14.048
 1559SOL     OW 6573   6.428   5.184  11.201
 1559SOL    HW1 6574   6.485   5.115  11.234
 1559SOL    HW2 6575   6.346   5.172  11.249
 1560SOL     OW 6576  11.935   4.118   7.936
 1560SOL    HW1 6577  11.896   4.139   7.851
 1560SOL    HW2 6578  11.905   4.029   7.955
 1561SOL     OW 6579   0.173  11.427  14.497
 1561SOL    HW1 6580   0.087  11.393  14.473
 1561SOL    HW2 6581   0.205  11.470  14.418
 1562SOL     OW 6582   8.380   6.948   4.731
 1562SOL    HW1 6583   8.330   7.013   4.781
 1562SOL    HW2 6584   8.348   6.864   4.763
 1563SOL     OW 6585   7.537   1.632   3.591
 1563SOL    HW1 6586   7.574   1.707   3.545
 1563SOL    HW2 6587   7.597   1.618   3.665
 1564SOL     OW 6588  14.573   4.917   2.740
 1564SOL    HW1 6589  14.570   5.009   2.716
 1564SOL    HW2 6590  14.486   4.884   2.719
 1565SOL     OW 6591   8.107   1.192   6.537
 1565SOL    HW1 6592   8.025   1.173   6.581
 1565SOL    HW2 6593   8.158   1.111   6.544
 1566SOL     OW 6594  13.335  11.302   2.412
 1566SOL    HW1 6595  13.254  11.268   2.451
 1566SOL    HW2 6596  13.328  11.279   2.319
 1567SOL     OW 6597   6.987  14.352   9.260
 1567SOL    HW1 6598   7.013  14.419   9.324
 1567SOL    HW2 6599   6.904  14.319   9.292
 1568SOL     OW 6600   7.800   7.376   7.445
 1568SOL    HW1 6601   7.891   7.406   7.444
 1568SOL    HW2 6602   7.807   7.282   7.460
 1569SOL     OW 6603   9.568  14.683  14.687
 1569SOL    HW1 6604   9.583  14.624  14.613
 1569SOL    HW2 6605   9.474  14.675  14.705
 1570SOL     OW 6606   2.427   1.871  12.829
 1570SOL    HW1 6607   2.477   1.803  12.785
 1570SOL    HW2 6608   2.448   1.951  12.781
 1571SOL     OW 6609   5.591   7.406   0.006
 1571SOL    HW1 6610   5.528   7.408  14.812
 1571SOL    HW2 6611   5.657   7.471  14.858
 1572SOL     OW 6612   4.271   9.011  10.602
 1572SOL    HW1 6613   4.280   9.105  10.586
 1572SOL    HW2 6614   4.359   8.976  10.589
 1573SOL     OW 6615  13.539   6.608   8.710
 1573SOL    HW1 6616  13.627   6.586   8.739
 1573SOL    HW2 6617  13.543   6.702   8.690
 1574SOL     OW 6618   6.074   2.204  12.711
 1574SOL    HW1 6619   6.028   2.121  12.701
 1574SOL    HW2 6620   6.052   2.253  12.632
 1575SOL     OW 6621   5.596  13.150   0.778
 1575SOL    HW1 6622   5.603  13.075   0.720
 1575SOL    HW2 6623   5.529  13.125   0.842
 1576SOL     OW 6624   3.903   8.086   6.161
 1576SOL    HW1 6625   3.973   8.028   6.131
 1576SOL    HW2 6626   3.899   8.073   6.256
 1577SOL     OW 6627   8.637   6.346  11.435
 1577SOL    HW1 6628   8.661   6.438  11.445
 1577SOL    HW2 6629   8.553   6.338  11.481
 1578SOL     OW 6630   9.230  12.864   8.004
 1578SOL    HW1 6631   9.225  12.891   7.912
 1578SOL    HW2 6632   9.237  12.946   8.053
 1579SOL     OW 6633  10.630   7.235  10.717
 1579SOL    HW1 6634  10.601   7.268  10.632
 1579SOL    HW2 6635  10.702   7.176  10.696
 1580SOL     OW 6636  14.323  13.802  13.012
 1580SOL    HW1 6637  14.260  13.760  12.955
 1580SOL    HW2 6638  14.276  13.877  13.050
 1581SOL     OW 6639   0.459   2.629   2.296
 1581SOL    HW1 6640   0.370   2.664   2.290
 1581SOL    HW2 6641   0.449   2.535   2.282
 1582SOL     OW 6642  10.992   0.153   0.125
 1582SOL    HW1 6643  11.044   0.115   0.055
 1582SOL    HW2 6644  11.056   0.198   0.181
 1583SOL     OW 6645   1.980  12.185   0.146
 1583SOL    HW1 6646   1.972  12.149   0.234
 1583SOL    HW2 6647   1.960  12.112   0.088
 1584SOL     OW 6648  11.636  12.937  12.274
 1584SOL    HW1 6649  11.664  12.952  12.364
 1584SOL    HW2 6650  11.638  12.841  12.264
 1585SOL     OW 6651   3.335   8.017  14.478
 1585SOL    HW1 6652   3.278   8.076  14.430
 1585SOL    HW2 6653   3.405   8.073  14.512
 1586SOL     OW 6654   1.370  11.287   7.248
 1586SOL    HW1 6655   1.448  11.251   7.290
 1586SOL    HW2 6656   1.397  11.302   7.158
 1587SOL     OW 6657   4.871   6.325  10.400
 1587SOL    HW1 6658   4.964   6.305  10.387
 1587SOL    HW2 6659   4.867   6.420  10.403
 1588SOL     OW 6660   1.550  14.537   0.537
 1588SOL    HW1 6661   1.545  14.586   0.455
 1588SOL    HW2 6662   1.585  14.600   0.600
 1589SOL     OW 6663   0.335  14.581  10.786
 1589SOL    HW1 6664   0.359  14.652  10.726
 1589SOL    HW2 6665   0.363  14.501  10.741
 1590SOL     OW 6666   7.395   2.339   2.945
 1590SOL    HW1 6667   7.302   2.347   2.922
 1590SOL    HW2 6668   7.437   2.309   2.865
 1591SOL     OW 6669   2.410   7.705  10.057
 1591SOL    HW1 6670   2.475   7.733  10.122
 1591SOL    HW2 6671   2.364   7.786  10.034
 1592SOL     OW 6672   2.790   0.454   9.380
 1592SOL    HW1 6673   2.753   0.454   9.469
 1592SOL    HW2 6674   2.844   0.533   9.376
 1593SOL     OW 6675  13.588  10.407  11.500
 1593SOL    HW1 6676  13.588  10.322  11.456
 1593SOL    HW2 6677  13.563  10.469  11.432
 1594SOL     OW 6678  10.043   6.881   2.997
 1594SOL    HW1 6679  10.130   6.896   3.032
 1594SOL    HW2 6680   9.987   6.944   3.042
 1595SOL     OW 6681  10.249   1.290  12.944
 1595SOL    HW1 6682  10.190   1.228  12.904
 1595SOL    HW2 6683  10.199   1.328  13.017
 1596SOL     OW 6684   5.279   5.373  12.393
 1596SOL    HW1 6685   5.344   5.304  12.385
 1596SOL    HW2 6686   5.314   5.446  12.343
 1597SOL     OW 6687  11.217   7.836   1.426
 1597SOL    HW1 6688  11.269   7.867   1.500
 1597SOL    HW2 6689  11.147   7.784   1.466
 1598SOL     OW 6690   0.584  14.371   4.469
 1598SOL    HW1 6691   0.605  14.303   4.404
 1598SOL    HW2 6692   0.603  14.453   4.425
 1599SOL     OW 6693  11.746  13.259   9.372
 1599SOL    HW1 6694  11.718  13.281   9.461
 1599SOL    HW2 6695  11.756  13.164   9.372
 1600SOL     OW 6696  12.409   4.178   2.029
 1600SOL    HW1 6697  12.342   4.122   2.069
 1600SOL    HW2 6698  12.448   4.124   1.960
 1601SOL     OW 6699  12.088   1.913  13.616
 1601SOL    HW1 6700  12.111   1.824  13.589
 1601SOL    HW2 6701  12.051   1.903  13.703
 1602SOL     OW 6702  14.406   6.986   0.388
 1602SOL    HW1 6703  14.361   6.945   0.314
 1602SOL    HW2 6704  14.425   7.075   0.358
 1603SOL     OW 6705  11.761   4.994  13.245
 1603SOL    HW1 6706  11.819   5.024  13.315
 1603SOL    HW2 6707  11.706   5.070  13.226
 1604SOL     OW 6708  13.309   7.005   0.100
 1604SOL    HW1 6709  13.336   6.916   0.119
 1604SOL    HW2 6710  13.242   7.024   0.166
 1605SOL     OW 6711   8.639   3.225  13.750
 1605SOL    HW1 6712   8.702   3.261  13.687
 1605SOL    HW2 6713   8.656   3.130  13.748
 1606SOL     OW 6714   0.293   6.248  13.038
 1606SOL    HW1 6715   0.305   6.263  13.132
 1606SOL    HW2 6716   0.234   6.319  13.011
 1607SOL     OW 6717   5.916  13.379   0.987
 1607SOL    HW1 6718   5.981  13.334   0.933
 1607SOL    HW2 6719   5.839  13.387   0.930
 1608SOL     OW 6720  14.202   4.169   7.977
 1608SOL    HW1 6721  14.106   4.171   7.984
 1608SOL    HW2 6722  14.229   4.256   8.004
 1609SOL     OW 6723   1.853  12.026   7.845
 1609SOL    HW1 6724   1.887  11.943   7.879
 1609SOL    HW2 6725   1.923  12.089   7.861
 1610SOL     OW 6726  13.499   3.004   4.655
 1610SOL    HW1 6727  13.576   3.020   4.600
 1610SOL    HW2 6728  13.433   2.972   4.594
 1611SOL     OW 6729  10.828  13.291  14.554
 1611SOL    HW1 6730  10.769  13.267  14.482
 1611SOL    HW2 6731  10.770  13.302  14.630
 1612SOL     OW 6732  11.154   7.782   3.361
 1612SOL    HW1 6733  11.112   7.710   3.406
 1612SOL    HW2 6734  11.215   7.819   3.425
 1613SOL     OW 6735  13.781   0.901   6.464
 1613SOL    HW1 6736  13.861   0.895   6.412
 1613SOL    HW2 6737  13.736   0.978   6.431
 1614SOL     OW 6738  14.317   8.833  11.582
 1614SOL    HW1 6739  14.368   8.910  11.557
 1614SOL    HW2 6740  14.317   8.834  11.677
 1615SOL     OW 6741  12.850   1.090   4.499
 1615SOL    HW1 6742  12.845   1.044   4.582
 1615SOL    HW2 6743  12.790   1.044   4.441
 1616SOL     OW 6744   0.905  12.395   9.330
 1616SOL    HW1 6745   0.962  12.387   9.254
 1616SOL    HW2 6746   0.887  12.305   9.356
 1617SOL     OW 6747   5.361   5.600  11.775
 1617SOL    HW1 6748   5.426   5.585  11.844
 1617SOL    HW2 6749   5.387   5.540  11.705
 1618SOL     OW 6750  11.187   0.321   2.051
 1618SOL    HW1 6751  11.136   0.395   2.018
 1618SOL    HW2 6752  11.187   0.258   1.980
 1619SOL     OW 6753   7.091   1.461   8.515
 1619SOL    HW1 6754   7.042   1.423   8.588
 1619SOL    HW2 6755   7.138   1.388   8.476
 1620SOL     OW 6756   9.707   7.956   8.652
 1620SOL    HW1 6757   9.671   7.964   8.563
 1620SOL    HW2 6758   9.642   7.905   8.700
 1621SOL     OW 6759   3.752  11.468   1.476
 1621SOL    HW1 6760   3.748  11.562   1.493
 1621SOL    HW2 6761   3.796  11.461   1.391
 1622SOL     OW 6762   8.346   0.487   5.058
 1622SOL    HW1 6763   8.396   0.564   5.029
 1622SOL    HW2 6764   8.352   0.426   4.984
 1623SOL     OW 6765   9.131  13.558   8.410
 1623SOL    HW1 6766   9.132  13.463   8.424
 1623SOL    HW2 6767   9.042  13.585   8.434
 1624SOL     OW 6768   3.608  14.471   2.710
 1624SOL    HW1 6769   3.699  14.445   2.696
 1624SOL    HW2 6770   3.593  14.459   2.804
 1625SOL     OW 6771  14.091  11.601   6.158
 1625SOL    HW1 6772  14.003  11.639   6.160
 1625SOL    HW2 6773  14.083  11.519   6.208
 1626SOL     OW 6774  13.567   4.050  12.997
 1626SOL    HW1 6775  13.481   4.052  12.954
 1626SOL    HW2 6776  13.563   3.973  13.054
 1627SOL     OW 6777  14.582  13.927  10.684
 1627SOL    HW1 6778  14.529  13.929  10.763
 1627SOL    HW2 6779  14.661  13.878  10.710
 1628SOL     OW 6780   3.174   0.542  13.053
 1628SOL    HW1 6781   3.235   0.468  13.044
 1628SOL    HW2 6782   3.108   0.511  13.115
 1629SOL     OW 6783   8.671  11.255   2.950
 1629SOL    HW1 6784   8.684  11.344   2.916
 1629SOL    HW2 6785   8.605  11.216   2.893
 1630SOL     OW 6786  14.479  14.358   0.505
 1630SOL    HW1 6787  14.552  14.315   0.460
 1630SOL    HW2 6788  14.517  14.389   0.587
 1631SOL     OW 6789   3.159   6.184   0.052
 1631SOL    HW1 6790   3.064   6.172   0.056
 1631SOL    HW2 6791   3.192   6.142   0.132
 1632SOL     OW 6792  14.396   2.080   6.157
 1632SOL    HW1 6793  14.474   2.085   6.103
 1632SOL    HW2 6794  14.413   2.009   6.219
 1633SOL     OW 6795   0.145  13.400  11.859
 1633SOL    HW1 6796   0.118  13.389  11.767
 1633SOL    HW2 6797   0.142  13.494  11.873
 1634SOL     OW 6798   5.804  11.860   0.786
 1634SOL    HW1 6799   5.856  11.883   0.709
 1634SOL    HW2 6800   5.750  11.938   0.802
 1635SOL     OW 6801  14.405  10.013  10.875
 1635SOL    HW1 6802  14.325  10.066  10.869
 1635SOL    HW2 6803  14.406   9.961  10.795
 1636SOL     OW 6804   3.521   8.769  13.211
 1636SOL    HW1 6805   3.589   8.819  13.256
 1636SOL    HW2 6806   3.541   8.677  13.230
 1637SOL     OW 6807  14.254  12.455   4.969
 1637SOL    HW1 6808  14.341  12.415   4.968
 1637SOL    HW2 6809  14.215  12.425   5.051
 1638SOL     OW 6810   9.822   3.106   6.646
 1638SOL    HW1 6811   9.763   3.047   6.600
 1638SOL    HW2 6812   9.763   3.160   6.700
 1639SOL     OW 6813   0.804  14.347  12.798
 1639SOL    HW1 6814   0.893  14.364  12.826
 1639SOL    HW2 6815   0.793  14.400  12.718
 1640SOL     OW 6816  11.931  12.848   8.529
 1640SOL    HW1 6817  11.856  12.851   8.470
 1640SOL    HW2 6818  12.007  12.855   8.471
 1641SOL     OW 6819   9.145   6.587  13.746
 1641SOL    HW1 6820   9.181   6.535  13.675
 1641SOL    HW2 6821   9.058   6.614  13.715
 1642SOL     OW 6822   8.633   0.459   2.560
 1642SOL    HW1 6823   8.643   0.373   2.601
 1642SOL    HW2 6824   8.625   0.519   2.633
 1643SOL     OW 6825   2.392   3.326   9.256
 1643SOL    HW1 6826   2.486   3.308   9.260
 1643SOL    HW2 6827   2.369   3.314   9.163
 1644SOL     OW 6828  11.781   9.484   9.414
 1644SOL    HW1 6829  11.852   9.468   9.475
 1644SOL    HW2 6830  11.718   9.415   9.431
 1645SOL     OW 6831  10.526   2.667  11.600
 1645SOL    HW1 6832  10.614   2.705  11.594
 1645SOL    HW2 6833  10.523   2.602  11.530
 1646SOL     OW 6834  12.058   1.041   8.270
 1646SOL    HW1 6835  12.038   1.103   8.200
 1646SOL    HW2 6836  12.059   1.094   8.350
 1647SOL     OW 6837  10.071   6.176   2.612
 1647SOL    HW1 6838   9.999   6.178   2.675
 1647SOL    HW2 6839  10.046   6.239   2.545
 1648SOL     OW 6840  12.702  13.546   9.485
 1648SOL    HW1 6841  12.763  13.612   9.517
 1648SOL    HW2 6842  12.622  13.595   9.466
 1649SOL     OW 6843   0.990   5.101  11.135
 1649SOL    HW1 6844   1.010   5.012  11.164
 1649SOL    HW2 6845   0.910   5.124  11.182
 1650SOL     OW 6846   9.098  10.394   9.354
 1650SOL    HW1 6847   9.078  10.418   9.264
 1650SOL    HW2 6848   9.187  10.358   9.350
 1651SOL     OW 6849   3.491   8.234   0.994
 1651SOL    HW1 6850   3.406   8.262   1.026
 1651SOL    HW2 6851   3.552   8.301   1.026
 1652SOL     OW 6852  10.650  11.028  10.794
 1652SOL    HW1 6853  10.648  11.091  10.866
 1652SOL    HW2 6854  10.727  10.973  10.812
 1653SOL     OW 6855   5.608  10.744   4.633
 1653SOL    HW1 6856   5.624  10.753   4.727
 1653SOL    HW2 6857   5.522  10.784   4.620
 1654SOL     OW 6858  11.122   8.063   1.339
 1654SOL    HW1 6859  11.180   8.118   1.287
 1654SOL    HW2 6860  11.177   7.988   1.364
 1655SOL     OW 6861  12.637  12.432   7.839
 1655SOL    HW1 6862  12.711  12.463   7.786
 1655SOL    HW2 6863  12.677  12.378   7.907
 1656SOL     OW 6864   9.749  12.149   9.188
 1656SOL    HW1 6865   9.830  12.141   9.137
 1656SOL    HW2 6866   9.705  12.225   9.150
 1657SOL     OW 6867  10.588   8.812   6.788
 1657SOL    HW1 6868  10.558   8.852   6.706
 1657SOL    HW2 6869  10.684   8.818   6.784
 1658SOL     OW 6870  13.449   7.576   8.625
 1658SOL    HW1 6871  13.511   7.643   8.652
 1658SOL    HW2 6872  13.365   7.621   8.620
 1659SOL     OW 6873  11.171  10.236   5.627
 1659SOL    HW1 6874  11.237  10.277   5.571
 1659SOL    HW2 6875  11.102  10.302   5.635
 1660SOL     OW 6876   3.471   1.653   2.685
 1660SOL    HW1 6877   3.543   1.614   2.636
 1660SOL    HW2 6878   3.424   1.705   2.620
 1661SOL     OW 6879  12.713   3.780   2.673
 1661SOL    HW1 6880  12.700   3.875   2.665
 1661SOL    HW2 6881  12.628   3.742   2.651
 1662SOL     OW 6882   4.675   3.556   2.148
 1662SOL    HW1 6883   4.624   3.479   2.122
 1662SOL    HW2 6884   4.730   3.575   2.072
 1663SOL     OW 6885   7.633  13.138  10.914
 1663SOL    HW1 6886   7.551  13.181  10.888
 1663SOL    HW2 6887   7.643  13.161  11.006
 1664SOL     OW 6888  12.251   7.043   4.988
 1664SOL    HW1 6889  12.214   6.971   5.037
 1664SOL    HW2 6890  12.342   7.017   4.972
 1665SOL     OW 6891   1.504  10.757   7.150
 1665SOL    HW1 6892   1.577  10.787   7.204
 1665SOL    HW2 6893   1.489  10.666   7.178
 1666SOL     OW 6894   3.850  13.156   0.350
 1666SOL    HW1 6895   3.793  13.081   0.336
 1666SOL    HW2 6896   3.863  13.193   0.263
 1667SOL     OW 6897   8.883   5.971   0.082
 1667SOL    HW1 6898   8.959   6.024   0.105
 1667SOL    HW2 6899   8.876   5.908   0.154
 1668SOL     OW 6900   6.255  11.976  11.939
 1668SOL    HW1 6901   6.177  11.922  11.949
 1668SOL    HW2 6902   6.292  11.951  11.855
 1669SOL     OW 6903   4.311   1.053  12.547
 1669SOL    HW1 6904   4.370   0.996  12.595
 1669SOL    HW2 6905   4.367   1.098  12.484
 1670SOL     OW 6906   5.492   4.294   3.713
 1670SOL    HW1 6907   5.424   4.353   3.682
 1670SOL    HW2 6908   5.467   4.208   3.678
 1671SOL     OW 6909  14.533   3.206  13.188
 1671SOL    HW1 6910  14.511   3.295  13.163
 1671SOL    HW2 6911  14.449   3.164  13.205
 1672SOL     OW 6912   4.852   4.389   0.085
 1672SOL    HW1 6913   4.905   4.330   0.031
 1672SOL    HW2 6914   4.773   4.340   0.103
 1673SOL     OW 6915   7.030   2.143   2.882
 1673SOL    HW1 6916   7.100   2.085   2.911
 1673SOL    HW2 6917   6.993   2.178   2.963
 1674SOL     OW 6918  14.380   2.214   2.208
 1674SOL    HW1 6919  14.334   2.297   2.217
 1674SOL    HW2 6920  14.322   2.160   2.155
 1675SOL     OW 6921   4.869   3.504  10.338
 1675SOL    HW1 6922   4.808   3.478  10.270
 1675SOL    HW2 6923   4.829   3.473  10.419
 1676SOL     OW 6924  10.412   4.718   8.651
 1676SOL    HW1 6925  10.454   4.732   8.566
 1676SOL    HW2 6926  10.411   4.805   8.692
 1677SOL     OW 6927   6.902  13.221  11.180
 1677SOL    HW1 6928   6.868  13.146  11.228
 1677SOL    HW2 6929   6.829  13.283  11.175
 1678SOL     OW 6930   6.782   7.001   7.983
 1678SOL    HW1 6931   6.722   7.019   8.056
 1678SOL    HW2 6932   6.770   7.075   7.923
 1679SOL     OW 6933   8.386   1.552   0.657
 1679SOL    HW1 6934   8.442   1.614   0.704
 1679SOL    HW2 6935   8.444   1.479   0.635
 1680SOL     OW 6936  14.798   8.680   1.066
 1680SOL    HW1 6937  14.815   8.735   0.989
 1680SOL    HW2 6938  14.868   8.702   1.127
 1681SOL     OW 6939   9.308   8.835  10.104
 1681SOL    HW1 6940   9.379   8.827  10.040
 1681SOL    HW2 6941   9.351   8.825  10.189
 1682SOL     OW 6942   1.625  10.880  11.543
 1682SOL    HW1 6943   1.703  10.876  11.487
 1682SOL    HW2 6944   1.654  10.844  11.627
 1683SOL     OW 6945   2.256   9.015   8.034
 1683SOL    HW1 6946   2.294   9.053   8.114
 1683SOL    HW2 6947   2.166   8.993   8.058
 1684SOL     OW 6948  12.938  14.124   6.125
 1684SOL    HW1 6949  13.025  14.150   6.154
 1684SOL    HW2 6950  12.945  14.119   6.030
 1685SOL     OW 6951   8.234   0.190   1.875
 1685SOL    HW1 6952   8.177   0.130   1.826
 1685SOL    HW2 6953   8.309   0.203   1.818
 1686SOL     OW 6954   6.186  10.011  12.359
 1686SOL    HW1 6955   6.219  10.093  12.395
 1686SOL    HW2 6956   6.254   9.982  12.299
 1687SOL     OW 6957   6.470  14.850   8.895
 1687SOL    HW1 6958   6.389   0.017   8.920
 1687SOL    HW2 6959   6.495  14.800   8.973
 1688SOL     OW 6960   0.503   1.909  10.253
 1688SOL    HW1 6961   0.510   1.816  10.275
 1688SOL    HW2 6962   0.417   1.917  10.212
 1689SOL     OW 6963   4.798  12.578   7.303
 1689SOL    HW1 6964   4.854  12.562   7.227
 1689SOL    HW2 6965   4.711  12.551   7.275
 1690SOL     OW 6966  14.055   1.398  10.181
 1690SOL    HW1 6967  14.029   1.326  10.238
 1690SOL    HW2 6968  13.980   1.411  10.123
 1691SOL     OW 6969   3.958  14.365   1.928
 1691SOL    HW1 6970   3.941  14.307   1.854
 1691SOL    HW2 6971   4.054  14.368   1.935
 1692SOL     OW 6972   9.746   5.957   2.566
 1692SOL    HW1 6973   9.766   5.866   2.589
 1692SOL    HW2 6974   9.777   5.966   2.476
 1693SOL     OW 6975  11.561  14.498   6.411
 1693SOL    HW1 6976  11.606  14.557   6.471
 1693SOL    HW2 6977  11.630  14.464   6.354
 1694SOL     OW 6978   2.019  10.120  10.679
 1694SOL    HW1 6979   1.933  10.150  10.707
 1694SOL    HW2 6980   2.080  10.188  10.709
 1695SOL     OW 6981  10.233   8.745   2.879
 1695SOL    HW1 6982  10.326   8.747   2.858
 1695SOL    HW2 6983  10.192   8.801   2.813
 1696SOL     OW 6984   7.244   8.715  13.996
 1696SOL    HW1 6985   7.246   8.684  13.905
 1696SOL    HW2 6986   7.301   8.792  13.996
 1697SOL     OW 6987  12.189  14.269   9.807
 1697SOL    HW1 6988  12.262  14.326   9.786
 1697SOL    HW2 6989  12.138  14.264   9.726
 1698SOL     OW 6990   9.623   0.878   3.840
 1698SOL    HW1 6991   9.629   0.973   3.850
 1698SOL    HW2 6992   9.530   0.861   3.824
 1699SOL     OW 6993  12.062   7.828   6.717
 1699SOL    HW1 6994  11.968   7.812   6.723
 1699SOL    HW2 6995  12.097   7.751   6.672
 1700SOL     OW 6996  11.513  13.055   0.122
 1700SOL    HW1 6997  11.573  13.128   0.111
 1700SOL    HW2 6998  11.440  13.074   0.063
 1701SOL     OW 6999   8.316   2.245   7.690
 1701SOL    HW1 7000   8.304   2.185   7.616
 1701SOL    HW2 7001   8.228   2.259   7.724
 1702SOL     OW 7002   0.783  13.662   9.663
 1702SOL    HW1 7003   0.771  13.732   9.728
 1702SOL    HW2 7004   0.805  13.708   9.582
 1703SOL     OW 7005   7.200  13.368   4.398
 1703SOL    HW1 7006   7.265  13.331   4.338
 1703SOL    HW2 7007   7.234  13.347   4.485
 1704SOL     OW 7008  13.607   8.534  10.169
 1704SOL    HW1 7009  13.571   8.618  10.198
 1704SOL    HW2 7010  13.700   8.539  10.191
 1705SOL     OW 7011   7.879   4.627   6.292
 1705SOL    HW1 7012   7.807   4.571   6.321
 1705SOL    HW2 7013   7.932   4.640   6.370
 1706SOL     OW 7014   7.046   0.834   9.780
 1706SOL    HW1 7015   7.010   0.770   9.718
 1706SOL    HW2 7016   7.089   0.781   9.847
 1707SOL     OW 7017  12.316  11.493   6.299
 1707SOL    HW1 7018  12.388  11.494   6.236
 1707SOL    HW2 7019  12.239  11.472   6.248
 1708SOL     OW 7020   1.445  11.277   4.279
 1708SOL    HW1 7021   1.484  11.363   4.263
 1708SOL    HW2 7022   1.505  11.215   4.237
 1709SOL     OW 7023  10.306  14.788  14.415
 1709SOL    HW1 7024  10.360  14.709  14.423
 1709SOL    HW2 7025  10.229  14.769  14.469
 1710SOL     OW 7026  14.714   9.217   9.635
 1710SOL    HW1 7027  14.759   9.238   9.553
 1710SOL    HW2 7028  14.782   9.176   9.689
 1711SOL     OW 7029   2.194   9.850   0.190
 1711SOL    HW1 7030   2.204   9.829   0.097
 1711SOL    HW2 7031   2.110   9.897   0.194
 1712SOL     OW 7032  13.334  11.551  13.657
 1712SOL    HW1 7033  13.413  11.498  13.649
 1712SOL    HW2 7034  13.298  11.528  13.742
 1713SOL     OW 7035   8.322   0.557   3.792
 1713SOL    HW1 7036   8.328   0.651   3.806
 1713SOL    HW2 7037   8.228   0.537   3.799
 1714SOL     OW 7038   9.821   7.420   3.353
 1714SOL    HW1 7039   9.829   7.340   3.405
 1714SOL    HW2 7040   9.892   7.414   3.290
 1715SOL     OW 7041  13.766  10.288   8.833
 1715SOL    HW1 7042  13.686  10.295   8.885
 1715SOL    HW2 7043  13.741  10.232   8.759
 1716SOL     OW 7044   2.677   5.062  13.990
 1716SOL    HW1 7045   2.618   5.092  14.059
 1716SOL    HW2 7046   2.632   5.084  13.908
 1717SOL     OW 7047   7.423   5.311  13.257
 1717SOL    HW1 7048   7.503   5.316  13.310
 1717SOL    HW2 7049   7.402   5.402  13.236
 1718SOL     OW 7050   9.266  14.732   2.171
 1718SOL    HW1 7051   9.224  14.646   2.172
 1718SOL    HW2 7052   9.266  14.759   2.263
 1719SOL     OW 7053   5.124  13.804   1.740
 1719SOL    HW1 7054   5.079  13.822   1.823
 1719SOL    HW2 7055   5.092  13.718   1.713
 1720SOL     OW 7056   1.021  10.602   2.035
 1720SOL    HW1 7057   0.988  10.643   1.955
 1720SOL    HW2 7058   1.031  10.675   2.096
 1721SOL     OW 7059  12.532   7.274   1.811
 1721SOL    HW1 7060  12.545   7.368   1.825
 1721SOL    HW2 7061  12.499   7.267   1.721
 1722SOL     OW 7062  12.249  10.118   9.220
 1722SOL    HW1 7063  12.275  10.163   9.300
 1722SOL    HW2 7064  12.297  10.035   9.222
 1723SOL     OW 7065   7.235   7.280   2.904
 1723SOL    HW1 7066   7.197   7.345   2.962
 1723SOL    HW2 7067   7.213   7.196   2.943
 1724SOL     OW 7068   9.650  12.215   1.465
 1724SOL    HW1 7069   9.594  12.286   1.495
 1724SOL    HW2 7070   9.654  12.225   1.370
 1725SOL     OW 7071   8.617   6.367  12.804
 1725SOL    HW1 7072   8.679   6.318  12.857
 1725SOL    HW2 7073   8.634   6.459  12.827
 1726SOL     OW 7074  12.654  14.733   0.893
 1726SOL    HW1 7075  12.572  14.779   0.874
 1726SOL    HW2 7076  12.627  14.644   0.915
 1727SOL     OW 7077   5.467   4.788   1.242
 1727SOL    HW1 7078   5.490   4.873   1.205
 1727SOL    HW2 7079   5.520   4.725   1.192
 1728SOL     OW 7080   8.324  11.160  11.517
 1728SOL    HW1 7081   8.301  11.174  11.425
 1728SOL    HW2 7082   8.260  11.213  11.566
 1729SOL     OW 7083   8.789  12.822   5.998
 1729SOL    HW1 7084   8.772  12.894   5.937
 1729SOL    HW2 7085   8.709  12.770   5.996
 1730SOL     OW 7086   9.385   4.284  14.070
 1730SOL    HW1 7087   9.319   4.310  14.134
 1730SOL    HW2 7088   9.468   4.287  14.118
 1731SOL     OW 7089  12.513   3.999   4.834
 1731SOL    HW1 7090  12.430   4.045   4.846
 1731SOL    HW2 7091  12.489   3.919   4.786
 1732SOL     OW 7092   5.358   5.144  12.107
 1732SOL    HW1 7093   5.350   5.099  12.023
 1732SOL    HW2 7094   5.268   5.163  12.133
 1733SOL     OW 7095  13.667  11.836   0.663
 1733SOL    HW1 7096  13.679  11.870   0.574
 1733SOL    HW2 7097  13.574  11.850   0.682
 1734SOL     OW 7098   0.716  12.419   2.677
 1734SOL    HW1 7099   0.629  12.423   2.637
 1734SOL    HW2 7100   0.731  12.507   2.711
 1735SOL     OW 7101   8.847  10.857   0.297
 1735SOL    HW1 7102   8.832  10.941   0.342
 1735SOL    HW2 7103   8.790  10.862   0.220
 1736SOL     OW 7104  11.705  12.579   8.529
 1736SOL    HW1 7105  11.631  12.564   8.471
 1736SOL    HW2 7106  11.745  12.659   8.497
 1737SOL     OW 7107  14.009  12.237   6.881
 1737SOL    HW1 7108  13.969  12.315   6.843
 1737SOL    HW2 7109  14.077  12.270   6.939
 1738SOL     OW 7110   3.953   6.141   2.053
 1738SOL    HW1 7111   4.004   6.115   1.977
 1738SOL    HW2 7112   4.010   6.125   2.127
 1739SOL     OW 7113   4.736  10.527   4.461
 1739SOL    HW1 7114   4.820  10.551   4.499
 1739SOL    HW2 7115   4.673  10.586   4.502
 1740SOL     OW 7116   3.488   7.017   9.098
 1740SOL    HW1 7117   3.482   7.102   9.142
 1740SOL    HW2 7118   3.568   6.978   9.133
 1741SOL     OW 7119  10.656   9.780   8.451
 1741SOL    HW1 7120  10.605   9.766   8.531
 1741SOL    HW2 7121  10.691   9.869   8.460
 1742SOL     OW 7122   9.558  11.140   8.868
 1742SOL    HW1 7123   9.639  11.089   8.870
 1742SOL    HW2 7124   9.515  11.114   8.787
 1743SOL     OW 7125   1.797  10.949  13.168
 1743SOL    HW1 7126   1.847  10.909  13.097
 1743SOL    HW2 7127   1.813  11.043  13.158
 1744SOL     OW 7128   2.088  13.236   3.740
 1744SOL    HW1 7129   2.093  13.316   3.793
 1744SOL    HW2 7130   2.067  13.268   3.652
 1745SOL     OW 7131   6.388   0.314   4.151
 1745SOL    HW1 7132   6.304   0.276   4.176
 1745SOL    HW2 7133   6.434   0.241   4.109
 1746SOL     OW 7134  10.267   8.605   0.596
 1746SOL    HW1 7135  10.198   8.553   0.555
 1746SOL    HW2 7136  10.281   8.679   0.536
 1747SOL     OW 7137   5.681  14.334   5.168
 1747SOL    HW1 7138   5.646  14.413   5.209
 1747SOL    HW2 7139   5.652  14.341   5.077
 1748SOL     OW 7140   5.041  12.269   5.180
 1748SOL    HW1 7141   4.975  12.324   5.138
 1748SOL    HW2 7142   4.994  12.190   5.205
 1749SOL     OW 7143  13.121  10.332   3.982
 1749SOL    HW1 7144  13.040  10.361   3.939
 1749SOL    HW2 7145  13.187  10.394   3.953
 1750SOL     OW 7146  11.414  11.556   3.764
 1750SOL    HW1 7147  11.408  11.462   3.781
 1750SOL    HW2 7148  11.404  11.597   3.850
 1751SOL     OW 7149  13.810  11.741   7.134
 1751SOL    HW1 7150  13.787  11.657   7.173
 1751SOL    HW2 7151  13.890  11.723   7.083
 1752SOL     OW 7152   6.958  11.972   4.061
 1752SOL    HW1 7153   6.927  11.882   4.069
 1752SOL    HW2 7154   7.029  11.979   4.124
 1753SOL     OW 7155   8.447   3.872  12.869
 1753SOL    HW1 7156   8.373   3.903  12.817
 1753SOL    HW2 7157   8.502   3.950  12.881
 1754SOL     OW 7158   8.550  13.441   0.414
 1754SOL    HW1 7159   8.568  13.441   0.320
 1754SOL    HW2 7160   8.544  13.349   0.438
 1755SOL     OW 7161   8.877   7.201   2.501
 1755SOL    HW1 7162   8.891   7.248   2.419
 1755SOL    HW2 7163   8.808   7.138   2.482
 1756SOL     OW 7164  14.087   1.709  14.675
 1756SOL    HW1 7165  14.087   1.793  14.722
 1756SOL    HW2 7166  14.175   1.673  14.690
 1757SOL     OW 7167   2.986  11.233   6.018
 1757SOL    HW1 7168   3.033  11.167   5.967
 1757SOL    HW2 7169   2.944  11.288   5.952
 1758SOL     OW 7170  10.399   7.517   8.991
 1758SOL    HW1 7171  10.363   7.430   8.974
 1758SOL    HW2 7172  10.343   7.553   9.059
 1759SOL     OW 7173  10.544   4.547  13.779
 1759SOL    HW1 7174  10.638   4.532  13.766
 1759SOL    HW2 7175  10.503   4.464  13.755
 1760SOL     OW 7176   4.294  12.490   4.509
 1760SOL    HW1 7177   4.206  12.521   4.492
 1760SOL    HW2 7178   4.338  12.494   4.424
 1761SOL     OW 7179   6.797  12.381   5.784
 1761SOL    HW1 7180   6.774  12.465   5.823
 1761SOL    HW2 7181   6.716  12.330   5.785
 1762SOL     OW 7182  13.585   8.460   5.234
 1762SOL    HW1 7183  13.635   8.532   5.195
 1762SOL    HW2 7184  13.650   8.392   5.251
 1763SOL     OW 7185   0.682   4.745   2.031
 1763SOL    HW1 7186   0.636   4.796   2.098
 1763SOL    HW2 7187   0.763   4.794   2.016
 1764SOL     OW 7188   6.882   4.916   1.696
 1764SOL    HW1 7189   6.926   4.834   1.720
 1764SOL    HW2 7190   6.943   4.959   1.637
 1765SOL     OW 7191   8.706  11.014   9.330
 1765SOL    HW1 7192   8.797  11.031   9.354
 1765SOL    HW2 7193   8.688  10.925   9.361
 1766SOL     OW 7194  11.411   8.048   6.724
 1766SOL    HW1 7195  11.440   8.129   6.682
 1766SOL    HW2 7196  11.444   8.055   6.814
 1767SOL     OW 7197   2.221   8.601  13.924
 1767SOL    HW1 7198   2.222   8.595  13.828
 1767SOL    HW2 7199   2.178   8.520  13.953
 1768SOL     OW 7200   2.576   3.634  11.040
 1768SOL    HW1 7201   2.538   3.630  10.952
 1768SOL    HW2 7202   2.651   3.693  11.032
 1769SOL     OW 7203   5.326   3.049   3.505
 1769SOL    HW1 7204   5.266   3.098   3.561
 1769SOL    HW2 7205   5.401   3.108   3.494
 1770SOL     OW 7206   9.085   2.821   3.387
 1770SOL    HW1 7207   9.043   2.799   3.471
 1770SOL    HW2 7208   9.015   2.857   3.333
 1771SOL     OW 7209  13.771  10.161   5.400
 1771SOL    HW1 7210  13.861  10.195   5.399
 1771SOL    HW2 7211  13.723  10.222   5.456
 1772SOL     OW 7212  14.707   8.010   8.533
 1772SOL    HW1 7213  14.614   8.019   8.515
 1772SOL    HW2 7214  14.734   8.095   8.567
 1773SOL     OW 7215   5.306  12.773   0.927
 1773SOL    HW1 7216   5.271  12.727   0.851
 1773SOL    HW2 7217   5.400  12.758   0.923
 1774SOL     OW 7218   4.130  11.885   8.225
 1774SOL    HW1 7219   4.155  11.821   8.160
 1774SOL    HW2 7220   4.183  11.962   8.206
 1775SOL     OW 7221   9.061   5.132   7.868
 1775SOL    HW1 7222   9.058   5.076   7.946
 1775SOL    HW2 7223   9.001   5.203   7.887
 1776SOL     OW 7224   0.530   0.864   8.604
 1776SOL    HW1 7225   0.605   0.827   8.559
 1776SOL    HW2 7226   0.509   0.943   8.554
 1777SOL     OW 7227   5.522   5.918  13.359
 1777SOL    HW1 7228   5.566   5.861  13.421
 1777SOL    HW2 7229   5.449   5.866  13.325
 1778SOL     OW 7230   6.251   3.374   0.057
 1778SOL    HW1 7231   6.297   3.452   0.086
 1778SOL    HW2 7232   6.168   3.406   0.022
 1779SOL     OW 7233   1.020   4.928   4.768
 1779SOL    HW1 7234   1.060   4.900   4.850
 1779SOL    HW2 7235   1.064   5.010   4.746
 1780SOL     OW 7236  14.437  11.429   6.209
 1780SOL    HW1 7237  14.528  11.414   6.236
 1780SOL    HW2 7238  14.387  11.429   6.290
 1781SOL     OW 7239   1.196   6.277   8.959
 1781SOL    HW1 7240   1.110   6.247   8.991
 1781SOL    HW2 7241   1.197   6.251   8.866
 1782SOL     OW 7242   9.445   1.120   8.434
 1782SOL    HW1 7243   9.518   1.166   8.475
 1782SOL    HW2 7244   9.480   1.033   8.414
 1783SOL     OW 7245   0.663   0.935  14.835
 1783SOL    HW1 7246   0.584   0.947  14.781
 1783SOL    HW2 7247   0.653   0.999   0.028
 1784SOL     OW 7248   2.214   0.650   1.916
 1784SOL    HW1 7249   2.127   0.650   1.956
 1784SOL    HW2 7250   2.202   0.700   1.835
 1785SOL     OW 7251   5.114   1.510  12.345
 1785SOL    HW1 7252   5.192   1.461  12.320
 1785SOL    HW2 7253   5.143   1.566  12.417
 1786SOL     OW 7254   8.020  10.999  11.075
 1786SOL    HW1 7255   7.926  10.987  11.066
 1786SOL    HW2 7256   8.053  11.002  10.986
 1787SOL     OW 7257   1.628   1.757   7.935
 1787SOL    HW1 7258   1.619   1.662   7.943
 1787SOL    HW2 7259   1.706   1.769   7.881
 1788SOL     OW 7260  12.294   3.626   2.748
 1788SOL    HW1 7261  12.327   3.661   2.831
 1788SOL    HW2 7262  12.370   3.628   2.689
 1789SOL     OW 7263   2.614   9.634   5.924
 1789SOL    HW1 7264   2.601   9.619   5.831
 1789SOL    HW2 7265   2.527   9.624   5.962
 1790SOL     OW 7266  12.417  11.910   0.954
 1790SOL    HW1 7267  12.377  11.946   1.033
 1790SOL    HW2 7268  12.384  11.820   0.950
 1791SOL     OW 7269   5.099   0.549   7.941
 1791SOL    HW1 7270   5.033   0.509   7.997
 1791SOL    HW2 7271   5.065   0.539   7.852
 1792SOL     OW 7272   2.984   3.333   9.800
 1792SOL    HW1 7273   2.985   3.244   9.764
 1792SOL    HW2 7274   2.909   3.333   9.860
 1793SOL     OW 7275  13.952   7.851   3.978
 1793SOL    HW1 7276  13.972   7.802   3.898
 1793SOL    HW2 7277  13.862   7.881   3.966
 1794SOL     OW 7278   1.190   0.734  14.210
 1794SOL    HW1 7279   1.197   0.641  14.186
 1794SOL    HW2 7280   1.189   0.780  14.125
 1795SOL     OW 7281   9.973   0.992   9.619
 1795SOL    HW1 7282  10.065   0.970   9.607
 1795SOL    HW2 7283   9.943   1.018   9.532
 1796SOL     OW 7284  11.260  13.284   7.741
 1796SOL    HW1 7285  11.329  13.323   7.688
 1796SOL    HW2 7286  11.232  13.207   7.691
 1797SOL     OW 7287   5.708   2.301   1.757
 1797SOL    HW1 7288   5.667   2.215   1.758
 1797SOL    HW2 7289   5.638   2.360   1.727
 1798SOL     OW 7290   8.139   1.733   0.353
 1798SOL    HW1 7291   8.080   1.660   0.373
 1798SOL    HW2 7292   8.221   1.691   0.329
 1799SOL     OW 7293  11.388   1.777   4.379
 1799SOL    HW1 7294  11.359   1.715   4.446
 1799SOL    HW2 7295  11.313   1.787   4.321
 1800SOL     OW 7296   9.572  13.004   6.295
 1800SOL    HW1 7297   9.542  13.038   6.380
 1800SOL    HW2 7298   9.545  13.071   6.232
 1801SOL     OW 7299   4.812  11.016  14.494
 1801SOL    HW1 7300   4.828  11.053  14.581
 1801SOL    HW2 7301   4.716  11.016  14.486
 1802SOL     OW 7302  14.405   8.901   1.364
 1802SOL    HW1 7303  14.435   8.811   1.370
 1802SOL    HW2 7304  14.484   8.953   1.348
 1803SOL     OW 7305   0.512   5.656   9.935
 1803SOL    HW1 7306   0.605   5.638   9.922
 1803SOL    HW2 7307   0.509   5.720  10.006
 1804SOL     OW 7308   8.543   2.826  14.488
 1804SOL    HW1 7309   8.610   2.856  14.427
 1804SOL    HW2 7310   8.514   2.742  14.454
 1805SOL     OW 7311  12.425   6.500   6.286
 1805SOL    HW1 7312  12.486   6.517   6.214
 1805SOL    HW2 7313  12.339   6.500   6.244
 1806SOL     OW 7314   5.972   8.355  12.549
 1806SOL    HW1 7315   6.030   8.377  12.476
 1806SOL    HW2 7316   5.998   8.415  12.619
 1807SOL     OW 7317   1.760   3.113   0.781
 1807SOL    HW1 7318   1.825   3.087   0.715
 1807SOL    HW2 7319   1.699   3.040   0.784
 1808SOL     OW 7320  11.656  13.864   4.455
 1808SOL    HW1 7321  11.716  13.834   4.523
 1808SOL    HW2 7322  11.590  13.914   4.502
 1809SOL     OW 7323  13.501  11.509   9.742
 1809SOL    HW1 7324  13.473  11.600   9.736
 1809SOL    HW2 7325  13.428  11.459   9.703
 1810SOL     OW 7326   7.725   4.654  12.662
 1810SOL    HW1 7327   7.699   4.654  12.754
 1810SOL    HW2 7328   7.768   4.569  12.649
 1811SOL     OW 7329  14.510  12.904  13.095
 1811SOL    HW1 7330  14.551  12.947  13.170
 1811SOL    HW2 7331  14.565  12.929  13.021
 1812SOL     OW 7332   7.553  12.423   7.564
 1812SOL    HW1 7333   7.542  12.351   7.502
 1812SOL    HW2 7334   7.574  12.380   7.647
 1813SOL     OW 7335   5.249   4.478  10.539
 1813SOL    HW1 7336   5.344   4.472  10.536
 1813SOL    HW2 7337   5.230   4.568  10.510
 1814SOL     OW 7338  14.482   8.260   0.937
 1814SOL    HW1 7339  14.417   8.200   0.973
 1814SOL    HW2 7340  14.564   8.236   0.980
 1815SOL     OW 7341   4.592   2.900   7.500
 1815SOL    HW1 7342   4.582   2.995   7.495
 1815SOL    HW2 7343   4.650   2.878   7.427
 1816SOL     OW 7344   9.541   1.966   6.319
 1816SOL    HW1 7345   9.631   1.960   6.350
 1816SOL    HW2 7346   9.504   1.879   6.333
 1817SOL     OW 7347   0.479   4.271   7.043
 1817SOL    HW1 7348   0.412   4.339   7.045
 1817SOL    HW2 7349   0.490   4.250   6.951
 1818SOL     OW 7350  10.613   2.726   7.560
 1818SOL    HW1 7351  10.581   2.639   7.535
 1818SOL    HW2 7352  10.650   2.762   7.479
 1819SOL     OW 7353  11.583   8.381   1.252
 1819SOL    HW1 7354  11.541   8.464   1.227
 1819SOL    HW2 7355  11.636   8.358   1.176
 1820SOL     OW 7356   1.814   5.864   4.940
 1820SOL    HW1 7357   1.901   5.863   4.900
 1820SOL    HW2 7358   1.824   5.815   5.021
 1821SOL     OW 7359  12.075   7.077  11.431
 1821SOL    HW1 7360  12.081   7.004  11.493
 1821SOL    HW2 7361  12.007   7.050  11.369
 1822SOL     OW 7362   8.179   7.825   0.863
 1822SOL    HW1 7363   8.150   7.860   0.779
 1822SOL    HW2 7364   8.196   7.732   0.845
 1823SOL     OW 7365   5.474   9.681  13.203
 1823SOL    HW1 7366   5.460   9.614  13.270
 1823SOL    HW2 7367   5.557   9.657  13.162
 1824SOL     OW 7368  14.445  10.169  14.684
 1824SOL    HW1 7369  14.408  10.253  14.710
 1824SOL    HW2 7370  14.537  10.188  14.666
 1825SOL     OW 7371  10.389  10.317   6.319
 1825SOL    HW1 7372  10.302  10.355   6.327
 1825SOL    HW2 7373  10.399  10.263   6.397
 1826SOL     OW 7374  10.932  14.274   1.153
 1826SOL    HW1 7375  10.839  14.257   1.168
 1826SOL    HW2 7376  10.972  14.187   1.150
 1827SOL     OW 7377  14.657   0.823  13.145
 1827SOL    HW1 7378  14.663   0.728  13.144
 1827SOL    HW2 7379  14.584   0.843  13.086
 1828SOL     OW 7380   6.830  13.546  10.871
 1828SOL    HW1 7381   6.816  13.562  10.965
 1828SOL    HW2 7382   6.889  13.617  10.844
 1829SOL     OW 7383  10.715   4.804  13.429
 1829SOL    HW1 7384  10.695   4.713  13.405
 1829SOL    HW2 7385  10.709   4.806  13.524
 1830SOL     OW 7386  12.826   8.138  11.568
 1830SOL    HW1 7387  12.806   8.156  11.660
 1830SOL    HW2 7388  12.907   8.186  11.551
 1831SOL     OW 7389  14.139   8.114  11.345
 1831SOL    HW1 7390  14.096   8.032  11.320
 1831SOL    HW2 7391  14.127   8.170  11.268
 1832SOL     OW 7392  13.558   4.451   7.066
 1832SOL    HW1 7393  13.492   4.382   7.054
 1832SOL    HW2 7394  13.575   4.451   7.160
 1833SOL     OW 7395  14.266   4.736   7.976
 1833SOL    HW1 7396  14.283   4.800   8.045
 1833SOL    HW2 7397  14.332   4.754   7.909
 1834SOL     OW 7398   7.252  10.799   5.924
 1834SOL    HW1 7399   7.195  10.724   5.912
 1834SOL    HW2 7400   7.337  10.772   5.889
 1835SOL     OW 7401  13.847   4.261   5.326
 1835SOL    HW1 7402  13.908   4.264   5.399
 1835SOL    HW2 7403  13.902   4.260   5.248
 1836SOL     OW 7404   4.480   9.824  14.286
 1836SOL    HW1 7405   4.527   9.788  14.211
 1836SOL    HW2 7406   4.541   9.817  14.359
 1837SOL     OW 7407   1.985   8.567   3.285
 1837SOL    HW1 7408   1.929   8.643   3.294
 1837SOL    HW2 7409   1.925   8.494   3.268
 1838SOL     OW 7410   3.488   8.036  14.865
 1838SOL    HW1 7411   3.511   8.059  14.775
 1838SOL    HW2 7412   3.469   8.120   0.029
 1839SOL     OW 7413   5.438   5.982  14.289
 1839SOL    HW1 7414   5.367   6.046  14.297
 1839SOL    HW2 7415   5.506   6.028  14.240
 1840SOL     OW 7416  13.903  14.231   1.081
 1840SOL    HW1 7417  13.906  14.145   1.038
 1840SOL    HW2 7418  13.828  14.226   1.140
 1841SOL     OW 7419  10.399   8.464  13.523
 1841SOL    HW1 7420  10.310   8.491  13.545
 1841SOL    HW2 7421  10.451   8.543  13.531
 1842SOL     OW 7422  10.341  12.472   1.983
 1842SOL    HW1 7423  10.405  12.543   1.973
 1842SOL    HW2 7424  10.312  12.454   1.893
 1843SOL     OW 7425   5.813   6.029  14.496
 1843SOL    HW1 7426   5.804   5.944  14.540
 1843SOL    HW2 7427   5.728   6.072  14.509
 1844SOL     OW 7428   1.219  11.745  11.958
 1844SOL    HW1 7429   1.266  11.738  12.041
 1844SOL    HW2 7430   1.262  11.682  11.901
 1845SOL     OW 7431   2.858   2.427   0.015
 1845SOL    HW1 7432   2.849   2.361  14.824
 1845SOL    HW2 7433   2.780   2.415   0.070
 1846SOL     OW 7434   9.485   2.724  11.872
 1846SOL    HW1 7435   9.451   2.659  11.811
 1846SOL    HW2 7436   9.433   2.803  11.855
 1847SOL     OW 7437   1.051  11.076   9.777
 1847SOL    HW1 7438   1.104  11.008   9.818
 1847SOL    HW2 7439   1.082  11.079   9.686
 1848SOL     OW 7440   3.093  11.758   8.035
 1848SOL    HW1 7441   3.138  11.837   8.065
 1848SOL    HW2 7442   3.163  11.696   8.016
 1849SOL     OW 7443   3.859   2.970   1.904
 1849SOL    HW1 7444   3.915   2.951   1.979
 1849SOL    HW2 7445   3.920   3.000   1.836
 1850SOL     OW 7446   9.038  12.504  12.908
 1850SOL    HW1 7447   8.993  12.448  12.971
 1850SOL    HW2 7448   9.063  12.581  12.958
 1851SOL     OW 7449   8.079   5.489  13.780
 1851SOL    HW1 7450   8.135   5.497  13.702
 1851SOL    HW2 7451   8.125   5.428  13.837
 1852SOL     OW 7452  11.421   7.363  12.528
 1852SOL    HW1 7453  11.504   7.410  12.527
 1852SOL    HW2 7454  11.445   7.271  12.530
 1853SOL     OW 7455  10.334   8.916   6.494
 1853SOL    HW1 7456  10.310   8.929   6.402
 1853SOL    HW2 7457  10.429   8.904   6.493
 1854SOL     OW 7458   8.925   1.526   6.907
 1854SOL    HW1 7459   8.940   1.574   6.825
 1854SOL    HW2 7460   8.897   1.593   6.969
 1855SOL     OW 7461   8.327  11.289   7.744
 1855SOL    HW1 7462   8.357  11.346   7.673
 1855SOL    HW2 7463   8.234  11.309   7.753
 1856SOL     OW 7464   0.968   0.440  10.975
 1856SOL    HW1 7465   0.905   0.480  10.914
 1856SOL    HW2 7466   0.923   0.442  11.060
 1857SOL     OW 7467   4.605  14.345  14.010
 1857SOL    HW1 7468   4.631  14.274  14.068
 1857SOL    HW2 7469   4.556  14.405  14.067
 1858SOL     OW 7470  11.990   2.874  13.983
 1858SOL    HW1 7471  12.066   2.902  13.933
 1858SOL    HW2 7472  11.921   2.863  13.917
 1859SOL     OW 7473  12.233  13.344  14.328
 1859SOL    HW1 7474  12.196  13.353  14.240
 1859SOL    HW2 7475  12.220  13.429  14.369
 1860SOL     OW 7476  13.694   7.569  12.033
 1860SOL    HW1 7477  13.641   7.644  12.005
 1860SOL    HW2 7478  13.639   7.524  12.097
 1861SOL     OW 7479   5.188  11.578   0.093
 1861SOL    HW1 7480   5.237  11.592   0.012
 1861SOL    HW2 7481   5.097  11.596   0.069
 1862SOL     OW 7482  10.404  13.493  10.591
 1862SOL    HW1 7483  10.494  13.483  10.622
 1862SOL    HW2 7484  10.412  13.545  10.510
 1863SOL     OW 7485  12.280  14.703   5.582
 1863SOL    HW1 7486  12.248  14.793   5.577
 1863SOL    HW2 7487  12.363  14.704   5.534
 1864SOL     OW 7488   5.449  12.670   2.981
 1864SOL    HW1 7489   5.389  12.716   2.922
 1864SOL    HW2 7490   5.527  12.726   2.985
 1865SOL     OW 7491   4.542   3.531   9.981
 1865SOL    HW1 7492   4.552   3.470   9.908
 1865SOL    HW2 7493   4.482   3.486  10.041
 1866SOL     OW 7494  12.386   2.620  10.058
 1866SOL    HW1 7495  12.325   2.689  10.029
 1866SOL    HW2 7496  12.427   2.656  10.136
 1867SOL     OW 7497  10.766   2.780   3.285
 1867SOL    HW1 7498  10.674   2.809   3.280
 1867SOL    HW2 7499  10.761   2.688   3.308
 1868SOL     OW 7500   9.318  14.689   2.805
 1868SOL    HW1 7501   9.298  14.597   2.818
 1868SOL    HW2 7502   9.286  14.708   2.716
 1869SOL     OW 7503  13.606   3.865   0.552
 1869SOL    HW1 7504  13.646   3.900   0.472
 1869SOL    HW2 7505  13.562   3.941   0.591
 1870SOL     OW 7506   8.143  12.755   9.347
 1870SOL    HW1 7507   8.114  12.704   9.271
 1870SOL    HW2 7508   8.156  12.690   9.416
 1871SOL     OW 7509   1.916   2.043  11.486
 1871SOL    HW1 7510   1.888   2.070  11.573
 1871SOL    HW2 7511   1.940   2.124  11.442
 1872SOL     OW 7512   8.958   9.683  12.337
 1872SOL    HW1 7513   9.030   9.625  12.312
 1872SOL    HW2 7514   8.910   9.634  12.404
 1873SOL     OW 7515   2.009   6.369   6.527
 1873SOL    HW1 7516   1.916   6.352   6.513
 1873SOL    HW2 7517   2.040   6.295   6.579
 1874SOL     OW 7518   3.417  12.763   1.868
 1874SOL    HW1 7519   3.385  12.746   1.957
 1874SOL    HW2 7520   3.481  12.833   1.877
 1875SOL     OW 7521   2.271  13.851   3.131
 1875SOL    HW1 7522   2.290  13.940   3.161
 1875SOL    HW2 7523   2.219  13.862   3.052
 1876SOL     OW 7524  11.610   2.929   7.774
 1876SOL    HW1 7525  11.658   2.846   7.779
 1876SOL    HW2 7526  11.529   2.907   7.727
 1877SOL     OW 7527  12.050   7.044   9.184
 1877SOL    HW1 7528  11.962   7.014   9.160
 1877SOL    HW2 7529  12.061   7.015   9.275
 1878SOL     OW 7530  12.478   7.257  10.957
 1878SOL    HW1 7531  12.431   7.336  10.932
 1878SOL    HW2 7532  12.411   7.190  10.966
 1879SOL     OW 7533   8.778   6.662   6.383
 1879SOL    HW1 7534   8.804   6.708   6.462
 1879SOL    HW2 7535   8.693   6.623   6.404
 1880SOL     OW 7536  12.983  11.775  10.833
 1880SOL    HW1 7537  13.057  11.821  10.794
 1880SOL    HW2 7538  12.993  11.684  10.803
 1881SOL     OW 7539  11.931   5.042   6.525
 1881SOL    HW1 7540  11.963   5.058   6.614
 1881SOL    HW2 7541  12.001   4.991   6.483
 1882SOL     OW 7542   9.605  11.968  14.064
 1882SOL    HW1 7543   9.543  12.006  14.126
 1882SOL    HW2 7544   9.661  12.042  14.038
 1883SOL     OW 7545  12.742   3.285  11.590
 1883SOL    HW1 7546  12.821   3.333  11.615
 1883SOL    HW2 7547  12.717   3.238  11.669
 1884SOL     OW 7548  14.693  14.335   2.752
 1884SOL    HW1 7549  14.708  14.403   2.686
 1884SOL    HW2 7550  14.694  14.382   2.836
 1885SOL     OW 7551   4.598   4.629   6.966
 1885SOL    HW1 7552   4.595   4.552   6.910
 1885SOL    HW2 7553   4.512   4.632   7.008
 1886SOL     OW 7554   2.424  11.211  11.306
 1886SOL    HW1 7555   2.372  11.256  11.372
 1886SOL    HW2 7556   2.408  11.259  11.225
 1887SOL     OW 7557   4.304  14.644   0.309
 1887SOL    HW1 7558   4.366  14.707   0.274
 1887SOL    HW2 7559   4.341  14.616   0.392
 1888SOL     OW 7560  11.647  12.268  13.507
 1888SOL    HW1 7561  11.726  12.320  13.490
 1888SOL    HW2 7562  11.574  12.327  13.489
 1889SOL     OW 7563  13.373   6.768   0.206
 1889SOL    HW1 7564  13.354   6.724   0.123
 1889SOL    HW2 7565  13.464   6.743   0.226
 1890SOL     OW 7566   4.082   6.275   5.757
 1890SOL    HW1 7567   4.009   6.327   5.724
 1890SOL    HW2 7568   4.045   6.189   5.776
 1891SOL     OW 7569   5.981   8.771   6.239
 1891SOL    HW1 7570   5.954   8.841   6.179
 1891SOL    HW2 7571   5.960   8.804   6.326
 1892SOL     OW 7572   0.336  13.736   6.124
 1892SOL    HW1 7573   0.422  13.719   6.087
 1892SOL    HW2 7574   0.277  13.681   6.073
 1893SOL     OW 7575  13.911   8.003   3.668
 1893SOL    HW1 7576  13.959   7.920   3.663
 1893SOL    HW2 7577  13.871   8.002   3.755
 1894SOL     OW 7578   2.864  10.009  13.922
 1894SOL    HW1 7579   2.915   9.929  13.932
 1894SOL    HW2 7580   2.844  10.036  14.012
 1895SOL     OW 7581   1.298   9.969   0.462
 1895SOL    HW1 7582   1.368  10.021   0.424
 1895SOL    HW2 7583   1.227  10.031   0.476
 1896SOL     OW 7584   6.100  11.219   2.746
 1896SOL    HW1 7585   6.105  11.129   2.780
 1896SOL    HW2 7586   6.055  11.268   2.815
 1897SOL     OW 7587  10.736   9.580   2.661
 1897SOL    HW1 7588  10.770   9.569   2.750
 1897SOL    HW2 7589  10.814   9.590   2.607
 1898SOL     OW 7590  14.653   0.070  11.708
 1898SOL    HW1 7591  14.603   0.119  11.643
 1898SOL    HW2 7592  14.674   0.135  11.776
 1899SOL     OW 7593  12.484   4.872   8.478
 1899SOL    HW1 7594  12.573   4.892   8.506
 1899SOL    HW2 7595  12.430   4.936   8.523
 1900SOL     OW 7596   4.624  10.011  10.643
 1900SOL    HW1 7597   4.592  10.079  10.583
 1900SOL    HW2 7598   4.690   9.964  10.592
 1901SOL     OW 7599   9.008  12.930   3.957
 1901SOL    HW1 7600   9.052  12.854   3.920
 1901SOL    HW2 7601   9.064  13.004   3.934
 1902SOL     OW 7602  12.741   1.520   4.258
 1902SOL    HW1 7603  12.703   1.444   4.302
 1902SOL    HW2 7604  12.666   1.568   4.223
 1903SOL     OW 7605  12.994   6.590  10.160
 1903SOL    HW1 7606  13.022   6.645  10.233
 1903SOL    HW2 7607  12.901   6.572  10.177
 1904SOL     OW 7608  12.873   2.557   9.821
 1904SOL    HW1 7609  12.812   2.570   9.893
 1904SOL    HW2 7610  12.817   2.542   9.745
 1905SOL     OW 7611   4.464   7.445   2.794
 1905SOL    HW1 7612   4.535   7.505   2.813
 1905SOL    HW2 7613   4.384   7.494   2.813
 1906SOL     OW 7614  11.271   1.955   5.006
 1906SOL    HW1 7615  11.307   1.869   4.981
 1906SOL    HW2 7616  11.193   1.965   4.951
 1907SOL     OW 7617   3.289   3.297  10.242
 1907SOL    HW1 7618   3.266   3.297  10.149
 1907SOL    HW2 7619   3.275   3.206  10.269
 1908SOL     OW 7620   1.918   2.506   3.301
 1908SOL    HW1 7621   2.004   2.466   3.316
 1908SOL    HW2 7622   1.929   2.555   3.219
 1909SOL     OW 7623   4.067   2.864   7.551
 1909SOL    HW1 7624   4.075   2.857   7.456
 1909SOL    HW2 7625   4.097   2.952   7.572
 1910SOL     OW 7626  12.316   7.554  10.419
 1910SOL    HW1 7627  12.304   7.649  10.418
 1910SOL    HW2 7628  12.242   7.519  10.369
 1911SOL     OW 7629   9.519   9.293  10.410
 1911SOL    HW1 7630   9.572   9.218  10.435
 1911SOL    HW2 7631   9.534   9.304  10.316
 1912SOL     OW 7632   7.689   6.048  14.000
 1912SOL    HW1 7633   7.747   5.978  14.032
 1912SOL    HW2 7634   7.745   6.125  13.997
 1913SOL     OW 7635   6.146   2.135   5.282
 1913SOL    HW1 7636   6.065   2.155   5.236
 1913SOL    HW2 7637   6.120   2.080   5.355
 1914SOL     OW 7638   7.570   9.960  13.890
 1914SOL    HW1 7639   7.500   9.895  13.896
 1914SOL    HW2 7640   7.634   9.932  13.956
 1915SOL     OW 7641   6.081   0.017   9.889
 1915SOL    HW1 7642   6.070  14.800   9.893
 1915SOL    HW2 7643   6.006   0.047   9.837
 1916SOL     OW 7644   6.294  13.735   8.850
 1916SOL    HW1 7645   6.336  13.803   8.798
 1916SOL    HW2 7646   6.201  13.742   8.830
 1917SOL     OW 7647   6.611  11.573   7.694
 1917SOL    HW1 7648   6.586  11.554   7.785
 1917SOL    HW2 7649   6.560  11.512   7.641
 1918SOL     OW 7650  13.230  12.198   8.681
 1918SOL    HW1 7651  13.305  12.255   8.664
 1918SOL    HW2 7652  13.259  12.111   8.652
 1919SOL     OW 7653   5.060  14.528   4.701
 1919SOL    HW1 7654   5.085  14.464   4.769
 1919SOL    HW2 7655   5.031  14.474   4.627
 1920SOL     OW 7656  10.356   0.717  13.285
 1920SOL    HW1 7657  10.398   0.670  13.357
 1920SOL    HW2 7658  10.296   0.653  13.246
 1921SOL     OW 7659   1.347  14.224   2.411
 1921SOL    HW1 7660   1.375  14.254   2.497
 1921SOL    HW2 7661   1.422  14.177   2.375
 1922SOL     OW 7662   5.736   6.563  14.009
 1922SOL    HW1 7663   5.652   6.575  14.054
 1922SOL    HW2 7664   5.747   6.644  13.958
 1923SOL     OW 7665   4.872   5.549   3.618
 1923SOL    HW1 7666   4.837   5.636   3.599
 1923SOL    HW2 7667   4.866   5.502   3.534
 1924SOL     OW 7668  14.869   4.130   2.109
 1924SOL    HW1 7669  14.789   4.132   2.161
 1924SOL    HW2 7670  14.852   4.066   2.040
 1925SOL     OW 7671   1.718   8.209   8.385
 1925SOL    HW1 7672   1.688   8.295   8.414
 1925SOL    HW2 7673   1.813   8.211   8.397
 1926SOL     OW 7674   8.171   0.615  11.716
 1926SOL    HW1 7675   8.255   0.572  11.702
 1926SOL    HW2 7676   8.124   0.557  11.777
 1927SOL     OW 7677  11.168  11.253  13.769
 1927SOL    HW1 7678  11.094  11.259  13.709
 1927SOL    HW2 7679  11.178  11.342  13.804
 1928SOL     OW 7680  14.529   9.883   0.744
 1928SOL    HW1 7681  14.497   9.882   0.654
 1928SOL    HW2 7682  14.598   9.817   0.745
 1929SOL     OW 7683  13.611   1.804   7.850
 1929SOL    HW1 7684  13.547   1.756   7.797
 1929SOL    HW2 7685  13.687   1.746   7.854
 1930SOL     OW 7686  14.369  12.482   3.725
 1930SOL    HW1 7687  14.382  12.497   3.819
 1930SOL    HW2 7688  14.370  12.387   3.716
 1931SOL     OW 7689  12.818   0.594   1.628
 1931SOL    HW1 7690  12.741   0.547   1.660
 1931SOL    HW2 7691  12.789   0.684   1.616
 1932SOL     OW 7692   0.218   9.891  13.479
 1932SOL    HW1 7693   0.186   9.952  13.546
 1932SOL    HW2 7694   0.167   9.911  13.401
 1933SOL     OW 7695   1.511  12.496   8.050
 1933SOL    HW1 7696   1.581  12.561   8.044
 1933SOL    HW2 7697   1.553  12.420   8.090
 1934SOL     OW 7698   3.483   4.505  10.814
 1934SOL    HW1 7699   3.575   4.492  10.835
 1934SOL    HW2 7700   3.444   4.418  10.820
 1935SOL     OW 7701   8.596   3.423  13.396
 1935SOL    HW1 7702   8.675   3.380  13.429
 1935SOL    HW2 7703   8.588   3.502  13.448
 1936SOL     OW 7704  10.670   8.101   8.237
 1936SOL    HW1 7705  10.590   8.129   8.192
 1936SOL    HW2 7706  10.680   8.164   8.308
 1937SOL     OW 7707  10.149  13.413   1.651
 1937SOL    HW1 7708  10.087  13.464   1.703
 1937SOL    HW2 7709  10.094  13.366   1.588
 1938SOL     OW 7710   8.414  14.773   8.690
 1938SOL    HW1 7711   8.460  14.739   8.766
 1938SOL    HW2 7712   8.456  14.730   8.615
 1939SOL     OW 7713  13.850   9.607   4.118
 1939SOL    HW1 7714  13.806   9.682   4.078
 1939SOL    HW2 7715  13.922   9.586   4.058
 1940SOL     OW 7716   0.133   6.454   5.263
 1940SOL    HW1 7717   0.069   6.399   5.219
 1940SOL    HW2 7718   0.188   6.489   5.193
 1941SOL     OW 7719   3.185   5.830   5.484
 1941SOL    HW1 7720   3.133   5.776   5.425
 1941SOL    HW2 7721   3.273   5.794   5.480
 1942SOL     OW 7722  13.052   5.631   6.433
 1942SOL    HW1 7723  13.125   5.625   6.495
 1942SOL    HW2 7724  13.006   5.711   6.458
 1943SOL     OW 7725  12.494   6.887   6.797
 1943SOL    HW1 7726  12.563   6.934   6.842
 1943SOL    HW2 7727  12.533   6.861   6.713
 1944SOL     OW 7728   5.586   5.610  10.487
 1944SOL    HW1 7729   5.595   5.636  10.579
 1944SOL    HW2 7730   5.624   5.683  10.438
 1945SOL     OW 7731  11.349   9.609   5.988
 1945SOL    HW1 7732  11.362   9.661   5.909
 1945SOL    HW2 7733  11.319   9.672   6.053
 1946SOL     OW 7734   9.118   0.159  11.341
 1946SOL    HW1 7735   9.149   0.122  11.424
 1946SOL    HW2 7736   9.185   0.133  11.278
 1947SOL     OW 7737   1.340   6.135   6.810
 1947SOL    HW1 7738   1.270   6.092   6.761
 1947SOL    HW2 7739   1.303   6.221   6.832
 1948SOL     OW 7740   9.202  14.167   0.217
 1948SOL    HW1 7741   9.163  14.095   0.169
 1948SOL    HW2 7742   9.296  14.148   0.217
 1949SOL     OW 7743  12.740   9.074   5.397
 1949SOL    HW1 7744  12.746   9.144   5.462
 1949SOL    HW2 7745  12.760   9.117   5.314
 1950SOL     OW 7746   0.203   1.759  12.592
 1950SOL    HW1 7747   0.275   1.735  12.534
 1950SOL    HW2 7748   0.241   1.825  12.651
 1951SOL     OW 7749   7.396   6.433  10.638
 1951SOL    HW1 7750   7.429   6.402  10.554
 1951SOL    HW2 7751   7.349   6.514  10.618
 1952SOL     OW 7752   3.817  12.022   9.679
 1952SOL    HW1 7753   3.832  12.117   9.681
 1952SOL    HW2 7754   3.900  11.984   9.710
 1953SOL     OW 7755  14.426   9.648  11.615
 1953SOL    HW1 7756  14.512   9.687  11.595
 1953SOL    HW2 7757  14.424   9.568  11.563
 1954SOL     OW 7758   5.533  11.744  11.860
 1954SOL    HW1 7759   5.578  11.827  11.872
 1954SOL    HW2 7760   5.598  11.686  11.820
 1955SOL     OW 7761   2.211   6.177   4.103
 1955SOL    HW1 7762   2.220   6.270   4.085
 1955SOL    HW2 7763   2.298   6.141   4.087
 1956SOL     OW 7764   7.739   4.038   2.685
 1956SOL    HW1 7765   7.693   3.964   2.725
 1956SOL    HW2 7766   7.670   4.088   2.642
 1957SOL     OW 7767  13.513   8.631   9.005
 1957SOL    HW1 7768  13.434   8.587   9.034
 1957SOL    HW2 7769  13.583   8.567   9.021
 1958SOL     OW 7770   3.368   9.597  10.963
 1958SOL    HW1 7771   3.383   9.503  10.974
 1958SOL    HW2 7772   3.305   9.604  10.891
 1959SOL     OW 7773  10.727   2.525   0.803
 1959SOL    HW1 7774  10.745   2.576   0.724
 1959SOL    HW2 7775  10.748   2.435   0.780
 1960SOL     OW 7776   6.081  10.287  10.344
 1960SOL    HW1 7777   6.108  10.379  10.349
 1960SOL    HW2 7778   6.150  10.239  10.389
 1961SOL     OW 7779   6.524  10.873   8.357
 1961SOL    HW1 7780   6.559  10.865   8.446
 1961SOL    HW2 7781   6.452  10.810   8.355
 1962SOL     OW 7782   9.573   0.867   2.163
 1962SOL    HW1 7783   9.592   0.961   2.168
 1962SOL    HW2 7784   9.517   0.850   2.239
 1963SOL     OW 7785   8.332   1.875   9.769
 1963SOL    HW1 7786   8.262   1.941   9.772
 1963SOL    HW2 7787   8.379   1.893   9.688
 1964SOL     OW 7788  13.718   9.293   3.867
 1964SOL    HW1 7789  13.699   9.318   3.958
 1964SOL    HW2 7790  13.723   9.197   3.869
 1965SOL     OW 7791  10.052  11.726   6.465
 1965SOL    HW1 7792   9.998  11.664   6.514
 1965SOL    HW2 7793  10.087  11.674   6.392
 1966SOL     OW 7794   8.804   7.267  11.327
 1966SOL    HW1 7795   8.792   7.274  11.232
 1966SOL    HW2 7796   8.734   7.321  11.363
 1967SOL     OW 7797  10.275   6.413   1.665
 1967SOL    HW1 7798  10.321   6.415   1.749
 1967SOL    HW2 7799  10.208   6.346   1.676
 1968SOL     OW 7800  12.315   8.905   3.622
 1968SOL    HW1 7801  12.309   8.935   3.531
 1968SOL    HW2 7802  12.227   8.919   3.658
 1969SOL     OW 7803   6.908   7.347  10.498
 1969SOL    HW1 7804   6.846   7.297  10.444
 1969SOL    HW2 7805   6.874   7.337  10.587
 1970SOL     OW 7806   4.610   8.349  13.248
 1970SOL    HW1 7807   4.545   8.362  13.178
 1970SOL    HW2 7808   4.564   8.294  13.312
 1971SOL     OW 7809   5.479   9.038  11.252
 1971SOL    HW1 7810   5.423   8.991  11.313
 1971SOL    HW2 7811   5.568   9.020  11.282
 1972SOL     OW 7812   3.059   8.497   6.640
 1972SOL    HW1 7813   3.055   8.466   6.549
 1972SOL    HW2 7814   3.152   8.494   6.662
 1973SOL     OW 7815   8.996   9.848  11.389
 1973SOL    HW1 7816   9.061   9.918  11.384
 1973SOL    HW2 7817   8.913   9.893  11.401
 1974SOL     OW 7818   7.892  10.823   0.702
 1974SOL    HW1 7819   7.967  10.776   0.667
 1974SOL    HW2 7820   7.867  10.774   0.780
 1975SOL     OW 7821  10.779   6.226   9.243
 1975SOL    HW1 7822  10.691   6.214   9.206
 1975SOL    HW2 7823  10.764   6.244   9.336
 1976SOL     OW 7824   7.360   4.478   0.030
 1976SOL    HW1 7825   7.319   4.553   0.073
 1976SOL    HW2 7826   7.389   4.512  14.823
 1977SOL     OW 7827   8.251   5.202  14.758
 1977SOL    HW1 7828   8.323   5.161  14.807
 1977SOL    HW2 7829   8.218   5.270  14.817
 1978SOL     OW 7830  12.096   5.754   6.057
 1978SOL    HW1 7831  12.119   5.661   6.063
 1978SOL    HW2 7832  12.024   5.757   5.993
 1979SOL     OW 7833   8.502   6.386  13.628
 1979SOL    HW1 7834   8.427   6.444  13.646
 1979SOL    HW2 7835   8.559   6.438  13.570
 1980SOL     OW 7836  13.229   3.367   6.035
 1980SOL    HW1 7837  13.162   3.429   6.064
 1980SOL    HW2 7838  13.304   3.384   6.092
 1981SOL     OW 7839   8.096   7.650  11.545
 1981SOL    HW1 7840   8.033   7.644  11.472
 1981SOL    HW2 7841   8.088   7.740  11.576
 1982SOL     OW 7842  14.671   2.567   9.010
 1982SOL    HW1 7843  14.762   2.598   9.016
 1982SOL    HW2 7844  14.652   2.532   9.098
 1983SOL     OW 7845   9.270   3.566   0.555
 1983SOL    HW1 7846   9.257   3.657   0.581
 1983SOL    HW2 7847   9.196   3.547   0.497
 1984SOL     OW 7848   3.663   0.970  12.928
 1984SOL    HW1 7849   3.710   0.983  13.010
 1984SOL    HW2 7850   3.685   0.880  12.903
 1985SOL     OW 7851   5.434   7.126  13.400
 1985SOL    HW1 7852   5.357   7.069  13.404
 1985SOL    HW2 7853   5.504   7.076  13.443
 1986SOL     OW 7854   0.127  10.719   1.307
 1986SOL    HW1 7855   0.063  10.787   1.328
 1986SOL    HW2 7856   0.147  10.732   1.215
 1987SOL     OW 7857  13.688   7.489   7.147
 1987SOL    HW1 7858  13.601   7.459   7.172
 1987SOL    HW2 7859  13.680   7.512   7.054
 1988SOL     OW 7860  13.622  12.403  12.341
 1988SOL    HW1 7861  13.672  12.435  12.266
 1988SOL    HW2 7862  13.577  12.480  12.375
 1989SOL     OW 7863   9.430  13.359  10.860
 1989SOL    HW1 7864   9.428  13.420  10.934
 1989SOL    HW2 7865   9.440  13.415  10.783
 1990SOL     OW 7866   2.583  10.535   0.023
 1990SOL    HW1 7867   2.582  10.512  14.808
 1990SOL    HW2 7868   2.651  10.602   0.031
 1991SOL     OW 7869  11.712   0.678  13.810
 1991SOL    HW1 7870  11.627   0.722  13.813
 1991SOL    HW2 7871  11.774   0.741  13.847
 1992SOL     OW 7872   9.774   3.096   3.098
 1992SOL    HW1 7873   9.719   3.056   3.032
 1992SOL    HW2 7874   9.819   3.022   3.140
 1993SOL     OW 7875   6.440   9.032  11.881
 1993SOL    HW1 7876   6.368   8.975  11.853
 1993SOL    HW2 7877   6.469   9.076  11.801
 1994SOL     OW 7878   1.976   0.816   6.573
 1994SOL    HW1 7879   2.055   0.768   6.598
 1994SOL    HW2 7880   1.903   0.761   6.604
 1995SOL     OW 7881   2.000   0.329   1.558
 1995SOL    HW1 7882   1.955   0.302   1.478
 1995SOL    HW2 7883   2.086   0.360   1.528
 1996SOL     OW 7884   4.315  11.526  12.235
 1996SOL    HW1 7885   4.319  11.538  12.140
 1996SOL    HW2 7886   4.400  11.488  12.257
 1997SOL     OW 7887  13.128   5.953   4.667
 1997SOL    HW1 7888  13.181   5.902   4.605
 1997SOL    HW2 7889  13.177   5.947   4.749
 1998SOL     OW 7890  14.752  13.737   6.564
 1998SOL    HW1 7891  14.832  13.689   6.543
 1998SOL    HW2 7892  14.690  13.712   6.496
 1999SOL     OW 7893  11.619  11.834   8.782
 1999SOL    HW1 7894  11.677  11.758   8.776
 1999SOL    HW2 7895  11.678  11.909   8.778
 2000SOL     OW 7896  12.347   5.040   8.645
 2000SOL    HW1 7897  12.278   4.999   8.696
 2000SOL    HW2 7898  12.311   5.124   8.618
 2001SOL     OW 7899   6.057  14.475   6.109
 2001SOL    HW1 7900   6.054  14.503   6.018
 2001SOL    HW2 7901   6.143  14.434   6.120
 2002SOL     OW 7902   1.155  12.602   6.576
 2002SOL    HW1 7903   1.126  12.672   6.634
 2002SOL    HW2 7904   1.165  12.526   6.634
 2003SOL     OW 7905  10.702   2.163  14.754
 2003SOL    HW1 7906  10.669   2.221  14.823
 2003SOL    HW2 7907  10.793   2.148  14.777
 2004SOL     OW 7908   1.414  13.279   8.586
 2004SOL    HW1 7909   1.476  13.318   8.647
 2004SOL    HW2 7910   1.373  13.354   8.542
 2005SOL     OW 7911  14.528   9.671  12.251
 2005SOL    HW1 7912  14.483   9.587  12.258
 2005SOL    HW2 7913  14.618   9.649  12.229
 2006SOL     OW 7914   5.004   6.882   1.285
 2006SOL    HW1 7915   4.980   6.972   1.305
 2006SOL    HW2 7916   4.983   6.833   1.364
 2007SOL     OW 7917   7.567  10.080  11.453
 2007SOL    HW1 7918   7.542   9.991  11.476
 2007SOL    HW2 7919   7.587  10.122  11.536
 2008SOL     OW 7920   6.139   0.761   3.754
 2008SOL    HW1 7921   6.074   0.807   3.807
 2008SOL    HW2 7922   6.092   0.739   3.673
 2009SOL     OW 7923  13.805  13.905  13.741
 2009SOL    HW1 7924  13.780  13.997  13.751
 2009SOL    HW2 7925  13.726  13.856  13.761
 2010SOL     OW 7926  12.801   2.433   6.325
 2010SOL    HW1 7927  12.768   2.485   6.399
 2010SOL    HW2 7928  12.727   2.426   6.266
 2011SOL     OW 7929  12.686   3.571   6.096
 2011SOL    HW1 7930  12.675   3.598   6.005
 2011SOL    HW2 7931  12.647   3.483   6.100
 2012SOL     OW 7932   8.926   0.478  10.461
 2012SOL    HW1 7933   8.977   0.441  10.389
 2012SOL    HW2 7934   8.990   0.530  10.511
 2013SOL     OW 7935  10.729   1.302  14.513
 2013SOL    HW1 7936  10.677   1.262  14.582
 2013SOL    HW2 7937  10.809   1.249  14.510
 2014SOL     OW 7938  12.673  10.789   7.949
 2014SOL    HW1 7939  12.581  10.807   7.969
 2014SOL    HW2 7940  12.718  10.803   8.032
 2015SOL     OW 7941   1.717  10.379  12.136
 2015SOL    HW1 7942   1.637  10.388  12.189
 2015SOL    HW2 7943   1.760  10.464  12.144
 2016SOL     OW 7944   9.880   2.524   8.985
 2016SOL    HW1 7945   9.796   2.570   8.982
 2016SOL    HW2 7946   9.869   2.451   8.924
 2017SOL     OW 7947   6.294   0.487   3.047
 2017SOL    HW1 7948   6.215   0.493   3.101
 2017SOL    HW2 7949   6.367   0.495   3.109
 2018SOL     OW 7950   0.863   9.208   9.767
 2018SOL    HW1 7951   0.780   9.161   9.776
 2018SOL    HW2 7952   0.891   9.225   9.857
 2019SOL     OW 7953  14.016   0.983   7.261
 2019SOL    HW1 7954  14.108   0.994   7.285
 2019SOL    HW2 7955  13.995   0.894   7.287
 2020SOL     OW 7956   3.426  14.771   0.082
 2020SOL    HW1 7957   3.472  14.786   0.165
 2020SOL    HW2 7958   3.480  14.815   0.016
 2021SOL     OW 7959   2.658  11.611  11.250
 2021SOL    HW1 7960   2.599  11.640  11.319
 2021SOL    HW2 7961   2.643  11.517  11.243
 2022SOL     OW 7962   3.627   2.119  13.793
 2022SOL    HW1 7963   3.694   2.186  13.800
 2022SOL    HW2 7964   3.545   2.165  13.812
 2023SOL     OW 7965  14.192   6.983   2.028
 2023SOL    HW1 7966  14.285   7.004   2.036
 2023SOL    HW2 7967  14.173   6.992   1.935
 2024SOL     OW 7968  12.442   6.818   4.717
 2024SOL    HW1 7969  12.458   6.843   4.808
 2024SOL    HW2 7970  12.347   6.812   4.710
 2025SOL     OW 7971  13.808   0.763  10.277
 2025SOL    HW1 7972  13.825   0.793  10.187
 2025SOL    HW2 7973  13.867   0.690  10.289
 2026SOL     OW 7974  14.673   9.557   8.923
 2026SOL    HW1 7975  14.610   9.555   8.851
 2026SOL    HW2 7976  14.627   9.516   8.997
 2027SOL     OW 7977  11.630   0.968   4.861
 2027SOL    HW1 7978  11.546   0.974   4.816
 2027SOL    HW2 7979  11.670   0.888   4.826
 2028SOL     OW 7980   3.679   0.366   0.005
 2028SOL    HW1 7981   3.721   0.283  14.859
 2028SOL    HW2 7982   3.586   0.350  14.870
 2029SOL     OW 7983   2.449   7.861   9.771
 2029SOL    HW1 7984   2.431   7.949   9.804
 2029SOL    HW2 7985   2.447   7.871   9.675
 2030SOL     OW 7986  10.759   4.917  11.681
 2030SOL    HW1 7987  10.839   4.968  11.675
 2030SOL    HW2 7988  10.758   4.863  11.602
 2031SOL     OW 7989  11.946  12.156  11.403
 2031SOL    HW1 7990  11.868  12.212  11.403
 2031SOL    HW2 7991  11.959  12.135  11.496
 2032SOL     OW 7992   0.556   8.288   0.556
 2032SOL    HW1 7993   0.605   8.323   0.482
 2032SOL    HW2 7994   0.557   8.193   0.543
 2033SOL     OW 7995   4.011  12.677   1.832
 2033SOL    HW1 7996   4.065  12.704   1.906
 2033SOL    HW2 7997   4.000  12.583   1.844
 2034SOL     OW 7998   0.518  11.370   5.875
 2034SOL    HW1 7999   0.532  11.383   5.781
 2034SOL    HW2 8000   0.587  11.310   5.902
 2035SOL     OW 8001   2.704   3.515   5.502
 2035SOL    HW1 8002   2.693   3.479   5.414
 2035SOL    HW2 8003   2.782   3.570   5.496
 2036SOL     OW 8004   0.625  10.713  10.253
 2036SOL    HW1 8005   0.575  10.636  10.283
 2036SOL    HW2 8006   0.716  10.687  10.265
 2037SOL     OW 8007   9.255   8.699   6.350
 2037SOL    HW1 8008   9.302   8.616   6.341
 2037SOL    HW2 8009   9.169   8.674   6.383
 2038SOL     OW 8010   8.162   6.780  12.483
 2038SOL    HW1 8011   8.256   6.770  12.471
 2038SOL    HW2 8012   8.135   6.842  12.416
 2039SOL     OW 8013   1.524   2.632  12.479
 2039SOL    HW1 8014   1.547   2.711  12.529
 2039SOL    HW2 8015   1.442   2.653  12.436
 2040SOL     OW 8016   1.949  13.767  12.029
 2040SOL    HW1 8017   1.970  13.857  12.001
 2040SOL    HW2 8018   1.964  13.714  11.951
 2041SOL     OW 8019  11.129  12.655  14.602
 2041SOL    HW1 8020  11.198  12.603  14.642
 2041SOL    HW2 8021  11.089  12.702  14.675
 2042SOL     OW 8022   2.059  14.098  11.273
 2042SOL    HW1 8023   2.109  14.098  11.192
 2042SOL    HW2 8024   2.075  14.011  11.311
 2043SOL     OW 8025   2.298   4.140  14.263
 2043SOL    HW1 8026   2.237   4.068  14.280
 2043SOL    HW2 8027   2.253   4.195  14.200
 2044SOL     OW 8028  13.386   9.191  14.303
 2044SOL    HW1 8029  13.476   9.191  14.270
 2044SOL    HW2 8030  13.387   9.254  14.375
 2045SOL     OW 8031   6.465   0.479   3.565
 2045SOL    HW1 8032   6.539   0.535   3.590
 2045SOL    HW2 8033   6.476   0.400   3.617
 2046SOL     OW 8034   7.596  12.245   4.592
 2046SOL    HW1 8035   7.515  12.193   4.584
 2046SOL    HW2 8036   7.626  12.257   4.502
 2047SOL     OW 8037  10.623   7.181   5.258
 2047SOL    HW1 8038  10.594   7.247   5.320
 2047SOL    HW2 8039  10.592   7.098   5.295
 2048SOL     OW 8040   2.464  11.207   3.208
 2048SOL    HW1 8041   2.538  11.177   3.156
 2048SOL    HW2 8042   2.469  11.157   3.289
 2049SOL     OW 8043   9.644   1.424   1.735
 2049SOL    HW1 8044   9.700   1.374   1.674
 2049SOL    HW2 8045   9.592   1.357   1.779
 2050SOL     OW 8046   1.425   1.207  10.018
 2050SOL    HW1 8047   1.395   1.293  10.046
 2050SOL    HW2 8048   1.348   1.168   9.977
 2051SOL     OW 8049   0.857   2.756   7.410
 2051SOL    HW1 8050   0.861   2.811   7.489
 2051SOL    HW2 8051   0.773   2.778   7.370
 2052SOL     OW 8052   9.665  13.288   6.832
 2052SOL    HW1 8053   9.756  13.304   6.859
 2052SOL    HW2 8054   9.658  13.193   6.826
 2053SOL     OW 8055  12.125   8.019  10.762
 2053SOL    HW1 8056  12.081   8.026  10.847
 2053SOL    HW2 8057  12.165   8.105  10.749
 2054SOL     OW 8058   0.851   8.526  10.554
 2054SOL    HW1 8059   0.845   8.508  10.460
 2054SOL    HW2 8060   0.927   8.582  10.563
 2055SOL     OW 8061   7.281   2.010   2.881
 2055SOL    HW1 8062   7.357   2.063   2.858
 2055SOL    HW2 8063   7.316   1.941   2.937
 2056SOL     OW 8064   5.822   8.517  13.709
 2056SOL    HW1 8065   5.893   8.568  13.670
 2056SOL    HW2 8066   5.861   8.476  13.786
 2057SOL     OW 8067   2.858   6.595  14.747
 2057SOL    HW1 8068   2.874   6.667  14.808
 2057SOL    HW2 8069   2.860   6.517  14.802
 2058SOL     OW 8070  11.216   5.639  11.077
 2058SOL    HW1 8071  11.295   5.592  11.104
 2058SOL    HW2 8072  11.160   5.638  11.154
 2059SOL     OW 8073  11.717   2.173  12.418
 2059SOL    HW1 8074  11.679   2.258  12.440
 2059SOL    HW2 8075  11.657   2.136  12.352
 2060SOL     OW 8076   4.043  12.038  13.459
 2060SOL    HW1 8077   4.075  11.957  13.419
 2060SOL    HW2 8078   4.100  12.051  13.535
 2061SOL     OW 8079   7.636  14.260   4.803
 2061SOL    HW1 8080   7.599  14.192   4.860
 2061SOL    HW2 8081   7.722  14.279   4.842
 2062SOL     OW 8082   1.066  12.937   7.000
 2062SOL    HW1 8083   0.972  12.956   6.997
 2062SOL    HW2 8084   1.074  12.866   7.064
 2063SOL     OW 8085  11.960  13.369   5.054
 2063SOL    HW1 8086  11.938  13.300   5.117
 2063SOL    HW2 8087  12.015  13.430   5.104
 2064SOL     OW 8088   7.621   7.561   3.249
 2064SOL    HW1 8089   7.682   7.551   3.321
 2064SOL    HW2 8090   7.564   7.484   3.255
 2065SOL     OW 8091   4.592   5.571  10.561
 2065SOL    HW1 8092   4.580   5.639  10.494
 2065SOL    HW2 8093   4.684   5.545  10.551
 2066SOL     OW 8094   0.544   4.228   0.589
 2066SOL    HW1 8095   0.614   4.194   0.644
 2066SOL    HW2 8096   0.557   4.185   0.505
 2067SOL     OW 8097   5.339  14.498  13.830
 2067SOL    HW1 8098   5.338  14.543  13.915
 2067SOL    HW2 8099   5.335  14.405  13.853
 2068SOL     OW 8100   8.824   1.508   6.182
 2068SOL    HW1 8101   8.838   1.602   6.175
 2068SOL    HW2 8102   8.733   1.495   6.156
 2069SOL     OW 8103   6.291   5.407   2.431
 2069SOL    HW1 8104   6.353   5.471   2.465
 2069SOL    HW2 8105   6.270   5.351   2.506
 2070SOL     OW 8106   1.529  12.046   4.926
 2070SOL    HW1 8107   1.503  12.081   5.011
 2070SOL    HW2 8108   1.575  12.118   4.883
 2071SOL     OW 8109   6.118   8.263  11.314
 2071SOL    HW1 8110   6.184   8.235  11.250
 2071SOL    HW2 8111   6.090   8.182  11.357
 2072SOL     OW 8112   6.952  13.988  13.673
 2072SOL    HW1 8113   7.040  14.022  13.656
 2072SOL    HW2 8114   6.954  13.898  13.640
 2073SOL     OW 8115  13.479  10.718  12.985
 2073SOL    HW1 8116  13.517  10.647  13.036
 2073SOL    HW2 8117  13.548  10.785  12.981
 2074SOL     OW 8118   2.838  12.208  12.866
 2074SOL    HW1 8119   2.754  12.184  12.826
 2074SOL    HW2 8120   2.848  12.301  12.849
 2075SOL     OW 8121   9.286   0.760  10.880
 2075SOL    HW1 8122   9.222   0.802  10.822
 2075SOL    HW2 8123   9.295   0.672  10.846
 2076SOL     OW 8124   2.604  13.111   8.555
 2076SOL    HW1 8125   2.546  13.101   8.631
 2076SOL    HW2 8126   2.546  13.103   8.479
 2077SOL     OW 8127   8.699  12.793   9.096
 2077SOL    HW1 8128   8.609  12.821   9.115
 2077SOL    HW2 8129   8.749  12.820   9.173
 2078SOL     OW 8130   2.381   3.935   0.906
 2078SOL    HW1 8131   2.431   3.999   0.855
 2078SOL    HW2 8132   2.343   3.986   0.977
 2079SOL     OW 8133   7.755   6.191   2.975
 2079SOL    HW1 8134   7.823   6.183   3.043
 2079SOL    HW2 8135   7.705   6.268   3.001
 2080SOL     OW 8136  12.434  14.629   1.622
 2080SOL    HW1 8137  12.513  14.582   1.651
 2080SOL    HW2 8138  12.458  14.665   1.536
 2081SOL     OW 8139  10.214   4.577  14.824
 2081SOL    HW1 8140  10.215   4.580  14.728
 2081SOL    HW2 8141  10.297   4.617  14.850
 2082SOL     OW 8142   6.755   3.308   3.476
 2082SOL    HW1 8143   6.761   3.401   3.497
 2082SOL    HW2 8144   6.786   3.302   3.386
 2083SOL     OW 8145   5.047  14.835  12.518
 2083SOL    HW1 8146   5.073  14.743  12.529
 2083SOL    HW2 8147   5.016  14.862  12.604
 2084SOL     OW 8148  13.359  12.197   5.321
 2084SOL    HW1 8149  13.414  12.247   5.260
 2084SOL    HW2 8150  13.294  12.260   5.353
 2085SOL     OW 8151  10.293   2.481   5.096
 2085SOL    HW1 8152  10.274   2.499   5.188
 2085SOL    HW2 8153  10.376   2.433   5.098
 2086SOL     OW 8154  13.274   0.706  13.966
 2086SOL    HW1 8155  13.251   0.620  14.000
 2086SOL    HW2 8156  13.197   0.733  13.917
 2087SOL     OW 8157   2.920   7.011   3.165
 2087SOL    HW1 8158   2.969   7.091   3.188
 2087SOL    HW2 8159   2.985   6.956   3.121
 2088SOL     OW 8160   8.865   7.800  13.722
 2088SOL    HW1 8161   8.770   7.793  13.712
 2088SOL    HW2 8162   8.896   7.825  13.635
 2089SOL     OW 8163  13.535   4.769   1.701
 2089SOL    HW1 8164  13.454   4.821   1.696
 2089SOL    HW2 8165  13.511   4.694   1.756
 2090SOL     OW 8166   6.438   5.887  13.499
 2090SOL    HW1 8167   6.474   5.814  13.449
 2090SOL    HW2 8168   6.514   5.924  13.545
 2091SOL     OW 8169   4.631   4.265   1.988
 2091SOL    HW1 8170   4.607   4.172   1.985
 2091SOL    HW2 8171   4.552   4.309   2.019
 2092SOL     OW 8172   6.152   0.930  11.403
 2092SOL    HW1 8173   6.207   0.912  11.478
 2092SOL    HW2 8174   6.086   0.860  11.404
 2093SOL     OW 8175  12.575   9.566   8.898
 2093SOL    HW1 8176  12.622   9.517   8.830
 2093SOL    HW2 8177  12.517   9.624   8.849
 2094SOL     OW 8178   4.197   6.684  14.873
 2094SOL    HW1 8179   4.139   6.760  14.877
 2094SOL    HW2 8180   4.199   6.660  14.780
 2095SOL     OW 8181   5.388   7.374  11.709
 2095SOL    HW1 8182   5.476   7.390  11.674
 2095SOL    HW2 8183   5.366   7.454  11.757
 2096SOL     OW 8184   5.427   1.420   5.208
 2096SOL    HW1 8185   5.467   1.333   5.202
 2096SOL    HW2 8186   5.480   1.466   5.273
 2097SOL     OW 8187  11.614   8.286   1.493
 2097SOL    HW1 8188  11.662   8.207   1.469
 2097SOL    HW2 8189  11.598   8.330   1.409
 2098SOL     OW 8190   2.826   7.318   2.122
 2098SOL    HW1 8191   2.912   7.329   2.082
 2098SOL    HW2 8192   2.833   7.238   2.174
 2099SOL     OW 8193   2.767   1.280   9.538
 2099SOL    HW1 8194   2.832   1.344   9.566
 2099SOL    HW2 8195   2.712   1.267   9.615
 2100SOL     OW 8196   4.825   0.112   9.229
 2100SOL    HW1 8197   4.785   0.026   9.210
 2100SOL    HW2 8198   4.874   0.134   9.150
 2101SOL     OW 8199   6.891   2.364   6.196
 2101SOL    HW1 8200   6.985   2.369   6.216
 2101SOL    HW2 8201   6.863   2.455   6.187
 2102SOL     OW 8202   2.079   5.388  11.294
 2102SOL    HW1 8203   2.111   5.444  11.365
 2102SOL    HW2 8204   2.105   5.433  11.214
 2103SOL     OW 8205   6.465  12.082  12.782
 2103SOL    HW1 8206   6.491  11.991  12.799
 2103SOL    HW2 8207   6.381  12.092  12.826
 2104SOL     OW 8208   4.377   0.600   9.667
 2104SOL    HW1 8209   4.445   0.566   9.724
 2104SOL    HW2 8210   4.415   0.598   9.579
 2105SOL     OW 8211   7.301   0.228  11.596
 2105SOL    HW1 8212   7.266   0.178  11.522
 2105SOL    HW2 8213   7.396   0.219  11.587
 2106SOL     OW 8214   7.550   0.165   3.011
 2106SOL    HW1 8215   7.576   0.183   3.101
 2106SOL    HW2 8216   7.459   0.134   3.019
 2107SOL     OW 8217  13.024   4.509   2.474
 2107SOL    HW1 8218  12.968   4.435   2.498
 2107SOL    HW2 8219  12.971   4.586   2.491
 2108SOL     OW 8220  14.365   8.291  14.113
 2108SOL    HW1 8221  14.395   8.261  14.198
 2108SOL    HW2 8222  14.379   8.216  14.055
 2109SOL     OW 8223   3.161   8.643  11.161
 2109SOL    HW1 8224   3.112   8.602  11.233
 2109SOL    HW2 8225   3.237   8.683  11.203
 2110SOL     OW 8226   5.440  12.415   6.274
 2110SOL    HW1 8227   5.473  12.504   6.284
 2110SOL    HW2 8228   5.423  12.386   6.364
 2111SOL     OW 8229  11.323  14.118   5.755
 2111SOL    HW1 8230  11.289  14.101   5.667
 2111SOL    HW2 8231  11.251  14.161   5.801
 2112SOL     OW 8232   8.787   5.497   9.604
 2112SOL    HW1 8233   8.865   5.443   9.588
 2112SOL    HW2 8234   8.718   5.455   9.552
 2113SOL     OW 8235   7.973   5.874   4.265
 2113SOL    HW1 8236   7.987   5.864   4.359
 2113SOL    HW2 8237   8.049   5.831   4.225
 2114SOL     OW 8238  12.637   3.841   1.200
 2114SOL    HW1 8239  12.693   3.889   1.139
 2114SOL    HW2 8240  12.645   3.749   1.173
 2115SOL     OW 8241   2.569  12.126  12.205
 2115SOL    HW1 8242   2.664  12.135  12.201
 2115SOL    HW2 8243   2.536  12.176  12.130
 2116SOL     OW 8244   0.144   1.704   9.998
 2116SOL    HW1 8245   0.211   1.703   9.929
 2116SOL    HW2 8246   0.179   1.648  10.067
 2117SOL     OW 8247   2.517   3.112  10.237
 2117SOL    HW1 8248   2.555   3.024  10.234
 2117SOL    HW2 8249   2.586   3.169  10.204
 2118SOL     OW 8250   0.669   2.649  14.837
 2118SOL    HW1 8251   0.687   2.580  14.773
 2118SOL    HW2 8252   0.586   2.686  14.809
 2119SOL     OW 8253   2.838  10.280   8.068
 2119SOL    HW1 8254   2.826  10.233   7.985
 2119SOL    HW2 8255   2.867  10.367   8.042
 2120SOL     OW 8256  13.462   5.648   0.595
 2120SOL    HW1 8257  13.511   5.696   0.528
 2120SOL    HW2 8258  13.416   5.579   0.547
 2121SOL     OW 8259   4.118  12.730  12.841
 2121SOL    HW1 8260   4.140  12.788  12.768
 2121SOL    HW2 8261   4.040  12.769  12.880
 2122SOL     OW 8262  10.676  11.021   0.725
 2122SOL    HW1 8263  10.727  11.074   0.787
 2122SOL    HW2 8264  10.738  10.955   0.694
 2123SOL     OW 8265   6.219  10.475   9.837
 2123SOL    HW1 8266   6.254  10.552   9.792
 2123SOL    HW2 8267   6.258  10.479   9.924
 2124SOL     OW 8268  13.419   6.477   1.022
 2124SOL    HW1 8269  13.474   6.399   1.010
 2124SOL    HW2 8270  13.334   6.451   0.989
 2125SOL     OW 8271   7.147   8.648   2.415
 2125SOL    HW1 8272   7.164   8.679   2.326
 2125SOL    HW2 8273   7.227   8.600   2.438
 2126SOL     OW 8274   6.974  10.341   0.236
 2126SOL    HW1 8275   7.032  10.275   0.197
 2126SOL    HW2 8276   7.010  10.355   0.324
 2127SOL     OW 8277   5.888   7.131  10.337
 2127SOL    HW1 8278   5.801   7.138  10.299
 2127SOL    HW2 8279   5.878   7.069  10.409
 2128SOL     OW 8280  10.240  14.025   1.870
 2128SOL    HW1 8281  10.234  14.084   1.946
 2128SOL    HW2 8282  10.212  14.079   1.796
 2129SOL     OW 8283  11.011   1.518   1.320
 2129SOL    HW1 8284  10.956   1.524   1.242
 2129SOL    HW2 8285  11.085   1.576   1.303
 2130SOL     OW 8286  10.970   0.491  10.119
 2130SOL    HW1 8287  11.025   0.460  10.190
 2130SOL    HW2 8288  10.915   0.416  10.096
 2131SOL     OW 8289   7.149   8.343   5.078
 2131SOL    HW1 8290   7.104   8.341   4.994
 2131SOL    HW2 8291   7.218   8.276   5.070
 2132SOL     OW 8292  11.116  10.214   1.555
 2132SOL    HW1 8293  11.094  10.299   1.593
 2132SOL    HW2 8294  11.035  10.164   1.559
 2133SOL     OW 8295   5.935   3.167  13.762
 2133SOL    HW1 8296   5.961   3.232  13.697
 2133SOL    HW2 8297   5.962   3.083  13.725
 2134SOL     OW 8298   4.868  10.108   9.250
 2134SOL    HW1 8299   4.891  10.118   9.343
 2134SOL    HW2 8300   4.808  10.033   9.248
 2135SOL     OW 8301   0.520   4.416   4.675
 2135SOL    HW1 8302   0.566   4.467   4.608
 2135SOL    HW2 8303   0.432   4.403   4.639
 2136SOL     OW 8304  10.494  11.269  10.740
 2136SOL    HW1 8305  10.546  11.191  10.755
 2136SOL    HW2 8306  10.515  11.327  10.813
 2137SOL     OW 8307   3.993   9.705  10.837
 2137SOL    HW1 8308   3.909   9.680  10.798
 2137SOL    HW2 8309   3.969   9.748  10.920
 2138SOL     OW 8310   6.045  10.432   4.671
 2138SOL    HW1 8311   6.077  10.395   4.753
 2138SOL    HW2 8312   5.968  10.483   4.696
 2139SOL     OW 8313  13.368   5.532   1.158
 2139SOL    HW1 8314  13.382   5.572   1.243
 2139SOL    HW2 8315  13.444   5.476   1.144
 2140SOL     OW 8316  13.974   7.726  12.617
 2140SOL    HW1 8317  14.017   7.701  12.536
 2140SOL    HW2 8318  14.045   7.733  12.681
 2141SOL     OW 8319  11.168   8.401   1.683
 2141SOL    HW1 8320  11.099   8.339   1.661
 2141SOL    HW2 8321  11.249   8.352   1.674
 2142SOL     OW 8322   1.149   2.974   0.130
 2142SOL    HW1 8323   1.161   2.881   0.145
 2142SOL    HW2 8324   1.114   3.008   0.213
 2143SOL     OW 8325   1.639  12.143   7.743
 2143SOL    HW1 8326   1.657  12.143   7.649
 2143SOL    HW2 8327   1.723  12.122   7.783
 2144SOL     OW 8328   4.980   3.271   5.817
 2144SOL    HW1 8329   4.987   3.234   5.905
 2144SOL    HW2 8330   5.025   3.208   5.761
 2145SOL     OW 8331   6.804   1.453  10.200
 2145SOL    HW1 8332   6.722   1.464  10.152
 2145SOL    HW2 8333   6.871   1.449  10.133
 2146SOL     OW 8334   5.510   9.893   1.947
 2146SOL    HW1 8335   5.460   9.966   1.910
 2146SOL    HW2 8336   5.499   9.903   2.042
 2147SOL     OW 8337  13.418   6.146   4.939
 2147SOL    HW1 8338  13.428   6.134   5.034
 2147SOL    HW2 8339  13.365   6.072   4.911
 2148SOL     OW 8340   4.687  10.880   0.454
 2148SOL    HW1 8341   4.697  10.857   0.362
 2148SOL    HW2 8342   4.738  10.813   0.501
 2149SOL     OW 8343   3.186   5.684   9.017
 2149SOL    HW1 8344   3.144   5.640   8.943
 2149SOL    HW2 8345   3.179   5.777   8.997
 2150SOL     OW 8346   1.165   3.386  10.817
 2150SOL    HW1 8347   1.234   3.399  10.752
 2150SOL    HW2 8348   1.084   3.392  10.766
 2151SOL     OW 8349   8.506   9.711   6.143
 2151SOL    HW1 8350   8.555   9.703   6.225
 2151SOL    HW2 8351   8.543   9.789   6.102
 2152SOL     OW 8352  14.556   2.128   5.288
 2152SOL    HW1 8353  14.612   2.079   5.348
 2152SOL    HW2 8354  14.488   2.165   5.344
 2153SOL     OW 8355   4.896  11.620   9.707
 2153SOL    HW1 8356   4.890  11.694   9.647
 2153SOL    HW2 8357   4.809  11.614   9.746
 2154SOL     OW 8358   1.703   6.867   1.549
 2154SOL    HW1 8359   1.697   6.852   1.643
 2154SOL    HW2 8360   1.657   6.950   1.535
 2155SOL     OW 8361   6.140   6.557  10.715
 2155SOL    HW1 8362   6.201   6.487  10.738
 2155SOL    HW2 8363   6.175   6.635  10.757
 2156SOL     OW 8364   2.513  14.541  12.137
 2156SOL    HW1 8365   2.474  14.624  12.108
 2156SOL    HW2 8366   2.605  14.548  12.111
 2157SOL     OW 8367   8.223   4.987  11.900
 2157SOL    HW1 8368   8.255   4.972  11.811
 2157SOL    HW2 8369   8.220   5.083  11.908
 2158SOL     OW 8370   9.713  10.060   5.829
 2158SOL    HW1 8371   9.700   9.981   5.776
 2158SOL    HW2 8372   9.761  10.119   5.771
 2159SOL     OW 8373  11.513   6.467   7.030
 2159SOL    HW1 8374  11.529   6.541   6.971
 2159SOL    HW2 8375  11.491   6.508   7.114
 2160SOL     OW 8376  14.452   3.284  10.958
 2160SOL    HW1 8377  14.431   3.193  10.938
 2160SOL    HW2 8378  14.544   3.282  10.986
 2161SOL     OW 8379  13.678   1.218  11.950
 2161SOL    HW1 8380  13.681   1.300  11.999
 2161SOL    HW2 8381  13.641   1.155  12.011
 2162SOL     OW 8382   9.620  11.758   1.999
 2162SOL    HW1 8383   9.643  11.811   2.075
 2162SOL    HW2 8384   9.702  11.745   1.952
 2163SOL     OW 8385   0.195   8.000   8.598
 2163SOL    HW1 8386   0.124   8.053   8.562
 2163SOL    HW2 8387   0.169   7.984   8.689
 2164SOL     OW 8388   3.135   6.725  12.652
 2164SOL    HW1 8389   3.145   6.708  12.558
 2164SOL    HW2 8390   3.216   6.769  12.677
 2165SOL     OW 8391   2.403   4.364   8.087
 2165SOL    HW1 8392   2.348   4.375   8.009
 2165SOL    HW2 8393   2.462   4.439   8.086
 2166SOL     OW 8394   3.426   8.577  10.723
 2166SOL    HW1 8395   3.517   8.552  10.735
 2166SOL    HW2 8396   3.388   8.574  10.810
 2167SOL     OW 8397   0.928   5.898  13.097
 2167SOL    HW1 8398   0.919   5.983  13.055
 2167SOL    HW2 8399   1.019   5.896  13.128
 2168SOL     OW 8400   0.535  14.278  11.056
 2168SOL    HW1 8401   0.464  14.342  11.044
 2168SOL    HW2 8402   0.517  14.239  11.141
 2169SOL     OW 8403   4.996   9.089  14.741
 2169SOL    HW1 8404   4.955   9.094  14.655
 2169SOL    HW2 8405   4.965   9.007  14.778
 2170SOL     OW 8406  12.177  13.549   2.412
 2170SOL    HW1 8407  12.134  13.496   2.479
 2170SOL    HW2 8408  12.243  13.491   2.374
 2171SOL     OW 8409   3.091  14.008  10.127
 2171SOL    HW1 8410   3.001  14.038  10.116
 2171SOL    HW2 8411   3.104  13.944  10.057
 2172SOL     OW 8412   5.581   6.737   3.213
 2172SOL    HW1 8413   5.533   6.820   3.220
 2172SOL    HW2 8414   5.525   6.682   3.158
 2173SOL     OW 8415   7.774   4.839  12.237
 2173SOL    HW1 8416   7.815   4.864  12.154
 2173SOL    HW2 8417   7.810   4.752  12.256
 2174SOL     OW 8418  10.508   8.789   0.744
 2174SOL    HW1 8419  10.472   8.749   0.665
 2174SOL    HW2 8420  10.587   8.833   0.715
 2175SOL     OW 8421   7.268   9.033   1.419
 2175SOL    HW1 8422   7.307   8.947   1.403
 2175SOL    HW2 8423   7.223   9.054   1.337
 2176SOL     OW 8424   3.852   0.769  13.598
 2176SOL    HW1 8425   3.844   0.810  13.684
 2176SOL    HW2 8426   3.770   0.721  13.587
 2177SOL     OW 8427  14.509  13.141  10.359
 2177SOL    HW1 8428  14.542  13.221  10.400
 2177SOL    HW2 8429  14.569  13.073  10.390
 2178SOL     OW 8430  11.917  11.420   8.851
 2178SOL    HW1 8431  11.993  11.388   8.900
 2178SOL    HW2 8432  11.851  11.351   8.862
 2179SOL     OW 8433  13.342   9.201  10.886
 2179SOL    HW1 8434  13.252   9.219  10.913
 2179SOL    HW2 8435  13.365   9.120  10.931
 2180SOL     OW 8436  11.788   7.236   0.921
 2180SOL    HW1 8437  11.703   7.213   0.960
 2180SOL    HW2 8438  11.767   7.261   0.831
 2181SOL     OW 8439  12.434   4.067   0.188
 2181SOL    HW1 8440  12.390   4.094   0.107
 2181SOL    HW2 8441  12.374   4.094   0.257
 2182SOL     OW 8442   5.487   3.435   7.537
 2182SOL    HW1 8443   5.449   3.457   7.621
 2182SOL    HW2 8444   5.539   3.356   7.554
 2183SOL     OW 8445   4.187   3.954  12.548
 2183SOL    HW1 8446   4.281   3.968  12.563
 2183SOL    HW2 8447   4.182   3.870  12.503
 2184SOL     OW 8448  10.562   4.457   2.619
 2184SOL    HW1 8449  10.631   4.523   2.611
 2184SOL    HW2 8450  10.582   4.410   2.699
 2185SOL     OW 8451   1.925   5.494  14.654
 2185SOL    HW1 8452   1.979   5.530  14.724
 2185SOL    HW2 8453   1.845   5.466  14.699
 2186SOL     OW 8454  11.504   3.767  10.961
 2186SOL    HW1 8455  11.519   3.827  10.888
 2186SOL    HW2 8456  11.587   3.722  10.973
 2187SOL     OW 8457  12.231  12.313   4.503
 2187SOL    HW1 8458  12.179  12.372   4.558
 2187SOL    HW2 8459  12.272  12.371   4.439
 2188SOL     OW 8460  12.057   2.343   1.532
 2188SOL    HW1 8461  11.978   2.353   1.586
 2188SOL    HW2 8462  12.023   2.319   1.446
 2189SOL     OW 8463   5.458   6.619  10.144
 2189SOL    HW1 8464   5.552   6.635  10.148
 2189SOL    HW2 8465   5.429   6.663  10.063
 2190SOL     OW 8466  13.514  13.806  13.769
 2190SOL    HW1 8467  13.505  13.855  13.851
 2190SOL    HW2 8468  13.493  13.715  13.793
 2191SOL     OW 8469   6.841  14.653   3.058
 2191SOL    HW1 8470   6.891  14.725   3.096
 2191SOL    HW2 8471   6.899  14.577   3.065
 2192SOL     OW 8472  14.472   3.307  12.809
 2192SOL    HW1 8473  14.528   3.356  12.869
 2192SOL    HW2 8474  14.469   3.360  12.729
 2193SOL     OW 8475   8.164   1.376  12.295
 2193SOL    HW1 8476   8.150   1.436  12.369
 2193SOL    HW2 8477   8.097   1.400  12.232
 2194SOL     OW 8478  11.634  14.840  13.652
 2194SOL    HW1 8479  11.661   0.015  13.576
 2194SOL    HW2 8480  11.602   0.026  13.715
 2195SOL     OW 8481   2.975   4.640  10.732
 2195SOL    HW1 8482   2.894   4.669  10.690
 2195SOL    HW2 8483   3.027   4.602  10.661
 2196SOL     OW 8484  10.324   8.523   6.913
 2196SOL    HW1 8485  10.314   8.609   6.953
 2196SOL    HW2 8486  10.247   8.513   6.858
 2197SOL     OW 8487  13.679  11.541   6.727
 2197SOL    HW1 8488  13.725  11.525   6.645
 2197SOL    HW2 8489  13.691  11.635   6.744
 2198SOL     OW 8490   0.855  13.428   1.122
 2198SOL    HW1 8491   0.791  13.446   1.053
 2198SOL    HW2 8492   0.939  13.424   1.077
 2199SOL     OW 8493  10.369  14.347   3.877
 2199SOL    HW1 8494  10.339  14.382   3.794
 2199SOL    HW2 8495  10.290  14.321   3.923
 2200SOL     OW 8496  10.154   7.149   7.877
 2200SOL    HW1 8497  10.097   7.078   7.904
 2200SOL    HW2 8498  10.226   7.148   7.940
 2201SOL     OW 8499   2.405   8.491  11.252
 2201SOL    HW1 8500   2.330   8.547  11.274
 2201SOL    HW2 8501   2.378   8.447  11.171
 2202SOL     OW 8502  11.940   2.344  12.838
 2202SOL    HW1 8503  11.997   2.267  12.848
 2202SOL    HW2 8504  11.959   2.376  12.749
 2203SOL     OW 8505   8.715  12.112   9.438
 2203SOL    HW1 8506   8.789  12.168   9.414
 2203SOL    HW2 8507   8.640  12.151   9.393
 2204SOL     OW 8508   1.200   4.897   7.389
 2204SOL    HW1 8509   1.291   4.870   7.402
 2204SOL    HW2 8510   1.149   4.818   7.409
 2205SOL     OW 8511   4.836   6.522   1.969
 2205SOL    HW1 8512   4.819   6.430   1.992
 2205SOL    HW2 8513   4.922   6.520   1.928
 2206SOL     OW 8514   8.614   2.607  13.376
 2206SOL    HW1 8515   8.610   2.680  13.438
 2206SOL    HW2 8516   8.698   2.564  13.395
 2207SOL     OW 8517  10.028  12.559   7.526
 2207SOL    HW1 8518  10.095  12.581   7.590
 2207SOL    HW2 8519   9.983  12.641   7.508
 2208SOL     OW 8520   4.421   2.327  11.882
 2208SOL    HW1 8521   4.434   2.375  11.800
 2208SOL    HW2 8522   4.357   2.260  11.860
 2209SOL     OW 8523   3.841   4.585   6.229
 2209SOL    HW1 8524   3.896   4.606   6.305
 2209SOL    HW2 8525   3.808   4.497   6.247
 2210SOL     OW 8526   7.710  12.079   3.989
 2210SOL    HW1 8527   7.783  12.091   4.051
 2210SOL    HW2 8528   7.752  12.080   3.903
 2211SOL     OW 8529   9.269   6.907   0.139
 2211SOL    HW1 8530   9.347   6.907   0.194
 2211SOL    HW2 8531   9.290   6.967   0.067
 2212SOL     OW 8532  11.358   2.784   5.874
 2212SOL    HW1 8533  11.447   2.779   5.840
 2212SOL    HW2 8534  11.340   2.878   5.884
 2213SOL     OW 8535  11.057  11.045  13.537
 2213SOL    HW1 8536  11.005  11.037  13.618
 2213SOL    HW2 8537  11.012  11.112  13.486
 2214SOL     OW 8538  11.709   9.047   8.853
 2214SOL    HW1 8539  11.676   8.958   8.862
 2214SOL    HW2 8540  11.635   9.103   8.876
 2215SOL     OW 8541   1.967   6.355  11.483
 2215SOL    HW1 8542   1.948   6.435  11.533
 2215SOL    HW2 8543   1.895   6.349  11.420
 2216SOL     OW 8544  11.421  11.801   5.816
 2216SOL    HW1 8545  11.422  11.859   5.739
 2216SOL    HW2 8546  11.503  11.820   5.861
 2217SOL     OW 8547  11.841   6.782   2.044
 2217SOL    HW1 8548  11.760   6.819   2.009
 2217SOL    HW2 8549  11.864   6.839   2.117
 2218SOL     OW 8550  13.089  13.475  13.354
 2218SOL    HW1 8551  13.140  13.487  13.434
 2218SOL    HW2 8552  13.136  13.407  13.305
 2219SOL     OW 8553   5.776  13.055  13.686
 2219SOL    HW1 8554   5.840  12.994  13.722
 2219SOL    HW2 8555   5.691  13.014  13.702
 2220SOL     OW 8556   6.967   8.156   7.968
 2220SOL    HW1 8557   6.914   8.204   8.032
 2220SOL    HW2 8558   7.051   8.202   7.966
 2221SOL     OW 8559  13.693   6.240   7.867
 2221SOL    HW1 8560  13.614   6.213   7.915
 2221SOL    HW2 8561  13.661   6.304   7.804
 2222SOL     OW 8562  12.824   3.788   0.196
 2222SOL    HW1 8563  12.838   3.695   0.177
 2222SOL    HW2 8564  12.742   3.809   0.151
 2223SOL     OW 8565   6.458   7.441  12.693
 2223SOL    HW1 8566   6.535   7.494  12.677
 2223SOL    HW2 8567   6.407   7.447  12.611
 2224SOL     OW 8568   7.390   0.561   9.055
 2224SOL    HW1 8569   7.414   0.628   9.119
 2224SOL    HW2 8570   7.349   0.610   8.984
 2225SOL     OW 8571  13.309  10.282   6.374
 2225SOL    HW1 8572  13.326  10.368   6.410
 2225SOL    HW2 8573  13.273  10.299   6.287
 2226SOL     OW 8574  13.007   7.297   7.504
 2226SOL    HW1 8575  13.088   7.280   7.553
 2226SOL    HW2 8576  13.008   7.232   7.433
 2227SOL     OW 8577  14.090  14.680   4.808
 2227SOL    HW1 8578  14.031  14.727   4.868
 2227SOL    HW2 8579  14.035  14.613   4.768
 2228SOL     OW 8580   5.275   7.677   2.613
 2228SOL    HW1 8581   5.240   7.633   2.535
 2228SOL    HW2 8582   5.261   7.771   2.596
 2229SOL     OW 8583  11.928  12.822   5.086
 2229SOL    HW1 8584  11.916  12.884   5.013
 2229SOL    HW2 8585  11.876  12.858   5.157
 2230SOL     OW 8586  11.233   9.305  12.358
 2230SOL    HW1 8587  11.271   9.347  12.435
 2230SOL    HW2 8588  11.141   9.332  12.359
 2231SOL     OW 8589   0.793   6.181   1.936
 2231SOL    HW1 8590   0.803   6.108   1.875
 2231SOL    HW2 8591   0.703   6.211   1.923
 2232SOL     OW 8592   7.981   9.780   6.926
 2232SOL    HW1 8593   7.918   9.721   6.968
 2232SOL    HW2 8594   8.036   9.722   6.874
 2233SOL     OW 8595  14.128  13.379   9.637
 2233SOL    HW1 8596  14.059  13.330   9.682
 2233SOL    HW2 8597  14.166  13.436   9.704
 2234SOL     OW 8598   0.861   5.561  14.051
 2234SOL    HW1 8599   0.813   5.488  14.090
 2234SOL    HW2 8600   0.829   5.565  13.961
 2235SOL     OW 8601   5.744   4.749   7.929
 2235SOL    HW1 8602   5.797   4.771   7.852
 2235SOL    HW2 8603   5.659   4.724   7.893
 2236SOL     OW 8604   5.483  14.581   9.792
 2236SOL    HW1 8605   5.459  14.643   9.724
 2236SOL    HW2 8606   5.546  14.628   9.847
 2237SOL     OW 8607  12.364  11.901   5.032
 2237SOL    HW1 8608  12.293  11.965   5.035
 2237SOL    HW2 8609  12.342  11.845   4.957
 2238SOL     OW 8610  10.059  13.944   3.602
 2238SOL    HW1 8611  10.041  13.850   3.590
 2238SOL    HW2 8612  10.154  13.948   3.617
 2239SOL     OW 8613  13.898  13.268   6.813
 2239SOL    HW1 8614  13.909  13.361   6.792
 2239SOL    HW2 8615  13.975  13.226   6.777
 2240SOL     OW 8616  12.806   0.400  11.161
 2240SOL    HW1 8617  12.776   0.426  11.074
 2240SOL    HW2 8618  12.796   0.305  11.162
 2241SOL     OW 8619  14.734   1.018   3.955
 2241SOL    HW1 8620  14.672   1.089   3.945
 2241SOL    HW2 8621  14.819   1.061   3.962
 2242SOL     OW 8622   4.549   6.083  13.696
 2242SOL    HW1 8623   4.600   6.057  13.773
 2242SOL    HW2 8624   4.604   6.147  13.651
 2243SOL     OW 8625   4.946   0.191  13.196
 2243SOL    HW1 8626   4.952   0.113  13.142
 2243SOL    HW2 8627   5.008   0.176  13.268
 2244SOL     OW 8628  13.025   7.763  10.267
 2244SOL    HW1 8629  13.025   7.858  10.281
 2244SOL    HW2 8630  12.933   7.743  10.246
 2245SOL     OW 8631  10.681   0.861  12.113
 2245SOL    HW1 8632  10.603   0.881  12.062
 2245SOL    HW2 8633  10.725   0.945  12.125
 2246SOL     OW 8634  14.589  12.272   4.144
 2246SOL    HW1 8635  14.680  12.299   4.138
 2246SOL    HW2 8636  14.575  12.254   4.237
 2247SOL     OW 8637   9.697  11.812   8.860
 2247SOL    HW1 8638   9.707  11.906   8.847
 2247SOL    HW2 8639   9.776  11.774   8.821
 2248SOL     OW 8640   3.585   4.805  13.117
 2248SOL    HW1 8641   3.516   4.785  13.054
 2248SOL    HW2 8642   3.659   4.834  13.063
 2249SOL     OW 8643   2.632  11.038   5.259
 2249SOL    HW1 8644   2.645  10.954   5.216
 2249SOL    HW2 8645   2.567  11.021   5.327
 2250SOL     OW 8646   0.504  10.222   6.963
 2250SOL    HW1 8647   0.557  10.162   7.016
 2250SOL    HW2 8648   0.434  10.167   6.928
 2251SOL     OW 8649   4.161   5.434   4.510
 2251SOL    HW1 8650   4.214   5.409   4.586
 2251SOL    HW2 8651   4.137   5.350   4.469
 2252SOL     OW 8652   7.107  14.426   2.272
 2252SOL    HW1 8653   7.018  14.459   2.278
 2252SOL    HW2 8654   7.140  14.427   2.362
 2253SOL     OW 8655  10.663   5.195   9.008
 2253SOL    HW1 8656  10.616   5.258   8.953
 2253SOL    HW2 8657  10.626   5.110   8.985
 2254SOL     OW 8658   6.737   9.388   8.776
 2254SOL    HW1 8659   6.681   9.322   8.815
 2254SOL    HW2 8660   6.802   9.407   8.844
 2255SOL     OW 8661   0.800  10.884  11.556
 2255SOL    HW1 8662   0.732  10.843  11.503
 2255SOL    HW2 8663   0.756  10.960  11.595
 2256SOL     OW 8664  14.563  13.386   4.642
 2256SOL    HW1 8665  14.563  13.407   4.549
 2256SOL    HW2 8666  14.474  13.355   4.659
 2257SOL     OW 8667  12.381   5.900   1.622
 2257SOL    HW1 8668  12.448   5.968   1.619
 2257SOL    HW2 8669  12.303   5.941   1.583
 2258SOL     OW 8670   9.276   8.612   0.152
 2258SOL    HW1 8671   9.371   8.614   0.166
 2258SOL    HW2 8672   9.255   8.700   0.121
 2259SOL     OW 8673   9.025   6.929  12.974
 2259SOL    HW1 8674   9.113   6.946  13.006
 2259SOL    HW2 8675   9.023   6.965  12.886
 2260SOL     OW 8676   7.044   3.993   6.476
 2260SOL    HW1 8677   7.035   3.897   6.477
 2260SOL    HW2 8678   7.092   4.012   6.396
 2261SOL     OW 8679  11.860  11.528   9.682
 2261SOL    HW1 8680  11.908  11.597   9.636
 2261SOL    HW2 8681  11.927  11.477   9.727
 2262SOL     OW 8682  11.531   2.540   6.134
 2262SOL    HW1 8683  11.597   2.477   6.164
 2262SOL    HW2 8684  11.501   2.582   6.215
 2263SOL     OW 8685   2.546   9.070   5.319
 2263SOL    HW1 8686   2.561   9.103   5.230
 2263SOL    HW2 8687   2.561   8.975   5.312
 2264SOL     OW 8688   6.499  11.216   3.885
 2264SOL    HW1 8689   6.586  11.228   3.849
 2264SOL    HW2 8690   6.514  11.186   3.975
 2265SOL     OW 8691   0.684   9.848   6.804
 2265SOL    HW1 8692   0.675   9.908   6.730
 2265SOL    HW2 8693   0.758   9.882   6.854
 2266SOL     OW 8694  10.050   9.252   0.508
 2266SOL    HW1 8695  10.093   9.285   0.587
 2266SOL    HW2 8696  10.066   9.321   0.443
 2267SOL     OW 8697   5.832   9.499  10.141
 2267SOL    HW1 8698   5.869   9.581  10.174
 2267SOL    HW2 8699   5.807   9.519  10.051
 2268SOL     OW 8700   0.279  14.410  14.129
 2268SOL    HW1 8701   0.233  14.327  14.144
 2268SOL    HW2 8702   0.334  14.392  14.052
 2269SOL     OW 8703   2.110   5.547   3.959
 2269SOL    HW1 8704   2.169   5.581   3.892
 2269SOL    HW2 8705   2.149   5.574   4.042
 2270SOL     OW 8706   0.805   7.924   7.531
 2270SOL    HW1 8707   0.886   7.975   7.537
 2270SOL    HW2 8708   0.749   7.976   7.473
 2271SOL     OW 8709  14.605   0.483  10.184
 2271SOL    HW1 8710  14.579   0.575  10.177
 2271SOL    HW2 8711  14.701   0.486  10.187
 2272SOL     OW 8712   2.708   7.269   5.289
 2272SOL    HW1 8713   2.782   7.257   5.230
 2272SOL    HW2 8714   2.743   7.320   5.362
 2273SOL     OW 8715   9.670  12.551   1.720
 2273SOL    HW1 8716   9.596  12.517   1.771
 2273SOL    HW2 8717   9.665  12.646   1.731
 2274SOL     OW 8718   3.498  13.076   3.813
 2274SOL    HW1 8719   3.589  13.048   3.802
 2274SOL    HW2 8720   3.484  13.077   3.908
 2275SOL     OW 8721  12.116   5.996   1.768
 2275SOL    HW1 8722  12.115   5.966   1.677
 2275SOL    HW2 8723  12.024   5.991   1.795
 2276SOL     OW 8724  13.654   1.672   8.422
 2276SOL    HW1 8725  13.702   1.685   8.503
 2276SOL    HW2 8726  13.673   1.582   8.396
 2277SOL     OW 8727   1.777   9.236  10.067
 2277SOL    HW1 8728   1.696   9.226  10.117
 2277SOL    HW2 8729   1.763   9.314  10.013
 2278SOL     OW 8730   3.915   2.333  11.554
 2278SOL    HW1 8731   3.852   2.271  11.515
 2278SOL    HW2 8732   3.968   2.362  11.480
 2279SOL     OW 8733   8.690   9.360   8.371
 2279SOL    HW1 8734   8.729   9.316   8.446
 2279SOL    HW2 8735   8.757   9.423   8.344
 2280SOL     OW 8736   2.779   1.508   4.788
 2280SOL    HW1 8737   2.764   1.590   4.740
 2280SOL    HW2 8738   2.783   1.535   4.880
 2281SOL     OW 8739  11.161   7.606   0.094
 2281SOL    HW1 8740  11.128   7.695   0.103
 2281SOL    HW2 8741  11.190   7.582   0.182
 2282SOL     OW 8742   9.241   9.451  13.106
 2282SOL    HW1 8743   9.333   9.466  13.084
 2282SOL    HW2 8744   9.243   9.378  13.167
 2283SOL     OW 8745   8.317  14.410   1.809
 2283SOL    HW1 8746   8.241  14.441   1.859
 2283SOL    HW2 8747   8.285  14.402   1.719
 2284SOL     OW 8748   4.232  14.404   2.047
 2284SOL    HW1 8749   4.232  14.337   2.115
 2284SOL    HW2 8750   4.240  14.487   2.095
 2285SOL     OW 8751   7.421  12.154   9.331
 2285SOL    HW1 8752   7.453  12.114   9.250
 2285SOL    HW2 8753   7.388  12.080   9.383
 2286SOL     OW 8754   2.261  13.023  10.362
 2286SOL    HW1 8755   2.278  13.032  10.268
 2286SOL    HW2 8756   2.322  12.956  10.392
 2287SOL     OW 8757  10.296   4.087  12.025
 2287SOL    HW1 8758  10.301   4.182  12.041
 2287SOL    HW2 8759  10.213   4.075  11.977
 2288SOL     OW 8760   3.735  13.291   4.932
 2288SOL    HW1 8761   3.706  13.261   5.018
 2288SOL    HW2 8762   3.660  13.277   4.875
 2289SOL     OW 8763   0.932   7.493   5.560
 2289SOL    HW1 8764   0.945   7.437   5.637
 2289SOL    HW2 8765   0.965   7.441   5.487
 2290SOL     OW 8766   0.876   7.045  11.408
 2290SOL    HW1 8767   0.928   7.120  11.436
 2290SOL    HW2 8768   0.904   7.028  11.318
 2291SOL     OW 8769   1.307   4.006   5.414
 2291SOL    HW1 8770   1.362   3.988   5.338
 2291SOL    HW2 8771   1.220   3.974   5.389
 2292SOL     OW 8772   9.721   3.079  10.696
 2292SOL    HW1 8773   9.696   2.989  10.672
 2292SOL    HW2 8774   9.785   3.068  10.766
 2293SOL     OW 8775   6.177   8.359  11.600
 2293SOL    HW1 8776   6.261   8.402  11.605
 2293SOL    HW2 8777   6.151   8.368  11.508
 2294SOL     OW 8778   3.533  13.750   9.054
 2294SOL    HW1 8779   3.508  13.813   8.985
 2294SOL    HW2 8780   3.569  13.805   9.124
 2295SOL     OW 8781  13.248   5.822   5.285
 2295SOL    HW1 8782  13.203   5.905   5.267
 2295SOL    HW2 8783  13.269   5.787   5.198
 2296SOL     OW 8784   3.055   4.539   5.130
 2296SOL    HW1 8785   3.151   4.550   5.129
 2296SOL    HW2 8786   3.021   4.628   5.123
 2297SOL     OW 8787   0.558   4.968   8.415
 2297SOL    HW1 8788   0.638   4.919   8.433
 2297SOL    HW2 8789   0.542   5.018   8.496
 2298SOL     OW 8790  10.283   2.274  10.779
 2298SOL    HW1 8791  10.305   2.363  10.754
 2298SOL    HW2 8792  10.345   2.219  10.731
 2299SOL     OW 8793   6.145  12.696  12.088
 2299SOL    HW1 8794   6.147  12.680  11.993
 2299SOL    HW2 8795   6.183  12.617  12.126
 2300SOL     OW 8796  11.372  11.255  14.054
 2300SOL    HW1 8797  11.304  11.268  13.988
 2300SOL    HW2 8798  11.383  11.160  14.059
 2301SOL     OW 8799   3.385  14.561   7.588
 2301SOL    HW1 8800   3.443  14.504   7.536
 2301SOL    HW2 8801   3.297  14.526   7.573
 2302SOL     OW 8802   0.411   0.975  14.731
 2302SOL    HW1 8803   0.391   1.048  14.672
 2302SOL    HW2 8804   0.378   1.004  14.816
 2303SOL     OW 8805  11.691  12.003  14.846
 2303SOL    HW1 8806  11.678  11.969   0.057
 2303SOL    HW2 8807  11.785  11.996  14.831
 2304SOL     OW 8808   9.382   1.258  14.522
 2304SOL    HW1 8809   9.396   1.300  14.606
 2304SOL    HW2 8810   9.317   1.190  14.540
 2305SOL     OW 8811   1.715   8.625  12.633
 2305SOL    HW1 8812   1.773   8.660  12.701
 2305SOL    HW2 8813   1.645   8.690  12.625
 2306SOL     OW 8814   7.608  11.531  13.826
 2306SOL    HW1 8815   7.575  11.614  13.860
 2306SOL    HW2 8816   7.608  11.542  13.731
 2307SOL     OW 8817  10.638   4.645   4.224
 2307SOL    HW1 8818  10.611   4.670   4.312
 2307SOL    HW2 8819  10.729   4.616   4.234
 2308SOL     OW 8820   0.027   6.922  12.813
 2308SOL    HW1 8821  14.854   6.890  12.888
 2308SOL    HW2 8822  14.856   6.892  12.737
 2309SOL     OW 8823  12.202   0.235   9.731
 2309SOL    HW1 8824  12.118   0.214   9.773
 2309SOL    HW2 8825  12.268   0.209   9.795
 2310SOL     OW 8826  12.958  14.547  11.077
 2310SOL    HW1 8827  12.955  14.521  11.169
 2310SOL    HW2 8828  12.916  14.475  11.031
 2311SOL     OW 8829   1.556   4.220  14.307
 2311SOL    HW1 8830   1.621   4.268  14.256
 2311SOL    HW2 8831   1.518   4.157  14.245
 2312SOL     OW 8832   7.487   1.643   4.036
 2312SOL    HW1 8833   7.522   1.678   4.118
 2312SOL    HW2 8834   7.560   1.649   3.975
 2313SOL     OW 8835  10.884   7.066   8.021
 2313SOL    HW1 8836  10.873   7.053   8.115
 2313SOL    HW2 8837  10.961   7.122   8.013
 2314SOL     OW 8838   4.979  14.771   1.576
 2314SOL    HW1 8839   5.010  14.683   1.598
 2314SOL    HW2 8840   5.055  14.827   1.589
 2315SOL     OW 8841   7.660  12.988   0.194
 2315SOL    HW1 8842   7.725  12.977   0.124
 2315SOL    HW2 8843   7.614  12.904   0.198
 2316SOL     OW 8844   7.997   5.009   1.726
 2316SOL    HW1 8845   8.050   5.062   1.785
 2316SOL    HW2 8846   7.950   4.948   1.784
 2317SOL     OW 8847  13.142   9.874   6.021
 2317SOL    HW1 8848  13.094   9.913   5.949
 2317SOL    HW2 8849  13.229   9.914   6.017
 2318SOL     OW 8850   3.055  12.982   5.274
 2318SOL    HW1 8851   3.099  12.904   5.241
 2318SOL    HW2 8852   3.104  13.005   5.353
 2319SOL     OW 8853   2.330   3.961   7.310
 2319SOL    HW1 8854   2.347   3.925   7.223
 2319SOL    HW2 8855   2.389   4.036   7.317
 2320SOL     OW 8856   4.887   8.924   3.257
 2320SOL    HW1 8857   4.944   8.938   3.332
 2320SOL    HW2 8858   4.905   8.997   3.199
 2321SOL     OW 8859   9.067   5.837  12.429
 2321SOL    HW1 8860   9.116   5.920  12.431
 2321SOL    HW2 8861   8.976   5.863  12.439
 2322SOL     OW 8862   9.077   5.169   6.586
 2322SOL    HW1 8863   9.167   5.139   6.596
 2322SOL    HW2 8864   9.068   5.187   6.492
 2323SOL     OW 8865   8.212  14.738   0.742
 2323SOL    HW1 8866   8.264  14.684   0.801
 2323SOL    HW2 8867   8.216  14.826   0.781
 2324SOL     OW 8868   1.502   1.421  14.305
 2324SOL    HW1 8869   1.460   1.343  14.270
 2324SOL    HW2 8870   1.521   1.400  14.397
 2325SOL     OW 8871   3.038   8.627   6.088
 2325SOL    HW1 8872   3.004   8.656   6.173
 2325SOL    HW2 8873   2.975   8.562   6.058
 2326SOL     OW 8874  11.555   6.047   8.624
 2326SOL    HW1 8875  11.553   5.954   8.601
 2326SOL    HW2 8876  11.632   6.056   8.681
 2327SOL     OW 8877  12.566   5.918   9.900
 2327SOL    HW1 8878  12.546   5.935   9.993
 2327SOL    HW2 8879  12.493   5.866   9.869
 2328SOL     OW 8880  11.225   8.619   4.865
 2328SOL    HW1 8881  11.234   8.682   4.936
 2328SOL    HW2 8882  11.131   8.599   4.863
 2329SOL     OW 8883   8.636  12.417   7.787
 2329SOL    HW1 8884   8.721  12.376   7.771
 2329SOL    HW2 8885   8.648  12.508   7.760
 2330SOL     OW 8886  13.228   9.192   9.605
 2330SOL    HW1 8887  13.303   9.161   9.555
 2330SOL    HW2 8888  13.225   9.136   9.682
 2331SOL     OW 8889   3.198   5.449   5.691
 2331SOL    HW1 8890   3.139   5.393   5.639
 2331SOL    HW2 8891   3.268   5.473   5.630
 2332SOL     OW 8892   6.926   2.228  11.788
 2332SOL    HW1 8893   6.965   2.297  11.734
 2332SOL    HW2 8894   6.898   2.274  11.868
 2333SOL     OW 8895   6.341   7.005  14.295
 2333SOL    HW1 8896   6.312   6.921  14.330
 2333SOL    HW2 8897   6.294   7.015  14.213
 2334SOL     OW 8898   3.584   1.366  11.546
 2334SOL    HW1 8899   3.649   1.380  11.616
 2334SOL    HW2 8900   3.502   1.351  11.593
 2335SOL     OW 8901  11.939   1.122   3.470
 2335SOL    HW1 8902  11.935   1.048   3.531
 2335SOL    HW2 8903  11.941   1.081   3.383
 2336SOL     OW 8904  11.928   1.319   6.021
 2336SOL    HW1 8905  11.968   1.264   6.088
 2336SOL    HW2 8906  11.997   1.334   5.957
 2337SOL     OW 8907   8.884  11.207   3.110
 2337SOL    HW1 8908   8.858  11.157   3.187
 2337SOL    HW2 8909   8.803  11.226   3.063
 2338SOL     OW 8910   0.442   0.431   9.638
 2338SOL    HW1 8911   0.348   0.447   9.645
 2338SOL    HW2 8912   0.463   0.453   9.547
 2339SOL     OW 8913  11.122  11.712   2.349
 2339SOL    HW1 8914  11.037  11.673   2.327
 2339SOL    HW2 8915  11.182  11.675   2.284
 2340SOL     OW 8916  12.243   2.172   7.154
 2340SOL    HW1 8917  12.240   2.129   7.240
 2340SOL    HW2 8918  12.265   2.263   7.175
 2341SOL     OW 8919  14.639   2.611  14.334
 2341SOL    HW1 8920  14.597   2.696  14.344
 2341SOL    HW2 8921  14.694   2.621  14.256
 2342SOL     OW 8922  11.556  14.408   2.182
 2342SOL    HW1 8923  11.518  14.483   2.227
 2342SOL    HW2 8924  11.572  14.438   2.093
 2343SOL     OW 8925  10.617  11.677   7.467
 2343SOL    HW1 8926  10.575  11.706   7.548
 2343SOL    HW2 8927  10.584  11.587   7.455
 2344SOL     OW 8928   9.261   0.329  12.910
 2344SOL    HW1 8929   9.231   0.418  12.887
 2344SOL    HW2 8930   9.335   0.343  12.969
 2345SOL     OW 8931   3.366  13.454   9.962
 2345SOL    HW1 8932   3.280  13.483   9.994
 2345SOL    HW2 8933   3.347  13.386   9.899
 2346SOL     OW 8934  13.356   2.150   5.682
 2346SOL    HW1 8935  13.384   2.061   5.700
 2346SOL    HW2 8936  13.268   2.155   5.718
 2347SOL     OW 8937  13.606  10.416   5.238
 2347SOL    HW1 8938  13.700  10.414   5.255
 2347SOL    HW2 8939  13.597  10.385   5.148
 2348SOL     OW 8940   5.731   5.245  10.629
 2348SOL    HW1 8941   5.763   5.278  10.713
 2348SOL    HW2 8942   5.719   5.324  10.576
 2349SOL     OW 8943   0.435   2.551   4.865
 2349SOL    HW1 8944   0.347   2.531   4.894
 2349SOL    HW2 8945   0.469   2.467   4.832
 2350SOL     OW 8946   5.729   4.949   2.312
 2350SOL    HW1 8947   5.688   4.899   2.241
 2350SOL    HW2 8948   5.714   4.897   2.390
 2351SOL     OW 8949   5.403   7.968   3.452
 2351SOL    HW1 8950   5.437   8.044   3.405
 2351SOL    HW2 8951   5.455   7.895   3.420
 2352SOL     OW 8952   1.473  14.850  10.368
 2352SOL    HW1 8953   1.412  14.848  10.294
 2352SOL    HW2 8954   1.533   0.044  10.348
 2353SOL     OW 8955   4.578  12.960   8.316
 2353SOL    HW1 8956   4.491  12.927   8.295
 2353SOL    HW2 8957   4.593  13.030   8.252
 2354SOL     OW 8958  11.475  11.033   6.111
 2354SOL    HW1 8959  11.394  11.001   6.071
 2354SOL    HW2 8960  11.451  11.118   6.148
 2355SOL     OW 8961   0.971   7.098   9.607
 2355SOL    HW1 8962   0.979   7.091   9.512
 2355SOL    HW2 8963   0.993   7.189   9.627
 2356SOL     OW 8964  14.469   2.930  13.011
 2356SOL    HW1 8965  14.408   2.987  12.964
 2356SOL    HW2 8966  14.416   2.889  13.079
 2357SOL     OW 8967   5.575   6.879   2.785
 2357SOL    HW1 8968   5.495   6.870   2.837
 2357SOL    HW2 8969   5.591   6.791   2.751
 2358SOL     OW 8970  10.212   5.550  12.185
 2358SOL    HW1 8971  10.124   5.512  12.186
 2358SOL    HW2 8972  10.219   5.597  12.268
 2359SOL     OW 8973   1.839  10.095   9.266
 2359SOL    HW1 8974   1.805  10.037   9.197
 2359SOL    HW2 8975   1.811  10.182   9.239
 2360SOL     OW 8976   2.159   7.227  11.069
 2360SOL    HW1 8977   2.219   7.302  11.070
 2360SOL    HW2 8978   2.072   7.266  11.063
 2361SOL     OW 8979  13.631   6.984  11.903
 2361SOL    HW1 8980  13.542   6.966  11.873
 2361SOL    HW2 8981  13.621   7.010  11.995
 2362SOL     OW 8982   4.109   6.614   5.024
 2362SOL    HW1 8983   4.042   6.682   5.027
 2362SOL    HW2 8984   4.181   6.654   4.974
 2363SOL     OW 8985   7.592   0.876   2.715
 2363SOL    HW1 8986   7.633   0.939   2.656
 2363SOL    HW2 8987   7.665   0.830   2.756
 2364SOL     OW 8988   8.716   0.675   9.441
 2364SOL    HW1 8989   8.798   0.627   9.451
 2364SOL    HW2 8990   8.726   0.721   9.357
 2365SOL     OW 8991   7.038  11.859   8.518
 2365SOL    HW1 8992   7.046  11.955   8.514
 2365SOL    HW2 8993   6.946  11.844   8.539
 2366SOL     OW 8994   0.174   9.049  12.489
 2366SOL    HW1 8995   0.130   9.013  12.566
 2366SOL    HW2 8996   0.225   8.976  12.455
 2367SOL     OW 8997   8.999  12.748  10.924
 2367SOL    HW1 8998   8.933  12.697  10.876
 2367SOL    HW2 8999   8.952  12.825  10.956
 2368SOL     OW 9000   9.841   4.685   0.429
 2368SOL    HW1 9001   9.792   4.767   0.434
 2368SOL    HW2 9002   9.836   4.648   0.517
 2369SOL     OW 9003  11.069   2.815  11.833
 2369SOL    HW1 9004  11.060   2.723  11.855
 2369SOL    HW2 9005  11.074   2.817  11.737
 2370SOL     OW 9006   9.002  11.144   8.624
 2370SOL    HW1 9007   9.090  11.154   8.661
 2370SOL    HW2 9008   8.997  11.052   8.599
 2371SOL     OW 9009  10.378  10.356   4.501
 2371SOL    HW1 9010  10.309  10.380   4.564
 2371SOL    HW2 9011  10.458  10.354   4.553
 2372SOL     OW 9012   0.144  13.166   2.299
 2372SOL    HW1 9013   0.136  13.260   2.312
 2372SOL    HW2 9014   0.111  13.151   2.211
 2373SOL     OW 9015  10.738   2.794   4.947
 2373SOL    HW1 9016  10.732   2.879   4.990
 2373SOL    HW2 9017  10.820   2.797   4.898
 2374SOL     OW 9018   7.237   6.655   7.263
 2374SOL    HW1 9019   7.289   6.640   7.184
 2374SOL    HW2 9020   7.205   6.569   7.288
 2375SOL     OW 9021   5.821   0.299   9.341
 2375SOL    HW1 9022   5.774   0.310   9.258
 2375SOL    HW2 9023   5.889   0.366   9.339
 2376SOL     OW 9024   9.257  14.473   0.553
 2376SOL    HW1 9025   9.169  14.501   0.530
 2376SOL    HW2 9026   9.247  14.383   0.583
 2377SOL     OW 9027   6.403   5.358   2.728
 2377SOL    HW1 9028   6.379   5.359   2.821
 2377SOL    HW2 9029   6.336   5.305   2.687
 2378SOL     OW 9030   1.955   5.421   7.834
 2378SOL    HW1 9031   2.023   5.422   7.901
 2378SOL    HW2 9032   1.886   5.479   7.868
 2379SOL     OW 9033  11.531  12.044   2.987
 2379SOL    HW1 9034  11.516  11.952   2.967
 2379SOL    HW2 9035  11.460  12.067   3.047
 2380SOL     OW 9036  14.078  10.510   2.102
 2380SOL    HW1 9037  14.100  10.465   2.021
 2380SOL    HW2 9038  14.149  10.574   2.114
 2381SOL     OW 9039   9.363   8.332   3.492
 2381SOL    HW1 9040   9.274   8.356   3.469
 2381SOL    HW2 9041   9.415   8.409   3.470
 2382SOL     OW 9042   1.914  12.224   4.492
 2382SOL    HW1 9043   1.973  12.160   4.532
 2382SOL    HW2 9044   1.938  12.308   4.531
 2383SOL     OW 9045   9.223   9.148   8.712
 2383SOL    HW1 9046   9.197   9.077   8.771
 2383SOL    HW2 9047   9.268   9.210   8.769
 2384SOL     OW 9048  13.536  13.474   3.121
 2384SOL    HW1 9049  13.485  13.394   3.104
 2384SOL    HW2 9050  13.581  13.456   3.204
 2385SOL     OW 9051   9.155   0.637  13.955
 2385SOL    HW1 9052   9.166   0.576  14.028
 2385SOL    HW2 9053   9.123   0.583  13.883
 2386SOL     OW 9054   4.719   9.936   2.645
 2386SOL    HW1 9055   4.665   9.967   2.573
 2386SOL    HW2 9056   4.656   9.900   2.708
 2387SOL     OW 9057   5.322  11.331   9.420
 2387SOL    HW1 9058   5.363  11.415   9.398
 2387SOL    HW2 9059   5.382  11.265   9.386
 2388SOL     OW 9060   0.753  14.096   7.059
 2388SOL    HW1 9061   0.658  14.099   7.048
 2388SOL    HW2 9062   0.788  14.094   6.969
 2389SOL     OW 9063  10.782  10.956   8.967
 2389SOL    HW1 9064  10.738  10.929   9.047
 2389SOL    HW2 9065  10.718  10.943   8.898
 2390SOL     OW 9066  14.369   7.493  10.904
 2390SOL    HW1 9067  14.399   7.477  10.814
 2390SOL    HW2 9068  14.285   7.539  10.893
 2391SOL     OW 9069  10.674   8.192   3.375
 2391SOL    HW1 9070  10.758   8.237   3.368
 2391SOL    HW2 9071  10.625   8.221   3.298
 2392SOL     OW 9072   8.889  12.352   9.381
 2392SOL    HW1 9073   8.933  12.425   9.337
 2392SOL    HW2 9074   8.917  12.357   9.472
 2393SOL     OW 9075   8.796   6.341   1.725
 2393SOL    HW1 9076   8.840   6.293   1.654
 2393SOL    HW2 9077   8.816   6.433   1.708
 2394SOL     OW 9078   9.536  11.911   1.344
 2394SOL    HW1 9079   9.592  11.935   1.270
 2394SOL    HW2 9080   9.449  11.899   1.305
 2395SOL     OW 9081   7.868  11.979   2.479
 2395SOL    HW1 9082   7.852  12.072   2.465
 2395SOL    HW2 9083   7.800  11.950   2.539
 2396SOL     OW 9084   0.479   8.237  11.013
 2396SOL    HW1 9085   0.474   8.330  10.988
 2396SOL    HW2 9086   0.570   8.213  10.995
 2397SOL     OW 9087   1.116   8.383   6.373
 2397SOL    HW1 9088   1.100   8.444   6.445
 2397SOL    HW2 9089   1.069   8.421   6.299
 2398SOL     OW 9090   9.972  13.059   2.064
 2398SOL    HW1 9091  10.044  12.996   2.060
 2398SOL    HW2 9092   9.954  13.069   2.157
 2399SOL     OW 9093   7.868   9.166   9.997
 2399SOL    HW1 9094   7.801   9.197   9.937
 2399SOL    HW2 9095   7.923   9.108   9.944
 2400SOL     OW 9096   6.153  13.419  10.361
 2400SOL    HW1 9097   6.060  13.400  10.374
 2400SOL    HW2 9098   6.164  13.425  10.266
 2401SOL     OW 9099  12.224   3.366   1.543
 2401SOL    HW1 9100  12.152   3.332   1.489
 2401SOL    HW2 9101  12.300   3.366   1.486
 2402SOL     OW 9102   9.071  12.163  10.249
 2402SOL    HW1 9103   8.998  12.187  10.306
 2402SOL    HW2 9104   9.123  12.242  10.242
 2403SOL     OW 9105   8.037   1.217   8.935
 2403SOL    HW1 9106   8.123   1.177   8.948
 2403SOL    HW2 9107   7.998   1.219   9.022
 2404SOL     OW 9108   2.172  10.298   0.880
 2404SOL    HW1 9109   2.204  10.214   0.913
 2404SOL    HW2 9110   2.239  10.361   0.906
 2405SOL     OW 9111  13.579  13.149   7.782
 2405SOL    HW1 9112  13.598  13.061   7.749
 2405SOL    HW2 9113  13.492  13.169   7.745
 2406SOL     OW 9114   7.435  12.670   7.615
 2406SOL    HW1 9115   7.483  12.595   7.579
 2406SOL    HW2 9116   7.382  12.633   7.685
 2407SOL     OW 9117   1.541  12.575  14.490
 2407SOL    HW1 9118   1.446  12.583  14.500
 2407SOL    HW2 9119   1.564  12.495  14.538
 2408SOL     OW 9120   0.665   6.914  12.892
 2408SOL    HW1 9121   0.725   6.955  12.829
 2408SOL    HW2 9122   0.672   6.820  12.873
 2409SOL     OW 9123   6.070  10.381   5.602
 2409SOL    HW1 9124   6.155  10.352   5.636
 2409SOL    HW2 9125   6.029  10.301   5.570
 2410SOL     OW 9126   0.987  14.772   5.881
 2410SOL    HW1 9127   1.025  14.857   5.858
 2410SOL    HW2 9128   0.901  14.772   5.841
 2411SOL     OW 9129   6.637   8.639   8.707
 2411SOL    HW1 9130   6.565   8.652   8.644
 2411SOL    HW2 9131   6.629   8.547   8.733
 2412SOL     OW 9132   4.147   6.314   7.647
 2412SOL    HW1 9133   4.230   6.273   7.622
 2412SOL    HW2 9134   4.111   6.256   7.714
 2413SOL     OW 9135  10.111   0.209   9.822
 2413SOL    HW1 9136  10.044   0.156   9.864
 2413SOL    HW2 9137  10.095   0.298   9.853
 2414SOL     OW 9138   3.691   4.157   9.789
 2414SOL    HW1 9139   3.656   4.082   9.836
 2414SOL    HW2 9140   3.683   4.134   9.696
 2415SOL     OW 9141   9.587   6.708   6.533
 2415SOL    HW1 9142   9.568   6.784   6.588
 2415SOL    HW2 9143   9.502   6.680   6.499
 2416SOL     OW 9144   5.339   5.560   4.017
 2416SOL    HW1 9145   5.298   5.484   3.976
 2416SOL    HW2 9146   5.421   5.527   4.053
 2417SOL     OW 9147   0.435  12.222   7.360
 2417SOL    HW1 9148   0.357  12.277   7.368
 2417SOL    HW2 9149   0.463  12.207   7.450
 2418SOL     OW 9150   2.970   4.111   2.007
 2418SOL    HW1 9151   2.950   4.160   2.086
 2418SOL    HW2 9152   3.064   4.124   1.994
 2419SOL     OW 9153   0.994   4.507   4.034
 2419SOL    HW1 9154   1.060   4.447   4.070
 2419SOL    HW2 9155   0.981   4.572   4.103
 2420SOL     OW 9156   0.553   8.172   6.067
 2420SOL    HW1 9157   0.556   8.081   6.095
 2420SOL    HW2 9158   0.591   8.221   6.140
 2421SOL     OW 9159   6.484  12.352   7.001
 2421SOL    HW1 9160   6.513  12.313   7.083
 2421SOL    HW2 9161   6.513  12.443   7.007
 2422SOL     OW 9162  11.505   2.445   8.713
 2422SOL    HW1 9163  11.469   2.467   8.627
 2422SOL    HW2 9164  11.537   2.355   8.704
 2423SOL     OW 9165   0.044  14.846   7.141
 2423SOL    HW1 9166   0.124  14.838   7.193
 2423SOL    HW2 9167   0.059   0.046   7.086
 2424SOL     OW 9168   6.323  10.944  13.575
 2424SOL    HW1 9169   6.276  10.977  13.499
 2424SOL    HW2 9170   6.277  10.982  13.650
 2425SOL     OW 9171   9.221  12.123  12.009
 2425SOL    HW1 9172   9.248  12.084  11.925
 2425SOL    HW2 9173   9.132  12.092  12.022
 2426SOL     OW 9174   2.285  13.129   8.964
 2426SOL    HW1 9175   2.316  13.128   8.874
 2426SOL    HW2 9176   2.321  13.210   9.001
 2427SOL     OW 9177   1.573   4.909  12.869
 2427SOL    HW1 9178   1.536   4.837  12.817
 2427SOL    HW2 9179   1.554   4.987  12.818
 2428SOL     OW 9180  11.960  13.139  14.014
 2428SOL    HW1 9181  11.964  13.167  13.923
 2428SOL    HW2 9182  12.031  13.075  14.023
 2429SOL     OW 9183   2.027   2.662  14.852
 2429SOL    HW1 9184   2.121   2.652  14.865
 2429SOL    HW2 9185   2.018   2.726  14.782
 2430SOL     OW 9186  13.459   7.389   6.065
 2430SOL    HW1 9187  13.490   7.358   6.149
 2430SOL    HW2 9188  13.468   7.484   6.069
 2431SOL     OW 9189  12.406   1.672   1.157
 2431SOL    HW1 9190  12.461   1.614   1.210
 2431SOL    HW2 9191  12.430   1.761   1.185
 2432SOL     OW 9192   5.908  12.888   9.259
 2432SOL    HW1 9193   5.945  12.839   9.185
 2432SOL    HW2 9194   5.881  12.972   9.221
 2433SOL     OW 9195   3.836   3.382   1.010
 2433SOL    HW1 9196   3.820   3.350   1.098
 2433SOL    HW2 9197   3.917   3.340   0.982
 2434SOL     OW 9198   7.825  14.571   1.559
 2434SOL    HW1 9199   7.825  14.482   1.594
 2434SOL    HW2 9200   7.917  14.598   1.561
 2435SOL     OW 9201   9.519   3.111   3.839
 2435SOL    HW1 9202   9.501   3.101   3.746
 2435SOL    HW2 9203   9.610   3.082   3.850
 2436SOL     OW 9204  13.859   0.800   5.197
 2436SOL    HW1 9205  13.916   0.766   5.267
 2436SOL    HW2 9206  13.770   0.791   5.231
 2437SOL     OW 9207   7.814   9.410   2.176
 2437SOL    HW1 9208   7.895   9.372   2.143
 2437SOL    HW2 9209   7.749   9.340   2.169
 2438SOL     OW 9210   3.930  10.018   9.878
 2438SOL    HW1 9211   3.875  10.072   9.935
 2438SOL    HW2 9212   3.878  10.008   9.798
 2439SOL     OW 9213  11.287  14.481   1.650
 2439SOL    HW1 9214  11.259  14.404   1.601
 2439SOL    HW2 9215  11.370  14.456   1.689
 2440SOL     OW 9216   6.854  10.336   2.565
 2440SOL    HW1 9217   6.948  10.317   2.563
 2440SOL    HW2 9218   6.844  10.416   2.513
 2441SOL     OW 9219   6.321  10.731   5.014
 2441SOL    HW1 9220   6.301  10.641   4.989
 2441SOL    HW2 9221   6.322  10.730   5.110
 2442SOL     OW 9222   2.241   0.879  13.366
 2442SOL    HW1 9223   2.335   0.865  13.352
 2442SOL    HW2 9224   2.223   0.964  13.327
 2443SOL     OW 9225  13.427  10.684   2.221
 2443SOL    HW1 9226  13.429  10.593   2.192
 2443SOL    HW2 9227  13.491  10.729   2.166
 2444SOL     OW 9228   1.655   3.901   5.382
 2444SOL    HW1 9229   1.659   3.986   5.424
 2444SOL    HW2 9230   1.659   3.838   5.454
 2445SOL     OW 9231   6.000   1.643  10.001
 2445SOL    HW1 9232   5.997   1.549  10.021
 2445SOL    HW2 9233   5.975   1.685  10.084
 2446SOL     OW 9234   4.286   8.536   5.133
 2446SOL    HW1 9235   4.368   8.510   5.176
 2446SOL    HW2 9236   4.301   8.519   5.040
 2447SOL     OW 9237   9.015   2.756   1.872
 2447SOL    HW1 9238   8.976   2.717   1.950
 2447SOL    HW2 9239   8.953   2.736   1.801
 2448SOL     OW 9240   0.461   5.042   5.210
 2448SOL    HW1 9241   0.505   5.125   5.226
 2448SOL    HW2 9242   0.531   4.977   5.209
 2449SOL     OW 9243   1.027   1.751   4.876
 2449SOL    HW1 9244   1.113   1.727   4.912
 2449SOL    HW2 9245   0.972   1.765   4.953
 2450SOL     OW 9246   5.431  13.396   4.748
 2450SOL    HW1 9247   5.479  13.456   4.804
 2450SOL    HW2 9248   5.477  13.312   4.757
 2451SOL     OW 9249  11.863  13.045   2.185
 2451SOL    HW1 9250  11.848  13.010   2.273
 2451SOL    HW2 9251  11.808  13.123   2.180
 2452SOL     OW 9252  14.757   8.869   8.492
 2452SOL    HW1 9253  14.728   8.873   8.583
 2452SOL    HW2 9254  14.708   8.938   8.448
 2453SOL     OW 9255   8.419   8.315   4.826
 2453SOL    HW1 9256   8.420   8.224   4.798
 2453SOL    HW2 9257   8.354   8.317   4.897
 2454SOL     OW 9258  11.405   8.634   9.025
 2454SOL    HW1 9259  11.363   8.698   8.967
 2454SOL    HW2 9260  11.460   8.581   8.967
 2455SOL     OW 9261   1.331   2.436  11.007
 2455SOL    HW1 9262   1.286   2.498  10.950
 2455SOL    HW2 9263   1.424   2.454  10.993
 2456SOL     OW 9264   1.158  14.115   0.044
 2456SOL    HW1 9265   1.091  14.060   0.003
 2456SOL    HW2 9266   1.236  14.101  14.867
 2457SOL     OW 9267  14.425   6.055   3.309
 2457SOL    HW1 9268  14.468   6.100   3.237
 2457SOL    HW2 9269  14.472   6.084   3.387
 2458SOL     OW 9270   3.868   7.505   8.035
 2458SOL    HW1 9271   3.898   7.488   8.125
 2458SOL    HW2 9272   3.948   7.522   7.986
 2459SOL     OW 9273  12.208  11.906   3.109
 2459SOL    HW1 9274  12.116  11.890   3.128
 2459SOL    HW2 9275  12.225  11.993   3.146
 2460SOL     OW 9276   7.937  10.948  12.475
 2460SOL    HW1 9277   7.970  10.865  12.508
 2460SOL    HW2 9278   8.013  11.006  12.475
 2461SOL     OW 9279   8.495   1.994   2.722
 2461SOL    HW1 9280   8.521   1.910   2.759
 2461SOL    HW2 9281   8.559   2.056   2.756
 2462SOL     OW 9282   2.509  13.492   8.585
 2462SOL    HW1 9283   2.515  13.500   8.490
 2462SOL    HW2 9284   2.475  13.404   8.599
 2463SOL     OW 9285   2.239  14.797   2.625
 2463SOL    HW1 9286   2.214  14.834   2.709
 2463SOL    HW2 9287   2.334  14.812   2.620
 2464SOL     OW 9288   9.221  13.673   9.589
 2464SOL    HW1 9289   9.137  13.681   9.543
 2464SOL    HW2 9290   9.281  13.727   9.538
 2465SOL     OW 9291  14.513   7.010  11.800
 2465SOL    HW1 9292  14.514   6.917  11.777
 2465SOL    HW2 9293  14.482   7.012  11.890
 2466SOL     OW 9294  11.168   9.348   7.631
 2466SOL    HW1 9295  11.253   9.311   7.655
 2466SOL    HW2 9296  11.104   9.291   7.672
 2467SOL     OW 9297   2.896  10.518  10.609
 2467SOL    HW1 9298   2.805  10.547  10.597
 2467SOL    HW2 9299   2.923  10.490  10.521
 2468SOL     OW 9300   3.718   0.798   1.989
 2468SOL    HW1 9301   3.772   0.874   2.013
 2468SOL    HW2 9302   3.658   0.787   2.062
 2469SOL     OW 9303  14.130   4.460  12.184
 2469SOL    HW1 9304  14.133   4.522  12.112
 2469SOL    HW2 9305  14.162   4.378  12.146
 2470SOL     OW 9306  12.970   8.879  13.287
 2470SOL    HW1 9307  12.972   8.875  13.191
 2470SOL    HW2 9308  13.049   8.928  13.311
 2471SOL     OW 9309  11.197   2.239   1.831
 2471SOL    HW1 9310  11.105   2.220   1.845
 2471SOL    HW2 9311  11.242   2.196   1.904
 2472SOL     OW 9312   7.775   7.464   4.908
 2472SOL    HW1 9313   7.688   7.460   4.947
 2472SOL    HW2 9314   7.817   7.382   4.933
 2473SOL     OW 9315  10.793   9.089   8.789
 2473SOL    HW1 9316  10.706   9.068   8.821
 2473SOL    HW2 9317  10.840   9.005   8.788
 2474SOL     OW 9318  13.608   1.242  12.447
 2474SOL    HW1 9319  13.678   1.240  12.513
 2474SOL    HW2 9320  13.528   1.251  12.498
 2475SOL     OW 9321  11.823   4.128  13.045
 2475SOL    HW1 9322  11.858   4.215  13.064
 2475SOL    HW2 9323  11.849   4.111  12.954
 2476SOL     OW 9324   0.316   5.017  11.992
 2476SOL    HW1 9325   0.251   5.088  11.986
 2476SOL    HW2 9326   0.339   5.013  12.084
 2477SOL     OW 9327  12.887   3.605  13.940
 2477SOL    HW1 9328  12.852   3.634  14.024
 2477SOL    HW2 9329  12.843   3.662  13.876
 2478SOL     OW 9330   1.642   9.620   5.559
 2478SOL    HW1 9331   1.732   9.612   5.589
 2478SOL    HW2 9332   1.634   9.712   5.532
 2479SOL     OW 9333   6.245   8.864   6.361
 2479SOL    HW1 9334   6.237   8.769   6.347
 2479SOL    HW2 9335   6.339   8.882   6.350
 2480SOL     OW 9336   0.193  11.305   0.278
 2480SOL    HW1 9337   0.123  11.346   0.329
 2480SOL    HW2 9338   0.271  11.316   0.333
 2481SOL     OW 9339   9.232   4.520   3.053
 2481SOL    HW1 9340   9.137   4.504   3.054
 2481SOL    HW2 9341   9.270   4.437   3.081
 2482SOL     OW 9342  12.489   4.938  11.591
 2482SOL    HW1 9343  12.424   4.900  11.532
 2482SOL    HW2 9344  12.534   5.003  11.537
 2483SOL     OW 9345   5.734   7.525   1.777
 2483SOL    HW1 9346   5.720   7.584   1.851
 2483SOL    HW2 9347   5.799   7.462   1.809
 2484SOL     OW 9348   6.572  14.119   4.678
 2484SOL    HW1 9349   6.572  14.051   4.611
 2484SOL    HW2 9350   6.650  14.171   4.659
 2485SOL     OW 9351  13.069  14.732   0.655
 2485SOL    HW1 9352  13.024  14.705   0.735
 2485SOL    HW2 9353  13.036  14.820   0.638
 2486SOL     OW 9354   3.005  10.078  12.137
 2486SOL    HW1 9355   3.081  10.136  12.139
 2486SOL    HW2 9356   2.972  10.080  12.226
 2487SOL     OW 9357   7.109  13.509  10.276
 2487SOL    HW1 9358   7.179  13.493  10.213
 2487SOL    HW2 9359   7.124  13.598  10.306
 2488SOL     OW 9360  12.195  11.446  12.054
 2488SOL    HW1 9361  12.117  11.473  12.004
 2488SOL    HW2 9362  12.218  11.523  12.106
 2489SOL     OW 9363  13.751  13.141   3.136
 2489SOL    HW1 9364  13.783  13.203   3.071
 2489SOL    HW2 9365  13.775  13.055   3.101
 2490SOL     OW 9366   6.040   5.310   7.030
 2490SOL    HW1 9367   6.090   5.327   6.950
 2490SOL    HW2 9368   6.006   5.396   7.056
 2491SOL     OW 9369   6.283  11.357   5.921
 2491SOL    HW1 9370   6.236  11.289   5.872
 2491SOL    HW2 9371   6.256  11.343   6.012
 2492SOL     OW 9372   4.736  13.509   6.252
 2492SOL    HW1 9373   4.695  13.587   6.216
 2492SOL    HW2 9374   4.754  13.531   6.343
 2493SOL     OW 9375   2.065   1.794   2.069
 2493SOL    HW1 9376   1.977   1.793   2.106
 2493SOL    HW2 9377   2.059   1.853   1.993
 2494SOL     OW 9378   8.844   0.329   3.061
 2494SOL    HW1 9379   8.917   0.268   3.060
 2494SOL    HW2 9380   8.777   0.285   3.113
 2495SOL     OW 9381   9.319   3.525  12.499
 2495SOL    HW1 9382   9.367   3.454  12.541
 2495SOL    HW2 9383   9.314   3.593  12.566
 2496SOL     OW 9384  14.688   6.311   4.575
 2496SOL    HW1 9385  14.684   6.378   4.507
 2496SOL    HW2 9386  14.781   6.303   4.596
 2497SOL     OW 9387  14.286   9.563  10.125
 2497SOL    HW1 9388  14.274   9.561  10.220
 2497SOL    HW2 9389  14.223   9.498  10.092
 2498SOL     OW 9390  13.416   0.121  12.128
 2498SOL    HW1 9391  13.473   0.088  12.197
 2498SOL    HW2 9392  13.434   0.065  12.053
 2499SOL     OW 9393  10.280   8.273   4.794
 2499SOL    HW1 9394  10.349   8.217   4.829
 2499SOL    HW2 9395  10.198   8.228   4.818
 2500SOL     OW 9396   0.152   3.766  11.585
 2500SOL    HW1 9397   0.099   3.687  11.569
 2500SOL    HW2 9398   0.115   3.803  11.665
 2501SOL     OW 9399  12.172   0.230   4.176
 2501SOL    HW1 9400  12.211   0.306   4.134
 2501SOL    HW2 9401  12.101   0.203   4.117
 2502SOL     OW 9402   8.219   0.994   9.873
 2502SOL    HW1 9403   8.146   1.010   9.813
 2502SOL    HW2 9404   8.186   1.022   9.959
 2503SOL     OW 9405   5.179   5.322   1.026
 2503SOL    HW1 9406   5.190   5.412   0.994
 2503SOL    HW2 9407   5.177   5.330   1.121
 2504SOL     OW 9408   3.291  14.331   9.200
 2504SOL    HW1 9409   3.291  14.392   9.126
 2504SOL    HW2 9410   3.381  14.335   9.233
 2505SOL     OW 9411   1.470  13.882  12.201
 2505SOL    HW1 9412   1.484  13.931  12.282
 2505SOL    HW2 9413   1.422  13.943  12.144
 2506SOL     OW 9414   6.247   2.542  12.626
 2506SOL    HW1 9415   6.304   2.611  12.661
 2506SOL    HW2 9416   6.242   2.561  12.532
 2507SOL     OW 9417  13.761  10.722   3.218
 2507SOL    HW1 9418  13.799  10.641   3.183
 2507SOL    HW2 9419  13.834  10.764   3.264
 2508SOL     OW 9420  12.410   9.449  12.840
 2508SOL    HW1 9421  12.403   9.403  12.924
 2508SOL    HW2 9422  12.505   9.455  12.824
 2509SOL     OW 9423   3.588  11.143   0.465
 2509SOL    HW1 9424   3.575  11.179   0.553
 2509SOL    HW2 9425   3.618  11.054   0.480
 2510SOL     OW 9426   8.712   0.579  14.463
 2510SOL    HW1 9427   8.681   0.519  14.396
 2510SOL    HW2 9428   8.780   0.530  14.510
 2511SOL     OW 9429   9.187  12.997  13.950
 2511SOL    HW1 9430   9.223  12.908  13.956
 2511SOL    HW2 9431   9.117  12.999  14.015
 2512SOL     OW 9432   0.981   7.098   5.769
 2512SOL    HW1 9433   1.058   7.068   5.817
 2512SOL    HW2 9434   0.978   7.192   5.785
 2513SOL     OW 9435  11.140  13.581   1.105
 2513SOL    HW1 9436  11.206  13.598   1.173
 2513SOL    HW2 9437  11.106  13.494   1.126
 2514SOL     OW 9438   8.509  13.077  14.234
 2514SOL    HW1 9439   8.544  13.156  14.194
 2514SOL    HW2 9440   8.568  13.059  14.307
 2515SOL     OW 9441   8.248   6.633   4.680
 2515SOL    HW1 9442   8.204   6.675   4.754
 2515SOL    HW2 9443   8.218   6.683   4.604
 2516SOL     OW 9444  12.037   6.069   2.525
 2516SOL    HW1 9445  12.131   6.085   2.522
 2516SOL    HW2 9446  12.000   6.130   2.462
 2517SOL     OW 9447  10.530   3.594  12.249
 2517SOL    HW1 9448  10.565   3.506  12.237
 2517SOL    HW2 9449  10.605   3.652  12.230
 2518SOL     OW 9450   1.790  10.845   2.900
 2518SOL    HW1 9451   1.723  10.845   2.832
 2518SOL    HW2 9452   1.870  10.872   2.855
 2519SOL     OW 9453   4.196   2.858   4.605
 2519SOL    HW1 9454   4.149   2.779   4.633
 2519SOL    HW2 9455   4.203   2.849   4.510
 2520SOL     OW 9456   7.985   0.576   4.962
 2520SOL    HW1 9457   7.982   0.480   4.971
 2520SOL    HW2 9458   7.893   0.603   4.966
 2521SOL     OW 9459  14.343  14.146   2.101
 2521SOL    HW1 9460  14.350  14.104   2.186
 2521SOL    HW2 9461  14.266  14.107   2.061
 2522SOL     OW 9462   2.114  10.462   3.227
 2522SOL    HW1 9463   2.117  10.487   3.135
 2522SOL    HW2 9464   2.068  10.533   3.271
 2523SOL     OW 9465   3.826   5.074   6.669
 2523SOL    HW1 9466   3.748   5.035   6.709
 2523SOL    HW2 9467   3.896   5.055   6.732
 2524SOL     OW 9468   9.073   6.229   0.428
 2524SOL    HW1 9469   9.073   6.322   0.407
 2524SOL    HW2 9470   9.066   6.185   0.343
 2525SOL     OW 9471   3.646  10.826  10.940
 2525SOL    HW1 9472   3.739  10.814  10.921
 2525SOL    HW2 9473   3.604  10.748  10.904
 2526SOL     OW 9474  10.645   4.673   9.571
 2526SOL    HW1 9475  10.676   4.624   9.647
 2526SOL    HW2 9476  10.550   4.662   9.572
 2527SOL     OW 9477   0.233   1.169  10.984
 2527SOL    HW1 9478   0.187   1.253  10.993
 2527SOL    HW2 9479   0.275   1.156  11.068
 2528SOL     OW 9480  13.137  14.295   9.657
 2528SOL    HW1 9481  13.077  14.230   9.693
 2528SOL    HW2 9482  13.117  14.297   9.564
 2529SOL     OW 9483   3.062   8.671   7.065
 2529SOL    HW1 9484   3.028   8.586   7.091
 2529SOL    HW2 9485   3.137   8.686   7.122
 2530SOL     OW 9486   1.299   6.932   7.117
 2530SOL    HW1 9487   1.273   6.921   7.025
 2530SOL    HW2 9488   1.257   7.014   7.143
 2531SOL     OW 9489   4.588  12.245   5.927
 2531SOL    HW1 9490   4.571  12.151   5.917
 2531SOL    HW2 9491   4.632  12.252   6.011
 2532SOL     OW 9492  11.425   4.172   4.739
 2532SOL    HW1 9493  11.389   4.238   4.799
 2532SOL    HW2 9494  11.520   4.184   4.744
 2533SOL     OW 9495   4.307   9.014   4.112
 2533SOL    HW1 9496   4.231   8.961   4.135
 2533SOL    HW2 9497   4.381   8.971   4.156
 2534SOL     OW 9498   6.799   2.944  11.707
 2534SOL    HW1 9499   6.858   2.900  11.646
 2534SOL    HW2 9500   6.762   3.017  11.656
 2535SOL     OW 9501  10.754  12.410  14.017
 2535SOL    HW1 9502  10.828  12.387  13.961
 2535SOL    HW2 9503  10.789  12.476  14.078
 2536SOL     OW 9504   5.402   7.773   7.751
 2536SOL    HW1 9505   5.466   7.755   7.820
 2536SOL    HW2 9506   5.435   7.727   7.674
 2537SOL     OW 9507   4.614   7.651  13.757
 2537SOL    HW1 9508   4.577   7.583  13.700
 2537SOL    HW2 9509   4.699   7.671  13.718
 2538SOL     OW 9510  14.821  12.651  10.566
 2538SOL    HW1 9511  14.800  12.735  10.608
 2538SOL    HW2 9512  14.877  12.606  10.628
 2539SOL     OW 9513  13.922   1.678   2.439
 2539SOL    HW1 9514  13.897   1.674   2.347
 2539SOL    HW2 9515  13.908   1.770   2.463
 2540SOL     OW 9516   1.938   8.383   6.575
 2540SOL    HW1 9517   1.993   8.313   6.541
 2540SOL    HW2 9518   1.848   8.355   6.557
 2541SOL     OW 9519   7.264  14.833  10.746
 2541SOL    HW1 9520   7.185  14.788  10.778
 2541SOL    HW2 9521   7.248  14.844  10.652
 2542SOL     OW 9522  11.876   0.246  10.500
 2542SOL    HW1 9523  11.928   0.177  10.539
 2542SOL    HW2 9524  11.807   0.264  10.564
 2543SOL     OW 9525  13.845   5.124   6.071
 2543SOL    HW1 9526  13.846   5.216   6.098
 2543SOL    HW2 9527  13.776   5.083   6.123
 2544SOL     OW 9528  11.663   8.533   0.549
 2544SOL    HW1 9529  11.733   8.597   0.538
 2544SOL    HW2 9530  11.627   8.552   0.636
 2545SOL     OW 9531   4.617   9.853   1.873
 2545SOL    HW1 9532   4.588   9.847   1.964
 2545SOL    HW2 9533   4.537   9.839   1.821
 2546SOL     OW 9534   4.175  14.330   0.471
 2546SOL    HW1 9535   4.115  14.266   0.509
 2546SOL    HW2 9536   4.128  14.366   0.396
 2547SOL     OW 9537   9.182   7.772   7.518
 2547SOL    HW1 9538   9.225   7.715   7.454
 2547SOL    HW2 9539   9.241   7.847   7.526
 2548SOL     OW 9540   6.356  13.584  10.439
 2548SOL    HW1 9541   6.326  13.674  10.425
 2548SOL    HW2 9542   6.277  13.531  10.432
 2549SOL     OW 9543  12.604   4.903   9.884
 2549SOL    HW1 9544  12.544   4.881   9.813
 2549SOL    HW2 9545  12.556   4.966   9.938
 2550SOL     OW 9546  12.866  13.117   9.278
 2550SOL    HW1 9547  12.929  13.068   9.330
 2550SOL    HW2 9548  12.873  13.207   9.310
 2551SOL     OW 9549   7.835   7.928   7.326
 2551SOL    HW1 9550   7.924   7.894   7.331
 2551SOL    HW2 9551   7.825   7.958   7.236
 2552SOL     OW 9552  14.634   9.881   5.633
 2552SOL    HW1 9553  14.567   9.915   5.692
 2552SOL    HW2 9554  14.647   9.790   5.660
 2553SOL     OW 9555   6.345   2.099  11.182
 2553SOL    HW1 9556   6.333   2.168  11.247
 2553SOL    HW2 9557   6.269   2.042  11.193
 2554SOL     OW 9558  12.345  11.777  11.706
 2554SOL    HW1 9559  12.399  11.698  11.705
 2554SOL    HW2 9560  12.407  11.849  11.714
 2555SOL     OW 9561   6.705  10.645   6.650
 2555SOL    HW1 9562   6.626  10.673   6.605
 2555SOL    HW2 9563   6.776  10.691   6.604
 2556SOL     OW 9564   6.063   9.787   4.049
 2556SOL    HW1 9565   6.016   9.734   4.113
 2556SOL    HW2 9566   6.073   9.873   4.090
 2557SOL     OW 9567  14.694   9.203   6.816
 2557SOL    HW1 9568  14.712   9.172   6.905
 2557SOL    HW2 9569  14.770   9.257   6.793
 2558SOL     OW 9570   0.797   4.595  11.551
 2558SOL    HW1 9571   0.788   4.514  11.602
 2558SOL    HW2 9572   0.727   4.652  11.584
 2559SOL     OW 9573   1.266   7.193   0.138
 2559SOL    HW1 9574   1.333   7.229   0.196
 2559SOL    HW2 9575   1.183   7.216   0.180
 2560SOL     OW 9576   8.772   6.260   1.454
 2560SOL    HW1 9577   8.694   6.316   1.461
 2560SOL    HW2 9578   8.743   6.175   1.487
 2561SOL     OW 9579   3.734   6.977   7.302
 2561SOL    HW1 9580   3.653   6.997   7.254
 2561SOL    HW2 9581   3.705   6.921   7.374
 2562SOL     OW 9582   3.032   6.565   6.910
 2562SOL    HW1 9583   3.116   6.593   6.874
 2562SOL    HW2 9584   2.983   6.534   6.834
 2563SOL     OW 9585   5.664   2.801   7.852
 2563SOL    HW1 9586   5.667   2.896   7.862
 2563SOL    HW2 9587   5.686   2.786   7.760
 2564SOL     OW 9588  11.960   4.435  14.546
 2564SOL    HW1 9589  11.934   4.404  14.633
 2564SOL    HW2 9590  12.020   4.368  14.514
 2565SOL     OW 9591  10.767   2.319   3.595
 2565SOL    HW1 9592  10.711   2.255   3.640
 2565SOL    HW2 9593  10.719   2.402   3.602
 2566SOL     OW 9594  11.596   8.671  13.811
 2566SOL    HW1 9595  11.549   8.601  13.764
 2566SOL    HW2 9596  11.687   8.660  13.786
 2567SOL     OW 9597   6.751   8.463   5.461
 2567SOL    HW1 9598   6.809   8.461   5.384
 2567SOL    HW2 9599   6.753   8.373   5.494
 2568SOL     OW 9600   6.114   4.108  12.753
 2568SOL    HW1 9601   6.201   4.124  12.790
 2568SOL    HW2 9602   6.124   4.028  12.702
 2569SOL     OW 9603  11.758  10.004  13.411
 2569SOL    HW1 9604  11.695  10.076  13.421
 2569SOL    HW2 9605  11.822  10.037  13.348
 2570SOL     OW 9606   1.767   6.205   3.455
 2570SOL    HW1 9607   1.847   6.246   3.424
 2570SOL    HW2 9608   1.721   6.179   3.376
 2571SOL     OW 9609  11.101  13.658   8.719
 2571SOL    HW1 9610  11.084  13.713   8.795
 2571SOL    HW2 9611  11.167  13.706   8.669
 2572SOL     OW 9612   4.829  12.358  14.455
 2572SOL    HW1 9613   4.880  12.431  14.421
 2572SOL    HW2 9614   4.828  12.294  14.385
 2573SOL     OW 9615   6.616   8.643   6.933
 2573SOL    HW1 9616   6.638   8.691   6.853
 2573SOL    HW2 9617   6.671   8.565   6.931
 2574SOL     OW 9618  11.021  10.131   7.979
 2574SOL    HW1 9619  11.071  10.051   7.993
 2574SOL    HW2 9620  10.934  10.101   7.951
 2575SOL     OW 9621  14.797   2.935  13.730
 2575SOL    HW1 9622  14.764   2.849  13.756
 2575SOL    HW2 9623  14.798   2.986  13.811
 2576SOL     OW 9624   0.027   7.115   7.046
 2576SOL    HW1 9625   0.006   7.154   7.130
 2576SOL    HW2 9626   0.119   7.089   7.053
 2577SOL     OW 9627  13.751   8.112   8.908
 2577SOL    HW1 9628  13.801   8.078   8.834
 2577SOL    HW2 9629  13.736   8.204   8.887
 2578SOL     OW 9630  12.010   6.443   5.515
 2578SOL    HW1 9631  12.068   6.508   5.557
 2578SOL    HW2 9632  11.927   6.490   5.504
 2579SOL     OW 9633  12.046  14.819   3.958
 2579SOL    HW1 9634  11.983  14.798   4.027
 2579SOL    HW2 9635  12.032   0.035   3.940
 2580SOL     OW 9636   4.465   4.360   8.718
 2580SOL    HW1 9637   4.500   4.397   8.637
 2580SOL    HW2 9638   4.412   4.286   8.689
 2581SOL     OW 9639   3.891  11.715  14.072
 2581SOL    HW1 9640   3.888  11.727  14.167
 2581SOL    HW2 9641   3.984  11.713  14.051
 2582SOL     OW 9642   0.283  10.534   0.608
 2582SOL    HW1 9643   0.220  10.508   0.541
 2582SOL    HW2 9644   0.253  10.491   0.688
 2583SOL     OW 9645   1.217   3.133   8.054
 2583SOL    HW1 9646   1.243   3.045   8.081
 2583SOL    HW2 9647   1.211   3.129   7.959
 2584SOL     OW 9648   3.672  10.007  11.323
 2584SOL    HW1 9649   3.739   9.985  11.388
 2584SOL    HW2 9650   3.637  10.091  11.352
 2585SOL     OW 9651   8.883  14.243  10.040
 2585SOL    HW1 9652   8.806  14.257   9.984
 2585SOL    HW2 9653   8.858  14.280  10.124
 2586SOL     OW 9654   9.847   9.068   4.257
 2586SOL    HW1 9655   9.916   9.065   4.323
 2586SOL    HW2 9656   9.810   9.156   4.264
 2587SOL     OW 9657  12.117  14.197   5.899
 2587SOL    HW1 9658  12.162  14.117   5.926
 2587SOL    HW2 9659  12.024  14.174   5.899
 2588SOL     OW 9660   8.974   8.074   7.360
 2588SOL    HW1 9661   9.002   7.983   7.364
 2588SOL    HW2 9662   9.034   8.115   7.297
 2589SOL     OW 9663   0.193   6.021   0.543
 2589SOL    HW1 9664   0.284   6.048   0.537
 2589SOL    HW2 9665   0.181   5.959   0.472
 2590SOL     OW 9666  13.797   4.473  11.159
 2590SOL    HW1 9667  13.803   4.490  11.253
 2590SOL    HW2 9668  13.705   4.448  11.146
 2591SOL     OW 9669  11.578  11.453   2.459
 2591SOL    HW1 9670  11.557  11.500   2.379
 2591SOL    HW2 9671  11.612  11.520   2.518
 2592SOL     OW 9672   0.060   6.207   7.637
 2592SOL    HW1 9673   0.004   6.277   7.604
 2592SOL    HW2 9674   0.149   6.233   7.613
 2593SOL     OW 9675  13.048  12.187   2.419
 2593SOL    HW1 9676  13.031  12.101   2.380
 2593SOL    HW2 9677  13.143  12.196   2.416
 2594SOL     OW 9678  13.695  13.876  12.973
 2594SOL    HW1 9679  13.602  13.880  12.952
 2594SOL    HW2 9680  13.739  13.873  12.888
 2595SOL     OW 9681   1.184  14.616   1.167
 2595SOL    HW1 9682   1.150  14.549   1.227
 2595SOL    HW2 9683   1.277  14.623   1.189
 2596SOL     OW 9684  13.153   0.373  10.776
 2596SOL    HW1 9685  13.161   0.432  10.851
 2596SOL    HW2 9686  13.240   0.335  10.766
 2597SOL     OW 9687   9.829   4.507   7.999
 2597SOL    HW1 9688   9.818   4.456   7.918
 2597SOL    HW2 9689   9.902   4.567   7.980
 2598SOL     OW 9690   2.851   7.764   2.304
 2598SOL    HW1 9691   2.840   7.855   2.334
 2598SOL    HW2 9692   2.944   7.758   2.281
 2599SOL     OW 9693   4.424   6.645  14.066
 2599SOL    HW1 9694   4.402   6.598  13.986
 2599SOL    HW2 9695   4.450   6.733  14.036
 2600SOL     OW 9696  12.222   0.142   1.407
 2600SOL    HW1 9697  12.309   0.142   1.446
 2600SOL    HW2 9698  12.196   0.050   1.407
 2601SOL     OW 9699   9.948  13.019   2.330
 2601SOL    HW1 9700   9.975  13.088   2.390
 2601SOL    HW2 9701   9.970  12.938   2.375
 2602SOL     OW 9702  12.661   2.591  12.993
 2602SOL    HW1 9703  12.586   2.554  13.039
 2602SOL    HW2 9704  12.738   2.558  13.040
 2603SOL     OW 9705   6.191   0.652   3.423
 2603SOL    HW1 9706   6.252   0.625   3.493
 2603SOL    HW2 9707   6.248   0.673   3.349
 2604SOL     OW 9708   9.398  10.168   0.884
 2604SOL    HW1 9709   9.401  10.184   0.979
 2604SOL    HW2 9710   9.473  10.110   0.867
 2605SOL     OW 9711   4.575  12.270   5.098
 2605SOL    HW1 9712   4.666  12.297   5.103
 2605SOL    HW2 9713   4.578  12.174   5.096
 2606SOL     OW 9714  11.540   1.117   8.881
 2606SOL    HW1 9715  11.610   1.117   8.815
 2606SOL    HW2 9716  11.508   1.027   8.883
 2607SOL     OW 9717   5.632   5.167   7.442
 2607SOL    HW1 9718   5.631   5.258   7.468
 2607SOL    HW2 9719   5.724   5.141   7.444
 2608SOL     OW 9720   2.518   1.006   6.920
 2608SOL    HW1 9721   2.509   0.911   6.926
 2608SOL    HW2 9722   2.429   1.039   6.933
 2609SOL     OW 9723   4.211   6.343  11.411
 2609SOL    HW1 9724   4.169   6.374  11.331
 2609SOL    HW2 9725   4.204   6.247  11.407
 2610SOL     OW 9726  11.522  13.417   7.303
 2610SOL    HW1 9727  11.501  13.341   7.248
 2610SOL    HW2 9728  11.472  13.489   7.265
 2611SOL     OW 9729  11.523   1.820  13.833
 2611SOL    HW1 9730  11.472   1.748  13.797
 2611SOL    HW2 9731  11.468   1.898  13.820
 2612SOL     OW 9732  12.372   8.184  11.815
 2612SOL    HW1 9733  12.445   8.122  11.819
 2612SOL    HW2 9734  12.295   8.129  11.797
 2613SOL     OW 9735  11.439  10.962  10.268
 2613SOL    HW1 9736  11.490  10.882  10.253
 2613SOL    HW2 9737  11.448  10.978  10.362
 2614SOL     OW 9738  12.537   6.248  13.438
 2614SOL    HW1 9739  12.478   6.243  13.513
 2614SOL    HW2 9740  12.548   6.157  13.410
 2615SOL     OW 9741   7.219   0.991   4.165
 2615SOL    HW1 9742   7.293   0.990   4.103
 2615SOL    HW2 9743   7.255   1.031   4.244
 2616SOL     OW 9744   4.010   6.931   7.151
 2616SOL    HW1 9745   4.006   7.020   7.116
 2616SOL    HW2 9746   4.090   6.929   7.204
 2617SOL     OW 9747   9.199   8.596   9.991
 2617SOL    HW1 9748   9.200   8.589   9.896
 2617SOL    HW2 9749   9.250   8.676  10.010
 2618SOL     OW 9750   3.501   3.734  10.234
 2618SOL    HW1 9751   3.420   3.685  10.218
 2618SOL    HW2 9752   3.498   3.805  10.170
 2619SOL     OW 9753  12.464   0.567   7.773
 2619SOL    HW1 9754  12.461   0.647   7.721
 2619SOL    HW2 9755  12.452   0.596   7.863
 2620SOL     OW 9756   3.080   3.348   1.031
 2620SOL    HW1 9757   3.076   3.392   0.946
 2620SOL    HW2 9758   3.026   3.403   1.089
 2621SOL     OW 9759  14.571  10.198   9.977
 2621SOL    HW1 9760  14.541  10.107   9.975
 2621SOL    HW2 9761  14.603  10.214   9.888
 2622SOL     OW 9762   9.321  12.604   4.820
 2622SOL    HW1 9763   9.373  12.530   4.852
 2622SOL    HW2 9764   9.376  12.644   4.752
 2623SOL     OW 9765  14.478   8.009   0.077
 2623SOL    HW1 9766  14.393   7.995   0.120
 2623SOL    HW2 9767  14.530   8.057   0.142
 2624SOL     OW 9768  13.252  14.353   1.671
 2624SOL    HW1 9769  13.266  14.333   1.579
 2624SOL    HW2 9770  13.213  14.440   1.671
 2625SOL     OW 9771   8.082   8.747   6.535
 2625SOL    HW1 9772   8.101   8.654   6.525
 2625SOL    HW2 9773   8.066   8.758   6.629
 2626SOL     OW 9774   6.331  11.061   3.730
 2626SOL    HW1 9775   6.371  11.126   3.787
 2626SOL    HW2 9776   6.401  10.998   3.713
 2627SOL     OW 9777  14.258   1.974  11.955
 2627SOL    HW1 9778  14.317   1.968  12.031
 2627SOL    HW2 9779  14.315   1.993  11.881
 2628SOL     OW 9780  12.074   1.504   5.628
 2628SOL    HW1 9781  12.012   1.552   5.683
 2628SOL    HW2 9782  12.108   1.570   5.568
 2629SOL     OW 9783   8.448   4.422   4.710
 2629SOL    HW1 9784   8.503   4.388   4.781
 2629SOL    HW2 9785   8.400   4.495   4.750
 2630SOL     OW 9786   0.992  10.205   2.137
 2630SOL    HW1 9787   1.039  10.158   2.206
 2630SOL    HW2 9788   1.003  10.150   2.059
 2631SOL     OW 9789   0.730   5.442   4.415
 2631SOL    HW1 9790   0.731   5.353   4.451
 2631SOL    HW2 9791   0.814   5.480   4.441
 2632SOL     OW 9792   8.389  13.308   2.606
 2632SOL    HW1 9793   8.418  13.380   2.549
 2632SOL    HW2 9794   8.411  13.338   2.695
 2633SOL     OW 9795  11.574   9.336   5.363
 2633SOL    HW1 9796  11.646   9.293   5.408
 2633SOL    HW2 9797  11.553   9.278   5.290
 2634SOL     OW 9798   7.846  10.401  13.041
 2634SOL    HW1 9799   7.815  10.476  12.990
 2634SOL    HW2 9800   7.769  10.345  13.052
 2635SOL     OW 9801  12.497   4.357  14.550
 2635SOL    HW1 9802  12.506   4.385  14.641
 2635SOL    HW2 9803  12.485   4.262  14.554
 2636SOL     OW 9804  13.579   1.652  10.776
 2636SOL    HW1 9805  13.576   1.680  10.867
 2636SOL    HW2 9806  13.655   1.698  10.740
 2637SOL     OW 9807  13.846  12.671   3.340
 2637SOL    HW1 9808  13.878  12.601   3.397
 2637SOL    HW2 9809  13.923  12.698   3.289
 2638SOL     OW 9810  13.425  11.740  14.691
 2638SOL    HW1 9811  13.506  11.764  14.648
 2638SOL    HW2 9812  13.356  11.774  14.634
 2639SOL     OW 9813  10.252  13.362   2.895
 2639SOL    HW1 9814  10.202  13.342   2.974
 2639SOL    HW2 9815  10.302  13.282   2.878
 2640SOL     OW 9816   3.805   4.430   8.617
 2640SOL    HW1 9817   3.821   4.353   8.562
 2640SOL    HW2 9818   3.845   4.408   8.701
 2641SOL     OW 9819   5.808   0.869   3.014
 2641SOL    HW1 9820   5.852   0.814   3.079
 2641SOL    HW2 9821   5.878   0.920   2.974
 2642SOL     OW 9822   1.321   8.814  10.519
 2642SOL    HW1 9823   1.313   8.908  10.503
 2642SOL    HW2 9824   1.299   8.773  10.436
 2643SOL     OW 9825   0.861   5.486   8.188
 2643SOL    HW1 9826   0.781   5.501   8.138
 2643SOL    HW2 9827   0.846   5.403   8.234
 2644SOL     OW 9828   4.648   5.495   0.371
 2644SOL    HW1 9829   4.603   5.444   0.303
 2644SOL    HW2 9830   4.669   5.578   0.328
 2645SOL     OW 9831   9.966   3.955   9.459
 2645SOL    HW1 9832  10.047   3.990   9.422
 2645SOL    HW2 9833   9.911   3.938   9.382
 2646SOL     OW 9834   8.718  11.773   9.036
 2646SOL    HW1 9835   8.682  11.847   9.084
 2646SOL    HW2 9836   8.777  11.730   9.099
 2647SOL     OW 9837  14.765  10.467  11.819
 2647SOL    HW1 9838  14.707  10.404  11.862
 2647SOL    HW2 9839  14.807  10.513  11.891
 2648SOL     OW 9840   5.369   9.279  12.363
 2648SOL    HW1 9841   5.435   9.269  12.295
 2648SOL    HW2 9842   5.320   9.358  12.337
 2649SOL     OW 9843   4.498  10.031  11.548
 2649SOL    HW1 9844   4.541  10.052  11.631
 2649SOL    HW2 9845   4.448   9.951  11.567
 2650SOL     OW 9846  11.312   1.078   4.323
 2650SOL    HW1 9847  11.388   1.057   4.377
 2650SOL    HW2 9848  11.342   1.148   4.265
 2651SOL     OW 9849   7.268   1.315  11.741
 2651SOL    HW1 9850   7.211   1.319  11.664
 2651SOL    HW2 9851   7.298   1.405  11.754
 2652SOL     OW 9852   3.733  11.395  12.143
 2652SOL    HW1 9853   3.796  11.336  12.101
 2652SOL    HW2 9854   3.689  11.341  12.209
 2653SOL     OW 9855  14.765   1.976  14.770
 2653SOL    HW1 9856  14.710   2.044  14.733
 2653SOL    HW2 9857  14.723   1.953  14.853
 2654SOL     OW 9858   2.987   6.309   4.024
 2654SOL    HW1 9859   3.033   6.283   4.103
 2654SOL    HW2 9860   3.052   6.297   3.954
 2655SOL     OW 9861   6.716   2.995   7.167
 2655SOL    HW1 9862   6.716   3.054   7.093
 2655SOL    HW2 9863   6.640   3.022   7.220
 2656SOL     OW 9864   8.232   7.406   8.376
 2656SOL    HW1 9865   8.169   7.420   8.447
 2656SOL    HW2 9866   8.229   7.488   8.326
 2657SOL     OW 9867   6.643  10.778   9.202
 2657SOL    HW1 9868   6.637  10.754   9.294
 2657SOL    HW2 9869   6.564  10.830   9.186
 2658SOL     OW 9870   4.069   4.132   2.407
 2658SOL    HW1 9871   4.071   4.192   2.482
 2658SOL    HW2 9872   3.993   4.160   2.357
 2659SOL     OW 9873   0.845   7.816   3.525
 2659SOL    HW1 9874   0.923   7.834   3.576
 2659SOL    HW2 9875   0.773   7.822   3.587
 2660SOL     OW 9876  14.263   8.794  12.939
 2660SOL    HW1 9877  14.298   8.857  13.001
 2660SOL    HW2 9878  14.175   8.774  12.972
 2661SOL     OW 9879  10.770  10.510   2.354
 2661SOL    HW1 9880  10.697  10.545   2.405
 2661SOL    HW2 9881  10.766  10.559   2.271
 2662SOL     OW 9882   6.713  10.710  11.631
 2662SOL    HW1 9883   6.637  10.745  11.584
 2662SOL    HW2 9884   6.681  10.696  11.720
 2663SOL     OW 9885   5.487   4.308   8.440
 2663SOL    HW1 9886   5.520   4.393   8.412
 2663SOL    HW2 9887   5.493   4.310   8.536
 2664SOL     OW 9888  10.190   1.718   5.899
 2664SOL    HW1 9889  10.139   1.697   5.821
 2664SOL    HW2 9890  10.162   1.652   5.964
 2665SOL     OW 9891   6.274   0.856   8.414
 2665SOL    HW1 9892   6.332   0.904   8.356
 2665SOL    HW2 9893   6.265   0.912   8.491
 2666SOL     OW 9894   5.740   6.326  13.042
 2666SOL    HW1 9895   5.821   6.356  13.002
 2666SOL    HW2 9896   5.768   6.264  13.110
 2667SOL     OW 9897   1.024  12.036  11.831
 2667SOL    HW1 9898   1.073  12.113  11.801
 2667SOL    HW2 9899   1.077  12.000  11.902
 2668SOL     OW 9900   7.407   3.285   8.167
 2668SOL    HW1 9901   7.450   3.369   8.150
 2668SOL    HW2 9902   7.317   3.309   8.189
 2669SOL     OW 9903   2.874   4.679   4.242
 2669SOL    HW1 9904   2.949   4.644   4.193
 2669SOL    HW2 9905   2.808   4.697   4.176
 2670SOL     OW 9906   2.299   1.020   7.236
 2670SOL    HW1 9907   2.344   0.942   7.267
 2670SOL    HW2 9908   2.332   1.091   7.291
 2671SOL     OW 9909  14.667  14.701   4.116
 2671SOL    HW1 9910  14.749  14.652   4.112
 2671SOL    HW2 9911  14.664  14.735   4.206
 2672SOL     OW 9912   8.492  12.191   5.092
 2672SOL    HW1 9913   8.505  12.096   5.093
 2672SOL    HW2 9914   8.574  12.226   5.127
 2673SOL     OW 9915  11.398   3.399   1.515
 2673SOL    HW1 9916  11.351   3.477   1.545
 2673SOL    HW2 9917  11.466   3.433   1.457
 2674SOL     OW 9918   7.445   1.077   9.245
 2674SOL    HW1 9919   7.401   1.134   9.182
 2674SOL    HW2 9920   7.479   1.005   9.193
 2675SOL     OW 9921  13.976   1.968   0.547
 2675SOL    HW1 9922  13.992   1.875   0.529
 2675SOL    HW2 9923  14.062   2.002   0.571
 2676SOL     OW 9924  11.846   4.287  12.760
 2676SOL    HW1 9925  11.940   4.280  12.743
 2676SOL    HW2 9926  11.828   4.381  12.759
 2677SOL     OW 9927  12.935   0.839   2.717
 2677SOL    HW1 9928  12.963   0.857   2.627
 2677SOL    HW2 9929  13.015   0.842   2.769
 2678SOL     OW 9930  12.084  13.281   1.028
 2678SOL    HW1 9931  12.075  13.342   0.955
 2678SOL    HW2 9932  12.155  13.222   1.003
 2679SOL     OW 9933   2.996  14.656   6.050
 2679SOL    HW1 9934   2.936  14.656   6.124
 2679SOL    HW2 9935   3.053  14.731   6.065
 2680SOL     OW 9936   5.970   2.779   4.111
 2680SOL    HW1 9937   5.930   2.765   4.196
 2680SOL    HW2 9938   6.048   2.832   4.129
 2681SOL     OW 9939  10.509   8.802  11.388
 2681SOL    HW1 9940  10.549   8.753  11.460
 2681SOL    HW2 9941  10.577   8.804  11.320
 2682SOL     OW 9942  13.372   8.243   5.311
 2682SOL    HW1 9943  13.450   8.272   5.358
 2682SOL    HW2 9944  13.300   8.290   5.353
 2683SOL     OW 9945   1.443   7.696   6.259
 2683SOL    HW1 9946   1.440   7.790   6.279
 2683SOL    HW2 9947   1.496   7.658   6.329
 2684SOL     OW 9948   4.407  11.100   6.574
 2684SOL    HW1 9949   4.416  11.190   6.606
 2684SOL    HW2 9950   4.485  11.086   6.521
 2685SOL     OW 9951  14.873   8.953   5.356
 2685SOL    HW1 9952  14.820   8.978   5.431
 2685SOL    HW2 9953  14.866   9.027   5.296
 2686SOL     OW 9954   6.940   7.375   4.291
 2686SOL    HW1 9955   7.000   7.352   4.220
 2686SOL    HW2 9956   6.878   7.436   4.252
 2687SOL     OW 9957   1.168  14.644   2.286
 2687SOL    HW1 9958   1.209  14.724   2.254
 2687SOL    HW2 9959   1.222  14.616   2.359
 2688SOL     OW 9960   0.878  13.781   5.557
 2688SOL    HW1 9961   0.926  13.842   5.501
 2688SOL    HW2 9962   0.787  13.811   5.554
 2689SOL     OW 9963  14.805   3.575   8.360
 2689SOL    HW1 9964  14.711   3.566   8.346
 2689SOL    HW2 9965  14.822   3.527   8.442
 2690SOL     OW 9966   9.392  13.591   8.783
 2690SOL    HW1 9967   9.477  13.626   8.809
 2690SOL    HW2 9968   9.396  13.589   8.687
 2691SOL     OW 9969  12.934   0.710   5.247
 2691SOL    HW1 9970  12.967   0.793   5.282
 2691SOL    HW2 9971  12.942   0.719   5.152
 2692SOL     OW 9972   3.998  13.892  14.290
 2692SOL    HW1 9973   4.061  13.882  14.219
 2692SOL    HW2 9974   4.040  13.851  14.365
 2693SOL     OW 9975   1.268  12.012  13.521
 2693SOL    HW1 9976   1.176  12.029  13.541
 2693SOL    HW2 9977   1.282  12.054  13.436
 2694SOL     OW 9978  13.047  13.157   6.238
 2694SOL    HW1 9979  12.978  13.162   6.303
 2694SOL    HW2 9980  13.128  13.157   6.289
 2695SOL     OW 9981  14.459   6.438   4.811
 2695SOL    HW1 9982  14.475   6.507   4.747
 2695SOL    HW2 9983  14.495   6.473   4.893
 2696SOL     OW 9984  11.372  11.074   3.031
 2696SOL    HW1 9985  11.278  11.070   3.015
 2696SOL    HW2 9986  11.404  10.988   3.004
 2697SOL     OW 9987   8.368   1.196  10.794
 2697SOL    HW1 9988   8.413   1.193  10.878
 2697SOL    HW2 9989   8.426   1.248  10.738
 2698SOL     OW 9990   0.234  14.223   9.564
 2698SOL    HW1 9991   0.266  14.158   9.626
 2698SOL    HW2 9992   0.138  14.215   9.568
 2699SOL     OW 9993   4.751   4.113  10.098
 2699SOL    HW1 9994   4.711   4.082  10.179
 2699SOL    HW2 9995   4.840   4.139  10.123
 2700SOL     OW 9996   3.992   3.185   2.775
 2700SOL    HW1 9997   3.992   3.251   2.705
 2700SOL    HW2 9998   4.030   3.107   2.735
 2701SOL     OW 9999   9.757   0.679  13.972
 2701SOL    HW110000   9.673   0.632  13.966
 2701SOL    HW210001   9.737   0.767  13.938
 2702SOL     OW10002   0.296   5.976   5.104
 2702SOL    HW110003   0.326   6.020   5.184
 2702SOL    HW210004   0.376   5.944   5.062
 2703SOL     OW10005   9.608   9.502  13.919
 2703SOL    HW110006   9.513   9.505  13.911
 2703SOL    HW210007   9.628   9.554  13.997
 2704SOL     OW10008  10.575   1.427   9.695
 2704SOL    HW110009  10.638   1.497   9.713
 2704SOL    HW210010  10.616   1.376   9.624
 2705SOL     OW10011  12.008  10.668   7.187
 2705SOL    HW110012  11.954  10.701   7.259
 2705SOL    HW210013  11.971  10.583   7.166
 2706SOL     OW10014   7.002   3.384   2.511
 2706SOL    HW110015   6.948   3.313   2.477
 2706SOL    HW210016   6.960   3.409   2.593
 2707SOL     OW10017   2.846   8.028   5.110
 2707SOL    HW110018   2.803   8.104   5.148
 2707SOL    HW210019   2.819   7.955   5.166
 2708SOL     OW10020   2.663  10.743  10.231
 2708SOL    HW110021   2.592  10.805  10.247
 2708SOL    HW210022   2.675  10.745  10.136
 2709SOL     OW10023  14.145   6.286   9.686
 2709SOL    HW110024  14.068   6.304   9.740
 2709SOL    HW210025  14.157   6.191   9.691
 2710SOL     OW10026  10.972   5.628  14.083
 2710SOL    HW110027  10.943   5.671  14.163
 2710SOL    HW210028  11.056   5.669  14.062
 2711SOL     OW10029   2.941   7.331   1.721
 2711SOL    HW110030   2.987   7.359   1.800
 2711SOL    HW210031   2.906   7.412   1.684
 2712SOL     OW10032  13.016   8.225   0.747
 2712SOL    HW110033  12.995   8.307   0.792
 2712SOL    HW210034  13.070   8.177   0.810
 2713SOL     OW10035   2.229   8.724   6.154
 2713SOL    HW110036   2.254   8.636   6.127
 2713SOL    HW210037   2.210   8.716   6.248
 2714SOL     OW10038  13.914   6.106  12.817
 2714SOL    HW110039  13.969   6.160  12.760
 2714SOL    HW210040  13.973   6.039  12.851
 2715SOL     OW10041  13.069  14.206  11.112
 2715SOL    HW110042  13.083  14.114  11.131
 2715SOL    HW210043  13.154  14.238  11.082
 2716SOL     OW10044  10.382  10.346   2.663
 2716SOL    HW110045  10.456  10.286   2.652
 2716SOL    HW210046  10.307  10.298   2.629
 2717SOL     OW10047   3.597   8.753  14.334
 2717SOL    HW110048   3.693   8.757  14.341
 2717SOL    HW210049   3.569   8.715  14.417
 2718SOL     OW10050   3.406   8.755   0.225
 2718SOL    HW110051   3.479   8.791   0.275
 2718SOL    HW210052   3.362   8.695   0.285
 2719SOL     OW10053   2.031   8.065  14.849
 2719SOL    HW110054   2.058   8.021  14.768
 2719SOL    HW210055   1.942   8.032  14.865
 2720SOL     OW10056   9.568   8.739  11.650
 2720SOL    HW110057   9.474   8.755  11.651
 2720SOL    HW210058   9.577   8.646  11.631
 2721SOL     OW10059   5.982   1.339   7.480
 2721SOL    HW110060   6.056   1.399   7.473
 2721SOL    HW210061   5.989   1.283   7.403
 2722SOL     OW10062   0.367  12.233  13.950
 2722SOL    HW110063   0.372  12.188  13.865
 2722SOL    HW210064   0.449  12.210  13.994
 2723SOL     OW10065   2.287   0.903   2.271
 2723SOL    HW110066   2.336   0.931   2.349
 2723SOL    HW210067   2.195   0.910   2.297
 2724SOL     OW10068  12.183  10.786   1.527
 2724SOL    HW110069  12.222  10.817   1.608
 2724SOL    HW210070  12.093  10.762   1.551
 2725SOL     OW10071   1.144  11.833  10.247
 2725SOL    HW110072   1.192  11.907  10.208
 2725SOL    HW210073   1.069  11.821  10.189
 2726SOL     OW10074  11.987   8.821   7.510
 2726SOL    HW110075  11.897   8.843   7.490
 2726SOL    HW210076  12.021   8.897   7.557
 2727SOL     OW10077   3.584   3.906   6.606
 2727SOL    HW110078   3.600   3.812   6.611
 2727SOL    HW210079   3.599   3.927   6.514
 2728SOL     OW10080  10.561  13.545  11.274
 2728SOL    HW110081  10.501  13.612  11.241
 2728SOL    HW210082  10.607  13.513  11.196
 2729SOL     OW10083  14.874  10.327   4.361
 2729SOL    HW110084  14.837  10.242   4.384
 2729SOL    HW210085  14.799  10.378   4.330
 2730SOL     OW10086  13.708   6.941   8.171
 2730SOL    HW110087  13.794   6.950   8.210
 2730SOL    HW210088  13.716   6.980   8.084
 2731SOL     OW10089   4.454   9.494   3.882
 2731SOL    HW110090   4.395   9.448   3.942
 2731SOL    HW210091   4.532   9.440   3.878
 2732SOL     OW10092  10.213   4.637  14.261
 2732SOL    HW110093  10.121   4.661  14.255
 2732SOL    HW210094  10.218   4.550  14.220
 2733SOL     OW10095   6.658   6.304   9.913
 2733SOL    HW110096   6.644   6.382   9.966
 2733SOL    HW210097   6.735   6.324   9.859
 2734SOL     OW10098   4.179   2.152  14.787
 2734SOL    HW110099   4.131   2.185  14.863
 2734SOL    HW210100   4.225   2.074  14.821
 2735SOL     OW10101   0.783   8.118   8.456
 2735SOL    HW110102   0.772   8.208   8.426
 2735SOL    HW210103   0.694   8.085   8.469
 2736SOL     OW10104   7.378   3.456  13.353
 2736SOL    HW110105   7.429   3.382  13.319
 2736SOL    HW210106   7.444   3.524  13.369
 2737SOL     OW10107   5.828   0.265   3.709
 2737SOL    HW110108   5.762   0.205   3.743
 2737SOL    HW210109   5.890   0.209   3.661
 2738SOL     OW10110   1.201   0.985   7.990
 2738SOL    HW110111   1.179   0.985   7.896
 2738SOL    HW210112   1.155   1.061   8.025
 2739SOL     OW10113  14.123   2.343   8.599
 2739SOL    HW110114  14.146   2.334   8.692
 2739SOL    HW210115  14.200   2.384   8.560
 2740SOL     OW10116   0.795  11.302  11.446
 2740SOL    HW110117   0.761  11.289  11.535
 2740SOL    HW210118   0.833  11.218  11.422
 2741SOL     OW10119   5.529   3.048  14.259
 2741SOL    HW110120   5.579   2.993  14.198
 2741SOL    HW210121   5.438   3.021  14.246
 2742SOL     OW10122   1.885   7.591   0.036
 2742SOL    HW110123   1.824   7.518   0.042
 2742SOL    HW210124   1.879   7.634   0.121
 2743SOL     OW10125  14.829  11.774  12.926
 2743SOL    HW110126  14.807  11.744  13.014
 2743SOL    HW210127  14.745  11.803  12.888
 2744SOL     OW10128   9.648   3.175  12.846
 2744SOL    HW110129   9.594   3.114  12.896
 2744SOL    HW210130   9.718   3.200  12.906
 2745SOL     OW10131   1.927   3.961  14.060
 2745SOL    HW110132   2.012   3.994  14.088
 2745SOL    HW210133   1.870   4.037  14.059
 2746SOL     OW10134  10.632   9.831   1.814
 2746SOL    HW110135  10.543   9.858   1.838
 2746SOL    HW210136  10.656   9.767   1.882
 2747SOL     OW10137  10.829   4.162  13.187
 2747SOL    HW110138  10.760   4.110  13.228
 2747SOL    HW210139  10.911   4.122  13.218
 2748SOL     OW10140   1.408  11.439   2.189
 2748SOL    HW110141   1.396  11.374   2.120
 2748SOL    HW210142   1.448  11.391   2.261
 2749SOL     OW10143   3.253   6.022   3.734
 2749SOL    HW110144   3.274   6.015   3.827
 2749SOL    HW210145   3.167   5.981   3.726
 2750SOL     OW10146  14.431   2.514   6.122
 2750SOL    HW110147  14.512   2.470   6.147
 2750SOL    HW210148  14.372   2.444   6.095
 2751SOL     OW10149   6.386   1.159   9.223
 2751SOL    HW110150   6.399   1.072   9.187
 2751SOL    HW210151   6.437   1.217   9.166
 2752SOL     OW10152  12.489   6.667  14.830
 2752SOL    HW110153  12.526   6.755  14.820
 2752SOL    HW210154  12.396   6.678  14.813
 2753SOL     OW10155  14.650   3.967   5.485
 2753SOL    HW110156  14.669   4.042   5.428
 2753SOL    HW210157  14.570   3.991   5.531
 2754SOL     OW10158   7.892  10.684  10.345
 2754SOL    HW110159   7.874  10.592  10.325
 2754SOL    HW210160   7.876  10.692  10.439
 2755SOL     OW10161  13.146   3.349   2.912
 2755SOL    HW110162  13.201   3.363   2.989
 2755SOL    HW210163  13.080   3.286   2.942
 2756SOL     OW10164  11.246   5.936   2.435
 2756SOL    HW110165  11.271   5.851   2.399
 2756SOL    HW210166  11.312   5.954   2.502
 2757SOL     OW10167   1.747  11.174  14.153
 2757SOL    HW110168   1.680  11.237  14.127
 2757SOL    HW210169   1.699  11.093  14.171
 2758SOL     OW10170   2.106  11.845   6.723
 2758SOL    HW110171   2.049  11.787   6.672
 2758SOL    HW210172   2.046  11.892   6.781
 2759SOL     OW10173   7.275   8.074   4.528
 2759SOL    HW110174   7.255   8.086   4.435
 2759SOL    HW210175   7.332   7.997   4.530
 2760SOL     OW10176   1.017  13.899   3.081
 2760SOL    HW110177   1.018  13.805   3.061
 2760SOL    HW210178   0.969  13.906   3.163
 2761SOL     OW10179   3.697   5.965   2.943
 2761SOL    HW110180   3.635   5.996   2.877
 2761SOL    HW210181   3.644   5.945   3.020
 2762SOL     OW10182  13.559  11.999   8.229
 2762SOL    HW110183  13.637  12.004   8.174
 2762SOL    HW210184  13.486  11.992   8.168
 2763SOL     OW10185  13.356   6.866  14.013
 2763SOL    HW110186  13.359   6.871  14.109
 2763SOL    HW210187  13.354   6.957  13.984
 2764SOL     OW10188   8.535  13.173   0.463
 2764SOL    HW110189   8.511  13.093   0.416
 2764SOL    HW210190   8.617  13.151   0.508
 2765SOL     OW10191   8.157   8.938   5.107
 2765SOL    HW110192   8.087   8.982   5.154
 2765SOL    HW210193   8.131   8.845   5.107
 2766SOL     OW10194  10.770  11.844  14.826
 2766SOL    HW110195  10.861  11.819  14.841
 2766SOL    HW210196  10.723  11.761  14.819
 2767SOL     OW10197   7.164  12.595   2.276
 2767SOL    HW110198   7.099  12.545   2.226
 2767SOL    HW210199   7.236  12.610   2.215
 2768SOL     OW10200   4.291  12.926   7.886
 2768SOL    HW110201   4.346  12.878   7.948
 2768SOL    HW210202   4.204  12.887   7.896
 2769SOL     OW10203   5.272  10.414   9.793
 2769SOL    HW110204   5.331  10.458   9.855
 2769SOL    HW210205   5.256  10.478   9.725
 2770SOL     OW10206   0.412   7.909  10.110
 2770SOL    HW110207   0.469   7.834  10.122
 2770SOL    HW210208   0.432   7.966  10.185
 2771SOL     OW10209  14.620   8.908   6.630
 2771SOL    HW110210  14.578   8.994   6.631
 2771SOL    HW210211  14.577   8.861   6.559
 2772SOL     OW10212   0.914   1.074  12.951
 2772SOL    HW110213   0.866   1.108  12.876
 2772SOL    HW210214   0.847   1.055  13.016
 2773SOL     OW10215   5.841   6.423  11.670
 2773SOL    HW110216   5.913   6.408  11.609
 2773SOL    HW210217   5.802   6.336  11.683
 2774SOL     OW10218   9.313   7.262  14.205
 2774SOL    HW110219   9.278   7.181  14.242
 2774SOL    HW210220   9.396   7.235  14.165
 2775SOL     OW10221  11.728   8.058  13.096
 2775SOL    HW110222  11.666   7.996  13.057
 2775SOL    HW210223  11.789   8.079  13.026
 2776SOL     OW10224  12.167   8.315   8.851
 2776SOL    HW110225  12.192   8.378   8.919
 2776SOL    HW210226  12.182   8.229   8.891
 2777SOL     OW10227  11.268   5.205  12.346
 2777SOL    HW110228  11.304   5.209  12.258
 2777SOL    HW210229  11.211   5.128  12.345
 2778SOL     OW10230  13.600   5.257   0.728
 2778SOL    HW110231  13.614   5.273   0.635
 2778SOL    HW210232  13.628   5.166   0.742
 2779SOL     OW10233  10.634   7.235   4.003
 2779SOL    HW110234  10.589   7.219   4.086
 2779SOL    HW210235  10.696   7.163   3.996
 2780SOL     OW10236   3.313   7.847   2.845
 2780SOL    HW110237   3.241   7.823   2.786
 2780SOL    HW210238   3.294   7.799   2.926
 2781SOL     OW10239   0.866   6.476   0.278
 2781SOL    HW110240   0.868   6.427   0.360
 2781SOL    HW210241   0.817   6.420   0.218
 2782SOL     OW10242   8.708   5.796   5.486
 2782SOL    HW110243   8.711   5.875   5.541
 2782SOL    HW210244   8.615   5.787   5.465
 2783SOL     OW10245   7.960  11.525   4.451
 2783SOL    HW110246   7.913  11.558   4.374
 2783SOL    HW210247   8.044  11.569   4.449
 2784SOL     OW10248   7.014   3.926   0.066
 2784SOL    HW110249   7.058   3.908   0.149
 2784SOL    HW210250   7.084   3.948   0.005
 2785SOL     OW10251  10.792  10.347   0.834
 2785SOL    HW110252  10.808  10.356   0.928
 2785SOL    HW210253  10.753  10.430   0.808
 2786SOL     OW10254   4.652   8.492  10.485
 2786SOL    HW110255   4.670   8.444  10.405
 2786SOL    HW210256   4.557   8.488  10.495
 2787SOL     OW10257   9.890   8.456   8.552
 2787SOL    HW110258   9.949   8.520   8.513
 2787SOL    HW210259   9.804   8.497   8.547
 2788SOL     OW10260  11.004  14.320   1.802
 2788SOL    HW110261  11.065  14.251   1.825
 2788SOL    HW210262  10.950  14.332   1.880
 2789SOL     OW10263   6.406  14.747  13.502
 2789SOL    HW110264   6.327  14.749  13.557
 2789SOL    HW210265   6.399  14.826  13.448
 2790SOL     OW10266   4.379   1.042   8.009
 2790SOL    HW110267   4.314   1.048   7.939
 2790SOL    HW210268   4.425   0.960   7.992
 2791SOL     OW10269  14.674   2.276   2.229
 2791SOL    HW110270  14.701   2.260   2.139
 2791SOL    HW210271  14.578   2.265   2.228
 2792SOL     OW10272  10.115   0.259   2.725
 2792SOL    HW110273  10.058   0.336   2.719
 2792SOL    HW210274  10.060   0.190   2.761
 2793SOL     OW10275   6.752  14.298   6.613
 2793SOL    HW110276   6.711  14.294   6.526
 2793SOL    HW210277   6.697  14.359   6.662
 2794SOL     OW10278   7.715  12.620  13.766
 2794SOL    HW110279   7.714  12.643  13.859
 2794SOL    HW210280   7.808  12.618  13.743
 2795SOL     OW10281  14.584   9.838   1.088
 2795SOL    HW110282  14.666   9.800   1.055
 2795SOL    HW210283  14.596   9.933   1.080
 2796SOL     OW10284  10.280  12.867  11.081
 2796SOL    HW110285  10.192  12.895  11.054
 2796SOL    HW210286  10.323  12.843  10.999
 2797SOL     OW10287   0.501   0.912   5.829
 2797SOL    HW110288   0.478   0.877   5.916
 2797SOL    HW210289   0.591   0.943   5.839
 2798SOL     OW10290   5.688   9.454  14.130
 2798SOL    HW110291   5.781   9.448  14.109
 2798SOL    HW210292   5.683   9.438  14.224
 2799SOL     OW10293  13.090  10.227   7.094
 2799SOL    HW110294  13.183  10.216   7.113
 2799SOL    HW210295  13.087  10.294   7.026
 2800SOL     OW10296   4.251   8.677   2.096
 2800SOL    HW110297   4.174   8.629   2.126
 2800SOL    HW210298   4.318   8.610   2.084
 2801SOL     OW10299   8.303  12.395   9.207
 2801SOL    HW110300   8.214  12.406   9.240
 2801SOL    HW210301   8.355  12.460   9.254
 2802SOL     OW10302  14.744   7.924  13.089
 2802SOL    HW110303  14.831   7.964  13.084
 2802SOL    HW210304  14.697   7.960  13.015
 2803SOL     OW10305   7.144   6.407  11.651
 2803SOL    HW110306   7.102   6.415  11.565
 2803SOL    HW210307   7.144   6.496  11.686
 2804SOL     OW10308  14.526   2.747   9.309
 2804SOL    HW110309  14.566   2.666   9.280
 2804SOL    HW210310  14.568   2.815   9.257
 2805SOL     OW10311  12.175   3.564  11.264
 2805SOL    HW110312  12.131   3.495  11.314
 2805SOL    HW210313  12.116   3.582  11.191
 2806SOL     OW10314   1.703   7.852   2.611
 2806SOL    HW110315   1.788   7.809   2.623
 2806SOL    HW210316   1.721   7.923   2.549
 2807SOL     OW10317  11.418  10.457   2.807
 2807SOL    HW110318  11.477  10.523   2.772
 2807SOL    HW210319  11.473  10.406   2.867
 2808SOL     OW10320   6.380   2.758   6.364
 2808SOL    HW110321   6.401   2.707   6.442
 2808SOL    HW210322   6.315   2.705   6.318
 2809SOL     OW10323  10.948   8.815   2.751
 2809SOL    HW110324  10.859   8.817   2.787
 2809SOL    HW210325  10.938   8.844   2.660
 2810SOL     OW10326  11.919  14.117  10.869
 2810SOL    HW110327  11.825  14.127  10.881
 2810SOL    HW210328  11.949  14.070  10.946
 2811SOL     OW10329  14.286   6.498  11.020
 2811SOL    HW110330  14.337   6.536  11.092
 2811SOL    HW210331  14.220   6.444  11.064
 2812SOL     OW10332   6.904   1.701  14.744
 2812SOL    HW110333   6.842   1.760  14.702
 2812SOL    HW210334   6.882   1.614  14.709
 2813SOL     OW10335  11.190   0.101   6.534
 2813SOL    HW110336  11.250   0.087   6.460
 2813SOL    HW210337  11.135   0.174   6.506
 2814SOL     OW10338   8.983   8.625   2.168
 2814SOL    HW110339   9.070   8.628   2.127
 2814SOL    HW210340   8.934   8.695   2.124
 2815SOL     OW10341   9.342  13.125   7.563
 2815SOL    HW110342   9.423  13.104   7.517
 2815SOL    HW210343   9.369  13.136   7.655
 2816SOL     OW10344   8.593   4.102  12.929
 2816SOL    HW110345   8.563   4.105  13.020
 2816SOL    HW210346   8.616   4.192  12.908
 2817SOL     OW10347   0.646  11.890  12.002
 2817SOL    HW110348   0.646  11.802  11.964
 2817SOL    HW210349   0.734  11.900  12.038
 2818SOL     OW10350   8.452  10.881   9.875
 2818SOL    HW110351   8.537  10.851   9.843
 2818SOL    HW210352   8.424  10.947   9.812
 2819SOL     OW10353   7.061   7.423   6.404
 2819SOL    HW110354   7.047   7.512   6.371
 2819SOL    HW210355   7.004   7.416   6.480
 2820SOL     OW10356  14.728   6.721  11.054
 2820SOL    HW110357  14.797   6.734  11.119
 2820SOL    HW210358  14.736   6.629  11.028
 2821SOL     OW10359   0.807   9.224   7.687
 2821SOL    HW110360   0.753   9.297   7.655
 2821SOL    HW210361   0.756   9.146   7.665
 2822SOL     OW10362   2.395  13.478   9.939
 2822SOL    HW110363   2.395  13.418   9.865
 2822SOL    HW210364   2.454  13.437  10.003
 2823SOL     OW10365   1.698  13.584  14.126
 2823SOL    HW110366   1.781  13.537  14.130
 2823SOL    HW210367   1.655  13.550  14.047
 2824SOL     OW10368   6.783   1.304   0.797
 2824SOL    HW110369   6.748   1.342   0.878
 2824SOL    HW210370   6.822   1.378   0.751
 2825SOL     OW10371   7.454   9.861   0.070
 2825SOL    HW110372   7.535   9.817   0.044
 2825SOL    HW210373   7.394   9.789   0.091
 2826SOL     OW10374   2.241  11.455   8.452
 2826SOL    HW110375   2.296  11.380   8.474
 2826SOL    HW210376   2.157  11.416   8.426
 2827SOL     OW10377   1.779   3.809   5.587
 2827SOL    HW110378   1.732   3.825   5.669
 2827SOL    HW210379   1.869   3.835   5.605
 2828SOL     OW10380   6.894   0.498  14.396
 2828SOL    HW110381   6.888   0.534  14.485
 2828SOL    HW210382   6.819   0.438  14.389
 2829SOL     OW10383  14.588   4.331  13.538
 2829SOL    HW110384  14.546   4.250  13.565
 2829SOL    HW210385  14.680   4.308  13.526
 2830SOL     OW10386   0.383   4.102   0.321
 2830SOL    HW110387   0.435   4.180   0.338
 2830SOL    HW210388   0.368   4.104   0.226
 2831SOL     OW10389   5.205  13.677   9.357
 2831SOL    HW110390   5.205  13.709   9.267
 2831SOL    HW210391   5.126  13.623   9.363
 2832SOL     OW10392   0.309  13.490   4.007
 2832SOL    HW110393   0.224  13.490   3.962
 2832SOL    HW210394   0.372  13.468   3.939
 2833SOL     OW10395   6.439  12.212  11.601
 2833SOL    HW110396   6.410  12.193  11.512
 2833SOL    HW210397   6.480  12.298  11.595
 2834SOL     OW10398  12.564   9.662   0.411
 2834SOL    HW110399  12.532   9.674   0.321
 2834SOL    HW210400  12.584   9.568   0.417
 2835SOL     OW10401   5.383   3.713   1.966
 2835SOL    HW110402   5.288   3.719   1.979
 2835SOL    HW210403   5.421   3.746   2.047
 2836SOL     OW10404   8.853   9.333   8.622
 2836SOL    HW110405   8.913   9.404   8.647
 2836SOL    HW210406   8.908   9.272   8.572
 2837SOL     OW10407  10.512   4.320   9.414
 2837SOL    HW110408  10.535   4.243   9.363
 2837SOL    HW210409  10.596   4.356   9.444
 2838SOL     OW10410   2.353   1.045   0.811
 2838SOL    HW110411   2.364   1.041   0.906
 2838SOL    HW210412   2.421   1.105   0.781
 2839SOL     OW10413   9.600   1.648   4.008
 2839SOL    HW110414   9.632   1.737   4.022
 2839SOL    HW210415   9.510   1.660   3.976
 2840SOL     OW10416  13.182   0.581   9.236
 2840SOL    HW110417  13.123   0.506   9.236
 2840SOL    HW210418  13.144   0.642   9.300
 2841SOL     OW10419  14.448  13.190  12.279
 2841SOL    HW110420  14.464  13.245  12.355
 2841SOL    HW210421  14.534  13.152  12.258
 2842SOL     OW10422  10.534   9.240  14.457
 2842SOL    HW110423  10.522   9.176  14.388
 2842SOL    HW210424  10.454   9.236  14.509
 2843SOL     OW10425  10.293  12.628   7.671
 2843SOL    HW110426  10.319  12.626   7.763
 2843SOL    HW210427  10.336  12.706   7.635
 2844SOL     OW10428   6.161   2.653  13.659
 2844SOL    HW110429   6.120   2.643  13.745
 2844SOL    HW210430   6.126   2.580  13.608
 2845SOL     OW10431   9.494   7.732   2.368
 2845SOL    HW110432   9.404   7.763   2.364
 2845SOL    HW210433   9.538   7.795   2.425
 2846SOL     OW10434   5.935  11.748   3.703
 2846SOL    HW110435   5.900  11.788   3.783
 2846SOL    HW210436   5.961  11.822   3.648
 2847SOL     OW10437   9.347   0.571   6.473
 2847SOL    HW110438   9.405   0.639   6.509
 2847SOL    HW210439   9.405   0.515   6.423
 2848SOL     OW10440   1.099  10.114   5.087
 2848SOL    HW110441   1.039  10.174   5.132
 2848SOL    HW210442   1.090  10.135   4.994
 2849SOL     OW10443  11.602   7.572   1.114
 2849SOL    HW110444  11.626   7.529   1.196
 2849SOL    HW210445  11.519   7.615   1.133
 2850SOL     OW10446  14.782  12.800   1.216
 2850SOL    HW110447  14.690  12.824   1.226
 2850SOL    HW210448  14.819  12.868   1.160
 2851SOL     OW10449   4.346   2.483   1.075
 2851SOL    HW110450   4.331   2.486   1.170
 2851SOL    HW210451   4.333   2.391   1.051
 2852SOL     OW10452   4.646  13.370   3.656
 2852SOL    HW110453   4.635  13.455   3.698
 2852SOL    HW210454   4.560  13.329   3.662
 2853SOL     OW10455   8.270  14.531   1.211
 2853SOL    HW110456   8.231  14.444   1.202
 2853SOL    HW210457   8.348  14.517   1.265
 2854SOL     OW10458  13.546   3.554   8.308
 2854SOL    HW110459  13.572   3.513   8.390
 2854SOL    HW210460  13.627   3.555   8.255
 2855SOL     OW10461   6.644  10.760   9.472
 2855SOL    HW110462   6.670  10.673   9.502
 2855SOL    HW210463   6.706  10.820   9.512
 2856SOL     OW10464  12.873   4.322   2.627
 2856SOL    HW110465  12.847   4.239   2.586
 2856SOL    HW210466  12.791   4.362   2.655
 2857SOL     OW10467  11.924   6.512   1.675
 2857SOL    HW110468  11.855   6.481   1.615
 2857SOL    HW210469  11.999   6.530   1.618
 2858SOL     OW10470   8.021   9.173   5.551
 2858SOL    HW110471   8.016   9.268   5.556
 2858SOL    HW210472   7.933   9.143   5.574
 2859SOL     OW10473  10.424  11.536   5.831
 2859SOL    HW110474  10.382  11.468   5.778
 2859SOL    HW210475  10.382  11.617   5.804
 2860SOL     OW10476   4.096   1.552  10.667
 2860SOL    HW110477   4.133   1.466  10.646
 2860SOL    HW210478   4.008   1.550  10.630
 2861SOL     OW10479   7.390   8.011   1.937
 2861SOL    HW110480   7.370   7.919   1.953
 2861SOL    HW210481   7.467   8.029   1.991
 2862SOL     OW10482   5.093  13.470   1.562
 2862SOL    HW110483   5.165  13.523   1.526
 2862SOL    HW210484   5.053  13.430   1.486
 2863SOL     OW10485  13.630   0.632   2.769
 2863SOL    HW110486  13.643   0.726   2.785
 2863SOL    HW210487  13.718   0.599   2.750
 2864SOL     OW10488   7.684   4.206   5.540
 2864SOL    HW110489   7.728   4.219   5.456
 2864SOL    HW210490   7.591   4.196   5.517
 2865SOL     OW10491   3.076   1.559   3.839
 2865SOL    HW110492   2.993   1.547   3.885
 2865SOL    HW210493   3.064   1.641   3.790
 2866SOL     OW10494   9.397   1.654   5.108
 2866SOL    HW110495   9.350   1.587   5.157
 2866SOL    HW210496   9.367   1.737   5.145
 2867SOL     OW10497   6.719   1.686   2.910
 2867SOL    HW110498   6.712   1.618   2.843
 2867SOL    HW210499   6.740   1.639   2.990
 2868SOL     OW10500  14.822   1.978   7.540
 2868SOL    HW110501  14.801   1.885   7.548
 2868SOL    HW210502  14.738   2.021   7.528
 2869SOL     OW10503   5.589  13.065   6.798
 2869SOL    HW110504   5.608  13.018   6.879
 2869SOL    HW210505   5.500  13.037   6.774
 2870SOL     OW10506   2.223  13.709   9.912
 2870SOL    HW110507   2.257  13.620   9.922
 2870SOL    HW210508   2.246  13.734   9.823
 2871SOL     OW10509   4.817   9.223   8.006
 2871SOL    HW110510   4.860   9.182   8.081
 2871SOL    HW210511   4.740   9.169   7.990
 2872SOL     OW10512  12.610   0.716   3.384
 2872SOL    HW110513  12.546   0.657   3.344
 2872SOL    HW210514  12.558   0.783   3.428
 2873SOL     OW10515   3.419   7.484   7.796
 2873SOL    HW110516   3.394   7.395   7.770
 2873SOL    HW210517   3.418   7.534   7.714
 2874SOL     OW10518   5.427  14.475   9.474
 2874SOL    HW110519   5.397  14.409   9.411
 2874SOL    HW210520   5.510  14.507   9.437
 2875SOL     OW10521   5.562   2.398  11.378
 2875SOL    HW110522   5.544   2.352  11.460
 2875SOL    HW210523   5.507   2.353  11.313
 2876SOL     OW10524   8.227   3.952   4.253
 2876SOL    HW110525   8.182   3.911   4.180
 2876SOL    HW210526   8.318   3.924   4.244
 2877SOL     OW10527   8.498   8.327   1.732
 2877SOL    HW110528   8.466   8.293   1.816
 2877SOL    HW210529   8.452   8.275   1.666
 2878SOL     OW10530   6.439  14.319   6.580
 2878SOL    HW110531   6.496  14.380   6.628
 2878SOL    HW210532   6.408  14.369   6.505
 2879SOL     OW10533   9.926   8.428   1.628
 2879SOL    HW110534   9.992   8.371   1.666
 2879SOL    HW210535   9.939   8.512   1.673
 2880SOL     OW10536   3.590   3.314  11.907
 2880SOL    HW110537   3.628   3.391  11.865
 2880SOL    HW210538   3.662   3.275  11.956
 2881SOL     OW10539   8.653   4.574   9.501
 2881SOL    HW110540   8.648   4.480   9.488
 2881SOL    HW210541   8.634   4.587   9.594
 2882SOL     OW10542  10.027   0.679   3.954
 2882SOL    HW110543  10.021   0.611   4.020
 2882SOL    HW210544  10.094   0.739   3.987
 2883SOL     OW10545  13.335   4.522   2.501
 2883SOL    HW110546  13.243   4.500   2.489
 2883SOL    HW210547  13.343   4.610   2.465
 2884SOL     OW10548   3.846   9.645   9.774
 2884SOL    HW110549   3.875   9.688   9.855
 2884SOL    HW210550   3.822   9.717   9.716
 2885SOL     OW10551   1.513   9.853   0.030
 2885SOL    HW110552   1.581   9.832  14.844
 2885SOL    HW210553   1.497   9.771   0.076
 2886SOL     OW10554  11.912  13.853  14.517
 2886SOL    HW110555  11.835  13.830  14.465
 2886SOL    HW210556  11.981  13.870  14.453
 2887SOL     OW10557  10.702   6.102  11.658
 2887SOL    HW110558  10.654   6.100  11.741
 2887SOL    HW210559  10.760   6.177  11.665
 2888SOL     OW10560   4.626   6.082  14.373
 2888SOL    HW110561   4.700   6.144  14.376
 2888SOL    HW210562   4.549   6.138  14.365
 2889SOL     OW10563   8.858   6.761   7.324
 2889SOL    HW110564   8.880   6.843   7.280
 2889SOL    HW210565   8.781   6.781   7.377
 2890SOL     OW10566  10.195   0.011  14.732
 2890SOL    HW110567  10.196   0.065  14.653
 2890SOL    HW210568  10.160   0.070  14.800
 2891SOL     OW10569   6.316   7.160  12.818
 2891SOL    HW110570   6.351   7.171  12.730
 2891SOL    HW210571   6.260   7.082  12.811
 2892SOL     OW10572  12.617   9.914  11.991
 2892SOL    HW110573  12.530   9.945  12.015
 2892SOL    HW210574  12.607   9.881  11.901
 2893SOL     OW10575  10.227   0.960   5.978
 2893SOL    HW110576  10.266   0.934   5.894
 2893SOL    HW210577  10.292   1.017   6.019
 2894SOL     OW10578   2.037   5.575   9.211
 2894SOL    HW110579   2.024   5.635   9.137
 2894SOL    HW210580   2.056   5.491   9.170
 2895SOL     OW10581  14.115   7.570  14.703
 2895SOL    HW110582  14.083   7.635  14.766
 2895SOL    HW210583  14.058   7.582  14.627
 2896SOL     OW10584   9.073   8.563   3.594
 2896SOL    HW110585   9.042   8.649   3.565
 2896SOL    HW210586   9.097   8.517   3.513
 2897SOL     OW10587  14.014   4.209   2.359
 2897SOL    HW110588  14.054   4.267   2.423
 2897SOL    HW210589  14.062   4.126   2.368
 2898SOL     OW10590  11.193   7.803   5.105
 2898SOL    HW110591  11.287   7.791   5.120
 2898SOL    HW210592  11.164   7.860   5.176
 2899SOL     OW10593   3.408  11.617   5.823
 2899SOL    HW110594   3.463  11.695   5.813
 2899SOL    HW210595   3.465  11.544   5.797
 2900SOL     OW10596  12.081   3.918   8.907
 2900SOL    HW110597  12.109   3.960   8.988
 2900SOL    HW210598  12.094   3.825   8.921
 2901SOL     OW10599   3.350   9.261  13.995
 2901SOL    HW110600   3.377   9.173  14.021
 2901SOL    HW210601   3.372   9.267  13.902
 2902SOL     OW10602  13.038  10.822   5.346
 2902SOL    HW110603  13.094  10.868   5.408
 2902SOL    HW210604  12.959  10.875   5.340
 2903SOL     OW10605  11.056   5.653  13.527
 2903SOL    HW110606  11.001   5.698  13.462
 2903SOL    HW210607  11.133   5.627  13.478
 2904SOL     OW10608   1.086   1.771   1.390
 2904SOL    HW110609   1.169   1.749   1.433
 2904SOL    HW210610   1.094   1.731   1.303
 2905SOL     OW10611   6.102   7.159   4.415
 2905SOL    HW110612   6.153   7.128   4.490
 2905SOL    HW210613   6.045   7.227   4.452
 2906SOL     OW10614  13.925  13.815   6.481
 2906SOL    HW110615  13.887  13.881   6.423
 2906SOL    HW210616  13.877  13.735   6.460
 2907SOL     OW10617  12.869   8.759   2.647
 2907SOL    HW110618  12.786   8.773   2.601
 2907SOL    HW210619  12.934   8.751   2.578
 2908SOL     OW10620   3.572  10.754   9.307
 2908SOL    HW110621   3.615  10.771   9.391
 2908SOL    HW210622   3.617  10.676   9.273
 2909SOL     OW10623  12.766   7.174   7.303
 2909SOL    HW110624  12.857   7.183   7.273
 2909SOL    HW210625  12.729   7.261   7.294
 2910SOL     OW10626   3.973   6.040  13.194
 2910SOL    HW110627   3.970   6.090  13.113
 2910SOL    HW210628   3.967   6.105  13.264
 2911SOL     OW10629   4.505  14.867   7.626
 2911SOL    HW110630   4.524  14.866   7.533
 2911SOL    HW210631   4.486  14.775   7.648
 2912SOL     OW10632  12.409  14.779   9.647
 2912SOL    HW110633  12.345  14.708   9.651
 2912SOL    HW210634  12.368  14.850   9.697
 2913SOL     OW10635  11.619   1.024  10.809
 2913SOL    HW110636  11.678   1.007  10.736
 2913SOL    HW210637  11.534   1.041  10.768
 2914SOL     OW10638  14.162  10.767  11.351
 2914SOL    HW110639  14.092  10.702  11.361
 2914SOL    HW210640  14.121  10.839  11.304
 2915SOL     OW10641  10.851   2.413   9.873
 2915SOL    HW110642  10.881   2.498   9.840
 2915SOL    HW210643  10.765   2.400   9.832
 2916SOL     OW10644   2.166   6.542   2.755
 2916SOL    HW110645   2.140   6.466   2.704
 2916SOL    HW210646   2.154   6.515   2.846
 2917SOL     OW10647   5.794   6.160   9.724
 2917SOL    HW110648   5.852   6.135   9.651
 2917SOL    HW210649   5.811   6.095   9.792
 2918SOL     OW10650   9.569   3.912  14.512
 2918SOL    HW110651   9.648   3.966  14.501
 2918SOL    HW210652   9.557   3.906  14.607
 2919SOL     OW10653   5.581   3.158   7.490
 2919SOL    HW110654   5.626   3.198   7.416
 2919SOL    HW210655   5.605   3.212   7.565
 2920SOL     OW10656   2.041   2.596   3.701
 2920SOL    HW110657   2.037   2.644   3.618
 2920SOL    HW210658   2.000   2.654   3.765
 2921SOL     OW10659   8.193  12.843  10.746
 2921SOL    HW110660   8.231  12.874  10.664
 2921SOL    HW210661   8.261  12.857  10.811
 2922SOL     OW10662   3.140   9.208   9.426
 2922SOL    HW110663   3.188   9.280   9.385
 2922SOL    HW210664   3.200   9.134   9.423
 2923SOL     OW10665   7.800  11.480   2.511
 2923SOL    HW110666   7.875  11.541   2.511
 2923SOL    HW210667   7.785  11.462   2.604
 2924SOL     OW10668  14.705   4.907   7.463
 2924SOL    HW110669  14.708   4.845   7.537
 2924SOL    HW210670  14.677   4.853   7.389
 2925SOL     OW10671   2.175  13.013   3.870
 2925SOL    HW110672   2.221  13.048   3.946
 2925SOL    HW210673   2.157  13.089   3.815
 2926SOL     OW10674   4.679  14.676  14.076
 2926SOL    HW110675   4.669  14.690  13.982
 2926SOL    HW210676   4.743  14.742  14.104
 2927SOL     OW10677   0.626   6.637  12.962
 2927SOL    HW110678   0.532   6.648  12.977
 2927SOL    HW210679   0.644   6.546  12.984
 2928SOL     OW10680   6.676  14.089   1.902
 2928SOL    HW110681   6.757  14.125   1.937
 2928SOL    HW210682   6.628  14.165   1.867
 2929SOL     OW10683   0.650  13.974  12.485
 2929SOL    HW110684   0.742  13.998  12.500
 2929SOL    HW210685   0.600  14.049  12.515
 2930SOL     OW10686  10.860   6.403   2.447
 2930SOL    HW110687  10.840   6.485   2.491
 2930SOL    HW210688  10.946   6.418   2.407
 2931SOL     OW10689   0.063  11.621   4.818
 2931SOL    HW110690   0.091  11.620   4.727
 2931SOL    HW210691  14.848  11.646   4.815
 2932SOL     OW10692   4.026   1.805   1.134
 2932SOL    HW110693   3.930   1.811   1.138
 2932SOL    HW210694   4.055   1.830   1.221
 2933SOL     OW10695  13.997   5.476  14.237
 2933SOL    HW110696  14.074   5.441  14.283
 2933SOL    HW210697  13.991   5.422  14.158
 2934SOL     OW10698   2.288  12.176   4.444
 2934SOL    HW110699   2.261  12.132   4.524
 2934SOL    HW210700   2.237  12.256   4.442
 2935SOL     OW10701   4.950   4.924  10.761
 2935SOL    HW110702   5.040   4.895  10.751
 2935SOL    HW210703   4.906   4.853  10.807
 2936SOL     OW10704   7.963   2.783  10.476
 2936SOL    HW110705   8.057   2.766  10.470
 2936SOL    HW210706   7.926   2.705  10.517
 2937SOL     OW10707   5.058  12.354  10.649
 2937SOL    HW110708   5.062  12.379  10.557
 2937SOL    HW210709   5.105  12.271  10.654
 2938SOL     OW10710   4.914   2.041   0.941
 2938SOL    HW110711   4.991   2.008   0.987
 2938SOL    HW210712   4.842   2.027   1.003
 2939SOL     OW10713   9.833   4.521   1.275
 2939SOL    HW110714   9.928   4.527   1.289
 2939SOL    HW210715   9.809   4.437   1.313
 2940SOL     OW10716  14.521   9.501   3.602
 2940SOL    HW110717  14.470   9.421   3.593
 2940SOL    HW210718  14.595   9.476   3.657
 2941SOL     OW10719  11.589  10.135  14.760
 2941SOL    HW110720  11.512  10.145  14.816
 2941SOL    HW210721  11.618  10.224  14.743
 2942SOL     OW10722   1.817   3.165   1.716
 2942SOL    HW110723   1.767   3.086   1.697
 2942SOL    HW210724   1.899   3.134   1.753
 2943SOL     OW10725  12.547   9.890  11.116
 2943SOL    HW110726  12.481   9.956  11.138
 2943SOL    HW210727  12.497   9.820  11.073
 2944SOL     OW10728   0.385   1.290  14.679
 2944SOL    HW110729   0.478   1.276  14.658
 2944SOL    HW210730   0.386   1.353  14.751
 2945SOL     OW10731   1.320   9.237   0.777
 2945SOL    HW110732   1.296   9.193   0.695
 2945SOL    HW210733   1.255   9.307   0.786
 2946SOL     OW10734   5.560  12.524   9.538
 2946SOL    HW110735   5.613  12.589   9.492
 2946SOL    HW210736   5.586  12.532   9.630
 2947SOL     OW10737   2.052   3.707   7.047
 2947SOL    HW110738   1.970   3.757   7.049
 2947SOL    HW210739   2.065   3.679   7.138
 2948SOL     OW10740  13.092   6.165   8.540
 2948SOL    HW110741  13.171   6.152   8.488
 2948SOL    HW210742  13.034   6.216   8.483
 2949SOL     OW10743  11.029   6.166   8.627
 2949SOL    HW110744  10.970   6.101   8.588
 2949SOL    HW210745  11.108   6.116   8.647
 2950SOL     OW10746   9.693   4.111   3.344
 2950SOL    HW110747   9.654   4.083   3.261
 2950SOL    HW210748   9.672   4.041   3.406
 2951SOL     OW10749  12.584   2.645  10.685
 2951SOL    HW110750  12.636   2.706  10.632
 2951SOL    HW210751  12.593   2.561  10.640
 2952SOL     OW10752   7.664  13.118  11.206
 2952SOL    HW110753   7.635  13.112  11.297
 2952SOL    HW210754   7.710  13.036  11.190
 2953SOL     OW10755   3.105  10.064   7.299
 2953SOL    HW110756   3.045  10.003   7.341
 2953SOL    HW210757   3.104  10.039   7.206
 2954SOL     OW10758   4.032   2.605   2.519
 2954SOL    HW110759   3.989   2.580   2.601
 2954SOL    HW210760   4.110   2.549   2.515
 2955SOL     OW10761  10.932   9.984   6.825
 2955SOL    HW110762  10.896   9.926   6.758
 2955SOL    HW210763  10.968   9.925   6.891
 2956SOL     OW10764   5.749   7.792   6.627
 2956SOL    HW110765   5.810   7.735   6.580
 2956SOL    HW210766   5.663   7.765   6.597
 2957SOL     OW10767   0.269   8.525   9.804
 2957SOL    HW110768   0.249   8.582   9.729
 2957SOL    HW210769   0.268   8.437   9.767
 2958SOL     OW10770   0.429   7.880   1.767
 2958SOL    HW110771   0.369   7.955   1.766
 2958SOL    HW210772   0.372   7.804   1.765
 2959SOL     OW10773   3.426   9.800   8.114
 2959SOL    HW110774   3.473   9.759   8.186
 2959SOL    HW210775   3.493   9.818   8.048
 2960SOL     OW10776   6.083  14.206  12.482
 2960SOL    HW110777   6.084  14.263  12.406
 2960SOL    HW210778   6.036  14.256  12.549
 2961SOL     OW10779   7.709  14.572   6.519
 2961SOL    HW110780   7.689  14.501   6.581
 2961SOL    HW210781   7.631  14.628   6.521
 2962SOL     OW10782   1.990  10.951   7.613
 2962SOL    HW110783   2.067  11.004   7.635
 2962SOL    HW210784   2.002  10.869   7.661
 2963SOL     OW10785   9.778  13.605  11.406
 2963SOL    HW110786   9.824  13.557  11.337
 2963SOL    HW210787   9.749  13.538  11.467
 2964SOL     OW10788   8.454   0.957   1.124
 2964SOL    HW110789   8.482   1.048   1.125
 2964SOL    HW210790   8.480   0.923   1.210
 2965SOL     OW10791   2.213   3.740   2.547
 2965SOL    HW110792   2.177   3.772   2.465
 2965SOL    HW210793   2.204   3.645   2.542
 2966SOL     OW10794   8.632   2.729  12.085
 2966SOL    HW110795   8.633   2.635  12.106
 2966SOL    HW210796   8.713   2.762  12.126
 2967SOL     OW10797   7.225   2.619   9.288
 2967SOL    HW110798   7.269   2.633   9.204
 2967SOL    HW210799   7.207   2.707   9.321
 2968SOL     OW10800   7.836  12.415  11.035
 2968SOL    HW110801   7.810  12.466  11.111
 2968SOL    HW210802   7.755  12.373  11.006
 2969SOL     OW10803   3.532   0.193   2.243
 2969SOL    HW110804   3.521   0.252   2.317
 2969SOL    HW210805   3.449   0.146   2.236
 2970SOL     OW10806   0.773   9.896  10.011
 2970SOL    HW110807   0.767   9.814   9.961
 2970SOL    HW210808   0.817   9.871  10.092
 2971SOL     OW10809  13.879   0.387  13.683
 2971SOL    HW110810  13.967   0.397  13.719
 2971SOL    HW210811  13.821   0.400  13.758
 2972SOL     OW10812  13.234   8.739   6.445
 2972SOL    HW110813  13.209   8.675   6.511
 2972SOL    HW210814  13.181   8.718   6.368
 2973SOL     OW10815   1.122   7.313   4.682
 2973SOL    HW110816   1.073   7.287   4.603
 2973SOL    HW210817   1.204   7.349   4.648
 2974SOL     OW10818   0.903   5.376  10.420
 2974SOL    HW110819   0.933   5.285  10.421
 2974SOL    HW210820   0.892   5.396  10.327
 2975SOL     OW10821   6.207  10.365  10.875
 2975SOL    HW110822   6.148  10.349  10.948
 2975SOL    HW210823   6.218  10.460  10.872
 2976SOL     OW10824   6.875   0.096  11.650
 2976SOL    HW110825   6.906   0.139  11.571
 2976SOL    HW210826   6.922   0.013  11.653
 2977SOL     OW10827   3.856  14.561   9.505
 2977SOL    HW110828   3.909  14.604   9.438
 2977SOL    HW210829   3.766  14.570   9.472
 2978SOL     OW10830  12.729  10.390   2.591
 2978SOL    HW110831  12.744  10.309   2.640
 2978SOL    HW210832  12.650  10.372   2.540
 2979SOL     OW10833   2.867   6.544   2.130
 2979SOL    HW110834   2.911   6.470   2.087
 2979SOL    HW210835   2.864   6.612   2.063
 2980SOL     OW10836   3.388  12.412   2.267
 2980SOL    HW110837   3.391  12.389   2.174
 2980SOL    HW210838   3.352  12.334   2.310
 2981SOL     OW10839  14.698   2.014   1.549
 2981SOL    HW110840  14.639   1.961   1.603
 2981SOL    HW210841  14.761   1.952   1.513
 2982SOL     OW10842   5.171   5.007   8.865
 2982SOL    HW110843   5.075   4.998   8.869
 2982SOL    HW210844   5.192   5.068   8.935
 2983SOL     OW10845  13.855   3.592   0.272
 2983SOL    HW110846  13.832   3.594   0.365
 2983SOL    HW210847  13.945   3.623   0.269
 2984SOL     OW10848   0.499  13.095  14.149
 2984SOL    HW110849   0.594  13.105  14.138
 2984SOL    HW210850   0.485  13.108  14.243
 2985SOL     OW10851  14.656   5.246   9.572
 2985SOL    HW110852  14.684   5.337   9.562
 2985SOL    HW210853  14.566   5.251   9.602
 2986SOL     OW10854  13.788  12.714   2.820
 2986SOL    HW110855  13.720  12.675   2.765
 2986SOL    HW210856  13.744  12.731   2.903
 2987SOL     OW10857   8.619   6.538   8.457
 2987SOL    HW110858   8.694   6.597   8.459
 2987SOL    HW210859   8.550   6.589   8.413
 2988SOL     OW10860   1.825  12.917   9.085
 2988SOL    HW110861   1.822  12.925   8.990
 2988SOL    HW210862   1.838  13.007   9.116
 2989SOL     OW10863   8.155  10.459  11.675
 2989SOL    HW110864   8.209  10.453  11.596
 2989SOL    HW210865   8.164  10.373  11.716
 2990SOL     OW10866   3.604   4.036  14.532
 2990SOL    HW110867   3.647   4.115  14.563
 2990SOL    HW210868   3.602   3.978  14.608
 2991SOL     OW10869   6.744   5.424   6.962
 2991SOL    HW110870   6.725   5.352   7.022
 2991SOL    HW210871   6.789   5.489   7.016
 2992SOL     OW10872  10.820   4.504   7.130
 2992SOL    HW110873  10.854   4.511   7.219
 2992SOL    HW210874  10.898   4.510   7.075
 2993SOL     OW10875   9.709   2.062  10.018
 2993SOL    HW110876   9.626   2.047   9.973
 2993SOL    HW210877   9.738   2.147   9.985
 2994SOL     OW10878  13.223   2.091  13.009
 2994SOL    HW110879  13.300   2.149  13.009
 2994SOL    HW210880  13.256   2.007  12.976
 2995SOL     OW10881   5.637  11.272   7.161
 2995SOL    HW110882   5.640  11.210   7.234
 2995SOL    HW210883   5.545  11.295   7.152
 2996SOL     OW10884  11.873   3.576  12.861
 2996SOL    HW110885  11.797   3.519  12.856
 2996SOL    HW210886  11.881   3.598  12.954
 2997SOL     OW10887  14.828   8.453   2.655
 2997SOL    HW110888  14.780   8.471   2.575
 2997SOL    HW210889  14.762   8.422   2.717
 2998SOL     OW10890   9.887   6.418   5.282
 2998SOL    HW110891   9.795   6.400   5.305
 2998SOL    HW210892   9.882   6.456   5.194
 2999SOL     OW10893   4.948   1.158  11.108
 2999SOL    HW110894   4.930   1.240  11.153
 2999SOL    HW210895   4.899   1.165  11.026
 3000SOL     OW10896   7.967   8.362   4.418
 3000SOL    HW110897   7.932   8.334   4.334
 3000SOL    HW210898   8.062   8.363   4.406
 3001SOL     OW10899   5.425  13.024   2.014
 3001SOL    HW110900   5.392  12.974   1.939
 3001SOL    HW210901   5.477  12.961   2.064
 3002SOL     OW10902   0.788  13.779   1.422
 3002SOL    HW110903   0.786  13.824   1.506
 3002SOL    HW210904   0.776  13.849   1.357
 3003SOL     OW10905   4.960   4.405   0.500
 3003SOL    HW110906   4.997   4.473   0.558
 3003SOL    HW210907   5.011   4.412   0.420
 3004SOL     OW10908   9.686  13.713   4.387
 3004SOL    HW110909   9.753  13.776   4.361
 3004SOL    HW210910   9.735  13.645   4.435
 3005SOL     OW10911   7.001   8.812   6.834
 3005SOL    HW110912   6.960   8.846   6.754
 3005SOL    HW210913   6.935   8.823   6.902
 3006SOL     OW10914  10.326   4.048   6.373
 3006SOL    HW110915  10.249   4.081   6.420
 3006SOL    HW210916  10.395   4.048   6.439
 3007SOL     OW10917   3.674  11.817  13.148
 3007SOL    HW110918   3.719  11.801  13.064
 3007SOL    HW210919   3.667  11.912  13.153
 3008SOL     OW10920   1.103  11.885  11.613
 3008SOL    HW110921   1.079  11.949  11.681
 3008SOL    HW210922   1.194  11.862  11.634
 3009SOL     OW10923   6.029   7.243  11.737
 3009SOL    HW110924   6.004   7.220  11.826
 3009SOL    HW210925   6.124   7.254  11.741
 3010SOL     OW10926  12.970   5.733   4.658
 3010SOL    HW110927  13.033   5.804   4.674
 3010SOL    HW210928  13.018   5.653   4.680
 3011SOL     OW10929   9.056   8.091   0.845
 3011SOL    HW110930   9.131   8.095   0.905
 3011SOL    HW210931   9.076   8.156   0.778
 3012SOL     OW10932   1.920   2.482  10.330
 3012SOL    HW110933   1.879   2.524  10.255
 3012SOL    HW210934   1.925   2.551  10.396
 3013SOL     OW10935   0.053   3.639   5.193
 3013SOL    HW110936   0.022   3.688   5.269
 3013SOL    HW210937   0.066   3.550   5.225
 3014SOL     OW10938   3.867   3.173  13.623
 3014SOL    HW110939   3.803   3.243  13.611
 3014SOL    HW210940   3.857   3.148  13.715
 3015SOL     OW10941  12.753   0.904   3.985
 3015SOL    HW110942  12.841   0.932   4.009
 3015SOL    HW210943  12.759   0.887   3.891
 3016SOL     OW10944  13.983   0.870   6.283
 3016SOL    HW110945  13.934   0.806   6.231
 3016SOL    HW210946  14.073   0.863   6.252
 3017SOL     OW10947  11.692   2.122   3.194
 3017SOL    HW110948  11.712   2.079   3.277
 3017SOL    HW210949  11.778   2.147   3.158
 3018SOL     OW10950  10.451  13.620   8.183
 3018SOL    HW110951  10.542  13.601   8.206
 3018SOL    HW210952  10.419  13.539   8.142
 3019SOL     OW10953   7.005   3.659   1.167
 3019SOL    HW110954   7.005   3.636   1.074
 3019SOL    HW210955   7.069   3.598   1.206
 3020SOL     OW10956  10.920   4.229  14.310
 3020SOL    HW110957  10.895   4.141  14.281
 3020SOL    HW210958  10.885   4.236  14.399
 3021SOL     OW10959   0.449  11.218  13.676
 3021SOL    HW110960   0.423  11.162  13.749
 3021SOL    HW210961   0.544  11.206  13.670
 3022SOL     OW10962   7.268  14.113   8.202
 3022SOL    HW110963   7.320  14.121   8.283
 3022SOL    HW210964   7.212  14.191   8.203
 3023SOL     OW10965  10.195  12.413   9.068
 3023SOL    HW110966  10.103  12.410   9.098
 3023SOL    HW210967  10.213  12.323   9.040
 3024SOL     OW10968  13.388  11.602   3.435
 3024SOL    HW110969  13.442  11.665   3.388
 3024SOL    HW210970  13.379  11.528   3.374
 3025SOL     OW10971  11.317  12.075   3.437
 3025SOL    HW110972  11.304  11.980   3.438
 3025SOL    HW210973  11.229  12.111   3.451
 3026SOL     OW10974   7.161   1.602   9.441
 3026SOL    HW110975   7.101   1.545   9.489
 3026SOL    HW210976   7.213   1.543   9.387
 3027SOL     OW10977   9.014   3.160  13.406
 3027SOL    HW110978   9.097   3.117  13.384
 3027SOL    HW210979   8.980   3.191  13.322
 3028SOL     OW10980   9.144   9.692   6.592
 3028SOL    HW110981   9.092   9.711   6.671
 3028SOL    HW210982   9.187   9.609   6.611
 3029SOL     OW10983   9.066   3.884   8.413
 3029SOL    HW110984   9.121   3.921   8.483
 3029SOL    HW210985   9.003   3.953   8.393
 3030SOL     OW10986   4.099   3.083   1.418
 3030SOL    HW110987   4.108   3.178   1.429
 3030SOL    HW210988   4.018   3.061   1.464
 3031SOL     OW10989   8.180   3.256   0.601
 3031SOL    HW110990   8.234   3.177   0.601
 3031SOL    HW210991   8.240   3.327   0.580
 3032SOL     OW10992  12.001   8.542   8.521
 3032SOL    HW110993  12.020   8.454   8.555
 3032SOL    HW210994  12.087   8.577   8.497
 3033SOL     OW10995   0.701   3.423   2.700
 3033SOL    HW110996   0.728   3.514   2.694
 3033SOL    HW210997   0.683   3.397   2.610
 3034SOL     OW10998   9.101   7.182   2.964
 3034SOL    HW110999   9.017   7.146   2.936
 3034SOL    HW211000   9.132   7.122   3.032
 3035SOL     OW11001   4.705  12.363  10.066
 3035SOL    HW111002   4.665  12.346   9.981
 3035SOL    HW211003   4.799  12.351  10.050
 3036SOL     OW11004  12.184  12.316  11.532
 3036SOL    HW111005  12.129  12.274  11.598
 3036SOL    HW211006  12.123  12.341  11.462
 3037SOL     OW11007   1.309  11.524  11.758
 3037SOL    HW111008   1.262  11.462  11.813
 3037SOL    HW211009   1.401  11.502  11.771
 3038SOL     OW11010   7.839   2.016   3.269
 3038SOL    HW111011   7.866   2.086   3.209
 3038SOL    HW211012   7.794   2.061   3.340
 3039SOL     OW11013  10.565   2.227   3.016
 3039SOL    HW111014  10.556   2.133   3.032
 3039SOL    HW211015  10.645   2.235   2.964
 3040SOL     OW11016   5.771   9.155   6.364
 3040SOL    HW111017   5.866   9.145   6.373
 3040SOL    HW211018   5.736   9.111   6.442
 3041SOL     OW11019   3.199  10.286   3.575
 3041SOL    HW111020   3.110  10.292   3.540
 3041SOL    HW211021   3.235  10.375   3.564
 3042SOL     OW11022   3.646   3.855   2.511
 3042SOL    HW111023   3.611   3.836   2.424
 3042SOL    HW211024   3.672   3.947   2.507
 3043SOL     OW11025   6.528   1.230   5.953
 3043SOL    HW111026   6.596   1.195   5.895
 3043SOL    HW211027   6.460   1.261   5.894
 3044SOL     OW11028   8.792  12.134   7.947
 3044SOL    HW111029   8.874  12.127   7.898
 3044SOL    HW211030   8.790  12.224   7.978
 3045SOL     OW11031   9.466   4.550   3.376
 3045SOL    HW111032   9.431   4.474   3.330
 3045SOL    HW211033   9.556   4.525   3.398
 3046SOL     OW11034   0.080  12.410  10.654
 3046SOL    HW111035   0.170  12.426  10.624
 3046SOL    HW211036   0.091  12.368  10.739
 3047SOL     OW11037  12.700  12.373   9.455
 3047SOL    HW111038  12.692  12.445   9.518
 3047SOL    HW211039  12.743  12.412   9.379
 3048SOL     OW11040   5.924  11.067   2.574
 3048SOL    HW111041   5.855  11.033   2.631
 3048SOL    HW211042   5.966  11.136   2.625
 3049SOL     OW11043   0.057   7.310  14.299
 3049SOL    HW111044   0.071   7.286  14.207
 3049SOL    HW211045   0.104   7.392  14.311
 3050SOL     OW11046  10.521   6.971  14.061
 3050SOL    HW111047  10.561   7.029  13.996
 3050SOL    HW211048  10.539   6.883  14.030
 3051SOL     OW11049  10.410   9.990  12.348
 3051SOL    HW111050  10.461  10.056  12.396
 3051SOL    HW211051  10.402  10.026  12.260
 3052SOL     OW11052   6.320   6.388  12.449
 3052SOL    HW111053   6.310   6.326  12.378
 3052SOL    HW211054   6.317   6.335  12.529
 3053SOL     OW11055   4.977   9.871   7.716
 3053SOL    HW111056   4.957   9.781   7.740
 3053SOL    HW211057   4.912   9.923   7.763
 3054SOL     OW11058  13.427   7.321  11.978
 3054SOL    HW111059  13.359   7.342  11.913
 3054SOL    HW211060  13.508   7.320  11.928
 3055SOL     OW11061   9.247   3.694   1.925
 3055SOL    HW111062   9.205   3.736   1.850
 3055SOL    HW211063   9.317   3.754   1.950
 3056SOL     OW11064   9.698   8.909   3.892
 3056SOL    HW111065   9.793   8.904   3.904
 3056SOL    HW211066   9.668   8.819   3.900
 3057SOL     OW11067  12.274   4.311  11.034
 3057SOL    HW111068  12.345   4.253  11.062
 3057SOL    HW211069  12.318   4.387  10.996
 3058SOL     OW11070   4.747  10.081   1.452
 3058SOL    HW111071   4.788  10.090   1.367
 3058SOL    HW211072   4.722  10.170   1.477
 3059SOL     OW11073  10.389   5.553  13.028
 3059SOL    HW111074  10.372   5.522  13.117
 3059SOL    HW211075  10.348   5.486  12.972
 3060SOL     OW11076  13.491   4.606  14.655
 3060SOL    HW111077  13.583   4.632  14.647
 3060SOL    HW211078  13.478   4.543  14.584
 3061SOL     OW11079   9.974   1.084   0.592
 3061SOL    HW111080   9.986   1.061   0.500
 3061SOL    HW211081  10.008   1.174   0.598
 3062SOL     OW11082  13.492   6.988   1.621
 3062SOL    HW111083  13.466   7.076   1.592
 3062SOL    HW211084  13.574   7.002   1.669
 3063SOL     OW11085   2.352  14.095  11.466
 3063SOL    HW111086   2.378  14.019  11.518
 3063SOL    HW211087   2.265  14.118  11.498
 3064SOL     OW11088  11.461   4.237   2.184
 3064SOL    HW111089  11.390   4.266   2.126
 3064SOL    HW211090  11.464   4.142   2.171
 3065SOL     OW11091   5.129   1.249   8.180
 3065SOL    HW111092   5.140   1.344   8.174
 3065SOL    HW211093   5.097   1.224   8.093
 3066SOL     OW11094  13.841  10.499  10.703
 3066SOL    HW111095  13.773  10.478  10.767
 3066SOL    HW211096  13.821  10.588  10.675
 3067SOL     OW11097  14.575   9.150  12.645
 3067SOL    HW111098  14.648   9.182  12.592
 3067SOL    HW211099  14.563   9.218  12.711
 3068SOL     OW11100   7.806   5.050   1.061
 3068SOL    HW111101   7.748   5.126   1.050
 3068SOL    HW211102   7.761   4.996   1.126
 3069SOL     OW11103   0.108  12.173   0.491
 3069SOL    HW111104   0.016  12.162   0.468
 3069SOL    HW211105   0.108  12.193   0.584
 3070SOL     OW11106   7.237   7.581   8.880
 3070SOL    HW111107   7.175   7.654   8.887
 3070SOL    HW211108   7.275   7.573   8.967
 3071SOL     OW11109  14.440   0.779  13.862
 3071SOL    HW111110  14.438   0.846  13.794
 3071SOL    HW211111  14.489   0.707  13.823
 3072SOL     OW11112   6.535  12.523   3.298
 3072SOL    HW111113   6.626  12.515   3.327
 3072SOL    HW211114   6.541  12.547   3.205
 3073SOL     OW11115  11.263   5.568  11.463
 3073SOL    HW111116  11.229   5.488  11.504
 3073SOL    HW211117  11.355   5.572  11.491
 3074SOL     OW11118   6.969   9.259   6.771
 3074SOL    HW111119   6.941   9.258   6.679
 3074SOL    HW211120   6.887   9.265   6.820
 3075SOL     OW11121   4.726  12.437   4.527
 3075SOL    HW111122   4.742  12.525   4.561
 3075SOL    HW211123   4.781  12.432   4.449
 3076SOL     OW11124   4.433   8.849   9.117
 3076SOL    HW111125   4.453   8.833   9.209
 3076SOL    HW211126   4.350   8.804   9.102
 3077SOL     OW11127  13.231  12.297   9.649
 3077SOL    HW111128  13.209  12.210   9.616
 3077SOL    HW211129  13.269  12.342   9.573
 3078SOL     OW11130   6.000   7.413   9.245
 3078SOL    HW111131   5.983   7.355   9.320
 3078SOL    HW211132   6.084   7.454   9.266
 3079SOL     OW11133  13.227   5.835  10.998
 3079SOL    HW111134  13.293   5.903  10.989
 3079SOL    HW211135  13.144   5.879  10.977
 3080SOL     OW11136   6.784  12.442   4.544
 3080SOL    HW111137   6.766  12.532   4.515
 3080SOL    HW211138   6.871  12.423   4.508
 3081SOL     OW11139   0.048   1.031   7.372
 3081SOL    HW111140   0.008   1.108   7.330
 3081SOL    HW211141   0.034   1.045   7.465
 3082SOL     OW11142   1.963  10.557  11.258
 3082SOL    HW111143   1.922  10.472  11.274
 3082SOL    HW211144   2.000  10.549  11.169
 3083SOL     OW11145  10.292   1.988   6.510
 3083SOL    HW111146  10.242   1.907   6.498
 3083SOL    HW211147  10.359   1.964   6.575
 3084SOL     OW11148  12.360   9.298   6.228
 3084SOL    HW111149  12.436   9.299   6.286
 3084SOL    HW211150  12.359   9.209   6.193
 3085SOL     OW11151   6.807   1.204   9.853
 3085SOL    HW111152   6.861   1.267   9.902
 3085SOL    HW211153   6.789   1.134   9.915
 3086SOL     OW11154  12.005  13.743   6.669
 3086SOL    HW111155  12.024  13.671   6.608
 3086SOL    HW211156  12.091  13.778   6.692
 3087SOL     OW11157   1.661  11.159   4.192
 3087SOL    HW111158   1.664  11.100   4.117
 3087SOL    HW211159   1.659  11.102   4.268
 3088SOL     OW11160   5.789   7.410   1.049
 3088SOL    HW111161   5.832   7.422   1.133
 3088SOL    HW211162   5.780   7.498   1.014
 3089SOL     OW11163   0.521   6.754   3.466
 3089SOL    HW111164   0.438   6.761   3.420
 3089SOL    HW211165   0.585   6.731   3.399
 3090SOL     OW11166  11.018  12.323   7.065
 3090SOL    HW111167  10.924  12.325   7.082
 3090SOL    HW211168  11.026  12.352   6.974
 3091SOL     OW11169   2.105   6.655   9.691
 3091SOL    HW111170   2.172   6.597   9.727
 3091SOL    HW211171   2.151   6.737   9.674
 3092SOL     OW11172  11.352  10.505  13.127
 3092SOL    HW111173  11.329  10.553  13.047
 3092SOL    HW211174  11.435  10.543  13.155
 3093SOL     OW11175  13.973   4.175   2.066
 3093SOL    HW111176  13.922   4.244   2.023
 3093SOL    HW211177  13.992   4.209   2.153
 3094SOL     OW11178  14.637   6.814   1.707
 3094SOL    HW111179  14.687   6.758   1.766
 3094SOL    HW211180  14.703   6.855   1.650
 3095SOL     OW11181   5.410   7.581  10.239
 3095SOL    HW111182   5.395   7.596  10.332
 3095SOL    HW211183   5.328   7.606  10.197
 3096SOL     OW11184   2.059  13.377   2.236
 3096SOL    HW111185   2.098  13.319   2.171
 3096SOL    HW211186   1.967  13.385   2.211
 3097SOL     OW11187   7.552   2.826  13.914
 3097SOL    HW111188   7.490   2.821  13.842
 3097SOL    HW211189   7.508   2.880  13.980
 3098SOL     OW11190  14.728   9.832   5.317
 3098SOL    HW111191  14.671   9.755   5.312
 3098SOL    HW211192  14.672   9.901   5.352
 3099SOL     OW11193  12.412  10.294   0.179
 3099SOL    HW111194  12.391  10.383   0.152
 3099SOL    HW211195  12.328  10.248   0.179
 3100SOL     OW11196   4.410   8.230  10.290
 3100SOL    HW111197   4.372   8.292  10.353
 3100SOL    HW211198   4.349   8.157  10.289
 3101SOL     OW11199   0.959   7.709  14.419
 3101SOL    HW111200   0.900   7.757  14.477
 3101SOL    HW211201   0.995   7.776  14.361
 3102SOL     OW11202   0.604  12.065   1.796
 3102SOL    HW111203   0.674  12.128   1.777
 3102SOL    HW211204   0.625  12.032   1.884
 3103SOL     OW11205   0.386   2.408   0.053
 3103SOL    HW111206   0.478   2.388   0.033
 3103SOL    HW211207   0.367   2.357   0.132
 3104SOL     OW11208  10.650   8.553  12.099
 3104SOL    HW111209  10.676   8.545  12.191
 3104SOL    HW211210  10.639   8.463  12.069
 3105SOL     OW11211   4.270  11.837  10.657
 3105SOL    HW111212   4.339  11.780  10.622
 3105SOL    HW211213   4.266  11.911  10.596
 3106SOL     OW11214   1.193  14.624   0.239
 3106SOL    HW111215   1.266  14.684   0.225
 3106SOL    HW211216   1.155  14.611   0.152
 3107SOL     OW11217  10.631   1.252   1.483
 3107SOL    HW111218  10.709   1.214   1.523
 3107SOL    HW211219  10.561   1.235   1.547
 3108SOL     OW11220   7.544   2.838  11.838
 3108SOL    HW111221   7.552   2.837  11.933
 3108SOL    HW211222   7.631   2.811  11.807
 3109SOL     OW11223   1.343  14.717   2.055
 3109SOL    HW111224   1.400  14.721   2.131
 3109SOL    HW211225   1.355  14.628   2.021
 3110SOL     OW11226   6.663   7.746  12.157
 3110SOL    HW111227   6.704   7.830  12.141
 3110SOL    HW211228   6.724   7.699  12.214
 3111SOL     OW11229   8.993   7.839   1.406
 3111SOL    HW111230   9.037   7.805   1.329
 3111SOL    HW211231   8.937   7.909   1.373
 3112SOL     OW11232   2.447   1.209  14.695
 3112SOL    HW111233   2.404   1.131  14.658
 3112SOL    HW211234   2.419   1.210  14.786
 3113SOL     OW11235   5.310   9.785   5.306
 3113SOL    HW111236   5.287   9.813   5.395
 3113SOL    HW211237   5.391   9.832   5.286
 3114SOL     OW11238  11.860  12.558   2.749
 3114SOL    HW111239  11.930  12.615   2.781
 3114SOL    HW211240  11.870  12.478   2.800
 3115SOL     OW11241   0.903   1.969  11.477
 3115SOL    HW111242   0.987   1.925  11.486
 3115SOL    HW211243   0.924   2.055  11.440
 3116SOL     OW11244   8.024   7.275   2.155
 3116SOL    HW111245   8.073   7.236   2.227
 3116SOL    HW211246   8.064   7.239   2.076
 3117SOL     OW11247   4.217   9.044   8.443
 3117SOL    HW111248   4.136   9.060   8.492
 3117SOL    HW211249   4.187   9.015   8.357
 3118SOL     OW11250   3.089  13.340  12.660
 3118SOL    HW111251   3.131  13.403  12.602
 3118SOL    HW211252   3.149  13.331  12.734
 3119SOL     OW11253   0.243   0.309   8.611
 3119SOL    HW111254   0.214   0.380   8.668
 3119SOL    HW211255   0.166   0.285   8.560
 3120SOL     OW11256  11.633   0.789  13.341
 3120SOL    HW111257  11.572   0.851  13.302
 3120SOL    HW211258  11.597   0.703  13.320
 3121SOL     OW11259  10.282  11.827   9.922
 3121SOL    HW111260  10.291  11.817   9.827
 3121SOL    HW211261  10.332  11.907   9.942
 3122SOL     OW11262   0.782   5.673   0.877
 3122SOL    HW111263   0.840   5.748   0.888
 3122SOL    HW211264   0.814   5.627   0.799
 3123SOL     OW11265   3.771   7.490   0.253
 3123SOL    HW111266   3.821   7.441   0.188
 3123SOL    HW211267   3.821   7.570   0.266
 3124SOL     OW11268  13.024  10.251   4.572
 3124SOL    HW111269  12.948  10.209   4.612
 3124SOL    HW211270  12.987  10.305   4.502
 3125SOL     OW11271   9.826   8.943  10.173
 3125SOL    HW111272   9.877   8.909  10.246
 3125SOL    HW211273   9.876   8.919  10.095
 3126SOL     OW11274  13.380   4.898  12.932
 3126SOL    HW111275  13.315   4.829  12.923
 3126SOL    HW211276  13.329   4.978  12.941
 3127SOL     OW11277  10.767   5.695   9.549
 3127SOL    HW111278  10.748   5.746   9.471
 3127SOL    HW211279  10.839   5.742   9.591
 3128SOL     OW11280   8.982   3.359   4.355
 3128SOL    HW111281   9.052   3.293   4.355
 3128SOL    HW211282   8.984   3.396   4.267
 3129SOL     OW11283   7.471   5.773   2.319
 3129SOL    HW111284   7.457   5.708   2.250
 3129SOL    HW211285   7.515   5.845   2.275
 3130SOL     OW11286   3.759  12.055   7.524
 3130SOL    HW111287   3.827  12.064   7.458
 3130SOL    HW211288   3.677  12.055   7.475
 3131SOL     OW11289   6.128   9.669  14.610
 3131SOL    HW111290   6.055   9.619  14.573
 3131SOL    HW211291   6.191   9.676  14.539
 3132SOL     OW11292   3.559   7.589   4.900
 3132SOL    HW111293   3.621   7.547   4.841
 3132SOL    HW211294   3.510   7.650   4.844
 3133SOL     OW11295   1.157  10.240  10.967
 3133SOL    HW111296   1.103  10.305  10.922
 3133SOL    HW211297   1.238  10.237  10.916
 3134SOL     OW11298   2.061   6.025   9.602
 3134SOL    HW111299   2.065   6.089   9.531
 3134SOL    HW211300   2.119   5.954   9.575
 3135SOL     OW11301   2.805   9.262   1.719
 3135SOL    HW111302   2.794   9.257   1.624
 3135SOL    HW211303   2.726   9.220   1.754
 3136SOL     OW11304   8.216   4.348   8.128
 3136SOL    HW111305   8.249   4.432   8.159
 3136SOL    HW211306   8.120   4.357   8.130
 3137SOL     OW11307   0.948   7.723   2.147
 3137SOL    HW111308   0.932   7.718   2.241
 3137SOL    HW211309   1.008   7.650   2.129
 3138SOL     OW11310   7.352   4.748   4.215
 3138SOL    HW111311   7.404   4.705   4.283
 3138SOL    HW211312   7.334   4.679   4.151
 3139SOL     OW11313   9.943   2.310   1.989
 3139SOL    HW111314   9.954   2.404   1.977
 3139SOL    HW211315   9.982   2.292   2.075
 3140SOL     OW11316  12.560  12.693  10.088
 3140SOL    HW111317  12.604  12.690  10.004
 3140SOL    HW211318  12.618  12.746  10.144
 3141SOL     OW11319   2.929   4.449  13.275
 3141SOL    HW111320   2.911   4.379  13.212
 3141SOL    HW211321   2.869   4.520  13.251
 3142SOL     OW11322  13.139  12.108   1.355
 3142SOL    HW111323  13.218  12.106   1.410
 3142SOL    HW211324  13.163  12.163   1.280
 3143SOL     OW11325  10.711   4.700   0.281
 3143SOL    HW111326  10.649   4.665   0.216
 3143SOL    HW211327  10.737   4.623   0.332
 3144SOL     OW11328   6.836  10.457   3.408
 3144SOL    HW111329   6.896  10.401   3.459
 3144SOL    HW211330   6.756  10.405   3.401
 3145SOL     OW11331   5.299   4.649   2.134
 3145SOL    HW111332   5.392   4.672   2.134
 3145SOL    HW211333   5.283   4.613   2.046
 3146SOL     OW11334   6.949  10.654  12.621
 3146SOL    HW111335   7.037  10.617  12.630
 3146SOL    HW211336   6.953  10.737  12.668
 3147SOL     OW11337   5.984  11.574   7.458
 3147SOL    HW111338   6.025  11.489   7.445
 3147SOL    HW211339   6.037  11.617   7.525
 3148SOL     OW11340  11.774   4.970  10.792
 3148SOL    HW111341  11.752   4.888  10.747
 3148SOL    HW211342  11.690   5.005  10.820
 3149SOL     OW11343   5.316   3.273   6.265
 3149SOL    HW111344   5.278   3.360   6.251
 3149SOL    HW211345   5.244   3.221   6.300
 3150SOL     OW11346  13.747   6.735   9.487
 3150SOL    HW111347  13.695   6.688   9.422
 3150SOL    HW211348  13.824   6.679   9.500
 3151SOL     OW11349   8.127   3.431  11.050
 3151SOL    HW111350   8.071   3.356  11.035
 3151SOL    HW211351   8.180   3.407  11.127
 3152SOL     OW11352   6.097  13.366  14.458
 3152SOL    HW111353   6.106  13.294  14.520
 3152SOL    HW211354   6.108  13.445  14.510
 3153SOL     OW11355   5.177   1.514   8.134
 3153SOL    HW111356   5.260   1.553   8.107
 3153SOL    HW211357   5.160   1.552   8.220
 3154SOL     OW11358   5.708   2.365   5.516
 3154SOL    HW111359   5.790   2.373   5.468
 3154SOL    HW211360   5.730   2.313   5.594
 3155SOL     OW11361   9.358   0.154   2.707
 3155SOL    HW111362   9.275   0.185   2.671
 3155SOL    HW211363   9.344   0.151   2.801
 3156SOL     OW11364   9.471   4.043   3.566
 3156SOL    HW111365   9.383   4.022   3.598
 3156SOL    HW211366   9.487   4.132   3.597
 3157SOL     OW11367   4.087  13.905   4.114
 3157SOL    HW111368   4.098  13.995   4.146
 3157SOL    HW211369   4.048  13.858   4.187
 3158SOL     OW11370   6.446   6.831  10.350
 3158SOL    HW111371   6.500   6.896  10.305
 3158SOL    HW211372   6.414   6.775  10.279
 3159SOL     OW11373   3.458  11.725   0.199
 3159SOL    HW111374   3.542  11.713   0.244
 3159SOL    HW211375   3.411  11.789   0.252
 3160SOL     OW11376   7.030   3.258   4.213
 3160SOL    HW111377   7.026   3.225   4.124
 3160SOL    HW211378   6.946   3.233   4.252
 3161SOL     OW11379   1.731   6.562   2.122
 3161SOL    HW111380   1.726   6.655   2.097
 3161SOL    HW211381   1.659   6.521   2.073
 3162SOL     OW11382   2.013   3.705   4.072
 3162SOL    HW111383   1.994   3.743   3.986
 3162SOL    HW211384   2.073   3.632   4.053
 3163SOL     OW11385   8.475   7.646   3.996
 3163SOL    HW111386   8.551   7.688   4.036
 3163SOL    HW211387   8.467   7.563   4.042
 3164SOL     OW11388  11.488   7.061   5.401
 3164SOL    HW111389  11.547   7.104   5.463
 3164SOL    HW211390  11.545   7.032   5.329
 3165SOL     OW11391   1.004   3.274   6.419
 3165SOL    HW111392   1.071   3.335   6.387
 3165SOL    HW211393   1.031   3.189   6.383
 3166SOL     OW11394   4.103   7.082   8.928
 3166SOL    HW111395   4.129   7.021   8.860
 3166SOL    HW211396   4.008   7.075   8.933
 3167SOL     OW11397   0.564   2.187   5.056
 3167SOL    HW111398   0.503   2.259   5.037
 3167SOL    HW211399   0.649   2.229   5.065
 3168SOL     OW11400   8.283   9.989  12.459
 3168SOL    HW111401   8.204  10.022  12.502
 3168SOL    HW211402   8.284  10.032  12.373
 3169SOL     OW11403   4.065  13.266  13.015
 3169SOL    HW111404   4.139  13.236  12.962
 3169SOL    HW211405   4.104  13.288  13.100
 3170SOL     OW11406   1.391   9.131   1.008
 3170SOL    HW111407   1.479   9.164   1.028
 3170SOL    HW211408   1.365   9.177   0.928
 3171SOL     OW11409   4.728   2.163   8.657
 3171SOL    HW111410   4.639   2.131   8.641
 3171SOL    HW211411   4.717   2.228   8.726
 3172SOL     OW11412  11.707   2.603   4.681
 3172SOL    HW111413  11.674   2.523   4.721
 3172SOL    HW211414  11.798   2.583   4.658
 3173SOL     OW11415   9.108   9.834  14.425
 3173SOL    HW111416   9.200   9.826  14.446
 3173SOL    HW211417   9.101   9.804  14.334
 3174SOL     OW11418   5.550   1.401  14.139
 3174SOL    HW111419   5.572   1.475  14.083
 3174SOL    HW211420   5.630   1.383  14.188
 3175SOL     OW11421   9.120   4.947   2.467
 3175SOL    HW111422   9.090   5.004   2.396
 3175SOL    HW211423   9.117   5.001   2.545
 3176SOL     OW11424  11.270   0.252   2.305
 3176SOL    HW111425  11.222   0.243   2.222
 3176SOL    HW211426  11.210   0.297   2.363
 3177SOL     OW11427   0.705   3.719   9.374
 3177SOL    HW111428   0.693   3.811   9.400
 3177SOL    HW211429   0.783   3.691   9.421
 3178SOL     OW11430   1.826   3.619   5.165
 3178SOL    HW111431   1.852   3.571   5.243
 3178SOL    HW211432   1.848   3.560   5.092
 3179SOL     OW11433   6.471   2.506   0.260
 3179SOL    HW111434   6.499   2.436   0.201
 3179SOL    HW211435   6.382   2.527   0.232
 3180SOL     OW11436   2.703  13.055   0.325
 3180SOL    HW111437   2.628  13.002   0.352
 3180SOL    HW211438   2.666  13.141   0.307
 3181SOL     OW11439   9.351  13.466   0.054
 3181SOL    HW111440   9.413  13.489  14.863
 3181SOL    HW211441   9.274  13.433   0.007
 3182SOL     OW11442  11.119   7.908  12.915
 3182SOL    HW111443  11.053   7.973  12.938
 3182SOL    HW211444  11.094   7.880  12.826
 3183SOL     OW11445   4.588  12.474  13.193
 3183SOL    HW111446   4.512  12.442  13.144
 3183SOL    HW211447   4.588  12.424  13.274
 3184SOL     OW11448   6.391   9.789  14.408
 3184SOL    HW111449   6.404   9.747  14.323
 3184SOL    HW211450   6.345   9.870  14.388
 3185SOL     OW11451  10.758  10.285   4.284
 3185SOL    HW111452  10.668  10.273   4.312
 3185SOL    HW211453  10.809  10.223   4.338
 3186SOL     OW11454  14.682   9.579   2.526
 3186SOL    HW111455  14.591   9.549   2.523
 3186SOL    HW211456  14.690   9.638   2.451
 3187SOL     OW11457   5.603   9.484   1.957
 3187SOL    HW111458   5.603   9.399   1.913
 3187SOL    HW211459   5.525   9.484   2.012
 3188SOL     OW11460   4.038   4.816   8.835
 3188SOL    HW111461   3.985   4.745   8.871
 3188SOL    HW211462   3.988   4.847   8.759
 3189SOL     OW11463  11.828   7.240  12.240
 3189SOL    HW111464  11.764   7.311  12.242
 3189SOL    HW211465  11.911   7.283  12.220
 3190SOL     OW11466  10.056  14.641   1.695
 3190SOL    HW111467  10.085  14.676   1.611
 3190SOL    HW211468   9.976  14.689   1.715
 3191SOL     OW11469   3.983  14.031   2.304
 3191SOL    HW111470   3.896  14.065   2.281
 3191SOL    HW211471   3.980  13.939   2.278
 3192SOL     OW11472   3.096  14.003   4.926
 3192SOL    HW111473   3.024  14.067   4.926
 3192SOL    HW211474   3.110  13.984   5.019
 3193SOL     OW11475  11.114   5.049  12.555
 3193SOL    HW111476  11.190   5.094  12.592
 3193SOL    HW211477  11.058   5.119  12.522
 3194SOL     OW11478   9.960   4.271   2.603
 3194SOL    HW111479   9.997   4.183   2.600
 3194SOL    HW211480   9.883   4.262   2.659
 3195SOL     OW11481   5.992   2.133   1.294
 3195SOL    HW111482   6.001   2.178   1.210
 3195SOL    HW211483   6.053   2.179   1.352
 3196SOL     OW11484   9.063   0.633   2.632
 3196SOL    HW111485   9.153   0.656   2.656
 3196SOL    HW211486   9.034   0.705   2.576
 3197SOL     OW11487   1.425   6.033   5.471
 3197SOL    HW111488   1.520   6.030   5.480
 3197SOL    HW211489   1.398   6.112   5.517
 3198SOL     OW11490  11.019   4.059   4.059
 3198SOL    HW111491  11.099   4.081   4.011
 3198SOL    HW211492  10.969   4.140   4.061
 3199SOL     OW11493   9.454   4.604   2.879
 3199SOL    HW111494   9.419   4.603   2.789
 3199SOL    HW211495   9.380   4.576   2.933
 3200SOL     OW11496   5.529  12.549  10.714
 3200SOL    HW111497   5.465  12.487  10.748
 3200SOL    HW211498   5.598  12.494  10.678
 3201SOL     OW11499   2.294   3.612  14.352
 3201SOL    HW111500   2.376   3.661  14.339
 3201SOL    HW211501   2.238   3.672  14.401
 3202SOL     OW11502   5.628   7.083   1.280
 3202SOL    HW111503   5.587   7.120   1.359
 3202SOL    HW211504   5.666   7.000   1.310
 3203SOL     OW11505   2.649   1.777  10.536
 3203SOL    HW111506   2.654   1.840  10.463
 3203SOL    HW211507   2.616   1.697  10.496
 3204SOL     OW11508  12.622   1.265  12.319
 3204SOL    HW111509  12.707   1.221  12.324
 3204SOL    HW211510  12.580   1.246  12.403
 3205SOL     OW11511   2.920   5.625   7.902
 3205SOL    HW111512   2.951   5.644   7.814
 3205SOL    HW211513   2.967   5.545   7.927
 3206SOL     OW11514   6.999   1.905   4.383
 3206SOL    HW111515   6.950   1.925   4.303
 3206SOL    HW211516   6.932   1.893   4.450
 3207SOL     OW11517  10.014   9.308  12.970
 3207SOL    HW111518   9.944   9.250  12.939
 3207SOL    HW211519  10.071   9.320  12.893
 3208SOL     OW11520   0.562   8.967   5.046
 3208SOL    HW111521   0.626   8.931   4.984
 3208SOL    HW211522   0.601   8.953   5.132
 3209SOL     OW11523   7.182   5.494   9.364
 3209SOL    HW111524   7.098   5.541   9.363
 3209SOL    HW211525   7.243   5.552   9.320
 3210SOL     OW11526  14.015   1.023  13.140
 3210SOL    HW111527  14.035   1.048  13.230
 3210SOL    HW211528  14.071   1.079  13.086
 3211SOL     OW11529   9.438   6.987  14.749
 3211SOL    HW111530   9.406   6.944  14.670
 3211SOL    HW211531   9.418   7.079  14.736
 3212SOL     OW11532   1.610   8.173   7.564
 3212SOL    HW111533   1.594   8.242   7.629
 3212SOL    HW211534   1.525   8.130   7.554
 3213SOL     OW11535   7.365  10.732   5.547
 3213SOL    HW111536   7.364  10.827   5.561
 3213SOL    HW211537   7.310  10.697   5.617
 3214SOL     OW11538   3.384  12.075  11.396
 3214SOL    HW111539   3.399  12.140  11.464
 3214SOL    HW211540   3.330  12.119  11.331
 3215SOL     OW11541   2.001   0.099   2.278
 3215SOL    HW111542   1.961   0.153   2.345
 3215SOL    HW211543   1.931   0.083   2.215
 3216SOL     OW11544   6.668   1.543   6.941
 3216SOL    HW111545   6.753   1.563   6.902
 3216SOL    HW211546   6.611   1.523   6.866
 3217SOL     OW11547   2.072   0.834   5.531
 3217SOL    HW111548   2.016   0.900   5.489
 3217SOL    HW211549   2.079   0.863   5.622
 3218SOL     OW11550  14.417  13.250   5.524
 3218SOL    HW111551  14.370  13.238   5.606
 3218SOL    HW211552  14.492  13.305   5.547
 3219SOL     OW11553   4.049  14.181   2.810
 3219SOL    HW111554   4.134  14.213   2.781
 3219SOL    HW211555   4.028  14.234   2.887
 3220SOL     OW11556  10.455   4.261   8.309
 3220SOL    HW111557  10.369   4.303   8.297
 3220SOL    HW211558  10.434   4.169   8.324
 3221SOL     OW11559   4.199   6.092   7.391
 3221SOL    HW111560   4.183   6.182   7.361
 3221SOL    HW211561   4.277   6.099   7.446
 3222SOL     OW11562   6.260   0.217  14.845
 3222SOL    HW111563   6.300   0.244  14.762
 3222SOL    HW211564   6.174   0.258  14.844
 3223SOL     OW11565   5.827   4.936   1.715
 3223SOL    HW111566   5.921   4.937   1.697
 3223SOL    HW211567   5.820   4.969   1.805
 3224SOL     OW11568  12.983   9.235  12.878
 3224SOL    HW111569  12.999   9.262  12.787
 3224SOL    HW211570  12.950   9.146  12.871
 3225SOL     OW11571   2.367   9.450   5.765
 3225SOL    HW111572   2.302   9.460   5.834
 3225SOL    HW211573   2.326   9.486   5.687
 3226SOL     OW11574   1.984  13.335   8.954
 3226SOL    HW111575   2.007  13.316   9.045
 3226SOL    HW211576   2.068  13.348   8.910
 3227SOL     OW11577   6.303   8.074   1.728
 3227SOL    HW111578   6.258   8.027   1.799
 3227SOL    HW211579   6.254   8.051   1.649
 3228SOL     OW11580   9.913   5.803   2.835
 3228SOL    HW111581   9.987   5.809   2.775
 3228SOL    HW211582   9.914   5.885   2.884
 3229SOL     OW11583  11.971   0.196   8.749
 3229SOL    HW111584  12.059   0.158   8.745
 3229SOL    HW211585  11.968   0.240   8.834
 3230SOL     OW11586   6.121   0.358   2.861
 3230SOL    HW111587   6.188   0.386   2.924
 3230SOL    HW211588   6.040   0.400   2.891
 3231SOL     OW11589   7.014   0.904   8.518
 3231SOL    HW111590   7.106   0.884   8.537
 3231SOL    HW211591   7.005   0.886   8.424
 3232SOL     OW11592   1.178   1.187   3.867
 3232SOL    HW111593   1.132   1.202   3.785
 3232SOL    HW211594   1.210   1.097   3.860
 3233SOL     OW11595   6.533   7.945   7.654
 3233SOL    HW111596   6.516   8.038   7.636
 3233SOL    HW211597   6.468   7.898   7.602
 3234SOL     OW11598  13.479   6.237   4.694
 3234SOL    HW111599  13.572   6.213   4.698
 3234SOL    HW211600  13.443   6.206   4.776
 3235SOL     OW11601   7.430   3.463   5.917
 3235SOL    HW111602   7.523   3.475   5.937
 3235SOL    HW211603   7.412   3.525   5.846
 3236SOL     OW11604   1.417   8.211   7.923
 3236SOL    HW111605   1.457   8.241   8.005
 3236SOL    HW211606   1.441   8.119   7.917
 3237SOL     OW11607   7.405  14.480   6.056
 3237SOL    HW111608   7.471  14.549   6.063
 3237SOL    HW211609   7.413  14.449   5.966
 3238SOL     OW11610   0.874   3.391  11.432
 3238SOL    HW111611   0.948   3.377  11.372
 3238SOL    HW211612   0.837   3.304  11.444
 3239SOL     OW11613   3.360   9.174  14.687
 3239SOL    HW111614   3.454   9.158  14.693
 3239SOL    HW211615   3.320   9.087  14.684
 3240SOL     OW11616  13.662   8.223   2.898
 3240SOL    HW111617  13.575   8.233   2.937
 3240SOL    HW211618  13.717   8.285   2.947
 3241SOL     OW11619   5.166   1.814  11.811
 3241SOL    HW111620   5.130   1.848  11.893
 3241SOL    HW211621   5.111   1.739  11.790
 3242SOL     OW11622   4.437   8.324   9.852
 3242SOL    HW111623   4.472   8.236   9.869
 3242SOL    HW211624   4.342   8.313   9.863
 3243SOL     OW11625   4.433  14.252   6.185
 3243SOL    HW111626   4.460  14.162   6.203
 3243SOL    HW211627   4.425  14.293   6.271
 3244SOL     OW11628   8.662   0.988  13.642
 3244SOL    HW111629   8.591   1.047  13.670
 3244SOL    HW211630   8.624   0.937  13.571
 3245SOL     OW11631   3.161   4.298  11.350
 3245SOL    HW111632   3.149   4.300  11.445
 3245SOL    HW211633   3.237   4.353  11.334
 3246SOL     OW11634  10.278   3.296  12.741
 3246SOL    HW111635  10.315   3.383  12.757
 3246SOL    HW211636  10.197   3.313  12.693
 3247SOL     OW11637   3.183   5.749   6.368
 3247SOL    HW111638   3.271   5.712   6.371
 3247SOL    HW211639   3.146   5.715   6.286
 3248SOL     OW11640   0.926   7.018   7.278
 3248SOL    HW111641   0.923   7.028   7.183
 3248SOL    HW211642   0.971   7.096   7.310
 3249SOL     OW11643   0.420  12.017  12.657
 3249SOL    HW111644   0.425  12.098  12.607
 3249SOL    HW211645   0.368  12.040  12.734
 3250SOL     OW11646  11.840   3.077   1.808
 3250SOL    HW111647  11.877   3.149   1.859
 3250SOL    HW211648  11.906   3.008   1.811
 3251SOL     OW11649   1.862   8.073  14.404
 3251SOL    HW111650   1.822   8.038  14.324
 3251SOL    HW211651   1.956   8.073  14.385
 3252SOL     OW11652   4.973  13.733   0.555
 3252SOL    HW111653   4.962  13.710   0.648
 3252SOL    HW211654   4.990  13.827   0.556
 3253SOL     OW11655   5.179  12.110   6.561
 3253SOL    HW111656   5.120  12.045   6.599
 3253SOL    HW211657   5.191  12.175   6.630
 3254SOL     OW11658   9.770   0.803   5.428
 3254SOL    HW111659   9.843   0.791   5.489
 3254SOL    HW211660   9.766   0.897   5.414
 3255SOL     OW11661  12.331   2.935   5.286
 3255SOL    HW111662  12.246   2.945   5.245
 3255SOL    HW211663  12.351   3.021   5.321
 3256SOL     OW11664   8.908   6.029   0.563
 3256SOL    HW111665   8.821   6.068   0.555
 3256SOL    HW211666   8.968   6.095   0.527
 3257SOL     OW11667   9.634   9.907   3.294
 3257SOL    HW111668   9.711   9.868   3.253
 3257SOL    HW211669   9.598   9.836   3.348
 3258SOL     OW11670   0.886   2.434   6.126
 3258SOL    HW111671   0.973   2.410   6.092
 3258SOL    HW211672   0.825   2.408   6.057
 3259SOL     OW11673   2.318   7.909   8.738
 3259SOL    HW111674   2.323   7.918   8.643
 3259SOL    HW211675   2.358   7.990   8.771
 3260SOL     OW11676   7.530  10.426   4.426
 3260SOL    HW111677   7.594  10.480   4.381
 3260SOL    HW211678   7.580  10.383   4.496
 3261SOL     OW11679   7.491   3.869  11.163
 3261SOL    HW111680   7.517   3.892  11.074
 3261SOL    HW211681   7.406   3.912  11.175
 3262SOL     OW11682   6.373   8.839  12.463
 3262SOL    HW111683   6.427   8.861  12.387
 3262SOL    HW211684   6.434   8.802  12.526
 3263SOL     OW11685  12.935   3.352   9.428
 3263SOL    HW111686  12.892   3.312   9.504
 3263SOL    HW211687  12.866   3.402   9.385
 3264SOL     OW11688  12.182   5.303   8.623
 3264SOL    HW111689  12.087   5.297   8.625
 3264SOL    HW211690  12.201   5.374   8.562
 3265SOL     OW11691  14.726  14.818   4.338
 3265SOL    HW111692  14.732  14.856   4.426
 3265SOL    HW211693  14.812  14.781   4.321
 3266SOL     OW11694   7.553   9.136  10.509
 3266SOL    HW111695   7.503   9.205  10.466
 3266SOL    HW211696   7.564   9.068  10.442
 3267SOL     OW11697   2.087  11.145  14.646
 3267SOL    HW111698   2.120  11.168  14.560
 3267SOL    HW211699   2.010  11.201  14.659
 3268SOL     OW11700  13.734   0.878  14.523
 3268SOL    HW111701  13.797   0.856  14.592
 3268SOL    HW211702  13.778   0.855  14.442
 3269SOL     OW11703   8.794   2.563   1.396
 3269SOL    HW111704   8.796   2.612   1.314
 3269SOL    HW211705   8.798   2.471   1.369
 3270SOL     OW11706   7.415   6.076  14.052
 3270SOL    HW111707   7.510   6.072  14.038
 3270SOL    HW211708   7.391   5.987  14.080
 3271SOL     OW11709   5.060   3.803  12.066
 3271SOL    HW111710   5.135   3.791  12.009
 3271SOL    HW211711   4.987   3.822  12.007
 3272SOL     OW11712   3.799  11.274   8.383
 3272SOL    HW111713   3.878  11.238   8.341
 3272SOL    HW211714   3.797  11.233   8.470
 3273SOL     OW11715  13.176   9.355   5.266
 3273SOL    HW111716  13.102   9.397   5.309
 3273SOL    HW211717  13.205   9.288   5.327
 3274SOL     OW11718   4.314  11.784   9.376
 3274SOL    HW111719   4.229  11.754   9.344
 3274SOL    HW211720   4.316  11.877   9.357
 3275SOL     OW11721  14.061   1.275  14.169
 3275SOL    HW111722  14.021   1.305  14.251
 3275SOL    HW211723  14.067   1.355  14.116
 3276SOL     OW11724   5.719   5.266  13.606
 3276SOL    HW111725   5.759   5.329  13.546
 3276SOL    HW211726   5.791   5.208  13.632
 3277SOL     OW11727   3.136   5.023   1.679
 3277SOL    HW111728   3.111   5.103   1.634
 3277SOL    HW211729   3.201   5.051   1.743
 3278SOL     OW11730   1.671   2.769   6.557
 3278SOL    HW111731   1.620   2.849   6.540
 3278SOL    HW211732   1.607   2.706   6.589
 3279SOL     OW11733   9.216   2.863   1.116
 3279SOL    HW111734   9.138   2.911   1.088
 3279SOL    HW211735   9.282   2.931   1.130
 3280SOL     OW11736  10.501   0.773   2.630
 3280SOL    HW111737  10.511   0.689   2.674
 3280SOL    HW211738  10.590   0.804   2.614
 3281SOL     OW11739   8.571   7.390   2.033
 3281SOL    HW111740   8.650   7.344   2.004
 3281SOL    HW211741   8.592   7.483   2.021
 3282SOL     OW11742  14.315   4.697  10.852
 3282SOL    HW111743  14.233   4.712  10.899
 3282SOL    HW211744  14.315   4.762  10.782
 3283SOL     OW11745   2.285  13.966  10.018
 3283SOL    HW111746   2.295  13.872  10.002
 3283SOL    HW211747   2.288  14.006   9.931
 3284SOL     OW11748   4.998   7.080   7.293
 3284SOL    HW111749   5.070   7.066   7.232
 3284SOL    HW211750   5.009   7.013   7.360
 3285SOL     OW11751  11.700  14.369  12.712
 3285SOL    HW111752  11.745  14.377  12.796
 3285SOL    HW211753  11.721  14.280  12.683
 3286SOL     OW11754   6.654   8.451  14.593
 3286SOL    HW111755   6.710   8.529  14.594
 3286SOL    HW211756   6.715   8.379  14.578
 3287SOL     OW11757   3.720   9.935  13.389
 3287SOL    HW111758   3.745   9.968  13.303
 3287SOL    HW211759   3.780   9.862  13.405
 3288SOL     OW11760   2.970   2.363  10.525
 3288SOL    HW111761   2.886   2.332  10.558
 3288SOL    HW211762   3.029   2.288  10.534
 3289SOL     OW11763   4.907   0.677   8.311
 3289SOL    HW111764   4.825   0.682   8.360
 3289SOL    HW211765   4.918   0.764   8.275
 3290SOL     OW11766   4.602   4.674   4.011
 3290SOL    HW111767   4.529   4.669   3.949
 3290SOL    HW211768   4.672   4.716   3.962
 3291SOL     OW11769  10.402   9.028   1.546
 3291SOL    HW111770  10.474   9.066   1.598
 3291SOL    HW211771  10.444   8.998   1.466
 3292SOL     OW11772   1.877  10.128  13.149
 3292SOL    HW111773   1.895  10.167  13.064
 3292SOL    HW211774   1.820  10.054  13.130
 3293SOL     OW11775  11.596  10.540   6.003
 3293SOL    HW111776  11.656  10.609   6.032
 3293SOL    HW211777  11.549  10.580   5.930
 3294SOL     OW11778  13.973   6.791   7.134
 3294SOL    HW111779  13.953   6.869   7.187
 3294SOL    HW211780  13.887   6.759   7.105
 3295SOL     OW11781   7.393  11.518   8.566
 3295SOL    HW111782   7.396  11.610   8.589
 3295SOL    HW211783   7.371  11.517   8.473
 3296SOL     OW11784   4.416   0.203   6.434
 3296SOL    HW111785   4.400   0.214   6.528
 3296SOL    HW211786   4.510   0.214   6.424
 3297SOL     OW11787  14.422   7.497   6.395
 3297SOL    HW111788  14.433   7.429   6.328
 3297SOL    HW211789  14.444   7.454   6.477
 3298SOL     OW11790  13.439  11.509   1.736
 3298SOL    HW111791  13.463  11.601   1.722
 3298SOL    HW211792  13.446  11.497   1.830
 3299SOL     OW11793   1.868   1.410   8.981
 3299SOL    HW111794   1.774   1.396   8.969
 3299SOL    HW211795   1.879   1.505   8.984
 3300SOL     OW11796   5.644   5.068   4.992
 3300SOL    HW111797   5.550   5.081   4.981
 3300SOL    HW211798   5.681   5.156   4.987
 3301SOL     OW11799  12.848  12.345   3.173
 3301SOL    HW111800  12.758  12.335   3.205
 3301SOL    HW211801  12.838  12.376   3.083
 3302SOL     OW11802   0.431   9.533   0.041
 3302SOL    HW111803   0.434   9.606   0.103
 3302SOL    HW211804   0.517   9.533  14.877
 3303SOL     OW11805  13.938   4.973   4.161
 3303SOL    HW111806  13.963   5.041   4.099
 3303SOL    HW211807  13.938   5.017   4.246
 3304SOL     OW11808   0.472   8.680   0.499
 3304SOL    HW111809   0.549   8.734   0.513
 3304SOL    HW211810   0.468   8.667   0.404
 3305SOL     OW11811   5.589  12.913   2.926
 3305SOL    HW111812   5.543  12.972   2.985
 3305SOL    HW211813   5.655  12.968   2.883
 3306SOL     OW11814   2.961  11.797   7.676
 3306SOL    HW111815   2.903  11.724   7.654
 3306SOL    HW211816   2.944  11.862   7.608
 3307SOL     OW11817  12.153   9.216   0.843
 3307SOL    HW111818  12.141   9.157   0.769
 3307SOL    HW211819  12.170   9.301   0.804
 3308SOL     OW11820   5.079   2.530  12.551
 3308SOL    HW111821   5.063   2.606  12.495
 3308SOL    HW211822   5.005   2.530  12.612
 3309SOL     OW11823   3.793   4.424  14.221
 3309SOL    HW111824   3.847   4.444  14.298
 3309SOL    HW211825   3.802   4.501  14.165
 3310SOL     OW11826   0.871   4.339   7.832
 3310SOL    HW111827   0.929   4.394   7.780
 3310SOL    HW211828   0.828   4.282   7.768
 3311SOL     OW11829   1.643   8.647   1.127
 3311SOL    HW111830   1.563   8.643   1.178
 3311SOL    HW211831   1.614   8.669   1.038
 3312SOL     OW11832  12.396   5.547   4.384
 3312SOL    HW111833  12.308   5.576   4.410
 3312SOL    HW211834  12.412   5.470   4.438
 3313SOL     OW11835   9.513  14.054  13.677
 3313SOL    HW111836   9.523  14.146  13.701
 3313SOL    HW211837   9.594  14.013  13.707
 3314SOL     OW11838   3.672   9.027  10.477
 3314SOL    HW111839   3.667   9.072  10.561
 3314SOL    HW211840   3.707   8.940  10.498
 3315SOL     OW11841   5.445   0.563   5.461
 3315SOL    HW111842   5.374   0.623   5.441
 3315SOL    HW211843   5.485   0.598   5.541
 3316SOL     OW11844  10.421   0.914   0.331
 3316SOL    HW111845  10.453   0.850   0.267
 3316SOL    HW211846  10.454   0.998   0.301
 3317SOL     OW11847   3.671   3.090   0.629
 3317SOL    HW111848   3.721   3.068   0.551
 3317SOL    HW211849   3.716   3.167   0.665
 3318SOL     OW11850  13.519   6.202   8.126
 3318SOL    HW111851  13.460   6.278   8.127
 3318SOL    HW211852  13.464   6.130   8.095
 3319SOL     OW11853   6.458  13.940  11.154
 3319SOL    HW111854   6.467  13.858  11.105
 3319SOL    HW211855   6.415  14.000  11.093
 3320SOL     OW11856  10.450  11.293   6.640
 3320SOL    HW111857  10.399  11.235   6.695
 3320SOL    HW211858  10.497  11.235   6.580
 3321SOL     OW11859   9.518   2.307   1.884
 3321SOL    HW111860   9.579   2.242   1.849
 3321SOL    HW211861   9.464   2.258   1.946
 3322SOL     OW11862   2.717   4.812   3.488
 3322SOL    HW111863   2.685   4.822   3.578
 3322SOL    HW211864   2.807   4.845   3.491
 3323SOL     OW11865   8.433   3.310   2.854
 3323SOL    HW111866   8.392   3.301   2.768
 3323SOL    HW211867   8.405   3.232   2.901
 3324SOL     OW11868   1.841   4.828   5.863
 3324SOL    HW111869   1.802   4.764   5.922
 3324SOL    HW211870   1.914   4.781   5.821
 3325SOL     OW11871   9.325   3.945   5.094
 3325SOL    HW111872   9.242   3.905   5.119
 3325SOL    HW211873   9.309   3.979   5.006
 3326SOL     OW11874   8.811  12.119   3.712
 3326SOL    HW111875   8.858  12.042   3.680
 3326SOL    HW211876   8.743  12.135   3.647
 3327SOL     OW11877  13.387   1.918   8.754
 3327SOL    HW111878  13.398   1.823   8.741
 3327SOL    HW211879  13.476   1.952   8.754
 3328SOL     OW11880   0.359   1.917  14.241
 3328SOL    HW111881   0.294   1.855  14.273
 3328SOL    HW211882   0.403   1.948  14.320
 3329SOL     OW11883  14.045  10.261   5.368
 3329SOL    HW111884  14.118  10.206   5.342
 3329SOL    HW211885  14.047  10.261   5.464
 3330SOL     OW11886  11.746   6.702   6.775
 3330SOL    HW111887  11.830   6.701   6.821
 3330SOL    HW211888  11.751   6.778   6.718
 3331SOL     OW11889   3.343  11.931  12.321
 3331SOL    HW111890   3.309  12.001  12.265
 3331SOL    HW211891   3.359  11.858  12.261
 3332SOL     OW11892   1.295  13.984   3.365
 3332SOL    HW111893   1.203  14.002   3.348
 3332SOL    HW211894   1.323  14.056   3.422
 3333SOL     OW11895   0.160   6.840   5.962
 3333SOL    HW111896   0.241   6.877   5.998
 3333SOL    HW211897   0.093   6.863   6.026
 3334SOL     OW11898   5.232   9.061   7.285
 3334SOL    HW111899   5.166   9.125   7.309
 3334SOL    HW211900   5.311   9.112   7.271
 3335SOL     OW11901   2.226   3.012  14.205
 3335SOL    HW111902   2.183   3.055  14.280
 3335SOL    HW211903   2.181   3.049  14.128
 3336SOL     OW11904   2.804  11.411  10.897
 3336SOL    HW111905   2.816  11.362  10.815
 3336SOL    HW211906   2.714  11.392  10.924
 3337SOL     OW11907   0.419   4.496  10.366
 3337SOL    HW111908   0.362   4.443  10.311
 3337SOL    HW211909   0.426   4.580  10.321
 3338SOL     OW11910   4.495   8.422  11.681
 3338SOL    HW111911   4.452   8.493  11.633
 3338SOL    HW211912   4.462   8.430  11.771
 3339SOL     OW11913   9.552   6.965  13.108
 3339SOL    HW111914   9.628   7.017  13.136
 3339SOL    HW211915   9.516   7.014  13.034
 3340SOL     OW11916   0.351  11.869   0.421
 3340SOL    HW111917   0.426  11.888   0.366
 3340SOL    HW211918   0.312  11.790   0.383
 3341SOL     OW11919   9.081   9.535   8.074
 3341SOL    HW111920   8.999   9.569   8.038
 3341SOL    HW211921   9.128   9.502   7.997
 3342SOL     OW11922  14.681   9.979   1.382
 3342SOL    HW111923  14.723  10.052   1.336
 3342SOL    HW211924  14.591   9.980   1.350
 3343SOL     OW11925  10.155  12.182   8.513
 3343SOL    HW111926  10.144  12.277   8.501
 3343SOL    HW211927  10.126  12.144   8.431
 3344SOL     OW11928   1.665  12.543  11.829
 3344SOL    HW111929   1.636  12.625  11.791
 3344SOL    HW211930   1.733  12.512  11.769
 3345SOL     OW11931  14.517   7.557   2.815
 3345SOL    HW111932  14.604   7.521   2.799
 3345SOL    HW211933  14.513   7.635   2.759
 3346SOL     OW11934   7.310   7.506   5.969
 3346SOL    HW111935   7.280   7.533   5.882
 3346SOL    HW211936   7.406   7.512   5.963
 3347SOL     OW11937  12.676   5.644   0.646
 3347SOL    HW111938  12.600   5.700   0.660
 3347SOL    HW211939  12.639   5.556   0.633
 3348SOL     OW11940   1.623  14.556   2.828
 3348SOL    HW111941   1.528  14.545   2.835
 3348SOL    HW211942   1.639  14.646   2.855
 3349SOL     OW11943   0.820  12.364  11.972
 3349SOL    HW111944   0.777  12.323  11.897
 3349SOL    HW211945   0.830  12.293  12.036
 3350SOL     OW11946   8.690   0.234   9.927
 3350SOL    HW111947   8.765   0.292   9.917
 3350SOL    HW211948   8.619   0.290   9.958
 3351SOL     OW11949   7.245   3.775  13.853
 3351SOL    HW111950   7.193   3.698  13.875
 3351SOL    HW211951   7.182   3.847  13.852
 3352SOL     OW11952   3.698   6.920   9.213
 3352SOL    HW111953   3.792   6.925   9.197
 3352SOL    HW211954   3.689   6.858   9.285
 3353SOL     OW11955  10.077   9.293  10.708
 3353SOL    HW111956   9.987   9.261  10.699
 3353SOL    HW211957  10.090   9.299  10.803
 3354SOL     OW11958  11.326   4.304   1.540
 3354SOL    HW111959  11.354   4.347   1.459
 3354SOL    HW211960  11.268   4.368   1.582
 3355SOL     OW11961   4.878  11.735  12.127
 3355SOL    HW111962   4.838  11.822  12.135
 3355SOL    HW211963   4.852  11.704  12.041
 3356SOL     OW11964   3.461   3.951  12.026
 3356SOL    HW111965   3.504   3.891  12.086
 3356SOL    HW211966   3.481   4.038  12.061
 3357SOL     OW11967   8.615  11.536  13.287
 3357SOL    HW111968   8.553  11.565  13.354
 3357SOL    HW211969   8.696  11.521  13.335
 3358SOL     OW11970   5.015   2.808  10.993
 3358SOL    HW111971   5.014   2.903  11.006
 3358SOL    HW211972   5.024   2.773  11.082
 3359SOL     OW11973   2.708  12.964   5.051
 3359SOL    HW111974   2.617  12.962   5.081
 3359SOL    HW211975   2.747  13.038   5.098
 3360SOL     OW11976   8.640  14.804   1.659
 3360SOL    HW111977   8.582  14.754   1.717
 3360SOL    HW211978   8.622   0.018   1.681
 3361SOL     OW11979  11.618   7.011   3.736
 3361SOL    HW111980  11.658   7.035   3.652
 3361SOL    HW211981  11.540   7.066   3.741
 3362SOL     OW11982   6.079   5.194   3.336
 3362SOL    HW111983   6.000   5.248   3.323
 3362SOL    HW211984   6.110   5.175   3.247
 3363SOL     OW11985   4.859   4.301  13.845
 3363SOL    HW111986   4.901   4.293  13.931
 3363SOL    HW211987   4.798   4.228  13.842
 3364SOL     OW11988   1.112   0.047   5.051
 3364SOL    HW111989   1.027   0.006   5.036
 3364SOL    HW211990   1.168  14.853   5.081
 3365SOL     OW11991   5.831   6.638  13.407
 3365SOL    HW111992   5.885   6.574  13.455
 3365SOL    HW211993   5.742   6.604  13.414
 3366SOL     OW11994   0.678   4.078  12.673
 3366SOL    HW111995   0.637   4.054  12.757
 3366SOL    HW211996   0.607   4.114  12.621
 3367SOL     OW11997  14.120   5.414   6.915
 3367SOL    HW111998  14.143   5.349   6.849
 3367SOL    HW211999  14.203   5.458   6.936
 3368SOL     OW12000   6.398  14.646   6.566
 3368SOL    HW112001   6.338  14.575   6.588
 3368SOL    HW212002   6.398  14.702   6.643
 3369SOL     OW12003  13.474   3.830   1.083
 3369SOL    HW112004  13.390   3.842   1.128
 3369SOL    HW212005  13.515   3.916   1.087
 3370SOL     OW12006   5.473   5.117  10.689
 3370SOL    HW112007   5.538   5.051  10.665
 3370SOL    HW212008   5.391   5.069  10.696
 3371SOL     OW12009   8.704   3.511  11.982
 3371SOL    HW112010   8.654   3.593  11.986
 3371SOL    HW212011   8.649   3.448  12.028
 3372SOL     OW12012   6.238   3.445   1.359
 3372SOL    HW112013   6.199   3.358   1.353
 3372SOL    HW212014   6.250   3.472   1.268
 3373SOL     OW12015  12.351   9.458   3.935
 3373SOL    HW112016  12.317   9.512   4.006
 3373SOL    HW212017  12.318   9.499   3.855
 3374SOL     OW12018   2.090   7.296   0.582
 3374SOL    HW112019   2.080   7.222   0.523
 3374SOL    HW212020   2.076   7.373   0.526
 3375SOL     OW12021   3.716   1.698  14.268
 3375SOL    HW112022   3.665   1.659  14.339
 3375SOL    HW212023   3.652   1.745  14.215
 3376SOL     OW12024   2.198   6.205   4.413
 3376SOL    HW112025   2.170   6.209   4.321
 3376SOL    HW212026   2.260   6.132   4.416
 3377SOL     OW12027   9.796  11.222   7.573
 3377SOL    HW112028   9.876  11.212   7.625
 3377SOL    HW212029   9.826  11.233   7.483
 3378SOL     OW12030  13.717   5.008  13.906
 3378SOL    HW112031  13.629   5.038  13.929
 3378SOL    HW212032  13.720   5.015  13.810
 3379SOL     OW12033  11.498   5.065  13.897
 3379SOL    HW112034  11.583   5.080  13.938
 3379SOL    HW212035  11.436   5.112  13.953
 3380SOL     OW12036   3.790   3.698   2.153
 3380SOL    HW112037   3.807   3.684   2.246
 3380SOL    HW212038   3.877   3.709   2.114
 3381SOL     OW12039   2.363   9.186   6.073
 3381SOL    HW112040   2.287   9.217   6.123
 3381SOL    HW212041   2.374   9.095   6.101
 3382SOL     OW12042   1.737   3.233  10.880
 3382SOL    HW112043   1.774   3.260  10.964
 3382SOL    HW212044   1.685   3.309  10.852
 3383SOL     OW12045   2.770   6.278   6.885
 3383SOL    HW112046   2.752   6.345   6.951
 3383SOL    HW212047   2.817   6.209   6.933
 3384SOL     OW12048  12.690   2.746   4.239
 3384SOL    HW112049  12.613   2.760   4.184
 3384SOL    HW212050  12.660   2.688   4.308
 3385SOL     OW12051  13.842  13.698   1.094
 3385SOL    HW112052  13.928  13.717   1.134
 3385SOL    HW212053  13.856  13.617   1.045
 3386SOL     OW12054   7.974  12.656  13.091
 3386SOL    HW112055   8.016  12.695  13.015
 3386SOL    HW212056   8.046  12.631  13.149
 3387SOL     OW12057   3.749   2.156  11.452
 3387SOL    HW112058   3.793   2.076  11.478
 3387SOL    HW212059   3.656   2.132  11.447
 3388SOL     OW12060   3.590   6.812  14.558
 3388SOL    HW112061   3.544   6.744  14.608
 3388SOL    HW212062   3.587   6.888  14.615
 3389SOL     OW12063   3.611   3.820  12.909
 3389SOL    HW112064   3.679   3.886  12.917
 3389SOL    HW212065   3.622   3.765  12.987
 3390SOL     OW12066  11.564  11.631   7.623
 3390SOL    HW112067  11.595  11.683   7.697
 3390SOL    HW212068  11.540  11.696   7.557
 3391SOL     OW12069   4.622  14.379   0.907
 3391SOL    HW112070   4.678  14.308   0.939
 3391SOL    HW212071   4.538  14.363   0.950
 3392SOL     OW12072   1.275   8.810   2.967
 3392SOL    HW112073   1.210   8.833   3.034
 3392SOL    HW212074   1.242   8.728   2.930
 3393SOL     OW12075  11.079   5.042   0.974
 3393SOL    HW112076  11.076   5.131   1.008
 3393SOL    HW212077  11.068   5.052   0.879
 3394SOL     OW12078  12.376  11.626  11.088
 3394SOL    HW112079  12.421  11.556  11.040
 3394SOL    HW212080  12.382  11.702  11.031
 3395SOL     OW12081   5.434   6.887  12.734
 3395SOL    HW112082   5.373   6.934  12.678
 3395SOL    HW212083   5.460   6.951  12.801
 3396SOL     OW12084   3.236  13.861  13.350
 3396SOL    HW112085   3.155  13.857  13.300
 3396SOL    HW212086   3.214  13.824  13.436
 3397SOL     OW12087   2.145   1.565   1.933
 3397SOL    HW112088   2.074   1.596   1.989
 3397SOL    HW212089   2.203   1.640   1.923
 3398SOL     OW12090   7.965   1.853  10.713
 3398SOL    HW112091   7.937   1.847  10.622
 3398SOL    HW212092   7.911   1.923  10.751
 3399SOL     OW12093   3.030   7.811   8.590
 3399SOL    HW112094   3.088   7.843   8.659
 3399SOL    HW212095   2.945   7.800   8.633
 3400SOL     OW12096   7.647   6.483  12.180
 3400SOL    HW112097   7.693   6.440  12.252
 3400SOL    HW212098   7.696   6.565  12.166
 3401SOL     OW12099  13.646   9.131   4.658
 3401SOL    HW112100  13.718   9.150   4.598
 3401SOL    HW212101  13.602   9.056   4.619
 3402SOL     OW12102   7.733   5.712  14.363
 3402SOL    HW112103   7.712   5.722  14.270
 3402SOL    HW212104   7.784   5.790  14.384
 3403SOL     OW12105  10.387   9.326  14.186
 3403SOL    HW112106  10.473   9.359  14.211
 3403SOL    HW212107  10.403   9.237  14.156
 3404SOL     OW12108   8.242   2.548   0.548
 3404SOL    HW112109   8.251   2.453   0.536
 3404SOL    HW212110   8.260   2.585   0.462
 3405SOL     OW12111   8.282  11.783  10.495
 3405SOL    HW112112   8.326  11.710  10.537
 3405SOL    HW212113   8.277  11.851  10.563
 3406SOL     OW12114   9.437  10.033   4.059
 3406SOL    HW112115   9.368  10.049   4.122
 3406SOL    HW212116   9.498  10.107   4.069
 3407SOL     OW12117   7.829  14.528  13.255
 3407SOL    HW112118   7.828  14.439  13.219
 3407SOL    HW212119   7.917  14.560  13.237
 3408SOL     OW12120  13.585  14.544  10.145
 3408SOL    HW112121  13.614  14.608  10.080
 3408SOL    HW212122  13.630  14.463  10.121
 3409SOL     OW12123  11.021   9.078   7.460
 3409SOL    HW112124  10.953   9.124   7.409
 3409SOL    HW212125  11.101   9.126   7.441
 3410SOL     OW12126   6.489  13.296  10.068
 3410SOL    HW112127   6.453  13.210  10.089
 3410SOL    HW212128   6.582  13.280  10.049
 3411SOL     OW12129  10.889   4.925   4.635
 3411SOL    HW112130  10.887   4.992   4.567
 3411SOL    HW212131  10.907   4.974   4.716
 3412SOL     OW12132   6.839   3.142   6.628
 3412SOL    HW112133   6.781   3.209   6.592
 3412SOL    HW212134   6.798   3.059   6.602
 3413SOL     OW12135  13.399  10.246   0.475
 3413SOL    HW112136  13.326  10.235   0.536
 3413SOL    HW212137  13.449  10.165   0.483
 3414SOL     OW12138  12.034   9.332   8.662
 3414SOL    HW112139  12.015   9.417   8.622
 3414SOL    HW212140  11.965   9.320   8.727
 3415SOL     OW12141   8.963   5.947   7.894
 3415SOL    HW112142   8.904   5.950   7.818
 3415SOL    HW212143   8.916   5.993   7.963
 3416SOL     OW12144   5.818   0.749  10.383
 3416SOL    HW112145   5.907   0.765  10.351
 3416SOL    HW212146   5.825   0.669  10.434
 3417SOL     OW12147  14.461   2.665  12.729
 3417SOL    HW112148  14.495   2.728  12.793
 3417SOL    HW212149  14.421   2.720  12.661
 3418SOL     OW12150  10.409   8.905  12.009
 3418SOL    HW112151  10.339   8.915  12.072
 3418SOL    HW212152  10.367   8.915  11.924
 3419SOL     OW12153   0.332  12.633   3.221
 3419SOL    HW112154   0.290  12.555   3.257
 3419SOL    HW212155   0.290  12.706   3.266
 3420SOL     OW12156   6.745  10.132  11.719
 3420SOL    HW112157   6.788  10.143  11.804
 3420SOL    HW212158   6.658  10.169  11.731
 3421SOL     OW12159  11.046   9.607   4.347
 3421SOL    HW112160  10.958   9.638   4.367
 3421SOL    HW212161  11.093   9.612   4.430
 3422SOL     OW12162   9.775  11.096   0.216
 3422SOL    HW112163   9.784  11.174   0.161
 3422SOL    HW212164   9.790  11.126   0.305
 3423SOL     OW12165   9.105   6.131   0.121
 3423SOL    HW112166   9.166   6.062   0.146
 3423SOL    HW212167   9.160   6.198   0.081
 3424SOL     OW12168  10.806   0.310   1.491
 3424SOL    HW112169  10.739   0.242   1.490
 3424SOL    HW212170  10.787   0.361   1.569
 3425SOL     OW12171  11.259   3.605  11.323
 3425SOL    HW112172  11.316   3.559  11.261
 3425SOL    HW212173  11.261   3.552  11.402
 3426SOL     OW12174   7.358  12.103   4.524
 3426SOL    HW112175   7.272  12.125   4.559
 3426SOL    HW212176   7.380  12.018   4.562
 3427SOL     OW12177   5.412   1.344   1.891
 3427SOL    HW112178   5.340   1.338   1.829
 3427SOL    HW212179   5.419   1.257   1.929
 3428SOL     OW12180   0.643   3.253   3.581
 3428SOL    HW112181   0.616   3.293   3.499
 3428SOL    HW212182   0.668   3.327   3.636
 3429SOL     OW12183  13.336   8.465  14.239
 3429SOL    HW112184  13.390   8.500  14.168
 3429SOL    HW212185  13.252   8.510  14.229
 3430SOL     OW12186   1.501   8.324  10.153
 3430SOL    HW112187   1.540   8.242  10.185
 3430SOL    HW212188   1.426   8.295  10.101
 3431SOL     OW12189   9.899   0.989   3.812
 3431SOL    HW112190   9.827   0.943   3.770
 3431SOL    HW212191   9.864   1.075   3.836
 3432SOL     OW12192   9.054   5.340   7.139
 3432SOL    HW112193   8.960   5.354   7.149
 3432SOL    HW212194   9.095   5.409   7.192
 3433SOL     OW12195   2.425   1.324   5.971
 3433SOL    HW112196   2.447   1.417   5.983
 3433SOL    HW212197   2.341   1.325   5.927
 3434SOL     OW12198  10.188   2.985  13.826
 3434SOL    HW112199  10.200   2.920  13.757
 3434SOL    HW212200  10.254   3.052  13.808
 3435SOL     OW12201   4.605  11.307   9.182
 3435SOL    HW112202   4.691  11.347   9.192
 3435SOL    HW212203   4.621  11.227   9.131
 3436SOL     OW12204   9.539  11.964  10.617
 3436SOL    HW112205   9.541  11.905  10.542
 3436SOL    HW212206   9.449  11.960  10.648
 3437SOL     OW12207   5.924   3.297   6.583
 3437SOL    HW112208   5.846   3.244   6.567
 3437SOL    HW212209   5.964   3.307   6.497
 3438SOL     OW12210  14.439   2.209   0.733
 3438SOL    HW112211  14.452   2.286   0.678
 3438SOL    HW212212  14.527   2.172   0.745
 3439SOL     OW12213  10.637  10.008  11.459
 3439SOL    HW112214  10.648  10.060  11.380
 3439SOL    HW212215  10.612  10.071  11.526
 3440SOL     OW12216   5.606   0.267   8.410
 3440SOL    HW112217   5.644   0.351   8.434
 3440SOL    HW212218   5.669   0.202   8.442
 3441SOL     OW12219   5.374  13.261   6.445
 3441SOL    HW112220   5.468  13.265   6.427
 3441SOL    HW212221   5.342  13.190   6.390
 3442SOL     OW12222  10.288  10.809   8.043
 3442SOL    HW112223  10.373  10.839   8.074
 3442SOL    HW212224  10.259  10.876   7.981
 3443SOL     OW12225  13.927   4.467   4.969
 3443SOL    HW112226  13.861   4.440   5.033
 3443SOL    HW212227  13.887   4.451   4.884
 3444SOL     OW12228  12.921  13.809   9.488
 3444SOL    HW112229  12.983  13.881   9.499
 3444SOL    HW212230  12.975  13.734   9.463
 3445SOL     OW12231   6.041   9.037   4.474
 3445SOL    HW112232   5.989   9.117   4.487
 3445SOL    HW212233   6.035   9.020   4.380
 3446SOL     OW12234  13.561   3.387  11.018
 3446SOL    HW112235  13.465   3.393  11.025
 3446SOL    HW212236  13.577   3.356  10.929
 3447SOL     OW12237   9.297  12.690   0.181
 3447SOL    HW112238   9.278  12.622   0.245
 3447SOL    HW212239   9.222  12.689   0.122
 3448SOL     OW12240   7.944  11.742  12.289
 3448SOL    HW112241   7.864  11.781  12.322
 3448SOL    HW212242   7.995  11.721  12.367
 3449SOL     OW12243   2.434   4.676  12.918
 3449SOL    HW112244   2.444   4.587  12.885
 3449SOL    HW212245   2.364   4.714  12.864
 3450SOL     OW12246   9.083   3.194   9.545
 3450SOL    HW112247   9.074   3.230   9.457
 3450SOL    HW212248   9.021   3.121   9.548
 3451SOL     OW12249   1.160   7.548   4.909
 3451SOL    HW112250   1.126   7.574   4.995
 3451SOL    HW212251   1.094   7.489   4.873
 3452SOL     OW12252   9.663   1.483   4.772
 3452SOL    HW112253   9.622   1.437   4.699
 3452SOL    HW212254   9.700   1.562   4.732
 3453SOL     OW12255  10.793  11.393   7.852
 3453SOL    HW112256  10.779  11.329   7.921
 3453SOL    HW212257  10.727  11.461   7.867
 3454SOL     OW12258   1.880  11.402   5.289
 3454SOL    HW112259   1.973  11.423   5.291
 3454SOL    HW212260   1.839  11.470   5.343
 3455SOL     OW12261   4.388   0.497  14.675
 3455SOL    HW112262   4.428   0.584  14.686
 3455SOL    HW212263   4.408   0.451  14.757
 3456SOL     OW12264   2.902   8.300   9.244
 3456SOL    HW112265   2.853   8.244   9.184
 3456SOL    HW212266   2.844   8.375   9.258
 3457SOL     OW12267   8.923   9.887   6.769
 3457SOL    HW112268   8.983   9.939   6.715
 3457SOL    HW212269   8.844   9.878   6.716
 3458SOL     OW12270   7.527   1.487  14.278
 3458SOL    HW112271   7.580   1.463  14.354
 3458SOL    HW212272   7.582   1.467  14.203
 3459SOL     OW12273   7.367  10.528   1.995
 3459SOL    HW112274   7.273  10.511   1.997
 3459SOL    HW212275   7.397  10.509   2.084
 3460SOL     OW12276  10.076   0.798   1.251
 3460SOL    HW112277  10.113   0.790   1.339
 3460SOL    HW212278  10.109   0.882   1.219
 3461SOL     OW12279   8.376  13.366   5.270
 3461SOL    HW112280   8.350  13.450   5.308
 3461SOL    HW212281   8.313  13.353   5.198
 3462SOL     OW12282   1.788   9.042   8.779
 3462SOL    HW112283   1.753   9.113   8.832
 3462SOL    HW212284   1.711   8.991   8.754
 3463SOL     OW12285  10.002  10.779   6.316
 3463SOL    HW112286  10.088  10.787   6.359
 3463SOL    HW212287   9.943  10.751   6.387
 3464SOL     OW12288  10.312   1.564   2.423
 3464SOL    HW112289  10.248   1.523   2.482
 3464SOL    HW212290  10.259   1.606   2.356
 3465SOL     OW12291   2.688   9.862   0.469
 3465SOL    HW112292   2.639   9.845   0.389
 3465SOL    HW212293   2.742   9.783   0.481
 3466SOL     OW12294   6.365   8.687   8.597
 3466SOL    HW112295   6.279   8.654   8.571
 3466SOL    HW212296   6.356   8.705   8.691
 3467SOL     OW12297  10.540  14.311   0.532
 3467SOL    HW112298  10.505  14.334   0.446
 3467SOL    HW212299  10.547  14.215   0.530
 3468SOL     OW12300  13.385  10.868  12.675
 3468SOL    HW112301  13.307  10.815  12.658
 3468SOL    HW212302  13.458  10.806  12.672
 3469SOL     OW12303  10.838   1.772   1.015
 3469SOL    HW112304  10.757   1.822   1.018
 3469SOL    HW212305  10.842   1.738   0.925
 3470SOL     OW12306   1.269   3.426   0.933
 3470SOL    HW112307   1.198   3.388   0.985
 3470SOL    HW212308   1.228   3.453   0.851
 3471SOL     OW12309  14.646   1.025  14.008
 3471SOL    HW112310  14.627   0.941  13.968
 3471SOL    HW212311  14.592   1.088  13.959
 3472SOL     OW12312  11.512  13.217   7.120
 3472SOL    HW112313  11.437  13.175   7.078
 3472SOL    HW212314  11.576  13.226   7.049
 3473SOL     OW12315   9.725   0.840  10.726
 3473SOL    HW112316   9.769   0.874  10.648
 3473SOL    HW212317   9.742   0.746  10.724
 3474SOL     OW12318   5.336  10.601   1.228
 3474SOL    HW112319   5.307  10.666   1.164
 3474SOL    HW212320   5.337  10.518   1.180
 3475SOL     OW12321   7.903  10.124   5.393
 3475SOL    HW112322   7.948  10.168   5.321
 3475SOL    HW212323   7.878  10.195   5.452
 3476SOL     OW12324   3.191   2.970  11.354
 3476SOL    HW112325   3.155   2.968  11.265
 3476SOL    HW212326   3.155   3.050  11.392
 3477SOL     OW12327   8.941   1.397  12.475
 3477SOL    HW112328   8.941   1.354  12.560
 3477SOL    HW212329   8.987   1.479  12.490
 3478SOL     OW12330  12.775   9.726   7.587
 3478SOL    HW112331  12.863   9.752   7.560
 3478SOL    HW212332  12.768   9.634   7.561
 3479SOL     OW12333  12.098  13.987  13.240
 3479SOL    HW112334  12.153  14.062  13.258
 3479SOL    HW212335  12.012  14.024  13.221
 3480SOL     OW12336  12.416  14.694   6.198
 3480SOL    HW112337  12.417  14.762   6.266
 3480SOL    HW212338  12.439  14.613   6.244
 3481SOL     OW12339   0.762  10.703   7.103
 3481SOL    HW112340   0.820  10.769   7.141
 3481SOL    HW212341   0.729  10.742   7.022
 3482SOL     OW12342  13.452  14.240   1.204
 3482SOL    HW112343  13.374  14.267   1.253
 3482SOL    HW212344  13.525  14.282   1.249
 3483SOL     OW12345   4.159   8.804   9.055
 3483SOL    HW112346   4.142   8.893   9.026
 3483SOL    HW212347   4.113   8.797   9.138
 3484SOL     OW12348  10.000  13.954   8.816
 3484SOL    HW112349   9.977  13.873   8.861
 3484SOL    HW212350   9.938  13.960   8.743
 3485SOL     OW12351  13.126   5.664   8.058
 3485SOL    HW112352  13.078   5.604   8.001
 3485SOL    HW212353  13.097   5.641   8.147
 3486SOL     OW12354  14.686   3.401   5.988
 3486SOL    HW112355  14.659   3.443   6.070
 3486SOL    HW212356  14.628   3.325   5.980
 3487SOL     OW12357  13.138  10.293   5.192
 3487SOL    HW112358  13.212  10.233   5.204
 3487SOL    HW212359  13.079  10.248   5.131
 3488SOL     OW12360   0.349   2.718   2.952
 3488SOL    HW112361   0.253   2.708   2.948
 3488SOL    HW212362   0.381   2.630   2.972
 3489SOL     OW12363   2.442  11.848  14.823
 3489SOL    HW112364   2.532  11.819  14.837
 3489SOL    HW212365   2.421  11.900   0.023
 3490SOL     OW12366  12.650   8.209  14.281
 3490SOL    HW112367  12.633   8.212  14.187
 3490SOL    HW212368  12.737   8.247  14.291
 3491SOL     OW12369   5.002  10.431   0.465
 3491SOL    HW112370   5.083  10.382   0.479
 3491SOL    HW212371   4.985  10.473   0.549
 3492SOL     OW12372   8.069   3.183  12.562
 3492SOL    HW112373   8.052   3.204  12.470
 3492SOL    HW212374   8.063   3.087  12.565
 3493SOL     OW12375   3.961   3.011   5.873
 3493SOL    HW112376   4.010   3.054   5.943
 3493SOL    HW212377   3.892   3.074   5.851
 3494SOL     OW12378   1.459   9.924  14.287
 3494SOL    HW112379   1.415   9.995  14.333
 3494SOL    HW212380   1.538   9.964  14.251
 3495SOL     OW12381   4.539   5.782   6.216
 3495SOL    HW112382   4.553   5.825   6.133
 3495SOL    HW212383   4.594   5.829   6.278
 3496SOL     OW12384  10.230   3.922  11.214
 3496SOL    HW112385  10.143   3.903  11.179
 3496SOL    HW212386  10.219   3.916  11.309
 3497SOL     OW12387  13.093  13.939   5.176
 3497SOL    HW112388  13.027  13.907   5.237
 3497SOL    HW212389  13.052  14.015   5.135
 3498SOL     OW12390   3.033   2.139   9.420
 3498SOL    HW112391   3.011   2.124   9.328
 3498SOL    HW212392   3.022   2.233   9.432
 3499SOL     OW12393   3.645   5.502   3.957
 3499SOL    HW112394   3.649   5.420   3.907
 3499SOL    HW212395   3.583   5.556   3.909
 3500SOL     OW12396  11.898  11.994   4.053
 3500SOL    HW112397  11.973  12.041   4.015
 3500SOL    HW212398  11.821  12.035   4.013
 3501SOL     OW12399   6.203   8.632   1.268
 3501SOL    HW112400   6.217   8.566   1.200
 3501SOL    HW212401   6.114   8.616   1.300
 3502SOL     OW12402  13.982  11.825  10.560
 3502SOL    HW112403  13.950  11.749  10.512
 3502SOL    HW212404  14.060  11.853  10.513
 3503SOL     OW12405  13.872  11.529   5.795
 3503SOL    HW112406  13.924  11.450   5.808
 3503SOL    HW212407  13.842  11.524   5.704
 3504SOL     OW12408  13.836  13.533   6.466
 3504SOL    HW112409  13.923  13.494   6.469
 3504SOL    HW212410  13.782  13.469   6.420
 3505SOL     OW12411  11.174  13.929  13.774
 3505SOL    HW112412  11.203  13.899  13.688
 3505SOL    HW212413  11.135  13.851  13.814
 3506SOL     OW12414  14.589  12.425   8.690
 3506SOL    HW112415  14.517  12.474   8.731
 3506SOL    HW212416  14.621  12.368   8.760
 3507SOL     OW12417   2.132  13.222   6.511
 3507SOL    HW112418   2.053  13.212   6.457
 3507SOL    HW212419   2.203  13.235   6.448
 3508SOL     OW12420   5.276   7.715   2.002
 3508SOL    HW112421   5.338   7.713   2.075
 3508SOL    HW212422   5.221   7.791   2.019
 3509SOL     OW12423  13.936  11.280   9.115
 3509SOL    HW112424  14.013  11.224   9.116
 3509SOL    HW212425  13.931  11.313   9.025
 3510SOL     OW12426   3.235   9.250  11.108
 3510SOL    HW112427   3.182   9.323  11.142
 3510SOL    HW212428   3.298   9.291  11.050
 3511SOL     OW12429   3.812   8.267   4.551
 3511SOL    HW112430   3.866   8.339   4.585
 3511SOL    HW212431   3.867   8.226   4.484
 3512SOL     OW12432   7.100   3.912   3.254
 3512SOL    HW112433   7.073   3.974   3.322
 3512SOL    HW212434   7.195   3.908   3.262
 3513SOL     OW12435   3.247  13.696   4.944
 3513SOL    HW112436   3.202  13.731   5.021
 3513SOL    HW212437   3.288  13.772   4.903
 3514SOL     OW12438  12.680   2.955   7.087
 3514SOL    HW112439  12.710   3.000   7.166
 3514SOL    HW212440  12.745   2.887   7.071
 3515SOL     OW12441  11.596   0.420  10.593
 3515SOL    HW112442  11.643   0.433  10.675
 3515SOL    HW212443  11.522   0.481  10.597
 3516SOL     OW12444   4.262   1.432   8.530
 3516SOL    HW112445   4.261   1.523   8.559
 3516SOL    HW212446   4.262   1.381   8.611
 3517SOL     OW12447   6.737  14.675  14.718
 3517SOL    HW112448   6.817  14.726  14.732
 3517SOL    HW212449   6.668  14.741  14.713
 3518SOL     OW12450   4.525   8.615   5.607
 3518SOL    HW112451   4.449   8.556   5.605
 3518SOL    HW212452   4.541   8.628   5.701
 3519SOL     OW12453   9.118   6.003   1.162
 3519SOL    HW112454   9.181   6.053   1.214
 3519SOL    HW212455   9.159   5.917   1.151
 3520SOL     OW12456  14.232   9.503  13.033
 3520SOL    HW112457  14.288   9.508  12.956
 3520SOL    HW212458  14.159   9.448  13.006
 3521SOL     OW12459  14.850  13.822   2.715
 3521SOL    HW112460  14.771  13.876   2.728
 3521SOL    HW212461  14.870  13.832   2.622
 3522SOL     OW12462   0.946  12.820   5.290
 3522SOL    HW112463   1.001  12.859   5.223
 3522SOL    HW212464   0.949  12.726   5.272
 3523SOL     OW12465   2.851   1.942   3.383
 3523SOL    HW112466   2.800   2.009   3.429
 3523SOL    HW212467   2.940   1.953   3.415
 3524SOL     OW12468  13.132  13.181   7.020
 3524SOL    HW112469  13.063  13.242   7.046
 3524SOL    HW212470  13.087  13.097   7.009
 3525SOL     OW12471   8.281   3.698   8.506
 3525SOL    HW112472   8.268   3.790   8.483
 3525SOL    HW212473   8.275   3.651   8.423
 3526SOL     OW12474   1.100   2.298   1.582
 3526SOL    HW112475   1.121   2.320   1.491
 3526SOL    HW212476   1.178   2.252   1.614
 3527SOL     OW12477   9.487  12.679  12.249
 3527SOL    HW112478   9.496  12.585  12.265
 3527SOL    HW212479   9.462  12.715  12.334
 3528SOL     OW12480   1.062   9.116   2.243
 3528SOL    HW112481   1.136   9.057   2.226
 3528SOL    HW212482   1.079   9.152   2.330
 3529SOL     OW12483  11.314   7.960   1.698
 3529SOL    HW112484  11.321   7.909   1.779
 3529SOL    HW212485  11.240   8.019   1.713
 3530SOL     OW12486   6.214  10.700   1.118
 3530SOL    HW112487   6.268  10.635   1.162
 3530SOL    HW212488   6.276  10.764   1.084
 3531SOL     OW12489  12.798   5.969   1.960
 3531SOL    HW112490  12.786   5.991   2.053
 3531SOL    HW212491  12.880   6.011   1.936
 3532SOL     OW12492  13.023  12.993  11.616
 3532SOL    HW112493  13.088  12.970  11.683
 3532SOL    HW212494  12.983  13.073  11.650
 3533SOL     OW12495   4.134   9.811   6.749
 3533SOL    HW112496   4.202   9.775   6.692
 3533SOL    HW212497   4.165   9.899   6.772
 3534SOL     OW12498   4.159  10.489  13.089
 3534SOL    HW112499   4.243  10.489  13.134
 3534SOL    HW212500   4.139  10.581  13.075
 3535SOL     OW12501   9.059  13.582  14.503
 3535SOL    HW112502   9.032  13.638  14.430
 3535SOL    HW212503   9.044  13.493  14.472
 3536SOL     OW12504  11.787  10.041   4.212
 3536SOL    HW112505  11.709  10.093   4.229
 3536SOL    HW212506  11.860  10.098   4.238
 3537SOL     OW12507  13.833  11.186   9.659
 3537SOL    HW112508  13.745  11.173   9.623
 3537SOL    HW212509  13.872  11.099   9.659
 3538SOL     OW12510   9.822   8.153  13.472
 3538SOL    HW112511   9.732   8.125  13.490
 3538SOL    HW212512   9.829   8.238  13.516
 3539SOL     OW12513   3.070   9.701  10.244
 3539SOL    HW112514   2.980   9.714  10.214
 3539SOL    HW212515   3.061   9.643  10.320
 3540SOL     OW12516   7.338   5.823  12.911
 3540SOL    HW112517   7.277   5.817  12.984
 3540SOL    HW212518   7.382   5.907  12.923
 3541SOL     OW12519   7.741   4.499   7.442
 3541SOL    HW112520   7.725   4.591   7.463
 3541SOL    HW212521   7.780   4.500   7.354
 3542SOL     OW12522   6.778   8.392  13.338
 3542SOL    HW112523   6.832   8.354  13.269
 3542SOL    HW212524   6.824   8.473  13.361
 3543SOL     OW12525  10.421   2.502  14.874
 3543SOL    HW112526  10.336   2.547  14.871
 3543SOL    HW212527  10.464   2.526  14.792
 3544SOL     OW12528   1.233   1.141  10.501
 3544SOL    HW112529   1.289   1.076  10.459
 3544SOL    HW212530   1.155   1.093  10.527
 3545SOL     OW12531   5.774   1.340  13.424
 3545SOL    HW112532   5.715   1.415  13.422
 3545SOL    HW212533   5.717   1.266  13.446
 3546SOL     OW12534   1.819   0.199  14.727
 3546SOL    HW112535   1.761   0.150  14.785
 3546SOL    HW212536   1.777   0.195  14.641
 3547SOL     OW12537   0.856   6.834   7.918
 3547SOL    HW112538   0.869   6.743   7.944
 3547SOL    HW212539   0.936   6.857   7.871
 3548SOL     OW12540  10.561   5.980   1.965
 3548SOL    HW112541  10.515   5.902   1.934
 3548SOL    HW212542  10.563   5.971   2.060
 3549SOL     OW12543   8.695   3.711  11.224
 3549SOL    HW112544   8.787   3.696  11.247
 3549SOL    HW212545   8.682   3.660  11.144
 3550SOL     OW12546   0.609  10.029  14.777
 3550SOL    HW112547   0.603  10.000  14.686
 3550SOL    HW212548   0.519  10.033  14.807
 3551SOL     OW12549   6.485   4.738  12.290
 3551SOL    HW112550   6.504   4.721  12.382
 3551SOL    HW212551   6.404   4.790  12.291
 3552SOL     OW12552  12.662  10.782   2.398
 3552SOL    HW112553  12.698  10.714   2.340
 3552SOL    HW212554  12.738  10.812   2.448
 3553SOL     OW12555   8.198   8.125   0.666
 3553SOL    HW112556   8.189   8.053   0.603
 3553SOL    HW212557   8.111   8.163   0.672
 3554SOL     OW12558   8.303  13.407  14.062
 3554SOL    HW112559   8.299  13.312  14.049
 3554SOL    HW212560   8.214  13.437  14.043
 3555SOL     OW12561  12.129   4.613  10.787
 3555SOL    HW112562  12.065   4.615  10.858
 3555SOL    HW212563  12.177   4.695  10.794
 3556SOL     OW12564   5.922  13.522  11.227
 3556SOL    HW112565   5.850  13.560  11.277
 3556SOL    HW212566   5.998  13.530  11.284
 3557SOL     OW12567   1.563  14.672   7.855
 3557SOL    HW112568   1.474  14.682   7.889
 3557SOL    HW212569   1.612  14.744   7.894
 3558SOL     OW12570  13.577   2.568   5.142
 3558SOL    HW112571  13.659   2.525   5.121
 3558SOL    HW212572  13.531   2.576   5.059
 3559SOL     OW12573   6.739  12.506   4.179
 3559SOL    HW112574   6.814  12.564   4.195
 3559SOL    HW212575   6.672  12.537   4.240
 3560SOL     OW12576  11.027  12.075  13.088
 3560SOL    HW112577  11.109  12.119  13.111
 3560SOL    HW212578  11.023  12.000  13.148
 3561SOL     OW12579  14.736   8.946   4.761
 3561SOL    HW112580  14.758   8.915   4.849
 3561SOL    HW212581  14.728   9.041   4.770
 3562SOL     OW12582  10.120   8.179   8.088
 3562SOL    HW112583  10.039   8.137   8.117
 3562SOL    HW212584  10.183   8.160   8.158
 3563SOL     OW12585  10.273   5.237   2.274
 3563SOL    HW112586  10.326   5.187   2.212
 3563SOL    HW212587  10.336   5.270   2.338
 3564SOL     OW12588   1.238   5.288   8.811
 3564SOL    HW112589   1.202   5.360   8.864
 3564SOL    HW212590   1.328   5.315   8.793
 3565SOL     OW12591   3.755   4.493  10.745
 3565SOL    HW112592   3.820   4.425  10.768
 3565SOL    HW212593   3.763   4.500  10.650
 3566SOL     OW12594  13.867  10.878   3.963
 3566SOL    HW112595  13.953  10.891   4.002
 3566SOL    HW212596  13.860  10.783   3.951
 3567SOL     OW12597  12.608   4.837   0.568
 3567SOL    HW112598  12.547   4.843   0.641
 3567SOL    HW212599  12.689   4.803   0.607
 3568SOL     OW12600   1.970  13.099   1.073
 3568SOL    HW112601   2.046  13.134   1.119
 3568SOL    HW212602   2.006  13.055   0.996
 3569SOL     OW12603   2.437   6.600   6.309
 3569SOL    HW112604   2.470   6.670   6.253
 3569SOL    HW212605   2.490   6.523   6.285
 3570SOL     OW12606  11.029   5.882  14.801
 3570SOL    HW112607  11.121   5.863  14.778
 3570SOL    HW212608  10.980   5.808  14.766
 3571SOL     OW12609   7.187  13.087  10.910
 3571SOL    HW112610   7.127  13.161  10.892
 3571SOL    HW212611   7.147  13.042  10.985
 3572SOL     OW12612   1.721  12.766   3.719
 3572SOL    HW112613   1.650  12.785   3.658
 3572SOL    HW212614   1.747  12.852   3.754
 3573SOL     OW12615   7.005   5.313   3.777
 3573SOL    HW112616   6.989   5.407   3.771
 3573SOL    HW212617   7.041   5.300   3.865
 3574SOL     OW12618   6.555   7.849   4.936
 3574SOL    HW112619   6.567   7.919   4.872
 3574SOL    HW212620   6.471   7.869   4.977
 3575SOL     OW12621  11.984   2.854   8.023
 3575SOL    HW112622  12.000   2.945   7.995
 3575SOL    HW212623  12.071   2.816   8.032
 3576SOL     OW12624   8.280   0.160   5.259
 3576SOL    HW112625   8.285   0.094   5.190
 3576SOL    HW212626   8.371   0.182   5.278
 3577SOL     OW12627   4.173   1.084   9.821
 3577SOL    HW112628   4.103   1.020   9.835
 3577SOL    HW212629   4.127   1.167   9.806
 3578SOL     OW12630   5.149   8.498   6.165
 3578SOL    HW112631   5.191   8.567   6.114
 3578SOL    HW212632   5.204   8.421   6.152
 3579SOL     OW12633   9.656   0.823  13.556
 3579SOL    HW112634   9.580   0.765  13.556
 3579SOL    HW212635   9.669   0.846  13.648
 3580SOL     OW12636   3.626   5.129   5.341
 3580SOL    HW112637   3.570   5.111   5.265
 3580SOL    HW212638   3.574   5.190   5.394
 3581SOL     OW12639   1.239  13.863   3.974
 3581SOL    HW112640   1.189  13.916   4.036
 3581SOL    HW212641   1.312  13.919   3.947
 3582SOL     OW12642  11.015   8.145   6.356
 3582SOL    HW112643  11.063   8.069   6.388
 3582SOL    HW212644  10.936   8.109   6.316
 3583SOL     OW12645   1.172   2.511  12.835
 3583SOL    HW112646   1.249   2.461  12.810
 3583SOL    HW212647   1.169   2.505  12.930
 3584SOL     OW12648   2.463   2.308   4.269
 3584SOL    HW112649   2.395   2.342   4.211
 3584SOL    HW212650   2.457   2.363   4.347
 3585SOL     OW12651   1.113   1.592   3.901
 3585SOL    HW112652   1.112   1.520   3.838
 3585SOL    HW212653   1.175   1.564   3.968
 3586SOL     OW12654   4.174   2.782   4.311
 3586SOL    HW112655   4.230   2.812   4.239
 3586SOL    HW212656   4.110   2.852   4.322
 3587SOL     OW12657  11.009  14.631   2.447
 3587SOL    HW112658  10.966  14.602   2.528
 3587SOL    HW212659  10.939  14.670   2.395
 3588SOL     OW12660   7.904   3.317   8.809
 3588SOL    HW112661   7.892   3.399   8.761
 3588SOL    HW212662   7.920   3.251   8.742
 3589SOL     OW12663   7.853   5.848   9.173
 3589SOL    HW112664   7.840   5.853   9.268
 3589SOL    HW212665   7.895   5.931   9.150
 3590SOL     OW12666   9.519   3.794  13.017
 3590SOL    HW112667   9.474   3.794  13.102
 3590SOL    HW212668   9.540   3.702  13.001
 3591SOL     OW12669   1.363  10.612   0.393
 3591SOL    HW112670   1.448  10.634   0.353
 3591SOL    HW212671   1.309  10.582   0.319
 3592SOL     OW12672   6.578  12.191   2.561
 3592SOL    HW112673   6.513  12.132   2.599
 3592SOL    HW212674   6.549  12.204   2.471
 3593SOL     OW12675   4.388   5.886  10.722
 3593SOL    HW112676   4.374   5.928  10.637
 3593SOL    HW212677   4.431   5.954  10.775
 3594SOL     OW12678   4.240  11.815   8.653
 3594SOL    HW112679   4.204  11.902   8.670
 3594SOL    HW212680   4.211  11.762   8.727
 3595SOL     OW12681   7.690  11.823   1.449
 3595SOL    HW112682   7.654  11.743   1.410
 3595SOL    HW212683   7.682  11.889   1.381
 3596SOL     OW12684   8.754   5.026   0.515
 3596SOL    HW112685   8.800   5.036   0.599
 3596SOL    HW212686   8.664   5.053   0.534
 3597SOL     OW12687  13.903  13.884   3.000
 3597SOL    HW112688  13.824  13.862   3.050
 3597SOL    HW212689  13.946  13.800   2.985
 3598SOL     OW12690   6.853   9.124   9.351
 3598SOL    HW112691   6.785   9.084   9.297
 3598SOL    HW212692   6.915   9.053   9.368
 3599SOL     OW12693   2.745   8.770  11.828
 3599SOL    HW112694   2.652   8.766  11.808
 3599SOL    HW212695   2.786   8.796  11.745
 3600SOL     OW12696   7.615  11.128   5.637
 3600SOL    HW112697   7.585  11.057   5.693
 3600SOL    HW212698   7.634  11.086   5.553
 3601SOL     OW12699   5.953  12.513   1.090
 3601SOL    HW112700   6.036  12.494   1.135
 3601SOL    HW212701   5.980  12.558   1.010
 3602SOL     OW12702   2.705   7.682   6.238
 3602SOL    HW112703   2.787   7.665   6.192
 3602SOL    HW212704   2.723   7.658   6.329
 3603SOL     OW12705   6.092   7.056  14.850
 3603SOL    HW112706   6.040   7.102   0.038
 3603SOL    HW212707   6.177   7.099  14.852
 3604SOL     OW12708   1.421   0.824  13.368
 3604SOL    HW112709   1.401   0.730  13.367
 3604SOL    HW212710   1.408   0.850  13.460
 3605SOL     OW12711  13.319   6.702   4.574
 3605SOL    HW112712  13.336   6.613   4.542
 3605SOL    HW212713  13.224   6.711   4.570
 3606SOL     OW12714   3.873  11.986   4.880
 3606SOL    HW112715   3.919  11.902   4.871
 3606SOL    HW212716   3.871  12.003   4.974
 3607SOL     OW12717   5.178  12.592  10.055
 3607SOL    HW112718   5.248  12.535  10.087
 3607SOL    HW212719   5.156  12.647  10.130
 3608SOL     OW12720   9.381  13.560  12.190
 3608SOL    HW112721   9.313  13.621  12.163
 3608SOL    HW212722   9.423  13.533  12.109
 3609SOL     OW12723  12.545  11.781  11.975
 3609SOL    HW112724  12.527  11.875  11.969
 3609SOL    HW212725  12.539  11.750  11.885
 3610SOL     OW12726   0.674   5.034   4.484
 3610SOL    HW112727   0.667   5.033   4.389
 3610SOL    HW212728   0.591   4.997   4.515
 3611SOL     OW12729   3.638  11.228  13.113
 3611SOL    HW112730   3.622  11.322  13.097
 3611SOL    HW212731   3.728  11.214  13.086
 3612SOL     OW12732  13.291   7.997   9.890
 3612SOL    HW112733  13.346   8.047   9.831
 3612SOL    HW212734  13.245   7.935   9.833
 3613SOL     OW12735   6.530   2.142   4.615
 3613SOL    HW112736   6.463   2.156   4.682
 3613SOL    HW212737   6.560   2.230   4.593
 3614SOL     OW12738   9.666   3.573  11.416
 3614SOL    HW112739   9.726   3.602  11.347
 3614SOL    HW212740   9.603   3.518  11.370
 3615SOL     OW12741  10.187   5.064   0.743
 3615SOL    HW112742  10.238   5.135   0.782
 3615SOL    HW212743  10.251   5.009   0.699
 3616SOL     OW12744   5.321   7.502   6.210
 3616SOL    HW112745   5.270   7.554   6.148
 3616SOL    HW212746   5.408   7.542   6.208
 3617SOL     OW12747   7.640  12.199   9.089
 3617SOL    HW112748   7.667  12.255   9.016
 3617SOL    HW212749   7.721  12.184   9.139
 3618SOL     OW12750  11.462   5.322  14.386
 3618SOL    HW112751  11.402   5.307  14.460
 3618SOL    HW212752  11.475   5.416  14.384
 3619SOL     OW12753   7.129   2.325   7.083
 3619SOL    HW112754   7.144   2.239   7.122
 3619SOL    HW212755   7.136   2.386   7.156
 3620SOL     OW12756   7.152  11.610  10.211
 3620SOL    HW112757   7.118  11.689  10.169
 3620SOL    HW212758   7.165  11.635  10.302
 3621SOL     OW12759  11.716   8.387   2.731
 3621SOL    HW112760  11.707   8.368   2.824
 3621SOL    HW212761  11.786   8.329   2.701
 3622SOL     OW12762   3.353   7.230   4.927
 3622SOL    HW112763   3.382   7.252   5.016
 3622SOL    HW212764   3.333   7.314   4.887
 3623SOL     OW12765  11.935   1.537   4.054
 3623SOL    HW112766  11.892   1.621   4.039
 3623SOL    HW212767  11.898   1.479   3.987
 3624SOL     OW12768  12.652  12.891  14.264
 3624SOL    HW112769  12.625  12.970  14.216
 3624SOL    HW212770  12.573  12.861  14.308
 3625SOL     OW12771  13.693   6.308  14.563
 3625SOL    HW112772  13.726   6.392  14.596
 3625SOL    HW212773  13.701   6.248  14.638
 3626SOL     OW12774  10.894  11.310   7.427
 3626SOL    HW112775  10.858  11.267   7.350
 3626SOL    HW212776  10.884  11.245   7.497
 3627SOL     OW12777   2.548   0.253   6.401
 3627SOL    HW112778   2.505   0.242   6.316
 3627SOL    HW212779   2.639   0.231   6.385
 3628SOL     OW12780   4.170  12.111   9.620
 3628SOL    HW112781   4.145  12.019   9.627
 3628SOL    HW212782   4.087  12.158   9.610
 3629SOL     OW12783   7.531  14.678   8.874
 3629SOL    HW112784   7.463  14.734   8.836
 3629SOL    HW212785   7.485  14.621   8.934
 3630SOL     OW12786   7.709   9.690  12.774
 3630SOL    HW112787   7.639   9.641  12.731
 3630SOL    HW212788   7.670   9.721  12.855
 3631SOL     OW12789  14.127   0.354   9.088
 3631SOL    HW112790  14.124   0.379   9.180
 3631SOL    HW212791  14.180   0.422   9.046
 3632SOL     OW12792  10.156   3.497   7.596
 3632SOL    HW112793  10.210   3.455   7.663
 3632SOL    HW212794  10.067   3.490   7.629
 3633SOL     OW12795  14.004  14.159   8.410
 3633SOL    HW112796  13.919  14.123   8.383
 3633SOL    HW212797  14.066  14.125   8.346
 3634SOL     OW12798   8.970  12.723   7.095
 3634SOL    HW112799   9.061  12.753   7.092
 3634SOL    HW212800   8.956  12.680   7.011
 3635SOL     OW12801   5.585   1.433   5.944
 3635SOL    HW112802   5.502   1.443   5.991
 3635SOL    HW212803   5.608   1.341   5.955
 3636SOL     OW12804   8.909   2.747   3.135
 3636SOL    HW112805   8.854   2.806   3.186
 3636SOL    HW212806   8.963   2.805   3.082
 3637SOL     OW12807   1.847  11.017   7.385
 3637SOL    HW112808   1.899  11.074   7.328
 3637SOL    HW212809   1.910  10.978   7.445
 3638SOL     OW12810   2.030   2.761   7.626
 3638SOL    HW112811   2.029   2.707   7.705
 3638SOL    HW212812   2.105   2.820   7.639
 3639SOL     OW12813   1.600   8.879   7.035
 3639SOL    HW112814   1.612   8.827   6.956
 3639SOL    HW212815   1.638   8.826   7.105
 3640SOL     OW12816  10.276  11.224  13.101
 3640SOL    HW112817  10.200  11.238  13.158
 3640SOL    HW212818  10.335  11.171  13.154
 3641SOL     OW12819  11.412   2.772   0.934
 3641SOL    HW112820  11.460   2.781   0.851
 3641SOL    HW212821  11.481   2.764   1.000
 3642SOL     OW12822  14.870   4.201  13.876
 3642SOL    HW112823  14.791   4.242  13.912
 3642SOL    HW212824  14.857   4.202  13.782
 3643SOL     OW12825   3.771   5.676   4.511
 3643SOL    HW112826   3.762   5.626   4.430
 3643SOL    HW212827   3.848   5.731   4.496
 3644SOL     OW12828   1.755   4.344  10.602
 3644SOL    HW112829   1.731   4.433  10.578
 3644SOL    HW212830   1.849   4.347  10.616
 3645SOL     OW12831   9.522   5.214   7.861
 3645SOL    HW112832   9.580   5.287   7.839
 3645SOL    HW212833   9.476   5.242   7.940
 3646SOL     OW12834   2.021  14.034  10.250
 3646SOL    HW112835   2.046  13.942  10.246
 3646SOL    HW212836   2.031  14.057  10.342
 3647SOL     OW12837   9.637  13.470   5.114
 3647SOL    HW112838   9.670  13.441   5.199
 3647SOL    HW212839   9.704  13.442   5.052
 3648SOL     OW12840  13.679   9.972   1.535
 3648SOL    HW112841  13.651   9.979   1.444
 3648SOL    HW212842  13.704  10.061   1.560
 3649SOL     OW12843   2.528  14.843   2.751
 3649SOL    HW112844   2.501   0.029   2.818
 3649SOL    HW212845   2.516  14.758   2.792
 3650SOL     OW12846   6.156  10.503   6.257
 3650SOL    HW112847   6.127  10.531   6.170
 3650SOL    HW212848   6.158  10.583   6.309
 3651SOL     OW12849  11.154  13.584   0.035
 3651SOL    HW112850  11.149  13.674   0.002
 3651SOL    HW212851  11.175  13.532  14.835
 3652SOL     OW12852   0.473   5.691   2.589
 3652SOL    HW112853   0.502   5.763   2.645
 3652SOL    HW212854   0.427   5.632   2.648
 3653SOL     OW12855   6.350   0.981  13.672
 3653SOL    HW112856   6.381   1.069  13.651
 3653SOL    HW212857   6.255   0.990  13.682
 3654SOL     OW12858   7.427  13.449   6.612
 3654SOL    HW112859   7.425  13.437   6.517
 3654SOL    HW212860   7.352  13.399   6.645
 3655SOL     OW12861   0.515   2.171  13.738
 3655SOL    HW112862   0.543   2.100  13.681
 3655SOL    HW212863   0.451   2.220  13.687
 3656SOL     OW12864   2.029  10.398   3.940
 3656SOL    HW112865   2.119  10.368   3.926
 3656SOL    HW212866   1.989  10.329   3.993
 3657SOL     OW12867   4.175   2.868   8.443
 3657SOL    HW112868   4.211   2.911   8.521
 3657SOL    HW212869   4.204   2.923   8.370
 3658SOL     OW12870   9.847  11.666   0.991
 3658SOL    HW112871   9.897  11.735   0.947
 3658SOL    HW212872   9.760  11.670   0.950
 3659SOL     OW12873  13.793   9.137   2.055
 3659SOL    HW112874  13.815   9.053   2.096
 3659SOL    HW212875  13.751   9.187   2.124
 3660SOL     OW12876  14.413   5.759  12.929
 3660SOL    HW112877  14.501   5.721  12.930
 3660SOL    HW212878  14.400   5.791  13.019
 3661SOL     OW12879   5.321   0.463   6.304
 3661SOL    HW112880   5.290   0.505   6.385
 3661SOL    HW212881   5.353   0.378   6.333
 3662SOL     OW12882   7.931   8.968  12.403
 3662SOL    HW112883   7.863   8.933  12.460
 3662SOL    HW212884   8.011   8.967  12.456
 3663SOL     OW12885   4.083   3.267   0.997
 3663SOL    HW112886   4.080   3.284   0.902
 3663SOL    HW212887   4.106   3.175   1.004
 3664SOL     OW12888   0.531   1.015   6.843
 3664SOL    HW112889   0.475   1.060   6.780
 3664SOL    HW212890   0.605   0.984   6.792
 3665SOL     OW12891  10.040  10.381   9.592
 3665SOL    HW112892  10.030  10.452   9.528
 3665SOL    HW212893   9.953  10.343   9.600
 3666SOL     OW12894   0.653   6.052   2.346
 3666SOL    HW112895   0.633   5.958   2.348
 3666SOL    HW212896   0.743   6.057   2.380
 3667SOL     OW12897  13.434   6.289   3.176
 3667SOL    HW112898  13.398   6.230   3.110
 3667SOL    HW212899  13.404   6.252   3.259
 3668SOL     OW12900   8.368   6.382  12.651
 3668SOL    HW112901   8.369   6.458  12.594
 3668SOL    HW212902   8.454   6.342  12.639
 3669SOL     OW12903   9.337   3.032   8.262
 3669SOL    HW112904   9.412   3.005   8.209
 3669SOL    HW212905   9.272   2.963   8.249
 3670SOL     OW12906   4.360   4.223   3.634
 3670SOL    HW112907   4.299   4.150   3.647
 3670SOL    HW212908   4.395   4.240   3.721
 3671SOL     OW12909  14.788   5.311  12.780
 3671SOL    HW112910   0.005   5.315  12.768
 3671SOL    HW212911  14.752   5.364  12.708
 3672SOL     OW12912  12.272  14.568  10.850
 3672SOL    HW112913  12.298  14.537  10.937
 3672SOL    HW212914  12.213  14.641  10.867
 3673SOL     OW12915  14.831   3.198   0.553
 3673SOL    HW112916   0.043   3.216   0.523
 3673SOL    HW212917  14.836   3.111   0.594
 3674SOL     OW12918  10.203   9.329  12.216
 3674SOL    HW112919  10.157   9.267  12.160
 3674SOL    HW212920  10.172   9.308  12.305
 3675SOL     OW12921  13.836   6.774  12.361
 3675SOL    HW112922  13.866   6.828  12.288
 3675SOL    HW212923  13.764   6.823  12.400
 3676SOL     OW12924   2.943  11.383  13.539
 3676SOL    HW112925   3.021  11.425  13.503
 3676SOL    HW212926   2.871  11.421  13.489
 3677SOL     OW12927   1.106  14.033   2.355
 3677SOL    HW112928   1.069  13.946   2.341
 3677SOL    HW212929   1.122  14.067   2.267
 3678SOL     OW12930   7.236   9.193   6.615
 3678SOL    HW112931   7.171   9.229   6.676
 3678SOL    HW212932   7.316   9.187   6.666
 3679SOL     OW12933  11.888  13.534  14.826
 3679SOL    HW112934  11.794  13.529  14.813
 3679SOL    HW212935  11.899  13.576   0.033
 3680SOL     OW12936  14.555   5.907  11.708
 3680SOL    HW112937  14.501   5.871  11.638
 3680SOL    HW212938  14.644   5.908  11.672
 3681SOL     OW12939  11.949   1.856   3.974
 3681SOL    HW112940  11.877   1.859   4.036
 3681SOL    HW212941  11.909   1.824   3.893
 3682SOL     OW12942   6.861  10.894   9.588
 3682SOL    HW112943   6.862  10.952   9.512
 3682SOL    HW212944   6.951  10.861   9.593
 3683SOL     OW12945  11.495   4.988   1.213
 3683SOL    HW112946  11.423   4.973   1.153
 3683SOL    HW212947  11.555   5.045   1.164
 3684SOL     OW12948   8.301   4.870   9.445
 3684SOL    HW112949   8.309   4.787   9.491
 3684SOL    HW212950   8.307   4.937   9.513
 3685SOL     OW12951   6.708   7.671  10.022
 3685SOL    HW112952   6.775   7.631  10.078
 3685SOL    HW212953   6.749   7.676   9.936
 3686SOL     OW12954   0.152   6.135  13.759
 3686SOL    HW112955   0.224   6.073  13.755
 3686SOL    HW212956   0.101   6.110  13.836
 3687SOL     OW12957  11.643  14.283   0.154
 3687SOL    HW112958  11.671  14.367   0.116
 3687SOL    HW212959  11.680  14.283   0.242
 3688SOL     OW12960   0.600   5.378   8.091
 3688SOL    HW112961   0.566   5.467   8.101
 3688SOL    HW212962   0.565   5.330   8.165
 3689SOL     OW12963  11.413   1.652  14.438
 3689SOL    HW112964  11.505   1.639  14.461
 3689SOL    HW212965  11.384   1.721  14.498
 3690SOL     OW12966   0.604   0.578   9.857
 3690SOL    HW112967   0.550   0.552   9.782
 3690SOL    HW212968   0.566   0.531   9.931
 3691SOL     OW12969  10.519   9.700  11.024
 3691SOL    HW112970  10.450   9.664  11.080
 3691SOL    HW212971  10.550   9.627  10.972
 3692SOL     OW12972  11.991   6.963   0.767
 3692SOL    HW112973  12.058   7.005   0.822
 3692SOL    HW212974  11.997   7.008   0.683
 3693SOL     OW12975  12.490   5.631   5.762
 3693SOL    HW112976  12.504   5.635   5.857
 3693SOL    HW212977  12.441   5.710   5.742
 3694SOL     OW12978   3.335  11.144  13.290
 3694SOL    HW112979   3.308  11.235  13.294
 3694SOL    HW212980   3.294  11.103  13.366
 3695SOL     OW12981   0.011   5.051   8.665
 3695SOL    HW112982  14.854   4.971   8.624
 3695SOL    HW212983  14.832   5.066   8.741
 3696SOL     OW12984   1.582  12.430  13.499
 3696SOL    HW112985   1.596  12.350  13.551
 3696SOL    HW212986   1.666  12.445  13.455
 3697SOL     OW12987   5.625   8.068   2.484
 3697SOL    HW112988   5.633   7.996   2.422
 3697SOL    HW212989   5.660   8.144   2.438
 3698SOL     OW12990  12.778   9.295   3.766
 3698SOL    HW112991  12.688   9.293   3.798
 3698SOL    HW212992  12.832   9.282   3.844
 3699SOL     OW12993   0.801  14.808   9.107
 3699SOL    HW112994   0.823   0.017   9.142
 3699SOL    HW212995   0.717  14.787   9.147
 3700SOL     OW12996   9.920   8.870   5.393
 3700SOL    HW112997   9.920   8.775   5.402
 3700SOL    HW212998   9.832   8.897   5.416
 3701SOL     OW12999  11.954   0.787   1.877
 3701SOL    HW113000  12.025   0.727   1.853
 3701SOL    HW213001  11.911   0.744   1.951
 3702SOL     OW13002  12.570   7.597   4.256
 3702SOL    HW113003  12.571   7.551   4.172
 3702SOL    HW213004  12.602   7.532   4.319
 3703SOL     OW13005  14.075  12.390   0.063
 3703SOL    HW113006  14.023  12.315   0.093
 3703SOL    HW213007  14.057  12.459   0.126
 3704SOL     OW13008   7.303  14.753   0.407
 3704SOL    HW113009   7.226  14.800   0.374
 3704SOL    HW213010   7.341  14.811   0.472
 3705SOL     OW13011   2.634   7.061  12.944
 3705SOL    HW113012   2.615   6.967  12.946
 3705SOL    HW213013   2.561   7.099  12.894
 3706SOL     OW13014  11.545   2.253   8.997
 3706SOL    HW113015  11.568   2.345   9.010
 3706SOL    HW213016  11.450   2.254   8.985
 3707SOL     OW13017   1.156  10.923   4.922
 3707SOL    HW113018   1.223  10.875   4.971
 3707SOL    HW213019   1.198  11.005   4.897
 3708SOL     OW13020   7.239   1.959  14.579
 3708SOL    HW113021   7.277   1.874  14.557
 3708SOL    HW213022   7.235   1.960  14.675
 3709SOL     OW13023  11.066   2.553  11.835
 3709SOL    HW113024  11.094   2.502  11.911
 3709SOL    HW213025  10.984   2.512  11.807
 3710SOL     OW13026   6.684   8.831   8.899
 3710SOL    HW113027   6.665   8.769   8.828
 3710SOL    HW213028   6.778   8.820   8.915
 3711SOL     OW13029   9.706   8.508  10.838
 3711SOL    HW113030   9.730   8.586  10.888
 3711SOL    HW213031   9.790   8.472  10.810
 3712SOL     OW13032   6.187  11.738  13.276
 3712SOL    HW113033   6.111  11.702  13.230
 3712SOL    HW213034   6.174  11.833  13.273
 3713SOL     OW13035   1.675  10.924  12.017
 3713SOL    HW113036   1.581  10.911  12.010
 3713SOL    HW213037   1.701  10.962  11.934
 3714SOL     OW13038   9.286   7.083  10.859
 3714SOL    HW113039   9.269   7.064  10.767
 3714SOL    HW213040   9.332   7.167  10.857
 3715SOL     OW13041   9.952  10.274   9.109
 3715SOL    HW113042  10.044  10.249   9.111
 3715SOL    HW213043   9.951  10.365   9.082
 3716SOL     OW13044   3.308   1.465   3.701
 3716SOL    HW113045   3.253   1.472   3.779
 3716SOL    HW213046   3.266   1.521   3.636
 3717SOL     OW13047  11.764   3.558   4.721
 3717SOL    HW113048  11.717   3.635   4.753
 3717SOL    HW213049  11.835   3.594   4.668
 3718SOL     OW13050   9.940  14.449   7.684
 3718SOL    HW113051  10.002  14.455   7.612
 3718SOL    HW213052   9.860  14.415   7.643
 3719SOL     OW13053  10.931  13.262   7.640
 3719SOL    HW113054  11.003  13.280   7.579
 3719SOL    HW213055  10.855  13.305   7.601
 3720SOL     OW13056  12.555   8.988   0.091
 3720SOL    HW113057  12.643   8.952   0.097
 3720SOL    HW213058  12.505   8.921   0.045
 3721SOL     OW13059  12.734  14.186  13.733
 3721SOL    HW113060  12.728  14.281  13.744
 3721SOL    HW213061  12.772  14.155  13.815
 3722SOL     OW13062   5.945   7.996   7.418
 3722SOL    HW113063   5.935   8.059   7.346
 3722SOL    HW213064   5.865   7.944   7.416
 3723SOL     OW13065   5.414   7.772  11.214
 3723SOL    HW113066   5.466   7.838  11.258
 3723SOL    HW213067   5.435   7.690  11.259
 3724SOL     OW13068   3.316   3.026   6.776
 3724SOL    HW113069   3.233   3.019   6.729
 3724SOL    HW213070   3.356   2.940   6.767
 3725SOL     OW13071   3.127  14.755   3.574
 3725SOL    HW113072   3.063  14.780   3.508
 3725SOL    HW213073   3.132  14.831   3.632
 3726SOL     OW13074  12.900   3.651   2.268
 3726SOL    HW113075  12.994   3.634   2.279
 3726SOL    HW213076  12.897   3.719   2.200
 3727SOL     OW13077   9.300   9.492  11.602
 3727SOL    HW113078   9.319   9.551  11.529
 3727SOL    HW213079   9.327   9.406  11.569
 3728SOL     OW13080   6.559   1.453   1.430
 3728SOL    HW113081   6.580   1.383   1.492
 3728SOL    HW213082   6.497   1.509   1.477
 3729SOL     OW13083   3.513  12.954   8.078
 3729SOL    HW113084   3.578  13.024   8.070
 3729SOL    HW213085   3.442  12.994   8.129
 3730SOL     OW13086   6.110   8.078   3.917
 3730SOL    HW113087   6.015   8.084   3.914
 3730SOL    HW213088   6.135   8.121   3.999
 3731SOL     OW13089  11.720   1.458   4.791
 3731SOL    HW113090  11.691   1.373   4.823
 3731SOL    HW213091  11.808   1.468   4.825
 3732SOL     OW13092   5.814   8.480   0.788
 3732SOL    HW113093   5.852   8.551   0.736
 3732SOL    HW213094   5.879   8.461   0.855
 3733SOL     OW13095   7.732   4.963  12.603
 3733SOL    HW113096   7.808   4.915  12.570
 3733SOL    HW213097   7.675   4.895  12.639
 3734SOL     OW13098   4.046  14.728   9.365
 3734SOL    HW113099   4.133  14.721   9.405
 3734SOL    HW213100   4.027  14.822   9.367
 3735SOL     OW13101  12.464   5.024   4.089
 3735SOL    HW113102  12.464   4.980   4.004
 3735SOL    HW213103  12.472   5.117   4.069
 3736SOL     OW13104   5.249   4.635   7.320
 3736SOL    HW113105   5.322   4.677   7.275
 3736SOL    HW213106   5.263   4.541   7.306
 3737SOL     OW13107   0.677   0.229   9.672
 3737SOL    HW113108   0.735   0.297   9.706
 3737SOL    HW213109   0.597   0.276   9.649
 3738SOL     OW13110  13.851   6.418   0.293
 3738SOL    HW113111  13.837   6.410   0.387
 3738SOL    HW213112  13.931   6.471   0.285
 3739SOL     OW13113   4.126   4.407   1.133
 3739SOL    HW113114   4.187   4.408   1.059
 3739SOL    HW213115   4.041   4.390   1.095
 3740SOL     OW13116  11.257   9.965   7.691
 3740SOL    HW113117  11.211  10.045   7.664
 3740SOL    HW213118  11.253   9.965   7.786
 3741SOL     OW13119   0.479  13.552   7.468
 3741SOL    HW113120   0.453  13.516   7.383
 3741SOL    HW213121   0.396  13.576   7.510
 3742SOL     OW13122   5.575  14.121   7.018
 3742SOL    HW113123   5.647  14.078   7.064
 3742SOL    HW213124   5.599  14.117   6.925
 3743SOL     OW13125   1.161   0.095  12.679
 3743SOL    HW113126   1.108   0.034  12.627
 3743SOL    HW213127   1.243   0.048  12.694
 3744SOL     OW13128   8.216   4.352   7.201
 3744SOL    HW113129   8.155   4.405   7.150
 3744SOL    HW213130   8.188   4.364   7.291
 3745SOL     OW13131  10.811   1.248   0.874
 3745SOL    HW113132  10.724   1.228   0.908
 3745SOL    HW213133  10.813   1.343   0.866
 3746SOL     OW13134   6.528   1.204  11.016
 3746SOL    HW113135   6.516   1.159  11.100
 3746SOL    HW213136   6.612   1.170  10.983
 3747SOL     OW13137  13.871   6.775   1.519
 3747SOL    HW113138  13.884   6.866   1.496
 3747SOL    HW213139  13.958   6.735   1.511
 3748SOL     OW13140   4.237  10.642   3.606
 3748SOL    HW113141   4.281  10.567   3.646
 3748SOL    HW213142   4.147  10.612   3.593
 3749SOL     OW13143  13.984   9.353   8.939
 3749SOL    HW113144  13.927   9.280   8.963
 3749SOL    HW213145  13.932   9.431   8.958
 3750SOL     OW13146  14.283   1.253  10.065
 3750SOL    HW113147  14.233   1.322  10.108
 3750SOL    HW213148  14.351   1.299  10.016
 3751SOL     OW13149  13.463   7.560  13.468
 3751SOL    HW113150  13.499   7.473  13.455
 3751SOL    HW213151  13.402   7.573  13.395
 3752SOL     OW13152   3.828  11.769   0.934
 3752SOL    HW113153   3.851  11.821   1.010
 3752SOL    HW213154   3.775  11.697   0.968
 3753SOL     OW13155   8.849   5.231   2.102
 3753SOL    HW113156   8.877   5.322   2.089
 3753SOL    HW213157   8.771   5.237   2.156
 3754SOL     OW13158   9.560   3.578   6.515
 3754SOL    HW113159   9.593   3.531   6.591
 3754SOL    HW213160   9.492   3.635   6.549
 3755SOL     OW13161   4.202  11.166  14.061
 3755SOL    HW113162   4.110  11.178  14.084
 3755SOL    HW213163   4.244  11.139  14.142
 3756SOL     OW13164   9.027   5.972   2.993
 3756SOL    HW113165   8.998   5.950   3.082
 3756SOL    HW213166   8.965   5.928   2.936
 3757SOL     OW13167   2.021   4.155   0.066
 3757SOL    HW113168   2.006   4.060   0.065
 3757SOL    HW213169   1.974   4.188  14.868
 3758SOL     OW13170   9.037   6.322   4.197
 3758SOL    HW113171   9.033   6.403   4.146
 3758SOL    HW213172   8.948   6.307   4.227
 3759SOL     OW13173   5.779   2.550   3.628
 3759SOL    HW113174   5.869   2.579   3.615
 3759SOL    HW213175   5.726   2.613   3.580
 3760SOL     OW13176   8.881   9.631   8.824
 3760SOL    HW113177   8.947   9.582   8.776
 3760SOL    HW213178   8.847   9.568   8.888
 3761SOL     OW13179  14.234   1.671   1.303
 3761SOL    HW113180  14.208   1.698   1.215
 3761SOL    HW213181  14.198   1.738   1.360
 3762SOL     OW13182  14.180   6.567   9.580
 3762SOL    HW113183  14.149   6.480   9.607
 3762SOL    HW213184  14.103   6.623   9.588
 3763SOL     OW13185  14.561  13.122   6.911
 3763SOL    HW113186  14.548  13.040   6.862
 3763SOL    HW213187  14.510  13.187   6.864
 3764SOL     OW13188   5.095   2.971  14.841
 3764SOL    HW113189   5.170   2.950  14.786
 3764SOL    HW213190   5.112   2.925   0.046
 3765SOL     OW13191   3.107  11.964   1.260
 3765SOL    HW113192   3.120  11.970   1.354
 3765SOL    HW213193   3.139  11.877   1.236
 3766SOL     OW13194   1.661  14.430   8.717
 3766SOL    HW113195   1.585  14.487   8.708
 3766SOL    HW213196   1.624  14.343   8.735
 3767SOL     OW13197   6.211   3.318   7.889
 3767SOL    HW113198   6.248   3.239   7.848
 3767SOL    HW213199   6.243   3.314   7.980
 3768SOL     OW13200   4.206   3.642  10.764
 3768SOL    HW113201   4.271   3.582  10.729
 3768SOL    HW213202   4.258   3.713  10.803
 3769SOL     OW13203  14.521   5.216   6.981
 3769SOL    HW113204  14.561   5.300   7.003
 3769SOL    HW213205  14.458   5.200   7.050
 3770SOL     OW13206  14.116  10.271   0.141
 3770SOL    HW113207  14.106  10.246   0.232
 3770SOL    HW213208  14.140  10.190   0.096
 3771SOL     OW13209  11.538  13.152   5.792
 3771SOL    HW113210  11.515  13.184   5.879
 3771SOL    HW213211  11.467  13.092   5.769
 3772SOL     OW13212   7.058   2.282  11.292
 3772SOL    HW113213   7.018   2.368  11.279
 3772SOL    HW213214   7.143   2.288  11.250
 3773SOL     OW13215   6.652   3.009   3.746
 3773SOL    HW113216   6.562   3.036   3.766
 3773SOL    HW213217   6.655   3.004   3.650
 3774SOL     OW13218   0.593  11.146  13.337
 3774SOL    HW113219   0.509  11.181  13.305
 3774SOL    HW213220   0.603  11.063  13.290
 3775SOL     OW13221  14.320   7.662  14.068
 3775SOL    HW113222  14.415   7.669  14.053
 3775SOL    HW213223  14.312   7.642  14.161
 3776SOL     OW13224   2.165  10.837   8.599
 3776SOL    HW113225   2.142  10.842   8.691
 3776SOL    HW213226   2.177  10.744   8.582
 3777SOL     OW13227   7.185   7.712   3.680
 3777SOL    HW113228   7.153   7.678   3.596
 3777SOL    HW213229   7.105   7.739   3.726
 3778SOL     OW13230   1.612   2.555   4.775
 3778SOL    HW113231   1.675   2.527   4.842
 3778SOL    HW213232   1.627   2.495   4.701
 3779SOL     OW13233   0.566   1.364  14.221
 3779SOL    HW113234   0.495   1.377  14.157
 3779SOL    HW213235   0.553   1.274  14.252
 3780SOL     OW13236   6.777   1.136   1.089
 3780SOL    HW113237   6.790   1.207   1.151
 3780SOL    HW213238   6.828   1.162   1.012
 3781SOL     OW13239  14.038  10.549  14.755
 3781SOL    HW113240  13.984  10.496  14.812
 3781SOL    HW213241  14.041  10.635  14.798
 3782SOL     OW13242   3.442  14.532  12.587
 3782SOL    HW113243   3.351  14.561  12.593
 3782SOL    HW213244   3.463  14.539  12.493
 3783SOL     OW13245  14.636  14.704   5.595
 3783SOL    HW113246  14.566  14.699   5.531
 3783SOL    HW213247  14.597  14.672   5.677
 3784SOL     OW13248  12.254   6.286   8.120
 3784SOL    HW113249  12.208   6.229   8.182
 3784SOL    HW213250  12.345   6.286   8.150
 3785SOL     OW13251   6.380  10.667   9.474
 3785SOL    HW113252   6.473  10.681   9.459
 3785SOL    HW213253   6.361  10.583   9.433
 3786SOL     OW13254   4.891   3.553   0.645
 3786SOL    HW113255   4.883   3.581   0.736
 3786SOL    HW213256   4.803   3.521   0.621
 3787SOL     OW13257   0.955  10.963   4.181
 3787SOL    HW113258   0.864  10.934   4.191
 3787SOL    HW213259   0.949  11.043   4.129
 3788SOL     OW13260   9.701   2.055  11.143
 3788SOL    HW113261   9.732   2.091  11.060
 3788SOL    HW213262   9.632   2.115  11.171
 3789SOL     OW13263   1.357   8.458   2.738
 3789SOL    HW113264   1.411   8.381   2.722
 3789SOL    HW213265   1.322   8.444   2.827
 3790SOL     OW13266   2.875   8.382  11.369
 3790SOL    HW113267   2.807   8.448  11.385
 3790SOL    HW213268   2.945   8.403  11.431
 3791SOL     OW13269   1.426  14.298   3.860
 3791SOL    HW113270   1.512  14.340   3.858
 3791SOL    HW213271   1.398  14.304   3.951
 3792SOL     OW13272   1.710  13.174   3.904
 3792SOL    HW113273   1.771  13.100   3.902
 3792SOL    HW213274   1.751  13.239   3.846
 3793SOL     OW13275  12.197   2.786   3.106
 3793SOL    HW113276  12.153   2.801   3.022
 3793SOL    HW213277  12.283   2.752   3.082
 3794SOL     OW13278  12.160  11.112   7.911
 3794SOL    HW113279  12.208  11.045   7.959
 3794SOL    HW213280  12.103  11.151   7.977
 3795SOL     OW13281   6.487   1.247   8.585
 3795SOL    HW113282   6.569   1.261   8.538
 3795SOL    HW213283   6.419   1.262   8.519
 3796SOL     OW13284   8.993  13.250   8.144
 3796SOL    HW113285   8.965  13.241   8.235
 3796SOL    HW213286   9.025  13.340   8.138
 3797SOL     OW13287   6.757   0.910   1.234
 3797SOL    HW113288   6.781   0.981   1.173
 3797SOL    HW213289   6.685   0.865   1.191
 3798SOL     OW13290   9.929  14.829  12.555
 3798SOL    HW113291  10.001  14.798  12.500
 3798SOL    HW213292   9.851  14.821  12.499
 3799SOL     OW13293   4.109   9.684   4.451
 3799SOL    HW113294   4.176   9.615   4.454
 3799SOL    HW213295   4.146   9.751   4.393
 3800SOL     OW13296   0.699   8.132   5.207
 3800SOL    HW113297   0.774   8.182   5.239
 3800SOL    HW213298   0.695   8.152   5.114
 3801SOL     OW13299   6.248   0.741  14.810
 3801SOL    HW113300   6.329   0.758  14.762
 3801SOL    HW213301   6.197   0.686  14.751
 3802SOL     OW13302  13.763   7.563   5.886
 3802SOL    HW113303  13.790   7.639   5.834
 3802SOL    HW213304  13.818   7.491   5.855
 3803SOL     OW13305   4.052   7.878  11.713
 3803SOL    HW113306   4.040   7.912  11.624
 3803SOL    HW213307   3.964   7.877  11.750
 3804SOL     OW13308   9.239   4.087  13.902
 3804SOL    HW113309   9.275   4.175  13.919
 3804SOL    HW213310   9.262   4.037  13.980
 3805SOL     OW13311  11.095   8.755  11.563
 3805SOL    HW113312  11.026   8.689  11.562
 3805SOL    HW213313  11.167   8.716  11.513
 3806SOL     OW13314   5.328   1.119  14.331
 3806SOL    HW113315   5.322   1.048  14.266
 3806SOL    HW213316   5.259   1.180  14.305
 3807SOL     OW13317   6.208  10.532  11.811
 3807SOL    HW113318   6.210  10.449  11.763
 3807SOL    HW213319   6.157  10.590  11.755
 3808SOL     OW13320  12.657  14.337   9.884
 3808SOL    HW113321  12.748  14.350   9.856
 3808SOL    HW213322  12.662  14.270   9.952
 3809SOL     OW13323   5.267   5.467  10.387
 3809SOL    HW113324   5.311   5.443  10.468
 3809SOL    HW213325   5.178   5.434  10.398
 3810SOL     OW13326   0.178   6.823   0.010
 3810SOL    HW113327   0.093   6.854  14.854
 3810SOL    HW213328   0.235   6.900   0.006
 3811SOL     OW13329  12.058  12.294   5.961
 3811SOL    HW113330  12.082  12.378   5.921
 3811SOL    HW213331  12.038  12.317   6.052
 3812SOL     OW13332   2.470   4.683   2.950
 3812SOL    HW113333   2.462   4.612   2.886
 3812SOL    HW213334   2.509   4.641   3.027
 3813SOL     OW13335  13.711  11.879   5.228
 3813SOL    HW113336  13.747  11.844   5.146
 3813SOL    HW213337  13.618  11.859   5.223
 3814SOL     OW13338   2.261   7.906   5.625
 3814SOL    HW113339   2.198   7.836   5.611
 3814SOL    HW213340   2.217   7.985   5.592
 3815SOL     OW13341  11.933   3.325   1.915
 3815SOL    HW113342  11.975   3.351   1.998
 3815SOL    HW213343  11.965   3.389   1.851
 3816SOL     OW13344  12.141   3.963  11.192
 3816SOL    HW113345  12.189   3.915  11.259
 3816SOL    HW213346  12.206   4.023  11.154
 3817SOL     OW13347  14.704   2.227   6.400
 3817SOL    HW113348  14.764   2.282   6.450
 3817SOL    HW213349  14.742   2.140   6.405
 3818SOL     OW13350   7.133   8.292   9.162
 3818SOL    HW113351   7.082   8.321   9.238
 3818SOL    HW213352   7.142   8.370   9.108
 3819SOL     OW13353  13.710  11.529  14.441
 3819SOL    HW113354  13.801  11.501  14.454
 3819SOL    HW213355  13.713  11.624  14.446
 3820SOL     OW13356  12.691   9.668   3.630
 3820SOL    HW113357  12.712   9.666   3.723
 3820SOL    HW213358  12.764   9.622   3.588
 3821SOL     OW13359   5.757   0.224  13.632
 3821SOL    HW113360   5.778   0.223  13.726
 3821SOL    HW213361   5.664   0.205  13.628
 3822SOL     OW13362  11.681   2.312   6.140
 3822SOL    HW113363  11.671   2.255   6.063
 3822SOL    HW213364  11.763   2.283   6.180
 3823SOL     OW13365   8.852   4.002  14.867
 3823SOL    HW113366   8.772   4.055  14.872
 3823SOL    HW213367   8.834   3.939  14.797
 3824SOL     OW13368   1.411   2.349   7.710
 3824SOL    HW113369   1.342   2.326   7.772
 3824SOL    HW213370   1.491   2.350   7.762
 3825SOL     OW13371  13.017   8.210   8.820
 3825SOL    HW113372  12.948   8.217   8.885
 3825SOL    HW213373  12.972   8.192   8.738
 3826SOL     OW13374   4.621   4.463   6.015
 3826SOL    HW113375   4.679   4.503   5.950
 3826SOL    HW213376   4.597   4.535   6.073
 3827SOL     OW13377  11.128   9.375   6.874
 3827SOL    HW113378  11.051   9.390   6.820
 3827SOL    HW213379  11.178   9.308   6.827
 3828SOL     OW13380   4.270   4.503   8.839
 3828SOL    HW113381   4.281   4.595   8.815
 3828SOL    HW213382   4.344   4.459   8.798
 3829SOL     OW13383   4.860   5.127   1.811
 3829SOL    HW113384   4.882   5.077   1.733
 3829SOL    HW213385   4.919   5.095   1.879
 3830SOL     OW13386   7.814  11.057  13.368
 3830SOL    HW113387   7.782  11.132  13.417
 3830SOL    HW213388   7.881  11.093  13.310
 3831SOL     OW13389   0.832  12.640   1.620
 3831SOL    HW113390   0.773  12.572   1.652
 3831SOL    HW213391   0.821  12.712   1.682
 3832SOL     OW13392   0.188  10.146  12.095
 3832SOL    HW113393   0.187  10.080  12.026
 3832SOL    HW213394   0.117  10.205  12.073
 3833SOL     OW13395   3.251   8.352   6.894
 3833SOL    HW113396   3.232   8.309   6.811
 3833SOL    HW213397   3.187   8.423   6.900
 3834SOL     OW13398  10.653   4.260   6.268
 3834SOL    HW113399  10.695   4.195   6.212
 3834SOL    HW213400  10.676   4.232   6.357
 3835SOL     OW13401   4.403  13.214   7.126
 3835SOL    HW113402   4.323  13.211   7.074
 3835SOL    HW213403   4.473  13.220   7.062
 3836SOL     OW13404   9.416  12.593   1.889
 3836SOL    HW113405   9.366  12.514   1.911
 3836SOL    HW213406   9.466  12.612   1.968
 3837SOL     OW13407  10.268  10.089   1.058
 3837SOL    HW113408  10.215  10.154   1.011
 3837SOL    HW213409  10.344  10.074   1.001
 3838SOL     OW13410   1.510  11.241  11.673
 3838SOL    HW113411   1.488  11.292  11.750
 3838SOL    HW213412   1.595  11.277  11.644
 3839SOL     OW13413   3.699   1.144  11.181
 3839SOL    HW113414   3.662   1.223  11.143
 3839SOL    HW213415   3.680   1.075  11.117
 3840SOL     OW13416   3.250   6.842   9.156
 3840SOL    HW113417   3.338   6.838   9.117
 3840SOL    HW213418   3.265   6.829   9.250
 3841SOL     OW13419   2.979  11.024  12.603
 3841SOL    HW113420   2.906  10.989  12.551
 3841SOL    HW213421   2.948  11.110  12.633
 3842SOL     OW13422   7.072   9.438   1.007
 3842SOL    HW113423   7.030   9.471   1.086
 3842SOL    HW213424   7.000   9.421   0.947
 3843SOL     OW13425  13.118   5.819  13.057
 3843SOL    HW113426  13.068   5.760  13.000
 3843SOL    HW213427  13.185   5.763  13.096
 3844SOL     OW13428  11.197   9.376  11.900
 3844SOL    HW113429  11.285   9.375  11.939
 3844SOL    HW213430  11.142   9.418  11.967
 3845SOL     OW13431  10.689   9.347   2.477
 3845SOL    HW113432  10.634   9.396   2.416
 3845SOL    HW213433  10.728   9.413   2.533
 3846SOL     OW13434  14.802   1.193   1.503
 3846SOL    HW113435  14.710   1.173   1.485
 3846SOL    HW213436  14.820   1.270   1.450
 3847SOL     OW13437   0.486   0.517  14.134
 3847SOL    HW113438   0.575   0.514  14.100
 3847SOL    HW213439   0.430   0.531  14.057
 3848SOL     OW13440   7.322  14.229  10.954
 3848SOL    HW113441   7.334  14.136  10.976
 3848SOL    HW213442   7.410  14.260  10.933
 3849SOL     OW13443   2.330   2.377   6.109
 3849SOL    HW113444   2.354   2.332   6.028
 3849SOL    HW213445   2.333   2.309   6.176
 3850SOL     OW13446   0.100  11.114  10.938
 3850SOL    HW113447   0.099  11.172  10.862
 3850SOL    HW213448   0.062  11.167  11.008
 3851SOL     OW13449  13.580   0.154   4.744
 3851SOL    HW113450  13.556   0.067   4.711
 3851SOL    HW213451  13.642   0.136   4.815
 3852SOL     OW13452   5.353  12.411   8.843
 3852SOL    HW113453   5.382  12.434   8.931
 3852SOL    HW213454   5.293  12.337   8.855
 3853SOL     OW13455   9.331   8.006  12.579
 3853SOL    HW113456   9.370   7.960  12.504
 3853SOL    HW213457   9.278   8.075  12.539
 3854SOL     OW13458  14.503   2.861  14.381
 3854SOL    HW113459  14.473   2.841  14.470
 3854SOL    HW213460  14.423   2.882  14.333
 3855SOL     OW13461   0.143   0.288   8.998
 3855SOL    HW113462   0.231   0.323   8.981
 3855SOL    HW213463   0.151   0.195   8.979
 3856SOL     OW13464   1.180   0.232  13.047
 3856SOL    HW113465   1.226   0.315  13.049
 3856SOL    HW213466   1.157   0.219  12.954
 3857SOL     OW13467  13.369   0.663  11.553
 3857SOL    HW113468  13.448   0.699  11.593
 3857SOL    HW213469  13.298   0.718  11.587
 3858SOL     OW13470  11.805   9.372   8.815
 3858SOL    HW113471  11.782   9.453   8.770
 3858SOL    HW213472  11.781   9.302   8.754
 3859SOL     OW13473   8.490   2.495  11.852
 3859SOL    HW113474   8.541   2.414  11.858
 3859SOL    HW213475   8.413   2.478  11.907
 3860SOL     OW13476   2.610   8.428   6.274
 3860SOL    HW113477   2.533   8.374   6.294
 3860SOL    HW213478   2.597   8.453   6.182
 3861SOL     OW13479   5.780   6.482   2.579
 3861SOL    HW113480   5.717   6.424   2.537
 3861SOL    HW213481   5.793   6.445   2.666
 3862SOL     OW13482   5.273   1.472  14.233
 3862SOL    HW113483   5.340   1.448  14.169
 3862SOL    HW213484   5.215   1.396  14.235
 3863SOL     OW13485   5.999   8.166   2.463
 3863SOL    HW113486   5.970   8.247   2.505
 3863SOL    HW213487   5.922   8.110   2.461
 3864SOL     OW13488   9.674  14.504  12.486
 3864SOL    HW113489   9.631  14.496  12.401
 3864SOL    HW213490   9.611  14.468  12.549
 3865SOL     OW13491  11.499  10.309   7.224
 3865SOL    HW113492  11.544  10.374   7.278
 3865SOL    HW213493  11.406  10.326   7.239
 3866SOL     OW13494   1.522   2.342   8.359
 3866SOL    HW113495   1.579   2.413   8.387
 3866SOL    HW213496   1.579   2.284   8.308
 3867SOL     OW13497  12.745   8.180  10.553
 3867SOL    HW113498  12.839   8.182  10.570
 3867SOL    HW213499  12.714   8.267  10.577
 3868SOL     OW13500   6.482   0.180  11.863
 3868SOL    HW113501   6.496   0.094  11.823
 3868SOL    HW213502   6.437   0.161  11.946
 3869SOL     OW13503   8.355   3.042   5.255
 3869SOL    HW113504   8.338   2.974   5.190
 3869SOL    HW213505   8.448   3.062   5.245
 3870SOL     OW13506  10.836  13.595   2.000
 3870SOL    HW113507  10.904  13.621   1.938
 3870SOL    HW213508  10.884  13.558   2.074
 3871SOL     OW13509   4.778   3.778   3.601
 3871SOL    HW113510   4.693   3.798   3.640
 3871SOL    HW213511   4.827   3.734   3.671
 3872SOL     OW13512  10.510   9.690  12.834
 3872SOL    HW113513  10.488   9.640  12.913
 3872SOL    HW213514  10.438   9.672  12.773
 3873SOL     OW13515   6.631  13.777  12.124
 3873SOL    HW113516   6.638  13.798  12.031
 3873SOL    HW213517   6.712  13.730  12.144
 3874SOL     OW13518   3.386   6.698   2.519
 3874SOL    HW113519   3.390   6.708   2.424
 3874SOL    HW213520   3.447   6.626   2.538
 3875SOL     OW13521  11.719  14.675  11.536
 3875SOL    HW113522  11.756  14.681  11.448
 3875SOL    HW213523  11.792  14.649  11.591
 3876SOL     OW13524   3.950   1.375   7.998
 3876SOL    HW113525   3.868   1.343   8.038
 3876SOL    HW213526   3.982   1.300   7.947
 3877SOL     OW13527   1.267   0.333  12.694
 3877SOL    HW113528   1.210   0.376  12.631
 3877SOL    HW213529   1.263   0.240  12.670
 3878SOL     OW13530   3.367   0.592  11.496
 3878SOL    HW113531   3.373   0.609  11.590
 3878SOL    HW213532   3.291   0.642  11.468
 3879SOL     OW13533   4.081  11.707  11.858
 3879SOL    HW113534   4.165  11.662  11.861
 3879SOL    HW213535   4.096  11.788  11.907
 3880SOL     OW13536   4.282   6.954  13.828
 3880SOL    HW113537   4.351   6.963  13.894
 3880SOL    HW213538   4.314   6.885  13.770
 3881SOL     OW13539  12.727   8.673   9.459
 3881SOL    HW113540  12.780   8.658   9.536
 3881SOL    HW213541  12.637   8.655   9.487
 3882SOL     OW13542   7.677   6.279   0.835
 3882SOL    HW113543   7.772   6.291   0.834
 3882SOL    HW213544   7.655   6.249   0.747
 3883SOL     OW13545   6.615   5.919   5.960
 3883SOL    HW113546   6.605   5.939   5.867
 3883SOL    HW213547   6.697   5.871   5.965
 3884SOL     OW13548  14.418   7.750   9.686
 3884SOL    HW113549  14.373   7.723   9.607
 3884SOL    HW213550  14.406   7.845   9.689
 3885SOL     OW13551  11.278   1.952  12.346
 3885SOL    HW113552  11.361   1.906  12.360
 3885SOL    HW213553  11.276   1.969  12.251
 3886SOL     OW13554   4.612  11.580   9.708
 3886SOL    HW113555   4.643  11.498   9.669
 3886SOL    HW213556   4.542  11.609   9.649
 3887SOL     OW13557   3.006   0.696   0.703
 3887SOL    HW113558   2.911   0.684   0.700
 3887SOL    HW213559   3.018   0.768   0.766
 3888SOL     OW13560   5.825  10.158   3.553
 3888SOL    HW113561   5.764  10.128   3.620
 3888SOL    HW213562   5.839  10.082   3.497
 3889SOL     OW13563  11.768   4.241  11.413
 3889SOL    HW113564  11.678   4.233  11.445
 3889SOL    HW213565  11.791   4.153  11.384
 3890SOL     OW13566  10.187  13.370  10.721
 3890SOL    HW113567  10.153  13.292  10.677
 3890SOL    HW213568  10.253  13.404  10.662
 3891SOL     OW13569   8.797   3.347   6.726
 3891SOL    HW113570   8.756   3.340   6.640
 3891SOL    HW213571   8.821   3.257   6.747
 3892SOL     OW13572   6.151   6.837   0.845
 3892SOL    HW113573   6.125   6.854   0.935
 3892SOL    HW213574   6.142   6.743   0.834
 3893SOL     OW13575   7.197   9.254   6.195
 3893SOL    HW113576   7.292   9.248   6.192
 3893SOL    HW213577   7.167   9.168   6.163
 3894SOL     OW13578   7.738   3.998   9.654
 3894SOL    HW113579   7.828   3.996   9.687
 3894SOL    HW213580   7.696   3.922   9.694
 3895SOL     OW13581   3.143   2.916   7.328
 3895SOL    HW113582   3.100   2.951   7.250
 3895SOL    HW213583   3.124   2.981   7.396
 3896SOL     OW13584  10.585  10.789  12.552
 3896SOL    HW113585  10.656  10.852  12.567
 3896SOL    HW213586  10.527  10.833  12.489
 3897SOL     OW13587   0.965   2.953  10.744
 3897SOL    HW113588   0.946   2.878  10.801
 3897SOL    HW213589   0.917   3.026  10.783
 3898SOL     OW13590   4.137  11.825   6.451
 3898SOL    HW113591   4.059  11.868   6.416
 3898SOL    HW213592   4.108  11.736   6.472
 3899SOL     OW13593   2.352   7.339   7.633
 3899SOL    HW113594   2.365   7.432   7.613
 3899SOL    HW213595   2.259   7.323   7.618
 3900SOL     OW13596   2.976   5.695  12.245
 3900SOL    HW113597   2.983   5.783  12.281
 3900SOL    HW213598   3.023   5.699  12.162
 3901SOL     OW13599   7.050  11.778  13.912
 3901SOL    HW113600   7.047  11.686  13.939
 3901SOL    HW213601   7.022  11.827  13.990
 3902SOL     OW13602   6.722   2.991   8.193
 3902SOL    HW113603   6.812   2.995   8.161
 3902SOL    HW213604   6.706   3.075   8.234
 3903SOL     OW13605  12.354  14.156   2.327
 3903SOL    HW113606  12.345  14.061   2.334
 3903SOL    HW213607  12.437  14.168   2.280
 3904SOL     OW13608   5.392   7.414   2.688
 3904SOL    HW113609   5.329   7.481   2.715
 3904SOL    HW213610   5.352   7.332   2.717
 3905SOL     OW13611   9.675   6.864  12.539
 3905SOL    HW113612   9.593   6.913  12.527
 3905SOL    HW213613   9.665   6.821  12.624
 3906SOL     OW13614   1.395   2.312   1.641
 3906SOL    HW113615   1.381   2.218   1.651
 3906SOL    HW213616   1.452   2.319   1.565
 3907SOL     OW13617   6.953   7.252   3.821
 3907SOL    HW113618   6.875   7.196   3.822
 3907SOL    HW213619   6.944   7.304   3.741
 3908SOL     OW13620   7.486   7.331   3.283
 3908SOL    HW113621   7.538   7.281   3.220
 3908SOL    HW213622   7.456   7.266   3.346
 3909SOL     OW13623   7.933   9.590   6.042
 3909SOL    HW113624   8.008   9.618   5.990
 3909SOL    HW213625   7.963   9.598   6.133
 3910SOL     OW13626   9.843  11.676   2.461
 3910SOL    HW113627   9.853  11.707   2.550
 3910SOL    HW213628   9.904  11.728   2.409
 3911SOL     OW13629   6.781   9.527   2.473
 3911SOL    HW113630   6.727   9.602   2.500
 3911SOL    HW213631   6.851   9.567   2.420
 3912SOL     OW13632   0.082   5.807  13.110
 3912SOL    HW113633   0.172   5.816  13.140
 3912SOL    HW213634   0.060   5.716  13.126
 3913SOL     OW13635  11.651   5.860   4.931
 3913SOL    HW113636  11.598   5.940   4.935
 3913SOL    HW213637  11.740   5.891   4.917
 3914SOL     OW13638   0.589   3.691  10.031
 3914SOL    HW113639   0.662   3.746  10.062
 3914SOL    HW213640   0.572   3.721   9.942
 3915SOL     OW13641   5.439  14.384   0.990
 3915SOL    HW113642   5.349  14.363   1.015
 3915SOL    HW213643   5.493  14.319   1.036
 3916SOL     OW13644   7.901  10.326  11.329
 3916SOL    HW113645   7.877  10.239  11.295
 3916SOL    HW213646   7.842  10.340  11.403
 3917SOL     OW13647  12.859  11.212   1.791
 3917SOL    HW113648  12.929  11.154   1.821
 3917SOL    HW213649  12.783  11.188   1.844
 3918SOL     OW13650   7.566   5.923  13.127
 3918SOL    HW113651   7.661   5.916  13.137
 3918SOL    HW213652   7.535   5.833  13.124
 3919SOL     OW13653   6.881   5.498  10.010
 3919SOL    HW113654   6.910   5.497   9.919
 3919SOL    HW213655   6.859   5.590  10.027
 3920SOL     OW13656  12.929   2.179   3.150
 3920SOL    HW113657  12.984   2.112   3.191
 3920SOL    HW213658  12.971   2.262   3.174
 3921SOL     OW13659   1.376   0.725  14.802
 3921SOL    HW113660   1.419   0.728  14.717
 3921SOL    HW213661   1.408   0.802  14.848
 3922SOL     OW13662  12.615   3.069  13.898
 3922SOL    HW113663  12.634   3.159  13.922
 3922SOL    HW213664  12.533   3.048  13.943
 3923SOL     OW13665   1.086  12.577  10.113
 3923SOL    HW113666   1.161  12.537  10.069
 3923SOL    HW213667   1.011  12.554  10.059
 3924SOL     OW13668   0.336   4.998   2.588
 3924SOL    HW113669   0.284   4.945   2.648
 3924SOL    HW213670   0.393   4.935   2.543
 3925SOL     OW13671   6.576  13.189   5.169
 3925SOL    HW113672   6.602  13.278   5.190
 3925SOL    HW213673   6.627  13.134   5.229
 3926SOL     OW13674  11.373   3.230   3.137
 3926SOL    HW113675  11.303   3.181   3.096
 3926SOL    HW213676  11.440   3.239   3.068
 3927SOL     OW13677   3.982   9.778   9.972
 3927SOL    HW113678   4.077   9.773   9.982
 3927SOL    HW213679   3.965   9.870   9.950
 3928SOL     OW13680   2.465   9.680  11.226
 3928SOL    HW113681   2.477   9.632  11.144
 3928SOL    HW213682   2.454   9.612  11.292
 3929SOL     OW13683  14.472  10.625   1.563
 3929SOL    HW113684  14.473  10.539   1.519
 3929SOL    HW213685  14.556  10.629   1.609
 3930SOL     OW13686   0.515   6.925  13.124
 3930SOL    HW113687   0.431   6.972  13.122
 3930SOL    HW213688   0.567   6.965  13.055
 3931SOL     OW13689  13.744  12.925   0.120
 3931SOL    HW113690  13.839  12.920   0.125
 3931SOL    HW213691  13.713  12.864   0.187
 3932SOL     OW13692   2.905   8.127   1.294
 3932SOL    HW113693   2.905   8.206   1.347
 3932SOL    HW213694   2.872   8.059   1.352
 3933SOL     OW13695   9.148  10.282  14.092
 3933SOL    HW113696   9.084  10.239  14.035
 3933SOL    HW213697   9.220  10.219  14.100
 3934SOL     OW13698  13.379   8.085  13.827
 3934SOL    HW113699  13.389   7.992  13.849
 3934SOL    HW213700  13.286   8.095  13.804
 3935SOL     OW13701  10.512   4.287  13.180
 3935SOL    HW113702  10.600   4.293  13.142
 3935SOL    HW213703  10.464   4.230  13.121
 3936SOL     OW13704   4.377   8.156   2.383
 3936SOL    HW113705   4.467   8.142   2.354
 3936SOL    HW213706   4.324   8.133   2.307
 3937SOL     OW13707   1.844   7.954   3.323
 3937SOL    HW113708   1.848   8.049   3.309
 3937SOL    HW213709   1.913   7.937   3.387
 3938SOL     OW13710   3.563  13.250   5.713
 3938SOL    HW113711   3.601  13.287   5.633
 3938SOL    HW213712   3.614  13.290   5.784
 3939SOL     OW13713   6.214   2.008   0.521
 3939SOL    HW113714   6.119   1.998   0.511
 3939SOL    HW213715   6.243   1.922   0.554
 3940SOL     OW13716  10.130  11.708   0.132
 3940SOL    HW113717  10.040  11.724   0.162
 3940SOL    HW213718  10.185  11.751   0.198
 3941SOL     OW13719  14.651   6.304   2.118
 3941SOL    HW113720  14.609   6.260   2.044
 3941SOL    HW213721  14.581   6.316   2.181
 3942SOL     OW13722   4.634   1.553   0.838
 3942SOL    HW113723   4.628   1.566   0.933
 3942SOL    HW213724   4.587   1.627   0.800
 3943SOL     OW13725  14.224   2.777   0.133
 3943SOL    HW113726  14.315   2.794   0.158
 3943SOL    HW213727  14.185   2.737   0.211
 3944SOL     OW13728  10.682   5.409   5.434
 3944SOL    HW113729  10.720   5.417   5.347
 3944SOL    HW213730  10.619   5.337   5.426
 3945SOL     OW13731  11.439   7.520   2.513
 3945SOL    HW113732  11.475   7.592   2.565
 3945SOL    HW213733  11.360   7.556   2.472
 3946SOL     OW13734  12.012  12.466  14.854
 3946SOL    HW113735  12.039  12.558  14.864
 3946SOL    HW213736  12.081  12.416   0.021
 3947SOL     OW13737   2.747  11.201   9.127
 3947SOL    HW113738   2.691  11.211   9.204
 3947SOL    HW213739   2.811  11.135   9.153
 3948SOL     OW13740   6.497  12.009   4.603
 3948SOL    HW113741   6.548  12.082   4.569
 3948SOL    HW213742   6.432  12.050   4.661
 3949SOL     OW13743   9.279  13.629   6.858
 3949SOL    HW113744   9.186  13.610   6.847
 3949SOL    HW213745   9.285  13.671   6.944
 3950SOL     OW13746   9.224   1.152   7.702
 3950SOL    HW113747   9.143   1.191   7.736
 3950SOL    HW213748   9.245   1.204   7.624
 3951SOL     OW13749  14.874   2.312   9.396
 3951SOL    HW113750  14.805   2.295   9.460
 3951SOL    HW213751   0.027   2.225   9.371
 3952SOL     OW13752   8.230   5.549   6.759
 3952SOL    HW113753   8.172   5.582   6.691
 3952SOL    HW213754   8.250   5.460   6.733
 3953SOL     OW13755   9.835   9.071   1.523
 3953SOL    HW113756   9.845   9.141   1.586
 3953SOL    HW213757   9.895   9.003   1.553
 3954SOL     OW13758   9.097  11.449   6.533
 3954SOL    HW113759   9.100  11.387   6.460
 3954SOL    HW213760   9.025  11.508   6.512
 3955SOL     OW13761   1.680   8.795   8.016
 3955SOL    HW113762   1.662   8.888   8.014
 3955SOL    HW213763   1.690   8.774   8.108
 3956SOL     OW13764  12.979   5.556  12.408
 3956SOL    HW113765  12.928   5.475  12.417
 3956SOL    HW213766  13.054   5.531  12.354
 3957SOL     OW13767   4.241   4.941  10.494
 3957SOL    HW113768   4.309   4.954  10.560
 3957SOL    HW213769   4.166   4.910  10.543
 3958SOL     OW13770   7.129  13.978  12.687
 3958SOL    HW113771   7.140  13.956  12.780
 3958SOL    HW213772   7.093  13.898  12.648
 3959SOL     OW13773   8.261  13.711  14.311
 3959SOL    HW113774   8.289  13.796  14.344
 3959SOL    HW213775   8.166  13.717  14.306
 3960SOL     OW13776   2.798   2.334   0.390
 3960SOL    HW113777   2.703   2.339   0.393
 3960SOL    HW213778   2.828   2.424   0.400
 3961SOL     OW13779   6.595  14.871   6.616
 3961SOL    HW113780   6.680  14.836   6.644
 3961SOL    HW213781   6.604   0.005   6.521
 3962SOL     OW13782  14.565   2.166   8.894
 3962SOL    HW113783  14.617   2.164   8.814
 3962SOL    HW213784  14.531   2.077   8.904
 3963SOL     OW13785   0.142   6.485  13.168
 3963SOL    HW113786   0.206   6.457  13.234
 3963SOL    HW213787   0.144   6.580  13.172
 3964SOL     OW13788   1.142  11.661   0.070
 3964SOL    HW113789   1.093  11.608   0.007
 3964SOL    HW213790   1.166  11.599   0.139
 3965SOL     OW13791   8.966   7.861   6.031
 3965SOL    HW113792   8.909   7.806   6.085
 3965SOL    HW213793   8.994   7.804   5.959
 3966SOL     OW13794  10.657   8.480   2.577
 3966SOL    HW113795  10.702   8.465   2.494
 3966SOL    HW213796  10.604   8.401   2.590
 3967SOL     OW13797   9.755   3.992  12.492
 3967SOL    HW113798   9.784   3.919  12.438
 3967SOL    HW213799   9.819   3.998  12.563
 3968SOL     OW13800   0.170   5.604   3.531
 3968SOL    HW113801   0.200   5.561   3.452
 3968SOL    HW213802   0.137   5.689   3.502
 3969SOL     OW13803   0.753   9.417   7.097
 3969SOL    HW113804   0.699   9.483   7.141
 3969SOL    HW213805   0.830   9.408   7.154
 3970SOL     OW13806   9.486   7.550  12.655
 3970SOL    HW113807   9.548   7.484  12.624
 3970SOL    HW213808   9.461   7.598  12.577
 3971SOL     OW13809  13.706   1.519   7.151
 3971SOL    HW113810  13.636   1.493   7.211
 3971SOL    HW213811  13.736   1.436   7.111
 3972SOL     OW13812   7.678  12.914  12.113
 3972SOL    HW113813   7.678  12.832  12.064
 3972SOL    HW213814   7.640  12.978  12.053
 3973SOL     OW13815   0.827  13.030  13.601
 3973SOL    HW113816   0.810  13.096  13.534
 3973SOL    HW213817   0.847  12.950  13.551
 3974SOL     OW13818   9.210  11.399   2.472
 3974SOL    HW113819   9.206  11.392   2.568
 3974SOL    HW213820   9.304  11.394   2.452
 3975SOL     OW13821  13.260   0.433  12.054
 3975SOL    HW113822  13.326   0.486  12.010
 3975SOL    HW213823  13.233   0.486  12.129
 3976SOL     OW13824   8.011   5.255   5.049
 3976SOL    HW113825   8.028   5.346   5.029
 3976SOL    HW213826   8.071   5.234   5.121
 3977SOL     OW13827   3.599  13.388  11.543
 3977SOL    HW113828   3.518  13.431  11.513
 3977SOL    HW213829   3.585  13.295  11.523
 3978SOL     OW13830   7.230  14.465   8.727
 3978SOL    HW113831   7.242  14.487   8.635
 3978SOL    HW213832   7.156  14.520   8.754
 3979SOL     OW13833   0.057  14.026   9.043
 3979SOL    HW113834   0.123  13.962   9.070
 3979SOL    HW213835   0.095  14.111   9.068
 3980SOL     OW13836   4.937   9.773   1.666
 3980SOL    HW113837   4.858   9.729   1.636
 3980SOL    HW213838   4.981   9.709   1.721
 3981SOL     OW13839  12.744  12.177   4.143
 3981SOL    HW113840  12.659  12.188   4.101
 3981SOL    HW213841  12.745  12.086   4.172
 3982SOL     OW13842   1.850  11.439   8.531
 3982SOL    HW113843   1.863  11.425   8.437
 3982SOL    HW213844   1.871  11.355   8.571
 3983SOL     OW13845   3.531   9.708   0.375
 3983SOL    HW113846   3.451   9.757   0.394
 3983SOL    HW213847   3.560   9.675   0.461
 3984SOL     OW13848   4.175   7.406  12.082
 3984SOL    HW113849   4.206   7.330  12.131
 3984SOL    HW213850   4.105   7.373  12.027
 3985SOL     OW13851  12.411   5.496   0.875
 3985SOL    HW113852  12.424   5.589   0.889
 3985SOL    HW213853  12.499   5.459   0.872
 3986SOL     OW13854   0.047  12.723   1.423
 3986SOL    HW113855  14.860  12.762   1.365
 3986SOL    HW213856   0.125  12.713   1.369
 3987SOL     OW13857   4.664   2.486   9.975
 3987SOL    HW113858   4.619   2.525  10.050
 3987SOL    HW213859   4.728   2.427  10.014
 3988SOL     OW13860   7.640   9.488   4.632
 3988SOL    HW113861   7.714   9.519   4.684
 3988SOL    HW213862   7.579   9.452   4.696
 3989SOL     OW13863   5.355   1.795   3.441
 3989SOL    HW113864   5.432   1.767   3.392
 3989SOL    HW213865   5.297   1.719   3.440
 3990SOL     OW13866  12.926  11.494   6.398
 3990SOL    HW113867  12.917  11.581   6.357
 3990SOL    HW213868  13.018  11.489   6.423
 3991SOL     OW13869  14.378   8.736   4.866
 3991SOL    HW113870  14.380   8.659   4.924
 3991SOL    HW213871  14.398   8.700   4.779
 3992SOL     OW13872  12.472   6.756  11.473
 3992SOL    HW113873  12.510   6.817  11.537
 3992SOL    HW213874  12.543   6.741  11.410
 3993SOL     OW13875   6.691  11.849  13.502
 3993SOL    HW113876   6.695  11.756  13.523
 3993SOL    HW213877   6.764  11.888  13.551
 3994SOL     OW13878   6.284   8.118   3.529
 3994SOL    HW113879   6.330   8.196   3.500
 3994SOL    HW213880   6.269   8.131   3.623
 3995SOL     OW13881   7.870  10.669  10.907
 3995SOL    HW113882   7.959  10.641  10.928
 3995SOL    HW213883   7.816  10.626  10.973
 3996SOL     OW13884   0.524   6.415  13.080
 3996SOL    HW113885   0.450   6.397  13.022
 3996SOL    HW213886   0.572   6.332  13.085
 3997SOL     OW13887   6.605  10.017   9.398
 3997SOL    HW113888   6.625  10.108   9.419
 3997SOL    HW213889   6.594  10.015   9.303
 3998SOL     OW13890   9.847  12.102   7.157
 3998SOL    HW113891   9.906  12.026   7.146
 3998SOL    HW213892   9.761  12.068   7.133
 3999SOL     OW13893   3.056   4.927  11.515
 3999SOL    HW113894   2.961   4.916  11.512
 3999SOL    HW213895   3.087   4.856  11.571
 4000SOL     OW13896  13.067  11.651   1.226
 4000SOL    HW113897  13.096  11.600   1.301
 4000SOL    HW213898  13.039  11.735   1.263
 4001SOL     OW13899  10.593   0.956   3.271
 4001SOL    HW113900  10.585   0.863   3.248
 4001SOL    HW213901  10.532   0.968   3.344
 4002SOL     OW13902  10.157  13.307  11.449
 4002SOL    HW113903  10.131  13.392  11.484
 4002SOL    HW213904  10.119  13.303  11.362
 4003SOL     OW13905   2.445   2.338   5.110
 4003SOL    HW113906   2.509   2.366   5.176
 4003SOL    HW213907   2.383   2.411   5.106
 4004SOL     OW13908  13.860   1.121   6.236
 4004SOL    HW113909  13.873   1.027   6.224
 4004SOL    HW213910  13.892   1.138   6.325
 4005SOL     OW13911   6.468  14.840   0.894
 4005SOL    HW113912   6.478  14.828   0.800
 4005SOL    HW213913   6.509   0.047   0.912
 4006SOL     OW13914   6.225  14.273   5.400
 4006SOL    HW113915   6.200  14.223   5.477
 4006SOL    HW213916   6.142  14.300   5.360
 4007SOL     OW13917   8.794   2.385  13.660
 4007SOL    HW113918   8.799   2.460  13.719
 4007SOL    HW213919   8.801   2.309  13.718
 4008SOL     OW13920  10.255   4.353   6.932
 4008SOL    HW113921  10.254   4.366   6.837
 4008SOL    HW213922  10.333   4.299   6.947
 4009SOL     OW13923   9.301   0.471  14.870
 4009SOL    HW113924   9.281   0.402  14.806
 4009SOL    HW213925   9.251   0.547  14.839
 4010SOL     OW13926   0.783   1.804  14.079
 4010SOL    HW113927   0.833   1.731  14.113
 4010SOL    HW213928   0.703   1.807  14.132
 4011SOL     OW13929  13.102   4.554  13.685
 4011SOL    HW113930  13.011   4.524  13.674
 4011SOL    HW213931  13.142   4.488  13.741
 4012SOL     OW13932   9.686   0.267  11.862
 4012SOL    HW113933   9.753   0.200  11.878
 4012SOL    HW213934   9.701   0.295  11.772
 4013SOL     OW13935   9.753   4.599  11.475
 4013SOL    HW113936   9.676   4.542  11.483
 4013SOL    HW213937   9.791   4.576  11.391
 4014SOL     OW13938   0.164   1.850   7.868
 4014SOL    HW113939   0.095   1.910   7.839
 4014SOL    HW213940   0.242   1.904   7.879
 4015SOL     OW13941   1.529  11.735   0.685
 4015SOL    HW113942   1.509  11.807   0.626
 4015SOL    HW213943   1.508  11.770   0.772
 4016SOL     OW13944   1.695   5.957   8.693
 4016SOL    HW113945   1.681   5.912   8.776
 4016SOL    HW213946   1.765   6.019   8.710
 4017SOL     OW13947  11.548  10.585   9.172
 4017SOL    HW113948  11.461  10.586   9.213
 4017SOL    HW213949  11.536  10.633   9.090
 4018SOL     OW13950   5.724   7.650   5.781
 4018SOL    HW113951   5.739   7.676   5.872
 4018SOL    HW213952   5.809   7.662   5.739
 4019SOL     OW13953   5.291   3.504   3.060
 4019SOL    HW113954   5.242   3.428   3.093
 4019SOL    HW213955   5.319   3.550   3.139
 4020SOL     OW13956  13.668  13.609   3.860
 4020SOL    HW113957  13.617  13.611   3.942
 4020SOL    HW213958  13.616  13.556   3.801
 4021SOL     OW13959  13.188   5.507   0.120
 4021SOL    HW113960  13.204   5.412   0.119
 4021SOL    HW213961  13.274   5.546   0.131
 4022SOL     OW13962   4.319   7.280   3.066
 4022SOL    HW113963   4.278   7.355   3.109
 4022SOL    HW213964   4.405   7.312   3.040
 4023SOL     OW13965  11.277  14.344  14.041
 4023SOL    HW113966  11.197  14.391  14.017
 4023SOL    HW213967  11.264  14.255  14.008
 4024SOL     OW13968  10.388   4.541   4.091
 4024SOL    HW113969  10.437   4.621   4.107
 4024SOL    HW213970  10.422   4.479   4.155
 4025SOL     OW13971  12.232   9.724   1.607
 4025SOL    HW113972  12.319   9.748   1.638
 4025SOL    HW213973  12.178   9.800   1.625
 4026SOL     OW13974   3.448   3.398   7.166
 4026SOL    HW113975   3.458   3.369   7.257
 4026SOL    HW213976   3.400   3.327   7.124
 4027SOL     OW13977   1.196   2.993  10.595
 4027SOL    HW113978   1.122   2.976  10.654
 4027SOL    HW213979   1.240   2.909  10.587
 4028SOL     OW13980   7.568   8.771   9.953
 4028SOL    HW113981   7.518   8.777  10.034
 4028SOL    HW213982   7.660   8.777   9.981
 4029SOL     OW13983   5.939   1.109   4.524
 4029SOL    HW113984   5.850   1.107   4.558
 4029SOL    HW213985   5.985   1.040   4.572
 4030SOL     OW13986   3.728  14.112  11.119
 4030SOL    HW113987   3.759  14.149  11.202
 4030SOL    HW213988   3.790  14.145  11.054
 4031SOL     OW13989   6.009   1.726  11.667
 4031SOL    HW113990   5.913   1.733  11.668
 4031SOL    HW213991   6.032   1.726  11.574
 4032SOL     OW13992   7.209  13.043  12.949
 4032SOL    HW113993   7.241  13.040  12.859
 4032SOL    HW213994   7.226  13.133  12.977
 4033SOL     OW13995  12.426  11.335  10.566
 4033SOL    HW113996  12.393  11.280  10.637
 4033SOL    HW213997  12.487  11.279  10.518
 4034SOL     OW13998   0.668  10.768   6.581
 4034SOL    HW113999   0.674  10.860   6.605
 4034SOL    HW214000   0.574  10.747   6.588
 4035SOL     OW14001   8.128   1.706   5.693
 4035SOL    HW114002   8.129   1.695   5.598
 4035SOL    HW214003   8.218   1.731   5.716
 4036SOL     OW14004  10.573   6.571   0.755
 4036SOL    HW114005  10.538   6.535   0.837
 4036SOL    HW214006  10.526   6.523   0.686
 4037SOL     OW14007   3.224   1.994  11.258
 4037SOL    HW114008   3.175   2.076  11.253
 4037SOL    HW214009   3.174   1.940  11.320
 4038SOL     OW14010  13.620  11.007   2.704
 4038SOL    HW114011  13.582  11.022   2.617
 4038SOL    HW214012  13.658  11.092   2.728
 4039SOL     OW14013  10.804  13.944   9.127
 4039SOL    HW114014  10.744  14.018   9.117
 4039SOL    HW214015  10.748  13.867   9.130
 4040SOL     OW14016   2.055  10.400   2.106
 4040SOL    HW114017   2.145  10.384   2.078
 4040SOL    HW214018   2.021  10.465   2.044
 4041SOL     OW14019   5.874  11.536   4.919
 4041SOL    HW114020   5.812  11.573   4.983
 4041SOL    HW214021   5.897  11.450   4.954
 4042SOL     OW14022   3.631   2.696  10.130
 4042SOL    HW114023   3.639   2.622  10.070
 4042SOL    HW214024   3.573   2.665  10.200
 4043SOL     OW14025  12.439   2.519   0.360
 4043SOL    HW114026  12.495   2.446   0.336
 4043SOL    HW214027  12.483   2.596   0.325
 4044SOL     OW14028   3.870   0.428   9.873
 4044SOL    HW114029   3.850   0.436   9.966
 4044SOL    HW214030   3.963   0.404   9.870
 4045SOL     OW14031  12.287   4.127  14.826
 4045SOL    HW114032  12.221   4.119  14.757
 4045SOL    HW214033  12.326   4.213  14.812
 4046SOL     OW14034   1.881   0.805  14.502
 4046SOL    HW114035   1.802   0.784  14.452
 4046SOL    HW214036   1.915   0.884  14.460
 4047SOL     OW14037   3.583   4.075   7.414
 4047SOL    HW114038   3.589   4.136   7.488
 4047SOL    HW214039   3.666   4.086   7.367
 4048SOL     OW14040   0.480   0.866  11.618
 4048SOL    HW114041   0.418   0.798  11.642
 4048SOL    HW214042   0.426   0.941  11.594
 4049SOL     OW14043  11.816   1.916  10.677
 4049SOL    HW114044  11.896   1.865  10.664
 4049SOL    HW214045  11.751   1.872  10.621
 4050SOL     OW14046   5.735   3.816   9.103
 4050SOL    HW114047   5.739   3.817   9.199
 4050SOL    HW214048   5.806   3.757   9.077
 4051SOL     OW14049   9.522  11.456   1.095
 4051SOL    HW114050   9.586  11.385   1.090
 4051SOL    HW214051   9.523  11.483   1.187
 4052SOL     OW14052  11.350   3.638   5.440
 4052SOL    HW114053  11.358   3.717   5.493
 4052SOL    HW214054  11.264   3.645   5.399
 4053SOL     OW14055   4.050   1.090  12.952
 4053SOL    HW114056   4.054   1.008  12.902
 4053SOL    HW214057   4.140   1.105  12.981
 4054SOL     OW14058   4.545   2.025   8.956
 4054SOL    HW114059   4.600   1.977   8.894
 4054SOL    HW214060   4.507   2.096   8.904
 4055SOL     OW14061   1.679   5.413   9.041
 4055SOL    HW114062   1.702   5.457   9.123
 4055SOL    HW214063   1.613   5.469   9.001
 4056SOL     OW14064  13.926   2.406  13.293
 4056SOL    HW114065  13.845   2.420  13.343
 4056SOL    HW214066  13.979   2.483  13.313
 4057SOL     OW14067   1.932   5.445   8.834
 4057SOL    HW114068   2.004   5.442   8.897
 4057SOL    HW214069   1.860   5.399   8.878
 4058SOL     OW14070   9.968   9.998   2.758
 4058SOL    HW114071   9.992   9.923   2.812
 4058SOL    HW214072   9.992  10.074   2.809
 4059SOL     OW14073   8.124  12.010  14.568
 4059SOL    HW114074   8.032  12.016  14.595
 4059SOL    HW214075   8.130  12.067  14.491
 4060SOL     OW14076   7.446  11.557   5.762
 4060SOL    HW114077   7.384  11.576   5.692
 4060SOL    HW214078   7.508  11.630   5.760
 4061SOL     OW14079   0.418   3.881   6.428
 4061SOL    HW114080   0.323   3.866   6.428
 4061SOL    HW214081   0.441   3.890   6.336
 4062SOL     OW14082   3.037  11.175   8.526
 4062SOL    HW114083   3.059  11.087   8.495
 4062SOL    HW214084   2.960  11.201   8.475
 4063SOL     OW14085   5.930  13.885   1.566
 4063SOL    HW114086   5.955  13.869   1.657
 4063SOL    HW214087   5.954  13.805   1.520
 4064SOL     OW14088   5.157   9.840   0.572
 4064SOL    HW114089   5.212   9.766   0.596
 4064SOL    HW214090   5.176   9.855   0.480
 4065SOL     OW14091  12.293  10.318  11.115
 4065SOL    HW114092  12.377  10.355  11.087
 4065SOL    HW214093  12.317  10.250  11.177
 4066SOL     OW14094   3.819   1.481  10.171
 4066SOL    HW114095   3.766   1.472  10.092
 4066SOL    HW214096   3.788   1.413  10.230
 4067SOL     OW14097   1.562   4.082   4.144
 4067SOL    HW114098   1.467   4.084   4.130
 4067SOL    HW214099   1.580   3.994   4.177
 4068SOL     OW14100   5.371  14.537   4.807
 4068SOL    HW114101   5.413  14.458   4.774
 4068SOL    HW214102   5.304  14.558   4.742
 4069SOL     OW14103  14.850   4.002  14.066
 4069SOL    HW114104  14.872   4.059  13.992
 4069SOL    HW214105  14.853   4.059  14.143
 4070SOL     OW14106  14.234   6.695   8.784
 4070SOL    HW114107  14.325   6.722   8.772
 4070SOL    HW214108  14.229   6.609   8.743
 4071SOL     OW14109   1.335  10.372   0.531
 4071SOL    HW114110   1.405  10.363   0.596
 4071SOL    HW214111   1.365  10.443   0.474
 4072SOL     OW14112   0.455   1.653  13.065
 4072SOL    HW114113   0.369   1.621  13.037
 4072SOL    HW214114   0.436   1.729  13.120
 4073SOL     OW14115  13.965  11.826   7.506
 4073SOL    HW114116  13.990  11.818   7.414
 4073SOL    HW214117  14.036  11.876   7.545
 4074SOL     OW14118  13.911  10.375  10.352
 4074SOL    HW114119  13.816  10.388  10.357
 4074SOL    HW214120  13.945  10.462  10.332
 4075SOL     OW14121   2.661   3.401  10.317
 4075SOL    HW114122   2.631   3.373  10.231
 4075SOL    HW214123   2.617   3.484  10.332
 4076SOL     OW14124   0.781  10.729   4.044
 4076SOL    HW114125   0.731  10.760   3.969
 4076SOL    HW214126   0.872  10.728   4.013
 4077SOL     OW14127   8.062  14.362   1.325
 4077SOL    HW114128   8.109  14.280   1.340
 4077SOL    HW214129   7.971  14.342   1.347
 4078SOL     OW14130   0.245  13.785   4.404
 4078SOL    HW114131   0.224  13.805   4.495
 4078SOL    HW214132   0.328  13.738   4.409
 4079SOL     OW14133   7.392   3.260  12.145
 4079SOL    HW114134   7.384   3.185  12.205
 4079SOL    HW214135   7.343   3.233  12.067
 4080SOL     OW14136  14.404   3.564   4.435
 4080SOL    HW114137  14.425   3.656   4.418
 4080SOL    HW214138  14.466   3.515   4.381
 4081SOL     OW14139   5.014   0.047  14.666
 4081SOL    HW114140   4.965   0.085  14.739
 4081SOL    HW214141   5.021  14.832  14.688
 4082SOL     OW14142  11.055   4.870  12.038
 4082SOL    HW114143  11.148   4.880  12.057
 4082SOL    HW214144  11.028   4.792  12.088
 4083SOL     OW14145   6.285   5.347  12.468
 4083SOL    HW114146   6.302   5.256  12.445
 4083SOL    HW214147   6.369   5.379  12.501
 4084SOL     OW14148   5.342   2.023  14.003
 4084SOL    HW114149   5.334   1.933  13.973
 4084SOL    HW214150   5.399   2.066  13.939
 4085SOL     OW14151   5.792   6.847   0.829
 4085SOL    HW114152   5.791   6.934   0.789
 4085SOL    HW214153   5.852   6.855   0.903
 4086SOL     OW14154  13.280   9.276   3.649
 4086SOL    HW114155  13.319   9.345   3.595
 4086SOL    HW214156  13.231   9.222   3.588
 4087SOL     OW14157   7.998  13.074   0.792
 4087SOL    HW114158   7.992  12.979   0.794
 4087SOL    HW214159   7.907  13.104   0.804
 4088SOL     OW14160   5.442   6.339   5.724
 4088SOL    HW114161   5.423   6.251   5.690
 4088SOL    HW214162   5.414   6.336   5.816
 4089SOL     OW14163  10.962   7.943   7.396
 4089SOL    HW114164  10.998   7.982   7.475
 4089SOL    HW214165  10.874   7.914   7.421
 4090SOL     OW14166   6.820   1.177   1.715
 4090SOL    HW114167   6.877   1.110   1.678
 4090SOL    HW214168   6.732   1.138   1.710
 4091SOL     OW14169  13.899   3.665   2.089
 4091SOL    HW114170  13.844   3.739   2.117
 4091SOL    HW214171  13.841   3.589   2.096
 4092SOL     OW14172   6.916   0.657   1.023
 4092SOL    HW114173   6.923   0.676   1.117
 4092SOL    HW214174   6.941   0.739   0.980
 4093SOL     OW14175  13.503   7.182   9.444
 4093SOL    HW114176  13.409   7.202   9.437
 4093SOL    HW214177  13.545   7.268   9.453
 4094SOL     OW14178   2.432   6.227   5.668
 4094SOL    HW114179   2.482   6.277   5.733
 4094SOL    HW214180   2.428   6.139   5.704
 4095SOL     OW14181  12.230   8.411   9.203
 4095SOL    HW114182  12.208   8.429   9.294
 4095SOL    HW214183  12.150   8.376   9.164
 4096SOL     OW14184  13.054  11.714   5.265
 4096SOL    HW114185  13.083  11.805   5.257
 4096SOL    HW214186  12.987  11.717   5.333
 4097SOL     OW14187  11.053   1.560   3.506
 4097SOL    HW114188  11.056   1.534   3.414
 4097SOL    HW214189  11.104   1.641   3.510
 4098SOL     OW14190   4.247  11.077   7.580
 4098SOL    HW114191   4.206  11.027   7.650
 4098SOL    HW214192   4.340  11.056   7.587
 4099SOL     OW14193   0.482   1.306   7.496
 4099SOL    HW114194   0.539   1.367   7.542
 4099SOL    HW214195   0.492   1.224   7.544
 4100SOL     OW14196   7.347  10.036   9.554
 4100SOL    HW114197   7.256  10.065   9.565
 4100SOL    HW214198   7.399  10.115   9.569
 4101SOL     OW14199  10.559  14.873  10.300
 4101SOL    HW114200  10.576  14.831  10.216
 4101SOL    HW214201  10.569   0.089  10.284
 4102SOL     OW14202  11.039  10.293  10.231
 4102SOL    HW114203  10.973  10.341  10.182
 4102SOL    HW214204  11.057  10.215  10.178
 4103SOL     OW14205  12.091   9.829   4.125
 4103SOL    HW114206  12.004   9.796   4.149
 4103SOL    HW214207  12.094   9.917   4.163
 4104SOL     OW14208   2.185   2.080  10.276
 4104SOL    HW114209   2.252   2.149  10.278
 4104SOL    HW214210   2.103   2.126  10.290
 4105SOL     OW14211  10.407  12.282  10.401
 4105SOL    HW114212  10.483  12.310  10.453
 4105SOL    HW214213  10.403  12.346  10.329
 4106SOL     OW14214   9.248   1.557  10.161
 4106SOL    HW114215   9.317   1.494  10.178
 4106SOL    HW214216   9.170   1.520  10.203
 4107SOL     OW14217   7.788   2.397   0.989
 4107SOL    HW114218   7.732   2.320   0.978
 4107SOL    HW214219   7.731   2.471   0.965
 4108SOL     OW14220   9.232   4.332   4.228
 4108SOL    HW114221   9.179   4.299   4.301
 4108SOL    HW214222   9.198   4.420   4.211
 4109SOL     OW14223  10.109   9.301  11.624
 4109SOL    HW114224  10.094   9.230  11.687
 4109SOL    HW214225  10.041   9.290  11.558
 4110SOL     OW14226  12.376   7.375   3.652
 4110SOL    HW114227  12.322   7.337   3.583
 4110SOL    HW214228  12.464   7.377   3.614
 4111SOL     OW14229   2.295  10.750   4.067
 4111SOL    HW114230   2.261  10.815   4.127
 4111SOL    HW214231   2.293  10.668   4.117
 4112SOL     OW14232  13.841   4.134   1.645
 4112SOL    HW114233  13.747   4.151   1.654
 4112SOL    HW214234  13.884   4.208   1.687
 4113SOL     OW14235  10.746   3.769   1.229
 4113SOL    HW114236  10.772   3.841   1.286
 4113SOL    HW214237  10.827   3.744   1.183
 4114SOL     OW14238   3.935  10.508  11.376
 4114SOL    HW114239   3.898  10.589  11.342
 4114SOL    HW214240   3.960  10.529  11.466
 4115SOL     OW14241   0.113   7.024   9.559
 4115SOL    HW114242   0.127   6.973   9.638
 4115SOL    HW214243   0.058   6.969   9.503
 4116SOL     OW14244  13.270   6.877  11.557
 4116SOL    HW114245  13.194   6.916  11.515
 4116SOL    HW214246  13.305   6.815  11.492
 4117SOL     OW14247   8.457   2.138  14.538
 4117SOL    HW114248   8.418   2.223  14.520
 4117SOL    HW214249   8.523   2.127  14.470
 4118SOL     OW14250   5.024   1.434   4.669
 4118SOL    HW114251   4.951   1.378   4.697
 4118SOL    HW214252   5.017   1.512   4.723
 4119SOL     OW14253   4.843  14.301   9.159
 4119SOL    HW114254   4.888  14.385   9.155
 4119SOL    HW214255   4.908  14.237   9.129
 4120SOL     OW14256  14.716  10.540  10.375
 4120SOL    HW114257  14.732  10.504  10.288
 4120SOL    HW214258  14.797  10.521  10.424
 4121SOL     OW14259   6.189   9.061  12.465
 4121SOL    HW114260   6.111   9.009  12.448
 4121SOL    HW214261   6.261   8.997  12.465
 4122SOL     OW14262   4.414   9.486  14.753
 4122SOL    HW114263   4.489   9.452  14.703
 4122SOL    HW214264   4.392   9.569  14.711
 4123SOL     OW14265  10.683  12.869  12.633
 4123SOL    HW114266  10.744  12.796  12.634
 4123SOL    HW214267  10.729  12.939  12.680
 4124SOL     OW14268   3.843   0.951  14.111
 4124SOL    HW114269   3.832   0.969  14.204
 4124SOL    HW214270   3.786   1.014  14.067
 4125SOL     OW14271  14.344  12.624   2.956
 4125SOL    HW114272  14.320  12.578   3.036
 4125SOL    HW214273  14.343  12.557   2.888
 4126SOL     OW14274   4.525   7.204   7.292
 4126SOL    HW114275   4.510   7.296   7.316
 4126SOL    HW214276   4.541   7.206   7.198
 4127SOL     OW14277   2.158  14.420   3.225
 4127SOL    HW114278   2.103  14.466   3.288
 4127SOL    HW214279   2.104  14.414   3.146
 4128SOL     OW14280  12.856   1.989   6.069
 4128SOL    HW114281  12.859   1.948   5.983
 4128SOL    HW214282  12.848   2.083   6.051
 4129SOL     OW14283  11.336   3.427   5.109
 4129SOL    HW114284  11.353   3.441   5.202
 4129SOL    HW214285  11.379   3.343   5.089
 4130SOL     OW14286   2.772   4.013  14.491
 4130SOL    HW114287   2.692   4.036  14.445
 4130SOL    HW214288   2.839   4.007  14.423
 4131SOL     OW14289   5.573  11.324   2.332
 4131SOL    HW114290   5.662  11.293   2.315
 4131SOL    HW214291   5.517  11.256   2.294
 4132SOL     OW14292   0.118  13.124   6.806
 4132SOL    HW114293   0.181  13.150   6.738
 4132SOL    HW214294   0.058  13.064   6.761
 4133SOL     OW14295  11.284   3.583  10.863
 4133SOL    HW114296  11.325   3.545  10.785
 4133SOL    HW214297  11.346   3.651  10.891
 4134SOL     OW14298  14.151   0.320  11.135
 4134SOL    HW114299  14.121   0.351  11.221
 4134SOL    HW214300  14.168   0.227  11.148
 4135SOL     OW14301   4.222   7.432   7.269
 4135SOL    HW114302   4.317   7.426   7.258
 4135SOL    HW214303   4.189   7.450   7.180
 4136SOL     OW14304  11.002  11.990  12.100
 4136SOL    HW114305  10.913  12.022  12.090
 4136SOL    HW214306  11.038  12.040  12.173
 4137SOL     OW14307  14.008  11.211  10.944
 4137SOL    HW114308  14.065  11.287  10.952
 4137SOL    HW214309  14.067  11.136  10.948
 4138SOL     OW14310  13.861  13.202   8.959
 4138SOL    HW114311  13.908  13.236   8.883
 4138SOL    HW214312  13.773  13.184   8.927
 4139SOL     OW14313   1.003   6.723   9.290
 4139SOL    HW114314   1.056   6.800   9.271
 4139SOL    HW214315   0.963   6.700   9.206
 4140SOL     OW14316   7.080  11.628   2.642
 4140SOL    HW114317   7.119  11.665   2.721
 4140SOL    HW214318   7.151  11.628   2.578
 4141SOL     OW14319   3.815   8.846  10.840
 4141SOL    HW114320   3.746   8.809  10.894
 4141SOL    HW214321   3.859   8.909  10.897
 4142SOL     OW14322   0.121   6.251  13.502
 4142SOL    HW114323   0.028   6.231  13.489
 4142SOL    HW214324   0.135   6.240  13.596
 4143SOL     OW14325   0.643  12.710   0.405
 4143SOL    HW114326   0.623  12.776   0.471
 4143SOL    HW214327   0.558  12.681   0.374
 4144SOL     OW14328   9.654   2.325   8.608
 4144SOL    HW114329   9.624   2.411   8.577
 4144SOL    HW214330   9.589   2.263   8.573
 4145SOL     OW14331   1.681   6.629   2.655
 4145SOL    HW114332   1.707   6.567   2.723
 4145SOL    HW214333   1.693   6.582   2.573
 4146SOL     OW14334   8.667  13.106  10.833
 4146SOL    HW114335   8.633  13.192  10.857
 4146SOL    HW214336   8.638  13.093  10.743
 4147SOL     OW14337   2.843  11.863   2.512
 4147SOL    HW114338   2.822  11.862   2.606
 4147SOL    HW214339   2.938  11.875   2.509
 4148SOL     OW14340   7.364  11.750   8.325
 4148SOL    HW114341   7.380  11.843   8.343
 4148SOL    HW214342   7.451  11.714   8.310
 4149SOL     OW14343   5.349  13.461   2.871
 4149SOL    HW114344   5.398  13.383   2.847
 4149SOL    HW214345   5.296  13.434   2.946
 4150SOL     OW14346  11.640   5.446   8.114
 4150SOL    HW114347  11.617   5.398   8.194
 4150SOL    HW214348  11.603   5.393   8.044
 4151SOL     OW14349  11.054   7.302   8.605
 4151SOL    HW114350  10.982   7.357   8.574
 4151SOL    HW214351  11.079   7.340   8.689
 4152SOL     OW14352   1.932   0.652   1.943
 4152SOL    HW114353   1.887   0.584   1.893
 4152SOL    HW214354   1.868   0.722   1.951
 4153SOL     OW14355  12.029  14.846   5.284
 4153SOL    HW114356  12.122  14.825   5.286
 4153SOL    HW214357  12.018   0.020   5.204
 4154SOL     OW14358   4.944   8.224   1.098
 4154SOL    HW114359   5.000   8.230   1.175
 4154SOL    HW214360   4.857   8.203   1.132
 4155SOL     OW14361   4.533   8.064   3.530
 4155SOL    HW114362   4.593   8.120   3.580
 4155SOL    HW214363   4.500   8.001   3.594
 4156SOL     OW14364   6.985  12.312  12.733
 4156SOL    HW114365   6.963  12.299  12.825
 4156SOL    HW214366   7.027  12.398  12.730
 4157SOL     OW14367   8.018  13.198  12.664
 4157SOL    HW114368   7.990  13.286  12.690
 4157SOL    HW214369   7.959  13.139  12.710
 4158SOL     OW14370   7.313   5.109   0.656
 4158SOL    HW114371   7.236   5.160   0.680
 4158SOL    HW214372   7.317   5.039   0.722
 4159SOL     OW14373   6.112   6.127   0.050
 4159SOL    HW114374   6.162   6.168  14.857
 4159SOL    HW214375   6.095   6.197   0.112
 4160SOL     OW14376   1.601   5.034  12.092
 4160SOL    HW114377   1.588   4.949  12.050
 4160SOL    HW214378   1.513   5.062  12.118
 4161SOL     OW14379   5.453   7.957   6.050
 4161SOL    HW114380   5.434   7.965   6.144
 4161SOL    HW214381   5.453   7.863   6.034
 4162SOL     OW14382   7.899   7.441  10.772
 4162SOL    HW114383   7.929   7.519  10.821
 4162SOL    HW214384   7.980   7.400  10.742
 4163SOL     OW14385   9.375   4.304   0.950
 4163SOL    HW114386   9.319   4.336   0.880
 4163SOL    HW214387   9.362   4.366   1.022
 4164SOL     OW14388  11.322  12.614   6.931
 4164SOL    HW114389  11.329  12.664   7.013
 4164SOL    HW214390  11.257  12.663   6.880
 4165SOL     OW14391   2.540  14.481   1.901
 4165SOL    HW114392   2.513  14.391   1.922
 4165SOL    HW214393   2.463  14.534   1.921
 4166SOL     OW14394  12.211   2.979   0.241
 4166SOL    HW114395  12.242   3.068   0.225
 4166SOL    HW214396  12.153   2.960   0.168
 4167SOL     OW14397   4.551  13.163   5.474
 4167SOL    HW114398   4.595  13.142   5.556
 4167SOL    HW214399   4.589  13.247   5.448
 4168SOL     OW14400   7.066   5.076   1.532
 4168SOL    HW114401   7.043   5.168   1.525
 4168SOL    HW214402   7.154   5.069   1.494
 4169SOL     OW14403  13.558   6.613   4.703
 4169SOL    HW114404  13.475   6.646   4.669
 4169SOL    HW214405  13.615   6.608   4.627
 4170SOL     OW14406   9.340  13.234  14.070
 4170SOL    HW114407   9.400  13.161  14.086
 4170SOL    HW214408   9.257  13.192  14.049
 4171SOL     OW14409   6.651  11.298   6.943
 4171SOL    HW114410   6.734  11.252   6.935
 4171SOL    HW214411   6.632  11.330   6.855
 4172SOL     OW14412  11.407   9.387   3.172
 4172SOL    HW114413  11.456   9.306   3.184
 4172SOL    HW214414  11.352   9.370   3.096
 4173SOL     OW14415   3.140  10.336  12.316
 4173SOL    HW114416   3.198  10.369  12.385
 4173SOL    HW214417   3.189  10.263  12.277
 4174SOL     OW14418   6.336   0.233  11.636
 4174SOL    HW114419   6.392   0.264  11.707
 4174SOL    HW214420   6.254   0.282  11.648
 4175SOL     OW14421   7.569   9.446   1.611
 4175SOL    HW114422   7.554   9.538   1.632
 4175SOL    HW214423   7.664   9.436   1.609
 4176SOL     OW14424  14.655  12.552   6.898
 4176SOL    HW114425  14.675  12.461   6.874
 4176SOL    HW214426  14.660  12.600   6.816
 4177SOL     OW14427   0.269  14.709   1.831
 4177SOL    HW114428   0.291  14.802   1.834
 4177SOL    HW214429   0.352  14.665   1.849
 4178SOL     OW14430   4.510  11.615  13.158
 4178SOL    HW114431   4.520  11.566  13.076
 4178SOL    HW214432   4.442  11.567  13.206
 4179SOL     OW14433   0.928  12.667  10.811
 4179SOL    HW114434   0.917  12.723  10.888
 4179SOL    HW214435   0.841  12.632  10.794
 4180SOL     OW14436   7.282   2.299  13.156
 4180SOL    HW114437   7.321   2.379  13.120
 4180SOL    HW214438   7.349   2.232  13.142
 4181SOL     OW14439   1.963   9.752   3.402
 4181SOL    HW114440   1.937   9.712   3.485
 4181SOL    HW214441   2.022   9.688   3.362
 4182SOL     OW14442  11.860   5.570   4.879
 4182SOL    HW114443  11.854   5.564   4.783
 4182SOL    HW214444  11.913   5.647   4.895
 4183SOL     OW14445  13.661   4.905   2.520
 4183SOL    HW114446  13.732   4.938   2.575
 4183SOL    HW214447  13.698   4.904   2.432
 4184SOL     OW14448   2.927  13.101  11.479
 4184SOL    HW114449   2.984  13.176  11.462
 4184SOL    HW214450   2.900  13.112  11.570
 4185SOL     OW14451   5.494  12.049   9.539
 4185SOL    HW114452   5.525  12.017   9.624
 4185SOL    HW214453   5.564  12.024   9.478
 4186SOL     OW14454   7.970   2.689   5.147
 4186SOL    HW114455   7.934   2.657   5.229
 4186SOL    HW214456   7.939   2.779   5.140
 4187SOL     OW14457   7.296  14.298  12.868
 4187SOL    HW114458   7.225  14.283  12.805
 4187SOL    HW214459   7.254  14.343  12.941
 4188SOL     OW14460  14.876   0.446   6.202
 4188SOL    HW114461   0.080   0.416   6.243
 4188SOL    HW214462  14.841   0.368   6.158
 4189SOL     OW14463   7.881  14.465  10.167
 4189SOL    HW114464   7.888  14.468  10.071
 4189SOL    HW214465   7.925  14.545  10.196
 4190SOL     OW14466   4.380   3.556   7.124
 4190SOL    HW114467   4.433   3.477   7.114
 4190SOL    HW214468   4.335   3.545   7.208
 4191SOL     OW14469   1.227   8.205  11.220
 4191SOL    HW114470   1.159   8.184  11.283
 4191SOL    HW214471   1.275   8.278  11.260
 4192SOL     OW14472   1.236   5.704   6.709
 4192SOL    HW114473   1.229   5.612   6.736
 4192SOL    HW214474   1.273   5.700   6.621
 4193SOL     OW14475  12.147   9.064   3.405
 4193SOL    HW114476  12.186   9.068   3.318
 4193SOL    HW214477  12.074   9.003   3.396
 4194SOL     OW14478  10.560   0.809   6.830
 4194SOL    HW114479  10.577   0.894   6.870
 4194SOL    HW214480  10.575   0.822   6.736
 4195SOL     OW14481  12.734   9.461   8.387
 4195SOL    HW114482  12.661   9.522   8.398
 4195SOL    HW214483  12.748   9.457   8.293
 4196SOL     OW14484  13.706   8.591   7.397
 4196SOL    HW114485  13.795   8.558   7.410
 4196SOL    HW214486  13.662   8.574   7.481
 4197SOL     OW14487   8.913  11.661   6.080
 4197SOL    HW114488   8.853  11.677   6.153
 4197SOL    HW214489   8.877  11.713   6.008
 4198SOL     OW14490   1.866   9.793   9.807
 4198SOL    HW114491   1.942   9.804   9.863
 4198SOL    HW214492   1.797   9.844   9.849
 4199SOL     OW14493   8.996   5.653   8.662
 4199SOL    HW114494   8.991   5.568   8.619
 4199SOL    HW214495   8.999   5.716   8.591
 4200SOL     OW14496   8.971  10.418  10.007
 4200SOL    HW114497   8.970  10.507  10.042
 4200SOL    HW214498   8.898  10.416   9.945
 4201SOL     OW14499  14.088   2.879   6.461
 4201SOL    HW114500  14.117   2.911   6.375
 4201SOL    HW214501  13.993   2.886   6.458
 4202SOL     OW14502   4.874  13.437   0.848
 4202SOL    HW114503   4.809  13.493   0.892
 4202SOL    HW214504   4.957  13.484   0.859
 4203SOL     OW14505   9.231   7.191  12.246
 4203SOL    HW114506   9.272   7.115  12.204
 4203SOL    HW214507   9.137   7.176  12.238
 4204SOL     OW14508   5.404  13.574   9.107
 4204SOL    HW114509   5.352  13.633   9.052
 4204SOL    HW214510   5.339  13.525   9.158
 4205SOL     OW14511   5.417   1.366   4.735
 4205SOL    HW114512   5.465   1.431   4.786
 4205SOL    HW214513   5.476   1.291   4.730
 4206SOL     OW14514   9.246  10.541   1.293
 4206SOL    HW114515   9.328  10.512   1.252
 4206SOL    HW214516   9.241  10.492   1.375
 4207SOL     OW14517   4.480   5.804   2.611
 4207SOL    HW114518   4.547   5.854   2.658
 4207SOL    HW214519   4.466   5.727   2.666
 4208SOL     OW14520  14.859  12.898   6.741
 4208SOL    HW114521  14.846  12.859   6.827
 4208SOL    HW214522   0.027  12.830   6.691
 4209SOL     OW14523   8.504  11.553  12.554
 4209SOL    HW114524   8.459  11.570  12.472
 4209SOL    HW214525   8.580  11.500  12.530
 4210SOL     OW14526  10.316   0.404   3.605
 4210SOL    HW114527  10.326   0.363   3.691
 4210SOL    HW214528  10.326   0.498   3.622
 4211SOL     OW14529   8.153   2.388  10.312
 4211SOL    HW114530   8.225   2.366  10.371
 4211SOL    HW214531   8.196   2.432  10.238
 4212SOL     OW14532   3.352   1.750   8.386
 4212SOL    HW114533   3.417   1.755   8.456
 4212SOL    HW214534   3.394   1.698   8.318
 4213SOL     OW14535   1.458   7.017   5.831
 4213SOL    HW114536   1.498   7.077   5.768
 4213SOL    HW214537   1.488   6.930   5.803
 4214SOL     OW14538   2.571   9.888   8.244
 4214SOL    HW114539   2.631   9.955   8.280
 4214SOL    HW214540   2.620   9.806   8.252
 4215SOL     OW14541  13.904   3.462  11.150
 4215SOL    HW114542  13.841   3.467  11.078
 4215SOL    HW214543  13.897   3.373  11.183
 4216SOL     OW14544   6.379  12.749   2.723
 4216SOL    HW114545   6.456  12.743   2.667
 4216SOL    HW214546   6.317  12.687   2.684
 4217SOL     OW14547   5.170   9.352  11.909
 4217SOL    HW114548   5.195   9.444  11.903
 4217SOL    HW214549   5.153   9.337  12.003
 4218SOL     OW14550   0.340   7.894   3.531
 4218SOL    HW114551   0.365   7.908   3.622
 4218SOL    HW214552   0.365   7.803   3.513
 4219SOL     OW14553   1.268   9.472  13.749
 4219SOL    HW114554   1.220   9.484  13.831
 4219SOL    HW214555   1.201   9.457  13.683
 4220SOL     OW14556   6.651   1.092  12.984
 4220SOL    HW114557   6.734   1.091  12.936
 4220SOL    HW214558   6.656   1.171  13.038
 4221SOL     OW14559   7.593   8.001   4.407
 4221SOL    HW114560   7.592   8.096   4.393
 4221SOL    HW214561   7.669   7.986   4.463
 4222SOL     OW14562   4.732   4.960   5.292
 4222SOL    HW114563   4.735   4.869   5.264
 4222SOL    HW214564   4.638   4.981   5.295
 4223SOL     OW14565   7.588   3.918   6.875
 4223SOL    HW114566   7.537   3.941   6.952
 4223SOL    HW214567   7.532   3.857   6.827
 4224SOL     OW14568   9.025   7.652   0.409
 4224SOL    HW114569   8.973   7.597   0.350
 4224SOL    HW214570   9.067   7.716   0.352
 4225SOL     OW14571   3.173   2.291   7.619
 4225SOL    HW114572   3.097   2.234   7.604
 4225SOL    HW214573   3.162   2.361   7.555
 4226SOL     OW14574   4.421  12.063   7.518
 4226SOL    HW114575   4.387  12.015   7.442
 4226SOL    HW214576   4.345  12.110   7.553
 4227SOL     OW14577   3.462   3.856   7.045
 4227SOL    HW114578   3.495   3.838   7.133
 4227SOL    HW214579   3.541   3.877   6.994
 4228SOL     OW14580   1.020   1.388   1.078
 4228SOL    HW114581   1.080   1.334   1.129
 4228SOL    HW214582   0.979   1.327   1.017
 4229SOL     OW14583  10.834   0.803   8.397
 4229SOL    HW114584  10.874   0.878   8.440
 4229SOL    HW214585  10.831   0.735   8.464
 4230SOL     OW14586   1.568  12.998  10.368
 4230SOL    HW114587   1.596  12.980  10.458
 4230SOL    HW214588   1.625  12.943  10.314
 4231SOL     OW14589  11.220   5.539  12.683
 4231SOL    HW114590  11.312   5.527  12.706
 4231SOL    HW214591  11.219   5.540  12.587
 4232SOL     OW14592   2.042   8.992  10.510
 4232SOL    HW114593   2.075   8.985  10.421
 4232SOL    HW214594   2.102   9.053  10.553
 4233SOL     OW14595   5.777   2.106   1.494
 4233SOL    HW114596   5.850   2.086   1.435
 4233SOL    HW214597   5.808   2.180   1.546
 4234SOL     OW14598   7.791   1.798  12.159
 4234SOL    HW114599   7.803   1.887  12.127
 4234SOL    HW214600   7.782   1.807  12.254
 4235SOL     OW14601   7.189   4.031  14.749
 4235SOL    HW114602   7.130   4.016  14.675
 4235SOL    HW214603   7.162   4.116  14.785
 4236SOL     OW14604   8.918  11.364   5.217
 4236SOL    HW114605   8.963  11.381   5.134
 4236SOL    HW214606   8.942  11.439   5.272
 4237SOL     OW14607   0.675  11.314   5.373
 4237SOL    HW114608   0.723  11.390   5.339
 4237SOL    HW214609   0.719  11.239   5.333
 4238SOL     OW14610   4.383   3.377  12.509
 4238SOL    HW114611   4.336   3.455  12.541
 4238SOL    HW214612   4.390   3.320  12.586
 4239SOL     OW14613   7.081   2.436  13.343
 4239SOL    HW114614   7.134   2.396  13.273
 4239SOL    HW214615   7.043   2.361  13.389
 4240SOL     OW14616   3.877   1.192   8.305
 4240SOL    HW114617   3.834   1.245   8.238
 4240SOL    HW214618   3.881   1.250   8.381
 4241SOL     OW14619   3.885   3.928   0.915
 4241SOL    HW114620   3.937   3.864   0.963
 4241SOL    HW214621   3.805   3.881   0.892
 4242SOL     OW14622   0.088   5.372   5.884
 4242SOL    HW114623   0.127   5.358   5.798
 4242SOL    HW214624   0.078   5.467   5.890
 4243SOL     OW14625   2.504   5.329   6.749
 4243SOL    HW114626   2.595   5.301   6.758
 4243SOL    HW214627   2.507   5.425   6.752
 4244SOL     OW14628   8.652   7.052   0.830
 4244SOL    HW114629   8.735   7.003   0.822
 4244SOL    HW214630   8.660   7.123   0.766
 4245SOL     OW14631   4.959   3.905  14.138
 4245SOL    HW114632   4.909   3.887  14.058
 4245SOL    HW214633   4.964   3.819  14.182
 4246SOL     OW14634   5.629   3.202   9.586
 4246SOL    HW114635   5.622   3.139   9.514
 4246SOL    HW214636   5.701   3.169   9.640
 4247SOL     OW14637   1.761  14.729   4.908
 4247SOL    HW114638   1.809  14.646   4.900
 4247SOL    HW214639   1.725  14.744   4.820
 4248SOL     OW14640   4.036  12.731   2.504
 4248SOL    HW114641   4.092  12.724   2.582
 4248SOL    HW214642   4.017  12.640   2.480
 4249SOL     OW14643   6.465  13.604   7.022
 4249SOL    HW114644   6.548  13.572   7.057
 4249SOL    HW214645   6.479  13.698   7.008
 4250SOL     OW14646  11.205   2.365  12.711
 4250SOL    HW114647  11.238   2.310  12.782
 4250SOL    HW214648  11.236   2.322  12.631
 4251SOL     OW14649  12.996   1.500   8.517
 4251SOL    HW114650  12.934   1.562   8.478
 4251SOL    HW214651  13.057   1.555   8.565
 4252SOL     OW14652  10.283  12.479  14.738
 4252SOL    HW114653  10.207  12.464  14.683
 4252SOL    HW214654  10.269  12.566  14.775
 4253SOL     OW14655   3.179  12.384  10.426
 4253SOL    HW114656   3.088  12.390  10.455
 4253SOL    HW214657   3.177  12.327  10.350
 4254SOL     OW14658   9.953   5.565   4.679
 4254SOL    HW114659   9.944   5.504   4.606
 4254SOL    HW214660   9.927   5.514   4.756
 4255SOL     OW14661  11.514  10.832   3.184
 4255SOL    HW114662  11.512  10.747   3.228
 4255SOL    HW214663  11.453  10.822   3.111
 4256SOL     OW14664   9.077   3.068   2.310
 4256SOL    HW114665   9.004   3.044   2.253
 4256SOL    HW214666   9.151   3.080   2.251
 4257SOL     OW14667  11.922   1.414   4.989
 4257SOL    HW114668  11.914   1.320   5.008
 4257SOL    HW214669  11.986   1.419   4.918
 4258SOL     OW14670  10.121  11.752  13.682
 4258SOL    HW114671  10.216  11.761  13.673
 4258SOL    HW214672  10.091  11.726  13.595
 4259SOL     OW14673   0.770   6.742  10.784
 4259SOL    HW114674   0.804   6.696  10.707
 4259SOL    HW214675   0.703   6.683  10.819
 4260SOL     OW14676   6.261   5.711   1.640
 4260SOL    HW114677   6.354   5.700   1.661
 4260SOL    HW214678   6.225   5.622   1.644
 4261SOL     OW14679  14.785   1.232   6.830
 4261SOL    HW114680  14.795   1.144   6.864
 4261SOL    HW214681  14.727   1.276   6.893
 4262SOL     OW14682   7.607  10.744   2.216
 4262SOL    HW114683   7.575  10.810   2.277
 4262SOL    HW214684   7.555  10.666   2.235
 4263SOL     OW14685   8.520   6.856  13.940
 4263SOL    HW114686   8.480   6.838  13.855
 4263SOL    HW214687   8.524   6.952  13.945
 4264SOL     OW14688   1.019   9.946  13.067
 4264SOL    HW114689   1.088   9.962  13.003
 4264SOL    HW214690   0.945   9.999  13.037
 4265SOL     OW14691  10.786   8.631   9.534
 4265SOL    HW114692  10.871   8.674   9.527
 4265SOL    HW214693  10.802   8.555   9.591
 4266SOL     OW14694   3.875   6.515   5.710
 4266SOL    HW114695   3.805   6.562   5.756
 4266SOL    HW214696   3.830   6.470   5.638
 4267SOL     OW14697   1.000  13.058   6.695
 4267SOL    HW114698   1.062  13.129   6.682
 4267SOL    HW214699   0.914  13.101   6.695
 4268SOL     OW14700   8.360   1.556   3.431
 4268SOL    HW114701   8.341   1.604   3.512
 4268SOL    HW214702   8.407   1.620   3.376
 4269SOL     OW14703   1.232  13.049   2.559
 4269SOL    HW114704   1.249  12.980   2.495
 4269SOL    HW214705   1.147  13.084   2.534
 4270SOL     OW14706  13.014   6.391   8.703
 4270SOL    HW114707  13.052   6.369   8.788
 4270SOL    HW214708  13.073   6.351   8.639
 4271SOL     OW14709   2.454   4.583   1.397
 4271SOL    HW114710   2.522   4.632   1.351
 4271SOL    HW214711   2.391   4.559   1.329
 4272SOL     OW14712  10.087  10.410   4.011
 4272SOL    HW114713  10.124  10.455   4.087
 4272SOL    HW214714  10.009  10.461   3.989
 4273SOL     OW14715   3.278  12.333  11.980
 4273SOL    HW114716   3.202  12.372  11.938
 4273SOL    HW214717   3.354  12.372  11.936
 4274SOL     OW14718   2.390  14.646  13.264
 4274SOL    HW114719   2.366  14.718  13.206
 4274SOL    HW214720   2.473  14.674  13.303
 4275SOL     OW14721   5.929  11.723   5.439
 4275SOL    HW114722   5.914  11.783   5.366
 4275SOL    HW214723   5.906  11.636   5.404
 4276SOL     OW14724   2.729   0.656   0.622
 4276SOL    HW114725   2.720   0.745   0.587
 4276SOL    HW214726   2.756   0.603   0.547
 4277SOL     OW14727   2.518   8.344   6.940
 4277SOL    HW114728   2.466   8.383   7.010
 4277SOL    HW214729   2.523   8.413   6.873
 4278SOL     OW14730   9.777   6.169  11.434
 4278SOL    HW114731   9.830   6.090  11.431
 4278SOL    HW214732   9.837   6.237  11.464
 4279SOL     OW14733   6.341  10.736   9.813
 4279SOL    HW114734   6.428  10.751   9.849
 4279SOL    HW214735   6.329  10.805   9.749
 4280SOL     OW14736  11.229  10.624   9.139
 4280SOL    HW114737  11.190  10.709   9.160
 4280SOL    HW214738  11.214  10.571   9.217
 4281SOL     OW14739   0.772   3.120   4.590
 4281SOL    HW114740   0.716   3.085   4.659
 4281SOL    HW214741   0.832   3.048   4.570
 4282SOL     OW14742   7.397   5.021   3.483
 4282SOL    HW114743   7.480   4.989   3.517
 4282SOL    HW214744   7.331   4.962   3.520
 4283SOL     OW14745  13.075   1.836   3.098
 4283SOL    HW114746  12.980   1.830   3.096
 4283SOL    HW214747  13.099   1.815   3.189
 4284SOL     OW14748   2.346   5.694   4.487
 4284SOL    HW114749   2.266   5.654   4.523
 4284SOL    HW214750   2.398   5.619   4.459
 4285SOL     OW14751  12.855   1.223  12.032
 4285SOL    HW114752  12.901   1.247  12.113
 4285SOL    HW214753  12.921   1.178  11.979
 4286SOL     OW14754   5.230   2.254  14.863
 4286SOL    HW114755   5.194   2.281   0.070
 4286SOL    HW214756   5.159   2.267  14.801
 4287SOL     OW14757  12.354   3.628   7.182
 4287SOL    HW114758  12.366   3.681   7.103
 4287SOL    HW214759  12.295   3.679   7.237
 4288SOL     OW14760  13.937   5.522  13.884
 4288SOL    HW114761  13.965   5.453  13.943
 4288SOL    HW214762  13.843   5.529  13.899
 4289SOL     OW14763   5.614   6.283   8.693
 4289SOL    HW114764   5.671   6.225   8.744
 4289SOL    HW214765   5.579   6.227   8.623
 4290SOL     OW14766   0.120   1.342   2.437
 4290SOL    HW114767   0.114   1.393   2.356
 4290SOL    HW214768   0.114   1.251   2.408
 4291SOL     OW14769   3.623  10.232   8.083
 4291SOL    HW114770   3.577  10.311   8.112
 4291SOL    HW214771   3.655  10.192   8.164
 4292SOL     OW14772  12.981  13.322   2.004
 4292SOL    HW114773  12.902  13.271   2.024
 4292SOL    HW214774  12.988  13.385   2.076
 4293SOL     OW14775  14.575  14.372   1.781
 4293SOL    HW114776  14.535  14.458   1.792
 4293SOL    HW214777  14.510  14.320   1.735
 4294SOL     OW14778   9.631   9.795   5.994
 4294SOL    HW114779   9.713   9.791   6.044
 4294SOL    HW214780   9.563   9.799   6.061
 4295SOL     OW14781   3.033  10.057   6.633
 4295SOL    HW114782   3.108  10.053   6.573
 4295SOL    HW214783   2.973  10.120   6.592
 4296SOL     OW14784   4.761  13.496  14.305
 4296SOL    HW114785   4.733  13.567  14.363
 4296SOL    HW214786   4.722  13.417  14.342
 4297SOL     OW14787  12.975   7.388   4.151
 4297SOL    HW114788  12.918   7.401   4.076
 4297SOL    HW214789  12.923   7.335   4.212
 4298SOL     OW14790   8.843  14.270  14.595
 4298SOL    HW114791   8.776  14.209  14.624
 4298SOL    HW214792   8.800  14.321  14.526
 4299SOL     OW14793  13.106   9.576  14.350
 4299SOL    HW114794  13.166   9.594  14.278
 4299SOL    HW214795  13.161   9.539  14.419
 4300SOL     OW14796   7.233   3.868  12.651
 4300SOL    HW114797   7.211   3.803  12.584
 4300SOL    HW214798   7.222   3.953  12.607
 4301SOL     OW14799   4.402   1.957  12.465
 4301SOL    HW114800   4.461   2.030  12.446
 4301SOL    HW214801   4.321   2.000  12.492
 4302SOL     OW14802   4.138   6.906   6.369
 4302SOL    HW114803   4.060   6.960   6.387
 4302SOL    HW214804   4.206   6.945   6.424
 4303SOL     OW14805   2.640   2.350   9.576
 4303SOL    HW114806   2.667   2.399   9.498
 4303SOL    HW214807   2.560   2.393   9.606
 4304SOL     OW14808   3.056   9.174  13.876
 4304SOL    HW114809   2.977   9.126  13.897
 4304SOL    HW214810   3.127   9.112  13.893
 4305SOL     OW14811  14.305   9.160   4.610
 4305SOL    HW114812  14.390   9.126   4.583
 4305SOL    HW214813  14.242   9.097   4.577
 4306SOL     OW14814   8.023  11.494   6.607
 4306SOL    HW114815   8.010  11.479   6.701
 4306SOL    HW214816   7.934  11.489   6.570
 4307SOL     OW14817  11.738  14.529   8.168
 4307SOL    HW114818  11.811  14.473   8.196
 4307SOL    HW214819  11.751  14.539   8.074
 4308SOL     OW14820   8.013  11.081   7.607
 4308SOL    HW114821   7.984  11.049   7.692
 4308SOL    HW214822   8.106  11.060   7.604
 4309SOL     OW14823   4.900   4.564   6.377
 4309SOL    HW114824   4.955   4.592   6.451
 4309SOL    HW214825   4.940   4.605   6.301
 4310SOL     OW14826   9.778   0.425   3.004
 4310SOL    HW114827   9.849   0.489   3.000
 4310SOL    HW214828   9.711   0.468   3.058
 4311SOL     OW14829   1.275  12.600   8.616
 4311SOL    HW114830   1.357  12.649   8.628
 4311SOL    HW214831   1.224  12.653   8.555
 4312SOL     OW14832   2.711   1.302   3.033
 4312SOL    HW114833   2.742   1.314   2.943
 4312SOL    HW214834   2.773   1.240   3.071
 4313SOL     OW14835   2.088  10.106  11.241
 4313SOL    HW114836   2.162  10.046  11.242
 4313SOL    HW214837   2.012  10.051  11.222
 4314SOL     OW14838   3.575  12.651   1.324
 4314SOL    HW114839   3.631  12.684   1.254
 4314SOL    HW214840   3.626  12.582   1.366
 4315SOL     OW14841  12.794   6.845   4.649
 4315SOL    HW114842  12.794   6.934   4.682
 4315SOL    HW214843  12.702   6.818   4.650
 4316SOL     OW14844   1.706  12.776  10.008
 4316SOL    HW114845   1.716  12.695  10.057
 4316SOL    HW214846   1.652  12.751   9.933
 4317SOL     OW14847   1.300   1.267   5.792
 4317SOL    HW114848   1.369   1.257   5.726
 4317SOL    HW214849   1.227   1.216   5.757
 4318SOL     OW14850   4.603   6.499   0.085
 4318SOL    HW114851   4.681   6.554   0.094
 4318SOL    HW214852   4.617   6.427   0.146
 4319SOL     OW14853   4.817   9.605   9.343
 4319SOL    HW114854   4.900   9.614   9.297
 4319SOL    HW214855   4.764   9.678   9.311
 4320SOL     OW14856   8.346   8.930  11.718
 4320SOL    HW114857   8.307   8.853  11.759
 4320SOL    HW214858   8.324   8.921  11.625
 4321SOL     OW14859   1.645   5.835   8.269
 4321SOL    HW114860   1.663   5.773   8.199
 4321SOL    HW214861   1.727   5.882   8.282
 4322SOL     OW14862   6.595  12.075  10.919
 4322SOL    HW114863   6.559  12.118  10.997
 4322SOL    HW214864   6.600  11.983  10.943
 4323SOL     OW14865  12.233  11.429  13.981
 4323SOL    HW114866  12.305  11.471  13.934
 4323SOL    HW214867  12.165  11.416  13.915
 4324SOL     OW14868  11.815   4.623   9.992
 4324SOL    HW114869  11.818   4.650  10.084
 4324SOL    HW214870  11.866   4.690   9.946
 4325SOL     OW14871  12.205  11.563   4.901
 4325SOL    HW114872  12.255  11.482   4.901
 4325SOL    HW214873  12.114  11.535   4.892
 4326SOL     OW14874  11.263   7.744   3.129
 4326SOL    HW114875  11.249   7.650   3.120
 4326SOL    HW214876  11.228   7.766   3.215
 4327SOL     OW14877   3.114   1.581  13.606
 4327SOL    HW114878   3.100   1.490  13.631
 4327SOL    HW214879   3.113   1.629  13.689
 4328SOL     OW14880   6.385   3.304  14.699
 4328SOL    HW114881   6.356   3.327  14.787
 4328SOL    HW214882   6.310   3.325  14.643
 4329SOL     OW14883   9.375  11.459   1.989
 4329SOL    HW114884   9.403  11.446   1.898
 4329SOL    HW214885   9.329  11.378   2.011
 4330SOL     OW14886  13.831   7.527   0.177
 4330SOL    HW114887  13.914   7.564   0.148
 4330SOL    HW214888  13.769   7.553   0.109
 4331SOL     OW14889   2.062  10.686   9.682
 4331SOL    HW114890   2.119  10.647   9.747
 4331SOL    HW214891   2.034  10.612   9.627
 4332SOL     OW14892   1.793   2.844  12.514
 4332SOL    HW114893   1.809   2.869  12.605
 4332SOL    HW214894   1.701   2.863  12.499
 4333SOL     OW14895   6.139   9.231  10.650
 4333SOL    HW114896   6.123   9.200  10.739
 4333SOL    HW214897   6.215   9.288  10.658
 4334SOL     OW14898   6.733  10.519   4.938
 4334SOL    HW114899   6.809  10.513   4.881
 4334SOL    HW214900   6.666  10.467   4.894
 4335SOL     OW14901   5.449   1.137  13.927
 4335SOL    HW114902   5.496   1.215  13.958
 4335SOL    HW214903   5.371   1.172  13.884
 4336SOL     OW14904  12.953   0.711   0.828
 4336SOL    HW114905  12.898   0.764   0.886
 4336SOL    HW214906  12.936   0.746   0.741
 4337SOL     OW14907   6.188  14.802   0.275
 4337SOL    HW114908   6.147   0.006   0.304
 4337SOL    HW214909   6.213  14.818   0.184
 4338SOL     OW14910   9.273  12.830   1.156
 4338SOL    HW114911   9.269  12.808   1.249
 4338SOL    HW214912   9.327  12.761   1.117
 4339SOL     OW14913   7.456  12.431   0.015
 4339SOL    HW114914   7.395  12.395  14.828
 4339SOL    HW214915   7.508  12.356   0.043
 4340SOL     OW14916   1.606  10.527   4.693
 4340SOL    HW114917   1.534  10.556   4.749
 4340SOL    HW214918   1.572  10.451   4.646
 4341SOL     OW14919   5.634  10.140   5.898
 4341SOL    HW114920   5.693  10.213   5.877
 4341SOL    HW214921   5.614  10.152   5.991
 4342SOL     OW14922   8.621  10.055   1.841
 4342SOL    HW114923   8.662   9.976   1.877
 4342SOL    HW214924   8.660  10.127   1.891
 4343SOL     OW14925   8.567  11.786   5.380
 4343SOL    HW114926   8.629  11.742   5.322
 4343SOL    HW214927   8.518  11.846   5.324
 4344SOL     OW14928  13.134   7.642   8.203
 4344SOL    HW114929  13.077   7.671   8.275
 4344SOL    HW214930  13.161   7.554   8.229
 4345SOL     OW14931   5.214  14.475  10.478
 4345SOL    HW114932   5.139  14.517  10.435
 4345SOL    HW214933   5.176  14.399  10.523
 4346SOL     OW14934  14.537   5.801   3.356
 4346SOL    HW114935  14.591   5.774   3.282
 4346SOL    HW214936  14.519   5.894   3.340
 4347SOL     OW14937  13.061   0.952   4.967
 4347SOL    HW114938  13.095   0.929   5.053
 4347SOL    HW214939  13.106   0.893   4.907
 4348SOL     OW14940  10.986  14.715  12.549
 4348SOL    HW114941  10.994  14.703  12.454
 4348SOL    HW214942  10.981  14.810  12.561
 4349SOL     OW14943  13.571   9.452   0.992
 4349SOL    HW114944  13.548   9.441   0.900
 4349SOL    HW214945  13.526   9.381   1.037
 4350SOL     OW14946  13.346   8.194  14.652
 4350SOL    HW114947  13.321   8.269  14.707
 4350SOL    HW214948  13.266   8.173  14.602
 4351SOL     OW14949   5.480  11.404  10.718
 4351SOL    HW114950   5.461  11.450  10.799
 4351SOL    HW214951   5.447  11.461  10.649
 4352SOL     OW14952  12.996  11.151   9.776
 4352SOL    HW114953  13.063  11.154   9.708
 4352SOL    HW214954  12.964  11.241   9.782
 4353SOL     OW14955  10.996   4.156  12.002
 4353SOL    HW114956  11.043   4.073  11.994
 4353SOL    HW214957  11.010   4.200  11.918
 4354SOL     OW14958   4.600  10.568   9.008
 4354SOL    HW114959   4.651  10.550   8.928
 4354SOL    HW214960   4.657  10.624   9.061
 4355SOL     OW14961   6.244   7.265   4.184
 4355SOL    HW114962   6.213   7.239   4.271
 4355SOL    HW214963   6.188   7.339   4.161
 4356SOL     OW14964   9.475   7.236   2.745
 4356SOL    HW114965   9.507   7.307   2.689
 4356SOL    HW214966   9.421   7.182   2.687
 4357SOL     OW14967   4.537   0.182  12.935
 4357SOL    HW114968   4.459   0.179  12.991
 4357SOL    HW214969   4.547   0.092  12.903
 4358SOL     OW14970   5.462   2.587   7.871
 4358SOL    HW114971   5.550   2.625   7.868
 4358SOL    HW214972   5.460   2.527   7.797
 4359SOL     OW14973  10.578   3.949   1.623
 4359SOL    HW114974  10.637   3.979   1.691
 4359SOL    HW214975  10.613   3.864   1.595
 4360SOL     OW14976   7.330   5.663  10.616
 4360SOL    HW114977   7.393   5.725  10.578
 4360SOL    HW214978   7.339   5.584  10.563
 4361SOL     OW14979   4.184   7.201  13.806
 4361SOL    HW114980   4.205   7.108  13.814
 4361SOL    HW214981   4.169   7.214  13.712
 4362SOL     OW14982   9.597   4.944  13.638
 4362SOL    HW114983   9.681   4.920  13.677
 4362SOL    HW214984   9.532   4.901  13.695
 4363SOL     OW14985   7.255   6.244   0.039
 4363SOL    HW114986   7.289   6.279   0.122
 4363SOL    HW214987   7.271   6.150   0.045
 4364SOL     OW14988  14.337   7.496   2.087
 4364SOL    HW114989  14.410   7.499   2.025
 4364SOL    HW214990  14.337   7.583   2.128
 4365SOL     OW14991   2.972  13.187   1.543
 4365SOL    HW114992   2.974  13.221   1.454
 4365SOL    HW214993   3.063  13.169   1.565
 4366SOL     OW14994  14.584  10.612  10.616
 4366SOL    HW114995  14.631  10.580  10.539
 4366SOL    HW214996  14.553  10.532  10.659
 4367SOL     OW14997  13.778   3.580   0.528
 4367SOL    HW114998  13.697   3.628   0.551
 4367SOL    HW214999  13.848   3.636   0.560
 4368SOL     OW15000   8.061   7.554   9.422
 4368SOL    HW115001   8.002   7.599   9.483
 4368SOL    HW215002   8.116   7.623   9.387
 4369SOL     OW15003  14.332   7.247   4.920
 4369SOL    HW115004  14.397   7.207   4.978
 4369SOL    HW215005  14.248   7.232   4.964
 4370SOL     OW15006   3.796   4.783  10.756
 4370SOL    HW115007   3.766   4.695  10.731
 4370SOL    HW215008   3.818   4.775  10.849
 4371SOL     OW15009   4.557   0.600  12.422
 4371SOL    HW115010   4.536   0.629  12.334
 4371SOL    HW215011   4.474   0.565  12.456
 4372SOL     OW15012   8.500  10.382   1.281
 4372SOL    HW115013   8.588  10.374   1.318
 4372SOL    HW215014   8.466  10.293   1.279
 4373SOL     OW15015   2.564   1.185   6.167
 4373SOL    HW115016   2.622   1.235   6.223
 4373SOL    HW215017   2.525   1.250   6.108
 4374SOL     OW15018   6.694   0.670   5.681
 4374SOL    HW115019   6.772   0.685   5.735
 4374SOL    HW215020   6.635   0.742   5.704
 4375SOL     OW15021   6.965   0.017  12.414
 4375SOL    HW115022   6.977  14.835  12.488
 4375SOL    HW215023   6.932   0.098  12.453
 4376SOL     OW15024   7.330   4.857   9.643
 4376SOL    HW115025   7.334   4.779   9.697
 4376SOL    HW215026   7.323   4.824   9.553
 4377SOL     OW15027   5.422   0.393   9.616
 4377SOL    HW115028   5.467   0.475   9.634
 4377SOL    HW215029   5.456   0.364   9.531
 4378SOL     OW15030  12.047  12.434   4.268
 4378SOL    HW115031  11.985  12.483   4.214
 4378SOL    HW215032  12.028  12.461   4.357
 4379SOL     OW15033  11.699   8.368   1.740
 4379SOL    HW115034  11.720   8.449   1.694
 4379SOL    HW215035  11.672   8.308   1.670
 4380SOL     OW15036   5.308   3.643   2.484
 4380SOL    HW115037   5.281   3.698   2.558
 4380SOL    HW215038   5.396   3.614   2.506
 4381SOL     OW15039   0.568   9.397   7.591
 4381SOL    HW115040   0.497   9.362   7.538
 4381SOL    HW215041   0.526   9.433   7.669
 4382SOL     OW15042   8.976  13.033   9.168
 4382SOL    HW115043   9.035  12.998   9.234
 4382SOL    HW215044   8.993  12.980   9.090
 4383SOL     OW15045  11.635   4.145  10.355
 4383SOL    HW115046  11.603   4.134  10.445
 4383SOL    HW215047  11.689   4.224  10.359
 4384SOL     OW15048  14.284   7.294   7.476
 4384SOL    HW115049  14.189   7.282   7.483
 4384SOL    HW215050  14.298   7.384   7.506
 4385SOL     OW15051  13.135   1.316   1.359
 4385SOL    HW115052  13.066   1.279   1.414
 4385SOL    HW215053  13.090   1.381   1.304
 4386SOL     OW15054  11.323   6.265   5.088
 4386SOL    HW115055  11.284   6.308   5.164
 4386SOL    HW215056  11.249   6.226   5.042
 4387SOL     OW15057   0.479   8.086   8.825
 4387SOL    HW115058   0.443   8.111   8.740
 4387SOL    HW215059   0.531   8.008   8.807
 4388SOL     OW15060  14.119  10.555   0.193
 4388SOL    HW115061  14.141  10.471   0.151
 4388SOL    HW215062  14.194  10.573   0.250
 4389SOL     OW15063  10.322   2.477  14.530
 4389SOL    HW115064  10.330   2.497  14.437
 4389SOL    HW215065  10.411   2.487  14.564
 4390SOL     OW15066  12.330   7.735  12.717
 4390SOL    HW115067  12.288   7.736  12.804
 4390SOL    HW215068  12.263   7.698  12.659
 4391SOL     OW15069   0.468   9.847  12.201
 4391SOL    HW115070   0.564   9.848  12.196
 4391SOL    HW215071   0.441   9.925  12.152
 4392SOL     OW15072   9.630  12.173  11.646
 4392SOL    HW115073   9.709  12.121  11.633
 4392SOL    HW215074   9.569  12.141  11.579
 4393SOL     OW15075   6.384   5.499   6.435
 4393SOL    HW115076   6.386   5.490   6.340
 4393SOL    HW215077   6.464   5.548   6.456
 4394SOL     OW15078  13.524   2.319  11.496
 4394SOL    HW115079  13.470   2.279  11.427
 4394SOL    HW215080  13.497   2.275  11.576
 4395SOL     OW15081   5.343   4.012   0.857
 4395SOL    HW115082   5.410   3.946   0.842
 4395SOL    HW215083   5.261   3.967   0.835
 4396SOL     OW15084   1.688   8.093  11.329
 4396SOL    HW115085   1.676   8.038  11.407
 4396SOL    HW215086   1.620   8.063  11.268
 4397SOL     OW15087  10.008  13.112   8.777
 4397SOL    HW115088  10.000  13.042   8.842
 4397SOL    HW215089   9.920  13.118   8.738
 4398SOL     OW15090  14.054   9.291   2.047
 4398SOL    HW115091  14.048   9.354   2.118
 4398SOL    HW215092  13.968   9.250   2.043
 4399SOL     OW15093  10.989   6.443  11.109
 4399SOL    HW115094  11.023   6.390  11.181
 4399SOL    HW215095  11.034   6.410  11.031
 4400SOL     OW15096   3.521   1.523   5.711
 4400SOL    HW115097   3.520   1.511   5.616
 4400SOL    HW215098   3.513   1.618   5.724
 4401SOL     OW15099   5.451   9.217   7.316
 4401SOL    HW115100   5.524   9.218   7.254
 4401SOL    HW215101   5.425   9.308   7.325
 4402SOL     OW15102   6.889   7.390  10.977
 4402SOL    HW115103   6.863   7.318  10.919
 4402SOL    HW215104   6.957   7.436  10.928
 4403SOL     OW15105  10.663  11.497  13.357
 4403SOL    HW115106  10.725  11.480  13.285
 4403SOL    HW215107  10.578  11.469  13.322
 4404SOL     OW15108   2.643  11.030  11.340
 4404SOL    HW115109   2.574  11.083  11.380
 4404SOL    HW215110   2.613  11.016  11.250
 4405SOL     OW15111   2.471   4.172  10.926
 4405SOL    HW115112   2.556   4.217  10.920
 4405SOL    HW215113   2.442   4.186  11.016
 4406SOL     OW15114  11.833   5.707  11.362
 4406SOL    HW115115  11.889   5.682  11.436
 4406SOL    HW215116  11.752   5.739  11.403
 4407SOL     OW15117   4.010  13.322   1.983
 4407SOL    HW115118   3.930  13.350   2.027
 4407SOL    HW215119   4.078  13.381   2.017
 4408SOL     OW15120  10.652   0.593   4.486
 4408SOL    HW115121  10.635   0.508   4.526
 4408SOL    HW215122  10.649   0.577   4.392
 4409SOL     OW15123   3.584  10.706  14.649
 4409SOL    HW115124   3.573  10.792  14.610
 4409SOL    HW215125   3.506  10.693  14.703
 4410SOL     OW15126  14.861   6.996   2.199
 4410SOL    HW115127  14.862   7.042   2.283
 4410SOL    HW215128  14.828   7.061   2.137
 4411SOL     OW15129   6.664   0.850   4.624
 4411SOL    HW115130   6.735   0.787   4.611
 4411SOL    HW215131   6.607   0.809   4.689
 4412SOL     OW15132  13.303   9.087  12.141
 4412SOL    HW115133  13.379   9.135  12.106
 4412SOL    HW215134  13.285   9.020  12.075
 4413SOL     OW15135   1.454   1.725   5.953
 4413SOL    HW115136   1.368   1.766   5.942
 4413SOL    HW215137   1.515   1.798   5.962
 4414SOL     OW15138   0.701   6.289   3.037
 4414SOL    HW115139   0.655   6.255   3.114
 4414SOL    HW215140   0.667   6.237   2.964
 4415SOL     OW15141   7.525   0.407  11.433
 4415SOL    HW115142   7.573   0.343  11.381
 4415SOL    HW215143   7.525   0.486  11.380
 4416SOL     OW15144   5.030   6.595   0.822
 4416SOL    HW115145   5.069   6.509   0.836
 4416SOL    HW215146   5.105   6.654   0.816
 4417SOL     OW15147  11.552  11.165  10.938
 4417SOL    HW115148  11.564  11.241  10.881
 4417SOL    HW215149  11.632  11.163  10.991
 4418SOL     OW15150  12.518   4.928   0.876
 4418SOL    HW115151  12.570   4.849   0.888
 4418SOL    HW215152  12.514   4.968   0.963
 4419SOL     OW15153  13.231  11.547  10.283
 4419SOL    HW115154  13.234  11.618  10.220
 4419SOL    HW215155  13.241  11.590  10.368
 4420SOL     OW15156  10.645   2.215   6.734
 4420SOL    HW115157  10.682   2.302   6.748
 4420SOL    HW215158  10.622   2.213   6.641
 4421SOL     OW15159   6.523   3.325   7.982
 4421SOL    HW115160   6.531   3.315   8.077
 4421SOL    HW215161   6.579   3.256   7.946
 4422SOL     OW15162   1.620  14.791  12.603
 4422SOL    HW115163   1.692  14.753  12.653
 4422SOL    HW215164   1.661  14.856  12.547
 4423SOL     OW15165   6.387  14.074   8.264
 4423SOL    HW115166   6.444  14.088   8.188
 4423SOL    HW215167   6.431  14.006   8.315
 4424SOL     OW15168   8.445   3.983   0.124
 4424SOL    HW115169   8.386   3.984   0.048
 4424SOL    HW215170   8.526   4.022   0.092
 4425SOL     OW15171  12.787  12.239   5.915
 4425SOL    HW115172  12.746  12.293   5.983
 4425SOL    HW215173  12.792  12.152   5.954
 4426SOL     OW15174   3.871  10.507   9.178
 4426SOL    HW115175   3.920  10.536   9.254
 4426SOL    HW215176   3.934  10.506   9.106
 4427SOL     OW15177  11.135   2.485  10.164
 4427SOL    HW115178  11.215   2.451  10.203
 4427SOL    HW215179  11.082   2.407  10.145
 4428SOL     OW15180   9.679  13.678   8.822
 4428SOL    HW115181   9.758  13.634   8.856
 4428SOL    HW215182   9.705  13.712   8.737
 4429SOL     OW15183  11.068   9.839  13.586
 4429SOL    HW115184  11.004   9.838  13.657
 4429SOL    HW215185  11.017   9.858  13.507
 4430SOL     OW15186   0.683  10.143   3.294
 4430SOL    HW115187   0.686  10.168   3.386
 4430SOL    HW215188   0.592  10.119   3.278
 4431SOL     OW15189  12.884   0.338  13.631
 4431SOL    HW115190  12.863   0.397  13.559
 4431SOL    HW215191  12.947   0.386  13.684
 4432SOL     OW15192  13.257   1.743   4.025
 4432SOL    HW115193  13.279   1.823   3.978
 4432SOL    HW215194  13.310   1.675   3.983
 4433SOL     OW15195   4.714  10.070  13.572
 4433SOL    HW115196   4.767  10.099  13.647
 4433SOL    HW215197   4.709  10.147  13.515
 4434SOL     OW15198   3.270   3.561   3.707
 4434SOL    HW115199   3.214   3.494   3.746
 4434SOL    HW215200   3.265   3.635   3.768
 4435SOL     OW15201  11.327   3.301   7.785
 4435SOL    HW115202  11.246   3.253   7.801
 4435SOL    HW215203  11.337   3.359   7.861
 4436SOL     OW15204  12.963   7.753   6.934
 4436SOL    HW115205  13.001   7.668   6.916
 4436SOL    HW215206  13.004   7.812   6.870
 4437SOL     OW15207   6.991   2.707   7.526
 4437SOL    HW115208   6.973   2.783   7.582
 4437SOL    HW215209   7.053   2.654   7.576
 4438SOL     OW15210  12.533   4.245  11.437
 4438SOL    HW115211  12.623   4.223  11.460
 4438SOL    HW215212  12.480   4.197  11.500
 4439SOL     OW15213  10.890   7.279   7.160
 4439SOL    HW115214  10.855   7.197   7.125
 4439SOL    HW215215  10.904   7.334   7.083
 4440SOL     OW15216  13.355   0.867   6.050
 4440SOL    HW115217  13.361   0.875   6.145
 4440SOL    HW215218  13.326   0.954   6.020
 4441SOL     OW15219  11.829  11.315   0.017
 4441SOL    HW115220  11.784  11.246   0.065
 4441SOL    HW215221  11.851  11.275  14.810
 4442SOL     OW15222   3.587   3.621   1.405
 4442SOL    HW115223   3.594   3.667   1.489
 4442SOL    HW215224   3.496   3.591   1.401
 4443SOL     OW15225   6.127   4.337   9.658
 4443SOL    HW115226   6.130   4.401   9.729
 4443SOL    HW215227   6.144   4.253   9.701
 4444SOL     OW15228  12.450  12.425  12.395
 4444SOL    HW115229  12.534  12.461  12.364
 4444SOL    HW215230  12.475  12.344  12.441
 4445SOL     OW15231   7.117   2.765   2.711
 4445SOL    HW115232   7.157   2.712   2.780
 4445SOL    HW215233   7.031   2.725   2.697
 4446SOL     OW15234   5.608  10.551   8.949
 4446SOL    HW115235   5.665  10.627   8.935
 4446SOL    HW215236   5.656  10.477   8.911
 4447SOL     OW15237   8.975   2.443  11.278
 4447SOL    HW115238   9.006   2.437  11.188
 4447SOL    HW215239   8.904   2.507  11.275
 4448SOL     OW15240   1.272   4.685   3.959
 4448SOL    HW115241   1.215   4.761   3.954
 4448SOL    HW215242   1.360   4.720   3.949
 4449SOL     OW15243  10.966  10.068   9.664
 4449SOL    HW115244  11.018   9.991   9.688
 4449SOL    HW215245  10.915  10.087   9.743
 4450SOL     OW15246   4.958  14.663  13.921
 4450SOL    HW115247   4.935  14.607  13.847
 4450SOL    HW215248   4.894  14.734  13.918
 4451SOL     OW15249   5.750  11.942   6.215
 4451SOL    HW115250   5.720  12.033   6.220
 4451SOL    HW215251   5.698  11.905   6.143
 4452SOL     OW15252   3.237  12.312  12.278
 4452SOL    HW115253   3.229  12.322  12.183
 4452SOL    HW215254   3.331  12.317  12.295
 4453SOL     OW15255  11.281   2.779   6.923
 4453SOL    HW115256  11.240   2.693   6.925
 4453SOL    HW215257  11.334   2.778   6.843
 4454SOL     OW15258   0.053  13.224   4.170
 4454SOL    HW115259   0.120  13.288   4.193
 4454SOL    HW215260  14.855  13.276   4.143
 4455SOL     OW15261  14.406   5.954   7.804
 4455SOL    HW115262  14.456   5.911   7.735
 4455SOL    HW215263  14.466   6.021   7.838
 4456SOL     OW15264   0.499   2.149  14.805
 4456SOL    HW115265   0.515   2.193  14.722
 4456SOL    HW215266   0.433   2.082  14.784
 4457SOL     OW15267   5.159  14.067   5.626
 4457SOL    HW115268   5.124  14.112   5.549
 4457SOL    HW215269   5.239  14.024   5.595
 4458SOL     OW15270  10.370   2.949  10.648
 4458SOL    HW115271  10.465   2.942  10.655
 4458SOL    HW215272  10.354   2.952  10.553
 4459SOL     OW15273   3.865  14.370   0.075
 4459SOL    HW115274   3.814  14.294   0.046
 4459SOL    HW215275   3.813  14.408   0.146
 4460SOL     OW15276   1.807   7.687  12.545
 4460SOL    HW115277   1.751   7.614  12.519
 4460SOL    HW215278   1.841   7.722  12.462
 4461SOL     OW15279  13.004   9.705  10.581
 4461SOL    HW115280  13.069   9.773  10.600
 4461SOL    HW215281  12.983   9.668  10.667
 4462SOL     OW15282  13.625   3.544   9.220
 4462SOL    HW115283  13.685   3.619   9.231
 4462SOL    HW215284  13.543   3.583   9.192
 4463SOL     OW15285   0.807   5.746   9.137
 4463SOL    HW115286   0.873   5.812   9.114
 4463SOL    HW215287   0.851   5.662   9.125
 4464SOL     OW15288   7.141   0.177   6.001
 4464SOL    HW115289   7.076   0.226   5.951
 4464SOL    HW215290   7.183   0.244   6.056
 4465SOL     OW15291  11.998  11.552   4.604
 4465SOL    HW115292  11.916  11.510   4.578
 4465SOL    HW215293  11.995  11.553   4.699
 4466SOL     OW15294  10.209  12.581   5.794
 4466SOL    HW115295  10.177  12.578   5.884
 4466SOL    HW215296  10.304  12.575   5.802
 4467SOL     OW15297  14.673   4.881   5.847
 4467SOL    HW115298  14.640   4.795   5.820
 4467SOL    HW215299  14.595   4.929   5.873
 4468SOL     OW15300   9.059   1.829   4.062
 4468SOL    HW115301   9.105   1.825   4.146
 4468SOL    HW215302   9.052   1.738   4.035
 4469SOL     OW15303   2.909   0.922  14.623
 4469SOL    HW115304   2.823   0.957  14.601
 4469SOL    HW215305   2.891   0.841  14.670
 4470SOL     OW15306   9.943   7.993  14.079
 4470SOL    HW115307   9.954   7.934  14.154
 4470SOL    HW215308   9.852   7.982  14.052
 4471SOL     OW15309   3.395  14.270   9.918
 4471SOL    HW115310   3.350  14.332   9.976
 4471SOL    HW215311   3.485  14.303   9.914
 4472SOL     OW15312   6.554   0.116   7.278
 4472SOL    HW115313   6.471   0.074   7.299
 4472SOL    HW215314   6.620   0.047   7.293
 4473SOL     OW15315  10.213   9.738  14.220
 4473SOL    HW115316  10.189   9.665  14.162
 4473SOL    HW215317  10.225   9.812  14.161
 4474SOL     OW15318  11.837  14.732   5.429
 4474SOL    HW115319  11.895  14.771   5.364
 4474SOL    HW215320  11.897  14.691   5.493
 4475SOL     OW15321   8.406   8.535  10.672
 4475SOL    HW115322   8.384   8.601  10.606
 4475SOL    HW215323   8.360   8.456  10.644
 4476SOL     OW15324  11.887  10.410   9.646
 4476SOL    HW115325  11.948  10.419   9.573
 4476SOL    HW215326  11.800  10.417   9.606
 4477SOL     OW15327   5.646  13.444   4.559
 4477SOL    HW115328   5.707  13.410   4.495
 4477SOL    HW215329   5.562  13.405   4.536
 4478SOL     OW15330   3.827   2.935   4.629
 4478SOL    HW115331   3.882   2.862   4.659
 4478SOL    HW215332   3.865   3.012   4.672
 4479SOL     OW15333   3.408  13.790   2.415
 4479SOL    HW115334   3.421  13.703   2.377
 4479SOL    HW215335   3.455  13.787   2.498
 4480SOL     OW15336  13.080   8.891  10.400
 4480SOL    HW115337  12.999   8.842  10.385
 4480SOL    HW215338  13.073   8.921  10.491
 4481SOL     OW15339   6.495   2.557   9.898
 4481SOL    HW115340   6.548   2.480   9.880
 4481SOL    HW215341   6.556   2.630   9.896
 4482SOL     OW15342   0.233   6.853  14.088
 4482SOL    HW115343   0.311   6.808  14.120
 4482SOL    HW215344   0.206   6.908  14.162
 4483SOL     OW15345  11.259   7.357   6.766
 4483SOL    HW115346  11.335   7.300   6.777
 4483SOL    HW215347  11.291   7.429   6.712
 4484SOL     OW15348  10.227  11.550   8.747
 4484SOL    HW115349  10.156  11.525   8.806
 4484SOL    HW215350  10.306  11.520   8.791
 4485SOL     OW15351  13.510   1.316   0.176
 4485SOL    HW115352  13.423   1.278   0.188
 4485SOL    HW215353  13.494   1.396   0.126
 4486SOL     OW15354   4.759  11.570  13.364
 4486SOL    HW115355   4.750  11.627  13.288
 4486SOL    HW215356   4.779  11.484  13.328
 4487SOL     OW15357   6.073   8.646   6.686
 4487SOL    HW115358   6.153   8.698   6.685
 4487SOL    HW215359   6.102   8.556   6.698
 4488SOL     OW15360   1.139  12.066  14.376
 4488SOL    HW115361   1.151  12.160  14.363
 4488SOL    HW215362   1.190  12.025  14.306
 4489SOL     OW15363   4.157   1.199   7.033
 4489SOL    HW115364   4.082   1.242   6.994
 4489SOL    HW215365   4.202   1.268   7.082
 4490SOL     OW15366   3.133  10.350   2.797
 4490SOL    HW115367   3.180  10.315   2.721
 4490SOL    HW215368   3.171  10.437   2.810
 4491SOL     OW15369   5.017   4.539  12.377
 4491SOL    HW115370   5.044   4.528  12.468
 4491SOL    HW215371   5.005   4.450  12.345
 4492SOL     OW15372   7.261   0.775   8.551
 4492SOL    HW115373   7.343   0.726   8.550
 4492SOL    HW215374   7.194   0.708   8.566
 4493SOL     OW15375   8.834   2.808   4.262
 4493SOL    HW115376   8.863   2.893   4.293
 4493SOL    HW215377   8.755   2.790   4.313
 4494SOL     OW15378  10.487   4.132   0.756
 4494SOL    HW115379  10.554   4.197   0.733
 4494SOL    HW215380  10.483   4.074   0.680
 4495SOL     OW15381  12.234   0.838   5.199
 4495SOL    HW115382  12.173   0.898   5.243
 4495SOL    HW215383  12.274   0.788   5.270
 4496SOL     OW15384  12.304   5.311  12.519
 4496SOL    HW115385  12.299   5.282  12.428
 4496SOL    HW215386  12.397   5.325  12.534
 4497SOL     OW15387   2.743   5.805   2.831
 4497SOL    HW115388   2.748   5.885   2.778
 4497SOL    HW215389   2.687   5.746   2.780
 4498SOL     OW15390   4.579   2.822  12.333
 4498SOL    HW115391   4.625   2.887  12.280
 4498SOL    HW215392   4.632   2.813  12.412
 4499SOL     OW15393   2.165  13.801   4.655
 4499SOL    HW115394   2.088  13.785   4.710
 4499SOL    HW215395   2.171  13.896   4.650
 4500SOL     OW15396  11.676   5.490  13.996
 4500SOL    HW115397  11.606   5.443  14.041
 4500SOL    HW215398  11.748   5.491  14.058
 4501SOL     OW15399   5.391  13.788  14.602
 4501SOL    HW115400   5.428  13.852  14.662
 4501SOL    HW215401   5.309  13.761  14.643
 4502SOL     OW15402   7.625   0.285  12.517
 4502SOL    HW115403   7.535   0.316  12.529
 4502SOL    HW215404   7.668   0.354  12.467
 4503SOL     OW15405   1.988   7.004   7.682
 4503SOL    HW115406   2.051   7.030   7.749
 4503SOL    HW215407   1.920   7.071   7.685
 4504SOL     OW15408   6.548   9.364  10.931
 4504SOL    HW115409   6.610   9.369  10.859
 4504SOL    HW215410   6.600   9.381  11.009
 4505SOL     OW15411  11.002   9.465   7.967
 4505SOL    HW115412  11.033   9.441   8.054
 4505SOL    HW215413  11.012   9.385   7.915
 4506SOL     OW15414   1.648   1.241  13.723
 4506SOL    HW115415   1.565   1.284  13.744
 4506SOL    HW215416   1.661   1.259  13.630
 4507SOL     OW15417  10.332   5.369   7.847
 4507SOL    HW115418  10.269   5.335   7.784
 4507SOL    HW215419  10.364   5.450   7.808
 4508SOL     OW15420   1.716   4.180  10.358
 4508SOL    HW115421   1.762   4.120  10.417
 4508SOL    HW215422   1.675   4.243  10.416
 4509SOL     OW15423   9.385   8.438   7.239
 4509SOL    HW115424   9.304   8.488   7.235
 4509SOL    HW215425   9.399   8.406   7.150
 4510SOL     OW15426   3.489  11.100  14.338
 4510SOL    HW115427   3.468  11.108  14.431
 4510SOL    HW215428   3.438  11.170  14.296
 4511SOL     OW15429   1.422   8.746   2.688
 4511SOL    HW115430   1.399   8.653   2.679
 4511SOL    HW215431   1.409   8.765   2.780
 4512SOL     OW15432   9.459  14.851  13.419
 4512SOL    HW115433   9.511  14.772  13.431
 4512SOL    HW215434   9.507   0.025  13.355
 4513SOL     OW15435  10.552   6.926   9.796
 4513SOL    HW115436  10.572   6.911   9.888
 4513SOL    HW215437  10.568   7.019   9.782
 4514SOL     OW15438   6.628  12.962   7.006
 4514SOL    HW115439   6.597  13.038   6.955
 4514SOL    HW215440   6.562  12.951   7.075
 4515SOL     OW15441  11.768   7.830   6.772
 4515SOL    HW115442  11.782   7.846   6.866
 4515SOL    HW215443  11.759   7.917   6.734
 4516SOL     OW15444   6.077   5.434   8.586
 4516SOL    HW115445   6.166   5.406   8.607
 4516SOL    HW215446   6.086   5.484   8.505
 4517SOL     OW15447   6.901  11.470  10.557
 4517SOL    HW115448   6.994  11.494  10.558
 4517SOL    HW215449   6.878  11.460  10.649
 4518SOL     OW15450   1.027  10.334   6.513
 4518SOL    HW115451   1.115  10.366   6.532
 4518SOL    HW215452   0.980  10.345   6.595
 4519SOL     OW15453  13.352   5.235   0.203
 4519SOL    HW115454  13.415   5.260   0.136
 4519SOL    HW215455  13.320   5.149   0.176
 4520SOL     OW15456  12.687   0.346   7.503
 4520SOL    HW115457  12.674   0.330   7.597
 4520SOL    HW215458  12.663   0.263   7.461
 4521SOL     OW15459  11.419   9.300  12.131
 4521SOL    HW115460  11.463   9.220  12.161
 4521SOL    HW215461  11.358   9.321  12.202
 4522SOL     OW15462   9.213   7.816  12.995
 4522SOL    HW115463   9.289   7.871  13.012
 4522SOL    HW215464   9.249   7.729  12.977
 4523SOL     OW15465  10.835   2.881   0.879
 4523SOL    HW115466  10.886   2.942   0.932
 4523SOL    HW215467  10.894   2.806   0.865
 4524SOL     OW15468  12.200   1.588   5.998
 4524SOL    HW115469  12.173   1.518   5.938
 4524SOL    HW215470  12.280   1.555   6.039
 4525SOL     OW15471   4.855   3.969  11.885
 4525SOL    HW115472   4.793   3.896  11.897
 4525SOL    HW215473   4.854   3.986  11.791
 4526SOL     OW15474  11.396   0.174   0.358
 4526SOL    HW115475  11.479   0.185   0.405
 4526SOL    HW215476  11.370   0.083   0.376
 4527SOL     OW15477   5.338   2.891  13.817
 4527SOL    HW115478   5.293   2.900  13.733
 4527SOL    HW215479   5.381   2.975  13.830
 4528SOL     OW15480  11.294   5.942   2.005
 4528SOL    HW115481  11.384   5.960   2.031
 4528SOL    HW215482  11.284   5.848   2.017
 4529SOL     OW15483   2.310   8.424   8.779
 4529SOL    HW115484   2.282   8.407   8.689
 4529SOL    HW215485   2.352   8.509   8.775
 4530SOL     OW15486   2.369  14.787   4.547
 4530SOL    HW115487   2.310  14.860   4.530
 4530SOL    HW215488   2.386  14.750   4.461
 4531SOL     OW15489   8.935   1.104   0.694
 4531SOL    HW115490   8.849   1.135   0.723
 4531SOL    HW215491   8.919   1.015   0.662
 4532SOL     OW15492   8.840  14.353   7.982
 4532SOL    HW115493   8.905  14.294   8.020
 4532SOL    HW215494   8.817  14.313   7.899
 4533SOL     OW15495  14.745   1.737   5.597
 4533SOL    HW115496  14.771   1.672   5.662
 4533SOL    HW215497  14.661   1.705   5.563
 4534SOL     OW15498   7.464   2.126   7.580
 4534SOL    HW115499   7.385   2.173   7.606
 4534SOL    HW215500   7.456   2.040   7.622
 4535SOL     OW15501   7.345   2.012  11.126
 4535SOL    HW115502   7.319   2.043  11.213
 4535SOL    HW215503   7.358   1.918  11.137
 4536SOL     OW15504  12.561  10.965  14.087
 4536SOL    HW115505  12.613  11.045  14.088
 4536SOL    HW215506  12.548  10.947  13.994
 4537SOL     OW15507   8.622  10.290   7.115
 4537SOL    HW115508   8.697  10.265   7.062
 4537SOL    HW215509   8.564  10.214   7.110
 4538SOL     OW15510  12.506   5.904   4.328
 4538SOL    HW115511  12.546   5.820   4.351
 4538SOL    HW215512  12.572   5.948   4.274
 4539SOL     OW15513   8.401   1.142  14.519
 4539SOL    HW115514   8.494   1.162  14.531
 4539SOL    HW215515   8.366   1.217  14.471
 4540SOL     OW15516   4.782   7.332   1.067
 4540SOL    HW115517   4.824   7.247   1.055
 4540SOL    HW215518   4.706   7.330   1.009
 4541SOL     OW15519  10.250   5.330   8.656
 4541SOL    HW115520  10.280   5.421   8.652
 4541SOL    HW215521  10.155   5.336   8.663
 4542SOL     OW15522   3.927  14.492   4.814
 4542SOL    HW115523   3.892  14.498   4.726
 4542SOL    HW215524   3.855  14.518   4.871
 4543SOL     OW15525   4.440   3.291   0.747
 4543SOL    HW115526   4.450   3.337   0.664
 4543SOL    HW215527   4.442   3.361   0.813
 4544SOL     OW15528   4.516  12.432   4.336
 4544SOL    HW115529   4.553  12.395   4.417
 4544SOL    HW215530   4.463  12.361   4.300
 4545SOL     OW15531  11.678  14.024  14.206
 4545SOL    HW115532  11.690  14.103  14.257
 4545SOL    HW215533  11.744  14.030  14.136
 4546SOL     OW15534  13.852  14.633   8.545
 4546SOL    HW115535  13.882  14.703   8.603
 4546SOL    HW215536  13.920  14.627   8.478
 4547SOL     OW15537   2.730   5.953  12.740
 4547SOL    HW115538   2.716   5.937  12.646
 4547SOL    HW215539   2.822   5.932  12.754
 4548SOL     OW15540   9.970   2.152   7.571
 4548SOL    HW115541   9.915   2.093   7.519
 4548SOL    HW215542   9.919   2.233   7.576
 4549SOL     OW15543   5.478   7.902   8.823
 4549SOL    HW115544   5.421   7.958   8.876
 4549SOL    HW215545   5.516   7.961   8.758
 4550SOL     OW15546  10.395   2.252   3.222
 4550SOL    HW115547  10.443   2.245   3.139
 4550SOL    HW215548  10.441   2.320   3.271
 4551SOL     OW15549   3.829   9.380   0.067
 4551SOL    HW115550   3.761   9.423   0.119
 4551SOL    HW215551   3.784   9.353  14.865
 4552SOL     OW15552   0.713  12.282   9.037
 4552SOL    HW115553   0.684  12.369   9.063
 4552SOL    HW215554   0.667  12.265   8.955
 4553SOL     OW15555  13.942   0.753   9.293
 4553SOL    HW115556  13.860   0.751   9.243
 4553SOL    HW215557  13.961   0.846   9.304
 4554SOL     OW15558  11.373   5.129   7.513
 4554SOL    HW115559  11.444   5.121   7.577
 4554SOL    HW215560  11.417   5.154   7.431
 4555SOL     OW15561  12.250  10.805  12.840
 4555SOL    HW115562  12.198  10.757  12.904
 4555SOL    HW215563  12.282  10.738  12.779
 4556SOL     OW15564   3.266  11.304   2.324
 4556SOL    HW115565   3.315  11.222   2.316
 4556SOL    HW215566   3.324  11.363   2.372
 4557SOL     OW15567   0.109  14.683   4.387
 4557SOL    HW115568   0.199  14.667   4.415
 4557SOL    HW215569   0.101  14.638   4.303
 4558SOL     OW15570   2.766   7.824  13.213
 4558SOL    HW115571   2.790   7.916  13.220
 4558SOL    HW215572   2.844   7.777  13.241
 4559SOL     OW15573  11.123  11.074   1.787
 4559SOL    HW115574  11.080  10.990   1.773
 4559SOL    HW215575  11.188  11.081   1.718
 4560SOL     OW15576  14.194   1.145   5.359
 4560SOL    HW115577  14.267   1.184   5.311
 4560SOL    HW215578  14.135   1.112   5.291
 4561SOL     OW15579  12.508   0.557  12.774
 4561SOL    HW115580  12.588   0.607  12.757
 4561SOL    HW215581  12.483   0.582  12.863
 4562SOL     OW15582   0.966  11.486  13.652
 4562SOL    HW115583   0.982  11.424  13.723
 4562SOL    HW215584   1.053  11.507  13.618
 4563SOL     OW15585  11.416   7.872  12.989
 4563SOL    HW115586  11.419   7.784  13.027
 4563SOL    HW215587  11.323   7.890  12.974
 4564SOL     OW15588   8.583   1.155   3.547
 4564SOL    HW115589   8.572   1.125   3.637
 4564SOL    HW215590   8.595   1.249   3.554
 4565SOL     OW15591  10.333   0.946   3.688
 4565SOL    HW115592  10.282   0.998   3.750
 4565SOL    HW215593  10.424   0.963   3.711
 4566SOL     OW15594  12.307  12.515  10.854
 4566SOL    HW115595  12.220  12.551  10.840
 4566SOL    HW215596  12.367  12.585  10.827
 4567SOL     OW15597  11.535   8.904   3.324
 4567SOL    HW115598  11.617   8.882   3.369
 4567SOL    HW215599  11.525   8.834   3.259
 4568SOL     OW15600   3.313   5.429   0.692
 4568SOL    HW115601   3.374   5.358   0.711
 4568SOL    HW215602   3.237   5.386   0.652
 4569SOL     OW15603   8.114   6.083   5.437
 4569SOL    HW115604   8.138   5.991   5.445
 4569SOL    HW215605   8.021   6.086   5.459
 4570SOL     OW15606   4.245   6.590   9.427
 4570SOL    HW115607   4.184   6.567   9.497
 4570SOL    HW215608   4.307   6.651   9.468
 4571SOL     OW15609  14.448  13.665  14.434
 4571SOL    HW115610  14.356  13.638  14.434
 4571SOL    HW215611  14.447  13.757  14.461
 4572SOL     OW15612   0.654   4.626  13.433
 4572SOL    HW115613   0.657   4.700  13.494
 4572SOL    HW215614   0.580   4.645  13.375
 4573SOL     OW15615   1.772  12.866   1.991
 4573SOL    HW115616   1.765  12.954   1.954
 4573SOL    HW215617   1.848  12.827   1.947
 4574SOL     OW15618   7.383   4.379   0.394
 4574SOL    HW115619   7.479   4.383   0.394
 4574SOL    HW215620   7.356   4.470   0.384
 4575SOL     OW15621   7.478  11.933  12.086
 4575SOL    HW115622   7.459  11.915  12.178
 4575SOL    HW215623   7.562  11.980  12.089
 4576SOL     OW15624   6.616   5.559   0.048
 4576SOL    HW115625   6.572   5.638   0.081
 4576SOL    HW215626   6.582   5.549  14.836
 4577SOL     OW15627   9.853   7.069  11.428
 4577SOL    HW115628   9.828   7.110  11.346
 4577SOL    HW215629   9.811   6.983  11.426
 4578SOL     OW15630   9.014   8.197  12.572
 4578SOL    HW115631   8.986   8.120  12.522
 4578SOL    HW215632   8.995   8.174  12.663
 4579SOL     OW15633   4.268   7.079   4.192
 4579SOL    HW115634   4.240   7.052   4.279
 4579SOL    HW215635   4.327   7.009   4.163
 4580SOL     OW15636  13.203  11.601   8.691
 4580SOL    HW115637  13.191  11.523   8.745
 4580SOL    HW215638  13.190  11.674   8.752
 4581SOL     OW15639   9.129   2.181  12.205
 4581SOL    HW115640   9.118   2.199  12.298
 4581SOL    HW215641   9.113   2.087  12.197
 4582SOL     OW15642   2.918  12.404   7.693
 4582SOL    HW115643   2.927  12.415   7.598
 4582SOL    HW215644   2.953  12.485   7.730
 4583SOL     OW15645  12.304  10.614  13.356
 4583SOL    HW115646  12.355  10.573  13.287
 4583SOL    HW215647  12.340  10.703  13.364
 4584SOL     OW15648   5.146  13.426   1.977
 4584SOL    HW115649   5.083  13.427   1.905
 4584SOL    HW215650   5.096  13.395   2.052
 4585SOL     OW15651   1.836   2.097  11.765
 4585SOL    HW115652   1.794   2.145  11.836
 4585SOL    HW215653   1.801   2.008  11.772
 4586SOL     OW15654   2.524   4.691  11.873
 4586SOL    HW115655   2.465   4.653  11.939
 4586SOL    HW215656   2.489   4.779  11.858
 4587SOL     OW15657   3.932  12.943  12.814
 4587SOL    HW115658   3.922  13.018  12.756
 4587SOL    HW215659   3.843  12.925  12.846
 4588SOL     OW15660   5.792   4.448   0.583
 4588SOL    HW115661   5.872   4.497   0.606
 4588SOL    HW215662   5.744   4.441   0.666
 4589SOL     OW15663   8.285  11.878  10.233
 4589SOL    HW115664   8.312  11.786  10.234
 4589SOL    HW215665   8.289  11.906  10.324
 4590SOL     OW15666  10.774  12.242   9.069
 4590SOL    HW115667  10.823  12.320   9.094
 4590SOL    HW215668  10.836  12.169   9.080
 4591SOL     OW15669   8.861   2.073   0.764
 4591SOL    HW115670   8.891   2.095   0.852
 4591SOL    HW215671   8.770   2.047   0.775
 4592SOL     OW15672  12.173   6.141   2.020
 4592SOL    HW115673  12.185   6.068   2.080
 4592SOL    HW215674  12.146   6.101   1.938
 4593SOL     OW15675  10.772   0.957  12.749
 4593SOL    HW115676  10.795   1.011  12.673
 4593SOL    HW215677  10.809   0.870  12.728
 4594SOL     OW15678  13.275   2.298   3.472
 4594SOL    HW115679  13.190   2.267   3.504
 4594SOL    HW215680  13.313   2.223   3.426
 4595SOL     OW15681   9.076   4.927   8.901
 4595SOL    HW115682   9.087   4.891   8.989
 4595SOL    HW215683   9.090   4.853   8.843
 4596SOL     OW15684  14.018   2.103   3.937
 4596SOL    HW115685  13.923   2.107   3.928
 4596SOL    HW215686  14.049   2.070   3.852
 4597SOL     OW15687  11.293   8.950   1.803
 4597SOL    HW115688  11.296   8.884   1.735
 4597SOL    HW215689  11.323   8.905   1.882
 4598SOL     OW15690  13.757   8.962   2.599
 4598SOL    HW115691  13.786   8.875   2.627
 4598SOL    HW215692  13.680   8.946   2.544
 4599SOL     OW15693   3.535   6.825  14.277
 4599SOL    HW115694   3.546   6.829  14.372
 4599SOL    HW215695   3.609   6.773  14.247
 4600SOL     OW15696   4.226  10.189   2.260
 4600SOL    HW115697   4.190  10.147   2.339
 4600SOL    HW215698   4.254  10.276   2.290
 4601SOL     OW15699  10.813   1.259   8.099
 4601SOL    HW115700  10.834   1.178   8.053
 4601SOL    HW215701  10.895   1.286   8.139
 4602SOL     OW15702  12.213   1.225   5.288
 4602SOL    HW115703  12.215   1.132   5.309
 4602SOL    HW215704  12.120   1.247   5.283
 4603SOL     OW15705   4.245  10.627   4.370
 4603SOL    HW115706   4.301  10.550   4.363
 4603SOL    HW215707   4.266  10.680   4.294
 4604SOL     OW15708   2.525   8.402   0.714
 4604SOL    HW115709   2.581   8.327   0.690
 4604SOL    HW215710   2.490   8.379   0.800
 4605SOL     OW15711  10.930   6.857   1.251
 4605SOL    HW115712  10.936   6.951   1.234
 4605SOL    HW215713  10.841   6.844   1.285
 4606SOL     OW15714   6.258   0.407   2.393
 4606SOL    HW115715   6.328   0.367   2.342
 4606SOL    HW215716   6.177   0.371   2.356
 4607SOL     OW15717  12.666   0.944   4.380
 4607SOL    HW115718  12.651   0.882   4.309
 4607SOL    HW215719  12.645   0.895   4.460
 4608SOL     OW15720  10.585  12.026  10.413
 4608SOL    HW115721  10.580  11.960  10.344
 4608SOL    HW215722  10.540  12.102  10.376
 4609SOL     OW15723   9.597  14.137  14.240
 4609SOL    HW115724   9.560  14.176  14.319
 4609SOL    HW215725   9.521  14.104  14.192
 4610SOL     OW15726   6.253   9.697   5.519
 4610SOL    HW115727   6.266   9.641   5.595
 4610SOL    HW215728   6.342   9.722   5.492
 4611SOL     OW15729   8.640  10.876   4.604
 4611SOL    HW115730   8.613  10.786   4.621
 4611SOL    HW215731   8.640  10.918   4.690
 4612SOL     OW15732   7.137   9.694  11.467
 4612SOL    HW115733   7.214   9.656  11.426
 4612SOL    HW215734   7.094   9.742  11.396
 4613SOL     OW15735   2.395   5.156  12.129
 4613SOL    HW115736   2.460   5.089  12.107
 4613SOL    HW215737   2.311   5.111  12.122
 4614SOL     OW15738  13.581  13.045  11.512
 4614SOL    HW115739  13.657  13.046  11.454
 4614SOL    HW215740  13.582  12.958  11.551
 4615SOL     OW15741   4.300  12.854   5.327
 4615SOL    HW115742   4.337  12.906   5.255
 4615SOL    HW215743   4.255  12.919   5.382
 4616SOL     OW15744  12.946   7.801   2.367
 4616SOL    HW115745  12.984   7.724   2.410
 4616SOL    HW215746  12.872   7.765   2.318
 4617SOL     OW15747   7.299   6.436  10.276
 4617SOL    HW115748   7.337   6.408  10.192
 4617SOL    HW215749   7.371   6.481  10.321
 4618SOL     OW15750  12.165   3.730   7.798
 4618SOL    HW115751  12.087   3.687   7.833
 4618SOL    HW215752  12.208   3.662   7.747
 4619SOL     OW15753  11.475  12.277   9.825
 4619SOL    HW115754  11.466  12.281   9.920
 4619SOL    HW215755  11.527  12.354   9.803
 4620SOL     OW15756  11.963  13.754  12.759
 4620SOL    HW115757  11.880  13.793  12.788
 4620SOL    HW215758  11.980  13.685  12.823
 4621SOL     OW15759   8.837   2.613   8.583
 4621SOL    HW115760   8.794   2.638   8.502
 4621SOL    HW215761   8.921   2.575   8.556
 4622SOL     OW15762   4.250  10.678  13.953
 4622SOL    HW115763   4.229  10.727  13.874
 4622SOL    HW215764   4.197  10.598  13.947
 4623SOL     OW15765  11.525  14.055   5.927
 4623SOL    HW115766  11.580  14.119   5.882
 4623SOL    HW215767  11.435  14.083   5.908
 4624SOL     OW15768   2.905   4.626   0.462
 4624SOL    HW115769   2.861   4.629   0.377
 4624SOL    HW215770   2.991   4.663   0.445
 4625SOL     OW15771   9.943  10.255  13.041
 4625SOL    HW115772   9.938  10.170  13.084
 4625SOL    HW215773  10.021  10.297  13.079
 4626SOL     OW15774  11.103   9.141   5.237
 4626SOL    HW115775  11.065   9.209   5.181
 4626SOL    HW215776  11.195   9.136   5.209
 4627SOL     OW15777   8.829  11.351   2.098
 4627SOL    HW115778   8.809  11.381   2.187
 4627SOL    HW215779   8.890  11.278   2.111
 4628SOL     OW15780   3.847  12.593  12.442
 4628SOL    HW115781   3.769  12.607  12.497
 4628SOL    HW215782   3.863  12.678  12.402
 4629SOL     OW15783   7.015  10.794  11.740
 4629SOL    HW115784   7.107  10.773  11.724
 4629SOL    HW215785   6.991  10.743  11.818
 4630SOL     OW15786  13.684   9.463   9.659
 4630SOL    HW115787  13.668   9.403   9.586
 4630SOL    HW215788  13.665   9.549   9.623
 4631SOL     OW15789   5.168   7.448   6.450
 4631SOL    HW115790   5.219   7.465   6.371
 4631SOL    HW215791   5.231   7.462   6.522
 4632SOL     OW15792   0.992   8.601  11.656
 4632SOL    HW115793   0.975   8.571  11.746
 4632SOL    HW215794   1.077   8.644  11.662
 4633SOL     OW15795  13.383  11.145   9.956
 4633SOL    HW115796  13.398  11.239   9.970
 4633SOL    HW215797  13.458  11.102   9.997
 4634SOL     OW15798   6.812   5.740   5.917
 4634SOL    HW115799   6.775   5.697   5.840
 4634SOL    HW215800   6.834   5.668   5.976
 4635SOL     OW15801   8.919   3.602   4.673
 4635SOL    HW115802   8.885   3.592   4.584
 4635SOL    HW215803   8.843   3.625   4.726
 4636SOL     OW15804   4.027  13.022  10.278
 4636SOL    HW115805   4.028  13.071  10.196
 4636SOL    HW215806   3.942  13.043  10.318
 4637SOL     OW15807  11.049  10.595   5.491
 4637SOL    HW115808  10.972  10.639   5.455
 4637SOL    HW215809  11.016  10.511   5.523
 4638SOL     OW15810   8.146   7.470   4.219
 4638SOL    HW115811   8.126   7.531   4.290
 4638SOL    HW215812   8.123   7.517   4.139
 4639SOL     OW15813   8.563   9.671   7.853
 4639SOL    HW115814   8.532   9.758   7.830
 4639SOL    HW215815   8.574   9.673   7.948
 4640SOL     OW15816   2.194  14.146   9.059
 4640SOL    HW115817   2.105  14.177   9.040
 4640SOL    HW215818   2.214  14.084   8.989
 4641SOL     OW15819  13.075   0.818   6.090
 4641SOL    HW115820  13.151   0.873   6.073
 4641SOL    HW215821  13.112   0.734   6.118
 4642SOL     OW15822   4.908   6.142   7.033
 4642SOL    HW115823   4.915   6.210   7.100
 4642SOL    HW215824   4.969   6.074   7.061
 4643SOL     OW15825   0.375   4.332   0.144
 4643SOL    HW115826   0.351   4.372   0.228
 4643SOL    HW215827   0.398   4.406   0.088
 4644SOL     OW15828   4.636  12.062   3.424
 4644SOL    HW115829   4.564  12.081   3.485
 4644SOL    HW215830   4.682  12.145   3.414
 4645SOL     OW15831  13.992   9.298   0.943
 4645SOL    HW115832  13.949   9.368   0.992
 4645SOL    HW215833  13.967   9.218   0.988
 4646SOL     OW15834   1.616  12.304   9.349
 4646SOL    HW115835   1.707  12.333   9.353
 4646SOL    HW215836   1.617  12.231   9.286
 4647SOL     OW15837  12.321   1.220   2.016
 4647SOL    HW115838  12.281   1.133   2.012
 4647SOL    HW215839  12.265   1.275   1.962
 4648SOL     OW15840   8.913   3.171  11.787
 4648SOL    HW115841   8.890   3.141  11.700
 4648SOL    HW215842   8.830   3.200  11.825
 4649SOL     OW15843   1.935   2.796   3.915
 4649SOL    HW115844   1.865   2.770   3.854
 4649SOL    HW215845   1.938   2.891   3.909
 4650SOL     OW15846   3.966   6.000   0.719
 4650SOL    HW115847   3.962   6.062   0.646
 4650SOL    HW215848   3.990   6.054   0.794
 4651SOL     OW15849   9.538  14.690   4.428
 4651SOL    HW115850   9.536  14.764   4.367
 4651SOL    HW215851   9.586  14.622   4.382
 4652SOL     OW15852   4.026  10.132   9.338
 4652SOL    HW115853   3.961  10.202   9.335
 4652SOL    HW215854   4.050  10.125   9.431
 4653SOL     OW15855   1.127  10.557   4.620
 4653SOL    HW115856   1.184  10.499   4.671
 4653SOL    HW215857   1.136  10.526   4.530
 4654SOL     OW15858   0.837  13.608  11.996
 4654SOL    HW115859   0.819  13.529  12.048
 4654SOL    HW215860   0.772  13.672  12.025
 4655SOL     OW15861  14.163   2.404  10.453
 4655SOL    HW115862  14.122   2.367  10.375
 4655SOL    HW215863  14.230   2.340  10.479
 4656SOL     OW15864  13.158   0.711   6.488
 4656SOL    HW115865  13.132   0.626   6.526
 4656SOL    HW215866  13.095   0.725   6.417
 4657SOL     OW15867  12.630  10.380  13.982
 4657SOL    HW115868  12.664  10.342  13.901
 4657SOL    HW215869  12.545  10.418  13.958
 4658SOL     OW15870   2.458   9.719   9.559
 4658SOL    HW115871   2.473   9.813   9.547
 4658SOL    HW215872   2.380   9.700   9.507
 4659SOL     OW15873   8.897   1.781   8.620
 4659SOL    HW115874   8.923   1.723   8.691
 4659SOL    HW215875   8.957   1.855   8.626
 4660SOL     OW15876  11.920   3.192  11.681
 4660SOL    HW115877  11.855   3.132  11.644
 4660SOL    HW215878  12.001   3.141  11.684
 4661SOL     OW15879   0.604   9.105   3.181
 4661SOL    HW115880   0.591   9.032   3.121
 4661SOL    HW215881   0.554   9.177   3.143
 4662SOL     OW15882  12.866  13.716  10.758
 4662SOL    HW115883  12.775  13.699  10.735
 4662SOL    HW215884  12.902  13.761  10.681
 4663SOL     OW15885  14.016   1.535   8.974
 4663SOL    HW115886  13.925   1.556   8.954
 4663SOL    HW215887  14.038   1.591   9.048
 4664SOL     OW15888  12.768  14.573   3.569
 4664SOL    HW115889  12.760  14.642   3.635
 4664SOL    HW215890  12.862  14.560   3.559
 4665SOL     OW15891  10.732   0.825   4.587
 4665SOL    HW115892  10.696   0.738   4.568
 4665SOL    HW215893  10.655   0.879   4.605
 4666SOL     OW15894   5.065  11.252  13.698
 4666SOL    HW115895   5.011  11.190  13.649
 4666SOL    HW215896   5.105  11.200  13.768
 4667SOL     OW15897   9.561   1.493  13.181
 4667SOL    HW115898   9.614   1.515  13.257
 4667SOL    HW215899   9.586   1.403  13.159
 4668SOL     OW15900  14.131   9.120   1.833
 4668SOL    HW115901  14.201   9.165   1.785
 4668SOL    HW215902  14.091   9.189   1.886
 4669SOL     OW15903  10.735   6.147  10.354
 4669SOL    HW115904  10.685   6.220  10.391
 4669SOL    HW215905  10.825   6.178  10.352
 4670SOL     OW15906   7.488   0.943   1.788
 4670SOL    HW115907   7.491   0.964   1.695
 4670SOL    HW215908   7.553   1.001   1.828
 4671SOL     OW15909   1.619   6.897   3.451
 4671SOL    HW115910   1.525   6.894   3.470
 4671SOL    HW215911   1.657   6.832   3.510
 4672SOL     OW15912   0.888   1.425   6.114
 4672SOL    HW115913   0.796   1.413   6.137
 4672SOL    HW215914   0.930   1.453   6.195
 4673SOL     OW15915   3.595   9.527   9.891
 4673SOL    HW115916   3.687   9.523   9.865
 4673SOL    HW215917   3.565   9.437   9.885
 4674SOL     OW15918   3.749   4.904   5.280
 4674SOL    HW115919   3.705   4.983   5.313
 4674SOL    HW215920   3.809   4.880   5.350
 4675SOL     OW15921   0.951   6.672  11.806
 4675SOL    HW115922   0.880   6.660  11.743
 4675SOL    HW215923   0.907   6.701  11.886
 4676SOL     OW15924  11.664   4.765   8.987
 4676SOL    HW115925  11.729   4.834   8.993
 4676SOL    HW215926  11.714   4.687   8.962
 4677SOL     OW15927   7.114   5.420  11.742
 4677SOL    HW115928   7.055   5.487  11.777
 4677SOL    HW215929   7.202   5.451  11.767
 4678SOL     OW15930   3.002  12.278  11.901
 4678SOL    HW115931   2.912  12.288  11.870
 4678SOL    HW215932   3.034  12.199  11.857
 4679SOL     OW15933  11.921   5.808  10.585
 4679SOL    HW115934  11.841   5.763  10.612
 4679SOL    HW215935  11.958   5.752  10.517
 4680SOL     OW15936  13.637   3.310  11.799
 4680SOL    HW115937  13.671   3.369  11.732
 4680SOL    HW215938  13.555   3.351  11.827
 4681SOL     OW15939   2.693   1.962   5.649
 4681SOL    HW115940   2.623   1.898   5.659
 4681SOL    HW215941   2.676   2.027   5.717
 4682SOL     OW15942  12.495   8.686   3.328
 4682SOL    HW115943  12.431   8.726   3.386
 4682SOL    HW215944  12.510   8.599   3.365
 4683SOL     OW15945   0.219   6.315   0.818
 4683SOL    HW115946   0.197   6.354   0.733
 4683SOL    HW215947   0.302   6.271   0.803
 4684SOL     OW15948   9.671   5.756  11.415
 4684SOL    HW115949   9.660   5.737  11.321
 4684SOL    HW215950   9.765   5.768  11.426
 4685SOL     OW15951   9.502  13.068  13.788
 4685SOL    HW115952   9.540  12.993  13.742
 4685SOL    HW215953   9.507  13.043  13.881
 4686SOL     OW15954   6.363   3.765   6.278
 4686SOL    HW115955   6.453   3.745   6.251
 4686SOL    HW215956   6.320   3.679   6.282
 4687SOL     OW15957   3.072   8.812   6.842
 4687SOL    HW115958   3.069   8.737   6.901
 4687SOL    HW215959   3.071   8.888   6.899
 4688SOL     OW15960   0.092   3.944   4.791
 4688SOL    HW115961   0.062   3.888   4.719
 4688SOL    HW215962   0.170   3.901   4.824
 4689SOL     OW15963   4.909  11.980  13.582
 4689SOL    HW115964   4.942  11.890  13.577
 4689SOL    HW215965   4.987  12.034  13.595
 4690SOL     OW15966  14.863  11.421   5.228
 4690SOL    HW115967   0.003  11.327   5.230
 4690SOL    HW215968   0.072  11.462   5.231
 4691SOL     OW15969  11.041   4.158   5.773
 4691SOL    HW115970  10.954   4.183   5.806
 4691SOL    HW215971  11.053   4.068   5.803
 4692SOL     OW15972   9.975   8.877   4.483
 4692SOL    HW115973  10.069   8.868   4.472
 4692SOL    HW215974   9.961   8.972   4.494
 4693SOL     OW15975   2.595   2.355   2.509
 4693SOL    HW115976   2.594   2.269   2.468
 4693SOL    HW215977   2.685   2.385   2.500
 4694SOL     OW15978   8.355   7.336   2.325
 4694SOL    HW115979   8.353   7.310   2.233
 4694SOL    HW215980   8.382   7.428   2.324
 4695SOL     OW15981  13.986  13.965   4.802
 4695SOL    HW115982  14.020  13.982   4.890
 4695SOL    HW215983  14.015  13.876   4.782
 4696SOL     OW15984  13.155   6.112   5.658
 4696SOL    HW115985  13.086   6.107   5.724
 4696SOL    HW215986  13.132   6.044   5.594
 4697SOL     OW15987  10.725   0.519   1.858
 4697SOL    HW115988  10.656   0.555   1.914
 4697SOL    HW215989  10.680   0.457   1.802
 4698SOL     OW15990   4.472   2.830   6.215
 4698SOL    HW115991   4.460   2.911   6.265
 4698SOL    HW215992   4.405   2.771   6.249
 4699SOL     OW15993  13.188   5.622   4.898
 4699SOL    HW115994  13.164   5.551   4.839
 4699SOL    HW215995  13.115   5.627   4.960
 4700SOL     OW15996   4.931   0.753   3.432
 4700SOL    HW115997   4.986   0.817   3.477
 4700SOL    HW215998   4.967   0.749   3.344
 4701SOL     OW15999   4.435  14.559   8.445
 4701SOL    HW116000   4.375  14.631   8.461
 4701SOL    HW216001   4.386  14.499   8.388
 4702SOL     OW16002   9.136  10.148   3.998
 4702SOL    HW116003   9.165  10.099   3.921
 4702SOL    HW216004   9.192  10.117   4.069
 4703SOL     OW16005   9.472  13.536  13.616
 4703SOL    HW116006   9.499  13.487  13.539
 4703SOL    HW216007   9.554  13.557  13.661
 4704SOL     OW16008   6.288   5.304   6.137
 4704SOL    HW116009   6.368   5.301   6.188
 4704SOL    HW216010   6.267   5.212   6.120
 4705SOL     OW16011  14.453   1.508  11.670
 4705SOL    HW116012  14.451   1.604  11.668
 4705SOL    HW216013  14.467   1.486  11.762
 4706SOL     OW16014   0.354  14.226   4.592
 4706SOL    HW116015   0.411  14.288   4.548
 4706SOL    HW216016   0.412  14.153   4.615
 4707SOL     OW16017   9.230   3.731  12.663
 4707SOL    HW116018   9.173   3.791  12.614
 4707SOL    HW216019   9.215   3.754  12.755
 4708SOL     OW16020  10.038  12.842   0.555
 4708SOL    HW116021  10.091  12.824   0.477
 4708SOL    HW216022  10.092  12.901   0.608
 4709SOL     OW16023   6.393   3.771   6.901
 4709SOL    HW116024   6.362   3.800   6.815
 4709SOL    HW216025   6.365   3.839   6.962
 4710SOL     OW16026  14.335  10.168   8.545
 4710SOL    HW116027  14.318  10.191   8.636
 4710SOL    HW216028  14.354  10.251   8.502
 4711SOL     OW16029   0.748   3.313   1.780
 4711SOL    HW116030   0.686   3.385   1.793
 4711SOL    HW216031   0.693   3.237   1.762
 4712SOL     OW16032  10.291   0.300   3.861
 4712SOL    HW116033  10.201   0.281   3.885
 4712SOL    HW216034  10.337   0.216   3.870
 4713SOL     OW16035   8.658   7.298   1.372
 4713SOL    HW116036   8.649   7.345   1.455
 4713SOL    HW216037   8.747   7.319   1.342
 4714SOL     OW16038   2.012   8.856   7.893
 4714SOL    HW116039   1.954   8.782   7.875
 4714SOL    HW216040   2.006   8.910   7.815
 4715SOL     OW16041  14.660   6.236   3.103
 4715SOL    HW116042  14.658   6.256   3.009
 4715SOL    HW216043  14.598   6.297   3.141
 4716SOL     OW16044   6.459   4.979  11.931
 4716SOL    HW116045   6.518   5.013  11.998
 4716SOL    HW216046   6.371   4.995  11.966
 4717SOL     OW16047   1.292   3.488  12.682
 4717SOL    HW116048   1.292   3.561  12.619
 4717SOL    HW216049   1.202   3.455  12.680
 4718SOL     OW16050   2.359   6.907   3.321
 4718SOL    HW116051   2.292   6.901   3.253
 4718SOL    HW216052   2.324   6.970   3.383
 4719SOL     OW16053   9.988  14.534   6.125
 4719SOL    HW116054  10.067  14.521   6.074
 4719SOL    HW216055  10.018  14.577   6.206
 4720SOL     OW16056   2.478   9.485   5.280
 4720SOL    HW116057   2.428   9.432   5.342
 4720SOL    HW216058   2.460   9.576   5.305
 4721SOL     OW16059   0.051   9.742   7.586
 4721SOL    HW116060  14.850   9.796   7.589
 4721SOL    HW216061   0.057   9.703   7.674
 4722SOL     OW16062  11.244  10.510  13.655
 4722SOL    HW116063  11.299  10.437  13.626
 4722SOL    HW216064  11.155  10.483  13.635
 4723SOL     OW16065   9.173  14.240   0.646
 4723SOL    HW116066   9.181  14.193   0.729
 4723SOL    HW216067   9.141  14.174   0.584
 4724SOL     OW16068   5.601  14.395  11.532
 4724SOL    HW116069   5.645  14.326  11.583
 4724SOL    HW216070   5.633  14.477  11.569
 4725SOL     OW16071   2.527   0.636  12.246
 4725SOL    HW116072   2.486   0.589  12.318
 4725SOL    HW216073   2.557   0.718  12.285
 4726SOL     OW16074   1.083   0.753  11.433
 4726SOL    HW116075   1.014   0.699  11.473
 4726SOL    HW216076   1.145   0.769  11.504
 4727SOL     OW16077   6.640   4.975   4.687
 4727SOL    HW116078   6.655   4.979   4.782
 4727SOL    HW216079   6.642   4.882   4.666
 4728SOL     OW16080   5.484   9.127   7.798
 4728SOL    HW116081   5.389   9.128   7.802
 4728SOL    HW216082   5.509   9.044   7.838
 4729SOL     OW16083   9.761   3.788   4.477
 4729SOL    HW116084   9.770   3.693   4.471
 4729SOL    HW216085   9.673   3.801   4.513
 4730SOL     OW16086   0.447   5.780   4.511
 4730SOL    HW116087   0.462   5.691   4.478
 4730SOL    HW216088   0.413   5.767   4.600
 4731SOL     OW16089  11.960   9.497  10.850
 4731SOL    HW116090  12.043   9.461  10.818
 4731SOL    HW216091  11.985   9.575  10.899
 4732SOL     OW16092   1.395   3.424  13.238
 4732SOL    HW116093   1.404   3.377  13.155
 4732SOL    HW216094   1.400   3.517  13.214
 4733SOL     OW16095   6.411  11.158  11.641
 4733SOL    HW116096   6.417  11.096  11.714
 4733SOL    HW216097   6.497  11.153  11.599
 4734SOL     OW16098   7.718  12.841   3.540
 4734SOL    HW116099   7.664  12.912   3.574
 4734SOL    HW216100   7.804  12.880   3.526
 4735SOL     OW16101   3.138   8.315   9.611
 4735SOL    HW116102   3.200   8.247   9.584
 4735SOL    HW216103   3.053   8.284   9.580
 4736SOL     OW16104  13.198   0.284  14.463
 4736SOL    HW116105  13.281   0.284  14.511
 4736SOL    HW216106  13.131   0.288  14.531
 4737SOL     OW16107   2.987   8.582   2.055
 4737SOL    HW116108   2.895   8.599   2.071
 4737SOL    HW216109   3.015   8.526   2.127
 4738SOL     OW16110   2.503  13.742  13.901
 4738SOL    HW116111   2.424  13.693  13.925
 4738SOL    HW216112   2.516  13.804  13.972
 4739SOL     OW16113   4.601  13.171   8.118
 4739SOL    HW116114   4.559  13.223   8.187
 4739SOL    HW216115   4.533  13.161   8.051
 4740SOL     OW16116  10.522   2.320   5.143
 4740SOL    HW116117  10.607   2.283   5.120
 4740SOL    HW216118  10.486   2.261   5.210
 4741SOL     OW16119   6.741   0.387   8.278
 4741SOL    HW116120   6.768   0.298   8.300
 4741SOL    HW216121   6.658   0.377   8.232
 4742SOL     OW16122  11.640   9.970   2.189
 4742SOL    HW116123  11.698  10.047   2.186
 4742SOL    HW216124  11.628   9.946   2.097
 4743SOL     OW16125   4.132   5.821  13.180
 4743SOL    HW116126   4.082   5.900  13.202
 4743SOL    HW216127   4.066   5.756  13.158
 4744SOL     OW16128  11.811   3.441  11.486
 4744SOL    HW116129  11.802   3.416  11.394
 4744SOL    HW216130  11.734   3.403  11.528
 4745SOL     OW16131   6.278  14.363  13.554
 4745SOL    HW116132   6.369  14.340  13.574
 4745SOL    HW216133   6.239  14.282  13.523
 4746SOL     OW16134   7.719   6.604   6.785
 4746SOL    HW116135   7.801   6.652   6.774
 4746SOL    HW216136   7.654   6.672   6.802
 4747SOL     OW16137   8.975   3.290  11.078
 4747SOL    HW116138   9.001   3.371  11.123
 4747SOL    HW216139   8.969   3.315  10.986
 4748SOL     OW16140   0.901   8.556  14.436
 4748SOL    HW116141   0.869   8.468  14.415
 4748SOL    HW216142   0.971   8.540  14.500
 4749SOL     OW16143   3.862   2.165   6.116
 4749SOL    HW116144   3.782   2.158   6.064
 4749SOL    HW216145   3.920   2.219   6.062
 4750SOL     OW16146  10.881   5.624  14.780
 4750SOL    HW116147  10.956   5.581  14.741
 4750SOL    HW216148  10.900   5.626  14.874
 4751SOL     OW16149   1.863   0.626   1.387
 4751SOL    HW116150   1.895   0.699   1.334
 4751SOL    HW216151   1.863   0.551   1.327
 4752SOL     OW16152   7.830  10.786  13.307
 4752SOL    HW116153   7.839  10.811  13.215
 4752SOL    HW216154   7.825  10.869  13.354
 4753SOL     OW16155   9.531   5.450   4.801
 4753SOL    HW116156   9.447   5.473   4.839
 4753SOL    HW216157   9.594   5.509   4.843
 4754SOL     OW16158   9.272   2.207  11.779
 4754SOL    HW116159   9.232   2.283  11.738
 4754SOL    HW216160   9.307   2.156  11.705
 4755SOL     OW16161  11.145   8.967  12.545
 4755SOL    HW116162  11.145   9.049  12.594
 4755SOL    HW216163  11.059   8.929  12.560
 4756SOL     OW16164   4.710   5.678   8.004
 4756SOL    HW116165   4.753   5.739   7.944
 4756SOL    HW216166   4.690   5.602   7.949
 4757SOL     OW16167   3.419  10.234   1.991
 4757SOL    HW116168   3.508  10.200   1.990
 4757SOL    HW216169   3.365  10.158   2.013
 4758SOL     OW16170  11.724   5.226   0.164
 4758SOL    HW116171  11.704   5.162   0.096
 4758SOL    HW216172  11.802   5.271   0.133
 4759SOL     OW16173  13.446   6.891   6.643
 4759SOL    HW116174  13.409   6.904   6.730
 4759SOL    HW216175  13.373   6.903   6.583
 4760SOL     OW16176   1.327  12.372  12.215
 4760SOL    HW116177   1.391  12.431  12.174
 4760SOL    HW216178   1.249  12.427  12.228
 4761SOL     OW16179  14.814   8.142  12.836
 4761SOL    HW116180  14.732   8.115  12.878
 4761SOL    HW216181  14.795   8.138  12.743
 4762SOL     OW16182   6.493   5.473   5.327
 4762SOL    HW116183   6.516   5.386   5.294
 4762SOL    HW216184   6.576   5.515   5.346
 4763SOL     OW16185   3.072   9.791   8.694
 4763SOL    HW116186   3.101   9.717   8.641
 4763SOL    HW216187   2.987   9.764   8.729
 4764SOL     OW16188  13.454  10.715   3.381
 4764SOL    HW116189  13.448  10.635   3.329
 4764SOL    HW216190  13.538  10.753   3.355
 4765SOL     OW16191   5.983   1.534  13.045
 4765SOL    HW116192   5.944   1.448  13.032
 4765SOL    HW216193   5.968   1.553  13.138
 4766SOL     OW16194   5.685   5.947  10.793
 4766SOL    HW116195   5.678   5.998  10.712
 4766SOL    HW216196   5.638   5.999  10.858
 4767SOL     OW16197  10.231  12.855   5.244
 4767SOL    HW116198  10.200  12.945   5.243
 4767SOL    HW216199  10.277  12.846   5.328
 4768SOL     OW16200  13.787   1.324   8.232
 4768SOL    HW116201  13.779   1.311   8.326
 4768SOL    HW216202  13.865   1.377   8.221
 4769SOL     OW16203   3.420   6.079  10.576
 4769SOL    HW116204   3.476   6.115  10.507
 4769SOL    HW216205   3.459   5.994  10.598
 4770SOL     OW16206   3.667   0.112  10.896
 4770SOL    HW116207   3.709   0.080  10.816
 4770SOL    HW216208   3.573   0.112  10.875
 4771SOL     OW16209   5.228   7.008   7.163
 4771SOL    HW116210   5.279   7.006   7.081
 4771SOL    HW216211   5.291   6.981   7.230
 4772SOL     OW16212   6.527  14.814  13.744
 4772SOL    HW116213   6.525  14.756  13.668
 4772SOL    HW216214   6.530   0.025  13.707
 4773SOL     OW16215   7.822  11.527   8.440
 4773SOL    HW116216   7.774  11.453   8.477
 4773SOL    HW216217   7.851  11.497   8.354
 4774SOL     OW16218  14.637   0.882   8.908
 4774SOL    HW116219  14.584   0.952   8.870
 4774SOL    HW216220  14.573   0.818   8.940
 4775SOL     OW16221   5.479  12.782  11.332
 4775SOL    HW116222   5.434  12.725  11.269
 4775SOL    HW216223   5.572  12.768  11.315
 4776SOL     OW16224   1.373  13.671  14.434
 4776SOL    HW116225   1.330  13.615  14.368
 4776SOL    HW216226   1.438  13.721  14.384
 4777SOL     OW16227  11.079   9.197   4.433
 4777SOL    HW116228  11.112   9.271   4.484
 4777SOL    HW216229  11.061   9.232   4.346
 4778SOL     OW16230   3.224   5.850   7.596
 4778SOL    HW116231   3.226   5.841   7.500
 4778SOL    HW216232   3.301   5.903   7.617
 4779SOL     OW16233   0.445   3.288   9.575
 4779SOL    HW116234   0.388   3.229   9.624
 4779SOL    HW216235   0.387   3.328   9.510
 4780SOL     OW16236   1.855   3.746   4.280
 4780SOL    HW116237   1.842   3.659   4.318
 4780SOL    HW216238   1.903   3.731   4.199
 4781SOL     OW16239  12.262  12.181  13.848
 4781SOL    HW116240  12.299  12.250  13.793
 4781SOL    HW216241  12.312  12.103  13.824
 4782SOL     OW16242  14.121  14.321  11.550
 4782SOL    HW116243  14.214  14.298  11.546
 4782SOL    HW216244  14.095  14.332  11.459
 4783SOL     OW16245  11.578   7.861  14.543
 4783SOL    HW116246  11.505   7.890  14.599
 4783SOL    HW216247  11.569   7.914  14.464
 4784SOL     OW16248   8.248   4.039   1.276
 4784SOL    HW116249   8.290   3.968   1.323
 4784SOL    HW216250   8.304   4.053   1.199
 4785SOL     OW16251   8.780   1.922   9.696
 4785SOL    HW116252   8.737   1.877   9.623
 4785SOL    HW216253   8.733   2.005   9.704
 4786SOL     OW16254   3.434   7.251  12.742
 4786SOL    HW116255   3.372   7.284  12.677
 4786SOL    HW216256   3.463   7.167  12.707
 4787SOL     OW16257   5.803  12.081  13.495
 4787SOL    HW116258   5.899  12.089  13.497
 4787SOL    HW216259   5.783  12.064  13.403
 4788SOL     OW16260  11.369  13.541   3.460
 4788SOL    HW116261  11.333  13.452   3.465
 4788SOL    HW216262  11.294  13.599   3.469
 4789SOL     OW16263   5.603  13.009   7.283
 4789SOL    HW116264   5.596  12.967   7.369
 4789SOL    HW216265   5.693  13.042   7.279
 4790SOL     OW16266   2.298   6.896   4.506
 4790SOL    HW116267   2.213   6.880   4.547
 4790SOL    HW216268   2.309   6.823   4.444
 4791SOL     OW16269   6.738  13.661   1.422
 4791SOL    HW116270   6.678  13.643   1.494
 4791SOL    HW216271   6.712  13.748   1.391
 4792SOL     OW16272   9.232  11.486   1.641
 4792SOL    HW116273   9.320  11.481   1.602
 4792SOL    HW216274   9.216  11.580   1.652
 4793SOL     OW16275   9.755  13.723   6.790
 4793SOL    HW116276   9.770  13.807   6.748
 4793SOL    HW216277   9.688  13.741   6.857
 4794SOL     OW16278   0.274   8.425   9.423
 4794SOL    HW116279   0.314   8.344   9.393
 4794SOL    HW216280   0.325   8.452   9.498
 4795SOL     OW16281   8.878  13.577  10.344
 4795SOL    HW116282   8.937  13.608  10.275
 4795SOL    HW216283   8.815  13.649  10.355
 4796SOL     OW16284  14.429   8.974  13.104
 4796SOL    HW116285  14.391   9.058  13.081
 4796SOL    HW216286  14.506   8.966  13.047
 4797SOL     OW16287  14.013   5.560  12.093
 4797SOL    HW116288  13.961   5.631  12.130
 4797SOL    HW216289  14.045   5.594  12.009
 4798SOL     OW16290  10.008   5.453  14.696
 4798SOL    HW116291   9.939   5.422  14.754
 4798SOL    HW216292  10.053   5.373  14.668
 4799SOL     OW16293   3.512   4.385   8.697
 4799SOL    HW116294   3.607   4.388   8.688
 4799SOL    HW216295   3.493   4.295   8.723
 4800SOL     OW16296   3.190   6.814  13.434
 4800SOL    HW116297   3.232   6.776  13.357
 4800SOL    HW216298   3.101   6.836  13.405
 4801SOL     OW16299   8.813  11.771  11.876
 4801SOL    HW116300   8.844  11.682  11.895
 4801SOL    HW216301   8.878  11.805  11.814
 4802SOL     OW16302   1.361   9.437   3.872
 4802SOL    HW116303   1.407   9.506   3.920
 4802SOL    HW216304   1.283   9.419   3.924
 4803SOL     OW16305  13.760   2.696  11.261
 4803SOL    HW116306  13.771   2.748  11.341
 4803SOL    HW216307  13.845   2.655  11.247
 4804SOL     OW16308   4.946   4.949   7.182
 4804SOL    HW116309   4.876   4.927   7.120
 4804SOL    HW216310   5.025   4.953   7.128
 4805SOL     OW16311   1.916  14.205   1.067
 4805SOL    HW116312   1.974  14.133   1.093
 4805SOL    HW216313   1.890  14.246   1.149
 4806SOL     OW16314   2.254   8.736  11.282
 4806SOL    HW116315   2.176   8.702  11.328
 4806SOL    HW216316   2.230   8.731  11.189
 4807SOL     OW16317   4.896  11.410   6.721
 4807SOL    HW116318   4.971  11.467   6.736
 4807SOL    HW216319   4.934  11.329   6.685
 4808SOL     OW16320   0.982  14.871   1.158
 4808SOL    HW116321   1.033  14.791   1.173
 4808SOL    HW216322   1.048   0.062   1.147
 4809SOL     OW16323   4.558   3.242   2.410
 4809SOL    HW116324   4.604   3.319   2.443
 4809SOL    HW216325   4.623   3.172   2.413
 4810SOL     OW16326  12.934  11.096   7.130
 4810SOL    HW116327  12.851  11.049   7.133
 4810SOL    HW216328  12.912  11.182   7.095
 4811SOL     OW16329  11.124  14.194   3.759
 4811SOL    HW116330  11.152  14.104   3.742
 4811SOL    HW216331  11.069  14.187   3.837
 4812SOL     OW16332   2.824   1.872   8.300
 4812SOL    HW116333   2.914   1.861   8.331
 4812SOL    HW216334   2.770   1.848   8.376
 4813SOL     OW16335  11.040   8.643   2.930
 4813SOL    HW116336  11.016   8.699   2.856
 4813SOL    HW216337  11.105   8.695   2.978
 4814SOL     OW16338   8.200   3.011  11.034
 4814SOL    HW116339   8.286   3.053  11.031
 4814SOL    HW216340   8.175   3.015  11.126
 4815SOL     OW16341  11.690   3.358   7.918
 4815SOL    HW116342  11.683   3.332   7.826
 4815SOL    HW216343  11.615   3.415   7.932
 4816SOL     OW16344   2.547  12.614   5.438
 4816SOL    HW116345   2.567  12.557   5.513
 4816SOL    HW216346   2.621  12.675   5.434
 4817SOL     OW16347  13.790  14.077   5.089
 4817SOL    HW116348  13.778  14.114   5.001
 4817SOL    HW216349  13.701  14.060   5.120
 4818SOL     OW16350   0.933  12.554   5.547
 4818SOL    HW116351   1.000  12.549   5.479
 4818SOL    HW216352   0.851  12.539   5.500
 4819SOL     OW16353   1.240   4.353  10.557
 4819SOL    HW116354   1.213   4.282  10.615
 4819SOL    HW216355   1.216   4.433  10.603
 4820SOL     OW16356  13.239   0.840  13.665
 4820SOL    HW116357  13.322   0.862  13.708
 4820SOL    HW216358  13.232   0.902  13.593
 4821SOL     OW16359   1.330   9.456   9.867
 4821SOL    HW116360   1.330   9.365   9.897
 4821SOL    HW216361   1.421   9.472   9.839
 4822SOL     OW16362   2.344   2.464  11.768
 4822SOL    HW116363   2.423   2.489  11.720
 4822SOL    HW216364   2.362   2.489  11.859
 4823SOL     OW16365  12.960  11.955   7.051
 4823SOL    HW116366  12.927  11.932   6.964
 4823SOL    HW216367  13.024  11.887   7.071
 4824SOL     OW16368  10.261   7.120   4.685
 4824SOL    HW116369  10.283   7.213   4.690
 4824SOL    HW216370  10.325   7.084   4.623
 4825SOL     OW16371   1.914   9.616  11.066
 4825SOL    HW116372   1.845   9.572  11.115
 4825SOL    HW216373   1.887   9.708  11.064
 4826SOL     OW16374  11.326   7.203   3.098
 4826SOL    HW116375  11.295   7.220   3.009
 4826SOL    HW216376  11.290   7.274   3.150
 4827SOL     OW16377  10.503  14.107   3.948
 4827SOL    HW116378  10.540  14.075   3.866
 4827SOL    HW216379  10.480  14.198   3.929
 4828SOL     OW16380  10.935   6.297  12.745
 4828SOL    HW116381  10.984   6.314  12.826
 4828SOL    HW216382  10.874   6.227  12.769
 4829SOL     OW16383   2.363   1.326  10.405
 4829SOL    HW116384   2.346   1.351  10.314
 4829SOL    HW216385   2.416   1.399  10.440
 4830SOL     OW16386  10.696   9.873   9.765
 4830SOL    HW116387  10.612   9.829   9.774
 4830SOL    HW216388  10.716   9.906   9.853
 4831SOL     OW16389   1.982   3.897   9.357
 4831SOL    HW116390   2.067   3.868   9.323
 4831SOL    HW216391   2.002   3.935   9.443
 4832SOL     OW16392   0.408   8.068  12.233
 4832SOL    HW116393   0.394   8.117  12.151
 4832SOL    HW216394   0.321   8.038  12.257
 4833SOL     OW16395   5.360  11.328   6.593
 4833SOL    HW116396   5.360  11.324   6.688
 4833SOL    HW216397   5.453  11.336   6.569
 4834SOL     OW16398   0.902  10.298   6.017
 4834SOL    HW116399   0.854  10.324   6.095
 4834SOL    HW216400   0.992  10.289   6.045
 4835SOL     OW16401   2.112  11.845   5.009
 4835SOL    HW116402   2.044  11.809   4.952
 4835SOL    HW216403   2.191  11.795   4.986
 4836SOL     OW16404  13.894   3.676  13.674
 4836SOL    HW116405  13.951   3.601  13.688
 4836SOL    HW216406  13.878   3.677  13.579
 4837SOL     OW16407  12.116  14.079   3.196
 4837SOL    HW116408  12.039  14.082   3.253
 4837SOL    HW216409  12.090  14.127   3.118
 4838SOL     OW16410   9.060   8.476   1.851
 4838SOL    HW116411   8.969   8.459   1.828
 4838SOL    HW216412   9.109   8.404   1.811
 4839SOL     OW16413  10.334   0.623  12.226
 4839SOL    HW116414  10.422   0.586  12.229
 4839SOL    HW216415  10.316   0.636  12.133
 4840SOL     OW16416   5.199  14.542   4.350
 4840SOL    HW116417   5.162  14.628   4.370
 4840SOL    HW216418   5.162  14.519   4.265
 4841SOL     OW16419  10.948   5.588   5.464
 4841SOL    HW116420  10.963   5.664   5.521
 4841SOL    HW216421  11.027   5.582   5.411
 4842SOL     OW16422  10.139   3.448   9.221
 4842SOL    HW116423  10.076   3.474   9.289
 4842SOL    HW216424  10.157   3.528   9.172
 4843SOL     OW16425   2.792   9.334  14.446
 4843SOL    HW116426   2.877   9.298  14.471
 4843SOL    HW216427   2.812   9.394  14.374
 4844SOL     OW16428   2.455   7.613   2.988
 4844SOL    HW116429   2.419   7.683   2.934
 4844SOL    HW216430   2.392   7.541   2.981
 4845SOL     OW16431  11.086   5.969   0.403
 4845SOL    HW116432  11.017   6.033   0.416
 4845SOL    HW216433  11.045   5.885   0.423
 4846SOL     OW16434   5.658  13.581   1.348
 4846SOL    HW116435   5.591  13.529   1.304
 4846SOL    HW216436   5.649  13.669   1.310
 4847SOL     OW16437   4.692  13.784   7.562
 4847SOL    HW116438   4.612  13.795   7.613
 4847SOL    HW216439   4.696  13.863   7.507
 4848SOL     OW16440   0.705   5.315  12.851
 4848SOL    HW116441   0.756   5.247  12.895
 4848SOL    HW216442   0.758   5.340  12.775
 4849SOL     OW16443   9.248  10.856  13.750
 4849SOL    HW116444   9.226  10.870  13.658
 4849SOL    HW216445   9.206  10.929  13.796
 4850SOL     OW16446   1.042  14.181  14.550
 4850SOL    HW116447   1.109  14.185  14.482
 4850SOL    HW216448   1.011  14.090  14.549
 4851SOL     OW16449   4.250   9.247   2.095
 4851SOL    HW116450   4.284   9.157   2.092
 4851SOL    HW216451   4.219   9.258   2.184
 4852SOL     OW16452   6.178   0.074   6.946
 4852SOL    HW116453   6.189   0.169   6.958
 4852SOL    HW216454   6.233   0.052   6.871
 4853SOL     OW16455   8.989   1.827  11.707
 4853SOL    HW116456   9.047   1.885  11.657
 4853SOL    HW216457   9.034   1.815  11.790
 4854SOL     OW16458   3.782  14.464  11.145
 4854SOL    HW116459   3.708  14.415  11.109
 4854SOL    HW216460   3.754  14.556  11.142
 4855SOL     OW16461   3.042  12.608  14.655
 4855SOL    HW116462   3.021  12.557  14.576
 4855SOL    HW216463   3.102  12.552  14.704
 4856SOL     OW16464  13.518   6.156   1.294
 4856SOL    HW116465  13.542   6.175   1.385
 4856SOL    HW216466  13.463   6.078   1.299
 4857SOL     OW16467  11.062  11.386   8.850
 4857SOL    HW116468  11.100  11.437   8.921
 4857SOL    HW216469  11.123  11.398   8.777
 4858SOL     OW16470  14.173   5.103  10.195
 4858SOL    HW116471  14.151   5.012  10.218
 4858SOL    HW216472  14.106   5.127  10.131
 4859SOL     OW16473   5.723  10.280   5.283
 4859SOL    HW116474   5.712  10.336   5.360
 4859SOL    HW216475   5.643  10.293   5.232
 4860SOL     OW16476  13.141   1.981  14.288
 4860SOL    HW116477  13.046   1.968  14.296
 4860SOL    HW216478  13.162   1.948  14.201
 4861SOL     OW16479  10.980  12.652   2.741
 4861SOL    HW116480  10.948  12.563   2.724
 4861SOL    HW216481  11.055  12.662   2.682
 4862SOL     OW16482   9.027   0.080   0.764
 4862SOL    HW116483   8.943   0.054   0.725
 4862SOL    HW216484   9.051   0.006   0.820
 4863SOL     OW16485  14.139   3.354   9.378
 4863SOL    HW116486  14.210   3.355   9.442
 4863SOL    HW216487  14.169   3.414   9.309
 4864SOL     OW16488   3.410   9.149   6.987
 4864SOL    HW116489   3.462   9.229   6.983
 4864SOL    HW216490   3.433   9.110   7.071
 4865SOL     OW16491   4.486   5.834   0.999
 4865SOL    HW116492   4.460   5.742   0.991
 4865SOL    HW216493   4.567   5.832   1.050
 4866SOL     OW16494   0.907   8.304   0.741
 4866SOL    HW116495   0.964   8.373   0.775
 4866SOL    HW216496   0.967   8.233   0.717
 4867SOL     OW16497  13.873  12.751   9.430
 4867SOL    HW116498  13.879  12.693   9.354
 4867SOL    HW216499  13.929  12.825   9.408
 4868SOL     OW16500   2.126   3.567  14.748
 4868SOL    HW116501   2.188   3.590  14.818
 4868SOL    HW216502   2.144   3.475  14.730
 4869SOL     OW16503   4.919   7.832   4.221
 4869SOL    HW116504   4.948   7.759   4.167
 4869SOL    HW216505   4.883   7.791   4.300
 4870SOL     OW16506   8.542  12.183   4.417
 4870SOL    HW116507   8.485  12.259   4.405
 4870SOL    HW216508   8.602  12.209   4.488
 4871SOL     OW16509   2.726   8.382   2.613
 4871SOL    HW116510   2.685   8.410   2.531
 4871SOL    HW216511   2.691   8.295   2.630
 4872SOL     OW16512  14.643  10.419   8.526
 4872SOL    HW116513  14.703  10.464   8.466
 4872SOL    HW216514  14.607  10.488   8.582
 4873SOL     OW16515   6.610  12.268   0.706
 4873SOL    HW116516   6.651  12.248   0.622
 4873SOL    HW216517   6.681  12.262   0.770
 4874SOL     OW16518   9.656   1.046   5.009
 4874SOL    HW116519   9.624   1.070   4.921
 4874SOL    HW216520   9.604   0.970   5.033
 4875SOL     OW16521  10.191   0.880   4.014
 4875SOL    HW116522  10.286   0.867   4.020
 4875SOL    HW216523  10.181   0.961   3.963
 4876SOL     OW16524   9.235  13.163   4.230
 4876SOL    HW116525   9.245  13.074   4.263
 4876SOL    HW216526   9.270  13.159   4.141
 4877SOL     OW16527   6.162  10.877   6.399
 4877SOL    HW116528   6.167  10.942   6.469
 4877SOL    HW216529   6.068  10.869   6.381
 4878SOL     OW16530   5.671  14.849   5.546
 4878SOL    HW116531   5.579  14.854   5.570
 4878SOL    HW216532   5.718   0.007   5.622
 4879SOL     OW16533   5.684  10.633   2.060
 4879SOL    HW116534   5.701  10.587   2.142
 4879SOL    HW216535   5.767  10.629   2.013
 4880SOL     OW16536   3.354   4.224   5.327
 4880SOL    HW116537   3.340   4.244   5.234
 4880SOL    HW216538   3.391   4.305   5.363
 4881SOL     OW16539   7.384   4.350   1.799
 4881SOL    HW116540   7.393   4.383   1.889
 4881SOL    HW216541   7.295   4.373   1.774
 4882SOL     OW16542   1.581   5.686   9.968
 4882SOL    HW116543   1.605   5.594   9.960
 4882SOL    HW216544   1.517   5.689  10.039
 4883SOL     OW16545  13.443  12.867  10.154
 4883SOL    HW116546  13.495  12.908  10.222
 4883SOL    HW216547  13.495  12.876  10.074
 4884SOL     OW16548   9.749  12.356  14.432
 4884SOL    HW116549   9.719  12.411  14.360
 4884SOL    HW216550   9.844  12.351  14.422
 4885SOL     OW16551   3.405  14.751  13.899
 4885SOL    HW116552   3.434  14.818  13.837
 4885SOL    HW216553   3.486  14.715  13.935
 4886SOL     OW16554   9.902   3.851   2.414
 4886SOL    HW116555   9.824   3.902   2.434
 4886SOL    HW216556   9.939   3.893   2.337
 4887SOL     OW16557   1.055   4.938   3.153
 4887SOL    HW116558   1.059   4.982   3.068
 4887SOL    HW216559   1.049   4.845   3.132
 4888SOL     OW16560  10.242  14.437   2.880
 4888SOL    HW116561  10.151  14.413   2.898
 4888SOL    HW216562  10.239  14.477   2.793
 4889SOL     OW16563   7.918  14.114   5.153
 4889SOL    HW116564   7.870  14.037   5.183
 4889SOL    HW216565   8.009  14.085   5.149
 4890SOL     OW16566   6.516  11.171   4.529
 4890SOL    HW116567   6.531  11.158   4.623
 4890SOL    HW216568   6.424  11.195   4.523
 4891SOL     OW16569   0.539   9.197   7.309
 4891SOL    HW116570   0.540   9.277   7.257
 4891SOL    HW216571   0.453   9.197   7.351
 4892SOL     OW16572  12.015   0.391  14.619
 4892SOL    HW116573  12.084   0.443  14.579
 4892SOL    HW216574  11.934   0.427  14.583
 4893SOL     OW16575   2.680  13.447  14.095
 4893SOL    HW116576   2.725  13.400  14.166
 4893SOL    HW216577   2.690  13.390  14.019
 4894SOL     OW16578   7.265   8.923   3.211
 4894SOL    HW116579   7.314   8.863   3.155
 4894SOL    HW216580   7.197   8.959   3.154
 4895SOL     OW16581  13.167   0.981  13.423
 4895SOL    HW116582  13.192   0.921  13.352
 4895SOL    HW216583  13.089   0.943  13.461
 4896SOL     OW16584   5.982  12.558   7.858
 4896SOL    HW116585   5.935  12.478   7.881
 4896SOL    HW216586   5.919  12.610   7.809
 4897SOL     OW16587  11.788   3.365  13.343
 4897SOL    HW116588  11.753   3.377  13.431
 4897SOL    HW216589  11.848   3.290  13.351
 4898SOL     OW16590   2.320   8.408   6.326
 4898SOL    HW116591   2.320   8.312   6.321
 4898SOL    HW216592   2.277   8.428   6.409
 4899SOL     OW16593   8.693  13.099   6.817
 4899SOL    HW116594   8.747  13.036   6.865
 4899SOL    HW216595   8.711  13.080   6.725
 4900SOL     OW16596   5.464   7.424   1.649
 4900SOL    HW116597   5.550   7.452   1.680
 4900SOL    HW216598   5.402   7.480   1.696
 4901SOL     OW16599   5.052   0.978   2.731
 4901SOL    HW116600   5.079   0.887   2.734
 4901SOL    HW216601   5.131   1.025   2.704
 4902SOL     OW16602   5.984   9.346  14.695
 4902SOL    HW116603   5.966   9.320  14.605
 4902SOL    HW216604   6.078   9.330  14.707
 4903SOL     OW16605   7.910   6.965   1.393
 4903SOL    HW116606   7.910   6.966   1.488
 4903SOL    HW216607   7.867   7.047   1.368
 4904SOL     OW16608   9.198  10.704  11.570
 4904SOL    HW116609   9.108  10.726  11.592
 4904SOL    HW216610   9.233  10.663  11.649
 4905SOL     OW16611   5.839   5.575   3.792
 4905SOL    HW116612   5.810   5.660   3.825
 4905SOL    HW216613   5.927   5.565   3.827
 4906SOL     OW16614  12.141  13.227   3.606
 4906SOL    HW116615  12.157  13.134   3.625
 4906SOL    HW216616  12.099  13.261   3.685
 4907SOL     OW16617  12.378   7.748   2.732
 4907SOL    HW116618  12.425   7.667   2.711
 4907SOL    HW216619  12.436   7.818   2.705
 4908SOL     OW16620   1.000   4.616   2.142
 4908SOL    HW116621   1.013   4.703   2.179
 4908SOL    HW216622   1.084   4.593   2.104
 4909SOL     OW16623   1.382  12.626   4.964
 4909SOL    HW116624   1.315  12.578   5.012
 4909SOL    HW216625   1.424  12.682   5.029
 4910SOL     OW16626   0.539   2.338   9.942
 4910SOL    HW116627   0.519   2.430   9.961
 4910SOL    HW216628   0.572   2.339   9.852
 4911SOL     OW16629   3.554   2.434  14.033
 4911SOL    HW116630   3.509   2.381  13.968
 4911SOL    HW216631   3.544   2.385  14.115
 4912SOL     OW16632   3.409  14.270   6.796
 4912SOL    HW116633   3.484  14.328   6.807
 4912SOL    HW216634   3.369  14.297   6.714
 4913SOL     OW16635   8.285   0.816  12.871
 4913SOL    HW116636   8.366   0.854  12.904
 4913SOL    HW216637   8.226   0.816  12.946
 4914SOL     OW16638  14.722  13.765  12.772
 4914SOL    HW116639  14.669  13.751  12.851
 4914SOL    HW216640  14.740  13.859  12.772
 4915SOL     OW16641  12.060   7.198  10.192
 4915SOL    HW116642  12.035   7.279  10.235
 4915SOL    HW216643  12.154   7.189  10.211
 4916SOL     OW16644   3.038   2.359   9.657
 4916SOL    HW116645   3.128   2.336   9.634
 4916SOL    HW216646   2.993   2.366   9.573
 4917SOL     OW16647   2.379  11.935   0.282
 4917SOL    HW116648   2.319  11.863   0.304
 4917SOL    HW216649   2.331  11.986   0.217
 4918SOL     OW16650   7.274   9.316   1.449
 4918SOL    HW116651   7.330   9.321   1.372
 4918SOL    HW216652   7.261   9.222   1.464
 4919SOL     OW16653   7.436   8.376  10.929
 4919SOL    HW116654   7.446   8.286  10.958
 4919SOL    HW216655   7.401   8.369  10.840
 4920SOL     OW16656   7.548  11.129   0.932
 4920SOL    HW116657   7.640  11.124   0.906
 4920SOL    HW216658   7.504  11.064   0.877
 4921SOL     OW16659   8.293   8.460  12.731
 4921SOL    HW116660   8.324   8.437  12.643
 4921SOL    HW216661   8.262   8.550  12.722
 4922SOL     OW16662  12.501   7.919   8.399
 4922SOL    HW116663  12.447   7.993   8.372
 4922SOL    HW216664  12.439   7.857   8.437
 4923SOL     OW16665   3.436  10.558   1.348
 4923SOL    HW116666   3.440  10.548   1.443
 4923SOL    HW216667   3.527  10.553   1.319
 4924SOL     OW16668   1.850   8.263  12.656
 4924SOL    HW116669   1.854   8.208  12.578
 4924SOL    HW216670   1.831   8.202  12.727
 4925SOL     OW16671  11.810   3.177   8.472
 4925SOL    HW116672  11.792   3.110   8.405
 4925SOL    HW216673  11.759   3.149   8.548
 4926SOL     OW16674  11.797   9.497   7.259
 4926SOL    HW116675  11.826   9.583   7.288
 4926SOL    HW216676  11.816   9.496   7.165
 4927SOL     OW16677  10.658   3.104   8.373
 4927SOL    HW116678  10.636   3.192   8.343
 4927SOL    HW216679  10.697   3.117   8.460
 4928SOL     OW16680   2.775  10.421   4.083
 4928SOL    HW116681   2.761  10.327   4.098
 4928SOL    HW216682   2.820  10.425   3.998
 4929SOL     OW16683   6.958   8.469  10.743
 4929SOL    HW116684   6.901   8.401  10.709
 4929SOL    HW216685   6.961   8.452  10.838
 4930SOL     OW16686   6.681  13.374  11.096
 4930SOL    HW116687   6.697  13.462  11.131
 4930SOL    HW216688   6.595  13.350  11.131
 4931SOL     OW16689   3.513   3.092  10.784
 4931SOL    HW116690   3.592   3.040  10.769
 4931SOL    HW216691   3.483   3.116  10.696
 4932SOL     OW16692   5.126  13.177   3.368
 4932SOL    HW116693   5.035  13.201   3.352
 4932SOL    HW216694   5.154  13.234   3.440
 4933SOL     OW16695   9.680   8.527   2.388
 4933SOL    HW116696   9.643   8.573   2.312
 4933SOL    HW216697   9.637   8.568   2.463
 4934SOL     OW16698  14.693   1.999  12.855
 4934SOL    HW116699  14.625   2.012  12.790
 4934SOL    HW216700  14.653   2.024  12.938
 4935SOL     OW16701  14.688   4.405  10.230
 4935SOL    HW116702  14.609   4.365  10.266
 4935SOL    HW216703  14.737   4.331  10.192
 4936SOL     OW16704   5.943   5.424   0.820
 4936SOL    HW116705   5.947   5.446   0.913
 4936SOL    HW216706   5.991   5.342   0.812
 4937SOL     OW16707  13.380  10.778   4.010
 4937SOL    HW116708  13.403  10.831   3.933
 4937SOL    HW216709  13.285  10.790   4.019
 4938SOL     OW16710   3.256   7.656  13.341
 4938SOL    HW116711   3.246   7.736  13.289
 4938SOL    HW216712   3.176   7.651  13.394
 4939SOL     OW16713   2.901   6.258   9.470
 4939SOL    HW116714   2.877   6.247   9.562
 4939SOL    HW216715   2.989   6.294   9.472
 4940SOL     OW16716  12.709   0.916   2.905
 4940SOL    HW116717  12.781   0.891   2.846
 4940SOL    HW216718  12.647   0.962   2.848
 4941SOL     OW16719   3.480   0.728   8.406
 4941SOL    HW116720   3.399   0.762   8.367
 4941SOL    HW216721   3.470   0.745   8.499
 4942SOL     OW16722   8.144   1.212   9.327
 4942SOL    HW116723   8.068   1.209   9.269
 4942SOL    HW216724   8.144   1.127   9.371
 4943SOL     OW16725  11.993  13.745  10.937
 4943SOL    HW116726  11.995  13.833  10.975
 4943SOL    HW216727  11.952  13.691  11.004
 4944SOL     OW16728   2.374   7.910  13.832
 4944SOL    HW116729   2.370   8.006  13.833
 4944SOL    HW216730   2.289   7.882  13.865
 4945SOL     OW16731   6.170   4.198  12.428
 4945SOL    HW116732   6.242   4.217  12.368
 4945SOL    HW216733   6.165   4.275  12.485
 4946SOL     OW16734   5.522  10.033  12.362
 4946SOL    HW116735   5.611  10.038  12.326
 4946SOL    HW216736   5.527  10.083  12.444
 4947SOL     OW16737  14.281   3.584   1.246
 4947SOL    HW116738  14.209   3.630   1.289
 4947SOL    HW216739  14.349   3.651   1.234
 4948SOL     OW16740  13.680   5.565  14.674
 4948SOL    HW116741  13.724   5.505  14.615
 4948SOL    HW216742  13.599   5.589  14.628
 4949SOL     OW16743   1.497   7.084  13.228
 4949SOL    HW116744   1.426   7.144  13.251
 4949SOL    HW216745   1.504   7.089  13.133
 4950SOL     OW16746   1.548   3.385  10.035
 4950SOL    HW116747   1.589   3.328  10.101
 4950SOL    HW216748   1.589   3.360   9.953
 4951SOL     OW16749  12.643  14.086   6.419
 4951SOL    HW116750  12.736  14.107   6.422
 4951SOL    HW216751  12.610  14.134   6.343
 4952SOL     OW16752  10.416  11.469   8.354
 4952SOL    HW116753  10.382  11.470   8.265
 4952SOL    HW216754  10.344  11.503   8.407
 4953SOL     OW16755   9.990  10.875   4.192
 4953SOL    HW116756  10.039  10.829   4.124
 4953SOL    HW216757   9.931  10.934   4.143
 4954SOL     OW16758   7.521  11.283   4.427
 4954SOL    HW116759   7.520  11.220   4.355
 4954SOL    HW216760   7.560  11.362   4.390
 4955SOL     OW16761   1.018   7.395   3.033
 4955SOL    HW116762   1.022   7.324   3.097
 4955SOL    HW216763   1.106   7.434   3.036
 4956SOL     OW16764   6.136   1.331  10.007
 4956SOL    HW116765   6.200   1.260  10.004
 4956SOL    HW216766   6.180   1.401  10.055
 4957SOL     OW16767  13.488   8.971   8.845
 4957SOL    HW116768  13.424   9.014   8.788
 4957SOL    HW216769  13.571   8.982   8.799
 4958SOL     OW16770  14.452  14.120   0.975
 4958SOL    HW116771  14.446  14.189   1.042
 4958SOL    HW216772  14.362  14.104   0.949
 4959SOL     OW16773   6.542   9.155  11.652
 4959SOL    HW116774   6.635   9.133  11.648
 4959SOL    HW216775   6.540   9.251  11.659
 4960SOL     OW16776   8.655   6.692   2.868
 4960SOL    HW116777   8.642   6.598   2.856
 4960SOL    HW216778   8.747   6.706   2.846
 4961SOL     OW16779   9.766  13.504   3.474
 4961SOL    HW116780   9.713  13.538   3.402
 4961SOL    HW216781   9.752  13.409   3.471
 4962SOL     OW16782   5.198   7.519   5.891
 4962SOL    HW116783   5.172   7.545   5.802
 4962SOL    HW216784   5.221   7.427   5.882
 4963SOL     OW16785  12.362  14.054  10.400
 4963SOL    HW116786  12.435  14.115  10.412
 4963SOL    HW216787  12.297  14.103  10.349
 4964SOL     OW16788  14.483   6.827  11.453
 4964SOL    HW116789  14.426   6.888  11.499
 4964SOL    HW216790  14.515   6.877  11.378
 4965SOL     OW16791   8.855   1.349  10.882
 4965SOL    HW116792   8.848   1.437  10.918
 4965SOL    HW216793   8.941   1.347  10.840
 4966SOL     OW16794  13.780   0.042   8.914
 4966SOL    HW116795  13.789   0.093   8.994
 4966SOL    HW216796  13.717   0.091   8.861
 4967SOL     OW16797  12.541   3.775   9.846
 4967SOL    HW116798  12.618   3.811   9.804
 4967SOL    HW216799  12.574   3.705   9.903
 4968SOL     OW16800   7.362  13.572   6.909
 4968SOL    HW116801   7.418  13.622   6.850
 4968SOL    HW216802   7.416  13.498   6.937
 4969SOL     OW16803  10.968  11.626  10.892
 4969SOL    HW116804  11.038  11.603  10.830
 4969SOL    HW216805  10.980  11.565  10.965
 4970SOL     OW16806   5.284   4.053  13.811
 4970SOL    HW116807   5.367   4.046  13.859
 4970SOL    HW216808   5.254   3.963  13.801
 4971SOL     OW16809  11.126  11.288   0.627
 4971SOL    HW116810  11.183  11.225   0.583
 4971SOL    HW216811  11.043  11.283   0.579
 4972SOL     OW16812  10.894  10.630  13.697
 4972SOL    HW116813  10.822  10.598  13.750
 4972SOL    HW216814  10.939  10.551  13.667
 4973SOL     OW16815   5.604  12.342  10.363
 4973SOL    HW116816   5.629  12.429  10.332
 4973SOL    HW216817   5.603  12.351  10.459
 4974SOL     OW16818  10.092   9.428   7.036
 4974SOL    HW116819  10.075   9.523   7.034
 4974SOL    HW216820  10.096   9.403   6.944
 4975SOL     OW16821  11.937  13.277   7.689
 4975SOL    HW116822  11.898  13.364   7.684
 4975SOL    HW216823  11.945  13.249   7.598
 4976SOL     OW16824  13.089   6.849   5.916
 4976SOL    HW116825  13.041   6.768   5.931
 4976SOL    HW216826  13.180   6.826   5.934
 4977SOL     OW16827   4.126  11.647   9.237
 4977SOL    HW116828   4.052  11.614   9.288
 4977SOL    HW216829   4.193  11.579   9.246
 4978SOL     OW16830   1.862  12.358   8.706
 4978SOL    HW116831   1.775  12.376   8.742
 4978SOL    HW216832   1.915  12.335   8.782
 4979SOL     OW16833  11.583   1.375   1.179
 4979SOL    HW116834  11.600   1.451   1.234
 4979SOL    HW216835  11.489   1.377   1.163
 4980SOL     OW16836   0.545  10.606   0.728
 4980SOL    HW116837   0.590  10.575   0.649
 4980SOL    HW216838   0.453  10.585   0.713
 4981SOL     OW16839  11.860   0.312   0.741
 4981SOL    HW116840  11.815   0.285   0.822
 4981SOL    HW216841  11.819   0.395   0.718
 4982SOL     OW16842  13.368  11.245   2.672
 4982SOL    HW116843  13.393  11.217   2.584
 4982SOL    HW216844  13.272  11.247   2.670
 4983SOL     OW16845   3.646   6.872   0.453
 4983SOL    HW116846   3.684   6.937   0.395
 4983SOL    HW216847   3.672   6.899   0.541
 4984SOL     OW16848   7.646  12.771  12.486
 4984SOL    HW116849   7.656  12.861  12.518
 4984SOL    HW216850   7.710  12.764  12.416
 4985SOL     OW16851   6.027   9.063  10.075
 4985SOL    HW116852   6.035   9.005  10.150
 4985SOL    HW216853   5.969   9.132  10.103
 4986SOL     OW16854  12.277   3.845   6.441
 4986SOL    HW116855  12.339   3.789   6.488
 4986SOL    HW216856  12.243   3.905   6.508
 4987SOL     OW16857   1.799   2.589  10.091
 4987SOL    HW116858   1.723   2.637  10.122
 4987SOL    HW216859   1.774   2.557  10.005
 4988SOL     OW16860   5.998   2.004   8.066
 4988SOL    HW116861   6.019   1.911   8.057
 4988SOL    HW216862   6.060   2.036   8.132
 4989SOL     OW16863  10.658  10.105   3.655
 4989SOL    HW116864  10.709  10.184   3.641
 4989SOL    HW216865  10.723  10.034   3.654
 4990SOL     OW16866   7.707   9.748   8.847
 4990SOL    HW116867   7.706   9.843   8.856
 4990SOL    HW216868   7.794   9.721   8.876
 4991SOL     OW16869   5.719  12.041  10.607
 4991SOL    HW116870   5.641  11.998  10.570
 4991SOL    HW216871   5.695  12.057  10.699
 4992SOL     OW16872   3.252   3.683   0.298
 4992SOL    HW116873   3.216   3.759   0.251
 4992SOL    HW216874   3.298   3.633   0.230
 4993SOL     OW16875  11.713  10.979  12.292
 4993SOL    HW116876  11.742  10.969  12.382
 4993SOL    HW216877  11.640  11.041  12.297
 4994SOL     OW16878  12.898   3.358   3.215
 4994SOL    HW116879  12.935   3.274   3.189
 4994SOL    HW216880  12.822   3.369   3.158
 4995SOL     OW16881   4.376   2.985   9.536
 4995SOL    HW116882   4.393   2.894   9.512
 4995SOL    HW216883   4.462   3.023   9.552
 4996SOL     OW16884   1.843   0.401  13.224
 4996SOL    HW116885   1.785   0.437  13.157
 4996SOL    HW216886   1.864   0.475  13.280
 4997SOL     OW16887   9.537  12.092   6.447
 4997SOL    HW116888   9.554  12.028   6.379
 4997SOL    HW216889   9.603  12.074   6.514
 4998SOL     OW16890  12.245   2.024   7.409
 4998SOL    HW116891  12.325   2.039   7.461
 4998SOL    HW216892  12.174   2.049   7.468
 4999SOL     OW16893   4.829  10.007   1.146
 4999SOL    HW116894   4.834   9.912   1.134
 4999SOL    HW216895   4.905  10.042   1.099
 5000SOL     OW16896   6.881   9.504   5.885
 5000SOL    HW116897   6.931   9.461   5.816
 5000SOL    HW216898   6.891   9.598   5.867
 5001SOL     OW16899   3.360   6.154   0.242
 5001SOL    HW116900   3.456   6.148   0.247
 5001SOL    HW216901   3.341   6.247   0.260
 5002SOL     OW16902   8.696   0.083  10.624
 5002SOL    HW116903   8.773   0.130  10.656
 5002SOL    HW216904   8.621   0.137  10.651
 5003SOL     OW16905   5.062   8.301  10.978
 5003SOL    HW116906   5.084   8.208  10.966
 5003SOL    HW216907   5.056   8.335  10.889
 5004SOL     OW16908  12.546   6.228   1.022
 5004SOL    HW116909  12.561   6.270   0.938
 5004SOL    HW216910  12.519   6.139   1.000
 5005SOL     OW16911  14.162   7.112   1.755
 5005SOL    HW116912  14.197   7.178   1.696
 5005SOL    HW216913  14.161   7.154   1.841
 5006SOL     OW16914   7.274  11.785  11.921
 5006SOL    HW116915   7.329  11.815  11.993
 5006SOL    HW216916   7.287  11.849  11.852
 5007SOL     OW16917  14.780  13.629   2.426
 5007SOL    HW116918  14.694  13.664   2.447
 5007SOL    HW216919  14.838  13.666   2.493
 5008SOL     OW16920   2.712  12.646   0.264
 5008SOL    HW116921   2.618  12.659   0.254
 5008SOL    HW216922   2.721  12.577   0.329
 5009SOL     OW16923   1.818   3.421   5.848
 5009SOL    HW116924   1.781   3.340   5.813
 5009SOL    HW216925   1.743   3.480   5.856
 5010SOL     OW16926   0.751   8.220   2.735
 5010SOL    HW116927   0.706   8.214   2.819
 5010SOL    HW216928   0.844   8.227   2.758
 5011SOL     OW16929   5.513  11.474   1.296
 5011SOL    HW116930   5.431  11.498   1.252
 5011SOL    HW216931   5.574  11.455   1.225
 5012SOL     OW16932  13.552  10.793   9.597
 5012SOL    HW116933  13.458  10.786   9.582
 5012SOL    HW216934  13.579  10.871   9.548
 5013SOL     OW16935  10.128  12.391  10.443
 5013SOL    HW116936  10.214  12.362  10.415
 5013SOL    HW216937  10.108  12.466  10.386
 5014SOL     OW16938   0.220  10.043   4.585
 5014SOL    HW116939   0.276  10.110   4.625
 5014SOL    HW216940   0.135  10.055   4.627
 5015SOL     OW16941  10.470   6.512  14.741
 5015SOL    HW116942  10.408   6.539  14.673
 5015SOL    HW216943  10.536   6.581  14.742
 5016SOL     OW16944   9.210   0.185   8.155
 5016SOL    HW116945   9.166   0.231   8.227
 5016SOL    HW216946   9.292   0.155   8.193
 5017SOL     OW16947   3.926   7.694   0.972
 5017SOL    HW116948   4.011   7.650   0.984
 5017SOL    HW216949   3.911   7.740   1.054
 5018SOL     OW16950   7.507   0.005  12.992
 5018SOL    HW116951   7.533  14.804  13.040
 5018SOL    HW216952   7.589   0.051  12.975
 5019SOL     OW16953  11.203   7.368  10.518
 5019SOL    HW116954  11.188   7.458  10.490
 5019SOL    HW216955  11.297   7.355  10.510
 5020SOL     OW16956   4.790   9.952  12.815
 5020SOL    HW116957   4.862   9.940  12.876
 5020SOL    HW216958   4.715   9.911  12.859
 5021SOL     OW16959   4.497   0.658   5.327
 5021SOL    HW116960   4.427   0.660   5.261
 5021SOL    HW216961   4.578   0.651   5.275
 5022SOL     OW16962  14.207   8.808  11.317
 5022SOL    HW116963  14.235   8.813  11.408
 5022SOL    HW216964  14.236   8.891  11.279
 5023SOL     OW16965   5.901   5.271   7.718
 5023SOL    HW116966   5.872   5.279   7.627
 5023SOL    HW216967   5.931   5.359   7.741
 5024SOL     OW16968   0.063   3.868   8.373
 5024SOL    HW116969   0.019   3.785   8.358
 5024SOL    HW216970   0.013   3.909   8.444
 5025SOL     OW16971   7.754   0.543   2.567
 5025SOL    HW116972   7.782   0.457   2.596
 5025SOL    HW216973   7.755   0.537   2.471
 5026SOL     OW16974  13.808  11.389  13.811
 5026SOL    HW116975  13.826  11.295  13.808
 5026SOL    HW216976  13.844  11.418  13.894
 5027SOL     OW16977   6.729   2.159   6.855
 5027SOL    HW116978   6.670   2.234   6.845
 5027SOL    HW216979   6.813   2.197   6.879
 5028SOL     OW16980   7.414  13.385   9.924
 5028SOL    HW116981   7.374  13.427  10.000
 5028SOL    HW216982   7.388  13.293   9.931
 5029SOL     OW16983   8.182  12.487   7.061
 5029SOL    HW116984   8.217  12.435   6.989
 5029SOL    HW216985   8.114  12.541   7.020
 5030SOL     OW16986   1.842  14.356   5.829
 5030SOL    HW116987   1.856  14.375   5.736
 5030SOL    HW216988   1.923  14.382   5.872
 5031SOL     OW16989   0.595   8.170  13.801
 5031SOL    HW116990   0.573   8.212  13.718
 5031SOL    HW216991   0.620   8.081  13.777
 5032SOL     OW16992   5.667   5.433   7.486
 5032SOL    HW116993   5.758   5.427   7.455
 5032SOL    HW216994   5.614   5.425   7.406
 5033SOL     OW16995   2.791  11.906  14.013
 5033SOL    HW116996   2.786  11.987  14.063
 5033SOL    HW216997   2.880  11.904  13.979
 5034SOL     OW16998   5.240  11.963   8.721
 5034SOL    HW116999   5.202  11.969   8.633
 5034SOL    HW217000   5.271  11.873   8.728
 5035SOL     OW17001  11.117  12.394  10.661
 5035SOL    HW117002  11.063  12.473  10.668
 5035SOL    HW217003  11.091  12.355  10.578
 5036SOL     OW17004   1.314   5.170   4.394
 5036SOL    HW117005   1.287   5.079   4.405
 5036SOL    HW217006   1.328   5.202   4.484
 5037SOL     OW17007   1.499   2.713  14.717
 5037SOL    HW117008   1.459   2.788  14.674
 5037SOL    HW217009   1.437   2.688  14.786
 5038SOL     OW17010   4.650   3.085  14.193
 5038SOL    HW117011   4.732   3.122  14.227
 5038SOL    HW217012   4.619   3.151  14.131
 5039SOL     OW17013   3.970  14.342   3.530
 5039SOL    HW117014   3.984  14.250   3.509
 5039SOL    HW217015   4.011  14.354   3.615
 5040SOL     OW17016  10.692   9.803   5.637
 5040SOL    HW117017  10.680   9.840   5.725
 5040SOL    HW217018  10.691   9.879   5.579
 5041SOL     OW17019  12.100   4.219  14.418
 5041SOL    HW117020  12.183   4.204  14.372
 5041SOL    HW217021  12.035   4.173  14.366
 5042SOL     OW17022   6.843   0.357  11.292
 5042SOL    HW117023   6.844   0.408  11.211
 5042SOL    HW217024   6.754   0.369  11.326
 5043SOL     OW17025  14.696  10.082   0.696
 5043SOL    HW117026  14.644  10.012   0.734
 5043SOL    HW217027  14.738  10.124   0.771
 5044SOL     OW17028  14.474  14.381  12.264
 5044SOL    HW117029  14.448  14.471  12.244
 5044SOL    HW217030  14.399  14.344  12.309
 5045SOL     OW17031  13.369   3.798   8.352
 5045SOL    HW117032  13.339   3.707   8.356
 5045SOL    HW217033  13.388   3.821   8.443
 5046SOL     OW17034   9.433  13.910   3.389
 5046SOL    HW117035   9.524  13.881   3.393
 5046SOL    HW217036   9.437  13.999   3.354
 5047SOL     OW17037  13.630   1.750   3.881
 5047SOL    HW117038  13.712   1.771   3.835
 5047SOL    HW217039  13.655   1.747   3.973
 5048SOL     OW17040   5.685   6.538   4.457
 5048SOL    HW117041   5.698   6.492   4.374
 5048SOL    HW217042   5.592   6.530   4.476
 5049SOL     OW17043   5.649   0.616   2.128
 5049SOL    HW117044   5.662   0.660   2.044
 5049SOL    HW217045   5.734   0.577   2.149
 5050SOL     OW17046   5.759   8.594   2.283
 5050SOL    HW117047   5.787   8.678   2.319
 5050SOL    HW217048   5.811   8.583   2.204
 5051SOL     OW17049   5.666   6.062  10.513
 5051SOL    HW117050   5.588   6.073  10.459
 5051SOL    HW217051   5.682   6.149  10.551
 5052SOL     OW17052   1.546   8.804  13.867
 5052SOL    HW117053   1.608   8.731  13.862
 5052SOL    HW217054   1.542   8.826  13.960
 5053SOL     OW17055  14.610  13.655   1.384
 5053SOL    HW117056  14.535  13.694   1.429
 5053SOL    HW217057  14.675  13.725   1.380
 5054SOL     OW17058   8.514   8.176   6.709
 5054SOL    HW117059   8.558   8.233   6.772
 5054SOL    HW217060   8.436   8.227   6.683
 5055SOL     OW17061   7.917  12.589   9.966
 5055SOL    HW117062   7.873  12.640   9.897
 5055SOL    HW217063   7.935  12.653  10.035
 5056SOL     OW17064   3.423   8.686   2.434
 5056SOL    HW117065   3.386   8.737   2.506
 5056SOL    HW217066   3.367   8.706   2.359
 5057SOL     OW17067   2.637   9.789  14.112
 5057SOL    HW117068   2.630   9.760  14.203
 5057SOL    HW217069   2.729   9.774  14.089
 5058SOL     OW17070   9.366   3.588   2.805
 5058SOL    HW117071   9.350   3.566   2.896
 5058SOL    HW217072   9.425   3.664   2.809
 5059SOL     OW17073   4.932  11.853   5.133
 5059SOL    HW117074   5.017  11.887   5.162
 5059SOL    HW217075   4.924  11.768   5.177
 5060SOL     OW17076  12.457   8.401   1.611
 5060SOL    HW117077  12.412   8.396   1.695
 5060SOL    HW217078  12.419   8.478   1.568
 5061SOL     OW17079   9.782  11.314   1.855
 5061SOL    HW117080   9.840  11.242   1.878
 5061SOL    HW217081   9.748  11.292   1.768
 5062SOL     OW17082   5.064   6.783  10.092
 5062SOL    HW117083   5.036   6.854  10.149
 5062SOL    HW217084   5.101   6.718  10.152
 5063SOL     OW17085  13.049   4.654  14.007
 5063SOL    HW117086  13.122   4.712  14.030
 5063SOL    HW217087  13.045   4.658  13.912
 5064SOL     OW17088   3.051  13.035  10.492
 5064SOL    HW117089   3.088  12.948  10.478
 5064SOL    HW217090   2.965  13.019  10.530
 5065SOL     OW17091  14.160  13.082   7.578
 5065SOL    HW117092  14.133  13.050   7.664
 5065SOL    HW217093  14.213  13.159   7.596
 5066SOL     OW17094  12.844   8.593   9.973
 5066SOL    HW117095  12.855   8.498   9.979
 5066SOL    HW217096  12.749   8.606   9.975
 5067SOL     OW17097   7.536   5.757   1.131
 5067SOL    HW117098   7.498   5.804   1.057
 5067SOL    HW217099   7.629   5.748   1.110
 5068SOL     OW17100  11.788   5.564   9.362
 5068SOL    HW117101  11.827   5.488   9.318
 5068SOL    HW217102  11.800   5.546   9.456
 5069SOL     OW17103   8.931  10.546   6.033
 5069SOL    HW117104   8.947  10.623   5.979
 5069SOL    HW217105   8.840  10.522   6.014
 5070SOL     OW17106   0.676   6.027  11.579
 5070SOL    HW117107   0.730   6.056  11.506
 5070SOL    HW217108   0.723   5.951  11.615
 5071SOL     OW17109  10.484   1.887  10.039
 5071SOL    HW117110  10.500   1.908  10.131
 5071SOL    HW217111  10.560   1.924   9.993
 5072SOL     OW17112   9.585   3.171  13.534
 5072SOL    HW117113   9.502   3.188  13.577
 5072SOL    HW217114   9.633   3.117  13.596
 5073SOL     OW17115   5.612   9.406   8.479
 5073SOL    HW117116   5.701   9.383   8.453
 5073SOL    HW217117   5.590   9.343   8.548
 5074SOL     OW17118   3.454  14.288   8.637
 5074SOL    HW117119   3.406  14.205   8.641
 5074SOL    HW217120   3.545  14.262   8.628
 5075SOL     OW17121  11.604   7.716   0.608
 5075SOL    HW117122  11.663   7.781   0.568
 5075SOL    HW217123  11.516   7.751   0.592
 5076SOL     OW17124   6.597   5.144   5.402
 5076SOL    HW117125   6.686   5.179   5.400
 5076SOL    HW217126   6.606   5.052   5.380
 5077SOL     OW17127   9.638   8.762   1.916
 5077SOL    HW117128   9.609   8.844   1.875
 5077SOL    HW217129   9.636   8.698   1.845
 5078SOL     OW17130  12.554   9.049   3.090
 5078SOL    HW117131  12.514   9.059   3.003
 5078SOL    HW217132  12.643   9.082   3.079
 5079SOL     OW17133   3.687   2.431  11.357
 5079SOL    HW117134   3.678   2.346  11.401
 5079SOL    HW217135   3.687   2.409  11.263
 5080SOL     OW17136   7.116  10.726  13.070
 5080SOL    HW117137   7.136  10.820  13.071
 5080SOL    HW217138   7.112  10.703  12.977
 5081SOL     OW17139   6.625   1.161   9.336
 5081SOL    HW117140   6.633   1.200   9.423
 5081SOL    HW217141   6.530   1.154   9.321
 5082SOL     OW17142   4.319   3.279   2.522
 5082SOL    HW117143   4.280   3.284   2.435
 5082SOL    HW217144   4.413   3.267   2.506
 5083SOL     OW17145  10.803   8.036   2.722
 5083SOL    HW117146  10.873   8.100   2.715
 5083SOL    HW217147  10.838   7.967   2.777
 5084SOL     OW17148   3.532   4.637  12.606
 5084SOL    HW117149   3.462   4.637  12.541
 5084SOL    HW217150   3.612   4.637  12.554
 5085SOL     OW17151   8.004   1.605   8.251
 5085SOL    HW117152   7.972   1.528   8.298
 5085SOL    HW217153   8.099   1.599   8.256
 5086SOL     OW17154   9.175   7.849  13.566
 5086SOL    HW117155   9.116   7.887  13.501
 5086SOL    HW217156   9.257   7.836  13.519
 5087SOL     OW17157  11.948   1.632   9.014
 5087SOL    HW117158  12.015   1.692   9.046
 5087SOL    HW217159  11.878   1.636   9.079
 5088SOL     OW17160   6.398   8.659   9.958
 5088SOL    HW117161   6.367   8.570   9.947
 5088SOL    HW217162   6.320   8.713   9.950
 5089SOL     OW17163  14.812   9.705   5.066
 5089SOL    HW117164  14.746   9.715   5.134
 5089SOL    HW217165  14.876   9.644   5.102
 5090SOL     OW17166   4.607   9.168   7.733
 5090SOL    HW117167   4.613   9.237   7.667
 5090SOL    HW217168   4.632   9.088   7.686
 5091SOL     OW17169   1.562   8.863   4.524
 5091SOL    HW117170   1.643   8.814   4.518
 5091SOL    HW217171   1.563   8.901   4.612
 5092SOL     OW17172  13.982  10.185   9.020
 5092SOL    HW117173  14.040  10.118   8.983
 5092SOL    HW217174  13.940  10.225   8.944
 5093SOL     OW17175   9.453   0.747   3.308
 5093SOL    HW117176   9.521   0.771   3.371
 5093SOL    HW217177   9.492   0.677   3.256
 5094SOL     OW17178  12.464   9.613   1.921
 5094SOL    HW117179  12.437   9.677   1.855
 5094SOL    HW217180  12.559   9.607   1.912
 5095SOL     OW17181  10.124   8.858  14.669
 5095SOL    HW117182  10.111   8.952  14.656
 5095SOL    HW217183  10.094   8.819  14.587
 5096SOL     OW17184  10.161  10.093   4.704
 5096SOL    HW117185  10.120  10.127   4.625
 5096SOL    HW217186  10.138  10.001   4.705
 5097SOL     OW17187   7.114  13.941   3.285
 5097SOL    HW117188   7.120  13.951   3.380
 5097SOL    HW217189   7.078  13.853   3.272
 5098SOL     OW17190   2.542  13.544   5.079
 5098SOL    HW117191   2.456  13.511   5.052
 5098SOL    HW217192   2.553  13.512   5.168
 5099SOL     OW17193   8.246   9.997   0.651
 5099SOL    HW117194   8.228   9.918   0.600
 5099SOL    HW217195   8.181  10.061   0.620
 5100SOL     OW17196   8.063   4.077   8.615
 5100SOL    HW117197   7.983   4.036   8.582
 5100SOL    HW217198   8.035   4.123   8.694
 5101SOL     OW17199   3.456   6.212   8.540
 5101SOL    HW117200   3.409   6.242   8.618
 5101SOL    HW217201   3.436   6.278   8.473
 5102SOL     OW17202  12.383   9.261   7.246
 5102SOL    HW117203  12.390   9.228   7.336
 5102SOL    HW217204  12.401   9.184   7.192
 5103SOL     OW17205   5.832   2.453   4.355
 5103SOL    HW117206   5.921   2.429   4.331
 5103SOL    HW217207   5.790   2.479   4.273
 5104SOL     OW17208   7.084   3.291  12.121
 5104SOL    HW117209   7.117   3.237  12.049
 5104SOL    HW217210   7.127   3.256  12.199
 5105SOL     OW17211   1.681   6.269   4.485
 5105SOL    HW117212   1.618   6.248   4.554
 5105SOL    HW217213   1.630   6.317   4.420
 5106SOL     OW17214   9.824   2.688   9.775
 5106SOL    HW117215   9.741   2.648   9.803
 5106SOL    HW217216   9.890   2.645   9.829
 5107SOL     OW17217  14.594  11.570   6.998
 5107SOL    HW117218  14.525  11.630   6.971
 5107SOL    HW217219  14.550  11.485   7.006
 5108SOL     OW17220  12.473  11.750   4.096
 5108SOL    HW117221  12.500  11.696   4.021
 5108SOL    HW217222  12.523  11.715   4.170
 5109SOL     OW17223  14.605   9.791  11.380
 5109SOL    HW117224  14.696   9.763  11.382
 5109SOL    HW217225  14.563   9.733  11.316
 5110SOL     OW17226   3.390   6.990  10.541
 5110SOL    HW117227   3.303   7.017  10.570
 5110SOL    HW217228   3.375   6.945  10.458
 5111SOL     OW17229  12.312   8.568   0.672
 5111SOL    HW117230  12.355   8.545   0.590
 5111SOL    HW217231  12.381   8.604   0.727
 5112SOL     OW17232   4.592   5.742   3.175
 5112SOL    HW117233   4.605   5.691   3.255
 5112SOL    HW217234   4.609   5.680   3.104
 5113SOL     OW17235  12.870  10.041  13.877
 5113SOL    HW117236  12.820  10.066  13.954
 5113SOL    HW217237  12.961  10.055  13.901
 5114SOL     OW17238   1.308  13.801   6.483
 5114SOL    HW117239   1.263  13.766   6.406
 5114SOL    HW217240   1.334  13.723   6.533
 5115SOL     OW17241  12.640   7.780   8.605
 5115SOL    HW117242  12.611   7.864   8.568
 5115SOL    HW217243  12.683   7.804   8.687
 5116SOL     OW17244   9.434   5.161   5.865
 5116SOL    HW117245   9.358   5.105   5.851
 5116SOL    HW217246   9.455   5.197   5.779
 5117SOL     OW17247  12.000   8.257   4.374
 5117SOL    HW117248  12.020   8.256   4.467
 5117SOL    HW217249  12.028   8.344   4.345
 5118SOL     OW17250   1.993   4.513   8.265
 5118SOL    HW117251   1.904   4.495   8.297
 5118SOL    HW217252   1.984   4.513   8.170
 5119SOL     OW17253   1.306   9.126   0.519
 5119SOL    HW117254   1.218   9.152   0.490
 5119SOL    HW217255   1.309   9.031   0.506
 5120SOL     OW17256   2.560   5.642   1.644
 5120SOL    HW117257   2.574   5.737   1.643
 5120SOL    HW217258   2.600   5.612   1.725
 5121SOL     OW17259   7.007   8.106   4.597
 5121SOL    HW117260   6.999   8.084   4.689
 5121SOL    HW217261   7.101   8.104   4.579
 5122SOL     OW17262  13.474   1.278   4.743
 5122SOL    HW117263  13.506   1.290   4.654
 5122SOL    HW217264  13.542   1.315   4.799
 5123SOL     OW17265   5.004   4.184  14.837
 5123SOL    HW117266   5.057   4.146   0.030
 5123SOL    HW217267   5.056   4.171  14.758
 5124SOL     OW17268   0.536   2.335   3.604
 5124SOL    HW117269   0.578   2.354   3.520
 5124SOL    HW217270   0.452   2.382   3.599
 5125SOL     OW17271   2.549   3.985   7.939
 5125SOL    HW117272   2.560   3.931   7.861
 5125SOL    HW217273   2.531   4.072   7.906
 5126SOL     OW17274   4.991  11.528   5.190
 5126SOL    HW117275   4.992  11.514   5.095
 5126SOL    HW217276   5.026  11.447   5.227
 5127SOL     OW17277   8.458  11.663   9.204
 5127SOL    HW117278   8.499  11.686   9.121
 5127SOL    HW217279   8.380  11.613   9.179
 5128SOL     OW17280  12.977   1.225   7.753
 5128SOL    HW117281  12.933   1.171   7.818
 5128SOL    HW217282  12.982   1.170   7.675
 5129SOL     OW17283  12.222   1.279   8.711
 5129SOL    HW117284  12.252   1.359   8.669
 5129SOL    HW217285  12.135   1.300   8.746
 5130SOL     OW17286   6.643   0.861   0.979
 5130SOL    HW117287   6.702   0.914   0.926
 5130SOL    HW217288   6.655   0.772   0.947
 5131SOL     OW17289   4.778   0.320  13.459
 5131SOL    HW117290   4.772   0.240  13.407
 5131SOL    HW217291   4.692   0.329  13.499
 5132SOL     OW17292   1.942   9.977  10.956
 5132SOL    HW117293   1.891  10.045  10.999
 5132SOL    HW217294   2.028  10.017  10.940
 5133SOL     OW17295  12.709   4.644   1.786
 5133SOL    HW117296  12.707   4.676   1.876
 5133SOL    HW217297  12.621   4.607   1.772
 5134SOL     OW17298  10.444   6.498   1.901
 5134SOL    HW117299  10.492   6.577   1.927
 5134SOL    HW217300  10.504   6.426   1.920
 5135SOL     OW17301   2.253   1.218   1.690
 5135SOL    HW117302   2.278   1.264   1.770
 5135SOL    HW217303   2.331   1.223   1.634
 5136SOL     OW17304   8.026   9.798   1.069
 5136SOL    HW117305   7.976   9.748   1.004
 5136SOL    HW217306   8.097   9.838   1.019
 5137SOL     OW17307   1.392   5.673   1.862
 5137SOL    HW117308   1.360   5.634   1.943
 5137SOL    HW217309   1.463   5.731   1.889
 5138SOL     OW17310  10.297   9.615   0.964
 5138SOL    HW117311  10.306   9.523   0.988
 5138SOL    HW217312  10.350   9.625   0.885
 5139SOL     OW17313   1.940   5.382  13.924
 5139SOL    HW117314   1.965   5.308  13.979
 5139SOL    HW217315   1.856   5.357  13.885
 5140SOL     OW17316  10.557   3.551   9.930
 5140SOL    HW117317  10.585   3.615   9.864
 5140SOL    HW217318  10.572   3.466   9.889
 5141SOL     OW17319  13.049  11.861  14.796
 5141SOL    HW117320  13.114  11.893  14.859
 5141SOL    HW217321  12.973  11.917  14.810
 5142SOL     OW17322   0.794  12.800  13.886
 5142SOL    HW117323   0.806  12.892  13.862
 5142SOL    HW217324   0.706  12.797  13.923
 5143SOL     OW17325  14.063   6.212   7.483
 5143SOL    HW117326  14.098   6.163   7.558
 5143SOL    HW217327  13.973   6.232   7.508
 5144SOL     OW17328  14.772   4.700   9.530
 5144SOL    HW117329  14.703   4.672   9.590
 5144SOL    HW217330  14.763   4.795   9.526
 5145SOL     OW17331   0.638   6.412  12.664
 5145SOL    HW117332   0.619   6.369  12.580
 5145SOL    HW217333   0.721   6.457  12.649
 5146SOL     OW17334   6.159   1.672   8.886
 5146SOL    HW117335   6.124   1.591   8.922
 5146SOL    HW217336   6.091   1.704   8.827
 5147SOL     OW17337   9.265  14.698   5.777
 5147SOL    HW117338   9.314  14.616   5.763
 5147SOL    HW217339   9.308  14.739   5.851
 5148SOL     OW17340   7.751   4.599   4.676
 5148SOL    HW117341   7.824   4.537   4.673
 5148SOL    HW217342   7.787   4.679   4.638
 5149SOL     OW17343   4.962   0.513  10.399
 5149SOL    HW117344   4.966   0.421  10.426
 5149SOL    HW217345   4.972   0.510  10.304
 5150SOL     OW17346   3.471   3.704  12.393
 5150SOL    HW117347   3.521   3.785  12.385
 5150SOL    HW217348   3.469   3.685  12.487
 5151SOL     OW17349  13.279   0.519   5.603
 5151SOL    HW117350  13.184   0.510   5.602
 5151SOL    HW217351  13.301   0.534   5.695
 5152SOL     OW17352  14.432   4.995  13.819
 5152SOL    HW117353  14.387   5.021  13.738
 5152SOL    HW217354  14.523   4.983  13.792
 5153SOL     OW17355   0.953   9.150  11.071
 5153SOL    HW117356   0.947   9.090  10.996
 5153SOL    HW217357   0.969   9.236  11.032
 5154SOL     OW17358   2.988   3.224   4.450
 5154SOL    HW117359   2.967   3.221   4.543
 5154SOL    HW217360   2.953   3.308   4.421
 5155SOL     OW17361   5.000   4.271   4.493
 5155SOL    HW117362   5.051   4.271   4.573
 5155SOL    HW217363   4.968   4.361   4.484
 5156SOL     OW17364   3.711   4.259   9.162
 5156SOL    HW117365   3.667   4.180   9.129
 5156SOL    HW217366   3.792   4.226   9.201
 5157SOL     OW17367   9.076   2.943   7.699
 5157SOL    HW117368   8.986   2.910   7.695
 5157SOL    HW217369   9.071   3.030   7.660
 5158SOL     OW17370   6.395  11.520   9.119
 5158SOL    HW117371   6.351  11.591   9.072
 5158SOL    HW217372   6.439  11.470   9.050
 5159SOL     OW17373   0.616   1.103   4.191
 5159SOL    HW117374   0.575   1.020   4.216
 5159SOL    HW217375   0.709   1.081   4.178
 5160SOL     OW17376  13.697   8.594   6.878
 5160SOL    HW117377  13.791   8.603   6.860
 5160SOL    HW217378  13.693   8.576   6.972
 5161SOL     OW17379   2.466   8.259   7.463
 5161SOL    HW117380   2.377   8.265   7.496
 5161SOL    HW217381   2.461   8.195   7.392
 5162SOL     OW17382  13.067   0.932   0.333
 5162SOL    HW117383  13.081   0.937   0.238
 5162SOL    HW217384  13.108   0.849   0.358
 5163SOL     OW17385  14.158   6.261  10.677
 5163SOL    HW117386  14.216   6.203  10.628
 5163SOL    HW217387  14.138   6.213  10.758
 5164SOL     OW17388   0.043   2.942   5.212
 5164SOL    HW117389   0.092   2.910   5.287
 5164SOL    HW217390  14.834   2.965   5.248
 5165SOL     OW17391   5.123   0.413  13.944
 5165SOL    HW117392   5.100   0.321  13.958
 5165SOL    HW217393   5.217   0.412  13.924
 5166SOL     OW17394   9.293   2.652  12.736
 5166SOL    HW117395   9.365   2.708  12.707
 5166SOL    HW217396   9.221   2.674  12.676
 5167SOL     OW17397   8.229  12.975   9.189
 5167SOL    HW117398   8.196  12.924   9.263
 5167SOL    HW217399   8.160  12.969   9.123
 5168SOL     OW17400   0.479  13.921   8.868
 5168SOL    HW117401   0.495  13.997   8.924
 5168SOL    HW217402   0.527  13.850   8.911
 5169SOL     OW17403   0.113  12.177   6.722
 5169SOL    HW117404   0.206  12.184   6.699
 5169SOL    HW217405   0.091  12.085   6.707
 5170SOL     OW17406  14.709  10.289   5.344
 5170SOL    HW117407  14.789  10.242   5.320
 5170SOL    HW217408  14.654  10.223   5.386
 5171SOL     OW17409   0.344   8.210  14.366
 5171SOL    HW117410   0.283   8.252  14.427
 5171SOL    HW217411   0.304   8.222  14.280
 5172SOL     OW17412   9.528  10.573   2.828
 5172SOL    HW117413   9.501  10.488   2.795
 5172SOL    HW217414   9.612  10.556   2.872
 5173SOL     OW17415   5.849   7.075   0.689
 5173SOL    HW117416   5.810   7.148   0.640
 5173SOL    HW217417   5.903   7.117   0.755
 5174SOL     OW17418  12.941  10.837   6.542
 5174SOL    HW117419  12.869  10.875   6.592
 5174SOL    HW217420  12.948  10.747   6.575
 5175SOL     OW17421   8.012  11.670   8.908
 5175SOL    HW117422   8.077  11.740   8.898
 5175SOL    HW217423   8.040  11.603   8.845
 5176SOL     OW17424   0.595  12.492   5.775
 5176SOL    HW117425   0.637  12.576   5.755
 5176SOL    HW217426   0.639  12.462   5.855
 5177SOL     OW17427   3.395   6.350   0.677
 5177SOL    HW117428   3.371   6.437   0.644
 5177SOL    HW217429   3.422   6.366   0.768
 5178SOL     OW17430   2.380  10.360  12.744
 5178SOL    HW117431   2.462  10.314  12.726
 5178SOL    HW217432   2.343  10.312  12.819
 5179SOL     OW17433   6.306  11.320  14.050
 5179SOL    HW117434   6.285  11.370  13.971
 5179SOL    HW217435   6.225  11.320  14.101
 5180SOL     OW17436   2.993   9.030  13.634
 5180SOL    HW117437   2.902   9.047  13.609
 5180SOL    HW217438   3.011   9.094  13.703
 5181SOL     OW17439   4.196   9.135   1.794
 5181SOL    HW117440   4.264   9.189   1.834
 5181SOL    HW217441   4.241   9.087   1.724
 5182SOL     OW17442   6.982   4.842   8.993
 5182SOL    HW117443   7.019   4.896   8.923
 5182SOL    HW217444   7.006   4.888   9.073
 5183SOL     OW17445   0.238   6.657  13.852
 5183SOL    HW117446   0.280   6.687  13.932
 5183SOL    HW217447   0.152   6.699  13.852
 5184SOL     OW17448  12.102   5.147   0.379
 5184SOL    HW117449  12.119   5.117   0.290
 5184SOL    HW217450  12.067   5.236   0.369
 5185SOL     OW17451   6.259   8.820   9.469
 5185SOL    HW117452   6.326   8.888   9.460
 5185SOL    HW217453   6.301   8.741   9.437
 5186SOL     OW17454   3.361   0.379  10.489
 5186SOL    HW117455   3.288   0.393  10.549
 5186SOL    HW217456   3.332   0.417  10.407
 5187SOL     OW17457   8.695   6.235   4.556
 5187SOL    HW117458   8.631   6.262   4.622
 5187SOL    HW217459   8.705   6.140   4.570
 5188SOL     OW17460   0.266   6.574   8.185
 5188SOL    HW117461   0.270   6.639   8.255
 5188SOL    HW217462   0.263   6.490   8.231
 5189SOL     OW17463   3.050   1.004   2.628
 5189SOL    HW117464   3.113   1.058   2.579
 5189SOL    HW217465   2.970   1.006   2.575
 5190SOL     OW17466   1.884  13.164   5.290
 5190SOL    HW117467   1.867  13.090   5.233
 5190SOL    HW217468   1.851  13.137   5.376
 5191SOL     OW17469   4.315  12.879   4.443
 5191SOL    HW117470   4.321  12.816   4.372
 5191SOL    HW217471   4.254  12.946   4.411
 5192SOL     OW17472   9.117   1.046  13.963
 5192SOL    HW117473   9.070   0.970  13.997
 5192SOL    HW217474   9.076   1.121  14.006
 5193SOL     OW17475   0.386   1.770   1.963
 5193SOL    HW117476   0.481   1.779   1.955
 5193SOL    HW217477   0.366   1.809   2.048
 5194SOL     OW17478  11.165  12.332  13.396
 5194SOL    HW117479  11.087  12.283  13.422
 5194SOL    HW217480  11.156  12.344  13.301
 5195SOL     OW17481   3.315  13.861  13.718
 5195SOL    HW117482   3.240  13.807  13.695
 5195SOL    HW217483   3.380  13.843  13.650
 5196SOL     OW17484  13.765   0.363   8.679
 5196SOL    HW117485  13.818   0.343   8.757
 5196SOL    HW217486  13.769   0.458   8.672
 5197SOL     OW17487   0.847   8.239  13.972
 5197SOL    HW117488   0.886   8.152  13.964
 5197SOL    HW217489   0.800   8.252  13.889
 5198SOL     OW17490  12.758   3.887   9.756
 5198SOL    HW117491  12.744   3.896   9.662
 5198SOL    HW217492  12.835   3.830   9.764
 5199SOL     OW17493  14.768   2.259   1.962
 5199SOL    HW117494  14.810   2.218   1.887
 5199SOL    HW217495  14.815   2.341   1.975
 5200SOL     OW17496  13.229  10.778   6.993
 5200SOL    HW117497  13.313  10.776   6.946
 5200SOL    HW217498  13.245  10.725   7.072
 5201SOL     OW17499   0.882  11.856   3.942
 5201SOL    HW117500   0.916  11.894   4.023
 5201SOL    HW217501   0.926  11.904   3.872
 5202SOL     OW17502   9.453   5.216   9.428
 5202SOL    HW117503   9.464   5.139   9.371
 5202SOL    HW217504   9.437   5.179   9.515
 5203SOL     OW17505   2.846   4.719  13.999
 5203SOL    HW117506   2.760   4.738  13.962
 5203SOL    HW217507   2.890   4.667  13.932
 5204SOL     OW17508  14.447  12.252   8.483
 5204SOL    HW117509  14.390  12.321   8.449
 5204SOL    HW217510  14.478  12.286   8.566
 5205SOL     OW17511  13.549   9.647   7.369
 5205SOL    HW117512  13.536   9.608   7.282
 5205SOL    HW217513  13.538   9.574   7.430
 5206SOL     OW17514   3.694  12.668  11.329
 5206SOL    HW117515   3.695  12.578  11.363
 5206SOL    HW217516   3.761  12.669  11.260
 5207SOL     OW17517   1.515   9.506   5.172
 5207SOL    HW117518   1.599   9.466   5.149
 5207SOL    HW217519   1.512   9.502   5.267
 5208SOL     OW17520  10.949   6.692   2.364
 5208SOL    HW117521  11.038   6.714   2.337
 5208SOL    HW217522  10.901   6.682   2.282
 5209SOL     OW17523   9.407   9.919   0.631
 5209SOL    HW117524   9.467   9.939   0.703
 5209SOL    HW217525   9.391  10.003   0.588
 5210SOL     OW17526   0.019   4.481   9.944
 5210SOL    HW117527   0.039   4.390   9.962
 5210SOL    HW217528   0.071   4.502   9.866
 5211SOL     OW17529  12.262  13.654  10.528
 5211SOL    HW117530  12.308  13.727  10.486
 5211SOL    HW217531  12.172  13.684  10.536
 5212SOL     OW17532   2.274   2.725  14.138
 5212SOL    HW117533   2.346   2.710  14.078
 5212SOL    HW217534   2.282   2.817  14.163
 5213SOL     OW17535  11.091   9.259   9.824
 5213SOL    HW117536  11.074   9.291   9.913
 5213SOL    HW217537  11.178   9.219   9.830
 5214SOL     OW17538   7.750  11.242  11.040
 5214SOL    HW117539   7.785  11.281  10.961
 5214SOL    HW217540   7.677  11.187  11.010
 5215SOL     OW17541   1.819  12.488  11.152
 5215SOL    HW117542   1.767  12.416  11.188
 5215SOL    HW217543   1.773  12.567  11.182
 5216SOL     OW17544  10.500  10.512  11.406
 5216SOL    HW117545  10.440  10.511  11.481
 5216SOL    HW217546  10.463  10.450  11.344
 5217SOL     OW17547  10.181   6.839   2.057
 5217SOL    HW117548  10.268   6.869   2.030
 5217SOL    HW217549  10.122   6.907   2.024
 5218SOL     OW17550   6.537   8.218  13.957
 5218SOL    HW117551   6.620   8.179  13.986
 5218SOL    HW217552   6.481   8.143  13.935
 5219SOL     OW17553   5.343   0.065   1.934
 5219SOL    HW117554   5.262   0.014   1.929
 5219SOL    HW217555   5.406   0.014   1.881
 5220SOL     OW17556   2.405   7.189  12.840
 5220SOL    HW117557   2.380   7.247  12.912
 5220SOL    HW217558   2.333   7.195  12.778
 5221SOL     OW17559  13.753   4.374   4.385
 5221SOL    HW117560  13.722   4.353   4.474
 5221SOL    HW217561  13.826   4.313   4.370
 5222SOL     OW17562  10.406   6.813   4.358
 5222SOL    HW117563  10.404   6.743   4.292
 5222SOL    HW217564  10.317   6.813   4.394
 5223SOL     OW17565   8.694   3.004   8.102
 5223SOL    HW117566   8.694   3.069   8.031
 5223SOL    HW217567   8.785   3.001   8.131
 5224SOL     OW17568   4.678   7.523  14.876
 5224SOL    HW117569   4.732   7.521  14.796
 5224SOL    HW217570   4.628   7.604  14.868
 5225SOL     OW17571   5.450   8.305   3.042
 5225SOL    HW117572   5.359   8.336   3.047
 5225SOL    HW217573   5.492   8.364   2.980
 5226SOL     OW17574   7.778   6.334   3.875
 5226SOL    HW117575   7.718   6.406   3.860
 5226SOL    HW217576   7.723   6.256   3.877
 5227SOL     OW17577  12.215   7.599   5.797
 5227SOL    HW117578  12.303   7.593   5.836
 5227SOL    HW217579  12.172   7.517   5.822
 5228SOL     OW17580   4.926  12.081  11.851
 5228SOL    HW117581   4.989  12.126  11.906
 5228SOL    HW217582   4.945  11.988  11.864
 5229SOL     OW17583  13.899   6.751   0.769
 5229SOL    HW117584  13.894   6.768   0.675
 5229SOL    HW217585  13.992   6.738   0.786
 5230SOL     OW17586   5.549  14.061  10.202
 5230SOL    HW117587   5.632  14.045  10.248
 5230SOL    HW217588   5.553  14.004  10.126
 5231SOL     OW17589  14.406  11.596   1.619
 5231SOL    HW117590  14.322  11.561   1.590
 5231SOL    HW217591  14.419  11.558   1.706
 5232SOL     OW17592   5.816   0.652   4.006
 5232SOL    HW117593   5.800   0.692   4.092
 5232SOL    HW217594   5.883   0.708   3.966
 5233SOL     OW17595   6.965   5.655   9.367
 5233SOL    HW117596   6.987   5.748   9.372
 5233SOL    HW217597   6.890   5.645   9.425
 5234SOL     OW17598   5.623   3.650  13.546
 5234SOL    HW117599   5.696   3.590  13.532
 5234SOL    HW217600   5.644   3.726  13.491
 5235SOL     OW17601   9.417   2.285   2.404
 5235SOL    HW117602   9.481   2.328   2.347
 5235SOL    HW217603   9.440   2.313   2.493
 5236SOL     OW17604   2.602   8.663   8.468
 5236SOL    HW117605   2.559   8.590   8.424
 5236SOL    HW217606   2.618   8.632   8.558
 5237SOL     OW17607   2.506  11.439   9.222
 5237SOL    HW117608   2.580  11.470   9.170
 5237SOL    HW217609   2.430  11.486   9.187
 5238SOL     OW17610   1.825   7.637   5.413
 5238SOL    HW117611   1.811   7.665   5.322
 5238SOL    HW217612   1.907   7.590   5.411
 5239SOL     OW17613   2.833  11.330   0.342
 5239SOL    HW117614   2.811  11.378   0.262
 5239SOL    HW217615   2.863  11.244   0.310
 5240SOL     OW17616   2.463   6.922   0.561
 5240SOL    HW117617   2.429   7.011   0.556
 5240SOL    HW217618   2.527   6.924   0.632
 5241SOL     OW17619   6.826   7.392   3.601
 5241SOL    HW117620   6.753   7.432   3.648
 5241SOL    HW217621   6.792   7.307   3.571
 5242SOL     OW17622   6.083   6.085  12.629
 5242SOL    HW117623   6.017   6.131  12.578
 5242SOL    HW217624   6.134   6.036  12.565
 5243SOL     OW17625  13.178   0.931   4.694
 5243SOL    HW117626  13.169   1.007   4.637
 5243SOL    HW217627  13.193   0.857   4.635
 5244SOL     OW17628  11.139   6.320  10.483
 5244SOL    HW117629  11.052   6.345  10.513
 5244SOL    HW217630  11.124   6.243  10.429
 5245SOL     OW17631   6.385  14.718   5.586
 5245SOL    HW117632   6.387  14.624   5.571
 5245SOL    HW217633   6.440  14.754   5.517
 5246SOL     OW17634   9.918   1.440   6.494
 5246SOL    HW117635   9.894   1.528   6.464
 5246SOL    HW217636   9.841   1.387   6.474
 5247SOL     OW17637   1.081   7.058   8.670
 5247SOL    HW117638   1.116   7.053   8.581
 5247SOL    HW217639   0.986   7.070   8.658
 5248SOL     OW17640   4.761   7.003   0.535
 5248SOL    HW117641   4.786   6.911   0.541
 5248SOL    HW217642   4.781   7.028   0.445
 5249SOL     OW17643  14.375   5.002  14.076
 5249SOL    HW117644  14.413   4.921  14.109
 5249SOL    HW217645  14.380   4.994  13.981
 5250SOL     OW17646  12.401  14.545  13.610
 5250SOL    HW117647  12.348  14.592  13.675
 5250SOL    HW217648  12.459  14.612  13.574
 5251SOL     OW17649  11.800   0.869  11.659
 5251SOL    HW117650  11.853   0.806  11.610
 5251SOL    HW217651  11.710   0.854  11.629
 5252SOL     OW17652  11.261   3.195   6.025
 5252SOL    HW117653  11.251   3.189   5.930
 5252SOL    HW217654  11.327   3.128   6.046
 5253SOL     OW17655  11.802   2.954  10.755
 5253SOL    HW117656  11.722   2.924  10.712
 5253SOL    HW217657  11.845   2.874  10.784
 5254SOL     OW17658   1.969   9.248   1.789
 5254SOL    HW117659   1.890   9.194   1.787
 5254SOL    HW217660   1.940   9.333   1.757
 5255SOL     OW17661   4.519   8.573   9.001
 5255SOL    HW117662   4.468   8.572   9.082
 5255SOL    HW217663   4.497   8.491   8.958
 5256SOL     OW17664   3.976   9.814  13.353
 5256SOL    HW117665   3.988   9.748  13.284
 5256SOL    HW217666   4.065   9.839  13.378
 5257SOL     OW17667   1.505   3.011   6.786
 5257SOL    HW117668   1.565   3.084   6.772
 5257SOL    HW217669   1.422   3.041   6.749
 5258SOL     OW17670   0.890  11.818  12.964
 5258SOL    HW117671   0.948  11.891  12.983
 5258SOL    HW217672   0.887  11.766  13.044
 5259SOL     OW17673  14.294  12.986  11.560
 5259SOL    HW117674  14.311  12.940  11.478
 5259SOL    HW217675  14.321  13.076  11.543
 5260SOL     OW17676   3.836   5.681   5.283
 5260SOL    HW117677   3.779   5.733   5.225
 5260SOL    HW217678   3.874   5.615   5.225
 5261SOL     OW17679  14.346   7.578   5.787
 5261SOL    HW117680  14.428   7.621   5.762
 5261SOL    HW217681  14.284   7.604   5.719
 5262SOL     OW17682   2.965  12.068   2.305
 5262SOL    HW117683   3.018  12.128   2.358
 5262SOL    HW217684   2.894  12.042   2.363
 5263SOL     OW17685   2.203   3.627   4.851
 5263SOL    HW117686   2.216   3.546   4.802
 5263SOL    HW217687   2.118   3.659   4.822
 5264SOL     OW17688  12.562   7.786   7.282
 5264SOL    HW117689  12.526   7.753   7.364
 5264SOL    HW217690  12.657   7.777   7.291
 5265SOL     OW17691   1.737   0.600  11.473
 5265SOL    HW117692   1.789   0.520  11.460
 5265SOL    HW217693   1.658   0.586  11.421
 5266SOL     OW17694   9.401   4.726   5.641
 5266SOL    HW117695   9.422   4.798   5.701
 5266SOL    HW217696   9.337   4.673   5.690
 5267SOL     OW17697   0.180  12.982   4.163
 5267SOL    HW117698   0.264  13.021   4.188
 5267SOL    HW217699   0.125  13.057   4.142
 5268SOL     OW17700   4.596   9.573   0.621
 5268SOL    HW117701   4.506   9.606   0.618
 5268SOL    HW217702   4.595   9.507   0.690
 5269SOL     OW17703   3.721  10.356  13.177
 5269SOL    HW117704   3.795  10.352  13.117
 5269SOL    HW217705   3.760  10.367  13.264
 5270SOL     OW17706   4.823  14.260   6.495
 5270SOL    HW117707   4.832  14.283   6.403
 5270SOL    HW217708   4.909  14.280   6.533
 5271SOL     OW17709  13.195   3.384   3.377
 5271SOL    HW117710  13.285   3.355   3.393
 5271SOL    HW217711  13.200   3.432   3.295
 5272SOL     OW17712   0.846  14.165   6.495
 5272SOL    HW117713   0.774  14.146   6.436
 5272SOL    HW217714   0.921  14.118   6.457
 5273SOL     OW17715   1.169   5.337   8.314
 5273SOL    HW117716   1.125   5.255   8.294
 5273SOL    HW217717   1.261   5.313   8.328
 5274SOL     OW17718   6.378  12.105   9.548
 5274SOL    HW117719   6.338  12.044   9.486
 5274SOL    HW217720   6.304  12.152   9.586
 5275SOL     OW17721  12.945  14.603   6.294
 5275SOL    HW117722  12.858  14.612   6.256
 5275SOL    HW217723  13.005  14.630   6.224
 5276SOL     OW17724  12.196   1.432   9.927
 5276SOL    HW117725  12.275   1.381   9.910
 5276SOL    HW217726  12.165   1.459   9.840
 5277SOL     OW17727  12.475   5.535   7.735
 5277SOL    HW117728  12.380   5.535   7.728
 5277SOL    HW217729  12.496   5.454   7.782
 5278SOL     OW17730  14.119   7.558   7.754
 5278SOL    HW117731  14.204   7.598   7.733
 5278SOL    HW217732  14.059   7.596   7.690
 5279SOL     OW17733   1.850   7.353   7.993
 5279SOL    HW117734   1.870   7.405   8.071
 5279SOL    HW217735   1.803   7.412   7.936
 5280SOL     OW17736  12.073   0.167  11.989
 5280SOL    HW117737  12.112   0.083  12.013
 5280SOL    HW217738  12.066   0.215  12.072
 5281SOL     OW17739   2.575   1.538  11.572
 5281SOL    HW117740   2.554   1.619  11.526
 5281SOL    HW217741   2.643   1.497  11.518
 5282SOL     OW17742   7.603   3.085  11.317
 5282SOL    HW117743   7.555   3.165  11.297
 5282SOL    HW217744   7.689   3.115  11.347
 5283SOL     OW17745   9.766  10.801   3.018
 5283SOL    HW117746   9.759  10.793   2.923
 5283SOL    HW217747   9.780  10.711   3.049
 5284SOL     OW17748   6.128  11.206   3.183
 5284SOL    HW117749   6.200  11.203   3.120
 5284SOL    HW217750   6.125  11.296   3.213
 5285SOL     OW17751  10.642   0.020   7.609
 5285SOL    HW117752  10.653   0.092   7.671
 5285SOL    HW217753  10.669  14.820   7.659
 5286SOL     OW17754  11.279   8.888  10.719
 5286SOL    HW117755  11.303   8.808  10.767
 5286SOL    HW217756  11.313   8.959  10.773
 5287SOL     OW17757   8.222   5.719  12.627
 5287SOL    HW117758   8.143   5.767  12.653
 5287SOL    HW217759   8.264   5.697  12.710
 5288SOL     OW17760   5.932   6.511  10.322
 5288SOL    HW117761   6.026   6.513  10.340
 5288SOL    HW217762   5.916   6.589  10.268
 5289SOL     OW17763   6.483  10.573   7.680
 5289SOL    HW117764   6.516  10.575   7.769
 5289SOL    HW217765   6.551  10.615   7.628
 5290SOL     OW17766   8.828   2.148   9.001
 5290SOL    HW117767   8.771   2.224   9.017
 5290SOL    HW217768   8.906   2.185   8.960
 5291SOL     OW17769   1.703   7.211   7.300
 5291SOL    HW117770   1.730   7.125   7.267
 5291SOL    HW217771   1.612   7.219   7.274
 5292SOL     OW17772   0.522   6.257   0.806
 5292SOL    HW117773   0.591   6.191   0.802
 5292SOL    HW217774   0.528   6.293   0.894
 5293SOL     OW17775  13.263   2.908   4.192
 5293SOL    HW117776  13.181   2.859   4.193
 5293SOL    HW217777  13.273   2.936   4.101
 5294SOL     OW17778   2.457   0.080  13.556
 5294SOL    HW117779   2.509   0.159  13.568
 5294SOL    HW217780   2.504   0.030  13.489
 5295SOL     OW17781   1.280   6.425   1.790
 5295SOL    HW117782   1.294   6.331   1.806
 5295SOL    HW217783   1.368   6.464   1.798
 5296SOL     OW17784   7.984   7.075   8.748
 5296SOL    HW117785   7.942   6.989   8.746
 5296SOL    HW217786   8.011   7.086   8.839
 5297SOL     OW17787  11.365   8.390  11.106
 5297SOL    HW117788  11.447   8.361  11.145
 5297SOL    HW217789  11.301   8.324  11.133
 5298SOL     OW17790  14.758  14.210   0.183
 5298SOL    HW117791  14.734  14.292   0.140
 5298SOL    HW217792  14.843  14.187   0.145
 5299SOL     OW17793   6.379   8.291   5.100
 5299SOL    HW117794   6.471   8.295   5.075
 5299SOL    HW217795   6.355   8.382   5.119
 5300SOL     OW17796   5.544   2.065   2.966
 5300SOL    HW117797   5.491   2.143   2.985
 5300SOL    HW217798   5.500   1.995   3.014
 5301SOL     OW17799  14.231  11.618   7.045
 5301SOL    HW117800  14.180  11.631   6.965
 5301SOL    HW217801  14.290  11.693   7.049
 5302SOL     OW17802   0.131  14.648   6.487
 5302SOL    HW117803   0.168  14.601   6.413
 5302SOL    HW217804   0.161  14.600   6.564
 5303SOL     OW17805   4.954   1.417   9.147
 5303SOL    HW117806   4.901   1.394   9.071
 5303SOL    HW217807   4.926   1.358   9.216
 5304SOL     OW17808  10.657  11.369   9.420
 5304SOL    HW117809  10.648  11.459   9.451
 5304SOL    HW217810  10.688  11.320   9.496
 5305SOL     OW17811   8.958   8.403   7.741
 5305SOL    HW117812   8.888   8.456   7.778
 5305SOL    HW217813   8.934   8.313   7.760
 5306SOL     OW17814   8.991   9.544   1.982
 5306SOL    HW117815   8.943   9.462   1.973
 5306SOL    HW217816   8.992   9.581   1.893
 5307SOL     OW17817  14.537   1.819   1.714
 5307SOL    HW117818  14.572   1.852   1.797
 5307SOL    HW217819  14.445   1.847   1.714
 5308SOL     OW17820  14.264   7.287  13.155
 5308SOL    HW117821  14.356   7.308  13.142
 5308SOL    HW217822  14.220   7.317  13.075
 5309SOL     OW17823   7.269  12.318  14.298
 5309SOL    HW117824   7.273  12.257  14.371
 5309SOL    HW217825   7.208  12.386  14.328
 5310SOL     OW17826   7.396   9.589  13.163
 5310SOL    HW117827   7.472   9.531  13.162
 5310SOL    HW217828   7.361   9.582  13.251
 5311SOL     OW17829  14.314   2.256   8.337
 5311SOL    HW117830  14.362   2.337   8.321
 5311SOL    HW217831  14.357   2.216   8.412
 5312SOL     OW17832   8.118   9.452   4.053
 5312SOL    HW117833   8.070   9.369   4.042
 5312SOL    HW217834   8.142   9.453   4.145
 5313SOL     OW17835   7.441   8.027   1.202
 5313SOL    HW117836   7.451   7.936   1.174
 5313SOL    HW217837   7.518   8.072   1.168
 5314SOL     OW17838   8.510   5.984   6.726
 5314SOL    HW117839   8.507   5.889   6.724
 5314SOL    HW217840   8.454   6.011   6.654
 5315SOL     OW17841   3.156  14.584   7.321
 5315SOL    HW117842   3.145  14.536   7.239
 5315SOL    HW217843   3.102  14.537   7.384
 5316SOL     OW17844   0.268   4.822   9.690
 5316SOL    HW117845   0.238   4.845   9.778
 5316SOL    HW217846   0.246   4.898   9.636
 5317SOL     OW17847   2.678   5.048   7.000
 5317SOL    HW117848   2.669   4.965   6.954
 5317SOL    HW217849   2.770   5.072   6.988
 5318SOL     OW17850  13.974   6.271   2.515
 5318SOL    HW117851  14.013   6.268   2.602
 5318SOL    HW217852  13.904   6.205   2.517
 5319SOL     OW17853  12.161   4.291   3.088
 5319SOL    HW117854  12.248   4.280   3.128
 5319SOL    HW217855  12.099   4.274   3.159
 5320SOL     OW17856  10.998  11.687   6.409
 5320SOL    HW117857  11.070  11.682   6.472
 5320SOL    HW217858  11.013  11.614   6.349
 5321SOL     OW17859   1.795  13.102   2.521
 5321SOL    HW117860   1.876  13.050   2.529
 5321SOL    HW217861   1.734  13.062   2.582
 5322SOL     OW17862   7.954  11.967  10.314
 5322SOL    HW117863   7.969  11.878  10.283
 5322SOL    HW217864   7.877  11.961  10.370
 5323SOL     OW17865  12.966   2.452  13.736
 5323SOL    HW117866  13.043   2.492  13.776
 5323SOL    HW217867  12.912   2.425  13.810
 5324SOL     OW17868   8.080   0.561   4.571
 5324SOL    HW117869   8.060   0.649   4.602
 5324SOL    HW217870   8.099   0.572   4.478
 5325SOL     OW17871   7.735   2.615  14.289
 5325SOL    HW117872   7.669   2.602  14.221
 5325SOL    HW217873   7.692   2.589  14.370
 5326SOL     OW17874   1.182   5.871  10.129
 5326SOL    HW117875   1.168   5.778  10.150
 5326SOL    HW217876   1.242   5.869  10.054
 5327SOL     OW17877   8.168  10.818   1.927
 5327SOL    HW117878   8.154  10.740   1.981
 5327SOL    HW217879   8.204  10.883   1.988
 5328SOL     OW17880   0.174   2.714   1.025
 5328SOL    HW117881   0.127   2.664   0.959
 5328SOL    HW217882   0.259   2.733   0.984
 5329SOL     OW17883  13.893  14.753   5.258
 5329SOL    HW117884  13.952  14.774   5.330
 5329SOL    HW217885  13.827  14.696   5.296
 5330SOL     OW17886  13.077  12.251  14.471
 5330SOL    HW117887  12.993  12.289  14.495
 5330SOL    HW217888  13.140  12.291  14.530
 5331SOL     OW17889   6.379   4.498   1.683
 5331SOL    HW117890   6.474   4.501   1.677
 5331SOL    HW217891   6.348   4.554   1.611
 5332SOL     OW17892  14.001   8.294   3.366
 5332SOL    HW117893  13.996   8.278   3.460
 5332SOL    HW217894  13.953   8.221   3.326
 5333SOL     OW17895  13.241   3.365   5.473
 5333SOL    HW117896  13.270   3.367   5.564
 5333SOL    HW217897  13.148   3.342   5.478
 5334SOL     OW17898   1.377  10.277   4.351
 5334SOL    HW117899   1.292  10.275   4.307
 5334SOL    HW217900   1.369  10.348   4.415
 5335SOL     OW17901  11.674   7.077   1.582
 5335SOL    HW117902  11.579   7.069   1.576
 5335SOL    HW217903  11.688   7.167   1.612
 5336SOL     OW17904   2.830   6.296   7.510
 5336SOL    HW117905   2.780   6.326   7.586
 5336SOL    HW217906   2.907   6.252   7.546
 5337SOL     OW17907   0.197   2.906  11.972
 5337SOL    HW117908   0.273   2.850  11.987
 5337SOL    HW217909   0.122   2.849  11.986
 5338SOL     OW17910  11.454   6.733   3.248
 5338SOL    HW117911  11.395   6.774   3.312
 5338SOL    HW217912  11.421   6.762   3.163
 5339SOL     OW17913  11.220  14.043  10.389
 5339SOL    HW117914  11.173  13.973  10.435
 5339SOL    HW217915  11.165  14.062  10.313
 5340SOL     OW17916   0.111   4.053   6.373
 5340SOL    HW117917   0.031   4.023   6.417
 5340SOL    HW217918   0.092   4.042   6.280
 5341SOL     OW17919  10.055   7.311   0.131
 5341SOL    HW117920  10.003   7.384   0.097
 5341SOL    HW217921  10.145   7.335   0.112
 5342SOL     OW17922   1.288   7.633   9.428
 5342SOL    HW117923   1.376   7.666   9.448
 5342SOL    HW217924   1.233   7.666   9.498
 5343SOL     OW17925   0.167   9.671   1.302
 5343SOL    HW117926   0.229   9.616   1.349
 5343SOL    HW217927   0.177   9.758   1.342
 5344SOL     OW17928  13.230   5.389   8.983
 5344SOL    HW117929  13.150   5.433   8.955
 5344SOL    HW217930  13.202   5.326   9.049
 5345SOL     OW17931   8.776  10.769   4.387
 5345SOL    HW117932   8.786  10.790   4.480
 5345SOL    HW217933   8.695  10.719   4.383
 5346SOL     OW17934   9.602   5.827   5.850
 5346SOL    HW117935   9.661   5.751   5.847
 5346SOL    HW217936   9.585   5.848   5.758
 5347SOL     OW17937   5.722  13.083   2.184
 5347SOL    HW117938   5.635  13.107   2.151
 5347SOL    HW217939   5.708  12.998   2.226
 5348SOL     OW17940  13.695   3.129  13.101
 5348SOL    HW117941  13.768   3.191  13.103
 5348SOL    HW217942  13.714   3.072  13.027
 5349SOL     OW17943  13.342  13.630  11.429
 5349SOL    HW117944  13.379  13.717  11.439
 5349SOL    HW217945  13.417  13.571  11.438
 5350SOL     OW17946   5.256   1.847   4.131
 5350SOL    HW117947   5.253   1.863   4.037
 5350SOL    HW217948   5.176   1.887   4.165
 5351SOL     OW17949   0.579   5.615   7.739
 5351SOL    HW117950   0.525   5.536   7.728
 5351SOL    HW217951   0.573   5.635   7.832
 5352SOL     OW17952   6.727  11.560  13.479
 5352SOL    HW117953   6.647  11.568  13.428
 5352SOL    HW217954   6.796  11.550  13.414
 5353SOL     OW17955  10.645   1.972   0.867
 5353SOL    HW117956  10.590   1.906   0.825
 5353SOL    HW217957  10.735   1.948   0.842
 5354SOL     OW17958   3.815  12.989   4.194
 5354SOL    HW117959   3.880  12.972   4.262
 5354SOL    HW217960   3.757  12.913   4.197
 5355SOL     OW17961   1.968   1.775   7.282
 5355SOL    HW117962   1.894   1.831   7.258
 5355SOL    HW217963   1.979   1.717   7.207
 5356SOL     OW17964   6.599   5.117  11.725
 5356SOL    HW117965   6.559   5.068  11.797
 5356SOL    HW217966   6.671   5.165  11.766
 5357SOL     OW17967  10.375  10.900  13.763
 5357SOL    HW117968  10.377  10.895  13.859
 5357SOL    HW217969  10.282  10.904  13.741
 5358SOL     OW17970  13.468   4.714   6.700
 5358SOL    HW117971  13.400   4.723   6.768
 5358SOL    HW217972  13.519   4.638   6.727
 5359SOL     OW17973   4.422   1.894   5.362
 5359SOL    HW117974   4.465   1.865   5.442
 5359SOL    HW217975   4.413   1.988   5.372
 5360SOL     OW17976   7.387   9.535  10.572
 5360SOL    HW117977   7.464   9.505  10.619
 5360SOL    HW217978   7.317   9.476  10.600
 5361SOL     OW17979  11.683  13.820   7.786
 5361SOL    HW117980  11.643  13.734   7.780
 5361SOL    HW217981  11.610  13.881   7.792
 5362SOL     OW17982   8.824  10.556   7.687
 5362SOL    HW117983   8.860  10.546   7.775
 5362SOL    HW217984   8.861  10.639   7.656
 5363SOL     OW17985   1.063   8.795  11.076
 5363SOL    HW117986   0.972   8.773  11.096
 5363SOL    HW217987   1.058   8.884  11.040
 5364SOL     OW17988   7.376  13.263  10.560
 5364SOL    HW117989   7.360  13.182  10.512
 5364SOL    HW217990   7.472  13.268  10.568
 5365SOL     OW17991  11.723   3.951   1.502
 5365SOL    HW117992  11.656   4.002   1.456
 5365SOL    HW217993  11.676   3.877   1.540
 5366SOL     OW17994   8.004   9.578   7.344
 5366SOL    HW117995   8.079   9.554   7.398
 5366SOL    HW217996   7.934   9.596   7.408
 5367SOL     OW17997   5.698   7.614   3.178
 5367SOL    HW117998   5.790   7.636   3.158
 5367SOL    HW217999   5.668   7.566   3.100
 5368SOL     OW18000   4.993  13.492   8.685
 5368SOL    HW118001   4.993  13.556   8.614
 5368SOL    HW218002   4.906  13.451   8.681
 5369SOL     OW18003   7.915   2.225   3.730
 5369SOL    HW118004   7.948   2.211   3.819
 5369SOL    HW218005   7.992   2.215   3.674
 5370SOL     OW18006   3.400   3.350   9.011
 5370SOL    HW118007   3.471   3.289   8.995
 5370SOL    HW218008   3.375   3.335   9.102
 5371SOL     OW18009   2.308   7.864   8.441
 5371SOL    HW118010   2.292   7.851   8.348
 5371SOL    HW218011   2.359   7.788   8.468
 5372SOL     OW18012   9.562   7.161  14.397
 5372SOL    HW118013   9.584   7.233  14.337
 5372SOL    HW218014   9.531   7.205  14.476
 5373SOL     OW18015   0.997  13.891  10.055
 5373SOL    HW118016   0.919  13.929  10.096
 5373SOL    HW218017   1.067  13.954  10.073
 5374SOL     OW18018   5.947   2.607   9.837
 5374SOL    HW118019   5.985   2.529   9.878
 5374SOL    HW218020   5.860   2.614   9.876
 5375SOL     OW18021   2.157  13.653   2.322
 5375SOL    HW118022   2.249  13.679   2.328
 5375SOL    HW218023   2.147  13.583   2.387
 5376SOL     OW18024  14.589   9.535   1.814
 5376SOL    HW118025  14.561   9.505   1.901
 5376SOL    HW218026  14.643   9.464   1.780
 5377SOL     OW18027   2.760   4.995   8.524
 5377SOL    HW118028   2.781   4.920   8.580
 5377SOL    HW218029   2.829   5.058   8.543
 5378SOL     OW18030   1.728   7.895   3.067
 5378SOL    HW118031   1.766   7.926   3.149
 5378SOL    HW218032   1.683   7.814   3.089
 5379SOL     OW18033   1.801   5.753   9.557
 5379SOL    HW118034   1.819   5.813   9.484
 5379SOL    HW218035   1.706   5.752   9.564
 5380SOL     OW18036  12.035  12.024  13.952
 5380SOL    HW118037  12.081  12.094  13.905
 5380SOL    HW218038  11.950  12.062  13.974
 5381SOL     OW18039   1.186   0.920   3.810
 5381SOL    HW118040   1.138   0.901   3.729
 5381SOL    HW218041   1.147   0.862   3.875
 5382SOL     OW18042   1.233   4.783   6.399
 5382SOL    HW118043   1.271   4.870   6.389
 5382SOL    HW218044   1.286   4.727   6.342
 5383SOL     OW18045  12.801   3.038   3.366
 5383SOL    HW118046  12.756   2.954   3.357
 5383SOL    HW218047  12.812   3.068   3.276
 5384SOL     OW18048  12.819  12.474  11.310
 5384SOL    HW118049  12.786  12.564  11.305
 5384SOL    HW218050  12.761  12.424  11.253
 5385SOL     OW18051   0.284   2.133  14.464
 5385SOL    HW118052   0.192   2.140  14.490
 5385SOL    HW218053   0.284   2.148  14.370
 5386SOL     OW18054   2.362  14.119   0.762
 5386SOL    HW118055   2.403  14.069   0.833
 5386SOL    HW218056   2.433  14.137   0.701
 5387SOL     OW18057   3.909   3.429   5.587
 5387SOL    HW118058   3.955   3.512   5.574
 5387SOL    HW218059   3.817   3.453   5.597
 5388SOL     OW18060   0.459   5.767   2.114
 5388SOL    HW118061   0.531   5.803   2.061
 5388SOL    HW218062   0.382   5.773   2.057
 5389SOL     OW18063  14.442   5.560   8.052
 5389SOL    HW118064  14.470   5.590   7.965
 5389SOL    HW218065  14.494   5.611   8.113
 5390SOL     OW18066   7.118   6.070   4.809
 5390SOL    HW118067   7.205   6.105   4.828
 5390SOL    HW218068   7.118   6.055   4.714
 5391SOL     OW18069   4.489  14.298   0.532
 5391SOL    HW118070   4.518  14.293   0.440
 5391SOL    HW218071   4.477  14.206   0.558
 5392SOL     OW18072  10.780   5.299  13.844
 5392SOL    HW118073  10.779   5.395  13.843
 5392SOL    HW218074  10.691   5.274  13.818
 5393SOL     OW18075   8.094  10.319   8.422
 5393SOL    HW118076   8.155  10.389   8.400
 5393SOL    HW218077   8.042  10.307   8.342
 5394SOL     OW18078   4.155   2.147  12.303
 5394SOL    HW118079   4.206   2.089  12.246
 5394SOL    HW218080   4.217   2.216  12.328
 5395SOL     OW18081   3.316  11.169   7.838
 5395SOL    HW118082   3.276  11.237   7.783
 5395SOL    HW218083   3.405  11.200   7.855
 5396SOL     OW18084  13.113   9.978   3.838
 5396SOL    HW118085  13.145  10.048   3.897
 5396SOL    HW218086  13.018   9.985   3.842
 5397SOL     OW18087   1.254   7.203  13.103
 5397SOL    HW118088   1.238   7.109  13.107
 5397SOL    HW218089   1.175   7.243  13.139
 5398SOL     OW18090  11.765  13.008   5.211
 5398SOL    HW118091  11.759  13.103   5.226
 5398SOL    HW218092  11.685  12.986   5.164
 5399SOL     OW18093   9.546   0.330   1.831
 5399SOL    HW118094   9.628   0.290   1.859
 5399SOL    HW218095   9.485   0.257   1.823
 5400SOL     OW18096   9.829   3.896   4.192
 5400SOL    HW118097   9.801   3.808   4.166
 5400SOL    HW218098   9.854   3.886   4.284
 5401SOL     OW18099   2.456  11.383   2.725
 5401SOL    HW118100   2.525  11.329   2.687
 5401SOL    HW218101   2.481  11.393   2.817
 5402SOL     OW18102   8.268   8.269   2.666
 5402SOL    HW118103   8.259   8.174   2.660
 5402SOL    HW218104   8.198   8.297   2.725
 5403SOL     OW18105   5.845   3.227  13.264
 5403SOL    HW118106   5.844   3.315  13.225
 5403SOL    HW218107   5.936   3.199  13.255
 5404SOL     OW18108   4.583  11.913   0.829
 5404SOL    HW118109   4.674  11.906   0.855
 5404SOL    HW218110   4.534  11.910   0.911
 5405SOL     OW18111  11.219  12.633   9.136
 5405SOL    HW118112  11.267  12.716   9.139
 5405SOL    HW218113  11.165  12.639   9.058
 5406SOL     OW18114  11.826   3.445  12.403
 5406SOL    HW118115  11.845   3.538  12.393
 5406SOL    HW218116  11.745   3.442  12.454
 5407SOL     OW18117   7.073   4.976  11.256
 5407SOL    HW118118   7.030   4.981  11.341
 5407SOL    HW218119   7.121   4.893  11.257
 5408SOL     OW18120   4.330  13.147  11.752
 5408SOL    HW118121   4.283  13.157  11.669
 5408SOL    HW218122   4.304  13.061  11.784
 5409SOL     OW18123   8.890   1.311  11.868
 5409SOL    HW118124   8.931   1.393  11.896
 5409SOL    HW218125   8.832   1.286  11.940
 5410SOL     OW18126  12.321   5.755  13.118
 5410SOL    HW118127  12.317   5.726  13.210
 5410SOL    HW218128  12.269   5.835  13.116
 5411SOL     OW18129   9.808  10.850  10.198
 5411SOL    HW118130   9.720  10.888  10.199
 5411SOL    HW218131   9.866  10.926  10.199
 5412SOL     OW18132   8.345  10.372  11.018
 5412SOL    HW118133   8.412  10.369  10.950
 5412SOL    HW218134   8.392  10.349  11.099
 5413SOL     OW18135  13.645   9.153   8.501
 5413SOL    HW118136  13.650   9.148   8.406
 5413SOL    HW218137  13.603   9.237   8.518
 5414SOL     OW18138  10.606   8.696   6.354
 5414SOL    HW118139  10.547   8.675   6.426
 5414SOL    HW218140  10.674   8.628   6.359
 5415SOL     OW18141   5.894  13.213  11.590
 5415SOL    HW118142   5.987  13.213  11.613
 5415SOL    HW218143   5.852  13.257  11.664
 5416SOL     OW18144  10.483   8.381   0.345
 5416SOL    HW118145  10.542   8.317   0.306
 5416SOL    HW218146  10.405   8.331   0.370
 5417SOL     OW18147   2.788  14.220  11.011
 5417SOL    HW118148   2.844  14.249  10.938
 5417SOL    HW218149   2.836  14.147  11.051
 5418SOL     OW18150  11.283  13.012   4.830
 5418SOL    HW118151  11.197  13.041   4.799
 5418SOL    HW218152  11.337  13.007   4.751
 5419SOL     OW18153   0.344   8.079   0.768
 5419SOL    HW118154   0.367   7.992   0.801
 5419SOL    HW218155   0.300   8.121   0.842
 5420SOL     OW18156   7.734   2.973  11.528
 5420SOL    HW118157   7.754   3.051  11.579
 5420SOL    HW218158   7.658   2.997  11.475
 5421SOL     OW18159   9.175  14.553   0.979
 5421SOL    HW118160   9.219  14.473   0.949
 5421SOL    HW218161   9.246  14.617   0.989
 5422SOL     OW18162  10.550  13.669   7.586
 5422SOL    HW118163  10.517  13.662   7.675
 5422SOL    HW218164  10.588  13.583   7.568
 5423SOL     OW18165   8.226   3.406   1.766
 5423SOL    HW118166   8.141   3.373   1.737
 5423SOL    HW218167   8.218   3.414   1.861
 5424SOL     OW18168  12.961   9.190   8.652
 5424SOL    HW118169  13.023   9.203   8.580
 5424SOL    HW218170  12.882   9.156   8.609
 5425SOL     OW18171   6.485   6.315   4.256
 5425SOL    HW118172   6.457   6.249   4.192
 5425SOL    HW218173   6.561   6.356   4.216
 5426SOL     OW18174   0.305   1.526  13.578
 5426SOL    HW118175   0.286   1.459  13.644
 5426SOL    HW218176   0.266   1.606  13.613
 5427SOL     OW18177   7.757   0.516  13.972
 5427SOL    HW118178   7.728   0.600  13.935
 5427SOL    HW218179   7.826   0.487  13.912
 5428SOL     OW18180   3.643   9.551   5.053
 5428SOL    HW118181   3.661   9.542   4.960
 5428SOL    HW218182   3.634   9.461   5.085
 5429SOL     OW18183   9.903   3.303  14.778
 5429SOL    HW118184   9.839   3.297  14.848
 5429SOL    HW218185   9.853   3.334  14.702
 5430SOL     OW18186   0.403   5.057   1.575
 5430SOL    HW118187   0.403   5.065   1.480
 5430SOL    HW218188   0.483   5.101   1.603
 5431SOL     OW18189   3.077   5.532   7.354
 5431SOL    HW118190   3.082   5.436   7.361
 5431SOL    HW218191   3.034   5.547   7.269
 5432SOL     OW18192   1.856  14.394  13.588
 5432SOL    HW118193   1.806  14.373  13.509
 5432SOL    HW218194   1.947  14.399  13.558
 5433SOL     OW18195   6.419   4.629  12.037
 5433SOL    HW118196   6.504   4.608  11.998
 5433SOL    HW218197   6.440   4.657  12.126
 5434SOL     OW18198  11.877  13.311   9.714
 5434SOL    HW118199  11.789  13.296   9.679
 5434SOL    HW218200  11.867  13.302   9.809
 5435SOL     OW18201   3.609   9.103  14.556
 5435SOL    HW118202   3.567   9.116  14.471
 5435SOL    HW218203   3.696   9.069  14.534
 5436SOL     OW18204  13.475  13.487  10.891
 5436SOL    HW118205  13.394  13.469  10.844
 5436SOL    HW218206  13.469  13.435  10.971
 5437SOL     OW18207   5.751   5.815  10.393
 5437SOL    HW118208   5.747   5.904  10.427
 5437SOL    HW218209   5.810   5.820  10.318
 5438SOL     OW18210   2.695  13.129  11.016
 5438SOL    HW118211   2.771  13.118  11.073
 5438SOL    HW218212   2.641  13.195  11.060
 5439SOL     OW18213   0.411   9.597   3.828
 5439SOL    HW118214   0.485   9.552   3.786
 5439SOL    HW218215   0.398   9.550   3.911
 5440SOL     OW18216   0.747   4.865  12.035
 5440SOL    HW118217   0.657   4.878  12.062
 5440SOL    HW218218   0.784   4.953  12.029
 5441SOL     OW18219   2.157   6.083   0.847
 5441SOL    HW118220   2.221   6.031   0.895
 5441SOL    HW218221   2.210   6.143   0.794
 5442SOL     OW18222   3.520   1.985  11.614
 5442SOL    HW118223   3.521   2.044  11.689
 5442SOL    HW218224   3.499   1.899  11.650
 5443SOL     OW18225  11.625   4.191   7.319
 5443SOL    HW118226  11.697   4.250   7.341
 5443SOL    HW218227  11.546   4.244   7.329
 5444SOL     OW18228   5.489   4.673  10.425
 5444SOL    HW118229   5.579   4.681  10.393
 5444SOL    HW218230   5.448   4.610  10.366
 5445SOL     OW18231  12.937   6.527   8.274
 5445SOL    HW118232  12.940   6.436   8.304
 5445SOL    HW218233  12.962   6.523   8.182
 5446SOL     OW18234  14.585  13.248   9.643
 5446SOL    HW118235  14.635  13.320   9.606
 5446SOL    HW218236  14.506  13.244   9.589
 5447SOL     OW18237   8.629   8.639   4.888
 5447SOL    HW118238   8.534   8.642   4.883
 5447SOL    HW218239   8.648   8.591   4.969
 5448SOL     OW18240   8.825   5.594   5.143
 5448SOL    HW118241   8.853   5.566   5.230
 5448SOL    HW218242   8.740   5.553   5.131
 5449SOL     OW18243   8.439  13.880  10.696
 5449SOL    HW118244   8.360  13.906  10.649
 5449SOL    HW218245   8.439  13.933  10.776
 5450SOL     OW18246   5.376   2.200   7.059
 5450SOL    HW118247   5.356   2.287   7.024
 5450SOL    HW218248   5.451   2.171   7.007
 5451SOL     OW18249  14.399   6.542   9.414
 5451SOL    HW118250  14.395   6.622   9.362
 5451SOL    HW218251  14.318   6.541   9.464
 5452SOL     OW18252   4.107  12.653  11.384
 5452SOL    HW118253   4.055  12.576  11.409
 5452SOL    HW218254   4.161  12.670  11.460
 5453SOL     OW18255  12.183   1.245   3.588
 5453SOL    HW118256  12.105   1.239   3.532
 5453SOL    HW218257  12.150   1.232   3.677
 5454SOL     OW18258  12.828   7.714   7.339
 5454SOL    HW118259  12.880   7.700   7.419
 5454SOL    HW218260  12.886   7.764   7.281
 5455SOL     OW18261   2.529  13.657   7.357
 5455SOL    HW118262   2.597  13.662   7.289
 5455SOL    HW218263   2.449  13.686   7.312
 5456SOL     OW18264   2.324   2.435   0.130
 5456SOL    HW118265   2.306   2.527   0.150
 5456SOL    HW218266   2.241   2.401   0.096
 5457SOL     OW18267   3.134   9.560   5.768
 5457SOL    HW118268   3.114   9.502   5.695
 5457SOL    HW218269   3.074   9.533   5.838
 5458SOL     OW18270   8.856  12.587   5.091
 5458SOL    HW118271   8.943  12.548   5.098
 5458SOL    HW218272   8.835  12.617   5.179
 5459SOL     OW18273  10.682   4.006   0.965
 5459SOL    HW118274  10.602   3.955   0.956
 5459SOL    HW218275  10.704   4.033   0.876
 5460SOL     OW18276   9.936  10.138   8.849
 5460SOL    HW118277   9.929  10.186   8.931
 5460SOL    HW218278   9.881  10.187   8.788
 5461SOL     OW18279  13.462  12.349   7.590
 5461SOL    HW118280  13.380  12.397   7.603
 5461SOL    HW218281  13.476  12.303   7.673
 5462SOL     OW18282   3.310  11.394  13.777
 5462SOL    HW118283   3.235  11.344  13.811
 5462SOL    HW218284   3.335  11.348  13.697
 5463SOL     OW18285   3.256   8.086  12.831
 5463SOL    HW118286   3.279   8.076  12.739
 5463SOL    HW218287   3.218   8.002  12.857
 5464SOL     OW18288   5.538  11.384   0.191
 5464SOL    HW118289   5.571  11.456   0.138
 5464SOL    HW218290   5.612  11.358   0.246
 5465SOL     OW18291   3.615  14.269  14.727
 5465SOL    HW118292   3.698  14.297  14.688
 5465SOL    HW218293   3.548  14.313  14.675
 5466SOL     OW18294   7.439   8.289  12.479
 5466SOL    HW118295   7.411   8.205  12.443
 5466SOL    HW218296   7.520   8.270  12.525
 5467SOL     OW18297  11.961   9.375  13.167
 5467SOL    HW118298  12.041   9.421  13.144
 5467SOL    HW218299  11.973   9.286  13.132
 5468SOL     OW18300   2.327   1.204  12.799
 5468SOL    HW118301   2.312   1.291  12.764
 5468SOL    HW218302   2.355   1.152  12.724
 5469SOL     OW18303  14.822  14.113  10.650
 5469SOL    HW118304  14.792  14.203  10.641
 5469SOL    HW218305  14.743  14.062  10.668
 5470SOL     OW18306   2.389  14.649   5.929
 5470SOL    HW118307   2.437  14.714   5.878
 5470SOL    HW218308   2.450  14.620   5.996
 5471SOL     OW18309   8.419   0.287   7.091
 5471SOL    HW118310   8.404   0.346   7.016
 5471SOL    HW218311   8.449   0.345   7.161
 5472SOL     OW18312   7.399   1.446   1.795
 5472SOL    HW118313   7.479   1.483   1.758
 5472SOL    HW218314   7.371   1.380   1.731
 5473SOL     OW18315  11.016   4.517  11.804
 5473SOL    HW118316  11.039   4.610  11.803
 5473SOL    HW218317  10.921   4.516  11.787
 5474SOL     OW18318   3.984   1.044   4.684
 5474SOL    HW118319   3.932   1.015   4.609
 5474SOL    HW218320   3.982   1.140   4.679
 5475SOL     OW18321   3.813  13.817   4.964
 5475SOL    HW118322   3.908  13.827   4.978
 5475SOL    HW218323   3.801  13.722   4.955
 5476SOL     OW18324   8.583   8.814   6.107
 5476SOL    HW118325   8.511   8.858   6.062
 5476SOL    HW218326   8.634   8.775   6.037
 5477SOL     OW18327   7.817  12.045  14.613
 5477SOL    HW118328   7.761  12.069  14.686
 5477SOL    HW218329   7.792  12.106  14.543
 5478SOL     OW18330   5.634   4.032  13.119
 5478SOL    HW118331   5.624   4.089  13.195
 5478SOL    HW218332   5.605   4.085  13.045
 5479SOL     OW18333   0.342   1.718   9.801
 5479SOL    HW118334   0.361   1.691   9.711
 5479SOL    HW218335   0.421   1.764   9.830
 5480SOL     OW18336  10.894   9.264   5.529
 5480SOL    HW118337  10.959   9.195   5.545
 5480SOL    HW218338  10.941   9.331   5.481
 5481SOL     OW18339   2.921   6.928  12.741
 5481SOL    HW118340   2.988   6.865  12.713
 5481SOL    HW218341   2.956   6.964  12.823
 5482SOL     OW18342  14.474   7.879   7.088
 5482SOL    HW118343  14.520   7.962   7.101
 5482SOL    HW218344  14.531   7.829   7.030
 5483SOL     OW18345   4.859  13.925  11.179
 5483SOL    HW118346   4.820  13.933  11.092
 5483SOL    HW218347   4.786  13.941  11.239
 5484SOL     OW18348   4.225   2.751   6.386
 5484SOL    HW118349   4.177   2.831   6.364
 5484SOL    HW218350   4.160   2.694   6.427
 5485SOL     OW18351  10.875   8.330  10.063
 5485SOL    HW118352  10.801   8.309  10.121
 5485SOL    HW218353  10.935   8.257  10.074
 5486SOL     OW18354   1.576   5.269   4.555
 5486SOL    HW118355   1.576   5.303   4.466
 5486SOL    HW218356   1.622   5.185   4.549
 5487SOL     OW18357   9.055  10.789   8.127
 5487SOL    HW118358   9.102  10.873   8.120
 5487SOL    HW218359   8.978  10.809   8.180
 5488SOL     OW18360   1.913  13.744   8.648
 5488SOL    HW118361   1.876  13.731   8.735
 5488SOL    HW218362   1.868  13.820   8.612
 5489SOL     OW18363   4.530   1.830   9.740
 5489SOL    HW118364   4.454   1.857   9.792
 5489SOL    HW218365   4.526   1.884   9.661
 5490SOL     OW18366   1.898   4.869   2.837
 5490SOL    HW118367   1.969   4.922   2.874
 5490SOL    HW218368   1.931   4.842   2.751
 5491SOL     OW18369   1.039   8.324  13.131
 5491SOL    HW118370   1.066   8.243  13.087
 5491SOL    HW218371   0.981   8.367  13.068
 5492SOL     OW18372   2.337  12.144  10.525
 5492SOL    HW118373   2.269  12.193  10.478
 5492SOL    HW218374   2.326  12.054  10.496
 5493SOL     OW18375  11.855   6.946   8.232
 5493SOL    HW118376  11.798   7.004   8.282
 5493SOL    HW218377  11.915   6.908   8.296
 5494SOL     OW18378   2.496   0.789   5.816
 5494SOL    HW118379   2.490   0.705   5.860
 5494SOL    HW218380   2.554   0.841   5.872
 5495SOL     OW18381  13.482  14.752  13.397
 5495SOL    HW118382  13.425  14.747  13.474
 5495SOL    HW218383  13.422  14.773  13.325
 5496SOL     OW18384  14.343   5.474   3.183
 5496SOL    HW118385  14.369   5.554   3.137
 5496SOL    HW218386  14.424   5.442   3.222
 5497SOL     OW18387   9.206   8.400   5.638
 5497SOL    HW118388   9.117   8.371   5.661
 5497SOL    HW218389   9.262   8.327   5.664
 5498SOL     OW18390   9.214   5.292   0.709
 5498SOL    HW118391   9.205   5.377   0.751
 5498SOL    HW218392   9.286   5.303   0.647
 5499SOL     OW18393   5.255   0.462  12.868
 5499SOL    HW118394   5.196   0.460  12.792
 5499SOL    HW218395   5.202   0.427  12.940
 5500SOL     OW18396   2.766  12.809  13.333
 5500SOL    HW118397   2.679  12.786  13.365
 5500SOL    HW218398   2.826  12.756  13.386
 5501SOL     OW18399   1.100   3.591   2.575
 5501SOL    HW118400   1.173   3.597   2.513
 5501SOL    HW218401   1.079   3.498   2.579
 5502SOL     OW18402  11.304  11.887  12.185
 5502SOL    HW118403  11.236  11.820  12.177
 5502SOL    HW218404  11.322  11.913  12.095
 5503SOL     OW18405  11.101   5.072   5.797
 5503SOL    HW118406  11.103   5.129   5.721
 5503SOL    HW218407  11.089   5.131   5.871
 5504SOL     OW18408   5.488  13.278  14.045
 5504SOL    HW118409   5.445  13.247  14.124
 5504SOL    HW218410   5.558  13.335  14.077
 5505SOL     OW18411   5.019   0.698   6.406
 5505SOL    HW118412   5.000   0.622   6.351
 5505SOL    HW218413   5.088   0.667   6.466
 5506SOL     OW18414  11.459  13.079   7.372
 5506SOL    HW118415  11.446  13.138   7.299
 5506SOL    HW218416  11.487  12.996   7.332
 5507SOL     OW18417   1.102  13.570  12.255
 5507SOL    HW118418   1.196  13.552  12.256
 5507SOL    HW218419   1.062  13.483  12.257
 5508SOL     OW18420  13.731  11.897   1.338
 5508SOL    HW118421  13.685  11.974   1.305
 5508SOL    HW218422  13.809  11.890   1.282
 5509SOL     OW18423  11.441   2.480   4.563
 5509SOL    HW118424  11.510   2.546   4.564
 5509SOL    HW218425  11.443   2.444   4.474
 5510SOL     OW18426  10.912   6.300   6.024
 5510SOL    HW118427  10.918   6.294   6.120
 5510SOL    HW218428  10.860   6.224   5.998
 5511SOL     OW18429   7.533   6.745  13.037
 5511SOL    HW118430   7.475   6.777  13.106
 5511SOL    HW218431   7.619   6.780  13.060
 5512SOL     OW18432   7.378   1.411   6.892
 5512SOL    HW118433   7.291   1.444   6.916
 5512SOL    HW218434   7.425   1.406   6.976
 5513SOL     OW18435  13.424  14.308  13.317
 5513SOL    HW118436  13.329  14.304  13.327
 5513SOL    HW218437  13.437  14.337  13.226
 5514SOL     OW18438   6.184  14.740  14.562
 5514SOL    HW118439   6.116  14.704  14.505
 5514SOL    HW218440   6.253  14.768  14.502
 5515SOL     OW18441   8.307   2.539  11.347
 5515SOL    HW118442   8.399   2.531  11.322
 5515SOL    HW218443   8.308   2.533  11.442
 5516SOL     OW18444  14.211  13.464   8.466
 5516SOL    HW118445  14.218  13.551   8.429
 5516SOL    HW218446  14.275  13.412   8.418
 5517SOL     OW18447   5.139  12.096  14.192
 5517SOL    HW118448   5.209  12.088  14.127
 5517SOL    HW218449   5.107  12.006  14.203
 5518SOL     OW18450  12.143   5.715  12.473
 5518SOL    HW118451  12.219   5.770  12.460
 5518SOL    HW218452  12.089   5.761  12.537
 5519SOL     OW18453   9.262   5.593   4.183
 5519SOL    HW118454   9.194   5.573   4.246
 5519SOL    HW218455   9.271   5.688   4.186
 5520SOL     OW18456  14.858  11.670   0.010
 5520SOL    HW118457  14.814  11.620  14.818
 5520SOL    HW218458   0.061  11.621   0.027
 5521SOL     OW18459   4.984   3.705   6.585
 5521SOL    HW118460   5.012   3.755   6.508
 5521SOL    HW218461   4.889   3.702   6.579
 5522SOL     OW18462   1.579   9.594   2.173
 5522SOL    HW118463   1.547   9.514   2.215
 5522SOL    HW218464   1.501   9.648   2.164
 5523SOL     OW18465  12.915   2.832   9.769
 5523SOL    HW118466  12.943   2.744   9.793
 5523SOL    HW218467  12.905   2.829   9.674
 5524SOL     OW18468   5.176   3.857   1.318
 5524SOL    HW118469   5.208   3.946   1.332
 5524SOL    HW218470   5.240   3.818   1.259
 5525SOL     OW18471   2.522  11.008  11.099
 5525SOL    HW118472   2.534  10.921  11.060
 5525SOL    HW218473   2.454  11.049  11.046
 5526SOL     OW18474  14.601   2.843  11.464
 5526SOL    HW118475  14.590   2.819  11.556
 5526SOL    HW218476  14.530   2.797  11.419
 5527SOL     OW18477   0.756   1.427   7.335
 5527SOL    HW118478   0.809   1.502   7.363
 5527SOL    HW218479   0.768   1.363   7.406
 5528SOL     OW18480   9.599  13.926   1.748
 5528SOL    HW118481   9.531  13.959   1.690
 5528SOL    HW218482   9.669  13.991   1.742
 5529SOL     OW18483  12.539  13.952   9.048
 5529SOL    HW118484  12.512  13.860   9.050
 5529SOL    HW218485  12.632  13.950   9.025
 5530SOL     OW18486  12.468   3.172   8.191
 5530SOL    HW118487  12.418   3.193   8.113
 5530SOL    HW218488  12.508   3.087   8.172
 5531SOL     OW18489   3.824  11.450  10.440
 5531SOL    HW118490   3.748  11.399  10.468
 5531SOL    HW218491   3.847  11.414  10.354
 5532SOL     OW18492  11.736  14.409  10.877
 5532SOL    HW118493  11.804  14.469  10.910
 5532SOL    HW218494  11.770  14.378  10.793
 5533SOL     OW18495  10.192   8.219   2.569
 5533SOL    HW118496  10.139   8.228   2.649
 5533SOL    HW218497  10.138   8.258   2.500
 5534SOL     OW18498   5.353   0.550   7.772
 5534SOL    HW118499   5.309   0.598   7.842
 5534SOL    HW218500   5.321   0.590   7.691
 5535SOL     OW18501   2.766  13.819   9.388
 5535SOL    HW118502   2.815  13.748   9.346
 5535SOL    HW218503   2.752  13.883   9.317
 5536SOL     OW18504   0.733   0.414   7.590
 5536SOL    HW118505   0.757   0.429   7.498
 5536SOL    HW218506   0.768   0.489   7.637
 5537SOL     OW18507  12.890  14.444   9.087
 5537SOL    HW118508  12.881  14.356   9.050
 5537SOL    HW218509  12.808  14.460   9.133
 5538SOL     OW18510   0.734  13.903   0.580
 5538SOL    HW118511   0.771  13.883   0.667
 5538SOL    HW218512   0.810  13.930   0.528
 5539SOL     OW18513  13.475   6.915  10.614
 5539SOL    HW118514  13.528   6.848  10.657
 5539SOL    HW218515  13.416   6.947  10.682
 5540SOL     OW18516   1.945   6.782  10.075
 5540SOL    HW118517   2.024   6.732  10.093
 5540SOL    HW218518   1.888   6.721  10.028
 5541SOL     OW18519   9.027   3.175  12.134
 5541SOL    HW118520   9.020   3.088  12.093
 5541SOL    HW218521   9.019   3.237  12.061
 5542SOL     OW18522   3.771   8.432  12.386
 5542SOL    HW118523   3.850   8.390  12.422
 5542SOL    HW218524   3.716   8.450  12.462
 5543SOL     OW18525   7.279   7.254   6.441
 5543SOL    HW118526   7.306   7.231   6.352
 5543SOL    HW218527   7.214   7.323   6.430
 5544SOL     OW18528  12.516   8.058  10.460
 5544SOL    HW118529  12.543   7.967  10.474
 5544SOL    HW218530  12.573   8.108  10.518
 5545SOL     OW18531   2.213   4.302   3.464
 5545SOL    HW118532   2.304   4.330   3.456
 5545SOL    HW218533   2.218   4.211   3.492
 5546SOL     OW18534  14.876  12.894   3.325
 5546SOL    HW118535  14.836  12.808   3.335
 5546SOL    HW218536   0.070  12.881   3.263
 5547SOL     OW18537  11.236   1.729   2.176
 5547SOL    HW118538  11.248   1.649   2.227
 5547SOL    HW218539  11.267   1.706   2.089
 5548SOL     OW18540  11.518   5.444  13.080
 5548SOL    HW118541  11.534   5.483  13.166
 5548SOL    HW218542  11.517   5.519  13.020
 5549SOL     OW18543   6.506  11.459  12.982
 5549SOL    HW118544   6.532  11.532  13.038
 5549SOL    HW218545   6.410  11.460  12.984
 5550SOL     OW18546  12.887  12.734  12.393
 5550SOL    HW118547  12.938  12.747  12.473
 5550SOL    HW218548  12.802  12.773  12.413
 5551SOL     OW18549  10.962  10.278  10.949
 5551SOL    HW118550  10.953  10.249  10.859
 5551SOL    HW218551  10.880  10.323  10.969
 5552SOL     OW18552   4.578   2.453   8.256
 5552SOL    HW118553   4.658   2.427   8.210
 5552SOL    HW218554   4.606   2.526   8.311
 5553SOL     OW18555  10.249   8.807   1.225
 5553SOL    HW118556  10.304   8.754   1.282
 5553SOL    HW218557  10.192   8.744   1.181
 5554SOL     OW18558  13.740  10.939  14.483
 5554SOL    HW118559  13.752  11.025  14.522
 5554SOL    HW218560  13.792  10.880  14.538
 5555SOL     OW18561   8.179   7.503   2.575
 5555SOL    HW118562   8.252   7.491   2.513
 5555SOL    HW218563   8.129   7.421   2.569
 5556SOL     OW18564  12.708  11.560  12.441
 5556SOL    HW118565  12.774  11.585  12.378
 5556SOL    HW218566  12.697  11.637  12.497
 5557SOL     OW18567   1.555  13.486   2.918
 5557SOL    HW118568   1.560  13.464   2.825
 5557SOL    HW218569   1.619  13.428   2.960
 5558SOL     OW18570  13.814  10.172   5.136
 5558SOL    HW118571  13.785  10.160   5.226
 5558SOL    HW218572  13.759  10.243   5.102
 5559SOL     OW18573   0.558   8.837   6.503
 5559SOL    HW118574   0.572   8.923   6.465
 5559SOL    HW218575   0.479   8.846   6.556
 5560SOL     OW18576  12.349   3.704   3.971
 5560SOL    HW118577  12.420   3.716   3.908
 5560SOL    HW218578  12.393   3.685   4.054
 5561SOL     OW18579   2.232  13.135  13.608
 5561SOL    HW118580   2.240  13.041  13.588
 5561SOL    HW218581   2.146  13.142  13.650
 5562SOL     OW18582  10.099  13.145   9.448
 5562SOL    HW118583  10.065  13.113   9.532
 5562SOL    HW218584  10.189  13.111   9.444
 5563SOL     OW18585   4.488  11.841  14.135
 5563SOL    HW118586   4.487  11.779  14.062
 5563SOL    HW218587   4.417  11.812  14.192
 5564SOL     OW18588   3.363   5.751   2.955
 5564SOL    HW118589   3.427   5.796   2.899
 5564SOL    HW218590   3.415   5.719   3.029
 5565SOL     OW18591   7.830   5.911  11.705
 5565SOL    HW118592   7.766   5.947  11.643
 5565SOL    HW218593   7.789   5.920  11.791
 5566SOL     OW18594   1.136   2.938   5.041
 5566SOL    HW118595   1.144   2.863   5.100
 5566SOL    HW218596   1.105   2.901   4.959
 5567SOL     OW18597  11.771   2.753   6.183
 5567SOL    HW118598  11.706   2.705   6.234
 5567SOL    HW218599  11.739   2.843   6.181
 5568SOL     OW18600  10.283  11.811   0.324
 5568SOL    HW118601  10.275  11.898   0.363
 5568SOL    HW218602  10.369  11.810   0.284
 5569SOL     OW18603   2.973   3.252  12.379
 5569SOL    HW118604   2.980   3.159  12.357
 5569SOL    HW218605   2.904   3.255  12.445
 5570SOL     OW18606   9.314   7.566   7.400
 5570SOL    HW118607   9.271   7.484   7.378
 5570SOL    HW218608   9.382   7.577   7.334
 5571SOL     OW18609   0.880  13.489   3.231
 5571SOL    HW118610   0.971  13.467   3.251
 5571SOL    HW218611   0.885  13.572   3.183
 5572SOL     OW18612   1.723   3.309   8.412
 5572SOL    HW118613   1.766   3.384   8.370
 5572SOL    HW218614   1.660   3.279   8.346
 5573SOL     OW18615  13.560  13.990  14.261
 5573SOL    HW118616  13.597  14.033  14.338
 5573SOL    HW218617  13.560  13.897  14.283
 5574SOL     OW18618   7.186   0.423   5.018
 5574SOL    HW118619   7.127   0.433   4.943
 5574SOL    HW218620   7.230   0.508   5.025
 5575SOL     OW18621  12.441   6.436   7.558
 5575SOL    HW118622  12.480   6.523   7.559
 5575SOL    HW218623  12.347   6.451   7.560
 5576SOL     OW18624  13.645  10.360  14.610
 5576SOL    HW118625  13.664  10.422  14.540
 5576SOL    HW218626  13.585  10.406  14.668
 5577SOL     OW18627  10.165   1.208  10.738
 5577SOL    HW118628  10.084   1.249  10.769
 5577SOL    HW218629  10.136   1.130  10.691
 5578SOL     OW18630   2.158   4.050   2.919
 5578SOL    HW118631   2.216   3.985   2.957
 5578SOL    HW218632   2.169   4.040   2.824
 5579SOL     OW18633   0.612   6.833  12.194
 5579SOL    HW118634   0.571   6.771  12.134
 5579SOL    HW218635   0.618   6.786  12.277
 5580SOL     OW18636  14.534   2.408   0.503
 5580SOL    HW118637  14.449   2.452   0.501
 5580SOL    HW218638  14.598   2.479   0.505
 5581SOL     OW18639   8.624  11.415   1.075
 5581SOL    HW118640   8.564  11.407   1.002
 5581SOL    HW218641   8.641  11.509   1.083
 5582SOL     OW18642   9.284  13.241  11.207
 5582SOL    HW118643   9.274  13.147  11.222
 5582SOL    HW218644   9.254  13.281  11.289
 5583SOL     OW18645  10.987   9.913   5.103
 5583SOL    HW118646  10.961   9.983   5.162
 5583SOL    HW218647  10.904   9.876   5.071
 5584SOL     OW18648  13.156   2.316  10.617
 5584SOL    HW118649  13.119   2.230  10.595
 5584SOL    HW218650  13.087   2.360  10.666
 5585SOL     OW18651  10.926  14.377   3.097
 5585SOL    HW118652  10.982  14.303   3.072
 5585SOL    HW218653  10.837  14.340   3.095
 5586SOL     OW18654   8.578  10.865   0.762
 5586SOL    HW118655   8.632  10.870   0.841
 5586SOL    HW218656   8.595  10.777   0.728
 5587SOL     OW18657  14.067   2.090  11.300
 5587SOL    HW118658  14.069   1.994  11.299
 5587SOL    HW218659  14.120   2.115  11.375
 5588SOL     OW18660   7.816   0.825  12.753
 5588SOL    HW118661   7.795   0.918  12.764
 5588SOL    HW218662   7.819   0.813  12.659
 5589SOL     OW18663   1.290  12.212   1.001
 5589SOL    HW118664   1.311  12.305   0.989
 5589SOL    HW218665   1.202  12.212   1.037
 5590SOL     OW18666  12.639   9.562  12.477
 5590SOL    HW118667  12.619   9.600  12.563
 5590SOL    HW218668  12.582   9.609  12.416
 5591SOL     OW18669  12.630   1.284   4.369
 5591SOL    HW118670  12.659   1.199   4.401
 5591SOL    HW218671  12.557   1.263   4.310
 5592SOL     OW18672   5.967   2.332   8.600
 5592SOL    HW118673   5.947   2.405   8.542
 5592SOL    HW218674   5.988   2.373   8.684
 5593SOL     OW18675  14.839   6.585  13.807
 5593SOL    HW118676  14.770   6.537  13.761
 5593SOL    HW218677   0.003   6.637  13.739
 5594SOL     OW18678   5.812  10.485   8.390
 5594SOL    HW118679   5.786  10.505   8.300
 5594SOL    HW218680   5.816  10.390   8.394
 5595SOL     OW18681   5.475   2.103   8.263
 5595SOL    HW118682   5.493   2.134   8.174
 5595SOL    HW218683   5.521   2.164   8.320
 5596SOL     OW18684   4.690   1.696   2.135
 5596SOL    HW118685   4.777   1.670   2.163
 5596SOL    HW218686   4.687   1.790   2.153
 5597SOL     OW18687  11.706   3.710  11.112
 5597SOL    HW118688  11.750   3.736  11.192
 5597SOL    HW218689  11.701   3.615  11.118
 5598SOL     OW18690   4.034  14.575   1.583
 5598SOL    HW118691   3.999  14.586   1.672
 5598SOL    HW218692   3.958  14.555   1.529
 5599SOL     OW18693  12.272   1.705  10.310
 5599SOL    HW118694  12.338   1.775  10.306
 5599SOL    HW218695  12.310   1.640  10.369
 5600SOL     OW18696   8.313  10.461   8.258
 5600SOL    HW118697   8.343  10.498   8.175
 5600SOL    HW218698   8.240  10.517   8.284
 5601SOL     OW18699  12.500  14.866  14.153
 5601SOL    HW118700  12.467  14.786  14.195
 5601SOL    HW218701  12.467  14.862  14.064
 5602SOL     OW18702   8.815   2.900   3.569
 5602SOL    HW118703   8.859   2.843   3.632
 5602SOL    HW218704   8.805   2.983   3.615
 5603SOL     OW18705   1.617   8.442   3.410
 5603SOL    HW118706   1.580   8.410   3.493
 5603SOL    HW218707   1.563   8.518   3.388
 5604SOL     OW18708   8.660   6.506   0.516
 5604SOL    HW118709   8.640   6.507   0.423
 5604SOL    HW218710   8.576   6.493   0.559
 5605SOL     OW18711   6.104   5.081  14.285
 5605SOL    HW118712   6.043   5.048  14.220
 5605SOL    HW218713   6.170   5.012  14.293
 5606SOL     OW18714   9.075  13.442   9.969
 5606SOL    HW118715   9.165  13.462   9.996
 5606SOL    HW218716   9.031  13.527   9.969
 5607SOL     OW18717   4.624   2.397  10.678
 5607SOL    HW118718   4.609   2.466  10.613
 5607SOL    HW218719   4.719   2.389  10.683
 5608SOL     OW18720  12.282   8.112  13.262
 5608SOL    HW118721  12.362   8.116  13.210
 5608SOL    HW218722  12.261   8.018  13.267
 5609SOL     OW18723   7.580   1.985  12.260
 5609SOL    HW118724   7.552   2.067  12.301
 5609SOL    HW218725   7.663   2.007  12.217
 5610SOL     OW18726  10.631  11.305   4.322
 5610SOL    HW118727  10.589  11.390   4.330
 5610SOL    HW218728  10.644  11.292   4.228
 5611SOL     OW18729  14.360   7.048  12.064
 5611SOL    HW118730  14.294   7.078  12.126
 5611SOL    HW218731  14.310   7.009  11.992
 5612SOL     OW18732   2.718   9.360   8.364
 5612SOL    HW118733   2.662   9.290   8.397
 5612SOL    HW218734   2.784   9.373   8.433
 5613SOL     OW18735  10.042   6.179   1.432
 5613SOL    HW118736  10.000   6.176   1.347
 5613SOL    HW218737  10.125   6.225   1.417
 5614SOL     OW18738   1.872   5.434   8.557
 5614SOL    HW118739   1.816   5.510   8.569
 5614SOL    HW218740   1.921   5.427   8.638
 5615SOL     OW18741   0.832   1.483   5.079
 5615SOL    HW118742   0.815   1.415   5.014
 5615SOL    HW218743   0.842   1.437   5.162
 5616SOL     OW18744   0.907   2.764   8.454
 5616SOL    HW118745   0.886   2.784   8.362
 5616SOL    HW218746   1.001   2.780   8.461
 5617SOL     OW18747   9.849   3.064  13.006
 5617SOL    HW118748   9.912   3.134  12.987
 5617SOL    HW218749   9.897   3.005  13.065
 5618SOL     OW18750   4.298   9.818  13.875
 5618SOL    HW118751   4.237   9.887  13.849
 5618SOL    HW218752   4.385   9.853  13.856
 5619SOL     OW18753   5.626  12.153   4.171
 5619SOL    HW118754   5.707  12.106   4.154
 5619SOL    HW218755   5.639  12.239   4.129
 5620SOL     OW18756   4.336  13.613  13.554
 5620SOL    HW118757   4.286  13.694  13.559
 5620SOL    HW218758   4.408  13.633  13.493
 5621SOL     OW18759  13.711  13.431   8.845
 5621SOL    HW118760  13.651  13.379   8.897
 5621SOL    HW218761  13.659  13.459   8.770
 5622SOL     OW18762   3.091  13.498  10.053
 5622SOL    HW118763   3.023  13.446  10.010
 5622SOL    HW218764   3.054  13.517  10.140
 5623SOL     OW18765  12.769   7.793   2.929
 5623SOL    HW118766  12.799   7.704   2.948
 5623SOL    HW218767  12.790   7.806   2.837
 5624SOL     OW18768  12.453  12.919  13.534
 5624SOL    HW118769  12.430  12.916  13.441
 5624SOL    HW218770  12.542  12.954  13.536
 5625SOL     OW18771  10.054   5.048  10.136
 5625SOL    HW118772   9.973   5.093  10.159
 5625SOL    HW218773  10.121   5.090  10.190
 5626SOL     OW18774   6.139   3.917   1.425
 5626SOL    HW118775   6.141   3.938   1.519
 5626SOL    HW218776   6.212   3.856   1.413
 5627SOL     OW18777  13.627  11.954   2.374
 5627SOL    HW118778  13.606  11.867   2.340
 5627SOL    HW218779  13.615  12.012   2.299
 5628SOL     OW18780   1.823  11.277  12.567
 5628SOL    HW118781   1.903  11.226  12.551
 5628SOL    HW218782   1.789  11.243  12.650
 5629SOL     OW18783   2.530   0.816   4.038
 5629SOL    HW118784   2.459   0.810   3.973
 5629SOL    HW218785   2.484   0.819   4.122
 5630SOL     OW18786  10.882   9.639   5.669
 5630SOL    HW118787  10.812   9.696   5.637
 5630SOL    HW218788  10.940   9.627   5.594
 5631SOL     OW18789   4.801   1.621   6.911
 5631SOL    HW118790   4.843   1.699   6.947
 5631SOL    HW218791   4.870   1.578   6.860
 5632SOL     OW18792  10.288   4.319   1.964
 5632SOL    HW118793  10.238   4.243   1.992
 5632SOL    HW218794  10.339   4.345   2.040
 5633SOL     OW18795   7.690   4.451   6.385
 5633SOL    HW118796   7.688   4.364   6.346
 5633SOL    HW218797   7.659   4.439   6.475
 5634SOL     OW18798   8.392   7.741   2.119
 5634SOL    HW118799   8.369   7.815   2.175
 5634SOL    HW218800   8.308   7.709   2.085
 5635SOL     OW18801  12.580   9.900   0.830
 5635SOL    HW118802  12.612   9.835   0.768
 5635SOL    HW218803  12.604   9.985   0.792
 5636SOL     OW18804   6.476   0.626  12.197
 5636SOL    HW118805   6.495   0.556  12.260
 5636SOL    HW218806   6.504   0.590  12.113
 5637SOL     OW18807  12.846   5.678   9.475
 5637SOL    HW118808  12.778   5.682   9.542
 5637SOL    HW218809  12.911   5.618   9.510
 5638SOL     OW18810  14.179  11.408   7.454
 5638SOL    HW118811  14.091  11.445   7.443
 5638SOL    HW218812  14.208  11.388   7.365
 5639SOL     OW18813   8.177   5.030   4.372
 5639SOL    HW118814   8.101   5.056   4.423
 5639SOL    HW218815   8.251   5.038   4.433
 5640SOL     OW18816  13.595   8.294   0.182
 5640SOL    HW118817  13.594   8.335   0.096
 5640SOL    HW218818  13.672   8.330   0.225
 5641SOL     OW18819   2.605  13.587  11.405
 5641SOL    HW118820   2.637  13.608  11.317
 5641SOL    HW218821   2.523  13.636  11.413
 5642SOL     OW18822  11.959   9.084   1.013
 5642SOL    HW118823  11.989   8.994   1.005
 5642SOL    HW218824  11.994   9.128   0.935
 5643SOL     OW18825  13.957   6.787   5.213
 5643SOL    HW118826  13.931   6.737   5.290
 5643SOL    HW218827  13.875   6.801   5.164
 5644SOL     OW18828  10.389   5.895   8.720
 5644SOL    HW118829  10.412   5.983   8.688
 5644SOL    HW218830  10.308   5.908   8.769
 5645SOL     OW18831   4.686   1.658   9.497
 5645SOL    HW118832   4.699   1.659   9.592
 5645SOL    HW218833   4.699   1.566   9.472
 5646SOL     OW18834   4.322   0.110   4.969
 5646SOL    HW118835   4.317   0.096   5.064
 5646SOL    HW218836   4.242   0.069   4.934
 5647SOL     OW18837  13.348  10.228  11.722
 5647SOL    HW118838  13.280  10.275  11.673
 5647SOL    HW218839  13.381  10.292  11.785
 5648SOL     OW18840   9.390   1.339  11.975
 5648SOL    HW118841   9.381   1.257  11.927
 5648SOL    HW218842   9.480   1.337  12.009
 5649SOL     OW18843   7.085   2.200  12.224
 5649SOL    HW118844   7.076   2.179  12.131
 5649SOL    HW218845   7.099   2.115  12.266
 5650SOL     OW18846  11.046   4.043  13.322
 5650SOL    HW118847  11.053   3.989  13.400
 5650SOL    HW218848  11.121   4.016  13.268
 5651SOL     OW18849  11.073   2.428  13.190
 5651SOL    HW118850  11.067   2.347  13.241
 5651SOL    HW218851  11.159   2.423  13.148
 5652SOL     OW18852  12.598  10.129   0.201
 5652SOL    HW118853  12.621  10.102   0.112
 5652SOL    HW218854  12.521  10.185   0.190
 5653SOL     OW18855  10.166  12.453   0.655
 5653SOL    HW118856  10.094  12.452   0.592
 5653SOL    HW218857  10.131  12.500   0.731
 5654SOL     OW18858   5.782   4.151  11.246
 5654SOL    HW118859   5.700   4.186  11.211
 5654SOL    HW218860   5.805   4.211  11.318
 5655SOL     OW18861   7.390  10.112  14.862
 5655SOL    HW118862   7.390  10.018   0.002
 5655SOL    HW218863   7.477  10.142   0.011
 5656SOL     OW18864  10.888   3.289  10.675
 5656SOL    HW118865  10.889   3.248  10.588
 5656SOL    HW218866  10.802   3.268  10.710
 5657SOL     OW18867   9.702  14.376   4.902
 5657SOL    HW118868   9.747  14.430   4.967
 5657SOL    HW218869   9.610  14.402   4.909
 5658SOL     OW18870   8.949   8.843   7.399
 5658SOL    HW118871   9.023   8.869   7.454
 5658SOL    HW218872   8.962   8.891   7.317
 5659SOL     OW18873   2.462  10.654   0.764
 5659SOL    HW118874   2.522  10.680   0.833
 5659SOL    HW218875   2.487  10.706   0.688
 5660SOL     OW18876  12.078   3.483  14.704
 5660SOL    HW118877  12.070   3.481  14.609
 5660SOL    HW218878  12.069   3.392  14.731
 5661SOL     OW18879   3.028  10.327  12.859
 5661SOL    HW118880   2.992  10.415  12.851
 5661SOL    HW218881   2.975  10.284  12.926
 5662SOL     OW18882   4.474  11.061   3.589
 5662SOL    HW118883   4.425  11.138   3.617
 5662SOL    HW218884   4.565  11.090   3.587
 5663SOL     OW18885   0.875   1.684   1.561
 5663SOL    HW118886   0.809   1.626   1.524
 5663SOL    HW218887   0.922   1.718   1.486
 5664SOL     OW18888   5.735  12.377  10.641
 5664SOL    HW118889   5.824  12.413  10.639
 5664SOL    HW218890   5.748  12.283  10.656
 5665SOL     OW18891  13.650  13.426   6.268
 5665SOL    HW118892  13.659  13.445   6.174
 5665SOL    HW218893  13.559  13.397   6.277
 5666SOL     OW18894   3.048  11.136   4.092
 5666SOL    HW118895   2.974  11.076   4.097
 5666SOL    HW218896   3.010  11.219   4.064
 5667SOL     OW18897   1.984   2.543   0.712
 5667SOL    HW118898   1.948   2.508   0.630
 5667SOL    HW218899   2.025   2.468   0.754
 5668SOL     OW18900   0.592   5.250   3.086
 5668SOL    HW118901   0.683   5.220   3.091
 5668SOL    HW218902   0.541   5.170   3.070
 5669SOL     OW18903   1.638   2.196   0.018
 5669SOL    HW118904   1.563   2.139   0.038
 5669SOL    HW218905   1.678   2.213   0.103
 5670SOL     OW18906   2.771   6.233  13.977
 5670SOL    HW118907   2.854   6.191  13.954
 5670SOL    HW218908   2.797   6.315  14.018
 5671SOL     OW18909   7.866  11.284   0.636
 5671SOL    HW118910   7.902  11.252   0.553
 5671SOL    HW218911   7.849  11.204   0.686
 5672SOL     OW18912   9.015   6.970  10.339
 5672SOL    HW118913   8.939   6.918  10.316
 5672SOL    HW218914   9.073   6.910  10.385
 5673SOL     OW18915  14.022   3.980   6.684
 5673SOL    HW118916  13.954   4.016   6.741
 5673SOL    HW218917  13.989   3.894   6.659
 5674SOL     OW18918  13.441   2.911  12.758
 5674SOL    HW118919  13.437   2.946  12.669
 5674SOL    HW218920  13.525   2.940  12.792
 5675SOL     OW18921  11.869   8.005   5.766
 5675SOL    HW118922  11.935   7.938   5.780
 5675SOL    HW218923  11.839   8.029   5.854
 5676SOL     OW18924  13.861  14.178   0.127
 5676SOL    HW118925  13.931  14.116   0.109
 5676SOL    HW218926  13.833  14.210   0.041
 5677SOL     OW18927   4.614   0.865   7.108
 5677SOL    HW118928   4.616   0.952   7.067
 5677SOL    HW218929   4.634   0.882   7.200
 5678SOL     OW18930  10.745  14.483   9.673
 5678SOL    HW118931  10.781  14.568   9.647
 5678SOL    HW218932  10.687  14.459   9.601
 5679SOL     OW18933  11.253   8.500  12.295
 5679SOL    HW118934  11.210   8.437  12.352
 5679SOL    HW218935  11.195   8.576  12.294
 5680SOL     OW18936   0.073   6.159   6.652
 5680SOL    HW118937   0.003   6.211   6.693
 5680SOL    HW218938   0.133   6.224   6.616
 5681SOL     OW18939  14.451  12.306   9.780
 5681SOL    HW118940  14.505  12.227   9.778
 5681SOL    HW218941  14.443  12.332   9.688
 5682SOL     OW18942  14.775   6.798  12.611
 5682SOL    HW118943  14.782   6.800  12.515
 5682SOL    HW218944  14.683   6.778  12.627
 5683SOL     OW18945   4.567   5.338   5.108
 5683SOL    HW118946   4.547   5.424   5.144
 5683SOL    HW218947   4.549   5.346   5.014
 5684SOL     OW18948   7.371   8.322  10.692
 5684SOL    HW118949   7.436   8.294  10.628
 5684SOL    HW218950   7.298   8.262  10.680
 5685SOL     OW18951   7.417  14.055  13.327
 5685SOL    HW118952   7.323  14.046  13.314
 5685SOL    HW218953   7.426  14.095  13.413
 5686SOL     OW18954  10.125   6.331   4.161
 5686SOL    HW118955  10.142   6.322   4.067
 5686SOL    HW218956  10.178   6.262   4.201
 5687SOL     OW18957   6.152   8.362  13.617
 5687SOL    HW118958   6.162   8.277  13.573
 5687SOL    HW218959   6.190   8.349  13.704
 5688SOL     OW18960  11.843   9.903   1.166
 5688SOL    HW118961  11.893   9.953   1.229
 5688SOL    HW218962  11.755   9.899   1.203
 5689SOL     OW18963   9.240   5.288   5.059
 5689SOL    HW118964   9.148   5.297   5.033
 5689SOL    HW218965   9.239   5.223   5.129
 5690SOL     OW18966  14.215  10.688   1.218
 5690SOL    HW118967  14.270  10.729   1.152
 5690SOL    HW218968  14.245  10.727   1.301
 5691SOL     OW18969   0.334   9.375  12.873
 5691SOL    HW118970   0.374   9.296  12.909
 5691SOL    HW218971   0.282   9.344  12.799
 5692SOL     OW18972  13.602   3.123  14.678
 5692SOL    HW118973  13.561   3.066  14.613
 5692SOL    HW218974  13.535   3.136  14.745
 5693SOL     OW18975   3.262   0.870   9.531
 5693SOL    HW118976   3.268   0.848   9.624
 5693SOL    HW218977   3.352   0.863   9.500
 5694SOL     OW18978  12.309   7.549  10.038
 5694SOL    HW118979  12.286   7.640  10.020
 5694SOL    HW218980  12.230   7.500  10.016
 5695SOL     OW18981   3.174  14.629  12.845
 5695SOL    HW118982   3.084  14.599  12.857
 5695SOL    HW218983   3.226  14.573  12.903
 5696SOL     OW18984   4.366   1.205   2.378
 5696SOL    HW118985   4.361   1.198   2.474
 5696SOL    HW218986   4.417   1.284   2.362
 5697SOL     OW18987  13.112   4.699  11.730
 5697SOL    HW118988  13.026   4.663  11.707
 5697SOL    HW218989  13.167   4.682  11.654
 5698SOL     OW18990   3.407  12.950   0.382
 5698SOL    HW118991   3.344  12.879   0.397
 5698SOL    HW218992   3.354  13.029   0.374
 5699SOL     OW18993  14.838   8.700  13.645
 5699SOL    HW118994   0.012   8.773  13.680
 5699SOL    HW218995  14.752   8.710  13.684
 5700SOL     OW18996   3.634   6.766   5.472
 5700SOL    HW118997   3.564   6.769   5.407
 5700SOL    HW218998   3.701   6.709   5.433
 5701SOL     OW18999   6.792   6.931   1.124
 5701SOL    HW119000   6.821   6.892   1.042
 5701SOL    HW219001   6.757   6.858   1.175
 5702SOL     OW19002   3.420   9.612  10.513
 5702SOL    HW119003   3.394   9.658  10.433
 5702SOL    HW219004   3.515   9.607  10.508
 5703SOL     OW19005  10.112   4.086   4.048
 5703SOL    HW119006  10.105   4.096   4.143
 5703SOL    HW219007  10.041   4.140   4.013
 5704SOL     OW19008  13.867  14.662   4.981
 5704SOL    HW119009  13.883  14.718   5.057
 5704SOL    HW219010  13.905  14.577   5.006
 5705SOL     OW19011  10.638  11.193   0.520
 5705SOL    HW119012  10.544  11.200   0.505
 5705SOL    HW219013  10.647  11.125   0.587
 5706SOL     OW19014  12.070  14.124   7.863
 5706SOL    HW119015  12.120  14.153   7.787
 5706SOL    HW219016  11.985  14.097   7.827
 5707SOL     OW19017   9.403   2.463  14.078
 5707SOL    HW119018   9.331   2.502  14.028
 5707SOL    HW219019   9.458   2.422  14.012
 5708SOL     OW19020   2.115   6.476  13.225
 5708SOL    HW119021   2.043   6.537  13.244
 5708SOL    HW219022   2.186   6.505  13.283
 5709SOL     OW19023   4.674   8.867   0.718
 5709SOL    HW119024   4.687   8.788   0.769
 5709SOL    HW219025   4.582   8.889   0.730
 5710SOL     OW19026   0.604  14.706   7.098
 5710SOL    HW119027   0.588  14.785   7.045
 5710SOL    HW219028   0.600  14.634   7.035
 5711SOL     OW19029   6.860  10.215   6.206
 5711SOL    HW119030   6.912  10.171   6.273
 5711SOL    HW219031   6.873  10.308   6.222
 5712SOL     OW19032  14.104   8.504   4.418
 5712SOL    HW119033  14.190   8.464   4.403
 5712SOL    HW219034  14.044   8.448   4.369
 5713SOL     OW19035  11.564  10.522   9.772
 5713SOL    HW119036  11.632  10.519   9.839
 5713SOL    HW219037  11.602  10.478   9.697
 5714SOL     OW19038   3.163   4.539  10.560
 5714SOL    HW119039   3.242   4.485  10.554
 5714SOL    HW219040   3.123   4.532  10.473
 5715SOL     OW19041  14.743  14.353   3.044
 5715SOL    HW119042  14.671  14.403   3.083
 5715SOL    HW219043  14.762  14.285   3.109
 5716SOL     OW19044   4.297   7.978   7.582
 5716SOL    HW119045   4.341   7.981   7.496
 5716SOL    HW219046   4.226   7.915   7.571
 5717SOL     OW19047   0.560   8.040  11.600
 5717SOL    HW119048   0.482   8.090  11.574
 5717SOL    HW219049   0.571   7.976  11.530
 5718SOL     OW19050  10.417   0.633   2.977
 5718SOL    HW119051  10.371   0.570   2.921
 5718SOL    HW219052  10.509   0.608   2.971
 5719SOL     OW19053  13.772  14.296   3.614
 5719SOL    HW119054  13.703  14.281   3.678
 5719SOL    HW219055  13.758  14.229   3.547
 5720SOL     OW19056   6.535   6.451  12.169
 5720SOL    HW119057   6.592   6.382  12.203
 5720SOL    HW219058   6.483   6.407  12.100
 5721SOL     OW19059   0.269  13.423   1.342
 5721SOL    HW119060   0.178  13.394   1.347
 5721SOL    HW219061   0.301  13.389   1.259
 5722SOL     OW19062   0.263   3.430  11.379
 5722SOL    HW119063   0.289   3.448  11.289
 5722SOL    HW219064   0.342   3.395  11.421
 5723SOL     OW19065   9.551   7.576   0.294
 5723SOL    HW119066   9.619   7.634   0.328
 5723SOL    HW219067   9.487   7.569   0.365
 5724SOL     OW19068  13.916   9.549  11.642
 5724SOL    HW119069  13.846   9.582  11.586
 5724SOL    HW219070  13.994   9.597  11.615
 5725SOL     OW19071   5.464  13.744  12.470
 5725SOL    HW119072   5.507  13.712  12.549
 5725SOL    HW219073   5.371  13.747  12.492
 5726SOL     OW19074   3.915   8.188   2.459
 5726SOL    HW119075   3.944   8.143   2.539
 5726SOL    HW219076   3.937   8.126   2.388
 5727SOL     OW19077   5.483   0.070   0.744
 5727SOL    HW119078   5.422   0.010   0.787
 5727SOL    HW219079   5.518   0.124   0.815
 5728SOL     OW19080  10.460   4.241   8.624
 5728SOL    HW119081  10.453   4.322   8.675
 5728SOL    HW219082  10.415   4.259   8.542
 5729SOL     OW19083   5.460   2.052   3.434
 5729SOL    HW119084   5.389   2.105   3.468
 5729SOL    HW219085   5.445   1.965   3.471
 5730SOL     OW19086   8.321   1.643  13.769
 5730SOL    HW119087   8.237   1.689  13.764
 5730SOL    HW219088   8.366   1.666  13.688
 5731SOL     OW19089   5.902   5.889  11.383
 5731SOL    HW119090   5.972   5.857  11.326
 5731SOL    HW219091   5.886   5.817  11.445
 5732SOL     OW19092   0.864  12.090   3.372
 5732SOL    HW119093   0.950  12.065   3.338
 5732SOL    HW219094   0.838  12.017   3.428
 5733SOL     OW19095   8.352   0.648   0.255
 5733SOL    HW119096   8.422   0.633   0.319
 5733SOL    HW219097   8.388   0.616   0.173
 5734SOL     OW19098  11.953   4.694  13.293
 5734SOL    HW119099  11.965   4.786  13.318
 5734SOL    HW219100  11.899   4.657  13.362
 5735SOL     OW19101   2.983   6.902   2.420
 5735SOL    HW119102   2.889   6.912   2.411
 5735SOL    HW219103   3.001   6.812   2.393
 5736SOL     OW19104   5.074   5.057   9.293
 5736SOL    HW119105   5.013   5.131   9.293
 5736SOL    HW219106   5.034   4.993   9.352
 5737SOL     OW19107   1.693   5.410  14.774
 5737SOL    HW119108   1.645   5.423  14.693
 5737SOL    HW219109   1.629   5.426  14.843
 5738SOL     OW19110   2.091   0.307   5.789
 5738SOL    HW119111   2.012   0.317   5.737
 5738SOL    HW219112   2.067   0.247   5.859
 5739SOL     OW19113   5.996  11.203  12.206
 5739SOL    HW119114   5.908  11.203  12.170
 5739SOL    HW219115   6.026  11.112  12.195
 5740SOL     OW19116   6.621   3.598  10.276
 5740SOL    HW119117   6.667   3.680  10.293
 5740SOL    HW219118   6.643   3.576  10.186
 5741SOL     OW19119   4.584   1.101  12.381
 5741SOL    HW119120   4.646   1.122  12.311
 5741SOL    HW219121   4.599   1.167  12.448
 5742SOL     OW19122   6.434   2.613  13.610
 5742SOL    HW119123   6.341   2.592  13.616
 5742SOL    HW219124   6.447   2.683  13.674
 5743SOL     OW19125  14.124  14.335  14.828
 5743SOL    HW119126  14.106  14.428  14.845
 5743SOL    HW219127  14.201  14.315   0.004
 5744SOL     OW19128   1.702   6.609  13.872
 5744SOL    HW119129   1.629   6.615  13.810
 5744SOL    HW219130   1.691   6.524  13.914
 5745SOL     OW19131  11.276  12.192   9.683
 5745SOL    HW119132  11.349  12.223   9.737
 5745SOL    HW219133  11.267  12.260   9.615
 5746SOL     OW19134  12.743   5.191   5.442
 5746SOL    HW119135  12.788   5.145   5.512
 5746SOL    HW219136  12.650   5.178   5.460
 5747SOL     OW19137  11.379   6.548   3.695
 5747SOL    HW119138  11.307   6.607   3.719
 5747SOL    HW219139  11.426   6.535   3.777
 5748SOL     OW19140  11.554   3.132   3.308
 5748SOL    HW119141  11.507   3.060   3.350
 5748SOL    HW219142  11.487   3.176   3.255
 5749SOL     OW19143   8.368  13.307  11.052
 5749SOL    HW119144   8.374  13.224  11.100
 5749SOL    HW219145   8.274  13.316  11.032
 5750SOL     OW19146   3.135  11.392   5.191
 5750SOL    HW119147   3.069  11.328   5.217
 5750SOL    HW219148   3.163  11.433   5.274
 5751SOL     OW19149   9.916  11.045   1.916
 5751SOL    HW119150   9.925  10.965   1.866
 5751SOL    HW219151   9.837  11.033   1.968
 5752SOL     OW19152   7.851   9.854   3.464
 5752SOL    HW119153   7.875   9.785   3.526
 5752SOL    HW219154   7.917   9.923   3.478
 5753SOL     OW19155   0.325  11.775   5.448
 5753SOL    HW119156   0.279  11.857   5.464
 5753SOL    HW219157   0.293  11.716   5.516
 5754SOL     OW19158  13.723   2.762   6.097
 5754SOL    HW119159  13.796   2.793   6.151
 5754SOL    HW219160  13.719   2.824   6.024
 5755SOL     OW19161  11.705  13.740   7.285
 5755SOL    HW119162  11.635  13.781   7.233
 5755SOL    HW219163  11.782  13.793   7.265
 5756SOL     OW19164  12.977   9.439   9.816
 5756SOL    HW119165  13.054   9.478   9.774
 5756SOL    HW219166  12.910   9.436   9.747
 5757SOL     OW19167   0.026   2.364   6.024
 5757SOL    HW119168   0.075   2.436   5.983
 5757SOL    HW219169   0.035   2.291   5.963
 5758SOL     OW19170  14.196  10.570  13.063
 5758SOL    HW119171  14.105  10.558  13.090
 5758SOL    HW219172  14.192  10.590  12.970
 5759SOL     OW19173  12.344   2.516  14.793
 5759SOL    HW119174  12.399   2.509  14.716
 5759SOL    HW219175  12.382   2.453  14.855
 5760SOL     OW19176  12.127   3.099  14.568
 5760SOL    HW119177  12.176   3.181  14.575
 5760SOL    HW219178  12.167   3.041  14.632
 5761SOL     OW19179   5.683   2.556  14.770
 5761SOL    HW119180   5.598   2.519  14.747
 5761SOL    HW219181   5.703   2.519  14.856
 5762SOL     OW19182   5.848   9.953   1.449
 5762SOL    HW119183   5.762   9.994   1.446
 5762SOL    HW219184   5.910  10.025   1.437
 5763SOL     OW19185   0.129   9.288   4.324
 5763SOL    HW119186   0.149   9.203   4.286
 5763SOL    HW219187   0.163   9.351   4.261
 5764SOL     OW19188  10.711  12.124   2.654
 5764SOL    HW119189  10.748  12.207   2.627
 5764SOL    HW219190  10.784  12.076   2.694
 5765SOL     OW19191  12.480   6.729   7.692
 5765SOL    HW119192  12.524   6.712   7.776
 5765SOL    HW219193  12.504   6.819   7.671
 5766SOL     OW19194   6.837  12.785  14.378
 5766SOL    HW119195   6.874  12.795  14.466
 5766SOL    HW219196   6.831  12.690  14.365
 5767SOL     OW19197  11.888   0.525   5.866
 5767SOL    HW119198  11.906   0.604   5.915
 5767SOL    HW219199  11.826   0.476   5.920
 5768SOL     OW19200   3.186   9.848   1.516
 5768SOL    HW119201   3.125   9.896   1.461
 5768SOL    HW219202   3.273   9.872   1.484
 5769SOL     OW19203   3.060   7.902  10.996
 5769SOL    HW119204   3.049   7.897  11.091
 5769SOL    HW219205   3.126   7.834  10.976
 5770SOL     OW19206   7.639   2.082  10.403
 5770SOL    HW119207   7.686   2.001  10.423
 5770SOL    HW219208   7.655   2.137  10.480
 5771SOL     OW19209  11.659   7.827   7.811
 5771SOL    HW119210  11.651   7.922   7.823
 5771SOL    HW219211  11.714   7.798   7.885
 5772SOL     OW19212  14.621   5.953  10.762
 5772SOL    HW119213  14.710   5.943  10.728
 5772SOL    HW219214  14.580   5.869  10.745
 5773SOL     OW19215   6.054   0.161   0.337
 5773SOL    HW119216   6.018   0.249   0.345
 5773SOL    HW219217   6.088   0.142   0.425
 5774SOL     OW19218   0.645  12.995   0.090
 5774SOL    HW119219   0.713  12.956   0.145
 5774SOL    HW219220   0.679  12.987   0.000
 5775SOL     OW19221  13.086   0.089   6.536
 5775SOL    HW119222  13.123   0.137   6.609
 5775SOL    HW219223  13.021   0.031   6.576
 5776SOL     OW19224  10.929  11.526   8.444
 5776SOL    HW119225  10.961  11.438   8.465
 5776SOL    HW219226  10.837  11.525   8.467
 5777SOL     OW19227   6.000   6.771  12.077
 5777SOL    HW119228   6.017   6.786  11.984
 5777SOL    HW219229   6.087   6.758  12.115
 5778SOL     OW19230  12.441  14.280  11.528
 5778SOL    HW119231  12.522  14.242  11.494
 5778SOL    HW219232  12.467  14.319  11.611
 5779SOL     OW19233   9.671   8.992   3.067
 5779SOL    HW119234   9.593   9.047   3.069
 5779SOL    HW219235   9.731   9.033   3.129
 5780SOL     OW19236   0.034  12.546   4.118
 5780SOL    HW119237  14.877  12.598   4.191
 5780SOL    HW219238  14.840  12.541   4.056
 5781SOL     OW19239  14.653   4.165   6.101
 5781SOL    HW119240  14.563   4.153   6.071
 5781SOL    HW219241  14.700   4.200   6.025
 5782SOL     OW19242  12.647  10.462   3.624
 5782SOL    HW119243  12.717  10.525   3.638
 5782SOL    HW219244  12.680  10.380   3.662
 5783SOL     OW19245   2.677   7.336  12.784
 5783SOL    HW119246   2.760   7.342  12.736
 5783SOL    HW219247   2.642   7.250  12.760
 5784SOL     OW19248  10.237   0.142   3.447
 5784SOL    HW119249  10.232   0.224   3.497
 5784SOL    HW219250  10.308   0.093   3.490
 5785SOL     OW19251  10.432   3.745   6.278
 5785SOL    HW119252  10.412   3.652   6.266
 5785SOL    HW219253  10.431   3.758   6.372
 5786SOL     OW19254   1.785  14.104   4.147
 5786SOL    HW119255   1.786  14.035   4.213
 5786SOL    HW219256   1.876  14.135   4.143
 5787SOL     OW19257   5.611   5.432   1.336
 5787SOL    HW119258   5.650   5.348   1.311
 5787SOL    HW219259   5.584   5.471   1.253
 5788SOL     OW19260   6.142   6.044   6.340
 5788SOL    HW119261   6.119   5.967   6.392
 5788SOL    HW219262   6.225   6.073   6.375
 5789SOL     OW19263  14.380   1.460   7.538
 5789SOL    HW119264  14.288   1.466   7.510
 5789SOL    HW219265  14.381   1.502   7.625
 5790SOL     OW19266  13.240  11.768   9.561
 5790SOL    HW119267  13.234  11.762   9.656
 5790SOL    HW219268  13.268  11.681   9.533
 5791SOL     OW19269   3.161  10.482  10.732
 5791SOL    HW119270   3.095  10.532  10.684
 5791SOL    HW219271   3.111  10.418  10.783
 5792SOL     OW19272   8.817   3.136   4.394
 5792SOL    HW119273   8.886   3.199   4.372
 5792SOL    HW219274   8.745   3.159   4.336
 5793SOL     OW19275   5.250  13.096  13.953
 5793SOL    HW119276   5.212  13.049  13.879
 5793SOL    HW219277   5.216  13.185  13.944
 5794SOL     OW19278   2.960  13.429   0.359
 5794SOL    HW119279   2.907  13.472   0.426
 5794SOL    HW219280   2.913  13.443   0.277
 5795SOL     OW19281   8.583   9.912  13.963
 5795SOL    HW119282   8.517   9.879  14.024
 5795SOL    HW219283   8.540   9.907  13.877
 5796SOL     OW19284   5.358   5.515  11.359
 5796SOL    HW119285   5.403   5.590  11.399
 5796SOL    HW219286   5.420   5.481  11.295
 5797SOL     OW19287   8.036   0.986  10.804
 5797SOL    HW119288   8.108   1.034  10.762
 5797SOL    HW219289   7.972   1.054  10.825
 5798SOL     OW19290  10.156   9.045  11.138
 5798SOL    HW119291  10.119   9.042  11.226
 5798SOL    HW219292  10.233   9.100  11.146
 5799SOL     OW19293  11.721   5.855   6.216
 5799SOL    HW119294  11.775   5.777   6.201
 5799SOL    HW219295  11.673   5.836   6.296
 5800SOL     OW19296   9.166   0.919  14.289
 5800SOL    HW119297   9.244   0.879  14.250
 5800SOL    HW219298   9.111   0.845  14.314
 5801SOL     OW19299  11.946  10.359   7.380
 5801SOL    HW119300  11.923  10.398   7.296
 5801SOL    HW219301  11.993  10.279   7.358
 5802SOL     OW19302   8.947  12.002   7.745
 5802SOL    HW119303   9.014  12.018   7.680
 5802SOL    HW219304   8.891  11.934   7.706
 5803SOL     OW19305   8.496  10.517  13.643
 5803SOL    HW119306   8.402  10.534  13.634
 5803SOL    HW219307   8.537  10.571  13.576
 5804SOL     OW19308   9.672  14.332   5.592
 5804SOL    HW119309   9.657  14.238   5.599
 5804SOL    HW219310   9.710  14.356   5.677
 5805SOL     OW19311   7.443  14.163   8.949
 5805SOL    HW119312   7.441  14.245   8.899
 5805SOL    HW219313   7.358  14.123   8.934
 5806SOL     OW19314   3.751   5.953   4.266
 5806SOL    HW119315   3.756   5.995   4.352
 5806SOL    HW219316   3.664   5.914   4.263
 5807SOL     OW19317   6.719   8.739   1.935
 5807SOL    HW119318   6.721   8.833   1.951
 5807SOL    HW219319   6.798   8.722   1.882
 5808SOL     OW19320   7.056  13.755  10.377
 5808SOL    HW119321   6.964  13.778  10.387
 5808SOL    HW219322   7.103  13.839  10.377
 5809SOL     OW19323   6.352   4.140   8.190
 5809SOL    HW119324   6.260   4.149   8.166
 5809SOL    HW219325   6.399   4.193   8.126
 5810SOL     OW19326  14.070   6.755  13.147
 5810SOL    HW119327  14.123   6.716  13.078
 5810SOL    HW219328  14.075   6.849  13.131
 5811SOL     OW19329   9.659   9.205  14.438
 5811SOL    HW119330   9.685   9.290  14.474
 5811SOL    HW219331   9.596   9.226  14.370
 5812SOL     OW19332   8.830  13.748   9.040
 5812SOL    HW119333   8.779  13.793   9.107
 5812SOL    HW219334   8.807  13.655   9.051
 5813SOL     OW19335  10.496   1.869  12.171
 5813SOL    HW119336  10.409   1.845  12.137
 5813SOL    HW219337  10.535   1.785  12.196
 5814SOL     OW19338  14.645   7.727   8.621
 5814SOL    HW119339  14.651   7.818   8.591
 5814SOL    HW219340  14.577   7.688   8.565
 5815SOL     OW19341  13.422  13.798  10.270
 5815SOL    HW119342  13.470  13.839  10.198
 5815SOL    HW219343  13.404  13.869  10.330
 5816SOL     OW19344   7.210   9.625   7.851
 5816SOL    HW119345   7.153   9.687   7.805
 5816SOL    HW219346   7.150   9.561   7.890
 5817SOL     OW19347  12.266  13.208  12.200
 5817SOL    HW119348  12.206  13.281  12.181
 5817SOL    HW219349  12.338  13.220  12.139
 5818SOL     OW19350   2.924  11.429   3.138
 5818SOL    HW119351   2.980  11.375   3.082
 5818SOL    HW219352   2.889  11.495   3.079
 5819SOL     OW19353   7.736   7.375   0.766
 5819SOL    HW119354   7.822   7.394   0.728
 5819SOL    HW219355   7.754   7.314   0.837
 5820SOL     OW19356   1.276   1.538   7.379
 5820SOL    HW119357   1.218   1.465   7.399
 5820SOL    HW219358   1.339   1.539   7.452
 5821SOL     OW19359  14.404   9.539   2.541
 5821SOL    HW119360  14.333   9.602   2.557
 5821SOL    HW219361  14.361   9.454   2.542
 5822SOL     OW19362   1.806  12.729   8.016
 5822SOL    HW119363   1.728  12.757   7.967
 5822SOL    HW219364   1.879  12.760   7.964
 5823SOL     OW19365   5.009   4.740   6.948
 5823SOL    HW119366   4.954   4.718   7.023
 5823SOL    HW219367   4.967   4.696   6.874
 5824SOL     OW19368  11.721  11.905   3.330
 5824SOL    HW119369  11.656  11.874   3.268
 5824SOL    HW219370  11.676  11.907   3.414
 5825SOL     OW19371   6.325   8.722  13.722
 5825SOL    HW119372   6.238   8.730  13.684
 5825SOL    HW219373   6.310   8.690  13.811
 5826SOL     OW19374   5.377   9.382  14.786
 5826SOL    HW119375   5.324   9.408  14.711
 5826SOL    HW219376   5.332   9.304  14.821
 5827SOL     OW19377   2.910  11.454   2.069
 5827SOL    HW119378   2.861  11.411   2.139
 5827SOL    HW219379   2.956  11.382   2.025
 5828SOL     OW19380   2.059   7.967   7.137
 5828SOL    HW119381   2.018   8.054   7.143
 5828SOL    HW219382   1.988   7.906   7.154
 5829SOL     OW19383  10.043  11.281   1.281
 5829SOL    HW119384  10.082  11.280   1.368
 5829SOL    HW219385   9.965  11.335   1.290
 5830SOL     OW19386   2.951   6.171   9.179
 5830SOL    HW119387   2.999   6.215   9.109
 5830SOL    HW219388   2.983   6.213   9.260
 5831SOL     OW19389   3.729   7.995   4.644
 5831SOL    HW119390   3.733   8.033   4.732
 5831SOL    HW219391   3.748   8.068   4.586
 5832SOL     OW19392   6.776   8.798   3.657
 5832SOL    HW119393   6.736   8.845   3.729
 5832SOL    HW219394   6.837   8.860   3.618
 5833SOL     OW19395   9.542  10.019  10.707
 5833SOL    HW119396   9.544  10.102  10.661
 5833SOL    HW219397   9.517   9.955  10.641
 5834SOL     OW19398   7.829  10.042  13.730
 5834SOL    HW119399   7.781   9.979  13.783
 5834SOL    HW219400   7.794  10.030  13.641
 5835SOL     OW19401   8.494   1.767   7.127
 5835SOL    HW119402   8.413   1.753   7.077
 5835SOL    HW219403   8.485   1.855   7.164
 5836SOL     OW19404  10.281   7.885   6.481
 5836SOL    HW119405  10.213   7.881   6.548
 5836SOL    HW219406  10.311   7.976   6.484
 5837SOL     OW19407   8.520  12.860   9.398
 5837SOL    HW119408   8.542  12.948   9.429
 5837SOL    HW219409   8.600  12.827   9.356
 5838SOL     OW19410   9.513   6.416  14.811
 5838SOL    HW119411   9.508   6.480  14.740
 5838SOL    HW219412   9.577   6.453  14.872
 5839SOL     OW19413   6.233  11.637   2.782
 5839SOL    HW119414   6.268  11.655   2.870
 5839SOL    HW219415   6.142  11.610   2.799
 5840SOL     OW19416   4.738   7.545  10.738
 5840SOL    HW119417   4.738   7.639  10.758
 5840SOL    HW219418   4.817   7.531  10.686
 5841SOL     OW19419  11.304   9.540   9.201
 5841SOL    HW119420  11.228   9.531   9.143
 5841SOL    HW219421  11.332   9.451   9.218
 5842SOL     OW19422   5.854   3.786  12.148
 5842SOL    HW119423   5.936   3.737  12.147
 5842SOL    HW219424   5.876   3.868  12.191
 5843SOL     OW19425   7.315   5.663  14.781
 5843SOL    HW119426   7.409   5.668  14.763
 5843SOL    HW219427   7.283   5.596  14.720
 5844SOL     OW19428   7.755   8.200   2.164
 5844SOL    HW119429   7.827   8.197   2.227
 5844SOL    HW219430   7.782   8.140   2.094
 5845SOL     OW19431   3.106   5.671  12.929
 5845SOL    HW119432   3.053   5.746  12.901
 5845SOL    HW219433   3.180   5.671  12.867
 5846SOL     OW19434  14.579  11.821  12.838
 5846SOL    HW119435  14.521  11.758  12.881
 5846SOL    HW219436  14.564  11.807  12.745
 5847SOL     OW19437  13.941  14.528  13.472
 5847SOL    HW119438  13.854  14.555  13.501
 5847SOL    HW219439  14.000  14.561  13.539
 5848SOL     OW19440  11.963   3.641   4.555
 5848SOL    HW119441  12.013   3.720   4.535
 5848SOL    HW219442  11.901   3.633   4.482
 5849SOL     OW19443   3.311  11.625  12.228
 5849SOL    HW119444   3.400  11.592  12.221
 5849SOL    HW219445   3.259  11.565  12.172
 5850SOL     OW19446   0.151   7.007  14.549
 5850SOL    HW119447   0.201   6.927  14.567
 5850SOL    HW219448   0.212   7.078  14.566
 5851SOL     OW19449  11.679   5.288   8.713
 5851SOL    HW119450  11.695   5.382   8.722
 5851SOL    HW219451  11.646   5.261   8.798
 5852SOL     OW19452  13.205   5.891  10.392
 5852SOL    HW119453  13.251   5.841  10.325
 5852SOL    HW219454  13.120   5.912  10.351
 5853SOL     OW19455   9.781  12.055   8.741
 5853SOL    HW119456   9.758  12.020   8.655
 5853SOL    HW219457   9.839  12.129   8.722
 5854SOL     OW19458  11.811  12.364   3.725
 5854SOL    HW119459  11.838  12.341   3.637
 5854SOL    HW219460  11.718  12.387   3.717
 5855SOL     OW19461   7.069   4.864   1.988
 5855SOL    HW119462   7.121   4.901   2.059
 5855SOL    HW219463   7.130   4.810   1.939
 5856SOL     OW19464  14.417  12.773   4.570
 5856SOL    HW119465  14.342  12.714   4.577
 5856SOL    HW219466  14.421  12.817   4.655
 5857SOL     OW19467   7.959  11.075   6.562
 5857SOL    HW119468   8.022  11.008   6.587
 5857SOL    HW219469   7.961  11.138   6.634
 5858SOL     OW19470   3.515  11.352   8.835
 5858SOL    HW119471   3.466  11.386   8.910
 5858SOL    HW219472   3.585  11.300   8.874
 5859SOL     OW19473  13.307  11.678  10.573
 5859SOL    HW119474  13.273  11.765  10.593
 5859SOL    HW219475  13.287  11.625  10.650
 5860SOL     OW19476  10.662   1.049   7.817
 5860SOL    HW119477  10.721   1.123   7.803
 5860SOL    HW219478  10.701   0.977   7.767
 5861SOL     OW19479  11.293   5.054   9.185
 5861SOL    HW119480  11.332   4.968   9.172
 5861SOL    HW219481  11.238   5.068   9.108
 5862SOL     OW19482  13.327  13.917  14.462
 5862SOL    HW119483  13.317  13.934  14.368
 5862SOL    HW219484  13.256  13.964  14.504
 5863SOL     OW19485   9.366   9.825   0.189
 5863SOL    HW119486   9.278   9.863   0.199
 5863SOL    HW219487   9.355   9.756   0.124
 5864SOL     OW19488  14.252   3.184   5.521
 5864SOL    HW119489  14.217   3.188   5.610
 5864SOL    HW219490  14.232   3.095   5.492
 5865SOL     OW19491   8.053   9.691   1.637
 5865SOL    HW119492   8.089   9.720   1.553
 5865SOL    HW219493   8.128   9.688   1.695
 5866SOL     OW19494  12.751   1.040   6.641
 5866SOL    HW119495  12.805   0.962   6.629
 5866SOL    HW219496  12.667   1.007   6.672
 5867SOL     OW19497   5.328   6.275   5.460
 5867SOL    HW119498   5.418   6.269   5.428
 5867SOL    HW219499   5.323   6.210   5.530
 5868SOL     OW19500   7.726   7.765  10.604
 5868SOL    HW119501   7.761   7.803  10.524
 5868SOL    HW219502   7.778   7.805  10.674
 5869SOL     OW19503   1.925   9.387   1.152
 5869SOL    HW119504   2.013   9.416   1.174
 5869SOL    HW219505   1.905   9.432   1.069
 5870SOL     OW19506   6.089  13.748   8.006
 5870SOL    HW119507   6.160  13.780   8.063
 5870SOL    HW219508   6.127  13.673   7.960
 5871SOL     OW19509  14.323  11.076  10.696
 5871SOL    HW119510  14.382  11.002  10.689
 5871SOL    HW219511  14.284  11.069  10.783
 5872SOL     OW19512   2.903  11.910   1.525
 5872SOL    HW119513   2.963  11.838   1.504
 5872SOL    HW219514   2.862  11.931   1.441
 5873SOL     OW19515  10.552   2.098   7.468
 5873SOL    HW119516  10.501   2.048   7.532
 5873SOL    HW219517  10.607   2.033   7.425
 5874SOL     OW19518  11.571   8.034  14.876
 5874SOL    HW119519  11.507   7.987   0.053
 5874SOL    HW219520  11.656   8.009   0.034
 5875SOL     OW19521   9.906   9.315   7.993
 5875SOL    HW119522   9.904   9.379   8.064
 5875SOL    HW219523   9.814   9.299   7.972
 5876SOL     OW19524   0.927   4.851   0.336
 5876SOL    HW119525   0.909   4.915   0.404
 5876SOL    HW219526   0.859   4.867   0.270
 5877SOL     OW19527   8.721  14.138   9.084
 5877SOL    HW119528   8.650  14.128   9.020
 5877SOL    HW219529   8.683  14.191   9.154
 5878SOL     OW19530   7.352   9.000  14.434
 5878SOL    HW119531   7.444   9.004  14.458
 5878SOL    HW219532   7.318   8.926  14.484
 5879SOL     OW19533   8.531   1.437   6.638
 5879SOL    HW119534   8.614   1.390   6.650
 5879SOL    HW219535   8.497   1.404   6.555
 5880SOL     OW19536  12.662  14.191   3.107
 5880SOL    HW119537  12.683  14.253   3.177
 5880SOL    HW219538  12.593  14.136   3.144
 5881SOL     OW19539   6.412  10.831  14.229
 5881SOL    HW119540   6.470  10.774  14.179
 5881SOL    HW219541   6.331  10.832  14.178
 5882SOL     OW19542   1.414  10.106   4.734
 5882SOL    HW119543   1.466  10.141   4.806
 5882SOL    HW219544   1.360  10.038   4.773
 5883SOL     OW19545  11.384   3.324   6.385
 5883SOL    HW119546  11.317   3.379   6.345
 5883SOL    HW219547  11.348   3.235   6.380
 5884SOL     OW19548   3.906  10.746   6.882
 5884SOL    HW119549   3.899  10.834   6.844
 5884SOL    HW219550   3.937  10.761   6.971
 5885SOL     OW19551  11.559  14.412  11.548
 5885SOL    HW119552  11.583  14.385  11.636
 5885SOL    HW219553  11.550  14.507  11.553
 5886SOL     OW19554   3.344  14.101  10.129
 5886SOL    HW119555   3.251  14.076  10.131
 5886SOL    HW219556   3.360  14.125  10.038
 5887SOL     OW19557   0.619   6.987   8.455
 5887SOL    HW119558   0.529   7.018   8.442
 5887SOL    HW219559   0.612   6.891   8.449
 5888SOL     OW19560  13.762  11.131   7.857
 5888SOL    HW119561  13.770  11.196   7.788
 5888SOL    HW219562  13.677  11.090   7.843
 5889SOL     OW19563  10.834   8.009   7.947
 5889SOL    HW119564  10.823   7.953   8.023
 5889SOL    HW219565  10.764   8.074   7.954
 5890SOL     OW19566   0.965   9.381   7.319
 5890SOL    HW119567   0.928   9.462   7.355
 5890SOL    HW219568   1.000   9.336   7.395
 5891SOL     OW19569   1.998  12.405   4.161
 5891SOL    HW119570   2.066  12.469   4.179
 5891SOL    HW219571   1.989  12.405   4.065
 5892SOL     OW19572   1.253   6.889  14.060
 5892SOL    HW119573   1.188   6.822  14.081
 5892SOL    HW219574   1.226   6.965  14.112
 5893SOL     OW19575  12.109  12.796  10.659
 5893SOL    HW119576  12.119  12.857  10.732
 5893SOL    HW219577  12.014  12.787  10.648
 5894SOL     OW19578  14.470  12.981  12.629
 5894SOL    HW119579  14.422  12.904  12.599
 5894SOL    HW219580  14.558  12.948  12.647
 5895SOL     OW19581   2.808  11.473   0.927
 5895SOL    HW119582   2.810  11.515   0.841
 5895SOL    HW219583   2.720  11.435   0.934
 5896SOL     OW19584  12.222  12.025  13.587
 5896SOL    HW119585  12.160  12.082  13.632
 5896SOL    HW219586  12.168  11.954  13.551
 5897SOL     OW19587   9.611   5.680  14.750
 5897SOL    HW119588   9.578   5.604  14.703
 5897SOL    HW219589   9.550   5.750  14.728
 5898SOL     OW19590   6.373   0.813  12.037
 5898SOL    HW119591   6.450   0.865  12.009
 5898SOL    HW219592   6.408   0.752  12.102
 5899SOL     OW19593  14.430   0.482   6.791
 5899SOL    HW119594  14.399   0.482   6.882
 5899SOL    HW219595  14.450   0.390   6.773
 5900SOL     OW19596  14.038  13.599   5.976
 5900SOL    HW119597  14.011  13.604   6.068
 5900SOL    HW219598  14.130  13.625   5.977
 5901SOL     OW19599  14.372   6.244   0.646
 5901SOL    HW119600  14.464   6.217   0.647
 5901SOL    HW219601  14.363   6.302   0.721
 5902SOL     OW19602  13.127  10.579   0.834
 5902SOL    HW119603  13.154  10.601   0.744
 5902SOL    HW219604  13.038  10.614   0.841
 5903SOL     OW19605   1.165   5.890   4.334
 5903SOL    HW119606   1.077   5.852   4.331
 5903SOL    HW219607   1.208   5.846   4.407
 5904SOL     OW19608   6.731  12.268   0.254
 5904SOL    HW119609   6.681  12.253   0.173
 5904SOL    HW219610   6.801  12.328   0.228
 5905SOL     OW19611   8.723   0.436   3.980
 5905SOL    HW119612   8.643   0.425   4.032
 5905SOL    HW219613   8.764   0.515   4.015
 5906SOL     OW19614   1.255   8.189   8.497
 5906SOL    HW119615   1.190   8.134   8.541
 5906SOL    HW219616   1.329   8.190   8.557
 5907SOL     OW19617  11.267   8.950   9.247
 5907SOL    HW119618  11.245   8.931   9.338
 5907SOL    HW219619  11.363   8.946   9.243
 5908SOL     OW19620   8.025  13.673  10.343
 5908SOL    HW119621   7.937  13.666  10.381
 5908SOL    HW219622   8.065  13.746  10.389
 5909SOL     OW19623   4.182   8.698   3.164
 5909SOL    HW119624   4.105   8.671   3.213
 5909SOL    HW219625   4.184   8.793   3.174
 5910SOL     OW19626   2.108  11.039   9.909
 5910SOL    HW119627   2.073  11.085   9.985
 5910SOL    HW219628   2.035  10.985   9.878
 5911SOL     OW19629   6.123   4.115  13.975
 5911SOL    HW119630   6.073   4.131  14.055
 5911SOL    HW219631   6.061   4.074  13.915
 5912SOL     OW19632  14.295   2.676   3.006
 5912SOL    HW119633  14.320   2.733   3.079
 5912SOL    HW219634  14.352   2.599   3.015
 5913SOL     OW19635   0.773   7.829   2.343
 5913SOL    HW119636   0.712   7.851   2.414
 5913SOL    HW219637   0.756   7.894   2.275
 5914SOL     OW19638   9.582   9.874   1.094
 5914SOL    HW119639   9.642   9.801   1.111
 5914SOL    HW219640   9.588   9.929   1.172
 5915SOL     OW19641   1.316   2.639  14.504
 5915SOL    HW119642   1.320   2.724  14.548
 5915SOL    HW219643   1.270   2.582  14.566
 5916SOL     OW19644   8.996   1.912   6.956
 5916SOL    HW119645   8.960   1.837   6.909
 5916SOL    HW219646   8.920   1.962   6.986
 5917SOL     OW19647   5.095   7.819   4.538
 5917SOL    HW119648   5.063   7.738   4.578
 5917SOL    HW219649   5.140   7.865   4.608
 5918SOL     OW19650   0.036  13.960  11.616
 5918SOL    HW119651  14.831  13.975  11.661
 5918SOL    HW219652   0.074  13.883  11.660
 5919SOL     OW19653   6.919   7.066   9.589
 5919SOL    HW119654   7.010   7.080   9.562
 5919SOL    HW219655   6.925   7.002   9.660
 5920SOL     OW19656   9.603   7.747   1.853
 5920SOL    HW119657   9.559   7.699   1.782
 5920SOL    HW219658   9.580   7.697   1.932
 5921SOL     OW19659   8.617   4.961  11.643
 5921SOL    HW119660   8.597   5.050  11.672
 5921SOL    HW219661   8.660   4.920  11.718
 5922SOL     OW19662  13.287  14.437  10.125
 5922SOL    HW119663  13.291  14.447  10.220
 5922SOL    HW219664  13.368  14.391  10.102
 5923SOL     OW19665  13.768   4.732   9.888
 5923SOL    HW119666  13.739   4.660   9.944
 5923SOL    HW219667  13.830   4.781   9.942
 5924SOL     OW19668  12.506   2.710   5.885
 5924SOL    HW119669  12.536   2.800   5.875
 5924SOL    HW219670  12.424   2.717   5.935
 5925SOL     OW19671  12.362   4.410   7.785
 5925SOL    HW119672  12.393   4.500   7.786
 5925SOL    HW219673  12.267   4.417   7.774
 5926SOL     OW19674   2.648   9.742   7.757
 5926SOL    HW119675   2.697   9.799   7.817
 5926SOL    HW219676   2.666   9.654   7.788
 5927SOL     OW19677  14.816  11.810   9.341
 5927SOL    HW119678  14.871  11.850   9.274
 5927SOL    HW219679  14.759  11.750   9.293
 5928SOL     OW19680   1.314   8.779   8.695
 5928SOL    HW119681   1.368   8.797   8.772
 5928SOL    HW219682   1.372   8.798   8.621
 5929SOL     OW19683   7.643   3.744   3.939
 5929SOL    HW119684   7.640   3.791   3.856
 5929SOL    HW219685   7.575   3.785   3.992
 5930SOL     OW19686   9.844   2.146   5.578
 5930SOL    HW119687   9.893   2.151   5.495
 5930SOL    HW219688   9.869   2.226   5.624
 5931SOL     OW19689   3.070   6.663   4.307
 5931SOL    HW119690   3.166   6.667   4.303
 5931SOL    HW219691   3.042   6.668   4.216
 5932SOL     OW19692  12.783   8.033   8.347
 5932SOL    HW119693  12.793   8.055   8.255
 5932SOL    HW219694  12.699   7.987   8.352
 5933SOL     OW19695   2.923   7.517   2.774
 5933SOL    HW119696   3.004   7.541   2.820
 5933SOL    HW219697   2.854   7.534   2.838
 5934SOL     OW19698   5.898   5.083   7.089
 5934SOL    HW119699   5.977   5.043   7.125
 5934SOL    HW219700   5.926   5.169   7.059
 5935SOL     OW19701   4.759  10.068   3.403
 5935SOL    HW119702   4.786   9.984   3.366
 5935SOL    HW219703   4.667  10.057   3.425
 5936SOL     OW19704  12.357   7.459   8.597
 5936SOL    HW119705  12.358   7.385   8.535
 5936SOL    HW219706  12.450   7.473   8.617
 5937SOL     OW19707   1.667  10.892   8.609
 5937SOL    HW119708   1.703  10.814   8.651
 5937SOL    HW219709   1.697  10.964   8.664
 5938SOL     OW19710   7.743   0.084   5.556
 5938SOL    HW119711   7.715  14.873   5.582
 5938SOL    HW219712   7.734   0.136   5.636
 5939SOL     OW19713  14.531  11.040   8.754
 5939SOL    HW119714  14.469  10.986   8.804
 5939SOL    HW219715  14.609  10.986   8.746
 5940SOL     OW19716  13.239   9.722   3.943
 5940SOL    HW119717  13.189   9.801   3.923
 5940SOL    HW219718  13.326   9.740   3.909
 5941SOL     OW19719  14.837  10.064  13.027
 5941SOL    HW119720  14.809  10.151  13.057
 5941SOL    HW219721  14.794  10.053  12.942
 5942SOL     OW19722  13.754   7.163   2.477
 5942SOL    HW119723  13.729   7.254   2.462
 5942SOL    HW219724  13.848   7.167   2.497
 5943SOL     OW19725  13.001  10.128  14.873
 5943SOL    HW119726  12.915  10.103  14.840
 5943SOL    HW219727  13.037  10.048   0.034
 5944SOL     OW19728  11.262  10.172   1.260
 5944SOL    HW119729  11.340  10.131   1.297
 5944SOL    HW219730  11.202  10.099   1.244
 5945SOL     OW19731  13.479  12.289   6.152
 5945SOL    HW119732  13.438  12.374   6.132
 5945SOL    HW219733  13.455  12.272   6.243
 5946SOL     OW19734  13.753  14.673  14.272
 5946SOL    HW119735  13.827  14.646  14.327
 5946SOL    HW219736  13.710  14.742  14.323
 5947SOL     OW19737   7.020   9.417  14.855
 5947SOL    HW119738   7.029   9.327   0.009
 5947SOL    HW219739   7.077   9.423  14.779
 5948SOL     OW19740   1.003   3.944  14.279
 5948SOL    HW119741   0.978   3.865  14.328
 5948SOL    HW219742   1.097   3.954  14.298
 5949SOL     OW19743   8.775   3.127   6.185
 5949SOL    HW119744   8.760   3.158   6.274
 5949SOL    HW219745   8.737   3.039   6.184
 5950SOL     OW19746  14.368   5.146   5.395
 5950SOL    HW119747  14.374   5.081   5.325
 5950SOL    HW219748  14.277   5.144   5.423
 5951SOL     OW19749   5.792   9.283  13.774
 5951SOL    HW119750   5.748   9.296  13.858
 5951SOL    HW219751   5.883   9.307  13.791
 5952SOL     OW19752  10.221  13.784   2.598
 5952SOL    HW119753  10.202  13.717   2.663
 5952SOL    HW219754  10.140  13.792   2.547
 5953SOL     OW19755   9.789   5.629   9.568
 5953SOL    HW119756   9.818   5.656   9.655
 5953SOL    HW219757   9.780   5.534   9.574
 5954SOL     OW19758   9.108   4.167   1.738
 5954SOL    HW119759   9.034   4.205   1.785
 5954SOL    HW219760   9.073   4.148   1.651
 5955SOL     OW19761   2.179   9.538   4.007
 5955SOL    HW119762   2.233   9.487   3.947
 5955SOL    HW219763   2.110   9.477   4.034
 5956SOL     OW19764   1.986  13.138  13.709
 5956SOL    HW119765   1.959  13.229  13.717
 5956SOL    HW219766   1.940  13.106  13.632
 5957SOL     OW19767  13.037   9.598   5.257
 5957SOL    HW119768  13.087   9.646   5.191
 5957SOL    HW219769  13.063   9.637   5.340
 5958SOL     OW19770   1.559  11.845   2.855
 5958SOL    HW119771   1.521  11.795   2.927
 5958SOL    HW219772   1.654  11.843   2.872
 5959SOL     OW19773  11.903   6.008  12.976
 5959SOL    HW119774  11.936   6.030  13.063
 5959SOL    HW219775  11.850   6.083  12.951
 5960SOL     OW19776  11.872  13.870  11.485
 5960SOL    HW119777  11.850  13.840  11.396
 5960SOL    HW219778  11.799  13.927  11.509
 5961SOL     OW19779   4.754  14.524  10.282
 5961SOL    HW119780   4.692  14.480  10.341
 5961SOL    HW219781   4.753  14.472  10.202
 5962SOL     OW19782   2.950   2.497   5.536
 5962SOL    HW119783   2.963   2.438   5.462
 5962SOL    HW219784   3.016   2.566   5.524
 5963SOL     OW19785   6.307   8.978   7.772
 5963SOL    HW119786   6.256   8.902   7.744
 5963SOL    HW219787   6.249   9.053   7.757
 5964SOL     OW19788   9.070   2.065   1.938
 5964SOL    HW119789   9.036   1.988   1.894
 5964SOL    HW219790   9.048   2.138   1.880
 5965SOL     OW19791   5.424   1.460  14.526
 5965SOL    HW119792   5.377   1.386  14.564
 5965SOL    HW219793   5.362   1.499  14.464
 5966SOL     OW19794   3.633   7.453  14.849
 5966SOL    HW119795   3.638   7.477   0.064
 5966SOL    HW219796   3.541   7.465  14.826
 5967SOL     OW19797   5.609   2.934   8.942
 5967SOL    HW119798   5.703   2.916   8.941
 5967SOL    HW219799   5.573   2.863   8.996
 5968SOL     OW19800   4.343   1.394   0.197
 5968SOL    HW119801   4.375   1.320   0.249
 5968SOL    HW219802   4.349   1.469   0.255
 5969SOL     OW19803  13.267   3.797   2.693
 5969SOL    HW119804  13.290   3.890   2.701
 5969SOL    HW219805  13.173   3.798   2.673
 5970SOL     OW19806  13.768   0.027   1.677
 5970SOL    HW119807  13.758  14.864   1.763
 5970SOL    HW219808  13.760   0.121   1.694
 5971SOL     OW19809   7.535   1.482   8.899
 5971SOL    HW119810   7.483   1.507   8.976
 5971SOL    HW219811   7.621   1.520   8.915
 5972SOL     OW19812   8.092  13.652  11.985
 5972SOL    HW119813   8.143  13.733  11.980
 5972SOL    HW219814   8.004  13.681  12.009
 5973SOL     OW19815   7.241   6.947   5.580
 5973SOL    HW119816   7.177   6.888   5.541
 5973SOL    HW219817   7.207   6.966   5.668
 5974SOL     OW19818   0.810   0.767   9.294
 5974SOL    HW119819   0.716   0.748   9.297
 5974SOL    HW219820   0.827   0.790   9.203
 5975SOL     OW19821   6.346   1.409   2.505
 5975SOL    HW119822   6.393   1.470   2.562
 5975SOL    HW219823   6.413   1.347   2.476
 5976SOL     OW19824   2.714   2.420   3.029
 5976SOL    HW119825   2.648   2.489   3.029
 5976SOL    HW219826   2.666   2.341   3.055
 5977SOL     OW19827  13.673   2.953   5.150
 5977SOL    HW119828  13.703   3.018   5.087
 5977SOL    HW219829  13.605   2.905   5.104
 5978SOL     OW19830   5.294   8.409   9.415
 5978SOL    HW119831   5.349   8.333   9.430
 5978SOL    HW219832   5.337   8.457   9.344
 5979SOL     OW19833   1.199  11.599   9.032
 5979SOL    HW119834   1.194  11.561   8.944
 5979SOL    HW219835   1.256  11.539   9.081
 5980SOL     OW19836   2.298   4.303  10.647
 5980SOL    HW119837   2.288   4.320  10.553
 5980SOL    HW219838   2.389   4.326  10.666
 5981SOL     OW19839  11.425  14.824  10.247
 5981SOL    HW119840  11.344  14.809  10.297
 5981SOL    HW219841  11.494  14.790  10.303
 5982SOL     OW19842   1.351   7.463   1.356
 5982SOL    HW119843   1.264   7.472   1.395
 5982SOL    HW219844   1.404   7.424   1.425
 5983SOL     OW19845   0.736  10.870   9.210
 5983SOL    HW119846   0.760  10.927   9.283
 5983SOL    HW219847   0.702  10.790   9.251
 5984SOL     OW19848  11.803  13.984  13.620
 5984SOL    HW119849  11.886  13.980  13.666
 5984SOL    HW219850  11.820  14.040  13.544
 5985SOL     OW19851   1.787   7.538  13.336
 5985SOL    HW119852   1.750   7.464  13.385
 5985SOL    HW219853   1.791   7.507  13.245
 5986SOL     OW19854   5.427   5.671   8.183
 5986SOL    HW119855   5.519   5.685   8.208
 5986SOL    HW219856   5.377   5.702   8.258
 5987SOL     OW19857   1.189   6.351   0.366
 5987SOL    HW119858   1.258   6.369   0.429
 5987SOL    HW219859   1.124   6.420   0.380
 5988SOL     OW19860   5.569   0.477   3.870
 5988SOL    HW119861   5.660   0.509   3.871
 5988SOL    HW219862   5.524   0.529   3.936
 5989SOL     OW19863   1.523  12.919   0.713
 5989SOL    HW119864   1.551  12.873   0.792
 5989SOL    HW219865   1.530  13.011   0.736
 5990SOL     OW19866  13.167   4.461   7.556
 5990SOL    HW119867  13.164   4.367   7.535
 5990SOL    HW219868  13.256   4.488   7.534
 5991SOL     OW19869   4.195   7.119   2.494
 5991SOL    HW119870   4.242   7.036   2.478
 5991SOL    HW219871   4.140   7.102   2.570
 5992SOL     OW19872   5.621   4.208   4.197
 5992SOL    HW119873   5.608   4.222   4.291
 5992SOL    HW219874   5.534   4.213   4.159
 5993SOL     OW19875   8.975  11.601   4.659
 5993SOL    HW119876   9.071  11.600   4.666
 5993SOL    HW219877   8.951  11.692   4.674
 5994SOL     OW19878  11.962   9.623   8.909
 5994SOL    HW119879  12.046   9.664   8.927
 5994SOL    HW219880  11.954   9.555   8.977
 5995SOL     OW19881  14.501   0.220   6.791
 5995SOL    HW119882  14.493   0.130   6.759
 5995SOL    HW219883  14.585   0.222   6.836
 5996SOL     OW19884  14.286   7.527   1.458
 5996SOL    HW119885  14.319   7.540   1.369
 5996SOL    HW219886  14.250   7.612   1.483
 5997SOL     OW19887   5.607  11.781   9.498
 5997SOL    HW119888   5.575  11.843   9.564
 5997SOL    HW219889   5.591  11.695   9.537
 5998SOL     OW19890   6.530   1.894   2.901
 5998SOL    HW119891   6.611   1.844   2.912
 5998SOL    HW219892   6.519   1.940   2.984
 5999SOL     OW19893   0.186  11.973   3.176
 5999SOL    HW119894   0.215  12.063   3.165
 5999SOL    HW219895   0.138  11.953   3.096
 6000SOL     OW19896   5.315   9.434   2.570
 6000SOL    HW119897   5.250   9.502   2.584
 6000SOL    HW219898   5.370   9.437   2.649
 6001SOL     OW19899   4.555   0.202  10.600
 6001SOL    HW119900   4.572   0.289  10.637
 6001SOL    HW219901   4.632   0.150  10.624
 6002SOL     OW19902   6.470   8.765   4.537
 6002SOL    HW119903   6.380   8.793   4.520
 6002SOL    HW219904   6.462   8.688   4.593
 6003SOL     OW19905   2.284   2.056   3.074
 6003SOL    HW119906   2.294   1.998   3.150
 6003SOL    HW219907   2.230   2.006   3.013
 6004SOL     OW19908   1.322  14.750  12.682
 6004SOL    HW119909   1.414  14.728  12.670
 6004SOL    HW219910   1.276  14.667  12.665
 6005SOL     OW19911   2.564  10.176   7.718
 6005SOL    HW119912   2.496  10.135   7.770
 6005SOL    HW219913   2.587  10.111   7.652
 6006SOL     OW19914   7.484   9.465   2.746
 6006SOL    HW119915   7.494   9.517   2.666
 6006SOL    HW219916   7.574   9.449   2.774
 6007SOL     OW19917  10.938  10.525   1.273
 6007SOL    HW119918  11.034  10.520   1.278
 6007SOL    HW219919  10.920  10.613   1.241
 6008SOL     OW19920  10.130   8.253   6.326
 6008SOL    HW119921  10.147   8.206   6.409
 6008SOL    HW219922  10.203   8.314   6.318
 6009SOL     OW19923  11.609  11.865   0.201
 6009SOL    HW119924  11.530  11.871   0.255
 6009SOL    HW219925  11.598  11.783   0.152
 6010SOL     OW19926  10.924   1.562  12.259
 6010SOL    HW119927  10.977   1.637  12.286
 6010SOL    HW219928  10.916   1.508  12.337
 6011SOL     OW19929  12.408   4.914   0.285
 6011SOL    HW119930  12.419   4.892   0.378
 6011SOL    HW219931  12.494   4.947   0.258
 6012SOL     OW19932   7.507   2.629  10.099
 6012SOL    HW119933   7.472   2.544  10.073
 6012SOL    HW219934   7.513   2.625  10.195
 6013SOL     OW19935   2.314  10.279   4.574
 6013SOL    HW119936   2.361  10.334   4.512
 6013SOL    HW219937   2.237  10.331   4.599
 6014SOL     OW19938  11.516   5.053  10.859
 6014SOL    HW119939  11.433   5.088  10.891
 6014SOL    HW219940  11.493   4.971  10.816
 6015SOL     OW19941  13.880  14.393   8.757
 6015SOL    HW119942  13.820  14.463   8.783
 6015SOL    HW219943  13.888  14.338   8.835
 6016SOL     OW19944   8.867  12.988   3.333
 6016SOL    HW119945   8.790  13.021   3.380
 6016SOL    HW219946   8.838  12.981   3.242
 6017SOL     OW19947  13.756  12.770   8.300
 6017SOL    HW119948  13.685  12.728   8.252
 6017SOL    HW219949  13.775  12.850   8.251
 6018SOL     OW19950   9.096   8.336   6.399
 6018SOL    HW119951   9.037   8.410   6.412
 6018SOL    HW219952   9.128   8.314   6.486
 6019SOL     OW19953  14.535   1.918   9.648
 6019SOL    HW119954  14.474   1.902   9.720
 6019SOL    HW219955  14.601   1.850   9.656
 6020SOL     OW19956   2.165  10.062   2.684
 6020SOL    HW119957   2.223  10.133   2.709
 6020SOL    HW219958   2.212   9.982   2.708
 6021SOL     OW19959  10.613   8.136   9.790
 6021SOL    HW119960  10.589   8.057   9.838
 6021SOL    HW219961  10.534   8.156   9.738
 6022SOL     OW19962   3.859   7.239   2.427
 6022SOL    HW119963   3.771   7.234   2.465
 6022SOL    HW219964   3.880   7.148   2.405
 6023SOL     OW19965   3.797   1.946  12.108
 6023SOL    HW119966   3.754   1.885  12.167
 6023SOL    HW219967   3.871   1.896  12.072
 6024SOL     OW19968  11.321  14.340  13.288
 6024SOL    HW119969  11.310  14.318  13.195
 6024SOL    HW219970  11.287  14.429  13.296
 6025SOL     OW19971   0.967  12.138   9.841
 6025SOL    HW119972   0.959  12.047   9.866
 6025SOL    HW219973   0.890  12.156   9.787
 6026SOL     OW19974   2.097  12.510  13.238
 6026SOL    HW119975   2.015  12.540  13.277
 6026SOL    HW219976   2.076  12.426  13.197
 6027SOL     OW19977   6.201  13.137  11.892
 6027SOL    HW119978   6.153  13.086  11.957
 6027SOL    HW219979   6.266  13.185  11.943
 6028SOL     OW19980   3.174   6.421   2.894
 6028SOL    HW119981   3.205   6.491   2.838
 6028SOL    HW219982   3.123   6.465   2.962
 6029SOL     OW19983   3.934  14.567   7.353
 6029SOL    HW119984   4.005  14.588   7.292
 6029SOL    HW219985   3.866  14.632   7.333
 6030SOL     OW19986   2.393  13.742   7.602
 6030SOL    HW119987   2.454  13.751   7.529
 6030SOL    HW219988   2.310  13.774   7.569
 6031SOL     OW19989  11.890   4.694   8.810
 6031SOL    HW119990  11.976   4.682   8.769
 6031SOL    HW219991  11.840   4.744   8.745
 6032SOL     OW19992   0.584  12.355  13.806
 6032SOL    HW119993   0.531  12.435  13.806
 6032SOL    HW219994   0.597  12.336  13.899
 6033SOL     OW19995  11.527   0.156   9.886
 6033SOL    HW119996  11.610   0.121   9.919
 6033SOL    HW219997  11.553   0.228   9.828
 6034SOL     OW19998   2.276  13.023  10.060
 6034SOL    HW119999   2.200  13.048  10.007
 6034SOL    HW220000   2.348  13.076  10.025
 6035SOL     OW20001  12.081   5.021  10.369
 6035SOL    HW120002  12.116   4.931  10.372
 6035SOL    HW220003  12.143   5.069  10.315
 6036SOL     OW20004   4.017   9.641   7.108
 6036SOL    HW120005   4.100   9.634   7.061
 6036SOL    HW220006   4.006   9.557   7.152
 6037SOL     OW20007   7.964  13.984   7.632
 6037SOL    HW120008   8.005  13.898   7.636
 6037SOL    HW220009   7.955  14.003   7.539
 6038SOL     OW20010   6.352   7.116   0.963
 6038SOL    HW120011   6.372   7.100   1.055
 6038SOL    HW220012   6.433   7.094   0.917
 6039SOL     OW20013  11.860   0.508   9.770
 6039SOL    HW120014  11.780   0.525   9.820
 6039SOL    HW220015  11.888   0.594   9.739
 6040SOL     OW20016   2.270   5.248   6.629
 6040SOL    HW120017   2.201   5.271   6.691
 6040SOL    HW220018   2.348   5.290   6.664
 6041SOL     OW20019   7.204   3.541  12.589
 6041SOL    HW120020   7.114   3.576  12.587
 6041SOL    HW220021   7.204   3.480  12.663
 6042SOL     OW20022   3.463   6.014   4.529
 6042SOL    HW120023   3.554   6.000   4.554
 6042SOL    HW220024   3.465   6.096   4.478
 6043SOL     OW20025  12.594  11.696   5.321
 6043SOL    HW120026  12.658  11.670   5.254
 6043SOL    HW220027  12.521  11.636   5.309
 6044SOL     OW20028   1.388   6.457   6.289
 6044SOL    HW120029   1.338   6.380   6.263
 6044SOL    HW220030   1.326   6.510   6.339
 6045SOL     OW20031   1.947  11.712  12.404
 6045SOL    HW120032   1.965  11.657  12.328
 6045SOL    HW220033   1.900  11.654  12.465
 6046SOL     OW20034  12.261  12.546   5.354
 6046SOL    HW120035  12.338  12.493   5.330
 6046SOL    HW220036  12.188  12.503   5.310
 6047SOL     OW20037  10.488  12.377  13.889
 6047SOL    HW120038  10.571  12.366  13.936
 6047SOL    HW220039  10.514  12.386  13.797
 6048SOL     OW20040  12.530   9.317   1.972
 6048SOL    HW120041  12.549   9.411   1.972
 6048SOL    HW220042  12.596   9.279   2.029
 6049SOL     OW20043  12.250  13.700  11.097
 6049SOL    HW120044  12.167  13.724  11.056
 6049SOL    HW220045  12.229  13.686  11.189
 6050SOL     OW20046   0.856   5.676  10.151
 6050SOL    HW120047   0.861   5.755  10.097
 6050SOL    HW220048   0.853   5.605  10.088
 6051SOL     OW20049  13.066   0.044   5.918
 6051SOL    HW120050  12.989  14.875   5.887
 6051SOL    HW220051  13.040   0.136   5.919
 6052SOL     OW20052  14.353   4.966  11.423
 6052SOL    HW120053  14.447   4.955  11.429
 6052SOL    HW220054  14.323   4.970  11.514
 6053SOL     OW20055  10.732   4.643  10.982
 6053SOL    HW120056  10.701   4.688  11.060
 6053SOL    HW220057  10.743   4.713  10.917
 6054SOL     OW20058   5.625   5.569  13.670
 6054SOL    HW120059   5.566   5.559  13.745
 6054SOL    HW220060   5.712   5.570  13.709
 6055SOL     OW20061   7.628   0.370  13.409
 6055SOL    HW120062   7.701   0.374  13.471
 6055SOL    HW220063   7.607   0.276  13.403
 6056SOL     OW20064   6.521   0.341  13.135
 6056SOL    HW120065   6.563   0.313  13.054
 6056SOL    HW220066   6.561   0.426  13.154
 6057SOL     OW20067   7.205   4.741  13.560
 6057SOL    HW120068   7.117   4.752  13.596
 6057SOL    HW220069   7.248   4.825  13.578
 6058SOL     OW20070  12.527   6.061  12.651
 6058SOL    HW120071  12.549   6.097  12.565
 6058SOL    HW220072  12.431   6.055  12.650
 6059SOL     OW20073   3.822   8.714   9.289
 6059SOL    HW120074   3.735   8.679   9.307
 6059SOL    HW220075   3.821   8.802   9.326
 6060SOL     OW20076   1.543   7.268   9.939
 6060SOL    HW120077   1.604   7.196   9.950
 6060SOL    HW220078   1.576   7.337   9.997
 6061SOL     OW20079  13.897   2.706  13.226
 6061SOL    HW120080  13.828   2.658  13.272
 6061SOL    HW220081  13.978   2.673  13.265
 6062SOL     OW20082  12.100  12.356  11.015
 6062SOL    HW120083  12.116  12.450  11.002
 6062SOL    HW220084  12.017  12.352  11.063
 6063SOL     OW20085   2.559   2.578  12.305
 6063SOL    HW120086   2.565   2.612  12.394
 6063SOL    HW220087   2.479   2.526  12.304
 6064SOL     OW20088  11.751   7.231  10.537
 6064SOL    HW120089  11.710   7.237  10.451
 6064SOL    HW220090  11.804   7.311  10.545
 6065SOL     OW20091  14.487   1.051   8.766
 6065SOL    HW120092  14.417   1.019   8.709
 6065SOL    HW220093  14.539   1.109   8.709
 6066SOL     OW20094   6.371   2.816   1.426
 6066SOL    HW120095   6.464   2.821   1.448
 6066SOL    HW220096   6.335   2.753   1.488
 6067SOL     OW20097   9.959   6.991  10.755
 6067SOL    HW120098   9.992   7.073  10.790
 6067SOL    HW220099   9.866   6.990  10.779
 6068SOL     OW20100   3.371  10.897   3.231
 6068SOL    HW120101   3.432  10.902   3.305
 6068SOL    HW220102   3.320  10.978   3.237
 6069SOL     OW20103   5.032  11.436   4.903
 6069SOL    HW120104   5.065  11.472   4.820
 6069SOL    HW220105   5.109  11.397   4.944
 6070SOL     OW20106   1.387  13.222  14.372
 6070SOL    HW120107   1.421  13.157  14.435
 6070SOL    HW220108   1.461  13.280  14.356
 6071SOL     OW20109  11.810   3.924   6.494
 6071SOL    HW120110  11.751   3.849   6.505
 6071SOL    HW220111  11.751   4.000   6.489
 6072SOL     OW20112   7.437   6.692   7.456
 6072SOL    HW120113   7.407   6.604   7.479
 6072SOL    HW220114   7.382   6.718   7.382
 6073SOL     OW20115   9.179  12.947   4.407
 6073SOL    HW120116   9.084  12.940   4.415
 6073SOL    HW220117   9.205  13.010   4.475
 6074SOL     OW20118   0.170  10.080  12.362
 6074SOL    HW120119   0.096  10.020  12.349
 6074SOL    HW220120   0.195  10.108  12.274
 6075SOL     OW20121   7.464   9.245   6.163
 6075SOL    HW120122   7.543   9.297   6.145
 6075SOL    HW220123   7.475   9.167   6.109
 6076SOL     OW20124   4.301   3.983   5.125
 6076SOL    HW120125   4.244   4.052   5.091
 6076SOL    HW220126   4.302   3.917   5.055
 6077SOL     OW20127   1.006   0.208   5.299
 6077SOL    HW120128   0.934   0.147   5.287
 6077SOL    HW220129   1.038   0.190   5.387
 6078SOL     OW20130  11.127   7.024  13.993
 6078SOL    HW120131  11.159   7.045  14.080
 6078SOL    HW220132  11.149   7.100  13.940
 6079SOL     OW20133  11.273  12.530   7.773
 6079SOL    HW120134  11.321  12.450   7.753
 6079SOL    HW220135  11.215  12.543   7.697
 6080SOL     OW20136   2.801   3.451  10.779
 6080SOL    HW120137   2.750   3.370  10.779
 6080SOL    HW220138   2.865   3.438  10.849
 6081SOL     OW20139   5.975   3.036   8.359
 6081SOL    HW120140   5.973   3.122   8.400
 6081SOL    HW220141   6.029   3.047   8.281
 6082SOL     OW20142   0.051   9.142   8.480
 6082SOL    HW120143   0.092   9.219   8.439
 6082SOL    HW220144  14.855   9.178   8.529
 6083SOL     OW20145   1.374  11.466  14.147
 6083SOL    HW120146   1.435  11.393  14.134
 6083SOL    HW220147   1.355  11.497  14.059
 6084SOL     OW20148  13.471   2.702  11.729
 6084SOL    HW120149  13.468   2.783  11.679
 6084SOL    HW220150  13.523   2.642  11.676
 6085SOL     OW20151   2.388   2.786  12.805
 6085SOL    HW120152   2.298   2.807  12.831
 6085SOL    HW220153   2.442   2.825  12.873
 6086SOL     OW20154   4.328   0.741   0.447
 6086SOL    HW120155   4.392   0.797   0.402
 6086SOL    HW220156   4.374   0.708   0.524
 6087SOL     OW20157  14.696   3.600   2.594
 6087SOL    HW120158  14.731   3.511   2.595
 6087SOL    HW220159  14.764   3.653   2.636
 6088SOL     OW20160   6.943  10.263   9.174
 6088SOL    HW120161   6.945  10.207   9.096
 6088SOL    HW220162   6.958  10.351   9.141
 6089SOL     OW20163   3.669   6.925  10.792
 6089SOL    HW120164   3.742   6.947  10.849
 6089SOL    HW220165   3.627   6.850  10.834
 6090SOL     OW20166   4.777  11.472  12.754
 6090SOL    HW120167   4.756  11.459  12.661
 6090SOL    HW220168   4.847  11.409  12.772
 6091SOL     OW20169   9.440   5.765   6.332
 6091SOL    HW120170   9.429   5.726   6.245
 6091SOL    HW220171   9.362   5.738   6.381
 6092SOL     OW20172   4.449   2.198   2.181
 6092SOL    HW120173   4.407   2.184   2.096
 6092SOL    HW220174   4.384   2.247   2.232
 6093SOL     OW20175  12.698  12.828   0.786
 6093SOL    HW120176  12.783  12.866   0.763
 6093SOL    HW220177  12.703  12.738   0.755
 6094SOL     OW20178   0.507   2.700   5.835
 6094SOL    HW120179   0.490   2.612   5.868
 6094SOL    HW220180   0.532   2.751   5.912
 6095SOL     OW20181   7.324   4.259   0.173
 6095SOL    HW120182   7.354   4.302   0.253
 6095SOL    HW220183   7.339   4.324   0.104
 6096SOL     OW20184   9.487   4.450  10.665
 6096SOL    HW120185   9.435   4.390  10.611
 6096SOL    HW220186   9.504   4.525  10.608
 6097SOL     OW20187   9.376   3.375  14.050
 6097SOL    HW120188   9.305   3.313  14.033
 6097SOL    HW220189   9.375   3.434  13.975
 6098SOL     OW20190   6.714   6.354   8.654
 6098SOL    HW120191   6.697   6.375   8.746
 6098SOL    HW220192   6.776   6.281   8.658
 6099SOL     OW20193   4.135  13.615   2.484
 6099SOL    HW120194   4.054  13.663   2.464
 6099SOL    HW220195   4.198  13.648   2.421
 6100SOL     OW20196   3.985   4.158  12.851
 6100SOL    HW120197   4.062   4.120  12.809
 6100SOL    HW220198   4.020   4.201  12.930
 6101SOL     OW20199  10.716  13.488   3.648
 6101SOL    HW120200  10.667  13.409   3.624
 6101SOL    HW220201  10.648  13.549   3.678
 6102SOL     OW20202   3.369   2.273   1.086
 6102SOL    HW120203   3.372   2.229   1.001
 6102SOL    HW220204   3.411   2.210   1.146
 6103SOL     OW20205  11.913   4.308   0.930
 6103SOL    HW120206  11.952   4.224   0.954
 6103SOL    HW220207  11.854   4.288   0.857
 6104SOL     OW20208  14.535   0.448   6.297
 6104SOL    HW120209  14.614   0.444   6.351
 6104SOL    HW220210  14.565   0.477   6.211
 6105SOL     OW20211  14.539  10.153   4.122
 6105SOL    HW120212  14.523  10.062   4.149
 6105SOL    HW220213  14.453  10.194   4.126
 6106SOL     OW20214   7.971   8.251   9.334
 6106SOL    HW120215   7.902   8.296   9.383
 6106SOL    HW220216   8.037   8.228   9.400
 6107SOL     OW20217  12.205   3.313  10.725
 6107SOL    HW120218  12.120   3.279  10.753
 6107SOL    HW220219  12.200   3.312  10.629
 6108SOL     OW20220  11.167  11.659   7.624
 6108SOL    HW120221  11.162  11.750   7.653
 6108SOL    HW220222  11.077  11.627   7.632
 6109SOL     OW20223  14.752  14.320  10.320
 6109SOL    HW120224  14.742  14.341  10.227
 6109SOL    HW220225  14.837  14.358  10.344
 6110SOL     OW20226  14.494  11.602  13.366
 6110SOL    HW120227  14.572  11.548  13.381
 6110SOL    HW220228  14.491  11.661  13.441
 6111SOL     OW20229   4.862   3.806   0.560
 6111SOL    HW120230   4.871   3.812   0.655
 6111SOL    HW220231   4.865   3.712   0.542
 6112SOL     OW20232   9.774   5.344  11.076
 6112SOL    HW120233   9.806   5.292  11.003
 6112SOL    HW220234   9.727   5.282  11.131
 6113SOL     OW20235   2.027   8.117   1.331
 6113SOL    HW120236   2.113   8.092   1.300
 6113SOL    HW220237   2.027   8.094   1.424
 6114SOL     OW20238  11.151  10.498  14.342
 6114SOL    HW120239  11.215  10.430  14.364
 6114SOL    HW220240  11.152  10.557  14.418
 6115SOL     OW20241   9.961  12.764   5.278
 6115SOL    HW120242   9.950  12.746   5.371
 6115SOL    HW220243  10.045  12.810   5.273
 6116SOL     OW20244  11.837  12.385  11.078
 6116SOL    HW120245  11.812  12.447  11.010
 6116SOL    HW220246  11.864  12.441  11.152
 6117SOL     OW20247   8.550   3.142   0.648
 6117SOL    HW120248   8.573   3.232   0.669
 6117SOL    HW220249   8.464   3.129   0.688
 6118SOL     OW20250   7.345  10.245  12.748
 6118SOL    HW120251   7.403  10.169  12.742
 6118SOL    HW220252   7.257  10.208  12.749
 6119SOL     OW20253  11.188   2.448   9.201
 6119SOL    HW120254  11.115   2.436   9.263
 6119SOL    HW220255  11.196   2.543   9.193
 6120SOL     OW20256   7.415  11.313   0.446
 6120SOL    HW120257   7.472  11.380   0.483
 6120SOL    HW220258   7.349  11.296   0.513
 6121SOL     OW20259   7.073   4.471  12.431
 6121SOL    HW120260   7.076   4.463  12.526
 6121SOL    HW220261   7.151   4.522  12.409
 6122SOL     OW20262   2.998   7.407   1.397
 6122SOL    HW120263   3.020   7.425   1.305
 6122SOL    HW220264   3.082   7.385   1.437
 6123SOL     OW20265   6.686   1.221  10.314
 6123SOL    HW120266   6.629   1.156  10.273
 6123SOL    HW220267   6.716   1.276  10.241
 6124SOL     OW20268  13.017  13.651  13.554
 6124SOL    HW120269  12.983  13.563  13.571
 6124SOL    HW220270  12.970  13.707  13.615
 6125SOL     OW20271   3.607   1.587  14.512
 6125SOL    HW120272   3.619   1.548  14.598
 6125SOL    HW220273   3.590   1.680  14.529
 6126SOL     OW20274  10.705  10.303   8.370
 6126SOL    HW120275  10.694  10.209   8.363
 6126SOL    HW220276  10.624  10.340   8.333
 6127SOL     OW20277   9.458   6.854  10.907
 6127SOL    HW120278   9.439   6.838  11.000
 6127SOL    HW220279   9.408   6.933  10.886
 6128SOL     OW20280   7.077  13.038   5.560
 6128SOL    HW120281   7.132  13.083   5.498
 6128SOL    HW220282   7.118  13.054   5.645
 6129SOL     OW20283   5.384   5.875  12.103
 6129SOL    HW120284   5.357   5.786  12.127
 6129SOL    HW220285   5.358   5.929  12.178
 6130SOL     OW20286   9.760   0.541   1.762
 6130SOL    HW120287   9.786   0.632   1.770
 6130SOL    HW220288   9.707   0.523   1.839
 6131SOL     OW20289   1.599  10.704   7.570
 6131SOL    HW120290   1.657  10.694   7.494
 6131SOL    HW220291   1.522  10.748   7.536
 6132SOL     OW20292  11.787  11.270   0.812
 6132SOL    HW120293  11.778  11.341   0.876
 6132SOL    HW220294  11.868  11.291   0.765
 6133SOL     OW20295  13.524   1.734  12.220
 6133SOL    HW120296  13.584   1.728  12.294
 6133SOL    HW220297  13.438   1.750  12.260
 6134SOL     OW20298   5.005  12.206   3.438
 6134SOL    HW120299   4.977  12.232   3.526
 6134SOL    HW220300   5.036  12.288   3.398
 6135SOL     OW20301   6.262   3.005   6.723
 6135SOL    HW120302   6.285   2.979   6.812
 6135SOL    HW220303   6.169   3.028   6.729
 6136SOL     OW20304   5.446   8.600  14.072
 6136SOL    HW120305   5.463   8.508  14.051
 6136SOL    HW220306   5.530   8.643  14.060
 6137SOL     OW20307  14.051  14.003   2.171
 6137SOL    HW120308  13.992  14.061   2.220
 6137SOL    HW220309  14.055  13.923   2.224
 6138SOL     OW20310   2.719   2.716  12.626
 6138SOL    HW120311   2.635   2.748  12.592
 6138SOL    HW220312   2.695   2.655  12.696
 6139SOL     OW20313  10.202  12.790  13.918
 6139SOL    HW120314  10.191  12.730  13.992
 6139SOL    HW220315  10.244  12.738  13.850
 6140SOL     OW20316  11.621   9.696   6.897
 6140SOL    HW120317  11.696   9.754   6.889
 6140SOL    HW220318  11.550   9.743   6.854
 6141SOL     OW20319  12.425   0.323  12.630
 6141SOL    HW120320  12.452   0.386  12.697
 6141SOL    HW220321  12.329   0.327  12.631
 6142SOL     OW20322  14.486   6.713   0.077
 6142SOL    HW120323  14.577   6.693   0.096
 6142SOL    HW220324  14.449   6.630   0.047
 6143SOL     OW20325   2.946   6.253  14.324
 6143SOL    HW120326   2.915   6.313  14.256
 6143SOL    HW220327   3.028   6.218  14.290
 6144SOL     OW20328   7.299   3.576   0.609
 6144SOL    HW120329   7.306   3.612   0.698
 6144SOL    HW220330   7.288   3.654   0.554
 6145SOL     OW20331   3.708   6.313   6.008
 6145SOL    HW120332   3.634   6.371   5.995
 6145SOL    HW220333   3.782   6.371   6.025
 6146SOL     OW20334   5.647   0.799   6.346
 6146SOL    HW120335   5.743   0.794   6.350
 6146SOL    HW220336   5.617   0.734   6.411
 6147SOL     OW20337   6.396  12.040  14.034
 6147SOL    HW120338   6.377  12.133  14.023
 6147SOL    HW220339   6.481  12.037  14.078
 6148SOL     OW20340  10.181  10.137   4.414
 6148SOL    HW120341  10.120  10.211   4.418
 6148SOL    HW220342  10.255  10.164   4.468
 6149SOL     OW20343   5.951   2.363   9.145
 6149SOL    HW120344   5.873   2.355   9.089
 6149SOL    HW220345   6.022   2.326   9.092
 6150SOL     OW20346  12.730  13.359   7.436
 6150SOL    HW120347  12.645  13.328   7.468
 6150SOL    HW220348  12.762  13.415   7.507
 6151SOL     OW20349  14.058   7.416   4.872
 6151SOL    HW120350  14.082   7.456   4.788
 6151SOL    HW220351  13.967   7.390   4.861
 6152SOL     OW20352   7.058   8.151   1.693
 6152SOL    HW120353   7.074   8.237   1.653
 6152SOL    HW220354   7.064   8.167   1.787
 6153SOL     OW20355   1.512  13.084   9.393
 6153SOL    HW120356   1.466  13.078   9.309
 6153SOL    HW220357   1.530  12.994   9.417
 6154SOL     OW20358   8.171  12.263   5.996
 6154SOL    HW120359   8.217  12.341   5.966
 6154SOL    HW220360   8.090  12.296   6.034
 6155SOL     OW20361   2.507   4.837   8.735
 6155SOL    HW120362   2.450   4.839   8.811
 6155SOL    HW220363   2.595   4.848   8.771
 6156SOL     OW20364   9.881   3.026  11.953
 6156SOL    HW120365   9.819   3.030  11.881
 6156SOL    HW220366   9.828   3.041  12.032
 6157SOL     OW20367  12.149  10.019   5.741
 6157SOL    HW120368  12.232   9.975   5.719
 6157SOL    HW220369  12.151  10.027   5.836
 6158SOL     OW20370   0.590   9.073  12.597
 6158SOL    HW120371   0.558   9.155  12.559
 6158SOL    HW220372   0.677   9.062  12.559
 6159SOL     OW20373   8.357  13.577   3.797
 6159SOL    HW120374   8.435  13.544   3.754
 6159SOL    HW220375   8.381  13.664   3.829
 6160SOL     OW20376  12.425  10.056   1.660
 6160SOL    HW120377  12.370  10.086   1.588
 6160SOL    HW220378  12.480  10.132   1.682
 6161SOL     OW20379  13.503   9.080   3.542
 6161SOL    HW120380  13.524   9.039   3.626
 6161SOL    HW220381  13.552   9.161   3.541
 6162SOL     OW20382  14.698  14.573  13.387
 6162SOL    HW120383  14.689  14.606  13.476
 6162SOL    HW220384  14.634  14.502  13.381
 6163SOL     OW20385   2.024  12.388   5.191
 6163SOL    HW120386   1.980  12.371   5.108
 6163SOL    HW220387   1.957  12.428   5.246
 6164SOL     OW20388  12.303  13.724   1.706
 6164SOL    HW120389  12.215  13.715   1.669
 6164SOL    HW220390  12.322  13.638   1.743
 6165SOL     OW20391  12.903   0.975   6.285
 6165SOL    HW120392  12.964   0.933   6.224
 6165SOL    HW220393  12.917   1.069   6.271
 6166SOL     OW20394   2.113   9.213  14.682
 6166SOL    HW120395   2.141   9.127  14.650
 6166SOL    HW220396   2.194   9.262  14.695
 6167SOL     OW20397  14.323  11.651  11.335
 6167SOL    HW120398  14.398  11.707  11.355
 6167SOL    HW220399  14.247  11.703  11.360
 6168SOL     OW20400  10.042   9.879   8.809
 6168SOL    HW120401  10.059   9.887   8.715
 6168SOL    HW220402  10.043   9.969   8.841
 6169SOL     OW20403   9.216  13.630   4.505
 6169SOL    HW120404   9.173  13.633   4.590
 6169SOL    HW220405   9.293  13.574   4.520
 6170SOL     OW20406   0.502  11.642   2.178
 6170SOL    HW120407   0.439  11.579   2.211
 6170SOL    HW220408   0.585  11.617   2.218
 6171SOL     OW20409  11.862   7.614  11.033
 6171SOL    HW120410  11.805   7.685  11.060
 6171SOL    HW220411  11.810   7.535  11.046
 6172SOL     OW20412  14.734  14.027  14.529
 6172SOL    HW120413  14.742  13.987  14.615
 6172SOL    HW220414  14.767  14.116  14.541
 6173SOL     OW20415   6.066  11.566   7.143
 6173SOL    HW120416   5.990  11.529   7.099
 6173SOL    HW220417   6.088  11.503   7.211
 6174SOL     OW20418  11.391   3.390   8.037
 6174SOL    HW120419  11.395   3.335   8.116
 6174SOL    HW220420  11.346   3.470   8.066
 6175SOL     OW20421   1.200   6.570  12.314
 6175SOL    HW120422   1.119   6.578  12.264
 6175SOL    HW220423   1.204   6.478  12.339
 6176SOL     OW20424   8.900   5.023   9.549
 6176SOL    HW120425   8.843   5.055   9.619
 6176SOL    HW220426   8.882   4.929   9.544
 6177SOL     OW20427  14.555   7.942   2.020
 6177SOL    HW120428  14.519   8.015   1.969
 6177SOL    HW220429  14.490   7.873   2.011
 6178SOL     OW20430   6.013   7.612   0.775
 6178SOL    HW120431   6.093   7.662   0.760
 6178SOL    HW220432   6.002   7.613   0.870
 6179SOL     OW20433   9.181  10.710   9.132
 6179SOL    HW120434   9.264  10.664   9.120
 6179SOL    HW220435   9.127  10.682   9.058
 6180SOL     OW20436   8.897  12.245   4.316
 6180SOL    HW120437   8.836  12.318   4.303
 6180SOL    HW220438   8.983  12.284   4.300
 6181SOL     OW20439   9.652   4.327   0.256
 6181SOL    HW120440   9.630   4.235   0.266
 6181SOL    HW220441   9.663   4.359   0.346
 6182SOL     OW20442  14.711   5.951   0.823
 6182SOL    HW120443  14.685   6.027   0.771
 6182SOL    HW220444  14.803   5.938   0.803
 6183SOL     OW20445   0.775   8.600   2.825
 6183SOL    HW120446   0.767   8.538   2.753
 6183SOL    HW220447   0.721   8.563   2.895
 6184SOL     OW20448   6.691  14.843   1.645
 6184SOL    HW120449   6.619  14.785   1.619
 6184SOL    HW220450   6.662   0.053   1.620
 6185SOL     OW20451  14.179  11.947   7.606
 6185SOL    HW120452  14.237  11.913   7.537
 6185SOL    HW220453  14.234  12.008   7.655
 6186SOL     OW20454   9.758   0.907  11.855
 6186SOL    HW120455   9.821   0.838  11.836
 6186SOL    HW220456   9.675   0.861  11.869
 6187SOL     OW20457   0.197  13.624   5.902
 6187SOL    HW120458   0.165  13.535   5.886
 6187SOL    HW220459   0.252  13.644   5.826
 6188SOL     OW20460  11.480   3.969  13.683
 6188SOL    HW120461  11.543   4.029  13.642
 6188SOL    HW220462  11.439   4.022  13.753
 6189SOL     OW20463  12.521   5.259   8.774
 6189SOL    HW120464  12.439   5.253   8.725
 6189SOL    HW220465  12.530   5.352   8.796
 6190SOL     OW20466  11.590   6.708  12.758
 6190SOL    HW120467  11.664   6.650  12.743
 6190SOL    HW220468  11.513   6.651  12.754
 6191SOL     OW20469  11.403   0.909   0.713
 6191SOL    HW120470  11.342   0.888   0.643
 6191SOL    HW220471  11.476   0.954   0.669
 6192SOL     OW20472   4.981   4.513   3.309
 6192SOL    HW120473   4.934   4.462   3.375
 6192SOL    HW220474   5.009   4.592   3.354
 6193SOL     OW20475  12.367   1.882  12.075
 6193SOL    HW120476  12.421   1.903  12.151
 6193SOL    HW220477  12.286   1.846  12.111
 6194SOL     OW20478   0.786   4.651   1.554
 6194SOL    HW120479   0.829   4.666   1.638
 6194SOL    HW220480   0.703   4.698   1.560
 6195SOL     OW20481   6.915  13.600  13.828
 6195SOL    HW120482   6.906  13.644  13.913
 6195SOL    HW220483   6.870  13.516  13.840
 6196SOL     OW20484  13.006   8.192   5.217
 6196SOL    HW120485  13.018   8.194   5.312
 6196SOL    HW220486  13.095   8.189   5.181
 6197SOL     OW20487   1.232  14.796   1.579
 6197SOL    HW120488   1.248  14.776   1.487
 6197SOL    HW220489   1.155  14.853   1.578
 6198SOL     OW20490   3.688  13.285   5.455
 6198SOL    HW120491   3.607  13.283   5.404
 6198SOL    HW220492   3.725  13.372   5.435
 6199SOL     OW20493   5.934   8.434  11.970
 6199SOL    HW120494   5.854   8.396  12.005
 6199SOL    HW220495   5.981   8.467  12.047
 6200SOL     OW20496   8.400   2.245   2.141
 6200SOL    HW120497   8.335   2.272   2.206
 6200SOL    HW220498   8.476   2.218   2.193
 6201SOL     OW20499   5.301   3.417  14.508
 6201SOL    HW120500   5.319   3.439  14.600
 6201SOL    HW220501   5.331   3.327  14.499
 6202SOL     OW20502  11.902   3.419   7.651
 6202SOL    HW120503  11.881   3.440   7.560
 6202SOL    HW220504  11.825   3.371   7.683
 6203SOL     OW20505   2.811   4.386  12.048
 6203SOL    HW120506   2.724   4.418  12.071
 6203SOL    HW220507   2.802   4.290  12.047
 6204SOL     OW20508   3.050   6.245  12.720
 6204SOL    HW120509   3.069   6.201  12.803
 6204SOL    HW220510   3.053   6.338  12.740
 6205SOL     OW20511   3.712   7.427   3.264
 6205SOL    HW120512   3.711   7.507   3.211
 6205SOL    HW220513   3.731   7.357   3.202
 6206SOL     OW20514   6.888   6.712   1.970
 6206SOL    HW120515   6.878   6.725   2.064
 6206SOL    HW220516   6.822   6.647   1.947
 6207SOL     OW20517   4.158   0.363   5.309
 6207SOL    HW120518   4.118   0.276   5.303
 6207SOL    HW220519   4.089   0.417   5.347
 6208SOL     OW20520  12.038  10.379   6.135
 6208SOL    HW120521  12.115  10.344   6.180
 6208SOL    HW220522  11.982  10.412   6.205
 6209SOL     OW20523  10.923   8.069  14.435
 6209SOL    HW120524  10.829   8.051  14.432
 6209SOL    HW220525  10.929   8.163  14.455
 6210SOL     OW20526  14.450  13.974   6.483
 6210SOL    HW120527  14.488  13.903   6.431
 6210SOL    HW220528  14.402  14.027   6.419
 6211SOL     OW20529  13.394   8.142   8.086
 6211SOL    HW120530  13.355   8.091   8.157
 6211SOL    HW220531  13.325   8.202   8.058
 6212SOL     OW20532   6.853   3.486   7.828
 6212SOL    HW120533   6.785   3.467   7.893
 6212SOL    HW220534   6.829   3.571   7.792
 6213SOL     OW20535  13.152   4.756  12.318
 6213SOL    HW120536  13.162   4.733  12.410
 6213SOL    HW220537  13.076   4.706  12.288
 6214SOL     OW20538  14.441   9.355   7.422
 6214SOL    HW120539  14.489   9.285   7.466
 6214SOL    HW220540  14.495   9.433   7.437
 6215SOL     OW20541   4.283   3.412  10.033
 6215SOL    HW120542   4.263   3.498  10.071
 6215SOL    HW220543   4.213   3.398   9.969
 6216SOL     OW20544   0.090   9.899   3.904
 6216SOL    HW120545   0.177   9.928   3.930
 6216SOL    HW220546   0.106   9.845   3.826
 6217SOL     OW20547  12.499   9.531   9.331
 6217SOL    HW120548  12.545   9.603   9.288
 6217SOL    HW220549  12.413   9.530   9.289
 6218SOL     OW20550   5.181   6.603   9.057
 6218SOL    HW120551   5.201   6.694   9.080
 6218SOL    HW220552   5.183   6.556   9.140
 6219SOL     OW20553  12.660   7.872   5.547
 6219SOL    HW120554  12.680   7.965   5.533
 6219SOL    HW220555  12.671   7.860   5.642
 6220SOL     OW20556   9.230  13.382  11.448
 6220SOL    HW120557   9.275  13.353  11.527
 6220SOL    HW220558   9.137  13.371  11.467
 6221SOL     OW20559   2.006  14.313  12.514
 6221SOL    HW120560   2.015  14.235  12.569
 6221SOL    HW220561   1.919  14.346  12.534
 6222SOL     OW20562   8.145   9.745  13.050
 6222SOL    HW120563   8.080   9.752  12.980
 6222SOL    HW220564   8.144   9.653  13.076
 6223SOL     OW20565   4.437   5.090  11.154
 6223SOL    HW120566   4.409   5.096  11.063
 6223SOL    HW220567   4.391   5.162  11.198
 6224SOL     OW20568   8.157   1.056  11.771
 6224SOL    HW120569   8.132   0.986  11.712
 6224SOL    HW220570   8.161   1.134  11.715
 6225SOL     OW20571   3.476   3.364   4.805
 6225SOL    HW120572   3.555   3.377   4.753
 6225SOL    HW220573   3.477   3.436   4.868
 6226SOL     OW20574  10.193   8.295  13.259
 6226SOL    HW120575  10.136   8.280  13.184
 6226SOL    HW220576  10.156   8.240  13.329
 6227SOL     OW20577   0.669   0.936  13.478
 6227SOL    HW120578   0.584   0.909  13.443
 6227SOL    HW220579   0.712   0.979  13.404
 6228SOL     OW20580  12.023   1.105  11.336
 6228SOL    HW120581  12.056   1.079  11.250
 6228SOL    HW220582  12.012   1.200  11.331
 6229SOL     OW20583   1.480   0.645  12.613
 6229SOL    HW120584   1.559   0.681  12.652
 6229SOL    HW220585   1.424   0.721  12.597
 6230SOL     OW20586   5.964  13.126   5.264
 6230SOL    HW120587   5.912  13.053   5.232
 6230SOL    HW220588   6.051  13.089   5.277
 6231SOL     OW20589   3.311   1.691   6.596
 6231SOL    HW120590   3.232   1.686   6.650
 6231SOL    HW220591   3.372   1.630   6.638
 6232SOL     OW20592   5.193   6.743  13.966
 6232SOL    HW120593   5.255   6.766  13.897
 6232SOL    HW220594   5.223   6.792  14.042
 6233SOL     OW20595   3.265   7.451   1.570
 6233SOL    HW120596   3.325   7.388   1.530
 6233SOL    HW220597   3.264   7.524   1.509
 6234SOL     OW20598   9.285   1.263   9.593
 6234SOL    HW120599   9.282   1.315   9.673
 6234SOL    HW220600   9.288   1.172   9.623
 6235SOL     OW20601   5.001   5.343   7.041
 6235SOL    HW120602   5.080   5.293   7.026
 6235SOL    HW220603   4.965   5.359   6.954
 6236SOL     OW20604  11.606   8.300  11.264
 6236SOL    HW120605  11.673   8.331  11.205
 6236SOL    HW220606  11.650   8.234  11.318
 6237SOL     OW20607   8.764   1.842   4.964
 6237SOL    HW120608   8.807   1.757   4.975
 6237SOL    HW220609   8.829   1.896   4.919
 6238SOL     OW20610   6.772  13.969  14.498
 6238SOL    HW120611   6.715  13.900  14.465
 6238SOL    HW220612   6.830  13.925  14.560
 6239SOL     OW20613  11.639   7.238   8.904
 6239SOL    HW120614  11.703   7.193   8.959
 6239SOL    HW220615  11.555   7.225   8.949
 6240SOL     OW20616  13.357  11.130  12.426
 6240SOL    HW120617  13.278  11.129  12.372
 6240SOL    HW220618  13.427  11.155  12.366
 6241SOL     OW20619  10.402   6.205  14.512
 6241SOL    HW120620  10.310   6.202  14.486
 6241SOL    HW220621  10.400   6.227  14.605
 6242SOL     OW20622   1.532  13.791  11.876
 6242SOL    HW120623   1.471  13.771  11.947
 6242SOL    HW220624   1.552  13.884  11.887
 6243SOL     OW20625   2.019   5.628  14.094
 6243SOL    HW120626   1.947   5.659  14.150
 6243SOL    HW220627   1.976   5.575  14.027
 6244SOL     OW20628  10.142  11.126   3.130
 6244SOL    HW120629  10.177  11.115   3.042
 6244SOL    HW220630  10.181  11.055   3.181
 6245SOL     OW20631   4.478   8.396  14.140
 6245SOL    HW120632   4.514   8.342  14.070
 6245SOL    HW220633   4.550   8.451  14.168
 6246SOL     OW20634   8.897   3.621   2.513
 6246SOL    HW120635   8.871   3.653   2.600
 6246SOL    HW220636   8.831   3.555   2.491
 6247SOL     OW20637   9.774  12.412  11.445
 6247SOL    HW120638   9.810  12.367  11.369
 6247SOL    HW220639   9.755  12.500  11.413
 6248SOL     OW20640  12.775   3.681   4.568
 6248SOL    HW120641  12.756   3.702   4.476
 6248SOL    HW220642  12.813   3.761   4.603
 6249SOL     OW20643   0.513   2.885  11.939
 6249SOL    HW120644   0.498   2.965  11.990
 6249SOL    HW220645   0.590   2.905  11.886
 6250SOL     OW20646   2.656   6.531  12.839
 6250SOL    HW120647   2.655   6.531  12.743
 6250SOL    HW220648   2.712   6.457  12.862
 6251SOL     OW20649  12.174  12.255  10.314
 6251SOL    HW120650  12.204  12.271  10.404
 6251SOL    HW220651  12.245  12.289  10.259
 6252SOL     OW20652   9.852   9.768   8.433
 6252SOL    HW120653   9.824   9.732   8.349
 6252SOL    HW220654   9.782   9.829   8.457
 6253SOL     OW20655   9.308   0.063  14.062
 6253SOL    HW120656   9.400   0.045  14.042
 6253SOL    HW220657   9.263  14.859  14.043
 6254SOL     OW20658   7.137   5.245   0.171
 6254SOL    HW120659   7.199   5.315   0.191
 6254SOL    HW220660   7.175   5.167   0.212
 6255SOL     OW20661   7.972   0.075   6.721
 6255SOL    HW120662   7.948   0.131   6.646
 6255SOL    HW220663   7.984  14.866   6.683
 6256SOL     OW20664  11.109   9.569   7.449
 6256SOL    HW120665  11.099   9.485   7.494
 6256SOL    HW220666  11.092   9.634   7.517
 6257SOL     OW20667  14.803   1.794  13.024
 6257SOL    HW120668  14.715   1.758  13.014
 6257SOL    HW220669  14.811   1.856  12.951
 6258SOL     OW20670  12.287   4.846  11.372
 6258SOL    HW120671  12.238   4.928  11.370
 6258SOL    HW220672  12.220   4.778  11.381
 6259SOL     OW20673   8.683  14.640  11.826
 6259SOL    HW120674   8.738  14.702  11.874
 6259SOL    HW220675   8.594  14.674  11.836
 6260SOL     OW20676  12.120  14.858  12.988
 6260SOL    HW120677  12.141  14.871  13.080
 6260SOL    HW220678  12.183  14.792  12.958
 6261SOL     OW20679  14.173  13.747   4.443
 6261SOL    HW120680  14.177  13.761   4.349
 6261SOL    HW220681  14.216  13.662   4.456
 6262SOL     OW20682   4.851  11.082   6.271
 6262SOL    HW120683   4.921  11.018   6.287
 6262SOL    HW220684   4.819  11.061   6.184
 6263SOL     OW20685   8.074   3.292  10.446
 6263SOL    HW120686   8.039   3.299  10.357
 6263SOL    HW220687   8.018   3.227  10.489
 6264SOL     OW20688   3.964   9.564   1.269
 6264SOL    HW120689   3.872   9.582   1.289
 6264SOL    HW220690   3.962   9.524   1.182
 6265SOL     OW20691   4.838   2.075   0.376
 6265SOL    HW120692   4.749   2.052   0.401
 6265SOL    HW220693   4.859   2.016   0.303
 6266SOL     OW20694   7.862   5.192   4.275
 6266SOL    HW120695   7.895   5.191   4.186
 6266SOL    HW220696   7.768   5.208   4.266
 6267SOL     OW20697  13.780   0.942  13.747
 6267SOL    HW120698  13.808   1.028  13.716
 6267SOL    HW220699  13.854   0.909  13.798
 6268SOL     OW20700  12.042   8.217   7.347
 6268SOL    HW120701  12.096   8.145   7.313
 6268SOL    HW220702  12.106   8.281   7.380
 6269SOL     OW20703   6.519   5.401   9.311
 6269SOL    HW120704   6.429   5.386   9.341
 6269SOL    HW220705   6.515   5.391   9.216
 6270SOL     OW20706   5.459   8.867  13.797
 6270SOL    HW120707   5.524   8.930  13.764
 6270SOL    HW220708   5.427   8.823  13.719
 6271SOL     OW20709  14.078   3.882  14.284
 6271SOL    HW120710  14.081   3.791  14.314
 6271SOL    HW220711  14.157   3.922  14.321
 6272SOL     OW20712   3.788  14.345   2.439
 6272SOL    HW120713   3.864  14.344   2.381
 6272SOL    HW220714   3.808  14.280   2.506
 6273SOL     OW20715   6.072   1.955  12.977
 6273SOL    HW120716   6.008   1.939  13.047
 6273SOL    HW220717   6.064   1.878  12.920
 6274SOL     OW20718   9.718   7.939   2.895
 6274SOL    HW120719   9.791   7.951   2.955
 6274SOL    HW220720   9.649   7.901   2.949
 6275SOL     OW20721   7.504   2.193   1.545
 6275SOL    HW120722   7.554   2.266   1.580
 6275SOL    HW220723   7.555   2.115   1.567
 6276SOL     OW20724  11.470   0.172   7.807
 6276SOL    HW120725  11.561   0.193   7.787
 6276SOL    HW220726  11.447   0.106   7.741
 6277SOL     OW20727  11.274   4.324  11.469
 6277SOL    HW120728  11.348   4.278  11.428
 6277SOL    HW220729  11.211   4.336  11.397
 6278SOL     OW20730  11.046   2.579   7.932
 6278SOL    HW120731  11.047   2.674   7.925
 6278SOL    HW220732  11.048   2.547   7.842
 6279SOL     OW20733  12.859  10.119   4.270
 6279SOL    HW120734  12.898  10.048   4.218
 6279SOL    HW220735  12.790  10.076   4.320
 6280SOL     OW20736  10.307  14.190   9.364
 6280SOL    HW120737  10.360  14.137   9.305
 6280SOL    HW220738  10.217  14.159   9.350
 6281SOL     OW20739   6.607   6.858   4.815
 6281SOL    HW120740   6.636   6.781   4.863
 6281SOL    HW220741   6.555   6.823   4.742
 6282SOL     OW20742  14.231   1.699   8.823
 6282SOL    HW120743  14.295   1.687   8.754
 6282SOL    HW220744  14.252   1.632   8.888
 6283SOL     OW20745   9.821   8.512   4.086
 6283SOL    HW120746   9.884   8.577   4.117
 6283SOL    HW220747   9.842   8.433   4.135
 6284SOL     OW20748   1.221   2.201  10.801
 6284SOL    HW120749   1.310   2.173  10.779
 6284SOL    HW220750   1.179   2.123  10.835
 6285SOL     OW20751   4.647   5.466  10.203
 6285SOL    HW120752   4.572   5.412  10.232
 6285SOL    HW220753   4.627   5.488  10.112
 6286SOL     OW20754   1.894   3.098  12.491
 6286SOL    HW120755   1.868   3.010  12.465
 6286SOL    HW220756   1.987   3.103  12.470
 6287SOL     OW20757   9.033   8.747  11.653
 6287SOL    HW120758   9.025   8.841  11.670
 6287SOL    HW220759   9.045   8.741  11.558
 6288SOL     OW20760   2.601  14.521  14.278
 6288SOL    HW120761   2.656  14.584  14.325
 6288SOL    HW220762   2.550  14.479  14.347
 6289SOL     OW20763  11.313   0.041   5.678
 6289SOL    HW120764  11.395   0.004   5.713
 6289SOL    HW220765  11.328   0.135   5.677
 6290SOL     OW20766   7.560   0.680   8.221
 6290SOL    HW120767   7.529   0.709   8.307
 6290SOL    HW220768   7.522   0.743   8.159
 6291SOL     OW20769  13.411   5.055   4.624
 6291SOL    HW120770  13.333   5.063   4.680
 6291SOL    HW220771  13.441   4.966   4.637
 6292SOL     OW20772   1.367  14.088  10.635
 6292SOL    HW120773   1.341  14.016  10.577
 6292SOL    HW220774   1.462  14.083  10.640
 6293SOL     OW20775   2.772   3.210   1.022
 6293SOL    HW120776   2.777   3.287   1.079
 6293SOL    HW220777   2.732   3.241   0.941
 6294SOL     OW20778  11.418   8.637  14.457
 6294SOL    HW120779  11.338   8.588  14.475
 6294SOL    HW220780  11.468   8.633  14.539
 6295SOL     OW20781   4.338   5.590   1.000
 6295SOL    HW120782   4.280   5.515   0.993
 6295SOL    HW220783   4.375   5.583   1.088
 6296SOL     OW20784  13.674   0.547   5.009
 6296SOL    HW120785  13.763   0.525   5.039
 6296SOL    HW220786  13.681   0.636   4.975
 6297SOL     OW20787  10.026   7.686   9.147
 6297SOL    HW120788  10.034   7.724   9.234
 6297SOL    HW220789  10.095   7.728   9.096
 6298SOL     OW20790   8.728   0.617   3.044
 6298SOL    HW120791   8.665   0.619   3.117
 6298SOL    HW220792   8.767   0.529   3.050
 6299SOL     OW20793  10.176   5.973   1.781
 6299SOL    HW120794  10.266   5.967   1.749
 6299SOL    HW220795  10.180   5.943   1.872
 6300SOL     OW20796  14.833  10.574   8.399
 6300SOL    HW120797  14.867  10.657   8.365
 6300SOL    HW220798   0.008  10.556   8.477
 6301SOL     OW20799   1.620   6.926   0.371
 6301SOL    HW120800   1.638   6.893   0.283
 6301SOL    HW220801   1.707   6.947   0.406
 6302SOL     OW20802  10.147   6.430   2.734
 6302SOL    HW120803  10.101   6.501   2.691
 6302SOL    HW220804  10.171   6.369   2.664
 6303SOL     OW20805  13.772   2.252  10.092
 6303SOL    HW120806  13.847   2.275  10.036
 6303SOL    HW220807  13.772   2.156  10.093
 6304SOL     OW20808   0.061   1.509  12.697
 6304SOL    HW120809   0.092   1.593  12.663
 6304SOL    HW220810   0.068   1.518  12.792
 6305SOL     OW20811   9.803   8.230   8.184
 6305SOL    HW120812   9.828   8.145   8.148
 6305SOL    HW220813   9.818   8.291   8.112
 6306SOL     OW20814   2.447   5.019  11.749
 6306SOL    HW120815   2.412   5.108  11.751
 6306SOL    HW220816   2.427   4.983  11.835
 6307SOL     OW20817   6.519  11.538  13.303
 6307SOL    HW120818   6.448  11.566  13.361
 6307SOL    HW220819   6.492  11.452  13.271
 6308SOL     OW20820  13.866   2.254  11.258
 6308SOL    HW120821  13.941   2.195  11.271
 6308SOL    HW220822  13.860   2.304  11.339
 6309SOL     OW20823   3.134   1.505   9.043
 6309SOL    HW120824   3.170   1.578   8.993
 6309SOL    HW220825   3.110   1.544   9.127
 6310SOL     OW20826   2.941  14.834   2.965
 6310SOL    HW120827   2.996  14.756   2.952
 6310SOL    HW220828   2.964  14.864   3.053
 6311SOL     OW20829  12.933  14.840  10.642
 6311SOL    HW120830  12.873   0.011  10.586
 6311SOL    HW220831  12.962   0.026  10.708
 6312SOL     OW20832   2.983   0.693  13.332
 6312SOL    HW120833   2.968   0.612  13.380
 6312SOL    HW220834   2.998   0.759  13.400
 6313SOL     OW20835  11.619   0.624  11.131
 6313SOL    HW120836  11.637   0.693  11.067
 6313SOL    HW220837  11.654   0.545  11.091
 6314SOL     OW20838   8.357  11.471   7.167
 6314SOL    HW120839   8.444  11.437   7.188
 6314SOL    HW220840   8.344  11.449   7.075
 6315SOL     OW20841   9.500  12.470   0.132
 6315SOL    HW120842   9.500  12.442   0.041
 6315SOL    HW220843   9.480  12.563   0.129
 6316SOL     OW20844   1.957  11.886   2.093
 6316SOL    HW120845   1.906  11.836   2.157
 6316SOL    HW220846   2.042  11.898   2.133
 6317SOL     OW20847  12.780  14.847  10.917
 6317SOL    HW120848  12.798   0.062  10.897
 6317SOL    HW220849  12.809  14.799  10.840
 6318SOL     OW20850  11.633  13.452  12.574
 6318SOL    HW120851  11.574  13.513  12.619
 6318SOL    HW220852  11.665  13.394  12.642
 6319SOL     OW20853   9.709   1.296  14.580
 6319SOL    HW120854   9.713   1.301  14.676
 6319SOL    HW220855   9.642   1.231  14.561
 6320SOL     OW20856   9.105   8.322   6.917
 6320SOL    HW120857   9.188   8.321   6.965
 6320SOL    HW220858   9.049   8.261   6.966
 6321SOL     OW20859  12.745   4.870  11.666
 6321SOL    HW120860  12.661   4.907  11.639
 6321SOL    HW220861  12.727   4.829  11.750
 6322SOL     OW20862   6.364  12.928   8.996
 6322SOL    HW120863   6.296  12.983   9.036
 6322SOL    HW220864   6.440  12.986   8.988
 6323SOL     OW20865  12.081  11.384   9.734
 6323SOL    HW120866  12.132  11.306   9.715
 6323SOL    HW220867  12.145  11.447   9.769
 6324SOL     OW20868  14.202  13.746   8.754
 6324SOL    HW120869  14.147  13.824   8.751
 6324SOL    HW220870  14.165  13.694   8.826
 6325SOL     OW20871   5.499   4.577   4.947
 6325SOL    HW120872   5.464   4.579   5.037
 6325SOL    HW220873   5.558   4.652   4.943
 6326SOL     OW20874  11.923   4.330  14.814
 6326SOL    HW120875  11.836   4.350  14.848
 6326SOL    HW220876  11.976   4.314   0.015
 6327SOL     OW20877   3.378   0.742  11.755
 6327SOL    HW120878   3.452   0.774  11.703
 6327SOL    HW220879   3.382   0.793  11.836
 6328SOL     OW20880   7.277   5.191  10.987
 6328SOL    HW120881   7.243   5.103  11.003
 6328SOL    HW220882   7.326   5.211  11.067
 6329SOL     OW20883   5.020   0.695   1.987
 6329SOL    HW120884   4.974   0.684   1.903
 6329SOL    HW220885   5.089   0.628   1.985
 6330SOL     OW20886   5.636   5.169  14.704
 6330SOL    HW120887   5.659   5.222  14.780
 6330SOL    HW220888   5.543   5.151  14.714
 6331SOL     OW20889   6.009   9.166   4.029
 6331SOL    HW120890   6.064   9.232   4.072
 6331SOL    HW220891   6.036   9.169   3.937
 6332SOL     OW20892   7.543  11.092   4.207
 6332SOL    HW120893   7.449  11.074   4.206
 6332SOL    HW220894   7.579  11.033   4.141
 6333SOL     OW20895   6.083   0.360  11.614
 6333SOL    HW120896   6.116   0.446  11.587
 6333SOL    HW220897   6.021   0.336  11.546
 6334SOL     OW20898  14.650  10.471   4.186
 6334SOL    HW120899  14.673  10.562   4.167
 6334SOL    HW220900  14.661  10.425   4.102
 6335SOL     OW20901   4.710   5.866  12.839
 6335SOL    HW120902   4.669   5.918  12.769
 6335SOL    HW220903   4.651   5.875  12.913
 6336SOL     OW20904   1.508  10.519  12.664
 6336SOL    HW120905   1.591  10.484  12.631
 6336SOL    HW220906   1.501  10.485  12.753
 6337SOL     OW20907   6.988   3.924  14.585
 6337SOL    HW120908   6.897   3.893  14.580
 6337SOL    HW220909   7.014   3.937  14.493
 6338SOL     OW20910   0.546   1.183  11.380
 6338SOL    HW120911   0.501   1.238  11.443
 6338SOL    HW220912   0.627   1.156  11.424
 6339SOL     OW20913   9.495   8.971  14.548
 6339SOL    HW120914   9.402   8.993  14.551
 6339SOL    HW220915   9.539   9.054  14.533
 6340SOL     OW20916  13.903   7.495   4.071
 6340SOL    HW120917  13.949   7.415   4.046
 6340SOL    HW220918  13.969   7.549   4.114
 6341SOL     OW20919   8.653  14.310   3.069
 6341SOL    HW120920   8.582  14.369   3.095
 6341SOL    HW220921   8.732  14.349   3.106
 6342SOL     OW20922  14.483   4.890  12.155
 6342SOL    HW120923  14.527   4.971  12.129
 6342SOL    HW220924  14.461   4.903  12.248
 6343SOL     OW20925   6.766   7.061   3.837
 6343SOL    HW120926   6.770   7.005   3.914
 6343SOL    HW220927   6.686   7.112   3.850
 6344SOL     OW20928   5.144   5.645  12.901
 6344SOL    HW120929   5.083   5.577  12.927
 6344SOL    HW220930   5.227   5.621  12.943
 6345SOL     OW20931  13.947   0.381   0.345
 6345SOL    HW120932  13.959   0.377   0.250
 6345SOL    HW220933  14.035   0.396   0.380
 6346SOL     OW20934   7.171  13.642  11.642
 6346SOL    HW120935   7.258  13.604  11.637
 6346SOL    HW220936   7.140  13.622  11.730
 6347SOL     OW20937   1.067   7.474  13.960
 6347SOL    HW120938   0.984   7.446  13.921
 6347SOL    HW220939   1.040   7.517  14.041
 6348SOL     OW20940  14.613   6.499   6.050
 6348SOL    HW120941  14.578   6.490   6.139
 6348SOL    HW220942  14.686   6.437   6.047
 6349SOL     OW20943   5.219   1.538   7.862
 6349SOL    HW120944   5.136   1.527   7.908
 6349SOL    HW220945   5.214   1.478   7.788
 6350SOL     OW20946   5.458   7.613  13.207
 6350SOL    HW120947   5.449   7.668  13.285
 6350SOL    HW220948   5.506   7.669  13.145
 6351SOL     OW20949  11.708  10.986   9.413
 6351SOL    HW120950  11.674  10.900   9.389
 6351SOL    HW220951  11.717  10.982   9.508
 6352SOL     OW20952   0.053  10.700   7.708
 6352SOL    HW120953  14.862  10.722   7.645
 6352SOL    HW220954   0.134  10.707   7.659
 6353SOL     OW20955  12.426   8.668  12.688
 6353SOL    HW120956  12.363   8.597  12.680
 6353SOL    HW220957  12.510   8.628  12.667
 6354SOL     OW20958   0.986  13.998   3.342
 6354SOL    HW120959   1.013  14.048   3.419
 6354SOL    HW220960   0.919  13.938   3.376
 6355SOL     OW20961   3.254   4.883  14.105
 6355SOL    HW120962   3.312   4.908  14.177
 6355SOL    HW220963   3.243   4.788  14.116
 6356SOL     OW20964   1.966   4.608  13.781
 6356SOL    HW120965   2.033   4.557  13.734
 6356SOL    HW220966   1.883   4.571  13.752
 6357SOL     OW20967   1.698  11.065   6.695
 6357SOL    HW120968   1.698  11.083   6.601
 6357SOL    HW220969   1.784  11.026   6.712
 6358SOL     OW20970   1.432   3.377  13.507
 6358SOL    HW120971   1.457   3.467  13.526
 6358SOL    HW220972   1.414   3.376  13.413
 6359SOL     OW20973   7.864   1.892  12.826
 6359SOL    HW120974   7.816   1.811  12.807
 6359SOL    HW220975   7.838   1.914  12.915
 6360SOL     OW20976   2.712   1.524   1.678
 6360SOL    HW120977   2.639   1.492   1.731
 6360SOL    HW220978   2.673   1.546   1.594
 6361SOL     OW20979   6.505   8.048  12.782
 6361SOL    HW120980   6.557   7.986  12.834
 6361SOL    HW220981   6.489   8.003  12.699
 6362SOL     OW20982   1.058   3.478   7.826
 6362SOL    HW120983   1.146   3.512   7.806
 6362SOL    HW220984   1.018   3.465   7.740
 6363SOL     OW20985   8.394   6.471  12.146
 6363SOL    HW120986   8.438   6.437  12.223
 6363SOL    HW220987   8.310   6.425  12.144
 6364SOL     OW20988   3.357   9.374  11.554
 6364SOL    HW120989   3.438   9.402  11.599
 6364SOL    HW220990   3.385   9.354  11.465
 6365SOL     OW20991   0.698   9.484   5.516
 6365SOL    HW120992   0.621   9.533   5.486
 6365SOL    HW220993   0.664   9.421   5.579
 6366SOL     OW20994   3.239  12.970   4.209
 6366SOL    HW120995   3.202  12.959   4.121
 6366SOL    HW220996   3.178  12.922   4.266
 6367SOL     OW20997   3.395  12.718   3.570
 6367SOL    HW120998   3.377  12.773   3.646
 6367SOL    HW220999   3.490  12.707   3.569
 6368SOL     OW21000   3.105   1.072  12.227
 6368SOL    HW121001   3.133   0.982  12.210
 6368SOL    HW221002   3.033   1.063  12.289
 6369SOL     OW21003  11.119   3.449   0.497
 6369SOL    HW121004  11.172   3.505   0.441
 6369SOL    HW221005  11.046   3.422   0.442
 6370SOL     OW21006   9.306  12.067  10.382
 6370SOL    HW121007   9.267  12.154  10.371
 6370SOL    HW221008   9.383  12.069  10.324
 6371SOL     OW21009   0.742   6.850   4.001
 6371SOL    HW121010   0.723   6.909   4.074
 6371SOL    HW221011   0.664   6.856   3.945
 6372SOL     OW21012  11.393  10.575   3.618
 6372SOL    HW121013  11.476  10.619   3.599
 6372SOL    HW221014  11.418  10.484   3.638
 6373SOL     OW21015   9.570   1.368  12.450
 6373SOL    HW121016   9.504   1.404  12.390
 6373SOL    HW221017   9.633   1.439  12.463
 6374SOL     OW21018  14.128  13.653  13.737
 6374SOL    HW121019  14.093  13.565  13.751
 6374SOL    HW221020  14.223  13.640  13.735
 6375SOL     OW21021   3.162  12.151  10.571
 6375SOL    HW121022   3.139  12.122  10.482
 6375SOL    HW221023   3.190  12.242  10.560
 6376SOL     OW21024  11.051   3.567   1.251
 6376SOL    HW121025  11.057   3.492   1.310
 6376SOL    HW221026  11.048   3.644   1.308
 6377SOL     OW21027  10.215   4.896  14.407
 6377SOL    HW121028  10.217   4.811  14.362
 6377SOL    HW221029  10.150   4.947  14.358
 6378SOL     OW21030   9.716   9.531   3.263
 6378SOL    HW121031   9.726   9.596   3.193
 6378SOL    HW221032   9.628   9.495   3.251
 6379SOL     OW21033   9.488   7.196   3.920
 6379SOL    HW121034   9.567   7.226   3.964
 6379SOL    HW221035   9.424   7.265   3.936
 6380SOL     OW21036  13.594   8.050   4.795
 6380SOL    HW121037  13.550   8.133   4.775
 6380SOL    HW221038  13.637   8.066   4.879
 6381SOL     OW21039   8.279   5.443   0.050
 6381SOL    HW121040   8.251   5.488  14.848
 6381SOL    HW221041   8.370   5.469   0.061
 6382SOL     OW21042   3.897   6.750   0.698
 6382SOL    HW121043   3.969   6.765   0.637
 6382SOL    HW221044   3.867   6.661   0.678
 6383SOL     OW21045  11.415  11.250   2.499
 6383SOL    HW121046  11.474  11.325   2.510
 6383SOL    HW221047  11.473  11.177   2.477
 6384SOL     OW21048   6.847  13.929   2.960
 6384SOL    HW121049   6.789  14.001   2.983
 6384SOL    HW221050   6.857  13.936   2.865
 6385SOL     OW21051   5.201   2.182   5.272
 6385SOL    HW121052   5.167   2.213   5.188
 6385SOL    HW221053   5.238   2.096   5.253
 6386SOL     OW21054   5.828  10.378   9.755
 6386SOL    HW121055   5.887  10.418   9.819
 6386SOL    HW221056   5.794  10.300   9.799
 6387SOL     OW21057  14.014  13.056   2.628
 6387SOL    HW121058  14.050  13.094   2.708
 6387SOL    HW221059  13.980  13.132   2.579
 6388SOL     OW21060   4.307   4.361   2.650
 6388SOL    HW121061   4.373   4.300   2.684
 6388SOL    HW221062   4.358   4.427   2.603
 6389SOL     OW21063   8.655   9.721   0.511
 6389SOL    HW121064   8.719   9.780   0.471
 6389SOL    HW221065   8.702   9.682   0.585
 6390SOL     OW21066   2.372   0.533   4.639
 6390SOL    HW121067   2.366   0.438   4.641
 6390SOL    HW221068   2.374   0.560   4.731
 6391SOL     OW21069   4.434   6.824   7.952
 6391SOL    HW121070   4.478   6.861   8.028
 6391SOL    HW221071   4.456   6.731   7.954
 6392SOL     OW21072   7.684   1.439  14.506
 6392SOL    HW121073   7.660   1.350  14.529
 6392SOL    HW221074   7.685   1.486  14.590
 6393SOL     OW21075   7.416   8.734   8.535
 6393SOL    HW121076   7.436   8.726   8.442
 6393SOL    HW221077   7.401   8.644   8.564
 6394SOL     OW21078   2.504   5.982  14.418
 6394SOL    HW121079   2.437   6.018  14.360
 6394SOL    HW221080   2.571   6.050  14.423
 6395SOL     OW21081   2.975   6.259   1.638
 6395SOL    HW121082   3.012   6.223   1.719
 6395SOL    HW221083   2.975   6.354   1.652
 6396SOL     OW21084   3.775   5.758   9.348
 6396SOL    HW121085   3.750   5.814   9.421
 6396SOL    HW221086   3.712   5.686   9.350
 6397SOL     OW21087   7.509   3.361   7.423
 6397SOL    HW121088   7.528   3.384   7.514
 6397SOL    HW221089   7.467   3.275   7.429
 6398SOL     OW21090   7.330  14.120   6.635
 6398SOL    HW121091   7.360  14.210   6.647
 6398SOL    HW221092   7.254  14.112   6.692
 6399SOL     OW21093  10.041  12.754   3.614
 6399SOL    HW121094  10.035  12.669   3.657
 6399SOL    HW221095  10.070  12.733   3.525
 6400SOL     OW21096   2.052   9.853  10.636
 6400SOL    HW121097   2.036   9.947  10.647
 6400SOL    HW221098   2.053   9.819  10.726
 6401SOL     OW21099   8.758  14.141   4.044
 6401SOL    HW121100   8.843  14.102   4.067
 6401SOL    HW221101   8.773  14.235   4.054
 6402SOL     OW21102   8.818   1.873   2.163
 6402SOL    HW121103   8.823   1.798   2.221
 6402SOL    HW221104   8.901   1.919   2.176
 6403SOL     OW21105   7.862  14.542  11.513
 6403SOL    HW121106   7.911  14.618  11.482
 6403SOL    HW221107   7.771  14.571  11.513
 6404SOL     OW21108   8.587   8.433   9.094
 6404SOL    HW121109   8.648   8.437   9.021
 6404SOL    HW221110   8.633   8.383   9.162
 6405SOL     OW21111  14.505   7.835   6.780
 6405SOL    HW121112  14.555   7.818   6.700
 6405SOL    HW221113  14.499   7.930   6.785
 6406SOL     OW21114   7.892   2.824  14.535
 6406SOL    HW121115   7.966   2.805  14.592
 6406SOL    HW221116   7.816   2.786  14.579
 6407SOL     OW21117   8.907   2.103   0.469
 6407SOL    HW121118   8.831   2.111   0.412
 6407SOL    HW221119   8.878   2.142   0.552
 6408SOL     OW21120   1.797   4.090   1.463
 6408SOL    HW121121   1.734   4.101   1.534
 6408SOL    HW221122   1.850   4.170   1.466
 6409SOL     OW21123   8.295  11.549  14.499
 6409SOL    HW121124   8.214  11.554  14.549
 6409SOL    HW221125   8.319  11.640  14.482
 6410SOL     OW21126  14.871   1.093  11.134
 6410SOL    HW121127   0.079   1.049  11.136
 6410SOL    HW221128  14.815   1.038  11.190
 6411SOL     OW21129   3.742   7.791   2.026
 6411SOL    HW121130   3.783   7.764   1.943
 6411SOL    HW221131   3.802   7.857   2.061
 6412SOL     OW21132   1.045   3.944   7.421
 6412SOL    HW121133   0.975   3.905   7.369
 6412SOL    HW221134   1.023   3.922   7.511
 6413SOL     OW21135   8.498  11.066   7.916
 6413SOL    HW121136   8.573  11.072   7.857
 6413SOL    HW221137   8.436  11.132   7.884
 6414SOL     OW21138  14.354  11.020   1.730
 6414SOL    HW121139  14.407  11.020   1.650
 6414SOL    HW221140  14.268  11.053   1.701
 6415SOL     OW21141   1.577   1.079   9.026
 6415SOL    HW121142   1.557   1.104   9.116
 6415SOL    HW221143   1.671   1.064   9.025
 6416SOL     OW21144   1.991   0.010   4.039
 6416SOL    HW121145   2.010   0.003   4.133
 6416SOL    HW221146   2.056   0.072   4.006
 6417SOL     OW21147   6.956   3.852   1.548
 6417SOL    HW121148   6.950   3.763   1.513
 6417SOL    HW221149   6.865   3.880   1.557
 6418SOL     OW21150   7.274   0.276   0.019
 6418SOL    HW121151   7.180   0.294   0.016
 6418SOL    HW221152   7.314   0.353  14.856
 6419SOL     OW21153   7.839  10.214   8.573
 6419SOL    HW121154   7.846  10.238   8.666
 6419SOL    HW221155   7.904  10.270   8.530
 6420SOL     OW21156  12.135   3.313   0.918
 6420SOL    HW121157  12.208   3.364   0.883
 6420SOL    HW221158  12.097   3.368   0.986
 6421SOL     OW21159   6.942   0.451   6.915
 6421SOL    HW121160   6.914   0.375   6.966
 6421SOL    HW221161   7.036   0.456   6.928
 6422SOL     OW21162   7.721   1.844   2.184
 6422SOL    HW121163   7.734   1.934   2.154
 6422SOL    HW221164   7.629   1.841   2.211
 6423SOL     OW21165   8.718   0.160   7.106
 6423SOL    HW121166   8.624   0.159   7.121
 6423SOL    HW221167   8.734   0.241   7.057
 6424SOL     OW21168   4.718   4.720   1.841
 6424SOL    HW121169   4.785   4.756   1.784
 6424SOL    HW221170   4.641   4.774   1.825
 6425SOL     OW21171   5.455   8.213   6.222
 6425SOL    HW121172   5.487   8.282   6.163
 6425SOL    HW221173   5.532   8.190   6.274
 6426SOL     OW21174  14.595   3.907  10.595
 6426SOL    HW121175  14.580   3.849  10.521
 6426SOL    HW221176  14.507   3.934  10.623
 6427SOL     OW21177   3.834   5.691  10.119
 6427SOL    HW121178   3.793   5.621  10.068
 6427SOL    HW221179   3.892   5.735  10.057
 6428SOL     OW21180   5.955   8.456   5.985
 6428SOL    HW121181   5.913   8.373   6.005
 6428SOL    HW221182   6.041   8.451   6.027
 6429SOL     OW21183   2.687   0.836   8.768
 6429SOL    HW121184   2.774   0.877   8.770
 6429SOL    HW221185   2.705   0.744   8.747
 6430SOL     OW21186  10.256  11.334   5.732
 6430SOL    HW121187  10.257  11.249   5.688
 6430SOL    HW221188  10.234  11.396   5.663
 6431SOL     OW21189   2.796   3.830   7.967
 6431SOL    HW121190   2.761   3.916   7.942
 6431SOL    HW221191   2.868   3.850   8.027
 6432SOL     OW21192   7.395  11.469   9.330
 6432SOL    HW121193   7.317  11.427   9.294
 6432SOL    HW221194   7.453  11.482   9.254
 6433SOL     OW21195  12.892   1.811   8.683
 6433SOL    HW121196  12.904   1.786   8.591
 6433SOL    HW221197  12.973   1.785   8.726
 6434SOL     OW21198   5.603  12.746   0.316
 6434SOL    HW121199   5.515  12.730   0.283
 6434SOL    HW221200   5.660  12.701   0.253
 6435SOL     OW21201   7.972   8.651  13.574
 6435SOL    HW121202   7.970   8.674  13.482
 6435SOL    HW221203   8.029   8.574  13.579
 6436SOL     OW21204   9.610   4.963   9.826
 6436SOL    HW121205   9.692   4.941   9.870
 6436SOL    HW221206   9.616   4.921   9.741
 6437SOL     OW21207   5.824   9.786  13.077
 6437SOL    HW121208   5.814   9.726  13.151
 6437SOL    HW221209   5.745   9.773  13.024
 6438SOL     OW21210   8.721   6.798   8.852
 6438SOL    HW121211   8.654   6.861   8.825
 6438SOL    HW221212   8.699   6.778   8.943
 6439SOL     OW21213   5.986   5.419   0.225
 6439SOL    HW121214   5.982   5.400   0.319
 6439SOL    HW221215   6.068   5.467   0.213
 6440SOL     OW21216  13.500  13.301  12.923
 6440SOL    HW121217  13.552  13.269  12.996
 6440SOL    HW221218  13.413  13.265  12.938
 6441SOL     OW21219   0.404   0.915  12.453
 6441SOL    HW121220   0.310   0.920  12.437
 6441SOL    HW221221   0.413   0.852  12.525
 6442SOL     OW21222  11.448  13.495  12.143
 6442SOL    HW121223  11.378  13.439  12.177
 6442SOL    HW221224  11.525  13.469  12.193
 6443SOL     OW21225   1.353   0.006   6.267
 6443SOL    HW121226   1.283  14.853   6.324
 6443SOL    HW221227   1.324  14.860   6.179
 6444SOL     OW21228   9.474   6.345   1.674
 6444SOL    HW121229   9.509   6.426   1.713
 6444SOL    HW221230   9.487   6.356   1.580
 6445SOL     OW21231   6.504   0.519  10.540
 6445SOL    HW121232   6.410   0.505  10.552
 6445SOL    HW221233   6.518   0.610  10.564
 6446SOL     OW21234  14.849   1.841  12.520
 6446SOL    HW121235  14.836   1.824  12.426
 6446SOL    HW221236   0.050   1.791  12.542
 6447SOL     OW21237  12.696  12.641   6.575
 6447SOL    HW121238  12.697  12.736   6.583
 6447SOL    HW221239  12.687  12.609   6.665
 6448SOL     OW21240   0.598  13.425   1.706
 6448SOL    HW121241   0.630  13.485   1.774
 6448SOL    HW221242   0.509  13.454   1.688
 6449SOL     OW21243   7.350   7.919   6.753
 6449SOL    HW121244   7.276   7.882   6.800
 6449SOL    HW221245   7.373   7.853   6.688
 6450SOL     OW21246  10.063  10.488  12.302
 6450SOL    HW121247  10.143  10.516  12.258
 6450SOL    HW221248  10.081  10.399  12.331
 6451SOL     OW21249   1.183  11.613  13.096
 6451SOL    HW121250   1.167  11.640  13.187
 6451SOL    HW221251   1.120  11.543  13.080
 6452SOL     OW21252   6.739   4.500   3.280
 6452SOL    HW121253   6.709   4.427   3.227
 6452SOL    HW221254   6.741   4.465   3.369
 6453SOL     OW21255   2.659   1.152  13.075
 6453SOL    HW121256   2.614   1.232  13.049
 6453SOL    HW221257   2.592   1.100  13.119
 6454SOL     OW21258  13.847   5.431  14.514
 6454SOL    HW121259  13.813   5.406  14.428
 6454SOL    HW221260  13.935   5.464  14.496
 6455SOL     OW21261   2.738   5.104   6.154
 6455SOL    HW121262   2.697   5.044   6.092
 6455SOL    HW221263   2.706   5.191   6.130
 6456SOL     OW21264   9.240   6.944  14.157
 6456SOL    HW121265   9.201   6.909  14.077
 6456SOL    HW221266   9.165   6.959  14.215
 6457SOL     OW21267   2.885   4.691  10.424
 6457SOL    HW121268   2.812   4.647  10.381
 6457SOL    HW221269   2.848   4.774  10.455
 6458SOL     OW21270  10.236   0.490   6.846
 6458SOL    HW121271  10.287   0.569   6.863
 6458SOL    HW221272  10.163   0.520   6.792
 6459SOL     OW21273   0.125   8.346   5.028
 6459SOL    HW121274   0.115   8.326   4.935
 6459SOL    HW221275   0.216   8.326   5.047
 6460SOL     OW21276   9.632   0.154   5.562
 6460SOL    HW121277   9.670   0.086   5.618
 6460SOL    HW221278   9.649   0.124   5.473
 6461SOL     OW21279   4.395   8.543   1.491
 6461SOL    HW121280   4.472   8.596   1.513
 6461SOL    HW221281   4.339   8.603   1.442
 6462SOL     OW21282   8.809   8.831   3.780
 6462SOL    HW121283   8.781   8.865   3.865
 6462SOL    HW221284   8.903   8.846   3.777
 6463SOL     OW21285  12.409   8.621   9.003
 6463SOL    HW121286  12.390   8.531   8.978
 6463SOL    HW221287  12.422   8.666   8.919
 6464SOL     OW21288  13.136   5.882   0.505
 6464SOL    HW121289  13.055   5.904   0.551
 6464SOL    HW221290  13.190   5.839   0.571
 6465SOL     OW21291   1.778   5.836  14.762
 6465SOL    HW121292   1.720   5.855  14.689
 6465SOL    HW221293   1.862   5.815  14.721
 6466SOL     OW21294   9.489  14.456  10.730
 6466SOL    HW121295   9.575  14.462  10.771
 6466SOL    HW221296   9.507  14.459  10.636
 6467SOL     OW21297  12.724   3.409   2.605
 6467SOL    HW121298  12.781   3.447   2.672
 6467SOL    HW221299  12.763   3.324   2.585
 6468SOL     OW21300   7.384  10.203   2.516
 6468SOL    HW121301   7.339  10.288   2.516
 6468SOL    HW221302   7.471  10.222   2.551
 6469SOL     OW21303  11.429   2.176  12.638
 6469SOL    HW121304  11.520   2.185  12.668
 6469SOL    HW221305  11.409   2.083  12.650
 6470SOL     OW21306   5.475   5.200  12.374
 6470SOL    HW121307   5.475   5.167  12.285
 6470SOL    HW221308   5.528   5.138  12.423
 6471SOL     OW21309  10.682  14.259   6.872
 6471SOL    HW121310  10.719  14.171   6.869
 6471SOL    HW221311  10.603  14.250   6.926
 6472SOL     OW21312  13.088  13.135   2.867
 6472SOL    HW121313  13.015  13.183   2.906
 6472SOL    HW221314  13.161  13.198   2.866
 6473SOL     OW21315  12.937   6.872  13.484
 6473SOL    HW121316  12.922   6.837  13.571
 6473SOL    HW221317  12.897   6.808  13.425
 6474SOL     OW21318  12.499   2.900   8.104
 6474SOL    HW121319  12.518   2.809   8.084
 6474SOL    HW221320  12.477   2.939   8.019
 6475SOL     OW21321   0.365  13.106   2.798
 6475SOL    HW121322   0.338  13.131   2.710
 6475SOL    HW221323   0.437  13.044   2.784
 6476SOL     OW21324  13.704   0.213  10.468
 6476SOL    HW121325  13.682   0.296  10.425
 6476SOL    HW221326  13.788   0.188  10.429
 6477SOL     OW21327  14.229   6.632   7.172
 6477SOL    HW121328  14.139   6.663   7.159
 6477SOL    HW221329  14.284   6.700   7.134
 6478SOL     OW21330   3.812   4.960   9.507
 6478SOL    HW121331   3.867   4.959   9.429
 6478SOL    HW221332   3.872   4.941   9.580
 6479SOL     OW21333   7.594   5.651   3.598
 6479SOL    HW121334   7.622   5.716   3.661
 6479SOL    HW221335   7.513   5.686   3.561
 6480SOL     OW21336  12.649   4.810   5.362
 6480SOL    HW121337  12.688   4.792   5.447
 6480SOL    HW221338  12.723   4.803   5.301
 6481SOL     OW21339   4.256  11.122   9.532
 6481SOL    HW121340   4.242  11.191   9.597
 6481SOL    HW221341   4.337  11.148   9.487
 6482SOL     OW21342   0.823  11.734   0.396
 6482SOL    HW121343   0.848  11.642   0.382
 6482SOL    HW221344   0.749  11.730   0.456
 6483SOL     OW21345  14.058   9.182   8.422
 6483SOL    HW121346  14.016   9.164   8.507
 6483SOL    HW221347  14.040   9.274   8.405
 6484SOL     OW21348   6.526   1.465   1.787
 6484SOL    HW121349   6.604   1.515   1.764
 6484SOL    HW221350   6.527   1.391   1.726
 6485SOL     OW21351   5.016   8.317   4.695
 6485SOL    HW121352   5.109   8.305   4.716
 6485SOL    HW221353   5.004   8.412   4.695
 6486SOL     OW21354  10.476   9.228  10.187
 6486SOL    HW121355  10.491   9.182  10.104
 6486SOL    HW221356  10.403   9.286  10.170
 6487SOL     OW21357  14.601   8.500   2.464
 6487SOL    HW121358  14.625   8.548   2.385
 6487SOL    HW221359  14.527   8.549   2.501
 6488SOL     OW21360   5.787   6.225   7.063
 6488SOL    HW121361   5.825   6.198   6.979
 6488SOL    HW221362   5.708   6.173   7.071
 6489SOL     OW21363  12.491   8.820   2.857
 6489SOL    HW121364  12.574   8.866   2.842
 6489SOL    HW221365  12.507   8.731   2.825
 6490SOL     OW21366  14.496   7.548  12.388
 6490SOL    HW121367  14.528   7.508  12.468
 6490SOL    HW221368  14.555   7.622  12.372
 6491SOL     OW21369   4.715   5.443   9.124
 6491SOL    HW121370   4.688   5.391   9.048
 6491SOL    HW221371   4.805   5.414   9.142
 6492SOL     OW21372   6.194   0.632  14.566
 6492SOL    HW121373   6.137   0.665  14.497
 6492SOL    HW221374   6.277   0.613  14.521
 6493SOL     OW21375   5.068  10.712  13.923
 6493SOL    HW121376   5.018  10.709  13.842
 6493SOL    HW221377   5.158  10.690  13.897
 6494SOL     OW21378  10.851   1.805  12.602
 6494SOL    HW121379  10.797   1.798  12.523
 6494SOL    HW221380  10.855   1.715  12.636
 6495SOL     OW21381   0.339   7.250   4.644
 6495SOL    HW121382   0.340   7.333   4.692
 6495SOL    HW221383   0.329   7.275   4.552
 6496SOL     OW21384   3.075   7.637  11.202
 6496SOL    HW121385   3.146   7.679  11.153
 6496SOL    HW221386   3.008   7.620  11.136
 6497SOL     OW21387   2.767   2.341   2.200
 6497SOL    HW121388   2.845   2.286   2.214
 6497SOL    HW221389   2.786   2.388   2.119
 6498SOL     OW21390   7.632  12.197  10.485
 6498SOL    HW121391   7.659  12.281  10.449
 6498SOL    HW221392   7.690  12.183  10.560
 6499SOL     OW21393   6.785  10.931  14.633
 6499SOL    HW121394   6.871  10.967  14.655
 6499SOL    HW221395   6.752  10.988  14.564
 6500SOL     OW21396   3.121  11.739   1.110
 6500SOL    HW121397   3.127  11.721   1.016
 6500SOL    HW221398   3.035  11.705   1.135
 6501SOL     OW21399   0.596   9.782   7.364
 6501SOL    HW121400   0.609   9.775   7.270
 6501SOL    HW221401   0.536   9.855   7.375
 6502SOL     OW21402   4.083  10.307   2.045
 6502SOL    HW121403   4.120  10.248   2.110
 6502SOL    HW221404   4.093  10.261   1.961
 6503SOL     OW21405   4.666  11.109   0.564
 6503SOL    HW121406   4.572  11.108   0.547
 6503SOL    HW221407   4.699  11.029   0.522
 6504SOL     OW21408   7.416   8.607   3.214
 6504SOL    HW121409   7.367   8.621   3.132
 6504SOL    HW221410   7.489   8.669   3.208
 6505SOL     OW21411  12.751   7.796   5.235
 6505SOL    HW121412  12.772   7.759   5.321
 6505SOL    HW221413  12.835   7.828   5.202
 6506SOL     OW21414   9.808   3.851   6.135
 6506SOL    HW121415   9.840   3.767   6.166
 6506SOL    HW221416   9.854   3.916   6.189
 6507SOL     OW21417  11.636  12.506   6.401
 6507SOL    HW121418  11.611  12.537   6.488
 6507SOL    HW221419  11.566  12.445   6.377
 6508SOL     OW21420  13.092  12.886   8.299
 6508SOL    HW121421  13.124  12.941   8.371
 6508SOL    HW221422  13.029  12.942   8.253
 6509SOL     OW21423  14.571   1.004   9.915
 6509SOL    HW121424  14.641   0.952   9.877
 6509SOL    HW221425  14.566   1.082   9.859
 6510SOL     OW21426   4.752   5.572  12.740
 6510SOL    HW121427   4.704   5.608  12.814
 6510SOL    HW221428   4.841   5.605  12.751
 6511SOL     OW21429   6.034  11.832   8.147
 6511SOL    HW121430   5.962  11.796   8.198
 6511SOL    HW221431   6.006  11.921   8.125
 6512SOL     OW21432  13.758   2.000  14.652
 6512SOL    HW121433  13.696   1.996  14.725
 6512SOL    HW221434  13.765   1.910  14.621
 6513SOL     OW21435   6.211   6.864   4.878
 6513SOL    HW121436   6.134   6.823   4.840
 6513SOL    HW221437   6.279   6.796   4.873
 6514SOL     OW21438   8.758   7.631   2.658
 6514SOL    HW121439   8.689   7.629   2.592
 6514SOL    HW221440   8.764   7.541   2.690
 6515SOL     OW21441   4.725   9.792   5.579
 6515SOL    HW121442   4.687   9.716   5.536
 6515SOL    HW221443   4.716   9.775   5.672
 6516SOL     OW21444  12.684  10.985   2.922
 6516SOL    HW121445  12.675  10.958   3.014
 6516SOL    HW221446  12.774  11.017   2.915
 6517SOL     OW21447   4.531   4.892   1.689
 6517SOL    HW121448   4.466   4.836   1.646
 6517SOL    HW221449   4.548   4.962   1.626
 6518SOL     OW21450  11.658  14.573  13.726
 6518SOL    HW121451  11.635  14.504  13.664
 6518SOL    HW221452  11.645  14.654  13.677
 6519SOL     OW21453   1.421   1.858   3.115
 6519SOL    HW121454   1.458   1.893   3.196
 6519SOL    HW221455   1.360   1.791   3.144
 6520SOL     OW21456   5.721  12.476   0.721
 6520SOL    HW121457   5.690  12.429   0.799
 6520SOL    HW221458   5.641  12.504   0.677
 6521SOL     OW21459   4.720  12.299   3.387
 6521SOL    HW121460   4.814  12.289   3.371
 6521SOL    HW221461   4.700  12.387   3.353
 6522SOL     OW21462   6.548   9.939  10.003
 6522SOL    HW121463   6.514  10.010   9.948
 6522SOL    HW221464   6.528   9.860   9.954
 6523SOL     OW21465  13.264   2.501  11.259
 6523SOL    HW121466  13.344   2.474  11.214
 6523SOL    HW221467  13.193   2.464  11.207
 6524SOL     OW21468  13.757   1.336   6.800
 6524SOL    HW121469  13.717   1.256   6.766
 6524SOL    HW221470  13.771   1.319   6.893
 6525SOL     OW21471  10.172   3.941   3.283
 6525SOL    HW121472  10.093   3.972   3.328
 6525SOL    HW221473  10.160   3.966   3.192
 6526SOL     OW21474  10.950   3.835  10.964
 6526SOL    HW121475  11.037   3.874  10.952
 6526SOL    HW221476  10.966   3.741  10.966
 6527SOL     OW21477  10.141   9.175   4.338
 6527SOL    HW121478  10.213   9.127   4.378
 6527SOL    HW221479  10.170   9.192   4.248
 6528SOL     OW21480   5.677  11.641  11.389
 6528SOL    HW121481   5.751  11.606  11.439
 6528SOL    HW221482   5.601  11.594  11.424
 6529SOL     OW21483   5.276  12.293   5.611
 6529SOL    HW121484   5.371  12.288   5.610
 6529SOL    HW221485   5.256  12.375   5.566
 6530SOL     OW21486   4.763  14.501   1.802
 6530SOL    HW121487   4.693  14.553   1.841
 6530SOL    HW221488   4.718  14.448   1.735
 6531SOL     OW21489  14.627   6.163   6.314
 6531SOL    HW121490  14.588   6.124   6.392
 6531SOL    HW221491  14.721   6.157   6.328
 6532SOL     OW21492   1.770   9.863   6.308
 6532SOL    HW121493   1.738   9.845   6.396
 6532SOL    HW221494   1.779   9.776   6.268
 6533SOL     OW21495  14.090   7.397   2.000
 6533SOL    HW121496  14.019   7.452   1.967
 6533SOL    HW221497  14.157   7.460   2.027
 6534SOL     OW21498  10.512  11.507   6.379
 6534SOL    HW121499  10.557  11.544   6.455
 6534SOL    HW221500  10.515  11.578   6.314
 6535SOL     OW21501  12.154   5.212   4.463
 6535SOL    HW121502  12.211   5.155   4.515
 6535SOL    HW221503  12.122   5.156   4.393
 6536SOL     OW21504   3.344   0.172   0.297
 6536SOL    HW121505   3.355   0.215   0.381
 6536SOL    HW221506   3.369   0.081   0.313
 6537SOL     OW21507   1.429  11.123  12.842
 6537SOL    HW121508   1.363  11.183  12.876
 6537SOL    HW221509   1.451  11.068  12.917
 6538SOL     OW21510   9.342   7.440   3.522
 6538SOL    HW121511   9.349   7.522   3.571
 6538SOL    HW221512   9.431   7.405   3.519
 6539SOL     OW21513   5.007   6.355  14.208
 6539SOL    HW121514   5.028   6.433  14.260
 6539SOL    HW221515   5.002   6.387  14.118
 6540SOL     OW21516   3.698   2.818   4.107
 6540SOL    HW121517   3.778   2.786   4.065
 6540SOL    HW221518   3.725   2.841   4.196
 6541SOL     OW21519  14.777   0.091  12.110
 6541SOL    HW121520  14.703   0.086  12.170
 6541SOL    HW221521  14.765   0.017  12.050
 6542SOL     OW21522  11.190   0.612   0.929
 6542SOL    HW121523  11.140   0.549   0.877
 6542SOL    HW221524  11.259   0.560   0.971
 6543SOL     OW21525   3.918   5.001   3.328
 6543SOL    HW121526   3.944   5.088   3.298
 6543SOL    HW221527   3.878   5.017   3.413
 6544SOL     OW21528   6.382  10.931   4.144
 6544SOL    HW121529   6.383  10.923   4.239
 6544SOL    HW221530   6.291  10.949   4.122
 6545SOL     OW21531   7.007   1.757   3.104
 6545SOL    HW121532   7.044   1.701   3.173
 6545SOL    HW221533   7.083   1.785   3.054
 6546SOL     OW21534   7.846   0.622   6.706
 6546SOL    HW121535   7.940   0.606   6.705
 6546SOL    HW221536   7.820   0.613   6.797
 6547SOL     OW21537   9.695  13.910   3.491
 6547SOL    HW121538   9.758  13.861   3.437
 6547SOL    HW221539   9.664  13.846   3.555
 6548SOL     OW21540   1.360   6.719  12.833
 6548SOL    HW121541   1.332   6.690  12.919
 6548SOL    HW221542   1.433   6.779  12.851
 6549SOL     OW21543   3.205  11.748  13.186
 6549SOL    HW121544   3.237  11.790  13.106
 6549SOL    HW221545   3.276  11.690  13.212
 6550SOL     OW21546   9.827  12.800   0.333
 6550SOL    HW121547   9.915  12.790   0.370
 6550SOL    HW221548   9.843  12.836   0.246
 6551SOL     OW21549   4.301  11.426   0.840
 6551SOL    HW121550   4.367  11.462   0.781
 6551SOL    HW221551   4.319  11.467   0.924
 6552SOL     OW21552   8.825  14.244   8.347
 6552SOL    HW121553   8.910  14.274   8.316
 6552SOL    HW221554   8.801  14.306   8.416
 6553SOL     OW21555  12.732   4.832   9.113
 6553SOL    HW121556  12.677   4.757   9.092
 6553SOL    HW221557  12.685   4.907   9.076
 6554SOL     OW21558   1.117   9.971   2.956
 6554SOL    HW121559   1.204  10.002   2.929
 6554SOL    HW221560   1.108  10.002   3.046
 6555SOL     OW21561  12.684   6.977  13.215
 6555SOL    HW121562  12.776   6.952  13.208
 6555SOL    HW221563  12.645   6.953  13.131
 6556SOL     OW21564   5.445   4.247   0.970
 6556SOL    HW121565   5.399   4.170   0.937
 6556SOL    HW221566   5.538   4.224   0.964
 6557SOL     OW21567   7.724   3.107  10.717
 6557SOL    HW121568   7.739   3.013  10.703
 6557SOL    HW221569   7.687   3.111  10.806
 6558SOL     OW21570  12.107   9.762   9.790
 6558SOL    HW121571  12.027   9.755   9.737
 6558SOL    HW221572  12.138   9.851   9.774
 6559SOL     OW21573   7.100  13.344  10.576
 6559SOL    HW121574   7.068  13.426  10.539
 6559SOL    HW221575   7.192  13.339  10.550
 6560SOL     OW21576   7.979  12.060   8.977
 6560SOL    HW121577   7.970  11.965   8.980
 6560SOL    HW221578   7.924  12.087   8.903
 6561SOL     OW21579   0.942   1.759   4.105
 6561SOL    HW121580   0.894   1.678   4.087
 6561SOL    HW221581   0.949   1.802   4.019
 6562SOL     OW21582  10.090   1.610   7.622
 6562SOL    HW121583  10.092   1.705   7.613
 6562SOL    HW221584  10.177   1.588   7.656
 6563SOL     OW21585  12.192  13.904   2.347
 6563SOL    HW121586  12.237  13.877   2.268
 6563SOL    HW221587  12.111  13.853   2.348
 6564SOL     OW21588   9.984  12.896  10.214
 6564SOL    HW121589   9.903  12.852  10.242
 6564SOL    HW221590   9.966  12.925  10.124
 6565SOL     OW21591  10.632   5.517  13.258
 6565SOL    HW121592  10.679   5.588  13.300
 6565SOL    HW221593  10.621   5.545  13.167
 6566SOL     OW21594   2.496   8.864  10.831
 6566SOL    HW121595   2.452   8.926  10.773
 6566SOL    HW221596   2.482   8.900  10.919
 6567SOL     OW21597   6.341   6.001  13.142
 6567SOL    HW121598   6.253   5.983  13.176
 6567SOL    HW221599   6.385   6.047  13.214
 6568SOL     OW21600   5.190  10.102  14.190
 6568SOL    HW121601   5.193  10.020  14.239
 6568SOL    HW221602   5.182  10.170  14.258
 6569SOL     OW21603   6.932  11.958  11.097
 6569SOL    HW121604   6.859  12.018  11.108
 6569SOL    HW221605   7.009  12.007  11.127
 6570SOL     OW21606   3.078   5.647  11.423
 6570SOL    HW121607   3.023   5.701  11.367
 6570SOL    HW221608   3.112   5.708  11.489
 6571SOL     OW21609   3.953   0.776  12.161
 6571SOL    HW121610   4.047   0.763  12.166
 6571SOL    HW221611   3.932   0.769  12.068
 6572SOL     OW21612   9.249  11.415   9.098
 6572SOL    HW121613   9.322  11.353   9.089
 6572SOL    HW221614   9.256  11.447   9.188
 6573SOL     OW21615  10.128   1.454   2.580
 6573SOL    HW121616  10.054   1.411   2.536
 6573SOL    HW221617  10.128   1.415   2.668
 6574SOL     OW21618   7.331  13.477   3.659
 6574SOL    HW121619   7.399  13.525   3.612
 6574SOL    HW221620   7.249  13.509   3.623
 6575SOL     OW21621   3.247  12.883  11.532
 6575SOL    HW121622   3.329  12.869  11.486
 6575SOL    HW221623   3.184  12.902  11.463
 6576SOL     OW21624   6.327   0.672   9.543
 6576SOL    HW121625   6.351   0.589   9.502
 6576SOL    HW221626   6.300   0.728   9.471
 6577SOL     OW21627   4.629   1.164   5.199
 6577SOL    HW121628   4.549   1.175   5.148
 6577SOL    HW221629   4.697   1.149   5.133
 6578SOL     OW21630  13.870  11.769   6.215
 6578SOL    HW121631  13.809  11.779   6.142
 6578SOL    HW221632  13.919  11.852   6.217
 6579SOL     OW21633  12.005   0.459   0.515
 6579SOL    HW121634  12.071   0.520   0.548
 6579SOL    HW221635  11.921   0.501   0.536
 6580SOL     OW21636  11.060  10.032   2.068
 6580SOL    HW121637  10.993   9.964   2.077
 6580SOL    HW221638  11.025  10.106   2.118
 6581SOL     OW21639  14.520   3.344   1.315
 6581SOL    HW121640  14.523   3.321   1.408
 6581SOL    HW221641  14.435   3.385   1.303
 6582SOL     OW21642   3.337  10.666  14.781
 6582SOL    HW121643   3.373  10.668  14.870
 6582SOL    HW221644   3.243  10.678  14.793
 6583SOL     OW21645  13.260  11.352   3.611
 6583SOL    HW121646  13.329  11.418   3.623
 6583SOL    HW221647  13.242  11.353   3.517
 6584SOL     OW21648   1.243  11.892   9.509
 6584SOL    HW121649   1.294  11.903   9.429
 6584SOL    HW221650   1.210  11.979   9.529
 6585SOL     OW21651   4.842   4.583   9.491
 6585SOL    HW121652   4.838   4.519   9.562
 6585SOL    HW221653   4.932   4.580   9.461
 6586SOL     OW21654  10.980   1.363   5.849
 6586SOL    HW121655  10.926   1.339   5.774
 6586SOL    HW221656  10.919   1.402   5.912
 6587SOL     OW21657  14.308   1.706  14.204
 6587SOL    HW121658  14.292   1.758  14.283
 6587SOL    HW221659  14.283   1.617  14.229
 6588SOL     OW21660   7.659   4.048   3.680
 6588SOL    HW121661   7.674   4.076   3.590
 6588SOL    HW221662   7.740   4.004   3.705
 6589SOL     OW21663  10.840   3.813  12.019
 6589SOL    HW121664  10.864   3.847  11.933
 6589SOL    HW221665  10.751   3.781  12.009
 6590SOL     OW21666  13.227   2.798  11.287
 6590SOL    HW121667  13.225   2.804  11.383
 6590SOL    HW221668  13.266   2.712  11.269
 6591SOL     OW21669   8.109   6.469   3.102
 6591SOL    HW121670   8.018   6.477   3.129
 6591SOL    HW221671   8.149   6.412   3.168
 6592SOL     OW21672   3.805   0.454   0.640
 6592SOL    HW121673   3.772   0.538   0.609
 6592SOL    HW221674   3.885   0.439   0.590
 6593SOL     OW21675   1.270  12.333   3.508
 6593SOL    HW121676   1.350  12.348   3.559
 6593SOL    HW221677   1.301  12.302   3.423
 6594SOL     OW21678   1.108   2.416   5.991
 6594SOL    HW121679   1.061   2.484   5.944
 6594SOL    HW221680   1.150   2.363   5.922
 6595SOL     OW21681   1.828   3.066  13.786
 6595SOL    HW121682   1.743   3.022  13.786
 6595SOL    HW221683   1.842   3.091  13.695
 6596SOL     OW21684   0.109   0.418   1.815
 6596SOL    HW121685   0.097   0.512   1.799
 6596SOL    HW221686   0.020   0.384   1.824
 6597SOL     OW21687   8.658   5.608   9.071
 6597SOL    HW121688   8.588   5.590   9.133
 6597SOL    HW221689   8.638   5.695   9.036
 6598SOL     OW21690   8.012   4.123  13.325
 6598SOL    HW121691   8.017   4.103  13.232
 6598SOL    HW221692   8.044   4.043  13.368
 6599SOL     OW21693   9.748   4.678  11.813
 6599SOL    HW121694   9.716   4.688  11.902
 6599SOL    HW221695   9.749   4.767  11.777
 6600SOL     OW21696   4.995  13.990  11.601
 6600SOL    HW121697   5.045  13.997  11.519
 6600SOL    HW221698   4.915  13.944  11.576
 6601SOL     OW21699   0.245   9.333   8.385
 6601SOL    HW121700   0.227   9.423   8.411
 6601SOL    HW221701   0.289   9.295   8.461
 6602SOL     OW21702  13.485   3.817   0.193
 6602SOL    HW121703  13.577   3.823   0.219
 6602SOL    HW221704  13.438   3.793   0.273
 6603SOL     OW21705  12.175   0.576   9.268
 6603SOL    HW121706  12.099   0.530   9.232
 6603SOL    HW221707  12.146   0.667   9.277
 6604SOL     OW21708   0.209  13.844  13.063
 6604SOL    HW121709   0.118  13.817  13.056
 6604SOL    HW221710   0.214  13.925  13.012
 6605SOL     OW21711   2.151   7.810  13.922
 6605SOL    HW121712   2.093   7.743  13.886
 6605SOL    HW221713   2.148   7.796  14.016
 6606SOL     OW21714   2.847   5.542   2.536
 6606SOL    HW121715   2.916   5.599   2.570
 6606SOL    HW221716   2.779   5.544   2.602
 6607SOL     OW21717   6.996  10.469  12.850
 6607SOL    HW121718   7.022  10.547  12.801
 6607SOL    HW221719   6.903  10.459  12.831
 6608SOL     OW21720   1.456   5.049   1.218
 6608SOL    HW121721   1.551   5.059   1.211
 6608SOL    HW221722   1.421   5.111   1.154
 6609SOL     OW21723   6.159   0.721   6.689
 6609SOL    HW121724   6.100   0.648   6.708
 6609SOL    HW221725   6.143   0.784   6.760
 6610SOL     OW21726  13.003   3.418  11.724
 6610SOL    HW121727  13.060   3.398  11.799
 6610SOL    HW221728  13.063   3.426  11.650
 6611SOL     OW21729   7.388   2.846   1.231
 6611SOL    HW121730   7.370   2.899   1.154
 6611SOL    HW221731   7.313   2.862   1.289
 6612SOL     OW21732   1.601  14.482  12.767
 6612SOL    HW121733   1.527  14.470  12.707
 6612SOL    HW221734   1.678  14.475  12.712
 6613SOL     OW21735  11.739   9.897   5.241
 6613SOL    HW121736  11.692   9.975   5.213
 6613SOL    HW221737  11.683   9.859   5.310
 6614SOL     OW21738   4.210   8.416   4.698
 6614SOL    HW121739   4.235   8.467   4.774
 6614SOL    HW221740   4.285   8.422   4.639
 6615SOL     OW21741   9.977   3.083  10.190
 6615SOL    HW121742   9.972   3.166  10.237
 6615SOL    HW221743   9.920   3.024  10.240
 6616SOL     OW21744  14.616   3.843  13.500
 6616SOL    HW121745  14.533   3.873  13.463
 6616SOL    HW221746  14.683   3.896  13.456
 6617SOL     OW21747   2.266  11.694   0.339
 6617SOL    HW121748   2.220  11.690   0.255
 6617SOL    HW221749   2.337  11.630   0.329
 6618SOL     OW21750  13.233  10.640   7.627
 6618SOL    HW121751  13.179  10.661   7.551
 6618SOL    HW221752  13.281  10.561   7.601
 6619SOL     OW21753   6.889  13.889   9.960
 6619SOL    HW121754   6.866  13.828  10.030
 6619SOL    HW221755   6.834  13.862   9.886
 6620SOL     OW21756   3.836   1.818  14.807
 6620SOL    HW121757   3.855   1.810  14.713
 6620SOL    HW221758   3.768   1.885  14.812
 6621SOL     OW21759   6.326   1.822   2.746
 6621SOL    HW121760   6.391   1.858   2.805
 6621SOL    HW221761   6.287   1.749   2.794
 6622SOL     OW21762   5.186   8.676  14.200
 6622SOL    HW121763   5.229   8.731  14.265
 6622SOL    HW221764   5.243   8.599  14.191
 6623SOL     OW21765   2.889   9.538   5.963
 6623SOL    HW121766   2.811   9.590   5.987
 6623SOL    HW221767   2.858   9.480   5.894
 6624SOL     OW21768   3.104   3.251   7.752
 6624SOL    HW121769   3.069   3.172   7.793
 6624SOL    HW221770   3.049   3.264   7.675
 6625SOL     OW21771  13.830   1.235   8.535
 6625SOL    HW121772  13.751   1.185   8.556
 6625SOL    HW221773  13.861   1.266   8.619
 6626SOL     OW21774  14.413  11.304   6.963
 6626SOL    HW121775  14.504  11.285   6.986
 6626SOL    HW221776  14.370  11.318   7.047
 6627SOL     OW21777  13.191   3.101  11.723
 6627SOL    HW121778  13.120   3.164  11.709
 6627SOL    HW221779  13.255   3.149  11.776
 6628SOL     OW21780   5.372  10.417   2.563
 6628SOL    HW121781   5.324  10.499   2.565
 6628SOL    HW221782   5.401  10.408   2.472
 6629SOL     OW21783   3.266   3.511  11.903
 6629SOL    HW121784   3.230   3.599  11.904
 6629SOL    HW221785   3.320   3.505  11.982
 6630SOL     OW21786   3.775   9.112   5.645
 6630SOL    HW121787   3.750   9.162   5.567
 6630SOL    HW221788   3.752   9.021   5.623
 6631SOL     OW21789   7.750   4.343  10.947
 6631SOL    HW121790   7.830   4.295  10.970
 6631SOL    HW221791   7.767   4.376  10.858
 6632SOL     OW21792   0.931   9.569  14.769
 6632SOL    HW121793   1.001   9.590  14.831
 6632SOL    HW221794   0.951   9.622  14.691
 6633SOL     OW21795   7.264   6.753   5.810
 6633SOL    HW121796   7.343   6.735   5.860
 6633SOL    HW221797   7.198   6.775   5.876
 6634SOL     OW21798  14.834   6.169   9.274
 6634SOL    HW121799  14.775   6.105   9.235
 6634SOL    HW221800  14.874   6.213   9.200
 6635SOL     OW21801  11.781   7.774  12.297
 6635SOL    HW121802  11.701   7.760  12.349
 6635SOL    HW221803  11.842   7.813  12.359
 6636SOL     OW21804   8.132   0.427   8.997
 6636SOL    HW121805   8.073   0.354   9.017
 6636SOL    HW221806   8.181   0.398   8.920
 6637SOL     OW21807   3.556   5.070  13.779
 6637SOL    HW121808   3.540   5.153  13.734
 6637SOL    HW221809   3.615   5.022  13.720
 6638SOL     OW21810  13.022   7.077   3.889
 6638SOL    HW121811  13.096   7.068   3.949
 6638SOL    HW221812  12.969   6.999   3.904
 6639SOL     OW21813   4.515   7.093   9.330
 6639SOL    HW121814   4.497   7.094   9.236
 6639SOL    HW221815   4.511   7.185   9.356
 6640SOL     OW21816   2.797   5.295  11.280
 6640SOL    HW121817   2.727   5.335  11.228
 6640SOL    HW221818   2.753   5.257  11.355
 6641SOL     OW21819   3.689  12.281  14.798
 6641SOL    HW121820   3.677  12.198  14.845
 6641SOL    HW221821   3.653  12.347  14.857
 6642SOL     OW21822  12.030  11.202   8.644
 6642SOL    HW121823  12.016  11.234   8.734
 6642SOL    HW221824  11.941  11.194   8.608
 6643SOL     OW21825   6.398   4.369   9.206
 6643SOL    HW121826   6.474   4.427   9.196
 6643SOL    HW221827   6.385   4.364   9.301
 6644SOL     OW21828  13.470  13.940   9.780
 6644SOL    HW121829  13.376  13.935   9.765
 6644SOL    HW221830  13.509  13.899   9.703
 6645SOL     OW21831   6.680  14.069  10.646
 6645SOL    HW121832   6.641  14.109  10.724
 6645SOL    HW221833   6.770  14.051  10.670
 6646SOL     OW21834   7.548  10.244   2.720
 6646SOL    HW121835   7.570  10.337   2.730
 6646SOL    HW221836   7.468  10.233   2.772
 6647SOL     OW21837  10.595   6.758  12.364
 6647SOL    HW121838  10.512   6.749  12.412
 6647SOL    HW221839  10.583   6.835  12.309
 6648SOL     OW21840   0.442  14.117  10.588
 6648SOL    HW121841   0.522  14.068  10.607
 6648SOL    HW221842   0.378  14.084  10.651
 6649SOL     OW21843   5.168   1.459   5.313
 6649SOL    HW121844   5.251   1.427   5.279
 6649SOL    HW221845   5.163   1.424   5.401
 6650SOL     OW21846   1.294  12.496  11.498
 6650SOL    HW121847   1.359  12.443  11.543
 6650SOL    HW221848   1.264  12.440  11.425
 6651SOL     OW21849   2.902  10.344  12.455
 6651SOL    HW121850   2.887  10.250  12.463
 6651SOL    HW221851   2.965  10.353  12.383
 6652SOL     OW21852   8.575   4.688   3.033
 6652SOL    HW121853   8.521   4.636   2.973
 6652SOL    HW221854   8.518   4.706   3.107
 6653SOL     OW21855   8.636   0.644   2.760
 6653SOL    HW121856   8.662   0.606   2.844
 6653SOL    HW221857   8.589   0.724   2.782
 6654SOL     OW21858   9.103   4.053  12.215
 6654SOL    HW121859   9.011   4.030  12.225
 6654SOL    HW221860   9.150   3.971  12.226
 6655SOL     OW21861   8.882   4.581   1.818
 6655SOL    HW121862   8.935   4.656   1.794
 6655SOL    HW221863   8.804   4.618   1.858
 6656SOL     OW21864   1.793  13.946   1.188
 6656SOL    HW121865   1.799  14.027   1.240
 6656SOL    HW221866   1.884  13.925   1.167
 6657SOL     OW21867   8.591   9.717   8.996
 6657SOL    HW121868   8.642   9.730   8.916
 6657SOL    HW221869   8.500   9.710   8.965
 6658SOL     OW21870  13.771   2.760   4.348
 6658SOL    HW121871  13.679   2.759   4.376
 6658SOL    HW221872  13.790   2.853   4.333
 6659SOL     OW21873   7.956   4.607   9.309
 6659SOL    HW121874   8.011   4.679   9.279
 6659SOL    HW221875   8.006   4.566   9.379
 6660SOL     OW21876  12.400   0.630   0.681
 6660SOL    HW121877  12.460   0.664   0.747
 6660SOL    HW221878  12.450   0.560   0.637
 6661SOL     OW21879  11.680   2.629   9.069
 6661SOL    HW121880  11.741   2.683   9.119
 6661SOL    HW221881  11.676   2.546   9.116
 6662SOL     OW21882   7.451  10.864  13.027
 6662SOL    HW121883   7.483  10.802  13.093
 6662SOL    HW221884   7.465  10.950  13.067
 6663SOL     OW21885   1.017   4.198   3.806
 6663SOL    HW121886   0.965   4.245   3.740
 6663SOL    HW221887   1.060   4.268   3.856
 6664SOL     OW21888   9.314  11.573  10.758
 6664SOL    HW121889   9.278  11.588  10.845
 6664SOL    HW221890   9.403  11.540  10.774
 6665SOL     OW21891   9.658  13.919  13.147
 6665SOL    HW121892   9.606  13.923  13.227
 6665SOL    HW221893   9.637  13.834  13.109
 6666SOL     OW21894   5.725   1.052  10.148
 6666SOL    HW121895   5.727   1.139  10.107
 6666SOL    HW221896   5.633   1.026  10.147
 6667SOL     OW21897   3.894   8.193  10.494
 6667SOL    HW121898   3.806   8.158  10.506
 6667SOL    HW221899   3.950   8.115  10.493
 6668SOL     OW21900   3.192   0.018   6.480
 6668SOL    HW121901   3.268  14.867   6.429
 6668SOL    HW221902   3.226   0.085   6.539
 6669SOL     OW21903   2.237   6.974  11.210
 6669SOL    HW121904   2.225   6.879  11.204
 6669SOL    HW221905   2.247   7.003  11.119
 6670SOL     OW21906   8.487  10.712  12.038
 6670SOL    HW121907   8.437  10.681  12.114
 6670SOL    HW221908   8.449  10.667  11.963
 6671SOL     OW21909   8.766  13.538  14.600
 6671SOL    HW121910   8.814  13.614  14.568
 6671SOL    HW221911   8.813  13.513  14.680
 6672SOL     OW21912   0.578  12.692   8.065
 6672SOL    HW121913   0.553  12.600   8.056
 6672SOL    HW221914   0.516  12.727   8.128
 6673SOL     OW21915   0.867  14.558   6.313
 6673SOL    HW121916   0.927  14.600   6.252
 6673SOL    HW221917   0.924  14.514   6.376
 6674SOL     OW21918  12.814   7.817  12.870
 6674SOL    HW121919  12.859   7.781  12.793
 6674SOL    HW221920  12.721   7.804  12.852
 6675SOL     OW21921   9.852  12.928  14.751
 6675SOL    HW121922   9.776  12.938  14.807
 6675SOL    HW221923   9.821  12.874  14.678
 6676SOL     OW21924   7.276   5.468   5.188
 6676SOL    HW121925   7.323   5.549   5.208
 6676SOL    HW221926   7.205   5.466   5.253
 6677SOL     OW21927   8.288  10.925  10.131
 6677SOL    HW121928   8.352  10.897  10.066
 6677SOL    HW221929   8.236  10.992  10.086
 6678SOL     OW21930   0.690   1.306   4.826
 6678SOL    HW121931   0.621   1.361   4.863
 6678SOL    HW221932   0.695   1.331   4.734
 6679SOL     OW21933   3.811  10.468   5.662
 6679SOL    HW121934   3.751  10.541   5.676
 6679SOL    HW221935   3.806  10.450   5.568
 6680SOL     OW21936   2.409   0.192   2.504
 6680SOL    HW121937   2.397   0.277   2.463
 6680SOL    HW221938   2.503   0.176   2.498
 6681SOL     OW21939   4.435  13.637  12.114
 6681SOL    HW121940   4.383  13.593  12.047
 6681SOL    HW221941   4.375  13.702  12.151
 6682SOL     OW21942   9.319  11.348  10.552
 6682SOL    HW121943   9.393  11.363  10.493
 6682SOL    HW221944   9.321  11.423  10.611
 6683SOL     OW21945   4.363   7.446   1.961
 6683SOL    HW121946   4.383   7.476   2.049
 6683SOL    HW221947   4.298   7.509   1.928
 6684SOL     OW21948  14.292  10.041   5.513
 6684SOL    HW121949  14.205  10.069   5.540
 6684SOL    HW221950  14.338  10.021   5.595
 6685SOL     OW21951  12.367   9.344   0.691
 6685SOL    HW121952  12.436   9.388   0.642
 6685SOL    HW221953  12.366   9.254   0.656
 6686SOL     OW21954  11.041  10.980   0.834
 6686SOL    HW121955  11.077  11.011   0.917
 6686SOL    HW221956  11.110  10.926   0.796
 6687SOL     OW21957   4.418   4.397   2.123
 6687SOL    HW121958   4.328   4.427   2.110
 6687SOL    HW221959   4.411   4.324   2.184
 6688SOL     OW21960   9.193  12.276   8.002
 6688SOL    HW121961   9.165  12.186   8.018
 6688SOL    HW221962   9.260  12.293   8.069
 6689SOL     OW21963   8.273  13.901   0.665
 6689SOL    HW121964   8.237  13.858   0.587
 6689SOL    HW221965   8.212  13.878   0.735
 6690SOL     OW21966  11.862   0.210  13.757
 6690SOL    HW121967  11.895   0.158  13.830
 6690SOL    HW221968  11.822   0.286  13.797
 6691SOL     OW21969   6.501   1.659   8.585
 6691SOL    HW121970   6.506   1.582   8.528
 6691SOL    HW221971   6.587   1.662   8.628
 6692SOL     OW21972   7.247  11.364   4.581
 6692SOL    HW121973   7.333  11.354   4.541
 6692SOL    HW221974   7.206  11.278   4.571
 6693SOL     OW21975  14.588   0.263   1.074
 6693SOL    HW121976  14.535   0.204   1.020
 6693SOL    HW221977  14.524   0.320   1.116
 6694SOL     OW21978   1.108   7.515   5.990
 6694SOL    HW121979   1.143   7.562   5.915
 6694SOL    HW221980   1.174   7.448   6.011
 6695SOL     OW21981   2.822   1.874   8.612
 6695SOL    HW121982   2.909   1.908   8.592
 6695SOL    HW221983   2.773   1.950   8.645
 6696SOL     OW21984  10.201   4.268   3.686
 6696SOL    HW121985  10.124   4.303   3.731
 6696SOL    HW221986  10.273   4.284   3.747
 6697SOL     OW21987   9.200   3.659   9.351
 6697SOL    HW121988   9.254   3.686   9.276
 6697SOL    HW221989   9.262   3.618   9.411
 6698SOL     OW21990   6.027   8.035  12.554
 6698SOL    HW121991   5.980   7.952  12.555
 6698SOL    HW221992   5.960   8.101  12.537
 6699SOL     OW21993   1.191  12.021   2.374
 6699SOL    HW121994   1.274  12.067   2.382
 6699SOL    HW221995   1.212  11.940   2.327
 6700SOL     OW21996   8.577   1.775   0.474
 6700SOL    HW121997   8.660   1.757   0.517
 6700SOL    HW221998   8.533   1.837   0.532
 6701SOL     OW21999   9.376   1.398   2.021
 6701SOL    HW122000   9.404   1.354   1.941
 6701SOL    HW222001   9.420   1.483   2.017
 6702SOL     OW22002  11.196  11.919   3.758
 6702SOL    HW122003  11.180  11.825   3.769
 6702SOL    HW222004  11.150  11.942   3.678
 6703SOL     OW22005   4.006  11.729   3.916
 6703SOL    HW122006   3.941  11.685   3.862
 6703SOL    HW222007   4.078  11.665   3.923
 6704SOL     OW22008   7.397   4.681  10.638
 6704SOL    HW122009   7.490   4.704  10.631
 6704SOL    HW222010   7.386   4.606  10.579
 6705SOL     OW22011   5.708  13.189   8.726
 6705SOL    HW122012   5.799  13.170   8.705
 6705SOL    HW222013   5.684  13.259   8.665
 6706SOL     OW22014   6.716   4.271   1.040
 6706SOL    HW122015   6.705   4.356   1.082
 6706SOL    HW222016   6.745   4.213   1.110
 6707SOL     OW22017  14.758   2.575   0.228
 6707SOL    HW122018  14.707   2.549   0.151
 6707SOL    HW222019  14.805   2.496   0.254
 6708SOL     OW22020   8.095   6.696   9.648
 6708SOL    HW122021   8.032   6.761   9.617
 6708SOL    HW222022   8.171   6.706   9.591
 6709SOL     OW22023  12.139   8.832   4.285
 6709SOL    HW122024  12.186   8.874   4.213
 6709SOL    HW222025  12.068   8.892   4.306
 6710SOL     OW22026   8.699   1.967  11.008
 6710SOL    HW122027   8.626   1.972  10.947
 6710SOL    HW222028   8.763   2.030  10.974
 6711SOL     OW22029   8.309   3.440   4.755
 6711SOL    HW122030   8.216   3.435   4.733
 6711SOL    HW222031   8.321   3.530   4.787
 6712SOL     OW22032   9.294   3.105   3.139
 6712SOL    HW122033   9.251   3.154   3.210
 6712SOL    HW222034   9.377   3.077   3.177
 6713SOL     OW22035   2.700   9.752  10.813
 6713SOL    HW122036   2.624   9.806  10.793
 6713SOL    HW222037   2.773   9.797  10.770
 6714SOL     OW22038  13.325   1.790   8.478
 6714SOL    HW122039  13.286   1.856   8.420
 6714SOL    HW222040  13.326   1.710   8.425
 6715SOL     OW22041   7.412  13.578   3.205
 6715SOL    HW122042   7.341  13.526   3.244
 6715SOL    HW222043   7.489  13.522   3.212
 6716SOL     OW22044   2.126  12.011   4.661
 6716SOL    HW122045   2.077  12.033   4.740
 6716SOL    HW222046   2.151  11.919   4.673
 6717SOL     OW22047   1.996  11.610   6.614
 6717SOL    HW122048   1.955  11.637   6.532
 6717SOL    HW222049   1.923  11.584   6.670
 6718SOL     OW22050   3.568  14.694   2.961
 6718SOL    HW122051   3.577  14.698   3.056
 6718SOL    HW222052   3.652  14.660   2.930
 6719SOL     OW22053   3.688   2.407   5.412
 6719SOL    HW122054   3.746   2.393   5.486
 6719SOL    HW222055   3.714   2.340   5.348
 6720SOL     OW22056   1.899   4.461   3.092
 6720SOL    HW122057   1.933   4.464   3.182
 6720SOL    HW222058   1.959   4.402   3.046
 6721SOL     OW22059  10.871   3.975   4.720
 6721SOL    HW122060  10.879   3.880   4.709
 6721SOL    HW222061  10.880   3.989   4.814
 6722SOL     OW22062   0.074  13.178   6.133
 6722SOL    HW122063   0.154  13.217   6.099
 6722SOL    HW222064   0.102  13.091   6.164
 6723SOL     OW22065   9.162  13.992   4.900
 6723SOL    HW122066   9.076  13.974   4.864
 6723SOL    HW222067   9.154  13.972   4.994
 6724SOL     OW22068  11.327   5.940   1.073
 6724SOL    HW122069  11.331   6.011   1.009
 6724SOL    HW222070  11.380   5.870   1.034
 6725SOL     OW22071   9.278   9.069   6.121
 6725SOL    HW122072   9.262   8.980   6.091
 6725SOL    HW222073   9.229   9.124   6.060
 6726SOL     OW22074   1.120  13.736  14.663
 6726SOL    HW122075   1.141  13.658  14.611
 6726SOL    HW222076   1.083  13.798  14.600
 6727SOL     OW22077   0.571  13.592  13.028
 6727SOL    HW122078   0.608  13.564  12.944
 6727SOL    HW222079   0.478  13.571  13.022
 6728SOL     OW22080   6.404   3.789  12.526
 6728SOL    HW122081   6.428   3.696  12.526
 6728SOL    HW222082   6.413   3.816  12.435
 6729SOL     OW22083   4.923   7.282  11.261
 6729SOL    HW122084   4.957   7.362  11.302
 6729SOL    HW222085   4.840   7.310  11.222
 6730SOL     OW22086  11.264  14.453   9.030
 6730SOL    HW122087  11.285  14.404   8.951
 6730SOL    HW222088  11.218  14.391   9.086
 6731SOL     OW22089   6.380   1.523   5.368
 6731SOL    HW122090   6.422   1.445   5.332
 6731SOL    HW222091   6.289   1.517   5.338
 6732SOL     OW22092   2.615  14.158  13.744
 6732SOL    HW122093   2.563  14.116  13.676
 6732SOL    HW222094   2.668  14.223  13.698
 6733SOL     OW22095   6.196   1.769   2.136
 6733SOL    HW122096   6.232   1.699   2.191
 6733SOL    HW222097   6.131   1.726   2.081
 6734SOL     OW22098  11.715  10.872  11.389
 6734SOL    HW122099  11.720  10.870  11.293
 6734SOL    HW222100  11.778  10.940  11.414
 6735SOL     OW22101  10.597  12.702   9.237
 6735SOL    HW122102  10.602  12.616   9.195
 6735SOL    HW222103  10.684  12.716   9.273
 6736SOL     OW22104   4.150   0.658   7.467
 6736SOL    HW122105   4.090   0.722   7.428
 6736SOL    HW222106   4.100   0.577   7.470
 6737SOL     OW22107  11.301   5.834   9.251
 6737SOL    HW122108  11.209   5.807   9.244
 6737SOL    HW222109  11.348   5.752   9.268
 6738SOL     OW22110   0.751   0.881   7.275
 6738SOL    HW122111   0.791   0.961   7.310
 6738SOL    HW222112   0.802   0.861   7.197
 6739SOL     OW22113   4.653   3.399  12.760
 6739SOL    HW122114   4.596   3.332  12.798
 6739SOL    HW222115   4.689   3.358  12.681
 6740SOL     OW22116  13.692   3.942  10.913
 6740SOL    HW122117  13.734   4.024  10.887
 6740SOL    HW222118  13.649   3.911  10.833
 6741SOL     OW22119   2.302   0.272  11.710
 6741SOL    HW122120   2.346   0.304  11.631
 6741SOL    HW222121   2.293   0.350  11.765
 6742SOL     OW22122  13.225   1.438   5.837
 6742SOL    HW122123  13.175   1.366   5.876
 6742SOL    HW222124  13.287   1.395   5.778
 6743SOL     OW22125   2.115  12.406  11.376
 6743SOL    HW122126   2.135  12.498  11.391
 6743SOL    HW222127   2.084  12.374  11.462
 6744SOL     OW22128   7.734  12.341   8.466
 6744SOL    HW122129   7.688  12.388   8.397
 6744SOL    HW222130   7.777  12.409   8.517
 6745SOL     OW22131  11.446   8.796   7.589
 6745SOL    HW122132  11.481   8.856   7.655
 6745SOL    HW222133  11.428   8.715   7.636
 6746SOL     OW22134   8.466   7.548   6.763
 6746SOL    HW122135   8.382   7.566   6.721
 6746SOL    HW222136   8.485   7.457   6.742
 6747SOL     OW22137   0.138  14.063   7.135
 6747SOL    HW122138   0.064  14.047   7.076
 6747SOL    HW222139   0.136  13.989   7.196
 6748SOL     OW22140   0.909   5.844  10.773
 6748SOL    HW122141   0.838   5.905  10.792
 6748SOL    HW222142   0.915   5.843  10.677
 6749SOL     OW22143   2.615   8.730   1.106
 6749SOL    HW122144   2.605   8.730   1.011
 6749SOL    HW222145   2.558   8.659   1.136
 6750SOL     OW22146  10.174   2.465   4.573
 6750SOL    HW122147  10.161   2.549   4.528
 6750SOL    HW222148  10.260   2.435   4.541
 6751SOL     OW22149  10.599   3.056  10.915
 6751SOL    HW122150  10.598   3.015  10.829
 6751SOL    HW222151  10.679   3.024  10.956
 6752SOL     OW22152   9.250  13.652   0.745
 6752SOL    HW122153   9.320  13.590   0.762
 6752SOL    HW222154   9.250  13.664   0.650
 6753SOL     OW22155  12.176   6.507   6.508
 6753SOL    HW122156  12.143   6.493   6.597
 6753SOL    HW222157  12.198   6.600   6.505
 6754SOL     OW22158  11.837  11.485  12.782
 6754SOL    HW122159  11.752  11.512  12.816
 6754SOL    HW222160  11.841  11.391  12.799
 6755SOL     OW22161   2.658   9.318   3.418
 6755SOL    HW122162   2.644   9.280   3.331
 6755SOL    HW222163   2.583   9.289   3.470
 6756SOL     OW22164   2.154  14.480   2.213
 6756SOL    HW122165   2.096  14.546   2.250
 6756SOL    HW222166   2.112  14.453   2.132
 6757SOL     OW22167   9.229  12.725   1.391
 6757SOL    HW122168   9.252  12.644   1.437
 6757SOL    HW222169   9.134  12.723   1.383
 6758SOL     OW22170  14.774   6.698   3.554
 6758SOL    HW122171  14.799   6.779   3.509
 6758SOL    HW222172  14.693   6.671   3.510
 6759SOL     OW22173   9.690   3.836   5.427
 6759SOL    HW122174   9.765   3.782   5.455
 6759SOL    HW222175   9.702   3.846   5.333
 6760SOL     OW22176   5.873   2.567   5.695
 6760SOL    HW122177   5.872   2.488   5.749
 6760SOL    HW222178   5.916   2.541   5.614
 6761SOL     OW22179   9.931  13.793   0.578
 6761SOL    HW122180  10.002  13.738   0.612
 6761SOL    HW222181   9.972  13.877   0.560
 6762SOL     OW22182   2.722   7.624   2.928
 6762SOL    HW122183   2.749   7.701   2.978
 6762SOL    HW222184   2.627   7.622   2.935
 6763SOL     OW22185   4.057   1.171  11.768
 6763SOL    HW122186   4.066   1.114  11.843
 6763SOL    HW222187   3.967   1.203  11.772
 6764SOL     OW22188   5.248  12.770  13.840
 6764SOL    HW122189   5.172  12.801  13.790
 6764SOL    HW222190   5.224  12.682  13.868
 6765SOL     OW22191  11.781   4.449   0.212
 6765SOL    HW122192  11.851   4.458   0.276
 6765SOL    HW222193  11.727   4.527   0.224
 6766SOL     OW22194   2.278   3.597  11.368
 6766SOL    HW122195   2.333   3.652  11.313
 6766SOL    HW222196   2.192   3.641  11.368
 6767SOL     OW22197   8.271   7.374   7.335
 6767SOL    HW122198   8.193   7.320   7.346
 6767SOL    HW222199   8.291   7.369   7.241
 6768SOL     OW22200  11.364   8.986  11.270
 6768SOL    HW122201  11.440   9.044  11.272
 6768SOL    HW222202  11.330   8.988  11.359
 6769SOL     OW22203  13.695   1.985  14.064
 6769SOL    HW122204  13.687   1.983  14.160
 6769SOL    HW222205  13.627   2.046  14.035
 6770SOL     OW22206   4.950  11.031   0.282
 6770SOL    HW122207   4.954  11.109   0.227
 6770SOL    HW222208   4.926  11.063   0.368
 6771SOL     OW22209   6.769  13.223   5.809
 6771SOL    HW122210   6.805  13.268   5.732
 6771SOL    HW222211   6.843  13.174   5.845
 6772SOL     OW22212   6.422   7.631  12.279
 6772SOL    HW122213   6.497   7.680  12.245
 6772SOL    HW222214   6.345   7.678  12.248
 6773SOL     OW22215   5.895   7.824  10.394
 6773SOL    HW122216   5.814   7.773  10.386
 6773SOL    HW222217   5.876   7.906  10.350
 6774SOL     OW22218  14.319   0.624   0.056
 6774SOL    HW122219  14.410   0.627   0.028
 6774SOL    HW222220  14.276   0.563  14.873
 6775SOL     OW22221   3.752   1.892   9.499
 6775SOL    HW122222   3.748   1.929   9.411
 6775SOL    HW222223   3.759   1.797   9.485
 6776SOL     OW22224   5.966  13.822  10.726
 6776SOL    HW122225   5.954  13.745  10.671
 6776SOL    HW222226   6.046  13.863  10.694
 6777SOL     OW22227  14.552   0.647   3.980
 6777SOL    HW122228  14.463   0.676   4.001
 6777SOL    HW222229  14.568   0.677   3.891
 6778SOL     OW22230   8.282   9.543   8.494
 6778SOL    HW122231   8.297   9.518   8.585
 6778SOL    HW222232   8.327   9.475   8.443
 6779SOL     OW22233   6.522  10.220  13.772
 6779SOL    HW122234   6.569  10.140  13.747
 6779SOL    HW222235   6.442  10.188  13.814
 6780SOL     OW22236   2.330  11.067  10.892
 6780SOL    HW122237   2.242  11.101  10.901
 6780SOL    HW222238   2.321  10.991  10.834
 6781SOL     OW22239   2.150   3.464   3.279
 6781SOL    HW122240   2.214   3.529   3.308
 6781SOL    HW222241   2.065   3.504   3.298
 6782SOL     OW22242  11.402   8.052   4.249
 6782SOL    HW122243  11.418   8.121   4.314
 6782SOL    HW222244  11.322   8.009   4.280
 6783SOL     OW22245   1.970   8.407   2.875
 6783SOL    HW122246   1.901   8.454   2.922
 6783SOL    HW222247   2.047   8.462   2.887
 6784SOL     OW22248   5.661  12.715   3.603
 6784SOL    HW122249   5.744  12.730   3.557
 6784SOL    HW222250   5.603  12.677   3.537
 6785SOL     OW22251  14.620   6.875   4.620
 6785SOL    HW122252  14.592   6.904   4.707
 6785SOL    HW222253  14.632   6.956   4.571
 6786SOL     OW22254  10.625   3.120   9.278
 6786SOL    HW122255  10.553   3.065   9.247
 6786SOL    HW222256  10.588   3.209   9.281
 6787SOL     OW22257  10.934   9.801   2.866
 6787SOL    HW122258  11.004   9.794   2.802
 6787SOL    HW222259  10.899   9.712   2.874
 6788SOL     OW22260  10.073   8.689  10.193
 6788SOL    HW122261  10.007   8.689  10.124
 6788SOL    HW222262  10.128   8.614  10.174
 6789SOL     OW22263  12.496  13.385   5.760
 6789SOL    HW122264  12.440  13.310   5.737
 6789SOL    HW222265  12.481  13.448   5.690
 6790SOL     OW22266  13.240   4.202  14.294
 6790SOL    HW122267  13.235   4.113  14.329
 6790SOL    HW222268  13.318   4.240  14.336
 6791SOL     OW22269   2.590  14.612   0.818
 6791SOL    HW122270   2.646  14.542   0.851
 6791SOL    HW222271   2.651  14.682   0.793
 6792SOL     OW22272  10.510  13.162   4.471
 6792SOL    HW122273  10.459  13.101   4.417
 6792SOL    HW222274  10.531  13.113   4.550
 6793SOL     OW22275   2.554  10.796   0.538
 6793SOL    HW122276   2.583  10.740   0.466
 6793SOL    HW222277   2.634  10.819   0.585
 6794SOL     OW22278   7.760  10.950   5.929
 6794SOL    HW122279   7.693  10.925   5.865
 6794SOL    HW222280   7.712  10.993   5.999
 6795SOL     OW22281   9.012  12.636  10.208
 6795SOL    HW122282   9.020  12.683  10.291
 6795SOL    HW222283   8.934  12.582  10.218
 6796SOL     OW22284   8.604  10.524   2.371
 6796SOL    HW122285   8.627  10.609   2.336
 6796SOL    HW222286   8.552  10.482   2.303
 6797SOL     OW22287  14.423   9.601  14.645
 6797SOL    HW122288  14.329   9.600  14.631
 6797SOL    HW222289  14.436   9.541  14.719
 6798SOL     OW22290   8.440  13.396  11.717
 6798SOL    HW122291   8.482  13.374  11.800
 6798SOL    HW222292   8.369  13.455  11.741
 6799SOL     OW22293  14.592   6.958   3.795
 6799SOL    HW122294  14.637   6.874   3.798
 6799SOL    HW222295  14.599   6.993   3.883
 6800SOL     OW22296   1.213   3.383   9.199
 6800SOL    HW122297   1.118   3.381   9.186
 6800SOL    HW222298   1.250   3.381   9.111
 6801SOL     OW22299  12.439   4.196   6.538
 6801SOL    HW122300  12.511   4.146   6.499
 6801SOL    HW222301  12.392   4.232   6.463
 6802SOL     OW22302   7.395   1.043   4.670
 6802SOL    HW122303   7.452   0.967   4.681
 6802SOL    HW222304   7.430   1.108   4.730
 6803SOL     OW22305   0.941   6.178  13.595
 6803SOL    HW122306   0.972   6.145  13.680
 6803SOL    HW222307   0.853   6.143  13.587
 6804SOL     OW22308   9.068   7.496   5.957
 6804SOL    HW122309   9.151   7.453   5.935
 6804SOL    HW222310   9.007   7.424   5.971
 6805SOL     OW22311   7.625  14.067  14.266
 6805SOL    HW122312   7.602  14.076  14.174
 6805SOL    HW222313   7.654  13.976  14.275
 6806SOL     OW22314   9.639   5.303   0.670
 6806SOL    HW122315   9.574   5.252   0.719
 6806SOL    HW222316   9.592   5.382   0.643
 6807SOL     OW22317  11.904   9.605   1.679
 6807SOL    HW122318  11.991   9.577   1.708
 6807SOL    HW222319  11.921   9.665   1.606
 6808SOL     OW22320   6.707   1.065   2.857
 6808SOL    HW122321   6.617   1.067   2.891
 6808SOL    HW222322   6.758   1.111   2.924
 6809SOL     OW22323   0.425   5.485   3.146
 6809SOL    HW122324   0.466   5.431   3.079
 6809SOL    HW222325   0.337   5.502   3.113
 6810SOL     OW22326  12.791  10.819   8.184
 6810SOL    HW122327  12.839  10.889   8.228
 6810SOL    HW222328  12.804  10.742   8.240
 6811SOL     OW22329   2.684   8.141  12.159
 6811SOL    HW122330   2.656   8.070  12.101
 6811SOL    HW222331   2.665   8.221  12.109
 6812SOL     OW22332   5.681   4.245  10.794
 6812SOL    HW122333   5.657   4.193  10.717
 6812SOL    HW222334   5.777   4.251  10.789
 6813SOL     OW22335  10.248   7.598   1.227
 6813SOL    HW122336  10.311   7.655   1.182
 6813SOL    HW222337  10.213   7.542   1.158
 6814SOL     OW22338   8.919   7.507   7.904
 6814SOL    HW122339   8.942   7.561   7.829
 6814SOL    HW222340   8.855   7.559   7.952
 6815SOL     OW22341  14.564   3.086   8.602
 6815SOL    HW122342  14.580   3.180   8.597
 6815SOL    HW222343  14.518   3.074   8.685
 6816SOL     OW22344   0.683   5.741   3.799
 6816SOL    HW122345   0.594   5.706   3.790
 6816SOL    HW222346   0.740   5.670   3.769
 6817SOL     OW22347  14.537   7.286   4.318
 6817SOL    HW122348  14.522   7.319   4.229
 6817SOL    HW222349  14.481   7.340   4.374
 6818SOL     OW22350   0.710   6.944   7.410
 6818SOL    HW122351   0.789   6.957   7.357
 6818SOL    HW222352   0.743   6.931   7.499
 6819SOL     OW22353   0.445   9.199  13.147
 6819SOL    HW122354   0.519   9.258  13.132
 6819SOL    HW222355   0.370   9.257  13.156
 6820SOL     OW22356   0.552   3.370   3.043
 6820SOL    HW122357   0.633   3.420   3.029
 6820SOL    HW222358   0.527   3.338   2.957
 6821SOL     OW22359   7.042  10.772  13.753
 6821SOL    HW122360   7.094  10.728  13.685
 6821SOL    HW222361   7.050  10.865  13.733
 6822SOL     OW22362   4.091  13.755   6.315
 6822SOL    HW122363   4.118  13.664   6.307
 6822SOL    HW222364   4.155  13.804   6.264
 6823SOL     OW22365   6.725   3.957  12.987
 6823SOL    HW122366   6.700   3.909  13.065
 6823SOL    HW222367   6.767   3.891  12.931
 6824SOL     OW22368   7.940   1.589   2.679
 6824SOL    HW122369   7.859   1.540   2.666
 6824SOL    HW222370   7.926   1.672   2.634
 6825SOL     OW22371   5.819  11.460   9.592
 6825SOL    HW122372   5.881  11.532   9.579
 6825SOL    HW222373   5.869  11.394   9.639
 6826SOL     OW22374  12.392   1.018   8.467
 6826SOL    HW122375  12.437   1.072   8.531
 6826SOL    HW222376  12.330   1.077   8.425
 6827SOL     OW22377   3.552  13.158  10.339
 6827SOL    HW122378   3.518  13.163  10.250
 6827SOL    HW222379   3.475  13.143  10.394
 6828SOL     OW22380   0.575   6.779  11.039
 6828SOL    HW122381   0.536   6.744  11.119
 6828SOL    HW222382   0.542   6.721  10.970
 6829SOL     OW22383   4.886   9.956  13.761
 6829SOL    HW122384   4.863   9.877  13.811
 6829SOL    HW222385   4.918  10.017  13.827
 6830SOL     OW22386   8.778   1.563   6.463
 6830SOL    HW122387   8.694   1.609   6.463
 6830SOL    HW222388   8.794   1.542   6.371
 6831SOL     OW22389   8.773   2.439   8.174
 6831SOL    HW122390   8.775   2.440   8.078
 6831SOL    HW222391   8.693   2.486   8.197
 6832SOL     OW22392  11.325   1.303   4.761
 6832SOL    HW122393  11.270   1.304   4.683
 6832SOL    HW222394  11.286   1.368   4.819
 6833SOL     OW22395   5.764   8.813  12.145
 6833SOL    HW122396   5.716   8.833  12.225
 6833SOL    HW222397   5.815   8.735  12.167
 6834SOL     OW22398   8.606   1.825  12.831
 6834SOL    HW122399   8.573   1.819  12.921
 6834SOL    HW222400   8.549   1.767  12.780
 6835SOL     OW22401   6.185   2.892  10.650
 6835SOL    HW122402   6.213   2.825  10.712
 6835SOL    HW222403   6.195   2.850  10.564
 6836SOL     OW22404  12.374   5.716   5.107
 6836SOL    HW122405  12.296   5.770   5.094
 6836SOL    HW222406  12.366   5.683   5.197
 6837SOL     OW22407  14.083  13.501   4.200
 6837SOL    HW122408  14.074  13.534   4.110
 6837SOL    HW222409  14.028  13.423   4.202
 6838SOL     OW22410   1.355   9.466   7.295
 6838SOL    HW122411   1.415   9.431   7.230
 6838SOL    HW222412   1.278   9.409   7.289
 6839SOL     OW22413  11.388   2.811   9.928
 6839SOL    HW122414  11.429   2.839   9.846
 6839SOL    HW222415  11.372   2.893   9.975
 6840SOL     OW22416   5.345   3.974   9.677
 6840SOL    HW122417   5.283   4.032   9.633
 6840SOL    HW222418   5.397   3.935   9.607
 6841SOL     OW22419   3.949  12.240   2.769
 6841SOL    HW122420   3.885  12.279   2.710
 6841SOL    HW222421   3.898  12.209   2.844
 6842SOL     OW22422  13.989  12.032   9.442
 6842SOL    HW122423  14.073  12.043   9.488
 6842SOL    HW222424  14.013  11.997   9.357
 6843SOL     OW22425   1.939   2.517   1.803
 6843SOL    HW122426   1.957   2.426   1.828
 6843SOL    HW222427   1.969   2.522   1.712
 6844SOL     OW22428   0.378   2.489   8.793
 6844SOL    HW122429   0.453   2.504   8.735
 6844SOL    HW222430   0.405   2.527   8.876
 6845SOL     OW22431   8.690  12.362   1.329
 6845SOL    HW122432   8.634  12.287   1.309
 6845SOL    HW222433   8.761  12.358   1.265
 6846SOL     OW22434   4.858   6.348   8.073
 6846SOL    HW122435   4.916   6.280   8.039
 6846SOL    HW222436   4.771   6.325   8.040
 6847SOL     OW22437  10.209  11.367   5.065
 6847SOL    HW122438  10.227  11.416   4.985
 6847SOL    HW222439  10.124  11.401   5.095
 6848SOL     OW22440   2.006   4.340   9.661
 6848SOL    HW122441   1.938   4.407   9.659
 6848SOL    HW222442   2.043   4.346   9.749
 6849SOL     OW22443  13.988   1.169   4.960
 6849SOL    HW122444  13.986   1.167   5.056
 6849SOL    HW222445  13.900   1.144   4.933
 6850SOL     OW22446   5.673   6.966   0.345
 6850SOL    HW122447   5.641   6.897   0.286
 6850SOL    HW222448   5.656   7.047   0.297
 6851SOL     OW22449  11.252  10.997   4.473
 6851SOL    HW122450  11.333  10.968   4.432
 6851SOL    HW222451  11.186  10.986   4.404
 6852SOL     OW22452   3.514  13.234   4.796
 6852SOL    HW122453   3.426  13.266   4.817
 6852SOL    HW222454   3.502  13.142   4.775
 6853SOL     OW22455   1.774  11.734   5.142
 6853SOL    HW122456   1.855  11.771   5.178
 6853SOL    HW222457   1.742  11.801   5.082
 6854SOL     OW22458   5.979   4.238   8.748
 6854SOL    HW122459   5.944   4.172   8.808
 6854SOL    HW222460   6.053   4.276   8.796
 6855SOL     OW22461  13.372   4.929  10.956
 6855SOL    HW122462  13.463   4.902  10.971
 6855SOL    HW222463  13.379   5.019  10.924
 6856SOL     OW22464   9.347  10.391   8.438
 6856SOL    HW122465   9.408  10.386   8.364
 6856SOL    HW222466   9.273  10.336   8.412
 6857SOL     OW22467   1.895  11.127   0.261
 6857SOL    HW122468   1.807  11.141   0.298
 6857SOL    HW222469   1.944  11.206   0.283
 6858SOL     OW22470  14.673   7.915   3.963
 6858SOL    HW122471  14.695   7.989   4.020
 6858SOL    HW222472  14.583   7.932   3.936
 6859SOL     OW22473  12.339  12.115   9.183
 6859SOL    HW122474  12.313  12.114   9.275
 6859SOL    HW222475  12.373  12.203   9.168
 6860SOL     OW22476   5.634  14.213   2.147
 6860SOL    HW122477   5.683  14.218   2.228
 6860SOL    HW222478   5.697  14.234   2.079
 6861SOL     OW22479   8.799   0.923   5.174
 6861SOL    HW122480   8.884   0.947   5.208
 6861SOL    HW222481   8.809   0.831   5.147
 6862SOL     OW22482   4.406   5.076  13.161
 6862SOL    HW122483   4.384   5.134  13.089
 6862SOL    HW222484   4.338   5.090  13.226
 6863SOL     OW22485  13.046   8.391   3.836
 6863SOL    HW122486  12.978   8.456   3.856
 6863SOL    HW222487  13.113   8.440   3.788
 6864SOL     OW22488  11.404  13.210   8.751
 6864SOL    HW122489  11.476  13.176   8.698
 6864SOL    HW222490  11.381  13.293   8.708
 6865SOL     OW22491   7.320  11.775   9.130
 6865SOL    HW122492   7.235  11.776   9.086
 6865SOL    HW222493   7.368  11.848   9.090
 6866SOL     OW22494  13.497  14.734   2.359
 6866SOL    HW122495  13.491  14.639   2.358
 6866SOL    HW222496  13.420  14.763   2.409
 6867SOL     OW22497  13.557  12.261   9.363
 6867SOL    HW122498  13.546  12.183   9.308
 6867SOL    HW222499  13.650  12.263   9.382
 6868SOL     OW22500   0.848   8.493   6.966
 6868SOL    HW122501   0.907   8.564   6.991
 6868SOL    HW222502   0.770   8.536   6.932
 6869SOL     OW22503   8.194   9.892   7.837
 6869SOL    HW122504   8.137   9.820   7.812
 6869SOL    HW222505   8.170   9.911   7.927
 6870SOL     OW22506   6.158  11.738  12.288
 6870SOL    HW122507   6.232  11.795  12.268
 6870SOL    HW222508   6.165  11.723  12.383
 6871SOL     OW22509  10.104   0.760  14.817
 6871SOL    HW122510  10.076   0.738   0.028
 6871SOL    HW222511  10.047   0.832  14.791
 6872SOL     OW22512  13.779  12.425  14.026
 6872SOL    HW122513  13.775  12.486  13.953
 6872SOL    HW222514  13.827  12.350  13.991
 6873SOL     OW22515   9.451   3.765   6.919
 6873SOL    HW122516   9.457   3.796   7.010
 6873SOL    HW222517   9.381   3.700   6.921
 6874SOL     OW22518   0.040   9.579   7.881
 6874SOL    HW122519   0.085   9.496   7.898
 6874SOL    HW222520   0.071   9.638   7.949
 6875SOL     OW22521  14.812   3.770   5.417
 6875SOL    HW122522  14.755   3.847   5.413
 6875SOL    HW222523  14.768   3.710   5.476
 6876SOL     OW22524  11.811  13.752   5.309
 6876SOL    HW122525  11.818  13.721   5.219
 6876SOL    HW222526  11.744  13.696   5.349
 6877SOL     OW22527  12.172   1.252   1.609
 6877SOL    HW122528  12.161   1.174   1.664
 6877SOL    HW222529  12.088   1.298   1.615
 6878SOL     OW22530   7.329  12.779  11.738
 6878SOL    HW122531   7.315  12.720  11.664
 6878SOL    HW222532   7.419  12.810  11.727
 6879SOL     OW22533   0.574   0.012  13.511
 6879SOL    HW122534   0.587  14.836  13.432
 6879SOL    HW222535   0.501  14.848  13.556
 6880SOL     OW22536  11.698   9.249   4.198
 6880SOL    HW122537  11.610   9.262   4.234
 6880SOL    HW222538  11.694   9.163   4.157
 6881SOL     OW22539   3.895   6.145   7.489
 6881SOL    HW122540   3.958   6.209   7.521
 6881SOL    HW222541   3.943   6.062   7.489
 6882SOL     OW22542   9.332   2.298   8.667
 6882SOL    HW122543   9.243   2.333   8.678
 6882SOL    HW222544   9.381   2.370   8.626
 6883SOL     OW22545   7.654   7.570   2.968
 6883SOL    HW122546   7.656   7.486   3.015
 6883SOL    HW222547   7.664   7.636   3.037
 6884SOL     OW22548   3.175   1.028   6.676
 6884SOL    HW122549   3.260   0.983   6.670
 6884SOL    HW222550   3.198   1.121   6.685
 6885SOL     OW22551  13.930   5.119  11.103
 6885SOL    HW122552  13.893   5.205  11.082
 6885SOL    HW222553  13.967   5.088  11.021
 6886SOL     OW22554  12.867  12.541   7.365
 6886SOL    HW122555  12.817  12.460   7.354
 6886SOL    HW222556  12.958  12.516   7.348
 6887SOL     OW22557   3.179   8.815   9.854
 6887SOL    HW122558   3.267   8.780   9.839
 6887SOL    HW222559   3.140   8.820   9.767
 6888SOL     OW22560   3.061   5.220  10.233
 6888SOL    HW122561   3.059   5.143  10.291
 6888SOL    HW222562   3.137   5.270  10.264
 6889SOL     OW22563  11.595   6.512  10.401
 6889SOL    HW122564  11.544   6.593  10.393
 6889SOL    HW222565  11.529   6.443  10.401
 6890SOL     OW22566   6.595   3.600   8.441
 6890SOL    HW122567   6.657   3.671   8.424
 6890SOL    HW222568   6.638   3.547   8.508
 6891SOL     OW22569   5.850  10.155   6.609
 6891SOL    HW122570   5.933  10.188   6.573
 6891SOL    HW222571   5.825  10.221   6.674
 6892SOL     OW22572   8.872   7.410   6.197
 6892SOL    HW122573   8.807   7.358   6.244
 6892SOL    HW222574   8.870   7.376   6.107
 6893SOL     OW22575   3.684   4.241   7.004
 6893SOL    HW122576   3.599   4.258   7.046
 6893SOL    HW222577   3.705   4.324   6.961
 6894SOL     OW22578   0.827  11.059   6.998
 6894SOL    HW122579   0.899  11.015   7.042
 6894SOL    HW222580   0.870  11.124   6.942
 6895SOL     OW22581  10.614   9.668  14.211
 6895SOL    HW122582  10.623   9.575  14.231
 6895SOL    HW222583  10.560   9.670  14.132
 6896SOL     OW22584  12.678   6.191  11.624
 6896SOL    HW122585  12.683   6.242  11.544
 6896SOL    HW222586  12.762   6.146  11.630
 6897SOL     OW22587   6.569   3.858  11.998
 6897SOL    HW122588   6.514   3.915  11.944
 6897SOL    HW222589   6.637   3.827  11.938
 6898SOL     OW22590  12.501   6.259   8.278
 6898SOL    HW122591  12.586   6.302   8.275
 6898SOL    HW222592  12.513   6.185   8.337
 6899SOL     OW22593   3.867   3.905  10.158
 6899SOL    HW122594   3.826   3.819  10.157
 6899SOL    HW222595   3.800   3.964  10.123
 6900SOL     OW22596  13.414   3.048   3.092
 6900SOL    HW122597  13.508   3.038   3.080
 6900SOL    HW222598  13.397   3.014   3.180
 6901SOL     OW22599  13.368  14.702   0.077
 6901SOL    HW122600  13.281  14.722   0.112
 6901SOL    HW222601  13.386  14.775   0.017
 6902SOL     OW22602   0.907   0.648   8.256
 6902SOL    HW122603   0.956   0.662   8.176
 6902SOL    HW222604   0.832   0.595   8.229
 6903SOL     OW22605   3.067   6.443   0.066
 6903SOL    HW122606   3.102   6.354   0.071
 6903SOL    HW222607   2.983   6.438   0.112
 6904SOL     OW22608  11.682  14.285  13.296
 6904SOL    HW122609  11.628  14.329  13.362
 6904SOL    HW222610  11.653  14.322  13.212
 6905SOL     OW22611   1.183   3.718  10.051
 6905SOL    HW122612   1.182   3.741   9.959
 6905SOL    HW222613   1.156   3.626  10.053
 6906SOL     OW22614   3.357  13.060   2.558
 6906SOL    HW122615   3.379  13.090   2.469
 6906SOL    HW222616   3.427  13.096   2.613
 6907SOL     OW22617   4.293   9.111  13.005
 6907SOL    HW122618   4.363   9.096  13.069
 6907SOL    HW222619   4.326   9.074  12.924
 6908SOL     OW22620   8.512   5.692  11.857
 6908SOL    HW122621   8.441   5.728  11.910
 6908SOL    HW222622   8.504   5.736  11.772
 6909SOL     OW22623  11.787   1.857  13.804
 6909SOL    HW122624  11.699   1.829  13.829
 6909SOL    HW222625  11.787   1.854  13.708
 6910SOL     OW22626  11.395  12.372   1.004
 6910SOL    HW122627  11.349  12.331   0.930
 6910SOL    HW222628  11.453  12.303   1.036
 6911SOL     OW22629   4.090  14.453   2.926
 6911SOL    HW122630   4.098  14.418   3.015
 6911SOL    HW222631   4.174  14.494   2.908
 6912SOL     OW22632  13.404   4.122   2.059
 6912SOL    HW122633  13.451   4.090   1.982
 6912SOL    HW222634  13.387   4.043   2.110
 6913SOL     OW22635   4.664   3.437   3.967
 6913SOL    HW122636   4.669   3.407   3.876
 6913SOL    HW222637   4.629   3.526   3.961
 6914SOL     OW22638   5.926  13.525   3.038
 6914SOL    HW122639   5.925  13.615   3.072
 6914SOL    HW222640   5.948  13.470   3.113
 6915SOL     OW22641   5.321   8.204   6.806
 6915SOL    HW122642   5.345   8.204   6.898
 6915SOL    HW222643   5.298   8.114   6.786
 6916SOL     OW22644  12.792   9.296   1.693
 6916SOL    HW122645  12.785   9.245   1.774
 6916SOL    HW222646  12.710   9.343   1.687
 6917SOL     OW22647  12.221   2.454  12.842
 6917SOL    HW122648  12.140   2.407  12.821
 6917SOL    HW222649  12.231   2.442  12.937
 6918SOL     OW22650   3.418  13.311   7.971
 6918SOL    HW122651   3.482  13.371   8.008
 6918SOL    HW222652   3.369  13.364   7.908
 6919SOL     OW22653   0.450   5.676  13.572
 6919SOL    HW122654   0.436   5.588  13.538
 6919SOL    HW222655   0.393   5.732  13.519
 6920SOL     OW22656   4.970  12.269   3.697
 6920SOL    HW122657   4.996  12.181   3.725
 6920SOL    HW222658   4.879  12.277   3.724
 6921SOL     OW22659   8.288   9.319   6.394
 6921SOL    HW122660   8.201   9.356   6.410
 6921SOL    HW222661   8.309   9.346   6.305
 6922SOL     OW22662   0.196  12.581   4.908
 6922SOL    HW122663   0.249  12.503   4.894
 6922SOL    HW222664   0.246  12.651   4.866
 6923SOL     OW22665  12.216   7.760   3.833
 6923SOL    HW122666  12.185   7.680   3.791
 6923SOL    HW222667  12.168   7.831   3.791
 6924SOL     OW22668   7.989   8.344   9.926
 6924SOL    HW122669   8.035   8.265   9.955
 6924SOL    HW222670   7.978   8.395  10.006
 6925SOL     OW22671   8.813  14.367   7.024
 6925SOL    HW122672   8.798  14.302   6.956
 6925SOL    HW222673   8.810  14.451   6.978
 6926SOL     OW22674  10.434  11.199   1.496
 6926SOL    HW122675  10.479  11.250   1.429
 6926SOL    HW222676  10.487  11.212   1.575
 6927SOL     OW22677   6.858   4.646   9.468
 6927SOL    HW122678   6.799   4.720   9.457
 6927SOL    HW222679   6.801   4.571   9.485
 6928SOL     OW22680  14.142   7.666  11.436
 6928SOL    HW122681  14.220   7.611  11.427
 6928SOL    HW222682  14.132   7.677  11.531
 6929SOL     OW22683  10.582  14.557  14.691
 6929SOL    HW122684  10.667  14.599  14.701
 6929SOL    HW222685  10.520  14.619  14.728
 6930SOL     OW22686   1.497  14.804  14.743
 6930SOL    HW122687   1.404  14.810  14.719
 6930SOL    HW222688   1.513  14.710  14.753
 6931SOL     OW22689   2.848  13.145   5.206
 6931SOL    HW122690   2.927  13.092   5.221
 6931SOL    HW222691   2.861  13.223   5.260
 6932SOL     OW22692   5.429  11.501  11.414
 6932SOL    HW122693   5.496  11.433  11.421
 6932SOL    HW222694   5.358  11.471  11.470
 6933SOL     OW22695   2.348  12.315  14.334
 6933SOL    HW122696   2.373  12.382  14.271
 6933SOL    HW222697   2.428  12.297  14.383
 6934SOL     OW22698   6.590   4.565   7.777
 6934SOL    HW122699   6.568   4.541   7.687
 6934SOL    HW222700   6.528   4.634   7.799
 6935SOL     OW22701   6.426  14.319   8.013
 6935SOL    HW122702   6.444  14.227   7.996
 6935SOL    HW222703   6.477  14.366   7.947
 6936SOL     OW22704   2.091  13.468  12.743
 6936SOL    HW122705   2.159  13.516  12.791
 6936SOL    HW222706   2.013  13.477  12.798
 6937SOL     OW22707   6.784   2.388   3.811
 6937SOL    HW122708   6.846   2.392   3.883
 6937SOL    HW222709   6.791   2.473   3.768
 6938SOL     OW22710   2.409   9.113   6.952
 6938SOL    HW122711   2.375   9.024   6.959
 6938SOL    HW222712   2.503   9.103   6.945
 6939SOL     OW22713  13.411   4.483  10.222
 6939SOL    HW122714  13.489   4.504  10.274
 6939SOL    HW222715  13.353   4.438  10.283
 6940SOL     OW22716   5.116   7.215   9.804
 6940SOL    HW122717   5.173   7.281   9.843
 6940SOL    HW222718   5.169   7.174   9.736
 6941SOL     OW22719   4.852  14.069  14.658
 6941SOL    HW122720   4.770  14.038  14.697
 6941SOL    HW222721   4.901  13.989  14.639
 6942SOL     OW22722   1.174   7.085  12.318
 6942SOL    HW122723   1.134   7.015  12.370
 6942SOL    HW222724   1.102   7.144  12.298
 6943SOL     OW22725   3.297   8.611  11.425
 6943SOL    HW122726   3.315   8.697  11.387
 6943SOL    HW222727   3.380   8.564  11.416
 6944SOL     OW22728   8.374   1.922  13.386
 6944SOL    HW122729   8.308   1.854  13.374
 6944SOL    HW222730   8.339   1.998  13.339
 6945SOL     OW22731   0.321   1.957   5.468
 6945SOL    HW122732   0.382   1.901   5.516
 6945SOL    HW222733   0.237   1.911   5.473
 6946SOL     OW22734   1.327   7.466   4.591
 6946SOL    HW122735   1.378   7.439   4.515
 6946SOL    HW222736   1.392   7.478   4.661
 6947SOL     OW22737   9.091  11.302   7.788
 6947SOL    HW122738   9.084  11.207   7.777
 6947SOL    HW222739   9.000  11.332   7.793
 6948SOL     OW22740   7.680   3.802   9.097
 6948SOL    HW122741   7.757   3.855   9.115
 6948SOL    HW222742   7.688   3.727   9.157
 6949SOL     OW22743   0.763  14.085  14.428
 6949SOL    HW122744   0.683  14.040  14.403
 6949SOL    HW222745   0.744  14.122  14.515
 6950SOL     OW22746   1.444   0.474   8.605
 6950SOL    HW122747   1.425   0.385   8.635
 6950SOL    HW222748   1.539   0.482   8.616
 6951SOL     OW22749   4.071  12.198  11.091
 6951SOL    HW122750   4.057  12.275  11.146
 6951SOL    HW222751   4.165  12.182  11.094
 6952SOL     OW22752   8.852  14.144   3.351
 6952SOL    HW122753   8.894  14.102   3.276
 6952SOL    HW222754   8.903  14.115   3.427
 6953SOL     OW22755  13.417   0.906  10.242
 6953SOL    HW122756  13.482   0.889  10.311
 6953SOL    HW222757  13.337   0.926  10.290
 6954SOL     OW22758  10.491   8.782   5.772
 6954SOL    HW122759  10.531   8.819   5.850
 6954SOL    HW222760  10.518   8.840   5.701
 6955SOL     OW22761  11.040  13.064  11.261
 6955SOL    HW122762  11.075  13.095  11.178
 6955SOL    HW222763  11.006  12.977  11.242
 6956SOL     OW22764  11.282   3.645   3.353
 6956SOL    HW122765  11.244   3.718   3.401
 6956SOL    HW222766  11.350   3.611   3.410
 6957SOL     OW22767   4.592   8.835   8.866
 6957SOL    HW122768   4.543   8.754   8.853
 6957SOL    HW222769   4.558   8.871   8.948
 6958SOL     OW22770  13.557  10.560  13.431
 6958SOL    HW122771  13.515  10.624  13.374
 6958SOL    HW222772  13.546  10.476  13.385
 6959SOL     OW22773   3.576   8.986   7.548
 6959SOL    HW122774   3.554   9.017   7.636
 6959SOL    HW222775   3.603   9.066   7.501
 6960SOL     OW22776  14.691  10.441   1.914
 6960SOL    HW122777  14.724  10.352   1.926
 6960SOL    HW222778  14.636  10.457   1.991
 6961SOL     OW22779  11.152  14.105  13.566
 6961SOL    HW122780  11.142  14.041  13.636
 6961SOL    HW222781  11.188  14.183  13.609
 6962SOL     OW22782   9.140   5.767  13.769
 6962SOL    HW122783   9.078   5.713  13.819
 6962SOL    HW222784   9.099   5.777  13.683
 6963SOL     OW22785   9.613   4.125  11.822
 6963SOL    HW122786   9.548   4.121  11.892
 6963SOL    HW222787   9.634   4.218  11.813
 6964SOL     OW22788   2.762   0.903  11.455
 6964SOL    HW122789   2.695   0.878  11.518
 6964SOL    HW222790   2.763   0.832  11.391
 6965SOL     OW22791  11.872   4.041   2.861
 6965SOL    HW122792  11.808   3.995   2.806
 6965SOL    HW222793  11.840   4.131   2.864
 6966SOL     OW22794  10.337  11.593   2.424
 6966SOL    HW122795  10.297  11.516   2.384
 6966SOL    HW222796  10.262  11.644   2.457
 6967SOL     OW22797   4.555  10.770  12.940
 6967SOL    HW122798   4.638  10.789  12.983
 6967SOL    HW222799   4.570  10.792  12.848
 6968SOL     OW22800   6.223  10.029   4.921
 6968SOL    HW122801   6.294   9.973   4.953
 6968SOL    HW222802   6.175   9.973   4.860
 6969SOL     OW22803   8.261   1.159   1.050
 6969SOL    HW122804   8.284   1.066   1.047
 6969SOL    HW222805   8.212   1.175   0.969
 6970SOL     OW22806   1.600   6.853   0.072
 6970SOL    HW122807   1.604   6.770   0.025
 6970SOL    HW222808   1.523   6.897   0.036
 6971SOL     OW22809   2.509  12.359  10.429
 6971SOL    HW122810   2.444  12.375  10.360
 6971SOL    HW222811   2.471  12.289  10.481
 6972SOL     OW22812   7.112   2.780  10.485
 6972SOL    HW122813   7.124   2.715  10.416
 6972SOL    HW222814   7.191   2.833  10.483
 6973SOL     OW22815   1.026   7.185   0.257
 6973SOL    HW122816   1.040   7.131   0.335
 6973SOL    HW222817   0.932   7.204   0.258
 6974SOL     OW22818   6.833  10.662   1.034
 6974SOL    HW122819   6.812  10.687   0.944
 6974SOL    HW222820   6.843  10.567   1.030
 6975SOL     OW22821   6.250  11.903   1.474
 6975SOL    HW122822   6.336  11.862   1.483
 6975SOL    HW222823   6.223  11.882   1.384
 6976SOL     OW22824  14.410   8.670  12.217
 6976SOL    HW122825  14.361   8.727  12.277
 6976SOL    HW222826  14.350   8.598  12.198
 6977SOL     OW22827   6.687   8.942   0.876
 6977SOL    HW122828   6.678   8.850   0.903
 6977SOL    HW222829   6.703   8.938   0.782
 6978SOL     OW22830   8.096   9.454   6.506
 6978SOL    HW122831   8.058   9.540   6.520
 6978SOL    HW222832   8.083   9.407   6.588
 6979SOL     OW22833   3.187   4.606  14.086
 6979SOL    HW122834   3.104   4.599  14.134
 6979SOL    HW222835   3.240   4.533  14.117
 6980SOL     OW22836  12.626   1.313   1.689
 6980SOL    HW122837  12.642   1.266   1.607
 6980SOL    HW222838  12.707   1.360   1.706
 6981SOL     OW22839  13.808   6.255   5.698
 6981SOL    HW122840  13.795   6.182   5.758
 6981SOL    HW222841  13.848   6.216   5.620
 6982SOL     OW22842   2.964  14.587  13.163
 6982SOL    HW122843   2.906  14.539  13.104
 6982SOL    HW222844   2.978  14.671  13.121
 6983SOL     OW22845  14.805   0.434   8.536
 6983SOL    HW122846  14.778   0.343   8.547
 6983SOL    HW222847  14.785   0.475   8.619
 6984SOL     OW22848   9.738  14.029  11.406
 6984SOL    HW122849   9.716  14.017  11.498
 6984SOL    HW222850   9.665  14.078  11.369
 6985SOL     OW22851   5.505   2.218   9.655
 6985SOL    HW122852   5.438   2.165   9.612
 6985SOL    HW222853   5.527   2.285   9.590
 6986SOL     OW22854   9.371   3.309   2.133
 6986SOL    HW122855   9.385   3.317   2.228
 6986SOL    HW222856   9.296   3.365   2.115
 6987SOL     OW22857  11.758   8.058   1.710
 6987SOL    HW122858  11.824   7.997   1.745
 6987SOL    HW222859  11.770   8.137   1.762
 6988SOL     OW22860  10.681  12.067   2.346
 6988SOL    HW122861  10.592  12.047   2.376
 6988SOL    HW222862  10.725  12.103   2.423
 6989SOL     OW22863  13.454   4.510   3.122
 6989SOL    HW122864  13.502   4.513   3.039
 6989SOL    HW222865  13.379   4.453   3.104
 6990SOL     OW22866   8.958   1.170  13.414
 6990SOL    HW122867   8.951   1.185  13.509
 6990SOL    HW222868   9.038   1.118  13.404
 6991SOL     OW22869   1.456  12.270   8.996
 6991SOL    HW122870   1.506  12.209   9.050
 6991SOL    HW222871   1.373  12.282   9.043
 6992SOL     OW22872  10.845   5.526  11.170
 6992SOL    HW122873  10.861   5.606  11.120
 6992SOL    HW222874  10.785   5.476  11.116
 6993SOL     OW22875  10.370   5.931   5.886
 6993SOL    HW122876  10.284   5.907   5.853
 6993SOL    HW222877  10.431   5.870   5.845
 6994SOL     OW22878   1.342  10.158   7.317
 6994SOL    HW122879   1.313  10.072   7.287
 6994SOL    HW222880   1.295  10.219   7.260
 6995SOL     OW22881   4.916  10.527   9.568
 6995SOL    HW122882   4.927  10.493   9.479
 6995SOL    HW222883   4.821  10.528   9.582
 6996SOL     OW22884   0.028   1.491   3.149
 6996SOL    HW122885  14.833   1.433   3.126
 6996SOL    HW222886   0.059   1.458   3.234
 6997SOL     OW22887   2.376   2.492   6.382
 6997SOL    HW122888   2.348   2.434   6.453
 6997SOL    HW222889   2.424   2.436   6.322
 6998SOL     OW22890   0.409   4.639   8.092
 6998SOL    HW122891   0.425   4.547   8.070
 6998SOL    HW222892   0.408   4.641   8.187
 6999SOL     OW22893   2.796   7.570   7.718
 6999SOL    HW122894   2.781   7.482   7.751
 6999SOL    HW222895   2.794   7.560   7.623
 7000SOL     OW22896  10.604   5.802   5.768
 7000SOL    HW122897  10.642   5.888   5.784
 7000SOL    HW222898  10.584   5.801   5.674
 7001SOL     OW22899   2.167   9.290  12.633
 7001SOL    HW122900   2.161   9.383  12.656
 7001SOL    HW222901   2.256   9.280  12.600
 7002SOL     OW22902   0.430   5.022  12.767
 7002SOL    HW122903   0.441   5.094  12.830
 7002SOL    HW222904   0.350   5.043  12.720
 7003SOL     OW22905   2.836   1.568  13.138
 7003SOL    HW122906   2.845   1.481  13.101
 7003SOL    HW222907   2.787   1.618  13.072
 7004SOL     OW22908   6.647  12.918  12.887
 7004SOL    HW122909   6.567  12.893  12.840
 7004SOL    HW222910   6.718  12.879  12.835
 7005SOL     OW22911   8.424  12.008  14.208
 7005SOL    HW122912   8.334  11.979  14.221
 7005SOL    HW222913   8.475  11.927  14.200
 7006SOL     OW22914  13.486   1.306   9.272
 7006SOL    HW122915  13.487   1.211   9.261
 7006SOL    HW222916  13.554   1.325   9.335
 7007SOL     OW22917   2.839  10.403   6.752
 7007SOL    HW122918   2.814  10.432   6.840
 7007SOL    HW222919   2.932  10.382   6.760
 7008SOL     OW22920   5.535  14.015   8.413
 7008SOL    HW122921   5.494  14.064   8.484
 7008SOL    HW222922   5.462  13.983   8.360
 7009SOL     OW22923  12.227  10.974  14.616
 7009SOL    HW122924  12.272  10.899  14.654
 7009SOL    HW222925  12.233  10.960  14.521
 7010SOL     OW22926   9.079   0.403   4.502
 7010SOL    HW122927   9.137   0.479   4.499
 7010SOL    HW222928   9.136   0.329   4.480
 7011SOL     OW22929   2.078   5.779  11.839
 7011SOL    HW122930   2.119   5.708  11.789
 7011SOL    HW222931   2.147   5.845  11.845
 7012SOL     OW22932   6.875   8.850  13.263
 7012SOL    HW122933   6.848   8.789  13.332
 7012SOL    HW222934   6.940   8.801  13.212
 7013SOL     OW22935   3.200  11.716   7.497
 7013SOL    HW122936   3.141  11.753   7.563
 7013SOL    HW222937   3.228  11.632   7.534
 7014SOL     OW22938   4.511  11.158   0.227
 7014SOL    HW122939   4.493  11.162   0.321
 7014SOL    HW222940   4.547  11.244   0.206
 7015SOL     OW22941   3.056   7.607   3.031
 7015SOL    HW122942   3.137   7.638   3.073
 7015SOL    HW222943   3.036   7.526   3.078
 7016SOL     OW22944   3.482   2.711   5.051
 7016SOL    HW122945   3.496   2.637   5.110
 7016SOL    HW222946   3.507   2.788   5.102
 7017SOL     OW22947   1.166  13.958   1.175
 7017SOL    HW122948   1.230  14.018   1.214
 7017SOL    HW222949   1.197  13.945   1.085
 7018SOL     OW22950   1.865  13.174   4.691
 7018SOL    HW122951   1.912  13.209   4.767
 7018SOL    HW222952   1.802  13.242   4.668
 7019SOL     OW22953   1.668  13.462  11.519
 7019SOL    HW122954   1.604  13.484  11.587
 7019SOL    HW222955   1.629  13.494  11.438
 7020SOL     OW22956  12.794  11.836   0.973
 7020SOL    HW122957  12.844  11.894   0.916
 7020SOL    HW222958  12.708  11.829   0.931
 7021SOL     OW22959  10.659  14.202   9.394
 7021SOL    HW122960  10.642  14.109   9.379
 7021SOL    HW222961  10.705  14.205   9.478
 7022SOL     OW22962  10.802  14.457  12.012
 7022SOL    HW122963  10.720  14.470  12.061
 7022SOL    HW222964  10.850  14.392  12.062
 7023SOL     OW22965   6.453  14.359   4.628
 7023SOL    HW122966   6.485  14.274   4.659
 7023SOL    HW222967   6.367  14.370   4.670
 7024SOL     OW22968  13.102  11.338   0.852
 7024SOL    HW122969  13.057  11.317   0.934
 7024SOL    HW222970  13.124  11.253   0.815
 7025SOL     OW22971   5.666   3.955   1.454
 7025SOL    HW122972   5.715   3.872   1.454
 7025SOL    HW222973   5.633   3.963   1.544
 7026SOL     OW22974  10.805   7.336  12.802
 7026SOL    HW122975  10.711   7.355  12.808
 7026SOL    HW222976  10.816   7.292  12.718
 7027SOL     OW22977  12.097   2.447   2.111
 7027SOL    HW122978  12.185   2.410   2.120
 7027SOL    HW222979  12.111   2.529   2.064
 7028SOL     OW22980   8.768   2.216  11.278
 7028SOL    HW122981   8.833   2.279  11.309
 7028SOL    HW222982   8.740   2.249  11.194
 7029SOL     OW22983   6.165   5.565   6.594
 7029SOL    HW122984   6.259   5.566   6.572
 7029SOL    HW222985   6.123   5.525   6.518
 7030SOL     OW22986   1.749  11.042  11.767
 7030SOL    HW122987   1.840  11.071  11.763
 7030SOL    HW222988   1.703  11.102  11.708
 7031SOL     OW22989   3.900   1.604  11.198
 7031SOL    HW122990   3.807   1.620  11.180
 7031SOL    HW222991   3.936   1.691  11.216
 7032SOL     OW22992   8.496  14.859   7.452
 7032SOL    HW122993   8.404  14.839   7.433
 7032SOL    HW222994   8.545  14.800   7.395
 7033SOL     OW22995   5.408   8.687   0.027
 7033SOL    HW122996   5.406   8.769  14.854
 7033SOL    HW222997   5.474   8.633  14.861
 7034SOL     OW22998   7.076   5.324  10.092
 7034SOL    HW122999   7.038   5.253  10.041
 7034SOL    HW223000   7.014   5.396  10.083
 7035SOL     OW23001   0.212   2.271   7.936
 7035SOL    HW123002   0.234   2.364   7.940
 7035SOL    HW223003   0.126   2.264   7.977
 7036SOL     OW23004   5.831  14.304   8.916
 7036SOL    HW123005   5.890  14.309   8.991
 7036SOL    HW223006   5.858  14.376   8.859
 7037SOL     OW23007  11.544   3.159   4.608
 7037SOL    HW123008  11.626   3.128   4.568
 7037SOL    HW223009  11.498   3.078   4.632
 7038SOL     OW23010   5.310   3.266  10.161
 7038SOL    HW123011   5.253   3.336  10.192
 7038SOL    HW223012   5.259   3.186  10.176
 7039SOL     OW23013  10.475   7.847   3.344
 7039SOL    HW123014  10.405   7.807   3.292
 7039SOL    HW223015  10.448   7.939   3.353
 7040SOL     OW23016   5.779   0.023   9.159
 7040SOL    HW123017   5.719   0.050   9.090
 7040SOL    HW223018   5.828   0.103   9.181
 7041SOL     OW23019   5.174   7.914   4.002
 7041SOL    HW123020   5.186   7.824   3.972
 7041SOL    HW223021   5.079   7.924   4.010
 7042SOL     OW23022  10.702  11.460   7.041
 7042SOL    HW123023  10.695  11.373   7.078
 7042SOL    HW223024  10.795  11.483   7.049
 7043SOL     OW23025   2.947  10.677  14.186
 7043SOL    HW123026   3.039  10.695  14.206
 7043SOL    HW223027   2.899  10.708  14.263
 7044SOL     OW23028   0.224   8.364   2.173
 7044SOL    HW123029   0.313   8.356   2.207
 7044SOL    HW223030   0.193   8.449   2.205
 7045SOL     OW23031   7.686   1.201   4.525
 7045SOL    HW123032   7.675   1.165   4.613
 7045SOL    HW223033   7.780   1.202   4.511
 7046SOL     OW23034   2.311   6.414   1.766
 7046SOL    HW123035   2.281   6.473   1.836
 7046SOL    HW223036   2.406   6.418   1.772
 7047SOL     OW23037   9.970   6.365  11.917
 7047SOL    HW123038   9.941   6.274  11.922
 7047SOL    HW223039   9.891   6.413  11.892
 7048SOL     OW23040   8.780   6.963   1.916
 7048SOL    HW123041   8.740   6.915   1.845
 7048SOL    HW223042   8.761   7.055   1.897
 7049SOL     OW23043   5.968   7.726  10.001
 7049SOL    HW123044   5.969   7.815  10.035
 7049SOL    HW223045   6.054   7.715   9.959
 7050SOL     OW23046  11.398   0.479   5.454
 7050SOL    HW123047  11.485   0.518   5.466
 7050SOL    HW223048  11.367   0.513   5.370
 7051SOL     OW23049   3.198  12.757   5.149
 7051SOL    HW123050   3.269  12.794   5.201
 7051SOL    HW223051   3.235  12.677   5.111
 7052SOL     OW23052   8.692   8.238   7.767
 7052SOL    HW123053   8.688   8.185   7.687
 7052SOL    HW223054   8.614   8.213   7.817
 7053SOL     OW23055   1.055   5.554  13.008
 7053SOL    HW123056   0.962   5.568  12.994
 7053SOL    HW223057   1.087   5.518  12.925
 7054SOL     OW23058  12.283  12.022   9.692
 7054SOL    HW123059  12.226  12.049   9.764
 7054SOL    HW223060  12.368  12.060   9.713
 7055SOL     OW23061   0.825   4.901   9.030
 7055SOL    HW123062   0.883   4.956   9.082
 7055SOL    HW223063   0.880   4.872   8.957
 7056SOL     OW23064   5.251  14.102  12.975
 7056SOL    HW123065   5.283  14.066  13.057
 7056SOL    HW223066   5.223  14.191  12.998
 7057SOL     OW23067   5.369   6.581   4.192
 7057SOL    HW123068   5.429   6.511   4.220
 7057SOL    HW223069   5.371   6.576   4.096
 7058SOL     OW23070  11.994   5.305  11.027
 7058SOL    HW123071  11.923   5.279  11.084
 7058SOL    HW223072  12.047   5.226  11.016
 7059SOL     OW23073   7.164  14.802   4.888
 7059SOL    HW123074   7.146  14.759   4.972
 7059SOL    HW223075   7.259  14.804   4.883
 7060SOL     OW23076   3.554   7.517   5.395
 7060SOL    HW123077   3.540   7.500   5.302
 7060SOL    HW223078   3.648   7.536   5.402
 7061SOL     OW23079   0.575   9.043   7.830
 7061SOL    HW123080   0.609   9.120   7.876
 7061SOL    HW223081   0.647   8.981   7.829
 7062SOL     OW23082  14.558  10.290  11.914
 7062SOL    HW123083  14.528  10.259  11.828
 7062SOL    HW223084  14.507  10.370  11.929
 7063SOL     OW23085  12.623  12.027   0.798
 7063SOL    HW123086  12.608  11.984   0.714
 7063SOL    HW223087  12.543  12.009   0.848
 7064SOL     OW23088   1.987   8.821   6.427
 7064SOL    HW123089   1.934   8.829   6.507
 7064SOL    HW223090   2.008   8.911   6.403
 7065SOL     OW23091   9.757  10.516   0.592
 7065SOL    HW123092   9.734  10.597   0.546
 7065SOL    HW223093   9.674  10.485   0.629
 7066SOL     OW23094  11.781   8.877   7.124
 7066SOL    HW123095  11.740   8.957   7.093
 7066SOL    HW223096  11.755   8.871   7.216
 7067SOL     OW23097   5.490   5.244   5.623
 7067SOL    HW123098   5.524   5.159   5.597
 7067SOL    HW223099   5.564   5.304   5.612
 7068SOL     OW23100  14.494   9.633  11.180
 7068SOL    HW123101  14.527   9.641  11.091
 7068SOL    HW223102  14.399   9.644  11.171
 7069SOL     OW23103  13.766   4.253   9.752
 7069SOL    HW123104  13.791   4.161   9.761
 7069SOL    HW223105  13.748   4.265   9.659
 7070SOL     OW23106  11.694   5.128   8.042
 7070SOL    HW123107  11.701   5.186   7.966
 7070SOL    HW223108  11.606   5.091   8.035
 7071SOL     OW23109  11.540   5.188  11.870
 7071SOL    HW123110  11.485   5.160  11.797
 7071SOL    HW223111  11.627   5.196  11.833
 7072SOL     OW23112   5.184   2.498  11.855
 7072SOL    HW123113   5.090   2.485  11.864
 7072SOL    HW223114   5.212   2.432  11.792
 7073SOL     OW23115  13.510  12.923  14.319
 7073SOL    HW123116  13.435  12.878  14.282
 7073SOL    HW223117  13.477  12.962  14.400
 7074SOL     OW23118   5.543   8.655   1.845
 7074SOL    HW123119   5.493   8.574   1.833
 7074SOL    HW223120   5.629   8.636   1.808
 7075SOL     OW23121   7.591   9.894   5.166
 7075SOL    HW123122   7.643   9.966   5.129
 7075SOL    HW223123   7.546   9.856   5.091
 7076SOL     OW23124  14.259   1.975   2.640
 7076SOL    HW123125  14.199   1.901   2.652
 7076SOL    HW223126  14.238   2.033   2.713
 7077SOL     OW23127   8.599   1.273  11.974
 7077SOL    HW123128   8.540   1.211  12.018
 7077SOL    HW223129   8.620   1.337  12.041
 7078SOL     OW23130  13.266   2.358  12.685
 7078SOL    HW123131  13.219   2.436  12.711
 7078SOL    HW223132  13.204   2.308  12.631
 7079SOL     OW23133  13.565   7.476   3.571
 7079SOL    HW123134  13.478   7.467   3.611
 7079SOL    HW223135  13.625   7.434   3.633
 7080SOL     OW23136   5.502  14.119   6.408
 7080SOL    HW123137   5.505  14.033   6.367
 7080SOL    HW223138   5.592  14.136   6.436
 7081SOL     OW23139   4.425   7.289   9.580
 7081SOL    HW123140   4.507   7.240   9.574
 7081SOL    HW223141   4.358   7.225   9.553
 7082SOL     OW23142   7.161   7.621   3.955
 7082SOL    HW123143   7.083   7.677   3.954
 7082SOL    HW223144   7.191   7.620   3.865
 7083SOL     OW23145   7.110  13.554  13.065
 7083SOL    HW123146   7.180  13.597  13.115
 7083SOL    HW223147   7.063  13.501  13.130
 7084SOL     OW23148   3.789   6.695   8.412
 7084SOL    HW123149   3.780   6.616   8.466
 7084SOL    HW223150   3.823   6.761   8.473
 7085SOL     OW23151   4.536  13.617  13.795
 7085SOL    HW123152   4.554  13.566  13.874
 7085SOL    HW223153   4.487  13.557  13.739
 7086SOL     OW23154  11.949   5.231  13.299
 7086SOL    HW123155  11.985   5.308  13.344
 7086SOL    HW223156  11.914   5.177  13.370
 7087SOL     OW23157  12.259   6.786   1.075
 7087SOL    HW123158  12.175   6.791   1.031
 7087SOL    HW223159  12.276   6.692   1.085
 7088SOL     OW23160  11.872   7.310  13.078
 7088SOL    HW123161  11.934   7.367  13.123
 7088SOL    HW223162  11.849   7.244  13.144
 7089SOL     OW23163   8.571   5.254   2.219
 7089SOL    HW123164   8.555   5.348   2.220
 7089SOL    HW223165   8.493   5.216   2.261
 7090SOL     OW23166   1.467   6.542   3.634
 7090SOL    HW123167   1.537   6.478   3.646
 7090SOL    HW223168   1.409   6.504   3.568
 7091SOL     OW23169  10.267  10.699  11.166
 7091SOL    HW123170  10.241  10.721  11.256
 7091SOL    HW223171  10.362  10.698  11.168
 7092SOL     OW23172   1.250  10.867   1.091
 7092SOL    HW123173   1.268  10.773   1.096
 7092SOL    HW223174   1.291  10.904   1.169
 7093SOL     OW23175   4.979  12.992   2.740
 7093SOL    HW123176   4.953  13.062   2.800
 7093SOL    HW223177   4.928  12.916   2.768
 7094SOL     OW23178   6.402  13.932  14.587
 7094SOL    HW123179   6.455  13.986  14.646
 7094SOL    HW223180   6.464  13.869  14.550
 7095SOL     OW23181  14.564   7.736   1.822
 7095SOL    HW123182  14.498   7.668   1.806
 7095SOL    HW223183  14.573   7.737   1.918
 7096SOL     OW23184   3.558  12.964   0.655
 7096SOL    HW123185   3.503  12.947   0.578
 7096SOL    HW223186   3.502  13.015   0.713
 7097SOL     OW23187  10.297  11.938   6.278
 7097SOL    HW123188  10.210  11.933   6.239
 7097SOL    HW223189  10.298  12.022   6.324
 7098SOL     OW23190   9.461   4.284   9.180
 7098SOL    HW123191   9.534   4.236   9.219
 7098SOL    HW223192   9.384   4.254   9.227
 7099SOL     OW23193   5.932   2.993   2.459
 7099SOL    HW123194   5.941   2.910   2.413
 7099SOL    HW223195   6.000   2.990   2.527
 7100SOL     OW23196   3.145  13.658   6.258
 7100SOL    HW123197   3.218  13.656   6.196
 7100SOL    HW223198   3.128  13.566   6.278
 7101SOL     OW23199   2.055   3.377   9.198
 7101SOL    HW123200   2.095   3.376   9.285
 7101SOL    HW223201   2.065   3.468   9.169
 7102SOL     OW23202   7.846  12.256   6.942
 7102SOL    HW123203   7.873  12.316   6.873
 7102SOL    HW223204   7.810  12.312   7.010
 7103SOL     OW23205   0.663   9.045   7.501
 7103SOL    HW123206   0.609   8.968   7.482
 7103SOL    HW223207   0.634   9.111   7.438
 7104SOL     OW23208  11.963   6.677   8.581
 7104SOL    HW123209  12.037   6.667   8.640
 7104SOL    HW223210  11.933   6.588   8.564
 7105SOL     OW23211   1.899   9.838  12.227
 7105SOL    HW123212   1.859   9.870  12.308
 7105SOL    HW223213   1.932   9.918  12.185
 7106SOL     OW23214  13.143  14.740   4.408
 7106SOL    HW123215  13.126  14.749   4.502
 7106SOL    HW223216  13.181  14.824   4.382
 7107SOL     OW23217  13.939   1.209   9.871
 7107SOL    HW123218  13.866   1.174   9.922
 7107SOL    HW223219  13.927   1.304   9.873
 7108SOL     OW23220   5.805  14.410   7.594
 7108SOL    HW123221   5.880  14.392   7.651
 7108SOL    HW223222   5.827  14.494   7.552
 7109SOL     OW23223   3.690   8.663   9.624
 7109SOL    HW123224   3.733   8.590   9.579
 7109SOL    HW223225   3.751   8.736   9.615
 7110SOL     OW23226   6.421  12.305   4.469
 7110SOL    HW123227   6.479  12.339   4.400
 7110SOL    HW223228   6.349  12.264   4.422
 7111SOL     OW23229   4.577   4.930  11.331
 7111SOL    HW123230   4.594   4.985  11.407
 7111SOL    HW223231   4.528   4.987  11.271
 7112SOL     OW23232  14.433   3.968   7.860
 7112SOL    HW123233  14.482   4.030   7.807
 7112SOL    HW223234  14.445   3.999   7.950
 7113SOL     OW23235   8.551  12.673   2.844
 7113SOL    HW123236   8.565  12.679   2.938
 7113SOL    HW223237   8.511  12.587   2.831
 7114SOL     OW23238   2.135  11.934   8.847
 7114SOL    HW123239   2.187  11.986   8.786
 7114SOL    HW223240   2.166  11.959   8.933
 7115SOL     OW23241  11.767  12.735   6.372
 7115SOL    HW123242  11.786  12.766   6.460
 7115SOL    HW223243  11.735  12.646   6.383
 7116SOL     OW23244  11.345  13.436   5.821
 7116SOL    HW123245  11.286  13.384   5.875
 7116SOL    HW223246  11.351  13.387   5.739
 7117SOL     OW23247   9.731  14.038   9.261
 7117SOL    HW123248   9.773  14.120   9.286
 7117SOL    HW223249   9.694  14.004   9.342
 7118SOL     OW23250  11.774   1.315   1.353
 7118SOL    HW123251  11.702   1.315   1.291
 7118SOL    HW223252  11.746   1.256   1.423
 7119SOL     OW23253   4.075   8.002   3.663
 7119SOL    HW123254   4.122   7.946   3.725
 7119SOL    HW223255   4.138   8.068   3.636
 7120SOL     OW23256   8.293   0.405  14.581
 7120SOL    HW123257   8.345   0.399  14.501
 7120SOL    HW223258   8.229   0.474  14.563
 7121SOL     OW23259  10.659  13.893   9.594
 7121SOL    HW123260  10.666  13.798   9.600
 7121SOL    HW223261  10.737  13.925   9.638
 7122SOL     OW23262   8.911   3.455   1.778
 7122SOL    HW123263   8.904   3.448   1.873
 7122SOL    HW223264   9.000   3.428   1.758
 7123SOL     OW23265  10.737   2.296  11.931
 7123SOL    HW123266  10.791   2.302  12.010
 7123SOL    HW223267  10.657   2.252  11.961
 7124SOL     OW23268  14.437  12.476   1.000
 7124SOL    HW123269  14.490  12.555   0.990
 7124SOL    HW223270  14.500  12.408   1.025
 7125SOL     OW23271   0.217   4.586  12.086
 7125SOL    HW123272   0.301   4.589  12.133
 7125SOL    HW223273   0.152   4.609  12.153
 7126SOL     OW23274   5.667   7.935   0.235
 7126SOL    HW123275   5.632   7.848   0.256
 7126SOL    HW223276   5.610   7.968   0.166
 7127SOL     OW23277  12.182   3.590   4.823
 7127SOL    HW123278  12.135   3.645   4.886
 7127SOL    HW223279  12.115   3.562   4.761
 7128SOL     OW23280   9.896   5.291   0.752
 7128SOL    HW123281   9.802   5.293   0.735
 7128SOL    HW223282   9.929   5.223   0.693
 7129SOL     OW23283  11.858  14.512   6.756
 7129SOL    HW123284  11.841  14.548   6.669
 7129SOL    HW223285  11.859  14.417   6.742
 7130SOL     OW23286   1.683   7.479  13.929
 7130SOL    HW123287   1.588   7.485  13.918
 7130SOL    HW223288   1.703   7.386  13.917
 7131SOL     OW23289  14.296   2.658  11.796
 7131SOL    HW123290  14.258   2.645  11.883
 7131SOL    HW223291  14.279   2.750  11.777
 7132SOL     OW23292   3.022   0.381  11.600
 7132SOL    HW123293   3.064   0.464  11.581
 7132SOL    HW223294   2.935   0.405  11.632
 7133SOL     OW23295   6.237  11.707   6.797
 7133SOL    HW123296   6.329  11.721   6.777
 7133SOL    HW223297   6.201  11.664   6.719
 7134SOL     OW23298   7.475  11.850   1.238
 7134SOL    HW123299   7.477  11.925   1.179
 7134SOL    HW223300   7.478  11.773   1.181
 7135SOL     OW23301  12.473  12.518   8.686
 7135SOL    HW123302  12.379  12.514   8.702
 7135SOL    HW223303  12.504  12.428   8.696
 7136SOL     OW23304  13.279  13.179  10.907
 7136SOL    HW123305  13.296  13.242  10.977
 7136SOL    HW223306  13.185  13.166  10.909
 7137SOL     OW23307   6.772   4.724   0.099
 7137SOL    HW123308   6.787   4.660   0.030
 7137SOL    HW223309   6.685   4.703   0.133
 7138SOL     OW23310  11.672  12.572  14.781
 7138SOL    HW123311  11.714  12.603  14.701
 7138SOL    HW223312  11.670  12.648  14.838
 7139SOL     OW23313  11.352  10.002  11.416
 7139SOL    HW123314  11.268  10.001  11.462
 7139SOL    HW223315  11.333  10.043  11.332
 7140SOL     OW23316   4.657   2.369   5.009
 7140SOL    HW123317   4.689   2.366   4.919
 7140SOL    HW223318   4.713   2.307   5.056
 7141SOL     OW23319  13.837   3.375  14.413
 7141SOL    HW123320  13.780   3.449  14.390
 7141SOL    HW223321  13.868   3.342  14.329
 7142SOL     OW23322   9.062   1.750   9.404
 7142SOL    HW123323   9.055   1.816   9.336
 7142SOL    HW223324   9.123   1.685   9.369
 7143SOL     OW23325   5.854   4.237   8.134
 7143SOL    HW123326   5.792   4.216   8.203
 7143SOL    HW223327   5.836   4.329   8.112
 7144SOL     OW23328   5.666   8.523  13.167
 7144SOL    HW123329   5.600   8.462  13.134
 7144SOL    HW223330   5.747   8.473  13.169
 7145SOL     OW23331   9.032   5.134  11.683
 7145SOL    HW123332   8.976   5.090  11.618
 7145SOL    HW223333   9.107   5.166  11.633
 7146SOL     OW23334   9.100  11.321   9.631
 7146SOL    HW123335   9.194  11.300   9.626
 7146SOL    HW223336   9.096  11.399   9.686
 7147SOL     OW23337   8.691  12.800   5.519
 7147SOL    HW123338   8.639  12.848   5.454
 7147SOL    HW223339   8.753  12.749   5.467
 7148SOL     OW23340   0.739  14.438   6.883
 7148SOL    HW123341   0.652  14.419   6.919
 7148SOL    HW223342   0.782  14.352   6.878
 7149SOL     OW23343   2.673  10.585   7.722
 7149SOL    HW123344   2.711  10.633   7.649
 7149SOL    HW223345   2.746  10.572   7.782
 7150SOL     OW23346  14.712   8.094   7.422
 7150SOL    HW123347  14.775   8.141   7.476
 7150SOL    HW223348  14.754   8.084   7.337
 7151SOL     OW23349  12.585   4.424  12.695
 7151SOL    HW123350  12.605   4.355  12.631
 7151SOL    HW223351  12.538   4.490  12.645
 7152SOL     OW23352   9.944   9.421   3.411
 7152SOL    HW123353   9.941   9.450   3.502
 7152SOL    HW223354   9.874   9.471   3.368
 7153SOL     OW23355  10.589   7.329  13.776
 7153SOL    HW123356  10.601   7.416  13.737
 7153SOL    HW223357  10.565   7.346  13.867
 7154SOL     OW23358  10.795   6.055   4.949
 7154SOL    HW123359  10.875   6.100   4.974
 7154SOL    HW223360  10.732   6.125   4.932
 7155SOL     OW23361   6.686  14.259   6.363
 7155SOL    HW123362   6.724  14.312   6.293
 7155SOL    HW223363   6.624  14.200   6.319
 7156SOL     OW23364   9.696  12.246   5.543
 7156SOL    HW123365   9.645  12.324   5.565
 7156SOL    HW223366   9.676  12.183   5.613
 7157SOL     OW23367   0.251  11.817   9.485
 7157SOL    HW123368   0.226  11.743   9.430
 7157SOL    HW223369   0.238  11.894   9.428
 7158SOL     OW23370  12.000  14.633   2.083
 7158SOL    HW123371  12.031  14.544   2.103
 7158SOL    HW223372  12.077  14.677   2.047
 7159SOL     OW23373  11.140   7.104   3.881
 7159SOL    HW123374  11.117   7.195   3.897
 7159SOL    HW223375  11.236   7.105   3.874
 7160SOL     OW23376  12.307   2.926   1.489
 7160SOL    HW123377  12.400   2.904   1.480
 7160SOL    HW223378  12.302   2.972   1.573
 7161SOL     OW23379   2.551  11.735   7.530
 7161SOL    HW123380   2.583  11.813   7.484
 7161SOL    HW223381   2.498  11.769   7.602
 7162SOL     OW23382   7.069   6.634   0.961
 7162SOL    HW123383   7.125   6.585   0.901
 7162SOL    HW223384   7.115   6.717   0.974
 7163SOL     OW23385  12.498   7.516   2.672
 7163SOL    HW123386  12.516   7.439   2.726
 7163SOL    HW223387  12.548   7.501   2.592
 7164SOL     OW23388   8.914   4.293   2.508
 7164SOL    HW123389   8.984   4.233   2.533
 7164SOL    HW223390   8.908   4.285   2.413
 7165SOL     OW23391  13.856   1.907   9.129
 7165SOL    HW123392  13.863   1.927   9.222
 7165SOL    HW223393  13.785   1.844   9.123
 7166SOL     OW23394   1.613   6.041   3.725
 7166SOL    HW123395   1.707   6.027   3.714
 7166SOL    HW223396   1.585   5.973   3.786
 7167SOL     OW23397  11.756   8.243   8.901
 7167SOL    HW123398  11.676   8.202   8.869
 7167SOL    HW223399  11.825   8.179   8.883
 7168SOL     OW23400  13.622   0.771   6.156
 7168SOL    HW123401  13.572   0.690   6.148
 7168SOL    HW223402  13.713   0.745   6.139
 7169SOL     OW23403   8.158  11.148  11.282
 7169SOL    HW123404   8.116  11.113  11.204
 7169SOL    HW223405   8.204  11.227  11.252
 7170SOL     OW23406   2.194   2.441  14.014
 7170SOL    HW123407   2.287   2.456  13.999
 7170SOL    HW223408   2.149   2.497  13.950
 7171SOL     OW23409  10.687   6.951  12.682
 7171SOL    HW123410  10.767   7.000  12.696
 7171SOL    HW223411  10.632   7.008  12.628
 7172SOL     OW23412  13.875   8.661   3.724
 7172SOL    HW123413  13.825   8.640   3.645
 7172SOL    HW223414  13.959   8.693   3.691
 7173SOL     OW23415   2.047   4.842   6.645
 7173SOL    HW123416   2.126   4.864   6.695
 7173SOL    HW223417   1.977   4.890   6.689
 7174SOL     OW23418  10.497   6.140   2.841
 7174SOL    HW123419  10.565   6.144   2.773
 7174SOL    HW223420  10.425   6.092   2.800
 7175SOL     OW23421   4.008   1.998   8.841
 7175SOL    HW123422   4.024   2.047   8.922
 7175SOL    HW223423   3.918   1.966   8.850
 7176SOL     OW23424  13.265   7.142   1.068
 7176SOL    HW123425  13.354   7.108   1.080
 7176SOL    HW223426  13.268   7.230   1.106
 7177SOL     OW23427   0.399   1.895  14.751
 7177SOL    HW123428   0.432   1.829  14.811
 7177SOL    HW223429   0.304   1.884  14.754
 7178SOL     OW23430   5.257  13.422   2.502
 7178SOL    HW123431   5.287  13.498   2.552
 7178SOL    HW223432   5.328  13.358   2.510
 7179SOL     OW23433   5.710  13.114   2.599
 7179SOL    HW123434   5.734  13.126   2.691
 7179SOL    HW223435   5.644  13.045   2.601
 7180SOL     OW23436  14.117   5.041  13.416
 7180SOL    HW123437  14.192   5.055  13.474
 7180SOL    HW223438  14.108   4.946  13.410
 7181SOL     OW23439   1.252  12.464   3.092
 7181SOL    HW123440   1.221  12.523   3.161
 7181SOL    HW223441   1.219  12.503   3.011
 7182SOL     OW23442   5.637  13.942  12.929
 7182SOL    HW123443   5.548  13.958  12.897
 7182SOL    HW223444   5.694  13.987  12.866
 7183SOL     OW23445   9.473   3.711  11.584
 7183SOL    HW123446   9.461   3.806  11.586
 7183SOL    HW223447   9.544   3.696  11.521
 7184SOL     OW23448   6.319  14.773   6.133
 7184SOL    HW123449   6.406  14.734   6.143
 7184SOL    HW223450   6.279  14.726   6.061
 7185SOL     OW23451   0.627   1.174   5.352
 7185SOL    HW123452   0.553   1.222   5.390
 7185SOL    HW223453   0.647   1.106   5.417
 7186SOL     OW23454   4.766   1.147  12.168
 7186SOL    HW123455   4.770   1.212  12.097
 7186SOL    HW223456   4.831   1.081  12.142
 7187SOL     OW23457  13.302   6.860   3.195
 7187SOL    HW123458  13.283   6.933   3.253
 7187SOL    HW223459  13.380   6.819   3.234
 7188SOL     OW23460  12.425   0.244  12.141
 7188SOL    HW123461  12.336   0.278  12.156
 7188SOL    HW223462  12.425   0.219  12.048
 7189SOL     OW23463   4.303  14.452   5.157
 7189SOL    HW123464   4.322  14.524   5.097
 7189SOL    HW223465   4.360  14.381   5.129
 7190SOL     OW23466   5.508   3.884   6.111
 7190SOL    HW123467   5.537   3.909   6.024
 7190SOL    HW223468   5.413   3.891   6.108
 7191SOL     OW23469  12.572   9.588  10.198
 7191SOL    HW123470  12.572   9.633  10.283
 7191SOL    HW223471  12.628   9.511  10.211
 7192SOL     OW23472   6.864  11.122   9.417
 7192SOL    HW123473   6.951  11.085   9.402
 7192SOL    HW223474   6.878  11.217   9.422
 7193SOL     OW23475  14.558   7.090  12.279
 7193SOL    HW123476  14.638   7.057  12.238
 7193SOL    HW223477  14.492   7.087  12.209
 7194SOL     OW23478   2.520   8.812   7.674
 7194SOL    HW123479   2.480   8.800   7.760
 7194SOL    HW223480   2.539   8.723   7.643
 7195SOL     OW23481   1.527   6.689  12.587
 7195SOL    HW123482   1.496   6.661  12.673
 7195SOL    HW223483   1.514   6.784  12.586
 7196SOL     OW23484  11.793   7.097   5.454
 7196SOL    HW123485  11.755   7.070   5.371
 7196SOL    HW223486  11.798   7.193   5.447
 7197SOL     OW23487   9.336  10.884   4.402
 7197SOL    HW123488   9.265  10.945   4.423
 7197SOL    HW223489   9.381  10.925   4.328
 7198SOL     OW23490   8.701  10.741   3.544
 7198SOL    HW123491   8.681  10.758   3.636
 7198SOL    HW223492   8.678  10.649   3.530
 7199SOL     OW23493  12.659   8.141   0.713
 7199SOL    HW123494  12.571   8.143   0.676
 7199SOL    HW223495  12.688   8.232   0.712
 7200SOL     OW23496   3.947  11.307  13.361
 7200SOL    HW123497   3.871  11.361  13.383
 7200SOL    HW223498   3.991  11.291  13.444
 7201SOL     OW23499   1.540   9.654   3.258
 7201SOL    HW123500   1.451   9.645   3.223
 7201SOL    HW223501   1.594   9.669   3.181
 7202SOL     OW23502   6.067   5.935   7.444
 7202SOL    HW123503   6.133   5.985   7.395
 7202SOL    HW223504   6.047   5.989   7.520
 7203SOL     OW23505   1.018   0.779   3.623
 7203SOL    HW123506   1.075   0.744   3.555
 7203SOL    HW223507   0.948   0.823   3.575
 7204SOL     OW23508  14.710   1.574   4.753
 7204SOL    HW123509  14.761   1.513   4.700
 7204SOL    HW223510  14.739   1.558   4.843
 7205SOL     OW23511   0.382   3.057   9.736
 7205SOL    HW123512   0.445   2.990   9.764
 7205SOL    HW223513   0.342   3.087   9.817
 7206SOL     OW23514   5.622  10.943   0.392
 7206SOL    HW123515   5.698  10.897   0.428
 7206SOL    HW223516   5.610  11.019   0.449
 7207SOL     OW23517   9.475   6.102  10.702
 7207SOL    HW123518   9.487   6.188  10.744
 7207SOL    HW223519   9.556   6.055  10.723
 7208SOL     OW23520  14.013   0.067   1.459
 7208SOL    HW123521  14.101   0.049   1.491
 7208SOL    HW223522  13.958   0.000   1.500
 7209SOL     OW23523   3.204  11.456  12.733
 7209SOL    HW123524   3.213  11.363  12.711
 7209SOL    HW223525   3.117  11.479  12.702
 7210SOL     OW23526   8.411  14.101   8.433
 7210SOL    HW123527   8.443  14.019   8.396
 7210SOL    HW223528   8.322  14.109   8.397
 7211SOL     OW23529   7.438  10.465   1.117
 7211SOL    HW123530   7.383  10.420   1.181
 7211SOL    HW223531   7.515  10.493   1.167
 7212SOL     OW23532   8.446   8.931  14.039
 7212SOL    HW123533   8.440   8.838  14.016
 7212SOL    HW223534   8.362   8.950  14.082
 7213SOL     OW23535   1.854  12.383   1.271
 7213SOL    HW123536   1.818  12.295   1.259
 7213SOL    HW223537   1.788  12.430   1.322
 7214SOL     OW23538   3.496  14.810  12.277
 7214SOL    HW123539   3.461  14.870  12.211
 7214SOL    HW223540   3.527  14.734  12.227
 7215SOL     OW23541  13.779   3.063   0.206
 7215SOL    HW123542  13.767   3.126   0.278
 7215SOL    HW223543  13.815   3.116   0.135
 7216SOL     OW23544   5.970  13.482   2.388
 7216SOL    HW123545   5.911  13.540   2.341
 7216SOL    HW223546   5.933  13.394   2.374
 7217SOL     OW23547   8.152   7.073   0.742
 7217SOL    HW123548   8.122   7.020   0.816
 7217SOL    HW223549   8.156   7.011   0.669
 7218SOL     OW23550  13.021   2.294   6.377
 7218SOL    HW123551  13.079   2.369   6.391
 7218SOL    HW223552  12.937   2.333   6.353
 7219SOL     OW23553  12.339  13.529  14.116
 7219SOL    HW123554  12.335  13.553  14.209
 7219SOL    HW223555  12.248  13.510  14.093
 7220SOL     OW23556   1.316   8.427  11.354
 7220SOL    HW123557   1.310   8.431  11.449
 7220SOL    HW223558   1.280   8.511  11.324
 7221SOL     OW23559   7.156   6.276  12.277
 7221SOL    HW123560   7.172   6.339  12.207
 7221SOL    HW223561   7.086   6.220  12.244
 7222SOL     OW23562   3.697   4.528   9.165
 7222SOL    HW123563   3.606   4.558   9.164
 7222SOL    HW223564   3.691   4.433   9.162
 7223SOL     OW23565  12.000   8.326  13.173
 7223SOL    HW123566  12.082   8.328  13.221
 7223SOL    HW223567  11.933   8.316  13.240
 7224SOL     OW23568  14.384   5.679  14.389
 7224SOL    HW123569  14.430   5.763  14.388
 7224SOL    HW223570  14.370   5.658  14.297
 7225SOL     OW23571  12.678  13.637   1.844
 7225SOL    HW123572  12.631  13.573   1.790
 7225SOL    HW223573  12.673  13.718   1.794
 7226SOL     OW23574   0.384   4.560   8.348
 7226SOL    HW123575   0.302   4.589   8.386
 7226SOL    HW223576   0.444   4.552   8.422
 7227SOL     OW23577  12.162   7.546   3.680
 7227SOL    HW123578  12.247   7.501   3.680
 7227SOL    HW223579  12.135   7.545   3.589
 7228SOL     OW23580   8.843   5.825   8.174
 7228SOL    HW123581   8.776   5.792   8.234
 7228SOL    HW223582   8.803   5.901   8.132
 7229SOL     OW23583  14.323  13.820   2.782
 7229SOL    HW123584  14.258  13.888   2.799
 7229SOL    HW223585  14.295  13.746   2.836
 7230SOL     OW23586   3.243   9.881  12.730
 7230SOL    HW123587   3.338   9.892  12.723
 7230SOL    HW223588   3.226   9.796  12.691
 7231SOL     OW23589   5.490   7.719   0.306
 7231SOL    HW123590   5.419   7.775   0.338
 7231SOL    HW223591   5.542   7.699   0.384
 7232SOL     OW23592   3.034   4.757  11.088
 7232SOL    HW123593   2.956   4.748  11.033
 7232SOL    HW223594   3.070   4.668  11.092
 7233SOL     OW23595   5.729   8.519   8.274
 7233SOL    HW123596   5.773   8.437   8.298
 7233SOL    HW223597   5.800   8.581   8.261
 7234SOL     OW23598   4.482   1.330   8.414
 7234SOL    HW123599   4.412   1.379   8.459
 7234SOL    HW223600   4.437   1.282   8.345
 7235SOL     OW23601   1.498   0.005  14.080
 7235SOL    HW123602   1.460   0.021  13.994
 7235SOL    HW223603   1.585   0.046  14.077
 7236SOL     OW23604   4.404   3.975  14.779
 7236SOL    HW123605   4.438   3.976  14.868
 7236SOL    HW223606   4.395   3.882  14.758
 7237SOL     OW23607   7.702   8.428   2.387
 7237SOL    HW123608   7.715   8.469   2.302
 7237SOL    HW223609   7.677   8.500   2.445
 7238SOL     OW23610   2.015   3.422  13.648
 7238SOL    HW123611   2.025   3.447  13.740
 7238SOL    HW223612   1.929   3.381  13.643
 7239SOL     OW23613   3.364   9.416   3.805
 7239SOL    HW123614   3.385   9.503   3.839
 7239SOL    HW223615   3.286   9.429   3.751
 7240SOL     OW23616   2.084  13.292   9.914
 7240SOL    HW123617   2.077  13.338   9.830
 7240SOL    HW223618   2.025  13.217   9.905
 7241SOL     OW23619   7.254   8.270   1.425
 7241SOL    HW123620   7.233   8.343   1.484
 7241SOL    HW223621   7.350   8.266   1.425
 7242SOL     OW23622   3.170  12.167  11.211
 7242SOL    HW123623   3.183  12.174  11.117
 7242SOL    HW223624   3.088  12.214  11.227
 7243SOL     OW23625  14.775   8.153   6.678
 7243SOL    HW123626  14.813   8.228   6.633
 7243SOL    HW223627  14.850   8.098   6.701
 7244SOL     OW23628   6.605  11.507   2.819
 7244SOL    HW123629   6.636  11.573   2.757
 7244SOL    HW223630   6.522  11.477   2.782
 7245SOL     OW23631   4.296   0.033   2.238
 7245SOL    HW123632   4.390   0.052   2.238
 7245SOL    HW223633   4.259   0.098   2.298
 7246SOL     OW23634   9.178  10.532   8.120
 7246SOL    HW123635   9.186  10.510   8.213
 7246SOL    HW223636   9.140  10.620   8.120
 7247SOL     OW23637  14.428   9.560  10.675
 7247SOL    HW123638  14.460   9.609  10.751
 7247SOL    HW223639  14.345   9.523  10.704
 7248SOL     OW23640  14.797  11.291   7.769
 7248SOL    HW123641  14.832  11.381   7.772
 7248SOL    HW223642  14.850  11.243   7.833
 7249SOL     OW23643   9.729  11.984   2.535
 7249SOL    HW123644   9.761  12.071   2.512
 7249SOL    HW223645   9.645  11.976   2.489
 7250SOL     OW23646  14.384  13.879   0.002
 7250SOL    HW123647  14.468  13.863   0.044
 7250SOL    HW223648  14.323  13.891   0.075
 7251SOL     OW23649   0.099   0.151  10.524
 7251SOL    HW123650   0.016   0.197  10.528
 7251SOL    HW223651   0.076   0.059  10.542
 7252SOL     OW23652  13.552   1.552  11.445
 7252SOL    HW123653  13.589   1.617  11.385
 7252SOL    HW223654  13.559   1.593  11.531
 7253SOL     OW23655   1.522   9.504  12.105
 7253SOL    HW123656   1.538   9.593  12.075
 7253SOL    HW223657   1.602   9.479  12.151
 7254SOL     OW23658  13.477   0.786   9.333
 7254SOL    HW123659  13.429   0.706   9.356
 7254SOL    HW223660  13.559   0.779   9.381
 7255SOL     OW23661  11.670   0.302  14.091
 7255SOL    HW123662  11.625   0.307  14.175
 7255SOL    HW223663  11.718   0.219  14.095
 7256SOL     OW23664  10.438  10.631   3.010
 7256SOL    HW123665  10.357  10.618   3.060
 7256SOL    HW223666  10.467  10.543   2.987
 7257SOL     OW23667   2.823   0.039  11.372
 7257SOL    HW123668   2.897   0.066  11.426
 7257SOL    HW223669   2.771  14.861  11.429
 7258SOL     OW23670   2.589  12.058   1.081
 7258SOL    HW123671   2.497  12.055   1.052
 7258SOL    HW223672   2.639  12.052   1.000
 7259SOL     OW23673   6.807   7.076  14.376
 7259SOL    HW123674   6.713   7.084  14.361
 7259SOL    HW223675   6.845   7.156  14.339
 7260SOL     OW23676   9.540   2.406   5.361
 7260SOL    HW123677   9.543   2.473   5.292
 7260SOL    HW223678   9.471   2.434   5.420
 7261SOL     OW23679   3.912  11.401   3.581
 7261SOL    HW123680   3.861  11.353   3.515
 7261SOL    HW223681   3.919  11.489   3.545
 7262SOL     OW23682  12.640   6.796   5.836
 7262SOL    HW123683  12.602   6.863   5.779
 7262SOL    HW223684  12.653   6.720   5.780
 7263SOL     OW23685   8.094   0.907   1.713
 7263SOL    HW123686   8.019   0.881   1.768
 7263SOL    HW223687   8.093   0.845   1.640
 7264SOL     OW23688   5.199   4.990  11.654
 7264SOL    HW123689   5.131   4.940  11.608
 7264SOL    HW223690   5.271   4.996  11.592
 7265SOL     OW23691   8.143   3.248   4.433
 7265SOL    HW123692   8.115   3.297   4.511
 7265SOL    HW223693   8.108   3.298   4.359
 7266SOL     OW23694   7.622   0.323  11.033
 7266SOL    HW123695   7.694   0.279  10.988
 7266SOL    HW223696   7.555   0.255  11.041
 7267SOL     OW23697  13.594  13.190  14.141
 7267SOL    HW123698  13.532  13.121  14.165
 7267SOL    HW223699  13.588  13.197  14.046
 7268SOL     OW23700   8.728  11.623   5.194
 7268SOL    HW123701   8.807  11.569   5.189
 7268SOL    HW223702   8.665  11.578   5.138
 7269SOL     OW23703   6.964   7.619  13.691
 7269SOL    HW123704   6.897   7.604  13.758
 7269SOL    HW223705   7.046   7.591  13.732
 7270SOL     OW23706  10.886   5.504   0.826
 7270SOL    HW123707  10.903   5.410   0.833
 7270SOL    HW223708  10.969   5.542   0.797
 7271SOL     OW23709  10.209  11.448   8.057
 7271SOL    HW123710  10.273  11.422   7.990
 7271SOL    HW223711  10.173  11.365   8.088
 7272SOL     OW23712  13.036  13.111  13.346
 7272SOL    HW123713  13.049  13.123  13.440
 7272SOL    HW223714  13.124  13.111  13.309
 7273SOL     OW23715   4.276  10.346   5.645
 7273SOL    HW123716   4.367  10.323   5.664
 7273SOL    HW223717   4.243  10.274   5.591
 7274SOL     OW23718   5.369   8.807   2.632
 7274SOL    HW123719   5.426   8.833   2.704
 7274SOL    HW223720   5.288   8.779   2.675
 7275SOL     OW23721  11.537   6.967   9.063
 7275SOL    HW123722  11.497   7.015   8.991
 7275SOL    HW223723  11.469   6.907   9.093
 7276SOL     OW23724  10.099  11.345   7.047
 7276SOL    HW123725  10.094  11.253   7.071
 7276SOL    HW223726  10.090  11.346   6.952
 7277SOL     OW23727   1.093  13.937   8.536
 7277SOL    HW123728   1.174  13.915   8.583
 7277SOL    HW223729   1.097  13.886   8.456
 7278SOL     OW23730   6.166  12.922   6.793
 7278SOL    HW123731   6.116  12.846   6.823
 7278SOL    HW223732   6.104  12.995   6.796
 7279SOL     OW23733   9.849  12.739   6.406
 7279SOL    HW123734   9.793  12.767   6.478
 7279SOL    HW223735   9.870  12.820   6.359
 7280SOL     OW23736   2.030   9.179   2.485
 7280SOL    HW123737   2.099   9.237   2.453
 7280SOL    HW223738   2.039   9.181   2.580
 7281SOL     OW23739   7.469  13.446   2.510
 7281SOL    HW123740   7.564  13.444   2.516
 7281SOL    HW223741   7.450  13.513   2.445
 7282SOL     OW23742   4.931  12.977   0.138
 7282SOL    HW123743   4.991  12.916   0.095
 7282SOL    HW223744   4.986  13.049   0.168
 7283SOL     OW23745   2.282  11.885   2.602
 7283SOL    HW123746   2.357  11.945   2.596
 7283SOL    HW223747   2.295  11.824   2.529
 7284SOL     OW23748   5.222   0.604  11.658
 7284SOL    HW123749   5.285   0.537  11.631
 7284SOL    HW223750   5.204   0.652  11.577
 7285SOL     OW23751   5.798  13.041   9.779
 7285SOL    HW123752   5.825  12.971   9.719
 7285SOL    HW223753   5.803  13.002   9.866
 7286SOL     OW23754   8.921   3.737   1.664
 7286SOL    HW123755   8.962   3.661   1.623
 7286SOL    HW223756   8.995   3.789   1.696
 7287SOL     OW23757  10.598   1.342   1.229
 7287SOL    HW123758  10.603   1.295   1.313
 7287SOL    HW223759  10.531   1.408   1.242
 7288SOL     OW23760  14.015   9.463   8.411
 7288SOL    HW123761  14.081   9.525   8.442
 7288SOL    HW223762  13.949   9.517   8.368
 7289SOL     OW23763   9.836   1.822   0.816
 7289SOL    HW123764   9.822   1.772   0.736
 7289SOL    HW223765   9.916   1.785   0.854
 7290SOL     OW23766  11.139   6.549   7.622
 7290SOL    HW123767  11.196   6.597   7.562
 7290SOL    HW223768  11.060   6.531   7.572
 7291SOL     OW23769   5.561   1.364   1.611
 7291SOL    HW123770   5.607   1.446   1.591
 7291SOL    HW223771   5.528   1.377   1.700
 7292SOL     OW23772   6.187   4.813   0.771
 7292SOL    HW123773   6.151   4.857   0.848
 7292SOL    HW223774   6.235   4.882   0.724
 7293SOL     OW23775   5.172  13.216   8.023
 7293SOL    HW123776   5.157  13.239   7.931
 7293SOL    HW223777   5.262  13.245   8.040
 7294SOL     OW23778   8.695   6.121   3.916
 7294SOL    HW123779   8.673   6.096   3.827
 7294SOL    HW223780   8.627   6.080   3.970
 7295SOL     OW23781  13.174   9.253   3.174
 7295SOL    HW123782  13.197   9.327   3.231
 7295SOL    HW223783  13.211   9.177   3.219
 7296SOL     OW23784   9.517   9.506   3.927
 7296SOL    HW123785   9.608   9.485   3.949
 7296SOL    HW223786   9.493   9.576   3.988
 7297SOL     OW23787  11.359   6.173   7.482
 7297SOL    HW123788  11.263   6.169   7.487
 7297SOL    HW223789  11.381   6.130   7.399
 7298SOL     OW23790   5.532   7.705   3.390
 7298SOL    HW123791   5.535   7.676   3.481
 7298SOL    HW223792   5.593   7.648   3.344
 7299SOL     OW23793   4.710   0.319  13.101
 7299SOL    HW123794   4.797   0.287  13.123
 7299SOL    HW223795   4.671   0.248  13.049
 7300SOL     OW23796   8.383   3.139   9.097
 7300SOL    HW123797   8.338   3.056   9.084
 7300SOL    HW223798   8.343   3.199   9.034
 7301SOL     OW23799   9.977   1.082  13.111
 7301SOL    HW123800  10.020   1.155  13.155
 7301SOL    HW223801  10.008   1.087  13.020
 7302SOL     OW23802   1.888   2.171   0.865
 7302SOL    HW123803   1.814   2.231   0.868
 7302SOL    HW223804   1.859   2.094   0.913
 7303SOL     OW23805   4.776  12.378  10.791
 7303SOL    HW123806   4.871  12.382  10.778
 7303SOL    HW223807   4.740  12.426  10.717
 7304SOL     OW23808  11.260   3.569   0.154
 7304SOL    HW123809  11.176   3.574   0.200
 7304SOL    HW223810  11.248   3.624   0.077
 7305SOL     OW23811   0.588  11.269   1.757
 7305SOL    HW123812   0.553  11.180   1.756
 7305SOL    HW223813   0.639  11.275   1.676
 7306SOL     OW23814   5.279   2.775   7.959
 7306SOL    HW123815   5.362   2.731   7.941
 7306SOL    HW223816   5.214   2.723   7.911
 7307SOL     OW23817   1.671  13.750  12.931
 7307SOL    HW123818   1.763  13.723  12.927
 7307SOL    HW223819   1.659  13.782  13.020
 7308SOL     OW23820   2.131   9.074   6.403
 7308SOL    HW123821   2.121   9.077   6.498
 7308SOL    HW223822   2.222   9.046   6.391
 7309SOL     OW23823   5.344   1.706  13.461
 7309SOL    HW123824   5.372   1.797  13.474
 7309SOL    HW223825   5.304   1.705  13.375
 7310SOL     OW23826  14.642   2.480   9.298
 7310SOL    HW123827  14.704   2.463   9.369
 7310SOL    HW223828  14.577   2.410   9.306
 7311SOL     OW23829  14.768   1.948  11.564
 7311SOL    HW123830  14.720   1.997  11.631
 7311SOL    HW223831  14.844   2.002  11.544
 7312SOL     OW23832   2.409   2.556   8.000
 7312SOL    HW123833   2.448   2.632   7.956
 7312SOL    HW223834   2.467   2.483   7.977
 7313SOL     OW23835   8.586   0.712  12.346
 7313SOL    HW123836   8.578   0.804  12.372
 7313SOL    HW223837   8.673   0.687  12.377
 7314SOL     OW23838   0.287   3.371   6.178
 7314SOL    HW123839   0.239   3.344   6.256
 7314SOL    HW223840   0.346   3.297   6.160
 7315SOL     OW23841   9.846  12.275   3.884
 7315SOL    HW123842   9.828  12.222   3.807
 7315SOL    HW223843   9.940  12.264   3.899
 7316SOL     OW23844   9.082   5.190   3.412
 7316SOL    HW123845   9.161   5.174   3.464
 7316SOL    HW223846   9.026   5.243   3.469
 7317SOL     OW23847   0.084   5.911   2.171
 7317SOL    HW123848   0.100   5.927   2.078
 7317SOL    HW223849   0.091   5.816   2.180
 7318SOL     OW23850   4.824  10.311   8.461
 7318SOL    HW123851   4.756  10.244   8.453
 7318SOL    HW223852   4.812  10.367   8.385
 7319SOL     OW23853   6.070  14.399  10.243
 7319SOL    HW123854   6.152  14.433  10.279
 7319SOL    HW223855   6.086  14.305  10.233
 7320SOL     OW23856  12.726   3.340   6.402
 7320SOL    HW123857  12.820   3.337   6.383
 7320SOL    HW223858  12.685   3.307   6.322
 7321SOL     OW23859   3.061  12.792   9.614
 7321SOL    HW123860   3.090  12.707   9.581
 7321SOL    HW223861   3.048  12.845   9.535
 7322SOL     OW23862   7.541   1.728   7.623
 7322SOL    HW123863   7.452   1.764   7.625
 7322SOL    HW223864   7.561   1.719   7.530
 7323SOL     OW23865   0.322  14.437   3.838
 7323SOL    HW123866   0.324  14.345   3.863
 7323SOL    HW223867   0.258  14.441   3.767
 7324SOL     OW23868   8.246   3.925  12.722
 7324SOL    HW123869   8.207   3.961  12.642
 7324SOL    HW223870   8.224   3.832  12.720
 7325SOL     OW23871   4.884   1.485   1.117
 7325SOL    HW123872   4.890   1.486   1.212
 7325SOL    HW223873   4.794   1.458   1.099
 7326SOL     OW23874  13.552  13.880   8.576
 7326SOL    HW123875  13.559  13.975   8.575
 7326SOL    HW223876  13.626  13.850   8.629
 7327SOL     OW23877   9.966   0.817   4.407
 7327SOL    HW123878  10.059   0.836   4.403
 7327SOL    HW223879   9.961   0.721   4.403
 7328SOL     OW23880   6.595   3.201  11.754
 7328SOL    HW123881   6.668   3.256  11.782
 7328SOL    HW223882   6.575   3.232  11.665
 7329SOL     OW23883  12.002  12.823   4.673
 7329SOL    HW123884  12.045  12.796   4.755
 7329SOL    HW223885  11.909  12.827   4.695
 7330SOL     OW23886  10.657  11.775   2.134
 7330SOL    HW123887  10.656  11.867   2.109
 7330SOL    HW223888  10.741  11.742   2.102
 7331SOL     OW23889  12.515   7.027   9.054
 7331SOL    HW123890  12.542   6.949   9.104
 7331SOL    HW223891  12.596   7.057   9.013
 7332SOL     OW23892  12.009   4.768  14.213
 7332SOL    HW123893  12.035   4.679  14.192
 7332SOL    HW223894  12.073   4.797  14.277
 7333SOL     OW23895   9.022   7.191   3.610
 7333SOL    HW123896   8.936   7.200   3.651
 7333SOL    HW223897   9.083   7.191   3.683
 7334SOL     OW23898  12.073   3.364  11.466
 7334SOL    HW123899  11.984   3.397  11.476
 7334SOL    HW223900  12.066   3.299  11.395
 7335SOL     OW23901   9.642   4.971   8.317
 7335SOL    HW123902   9.705   5.035   8.285
 7335SOL    HW223903   9.634   4.988   8.411
 7336SOL     OW23904  10.359   3.878  10.488
 7336SOL    HW123905  10.333   3.850  10.576
 7336SOL    HW223906  10.454   3.888  10.493
 7337SOL     OW23907  13.809  12.082   8.979
 7337SOL    HW123908  13.739  12.102   8.917
 7337SOL    HW223909  13.782  11.999   9.019
 7338SOL     OW23910  10.093   2.461   2.421
 7338SOL    HW123911  10.026   2.399   2.451
 7338SOL    HW223912  10.164   2.406   2.390
 7339SOL     OW23913   6.792  14.607   9.430
 7339SOL    HW123914   6.775  14.540   9.496
 7339SOL    HW223915   6.885  14.627   9.439
 7340SOL     OW23916   4.179   8.087   4.027
 7340SOL    HW123917   4.238   8.055   3.959
 7340SOL    HW223918   4.159   8.010   4.080
 7341SOL     OW23919  12.493   3.931  14.185
 7341SOL    HW123920  12.473   3.860  14.125
 7341SOL    HW223921  12.409   3.974  14.200
 7342SOL     OW23922   3.685  13.484   9.218
 7342SOL    HW123923   3.666  13.475   9.125
 7342SOL    HW223924   3.714  13.397   9.245
 7343SOL     OW23925   9.467  13.365   2.815
 7343SOL    HW123926   9.417  13.375   2.896
 7343SOL    HW223927   9.433  13.284   2.776
 7344SOL     OW23928   3.825   3.230   4.685
 7344SOL    HW123929   3.780   3.286   4.748
 7344SOL    HW223930   3.894   3.188   4.736
 7345SOL     OW23931  12.431   6.739  13.947
 7345SOL    HW123932  12.502   6.728  13.884
 7345SOL    HW223933  12.353   6.711  13.901
 7346SOL     OW23934  10.147   0.507  12.719
 7346SOL    HW123935  10.173   0.487  12.629
 7346SOL    HW223936  10.197   0.586  12.741
 7347SOL     OW23937   1.449   9.257   8.231
 7347SOL    HW123938   1.544   9.265   8.220
 7347SOL    HW223939   1.416   9.346   8.223
 7348SOL     OW23940  12.444  10.359  14.251
 7348SOL    HW123941  12.379  10.333  14.185
 7348SOL    HW223942  12.512  10.404  14.201
 7349SOL     OW23943   5.697   3.571  12.530
 7349SOL    HW123944   5.657   3.507  12.589
 7349SOL    HW223945   5.776   3.528  12.498
 7350SOL     OW23946  10.436   8.192   6.862
 7350SOL    HW123947  10.386   8.197   6.943
 7350SOL    HW223948  10.525   8.169   6.890
 7351SOL     OW23949   2.035   1.000  10.263
 7351SOL    HW123950   2.026   0.992  10.168
 7351SOL    HW223951   1.974   1.069  10.288
 7352SOL     OW23952   9.460   0.256   4.123
 7352SOL    HW123953   9.489   0.316   4.055
 7352SOL    HW223954   9.372   0.231   4.097
 7353SOL     OW23955   7.300  14.681  10.055
 7353SOL    HW123956   7.291  14.588  10.034
 7353SOL    HW223957   7.233  14.724  10.001
 7354SOL     OW23958  11.569  11.126   9.233
 7354SOL    HW123959  11.621  11.094   9.306
 7354SOL    HW223960  11.620  11.197   9.195
 7355SOL     OW23961   1.016   9.794  11.604
 7355SOL    HW123962   1.092   9.763  11.653
 7355SOL    HW223963   1.050   9.817  11.518
 7356SOL     OW23964  11.129  10.374   4.396
 7356SOL    HW123965  11.151  10.410   4.482
 7356SOL    HW223966  11.116  10.451   4.340
 7357SOL     OW23967  13.987   8.737   0.218
 7357SOL    HW123968  13.971   8.695   0.302
 7357SOL    HW223969  14.050   8.806   0.237
 7358SOL     OW23970  12.051  12.148   6.623
 7358SOL    HW123971  11.976  12.168   6.568
 7358SOL    HW223972  12.037  12.199   6.703
 7359SOL     OW23973  11.947  12.385  12.602
 7359SOL    HW123974  11.989  12.328  12.537
 7359SOL    HW223975  11.920  12.462  12.553
 7360SOL     OW23976  11.582   7.719  13.241
 7360SOL    HW123977  11.656   7.738  13.184
 7360SOL    HW223978  11.527   7.659  13.190
 7361SOL     OW23979   9.493   0.695   0.549
 7361SOL    HW123980   9.576   0.714   0.594
 7361SOL    HW223981   9.518   0.634   0.479
 7362SOL     OW23982  11.102   9.629  12.146
 7362SOL    HW123983  11.122   9.657  12.057
 7362SOL    HW223984  11.021   9.674  12.169
 7363SOL     OW23985  14.325   2.580   5.443
 7363SOL    HW123986  14.230   2.564   5.444
 7363SOL    HW223987  14.351   2.566   5.353
 7364SOL     OW23988  12.706   1.234   8.556
 7364SOL    HW123989  12.645   1.182   8.607
 7364SOL    HW223990  12.661   1.318   8.541
 7365SOL     OW23991  11.887   2.983   1.215
 7365SOL    HW123992  11.853   3.025   1.295
 7365SOL    HW223993  11.901   2.892   1.240
 7366SOL     OW23994  12.179   8.450  13.905
 7366SOL    HW123995  12.211   8.360  13.907
 7366SOL    HW223996  12.234   8.496  13.968
 7367SOL     OW23997  13.160   1.551   0.288
 7367SOL    HW123998  13.163   1.525   0.380
 7367SOL    HW223999  13.181   1.472   0.240
 7368SOL     OW24000  10.852   2.435  11.743
 7368SOL    HW124001  10.804   2.387  11.811
 7368SOL    HW224002  10.851   2.376  11.667
 7369SOL     OW24003   7.579  11.554   8.065
 7369SOL    HW124004   7.587  11.631   8.121
 7369SOL    HW224005   7.668  11.518   8.060
 7370SOL     OW24006   9.567   7.408   9.795
 7370SOL    HW124007   9.540   7.466   9.724
 7370SOL    HW224008   9.641   7.452   9.836
 7371SOL     OW24009   5.871  12.338   3.115
 7371SOL    HW124010   5.812  12.272   3.080
 7371SOL    HW224011   5.835  12.359   3.201
 7372SOL     OW24012   2.158   3.408   1.038
 7372SOL    HW124013   2.070   3.437   1.061
 7372SOL    HW224014   2.215   3.477   1.071
 7373SOL     OW24015   5.864   0.064   5.070
 7373SOL    HW124016   5.950   0.098   5.094
 7373SOL    HW224017   5.836   0.011   5.145
 7374SOL     OW24018  13.804   5.009  13.601
 7374SOL    HW124019  13.846   4.923  13.603
 7374SOL    HW224020  13.775   5.019  13.510
 7375SOL     OW24021   3.674  11.980   6.906
 7375SOL    HW124022   3.742  11.984   6.972
 7375SOL    HW224023   3.712  11.929   6.835
 7376SOL     OW24024   4.904   5.949   0.969
 7376SOL    HW124025   4.849   5.983   1.039
 7376SOL    HW224026   4.853   5.878   0.930
 7377SOL     OW24027   6.975   7.229   9.251
 7377SOL    HW124028   7.066   7.202   9.245
 7377SOL    HW224029   6.977   7.316   9.291
 7378SOL     OW24030   8.822   1.611  11.729
 7378SOL    HW124031   8.879   1.586  11.656
 7378SOL    HW224032   8.821   1.706  11.728
 7379SOL     OW24033   2.177  14.215   1.773
 7379SOL    HW124034   2.140  14.295   1.737
 7379SOL    HW224035   2.268  14.214   1.743
 7380SOL     OW24036  14.758   2.817   6.295
 7380SOL    HW124037  14.740   2.789   6.206
 7380SOL    HW224038  14.821   2.888   6.285
 7381SOL     OW24039  12.849  10.943  13.180
 7381SOL    HW124040  12.901  10.957  13.259
 7381SOL    HW224041  12.859  11.023  13.129
 7382SOL     OW24042  10.923   9.950  13.361
 7382SOL    HW124043  10.892   9.861  13.340
 7382SOL    HW224044  10.932   9.992  13.276
 7383SOL     OW24045   2.477  14.460  14.513
 7383SOL    HW124046   2.439  14.548  14.517
 7383SOL    HW224047   2.410  14.403  14.551
 7384SOL     OW24048  13.131   2.111   8.727
 7384SOL    HW124049  13.199   2.044   8.734
 7384SOL    HW224050  13.049   2.062   8.723
 7385SOL     OW24051  12.906   2.510   0.213
 7385SOL    HW124052  12.945   2.561   0.142
 7385SOL    HW224053  12.978   2.493   0.273
 7386SOL     OW24054  13.053   2.908   0.459
 7386SOL    HW124055  13.141   2.943   0.476
 7386SOL    HW224056  13.008   2.914   0.543
 7387SOL     OW24057   5.871   9.979   7.772
 7387SOL    HW124058   5.904  10.024   7.849
 7387SOL    HW224059   5.942   9.985   7.708
 7388SOL     OW24060   9.087   4.630   9.207
 7388SOL    HW124061   9.065   4.578   9.285
 7388SOL    HW224062   9.082   4.568   9.134
 7389SOL     OW24063   1.776  10.562  11.538
 7389SOL    HW124064   1.780  10.639  11.482
 7389SOL    HW224065   1.728  10.590  11.615
 7390SOL     OW24066   0.150   6.236   6.205
 7390SOL    HW124067   0.234   6.204   6.239
 7390SOL    HW224068   0.084   6.195   6.261
 7391SOL     OW24069   1.864   1.870   6.286
 7391SOL    HW124070   1.825   1.957   6.294
 7391SOL    HW224071   1.789   1.811   6.276
 7392SOL     OW24072   7.038   7.168  12.803
 7392SOL    HW124073   7.036   7.164  12.899
 7392SOL    HW224074   6.958   7.215  12.779
 7393SOL     OW24075   4.129   2.767   1.818
 7393SOL    HW124076   4.175   2.822   1.755
 7393SOL    HW224077   4.184   2.769   1.896
 7394SOL     OW24078   6.891  12.440   4.814
 7394SOL    HW124079   6.838  12.446   4.735
 7394SOL    HW224080   6.827  12.439   4.886
 7395SOL     OW24081  14.804   1.262   6.414
 7395SOL    HW124082  14.808   1.352   6.446
 7395SOL    HW224083  14.821   1.208   6.491
 7396SOL     OW24084  10.046   8.958   7.592
 7396SOL    HW124085  10.073   8.908   7.515
 7396SOL    HW224086  10.125   8.966   7.645
 7397SOL     OW24087   2.960   9.127  12.291
 7397SOL    HW124088   2.982   9.044  12.247
 7397SOL    HW224089   2.999   9.119  12.378
 7398SOL     OW24090  10.925  14.117  13.732
 7398SOL    HW124091  10.977  14.099  13.654
 7398SOL    HW224092  10.913  14.212  13.732
 7399SOL     OW24093   9.267  10.667  10.952
 7399SOL    HW124094   9.244  10.664  11.045
 7399SOL    HW224095   9.183  10.673  10.907
 7400SOL     OW24096   6.720   4.089  10.896
 7400SOL    HW124097   6.766   4.172  10.907
 7400SOL    HW224098   6.630   4.108  10.920
 7401SOL     OW24099   8.362   3.028  13.420
 7401SOL    HW124100   8.453   3.012  13.444
 7401SOL    HW224101   8.318   3.048  13.502
 7402SOL     OW24102  13.758  11.200  14.595
 7402SOL    HW124103  13.686  11.181  14.654
 7402SOL    HW224104  13.830  11.227  14.652
 7403SOL     OW24105   1.742   2.552  14.662
 7403SOL    HW124106   1.661   2.595  14.636
 7403SOL    HW224107   1.809   2.620  14.654
 7404SOL     OW24108   6.675   5.245  11.044
 7404SOL    HW124109   6.768   5.229  11.062
 7404SOL    HW224110   6.630   5.204  11.118
 7405SOL     OW24111   9.141   7.605  10.632
 7405SOL    HW124112   9.050   7.619  10.659
 7405SOL    HW224113   9.192   7.668  10.683
 7406SOL     OW24114   9.695  11.813   5.976
 7406SOL    HW124115   9.709  11.762   5.897
 7406SOL    HW224116   9.783  11.829   6.010
 7407SOL     OW24117   1.850  12.233  13.829
 7407SOL    HW124118   1.875  12.270  13.914
 7407SOL    HW224119   1.933  12.215  13.786
 7408SOL     OW24120  11.040   6.574   6.481
 7408SOL    HW124121  11.013   6.658   6.518
 7408SOL    HW224122  11.083   6.529   6.554
 7409SOL     OW24123   9.801   9.340   4.246
 7409SOL    HW124124   9.755   9.378   4.171
 7409SOL    HW224125   9.872   9.402   4.265
 7410SOL     OW24126   5.395  11.751  13.086
 7410SOL    HW124127   5.343  11.823  13.121
 7410SOL    HW224128   5.451  11.792  13.019
 7411SOL     OW24129   1.728   9.181   3.950
 7411SOL    HW124130   1.634   9.165   3.938
 7411SOL    HW224131   1.742   9.169   4.044
 7412SOL     OW24132   6.897   0.979   2.511
 7412SOL    HW124133   6.880   1.026   2.430
 7412SOL    HW224134   6.972   1.022   2.550
 7413SOL     OW24135   7.235   3.732   4.002
 7413SOL    HW124136   7.309   3.752   4.059
 7413SOL    HW224137   7.214   3.815   3.959
 7414SOL     OW24138   0.882  13.751   8.214
 7414SOL    HW124139   0.939  13.676   8.193
 7414SOL    HW224140   0.931  13.827   8.183
 7415SOL     OW24141   5.851   3.502  11.228
 7415SOL    HW124142   5.894   3.521  11.312
 7415SOL    HW224143   5.787   3.434  11.249
 7416SOL     OW24144  13.409  13.083   4.540
 7416SOL    HW124145  13.446  13.068   4.626
 7416SOL    HW224146  13.400  13.178   4.533
 7417SOL     OW24147   8.323   8.206   3.005
 7417SOL    HW124148   8.336   8.242   3.093
 7417SOL    HW224149   8.282   8.278   2.956
 7418SOL     OW24150   4.624   1.748  11.783
 7418SOL    HW124151   4.636   1.842  11.792
 7418SOL    HW224152   4.692   1.720  11.722
 7419SOL     OW24153   9.826   2.532   5.994
 7419SOL    HW124154   9.883   2.458   5.973
 7419SOL    HW224155   9.739   2.494   6.006
 7420SOL     OW24156   0.436  11.434   7.441
 7420SOL    HW124157   0.492  11.363   7.473
 7420SOL    HW224158   0.373  11.448   7.511
 7421SOL     OW24159   7.740  12.945   3.028
 7421SOL    HW124160   7.814  12.908   2.981
 7421SOL    HW224161   7.664  12.928   2.972
 7422SOL     OW24162   9.303   2.168   8.963
 7422SOL    HW124163   9.339   2.102   8.903
 7422SOL    HW224164   9.348   2.153   9.046
 7423SOL     OW24165  14.450  10.703   5.001
 7423SOL    HW124166  14.373  10.667   4.957
 7423SOL    HW224167  14.432  10.692   5.095
 7424SOL     OW24168   7.129   9.809   7.215
 7424SOL    HW124169   7.124   9.781   7.124
 7424SOL    HW224170   7.138   9.728   7.265
 7425SOL     OW24171  10.431   5.748  13.476
 7425SOL    HW124172  10.467   5.678  13.531
 7425SOL    HW224173  10.404   5.815  13.538
 7426SOL     OW24174   5.155   9.288  12.793
 7426SOL    HW124175   5.089   9.345  12.754
 7426SOL    HW224176   5.194   9.242  12.719
 7427SOL     OW24177  14.298   2.484  13.580
 7427SOL    HW124178  14.281   2.567  13.624
 7427SOL    HW224179  14.350   2.508  13.503
 7428SOL     OW24180   0.384   7.336   7.061
 7428SOL    HW124181   0.374   7.376   7.147
 7428SOL    HW224182   0.374   7.242   7.076
 7429SOL     OW24183   0.265   9.347   1.039
 7429SOL    HW124184   0.284   9.324   0.948
 7429SOL    HW224185   0.337   9.310   1.089
 7430SOL     OW24186   7.968  11.648  11.344
 7430SOL    HW124187   7.873  11.655  11.355
 7430SOL    HW224188   7.980  11.580  11.278
 7431SOL     OW24189  13.528  11.585   8.706
 7431SOL    HW124190  13.469  11.584   8.631
 7431SOL    HW224191  13.491  11.649   8.766
 7432SOL     OW24192   4.830   6.003   3.519
 7432SOL    HW124193   4.836   6.048   3.435
 7432SOL    HW224194   4.759   6.048   3.565
 7433SOL     OW24195   7.685  13.222   6.255
 7433SOL    HW124196   7.657  13.291   6.316
 7433SOL    HW224197   7.720  13.153   6.312
 7434SOL     OW24198   3.600   0.707  10.871
 7434SOL    HW124199   3.653   0.646  10.922
 7434SOL    HW224200   3.655   0.785  10.862
 7435SOL     OW24201  10.693  10.047  14.600
 7435SOL    HW124202  10.765  10.021  14.543
 7435SOL    HW224203  10.662   9.965  14.639
 7436SOL     OW24204  11.632   3.615   3.090
 7436SOL    HW124205  11.687   3.623   3.169
 7436SOL    HW224206  11.689   3.571   3.026
 7437SOL     OW24207   3.625   2.485   8.988
 7437SOL    HW124208   3.543   2.491   8.939
 7437SOL    HW224209   3.685   2.543   8.942
 7438SOL     OW24210  11.487  14.348   9.478
 7438SOL    HW124211  11.425  14.421   9.472
 7438SOL    HW224212  11.573  14.390   9.484
 7439SOL     OW24213   3.900   8.720  14.390
 7439SOL    HW124214   3.888   8.646  14.450
 7439SOL    HW224215   3.985   8.705  14.350
 7440SOL     OW24216  13.396  12.933   3.852
 7440SOL    HW124217  13.433  12.919   3.939
 7440SOL    HW224218  13.310  12.891   3.855
 7441SOL     OW24219   6.307   1.456   7.811
 7441SOL    HW124220   6.250   1.525   7.777
 7441SOL    HW224221   6.362   1.501   7.875
 7442SOL     OW24222   1.274   4.839  10.033
 7442SOL    HW124223   1.208   4.908  10.037
 7442SOL    HW224224   1.229   4.760  10.063
 7443SOL     OW24225   3.537   6.301   2.330
 7443SOL    HW124226   3.630   6.309   2.309
 7443SOL    HW224227   3.524   6.358   2.406
 7444SOL     OW24228  10.760   3.366  12.620
 7444SOL    HW124229  10.813   3.332  12.692
 7444SOL    HW224230  10.692   3.300  12.606
 7445SOL     OW24231  14.611   3.902  11.468
 7445SOL    HW124232  14.677   3.867  11.408
 7445SOL    HW224233  14.544   3.833  11.472
 7446SOL     OW24234  13.511  12.336   7.315
 7446SOL    HW124235  13.456  12.409   7.285
 7446SOL    HW224236  13.489  12.327   7.408
 7447SOL     OW24237   4.398   9.554   2.083
 7447SOL    HW124238   4.448   9.485   2.127
 7447SOL    HW224239   4.459   9.627   2.075
 7448SOL     OW24240   2.678   3.012  10.948
 7448SOL    HW124241   2.589   3.040  10.970
 7448SOL    HW224242   2.687   3.032  10.855
 7449SOL     OW24243  14.364   0.328  11.948
 7449SOL    HW124244  14.336   0.237  11.940
 7449SOL    HW224245  14.458   0.327  11.931
 7450SOL     OW24246   2.484   4.449  13.314
 7450SOL    HW124247   2.532   4.471  13.394
 7450SOL    HW224248   2.398   4.491  13.326
 7451SOL     OW24249   2.448   0.683   0.668
 7451SOL    HW124250   2.531   0.689   0.714
 7451SOL    HW224251   2.403   0.608   0.707
 7452SOL     OW24252  11.649  11.151  13.431
 7452SOL    HW124253  11.681  11.067  13.464
 7452SOL    HW224254  11.581  11.128  13.367
 7453SOL     OW24255  14.690   8.340   2.859
 7453SOL    HW124256  14.679   8.250   2.828
 7453SOL    HW224257  14.603   8.380   2.848
 7454SOL     OW24258  14.508   3.083   6.310
 7454SOL    HW124259  14.507   3.076   6.405
 7454SOL    HW224260  14.416   3.074   6.285
 7455SOL     OW24261   1.791   8.273   3.858
 7455SOL    HW124262   1.794   8.187   3.817
 7455SOL    HW224263   1.767   8.333   3.787
 7456SOL     OW24264  14.674   5.082   2.448
 7456SOL    HW124265  14.754   5.133   2.439
 7456SOL    HW224266  14.705   4.991   2.454
 7457SOL     OW24267   1.240   3.625   1.297
 7457SOL    HW124268   1.168   3.688   1.296
 7457SOL    HW224269   1.259   3.608   1.205
 7458SOL     OW24270   5.502   2.326   0.172
 7458SOL    HW124271   5.536   2.274   0.244
 7458SOL    HW224272   5.436   2.269   0.131
 7459SOL     OW24273   4.222   5.906   6.788
 7459SOL    HW124274   4.283   5.842   6.823
 7459SOL    HW224275   4.137   5.879   6.823
 7460SOL     OW24276   7.228   1.019  14.159
 7460SOL    HW124277   7.237   1.091  14.222
 7460SOL    HW224278   7.176   0.953  14.206
 7461SOL     OW24279  12.033  13.905   3.942
 7461SOL    HW124280  12.024  13.818   3.902
 7461SOL    HW224281  12.126  13.927   3.931
 7462SOL     OW24282  13.865   7.568  10.532
 7462SOL    HW124283  13.819   7.606  10.457
 7462SOL    HW224284  13.932   7.512  10.493
 7463SOL     OW24285   3.971   1.214   5.615
 7463SOL    HW124286   3.881   1.246   5.626
 7463SOL    HW224287   3.962   1.130   5.569
 7464SOL     OW24288   1.556  14.342  11.741
 7464SOL    HW124289   1.476  14.290  11.753
 7464SOL    HW224290   1.614  14.312  11.810
 7465SOL     OW24291   9.630  12.930  12.600
 7465SOL    HW124292   9.651  12.973  12.517
 7465SOL    HW224293   9.555  12.873  12.579
 7466SOL     OW24294  12.168   9.743   0.779
 7466SOL    HW124295  12.239   9.770   0.837
 7466SOL    HW224296  12.089   9.775   0.822
 7467SOL     OW24297  12.806   7.648   2.651
 7467SOL    HW124298  12.886   7.631   2.601
 7467SOL    HW224299  12.735   7.640   2.588
 7468SOL     OW24300   7.286  14.479   3.263
 7468SOL    HW124301   7.281  14.416   3.335
 7468SOL    HW224302   7.291  14.425   3.184
 7469SOL     OW24303   4.581  13.088  12.852
 7469SOL    HW124304   4.675  13.095  12.873
 7469SOL    HW224305   4.548  13.022  12.913
 7470SOL     OW24306   6.476  12.444   1.012
 7470SOL    HW124307   6.508  12.376   0.953
 7470SOL    HW224308   6.388  12.415   1.037
 7471SOL     OW24309   6.264  11.450  11.114
 7471SOL    HW124310   6.175  11.450  11.079
 7471SOL    HW224311   6.320  11.438  11.038
 7472SOL     OW24312  13.224   5.094  11.484
 7472SOL    HW124313  13.244   5.022  11.424
 7472SOL    HW224314  13.140   5.072  11.522
 7473SOL     OW24315   0.132   0.163   2.614
 7473SOL    HW124316   0.192   0.096   2.647
 7473SOL    HW224317   0.056   0.158   2.672
 7474SOL     OW24318   8.546  13.694   5.851
 7474SOL    HW124319   8.542  13.603   5.820
 7474SOL    HW224320   8.602  13.739   5.788
 7475SOL     OW24321  14.303   4.100   6.599
 7475SOL    HW124322  14.285   4.060   6.514
 7475SOL    HW224323  14.265   4.040   6.663
 7476SOL     OW24324  13.800   7.811  13.661
 7476SOL    HW124325  13.752   7.780  13.739
 7476SOL    HW224326  13.739   7.800  13.589
 7477SOL     OW24327  12.856   3.064  13.190
 7477SOL    HW124328  12.931   3.116  13.161
 7477SOL    HW224329  12.796   3.128  13.228
 7478SOL     OW24330  11.624  12.657   5.419
 7478SOL    HW124331  11.656  12.747   5.414
 7478SOL    HW224332  11.590  12.648   5.509
 7479SOL     OW24333   9.732   5.346   3.923
 7479SOL    HW124334   9.695   5.290   3.991
 7479SOL    HW224335   9.802   5.293   3.884
 7480SOL     OW24336   3.034   5.090   4.217
 7480SOL    HW124337   3.083   5.051   4.290
 7480SOL    HW224338   2.998   5.171   4.253
 7481SOL     OW24339   0.648   1.363   3.818
 7481SOL    HW124340   0.605   1.345   3.735
 7481SOL    HW224341   0.576   1.366   3.882
 7482SOL     OW24342  13.974   1.895  13.487
 7482SOL    HW124343  13.902   1.954  13.508
 7482SOL    HW224344  13.937   1.807  13.500
 7483SOL     OW24345   4.211  13.654   9.904
 7483SOL    HW124346   4.285  13.604   9.868
 7483SOL    HW224347   4.227  13.654   9.999
 7484SOL     OW24348   5.207   2.916   6.181
 7484SOL    HW124349   5.210   2.981   6.251
 7484SOL    HW224350   5.115   2.888   6.179
 7485SOL     OW24351  13.692  14.368  12.101
 7485SOL    HW124352  13.730  14.281  12.114
 7485SOL    HW224353  13.597  14.352  12.105
 7486SOL     OW24354  10.999   9.808   0.521
 7486SOL    HW124355  10.972   9.737   0.464
 7486SOL    HW224356  10.957   9.886   0.484
 7487SOL     OW24357  11.296  13.349   2.439
 7487SOL    HW124358  11.369  13.404   2.410
 7487SOL    HW224359  11.225  13.410   2.459
 7488SOL     OW24360  12.742  13.396  14.735
 7488SOL    HW124361  12.668  13.375  14.792
 7488SOL    HW224362  12.808  13.330  14.755
 7489SOL     OW24363   2.919   1.283   6.942
 7489SOL    HW124364   2.954   1.194   6.951
 7489SOL    HW224365   2.995   1.340   6.951
 7490SOL     OW24366   7.453   1.718   0.731
 7490SOL    HW124367   7.447   1.792   0.791
 7490SOL    HW224368   7.366   1.678   0.733
 7491SOL     OW24369  10.762   5.923  13.562
 7491SOL    HW124370  10.808   5.865  13.622
 7491SOL    HW224371  10.831   5.964  13.510
 7492SOL     OW24372   2.265   6.744   6.864
 7492SOL    HW124373   2.226   6.781   6.943
 7492SOL    HW224374   2.191   6.717   6.811
 7493SOL     OW24375   9.542  11.440   9.549
 7493SOL    HW124376   9.630  11.465   9.577
 7493SOL    HW224377   9.544  11.446   9.454
 7494SOL     OW24378  13.627  13.503  10.663
 7494SOL    HW124379  13.700  13.563  10.677
 7494SOL    HW224380  13.589  13.490  10.750
 7495SOL     OW24381  10.248   9.514  14.033
 7495SOL    HW124382  10.235   9.461  13.954
 7495SOL    HW224383  10.270   9.451  14.101
 7496SOL     OW24384   2.626  12.336   3.747
 7496SOL    HW124385   2.580  12.418   3.763
 7496SOL    HW224386   2.708  12.343   3.795
 7497SOL     OW24387   5.418   7.855   4.156
 7497SOL    HW124388   5.414   7.790   4.226
 7497SOL    HW224389   5.326   7.870   4.132
 7498SOL     OW24390  14.386  11.294   5.767
 7498SOL    HW124391  14.466  11.243   5.778
 7498SOL    HW224392  14.406  11.378   5.808
 7499SOL     OW24393  13.197   3.170  12.918
 7499SOL    HW124394  13.286   3.202  12.905
 7499SOL    HW224395  13.177   3.123  12.837
 7500SOL     OW24396   5.384  11.002  10.490
 7500SOL    HW124397   5.443  10.929  10.506
 7500SOL    HW224398   5.418  11.073  10.544
 7501SOL     OW24399  12.362  11.397   0.190
 7501SOL    HW124400  12.454  11.397   0.164
 7501SOL    HW224401  12.320  11.458   0.128
 7502SOL     OW24402  11.761  11.780   4.447
 7502SOL    HW124403  11.856  11.777   4.440
 7502SOL    HW224404  11.732  11.697   4.408
 7503SOL     OW24405   7.875   6.979   6.369
 7503SOL    HW124406   7.921   6.969   6.286
 7503SOL    HW224407   7.917   6.917   6.428
 7504SOL     OW24408   5.226  13.313   5.915
 7504SOL    HW124409   5.179  13.378   5.863
 7504SOL    HW224410   5.318  13.324   5.891
 7505SOL     OW24411  13.529  10.020   5.654
 7505SOL    HW124412  13.606   9.976   5.691
 7505SOL    HW224413  13.560  10.107   5.629
 7506SOL     OW24414   9.037  12.675   3.821
 7506SOL    HW124415   9.073  12.595   3.783
 7506SOL    HW224416   8.997  12.721   3.747
 7507SOL     OW24417   6.762  13.156  13.109
 7507SOL    HW124418   6.854  13.152  13.083
 7507SOL    HW224419   6.719  13.201  13.036
 7508SOL     OW24420  11.099   7.322  11.895
 7508SOL    HW124421  11.165   7.382  11.859
 7508SOL    HW224422  11.021   7.338  11.844
 7509SOL     OW24423   3.863   7.161  14.189
 7509SOL    HW124424   3.805   7.196  14.256
 7509SOL    HW224425   3.950   7.192  14.214
 7510SOL     OW24426  14.618  12.167   8.752
 7510SOL    HW124427  14.523  12.164   8.744
 7510SOL    HW224428  14.635  12.145   8.844
 7511SOL     OW24429  11.457   8.398  12.175
 7511SOL    HW124430  11.534   8.404  12.232
 7511SOL    HW224431  11.387   8.439  12.226
 7512SOL     OW24432   0.818  13.750   2.211
 7512SOL    HW124433   0.775  13.810   2.271
 7512SOL    HW224434   0.792  13.663   2.242
 7513SOL     OW24435   0.685   3.999   8.442
 7513SOL    HW124436   0.641   3.922   8.476
 7513SOL    HW224437   0.777   3.986   8.464
 7514SOL     OW24438  14.205   6.162  13.033
 7514SOL    HW124439  14.190   6.104  13.108
 7514SOL    HW224440  14.193   6.250  13.068
 7515SOL     OW24441  14.320   6.954   4.520
 7515SOL    HW124442  14.371   6.950   4.439
 7515SOL    HW224443  14.359   7.027   4.569
 7516SOL     OW24444   8.650   0.608  10.714
 7516SOL    HW124445   8.655   0.555  10.634
 7516SOL    HW224446   8.640   0.544  10.784
 7517SOL     OW24447   7.169   8.428  12.548
 7517SOL    HW124448   7.246   8.378  12.522
 7517SOL    HW224449   7.170   8.507  12.494
 7518SOL     OW24450  10.690   0.313   9.088
 7518SOL    HW124451  10.741   0.316   9.169
 7518SOL    HW224452  10.702   0.224   9.055
 7519SOL     OW24453   2.941  11.203   8.899
 7519SOL    HW124454   2.989  11.178   8.977
 7519SOL    HW224455   2.879  11.269   8.929
 7520SOL     OW24456   9.639   5.372   5.405
 7520SOL    HW124457   9.577   5.437   5.375
 7520SOL    HW224458   9.651   5.313   5.330
 7521SOL     OW24459   4.584  10.144  14.446
 7521SOL    HW124460   4.581  10.236  14.472
 7521SOL    HW224461   4.629  10.145  14.361
 7522SOL     OW24462   3.636  14.424   9.882
 7522SOL    HW124463   3.686  14.408   9.802
 7522SOL    HW224464   3.697  14.470   9.940
 7523SOL     OW24465   1.921   9.720   4.636
 7523SOL    HW124466   1.842   9.772   4.622
 7523SOL    HW224467   1.962   9.715   4.550
 7524SOL     OW24468  11.172   7.899   4.339
 7524SOL    HW124469  11.191   7.851   4.420
 7524SOL    HW224470  11.107   7.845   4.294
 7525SOL     OW24471  12.111   8.678   6.705
 7525SOL    HW124472  12.028   8.721   6.684
 7525SOL    HW224473  12.104   8.657   6.798
 7526SOL     OW24474   5.927  14.474   0.486
 7526SOL    HW124475   5.894  14.401   0.435
 7526SOL    HW224476   6.011  14.495   0.447
 7527SOL     OW24477  13.299   6.990  12.912
 7527SOL    HW124478  13.240   6.963  12.842
 7527SOL    HW224479  13.247   7.052  12.964
 7528SOL     OW24480   7.202   8.083   8.405
 7528SOL    HW124481   7.140   8.012   8.418
 7528SOL    HW224482   7.184   8.115   8.317
 7529SOL     OW24483   6.564   8.031   5.762
 7529SOL    HW124484   6.616   8.083   5.824
 7529SOL    HW224485   6.564   7.943   5.799
 7530SOL     OW24486  12.267   2.431   9.583
 7530SOL    HW124487  12.210   2.496   9.541
 7530SOL    HW224488  12.355   2.452   9.551
 7531SOL     OW24489  14.567  14.170  11.817
 7531SOL    HW124490  14.617  14.089  11.815
 7531SOL    HW224491  14.547  14.185  11.909
 7532SOL     OW24492   8.125   6.495   5.233
 7532SOL    HW124493   8.126   6.410   5.188
 7532SOL    HW224494   8.110   6.473   5.325
 7533SOL     OW24495   5.139   0.065   0.723
 7533SOL    HW124496   5.050   0.100   0.730
 7533SOL    HW224497   5.141  14.870   0.786
 7534SOL     OW24498  12.264  14.105  11.794
 7534SOL    HW124499  12.233  14.115  11.704
 7534SOL    HW224500  12.186  14.079  11.843
 7535SOL     OW24501   8.696  14.373   7.265
 7535SOL    HW124502   8.743  14.326   7.334
 7535SOL    HW224503   8.752  14.366   7.188
 7536SOL     OW24504   3.906   5.662   8.461
 7536SOL    HW124505   3.988   5.683   8.416
 7536SOL    HW224506   3.847   5.634   8.391
 7537SOL     OW24507  10.753  12.281   7.114
 7537SOL    HW124508  10.756  12.267   7.208
 7537SOL    HW224509  10.672  12.330   7.099
 7538SOL     OW24510  10.634   6.948   9.026
 7538SOL    HW124511  10.598   7.003   9.096
 7538SOL    HW224512  10.729   6.959   9.035
 7539SOL     OW24513   4.541   7.056  14.608
 7539SOL    HW124514   4.519   7.102  14.527
 7539SOL    HW224515   4.460   7.055  14.659
 7540SOL     OW24516   4.606   4.407   5.364
 7540SOL    HW124517   4.564   4.486   5.330
 7540SOL    HW224518   4.549   4.379   5.436
 7541SOL     OW24519   4.719   2.559   0.122
 7541SOL    HW124520   4.710   2.465   0.140
 7541SOL    HW224521   4.632   2.595   0.140
 7542SOL     OW24522   7.265   4.665   4.898
 7542SOL    HW124523   7.353   4.700   4.909
 7542SOL    HW224524   7.238   4.694   4.811
 7543SOL     OW24525   4.989   1.600   9.632
 7543SOL    HW124526   4.926   1.628   9.699
 7543SOL    HW224527   5.075   1.625   9.668
 7544SOL     OW24528   3.810   8.392   9.015
 7544SOL    HW124529   3.874   8.419   9.079
 7544SOL    HW224530   3.773   8.473   8.981
 7545SOL     OW24531  13.586  13.208  14.609
 7545SOL    HW124532  13.646  13.194  14.682
 7545SOL    HW224533  13.535  13.127  14.603
 7546SOL     OW24534  10.641   9.777  14.590
 7546SOL    HW124535  10.666   9.697  14.636
 7546SOL    HW224536  10.554   9.758  14.554
 7547SOL     OW24537   9.297   1.621   1.350
 7547SOL    HW124538   9.310   1.715   1.342
 7547SOL    HW224539   9.271   1.608   1.442
 7548SOL     OW24540   6.128   3.997   2.345
 7548SOL    HW124541   6.146   3.933   2.276
 7548SOL    HW224542   6.089   3.945   2.416
 7549SOL     OW24543  12.323  14.841   8.282
 7549SOL    HW124544  12.398  14.783   8.274
 7549SOL    HW224545  12.254  14.799   8.231
 7550SOL     OW24546   2.803   1.483  11.391
 7550SOL    HW124547   2.894   1.489  11.421
 7550SOL    HW224548   2.808   1.502  11.297
 7551SOL     OW24549   9.518   1.542   0.568
 7551SOL    HW124550   9.479   1.569   0.484
 7551SOL    HW224551   9.451   1.565   0.633
 7552SOL     OW24552  11.576   7.206   2.940
 7552SOL    HW124553  11.558   7.294   2.906
 7552SOL    HW224554  11.516   7.197   3.014
 7553SOL     OW24555  12.318   3.614   5.543
 7553SOL    HW124556  12.394   3.556   5.544
 7553SOL    HW224557  12.295   3.623   5.451
 7554SOL     OW24558  11.810   1.965  13.557
 7554SOL    HW124559  11.905   1.963  13.549
 7554SOL    HW224560  11.778   1.918  13.480
 7555SOL     OW24561   0.433  11.986   1.323
 7555SOL    HW124562   0.526  11.980   1.301
 7555SOL    HW224563   0.430  12.037   1.404
 7556SOL     OW24564  11.417   9.013   8.995
 7556SOL    HW124565  11.490   8.958   9.025
 7556SOL    HW224566  11.349   8.951   8.970
 7557SOL     OW24567  11.186  14.829   5.949
 7557SOL    HW124568  11.239  14.782   5.883
 7557SOL    HW224569  11.167   0.036   5.908
 7558SOL     OW24570   3.641   2.786  13.276
 7558SOL    HW124571   3.722   2.826  13.310
 7558SOL    HW224572   3.669   2.739  13.198
 7559SOL     OW24573   3.248  14.223   0.179
 7559SOL    HW124574   3.223  14.141   0.220
 7559SOL    HW224575   3.266  14.283   0.252
 7560SOL     OW24576  10.546   0.955   7.561
 7560SOL    HW124577  10.568   1.012   7.634
 7560SOL    HW224578  10.478   0.897   7.595
 7561SOL     OW24579  10.423  11.235   2.291
 7561SOL    HW124580  10.337  11.279   2.289
 7561SOL    HW224581  10.422  11.178   2.215
 7562SOL     OW24582   9.794   5.687   2.547
 7562SOL    HW124583   9.718   5.683   2.489
 7562SOL    HW224584   9.773   5.626   2.618
 7563SOL     OW24585   4.520   0.816   7.859
 7563SOL    HW124586   4.613   0.804   7.837
 7563SOL    HW224587   4.477   0.737   7.826
 7564SOL     OW24588   7.815  13.152   1.301
 7564SOL    HW124589   7.909  13.144   1.283
 7564SOL    HW224590   7.781  13.204   1.228
 7565SOL     OW24591   8.094   8.363   2.889
 7565SOL    HW124592   8.076   8.404   2.974
 7565SOL    HW224593   8.031   8.404   2.830
 7566SOL     OW24594   6.513   5.806  13.048
 7566SOL    HW124595   6.474   5.891  13.066
 7566SOL    HW224596   6.579   5.795  13.117
 7567SOL     OW24597   0.780   6.116  11.353
 7567SOL    HW124598   0.864   6.112  11.307
 7567SOL    HW224599   0.715   6.105  11.283
 7568SOL     OW24600   9.664   8.341   2.020
 7568SOL    HW124601   9.685   8.301   2.104
 7568SOL    HW224602   9.746   8.381   1.991
 7569SOL     OW24603   8.668   5.008   7.890
 7569SOL    HW124604   8.710   5.088   7.858
 7569SOL    HW224605   8.631   4.967   7.812
 7570SOL     OW24606   2.631  11.703   0.249
 7570SOL    HW124607   2.632  11.678   0.341
 7570SOL    HW224608   2.565  11.773   0.244
 7571SOL     OW24609   5.623  12.788   5.600
 7571SOL    HW124610   5.578  12.781   5.684
 7571SOL    HW224611   5.657  12.700   5.583
 7572SOL     OW24612   3.683   4.298  10.281
 7572SOL    HW124613   3.722   4.244  10.212
 7572SOL    HW224614   3.705   4.388  10.258
 7573SOL     OW24615   9.453   9.854  12.622
 7573SOL    HW124616   9.451   9.933  12.675
 7573SOL    HW224617   9.366   9.814  12.636
 7574SOL     OW24618   5.204   5.210   1.525
 7574SOL    HW124619   5.198   5.227   1.619
 7574SOL    HW224620   5.236   5.291   1.487
 7575SOL     OW24621   1.951   4.099   9.568
 7575SOL    HW124622   1.858   4.085   9.552
 7575SOL    HW224623   1.955   4.184   9.613
 7576SOL     OW24624  13.794  13.523  13.836
 7576SOL    HW124625  13.857  13.568  13.891
 7576SOL    HW224626  13.709  13.539  13.877
 7577SOL     OW24627   6.561   9.553   4.364
 7577SOL    HW124628   6.594   9.468   4.334
 7577SOL    HW224629   6.494   9.578   4.300
 7578SOL     OW24630   8.372   3.279  13.663
 7578SOL    HW124631   8.386   3.343  13.593
 7578SOL    HW224632   8.461   3.256  13.692
 7579SOL     OW24633   2.906   8.688   2.685
 7579SOL    HW124634   2.960   8.703   2.608
 7579SOL    HW224635   2.968   8.677   2.757
 7580SOL     OW24636  10.672   8.864   4.166
 7580SOL    HW124637  10.684   8.773   4.138
 7580SOL    HW224638  10.760   8.902   4.163
 7581SOL     OW24639  13.919  12.256   5.367
 7581SOL    HW124640  13.918  12.307   5.448
 7581SOL    HW224641  13.846  12.193   5.377
 7582SOL     OW24642   7.410   3.393   3.116
 7582SOL    HW124643   7.320   3.382   3.145
 7582SOL    HW224644   7.424   3.488   3.114
 7583SOL     OW24645   8.060  12.201  10.291
 7583SOL    HW124646   8.061  12.229  10.382
 7583SOL    HW224647   7.996  12.130  10.288
 7584SOL     OW24648  13.187   4.438   5.341
 7584SOL    HW124649  13.120   4.375   5.370
 7584SOL    HW224650  13.260   4.383   5.314
 7585SOL     OW24651   6.858   3.662  13.867
 7585SOL    HW124652   6.856   3.606  13.945
 7585SOL    HW224653   6.921   3.619  13.809
 7586SOL     OW24654   6.611  13.191  13.603
 7586SOL    HW124655   6.570  13.172  13.688
 7586SOL    HW224656   6.686  13.246  13.625
 7587SOL     OW24657   0.628  12.245  14.076
 7587SOL    HW124658   0.633  12.273  14.167
 7587SOL    HW224659   0.719  12.244  14.046
 7588SOL     OW24660   3.573   6.414   3.101
 7588SOL    HW124661   3.652   6.418   3.154
 7588SOL    HW224662   3.502   6.434   3.163
 7589SOL     OW24663   5.080   9.188   5.104
 7589SOL    HW124664   5.157   9.134   5.085
 7589SOL    HW224665   5.112   9.255   5.164
 7590SOL     OW24666   0.579   3.691  11.634
 7590SOL    HW124667   0.573   3.602  11.670
 7590SOL    HW224668   0.672   3.713  11.643
 7591SOL     OW24669   4.507   6.287   2.924
 7591SOL    HW124670   4.435   6.224   2.923
 7591SOL    HW224671   4.586   6.234   2.921
 7592SOL     OW24672   2.006  13.694  14.260
 7592SOL    HW124673   1.985  13.633  14.189
 7592SOL    HW224674   2.015  13.638  14.337
 7593SOL     OW24675   3.989   4.382   4.885
 7593SOL    HW124676   3.975   4.460   4.938
 7593SOL    HW224677   3.901   4.355   4.857
 7594SOL     OW24678   0.808  12.995   0.448
 7594SOL    HW124679   0.777  12.932   0.383
 7594SOL    HW224680   0.743  12.992   0.518
 7595SOL     OW24681   3.711  10.666   9.546
 7595SOL    HW124682   3.712  10.733   9.615
 7595SOL    HW224683   3.780  10.606   9.570
 7596SOL     OW24684   2.854  10.839  14.381
 7596SOL    HW124685   2.920  10.855  14.448
 7596SOL    HW224686   2.771  10.865  14.422
 7597SOL     OW24687  10.560   3.013   6.226
 7597SOL    HW124688  10.526   3.085   6.279
 7597SOL    HW224689  10.503   2.939   6.247
 7598SOL     OW24690   6.401  12.918   5.884
 7598SOL    HW124691   6.341  12.975   5.835
 7598SOL    HW224692   6.346  12.877   5.950
 7599SOL     OW24693   8.989   4.679   1.023
 7599SOL    HW124694   8.971   4.644   0.936
 7599SOL    HW224695   8.919   4.644   1.079
 7600SOL     OW24696  11.731  14.829   2.524
 7600SOL    HW124697  11.778   0.017   2.472
 7600SOL    HW224698  11.723  14.754   2.466
 7601SOL     OW24699   5.237   2.384   7.332
 7601SOL    HW124700   5.170   2.322   7.307
 7601SOL    HW224701   5.309   2.330   7.364
 7602SOL     OW24702   8.492   0.916   9.374
 7602SOL    HW124703   8.454   0.966   9.446
 7602SOL    HW224704   8.587   0.927   9.385
 7603SOL     OW24705   0.840  14.592   5.406
 7603SOL    HW124706   0.858  14.512   5.455
 7603SOL    HW224707   0.774  14.567   5.342
 7604SOL     OW24708   9.630   6.796   0.464
 7604SOL    HW124709   9.613   6.705   0.485
 7604SOL    HW224710   9.707   6.794   0.408
 7605SOL     OW24711   5.872   7.961   1.978
 7605SOL    HW124712   5.888   8.042   2.027
 7605SOL    HW224713   5.911   7.893   2.031
 7606SOL     OW24714   9.553  10.696   2.588
 7606SOL    HW124715   9.533  10.650   2.670
 7606SOL    HW224716   9.577  10.626   2.527
 7607SOL     OW24717  11.421  10.040  12.782
 7607SOL    HW124718  11.479  10.085  12.721
 7607SOL    HW224719  11.337  10.035  12.737
 7608SOL     OW24720  13.879   5.855   2.331
 7608SOL    HW124721  13.798   5.907   2.327
 7608SOL    HW224722  13.861   5.779   2.277
 7609SOL     OW24723   1.300   4.090   0.612
 7609SOL    HW124724   1.252   4.079   0.531
 7609SOL    HW224725   1.391   4.073   0.589
 7610SOL     OW24726  11.829   5.319  12.489
 7610SOL    HW124727  11.796   5.359  12.408
 7610SOL    HW224728  11.908   5.369  12.510
 7611SOL     OW24729   1.065   3.684   9.339
 7611SOL    HW124730   1.024   3.666   9.254
 7611SOL    HW224731   1.116   3.764   9.324
 7612SOL     OW24732   9.180   0.550  13.643
 7612SOL    HW124733   9.093   0.551  13.683
 7612SOL    HW224734   9.213   0.463  13.661
 7613SOL     OW24735   9.727  13.155   2.635
 7613SOL    HW124736   9.822  13.159   2.623
 7613SOL    HW224737   9.695  13.239   2.601
 7614SOL     OW24738  12.723  11.170   2.609
 7614SOL    HW124739  12.756  11.257   2.630
 7614SOL    HW224740  12.628  11.178   2.617
 7615SOL     OW24741  14.258  12.315   7.093
 7615SOL    HW124742  14.253  12.397   7.141
 7615SOL    HW224743  14.179  12.267   7.119
 7616SOL     OW24744  10.259  13.007   2.519
 7616SOL    HW124745  10.265  12.963   2.435
 7616SOL    HW224746  10.239  12.937   2.581
 7617SOL     OW24747   0.239   1.392  11.845
 7617SOL    HW124748   0.154   1.350  11.859
 7617SOL    HW224749   0.254   1.444  11.924
 7618SOL     OW24750   0.845   1.526  13.930
 7618SOL    HW124751   0.785   1.455  13.906
 7618SOL    HW224752   0.820   1.548  14.020
 7619SOL     OW24753   4.881   4.789   4.896
 7619SOL    HW124754   4.873   4.866   4.952
 7619SOL    HW224755   4.844   4.817   4.812
 7620SOL     OW24756   5.718   7.118   3.251
 7620SOL    HW124757   5.687   7.090   3.165
 7620SOL    HW224758   5.694   7.211   3.256
 7621SOL     OW24759  13.135  11.666   4.101
 7621SOL    HW124760  13.179  11.632   4.023
 7621SOL    HW224761  13.148  11.599   4.167
 7622SOL     OW24762  11.971   1.246   5.564
 7622SOL    HW124763  11.961   1.341   5.568
 7622SOL    HW224764  11.943   1.222   5.476
 7623SOL     OW24765  12.576  11.996   4.875
 7623SOL    HW124766  12.502  11.947   4.911
 7623SOL    HW224767  12.641  11.998   4.945
 7624SOL     OW24768  14.135   5.765   9.613
 7624SOL    HW124769  14.218   5.717   9.612
 7624SOL    HW224770  14.080   5.716   9.674
 7625SOL     OW24771   6.277   0.909  11.645
 7625SOL    HW124772   6.309   0.833  11.694
 7625SOL    HW224773   6.188   0.922  11.678
 7626SOL     OW24774   7.138   7.512  10.534
 7626SOL    HW124775   7.191   7.514  10.454
 7626SOL    HW224776   7.067   7.450  10.514
 7627SOL     OW24777   7.969   2.787   2.929
 7627SOL    HW124778   7.963   2.806   2.835
 7627SOL    HW224779   7.887   2.743   2.950
 7628SOL     OW24780   5.874   4.970   3.476
 7628SOL    HW124781   5.932   5.043   3.453
 7628SOL    HW224782   5.913   4.933   3.555
 7629SOL     OW24783  12.683   1.023   3.179
 7629SOL    HW124784  12.736   1.100   3.198
 7629SOL    HW224785  12.743   0.962   3.138
 7630SOL     OW24786   6.932   0.209  10.969
 7630SOL    HW124787   6.961   0.209  10.877
 7630SOL    HW224788   6.891   0.295  10.980
 7631SOL     OW24789   3.249   3.762   9.700
 7631SOL    HW124790   3.258   3.760   9.796
 7631SOL    HW224791   3.173   3.707   9.682
 7632SOL     OW24792  14.036  12.217   7.821
 7632SOL    HW124793  14.067  12.132   7.853
 7632SOL    HW224794  13.949  12.226   7.861
 7633SOL     OW24795  12.932   9.410  14.232
 7633SOL    HW124796  12.998   9.416  14.302
 7633SOL    HW224797  12.951   9.483  14.174
 7634SOL     OW24798   4.566   4.981   6.539
 7634SOL    HW124799   4.562   4.908   6.602
 7634SOL    HW224800   4.496   4.962   6.476
 7635SOL     OW24801   9.122   9.845   8.341
 7635SOL    HW124802   9.085   9.870   8.425
 7635SOL    HW224803   9.196   9.789   8.363
 7636SOL     OW24804   0.162   0.086  11.982
 7636SOL    HW124805   0.175   0.177  12.006
 7636SOL    HW224806   0.068   0.070  11.998
 7637SOL     OW24807  14.253  10.532   3.476
 7637SOL    HW124808  14.316  10.460   3.466
 7637SOL    HW224809  14.291  10.605   3.428
 7638SOL     OW24810   6.262   3.936  13.667
 7638SOL    HW124811   6.175   3.897  13.666
 7638SOL    HW224812   6.281   3.952  13.759
 7639SOL     OW24813  10.469   0.355  12.726
 7639SOL    HW124814  10.441   0.406  12.651
 7639SOL    HW224815  10.548   0.400  12.758
 7640SOL     OW24816   1.897  14.268   9.706
 7640SOL    HW124817   1.892  14.271   9.610
 7640SOL    HW224818   1.807  14.282   9.734
 7641SOL     OW24819   2.431   5.015  14.496
 7641SOL    HW124820   2.503   4.954  14.480
 7641SOL    HW224821   2.355   4.958  14.509
 7642SOL     OW24822  11.776   0.823   5.490
 7642SOL    HW124823  11.822   0.870   5.560
 7642SOL    HW224824  11.685   0.851   5.499
 7643SOL     OW24825  13.532   2.170  11.898
 7643SOL    HW124826  13.472   2.233  11.938
 7643SOL    HW224827  13.504   2.167  11.806
 7644SOL     OW24828  13.062   3.480  13.473
 7644SOL    HW124829  13.079   3.487  13.567
 7644SOL    HW224830  13.115   3.405  13.445
 7645SOL     OW24831   1.541   3.525   1.055
 7645SOL    HW124832   1.454   3.513   1.018
 7645SOL    HW224833   1.581   3.438   1.051
 7646SOL     OW24834  12.686   9.308   3.336
 7646SOL    HW124835  12.615   9.342   3.281
 7646SOL    HW224836  12.643   9.250   3.398
 7647SOL     OW24837   9.312   2.053  14.339
 7647SOL    HW124838   9.279   2.140  14.359
 7647SOL    HW224839   9.304   2.004  14.420
 7648SOL     OW24840   5.036  10.600   1.729
 7648SOL    HW124841   5.114  10.562   1.769
 7648SOL    HW224842   4.964  10.547   1.762
 7649SOL     OW24843   8.574   0.275   2.045
 7649SOL    HW124844   8.530   0.316   1.971
 7649SOL    HW224845   8.504   0.250   2.105
 7650SOL     OW24846   2.167   5.603   7.434
 7650SOL    HW124847   2.163   5.567   7.523
 7650SOL    HW224848   2.122   5.687   7.439
 7651SOL     OW24849  11.190   1.613  12.582
 7651SOL    HW124850  11.203   1.529  12.539
 7651SOL    HW224851  11.157   1.670  12.513
 7652SOL     OW24852  10.570   9.077   9.784
 7652SOL    HW124853  10.629   9.072   9.709
 7652SOL    HW224854  10.572   8.988   9.821
 7653SOL     OW24855  12.292   7.036   9.940
 7653SOL    HW124856  12.288   6.976  10.014
 7653SOL    HW224857  12.328   6.984   9.868
 7654SOL     OW24858   2.717   9.766   8.544
 7654SOL    HW124859   2.756   9.722   8.620
 7654SOL    HW224860   2.788   9.820   8.509
 7655SOL     OW24861   3.559   0.077   0.694
 7655SOL    HW124862   3.560   0.153   0.753
 7655SOL    HW224863   3.651   0.055   0.682
 7656SOL     OW24864  11.823   1.566   7.746
 7656SOL    HW124865  11.907   1.556   7.703
 7656SOL    HW224866  11.758   1.545   7.678
 7657SOL     OW24867   4.783   1.914   7.900
 7657SOL    HW124868   4.765   1.997   7.944
 7657SOL    HW224869   4.787   1.937   7.807
 7658SOL     OW24870   9.599   5.877   8.678
 7658SOL    HW124871   9.657   5.939   8.722
 7658SOL    HW224872   9.532   5.932   8.636
 7659SOL     OW24873   4.799  10.643   2.189
 7659SOL    HW124874   4.849  10.720   2.214
 7659SOL    HW224875   4.727  10.639   2.251
 7660SOL     OW24876   7.726  13.931  12.650
 7660SOL    HW124877   7.636  13.915  12.676
 7660SOL    HW224878   7.732  14.026  12.639
 7661SOL     OW24879   5.074   8.093   9.190
 7661SOL    HW124880   5.017   8.047   9.129
 7661SOL    HW224881   5.063   8.047   9.273
 7662SOL     OW24882   9.476   3.454   3.227
 7662SOL    HW124883   9.497   3.393   3.156
 7662SOL    HW224884   9.537   3.431   3.298
 7663SOL     OW24885  10.434  12.990   3.832
 7663SOL    HW124886  10.492  13.007   3.758
 7663SOL    HW224887  10.410  13.077   3.864
 7664SOL     OW24888   8.291   2.238   9.501
 7664SOL    HW124889   8.197   2.231   9.516
 7664SOL    HW224890   8.316   2.319   9.546
 7665SOL     OW24891   9.180   5.990  11.168
 7665SOL    HW124892   9.169   6.001  11.074
 7665SOL    HW224893   9.156   5.899  11.185
 7666SOL     OW24894   3.187   0.318   1.453
 7666SOL    HW124895   3.178   0.307   1.547
 7666SOL    HW224896   3.280   0.304   1.436
 7667SOL     OW24897  11.584  10.291   2.461
 7667SOL    HW124898  11.597  10.257   2.549
 7667SOL    HW224899  11.502  10.340   2.465
 7668SOL     OW24900   8.419  14.511  12.503
 7668SOL    HW124901   8.340  14.562  12.520
 7668SOL    HW224902   8.461  14.504  12.589
 7669SOL     OW24903   1.507   7.047  13.982
 7669SOL    HW124904   1.432   6.992  13.957
 7669SOL    HW224905   1.467   7.124  14.022
 7670SOL     OW24906   7.332   0.593  14.434
 7670SOL    HW124907   7.418   0.552  14.447
 7670SOL    HW224908   7.283   0.529  14.383
 7671SOL     OW24909  12.781   5.402   6.656
 7671SOL    HW124910  12.822   5.473   6.705
 7671SOL    HW224911  12.730   5.446   6.588
 7672SOL     OW24912   5.582  14.023   9.616
 7672SOL    HW124913   5.655  14.082   9.637
 7672SOL    HW224914   5.504  14.073   9.637
 7673SOL     OW24915   3.464   1.898   4.215
 7673SOL    HW124916   3.553   1.909   4.249
 7673SOL    HW224917   3.467   1.813   4.170
 7674SOL     OW24918  10.355   8.894  13.693
 7674SOL    HW124919  10.268   8.857  13.706
 7674SOL    HW224920  10.355   8.924  13.602
 7675SOL     OW24921   0.532  13.065   6.521
 7675SOL    HW124922   0.616  13.100   6.492
 7675SOL    HW224923   0.544  13.045   6.614
 7676SOL     OW24924   2.188  10.883  12.712
 7676SOL    HW124925   2.157  10.846  12.629
 7676SOL    HW224926   2.117  10.941  12.740
 7677SOL     OW24927   6.979  13.828   0.388
 7677SOL    HW124928   7.042  13.757   0.397
 7677SOL    HW224929   6.943  13.839   0.475
 7678SOL     OW24930   4.635  10.363  14.789
 7678SOL    HW124931   4.620  10.383  14.697
 7678SOL    HW224932   4.568  10.298  14.811
 7679SOL     OW24933   9.097   8.776  11.385
 7679SOL    HW124934   9.188   8.757  11.366
 7679SOL    HW224935   9.073   8.846  11.324
 7680SOL     OW24936   6.221  14.816  14.872
 7680SOL    HW124937   6.250   0.029  14.860
 7680SOL    HW224938   6.223  14.778  14.784
 7681SOL     OW24939   3.506   1.116  10.904
 7681SOL    HW124940   3.550   1.186  10.954
 7681SOL    HW224941   3.517   1.038  10.957
 7682SOL     OW24942   0.651  12.531   9.800
 7682SOL    HW124943   0.634  12.593   9.729
 7682SOL    HW224944   0.570  12.482   9.810
 7683SOL     OW24945   3.106   1.594  14.850
 7683SOL    HW124946   3.160   1.672  14.864
 7683SOL    HW224947   3.145   1.552  14.773
 7684SOL     OW24948   6.341  14.470   8.230
 7684SOL    HW124949   6.307  14.399   8.285
 7684SOL    HW224950   6.381  14.426   8.156
 7685SOL     OW24951  10.304   7.869  11.757
 7685SOL    HW124952  10.363   7.942  11.777
 7685SOL    HW224953  10.217   7.908  11.755
 7686SOL     OW24954   6.024  11.136  11.332
 7686SOL    HW124955   6.056  11.212  11.381
 7686SOL    HW224956   6.102  11.100  11.290
 7687SOL     OW24957  14.741   6.588  10.187
 7687SOL    HW124958  14.655   6.553  10.210
 7687SOL    HW224959  14.722   6.664  10.131
 7688SOL     OW24960   2.211   8.363   9.021
 7688SOL    HW124961   2.198   8.269   9.035
 7688SOL    HW224962   2.249   8.369   8.934
 7689SOL     OW24963   1.344  13.309  13.741
 7689SOL    HW124964   1.389  13.290  13.823
 7689SOL    HW224965   1.392  13.257  13.675
 7690SOL     OW24966   3.038   5.804   1.509
 7690SOL    HW124967   2.968   5.850   1.555
 7690SOL    HW224968   2.997   5.771   1.429
 7691SOL     OW24969   6.191  13.705   2.448
 7691SOL    HW124970   6.286  13.710   2.458
 7691SOL    HW224971   6.174  13.616   2.416
 7692SOL     OW24972   7.564   6.329   4.770
 7692SOL    HW124973   7.592   6.420   4.759
 7692SOL    HW224974   7.547   6.320   4.864
 7693SOL     OW24975   4.983   6.904  13.313
 7693SOL    HW124976   4.906   6.847  13.317
 7693SOL    HW224977   5.039   6.863  13.247
 7694SOL     OW24978   7.343   8.290   4.693
 7694SOL    HW124979   7.305   8.257   4.775
 7694SOL    HW224980   7.351   8.212   4.637
 7695SOL     OW24981   5.736   3.086   6.502
 7695SOL    HW124982   5.688   3.007   6.527
 7695SOL    HW224983   5.748   3.077   6.407
 7696SOL     OW24984   6.656   7.616   1.574
 7696SOL    HW124985   6.696   7.579   1.652
 7696SOL    HW224986   6.678   7.709   1.577
 7697SOL     OW24987  10.077   4.245  11.079
 7697SOL    HW124988  10.050   4.313  11.017
 7697SOL    HW224989  10.041   4.272  11.163
 7698SOL     OW24990   0.472   2.209   7.853
 7698SOL    HW124991   0.492   2.296   7.818
 7698SOL    HW224992   0.383   2.217   7.889
 7699SOL     OW24993  11.695   0.348  11.053
 7699SOL    HW124994  11.744   0.361  11.134
 7699SOL    HW224995  11.616   0.302  11.081
 7700SOL     OW24996   4.443   5.020   7.643
 7700SOL    HW124997   4.489   5.039   7.724
 7700SOL    HW224998   4.467   4.929   7.623
 7701SOL     OW24999  14.133   8.426  13.783
 7701SOL    HW125000  14.077   8.350  13.768
 7701SOL    HW225001  14.077   8.488  13.829
 7702SOL     OW25002   2.571   3.822   1.779
 7702SOL    HW125003   2.661   3.853   1.792
 7702SOL    HW225004   2.577   3.726   1.786
 7703SOL     OW25005  13.073  11.611   7.801
 7703SOL    HW125006  13.030  11.691   7.831
 7703SOL    HW225007  13.101  11.568   7.881
 7704SOL     OW25008   7.446  10.086   8.875
 7704SOL    HW125009   7.537  10.057   8.870
 7704SOL    HW225010   7.440  10.129   8.961
 7705SOL     OW25011   8.641   1.447   1.400
 7705SOL    HW125012   8.725   1.481   1.369
 7705SOL    HW225013   8.596   1.523   1.436
 7706SOL     OW25014   3.946   9.870  11.039
 7706SOL    HW125015   4.022   9.923  11.063
 7706SOL    HW225016   3.875   9.934  11.029
 7707SOL     OW25017  13.979   8.543   2.865
 7707SOL    HW125018  13.984   8.621   2.920
 7707SOL    HW225019  14.056   8.549   2.808
 7708SOL     OW25020   3.972   6.650   0.192
 7708SOL    HW125021   3.968   6.559   0.222
 7708SOL    HW225022   4.030   6.648   0.116
 7709SOL     OW25023  12.279  12.348   2.850
 7709SOL    HW125024  12.206  12.397   2.813
 7709SOL    HW225025  12.357  12.398   2.825
 7710SOL     OW25026  10.782   8.506  12.356
 7710SOL    HW125027  10.853   8.527  12.416
 7710SOL    HW225028  10.735   8.434  12.398
 7711SOL     OW25029   7.461  14.296   7.884
 7711SOL    HW125030   7.508  14.370   7.922
 7711SOL    HW225031   7.510  14.274   7.805
 7712SOL     OW25032   1.237   2.393   3.062
 7712SOL    HW125033   1.255   2.483   3.087
 7712SOL    HW225034   1.219   2.348   3.144
 7713SOL     OW25035   1.125   0.218  13.926
 7713SOL    HW125036   1.046   0.242  13.878
 7713SOL    HW225037   1.197   0.243  13.868
 7714SOL     OW25038   2.186   5.615   1.003
 7714SOL    HW125039   2.111   5.607   1.062
 7714SOL    HW225040   2.150   5.600   0.916
 7715SOL     OW25041  10.779   2.965   5.639
 7715SOL    HW125042  10.850   2.974   5.576
 7715SOL    HW225043  10.714   2.910   5.594
 7716SOL     OW25044   1.585  10.898  10.218
 7716SOL    HW125045   1.666  10.948  10.215
 7716SOL    HW225046   1.574  10.875  10.310
 7717SOL     OW25047   3.838  12.670  13.591
 7717SOL    HW125048   3.759  12.685  13.643
 7717SOL    HW225049   3.883  12.599  13.636
 7718SOL     OW25050  11.810   6.011   4.071
 7718SOL    HW125051  11.744   6.080   4.078
 7718SOL    HW225052  11.759   5.931   4.058
 7719SOL     OW25053  11.671   1.272   0.924
 7719SOL    HW125054  11.664   1.177   0.933
 7719SOL    HW225055  11.683   1.304   1.014
 7720SOL     OW25056  11.194   1.507   3.747
 7720SOL    HW125057  11.117   1.501   3.690
 7720SOL    HW225058  11.217   1.600   3.747
 7721SOL     OW25059   0.184   8.610   2.281
 7721SOL    HW125060   0.191   8.680   2.216
 7721SOL    HW225061   0.265   8.618   2.332
 7722SOL     OW25062   6.064   9.942   6.765
 7722SOL    HW125063   5.989   9.885   6.784
 7722SOL    HW225064   6.043  10.025   6.806
 7723SOL     OW25065   8.186   5.897   1.990
 7723SOL    HW125066   8.102   5.853   2.002
 7723SOL    HW225067   8.164   5.989   1.981
 7724SOL     OW25068   5.408   6.480   4.530
 7724SOL    HW125069   5.429   6.476   4.624
 7724SOL    HW225070   5.317   6.451   4.525
 7725SOL     OW25071  13.821   0.339   2.640
 7725SOL    HW125072  13.900   0.291   2.614
 7725SOL    HW225073  13.759   0.270   2.666
 7726SOL     OW25074  11.990  14.675   9.273
 7726SOL    HW125075  12.068  14.629   9.304
 7726SOL    HW225076  12.003  14.681   9.178
 7727SOL     OW25077   6.732   4.627  13.660
 7727SOL    HW125078   6.718   4.571  13.736
 7727SOL    HW225079   6.689   4.710  13.683
 7728SOL     OW25080   4.913  10.387  11.075
 7728SOL    HW125081   4.851  10.434  11.130
 7728SOL    HW225082   4.996  10.434  11.085
 7729SOL     OW25083   7.701   4.794  14.660
 7729SOL    HW125084   7.639   4.807  14.732
 7729SOL    HW225085   7.698   4.876  14.611
 7730SOL     OW25086  14.283   5.699   1.243
 7730SOL    HW125087  14.291   5.792   1.263
 7730SOL    HW225088  14.367   5.675   1.204
 7731SOL     OW25089   7.929   1.024   0.736
 7731SOL    HW125090   7.894   1.099   0.783
 7731SOL    HW225091   7.896   0.947   0.782
 7732SOL     OW25092   0.248   4.022  12.665
 7732SOL    HW125093   0.231   3.933  12.696
 7732SOL    HW225094   0.170   4.072  12.691
 7733SOL     OW25095   5.337   9.742   4.071
 7733SOL    HW125096   5.322   9.707   3.983
 7733SOL    HW225097   5.427   9.716   4.092
 7734SOL     OW25098   4.030  12.901  11.359
 7734SOL    HW125099   4.051  12.808  11.369
 7734SOL    HW225100   4.013  12.912  11.266
 7735SOL     OW25101  12.587   1.280   1.972
 7735SOL    HW125102  12.508   1.237   2.004
 7735SOL    HW225103  12.585   1.266   1.877
 7736SOL     OW25104   4.135  12.092   5.083
 7736SOL    HW125105   4.052  12.066   5.123
 7736SOL    HW225106   4.112  12.164   5.025
 7737SOL     OW25107   3.922  12.624  13.310
 7737SOL    HW125108   3.843  12.571  13.304
 7737SOL    HW225109   3.918  12.663  13.398
 7738SOL     OW25110   9.419   0.075   2.097
 7738SOL    HW125111   9.505   0.069   2.139
 7738SOL    HW225112   9.368   0.005   2.137
 7739SOL     OW25113   1.277  10.783   6.235
 7739SOL    HW125114   1.213  10.712   6.248
 7739SOL    HW225115   1.361  10.738   6.226
 7740SOL     OW25116   7.341  10.695  13.920
 7740SOL    HW125117   7.380  10.765  13.868
 7740SOL    HW225118   7.331  10.622  13.860
 7741SOL     OW25119   8.563   1.710   6.365
 7741SOL    HW125120   8.551   1.643   6.297
 7741SOL    HW225121   8.475   1.730   6.395
 7742SOL     OW25122   6.909   4.623   9.119
 7742SOL    HW125123   6.976   4.610   9.186
 7742SOL    HW225124   6.928   4.709   9.082
 7743SOL     OW25125   2.176   5.870   9.391
 7743SOL    HW125126   2.250   5.850   9.334
 7743SOL    HW225127   2.114   5.916   9.335
 7744SOL     OW25128  11.758  11.270   8.556
 7744SOL    HW125129  11.733  11.355   8.521
 7744SOL    HW225130  11.714  11.265   8.641
 7745SOL     OW25131  13.386  11.409  12.035
 7745SOL    HW125132  13.374  11.499  12.004
 7745SOL    HW225133  13.317  11.359  11.992
 7746SOL     OW25134   5.769  11.645   9.895
 7746SOL    HW125135   5.693  11.609   9.940
 7746SOL    HW225136   5.827  11.570   9.880
 7747SOL     OW25137  11.847  12.807   9.627
 7747SOL    HW125138  11.906  12.742   9.667
 7747SOL    HW225139  11.815  12.859   9.701
 7748SOL     OW25140   8.976   7.885   9.990
 7748SOL    HW125141   8.895   7.935   9.998
 7748SOL    HW225142   8.958   7.822   9.920
 7749SOL     OW25143   6.921   3.961  12.457
 7749SOL    HW125144   6.934   3.877  12.412
 7749SOL    HW225145   6.989   4.018  12.422
 7750SOL     OW25146  11.823  10.182   1.875
 7750SOL    HW125147  11.762  10.213   1.941
 7750SOL    HW225148  11.778  10.199   1.792
 7751SOL     OW25149   0.041  13.644   0.927
 7751SOL    HW125150   0.063  13.713   0.864
 7751SOL    HW225151   0.093  13.665   1.004
 7752SOL     OW25152   4.629   0.193   9.411
 7752SOL    HW125153   4.708   0.176   9.360
 7752SOL    HW225154   4.575   0.115   9.398
 7753SOL     OW25155  10.458   2.881   5.163
 7753SOL    HW125156  10.385   2.891   5.223
 7753SOL    HW225157  10.434   2.932   5.086
 7754SOL     OW25158  13.101  13.905  14.660
 7754SOL    HW125159  13.180  13.860  14.690
 7754SOL    HW225160  13.043  13.904  14.736
 7755SOL     OW25161  12.017  11.761   8.423
 7755SOL    HW125162  12.009  11.681   8.474
 7755SOL    HW225163  12.024  11.731   8.332
 7756SOL     OW25164   8.886   5.932   2.225
 7756SOL    HW125165   8.948   5.903   2.159
 7756SOL    HW225166   8.933   6.001   2.273
 7757SOL     OW25167   6.186  13.817   4.782
 7757SOL    HW125168   6.212  13.727   4.767
 7757SOL    HW225169   6.163  13.820   4.875
 7758SOL     OW25170  11.424  13.936   6.337
 7758SOL    HW125171  11.336  13.901   6.347
 7758SOL    HW225172  11.412  14.030   6.322
 7759SOL     OW25173   3.154   3.183   0.395
 7759SOL    HW125174   3.112   3.097   0.388
 7759SOL    HW225175   3.081   3.245   0.395
 7760SOL     OW25176   1.412  11.514  10.060
 7760SOL    HW125177   1.462  11.596  10.059
 7760SOL    HW225178   1.327  11.538  10.022
 7761SOL     OW25179  13.886  11.299   3.472
 7761SOL    HW125180  13.886  11.279   3.565
 7761SOL    HW225181  13.979  11.308   3.449
 7762SOL     OW25182   0.707   0.698   6.493
 7762SOL    HW125183   0.682   0.611   6.464
 7762SOL    HW225184   0.782   0.722   6.437
 7763SOL     OW25185   6.472   7.123   4.332
 7763SOL    HW125186   6.430   7.178   4.266
 7763SOL    HW225187   6.491   7.183   4.404
 7764SOL     OW25188  12.774   2.612   1.746
 7764SOL    HW125189  12.833   2.688   1.743
 7764SOL    HW225190  12.695   2.642   1.701
 7765SOL     OW25191  14.689  10.370  12.492
 7765SOL    HW125192  14.636  10.407  12.422
 7765SOL    HW225193  14.710  10.281  12.463
 7766SOL     OW25194   6.616   5.306   8.493
 7766SOL    HW125195   6.710   5.310   8.476
 7766SOL    HW225196   6.589   5.220   8.459
 7767SOL     OW25197   3.709   4.038   1.274
 7767SOL    HW125198   3.683   4.117   1.321
 7767SOL    HW225199   3.751   4.071   1.194
 7768SOL     OW25200   9.298  11.233  13.943
 7768SOL    HW125201   9.287  11.141  13.967
 7768SOL    HW225202   9.251  11.281  14.012
 7769SOL     OW25203  14.353  10.615   7.622
 7769SOL    HW125204  14.372  10.569   7.541
 7769SOL    HW225205  14.383  10.704   7.608
 7770SOL     OW25206  12.822  11.191   0.193
 7770SOL    HW125207  12.768  11.180   0.115
 7770SOL    HW225208  12.897  11.134   0.179
 7771SOL     OW25209   0.989   8.671   8.420
 7771SOL    HW125210   1.047   8.611   8.466
 7771SOL    HW225211   0.901   8.648   8.450
 7772SOL     OW25212  12.369   8.480   0.199
 7772SOL    HW125213  12.274   8.469   0.191
 7772SOL    HW225214  12.393   8.431   0.278
 7773SOL     OW25215  12.971   7.461   7.142
 7773SOL    HW125216  12.887   7.488   7.181
 7773SOL    HW225217  12.947   7.423   7.057
 7774SOL     OW25218   0.001   5.078   2.867
 7774SOL    HW125219   0.031   5.024   2.939
 7774SOL    HW225220  14.842   5.017   2.803
 7775SOL     OW25221   7.823   8.041   7.088
 7775SOL    HW125222   7.849   8.118   7.038
 7775SOL    HW225223   7.761   7.996   7.030
 7776SOL     OW25224   7.608   2.185  12.901
 7776SOL    HW125225   7.557   2.262  12.923
 7776SOL    HW225226   7.670   2.215  12.834
 7777SOL     OW25227   4.036   4.461  12.245
 7777SOL    HW125228   4.074   4.395  12.302
 7777SOL    HW225229   4.110   4.498  12.197
 7778SOL     OW25230   6.263  13.013   2.164
 7778SOL    HW125231   6.289  13.081   2.102
 7778SOL    HW225232   6.169  13.026   2.176
 7779SOL     OW25233   7.802  11.527   4.716
 7779SOL    HW125234   7.839  11.550   4.631
 7779SOL    HW225235   7.856  11.455   4.747
 7780SOL     OW25236  11.130   0.235   0.870
 7780SOL    HW125237  11.146   0.316   0.822
 7780SOL    HW225238  11.056   0.256   0.928
 7781SOL     OW25239  12.061  13.512  10.312
 7781SOL    HW125240  12.001  13.454  10.359
 7781SOL    HW225241  12.058  13.594  10.361
 7782SOL     OW25242   7.985   0.332  14.712
 7782SOL    HW125243   7.946   0.245  14.702
 7782SOL    HW225244   8.004   0.360  14.623
 7783SOL     OW25245   0.154   3.636   3.442
 7783SOL    HW125246   0.208   3.621   3.520
 7783SOL    HW225247   0.079   3.686   3.474
 7784SOL     OW25248   8.616   0.577   1.561
 7784SOL    HW125249   8.701   0.541   1.538
 7784SOL    HW225250   8.634   0.666   1.592
 7785SOL     OW25251   0.992   6.124   0.220
 7785SOL    HW125252   0.954   6.167   0.296
 7785SOL    HW225253   1.082   6.106   0.245
 7786SOL     OW25254  13.448   5.979   1.749
 7786SOL    HW125255  13.497   5.904   1.781
 7786SOL    HW225256  13.369   5.942   1.710
 7787SOL     OW25257   8.545   3.785   9.218
 7787SOL    HW125258   8.556   3.694   9.192
 7787SOL    HW225259   8.484   3.821   9.154
 7788SOL     OW25260  14.872   9.428   5.592
 7788SOL    HW125261   0.061   9.377   5.546
 7788SOL    HW225262   0.016   9.416   5.685
 7789SOL     OW25263   7.576  10.535  12.133
 7789SOL    HW125264   7.557  10.621  12.098
 7789SOL    HW225265   7.596  10.481  12.056
 7790SOL     OW25266  10.700   3.412   6.333
 7790SOL    HW125267  10.744   3.339   6.377
 7790SOL    HW225268  10.733   3.490   6.379
 7791SOL     OW25269   9.492  12.896  10.353
 7791SOL    HW125270   9.455  12.839  10.420
 7791SOL    HW225271   9.466  12.984  10.380
 7792SOL     OW25272   4.146  13.297   5.222
 7792SOL    HW125273   4.079  13.260   5.280
 7792SOL    HW225274   4.099  13.364   5.172
 7793SOL     OW25275   8.283   8.881   4.676
 7793SOL    HW125276   8.341   8.901   4.749
 7793SOL    HW225277   8.251   8.793   4.693
 7794SOL     OW25278  13.263  10.673  11.530
 7794SOL    HW125279  13.234  10.665  11.620
 7794SOL    HW225280  13.345  10.722  11.535
 7795SOL     OW25281   2.795  14.299   9.423
 7795SOL    HW125282   2.746  14.249   9.358
 7795SOL    HW225283   2.811  14.384   9.380
 7796SOL     OW25284  13.673   5.724   7.534
 7796SOL    HW125285  13.648   5.754   7.446
 7796SOL    HW225286  13.671   5.629   7.528
 7797SOL     OW25287   9.808   5.032  10.550
 7797SOL    HW125288   9.734   4.972  10.552
 7797SOL    HW225289   9.880   4.983  10.589
 7798SOL     OW25290   0.999  12.922   3.707
 7798SOL    HW125291   0.933  12.904   3.641
 7798SOL    HW225292   1.024  12.835   3.739
 7799SOL     OW25293   4.478   2.203   5.316
 7799SOL    HW125294   4.478   2.277   5.256
 7799SOL    HW225295   4.471   2.242   5.403
 7800SOL     OW25296   1.528   7.248   5.639
 7800SOL    HW125297   1.557   7.336   5.619
 7800SOL    HW225298   1.600   7.191   5.613
 7801SOL     OW25299  14.599   5.045   3.082
 7801SOL    HW125300  14.511   5.074   3.057
 7801SOL    HW225301  14.633   5.003   3.003
 7802SOL     OW25302   3.020   6.325   2.075
 7802SOL    HW125303   2.957   6.294   2.010
 7802SOL    HW225304   3.072   6.247   2.096
 7803SOL     OW25305   5.176  10.049   8.944
 7803SOL    HW125306   5.132   9.997   9.012
 7803SOL    HW225307   5.249   9.995   8.916
 7804SOL     OW25308  12.194   8.477  14.665
 7804SOL    HW125309  12.156   8.544  14.721
 7804SOL    HW225310  12.138   8.401  14.677
 7805SOL     OW25311  12.228   9.785   7.215
 7805SOL    HW125312  12.232   9.692   7.192
 7805SOL    HW225313  12.243   9.831   7.132
 7806SOL     OW25314   8.048   5.261   2.492
 7806SOL    HW125315   7.962   5.248   2.453
 7806SOL    HW225316   8.093   5.321   2.432
 7807SOL     OW25317  13.285   3.289   3.924
 7807SOL    HW125318  13.212   3.347   3.902
 7807SOL    HW225319  13.317   3.258   3.839
 7808SOL     OW25320   5.317   6.068   5.642
 7808SOL    HW125321   5.408   6.053   5.668
 7808SOL    HW225322   5.271   5.988   5.668
 7809SOL     OW25323   4.946   1.518   8.444
 7809SOL    HW125324   4.996   1.568   8.508
 7809SOL    HW225325   4.854   1.539   8.464
 7810SOL     OW25326   5.836  12.931   7.453
 7810SOL    HW125327   5.919  12.930   7.502
 7810SOL    HW225328   5.819  12.839   7.433
 7811SOL     OW25329   2.279   9.792   2.737
 7811SOL    HW125330   2.362   9.753   2.766
 7811SOL    HW225331   2.227   9.717   2.709
 7812SOL     OW25332   6.643   7.152  14.814
 7812SOL    HW125333   6.692   7.234  14.810
 7812SOL    HW225334   6.551   7.178  14.800
 7813SOL     OW25335   2.383  13.237  11.910
 7813SOL    HW125336   2.295  13.243  11.948
 7813SOL    HW225337   2.413  13.327  11.903
 7814SOL     OW25338   8.657   4.169   1.358
 7814SOL    HW125339   8.614   4.165   1.273
 7814SOL    HW225340   8.697   4.257   1.360
 7815SOL     OW25341   5.966   2.168   3.416
 7815SOL    HW125342   5.934   2.080   3.392
 7815SOL    HW225343   5.903   2.199   3.481
 7816SOL     OW25344  12.108  13.890  14.322
 7816SOL    HW125345  12.061  13.964  14.286
 7816SOL    HW225346  12.182  13.929  14.369
 7817SOL     OW25347   6.967  12.108   0.340
 7817SOL    HW125348   6.892  12.156   0.376
 7817SOL    HW225349   6.966  12.131   0.247
 7818SOL     OW25350  11.515   1.314   0.282
 7818SOL    HW125351  11.580   1.244   0.280
 7818SOL    HW225352  11.557   1.387   0.235
 7819SOL     OW25353   4.286  11.654  11.207
 7819SOL    HW125354   4.236  11.580  11.173
 7819SOL    HW225355   4.271  11.724  11.144
 7820SOL     OW25356   8.068  14.864   1.375
 7820SOL    HW125357   8.120  14.798   1.421
 7820SOL    HW225358   8.005   0.017   1.440
 7821SOL     OW25359  14.408  14.001   2.324
 7821SOL    HW125360  14.503  13.994   2.322
 7821SOL    HW225361  14.389  14.042   2.409
 7822SOL     OW25362  10.771   3.655   8.732
 7822SOL    HW125363  10.789   3.749   8.731
 7822SOL    HW225364  10.802   3.625   8.817
 7823SOL     OW25365  12.921  10.795  14.606
 7823SOL    HW125366  12.968  10.877  14.594
 7823SOL    HW225367  12.987  10.732  14.635
 7824SOL     OW25368   1.788  14.723   7.350
 7824SOL    HW125369   1.697  14.696   7.358
 7824SOL    HW225370   1.839  14.647   7.379
 7825SOL     OW25371   4.644  11.299   6.708
 7825SOL    HW125372   4.728  11.336   6.737
 7825SOL    HW225373   4.611  11.252   6.784
 7826SOL     OW25374   3.443   0.900   5.153
 7826SOL    HW125375   3.385   0.863   5.087
 7826SOL    HW225376   3.530   0.869   5.128
 7827SOL     OW25377   9.908  10.204   3.140
 7827SOL    HW125378   9.885  10.136   3.075
 7827SOL    HW225379   9.830  10.210   3.196
 7828SOL     OW25380   5.972   3.436   7.264
 7828SOL    HW125381   5.944   3.441   7.172
 7828SOL    HW225382   6.059   3.476   7.265
 7829SOL     OW25383   0.608   6.372   2.429
 7829SOL    HW125384   0.588   6.400   2.339
 7829SOL    HW225385   0.703   6.360   2.429
 7830SOL     OW25386   9.473   1.775   3.468
 7830SOL    HW125387   9.397   1.746   3.418
 7830SOL    HW225388   9.443   1.853   3.515
 7831SOL     OW25389   9.465   0.256   0.786
 7831SOL    HW125390   9.423   0.327   0.737
 7831SOL    HW225391   9.404   0.237   0.857
 7832SOL     OW25392  13.686  10.351   9.276
 7832SOL    HW125393  13.676  10.420   9.341
 7832SOL    HW225394  13.758  10.297   9.309
 7833SOL     OW25395   8.171   7.479   1.740
 7833SOL    HW125396   8.170   7.398   1.791
 7833SOL    HW225397   8.261   7.485   1.707
 7834SOL     OW25398  12.490  14.309   5.925
 7834SOL    HW125399  12.526  14.363   5.854
 7834SOL    HW225400  12.502  14.219   5.895
 7835SOL     OW25401   9.903   8.414   5.224
 7835SOL    HW125402   9.956   8.456   5.157
 7835SOL    HW225403   9.962   8.353   5.268
 7836SOL     OW25404   6.805   2.776   3.234
 7836SOL    HW125405   6.858   2.720   3.290
 7836SOL    HW225406   6.717   2.771   3.271
 7837SOL     OW25407   3.709   2.226   6.517
 7837SOL    HW125408   3.758   2.173   6.455
 7837SOL    HW225409   3.775   2.260   6.577
 7838SOL     OW25410   9.894   7.969   4.883
 7838SOL    HW125411   9.902   7.896   4.944
 7838SOL    HW225412   9.913   8.046   4.937
 7839SOL     OW25413  13.352   9.946  12.906
 7839SOL    HW125414  13.413   9.970  12.976
 7839SOL    HW225415  13.403   9.890  12.848
 7840SOL     OW25416   8.220  12.463   8.290
 7840SOL    HW125417   8.187  12.384   8.249
 7840SOL    HW225418   8.141  12.514   8.311
 7841SOL     OW25419   5.449   8.722   8.851
 7841SOL    HW125420   5.393   8.645   8.837
 7841SOL    HW225421   5.392   8.797   8.833
 7842SOL     OW25422   6.947   0.543   6.615
 7842SOL    HW125423   6.961   0.535   6.710
 7842SOL    HW225424   6.923   0.635   6.602
 7843SOL     OW25425   2.367   3.356   7.477
 7843SOL    HW125426   2.280   3.323   7.499
 7843SOL    HW225427   2.367   3.446   7.509
 7844SOL     OW25428   6.241  12.083  11.443
 7844SOL    HW125429   6.217  12.061  11.533
 7844SOL    HW225430   6.197  12.018  11.389
 7845SOL     OW25431   8.839   3.120   9.289
 7845SOL    HW125432   8.779   3.098   9.218
 7845SOL    HW225433   8.854   3.214   9.279
 7846SOL     OW25434   0.326   4.691  11.014
 7846SOL    HW125435   0.369   4.626  10.959
 7846SOL    HW225436   0.301   4.643  11.093
 7847SOL     OW25437   1.618   1.912  13.928
 7847SOL    HW125438   1.698   1.952  13.895
 7847SOL    HW225439   1.555   1.920  13.856
 7848SOL     OW25440   2.675   7.528  11.471
 7848SOL    HW125441   2.659   7.582  11.549
 7848SOL    HW225442   2.714   7.589  11.408
 7849SOL     OW25443  14.023   2.923   5.868
 7849SOL    HW125444  14.037   2.829   5.882
 7849SOL    HW225445  14.041   2.963   5.954
 7850SOL     OW25446   0.835   1.630  14.614
 7850SOL    HW125447   0.770   1.562  14.628
 7850SOL    HW225448   0.891   1.628  14.692
 7851SOL     OW25449   3.584   4.660   5.631
 7851SOL    HW125450   3.599   4.712   5.710
 7851SOL    HW225451   3.642   4.585   5.640
 7852SOL     OW25452   0.429   5.792   4.070
 7852SOL    HW125453   0.492   5.721   4.078
 7852SOL    HW225454   0.412   5.799   3.976
 7853SOL     OW25455  11.839  10.466   7.135
 7853SOL    HW125456  11.843  10.406   7.060
 7853SOL    HW225457  11.765  10.524   7.114
 7854SOL     OW25458   9.400   5.411   0.492
 7854SOL    HW125459   9.398   5.505   0.510
 7854SOL    HW225460   9.372   5.404   0.401
 7855SOL     OW25461   4.207   8.184  10.531
 7855SOL    HW125462   4.164   8.100  10.515
 7855SOL    HW225463   4.152   8.227  10.597
 7856SOL     OW25464   4.471  13.222   3.934
 7856SOL    HW125465   4.540  13.241   3.997
 7856SOL    HW225466   4.464  13.126   3.935
 7857SOL     OW25467   4.032   4.884  11.117
 7857SOL    HW125468   4.097   4.848  11.058
 7857SOL    HW225469   4.067   4.869  11.205
 7858SOL     OW25470  11.455   5.784  10.938
 7858SOL    HW125471  11.440   5.835  11.017
 7858SOL    HW225472  11.404   5.704  10.951
 7859SOL     OW25473   2.761   6.153  11.143
 7859SOL    HW125474   2.818   6.078  11.129
 7859SOL    HW225475   2.781   6.213  11.071
 7860SOL     OW25476  12.539   9.654   6.177
 7860SOL    HW125477  12.461   9.640   6.123
 7860SOL    HW225478  12.505   9.666   6.266
 7861SOL     OW25479   5.659   6.271   0.198
 7861SOL    HW125480   5.733   6.221   0.232
 7861SOL    HW225481   5.605   6.290   0.275
 7862SOL     OW25482  10.301  12.850   2.834
 7862SOL    HW125483  10.211  12.832   2.809
 7862SOL    HW225484  10.353  12.817   2.761
 7863SOL     OW25485  13.313   9.536  14.151
 7863SOL    HW125486  13.273   9.452  14.129
 7863SOL    HW225487  13.403   9.515  14.174
 7864SOL     OW25488   8.654   7.670   2.025
 7864SOL    HW125489   8.574   7.692   2.073
 7864SOL    HW225490   8.642   7.712   1.939
 7865SOL     OW25491  10.410  11.257   7.797
 7865SOL    HW125492  10.400  11.233   7.890
 7865SOL    HW225493  10.455  11.182   7.758
 7866SOL     OW25494   6.151  14.731   5.357
 7866SOL    HW125495   6.091  14.694   5.422
 7866SOL    HW225496   6.168  14.820   5.387
 7867SOL     OW25497   1.118   6.992   4.376
 7867SOL    HW125498   1.202   7.037   4.385
 7867SOL    HW225499   1.063   7.052   4.325
 7868SOL     OW25500  11.102   2.871  11.561
 7868SOL    HW125501  11.087   2.863  11.466
 7868SOL    HW225502  11.140   2.958  11.572
 7869SOL     OW25503   4.016   3.524   1.753
 7869SOL    HW125504   4.047   3.468   1.682
 7869SOL    HW225505   4.037   3.475   1.833
 7870SOL     OW25506   2.497   2.467   1.008
 7870SOL    HW125507   2.429   2.534   1.007
 7870SOL    HW225508   2.480   2.417   1.088
 7871SOL     OW25509   4.201   5.816   9.478
 7871SOL    HW125510   4.246   5.901   9.482
 7871SOL    HW225511   4.254   5.759   9.534
 7872SOL     OW25512   4.919  13.170   6.524
 7872SOL    HW125513   5.001  13.213   6.501
 7872SOL    HW225514   4.851  13.234   6.505
 7873SOL     OW25515  13.302   5.843   4.490
 7873SOL    HW125516  13.332   5.759   4.456
 7873SOL    HW225517  13.366   5.907   4.458
 7874SOL     OW25518   9.954  12.305   8.736
 7874SOL    HW125519  10.014  12.337   8.668
 7874SOL    HW225520  10.006  12.239   8.783
 7875SOL     OW25521  12.162   6.320   9.666
 7875SOL    HW125522  12.068   6.302   9.665
 7875SOL    HW225523  12.200   6.254   9.608
 7876SOL     OW25524   6.942   1.757  12.657
 7876SOL    HW125525   6.976   1.782  12.742
 7876SOL    HW225526   6.864   1.705  12.676
 7877SOL     OW25527  13.492   2.238  11.191
 7877SOL    HW125528  13.422   2.232  11.125
 7877SOL    HW225529  13.535   2.322  11.173
 7878SOL     OW25530   2.253   1.868   3.317
 7878SOL    HW125531   2.287   1.943   3.366
 7878SOL    HW225532   2.161   1.864   3.340
 7879SOL     OW25533  13.941   3.934   8.994
 7879SOL    HW125534  13.910   3.906   8.909
 7879SOL    HW225535  14.034   3.955   8.981
 7880SOL     OW25536   7.285  12.113   8.504
 7880SOL    HW125537   7.252  12.159   8.427
 7880SOL    HW225538   7.376  12.090   8.481
 7881SOL     OW25539   8.038   0.987   0.451
 7881SOL    HW125540   7.985   1.025   0.521
 7881SOL    HW225541   7.974   0.961   0.385
 7882SOL     OW25542   9.087  13.107   2.628
 7882SOL    HW125543   9.051  13.023   2.600
 7882SOL    HW225544   9.108  13.153   2.547
 7883SOL     OW25545   7.081  13.741  12.153
 7883SOL    HW125546   7.072  13.827  12.113
 7883SOL    HW225547   7.000  13.728  12.202
 7884SOL     OW25548   0.335   2.784   8.321
 7884SOL    HW125549   0.311   2.856   8.380
 7884SOL    HW225550   0.258   2.727   8.321
 7885SOL     OW25551  12.050   7.209  14.467
 7885SOL    HW125552  11.979   7.253  14.420
 7885SOL    HW225553  12.121   7.274  14.470
 7886SOL     OW25554   2.518  11.959   4.128
 7886SOL    HW125555   2.537  11.970   4.034
 7886SOL    HW225556   2.468  12.037   4.151
 7887SOL     OW25557  12.688   2.909   2.529
 7887SOL    HW125558  12.719   2.854   2.458
 7887SOL    HW225559  12.653   2.987   2.485
 7888SOL     OW25560  11.149   3.148  10.754
 7888SOL    HW125561  11.216   3.196  10.803
 7888SOL    HW225562  11.080   3.212  10.738
 7889SOL     OW25563   4.945   0.556   7.713
 7889SOL    HW125564   4.957   0.598   7.628
 7889SOL    HW225565   4.932   0.464   7.693
 7890SOL     OW25566  10.825   7.030  10.725
 7890SOL    HW125567  10.856   6.995  10.642
 7890SOL    HW225568  10.900   7.025  10.783
 7891SOL     OW25569  13.950   8.220  13.752
 7891SOL    HW125570  13.903   8.183  13.827
 7891SOL    HW225571  13.921   8.168  13.678
 7892SOL     OW25572   1.388   5.305  12.997
 7892SOL    HW125573   1.403   5.399  13.002
 7892SOL    HW225574   1.474   5.269  12.971
 7893SOL     OW25575   9.657   5.334   8.973
 7893SOL    HW125576   9.642   5.414   8.923
 7893SOL    HW225577   9.686   5.364   9.059
 7894SOL     OW25578   5.212  13.162  13.162
 7894SOL    HW125579   5.212  13.183  13.069
 7894SOL    HW225580   5.123  13.131  13.180
 7895SOL     OW25581   9.251  13.060  14.588
 7895SOL    HW125582   9.318  13.027  14.648
 7895SOL    HW225583   9.300  13.110  14.522
 7896SOL     OW25584   6.743   7.944   9.339
 7896SOL    HW125585   6.758   7.989   9.422
 7896SOL    HW225586   6.743   8.014   9.273
 7897SOL     OW25587  14.851  12.720   7.790
 7897SOL    HW125588  14.860  12.628   7.816
 7897SOL    HW225589  14.770  12.750   7.831
 7898SOL     OW25590   4.640   1.197   1.166
 7898SOL    HW125591   4.669   1.166   1.252
 7898SOL    HW225592   4.696   1.150   1.104
 7899SOL     OW25593  13.340  12.740  13.655
 7899SOL    HW125594  13.422  12.780  13.685
 7899SOL    HW225595  13.323  12.782  13.570
 7900SOL     OW25596  10.748   1.802   1.565
 7900SOL    HW125597  10.661   1.825   1.532
 7900SOL    HW225598  10.781   1.739   1.502
 7901SOL     OW25599   5.432  11.571   2.391
 7901SOL    HW125600   5.486  11.494   2.376
 7901SOL    HW225601   5.347  11.548   2.353
 7902SOL     OW25602  10.268  13.907  13.245
 7902SOL    HW125603  10.317  13.965  13.187
 7902SOL    HW225604  10.208  13.965  13.292
 7903SOL     OW25605   2.845   7.937  10.417
 7903SOL    HW125606   2.785   7.874  10.456
 7903SOL    HW225607   2.814   7.947  10.327
 7904SOL     OW25608   7.074  10.903   9.376
 7904SOL    HW125609   7.092  10.930   9.286
 7904SOL    HW225610   7.159  10.876   9.411
 7905SOL     OW25611   4.268  10.044  14.568
 7905SOL    HW125612   4.203  10.104  14.532
 7905SOL    HW225613   4.276   9.975  14.502
 7906SOL     OW25614   8.570   0.078  14.751
 7906SOL    HW125615   8.650   0.104  14.705
 7906SOL    HW225616   8.592  14.874  14.795
 7907SOL     OW25617  11.505   4.473   7.329
 7907SOL    HW125618  11.569   4.430   7.384
 7907SOL    HW225619  11.557   4.523   7.266
 7908SOL     OW25620   4.383   8.929   0.513
 7908SOL    HW125621   4.396   8.963   0.424
 7908SOL    HW225622   4.308   8.979   0.546
 7909SOL     OW25623   4.992   6.341   3.441
 7909SOL    HW125624   4.992   6.358   3.535
 7909SOL    HW225625   5.060   6.275   3.429
 7910SOL     OW25626  13.854   7.211  13.256
 7910SOL    HW125627  13.851   7.244  13.346
 7910SOL    HW225628  13.848   7.290  13.202
 7911SOL     OW25629   4.446  12.631   4.709
 7911SOL    HW125630   4.503  12.568   4.754
 7911SOL    HW225631   4.393  12.577   4.651
 7912SOL     OW25632   9.229  14.391   6.455
 7912SOL    HW125633   9.155  14.375   6.397
 7912SOL    HW225634   9.260  14.304   6.479
 7913SOL     OW25635  11.948   6.743   0.890
 7913SOL    HW125636  11.854   6.747   0.904
 7913SOL    HW225637  11.967   6.814   0.829
 7914SOL     OW25638   7.283  14.510  11.076
 7914SOL    HW125639   7.234  14.574  11.127
 7914SOL    HW225640   7.242  14.426  11.098
 7915SOL     OW25641  12.013   1.543  14.350
 7915SOL    HW125642  12.048   1.468  14.301
 7915SOL    HW225643  12.080   1.561  14.417
 7916SOL     OW25644   1.795   5.947   9.333
 7916SOL    HW125645   1.809   6.030   9.378
 7916SOL    HW225646   1.874   5.934   9.281
 7917SOL     OW25647   1.330  10.118  12.041
 7917SOL    HW125648   1.303  10.204  12.010
 7917SOL    HW225649   1.265  10.094  12.107
 7918SOL     OW25650  10.150  10.760  13.983
 7918SOL    HW125651  10.146  10.846  14.025
 7918SOL    HW225652  10.118  10.700  14.050
 7919SOL     OW25653   4.791   3.321   9.678
 7919SOL    HW125654   4.706   3.334   9.720
 7919SOL    HW225655   4.785   3.367   9.595
 7920SOL     OW25656  13.266   8.602   5.247
 7920SOL    HW125657  13.352   8.563   5.231
 7920SOL    HW225658  13.239   8.636   5.162
 7921SOL     OW25659   8.743   3.835   3.415
 7921SOL    HW125660   8.703   3.872   3.336
 7921SOL    HW225661   8.686   3.761   3.438
 7922SOL     OW25662  12.828   7.947   2.027
 7922SOL    HW125663  12.904   7.995   1.993
 7922SOL    HW225664  12.850   7.855   2.013
 7923SOL     OW25665  12.825   5.935   4.048
 7923SOL    HW125666  12.771   5.896   4.117
 7923SOL    HW225667  12.901   5.970   4.094
 7924NA      NA25668   6.176  10.689   0.538
 7925NA      NA25669   8.137   6.211  11.844
 7926NA      NA25670   8.962   5.595  12.530
 7927NA      NA25671   7.884   4.383   0.633
 7928NA      NA25672   6.417   0.802  13.540
 7929NA      NA25673   2.697   1.186   6.960
 7930NA      NA25674   8.430   5.985   4.488
 7931NA      NA25675   6.790   7.284  12.034
 7932NA      NA25676   1.528   4.013   3.058
 7933NA      NA25677  14.009   4.439   3.099
 7934NA      NA25678   7.773   4.672   5.341
 7935NA      NA25679   8.603   3.860   7.705
 7936NA      NA25680   0.019   4.888   5.989
 7937NA      NA25681  10.284   3.910   6.181
 7938NA      NA25682   8.522   8.056  11.482
 7939NA      NA25683   9.723   5.817   7.961
 7940NA      NA25684   7.144   5.700  10.778
 7941NA      NA25685  11.807  11.912   0.322
 7942NA      NA25686   8.138   5.587   6.982
 7943NA      NA25687   2.472   0.418  13.729
 7944NA      NA25688   9.998   9.070   5.947
 7945NA      NA25689   9.882   0.801  13.455
 7946NA      NA25690   7.772   5.136  12.764
 7947NA      NA25691   9.767   6.589   6.422
 7948NA      NA25692   8.196   6.187  11.005
 7949NA      NA25693   6.807   4.649   7.889
 7950NA      NA25694   1.944   5.012   6.355
 7951NA      NA25695   6.828   3.783   4.629
 7952NA      NA25696   7.130  10.716   3.444
 7953NA      NA25697   6.729   7.791  10.480
 7954NA      NA25698  10.122   6.128  13.967
 7955NA      NA25699   8.163   5.783   8.339
 7956NA      NA25700   7.172   5.292   9.484
 7957NA      NA25701   6.974   6.407   6.342
 7958NA      NA25702   4.508   4.074   5.104
 7959NA      NA25703   1.303  12.150  14.835
 7960NA      NA25704   7.196   7.523   8.664
 7961NA      NA25705   6.948   1.714   0.336
 7962NA      NA25706   8.129   7.120  10.490
 7963NA      NA25707  12.051   0.117   2.267
 7964NA      NA25708   9.061   6.234   7.812
 7965NA      NA25709   8.950   5.146   6.785
 7966NA      NA25710   7.101   6.820  13.650
 7967NA      NA25711   8.287   7.122   8.395
 7968NA      NA25712   7.713   6.850  12.664
 7969NA      NA25713   7.159   6.941   8.042
 7970NA      NA25714   8.816  10.111   1.022
 7971NA      NA25715   9.423   5.835   5.976
 7972NA      NA25716   7.127   5.509   6.248
 7973NA      NA25717   3.626   6.988  10.572
 7974NA      NA25718   7.531   5.083   8.847
 7975NA      NA25719   7.119   6.690   9.766
 7976NA      NA25720   4.212  11.212   5.720
 7977NA      NA25721   8.877   6.808   9.494
 7978NA      NA25722   7.350   7.866  10.558
 7979NA      NA25723   6.797   7.355  11.205
 7980NA      NA25724  13.302   0.393   5.135
 7981NA      NA25725   6.466   8.258  12.691
 7982NA      NA25726  11.259   5.347   5.831
 7983NA      NA25727   8.725   6.592  10.309
 7984NA      NA25728   7.075   7.967  13.441
 7985NA      NA25729   8.757   5.406   9.000
 7986NA      NA25730   8.412   7.980  12.765
 7987NA      NA25731   1.682   8.704  11.066
  14.87755  14.87755  14.87755
